G2DPncore-PETIM in water
200490
    1aaa     N1    1   4.647   5.480   9.373  0.5031  0.1063  0.1117
    1aaa     C1    2   4.790   5.517   9.350  0.4073  0.1497  0.1617
    1aaa     H1    3   4.822   5.573   9.439  0.2429 -1.4786  1.2784
    1aaa     H2    4   4.850   5.427   9.346  0.8257  0.4063  0.5681
    1aaa     C2    5   4.637   5.370   9.469  0.7825  0.0935  0.2487
    1aaa     H3    6   4.684   5.399   9.563 -1.1119 -0.0424  1.2778
    1aaa     H4    7   4.529   5.359   9.480  1.0279 -0.8833  1.9200
    1aaa     C3    8   4.574   5.600   9.422 -0.0034 -0.2528  0.1330
    1aaa     H5    9   4.502   5.562   9.494 -0.2634  0.2520  0.1445
    1aaa     H6   10   4.647   5.656   9.480  0.3756  0.5251 -1.0495
    1aaa     C4   11   4.514   5.700   9.319  0.0598 -0.1225  0.3653
    1aaa     H7   12   4.587   5.739   9.247 -0.9583  2.4082  0.6305
    1aaa     H8   13   4.447   5.649   9.249  0.6946  2.8050 -2.6199
    1aaa     C5   14   4.825   5.605   9.224 -0.5569 -0.2780 -0.6558
    1aaa     H9   15   4.767   5.562   9.141  0.3728 -1.1019 -0.8984
    1aaa    H10   16   4.796   5.710   9.238 -0.7798 -0.2612 -1.2139
    1aaa     C6   17   4.694   5.229   9.424 -0.1183 -0.3375  0.3908
    1aaa    H11   18   4.687   5.229   9.314 -0.0620  2.0775  0.3309
    1aaa    H12   19   4.799   5.229   9.454  0.6565  2.0462 -1.9546
    1aaa     C7   20   4.618   5.100   9.468 -0.1798 -0.2875 -0.1170
    1aaa    H13   21   4.565   5.120   9.562 -1.1310 -0.2526 -0.6541
    1aaa    H14   22   4.543   5.074   9.393  0.0729 -0.9407 -0.1519
    1aaa     C8   23   4.473   5.825   9.397  0.0690 -0.2740  0.0909
    1aaa    H15   24   4.497   5.810   9.503 -0.1571 -2.5437 -0.1339
    1aaa    H16   25   4.524   5.917   9.367  1.1039 -0.3455  1.5275
    1aaa     C9   26   4.979   5.606   9.200 -0.2338  0.4620  0.5232
    1aaa    H17   27   5.027   5.667   9.277 -1.1382 -0.7338  2.1092
    1aaa    H18   28   5.021   5.507   9.222 -1.5095  0.4336  3.2921
    1aaa    H19   29   4.598   5.440   9.291  1.8593 -2.5430  0.4744
    2bbb     N1   30   4.816   4.779   9.639 -0.1112  0.2689  0.0311
    2bbb     C1   31   4.752   4.648   9.637  0.3690 -0.3323  0.0754
    2bbb     H1   32   4.832   4.574   9.643 -0.4461 -1.2642 -0.3546
    2bbb     H2   33   4.704   4.634   9.540  2.0485 -0.1086 -0.8299
    2bbb     C2   34   4.900   4.796   9.762 -0.2669  0.1578  0.1759
    2bbb     H3   35   4.842   4.770   9.851  1.2722  0.6568  1.3771
    2bbb     H4   36   4.928   4.899   9.787 -1.9642  0.9227 -0.9424
    2bbb     C3   37   4.912   4.788   9.524 -0.6348 -0.7018  0.4385
    2bbb     H5   38   4.977   4.701   9.522 -0.0024 -0.2294 -0.5607
    2bbb     H6   39   4.990   4.864   9.538  0.0558 -1.7910  3.2025
    2bbb     C4   40   4.847   4.809   9.382 -0.6057 -0.1351 -0.1392
    2bbb     H7   41   4.775   4.727   9.372  0.2041 -0.7559 -1.0783
    2bbb     H8   42   4.928   4.801   9.308 -0.6642  1.9315 -0.5052
    2bbb     C5   43   4.638   4.619   9.739  0.3820  0.5706  0.5797
    2bbb     H9   44   4.562   4.699   9.744  0.0842  0.2971  0.4390
    2bbb    H10   45   4.681   4.610   9.839  1.7212 -0.9028 -0.0924
    2bbb     C6   46   5.014   4.702   9.790 -0.4032  0.8212 -0.8759
    2bbb    H11   47   5.074   4.693   9.699  0.1561 -0.3192 -0.4127
    2bbb    H12   48   4.976   4.600   9.803  2.6271 -0.2967  0.3482
    2bbb     C7   49   4.790   4.951   9.360  0.6764  0.0117 -0.7398
    2bbb    H13   50   4.746   4.951   9.260 -1.7412 -0.2537  0.2382
    2bbb    H14   51   4.878   5.016   9.353  0.6921  0.0945  0.1220
    2bbb     C8   52   5.105   4.749   9.904 -0.7349  0.2096  0.2488
    2bbb    H15   53   5.160   4.841   9.881 -0.3495  0.1599  0.9462
    2bbb    H16   54   5.047   4.768   9.994 -1.4080 -0.3781 -0.0530
    2bbb     C9   55   4.569   4.483   9.711 -0.5520  0.2656 -1.0994
    2bbb    H17   56   4.506   4.481   9.621 -1.1076 -1.2600 -0.7028
    2bbb    H18   57   4.496   4.468   9.791  1.3316 -1.8873  0.3291
    2bbb     O1   58   4.714   4.995   9.478 -0.3564 -0.3789 -0.4923
    2bbb    H19   59   4.744   4.852   9.624 -0.9650 -0.9724 -2.6164
    3bbb     N1   60   3.924   6.125   9.461 -0.2146  0.3193 -0.3053
    3bbb     C1   61   3.837   6.064   9.569 -0.6637  0.0871  0.9849
    3bbb     H1   62   3.826   5.958   9.544 -0.8266  0.1374  0.8392
    3bbb     H2   63   3.733   6.092   9.551 -0.7007 -1.8491 -3.0233
    3bbb     C2   64   3.891   6.273   9.454 -0.1291 -0.5367  0.5338
    3bbb     H3   65   3.908   6.322   9.551  0.2502  0.1486  0.1327
    3bbb     H4   66   3.785   6.276   9.431  0.1581 -1.2588 -0.9722
    3bbb     C3   67   4.072   6.093   9.497  0.2644  0.0747 -0.0904
    3bbb     H5   68   4.082   6.097   9.606  0.4068  2.4965 -0.1361
    3bbb     H6   69   4.139   6.170   9.459 -1.4512  0.9233 -1.5258
    3bbb     C4   70   4.123   5.959   9.435 -1.0068 -0.4334 -0.6759
    3bbb     H7   71   4.112   5.964   9.326 -1.1269 -0.7177 -0.6772
    3bbb     H8   72   4.063   5.877   9.475  0.5280 -1.3004 -0.0667
    3bbb     C5   73   3.870   6.079   9.723  0.1203  0.1113 -0.2316
    3bbb     H9   74   3.841   6.180   9.753  1.1929  0.7401 -1.2114
    3bbb    H10   75   3.974   6.062   9.752  0.2033 -1.6593 -1.4161
    3bbb     C6   76   3.962   6.369   9.356 -0.8615 -0.8208  0.4404
    3bbb    H11   77   3.951   6.319   9.259 -1.0883 -0.7327  0.4201
    3bbb    H12   78   4.070   6.373   9.372 -0.3005  4.0134 -2.7009
    3bbb     C7   79   4.274   5.934   9.467  0.0618 -0.1497  0.9147
    3bbb    H13   80   4.293   5.904   9.570  0.4724  1.9100  1.4771
    3bbb    H14   81   4.329   6.028   9.451 -3.0110  1.6098 -0.4111
    3bbb     C8   82   3.905   6.509   9.366  0.7258 -0.6064  0.0991
    3bbb    H15   83   3.931   6.557   9.461  3.0334 -1.9380  0.2042
    3bbb    H16   84   3.947   6.572   9.287 -1.0659  0.3463 -0.1566
    3bbb     C9   85   3.791   5.977   9.814  0.5118  0.2776  0.3349
    3bbb    H17   86   3.830   5.876   9.796  1.5160  0.7400 -0.1914
    3bbb    H18   87   3.684   5.975   9.794  0.4835  1.4257  0.3096
    3bbb     O1   88   4.336   5.835   9.374  0.1039 -0.2318 -0.0358
    3bbb    H19   89   3.905   6.088   9.367  0.3348 -2.4746  0.5910
    4bbb     N1   90   5.249   5.889   8.740 -0.2927  0.2499  0.0186
    4bbb     C1   91   5.158   5.835   8.630  0.2082  0.0555  0.0501
    4bbb     H1   92   5.054   5.860   8.651 -0.0299 -0.4233 -0.5237
    4bbb     H2   93   5.159   5.728   8.651  0.3691 -0.0867 -0.6646
    4bbb     C2   94   5.228   6.036   8.750  0.0801  0.5657  0.1209
    4bbb     H3   95   5.247   6.068   8.853  2.2105 -1.7038  0.5144
    4bbb     H4   96   5.124   6.058   8.726  0.1463  3.1174  1.7265
    4bbb     C3   97   5.204   5.830   8.871  0.1290 -0.2128 -0.1279
    4bbb     H5   98   5.099   5.858   8.873  0.3512  0.6249  0.2149
    4bbb     H6   99   5.250   5.881   8.956 -1.1389  1.0453 -0.1460
    4bbb     C4  100   5.209   5.682   8.903 -0.1857  0.0735  0.3859
    4bbb     H7  101   5.314   5.649   8.905 -0.3588 -0.4778  0.8139
    4bbb     H8  102   5.164   5.619   8.825  0.7148  0.0388 -0.1184
    4bbb     C5  103   5.199   5.848   8.479  0.6603 -0.1544 -0.0081
    4bbb     H9  104   5.306   5.823   8.473  0.5463 -1.0559  1.2408
    4bbb    H10  105   5.176   5.948   8.442 -1.6766 -0.5939  0.0639
    4bbb     C6  106   5.307   6.120   8.654 -0.4034 -0.6098  0.4099
    4bbb    H11  107   5.262   6.220   8.650  0.0627 -0.4271 -0.5356
    4bbb    H12  108   5.292   6.083   8.552 -2.0962  0.7911  0.0923
    4bbb     C7  109   5.158   5.638   9.044 -0.3272 -0.3376  0.3362
    4bbb    H13  110   5.216   5.697   9.117  3.0730 -1.8809 -0.9341
    4bbb    H14  111   5.185   5.532   9.039 -0.8515 -0.5292  1.2446
    4bbb     C8  112   5.462   6.123   8.684  0.1849 -0.1014 -0.2371
    4bbb    H15  113   5.486   6.157   8.786  0.4365 -1.9553  0.3548
    4bbb    H16  114   5.492   6.018   8.677  0.1539 -0.0614 -1.0560
    4bbb     C9  115   5.102   5.764   8.388 -0.3842 -0.3628  1.0640
    4bbb    H17  116   4.998   5.793   8.408 -0.0856  1.4957  0.1728
    4bbb    H18  117   5.114   5.659   8.419  1.5189 -0.3861  0.3734
    4bbb     O1  118   5.017   5.650   9.074 -0.3913 -0.0504  0.6318
    4bbb    H19  119   5.348   5.869   8.721 -0.0669  1.4622 -0.1632
    5bbb     N1  120   5.531   4.522  10.122 -0.0345  0.0708  0.5923
    5bbb     C1  121   5.635   4.638  10.141  0.0139 -0.2787  0.0371
    5bbb     H1  122   5.598   4.689  10.230 -0.1319  2.9001 -1.7091
    5bbb     H2  123   5.618   4.708  10.059 -0.0656  1.9795  1.9008
    5bbb     C2  124   5.552   4.416  10.235  0.3406  0.2258  0.7353
    5bbb     H3  125   5.658   4.391  10.229  0.6258  1.3706  0.7767
    5bbb     H4  126   5.495   4.327  10.208 -1.7980  1.4157  1.0525
    5bbb     C3  127   5.390   4.565  10.117  1.0365 -1.0517 -0.4448
    5bbb     H5  128   5.380   4.643  10.041 -3.3967  0.2295  1.1793
    5bbb     H6  129   5.362   4.613  10.211  1.3141  0.3003 -1.0226
    5bbb     C4  130   5.283   4.462  10.069  0.1676  0.8038 -0.7252
    5bbb     H7  131   5.262   4.399  10.157 -2.4189  1.1392 -1.0153
    5bbb     H8  132   5.327   4.389  10.000  3.2521 -0.9508  2.7425
    5bbb     C5  133   5.787   4.612  10.147  0.4994  0.0276  0.4101
    5bbb     H9  134   5.806   4.557  10.240 -0.6557  0.2437  0.7960
    5bbb    H10  135   5.824   4.715  10.141  0.7741 -0.1151 -0.5564
    5bbb     C6  136   5.527   4.456  10.381  0.0799  0.0540  0.5919
    5bbb    H11  137   5.421   4.468  10.407 -0.0165  2.4224 -0.5870
    5bbb    H12  138   5.574   4.555  10.390  0.1891  0.2078 -1.3154
    5bbb     C7  139   5.153   4.533  10.015  0.4612 -0.5641 -0.2884
    5bbb    H13  140   5.094   4.572  10.099 -0.3071 -0.2564 -0.9554
    5bbb    H14  141   5.085   4.463   9.966 -0.2038 -0.6176  0.6704
    5bbb     C8  142   5.609   4.354  10.469  0.0517 -0.1940 -0.2896
    5bbb    H15  143   5.716   4.367  10.445 -0.2888  1.9815 -0.8961
    5bbb    H16  144   5.579   4.376  10.572 -0.0635 -2.9025  0.3172
    5bbb     C9  145   5.851   4.517  10.036 -0.5423 -0.3568  0.7623
    5bbb    H17  146   5.842   4.567   9.939  0.4215 -0.4493  0.6123
    5bbb    H18  147   5.800   4.420  10.040 -0.5426 -0.3653  0.5591
    5bbb     O1  148   5.200   4.644   9.929 -0.0023  0.8510 -0.2773
    5bbb    H19  149   5.551   4.472  10.034 -0.6827 -0.1581  0.5683
    6bbb     N1  150   4.719   3.870   9.746  0.2177 -0.7621 -0.1048
    6bbb     C1  151   4.824   3.852   9.846 -0.1451  0.1557  0.3001
    6bbb     H1  152   4.777   3.801   9.930  0.4193  0.8188  1.0281
    6bbb     H2  153   4.847   3.954   9.876  0.4788  0.3939 -0.8898
    6bbb     C2  154   4.629   3.750   9.765 -0.3766 -0.2176  0.3556
    6bbb     H3  155   4.579   3.760   9.862  0.3027 -0.7806  0.7720
    6bbb     H4  156   4.686   3.657   9.775 -0.6484 -0.2358  2.1121
    6bbb     C3  157   4.632   3.993   9.762  0.4229  0.1256  0.1079
    6bbb     H5  158   4.594   3.985   9.864 -0.0403 -0.3461 -0.0977
    6bbb     H6  159   4.546   3.983   9.696  0.7119  0.8317 -0.3865
    6bbb     C4  160   4.697   4.133   9.741 -0.0166  0.4305 -0.2793
    6bbb     H7  161   4.744   4.134   9.642 -0.6346 -0.0402 -0.5897
    6bbb     H8  162   4.773   4.134   9.819  0.6274 -0.9875 -0.8532
    6bbb     C5  163   4.955   3.782   9.804  0.3071  0.0747  0.1107
    6bbb     H9  164   5.031   3.789   9.883  0.5517 -0.3630 -0.0806
    6bbb    H10  165   4.995   3.850   9.728 -0.7200  0.3812 -0.1800
    6bbb     C6  166   4.526   3.721   9.656  0.5064 -0.0622 -0.4511
    6bbb    H11  167   4.566   3.747   9.558 -2.0149  2.2727 -0.9790
    6bbb    H12  168   4.442   3.789   9.670  1.0711  0.3033  1.4909
    6bbb     C7  169   4.601   4.250   9.759 -0.2257 -0.1654  0.3075
    6bbb    H13  170   4.572   4.262   9.864  0.1988  2.5604  0.1916
    6bbb    H14  171   4.508   4.234   9.703 -0.1503 -1.0815  0.4225
    6bbb     C8  172   4.466   3.579   9.653  0.5742 -0.9506 -0.1221
    6bbb    H15  173   4.413   3.567   9.557 -0.9359 -1.0127  0.7001
    6bbb    H16  174   4.553   3.511   9.649  0.0957 -1.6706  1.3176
    6bbb     C9  175   4.955   3.636   9.749 -0.4101 -0.0628 -0.1080
    6bbb    H17  176   5.058   3.599   9.743 -0.0879  0.6952  0.4825
    6bbb    H18  177   4.914   3.632   9.648 -0.8032 -0.4226  0.0613
    6bbb     O1  178   4.658   4.372   9.710  0.6510 -0.1322 -0.0473
    6bbb    H19  179   4.763   3.861   9.653  1.6782  0.0841  0.4552
    7bbb     N1  180   3.357   6.575   9.157 -1.1615  0.0695  0.0131
    7bbb     C1  181   3.333   6.574   9.007 -0.1449 -0.1064 -0.0027
    7bbb     H1  182   3.224   6.564   8.999 -0.2476  1.1051 -0.3558
    7bbb     H2  183   3.371   6.480   8.967 -1.7517 -0.7927 -0.0104
    7bbb     C2  184   3.305   6.442   9.218 -0.4895  0.2848 -0.6710
    7bbb     H3  185   3.380   6.406   9.288 -2.9816 -2.9028  0.5855
    7bbb     H4  186   3.301   6.372   9.135 -0.2434  1.5632 -1.8159
    7bbb     C3  187   3.509   6.591   9.181  0.0335 -0.4553  0.3033
    7bbb     H5  188   3.545   6.683   9.134 -0.9194 -0.4154 -0.3933
    7bbb     H6  189   3.561   6.504   9.140 -0.3457 -0.4415 -0.2351
    7bbb     C4  190   3.538   6.605   9.325 -0.5177  0.0522  0.2344
    7bbb     H7  191   3.509   6.513   9.377  0.7263 -0.4456  0.0881
    7bbb     H8  192   3.488   6.691   9.371 -0.6358  0.1655 -0.1040
    7bbb     C5  193   3.381   6.708   8.941  0.2404  0.1202  0.3924
    7bbb     H9  194   3.489   6.725   8.950  0.1055  0.8563  0.7868
    7bbb    H10  195   3.339   6.800   8.986 -0.2488  1.1473 -1.9758
    7bbb     C6  196   3.168   6.440   9.290 -0.5571  0.3579  0.9443
    7bbb    H11  197   3.183   6.486   9.389  0.8091  2.7672 -0.3132
    7bbb    H12  198   3.143   6.336   9.311 -2.9395  0.9939  1.6086
    7bbb     C7  199   3.690   6.622   9.359 -0.3598  0.1505  0.3851
    7bbb    H13  200   3.703   6.660   9.461 -0.4262  1.3076 -0.0255
    7bbb    H14  201   3.737   6.702   9.301  0.6127 -0.3911  0.4037
    7bbb     C8  202   3.060   6.515   9.207 -0.3761  0.0158 -0.0697
    7bbb    H15  203   3.093   6.619   9.201 -0.0010  0.1169  2.7750
    7bbb    H16  204   3.064   6.467   9.108 -0.7904 -1.3675  0.5582
    7bbb     C9  205   3.332   6.718   8.797  1.0721  0.4193 -0.0459
    7bbb    H17  206   3.227   6.689   8.789  1.2953 -0.6402  0.7353
    7bbb    H18  207   3.387   6.648   8.732  1.1076  1.4471 -1.1474
    7bbb     O1  208   3.763   6.497   9.337 -0.1431  0.1955 -0.6141
    7bbb    H19  209   3.309   6.654   9.203 -0.2204  0.9928 -0.5566
    8bbb     N1  210   3.909   6.059  10.378 -0.2729 -0.2008 -0.2578
    8bbb     C1  211   3.952   6.204  10.401 -0.4411  0.4449 -0.1070
    8bbb     H1  212   3.860   6.259  10.424 -2.0580 -2.3812  0.7305
    8bbb     H2  213   4.003   6.228  10.307 -1.6960  0.5559 -0.7865
    8bbb     C2  214   3.838   5.998  10.496  0.0874  0.8652  0.0739
    8bbb     H3  215   3.915   5.993  10.574  0.0570 -2.9330  0.0519
    8bbb     H4  216   3.817   5.893  10.473 -2.4269  1.4186 -0.4402
    8bbb     C3  217   3.824   6.051  10.252 -0.7399  0.2034  0.0966
    8bbb     H5  218   3.871   6.120  10.181  1.4384  0.6891  1.8865
    8bbb     H6  219   3.727   6.090  10.281 -0.0962  0.7114  1.6998
    8bbb     C4  220   3.828   5.915  10.173  0.2870 -0.0691 -0.4862
    8bbb     H7  221   3.789   5.837  10.240 -0.0127 -0.2008 -0.8099
    8bbb     H8  222   3.928   5.878  10.146  0.1439 -1.6325  1.0015
    8bbb     C5  223   4.050   6.225  10.512  0.0745  0.4266  0.3131
    8bbb     H9  224   4.129   6.150  10.505  0.1309  0.5224 -0.0901
    8bbb    H10  225   3.997   6.224  10.608  0.6003  1.1639  0.6287
    8bbb     C6  226   3.720   6.065  10.556 -0.0902  0.0166  0.5911
    8bbb    H11  227   3.668   6.095  10.464  2.5161  1.6800 -0.4753
    8bbb    H12  228   3.740   6.160  10.607  3.4716  0.1457 -0.7332
    8bbb     C7  229   3.749   5.916  10.044 -0.2877  0.4403  0.2379
    8bbb    H13  230   3.643   5.937  10.062 -0.3495  0.6210 -0.3162
    8bbb    H14  231   3.762   5.814  10.004  0.3826  1.3533 -2.0139
    8bbb     C8  232   3.635   5.973  10.640  0.0975  0.6387 -0.1947
    8bbb    H15  233   3.578   5.915  10.566  1.1979  1.5051 -1.7773
    8bbb    H16  234   3.685   5.891  10.692 -1.3012 -0.1346 -0.0237
    8bbb     C9  235   4.120   6.358  10.489  0.3541 -0.1714  0.8853
    8bbb    H17  236   4.160   6.369  10.388  1.9477 -3.7654  0.9639
    8bbb    H18  237   4.204   6.350  10.560  1.1113 -4.3071 -0.2688
    8bbb     O1  238   3.817   6.010   9.949  0.1885  0.2153  0.8945
    8bbb    H19  239   3.995   6.007  10.360 -1.1634 -1.6991 -0.3520
    9bbb     N1  240   5.760   6.522   8.349 -0.4828 -0.7246 -0.0048
    9bbb     C1  241   5.912   6.507   8.344 -0.4498 -0.1309 -0.2008
    9bbb     H1  242   5.945   6.499   8.240  0.6995 -2.7259  0.2757
    9bbb     H2  243   5.930   6.408   8.385 -1.2264  0.2286  1.0553
    9bbb     C2  244   5.681   6.460   8.231 -0.1074  0.0168  0.3023
    9bbb     H3  245   5.579   6.462   8.269 -0.3738 -1.0635 -0.3307
    9bbb     H4  246   5.702   6.355   8.216 -0.4617  0.1829 -1.5406
    9bbb     C3  247   5.720   6.440   8.472  0.1506 -0.2390  0.0307
    9bbb     H5  248   5.615   6.471   8.479 -0.2406 -0.6180 -2.9297
    9bbb     H6  249   5.771   6.481   8.559  0.8505 -0.9417 -0.0364
    9bbb     C4  250   5.734   6.275   8.464  0.5729 -0.5730  0.2352
    9bbb     H7  251   5.833   6.233   8.446 -0.1920 -1.9972 -0.8837
    9bbb     H8  252   5.674   6.243   8.378 -0.9701  1.3884  0.5129
    9bbb     C5  253   5.986   6.613   8.425  0.6369 -0.7167 -0.2757
    9bbb     H9  254   5.982   6.590   8.532 -0.6372 -0.0174 -0.1415
    9bbb    H10  255   5.933   6.707   8.405  1.5436  0.3313  1.9066
    9bbb     C6  256   5.696   6.524   8.095 -0.5461  1.4841 -0.2824
    9bbb    H11  257   5.638   6.464   8.022 -0.0396  0.0559  0.4513
    9bbb    H12  258   5.802   6.517   8.067 -0.8110  0.1436 -1.0818
    9bbb     C7  259   5.672   6.211   8.590 -0.1241  0.0060 -0.8625
    9bbb    H13  260   5.710   6.244   8.687 -0.4661  1.7271 -1.2803
    9bbb    H14  261   5.707   6.108   8.575  0.0762  0.3444 -3.2400
    9bbb     C8  262   5.656   6.669   8.086 -0.1090  0.1855  0.7756
    9bbb    H15  263   5.677   6.703   7.984  0.4526 -3.1340 -0.3377
    9bbb    H16  264   5.547   6.679   8.097 -0.0862  1.2466  0.2441
    9bbb     C9  265   6.127   6.622   8.367  0.0641  0.0644  0.2051
    9bbb    H17  266   6.124   6.641   8.259  0.3288  0.9696  0.3453
    9bbb    H18  267   6.174   6.524   8.377  0.4967  0.0457 -1.6314
    9bbb     O1  268   5.529   6.212   8.590 -0.5453 -0.4302 -0.7561
    9bbb    H19  269   5.726   6.619   8.351 -0.2119 -0.6242 -0.2351
   10bbb     N1  270   5.247   5.624   7.839 -0.5667 -0.1414 -0.4181
   10bbb     C1  271   5.233   5.723   7.722 -0.3148 -0.3092 -0.1957
   10bbb     H1  272   5.326   5.778   7.725  1.2226 -2.7385 -0.0916
   10bbb     H2  273   5.155   5.795   7.745  0.8648  1.3327 -1.1801
   10bbb     C2  274   5.378   5.549   7.833 -0.0283 -0.3589 -0.1940
   10bbb     H3  275   5.400   5.507   7.931 -0.6971  0.2581  0.2332
   10bbb     H4  276   5.457   5.619   7.805 -0.8681  0.9520  0.5508
   10bbb     C3  277   5.244   5.686   7.973  0.8385  0.2809 -0.0001
   10bbb     H5  278   5.323   5.761   7.976  1.9023 -0.7879 -0.1215
   10bbb     H6  279   5.257   5.602   8.041 -1.3190  0.1657  0.3320
   10bbb     C4  280   5.111   5.749   8.008  0.1119  0.0538 -0.8974
   10bbb     H7  281   5.039   5.704   7.939 -0.2032  0.2200 -0.6793
   10bbb     H8  282   5.121   5.856   7.987  0.6525  0.2314  0.1933
   10bbb     C5  283   5.203   5.671   7.578  0.2698  0.3754  0.2985
   10bbb     H9  284   5.286   5.619   7.528 -1.3394 -0.5892 -1.5399
   10bbb    H10  285   5.171   5.749   7.507 -0.7798 -0.2053  0.1181
   10bbb     C6  286   5.382   5.434   7.730 -0.1739 -0.0360 -0.2128
   10bbb    H11  287   5.317   5.452   7.643  2.0425 -0.0926 -1.9697
   10bbb    H12  288   5.344   5.344   7.780  0.7989  0.7129  2.0137
   10bbb     C7  289   5.064   5.717   8.154  0.5817 -0.4896  0.5580
   10bbb    H13  290   5.068   5.608   8.165 -3.4032 -0.9878 -1.1949
   10bbb    H14  291   4.961   5.756   8.152  0.6387 -0.1337 -3.0943
   10bbb     C8  292   5.533   5.416   7.682 -0.3406  0.1499 -0.0195
   10bbb    H15  293   5.582   5.506   7.644  0.7146  0.5570  2.1160
   10bbb    H16  294   5.596   5.384   7.767 -0.1426 -0.4293 -0.3832
   10bbb     C9  295   5.088   5.568   7.577 -1.0264 -1.1373  0.1987
   10bbb    H17  296   5.118   5.472   7.621  4.2534  0.8105  1.5988
   10bbb    H18  297   5.050   5.557   7.475 -1.0315  1.1466 -0.1052
   10bbb     O1  298   5.143   5.792   8.248 -0.0858 -0.0133  0.5677
   10bbb    H19  299   5.170   5.558   7.822 -0.5850  0.0526 -1.1019
   11bbb     N1  300   5.501   4.081  10.842 -0.0395 -0.2560  0.9164
   11bbb     C1  301   5.576   3.953  10.884  0.5647  0.3994  0.2121
   11bbb     H1  302   5.569   3.952  10.993 -1.4186  0.7159  0.1309
   11bbb     H2  303   5.681   3.964  10.858  0.2516 -0.5687 -1.5598
   11bbb     C2  304   5.562   4.197  10.913 -0.1951  0.0924  0.0570
   11bbb     H3  305   5.667   4.197  10.883 -0.6537 -1.9516 -1.7722
   11bbb     H4  306   5.567   4.172  11.019 -0.4782 -0.7865 -0.1343
   11bbb     C3  307   5.512   4.101  10.689 -0.6997  0.3566  0.4865
   11bbb     H5  308   5.466   4.195  10.658 -0.2663  0.6965  0.8667
   11bbb     H6  309   5.438   4.031  10.649 -1.2511  0.5921  1.0682
   11bbb     C4  310   5.656   4.092  10.616  0.5153  0.3185  1.1126
   11bbb     H7  311   5.700   3.992  10.624  1.8988  0.6225 -1.6555
   11bbb     H8  312   5.729   4.160  10.661  0.9175 -1.5876  3.5739
   11bbb     C5  313   5.520   3.815  10.845  0.0216  0.3039  0.0401
   11bbb     H9  314   5.511   3.812  10.736  0.2174  0.9221 -0.0002
   11bbb    H10  315   5.425   3.788  10.892  0.5510 -1.0286  0.4049
   11bbb     C6  316   5.494   4.335  10.900  0.0759 -0.0984  0.3140
   11bbb    H11  317   5.387   4.314  10.911  0.3056 -1.7306 -0.2905
   11bbb    H12  318   5.510   4.378  10.801 -0.8895  0.6777  0.4816
   11bbb     C7  319   5.634   4.109  10.465 -0.4461  0.0333  0.8739
   11bbb    H13  320   5.576   4.024  10.427 -0.6442 -0.9705  3.2847
   11bbb    H14  321   5.730   4.116  10.413 -1.4488  2.8931 -0.8723
   11bbb     C8  322   5.538   4.441  11.000 -0.2154  0.3268  0.2568
   11bbb    H15  323   5.646   4.441  10.978 -0.0077 -5.8633 -0.7085
   11bbb    H16  324   5.491   4.536  10.974 -0.1198 -0.3036 -2.5326
   11bbb     C9  325   5.616   3.694  10.879 -0.6665 -0.1976 -0.5281
   11bbb    H17  326   5.716   3.707  10.834  0.3326 -0.7635  1.4282
   11bbb    H18  327   5.568   3.603  10.841 -1.6991 -0.2942  0.9422
   11bbb     O1  328   5.558   4.229  10.434  0.3531 -0.5684  0.6752
   11bbb    H19  329   5.404   4.068  10.875  0.4808 -1.1436  2.1771
   12bbb     N1  330   6.408   4.382  10.188  0.6376 -0.5717 -0.3320
   12bbb     C1  331   6.426   4.373  10.341 -0.1743 -0.8080  0.1089
   12bbb     H1  332   6.519   4.330  10.378  0.3806  1.0904  1.0017
   12bbb     H2  333   6.339   4.319  10.379 -1.3028  0.5751 -0.4249
   12bbb     C2  334   6.474   4.258  10.125 -0.4459  0.5584  0.0056
   12bbb     H3  335   6.451   4.259  10.018 -0.8455  0.4982  0.0891
   12bbb     H4  336   6.419   4.176  10.169 -1.1525  0.8587 -0.3040
   12bbb     C3  337   6.258   4.392  10.151  1.2640  0.6209 -0.2265
   12bbb     H5  338   6.223   4.488  10.189 -0.0065  0.3347 -0.6383
   12bbb     H6  339   6.199   4.320  10.207  0.9022 -1.6882 -3.2726
   12bbb     C4  340   6.209   4.398  10.004 -0.9828 -1.0405  0.2678
   12bbb     H7  341   6.253   4.311   9.953  1.0584 -0.4979  1.0127
   12bbb     H8  342   6.254   4.478   9.944  0.5763 -3.0251 -1.3828
   12bbb     C5  343   6.438   4.519  10.396  0.0764 -0.6527  0.2893
   12bbb     H9  344   6.414   4.536  10.501 -0.2546  1.5977 -0.1043
   12bbb    H10  345   6.364   4.572  10.335  0.0606 -1.6564 -0.6031
   12bbb     C6  346   6.624   4.244  10.140 -0.1749  0.1678 -0.6781
   12bbb    H11  347   6.654   4.234  10.245 -1.0898 -0.4168 -0.4611
   12bbb    H12  348   6.680   4.331  10.103 -1.9402  1.0158 -1.4864
   12bbb     C7  349   6.057   4.393   9.986  0.1955 -0.3950  0.4859
   12bbb    H13  350   6.021   4.293  10.014 -1.4440  0.2210  0.7175
   12bbb    H14  351   6.033   4.408   9.880  1.1312 -0.8789  0.1997
   12bbb     C8  352   6.684   4.121  10.069  0.5019 -0.0653 -0.5272
   12bbb    H15  353   6.641   4.027  10.106  2.5852 -0.1438  2.0185
   12bbb    H16  354   6.662   4.125   9.961 -0.6888 -2.7478 -0.4616
   12bbb     C9  355   6.579   4.572  10.341  0.4378  0.2293 -0.3890
   12bbb    H17  356   6.650   4.488  10.340  0.3278  0.0174  2.2360
   12bbb    H18  357   6.624   4.644  10.410 -0.3439 -0.8261  1.2921
   12bbb     O1  358   5.991   4.496  10.066 -0.2007 -0.2520  0.5192
   12bbb    H19  359   6.462   4.463  10.154 -0.5475 -0.6773 -2.6376
   13bbb     N1  360   4.007   3.480  10.004 -0.4581  0.4592  0.6540
   13bbb     C1  361   3.926   3.354  10.007  0.0641  0.4359 -0.1467
   13bbb     H1  362   3.947   3.302  10.101 -0.0028  1.6737  0.5787
   13bbb     H2  363   3.958   3.285   9.929  0.6331  0.6913 -0.1455
   13bbb     C2  364   4.004   3.540  10.140 -0.5440 -0.3946 -0.4605
   13bbb     H3  365   4.099   3.523  10.191  0.4958  3.1494 -0.9121
   13bbb     H4  366   3.918   3.491  10.185  0.3838 -0.4895  1.2714
   13bbb     C3  367   4.157   3.461   9.979  0.3053  0.3275  0.8548
   13bbb     H5  368   4.191   3.390  10.055  0.6526 -1.2696 -0.7041
   13bbb     H6  369   4.202   3.559   9.988  0.8337  0.4248 -1.8693
   13bbb     C4  370   4.192   3.404   9.838 -0.4271  0.0040 -0.1549
   13bbb     H7  371   4.125   3.444   9.760 -0.8222  0.0557  0.2082
   13bbb     H8  372   4.167   3.297   9.836  1.6922 -0.5227 -0.9673
   13bbb     C5  373   3.780   3.363   9.987  0.0276 -0.0725 -0.0127
   13bbb     H9  374   3.747   3.424   9.902  0.0313  0.3964  0.3220
   13bbb    H10  375   3.737   3.410  10.076 -1.7949  0.7488 -1.2563
   13bbb     C6  376   3.992   3.695  10.143  0.7454 -0.5144  0.1751
   13bbb    H11  377   4.076   3.743  10.090  0.0425  1.1991  0.5510
   13bbb    H12  378   3.998   3.735  10.245  1.0870 -3.2969  1.3247
   13bbb     C7  379   4.339   3.415   9.794 -0.8097 -0.4370 -0.1401
   13bbb    H13  380   4.352   3.358   9.701 -0.4012  0.2869 -0.5336
   13bbb    H14  381   4.409   3.369   9.864 -0.2786 -1.2707 -1.1915
   13bbb     C8  382   3.859   3.735  10.074  0.1935  0.5470 -0.0818
   13bbb    H15  383   3.779   3.670  10.109  0.6767  0.3336  0.6405
   13bbb    H16  384   3.835   3.840  10.096 -2.0991 -0.2120  1.3542
   13bbb     C9  385   3.715   3.230   9.963 -0.3747  0.0485 -0.2030
   13bbb    H17  386   3.766   3.172   9.885  1.2490 -1.1509  1.6696
   13bbb    H18  387   3.613   3.252   9.929 -0.1881  1.3303 -0.0040
   13bbb     O1  388   4.382   3.554   9.774  0.3192 -0.7934  0.7708
   13bbb    H19  389   3.968   3.548   9.938  2.1063  1.9819  0.5608
   14bbb     N1  390   5.133   3.199   9.707  0.3630 -0.4797 -0.0201
   14bbb     C1  391   5.206   3.282   9.606 -0.8329  0.6454  0.3068
   14bbb     H1  392   5.287   3.334   9.657  1.0423 -2.3902  0.6718
   14bbb     H2  393   5.135   3.354   9.565 -1.7630  0.6507  1.8748
   14bbb     C2  394   5.237   3.127   9.792 -0.0697  0.5337  0.1754
   14bbb     H3  395   5.299   3.200   9.843  0.9372  0.2528 -0.6180
   14bbb     H4  396   5.305   3.076   9.724 -0.8604  0.5924 -0.6859
   14bbb     C3  397   5.045   3.291   9.790  0.5128  1.6972 -0.7112
   14bbb     H5  398   5.107   3.375   9.820  0.5172  0.6363  2.6756
   14bbb     H6  399   5.001   3.243   9.878 -0.3930  0.3593 -1.8561
   14bbb     C4  400   4.924   3.348   9.711  0.0131  0.0916 -0.1410
   14bbb     H7  401   4.863   3.264   9.675 -0.3172 -0.4125  1.5051
   14bbb     H8  402   4.952   3.407   9.623  0.0067  0.4837  0.1174
   14bbb     C5  403   5.258   3.198   9.492 -0.0207 -0.3808  0.2831
   14bbb     H9  404   5.311   3.105   9.519 -0.6483 -1.1716 -1.1040
   14bbb    H10  405   5.334   3.257   9.439  0.8078 -0.5599  1.2441
   14bbb     C6  406   5.180   3.030   9.897  0.1492 -0.5708  0.0779
   14bbb    H11  407   5.105   2.963   9.852  0.0905 -0.3376 -0.1767
   14bbb    H12  408   5.140   3.103   9.969  0.8217  1.7643 -1.7583
   14bbb     C7  409   4.829   3.436   9.794 -0.6185  0.0966  0.4607
   14bbb    H13  410   4.797   3.380   9.882  0.5391 -0.1140  0.7607
   14bbb    H14  411   4.739   3.464   9.738  0.0683  1.1616 -0.1532
   14bbb     C8  412   5.297   2.953   9.956 -0.0884 -0.2662  0.0537
   14bbb    H15  413   5.386   3.018   9.960 -0.5243  0.4070 -1.0250
   14bbb    H16  414   5.270   2.929  10.060 -0.1287  1.3027  0.4444
   14bbb     C9  415   5.147   3.171   9.382  0.1046  0.2162  0.0261
   14bbb    H17  416   5.179   3.094   9.310 -0.2590  0.0571  0.0314
   14bbb    H18  417   5.131   3.255   9.313  0.8725 -0.9076 -1.5955
   14bbb     O1  418   4.879   3.559   9.845 -0.1604  0.3581 -0.4825
   14bbb    H19  419   5.076   3.125   9.663  0.8509 -0.3482 -0.8894
   15bbb     N1  420   2.555   6.308   9.182 -0.3488 -0.0556 -0.0024
   15bbb     C1  421   2.487   6.281   9.052  0.3394  0.1350  0.4397
   15bbb     H1  422   2.543   6.202   9.002  0.9892  2.2873 -2.4978
   15bbb     H2  423   2.486   6.372   8.992  1.1518 -0.6051 -0.7455
   15bbb     C2  424   2.583   6.182   9.264 -0.2619 -0.0003  0.0790
   15bbb     H3  425   2.484   6.139   9.282  0.3225 -0.2764  3.2740
   15bbb     H4  426   2.624   6.203   9.363 -2.1651 -0.8749  1.1199
   15bbb     C3  427   2.678   6.393   9.155  0.6767 -0.5915  0.9884
   15bbb     H5  428   2.683   6.416   9.049  0.1922 -1.0458  0.8591
   15bbb     H6  429   2.766   6.329   9.168 -0.6514 -2.7383  0.1037
   15bbb     C4  430   2.690   6.513   9.245  0.0072  0.5269  0.3400
   15bbb     H7  431   2.678   6.494   9.352 -1.7090 -1.0551 -0.0670
   15bbb     H8  432   2.609   6.581   9.216 -0.2814  0.6103  1.3217
   15bbb     C5  433   2.340   6.240   9.073 -0.7025  0.4620 -0.0099
   15bbb     H9  434   2.269   6.321   9.092 -0.7671 -0.1577  2.8421
   15bbb    H10  435   2.326   6.175   9.160 -0.7466 -1.0379 -1.0919
   15bbb     C6  436   2.674   6.082   9.200 -0.4874 -0.8748 -0.0918
   15bbb    H11  437   2.780   6.110   9.199 -0.7909  0.3527 -1.3935
   15bbb    H12  438   2.644   6.069   9.095 -0.2186  1.5155 -0.5181
   15bbb     C7  439   2.824   6.579   9.211 -0.1656 -0.0890  0.2074
   15bbb    H13  440   2.833   6.680   9.252 -0.0176 -1.1726  3.0266
   15bbb    H14  441   2.823   6.583   9.101 -0.8551 -0.0826  0.2056
   15bbb     C8  442   2.674   5.941   9.264  0.1733  0.1196  0.1473
   15bbb    H15  443   2.715   5.873   9.188  0.8148  1.4073 -0.7108
   15bbb    H16  444   2.732   5.938   9.357  0.7077  0.9219 -0.1432
   15bbb     C9  445   2.292   6.178   8.940 -0.7329  0.1851  0.3893
   15bbb    H17  446   2.194   6.129   8.949 -0.0958 -1.0487  0.8115
   15bbb    H18  447   2.353   6.091   8.912 -1.6611 -0.7615  1.2051
   15bbb     O1  448   2.928   6.500   9.261 -0.2074  0.0576  0.0067
   15bbb    H19  449   2.486   6.364   9.235 -1.8719 -1.3997 -0.4567
   16bbb     N1  450   3.247   7.272   8.659 -0.0351 -0.9919 -0.3452
   16bbb     C1  451   3.175   7.323   8.535 -0.0710  0.4840 -0.3447
   16bbb     H1  452   3.070   7.300   8.553  0.0614 -2.2277 -2.3937
   16bbb     H2  453   3.203   7.271   8.444  1.6950  0.8501 -0.0370
   16bbb     C2  454   3.175   7.338   8.777  0.5365  0.4555 -0.2481
   16bbb     H3  455   3.070   7.314   8.759  0.2450  0.8983  0.7612
   16bbb     H4  456   3.188   7.446   8.764  2.9455  0.1199 -1.0438
   16bbb     C3  457   3.235   7.121   8.672 -0.9062  0.2086 -0.0792
   16bbb     H5  458   3.128   7.100   8.669 -0.5504 -1.7369 -0.3082
   16bbb     H6  459   3.283   7.107   8.769  0.8114 -0.3260 -0.9529
   16bbb     C4  460   3.309   7.030   8.565 -0.3152  0.6380  0.1796
   16bbb     H7  461   3.407   7.073   8.540 -0.4968  0.6994 -0.4439
   16bbb     H8  462   3.250   7.037   8.472 -0.3878  2.1168  0.3037
   16bbb     C5  463   3.201   7.473   8.498 -0.9812  0.1996 -0.0687
   16bbb     H9  464   3.167   7.544   8.574  0.6474 -0.4989  1.4051
   16bbb    H10  465   3.144   7.494   8.407  0.0616 -2.1220 -1.3415
   16bbb     C6  466   3.228   7.312   8.919  0.4311 -0.2780 -0.6413
   16bbb    H11  467   3.337   7.313   8.910  0.3290 -1.7791 -3.4465
   16bbb    H12  468   3.190   7.216   8.956 -1.7735  0.5788 -0.5077
   16bbb     C7  469   3.317   6.879   8.606 -0.4635 -0.5158  0.1566
   16bbb    H13  470   3.399   6.831   8.551 -1.8624 -2.6318 -0.1929
   16bbb    H14  471   3.222   6.832   8.579 -0.0019 -0.8739 -0.9093
   16bbb     C8  472   3.175   7.409   9.027  0.0667  0.3173  1.1047
   16bbb    H15  473   3.080   7.366   9.061  0.9135 -3.4521 -0.8076
   16bbb    H16  474   3.242   7.390   9.112  2.4941 -2.6202 -1.2104
   16bbb     C9  475   3.353   7.507   8.481 -0.3698  0.6757 -0.0761
   16bbb    H17  476   3.402   7.442   8.407  0.2344  0.2454  0.6877
   16bbb    H18  477   3.418   7.504   8.570  0.1226  1.0512 -0.4174
   16bbb     O1  478   3.335   6.858   8.753 -0.5497 -0.0342  0.8337
   16bbb    H19  479   3.346   7.296   8.674 -0.3410 -0.0510  0.2183
   17bbb     N1  480   3.271   5.766  10.912  0.3965 -0.2326 -0.2465
   17bbb     C1  481   3.292   5.762  11.062  0.3186  0.0609  0.1313
   17bbb     H1  482   3.219   5.692  11.102 -0.5804  1.0840  0.3225
   17bbb     H2  483   3.276   5.864  11.098  3.4419  0.0462  1.9598
   17bbb     C2  484   3.117   5.743  10.901 -0.0897  0.2624 -0.7187
   17bbb     H3  485   3.065   5.815  10.965  1.4061 -1.6915  2.9859
   17bbb     H4  486   3.116   5.648  10.955 -1.6659  0.4530 -0.3702
   17bbb     C3  487   3.318   5.901  10.862  0.4352  0.2698  0.4537
   17bbb     H5  488   3.415   5.920  10.910  1.0770 -1.3706 -0.1109
   17bbb     H6  489   3.247   5.975  10.897 -1.9167 -1.3985 -0.5668
   17bbb     C4  490   3.335   5.922  10.712  0.5153  0.6319  0.4094
   17bbb     H7  491   3.237   5.936  10.666  1.0625 -0.7246 -1.2604
   17bbb     H8  492   3.380   5.836  10.661 -1.1277 -0.5655  0.8987
   17bbb     C5  493   3.443   5.719  11.099  0.1508 -0.3447  0.7858
   17bbb     H9  494   3.515   5.792  11.060 -0.2744 -1.2707 -2.0049
   17bbb    H10  495   3.459   5.624  11.046  1.5018 -0.1710  0.8307
   17bbb     C6  496   3.060   5.727  10.756 -0.1740 -0.1166 -0.6365
   17bbb    H11  497   3.135   5.669  10.701  1.7645 -1.3140  2.9396
   17bbb    H12  498   3.051   5.825  10.708  3.0991  0.2084 -0.7853
   17bbb     C7  499   3.412   6.053  10.685 -0.0299 -0.3262  0.0831
   17bbb    H13  500   3.357   6.136  10.731 -1.2450 -0.9835 -0.1623
   17bbb    H14  501   3.420   6.070  10.577  2.0487  2.0468  0.5208
   17bbb     C8  502   2.928   5.649  10.736 -0.0667 -0.0546 -0.5367
   17bbb    H15  503   2.916   5.648  10.627  0.0458  0.0328 -0.5497
   17bbb    H16  504   2.927   5.550  10.783 -1.8633 -0.2908 -0.9710
   17bbb     C9  505   3.469   5.708  11.248 -0.2061 -0.7222  0.1798
   17bbb    H17  506   3.377   5.665  11.288 -1.6090  2.6320  0.9477
   17bbb    H18  507   3.491   5.804  11.297 -1.0384 -0.4265 -0.0003
   17bbb     O1  508   3.549   6.044  10.730 -0.1354  0.8416 -0.0279
   17bbb    H19  509   3.322   5.688  10.867  0.9400 -0.0948  0.1240
   18bbb     N1  510   3.875   6.813  10.744 -0.1099  0.0340 -0.6606
   18bbb     C1  511   3.742   6.741  10.750 -0.5068  0.0253  0.2500
   18bbb     H1  512   3.750   6.637  10.785  1.3385 -0.2800 -0.9304
   18bbb     H2  513   3.707   6.734  10.647 -1.2957 -0.4695  0.5406
   18bbb     C2  514   3.907   6.863  10.887 -0.8450 -0.1494  0.1041
   18bbb     H3  515   3.894   6.770  10.942  0.4436 -1.3759 -1.5766
   18bbb     H4  516   3.827   6.936  10.903  0.4834  1.7480 -1.3812
   18bbb     C3  517   3.989   6.716  10.694  0.2738  0.2702  0.2483
   18bbb     H5  518   3.974   6.617  10.737  0.7906  0.6451  1.3102
   18bbb     H6  519   4.085   6.765  10.711  0.6923  0.5875 -2.5476
   18bbb     C4  520   3.984   6.701  10.541  0.4416 -0.1918 -0.3946
   18bbb     H7  521   4.020   6.797  10.502  0.7012 -0.1136  0.0351
   18bbb     H8  522   3.879   6.696  10.509 -0.2126  0.2620  1.5650
   18bbb     C5  523   3.632   6.808  10.840  0.3676 -0.0575  0.3254
   18bbb     H9  524   3.619   6.913  10.810 -0.9146  0.1747  1.5670
   18bbb    H10  525   3.667   6.801  10.944 -0.0853 -1.3423  0.4041
   18bbb     C6  526   4.053   6.917  10.915  0.1110 -0.7410 -0.0675
   18bbb    H11  527   4.091   6.980  10.834  1.3286 -1.5800 -0.1645
   18bbb    H12  528   4.123   6.833  10.917  0.9539 -0.1606 -2.5995
   18bbb     C7  529   4.079   6.591  10.480 -0.4621  0.1794  0.4947
   18bbb    H13  530   4.184   6.614  10.502 -0.0978 -2.0609  1.2404
   18bbb    H14  531   4.064   6.585  10.371  1.0074  0.6636  0.2385
   18bbb     C8  532   4.052   6.991  11.053  0.0635  0.2486 -0.2919
   18bbb    H15  533   4.023   6.912  11.123 -1.4959  1.5231  0.5778
   18bbb    H16  534   4.155   7.014  11.081  0.9020 -2.0389 -1.2553
   18bbb     C9  535   3.498   6.736  10.833 -0.3844  0.1074 -0.3354
   18bbb    H17  536   3.519   6.629  10.842 -0.9048  0.1285  1.6964
   18bbb    H18  537   3.441   6.760  10.743 -1.1151  0.1194  0.1232
   18bbb     O1  538   4.035   6.462  10.533 -0.2482  0.1245  0.3862
   18bbb    H19  539   3.864   6.896  10.684 -0.1690  1.4063  1.1897
   19bbb     N1  540   5.606   7.215   8.062  0.0324 -0.1058 -0.2457
   19bbb     C1  541   5.538   7.336   8.124 -0.2522 -0.4941  0.6786
   19bbb     H1  542   5.598   7.375   8.206  2.2853  0.4967 -1.4995
   19bbb     H2  543   5.437   7.307   8.156 -1.8765  4.1805  0.5588
   19bbb     C2  544   5.730   7.260   7.987 -0.1444  0.2156 -0.1968
   19bbb     H3  545   5.699   7.316   7.899  1.3428  1.5137  0.0447
   19bbb     H4  546   5.772   7.166   7.952 -1.7366 -1.0810  1.2473
   19bbb     C3  547   5.635   7.115   8.176  0.4334 -0.1281  0.5387
   19bbb     H5  548   5.540   7.099   8.227  0.0209  1.4284  0.3036
   19bbb     H6  549   5.709   7.156   8.245  0.9571  0.8659 -0.5756
   19bbb     C4  550   5.686   6.979   8.120 -0.5404 -0.5387 -0.3988
   19bbb     H7  551   5.790   6.994   8.088 -1.5902  2.4644 -2.9434
   19bbb     H8  552   5.633   6.949   8.029  0.2110 -2.4461 -0.2540
   19bbb     C5  553   5.509   7.456   8.036  0.1773 -0.3695 -0.2416
   19bbb     H9  554   5.457   7.417   7.948  1.6051 -0.8774 -0.9002
   19bbb    H10  555   5.600   7.507   8.001 -0.7738  1.2066 -0.4936
   19bbb     C6  556   5.844   7.333   8.061  0.0145 -0.4098 -0.0044
   19bbb    H11  557   5.860   7.281   8.156 -2.6528  0.3232  0.9208
   19bbb    H12  558   5.804   7.432   8.089 -2.2625 -1.5377  0.9627
   19bbb     C7  559   5.665   6.870   8.231 -0.3971 -0.4189  0.0303
   19bbb    H13  560   5.557   6.857   8.240 -0.4447 -0.4568 -0.6054
   19bbb    H14  561   5.710   6.907   8.324  0.0793 -1.2209  0.1298
   19bbb     C8  562   5.980   7.352   7.974  0.8346  0.2833 -0.3514
   19bbb    H15  563   6.059   7.415   8.018  0.7285 -0.5323  1.0854
   19bbb    H16  564   6.032   7.257   7.959  1.5039  0.0106  2.8813
   19bbb     C9  565   5.419   7.567   8.106 -0.0655  0.5314 -0.3028
   19bbb    H17  566   5.321   7.527   8.136  0.1487 -0.0499 -0.3646
   19bbb    H18  567   5.404   7.644   8.029 -3.3475  1.2486  0.8981
   19bbb     O1  568   5.724   6.740   8.192 -0.1617 -0.1586  0.4482
   19bbb    H19  569   5.537   7.170   8.000 -0.0310 -0.2679 -0.0610
   20bbb     N1  570   6.636   6.962   8.463 -0.2171  0.1675 -0.2205
   20bbb     C1  571   6.783   6.935   8.420  0.2779 -0.5562 -0.4857
   20bbb     H1  572   6.789   6.829   8.398 -2.7310 -0.9927  0.3497
   20bbb     H2  573   6.855   6.961   8.498  0.6811 -0.5633 -0.8543
   20bbb     C2  574   6.589   7.108   8.470  0.1248  0.9879 -0.1666
   20bbb     H3  575   6.489   7.094   8.511  1.1237  2.0411  2.8948
   20bbb     H4  576   6.567   7.141   8.368  1.2480 -0.6568 -0.9757
   20bbb     C3  577   6.534   6.878   8.386 -0.7359 -0.1897  0.1734
   20bbb     H5  578   6.581   6.780   8.387  0.3779  0.3339  1.6576
   20bbb     H6  579   6.514   6.926   8.289 -0.4626  1.2377  0.8039
   20bbb     C4  580   6.400   6.856   8.446  0.9184  0.2533  0.4282
   20bbb     H7  581   6.346   6.942   8.488 -0.4961 -0.8120  0.8526
   20bbb     H8  582   6.418   6.783   8.525  1.9850 -1.4765 -1.3216
   20bbb     C5  583   6.819   7.011   8.292  0.2036 -0.3188  0.3802
   20bbb     H9  584   6.817   7.121   8.301 -1.1462 -0.4010  1.3334
   20bbb    H10  585   6.753   6.979   8.210  1.1206 -0.8542 -0.1740
   20bbb     C6  586   6.669   7.204   8.561 -0.6814  0.7926 -0.0924
   20bbb    H11  587   6.764   7.246   8.525  1.0845 -0.4396  2.7643
   20bbb    H12  588   6.686   7.142   8.649 -1.0168 -0.9686 -1.2035
   20bbb     C7  589   6.307   6.783   8.341 -0.2899 -0.6467  0.3948
   20bbb    H13  590   6.350   6.694   8.294 -0.9971 -0.8824  0.1924
   20bbb    H14  591   6.262   6.855   8.272 -0.1532  0.2334  1.1910
   20bbb     C8  592   6.592   7.325   8.588 -0.0753  0.4512 -1.0013
   20bbb    H15  593   6.579   7.387   8.498  1.8573  1.1933 -0.8162
   20bbb    H16  594   6.491   7.309   8.629  0.2104 -2.3338 -1.2163
   20bbb     C9  595   6.952   6.966   8.244 -0.6975  0.0765  0.5061
   20bbb    H17  596   6.933   6.865   8.205 -1.8237  0.1130  0.9340
   20bbb    H18  597   7.024   6.952   8.325  0.6786  0.7745 -0.5450
   20bbb     O1  598   6.197   6.727   8.427  0.3777 -0.2257 -0.2587
   20bbb    H19  599   6.636   6.917   8.555  1.8657  1.6980  0.6188
   21bbb     N1  600   5.538   5.229   7.148  0.5001 -0.6032 -0.2433
   21bbb     C1  601   5.456   5.322   7.065 -0.7037  0.0024  0.2765
   21bbb     H1  602   5.530   5.375   7.005  0.9296 -2.6069 -0.1767
   21bbb     H2  603   5.409   5.390   7.137  1.3025  1.9108 -0.1104
   21bbb     C2  604   5.665   5.204   7.073  0.2612  0.2507  0.4605
   21bbb     H3  605   5.740   5.276   7.107  2.1701 -0.5557 -1.7813
   21bbb     H4  606   5.646   5.221   6.967 -1.4269  2.6848  1.0687
   21bbb     C3  607   5.558   5.296   7.275 -0.2042 -0.7236 -0.5380
   21bbb     H5  608   5.461   5.317   7.321  1.7417  2.4767  2.6042
   21bbb     H6  609   5.604   5.393   7.259 -1.3977 -0.0463  0.0046
   21bbb     C4  610   5.635   5.214   7.381 -0.0166  0.2233 -0.7062
   21bbb     H7  611   5.738   5.195   7.348  0.3325  0.5627  0.1658
   21bbb     H8  612   5.589   5.116   7.400  0.1588  0.4541  0.9805
   21bbb     C5  613   5.346   5.239   6.989 -0.0703  0.1608  0.0318
   21bbb     H9  614   5.398   5.201   6.900  1.5788  0.7798  0.6876
   21bbb    H10  615   5.263   5.300   6.952 -0.2055  1.1474  1.8336
   21bbb     C6  616   5.716   5.060   7.072 -0.3838  0.0683  0.0090
   21bbb    H11  617   5.633   5.000   7.033  0.9514 -0.6844 -1.8772
   21bbb    H12  618   5.734   5.023   7.173 -3.6858  0.3216  0.7927
   21bbb     C7  619   5.662   5.286   7.512 -0.0158  0.1920  0.0988
   21bbb    H13  620   5.716   5.379   7.491  1.4945 -0.7374 -0.2980
   21bbb    H14  621   5.736   5.231   7.572 -0.2573  0.2606  0.4586
   21bbb     C8  622   5.838   5.053   6.983  0.3110 -0.0362  0.1772
   21bbb    H15  623   5.904   5.134   7.017 -0.7541 -0.2490  3.0947
   21bbb    H16  624   5.881   4.954   7.004  0.1610  0.1316  1.3961
   21bbb     C9  625   5.278   5.128   7.078 -0.2057 -0.5712 -0.3576
   21bbb    H17  626   5.195   5.090   7.018 -1.6883 -0.8528  1.7507
   21bbb    H18  627   5.246   5.183   7.168  0.0814 -0.3384 -0.3955
   21bbb     O1  628   5.537   5.318   7.577  0.5944  0.0270 -0.7600
   21bbb    H19  629   5.489   5.139   7.161  3.6549 -2.2704  1.1867
   22bbb     N1  630   4.690   5.518   7.343 -0.6832 -0.1876  0.1041
   22bbb     C1  631   4.759   5.489   7.206 -0.0196 -0.2326 -0.2217
   22bbb     H1  632   4.679   5.494   7.132 -0.1114 -0.2222 -0.1223
   22bbb     H2  633   4.792   5.386   7.218 -2.6709 -1.0816  0.4720
   22bbb     C2  634   4.574   5.429   7.343 -0.2136  0.0430  0.4550
   22bbb     H3  635   4.616   5.331   7.365  3.1133  1.0289 -0.9608
   22bbb     H4  636   4.525   5.436   7.245 -3.7761  2.0037  2.1871
   22bbb     C3  637   4.784   5.487   7.455 -0.0534 -0.3266  0.4242
   22bbb     H5  638   4.887   5.489   7.419  0.3513 -1.9743  1.3835
   22bbb     H6  639   4.764   5.382   7.479  1.9460 -0.7085  0.6009
   22bbb     C4  640   4.774   5.577   7.581 -0.3638 -0.8829 -0.1365
   22bbb     H7  641   4.678   5.555   7.629 -1.0079 -0.8983 -1.3880
   22bbb     H8  642   4.766   5.682   7.550 -1.7532  0.3518  3.8629
   22bbb     C5  643   4.868   5.577   7.167 -0.0870  0.3190  0.8641
   22bbb     H9  644   4.957   5.572   7.231 -0.1183 -2.4823  0.7865
   22bbb    H10  645   4.845   5.684   7.164  1.1977  0.6147  0.6700
   22bbb     C6  646   4.460   5.459   7.438  0.0498 -0.5753  0.2603
   22bbb    H11  647   4.497   5.500   7.533  1.0931  3.4412 -1.6719
   22bbb    H12  648   4.395   5.372   7.453  1.0449 -1.9028 -2.5627
   22bbb     C7  649   4.883   5.559   7.692 -0.3241  0.1320 -0.5526
   22bbb    H13  650   4.907   5.453   7.704  0.2003  0.3709  0.6587
   22bbb    H14  651   4.849   5.592   7.792 -1.9860 -4.2911  0.6020
   22bbb     C8  652   4.361   5.563   7.378  0.2618  0.1694  0.7905
   22bbb    H15  653   4.293   5.600   7.456 -0.3242  0.4047  0.1765
   22bbb    H16  654   4.421   5.648   7.344 -0.5029  0.3700 -0.1081
   22bbb     C9  655   4.930   5.531   7.032  0.0648  0.4884  0.2823
   22bbb    H17  656   4.926   5.423   7.017  2.8215  0.3838 -0.3327
   22bbb    H18  657   5.038   5.554   7.036  0.9317 -2.7132 -1.4814
   22bbb     O1  658   4.989   5.639   7.650  0.2968  0.4139  0.1754
   22bbb    H19  659   4.661   5.617   7.345 -2.2307 -0.6223  1.6445
   23bbb     N1  660   5.961   4.399  11.232  0.4520 -0.1632 -0.9503
   23bbb     C1  661   5.977   4.249  11.275 -0.4605  0.0177  0.4314
   23bbb     H1  662   6.075   4.218  11.239 -1.7068 -0.8473 -2.5437
   23bbb     H2  663   5.914   4.187  11.210  0.5651 -1.0535  0.4147
   23bbb     C2  664   6.059   4.424  11.120 -0.3667  0.0723  0.2028
   23bbb     H3  665   6.019   4.378  11.030  1.0401 -0.1672 -0.3307
   23bbb     H4  666   6.149   4.373  11.153 -0.5483  0.4810  1.4036
   23bbb     C3  667   5.822   4.438  11.185 -0.6216  0.1368  0.2897
   23bbb     H5  668   5.805   4.375  11.097  0.9756 -1.4355  1.0561
   23bbb     H6  669   5.827   4.542  11.152 -0.1394  0.7905  2.3276
   23bbb     C4  670   5.707   4.427  11.286 -0.2978  0.1715 -0.7744
   23bbb     H7  671   5.739   4.468  11.383 -2.2380 -0.3555  0.1375
   23bbb     H8  672   5.700   4.318  11.295  1.2441  0.2295  2.7502
   23bbb     C5  673   5.943   4.224  11.426 -0.4773 -0.5676 -0.7521
   23bbb     H9  674   5.949   4.116  11.444 -1.4042 -0.3980  0.7811
   23bbb    H10  675   5.840   4.253  11.451 -0.7476 -1.6629 -0.5507
   23bbb     C6  676   6.080   4.571  11.076 -0.3307 -0.3481 -0.3803
   23bbb    H11  677   5.982   4.615  11.053 -0.0988  1.2410  1.3900
   23bbb    H12  678   6.147   4.572  10.989  0.9923 -2.4275  0.5592
   23bbb     C7  679   5.566   4.491  11.240 -0.5751  0.6730  0.6456
   23bbb    H13  680   5.565   4.598  11.213 -1.6692  0.3858 -0.5488
   23bbb    H14  681   5.504   4.494  11.330 -0.5631 -1.4835  0.7724
   23bbb     C8  682   6.148   4.659  11.184 -0.0561  0.7069 -0.0593
   23bbb    H15  683   6.156   4.760  11.143  3.6368  1.0219  1.0560
   23bbb    H16  684   6.079   4.665  11.270 -1.3897 -0.3059 -1.0066
   23bbb     C9  685   6.033   4.307  11.525  0.5212  0.6618  0.3439
   23bbb    H17  686   6.139   4.282  11.519  0.2034 -0.6808  0.0303
   23bbb    H18  687   5.990   4.280  11.622 -0.3603  0.1338 -0.1718
   23bbb     O1  688   5.505   4.402  11.132  0.3023 -0.4780 -0.1618
   23bbb    H19  689   5.990   4.459  11.311  1.1656  0.0186 -1.3427
   24bbb     N1  690   5.732   3.623  11.463  0.1720 -0.4645  0.2791
   24bbb     C1  691   5.874   3.560  11.490  0.3038 -0.6308  0.5298
   24bbb     H1  692   5.914   3.485  11.422  0.3371  1.3675 -1.8469
   24bbb     H2  693   5.854   3.518  11.588 -2.6288 -0.9209 -0.0732
   24bbb     C2  694   5.697   3.751  11.543  0.5751 -0.4732  0.1742
   24bbb     H3  695   5.741   3.837  11.492 -1.9986  1.2649  0.6992
   24bbb     H4  696   5.749   3.747  11.639 -1.2229  0.1695  1.2235
   24bbb     C3  697   5.717   3.664  11.315  0.3408 -0.1332 -1.0743
   24bbb     H5  698   5.813   3.716  11.303  0.3297  0.1246 -0.1435
   24bbb     H6  699   5.632   3.733  11.316  0.2396 -0.2308 -2.0120
   24bbb     C4  700   5.696   3.554  11.208  0.4390  0.2508 -0.5769
   24bbb     H7  701   5.598   3.511  11.232  1.0686 -1.7023 -1.3118
   24bbb     H8  702   5.769   3.475  11.230  1.3159  1.3463  0.6458
   24bbb     C5  703   5.994   3.656  11.495  0.1501  0.1960 -0.3373
   24bbb     H9  704   5.991   3.731  11.575  1.1784  2.6521 -2.4167
   24bbb    H10  705   5.997   3.720  11.405  1.9187 -0.9598 -1.1587
   24bbb     C6  706   5.546   3.770  11.570  0.1003 -0.6308 -0.1917
   24bbb    H11  707   5.517   3.676  11.619  0.1567 -0.7632 -0.4101
   24bbb    H12  708   5.486   3.772  11.479 -1.0304 -1.9551  0.4891
   24bbb     C7  709   5.709   3.585  11.057 -0.3255 -0.0080  0.1788
   24bbb    H13  710   5.668   3.496  11.007  0.6013  0.0716 -0.7623
   24bbb    H14  711   5.816   3.588  11.030 -0.1257 -1.2661  0.7364
   24bbb     C8  712   5.501   3.889  11.663 -0.4029  0.6632 -0.2384
   24bbb    H15  713   5.537   3.986  11.628  0.7942  1.4885  2.9684
   24bbb    H16  714   5.391   3.889  11.665 -0.4698 -1.7867 -0.2224
   24bbb     C9  715   6.122   3.579  11.523 -0.0683  0.3433 -0.1146
   24bbb    H17  716   6.101   3.506  11.603 -0.5775 -0.4470 -0.9362
   24bbb    H18  717   6.201   3.642  11.564  1.0450 -0.9162 -0.2307
   24bbb     O1  718   5.620   3.695  11.021  0.5442 -0.2329 -0.2638
   24bbb    H19  719   5.660   3.552  11.484 -0.2641 -0.0731  0.1190
   25bbb     N1  720   7.206   3.942  10.203  0.5729  0.1456  0.2185
   25bbb     C1  721   7.286   3.845  10.119 -0.1999  0.2688  0.1007
   25bbb     H1  722   7.392   3.871  10.127 -0.1169 -0.3466  1.3290
   25bbb     H2  723   7.260   3.845  10.013 -0.9596 -0.7496  0.2714
   25bbb     C2  724   7.277   4.074  10.191 -0.6305 -0.4294  0.3498
   25bbb     H3  725   7.283   4.104  10.087 -0.1832 -2.6412 -0.3095
   25bbb     H4  726   7.376   4.048  10.231 -0.0240  0.0806 -0.7914
   25bbb     C3  727   7.058   3.952  10.162  0.0189  0.1525 -0.0287
   25bbb     H5  728   6.997   4.001  10.238 -2.6391 -0.7625 -1.4512
   25bbb     H6  729   7.027   3.848  10.150  0.8911 -0.0180 -1.0201
   25bbb     C4  730   7.028   4.018  10.028 -0.1513  0.1230 -0.4095
   25bbb     H7  731   7.074   3.962   9.946  1.3165 -0.1439  0.5590
   25bbb     H8  732   7.068   4.120  10.015  1.3595 -0.4155 -0.1943
   25bbb     C5  733   7.268   3.697  10.164  0.6553  0.1133  0.5315
   25bbb     H9  734   7.159   3.685  10.159  0.3648  2.4454 -0.1423
   25bbb    H10  735   7.297   3.697  10.270 -2.2167 -2.8424  1.4893
   25bbb     C6  736   7.240   4.186  10.282  0.8839  0.2356  0.3440
   25bbb    H11  737   7.218   4.142  10.380  0.1554  0.3519  0.2421
   25bbb    H12  738   7.138   4.220  10.259  0.4070 -1.0391  0.5128
   25bbb     C7  739   6.879   4.026   9.994 -0.2089 -0.6269 -0.4385
   25bbb    H13  740   6.826   3.930  10.001 -1.3508  0.0772  1.2770
   25bbb    H14  741   6.867   4.065   9.892 -1.0077 -1.0930 -0.5370
   25bbb     C8  742   7.346   4.293  10.302 -0.9863  0.0039  0.9809
   25bbb    H15  743   7.373   4.345  10.210  0.3063  0.5084  1.6234
   25bbb    H16  744   7.317   4.381  10.361  2.2937  0.4372  2.1598
   25bbb     C9  745   7.346   3.595  10.084 -0.7065  0.1981 -0.1753
   25bbb    H17  746   7.303   3.495  10.093  0.4098 -0.6451 -2.8913
   25bbb    H18  747   7.451   3.598  10.116 -0.9463  0.7838  0.5608
   25bbb     O1  748   6.827   4.112  10.093  0.2914 -0.4492 -0.0180
   25bbb    H19  749   7.219   3.918  10.302  1.6067  0.2202  0.1113
   26bbb     N1  750   6.661   5.030  10.183  0.5003 -0.4632  0.3903
   26bbb     C1  751   6.805   5.076  10.152 -0.5570 -0.1572 -0.8232
   26bbb     H1  752   6.820   5.107  10.049 -1.0555  2.3113 -0.2284
   26bbb     H2  753   6.874   4.992  10.161 -0.2499  0.1579 -0.1090
   26bbb     C2  754   6.560   5.138  10.150  0.0344 -0.3707  0.0451
   26bbb     H3  755   6.569   5.155  10.042 -1.4631 -1.4537 -0.2753
   26bbb     H4  756   6.588   5.233  10.195  0.0789 -1.5830  2.7387
   26bbb     C3  757   6.640   4.901  10.116  0.6963 -0.0279 -0.3491
   26bbb     H5  758   6.651   4.909  10.007 -0.1290 -5.4600 -1.0870
   26bbb     H6  759   6.538   4.877  10.144  0.4027  1.0871 -0.4263
   26bbb     C4  760   6.741   4.795  10.166 -0.0368 -0.3388  0.4555
   26bbb     H7  761   6.760   4.809  10.273  1.1538 -2.4873  0.5601
   26bbb     H8  762   6.831   4.805  10.104 -0.6839 -0.4681 -0.5216
   26bbb     C5  763   6.868   5.175  10.250  0.0318  0.3345  0.3788
   26bbb     H9  764   6.890   5.126  10.346 -0.1647 -1.0651 -0.2733
   26bbb    H10  765   6.799   5.260  10.252  0.5634  0.7775  2.1030
   26bbb     C6  766   6.408   5.113  10.190 -0.7723  0.1516  0.0074
   26bbb    H11  767   6.399   5.071  10.291 -0.5226 -2.8467 -1.1071
   26bbb    H12  768   6.374   5.028  10.129 -0.8572 -2.1331  3.0464
   26bbb     C7  769   6.701   4.652  10.138  0.4714 -0.1139  0.1378
   26bbb    H13  770   6.784   4.589  10.172 -0.0045 -0.0866  1.3826
   26bbb    H14  771   6.678   4.640  10.031 -0.1272 -4.1169  0.5627
   26bbb     C8  772   6.323   5.241  10.166 -0.2647 -0.1662  0.2323
   26bbb    H15  773   6.223   5.219  10.206 -0.4138 -0.6828 -0.4103
   26bbb    H16  774   6.369   5.331  10.208  0.3645  0.1788 -1.1213
   26bbb     C9  775   7.004   5.235  10.213  0.0037  0.7531 -0.2191
   26bbb    H17  776   7.030   5.319  10.279 -1.4408  0.5186  0.6961
   26bbb    H18  777   6.992   5.268  10.109 -0.7214  1.9853  0.2398
   26bbb     O1  778   6.574   4.627  10.207  0.2135 -0.5138 -0.2650
   26bbb    H19  779   6.650   5.021  10.285 -0.2515  0.8905  0.4542
   27bbb     N1  780   3.821   3.577   9.511 -0.2512 -0.5824 -0.2031
   27bbb     C1  781   3.877   3.453   9.461 -0.6943  0.6744  0.2823
   27bbb     H1  782   3.814   3.381   9.409  2.2317 -2.4382  0.6622
   27bbb     H2  783   3.910   3.394   9.546 -1.0238 -1.7711 -1.2088
   27bbb     C2  784   3.676   3.587   9.464  0.0176 -0.6676  0.3101
   27bbb     H3  785   3.626   3.674   9.505  0.2868 -0.8132  0.9695
   27bbb     H4  786   3.620   3.502   9.503  1.5121 -1.3215  1.1384
   27bbb     C3  787   3.835   3.598   9.659  0.0036 -0.1415  1.1492
   27bbb     H5  788   3.941   3.577   9.678 -0.1970  0.7083  3.6374
   27bbb     H6  789   3.772   3.520   9.702  1.7786 -1.9133  0.6776
   27bbb     C4  790   3.790   3.741   9.705 -0.1687 -0.4144  0.4227
   27bbb     H7  791   3.712   3.784   9.641  1.4669  0.5362 -1.0443
   27bbb     H8  792   3.876   3.803   9.677  1.3764 -3.8459 -3.6638
   27bbb     C5  793   4.006   3.454   9.363  0.1139 -0.4886 -0.1649
   27bbb     H9  794   3.983   3.512   9.273 -0.5648  1.8744  1.4392
   27bbb    H10  795   4.035   3.350   9.345 -2.1005 -1.2320  0.1982
   27bbb     C6  796   3.661   3.602   9.314 -0.0690  0.0446  1.4102
   27bbb    H11  797   3.702   3.521   9.253 -0.5682 -0.3241  1.5625
   27bbb    H12  798   3.709   3.693   9.276 -0.1546 -0.8237 -0.9046
   27bbb     C7  799   3.757   3.748   9.859 -0.5000  0.0664  0.2623
   27bbb    H13  800   3.672   3.685   9.887  1.4120 -2.1211  1.5416
   27bbb    H14  801   3.734   3.852   9.887  2.4832  0.5356  1.3370
   27bbb     C8  802   3.521   3.618   9.265  0.1938 -0.2435 -0.4754
   27bbb    H15  803   3.530   3.637   9.157  1.4655 -1.4645 -0.6136
   27bbb    H16  804   3.469   3.524   9.282 -0.3359  0.2275  0.5649
   27bbb     C9  805   4.133   3.536   9.414  0.9635  0.1872 -0.5214
   27bbb    H17  806   4.220   3.514   9.352 -0.2257  1.9557 -3.0127
   27bbb    H18  807   4.149   3.518   9.521  1.1816 -0.1379 -0.6097
   27bbb     O1  808   3.883   3.715   9.938 -0.1892 -0.1673  0.1374
   27bbb    H19  809   3.870   3.656   9.467  0.6855 -0.7042  0.5906
   28bbb     N1  810   3.573   2.905  10.445  0.5476  0.0679  0.5964
   28bbb     C1  811   3.564   2.980  10.580 -0.2030  0.6172  0.3862
   28bbb     H1  812   3.496   2.920  10.641 -1.1389  1.7708  0.5123
   28bbb     H2  813   3.520   3.075  10.552 -1.0193 -0.1785 -1.1585
   28bbb     C2  814   3.441   2.829  10.417  0.1846 -0.0169 -1.1881
   28bbb     H3  815   3.444   2.784  10.318  0.9358 -0.2716 -1.0584
   28bbb     H4  816   3.359   2.900  10.420  0.1859 -0.0439  0.2362
   28bbb     C3  817   3.600   3.007  10.331 -0.3093  0.3036 -0.5356
   28bbb     H5  818   3.691   3.059  10.361 -1.5999  2.7495 -0.6031
   28bbb     H6  819   3.517   3.077  10.323 -1.0167 -0.3101  0.9985
   28bbb     C4  820   3.620   2.945  10.197  0.0482 -0.5665  0.4473
   28bbb     H7  821   3.551   2.862  10.178  1.2008 -1.9665  2.0718
   28bbb     H8  822   3.722   2.905  10.191  0.5138  0.6781 -0.2804
   28bbb     C5  823   3.700   2.984  10.659  0.5562  0.0598  0.2403
   28bbb     H9  824   3.701   3.058  10.739  1.3342  0.2416  0.0737
   28bbb    H10  825   3.778   3.020  10.590  3.8918 -0.3103  3.4777
   28bbb     C6  826   3.408   2.714  10.531  0.5530  0.1219  0.3046
   28bbb    H11  827   3.451   2.740  10.628 -0.0099 -0.1181  0.6221
   28bbb    H12  828   3.457   2.622  10.498  2.6545  1.0336  0.7569
   28bbb     C7  829   3.616   3.040  10.072  0.3417  0.8325  0.2216
   28bbb    H13  830   3.514   3.072  10.048  0.2696  2.0984  1.9680
   28bbb    H14  831   3.658   2.976   9.994  2.6103  1.9907  0.3994
   28bbb     C8  832   3.251   2.706  10.556  0.0910 -0.4883  0.5654
   28bbb    H15  833   3.239   2.608  10.605  1.8903 -0.8214  0.4015
   28bbb    H16  834   3.219   2.791  10.616 -0.5803 -1.2450  1.3130
   28bbb     C9  835   3.738   2.851  10.715 -0.1510 -0.2777 -0.1520
   28bbb    H17  836   3.836   2.858  10.763 -0.8879  1.3672  1.2627
   28bbb    H18  837   3.743   2.779  10.633  1.0565 -0.1393 -0.2084
   28bbb     O1  838   3.705   3.157  10.084 -0.5483 -0.8038  0.5013
   28bbb    H19  839   3.650   2.836  10.442 -0.4524 -1.1591 -3.1579
   29bbb     N1  840   5.683   2.506   9.777 -0.0991  0.7504 -0.0195
   29bbb     C1  841   5.792   2.521   9.670  0.7826 -0.6161  0.1668
   29bbb     H1  842   5.875   2.575   9.716  0.8382 -0.4734 -0.0927
   29bbb     H2  843   5.751   2.591   9.596  1.0062 -0.1665  0.4665
   29bbb     C2  844   5.733   2.423   9.900  0.6724  0.0386 -0.0023
   29bbb     H3  845   5.792   2.486   9.968  0.0513  0.3627  0.2476
   29bbb     H4  846   5.798   2.347   9.857 -0.1086 -0.6519  0.0125
   29bbb     C3  847   5.644   2.646   9.832 -0.5982  0.1817 -0.0088
   29bbb     H5  848   5.719   2.710   9.786 -0.8487  0.1696 -0.4318
   29bbb     H6  849   5.649   2.645   9.941  0.5257  0.8249 -0.0331
   29bbb     C4  850   5.511   2.716   9.791 -0.1355  0.4863  0.3853
   29bbb     H7  851   5.435   2.641   9.767  0.4171 -0.7242  2.1977
   29bbb     H8  852   5.528   2.786   9.708 -0.3102 -1.2354 -1.1795
   29bbb     C5  853   5.831   2.395   9.589  0.1750  0.2903 -0.4869
   29bbb     H9  854   5.754   2.361   9.518  0.9000 -2.1422 -0.1765
   29bbb    H10  855   5.852   2.310   9.654 -0.3546  0.1467 -0.4925
   29bbb     C6  856   5.628   2.358   9.999 -0.4093  0.0371  0.7653
   29bbb    H11  857   5.576   2.281   9.940 -1.0184 -1.6720  3.4022
   29bbb    H12  858   5.554   2.426  10.043 -0.1742  0.7432  0.0930
   29bbb     C7  859   5.461   2.795   9.913 -0.1260 -0.0156  0.2042
   29bbb    H13  860   5.529   2.879   9.931  0.7101 -0.3728 -1.1377
   29bbb    H14  861   5.460   2.743  10.010  0.9080  0.4047  0.4572
   29bbb     C8  862   5.708   2.285  10.103 -0.1407 -0.4680 -0.7570
   29bbb    H15  863   5.634   2.217  10.148  0.5487 -0.8077 -0.1206
   29bbb    H16  864   5.789   2.219  10.068  1.0900 -0.5034  1.9008
   29bbb     C9  865   5.959   2.429   9.504  0.1401  0.6796  0.6709
   29bbb    H17  866   6.033   2.481   9.566  2.8320 -0.2180 -1.5581
   29bbb    H18  867   5.933   2.490   9.416  2.7977  1.4549  0.3505
   29bbb     O1  868   5.328   2.841   9.871  0.5507  0.1091 -0.0681
   29bbb    H19  869   5.605   2.457   9.731  0.1421 -0.1174  0.4752
   30bbb     N1  870   4.619   2.903   9.416  0.0724  0.2472 -0.0261
   30bbb     C1  871   4.587   2.790   9.328 -0.2821  0.3563  0.1645
   30bbb     H1  872   4.531   2.711   9.379 -1.5165  0.4546 -0.9616
   30bbb     H2  873   4.678   2.741   9.296  0.5045  2.1865 -0.5457
   30bbb     C2  874   4.622   2.864   9.567 -0.1092 -0.0408 -0.3089
   30bbb     H3  875   4.682   2.937   9.622  0.5049 -0.0492 -0.9498
   30bbb     H4  876   4.667   2.765   9.574  2.6142  1.1560  0.7344
   30bbb     C3  877   4.745   2.958   9.363 -0.0047  0.4569  0.4558
   30bbb     H5  878   4.741   2.956   9.254  1.1833  1.7104  0.3590
   30bbb     H6  879   4.820   2.884   9.393  0.0821 -1.7188 -4.2329
   30bbb     C4  880   4.783   3.108   9.413  0.3095 -0.4076  0.0768
   30bbb     H7  881   4.774   3.115   9.522  2.0879  1.1058  0.1780
   30bbb     H8  882   4.702   3.175   9.382 -0.9093 -1.1207  1.6180
   30bbb     C5  883   4.515   2.825   9.199 -0.4528  0.0033  0.3359
   30bbb     H9  884   4.541   2.916   9.142 -1.7198 -0.3128 -0.8159
   30bbb    H10  885   4.406   2.829   9.213 -0.4620 -0.5467  0.4095
   30bbb     C6  886   4.481   2.856   9.623  0.1774  0.2698 -0.1508
   30bbb    H11  887   4.412   2.792   9.568 -3.4550  2.4514  1.4896
   30bbb    H12  888   4.437   2.956   9.622 -0.6449  0.0042  2.5194
   30bbb     C7  889   4.913   3.157   9.352  0.0287 -0.3567  0.4359
   30bbb    H13  890   4.907   3.266   9.351  1.9467 -0.2099 -0.6567
   30bbb    H14  891   4.940   3.124   9.250 -0.1408 -0.6589  0.4875
   30bbb     C8  892   4.485   2.799   9.766  0.3613  0.1785  0.2908
   30bbb    H15  893   4.560   2.854   9.825 -0.2237 -0.5932  1.8161
   30bbb    H16  894   4.389   2.808   9.818 -0.0430 -1.4295 -0.1406
   30bbb     C9  895   4.538   2.720   9.092 -0.7201  0.5457  0.0825
   30bbb    H17  896   4.637   2.735   9.048 -0.8286 -0.9807 -0.7615
   30bbb    H18  897   4.468   2.734   9.008  0.4600  0.6463 -0.9159
   30bbb     O1  898   5.024   3.123   9.439  0.3800 -0.0641 -0.1954
   30bbb    H19  899   4.544   2.973   9.407  0.5722  1.2622  2.6966
   31bbb     N1  900   2.124   5.773   9.363  0.1984 -0.4472 -1.0763
   31bbb     C1  901   2.105   5.707   9.497 -0.2679  0.2089  0.6747
   31bbb     H1  902   1.997   5.705   9.514 -0.2357  0.6154  0.9332
   31bbb     H2  903   2.143   5.774   9.574 -1.3445  1.5606  0.0785
   31bbb     C2  904   2.046   5.903   9.362  0.4575  0.3525  0.0991
   31bbb     H3  905   2.054   5.954   9.266 -1.9541 -0.8819 -0.8453
   31bbb     H4  906   2.084   5.966   9.443 -1.6145 -0.1561  1.5499
   31bbb     C3  907   2.270   5.811   9.344 -0.5965 -0.1692  0.4104
   31bbb     H5  908   2.331   5.726   9.374  0.5177  1.5557  3.4213
   31bbb     H6  909   2.307   5.902   9.392  1.7799  1.1664 -3.4529
   31bbb     C4  910   2.310   5.835   9.202 -0.0418  0.0355 -0.0871
   31bbb     H7  911   2.254   5.924   9.169  0.1917  0.1179 -0.2659
   31bbb     H8  912   2.278   5.753   9.137  0.9150 -0.3943 -0.0327
   31bbb     C5  913   2.174   5.571   9.500  0.0796  0.8418 -0.5585
   31bbb     H9  914   2.281   5.563   9.478  0.4609  0.8743  1.1419
   31bbb    H10  915   2.128   5.511   9.421 -0.4556 -0.2182  0.5259
   31bbb     C6  916   1.894   5.878   9.370 -0.0583  0.3109 -0.2440
   31bbb    H11  917   1.876   5.837   9.470 -0.7985 -0.8173 -0.8190
   31bbb    H12  918   1.850   5.805   9.300 -2.5542  0.3458  1.1464
   31bbb     C7  919   2.460   5.851   9.177  0.4306 -0.5245  0.3534
   31bbb    H13  920   2.456   5.930   9.100 -0.0329  0.4539  1.3452
   31bbb    H14  921   2.507   5.766   9.127 -0.0277  0.0056 -1.0189
   31bbb     C8  922   1.818   6.004   9.373 -0.1695  0.1174  1.0390
   31bbb    H15  923   1.852   6.058   9.463 -2.9194 -0.3855  2.5102
   31bbb    H16  924   1.827   6.066   9.283  0.5254 -2.6520 -0.9270
   31bbb     C9  925   2.140   5.499   9.630  0.2568 -0.4319 -0.7052
   31bbb    H17  926   2.036   5.526   9.648  0.6267  2.0831 -1.9508
   31bbb    H18  927   2.205   5.545   9.706 -0.0365  0.7914 -1.1789
   31bbb     O1  928   2.536   5.896   9.290  0.3048  0.5039 -0.4554
   31bbb    H19  929   2.095   5.714   9.284  0.1114  1.2890 -2.4279
   32bbb     N1  930   1.979   6.333   8.561  0.2718  0.3131 -0.0407
   32bbb     C1  931   1.983   6.343   8.411  0.1109  0.6230  0.7300
   32bbb     H1  932   1.904   6.282   8.366 -0.0118  1.1650  0.2078
   32bbb     H2  933   2.083   6.303   8.392  0.4261  1.1984  1.1438
   32bbb     C2  934   1.970   6.198   8.612  0.9205  0.0551  1.2024
   32bbb     H3  935   1.989   6.193   8.719  0.4916  1.1964  1.3401
   32bbb     H4  936   2.058   6.144   8.575  1.0920  0.6088  0.7838
   32bbb     C3  937   2.105   6.403   8.611  0.1620 -0.7226  0.7192
   32bbb     H5  938   2.086   6.418   8.718 -1.7222  2.2488  0.0782
   32bbb     H6  939   2.101   6.504   8.571 -2.1377 -1.2724 -0.5853
   32bbb     C4  940   2.246   6.332   8.590 -0.0029  0.1080  0.0456
   32bbb     H7  941   2.318   6.415   8.589 -0.2874  0.4111  1.5369
   32bbb     H8  942   2.246   6.300   8.486 -3.0434  1.1612 -0.3908
   32bbb     C5  943   1.977   6.474   8.342  0.6018  0.1260  0.2557
   32bbb     H9  944   2.066   6.533   8.366  0.1051  0.5075  1.2208
   32bbb    H10  945   1.900   6.532   8.394  0.0317 -1.9537  1.8440
   32bbb     C6  946   1.830   6.129   8.589 -0.2042 -0.4001 -0.1261
   32bbb    H11  947   1.787   6.143   8.488  0.9772  1.2915 -0.4327
   32bbb    H12  948   1.747   6.170   8.648 -2.5043 -1.0427 -2.7032
   32bbb     C7  949   2.292   6.220   8.699  0.0579 -0.8753  0.3226
   32bbb    H13  950   2.384   6.170   8.667  0.4356 -0.5415  0.8828
   32bbb    H14  951   2.210   6.148   8.697 -1.2973  0.6055  0.1289
   32bbb     C8  952   1.833   5.983   8.621  0.3405  0.7446  0.0507
   32bbb    H15  953   1.834   5.973   8.730  1.1942  1.0481  0.0726
   32bbb    H16  954   1.739   5.940   8.583  1.0835  0.5729 -1.6421
   32bbb     C9  955   1.952   6.453   8.188  0.4844 -0.4823 -0.2289
   32bbb    H17  956   1.883   6.371   8.166  1.1768 -0.8712 -0.9936
   32bbb    H18  957   2.048   6.432   8.138  1.0740 -0.0914  0.6996
   32bbb     O1  958   2.299   6.279   8.834  0.6840 -0.1132 -0.0145
   32bbb    H19  959   1.893   6.380   8.592  0.9432  1.5414 -0.0028
   33bbb     N1  960   3.112   7.827   9.054  0.0398  0.1250 -0.1951
   33bbb     C1  961   3.105   7.946   9.159 -0.1919  0.2632 -0.5382
   33bbb     H1  962   2.998   7.964   9.175 -0.1416 -0.0172  0.1481
   33bbb     H2  963   3.145   8.032   9.105  0.1069  1.3252  1.3051
   33bbb     C2  964   2.996   7.837   8.957  0.1155  0.1180 -0.5780
   33bbb     H3  965   3.033   7.844   8.855 -0.9756  0.0348 -0.9956
   33bbb     H4  966   2.955   7.931   8.993  0.3968  0.1650 -0.3733
   33bbb     C3  967   3.238   7.850   8.979  0.3580 -0.3033 -0.1992
   33bbb     H5  968   3.311   7.872   9.056  0.3996 -0.3701 -0.2181
   33bbb     H6  969   3.221   7.946   8.932  0.3967 -1.0537 -1.8216
   33bbb     C4  970   3.289   7.743   8.880  0.6078  0.3338  0.4853
   33bbb     H7  971   3.378   7.791   8.839  1.2045  0.6696  2.0972
   33bbb     H8  972   3.217   7.729   8.798 -0.3165  1.4736  1.0671
   33bbb     C5  973   3.176   7.931   9.296  0.6383  0.1097  0.4022
   33bbb     H9  974   3.282   7.925   9.269  0.9090  1.3843  1.0783
   33bbb    H10  975   3.144   7.846   9.358  0.9084 -0.7780 -0.6555
   33bbb     C6  976   2.896   7.720   8.983 -0.1842 -0.2156  0.5951
   33bbb    H11  977   2.952   7.627   8.971 -0.8598 -0.4996 -0.5673
   33bbb    H12  978   2.824   7.717   8.900 -1.6669  0.6311  1.7982
   33bbb     C7  979   3.313   7.610   8.942 -0.2738  0.5565 -0.9488
   33bbb    H13  980   3.368   7.629   9.035  0.4576  1.4649 -1.5527
   33bbb    H14  981   3.362   7.533   8.880  0.1400 -0.4444  0.5559
   33bbb     C8  982   2.826   7.727   9.122  0.9621 -0.0390 -0.4735
   33bbb    H15  983   2.743   7.655   9.128  2.8352 -2.2499  1.0638
   33bbb    H16  984   2.902   7.697   9.195  0.5402 -1.1569 -0.4625
   33bbb     C9  985   3.162   8.061   9.375 -0.7196  0.1228 -0.4240
   33bbb    H17  986   3.225   8.065   9.465  0.9956 -0.3205 -1.5418
   33bbb    H18  987   3.058   8.057   9.408 -0.9610 -1.5573 -1.2833
   33bbb     O1  988   3.184   7.549   8.978  0.5911 -0.0578 -0.1783
   33bbb    H19  989   3.121   7.736   9.099 -0.2087 -0.8532 -2.0140
   34bbb     N1  990   3.305   7.983   8.149  0.6855 -0.7183  0.2015
   34bbb     C1  991   3.218   7.954   8.031  0.3274 -0.0524 -1.1573
   34bbb     H1  992   3.154   8.039   8.007  0.7737  0.8631  0.6867
   34bbb     H2  993   3.151   7.871   8.055 -0.4837  0.6546 -0.9170
   34bbb     C2  994   3.218   8.044   8.258  0.2462  0.4287  0.3841
   34bbb     H3  995   3.289   8.055   8.340  1.0260  0.4253 -0.2719
   34bbb     H4  996   3.143   7.970   8.284  2.1532 -1.7229  0.1082
   34bbb     C3  997   3.341   7.843   8.203  0.6425  0.6661 -0.2963
   34bbb     H5  998   3.358   7.784   8.113 -0.7525  2.2338 -1.6448
   34bbb     H6  999   3.248   7.807   8.246  1.0071 -0.7705 -0.6753
   34bbb     C4 1000   3.456   7.830   8.307  0.7622  0.6014  0.2792
   34bbb     H7 1001   3.452   7.900   8.391 -0.4833  1.2738 -0.3077
   34bbb     H8 1002   3.548   7.858   8.255  1.0979 -0.9684 -0.0323
   34bbb     C5 1003   3.302   7.924   7.906 -0.9122 -0.2394  0.3849
   34bbb     H9 1004   3.365   7.838   7.930 -0.5930  0.4060  2.0162
   34bbb    H10 1005   3.363   8.011   7.882 -1.0629  0.1088  1.2363
   34bbb     C6 1006   3.151   8.180   8.233 -0.3178  0.6066  0.3039
   34bbb    H11 1007   3.102   8.209   8.326  2.2154 -0.2131  1.9848
   34bbb    H12 1008   3.074   8.168   8.156 -0.9931  0.0440  1.0617
   34bbb     C7 1009   3.474   7.691   8.366  0.2852 -0.5290  0.6458
   34bbb    H13 1010   3.541   7.686   8.452 -0.8329 -2.1662  1.4780
   34bbb    H14 1011   3.513   7.631   8.282 -0.9768 -0.6848  0.1430
   34bbb     C8 1012   3.258   8.286   8.192  0.3933 -0.1053 -0.2447
   34bbb    H15 1013   3.212   8.385   8.203  0.6443  0.2961 -2.4461
   34bbb    H16 1014   3.347   8.279   8.256  0.7054  0.6171 -0.5815
   34bbb     C9 1015   3.224   7.881   7.779  0.7050 -0.3350  0.1097
   34bbb    H17 1016   3.155   7.800   7.807  0.0176  0.6376  1.4012
   34bbb    H18 1017   3.298   7.842   7.708 -0.8533 -1.2845 -1.0644
   34bbb     O1 1018   3.346   7.629   8.409 -0.5546  0.0404  0.0836
   34bbb    H19 1019   3.389   8.040   8.129  0.2356  0.9278  2.5732
   35bbb     N1 1020   2.408   5.777  11.040 -0.6997  0.4376  0.1086
   35bbb     C1 1021   2.298   5.687  10.990 -0.2158  0.8258  0.0458
   35bbb     H1 1022   2.323   5.602  11.054  0.3827  2.4731  2.0929
   35bbb     H2 1023   2.313   5.657  10.886 -0.3128  0.4110  0.1501
   35bbb     C2 1024   2.411   5.758  11.192  0.1097 -0.2722  0.2373
   35bbb     H3 1025   2.450   5.657  11.202  0.2876 -0.3251 -0.8967
   35bbb     H4 1026   2.310   5.757  11.234 -1.2585  1.2693 -2.6444
   35bbb     C3 1027   2.541   5.730  10.977 -0.5693 -0.5538  0.3565
   35bbb     H5 1028   2.528   5.622  10.981 -0.1693 -0.6212 -0.0509
   35bbb     H6 1029   2.621   5.774  11.036 -0.1004  1.7128 -1.8116
   35bbb     C4 1030   2.584   5.783  10.837  0.4198  0.0646 -0.1512
   35bbb     H7 1031   2.623   5.884  10.855  0.8123 -0.2410  0.8111
   35bbb     H8 1032   2.497   5.796  10.772  0.2173 -1.3878 -0.2210
   35bbb     C5 1033   2.155   5.722  11.025 -1.0938 -0.3195  0.6071
   35bbb     H9 1034   2.136   5.818  10.975 -1.4945 -0.7206 -0.0096
   35bbb    H10 1035   2.150   5.749  11.132 -0.6297 -1.1971  0.8565
   35bbb     C6 1036   2.491   5.871  11.265  0.3272  0.3733  0.5113
   35bbb    H11 1037   2.585   5.900  11.219  0.6143  0.3269  1.0540
   35bbb    H12 1038   2.508   5.830  11.366 -0.5348  0.9112  0.8923
   35bbb     C7 1039   2.686   5.694  10.763  0.3483  0.1558 -0.8271
   35bbb    H13 1040   2.667   5.707  10.656  1.5710 -1.6701 -1.3267
   35bbb    H14 1041   2.660   5.592  10.794  0.0300  0.4777 -0.0155
   35bbb     C8 1042   2.412   5.997  11.278  0.1980  0.3264 -0.2645
   35bbb    H15 1043   2.438   6.046  11.372 -0.0186 -0.0200 -0.0251
   35bbb    H16 1044   2.442   6.067  11.199 -1.1941 -0.0721 -1.1895
   35bbb     C9 1045   2.047   5.620  10.980  0.2056 -0.1561 -0.4202
   35bbb    H17 1046   2.081   5.520  11.010  1.3805 -0.0115 -1.2092
   35bbb    H18 1047   2.030   5.605  10.873  2.2157 -0.1811 -0.7767
   35bbb     O1 1048   2.825   5.729  10.805 -0.3555 -0.0235 -0.0056
   35bbb    H19 1049   2.381   5.875  11.023 -1.3517  0.1683 -0.4413
   36bbb     N1 1050   3.871   5.298  11.335  0.3005  0.1255  0.4257
   36bbb     C1 1051   3.784   5.173  11.335  0.0146  0.5954  0.0596
   36bbb     H1 1052   3.852   5.087  11.339 -1.1220 -0.3263  0.2909
   36bbb     H2 1053   3.738   5.164  11.237  0.1079  0.2007  0.0468
   36bbb     C2 1054   3.992   5.285  11.243  0.4561  0.0779  0.1690
   36bbb     H3 1055   3.998   5.370  11.175 -1.2327 -1.1671 -1.6769
   36bbb     H4 1056   3.974   5.202  11.174  2.0730  0.2079 -0.4480
   36bbb     C3 1057   3.772   5.404  11.278  0.1857 -0.0966 -0.5717
   36bbb     H5 1058   3.678   5.385  11.330 -0.5935 -0.6735 -2.1254
   36bbb     H6 1059   3.747   5.384  11.174 -1.6123  0.6497 -0.3310
   36bbb     C4 1060   3.808   5.547  11.312  0.0153 -1.2559  0.3491
   36bbb     H7 1061   3.913   5.561  11.283 -0.1127 -3.0367 -1.1902
   36bbb     H8 1062   3.800   5.565  11.420 -0.6287  2.4917 -0.1968
   36bbb     C5 1063   3.678   5.163  11.444 -0.0167 -0.0174  0.0013
   36bbb     H9 1064   3.642   5.262  11.476 -2.0933 -1.0010  0.8533
   36bbb    H10 1065   3.727   5.119  11.532  4.3925  0.8286 -1.7510
   36bbb     C6 1066   4.128   5.263  11.323  0.5274 -0.0414 -0.1017
   36bbb    H11 1067   4.208   5.247  11.250  3.1718  2.7149  1.9074
   36bbb    H12 1068   4.131   5.172  11.384 -2.3029 -0.8635 -1.0220
   36bbb     C7 1069   3.713   5.642  11.228 -0.5663 -1.2597 -0.1715
   36bbb    H13 1070   3.736   5.634  11.121  3.4165 -1.4453  0.5371
   36bbb    H14 1071   3.735   5.748  11.246  1.1588 -1.5499 -0.3490
   36bbb     C8 1072   4.178   5.391  11.391 -0.4373  0.0342  0.5359
   36bbb    H15 1073   4.279   5.383  11.434 -0.2861 -0.5433  0.0768
   36bbb    H16 1074   4.182   5.473  11.318 -1.4053 -0.3700  0.0211
   36bbb     C9 1075   3.561   5.074  11.405  0.1468 -0.1605 -0.2748
   36bbb    H17 1076   3.595   4.970  11.406  0.2877 -0.1600 -2.0281
   36bbb    H18 1077   3.516   5.097  11.308  1.0277 -0.9905 -0.8843
   36bbb     O1 1078   3.573   5.610  11.270  0.5849 -0.0088 -0.6255
   36bbb    H19 1079   3.899   5.321  11.431 -0.7721  0.8284  0.5864
   37bbb     N1 1080   4.107   7.386  11.391 -0.7133 -0.1649  0.1936
   37bbb     C1 1081   4.011   7.474  11.473  0.4970  0.3816 -0.4222
   37bbb     H1 1082   4.035   7.461  11.579  1.0386  0.6338 -0.5087
   37bbb     H2 1083   3.913   7.434  11.447  0.0644  0.4134  1.0338
   37bbb     C2 1084   4.176   7.281  11.472  0.1926 -0.5197  0.9230
   37bbb     H3 1085   4.243   7.222  11.410 -1.7227  0.2633 -2.0693
   37bbb     H4 1086   4.095   7.215  11.503  0.1602 -0.6847  0.4933
   37bbb     C3 1087   4.031   7.309  11.283  0.2902  0.1410 -0.1497
   37bbb     H5 1088   3.932   7.353  11.267  0.3031 -0.6314 -3.0136
   37bbb     H6 1089   4.005   7.209  11.318 -0.1161 -0.4721 -2.0834
   37bbb     C4 1090   4.100   7.298  11.144  0.7615 -0.1377 -0.2143
   37bbb     H7 1091   4.203   7.261  11.139  1.9363  2.8327 -0.2667
   37bbb     H8 1092   4.119   7.400  11.109  0.6121 -1.0801 -3.3703
   37bbb     C5 1093   4.002   7.623  11.434  0.5279 -0.1667  0.0538
   37bbb     H9 1094   3.934   7.668  11.508  1.2564  3.3323 -1.2241
   37bbb    H10 1095   3.954   7.629  11.336  0.5167 -1.0166 -0.0042
   37bbb     C6 1096   4.254   7.338  11.590 -0.4689 -0.0256 -0.4423
   37bbb    H11 1097   4.194   7.379  11.673 -1.8691 -1.6057 -0.6085
   37bbb    H12 1098   4.313   7.423  11.556 -1.4535  0.4077 -1.1252
   37bbb     C7 1099   4.016   7.232  11.035 -0.4692  0.0210  0.5558
   37bbb    H13 1100   4.083   7.212  10.951  3.1242  1.2730  2.8706
   37bbb    H14 1101   3.933   7.296  11.002 -1.3327 -0.6837  1.2718
   37bbb     C8 1102   4.344   7.225  11.639 -0.5305 -0.1817  0.9440
   37bbb    H15 1103   4.295   7.133  11.672  1.8516 -1.7399  0.3471
   37bbb    H16 1104   4.418   7.194  11.564 -2.6324  0.3262 -1.4959
   37bbb     C9 1105   4.141   7.691  11.448  0.1985  0.0076  0.0519
   37bbb    H17 1106   4.184   7.668  11.546 -1.7438 -1.1458  0.6690
   37bbb    H18 1107   4.127   7.800  11.444 -1.6129 -0.0803  2.4506
   37bbb     O1 1108   3.963   7.102  11.064  0.3331 -0.6101  0.3695
   37bbb    H19 1109   4.175   7.452  11.352  0.7357 -0.7722  1.6072
   38bbb     N1 1110   3.216   6.750  11.337  0.3456  0.3839 -0.9786
   38bbb     C1 1111   3.065   6.797  11.351 -0.6016 -0.8951 -0.3771
   38bbb     H1 1112   3.047   6.874  11.276 -1.5144  0.2902  0.9976
   38bbb     H2 1113   3.062   6.853  11.445  1.2414 -0.1751 -0.7175
   38bbb     C2 1114   3.240   6.653  11.455  0.3166 -0.2130 -0.1212
   38bbb     H3 1115   3.197   6.553  11.446  0.2976 -0.3357  1.1785
   38bbb     H4 1116   3.187   6.690  11.543  1.6114 -0.4598  0.8041
   38bbb     C3 1117   3.249   6.683  11.210  0.0907 -0.2751 -0.1250
   38bbb     H5 1118   3.184   6.595  11.209  1.4798 -1.4019  1.7959
   38bbb     H6 1119   3.354   6.653  11.220 -0.3684 -1.5284  1.5808
   38bbb     C4 1120   3.215   6.773  11.091  0.3224  0.0641 -0.1167
   38bbb     H7 1121   3.243   6.876  11.116 -1.7491  0.9819 -1.3160
   38bbb     H8 1122   3.109   6.778  11.065  0.5625  1.5506 -0.9081
   38bbb     C5 1123   2.954   6.693  11.340 -0.1697 -0.4080  0.1123
   38bbb     H9 1124   2.969   6.622  11.423 -0.9825  1.3936  1.8699
   38bbb    H10 1125   2.956   6.631  11.249  0.1530  0.2403 -0.3257
   38bbb     C6 1126   3.388   6.640  11.504  0.6727  0.2160  0.2122
   38bbb    H11 1127   3.429   6.737  11.534  2.0171 -0.1963 -0.2035
   38bbb    H12 1128   3.454   6.590  11.432  0.4187 -1.4454  1.0843
   38bbb     C7 1129   3.303   6.735  10.969  0.0815  0.3293  0.7352
   38bbb    H13 1130   3.240   6.763  10.883  0.3537 -2.0371 -0.3350
   38bbb    H14 1131   3.297   6.625  10.967  0.2311  0.3314 -0.4166
   38bbb     C8 1132   3.406   6.560  11.627  0.4973  0.5848 -0.0773
   38bbb    H15 1133   3.358   6.462  11.620  0.9798  0.4580 -2.2318
   38bbb    H16 1134   3.513   6.553  11.648  0.3028 -0.1890  0.7364
   38bbb     C9 1135   2.815   6.755  11.352  0.1589  0.2174 -0.4382
   38bbb    H17 1136   2.820   6.819  11.441  0.9287  1.8389 -1.5826
   38bbb    H18 1137   2.731   6.686  11.365 -1.2822  1.7121 -1.3093
   38bbb     O1 1138   3.434   6.783  10.954 -0.3739  0.2610  0.1703
   38bbb    H19 1139   3.275   6.834  11.345  0.0641  0.7310 -2.3002
   39bbb     N1 1140   5.939   7.632   7.473  0.4472  0.0054 -0.3560
   39bbb     C1 1141   5.886   7.558   7.353 -0.0530 -0.3580 -0.4407
   39bbb     H1 1142   5.799   7.616   7.323 -0.4607 -0.7693 -0.0682
   39bbb     H2 1143   5.861   7.459   7.393 -0.2740  0.3649  1.3037
   39bbb     C2 1144   5.928   7.778   7.465  0.2089  0.2657 -0.7790
   39bbb     H3 1145   5.960   7.811   7.366 -1.6900  1.4820 -1.0409
   39bbb     H4 1146   5.991   7.828   7.539 -0.8218  2.4948 -1.3154
   39bbb     C3 1147   5.871   7.571   7.600 -0.1205  0.0162  0.3712
   39bbb     H5 1148   5.901   7.466   7.596  1.3348  0.3878  0.8515
   39bbb     H6 1149   5.763   7.581   7.591 -0.1690 -1.2240 -0.6721
   39bbb     C4 1150   5.938   7.620   7.734  0.0582  0.2119 -0.1210
   39bbb     H7 1151   5.924   7.727   7.750  1.3783  0.4161 -0.1962
   39bbb     H8 1152   6.047   7.610   7.722  0.2608  2.4740 -0.5452
   39bbb     C5 1153   5.990   7.544   7.239  0.6342  0.1673  0.4303
   39bbb     H9 1154   6.005   7.646   7.202  0.0575 -0.0955 -0.5638
   39bbb    H10 1155   5.938   7.482   7.165  0.8898  0.2621  0.1705
   39bbb     C6 1156   5.782   7.839   7.482 -0.7334  0.7106 -0.6315
   39bbb    H11 1157   5.750   7.851   7.586  1.9528 -2.5427  0.7634
   39bbb    H12 1158   5.706   7.774   7.439 -1.2022  0.6076  0.3463
   39bbb     C7 1159   5.884   7.546   7.862 -0.2336 -0.2166  0.1684
   39bbb    H13 1160   5.774   7.546   7.866 -0.2484  0.8362 -0.0471
   39bbb    H14 1161   5.930   7.600   7.945  1.0637 -0.9264 -0.0681
   39bbb     C8 1162   5.781   7.971   7.409 -0.5849  0.1040  0.7768
   39bbb    H15 1163   5.676   8.004   7.416 -1.3747 -1.7339 -1.3265
   39bbb    H16 1164   5.843   8.035   7.472  0.3175  0.4297 -0.4176
   39bbb     C9 1165   6.120   7.475   7.275 -0.3666 -0.2798 -0.1349
   39bbb    H17 1166   6.168   7.469   7.177 -1.6162  1.0534 -0.8582
   39bbb    H18 1167   6.109   7.378   7.325  0.2580 -0.5555 -0.5244
   39bbb     O1 1168   5.933   7.412   7.854  0.1684 -0.3573  0.2727
   39bbb    H19 1169   6.041   7.614   7.475  0.2510 -1.2080  0.2923
   40bbb     N1 1170   5.126   7.606   8.487 -0.3427  0.0064  0.6620
   40bbb     C1 1171   4.993   7.586   8.436  0.2387 -0.0275  0.2316
   40bbb     H1 1172   4.933   7.555   8.522  0.0940  1.7720  0.8148
   40bbb     H2 1173   5.009   7.512   8.357  0.0727  0.4668 -0.2707
   40bbb     C2 1174   5.160   7.499   8.591  0.2751 -0.1129  0.2439
   40bbb     H3 1175   5.071   7.489   8.654 -0.7664  3.7976 -0.3285
   40bbb     H4 1176   5.244   7.527   8.654 -0.9431  0.6546  1.5701
   40bbb     C3 1177   5.228   7.611   8.374 -0.1988 -0.2023 -0.1443
   40bbb     H5 1178   5.189   7.686   8.305 -0.1658 -0.1296 -0.0840
   40bbb     H6 1179   5.224   7.513   8.326 -1.3704  0.7009 -2.0427
   40bbb     C4 1180   5.371   7.657   8.414  0.1170  0.4717 -0.6768
   40bbb     H7 1181   5.425   7.577   8.466  0.7102 -0.2489 -2.3470
   40bbb     H8 1182   5.355   7.734   8.490  0.0359 -0.1926 -0.0081
   40bbb     C5 1183   4.925   7.712   8.382 -0.6279  0.3636 -0.4180
   40bbb     H9 1184   4.982   7.746   8.295  0.4244 -0.3965 -0.0605
   40bbb    H10 1185   4.931   7.790   8.458 -0.0143 -1.4641  1.5048
   40bbb     C6 1186   5.187   7.357   8.545 -0.2620  0.4930  0.6784
   40bbb    H11 1187   5.253   7.349   8.457 -1.4276 -2.0234 -0.0524
   40bbb    H12 1188   5.096   7.314   8.502 -0.5854  1.0289  0.8157
   40bbb     C7 1189   5.448   7.720   8.296 -0.2718 -0.4356  0.0877
   40bbb    H13 1190   5.525   7.781   8.345  0.2220 -1.5740  0.7605
   40bbb    H14 1191   5.395   7.789   8.229  0.6499 -0.6140 -0.8536
   40bbb     C8 1192   5.224   7.265   8.663 -0.0232  0.0863 -0.3580
   40bbb    H15 1193   5.217   7.162   8.625  2.5998  0.3183 -1.7556
   40bbb    H16 1194   5.330   7.278   8.691 -0.5343  0.8876  1.2796
   40bbb     C9 1195   4.777   7.681   8.345 -0.0836  0.7415 -0.4156
   40bbb    H17 1196   4.734   7.773   8.304  0.5886  2.0069  1.5411
   40bbb    H18 1197   4.716   7.662   8.434  0.3989  0.1405 -0.2018
   40bbb     O1 1198   5.506   7.619   8.214  0.5374 -0.3234 -0.3143
   40bbb    H19 1199   5.126   7.693   8.543  1.4440  0.2468  0.3592
   41bbb     N1 1200   6.901   7.523   9.048 -0.0798 -0.5468  1.0469
   41bbb     C1 1201   7.018   7.533   8.955  0.7432 -0.3486 -0.2004
   41bbb     H1 1202   6.997   7.630   8.910 -1.0752 -0.1396  0.9916
   41bbb     H2 1203   7.004   7.453   8.882  0.5668 -0.3925 -0.1183
   41bbb     C2 1204   6.879   7.651   9.126 -0.2451  0.3242  0.2071
   41bbb     H3 1205   6.847   7.725   9.054  2.2588  3.5237  2.1075
   41bbb     H4 1206   6.972   7.687   9.170 -0.2433  0.8010 -0.1876
   41bbb     C3 1207   6.775   7.483   8.966  0.2046  0.3815  0.0884
   41bbb     H5 1208   6.692   7.472   9.036  0.9214  1.1164  1.0808
   41bbb     H6 1209   6.802   7.385   8.927 -2.7242  0.0229 -1.3770
   41bbb     C4 1210   6.729   7.578   8.848 -0.6334 -0.0684 -0.2726
   41bbb     H7 1211   6.816   7.618   8.795  0.2961 -0.1270  1.1424
   41bbb     H8 1212   6.688   7.673   8.884  0.0177  0.9529 -2.0650
   41bbb     C5 1213   7.155   7.537   9.027 -0.4221  0.1643 -0.1899
   41bbb     H9 1214   7.153   7.606   9.112 -0.2102  0.1968 -0.2103
   41bbb    H10 1215   7.233   7.573   8.959 -0.8285 -1.5458 -1.6370
   41bbb     C6 1216   6.768   7.654   9.234 -0.2985  0.7488  0.1693
   41bbb    H11 1217   6.786   7.584   9.316 -1.4320  0.3171  0.0760
   41bbb    H12 1218   6.677   7.610   9.191 -0.1134  0.9759 -0.4587
   41bbb     C7 1219   6.634   7.511   8.746 -0.1210 -0.0923 -0.6691
   41bbb    H13 1220   6.605   7.576   8.662  1.5901  1.1037 -0.3974
   41bbb    H14 1221   6.538   7.494   8.795 -0.1042 -2.2376 -1.2684
   41bbb     C8 1222   6.734   7.801   9.280  0.0323  0.2703 -0.1726
   41bbb    H15 1223   6.660   7.846   9.213  0.5158  2.6484  0.7945
   41bbb    H16 1224   6.696   7.794   9.383  0.8187  2.4297  0.3158
   41bbb     C9 1225   7.202   7.389   9.057  0.6114  0.1399 -0.2842
   41bbb    H17 1226   7.304   7.383   9.098 -0.2855 -1.4076  1.9489
   41bbb    H18 1227   7.209   7.330   8.964 -1.3590 -2.0228  0.8320
   41bbb     O1 1228   6.681   7.388   8.690  0.1479  0.4414  0.3987
   41bbb    H19 1229   6.932   7.448   9.111  1.7101 -1.1233 -0.4219
   42bbb     N1 1230   7.438   7.100   8.022  0.1392  0.1427  0.3305
   42bbb     C1 1231   7.483   7.249   8.032  0.2120 -0.1405  0.2449
   42bbb     H1 1232   7.572   7.249   8.096  0.5205  1.3588 -0.1448
   42bbb     H2 1233   7.410   7.306   8.088 -0.0823 -1.3000  1.0954
   42bbb     C2 1234   7.504   7.013   8.120  0.0208 -0.3677 -0.3860
   42bbb     H3 1235   7.478   7.053   8.218 -4.2214 -0.5218 -1.2856
   42bbb     H4 1236   7.611   7.033   8.111  0.2581 -0.1676  2.2947
   42bbb     C3 1237   7.288   7.112   8.031 -0.0639  0.3887  0.0391
   42bbb     H5 1238   7.248   7.026   7.977 -0.5054 -0.6631  1.9608
   42bbb     H6 1239   7.259   7.206   7.985  0.5388  1.4705  1.8062
   42bbb     C4 1240   7.232   7.110   8.174 -0.5561  0.1274  0.3988
   42bbb     H7 1241   7.287   7.176   8.242  0.4581  1.0175 -1.1969
   42bbb     H8 1242   7.237   7.009   8.215  0.9075 -0.2111 -0.5301
   42bbb     C5 1243   7.513   7.316   7.904  0.7991 -0.0935 -0.5153
   42bbb     H9 1244   7.427   7.302   7.837 -0.0895  2.3667  0.0282
   42bbb    H10 1245   7.596   7.258   7.861  1.1657  0.4977 -0.6087
   42bbb     C6 1246   7.476   6.862   8.108 -0.0108 -0.2923  0.1915
   42bbb    H11 1247   7.372   6.828   8.103  0.3536 -1.9038  2.0661
   42bbb    H12 1248   7.510   6.818   8.203 -1.5299  0.0400  0.9167
   42bbb     C7 1249   7.077   7.157   8.187 -0.4924  0.6660 -0.3671
   42bbb    H13 1250   7.068   7.243   8.120  0.9997  0.3011 -1.0595
   42bbb    H14 1251   7.043   7.181   8.288 -0.8923 -1.1386 -0.0314
   42bbb     C8 1252   7.550   6.802   7.982  0.1952  0.0471 -0.5599
   42bbb    H15 1253   7.654   6.776   8.007  0.1380 -0.5110 -0.8816
   42bbb    H16 1254   7.504   6.704   7.967 -0.6998  0.3245  0.3082
   42bbb     C9 1255   7.557   7.466   7.926  0.5049  0.0853  0.5156
   42bbb    H17 1256   7.495   7.530   7.991 -0.2808  1.6141 -1.5978
   42bbb    H18 1257   7.554   7.526   7.834  0.3622  1.3847  1.3477
   42bbb     O1 1258   6.993   7.052   8.137 -0.1045  0.8530  0.1205
   42bbb    H19 1259   7.473   7.056   7.936  1.6972 -2.1517  2.0159
   43bbb     N1 1260   6.142   4.862   6.613  0.8633  0.3116  0.0753
   43bbb     C1 1261   6.234   4.817   6.731 -0.0533 -0.1065  0.1254
   43bbb     H1 1262   6.255   4.911   6.783 -0.7251  1.1084 -1.6765
   43bbb     H2 1263   6.328   4.775   6.694  0.5017 -0.7173  2.1014
   43bbb     C2 1264   6.105   4.735   6.534  0.1208  0.3845  0.2534
   43bbb     H3 1265   6.007   4.701   6.569  0.0748 -0.1815 -0.3931
   43bbb     H4 1266   6.177   4.655   6.550  0.4652  1.0546  2.2112
   43bbb     C3 1267   6.014   4.932   6.649  0.9392  0.0241 -0.0812
   43bbb     H5 1268   5.951   4.859   6.700  0.6822  1.2114  1.3870
   43bbb     H6 1269   5.962   4.966   6.559  0.0835  0.0872  0.4241
   43bbb     C4 1270   6.016   5.054   6.737  0.5212  0.3797 -0.0516
   43bbb     H7 1271   6.090   5.116   6.685  2.6026 -2.4091 -0.6448
   43bbb     H8 1272   6.070   5.046   6.832  1.5527  1.2120 -0.5520
   43bbb     C5 1273   6.174   4.714   6.834  0.1762  0.4867  0.8116
   43bbb     H9 1274   6.111   4.638   6.786  1.3845  0.3919 -0.7113
   43bbb    H10 1275   6.106   4.770   6.900  0.5282  1.1977  0.5743
   43bbb     C6 1276   6.106   4.755   6.382  0.0179  0.9996  0.7764
   43bbb    H11 1277   6.208   4.775   6.345  1.2027 -2.8125  1.6099
   43bbb    H12 1278   6.047   4.847   6.366  3.3775  3.2390  0.2310
   43bbb     C7 1279   5.885   5.134   6.754  0.3627  0.2418  0.1110
   43bbb    H13 1280   5.839   5.151   6.656 -0.8498  1.9358  0.9248
   43bbb    H14 1281   5.903   5.231   6.801  0.7116  0.5329 -0.6185
   43bbb     C8 1282   6.050   4.630   6.302  0.6292  0.2150 -0.5203
   43bbb    H15 1283   6.095   4.541   6.347  1.8527  0.7637 -0.6252
   43bbb    H16 1284   5.941   4.628   6.301  0.6227  0.4705 -1.6056
   43bbb     C9 1285   6.285   4.635   6.907 -0.5651 -0.0217 -0.1390
   43bbb    H17 1286   6.240   4.569   6.982  1.1133 -0.3181  0.6503
   43bbb    H18 1287   6.351   4.701   6.965 -0.6838 -0.5707  0.6429
   43bbb     O1 1288   5.798   5.055   6.842 -0.2309 -0.1871 -0.3566
   43bbb    H19 1289   6.205   4.922   6.557  0.9192  1.9632  1.8295
   44bbb     N1 1290   5.545   4.637   7.220  0.0940  0.2632  0.1075
   44bbb     C1 1291   5.466   4.542   7.306  0.0866 -0.8817 -0.5054
   44bbb     H1 1292   5.447   4.590   7.402 -2.8260 -1.6453 -0.5983
   44bbb     H2 1293   5.527   4.455   7.331  0.7234 -0.0904  0.7871
   44bbb     C2 1294   5.585   4.578   7.093 -0.0063  0.7398  0.3744
   44bbb     H3 1295   5.631   4.657   7.034  1.0648 -0.3629 -0.3068
   44bbb     H4 1296   5.494   4.551   7.040  1.6608 -3.2321 -0.8364
   44bbb     C3 1297   5.460   4.752   7.180  0.2436 -0.0518  0.1333
   44bbb     H5 1298   5.380   4.707   7.122  2.2915  0.1366 -3.0650
   44bbb     H6 1299   5.520   4.811   7.110 -0.5034  0.1562 -0.3384
   44bbb     C4 1300   5.402   4.850   7.288 -0.3268 -0.5659  0.1708
   44bbb     H7 1301   5.485   4.898   7.340 -0.5721 -0.2556  0.2781
   44bbb     H8 1302   5.350   4.795   7.367  2.0235 -0.4942  1.8771
   44bbb     C5 1303   5.327   4.488   7.256 -0.0111 -0.2940 -0.0063
   44bbb     H9 1304   5.341   4.458   7.151 -0.5207 -0.2020 -0.1045
   44bbb    H10 1305   5.250   4.566   7.266  1.6580  1.2017  2.1970
   44bbb     C6 1306   5.683   4.454   7.094  0.1466 -0.4507  0.0073
   44bbb    H11 1307   5.630   4.375   7.150 -0.4785 -0.0880 -0.0691
   44bbb    H12 1308   5.774   4.461   7.155 -0.6853 -2.6587  1.6666
   44bbb     C7 1309   5.302   4.948   7.223  0.3630 -0.0167  0.4736
   44bbb    H13 1310   5.252   5.009   7.299 -1.7845  2.7727 -2.8662
   44bbb    H14 1311   5.222   4.895   7.169 -1.2451  2.2842  0.4415
   44bbb     C8 1312   5.708   4.409   6.953 -0.3416  0.2663 -0.0915
   44bbb    H15 1313   5.751   4.492   6.895  1.3866 -1.8495 -1.9984
   44bbb    H16 1314   5.777   4.325   6.947 -0.8295 -0.0384 -1.9830
   44bbb     C9 1315   5.283   4.365   7.331  0.0604  0.2036 -0.8135
   44bbb    H17 1316   5.357   4.285   7.322 -0.2720 -0.1000 -0.9062
   44bbb    H18 1317   5.186   4.326   7.297 -0.3326  1.4391 -1.1763
   44bbb     O1 1318   5.367   5.026   7.118  0.0971 -0.1966  0.6325
   44bbb    H19 1319   5.628   4.672   7.270  0.9090 -1.3420 -0.0462
   45bbb     N1 1320   4.231   5.281   6.905  0.6170  0.4549 -0.5692
   45bbb     C1 1321   4.176   5.171   6.990  0.1180  0.1593  0.2951
   45bbb     H1 1322   4.178   5.080   6.929  0.1773  0.8980 -0.8342
   45bbb     H2 1323   4.071   5.191   7.014  0.1140  0.4677  0.0353
   45bbb     C2 1324   4.122   5.324   6.811 -0.9532 -1.5397 -0.3353
   45bbb     H3 1325   4.040   5.375   6.862 -0.4741 -0.1471 -0.9025
   45bbb     H4 1326   4.077   5.235   6.768  0.4963 -2.9625  1.0010
   45bbb     C3 1327   4.271   5.402   6.993 -0.1663 -0.1809  0.3136
   45bbb     H5 1328   4.324   5.475   6.931  2.1937 -1.4643  0.6959
   45bbb     H6 1329   4.347   5.376   7.067  0.4453  0.3863 -0.0993
   45bbb     C4 1330   4.156   5.473   7.076  0.2136  0.4104 -0.7943
   45bbb     H7 1331   4.095   5.405   7.137  0.8771  0.2306 -0.3211
   45bbb     H8 1332   4.094   5.536   7.012  1.0026  0.2360 -1.7716
   45bbb     C5 1333   4.255   5.125   7.121  0.3415  0.1480 -0.2729
   45bbb     H9 1334   4.289   5.216   7.173 -0.4881 -0.1520  0.8159
   45bbb    H10 1335   4.348   5.075   7.092  0.9727  0.8662  0.4728
   45bbb     C6 1336   4.178   5.417   6.704 -0.1839 -0.6253  0.6106
   45bbb    H11 1337   4.232   5.504   6.744 -0.9347  0.3509 -0.4044
   45bbb    H12 1338   4.091   5.458   6.650  2.1341  1.7510 -1.6426
   45bbb     C7 1339   4.219   5.562   7.187  0.2700  0.5219  0.0784
   45bbb    H13 1340   4.145   5.623   7.239 -1.3025 -0.9740 -0.3033
   45bbb    H14 1341   4.293   5.634   7.149  0.4701  0.8375  1.0470
   45bbb     C8 1342   4.264   5.356   6.593  0.4504  0.4474  0.5239
   45bbb    H15 1343   4.295   5.428   6.517  0.0432 -1.3676 -1.4543
   45bbb    H16 1344   4.361   5.325   6.634  0.3974 -0.0314  0.2919
   45bbb     C9 1345   4.179   5.033   7.221  0.0065 -0.5330 -0.2512
   45bbb    H17 1346   4.234   5.013   7.313 -0.6987 -1.4897 -0.0229
   45bbb    H18 1347   4.166   4.938   7.168 -4.0033  1.4098 -3.3790
   45bbb     O1 1348   4.289   5.484   7.277  0.1373  0.2434  0.5185
   45bbb    H19 1349   4.303   5.231   6.851  0.7204  2.5410 -2.5471
   46bbb     N1 1350   4.807   5.873   6.558  0.0423 -0.8638 -0.4786
   46bbb     C1 1351   4.721   5.776   6.479  0.2781 -0.1024  0.1343
   46bbb     H1 1352   4.631   5.762   6.538  1.0983  1.6424  1.9309
   46bbb     H2 1353   4.783   5.686   6.469  3.0330  1.8120 -1.2915
   46bbb     C2 1354   4.748   6.015   6.571  0.2603 -0.3296  0.2689
   46bbb     H3 1355   4.757   6.043   6.466  0.0331  0.4437  0.4532
   46bbb     H4 1356   4.812   6.081   6.630 -0.7001  0.5361  0.3772
   46bbb     C3 1357   4.827   5.806   6.693  0.6255  0.1840  0.3437
   46bbb     H5 1358   4.724   5.798   6.729  0.0030  0.7807 -1.2511
   46bbb     H6 1359   4.880   5.883   6.750 -0.4350  0.8734  0.4404
   46bbb     C4 1360   4.902   5.670   6.682 -0.7341 -0.5433  0.0211
   46bbb     H7 1361   4.974   5.682   6.600  0.9414 -1.2139  1.3338
   46bbb     H8 1362   4.832   5.588   6.660  0.5255 -2.1180  1.5900
   46bbb     C5 1363   4.683   5.815   6.334 -0.0337  0.2809  0.0164
   46bbb     H9 1364   4.779   5.842   6.288  1.5724 -1.2555  2.2573
   46bbb    H10 1365   4.611   5.898   6.329  0.0209  0.3814  0.7558
   46bbb     C6 1366   4.607   6.031   6.642  0.2683  0.0754  0.2996
   46bbb    H11 1367   4.609   6.134   6.680 -1.9826 -0.2209  1.3757
   46bbb    H12 1368   4.605   5.963   6.728 -0.8272  1.0978  1.1233
   46bbb     C7 1369   4.976   5.626   6.808 -0.4889 -0.7692  0.2455
   46bbb    H13 1370   5.046   5.704   6.839  0.9127 -1.8465 -0.0930
   46bbb    H14 1371   5.051   5.550   6.785  1.6355  1.4497 -0.6494
   46bbb     C8 1372   4.484   6.017   6.553  0.2170 -0.7041 -0.3350
   46bbb    H15 1373   4.478   5.916   6.510 -1.2117 -0.0327 -1.8391
   46bbb    H16 1374   4.392   6.039   6.608  0.3641 -1.5334  0.2693
   46bbb     C9 1375   4.634   5.677   6.278 -0.1793  0.0707 -0.0638
   46bbb    H17 1376   4.545   5.647   6.334  0.8821 -3.4004  0.0290
   46bbb    H18 1377   4.717   5.606   6.290  1.0551  1.1738 -1.4676
   46bbb     O1 1378   4.878   5.592   6.913 -0.2110 -0.6211  0.4919
   46bbb    H19 1379   4.896   5.887   6.507 -0.2268  0.9002 -0.5097
   47bbb     N1 1380   6.694   4.716  11.090  0.2967  0.3460 -0.2983
   47bbb     C1 1381   6.733   4.753  10.951  0.4862  0.1887  0.4419
   47bbb     H1 1382   6.840   4.733  10.937 -0.0752 -2.1307 -1.1124
   47bbb     H2 1383   6.719   4.860  10.938 -0.3926  0.1377  0.8962
   47bbb     C2 1384   6.793   4.776  11.184  0.4091 -0.4061  0.2937
   47bbb     H3 1385   6.888   4.725  11.171  0.7724  0.3194  0.0469
   47bbb     H4 1386   6.758   4.758  11.286 -0.9076  0.3880  0.0152
   47bbb     C3 1387   6.549   4.758  11.123 -0.5923 -0.0250  0.3787
   47bbb     H5 1388   6.490   4.706  11.047 -0.7524 -0.7463  0.9885
   47bbb     H6 1389   6.532   4.866  11.116 -1.7473 -0.1764  0.6849
   47bbb     C4 1390   6.509   4.706  11.258 -0.0739  0.0937 -0.4515
   47bbb     H7 1391   6.540   4.780  11.333  0.8524 -1.7893  1.1438
   47bbb     H8 1392   6.559   4.613  11.287  0.9909  0.5327 -0.8312
   47bbb     C5 1393   6.658   4.696  10.826  0.3208  0.2359  0.3995
   47bbb     H9 1394   6.549   4.706  10.831  0.0733 -0.4054 -2.2129
   47bbb    H10 1395   6.668   4.587  10.818  1.0786  0.2813  0.6282
   47bbb     C6 1396   6.810   4.926  11.164  0.0643 -0.0298 -0.0212
   47bbb    H11 1397   6.725   4.991  11.192  0.7634  1.9558 -2.2084
   47bbb    H12 1398   6.842   4.952  11.063  1.6210 -1.7758 -0.0097
   47bbb     C7 1399   6.353   4.714  11.284 -0.0127  0.0914  0.4698
   47bbb    H13 1400   6.327   4.817  11.258  0.9733 -0.3363 -2.8019
   47bbb    H14 1401   6.343   4.688  11.390  0.4137 -0.1309  0.4618
   47bbb     C8 1402   6.919   4.980  11.265  0.4063  0.5121 -0.3027
   47bbb    H15 1403   7.023   4.963  11.232  0.6553 -1.7728  1.4517
   47bbb    H16 1404   6.906   5.089  11.263  0.8739  0.5654 -1.0462
   47bbb     C9 1405   6.716   4.775  10.700 -1.1068 -0.1078  0.2091
   47bbb    H17 1406   6.704   4.882  10.716  2.5972  1.0712 -3.0714
   47bbb    H18 1407   6.659   4.743  10.611 -1.3523 -0.1763  0.3894
   47bbb     O1 1408   6.282   4.612  11.216 -0.1732  0.6613  0.4761
   47bbb    H19 1409   6.697   4.613  11.103 -1.7525  0.1541 -1.0015
   48bbb     N1 1410   5.878   4.799  11.781  0.5080  0.1489 -0.3714
   48bbb     C1 1411   5.978   4.803  11.898  0.0413 -0.0624 -0.0676
   48bbb     H1 1412   6.073   4.820  11.848  0.8781 -3.9559 -0.1376
   48bbb     H2 1413   5.974   4.701  11.936  1.0424 -0.4940 -1.0588
   48bbb     C2 1414   5.894   4.918  11.692 -0.3592 -0.1569  0.1566
   48bbb     H3 1415   5.981   4.908  11.628 -1.0679 -1.2042 -0.6720
   48bbb     H4 1416   5.913   5.009  11.750 -0.5037 -0.2475  0.3516
   48bbb     C3 1417   5.897   4.669  11.699 -0.3911 -0.0831 -0.4084
   48bbb     H5 1418   5.808   4.653  11.638 -0.9524  1.4875 -0.0645
   48bbb     H6 1419   5.901   4.596  11.780  1.8817  1.3026  0.8548
   48bbb     C4 1420   6.026   4.660  11.616  0.4117  0.3461  0.3590
   48bbb     H7 1421   6.103   4.727  11.656  3.5636 -2.1812 -1.0420
   48bbb     H8 1422   6.010   4.690  11.512  0.6377 -2.8568 -0.7076
   48bbb     C5 1423   5.953   4.914  12.013  0.3226  0.2447  0.3336
   48bbb     H9 1424   5.855   4.898  12.058  1.4738 -1.5940  2.3687
   48bbb    H10 1425   5.948   5.011  11.963  0.0057  0.2531  0.3775
   48bbb     C6 1426   5.777   4.930  11.589 -0.6687  0.3410  0.2124
   48bbb    H11 1427   5.682   4.898  11.635 -0.3842  0.0732  0.6183
   48bbb    H12 1428   5.794   4.865  11.502  0.3877  0.7943  0.0723
   48bbb     C7 1429   6.089   4.518  11.610  0.6447  0.5532 -0.5106
   48bbb    H13 1430   6.082   4.465  11.706  0.8506  0.6155 -0.4610
   48bbb    H14 1431   6.196   4.522  11.587  1.1141 -0.3256  1.2816
   48bbb     C8 1432   5.763   5.066  11.534  0.7501 -0.3907  0.8954
   48bbb    H15 1433   5.853   5.097  11.481  0.3264 -0.4247  0.1365
   48bbb    H16 1434   5.679   5.075  11.464  1.3144  0.8803  0.3458
   48bbb     C9 1435   6.063   4.916  12.122 -0.7338  0.6518  0.4400
   48bbb    H17 1436   6.161   4.939  12.077  0.0599 -2.0715  0.5830
   48bbb    H18 1437   6.087   4.816  12.161 -0.1400  0.7723  0.3905
   48bbb     O1 1438   6.020   4.450  11.503  0.4173 -0.3704  0.3269
   48bbb    H19 1439   5.783   4.797  11.820  0.1173 -0.2153 -1.3019
   49bbb     N1 1440   5.407   3.794  12.165  0.1421 -0.0280 -0.0529
   49bbb     C1 1441   5.381   3.670  12.248 -0.0780  0.4388  0.1986
   49bbb     H1 1442   5.280   3.681  12.286 -0.7071 -1.6939 -0.7156
   49bbb     H2 1443   5.454   3.655  12.327 -0.8794 -1.4898  0.6411
   49bbb     C2 1444   5.380   3.918  12.255  0.3307  0.5335  0.3128
   49bbb     H3 1445   5.281   3.899  12.297 -0.1620  1.7501 -0.2649
   49bbb     H4 1446   5.369   4.004  12.189 -1.7785  1.2265  1.4707
   49bbb     C3 1447   5.549   3.798  12.107 -0.4344 -0.6363 -0.0004
   49bbb     H5 1448   5.568   3.708  12.049  0.1437  0.6712 -1.9500
   49bbb     H6 1449   5.620   3.790  12.189  1.8836 -1.3658 -1.9308
   49bbb     C4 1450   5.591   3.922  12.022  0.1532  0.0882 -0.6920
   49bbb     H7 1451   5.694   3.907  11.988 -0.2986 -1.3958 -1.4930
   49bbb     H8 1452   5.575   4.012  12.083 -0.5505 -0.7553  0.4120
   49bbb     C5 1453   5.372   3.536  12.160  0.0320  0.2541  0.1069
   49bbb     H9 1454   5.375   3.448  12.224 -0.0293 -1.8546 -2.5922
   49bbb    H10 1455   5.443   3.523  12.078 -1.6951 -0.3685 -1.3711
   49bbb     C6 1456   5.487   3.952  12.365 -0.1679  0.7527 -1.0129
   49bbb    H11 1457   5.587   3.970  12.323  0.4136  0.7655  0.2990
   49bbb    H12 1458   5.487   3.864  12.431 -2.4005  0.2796 -1.5656
   49bbb     C7 1459   5.507   3.948  11.891 -0.5061 -0.4533  0.1909
   49bbb    H13 1460   5.532   4.045  11.846 -1.5963 -1.1791 -2.1047
   49bbb    H14 1461   5.399   3.948  11.910 -1.0773 -1.6897 -2.6294
   49bbb     C8 1462   5.443   4.080  12.447 -0.4255  0.6348 -0.3886
   49bbb    H15 1463   5.519   4.086  12.526 -0.3756  0.5621 -0.4321
   49bbb    H16 1464   5.463   4.165  12.381  2.1280  1.2459  1.0431
   49bbb     C9 1465   5.233   3.518  12.085 -0.2503  0.2617 -0.6594
   49bbb    H17 1466   5.156   3.522  12.162  1.8174  0.6916  1.5236
   49bbb    H18 1467   5.233   3.419  12.038  0.2721  0.5461 -1.2743
   49bbb     O1 1468   5.540   3.850  11.792  0.0765 -0.3109 -0.6857
   49bbb    H19 1469   5.343   3.790  12.084 -0.1865  1.3965  0.1156
   50bbb     N1 1470   6.343   3.107  11.315 -0.0304 -0.0931 -0.8857
   50bbb     C1 1471   6.309   2.996  11.412 -0.2567  0.0579  0.5804
   50bbb     H1 1472   6.305   2.902  11.355  2.4766  0.1976  0.0275
   50bbb     H2 1473   6.216   3.024  11.463 -1.2276 -0.2752 -0.9412
   50bbb     C2 1474   6.274   3.085  11.178 -0.6085 -0.1265  0.3511
   50bbb     H3 1475   6.311   3.167  11.116  1.6980 -2.2788 -1.3505
   50bbb     H4 1476   6.168   3.099  11.195 -0.5221 -1.3837  2.1531
   50bbb     C3 1477   6.283   3.238  11.378 -0.6772  0.1106  0.0863
   50bbb     H5 1478   6.301   3.249  11.485  2.9373  0.5993 -0.4235
   50bbb     H6 1479   6.175   3.241  11.365 -0.4454  1.0941 -2.0770
   50bbb     C4 1480   6.347   3.367  11.319 -0.3870 -0.7032 -0.8071
   50bbb     H7 1481   6.305   3.387  11.220  0.3554  1.1404 -0.7993
   50bbb     H8 1482   6.456   3.367  11.308 -0.3306  3.8991 -2.4031
   50bbb     C5 1483   6.414   2.978  11.523  0.0734  0.8950 -0.5915
   50bbb     H9 1484   6.378   2.906  11.598  1.7804  1.5643  0.9597
   50bbb    H10 1485   6.431   3.069  11.582 -1.1363 -0.0675  1.3814
   50bbb     C6 1486   6.313   2.955  11.105 -0.7417 -0.1066 -0.6218
   50bbb    H11 1487   6.294   2.867  11.168 -1.3874  0.3865 -0.1245
   50bbb    H12 1488   6.421   2.961  11.084 -0.3376  2.0162  1.6399
   50bbb     C7 1489   6.310   3.490  11.405 -0.6851  0.0644 -0.6914
   50bbb    H13 1490   6.364   3.577  11.366  0.4683 -0.4557 -0.3129
   50bbb    H14 1491   6.357   3.481  11.504  0.7824 -2.3511 -1.5021
   50bbb     C8 1492   6.233   2.945  10.974 -0.0680  0.2435  0.4492
   50bbb    H15 1493   6.296   2.880  10.911 -2.0119 -1.4926  0.1976
   50bbb    H16 1494   6.133   2.909  11.000  0.6091 -0.0603  2.8995
   50bbb     C9 1495   6.540   2.922  11.451 -0.3782  0.0697 -0.1189
   50bbb    H17 1496   6.626   2.989  11.438  0.5139 -1.1594 -0.7560
   50bbb    H18 1497   6.515   2.876  11.355  0.9287 -0.3013 -0.2904
   50bbb     O1 1498   6.166   3.509  11.404 -0.2715 -0.0606  0.7901
   50bbb    H19 1499   6.446   3.115  11.310  0.1989 -2.7885 -2.2627
   51bbb     N1 1500   7.877   4.064  10.438  0.5467  0.3901  0.5114
   51bbb     C1 1501   7.842   4.000  10.574 -0.1358  0.7472  0.6738
   51bbb     H1 1502   7.814   3.899  10.546 -0.7532  0.8479  0.9264
   51bbb     H2 1503   7.767   4.061  10.624 -1.1638 -1.1838  1.5847
   51bbb     C2 1504   7.942   3.966  10.339 -0.1355 -0.2171 -0.5075
   51bbb     H3 1505   7.867   3.891  10.312 -0.6511  0.1386 -0.0855
   51bbb     H4 1506   8.011   3.904  10.396 -0.6188  0.3097  0.6802
   51bbb     C3 1507   7.744   4.121  10.372 -0.4773 -0.4762 -0.0675
   51bbb     H5 1508   7.678   4.034  10.370  1.2061 -1.8857  1.5280
   51bbb     H6 1509   7.764   4.156  10.271  2.8113  1.1658  1.0139
   51bbb     C4 1510   7.691   4.235  10.460 -0.3885 -0.8319 -0.0830
   51bbb     H7 1511   7.775   4.305  10.463 -0.3331 -0.8167 -1.3301
   51bbb     H8 1512   7.659   4.193  10.556  0.6060  0.1035  0.6793
   51bbb     C5 1513   7.963   3.996  10.674  0.6286 -0.1053 -0.3817
   51bbb     H9 1514   8.050   3.941  10.634 -0.8451 -2.3063 -0.7494
   51bbb    H10 1515   7.925   3.944  10.763 -1.1441  1.9654  0.1408
   51bbb     C6 1516   8.020   4.038  10.224 -0.1839 -0.1471 -0.3218
   51bbb    H11 1517   8.113   4.076  10.268  0.6820 -2.1282 -0.3153
   51bbb    H12 1518   7.962   4.119  10.179 -2.2170 -0.8337  0.9161
   51bbb     C7 1519   7.575   4.317  10.401  0.2436 -0.4105 -0.5593
   51bbb    H13 1520   7.596   4.385  10.317  0.0468 -2.1017 -2.0342
   51bbb    H14 1521   7.547   4.389  10.479  1.9298 -0.6981  0.3520
   51bbb     C8 1522   8.049   3.928  10.115  0.2078  0.3120 -0.0943
   51bbb    H15 1523   8.115   3.851  10.157 -1.6982  0.0370  2.6526
   51bbb    H16 1524   7.957   3.880  10.081  0.0953  1.1916 -1.0864
   51bbb     C9 1525   8.008   4.131  10.724 -0.7253  0.2782  0.0348
   51bbb    H17 1526   8.098   4.110  10.784 -1.5179  0.2041  1.2248
   51bbb    H18 1527   7.930   4.183  10.780 -1.3867 -0.3911 -0.2467
   51bbb     O1 1528   7.469   4.231  10.356 -0.0179 -0.1479 -0.1942
   51bbb    H19 1529   7.937   4.144  10.464  0.1702  0.9186 -0.2275
   52bbb     N1 1530   7.376   3.383   9.581  1.0224 -0.2584  0.0025
   52bbb     C1 1531   7.458   3.478   9.489 -0.7698 -0.0030 -0.3321
   52bbb     H1 1532   7.560   3.482   9.526 -0.5811  1.0755 -0.9100
   52bbb     H2 1533   7.416   3.576   9.513  0.7015  0.0529  2.2794
   52bbb     C2 1534   7.440   3.245   9.590 -0.7596  0.6113 -0.2634
   52bbb     H3 1535   7.454   3.206   9.489 -1.1899  0.0470 -0.1084
   52bbb     H4 1536   7.368   3.186   9.647 -0.8669 -0.1728 -1.1855
   52bbb     C3 1537   7.369   3.454   9.717  0.3002  0.0828  0.2548
   52bbb     H5 1538   7.472   3.476   9.745  0.9595 -3.1554  0.8425
   52bbb     H6 1539   7.330   3.379   9.786  0.8984  0.6184  1.1971
   52bbb     C4 1540   7.281   3.581   9.732  0.2738 -0.4189 -0.2686
   52bbb     H7 1541   7.187   3.568   9.678 -1.6994  0.3470  2.6941
   52bbb     H8 1542   7.326   3.671   9.690 -0.1492 -0.2521 -0.3756
   52bbb     C5 1543   7.466   3.454   9.337 -0.4344 -0.7153  0.2913
   52bbb     H9 1544   7.371   3.478   9.288 -1.0278  0.6889  2.0454
   52bbb    H10 1545   7.492   3.349   9.317  0.2262 -0.5885  0.4669
   52bbb     C6 1546   7.578   3.238   9.659 -0.2154  0.1340  0.3714
   52bbb    H11 1547   7.568   3.278   9.761  0.4340 -0.9708  0.8894
   52bbb    H12 1548   7.645   3.307   9.607 -1.8471  0.6864 -1.0913
   52bbb     C7 1549   7.227   3.598   9.870 -0.1287 -0.4239 -0.4552
   52bbb    H13 1550   7.189   3.504   9.913  0.0817 -0.5019 -0.4394
   52bbb    H14 1551   7.156   3.681   9.874  0.5113  0.1049  0.2082
   52bbb     C8 1552   7.633   3.098   9.653 -0.3388 -0.0245 -0.3202
   52bbb    H15 1553   7.699   3.090   9.566  1.5498 -0.8608  1.1286
   52bbb    H16 1554   7.701   3.088   9.738 -0.6151  1.0224  0.0495
   52bbb     C9 1555   7.584   3.544   9.286  0.9079  0.2537 -0.1711
   52bbb    H17 1556   7.550   3.648   9.292 -1.6805 -0.4356 -1.4426
   52bbb    H18 1557   7.593   3.518   9.179  0.8666 -1.2179  0.1600
   52bbb     O1 1558   7.351   3.621   9.945 -0.1133 -0.0452  0.1796
   52bbb    H19 1559   7.282   3.366   9.543  0.7317 -0.8054  0.9419
   53bbb     N1 1560   6.093   5.459   9.884 -0.2261 -0.5677 -0.7288
   53bbb     C1 1561   6.100   5.610   9.891 -0.1406 -0.0161 -1.1604
   53bbb     H1 1562   6.003   5.637   9.934 -0.2252 -1.8350 -0.0669
   53bbb     H2 1563   6.101   5.651   9.790  2.3054 -1.9941 -2.0345
   53bbb     C2 1564   5.954   5.410   9.862 -0.0473  0.2069 -0.0687
   53bbb     H3 1565   5.890   5.478   9.919  0.7987  1.0035 -0.0576
   53bbb     H4 1566   5.944   5.308   9.898 -1.9192  0.6772  0.8922
   53bbb     C3 1567   6.204   5.416   9.792 -0.0438  0.1974  0.3834
   53bbb     H5 1568   6.302   5.460   9.813  1.1273 -1.4288 -1.3967
   53bbb     H6 1569   6.168   5.446   9.693 -0.5706 -2.1486 -0.1863
   53bbb     C4 1570   6.238   5.266   9.793 -0.5610  0.6435 -0.2002
   53bbb     H7 1571   6.332   5.242   9.741 -1.7483  1.6216 -2.9609
   53bbb     H8 1572   6.165   5.223   9.723  0.3207 -1.6513  0.1934
   53bbb     C5 1573   6.210   5.662   9.987 -0.0820  0.2199 -0.4487
   53bbb     H9 1574   6.206   5.771   9.986  0.5800  0.3015 -3.7148
   53bbb    H10 1575   6.309   5.637   9.949 -0.2835 -1.7878  0.2225
   53bbb     C6 1576   5.902   5.407   9.721  0.1400 -0.1839  0.1663
   53bbb    H11 1577   5.808   5.351   9.725  0.3552 -1.0531 -3.3759
   53bbb    H12 1578   5.972   5.361   9.650  2.2836  2.2976  0.5419
   53bbb     C7 1579   6.241   5.207   9.932  1.0567 -0.3371 -0.5822
   53bbb    H13 1580   6.253   5.098   9.941 -0.7936 -0.5956 -0.9104
   53bbb    H14 1581   6.137   5.204   9.967  1.3236 -0.3594  0.2308
   53bbb     C8 1582   5.871   5.548   9.670 -0.1308 -0.1979 -0.3405
   53bbb    H15 1583   5.788   5.556   9.598  0.8505  0.4439 -1.4372
   53bbb    H16 1584   5.827   5.604   9.752 -2.1027 -1.0307 -0.7630
   53bbb     C9 1585   6.194   5.603  10.130 -0.4375 -0.4168  0.0661
   53bbb    H17 1586   6.253   5.672  10.191  0.7816  0.5435 -2.0655
   53bbb    H18 1587   6.231   5.500  10.137  0.0287 -0.4277 -1.9356
   53bbb     O1 1588   6.329   5.279  10.025  0.4470 -0.1748  0.2191
   53bbb    H19 1589   6.124   5.425   9.977  1.2466  0.3197 -0.8623
   54bbb     N1 1590   7.280   5.154   9.809  0.6372  0.2277 -0.8352
   54bbb     C1 1591   7.271   5.037   9.717  0.5083  0.6024  0.3399
   54bbb     H1 1592   7.255   5.078   9.617 -0.7754  1.0469  0.7030
   54bbb     H2 1593   7.181   4.976   9.730  0.2321  0.7968 -0.5800
   54bbb     C2 1594   7.197   5.270   9.759 -0.2039 -0.3411  0.5859
   54bbb     H3 1595   7.194   5.351   9.832  1.4881  0.3552 -0.0466
   54bbb     H4 1596   7.095   5.233   9.750  0.3385 -1.6337 -0.8477
   54bbb     C3 1597   7.224   5.111   9.939  0.0372  0.1053 -0.1684
   54bbb     H5 1598   7.274   5.016   9.952 -0.9721 -0.3557  0.4675
   54bbb     H6 1599   7.115   5.103   9.940 -0.0940  1.5113  0.9409
   54bbb     C4 1600   7.261   5.211  10.057 -0.1704 -0.4049 -0.1808
   54bbb     H7 1601   7.206   5.306  10.056 -2.4737 -1.6737 -0.8226
   54bbb     H8 1602   7.366   5.238  10.038 -0.2386 -0.7080 -1.0553
   54bbb     C5 1603   7.402   4.951   9.713  0.8302 -0.0045 -0.0850
   54bbb     H9 1604   7.413   4.904   9.811  1.6331  1.6237  0.6465
   54bbb    H10 1605   7.491   5.014   9.702 -0.7863  2.4010 -0.0570
   54bbb     C6 1606   7.244   5.336   9.630  0.3694  0.3790  0.0473
   54bbb    H11 1607   7.175   5.418   9.604 -0.6975 -0.2703  0.7189
   54bbb    H12 1608   7.231   5.252   9.560  2.2183 -0.6012  0.8170
   54bbb     C7 1609   7.236   5.148  10.194 -0.2922 -0.3576  0.2575
   54bbb    H13 1610   7.281   5.219  10.265  0.5457  0.5673 -1.1674
   54bbb    H14 1611   7.287   5.051  10.188 -0.0471 -0.3843  2.0652
   54bbb     C8 1612   7.384   5.405   9.632 -0.3438 -0.2260  1.0629
   54bbb    H15 1613   7.418   5.447   9.536 -1.7866  0.4192  0.8020
   54bbb    H16 1614   7.397   5.480   9.711  0.6942  1.4306 -0.5926
   54bbb     C9 1615   7.396   4.836   9.608 -0.2062 -0.7393  0.2014
   54bbb    H17 1616   7.300   4.784   9.619 -0.5232 -0.4093 -0.8833
   54bbb    H18 1617   7.479   4.765   9.616  0.5192  0.0535 -0.1662
   54bbb     O1 1618   7.094   5.123  10.221 -0.0242  0.5236 -0.2762
   54bbb    H19 1619   7.378   5.186   9.816  0.3239  1.0353  0.0892
   55bbb     N1 1620   3.216   3.984   9.055 -0.2969  0.2529  0.6557
   55bbb     C1 1621   3.219   4.134   9.050  0.5051 -0.1599 -0.3248
   55bbb     H1 1622   3.198   4.171   8.950 -0.6364  2.6714  0.8461
   55bbb     H2 1623   3.318   4.171   9.077 -0.8181  3.4842  0.2442
   55bbb     C2 1624   3.304   3.920   8.945  0.3516 -0.8547 -0.6929
   55bbb     H3 1625   3.297   3.811   8.949 -1.9657 -0.7241  0.6675
   55bbb     H4 1626   3.406   3.954   8.962  0.2279 -0.9756  0.3859
   55bbb     C3 1627   3.260   3.928   9.193 -0.4544 -0.7266  0.0464
   55bbb     H5 1628   3.200   3.976   9.270  0.7276  2.4811 -0.8631
   55bbb     H6 1629   3.362   3.963   9.206 -0.6351  0.4180 -1.3438
   55bbb     C4 1630   3.259   3.774   9.216  0.2732  0.4710  0.5187
   55bbb     H7 1631   3.312   3.714   9.141 -0.1253  0.9988 -0.1944
   55bbb     H8 1632   3.156   3.735   9.211  0.1515  0.5185  2.1371
   55bbb     C5 1633   3.112   4.189   9.149 -0.1140 -0.3686 -0.1223
   55bbb     H9 1634   3.111   4.133   9.244 -2.5811 -1.4323 -0.6789
   55bbb    H10 1635   3.014   4.176   9.102 -1.0242 -3.0952  2.1866
   55bbb     C6 1636   3.257   3.946   8.801 -0.0352  0.0069  0.4246
   55bbb    H11 1637   3.327   3.907   8.726  2.0643  2.1483  1.1272
   55bbb    H12 1638   3.244   4.054   8.788 -0.4451  0.2373  2.3881
   55bbb     C7 1639   3.317   3.729   9.353  0.5440 -0.4690 -0.3567
   55bbb    H13 1640   3.281   3.626   9.355  0.4059 -0.4451 -1.4608
   55bbb    H14 1641   3.273   3.784   9.437 -0.0316 -0.9091 -0.3653
   55bbb     C8 1642   3.115   3.885   8.772  0.4817 -0.4686 -0.4502
   55bbb    H15 1643   3.061   3.936   8.692 -1.7192 -0.2717  1.0769
   55bbb    H16 1644   3.131   3.780   8.745 -1.9174 -1.5968  2.0294
   55bbb     C9 1645   3.139   4.340   9.177 -0.5466  0.7635 -0.4755
   55bbb    H17 1646   3.238   4.360   9.221 -0.5796 -0.9267  0.4612
   55bbb    H18 1647   3.065   4.366   9.254 -1.8200  3.6483 -2.4831
   55bbb     O1 1648   3.459   3.725   9.339 -0.1161 -0.5761 -0.7571
   55bbb    H19 1649   3.126   3.944   9.026 -1.3790  1.9318  1.5173
   56bbb     N1 1650   4.384   3.939   9.163 -0.0516 -0.1461  0.3866
   56bbb     C1 1651   4.437   3.843   9.054  0.2308 -0.1640 -0.5566
   56bbb     H1 1652   4.479   3.908   8.977 -1.4384 -0.1660 -1.5245
   56bbb     H2 1653   4.345   3.792   9.025 -0.3539 -1.0765  2.4749
   56bbb     C2 1654   4.307   4.054   9.102 -0.2467  0.0536 -0.2149
   56bbb     H3 1655   4.259   4.118   9.176  0.7434  0.3018  0.2341
   56bbb     H4 1656   4.218   4.013   9.056 -0.5241 -0.6114  0.8761
   56bbb     C3 1657   4.280   3.879   9.257 -0.6033 -0.0578 -0.4376
   56bbb     H5 1658   4.194   3.835   9.206 -1.7901  1.2845  0.3234
   56bbb     H6 1659   4.247   3.968   9.312  2.7652  0.8428  0.3830
   56bbb     C4 1660   4.327   3.778   9.361 -0.0410 -0.1105  0.6749
   56bbb     H7 1661   4.423   3.813   9.402  0.5553 -1.0793  0.1584
   56bbb     H8 1662   4.342   3.685   9.303  0.6306  1.2598 -1.4942
   56bbb     C5 1663   4.545   3.743   9.106  0.0002 -0.2838  0.8121
   56bbb     H9 1664   4.511   3.684   9.192 -0.3096  0.7108  1.3928
   56bbb    H10 1665   4.623   3.810   9.145 -1.6817  0.9789  2.2019
   56bbb     C6 1666   4.370   4.131   8.988 -0.3582  0.1573  0.0436
   56bbb    H11 1667   4.301   4.213   8.964  1.0375  2.1847  2.5092
   56bbb    H12 1668   4.382   4.073   8.895 -1.6273  0.0519 -0.0734
   56bbb     C7 1669   4.216   3.755   9.475 -0.0676 -0.2755  0.4753
   56bbb    H13 1670   4.171   3.847   9.514 -0.8212 -0.7464  0.7242
   56bbb    H14 1671   4.261   3.702   9.561  1.9466 -1.3826 -1.1656
   56bbb     C8 1672   4.507   4.193   9.025  0.0461  0.0243 -0.3570
   56bbb    H15 1673   4.519   4.270   8.948  0.4154 -0.3830 -0.7164
   56bbb    H16 1674   4.504   4.244   9.122  0.1196 -2.5908  1.1307
   56bbb     C9 1675   4.615   3.643   9.004 -0.0829  0.1040 -0.4234
   56bbb    H17 1676   4.677   3.574   9.063  0.4827  1.4247  0.5779
   56bbb    H18 1677   4.692   3.688   8.939  0.0156 -0.5276 -0.7600
   56bbb     O1 1678   4.109   3.678   9.418  0.0186 -0.3512 -0.0250
   56bbb    H19 1679   4.466   3.978   9.212  2.0470 -2.9545 -0.6205
   57bbb     N1 1680   2.794   2.998  10.520  1.0716 -0.3632 -0.7110
   57bbb     C1 1681   2.638   2.993  10.494 -0.2077 -0.0375 -0.1466
   57bbb     H1 1682   2.626   2.993  10.385  1.2748 -1.5703 -0.3415
   57bbb     H2 1683   2.609   3.090  10.535 -1.2062 -0.2343 -0.3595
   57bbb     C2 1684   2.814   3.005  10.677 -0.4014 -0.4120 -0.0103
   57bbb     H3 1685   2.917   2.970  10.683 -0.2052  0.0839 -0.3969
   57bbb     H4 1686   2.745   2.938  10.727  0.8862 -0.6756  1.4649
   57bbb     C3 1687   2.850   2.867  10.462 -0.1756 -0.0486 -0.2872
   57bbb     H5 1688   2.813   2.855  10.360 -0.1426 -0.6960 -0.2266
   57bbb     H6 1689   2.810   2.790  10.528 -0.8850 -0.6638 -1.4070
   57bbb     C4 1690   3.000   2.852  10.457  0.5956  0.3928 -0.3559
   57bbb     H7 1691   3.042   2.878  10.555  1.5443  1.2034 -0.9546
   57bbb     H8 1692   3.031   2.923  10.379 -3.0929  0.9509 -1.4724
   57bbb     C5 1693   2.548   2.879  10.538  0.7529  0.2299  0.1486
   57bbb     H9 1694   2.572   2.859  10.644 -0.8329  0.3700  0.5691
   57bbb    H10 1695   2.581   2.779  10.506  0.2096 -0.9629  2.9992
   57bbb     C6 1696   2.800   3.146  10.730  0.1107 -0.0687  0.2750
   57bbb    H11 1697   2.822   3.129  10.836  1.7951  0.5648  0.0566
   57bbb    H12 1698   2.695   3.175  10.734 -1.0636 -3.9141  1.8910
   57bbb     C7 1699   3.047   2.711  10.419  0.9921  0.7039 -0.0336
   57bbb    H13 1700   3.011   2.703  10.316  0.2925  3.8920 -0.1356
   57bbb    H14 1701   2.991   2.634  10.474  1.7748  0.1030 -0.0725
   57bbb     C8 1702   2.900   3.251  10.671 -0.4069 -0.4393 -0.5814
   57bbb    H15 1703   2.896   3.348  10.722  0.1496 -0.3755 -0.6445
   57bbb    H16 1704   3.003   3.217  10.692  1.0141  3.3877 -0.4887
   57bbb     C9 1705   2.396   2.909  10.528 -0.0807  0.7891 -0.0553
   57bbb    H17 1706   2.335   2.818  10.524  2.0112 -0.8146  1.6423
   57bbb    H18 1707   2.380   2.959  10.432 -0.6407 -0.1963 -0.4904
   57bbb     O1 1708   3.191   2.701  10.426  0.3004  0.2731  0.2297
   57bbb    H19 1709   2.836   3.082  10.478 -2.8255  2.7984  1.0012
   58bbb     N1 1710   3.324   2.689  11.055  0.1175 -0.5566  0.6667
   58bbb     C1 1711   3.208   2.769  10.992  0.6727 -0.0148  0.5924
   58bbb     H1 1712   3.159   2.706  10.918 -0.3624  0.4171  0.8999
   58bbb     H2 1713   3.254   2.856  10.945  0.8206  0.0352  0.8329
   58bbb     C2 1714   3.290   2.550  11.089 -0.0370  0.7772 -0.1594
   58bbb     H3 1715   3.317   2.478  11.012  0.3911 -1.1391  1.7170
   58bbb     H4 1716   3.181   2.549  11.098 -0.1402 -1.5351 -1.1023
   58bbb     C3 1717   3.426   2.690  10.945  0.3817  0.0262  0.3194
   58bbb     H5 1718   3.426   2.796  10.923 -1.4163  0.4719  2.1951
   58bbb     H6 1719   3.403   2.626  10.859 -0.5819  1.9364 -0.8939
   58bbb     C4 1720   3.568   2.658  10.991 -0.4292 -0.0966 -0.1393
   58bbb     H7 1721   3.580   2.556  11.031 -0.2577 -0.7077 -1.6731
   58bbb     H8 1722   3.585   2.707  11.087 -0.9109 -1.2191  0.5432
   58bbb     C5 1723   3.098   2.800  11.100 -0.0968  0.5495  0.3934
   58bbb     H9 1724   3.063   2.707  11.145 -1.7378  0.1321 -1.6031
   58bbb    H10 1725   3.007   2.842  11.056  0.8424  1.2391 -0.9637
   58bbb     C6 1726   3.343   2.492  11.221  0.3265  0.1883  0.1530
   58bbb    H11 1727   3.452   2.495  11.215  0.6158 -2.9980  1.6035
   58bbb    H12 1728   3.322   2.386  11.235  0.9666 -0.0028 -0.2776
   58bbb     C7 1729   3.678   2.689  10.883  0.1934 -0.1959 -0.2336
   58bbb    H13 1730   3.693   2.615  10.802 -0.8174 -0.8821  0.1886
   58bbb    H14 1731   3.772   2.696  10.939  0.9461  1.7087 -1.6100
   58bbb     C8 1732   3.305   2.575  11.334 -0.9280 -0.1655 -0.1868
   58bbb    H15 1733   3.197   2.596  11.335 -0.7047  1.0395  0.2645
   58bbb    H16 1734   3.330   2.523  11.427 -1.5402  0.4252  0.3164
   58bbb     C9 1735   3.141   2.900  11.211 -0.4393  0.0511  0.8539
   58bbb    H17 1736   3.225   2.861  11.269 -0.0641  1.1210  1.0493
   58bbb    H18 1737   3.056   2.919  11.278 -1.0100 -2.7376  1.0268
   58bbb     O1 1738   3.650   2.818  10.824  0.3553 -0.5690  1.3775
   58bbb    H19 1739   3.352   2.731  11.145 -2.2713 -0.0434  1.2249
   59bbb     N1 1740   5.743   2.379  10.563  0.1462  0.1503  0.4163
   59bbb     C1 1741   5.847   2.345  10.674 -0.4208  0.9884 -0.1007
   59bbb     H1 1742   5.841   2.423  10.750 -0.0129  1.2958 -0.3795
   59bbb     H2 1743   5.944   2.360  10.627 -0.0419 -3.2607 -1.1223
   59bbb     C2 1744   5.608   2.406  10.632 -1.6566  0.0888  0.4365
   59bbb     H3 1745   5.614   2.514  10.647  0.9095  0.0300  0.3872
   59bbb     H4 1746   5.615   2.365  10.732  0.9672 -0.9828 -0.1001
   59bbb     C3 1747   5.786   2.492  10.476 -0.8385  0.2235  0.3211
   59bbb     H5 1748   5.823   2.564  10.549 -0.2724  0.6191 -0.3509
   59bbb     H6 1749   5.704   2.533  10.417 -1.5557 -3.5840 -1.6394
   59bbb     C4 1750   5.907   2.447  10.388  0.6965 -0.0274  0.5451
   59bbb     H7 1751   5.981   2.408  10.458  0.3617 -0.2650  0.7713
   59bbb     H8 1752   5.956   2.530  10.335  0.6001  0.0084  0.5113
   59bbb     C5 1753   5.840   2.203  10.739  0.7530 -0.0900 -0.2934
   59bbb     H9 1754   5.741   2.181  10.780  0.9414 -1.0508 -0.3214
   59bbb    H10 1755   5.910   2.196  10.823 -0.1446 -0.7315  0.4191
   59bbb     C6 1756   5.476   2.375  10.557 -0.6773 -0.5852 -0.2172
   59bbb    H11 1757   5.468   2.418  10.457  2.6785 -1.0230 -0.7973
   59bbb    H12 1758   5.389   2.417  10.609 -0.5217 -1.7482  1.0316
   59bbb     C7 1759   5.864   2.336  10.289  0.7137  0.0610  0.4739
   59bbb    H13 1760   5.833   2.249  10.348  0.6426 -0.0794  0.2339
   59bbb    H14 1761   5.953   2.311  10.229  1.2235  0.6912  0.9563
   59bbb     C8 1762   5.454   2.226  10.557  0.5405 -0.0441 -0.2898
   59bbb    H15 1763   5.436   2.184  10.656 -3.3685 -0.9025 -1.1941
   59bbb    H16 1764   5.354   2.206  10.516  1.2555 -1.3155 -1.5020
   59bbb     C9 1765   5.871   2.088  10.639 -0.3927  0.6627  0.4374
   59bbb    H17 1766   5.789   2.071  10.569  1.3680 -2.3874 -1.1109
   59bbb    H18 1767   5.877   2.003  10.708 -1.4307 -0.7417 -1.1333
   59bbb     O1 1768   5.768   2.380  10.196  0.1638  0.6914 -0.1376
   59bbb    H19 1769   5.745   2.288  10.515  1.1076 -0.0350  0.7878
   60bbb     N1 1770   6.241   2.015   9.159 -0.0733 -0.0110  0.3096
   60bbb     C1 1771   6.154   1.913   9.090 -0.7910 -0.8601  0.4375
   60bbb     H1 1772   6.219   1.832   9.057 -1.0921 -0.9959  0.1670
   60bbb     H2 1773   6.113   1.975   9.010 -0.2309  0.2908  1.0226
   60bbb     C2 1774   6.333   2.075   9.050 -0.0932  0.5380  0.0406
   60bbb     H3 1775   6.351   2.180   9.074  2.7226  0.4343 -1.2739
   60bbb     H4 1776   6.275   2.072   8.958 -1.9207  1.2123  1.1166
   60bbb     C3 1777   6.158   2.125   9.223  0.2146 -0.3558  0.5627
   60bbb     H5 1778   6.072   2.082   9.274 -0.7106  0.5288 -0.2063
   60bbb     H6 1779   6.116   2.188   9.145  0.0274  1.1907  1.8401
   60bbb     C4 1780   6.217   2.213   9.335  0.1187  0.2606 -0.4579
   60bbb     H7 1781   6.323   2.231   9.312 -0.0411  1.9014 -0.0030
   60bbb     H8 1782   6.218   2.163   9.433  0.8371 -0.2617 -0.7197
   60bbb     C5 1783   6.050   1.849   9.182  0.5398  0.0998  0.5067
   60bbb     H9 1784   5.989   1.923   9.236  0.0161 -1.6344  2.4058
   60bbb    H10 1785   6.102   1.807   9.268  0.0495  2.1844  1.8958
   60bbb     C6 1786   6.468   2.001   9.035  0.1053 -0.4356  0.3758
   60bbb    H11 1787   6.530   2.039   8.953 -0.0776 -1.4920 -0.2761
   60bbb    H12 1788   6.445   1.894   9.023 -0.0510 -0.4408  0.7292
   60bbb     C7 1789   6.135   2.340   9.371 -0.3952  0.1597 -0.1516
   60bbb    H13 1790   6.116   2.406   9.285 -0.1214 -0.1402 -0.4425
   60bbb    H14 1791   6.196   2.400   9.439 -1.7398 -1.1126  2.3143
   60bbb     C8 1792   6.565   2.012   9.149  0.5861  0.0122  0.1862
   60bbb    H15 1793   6.658   1.959   9.126  1.8466  1.7854  0.9471
   60bbb    H16 1794   6.585   2.119   9.167  2.0930 -0.3877  1.0573
   60bbb     C9 1795   5.969   1.737   9.119 -0.5664  0.6910  0.3140
   60bbb    H17 1796   5.940   1.658   9.189  0.2659 -0.9178 -1.0954
   60bbb    H18 1797   6.041   1.686   9.054 -0.2440  1.2119  0.2538
   60bbb     O1 1798   6.017   2.306   9.450 -0.3740  0.4387  0.0821
   60bbb    H19 1799   6.294   1.967   9.233  1.2262 -0.0243 -0.6108
   61bbb     N1 1800   4.558   2.218   9.813 -0.4818 -0.8395  0.2977
   61bbb     C1 1801   4.432   2.140   9.796  0.1511  0.4941 -0.1317
   61bbb     H1 1802   4.451   2.055   9.731  1.9001  1.1143 -0.4679
   61bbb     H2 1803   4.360   2.197   9.736  0.6624  2.0006  0.6273
   61bbb     C2 1804   4.652   2.197   9.694 -0.7510 -0.4262 -0.0865
   61bbb     H3 1805   4.745   2.250   9.719 -1.2833  0.2548  0.5032
   61bbb     H4 1806   4.611   2.257   9.613 -1.3101  1.0526  1.2328
   61bbb     C3 1807   4.510   2.360   9.825 -0.4028 -0.0344 -0.2034
   61bbb     H5 1808   4.428   2.374   9.895 -0.3075 -0.8445  0.0818
   61bbb     H6 1809   4.476   2.389   9.726 -1.1538  1.9404  0.5907
   61bbb     C4 1810   4.622   2.460   9.871 -0.0458 -0.3872 -0.3102
   61bbb     H7 1811   4.701   2.458   9.795 -1.4963 -0.6505 -1.8911
   61bbb     H8 1812   4.679   2.440   9.962 -0.3164  0.7790  0.1337
   61bbb     C5 1813   4.356   2.093   9.924 -0.2710  0.6132 -0.4757
   61bbb     H9 1814   4.342   2.183   9.986 -0.4298  1.9334 -2.3309
   61bbb    H10 1815   4.419   2.021   9.978  0.0262  1.4483  0.3184
   61bbb     C6 1816   4.672   2.051   9.638 -0.0440  1.0105 -0.2670
   61bbb    H11 1817   4.588   2.019   9.575 -0.5479 -1.0969  1.3267
   61bbb    H12 1818   4.675   1.992   9.730  2.4943  1.8511  0.2624
   61bbb     C7 1819   4.554   2.601   9.881 -0.2580 -0.5582 -0.0716
   61bbb    H13 1820   4.631   2.666   9.926 -1.8735  0.4314  1.4106
   61bbb    H14 1821   4.467   2.596   9.947 -0.1530 -0.4313  0.0798
   61bbb     C8 1822   4.796   2.022   9.561  0.4705  0.3596  0.2518
   61bbb    H15 1823   4.806   2.106   9.492 -0.0984  2.9310  3.1062
   61bbb    H16 1824   4.883   2.027   9.628  0.4773  0.2534  0.2508
   61bbb     C9 1825   4.220   2.029   9.901  0.4705 -0.6876 -0.7168
   61bbb    H17 1826   4.150   2.098   9.853  0.3664 -0.7670 -0.6794
   61bbb    H18 1827   4.181   2.021  10.003 -1.5552  1.5408 -1.2357
   61bbb     O1 1828   4.506   2.651   9.756 -0.6211 -0.2371  0.2045
   61bbb    H19 1829   4.598   2.184   9.901 -2.9672 -1.3407  1.3221
   62bbb     N1 1830   4.559   2.263   8.755 -0.0817 -0.4054 -0.5053
   62bbb     C1 1831   4.529   2.356   8.638 -0.2702 -0.4463 -0.0490
   62bbb     H1 1832   4.560   2.302   8.549 -0.0610 -0.1304 -0.1708
   62bbb     H2 1833   4.598   2.440   8.639 -1.9402  1.0478 -1.4163
   62bbb     C2 1834   4.616   2.135   8.701  0.1403 -0.3288  0.2690
   62bbb     H3 1835   4.713   2.164   8.661 -1.0738  0.5279 -2.2363
   62bbb     H4 1836   4.552   2.095   8.622 -0.2214 -1.3226  1.0432
   62bbb     C3 1837   4.627   2.336   8.869 -0.2982  0.6068  0.1640
   62bbb     H5 1838   4.716   2.378   8.821 -1.0935  0.2865 -1.7046
   62bbb     H6 1839   4.663   2.267   8.946  0.7757  1.7558  0.7272
   62bbb     C4 1840   4.541   2.435   8.944  0.7358 -0.5921  0.3142
   62bbb     H7 1841   4.453   2.374   8.971  1.3298 -2.0195 -0.8209
   62bbb     H8 1842   4.513   2.513   8.873  0.5205 -1.4207 -0.5375
   62bbb     C5 1843   4.382   2.404   8.611 -0.2723  0.5232 -0.0414
   62bbb     H9 1844   4.350   2.487   8.676 -0.8654  0.9365 -0.8502
   62bbb    H10 1845   4.308   2.334   8.653 -1.2410  1.5902  0.0875
   62bbb     C6 1846   4.628   2.029   8.812  0.4696 -0.6084  0.7673
   62bbb    H11 1847   4.522   2.006   8.830 -0.5035  3.1200  0.6719
   62bbb    H12 1848   4.670   2.071   8.904 -0.1302  5.2711 -1.2086
   62bbb     C7 1849   4.612   2.488   9.066  0.2998 -0.5093 -0.3788
   62bbb    H13 1850   4.714   2.521   9.045  0.3243 -1.2542 -1.5363
   62bbb    H14 1851   4.620   2.403   9.136  0.2896 -1.0321 -1.0064
   62bbb     C8 1852   4.706   1.905   8.769 -0.7928  0.1994  0.2870
   62bbb    H15 1853   4.807   1.921   8.728 -1.3383  1.5448 -0.6037
   62bbb    H16 1854   4.713   1.844   8.860 -1.6459 -1.9365 -1.0083
   62bbb     C9 1855   4.337   2.450   8.474 -0.5821 -0.0014  0.8673
   62bbb    H17 1856   4.395   2.535   8.435  0.3544 -0.2716  1.6221
   62bbb    H18 1857   4.229   2.469   8.476 -0.9925 -1.6174 -1.6191
   62bbb     O1 1858   4.532   2.586   9.145 -0.1518 -0.1512 -0.5300
   62bbb    H19 1859   4.465   2.241   8.791 -0.0789 -0.4111 -0.5006
   63bbb     N1 1860   1.238   6.004   9.317 -0.5541 -0.0130 -0.0621
   63bbb     C1 1861   1.148   6.056   9.423  0.3490  0.4820  0.1988
   63bbb     H1 1862   1.140   6.162   9.402 -2.3826 -0.2023 -3.1288
   63bbb     H2 1863   1.192   6.026   9.518  1.3220 -2.1008 -0.9761
   63bbb     C2 1864   1.183   6.031   9.178 -0.8733 -0.3980  0.1957
   63bbb     H3 1865   1.187   6.138   9.158  0.1121 -0.8144 -2.1449
   63bbb     H4 1866   1.075   6.016   9.174 -0.8933  0.0660 -1.9531
   63bbb     C3 1867   1.376   6.069   9.320 -1.2631 -0.3137  0.2335
   63bbb     H5 1868   1.360   6.175   9.297  0.1300 -0.3598 -1.1537
   63bbb     H6 1869   1.438   6.020   9.244 -0.8044 -0.8079  0.9219
   63bbb     C4 1870   1.447   6.064   9.454  0.1244 -0.0495 -0.1461
   63bbb     H7 1871   1.430   5.967   9.501  1.9152 -0.9990 -1.3315
   63bbb     H8 1872   1.399   6.136   9.521 -1.6413 -2.7121  1.6287
   63bbb     C5 1873   0.999   6.010   9.425  0.6181  0.1438  0.4951
   63bbb     H9 1874   1.003   5.902   9.443  3.4619  0.4591  2.4517
   63bbb    H10 1875   0.955   6.026   9.326 -1.0381  2.9150  1.5635
   63bbb     C6 1876   1.251   5.946   9.063 -0.1144 -0.6724 -0.2304
   63bbb    H11 1877   1.357   5.972   9.057  0.3740 -1.2961  3.3219
   63bbb    H12 1878   1.204   5.967   8.966  0.1771 -1.9886 -0.6778
   63bbb     C7 1879   1.599   6.096   9.441 -0.4691  0.5443  0.3161
   63bbb    H13 1880   1.636   6.128   9.539  1.5565  0.5334 -0.3956
   63bbb    H14 1881   1.613   6.180   9.372 -4.5237  0.5283 -0.7368
   63bbb     C8 1882   1.241   5.789   9.083 -0.9096  0.1175  0.1132
   63bbb    H15 1883   1.253   5.732   8.990  0.1181  1.4792 -0.6441
   63bbb    H16 1884   1.323   5.763   9.150 -1.3827 -1.4627  0.1151
   63bbb     C9 1885   0.914   6.092   9.523 -1.0079  0.4792  0.3172
   63bbb    H17 1886   0.931   6.199   9.506 -4.1299  1.3046  1.4837
   63bbb    H18 1887   0.943   6.066   9.626  1.2576 -1.9516 -0.8393
   63bbb     O1 1888   1.671   5.984   9.389  0.1337 -0.7227  0.1870
   63bbb    H19 1889   1.245   5.902   9.330 -1.3303 -0.4129 -2.3652
   64bbb     N1 1890   1.910   4.959   9.715  0.1729  0.2288 -0.0528
   64bbb     C1 1891   1.798   5.030   9.641 -0.0362 -0.1533  0.4388
   64bbb     H1 1892   1.832   5.043   9.538  0.6008 -1.2363  0.4963
   64bbb     H2 1893   1.785   5.126   9.692  2.1239  1.6829 -2.1364
   64bbb     C2 1894   1.982   4.861   9.619 -0.1198 -0.0283 -0.2872
   64bbb     H3 1895   2.023   4.924   9.540  1.5566 -0.4401  0.2182
   64bbb     H4 1896   1.908   4.791   9.578  2.2386 -2.2124 -1.0735
   64bbb     C3 1897   2.013   5.060   9.758  0.2306 -0.4125 -0.1876
   64bbb     H5 1898   2.079   4.998   9.819  0.7084  0.0756 -0.1979
   64bbb     H6 1899   1.954   5.127   9.821 -3.4833 -1.9125 -1.7996
   64bbb     C4 1900   2.101   5.135   9.655 -0.1916  0.1699 -0.3960
   64bbb     H7 1901   2.055   5.145   9.556  2.4025  2.1069 -1.5415
   64bbb     H8 1902   2.195   5.087   9.623 -0.6460  0.5678 -2.4458
   64bbb     C5 1903   1.665   4.951   9.627  0.0274  0.3664 -0.2611
   64bbb     H9 1904   1.686   4.859   9.571 -1.4917 -0.1484 -0.0218
   64bbb    H10 1905   1.596   5.011   9.568  2.4729  1.2924 -2.3842
   64bbb     C6 1906   2.094   4.776   9.683  0.2447 -1.5788  0.0961
   64bbb    H11 1907   2.047   4.749   9.779 -0.7937 -1.4600 -0.3691
   64bbb    H12 1908   2.185   4.837   9.695 -0.7588  0.0559 -0.3116
   64bbb     C7 1909   2.124   5.276   9.714 -0.3074  0.4824 -0.2209
   64bbb    H13 1910   2.195   5.278   9.798 -0.8039 -2.2905  0.3431
   64bbb    H14 1911   2.025   5.302   9.753 -0.4516  0.9626 -0.8912
   64bbb     C8 1912   2.128   4.663   9.592 -0.5162  0.0015 -0.1519
   64bbb    H15 1913   2.041   4.596   9.592  1.8045 -3.2358 -0.2718
   64bbb    H16 1914   2.150   4.700   9.491 -0.3810 -1.2370 -0.5966
   64bbb     C9 1915   1.602   4.911   9.761 -0.6237 -0.1249 -0.0185
   64bbb    H17 1916   1.503   4.871   9.735 -0.7729  0.0861  0.2263
   64bbb    H18 1917   1.579   4.997   9.825  1.3176  1.4636 -1.3413
   64bbb     O1 1918   2.156   5.361   9.605 -0.3568 -0.0724 -0.0671
   64bbb    H19 1919   1.871   4.905   9.793  0.1060 -1.0645 -0.9347
   65bbb     N1 1920   1.752   5.761   8.166 -0.0168  0.4142  0.1082
   65bbb     C1 1921   1.609   5.787   8.200  0.2945  0.1231 -0.2504
   65bbb     H1 1922   1.619   5.893   8.227  0.9171  0.1935 -0.7501
   65bbb     H2 1923   1.585   5.729   8.290  1.1398  2.0105  1.2712
   65bbb     C2 1924   1.806   5.842   8.044  0.1632 -0.0696  0.3604
   65bbb     H3 1925   1.821   5.944   8.081 -2.4801 -0.5008  2.9778
   65bbb     H4 1926   1.727   5.845   7.970 -1.5368  0.1470  2.1156
   65bbb     C3 1927   1.837   5.800   8.287  0.0475  0.1067  0.3539
   65bbb     H5 1928   1.816   5.907   8.294  2.0441  0.5115  0.9928
   65bbb     H6 1929   1.940   5.776   8.259  0.4899 -3.6212  4.0556
   65bbb     C4 1930   1.812   5.740   8.426 -0.3330 -0.0073  0.1126
   65bbb     H7 1931   1.813   5.633   8.404 -1.7726  0.3361 -2.0202
   65bbb     H8 1932   1.714   5.770   8.463  0.4611  1.7357  0.9632
   65bbb     C5 1933   1.495   5.764   8.096 -0.0687  0.3853  0.7799
   65bbb     H9 1934   1.518   5.670   8.044  1.2823  0.6710  0.8252
   65bbb    H10 1935   1.489   5.854   8.032 -1.5315  2.3307  3.4603
   65bbb     C6 1936   1.934   5.770   7.982 -0.0841  0.5146  0.5016
   65bbb    H11 1937   2.026   5.772   8.042  2.7209  3.9144 -3.3779
   65bbb    H12 1938   1.968   5.826   7.895  1.0587 -0.9812 -0.0546
   65bbb     C7 1939   1.927   5.776   8.525 -0.4559  0.2432 -0.0615
   65bbb    H13 1940   2.012   5.738   8.467  1.3327 -0.8138  3.0143
   65bbb    H14 1941   1.913   5.724   8.621 -2.0387  2.1379  0.7991
   65bbb     C8 1942   1.903   5.628   7.931  1.1264  0.8646 -0.2052
   65bbb    H15 1943   1.812   5.638   7.870  0.8416  0.4950  0.1557
   65bbb    H16 1944   1.977   5.602   7.855 -0.1670  1.2311 -1.6485
   65bbb     C9 1945   1.360   5.756   8.162 -0.3382  0.1029  0.0071
   65bbb    H17 1946   1.293   5.768   8.076  0.3043  2.7354 -0.1929
   65bbb    H18 1947   1.341   5.837   8.233  1.1399 -1.0194  1.7817
   65bbb     O1 1948   1.942   5.919   8.554 -0.0783 -0.4037 -0.1598
   65bbb    H19 1949   1.765   5.660   8.150  1.3017  0.3069  1.6777
   66bbb     N1 1950   1.723   6.631   7.925 -0.5492  0.1065 -0.2846
   66bbb     C1 1951   1.601   6.700   7.867 -0.8505  0.1039 -0.3585
   66bbb     H1 1952   1.523   6.626   7.888  0.1083 -0.7126  0.4129
   66bbb     H2 1953   1.610   6.712   7.759 -0.5708  0.3900 -0.3021
   66bbb     C2 1954   1.746   6.495   7.861  0.3884  0.1794  0.2830
   66bbb     H3 1955   1.853   6.477   7.878  0.4153 -0.3797 -0.3945
   66bbb     H4 1956   1.724   6.507   7.755  0.4919 -0.8535  0.1294
   66bbb     C3 1957   1.842   6.715   7.890 -0.1364 -0.0996  0.9533
   66bbb     H5 1958   1.807   6.794   7.823 -0.1577  0.5257  1.6770
   66bbb     H6 1959   1.917   6.662   7.831 -0.1460  1.8929 -0.9892
   66bbb     C4 1960   1.910   6.772   8.013 -0.8879  0.8497  0.4659
   66bbb     H7 1961   1.841   6.837   8.069 -1.2383 -0.2151  1.3125
   66bbb     H8 1962   1.982   6.838   7.963 -1.5527  0.6045 -0.8756
   66bbb     C5 1963   1.563   6.838   7.928 -0.5243 -0.2042  0.0099
   66bbb     H9 1964   1.635   6.912   7.893 -1.3056  0.2732 -0.6157
   66bbb    H10 1965   1.570   6.834   8.038  0.2299 -0.0354 -0.0235
   66bbb     C6 1966   1.655   6.376   7.915 -0.0364  0.5761  0.5506
   66bbb    H11 1967   1.554   6.385   7.872  0.2826  2.3552  0.0688
   66bbb    H12 1968   1.655   6.381   8.024  2.4396  1.0034  0.5894
   66bbb     C7 1969   1.988   6.672   8.099 -0.9987 -0.3459 -0.7978
   66bbb    H13 1970   2.046   6.718   8.179  1.4353 -2.3061 -1.3139
   66bbb    H14 1971   2.063   6.624   8.035  1.6847  0.7306  1.3449
   66bbb     C8 1972   1.713   6.247   7.858  0.4302  0.2503 -0.6010
   66bbb    H15 1973   1.660   6.153   7.880  2.3328 -0.7399 -0.0339
   66bbb    H16 1974   1.709   6.255   7.748  2.4268  2.9229 -0.5692
   66bbb     C9 1975   1.420   6.879   7.888 -0.2261 -0.4321  0.6545
   66bbb    H17 1976   1.426   6.945   7.800  4.6803  0.3174  1.2792
   66bbb    H18 1977   1.374   6.944   7.963 -0.2255 -0.2989  0.5417
   66bbb     O1 1978   1.896   6.578   8.154 -0.3516  0.1891 -0.2167
   66bbb    H19 1979   1.721   6.635   8.028  1.0049 -0.7372 -0.1854
   67bbb     N1 1980   2.408   8.196   9.151 -0.7985 -0.1369  0.4091
   67bbb     C1 1981   2.286   8.218   9.063 -0.3437  0.2918 -0.5032
   67bbb     H1 1982   2.218   8.135   9.084  0.3770 -0.0805  0.4481
   67bbb     H2 1983   2.318   8.207   8.959 -0.1595 -1.7705 -0.2732
   67bbb     C2 1984   2.378   8.200   9.305 -0.7317  0.2175 -0.0154
   67bbb     H3 1985   2.379   8.099   9.345  1.4418  0.4324  0.6177
   67bbb     H4 1986   2.281   8.245   9.322 -1.1192 -0.4630 -0.3821
   67bbb     C3 1987   2.473   8.066   9.105 -0.2266  0.0109 -0.5722
   67bbb     H5 1988   2.491   8.067   8.998 -0.1946  0.7029 -0.5637
   67bbb     H6 1989   2.406   7.981   9.123  0.9294 -0.9536 -0.6862
   67bbb     C4 1990   2.609   8.028   9.166  0.5031 -0.4499  0.1370
   67bbb     H7 1991   2.597   7.995   9.270  2.5816 -1.6146  0.0656
   67bbb     H8 1992   2.677   8.113   9.158 -0.3016  0.2191  0.3096
   67bbb     C5 1993   2.212   8.350   9.079 -0.5628  0.9556 -0.1996
   67bbb     H9 1994   2.276   8.436   9.101 -2.2296  1.9627  0.9169
   67bbb    H10 1995   2.147   8.344   9.167  0.0066  2.0047  0.3068
   67bbb     C6 1996   2.487   8.271   9.387 -0.0827  0.4121  0.0720
   67bbb    H11 1997   2.578   8.211   9.390 -2.0727 -2.8361 -0.0411
   67bbb    H12 1998   2.458   8.278   9.493  2.9525  0.7909  0.9681
   67bbb     C7 1999   2.662   7.906   9.088 -0.4306 -0.0960 -0.2605
   67bbb    H13 2000   2.677   7.934   8.983 -1.5230  1.5611 -0.0090
   67bbb    H14 2001   2.585   7.828   9.086  0.9989 -1.5753  0.0708
   67bbb     C8 2002   2.516   8.414   9.350 -0.0649  0.0103 -0.0238
   67bbb    H15 2003   2.430   8.474   9.381 -2.5069 -2.5762 -1.3330
   67bbb    H16 2004   2.605   8.440   9.409  2.4701 -1.5859 -2.8678
   67bbb     C9 2005   2.117   8.377   8.961  0.5974 -0.2984  0.4364
   67bbb    H17 2006   2.048   8.461   8.975 -0.3764 -0.9200 -0.4827
   67bbb    H18 2007   2.061   8.283   8.946  1.6224 -0.4535 -3.4295
   67bbb     O1 2008   2.783   7.860   9.148 -0.2538  0.8002 -0.0030
   67bbb    H19 2009   2.471   8.275   9.134  1.0197 -1.3550  1.1766
   68bbb     N1 2010   3.602   8.376   9.354  0.8096  0.3914 -0.3015
   68bbb     C1 2011   3.668   8.255   9.411 -0.3147 -0.0945 -0.1124
   68bbb     H1 2012   3.689   8.193   9.324 -0.0974  0.2705 -0.3213
   68bbb     H2 2013   3.602   8.202   9.480  0.0918 -0.2215  0.1816
   68bbb     C2 2014   3.677   8.414   9.218  0.6826 -0.3553 -0.5045
   68bbb     H3 2015   3.617   8.376   9.135  0.3598 -2.3734  0.5902
   68bbb     H4 2016   3.771   8.361   9.224  1.5773  1.2768  0.8018
   68bbb     C3 2017   3.466   8.327   9.302 -0.3766 -0.0788 -0.0218
   68bbb     H5 2018   3.481   8.231   9.251 -0.2724 -0.4092  0.6101
   68bbb     H6 2019   3.420   8.396   9.232 -2.7073 -0.6759  0.8170
   68bbb     C4 2020   3.367   8.299   9.421  0.3705 -0.8131  0.0753
   68bbb     H7 2021   3.367   8.377   9.497  1.7456 -0.0548 -0.6734
   68bbb     H8 2022   3.396   8.213   9.484  0.4776 -1.3417 -0.6772
   68bbb     C5 2023   3.801   8.274   9.480  0.8122 -0.2791 -0.0941
   68bbb     H9 2024   3.802   8.366   9.539  4.0305  1.3991 -2.4503
   68bbb    H10 2025   3.883   8.290   9.409  1.1044 -0.6079  0.1666
   68bbb     C6 2026   3.704   8.565   9.210 -0.6321  0.0556  0.2841
   68bbb    H11 2027   3.611   8.619   9.232 -2.8188 -2.8290 -1.2364
   68bbb    H12 2028   3.737   8.588   9.108 -2.4846 -1.7593 -0.7896
   68bbb     C7 2029   3.225   8.294   9.365 -1.1652 -0.6805 -0.1906
   68bbb    H13 2030   3.193   8.384   9.311 -1.3156  0.1594  1.2361
   68bbb    H14 2031   3.155   8.296   9.449 -1.7887 -1.2515 -0.6902
   68bbb     C8 2032   3.805   8.609   9.312  0.2650  0.5664 -0.7118
   68bbb    H15 2033   3.832   8.714   9.294 -0.4108  0.8835  0.0256
   68bbb    H16 2034   3.754   8.608   9.409 -0.6006  2.4479 -1.0933
   68bbb     C9 2035   3.835   8.151   9.561 -0.6236  0.6401 -0.1445
   68bbb    H17 2036   3.930   8.179   9.610  0.2811  0.5896 -1.7956
   68bbb    H18 2037   3.848   8.063   9.498 -0.7026 -0.7389  1.7027
   68bbb     O1 2038   3.207   8.171   9.288  1.2630 -0.1388  0.3990
   68bbb    H19 2039   3.606   8.453   9.422  1.3908  1.0851 -1.0946
   69bbb     N1 2040   3.384   8.550   7.697 -0.0307 -0.5794  0.8250
   69bbb     C1 2041   3.329   8.512   7.562  0.2125  0.2931 -0.7274
   69bbb     H1 2042   3.223   8.535   7.557  0.2769  0.3836 -2.5701
   69bbb     H2 2043   3.344   8.408   7.533 -0.0481 -0.7381  2.4808
   69bbb     C2 2044   3.297   8.656   7.762  0.0293  0.6158 -0.6040
   69bbb     H3 2045   3.324   8.662   7.867 -1.1465 -1.4294 -0.1344
   69bbb     H4 2046   3.203   8.603   7.752  0.7485 -0.7797 -0.2246
   69bbb     C3 2047   3.373   8.425   7.788  0.9934  0.3922 -0.3283
   69bbb     H5 2048   3.429   8.341   7.745  1.4201  0.0027  0.9340
   69bbb     H6 2049   3.269   8.394   7.790  1.2050 -0.3341 -0.2670
   69bbb     C4 2050   3.431   8.441   7.931 -0.2543 -0.5769  0.3060
   69bbb     H7 2051   3.396   8.528   7.987  1.0804  1.1643 -1.4304
   69bbb     H8 2052   3.536   8.471   7.919 -0.5287 -0.2134 -1.3597
   69bbb     C5 2053   3.388   8.601   7.453 -0.6327 -0.3992 -0.0678
   69bbb     H9 2054   3.478   8.652   7.489  1.1013 -1.8794 -2.0372
   69bbb    H10 2055   3.324   8.681   7.414  1.1004  0.4689 -1.2629
   69bbb     C6 2056   3.289   8.800   7.705 -0.3661  0.7438  0.8294
   69bbb    H11 2057   3.207   8.807   7.633  0.3507  1.2326  0.0487
   69bbb    H12 2058   3.377   8.819   7.643 -2.2856  1.1522 -1.9397
   69bbb     C7 2059   3.424   8.305   8.020 -0.3696  0.0090  0.0409
   69bbb    H13 2060   3.491   8.327   8.105  0.0214 -0.9374 -0.0129
   69bbb    H14 2061   3.457   8.220   7.960 -0.7279 -0.4313  0.4572
   69bbb     C8 2062   3.265   8.899   7.818  0.6939 -0.2390 -0.2733
   69bbb    H15 2063   3.202   8.867   7.902  2.3547  2.2439  2.0910
   69bbb    H16 2064   3.358   8.928   7.869  0.2682 -0.8099  0.8729
   69bbb     C9 2065   3.434   8.505   7.340  0.3436  0.0969  0.2517
   69bbb    H17 2066   3.506   8.437   7.387  1.2665  2.5738  2.7279
   69bbb    H18 2067   3.489   8.567   7.269 -0.3842  0.8677  0.3487
   69bbb     O1 2068   3.287   8.276   8.054 -0.1314  0.0487 -0.5854
   69bbb    H19 2069   3.477   8.592   7.684 -1.1962  1.3417 -2.1492
   70bbb     N1 2070   2.709   8.108   7.659  0.3119 -0.5444 -0.7986
   70bbb     C1 2071   2.612   7.995   7.654 -0.2552  0.7682  0.2966
   70bbb     H1 2072   2.556   7.990   7.747 -0.0002  0.4320  0.4317
   70bbb     H2 2073   2.678   7.909   7.644 -1.5846 -0.1889 -0.5584
   70bbb     C2 2074   2.685   8.197   7.781  0.3900 -0.5356  0.8627
   70bbb     H3 2075   2.736   8.158   7.870  2.4993  0.4236  0.1545
   70bbb     H4 2076   2.581   8.188   7.811 -0.2625  2.2582 -0.2664
   70bbb     C3 2077   2.851   8.050   7.688  0.3023 -0.2379  0.1956
   70bbb     H5 2078   2.846   7.950   7.730  1.3112 -0.8470 -1.0739
   70bbb     H6 2079   2.897   8.118   7.759  2.3334  0.4873 -1.6964
   70bbb     C4 2080   2.951   8.044   7.571 -0.2452  0.1362  0.1204
   70bbb     H7 2081   2.971   8.149   7.547  1.3968  0.1333  1.2763
   70bbb     H8 2082   2.898   8.010   7.482  0.4801  0.4207 -0.4315
   70bbb     C5 2083   2.513   7.990   7.536  0.0215 -0.1797  0.0006
   70bbb     H9 2084   2.565   7.999   7.440  0.5667  2.8863  0.4857
   70bbb    H10 2085   2.432   8.064   7.538  0.5794  0.6668 -3.0813
   70bbb     C6 2086   2.712   8.352   7.757  0.0571 -0.3178  0.1402
   70bbb    H11 2087   2.820   8.372   7.745  0.0917 -0.3660  0.3733
   70bbb    H12 2088   2.673   8.409   7.841 -0.7185 -1.1446  0.3569
   70bbb     C7 2089   3.082   7.956   7.598  0.5167 -0.1162 -0.4253
   70bbb    H13 2090   3.151   7.968   7.514 -0.2793 -1.0710 -1.2496
   70bbb    H14 2091   3.032   7.860   7.614  1.2641 -0.2582  1.2435
   70bbb     C8 2092   2.651   8.410   7.631 -0.4269 -0.0317  0.6203
   70bbb    H15 2093   2.653   8.520   7.638 -0.0779  0.0829 -0.8561
   70bbb    H16 2094   2.700   8.375   7.539 -0.5717 -1.7922  1.1810
   70bbb     C9 2095   2.463   7.845   7.543 -0.7399 -1.0164  0.0753
   70bbb    H17 2096   2.370   7.842   7.485 -0.2960 -2.2608 -0.6179
   70bbb    H18 2097   2.440   7.817   7.647  3.1946 -1.7937  0.9101
   70bbb     O1 2098   3.153   8.002   7.721  0.2416  0.5469  0.0550
   70bbb    H19 2099   2.695   8.168   7.576  0.1572 -1.5869 -1.5455
   71bbb     N1 2100   1.825   6.036  11.382 -0.4426  0.4574 -0.7863
   71bbb     C1 2101   1.789   6.182  11.391 -0.4697 -0.1201 -0.1680
   71bbb     H1 2102   1.680   6.186  11.392 -0.4903 -0.6231  0.8426
   71bbb     H2 2103   1.833   6.232  11.304  2.0238 -1.0071  0.4935
   71bbb     C2 2104   1.749   5.971  11.267  0.8786  0.0128 -0.1951
   71bbb     H3 2105   1.798   5.881  11.230  1.4537  0.8242 -1.4984
   71bbb     H4 2106   1.745   6.051  11.193  0.6967  1.4026  1.2667
   71bbb     C3 2107   1.978   6.026  11.359  0.4802 -0.2690 -0.4487
   71bbb     H5 2108   1.999   5.924  11.390 -0.5374 -0.1556  0.7501
   71bbb     H6 2109   2.022   6.091  11.435 -2.3919 -0.4288  1.5557
   71bbb     C4 2110   2.039   6.066  11.226  0.5200  0.3738 -0.0271
   71bbb     H7 2111   1.982   6.154  11.193  0.8355  1.1436  1.3607
   71bbb     H8 2112   2.042   5.990  11.148 -0.7164  0.2212  0.0591
   71bbb     C5 2113   1.825   6.252  11.528  0.0364 -0.2659  0.5673
   71bbb     H9 2114   1.934   6.246  11.542  0.0163 -0.2314  0.7428
   71bbb    H10 2115   1.787   6.197  11.614 -1.5867  0.1355  0.1420
   71bbb     C6 2116   1.609   5.937  11.316  0.7113  0.8355 -0.3457
   71bbb    H11 2117   1.551   5.898  11.232  0.1199 -2.0709  1.2950
   71bbb    H12 2118   1.564   6.029  11.356  1.9662  1.9387 -1.3592
   71bbb     C7 2119   2.185   6.100  11.251 -0.2165 -0.6023  0.0265
   71bbb    H13 2120   2.185   6.166  11.339  1.2976 -0.6014  0.0527
   71bbb    H14 2121   2.224   6.155  11.165  2.9234  1.1003  2.2925
   71bbb     C8 2122   1.604   5.835  11.430  0.0903 -0.6660 -0.7811
   71bbb    H15 2123   1.498   5.812  11.445  0.7483 -3.1559  0.6087
   71bbb    H16 2124   1.651   5.740  11.401 -1.3790 -1.7067  0.1214
   71bbb     C9 2125   1.766   6.398  11.546  0.0449 -0.0359  0.1207
   71bbb    H17 2126   1.658   6.410  11.538  0.3028  2.2583 -0.7729
   71bbb    H18 2127   1.789   6.462  11.460 -3.1684  0.8614 -0.1982
   71bbb     O1 2128   2.269   5.979  11.268 -0.1557 -0.2812 -0.4590
   71bbb    H19 2129   1.793   5.984  11.465 -0.1304 -0.7988 -1.4264
   72bbb     N1 2130   1.428   5.545  11.029  0.0694 -0.0146  0.2826
   72bbb     C1 2131   1.320   5.435  11.025 -0.3950 -0.0358  0.7162
   72bbb     H1 2132   1.230   5.493  11.047  0.8169  2.2175  0.1520
   72bbb     H2 2133   1.332   5.371  11.112 -0.7708 -0.5226  0.4127
   72bbb     C2 2134   1.395   5.644  11.140 -0.2902  0.2889  0.0308
   72bbb     H3 2135   1.475   5.719  11.135 -0.2394  0.3117  1.0090
   72bbb     H4 2136   1.400   5.592  11.236  0.5965 -1.8035 -1.0834
   72bbb     C3 2137   1.571   5.488  11.034  0.0409  0.1883 -0.2066
   72bbb     H5 2138   1.581   5.420  10.949  1.7516 -0.9816  0.8643
   72bbb     H6 2139   1.583   5.423  11.120  0.3997  1.0473  0.4042
   72bbb     C4 2140   1.677   5.603  11.031  0.2095  0.6265 -0.0182
   72bbb     H7 2141   1.671   5.670  11.118  3.5090 -0.3443  1.1257
   72bbb     H8 2142   1.672   5.660  10.937 -0.0818 -0.0647 -0.4302
   72bbb     C5 2143   1.316   5.352  10.893  0.5217  0.4432  0.3530
   72bbb     H9 2144   1.420   5.335  10.863  1.7572  0.3148  4.0978
   72bbb    H10 2145   1.257   5.408  10.820 -1.2928 -0.5904  0.9655
   72bbb     C6 2146   1.259   5.721  11.130 -0.7908  0.7505  0.0203
   72bbb    H11 2147   1.178   5.656  11.166 -0.8803  0.7138 -0.2450
   72bbb    H12 2148   1.241   5.746  11.025  0.4970  1.6075 -0.0116
   72bbb     C7 2149   1.826   5.551  11.040  0.0990 -0.8595  0.2943
   72bbb    H13 2150   1.834   5.485  10.953  0.3803 -1.8072  1.0152
   72bbb    H14 2151   1.839   5.492  11.132 -1.7793  0.3950  1.4520
   72bbb     C8 2152   1.249   5.856  11.207  0.2593  0.5473 -0.2355
   72bbb    H15 2153   1.334   5.919  11.176  1.8711 -1.1967  0.4498
   72bbb    H16 2154   1.161   5.916  11.181 -0.5423  0.1951  1.5199
   72bbb     C9 2155   1.264   5.206  10.919  0.4392  0.7219 -0.0364
   72bbb    H17 2156   1.329   5.162  10.995  0.6888 -0.7377 -1.0584
   72bbb    H18 2157   1.257   5.153  10.823  2.0590  1.4680 -0.6136
   72bbb     O1 2158   1.922   5.654  11.047 -0.5305 -0.1277  0.3136
   72bbb    H19 2159   1.424   5.595  10.940  3.5784 -0.5692 -0.3438
   73bbb     N1 2160   4.053   5.502  11.952  0.4818  0.0962  0.0374
   73bbb     C1 2161   4.092   5.389  12.046  0.2414 -0.3019  0.0743
   73bbb     H1 2162   4.038   5.300  12.013 -1.8457  0.4825  1.2071
   73bbb     H2 2163   4.046   5.422  12.139  2.9834 -1.6663  2.0503
   73bbb     C2 2164   4.104   5.638  11.998  0.3250  0.4889  0.2680
   73bbb     H3 2165   4.082   5.703  11.913 -1.8790 -0.6952 -0.1533
   73bbb     H4 2166   4.213   5.631  11.998  0.3656 -0.0383 -2.3766
   73bbb     C3 2167   4.101   5.480  11.805  0.0224 -0.0083 -0.3979
   73bbb     H5 2168   4.097   5.373  11.787 -0.3677 -0.0147 -0.2991
   73bbb     H6 2169   4.205   5.512  11.799 -0.2179  1.0674  0.7381
   73bbb     C4 2170   4.016   5.542  11.691 -0.3479  0.1207 -0.4916
   73bbb     H7 2171   3.989   5.641  11.729 -0.1114  0.1027 -0.2710
   73bbb     H8 2172   3.928   5.479  11.678 -0.1463 -0.2117 -0.2659
   73bbb     C5 2173   4.245   5.378  12.060 -0.2204  0.1295 -0.8262
   73bbb     H9 2174   4.297   5.474  12.068 -0.5218  0.2770 -0.6194
   73bbb    H10 2175   4.287   5.342  11.965  0.3127 -0.2364 -0.4610
   73bbb     C6 2176   4.046   5.693  12.127 -0.3951  0.2301  0.0133
   73bbb    H11 2177   4.106   5.645  12.206  0.3394  1.8695  0.4914
   73bbb    H12 2178   3.939   5.670  12.133 -0.1364 -1.1516 -0.2433
   73bbb     C7 2179   4.094   5.547  11.565  0.1876  0.4362 -0.1150
   73bbb    H13 2180   4.199   5.573  11.583  0.1965 -0.1369  0.7466
   73bbb    H14 2181   4.040   5.617  11.499  1.6312  0.6541 -1.0862
   73bbb     C8 2182   4.060   5.842  12.139 -0.7396 -0.1702  0.4839
   73bbb    H15 2183   4.015   5.887  12.050 -1.2043 -2.8388 -0.7291
   73bbb    H16 2184   4.015   5.886  12.228 -0.8026  1.0137 -0.1203
   73bbb     C9 2185   4.285   5.282  12.176 -0.0048  0.1864  0.1321
   73bbb    H17 2186   4.225   5.190  12.181 -1.3501  1.0175 -0.0810
   73bbb    H18 2187   4.275   5.333  12.272  0.8981  1.5310 -0.4700
   73bbb     O1 2188   4.090   5.413  11.504  0.2816 -0.1479  0.5694
   73bbb    H19 2189   3.950   5.502  11.948  0.5005  0.3275 -0.6845
   74bbb     N1 2190   3.171   4.889  11.814  0.1967 -1.2905  0.4017
   74bbb     C1 2191   3.246   4.834  11.932 -0.2696 -0.0742  0.5065
   74bbb     H1 2192   3.179   4.823  12.018 -3.7658  0.1008 -1.9578
   74bbb     H2 2193   3.322   4.909  11.954  1.4971 -0.8302 -2.4756
   74bbb     C2 2194   3.074   4.998  11.868 -0.0869  0.3230  0.5123
   74bbb     H3 2195   3.119   5.097  11.874 -0.0378  0.5595 -2.2825
   74bbb     H4 2196   3.035   4.957  11.961 -1.2783 -0.4500 -0.2983
   74bbb     C3 2197   3.278   4.948  11.720 -0.5518 -0.2965  1.0292
   74bbb     H5 2198   3.357   4.873  11.710 -2.5605 -2.4996  0.8826
   74bbb     H6 2199   3.317   5.039  11.765 -0.7035  0.8739 -1.0851
   74bbb     C4 2200   3.236   4.979  11.572  0.8373  0.0806  0.1829
   74bbb     H7 2201   3.173   5.069  11.575  0.5145 -0.1545  0.5330
   74bbb     H8 2202   3.172   4.900  11.532  3.0128 -1.5184 -0.3343
   74bbb     C5 2203   3.324   4.701  11.900 -0.6084 -0.1493 -0.7571
   74bbb     H9 2204   3.396   4.712  11.817 -1.1173  1.3467 -1.0320
   74bbb    H10 2205   3.259   4.625  11.854  1.3553 -1.9958 -0.6238
   74bbb     C6 2206   2.949   5.020  11.783  1.2022 -0.9434 -0.4104
   74bbb    H11 2207   2.910   4.926  11.743  0.8672 -0.7544 -0.5405
   74bbb    H12 2208   2.975   5.084  11.697  1.3947 -0.9291 -0.3421
   74bbb     C7 2209   3.351   4.995  11.467 -0.4432 -0.1109  0.3312
   74bbb    H13 2210   3.305   5.016  11.370  0.7815 -4.2836 -1.3930
   74bbb    H14 2211   3.403   4.899  11.462  1.3962  0.7638  1.7075
   74bbb     C8 2212   2.832   5.085  11.858  0.8441 -0.6375 -0.2208
   74bbb    H15 2213   2.746   5.105  11.792  1.2791  0.7912 -0.3702
   74bbb    H16 2214   2.792   5.010  11.928  2.5324 -0.9036  0.5018
   74bbb     C9 2215   3.408   4.651  12.019 -0.0715  0.0795  0.0516
   74bbb    H17 2216   3.515   4.676  12.019  0.5273 -2.1501 -1.4376
   74bbb    H18 2217   3.409   4.545  11.990 -0.9262  0.7030 -2.4926
   74bbb     O1 2218   3.453   5.099  11.496  0.1386 -0.6630  0.2058
   74bbb    H19 2219   3.107   4.820  11.772 -0.1535  0.1204 -1.5281
   75bbb     N1 2220   4.653   7.461  12.041 -0.3304  0.3689  0.4573
   75bbb     C1 2221   4.706   7.562  11.942 -0.2881  0.2518  1.4859
   75bbb     H1 2222   4.640   7.646  11.961 -0.2293  0.5914  0.2878
   75bbb     H2 2223   4.702   7.523  11.840  0.7347 -0.3131  1.6506
   75bbb     C2 2224   4.573   7.527  12.154 -0.0608 -0.2676 -0.0324
   75bbb     H3 2225   4.482   7.564  12.106 -0.1044  0.3077  0.4945
   75bbb     H4 2226   4.632   7.610  12.192 -0.0158  0.0404 -0.7580
   75bbb     C3 2227   4.567   7.369  11.963  0.0889 -0.4043 -0.6434
   75bbb     H5 2228   4.507   7.435  11.900  1.7979 -0.0681 -1.9845
   75bbb     H6 2229   4.496   7.328  12.035  0.1828  1.6047  0.6614
   75bbb     C4 2230   4.642   7.269  11.869  0.4688 -0.7900  1.0705
   75bbb     H7 2231   4.714   7.203  11.920  0.5899  1.0271  3.3988
   75bbb     H8 2232   4.703   7.323  11.796 -1.7212  1.6029  0.8843
   75bbb     C5 2233   4.852   7.617  11.971 -0.1490 -0.6130 -0.6887
   75bbb     H9 2234   4.869   7.647  12.075 -1.6221  1.6459 -1.0200
   75bbb    H10 2235   4.878   7.703  11.908  1.6061  0.1350  0.9698
   75bbb     C6 2236   4.544   7.437  12.273  0.3087 -1.4154 -0.3552
   75bbb    H11 2237   4.640   7.410  12.319  1.6532  4.1134  0.7494
   75bbb    H12 2238   4.478   7.355  12.242 -1.4100 -0.3437  0.3636
   75bbb     C7 2239   4.529   7.191  11.790 -0.4411  0.0239 -0.3463
   75bbb    H13 2240   4.487   7.109  11.851 -0.2542  1.5862  2.0295
   75bbb    H14 2241   4.572   7.138  11.705 -0.4170  3.3132 -2.5374
   75bbb     C8 2242   4.459   7.519  12.375  0.1805  0.3879 -0.0498
   75bbb    H15 2243   4.443   7.452  12.461  0.2351  2.0776  1.3286
   75bbb    H16 2244   4.506   7.612  12.410 -0.4904 -0.2000  2.6028
   75bbb     C9 2245   4.958   7.507  11.939  0.5484  0.1441 -0.3979
   75bbb    H17 2246   5.063   7.539  11.938  1.3044 -2.1261 -0.0301
   75bbb    H18 2247   4.929   7.465  11.842  0.0286 -1.0378  0.2403
   75bbb     O1 2248   4.428   7.279  11.748  0.0106 -0.0676  0.0778
   75bbb    H19 2249   4.739   7.418  12.078  0.8303  1.7732 -0.5005
   76bbb     N1 2250   4.688   7.652  11.109  0.0532 -0.3806  0.2744
   76bbb     C1 2251   4.802   7.748  11.100  0.1026  0.4033 -0.5154
   76bbb     H1 2252   4.866   7.709  11.021  0.9382 -0.3492  0.5024
   76bbb     H2 2253   4.859   7.746  11.194  0.8474 -1.6159 -0.9733
   76bbb     C2 2254   4.752   7.525  11.141  0.0318  0.1784  0.3706
   76bbb     H3 2255   4.663   7.468  11.170 -0.2337 -0.1710 -1.0504
   76bbb     H4 2256   4.825   7.526  11.222  0.3348  0.7932  0.0873
   76bbb     C3 2257   4.593   7.697  11.218 -0.3907 -0.2502  0.8832
   76bbb     H5 2258   4.544   7.787  11.181 -0.5962 -0.1350  1.4215
   76bbb     H6 2259   4.649   7.726  11.307  2.5826 -0.3897 -0.8291
   76bbb     C4 2260   4.466   7.608  11.262 -0.1806 -0.2115 -0.1203
   76bbb     H7 2261   4.496   7.521  11.322  0.4364 -0.4769 -0.8011
   76bbb     H8 2262   4.422   7.564  11.172  1.6055 -0.2929 -0.9930
   76bbb     C5 2263   4.768   7.893  11.065 -0.0534  0.0387 -0.2266
   76bbb     H9 2264   4.712   7.935  11.149 -0.4506 -0.0697 -0.4357
   76bbb    H10 2265   4.695   7.893  10.983  2.0233  0.8582 -2.1828
   76bbb     C6 2266   4.818   7.458  11.018  0.1436 -0.0656  0.6056
   76bbb    H11 2267   4.858   7.359  11.045 -1.2862 -0.7905  0.2019
   76bbb    H12 2268   4.904   7.509  10.974 -0.6123  1.7368  1.1282
   76bbb     C7 2269   4.368   7.686  11.351  0.0398 -0.3280 -0.1970
   76bbb    H13 2270   4.369   7.790  11.315  2.8560  0.1001  0.8848
   76bbb    H14 2271   4.402   7.701  11.454  1.5225 -0.0662 -0.7086
   76bbb     C8 2272   4.721   7.445  10.901  0.0536 -0.2668  0.6668
   76bbb    H15 2273   4.771   7.382  10.827 -1.3040 -0.6655  0.0522
   76bbb    H16 2274   4.635   7.382  10.926 -0.6358  0.8662  1.2353
   76bbb     C9 2275   4.896   7.975  11.034  0.7612 -0.6482  0.5738
   76bbb    H17 2276   4.952   8.005  11.124  0.1772 -0.2860  0.8165
   76bbb    H18 2277   4.870   8.067  10.982 -0.1937 -0.2238  1.7457
   76bbb     O1 2278   4.232   7.635  11.345  0.2371  0.0507  0.3551
   76bbb    H19 2279   4.643   7.646  11.017  0.6922  1.4075 -0.1843
   77bbb     N1 2280   3.312   6.680  12.242 -0.4442 -0.8352 -0.1243
   77bbb     C1 2281   3.282   6.595  12.360 -0.4619 -0.7953 -0.0296
   77bbb     H1 2282   3.316   6.653  12.446  0.3576 -1.2353 -0.0441
   77bbb     H2 2283   3.352   6.512  12.348  1.3316  0.9165 -2.4079
   77bbb     C2 2284   3.445   6.754  12.260  0.4861  0.0450 -0.4049
   77bbb     H3 2285   3.501   6.762  12.166  0.5856 -1.4618 -0.4982
   77bbb     H4 2286   3.514   6.697  12.322  0.9184  0.7745 -0.2084
   77bbb     C3 2287   3.316   6.603  12.112  0.0184 -0.1985  1.2623
   77bbb     H5 2288   3.229   6.539  12.101 -0.1598  0.2256 -0.0976
   77bbb     H6 2289   3.402   6.535  12.115 -1.5061 -2.8718 -3.6344
   77bbb     C4 2290   3.324   6.669  11.974  0.3891 -0.8794  0.2409
   77bbb     H7 2291   3.402   6.746  11.970 -0.0507 -0.4807 -1.4489
   77bbb     H8 2292   3.232   6.725  11.951  0.5640 -0.7033 -0.0407
   77bbb     C5 2293   3.138   6.551  12.377 -0.0760 -0.5521 -0.1102
   77bbb     H9 2294   3.132   6.475  12.456 -2.8096  1.7934  2.1434
   77bbb    H10 2295   3.097   6.512  12.283  1.6102 -1.0390 -0.6920
   77bbb     C6 2296   3.421   6.898  12.318 -0.7928 -0.3473  0.4331
   77bbb    H11 2297   3.344   6.951  12.261  0.2836 -0.0606 -0.8120
   77bbb    H12 2298   3.515   6.952  12.303  0.1003 -2.5099 -3.0377
   77bbb     C7 2299   3.351   6.567  11.857 -0.0145  0.0741  0.4975
   77bbb    H13 2300   3.264   6.501  11.863  0.0103  0.1465  2.4338
   77bbb    H14 2301   3.443   6.509  11.870 -0.5387 -0.6669  0.9341
   77bbb     C8 2302   3.382   6.891  12.461 -0.1297  0.3674  0.2045
   77bbb    H15 2303   3.396   6.991  12.504  1.2784 -0.3607  1.5314
   77bbb    H16 2304   3.276   6.864  12.467 -0.0797  0.4437  1.9411
   77bbb     C9 2305   3.069   6.683  12.424 -0.0092 -0.1789 -0.3660
   77bbb    H17 2306   2.962   6.658  12.412  0.6854 -3.7323 -0.3389
   77bbb    H18 2307   3.094   6.767  12.359  1.8224  2.1967  3.1063
   77bbb     O1 2308   3.343   6.637  11.735  0.3850  0.0181 -0.4375
   77bbb    H19 2309   3.235   6.749  12.238  1.2440  1.0810 -2.9611
   78bbb     N1 2310   2.654   7.085  10.899 -0.2998 -0.5629 -0.3306
   78bbb     C1 2311   2.547   7.045  10.802  0.2807 -0.2789 -0.6367
   78bbb     H1 2312   2.509   7.136  10.755 -2.5725 -1.5145 -0.9557
   78bbb     H2 2313   2.466   6.999  10.859 -0.0555  2.5119  1.3134
   78bbb     C2 2314   2.624   7.217  10.964 -0.4108  0.6716  0.3612
   78bbb     H3 2315   2.715   7.242  11.020  0.4185  0.6990 -0.9496
   78bbb     H4 2316   2.534   7.198  11.022 -0.6424  1.4985  0.2925
   78bbb     C3 2317   2.661   6.995  11.018 -0.1398 -1.0284  0.0966
   78bbb     H5 2318   2.558   6.981  11.052 -0.1668 -1.7972 -0.2821
   78bbb     H6 2319   2.722   7.047  11.091  1.1436 -2.6247  0.2285
   78bbb     C4 2320   2.723   6.852  10.989 -0.3995  0.0021  0.2678
   78bbb     H7 2321   2.828   6.849  10.960 -0.6786  0.5700 -0.8522
   78bbb     H8 2322   2.662   6.799  10.915  1.0958 -0.0984 -0.9297
   78bbb     C5 2323   2.594   6.959  10.685  0.4382 -0.5248  0.6514
   78bbb     H9 2324   2.505   6.913  10.640 -1.5729  1.0709  2.7681
   78bbb    H10 2325   2.649   6.866  10.708  0.9514 -0.0584  1.3400
   78bbb     C6 2326   2.601   7.333  10.867  0.2661  0.0674  0.8615
   78bbb    H11 2327   2.496   7.362  10.876 -1.3711 -4.5304 -0.3770
   78bbb    H12 2328   2.601   7.292  10.765 -0.3962  2.2738 -0.0782
   78bbb     C7 2329   2.722   6.764  11.120 -0.5943  0.2055  0.0723
   78bbb    H13 2330   2.782   6.674  11.101  0.6322  1.0145  0.0430
   78bbb    H14 2331   2.619   6.739  11.149 -0.1861 -0.8005  0.7229
   78bbb     C8 2332   2.692   7.453  10.882  0.1827 -0.4278  0.3055
   78bbb    H15 2333   2.794   7.420  10.860 -0.3298 -1.5255 -0.5665
   78bbb    H16 2334   2.664   7.526  10.806  0.2278 -0.2967  0.4144
   78bbb     C9 2335   2.687   7.042  10.585  1.3941  0.5086 -0.1324
   78bbb    H17 2336   2.726   6.977  10.505  0.5305  1.0799 -1.0379
   78bbb    H18 2337   2.770   7.092  10.636  2.7492 -1.6667 -0.0529
   78bbb     O1 2338   2.789   6.838  11.230 -0.2465 -0.0332 -0.4909
   78bbb    H19 2339   2.746   7.094  10.854  0.1449 -3.8374 -0.2894
   79bbb     N1 2340   5.837   8.123   6.852  0.0620 -0.8491 -0.4060
   79bbb     C1 2341   5.735   8.087   6.741  0.4943  0.5832  0.6904
   79bbb     H1 2342   5.651   8.147   6.775 -1.3113 -2.0322  1.1458
   79bbb     H2 2343   5.720   7.981   6.761  0.3541  0.0853 -1.8049
   79bbb     C2 2344   5.874   8.267   6.847 -0.2615 -0.0645  0.2897
   79bbb     H3 2345   5.783   8.328   6.849  0.8230  1.6033  0.7388
   79bbb     H4 2346   5.931   8.281   6.755  2.1767  0.5838  1.8386
   79bbb     C3 2347   5.775   8.084   6.982 -0.4377  0.6003  0.6307
   79bbb     H5 2348   5.673   8.121   6.984 -0.7994 -0.2960 -0.2461
   79bbb     H6 2349   5.832   8.134   7.060  2.4322  0.3812 -1.1601
   79bbb     C4 2350   5.780   7.934   7.026 -0.3455 -0.2246  0.6385
   79bbb     H7 2351   5.880   7.892   7.007 -1.6752 -2.6901 -1.4969
   79bbb     H8 2352   5.720   7.870   6.961 -0.1058 -0.6019  0.7868
   79bbb     C5 2353   5.786   8.118   6.597  1.1501  0.8549 -0.1776
   79bbb     H9 2354   5.882   8.066   6.581  0.5582 -0.4164  0.2720
   79bbb    H10 2355   5.811   8.225   6.589  1.1858  0.8541 -0.0724
   79bbb     C6 2356   5.959   8.318   6.959  0.1485 -0.3124 -0.1352
   79bbb    H11 2357   6.045   8.251   6.966  1.2919  0.7312 -2.7339
   79bbb    H12 2358   5.899   8.328   7.050  0.0262  1.8770 -0.3961
   79bbb     C7 2359   5.734   7.903   7.171 -0.5959 -0.3646 -0.2115
   79bbb    H13 2360   5.726   7.795   7.187  0.0994 -0.8090 -2.5415
   79bbb    H14 2361   5.634   7.946   7.185 -0.2522 -0.1183  1.8573
   79bbb     C8 2362   6.017   8.457   6.928  0.7148 -0.3896 -0.0120
   79bbb    H15 2363   6.077   8.488   7.015  0.4294  1.0852 -0.3076
   79bbb    H16 2364   6.094   8.449   6.850  0.6512 -3.0276  0.1304
   79bbb     C9 2365   5.686   8.063   6.493 -0.5198 -0.2222  1.0967
   79bbb    H17 2366   5.661   7.959   6.514 -1.3374 -0.4311 -0.7169
   79bbb    H18 2367   5.747   8.060   6.402 -2.8950  0.5011 -0.6385
   79bbb     O1 2368   5.832   7.958   7.268  0.2164 -0.0833  0.2205
   79bbb    H19 2369   5.926   8.073   6.844 -0.6955 -1.9989 -2.1462
   80bbb     N1 2370   6.478   7.891   7.428 -0.9022 -0.4461 -0.3181
   80bbb     C1 2371   6.501   7.969   7.300  0.2327  0.8140  0.1927
   80bbb     H1 2372   6.407   8.022   7.281  0.6033  0.9160 -1.5704
   80bbb     H2 2373   6.497   7.899   7.216 -2.0915 -1.3103  1.9127
   80bbb     C2 2374   6.414   7.986   7.526  0.2047 -0.5447  0.2736
   80bbb     H3 2375   6.457   8.084   7.508 -1.2484 -0.0893 -0.9572
   80bbb     H4 2376   6.439   7.961   7.629 -0.2636  1.2259  0.8348
   80bbb     C3 2377   6.396   7.767   7.380  0.4824 -0.4396 -0.2940
   80bbb     H5 2378   6.423   7.745   7.276 -0.4769  0.1101 -0.6732
   80bbb     H6 2379   6.297   7.809   7.364  0.2544 -0.4919  0.9248
   80bbb     C4 2380   6.393   7.642   7.465 -0.7490 -0.5631 -0.2153
   80bbb     H7 2381   6.350   7.670   7.562 -2.1225  0.2981 -1.0346
   80bbb     H8 2382   6.493   7.604   7.487 -2.2309 -2.6058  4.2744
   80bbb     C5 2383   6.624   8.066   7.299  0.3539  0.3196 -0.0647
   80bbb     H9 2384   6.625   8.136   7.384  0.8856  0.6975 -0.3813
   80bbb    H10 2385   6.623   8.133   7.213 -0.3884 -0.1776 -0.4616
   80bbb     C6 2386   6.264   8.010   7.507 -0.1071  0.3531  0.5836
   80bbb    H11 2387   6.205   7.922   7.534  1.3696 -1.4979 -1.7407
   80bbb    H12 2388   6.233   8.045   7.407  2.6562 -0.3711 -0.6291
   80bbb     C7 2389   6.312   7.526   7.395 -0.5771  0.4210 -0.6763
   80bbb    H13 2390   6.311   7.441   7.465  1.3234 -0.1876 -1.3432
   80bbb    H14 2391   6.369   7.477   7.316  0.2295 -2.0448  1.3042
   80bbb     C8 2392   6.230   8.120   7.600 -0.1520  0.3357 -0.5417
   80bbb    H15 2393   6.123   8.108   7.618 -0.1378  0.6280 -0.2463
   80bbb    H16 2394   6.278   8.108   7.698  1.5976  1.4512 -1.1994
   80bbb     C9 2395   6.761   7.991   7.312  0.0017 -0.3576  0.4953
   80bbb    H17 2396   6.773   7.955   7.414  0.8845 -1.3848  0.0529
   80bbb    H18 2397   6.844   8.061   7.296  1.4887 -1.8768  1.2673
   80bbb     O1 2398   6.184   7.572   7.356  0.1108  0.3237  0.1381
   80bbb    H19 2399   6.571   7.868   7.466  0.0540  3.5895  0.3101
   81bbb     N1 2400   4.921   7.426   9.142  0.2177  0.1452 -0.0626
   81bbb     C1 2401   4.854   7.551   9.088 -0.0367 -0.2128 -0.1764
   81bbb     H1 2402   4.789   7.510   9.011  0.1952 -0.5351 -0.2007
   81bbb     H2 2403   4.929   7.617   9.043  1.5532 -1.3532  0.6933
   81bbb     C2 2404   4.821   7.334   9.220  0.0307  0.2785  0.2035
   81bbb     H3 2405   4.780   7.377   9.312 -0.4289  1.7663 -0.6635
   81bbb     H4 2406   4.877   7.248   9.257  1.0048  2.1118  3.4087
   81bbb     C3 2407   4.989   7.345   9.035 -0.1060  0.0143 -0.3707
   81bbb     H5 2408   4.931   7.325   8.946  1.5725 -1.3225 -1.2265
   81bbb     H6 2409   5.020   7.254   9.087 -1.5179 -2.1568 -3.0579
   81bbb     C4 2410   5.120   7.404   8.986  0.3417  0.3425 -1.2343
   81bbb     H7 2411   5.181   7.434   9.072 -0.6200 -1.2343  0.0621
   81bbb     H8 2412   5.099   7.499   8.934 -1.0358  0.1774 -1.0283
   81bbb     C5 2413   4.774   7.619   9.197 -0.2611 -0.2244  0.2469
   81bbb     H9 2414   4.835   7.643   9.285  1.7562 -0.3519 -1.0610
   81bbb    H10 2415   4.694   7.552   9.232 -1.3216  0.8304 -0.0856
   81bbb     C6 2416   4.697   7.282   9.141  0.1619  0.0072 -0.3497
   81bbb    H11 2417   4.743   7.238   9.052  1.3591 -0.8367  0.6517
   81bbb    H12 2418   4.629   7.364   9.115 -0.0863 -0.1358 -0.1527
   81bbb     C7 2419   5.194   7.301   8.904 -0.1453 -0.0246  0.7405
   81bbb    H13 2420   5.181   7.202   8.950  3.5363 -1.9852 -1.8908
   81bbb    H14 2421   5.301   7.318   8.887 -0.5075  1.5307 -0.1407
   81bbb     C8 2422   4.629   7.174   9.229 -0.3078 -0.0760  0.0346
   81bbb    H15 2423   4.544   7.134   9.174 -1.6637  1.8409  0.6399
   81bbb    H16 2424   4.695   7.090   9.253 -2.0916 -1.4247  0.4048
   81bbb     C9 2425   4.710   7.748   9.142  1.0245 -0.2804  0.1106
   81bbb    H17 2426   4.651   7.797   9.221 -1.5666  0.1522 -1.9609
   81bbb    H18 2427   4.639   7.717   9.065  0.2383  0.4599  0.5194
   81bbb     O1 2428   5.134   7.298   8.770  0.4609 -0.6760 -0.2613
   81bbb    H19 2429   4.999   7.461   9.200  2.1134 -2.0061 -1.1729
   82bbb     N1 2430   4.665   7.365   7.872 -0.5231  0.2825  0.7119
   82bbb     C1 2431   4.710   7.220   7.899  0.4569  0.4971 -0.3533
   82bbb     H1 2432   4.636   7.169   7.961  2.4241 -0.5992  1.2222
   82bbb     H2 2433   4.804   7.224   7.954 -0.2355  1.2008  0.8155
   82bbb     C2 2434   4.522   7.374   7.812 -0.2897  0.3574  0.5691
   82bbb     H3 2435   4.455   7.400   7.894 -0.7622  0.6297  0.1025
   82bbb     H4 2436   4.487   7.276   7.782 -1.6550  0.6513  1.1037
   82bbb     C3 2437   4.677   7.458   7.989 -0.3487  0.2327 -0.0576
   82bbb     H5 2438   4.630   7.550   7.954  0.4745  0.7008  0.0587
   82bbb     H6 2439   4.780   7.483   8.015  0.3335 -0.8655 -1.5977
   82bbb     C4 2440   4.619   7.413   8.122 -0.0203  0.3097  0.5169
   82bbb     H7 2441   4.676   7.321   8.140 -1.3360 -0.8827 -1.0701
   82bbb     H8 2442   4.519   7.370   8.110 -0.1180  0.4755  0.7096
   82bbb     C5 2443   4.739   7.144   7.764 -0.2483  0.1911  0.4950
   82bbb     H9 2444   4.827   7.188   7.715  0.2920 -0.4242  0.8814
   82bbb    H10 2445   4.652   7.151   7.698  0.6645 -1.1708 -0.9427
   82bbb     C6 2446   4.515   7.484   7.699  0.5636  0.0127 -0.0560
   82bbb    H11 2447   4.526   7.580   7.750  2.0738  0.0627 -0.4273
   82bbb    H12 2448   4.413   7.487   7.658 -0.1106 -1.0810  1.4450
   82bbb     C7 2449   4.631   7.527   8.235 -0.3611  0.7612  0.5074
   82bbb    H13 2450   4.606   7.473   8.328  1.4652 -0.8240  0.1573
   82bbb    H14 2451   4.554   7.600   8.211  0.3446  0.9378 -1.3774
   82bbb     C8 2452   4.610   7.465   7.585  0.2046  0.2533  0.2989
   82bbb    H15 2453   4.606   7.364   7.542  0.5938  0.5154 -0.3862
   82bbb    H16 2454   4.589   7.543   7.511 -1.9437  1.7695  2.3584
   82bbb     C9 2455   4.764   6.991   7.795 -0.5754 -0.1842 -0.5192
   82bbb    H17 2456   4.676   6.942   7.839 -0.2642  0.4797  0.9055
   82bbb    H18 2457   4.851   6.979   7.860 -1.6342 -1.1076  0.7785
   82bbb     O1 2458   4.770   7.574   8.246  0.2901  0.5213  0.3438
   82bbb    H19 2459   4.730   7.407   7.804 -0.6620  1.3750  1.2449
   83bbb     N1 2460   7.166   8.139   9.119  0.0106 -0.6298  0.0334
   83bbb     C1 2461   7.257   8.049   9.043 -0.5521 -0.5068 -0.5546
   83bbb     H1 2462   7.358   8.092   9.045 -1.1221  0.9493 -1.3024
   83bbb     H2 2463   7.223   8.056   8.940  0.9264 -1.2923 -1.1283
   83bbb     C2 2464   7.164   8.280   9.064  0.0417 -0.4995 -0.5221
   83bbb     H3 2465   7.069   8.326   9.093 -0.2041  0.0466 -2.0578
   83bbb     H4 2466   7.168   8.283   8.955 -1.4715  0.5294 -0.5769
   83bbb     C3 2467   7.027   8.084   9.110  0.1444 -0.2747  0.3235
   83bbb     H5 2468   7.039   7.977   9.128  0.6013 -0.1020  1.0849
   83bbb     H6 2469   6.981   8.098   9.011  0.0651 -0.7238  0.2973
   83bbb     C4 2470   6.936   8.130   9.223  0.7020 -0.6014 -0.1650
   83bbb     H7 2471   6.888   8.221   9.184 -0.6924  0.3530  3.3309
   83bbb     H8 2472   6.997   8.156   9.311 -0.0969 -2.9390  1.1783
   83bbb     C5 2473   7.275   7.902   9.092 -0.0488 -0.2574 -0.2982
   83bbb     H9 2474   7.183   7.841   9.096  0.3940 -0.9028  0.2596
   83bbb    H10 2475   7.299   7.915   9.198  0.3369  0.9434 -0.5160
   83bbb     C6 2476   7.280   8.363   9.122  0.5959 -0.1853  0.5140
   83bbb    H11 2477   7.377   8.313   9.111  0.6468  0.2026 -1.0860
   83bbb    H12 2478   7.257   8.372   9.229 -0.8785  1.6062  0.0999
   83bbb     C7 2479   6.820   8.032   9.269  0.2537 -0.0265 -0.0893
   83bbb    H13 2480   6.733   8.050   9.206 -0.7589  2.7091  1.8699
   83bbb    H14 2481   6.796   8.055   9.374  0.3820  1.9827 -0.4665
   83bbb     C8 2482   7.292   8.499   9.056  0.2077  0.4301 -0.6592
   83bbb    H15 2483   7.195   8.550   9.059 -0.8549 -1.3995  3.3780
   83bbb    H16 2484   7.373   8.560   9.098 -0.0751  1.0271 -0.9718
   83bbb     C9 2485   7.376   7.814   9.010 -0.0722 -0.4620 -0.3088
   83bbb    H17 2486   7.345   7.812   8.904 -2.5262 -0.9979  0.3515
   83bbb    H18 2487   7.382   7.709   9.042  0.1643 -0.2740  0.2617
   83bbb     O1 2488   6.844   7.888   9.260 -0.5919  0.0756  0.5110
   83bbb    H19 2489   7.197   8.135   9.218  0.3591  0.0835 -0.0372
   84bbb     N1 2490   7.353   7.144   9.446 -1.2265 -0.5941  0.0372
   84bbb     C1 2491   7.442   7.217   9.548  0.2505 -0.4867 -0.5026
   84bbb     H1 2492   7.526   7.254   9.489 -0.1768  1.0615 -0.1756
   84bbb     H2 2493   7.485   7.141   9.614  0.2946 -0.3961 -0.4273
   84bbb     C2 2494   7.235   7.093   9.519  0.4702  0.0315 -0.5790
   84bbb     H3 2495   7.157   7.067   9.448 -0.1919  0.7790 -0.1280
   84bbb     H4 2496   7.188   7.171   9.578 -3.3404 -1.2696 -1.5915
   84bbb     C3 2497   7.310   7.229   9.331 -0.4172  0.5204 -0.3193
   84bbb     H5 2498   7.398   7.286   9.299  2.0430 -2.2099  1.1051
   84bbb     H6 2499   7.223   7.294   9.344 -0.3289  0.3612  1.2213
   84bbb     C4 2500   7.258   7.142   9.215 -0.9014  0.2769 -0.8010
   84bbb     H7 2501   7.238   7.043   9.258 -1.2155  1.3358  1.6969
   84bbb     H8 2502   7.335   7.134   9.138 -1.9437 -0.9532 -1.7449
   84bbb     C5 2503   7.386   7.335   9.621  0.0123 -0.3922 -0.3837
   84bbb     H9 2504   7.329   7.403   9.556  1.1370  0.3058 -0.6729
   84bbb    H10 2505   7.476   7.395   9.636  0.1777  0.2543 -3.2627
   84bbb     C6 2506   7.257   6.963   9.607 -0.0133 -0.3758  0.3268
   84bbb    H11 2507   7.187   6.946   9.689 -0.4841 -0.6804 -0.1338
   84bbb    H12 2508   7.353   6.962   9.660  0.3754  0.5442 -0.3380
   84bbb     C7 2509   7.127   7.185   9.149 -0.4783  0.9232 -0.2385
   84bbb    H13 2510   7.051   7.133   9.208 -0.3408  0.2387 -0.6558
   84bbb    H14 2511   7.115   7.149   9.046 -2.5661 -0.9547  0.5935
   84bbb     C8 2512   7.266   6.845   9.517  0.4103  0.4937  0.6983
   84bbb    H15 2513   7.276   6.754   9.577  2.7649 -0.8457 -1.5254
   84bbb    H16 2514   7.171   6.829   9.465  1.6100  1.5514 -2.0262
   84bbb     C9 2515   7.312   7.310   9.749  0.2235  0.1287 -0.2429
   84bbb    H17 2516   7.203   7.310   9.736 -0.2681  0.3429  3.0079
   84bbb    H18 2517   7.338   7.393   9.816  0.3746 -0.4070  0.3616
   84bbb     O1 2518   7.110   7.329   9.148  0.1966 -0.1105  0.0369
   84bbb    H19 2519   7.409   7.065   9.412  0.8850  0.6081  0.5342
   85bbb     N1 2520   7.735   7.024   7.413  0.5928 -0.1569  0.4555
   85bbb     C1 2521   7.865   6.992   7.331 -0.2825  0.1017 -0.4607
   85bbb     H1 2522   7.851   7.011   7.225  1.9835  0.5473 -0.7233
   85bbb     H2 2523   7.896   6.888   7.345  2.3733  1.0606  1.5268
   85bbb     C2 2524   7.616   6.977   7.328  0.5844 -0.3050 -0.5080
   85bbb     H3 2525   7.520   6.975   7.380 -0.5126  2.1908 -2.2405
   85bbb     H4 2526   7.656   6.884   7.286  0.9999 -0.7864  0.8814
   85bbb     C3 2527   7.747   6.941   7.543  0.4190 -0.2876 -0.0764
   85bbb     H5 2528   7.841   6.970   7.590  0.7012  0.9060 -1.2952
   85bbb     H6 2529   7.755   6.837   7.512 -2.3913  0.0181 -2.1742
   85bbb     C4 2530   7.631   6.955   7.640  0.3828 -0.4703  1.0823
   85bbb     H7 2531   7.550   6.914   7.578  0.4964 -0.3883  0.8776
   85bbb     H8 2532   7.612   7.061   7.662 -3.2282 -0.7442 -0.0898
   85bbb     C5 2533   7.988   7.075   7.380 -0.0748 -0.2055 -0.2393
   85bbb     H9 2534   8.071   7.056   7.311 -2.4984 -1.0211 -3.1410
   85bbb    H10 2535   8.017   7.053   7.484 -0.1212  1.0906  0.0658
   85bbb     C6 2536   7.597   7.073   7.205  0.0812  0.6925 -0.1137
   85bbb    H11 2537   7.696   7.107   7.175  0.0406  0.7050 -0.2316
   85bbb    H12 2538   7.543   7.160   7.244  1.9683  1.3414  1.2093
   85bbb     C7 2539   7.645   6.870   7.770 -0.2914 -0.1980 -0.1039
   85bbb    H13 2540   7.743   6.901   7.810 -0.5290  0.3369  0.0686
   85bbb    H14 2541   7.654   6.764   7.741 -0.7941 -0.0054 -0.9790
   85bbb     C8 2542   7.516   7.018   7.086  0.7730  0.1339  0.4440
   85bbb    H15 2543   7.573   6.931   7.052  1.0902  0.7012 -0.5251
   85bbb    H16 2544   7.413   6.992   7.116 -0.2155  0.0574 -2.6357
   85bbb     C9 2545   7.962   7.225   7.380 -0.4850  0.0022  0.5835
   85bbb    H17 2546   8.057   7.267   7.416 -0.3542 -1.0769  1.5657
   85bbb    H18 2547   7.878   7.246   7.447 -3.0957 -2.3921 -1.6844
   85bbb     O1 2548   7.545   6.891   7.868  0.6473 -0.0179  0.8496
   85bbb    H19 2549   7.723   7.125   7.427  0.6715  0.1522 -1.4065
   86bbb     N1 2550   8.114   7.636   8.003  0.1895  0.2303  0.6635
   86bbb     C1 2551   8.199   7.533   7.925  0.1627  0.0200  0.0908
   86bbb     H1 2552   8.291   7.584   7.896 -0.7150  2.1862  0.9096
   86bbb     H2 2553   8.139   7.504   7.839 -0.2079  0.0244  0.3479
   86bbb     C2 2554   8.160   7.777   7.971 -0.0737  0.2263 -0.5179
   86bbb     H3 2555   8.262   7.798   8.003 -0.4694  0.8095  0.3877
   86bbb     H4 2556   8.096   7.849   8.022  0.2034  0.2225 -0.1612
   86bbb     C3 2557   7.963   7.604   7.965 -1.1112  0.3488  0.4987
   86bbb     H5 2558   7.963   7.517   7.899 -1.6599 -0.6309  1.7430
   86bbb     H6 2559   7.914   7.691   7.921  2.3933  1.0969 -2.3438
   86bbb     C4 2560   7.875   7.579   8.094  0.4158  0.6659  0.0489
   86bbb     H7 2561   7.905   7.639   8.180 -0.8398 -0.9820  1.7311
   86bbb     H8 2562   7.889   7.478   8.136  0.9983  0.1259 -1.3749
   86bbb     C5 2563   8.229   7.403   8.010 -0.3641  0.4822  0.0352
   86bbb     H9 2564   8.297   7.336   7.956  0.8411  0.2234  1.8069
   86bbb    H10 2565   8.140   7.341   8.029  1.6595 -1.8013  3.0053
   86bbb     C6 2566   8.158   7.812   7.821 -0.5053  0.0527  0.2882
   86bbb    H11 2567   8.066   7.788   7.766  0.7233  0.9575 -2.3297
   86bbb    H12 2568   8.241   7.761   7.770 -1.0367  1.1133 -1.7717
   86bbb     C7 2569   7.728   7.600   8.051 -0.7260  0.6589 -0.4492
   86bbb    H13 2570   7.708   7.692   7.995 -1.2789 -0.4292 -2.0868
   86bbb    H14 2571   7.663   7.602   8.139 -0.2510 -1.5369  0.0134
   86bbb     C8 2572   8.204   7.961   7.806  0.1607 -0.1161  0.3572
   86bbb    H15 2573   8.300   7.969   7.858  0.2318  1.7312 -0.0086
   86bbb    H16 2574   8.223   7.979   7.699 -1.9283 -0.8587 -0.1918
   86bbb     C9 2575   8.292   7.442   8.147 -0.1123 -0.0840  0.5136
   86bbb    H17 2576   8.379   7.507   8.135  1.0900 -1.6698  0.3994
   86bbb    H18 2577   8.318   7.347   8.197  0.0078 -0.3156  0.0146
   86bbb     O1 2578   7.694   7.474   7.984  0.7566  0.0548  0.3122
   86bbb    H19 2579   8.126   7.615   8.103  1.6948 -1.0200  0.2539
   87bbb     N1 2580   6.287   4.600   5.800 -0.0662  0.0187  0.0346
   87bbb     C1 2581   6.374   4.700   5.721 -0.4488  0.3081 -0.1413
   87bbb     H1 2582   6.470   4.649   5.718  0.3377  1.6831  0.8078
   87bbb     H2 2583   6.378   4.788   5.786 -0.9583  0.0441  0.2513
   87bbb     C2 2584   6.369   4.498   5.879 -0.3729  0.8231 -0.2956
   87bbb     H3 2585   6.296   4.445   5.940 -0.7046  1.0784 -0.4717
   87bbb     H4 2586   6.440   4.549   5.944  2.0052 -1.3590 -1.0034
   87bbb     C3 2587   6.190   4.665   5.891 -0.1039 -0.3623  0.5807
   87bbb     H5 2588   6.152   4.744   5.826 -0.1795 -0.9682 -0.1292
   87bbb     H6 2589   6.243   4.707   5.977  1.7431 -0.8813 -0.2573
   87bbb     C4 2590   6.071   4.579   5.931  0.2823  0.0435 -0.0230
   87bbb     H7 2591   6.063   4.488   5.870  0.8407 -1.3534  1.8934
   87bbb     H8 2592   5.985   4.641   5.905  1.3618  1.2634 -0.8265
   87bbb     C5 2593   6.332   4.737   5.577 -0.1015  0.1752 -0.1933
   87bbb     H9 2594   6.403   4.809   5.536  1.4728 -1.8102 -1.1003
   87bbb    H10 2595   6.234   4.786   5.588  1.5950  3.7395  0.4873
   87bbb     C6 2596   6.457   4.402   5.796  0.3453  0.1051  0.1686
   87bbb    H11 2597   6.539   4.462   5.754  0.0445 -0.3900 -1.1748
   87bbb    H12 2598   6.401   4.366   5.709 -0.9051 -0.5002  1.1991
   87bbb     C7 2599   6.067   4.530   6.077 -0.1328 -0.4266  0.6452
   87bbb    H13 2600   6.137   4.451   6.107 -0.5723 -0.8102  0.6808
   87bbb    H14 2601   5.970   4.478   6.083  1.1441 -3.2092 -0.9891
   87bbb     C8 2602   6.516   4.275   5.868  0.4036 -0.6243 -0.4812
   87bbb    H15 2603   6.433   4.216   5.908 -1.8708  0.9643 -2.5649
   87bbb    H16 2604   6.567   4.214   5.792 -0.9082  0.3487 -2.2433
   87bbb     C9 2605   6.331   4.619   5.482  0.2774  0.5081  0.9278
   87bbb    H17 2606   6.429   4.574   5.467 -0.7741 -1.4057 -0.6762
   87bbb    H18 2607   6.304   4.658   5.383 -0.5286 -0.2641  0.8294
   87bbb     O1 2608   6.071   4.652   6.160 -0.5064  0.2564 -0.1494
   87bbb    H19 2609   6.230   4.541   5.737 -0.9053  0.6805  0.1603
   88bbb     N1 2610   6.762   4.690   6.835 -0.6646  0.1535  0.6062
   88bbb     C1 2611   6.747   4.834   6.792  0.2029 -0.6791  0.4308
   88bbb     H1 2612   6.848   4.875   6.783 -0.0742  0.4192  1.9758
   88bbb     H2 2613   6.704   4.892   6.874 -2.5970  0.4099 -1.6296
   88bbb     C2 2614   6.837   4.698   6.965 -0.0076 -0.6014 -1.2600
   88bbb     H3 2615   6.767   4.741   7.037  0.2730  0.3400 -1.5374
   88bbb     H4 2616   6.921   4.767   6.962 -0.6759  0.2821 -0.0021
   88bbb     C3 2617   6.626   4.632   6.876  0.8365 -0.0952 -0.0793
   88bbb     H5 2618   6.552   4.690   6.821  1.1185 -0.6457 -1.0608
   88bbb     H6 2619   6.606   4.651   6.982 -2.7024 -2.4340 -0.1788
   88bbb     C4 2620   6.593   4.494   6.829 -0.4505  0.8080 -0.0451
   88bbb     H7 2621   6.674   4.432   6.870 -0.9759  0.0673 -0.1176
   88bbb     H8 2622   6.598   4.488   6.720  0.7460  1.8329 -0.0668
   88bbb     C5 2623   6.680   4.860   6.653 -1.2034  0.6294 -1.0781
   88bbb     H9 2624   6.589   4.918   6.672 -0.5082  1.4278 -0.0804
   88bbb    H10 2625   6.655   4.766   6.602  1.2973 -1.2089  0.7852
   88bbb     C6 2626   6.884   4.570   7.035  0.3648 -1.1035  0.1966
   88bbb    H11 2627   6.808   4.491   7.031  1.1275 -1.7947 -1.7087
   88bbb    H12 2628   6.903   4.597   7.139 -0.1406  0.7116 -0.1418
   88bbb     C7 2629   6.453   4.459   6.881  0.5088 -0.1761 -0.0471
   88bbb    H13 2630   6.449   4.484   6.988  0.2317  2.3310 -0.5695
   88bbb    H14 2631   6.435   4.353   6.860 -0.8029 -0.0392  0.3371
   88bbb     C8 2632   7.012   4.505   6.973  0.3088 -0.4540  0.0245
   88bbb    H15 2633   7.100   4.567   6.992  0.4616 -0.1837 -1.4194
   88bbb    H16 2634   7.030   4.411   7.026 -1.1599 -1.1928 -0.7285
   88bbb     C9 2635   6.772   4.948   6.563  0.8032 -0.2716 -0.0179
   88bbb    H17 2636   6.732   4.950   6.461  0.0682 -2.0190  0.2146
   88bbb    H18 2637   6.871   4.901   6.562  0.9009 -0.1164  0.9755
   88bbb     O1 2638   6.357   4.542   6.814 -0.8537 -0.3620  0.4646
   88bbb    H19 2639   6.816   4.641   6.762 -1.6827 -1.2037  0.7150
   89bbb     N1 2640   5.240   4.236   6.596 -0.0923  0.3301 -0.3253
   89bbb     C1 2641   5.264   4.271   6.448  0.2964  0.7337 -1.1162
   89bbb     H1 2642   5.200   4.204   6.390 -0.6790  0.0247  0.6980
   89bbb     H2 2643   5.365   4.243   6.419  0.0260 -3.4750  1.3020
   89bbb     C2 2644   5.188   4.092   6.591 -0.2648 -0.0410 -0.5153
   89bbb     H3 2645   5.200   4.053   6.692  1.8991  0.7782 -0.4057
   89bbb     H4 2646   5.263   4.039   6.532 -0.7153  0.0854 -1.2069
   89bbb     C3 2647   5.364   4.235   6.680  0.1742 -0.7623 -0.0360
   89bbb     H5 2648   5.412   4.141   6.653 -1.7764 -1.6289 -0.7614
   89bbb     H6 2649   5.333   4.224   6.784 -1.3448  3.0262  0.0919
   89bbb     C4 2650   5.454   4.360   6.684  0.1559  0.1324 -0.6828
   89bbb     H7 2651   5.398   4.450   6.715  1.4174  0.9081 -0.5615
   89bbb     H8 2652   5.485   4.378   6.581  1.2369  0.6229 -0.2840
   89bbb     C5 2653   5.233   4.410   6.412 -0.1167 -0.4357  0.2718
   89bbb     H9 2654   5.252   4.428   6.305 -0.8211  0.0639  0.2214
   89bbb    H10 2655   5.289   4.488   6.465  0.0038 -0.8526  0.7692
   89bbb     C6 2656   5.041   4.070   6.551  0.2735  0.5132 -0.3163
   89bbb    H11 2657   5.007   4.131   6.467 -1.0238 -2.0671 -1.7944
   89bbb    H12 2658   4.970   4.093   6.631 -0.2469  2.0191 -1.1740
   89bbb     C7 2659   5.596   4.349   6.753  1.0786 -0.5259 -0.0690
   89bbb    H13 2660   5.666   4.419   6.705 -0.0657  0.2003 -0.7270
   89bbb    H14 2661   5.630   4.246   6.738  3.5333  0.2932 -0.4706
   89bbb     C8 2662   5.022   3.926   6.499 -0.3553  0.6008 -0.1871
   89bbb    H15 2663   4.924   3.915   6.452 -0.5371  0.1463  0.2888
   89bbb    H16 2664   5.095   3.901   6.421  1.5055  2.7819  0.7542
   89bbb     C9 2665   5.085   4.444   6.426  0.1853  1.2010  0.1465
   89bbb    H17 2666   5.031   4.383   6.353  1.6530 -1.0064  0.8316
   89bbb    H18 2667   5.066   4.551   6.408 -1.3545  1.1673  1.3059
   89bbb     O1 2668   5.587   4.377   6.895  0.3746  0.1362 -0.2381
   89bbb    H19 2669   5.175   4.309   6.629  0.8766  1.7406 -1.4247
   90bbb     N1 2670   5.581   4.387   7.745 -0.1575  0.2236  0.3165
   90bbb     C1 2671   5.586   4.310   7.872  0.6042  1.3437  0.4585
   90bbb     H1 2672   5.654   4.226   7.859  0.7791  1.5078  0.3116
   90bbb     H2 2673   5.484   4.277   7.894  0.7070  0.4202 -0.3864
   90bbb     C2 2674   5.716   4.377   7.675 -0.8304  0.6377  0.2629
   90bbb     H3 2675   5.729   4.276   7.637  1.2890  0.9048  0.1487
   90bbb     H4 2676   5.788   4.377   7.757 -1.4042  1.7820  0.7893
   90bbb     C3 2677   5.485   4.323   7.648  0.4402  0.5003  0.2663
   90bbb     H5 2678   5.508   4.217   7.639 -2.2352  0.0189 -2.8349
   90bbb     H6 2679   5.502   4.375   7.554  1.2281 -0.9828 -0.4532
   90bbb     C4 2680   5.340   4.336   7.685  0.1886  0.4575  0.6893
   90bbb     H7 2681   5.324   4.442   7.708  0.0531  0.0604  2.6212
   90bbb     H8 2682   5.315   4.276   7.773 -1.6723 -1.9684 -1.3458
   90bbb     C5 2683   5.640   4.390   7.994 -0.5429  0.4219  0.4473
   90bbb     H9 2684   5.578   4.474   8.027  1.0126  1.0374  1.9258
   90bbb    H10 2685   5.735   4.437   7.969  0.5153 -0.7844  2.0048
   90bbb     C6 2686   5.742   4.480   7.563 -0.6691 -0.6405 -0.5684
   90bbb    H11 2687   5.728   4.581   7.602  0.7528 -1.1817  1.5272
   90bbb    H12 2688   5.675   4.453   7.480 -0.2840  1.0167 -1.4555
   90bbb     C7 2689   5.250   4.302   7.567 -0.1793 -0.3917 -0.7976
   90bbb    H13 2690   5.144   4.306   7.598  0.4022 -2.2925  1.7209
   90bbb    H14 2691   5.279   4.198   7.547  0.2804 -0.8731  1.9665
   90bbb     C8 2692   5.886   4.456   7.509  0.0093  0.2969 -0.2904
   90bbb    H15 2693   5.912   4.532   7.435  0.9181 -0.6351 -0.9527
   90bbb    H16 2694   5.954   4.466   7.594 -0.0610 -1.0427 -0.0480
   90bbb     C9 2695   5.666   4.301   8.124  0.1764  0.1804 -0.1878
   90bbb    H17 2696   5.572   4.264   8.165 -0.0912  0.9090 -0.1266
   90bbb    H18 2697   5.702   4.370   8.201 -1.2453 -0.1973  0.8437
   90bbb     O1 2698   5.283   4.406   7.470 -0.5111  0.5380 -0.1508
   90bbb    H19 2699   5.558   4.486   7.758  1.6604  0.7278 -0.0586
   91bbb     N1 2700   3.953   4.957   6.254  0.4658  0.2551 -0.1068
   91bbb     C1 2701   4.035   4.850   6.186 -0.8568 -0.2575  0.8683
   91bbb     H1 2702   3.975   4.759   6.194 -1.1516 -0.1263  0.2874
   91bbb     H2 2703   4.125   4.827   6.242  0.3170 -0.9750 -1.1926
   91bbb     C2 2704   3.883   4.903   6.377 -0.2579 -0.1820  0.0491
   91bbb     H3 2705   3.957   4.928   6.454 -0.2189  2.3589 -0.7303
   91bbb     H4 2706   3.864   4.796   6.368  2.0834 -0.8287  1.6420
   91bbb     C3 2707   4.037   5.081   6.300 -0.0887  0.1493  0.7013
   91bbb     H5 2708   3.990   5.142   6.377  1.6164  0.4402  1.5805
   91bbb     H6 2709   4.052   5.148   6.215  2.3945  1.6719  2.2046
   91bbb     C4 2710   4.183   5.066   6.359 -0.2478 -0.4554  0.1045
   91bbb     H7 2711   4.248   5.030   6.278  0.6159 -1.4573  1.2165
   91bbb     H8 2712   4.187   4.985   6.432  2.3846 -2.2273 -1.7956
   91bbb     C5 2713   4.066   4.895   6.036 -0.2546 -0.2121  0.2676
   91bbb     H9 2714   4.170   4.928   6.030  0.3467 -2.2219 -1.4977
   91bbb    H10 2715   3.988   4.968   6.013  1.1420  1.6830  1.2687
   91bbb     C6 2716   3.758   4.977   6.418  0.3708 -0.0921  0.4182
   91bbb    H11 2717   3.686   4.956   6.338 -0.2551  0.0692  0.9267
   91bbb    H12 2718   3.779   5.085   6.414  0.6599 -0.2004 -2.0812
   91bbb     C7 2719   4.241   5.203   6.407 -0.4052  0.0451 -0.1479
   91bbb    H13 2720   4.197   5.284   6.347  0.5814  0.6218 -0.1216
   91bbb    H14 2721   4.350   5.192   6.399 -0.2854  1.7909 -1.6580
   91bbb     C8 2722   3.702   4.940   6.558 -0.0882  0.0735  0.5094
   91bbb    H15 2723   3.771   4.965   6.639  0.0080  0.1269  0.4111
   91bbb    H16 2724   3.606   4.991   6.571 -1.4223 -1.5799 -1.9138
   91bbb     C9 2725   4.054   4.778   5.924  0.4438  0.6570  0.3891
   91bbb    H17 2726   4.084   4.819   5.827 -0.2335 -2.2119 -1.1405
   91bbb    H18 2727   3.952   4.739   5.927  1.1599 -1.4728 -0.6854
   91bbb     O1 2728   4.198   5.234   6.549  0.2119  0.2767  0.3589
   91bbb    H19 2729   3.877   4.989   6.192 -2.2177 -1.6769  1.9527
   92bbb     N1 2730   3.592   5.127   7.257 -0.0098 -0.3706 -0.0787
   92bbb     C1 2731   3.606   5.280   7.285  0.1748 -0.7409  0.0983
   92bbb     H1 2732   3.657   5.315   7.195 -0.3808  0.7963  0.3553
   92bbb     H2 2733   3.673   5.299   7.369 -1.0941  0.8699  0.7962
   92bbb     C2 2734   3.500   5.095   7.150 -0.4892  0.2741  0.6968
   92bbb     H3 2735   3.411   5.150   7.181 -1.5829 -0.5825 -0.7936
   92bbb     H4 2736   3.478   4.988   7.161 -0.1271  0.3615  2.4908
   92bbb     C3 2737   3.731   5.074   7.233  0.0420  0.3429 -0.1733
   92bbb     H5 2738   3.779   5.132   7.153  0.2979  0.2089 -0.1201
   92bbb     H6 2739   3.729   4.971   7.198 -1.3639  0.1861  0.3043
   92bbb     C4 2740   3.835   5.081   7.351  0.5882  0.5672 -0.3119
   92bbb     H7 2741   3.783   5.031   7.433 -1.6286 -1.0841 -2.5472
   92bbb     H8 2742   3.848   5.186   7.377 -0.3806 -0.0238  2.9394
   92bbb     C5 2743   3.475   5.351   7.319  0.2510 -0.3284  0.1276
   92bbb     H9 2744   3.422   5.287   7.391  0.4753 -0.6969 -0.0353
   92bbb    H10 2745   3.414   5.350   7.227 -0.9762  3.3525  0.7422
   92bbb     C6 2746   3.551   5.131   7.008 -0.2234 -0.9360 -0.5029
   92bbb    H11 2747   3.649   5.090   6.985  1.5474  2.3719  0.4675
   92bbb    H12 2748   3.582   5.237   7.008 -2.8024 -0.0494  1.8800
   92bbb     C7 2749   3.971   5.010   7.329 -0.6021  0.1221 -0.7925
   92bbb    H13 2750   3.956   4.913   7.279  2.2129 -1.0089  0.3108
   92bbb    H14 2751   4.021   4.996   7.425  0.3731  1.4106 -1.0756
   92bbb     C8 2752   3.443   5.085   6.906 -0.4026  0.2980 -0.1186
   92bbb    H15 2753   3.357   5.149   6.930  1.0825  1.9498  1.1551
   92bbb    H16 2754   3.467   5.115   6.803 -2.0264  0.7401 -0.4095
   92bbb     C9 2755   3.490   5.491   7.377  1.0902  0.7640 -0.8668
   92bbb    H17 2756   3.390   5.536   7.364  0.3926  0.4607  2.4623
   92bbb    H18 2757   3.569   5.542   7.322 -0.1145  1.0289 -2.4507
   92bbb     O1 2758   4.052   5.098   7.247  0.2035  0.2552  0.1624
   92bbb    H19 2759   3.549   5.085   7.342  0.3290 -2.3678 -0.8273
   93bbb     N1 2760   4.563   6.441   6.158  0.0529 -0.5600 -0.0824
   93bbb     C1 2761   4.651   6.375   6.057 -0.1104 -0.3568 -0.4825
   93bbb     H1 2762   4.660   6.447   5.975 -0.8899 -0.7637 -0.9455
   93bbb     H2 2763   4.597   6.289   6.016  1.0289 -0.6549 -1.4318
   93bbb     C2 2764   4.436   6.481   6.091 -0.4396 -0.2229  0.4531
   93bbb     H3 2765   4.397   6.393   6.038 -2.3597 -0.5113  2.2187
   93bbb     H4 2766   4.462   6.553   6.013  0.9279 -1.4547 -0.2888
   93bbb     C3 2767   4.525   6.350   6.276 -0.2335  0.5923  0.2279
   93bbb     H5 2768   4.454   6.405   6.337  0.7107  2.3861 -0.2368
   93bbb     H6 2769   4.614   6.332   6.337 -0.9931 -0.6353  1.0165
   93bbb     C4 2770   4.459   6.212   6.236 -0.4497  0.3381  0.0044
   93bbb     H7 2771   4.545   6.159   6.194  0.7942  1.7717  0.6341
   93bbb     H8 2772   4.385   6.236   6.159  0.8436  3.4904 -0.4142
   93bbb     C5 2773   4.791   6.332   6.114 -0.5667  0.0979 -0.0541
   93bbb     H9 2774   4.853   6.294   6.031 -1.7978  0.6090 -1.2471
   93bbb    H10 2775   4.779   6.248   6.183  2.1202  0.3136  0.7874
   93bbb     C6 2776   4.316   6.525   6.175 -1.2746  0.3667  0.3204
   93bbb    H11 2777   4.343   6.582   6.265  0.7229 -0.4321  0.2679
   93bbb    H12 2778   4.258   6.437   6.205  1.2752 -2.2456 -1.8422
   93bbb     C7 2779   4.399   6.131   6.352 -0.4489 -0.1509  0.5614
   93bbb    H13 2780   4.375   6.032   6.313  2.1383 -0.1961 -1.1674
   93bbb    H14 2781   4.304   6.172   6.389  1.4284  3.0260  2.3433
   93bbb     C8 2782   4.238   6.616   6.080  0.7179 -0.5046  0.0414
   93bbb    H15 2783   4.203   6.565   5.990 -2.0321 -1.2051  1.4166
   93bbb    H16 2784   4.145   6.626   6.137  1.4484 -0.2302  1.2204
   93bbb     C9 2785   4.869   6.446   6.175 -0.8150  0.9298 -0.3989
   93bbb    H17 2786   4.821   6.445   6.273  1.1061 -1.3333  0.6284
   93bbb    H18 2787   4.859   6.538   6.117  1.2417  0.8919 -0.9274
   93bbb     O1 2788   4.504   6.123   6.454  0.3309  0.1890  0.6397
   93bbb    H19 2789   4.600   6.531   6.194  2.1055 -0.5867 -1.9238
   94bbb     N1 2790   4.328   5.696   5.754  0.6898  0.0966 -0.2828
   94bbb     C1 2791   4.235   5.583   5.716  0.1978 -0.2525 -0.7302
   94bbb     H1 2792   4.293   5.493   5.697  0.6783  0.6542 -4.0886
   94bbb     H2 2793   4.185   5.603   5.621  1.9932  0.1146 -1.6340
   94bbb     C2 2794   4.252   5.830   5.756  0.9125  0.2510 -0.0066
   94bbb     H3 2795   4.182   5.823   5.840 -0.0211  4.0604 -0.2944
   94bbb     H4 2796   4.193   5.835   5.665 -0.9670  0.1674  1.1428
   94bbb     C3 2797   4.393   5.686   5.898  0.6069 -0.1959  0.4268
   94bbb     H5 2798   4.309   5.682   5.968 -0.7363  2.7664 -0.8435
   94bbb     H6 2799   4.444   5.780   5.918  1.5294 -0.2824 -1.2979
   94bbb     C4 2800   4.502   5.579   5.932  0.2838  0.3961 -0.2894
   94bbb     H7 2801   4.594   5.593   5.874  0.7190 -1.8421 -0.2629
   94bbb     H8 2802   4.456   5.481   5.914  1.0438 -0.3378  1.5239
   94bbb     C5 2803   4.131   5.536   5.822 -0.1654 -0.2724  0.3181
   94bbb     H9 2804   4.089   5.621   5.877 -0.3645  0.4471 -0.9223
   94bbb    H10 2805   4.182   5.480   5.902 -0.0577 -1.7124 -0.7223
   94bbb     C6 2806   4.332   5.963   5.776  0.1730 -0.4551 -0.1686
   94bbb    H11 2807   4.360   5.967   5.882 -1.1469 -0.6067  0.2012
   94bbb    H12 2808   4.257   6.042   5.763  0.7017 -0.0402 -0.7618
   94bbb     C7 2809   4.535   5.572   6.083  0.1965  0.0338  0.0544
   94bbb    H13 2810   4.601   5.486   6.097 -2.1177 -2.1162 -1.5567
   94bbb    H14 2811   4.444   5.554   6.141  0.3225  2.2257  1.0756
   94bbb     C8 2812   4.454   5.991   5.681 -0.1017  0.5015 -0.0280
   94bbb    H15 2813   4.487   6.094   5.698  0.3880  0.4624 -0.7212
   94bbb    H16 2814   4.535   5.924   5.713 -0.6367 -0.3594 -0.4611
   94bbb     C9 2815   4.019   5.448   5.768  0.6563 -0.0347  0.5433
   94bbb    H17 2816   3.970   5.389   5.845  0.2035  2.3753  2.2300
   94bbb    H18 2817   4.066   5.378   5.698  0.3843 -1.0499  1.3667
   94bbb     O1 2818   4.600   5.690   6.136  0.3930 -0.2170 -0.5928
   94bbb    H19 2819   4.397   5.707   5.679 -1.6353  0.3750 -2.5066
   95bbb     N1 2820   7.083   5.108  11.764 -0.6968 -0.2412 -0.0528
   95bbb     C1 2821   7.210   5.159  11.826 -0.6894 -0.5726  0.2896
   95bbb     H1 2822   7.188   5.264  11.847 -0.3618 -0.5969  0.7730
   95bbb     H2 2823   7.288   5.163  11.750  1.0694  1.6761  2.0241
   95bbb     C2 2824   6.964   5.146  11.842 -0.3193 -0.2776  0.1540
   95bbb     H3 2825   6.880   5.165  11.775 -1.2800  0.0170  1.4046
   95bbb     H4 2826   6.987   5.240  11.892  0.4152 -1.9467  3.1443
   95bbb     C3 2827   7.072   5.183  11.642 -0.4772  0.8269  0.2391
   95bbb     H5 2828   7.167   5.173  11.590 -1.4794  2.0375 -1.9525
   95bbb     H6 2829   7.062   5.288  11.669  0.1917  0.5689  1.5930
   95bbb     C4 2830   6.972   5.125  11.533 -0.5656  0.6810 -0.5782
   95bbb     H7 2831   6.986   5.183  11.441 -1.8131 -0.3458 -1.4527
   95bbb     H8 2832   6.873   5.118  11.578 -0.9673  1.3957 -1.3259
   95bbb     C5 2833   7.265   5.082  11.949  1.0227 -0.0225  0.4573
   95bbb     H9 2834   7.337   5.014  11.902  0.7991  1.2115 -1.8262
   95bbb    H10 2835   7.185   5.030  12.003  0.1511  0.5009 -0.2891
   95bbb     C6 2836   6.915   5.039  11.944  0.2913 -0.1762 -0.0750
   95bbb    H11 2837   6.826   5.080  11.994  0.8343 -0.2654  1.0064
   95bbb    H12 2838   6.975   5.032  12.036  1.4563 -1.3714 -0.8829
   95bbb     C7 2839   7.003   4.978  11.493 -0.5831 -0.0446  0.3635
   95bbb    H13 2840   7.009   4.921  11.587  1.0666 -0.3691  0.0897
   95bbb    H14 2841   7.103   4.973  11.447 -0.4646 -0.8161  0.6858
   95bbb     C8 2842   6.893   4.893  11.898 -0.4505 -0.4822  0.3894
   95bbb    H15 2843   6.815   4.847  11.960 -2.3423  1.3142 -0.5453
   95bbb    H16 2844   6.855   4.879  11.796  2.2174  0.8292 -0.8842
   95bbb     C9 2845   7.328   5.186  12.038  0.3520 -0.1158 -0.0066
   95bbb    H17 2846   7.397   5.253  11.985 -1.9944  1.9272 -0.6468
   95bbb    H18 2847   7.381   5.144  12.124 -1.3984  0.7565  1.5641
   95bbb     O1 2848   6.905   4.927  11.397  0.0841  0.2270 -0.1962
   95bbb    H19 2849   7.088   5.006  11.754 -1.4559 -0.4710  1.6126
   96bbb     N1 2850   7.238   4.998  10.657 -0.6264 -0.1005  0.5494
   96bbb     C1 2851   7.360   4.909  10.664 -0.7650 -0.5988  0.1940
   96bbb     H1 2852   7.430   4.937  10.586  0.5516 -2.1702  0.7589
   96bbb     H2 2853   7.345   4.810  10.622 -0.0976 -0.5865 -0.0825
   96bbb     C2 2854   7.290   5.139  10.640 -0.0157 -0.5459 -0.3399
   96bbb     H3 2855   7.329   5.152  10.539 -0.3367  1.8657 -0.2121
   96bbb     H4 2856   7.372   5.153  10.711 -0.9469 -1.3575  0.9479
   96bbb     C3 2857   7.159   4.961  10.531  0.1278 -0.1530 -0.3772
   96bbb     H5 2858   7.236   4.947  10.455  1.3879  2.1657  0.3538
   96bbb     H6 2859   7.096   5.046  10.502  0.4624 -0.4966 -2.2156
   96bbb     C4 2860   7.064   4.835  10.558  0.2387 -0.7096  0.3604
   96bbb     H7 2861   7.110   4.756  10.618  0.9604 -0.3392  0.3136
   96bbb     H8 2862   7.050   4.787  10.461  0.6302  1.2334 -0.7046
   96bbb     C5 2863   7.414   4.905  10.804 -0.3603 -0.2566 -0.0314
   96bbb     H9 2864   7.339   4.863  10.871  0.5220 -1.1757  0.4025
   96bbb    H10 2865   7.438   5.009  10.829  1.5072 -0.5146 -0.5892
   96bbb     C6 2866   7.181   5.244  10.654  0.2139 -0.7343  0.0423
   96bbb    H11 2867   7.147   5.254  10.758 -0.2351  0.4408 -0.2071
   96bbb    H12 2868   7.088   5.225  10.599 -0.8861  0.7520  1.3105
   96bbb     C7 2869   6.922   4.864  10.618 -0.0402  0.2961 -0.3731
   96bbb    H13 2870   6.854   4.892  10.536  0.1130  0.1107 -0.5674
   96bbb    H14 2871   6.930   4.950  10.685  1.2579 -0.3629  0.3418
   96bbb     C8 2872   7.228   5.378  10.618 -0.4442 -0.1007  0.0050
   96bbb    H15 2873   7.175   5.453  10.679  0.3762 -1.0797  1.9900
   96bbb    H16 2874   7.334   5.376  10.647  0.0056 -0.4781 -1.5424
   96bbb     C9 2875   7.552   4.831  10.812  0.2555  0.5709 -0.4399
   96bbb    H17 2876   7.534   4.725  10.833  1.6147  0.4381  0.1641
   96bbb    H18 2877   7.596   4.869  10.905 -0.9636  1.8494 -0.3556
   96bbb     O1 2878   6.862   4.745  10.692 -0.4225 -0.3507 -0.0526
   96bbb    H19 2879   7.200   4.988  10.752  4.7792 -1.1827  2.9726
   97bbb     N1 2880   5.474   5.517  11.764  0.5873  0.3553 -0.4888
   97bbb     C1 2881   5.509   5.571  11.904  1.2049  0.1564  0.4535
   97bbb     H1 2882   5.604   5.625  11.903  0.6654  1.1081 -0.9800
   97bbb     H2 2883   5.519   5.478  11.961  0.9404  0.2603  0.6737
   97bbb     C2 2884   5.462   5.624  11.664 -0.3916  0.5266 -0.9584
   97bbb     H3 2885   5.383   5.694  11.692  0.0327  0.7118 -0.2007
   97bbb     H4 2886   5.427   5.572  11.574  3.1457 -0.9236 -1.6597
   97bbb     C3 2887   5.575   5.409  11.723  0.2269 -0.2761 -0.3999
   97bbb     H5 2888   5.673   5.455  11.709  1.4141 -2.8448 -1.1457
   97bbb     H6 2889   5.537   5.381  11.625  1.2499  1.6103 -1.3988
   97bbb     C4 2890   5.569   5.273  11.787 -0.1538  0.7013 -0.1131
   97bbb     H7 2891   5.472   5.257  11.837 -0.8040 -1.9235 -2.0358
   97bbb     H8 2892   5.647   5.262  11.864 -0.0070 -0.7072 -0.4411
   97bbb     C5 2893   5.397   5.634  11.996 -0.1519 -0.8427  0.4400
   97bbb     H9 2894   5.426   5.624  12.101  1.0126 -0.4158  0.1704
   97bbb    H10 2895   5.310   5.568  11.986  0.3705 -1.3536 -0.9681
   97bbb     C6 2896   5.582   5.705  11.628 -0.5328 -0.5399  0.3024
   97bbb    H11 2897   5.659   5.647  11.575 -0.3341  0.9210 -1.0824
   97bbb    H12 2898   5.635   5.739  11.718 -3.3177  0.0184  1.8510
   97bbb     C7 2899   5.594   5.154  11.687  0.5935 -0.4268  0.2221
   97bbb    H13 2900   5.522   5.163  11.605  1.1565  0.1618 -0.2272
   97bbb    H14 2901   5.581   5.054  11.729 -0.7336  0.2460  1.5043
   97bbb     C8 2902   5.551   5.818  11.533  0.3582 -0.5180  0.1180
   97bbb    H15 2903   5.474   5.887  11.570  1.4816 -0.5022  2.5596
   97bbb    H16 2904   5.643   5.878  11.534  0.4072 -0.5363  3.0746
   97bbb     C9 2905   5.366   5.790  11.974 -0.0572 -0.1100 -0.2347
   97bbb    H17 2906   5.341   5.835  12.071  0.5593 -1.3140  0.5027
   97bbb    H18 2907   5.274   5.815  11.919  0.0727  0.5070 -0.1806
   97bbb     O1 2908   5.728   5.165  11.634 -0.5314 -0.6306 -0.0341
   97bbb    H19 2909   5.386   5.463  11.765  1.7824 -1.7067 -1.1289
   98bbb     N1 2910   5.881   5.154  12.604  0.0183  0.2573  0.6738
   98bbb     C1 2911   5.820   5.276  12.535  0.6304  0.3375 -0.4666
   98bbb     H1 2912   5.751   5.246  12.455  0.2959  1.2027 -0.5148
   98bbb     H2 2913   5.905   5.332  12.497  1.6947  0.2445  1.6527
   98bbb     C2 2914   5.768   5.072  12.674 -0.2611 -0.0630  0.3521
   98bbb     H3 2915   5.704   5.042  12.591 -0.1399 -0.0462  0.2513
   98bbb     H4 2916   5.710   5.135  12.741 -2.3093 -0.2904 -1.1269
   98bbb     C3 2917   5.951   5.073  12.497 -0.2304  0.1656  0.2612
   98bbb     H5 2918   5.881   5.069  12.413 -0.9285 -3.3212  0.8438
   98bbb     H6 2919   5.954   4.969  12.531  1.4707  0.7413  2.0908
   98bbb     C4 2920   6.090   5.114  12.445  0.4731  0.1128  0.4779
   98bbb     H7 2921   6.170   5.118  12.520  0.0831  1.3536  0.8454
   98bbb     H8 2922   6.090   5.218  12.409 -0.3390  0.0509  0.2739
   98bbb     C5 2923   5.745   5.372  12.629  0.7648 -0.1492 -0.8788
   98bbb     H9 2924   5.659   5.312  12.662  0.6541  0.9688  1.0052
   98bbb    H10 2925   5.710   5.454  12.566 -0.0657  2.2025  2.3721
   98bbb     C6 2926   5.827   4.953  12.752  0.1953 -0.3781  0.1175
   98bbb    H11 2927   5.913   4.982  12.814  0.3271 -0.5283  0.0070
   98bbb    H12 2928   5.863   4.867  12.694  0.3708  0.6010 -1.2759
   98bbb     C7 2929   6.128   5.015  12.329 -0.4127  0.4978 -0.4875
   98bbb    H13 2930   6.139   4.918  12.380  1.1931  0.8515 -0.1206
   98bbb    H14 2931   6.225   5.040  12.284 -2.0505  1.8403 -3.5478
   98bbb     C8 2932   5.728   4.891  12.857 -0.1577  0.2620 -0.3909
   98bbb    H15 2933   5.632   4.868  12.809 -0.4333  0.0154  0.2709
   98bbb    H16 2934   5.775   4.798  12.890  0.4689  1.4051  2.1603
   98bbb     C9 2935   5.824   5.441  12.743 -0.1019  0.7971  0.5451
   98bbb    H17 2936   5.908   5.502  12.707 -0.1746 -0.5106 -2.0559
   98bbb    H18 2937   5.862   5.376  12.823 -0.5969 -1.1639 -0.7510
   98bbb     O1 2938   6.026   5.010  12.227 -0.5886  0.1473  0.3143
   98bbb    H19 2939   5.957   5.179  12.669 -0.1661 -0.1469  1.0508
   99bbb     N1 2940   5.238   4.280  12.793  0.2931  0.0408  0.2843
   99bbb     C1 2941   5.217   4.251  12.942 -0.5216  0.5832 -0.2333
   99bbb     H1 2942   5.192   4.145  12.951 -0.3311  0.6596  1.4925
   99bbb     H2 2943   5.127   4.304  12.974  0.0743  1.3486  0.2198
   99bbb     C2 2944   5.243   4.431  12.784  0.1856 -0.4010 -0.3937
   99bbb     H3 2945   5.339   4.450  12.832 -0.1536 -0.7645  0.4329
   99bbb     H4 2946   5.168   4.473  12.851  0.0203  0.7016 -1.2335
   99bbb     C3 2947   5.372   4.218  12.747  0.2328 -0.0696 -0.0868
   99bbb     H5 2948   5.458   4.249  12.808  0.2567  2.7503 -1.3800
   99bbb     H6 2949   5.390   4.241  12.642  2.3702  0.5175  0.3449
   99bbb     C4 2950   5.385   4.061  12.743  0.1123  0.5113  0.2102
   99bbb     H7 2951   5.360   4.013  12.839  0.0122  0.7525  0.3061
   99bbb     H8 2952   5.488   4.026  12.727 -0.8968 -1.7336 -1.8296
   99bbb     C5 2953   5.333   4.276  13.048 -0.8687 -0.2781 -1.0333
   99bbb     H9 2954   5.364   4.380  13.067  2.3951 -1.2105 -0.7203
   99bbb    H10 2955   5.426   4.228  13.017  1.3471  1.3363  2.4851
   99bbb     C6 2956   5.235   4.504  12.645  0.1206  0.5751 -0.2827
   99bbb    H11 2957   5.320   4.481  12.579  0.6209 -0.4969  0.6946
   99bbb    H12 2958   5.235   4.613  12.661 -1.2391  0.6577 -0.7361
   99bbb     C7 2959   5.302   3.989  12.631  0.2979 -0.3608 -0.2558
   99bbb    H13 2960   5.201   3.969  12.669  0.7846  1.1268  2.0208
   99bbb    H14 2961   5.351   3.891  12.617 -1.2444 -1.4266  1.3137
   99bbb     C8 2962   5.111   4.481  12.567  0.9895  0.2819 -0.3871
   99bbb    H15 2963   5.033   4.538  12.619  0.1620 -2.0618  1.1198
   99bbb    H16 2964   5.117   4.527  12.468 -3.2644 -0.0318 -0.9659
   99bbb     C9 2965   5.287   4.207  13.180 -0.2983  0.5603  0.0694
   99bbb    H17 2966   5.376   4.207  13.246 -0.0565  0.2179 -0.2567
   99bbb    H18 2967   5.258   4.105  13.153 -1.1616  0.7908  0.1063
   99bbb     O1 2968   5.309   4.063  12.503  0.1308 -0.0254  0.6790
   99bbb    H19 2969   5.161   4.236  12.741 -0.2115  0.3191  0.7959
  100bbb     N1 2970   5.083   3.340  11.664  0.3450  0.3449 -0.0209
  100bbb     C1 2971   5.117   3.202  11.712  0.4328  0.0346 -0.1507
  100bbb     H1 2972   5.034   3.137  11.686 -0.2875  1.5649 -1.8390
  100bbb     H2 2973   5.116   3.215  11.821  0.2495  0.5124 -0.2081
  100bbb     C2 2974   4.933   3.353  11.630 -0.1532 -0.5646 -0.2107
  100bbb     H3 2975   4.917   3.263  11.571  1.7528 -1.9170  1.2058
  100bbb     H4 2976   4.918   3.440  11.565 -2.8017 -1.0945 -0.4408
  100bbb     C3 2977   5.117   3.439  11.768 -0.3145 -0.3831 -0.2744
  100bbb     H5 2978   5.086   3.402  11.866 -1.7003  0.9775 -0.1611
  100bbb     H6 2979   5.072   3.533  11.739 -0.0536  0.3468  1.5401
  100bbb     C4 2980   5.263   3.472  11.782  0.0416 -0.2480  0.2998
  100bbb     H7 2981   5.301   3.480  11.679  1.2348  0.5454  0.7753
  100bbb     H8 2982   5.307   3.390  11.839 -1.8523 -0.9131  0.9004
  100bbb     C5 2983   5.249   3.144  11.652 -0.7708 -0.2040 -0.3155
  100bbb     H9 2984   5.313   3.221  11.608 -1.3646  0.9848  0.8036
  100bbb    H10 2985   5.217   3.076  11.572  0.2810  0.8693 -1.6938
  100bbb     C6 2986   4.835   3.370  11.750 -0.1495 -0.1689  0.3628
  100bbb    H11 2987   4.738   3.397  11.708  0.7066 -0.0376 -1.6628
  100bbb    H12 2988   4.873   3.456  11.808  0.2030  0.2575 -0.4826
  100bbb     C7 2989   5.295   3.601  11.854 -0.0408  0.0839  0.1146
  100bbb    H13 2990   5.262   3.683  11.790 -0.6273  0.1005  0.4284
  100bbb    H14 2991   5.404   3.607  11.865  0.2418 -1.3331 -1.6111
  100bbb     C8 2992   4.811   3.242  11.830  0.5193  0.3758 -0.4118
  100bbb    H15 2993   4.903   3.201  11.873 -0.0463 -0.5043 -0.0105
  100bbb    H16 2994   4.738   3.260  11.910  0.9480 -0.4129  0.1669
  100bbb     C9 2995   5.333   3.067  11.759 -0.5864  0.1372 -0.0578
  100bbb    H17 2996   5.425   3.032  11.710 -0.8303  0.4841 -0.7846
  100bbb    H18 2997   5.278   2.983  11.804 -0.6979  0.3306  0.1625
  100bbb     O1 2998   5.216   3.619  11.982  0.2612 -0.1543 -0.6670
  100bbb    H19 2999   5.138   3.363  11.580  2.2330  0.1402  1.1017
  101bbb     N1 3000   6.165   3.431  10.647  0.3340  0.1370 -0.2818
  101bbb     C1 3001   6.270   3.475  10.551 -0.8398 -0.0277 -0.0638
  101bbb     H1 3002   6.273   3.407  10.466 -2.2061  0.1226 -0.2476
  101bbb     H2 3003   6.364   3.471  10.607 -0.9309 -0.8609  0.0471
  101bbb     C2 3004   6.020   3.436  10.594 -0.3402  0.0033  0.6697
  101bbb     H3 3005   6.020   3.349  10.528  0.8410  0.6325 -0.1988
  101bbb     H4 3006   5.993   3.535  10.556  0.7943  0.5280  1.1700
  101bbb     C3 3007   6.193   3.288  10.702  0.4958  0.4055 -0.6619
  101bbb     H5 3008   6.217   3.221  10.619 -2.8475  0.3249 -1.6818
  101bbb     H6 3009   6.105   3.249  10.753 -0.7686  2.1994 -1.3881
  101bbb     C4 3010   6.312   3.260  10.794 -0.1503 -0.4911 -0.2321
  101bbb     H7 3011   6.315   3.330  10.879  0.5794  0.4257 -0.9987
  101bbb     H8 3012   6.403   3.290  10.742  2.0041 -1.6804  2.5654
  101bbb     C5 3013   6.258   3.616  10.494 -0.3137 -0.5539  0.3679
  101bbb     H9 3014   6.158   3.631  10.453 -0.3571 -3.3683 -0.7593
  101bbb    H10 3015   6.330   3.644  10.416  0.2296  2.6198  1.8485
  101bbb     C6 3016   5.905   3.414  10.692 -0.7300 -0.2681 -0.0199
  101bbb    H11 3017   5.911   3.485  10.775 -0.5117 -0.3973  0.0761
  101bbb    H12 3018   5.901   3.310  10.727 -0.4046 -0.0630  0.6391
  101bbb     C7 3019   6.330   3.117  10.840 -0.5937 -0.1082 -0.2630
  101bbb    H13 3020   6.416   3.105  10.907 -1.9408 -3.7815  1.0925
  101bbb    H14 3021   6.338   3.051  10.753 -1.7350 -3.3612  1.8752
  101bbb     C8 3022   5.775   3.448  10.608 -0.3463  0.6843  0.2556
  101bbb    H15 3023   5.777   3.553  10.574  1.5225 -0.1399 -2.4988
  101bbb    H16 3024   5.776   3.390  10.515 -1.2500  0.5927  0.2996
  101bbb     C9 3025   6.275   3.723  10.610 -0.4656  0.0474  0.5142
  101bbb    H17 3026   6.201   3.700  10.688 -0.8365 -0.6062 -0.0235
  101bbb    H18 3027   6.245   3.822  10.572 -3.2965  0.2581  2.8968
  101bbb     O1 3028   6.208   3.080  10.914 -0.2776 -0.2204 -0.3631
  101bbb    H19 3029   6.177   3.500  10.723  0.3913  1.3511 -1.3405
  102bbb     N1 3030   6.583   2.540  11.617 -0.3999  0.4261 -0.2651
  102bbb     C1 3031   6.690   2.445  11.571 -1.0530 -0.0578  0.8588
  102bbb     H1 3032   6.699   2.362  11.641 -0.1654 -2.0095 -1.4473
  102bbb     H2 3033   6.779   2.503  11.594 -1.4167 -0.4822  3.7136
  102bbb     C2 3034   6.458   2.461  11.648 -0.9051  0.4732 -0.5084
  102bbb     H3 3035   6.480   2.410  11.742  1.2868  0.6574 -0.8561
  102bbb     H4 3036   6.449   2.385  11.569  2.0901 -0.1745 -0.3659
  102bbb     C3 3037   6.644   2.602  11.747 -0.7652  0.3390 -0.3212
  102bbb     H5 3038   6.701   2.527  11.802  0.5265  0.3610 -1.5700
  102bbb     H6 3039   6.557   2.623  11.809 -0.9698  0.4924 -0.6602
  102bbb     C4 3040   6.716   2.733  11.724  0.5311 -0.2458  0.4961
  102bbb     H7 3041   6.811   2.714  11.674  0.5649 -2.5221  1.3052
  102bbb     H8 3042   6.756   2.764  11.821 -0.5403 -0.0134  0.8770
  102bbb     C5 3043   6.689   2.401  11.418 -0.6782  0.1345 -0.7908
  102bbb     H9 3044   6.602   2.339  11.395 -1.4802  0.4268  1.2477
  102bbb    H10 3045   6.771   2.331  11.399 -3.1550 -3.6013  1.1821
  102bbb     C6 3046   6.333   2.549  11.663  0.0944  0.2375  0.9169
  102bbb    H11 3047   6.329   2.619  11.578  1.6104  0.4069  0.9535
  102bbb    H12 3048   6.344   2.618  11.748  0.1322 -0.8126  1.7757
  102bbb     C7 3049   6.644   2.849  11.658  0.1605 -0.9138 -0.2516
  102bbb    H13 3050   6.722   2.923  11.635  0.4834 -0.4983  1.9688
  102bbb    H14 3051   6.567   2.889  11.726  0.2798 -0.5749 -0.3117
  102bbb     C8 3052   6.204   2.468  11.678 -0.1897 -0.1606  0.5631
  102bbb    H15 3053   6.213   2.405  11.767  0.1308  0.4739  0.9810
  102bbb    H16 3054   6.121   2.535  11.703 -0.7397 -1.5596  2.7222
  102bbb     C9 3055   6.706   2.511  11.322  0.2391 -0.3156  0.3316
  102bbb    H17 3056   6.608   2.560  11.331  0.3756 -0.2314  1.5233
  102bbb    H18 3057   6.710   2.478  11.218  0.0240 -1.0089  0.5368
  102bbb     O1 3058   6.581   2.809  11.535 -0.5379  0.1008  0.7818
  102bbb    H19 3059   6.552   2.621  11.560 -2.1126  1.7581  2.3640
  103bbb     N1 3060   8.483   4.141   9.907 -0.1983 -0.2437  0.1741
  103bbb     C1 3061   8.551   4.131   9.765  0.3893 -0.1884  0.2278
  103bbb     H1 3062   8.523   4.224   9.715 -1.1142 -0.3719  0.6658
  103bbb     H2 3063   8.495   4.049   9.721 -2.0218  2.6359 -2.4839
  103bbb     C2 3064   8.516   4.263   9.994 -0.3662 -0.6311 -0.3074
  103bbb     H3 3065   8.470   4.350   9.948 -0.3654 -0.8027 -0.6333
  103bbb     H4 3066   8.624   4.281   9.997 -0.4754  0.7274 -2.6508
  103bbb     C3 3067   8.335   4.150   9.878  0.1907  0.0607  0.0535
  103bbb     H5 3068   8.320   4.244   9.825 -5.3661 -0.1154  0.7033
  103bbb     H6 3069   8.283   4.176   9.970 -2.1279 -1.0941 -0.8489
  103bbb     C4 3070   8.255   4.038   9.818 -0.1627 -0.0758 -0.5230
  103bbb     H7 3071   8.297   3.973   9.740 -0.5913 -0.4025 -0.4882
  103bbb     H8 3072   8.167   4.087   9.774 -0.7669  1.1613  1.9042
  103bbb     C5 3073   8.700   4.099   9.762  0.1713 -0.8491  0.4619
  103bbb     H9 3074   8.730   4.054   9.666  4.5387  3.0247 -0.3060
  103bbb    H10 3075   8.713   4.016   9.833  1.7375 -0.7766  0.2792
  103bbb     C6 3076   8.464   4.245  10.140 -0.3365  0.1484 -0.1441
  103bbb    H11 3077   8.525   4.173  10.196  0.8386  1.0092 -0.2847
  103bbb    H12 3078   8.362   4.206  10.148 -0.5799  0.7630 -0.1796
  103bbb     C7 3079   8.200   3.941   9.925 -0.4154  0.0817 -0.2198
  103bbb    H13 3080   8.285   3.901   9.982 -0.0319 -0.2287 -0.9904
  103bbb    H14 3081   8.149   3.863   9.868  1.2642 -0.8777 -0.4784
  103bbb     C8 3082   8.471   4.370  10.228 -0.2727  0.8138  0.0243
  103bbb    H15 3083   8.421   4.355  10.324  2.4514  2.3734  1.8439
  103bbb    H16 3084   8.573   4.402  10.254  0.0167 -0.8797  1.1211
  103bbb     C9 3085   8.788   4.215   9.788  0.1854  0.4472  0.1105
  103bbb    H17 3086   8.891   4.178   9.776 -0.3270 -1.7428  1.8466
  103bbb    H18 3087   8.782   4.237   9.895  0.2444 -2.3000  0.7334
  103bbb     O1 3088   8.108   4.005  10.006  0.0768 -0.4675 -0.7816
  103bbb    H19 3089   8.502   4.059   9.967 -2.4247 -0.1034  1.1828
  104bbb     N1 3090   8.389   4.360  10.815  0.1743  0.1551  0.8091
  104bbb     C1 3091   8.357   4.288  10.948  0.0772 -0.1182  0.2856
  104bbb     H1 3092   8.376   4.181  10.933 -0.3853 -0.1384 -0.1918
  104bbb     H2 3093   8.255   4.299  10.983 -0.9229 -3.1154 -1.3143
  104bbb     C2 3094   8.522   4.305  10.769 -0.5536  0.5991 -0.4922
  104bbb     H3 3095   8.499   4.206  10.729 -0.4055  0.7366 -0.9278
  104bbb     H4 3096   8.577   4.295  10.863 -1.3199 -1.3167 -0.2049
  104bbb     C3 3097   8.285   4.337  10.701 -0.8170 -0.0721 -0.4579
  104bbb     H5 3098   8.273   4.229  10.690  1.2136 -0.3381 -0.3848
  104bbb     H6 3099   8.325   4.376  10.607 -0.1543  0.6845  0.1253
  104bbb     C4 3100   8.144   4.402  10.718 -0.0578  0.0126  0.0584
  104bbb     H7 3101   8.157   4.511  10.715  0.1637  0.1047  2.4219
  104bbb     H8 3102   8.105   4.387  10.819  0.6999 -0.7927  0.2427
  104bbb     C5 3103   8.456   4.316  11.065  0.4209 -0.0095 -0.4442
  104bbb     H9 3104   8.556   4.275  11.047  0.4056 -0.1933 -0.1054
  104bbb    H10 3105   8.425   4.258  11.152 -0.5361  1.1609  0.0388
  104bbb     C6 3106   8.605   4.378  10.661 -0.2281  0.8121  0.0547
  104bbb    H11 3107   8.625   4.478  10.700  2.7395  0.7259 -0.9937
  104bbb    H12 3108   8.537   4.387  10.575 -0.1789 -1.1810 -0.2388
  104bbb     C7 3109   8.038   4.349  10.620 -0.2381 -0.5057 -0.1990
  104bbb    H13 3110   8.052   4.382  10.516  0.0802  2.6816  0.7581
  104bbb    H14 3111   7.937   4.375  10.653 -0.6585 -1.7445 -0.4372
  104bbb     C8 3112   8.732   4.308  10.609 -0.2773 -1.0592  0.5947
  104bbb    H15 3113   8.780   4.366  10.529 -0.6973  0.8315  1.6609
  104bbb    H16 3114   8.806   4.302  10.690  0.5871  1.3360  0.0671
  104bbb     C9 3115   8.472   4.465  11.103 -0.3520  0.5808 -0.0962
  104bbb    H17 3116   8.540   4.481  11.188 -2.0767 -0.9387  1.6721
  104bbb    H18 3117   8.372   4.503  11.128 -1.0813 -0.9673 -0.5343
  104bbb     O1 3118   8.044   4.207  10.611 -0.3962  0.4498 -0.1964
  104bbb    H19 3119   8.397   4.462  10.823 -2.0658  0.5096 -0.5107
  105bbb     N1 3120   7.250   2.649   9.693 -0.1924  0.2449  0.3373
  105bbb     C1 3121   7.301   2.530   9.618 -0.4876  0.0344 -0.6694
  105bbb     H1 3122   7.372   2.478   9.683  0.1694  0.0245 -1.3789
  105bbb     H2 3123   7.347   2.570   9.527 -1.1438 -0.4522 -1.2230
  105bbb     C2 3124   7.172   2.603   9.811 -1.0186 -0.0308  0.3858
  105bbb     H3 3125   7.206   2.666   9.892  1.9204  0.9801 -1.4701
  105bbb     H4 3126   7.199   2.502   9.842  0.3217  0.1038 -0.2726
  105bbb     C3 3127   7.367   2.733   9.733 -0.7053 -0.1202  0.0474
  105bbb     H5 3128   7.423   2.738   9.639  1.0738 -2.0788  0.9259
  105bbb     H6 3129   7.426   2.677   9.806 -1.6125 -1.6288 -0.3397
  105bbb     C4 3130   7.340   2.880   9.772 -0.1447  0.1477 -0.2839
  105bbb     H7 3131   7.296   2.876   9.872  2.4699 -0.1077  0.9352
  105bbb     H8 3132   7.278   2.929   9.696  1.3690  1.5206 -0.7011
  105bbb     C5 3133   7.204   2.415   9.572  0.1369 -0.1161  0.6372
  105bbb     H9 3134   7.129   2.465   9.510  0.4962  1.3240  1.3252
  105bbb    H10 3135   7.148   2.363   9.651 -1.7506  0.4366 -0.2768
  105bbb     C6 3136   7.019   2.605   9.788 -0.9476 -0.3964 -0.3171
  105bbb    H11 3137   6.976   2.555   9.875 -0.5113  0.5406  0.4675
  105bbb    H12 3138   6.983   2.540   9.707  0.4923 -2.0222  0.2854
  105bbb     C7 3139   7.457   2.977   9.784 -0.0240  0.6547  0.4214
  105bbb    H13 3140   7.532   2.933   9.851 -0.0319 -2.1277 -1.2742
  105bbb    H14 3141   7.420   3.072   9.825 -1.0552  0.8946 -0.9947
  105bbb     C8 3142   6.956   2.752   9.779  0.7558 -0.0734 -0.3671
  105bbb    H15 3143   6.983   2.804   9.686  0.4284 -0.5981 -0.7645
  105bbb    H16 3144   6.848   2.736   9.784  0.7349  0.3107  0.6784
  105bbb     C9 3145   7.267   2.306   9.477  0.0555  0.4243 -0.0600
  105bbb    H17 3146   7.308   2.348   9.384 -0.8478 -0.7846 -1.0519
  105bbb    H18 3147   7.186   2.234   9.460 -0.9853  1.1061  1.7537
  105bbb     O1 3148   7.528   2.996   9.655 -0.3283 -0.4433  0.2627
  105bbb    H19 3149   7.183   2.700   9.633  0.3473 -0.1890 -0.6559
  106bbb     N1 3150   8.139   3.402   9.257  0.4525  0.0900  0.4254
  106bbb     C1 3151   8.182   3.323   9.131  0.4202 -0.6121 -0.6108
  106bbb     H1 3152   8.291   3.317   9.138  0.3062 -1.8307  0.2832
  106bbb     H2 3153   8.157   3.378   9.040  0.4232  0.6564  0.1322
  106bbb     C2 3154   8.252   3.491   9.311  0.1714 -0.4804  0.8600
  106bbb     H3 3155   8.333   3.420   9.328 -0.2252 -0.8540  1.2097
  106bbb     H4 3156   8.222   3.540   9.404 -0.9638  2.3617 -0.8391
  106bbb     C3 3157   8.013   3.485   9.228 -0.0576  0.1013  0.6313
  106bbb     H5 3158   7.937   3.419   9.187  0.7041 -0.6114  0.3312
  106bbb     H6 3159   8.022   3.555   9.145  1.9123  0.4510  1.0771
  106bbb     C4 3160   7.952   3.554   9.355  0.1360 -0.1444 -0.7777
  106bbb     H7 3161   8.014   3.639   9.389 -0.6509  0.8114 -1.6733
  106bbb     H8 3162   7.954   3.485   9.441  0.4635 -0.6187 -1.1577
  106bbb     C5 3163   8.124   3.181   9.113  0.3258 -0.5487  0.3496
  106bbb     H9 3164   8.015   3.195   9.105  0.3360  1.1917  2.3423
  106bbb    H10 3165   8.144   3.127   9.206 -1.0818 -0.7290  0.5695
  106bbb     C6 3166   8.295   3.609   9.212  0.1879  0.1955 -0.1537
  106bbb    H11 3167   8.226   3.694   9.214  0.1977  0.2069 -0.2515
  106bbb    H12 3168   8.277   3.578   9.108 -1.6893 -0.5561  0.3526
  106bbb     C7 3169   7.811   3.611   9.335  1.1714 -0.0131 -0.5806
  106bbb    H13 3170   7.812   3.664   9.239 -0.9160 -0.1068 -0.6927
  106bbb    H14 3171   7.799   3.694   9.406 -0.7994  0.7544 -1.7149
  106bbb     C8 3172   8.440   3.651   9.230  0.5377 -0.3790  0.2184
  106bbb    H15 3173   8.466   3.720   9.148 -0.0555 -0.0630  0.2910
  106bbb    H16 3174   8.447   3.710   9.322  0.0629 -0.6686  0.4444
  106bbb     C9 3175   8.163   3.100   8.989 -0.3493  0.8257 -0.4186
  106bbb    H17 3176   8.136   3.153   8.896  0.3782  1.3193 -0.3575
  106bbb    H18 3177   8.105   3.007   8.992 -0.1575  0.7179 -0.1254
  106bbb     O1 3178   7.711   3.507   9.350 -0.5547  0.0169  0.2778
  106bbb    H19 3179   8.108   3.346   9.338 -1.1104 -1.1686 -0.9766
  107bbb     N1 3180   6.329   5.806   9.439  0.2818  0.4436 -0.5229
  107bbb     C1 3181   6.395   5.876   9.557  0.5255  0.3563 -0.1511
  107bbb     H1 3182   6.322   5.956   9.570 -1.7921 -1.6891  0.2049
  107bbb     H2 3183   6.485   5.928   9.522  2.0613 -1.4956  0.8580
  107bbb     C2 3184   6.415   5.703   9.372  0.4898 -0.9761 -0.7343
  107bbb     H3 3185   6.368   5.674   9.277 -0.2566 -0.0633 -0.6595
  107bbb     H4 3186   6.418   5.616   9.438 -0.6789  0.7464  1.7500
  107bbb     C3 3187   6.210   5.730   9.490 -0.5243  0.0688  0.1258
  107bbb     H5 3188   6.255   5.655   9.555  1.0188 -0.3483 -1.3387
  107bbb     H6 3189   6.168   5.676   9.405 -2.3034  0.1851  0.8922
  107bbb     C4 3190   6.093   5.815   9.551 -0.3215  0.7888 -0.7748
  107bbb     H7 3191   6.068   5.901   9.488  1.1176  0.2674 -2.1262
  107bbb     H8 3192   6.132   5.863   9.642  1.9211 -3.0412  0.5169
  107bbb     C5 3193   6.410   5.801   9.686 -0.4733 -0.7149 -0.2326
  107bbb     H9 3194   6.471   5.712   9.668  1.3843  0.5595 -0.5902
  107bbb    H10 3195   6.312   5.779   9.729 -0.8445  1.9459  0.4458
  107bbb     C6 3196   6.556   5.769   9.335 -0.6243  0.7315 -0.2228
  107bbb    H11 3197   6.621   5.790   9.420 -0.2731  0.3765 -0.4018
  107bbb    H12 3198   6.534   5.863   9.283 -0.7419 -0.2660 -2.0478
  107bbb     C7 3199   5.964   5.743   9.576  0.5823 -0.2737  0.1617
  107bbb    H13 3200   5.906   5.748   9.483  1.2853 -2.1669 -0.4158
  107bbb    H14 3201   5.910   5.798   9.655  3.0551  1.5664  0.6941
  107bbb     C8 3202   6.639   5.684   9.232 -0.1603 -0.8995  0.6343
  107bbb    H15 3203   6.715   5.748   9.185 -0.0828 -1.7527 -0.4583
  107bbb    H16 3204   6.680   5.600   9.289  1.0516 -0.7642 -0.0022
  107bbb     C9 3205   6.476   5.891   9.793 -0.6643 -0.3751 -0.4647
  107bbb    H17 3206   6.583   5.912   9.779 -0.8747  2.7627  1.5618
  107bbb    H18 3207   6.449   5.836   9.883  3.8297  0.5394  1.7395
  107bbb     O1 3208   5.994   5.609   9.614  0.2806 -0.4437 -0.2656
  107bbb    H19 3209   6.300   5.875   9.368 -0.3782 -0.4453 -1.1477
  108bbb     N1 3210   5.713   5.590  10.428 -0.0079 -0.6572 -0.0421
  108bbb     C1 3211   5.736   5.513  10.561 -0.1927  0.1031 -0.1160
  108bbb     H1 3212   5.683   5.576  10.633 -1.1854 -1.4715  0.5761
  108bbb     H2 3213   5.841   5.529  10.583 -0.1730 -0.0161 -0.1279
  108bbb     C2 3214   5.618   5.710  10.442  1.0983  0.8011 -0.6924
  108bbb     H3 3215   5.651   5.797  10.385 -0.1073  1.9741  0.3499
  108bbb     H4 3216   5.631   5.737  10.547 -0.9146  0.0192 -0.1958
  108bbb     C3 3217   5.854   5.647  10.387 -0.3918 -0.1788 -0.1768
  108bbb     H5 3218   5.922   5.565  10.363  2.1809  0.9825  2.4617
  108bbb     H6 3219   5.900   5.701  10.470 -1.9288  0.6496  0.1694
  108bbb     C4 3220   5.856   5.727  10.247  0.3639  0.8165  0.2339
  108bbb     H7 3221   5.811   5.824  10.271  1.7452  1.4649  0.2879
  108bbb     H8 3222   5.788   5.678  10.177 -0.2008 -1.0531  1.9735
  108bbb     C5 3223   5.692   5.365  10.571 -0.5757  0.2042 -0.1754
  108bbb     H9 3224   5.744   5.323  10.658 -0.4380  0.3514 -0.1862
  108bbb    H10 3225   5.719   5.301  10.485 -1.2562 -1.2908  0.6897
  108bbb     C6 3226   5.461   5.690  10.417 -0.4356  0.4829  0.3749
  108bbb    H11 3227   5.414   5.606  10.470 -0.1064 -0.8353 -1.3077
  108bbb    H12 3228   5.452   5.680  10.308  1.6454 -0.5354  0.2516
  108bbb     C7 3229   5.994   5.742  10.185 -0.0474 -0.0547  0.3011
  108bbb    H13 3230   6.042   5.796  10.267 -0.1071  0.6145 -0.0927
  108bbb    H14 3231   5.995   5.797  10.090  1.8038  0.0813  0.3712
  108bbb     C8 3232   5.384   5.820  10.468 -0.1251  0.7039  0.1863
  108bbb    H15 3233   5.296   5.835  10.405 -1.5534 -1.2394  1.6485
  108bbb    H16 3234   5.346   5.811  10.570 -0.3615 -0.9306 -0.0324
  108bbb     C9 3235   5.545   5.347  10.587  0.2983 -0.2378  0.2992
  108bbb    H17 3236   5.513   5.242  10.589  1.5194 -0.6169  0.5588
  108bbb    H18 3237   5.488   5.404  10.512 -0.7410 -3.4424 -1.5637
  108bbb     O1 3238   6.057   5.613  10.170 -0.3950  0.2574  0.1773
  108bbb    H19 3239   5.671   5.532  10.353  2.7346 -1.3160 -1.1810
  109bbb     N1 3240   7.843   5.040   9.601  0.1472  0.2614  0.4572
  109bbb     C1 3241   7.865   4.980   9.462 -0.1300 -0.4742  0.1552
  109bbb     H1 3242   7.951   4.914   9.475  0.1324 -0.4724 -1.3968
  109bbb     H2 3243   7.900   5.050   9.386 -1.9650 -1.1914 -1.4642
  109bbb     C2 3244   7.973   5.077   9.655  0.0736 -0.3317 -0.5796
  109bbb     H3 3245   7.974   5.186   9.665 -1.2564 -0.3505 -0.0002
  109bbb     H4 3246   8.050   5.046   9.584  0.6384  1.8382 -1.0103
  109bbb     C3 3247   7.757   5.165   9.583  0.0444  0.0572 -0.5897
  109bbb     H5 3248   7.667   5.132   9.533 -0.3114  0.2200 -0.0640
  109bbb     H6 3249   7.808   5.229   9.511 -1.9702 -0.2024 -2.3377
  109bbb     C4 3250   7.714   5.237   9.716  0.5076  0.4047  0.2645
  109bbb     H7 3251   7.802   5.279   9.768  0.3992 -0.1896  0.9506
  109bbb     H8 3252   7.663   5.166   9.782  0.5096  1.9120  1.9714
  109bbb     C5 3253   7.746   4.901   9.413 -0.9120  0.5026  0.3290
  109bbb     H9 3254   7.656   4.962   9.397 -1.2752 -0.1283 -0.1127
  109bbb    H10 3255   7.716   4.820   9.482 -0.5874 -0.8977 -1.1186
  109bbb     C6 3256   8.013   5.021   9.795  0.1450  0.9999 -0.1233
  109bbb    H11 3257   7.935   5.048   9.868 -1.1040  0.9797 -1.3984
  109bbb    H12 3258   8.107   5.058   9.837  1.0395 -1.0615 -0.2353
  109bbb     C7 3259   7.601   5.349   9.699 -0.1811 -0.0391 -0.5426
  109bbb    H13 3260   7.634   5.435   9.638  0.3346 -0.4565 -0.8566
  109bbb    H14 3261   7.578   5.398   9.794 -2.5997 -2.0562 -0.0087
  109bbb     C8 3262   8.028   4.870   9.793  0.5915  0.1081 -0.1449
  109bbb    H15 3263   8.108   4.843   9.863  1.1766  2.7185  0.3124
  109bbb    H16 3264   7.928   4.842   9.827 -0.1325  2.9171  0.3251
  109bbb     C9 3265   7.783   4.839   9.271 -0.8769  0.0885 -0.8557
  109bbb    H17 3266   7.704   4.773   9.233 -1.6648 -1.8656  3.6314
  109bbb    H18 3267   7.873   4.779   9.282 -1.4137 -0.3910  1.1912
  109bbb     O1 3268   7.476   5.297   9.661 -0.0460 -0.0244  0.0485
  109bbb    H19 3269   7.797   4.974   9.665  1.5010  0.0429  1.2292
  110bbb     N1 3270   7.159   5.121   9.191 -0.7382  0.4836  0.7448
  110bbb     C1 3271   7.050   5.048   9.109  0.5691  0.2259 -0.0548
  110bbb     H1 3272   7.089   4.962   9.055 -1.1908 -0.8159  0.2611
  110bbb     H2 3273   7.037   5.117   9.026  1.1226 -0.4733 -0.7301
  110bbb     C2 3274   7.110   5.250   9.264 -0.3152  1.0276 -0.6584
  110bbb     H3 3275   7.198   5.279   9.322 -0.6159  0.1108  0.2859
  110bbb     H4 3276   7.029   5.210   9.325 -1.3392 -0.3510 -2.8247
  110bbb     C3 3277   7.199   5.023   9.300  1.2741  0.2499 -0.2911
  110bbb     H5 3278   7.108   4.966   9.320  2.7656 -1.0294  3.6994
  110bbb     H6 3279   7.232   5.070   9.393  0.5083 -0.7914  0.5206
  110bbb     C4 3280   7.303   4.922   9.259  0.3184  0.5501  0.0992
  110bbb     H7 3281   7.399   4.965   9.228  1.2738 -0.9812  0.7889
  110bbb     H8 3282   7.273   4.858   9.176  3.2408 -0.5612 -0.2171
  110bbb     C5 3283   6.898   5.044   9.159 -0.1750 -0.0334  0.1493
  110bbb     H9 3284   6.835   5.067   9.072  1.8503  1.4290 -1.0249
  110bbb    H10 3285   6.877   5.136   9.213  2.4157 -0.4842  2.1404
  110bbb     C6 3286   7.067   5.368   9.175  0.0347  0.2093  0.6473
  110bbb    H11 3287   6.978   5.359   9.111  2.5188 -1.3176 -2.9374
  110bbb    H12 3288   7.141   5.376   9.094 -1.5499  0.2710 -0.8414
  110bbb     C7 3289   7.344   4.834   9.378 -0.0064 -0.4902 -0.0714
  110bbb    H13 3290   7.409   4.754   9.342 -0.5051 -1.0114  0.1584
  110bbb    H14 3291   7.252   4.783   9.410  0.1810 -0.1441  1.0570
  110bbb     C8 3292   7.071   5.504   9.249 -0.0202 -0.7819 -0.0053
  110bbb    H15 3293   7.177   5.534   9.252  0.2234 -1.5571 -0.4026
  110bbb    H16 3294   7.006   5.570   9.191  0.3474  0.1766  0.6582
  110bbb     C9 3295   6.854   4.923   9.244 -0.0967  0.5704  0.4109
  110bbb    H17 3296   6.898   4.832   9.200  0.6638  0.5612  1.1735
  110bbb    H18 3297   6.746   4.920   9.225 -0.1813  2.0468  0.5352
  110bbb     O1 3298   7.396   4.916   9.485  0.2897  0.2079 -0.7237
  110bbb    H19 3299   7.241   5.142   9.132 -0.6837  2.2412  1.3896
  111bbb     N1 3300   2.681   3.962   8.938 -0.0371 -0.1127 -0.2169
  111bbb     C1 3301   2.747   3.997   8.813 -0.1785 -0.7013 -0.3842
  111bbb     H1 3302   2.774   3.899   8.772 -1.2656 -0.9184 -0.6043
  111bbb     H2 3303   2.836   4.057   8.833  0.4010 -1.8846  0.6595
  111bbb     C2 3304   2.593   3.833   8.922 -0.4664 -0.1519  0.0886
  111bbb     H3 3305   2.663   3.751   8.902  1.0854  1.4883 -1.7096
  111bbb     H4 3306   2.536   3.847   8.830  0.3086  3.3190 -0.0129
  111bbb     C3 3307   2.786   3.941   9.050  0.3280  0.3122 -0.3987
  111bbb     H5 3308   2.733   3.938   9.145 -0.4547 -0.6171 -0.8472
  111bbb     H6 3309   2.862   4.020   9.053 -0.0745  0.7811 -1.7303
  111bbb     C4 3310   2.860   3.805   9.050  0.0989 -0.3387 -0.0348
  111bbb     H7 3311   2.797   3.721   9.082 -3.5835  1.1225 -2.6905
  111bbb     H8 3312   2.933   3.812   9.130  1.2714  2.4454 -1.2063
  111bbb     C5 3313   2.650   4.071   8.706 -0.0434  0.3502 -0.7935
  111bbb     H9 3314   2.599   4.160   8.744 -0.8428 -0.1278 -0.7172
  111bbb    H10 3315   2.565   4.010   8.670  0.2655 -0.9998  0.6739
  111bbb     C6 3316   2.494   3.810   9.044  0.6705  0.4215 -0.0857
  111bbb    H11 3317   2.401   3.864   9.022  0.8027  1.2319  1.2214
  111bbb    H12 3318   2.537   3.849   9.137  1.1130  1.3554 -0.6668
  111bbb     C7 3319   2.939   3.776   8.918  0.4209  0.6737  0.1246
  111bbb    H13 3320   2.869   3.760   8.835  2.9586 -1.3130 -1.8029
  111bbb    H14 3321   2.992   3.681   8.929  0.7667  0.8578  0.0484
  111bbb     C8 3322   2.463   3.664   9.059 -0.3728 -1.1047 -0.5292
  111bbb    H15 3323   2.562   3.619   9.074  0.2976  0.1908 -0.9077
  111bbb    H16 3324   2.403   3.647   9.149  2.0867  0.3758  1.5250
  111bbb     C9 3325   2.730   4.117   8.581  0.2248  0.8010  0.8931
  111bbb    H17 3326   2.680   4.204   8.535 -1.6918 -0.6806  0.0058
  111bbb    H18 3327   2.719   4.033   8.513  0.6823 -0.3065  2.1430
  111bbb     O1 3328   3.029   3.886   8.889  0.0514 -0.4168 -0.5121
  111bbb    H19 3329   2.622   4.044   8.956  2.1827  1.3737  0.6982
  112bbb     N1 3330   2.864   4.697   8.817 -0.3252  0.2365  0.4100
  112bbb     C1 3331   2.726   4.643   8.781  0.2793 -0.1050 -0.3396
  112bbb     H1 3332   2.675   4.717   8.719  0.7265 -0.7731 -1.5435
  112bbb     H2 3333   2.663   4.656   8.869  1.2873 -0.5164  0.4586
  112bbb     C2 3334   2.834   4.843   8.850  0.5045 -0.4048 -0.3936
  112bbb     H3 3335   2.807   4.853   8.955  1.3315  2.9852 -0.3959
  112bbb     H4 3336   2.755   4.874   8.782  0.1927  0.0729  0.1852
  112bbb     C3 3337   2.927   4.630   8.938  0.0983 -0.1245  0.0832
  112bbb     H5 3338   2.899   4.525   8.932 -0.1577 -0.2137  2.0899
  112bbb     H6 3339   2.874   4.671   9.024 -1.5295 -1.7236 -0.1076
  112bbb     C4 3340   3.081   4.638   8.950 -0.0494  0.2846 -0.1103
  112bbb     H7 3341   3.116   4.741   8.965  2.9138 -0.3068 -1.9388
  112bbb     H8 3342   3.140   4.602   8.864  0.8169  0.6746  0.3037
  112bbb     C5 3343   2.700   4.501   8.728  0.4627  0.1170  0.1528
  112bbb     H9 3344   2.616   4.456   8.783 -0.3257  0.9144 -0.3728
  112bbb    H10 3345   2.786   4.434   8.738 -1.5443 -2.8086 -0.6596
  112bbb     C6 3346   2.945   4.944   8.816 -0.1410  0.0395  0.5420
  112bbb    H11 3347   3.029   4.931   8.886 -0.1809 -1.4561  0.3463
  112bbb    H12 3348   2.904   5.045   8.830 -1.9656 -0.6085  0.1629
  112bbb     C7 3349   3.126   4.559   9.072 -0.8540 -0.2464 -0.0295
  112bbb    H13 3350   3.065   4.585   9.160 -2.2457  2.1853 -1.6014
  112bbb    H14 3351   3.230   4.581   9.098 -1.0846 -0.7958  1.4560
  112bbb     C8 3352   3.003   4.942   8.673  0.4985 -0.1072 -0.2500
  112bbb    H15 3353   2.930   4.974   8.597 -0.5578 -0.7214  0.4742
  112bbb    H16 3354   3.076   5.023   8.665 -0.7495  1.1832  0.9590
  112bbb     C9 3355   2.656   4.503   8.580 -0.0581 -1.1654 -0.4085
  112bbb    H17 3356   2.574   4.572   8.556 -0.4962 -0.8740  1.6913
  112bbb    H18 3357   2.607   4.409   8.555 -0.5431 -1.0825  0.2100
  112bbb     O1 3358   3.113   4.415   9.054 -0.4017  0.5884  0.3038
  112bbb    H19 3359   2.922   4.697   8.732  0.5471 -2.1190  0.9455
  113bbb     N1 3360   4.847   4.044   8.839 -0.1477 -0.1830  0.3235
  113bbb     C1 3361   4.941   4.070   8.718  0.5064 -0.6572  0.3906
  113bbb     H1 3362   4.997   4.163   8.727 -0.6270  0.0549  0.3624
  113bbb     H2 3363   4.872   4.090   8.636  1.2171 -0.1714 -0.0896
  113bbb     C2 3364   4.774   3.911   8.828  0.4246 -1.2635  0.2554
  113bbb     H3 3365   4.732   3.895   8.927  0.6641 -1.8246  0.2702
  113bbb     H4 3366   4.832   3.822   8.801 -1.2389 -1.6197 -2.4765
  113bbb     C3 3367   4.931   4.050   8.969  0.5907 -0.6051  0.0756
  113bbb     H5 3368   4.983   4.145   8.973  1.5329 -1.0721 -0.7925
  113bbb     H6 3369   5.009   3.974   8.978 -0.3431 -1.3718  2.4806
  113bbb     C4 3370   4.848   4.047   9.100  0.3775  0.3433 -0.2180
  113bbb     H7 3371   4.920   4.079   9.177  0.9100 -2.2686  0.4392
  113bbb     H8 3372   4.813   3.945   9.118  0.8827 -0.3665 -2.7756
  113bbb     C5 3373   5.036   3.959   8.676  0.8615 -0.0926  0.4848
  113bbb     H9 3374   4.989   3.860   8.676  2.5815 -0.9900 -1.3941
  113bbb    H10 3375   5.113   3.946   8.752 -1.6284 -3.3053  2.7113
  113bbb     C6 3376   4.661   3.912   8.726 -0.1227 -0.3456  0.1955
  113bbb    H11 3377   4.613   4.010   8.721  0.6995  0.0075 -1.7276
  113bbb    H12 3378   4.583   3.842   8.759  1.2540 -0.9857  2.2791
  113bbb     C7 3379   4.732   4.149   9.090  0.4602 -0.0788  0.1637
  113bbb    H13 3380   4.764   4.247   9.053  0.1637 -0.4871 -1.2490
  113bbb    H14 3381   4.691   4.167   9.190  1.0813 -1.1985  0.6425
  113bbb     C8 3382   4.701   3.876   8.574 -0.1157  0.4662  0.2781
  113bbb    H15 3383   4.606   3.864   8.520  0.4517 -0.4294 -0.5552
  113bbb    H16 3384   4.765   3.947   8.522 -1.4956  0.3569 -1.6630
  113bbb     C9 3385   5.096   3.984   8.533 -0.2139  0.2452  0.7913
  113bbb    H17 3386   5.187   3.924   8.525  0.5556  1.6116 -1.3555
  113bbb    H18 3387   5.126   4.089   8.522 -0.4440  0.1568 -0.7946
  113bbb     O1 3388   4.622   4.093   9.016  0.2278  0.0105  0.6944
  113bbb    H19 3389   4.778   4.120   8.842  0.4256  0.3358  0.6904
  114bbb     N1 3390   4.195   3.415   8.655  0.3354  0.4356  0.0306
  114bbb     C1 3391   4.061   3.406   8.716 -0.0075  0.3418  0.2852
  114bbb     H1 3392   4.025   3.505   8.744 -0.3628  0.4842 -0.6207
  114bbb     H2 3393   4.059   3.339   8.802 -2.7146 -0.9411 -0.6500
  114bbb     C2 3394   4.188   3.515   8.536 -0.0981  0.4006 -0.0857
  114bbb     H3 3395   4.114   3.472   8.469 -0.4814  0.3383  0.3749
  114bbb     H4 3396   4.284   3.497   8.488  1.6396 -0.8718  3.4618
  114bbb     C3 3397   4.296   3.472   8.760 -0.2236  0.1001  0.4183
  114bbb     H5 3398   4.276   3.407   8.845 -1.3720  1.5364  1.2901
  114bbb     H6 3399   4.256   3.570   8.788 -2.0763 -0.9377  1.6539
  114bbb     C4 3400   4.445   3.474   8.713  0.3464  0.0895 -0.7102
  114bbb     H7 3401   4.445   3.550   8.635 -0.7340 -0.2095 -1.0255
  114bbb     H8 3402   4.469   3.376   8.671  1.8501  0.4829 -0.8272
  114bbb     C5 3403   3.942   3.340   8.631 -1.1465  0.0461 -0.1038
  114bbb     H9 3404   3.896   3.412   8.562 -2.3251 -1.5207 -1.0169
  114bbb    H10 3405   3.864   3.332   8.708  1.0024 -0.7186  2.1386
  114bbb     C6 3406   4.157   3.666   8.556  0.4717  0.6252 -0.4522
  114bbb    H11 3407   4.218   3.710   8.636 -1.5726 -0.9815  2.1830
  114bbb    H12 3408   4.056   3.677   8.598  0.3861 -1.5898  0.0441
  114bbb     C7 3409   4.553   3.485   8.824 -0.1962 -0.6995 -0.0023
  114bbb    H13 3410   4.646   3.513   8.773  0.5839  0.5153  1.9794
  114bbb    H14 3411   4.574   3.391   8.876  1.0696 -0.5959 -0.2826
  114bbb     C8 3412   4.169   3.748   8.429  0.3197  0.9158  0.0209
  114bbb    H15 3413   4.121   3.692   8.347 -1.3829  1.9469  0.2797
  114bbb    H16 3414   4.101   3.833   8.436 -1.3108 -0.3129 -0.1245
  114bbb     C9 3415   3.963   3.207   8.556  0.4043 -0.3743 -0.2098
  114bbb    H17 3416   3.882   3.184   8.486 -1.2700  2.0376  0.8137
  114bbb    H18 3417   3.961   3.122   8.627 -1.1106 -0.5790 -0.4603
  114bbb     O1 3418   4.513   3.587   8.924  0.5375  0.0874 -0.2584
  114bbb    H19 3419   4.238   3.325   8.629  1.2941  1.4164 -2.0690
  115bbb     N1 3420   2.727   3.442  10.388  0.2841  0.5593 -0.3198
  115bbb     C1 3421   2.657   3.565  10.447 -0.2538  0.6524  0.4904
  115bbb     H1 3422   2.555   3.547  10.481 -0.6694 -0.1343 -1.1047
  115bbb     H2 3423   2.656   3.636  10.364 -1.8522 -0.6032 -0.6193
  115bbb     C2 3424   2.628   3.359  10.307 -0.3115 -0.0663  0.1123
  115bbb     H3 3425   2.536   3.362  10.365 -1.2712  0.7079 -1.4063
  115bbb     H4 3426   2.679   3.263  10.309 -0.2832 -0.0647 -0.4029
  115bbb     C3 3427   2.856   3.481  10.310 -0.6885 -0.1024  0.4459
  115bbb     H5 3428   2.900   3.571  10.353 -0.8306 -0.1877  0.7748
  115bbb     H6 3429   2.835   3.505  10.206 -0.3584 -0.3990  0.3092
  115bbb     C4 3430   2.952   3.361  10.314  0.3737  1.0192 -0.1550
  115bbb     H7 3431   3.044   3.380  10.257  1.5047 -1.4783  0.6993
  115bbb     H8 3432   2.908   3.274  10.265  0.7202  0.8741 -0.2150
  115bbb     C5 3433   2.728   3.631  10.560 -0.3476 -0.0240  0.4798
  115bbb     H9 3434   2.831   3.652  10.529 -0.2745 -0.0346  0.7118
  115bbb    H10 3435   2.737   3.566  10.648  0.2323  0.1082  0.5232
  115bbb     C6 3436   2.609   3.413  10.162  0.1585  0.3380 -0.0165
  115bbb    H11 3437   2.533   3.343  10.125  0.2254  0.4437 -0.3523
  115bbb    H12 3438   2.696   3.381  10.103 -0.4209 -0.3691 -0.5019
  115bbb     C7 3439   2.985   3.324  10.460 -0.4816 -0.6767  0.5353
  115bbb    H13 3440   3.023   3.408  10.519 -0.2953 -1.0015  0.8841
  115bbb    H14 3441   3.070   3.255  10.459  0.5091  0.4842 -0.5573
  115bbb     C8 3442   2.562   3.557  10.138  0.3575 -0.3569  0.1006
  115bbb    H15 3443   2.645   3.613  10.183  0.6892  0.2037 -1.1761
  115bbb    H16 3444   2.549   3.569  10.030  0.3171  2.9478  0.3674
  115bbb     C9 3445   2.666   3.764  10.614 -0.9712  0.6193 -0.5663
  115bbb    H17 3446   2.680   3.844  10.541  0.8922 -1.0187 -2.1086
  115bbb    H18 3447   2.723   3.797  10.701  1.1615 -1.1280 -1.2217
  115bbb     O1 3448   2.872   3.267  10.533  0.2390  0.0370 -0.4956
  115bbb    H19 3449   2.752   3.386  10.471  1.1955  0.9233 -0.3348
  116bbb     N1 3450   1.995   3.294  10.828 -0.1723  0.4878 -0.0108
  116bbb     C1 3451   1.893   3.383  10.763 -0.3577  0.1843 -0.2700
  116bbb     H1 3452   1.825   3.419  10.840 -0.6175 -2.6383  0.9705
  116bbb     H2 3453   1.846   3.323  10.685 -1.4017  1.8823 -1.0076
  116bbb     C2 3454   1.929   3.187  10.921  0.0923  0.3314 -0.6383
  116bbb     H3 3455   1.986   3.098  10.946 -2.9247 -1.4312  0.5116
  116bbb     H4 3456   1.852   3.152  10.852  0.7550 -0.0549 -1.1872
  116bbb     C3 3457   2.063   3.216  10.721 -0.1142 -0.1678  0.0540
  116bbb     H5 3458   2.092   3.290  10.646 -2.1286 -0.2205 -0.8515
  116bbb     H6 3459   1.996   3.149  10.667  1.3642 -0.8583 -1.0082
  116bbb     C4 3460   2.184   3.131  10.757  0.3784  0.4012 -0.0278
  116bbb     H7 3461   2.161   3.054  10.831  3.2026  0.2332  0.7962
  116bbb     H8 3462   2.262   3.194  10.802 -0.9083  1.0169  1.3769
  116bbb     C5 3463   1.955   3.503  10.691  0.4250 -0.0608  0.0908
  116bbb     H9 3464   2.040   3.480  10.626  0.5101  0.3286  0.0671
  116bbb    H10 3465   1.993   3.575  10.764  1.6102  0.7513 -1.2708
  116bbb     C6 3466   1.858   3.236  11.048 -0.3760  1.2224  0.5053
  116bbb    H11 3467   1.819   3.140  11.084  1.2896 -0.0457 -0.8787
  116bbb    H12 3468   1.774   3.302  11.023 -1.5317  0.1377  1.3992
  116bbb     C7 3469   2.236   3.053  10.633 -0.3568  0.2946  0.0945
  116bbb    H13 3470   2.245   3.126  10.552 -0.4250  0.4851  0.2568
  116bbb    H14 3471   2.157   2.985  10.601 -0.6065  0.6886 -0.1357
  116bbb     C8 3472   1.961   3.296  11.148  0.5218 -0.1995 -0.0441
  116bbb    H15 3473   1.928   3.285  11.252 -0.1486  0.3363 -0.1989
  116bbb    H16 3474   2.051   3.233  11.141  0.2669 -0.8214  1.7316
  116bbb     C9 3475   1.845   3.588  10.618 -0.6599 -0.3756  0.4792
  116bbb    H17 3476   1.768   3.615  10.691  0.5693  0.5436  1.4732
  116bbb    H18 3477   1.805   3.526  10.537 -0.7133  0.9987 -0.5657
  116bbb     O1 3478   2.363   2.985  10.644  0.5482 -0.0033  0.5166
  116bbb    H19 3479   2.058   3.353  10.883  1.7330 -2.5724  1.3749
  117bbb     N1 3480   3.766   2.889  11.333  0.2957  0.0894  0.2153
  117bbb     C1 3481   3.854   2.785  11.263 -0.1423  0.3224 -0.0489
  117bbb     H1 3482   3.949   2.838  11.264  0.1139 -0.1209  0.7653
  117bbb     H2 3483   3.823   2.775  11.159  0.3869  0.9550 -0.2685
  117bbb     C2 3484   3.795   3.009  11.243  0.2389  0.1038  0.2428
  117bbb     H3 3485   3.779   2.977  11.140 -0.2689  1.6376 -0.1778
  117bbb     H4 3486   3.900   3.033  11.262  0.4595 -1.1868  0.7566
  117bbb     C3 3487   3.622   2.835  11.326 -0.1443 -0.2993  0.0608
  117bbb     H5 3488   3.635   2.728  11.309 -0.1971 -0.5565  1.5341
  117bbb     H6 3489   3.567   2.878  11.242  1.1662  1.7775  0.2038
  117bbb     C4 3490   3.545   2.851  11.455 -0.4588  0.1629 -0.0965
  117bbb     H7 3491   3.524   2.958  11.451 -1.8849 -0.1295 -2.4515
  117bbb     H8 3492   3.601   2.821  11.544  0.1839 -0.6962 -0.7645
  117bbb     C5 3493   3.874   2.646  11.345 -0.2683  0.0969  0.6579
  117bbb     H9 3494   3.817   2.569  11.291 -0.4545 -0.1182  1.1522
  117bbb    H10 3495   3.841   2.645  11.450  1.2158 -2.6199  1.1856
  117bbb     C6 3496   3.709   3.134  11.266  0.3402  0.3047 -0.2560
  117bbb    H11 3497   3.606   3.098  11.279  0.5480 -0.2893 -0.2432
  117bbb    H12 3498   3.715   3.189  11.171 -1.1147 -0.5095 -0.8460
  117bbb     C7 3499   3.410   2.768  11.459  0.3165  0.0511  0.1711
  117bbb    H13 3500   3.326   2.836  11.477  0.9445  1.0186 -0.4412
  117bbb    H14 3501   3.424   2.699  11.544  0.7134  0.6662  0.6100
  117bbb     C8 3502   3.759   3.220  11.389  0.9369  0.6385  0.0829
  117bbb    H15 3503   3.869   3.226  11.393  0.9770  0.1726 -0.2591
  117bbb    H16 3504   3.704   3.315  11.390 -0.1898  0.0035 -0.5943
  117bbb     C9 3505   4.015   2.593  11.336  0.0148  0.0610  0.3810
  117bbb    H17 3506   4.028   2.598  11.227 -3.7711  1.4341 -0.1971
  117bbb    H18 3507   4.014   2.491  11.374  1.2722  0.2205  0.8623
  117bbb     O1 3508   3.389   2.695  11.327  0.4946  0.3638  0.1053
  117bbb    H19 3509   3.804   2.907  11.427 -0.6959  1.4474  0.3731
  118bbb     N1 3510   3.082   3.332  11.214 -0.5430 -0.5889 -0.6057
  118bbb     C1 3511   3.036   3.476  11.210  0.1773 -0.1386  0.1503
  118bbb     H1 3512   2.956   3.481  11.284  1.8106 -1.4830  2.1353
  118bbb     H2 3513   3.002   3.497  11.109 -1.0710 -0.4700  0.4898
  118bbb     C2 3514   2.964   3.241  11.166  0.3574 -0.2133 -0.3364
  118bbb     H3 3515   3.001   3.140  11.150 -2.3176 -1.2997 -0.1413
  118bbb     H4 3516   2.938   3.266  11.063  0.8175  2.4671  0.1297
  118bbb     C3 3517   3.193   3.314  11.114  0.2821 -0.1927  0.0721
  118bbb     H5 3518   3.230   3.407  11.070  0.2310 -0.3482 -0.3059
  118bbb     H6 3519   3.152   3.254  11.033  0.2956  2.7039 -2.2767
  118bbb     C4 3520   3.317   3.234  11.159  0.2254  0.0782 -0.6475
  118bbb     H7 3521   3.363   3.287  11.243  0.5958  1.2692 -1.5753
  118bbb     H8 3522   3.389   3.230  11.076 -0.5890  0.8192 -1.4133
  118bbb     C5 3523   3.131   3.595  11.262 -0.2947 -0.4132 -0.3991
  118bbb     H9 3524   3.219   3.601  11.197  0.5616 -0.0400  0.7525
  118bbb    H10 3525   3.168   3.568  11.362  1.2624 -0.3957 -0.9477
  118bbb     C6 3526   2.840   3.229  11.258  0.6010  0.2873  0.1918
  118bbb    H11 3527   2.781   3.145  11.219  0.9926 -0.3325  0.9150
  118bbb    H12 3528   2.782   3.322  11.266 -0.6182 -0.5269  1.0674
  118bbb     C7 3529   3.277   3.097  11.221 -0.0154  0.2726 -0.5825
  118bbb    H13 3530   3.231   3.118  11.319 -0.1275  0.6624 -0.7183
  118bbb    H14 3531   3.369   3.037  11.229  0.1821  0.5570 -0.6793
  118bbb     C8 3532   2.867   3.187  11.407  0.3837  0.0688 -0.0078
  118bbb    H15 3533   2.769   3.169  11.455 -0.0550 -1.6355 -1.4557
  118bbb    H16 3534   2.916   3.091  11.423 -0.7269 -0.3500  1.1027
  118bbb     C9 3535   3.072   3.744  11.267  0.4862 -0.1375  0.0363
  118bbb    H17 3536   3.050   3.770  11.163 -0.0917  2.2938  0.7171
  118bbb    H18 3537   3.142   3.825  11.290  0.3141 -0.2776  1.0892
  118bbb     O1 3538   3.189   3.017  11.141 -0.2398 -0.5029 -0.3274
  118bbb    H19 3539   3.123   3.309  11.305  0.5210  2.5529 -0.1573
  119bbb     N1 3540   5.634   1.729  10.216 -0.0662 -0.0359 -0.3824
  119bbb     C1 3541   5.771   1.689  10.282 -0.0332 -0.6417  0.4180
  119bbb     H1 3542   5.849   1.765  10.278  0.0243 -0.7534 -1.2031
  119bbb     H2 3543   5.812   1.606  10.224  0.1017 -1.9429  2.2885
  119bbb     C2 3544   5.549   1.604  10.191 -0.6252  0.1198 -0.3119
  119bbb     H3 3545   5.455   1.646  10.156 -1.6220 -2.2995 -0.7313
  119bbb     H4 3546   5.518   1.554  10.282 -1.9106  0.2638 -0.6512
  119bbb     C3 3547   5.553   1.821  10.312 -0.3734  0.8286  0.0985
  119bbb     H5 3548   5.536   1.759  10.400  1.9162 -0.7588 -0.4652
  119bbb     H6 3549   5.459   1.836  10.259 -0.5234 -1.0361 -0.2203
  119bbb     C4 3550   5.609   1.962  10.354  0.4280  0.0339  0.1938
  119bbb     H7 3551   5.608   2.031  10.269 -0.3973  3.2115  2.6022
  119bbb     H8 3552   5.708   1.938  10.393  0.3523 -0.0557  0.3350
  119bbb     C5 3553   5.767   1.636  10.427  0.6629  0.4853  0.1613
  119bbb     H9 3554   5.685   1.565  10.444 -0.0377  1.2253 -0.0603
  119bbb    H10 3555   5.742   1.715  10.499  2.1621 -0.0030  1.2682
  119bbb     C6 3556   5.595   1.499  10.083  0.5112 -1.0442 -0.6158
  119bbb    H11 3557   5.515   1.425  10.071  0.2055 -1.2847  2.1943
  119bbb    H12 3558   5.681   1.438  10.117  1.1377 -0.0005 -0.2709
  119bbb     C7 3559   5.527   2.025  10.465  0.0028 -0.4537  0.0672
  119bbb    H13 3560   5.546   1.975  10.561  0.2659 -0.1397  0.1801
  119bbb    H14 3561   5.419   2.028  10.447  0.3388  0.8789 -2.0087
  119bbb     C8 3562   5.627   1.554   9.942 -0.1534  0.5344  0.2955
  119bbb    H15 3563   5.645   1.467   9.877  0.3007  0.8918 -0.0611
  119bbb    H16 3564   5.542   1.610   9.900 -0.6918 -0.8916 -0.5957
  119bbb     C9 3565   5.896   1.578  10.476 -0.0296 -0.5619 -0.0845
  119bbb    H17 3566   5.914   1.478  10.433 -1.4964 -1.2860  0.9069
  119bbb    H18 3567   5.899   1.574  10.586 -2.4317  1.6834  0.1585
  119bbb     O1 3568   5.555   2.159  10.487 -0.4421  0.5350 -0.5516
  119bbb    H19 3569   5.651   1.769  10.123  0.3369  0.1283 -0.2444
  120bbb     N1 3570   6.301   2.091  10.535  0.6820 -0.1377  0.0243
  120bbb     C1 3571   6.446   2.050  10.547  0.6438 -0.4731 -0.4097
  120bbb     H1 3572   6.485   2.123  10.618 -3.1415 -0.3027  1.7274
  120bbb     H2 3573   6.495   2.060  10.450  0.0526  1.3047 -0.5572
  120bbb     C2 3574   6.302   2.243  10.502  0.5413 -0.1430 -0.2053
  120bbb     H3 3575   6.196   2.263  10.486 -0.5981 -2.3221  3.4550
  120bbb     H4 3576   6.357   2.267  10.410 -1.2736  0.6729 -1.1280
  120bbb     C3 3577   6.243   2.011  10.418  0.7558  0.2419  0.1888
  120bbb     H5 3578   6.221   1.912  10.460  1.0453 -0.0516 -0.3369
  120bbb     H6 3579   6.313   2.009  10.334 -0.3657  0.8377 -0.7970
  120bbb     C4 3580   6.109   2.067  10.358  0.0571  0.0090  0.7131
  120bbb     H7 3581   6.094   2.018  10.261  0.3816 -0.1201  0.7268
  120bbb     H8 3582   6.122   2.171  10.327  0.1598 -0.3526 -0.4979
  120bbb     C5 3583   6.475   1.911  10.593  0.0981  0.1502 -0.1296
  120bbb     H9 3584   6.439   1.832  10.526  1.4693 -0.7783  0.1903
  120bbb    H10 3585   6.422   1.901  10.688 -0.0774 -1.9892 -0.4149
  120bbb     C6 3586   6.345   2.336  10.620  0.3875  0.8604 -0.8126
  120bbb    H11 3587   6.454   2.332  10.628  0.3501  0.5610 -0.4453
  120bbb    H12 3588   6.304   2.307  10.718  1.5559  3.4625  0.5685
  120bbb     C7 3589   5.986   2.042  10.439 -0.0044  0.0626 -0.4131
  120bbb    H13 3590   5.976   1.933  10.453 -0.9250  0.2380  0.4411
  120bbb    H14 3591   5.895   2.072  10.387 -0.2533  0.3439  0.1715
  120bbb     C8 3592   6.306   2.486  10.600  0.4619  0.2498 -0.0117
  120bbb    H15 3593   6.380   2.554  10.644  1.9469 -2.2871  1.6945
  120bbb    H16 3594   6.304   2.504  10.492 -0.4735 -1.3527 -0.2848
  120bbb     C9 3595   6.621   1.893  10.620  0.5569 -0.4259  0.6939
  120bbb    H17 3596   6.652   1.972  10.689  4.2734  0.6567 -1.8831
  120bbb    H18 3597   6.681   1.910  10.529  0.7374  0.5230  0.9761
  120bbb     O1 3598   5.995   2.107  10.564  0.2710  0.3462  0.1015
  120bbb    H19 3599   6.251   2.078  10.625  0.2970  0.3840 -0.1056
  121bbb     N1 3600   6.822   1.715   9.435  0.8091  0.2489  0.2815
  121bbb     C1 3601   6.808   1.660   9.579 -0.2840  0.0245 -0.3288
  121bbb     H1 3602   6.822   1.750   9.639 -1.5702 -0.3834  0.6346
  121bbb     H2 3603   6.898   1.599   9.587  0.4943  1.1985  0.1352
  121bbb     C2 3604   6.843   1.604   9.330 -0.3346  0.2780 -0.1607
  121bbb     H3 3605   6.824   1.649   9.232  1.3810 -0.1767 -0.7499
  121bbb     H4 3606   6.762   1.535   9.355 -2.0754  2.3640  0.2622
  121bbb     C3 3607   6.692   1.785   9.396  0.0441  0.7353  0.7763
  121bbb     H5 3608   6.610   1.729   9.440 -0.9811  0.2540 -1.5658
  121bbb     H6 3609   6.692   1.784   9.286  1.4527  1.9705  0.7253
  121bbb     C4 3610   6.683   1.931   9.435  0.1290 -0.4374  0.3421
  121bbb     H7 3611   6.764   1.989   9.391 -1.6647  1.3980 -0.6915
  121bbb     H8 3612   6.698   1.933   9.544 -0.5707 -1.3965  0.4678
  121bbb     C5 3613   6.683   1.575   9.620  0.1122  0.5523  0.1275
  121bbb     H9 3614   6.647   1.512   9.537  0.9062  0.5477 -0.2190
  121bbb    H10 3615   6.604   1.645   9.651 -1.2154 -1.3596  1.2821
  121bbb     C6 3616   6.985   1.540   9.334  0.0722  0.0578  0.5821
  121bbb    H11 3617   7.004   1.484   9.427 -0.8194  0.1025  0.8013
  121bbb    H12 3618   7.052   1.626   9.322 -0.0553  0.0273 -0.3801
  121bbb     C7 3619   6.546   1.998   9.392  0.6955 -0.6540  0.5917
  121bbb    H13 3620   6.561   2.106   9.401 -0.8273 -0.2919 -0.8218
  121bbb    H14 3621   6.470   1.977   9.468 -2.1861  1.3429 -1.5481
  121bbb     C8 3622   6.999   1.445   9.222 -0.3629 -0.3315 -0.0445
  121bbb    H15 3623   6.976   1.491   9.125  0.9088  1.0031  0.2568
  121bbb    H16 3624   7.104   1.411   9.217  0.4753  2.1817 -1.1001
  121bbb     C9 3625   6.719   1.473   9.730  0.3877 -0.0649 -0.0175
  121bbb    H17 3626   6.635   1.412   9.766 -0.3373  1.2551  0.5776
  121bbb    H18 3627   6.762   1.509   9.824 -1.9012  2.5712  0.1223
  121bbb     O1 3628   6.501   1.950   9.265  0.3390 -0.6078  0.8275
  121bbb    H19 3629   6.901   1.780   9.429 -0.1051  1.4819  1.2159
  122bbb     N1 3630   5.452   1.655   8.767 -0.3915 -0.0948  0.4293
  122bbb     C1 3631   5.355   1.540   8.800  0.6109  0.0674  0.2845
  122bbb     H1 3632   5.273   1.571   8.735  0.9250  1.5717  0.5795
  122bbb     H2 3633   5.314   1.546   8.901  0.8712 -3.9010  0.8070
  122bbb     C2 3634   5.373   1.779   8.740 -0.2323 -0.4907  0.1033
  122bbb     H3 3635   5.317   1.798   8.832  0.8960  1.7950  0.4036
  122bbb     H4 3636   5.311   1.748   8.656  0.0643  1.0064 -0.7143
  122bbb     C3 3637   5.538   1.667   8.892 -0.1651 -0.4253 -0.1253
  122bbb     H5 3638   5.589   1.571   8.899  2.4100  0.9150  0.7291
  122bbb     H6 3639   5.471   1.678   8.977  1.9835  1.5736  1.4209
  122bbb     C4 3640   5.661   1.762   8.899  0.1043 -0.2136  0.6541
  122bbb     H7 3641   5.624   1.850   8.953 -0.1334 -1.1886  2.1385
  122bbb     H8 3642   5.704   1.803   8.807  2.0062 -3.8893 -0.2577
  122bbb     C5 3643   5.399   1.397   8.766 -0.1040  0.1916  0.4633
  122bbb     H9 3644   5.499   1.375   8.806  0.6308  0.0783 -1.3257
  122bbb    H10 3645   5.419   1.382   8.659  1.4338 -2.1304  1.0040
  122bbb     C6 3646   5.451   1.904   8.688 -0.1939 -0.8455  0.0142
  122bbb    H11 3647   5.555   1.884   8.662 -0.5491 -1.2550 -1.1418
  122bbb    H12 3648   5.454   1.978   8.769 -1.2538  0.9197 -1.4867
  122bbb     C7 3649   5.766   1.703   8.992 -0.1461 -0.1165 -0.8682
  122bbb    H13 3650   5.819   1.628   8.932  0.2321  0.6123 -1.4601
  122bbb    H14 3651   5.716   1.649   9.074  1.8826  0.0475  0.5543
  122bbb     C8 3652   5.373   1.976   8.571  0.1740  0.2311 -0.7729
  122bbb    H15 3653   5.276   2.018   8.601 -0.1782 -0.2424 -1.2207
  122bbb    H16 3654   5.431   2.058   8.529  1.8085  1.0867  2.8177
  122bbb     C9 3655   5.294   1.286   8.792 -0.4021 -0.3325  0.1796
  122bbb    H17 3656   5.311   1.251   8.894  2.0529 -0.3424 -0.1658
  122bbb    H18 3657   5.307   1.200   8.724 -2.8116  0.6596 -1.6969
  122bbb     O1 3658   5.864   1.797   9.043  0.9097  0.1952  0.5833
  122bbb    H19 3659   5.499   1.625   8.680 -2.0864 -0.3525 -0.4436
  123bbb     N1 3660   4.632   1.806   9.231 -0.1852  0.7991  0.8631
  123bbb     C1 3661   4.545   1.799   9.109 -0.9228  0.4822 -0.3219
  123bbb     H1 3662   4.602   1.863   9.042  1.0611 -1.0638 -0.2327
  123bbb     H2 3663   4.450   1.848   9.129  0.1610  1.9329  1.5825
  123bbb     C2 3664   4.568   1.734   9.343 -0.1481 -0.0427  0.3394
  123bbb     H3 3665   4.646   1.740   9.419 -0.0864 -2.6161  0.5417
  123bbb     H4 3666   4.555   1.629   9.320 -0.7390  0.3070 -1.0058
  123bbb     C3 3667   4.768   1.745   9.205 -0.3123  0.0351 -0.3855
  123bbb     H5 3668   4.812   1.789   9.115  0.8520  0.7894  0.5186
  123bbb     H6 3669   4.756   1.638   9.188  0.2475 -0.2437  0.8304
  123bbb     C4 3670   4.878   1.751   9.314  0.1471  0.0218  0.9242
  123bbb     H7 3671   4.969   1.748   9.253  0.2624  2.5050  0.8607
  123bbb     H8 3672   4.860   1.670   9.387 -1.6873 -0.3440  0.1345
  123bbb     C5 3673   4.534   1.651   9.053  0.0282 -0.4134 -0.1824
  123bbb     H9 3674   4.482   1.591   9.127  0.3802 -0.4833  0.0101
  123bbb    H10 3675   4.634   1.618   9.020  0.3391  1.7169 -1.6147
  123bbb     C6 3676   4.445   1.791   9.408  0.0109 -0.5610 -0.4339
  123bbb    H11 3677   4.452   1.900   9.421  1.3233 -0.8783  2.4175
  123bbb    H12 3678   4.443   1.753   9.511 -1.7823  1.6448  0.4294
  123bbb     C7 3679   4.877   1.890   9.381  0.0829 -0.4973  0.2535
  123bbb    H13 3680   4.848   1.964   9.305  1.1961 -0.3673 -0.0681
  123bbb    H14 3681   4.981   1.904   9.413  0.2608  1.6031 -1.0136
  123bbb     C8 3682   4.308   1.741   9.350 -0.2512 -0.8574 -0.3032
  123bbb    H15 3683   4.224   1.786   9.405  1.8710  0.0700  2.4392
  123bbb    H16 3684   4.289   1.773   9.247 -1.7484  0.0252  0.2091
  123bbb     C9 3685   4.450   1.666   8.932  0.5060 -0.0570 -0.3478
  123bbb    H17 3686   4.456   1.568   8.883  2.0005  0.1699 -0.6734
  123bbb    H18 3687   4.495   1.720   8.847  2.7471 -0.0546  0.7803
  123bbb     O1 3688   4.784   1.896   9.495 -0.3289 -0.0691 -0.3537
  123bbb    H19 3689   4.649   1.902   9.263  0.4892  0.6412  0.9872
  124bbb     N1 3690   4.189   1.489   9.838  0.2888  0.3732 -0.4386
  124bbb     C1 3691   4.067   1.411   9.788 -1.0647 -0.1272 -0.1042
  124bbb     H1 3692   4.105   1.364   9.697 -0.0339  1.5948 -0.6204
  124bbb     H2 3693   3.994   1.479   9.742 -0.9345 -0.6268 -1.0856
  124bbb     C2 3694   4.310   1.393   9.845 -0.3524  0.6739  0.2932
  124bbb     H3 3695   4.317   1.355   9.743  0.5559 -1.5302  1.1162
  124bbb     H4 3696   4.274   1.308   9.903  0.8165  0.9066  1.4239
  124bbb     C3 3697   4.222   1.608   9.752  0.6731  0.7266  0.0024
  124bbb     H5 3698   4.248   1.567   9.654  0.3508 -2.9892  1.2913
  124bbb     H6 3699   4.316   1.654   9.784  1.1679 -1.1425  1.4406
  124bbb     C4 3700   4.118   1.721   9.743  0.2693  0.0257  0.2264
  124bbb     H7 3701   4.018   1.675   9.733  0.7464 -0.7158 -1.4364
  124bbb     H8 3702   4.132   1.769   9.646 -2.1825 -0.3324 -0.3838
  124bbb     C5 3703   4.001   1.321   9.900  0.3084  0.2708  0.6900
  124bbb     H9 3704   3.939   1.376   9.972  0.3138 -0.3652  1.1856
  124bbb    H10 3705   4.083   1.278   9.960  2.0264  2.1685 -0.1737
  124bbb     C6 3706   4.443   1.430   9.916 -0.5442  0.1559  0.6795
  124bbb    H11 3707   4.421   1.463  10.018 -2.3097 -0.0979  0.4113
  124bbb    H12 3708   4.480   1.523   9.871 -2.0650  1.0773  1.2518
  124bbb     C7 3709   4.111   1.824   9.851  0.1524 -0.0919 -0.0035
  124bbb    H13 3710   4.105   1.765   9.943 -2.2436 -1.9630 -1.2382
  124bbb    H14 3711   4.014   1.873   9.836  0.1917 -0.0617 -0.1659
  124bbb     C8 3712   4.546   1.311   9.929 -0.8529 -0.4283 -0.7803
  124bbb    H15 3713   4.639   1.342   9.978 -0.1530  0.5826 -2.6405
  124bbb    H16 3714   4.505   1.238  10.000 -1.3014 -0.6887 -1.2981
  124bbb     C9 3715   3.920   1.206   9.839 -0.2866 -0.1304  0.3954
  124bbb    H17 3716   3.854   1.164   9.915 -2.6068  2.6813  0.1212
  124bbb    H18 3717   3.988   1.131   9.796 -0.8166  0.1421 -0.9950
  124bbb     O1 3718   4.233   1.902   9.837 -0.0610  0.2537  0.2758
  124bbb    H19 3719   4.167   1.518   9.934 -0.0573 -0.0459 -0.3879
  125bbb     N1 3720   4.514   1.467   8.386  0.3406 -0.1284 -0.7306
  125bbb     C1 3721   4.564   1.438   8.246 -0.2338  0.0904 -0.0258
  125bbb     H1 3722   4.646   1.365   8.244  0.0526  0.3180  1.8018
  125bbb     H2 3723   4.597   1.538   8.218 -3.6273  0.9474 -1.4380
  125bbb     C2 3724   4.499   1.347   8.475  0.3873  0.5241  0.3919
  125bbb     H3 3725   4.433   1.278   8.424  0.5762 -0.5358  1.5272
  125bbb     H4 3726   4.433   1.369   8.559  0.2412 -2.5557  1.2031
  125bbb     C3 3727   4.627   1.548   8.451  0.4880  0.3057  0.1970
  125bbb     H5 3728   4.660   1.626   8.383  1.6272  0.9740  1.4502
  125bbb     H6 3729   4.706   1.476   8.471  1.9014  1.5394 -0.7518
  125bbb     C4 3730   4.571   1.616   8.578 -0.1922  0.2181  0.1860
  125bbb     H7 3731   4.540   1.545   8.655 -2.2606 -0.3017 -1.0520
  125bbb     H8 3732   4.484   1.676   8.550  0.5284  1.8042  1.2188
  125bbb     C5 3733   4.454   1.391   8.148 -0.2785 -0.0951 -0.4703
  125bbb     H9 3734   4.365   1.450   8.171  0.2474  0.5928 -0.1587
  125bbb    H10 3735   4.427   1.287   8.168  0.4087 -0.1266  0.4223
  125bbb     C6 3736   4.618   1.262   8.524 -0.1007 -1.3099  0.4854
  125bbb    H11 3737   4.678   1.323   8.592  0.6083 -1.3575 -0.0806
  125bbb    H12 3738   4.690   1.236   8.445  1.7149  1.1965  1.1908
  125bbb     C7 3739   4.679   1.710   8.639 -0.1875 -0.1753  0.7387
  125bbb    H13 3740   4.759   1.732   8.567  0.0253 -0.9442  0.7393
  125bbb    H14 3741   4.720   1.673   8.733  0.1582 -1.5692  0.0628
  125bbb     C8 3742   4.558   1.143   8.605 -0.0098  0.0102  0.1552
  125bbb    H15 3743   4.475   1.097   8.551  0.8960 -0.9879 -0.4392
  125bbb    H16 3744   4.640   1.073   8.630  0.9160  0.9537 -0.1711
  125bbb     C9 3745   4.506   1.413   8.006 -1.1667 -0.4774 -0.5492
  125bbb    H17 3746   4.595   1.351   7.989 -0.4055  0.6158 -0.6591
  125bbb    H18 3747   4.539   1.517   7.995  0.2837 -0.6617  1.5535
  125bbb     O1 3748   4.621   1.837   8.678 -0.0269  0.0450 -0.2664
  125bbb    H19 3749   4.430   1.526   8.379  0.3240  0.1367  1.2951
  126bbb     N1 3750   4.332   2.180   7.902 -0.0602 -0.4977 -0.1623
  126bbb     C1 3751   4.261   2.042   7.924  0.1420 -0.0375  0.2128
  126bbb     H1 3752   4.155   2.056   7.899 -0.1778 -2.4332 -0.0228
  126bbb     H2 3753   4.282   2.012   8.027 -0.5408 -0.6164  0.1941
  126bbb     C2 3754   4.296   2.238   7.770  0.0484 -0.4312 -0.0993
  126bbb     H3 3755   4.190   2.261   7.782 -0.0455 -1.7814  2.4651
  126bbb     H4 3756   4.320   2.157   7.701 -0.4875 -0.7040  0.0220
  126bbb     C3 3757   4.285   2.266   8.019 -0.4311  0.0609  0.4618
  126bbb     H5 3758   4.176   2.263   8.020 -0.5046  1.8930  1.7504
  126bbb     H6 3759   4.311   2.369   7.991  0.5278 -0.4763 -0.7401
  126bbb     C4 3760   4.347   2.252   8.157 -0.4185 -0.3440 -0.0158
  126bbb     H7 3761   4.457   2.245   8.159 -0.2322  1.8775  0.0308
  126bbb     H8 3762   4.300   2.158   8.188  1.1165 -0.9884  0.4678
  126bbb     C5 3763   4.316   1.928   7.835  0.4699 -0.2834 -0.5191
  126bbb     H9 3764   4.420   1.913   7.866  0.6792  1.6536 -0.1882
  126bbb    H10 3765   4.322   1.948   7.727 -1.2378  3.0673 -0.0990
  126bbb     C6 3766   4.355   2.370   7.720  0.1192 -0.7252  0.1447
  126bbb    H11 3767   4.465   2.361   7.720  0.1778 -0.0711  0.4105
  126bbb    H12 3768   4.337   2.455   7.787  0.7544 -0.5557  0.1101
  126bbb     C7 3769   4.297   2.354   8.260  0.0963 -0.5954  0.1447
  126bbb    H13 3770   4.189   2.345   8.276  0.0226  0.6413  0.4166
  126bbb    H14 3771   4.322   2.454   8.225 -0.5281 -1.4159 -2.9011
  126bbb     C8 3772   4.301   2.406   7.583  0.0620 -0.7429 -0.3487
  126bbb    H15 3773   4.348   2.498   7.546 -0.9625  0.4943  1.3297
  126bbb    H16 3774   4.329   2.324   7.516  2.0179 -1.2629  1.0360
  126bbb     C9 3775   4.242   1.792   7.848 -0.2652  0.2914  0.0424
  126bbb    H17 3776   4.300   1.708   7.808 -0.1252  0.2657  0.2993
  126bbb    H18 3777   4.149   1.799   7.790 -0.6497 -0.4661  0.5395
  126bbb     O1 3778   4.361   2.330   8.384 -0.3353  0.3441  0.0189
  126bbb    H19 3779   4.434   2.168   7.913 -0.3084 -0.1522  3.6561
  127bbb     N1 3780   0.731   5.622   9.320 -0.4824  0.2023  0.2001
  127bbb     C1 3781   0.678   5.633   9.180  0.1279  0.3163  0.1968
  127bbb     H1 3782   0.692   5.541   9.122  0.6202 -0.5587  1.6462
  127bbb     H2 3783   0.728   5.714   9.127  0.8947 -0.3611 -0.1358
  127bbb     C2 3784   0.715   5.483   9.389  0.3052  0.0835  0.4478
  127bbb     H3 3785   0.757   5.403   9.327 -0.5568  0.7308 -1.0274
  127bbb     H4 3786   0.609   5.458   9.393  0.7808 -2.2690 -0.0001
  127bbb     C3 3787   0.878   5.667   9.302  0.1202  0.7165 -0.8947
  127bbb     H5 3788   0.922   5.674   9.402  0.6018  1.8142 -1.1780
  127bbb     H6 3789   0.878   5.767   9.260  0.7004  0.7056 -0.9330
  127bbb     C4 3790   0.962   5.571   9.210 -0.3173 -1.0599 -0.3099
  127bbb     H7 3791   0.927   5.560   9.107 -0.5032 -0.3340 -0.3264
  127bbb     H8 3792   0.956   5.474   9.261 -0.4947 -0.2863  1.2041
  127bbb     C5 3793   0.530   5.659   9.192  0.3493 -0.0119 -0.0231
  127bbb     H9 3794   0.509   5.746   9.254 -3.7215 -0.1896 -0.8883
  127bbb    H10 3795   0.479   5.575   9.240 -0.9562  0.3752 -0.6971
  127bbb     C6 3796   0.783   5.467   9.532 -0.0067  0.3680  1.1189
  127bbb    H11 3797   0.723   5.529   9.600  0.8958  0.5320  1.7799
  127bbb    H12 3798   0.886   5.504   9.541  0.5560 -1.0118  0.5526
  127bbb     C7 3799   1.111   5.616   9.187 -0.6262 -0.3904 -0.0276
  127bbb    H13 3800   1.142   5.548   9.106  0.9720 -0.6528  0.7622
  127bbb    H14 3801   1.164   5.600   9.281 -0.3616 -1.5245 -0.3446
  127bbb     C8 3802   0.765   5.326   9.585 -0.1472 -0.0957 -0.2962
  127bbb    H15 3803   0.809   5.322   9.685 -0.3970  2.0383 -0.0500
  127bbb    H16 3804   0.658   5.315   9.604  0.1560  0.4174  1.8994
  127bbb     C9 3805   0.464   5.696   9.056 -0.1415  0.2609  0.1933
  127bbb    H17 3806   0.361   5.728   9.074 -0.7552 -1.0054 -0.9167
  127bbb    H18 3807   0.457   5.605   8.996  1.2410  0.0082  0.3741
  127bbb     O1 3808   1.114   5.756   9.142  0.0826  0.4935 -0.1577
  127bbb    H19 3809   0.680   5.686   9.383 -0.9472 -0.5728  0.6367
  128bbb     N1 3810   0.561   6.378   9.422 -0.2095  0.0506 -0.4098
  128bbb     C1 3811   0.639   6.414   9.299  0.0631 -0.0143 -0.1808
  128bbb     H1 3812   0.653   6.522   9.301  1.5896 -0.1991  0.7252
  128bbb     H2 3813   0.580   6.392   9.210 -0.6928  0.6169  0.1561
  128bbb     C2 3814   0.435   6.468   9.423 -0.2453 -0.1790  0.5913
  128bbb     H3 3815   0.381   6.445   9.515  1.8047 -1.9317  1.4181
  128bbb     H4 3816   0.376   6.442   9.335  0.2817 -1.3042  0.5537
  128bbb     C3 3817   0.527   6.226   9.419 -0.1791 -0.0398 -0.4126
  128bbb     H5 3818   0.578   6.170   9.341 -0.8887  1.0394 -1.6955
  128bbb     H6 3819   0.420   6.217   9.404 -0.1811  0.4209 -0.6968
  128bbb     C4 3820   0.548   6.156   9.557  0.5370 -0.6944  0.0639
  128bbb     H7 3821   0.506   6.054   9.558  0.5763 -0.7558 -1.6210
  128bbb     H8 3822   0.490   6.214   9.629  1.4853  1.5622 -0.9114
  128bbb     C5 3823   0.779   6.359   9.288  0.4503  0.5333 -0.3023
  128bbb     H9 3824   0.758   6.254   9.264  0.1680  0.5210  0.0036
  128bbb    H10 3825   0.827   6.348   9.386 -2.0385 -2.0472  0.7604
  128bbb     C6 3826   0.454   6.621   9.413 -0.0861 -0.0945 -1.1469
  128bbb    H11 3827   0.497   6.651   9.317  0.1424 -1.1141 -1.3785
  128bbb    H12 3828   0.525   6.651   9.490 -0.7866 -1.9007  0.2905
  128bbb     C7 3829   0.697   6.153   9.595  0.1987  0.7068  0.2718
  128bbb    H13 3830   0.699   6.092   9.686  0.3802 -0.3566 -0.4196
  128bbb    H14 3831   0.739   6.252   9.613  0.7776  0.1275  2.4146
  128bbb     C8 3832   0.325   6.694   9.433 -0.7252 -0.7150  0.1699
  128bbb    H15 3833   0.300   6.688   9.539  1.6078  0.6980  0.8843
  128bbb    H16 3834   0.347   6.800   9.415 -1.5701 -0.8468 -1.9472
  128bbb     C9 3835   0.863   6.425   9.180 -0.5791  0.1893 -0.2452
  128bbb    H17 3836   0.970   6.402   9.185 -0.1709  1.5788 -1.7517
  128bbb    H18 3837   0.856   6.534   9.194 -0.6480  0.2847 -1.0107
  128bbb     O1 3838   0.774   6.074   9.495  0.3442 -0.2468 -0.6371
  128bbb    H19 3839   0.613   6.399   9.509  1.0478 -0.6610 -0.9649
  129bbb     N1 3840   2.521   4.573   9.703 -0.2702 -0.7270  0.5004
  129bbb     C1 3841   2.543   4.573   9.853  0.2233 -0.1050  0.1886
  129bbb     H1 3842   2.638   4.525   9.877  1.1669  1.7078  0.2820
  129bbb     H2 3843   2.466   4.501   9.879  0.5535 -0.6450 -0.3178
  129bbb     C2 3844   2.637   4.643   9.630  0.3113  0.0952  0.1689
  129bbb     H3 3845   2.705   4.573   9.581  0.9716  0.2225  0.8884
  129bbb     H4 3846   2.688   4.706   9.703  0.5930  0.0515  0.0103
  129bbb     C3 3847   2.512   4.439   9.645 -0.3928  0.5307 -0.5669
  129bbb     H5 3848   2.586   4.372   9.689 -0.1198  0.4528 -1.1341
  129bbb     H6 3849   2.551   4.448   9.543  1.9299  1.7646  0.3559
  129bbb     C4 3850   2.366   4.385   9.654 -0.6152  0.0484  0.3562
  129bbb     H7 3851   2.336   4.384   9.760 -0.6365 -0.9288  0.3545
  129bbb     H8 3852   2.366   4.284   9.611  0.4022  0.4695 -0.6640
  129bbb     C5 3853   2.516   4.711   9.919 -0.5983  0.5022 -0.5958
  129bbb     H9 3854   2.409   4.735   9.920 -0.6747  0.1537  0.2424
  129bbb    H10 3855   2.563   4.800   9.876  2.1229 -0.4878  0.1361
  129bbb     C6 3856   2.583   4.752   9.529  0.3211  0.1410 -0.2932
  129bbb    H11 3857   2.671   4.786   9.473  0.7386  1.0054  0.8535
  129bbb    H12 3858   2.537   4.830   9.591  1.3160 -1.4372  2.5759
  129bbb     C7 3859   2.264   4.465   9.573  0.0712 -0.4551  0.3491
  129bbb    H13 3860   2.170   4.410   9.567  1.0757 -2.1549 -0.4692
  129bbb    H14 3861   2.299   4.482   9.470  1.1462 -1.0565  0.5953
  129bbb     C8 3862   2.487   4.714   9.416 -0.5352 -0.0681  0.7368
  129bbb    H15 3863   2.396   4.675   9.465  0.0614 -0.5689  1.4747
  129bbb    H16 3864   2.462   4.801   9.354  2.8474  1.6684  1.6120
  129bbb     C9 3865   2.557   4.696  10.065  0.3520  0.0019 -0.1197
  129bbb    H17 3866   2.525   4.598  10.102 -0.7270  0.4941  0.2850
  129bbb    H18 3867   2.498   4.759  10.133 -1.6238 -0.9986 -0.8350
  129bbb     O1 3868   2.246   4.592   9.646  0.3069 -0.0035  0.5658
  129bbb    H19 3869   2.440   4.632   9.682 -0.1455 -0.4621  0.7592
  130bbb     N1 3870   1.853   4.481  10.197 -0.3876 -0.0468 -0.5027
  130bbb     C1 3871   2.003   4.512  10.211 -0.5952  0.2438 -0.1506
  130bbb     H1 3872   2.043   4.551  10.118 -0.0185 -0.2709 -0.1193
  130bbb     H2 3873   2.039   4.415  10.245 -1.0285 -0.3011 -1.1985
  130bbb     C2 3874   1.810   4.436  10.338 -0.1602  0.2430  0.0786
  130bbb     H3 3875   1.791   4.528  10.395 -0.6972 -0.8426  1.7198
  130bbb     H4 3876   1.887   4.377  10.387 -0.1893 -1.1490 -1.4837
  130bbb     C3 3877   1.773   4.601  10.162  0.3599 -0.2179 -0.0477
  130bbb     H5 3878   1.772   4.670  10.247  2.7058 -1.3288  0.9653
  130bbb     H6 3879   1.669   4.568  10.163  0.7608 -1.5259  0.1179
  130bbb     C4 3880   1.794   4.668  10.017 -0.3740  0.2660  0.0256
  130bbb     H7 3881   1.804   4.588   9.943 -1.2185  0.1692  0.0027
  130bbb     H8 3882   1.891   4.717  10.010 -0.8969  1.2887 -0.2391
  130bbb     C5 3883   2.046   4.631  10.305 -0.2251  0.4354 -0.1192
  130bbb     H9 3884   1.984   4.627  10.395 -0.8136 -0.2181 -0.5414
  130bbb    H10 3885   2.009   4.720  10.253 -2.7075 -1.6004 -2.1041
  130bbb     C6 3886   1.686   4.343  10.329  0.5799 -0.8241 -0.5956
  130bbb    H11 3887   1.722   4.245  10.296  1.7704 -0.5505 -0.1365
  130bbb    H12 3888   1.607   4.388  10.267  0.3698 -1.0758 -0.5176
  130bbb     C7 3889   1.682   4.774   9.974  0.5358  0.0403  0.1851
  130bbb    H13 3890   1.699   4.862  10.036 -0.2385 -0.8858  1.7791
  130bbb    H14 3891   1.578   4.745   9.995  0.5920  0.0798  0.5244
  130bbb     C8 3892   1.631   4.330  10.477  0.3947  0.5733  0.0438
  130bbb    H15 3893   1.628   4.426  10.529  0.9293  0.4553  0.3050
  130bbb    H16 3894   1.528   4.295  10.484  0.6484  0.1163  1.7448
  130bbb     C9 3895   2.199   4.627  10.337 -0.4466  0.2848  0.4964
  130bbb    H17 3896   2.209   4.709  10.410 -0.1782 -0.9755  1.9197
  130bbb    H18 3897   2.256   4.637  10.244 -0.5256 -2.6373  0.0338
  130bbb     O1 3898   1.699   4.816   9.832  0.2624 -0.0650  0.6136
  130bbb    H19 3899   1.840   4.400  10.135  1.4370  1.1680 -2.6597
  131bbb     N1 3900   1.962   5.177   8.324 -0.2162 -0.1132  0.3642
  131bbb     C1 3901   1.847   5.083   8.300 -0.1075  1.1067 -0.2192
  131bbb     H1 3902   1.759   5.138   8.265  0.8939  1.4577 -2.3425
  131bbb     H2 3903   1.806   5.050   8.395  0.2225 -1.5443 -0.9028
  131bbb     C2 3904   2.090   5.104   8.343 -0.7816  0.4194  0.1616
  131bbb     H3 3905   2.098   5.033   8.260 -1.1571  0.8184 -0.2192
  131bbb     H4 3906   2.070   5.053   8.437  1.7674 -0.6062  0.2196
  131bbb     C3 3907   1.971   5.255   8.194 -0.5428 -0.1388  0.3245
  131bbb     H5 3908   1.997   5.192   8.109 -5.1563  0.3045 -1.6891
  131bbb     H6 3909   2.046   5.333   8.212 -1.2919  0.7314 -0.2828
  131bbb     C4 3910   1.837   5.336   8.159 -0.2448 -0.3285  0.5808
  131bbb     H7 3911   1.805   5.403   8.239 -0.8867  0.7299 -0.5326
  131bbb     H8 3912   1.758   5.263   8.139 -2.0064  1.9593 -1.3348
  131bbb     C5 3913   1.857   4.962   8.203  0.2777  0.1892  0.2586
  131bbb     H9 3914   1.943   4.899   8.232  0.0913 -0.1800  0.0202
  131bbb    H10 3915   1.876   4.997   8.101 -2.8654 -1.6184 -1.1070
  131bbb     C6 3916   2.217   5.193   8.350 -0.4438 -0.5122  0.0203
  131bbb    H11 3917   2.206   5.273   8.424 -1.3485 -0.4823 -0.1343
  131bbb    H12 3918   2.230   5.247   8.255  1.3413  0.3644  0.7168
  131bbb     C7 3919   1.841   5.413   8.021  0.1885  0.3222 -0.1297
  131bbb    H13 3920   1.740   5.423   7.980  0.0620  2.8197  0.6481
  131bbb    H14 3921   1.904   5.357   7.950 -1.3720  1.5604 -2.6460
  131bbb     C8 3922   2.349   5.121   8.374 -0.0015 -0.5898  0.2549
  131bbb    H15 3923   2.429   5.189   8.407  0.9414 -0.6830 -1.7238
  131bbb    H16 3924   2.330   5.045   8.451 -0.5573 -1.3853 -0.6516
  131bbb     C9 3925   1.721   4.886   8.201 -0.5150  0.6504 -0.6531
  131bbb    H17 3926   1.696   4.838   8.296  1.0235  0.8340 -0.1248
  131bbb    H18 3927   1.734   4.811   8.123  0.6416  1.4510 -1.2667
  131bbb     O1 3928   1.888   5.539   8.046  0.0654  0.5516 -0.6263
  131bbb    H19 3929   1.939   5.241   8.402 -0.5477  0.1185  0.0765
  132bbb     N1 3930   1.273   5.304   8.501 -0.1141  0.4372  0.7731
  132bbb     C1 3931   1.336   5.305   8.633  0.0334  0.0740  0.2301
  132bbb     H1 3932   1.266   5.340   8.709 -0.7361  0.2364 -0.5447
  132bbb     H2 3933   1.415   5.380   8.627  2.3025 -2.0553  1.4524
  132bbb     C2 3934   1.130   5.242   8.506  0.0184 -0.6375 -0.4898
  132bbb     H3 3935   1.132   5.145   8.556 -1.1313  0.9640  2.9427
  132bbb     H4 3936   1.095   5.236   8.402  0.1664 -0.9112 -0.5236
  132bbb     C3 3937   1.265   5.442   8.441  0.0186  0.7552 -0.0658
  132bbb     H5 3938   1.365   5.483   8.442  1.1890 -1.8683 -0.0468
  132bbb     H6 3939   1.200   5.502   8.504  0.6241  0.3087  1.0087
  132bbb     C4 3940   1.219   5.444   8.295 -0.0831  0.5448  0.3957
  132bbb     H7 3941   1.127   5.387   8.287  0.0559  0.4949 -1.2146
  132bbb     H8 3942   1.285   5.378   8.238 -0.5545 -0.2596  0.7644
  132bbb     C5 3943   1.392   5.174   8.685 -1.3601 -0.0157 -0.0041
  132bbb     H9 3944   1.501   5.178   8.672 -1.2267  0.7547  1.2587
  132bbb    H10 3945   1.364   5.089   8.622 -0.0548 -1.0439  0.7484
  132bbb     C6 3946   1.018   5.333   8.585 -0.0982  0.0708 -0.6035
  132bbb    H11 3947   1.016   5.436   8.548  1.4183  0.5419  0.5328
  132bbb    H12 3948   1.055   5.348   8.687 -1.8821 -0.6151  0.1940
  132bbb     C7 3949   1.216   5.583   8.232 -0.5543  0.2709 -0.0755
  132bbb    H13 3950   1.152   5.652   8.288  0.7937  1.6395 -0.1328
  132bbb    H14 3951   1.182   5.575   8.128 -0.5894 -1.0344  0.0248
  132bbb     C8 3952   0.880   5.269   8.595  0.6151 -0.1532 -0.1504
  132bbb    H15 3953   0.817   5.325   8.666  0.3557 -0.5114 -0.0943
  132bbb    H16 3954   0.831   5.273   8.497 -0.8056 -0.8927  0.5083
  132bbb     C9 3955   1.354   5.161   8.833  0.2123 -0.1666  0.2197
  132bbb    H17 3956   1.401   5.247   8.883  0.5491  1.0060 -1.9923
  132bbb    H18 3957   1.394   5.063   8.863 -0.7804 -0.6576 -0.0446
  132bbb     O1 3958   1.350   5.629   8.230  0.0071  0.8193  0.0043
  132bbb    H19 3959   1.326   5.235   8.447  0.0974 -0.3749  1.9637
  133bbb     N1 3960   2.302   6.037   7.901 -0.3188 -0.4862 -0.1505
  133bbb     C1 3961   2.360   5.920   7.835  0.6100 -0.5128  0.0631
  133bbb     H1 3962   2.463   5.905   7.867  0.9557  0.9343 -0.3051
  133bbb     H2 3963   2.358   5.941   7.728 -4.2194 -0.0605  0.0211
  133bbb     C2 3964   2.410   6.152   7.907 -0.2695 -0.1904  0.1559
  133bbb     H3 3965   2.355   6.237   7.946 -0.3402  0.0101 -0.3705
  133bbb     H4 3966   2.436   6.176   7.803  0.3856  2.9896  0.9665
  133bbb     C3 3967   2.185   6.094   7.819 -0.3327  1.4981 -0.0744
  133bbb     H5 3968   2.163   6.010   7.752  3.2457 -0.0944  0.5223
  133bbb     H6 3969   2.212   6.181   7.759  0.4709  1.7272  0.6045
  133bbb     C4 3970   2.072   6.131   7.902  0.5330 -0.3649  0.3136
  133bbb     H7 3971   2.102   6.220   7.958 -0.3424  0.9042 -1.1640
  133bbb     H8 3972   2.046   6.047   7.968 -0.7756  0.8779  1.4637
  133bbb     C5 3973   2.282   5.789   7.846 -0.1996  0.2355 -0.0463
  133bbb     H9 3974   2.189   5.793   7.789 -0.4254 -1.8410  0.1180
  133bbb    H10 3975   2.248   5.784   7.950  0.1062  0.5402  0.0726
  133bbb     C6 3976   2.543   6.117   7.974  0.5746  0.1184  0.4726
  133bbb    H11 3977   2.601   6.210   7.964 -0.3910  0.9664  2.3048
  133bbb    H12 3978   2.594   6.035   7.922  0.5172  0.7667 -0.6303
  133bbb     C7 3979   1.948   6.178   7.818  0.0742  0.3045  0.2094
  133bbb    H13 3980   1.913   6.091   7.762 -0.0384  0.5431 -0.0945
  133bbb    H14 3981   1.975   6.253   7.742 -0.3108  0.3777  0.1458
  133bbb     C8 3982   2.512   6.077   8.113  0.0929 -0.5102 -0.5562
  133bbb    H15 3983   2.603   6.096   8.171 -0.7499  3.3934 -0.2082
  133bbb    H16 3984   2.432   6.136   8.158  1.2207 -0.1775  1.0747
  133bbb     C9 3985   2.358   5.662   7.813  0.7493  0.2414  0.8402
  133bbb    H17 3986   2.395   5.676   7.711 -1.3861  0.7026  0.0738
  133bbb    H18 3987   2.292   5.574   7.818 -1.1095  1.5410  0.1795
  133bbb     O1 3988   1.848   6.232   7.913  0.4331 -0.1933 -0.0235
  133bbb    H19 3989   2.272   6.010   7.996 -1.0054 -2.7240 -0.9396
  134bbb     N1 3990   0.924   6.855   7.945  0.2619 -0.4841  0.0320
  134bbb     C1 3991   0.851   6.721   7.969  0.2307  0.2225 -0.0051
  134bbb     H1 3992   0.748   6.758   7.975 -0.0220 -0.6245  1.1671
  134bbb     H2 3993   0.874   6.685   8.070  1.3656  0.4405 -0.1676
  134bbb     C2 3994   0.905   6.942   8.071  0.2428  0.6499  0.4123
  134bbb     H3 3995   0.988   7.012   8.067  0.0432  1.0169  1.9981
  134bbb     H4 3996   0.933   6.884   8.159  0.8482 -0.5099 -0.5183
  134bbb     C3 3997   1.071   6.836   7.918 -0.4333 -0.5331  0.2866
  134bbb     H5 3998   1.104   6.931   7.875  1.5482 -0.1075  2.5311
  134bbb     H6 3999   1.083   6.770   7.833  0.0655  0.9143 -0.8183
  134bbb     C4 4000   1.153   6.788   8.040 -0.1823  0.4167  0.2180
  134bbb     H7 4001   1.086   6.719   8.093  0.4105  0.2772  0.8098
  134bbb     H8 4002   1.188   6.870   8.104  2.3046  1.3405 -2.1031
  134bbb     C5 4003   0.861   6.610   7.862 -1.0067  0.7125  0.4038
  134bbb     H9 4004   0.967   6.588   7.850 -1.5117 -2.0590  0.4661
  134bbb    H10 4005   0.818   6.645   7.767  0.0399  0.1942 -0.2750
  134bbb     C6 4006   0.760   6.994   8.103 -0.0649  0.3093 -0.0460
  134bbb    H11 4007   0.686   6.915   8.084 -0.4327  0.9783 -1.4677
  134bbb    H12 4008   0.744   7.072   8.028  0.8173 -0.3679 -0.9768
  134bbb     C7 4009   1.277   6.703   7.994  0.1843  0.3347 -0.1277
  134bbb    H13 4010   1.242   6.599   7.995  0.6723  0.1715 -0.0088
  134bbb    H14 4011   1.346   6.707   8.079 -2.8317  3.2188  2.5022
  134bbb     C8 4012   0.741   7.055   8.247 -0.0568  0.2230  0.6393
  134bbb    H15 4013   0.650   7.116   8.248 -0.8999 -0.9394 -0.9666
  134bbb    H16 4014   0.713   6.975   8.317  1.6066 -3.2174 -2.2606
  134bbb     C9 4015   0.783   6.493   7.917  0.3764 -0.5680 -0.0414
  134bbb    H17 4016   0.791   6.406   7.851  1.5506 -1.0875  0.7354
  134bbb    H18 4017   0.679   6.526   7.922  0.7564  0.6156  0.4429
  134bbb     O1 4018   1.334   6.762   7.871  0.2010 -0.6790 -0.6993
  134bbb    H19 4019   0.887   6.902   7.861  0.7280  0.0201  0.1024
  135bbb     N1 4020   2.807   8.601   8.881  0.0728 -0.4881  0.4103
  135bbb     C1 4021   2.947   8.555   8.888 -0.4875  0.3376 -0.0555
  135bbb     H1 4022   2.937   8.447   8.901  0.2098  0.1337 -1.0969
  135bbb     H2 4023   2.975   8.597   8.985  1.0936 -0.2347 -0.2340
  135bbb     C2 4024   2.732   8.554   8.757 -0.4640 -0.3112 -0.8328
  135bbb     H3 4025   2.639   8.521   8.803 -0.4861 -1.0725 -1.3936
  135bbb     H4 4026   2.781   8.469   8.709  0.0761  1.6010 -3.9881
  135bbb     C3 4027   2.742   8.557   9.015  0.5013  0.1971 -0.6414
  135bbb     H5 4028   2.804   8.591   9.098  0.9751  4.3142 -2.4369
  135bbb     H6 4029   2.728   8.450   9.027 -1.9917  0.6642  1.7984
  135bbb     C4 4030   2.603   8.622   9.047 -0.8254 -0.0708 -0.5482
  135bbb     H7 4031   2.522   8.604   8.976 -1.5724 -0.1157  0.2927
  135bbb     H8 4032   2.618   8.729   9.065  1.0374 -0.6124  1.5542
  135bbb     C5 4033   3.057   8.591   8.781  0.7722  0.2112  0.3933
  135bbb     H9 4034   3.016   8.570   8.681  1.6993 -0.3146  0.1051
  135bbb    H10 4035   3.143   8.524   8.792  1.6871  1.3389  0.2393
  135bbb     C6 4036   2.704   8.658   8.650 -0.4474  0.3892  0.3457
  135bbb    H11 4037   2.791   8.691   8.592  0.0891 -1.0600  0.2726
  135bbb    H12 4038   2.671   8.749   8.701 -0.0858  0.6821  0.0680
  135bbb     C7 4039   2.549   8.581   9.186  0.7622  0.7889 -0.1549
  135bbb    H13 4040   2.444   8.610   9.190  0.1137 -1.2968 -0.9380
  135bbb    H14 4041   2.605   8.634   9.264  2.0819  1.3313 -1.4329
  135bbb     C8 4042   2.595   8.593   8.553  1.1351 -0.8229  0.1279
  135bbb    H15 4043   2.522   8.531   8.605  1.0893 -0.0891  0.9534
  135bbb    H16 4044   2.551   8.676   8.495  2.5781 -0.1542 -0.0585
  135bbb     C9 4045   3.091   8.738   8.763 -0.2825 -0.1820 -0.1545
  135bbb    H17 4046   3.000   8.798   8.756 -0.0720  0.2140  0.4339
  135bbb    H18 4047   3.147   8.744   8.669 -0.1831  0.8441 -0.0428
  135bbb     O1 4048   2.550   8.433   9.210 -0.2498 -0.0402 -0.1839
  135bbb    H19 4049   2.799   8.704   8.873 -3.4320 -0.6248  0.5116
  136bbb     N1 4050   2.186   8.069   8.615  0.3581 -0.1424 -0.3013
  136bbb     C1 4051   2.115   8.065   8.480  0.5619 -0.4320 -0.1220
  136bbb     H1 4052   2.189   8.045   8.402 -0.4322  2.5353 -1.9758
  136bbb     H2 4053   2.084   8.167   8.458  0.6849 -0.5276 -0.7593
  136bbb     C2 4054   2.269   7.939   8.630 -0.1554 -0.1360  0.0515
  136bbb     H3 4055   2.353   7.946   8.561 -0.1672  0.8620  0.1219
  136bbb     H4 4056   2.208   7.856   8.595  0.7129 -1.2231  1.0594
  136bbb     C3 4057   2.285   8.184   8.624 -0.2417 -0.5905  0.5538
  136bbb     H5 4058   2.365   8.164   8.553  0.0354  0.7903  0.4552
  136bbb     H6 4059   2.327   8.189   8.725  1.0106  0.7401 -0.0003
  136bbb     C4 4060   2.230   8.328   8.604 -0.0548  0.2525 -0.6793
  136bbb     H7 4061   2.190   8.338   8.502  0.9464 -1.2867 -1.2611
  136bbb     H8 4062   2.310   8.403   8.608 -0.1435  0.3571 -0.8968
  136bbb     C5 4063   1.990   7.981   8.469  0.9213  0.0678  0.2867
  136bbb     H9 4064   1.899   8.025   8.510  0.4996  2.6055 -2.9203
  136bbb    H10 4065   1.997   7.884   8.519  1.1606 -1.7586 -2.9934
  136bbb     C6 4066   2.304   7.897   8.777  0.6062 -0.0620  0.1655
  136bbb    H11 4067   2.217   7.881   8.842  0.4755  0.1776  0.0519
  136bbb    H12 4068   2.343   7.981   8.835 -0.6508  0.3327  0.4668
  136bbb     C7 4069   2.124   8.376   8.710 -0.3303 -0.0906 -0.1970
  136bbb    H13 4070   2.046   8.298   8.716  1.1812 -1.6146  0.5081
  136bbb    H14 4071   2.085   8.470   8.669  0.5508 -0.9572 -3.2718
  136bbb     C8 4072   2.414   7.781   8.793 -0.1046  0.7700 -0.1322
  136bbb    H15 4073   2.408   7.747   8.897 -0.1828 -0.3003 -0.4719
  136bbb    H16 4074   2.392   7.700   8.721  1.9937  2.8585 -3.3742
  136bbb     C9 4075   1.961   7.944   8.319 -0.0658  0.2437 -0.1041
  136bbb    H17 4076   1.865   7.891   8.322 -0.7823  1.4658 -0.8317
  136bbb    H18 4077   2.039   7.880   8.276  0.6204  0.4599  0.8011
  136bbb     O1 4078   2.191   8.386   8.838 -0.3665 -0.5134 -0.3007
  136bbb    H19 4079   2.117   8.072   8.692 -0.0868 -1.9858 -0.5938
  137bbb     N1 4080   4.248   8.241   9.256 -0.1431 -0.3654  0.2159
  137bbb     C1 4081   4.378   8.258   9.337 -0.1955  0.4410 -0.1934
  137bbb     H1 4082   4.398   8.154   9.364 -1.5388  0.3203  0.4537
  137bbb     H2 4083   4.351   8.319   9.424 -1.3875  2.3129 -1.7921
  137bbb     C2 4084   4.202   8.100   9.278  0.5618 -0.2595 -0.3145
  137bbb     H3 4085   4.211   8.069   9.382 -0.8929 -0.3431 -0.1851
  137bbb     H4 4086   4.267   8.040   9.215 -0.4031 -1.8068  0.1195
  137bbb     C3 4087   4.148   8.340   9.317 -0.5868  0.8494  0.8889
  137bbb     H5 4088   4.153   8.322   9.424  0.3488  1.4085  0.9503
  137bbb     H6 4089   4.050   8.324   9.273 -0.6610  0.6764  1.1143
  137bbb     C4 4090   4.164   8.496   9.295  0.1474 -0.2230 -0.1487
  137bbb     H7 4091   4.186   8.508   9.188  2.4375 -0.2328  0.2745
  137bbb     H8 4092   4.252   8.516   9.356  1.6151 -1.3400 -1.8030
  137bbb     C5 4093   4.495   8.310   9.250 -0.4699 -0.0190 -0.0917
  137bbb     H9 4094   4.478   8.415   9.223 -0.4497  0.6515  2.2959
  137bbb    H10 4095   4.500   8.252   9.157 -0.8890  1.3272 -0.9997
  137bbb     C6 4096   4.058   8.061   9.219 -0.1524 -0.2318  0.3173
  137bbb    H11 4097   4.056   8.089   9.113 -4.2341  1.7922  0.7074
  137bbb    H12 4098   3.979   8.121   9.266 -1.5532 -1.4829 -0.3637
  137bbb     C7 4099   4.043   8.583   9.343  0.7587  0.2115 -0.3399
  137bbb    H13 4100   4.046   8.685   9.304 -1.3825  0.5681  0.2946
  137bbb    H14 4101   4.032   8.595   9.452  1.6392  1.1278 -0.3409
  137bbb     C8 4102   4.021   7.913   9.230  0.4594 -0.2253  0.3199
  137bbb    H15 4103   3.921   7.888   9.192  0.6593  0.8605 -0.9954
  137bbb    H16 4104   4.094   7.862   9.166  0.7178  0.8119 -0.2416
  137bbb     C9 4105   4.631   8.302   9.331  0.3177 -0.5763  0.7187
  137bbb    H17 4106   4.618   8.353   9.427 -1.6590  0.2962  0.0530
  137bbb    H18 4107   4.710   8.351   9.272  0.1983 -0.6202  0.5198
  137bbb     O1 4108   3.920   8.524   9.291 -0.2053 -0.2570 -0.2078
  137bbb    H19 4109   4.266   8.253   9.155 -1.7823 -4.5701 -0.7902
  138bbb     N1 4110   3.950   8.124  10.029 -0.0266  0.1749 -0.2218
  138bbb     C1 4111   4.045   8.222   9.957  0.1322  0.7519  0.4460
  138bbb     H1 4112   3.989   8.304   9.914 -0.3455  0.4735  0.5356
  138bbb     H2 4113   4.064   8.162   9.868  0.6433 -1.4337  1.9451
  138bbb     C2 4114   3.901   8.177  10.165  0.5014  0.3373 -0.0503
  138bbb     H3 4115   3.991   8.175  10.227  0.3822 -1.6679  0.1300
  138bbb     H4 4116   3.819   8.115  10.201  0.0928  0.9553  0.0954
  138bbb     C3 4117   3.831   8.093   9.942  0.3880 -0.2519  0.3781
  138bbb     H5 4118   3.815   8.187   9.888  1.1104  0.0183  0.6211
  138bbb     H6 4119   3.753   8.059  10.010 -0.3623 -0.4491 -0.5622
  138bbb     C4 4120   3.847   7.992   9.832 -0.1948  1.0541 -0.0108
  138bbb     H7 4121   3.866   7.891   9.872  0.8551  1.1570 -0.2293
  138bbb     H8 4122   3.940   8.017   9.780  0.5181  0.9802  1.1864
  138bbb     C5 4123   4.177   8.268  10.037 -0.5991  0.2778 -0.1017
  138bbb     H9 4124   4.150   8.321  10.129  0.6077  0.8757 -0.0686
  138bbb    H10 4125   4.234   8.339   9.977 -1.2147 -0.2664 -1.3731
  138bbb     C6 4126   3.856   8.327  10.169 -0.2569  0.1004  0.1975
  138bbb    H11 4127   3.763   8.337  10.112 -0.0740  1.7272  0.1276
  138bbb    H12 4128   3.927   8.393  10.117  0.3748  0.2750  1.2475
  138bbb     C7 4129   3.733   7.994   9.729  0.3328  0.0871 -0.4314
  138bbb    H13 4130   3.638   7.979   9.784  0.5215  0.6635  0.0706
  138bbb    H14 4131   3.749   7.907   9.665 -0.9272 -0.9890  0.6498
  138bbb     C8 4132   3.834   8.384  10.309 -0.0317  0.0139  0.1073
  138bbb    H15 4133   3.774   8.309  10.362  1.7670 -1.8213 -0.3307
  138bbb    H16 4134   3.927   8.400  10.365  0.7147  0.9998 -1.3341
  138bbb     C9 4135   4.267   8.151  10.071 -0.8253  0.3618  0.2100
  138bbb    H17 4136   4.227   8.099  10.160  0.4488  0.9321  1.1456
  138bbb    H18 4137   4.367   8.190  10.094 -1.2856  2.0340 -0.4857
  138bbb     O1 4138   3.730   8.123   9.662 -0.1231  0.2622  0.3067
  138bbb    H19 4139   3.992   8.031  10.047  0.8194  0.8188  1.3033
  139bbb     N1 4140   2.863   9.387   7.785 -0.2096 -0.2581  0.2943
  139bbb     C1 4141   2.859   9.522   7.849  0.0789  0.1182 -0.0219
  139bbb     H1 4142   2.789   9.588   7.798 -0.1374 -0.6226 -0.7037
  139bbb     H2 4143   2.956   9.570   7.836  0.7044 -1.1555 -0.2065
  139bbb     C2 4144   2.906   9.415   7.644 -0.2029 -0.4581  0.7962
  139bbb     H3 4145   2.901   9.325   7.582  1.4453 -0.3519  0.4805
  139bbb     H4 4146   3.003   9.459   7.664 -1.0050  0.9380  1.8062
  139bbb     C3 4147   2.978   9.305   7.852 -0.1136  0.3964  0.1343
  139bbb     H5 4148   2.931   9.256   7.938  1.9288  0.0338  1.1234
  139bbb     H6 4149   3.064   9.365   7.884  0.6127 -0.4284 -0.2166
  139bbb     C4 4150   3.036   9.184   7.773  0.1433  0.1514 -0.5992
  139bbb     H7 4151   3.108   9.224   7.700  1.9759 -1.6654  0.0989
  139bbb     H8 4152   2.957   9.118   7.736  0.2612 -0.9259  0.9835
  139bbb     C5 4153   2.821   9.529   7.999  0.3211 -0.5681  0.9752
  139bbb     H9 4154   2.899   9.480   8.059  1.6570  0.3904  0.0815
  139bbb    H10 4155   2.729   9.472   8.017  0.5754 -1.8577 -1.4042
  139bbb     C6 4156   2.832   9.528   7.564 -0.3546 -0.0066 -0.0512
  139bbb    H11 4157   2.885   9.540   7.469  0.9432  1.1150  0.7873
  139bbb    H12 4158   2.843   9.627   7.609 -0.1053 -0.2507  0.4350
  139bbb     C7 4159   3.126   9.093   7.860  0.5382  0.2146 -0.1426
  139bbb    H13 4160   3.064   9.029   7.924  0.1688 -1.8544 -2.4372
  139bbb    H14 4161   3.192   9.152   7.924  1.8906 -1.2952 -0.0970
  139bbb     C8 4162   2.681   9.510   7.535 -0.1340 -0.0967  0.4492
  139bbb    H15 4163   2.647   9.594   7.474  0.8616 -0.2381 -0.3347
  139bbb    H16 4164   2.672   9.420   7.473  1.9091  0.3938 -0.6758
  139bbb     C9 4165   2.796   9.673   8.043 -0.0255 -0.1952 -0.6601
  139bbb    H17 4166   2.887   9.733   8.035 -0.9483  1.3056 -0.2951
  139bbb    H18 4167   2.762   9.674   8.147  1.0978  0.7155 -0.2873
  139bbb     O1 4168   3.210   9.014   7.771  0.2298 -0.1405  0.4123
  139bbb    H19 4169   2.772   9.341   7.798 -0.7046 -0.0733 -2.0730
  140bbb     N1 4170   3.068   8.428   6.951 -0.3000  0.6632  0.2836
  140bbb     C1 4171   3.029   8.565   6.891  0.6080 -0.1147  0.6127
  140bbb     H1 4172   3.093   8.572   6.803 -1.9956  1.1385 -1.2968
  140bbb     H2 4173   3.077   8.643   6.951 -0.3994  0.1060  1.1533
  140bbb     C2 4174   3.059   8.313   6.853 -0.0315 -0.2115 -0.5067
  140bbb     H3 4175   2.961   8.326   6.807 -0.0007  0.8564 -0.2772
  140bbb     H4 4176   3.057   8.230   6.924  0.2202  1.6247  1.7584
  140bbb     C3 4177   3.202   8.435   7.019 -0.3697 -0.2417 -0.4049
  140bbb     H5 4178   3.189   8.521   7.086 -0.4697 -0.6132  0.0546
  140bbb     H6 4179   3.274   8.448   6.939  0.5592 -1.9844  0.1178
  140bbb     C4 4180   3.238   8.310   7.105 -0.5491 -0.0808 -0.2330
  140bbb     H7 4181   3.254   8.236   7.026 -0.1572  0.7751 -0.9771
  140bbb     H8 4182   3.155   8.281   7.171  0.3849  0.5438  1.2681
  140bbb     C5 4183   2.879   8.602   6.868 -0.1310  0.3436  0.1962
  140bbb     H9 4184   2.809   8.580   6.950 -0.1345 -0.0525  0.0877
  140bbb    H10 4185   2.832   8.542   6.789 -0.2566  1.1767 -0.3684
  140bbb     C6 4186   3.173   8.294   6.753  0.3581 -0.5166  0.3448
  140bbb    H11 4187   3.175   8.189   6.721  1.4485 -0.5492  0.5051
  140bbb    H12 4188   3.265   8.297   6.812 -0.8370 -2.1550  2.4100
  140bbb     C7 4189   3.355   8.336   7.203 -0.2816 -0.3286  0.3124
  140bbb    H13 4190   3.444   8.361   7.143 -0.2670 -1.2607 -0.0821
  140bbb    H14 4191   3.371   8.246   7.265 -2.0128 -0.0196  1.2493
  140bbb     C8 4192   3.180   8.390   6.630  0.4994 -0.7679  0.4989
  140bbb    H15 4193   3.224   8.487   6.656 -0.2478 -0.8644  2.2115
  140bbb    H16 4194   3.239   8.331   6.557 -1.9929 -1.6092 -0.9544
  140bbb     C9 4195   2.862   8.742   6.815  0.0946 -0.1916 -0.2766
  140bbb    H17 4196   2.760   8.751   6.775  0.2297  1.2931 -0.3342
  140bbb    H18 4197   2.935   8.755   6.735  0.0566  1.6774 -0.0531
  140bbb     O1 4198   3.312   8.448   7.285 -0.8205 -0.0950  0.0378
  140bbb    H19 4199   2.995   8.411   7.022  1.4040  2.0958  2.5406
  141bbb     N1 4200   2.078   8.335   7.670 -0.4686  0.1820  0.2612
  141bbb     C1 4201   1.992   8.330   7.545  0.0443  0.3520 -0.5076
  141bbb     H1 4202   1.908   8.265   7.569  0.6876 -0.0837  0.5883
  141bbb     H2 4203   2.058   8.280   7.474  0.5366 -1.9564  1.4580
  141bbb     C2 4204   2.095   8.192   7.736  0.6198  0.1174  1.1318
  141bbb     H3 4205   2.105   8.127   7.649 -3.8873 -0.8949  1.1408
  141bbb     H4 4206   1.996   8.162   7.769  0.0773  0.5484 -0.0300
  141bbb     C3 4207   2.218   8.398   7.641 -0.4739 -0.0108  0.0589
  141bbb     H5 4208   2.282   8.386   7.729 -0.0740 -0.1018 -0.2379
  141bbb     H6 4209   2.194   8.503   7.625  0.3331  0.3807  1.2841
  141bbb     C4 4210   2.296   8.345   7.513  1.0466 -0.0208 -0.0234
  141bbb     H7 4211   2.238   8.379   7.426  0.2419 -0.6857  0.2382
  141bbb     H8 4212   2.292   8.236   7.499  0.5000  0.1468 -1.2970
  141bbb     C5 4213   1.951   8.470   7.496 -0.8944 -0.0285 -0.2493
  141bbb     H9 4214   2.036   8.539   7.479 -0.9250  0.2320  0.5711
  141bbb    H10 4215   1.885   8.521   7.568 -1.0633 -0.3247 -0.1951
  141bbb     C6 4216   2.215   8.163   7.826  0.2088 -0.0663  0.1644
  141bbb    H11 4217   2.208   8.228   7.914  0.6676 -1.9500  1.6828
  141bbb    H12 4218   2.307   8.182   7.771 -0.9766 -1.6115 -2.5737
  141bbb     C7 4219   2.445   8.398   7.507  0.6091 -0.0312 -0.2493
  141bbb    H13 4220   2.450   8.507   7.495 -0.9826  0.3100  1.6221
  141bbb    H14 4221   2.497   8.350   7.423  0.2256  1.1990 -1.2176
  141bbb     C8 4222   2.212   8.023   7.883 -0.3605 -0.0686  0.1623
  141bbb    H15 4223   2.135   8.012   7.960  0.1213  2.6733  1.1575
  141bbb    H16 4224   2.192   7.948   7.806 -1.3215  1.3719 -1.0503
  141bbb     C9 4225   1.870   8.454   7.368  0.0037 -0.5434  0.5060
  141bbb    H17 4226   1.825   8.549   7.338  1.0159  0.7699  2.8484
  141bbb    H18 4227   1.799   8.373   7.388 -0.0707 -0.6702 -0.2609
  141bbb     O1 4228   2.512   8.368   7.632  0.1972  0.5310 -0.6427
  141bbb    H19 4229   2.028   8.392   7.740 -1.8822  0.2901 -0.7994
  142bbb     N1 4230   2.294   7.640   7.153  0.1112  0.2082  0.4101
  142bbb     C1 4231   2.315   7.735   7.032  0.3214  0.3138 -0.1755
  142bbb     H1 4232   2.265   7.693   6.944  2.3139 -4.0560  0.5331
  142bbb     H2 4233   2.422   7.732   7.011  0.1100 -0.9629 -1.1943
  142bbb     C2 4234   2.300   7.501   7.101 -0.3254  0.6679  0.2542
  142bbb     H3 4235   2.286   7.434   7.186  0.8340  1.0579  0.7764
  142bbb     H4 4236   2.403   7.499   7.065 -0.8762  1.8025 -1.5583
  142bbb     C3 4237   2.399   7.677   7.255 -0.1809 -0.5563  0.0838
  142bbb     H5 4238   2.388   7.784   7.274  1.3552  0.1217 -2.4740
  142bbb     H6 4239   2.496   7.667   7.207  0.1773 -0.3931  0.7618
  142bbb     C4 4240   2.396   7.603   7.390  0.5389  0.8843  0.7156
  142bbb     H7 4241   2.392   7.497   7.361  1.8169  1.6123 -2.5821
  142bbb     H8 4242   2.300   7.627   7.437 -0.9347 -3.1270  0.1663
  142bbb     C5 4243   2.275   7.882   7.046 -0.1291  0.2816  0.5514
  142bbb     H9 4244   2.346   7.937   7.109 -0.2428  1.4455 -0.3022
  142bbb    H10 4245   2.178   7.894   7.096 -0.7092  1.9779 -0.8591
  142bbb     C6 4246   2.193   7.452   7.002  0.0156 -0.5478 -0.6254
  142bbb    H11 4247   2.219   7.348   6.980 -1.7243 -1.2868  0.5308
  142bbb    H12 4248   2.217   7.509   6.911  0.4780 -1.6391 -1.2014
  142bbb     C7 4249   2.524   7.625   7.468 -0.9518  0.0806 -0.0490
  142bbb    H13 4250   2.604   7.568   7.419 -0.5163  0.6129  0.0391
  142bbb    H14 4251   2.520   7.574   7.565  0.1915  0.2265  0.0812
  142bbb     C8 4252   2.047   7.466   7.039  0.9361 -0.6123 -0.1811
  142bbb    H15 4253   1.982   7.402   6.977 -2.2325  1.5085  0.6903
  142bbb    H16 4254   2.051   7.424   7.140  0.1081 -0.6101 -0.1339
  142bbb     C9 4255   2.271   7.953   6.915  0.6759 -0.2455 -0.0444
  142bbb    H17 4256   2.368   7.961   6.864 -1.2477  0.0831 -4.0450
  142bbb    H18 4257   2.237   8.056   6.924  0.8742 -0.1471 -0.3996
  142bbb     O1 4258   2.561   7.764   7.478 -0.6153  0.0964 -0.0591
  142bbb    H19 4259   2.204   7.660   7.201  0.4641  2.5793  0.1986
  143bbb     N1 4260   1.744   5.792  12.044  0.4084  0.5443  0.1895
  143bbb     C1 4261   1.804   5.669  12.115 -0.5060  0.8786 -0.6919
  143bbb     H1 4262   1.782   5.669  12.222  1.0932  0.6664 -0.3419
  143bbb     H2 4263   1.912   5.670  12.101 -0.4134  0.9603  0.0148
  143bbb     C2 4264   1.811   5.914  12.091  0.8029 -0.1738 -0.6458
  143bbb     H3 4265   1.801   5.925  12.199  2.0841 -0.7643 -0.4391
  143bbb     H4 4266   1.756   6.002  12.059  1.3311  0.8967  1.1827
  143bbb     C3 4267   1.760   5.766  11.890 -0.8583  0.3806 -0.5054
  143bbb     H5 4268   1.708   5.673  11.867  1.0548 -0.2536 -2.7118
  143bbb     H6 4269   1.867   5.749  11.876 -0.8744 -1.0251  0.7950
  143bbb     C4 4270   1.709   5.870  11.787  0.4272  0.1630  0.2070
  143bbb     H7 4271   1.759   5.967  11.797 -3.3738  2.1876  1.5225
  143bbb     H8 4272   1.601   5.884  11.801  0.1872 -2.2185  1.2959
  143bbb     C5 4273   1.753   5.532  12.070  0.6289 -0.2539 -0.1834
  143bbb     H9 4274   1.645   5.530  12.051  0.4590  2.5462  0.0472
  143bbb    H10 4275   1.756   5.468  12.159 -1.3453  0.9783  0.8356
  143bbb     C6 4276   1.956   5.932  12.043  0.0312  0.5359  0.6737
  143bbb    H11 4277   1.956   5.952  11.935  0.4332  2.3275  0.9740
  143bbb    H12 4278   2.009   5.837  12.054  0.0840  0.4943  0.0961
  143bbb     C7 4279   1.733   5.809  11.645  0.5188  0.3514  0.2239
  143bbb    H13 4280   1.701   5.704  11.642  1.0678  0.1527  1.0157
  143bbb    H14 4281   1.841   5.820  11.628  0.8165 -1.6289  0.5814
  143bbb     C8 4282   2.023   6.050  12.113  1.0494 -0.4052  0.9222
  143bbb    H15 4283   2.131   6.052  12.098  0.8493 -0.3251 -0.7521
  143bbb    H16 4284   1.996   6.152  12.082 -0.0613 -0.8391  0.4066
  143bbb     C9 4285   1.836   5.472  11.964  0.0109 -0.3724  0.0245
  143bbb    H17 4286   1.812   5.519  11.867  0.4448 -1.1044 -0.4497
  143bbb    H18 4287   1.804   5.368  11.954 -1.0840 -0.1324  0.8977
  143bbb     O1 4288   1.666   5.894  11.548  0.1198 -0.5630 -0.1839
  143bbb    H19 4289   1.643   5.796  12.063  0.0067 -1.5781 -1.1420
  144bbb     N1 4290   2.010   6.671  12.038  0.3586  0.2183 -0.1474
  144bbb     C1 4291   1.877   6.748  12.046  0.0871 -0.8711  0.3687
  144bbb     H1 4292   1.805   6.669  12.067 -1.2923  0.1924 -0.2218
  144bbb     H2 4293   1.865   6.798  11.950  1.4061  0.3733  0.8116
  144bbb     C2 4294   2.045   6.610  12.173  0.6297 -0.5639 -0.7048
  144bbb     H3 4295   2.087   6.511  12.157  0.2374 -1.1975  1.7750
  144bbb     H4 4296   1.952   6.607  12.230 -0.0391 -1.0853 -1.7891
  144bbb     C3 4297   1.987   6.559  11.938 -0.3422  0.6928 -0.3804
  144bbb     H5 4298   1.909   6.497  11.982 -0.5264 -0.1959 -1.9047
  144bbb     H6 4299   2.084   6.509  11.942 -0.3067  0.5780 -2.1394
  144bbb     C4 4300   1.965   6.596  11.795  0.2172 -0.1864 -0.5429
  144bbb     H7 4301   2.049   6.659  11.761 -0.1329  0.2917 -0.5263
  144bbb     H8 4302   1.879   6.664  11.800 -1.2241 -1.9683  0.1388
  144bbb     C5 4303   1.873   6.844  12.171  0.0277 -0.0519 -0.1456
  144bbb     H9 4304   1.965   6.904  12.172 -0.2623  0.4256  1.8318
  144bbb    H10 4305   1.864   6.785  12.262 -0.9884 -0.5942 -0.5790
  144bbb     C6 4306   2.152   6.676  12.257  0.1507 -0.0108  0.7239
  144bbb    H11 4307   2.122   6.780  12.278 -2.8264 -0.0947 -2.1577
  144bbb    H12 4308   2.243   6.677  12.196 -0.9114 -1.0492 -0.9613
  144bbb     C7 4309   1.943   6.491  11.681 -0.3150  0.8146 -0.2397
  144bbb    H13 4310   2.012   6.410  11.705  1.5389  1.9379 -1.5190
  144bbb    H14 4311   1.979   6.536  11.588  0.7132  0.0820 -0.2104
  144bbb     C8 4312   2.205   6.610  12.384 -0.1814 -0.7539 -0.0406
  144bbb    H15 4313   2.267   6.687  12.430 -0.3850  0.3359 -1.5424
  144bbb    H16 4314   2.113   6.589  12.442 -2.3920  1.7624 -2.3838
  144bbb     C9 4315   1.752   6.940  12.176 -0.0884  1.1002 -0.5109
  144bbb    H17 4316   1.754   7.009  12.091  0.7824 -0.4683 -1.7963
  144bbb    H18 4317   1.743   6.997  12.270  0.0745  0.0552  0.1504
  144bbb     O1 4318   1.801   6.460  11.674  0.0961  0.2040 -0.1055
  144bbb    H19 4319   2.088   6.730  12.007  0.5959  0.6396  1.1909
  145bbb     N1 4320   0.965   6.056  11.613 -0.3098  0.2693  0.1118
  145bbb     C1 4321   0.889   5.945  11.677 -0.1066 -0.4519 -0.1268
  145bbb     H1 4322   0.892   5.952  11.786 -2.5312 -0.2544 -0.0162
  145bbb     H2 4323   0.930   5.848  11.647  2.0715  0.0593  0.9693
  145bbb     C2 4324   0.929   6.188  11.671  0.4922 -0.1341 -0.3232
  145bbb     H3 4325   0.957   6.197  11.775  0.6894  1.3705 -0.4742
  145bbb     H4 4326   0.820   6.199  11.660  0.6903  2.3134 -0.4357
  145bbb     C3 4327   1.116   6.049  11.646  0.1564  0.4019 -0.2739
  145bbb     H5 4328   1.122   6.043  11.755 -1.9815  3.0070  0.0759
  145bbb     H6 4329   1.154   6.141  11.603 -1.0266  0.2645 -1.6843
  145bbb     C4 4330   1.189   5.931  11.574 -0.0668  0.3616  0.6199
  145bbb     H7 4331   1.143   5.838  11.611 -0.3805  1.4324  3.1136
  145bbb     H8 4332   1.296   5.928  11.598  0.4829  0.1393 -1.6737
  145bbb     C5 4333   0.743   5.943  11.639 -0.4565 -0.0020  1.0779
  145bbb     H9 4334   0.725   5.872  11.558 -1.3667  0.7337  0.6221
  145bbb    H10 4335   0.703   6.039  11.604  0.2427 -0.4913 -1.2331
  145bbb     C6 4336   0.978   6.310  11.600  0.3072 -0.1769 -0.0186
  145bbb    H11 4337   1.084   6.318  11.572 -0.2191  1.5670 -1.7398
  145bbb    H12 4338   0.966   6.389  11.675  2.2078  0.9313 -0.8044
  145bbb     C7 4339   1.195   5.946  11.421  0.1226  0.4201  0.6922
  145bbb    H13 4340   1.268   6.026  11.406 -1.5165  1.9549  0.4966
  145bbb    H14 4341   1.099   5.981  11.380 -0.0834 -0.9205 -0.0326
  145bbb     C8 4342   0.905   6.348  11.466  0.7701  0.0346  0.6641
  145bbb    H15 4343   0.797   6.338  11.485  0.9198 -0.3157  1.3595
  145bbb    H16 4344   0.929   6.453  11.448 -1.9061  0.7137  0.5870
  145bbb     C9 4345   0.659   5.878  11.753 -0.4710  0.2954 -0.0908
  145bbb    H17 4346   0.691   5.777  11.782 -0.8182  0.8644  2.5393
  145bbb    H18 4347   0.554   5.882  11.724 -0.7230  0.5786  0.8350
  145bbb     O1 4348   1.238   5.825  11.347 -0.4288 -0.2628  0.6148
  145bbb    H19 4349   0.954   6.048  11.511  0.1918  1.1758 -0.0250
  146bbb     N1 4350   0.835   5.251  11.289  0.2195 -0.2489 -0.0465
  146bbb     C1 4351   0.721   5.324  11.220  0.4771 -0.3086  1.0286
  146bbb     H1 4352   0.643   5.341  11.294  1.1795  0.3263  1.6381
  146bbb     H2 4353   0.673   5.262  11.144 -0.9278  1.0786  0.7478
  146bbb     C2 4354   0.783   5.117  11.349  0.5199 -0.0833  0.2028
  146bbb     H3 4355   0.769   5.051  11.263  2.0252 -0.6540  0.3667
  146bbb     H4 4356   0.686   5.128  11.397 -0.0528 -0.5063 -0.8386
  146bbb     C3 4357   0.962   5.230  11.204 -0.0331 -0.4526 -0.2612
  146bbb     H5 4358   1.044   5.226  11.275  0.2058 -1.3105 -0.5788
  146bbb     H6 4359   0.981   5.327  11.158 -1.8699  0.1041  0.0739
  146bbb     C4 4360   0.942   5.129  11.095  0.1584  0.1243 -0.0906
  146bbb     H7 4361   0.858   5.156  11.029 -0.2483  1.4273  0.9005
  146bbb     H8 4362   0.910   5.037  11.146  0.6888  0.1885  0.3575
  146bbb     C5 4363   0.757   5.467  11.167  0.5424 -0.0661 -0.9553
  146bbb     H9 4364   0.854   5.469  11.116  0.8279  0.3129 -0.4024
  146bbb    H10 4365   0.769   5.533  11.254  1.9742  0.1284 -1.2870
  146bbb     C6 4366   0.881   5.059  11.446 -0.3861  0.1545 -0.3949
  146bbb    H11 4367   0.904   5.133  11.525  1.0705  0.4363 -1.0438
  146bbb    H12 4368   0.973   5.022  11.400  0.2529  0.2175  0.7830
  146bbb     C7 4369   1.070   5.101  11.010 -0.0865 -0.5932 -0.2574
  146bbb    H13 4370   1.047   5.048  10.917 -0.9321 -2.8003  1.1400
  146bbb    H14 4371   1.131   5.030  11.069 -3.3525 -1.6056  2.1984
  146bbb     C8 4372   0.831   4.935  11.516  0.7900 -0.1838  0.2382
  146bbb    H15 4373   0.811   4.859  11.440 -0.9881  2.5565 -2.2167
  146bbb    H16 4374   0.899   4.897  11.594  0.4275 -2.5825 -0.5291
  146bbb     C9 4375   0.644   5.517  11.075 -0.7081  0.1225 -0.4675
  146bbb    H17 4376   0.664   5.625  11.068  2.1039 -0.2628  0.2846
  146bbb    H18 4377   0.548   5.505  11.128  0.1134 -1.0568  0.8417
  146bbb     O1 4378   1.137   5.231  10.980  0.2741  0.1425 -0.7282
  146bbb    H19 4379   0.860   5.308  11.371 -0.0149 -1.1127  0.6383
  147bbb     N1 4380   4.495   5.851  12.301  0.0859 -0.5292 -0.3896
  147bbb     C1 4381   4.629   5.870  12.377 -0.6419  0.4814  0.4993
  147bbb     H1 4382   4.674   5.960  12.336 -1.3887  0.4661 -0.3842
  147bbb     H2 4383   4.679   5.774  12.362 -2.6730 -0.4316 -0.8047
  147bbb     C2 4384   4.408   5.746  12.362  0.5005 -0.5229 -0.2174
  147bbb     H3 4385   4.304   5.775  12.345  0.5588  1.4830  2.2973
  147bbb     H4 4386   4.420   5.770  12.468 -0.7642 -2.0523  0.3164
  147bbb     C3 4387   4.415   5.984  12.309  0.6907  0.5311  0.0551
  147bbb     H5 4388   4.466   6.065  12.361  2.2418 -0.6739  0.4771
  147bbb     H6 4389   4.332   5.958  12.375  3.6363 -2.9631  2.8140
  147bbb     C4 4390   4.378   6.053  12.172  0.2047  0.6566  0.3388
  147bbb     H7 4391   4.444   6.035  12.086  0.8776  3.8492  0.0614
  147bbb     H8 4392   4.384   6.162  12.183 -1.4137  0.7759  0.3232
  147bbb     C5 4393   4.631   5.910  12.524 -0.3852 -0.0887 -0.2358
  147bbb     H9 4394   4.600   5.825  12.586 -1.7999  0.3034 -0.3764
  147bbb    H10 4395   4.566   5.998  12.531 -0.1808  0.1400 -1.0662
  147bbb     C6 4396   4.431   5.597  12.343 -0.1013 -0.0916  0.3094
  147bbb    H11 4397   4.539   5.580  12.344 -0.2658 -1.2442  1.8769
  147bbb    H12 4398   4.407   5.555  12.245 -0.7714  0.5350  0.1987
  147bbb     C7 4399   4.229   6.019  12.126 -0.2755 -0.3383 -0.0735
  147bbb    H13 4400   4.220   6.043  12.020 -1.1134  1.5309  0.3778
  147bbb    H14 4401   4.156   6.087  12.172 -0.0218 -0.5506  0.6517
  147bbb     C8 4402   4.368   5.517  12.456  0.3279 -0.8863  0.7123
  147bbb    H15 4403   4.420   5.421  12.463  0.4383 -0.9061 -0.2272
  147bbb    H16 4404   4.389   5.563  12.554  1.1199 -0.5249  0.3823
  147bbb     C9 4405   4.763   5.968  12.582  0.4164 -0.5453  0.4313
  147bbb    H17 4406   4.807   5.891  12.647  1.6300  1.4792  2.1206
  147bbb    H18 4407   4.743   6.050  12.652  0.9974 -1.4299  1.6560
  147bbb     O1 4408   4.198   5.878  12.149  0.7038  0.5261 -0.2774
  147bbb    H19 4409   4.521   5.821  12.206 -0.4699  1.1595 -1.1126
  148bbb     N1 4410   4.856   5.207  12.277  0.4463 -0.5051  0.0338
  148bbb     C1 4411   4.908   5.262  12.146  0.0608  0.7208 -0.1594
  148bbb     H1 4412   4.942   5.363  12.167 -0.3009  0.3290  2.7061
  148bbb     H2 4413   4.825   5.254  12.076  0.5734  0.0689 -0.7037
  148bbb     C2 4414   4.918   5.260  12.402 -0.0331  0.7858 -0.3384
  148bbb     H3 4415   4.908   5.369  12.395 -2.9856  0.7706  2.1295
  148bbb     H4 4416   5.027   5.256  12.388  0.2654  5.4170 -1.1824
  148bbb     C3 4417   4.706   5.236  12.282 -0.2377  0.1679  0.0864
  148bbb     H5 4418   4.688   5.316  12.211 -1.7215  0.7879  1.0926
  148bbb     H6 4419   4.681   5.278  12.380  1.5846  0.3256  0.5064
  148bbb     C4 4420   4.610   5.117  12.261 -0.3298  0.1470  0.3204
  148bbb     H7 4421   4.624   5.048  12.345  0.7925 -1.1348 -0.8827
  148bbb     H8 4422   4.637   5.066  12.168 -0.2780  2.9841 -1.3519
  148bbb     C5 4423   5.022   5.188  12.080  0.1618  0.1113 -0.7091
  148bbb     H9 4424   5.012   5.079  12.085 -1.5826  0.2558  3.9686
  148bbb    H10 4425   5.115   5.206  12.136 -0.0219 -1.6659  0.2373
  148bbb     C6 4426   4.872   5.208  12.537  0.7493 -0.1601  0.3026
  148bbb    H11 4427   4.881   5.099  12.544 -0.2136 -0.2569  0.2965
  148bbb    H12 4428   4.762   5.210  12.545  0.7748 -0.8936  0.9410
  148bbb     C7 4429   4.461   5.148  12.263  0.8106  0.1459 -0.1381
  148bbb    H13 4430   4.418   5.181  12.358 -0.1664 -0.5068 -0.3360
  148bbb    H14 4431   4.414   5.052  12.237  1.9146 -0.6034  0.5224
  148bbb     C8 4432   4.926   5.287  12.658  0.3361  0.1165 -0.2324
  148bbb    H15 4433   4.891   5.390  12.647 -2.3399 -0.5324  1.2617
  148bbb    H16 4434   4.896   5.252  12.757 -0.5388  1.9867  0.1931
  148bbb     C9 4435   5.041   5.225  11.929 -0.0773  0.9709 -0.6938
  148bbb    H17 4436   5.131   5.174  11.892 -0.2583 -0.3399  0.5537
  148bbb    H18 4437   5.057   5.332  11.912  1.5634  0.8180 -0.3525
  148bbb     O1 4438   4.428   5.246  12.160  0.0297 -0.2428  0.0110
  148bbb    H19 4439   4.867   5.105  12.281  0.5813 -0.6619 -2.5994
  149bbb     N1 4440   2.969   5.521  12.239 -0.4052  0.0101 -0.9325
  149bbb     C1 4441   3.042   5.489  12.368 -0.7322  0.1312 -0.1074
  149bbb     H1 4442   3.113   5.571  12.375 -0.4308 -0.0821 -0.6652
  149bbb     H2 4443   3.103   5.403  12.341  0.7177  0.7595  1.0473
  149bbb     C2 4444   3.068   5.596  12.148 -0.2436 -0.0574 -0.3585
  149bbb     H3 4445   3.041   5.572  12.046  1.3502 -2.5652 -0.2883
  149bbb     H4 4446   3.168   5.555  12.161 -0.4000  0.1188  1.7906
  149bbb     C3 4447   2.933   5.391  12.167 -0.9051 -0.2981  0.1979
  149bbb     H5 4448   2.906   5.315  12.241  2.3991 -2.4509 -0.6115
  149bbb     H6 4449   3.020   5.351  12.116 -1.7397 -1.2158 -0.5317
  149bbb     C4 4450   2.821   5.406  12.058  0.4356 -0.5075  0.0201
  149bbb     H7 4451   2.856   5.470  11.976 -0.5865 -0.2303 -0.2095
  149bbb     H8 4452   2.733   5.452  12.103  1.1196  0.0572  0.8222
  149bbb     C5 4453   2.961   5.451  12.500 -0.4415 -0.1151  0.3681
  149bbb     H9 4454   2.901   5.360  12.485 -1.3217  0.6672 -1.0956
  149bbb    H10 4455   2.891   5.534  12.512 -1.2327 -0.0300 -3.5032
  149bbb     C6 4456   3.069   5.755  12.183 -0.0034  0.8073  0.1560
  149bbb    H11 4457   3.157   5.803  12.138  0.4034 -0.6980 -0.7481
  149bbb    H12 4458   3.051   5.777  12.288  1.3978 -1.4069  0.9287
  149bbb     C7 4459   2.769   5.270  12.006 -0.1095 -0.6891  1.0411
  149bbb    H13 4460   2.695   5.297  11.930  2.1014 -0.6971 -1.2519
  149bbb    H14 4461   2.719   5.213  12.084 -2.4877 -1.8310 -1.1647
  149bbb     C8 4462   2.957   5.827  12.100  0.0810  0.0900  0.4104
  149bbb    H15 4463   2.942   5.930  12.137  0.8975 -0.4056  2.2240
  149bbb    H16 4464   2.983   5.832  11.994 -0.7201  0.8285  0.2350
  149bbb     C9 4465   3.053   5.427  12.618 -0.1818  0.1901 -0.2838
  149bbb    H17 4466   3.035   5.324  12.650 -2.1236  0.4471 -0.4001
  149bbb    H18 4467   3.021   5.491  12.702 -0.5359 -0.4938  0.1146
  149bbb     O1 4468   2.876   5.201  11.932  0.0307  0.1151  0.2795
  149bbb    H19 4469   2.885   5.580  12.249 -1.3844 -1.3217 -1.0837
  150bbb     N1 4470   3.240   4.578  12.572 -0.0359 -0.0229 -0.0471
  150bbb     C1 4471   3.113   4.514  12.630 -0.1346  0.5815  0.6875
  150bbb     H1 4472   3.130   4.489  12.734 -1.1353  0.2444  0.7849
  150bbb     H2 4473   3.104   4.421  12.574  0.7263  0.6382  0.4354
  150bbb     C2 4474   3.365   4.551  12.654  0.5176 -0.0242 -0.2464
  150bbb     H3 4475   3.423   4.467  12.616 -0.6715 -0.4065 -1.2702
  150bbb     H4 4476   3.333   4.514  12.752  2.4852 -0.8760  0.1226
  150bbb     C3 4477   3.265   4.549  12.425 -0.6015 -0.0631 -0.1044
  150bbb     H5 4478   3.249   4.442  12.410 -4.2178  0.4320 -0.7063
  150bbb     H6 4479   3.368   4.574  12.404 -0.4301 -0.8923 -0.3048
  150bbb     C4 4480   3.179   4.625  12.323 -0.1522  0.2603  0.5199
  150bbb     H7 4481   3.187   4.732  12.344 -4.4052  0.6797  1.0319
  150bbb     H8 4482   3.071   4.606  12.333 -0.8832  3.2554 -0.6424
  150bbb     C5 4483   2.975   4.591  12.617  0.1382 -0.7438 -0.1459
  150bbb     H9 4484   2.890   4.532  12.653 -0.6087 -0.2578 -1.0980
  150bbb    H10 4485   2.960   4.595  12.509  2.7011 -3.4442 -0.7528
  150bbb     C6 4486   3.454   4.676  12.688  0.7713  0.8678  0.1852
  150bbb    H11 4487   3.519   4.646  12.772  0.3702  1.2653  0.6510
  150bbb    H12 4488   3.392   4.752  12.738  2.3206  0.4807  2.9178
  150bbb     C7 4489   3.234   4.594  12.181 -0.7362 -0.4811 -0.1615
  150bbb    H13 4490   3.157   4.630  12.111  0.7332 -0.7523 -1.9886
  150bbb    H14 4491   3.249   4.486  12.168  1.5402 -0.5473  2.2377
  150bbb     C8 4492   3.535   4.731  12.568  0.4277 -0.0170  1.8790
  150bbb    H15 4493   3.627   4.773  12.610  1.0808 -0.9206  1.3818
  150bbb    H16 4494   3.571   4.644  12.513 -0.9851  1.3696 -1.5397
  150bbb     C9 4495   2.979   4.728  12.686 -0.0770 -0.3357  0.5788
  150bbb    H17 4496   2.999   4.717  12.793 -1.8410  1.0218  1.0972
  150bbb    H18 4497   2.881   4.774  12.669  1.2243  1.9198 -1.3416
  150bbb     O1 4498   3.355   4.676  12.148  0.6491 -0.3400 -1.0402
  150bbb    H19 4499   3.229   4.680  12.583 -0.6679 -0.2045  1.3095
  151bbb     N1 4500   4.088   7.912  12.256 -0.2583  0.6244  0.0783
  151bbb     C1 4501   3.976   7.966  12.341  0.6456  0.2340 -0.6475
  151bbb     H1 4502   3.942   8.047  12.277  0.2374 -1.0784 -2.1672
  151bbb     H2 4503   4.022   7.996  12.435 -1.5848 -1.5910  1.1852
  151bbb     C2 4504   4.180   8.021  12.205 -0.2020 -0.3773 -0.1336
  151bbb     H3 4505   4.104   8.079  12.152 -1.6523 -0.3851  1.8265
  151bbb     H4 4506   4.260   7.975  12.148 -0.6215 -1.0035 -0.2282
  151bbb     C3 4507   4.166   7.804  12.325 -0.1161  0.0402 -0.8745
  151bbb     H5 4508   4.194   7.853  12.418 -0.0278 -1.6863  0.0543
  151bbb     H6 4509   4.261   7.796  12.272  0.3258 -0.6161 -0.0157
  151bbb     C4 4510   4.114   7.664  12.354 -1.0149  0.3038 -0.0942
  151bbb     H7 4511   4.092   7.621  12.255  4.2883  0.7783 -1.7743
  151bbb     H8 4512   4.025   7.665  12.418 -0.4462 -1.1173  0.7543
  151bbb     C5 4513   3.848   7.880  12.373  0.1030 -0.3778  0.3038
  151bbb     H9 4514   3.781   7.960  12.408  0.6593  0.1734  0.1470
  151bbb    H10 4515   3.856   7.805  12.452 -0.4627 -0.1850  0.5501
  151bbb     C6 4516   4.242   8.111  12.313  0.5596 -0.5452  0.0342
  151bbb    H11 4517   4.275   8.042  12.392  0.4407  1.5762  2.0592
  151bbb    H12 4518   4.168   8.177  12.359  0.6495  1.0116 -1.9566
  151bbb     C7 4519   4.229   7.579  12.418 -0.0718 -0.2803  0.1208
  151bbb    H13 4520   4.207   7.485  12.469  2.0451  0.1022  1.9006
  151bbb    H14 4521   4.281   7.633  12.498 -0.7764  0.2177  0.2527
  151bbb     C8 4522   4.359   8.197  12.262  1.0226  0.3816 -0.0378
  151bbb    H15 4523   4.333   8.250  12.169 -1.1333 -0.3808  0.0697
  151bbb    H16 4524   4.382   8.264  12.345  1.8455  0.4415 -0.3134
  151bbb     C9 4525   3.792   7.805  12.249 -0.0120  1.1129 -0.6450
  151bbb    H17 4526   3.691   7.769  12.272  1.2543 -1.6976  0.9234
  151bbb    H18 4527   3.862   7.728  12.215  0.5594  1.7783 -1.0071
  151bbb     O1 4528   4.334   7.547  12.319 -0.1162 -0.8558  0.0149
  151bbb    H19 4529   4.052   7.865  12.172  1.7157 -2.6826  0.9231
  152bbb     N1 4530   5.018   7.294  12.369 -0.2571  0.3877  0.1212
  152bbb     C1 4531   5.084   7.425  12.306  0.4946  0.3848  0.1943
  152bbb     H1 4532   5.009   7.504  12.302  0.5892  0.4349 -0.7077
  152bbb     H2 4533   5.103   7.404  12.201  4.0435 -1.1072  0.9673
  152bbb     C2 4534   4.963   7.342  12.500 -0.2062  1.0918  0.2184
  152bbb     H3 4535   4.912   7.437  12.488  1.0484  1.6750 -0.6545
  152bbb     H4 4536   5.049   7.363  12.563 -0.3417  0.4054  0.6536
  152bbb     C3 4537   4.909   7.230  12.280 -0.4526 -0.2109 -0.3809
  152bbb     H5 4538   4.821   7.294  12.280  0.4832  1.3272  3.2702
  152bbb     H6 4539   4.880   7.138  12.331  0.7939 -0.6219 -0.3737
  152bbb     C4 4540   4.952   7.180  12.145 -0.3550  0.1584 -0.3359
  152bbb     H7 4541   4.864   7.118  12.122  0.7667 -2.3526  1.6167
  152bbb     H8 4542   5.032   7.107  12.162 -0.8746  0.0866  2.1022
  152bbb     C5 4543   5.207   7.493  12.366  0.0409 -0.6110  0.2654
  152bbb     H9 4544   5.290   7.427  12.394  1.4507  0.9280 -0.0856
  152bbb    H10 4545   5.180   7.541  12.461  0.1684 -2.5505  1.3237
  152bbb     C6 4546   4.875   7.233  12.577  0.4528  0.3498  0.5475
  152bbb    H11 4547   4.785   7.214  12.518  0.3493  0.5357  0.6447
  152bbb    H12 4548   4.849   7.280  12.673 -0.2512  3.0046 -0.8485
  152bbb     C7 4549   4.994   7.274  12.030  0.5618 -0.1921 -0.3185
  152bbb    H13 4550   4.971   7.222  11.936  0.7597 -0.3890 -0.2613
  152bbb    H14 4551   5.103   7.284  12.037  0.4029  1.5218  0.1612
  152bbb     C8 4552   4.952   7.102  12.612  0.2948  0.6896  0.4197
  152bbb    H15 4553   5.055   7.123  12.643  1.3707 -2.1434 -0.8437
  152bbb    H16 4554   4.905   7.046  12.693 -2.3176  1.7814 -0.2212
  152bbb     C9 4555   5.273   7.601  12.275 -0.2915 -0.1622  0.1124
  152bbb    H17 4556   5.350   7.665  12.320 -0.8200  1.5745 -1.3164
  152bbb    H18 4557   5.184   7.654  12.238 -1.5529 -1.6616  0.8748
  152bbb     O1 4558   4.931   7.404  12.044  0.7818 -0.3997 -0.1216
  152bbb    H19 4559   5.096   7.229  12.387  0.8182  1.5558 -0.1889
  153bbb     N1 4560   4.568   7.932  10.630  0.1091 -0.5118 -0.1446
  153bbb     C1 4561   4.688   8.037  10.630  0.6373 -0.0724 -0.4989
  153bbb     H1 4562   4.739   8.034  10.726 -0.8487  1.7450  0.4151
  153bbb     H2 4563   4.653   8.139  10.613  3.2039  1.3537  1.8665
  153bbb     C2 4564   4.506   7.922  10.488  1.0502  0.1515  0.3407
  153bbb     H3 4565   4.441   7.835  10.490  0.0370  0.8335 -1.3508
  153bbb     H4 4566   4.588   7.909  10.417 -0.9214 -0.0603 -2.0119
  153bbb     C3 4567   4.612   7.798  10.683 -0.5812 -0.0068  1.0421
  153bbb     H5 4568   4.676   7.828  10.767 -1.2501  1.6714  1.0000
  153bbb     H6 4569   4.676   7.756  10.605 -0.5400  1.6656  0.1239
  153bbb     C4 4570   4.509   7.691  10.711  0.3216  0.0190 -0.5293
  153bbb     H7 4571   4.445   7.683  10.623 -0.8570  0.4003  0.2684
  153bbb     H8 4572   4.448   7.717  10.799  0.8635  3.1502 -0.9575
  153bbb     C5 4573   4.806   8.013  10.540 -0.2386  0.7301  0.8742
  153bbb     H9 4574   4.770   7.989  10.439 -1.4224 -1.1848  1.7071
  153bbb    H10 4575   4.867   7.925  10.563 -0.9200 -0.1382 -0.4968
  153bbb     C6 4576   4.428   8.045  10.435  0.5045  0.1118 -0.4655
  153bbb    H11 4577   4.368   8.083  10.518  2.3325  2.3476 -0.0617
  153bbb    H12 4578   4.361   8.015  10.353  1.1571 -1.2435 -0.5226
  153bbb     C7 4579   4.597   7.559  10.727 -0.4187 -0.0754 -0.3886
  153bbb    H13 4580   4.657   7.543  10.637 -0.7833  0.4139 -0.7239
  153bbb    H14 4581   4.522   7.482  10.750 -0.1665 -0.1768  0.1137
  153bbb     C8 4582   4.505   8.170  10.391  0.2523  0.3104 -0.2996
  153bbb    H15 4583   4.428   8.242  10.361 -1.4315 -0.6901  1.3812
  153bbb    H16 4584   4.556   8.214  10.477 -0.5968 -0.8805  0.8415
  153bbb     C9 4585   4.903   8.135  10.535  0.2273 -0.5334 -0.2532
  153bbb    H17 4586   4.841   8.220  10.504  1.5377  0.3580 -0.5317
  153bbb    H18 4587   4.982   8.114  10.462 -0.3683 -2.0520 -0.4876
  153bbb     O1 4588   4.682   7.572  10.846  0.0854 -0.6861 -0.1759
  153bbb    H19 4589   4.491   7.962  10.692  0.6623  0.5789  0.0434
  154bbb     N1 4590   5.302   7.774  10.664  0.3547  0.7333  0.1254
  154bbb     C1 4591   5.297   7.843  10.530 -0.4202  0.4166 -0.3286
  154bbb     H1 4592   5.352   7.778  10.462 -0.8057 -1.8423  1.3733
  154bbb     H2 4593   5.349   7.938  10.540 -2.0762  1.5021 -1.5218
  154bbb     C2 4594   5.451   7.757  10.709 -0.2497  0.2993  0.0740
  154bbb     H3 4595   5.444   7.697  10.800 -0.8402  0.7712  0.3374
  154bbb     H4 4596   5.480   7.860  10.729  0.1982  0.3450 -0.7618
  154bbb     C3 4597   5.225   7.855  10.771 -0.8949 -0.2682  0.2614
  154bbb     H5 4598   5.131   7.890  10.727  0.1522  0.3965 -1.5917
  154bbb     H6 4599   5.286   7.943  10.791 -2.0326  0.1282  2.2622
  154bbb     C4 4600   5.202   7.791  10.909 -0.3023  0.9328 -0.1645
  154bbb     H7 4601   5.296   7.774  10.963 -0.0115 -0.1769 -0.9885
  154bbb     H8 4602   5.149   7.697  10.890 -1.0715  1.6940 -2.0093
  154bbb     C5 4603   5.166   7.873  10.465  0.1381  0.1185 -0.6574
  154bbb     H9 4604   5.113   7.940  10.534  0.4995 -1.2732  1.0348
  154bbb    H10 4605   5.103   7.784  10.457  0.3076 -0.0032 -0.6342
  154bbb     C6 4606   5.551   7.688  10.612  0.2320 -0.3765  0.4045
  154bbb    H11 4607   5.641   7.665  10.671  0.9920 -1.4384 -1.0981
  154bbb    H12 4608   5.589   7.752  10.531 -1.7911  0.3109 -0.0465
  154bbb     C7 4609   5.111   7.885  10.983 -0.4494 -0.2906  0.2775
  154bbb    H13 4610   5.158   7.983  10.972 -0.6767 -0.2704 -0.6285
  154bbb    H14 4611   5.113   7.860  11.090 -0.6296  0.2016  0.4002
  154bbb     C8 4612   5.513   7.544  10.564  0.1530  0.4527  0.0738
  154bbb    H15 4613   5.602   7.489  10.531 -2.1327 -2.9187 -0.9806
  154bbb    H16 4614   5.485   7.482  10.650 -0.2184 -0.6263 -0.8082
  154bbb     C9 4615   5.190   7.949  10.335  0.0771  0.2144 -0.4323
  154bbb    H17 4616   5.250   8.038  10.359 -1.1255  0.8650  0.2761
  154bbb    H18 4617   5.098   7.987  10.287 -1.0024  0.1992  1.5055
  154bbb     O1 4618   4.973   7.890  10.943 -0.5469  0.1001 -0.3690
  154bbb    H19 4619   5.258   7.681  10.660  0.0285  0.5827  4.0440
  155bbb     N1 4620   3.626   6.452  12.745 -0.0389 -0.1254 -0.3814
  155bbb     C1 4621   3.583   6.309  12.722 -0.5694  0.3776 -0.5609
  155bbb     H1 4622   3.660   6.234  12.742 -0.7030  0.1699 -0.8339
  155bbb     H2 4623   3.560   6.298  12.616 -0.0286  0.3707 -0.6842
  155bbb     C2 4624   3.757   6.477  12.665  0.4212 -0.1549  0.6869
  155bbb     H3 4625   3.797   6.578  12.673 -0.4271  0.2897 -0.4303
  155bbb     H4 4626   3.729   6.464  12.560 -1.2616 -0.0659  1.0880
  155bbb     C3 4627   3.525   6.553  12.704 -0.2131  0.1042  0.2480
  155bbb     H5 4628   3.432   6.517  12.749  0.9190 -0.9132  1.8956
  155bbb     H6 4629   3.503   6.551  12.597 -0.1744  0.0090  0.2417
  155bbb     C4 4630   3.553   6.695  12.754  0.1857 -0.2774  0.0124
  155bbb     H7 4631   3.657   6.719  12.727 -0.1301  1.0971 -0.0432
  155bbb     H8 4632   3.541   6.700  12.863 -0.3548  0.7423 -0.0796
  155bbb     C5 4633   3.451   6.273  12.787  0.7784  0.1051 -0.2772
  155bbb     H9 4634   3.381   6.299  12.707  1.6655  2.2753 -0.4168
  155bbb    H10 4635   3.432   6.327  12.881  0.4105 -0.5055  0.0047
  155bbb     C6 4636   3.865   6.384  12.701 -0.4950  0.0890 -0.0171
  155bbb    H11 4637   3.874   6.350  12.805  1.6857  1.7572  0.4188
  155bbb    H12 4638   3.957   6.428  12.660 -0.4151 -0.6450 -0.6511
  155bbb     C7 4639   3.453   6.793  12.684  0.4676 -0.8207  0.1972
  155bbb    H13 4640   3.457   6.895  12.723 -0.3288 -0.3548 -0.8814
  155bbb    H14 4641   3.350   6.760  12.704 -0.0137  0.4739 -0.0445
  155bbb     C8 4642   3.869   6.260  12.609  0.6264  0.1464 -0.0265
  155bbb    H15 4643   3.792   6.265  12.532 -0.1011  0.5156  0.7026
  155bbb    H16 4644   3.956   6.239  12.547  0.8194 -0.4567  0.4399
  155bbb     C9 4645   3.436   6.120  12.818 -0.5897  0.0768 -0.3843
  155bbb    H17 4646   3.520   6.080  12.877 -1.1187 -3.2321 -1.6543
  155bbb    H18 4647   3.414   6.059  12.730 -2.5878 -2.6615  1.8405
  155bbb     O1 4648   3.473   6.797  12.540 -0.0500 -0.2860  0.4387
  155bbb    H19 4649   3.643   6.451  12.846 -0.8710  0.9672 -0.2159
  156bbb     N1 4650   2.926   6.621  12.943 -0.1268  0.3552 -0.5460
  156bbb     C1 4651   2.867   6.725  13.038 -0.0786 -0.2634  0.1331
  156bbb     H1 4652   2.777   6.687  13.085 -1.0704  1.7052 -0.0812
  156bbb     H2 4653   2.847   6.808  12.970  0.5456 -0.1123  0.1205
  156bbb     C2 4654   2.853   6.483  12.959 -0.5268 -0.0205  0.3591
  156bbb     H3 4655   2.750   6.501  12.927 -0.0234  1.6186 -0.4981
  156bbb     H4 4656   2.848   6.460  13.065  1.0276 -1.5633  0.1446
  156bbb     C3 4657   2.930   6.669  12.805  0.0472 -0.0681 -0.1754
  156bbb     H5 4658   2.825   6.691  12.781  0.6140  2.2485 -0.7901
  156bbb     H6 4659   2.962   6.584  12.745 -0.7419  0.3649 -1.2412
  156bbb     C4 4660   3.021   6.793  12.780  0.2646  0.0380 -0.5043
  156bbb     H7 4661   3.124   6.778  12.816  0.7088  2.1561 -0.7530
  156bbb     H8 4662   2.978   6.881  12.829 -1.8131 -2.1845  1.9989
  156bbb     C5 4663   2.960   6.780  13.148  0.3260 -0.1666  0.1740
  156bbb     H9 4664   2.912   6.871  13.186  0.7113 -0.2236  0.8246
  156bbb    H10 4665   3.058   6.805  13.106  2.0465 -2.2636  2.6161
  156bbb     C6 4666   2.918   6.367  12.888  0.6140  0.5262  0.0697
  156bbb    H11 4667   3.024   6.346  12.909  1.0217  2.2502 -0.0982
  156bbb    H12 4668   2.910   6.389  12.781  1.6014 -1.6843 -0.5157
  156bbb     C7 4669   3.026   6.819  12.628 -0.2843 -0.2505  0.0299
  156bbb    H13 4670   3.077   6.914  12.606 -0.5100 -0.0794  0.2392
  156bbb    H14 4671   2.924   6.833  12.590  0.6249  0.7954 -2.2425
  156bbb     C8 4672   2.843   6.231  12.915 -0.4939  0.1371  0.5966
  156bbb    H15 4673   2.854   6.166  12.828 -4.1720 -1.5300  1.1797
  156bbb    H16 4674   2.886   6.179  13.001  0.8630  1.3163  0.6662
  156bbb     C9 4675   2.973   6.677  13.263 -0.1004  0.2810 -0.2877
  156bbb    H17 4676   2.875   6.658  13.308  1.3434 -1.1000  2.5162
  156bbb    H18 4677   3.015   6.733  13.348 -0.2596  0.0485 -0.0563
  156bbb     O1 4678   3.096   6.708  12.563 -0.0370 -0.3854  0.6005
  156bbb    H19 4679   3.022   6.603  12.974 -0.2202  0.8730  0.0928
  157bbb     N1 4680   2.756   7.465  11.320 -0.4145  0.3256 -0.2669
  157bbb     C1 4681   2.821   7.411  11.450  0.3594  0.0118  0.3860
  157bbb     H1 4682   2.928   7.427  11.437  0.1452  0.6430 -0.7056
  157bbb     H2 4683   2.797   7.305  11.443 -1.4053  0.4824 -2.4515
  157bbb     C2 4684   2.610   7.433  11.314 -0.0797  0.2845 -0.4033
  157bbb     H3 4685   2.575   7.479  11.221  2.0540  0.4554 -1.1785
  157bbb     H4 4686   2.551   7.477  11.395 -1.8202 -2.7792  0.1493
  157bbb     C3 4687   2.777   7.615  11.312  0.2861  0.3805  0.1626
  157bbb     H5 4688   2.883   7.638  11.322  0.1237  0.9008  0.7287
  157bbb     H6 4689   2.733   7.651  11.405 -0.4001 -2.1888  0.9154
  157bbb     C4 4690   2.715   7.691  11.193  0.1894 -0.9035 -0.4411
  157bbb     H7 4691   2.750   7.794  11.182 -0.2021 -0.9109 -2.0307
  157bbb     H8 4692   2.606   7.697  11.204  0.1567  1.6061 -1.5060
  157bbb     C5 4693   2.763   7.468  11.582  0.5431  1.0970  0.1866
  157bbb     H9 4694   2.659   7.434  11.583  1.1140 -0.7753 -0.3196
  157bbb    H10 4695   2.757   7.577  11.588 -1.1329  0.9782  1.4122
  157bbb     C6 4696   2.576   7.278  11.316 -0.0877 -0.3249  0.3675
  157bbb    H11 4697   2.610   7.238  11.412 -0.8657 -0.9359  0.3935
  157bbb    H12 4698   2.626   7.218  11.239  0.2124  0.0889  0.2376
  157bbb     C7 4699   2.745   7.636  11.047 -0.1572  0.4754 -0.2530
  157bbb    H13 4700   2.848   7.600  11.039 -0.9263 -1.8499 -0.1950
  157bbb    H14 4701   2.724   7.720  10.979 -2.8366 -0.1916 -0.3586
  157bbb     C8 4702   2.423   7.263  11.301 -0.1203  0.1610 -0.0117
  157bbb    H15 4703   2.401   7.155  11.307 -0.0227  0.2099  1.3320
  157bbb    H16 4704   2.385   7.316  11.389  1.6848  2.5423 -0.5572
  157bbb     C9 4705   2.836   7.412  11.705 -0.6872  0.3505 -0.4935
  157bbb    H17 4706   2.783   7.441  11.796  0.8085  0.6797  0.3157
  157bbb    H18 4707   2.938   7.453  11.711 -0.9532  0.9116  0.3043
  157bbb     O1 4708   2.660   7.514  11.007 -0.2067 -0.3286  0.2183
  157bbb    H19 4709   2.810   7.413  11.248  0.2996 -1.2082  1.2886
  158bbb     N1 4710   2.213   7.351  10.328  0.4818  0.5852  0.2675
  158bbb     C1 4711   2.128   7.334  10.457  0.1195 -0.7054  0.3733
  158bbb     H1 4712   2.065   7.421  10.471 -0.4563 -0.8701 -1.0343
  158bbb     H2 4713   2.196   7.341  10.542  1.2690 -0.9200 -0.5033
  158bbb     C2 4714   2.232   7.503  10.306  0.2278  0.3773  0.5593
  158bbb     H3 4715   2.313   7.520  10.234 -0.6784  0.5472 -0.4530
  158bbb     H4 4716   2.254   7.552  10.401  0.2875 -1.3323  1.4622
  158bbb     C3 4717   2.354   7.293  10.354 -0.4709 -0.1093 -0.2981
  158bbb     H5 4718   2.416   7.342  10.429  0.0073 -1.7981  0.4383
  158bbb     H6 4719   2.409   7.302  10.260 -0.0521 -1.1887 -0.1703
  158bbb     C4 4720   2.364   7.147  10.406 -0.6991  0.3353 -0.7119
  158bbb     H7 4721   2.298   7.084  10.344 -1.3513  0.5735 -0.2754
  158bbb     H8 4722   2.327   7.152  10.509  0.4192  0.1915 -0.2951
  158bbb     C5 4723   2.038   7.214  10.453 -0.4577 -0.1182  0.6502
  158bbb     H9 4724   2.098   7.138  10.504  3.0491  2.4255  0.6878
  158bbb    H10 4725   2.017   7.175  10.353  0.2174  0.3984  0.3002
  158bbb     C6 4726   2.098   7.573  10.261  0.2079  0.2426 -0.5466
  158bbb    H11 4727   2.013   7.506  10.283  1.0880 -0.1414  1.9479
  158bbb    H12 4728   2.110   7.583  10.152  1.1680 -0.5765 -0.5244
  158bbb     C7 4729   2.506   7.080  10.417  0.0403  0.5414 -0.1768
  158bbb    H13 4730   2.550   7.070  10.317  1.0044 -2.7664  0.4637
  158bbb    H14 4731   2.481   6.976  10.440 -0.9810  0.4781 -1.4576
  158bbb     C8 4732   2.090   7.712  10.321  0.2374  0.4168 -0.1901
  158bbb    H15 4733   2.192   7.751  10.331  0.1734  0.2901  1.1807
  158bbb    H16 4734   2.025   7.779  10.263  0.5545 -0.8535 -2.1138
  158bbb     C9 4735   1.908   7.240  10.524 -1.2071  0.1299 -0.2205
  158bbb    H17 4736   1.933   7.274  10.625 -0.4694 -0.2991 -0.2507
  158bbb    H18 4737   1.836   7.158  10.535 -1.5713  0.6741  1.7016
  158bbb     O1 4738   2.589   7.140  10.516  0.5700 -0.4561  0.3854
  158bbb    H19 4739   2.161   7.309  10.249 -1.1277  3.8089 -0.5712
  159bbb     N1 4740   6.127   8.994   7.009  0.0456  0.7020  0.1156
  159bbb     C1 4741   6.071   9.021   7.146  0.1388 -0.0925  0.4403
  159bbb     H1 4742   6.154   9.060   7.204 -0.3631 -0.5794  1.5164
  159bbb     H2 4743   6.036   8.934   7.201 -1.0151  1.1142  1.6657
  159bbb     C2 4744   6.275   8.947   7.015 -0.3457  0.3160  0.7674
  159bbb     H3 4745   6.312   8.941   6.913  1.2302  2.1726  1.1714
  159bbb     H4 4746   6.277   8.846   7.058 -0.5756  0.3719  0.9161
  159bbb     C3 4747   6.040   8.908   6.927 -0.0503  0.1373 -0.4603
  159bbb     H5 4748   6.086   8.915   6.829  0.9542  1.2793  0.0676
  159bbb     H6 4749   5.945   8.957   6.904 -0.2589  0.1719  0.4348
  159bbb     C4 4750   6.013   8.763   6.973  0.8803  0.2803  0.4083
  159bbb     H7 4751   5.942   8.760   7.057 -0.7392  2.3758 -0.7854
  159bbb     H8 4752   6.105   8.713   7.006  0.0547 -1.0394  0.7866
  159bbb     C5 4753   5.955   9.119   7.153  0.9319  0.8599 -0.5905
  159bbb     H9 4754   5.863   9.068   7.123  0.9707 -0.5260  1.4717
  159bbb    H10 4755   5.976   9.197   7.078  1.1314  1.3119 -0.0672
  159bbb     C6 4756   6.377   9.037   7.089  0.7836 -0.1249 -0.0668
  159bbb    H11 4757   6.356   9.020   7.195 -1.7896 -1.2160 -0.6801
  159bbb    H12 4758   6.372   9.141   7.054 -0.4128 -0.3154 -0.4941
  159bbb     C7 4759   5.956   8.674   6.855  0.5258  0.2025 -0.1109
  159bbb    H13 4760   6.030   8.655   6.776  0.6730  0.6587 -0.0876
  159bbb    H14 4761   5.879   8.737   6.809 -0.5030 -1.9636 -1.4778
  159bbb     C8 4762   6.516   8.995   7.060 -0.6849 -0.3372  0.3630
  159bbb    H15 4763   6.524   8.888   7.086  0.2611  0.0896  1.9939
  159bbb    H16 4764   6.533   9.004   6.952  0.5938 -2.8337  0.2878
  159bbb     C9 4765   5.934   9.164   7.297 -0.0221 -0.0496 -0.5244
  159bbb    H17 4766   5.847   9.230   7.302 -0.0628 -0.1728  0.5422
  159bbb    H18 4767   6.027   9.209   7.335 -0.3498 -0.7822  1.2398
  159bbb     O1 4768   5.908   8.546   6.896 -0.4575 -0.2383  0.4100
  159bbb    H19 4769   6.133   9.091   6.974 -0.7907  1.0620  0.9067
  160bbb     N1 4770   5.286   8.460   6.413 -0.1491 -0.4978  0.2163
  160bbb     C1 4771   5.294   8.459   6.569  0.2494 -0.2496  0.8961
  160bbb     H1 4772   5.393   8.482   6.607  0.2840 -0.2299  0.7945
  160bbb     H2 4773   5.269   8.357   6.599 -0.9932 -0.3209 -0.2348
  160bbb     C2 4774   5.309   8.597   6.354  0.1726  0.4603  0.0788
  160bbb     H3 4775   5.216   8.654   6.365 -0.5379 -0.5744 -0.4059
  160bbb     H4 4776   5.304   8.581   6.246  2.1680  1.5747 -0.2260
  160bbb     C3 4777   5.391   8.362   6.358  0.7042 -0.9433  0.2356
  160bbb     H5 4778   5.483   8.382   6.413  1.1912  0.7897 -1.1170
  160bbb     H6 4779   5.403   8.379   6.250 -0.8017  0.5142  0.2722
  160bbb     C4 4780   5.357   8.213   6.379 -0.5495  0.4516  0.0613
  160bbb     H7 4781   5.295   8.189   6.292  2.7696  0.1362 -2.4155
  160bbb     H8 4782   5.312   8.198   6.477  1.6398 -2.2425  0.7721
  160bbb     C5 4783   5.189   8.553   6.639  0.0572 -0.4744 -0.3648
  160bbb     H9 4784   5.088   8.512   6.629 -0.4147  0.5843 -0.0669
  160bbb    H10 4785   5.194   8.657   6.603 -2.1987 -0.4419 -0.7179
  160bbb     C6 4786   5.434   8.677   6.388  0.0043  0.2329  0.3318
  160bbb    H11 4787   5.515   8.604   6.379 -1.5836 -1.4768 -0.9380
  160bbb    H12 4788   5.429   8.720   6.489  1.4039 -0.4811  0.7261
  160bbb     C7 4789   5.483   8.125   6.377 -0.2592  0.3927  1.1183
  160bbb    H13 4790   5.532   8.138   6.280 -0.9819 -2.1358  0.3418
  160bbb    H14 4791   5.460   8.018   6.384  1.9491 -0.2735 -0.6341
  160bbb     C8 4792   5.449   8.800   6.297 -0.4492  0.1042  0.0135
  160bbb    H15 4793   5.355   8.853   6.280 -0.4938  0.4311  1.2215
  160bbb    H16 4794   5.529   8.864   6.334 -0.1208 -1.2802  1.8881
  160bbb     C9 4795   5.207   8.559   6.788 -0.0433  0.3966 -0.7622
  160bbb    H17 4796   5.195   8.453   6.816  1.6310 -0.1263 -1.8963
  160bbb    H18 4797   5.138   8.618   6.850  0.3131 -0.8895  0.9524
  160bbb     O1 4798   5.579   8.159   6.482  0.2722 -0.8756  0.0973
  160bbb    H19 4799   5.192   8.429   6.382  0.6910 -0.7014 -2.3392
  161bbb     N1 4800   6.523   8.576   7.416  0.5993  0.5787  0.4330
  161bbb     C1 4801   6.499   8.713   7.463 -0.0980  0.2565  0.1274
  161bbb     H1 4802   6.553   8.716   7.558  0.2491 -2.4951  0.0900
  161bbb     H2 4803   6.393   8.720   7.484 -0.0481 -1.0915  0.9441
  161bbb     C2 4804   6.668   8.562   7.391 -0.3315  0.3285 -0.5608
  161bbb     H3 4805   6.728   8.573   7.482 -0.8667 -0.1234 -0.1439
  161bbb     H4 4806   6.699   8.651   7.336 -0.4870  1.5778  1.2875
  161bbb     C3 4807   6.469   8.472   7.526  0.7136 -0.0442  0.3669
  161bbb     H5 4808   6.512   8.503   7.621 -0.0466 -0.2184  0.7780
  161bbb     H6 4809   6.496   8.368   7.508 -1.5990 -0.5823 -0.3801
  161bbb     C4 4810   6.313   8.486   7.544 -0.8232 -0.0686  0.3772
  161bbb     H7 4811   6.264   8.502   7.448  1.1310 -2.0449 -1.0501
  161bbb     H8 4812   6.282   8.581   7.591 -1.6467 -0.0924 -0.0943
  161bbb     C5 4813   6.550   8.832   7.385  0.2552 -0.2902 -0.3951
  161bbb     H9 4814   6.480   8.853   7.304  0.3880 -0.6948 -0.6152
  161bbb    H10 4815   6.654   8.827   7.351  0.0320  0.3598 -1.1913
  161bbb     C6 4816   6.699   8.439   7.302  0.4721 -0.4824 -0.4374
  161bbb    H11 4817   6.623   8.441   7.223  1.0972  0.6908 -1.0386
  161bbb    H12 4818   6.673   8.354   7.367  1.2533 -0.8505 -0.6022
  161bbb     C7 4819   6.251   8.365   7.624 -0.3887  0.3915  0.4279
  161bbb    H13 4820   6.144   8.380   7.644 -0.5449  0.3999 -0.3987
  161bbb    H14 4821   6.295   8.350   7.723  1.9921 -0.3198 -0.6812
  161bbb     C8 4822   6.843   8.411   7.243 -0.5581 -0.2549 -0.4424
  161bbb    H15 4823   6.845   8.306   7.214  0.0886 -0.0514 -1.1557
  161bbb    H16 4824   6.872   8.466   7.153  2.0593 -0.2409  0.3232
  161bbb     C9 4825   6.539   8.952   7.478  0.8772  0.3875 -0.5575
  161bbb    H17 4826   6.437   8.962   7.518  0.8949 -2.1544  0.3008
  161bbb    H18 4827   6.554   9.044   7.420  1.0336  0.1579 -0.8824
  161bbb     O1 4828   6.265   8.245   7.540 -0.0061 -0.1248 -0.0407
  161bbb    H19 4829   6.483   8.568   7.322  1.4343  2.6617 -0.1552
  162bbb     N1 4830   7.171   7.888   6.913  0.6183 -0.2365  0.3358
  162bbb     C1 4831   7.302   7.810   6.907  0.2582  0.0497  0.4983
  162bbb     H1 4832   7.327   7.801   6.801  2.0694  0.6733  0.8508
  162bbb     H2 4833   7.266   7.713   6.943 -0.8304 -0.7851 -2.5076
  162bbb     C2 4834   7.083   7.849   6.791 -0.2128  0.0825 -0.3486
  162bbb     H3 4835   6.981   7.881   6.808 -0.5764  0.0802 -2.2971
  162bbb     H4 4836   7.085   7.740   6.779 -2.4260  0.0667 -0.8673
  162bbb     C3 4837   7.105   7.838   7.038 -0.0609 -0.6721  1.0043
  162bbb     H5 4838   7.191   7.838   7.105  3.2716  1.2600 -2.8781
  162bbb     H6 4839   7.075   7.736   7.015  1.6494 -0.7754 -1.0030
  162bbb     C4 4840   6.981   7.913   7.084  0.8885 -0.2351 -0.1748
  162bbb     H7 4841   6.917   7.937   6.998 -1.1133 -1.3879  0.9188
  162bbb     H8 4842   7.006   8.009   7.132  0.5638 -0.6387  0.8198
  162bbb     C5 4843   7.418   7.867   6.989 -0.1583 -0.7759 -0.3165
  162bbb     H9 4844   7.486   7.784   7.012  2.0437  0.8672 -0.5782
  162bbb    H10 4845   7.385   7.901   7.088 -0.4300  2.5737 -1.4500
  162bbb     C6 4846   7.124   7.914   6.649 -0.3264  0.2737  0.4196
  162bbb    H11 4847   7.061   7.862   6.575 -1.4339  0.8433  0.9443
  162bbb    H12 4848   7.222   7.877   6.617 -0.8937 -1.9410  1.0978
  162bbb     C7 4849   6.904   7.831   7.189  0.4459 -0.3192  0.2733
  162bbb    H13 4850   6.962   7.826   7.282  0.1163  1.9344  0.6558
  162bbb    H14 4851   6.901   7.727   7.156  0.2036  0.0757 -1.0360
  162bbb     C8 4852   7.116   8.062   6.638 -0.5461  0.3269 -0.1106
  162bbb    H15 4853   7.174   8.097   6.551 -0.6409  1.1829  0.1647
  162bbb    H16 4854   7.011   8.087   6.620 -0.7652 -1.2801 -1.3222
  162bbb     C9 4855   7.492   7.981   6.907 -0.6338  0.1071  0.0232
  162bbb    H17 4856   7.570   8.023   6.971 -0.6344  0.0672  0.0501
  162bbb    H18 4857   7.424   8.064   6.885  0.1086  0.3607 -1.4270
  162bbb     O1 4858   6.771   7.882   7.215  0.9951  0.5975 -0.2051
  162bbb    H19 4859   7.180   7.990   6.920  0.5888 -0.2715  0.9785
  163bbb     N1 4860   4.666   7.137   9.697 -0.5092  0.1593 -0.2890
  163bbb     C1 4861   4.807   7.207   9.716 -0.1762 -0.0552 -0.0954
  163bbb     H1 4862   4.876   7.129   9.748 -1.1505 -1.9912 -2.3248
  163bbb     H2 4863   4.793   7.286   9.790 -0.2384 -1.2199  1.1759
  163bbb     C2 4864   4.620   7.068   9.831 -0.0747 -0.6029 -0.9592
  163bbb     H3 4865   4.701   7.008   9.873 -0.2397  1.0715  2.0362
  163bbb     H4 4866   4.538   7.002   9.801 -0.1758 -0.8984 -0.0800
  163bbb     C3 4867   4.567   7.236   9.646 -0.7145  0.5843  0.7266
  163bbb     H5 4868   4.608   7.299   9.567 -2.5360  0.7559 -0.1475
  163bbb     H6 4869   4.523   7.301   9.722 -0.5208  1.9942 -0.3224
  163bbb     C4 4870   4.451   7.165   9.567  0.0753  0.3710  0.0202
  163bbb     H7 4871   4.366   7.233   9.557 -0.9545 -0.2477  3.1438
  163bbb     H8 4872   4.408   7.076   9.616 -0.1251  0.8951  0.8025
  163bbb     C5 4873   4.868   7.256   9.584  0.3088  0.2030  0.0109
  163bbb     H9 4874   4.803   7.338   9.553  1.2845  0.9725 -0.0560
  163bbb    H10 4875   4.882   7.175   9.511  0.8287  1.6093 -1.5053
  163bbb     C6 4876   4.571   7.160   9.946  0.3087 -0.3703 -0.4408
  163bbb    H11 4877   4.475   7.209   9.924  1.3818  1.6754 -0.8382
  163bbb    H12 4878   4.641   7.242   9.965 -0.3421  0.2892 -0.8174
  163bbb     C7 4879   4.500   7.126   9.426 -0.4909  1.3006  0.1387
  163bbb    H13 4880   4.411   7.093   9.371 -0.8850 -1.7065  2.3211
  163bbb    H14 4881   4.568   7.041   9.434  0.8554  2.3927  0.7548
  163bbb     C8 4882   4.550   7.086  10.079 -0.0503 -0.5018 -0.7278
  163bbb    H15 4883   4.616   6.999  10.088 -1.0803 -1.1824  0.5939
  163bbb    H16 4884   4.586   7.150  10.161  2.1811 -1.6055 -0.7745
  163bbb     C9 4885   5.004   7.324   9.602 -0.2887 -0.4858  0.3332
  163bbb    H17 4886   5.066   7.262   9.669 -0.5744  0.2377  1.2790
  163bbb    H18 4887   4.992   7.424   9.644 -1.1842  0.0335 -1.0819
  163bbb     O1 4888   4.593   7.227   9.358 -0.1070  0.3948 -0.4569
  163bbb    H19 4889   4.669   7.055   9.636 -0.0398  0.9772 -1.4057
  164bbb     N1 4890   5.078   8.180   9.024  0.2689 -0.2439  0.7230
  164bbb     C1 4891   5.110   8.292   9.120 -0.1001  0.3512 -0.0704
  164bbb     H1 4892   5.195   8.338   9.070 -1.0452  0.3235 -1.7881
  164bbb     H2 4893   5.151   8.245   9.209  1.3520  0.7381 -0.5144
  164bbb     C2 4894   5.192   8.077   9.045  0.3387 -0.0739  0.2425
  164bbb     H3 4895   5.162   7.973   9.057  3.0290 -1.2404 -2.0001
  164bbb     H4 4896   5.246   8.104   9.136  0.1381 -1.2529  0.7301
  164bbb     C3 4897   4.939   8.116   9.037 -0.2621 -0.1612  0.0314
  164bbb     H5 4898   4.877   8.206   9.033  0.6191  0.4809  0.2905
  164bbb     H6 4899   4.935   8.078   9.139 -1.8599  0.3143  0.1637
  164bbb     C4 4900   4.899   8.005   8.940  0.1172  0.0081 -0.0242
  164bbb     H7 4901   4.973   7.924   8.933 -1.6301 -1.8802  2.1232
  164bbb     H8 4902   4.892   8.057   8.843 -1.4537 -2.1342 -1.1407
  164bbb     C5 4903   4.993   8.391   9.155  0.2512 -0.9780  0.2615
  164bbb     H9 4904   5.016   8.451   9.244  1.5642  1.7325 -1.7470
  164bbb    H10 4905   4.917   8.323   9.194 -0.4602 -0.7312 -0.6511
  164bbb     C6 4906   5.299   8.074   8.943  0.3018  0.3156  0.5521
  164bbb    H11 4907   5.318   8.177   8.912 -0.1767  0.5059  0.8881
  164bbb    H12 4908   5.270   8.018   8.852  0.6803  3.4928 -1.6783
  164bbb     C7 4909   4.773   7.929   8.985  0.8268 -0.1215  0.0440
  164bbb    H13 4910   4.736   7.875   8.897  0.1536 -0.8172  0.7302
  164bbb    H14 4911   4.701   7.998   9.031  0.4195  0.1937 -1.0330
  164bbb     C8 4912   5.435   8.018   8.999  0.2272 -0.2429  0.0350
  164bbb    H15 4913   5.414   7.918   9.038  0.9967 -0.1898  0.6051
  164bbb    H16 4914   5.513   8.014   8.922  0.8413  0.8991  0.5611
  164bbb     C9 4915   4.946   8.486   9.037 -0.0759 -0.7992  0.0076
  164bbb    H17 4916   5.030   8.548   9.003 -0.2305 -1.4542 -1.6496
  164bbb    H18 4917   4.861   8.541   9.078  0.6602 -0.5820  1.3159
  164bbb     O1 4918   4.813   7.837   9.090  0.3689  0.6807  0.4508
  164bbb    H19 4919   5.082   8.212   8.926  2.2864  0.6379  1.0375
  165bbb     N1 4920   4.904   7.808   7.538  0.2253  0.0578  0.0571
  165bbb     C1 4921   4.753   7.793   7.511 -0.0242 -0.0370 -0.3935
  165bbb     H1 4922   4.691   7.809   7.599  0.3506  1.3739 -0.3664
  165bbb     H2 4923   4.734   7.688   7.485 -1.9064  0.4609 -1.1992
  165bbb     C2 4924   4.935   7.953   7.566 -0.3117 -1.0547  0.0414
  165bbb     H3 4925   4.939   8.013   7.474 -1.8820  0.1924  0.7375
  165bbb     H4 4926   5.037   7.957   7.604 -0.5092  1.1397  0.4775
  165bbb     C3 4927   4.952   7.717   7.651  0.9138  0.3836  0.3597
  165bbb     H5 4928   4.874   7.710   7.727  0.2164  2.2676 -0.1466
  165bbb     H6 4929   5.039   7.757   7.704  2.6451  1.0353 -2.7294
  165bbb     C4 4930   4.976   7.566   7.609  0.1066  0.3102  0.3235
  165bbb     H7 4931   5.015   7.516   7.699 -0.1925  0.9124  0.7895
  165bbb     H8 4932   5.050   7.563   7.527 -1.0985 -1.4439 -0.7648
  165bbb     C5 4933   4.702   7.876   7.392  0.2666  0.3386  0.1936
  165bbb     H9 4934   4.770   7.856   7.308  0.9731 -0.1080  0.8606
  165bbb    H10 4935   4.698   7.982   7.420 -1.7270 -0.3363  2.8394
  165bbb     C6 4936   4.846   8.029   7.670 -0.3499 -0.3527 -0.2758
  165bbb    H11 4937   4.843   7.958   7.754  0.5684 -0.8854 -0.6678
  165bbb    H12 4938   4.746   8.046   7.630 -0.3687 -2.1474 -1.0873
  165bbb     C7 4939   4.852   7.485   7.557  0.0515 -0.0139 -0.2965
  165bbb    H13 4940   4.891   7.386   7.532 -0.8039 -0.0972 -1.3524
  165bbb    H14 4941   4.816   7.526   7.462  0.6387 -1.0610 -0.9833
  165bbb     C8 4942   4.908   8.168   7.715 -0.0858 -0.3057 -0.5879
  165bbb    H15 4943   4.849   8.203   7.801 -1.5011 -0.8623 -1.3151
  165bbb    H16 4944   5.006   8.156   7.765  0.3463  0.3413 -1.2632
  165bbb     C9 4945   4.566   7.828   7.339  0.0156 -0.2398  0.2598
  165bbb    H17 4946   4.549   7.890   7.250  0.3402 -0.2374  0.1959
  165bbb    H18 4947   4.494   7.846   7.419 -2.5672  0.6013 -2.1238
  165bbb     O1 4948   4.738   7.501   7.644 -0.4673  0.5526 -0.4857
  165bbb    H19 4949   4.949   7.797   7.446 -2.3777  0.3101 -1.3652
  166bbb     N1 4950   4.609   6.742   7.320  0.6306  0.1744 -0.3649
  166bbb     C1 4951   4.457   6.765   7.300  0.4776  0.1302 -0.2273
  166bbb     H1 4952   4.441   6.747   7.193  3.7035 -0.3687 -0.7395
  166bbb     H2 4953   4.441   6.872   7.311  0.9890  0.0179  2.1731
  166bbb     C2 4954   4.689   6.826   7.212  0.9488 -0.4112 -0.5586
  166bbb     H3 4955   4.780   6.861   7.262  0.5617 -0.0598 -0.0846
  166bbb     H4 4956   4.627   6.916   7.206  1.7857  0.3366  1.3159
  166bbb     C3 4957   4.643   6.776   7.466  0.1122  0.5815 -0.4140
  166bbb     H5 4958   4.571   6.738   7.539  2.2156  0.0013  1.4788
  166bbb     H6 4959   4.631   6.884   7.479  1.3165  0.7782 -0.8189
  166bbb     C4 4960   4.781   6.736   7.526  0.3636  0.2266 -0.0185
  166bbb     H7 4961   4.859   6.786   7.468  0.1035 -2.7539 -3.2680
  166bbb     H8 4962   4.801   6.629   7.508 -1.0324 -0.1607  0.5356
  166bbb     C5 4963   4.370   6.677   7.402  0.3691 -0.0849 -0.7985
  166bbb     H9 4964   4.392   6.679   7.509 -0.4727 -2.3210 -0.5406
  166bbb    H10 4965   4.393   6.573   7.375  0.0956 -0.1116 -0.9250
  166bbb     C6 4966   4.717   6.762   7.076  0.2639 -0.0587 -0.8107
  166bbb    H11 4967   4.794   6.686   7.092  0.1951 -0.1413 -0.8697
  166bbb    H12 4968   4.757   6.838   7.008  0.7252  0.7868  0.3769
  166bbb     C7 4969   4.799   6.791   7.675 -0.6036 -0.0249  0.0970
  166bbb    H13 4970   4.899   6.757   7.708 -1.1192 -0.9452  0.7620
  166bbb    H14 4971   4.714   6.752   7.731 -1.9597  0.7748 -1.3333
  166bbb     C8 4972   4.600   6.702   7.001  1.1945  0.1973 -0.1707
  166bbb    H15 4973   4.651   6.662   6.912  0.3952 -3.5081  0.8880
  166bbb    H16 4974   4.552   6.620   7.055  2.3177 -0.4951 -0.1877
  166bbb     C9 4975   4.222   6.707   7.404 -0.4827 -0.2079 -0.0008
  166bbb    H17 4976   4.205   6.813   7.424 -1.5551 -0.1963 -0.9184
  166bbb    H18 4977   4.173   6.649   7.483 -0.1252  0.6484  0.8697
  166bbb     O1 4978   4.782   6.932   7.669  0.1223 -0.0416  0.4314
  166bbb    H19 4979   4.629   6.642   7.311  0.1783  0.0399  0.0713
  167bbb     N1 4980   7.536   8.456   8.525 -0.7920  0.2038  0.2815
  167bbb     C1 4981   7.510   8.559   8.425 -0.0891 -0.5182  0.1766
  167bbb     H1 4982   7.586   8.631   8.458 -3.1405  2.4530  1.3061
  167bbb     H2 4983   7.415   8.609   8.441  0.1974  0.0813  0.0286
  167bbb     C2 4984   7.681   8.397   8.524  1.1620 -0.7548 -0.4685
  167bbb     H3 4985   7.742   8.476   8.568 -0.8091  2.7820 -3.4339
  167bbb     H4 4986   7.717   8.379   8.422  1.1951 -1.1736 -0.3841
  167bbb     C3 4987   7.502   8.507   8.667 -0.7865  0.0639  0.7409
  167bbb     H5 4988   7.566   8.590   8.697  0.8751  0.2984 -2.9515
  167bbb     H6 4989   7.523   8.428   8.739 -2.2143  2.6840  4.3650
  167bbb     C4 4990   7.354   8.543   8.688 -0.2746 -0.2399  0.5019
  167bbb     H7 4991   7.297   8.456   8.652  1.5230 -0.9743 -0.7494
  167bbb     H8 4992   7.325   8.619   8.614 -1.2341 -0.4393  0.6610
  167bbb     C5 4993   7.530   8.522   8.280  0.5261 -0.0825 -0.1874
  167bbb     H9 4994   7.472   8.430   8.264 -2.0944  1.3559  0.4005
  167bbb    H10 4995   7.635   8.508   8.253  0.6827  1.0809 -0.2401
  167bbb     C6 4996   7.693   8.264   8.595 -0.3478  0.5005  0.0989
  167bbb    H11 4997   7.609   8.202   8.562 -0.0284  0.5563 -0.8797
  167bbb    H12 4998   7.668   8.274   8.701 -1.7604  1.6672 -0.3180
  167bbb     C7 4999   7.308   8.579   8.830  0.3197  0.1394  0.5047
  167bbb    H13 5000   7.199   8.593   8.834  0.3890  0.8136  0.1105
  167bbb    H14 5001   7.356   8.674   8.858 -0.6658  0.7978  0.0378
  167bbb     C8 5002   7.830   8.199   8.584 -0.4181 -0.2598 -1.1675
  167bbb    H15 5003   7.838   8.124   8.665 -0.5448  2.1398  1.2080
  167bbb    H16 5004   7.832   8.143   8.490 -1.4584 -1.4292 -0.5328
  167bbb     C9 5005   7.476   8.640   8.199  0.2889 -0.1993 -0.5054
  167bbb    H17 5006   7.531   8.732   8.222 -0.5239  0.1087  0.2124
  167bbb    H18 5007   7.372   8.655   8.229  0.4114  1.4091 -0.7849
  167bbb     O1 5008   7.342   8.475   8.924  0.4875 -0.4795 -0.8965
  167bbb    H19 5009   7.469   8.381   8.502  0.6369 -0.7572 -0.9106
  168bbb     N1 5010   7.821   8.108   9.207  0.1122  0.2254  0.1257
  168bbb     C1 5011   7.968   8.082   9.251 -0.0307 -0.2650  0.5373
  168bbb     H1 5012   8.025   8.094   9.158 -0.4515  0.7113  0.3946
  168bbb     H2 5013   7.974   7.976   9.273  2.3832 -0.1556  0.6500
  168bbb     C2 5014   7.805   8.247   9.145  0.1408  0.8131 -0.5159
  168bbb     H3 5015   7.874   8.251   9.061  0.0626  0.9396 -0.5751
  168bbb     H4 5016   7.867   8.313   9.207  2.2770  0.0655 -1.7274
  168bbb     C3 5017   7.782   8.009   9.096  0.1737  0.8415 -0.6921
  168bbb     H5 5018   7.869   7.995   9.032  0.3907  0.0452 -0.2380
  168bbb     H6 5019   7.707   8.058   9.034 -1.3318  1.6368  1.6378
  168bbb     C4 5020   7.713   7.881   9.146 -0.3311 -0.3590  0.6149
  168bbb     H7 5021   7.752   7.858   9.246  0.4251  0.3773  0.5003
  168bbb     H8 5022   7.741   7.802   9.076 -2.1558  0.2494 -0.8808
  168bbb     C5 5023   8.028   8.160   9.367 -0.2081 -0.0588  0.0606
  168bbb     H9 5024   7.954   8.172   9.447  0.7959 -0.5282  1.0709
  168bbb    H10 5025   8.050   8.264   9.339 -1.9156  0.2380 -0.3324
  168bbb     C6 5026   7.666   8.304   9.113  0.0544  0.0334  0.6681
  168bbb    H11 5027   7.609   8.311   9.207  0.8917  1.4125  1.1063
  168bbb    H12 5028   7.604   8.240   9.049  0.2248  0.8682 -0.3568
  168bbb     C7 5029   7.561   7.891   9.148 -0.3025 -0.2789 -0.8881
  168bbb    H13 5030   7.516   7.976   9.200 -2.5223 -1.8817 -0.0390
  168bbb    H14 5031   7.536   7.809   9.216 -1.2286  1.9466  1.6349
  168bbb     C8 5032   7.668   8.440   9.048  0.1625 -0.0245  0.4401
  168bbb    H15 5033   7.581   8.451   8.981  2.0754  0.1043 -2.1867
  168bbb    H16 5034   7.671   8.507   9.134 -0.2619 -0.3148  0.6827
  168bbb     C9 5035   8.156   8.097   9.428 -0.6953 -0.0735  0.0268
  168bbb    H17 5036   8.187   8.152   9.517  1.4001 -0.2126 -0.5670
  168bbb    H18 5037   8.238   8.105   9.355 -1.6477  0.4698 -1.0226
  168bbb     O1 5038   7.505   7.879   9.013  0.5424  0.2124 -0.8511
  168bbb    H19 5039   7.768   8.095   9.294 -0.8042 -1.0261 -0.5834
  169bbb     N1 5040   7.608   6.481   9.489 -0.6075  0.4269 -0.2859
  169bbb     C1 5041   7.599   6.356   9.402 -0.3429  0.2564  0.6733
  169bbb     H1 5042   7.698   6.310   9.405  0.2226  1.4752  1.5272
  169bbb     H2 5043   7.582   6.403   9.305  0.2501  1.0645  0.9434
  169bbb     C2 5044   7.760   6.491   9.521 -0.9007  0.1523  0.0981
  169bbb     H3 5045   7.796   6.555   9.441 -0.8160 -0.5174 -0.4061
  169bbb     H4 5046   7.799   6.390   9.504  0.5493  1.1419 -3.3558
  169bbb     C3 5047   7.571   6.605   9.402 -0.1420  0.2026 -0.0989
  169bbb     H5 5048   7.626   6.605   9.308 -1.5045  2.2056 -0.9547
  169bbb     H6 5049   7.602   6.687   9.467 -1.7797  1.8240 -1.2735
  169bbb     C4 5050   7.419   6.617   9.375 -0.4549 -0.4227 -0.3550
  169bbb     H7 5051   7.372   6.603   9.473  2.0576 -1.8811  0.7449
  169bbb     H8 5052   7.378   6.537   9.311  0.5420 -0.0410 -1.5157
  169bbb     C5 5053   7.493   6.262   9.448  0.0512  0.2346 -0.0770
  169bbb     H9 5054   7.402   6.315   9.475  1.0703  1.8595  0.3161
  169bbb    H10 5055   7.535   6.224   9.542  0.2345  1.7762  0.4780
  169bbb     C6 5056   7.809   6.547   9.660  0.0915  0.0977  0.1345
  169bbb    H11 5057   7.789   6.474   9.739  1.3745  1.4290  1.7505
  169bbb    H12 5058   7.743   6.632   9.684 -1.0811 -0.8410  0.3118
  169bbb     C7 5059   7.379   6.758   9.315 -0.3198  0.1702 -0.5770
  169bbb    H13 5060   7.280   6.752   9.267 -0.6909 -0.7780  0.2412
  169bbb    H14 5061   7.443   6.789   9.232 -1.1474  3.2218 -0.2067
  169bbb     C8 5062   7.958   6.578   9.669 -0.4967  0.7620  0.5473
  169bbb    H15 5063   7.992   6.586   9.773  1.1846  1.8859 -0.0685
  169bbb    H16 5064   8.015   6.495   9.625  0.0341  0.7718  1.2041
  169bbb     C9 5065   7.487   6.150   9.341 -0.2431  0.7718  0.5966
  169bbb    H17 5066   7.441   6.189   9.249  0.3033  1.0838  0.4503
  169bbb    H18 5067   7.423   6.066   9.371  0.0535  0.1759 -0.3783
  169bbb     O1 5068   7.373   6.860   9.423 -0.0449 -0.1589 -0.1997
  169bbb    H19 5069   7.565   6.473   9.582  2.1668  1.7480  1.2550
  170bbb     N1 5070   7.558   6.936  10.108 -0.1240  1.2619 -0.4333
  170bbb     C1 5071   7.702   6.967  10.116 -0.0697 -0.4688  0.1288
  170bbb     H1 5072   7.752   6.953  10.020 -0.2367  0.4562 -0.1099
  170bbb     H2 5073   7.734   6.885  10.180 -1.0627  0.3232  1.7157
  170bbb     C2 5074   7.500   6.896  10.249 -0.0754 -0.3709  0.5063
  170bbb     H3 5075   7.392   6.890  10.237  0.0341  0.0379 -0.8796
  170bbb     H4 5076   7.530   6.978  10.315 -0.9407  0.2935  0.1084
  170bbb     C3 5077   7.472   7.050  10.047 -0.3507  0.6305  0.7086
  170bbb     H5 5078   7.533   7.102   9.973  0.0380  1.3420  1.5153
  170bbb     H6 5079   7.457   7.123  10.127  2.6348  1.8824  0.2386
  170bbb     C4 5080   7.335   7.010   9.989  0.4511 -0.1448  0.5325
  170bbb     H7 5081   7.271   6.988  10.075 -1.9566  0.7318 -0.9580
  170bbb     H8 5082   7.346   6.922   9.925  0.8142 -0.8281  1.5184
  170bbb     C5 5083   7.734   7.102  10.184  0.2915  0.3558  0.3354
  170bbb     H9 5084   7.743   7.078  10.290 -2.6054 -1.1270  0.3470
  170bbb    H10 5085   7.653   7.175  10.173 -1.5704 -1.7022 -0.4602
  170bbb     C6 5086   7.532   6.756  10.310 -0.4006  0.0652 -0.2961
  170bbb    H11 5087   7.486   6.758  10.409  0.7851  0.6025  0.2695
  170bbb    H12 5088   7.640   6.739  10.317 -0.1005  0.5433 -2.7052
  170bbb     C7 5089   7.260   7.124   9.918 -0.2915 -0.4174  0.4557
  170bbb    H13 5090   7.246   7.199   9.997  2.2789  2.9347 -1.9759
  170bbb    H14 5091   7.171   7.080   9.871  0.4686 -0.2062 -1.2430
  170bbb     C8 5092   7.475   6.643  10.221 -0.1247  0.2897  0.7830
  170bbb    H15 5093   7.530   6.625  10.128 -0.0673 -0.4509  0.9565
  170bbb    H16 5094   7.472   6.554  10.284 -2.3597  0.2008  0.6130
  170bbb     C9 5095   7.869   7.164  10.148 -0.6360  0.9036 -0.6058
  170bbb    H17 5096   7.948   7.095  10.180 -1.6770  0.6444  1.5676
  170bbb    H18 5097   7.881   7.254  10.210  1.2986 -0.0374  0.5033
  170bbb     O1 5098   7.352   7.182   9.813 -0.2151  0.6043  0.2728
  170bbb    H19 5099   7.554   6.857  10.042 -1.2532  0.1528  0.9029
  171bbb     N1 5100   7.309   6.999   6.577  0.2198  0.2652  0.0681
  171bbb     C1 5101   7.200   7.003   6.474 -0.3702 -0.6560  0.7222
  171bbb     H1 5102   7.214   6.915   6.411  3.5638  0.0753  0.3185
  171bbb     H2 5103   7.217   7.094   6.416  1.3295 -0.3161  1.6758
  171bbb     C2 5104   7.440   6.955   6.507  0.0599 -0.4442 -0.2015
  171bbb     H3 5105   7.416   6.867   6.448  0.0718 -0.7056  0.1836
  171bbb     H4 5106   7.507   6.922   6.587  2.5189  1.2812 -1.4033
  171bbb     C3 5107   7.319   7.132   6.646 -0.0908 -0.5454 -0.0721
  171bbb     H5 5108   7.222   7.155   6.689 -0.4404 -1.1337 -0.5316
  171bbb     H6 5109   7.348   7.202   6.567  2.2761 -2.7811 -1.3525
  171bbb     C4 5110   7.430   7.149   6.749 -0.1579  0.0803  0.3105
  171bbb     H7 5111   7.448   7.253   6.778 -1.3330  0.0492  1.2613
  171bbb     H8 5112   7.520   7.105   6.704 -1.9833 -1.3043 -2.2389
  171bbb     C5 5113   7.054   7.007   6.526 -0.6165  0.4009  0.1426
  171bbb     H9 5114   7.033   7.072   6.612  0.4267  1.0724 -0.1001
  171bbb    H10 5115   7.029   6.911   6.573 -1.0136  1.2958  1.8517
  171bbb     C6 5116   7.512   7.048   6.405  0.3519 -0.2501 -0.1672
  171bbb    H11 5117   7.529   7.151   6.439 -2.2275 -0.0352  0.7135
  171bbb    H12 5118   7.460   7.066   6.310 -0.8659  1.5784  0.7944
  171bbb     C7 5119   7.404   7.073   6.879 -0.2115  0.4423  0.4062
  171bbb    H13 5120   7.400   6.964   6.868 -0.1215  0.3406  1.2741
  171bbb    H14 5121   7.309   7.102   6.925  0.1672 -1.3534  2.4794
  171bbb     C8 5122   7.641   6.986   6.349  0.6265 -0.3085  0.0412
  171bbb    H15 5123   7.689   7.045   6.270 -0.1037  0.0608 -0.1359
  171bbb    H16 5124   7.717   6.981   6.428  1.0737 -0.5127 -0.3962
  171bbb     C9 5125   6.949   7.034   6.411  0.0206 -0.7073  0.1275
  171bbb    H17 5126   6.992   7.114   6.349  0.5235  0.3277  1.7260
  171bbb    H18 5127   6.853   7.057   6.458 -0.0068 -1.4391  0.4328
  171bbb     O1 5128   7.506   7.113   6.977  0.1014  0.1115  0.1252
  171bbb    H19 5129   7.278   6.927   6.645  0.4280  0.0493 -0.0644
  172bbb     N1 5130   8.073   7.417   7.001  0.9042 -0.1313  0.3467
  172bbb     C1 5131   8.069   7.419   6.853 -0.4532  0.1786 -0.1901
  172bbb     H1 5132   8.134   7.337   6.821  0.9500  0.5583  1.5394
  172bbb     H2 5133   8.109   7.515   6.822 -2.8430  1.5456  0.6710
  172bbb     C2 5134   8.209   7.473   7.044  0.3829  0.7980  0.3807
  172bbb     H3 5135   8.205   7.578   7.013  1.5581  0.6582 -0.2945
  172bbb     H4 5136   8.283   7.417   6.988 -0.6462 -0.3268  0.1082
  172bbb     C3 5137   7.956   7.503   7.054  0.0097  0.5744  0.1059
  172bbb     H5 5138   7.933   7.570   6.971 -0.1581 -0.9293 -1.1039
  172bbb     H6 5139   7.992   7.562   7.138  1.2893 -1.0949  0.8080
  172bbb     C4 5140   7.824   7.432   7.092  0.0939 -0.2073 -0.1133
  172bbb     H7 5141   7.787   7.353   7.025  0.3137 -1.1704  0.8842
  172bbb     H8 5142   7.747   7.510   7.086 -0.2922 -0.6148 -0.6256
  172bbb     C5 5143   7.936   7.401   6.778  0.0125 -0.5327 -0.2411
  172bbb     H9 5144   7.863   7.474   6.812  1.0360 -0.1068  1.1235
  172bbb    H10 5145   7.898   7.301   6.803  1.3654 -0.8997  0.4947
  172bbb     C6 5146   8.239   7.449   7.194  0.0762 -0.1179 -0.0564
  172bbb    H11 5147   8.264   7.345   7.216 -0.6278  0.0340  1.5606
  172bbb    H12 5148   8.150   7.465   7.257  0.7234  3.3607  0.1749
  172bbb     C7 5149   7.834   7.383   7.239 -0.0893 -0.2018 -0.0635
  172bbb    H13 5150   7.740   7.342   7.277 -0.4046 -0.7411 -1.3668
  172bbb    H14 5151   7.869   7.458   7.311  2.7717 -1.5508  0.0875
  172bbb     C8 5152   8.352   7.537   7.254 -0.4675  0.1904  0.2235
  172bbb    H15 5153   8.329   7.644   7.263  0.4664  0.4192 -0.0453
  172bbb    H16 5154   8.368   7.497   7.355  1.1189 -1.5358 -0.6670
  172bbb     C9 5155   7.961   7.428   6.629  0.0849  0.3386  0.8434
  172bbb    H17 5156   7.875   7.414   6.562  1.2611 -0.7683 -0.5233
  172bbb    H18 5157   8.023   7.348   6.586  0.8879  1.5597 -0.3300
  172bbb     O1 5158   7.926   7.272   7.245 -0.2921 -0.2206 -0.3076
  172bbb    H19 5159   8.059   7.322   7.038 -0.4727  0.1526  0.6110
  173bbb     N1 5160   7.783   8.325   7.722  0.0523 -0.6845 -0.4338
  173bbb     C1 5161   7.790   8.339   7.568 -0.3864 -0.0501 -0.6007
  173bbb     H1 5162   7.770   8.239   7.531  0.0232  0.1948 -1.5003
  173bbb     H2 5163   7.889   8.362   7.528 -0.9387  0.9169 -1.4584
  173bbb     C2 5164   7.644   8.282   7.762 -0.1351 -0.4824 -0.4069
  173bbb     H3 5165   7.640   8.176   7.736 -1.4377 -0.3944 -0.6380
  173bbb     H4 5166   7.572   8.352   7.721  0.8318  1.1816  0.6223
  173bbb     C3 5167   7.885   8.222   7.758  0.0078  0.4524 -1.4047
  173bbb     H5 5168   7.918   8.185   7.660  2.6413 -1.9108  0.2292
  173bbb     H6 5169   7.842   8.138   7.813  1.6076  0.4007 -0.1665
  173bbb     C4 5170   8.010   8.280   7.832  0.4068 -1.0707 -0.3789
  173bbb     H7 5171   7.986   8.298   7.938 -0.7367  0.3111 -0.8540
  173bbb     H8 5172   8.036   8.378   7.790 -0.2391 -0.5364  0.4301
  173bbb     C5 5173   7.688   8.437   7.506  0.1614 -0.2236  0.0160
  173bbb     H9 5174   7.694   8.536   7.554  1.3317 -1.2776  2.1883
  173bbb    H10 5175   7.588   8.393   7.511 -0.3951  0.8048 -1.4354
  173bbb     C6 5176   7.624   8.273   7.914 -0.3815 -0.4190  0.3683
  173bbb    H11 5177   7.677   8.354   7.967 -0.9199 -0.6755  1.3107
  173bbb    H12 5178   7.673   8.181   7.948  1.6712  0.1320 -0.8925
  173bbb     C7 5179   8.138   8.186   7.836  0.2616 -0.5999 -0.1392
  173bbb    H13 5180   8.222   8.217   7.901  2.0557 -1.2887 -2.0099
  173bbb    H14 5181   8.184   8.191   7.737  0.1619  4.4019 -0.2049
  173bbb     C8 5182   7.483   8.261   7.963 -0.5856 -0.5129 -0.2006
  173bbb    H15 5183   7.439   8.168   7.924  3.8865 -2.8958 -0.1632
  173bbb    H16 5184   7.492   8.243   8.071  0.3989 -0.6817 -0.3066
  173bbb     C9 5185   7.722   8.455   7.355 -0.2487  0.2520 -0.1128
  173bbb    H17 5186   7.748   8.356   7.315  2.7605  0.3325  1.3357
  173bbb    H18 5187   7.809   8.522   7.350  0.3596 -0.5435 -0.4662
  173bbb     O1 5188   8.101   8.048   7.863  0.2392 -0.2270  0.6947
  173bbb    H19 5189   7.803   8.415   7.767 -1.6861 -0.7876  0.6498
  174bbb     N1 5190   8.020   7.354   8.565  0.3879 -0.3287  0.5813
  174bbb     C1 5191   7.940   7.375   8.693  0.3216 -0.4162  0.7247
  174bbb     H1 5192   7.939   7.282   8.750  0.1071  0.3556  2.0166
  174bbb     H2 5193   7.844   7.410   8.655  0.5763  0.7112  1.0569
  174bbb     C2 5194   7.991   7.206   8.519  0.1267  0.0125 -0.0825
  174bbb     H3 5195   7.887   7.192   8.490  0.4329  1.7380 -2.2728
  174bbb     H4 5196   8.033   7.139   8.594 -1.7124  0.0586  1.0543
  174bbb     C3 5197   7.992   7.458   8.452 -0.6158 -0.6574  0.3991
  174bbb     H5 5198   7.903   7.508   8.488  0.8341  1.1810  1.6050
  174bbb     H6 5199   7.963   7.414   8.356  0.1639  0.3464 -0.3178
  174bbb     C4 5200   8.095   7.578   8.431  0.6217  0.0190 -0.7159
  174bbb     H7 5201   8.119   7.625   8.527 -0.3032  0.1327 -0.5321
  174bbb     H8 5202   8.044   7.655   8.374 -0.5357  0.2285  0.5549
  174bbb     C5 5203   8.000   7.485   8.792  0.8090  0.3009 -1.0828
  174bbb     H9 5204   7.984   7.584   8.748  3.0647  1.9368  1.5056
  174bbb    H10 5205   8.108   7.473   8.806  0.6401 -0.6736 -0.4895
  174bbb     C6 5206   8.057   7.155   8.388  0.1605  0.8961 -0.1060
  174bbb    H11 5207   8.025   7.220   8.305 -0.9622 -0.2014 -0.5669
  174bbb    H12 5208   8.008   7.058   8.369 -0.7181  0.6747  2.8951
  174bbb     C7 5209   8.230   7.535   8.359  0.4317  0.4614  0.1156
  174bbb    H13 5210   8.284   7.459   8.416  2.1687  0.9146 -0.8604
  174bbb    H14 5211   8.301   7.619   8.348 -0.0248  0.8416  0.0201
  174bbb     C8 5212   8.207   7.140   8.398 -0.4564  0.0648 -0.3161
  174bbb    H15 5213   8.245   7.117   8.297 -2.3109  0.7731 -1.2249
  174bbb    H16 5214   8.263   7.228   8.431  2.2545 -1.8585  0.5275
  174bbb     C9 5215   7.918   7.483   8.927  0.0494  0.5429 -0.3160
  174bbb    H17 5216   7.810   7.471   8.912 -0.3506  3.0555  0.1446
  174bbb    H18 5217   7.936   7.579   8.977 -0.0670  0.5864 -0.3568
  174bbb     O1 5218   8.190   7.495   8.229  0.6242  0.8426 -0.1039
  174bbb    H19 5219   8.119   7.357   8.594  0.5077 -1.4863  0.3621
  175bbb     N1 5220   6.962   4.231   5.767 -0.1863 -0.1182  0.2533
  175bbb     C1 5221   6.977   4.334   5.655 -0.1505 -0.5117 -0.0342
  175bbb     H1 5222   7.053   4.398   5.700 -0.5646  0.6820 -0.9952
  175bbb     H2 5223   6.894   4.402   5.639  0.6159  0.6636  0.7975
  175bbb     C2 5224   7.098   4.201   5.834  0.2008  0.2814  0.6924
  175bbb     H3 5225   7.167   4.157   5.761 -0.9762 -0.2525 -0.1348
  175bbb     H4 5226   7.079   4.123   5.907  1.2902 -3.2998 -2.5023
  175bbb     C3 5227   6.855   4.279   5.864 -0.2712  0.3235  0.0584
  175bbb     H5 5228   6.778   4.340   5.816 -0.5054  0.4264  0.5533
  175bbb     H6 5229   6.906   4.338   5.940  1.8285 -1.0043 -0.2168
  175bbb     C4 5230   6.786   4.172   5.952  0.4989  0.2089 -0.3788
  175bbb     H7 5231   6.863   4.114   6.005  1.4744  1.3398 -0.5378
  175bbb     H8 5232   6.734   4.099   5.888  0.5036 -1.1081  1.0581
  175bbb     C5 5233   7.009   4.276   5.522 -0.3819 -0.9898  0.2977
  175bbb     H9 5234   7.003   4.360   5.452 -1.6508 -1.6950 -0.4875
  175bbb    H10 5235   6.926   4.208   5.498 -2.9174  1.2875  2.0075
  175bbb     C6 5236   7.174   4.318   5.900  0.6527  0.8587  0.1213
  175bbb    H11 5237   7.097   4.382   5.945 -2.3508 -1.7541 -0.9772
  175bbb    H12 5238   7.237   4.373   5.828  2.1322 -1.4579 -0.4762
  175bbb     C7 5239   6.676   4.231   6.039  0.3551  0.4437  0.0523
  175bbb    H13 5240   6.728   4.280   6.123  1.0456 -0.9451  0.4583
  175bbb    H14 5241   6.623   4.144   6.078  0.2327  0.3227 -0.3873
  175bbb     C8 5242   7.275   4.265   6.002 -0.3653 -0.0298  0.1754
  175bbb    H15 5243   7.351   4.211   5.945 -0.9234  0.1172 -0.7287
  175bbb    H16 5244   7.326   4.344   6.057  0.1484  0.3340 -0.7969
  175bbb     C9 5245   7.146   4.201   5.523  0.4548  0.0773  0.6289
  175bbb    H17 5246   7.172   4.174   5.420  0.1739 -1.1680  0.8673
  175bbb    H18 5247   7.143   4.100   5.566  0.2234 -0.6373 -1.0035
  175bbb     O1 5248   6.600   4.329   5.968 -0.4529  0.0810 -0.3470
  175bbb    H19 5249   6.929   4.151   5.712 -0.3507  0.4777 -0.5397
  176bbb     N1 5250   6.017   4.533   5.157 -0.7426  0.2507  0.2983
  176bbb     C1 5251   5.952   4.411   5.100  0.0144 -0.5798  0.4095
  176bbb     H1 5252   6.029   4.333   5.094 -0.6078 -1.1064 -2.4213
  176bbb     H2 5253   5.923   4.444   5.000  0.2059  1.0214  0.8610
  176bbb     C2 5254   5.913   4.641   5.160 -0.0797  0.3745 -0.0730
  176bbb     H3 5255   5.847   4.621   5.244  1.9336 -1.6396  1.1162
  176bbb     H4 5256   5.851   4.636   5.070  2.1654 -3.1268 -1.6398
  176bbb     C3 5257   6.077   4.499   5.296  0.1636 -0.3203  0.4463
  176bbb     H5 5258   5.999   4.437   5.341 -1.0884  0.1331 -1.0054
  176bbb     H6 5259   6.087   4.599   5.339 -0.5731  0.3017 -0.7765
  176bbb     C4 5260   6.201   4.412   5.304 -0.0443 -0.3532 -0.1439
  176bbb     H7 5261   6.287   4.451   5.249  0.8555  0.2717  1.6303
  176bbb     H8 5262   6.184   4.309   5.269 -0.0311 -0.0629 -1.0326
  176bbb     C5 5263   5.824   4.354   5.161 -0.0479 -0.3375 -0.7158
  176bbb     H9 5264   5.761   4.306   5.085  1.2375 -0.7128 -1.5880
  176bbb    H10 5265   5.759   4.437   5.193 -0.4944 -0.5605 -1.0247
  176bbb     C6 5266   5.965   4.782   5.170  0.0526 -0.2404 -0.5327
  176bbb    H11 5267   6.016   4.805   5.076 -1.4816 -1.0540 -1.6074
  176bbb    H12 5268   6.036   4.787   5.253 -0.5223  0.6009 -0.0745
  176bbb     C7 5269   6.245   4.392   5.451 -0.6333 -0.1989  0.4689
  176bbb    H13 5270   6.344   4.344   5.454 -0.5777 -0.1674 -0.5280
  176bbb    H14 5271   6.169   4.324   5.492 -1.8817  0.5236 -0.5642
  176bbb     C8 5272   5.852   4.890   5.175  0.0842  0.4183 -0.0200
  176bbb    H15 5273   5.901   4.987   5.186  0.0453  0.2703  1.9781
  176bbb    H16 5274   5.791   4.874   5.086  0.4618  2.4309 -0.6787
  176bbb     C9 5275   5.848   4.249   5.276 -0.3346 -0.2831 -0.8156
  176bbb    H17 5276   5.947   4.207   5.255 -0.9903 -0.2440 -4.7227
  176bbb    H18 5277   5.769   4.173   5.273 -1.5585  0.9373 -0.7664
  176bbb     O1 5278   6.239   4.517   5.525 -0.1704 -0.6444 -0.1157
  176bbb    H19 5279   6.094   4.569   5.099 -0.1830 -0.7542  0.3894
  177bbb     N1 5280   7.196   4.379   6.632 -0.4366  0.0553 -0.0053
  177bbb     C1 5281   7.319   4.313   6.716  0.6179  0.5372  0.1208
  177bbb     H1 5282   7.409   4.331   6.656  0.3445  0.3335 -0.3547
  177bbb     H2 5283   7.295   4.207   6.706 -1.1216  0.8462  0.6931
  177bbb     C2 5284   7.249   4.431   6.497 -0.3276 -0.2901 -0.4961
  177bbb     H3 5285   7.161   4.439   6.433 -0.7170 -1.1308 -0.0817
  177bbb     H4 5286   7.317   4.358   6.452  1.2816  1.7306 -1.5276
  177bbb     C3 5287   7.095   4.269   6.613 -0.1001  0.0585 -0.0108
  177bbb     H5 5288   7.143   4.178   6.577 -1.5865 -0.8249  0.2053
  177bbb     H6 5289   7.020   4.293   6.538 -0.1816 -1.0877 -0.3148
  177bbb     C4 5290   7.019   4.240   6.744 -0.2514 -0.0806 -0.2100
  177bbb     H7 5291   7.092   4.209   6.820 -0.2567  0.2715 -0.0585
  177bbb     H8 5292   6.960   4.149   6.729  0.5493 -1.3618  3.3966
  177bbb     C5 5293   7.344   4.351   6.869 -0.4125 -0.6185  0.9270
  177bbb     H9 5294   7.413   4.282   6.919 -0.8833 -1.0703  0.9731
  177bbb    H10 5295   7.245   4.343   6.916 -2.2057  2.4843 -1.8682
  177bbb     C6 5296   7.328   4.565   6.494 -0.3875 -0.1807  0.2099
  177bbb    H11 5297   7.423   4.552   6.547 -1.1706 -1.8663  1.2779
  177bbb    H12 5298   7.278   4.648   6.545  0.1152  1.2547 -1.5275
  177bbb     C7 5299   6.920   4.353   6.796  0.5220  0.3146 -0.3129
  177bbb    H13 5300   6.868   4.315   6.885 -0.9617  1.2054 -0.7775
  177bbb    H14 5301   6.840   4.379   6.726 -0.5119  0.0651  0.7401
  177bbb     C8 5302   7.364   4.606   6.350  1.1594  0.9118  0.1140
  177bbb    H15 5303   7.273   4.619   6.291 -0.3752 -0.2603  2.0947
  177bbb    H16 5304   7.413   4.704   6.345  1.0722  1.2476  3.5948
  177bbb     C9 5305   7.407   4.486   6.887  0.2619 -0.1052  0.2836
  177bbb    H17 5306   7.488   4.499   6.814  0.0019  0.3176  0.0723
  177bbb    H18 5307   7.458   4.502   6.983  1.8405 -0.3199 -0.4912
  177bbb     O1 5308   6.997   4.471   6.832 -0.1387 -0.6986  0.2754
  177bbb    H19 5309   7.146   4.454   6.681  0.3833  2.0600 -2.0624
  178bbb     N1 5310   6.779   5.496   6.734 -0.7352 -0.2724  0.1675
  178bbb     C1 5311   6.635   5.544   6.746 -0.7529 -0.1260  0.5385
  178bbb     H1 5312   6.644   5.605   6.836 -2.1722  0.1157  0.5310
  178bbb     H2 5313   6.575   5.454   6.755  1.0611 -1.7436 -2.1986
  178bbb     C2 5314   6.847   5.473   6.864 -0.1775  0.3919 -0.4681
  178bbb     H3 5315   6.941   5.423   6.841  0.0287  1.4521 -2.0932
  178bbb     H4 5316   6.789   5.399   6.919 -1.8302 -0.1848 -2.8061
  178bbb     C3 5317   6.780   5.363   6.665 -0.5057 -0.0738  0.2566
  178bbb     H5 5318   6.725   5.380   6.573  1.7697  0.2563 -1.1353
  178bbb     H6 5319   6.735   5.299   6.740  2.5944 -1.1454  1.3835
  178bbb     C4 5320   6.913   5.298   6.632 -0.1883 -0.4618 -0.8494
  178bbb     H7 5321   6.982   5.279   6.715  0.0614  0.7727 -0.7483
  178bbb     H8 5322   6.963   5.362   6.559  1.6413  1.6805  2.0585
  178bbb     C5 5323   6.580   5.616   6.620  0.1805  0.2182  0.3549
  178bbb     H9 5324   6.473   5.638   6.633 -0.0222 -0.3158 -0.3133
  178bbb    H10 5325   6.588   5.548   6.534 -0.5824 -1.2516  1.3847
  178bbb     C6 5326   6.894   5.589   6.949 -0.5635  0.5567  0.5644
  178bbb    H11 5327   6.804   5.646   6.977 -0.3223  1.4903 -0.4940
  178bbb    H12 5328   6.951   5.657   6.885 -1.0672 -0.2149 -0.7467
  178bbb     C7 5329   6.885   5.163   6.557  0.1942 -0.0310 -0.2550
  178bbb    H13 5330   6.980   5.108   6.556  0.0687 -0.2567 -1.5418
  178bbb    H14 5331   6.834   5.186   6.463 -0.6761  0.9213  0.4274
  178bbb     C8 5332   6.978   5.538   7.061 -0.7074 -0.1874 -0.4402
  178bbb    H15 5333   7.021   5.627   7.108 -0.5020 -0.7528  0.4671
  178bbb    H16 5334   6.911   5.481   7.126  0.5248 -1.2381 -0.0482
  178bbb     C9 5335   6.646   5.750   6.602 -0.1636  0.3438 -0.9783
  178bbb    H17 5336   6.583   5.813   6.539 -0.6544  0.7370 -0.1129
  178bbb    H18 5337   6.742   5.733   6.551 -1.4189 -1.2343 -2.9502
  178bbb     O1 5338   6.788   5.083   6.622  0.2264  0.2554  0.0244
  178bbb    H19 5339   6.835   5.568   6.686 -0.2119 -1.7289 -1.5395
  179bbb     N1 5340   5.130   3.542   6.959 -0.1888  0.6914 -0.4717
  179bbb     C1 5341   5.083   3.404   6.937  0.2861  0.8090  1.1094
  179bbb     H1 5342   5.156   3.359   6.871 -0.8460  0.4961  0.0203
  179bbb     H2 5343   4.986   3.416   6.888  1.1128  0.9080 -0.5724
  179bbb     C2 5344   5.267   3.528   7.025  0.4116  0.2268  0.6421
  179bbb     H3 5345   5.264   3.481   7.123  0.2396  0.9464  0.9885
  179bbb     H4 5346   5.279   3.631   7.060 -0.4547  0.3308  0.6668
  179bbb     C3 5347   5.129   3.629   6.834 -0.1975  0.4613  1.3517
  179bbb     H5 5348   5.194   3.579   6.762  0.0158 -0.8617  2.4205
  179bbb     H6 5349   5.153   3.732   6.859  0.4897  1.6551 -3.3843
  179bbb     C4 5350   4.990   3.647   6.763 -0.6287  0.3338  0.7691
  179bbb     H7 5351   4.924   3.709   6.824 -1.9320 -0.7527  0.5063
  179bbb     H8 5352   4.946   3.547   6.753  1.6155 -0.6319 -0.2753
  179bbb     C5 5353   5.064   3.304   7.051  0.0771 -0.8672  0.1150
  179bbb     H9 5354   5.162   3.277   7.093 -1.5694 -2.1735  3.5258
  179bbb    H10 5355   5.027   3.208   7.014  0.4678 -1.3305  0.9106
  179bbb     C6 5356   5.381   3.466   6.937 -0.3707 -0.3235 -0.7983
  179bbb    H11 5357   5.393   3.534   6.851  0.2086  0.5540 -0.0370
  179bbb    H12 5358   5.356   3.369   6.894  0.6055 -0.0135 -2.1110
  179bbb     C7 5359   4.989   3.702   6.613  0.2503 -0.1187 -1.5359
  179bbb    H13 5360   4.882   3.693   6.588  0.0119 -2.7387  0.0606
  179bbb    H14 5361   5.048   3.646   6.540 -0.5198 -2.8384 -0.2273
  179bbb     C8 5362   5.512   3.475   7.024 -0.6323  0.1782  0.0481
  179bbb    H15 5363   5.594   3.475   6.951 -0.3156 -0.8859  0.3782
  179bbb    H16 5364   5.509   3.575   7.070  1.6020  0.3479 -0.0291
  179bbb     C9 5365   4.977   3.365   7.160 -0.0832  0.3766  0.3438
  179bbb    H17 5366   4.983   3.287   7.237  0.9795  0.9238  0.8333
  179bbb    H18 5367   4.871   3.374   7.130 -0.1270 -1.5485 -0.2268
  179bbb     O1 5368   5.037   3.843   6.618 -1.0028  0.3052  0.2026
  179bbb    H19 5369   5.070   3.586   7.031  0.3703  2.4649 -1.0312
  180bbb     N1 5370   4.853   4.506   6.963 -0.1571 -0.2191  0.2282
  180bbb     C1 5371   4.967   4.570   7.044  0.0163  0.1425  0.2770
  180bbb     H1 5372   5.057   4.532   6.995  1.3574  2.7654  0.5229
  180bbb     H2 5373   4.959   4.519   7.140 -1.2938 -2.7672 -1.2444
  180bbb     C2 5374   4.714   4.560   6.989  0.3385  0.0674 -0.2893
  180bbb     H3 5375   4.654   4.546   6.899 -1.3128  0.1974  0.7437
  180bbb     H4 5376   4.717   4.666   7.015 -0.5306 -0.1214  0.6454
  180bbb     C3 5377   4.897   4.518   6.820 -0.1075 -0.7197  0.2663
  180bbb     H5 5378   5.006   4.521   6.816  0.0142 -0.9130  2.2675
  180bbb     H6 5379   4.861   4.619   6.798  1.7657 -0.0665  0.0679
  180bbb     C4 5380   4.858   4.413   6.712 -0.0948  0.2377 -0.0275
  180bbb     H7 5381   4.748   4.414   6.704 -0.1273  2.2891  0.2328
  180bbb     H8 5382   4.897   4.314   6.738 -1.2308 -0.7375 -1.7989
  180bbb     C5 5383   4.975   4.726   7.057 -0.7341 -0.2879 -0.7435
  180bbb     H9 5384   4.925   4.762   6.966 -1.0609 -1.0246 -0.8669
  180bbb    H10 5385   5.083   4.745   7.058 -0.6719 -0.5605  1.2502
  180bbb     C6 5386   4.638   4.481   7.099  0.2731 -0.0280 -0.0274
  180bbb    H11 5387   4.547   4.537   7.123 -0.1799 -0.9528  0.4779
  180bbb    H12 5388   4.703   4.495   7.187  0.2103 -1.4307  0.2681
  180bbb     C7 5389   4.912   4.460   6.578  0.3196 -0.5981  0.5238
  180bbb    H13 5390   4.910   4.569   6.568 -1.3427 -0.7858 -2.5619
  180bbb    H14 5391   4.854   4.422   6.493  1.0825  0.9099 -0.7085
  180bbb     C8 5392   4.590   4.339   7.076  0.1451 -0.1525  0.3654
  180bbb    H15 5393   4.684   4.281   7.071 -0.4322 -1.0093 -1.5513
  180bbb    H16 5394   4.526   4.303   7.157 -1.3909 -0.4436 -0.9250
  180bbb     C9 5395   4.916   4.778   7.188  0.3537  0.0285 -0.3782
  180bbb    H17 5396   4.808   4.764   7.188  0.1305  1.5983 -0.3106
  180bbb    H18 5397   4.927   4.887   7.196  2.2863  0.2133 -3.8683
  180bbb     O1 5398   5.045   4.419   6.559  0.8205  0.3423  0.7751
  180bbb    H19 5399   4.843   4.405   6.979 -0.2360 -0.6387 -2.1025
  181bbb     N1 5400   5.849   4.006   7.122  0.3969 -0.4054 -0.2157
  181bbb     C1 5401   5.778   3.906   7.213  0.3616  0.0386 -0.3468
  181bbb     H1 5402   5.670   3.911   7.202  0.2829 -1.1324 -0.2009
  181bbb     H2 5403   5.793   3.929   7.318 -1.7761  0.5979 -0.1260
  181bbb     C2 5404   5.770   4.024   6.997  0.1997  0.0899 -0.3167
  181bbb     H3 5405   5.690   4.095   7.018  1.3915  0.9973  1.4046
  181bbb     H4 5406   5.723   3.930   6.966 -1.7323  1.2446 -1.0969
  181bbb     C3 5407   5.868   4.145   7.181 -0.1883 -0.2681 -0.2718
  181bbb     H5 5408   5.768   4.176   7.209 -0.7939  0.5899 -3.0824
  181bbb     H6 5409   5.909   4.209   7.103  0.1476 -1.2118 -0.8860
  181bbb     C4 5410   5.970   4.163   7.303  0.0703  0.3513  0.1884
  181bbb     H7 5411   6.071   4.125   7.280 -1.0223 -2.7888  0.1626
  181bbb     H8 5412   5.933   4.101   7.384  1.2131  0.6916  1.0045
  181bbb     C5 5413   5.827   3.762   7.193 -0.0973  0.2315  0.3596
  181bbb     H9 5414   5.802   3.727   7.093 -0.5528  0.5260  0.3702
  181bbb    H10 5415   5.780   3.703   7.272 -1.8214  0.9163 -0.1119
  181bbb     C6 5416   5.858   4.071   6.876 -0.6419  0.1970  0.2597
  181bbb    H11 5417   5.903   4.169   6.896  2.6859 -1.5562  2.3346
  181bbb    H12 5418   5.799   4.065   6.783 -1.2847  0.6342  0.6350
  181bbb     C7 5419   5.984   4.312   7.340  0.3255 -0.5648 -1.0147
  181bbb    H13 5420   5.981   4.369   7.247  1.1145 -0.1631 -0.8043
  181bbb    H14 5421   6.076   4.333   7.396  0.7002 -3.2296 -0.5257
  181bbb     C8 5422   5.986   3.985   6.853  0.3057  0.3106 -0.2326
  181bbb    H15 5423   6.035   4.024   6.763  0.6451  0.5098  0.0366
  181bbb    H16 5424   6.046   3.984   6.944  0.5875 -1.6956 -0.4119
  181bbb     C9 5425   5.980   3.733   7.213  0.8024  0.2665 -0.1210
  181bbb    H17 5426   5.990   3.624   7.216  1.5226  0.3560  2.0089
  181bbb    H18 5427   6.013   3.765   7.312 -1.3908 -1.5801  1.2748
  181bbb     O1 5428   5.878   4.334   7.437 -0.1497  0.5795 -0.7411
  181bbb    H19 5429   5.939   3.959   7.103  0.5277 -0.2404 -0.0141
  182bbb     N1 5430   5.952   3.880   7.887 -0.1162 -0.0952 -0.7596
  182bbb     C1 5431   6.084   3.942   7.938 -0.3493  0.4139  0.7816
  182bbb     H1 5432   6.094   3.907   8.041  0.7153 -0.3766  0.4299
  182bbb     H2 5433   6.074   4.050   7.933 -0.0683  0.4357  0.6710
  182bbb     C2 5434   5.939   3.734   7.911 -0.2846 -0.1537 -0.1626
  182bbb     H3 5435   5.900   3.705   8.009  0.6976 -2.9483 -0.5024
  182bbb     H4 5436   6.044   3.707   7.913  0.0743  1.2264  1.2201
  182bbb     C3 5437   5.834   3.949   7.950  0.4982  0.2988 -0.1997
  182bbb     H5 5438   5.740   3.906   7.915  0.0226  1.4652 -0.3888
  182bbb     H6 5439   5.845   4.042   7.894 -1.1811 -0.0249 -1.1439
  182bbb     C4 5440   5.838   3.962   8.108  0.1917 -0.1793  0.0850
  182bbb     H7 5441   5.936   4.004   8.133 -1.0246  2.2611  1.1162
  182bbb     H8 5442   5.810   3.870   8.161 -2.0415  1.2854  1.6489
  182bbb     C5 5443   6.215   3.906   7.857 -0.6371  0.0705  0.9946
  182bbb     H9 5444   6.190   3.918   7.751 -1.8154  3.0013  1.5101
  182bbb    H10 5445   6.243   3.800   7.855  0.8063  0.4339 -0.3385
  182bbb     C6 5446   5.876   3.645   7.800  0.4481  0.4810  0.5465
  182bbb    H11 5447   5.921   3.649   7.700  2.4089  0.2573  1.3708
  182bbb    H12 5448   5.773   3.681   7.790  0.0823 -0.3226  1.3127
  182bbb     C7 5449   5.740   4.075   8.155 -0.2402  0.0130  0.2861
  182bbb    H13 5450   5.763   4.105   8.258  0.8120  2.5044 -0.6006
  182bbb    H14 5451   5.635   4.042   8.149 -0.2363  0.2184 -1.2668
  182bbb     C8 5452   5.875   3.498   7.849  0.2093 -0.0551 -0.0077
  182bbb    H15 5453   5.971   3.445   7.854  0.1689 -0.1317 -0.0330
  182bbb    H16 5454   5.835   3.507   7.950 -0.3673 -0.6815 -0.1726
  182bbb     C9 5455   6.334   3.999   7.893 -1.1954  0.2131 -0.2570
  182bbb    H17 5456   6.315   4.107   7.895  0.4692  0.5404  2.1286
  182bbb    H18 5457   6.411   3.974   7.818 -1.0632  0.0867 -0.0800
  182bbb     O1 5458   5.759   4.195   8.081  0.1692 -0.1887 -0.7733
  182bbb    H19 5459   5.946   3.894   7.785  0.7346  0.3829 -0.7514
  183bbb     N1 5460   3.610   4.369   6.586  0.6631 -0.0958 -0.0154
  183bbb     C1 5461   3.696   4.296   6.488 -0.0622  0.3796  0.3701
  183bbb     H1 5462   3.788   4.259   6.535 -0.3396  1.3470  1.7697
  183bbb     H2 5463   3.730   4.367   6.412  0.1897 -0.7003 -0.5457
  183bbb     C2 5464   3.608   4.293   6.712  0.2648  0.8283 -0.2248
  183bbb     H3 5465   3.605   4.364   6.794  0.4440  0.9768 -0.3467
  183bbb     H4 5466   3.706   4.244   6.711  0.6603  1.6161 -1.3213
  183bbb     C3 5467   3.674   4.506   6.600  0.5579 -0.7149 -0.5811
  183bbb     H5 5468   3.682   4.539   6.496 -0.2622 -1.3320 -0.8526
  183bbb     H6 5469   3.765   4.491   6.656  0.0565 -1.8733 -0.0495
  183bbb     C4 5470   3.592   4.610   6.669  0.3153  0.0314  0.0015
  183bbb     H7 5471   3.557   4.573   6.766 -0.4966 -0.6949 -0.5492
  183bbb     H8 5472   3.494   4.618   6.620  0.7493 -1.3934 -1.1648
  183bbb     C5 5473   3.647   4.170   6.413 -0.5167  0.0747 -0.1639
  183bbb     H9 5474   3.626   4.090   6.486  1.4330 -1.0955 -0.7987
  183bbb    H10 5475   3.736   4.134   6.360 -0.7648 -0.3487 -0.2984
  183bbb     C6 5476   3.493   4.192   6.731 -0.0647 -0.0963 -0.0441
  183bbb    H11 5477   3.475   4.140   6.636 -0.1446 -2.2510  1.0919
  183bbb    H12 5478   3.403   4.248   6.762 -0.8374  0.0648 -2.3776
  183bbb     C7 5479   3.641   4.754   6.680  0.1740  0.4031  0.0134
  183bbb    H13 5480   3.718   4.767   6.756 -0.8176 -0.0258  1.1266
  183bbb    H14 5481   3.560   4.825   6.701  1.1789  1.4464  0.4180
  183bbb     C8 5482   3.529   4.096   6.843 -0.1746 -0.1414 -0.5133
  183bbb    H15 5483   3.560   4.146   6.935 -0.4833  0.6620 -0.8323
  183bbb    H16 5484   3.443   4.034   6.872  1.2085 -0.6743  2.9074
  183bbb     C9 5485   3.511   4.198   6.333 -0.0582  0.0024 -0.4925
  183bbb    H17 5486   3.436   4.237   6.402 -2.6392 -0.8122 -2.6637
  183bbb    H18 5487   3.468   4.100   6.310 -2.1292  0.6191  0.5620
  183bbb     O1 5488   3.679   4.801   6.554  0.1111 -0.3562 -0.0450
  183bbb    H19 5489   3.515   4.381   6.548  0.3809 -1.3438  0.2541
  184bbb     N1 5490   4.269   4.429   5.799 -0.7439  0.1744 -0.2147
  184bbb     C1 5491   4.295   4.420   5.650  0.8977 -0.2899  0.6785
  184bbb     H1 5492   4.224   4.352   5.601 -0.9823  0.9347  1.6104
  184bbb     H2 5493   4.400   4.392   5.635  0.3574 -1.4039 -1.4456
  184bbb     C2 5494   4.271   4.283   5.855  0.8737  0.1731  0.6093
  184bbb     H3 5495   4.276   4.284   5.964  1.9945  1.9807  0.5921
  184bbb     H4 5496   4.359   4.221   5.838 -1.5888 -3.4086 -0.2796
  184bbb     C3 5497   4.385   4.501   5.866 -0.1936  0.7738 -0.4649
  184bbb     H5 5498   4.439   4.565   5.797  3.0133 -2.1575 -0.9308
  184bbb     H6 5499   4.461   4.424   5.880  0.2981  1.3496  0.1102
  184bbb     C4 5500   4.357   4.575   5.999  0.2123  0.2318  0.1127
  184bbb     H7 5501   4.455   4.609   6.033  1.3419 -0.4612 -2.2361
  184bbb     H8 5502   4.308   4.511   6.074  0.5290 -1.5702 -1.1426
  184bbb     C5 5503   4.295   4.555   5.574 -0.3631  0.2353  0.1381
  184bbb     H9 5504   4.318   4.534   5.469  1.9503  1.0432  0.4354
  184bbb    H10 5505   4.380   4.614   5.611  0.0104  1.2971 -2.2587
  184bbb     C6 5506   4.145   4.212   5.809 -0.3777  0.0180 -0.3669
  184bbb    H11 5507   4.147   4.190   5.702  0.4709 -0.1862 -0.3139
  184bbb    H12 5508   4.054   4.267   5.835 -1.1912 -1.3232 -0.2487
  184bbb     C7 5509   4.279   4.706   5.977 -0.0036  1.0003  0.4997
  184bbb    H13 5510   4.308   4.760   5.886  0.7066 -0.8858 -0.4559
  184bbb    H14 5511   4.296   4.764   6.068  0.9108  1.3225  0.1380
  184bbb     C8 5512   4.140   4.073   5.884 -0.2799  0.1888  0.3813
  184bbb    H15 5513   4.052   4.019   5.845  0.4519 -1.2434  0.6427
  184bbb    H16 5514   4.225   4.010   5.855 -0.7106  0.0575 -0.6572
  184bbb     C9 5515   4.162   4.639   5.590  0.4846  0.4028  0.0365
  184bbb    H17 5516   4.162   4.719   5.515 -1.7291 -1.1159 -1.7417
  184bbb    H18 5517   4.140   4.669   5.693 -1.2937  0.4046 -0.3194
  184bbb     O1 5518   4.138   4.673   5.959 -0.4587 -0.2515  0.3465
  184bbb    H19 5519   4.179   4.478   5.812  0.6456  2.5336  1.1320
  185bbb     N1 5520   3.023   4.626   6.894  0.2796 -0.1556  0.3729
  185bbb     C1 5521   2.952   4.658   7.027  0.4548  0.4992 -0.1207
  185bbb     H1 5522   2.862   4.712   6.997 -0.4177 -1.4031 -1.1328
  185bbb     H2 5523   3.017   4.730   7.076 -0.9130  2.9097 -1.6512
  185bbb     C2 5524   2.918   4.605   6.784 -0.4854  0.2146  0.4513
  185bbb     H3 5525   2.864   4.698   6.767 -0.9757 -0.0410  0.6118
  185bbb     H4 5526   2.849   4.533   6.829 -0.5024 -0.0081  0.0757
  185bbb     C3 5527   3.095   4.754   6.855 -0.3428  0.1805 -0.3869
  185bbb     H5 5528   3.037   4.841   6.886  1.3354  1.2397 -0.0836
  185bbb     H6 5529   3.106   4.755   6.746  1.2783 -1.4037 -0.2800
  185bbb     C4 5530   3.244   4.769   6.896  0.2472  0.5832 -0.6113
  185bbb     H7 5531   3.293   4.674   6.869 -1.9245 -1.3472  1.6714
  185bbb     H8 5532   3.261   4.774   7.004  0.1146  0.9582 -0.6053
  185bbb     C5 5533   2.923   4.539   7.123  0.0345  0.1371  0.6190
  185bbb     H9 5534   2.894   4.581   7.220 -0.1105 -2.9947  2.0344
  185bbb    H10 5535   3.014   4.488   7.155 -0.7526 -1.5138  0.3374
  185bbb     C6 5536   2.963   4.534   6.653 -0.5081 -0.1442 -0.3710
  185bbb    H11 5537   3.011   4.437   6.670 -0.3710  0.3012  2.2617
  185bbb    H12 5538   3.037   4.606   6.615 -0.9939  1.4102  1.4510
  185bbb     C7 5539   3.305   4.898   6.834 -0.4109 -0.4359  0.3866
  185bbb    H13 5540   3.233   4.981   6.829  0.4737  0.3615  0.8459
  185bbb    H14 5541   3.334   4.879   6.730 -1.8231  1.4168 -0.4124
  185bbb     C8 5542   2.862   4.515   6.550 -0.3481 -0.1176  0.5792
  185bbb    H15 5543   2.834   4.612   6.507  1.2405 -0.3810 -1.2002
  185bbb    H16 5544   2.898   4.454   6.466  0.5778  0.8898  0.2234
  185bbb     C9 5545   2.818   4.442   7.076  0.3919  0.5948  0.1767
  185bbb    H17 5546   2.836   4.351   7.134 -1.3500 -0.5747 -1.0351
  185bbb    H18 5547   2.834   4.407   6.973 -0.6965 -2.7130  1.0244
  185bbb     O1 5548   3.419   4.943   6.915 -0.1507 -0.4184 -0.3489
  185bbb    H19 5549   3.087   4.545   6.891 -0.3567 -0.7286 -3.9719
  186bbb     N1 5550   3.455   5.371   7.933 -0.3848  0.0821  0.5819
  186bbb     C1 5551   3.416   5.431   8.064  0.3358  0.4013 -0.0295
  186bbb     H1 5552   3.311   5.402   8.062  0.1803  0.8992 -2.9978
  186bbb     H2 5553   3.419   5.539   8.077  0.2606  0.1575  2.4727
  186bbb     C2 5554   3.402   5.235   7.907  0.2079 -0.6535  0.3857
  186bbb     H3 5555   3.309   5.257   7.855  0.9021  1.8537  0.0406
  186bbb     H4 5556   3.388   5.191   8.005 -1.2156  0.4268  0.6959
  186bbb     C3 5557   3.411   5.446   7.806 -0.3912  0.3385  0.2735
  186bbb     H5 5558   3.310   5.485   7.819 -0.6881 -0.0437 -0.7551
  186bbb     H6 5559   3.401   5.376   7.723  0.8426  0.4469  0.0101
  186bbb     C4 5560   3.500   5.562   7.757 -0.3984  0.2479 -0.2598
  186bbb     H7 5561   3.605   5.553   7.785 -0.0630  1.9656 -0.8337
  186bbb     H8 5562   3.474   5.658   7.805  1.7492  0.1799  1.1555
  186bbb     C5 5563   3.475   5.362   8.194  0.1500  0.3479  0.0855
  186bbb     H9 5564   3.580   5.380   8.220 -0.4217 -0.9565  3.9657
  186bbb    H10 5565   3.454   5.255   8.186  3.3692 -0.2558 -2.0499
  186bbb     C6 5566   3.486   5.143   7.819  0.2589  0.0811  0.3463
  186bbb    H11 5567   3.551   5.085   7.885 -1.2293 -0.6231  1.2660
  186bbb    H12 5568   3.551   5.209   7.760 -1.2777  1.0868 -0.3164
  186bbb     C7 5569   3.481   5.589   7.606  0.2814 -0.1587  0.1264
  186bbb    H13 5570   3.547   5.666   7.565  0.3767 -1.1237 -1.6418
  186bbb    H14 5571   3.381   5.627   7.580  0.3733 -1.7962 -3.1760
  186bbb     C8 5572   3.406   5.046   7.729  0.6059 -0.0118  0.1696
  186bbb    H15 5573   3.342   5.106   7.663  0.4392 -1.5249 -1.1241
  186bbb    H16 5574   3.454   4.977   7.658 -0.2878 -1.2991  0.7807
  186bbb     C9 5575   3.409   5.411   8.326 -1.1064  0.0975  0.6850
  186bbb    H17 5576   3.434   5.516   8.345 -0.9086  0.3412 -0.8032
  186bbb    H18 5577   3.452   5.368   8.417 -1.0802  1.7807  1.5177
  186bbb     O1 5578   3.512   5.474   7.522  0.1807 -0.0797 -0.3795
  186bbb    H19 5579   3.558   5.369   7.923 -0.1683  1.2468  2.2851
  187bbb     N1 5580   4.545   6.904   6.008  0.3827  0.1571  0.2265
  187bbb     C1 5581   4.628   6.860   5.886 -0.0730 -0.5381 -1.2216
  187bbb     H1 5582   4.727   6.831   5.920  0.0579  2.1021  1.0571
  187bbb     H2 5583   4.629   6.952   5.828  1.6468  1.6966  2.0438
  187bbb     C2 5584   4.642   6.989   6.094  0.8200  0.2015  0.8346
  187bbb     H3 5585   4.669   7.082   6.043  1.5277 -0.1379  0.5695
  187bbb     H4 5586   4.727   6.922   6.111  0.4894 -0.0425  1.5658
  187bbb     C3 5587   4.438   7.006   5.960  0.1256 -0.2607  0.1079
  187bbb     H5 5588   4.422   7.002   5.853 -2.1091 -1.5546  0.4259
  187bbb     H6 5589   4.480   7.105   5.981 -0.1409 -0.0858 -0.1611
  187bbb     C4 5590   4.301   6.989   6.045 -0.2544 -1.0860 -0.3830
  187bbb     H7 5591   4.234   7.072   6.017  0.7642  0.1504  0.6729
  187bbb     H8 5592   4.320   6.996   6.153 -0.3205  0.6167 -0.4462
  187bbb     C5 5593   4.558   6.748   5.809 -0.0727  0.6707  0.2461
  187bbb     H9 5594   4.475   6.804   5.766  1.6912  1.3424 -2.5774
  187bbb    H10 5595   4.522   6.662   5.867  1.3566 -1.3301 -1.6696
  187bbb     C6 5596   4.598   7.030   6.228  0.0203 -0.3158  0.4949
  187bbb    H11 5597   4.581   6.936   6.281  3.2048 -0.4740  1.4935
  187bbb    H12 5598   4.504   7.086   6.233  0.7555  1.1134 -0.8644
  187bbb     C7 5599   4.228   6.855   6.025 -0.3382  0.2073 -0.1062
  187bbb    H13 5600   4.191   6.846   5.923  0.1502  0.4102 -0.3058
  187bbb    H14 5601   4.144   6.863   6.095 -0.9171 -1.7187 -0.5214
  187bbb     C8 5602   4.711   7.103   6.309  0.1069 -0.3101  0.2958
  187bbb    H15 5603   4.745   7.195   6.259  1.0663 -1.6002 -1.5572
  187bbb    H16 5604   4.666   7.130   6.405 -1.0065 -1.7388  0.1969
  187bbb     C9 5605   4.655   6.706   5.696  0.2708 -0.0533 -0.5376
  187bbb    H17 5606   4.684   6.806   5.663  0.5331  0.9554  2.4301
  187bbb    H18 5607   4.609   6.638   5.623  0.5939 -1.7191  0.7394
  187bbb     O1 5608   4.321   6.741   6.061  0.8826  0.4978 -0.2628
  187bbb    H19 5609   4.504   6.822   6.055  0.6015 -0.4978 -0.6938
  188bbb     N1 5610   5.383   6.302   6.413  0.1943  0.2289 -0.4089
  188bbb     C1 5611   5.389   6.231   6.544  0.2684 -0.0456  0.3246
  188bbb     H1 5612   5.484   6.178   6.539  0.2745  0.0872 -2.1250
  188bbb     H2 5613   5.310   6.156   6.534  0.2943 -0.1616  0.9411
  188bbb     C2 5614   5.408   6.198   6.307  0.5036 -0.5708  0.2811
  188bbb     H3 5615   5.363   6.221   6.210 -0.0613 -1.0628  0.4211
  188bbb     H4 5616   5.368   6.099   6.331  0.8917 -1.2024 -1.5258
  188bbb     C3 5617   5.251   6.370   6.387  0.7650  0.5551 -0.0491
  188bbb     H5 5618   5.235   6.444   6.466 -1.7374  1.0170 -0.9216
  188bbb     H6 5619   5.168   6.300   6.394 -1.6275  3.3083  1.5546
  188bbb     C4 5620   5.241   6.456   6.258  1.1936 -0.1519 -0.1155
  188bbb     H7 5621   5.268   6.404   6.165  1.6288 -2.1160  1.0577
  188bbb     H8 5622   5.311   6.540   6.270  0.0065  0.6494  1.7213
  188bbb     C5 5623   5.382   6.323   6.672 -0.1619  0.2391  0.0352
  188bbb     H9 5624   5.380   6.259   6.761  1.3082 -0.9676 -0.7473
  188bbb    H10 5625   5.283   6.370   6.671 -0.6438 -0.7521 -0.8935
  188bbb     C6 5626   5.554   6.174   6.286 -0.1635  0.5438  0.2747
  188bbb    H11 5627   5.562   6.092   6.214  0.8365 -1.7015  2.7831
  188bbb    H12 5628   5.603   6.137   6.378 -1.3801 -0.8751  0.3839
  188bbb     C7 5629   5.099   6.512   6.230  0.5836 -0.5474  0.5256
  188bbb    H13 5630   5.114   6.582   6.147 -1.6666  1.0957  1.3922
  188bbb    H14 5631   5.060   6.565   6.318 -1.5109 -0.9343 -0.1269
  188bbb     C8 5632   5.626   6.298   6.224 -0.3094  0.1857 -0.0800
  188bbb    H15 5633   5.585   6.387   6.273 -0.3225  0.1769 -0.0758
  188bbb    H16 5634   5.736   6.295   6.234 -0.3345  2.0362  1.0815
  188bbb     C9 5635   5.483   6.433   6.690 -0.4811 -0.4653  0.2477
  188bbb    H17 5636   5.584   6.390   6.689  0.4952  1.6590 -1.8764
  188bbb    H18 5637   5.466   6.483   6.786  0.7471  2.1711 -0.8062
  188bbb     O1 5638   5.017   6.409   6.176 -0.2223  0.1175  0.0241
  188bbb    H19 5639   5.462   6.368   6.412 -0.3013  0.8277 -0.6583
  189bbb     N1 5640   4.399   6.198   5.152 -0.8915  0.3648 -0.1729
  189bbb     C1 5641   4.401   6.347   5.145  0.7397 -0.8123 -0.7465
  189bbb     H1 5642   4.382   6.388   5.046  1.5652 -1.5155 -1.2083
  189bbb     H2 5643   4.504   6.376   5.164 -0.2563  2.5800  0.3166
  189bbb     C2 5644   4.490   6.147   5.044 -0.6578 -0.0865  0.0903
  189bbb     H3 5645   4.500   6.040   5.066 -0.1990  0.2691  1.7529
  189bbb     H4 5646   4.588   6.193   5.060 -0.0406 -0.3279 -2.5247
  189bbb     C3 5647   4.449   6.149   5.285 -0.7386 -0.1647  0.8246
  189bbb     H5 5648   4.405   6.197   5.372 -1.6479  2.0120 -0.7208
  189bbb     H6 5649   4.548   6.195   5.287 -1.0612  0.5061  2.3533
  189bbb     C4 5650   4.453   5.995   5.307  0.2647 -0.6724  0.3523
  189bbb     H7 5651   4.512   5.949   5.227 -2.2711  1.1531 -2.8503
  189bbb     H8 5652   4.354   5.948   5.308 -0.5981  1.0373 -0.0827
  189bbb     C5 5653   4.295   6.424   5.231  0.1251  0.2120  0.3754
  189bbb     H9 5654   4.316   6.531   5.231 -1.0979  0.5148 -1.6576
  189bbb    H10 5655   4.291   6.384   5.333  0.7655 -0.3885  0.1795
  189bbb     C6 5656   4.458   6.174   4.894  0.5979  0.9574 -0.6223
  189bbb    H11 5657   4.539   6.148   4.825  1.0946  0.4651  0.1296
  189bbb    H12 5658   4.440   6.281   4.876 -1.7921  0.6179 -0.6273
  189bbb     C7 5659   4.512   5.959   5.447 -0.1913 -0.6281 -0.0814
  189bbb    H13 5660   4.602   6.018   5.469 -0.2319 -0.8123  0.5930
  189bbb    H14 5661   4.545   5.854   5.446 -1.0801 -0.9436  1.2940
  189bbb     C8 5662   4.337   6.088   4.843 -0.3184  0.2662 -0.3008
  189bbb    H15 5663   4.310   6.137   4.749  1.2093 -0.5295 -1.1987
  189bbb    H16 5664   4.366   5.983   4.831 -0.9738  0.2456 -1.8928
  189bbb     C9 5665   4.158   6.406   5.169 -0.5588  0.0142  0.2728
  189bbb    H17 5666   4.089   6.473   5.223 -2.5526 -0.2294 -1.8051
  189bbb    H18 5667   4.123   6.303   5.174 -1.4207  0.3537  2.2143
  189bbb     O1 5668   4.402   5.976   5.545 -0.0582  0.5938  0.3057
  189bbb    H19 5669   4.303   6.163   5.139 -0.2174 -3.1195  2.7130
  190bbb     N1 5670   3.505   5.731   5.651  0.3710 -0.9932  0.4438
  190bbb     C1 5671   3.410   5.676   5.545 -0.0712 -0.5161  0.1360
  190bbb     H1 5672   3.388   5.572   5.570  1.2054 -1.0709 -0.9126
  190bbb     H2 5673   3.470   5.668   5.454  2.3136 -2.1685  1.7245
  190bbb     C2 5674   3.441   5.765   5.784  0.8552  0.0391  1.1946
  190bbb     H3 5675   3.405   5.676   5.837  0.5415 -0.5726 -0.0120
  190bbb     H4 5676   3.347   5.817   5.767 -1.5385 -3.8335  1.3699
  190bbb     C3 5677   3.606   5.625   5.683 -0.2860  1.2228 -0.4605
  190bbb     H5 5678   3.542   5.543   5.715 -0.1598  1.4730  0.4509
  190bbb     H6 5679   3.647   5.660   5.778 -1.8717  0.9629  0.3560
  190bbb     C4 5680   3.715   5.581   5.587  0.2767  0.4367  0.6122
  190bbb     H7 5681   3.765   5.673   5.552  0.3192 -0.2171 -1.1479
  190bbb     H8 5682   3.665   5.537   5.500  0.5755 -0.5898  0.9500
  190bbb     C5 5683   3.278   5.751   5.527 -0.6109  0.2333 -0.0036
  190bbb     H9 5684   3.225   5.762   5.623  2.6156  0.9977  1.8512
  190bbb    H10 5685   3.219   5.681   5.467  1.3765 -0.7504 -0.8807
  190bbb     C6 5686   3.518   5.859   5.876 -0.4232  0.0076 -0.7374
  190bbb    H11 5687   3.610   5.818   5.920  0.4362  0.2328 -2.2552
  190bbb    H12 5688   3.449   5.871   5.960 -0.9213 -0.8465 -1.0119
  190bbb     C7 5689   3.830   5.482   5.638  0.0733  0.2217  0.1433
  190bbb    H13 5690   3.878   5.439   5.550  0.6663  0.3871  0.3797
  190bbb    H14 5691   3.785   5.400   5.695 -0.7330 -1.1011 -2.2887
  190bbb     C8 5692   3.555   5.995   5.822  0.9981 -0.3262 -0.4089
  190bbb    H15 5693   3.466   6.054   5.798 -0.4403 -1.7582  1.1511
  190bbb    H16 5694   3.612   6.054   5.894 -1.0049  0.0408  0.9595
  190bbb     C9 5695   3.290   5.884   5.455 -0.3159 -0.7108 -0.0506
  190bbb    H17 5696   3.342   5.956   5.519 -0.1141 -0.6329 -0.3013
  190bbb    H18 5697   3.191   5.919   5.425  0.9942  1.8539 -1.7050
  190bbb     O1 5698   3.937   5.548   5.711  0.2659 -0.0832 -0.1163
  190bbb    H19 5699   3.553   5.817   5.620  2.8145 -2.2471  0.4457
  191ccc     C1 5700   6.985   4.489  11.783  0.1175  0.0792  0.3283
  191ccc     C2 5701   6.944   4.411  11.909  0.2882 -0.6686 -0.2203
  191ccc     H1 5702   7.090   4.463  11.767 -0.3291 -2.1912  0.7148
  191ccc     H2 5703   6.979   4.308  11.898  0.3604 -0.7698  0.8123
  191ccc     C3 5704   7.024   4.476  12.028 -0.4775  0.2085  0.0246
  191ccc     C4 5705   7.006   4.633  12.031  0.1058  0.3688 -0.2415
  191ccc     C5 5706   7.048   4.693  11.898  0.1668  0.0343  0.3122
  191ccc     H3 5707   6.898   4.653  12.040 -0.0319 -1.0213  1.8073
  191ccc     H4 5708   7.130   4.451  12.019 -0.7159 -0.3424 -1.5744
  191ccc     H5 5709   7.155   4.674  11.883  0.2532  0.9018 -0.1921
  191ccc     O1 5710   7.024   4.836  11.901  0.4814 -0.0781  0.3826
  191ccc     O2 5711   7.075   4.681  12.152  0.1285  0.0251 -0.3947
  191ccc     O3 5712   6.987   4.425  12.161 -0.3932 -0.3386  0.2049
  191ccc     O4 5713   6.806   4.425  11.929  0.5304 -0.3436  0.0427
  191ccc     C6 5714   6.906   4.453  11.654 -0.0525  0.4515 -0.2287
  191ccc     H6 5715   6.998   4.330  12.141 -1.6140 -0.4459 -0.0733
  191ccc     H7 5716   6.767   4.340  11.901 -2.9790 -0.1474  3.4628
  191ccc     H8 5717   7.064   4.605  12.211 -0.5745  0.7803  0.4646
  191ccc     H9 5718   6.800   4.478  11.668 -0.6472 -2.6931  1.7486
  191ccc    H10 5719   6.899   4.345  11.639  0.7712  0.4320 -0.5291
  191ccc     O5 5720   6.968   4.519  11.549  0.5663 -0.0113 -0.4518
  191ccc    H11 5721   6.913   4.597  11.564 -0.0852 -0.7850  1.4721
  191ccc     O6 5722   6.971   4.632  11.786 -0.8564 -0.2437 -0.2215
  192ccc     C1 5723   7.364   5.383  12.410 -0.0767 -0.1097  0.3867
  192ccc     C2 5724   7.249   5.453  12.476 -0.1231  0.0080  0.0285
  192ccc     H1 5725   7.430   5.464  12.373 -2.1038  0.3457 -2.5535
  192ccc     H2 5726   7.287   5.516  12.557 -1.0879 -0.2002  0.6553
  192ccc     C3 5727   7.182   5.540  12.366  0.4249 -0.7427 -0.6291
  192ccc     C4 5728   7.146   5.466  12.232 -0.5686  0.0249 -0.2817
  192ccc     C5 5729   7.264   5.373  12.182  0.3276  0.1932 -0.0648
  192ccc     H3 5730   7.058   5.400  12.232 -1.0175  0.3840 -3.9460
  192ccc     H4 5731   7.264   5.609  12.342  1.8061 -1.9982  0.3470
  192ccc     H5 5732   7.339   5.433  12.127 -0.0582 -0.1475 -0.9881
  192ccc     O1 5733   7.223   5.274  12.080 -0.0413  0.6148  0.1047
  192ccc     O2 5734   7.117   5.577  12.135 -0.3952  0.2793  0.2153
  192ccc     O3 5735   7.067   5.606  12.418  0.6035 -0.1353 -0.3328
  192ccc     O4 5736   7.161   5.345  12.521 -0.3287 -0.2998  0.9021
  192ccc     C6 5737   7.448   5.296  12.505 -0.1851  0.0013 -0.4203
  192ccc     H6 5738   7.086   5.658  12.498  1.4223 -1.0788  0.1139
  192ccc     H7 5739   7.086   5.394  12.558  0.2497  2.8512 -1.6492
  192ccc     H8 5740   7.055   5.539  12.070 -0.5189  1.7051 -0.5253
  192ccc     H9 5741   7.384   5.218  12.547  0.5820 -0.4137  0.0036
  192ccc    H10 5742   7.492   5.351  12.589 -2.3291  2.7960 -0.9891
  192ccc     O5 5743   7.556   5.237  12.432  0.0590  0.5529  0.1366
  192ccc    H11 5744   7.520   5.153  12.397  1.3260 -0.1528  0.4630
  192ccc     O6 5745   7.322   5.304  12.294  0.0170  0.2510  0.0364
  193ccc     C1 5746   7.272   5.646  10.202  0.1734  0.8287 -0.1508
  193ccc     C2 5747   7.431   5.632  10.184 -0.3315  0.0650  0.3416
  193ccc     H1 5748   7.244   5.735  10.260 -1.7183  1.1954 -1.5350
  193ccc     H2 5749   7.480   5.719  10.137  0.8249  0.1989  1.7152
  193ccc     C3 5750   7.492   5.623  10.327  0.6584 -0.0165  0.3204
  193ccc     C4 5751   7.434   5.500  10.397 -0.1243  0.1495  0.3521
  193ccc     C5 5752   7.278   5.510  10.409  0.4218 -0.0959  0.6628
  193ccc     H3 5753   7.465   5.411  10.340 -0.9234  1.1847 -1.8014
  193ccc     H4 5754   7.452   5.712  10.377  1.4683 -0.3018  1.5323
  193ccc     H5 5755   7.243   5.594  10.470 -1.3571 -0.3661  0.0605
  193ccc     O1 5756   7.228   5.384  10.467 -0.1126  0.3406 -0.1877
  193ccc     O2 5757   7.495   5.511  10.529 -0.1751 -0.1365 -0.1301
  193ccc     O3 5758   7.638   5.621  10.331 -0.6059 -0.1859  0.2676
  193ccc     O4 5759   7.450   5.508  10.106  0.3190 -0.0235 -0.1260
  193ccc     C6 5760   7.191   5.649  10.069 -0.9243  0.0792 -0.2553
  193ccc     H6 5761   7.663   5.707  10.293 -1.6040 -0.1449 -0.3450
  193ccc     H7 5762   7.370   5.510  10.051  0.8436 -2.0698 -1.0553
  193ccc     H8 5763   7.584   5.540  10.504 -0.3111  0.6058  0.2355
  193ccc     H9 5764   7.203   5.751  10.031  0.9282  0.7295  1.8308
  193ccc    H10 5765   7.086   5.630  10.092 -0.5408 -1.0857  0.6661
  193ccc     O5 5766   7.234   5.548   9.974 -0.1210  0.0269 -0.0990
  193ccc    H11 5767   7.198   5.590   9.893  1.1654  2.7470  0.6504
  193ccc     O6 5768   7.226   5.525  10.275  1.0215 -0.5504  0.2730
  194ccc     C1 5769   7.875   5.096  10.837  0.3006 -0.8121  0.2126
  194ccc     C2 5770   7.942   5.145  10.700  0.4498 -0.8048 -0.8546
  194ccc     H1 5771   7.940   5.025  10.888  1.6914  0.0180 -0.3481
  194ccc     H2 5772   8.037   5.195  10.727  0.5221 -1.1257 -0.5040
  194ccc     C3 5773   7.972   5.020  10.626 -0.5505  0.0287  0.3199
  194ccc     C4 5774   7.853   4.920  10.599 -0.3087 -0.4881  0.5260
  194ccc     C5 5775   7.770   4.900  10.730  0.4178 -0.2760 -0.1623
  194ccc     H3 5776   7.782   4.964  10.528 -1.0352 -3.7484 -0.9572
  194ccc     H4 5777   8.032   4.958  10.694 -3.1031 -2.2628  0.6360
  194ccc     H5 5778   7.822   4.831  10.797  1.1988 -1.3244 -1.7880
  194ccc     O1 5779   7.637   4.857  10.696  0.6153 -0.0354 -0.0252
  194ccc     O2 5780   7.906   4.792  10.566 -0.0121  0.6704 -0.2547
  194ccc     O3 5781   8.047   5.055  10.504 -0.4952  0.7170  0.2881
  194ccc     O4 5782   7.847   5.234  10.638  0.1655 -0.8724 -0.3366
  194ccc     C6 5783   7.849   5.221  10.935 -0.3783 -0.0048 -0.1601
  194ccc     H6 5784   7.979   5.083  10.440 -0.5236 -1.4655 -0.7420
  194ccc     H7 5785   7.816   5.290  10.712  0.9174  4.1750 -3.3986
  194ccc     H8 5786   7.964   4.796  10.488 -1.1455  0.3180 -1.1600
  194ccc     H9 5787   7.941   5.269  10.969  0.2975 -0.3678 -1.4095
  194ccc    H10 5788   7.795   5.181  11.022 -1.9029  1.5660 -0.3432
  194ccc     O5 5789   7.775   5.329  10.878 -0.3740 -0.1074 -0.7670
  194ccc    H11 5790   7.756   5.385  10.955 -0.9445 -2.2329  0.7338
  194ccc     O6 5791   7.753   5.025  10.803  0.2108 -0.1088 -0.7616
  195ccc     C1 5792   5.417   6.062  11.218 -0.6024 -0.0966 -0.7667
  195ccc     C2 5793   5.379   6.007  11.081 -0.6421  0.4467 -0.0614
  195ccc     H1 5794   5.518   6.104  11.204 -0.4228 -0.8091 -1.6952
  195ccc     H2 5795   5.400   6.081  11.003  2.0966 -0.9213 -0.7504
  195ccc     C3 5796   5.473   5.878  11.044 -0.2238 -0.2400  0.1019
  195ccc     C4 5797   5.484   5.788  11.168 -0.0703 -0.1169  0.6666
  195ccc     C5 5798   5.510   5.866  11.297  0.1849  0.1866 -0.5191
  195ccc     H3 5799   5.383   5.750  11.182 -0.8541  1.8805  0.7745
  195ccc     H4 5800   5.569   5.925  11.020 -1.2585  1.9613  0.0075
  195ccc     H5 5801   5.610   5.910  11.305 -0.2726  1.0012  1.0978
  195ccc     O1 5802   5.503   5.773  11.406 -0.5593  0.2839  0.3959
  195ccc     O2 5803   5.583   5.682  11.147 -0.3402  0.3381 -0.3364
  195ccc     O3 5804   5.423   5.799  10.938  0.3079 -0.2030 -0.3517
  195ccc     O4 5805   5.243   5.962  11.088  0.1162 -0.3192 -0.1704
  195ccc     C6 5806   5.321   6.171  11.265  0.2701 -0.0273  0.2799
  195ccc     H6 5807   5.505   5.769  10.896  0.5126  0.4181 -0.3967
  195ccc     H7 5808   5.226   5.939  10.995  0.8392 -3.1795  0.3086
  195ccc     H8 5809   5.544   5.627  11.077  1.2760 -0.1381 -0.9079
  195ccc     H9 5810   5.244   6.132  11.333 -0.0628  0.6432  0.2929
  195ccc    H10 5811   5.267   6.212  11.178 -0.8953 -1.2023  0.4166
  195ccc     O5 5812   5.397   6.264  11.337 -0.5607 -0.1434 -0.4643
  195ccc    H11 5813   5.434   6.218  11.414 -0.9646 -1.1424 -0.8611
  195ccc     O6 5814   5.409   5.964  11.321 -0.3395 -0.4842  0.5688
  196ccc     C1 5815   5.348   6.143  11.734  0.3556 -0.3650  0.1076
  196ccc     C2 5816   5.482   6.211  11.699 -0.1980  0.2692 -0.7408
  196ccc     H1 5817   5.305   6.215  11.805  0.9846  0.0801  0.0443
  196ccc     H2 5818   5.463   6.319  11.702 -0.1364  0.2585  0.2266
  196ccc     C3 5819   5.600   6.189  11.800  0.4795 -0.0438  0.1228
  196ccc     C4 5820   5.607   6.045  11.850 -0.1995 -0.1030  0.5943
  196ccc     C5 5821   5.467   5.994  11.892 -0.3488 -0.6723  1.0252
  196ccc     H3 5822   5.645   5.974  11.776  1.6553  1.1471  0.2514
  196ccc     H4 5823   5.581   6.258  11.884 -3.2509  0.5208 -1.0178
  196ccc     H5 5824   5.435   6.042  11.985 -0.1041 -0.6734  1.1128
  196ccc     O1 5825   5.481   5.854  11.923 -0.2517  0.3883  0.1522
  196ccc     O2 5826   5.695   6.044  11.961 -0.3584  0.6898  0.4838
  196ccc     O3 5827   5.722   6.223  11.729  0.7272  0.1889  0.1033
  196ccc     O4 5828   5.524   6.174  11.569  0.4857 -0.4591  0.1165
  196ccc     C6 5829   5.248   6.135  11.615  0.2917  0.0346 -0.0871
  196ccc     H6 5830   5.780   6.231  11.807  0.1862 -2.7282  0.9404
  196ccc     H7 5831   5.616   6.200  11.586 -0.0900  1.1771  0.8318
  196ccc     H8 5832   5.787   6.044  11.930 -0.2930  0.8401  0.6753
  196ccc     H9 5833   5.285   6.052  11.554 -0.9744 -1.7181  1.4404
  196ccc    H10 5834   5.244   6.234  11.567  0.8497 -0.8881 -2.1267
  196ccc     O5 5835   5.122   6.099  11.663  0.6603 -0.5518  0.1242
  196ccc    H11 5836   5.073   6.183  11.672 -2.3819 -1.9950 -1.6267
  196ccc     O6 5837   5.369   6.011  11.790 -0.1344 -0.0657  0.2267
  197ccc     C1 5838   5.476   4.781  13.176  0.2401  0.0396  0.2897
  197ccc     C2 5839   5.440   4.890  13.278  1.0384 -0.2881  0.3818
  197ccc     H1 5840   5.548   4.711  13.220 -1.3927 -0.8148  1.7501
  197ccc     H2 5841   5.390   4.838  13.360  4.0546 -0.4602  2.2759
  197ccc     C3 5842   5.571   4.961  13.324  0.8857 -0.4446 -0.2840
  197ccc     C4 5843   5.637   5.024  13.200 -0.1899 -0.1076 -0.1377
  197ccc     C5 5844   5.657   4.915  13.091 -0.7644  1.1210 -0.2458
  197ccc     H3 5845   5.573   5.101  13.156 -0.5009 -0.0229  0.4524
  197ccc     H4 5846   5.639   4.887  13.367  1.4379 -0.6902 -1.5369
  197ccc     H5 5847   5.732   4.842  13.124 -1.6621  0.5576  0.5958
  197ccc     O1 5848   5.713   4.982  12.969 -0.0589 -0.2399  0.2326
  197ccc     O2 5849   5.758   5.092  13.243 -0.0464 -0.2766  0.1870
  197ccc     O3 5850   5.549   5.069  13.419 -0.5330 -0.1209 -0.1492
  197ccc     O4 5851   5.347   4.992  13.225  0.4524  0.1654  0.3560
  197ccc     C6 5852   5.351   4.704  13.133  0.4151 -0.1511  0.8095
  197ccc     H6 5853   5.481   5.126  13.379 -0.0882 -0.1315 -0.9435
  197ccc     H7 5854   5.260   4.950  13.241  0.2741  0.7278  0.9240
  197ccc     H8 5855   5.737   5.130  13.330 -0.8848  0.2789 -0.2432
  197ccc     H9 5856   5.300   4.677  13.226  3.3468 -4.4469  1.4859
  197ccc    H10 5857   5.372   4.609  13.082  0.2503  1.6919 -3.0995
  197ccc     O5 5858   5.280   4.787  13.045  0.0028  0.1600  0.1218
  197ccc    H11 5859   5.348   4.822  12.984 -0.3435 -1.6101 -1.3934
  197ccc     O6 5860   5.538   4.841  13.064  0.3655 -0.3409 -0.2257
  198ccc     C1 5861   5.949   5.800  12.948 -0.2475  0.6657  0.0987
  198ccc     C2 5862   5.845   5.870  13.040 -0.3121  0.8789 -0.1012
  198ccc     H1 5863   5.975   5.873  12.871 -1.7244  2.4032  1.1924
  198ccc     H2 5864   5.876   5.972  13.064 -0.4830  1.6878 -2.9475
  198ccc     C3 5865   5.714   5.884  12.956 -0.1009  0.5407 -0.0208
  198ccc     C4 5866   5.663   5.746  12.903 -0.1354 -0.3969  0.1882
  198ccc     C5 5867   5.774   5.673  12.818  0.6251  0.5783 -0.3850
  198ccc     H3 5868   5.649   5.686  12.994  0.3899  2.6821  2.4432
  198ccc     H4 5869   5.743   5.946  12.870  1.1956 -1.0763 -0.8178
  198ccc     H5 5870   5.790   5.715  12.717 -2.4120 -0.1806 -1.2914
  198ccc     O1 5871   5.729   5.534  12.792 -0.2661 -0.0664  0.2016
  198ccc     O2 5872   5.540   5.765  12.834  0.1144 -0.3186  0.1284
  198ccc     O3 5873   5.611   5.958  13.021 -0.6334 -0.2490 -0.1586
  198ccc     O4 5874   5.822   5.787  13.152  0.0344 -0.3375  0.5192
  198ccc     C6 5875   6.086   5.768  13.021 -0.0887  0.1434  0.1614
  198ccc     H6 5876   5.589   5.917  13.106  0.3650  3.1587  1.9242
  198ccc     H7 5877   5.817   5.846  13.229 -0.6083 -0.2929  0.4488
  198ccc     H8 5878   5.509   5.839  12.889  2.0021 -0.8545  2.0400
  198ccc     H9 5879   6.070   5.678  13.080 -0.2614  0.6905  0.9734
  198ccc    H10 5880   6.110   5.853  13.087  2.0943  0.7075 -1.2367
  198ccc     O5 5881   6.187   5.753  12.917 -0.2033  0.1541 -0.0667
  198ccc    H11 5882   6.273   5.754  12.962  1.4935 -2.5436 -2.8644
  198ccc     O6 5883   5.901   5.676  12.889 -0.5315 -0.4664 -0.5156
  199ccc     C1 5884   4.734   4.230  12.553 -0.5132  0.0956 -0.2714
  199ccc     C2 5885   4.761   4.078  12.523  0.2172 -0.4888  0.2810
  199ccc     H1 5886   4.677   4.271  12.469 -0.0801 -0.6385 -0.9473
  199ccc     H2 5887   4.666   4.034  12.488  0.8485 -0.6141 -1.3615
  199ccc     C3 5888   4.866   4.063  12.415  0.1859 -0.2611  0.1225
  199ccc     C4 5889   4.998   4.133  12.457  0.9811  0.5724  0.0001
  199ccc     C5 5890   4.965   4.285  12.494 -0.0814  1.0112  0.3530
  199ccc     H3 5891   5.042   4.090  12.548  0.5037  1.5927  0.7367
  199ccc     H4 5892   4.811   4.116  12.336  0.6639  1.1338  0.6997
  199ccc     H5 5893   4.942   4.336  12.400 -0.7136  2.8789  1.4671
  199ccc     O1 5894   5.082   4.340  12.557  0.2846 -0.2910  0.2249
  199ccc     O2 5895   5.101   4.132  12.355 -0.3549 -0.0686 -0.2036
  199ccc     O3 5896   4.883   3.920  12.389  0.9347  0.0428  0.6309
  199ccc     O4 5897   4.804   4.006  12.640 -0.4913  0.3040  0.5463
  199ccc     C6 5898   4.655   4.253  12.684  0.0550  1.0408  0.2149
  199ccc     H6 5899   4.953   3.892  12.451  1.2682  1.3381  0.8644
  199ccc     H7 5900   4.784   3.911  12.628 -1.5145  0.7757 -2.2339
  199ccc     H8 5901   5.178   4.098  12.403  0.4319  1.7900 -0.0873
  199ccc     H9 5902   4.714   4.236  12.775 -0.7303 -1.3001  0.3546
  199ccc    H10 5903   4.572   4.182  12.688  1.9307 -1.5033 -2.2316
  199ccc     O5 5904   4.604   4.386  12.686 -0.0538  0.4307  0.2783
  199ccc    H11 5905   4.674   4.443  12.650 -0.8315  0.5894 -1.0220
  199ccc     O6 5906   4.857   4.297  12.583 -0.0827  0.3617 -0.1306
  200ccc     C1 5907   4.967   4.007  13.364 -0.1965  0.4062 -0.1322
  200ccc     C2 5908   4.842   4.093  13.399  0.2124 -0.9302  0.2759
  200ccc     H1 5909   5.025   3.979  13.453 -1.3360 -0.9944  0.2089
  200ccc     H2 5910   4.785   4.026  13.465  1.0292 -2.0477 -0.1205
  200ccc     C3 5911   4.871   4.236  13.462 -0.4840 -0.1654  0.7264
  200ccc     C4 5912   4.985   4.311  13.383  0.1654 -0.3621 -0.1640
  200ccc     C5 5913   5.101   4.212  13.338  0.8031  0.5663 -0.4507
  200ccc     H3 5914   4.933   4.363  13.302 -2.0132 -1.3312  0.5278
  200ccc     H4 5915   4.920   4.223  13.560  0.8459 -0.5204  0.0409
  200ccc     H5 5916   5.153   4.193  13.432  1.7000  4.3242 -0.0425
  200ccc     O1 5917   5.178   4.281  13.234 -0.7348  0.1260 -0.0431
  200ccc     O2 5918   5.040   4.416  13.463 -0.5778 -0.1557 -0.3065
  200ccc     O3 5919   4.749   4.314  13.481 -0.1633 -0.1228 -0.4709
  200ccc     O4 5920   4.768   4.116  13.283 -0.4280 -0.1973  0.5484
  200ccc     C6 5921   4.947   3.867  13.295 -0.1639  0.4037 -0.1071
  200ccc     H6 5922   4.681   4.248  13.503  0.5352 -1.2780 -1.6103
  200ccc     H7 5923   4.810   4.041  13.237  3.6203  2.0650  0.1674
  200ccc     H8 5924   4.981   4.492  13.475 -0.3833 -0.0114 -0.2628
  200ccc     H9 5925   4.910   3.801  13.374  1.9848  0.9584  1.4597
  200ccc    H10 5926   5.037   3.820  13.252 -0.6327  1.0430 -1.8674
  200ccc     O5 5927   4.852   3.882  13.188 -0.4527 -0.9682 -0.0403
  200ccc    H11 5928   4.807   3.799  13.165 -1.1335 -1.2057  1.9794
  200ccc     O6 5929   5.052   4.084  13.277  0.5806  0.3105 -0.0451
  201ccc     C1 5930   4.900   2.836  11.781  0.3655  0.4038  0.2285
  201ccc     C2 5931   4.827   2.772  11.667  0.2743 -0.0633  0.1030
  201ccc     H1 5932   4.869   2.795  11.878  1.3090  1.3622  0.9579
  201ccc     H2 5933   4.839   2.663  11.678  2.7951  0.1099 -0.3991
  201ccc     C3 5934   4.676   2.799  11.657  0.3275  0.0083 -0.3517
  201ccc     C4 5935   4.658   2.954  11.658  0.8406 -0.2761  0.6010
  201ccc     C5 5936   4.737   3.019  11.776 -0.2129  0.2219 -0.1292
  201ccc     H3 5937   4.693   2.976  11.556 -0.5310 -2.0184 -0.3074
  201ccc     H4 5938   4.610   2.743  11.725 -0.3189 -1.4824 -2.1244
  201ccc     H5 5939   4.689   2.996  11.872 -1.9657 -0.9613 -1.2130
  201ccc     O1 5940   4.736   3.155  11.749 -0.3948 -0.4098  0.1397
  201ccc     O2 5941   4.513   2.981  11.661 -0.2646 -0.5035 -0.3189
  201ccc     O3 5942   4.626   2.750  11.522  0.2515 -0.4035 -0.0116
  201ccc     O4 5943   4.894   2.803  11.547 -0.0461 -0.1080 -0.2351
  201ccc     C6 5944   5.053   2.817  11.779 -0.6660 -0.5710  0.8818
  201ccc     H6 5945   4.531   2.772  11.526  0.4829  0.3592  2.5563
  201ccc     H7 5946   4.849   2.750  11.479 -0.3269 -0.0370 -0.1059
  201ccc     H8 5947   4.504   3.073  11.633  1.3565 -0.7868 -2.0074
  201ccc     H9 5948   5.101   2.882  11.705 -1.0273 -1.1954  0.0908
  201ccc    H10 5949   5.078   2.713  11.758 -1.0935 -0.7946  1.4679
  201ccc     O5 5950   5.094   2.859  11.910 -0.1375  0.6347  0.4522
  201ccc    H11 5951   5.046   2.943  11.922 -1.0579  0.3096 -0.7245
  201ccc     O6 5952   4.881   2.975  11.778  0.3436 -0.3887  0.6632
  202ccc     C1 5953   5.371   2.913  12.144 -0.9374  0.2512 -0.3921
  202ccc     C2 5954   5.396   3.008  12.263  0.2064 -0.5432  0.3498
  202ccc     H1 5955   5.459   2.852  12.122 -1.1029  0.2966 -1.2455
  202ccc     H2 5956   5.438   2.943  12.340  0.6383 -1.6883 -0.8273
  202ccc     C3 5957   5.501   3.111  12.219  0.6500 -0.0299  0.0165
  202ccc     C4 5958   5.456   3.188  12.096 -0.0699 -0.1652 -0.2537
  202ccc     C5 5959   5.429   3.083  11.983  0.5573  0.3443 -0.6037
  202ccc     H3 5960   5.358   3.228  12.123  0.2601 -0.5332  1.6194
  202ccc     H4 5961   5.591   3.053  12.198 -0.0211 -1.8055  1.7049
  202ccc     H5 5962   5.522   3.033  11.955 -0.6068 -0.8098 -2.5827
  202ccc     O1 5963   5.365   3.154  11.869 -0.2745 -0.0203  0.2372
  202ccc     O2 5964   5.561   3.285  12.064  0.0421 -0.6847  0.1885
  202ccc     O3 5965   5.533   3.196  12.328 -0.2571 -0.2785 -0.3087
  202ccc     O4 5966   5.267   3.070  12.293  0.0946  0.2021 -0.2051
  202ccc     C6 5967   5.258   2.815  12.176  0.0711 -0.1492  0.4729
  202ccc     H6 5968   5.580   3.145  12.396  1.3400 -0.2931 -1.3722
  202ccc     H7 5969   5.246   3.031  12.380 -1.2718 -0.4375 -0.7843
  202ccc     H8 5970   5.606   3.287  12.150 -0.5293 -1.4607  0.5213
  202ccc     H9 5971   5.163   2.870  12.186 -0.1142  0.1326 -2.1174
  202ccc    H10 5972   5.276   2.755  12.266  1.1234 -2.2123 -1.0455
  202ccc     O5 5973   5.247   2.729  12.066  0.2836 -0.3917  0.0067
  202ccc    H11 5974   5.179   2.775  12.015  1.2069  0.4453 -0.4836
  202ccc     O6 5975   5.329   2.987  12.028 -0.0001  0.1315 -0.2594
  203ccc     C1 5976   5.481   3.171  10.470 -0.2787  0.2105 -0.1520
  203ccc     C2 5977   5.401   3.268  10.374 -0.2817 -0.0134  0.5102
  203ccc     H1 5978   5.413   3.129  10.545 -1.6059 -1.7392 -2.2883
  203ccc     H2 5979   5.318   3.218  10.323  1.5658 -2.8418  0.0426
  203ccc     C3 5980   5.346   3.397  10.453  0.5604  0.2526  0.3311
  203ccc     C4 5981   5.469   3.459  10.534  0.3198  0.6555 -0.3315
  203ccc     C5 5982   5.541   3.359  10.621  0.3956  0.2546  0.2451
  203ccc     H3 5983   5.536   3.501  10.459 -1.0610  2.8112 -0.4737
  203ccc     H4 5984   5.270   3.364  10.525  0.9061  2.0215  1.5702
  203ccc     H5 5985   5.473   3.328  10.700 -0.3739 -1.0746 -0.9012
  203ccc     O1 5986   5.662   3.418  10.680 -0.1275 -0.2380  0.3429
  203ccc     O2 5987   5.417   3.569  10.612 -0.4546  0.2438 -0.2304
  203ccc     O3 5988   5.286   3.501  10.375  0.0934  0.1362 -0.1582
  203ccc     O4 5989   5.496   3.309  10.271 -0.3319  0.2413  0.0154
  203ccc     C6 5990   5.552   3.050  10.404  0.1952 -0.4380  0.0440
  203ccc     H6 5991   5.223   3.540  10.439  0.6687  0.3503  0.2837
  203ccc     H7 5992   5.548   3.229  10.254 -0.0358  0.4809 -0.2287
  203ccc     H8 5993   5.396   3.639  10.547 -0.2393  0.7943  0.2857
  203ccc     H9 5994   5.473   2.985  10.364  0.7188 -1.3860  0.5097
  203ccc    H10 5995   5.608   2.981  10.468  1.6005 -0.3876 -1.0858
  203ccc     O5 5996   5.635   3.089  10.302 -0.3253  0.5098 -0.3607
  203ccc    H11 5997   5.720   3.081  10.349 -1.1305  2.6661  1.6213
  203ccc     O6 5998   5.587   3.244  10.537 -0.2357 -0.5642  0.0086
  204ccc     C1 5999   6.390   4.022  10.874 -0.0521 -0.1171 -0.1643
  204ccc     C2 6000   6.512   4.092  10.817  0.6959  0.4460 -0.1047
  204ccc     H1 6001   6.399   3.999  10.981 -0.4742  1.6982  0.3029
  204ccc     H2 6002   6.524   4.179  10.882 -4.9488  0.6149  1.1372
  204ccc     C3 6003   6.629   3.990  10.837  0.5682 -0.6767 -0.0571
  204ccc     C4 6004   6.593   3.860  10.754 -0.3542  0.3107  0.2613
  204ccc     C5 6005   6.446   3.809  10.772 -0.7968 -0.6862 -0.1281
  204ccc     H3 6006   6.613   3.881  10.648  0.3846 -0.3847  0.2496
  204ccc     H4 6007   6.631   3.966  10.943 -0.7154 -0.7429 -0.0300
  204ccc     H5 6008   6.444   3.746  10.863 -1.3385  0.6835  0.8396
  204ccc     O1 6009   6.410   3.731  10.649  0.0455 -0.2901 -0.0824
  204ccc     O2 6010   6.692   3.754  10.789  0.0139  0.5962 -0.3437
  204ccc     O3 6011   6.754   4.059  10.802  0.1493  0.6635 -0.1254
  204ccc     O4 6012   6.493   4.137  10.678  0.0275 -0.4553 -0.6854
  204ccc     C6 6013   6.276   4.128  10.870 -0.4514 -0.3156 -0.1494
  204ccc     H6 6014   6.811   3.995  10.757  0.3812  1.7429 -1.4223
  204ccc     H7 6015   6.578   4.175  10.650  0.4173  0.2761  1.3426
  204ccc     H8 6016   6.650   3.671  10.760 -1.3371  0.6839  1.1727
  204ccc     H9 6017   6.212   4.120  10.782 -2.2150  2.9186  0.6867
  204ccc    H10 6018   6.310   4.233  10.871  3.1956 -1.3276  1.1258
  204ccc     O5 6019   6.191   4.097  10.982  0.7149  0.0195  0.4756
  204ccc    H11 6020   6.240   4.119  11.063  0.6275  0.1918  0.4836
  204ccc     O6 6021   6.358   3.916  10.782 -0.5591  0.2850 -0.5538
  205ccc     C1 6022   6.315   2.071  11.619  0.3969 -0.9305 -0.2814
  205ccc     C2 6023   6.373   2.041  11.481 -0.2670 -0.1178  0.2439
  205ccc     H1 6024   6.219   2.018  11.621  0.6875 -1.4561 -0.0553
  205ccc     H2 6025   6.386   1.934  11.459  1.1754 -0.3975  2.1911
  205ccc     C3 6026   6.283   2.099  11.367  0.2288  0.5904  0.5341
  205ccc     C4 6027   6.260   2.249  11.392 -1.0311 -1.0532  0.5561
  205ccc     C5 6028   6.198   2.268  11.530  0.4682 -0.8798 -0.0302
  205ccc     H3 6029   6.357   2.301  11.393 -0.2715 -2.4197  1.1797
  205ccc     H4 6030   6.185   2.051  11.379  0.3869  0.5295  1.6797
  205ccc     H5 6031   6.102   2.216  11.545  0.3507 -0.4183  0.8185
  205ccc     O1 6032   6.166   2.409  11.546 -0.2363  0.1963  0.3859
  205ccc     O2 6033   6.165   2.301  11.299 -0.4785 -0.3506  0.5870
  205ccc     O3 6034   6.325   2.079  11.227  0.6265 -0.0198 -0.0084
  205ccc     O4 6035   6.497   2.101  11.477  0.3554 -0.4247  0.0974
  205ccc     C6 6036   6.399   2.020  11.740  0.9142 -0.8112 -0.0177
  205ccc     H6 6037   6.367   1.991  11.230 -1.3401 -0.9959  2.1686
  205ccc     H7 6038   6.523   2.118  11.569  0.9040 -0.8400  0.0235
  205ccc     H8 6039   6.205   2.277  11.214 -1.3749  0.7798 -0.1974
  205ccc     H9 6040   6.435   1.918  11.720  1.7144 -0.2634 -1.4801
  205ccc    H10 6041   6.346   2.024  11.836 -1.1226 -0.6771 -1.0810
  205ccc     O5 6042   6.511   2.105  11.744 -0.4096 -0.8283  0.1113
  205ccc    H11 6043   6.530   2.077  11.836 -0.7506  1.1883  0.8451
  205ccc     O6 6044   6.287   2.212  11.628  0.1080 -0.0626 -0.2728
  206ccc     C1 6045   6.763   2.821  11.064 -0.4338 -0.1339 -0.4084
  206ccc     C2 6046   6.902   2.885  11.044 -0.0200 -0.0351  0.1284
  206ccc     H1 6047   6.709   2.899  11.119  0.2509  0.2085 -0.2101
  206ccc     H2 6048   6.884   2.987  11.010  0.7467  0.3600  0.8635
  206ccc     C3 6049   6.979   2.896  11.177 -0.1408 -0.1333 -0.6404
  206ccc     C4 6050   6.982   2.756  11.252  0.0245 -0.7528  0.2286
  206ccc     C5 6051   6.827   2.719  11.275 -0.2547  0.2343  0.1723
  206ccc     H3 6052   7.031   2.688  11.180 -0.5520  0.1354 -1.0448
  206ccc     H4 6053   6.936   2.969  11.247 -0.5553 -0.3500 -0.6664
  206ccc     H5 6054   6.774   2.800  11.328  2.0389  0.5897  2.1531
  206ccc     O1 6055   6.810   2.598  11.357 -0.3484 -1.0603 -0.1332
  206ccc     O2 6056   7.060   2.778  11.371 -0.1698 -0.2831 -0.1044
  206ccc     O3 6057   7.114   2.937  11.152  0.6541 -0.0568 -0.4664
  206ccc     O4 6058   6.984   2.811  10.950 -0.0339  0.6903  0.3218
  206ccc     C6 6059   6.675   2.804  10.938  0.4471 -0.2413 -0.0420
  206ccc     H6 6060   7.101   3.016  11.098 -1.0266 -0.7735 -1.1490
  206ccc     H7 6061   7.032   2.877  10.896 -0.6347  0.6647 -0.2499
  206ccc     H8 6062   7.125   2.841  11.335 -0.7543  3.1641  4.0898
  206ccc     H9 6063   6.685   2.899  10.885  0.6140  0.6451  1.5123
  206ccc    H10 6064   6.569   2.787  10.960 -0.2228  1.3486 -1.7648
  206ccc     O5 6065   6.736   2.696  10.874  0.5314 -0.2057  0.2573
  206ccc    H11 6066   6.828   2.724  10.885  0.6090 -0.3755  0.0299
  206ccc     O6 6067   6.763   2.704  11.150 -0.1147  0.2863 -0.0179
  207ccc     C1 6068   8.442   4.756  10.372  0.7657  0.2790 -0.5390
  207ccc     C2 6069   8.294   4.803  10.401  0.2532  0.4444  0.0467
  207ccc     H1 6070   8.485   4.828  10.301 -3.0512  3.5422  0.0985
  207ccc     H2 6071   8.280   4.909  10.426 -1.6570  0.1903  0.2642
  207ccc     C3 6072   8.195   4.779  10.289 -0.2063  0.2985 -0.2670
  207ccc     C4 6073   8.226   4.649  10.208  0.8668 -0.0520 -0.0757
  207ccc     C5 6074   8.376   4.602  10.201 -0.1930 -0.5123  0.3010
  207ccc     H3 6075   8.171   4.579  10.273  0.8682  0.5952  0.6400
  207ccc     H4 6076   8.208   4.863  10.219  1.0415 -0.3051 -0.7957
  207ccc     H5 6077   8.432   4.672  10.139  2.7915 -0.8382  2.4402
  207ccc     O1 6078   8.401   4.472  10.145 -0.8059  0.1737  0.0894
  207ccc     O2 6079   8.172   4.659  10.078 -0.0949  0.0082 -0.0814
  207ccc     O3 6080   8.054   4.771  10.340 -0.6592  0.3831  0.7986
  207ccc     O4 6081   8.246   4.735  10.519 -0.2360  0.1815  0.5230
  207ccc     C6 6082   8.532   4.754  10.500  0.5368 -0.0518  0.4847
  207ccc     H6 6083   7.986   4.780  10.271 -1.2362  0.3216  1.3499
  207ccc     H7 6084   8.151   4.747  10.502 -0.1028  1.1097  0.3627
  207ccc     H8 6085   8.213   4.738  10.039  2.2804 -0.8490  0.5678
  207ccc     H9 6086   8.519   4.657  10.550  3.1045 -0.9197 -0.3625
  207ccc    H10 6087   8.514   4.836  10.571 -2.0624 -0.6874  0.6929
  207ccc     O5 6088   8.662   4.753  10.459 -0.3703 -0.0802  0.4091
  207ccc    H11 6089   8.671   4.839  10.414  2.2574 -1.7962 -2.7911
  207ccc     O6 6090   8.429   4.614  10.332 -0.2920 -0.2721  0.6066
  208ccc     C1 6091   8.827   4.619   9.902 -0.1224  0.1033  0.3881
  208ccc     C2 6092   8.768   4.731   9.815  0.8156 -0.2990  0.3664
  208ccc     H1 6093   8.936   4.620   9.889 -0.0849 -0.3874  0.6436
  208ccc     H2 6094   8.822   4.824   9.836  0.7248 -0.4442  1.3194
  208ccc     C3 6095   8.790   4.705   9.663 -0.3729  0.5025  0.1659
  208ccc     C4 6096   8.762   4.556   9.628 -0.1942  0.5828  0.4316
  208ccc     C5 6097   8.813   4.451   9.735 -0.1799 -0.1773  0.2806
  208ccc     H3 6098   8.653   4.550   9.635 -0.4052 -0.5422 -2.5220
  208ccc     H4 6099   8.892   4.736   9.635 -1.2121  1.6710 -1.7931
  208ccc     H5 6100   8.923   4.450   9.728 -0.1098  0.8029  0.9984
  208ccc     O1 6101   8.764   4.322   9.700 -0.5391  0.4898 -0.1036
  208ccc     O2 6102   8.815   4.520   9.495 -0.1692 -0.0180  0.0853
  208ccc     O3 6103   8.715   4.803   9.583 -0.2116  0.2631  0.2719
  208ccc     O4 6104   8.626   4.757   9.847  0.1959 -0.9375  0.0159
  208ccc     C6 6105   8.799   4.648  10.048  0.2040 -0.3586 -0.2380
  208ccc     H6 6106   8.767   4.885   9.590 -1.3826  1.2168 -1.4112
  208ccc     H7 6107   8.569   4.679   9.839 -3.4261  1.3959  0.9377
  208ccc     H8 6108   8.825   4.607   9.453 -1.3824  0.8992  1.5657
  208ccc     H9 6109   8.698   4.619  10.080 -0.1047  0.3470 -0.5498
  208ccc    H10 6110   8.817   4.754  10.066  1.9413 -1.0405  2.5499
  208ccc     O5 6111   8.892   4.581  10.134  0.1347 -0.4644 -0.1480
  208ccc    H11 6112   8.861   4.490  10.116 -2.1698 -0.0715  1.3463
  208ccc     O6 6113   8.775   4.494   9.866  0.1911 -0.1990  0.3824
  209ccc     C1 6114   8.926   4.161  10.274 -0.3124  0.5184 -0.0665
  209ccc     C2 6115   8.876   4.035  10.203  0.5590 -0.1676  0.0452
  209ccc     H1 6116   9.021   4.134  10.323  0.8609  1.2254 -1.8487
  209ccc     H2 6117   8.952   3.995  10.133 -0.5744  0.8815 -1.8691
  209ccc     C3 6118   8.847   3.919  10.309 -0.7891 -0.1948  0.5024
  209ccc     C4 6119   8.766   3.967  10.434 -0.4673 -0.1780  0.6489
  209ccc     C5 6120   8.808   4.113  10.487 -0.1655  0.2114 -0.4897
  209ccc     H3 6121   8.662   3.984  10.402 -0.4826 -0.1427  0.7182
  209ccc     H4 6122   8.947   3.888  10.341  1.1391  1.1965 -3.5288
  209ccc     H5 6123   8.894   4.101  10.555 -1.6277 -0.5875  1.3099
  209ccc     O1 6124   8.694   4.175  10.561 -0.1217  0.1048  0.1723
  209ccc     O2 6125   8.768   3.869  10.534  0.2308  0.5391  0.1895
  209ccc     O3 6126   8.786   3.805  10.243 -0.1946  0.4477  0.3342
  209ccc     O4 6127   8.749   4.058  10.133 -0.0260 -0.1026 -0.1450
  209ccc     C6 6128   8.964   4.277  10.182  0.0816  0.2287 -0.3968
  209ccc     H6 6129   8.860   3.748  10.214  0.1207  0.6554  0.7195
  209ccc     H7 6130   8.706   3.971  10.138 -0.0212 -0.0620  0.6662
  209ccc     H8 6131   8.720   3.791  10.501 -0.0557  0.3765  0.9507
  209ccc     H9 6132   9.044   4.241  10.117  1.5462 -0.5195  1.7201
  209ccc    H10 6133   9.003   4.356  10.248 -1.3066  2.7822 -2.4217
  209ccc     O5 6134   8.850   4.326  10.120 -0.3750 -0.5375 -0.1154
  209ccc    H11 6135   8.801   4.243  10.127 -1.8539  0.1123 -1.8927
  209ccc     O6 6136   8.835   4.201  10.374  0.1645  0.5893  0.0838
  210ccc     C1 6137   8.481   4.899  11.111  0.1005  1.0770  0.2730
  210ccc     C2 6138   8.347   4.929  11.035 -0.4027  0.3028 -1.2175
  210ccc     H1 6139   8.560   4.954  11.059 -0.9409  1.2097 -1.2435
  210ccc     H2 6140   8.329   5.037  11.023 -3.3422  0.1107  0.4833
  210ccc     C3 6141   8.351   4.862  10.896 -0.4829 -0.4431  0.1940
  210ccc     C4 6142   8.375   4.712  10.900  0.6736  0.4223 -0.3611
  210ccc     C5 6143   8.504   4.685  10.974 -0.6638  0.4832  0.7487
  210ccc     H3 6144   8.295   4.666  10.961 -1.0786  0.3015 -2.6067
  210ccc     H4 6145   8.446   4.906  10.863  0.8507 -1.5258  2.3668
  210ccc     H5 6146   8.584   4.719  10.907 -0.3689  2.4072  2.0195
  210ccc     O1 6147   8.519   4.540  10.989 -0.1690 -0.1252 -0.0161
  210ccc     O2 6148   8.360   4.659  10.767  0.1743 -0.3751  0.6161
  210ccc     O3 6149   8.238   4.900  10.818  0.0604 -0.1139  0.2565
  210ccc     O4 6150   8.252   4.872  11.119  0.7149 -0.5872 -0.3543
  210ccc     C6 6151   8.497   4.926  11.272  0.0345 -0.7104 -0.3909
  210ccc     H6 6152   8.162   4.852  10.855 -1.4588  1.6577 -0.4073
  210ccc     H7 6153   8.296   4.881  11.205 -0.7003 -1.5282  0.5124
  210ccc     H8 6154   8.291   4.715  10.728  1.3713  0.4288 -0.3990
  210ccc     H9 6155   8.521   5.033  11.286 -2.7242 -0.3310  2.6416
  210ccc    H10 6156   8.578   4.861  11.307  1.5028  0.7902 -0.8710
  210ccc     O5 6157   8.372   4.895  11.342 -0.0635 -0.3915  0.2851
  210ccc    H11 6158   8.401   4.909  11.434 -0.7232 -0.2796  0.4753
  210ccc     O6 6159   8.506   4.751  11.103 -0.1913 -0.3794 -0.1652
  211ccc     C1 6160   6.981   3.157   9.736  0.1381  0.5336 -0.0470
  211ccc     C2 6161   7.064   3.240   9.837 -0.0030 -0.0122 -0.3891
  211ccc     H1 6162   6.881   3.195   9.758  0.9457  2.3777  0.6627
  211ccc     H2 6163   7.044   3.345   9.815  2.5232  0.4203 -0.8985
  211ccc     C3 6164   7.031   3.195   9.976  0.2182 -0.4071  0.2745
  211ccc     C4 6165   7.033   3.039   9.995  0.2562  0.2839  0.0211
  211ccc     C5 6166   6.956   2.964   9.884 -0.2859 -0.2159  0.2911
  211ccc     H3 6167   7.137   3.014   9.969  0.0291  1.8486 -2.7227
  211ccc     H4 6168   6.926   3.215  10.001 -0.3296 -2.0257 -0.5867
  211ccc     H5 6169   6.848   2.970   9.899 -0.4546 -0.6572 -0.6769
  211ccc     O1 6170   6.989   2.829   9.890  0.0525  0.0594  0.7046
  211ccc     O2 6171   6.979   2.994  10.131  0.1752 -0.8015  1.1021
  211ccc     O3 6172   7.122   3.263  10.062  0.0462 -0.0599  0.0132
  211ccc     O4 6173   7.203   3.216   9.813  0.2683  0.6076 -0.2973
  211ccc     C6 6174   7.015   3.187   9.592  0.0482 -0.7452 -0.6633
  211ccc     H6 6175   7.212   3.242  10.033  0.5535  0.1273  1.3895
  211ccc     H7 6176   7.195   3.202   9.718 -0.2750 -2.1758  0.0856
  211ccc     H8 6177   7.022   2.907  10.127  2.5075  0.3060 -0.3849
  211ccc     H9 6178   7.017   3.296   9.581 -0.0797 -0.6209  0.4359
  211ccc    H10 6179   6.939   3.147   9.524 -0.9246 -0.2456  0.1123
  211ccc     O5 6180   7.147   3.146   9.570 -0.4717 -0.1932 -0.0041
  211ccc    H11 6181   7.156   3.110   9.480 -0.7383 -0.2946  0.0084
  211ccc     O6 6182   7.005   3.017   9.761  0.3360 -0.1814 -0.1272
  212ccc     C1 6183   7.397   1.977   9.273 -0.0906 -0.1552  0.4743
  212ccc     C2 6184   7.451   1.858   9.355  0.1990 -0.2194  1.1127
  212ccc     H1 6185   7.482   2.006   9.209 -0.9652  2.0602  0.2126
  212ccc     H2 6186   7.500   1.783   9.292 -0.1460  0.5444 -0.0928
  212ccc     C3 6187   7.547   1.898   9.461 -0.2090  0.2713 -0.3311
  212ccc     C4 6188   7.483   2.013   9.546  0.0638  0.3441  0.3222
  212ccc     C5 6189   7.433   2.127   9.454  0.4518 -0.4107  0.0371
  212ccc     H3 6190   7.395   1.973   9.598 -0.8797  2.0031  0.0492
  212ccc     H4 6191   7.635   1.939   9.409 -0.2190  1.2057  0.3661
  212ccc     H5 6192   7.516   2.165   9.393  0.5560 -0.5330  0.1015
  212ccc     O1 6193   7.369   2.232   9.538  0.4724  0.3023 -0.1627
  212ccc     O2 6194   7.592   2.046   9.642  0.0030 -0.7981 -0.0995
  212ccc     O3 6195   7.574   1.789   9.549 -0.8497  0.4920 -0.0429
  212ccc     O4 6196   7.346   1.780   9.413  0.1195  0.6683 -0.1727
  212ccc     C6 6197   7.300   1.926   9.159 -0.7415 -0.2854  0.0706
  212ccc     H6 6198   7.655   1.807   9.598  0.3459 -1.0742 -1.3375
  212ccc     H7 6199   7.395   1.735   9.484  0.0350 -0.2488 -0.6766
  212ccc     H8 6200   7.538   2.062   9.722  0.9746 -0.9239  0.6033
  212ccc     H9 6201   7.214   1.876   9.206 -1.4264  0.7245 -0.0794
  212ccc    H10 6202   7.344   1.856   9.088  0.6567  0.4374  0.1934
  212ccc     O5 6203   7.258   2.040   9.080 -0.3379 -0.0114  0.0238
  212ccc    H11 6204   7.176   2.064   9.125  0.8204  2.3116  1.0552
  212ccc     O6 6205   7.340   2.072   9.362 -0.1426  0.1464  0.5778
  213ccc     C1 6206   8.872   3.432   9.164  0.0035  0.5458  0.5589
  213ccc     C2 6207   8.930   3.425   9.309 -0.9857 -0.6064 -0.3896
  213ccc     H1 6208   8.890   3.534   9.129  0.2633  0.7554  1.2772
  213ccc     H2 6209   9.037   3.448   9.305 -1.3130  0.8722 -1.1814
  213ccc     C3 6210   8.868   3.544   9.384  0.1036 -1.0475  0.0322
  213ccc     C4 6211   8.713   3.554   9.380  0.4016  0.5985 -0.4180
  213ccc     C5 6212   8.664   3.539   9.233  0.4151 -1.1650  0.0432
  213ccc     H3 6213   8.669   3.475   9.442 -0.4653  1.2867 -0.1409
  213ccc     H4 6214   8.909   3.622   9.319  0.4688 -1.1942  0.0837
  213ccc     H5 6215   8.699   3.626   9.175  2.2089 -1.3325  0.8065
  213ccc     O1 6216   8.518   3.530   9.224  0.6838  0.1644  0.4282
  213ccc     O2 6217   8.688   3.683   9.436  0.3074 -0.2655  0.3272
  213ccc     O3 6218   8.919   3.563   9.518 -0.3362 -0.1210 -0.0940
  213ccc     O4 6219   8.895   3.306   9.368 -0.0591 -0.5108 -0.0777
  213ccc     C6 6220   8.933   3.332   9.078  0.3290  0.3170  0.4389
  213ccc     H6 6221   8.998   3.619   9.513  2.1782 -3.2427  1.1621
  213ccc     H7 6222   8.955   3.294   9.443 -0.7983  1.7614  0.9684
  213ccc     H8 6223   8.748   3.677   9.513  0.6983  0.0674  0.0462
  213ccc     H9 6224   8.909   3.227   9.098  2.8048 -0.6015 -0.9334
  213ccc    H10 6225   9.043   3.337   9.079  0.5366  1.5653 -4.1507
  213ccc     O5 6226   8.887   3.363   8.950  0.5565  0.2932 -0.0473
  213ccc    H11 6227   8.818   3.429   8.972 -0.4532 -0.8490  0.3055
  213ccc     O6 6228   8.728   3.422   9.174 -0.5082  0.1033 -1.1113
  214ccc     C1 6229   8.360   2.938   8.656  0.2174 -0.7896 -0.1349
  214ccc     C2 6230   8.475   2.846   8.687  0.1131 -0.9420 -0.6030
  214ccc     H1 6231   8.403   3.029   8.611  2.5258 -2.0534 -0.6282
  214ccc     H2 6232   8.531   2.822   8.596 -0.8085 -0.8970 -1.1975
  214ccc     C3 6233   8.570   2.918   8.790 -0.3560 -0.0139  0.6875
  214ccc     C4 6234   8.493   2.962   8.915  0.1572  0.3464  0.6094
  214ccc     C5 6235   8.372   3.042   8.869  0.2275 -0.2652 -0.3263
  214ccc     H3 6236   8.447   2.873   8.961 -1.4622  0.2720 -1.0362
  214ccc     H4 6237   8.601   3.006   8.733  2.5326 -0.9726  0.6142
  214ccc     H5 6238   8.421   3.124   8.815  1.4000 -0.2796  0.6803
  214ccc     O1 6239   8.305   3.081   8.993 -0.2439  0.1355 -0.1357
  214ccc     O2 6240   8.579   3.025   9.014 -0.7350  0.2874  0.0177
  214ccc     O3 6241   8.686   2.837   8.833  0.1898 -0.4017  0.1122
  214ccc     O4 6242   8.433   2.725   8.741  0.2961 -0.3208  0.2390
  214ccc     C6 6243   8.274   2.881   8.542 -0.1570  0.3307 -0.1080
  214ccc     H6 6244   8.763   2.866   8.780  0.8946  0.2603  1.4643
  214ccc     H7 6245   8.512   2.703   8.793  0.8743 -0.8065 -0.8015
  214ccc     H8 6246   8.639   2.954   9.043  0.1055  0.2606 -1.7012
  214ccc     H9 6247   8.231   2.787   8.581 -0.2943  0.0626 -0.8855
  214ccc    H10 6248   8.337   2.850   8.458  0.9449 -0.5092  0.9796
  214ccc     O5 6249   8.165   2.962   8.512 -0.2845 -0.4487 -0.8263
  214ccc    H11 6250   8.117   2.911   8.444  1.0736 -0.3466 -1.9122
  214ccc     O6 6251   8.287   2.969   8.777  0.2457 -0.0241 -0.2259
  215ccc     C1 6252   6.779   5.623   8.849  0.0332  1.1977 -0.1917
  215ccc     C2 6253   6.674   5.609   8.739  0.4802  0.8944  0.6559
  215ccc     H1 6254   6.827   5.525   8.861 -2.3630 -0.0256 -0.1230
  215ccc     H2 6255   6.713   5.550   8.655 -1.6262 -2.3756  1.8016
  215ccc     C3 6256   6.561   5.512   8.774  0.7213 -0.4089 -0.3036
  215ccc     C4 6257   6.497   5.564   8.907  0.5989  0.2175 -0.3257
  215ccc     C5 6258   6.605   5.580   9.012  0.3651  0.2315  0.1657
  215ccc     H3 6259   6.445   5.660   8.890  2.2978  1.2922  0.2797
  215ccc     H4 6260   6.605   5.412   8.780  2.2073  0.2462  0.4748
  215ccc     H5 6261   6.652   5.483   9.033  1.8301  0.3105 -2.3923
  215ccc     O1 6262   6.549   5.643   9.129  0.1079  0.3027 -0.1267
  215ccc     O2 6263   6.402   5.472   8.959 -0.3940  0.0233 -0.0761
  215ccc     O3 6264   6.458   5.532   8.679 -0.5411 -0.7912  0.0906
  215ccc     O4 6265   6.625   5.741   8.703 -0.4675  0.4144  0.1294
  215ccc     C6 6266   6.883   5.733   8.809 -0.3040  0.3084 -0.7175
  215ccc     H6 6267   6.421   5.442   8.675 -0.2457 -0.9518  0.8264
  215ccc     H7 6268   6.537   5.722   8.666 -0.6588  1.1090  0.2335
  215ccc     H8 6269   6.318   5.522   8.961 -0.6748 -0.4569  0.2950
  215ccc     H9 6270   6.832   5.827   8.785  0.1976  0.9469  0.6251
  215ccc    H10 6271   6.945   5.710   8.722  1.0823  0.2439  0.2473
  215ccc     O5 6272   6.971   5.745   8.919 -0.2824  0.0146 -0.4189
  215ccc    H11 6273   6.908   5.763   8.990  2.3398  1.6262  1.7000
  215ccc     O6 6274   6.710   5.669   8.963  0.4582  0.8347 -0.5575
  216ccc     C1 6275   6.327   6.140  10.126  0.3277  0.4137 -0.6007
  216ccc     C2 6276   6.225   6.253  10.086 -0.3904  0.0328 -0.4681
  216ccc     H1 6277   6.410   6.193  10.174 -0.4853 -0.0780  1.4929
  216ccc     H2 6278   6.229   6.318  10.174 -0.3136 -1.4020  0.6278
  216ccc     C3 6279   6.283   6.334   9.969 -0.6982  0.4436 -0.3952
  216ccc     C4 6280   6.311   6.230   9.853 -0.3828  0.0186 -0.0052
  216ccc     C5 6281   6.404   6.107   9.893  0.0681 -0.4458  0.5982
  216ccc     H3 6282   6.217   6.176   9.834  0.2786 -0.5082 -2.0471
  216ccc     H4 6283   6.380   6.374  10.000 -0.7671 -0.3744  0.9563
  216ccc     H5 6284   6.505   6.143   9.913 -0.3245  0.6780  0.5938
  216ccc     O1 6285   6.397   6.009   9.791  0.3729  0.2064  0.4691
  216ccc     O2 6286   6.360   6.297   9.731 -0.4042 -0.1543  0.0262
  216ccc     O3 6287   6.190   6.435   9.927  0.5381  0.1192 -0.1174
  216ccc     O4 6288   6.096   6.208  10.069 -0.0672 -0.0588  0.0579
  216ccc     C6 6289   6.258   6.057  10.243  0.0634 -0.2784  0.0874
  216ccc     H6 6290   6.252   6.504   9.897  1.7005 -1.0348 -0.4518
  216ccc     H7 6291   6.051   6.292  10.051 -0.7604 -0.0023  1.8962
  216ccc     H8 6292   6.328   6.247   9.654  1.6873 -0.9571 -0.3959
  216ccc     H9 6293   6.173   5.995  10.212  0.4290 -0.6528 -0.1776
  216ccc    H10 6294   6.218   6.123  10.321  0.6316 -2.0638  1.9811
  216ccc     O5 6295   6.358   5.971  10.294 -0.0749 -0.4837  0.1067
  216ccc    H11 6296   6.428   6.033  10.319 -0.1948  0.8250 -2.4823
  216ccc     O6 6297   6.351   6.051  10.013 -0.1295 -0.4095  0.4114
  217ccc     C1 6298   5.696   6.107  10.228  0.2955 -0.2291 -0.4840
  217ccc     C2 6299   5.620   6.242  10.230 -0.0509  0.3113  0.2105
  217ccc     H1 6300   5.667   6.047  10.141 -0.7922 -0.6357  0.1396
  217ccc     H2 6301   5.650   6.299  10.141  0.1545 -1.3447 -0.8332
  217ccc     C3 6302   5.467   6.228  10.232 -0.3749 -0.7199  0.6879
  217ccc     C4 6303   5.423   6.130  10.342 -0.1407  0.1959  0.2912
  217ccc     C5 6304   5.502   5.997  10.342  0.4090  0.5082  0.3229
  217ccc     H3 6305   5.434   6.176  10.441  0.1304 -2.6143  1.6794
  217ccc     H4 6306   5.435   6.181  10.138 -0.5232  1.2445 -0.2978
  217ccc     H5 6307   5.473   5.939  10.254  1.2029 -0.1855  0.5037
  217ccc     O1 6308   5.469   5.933  10.473  0.5487  0.4213  0.3627
  217ccc     O2 6309   5.285   6.094  10.316 -0.2030  0.5400 -0.3258
  217ccc     O3 6310   5.400   6.355  10.257 -0.2111 -0.4452  0.2030
  217ccc     O4 6311   5.661   6.307  10.348 -0.0978  0.0574  0.5321
  217ccc     C6 6312   5.847   6.116  10.222  0.6022 -0.3316  0.1330
  217ccc     H6 6313   5.445   6.416  10.197 -0.4430  0.1792  0.6564
  217ccc     H7 6314   5.645   6.403  10.349  1.1782  0.2782  0.4412
  217ccc     H8 6315   5.241   6.143  10.388 -1.3545 -1.3093  0.3078
  217ccc     H9 6316   5.882   6.079  10.319  1.9577  1.2964  0.3236
  217ccc    H10 6317   5.884   6.220  10.224 -0.6084  0.0911  1.6243
  217ccc     O5 6318   5.902   6.036  10.118 -0.2386  0.1068 -0.5841
  217ccc    H11 6319   5.972   6.096  10.087 -1.8202  2.4350  0.0952
  217ccc     O6 6320   5.646   6.028  10.342 -0.0017 -0.1787 -0.0361
  218ccc     C1 6321   5.150   5.437  10.657  0.1601  0.2617  0.5314
  218ccc     C2 6322   5.116   5.557  10.751  0.9074  0.2749  0.1139
  218ccc     H1 6323   5.122   5.343  10.706  1.5528 -0.0886  0.6727
  218ccc     H2 6324   5.016   5.556  10.796  0.9584 -0.9862  0.2217
  218ccc     C3 6325   5.207   5.543  10.883 -0.7137 -0.2551  0.2951
  218ccc     C4 6326   5.357   5.509  10.861  0.0469  0.2557  0.4565
  218ccc     C5 6327   5.376   5.392  10.751 -0.0572  0.6752  0.4732
  218ccc     H3 6328   5.402   5.602  10.823 -1.3235  0.4080 -0.9198
  218ccc     H4 6329   5.174   5.453  10.937  3.5524 -3.0292 -1.1788
  218ccc     H5 6330   5.350   5.293  10.790  1.0656  0.2124  0.0826
  218ccc     O1 6331   5.514   5.397  10.715 -0.0438 -0.4050  0.1970
  218ccc     O2 6332   5.428   5.467  10.985 -0.5617  0.4093 -0.1705
  218ccc     O3 6333   5.199   5.660  10.969 -0.4035 -0.4504 -0.0305
  218ccc     O4 6334   5.145   5.677  10.680 -0.3758  0.1727  0.0125
  218ccc     C6 6335   5.087   5.443  10.514  0.0371 -0.0045  0.6595
  218ccc     H6 6336   5.287   5.703  10.962 -0.8970  0.3986 -1.8563
  218ccc     H7 6337   5.131   5.650  10.588 -1.9523 -1.0005  0.5584
  218ccc     H8 6338   5.389   5.396  11.038  1.2767 -1.1000 -0.7058
  218ccc     H9 6339   4.979   5.443  10.537 -0.0111  3.0187  0.8764
  218ccc    H10 6340   5.116   5.356  10.454 -0.6838 -0.7583  1.3762
  218ccc     O5 6341   5.125   5.567  10.449  0.1459 -0.2930  0.0666
  218ccc    H11 6342   5.202   5.529  10.403  0.1516 -2.0912  1.4206
  218ccc     O6 6343   5.295   5.432  10.636 -0.1553 -0.0189 -0.0040
  219ccc     C1 6344   8.051   4.456   9.764  0.1733  0.7299 -0.7439
  219ccc     C2 6345   8.151   4.402   9.660  0.5563  0.1965  0.0205
  219ccc     H1 6346   7.950   4.426   9.736 -0.0683  1.0801 -0.2659
  219ccc     H2 6347   8.137   4.294   9.654  1.1012  0.1973 -2.0390
  219ccc     C3 6348   8.119   4.471   9.523 -0.1165  0.1631 -0.1909
  219ccc     C4 6349   8.138   4.622   9.528 -0.3775  0.1561 -0.3987
  219ccc     C5 6350   8.050   4.668   9.646  0.2413  0.1044 -0.2294
  219ccc     H3 6351   8.240   4.645   9.561 -0.2441 -1.7704  0.6550
  219ccc     H4 6352   8.011   4.452   9.516  0.0838 -1.4979  0.6641
  219ccc     H5 6353   7.946   4.646   9.619  0.8484 -2.0344 -0.9761
  219ccc     O1 6354   8.062   4.820   9.658 -0.0263 -0.0852 -0.0398
  219ccc     O2 6355   8.093   4.679   9.402  0.2008  0.1235  0.7741
  219ccc     O3 6356   8.178   4.426   9.404 -0.4367  0.4480  0.5862
  219ccc     O4 6357   8.282   4.432   9.705 -0.3792 -0.2494  0.0598
  219ccc     C6 6358   8.078   4.394   9.904 -0.0143 -0.1708 -0.8160
  219ccc     H6 6359   8.134   4.343   9.376  2.2151 -1.7836  2.4992
  219ccc     H7 6360   8.349   4.406   9.639 -0.1784  1.4647 -0.4640
  219ccc     H8 6361   8.082   4.594   9.357 -1.5047  0.9268 -0.4109
  219ccc     H9 6362   8.186   4.393   9.925 -0.4407 -0.1910  1.5999
  219ccc    H10 6363   8.035   4.294   9.904 -1.0001  0.1767  1.4961
  219ccc     O5 6364   7.999   4.463  10.005  0.4509 -0.0298  0.1829
  219ccc    H11 6365   8.045   4.546  10.027 -2.6851  1.4332  1.9450
  219ccc     O6 6366   8.077   4.597   9.771 -0.0630 -0.2628 -0.0305
  220ccc     C1 6367   8.052   4.916   8.925  0.3588 -1.0963 -0.1084
  220ccc     C2 6368   8.018   5.042   8.847 -0.3304 -0.6525  0.8630
  220ccc     H1 6369   8.028   4.825   8.869  0.7777 -1.0666 -0.3402
  220ccc     H2 6370   8.069   5.040   8.750 -0.5683 -1.3170  0.7456
  220ccc     C3 6371   7.866   5.057   8.821  0.2571 -0.4254 -0.1812
  220ccc     C4 6372   7.794   5.059   8.963  0.4263  0.9066 -0.2997
  220ccc     C5 6373   7.826   4.931   9.039  0.1193  0.4456  0.4753
  220ccc     H3 6374   7.851   5.133   9.019  2.9056 -0.7094 -0.5385
  220ccc     H4 6375   7.837   4.965   8.768  0.0226  1.0785 -2.8771
  220ccc     H5 6376   7.779   4.839   9.002 -0.9183  1.0113  0.3409
  220ccc     O1 6377   7.792   4.955   9.184  0.2557  0.8783 -0.0800
  220ccc     O2 6378   7.651   5.072   8.958  0.3061  1.0494 -0.1239
  220ccc     O3 6379   7.843   5.170   8.730  0.3089 -0.4490 -0.3648
  220ccc     O4 6380   8.069   5.148   8.924  0.2108  0.0044  0.3717
  220ccc     C6 6381   8.201   4.905   8.970 -0.6934 -0.1489 -0.3527
  220ccc     H6 6382   7.758   5.213   8.748  1.2598  1.9490 -1.1443
  220ccc     H7 6383   8.126   5.094   8.982  0.0067 -1.4965 -0.7699
  220ccc     H8 6384   7.631   5.121   9.039  3.9605  0.0306  1.6178
  220ccc     H9 6385   8.243   4.919   8.870  0.1426  1.4831  0.1931
  220ccc    H10 6386   8.227   4.804   9.003  2.0572  0.4918 -0.3648
  220ccc     O5 6387   8.248   4.989   9.073  0.0153 -0.1237  0.0230
  220ccc    H11 6388   8.246   4.939   9.157 -0.7146  0.4812  0.3777
  220ccc     O6 6389   7.972   4.918   9.046  0.4292 -0.2275 -0.0577
  221ccc     C1 6390   7.142   5.775   9.562 -0.0449  0.1058 -0.3037
  221ccc     C2 6391   7.085   5.756   9.701  0.0972  0.4961 -0.9596
  221ccc     H1 6392   7.070   5.846   9.518 -2.1304 -2.6556 -1.6172
  221ccc     H2 6393   7.091   5.848   9.760  3.7103  0.6360 -1.3350
  221ccc     C3 6394   6.945   5.686   9.700  0.2393 -0.5063 -0.0075
  221ccc     C4 6395   6.927   5.574   9.595 -0.5195  0.3300  0.4397
  221ccc     C5 6396   6.994   5.612   9.454  0.4045 -0.3305 -0.6176
  221ccc     H3 6397   6.977   5.487   9.638  0.0422  0.6629  0.4740
  221ccc     H4 6398   6.869   5.758   9.667 -0.5167 -0.0943  2.4399
  221ccc     H5 6399   6.938   5.690   9.401 -0.0848  1.5101  2.3346
  221ccc     O1 6400   6.995   5.495   9.374 -0.2636  0.0047 -0.1912
  221ccc     O2 6401   6.789   5.542   9.571 -0.4646  0.1677 -0.4102
  221ccc     O3 6402   6.915   5.634   9.835  0.0924 -0.1422  0.2243
  221ccc     O4 6403   7.183   5.668   9.755  0.4349  0.3123 -0.0524
  221ccc     C6 6404   7.282   5.832   9.550 -0.5708 -0.4160  0.2807
  221ccc     H6 6405   6.860   5.557   9.813  0.1353  0.4227 -2.1826
  221ccc     H7 6406   7.254   5.683   9.690  0.0711  0.8648 -0.3280
  221ccc     H8 6407   6.781   5.454   9.529 -0.0603 -0.9817  1.7559
  221ccc     H9 6408   7.284   5.922   9.612 -0.9022  0.6005 -1.1205
  221ccc    H10 6409   7.300   5.855   9.444 -2.2877 -3.3151 -0.7435
  221ccc     O5 6410   7.370   5.744   9.605 -0.2576  0.5056  0.5500
  221ccc    H11 6411   7.458   5.784   9.595  0.2227 -0.4316  0.8972
  221ccc     O6 6412   7.130   5.657   9.479 -0.1403  0.0576 -0.3988
  222ccc     C1 6413   6.628   4.720   9.528  0.0474  0.3865  0.0945
  222ccc     C2 6414   6.646   4.755   9.676 -0.2476 -0.2878  0.4970
  222ccc     H1 6415   6.662   4.616   9.516 -2.2364 -0.7984  2.5974
  222ccc     H2 6416   6.625   4.667   9.738 -2.0014  0.8828  1.6801
  222ccc     C3 6417   6.794   4.803   9.708  0.5512 -0.5963  1.1919
  222ccc     C4 6418   6.842   4.907   9.600  0.7550 -0.4411 -0.2018
  222ccc     C5 6419   6.836   4.839   9.464  0.3298  0.3233 -0.8743
  222ccc     H3 6420   6.780   4.997   9.595  0.0460 -0.9862 -2.0379
  222ccc     H4 6421   6.859   4.716   9.696  0.2177 -1.0237  2.3409
  222ccc     H5 6422   6.886   4.742   9.466  1.8159  0.9904 -2.7060
  222ccc     O1 6423   6.901   4.927   9.374  0.2598 -0.0313 -0.2133
  222ccc     O2 6424   6.983   4.938   9.634 -0.4360 -0.1514  0.0902
  222ccc     O3 6425   6.815   4.851   9.846  0.2353 -0.0123  0.4500
  222ccc     O4 6426   6.556   4.861   9.719  0.2233  0.0095 -0.0396
  222ccc     C6 6427   6.476   4.710   9.491 -0.5209 -0.5783 -0.3621
  222ccc     H6 6428   6.843   4.766   9.885  0.2927 -0.5269 -0.6739
  222ccc     H7 6429   6.475   4.816   9.747  0.3588  0.1035  0.5069
  222ccc     H8 6430   7.023   4.859   9.676 -0.5078  0.2795  1.0025
  222ccc     H9 6431   6.417   4.801   9.508  0.0018 -0.0077 -1.5153
  222ccc    H10 6432   6.428   4.624   9.541 -0.3674 -0.6180 -0.2821
  222ccc     O5 6433   6.473   4.683   9.349  0.2191 -0.2797 -0.3373
  222ccc    H11 6434   6.484   4.766   9.299 -2.1226 -0.1484 -0.7775
  222ccc     O6 6435   6.697   4.822   9.447 -0.5004  0.2515  0.5774
  223ccc     C1 6436   2.660   3.351   8.875  0.0186 -0.1644  0.2797
  223ccc     C2 6437   2.621   3.304   8.735  0.0452 -0.1474  0.0464
  223ccc     H1 6438   2.632   3.274   8.948  0.6568  0.7290  1.5141
  223ccc     H2 6439   2.664   3.206   8.708  0.4448  0.3219 -1.0651
  223ccc     C3 6440   2.463   3.300   8.715 -0.5540 -0.8363 -0.2800
  223ccc     C4 6441   2.394   3.430   8.767  0.1822  0.9796 -0.3184
  223ccc     C5 6442   2.452   3.479   8.903 -0.4870 -0.0144  0.1417
  223ccc     H3 6443   2.426   3.517   8.708 -0.4077  1.2381 -0.2657
  223ccc     H4 6444   2.420   3.215   8.769  0.8262 -1.9426 -0.8849
  223ccc     H5 6445   2.418   3.408   8.980  0.7943 -2.0715 -1.1080
  223ccc     O1 6446   2.399   3.613   8.939  0.6340 -1.1536  0.0352
  223ccc     O2 6447   2.252   3.399   8.767  0.4399  0.2439 -0.0741
  223ccc     O3 6448   2.439   3.277   8.572 -0.2632 -0.0650 -0.0798
  223ccc     O4 6449   2.657   3.405   8.641 -0.2567 -0.2989 -0.4204
  223ccc     C6 6450   2.818   3.353   8.881  0.6223 -0.0724 -0.9522
  223ccc     H6 6451   2.380   3.200   8.564 -0.5034  0.0694  0.3401
  223ccc     H7 6452   2.588   3.378   8.578 -1.6447  1.2331  0.4067
  223ccc     H8 6453   2.231   3.374   8.675  0.5879 -0.5182  0.0909
  223ccc     H9 6454   2.869   3.405   8.799  1.2787  1.2522  0.2597
  223ccc    H10 6455   2.853   3.249   8.877 -3.1494 -1.5429  0.0735
  223ccc     O5 6456   2.848   3.415   9.004 -0.3101  0.0860  0.7704
  223ccc    H11 6457   2.776   3.402   9.068  0.3368  0.4485  1.6000
  223ccc     O6 6458   2.599   3.479   8.906 -0.1144  0.3711  0.1039
  224ccc     C1 6459   3.077   4.008   8.340 -0.2869 -0.0061 -0.6095
  224ccc     C2 6460   3.204   4.083   8.385 -0.8158 -0.0753 -0.1619
  224ccc     H1 6461   3.028   4.055   8.254  1.0678 -2.6446 -2.9777
  224ccc     H2 6462   3.276   4.089   8.303  1.0140  0.6549  1.4246
  224ccc     C3 6463   3.176   4.233   8.428 -0.7787  0.0833 -0.6194
  224ccc     C4 6464   3.069   4.234   8.540  0.5763  0.2497  0.6134
  224ccc     C5 6465   2.946   4.154   8.500  1.1183 -0.0148  0.0822
  224ccc     H3 6466   3.107   4.189   8.633  1.3830 -0.4753 -0.0592
  224ccc     H4 6467   3.132   4.288   8.344 -0.5250  0.5723 -0.4340
  224ccc     H5 6468   2.891   4.202   8.418 -1.0339 -4.3397 -1.3280
  224ccc     O1 6469   2.869   4.138   8.616  0.2472  0.2721  0.0497
  224ccc     O2 6470   3.033   4.373   8.561 -0.5529  0.1052 -0.2249
  224ccc     O3 6471   3.301   4.301   8.472  0.6296 -0.4069  0.0905
  224ccc     O4 6472   3.269   4.015   8.487 -0.4021  0.5634 -0.0595
  224ccc     C6 6473   3.096   3.862   8.300 -0.1293  0.0081 -0.1862
  224ccc     H6 6474   3.335   4.259   8.553  0.6554 -1.4352 -0.4403
  224ccc     H7 6475   3.239   3.922   8.484  1.3727 -0.1139  1.3900
  224ccc     H8 6476   2.994   4.360   8.649 -0.5505  1.5763  0.0157
  224ccc     H9 6477   3.177   3.856   8.227 -0.5273  0.1998 -0.6490
  224ccc    H10 6478   3.009   3.824   8.245 -1.6085  2.4742  0.2846
  224ccc     O5 6479   3.119   3.795   8.419 -0.6735 -0.3750 -0.2725
  224ccc    H11 6480   3.042   3.827   8.468  1.4923  0.2125  3.1007
  224ccc     O6 6481   2.982   4.015   8.451  0.3301 -0.4320  0.3641
  225ccc     C1 6482   3.267   4.917   8.338  0.3646 -0.3513 -0.2190
  225ccc     C2 6483   3.272   4.778   8.271  0.5061  0.1243  0.0614
  225ccc     H1 6484   3.365   4.926   8.388  0.8204  0.8346 -1.2675
  225ccc     H2 6485   3.356   4.779   8.200  0.8039  0.8142  0.4143
  225ccc     C3 6486   3.279   4.652   8.371 -0.8794 -0.7534  0.3655
  225ccc     C4 6487   3.184   4.667   8.495 -0.5036 -0.0401 -0.3258
  225ccc     C5 6488   3.177   4.809   8.551  0.1111 -0.3736  0.2159
  225ccc     H3 6489   3.086   4.634   8.458 -0.4606 -0.2386 -0.2626
  225ccc     H4 6490   3.380   4.654   8.413  0.3902 -1.5128 -2.4409
  225ccc     H5 6491   3.268   4.829   8.610 -0.9577 -1.0748  2.2064
  225ccc     O1 6492   3.063   4.817   8.646 -0.0349 -0.8529 -0.0316
  225ccc     O2 6493   3.223   4.570   8.600 -0.4029 -0.1180 -0.2475
  225ccc     O3 6494   3.252   4.524   8.300  0.3734 -0.2661  0.0293
  225ccc     O4 6495   3.149   4.763   8.208 -0.1118 -0.0797  0.0172
  225ccc     C6 6496   3.231   5.042   8.251  0.1638 -0.2504  0.0358
  225ccc     H6 6497   3.280   4.456   8.365  0.7526  0.9702  1.2121
  225ccc     H7 6498   3.124   4.857   8.204  3.1317  0.8760 -1.0654
  225ccc     H8 6499   3.179   4.491   8.565  1.9228 -2.3471  1.5596
  225ccc     H9 6500   3.314   5.061   8.181  0.5367 -1.0930  0.2351
  225ccc    H10 6501   3.225   5.133   8.311 -2.0387  0.4316 -1.1101
  225ccc     O5 6502   3.116   5.009   8.173 -0.2327  0.1096 -0.3248
  225ccc    H11 6503   3.094   5.090   8.122  0.9979 -0.4740 -1.9008
  225ccc     O6 6504   3.168   4.912   8.443  0.0446  0.1327 -0.1713
  226ccc     C1 6505   2.722   4.296   8.206  0.3570 -0.2640 -0.4815
  226ccc     C2 6506   2.848   4.334   8.124  0.4070  0.3995 -0.6532
  226ccc     H1 6507   2.629   4.334   8.161 -0.8546  0.5433  2.4125
  226ccc     H2 6508   2.838   4.313   8.017 -0.2975  1.3748 -0.7944
  226ccc     C3 6509   2.875   4.485   8.134  0.2265 -0.1412  0.1827
  226ccc     C4 6510   2.887   4.527   8.280 -0.0467 -0.0405  0.1444
  226ccc     C5 6511   2.757   4.488   8.357  0.0463 -0.8645  0.8673
  226ccc     H3 6512   2.964   4.466   8.329  1.0873  0.0095 -1.4981
  226ccc     H4 6513   2.787   4.536   8.093 -1.3693 -1.4212  1.8405
  226ccc     H5 6514   2.671   4.535   8.307  0.5235  0.3118  1.1063
  226ccc     O1 6515   2.771   4.516   8.504  0.1286  0.2170  0.1296
  226ccc     O2 6516   2.924   4.669   8.288 -0.0825  0.3011 -0.2420
  226ccc     O3 6517   2.987   4.521   8.046  0.4696 -0.0111 -0.0626
  226ccc     O4 6518   2.953   4.258   8.187 -0.5157 -0.5847 -0.1770
  226ccc     C6 6519   2.705   4.142   8.211 -0.3614  0.3127 -0.4576
  226ccc     H6 6520   3.060   4.458   8.056  0.4069  0.0358  0.7899
  226ccc     H7 6521   3.004   4.214   8.118  2.4843  2.4829 -0.1882
  226ccc     H8 6522   3.009   4.686   8.244 -0.3307  0.3103 -0.7192
  226ccc     H9 6523   2.786   4.086   8.259 -0.5676 -1.7807 -2.3873
  226ccc    H10 6524   2.710   4.104   8.109  0.7859 -0.6165 -0.0739
  226ccc     O5 6525   2.581   4.109   8.268  0.3723 -0.0953 -0.0467
  226ccc    H11 6526   2.520   4.117   8.193  1.8727  1.3517 -1.1768
  226ccc     O6 6527   2.731   4.348   8.348 -0.5180 -0.1421 -0.3143
  227ccc     C1 6528   4.674   3.494   8.346  1.1626  0.1374 -0.2499
  227ccc     C2 6529   4.769   3.384   8.397 -0.6222  0.0965 -0.3202
  227ccc     H1 6530   4.722   3.540   8.260  1.4408  1.1189  0.4163
  227ccc     H2 6531   4.772   3.308   8.318 -0.6948 -0.5255  0.2724
  227ccc     C3 6532   4.910   3.441   8.429  0.3674  1.2313  0.1405
  227ccc     C4 6533   4.902   3.568   8.518 -0.2713 -0.1144  0.7953
  227ccc     C5 6534   4.785   3.661   8.484 -0.3047 -0.3984 -0.1657
  227ccc     H3 6535   4.898   3.548   8.626  3.3002 -0.6862  0.9637
  227ccc     H4 6536   4.952   3.474   8.333  2.3879 -0.9040  0.1953
  227ccc     H5 6537   4.804   3.732   8.403  1.0061 -0.1198  0.3707
  227ccc     O1 6538   4.770   3.750   8.598  0.1164  0.2937 -0.3668
  227ccc     O2 6539   5.032   3.635   8.514 -0.1841 -0.0538  0.1198
  227ccc     O3 6540   4.996   3.336   8.484  0.2243  0.0100  0.4598
  227ccc     O4 6541   4.707   3.330   8.511  0.4071 -0.3172 -0.0492
  227ccc     C6 6542   4.535   3.456   8.305 -0.3589  0.5618  0.2285
  227ccc     H6 6543   5.085   3.359   8.453 -0.3925  1.6040 -0.2313
  227ccc     H7 6544   4.615   3.358   8.493 -0.4130 -3.8353 -2.2849
  227ccc     H8 6545   5.084   3.615   8.593  3.3154  0.8894 -1.7492
  227ccc     H9 6546   4.538   3.400   8.211 -2.4594  0.1492  0.3483
  227ccc    H10 6547   4.481   3.550   8.286 -0.8355  0.1711 -0.3847
  227ccc     O5 6548   4.462   3.377   8.397  0.1960 -0.2221 -0.2468
  227ccc    H11 6549   4.402   3.329   8.337  0.9251 -1.1834 -0.2295
  227ccc     O6 6550   4.662   3.588   8.461  0.6375  0.0017  0.2566
  228ccc     C1 6551   5.131   4.118   8.147  0.2107  0.4365 -0.0318
  228ccc     C2 6552   5.010   4.110   8.054  0.0633  0.2560  0.0178
  228ccc     H1 6553   5.205   4.050   8.104  1.0055  0.6803  0.9069
  228ccc     H2 6554   5.041   4.135   7.952 -2.7390  0.3297 -0.8933
  228ccc     C3 6555   4.945   3.965   8.061  0.3041  0.1349 -0.0622
  228ccc     C4 6556   4.899   3.933   8.207 -0.0759  0.0036 -0.5558
  228ccc     C5 6557   5.024   3.947   8.299  0.0523  0.1885  0.2076
  228ccc     H3 6558   4.828   4.010   8.242 -0.1254  0.1522 -0.9810
  228ccc     H4 6559   5.025   3.897   8.030  1.6526  1.4903  0.3306
  228ccc     H5 6560   5.099   3.870   8.276  0.6550  0.5819  0.8249
  228ccc     O1 6561   4.990   3.945   8.439  0.1143  0.0038 -0.0983
  228ccc     O2 6562   4.841   3.800   8.204 -0.5870  0.4957 -0.0261
  228ccc     O3 6563   4.827   3.946   7.984 -0.5739  0.3206  0.5199
  228ccc     O4 6564   4.916   4.204   8.097  0.5012 -0.9748 -0.2899
  228ccc     C6 6565   5.202   4.260   8.148  0.9895  0.3353 -0.0904
  228ccc     H6 6566   4.764   4.010   8.023 -1.3854  1.9381 -2.9569
  228ccc     H7 6567   4.886   4.244   8.014 -2.9214 -1.9361  0.3226
  228ccc     H8 6568   4.772   3.807   8.136  0.5308  0.8935 -1.1627
  228ccc     H9 6569   5.122   4.328   8.178  2.0100  0.9718  1.3423
  228ccc    H10 6570   5.228   4.284   8.045  0.9000  0.2257 -0.1393
  228ccc     O5 6571   5.312   4.254   8.243 -0.5277  0.9901 -0.1009
  228ccc    H11 6572   5.339   4.346   8.255  0.2562  0.7160  0.3441
  228ccc     O6 6573   5.082   4.074   8.278  0.0675 -0.2488  0.0593
  229ccc     C1 6574   4.370   3.784   8.037 -0.8633 -0.2284 -0.4232
  229ccc     C2 6575   4.499   3.864   8.035  0.0619 -0.4216 -0.1454
  229ccc     H1 6576   4.290   3.845   7.994 -1.8874 -0.4950  1.0312
  229ccc     H2 6577   4.523   3.899   7.933  0.3950 -0.2485 -0.0076
  229ccc     C3 6578   4.492   3.984   8.137 -0.7866 -0.2815 -0.2285
  229ccc     C4 6579   4.454   3.932   8.283 -0.4572 -0.0618  0.0806
  229ccc     C5 6580   4.329   3.849   8.281  0.3931 -0.1527  0.2669
  229ccc     H3 6581   4.531   3.862   8.317  1.0185  1.4972  0.1044
  229ccc     H4 6582   4.410   4.046   8.101  0.0059  0.3690 -0.9588
  229ccc     H5 6583   4.251   3.921   8.256  0.9792 -0.2848 -2.1912
  229ccc     O1 6584   4.305   3.787   8.407  0.6099 -0.2579 -0.5949
  229ccc     O2 6585   4.444   4.047   8.376 -0.4762 -0.3596 -0.2856
  229ccc     O3 6586   4.613   4.066   8.139  0.0464  0.6503  0.0827
  229ccc     O4 6587   4.600   3.775   8.075 -0.8677 -0.3061  0.2661
  229ccc     C6 6588   4.385   3.661   7.946  0.1922 -0.0847  0.1900
  229ccc     H6 6589   4.599   4.146   8.193  0.0188  0.7885 -0.1294
  229ccc     H7 6590   4.562   3.691   8.044  0.2508 -0.4379 -0.8032
  229ccc     H8 6591   4.519   4.108   8.371 -1.3361  1.2169  3.1474
  229ccc     H9 6592   4.423   3.694   7.848 -0.7005  0.9716  0.1724
  229ccc    H10 6593   4.282   3.624   7.936  0.3243 -0.7784  1.2614
  229ccc     O5 6594   4.469   3.567   8.006 -0.4034 -0.1168  0.5771
  229ccc    H11 6595   4.432   3.481   7.981 -1.9540  0.8183 -0.5573
  229ccc     O6 6596   4.328   3.745   8.176  0.5683 -0.4024 -0.2758
  230ccc     C1 6597   4.044   2.893   8.298 -0.0961 -0.2529 -0.5459
  230ccc     C2 6598   4.186   2.865   8.256 -0.0028  0.2484 -0.1613
  230ccc     H1 6599   3.997   2.931   8.206  0.6577 -1.9179 -1.6734
  230ccc     H2 6600   4.184   2.808   8.163  1.6132 -1.1354  0.5909
  230ccc     C3 6601   4.273   2.991   8.218  0.1225  0.6628  0.4766
  230ccc     C4 6602   4.253   3.113   8.313  0.2712  0.8456  0.1299
  230ccc     C5 6603   4.095   3.125   8.367 -0.3352 -0.3565  0.0436
  230ccc     H3 6604   4.317   3.093   8.400  0.2629 -0.2595 -0.1109
  230ccc     H4 6605   4.229   3.015   8.120 -0.3458 -2.5870 -0.2315
  230ccc     H5 6606   4.027   3.149   8.285 -0.7609 -2.1666 -0.1909
  230ccc     O1 6607   4.084   3.220   8.477 -0.2233 -0.6263 -0.2935
  230ccc     O2 6608   4.293   3.233   8.252  0.3643 -0.3382  0.4113
  230ccc     O3 6609   4.416   2.962   8.196  0.0001 -0.8832  0.2190
  230ccc     O4 6610   4.244   2.784   8.358 -0.2181  0.1198  0.3482
  230ccc     C6 6611   3.948   2.783   8.342 -0.0508  0.4889 -0.5788
  230ccc     H6 6612   4.455   3.044   8.161 -0.3764 -0.3626  0.9841
  230ccc     H7 6613   4.340   2.796   8.367 -0.1586 -0.2889  0.2446
  230ccc     H8 6614   4.233   3.245   8.176 -0.7539  2.5289  1.6324
  230ccc     H9 6615   3.942   2.723   8.250  0.7631  0.4679 -0.6257
  230ccc    H10 6616   3.845   2.815   8.361 -0.4047  0.4303 -2.2696
  230ccc     O5 6617   4.006   2.715   8.452  0.6227  0.0562  0.3655
  230ccc    H11 6618   4.092   2.759   8.448  0.8969 -0.4307  0.7206
  230ccc     O6 6619   4.050   2.994   8.402  0.1275  0.4269  0.1247
  231ccc     C1 6620   2.399   3.923  10.088  0.2862 -0.4315  0.4959
  231ccc     C2 6621   2.393   4.002  10.227 -0.6364  0.2624 -0.4019
  231ccc     H1 6622   2.305   3.929  10.032  0.4101  1.4112  0.4098
  231ccc     H2 6623   2.350   4.103  10.222 -0.8172  0.3920  2.3164
  231ccc     C3 6624   2.303   3.921  10.325 -0.1016  0.7657  0.3966
  231ccc     C4 6625   2.354   3.772  10.336 -0.6253  0.3174  0.3925
  231ccc     C5 6626   2.371   3.699  10.200  0.0288 -0.1598 -0.6351
  231ccc     H3 6627   2.447   3.776  10.393 -0.6925  1.1138  0.4486
  231ccc     H4 6628   2.211   3.920  10.265  0.5629  2.6687 -0.7402
  231ccc     H5 6629   2.270   3.682  10.161 -1.0276  0.3465  1.6921
  231ccc     O1 6630   2.436   3.573  10.203  0.4469 -0.0916  0.2145
  231ccc     O2 6631   2.259   3.692  10.416  0.1457 -0.1668  0.7746
  231ccc     O3 6632   2.284   3.992  10.446  0.1934 -0.4905 -0.1722
  231ccc     O4 6633   2.527   4.004  10.286 -0.1299  0.0502  0.0057
  231ccc     C6 6634   2.493   3.998   9.994  0.1852 -0.1632  0.4731
  231ccc     H6 6635   2.189   3.978  10.463  0.3699 -0.0587  1.3353
  231ccc     H7 6636   2.515   4.068  10.358 -1.7142 -0.6235  0.3902
  231ccc     H8 6637   2.253   3.723  10.508 -0.9446  1.6988  0.1309
  231ccc     H9 6638   2.599   3.995  10.021  0.6403 -2.2185 -1.2474
  231ccc    H10 6639   2.451   4.097   9.969  1.8163  1.0161  2.1700
  231ccc     O5 6640   2.486   3.919   9.873  0.0441  0.2075  0.5159
  231ccc    H11 6641   2.573   3.877   9.882 -0.7479 -1.3926  1.1928
  231ccc     O6 6642   2.441   3.786  10.107  0.4056  0.1259  0.4848
  232ccc     C1 6643   2.452   4.065  10.844  0.7842 -0.4393 -0.0063
  232ccc     C2 6644   2.323   4.008  10.911  0.0061 -0.0190 -0.3016
  232ccc     H1 6645   2.431   4.131  10.759 -0.4611 -0.2466  0.4448
  232ccc     H2 6646   2.271   4.088  10.966 -1.5548 -0.9868 -0.3046
  232ccc     C3 6647   2.233   3.929  10.810 -0.8373  0.2612  0.4120
  232ccc     C4 6648   2.311   3.807  10.755  0.0558  0.3629  0.5902
  232ccc     C5 6649   2.450   3.855  10.699 -0.4463  0.0041 -0.1145
  232ccc     H3 6650   2.328   3.738  10.839  0.6043 -0.9048 -0.5287
  232ccc     H4 6651   2.207   4.000  10.730 -0.5437 -1.0331 -0.8646
  232ccc     H5 6652   2.439   3.915  10.607 -0.0863 -1.1107 -0.9018
  232ccc     O1 6653   2.525   3.741  10.650 -0.0540 -0.5713 -0.0012
  232ccc     O2 6654   2.216   3.742  10.656 -0.6967 -0.0905 -0.5223
  232ccc     O3 6655   2.110   3.877  10.871  0.2668 -0.7703 -0.3113
  232ccc     O4 6656   2.362   3.916  11.005 -0.3759 -0.1115 -0.1354
  232ccc     C6 6657   2.534   4.149  10.938 -0.0185  0.0457 -0.3819
  232ccc     H6 6658   2.059   3.952  10.905 -1.6345 -2.2727  0.3662
  232ccc     H7 6659   2.285   3.897  11.061  0.6037  2.9086  2.5258
  232ccc     H8 6660   2.130   3.768  10.694 -0.6290  0.9865 -1.0701
  232ccc     H9 6661   2.593   4.084  11.004 -0.4003  0.0176 -0.0644
  232ccc    H10 6662   2.470   4.214  10.998 -1.7215 -0.8249 -1.1796
  232ccc     O5 6663   2.628   4.234  10.860  0.5162  0.0247 -0.7208
  232ccc    H11 6664   2.572   4.314  10.858 -1.0734 -1.0330 -0.9089
  232ccc     O6 6665   2.521   3.950  10.788  0.6083  0.0623  0.1905
  233ccc     C1 6666   2.105   3.602  11.427  0.2454  0.2644  0.0985
  233ccc     C2 6667   2.102   3.742  11.368 -0.6510  0.3572  0.1695
  233ccc     H1 6668   2.209   3.567  11.422 -0.3104 -1.6397  0.9656
  233ccc     H2 6669   2.166   3.805  11.431  2.2402 -0.5908 -1.6581
  233ccc     C3 6670   2.160   3.751  11.230  0.5257  0.1295  1.1394
  233ccc     C4 6671   2.076   3.654  11.139 -0.4116  0.5820 -0.6214
  233ccc     C5 6672   2.073   3.512  11.201  0.0907 -0.2254  0.1711
  233ccc     H3 6673   1.972   3.687  11.131 -0.0568  1.5251 -1.6923
  233ccc     H4 6674   2.259   3.704  11.240  0.0009 -0.7975  2.1435
  233ccc     H5 6675   2.172   3.467  11.192 -0.2903 -0.9200 -0.6709
  233ccc     O1 6676   1.979   3.430  11.121 -0.3550 -0.0946  0.6877
  233ccc     O2 6677   2.136   3.656  11.008 -0.2507 -0.1885 -0.4135
  233ccc     O3 6678   2.158   3.889  11.170  0.2323 -0.1643  0.2809
  233ccc     O4 6679   1.976   3.794  11.372 -0.1845  0.0274  0.1054
  233ccc     C6 6680   2.051   3.581  11.566 -0.4019 -0.0987  0.4476
  233ccc     H6 6681   2.155   3.941  11.252 -0.6166 -0.4880  0.4681
  233ccc     H7 6682   1.937   3.740  11.443 -1.0693  0.8439  0.2756
  233ccc     H8 6683   2.123   3.740  10.962 -1.0429 -0.2011 -0.2294
  233ccc     H9 6684   2.101   3.645  11.640 -2.1933  1.5195  0.3336
  233ccc    H10 6685   2.059   3.476  11.597 -1.4716 -0.3233  0.0215
  233ccc     O5 6686   1.906   3.625  11.561  0.0174 -0.2075  0.5768
  233ccc    H11 6687   1.854   3.545  11.582 -0.2742 -0.2036 -0.1083
  233ccc     O6 6688   2.032   3.516  11.336 -1.0497  0.4022 -0.0213
  234ccc     C1 6689   1.708   3.802  10.284  0.6619  0.2249 -0.1457
  234ccc     C2 6690   1.794   3.909  10.224 -0.6248  0.4362  0.1518
  234ccc     H1 6691   1.640   3.855  10.353 -0.1961 -0.9666 -0.0347
  234ccc     H2 6692   1.725   3.982  10.179 -1.9581  0.3531  1.9877
  234ccc     C3 6693   1.886   3.983  10.327  0.6001  0.0012  0.1845
  234ccc     C4 6694   1.962   3.882  10.410 -0.5449  0.4155 -0.2802
  234ccc     C5 6695   1.855   3.790  10.483 -0.4345 -0.4972 -0.8866
  234ccc     H3 6696   2.029   3.816  10.354  0.1183  0.5845  0.3060
  234ccc     H4 6697   1.818   4.031  10.399  1.4988  1.0959  0.3208
  234ccc     H5 6698   1.786   3.854  10.540  0.3363  0.2155 -0.7372
  234ccc     O1 6699   1.922   3.697  10.570  0.5350  0.0689  0.5167
  234ccc     O2 6700   2.047   3.949  10.502 -0.2915 -0.2486  0.1031
  234ccc     O3 6701   1.966   4.087  10.263 -0.0512  0.0766 -0.0018
  234ccc     O4 6702   1.870   3.862  10.115 -0.0879  0.9594  0.2700
  234ccc     C6 6703   1.622   3.715  10.180  0.5832  0.2653 -0.2730
  234ccc     H6 6704   1.981   4.143  10.341 -1.4318  1.4244 -0.6442
  234ccc     H7 6705   1.862   3.932  10.047 -0.6859  0.6336 -0.0071
  234ccc     H8 6706   1.993   3.970  10.580  1.4458  0.0365  1.3090
  234ccc     H9 6707   1.682   3.637  10.133  1.0765  0.4459  0.0484
  234ccc    H10 6708   1.585   3.789  10.108  0.2085 -0.4109 -0.7832
  234ccc     O5 6709   1.511   3.654  10.256  0.2046  0.0592  0.3706
  234ccc    H11 6710   1.441   3.623  10.196 -1.2083  0.7072  1.6023
  234ccc     O6 6711   1.787   3.722  10.373  0.3940 -0.4978  0.2125
  235ccc     C1 6712   3.940   3.249  11.767  0.0971 -0.6196 -0.4870
  235ccc     C2 6713   3.900   3.158  11.877  0.5354 -0.3359 -0.9113
  235ccc     H1 6714   3.909   3.342  11.816 -0.0256 -2.3468  3.0244
  235ccc     H2 6715   3.941   3.200  11.970 -0.5324 -0.3751 -0.4087
  235ccc     C3 6716   3.745   3.161  11.884  0.0027  1.2012  0.1798
  235ccc     C4 6717   3.679   3.116  11.751 -0.0136  0.3705  0.1589
  235ccc     C5 6718   3.737   3.205  11.637 -0.2420  0.0668  0.4443
  235ccc     H3 6719   3.714   3.013  11.736 -0.1771  0.4006 -0.4244
  235ccc     H4 6720   3.713   3.266  11.893 -2.4395  0.6472 -1.0913
  235ccc     H5 6721   3.696   3.306  11.650 -0.3122  0.0526  0.3297
  235ccc     O1 6722   3.701   3.146  11.505  0.1744 -0.3815 -0.0380
  235ccc     O2 6723   3.539   3.106  11.766 -0.5933  0.3632 -0.1955
  235ccc     O3 6724   3.699   3.087  11.997  0.2431 -0.3505 -0.0190
  235ccc     O4 6725   3.946   3.027  11.850  0.0614 -0.0993  0.1580
  235ccc     C6 6726   4.092   3.247  11.763 -0.4656 -0.0813  0.6086
  235ccc     H6 6727   3.602   3.086  12.000  0.2345 -0.4756 -0.3475
  235ccc     H7 6728   3.937   2.974  11.931  1.8621  0.1914  0.5775
  235ccc     H8 6729   3.509   3.015  11.781 -0.3573  0.1887 -0.7463
  235ccc     H9 6730   4.129   3.155  11.718  1.5368  0.6671  0.6295
  235ccc    H10 6731   4.131   3.254  11.866 -0.8951  0.5431  0.7436
  235ccc     O5 6732   4.149   3.350  11.688 -0.2627 -0.3490  0.4647
  235ccc    H11 6733   4.120   3.434  11.729  0.7972  0.2256  0.0858
  235ccc     O6 6734   3.881   3.210  11.641  0.3219  0.0953  0.0004
  236ccc     C1 6735   4.164   2.506  11.713 -0.9434 -0.6086 -0.0618
  236ccc     C2 6736   4.223   2.620  11.803  0.6447 -0.4838  0.1630
  236ccc     H1 6737   4.248   2.442  11.682 -0.0947 -0.1650  1.2335
  236ccc     H2 6738   4.275   2.577  11.889  1.1600  0.1925  0.1940
  236ccc     C3 6739   4.323   2.704  11.719  0.1504 -0.1512  0.1054
  236ccc     C4 6740   4.273   2.735  11.579 -0.1711  0.5261 -0.0124
  236ccc     C5 6741   4.194   2.621  11.504  0.3123 -0.3612 -0.3667
  236ccc     H3 6742   4.197   2.810  11.601  0.9411  1.1641  1.9193
  236ccc     H4 6743   4.422   2.657  11.702  0.7435  1.8794 -2.8795
  236ccc     H5 6744   4.265   2.560  11.446  0.8262  0.0278 -0.1595
  236ccc     O1 6745   4.106   2.688  11.405  0.4019  0.5346 -0.2608
  236ccc     O2 6746   4.377   2.793  11.491  0.1295 -0.0866 -0.2263
  236ccc     O3 6747   4.340   2.830  11.790  0.3641 -0.3505  0.2715
  236ccc     O4 6748   4.128   2.713  11.855  0.0397 -0.3090 -0.1304
  236ccc     C6 6749   4.064   2.421  11.798  0.5116 -0.0667  0.3366
  236ccc     H6 6750   4.391   2.887  11.729 -0.3798  0.7792  0.6866
  236ccc     H7 6751   4.192   2.787  11.857 -2.1457  1.6768  0.9073
  236ccc     H8 6752   4.339   2.852  11.425  2.2164  0.0775 -1.3616
  236ccc     H9 6753   3.961   2.452  11.777  0.9679  1.2237 -0.0402
  236ccc    H10 6754   4.080   2.436  11.906 -0.0750  1.2262  0.2602
  236ccc     O5 6755   4.086   2.285  11.763  0.0354 -0.0245 -0.1905
  236ccc    H11 6756   4.059   2.285  11.670 -0.7137  2.1086 -0.0506
  236ccc     O6 6757   4.104   2.556  11.598 -0.0028 -0.1008  0.2161
  237ccc     C1 6758   2.772   3.301  11.791 -0.5594  0.5580 -0.3082
  237ccc     C2 6759   2.810   3.435  11.850 -0.6015  0.2985 -0.1124
  237ccc     H1 6760   2.830   3.235  11.857  0.4418 -0.5659 -2.2330
  237ccc     H2 6761   2.802   3.435  11.959 -0.0864  0.5979 -0.0719
  237ccc     C3 6762   2.960   3.469  11.807  0.1652  0.1117 -0.8831
  237ccc     C4 6763   2.988   3.444  11.662 -0.1677 -0.2222  0.2466
  237ccc     C5 6764   2.934   3.305  11.615  0.0340 -0.1712  0.2527
  237ccc     H3 6765   2.931   3.519  11.606 -2.3023  0.6732  3.3431
  237ccc     H4 6766   3.032   3.403  11.857  0.3979 -0.3517 -1.8028
  237ccc     H5 6767   3.003   3.234  11.663  0.7836  1.1861  1.2699
  237ccc     O1 6768   2.933   3.301  11.473 -0.1852 -0.0358  0.3820
  237ccc     O2 6769   3.126   3.470  11.640 -0.3622  0.3248 -0.0397
  237ccc     O3 6770   2.988   3.605  11.853 -0.4459 -0.4201 -0.4048
  237ccc     O4 6771   2.716   3.533  11.811 -0.8508 -0.0474  0.6865
  237ccc     C6 6772   2.621   3.260  11.814  0.1235  0.7580  0.4932
  237ccc     H6 6773   3.075   3.624  11.892  0.1763 -1.5014 -1.2046
  237ccc     H7 6774   2.744   3.617  11.854 -0.9192 -0.5237  1.7020
  237ccc     H8 6775   3.138   3.565  11.659 -2.1824  0.2729  1.7825
  237ccc     H9 6776   2.554   3.312  11.746 -1.3802 -2.1734 -0.4253
  237ccc    H10 6777   2.580   3.295  11.910 -2.3739  1.7486 -0.8513
  237ccc     O5 6778   2.621   3.115  11.809 -0.0006 -0.7726 -0.1099
  237ccc    H11 6779   2.552   3.095  11.874 -1.8588  0.2587 -1.6479
  237ccc     O6 6780   2.803   3.285  11.651  0.3763  0.8563 -0.2041
  238ccc     C1 6781   2.722   3.609  11.115 -0.4786 -0.0196  0.4154
  238ccc     C2 6782   2.593   3.691  11.142  0.6286 -0.4365  0.0153
  238ccc     H1 6783   2.711   3.516  11.172 -2.7454  1.3261  2.3392
  238ccc     H2 6784   2.510   3.623  11.118 -1.1985  0.4596  3.1924
  238ccc     C3 6785   2.584   3.735  11.292 -0.2888  0.0688  0.3838
  238ccc     C4 6786   2.715   3.780  11.349  0.3110 -0.3720 -0.3637
  238ccc     C5 6787   2.836   3.690  11.310  0.3081 -0.5357  0.0509
  238ccc     H3 6788   2.722   3.882  11.310 -1.9983  0.0730  0.2230
  238ccc     H4 6789   2.557   3.645  11.349  1.8146  0.4011  1.9896
  238ccc     H5 6790   2.831   3.589  11.353  1.7345 -1.3947 -1.6759
  238ccc     O1 6791   2.963   3.744  11.363 -0.2994  0.1569  0.2281
  238ccc     O2 6792   2.714   3.787  11.492  0.5539  0.2637  0.4301
  238ccc     O3 6793   2.472   3.824  11.307 -0.2506  0.1426  0.0151
  238ccc     O4 6794   2.610   3.810  11.051  0.1592  0.4954  0.1366
  238ccc     C6 6795   2.741   3.583  10.958 -0.1537  0.5620 -0.3754
  238ccc     H6 6796   2.443   3.814  11.400 -1.4669 -0.8540 -0.4353
  238ccc     H7 6797   2.520   3.846  11.037 -0.8327 -1.4202  1.1257
  238ccc     H8 6798   2.690   3.696  11.519  1.5497 -0.8442 -2.1451
  238ccc     H9 6799   2.787   3.671  10.913 -1.0251  1.2030 -0.0518
  238ccc    H10 6800   2.641   3.568  10.914 -0.4307  0.0472  0.3988
  238ccc     O5 6801   2.818   3.461  10.951 -0.8825  0.1716 -0.1494
  238ccc    H11 6802   2.752   3.390  10.948 -0.5205 -0.1728  0.0126
  238ccc     O6 6803   2.834   3.679  11.166  0.5148 -0.8515 -0.1606
  239ccc     C1 6804   5.840   1.654   9.587  0.0577  0.4461 -0.3489
  239ccc     C2 6805   5.987   1.606   9.622  1.0617  0.6704 -0.4503
  239ccc     H1 6806   5.847   1.762   9.571  0.9309  0.8754  2.4671
  239ccc     H2 6807   6.037   1.631   9.528  4.5624  1.4925  1.4907
  239ccc     C3 6808   6.047   1.693   9.736 -0.2708  0.0714 -0.2385
  239ccc     C4 6809   5.954   1.676   9.866 -0.3108 -0.2221  0.2004
  239ccc     C5 6810   5.809   1.692   9.828  0.6190 -0.2036 -0.0495
  239ccc     H3 6811   5.984   1.582   9.913  0.0937 -0.0648  0.2642
  239ccc     H4 6812   6.035   1.796   9.702  2.1389 -0.1448 -1.9421
  239ccc     H5 6813   5.779   1.794   9.801  0.9408  0.4055  1.8010
  239ccc     O1 6814   5.741   1.638   9.947 -0.1926 -0.0778 -0.1014
  239ccc     O2 6815   5.993   1.785   9.954 -0.5118 -0.0568  0.2439
  239ccc     O3 6816   6.185   1.673   9.760 -0.5043 -0.3335 -0.1450
  239ccc     O4 6817   5.984   1.459   9.639  0.3359 -0.0148 -0.7157
  239ccc     C6 6818   5.770   1.582   9.471  0.2436  0.1442 -0.3389
  239ccc     H6 6819   6.223   1.736   9.824  0.5691 -2.4425  1.4332
  239ccc     H7 6820   6.079   1.442   9.628  0.1973 -1.8104  0.4742
  239ccc     H8 6821   6.058   1.743  10.011  1.1062 -0.2808 -1.6660
  239ccc     H9 6822   5.749   1.478   9.497 -0.9669  0.5285  0.2973
  239ccc    H10 6823   5.834   1.589   9.381  1.4322  0.0056  0.4680
  239ccc     O5 6824   5.651   1.662   9.453  0.1589  0.5245  0.7012
  239ccc    H11 6825   5.594   1.640   9.528  0.3892 -1.7776  0.2803
  239ccc     O6 6826   5.770   1.620   9.709 -0.0378 -0.4564  0.9480
  240ccc     C1 6827   6.259   1.387  10.413  0.4789 -1.1157 -0.2371
  240ccc     C2 6828   6.308   1.392  10.555 -0.3198  0.1822 -0.3133
  240ccc     H1 6829   6.343   1.424  10.354 -0.1908  0.3833 -0.2918
  240ccc     H2 6830   6.402   1.337  10.561  0.1732  1.1342  1.6460
  240ccc     C3 6831   6.331   1.537  10.605  0.4911  0.1782  0.3987
  240ccc     C4 6832   6.190   1.614  10.597 -0.0923  0.3097  0.0886
  240ccc     C5 6833   6.140   1.604  10.443 -0.4709  0.1097  0.4953
  240ccc     H3 6834   6.119   1.564  10.665  0.3945 -2.1792 -1.1092
  240ccc     H4 6835   6.405   1.581  10.538 -0.1652  1.2461  0.3597
  240ccc     H5 6836   6.210   1.657  10.377 -0.8476  2.0912  1.6052
  240ccc     O1 6837   6.004   1.658  10.427 -0.2396  0.5647  0.6057
  240ccc     O2 6838   6.223   1.742  10.637  0.3506 -0.0595  0.1565
  240ccc     O3 6839   6.389   1.533  10.734 -0.1627  0.0013  0.1230
  240ccc     O4 6840   6.211   1.325  10.637  0.3598 -0.0976 -0.8417
  240ccc     C6 6841   6.221   1.249  10.355  0.0915 -0.2446 -0.1661
  240ccc     H6 6842   6.417   1.623  10.756  0.6777 -0.2645  0.1646
  240ccc     H7 6843   6.248   1.316  10.726  0.1269 -1.6106 -0.8762
  240ccc     H8 6844   6.195   1.746  10.730 -1.1340 -0.7034 -0.2403
  240ccc     H9 6845   6.126   1.226  10.404 -0.1427 -1.1962 -1.0560
  240ccc    H10 6846   6.294   1.173  10.386  2.6300  1.1956 -2.1510
  240ccc     O5 6847   6.216   1.269  10.214 -0.1871  0.1020 -0.7468
  240ccc    H11 6848   6.127   1.308  10.208  0.0078  0.9771  1.2497
  240ccc     O6 6849   6.140   1.470  10.401  0.5376  0.1745  0.7601
  241ccc     C1 6850   5.946   2.764  10.798  0.3138  0.9729 -0.3413
  241ccc     C2 6851   5.936   2.852  10.671 -0.0570 -0.5029  0.4985
  241ccc     H1 6852   6.018   2.798  10.873 -0.0361  0.4068  0.2611
  241ccc     H2 6853   5.897   2.953  10.690 -0.9405 -0.3918 -1.6250
  241ccc     C3 6854   6.081   2.876  10.609  0.6720  0.3110 -0.7228
  241ccc     C4 6855   6.147   2.736  10.577 -0.7131 -0.1700  0.1120
  241ccc     C5 6856   6.133   2.640  10.699  0.2706  0.2923  0.3568
  241ccc     H3 6857   6.105   2.682  10.491  2.9845 -0.4469 -1.7300
  241ccc     H4 6858   6.144   2.925  10.684 -0.2916  0.5494 -0.0518
  241ccc     H5 6859   6.202   2.666  10.780  0.8359 -0.3930  0.1074
  241ccc     O1 6860   6.175   2.511  10.659  0.0955  0.2765 -0.0574
  241ccc     O2 6861   6.286   2.764  10.545 -0.2510  0.4815  0.3644
  241ccc     O3 6862   6.085   2.963  10.493 -0.1882  0.0243  0.2710
  241ccc     O4 6863   5.848   2.782  10.575  0.4167 -0.3425  0.1377
  241ccc     C6 6864   5.809   2.745  10.878  0.6763  0.4309  0.2811
  241ccc     H6 6865   6.178   2.960  10.465  0.0806 -3.6920  1.0328
  241ccc     H7 6866   5.790   2.732  10.635 -2.3755  1.2168 -1.0765
  241ccc     H8 6867   6.294   2.748  10.449 -0.1578  3.2103 -0.1670
  241ccc     H9 6868   5.762   2.843  10.893  0.3757  0.1046  1.5845
  241ccc    H10 6869   5.822   2.686  10.969 -0.1712  0.0724  0.1815
  241ccc     O5 6870   5.725   2.677  10.780  0.3518 -0.2607 -0.2570
  241ccc    H11 6871   5.681   2.609  10.835  0.2788 -3.3248 -3.6706
  241ccc     O6 6872   6.000   2.634  10.748  0.2018  0.0604 -0.2128
  242ccc     C1 6873   6.973   1.670  10.531 -0.7506  0.5049  0.1914
  242ccc     C2 6874   6.967   1.520  10.576 -0.2810 -0.6083 -0.0797
  242ccc     H1 6875   7.053   1.713  10.593  1.5306 -1.5706 -1.1158
  242ccc     H2 6876   7.072   1.488  10.579 -0.1549 -0.5445 -2.4662
  242ccc     C3 6877   6.912   1.501  10.713 -0.0253  0.0350  0.1104
  242ccc     C4 6878   6.774   1.568  10.724  0.5558 -0.5095  0.0171
  242ccc     C5 6879   6.781   1.720  10.675  0.2934 -0.0321  0.3212
  242ccc     H3 6880   6.706   1.513  10.657  1.4340 -0.7619 -0.6855
  242ccc     H4 6881   6.966   1.555  10.791 -2.9308  1.1342  1.5099
  242ccc     H5 6882   6.838   1.782  10.745 -1.2212  2.2550 -0.3822
  242ccc     O1 6883   6.650   1.757  10.663 -0.4571 -0.0819  0.2595
  242ccc     O2 6884   6.748   1.555  10.866 -0.0161 -0.1807  0.2527
  242ccc     O3 6885   6.903   1.359  10.745 -0.8294  0.4281 -0.0571
  242ccc     O4 6886   6.897   1.439  10.476  0.2179  0.0461  0.0508
  242ccc     C6 6887   7.036   1.692  10.392  0.5888 -0.4330 -0.0867
  242ccc     H6 6888   6.947   1.303  10.679 -2.4408 -0.6767 -0.2393
  242ccc     H7 6889   6.927   1.348  10.489 -1.6673 -0.3765  1.9242
  242ccc     H8 6890   6.670   1.606  10.892  2.2150  2.3833  2.4178
  242ccc     H9 6891   7.134   1.644  10.383  0.8860  0.0968  0.2321
  242ccc    H10 6892   7.045   1.801  10.378  0.3118  0.0511  2.7709
  242ccc     O5 6893   6.941   1.639  10.295  0.1273 -0.2741  0.0102
  242ccc    H11 6894   6.911   1.562  10.346  0.3447  0.0997  0.7139
  242ccc     O6 6895   6.848   1.740  10.546  0.3942  0.2841  0.0584
  243ccc     C1 6896   6.896   1.186   8.911 -0.3496  0.0898  0.3977
  243ccc     C2 6897   6.785   1.080   8.928 -0.2627  0.2729 -0.9878
  243ccc     H1 6898   6.989   1.127   8.904 -1.4868 -1.6937 -0.3371
  243ccc     H2 6899   6.799   1.015   8.841  1.2475  0.5852 -1.0017
  243ccc     C3 6900   6.802   1.006   9.066 -0.5257 -0.1467  0.2039
  243ccc     C4 6901   6.816   1.112   9.183 -0.3045  0.2422  0.3278
  243ccc     C5 6902   6.926   1.222   9.157 -0.1763  0.3024 -0.2324
  243ccc     H3 6903   6.718   1.159   9.194 -1.7351 -2.6034  0.6581
  243ccc     H4 6904   6.894   0.947   9.058 -0.4325 -0.0552  0.5791
  243ccc     H5 6905   7.021   1.170   9.178 -0.8654 -1.4400 -1.1509
  243ccc     O1 6906   6.911   1.328   9.253  0.0122 -0.0666  0.4371
  243ccc     O2 6907   6.838   1.041   9.307 -0.2141  0.4573  0.0881
  243ccc     O3 6908   6.694   0.915   9.096  0.2300  0.4410 -0.0549
  243ccc     O4 6909   6.652   1.149   8.925 -0.6126 -0.3622  0.0015
  243ccc     C6 6910   6.879   1.273   8.779 -0.6734 -0.4725 -0.1312
  243ccc     H6 6911   6.619   0.971   9.121 -1.2833 -1.1419 -0.8566
  243ccc     H7 6912   6.671   1.216   8.857 -0.4798 -1.2464 -0.8551
  243ccc     H8 6913   6.757   0.989   9.318 -1.1980  2.3606  2.6768
  243ccc     H9 6914   6.904   1.213   8.690  1.6800 -0.1360  0.2265
  243ccc    H10 6915   6.951   1.356   8.776 -2.0059  0.8079  1.5510
  243ccc     O5 6916   6.747   1.323   8.762 -0.1475 -0.2117 -0.4947
  243ccc    H11 6917   6.752   1.405   8.709  1.5436 -1.0736 -1.7573
  243ccc     O6 6918   6.913   1.278   9.026 -0.0724  0.1290  0.2984
  244ccc     C1 6919   7.051   1.234   9.890  0.1401  0.2948 -0.1462
  244ccc     C2 6920   7.117   1.136   9.794 -0.0664 -0.3104  0.2959
  244ccc     H1 6921   6.990   1.180   9.963 -0.2944  1.7451  0.5970
  244ccc     H2 6922   7.168   1.059   9.853  0.9578 -1.3606 -1.8200
  244ccc     C3 6923   7.016   1.072   9.693  0.4645 -0.3110 -0.0188
  244ccc     C4 6924   6.923   1.181   9.631 -0.5583 -0.4326 -0.9072
  244ccc     C5 6925   6.865   1.279   9.734  0.3084 -0.0446 -0.0961
  244ccc     H3 6926   6.985   1.244   9.566  0.6497 -0.3740  0.2389
  244ccc     H4 6927   6.944   1.007   9.745 -1.1731 -0.3079 -2.1254
  244ccc     H5 6928   6.790   1.226   9.794  0.5420 -0.3002 -0.0271
  244ccc     O1 6929   6.822   1.392   9.663  0.7084 -0.1734 -1.1979
  244ccc     O2 6930   6.812   1.124   9.555 -0.0041  0.3926  0.1935
  244ccc     O3 6931   7.075   0.986   9.595  0.4596 -0.1643  0.3187
  244ccc     O4 6932   7.213   1.203   9.708 -0.3951  0.1418 -0.2933
  244ccc     C6 6933   7.155   1.307   9.970 -0.8039  0.1668 -0.2650
  244ccc     H6 6934   7.018   0.908   9.582  3.6363 -2.7615  0.8229
  244ccc     H7 6935   7.275   1.135   9.678 -0.2322  0.6347 -1.1285
  244ccc     H8 6936   6.847   1.077   9.477 -2.0612 -0.8440 -0.0693
  244ccc     H9 6937   7.196   1.390   9.911  1.5059 -0.7450 -0.0709
  244ccc    H10 6938   7.240   1.240   9.991 -2.7477 -1.6398  2.4316
  244ccc     O5 6939   7.085   1.365  10.079 -0.1151 -0.1458 -0.3636
  244ccc    H11 6940   7.030   1.435  10.041 -1.0694  0.1722  1.4874
  244ccc     O6 6941   6.970   1.327   9.817  0.0615  0.0627  0.2060
  245ccc     C1 6942   5.000   1.987   8.359 -0.1518  0.0021 -0.2865
  245ccc     C2 6943   4.969   1.859   8.275 -0.4886  0.1526 -0.5867
  245ccc     H1 6944   5.031   2.072   8.296  1.3744 -1.8649 -2.1945
  245ccc     H2 6945   4.874   1.861   8.221 -0.2073 -0.3420 -1.1131
  245ccc     C3 6946   5.090   1.822   8.187 -0.4702 -0.0737 -0.2285
  245ccc     C4 6947   5.219   1.795   8.275  0.4914  0.2152  0.5213
  245ccc     C5 6948   5.240   1.914   8.370 -0.3933  0.2604  0.2163
  245ccc     H3 6949   5.198   1.709   8.339 -2.0226  0.0143 -0.4344
  245ccc     H4 6950   5.108   1.913   8.128 -0.6609 -0.6519 -1.2138
  245ccc     H5 6951   5.277   1.997   8.309 -2.5045  1.4902  0.5223
  245ccc     O1 6952   5.340   1.876   8.471  0.5998  0.6911  0.2835
  245ccc     O2 6953   5.326   1.770   8.180  0.0010  0.4352 -0.2204
  245ccc     O3 6954   5.065   1.709   8.110  0.1685 -0.0306 -0.3863
  245ccc     O4 6955   4.951   1.753   8.370  0.1970  0.0805  0.0065
  245ccc     C6 6956   4.882   2.028   8.444  0.6085  0.4210 -0.3030
  245ccc     H6 6957   5.109   1.713   8.023 -1.4913 -0.3553 -1.2938
  245ccc     H7 6958   4.916   1.683   8.313 -1.1022  1.5806 -1.1584
  245ccc     H8 6959   5.318   1.684   8.133  2.3578  1.0177 -1.8729
  245ccc     H9 6960   4.874   1.966   8.535  0.5840 -2.1582 -1.9457
  245ccc    H10 6961   4.789   2.001   8.392 -0.3105  1.1464  0.9169
  245ccc     O5 6962   4.879   2.169   8.456 -0.6262 -0.0088  0.2700
  245ccc    H11 6963   4.832   2.200   8.376 -0.1803 -0.0944 -0.0337
  245ccc     O6 6964   5.117   1.965   8.439 -0.1533 -0.1521  0.4060
  246ccc     C1 6965   5.018   1.029   8.953 -0.0989 -0.3361  0.0342
  246ccc     C2 6966   4.973   0.955   8.825  0.1693  0.1808 -0.2058
  246ccc     H1 6967   4.927   1.049   9.011  1.4665 -0.6108  2.7251
  246ccc     H2 6968   4.893   0.883   8.848 -1.1287  1.0068 -1.9322
  246ccc     C3 6969   4.911   1.051   8.715  0.0708  0.0834  0.2859
  246ccc     C4 6970   5.013   1.161   8.688  0.6700 -0.0639 -0.5695
  246ccc     C5 6971   5.051   1.236   8.818  0.2276 -0.1975  0.2640
  246ccc     H3 6972   5.103   1.116   8.645  0.6549 -0.8114  0.1511
  246ccc     H4 6973   4.818   1.099   8.748  0.5870  1.9019 -0.7607
  246ccc     H5 6974   4.960   1.291   8.846 -0.1766  0.1756 -1.6112
  246ccc     O1 6975   5.158   1.334   8.788  0.5393  0.2228 -0.5348
  246ccc     O2 6976   4.968   1.261   8.589 -0.6515 -0.1130 -0.0295
  246ccc     O3 6977   4.878   0.970   8.596 -0.2190  0.4621  0.3318
  246ccc     O4 6978   5.088   0.879   8.777  0.1595 -1.0985  0.1538
  246ccc     C6 6979   5.087   0.941   9.058 -0.0628  0.2803 -0.5825
  246ccc     H6 6980   4.962   0.951   8.550  1.3543  3.7686  1.4668
  246ccc     H7 6981   5.139   0.875   8.860 -0.8186 -0.1590  0.8153
  246ccc     H8 6982   4.949   1.204   8.513 -2.8135 -2.0816  1.8145
  246ccc     H9 6983   5.032   0.847   9.067  1.0184 -0.6511 -2.7307
  246ccc    H10 6984   5.084   0.991   9.155  0.1101  0.1108 -0.4889
  246ccc     O5 6985   5.220   0.913   9.007 -0.0056 -0.2052 -0.3650
  246ccc    H11 6986   5.261   0.999   9.026 -0.7794  0.3190 -0.9721
  246ccc     O6 6987   5.101   1.147   8.920  0.1533 -0.2890  0.2950
  247ccc     C1 6988   3.949   1.535   9.336  0.0762 -0.3274 -0.1661
  247ccc     C2 6989   3.939   1.383   9.322  0.1444  0.9140  0.4669
  247ccc     H1 6990   3.921   1.599   9.251  1.1966  0.5497  0.0900
  247ccc     H2 6991   3.838   1.355   9.288  0.8902 -2.7590  0.8085
  247ccc     C3 6992   4.047   1.323   9.227 -0.0697 -0.7970 -0.3547
  247ccc     C4 6993   4.189   1.389   9.262 -0.0310  0.0855  0.7459
  247ccc     C5 6994   4.185   1.539   9.288  0.1643 -1.1024 -0.6886
  247ccc     H3 6995   4.211   1.346   9.360 -1.8736 -0.8676  0.7809
  247ccc     H4 6996   4.021   1.350   9.123  1.8525 -0.4366 -0.7815
  247ccc     H5 6997   4.170   1.597   9.196  1.1594  1.1636  0.5035
  247ccc     O1 6998   4.305   1.600   9.342 -0.4497  0.2223  0.3045
  247ccc     O2 6999   4.291   1.356   9.162 -0.1371 -0.4024  0.0435
  247ccc     O3 7000   4.072   1.180   9.235  0.1385  0.3740  0.3292
  247ccc     O4 7001   3.966   1.321   9.451 -0.0586  0.7124  0.2439
  247ccc     C6 7002   3.845   1.584   9.443  0.4369 -0.3703 -0.7052
  247ccc     H6 7003   4.100   1.151   9.146 -0.3238  1.1498 -0.0769
  247ccc     H7 7004   3.945   1.399   9.505  0.4447  1.7202 -0.9674
  247ccc     H8 7005   4.249   1.384   9.079  1.8805  1.6259 -0.4078
  247ccc     H9 7006   3.740   1.584   9.412  0.2132  3.1157 -0.4365
  247ccc    H10 7007   3.867   1.691   9.452 -2.5517  0.1648  1.7076
  247ccc     O5 7008   3.856   1.516   9.572 -0.2464  0.1121 -0.2075
  247ccc    H11 7009   3.781   1.559   9.617  0.0748 -0.9425  1.4203
  247ccc     O6 7010   4.082   1.568   9.376  0.0353  0.5886 -0.1296
  248ccc     C1 7011   4.215   1.890   8.680 -0.0530 -0.9490  0.2637
  248ccc     C2 7012   4.084   1.957   8.733 -0.1570 -0.6471  0.5388
  248ccc     H1 7013   4.184   1.805   8.618  0.1809 -1.2806  0.6007
  248ccc     H2 7014   4.003   1.975   8.661 -1.4221 -1.5726  1.6579
  248ccc     C3 7015   4.007   1.858   8.827  0.7258 -0.0345 -0.3334
  248ccc     C4 7016   4.097   1.805   8.941 -0.5674  0.5573 -0.1965
  248ccc     C5 7017   4.227   1.753   8.870 -0.1127 -0.2101 -0.1735
  248ccc     H3 7018   4.136   1.893   8.994  0.7741  1.2179 -2.1459
  248ccc     H4 7019   3.981   1.768   8.768 -0.5006  0.2991 -0.3343
  248ccc     H5 7020   4.211   1.671   8.800  2.0895 -0.6534 -0.2329
  248ccc     O1 7021   4.313   1.706   8.970 -0.2203 -0.6363 -0.2022
  248ccc     O2 7022   4.047   1.690   9.023  0.0134  0.6912 -0.0168
  248ccc     O3 7023   3.882   1.913   8.869  0.5223 -0.3583  0.2988
  248ccc     O4 7024   4.111   2.085   8.796 -0.4810 -0.4605 -0.2354
  248ccc     C6 7025   4.294   1.990   8.585  0.9192 -0.1166 -0.2982
  248ccc     H6 7026   3.887   2.007   8.848  1.8035 -0.5935 -0.5381
  248ccc     H7 7027   4.066   2.151   8.741 -2.6087  0.2451  2.1049
  248ccc     H8 7028   3.955   1.710   9.049 -0.9461 -1.2924 -1.5444
  248ccc     H9 7029   4.337   2.072   8.644  1.1456  0.2149 -0.9017
  248ccc    H10 7030   4.233   2.032   8.504  0.4697 -2.1680 -1.0666
  248ccc     O5 7031   4.403   1.921   8.522  0.6273 -0.0523 -0.2008
  248ccc    H11 7032   4.444   1.875   8.598 -1.0238 -0.3037  0.5745
  248ccc     O6 7033   4.299   1.853   8.793  0.2815 -0.0467  0.5793
  249ccc     C1 7034   4.818   0.994   9.889  0.3818 -0.3882 -0.1365
  249ccc     C2 7035   4.851   0.956   9.739 -0.0151 -0.3702 -0.8210
  249ccc     H1 7036   4.750   0.917   9.928 -0.6230  0.8380  0.6092
  249ccc     H2 7037   4.905   0.860   9.741 -0.8815 -0.8520  0.2014
  249ccc     C3 7038   4.716   0.944   9.659  0.2223 -0.5925 -0.0895
  249ccc     C4 7039   4.637   1.080   9.659 -0.7425  0.3138 -0.4267
  249ccc     C5 7040   4.628   1.126   9.803  0.1554  0.0462  0.9576
  249ccc     H3 7041   4.688   1.157   9.599  0.6888 -0.9287 -0.8570
  249ccc     H4 7042   4.644   0.876   9.707 -0.2947 -0.0342 -0.0628
  249ccc     H5 7043   4.548   1.063   9.844  1.4939 -1.0815  1.9071
  249ccc     O1 7044   4.577   1.260   9.802  0.3991  0.6776  0.1832
  249ccc     O2 7045   4.500   1.049   9.609  0.3306 -0.0670  0.5779
  249ccc     O3 7046   4.733   0.901   9.521 -0.4731 -0.2196  0.6952
  249ccc     O4 7047   4.936   1.056   9.690 -0.2944  0.1653  0.3602
  249ccc     C6 7048   4.936   1.010   9.984 -0.2859 -0.4263 -0.2138
  249ccc     H6 7049   4.648   0.859   9.500 -1.2578  0.7424  1.8557
  249ccc     H7 7050   4.969   1.093   9.774  1.1904  1.0766 -0.5809
  249ccc     H8 7051   4.462   0.964   9.635 -0.4517  0.5013  1.3694
  249ccc     H9 7052   4.972   0.909  10.009 -1.4511 -0.4492  1.5527
  249ccc    H10 7053   4.914   1.058  10.080  1.5395 -1.4454  0.7772
  249ccc     O5 7054   5.038   1.091   9.921 -0.0765 -0.6509 -0.2506
  249ccc    H11 7055   5.095   1.129   9.990  1.3849 -1.9106 -0.6862
  249ccc     O6 7056   4.747   1.121   9.886 -0.5822  0.0509  0.4284
  250ccc     C1 7057   3.786   0.950   9.533 -0.7693  0.2539  0.4117
  250ccc     C2 7058   3.690   1.004   9.428  0.4818 -0.0755  0.0153
  250ccc     H1 7059   3.726   0.899   9.610  1.9809 -1.5133  1.5723
  250ccc     H2 7060   3.642   0.914   9.387 -1.1574  0.8602 -0.1930
  250ccc     C3 7061   3.576   1.095   9.493  0.0969  0.0907  0.1813
  250ccc     C4 7062   3.643   1.203   9.584  0.3042  0.3612 -0.3696
  250ccc     C5 7063   3.747   1.151   9.673 -0.7347  0.0538 -0.3108
  250ccc     H3 7064   3.692   1.272   9.514 -1.5819  1.1604 -0.9659
  250ccc     H4 7065   3.510   1.040   9.561  0.1707 -0.2804 -0.0482
  250ccc     H5 7066   3.701   1.086   9.748 -0.5466  0.3212  0.0406
  250ccc     O1 7067   3.830   1.256   9.739  0.5576  0.1179 -0.5619
  250ccc     O2 7068   3.542   1.269   9.665 -0.1014 -0.1619 -0.1442
  250ccc     O3 7069   3.503   1.167   9.389  0.0966  0.3912  0.3662
  250ccc     O4 7070   3.757   1.075   9.323 -0.4867  0.1318  0.4857
  250ccc     C6 7071   3.888   0.836   9.485  0.4348 -0.2431 -0.7091
  250ccc     H6 7072   3.453   1.096   9.345  3.0048 -0.2903 -2.1840
  250ccc     H7 7073   3.690   1.086   9.254  0.2828 -0.8725 -0.4504
  250ccc     H8 7074   3.474   1.206   9.696 -1.1131  0.0717 -1.7463
  250ccc     H9 7075   3.818   0.765   9.439 -0.5776  0.1959  0.1235
  250ccc    H10 7076   3.932   0.785   9.571 -1.2089 -5.0138 -2.3607
  250ccc     O5 7077   3.979   0.889   9.392  0.2201 -0.0411  0.0760
  250ccc    H11 7078   3.945   0.867   9.304  2.0467 -0.1418 -0.6480
  250ccc     O6 7079   3.845   1.063   9.605 -0.1805 -0.0527  0.3180
  251ccc     C1 7080   4.247   0.965   8.859 -0.0527 -0.0335 -0.1406
  251ccc     C2 7081   4.245   1.013   9.004  0.4323  0.6269 -0.5120
  251ccc     H1 7082   4.302   0.870   8.855 -1.0310 -0.5741 -1.0499
  251ccc     H2 7083   4.206   0.926   9.059 -0.1782  0.8683 -0.5590
  251ccc     C3 7084   4.385   1.056   9.064  0.5102 -0.1169 -0.0137
  251ccc     C4 7085   4.444   1.163   8.965 -0.1538 -0.2131 -0.2042
  251ccc     C5 7086   4.447   1.102   8.818  0.7776  0.2028 -0.3392
  251ccc     H3 7087   4.385   1.255   8.970  0.7597  0.3689 -0.1029
  251ccc     H4 7088   4.452   0.970   9.073  0.1968 -0.2462  1.2960
  251ccc     H5 7089   4.511   1.014   8.812  2.6930  1.5522 -0.5668
  251ccc     O1 7090   4.490   1.199   8.723  0.2702  0.3376 -0.2982
  251ccc     O2 7091   4.581   1.180   9.011 -0.0430 -0.6392  0.0054
  251ccc     O3 7092   4.367   1.110   9.196 -0.2699  0.4162  0.1756
  251ccc     O4 7093   4.148   1.115   9.003  0.7476 -0.2550 -0.1357
  251ccc     C6 7094   4.104   0.922   8.804  0.1131 -0.3793  0.0183
  251ccc     H6 7095   4.318   1.193   9.184  0.3525  0.5560 -1.8364
  251ccc     H7 7096   4.100   1.094   8.921  1.0198  1.0107 -0.6349
  251ccc     H8 7097   4.578   1.224   9.097 -0.0142  0.0444 -0.3385
  251ccc     H9 7098   4.064   0.838   8.862 -1.6710 -1.4465 -2.5643
  251ccc    H10 7099   4.104   0.887   8.700 -2.2337  0.9409 -0.5003
  251ccc     O5 7100   4.003   1.028   8.820 -0.3713  0.0444  0.7861
  251ccc    H11 7101   3.925   0.977   8.792 -1.0253  1.5170 -0.1721
  251ccc     O6 7102   4.316   1.069   8.779  0.1165  0.4932 -0.0472
  252ccc     C1 7103   4.528   1.557   7.626 -0.5706 -0.6522 -0.3764
  252ccc     C2 7104   4.412   1.562   7.532  0.3846  0.1929  0.1572
  252ccc     H1 7105   4.599   1.479   7.595  0.6867  0.5962 -0.7590
  252ccc     H2 7106   4.452   1.575   7.430  0.3583  1.0031  0.2455
  252ccc     C3 7107   4.333   1.425   7.542  0.7859 -0.2329 -0.3194
  252ccc     C4 7108   4.296   1.392   7.687  0.2356 -0.2204 -0.0897
  252ccc     C5 7109   4.419   1.401   7.772 -0.1810 -0.2186 -0.1767
  252ccc     H3 7110   4.230   1.476   7.713  2.3377  0.9661  1.8168
  252ccc     H4 7111   4.395   1.339   7.513  2.3921 -0.5606  3.5226
  252ccc     H5 7112   4.485   1.327   7.726 -1.8454 -0.7699 -1.7819
  252ccc     O1 7113   4.400   1.380   7.915  0.0845 -0.5695  0.0738
  252ccc     O2 7114   4.223   1.271   7.693 -0.1531  0.1845 -0.2280
  252ccc     O3 7115   4.218   1.430   7.460 -0.3068  0.4934 -0.2177
  252ccc     O4 7116   4.323   1.669   7.561 -0.4179 -0.3198  0.3308
  252ccc     C6 7117   4.613   1.686   7.629  0.2088 -0.2833  0.2348
  252ccc     H6 7118   4.248   1.438   7.368 -0.5593 -1.3832 -0.4914
  252ccc     H7 7119   4.277   1.697   7.480  0.1222  1.4956  0.6072
  252ccc     H8 7120   4.172   1.273   7.610  0.4437  0.5586 -0.5937
  252ccc     H9 7121   4.647   1.710   7.527 -0.4169  1.4577  0.3922
  252ccc    H10 7122   4.689   1.648   7.698 -0.8781  0.2855  1.8140
  252ccc     O5 7123   4.539   1.790   7.684  0.6432 -0.3751  0.2956
  252ccc    H11 7124   4.450   1.764   7.654  0.8999  2.5224 -3.7879
  252ccc     O6 7125   4.480   1.531   7.757 -0.2699  0.3412  0.3021
  253ccc     C1 7126   4.116   2.523   7.229 -0.1854 -0.0207  0.0752
  253ccc     C2 7127   3.968   2.566   7.238  0.6628 -0.3077 -0.2140
  253ccc     H1 7128   4.118   2.428   7.175  1.0769  0.1095 -0.1391
  253ccc     H2 7129   3.930   2.562   7.135 -2.2840 -4.0606  0.7684
  253ccc     C3 7130   3.884   2.469   7.319 -0.8424  0.7950 -0.1768
  253ccc     C4 7131   3.940   2.443   7.462 -0.0098 -0.3359 -0.3783
  253ccc     C5 7132   4.092   2.413   7.451 -0.4564  0.1531 -0.9257
  253ccc     H3 7133   3.926   2.539   7.513  0.2813 -0.4608 -0.0575
  253ccc     H4 7134   3.888   2.377   7.260  0.9204 -0.3883  1.6464
  253ccc     H5 7135   4.107   2.312   7.410 -0.2045 -0.3100  0.2688
  253ccc     O1 7136   4.156   2.420   7.577  0.1703 -0.7090  0.3176
  253ccc     O2 7137   3.872   2.338   7.526 -0.1908 -0.0167  0.8710
  253ccc     O3 7138   3.744   2.495   7.342  0.1906 -0.5569 -0.0275
  253ccc     O4 7139   3.957   2.699   7.296  0.0238  0.7369 -0.5362
  253ccc     C6 7140   4.207   2.622   7.150  0.4040  0.8692 -0.3336
  253ccc     H6 7141   3.717   2.559   7.274  0.0585 -0.4162  0.1574
  253ccc     H7 7142   3.866   2.729   7.276  0.0839  0.8312 -0.6687
  253ccc     H8 7143   3.782   2.350   7.491  0.9170 -0.3701 -2.4058
  253ccc     H9 7144   4.254   2.690   7.222  3.7664 -0.1796 -1.3494
  253ccc    H10 7145   4.164   2.673   7.063 -0.4962 -0.1831 -0.5383
  253ccc     O5 7146   4.312   2.533   7.106 -0.6461 -0.3961  0.4203
  253ccc    H11 7147   4.367   2.600   7.062 -1.2740  1.5642  2.4181
  253ccc     O6 7148   4.161   2.513   7.373  0.4007 -0.1655  0.3398
  254ccc     C1 7149   4.002   1.473   7.968 -0.3120 -1.0911  0.3032
  254ccc     C2 7150   3.901   1.521   8.066 -0.3817 -0.1617 -0.7887
  254ccc     H1 7151   4.070   1.395   8.005  1.3381  0.0440 -0.2393
  254ccc     H2 7152   3.845   1.434   8.102  0.6042 -0.5194 -0.0795
  254ccc     C3 7153   3.967   1.586   8.190  0.3495 -0.0060  0.0062
  254ccc     C4 7154   4.059   1.697   8.147 -0.5866 -0.5055 -0.5940
  254ccc     C5 7155   4.157   1.655   8.034  0.1271  0.3956 -0.5123
  254ccc     H3 7156   4.003   1.784   8.108  1.3788  0.5865 -1.1040
  254ccc     H4 7157   4.028   1.506   8.234 -1.2808 -1.8442 -0.9042
  254ccc     H5 7158   4.227   1.582   8.074 -2.4490 -1.1582  1.5131
  254ccc     O1 7159   4.219   1.774   7.983  0.2780  0.2727 -0.8280
  254ccc     O2 7160   4.147   1.729   8.259 -0.6108 -0.0166 -0.3552
  254ccc     O3 7161   3.872   1.638   8.288 -0.6300 -0.5625 -0.2704
  254ccc     O4 7162   3.814   1.617   7.999 -0.5280  0.6462  0.2942
  254ccc     C6 7163   3.934   1.405   7.845 -0.2913 -0.0955 -0.1822
  254ccc     H6 7164   3.796   1.578   8.298 -0.4047 -0.5184  2.6003
  254ccc     H7 7165   3.812   1.582   7.908  1.0918  0.3955  0.3296
  254ccc     H8 7166   4.108   1.817   8.274  0.0116  0.5474 -1.7541
  254ccc     H9 7167   3.868   1.325   7.883 -0.5543 -0.0703 -0.5769
  254ccc    H10 7168   4.007   1.353   7.782  0.3716  0.6477 -0.0352
  254ccc     O5 7169   3.844   1.499   7.777  0.2482  0.1799 -0.6476
  254ccc    H11 7170   3.899   1.537   7.707 -0.4752  0.1063 -1.2595
  254ccc     O6 7171   4.084   1.589   7.927  0.5170 -0.7713  0.1874
  255ccc     C1 7172   0.734   4.912   9.662  0.5242  0.2582 -0.0217
  255ccc     C2 7173   0.869   4.890   9.731  0.2915  0.0972 -0.3106
  255ccc     H1 7174   0.728   4.840   9.580 -0.5974 -1.3278  1.3970
  255ccc     H2 7175   0.874   4.785   9.763 -0.0716  0.3376  0.5581
  255ccc     C3 7176   0.993   4.921   9.640  0.2639  0.1890  0.6847
  255ccc     C4 7177   0.975   5.069   9.580 -0.8314 -0.1516  0.2029
  255ccc     C5 7178   0.835   5.098   9.528 -0.7571  0.1203 -0.8288
  255ccc     H3 7179   0.991   5.133   9.667 -0.4084  0.1169 -0.0703
  255ccc     H4 7180   0.993   4.856   9.552  1.8629  1.9970 -0.7559
  255ccc     H5 7181   0.829   5.028   9.444 -0.1995  0.1953 -0.9348
  255ccc     O1 7182   0.810   5.234   9.492 -0.0352  0.5940  0.5336
  255ccc     O2 7183   1.081   5.109   9.486  0.1831  0.0429  0.0624
  255ccc     O3 7184   1.123   4.905   9.710  0.4039 -0.4584 -0.4462
  255ccc     O4 7185   0.869   4.971   9.849 -0.1754 -0.4879 -0.2968
  255ccc     C6 7186   0.610   4.890   9.753 -0.2627  0.2616 -0.2625
  255ccc     H6 7187   1.118   4.823   9.763 -1.3274  0.2392  0.5526
  255ccc     H7 7188   0.942   5.036   9.844 -0.2893 -0.1189  1.8416
  255ccc     H8 7189   1.166   5.075   9.518 -0.5273  0.9028  3.2384
  255ccc     H9 7190   0.601   4.971   9.826 -0.1785  2.0194 -2.1030
  255ccc    H10 7191   0.615   4.795   9.807 -1.4116  0.5548  0.3762
  255ccc     O5 7192   0.500   4.894   9.663 -0.5328  0.1112  0.3375
  255ccc    H11 7193   0.428   4.907   9.728  2.1994  1.1476  3.4745
  255ccc     O6 7194   0.730   5.050   9.616 -0.5479 -0.0958 -0.6743
  256ccc     C1 7195   0.486   5.699   8.628 -0.4477  0.4074  0.3783
  256ccc     C2 7196   0.598   5.787   8.564 -0.1928 -0.0355 -0.1936
  256ccc     H1 7197   0.388   5.744   8.608  0.1539  0.7991 -2.0460
  256ccc     H2 7198   0.579   5.811   8.459 -1.5593  0.7386  0.2020
  256ccc     C3 7199   0.599   5.930   8.636 -0.2929  0.3919  0.0905
  256ccc     C4 7200   0.607   5.915   8.787 -0.1813 -0.5555 -0.2189
  256ccc     C5 7201   0.504   5.815   8.844  0.3134 -0.0956 -0.6909
  256ccc     H3 7202   0.707   5.873   8.801  0.8613  0.5841 -3.4105
  256ccc     H4 7203   0.504   5.978   8.609 -0.6510  0.1940  0.9783
  256ccc     H5 7204   0.402   5.856   8.840 -0.5146 -1.4802  2.5875
  256ccc     O1 7205   0.542   5.787   8.984  0.3823  0.5782 -0.1970
  256ccc     O2 7206   0.578   6.048   8.841  0.2958 -0.5901 -0.1316
  256ccc     O3 7207   0.703   6.013   8.586 -0.0513 -0.6046 -0.1484
  256ccc     O4 7208   0.721   5.725   8.584  0.3797 -0.1696  0.4887
  256ccc     C6 7209   0.480   5.555   8.569  0.5771  0.2334  0.3094
  256ccc     H6 7210   0.784   5.978   8.626  0.0911 -0.6142 -0.4430
  256ccc     H7 7211   0.684   5.635   8.594 -2.2160  0.7266 -0.2636
  256ccc     H8 7212   0.546   6.101   8.766  0.2432 -1.0026 -0.4080
  256ccc     H9 7213   0.440   5.565   8.467 -1.8820 -2.4214  0.8946
  256ccc    H10 7214   0.414   5.494   8.631 -0.0411 -0.6901 -1.1983
  256ccc     O5 7215   0.606   5.497   8.565 -0.1830  0.5952 -0.2545
  256ccc    H11 7216   0.595   5.403   8.542  3.4944 -0.0081 -0.1065
  256ccc     O6 7217   0.512   5.689   8.772 -0.1324 -0.0693  0.3353
  257ccc     C1 7218  -0.091   6.663   9.505  1.1760 -0.6302  0.0636
  257ccc     C2 7219  -0.194   6.631   9.392  0.4068 -0.0392 -0.2304
  257ccc     H1 7220  -0.090   6.772   9.517  2.1721 -0.7704  1.5990
  257ccc     H2 7221  -0.296   6.662   9.418  1.0099  2.2619 -0.3641
  257ccc     C3 7222  -0.155   6.698   9.260  0.4537  0.2885  0.4630
  257ccc     C4 7223  -0.002   6.675   9.233 -0.5165 -0.4876 -0.1967
  257ccc     C5 7224   0.093   6.697   9.358 -0.6056 -0.2334 -0.1360
  257ccc     H3 7225   0.011   6.569   9.206 -1.1173 -1.1647  1.9881
  257ccc     H4 7226  -0.171   6.805   9.279  0.7728  0.0240  2.4774
  257ccc     H5 7227   0.088   6.806   9.375 -2.7628 -0.0444 -1.5973
  257ccc     O1 7228   0.230   6.648   9.343 -0.1612  0.1169  0.3985
  257ccc     O2 7229   0.042   6.780   9.142 -0.1094  0.6575  0.3968
  257ccc     O3 7230  -0.231   6.661   9.144 -0.2282 -0.5753 -0.1089
  257ccc     O4 7231  -0.178   6.491   9.377  0.1166 -0.0268 -0.6796
  257ccc     C6 7232  -0.125   6.604   9.645  0.3269 -0.4903 -0.4646
  257ccc     H6 7233  -0.228   6.743   9.091 -1.4489 -0.9058 -0.7343
  257ccc     H7 7234  -0.164   6.462   9.469  0.9978  0.4649 -0.6555
  257ccc     H8 7235   0.013   6.743   9.057 -0.7276 -0.9716  1.2723
  257ccc     H9 7236  -0.221   6.647   9.677 -0.1799 -1.7937 -0.1442
  257ccc    H10 7237  -0.059   6.629   9.729  0.0220 -0.2661 -0.2918
  257ccc     O5 7238  -0.131   6.459   9.630 -0.3082  0.3598 -0.7495
  257ccc    H11 7239  -0.150   6.442   9.724 -0.7136  0.1812 -0.8625
  257ccc     O6 7240   0.041   6.629   9.467 -0.2548 -0.2579  0.0543
  258ccc     C1 7241   0.755   6.711   8.881 -0.2790 -0.3493 -0.2297
  258ccc     C2 7242   0.679   6.660   8.760 -0.4872  0.0198  0.2139
  258ccc     H1 7243   0.855   6.740   8.848 -0.6270  0.1602 -0.8813
  258ccc     H2 7244   0.692   6.738   8.684  0.5289  0.4558  0.8233
  258ccc     C3 7245   0.751   6.531   8.705 -0.5662 -0.2169  0.1966
  258ccc     C4 7246   0.760   6.418   8.810 -0.5239  0.2546 -0.1315
  258ccc     C5 7247   0.824   6.481   8.944  0.3616 -0.0078 -0.3439
  258ccc     H3 7248   0.658   6.392   8.840 -0.8147 -0.3094 -1.4820
  258ccc     H4 7249   0.856   6.551   8.680 -0.3889 -1.0037  0.2866
  258ccc     H5 7250   0.926   6.490   8.906 -0.5119  0.4501 -2.8015
  258ccc     O1 7251   0.815   6.383   9.053  0.0399  0.0109  0.2389
  258ccc     O2 7252   0.836   6.308   8.749  0.4221 -0.3455 -1.5394
  258ccc     O3 7253   0.682   6.480   8.588  0.3770  0.3314 -0.6411
  258ccc     O4 7254   0.545   6.629   8.787  0.0217  0.1405 -0.1766
  258ccc     C6 7255   0.682   6.834   8.944 -0.2918  0.3933 -0.0608
  258ccc     H6 7256   0.733   6.401   8.565  0.7803 -0.2599  1.9399
  258ccc     H7 7257   0.504   6.611   8.701 -0.1315 -1.1165  0.1388
  258ccc     H8 7258   0.851   6.249   8.825 -0.3369  1.5319  0.1444
  258ccc     H9 7259   0.584   6.813   8.989 -1.2129  1.8240 -1.3155
  258ccc    H10 7260   0.663   6.920   8.879  1.8330  1.6561  0.8973
  258ccc     O5 7261   0.776   6.888   9.044 -0.1172  0.3494 -0.5668
  258ccc    H11 7262   0.757   6.827   9.118  0.4665  1.6173  0.6543
  258ccc     O6 7263   0.760   6.606   8.983 -0.2084 -0.1745  0.4522
  259ccc     C1 7264   2.268   4.465   9.140 -0.1367  0.1752 -1.0128
  259ccc     C2 7265   2.332   4.331   9.088 -0.2843 -0.1656 -0.3399
  259ccc     H1 7266   2.261   4.535   9.056 -2.4250 -0.2718 -1.2754
  259ccc     H2 7267   2.277   4.302   8.999  0.2354  2.2456 -1.5386
  259ccc     C3 7268   2.489   4.346   9.059 -0.5726  0.8658  0.1626
  259ccc     C4 7269   2.565   4.416   9.179  0.2269  0.1323  0.3404
  259ccc     C5 7270   2.491   4.551   9.225 -0.2116 -0.3458  0.4510
  259ccc     H3 7271   2.553   4.345   9.262 -2.2212  1.5587  1.3008
  259ccc     H4 7272   2.499   4.405   8.968 -3.2726 -0.0063 -0.8127
  259ccc     H5 7273   2.487   4.631   9.150  1.8014  1.1383  1.8139
  259ccc     O1 7274   2.551   4.612   9.339 -0.0176 -0.2564 -0.7980
  259ccc     O2 7275   2.702   4.446   9.141 -0.2748 -0.1674  0.1401
  259ccc     O3 7276   2.536   4.211   9.026  0.2109  0.8393  0.1735
  259ccc     O4 7277   2.322   4.239   9.195 -0.3187 -0.3582  0.3391
  259ccc     C6 7278   2.124   4.451   9.187  0.4620 -0.6780  0.4298
  259ccc     H6 7279   2.462   4.171   8.976 -1.7990  1.0333  2.7842
  259ccc     H7 7280   2.249   4.282   9.243  0.8684 -0.4306  2.3043
  259ccc     H8 7281   2.752   4.440   9.225  1.6137  1.4805 -0.7681
  259ccc     H9 7282   2.058   4.440   9.100 -3.9022 -0.2823  3.3661
  259ccc    H10 7283   2.098   4.544   9.239  1.3911  0.9185 -1.7646
  259ccc     O5 7284   2.101   4.338   9.269 -0.3100  0.3706  0.4496
  259ccc    H11 7285   2.019   4.373   9.309 -1.2852 -0.5907 -0.6198
  259ccc     O6 7286   2.347   4.514   9.252 -0.6103 -0.2759 -0.6901
  260ccc     C1 7287   2.856   4.400  10.071 -0.2633 -0.1822  0.0898
  260ccc     C2 7288   2.955   4.426  10.184 -0.0361 -0.6830 -0.0811
  260ccc     H1 7289   2.914   4.402   9.978  2.8280 -1.0520  1.8496
  260ccc     H2 7290   3.024   4.341  10.190  1.7345  0.7675  1.2519
  260ccc     C3 7291   3.030   4.558  10.158  0.1896  0.0170  0.4049
  260ccc     C4 7292   2.924   4.672  10.156  0.2347 -0.8418 -0.2452
  260ccc     C5 7293   2.803   4.634  10.057  0.2826  0.4003 -0.2288
  260ccc     H3 7294   2.886   4.688  10.257 -0.7717 -0.5308 -0.6591
  260ccc     H4 7295   3.065   4.559  10.054  0.6703  3.7342  0.4528
  260ccc     H5 7296   2.835   4.646   9.952  0.6682 -2.4902 -0.5055
  260ccc     O1 7297   2.697   4.730  10.077 -0.0683 -0.7514  0.0823
  260ccc     O2 7298   2.985   4.794  10.100 -0.0730  0.2668 -0.9311
  260ccc     O3 7299   3.152   4.574  10.240  0.2515 -0.2134 -0.0608
  260ccc     O4 7300   2.889   4.423  10.306  0.1077 -0.3889 -1.4194
  260ccc     C6 7301   2.792   4.251  10.079  0.1283 -0.6376  0.2056
  260ccc     H6 7302   3.124   4.545  10.329 -3.0512  1.6774 -0.2981
  260ccc     H7 7303   2.961   4.419  10.372  1.0515  1.4070 -2.2464
  260ccc     H8 7304   3.029   4.818  10.183  0.6704 -2.0209 -0.5833
  260ccc     H9 7305   2.757   4.217  10.177  2.2255 -1.6038  0.6702
  260ccc    H10 7306   2.870   4.177  10.059  0.4138 -0.8662  2.0058
  260ccc     O5 7307   2.694   4.245   9.984  0.0423  0.2072 -0.1343
  260ccc    H11 7308   2.740   4.244   9.898  1.3003  1.7635  0.4770
  260ccc     O6 7309   2.757   4.498  10.071 -0.8715 -0.3218  0.2646
  261ccc     C1 7310   1.702   4.348  10.901 -0.0195  0.0245  0.5060
  261ccc     C2 7311   1.834   4.292  10.965 -0.7258 -0.0542  0.6281
  261ccc     H1 7312   1.623   4.283  10.941  0.5529 -0.6605  0.5600
  261ccc     H2 7313   1.840   4.275  11.074  0.5568 -0.9801  0.4458
  261ccc     C3 7314   1.863   4.156  10.891  0.5968  0.2011 -0.0410
  261ccc     C4 7315   1.845   4.154  10.740 -0.3210 -0.7413 -0.0887
  261ccc     C5 7316   1.716   4.226  10.691 -0.0303  0.6435  0.5499
  261ccc     H3 7317   1.930   4.204  10.691 -0.0414 -2.6375 -1.6943
  261ccc     H4 7318   1.789   4.083  10.926  1.4902 -0.2986  0.8583
  261ccc     H5 7319   1.621   4.179  10.719 -0.8073  1.4640 -0.6162
  261ccc     O1 7320   1.726   4.244  10.546  0.5123 -0.4143 -0.4551
  261ccc     O2 7321   1.844   4.020  10.692 -0.2136 -1.0763  1.1689
  261ccc     O3 7322   1.999   4.110  10.916  0.3173  0.0062  0.2897
  261ccc     O4 7323   1.944   4.381  10.930  0.0964  0.7458  0.0052
  261ccc     C6 7324   1.681   4.484  10.963 -0.1990 -0.0167  0.0855
  261ccc     H6 7325   2.053   4.180  10.875  0.8790  1.0177  2.5728
  261ccc     H7 7326   2.017   4.369  10.993 -0.8240  0.0500  0.9708
  261ccc     H8 7327   1.757   3.978  10.707 -0.2961 -0.3641  2.8425
  261ccc     H9 7328   1.754   4.556  10.926 -3.5527  3.4386 -0.4227
  261ccc    H10 7329   1.700   4.477  11.071  2.2348  2.6178 -0.0608
  261ccc     O5 7330   1.556   4.526  10.921  0.4873  0.2340  0.1070
  261ccc    H11 7331   1.572   4.573  10.837  0.6891  0.0739  0.0560
  261ccc     O6 7332   1.717   4.354  10.760  0.0806  0.1562 -0.0611
  262ccc     C1 7333   2.574   4.560  10.494  0.7902 -0.1085  0.6868
  262ccc     C2 7334   2.615   4.414  10.472 -0.0029  0.2621  0.0927
  262ccc     H1 7335   2.574   4.576  10.603 -0.5103 -0.9031  0.8213
  262ccc     H2 7336   2.714   4.413  10.519  0.1114  0.4803 -0.1436
  262ccc     C3 7337   2.510   4.311  10.528 -0.3822  0.2141 -0.6106
  262ccc     C4 7338   2.378   4.341  10.481  0.7390 -0.0724  0.5295
  262ccc     C5 7339   2.340   4.487  10.490  0.9650  0.3635  0.4537
  262ccc     H3 7340   2.385   4.320  10.374  0.1467  0.0591  0.4620
  262ccc     H4 7341   2.500   4.326  10.636 -0.6674  3.9827 -1.0375
  262ccc     H5 7342   2.317   4.529  10.589 -0.5147 -0.4019  0.4637
  262ccc     O1 7343   2.232   4.498  10.397  0.2170 -0.5465  0.0210
  262ccc     O2 7344   2.281   4.246  10.536  0.3860 -0.0511  0.5215
  262ccc     O3 7345   2.549   4.170  10.510  0.0706 -0.1361  0.6278
  262ccc     O4 7346   2.624   4.382  10.338 -0.6613 -0.3247  0.2902
  262ccc     C6 7347   2.675   4.657  10.438 -0.2219 -0.0204 -0.1400
  262ccc     H6 7348   2.634   4.158  10.557  1.7554  2.4055 -1.4494
  262ccc     H7 7349   2.720   4.378  10.322 -0.3152  2.2041  1.1804
  262ccc     H8 7350   2.317   4.158  10.515  1.0633  0.2680  0.3045
  262ccc     H9 7351   2.665   4.668  10.329  3.8799 -1.1722 -0.7917
  262ccc    H10 7352   2.777   4.618  10.440 -0.0955  0.3254  0.4449
  262ccc     O5 7353   2.660   4.781  10.512 -0.2514 -0.6574 -0.7536
  262ccc    H11 7354   2.668   4.854  10.448  2.3800 -0.4527 -0.3245
  262ccc     O6 7355   2.446   4.573  10.431  0.5201  0.1492 -0.3991
  263ccc     C1 7356   2.737   4.965   8.294  0.0224 -0.1218  0.0577
  263ccc     C2 7357   2.761   4.923   8.148  0.6337  0.0950  0.0636
  263ccc     H1 7358   2.730   4.869   8.348  2.7451  0.6224  1.9380
  263ccc     H2 7359   2.853   4.863   8.151  1.3036  1.1423  1.0659
  263ccc     C3 7360   2.635   4.857   8.075 -0.8831  0.2662  0.0223
  263ccc     C4 7361   2.504   4.925   8.101  0.0662  0.4886  0.5350
  263ccc     C5 7362   2.494   4.978   8.250  0.2694 -0.2098 -0.0307
  263ccc     H3 7363   2.486   5.002   8.026 -0.5815  0.2403  0.4266
  263ccc     H4 7364   2.621   4.762   8.128 -0.7851  0.7383  0.9156
  263ccc     H5 7365   2.464   4.889   8.306 -1.1504  1.5301  2.1526
  263ccc     O1 7366   2.386   5.074   8.248 -0.8820  0.4001  0.4588
  263ccc     O2 7367   2.412   4.817   8.076  0.0484 -0.6766  0.2542
  263ccc     O3 7368   2.659   4.829   7.932 -0.4512  0.0754  0.6417
  263ccc     O4 7369   2.777   5.047   8.076 -0.4152 -0.3477  0.7760
  263ccc     C6 7370   2.835   5.059   8.370 -0.6220  0.1997  0.3518
  263ccc     H6 7371   2.750   4.794   7.930 -1.0905 -1.6282 -1.0104
  263ccc     H7 7372   2.794   5.011   7.987  3.6320  0.5539  0.9909
  263ccc     H8 7373   2.335   4.869   8.048  0.8916 -0.8517 -2.6979
  263ccc     H9 7374   2.926   4.997   8.368 -2.0270 -1.9512 -1.2159
  263ccc    H10 7375   2.814   5.079   8.476 -0.8277 -1.0045  0.5586
  263ccc     O5 7376   2.852   5.177   8.299  0.1017 -0.5901 -0.5755
  263ccc    H11 7377   2.815   5.161   8.210 -1.8018  0.6503 -0.0783
  263ccc     O6 7378   2.616   5.045   8.294  0.2996  0.2768 -0.5106
  264ccc     C1 7379   1.323   4.842   7.988 -0.5158  0.2326 -0.1602
  264ccc     C2 7380   1.220   4.946   8.038 -0.4277  0.6252  0.3537
  264ccc     H1 7381   1.294   4.749   8.039 -0.4231 -0.3442 -1.1329
  264ccc     H2 7382   1.118   4.904   8.037 -0.1284 -0.1100 -1.3265
  264ccc     C3 7383   1.247   4.983   8.182 -0.2372  0.3056 -0.0864
  264ccc     C4 7384   1.385   5.049   8.208 -0.0723  0.6481  0.3437
  264ccc     C5 7385   1.483   4.934   8.157  0.0885 -0.0917 -0.0739
  264ccc     H3 7386   1.391   5.127   8.131  0.8574 -1.9187 -2.3952
  264ccc     H4 7387   1.236   4.890   8.241  0.5595 -0.0531 -0.4967
  264ccc     H5 7388   1.481   4.850   8.227  0.4512  1.9170  2.5205
  264ccc     O1 7389   1.620   4.974   8.160 -0.4773  0.3093 -0.0637
  264ccc     O2 7390   1.405   5.103   8.341  0.3057  0.2683 -0.2204
  264ccc     O3 7391   1.147   5.075   8.225  0.7454 -0.3677 -0.1865
  264ccc     O4 7392   1.226   5.059   7.958  0.2039  0.0717  0.0938
  264ccc     C6 7393   1.313   4.824   7.837 -0.3186  0.1553  0.7029
  264ccc     H6 7394   1.114   5.026   8.303 -0.3115 -1.8968 -1.5401
  264ccc     H7 7395   1.143   5.109   7.965  0.0483  0.0985 -1.4614
  264ccc     H8 7396   1.411   5.021   8.392 -0.1359 -0.4863 -1.3392
  264ccc     H9 7397   1.351   4.918   7.793 -1.8566  0.3835 -0.2172
  264ccc    H10 7398   1.208   4.802   7.813 -0.1042 -0.5555  0.4175
  264ccc     O5 7399   1.398   4.717   7.803  0.3901  0.3236  0.5575
  264ccc    H11 7400   1.408   4.713   7.706  1.5352 -0.4314  0.6878
  264ccc     O6 7401   1.459   4.893   8.018  0.6542  0.0228 -0.2066
  265ccc     C1 7402   0.556   5.082   8.764  0.2065 -0.0638 -0.0420
  265ccc     C2 7403   0.594   4.960   8.854  0.2537 -0.3016 -0.1342
  265ccc     H1 7404   0.495   5.038   8.684 -0.6238 -0.5657  0.8449
  265ccc     H2 7405   0.504   4.917   8.900  0.9423 -0.9119  0.6888
  265ccc     C3 7406   0.676   4.853   8.776 -0.8223 -0.0644 -0.1852
  265ccc     C4 7407   0.806   4.916   8.712  0.6395  0.1357  0.1007
  265ccc     C5 7408   0.773   5.054   8.644 -0.1212 -0.3390  0.1008
  265ccc     H3 7409   0.874   4.948   8.792  0.5650 -0.4884  0.4202
  265ccc     H4 7410   0.615   4.821   8.691  1.2660 -1.7586 -1.1177
  265ccc     H5 7411   0.738   5.043   8.541  2.2976  0.9007 -0.9406
  265ccc     O1 7412   0.891   5.128   8.639 -0.0737 -0.0808 -0.3741
  265ccc     O2 7413   0.863   4.816   8.622  0.1374 -0.0534 -0.3044
  265ccc     O3 7414   0.721   4.739   8.867  0.0370 -0.5380 -0.1654
  265ccc     O4 7415   0.678   5.015   8.954  0.5454 -0.0752  0.2530
  265ccc     C6 7416   0.474   5.208   8.813 -0.6045 -0.3838 -0.1409
  265ccc     H6 7417   0.775   4.678   8.813 -1.1217 -1.1960 -0.6273
  265ccc     H7 7418   0.738   4.949   8.993  0.1004  0.5174  2.0500
  265ccc     H8 7419   0.930   4.781   8.683 -0.2014 -0.0001  0.1108
  265ccc     H9 7420   0.371   5.184   8.842 -1.1236  2.9428  1.2610
  265ccc    H10 7421   0.463   5.275   8.727 -1.3612  0.9362  0.9463
  265ccc     O5 7422   0.549   5.254   8.924 -0.3488 -0.3349  0.4589
  265ccc    H11 7423   0.615   5.184   8.911 -1.9177 -1.6021 -1.2378
  265ccc     O6 7424   0.674   5.138   8.711  0.3831 -0.1295  0.1236
  266ccc     C1 7425   1.124   4.967   9.154 -0.1394 -0.3712 -0.0962
  266ccc     C2 7426   0.975   4.998   9.160  0.3776 -0.2568 -0.0623
  266ccc     H1 7427   1.159   5.036   9.232  1.1358 -1.2225  0.1170
  266ccc     H2 7428   0.950   4.982   9.266  2.4224 -3.4623  0.0754
  266ccc     C3 7429   0.956   5.143   9.118  0.0865 -0.3858 -0.1613
  266ccc     C4 7430   1.029   5.174   8.980  0.6285  0.3014  0.0652
  266ccc     C5 7431   1.172   5.139   8.983  0.0296  0.3803 -0.2525
  266ccc     H3 7432   0.987   5.109   8.902  1.9508  1.5391 -1.7528
  266ccc     H4 7433   1.016   5.194   9.194  2.7319 -2.5169 -0.6693
  266ccc     H5 7434   1.217   5.219   9.044 -0.5193 -1.2640  2.4917
  266ccc     O1 7435   1.213   5.161   8.845 -0.1055 -0.1010  0.3090
  266ccc     O2 7436   0.993   5.305   8.935 -0.1865 -0.3156  0.1315
  266ccc     O3 7437   0.818   5.201   9.114 -0.2812  0.5195 -0.4030
  266ccc     O4 7438   0.898   4.920   9.071 -0.8040  0.1447  0.5339
  266ccc     C6 7439   1.158   4.822   9.193  0.4390 -0.1860 -0.3997
  266ccc     H6 7440   0.764   5.129   9.076 -0.0072  1.1241 -2.0000
  266ccc     H7 7441   0.946   4.836   9.073 -0.4515  0.3450  0.6119
  266ccc     H8 7442   0.902   5.304   8.969  0.7221  0.1627  2.7998
  266ccc     H9 7443   1.117   4.807   9.293 -0.5048 -2.8625 -1.1127
  266ccc    H10 7444   1.266   4.811   9.206  0.3434  0.1962  0.8283
  266ccc     O5 7445   1.106   4.737   9.088 -0.1981 -0.0913  0.3288
  266ccc    H11 7446   1.159   4.658   9.108  0.2151  0.3619  1.0650
  266ccc     O6 7447   1.186   5.003   9.028 -0.3953 -0.0731  0.4892
  267ccc     C1 7448   2.652   5.814   8.417  0.1696 -0.2368 -0.5553
  267ccc     C2 7449   2.609   5.664   8.411 -0.4930  0.2659 -0.3275
  267ccc     H1 7450   2.586   5.859   8.493 -0.9663 -0.9328 -1.1136
  267ccc     H2 7451   2.631   5.616   8.508  0.1378  1.5317  0.1776
  267ccc     C3 7452   2.460   5.657   8.383  0.3438  0.4676 -0.2849
  267ccc     C4 7453   2.426   5.731   8.251 -0.1495  0.3832 -0.0107
  267ccc     C5 7454   2.488   5.873   8.239 -0.2862 -1.5450  0.3500
  267ccc     H3 7455   2.483   5.671   8.178  0.1137  0.7851 -0.1431
  267ccc     H4 7456   2.405   5.702   8.466 -0.6864 -2.5873  0.8072
  267ccc     H5 7457   2.425   5.940   8.299 -2.0384 -1.3559 -1.5964
  267ccc     O1 7458   2.481   5.934   8.109  0.1384  0.1055 -0.1187
  267ccc     O2 7459   2.285   5.734   8.236  0.2033 -0.2634  0.4563
  267ccc     O3 7460   2.408   5.517   8.383  0.8355 -0.8962 -0.9407
  267ccc     O4 7461   2.691   5.594   8.320 -0.1163  0.5567  0.5951
  267ccc     C6 7462   2.801   5.845   8.442  0.1188  0.5091  0.2280
  267ccc     H6 7463   2.476   5.462   8.340  3.2235  1.6202 -0.6725
  267ccc     H7 7464   2.720   5.509   8.357 -0.7723 -0.1898 -0.5237
  267ccc     H8 7465   2.246   5.663   8.182  2.3474  1.1519 -3.4029
  267ccc     H9 7466   2.856   5.826   8.349  0.5508  1.3359  0.3114
  267ccc    H10 7467   2.841   5.780   8.520  0.2768  1.1289  0.6697
  267ccc     O5 7468   2.820   5.983   8.478 -0.2229 -0.4632 -0.1412
  267ccc    H11 7469   2.823   6.036   8.396  0.2590  0.8287  0.6691
  267ccc     O6 7470   2.624   5.869   8.289  0.1626  0.0072  1.1470
  268ccc     C1 7471   2.635   5.350   7.773 -0.3490 -0.4404  0.2080
  268ccc     C2 7472   2.692   5.300   7.900 -0.1965 -0.1138  0.8154
  268ccc     H1 7473   2.720   5.384   7.712 -0.8437 -1.7908 -1.2763
  268ccc     H2 7474   2.784   5.246   7.878  0.4821  0.9897  0.8774
  268ccc     C3 7475   2.759   5.411   7.984 -0.3755  0.7946  0.2846
  268ccc     C4 7476   2.660   5.532   8.004 -0.1654 -0.7923 -0.0621
  268ccc     C5 7477   2.589   5.568   7.876 -0.0221  0.4817 -0.2846
  268ccc     H3 7478   2.580   5.490   8.065 -0.0479 -0.2482  0.4802
  268ccc     H4 7479   2.843   5.449   7.926 -0.3366 -0.6404 -0.6439
  268ccc     H5 7480   2.658   5.626   7.814 -1.1641  0.8101 -1.3045
  268ccc     O1 7481   2.472   5.648   7.910  0.1602 -0.2372  0.2863
  268ccc     O2 7482   2.735   5.647   8.060 -0.3851 -0.2324 -0.7904
  268ccc     O3 7483   2.811   5.356   8.111  0.2086 -0.1956  0.2073
  268ccc     O4 7484   2.595   5.230   7.978  0.5696  0.1344  0.2749
  268ccc     C6 7485   2.558   5.235   7.712 -0.0246  0.1925 -0.1473
  268ccc     H6 7486   2.875   5.420   8.146  0.1687  1.1824 -2.0688
  268ccc     H7 7487   2.650   5.177   8.039  0.8739  1.0437  0.8048
  268ccc     H8 7488   2.729   5.641   8.157 -1.8141  0.4857 -0.8062
  268ccc     H9 7489   2.462   5.222   7.763 -0.1733 -0.4454 -0.5711
  268ccc    H10 7490   2.626   5.149   7.718  1.3879  1.3157  0.5854
  268ccc     O5 7491   2.528   5.266   7.576  0.3523 -0.5093 -0.4685
  268ccc    H11 7492   2.464   5.339   7.590 -0.6952 -1.1245 -1.8371
  268ccc     O6 7493   2.538   5.454   7.799 -0.1721  0.3958 -0.1057
  269ccc     C1 7494   0.649   7.264   8.571 -0.4099 -0.0282 -0.5606
  269ccc     C2 7495   0.735   7.384   8.613  0.5579 -0.0618  0.7212
  269ccc     H1 7496   0.652   7.190   8.651 -1.1192 -0.0124 -0.5136
  269ccc     H2 7497   0.707   7.418   8.714 -3.1201 -0.6600  0.0377
  269ccc     C3 7498   0.879   7.339   8.626 -0.1155 -0.3902  0.0851
  269ccc     C4 7499   0.933   7.275   8.494 -1.0848  0.5805  0.5239
  269ccc     C5 7500   0.839   7.163   8.435  0.1696 -0.3156  1.0790
  269ccc     H3 7501   0.949   7.349   8.414  2.0195 -1.2088 -0.7051
  269ccc     H4 7502   0.883   7.264   8.706  2.0087  2.2857  2.6999
  269ccc     H5 7503   0.847   7.071   8.493 -3.0646 -0.1057  2.0100
  269ccc     O1 7504   0.856   7.129   8.293 -0.1500 -0.2143  0.1306
  269ccc     O2 7505   1.059   7.219   8.535  0.6788 -0.0340 -0.0139
  269ccc     O3 7506   0.964   7.444   8.672  0.5559  0.4660 -0.4987
  269ccc     O4 7507   0.715   7.494   8.525  0.2535  0.2462  0.1081
  269ccc     C6 7508   0.509   7.301   8.537 -0.2056  0.1287  0.0887
  269ccc     H6 7509   0.948   7.516   8.609  0.6015 -1.5817 -3.0051
  269ccc     H7 7510   0.712   7.572   8.583  0.5319 -0.1641  0.6804
  269ccc     H8 7511   1.116   7.290   8.569  1.1935 -0.2661 -0.3807
  269ccc     H9 7512   0.494   7.313   8.429  1.5643  0.8174 -0.1064
  269ccc    H10 7513   0.466   7.390   8.584 -0.8575 -0.6157  0.9500
  269ccc     O5 7514   0.438   7.189   8.577  0.0326  0.1447 -0.8861
  269ccc    H11 7515   0.358   7.186   8.522 -2.2541 -3.0192  2.2191
  269ccc     O6 7516   0.701   7.205   8.449 -0.3023  0.0135  0.3416
  270ccc     C1 7517   0.620   6.180   8.133 -0.2520 -0.2330 -0.1925
  270ccc     C2 7518   0.621   6.179   8.289 -0.0044  0.3225 -0.0638
  270ccc     H1 7519   0.691   6.103   8.101  2.4652  2.4638 -1.1647
  270ccc     H2 7520   0.598   6.080   8.331 -1.5517  0.1152 -1.3225
  270ccc     C3 7521   0.763   6.217   8.333 -0.6375  0.4208  0.9301
  270ccc     C4 7522   0.809   6.353   8.264 -0.8555  0.1214 -0.0706
  270ccc     C5 7523   0.799   6.346   8.115  0.1144  0.1270  0.5686
  270ccc     H3 7524   0.746   6.438   8.293  1.6797  2.3326 -0.5231
  270ccc     H4 7525   0.830   6.136   8.303 -0.0940  1.2946 -0.3251
  270ccc     H5 7526   0.858   6.260   8.082  2.1805  1.4204  0.6449
  270ccc     O1 7527   0.849   6.463   8.047 -0.1595 -0.2951 -0.3272
  270ccc     O2 7528   0.956   6.375   8.298  0.2213  0.3281  0.1548
  270ccc     O3 7529   0.763   6.243   8.472 -0.1213 -0.9942  0.0603
  270ccc     O4 7530   0.530   6.279   8.345 -0.9459 -0.1348 -0.1459
  270ccc     C6 7531   0.478   6.156   8.072 -0.5837  0.1732  0.2333
  270ccc     H6 7532   0.757   6.157   8.517 -1.2552 -0.8049  0.2918
  270ccc     H7 7533   0.568   6.273   8.435 -1.7514 -1.8135  0.1207
  270ccc     H8 7534   0.964   6.348   8.392 -1.2031  1.9176  0.7852
  270ccc     H9 7535   0.437   6.066   8.121 -0.1625  0.7290  1.6577
  270ccc    H10 7536   0.480   6.139   7.963  0.3793 -2.7272  0.6201
  270ccc     O5 7537   0.390   6.260   8.118  0.5220 -0.1980  0.2834
  270ccc    H11 7538   0.439   6.294   8.195  1.8159 -0.1662 -0.5216
  270ccc     O6 7539   0.665   6.311   8.080 -0.0265  0.3786 -0.3996
  271ccc     C1 7540   2.414   8.448   8.208  0.0093 -0.1015  0.4522
  271ccc     C2 7541   2.469   8.319   8.153  0.0280 -0.2291  0.1597
  271ccc     H1 7542   2.442   8.523   8.133  0.8801 -0.0292  0.8297
  271ccc     H2 7543   2.429   8.295   8.054  1.1704  0.9552 -0.6237
  271ccc     C3 7544   2.628   8.318   8.146  0.0122  0.3971  0.6813
  271ccc     C4 7545   2.682   8.362   8.281  0.1281 -0.3288  0.3488
  271ccc     C5 7546   2.616   8.487   8.333 -0.0909  0.1976  0.3695
  271ccc     H3 7547   2.656   8.282   8.351 -0.6495 -0.2977  0.1040
  271ccc     H4 7548   2.654   8.394   8.073  0.6120  1.3509  1.8519
  271ccc     H5 7549   2.647   8.575   8.276  0.5584  0.3255  0.9090
  271ccc     O1 7550   2.666   8.513   8.464 -0.4840  0.4035 -0.2256
  271ccc     O2 7551   2.823   8.373   8.270  0.3089  0.6702  0.3136
  271ccc     O3 7552   2.677   8.194   8.104 -0.1361  0.6616  0.3825
  271ccc     O4 7553   2.431   8.219   8.246  0.5777  0.7580  0.4915
  271ccc     C6 7554   2.260   8.464   8.206 -0.4361  0.0843  0.1846
  271ccc     H6 7555   2.768   8.202   8.138  0.2804  0.0383 -0.5543
  271ccc     H7 7556   2.336   8.239   8.251  0.5467  1.1594 -1.0656
  271ccc     H8 7557   2.858   8.354   8.359  0.6845 -0.4487 -0.0642
  271ccc     H9 7558   2.229   8.492   8.104  0.6879  0.2024 -0.1406
  271ccc    H10 7559   2.230   8.545   8.273 -1.1538  0.8689 -1.0386
  271ccc     O5 7560   2.192   8.332   8.225  0.4416  0.0261 -0.0361
  271ccc    H11 7561   2.098   8.355   8.211  0.6020  1.7893  1.2915
  271ccc     O6 7562   2.473   8.474   8.336 -0.8025 -0.1678  0.1670
  272ccc     C1 7563   3.068   9.134   8.957 -0.3834 -0.2808 -0.7468
  272ccc     C2 7564   3.143   9.193   8.839  0.0719 -0.0567  0.3465
  272ccc     H1 7565   3.129   9.158   9.045  0.2036  0.6806 -1.4041
  272ccc     H2 7566   3.151   9.302   8.856  0.4259 -0.2056  1.2057
  272ccc     C3 7567   3.282   9.134   8.832 -0.3981  0.4428 -0.4449
  272ccc     C4 7568   3.277   8.980   8.813  0.0623  0.1187  0.4323
  272ccc     C5 7569   3.179   8.919   8.930 -0.0421  0.3620  0.3424
  272ccc     H3 7570   3.221   8.950   8.723  0.7370  0.2623 -0.0372
  272ccc     H4 7571   3.337   9.160   8.924 -2.5334  1.6350  0.5724
  272ccc     H5 7572   3.222   8.928   9.031  0.0412 -0.9191  0.4367
  272ccc     O1 7573   3.157   8.778   8.892  0.0126  0.3705 -0.3758
  272ccc     O2 7574   3.414   8.920   8.819 -0.1022  0.4725 -0.4726
  272ccc     O3 7575   3.357   9.187   8.722 -0.4314 -0.1890 -0.3713
  272ccc     O4 7576   3.058   9.167   8.722 -0.2531  0.1307  0.4710
  272ccc     C6 7577   2.923   9.188   8.980 -0.5695 -0.5356  0.4795
  272ccc     H6 7578   3.445   9.199   8.761 -1.6489 -0.8355  2.9391
  272ccc     H7 7579   2.970   9.152   8.759  0.2412  1.8812  2.5908
  272ccc     H8 7580   3.454   8.948   8.735  0.3343  0.7776 -0.1617
  272ccc     H9 7581   2.925   9.297   8.986  0.0664 -0.4014 -1.3616
  272ccc    H10 7582   2.880   9.145   9.071  1.6387  0.3113  2.0168
  272ccc     O5 7583   2.845   9.161   8.864  0.4009 -0.2515  0.5929
  272ccc    H11 7584   2.759   9.207   8.870 -0.6575 -1.2575 -3.7557
  272ccc     O6 7585   3.050   8.990   8.940 -0.3665  0.7603 -0.7910
  273ccc     C1 7586   2.755   7.617   8.579 -0.2958  0.1676  0.0761
  273ccc     C2 7587   2.861   7.719   8.543 -0.0560  0.1121 -0.2233
  273ccc     H1 7588   2.684   7.602   8.497 -1.2252  0.4583  0.8012
  273ccc     H2 7589   2.917   7.682   8.455 -0.0230 -0.7963  0.1722
  273ccc     C3 7590   2.807   7.862   8.505  0.1080 -0.2693 -0.4047
  273ccc     C4 7591   2.721   7.914   8.624 -0.7366  0.6038 -0.1850
  273ccc     C5 7592   2.614   7.809   8.650  0.0329 -0.3151  0.9481
  273ccc     H3 7593   2.791   7.907   8.708  0.2636  2.4433 -0.8097
  273ccc     H4 7594   2.737   7.860   8.421 -2.0935  0.4930  1.3229
  273ccc     H5 7595   2.537   7.795   8.573 -0.7763 -0.6292  1.7964
  273ccc     O1 7596   2.540   7.844   8.772 -0.4362  0.1404 -0.5686
  273ccc     O2 7597   2.660   8.043   8.612  0.1591 -0.0472 -0.7966
  273ccc     O3 7598   2.912   7.955   8.475 -0.1042 -0.0026 -0.4296
  273ccc     O4 7599   2.956   7.730   8.648  0.2902 -0.9557 -0.0037
  273ccc     C6 7600   2.800   7.474   8.619 -0.6155 -0.1783 -0.7767
  273ccc     H6 7601   2.962   7.984   8.553  0.0422 -0.3538 -0.3873
  273ccc     H7 7602   3.033   7.776   8.610 -1.9296  1.4776 -1.8868
  273ccc     H8 7603   2.616   8.042   8.525  0.4042 -2.7321 -0.9583
  273ccc     H9 7604   2.847   7.427   8.533  0.3144 -0.6232 -0.0441
  273ccc    H10 7605   2.717   7.411   8.653 -0.7852  0.7052  0.5436
  273ccc     O5 7606   2.901   7.490   8.718  0.4908  0.7081  0.6356
  273ccc    H11 7607   2.927   7.582   8.700 -2.5959  1.3804 -1.0343
  273ccc     O6 7608   2.666   7.678   8.674  0.3665 -0.1283 -0.0511
  274ccc     C1 7609   1.586   8.120   8.185 -0.2446 -0.2864 -0.1273
  274ccc     C2 7610   1.584   8.260   8.111 -0.0552 -0.1593  0.6438
  274ccc     H1 7611   1.551   8.144   8.286 -0.0903 -0.0319 -0.1313
  274ccc     H2 7612   1.497   8.324   8.131  0.2138 -0.3073  2.4671
  274ccc     C3 7613   1.699   8.349   8.156 -1.0584 -0.1962 -0.2902
  274ccc     C4 7614   1.840   8.277   8.175 -0.4444  0.5160  0.0489
  274ccc     C5 7615   1.820   8.141   8.247  0.3155  0.0205 -0.1575
  274ccc     H3 7616   1.884   8.253   8.078 -1.0058  0.5170 -0.2069
  274ccc     H4 7617   1.680   8.390   8.256  2.6398  0.7643  0.1771
  274ccc     H5 7618   1.784   8.151   8.350  1.5254  0.9698  0.2032
  274ccc     O1 7619   1.948   8.069   8.253  0.1627  0.0042  0.3215
  274ccc     O2 7620   1.933   8.366   8.240  0.3885 -0.0389 -0.1347
  274ccc     O3 7621   1.729   8.467   8.072  0.2490  0.6764 -0.0192
  274ccc     O4 7622   1.589   8.236   7.974  0.6341 -0.5726  0.2399
  274ccc     C6 7623   1.474   8.022   8.127 -1.2052 -0.0612  0.3546
  274ccc     H6 7624   1.806   8.505   8.117  1.6445  3.0001 -3.8573
  274ccc     H7 7625   1.582   8.139   7.979  1.7926 -0.6099  2.8017
  274ccc     H8 7626   1.895   8.377   8.329  1.1165  0.8594  0.0817
  274ccc     H9 7627   1.375   8.069   8.121 -1.3708 -0.4891 -0.4225
  274ccc    H10 7628   1.470   7.936   8.195 -0.0364  0.3843  1.0133
  274ccc     O5 7629   1.515   7.980   7.998 -0.0091 -0.5369  0.1018
  274ccc    H11 7630   1.454   7.906   7.986 -1.8767  0.5581  2.1418
  274ccc     O6 7631   1.724   8.067   8.179 -0.3440  0.1222 -0.1145
  275ccc     C1 7632   3.859   7.581   9.428 -0.6280  0.7757 -0.2004
  275ccc     C2 7633   3.863   7.579   9.580 -0.4402 -0.0664 -0.4089
  275ccc     H1 7634   3.924   7.502   9.387 -1.3331  0.4703 -0.7509
  275ccc     H2 7635   3.844   7.477   9.618  0.4341  0.2878  1.0555
  275ccc     C3 7636   4.005   7.614   9.629 -0.3616 -0.4331 -0.2745
  275ccc     C4 7637   4.068   7.742   9.553  0.6773  0.6545  0.2307
  275ccc     C5 7638   4.023   7.748   9.402  0.3565  0.4584 -0.1004
  275ccc     H3 7639   4.025   7.833   9.598  0.1496  0.1281  0.8157
  275ccc     H4 7640   4.069   7.530   9.600 -1.3854 -1.1291 -0.5589
  275ccc     H5 7641   4.081   7.680   9.339 -1.2104 -1.0806  0.0113
  275ccc     O1 7642   4.032   7.885   9.373 -0.2013  0.2436  0.5943
  275ccc     O2 7643   4.202   7.746   9.568  0.5845 -0.1069 -0.2351
  275ccc     O3 7644   3.998   7.652   9.769  0.0871  0.1998 -0.6361
  275ccc     O4 7645   3.758   7.666   9.630 -0.4030  0.1142 -0.0525
  275ccc     C6 7646   3.722   7.546   9.371  0.1369  0.0753  0.2600
  275ccc     H6 7647   3.981   7.572   9.821  1.5157  2.0030  2.9909
  275ccc     H7 7648   3.741   7.634   9.720 -0.5422  0.6958  0.1289
  275ccc     H8 7649   4.231   7.808   9.500 -0.8085  1.1428  0.2520
  275ccc     H9 7650   3.646   7.625   9.379 -0.0702 -0.0285 -0.5116
  275ccc    H10 7651   3.672   7.466   9.427  0.1266 -1.6719 -2.0468
  275ccc     O5 7652   3.728   7.502   9.238 -0.2834 -0.0766  0.0258
  275ccc    H11 7653   3.701   7.581   9.188 -0.3040  0.3898  0.7513
  275ccc     O6 7654   3.887   7.708   9.390 -0.5619  0.1438  0.4927
  276ccc     C1 7655   4.970   8.176   9.544 -0.4410  0.1176  0.1777
  276ccc     C2 7656   5.030   8.044   9.495 -0.2738  0.1867 -0.4303
  276ccc     H1 7657   4.931   8.160   9.645 -0.0280 -1.1047  0.1644
  276ccc     H2 7658   5.109   8.015   9.565  0.5275 -0.9225 -1.7233
  276ccc     C3 7659   4.919   7.937   9.510 -0.0871  0.1493 -0.0708
  276ccc     C4 7660   4.792   7.977   9.423 -0.3202  0.4861  0.2755
  276ccc     C5 7661   4.753   8.123   9.446  1.0137 -0.4211  0.1802
  276ccc     H3 7662   4.821   7.951   9.320 -0.6405  0.7009  0.1291
  276ccc     H4 7663   4.887   7.932   9.615  1.8444  0.6950  0.5960
  276ccc     H5 7664   4.706   8.127   9.545 -1.2964  0.2285 -0.8673
  276ccc     O1 7665   4.658   8.165   9.342 -0.5338 -0.3774  0.0390
  276ccc     O2 7666   4.686   7.890   9.466  0.7488  0.2778 -0.2713
  276ccc     O3 7667   4.976   7.804   9.477 -0.2850 -0.0296  0.1489
  276ccc     O4 7668   5.082   8.056   9.366  0.2865 -0.0828  0.3587
  276ccc     C6 7669   5.077   8.282   9.541  0.2869  0.3251  0.4102
  276ccc     H6 7670   5.072   7.811   9.469 -0.2365 -0.9423 -0.2091
  276ccc     H7 7671   5.178   8.065   9.374  0.2271  0.0109  0.9738
  276ccc     H8 7672   4.714   7.798   9.479  0.8374  0.6352  2.9737
  276ccc     H9 7673   5.086   8.321   9.439 -1.7617 -0.1449  0.0051
  276ccc    H10 7674   5.176   8.239   9.561  0.0165 -0.2612  0.5184
  276ccc     O5 7675   5.050   8.381   9.638 -0.1577 -0.0345  0.9052
  276ccc    H11 7676   5.092   8.460   9.602 -1.4760  1.4779  2.4996
  276ccc     O6 7677   4.865   8.211   9.450 -0.1020 -0.1225 -0.1402
  277ccc     C1 7678   3.827   8.668  10.630  0.6433 -0.5552  0.1409
  277ccc     C2 7679   3.707   8.598  10.708 -0.2413 -0.0708  0.3173
  277ccc     H1 7680   3.804   8.773  10.610  2.2219 -0.1724  0.2250
  277ccc     H2 7681   3.682   8.661  10.794 -1.1673 -0.5707  0.4338
  277ccc     C3 7682   3.583   8.603  10.618  0.2818 -0.1861  0.4376
  277ccc     C4 7683   3.616   8.535  10.477  0.2760 -0.0158 -0.1315
  277ccc     C5 7684   3.742   8.594  10.410  0.0160 -0.1423 -0.5661
  277ccc     H3 7685   3.639   8.429  10.496 -0.6400 -0.4131 -1.1766
  277ccc     H4 7686   3.566   8.710  10.598 -1.0920 -0.4470  0.0963
  277ccc     H5 7687   3.733   8.701  10.383 -0.3980 -0.6005 -2.4264
  277ccc     O1 7688   3.772   8.513  10.291  0.1697  0.2516  0.5043
  277ccc     O2 7689   3.501   8.551  10.392 -0.9475  0.1995  0.2809
  277ccc     O3 7690   3.469   8.542  10.675 -0.0785  0.0162  0.1020
  277ccc     O4 7691   3.739   8.466  10.745  0.3898  0.1647 -0.5324
  277ccc     C6 7692   3.951   8.667  10.723  0.0510  0.2646  0.2602
  277ccc     H6 7693   3.461   8.461  10.623 -0.4939  0.4742 -0.5634
  277ccc     H7 7694   3.660   8.446  10.797 -0.5556  2.2783 -1.0083
  277ccc     H8 7695   3.499   8.471  10.336  0.0373  1.1391 -1.1625
  277ccc     H9 7696   3.993   8.566  10.713 -3.1837 -1.3110  1.2155
  277ccc    H10 7697   3.924   8.690  10.826 -0.4839  1.8528 -0.2048
  277ccc     O5 7698   4.051   8.753  10.669 -0.0490  0.1653  0.1764
  277ccc    H11 7699   4.140   8.729  10.698 -0.6681  0.6881  2.7551
  277ccc     O6 7700   3.845   8.590  10.512  0.0628 -0.3949  0.2291
  278ccc     C1 7701   4.573   7.835   9.907 -0.6456 -0.6335  0.1909
  278ccc     C2 7702   4.505   7.735   9.813  0.0898 -0.7574  1.0560
  278ccc     H1 7703   4.595   7.790  10.005  1.2282  0.7211  0.4429
  278ccc     H2 7704   4.575   7.652   9.801  3.1346  1.8074 -0.2524
  278ccc     C3 7705   4.367   7.702   9.869  0.3836 -0.1805 -0.1502
  278ccc     C4 7706   4.277   7.830   9.884 -0.8639  0.8093  0.0253
  278ccc     C5 7707   4.354   7.937   9.975 -0.1706 -0.8842 -0.3611
  278ccc     H3 7708   4.263   7.867   9.782  3.3506  0.2190 -0.9429
  278ccc     H4 7709   4.381   7.664   9.971  1.2729 -0.0064 -0.2029
  278ccc     H5 7710   4.368   7.907  10.079  0.4950  0.5488 -0.0171
  278ccc     O1 7711   4.280   8.062   9.956 -0.1109  0.5513  0.1444
  278ccc     O2 7712   4.156   7.790   9.944 -0.1692 -0.0354 -0.1878
  278ccc     O3 7713   4.303   7.608   9.785 -0.0674 -0.1143  0.0761
  278ccc     O4 7714   4.500   7.803   9.683 -0.2596  0.4083 -0.3027
  278ccc     C6 7715   4.708   7.873   9.856  0.1126  0.1517  0.0642
  278ccc     H6 7716   4.277   7.660   9.707  1.4761  1.1519  0.3508
  278ccc     H7 7717   4.581   7.857   9.682  0.8685 -1.1543 -2.4073
  278ccc     H8 7718   4.099   7.749   9.876 -0.8400  0.4982  0.0494
  278ccc     H9 7719   4.766   7.793   9.810  1.8737  2.3403 -1.7714
  278ccc    H10 7720   4.767   7.909   9.941  0.0506  0.5836 -0.0699
  278ccc     O5 7721   4.692   7.970   9.754 -0.2636  0.1463 -0.5773
  278ccc    H11 7722   4.733   8.051   9.791  2.6932 -1.3052 -0.3267
  278ccc     O6 7723   4.490   7.952   9.920 -0.8050  0.2426 -0.4939
  279ccc     C1 7724   2.284   9.639   7.559 -0.0627 -0.1406 -0.6144
  279ccc     C2 7725   2.206   9.644   7.692  0.1097  0.3880 -0.1109
  279ccc     H1 7726   2.238   9.561   7.498  0.6869 -0.0351 -1.3426
  279ccc     H2 7727   2.100   9.643   7.664  0.5778  0.7998 -1.9941
  279ccc     C3 7728   2.233   9.515   7.770  0.0897  0.3996 -0.0687
  279ccc     C4 7729   2.386   9.487   7.784 -0.3195  1.1996 -0.1809
  279ccc     C5 7730   2.460   9.493   7.644  0.0027  0.1699  1.0765
  279ccc     H3 7731   2.433   9.562   7.848 -0.6259 -0.4325  2.0717
  279ccc     H4 7732   2.182   9.433   7.717  0.0312  1.2347 -1.3687
  279ccc     H5 7733   2.424   9.417   7.574  0.3764  1.1885 -0.2619
  279ccc     O1 7734   2.608   9.495   7.655 -0.0886 -0.4703 -0.4259
  279ccc     O2 7735   2.393   9.351   7.839 -0.3212  0.1691 -0.4299
  279ccc     O3 7736   2.179   9.519   7.907  0.3279 -0.4604 -0.2096
  279ccc     O4 7737   2.241   9.761   7.768 -0.0647 -0.2021  0.2977
  279ccc     C6 7738   2.260   9.763   7.479 -0.0467  0.1646  1.3445
  279ccc     H6 7739   2.082   9.513   7.901  0.3298 -0.2657 -0.4986
  279ccc     H7 7740   2.167   9.780   7.827  1.2640 -2.2605  2.8300
  279ccc     H8 7741   2.334   9.355   7.916  1.4285 -0.7573  1.0141
  279ccc     H9 7742   2.311   9.852   7.519  1.3009  0.2335 -0.4192
  279ccc    H10 7743   2.151   9.779   7.477 -0.2843 -1.1164 -1.8170
  279ccc     O5 7744   2.295   9.729   7.344  0.0900 -0.5587  0.7785
  279ccc    H11 7745   2.389   9.755   7.349  0.1713 -0.1110 -1.7038
  279ccc     O6 7746   2.427   9.620   7.579 -0.0799  0.6046 -0.0057
  280ccc     C1 7747   2.573  10.037   8.089  0.3515  0.4989  0.0840
  280ccc     C2 7748   2.448  10.048   7.989 -0.6372  0.1358  0.5193
  280ccc     H1 7749   2.642  10.110   8.046  0.0764  0.4938 -0.3739
  280ccc     H2 7750   2.424  10.155   7.978  2.3933  0.8235 -0.2588
  280ccc     C3 7751   2.493  10.009   7.852 -0.3251  0.3292 -0.0514
  280ccc     C4 7752   2.577   9.882   7.833  1.0102  0.2591 -0.0960
  280ccc     C5 7753   2.675   9.865   7.949  0.6086 -0.4329 -0.1388
  280ccc     H3 7754   2.514   9.793   7.828  0.0123  0.8950  0.6953
  280ccc     H4 7755   2.559  10.090   7.817 -3.2071  2.8631  0.0367
  280ccc     H5 7756   2.765   9.920   7.921  0.3686 -0.2441 -0.5434
  280ccc     O1 7757   2.701   9.721   7.947 -0.2289 -0.0333 -0.0745
  280ccc     O2 7758   2.649   9.905   7.711 -0.3979 -0.6596  0.0010
  280ccc     O3 7759   2.382  10.007   7.755 -0.4133  0.1248 -0.0315
  280ccc     O4 7760   2.350   9.957   8.039 -0.0873  0.0530 -0.0996
  280ccc     C6 7761   2.545  10.073   8.232 -0.5950 -0.1159 -0.2330
  280ccc     H6 7762   2.333   9.923   7.763 -1.2944  0.5451 -0.7413
  280ccc     H7 7763   2.262   9.997   8.033 -2.1807 -3.8086  1.3971
  280ccc     H8 7764   2.578   9.921   7.646  0.9359 -3.1086 -2.2333
  280ccc     H9 7765   2.504  10.174   8.240  1.4945  0.6581  1.4873
  280ccc    H10 7766   2.644  10.079   8.279 -0.5851 -1.9403  0.0435
  280ccc     O5 7767   2.464   9.978   8.292 -0.2154 -0.4837  0.4167
  280ccc    H11 7768   2.422   9.933   8.217  2.5100 -3.2043  0.3095
  280ccc     O6 7769   2.624   9.907   8.081 -0.1488  0.6323  0.3184
  281ccc     C1 7770   2.919   8.695   6.394 -0.5833 -0.0007  0.1052
  281ccc     C2 7771   2.807   8.627   6.311 -1.0067  0.2563 -0.0503
  281ccc     H1 7772   2.991   8.709   6.311 -3.1150 -0.6433 -2.3568
  281ccc     H2 7773   2.796   8.684   6.218 -0.9279 -0.4246 -0.4789
  281ccc     C3 7774   2.849   8.484   6.270  0.7031  0.8244  0.8344
  281ccc     C4 7775   2.897   8.401   6.394  0.2057 -0.0797  0.3534
  281ccc     C5 7776   3.014   8.479   6.458 -0.4279  0.2605 -0.1096
  281ccc     H3 7777   2.808   8.407   6.457 -0.1602 -0.9048 -0.0739
  281ccc     H4 7778   2.936   8.494   6.204  0.0758 -0.1383 -0.1859
  281ccc     H5 7779   3.098   8.479   6.387  0.8735 -0.3253  1.3617
  281ccc     O1 7780   3.045   8.412   6.587  0.3065  0.1147  0.5022
  281ccc     O2 7781   2.931   8.267   6.343 -0.5473 -0.2832  0.1361
  281ccc     O3 7782   2.740   8.416   6.205  0.1785  0.0733  0.5523
  281ccc     O4 7783   2.690   8.624   6.395 -0.3279 -0.2300  0.0915
  281ccc     C6 7784   2.889   8.834   6.451  0.0685  0.0217  0.3386
  281ccc     H6 7785   2.711   8.477   6.134 -0.2749  0.7472  1.3051
  281ccc     H7 7786   2.729   8.688   6.457  0.0528  2.1522 -2.4510
  281ccc     H8 7787   2.849   8.249   6.294 -0.4498 -2.1900  0.5903
  281ccc     H9 7788   2.856   8.897   6.368  0.6809  1.1743  0.9438
  281ccc    H10 7789   2.975   8.879   6.504 -0.1467  0.8113  0.0309
  281ccc     O5 7790   2.777   8.822   6.542 -0.3016  0.7967  0.8787
  281ccc    H11 7791   2.731   8.906   6.561 -0.0800  1.0773  0.1909
  281ccc     O6 7792   2.973   8.612   6.498 -0.5606 -0.0251  0.0321
  282ccc     C1 7793   2.980   9.154   6.753  0.1021 -0.1893  0.1365
  282ccc     C2 7794   3.134   9.142   6.757  0.5433 -0.1939  0.9208
  282ccc     H1 7795   2.949   9.226   6.830 -2.6395 -0.5135 -0.5670
  282ccc     H2 7796   3.184   9.239   6.755  1.3168 -0.5935  0.3325
  282ccc     C3 7797   3.178   9.084   6.894 -0.0109  0.4531 -0.3096
  282ccc     C4 7798   3.104   8.946   6.921 -0.7475  0.0739 -0.5914
  282ccc     C5 7799   2.954   8.964   6.912  0.3368  0.7091  0.7362
  282ccc     H3 7800   3.135   8.884   6.836  1.3926  1.2740 -0.7760
  282ccc     H4 7801   3.144   9.153   6.973 -0.7808 -0.4656  0.1852
  282ccc     H5 7802   2.921   9.024   6.997 -0.7957  0.7676  0.2748
  282ccc     O1 7803   2.881   8.835   6.928  0.2908 -0.0126  0.1448
  282ccc     O2 7804   3.151   8.886   7.050  0.0795  0.3481  0.7235
  282ccc     O3 7805   3.321   9.070   6.892  0.2244 -0.3119 -0.2430
  282ccc     O4 7806   3.172   9.051   6.652 -0.8451 -0.4333  0.2054
  282ccc     C6 7807   2.918   9.209   6.624  0.1067  0.5099 -0.0918
  282ccc     H6 7808   3.350   9.129   6.964 -3.6222 -1.3932  2.5082
  282ccc     H7 7809   3.247   9.007   6.696 -0.7275  0.2167  0.6765
  282ccc     H8 7810   3.245   8.910   7.058 -0.4370  2.1534  1.8816
  282ccc     H9 7811   2.901   9.130   6.550 -0.4190  2.1529 -1.8313
  282ccc    H10 7812   2.981   9.288   6.580  1.7493 -1.7299 -1.9908
  282ccc     O5 7813   2.792   9.261   6.666 -0.7117 -0.5039 -0.0015
  282ccc    H11 7814   2.770   9.313   6.586  0.3681 -1.2312 -0.8022
  282ccc     O6 7815   2.924   9.025   6.781 -0.4112 -0.0693 -0.0145
  283ccc     C1 7816   2.300   7.681   8.106 -0.3410  0.1153  0.0780
  283ccc     C2 7817   2.431   7.695   8.192  0.1073 -0.4221  0.8562
  283ccc     H1 7818   2.311   7.605   8.028 -1.1429  0.4781 -0.4038
  283ccc     H2 7819   2.457   7.598   8.237  2.3892 -0.0735  0.3796
  283ccc     C3 7820   2.551   7.756   8.113 -0.1071 -0.2301 -0.2037
  283ccc     C4 7821   2.505   7.890   8.059 -0.7498 -0.0579 -0.0092
  283ccc     C5 7822   2.372   7.874   7.981  0.6097 -0.3396  0.1549
  283ccc     H3 7823   2.477   7.957   8.141 -0.4812 -0.7905  0.6895
  283ccc     H4 7824   2.573   7.688   8.030  2.0931 -1.2832  1.1522
  283ccc     H5 7825   2.381   7.811   7.892 -2.1889  2.2153 -2.1817
  283ccc     O1 7826   2.335   8.007   7.947  0.7890 -0.1476  0.0657
  283ccc     O2 7827   2.601   7.946   7.963  0.6794  0.0996  0.0708
  283ccc     O3 7828   2.667   7.766   8.193  0.4923 -0.0039 -0.1237
  283ccc     O4 7829   2.413   7.779   8.303  0.1409 -0.2629 -0.6673
  283ccc     C6 7830   2.188   7.621   8.197  0.4908 -0.6025 -0.1468
  283ccc     H6 7831   2.694   7.678   8.225 -1.1499 -0.5884 -0.2485
  283ccc     H7 7832   2.363   7.721   8.363  1.8067 -0.0702  0.9948
  283ccc     H8 7833   2.630   8.028   8.005 -1.7870  1.1898 -0.2021
  283ccc     H9 7834   2.163   7.688   8.281 -0.2344  0.6319 -1.3142
  283ccc    H10 7835   2.219   7.524   8.239 -1.3420 -0.5027  1.5881
  283ccc     O5 7836   2.065   7.593   8.120  0.2422  0.4860 -0.3524
  283ccc    H11 7837   2.041   7.682   8.088  1.5882  1.1236  0.2890
  283ccc     O6 7838   2.271   7.815   8.064  0.2425 -0.3696  0.9103
  284ccc     C1 7839   1.663   8.373   7.030 -0.7754  0.2604 -0.2851
  284ccc     C2 7840   1.694   8.229   6.980  0.1206 -1.1057 -0.2082
  284ccc     H1 7841   1.694   8.445   6.954 -0.3109 -1.7575 -2.0999
  284ccc     H2 7842   1.632   8.209   6.893  0.5011 -0.4790 -0.6356
  284ccc     C3 7843   1.847   8.218   6.950 -0.3475  0.1843  0.3660
  284ccc     C4 7844   1.925   8.251   7.080 -0.1465 -0.0231 -0.4469
  284ccc     C5 7845   1.887   8.395   7.133 -0.1864  1.0539  0.4036
  284ccc     H3 7846   1.895   8.184   7.161 -0.1000 -0.1628 -0.5443
  284ccc     H4 7847   1.873   8.280   6.864 -1.2909 -1.7107 -1.3619
  284ccc     H5 7848   1.917   8.459   7.049  0.9984  2.0030  1.5175
  284ccc     O1 7849   1.957   8.415   7.259 -0.1545  0.0975 -0.2799
  284ccc     O2 7850   2.072   8.238   7.066 -0.0545  0.0644 -0.4083
  284ccc     O3 7851   1.878   8.086   6.899 -0.1603 -0.0558  0.2116
  284ccc     O4 7852   1.670   8.138   7.087  0.1433  0.0255 -0.7210
  284ccc     C6 7853   1.524   8.410   7.067  0.9632 -0.2172 -0.4283
  284ccc     H6 7854   1.880   8.106   6.804  0.1156  0.5299  0.3344
  284ccc     H7 7855   1.657   8.053   7.041  0.6310 -0.4617  0.0144
  284ccc     H8 7856   2.117   8.185   7.135  2.4355  1.9779 -0.4253
  284ccc     H9 7857   1.465   8.417   6.975 -2.1442 -2.1758  1.2398
  284ccc    H10 7858   1.538   8.509   7.114  0.5006 -1.3905  2.3550
  284ccc     O5 7859   1.472   8.311   7.154  0.1734  0.0587  0.2252
  284ccc    H11 7860   1.543   8.246   7.141 -0.5392 -0.5663 -0.7699
  284ccc     O6 7861   1.748   8.391   7.151 -0.4267  0.4521 -0.4784
  285ccc     C1 7862   1.649   7.561   7.047 -0.3909  0.1311  0.0178
  285ccc     C2 7863   1.616   7.680   6.960  0.0731 -0.0622  0.2382
  285ccc     H1 7864   1.621   7.580   7.152  2.0772 -1.2661  1.0081
  285ccc     H2 7865   1.507   7.692   6.959  0.0687 -0.1258 -0.6354
  285ccc     C3 7866   1.678   7.804   7.017  0.6716  0.1669 -0.2175
  285ccc     C4 7867   1.836   7.786   7.016  0.6878 -0.2416  0.2624
  285ccc     C5 7868   1.876   7.653   7.070  0.0935 -0.4306  0.3000
  285ccc     H3 7869   1.858   7.791   6.908 -0.0511  1.5153  0.1540
  285ccc     H4 7870   1.643   7.820   7.119 -2.2085  0.1945 -1.1241
  285ccc     H5 7871   1.884   7.666   7.178  0.4051 -1.9958  0.4981
  285ccc     O1 7872   2.014   7.612   7.042 -0.6618  0.7936 -0.1442
  285ccc     O2 7873   1.897   7.897   7.085 -0.0386 -0.2299 -0.2342
  285ccc     O3 7874   1.639   7.921   6.946 -0.2418  0.2806  0.0302
  285ccc     O4 7875   1.662   7.652   6.831 -0.0117  0.1294 -0.1315
  285ccc     C6 7876   1.590   7.428   6.990  0.2530 -0.7628 -0.1991
  285ccc     H6 7877   1.654   7.899   6.852  2.4251  0.9454  0.2255
  285ccc     H7 7878   1.586   7.681   6.778  0.8554  2.5510 -0.1687
  285ccc     H8 7879   1.903   7.976   7.029 -0.7313  0.9980  1.3568
  285ccc     H9 7880   1.652   7.394   6.906 -0.5412 -1.0283 -0.6916
  285ccc    H10 7881   1.483   7.425   6.966  0.4662  1.0086 -1.5843
  285ccc     O5 7882   1.618   7.335   7.096 -0.4244  0.0896  0.1495
  285ccc    H11 7883   1.700   7.295   7.064 -0.7935 -0.5086 -0.0609
  285ccc     O6 7884   1.789   7.540   7.038 -0.2371  0.1156 -0.2576
  286ccc     C1 7885   2.096   8.141   6.587  0.6897 -0.0541 -0.4690
  286ccc     C2 7886   1.960   8.079   6.535  0.0785 -0.3833  0.0091
  286ccc     H1 7887   2.163   8.117   6.505  0.5262 -2.3257  0.0121
  286ccc     H2 7888   1.932   8.124   6.440  0.3985  1.9805  0.9642
  286ccc     C3 7889   1.970   7.923   6.520 -0.6544  0.1890 -0.2887
  286ccc     C4 7890   2.038   7.851   6.646  0.2038  0.2429 -0.4208
  286ccc     C5 7891   2.159   7.931   6.703  0.4648 -0.2450 -0.5370
  286ccc     H3 7892   1.958   7.839   6.721  1.9958 -1.5354  1.3154
  286ccc     H4 7893   2.039   7.911   6.435 -0.6689  2.6595 -0.7139
  286ccc     H5 7894   2.248   7.913   6.642  1.3472  2.9965 -0.3786
  286ccc     O1 7895   2.182   7.877   6.839 -0.3922 -0.1907  0.4576
  286ccc     O2 7896   2.075   7.722   6.603 -0.0923 -0.5152 -0.1239
  286ccc     O3 7897   1.831   7.875   6.503 -0.3164 -0.0549  0.0263
  286ccc     O4 7898   1.874   8.120   6.638 -0.1395  0.3832 -0.4078
  286ccc     C6 7899   2.090   8.294   6.604 -1.0138 -0.3408 -0.5409
  286ccc     H6 7900   1.828   7.793   6.451 -1.7843  0.5898 -0.9435
  286ccc     H7 7901   1.795   8.146   6.589 -0.2005  0.7262 -0.1343
  286ccc     H8 7902   1.995   7.675   6.633  0.8841 -1.2059  1.5291
  286ccc     H9 7903   2.045   8.330   6.698  1.6315  1.2031  0.2560
  286ccc    H10 7904   2.035   8.331   6.517 -1.2134 -0.5701 -0.5123
  286ccc     O5 7905   2.231   8.344   6.606 -0.2082  1.2675 -0.2254
  286ccc    H11 7906   2.241   8.366   6.511  1.8809 -1.7657 -0.8685
  286ccc     O6 7907   2.131   8.072   6.709 -0.7068 -0.1986  0.3710
  287ccc     C1 7908   2.065   5.726  12.424 -0.0588 -0.1684  0.8323
  287ccc     C2 7909   2.047   5.776  12.567  0.5746  0.2182 -0.0286
  287ccc     H1 7910   2.174   5.714  12.414 -0.1557 -0.4418 -0.0069
  287ccc     H2 7911   2.095   5.696  12.624  0.8304  0.0032 -0.5480
  287ccc     C3 7912   2.109   5.911  12.594 -0.6767 -0.1458  0.2429
  287ccc     C4 7913   2.063   6.011  12.490  0.1612  0.0185  0.2294
  287ccc     C5 7914   2.075   5.957  12.340 -0.1226  0.2709  0.6621
  287ccc     H3 7915   1.959   6.036  12.512 -0.7308 -1.2043 -2.2232
  287ccc     H4 7916   2.216   5.892  12.576 -1.3154 -2.5113 -1.5585
  287ccc     H5 7917   2.180   5.956  12.308 -0.3399  0.7328 -0.0719
  287ccc     O1 7918   2.001   6.044  12.251  0.3955 -0.0451  0.2561
  287ccc     O2 7919   2.144   6.129  12.497  0.0463 -0.4307  0.0448
  287ccc     O3 7920   2.095   5.964  12.729  0.0323  0.5099 -0.2448
  287ccc     O4 7921   1.910   5.784  12.592  0.0470 -0.6222 -0.2522
  287ccc     C6 7922   2.012   5.585  12.394  0.9688 -0.2980 -0.1959
  287ccc     H6 7923   2.001   5.987  12.744  0.1387 -0.1438  1.6501
  287ccc     H7 7924   1.899   5.782  12.688  0.4070 -0.1871 -0.2023
  287ccc     H8 7925   2.099   6.168  12.573  0.2538 -0.5281  0.2181
  287ccc     H9 7926   1.903   5.587  12.379  1.0637 -2.2459 -1.6092
  287ccc    H10 7927   2.044   5.522  12.478  1.1508 -0.7321 -0.5877
  287ccc     O5 7928   2.073   5.545  12.279  0.3324  0.7190  0.3977
  287ccc    H11 7929   2.067   5.447  12.278 -1.3986  0.8009  0.0635
  287ccc     O6 7930   2.019   5.824  12.329  0.1047  0.3745 -0.3809
  288ccc     C1 7931   2.143   5.497  11.684  0.3749  0.0335 -0.2434
  288ccc     C2 7932   2.289   5.487  11.727 -0.0570  0.3680 -0.1217
  288ccc     H1 7933   2.121   5.599  11.652 -0.2728  0.6577  2.0257
  288ccc     H2 7934   2.353   5.516  11.642 -0.3884 -3.1345 -1.7231
  288ccc     C3 7935   2.316   5.579  11.849 -0.1641  0.5937  0.0280
  288ccc     C4 7936   2.199   5.557  11.962 -0.9436 -0.0929  0.3240
  288ccc     C5 7937   2.058   5.550  11.897  0.1735 -0.0872  0.0873
  288ccc     H3 7938   2.226   5.464  12.013  0.7388  0.0960 -0.1657
  288ccc     H4 7939   2.303   5.679  11.805  0.7652  0.1319 -1.3775
  288ccc     H5 7940   2.011   5.646  11.873  0.4651  0.2252  0.7406
  288ccc     O1 7941   1.978   5.488  11.993 -0.0420  0.7930 -0.4704
  288ccc     O2 7942   2.205   5.660  12.060  0.3173 -1.1620 -0.1039
  288ccc     O3 7943   2.457   5.567  11.893  0.4260  0.3781 -0.3083
  288ccc     O4 7944   2.312   5.358  11.789 -0.5360 -0.0517 -0.1486
  288ccc     C6 7945   2.111   5.404  11.569  0.7664  0.2765 -0.1725
  288ccc     H6 7946   2.498   5.507  11.829  1.0279 -0.4421  0.8073
  288ccc     H7 7947   2.298   5.286  11.725 -1.4065 -0.2332  0.2228
  288ccc     H8 7948   2.159   5.630  12.141 -0.6191 -0.5863 -0.4110
  288ccc     H9 7949   2.078   5.306  11.605  2.5009 -0.5848 -0.8040
  288ccc    H10 7950   2.193   5.394  11.496  0.0502  1.6707 -1.2342
  288ccc     O5 7951   2.004   5.472  11.497  0.1489  0.7789  0.5889
  288ccc    H11 7952   1.925   5.451  11.550 -0.1903  0.8705  0.1274
  288ccc     O6 7953   2.051   5.464  11.785  0.0354 -0.8915 -0.2909
  289ccc     C1 7954   2.427   6.428  12.663  0.2609 -0.3612  0.1931
  289ccc     C2 7955   2.517   6.308  12.647  0.3280 -0.2168 -0.5600
  289ccc     H1 7956   2.332   6.399  12.710 -0.3699  1.7639  0.3347
  289ccc     H2 7957   2.525   6.249  12.739  0.1856  1.2283  0.4087
  289ccc     C3 7958   2.463   6.206  12.542 -0.7976  0.3461  0.1643
  289ccc     C4 7959   2.402   6.281  12.415 -0.3406 -0.2368  0.8559
  289ccc     C5 7960   2.323   6.411  12.453  0.6895  0.0227 -0.0132
  289ccc     H3 7961   2.489   6.309  12.354  0.4721 -0.1125  2.0430
  289ccc     H4 7962   2.379   6.150  12.585 -1.4419  0.6019 -0.7244
  289ccc     H5 7963   2.230   6.386  12.504 -2.3408  3.1274 -3.3860
  289ccc     O1 7964   2.281   6.495  12.345  0.2428 -0.6543 -0.0271
  289ccc     O2 7965   2.334   6.194  12.333 -0.2776 -0.1243  0.2151
  289ccc     O3 7966   2.569   6.112  12.503  0.1036  0.2897 -0.1756
  289ccc     O4 7967   2.649   6.354  12.604  0.3620  0.0276 -0.3122
  289ccc     C6 7968   2.483   6.529  12.763 -0.3689 -0.5390 -0.2949
  289ccc     H6 7969   2.524   6.035  12.464  1.6371 -0.5040 -0.4572
  289ccc     H7 7970   2.683   6.267  12.576 -0.2731 -0.3126 -0.0381
  289ccc     H8 7971   2.261   6.163  12.390 -0.2071  0.3059  0.5407
  289ccc     H9 7972   2.558   6.599  12.724 -0.0446 -0.1969  0.9189
  289ccc    H10 7973   2.532   6.469  12.840  2.7954  0.4346 -1.3748
  289ccc     O5 7974   2.376   6.608  12.812 -0.0260 -0.0246 -0.1938
  289ccc    H11 7975   2.409   6.700  12.819  0.2661 -0.2478  1.8914
  289ccc     O6 7976   2.403   6.485  12.539  0.1451 -0.5934 -0.5705
  290ccc     C1 7977   1.393   7.128  12.278 -0.3801  0.0219 -0.3270
  290ccc     C2 7978   1.293   7.038  12.355 -0.3074 -0.7314  0.2766
  290ccc     H1 7979   1.359   7.150  12.176 -0.1042 -0.2913 -0.4879
  290ccc     H2 7980   1.200   7.090  12.381  0.8884  1.2584  0.7573
  290ccc     C3 7981   1.266   6.901  12.281 -0.1170  0.5694 -0.3370
  290ccc     C4 7982   1.403   6.834  12.250 -0.6600 -0.7105  1.0288
  290ccc     C5 7983   1.498   6.931  12.179  0.7303 -0.0246  0.1631
  290ccc     H3 7984   1.440   6.794  12.345 -1.3480 -2.0614  0.7431
  290ccc     H4 7985   1.214   6.920  12.186 -1.4194 -0.4300  0.1408
  290ccc     H5 7986   1.463   6.955  12.078  1.2105 -1.0305 -0.2471
  290ccc     O1 7987   1.626   6.863  12.167 -0.6268  0.5000 -0.2050
  290ccc     O2 7988   1.366   6.730  12.160  0.2406  0.1612  0.4316
  290ccc     O3 7989   1.197   6.810  12.363  0.6391  0.2372  0.0484
  290ccc     O4 7990   1.366   7.013  12.473  0.2501  0.1205 -0.7432
  290ccc     C6 7991   1.430   7.263  12.343 -0.6000  0.0682  0.1672
  290ccc     H6 7992   1.242   6.787  12.446  0.0989 -0.3077  0.1999
  290ccc     H7 7993   1.416   7.095  12.487  1.7558 -0.5831 -1.7537
  290ccc     H8 7994   1.286   6.697  12.205 -0.6254  2.8678  1.0834
  290ccc     H9 7995   1.339   7.323  12.352  1.1009  2.5039  2.5339
  290ccc    H10 7996   1.504   7.311  12.277  0.7568 -1.6604  0.3455
  290ccc     O5 7997   1.495   7.236  12.470  0.3304  0.0948 -0.6548
  290ccc    H11 7998   1.538   7.322  12.486  0.2203  0.0616 -0.1730
  290ccc     O6 7999   1.509   7.049  12.255 -0.2915 -0.0656  0.2400
  291ccc     C1 8000   0.706   6.358  11.110 -0.7504  0.0813 -0.4292
  291ccc     C2 8001   0.750   6.262  10.997  0.3809  0.7034  0.7257
  291ccc     H1 8002   0.730   6.462  11.084  1.1890 -0.7421 -2.2952
  291ccc     H2 8003   0.717   6.314  10.906 -0.2416 -0.3301  0.3415
  291ccc     C3 8004   0.902   6.250  10.987  0.1344 -0.2500 -0.8033
  291ccc     C4 8005   0.963   6.204  11.125  0.6326  0.4389 -0.4161
  291ccc     C5 8006   0.914   6.308  11.231  0.6817 -0.3279 -0.1487
  291ccc     H3 8007   0.910   6.110  11.141  1.8381 -0.1907 -0.0260
  291ccc     H4 8008   0.949   6.346  10.962  1.0176  0.4336  2.9433
  291ccc     H5 8009   0.954   6.408  11.212 -0.5417  0.7954  2.6062
  291ccc     O1 8010   0.958   6.261  11.360 -0.8787 -0.2324 -0.0019
  291ccc     O2 8011   1.104   6.185  11.131 -0.4464 -0.0492  0.3347
  291ccc     O3 8012   0.933   6.154  10.881 -0.1081 -0.4978 -0.0582
  291ccc     O4 8013   0.683   6.134  11.016  0.3670 -0.0543 -0.2092
  291ccc     C6 8014   0.554   6.367  11.136  0.3340 -0.0722  0.5135
  291ccc     H6 8015   0.849   6.110  10.857  0.5238 -1.6124 -0.3449
  291ccc     H7 8016   0.619   6.168  11.081 -0.5467 -1.7130 -0.1726
  291ccc     H8 8017   1.124   6.119  11.063  0.1569 -1.6329  1.9654
  291ccc     H9 8018   0.508   6.397  11.041  1.0845 -0.4533  0.0165
  291ccc    H10 8019   0.523   6.439  11.212 -1.0306 -1.6769  1.5383
  291ccc     O5 8020   0.506   6.235  11.168  0.2546 -0.0466  0.2492
  291ccc    H11 8021   0.410   6.254  11.171  0.1167 -0.7791  0.6134
  291ccc     O6 8022   0.771   6.319  11.236  0.0254 -0.2194  0.6337
  292ccc     C1 8023   0.434   5.758  12.070 -0.3480 -0.3242 -0.1380
  292ccc     C2 8024   0.316   5.856  12.052 -0.0871  0.4100 -0.6638
  292ccc     H1 8025   0.470   5.785  12.169 -1.7996 -0.2476  0.3929
  292ccc     H2 8026   0.239   5.841  12.129 -1.1027 -0.5674 -1.8453
  292ccc     C3 8027   0.364   6.002  12.076 -0.4182  0.7318 -0.0630
  292ccc     C4 8028   0.498   6.032  12.003  0.1566  0.3323 -0.2535
  292ccc     C5 8029   0.602   5.918  11.990  0.6804 -0.2008 -0.2626
  292ccc     H3 8030   0.469   6.052  11.899  1.4115  0.2209 -0.6383
  292ccc     H4 8031   0.392   5.993  12.182 -3.0281 -0.1575  0.6334
  292ccc     H5 8032   0.657   5.933  12.083  0.3579  0.2573 -0.1434
  292ccc     O1 8033   0.689   5.952  11.871  0.5758 -0.3669 -0.2910
  292ccc     O2 8034   0.551   6.151  12.071  0.9152  0.5150 -0.7383
  292ccc     O3 8035   0.267   6.113  12.068 -0.2353 -0.5214  0.0392
  292ccc     O4 8036   0.264   5.837  11.923  0.4007 -0.3147 -0.6164
  292ccc     C6 8037   0.377   5.615  12.068  0.5481  0.1396  0.2591
  292ccc     H6 8038   0.181   6.104  12.113 -1.6375  3.4202 -1.4080
  292ccc     H7 8039   0.193   5.904  11.922 -0.6983 -0.9832  4.0660
  292ccc     H8 8040   0.516   6.221  12.014  1.1208  0.3769 -1.0367
  292ccc     H9 8041   0.337   5.576  11.974 -0.2896 -0.0778  0.6949
  292ccc    H10 8042   0.295   5.610  12.141  1.3496 -0.1464  1.1767
  292ccc     O5 8043   0.478   5.536  12.123 -0.1068  0.2590 -0.0238
  292ccc    H11 8044   0.519   5.496  12.044  2.5644 -0.1960  1.4646
  292ccc     O6 8045   0.541   5.790  11.973  0.4362  0.1641 -0.0029
  293ccc     C1 8046   0.591   4.647  11.665 -0.2602 -1.2243  0.5684
  293ccc     C2 8047   0.445   4.675  11.694  0.0785 -0.4400  0.3935
  293ccc     H1 8048   0.643   4.643  11.762 -0.2024 -1.6650  0.5207
  293ccc     H2 8049   0.408   4.601  11.767 -1.2792  0.6767  0.8739
  293ccc     C3 8050   0.432   4.812  11.769 -0.0257  0.1393 -0.5350
  293ccc     C4 8051   0.502   4.924  11.688  0.0306  0.0065  0.6477
  293ccc     C5 8052   0.653   4.882  11.664  1.0015 -0.3989  0.2036
  293ccc     H3 8053   0.453   4.922  11.590  0.3467 -1.2122  0.5054
  293ccc     H4 8054   0.498   4.803  11.856 -0.6872 -4.0123 -0.2541
  293ccc     H5 8055   0.702   4.885  11.763  0.0683  0.2043  0.6581
  293ccc     O1 8056   0.705   4.979  11.569  0.0181 -0.2530 -0.1291
  293ccc     O2 8057   0.495   5.061  11.750 -0.6747  0.2630  0.4056
  293ccc     O3 8058   0.301   4.836  11.818  0.4995 -0.7132  0.3109
  293ccc     O4 8059   0.382   4.685  11.569  0.5669  0.9323 -0.4055
  293ccc     C6 8060   0.626   4.516  11.591  0.0084  0.5193 -0.0560
  293ccc     H6 8061   0.303   4.909  11.883 -1.3291  0.4239 -0.8142
  293ccc     H7 8062   0.313   4.753  11.571  0.2017  0.5640  0.0154
  293ccc     H8 8063   0.528   5.056  11.842 -0.1428 -0.9629  0.1743
  293ccc     H9 8064   0.587   4.432  11.650  0.1758  0.9484  0.6715
  293ccc    H10 8065   0.734   4.507  11.581  0.0267 -1.0357  1.2249
  293ccc     O5 8066   0.571   4.510  11.460 -0.1001 -0.3025  0.0045
  293ccc    H11 8067   0.488   4.561  11.464  0.6226  1.0905 -1.3388
  293ccc     O6 8068   0.659   4.750  11.598  0.5367 -0.7036 -0.0516
  294ccc     C1 8069   0.478   5.661  10.697 -0.3991 -0.2142 -0.1167
  294ccc     C2 8070   0.451   5.556  10.584  0.1136  0.0182 -0.3592
  294ccc     H1 8071   0.560   5.726  10.664 -1.3339  1.3558  0.5468
  294ccc     H2 8072   0.426   5.600  10.487  0.5649 -2.1504 -1.5241
  294ccc     C3 8073   0.580   5.472  10.572 -0.3020 -0.0356  0.1488
  294ccc     C4 8074   0.625   5.402  10.711  0.0653  1.0459  0.4764
  294ccc     C5 8075   0.654   5.516  10.819 -0.4380  0.4712  0.5928
  294ccc     H3 8076   0.536   5.347  10.744 -0.2597  1.2493 -0.0464
  294ccc     H4 8077   0.668   5.535  10.552 -0.1821  0.0687  0.9680
  294ccc     H5 8078   0.742   5.575  10.792 -1.3906  1.5066 -0.3158
  294ccc     O1 8079   0.665   5.448  10.950  0.5255  0.3517  0.4013
  294ccc     O2 8080   0.748   5.322  10.697  0.1700  0.2962 -0.6923
  294ccc     O3 8081   0.569   5.375  10.466  0.3209  0.2574  0.1795
  294ccc     O4 8082   0.340   5.484  10.635  0.4140  0.5372  0.0800
  294ccc     C6 8083   0.366   5.761  10.736  0.3688  0.0071 -0.3789
  294ccc     H6 8084   0.476   5.345  10.469 -0.2813  1.9566  0.1730
  294ccc     H7 8085   0.304   5.553  10.694 -1.4465  1.7014 -2.2118
  294ccc     H8 8086   0.728   5.231  10.724  1.7464  0.1352  0.0835
  294ccc     H9 8087   0.350   5.837  10.659 -0.6953 -0.1071 -0.2932
  294ccc    H10 8088   0.402   5.828  10.815  1.7771 -0.4002 -0.6569
  294ccc     O5 8089   0.248   5.686  10.776 -0.3578  0.6183  0.2221
  294ccc    H11 8090   0.187   5.761  10.791  1.1907  1.7603  1.1668
  294ccc     O6 8091   0.537   5.605  10.823  0.1845 -0.1876 -0.5839
  295ccc     C1 8092   4.148   5.197  12.591  0.1604 -0.2017 -0.8718
  295ccc     C2 8093   3.997   5.191  12.553 -0.6065  0.1573  0.1873
  295ccc     H1 8094   4.149   5.240  12.692 -0.9359  1.2727 -1.4417
  295ccc     H2 8095   3.936   5.122  12.612 -0.0144  0.6637  1.4198
  295ccc     C3 8096   3.930   5.330  12.560  0.2443 -0.2286  0.0865
  295ccc     C4 8097   4.014   5.430  12.477  0.1060 -0.5317  0.3678
  295ccc     C5 8098   4.163   5.428  12.516  0.4306  0.2899  0.3947
  295ccc     H3 8099   4.011   5.395  12.373  0.2621 -0.0911  0.2168
  295ccc     H4 8100   3.928   5.370  12.663 -0.7808 -1.1985  0.4582
  295ccc     H5 8101   4.178   5.461  12.619 -1.5202  2.7328 -0.0275
  295ccc     O1 8102   4.231   5.515  12.422 -0.2296  0.0127 -0.0761
  295ccc     O2 8103   3.947   5.559  12.478  0.0480 -0.1351  1.3445
  295ccc     O3 8104   3.785   5.327  12.532  0.3338  0.1285 -0.3752
  295ccc     O4 8105   4.006   5.147  12.423  0.2711  0.8518 -0.2656
  295ccc     C6 8106   4.234   5.066  12.581  0.3051 -0.3655  0.0205
  295ccc     H6 8107   3.775   5.271  12.453  0.3251  0.5024 -0.6445
  295ccc     H7 8108   4.099   5.119  12.424  0.6120  1.8634 -1.0209
  295ccc     H8 8109   3.856   5.546  12.445  1.1716 -0.6384 -2.0496
  295ccc     H9 8110   4.194   4.995  12.655 -0.2302  1.0016  1.0758
  295ccc    H10 8111   4.337   5.094  12.606 -0.0925  1.9061 -0.6398
  295ccc     O5 8112   4.227   5.020  12.453  0.0530 -0.2517  0.6906
  295ccc    H11 8113   4.298   4.954  12.445 -1.3354 -1.7481  0.2831
  295ccc     O6 8114   4.213   5.293  12.502  0.2263 -0.5188  0.2299
  296ccc     C1 8115   5.097   6.157  12.711  0.0334  0.4800  0.5257
  296ccc     C2 8116   5.149   6.272  12.628  0.0745  0.2005 -0.2345
  296ccc     H1 8117   5.174   6.079  12.706 -2.0465 -1.7233  0.9663
  296ccc     H2 8118   5.255   6.289  12.652  0.6592 -0.7671 -1.9735
  296ccc     C3 8119   5.161   6.237  12.474  0.0655 -0.6596 -0.1306
  296ccc     C4 8120   5.027   6.177  12.421 -0.0809 -0.0552  0.2986
  296ccc     C5 8121   4.987   6.057  12.518  0.2847  0.0498  0.1218
  296ccc     H3 8122   4.958   6.259  12.447  0.7100  0.1926  1.7136
  296ccc     H4 8123   5.239   6.160  12.476  2.3709  1.5470  0.6501
  296ccc     H5 8124   5.054   5.971  12.512 -1.0942 -0.9822 -1.3246
  296ccc     O1 8125   4.851   6.006  12.477 -0.1548  0.4131  0.6367
  296ccc     O2 8126   5.035   6.138  12.285 -0.3386 -0.1455 -0.1718
  296ccc     O3 8127   5.209   6.353  12.406 -0.3750  0.5717  0.5811
  296ccc     O4 8128   5.079   6.394  12.644 -0.3225 -0.2676 -0.1685
  296ccc     C6 8129   5.070   6.203  12.854  0.0369  0.0949  0.1415
  296ccc     H6 8130   5.296   6.375  12.443  0.4475 -1.2056 -0.1722
  296ccc     H7 8131   4.984   6.376  12.647  0.1037 -2.6210  1.5182
  296ccc     H8 8132   4.947   6.103  12.264  0.2295 -1.4506 -0.4488
  296ccc     H9 8133   4.971   6.249  12.859  0.9694  2.2798 -0.3566
  296ccc    H10 8134   5.137   6.283  12.889 -1.2596  1.4527 -0.3772
  296ccc     O5 8135   5.068   6.091  12.943  0.4542  0.3220 -0.2418
  296ccc    H11 8136   4.991   6.039  12.915  0.3849  1.2635 -1.9252
  296ccc     O6 8137   4.973   6.109  12.649  0.3815  0.4675  0.3237
  297ccc     C1 8138   5.137   5.552  12.874  0.4065  0.5817  0.2543
  297ccc     C2 8139   5.236   5.639  12.795 -0.9343 -0.3919 -0.4045
  297ccc     H1 8140   5.195   5.500  12.952 -0.7995 -2.1948 -0.5883
  297ccc     H2 8141   5.295   5.699  12.865 -1.2590  1.2163 -1.4650
  297ccc     C3 8142   5.343   5.536  12.739 -0.2591 -0.1577 -0.0425
  297ccc     C4 8143   5.268   5.417  12.657 -0.2193 -0.7845  0.1085
  297ccc     C5 8144   5.150   5.357  12.739 -0.0655  0.2079 -0.1283
  297ccc     H3 8145   5.229   5.470  12.569 -0.2287  0.3626  0.7903
  297ccc     H4 8146   5.398   5.491  12.822 -0.2081  0.5391  0.3069
  297ccc     H5 8147   5.182   5.287  12.817 -1.6733  0.8519  1.1631
  297ccc     O1 8148   5.068   5.276  12.648 -0.3404  0.7139  0.5883
  297ccc     O2 8149   5.368   5.323  12.623 -0.0483  0.1297 -0.1807
  297ccc     O3 8150   5.448   5.600  12.661  0.0349 -0.5621  0.2437
  297ccc     O4 8151   5.173   5.723  12.701 -0.3554  0.0936 -0.1153
  297ccc     C6 8152   5.042   5.639  12.950  0.0344 -0.5556  0.1861
  297ccc     H6 8153   5.480   5.668  12.723  1.1962  0.5743 -1.5014
  297ccc     H7 8154   5.245   5.781  12.670  0.0336 -0.1630  0.2969
  297ccc     H8 8155   5.438   5.375  12.582  1.1762 -0.3136  1.2521
  297ccc     H9 8156   4.981   5.697  12.880  0.0538  0.7892  1.2530
  297ccc    H10 8157   5.095   5.701  13.023  1.2672  0.6300 -1.6042
  297ccc     O5 8158   4.958   5.552  13.018  0.3838  0.1018 -0.1310
  297ccc    H11 8159   4.993   5.462  13.008 -0.6393 -0.1067 -2.6798
  297ccc     O6 8160   5.070   5.461  12.792 -0.3850 -0.7303 -0.2674
  298ccc     C1 8161   4.936   5.442  11.577  0.7240  0.0529 -0.4263
  298ccc     C2 8162   4.779   5.436  11.559  0.3374 -0.7831  0.0774
  298ccc     H1 8163   4.989   5.403  11.490 -0.4376 -0.7293 -0.8044
  298ccc     H2 8164   4.757   5.496  11.470  0.9544  0.0815  0.4927
  298ccc     C3 8165   4.736   5.294  11.545 -0.2359  0.4158  0.0975
  298ccc     C4 8166   4.773   5.211  11.676  0.2404 -0.0829 -0.0147
  298ccc     C5 8167   4.924   5.225  11.710 -0.6925  0.2614 -0.5921
  298ccc     H3 8168   4.722   5.263  11.758  1.8822  2.0478 -0.2566
  298ccc     H4 8169   4.795   5.243  11.468  0.3302 -1.0404  1.4615
  298ccc     H5 8170   4.978   5.157  11.642  1.5779  2.4072 -1.1102
  298ccc     O1 8171   4.934   5.179  11.848  0.6807 -0.6697 -0.2025
  298ccc     O2 8172   4.742   5.074  11.651 -0.3175  0.0732  0.3918
  298ccc     O3 8173   4.599   5.282  11.500 -0.7483  0.5728 -0.6512
  298ccc     O4 8174   4.706   5.494  11.672 -0.6577 -0.2089 -0.6431
  298ccc     C6 8175   4.983   5.588  11.596 -0.0886 -0.0779 -0.0531
  298ccc     H6 8176   4.592   5.192  11.462  0.7434  0.7216 -1.3402
  298ccc     H7 8177   4.613   5.469  11.655 -0.9339  0.5304 -0.2805
  298ccc     H8 8178   4.651   5.067  11.619  0.6073 -2.8810 -2.0066
  298ccc     H9 8179   4.959   5.637  11.691  0.5331 -1.0089  0.6041
  298ccc    H10 8180   4.925   5.634  11.515  0.5465 -0.0514 -0.5045
  298ccc     O5 8181   5.125   5.593  11.581 -0.6100  0.0997 -0.3712
  298ccc    H11 8182   5.138   5.689  11.571  0.1678  0.0495  0.0936
  298ccc     O6 8183   4.974   5.362  11.699 -0.2660 -0.2736  0.5692
  299ccc     C1 8184   2.633   6.024  11.948 -1.0741 -0.6931 -0.3341
  299ccc     C2 8185   2.505   6.017  12.034  0.1562  0.0080 -0.0853
  299ccc     H1 8186   2.607   5.980  11.851 -2.2946 -0.3483 -0.1766
  299ccc     H2 8187   2.424   6.063  11.976  1.6414  0.6243 -1.7499
  299ccc     C3 8188   2.461   5.872  12.060  0.0590  0.7765  0.2487
  299ccc     C4 8189   2.581   5.788  12.118  0.0493  0.0174 -0.1147
  299ccc     C5 8190   2.712   5.801  12.037  0.0297 -0.1768  0.7871
  299ccc     H3 8191   2.594   5.822  12.221 -0.1622  2.2358 -0.7566
  299ccc     H4 8192   2.425   5.830  11.965 -1.5819 -1.1379  1.6221
  299ccc     H5 8193   2.697   5.740  11.947 -0.9015 -0.8068  1.3516
  299ccc     O1 8194   2.832   5.750  12.112  0.7587 -0.2082 -0.1888
  299ccc     O2 8195   2.539   5.646  12.110  0.0499 -0.2610  0.3462
  299ccc     O3 8196   2.350   5.862  12.151 -0.0532 -0.1441 -0.0498
  299ccc     O4 8197   2.536   6.092  12.151  0.2510 -1.2162 -1.5679
  299ccc     C6 8198   2.673   6.170  11.914  0.0281  0.2278  0.4001
  299ccc     H6 8199   2.295   5.788  12.119  0.6165  0.0438 -1.7505
  299ccc     H7 8200   2.458   6.112  12.206  1.1466  1.0200 -0.9999
  299ccc     H8 8201   2.515   5.618  12.019  0.3916  1.8757 -0.4519
  299ccc     H9 8202   2.737   6.219  11.989  0.5501 -1.2779  0.9859
  299ccc    H10 8203   2.583   6.233  11.919 -0.1637 -0.0718  0.8423
  299ccc     O5 8204   2.750   6.159  11.794 -0.2027 -0.1988 -0.6764
  299ccc    H11 8205   2.779   6.248  11.766  1.5102 -1.1300 -2.0317
  299ccc     O6 8206   2.738   5.943  12.010 -0.0183 -0.5548  0.8333
  300ccc     C1 8207   3.339   5.464  12.919  0.2051 -0.1536  0.0037
  300ccc     C2 8208   3.482   5.509  12.877 -0.4578  0.2805  0.6541
  300ccc     H1 8209   3.341   5.357  12.943 -4.2099 -0.3626  0.3899
  300ccc     H2 8210   3.547   5.460  12.952  0.7356 -2.0237 -1.7234
  300ccc     C3 8211   3.528   5.434  12.750 -0.6786 -0.2016  0.4871
  300ccc     C4 8212   3.424   5.464  12.642  0.0662  0.0062  0.0597
  300ccc     C5 8213   3.285   5.422  12.685 -0.6480 -0.6645 -0.3144
  300ccc     H3 8214   3.419   5.569  12.614 -1.0304  0.0668  0.4366
  300ccc     H4 8215   3.525   5.326  12.764  0.5890 -0.3482 -0.2324
  300ccc     H5 8216   3.279   5.314  12.706  0.7433 -1.0099 -1.5513
  300ccc     O1 8217   3.186   5.458  12.586 -0.2910  0.4768  0.4985
  300ccc     O2 8218   3.463   5.393  12.523  0.0550 -0.5685  0.0746
  300ccc     O3 8219   3.659   5.478  12.709  0.3360  0.0171 -0.4772
  300ccc     O4 8220   3.484   5.648  12.859 -0.3279 -0.5153 -0.0592
  300ccc     C6 8221   3.289   5.526  13.053 -0.3131  0.4505  0.4189
  300ccc     H6 8222   3.683   5.408  12.645 -0.4639  0.2448 -1.0462
  300ccc     H7 8223   3.429   5.681  12.933  2.6057  1.1593  1.5479
  300ccc     H8 8224   3.416   5.445  12.456  0.1649 -0.2272  0.2616
  300ccc     H9 8225   3.342   5.469  13.131  0.3292  0.5613  0.0700
  300ccc    H10 8226   3.181   5.517  13.064 -0.2101 -0.8390  0.4811
  300ccc     O5 8227   3.328   5.659  13.061  0.2539  0.2508  0.1932
  300ccc    H11 8228   3.289   5.702  13.138 -0.8396 -0.0494 -0.1787
  300ccc     O6 8229   3.249   5.485  12.806 -0.8717 -0.5555  0.1357
  301ccc     C1 8230   3.695   4.838  12.201 -0.1817  0.1998 -0.0154
  301ccc     C2 8231   3.758   4.970  12.246  0.6410 -0.2649 -0.0045
  301ccc     H1 8232   3.636   4.856  12.110 -0.9801 -1.3219  0.1765
  301ccc     H2 8233   3.816   5.015  12.165 -0.1814 -0.8148 -0.9298
  301ccc     C3 8234   3.643   5.071  12.282  0.0903 -0.0123 -0.9353
  301ccc     C4 8235   3.559   5.018  12.404  0.1842  0.1331  0.1950
  301ccc     C5 8236   3.506   4.877  12.367  0.1898 -0.1468  0.2547
  301ccc     H3 8237   3.632   5.012  12.487  2.3073 -0.5670 -1.6253
  301ccc     H4 8238   3.568   5.071  12.202  0.3234 -0.0425 -1.1560
  301ccc     H5 8239   3.437   4.904  12.286 -1.0406  0.3460  1.4373
  301ccc     O1 8240   3.447   4.817  12.485 -0.1845  0.2251  0.0648
  301ccc     O2 8241   3.453   5.114  12.438 -0.0420 -0.1374  0.3519
  301ccc     O3 8242   3.701   5.196  12.326 -0.2210 -0.2248 -0.3507
  301ccc     O4 8243   3.843   4.947  12.364 -0.3591 -0.3521  0.4429
  301ccc     C6 8244   3.800   4.731  12.183 -0.7696 -0.4410 -0.0596
  301ccc     H6 8245   3.681   5.259  12.254  0.9231 -0.5629 -0.9982
  301ccc     H7 8246   3.885   5.035  12.367  1.2147 -1.0662  0.0274
  301ccc     H8 8247   3.490   5.193  12.482 -0.9432  1.0066 -0.8920
  301ccc     H9 8248   3.834   4.683  12.276  2.8681  0.1089 -0.9751
  301ccc    H10 8249   3.886   4.787  12.144 -0.4528 -1.0023 -0.1834
  301ccc     O5 8250   3.751   4.636  12.082  0.2561 -0.1263  0.5033
  301ccc    H11 8251   3.821   4.568  12.086  2.0105  1.6056  0.6674
  301ccc     O6 8252   3.607   4.795  12.311 -0.2653  0.0928  0.3187
  302ccc     C1 8253   2.950   4.971  12.319 -0.5025  0.1467  0.4897
  302ccc     C2 8254   3.072   5.057  12.285  0.4142 -0.5253  0.0048
  302ccc     H1 8255   2.876   5.032  12.372  0.2042 -0.2399  1.9867
  302ccc     H2 8256   3.036   5.143  12.226 -0.0321  0.0751  1.1068
  302ccc     C3 8257   3.126   5.116  12.410 -0.1300  0.2473 -0.0753
  302ccc     C4 8258   3.164   5.009  12.515  0.6307  0.0281  0.6141
  302ccc     C5 8259   3.042   4.923  12.547  0.6003  0.2237  0.0024
  302ccc     H3 8260   3.231   4.939  12.463  0.0659  0.3145 -0.5248
  302ccc     H4 8261   3.049   5.184  12.449 -2.1292  0.0231 -3.3026
  302ccc     H5 8262   2.970   4.980  12.607 -2.4909 -3.0144 -0.3211
  302ccc     O1 8263   3.086   4.811  12.630 -0.1374 -0.4587 -0.7315
  302ccc     O2 8264   3.237   5.082  12.620  0.4308 -0.4024 -0.3385
  302ccc     O3 8265   3.224   5.211  12.373 -0.3157  0.0800 -0.1399
  302ccc     O4 8266   3.168   4.976  12.223 -0.1191 -0.4716  0.5800
  302ccc     C6 8267   2.879   4.906  12.198  0.6005  0.4417 -0.1705
  302ccc     H6 8268   3.302   5.153  12.363  0.0922  0.2014  1.7973
  302ccc     H7 8269   3.113   4.900  12.197  1.4560 -1.1877 -0.8291
  302ccc     H8 8270   3.316   5.117  12.575  1.1105  0.7541  1.6338
  302ccc     H9 8271   2.839   4.988  12.136 -1.0017  1.3503  1.9347
  302ccc    H10 8272   2.796   4.841  12.230 -1.1139  0.9470 -3.1629
  302ccc     O5 8273   2.976   4.827  12.125  0.3236 -0.2745 -0.4105
  302ccc    H11 8274   2.944   4.735  12.124  1.5207 -0.7018 -1.7575
  302ccc     O6 8275   2.989   4.876  12.419  0.3092  0.5366 -0.0963
  303ccc     C1 8276   4.704   8.394  12.164  0.2782 -0.6798  0.4164
  303ccc     C2 8277   4.742   8.349  12.017 -0.0459 -0.2477 -0.3370
  303ccc     H1 8278   4.776   8.380  12.245 -0.3295  1.6061  1.4165
  303ccc     H2 8279   4.838   8.392  11.985  0.4237  1.1061  2.5498
  303ccc     C3 8280   4.759   8.200  12.021  0.1205 -0.6628 -0.0099
  303ccc     C4 8281   4.627   8.122  12.058 -0.7537 -1.2188 -0.6406
  303ccc     C5 8282   4.589   8.176  12.198  0.2226 -1.0035 -0.7363
  303ccc     H3 8283   4.550   8.149  11.985 -1.3006  0.5398  0.5222
  303ccc     H4 8284   4.845   8.191  12.089  1.7399  4.0508 -1.0534
  303ccc     H5 8285   4.673   8.149  12.263  0.4901  0.3519 -0.5070
  303ccc     O1 8286   4.471   8.111  12.244  0.0369  0.2160  0.0834
  303ccc     O2 8287   4.650   7.981  12.072 -0.0188  0.5026 -0.1177
  303ccc     O3 8288   4.792   8.153  11.889  0.4609 -0.3394 -0.1920
  303ccc     O4 8289   4.636   8.383  11.930 -0.4406 -0.2679  0.6530
  303ccc     C6 8290   4.668   8.542  12.175 -0.0773  0.1270 -0.2057
  303ccc     H6 8291   4.880   8.110  11.890  0.9456  0.6187  0.0048
  303ccc     H7 8292   4.672   8.356  11.843  3.0547 -1.0210  2.1804
  303ccc     H8 8293   4.667   7.961  11.978  1.8367  0.2350  0.2318
  303ccc     H9 8294   4.749   8.609  12.145 -1.1394  1.9441  0.8465
  303ccc    H10 8295   4.638   8.557  12.279 -0.9439 -2.3808 -0.0169
  303ccc     O5 8296   4.557   8.575  12.093 -0.2086  0.3470  0.1365
  303ccc    H11 8297   4.578   8.506  12.027  0.7345 -0.4592  1.2331
  303ccc     O6 8298   4.583   8.321  12.206  0.3645  0.6393 -0.4183
  304ccc     C1 8299   3.739   7.696  11.835 -0.1437  0.1830  0.0019
  304ccc     C2 8300   3.786   7.805  11.740 -0.1908  0.4399  0.2322
  304ccc     H1 8301   3.631   7.683  11.826 -0.3994  1.7908  0.4666
  304ccc     H2 8302   3.748   7.775  11.642 -2.1263  1.3241  0.6690
  304ccc     C3 8303   3.722   7.946  11.772  0.3157  0.0353  0.0114
  304ccc     C4 8304   3.752   7.990  11.919 -0.2790  0.1166 -1.0237
  304ccc     C5 8305   3.728   7.872  12.025 -0.0026 -0.2477  0.3582
  304ccc     H3 8306   3.857   8.022  11.929 -0.0088 -0.8425 -0.6063
  304ccc     H4 8307   3.613   7.934  11.764  0.3170  0.3842 -0.5424
  304ccc     H5 8308   3.623   7.855  12.050 -0.8029  1.8418 -1.2381
  304ccc     O1 8309   3.798   7.901  12.145 -0.1148  0.3592  0.4780
  304ccc     O2 8310   3.674   8.104  11.951  0.5120  0.2684 -0.9577
  304ccc     O3 8311   3.775   8.037  11.677 -0.3693 -0.7186 -0.0316
  304ccc     O4 8312   3.927   7.821  11.747 -0.2644  0.2134  0.3092
  304ccc     C6 8313   3.804   7.560  11.812 -0.4523 -0.1483 -0.3519
  304ccc     H6 8314   3.871   8.022  11.673 -0.3799 -0.4831 -3.1612
  304ccc     H7 8315   3.953   7.733  11.778  1.0568  0.4880  0.0643
  304ccc     H8 8316   3.705   8.167  11.884  1.1653  0.7955 -0.1774
  304ccc     H9 8317   3.769   7.536  11.711 -1.3740 -0.4816  0.0376
  304ccc    H10 8318   3.769   7.479  11.877  0.9299 -1.0025 -0.6454
  304ccc     O5 8319   3.949   7.572  11.817 -1.4610 -0.5567  0.5328
  304ccc    H11 8320   3.984   7.481  11.821 -0.6659 -0.6707 -3.9435
  304ccc     O6 8321   3.768   7.744  11.972  0.0910  0.9473 -0.2146
  305ccc     C1 8322   5.183   6.785  12.626  0.7577 -0.2983  0.0700
  305ccc     C2 8323   5.186   6.676  12.511  0.6186  0.6972  0.4408
  305ccc     H1 8324   5.118   6.754  12.709 -0.2552 -1.0263 -0.9552
  305ccc     H2 8325   5.214   6.581  12.558  1.2866 -0.7573 -2.6519
  305ccc     C3 8326   5.051   6.642  12.436 -0.0094  0.2460  0.0317
  305ccc     C4 8327   4.975   6.778  12.398 -0.2071 -0.3913 -0.3732
  305ccc     C5 8328   4.982   6.876  12.526  0.1741 -0.7133 -0.6272
  305ccc     H3 8329   5.035   6.827  12.320 -0.9168  0.1565 -0.5793
  305ccc     H4 8330   4.980   6.586  12.497 -0.7493 -0.0406 -1.0747
  305ccc     H5 8331   4.926   6.831  12.609  2.4439  1.1884  2.1262
  305ccc     O1 8332   4.937   7.013  12.496 -0.3489  0.5282  0.1966
  305ccc     O2 8333   4.847   6.737  12.350  0.5321 -0.4055  0.0143
  305ccc     O3 8334   5.085   6.563  12.322  0.0464 -0.2124  0.1865
  305ccc     O4 8335   5.279   6.707  12.418  0.0168  0.0844 -0.1936
  305ccc     C6 8336   5.316   6.820  12.692 -0.0428 -0.2648  0.4782
  305ccc     H6 8337   5.124   6.477  12.347 -2.0386 -1.5971 -0.9524
  305ccc     H7 8338   5.265   6.642  12.347  0.1607 -0.3089  0.1302
  305ccc     H8 8339   4.832   6.789  12.270 -0.7777 -3.6305 -2.0425
  305ccc     H9 8340   5.364   6.731  12.737 -2.5443 -1.4732  0.9581
  305ccc    H10 8341   5.309   6.897  12.770 -2.7519  0.5444 -0.4731
  305ccc     O5 8342   5.399   6.867  12.584  0.3370  0.5003 -0.3655
  305ccc    H11 8343   5.375   6.797  12.521  0.0231 -2.1825  2.5247
  305ccc     O6 8344   5.120   6.898  12.572  0.2818  0.2832 -0.3697
  306ccc     C1 8345   5.367   7.733  11.876 -0.2632 -0.0201 -0.8409
  306ccc     C2 8346   5.392   7.628  11.767 -0.5347 -0.0180 -0.0712
  306ccc     H1 8347   5.460   7.779  11.912 -0.8542  1.5523 -1.2314
  306ccc     H2 8348   5.446   7.674  11.683  0.3518  0.0265  0.5098
  306ccc     C3 8349   5.464   7.498  11.816 -1.0689  0.2711  0.3260
  306ccc     C4 8350   5.416   7.458  11.958  0.9446 -0.3081  0.9499
  306ccc     C5 8351   5.391   7.576  12.062  0.0157 -0.5690  0.9675
  306ccc     H3 8352   5.311   7.428  11.941  0.0698  3.0543 -0.3314
  306ccc     H4 8353   5.569   7.530  11.820 -1.7411  3.4527 -2.3675
  306ccc     H5 8354   5.478   7.639  12.082  0.9298 -1.0494 -1.1473
  306ccc     O1 8355   5.330   7.517  12.173  0.4208  0.0173  0.3968
  306ccc     O2 8356   5.496   7.345  12.007  0.5099 -0.3991  0.3167
  306ccc     O3 8357   5.437   7.397  11.716  0.1978 -0.4287 -0.1196
  306ccc     O4 8358   5.274   7.581  11.711 -0.2425 -0.4612  0.3193
  306ccc     C6 8359   5.285   7.849  11.818 -0.1479 -0.0843 -0.1703
  306ccc     H6 8360   5.480   7.311  11.730  1.2635  0.1035 -0.0173
  306ccc     H7 8361   5.297   7.486  11.706  2.6497  0.2202 -1.4385
  306ccc     H8 8362   5.456   7.308  12.087 -1.0587 -0.2472 -0.3454
  306ccc     H9 8363   5.185   7.806  11.807 -1.1021  1.9355 -0.0059
  306ccc    H10 8364   5.322   7.877  11.718  1.9017  1.1082  0.8586
  306ccc     O5 8365   5.267   7.958  11.912 -0.2014 -0.6382 -0.7227
  306ccc    H11 8366   5.338   8.020  11.886  0.1607 -0.9207 -0.4105
  306ccc     O6 8367   5.300   7.666  11.988 -0.0273  0.5872 -0.0513
  307ccc     C1 8368   4.638   8.437  10.098 -0.8295  0.3974  0.1543
  307ccc     C2 8369   4.668   8.365   9.964  0.5717 -0.9134  0.4027
  307ccc     H1 8370   4.737   8.474  10.128  0.2044 -0.9186 -1.4315
  307ccc     H2 8371   4.701   8.443   9.895 -0.3559 -1.2406 -0.4269
  307ccc     C3 8372   4.780   8.255   9.982  0.7182 -1.2615 -0.3556
  307ccc     C4 8373   4.749   8.166  10.105 -0.2314  0.4096  0.4806
  307ccc     C5 8374   4.681   8.232  10.228  0.2736 -0.1768 -0.3282
  307ccc     H3 8375   4.676   8.092  10.069 -0.0034 -0.6888  2.1464
  307ccc     H4 8376   4.875   8.308   9.994 -0.1480  0.6105 -1.3891
  307ccc     H5 8377   4.754   8.269  10.300  0.0317  0.5260 -0.4310
  307ccc     O1 8378   4.592   8.127  10.289 -0.2060  0.0670  0.3028
  307ccc     O2 8379   4.868   8.099  10.154  0.0002  0.1060  0.1595
  307ccc     O3 8380   4.797   8.176   9.859 -0.3816  0.2926 -1.0157
  307ccc     O4 8381   4.547   8.306   9.914  0.3238 -0.0765 -0.7663
  307ccc     C6 8382   4.540   8.552  10.095 -0.3908 -0.1488  0.0096
  307ccc     H6 8383   4.876   8.123   9.879 -0.8755  0.0261  0.3643
  307ccc     H7 8384   4.470   8.352   9.953  2.6037  2.4894  1.0415
  307ccc     H8 8385   4.848   8.006  10.172  0.4859  0.0532  0.4709
  307ccc     H9 8386   4.591   8.638  10.050 -0.0600 -0.3170  0.0588
  307ccc    H10 8387   4.512   8.583  10.197  0.5347  1.1317 -0.0943
  307ccc     O5 8388   4.414   8.516  10.024  0.1121  0.4204 -0.3232
  307ccc    H11 8389   4.365   8.599  10.038  1.1127  0.6168  2.9033
  307ccc     O6 8390   4.595   8.340  10.187  0.2414 -0.3349 -0.2130
  308ccc     C1 8391   5.285   8.315  10.724 -0.6509 -0.3124  0.5917
  308ccc     C2 8392   5.257   8.332  10.873 -0.1827 -0.4646  0.2517
  308ccc     H1 8393   5.289   8.417  10.682  1.1054 -1.1301 -1.4648
  308ccc     H2 8394   5.326   8.401  10.923 -0.5777  0.0357  0.1130
  308ccc     C3 8395   5.123   8.400  10.893  0.3841  0.0024  0.7164
  308ccc     C4 8396   5.011   8.304  10.840  0.3240  0.2542 -0.3692
  308ccc     C5 8397   5.037   8.272  10.690  0.1407  0.4635 -0.7655
  308ccc     H3 8398   5.024   8.214  10.901 -1.7166 -1.3546 -2.1350
  308ccc     H4 8399   5.112   8.492  10.835  1.0749  0.0724  0.6917
  308ccc     H5 8400   4.999   8.354  10.629 -2.2031  0.2478  0.2919
  308ccc     O1 8401   4.959   8.149  10.666  0.3187  0.7475 -0.2944
  308ccc     O2 8402   4.881   8.369  10.844  0.6842 -0.0627  0.1615
  308ccc     O3 8403   5.082   8.426  11.030  0.5924 -0.0757 -0.3248
  308ccc     O4 8404   5.268   8.202  10.926  0.1409  0.7174  0.8485
  308ccc     C6 8405   5.416   8.256  10.672 -0.3215  0.1496  1.0869
  308ccc     H6 8406   5.152   8.483  11.068 -0.0470  0.1480  0.5441
  308ccc     H7 8407   5.311   8.159  10.850  0.0753  1.4158  0.4067
  308ccc     H8 8408   4.888   8.434  10.916  1.7674 -2.5637  2.4680
  308ccc     H9 8409   5.499   8.302  10.727 -0.4458 -0.2213  1.5886
  308ccc    H10 8410   5.435   8.265  10.564  2.4493  0.1128  1.4984
  308ccc     O5 8411   5.416   8.122  10.711  0.5013  0.0597  0.3809
  308ccc    H11 8412   5.473   8.078  10.645  0.2429 -0.0857  0.2565
  308ccc     O6 8413   5.176   8.238  10.656 -0.0344  0.3088 -0.4380
  309ccc     C1 8414   5.411   7.192  10.370 -0.2588 -0.3577 -0.1015
  309ccc     C2 8415   5.494   7.196  10.241 -0.6813 -0.2850  0.0042
  309ccc     H1 8416   5.305   7.169  10.350 -0.0148 -0.0642 -1.9621
  309ccc     H2 8417   5.477   7.106  10.182  1.3729 -1.2799  0.8335
  309ccc     C3 8418   5.450   7.320  10.159 -0.4309  0.0905 -0.2994
  309ccc     C4 8419   5.468   7.447  10.248  0.0335  0.1915  0.3739
  309ccc     C5 8420   5.387   7.441  10.373 -0.1932 -0.5600  0.3846
  309ccc     H3 8421   5.577   7.454  10.263  0.4156  0.0407 -1.8985
  309ccc     H4 8422   5.343   7.310  10.137 -0.4810  2.0435 -1.1656
  309ccc     H5 8423   5.280   7.443  10.350 -0.2333  0.1993  0.6015
  309ccc     O1 8424   5.432   7.554  10.447  0.6378  0.0974  0.2771
  309ccc     O2 8425   5.426   7.565  10.173  0.4005 -0.1143 -0.1833
  309ccc     O3 8426   5.514   7.322  10.032  0.3200 -0.0621  0.1486
  309ccc     O4 8427   5.632   7.204  10.277 -0.1539  0.5728  0.1546
  309ccc     C6 8428   5.456   7.074  10.461 -0.1472  0.8363  0.5763
  309ccc     H6 8429   5.583   7.255  10.024 -0.3565 -0.7682  0.1089
  309ccc     H7 8430   5.675   7.164  10.200  0.6152 -3.1434  2.2718
  309ccc     H8 8431   5.329   7.565  10.179  0.4717  0.3187  1.5747
  309ccc     H9 8432   5.548   7.092  10.517 -1.4601 -3.2738  4.5915
  309ccc    H10 8433   5.462   6.984  10.399 -3.3397  0.2517  0.9619
  309ccc     O5 8434   5.354   7.058  10.557  0.3696 -0.2200 -0.0354
  309ccc    H11 8435   5.364   7.133  10.619  0.0420  0.4399 -0.7621
  309ccc     O6 8436   5.423   7.319  10.442  0.1792 -0.0570  0.1391
  310ccc     C1 8437   5.249   8.078   9.949  0.2578  0.1338 -0.2850
  310ccc     C2 8438   5.310   7.981   9.849 -0.1571 -0.1136 -0.4469
  310ccc     H1 8439   5.328   8.150   9.972 -0.3003  1.2139 -1.6206
  310ccc     H2 8440   5.338   8.043   9.762 -1.7982  0.7920 -0.3699
  310ccc     C3 8441   5.438   7.920   9.907  0.6414  0.0972  0.6641
  310ccc     C4 8442   5.407   7.845  10.040  0.5971  1.2756  0.7287
  310ccc     C5 8443   5.334   7.942  10.135  0.3149  0.1599 -0.2576
  310ccc     H3 8444   5.339   7.760  10.029  0.7221  0.6436  3.8700
  310ccc     H4 8445   5.508   7.999   9.937  1.0473  0.5713 -1.3992
  310ccc     H5 8446   5.399   8.019  10.178  1.1539 -0.0209 -1.1589
  310ccc     O1 8447   5.281   7.869  10.248  0.1060 -0.3821 -0.3250
  310ccc     O2 8448   5.533   7.800  10.106  0.2619  0.4493 -1.2045
  310ccc     O3 8449   5.506   7.849   9.800  0.0216 -0.0780  1.0638
  310ccc     O4 8450   5.224   7.881   9.809 -0.2175  0.5189  0.3168
  310ccc     C6 8451   5.121   8.143   9.894 -0.0906  0.0575 -0.1921
  310ccc     H6 8452   5.594   7.827   9.836  0.8332  1.8633  0.3759
  310ccc     H7 8453   5.276   7.815   9.760 -2.1352 -1.6959  1.0252
  310ccc     H8 8454   5.515   7.707  10.128  0.7084  0.6762  0.1949
  310ccc     H9 8455   5.154   8.204   9.809 -0.9605  1.6829  0.5936
  310ccc    H10 8456   5.076   8.220   9.958  0.7963  0.7945 -0.4318
  310ccc     O5 8457   5.027   8.046   9.867 -0.2447 -0.0771  0.0261
  310ccc    H11 8458   5.095   7.980   9.846 -0.0222  0.0552  0.3347
  310ccc     O6 8459   5.218   8.000  10.068  0.8690 -0.2371  0.1399
  311ccc     C1 8460   3.659   5.891  12.492 -0.0786  0.2984  0.0290
  311ccc     C2 8461   3.640   5.792  12.616 -0.9173  0.2452  0.8804
  311ccc     H1 8462   3.737   5.853  12.425 -0.0909  0.0735  0.1407
  311ccc     H2 8463   3.611   5.691  12.583 -1.4475  0.7770 -0.3386
  311ccc     C3 8464   3.779   5.782  12.691  0.3344 -0.4577  0.7524
  311ccc     C4 8465   3.842   5.912  12.730 -0.2208 -0.5585  0.1481
  311ccc     C5 8466   3.834   6.021  12.619  0.3492 -0.6358  0.1913
  311ccc     H3 8467   3.780   5.945  12.815  1.1692  1.3255  0.5004
  311ccc     H4 8468   3.846   5.741  12.614 -2.1474  2.2913 -3.2371
  311ccc     H5 8469   3.914   6.009  12.545 -2.5303 -1.9334 -2.9850
  311ccc     O1 8470   3.851   6.146  12.690  0.2415  0.5810 -0.6102
  311ccc     O2 8471   3.982   5.897  12.761 -0.5613  0.8001  0.3374
  311ccc     O3 8472   3.764   5.691  12.798  0.3361 -0.0064  0.2045
  311ccc     O4 8473   3.531   5.835  12.689  0.2317  0.1903 -0.3273
  311ccc     C6 8474   3.534   5.923  12.410 -0.5452 -0.4524 -0.4917
  311ccc     H6 8475   3.713   5.617  12.762 -1.7706  2.2977 -1.9987
  311ccc     H7 8476   3.527   5.759  12.749  0.7163 -0.4642 -1.1020
  311ccc     H8 8477   4.014   5.984  12.790  1.4047 -0.1583  1.1985
  311ccc     H9 8478   3.512   5.822  12.373 -0.1652 -0.1922 -1.4742
  311ccc    H10 8479   3.551   5.993  12.327 -2.4075 -0.2770 -0.7643
  311ccc     O5 8480   3.427   5.965  12.492  0.0450 -0.5556 -0.3313
  311ccc    H11 8481   3.453   5.918  12.573 -0.9380 -0.7803 -0.1255
  311ccc     O6 8482   3.711   6.018  12.541  0.2613  0.4614  0.3132
  312ccc     C1 8483   3.144   5.825  12.730 -0.5321 -0.5297  0.6208
  312ccc     C2 8484   3.012   5.828  12.809  0.0823  0.1917  0.4766
  312ccc     H1 8485   3.201   5.746  12.781  0.2748  0.7333  1.7179
  312ccc     H2 8486   2.969   5.728  12.805  1.1033 -0.3433  2.1469
  312ccc     C3 8487   3.041   5.860  12.960  0.5427  0.6696  0.2643
  312ccc     C4 8488   3.122   5.989  12.969 -0.1519  0.1939 -0.4462
  312ccc     C5 8489   3.256   5.976  12.894  0.2726 -0.4045  0.3503
  312ccc     H3 8490   3.059   6.066  12.923  1.3005  1.1783 -0.8690
  312ccc     H4 8491   3.101   5.779  13.002  1.4749  0.5940 -1.1414
  312ccc     H5 8492   3.322   5.903  12.941  0.6479  0.3100  0.9627
  312ccc     O1 8493   3.320   6.107  12.895  0.2026 -0.0032 -0.0532
  312ccc     O2 8494   3.145   6.010  13.108  0.2022 -0.2377 -0.2082
  312ccc     O3 8495   2.905   5.866  13.012  0.2244 -0.1433  0.3049
  312ccc     O4 8496   2.928   5.934  12.746  0.1198  0.2541 -0.6333
  312ccc     C6 8497   3.113   5.795  12.579 -0.4642  0.4074 -0.2248
  312ccc     H6 8498   2.878   5.773  13.012  0.0512 -0.0941  0.3251
  312ccc     H7 8499   2.836   5.905  12.765 -0.1082  1.3041 -0.0730
  312ccc     H8 8500   3.140   6.107  13.116  0.3445 -0.1931 -0.6014
  312ccc     H9 8501   3.064   5.880  12.529  1.4773  2.2787  0.8998
  312ccc    H10 8502   3.038   5.716  12.569 -0.4862  0.2422  1.1654
  312ccc     O5 8503   3.230   5.752  12.513 -0.5936 -0.2910  0.2712
  312ccc    H11 8504   3.284   5.832  12.505 -0.8542 -0.2031 -0.8053
  312ccc     O6 8505   3.222   5.949  12.749 -0.4149  0.0217  0.1837
  313ccc     C1 8506   2.539   5.934  12.889 -0.3151  0.3983 -0.0901
  313ccc     C2 8507   2.392   5.975  12.909  0.3877  0.4031  0.3569
  313ccc     H1 8508   2.567   5.871  12.975 -1.4775  0.4875  0.3681
  313ccc     H2 8509   2.335   5.885  12.934  1.2244 -0.5235 -0.9083
  313ccc     C3 8510   2.386   6.063  13.037 -0.6693 -0.9411 -0.0036
  313ccc     C4 8511   2.472   6.199  13.014 -0.3540 -0.3237 -0.0509
  313ccc     C5 8512   2.618   6.147  12.981 -0.0875 -0.2664  0.4189
  313ccc     H3 8513   2.426   6.244  12.925 -1.3495  0.4389  0.8154
  313ccc     H4 8514   2.437   6.008  13.117  1.5200  0.2605 -0.4873
  313ccc     H5 8515   2.658   6.100  13.072 -0.4982 -0.1562  0.6573
  313ccc     O1 8516   2.701   6.258  12.946  0.7668  0.0119 -0.0635
  313ccc     O2 8517   2.460   6.288  13.128 -0.2105 -0.2837 -0.8100
  313ccc     O3 8518   2.256   6.088  13.080  0.2488  0.5025  0.2933
  313ccc     O4 8519   2.353   6.028  12.783 -0.1972 -0.6446  0.4066
  313ccc     C6 8520   2.567   5.872  12.752 -0.3263  0.3253 -0.5165
  313ccc     H6 8521   2.213   6.143  13.012  3.1547  2.2315 -0.3207
  313ccc     H7 8522   2.264   5.993  12.763 -0.6630  0.5488  0.3075
  313ccc     H8 8523   2.384   6.342  13.100  0.7901  2.6041  1.5149
  313ccc     H9 8524   2.561   5.950  12.675  2.5596  1.4949  0.2961
  313ccc    H10 8525   2.484   5.803  12.733 -0.9181  1.1408 -0.9628
  313ccc     O5 8526   2.692   5.800  12.742 -0.4155 -0.9133  0.2364
  313ccc    H11 8527   2.691   5.721  12.799  1.8810 -2.2656 -1.4094
  313ccc     O6 8528   2.627   6.055  12.875 -0.1383 -0.3538 -0.4771
  314ccc     C1 8529   2.993   6.363  13.529 -1.0924  0.4466  0.1922
  314ccc     C2 8530   3.110   6.262  13.519 -0.2589 -0.1198 -0.9558
  314ccc     H1 8531   2.902   6.308  13.501 -0.5338 -0.5719  0.3287
  314ccc     H2 8532   3.095   6.178  13.588  1.2402  0.9237  0.7409
  314ccc     C3 8533   3.116   6.209  13.367 -0.0236  0.4245 -0.0265
  314ccc     C4 8534   3.139   6.332  13.273 -0.3405  0.1727 -0.6110
  314ccc     C5 8535   3.026   6.434  13.299  0.3414 -0.1082  0.0191
  314ccc     H3 8536   3.233   6.383  13.296 -0.1846 -0.7634  0.9589
  314ccc     H4 8537   3.021   6.159  13.345 -1.3917  3.0546 -0.5117
  314ccc     H5 8538   2.924   6.394  13.287  0.3176  0.1089 -0.4939
  314ccc     O1 8539   3.043   6.556  13.220  0.3797  0.1066  0.3168
  314ccc     O2 8540   3.154   6.278  13.136 -0.4105 -0.2389  0.0073
  314ccc     O3 8541   3.228   6.120  13.359  0.3033  0.1965 -0.2315
  314ccc     O4 8542   3.237   6.320  13.570 -0.4968 -0.2342 -0.6615
  314ccc     C6 8543   2.960   6.423  13.668 -0.0767  0.7592  1.1527
  314ccc     H6 8544   3.212   6.072  13.276  0.3306 -0.9105  0.3785
  314ccc     H7 8545   3.311   6.258  13.551  1.2908  1.3432  0.7672
  314ccc     H8 8546   3.172   6.355  13.080  1.7540 -1.3227 -0.8933
  314ccc     H9 8547   3.038   6.499  13.683  2.8642 -1.9340  0.6293
  314ccc    H10 8548   2.973   6.340  13.739  0.0612  1.2686  1.7319
  314ccc     O5 8549   2.825   6.466  13.671  0.2718  0.2388 -0.6347
  314ccc    H11 8550   2.833   6.534  13.602  2.0891 -0.0286 -0.7505
  314ccc     O6 8551   3.023   6.466  13.442  0.1015 -0.2905  0.5085
  315ccc     C1 8552   2.114   7.137  11.018  0.1234 -0.7921  0.0679
  315ccc     C2 8553   2.045   7.250  10.932 -0.8829  0.6338 -0.9396
  315ccc     H1 8554   2.047   7.105  11.098  1.6788  0.2307  1.8438
  315ccc     H2 8555   1.945   7.213  10.905 -0.1901 -0.2896 -2.3835
  315ccc     C3 8556   2.043   7.384  11.013 -0.0438 -0.4249 -0.1661
  315ccc     C4 8557   2.188   7.419  11.060 -0.4211 -0.0623  0.0996
  315ccc     C5 8558   2.244   7.302  11.150  0.2315 -0.4354 -0.2629
  315ccc     H3 8559   2.254   7.429  10.973 -0.5376 -0.7934 -0.0786
  315ccc     H4 8560   1.980   7.366  11.101  0.4889 -0.2224  0.2590
  315ccc     H5 8561   2.179   7.296  11.238  0.6204  1.5742  0.2128
  315ccc     O1 8562   2.377   7.325  11.180  0.7382  0.0101  0.2329
  315ccc     O2 8563   2.187   7.546  11.137 -0.5868  0.3142  0.0696
  315ccc     O3 8564   1.981   7.496  10.937 -0.2603 -0.3136  0.0424
  315ccc     O4 8565   2.128   7.271  10.813  0.1416 -0.5176 -0.6934
  315ccc     C6 8566   2.136   7.012  10.930 -0.0563 -0.0272  0.3803
  315ccc     H6 8567   1.908   7.450  10.892  0.9445 -0.6140 -1.7355
  315ccc     H7 8568   2.163   7.181  10.798 -2.5392 -1.8093  0.1088
  315ccc     H8 8569   2.271   7.578  11.101 -0.1617 -0.4334  0.3708
  315ccc     H9 8570   2.038   6.967  10.908 -1.0500  1.7232  1.0448
  315ccc    H10 8571   2.191   6.944  10.996 -2.1208 -0.6613  1.5539
  315ccc     O5 8572   2.215   7.038  10.811  0.3621  0.2783  0.3425
  315ccc    H11 8573   2.231   6.949  10.776  0.3477  0.5294 -0.3119
  315ccc     O6 8574   2.247   7.180  11.076  0.0366 -0.3384 -0.5074
  316ccc     C1 8575   3.136   7.183  11.892  0.0147 -0.6394  0.0091
  316ccc     C2 8576   3.170   7.041  11.838 -0.1537 -0.1200  0.6752
  316ccc     H1 8577   3.091   7.172  11.992  2.1184 -0.6969  0.9950
  316ccc     H2 8578   3.232   6.986  11.910 -0.4130  0.2493  1.1828
  316ccc     C3 8579   3.041   6.959  11.809 -0.2926  0.1626 -0.6581
  316ccc     C4 8580   2.924   7.034  11.743  0.1660 -0.0859 -0.4850
  316ccc     C5 8581   2.918   7.184  11.791  0.6233 -0.0160  1.0191
  316ccc     H3 8582   2.951   7.035  11.636  1.0099 -0.5889 -0.2903
  316ccc     H4 8583   2.998   6.933  11.907 -1.0776 -2.0585 -1.5113
  316ccc     H5 8584   2.872   7.182  11.890  1.1633 -1.5093  1.2650
  316ccc     O1 8585   2.833   7.264  11.696 -0.5274  0.2450 -0.3158
  316ccc     O2 8586   2.799   6.963  11.761 -0.5354  0.8923  0.1305
  316ccc     O3 8587   3.073   6.843  11.727 -0.1550 -0.1077  0.0462
  316ccc     O4 8588   3.241   7.057  11.715  0.0836 -0.6568 -0.1788
  316ccc     C6 8589   3.263   7.269  11.909  0.1977  0.1562 -0.0354
  316ccc     H6 8590   3.014   6.771  11.756  0.5158 -0.8724 -0.4279
  316ccc     H7 8591   3.227   6.969  11.677  1.7060 -1.0864  0.1580
  316ccc     H8 8592   2.832   6.872  11.766 -1.7070  0.3043 -1.7479
  316ccc     H9 8593   3.308   7.293  11.812 -1.6374  2.4425 -0.4127
  316ccc    H10 8594   3.334   7.214  11.972  3.7609 -0.9154 -4.4463
  316ccc     O5 8595   3.224   7.393  11.968  0.2656  0.3096 -0.8321
  316ccc    H11 8596   3.202   7.446  11.890  1.3083 -0.4882 -1.7182
  316ccc     O6 8597   3.044   7.249  11.799  0.6281 -0.0289  0.3119
  317ccc     C1 8598   2.189   7.947  10.672  0.5336  0.0689  0.7038
  317ccc     C2 8599   2.117   7.904  10.803  0.1441  0.4450 -0.4686
  317ccc     H1 8600   2.137   8.030  10.623 -0.1028 -0.8000 -0.1274
  317ccc     H2 8601   2.142   7.976  10.882  1.8026  0.4192 -0.9430
  317ccc     C3 8602   1.963   7.875  10.781 -0.2040 -0.2406 -0.6150
  317ccc     C4 8603   1.943   7.770  10.667 -0.4285 -0.4686 -0.3239
  317ccc     C5 8604   2.041   7.799  10.544 -0.3377 -0.1284 -0.2102
  317ccc     H3 8605   1.960   7.668  10.703  3.5189 -0.3338 -1.2554
  317ccc     H4 8606   1.911   7.956  10.728  1.3716  0.9492 -0.4471
  317ccc     H5 8607   1.991   7.883  10.496  0.6753  0.8969  0.4705
  317ccc     O1 8608   2.036   7.687  10.454 -0.5141  0.0597 -0.3012
  317ccc     O2 8609   1.810   7.768  10.609  0.2783 -0.0857  0.3170
  317ccc     O3 8610   1.890   7.833  10.894 -0.0231  0.0131 -0.0707
  317ccc     O4 8611   2.175   7.783  10.842 -0.2999  0.4310 -0.0348
  317ccc     C6 8612   2.335   7.995  10.689 -0.3433  0.0391  0.8574
  317ccc     H6 8613   1.797   7.829  10.869 -0.1290 -0.5537  0.3835
  317ccc     H7 8614   2.268   7.811  10.835  0.0543  0.0080  2.2325
  317ccc     H8 8615   1.807   7.713  10.529 -2.8645  1.1863 -0.6159
  317ccc     H9 8616   2.328   8.091  10.743 -0.2362 -1.3688  3.5260
  317ccc    H10 8617   2.379   8.004  10.589  0.1206  0.5806  1.0989
  317ccc     O5 8618   2.395   7.883  10.754  0.1943  0.4267  0.1302
  317ccc    H11 8619   2.455   7.853  10.684  1.3474  3.2215 -0.1791
  317ccc     O6 8620   2.178   7.838  10.578  0.4356  0.8309 -0.0774
  318ccc     C1 8621   1.466   7.332  10.505  1.2131 -0.4760 -0.5961
  318ccc     C2 8622   1.423   7.444  10.411 -1.0687  0.5515 -0.0572
  318ccc     H1 8623   1.462   7.368  10.608 -1.1278 -2.4022  0.0960
  318ccc     H2 8624   1.339   7.499  10.453  0.9736  1.9880  2.4361
  318ccc     C3 8625   1.526   7.555  10.412  0.0696 -0.1559  0.0869
  318ccc     C4 8626   1.670   7.501  10.395  0.0332  0.4618 -0.5964
  318ccc     C5 8627   1.702   7.390  10.495 -0.3240  0.1013  0.0301
  318ccc     H3 8628   1.681   7.452  10.298  2.2291 -0.8754  0.2356
  318ccc     H4 8629   1.522   7.591  10.516  0.2819 -1.9784  0.7776
  318ccc     H5 8630   1.702   7.437  10.594  0.9824  1.4169 -0.5597
  318ccc     O1 8631   1.833   7.340  10.447  0.4960 -0.2219 -0.1539
  318ccc     O2 8632   1.761   7.611  10.400  0.0449  0.3149 -0.1893
  318ccc     O3 8633   1.484   7.651  10.316 -0.0834  0.0961 -0.1080
  318ccc     O4 8634   1.403   7.384  10.281  0.0642  0.3488 -0.5332
  318ccc     C6 8635   1.356   7.225  10.503  0.1886  0.1542  0.1236
  318ccc     H6 8636   1.423   7.709  10.366 -0.3774 -0.3284  0.0293
  318ccc     H7 8637   1.327   7.433  10.246  1.6122  1.7499 -2.0673
  318ccc     H8 8638   1.777   7.642  10.309  0.9457  0.7411  0.1067
  318ccc     H9 8639   1.371   7.150  10.425 -2.0042  0.5003 -0.7281
  318ccc    H10 8640   1.256   7.268  10.487 -0.1694 -1.0720 -1.0357
  318ccc     O5 8641   1.369   7.164  10.632 -0.2231 -0.2988 -0.7504
  318ccc    H11 8642   1.427   7.089  10.609 -0.7715 -0.6654 -0.9391
  318ccc     O6 8643   1.600   7.288  10.478 -0.1101  0.0032 -0.0998
  319ccc     C1 8644   6.927   8.901   7.183 -0.2089 -0.2921  0.6925
  319ccc     C2 8645   6.994   9.005   7.280  0.0964  0.4624  0.0223
  319ccc     H1 8646   6.966   8.923   7.083 -1.1476  0.3338  0.4590
  319ccc     H2 8647   7.102   8.992   7.272  0.4643  3.6996 -2.4293
  319ccc     C3 8648   6.960   9.151   7.236 -0.1201 -0.5987 -1.1440
  319ccc     C4 8649   6.808   9.169   7.225  0.0617 -0.0433  0.2649
  319ccc     C5 8650   6.750   9.062   7.128 -0.1577  0.1384  0.1371
  319ccc     H3 8651   6.763   9.150   7.323 -0.6841 -1.0497 -0.2584
  319ccc     H4 8652   7.007   9.179   7.141 -0.3865  2.4727 -0.4938
  319ccc     H5 8653   6.780   9.083   7.024  2.1901  0.7295  0.8740
  319ccc     O1 8654   6.609   9.071   7.142  0.4773  0.1726 -0.1302
  319ccc     O2 8655   6.790   9.305   7.164 -0.3245  0.8633 -0.0876
  319ccc     O3 8656   7.013   9.242   7.339 -0.4725  0.2754  0.2586
  319ccc     O4 8657   6.946   8.976   7.408 -0.8896  0.1022 -0.1221
  319ccc     C6 8658   6.958   8.758   7.230 -0.2612 -0.0793  0.1827
  319ccc     H6 8659   7.011   9.331   7.300  0.9950  0.1762 -0.1031
  319ccc     H7 8660   6.977   9.042   7.471  1.6841  0.3970 -1.5610
  319ccc     H8 8661   6.702   9.318   7.202  0.0056 -0.4585  1.2184
  319ccc     H9 8662   6.870   8.716   7.280  0.5742 -2.0143  0.1078
  319ccc    H10 8663   7.039   8.751   7.303  1.7610 -0.2994 -1.9676
  319ccc     O5 8664   6.973   8.675   7.110 -0.3809  0.6756 -0.5132
  319ccc    H11 8665   6.892   8.696   7.060 -1.5195 -1.0035  0.4994
  319ccc     O6 8666   6.790   8.923   7.169  0.0786 -0.4385  0.2811
  320ccc     C1 8667   5.982   9.184   7.706 -0.2586 -0.0892 -0.6434
  320ccc     C2 8668   5.987   9.058   7.791  0.5425 -0.6470 -0.0042
  320ccc     H1 8669   5.887   9.238   7.717 -0.2496 -0.2084  0.0402
  320ccc     H2 8670   5.974   9.077   7.898 -0.1543 -1.0833 -0.0047
  320ccc     C3 8671   5.857   8.968   7.757  0.5008 -0.4332  0.5438
  320ccc     C4 8672   5.847   8.951   7.598 -0.7781  0.3089  0.2809
  320ccc     C5 8673   5.879   9.081   7.518  0.4090  0.0609 -0.2586
  320ccc     H3 8674   5.927   8.879   7.576 -0.4832  0.2880  1.3694
  320ccc     H4 8675   5.774   9.035   7.784 -0.3466 -0.3087 -2.1519
  320ccc     H5 8676   5.785   9.138   7.522  0.3529 -0.0534  0.1442
  320ccc     O1 8677   5.911   9.050   7.385 -0.5673 -0.1954  0.5707
  320ccc     O2 8678   5.720   8.899   7.554  0.7097  0.0185  0.2715
  320ccc     O3 8679   5.841   8.844   7.830  0.4474  0.4613 -0.5012
  320ccc     O4 8680   6.109   8.991   7.781  0.2832 -0.0797  0.4588
  320ccc     C6 8681   6.094   9.282   7.745 -0.4396 -0.8463 -0.4575
  320ccc     H6 8682   5.901   8.775   7.796 -1.4477 -0.5696 -1.9465
  320ccc     H7 8683   6.164   9.068   7.759 -0.7717 -0.0531 -2.5664
  320ccc     H8 8684   5.649   8.944   7.603 -0.0829 -0.5025 -0.3850
  320ccc     H9 8685   6.097   9.316   7.849  2.0140  1.0204 -1.0678
  320ccc    H10 8686   6.081   9.374   7.686 -0.1129  1.2281  2.5245
  320ccc     O5 8687   6.215   9.220   7.713  0.0312  0.0359 -0.3787
  320ccc    H11 8688   6.283   9.279   7.751  0.0150 -0.7349  0.8746
  320ccc     O6 8689   5.995   9.152   7.567 -0.2674  0.1649 -0.0143
  321ccc     C1 8690   5.513   9.037   5.938  0.4006  0.3175  0.2167
  321ccc     C2 8691   5.545   8.959   5.806 -0.0760 -0.2008  0.2824
  321ccc     H1 8692   5.604   9.086   5.976 -0.5825  2.1185  0.3480
  321ccc     H2 8693   5.584   9.038   5.741 -4.3420  1.8107 -0.1147
  321ccc     C3 8694   5.646   8.847   5.839 -0.1307 -0.0999 -0.5625
  321ccc     C4 8695   5.593   8.749   5.942 -0.5022 -0.4539 -0.3057
  321ccc     C5 8696   5.560   8.830   6.072 -0.1454  0.0423 -0.2269
  321ccc     H3 8697   5.505   8.693   5.909 -1.3168  0.1478  0.7522
  321ccc     H4 8698   5.739   8.896   5.869 -1.0893  1.2669  0.2568
  321ccc     H5 8699   5.652   8.857   6.125 -0.6256 -1.3237  1.3898
  321ccc     O1 8700   5.500   8.744   6.168 -0.3346 -0.5209 -0.8349
  321ccc     O2 8701   5.701   8.656   5.983 -0.2733  0.1181 -0.3145
  321ccc     O3 8702   5.662   8.775   5.711  0.5381  0.6562  0.2444
  321ccc     O4 8703   5.428   8.906   5.736 -0.9764  0.2969 -0.2177
  321ccc     C6 8704   5.401   9.141   5.919 -0.1430  0.3358  0.0253
  321ccc     H6 8705   5.722   8.699   5.720 -2.1389 -1.4622  1.7163
  321ccc     H7 8706   5.464   8.858   5.660  1.1767  1.1233  0.2068
  321ccc     H8 8707   5.657   8.578   6.023  1.0275 -0.3984  0.1813
  321ccc     H9 8708   5.304   9.090   5.919  0.1705 -0.3310 -1.7454
  321ccc    H10 8709   5.405   9.185   5.819 -2.8813  2.5937  0.7545
  321ccc     O5 8710   5.420   9.240   6.020  0.3131 -0.4689 -0.1419
  321ccc    H11 8711   5.396   9.197   6.104  2.5610 -0.3589  0.6079
  321ccc     O6 8712   5.472   8.944   6.048  0.4466 -0.4036  0.2694
  322ccc     C1 8713   5.389   8.438   7.139  0.1022  0.5715  0.0149
  322ccc     C2 8714   5.524   8.487   7.181  0.2872  0.1053 -0.7716
  322ccc     H1 8715   5.385   8.334   7.102  1.8924  0.3903  0.2499
  322ccc     H2 8716   5.565   8.442   7.273 -0.2930  0.8178 -0.1512
  322ccc     C3 8717   5.620   8.482   7.068 -0.0406  0.1476 -0.6527
  322ccc     C4 8718   5.561   8.557   6.935  0.2791  0.3811 -0.9072
  322ccc     C5 8719   5.412   8.520   6.913  0.2560 -0.1351  0.4010
  322ccc     H3 8720   5.567   8.666   6.938  1.5114  0.3488 -1.7570
  322ccc     H4 8721   5.626   8.373   7.058  0.5974  0.2544 -1.4826
  322ccc     H5 8722   5.412   8.415   6.882  1.1933  0.2069 -0.8208
  322ccc     O1 8723   5.345   8.597   6.814  0.4063 -0.2935  0.0668
  322ccc     O2 8724   5.642   8.523   6.823 -0.3824  0.3591 -0.2130
  322ccc     O3 8725   5.749   8.539   7.107  0.1264 -0.0694 -0.5206
  322ccc     O4 8726   5.516   8.622   7.231 -0.3564  0.1607  0.0889
  322ccc     C6 8727   5.282   8.435   7.254 -0.1997 -0.0920  0.2921
  322ccc     H6 8728   5.806   8.542   7.028  1.1101 -0.6510  0.1589
  322ccc     H7 8729   5.606   8.659   7.239 -0.2632  0.1122 -0.6524
  322ccc     H8 8730   5.735   8.546   6.841  0.3094 -1.8284 -0.6603
  322ccc     H9 8731   5.321   8.379   7.340 -1.6324 -1.4981  0.0748
  322ccc    H10 8732   5.185   8.393   7.224 -0.2550 -0.5950  1.1415
  322ccc     O5 8733   5.270   8.571   7.291  0.1160 -0.0478 -0.4919
  322ccc    H11 8734   5.347   8.607   7.243  0.5890  0.1225  0.3563
  322ccc     O6 8735   5.338   8.525   7.035 -0.2411 -0.3481 -0.7255
  323ccc     C1 8736   7.253   8.269   7.259 -0.6310 -0.1360 -0.1965
  323ccc     C2 8737   7.327   8.290   7.394  0.2714  0.1658  0.7758
  323ccc     H1 8738   7.292   8.330   7.177  2.4685 -0.9413  0.5695
  323ccc     H2 8739   7.434   8.288   7.370  0.1088 -2.2906  0.0230
  323ccc     C3 8740   7.303   8.435   7.455  0.3208 -0.1612  0.2806
  323ccc     C4 8741   7.148   8.472   7.455 -0.7514  0.5525  0.0587
  323ccc     C5 8742   7.078   8.434   7.314 -0.1211 -0.2975 -0.5017
  323ccc     H3 8743   7.101   8.422   7.540  0.2282  0.1480  0.3709
  323ccc     H4 8744   7.364   8.509   7.401 -0.8364  0.2592 -0.5054
  323ccc     H5 8745   7.101   8.496   7.227 -0.9957 -1.1882 -1.3839
  323ccc     O1 8746   6.933   8.439   7.348 -0.6358 -0.0225  0.0946
  323ccc     O2 8747   7.142   8.613   7.480  0.2447  0.4141  0.0832
  323ccc     O3 8748   7.360   8.445   7.592  0.1936  0.2958 -0.1847
  323ccc     O4 8749   7.297   8.190   7.497 -0.1776  0.5050  0.6654
  323ccc     C6 8750   7.260   8.120   7.210  0.0228  0.4396  1.0374
  323ccc     H6 8751   7.304   8.387   7.647  1.1578 -0.7661 -0.3185
  323ccc     H7 8752   7.381   8.141   7.501 -0.6179 -0.8553 -2.9925
  323ccc     H8 8753   7.179   8.619   7.570  0.6254 -0.5281 -0.0054
  323ccc     H9 8754   7.196   8.047   7.261 -1.2732 -0.0575 -1.1679
  323ccc    H10 8755   7.361   8.080   7.222  0.0235 -1.0946 -2.6099
  323ccc     O5 8756   7.227   8.115   7.068 -0.1991 -0.3532  0.0898
  323ccc    H11 8757   7.172   8.191   7.041 -0.9721 -1.2228 -0.8354
  323ccc     O6 8758   7.116   8.299   7.284  0.2344 -0.4841 -0.0646
  324ccc     C1 8759   6.689   9.248   7.776 -0.5654  0.3560 -0.3664
  324ccc     C2 8760   6.766   9.193   7.899  1.0877 -0.0775  0.0736
  324ccc     H1 8761   6.588   9.266   7.813  0.5848  4.2127  1.3716
  324ccc     H2 8762   6.730   9.250   7.986  0.5492 -0.2088 -0.0560
  324ccc     C3 8763   6.721   9.047   7.938 -0.7868  0.2579 -0.2282
  324ccc     C4 8764   6.710   8.949   7.822  0.1652 -0.3449 -0.4838
  324ccc     C5 8765   6.637   9.018   7.702 -0.0041 -0.9013  0.5304
  324ccc     H3 8766   6.816   8.937   7.796  0.3571 -0.4832  0.3415
  324ccc     H4 8767   6.621   9.049   7.982 -0.5471 -1.1119  0.4259
  324ccc     H5 8768   6.536   9.038   7.739 -0.5461  0.9133 -1.6961
  324ccc     O1 8769   6.633   8.929   7.584 -0.0624 -0.4457 -0.7748
  324ccc     O2 8770   6.660   8.819   7.864  0.0468 -0.3875 -0.3470
  324ccc     O3 8771   6.801   8.980   8.036  0.3192 -0.1773 -0.0057
  324ccc     O4 8772   6.906   9.182   7.872 -0.1380 -0.6152  0.1134
  324ccc     C6 8773   6.737   9.384   7.715 -0.2930 -0.4776  0.2406
  324ccc     H6 8774   6.844   9.051   8.086  0.0371 -0.3155  0.4410
  324ccc     H7 8775   6.922   9.258   7.813 -1.9267  0.7093  1.2532
  324ccc     H8 8776   6.716   8.803   7.942  2.0849  3.8424 -0.6880
  324ccc     H9 8777   6.713   9.465   7.785  0.9371 -0.6494  0.8829
  324ccc    H10 8778   6.686   9.412   7.622 -0.5194  0.3863  0.6156
  324ccc     O5 8779   6.882   9.369   7.691 -0.2373  0.0963 -0.2445
  324ccc    H11 8780   6.914   9.459   7.673 -0.9811  0.3106 -0.5243
  324ccc     O6 8781   6.694   9.150   7.664  0.0720  0.1317  0.1082
  325ccc     C1 8782   7.139   8.478   6.602 -0.9079  0.1279 -0.3297
  325ccc     C2 8783   7.168   8.570   6.725 -0.3929  0.0584  0.2401
  325ccc     H1 8784   7.030   8.476   6.589 -0.7555 -0.3156 -1.8175
  325ccc     H2 8785   7.111   8.663   6.718 -2.4293 -0.9405  2.1041
  325ccc     C3 8786   7.123   8.507   6.856  0.1023 -0.8593  0.2610
  325ccc     C4 8787   7.154   8.357   6.867 -0.3644  0.1233 -0.7101
  325ccc     C5 8788   7.111   8.277   6.741 -0.3592 -0.0718 -0.4666
  325ccc     H3 8789   7.260   8.340   6.890  0.4965  1.5524 -3.2621
  325ccc     H4 8790   7.016   8.524   6.867  0.3950  1.9572 -0.5415
  325ccc     H5 8791   7.004   8.292   6.729 -0.3923 -1.4965 -2.4911
  325ccc     O1 8792   7.153   8.134   6.747 -0.1156 -0.1680  0.0989
  325ccc     O2 8793   7.088   8.303   6.983 -0.2258 -0.1500 -0.2257
  325ccc     O3 8794   7.184   8.591   6.967 -0.0158  0.0536  0.2906
  325ccc     O4 8795   7.306   8.586   6.724  0.2464  0.6854 -0.0636
  325ccc     C6 8796   7.205   8.527   6.466  0.0572 -0.0487  0.0157
  325ccc     H6 8797   7.110   8.620   7.023  0.3715  0.3868  0.6295
  325ccc     H7 8798   7.329   8.631   6.807 -0.2456 -3.1511  2.3974
  325ccc     H8 8799   6.991   8.307   6.972 -0.4939 -1.9550  1.1170
  325ccc     H9 8800   7.314   8.525   6.473  0.1326  0.6935 -0.8148
  325ccc    H10 8801   7.176   8.631   6.450 -0.0419 -0.0885 -0.0658
  325ccc     O5 8802   7.157   8.442   6.358  0.3307  0.2383 -0.0806
  325ccc    H11 8803   7.102   8.375   6.402  1.1755  0.1178  0.8197
  325ccc     O6 8804   7.190   8.345   6.634 -0.1387 -0.0986  0.5717
  326ccc     C1 8805   7.638   8.232   6.595 -0.8652  0.5237 -0.2668
  326ccc     C2 8806   7.681   8.164   6.464 -0.0801 -0.7246  0.0012
  326ccc     H1 8807   7.723   8.282   6.644 -0.7733  0.0319  0.0905
  326ccc     H2 8808   7.742   8.231   6.402 -1.7353 -0.0249 -0.9330
  326ccc     C3 8809   7.773   8.043   6.496 -0.3663 -0.1065 -0.0585
  326ccc     C4 8810   7.689   7.940   6.584 -0.6619 -0.0381  0.1008
  326ccc     C5 8811   7.639   8.007   6.716  0.1359 -0.0173 -0.4559
  326ccc     H3 8812   7.597   7.918   6.529 -0.0011 -1.1482 -0.6077
  326ccc     H4 8813   7.853   8.086   6.557  0.3800 -0.6114 -0.6676
  326ccc     H5 8814   7.726   8.021   6.781  1.6270 -2.2198 -1.8232
  326ccc     O1 8815   7.542   7.917   6.783 -0.3762 -0.4049 -0.2350
  326ccc     O2 8816   7.766   7.818   6.622 -0.0259  0.3410 -0.0231
  326ccc     O3 8817   7.839   7.990   6.382  0.0555  0.6192 -0.2720
  326ccc     O4 8818   7.559   8.123   6.396  0.7999  0.1830 -0.2218
  326ccc     C6 8819   7.524   8.338   6.564 -0.4943  0.1532  0.0671
  326ccc     H6 8820   7.899   7.919   6.412  2.3128  2.4430 -0.1618
  326ccc     H7 8821   7.594   8.066   6.325 -2.3963 -1.7337 -0.4251
  326ccc     H8 8822   7.763   7.774   6.535  0.6684  1.9660 -0.9117
  326ccc     H9 8823   7.420   8.304   6.553 -1.4748  2.6830  0.8876
  326ccc    H10 8824   7.545   8.376   6.463 -0.1966 -2.1262 -0.7897
  326ccc     O5 8825   7.536   8.443   6.664 -0.5371 -0.2037 -0.4886
  326ccc    H11 8826   7.449   8.485   6.676  1.1977  3.5993  0.1657
  326ccc     O6 8827   7.574   8.132   6.679 -0.1247  0.7026 -0.2907
  327ccc     C1 8828   4.391   6.716   9.897 -0.2332  0.5099  0.4614
  327ccc     C2 8829   4.240   6.702   9.907 -0.0221 -0.4115  0.1736
  327ccc     H1 8830   4.444   6.643   9.960 -1.7179 -0.2921  0.8305
  327ccc     H2 8831   4.216   6.598   9.885 -0.4479 -0.4854  0.9792
  327ccc     C3 8832   4.195   6.733  10.051 -0.0073 -0.1804 -0.5156
  327ccc     C4 8833   4.237   6.880  10.088  0.6501  0.6277  0.3541
  327ccc     C5 8834   4.387   6.897  10.072 -0.1559 -0.8381 -0.2525
  327ccc     H3 8835   4.185   6.943  10.016  0.8544  2.0850  1.4395
  327ccc     H4 8836   4.243   6.668  10.125  1.1337  0.7805 -0.3699
  327ccc     H5 8837   4.441   6.850  10.154  1.0326  1.1703  0.1989
  327ccc     O1 8838   4.414   7.043  10.079  0.8396  0.5270  0.3362
  327ccc     O2 8839   4.196   6.896  10.226 -0.1622  0.2387  0.3640
  327ccc     O3 8840   4.052   6.724  10.058  0.4560 -0.6331 -0.1599
  327ccc     O4 8841   4.185   6.788   9.810 -0.3416 -0.0121 -0.4995
  327ccc     C6 8842   4.446   6.694   9.750 -0.8388 -0.3339 -0.4367
  327ccc     H6 8843   4.004   6.784   9.999  0.7109 -1.9116 -1.7353
  327ccc     H7 8844   4.090   6.766   9.809 -0.8968  2.0675 -1.8237
  327ccc     H8 8845   4.102   6.869  10.225  0.1723 -1.0130  0.7857
  327ccc     H9 8846   4.411   6.759   9.669 -0.5606 -0.8579 -0.9903
  327ccc    H10 8847   4.424   6.590   9.722  1.1247 -0.4419 -1.8064
  327ccc     O5 8848   4.587   6.707   9.758  0.1364  0.5251 -0.4064
  327ccc    H11 8849   4.621   6.621   9.789 -1.6571 -0.5307 -1.2628
  327ccc     O6 8850   4.426   6.851   9.941  0.2288  0.2953  0.3020
  328ccc     C1 8851   5.382   7.465   9.610  0.2964  0.0709  0.1183
  328ccc     C2 8852   5.336   7.610   9.603  0.5145 -0.2526  0.2534
  328ccc     H1 8853   5.450   7.445   9.526 -0.5528  0.5069 -0.6980
  328ccc     H2 8854   5.423   7.675   9.613  0.7773 -0.5930  0.1759
  328ccc     C3 8855   5.282   7.647   9.463  0.3010 -0.6874  1.0284
  328ccc     C4 8856   5.162   7.548   9.427  0.5717  0.5541  0.2642
  328ccc     C5 8857   5.194   7.396   9.465 -0.2277  0.1710  0.4488
  328ccc     H3 8858   5.077   7.574   9.491 -0.3142 -0.7609 -0.3527
  328ccc     H4 8859   5.367   7.630   9.396  0.0547 -1.3009  0.8620
  328ccc     H5 8860   5.261   7.347   9.394  1.3170  1.7735  0.7468
  328ccc     O1 8861   5.066   7.330   9.473 -0.2183  0.5179 -0.2835
  328ccc     O2 8862   5.120   7.566   9.288  0.5734  0.0456 -0.3811
  328ccc     O3 8863   5.239   7.782   9.454 -0.2821 -0.3304 -0.0167
  328ccc     O4 8864   5.234   7.630   9.697  0.2483 -0.5177  0.3200
  328ccc     C6 8865   5.443   7.426   9.745  0.4867 -0.5922  0.2302
  328ccc     H6 8866   5.315   7.828   9.493  0.6925  1.8296 -3.9439
  328ccc     H7 8867   5.266   7.576   9.771  0.2679  0.5685  1.1232
  328ccc     H8 8868   5.120   7.663   9.284  2.6465  0.2074  1.6136
  328ccc     H9 8869   5.543   7.468   9.759  0.3647  1.0136 -2.8291
  328ccc    H10 8870   5.455   7.317   9.756  0.6518 -0.5064  0.9496
  328ccc     O5 8871   5.359   7.475   9.854 -0.5115 -0.2506  0.2357
  328ccc    H11 8872   5.417   7.447   9.928 -0.6851 -0.5925  0.2457
  328ccc     O6 8873   5.268   7.376   9.589 -0.1374 -0.3931  0.0172
  329ccc     C1 8874   5.715   7.933   9.338 -0.1096  0.0490 -0.5313
  329ccc     C2 8875   5.620   7.889   9.450 -1.0176 -0.1631 -0.0042
  329ccc     H1 8876   5.764   8.023   9.377 -1.0844 -0.4117  1.8932
  329ccc     H2 8877   5.676   7.871   9.543  0.3015 -0.1269 -0.7608
  329ccc     C3 8878   5.508   7.991   9.479  0.0120 -0.0364  0.2809
  329ccc     C4 8879   5.450   8.041   9.340 -0.1720  0.0191  0.2421
  329ccc     C5 8880   5.555   8.077   9.229 -0.6120 -0.6262  0.2622
  329ccc     H3 8881   5.404   7.954   9.293  1.8999 -0.6962 -0.5616
  329ccc     H4 8882   5.556   8.076   9.529  1.3111 -0.1805 -0.6703
  329ccc     H5 8883   5.609   8.168   9.259 -0.8522 -0.3872 -0.0138
  329ccc     O1 8884   5.472   8.108   9.111 -0.0623 -0.2510 -0.0988
  329ccc     O2 8885   5.358   8.148   9.362  0.0587  0.6369 -0.2241
  329ccc     O3 8886   5.410   7.934   9.567  0.3093  0.3031  0.0250
  329ccc     O4 8887   5.566   7.763   9.411  0.1003 -0.8384 -0.1639
  329ccc     C6 8888   5.833   7.835   9.306 -0.0876 -0.0507  0.1969
  329ccc     H6 8889   5.463   7.922   9.647  0.8604 -3.3054 -0.7209
  329ccc     H7 8890   5.630   7.696   9.439  0.1791 -0.4949  0.5070
  329ccc     H8 8891   5.405   8.233   9.360  0.5493  0.3650 -1.0373
  329ccc     H9 8892   5.799   7.765   9.229  1.3395 -1.1422  0.5012
  329ccc    H10 8893   5.861   7.778   9.396  1.6917  1.9030  0.9618
  329ccc     O5 8894   5.944   7.912   9.264 -0.0758 -0.0976  0.2761
  329ccc    H11 8895   6.011   7.843   9.277  0.1605 -0.0541 -0.6453
  329ccc     O6 8896   5.645   7.969   9.217  0.1238 -0.6504  0.4210
  330ccc     C1 8897   4.581   8.586   8.839 -0.3809 -0.4517  0.5011
  330ccc     C2 8898   4.511   8.476   8.755  0.3679 -1.0333  0.1223
  330ccc     H1 8899   4.625   8.657   8.769  1.2058  0.2804  2.1679
  330ccc     H2 8900   4.440   8.520   8.684  1.6007 -0.0698 -0.5518
  330ccc     C3 8901   4.612   8.396   8.672 -0.1039  0.1923 -0.2305
  330ccc     C4 8902   4.730   8.351   8.757  0.1762 -0.2050  0.6047
  330ccc     C5 8903   4.793   8.469   8.838 -0.0317 -0.4063  0.1233
  330ccc     H3 8904   4.691   8.283   8.833 -1.1608 -3.1631 -2.4696
  330ccc     H4 8905   4.652   8.460   8.592 -1.0542  0.0734 -0.8340
  330ccc     H5 8906   4.842   8.549   8.781 -0.5020  2.3986  3.3024
  330ccc     O1 8907   4.896   8.413   8.925 -1.0130  0.9796  0.0160
  330ccc     O2 8908   4.836   8.292   8.678  0.1223  0.1368  0.6784
  330ccc     O3 8909   4.558   8.279   8.605 -0.3797  0.2642  0.7935
  330ccc     O4 8910   4.444   8.387   8.844 -0.0745  0.6292 -0.0355
  330ccc     C6 8911   4.484   8.648   8.943  0.0872  0.1302 -0.1591
  330ccc     H6 8912   4.530   8.228   8.683 -0.3701  0.4347  0.9077
  330ccc     H7 8913   4.443   8.445   8.922 -1.0368  0.4431  0.0998
  330ccc     H8 8914   4.816   8.203   8.646  1.2807  0.6398 -1.6569
  330ccc     H9 8915   4.403   8.699   8.890 -0.2123 -0.7131 -0.5247
  330ccc    H10 8916   4.537   8.729   8.996  1.6433 -0.8045 -0.2129
  330ccc     O5 8917   4.431   8.549   9.033  0.3508 -0.1136  0.3651
  330ccc    H11 8918   4.402   8.601   9.110  0.6563  0.0230  0.3921
  330ccc     O6 8919   4.692   8.537   8.916  0.0792  0.0690  0.2832
  331ccc     C1 8920   4.713   8.557   7.679  0.2598  0.4143  0.2824
  331ccc     C2 8921   4.748   8.637   7.545 -0.4256  0.3710 -0.3797
  331ccc     H1 8922   4.763   8.602   7.766  1.2396  0.4681 -0.2867
  331ccc     H2 8923   4.721   8.740   7.569  0.9333  0.0344  3.2202
  331ccc     C3 8924   4.901   8.620   7.515  0.1636  0.5321  0.3493
  331ccc     C4 8925   4.943   8.469   7.507 -0.7239 -0.1356  0.9135
  331ccc     C5 8926   4.904   8.394   7.628  0.0600  0.2929 -0.5899
  331ccc     H3 8927   4.894   8.423   7.420 -1.4071  1.0917  0.6147
  331ccc     H4 8928   4.963   8.661   7.596  0.2414 -1.8339  1.5701
  331ccc     H5 8929   4.973   8.421   7.709 -0.8918  0.8838  0.0526
  331ccc     O1 8930   4.907   8.255   7.605  0.1010 -0.0227 -0.4878
  331ccc     O2 8931   5.086   8.469   7.500 -0.0730 -0.8124 -0.3450
  331ccc     O3 8932   4.943   8.693   7.390 -0.0811  0.3812 -0.4610
  331ccc     O4 8933   4.667   8.573   7.440  0.4710  0.8056  0.2436
  331ccc     C6 8934   4.563   8.547   7.716 -0.1739 -0.1578 -0.4125
  331ccc     H6 8935   4.880   8.765   7.374  0.6415  0.8555 -1.2559
  331ccc     H7 8936   4.602   8.538   7.503 -1.5539 -1.0375 -2.6163
  331ccc     H8 8937   5.114   8.555   7.463 -0.4807 -0.8606 -0.7741
  331ccc     H9 8938   4.524   8.648   7.734 -1.8069 -0.6658 -0.9310
  331ccc    H10 8939   4.553   8.493   7.811  0.8648  2.2076  1.1321
  331ccc     O5 8940   4.485   8.476   7.617  0.3230 -0.6794 -0.0727
  331ccc    H11 8941   4.476   8.385   7.652  1.0846 -1.1956 -1.1628
  331ccc     O6 8942   4.763   8.419   7.658 -0.1593  0.6324  0.2563
  332ccc     C1 8943   4.207   7.644   7.242  0.1359  0.6492  0.4406
  332ccc     C2 8944   4.214   7.503   7.177 -0.2459 -0.4325 -0.5876
  332ccc     H1 8945   4.199   7.709   7.154 -0.2798 -1.4538 -1.1481
  332ccc     H2 8946   4.124   7.486   7.117 -0.4800 -0.3156 -0.2696
  332ccc     C3 8947   4.332   7.490   7.077 -0.1722 -0.2855 -0.2201
  332ccc     C4 8948   4.462   7.519   7.149 -0.4814  0.4856 -0.2114
  332ccc     C5 8949   4.451   7.662   7.214  0.7211  0.3024 -0.2802
  332ccc     H3 8950   4.486   7.442   7.223  2.6572 -1.0906 -2.6247
  332ccc     H4 8951   4.326   7.561   6.994 -0.6591 -0.1209 -0.0427
  332ccc     H5 8952   4.442   7.733   7.131 -1.5816  1.7415  1.0898
  332ccc     O1 8953   4.565   7.689   7.293  0.4715  0.1456  0.2937
  332ccc     O2 8954   4.567   7.520   7.052  0.0153 -0.2175 -0.4871
  332ccc     O3 8955   4.344   7.345   7.040  0.0799 -0.2074 -0.6781
  332ccc     O4 8956   4.231   7.402   7.279  0.4026 -0.1541 -0.0624
  332ccc     C6 8957   4.090   7.660   7.338  0.3825 -0.1041  0.2563
  332ccc     H6 8958   4.325   7.336   6.945  0.1417 -1.8261 -0.5636
  332ccc     H7 8959   4.259   7.331   7.219  1.1503  1.0448 -1.1624
  332ccc     H8 8960   4.572   7.427   7.024 -0.6117 -1.8825  3.9679
  332ccc     H9 8961   4.126   7.653   7.442 -0.0874  0.6540  0.4788
  332ccc    H10 8962   4.016   7.581   7.324  0.0872  0.0351  0.9949
  332ccc     O5 8963   4.018   7.778   7.299 -0.3345 -0.4053  0.1184
  332ccc    H11 8964   4.084   7.847   7.281  0.1018 -0.2019  2.2599
  332ccc     O6 8965   4.339   7.678   7.300 -0.0260 -0.1915  0.0714
  333ccc     C1 8966   4.412   6.757   6.612  0.8605  0.0804  0.2050
  333ccc     C2 8967   4.331   6.884   6.586  1.0221 -0.3523  0.2269
  333ccc     H1 8968   4.342   6.674   6.630  0.9279  0.0759  0.4591
  333ccc     H2 8969   4.266   6.877   6.498  1.4218 -1.2087 -0.0090
  333ccc     C3 8970   4.244   6.923   6.712 -0.6653  0.2466  0.9575
  333ccc     C4 8971   4.334   6.923   6.839  0.0707 -0.2254 -0.6957
  333ccc     C5 8972   4.417   6.788   6.856 -0.4053 -0.4541  0.0608
  333ccc     H3 8973   4.411   7.000   6.822  0.3040  0.1457  1.7000
  333ccc     H4 8974   4.171   6.842   6.720 -0.5526  0.2509  2.1327
  333ccc     H5 8975   4.362   6.698   6.884 -1.5615  0.5317  1.0736
  333ccc     O1 8976   4.511   6.813   6.962  0.3924 -0.3557  0.1110
  333ccc     O2 8977   4.262   6.946   6.963  0.4087 -0.0024  0.2120
  333ccc     O3 8978   4.175   7.050   6.695 -0.2329 -0.0614 -0.0562
  333ccc     O4 8979   4.432   6.987   6.569  0.1815  0.2078 -0.3928
  333ccc     C6 8980   4.490   6.716   6.485  0.3686 -0.1963 -0.1631
  333ccc     H6 8981   4.108   7.059   6.765 -0.1709  3.3516 -0.2751
  333ccc     H7 8982   4.387   7.054   6.515 -1.5857 -1.2702 -0.8565
  333ccc     H8 8983   4.215   6.864   6.984  3.6470 -2.2244 -0.4616
  333ccc     H9 8984   4.578   6.780   6.469  0.6152 -0.4178  0.2926
  333ccc    H10 8985   4.419   6.708   6.402  0.1583  0.8599 -0.1066
  333ccc     O5 8986   4.537   6.586   6.510  0.2385  0.1095 -0.1534
  333ccc    H11 8987   4.607   6.602   6.575 -1.9664 -1.7054  2.9436
  333ccc     O6 8988   4.492   6.769   6.738 -0.4131  0.1726  0.4852
  334ccc     C1 8989   3.829   6.803   7.246 -0.1672  0.5395  0.2566
  334ccc     C2 8990   3.784   6.730   7.112  0.0730  0.4394 -0.5513
  334ccc     H1 8991   3.856   6.905   7.216 -0.9159  1.0782  1.3470
  334ccc     H2 8992   3.697   6.780   7.067  0.3649  0.6767 -0.8691
  334ccc     C3 8993   3.907   6.724   7.010 -0.2942 -0.9711 -0.8228
  334ccc     C4 8994   4.036   6.672   7.079  0.6000 -0.2908 -0.5392
  334ccc     C5 8995   4.059   6.736   7.213 -0.1642 -0.3920 -0.6248
  334ccc     H3 8996   4.022   6.565   7.099  1.2188 -0.1011  1.0055
  334ccc     H4 8997   3.923   6.830   6.985  0.2415 -0.7169  0.5213
  334ccc     H5 8998   4.088   6.840   7.195  0.9775 -0.4621  0.6421
  334ccc     O1 8999   4.171   6.661   7.279 -0.5508 -0.1912  0.1941
  334ccc     O2 9000   4.138   6.699   6.989 -0.0488 -0.9579 -0.2473
  334ccc     O3 9001   3.870   6.651   6.887 -0.2685 -0.3030 -0.1478
  334ccc     O4 9002   3.748   6.592   7.155 -1.0257  0.0615  0.0812
  334ccc     C6 9003   3.726   6.807   7.361 -0.8885 -0.8673 -0.0004
  334ccc     H6 9004   3.874   6.715   6.814  1.6759 -1.5973 -1.2796
  334ccc     H7 9005   3.712   6.553   7.073 -0.5673 -1.5663  0.6270
  334ccc     H8 9006   4.137   6.624   6.927 -1.1323 -0.4090 -0.9196
  334ccc     H9 9007   3.717   6.708   7.406  1.8173 -1.0643  0.3070
  334ccc    H10 9008   3.627   6.838   7.327 -1.1276 -1.3848  0.2222
  334ccc     O5 9009   3.781   6.900   7.453  0.4233  0.6409 -0.1994
  334ccc    H11 9010   3.854   6.855   7.498 -0.6051 -1.4796 -0.4979
  334ccc     O6 9011   3.942   6.729   7.298 -0.4965  0.3335  0.3826
  335ccc     C1 9012   8.233   8.085   8.660  0.3593  0.1403  0.1163
  335ccc     C2 9013   8.344   8.194   8.661 -0.3780  0.0796  0.0147
  335ccc     H1 9014   8.247   8.036   8.563  1.1535  3.9514 -1.8794
  335ccc     H2 9015   8.439   8.148   8.630 -1.5224 -2.3317 -0.1775
  335ccc     C3 9016   8.313   8.304   8.555 -0.3064  0.8215 -0.9477
  335ccc     C4 9017   8.171   8.357   8.563  0.0739  0.5851 -0.2061
  335ccc     C5 9018   8.069   8.238   8.560  1.1877  0.6149  0.1309
  335ccc     H3 9019   8.172   8.398   8.665  2.5839  0.6793 -0.2022
  335ccc     H4 9020   8.322   8.269   8.451 -0.2587  0.1700 -0.7282
  335ccc     H5 9021   8.067   8.193   8.461 -2.4874  0.6202  0.0677
  335ccc     O1 9022   7.933   8.294   8.587 -0.4321 -0.2043  0.0517
  335ccc     O2 9023   8.149   8.465   8.466  0.2686 -0.1036  0.4295
  335ccc     O3 9024   8.406   8.408   8.570 -0.4899 -0.3109 -0.7248
  335ccc     O4 9025   8.355   8.240   8.785 -0.1336  0.1736 -0.9872
  335ccc     C6 9026   8.246   7.978   8.776 -0.0894  0.1917  0.0026
  335ccc     H6 9027   8.399   8.470   8.495  0.2284  3.7186  2.1723
  335ccc     H7 9028   8.423   8.310   8.785 -1.3512  1.4495  1.1389
  335ccc     H8 9029   8.195   8.436   8.385 -0.1119  0.7890 -0.1231
  335ccc     H9 9030   8.251   8.034   8.870  0.4246 -0.1915  0.2067
  335ccc    H10 9031   8.347   7.936   8.766 -0.5268 -0.8079 -0.2839
  335ccc     O5 9032   8.157   7.869   8.765 -0.1182 -0.1167 -0.1030
  335ccc    H11 9033   8.120   7.853   8.853 -2.4372 -2.2959 -1.3653
  335ccc     O6 9034   8.099   8.146   8.668  0.3972  0.0430 -0.6178
  336ccc     C1 9035   7.227   8.800   7.898 -0.2199 -0.0286  0.1979
  336ccc     C2 9036   7.253   8.753   7.751  0.6312 -0.1055 -0.1836
  336ccc     H1 9037   7.260   8.904   7.909 -0.4578 -0.0910  1.7177
  336ccc     H2 9038   7.208   8.825   7.681  0.2696 -1.5125 -1.4354
  336ccc     C3 9039   7.403   8.743   7.711 -0.0922 -0.8228 -0.2628
  336ccc     C4 9040   7.483   8.666   7.816 -0.3433 -0.1963 -0.2724
  336ccc     C5 9041   7.439   8.711   7.965 -0.2235 -0.0747  0.0207
  336ccc     H3 9042   7.451   8.562   7.800 -0.4972 -0.0638 -0.8350
  336ccc     H4 9043   7.446   8.844   7.710 -0.0664 -0.7670 -3.6390
  336ccc     H5 9044   7.474   8.813   7.987  1.5643 -0.2965 -1.4865
  336ccc     O1 9045   7.492   8.612   8.057  0.7776 -0.5397 -0.5830
  336ccc     O2 9046   7.628   8.683   7.813  0.9856 -0.2493 -0.3645
  336ccc     O3 9047   7.413   8.691   7.579  0.2251  0.6355  0.3520
  336ccc     O4 9048   7.201   8.617   7.739  0.0276 -0.2798  0.5946
  336ccc     C6 9049   7.083   8.817   7.943 -0.1170  0.0458 -0.1115
  336ccc     H6 9050   7.395   8.597   7.596 -1.4504  0.3780 -2.2825
  336ccc     H7 9051   7.139   8.614   7.814 -1.1801  0.9874 -0.3124
  336ccc     H8 9052   7.649   8.731   7.731  0.7753 -0.5698 -0.6077
  336ccc     H9 9053   7.030   8.886   7.876 -0.1032 -0.7187 -0.9424
  336ccc    H10 9054   7.083   8.853   8.046 -2.5804  1.1739 -0.4334
  336ccc     O5 9055   7.031   8.691   7.930  0.0956  0.2212  0.0926
  336ccc    H11 9056   6.940   8.699   7.961  0.6865  0.5025  1.8671
  336ccc     O6 9057   7.301   8.717   7.990  0.7146  0.5375  0.4422
  337ccc     C1 9058   7.772   8.780   8.803 -0.4126 -0.3456 -0.3732
  337ccc     C2 9059   7.890   8.760   8.708  0.4724 -0.0703  0.6006
  337ccc     H1 9060   7.809   8.844   8.884 -1.5096 -0.0789 -0.0730
  337ccc     H2 9061   7.917   8.859   8.671 -0.0281 -0.4236 -0.7796
  337ccc     C3 9062   8.010   8.688   8.778  0.3184  0.7552 -0.3690
  337ccc     C4 9063   7.966   8.554   8.855 -1.1053  0.0582 -0.0688
  337ccc     C5 9064   7.834   8.583   8.940  0.1798  0.0979 -0.1394
  337ccc     H3 9065   7.938   8.478   8.780  0.9735  0.6354 -1.4985
  337ccc     H4 9066   8.049   8.760   8.851 -0.0551  0.8330 -0.2449
  337ccc     H5 9067   7.868   8.639   9.029 -0.7743  3.5298 -1.7697
  337ccc     O1 9068   7.790   8.451   8.966  0.1837  0.0004  0.2030
  337ccc     O2 9069   8.081   8.508   8.932  0.4967 -0.2307  0.0291
  337ccc     O3 9070   8.114   8.653   8.677 -0.2926 -0.0864  0.2398
  337ccc     O4 9071   7.845   8.682   8.597 -0.0538  0.1466  0.5150
  337ccc     C6 9072   7.650   8.851   8.752 -0.0167  0.1504  0.1939
  337ccc     H6 9073   8.199   8.624   8.715 -0.0816 -0.4864 -0.5107
  337ccc     H7 9074   7.748   8.689   8.600 -0.1613 -1.2717  1.1444
  337ccc     H8 9075   8.155   8.561   8.899 -0.2311  1.2399  0.6663
  337ccc     H9 9076   7.678   8.956   8.738  1.8315 -0.3987 -0.4859
  337ccc    H10 9077   7.571   8.847   8.828 -0.9411  3.4560 -0.4076
  337ccc     O5 9078   7.611   8.802   8.618 -0.1581 -0.4442  0.0261
  337ccc    H11 9079   7.544   8.864   8.584  0.8898  0.9476  0.3783
  337ccc     O6 9080   7.737   8.654   8.865  0.0712 -0.3210 -0.3216
  338ccc     C1 9081   8.476   7.818   9.454  0.0758 -0.8624 -0.6734
  338ccc     C2 9082   8.435   7.682   9.399  0.5212  0.4858 -0.4768
  338ccc     H1 9083   8.496   7.813   9.562 -2.1525 -2.7351 -0.2664
  338ccc     H2 9084   8.520   7.613   9.413 -1.3990 -1.8504  0.3860
  338ccc     C3 9085   8.325   7.624   9.482 -0.4310 -0.4412  0.0508
  338ccc     C4 9086   8.210   7.725   9.495  0.5101  0.5030 -0.6261
  338ccc     C5 9087   8.245   7.878   9.507  0.2383 -0.0220  0.2038
  338ccc     H3 9088   8.166   7.721   9.394 -0.0112 -0.0957 -0.3839
  338ccc     H4 9089   8.376   7.619   9.579  1.7706  3.2108 -0.7383
  338ccc     H5 9090   8.264   7.911   9.610  1.3168  1.5369 -0.4602
  338ccc     O1 9091   8.136   7.963   9.466  0.2277  0.0467  0.5328
  338ccc     O2 9092   8.110   7.698   9.590  0.2020 -0.3304 -1.0413
  338ccc     O3 9093   8.282   7.486   9.451 -0.6052  0.6033 -0.4756
  338ccc     O4 9094   8.409   7.698   9.257  0.4851 -0.1713  0.8332
  338ccc     C6 9095   8.601   7.876   9.387  0.1981 -0.6330 -0.1299
  338ccc     H6 9096   8.202   7.483   9.507  1.4527  1.2314  2.7649
  338ccc     H7 9097   8.490   7.666   9.215  1.4057  0.3917  2.1154
  338ccc     H8 9098   8.027   7.742   9.565 -1.5762 -1.7362  1.8443
  338ccc     H9 9099   8.591   7.905   9.282 -2.3393 -0.5041  0.0942
  338ccc    H10 9100   8.679   7.799   9.378  0.9549  0.2144 -1.0701
  338ccc     O5 9101   8.649   7.985   9.464 -0.2008  0.1026  0.3591
  338ccc    H11 9102   8.579   8.052   9.471 -0.6100 -0.3720  0.8662
  338ccc     O6 9103   8.366   7.913   9.434 -0.8802  0.4875 -0.7247
  339ccc     C1 9104   8.320   6.739   9.725  0.1257 -0.3215  0.3622
  339ccc     C2 9105   8.317   6.894   9.747  0.4263  0.3457 -0.9457
  339ccc     H1 9106   8.383   6.719   9.638 -0.3190  0.1033 -0.0632
  339ccc     H2 9107   8.412   6.941   9.777 -0.3648  1.6885 -0.4343
  339ccc     C3 9108   8.269   6.950   9.611 -0.0223 -0.3775 -0.1333
  339ccc     C4 9109   8.129   6.886   9.572 -0.0628 -0.5837 -0.3624
  339ccc     C5 9110   8.125   6.732   9.581 -0.4767 -0.1962 -0.0730
  339ccc     H3 9111   8.057   6.925   9.646  0.6362  0.3518 -0.1710
  339ccc     H4 9112   8.343   6.917   9.537  0.0710 -0.4659 -0.0020
  339ccc     H5 9113   8.165   6.682   9.492 -4.2300 -1.5136 -1.2297
  339ccc     O1 9114   7.986   6.696   9.592 -0.3377 -0.4720 -0.0285
  339ccc     O2 9115   8.074   6.946   9.445 -0.3712  1.0003  0.0876
  339ccc     O3 9116   8.259   7.100   9.611 -0.1508  0.5514 -0.2179
  339ccc     O4 9117   8.227   6.926   9.856 -0.2147 -0.1366 -0.1869
  339ccc     C6 9118   8.379   6.658   9.848 -0.1188 -0.5247  0.6744
  339ccc     H6 9119   8.172   7.118   9.650  0.4933 -0.8927  2.0549
  339ccc     H7 9120   8.274   6.993   9.909  0.8307 -0.3903 -0.7747
  339ccc     H8 9121   8.135   6.911   9.378 -1.6424  2.4141 -1.9206
  339ccc     H9 9122   8.480   6.700   9.851 -0.1028 -0.3720 -1.0971
  339ccc    H10 9123   8.382   6.550   9.830  1.4093 -0.3694 -0.1781
  339ccc     O5 9124   8.301   6.695   9.963 -0.3549  0.3634  0.8300
  339ccc    H11 9125   8.247   6.765   9.922 -0.7903 -0.7474 -0.5710
  339ccc     O6 9126   8.188   6.688   9.706 -0.3872 -0.0391 -0.2095
  340ccc     C1 9127   7.600   5.760   9.196  0.2917 -0.1173  0.3047
  340ccc     C2 9128   7.746   5.722   9.214  0.6530 -0.0244  0.4178
  340ccc     H1 9129   7.581   5.752   9.088 -0.4190  0.1434  0.4108
  340ccc     H2 9130   7.770   5.625   9.169  1.3445  0.5904 -0.5743
  340ccc     C3 9131   7.840   5.830   9.150  0.4597  0.3543 -1.0189
  340ccc     C4 9132   7.806   5.973   9.221  0.5187 -0.1029 -0.5412
  340ccc     C5 9133   7.646   6.007   9.216 -0.5666  0.1385  0.3934
  340ccc     H3 9134   7.834   5.972   9.327 -3.3132  1.6784  0.6753
  340ccc     H4 9135   7.811   5.840   9.045 -0.2525  1.8908 -0.7038
  340ccc     H5 9136   7.606   6.036   9.118  0.8747  1.5291  0.1706
  340ccc     O1 9137   7.620   6.110   9.312 -0.5171 -0.3752 -0.6279
  340ccc     O2 9138   7.884   6.078   9.151 -0.0277 -0.0696 -0.8735
  340ccc     O3 9139   7.977   5.797   9.165 -0.3167 -0.2861  0.1005
  340ccc     O4 9140   7.771   5.732   9.353  0.7688  0.1883  0.0516
  340ccc     C6 9141   7.507   5.660   9.272 -0.2015  0.2867 -0.1338
  340ccc     H6 9142   8.015   5.766   9.081 -0.4442  0.1550 -0.1294
  340ccc     H7 9143   7.853   5.687   9.381  0.6012 -0.6298 -0.7354
  340ccc     H8 9144   7.974   6.042   9.151  0.0526  0.0391 -2.3843
  340ccc     H9 9145   7.487   5.697   9.373  1.0547 -0.4804  0.4212
  340ccc    H10 9146   7.561   5.565   9.278 -1.0348 -0.3344 -1.8000
  340ccc     O5 9147   7.383   5.638   9.211  0.1304  0.1594  0.6773
  340ccc    H11 9148   7.399   5.576   9.137 -1.0982 -0.0427  0.5683
  340ccc     O6 9149   7.569   5.891   9.255  0.2570 -0.2344 -0.7863
  341ccc     C1 9150   7.300   6.426   9.910 -0.0411  0.1111  0.0102
  341ccc     C2 9151   7.174   6.476   9.833 -0.3529 -0.3214 -0.5950
  341ccc     H1 9152   7.277   6.340   9.975  0.8701 -1.2292 -1.3793
  341ccc     H2 9153   7.118   6.393   9.789 -0.0938 -0.4131 -0.7540
  341ccc     C3 9154   7.079   6.552   9.927 -0.3763  0.1233 -0.1566
  341ccc     C4 9155   7.157   6.646  10.026  0.4331  0.0041 -0.6257
  341ccc     C5 9156   7.274   6.573  10.094  0.7721 -0.5564 -0.1082
  341ccc     H3 9157   7.201   6.725   9.964  1.7776 -0.8569 -0.8255
  341ccc     H4 9158   7.036   6.469   9.985 -0.8444  0.2651 -0.2955
  341ccc     H5 9159   7.238   6.487  10.152 -1.5424 -1.0554 -2.0683
  341ccc     O1 9160   7.343   6.669  10.177  0.4568  0.0103  0.2812
  341ccc     O2 9161   7.056   6.700  10.128  0.2014  0.8235 -0.3440
  341ccc     O3 9162   6.967   6.615   9.870  0.1591 -0.1658  0.5537
  341ccc     O4 9163   7.208   6.564   9.722  0.2562 -0.4355  0.4158
  341ccc     C6 9164   7.415   6.370   9.822 -0.5730  0.1531 -0.0123
  341ccc     H6 9165   6.924   6.547   9.815  0.5763 -0.6369  0.8068
  341ccc     H7 9166   7.129   6.571   9.665  1.0308 -1.8134 -0.8949
  341ccc     H8 9167   7.009   6.763  10.071 -1.7117 -0.5472 -0.3948
  341ccc     H9 9168   7.381   6.279   9.771 -1.0367  1.0723 -1.3901
  341ccc    H10 9169   7.504   6.354   9.885 -0.7018  0.7095  0.3109
  341ccc     O5 9170   7.451   6.477   9.739  0.1882 -0.7190 -0.6578
  341ccc    H11 9171   7.363   6.510   9.713  0.2076 -0.4487 -0.3797
  341ccc     O6 9172   7.362   6.523   9.994 -0.5150 -0.2407 -0.4633
  342ccc     C1 9173   8.102   7.485   9.979 -0.3380 -0.9265  0.1517
  342ccc     C2 9174   8.088   7.507   9.824 -0.2391 -0.3000 -0.1804
  342ccc     H1 9175   8.201   7.441   9.999  0.7309  1.1905 -0.2444
  342ccc     H2 9176   8.177   7.564   9.794  0.5508  0.1653  2.7537
  342ccc     C3 9177   8.094   7.372   9.746 -0.0429  0.5324  0.2566
  342ccc     C4 9178   8.001   7.272   9.809  1.1179  0.5702 -0.0134
  342ccc     C5 9179   8.001   7.260   9.968  0.3770 -0.1078 -0.0891
  342ccc     H3 9180   7.898   7.299   9.783  0.7605  0.6221  1.3938
  342ccc     H4 9181   8.198   7.339   9.759 -0.2125 -0.0521  0.1098
  342ccc     H5 9182   8.087   7.199   9.996  0.2854 -1.2891 -2.2242
  342ccc     O1 9183   7.880   7.187  10.010 -0.3094  0.1616  0.4613
  342ccc     O2 9184   8.037   7.140   9.749  0.0126  0.1160 -0.2697
  342ccc     O3 9185   8.072   7.394   9.603  0.6161  0.0513  0.5274
  342ccc     O4 9186   7.967   7.580   9.792  0.3943 -0.5957 -0.2898
  342ccc     C6 9187   8.110   7.612  10.070  0.0370 -0.8888 -0.1126
  342ccc     H6 9188   8.050   7.313   9.555  1.2424  1.0316 -1.5128
  342ccc     H7 9189   7.997   7.612   9.705  2.3987 -0.4150  0.4083
  342ccc     H8 9190   7.951   7.097   9.733  1.3855 -2.6340 -0.8935
  342ccc     H9 9191   8.205   7.663  10.049 -0.1853 -0.4533 -0.0912
  342ccc    H10 9192   8.113   7.587  10.176  1.6652 -2.2398 -0.4276
  342ccc     O5 9193   7.997   7.700  10.041  0.3091  0.3048  0.3073
  342ccc    H11 9194   7.967   7.664   9.956 -0.7203 -0.7748  1.0786
  342ccc     O6 9195   7.994   7.397  10.021 -0.4537 -0.0205 -0.0917
  343ccc     C1 9196   7.582   6.920   5.946 -0.7015 -0.0126  0.4241
  343ccc     C2 9197   7.506   6.797   5.897 -0.5172 -0.1017 -0.5645
  343ccc     H1 9198   7.687   6.911   5.916 -0.3541  2.2707  0.8208
  343ccc     H2 9199   7.530   6.780   5.792 -0.8257  0.0336 -0.6570
  343ccc     C3 9200   7.552   6.676   5.973  0.0428 -0.3671 -0.2839
  343ccc     C4 9201   7.554   6.694   6.133  0.0790  0.3279  0.5400
  343ccc     C5 9202   7.632   6.830   6.165 -0.4747  0.4353 -0.5173
  343ccc     H3 9203   7.451   6.693   6.171 -0.3719  0.8387 -0.6388
  343ccc     H4 9204   7.655   6.660   5.940  0.3353  1.3524 -0.3126
  343ccc     H5 9205   7.738   6.809   6.142  0.0065  0.9405  1.1058
  343ccc     O1 9206   7.626   6.855   6.308  0.5705  0.0002  0.3833
  343ccc     O2 9207   7.609   6.580   6.197 -0.7607 -0.5155 -0.3780
  343ccc     O3 9208   7.462   6.568   5.936 -0.0310 -0.0418  0.2409
  343ccc     O4 9209   7.365   6.820   5.926 -0.1412 -0.3932 -0.3622
  343ccc     C6 9210   7.523   7.041   5.872  0.3082  0.3680 -0.1303
  343ccc     H6 9211   7.379   6.568   5.986 -0.4564  3.2481 -0.2731
  343ccc     H7 9212   7.319   6.769   5.857 -1.2811  2.4383 -1.8612
  343ccc     H8 9213   7.531   6.540   6.239  0.0382  0.5693  2.4085
  343ccc     H9 9214   7.425   7.064   5.915  0.1560  0.0836 -0.3250
  343ccc    H10 9215   7.497   7.006   5.771  1.1916  1.2890 -0.7018
  343ccc     O5 9216   7.612   7.156   5.873  0.2461  0.1347 -0.0458
  343ccc    H11 9217   7.700   7.129   5.843 -0.0093 -0.6984 -0.0712
  343ccc     O6 9218   7.577   6.935   6.089 -0.0518  0.1384  0.0185
  344ccc     C1 9219   6.663   7.016   6.096 -0.8645 -0.0213  0.1378
  344ccc     C2 9220   6.601   6.885   6.059 -0.1684  0.2303  0.7651
  344ccc     H1 9221   6.738   7.041   6.020 -0.4335 -0.1080  0.5310
  344ccc     H2 9222   6.564   6.892   5.956  0.4662  0.1989  0.5291
  344ccc     C3 9223   6.704   6.770   6.054 -0.0553 -0.2291  0.0135
  344ccc     C4 9224   6.795   6.776   6.178 -0.1788 -0.2298 -0.2549
  344ccc     C5 9225   6.851   6.921   6.211 -0.2535  0.0072 -0.4095
  344ccc     H3 9226   6.741   6.745   6.268  0.9739 -0.7034  0.2908
  344ccc     H4 9227   6.764   6.795   5.965 -1.0675  0.0652 -0.6096
  344ccc     H5 9228   6.915   6.948   6.126 -1.3716 -1.0925 -1.6775
  344ccc     O1 9229   6.925   6.918   6.339  0.0702  0.1521  0.1023
  344ccc     O2 9230   6.899   6.679   6.156 -0.4238 -0.0003  0.2678
  344ccc     O3 9231   6.651   6.637   6.026  0.3029 -0.4324  0.2058
  344ccc     O4 9232   6.503   6.846   6.151  0.1745 -0.1175 -0.5031
  344ccc     C6 9233   6.575   7.139   6.106  0.5603  0.1597 -0.1077
  344ccc     H6 9234   6.732   6.586   6.007  0.5197 -0.4957  1.2405
  344ccc     H7 9235   6.415   6.870   6.116 -0.8725 -1.1159  1.2811
  344ccc     H8 9236   6.958   6.713   6.087 -0.1736 -1.2848 -0.1720
  344ccc     H9 9237   6.514   7.143   6.197 -1.6334 -0.2288 -1.4883
  344ccc    H10 9238   6.504   7.143   6.023 -1.2630 -0.3126  1.3553
  344ccc     O5 9239   6.660   7.255   6.080  0.1092  0.0862 -0.3791
  344ccc    H11 9240   6.713   7.266   6.161 -0.1050  0.4587 -0.2903
  344ccc     O6 9241   6.733   7.013   6.224  0.3608 -0.0100 -0.2793
  345ccc     C1 9242   8.615   7.863   7.236  0.0397  0.4848  1.0006
  345ccc     C2 9243   8.732   7.854   7.138  0.4670  0.7362 -0.2030
  345ccc     H1 9244   8.655   7.853   7.338  1.5013  0.8735  0.4938
  345ccc     H2 9245   8.790   7.936   7.182  0.5951  0.4640  0.1430
  345ccc     C3 9246   8.805   7.708   7.135  0.2487 -0.4106  0.5902
  345ccc     C4 9247   8.702   7.608   7.098  0.3075  0.0445 -0.2581
  345ccc     C5 9248   8.587   7.616   7.205  0.1180 -1.4860 -0.6067
  345ccc     H3 9249   8.656   7.635   7.002 -4.7681 -0.6949  1.6666
  345ccc     H4 9250   8.847   7.669   7.228 -0.1275 -0.4770  0.7322
  345ccc     H5 9251   8.628   7.585   7.302 -1.9530  0.2509  0.9257
  345ccc     O1 9252   8.478   7.523   7.171  0.2667  0.1972  0.4839
  345ccc     O2 9253   8.773   7.477   7.104 -0.1988  0.4790 -0.0314
  345ccc     O3 9254   8.910   7.709   7.035 -0.1179 -0.0081  0.0944
  345ccc     O4 9255   8.693   7.895   7.012  0.0792 -0.5216 -0.0797
  345ccc     C6 9256   8.534   7.996   7.229 -0.1328  0.0438  0.7318
  345ccc     H6 9257   8.938   7.616   7.028 -0.6073 -0.0863 -0.9035
  345ccc     H7 9258   8.759   7.871   6.944  0.2124 -0.8666  0.1724
  345ccc     H8 9259   8.803   7.461   7.195 -2.8010 -1.1792  0.6675
  345ccc     H9 9260   8.468   7.982   7.142 -0.4767  1.3237  0.7729
  345ccc    H10 9261   8.594   8.084   7.203 -1.6028  0.9130  0.1405
  345ccc     O5 9262   8.466   8.022   7.355  0.3412 -0.2219 -0.6274
  345ccc    H11 9263   8.427   8.111   7.348  0.2556 -0.3021 -1.2390
  345ccc     O6 9264   8.527   7.749   7.196  0.3722 -0.5595  0.1030
  346ccc     C1 9265   8.163   7.542   6.280 -0.1490 -0.5044 -0.1448
  346ccc     C2 9266   8.253   7.666   6.288  0.4458  0.3503 -0.3173
  346ccc     H1 9267   8.077   7.582   6.225 -0.8645 -0.6923  0.8045
  346ccc     H2 9268   8.283   7.716   6.195  1.2585  1.7635  0.6623
  346ccc     C3 9269   8.196   7.785   6.370 -0.6862  0.6791  0.4578
  346ccc     C4 9270   8.125   7.740   6.496 -0.3313  0.1060  0.5730
  346ccc     C5 9271   8.046   7.604   6.486  0.0396 -0.6309  0.2404
  346ccc     H3 9272   8.208   7.725   6.566  0.7462  1.9788 -0.2518
  346ccc     H4 9273   8.116   7.825   6.307  0.7629 -1.3261 -2.9163
  346ccc     H5 9274   7.952   7.630   6.435 -0.4173  0.7837  1.7094
  346ccc     O1 9275   8.012   7.555   6.615  0.5068  0.4309 -0.2842
  346ccc     O2 9276   8.034   7.851   6.535  0.1829 -0.0940  0.4793
  346ccc     O3 9277   8.302   7.881   6.403  0.2476  0.0816 -0.1503
  346ccc     O4 9278   8.369   7.608   6.354  0.1709 -0.6883  0.1715
  346ccc     C6 9279   8.209   7.422   6.197  0.2316  0.7825 -0.2350
  346ccc     H6 9280   8.257   7.964   6.429 -3.0922 -2.1769  2.1876
  346ccc     H7 9281   8.358   7.520   6.313 -2.9861  0.6885 -2.3122
  346ccc     H8 9282   8.011   7.841   6.629 -0.8391 -0.3947  0.2100
  346ccc     H9 9283   8.227   7.447   6.091  0.2381  1.5714 -0.0511
  346ccc    H10 9284   8.137   7.340   6.199  1.3360 -0.2057  1.8940
  346ccc     O5 9285   8.337   7.384   6.247 -0.5746  0.6923 -0.7453
  346ccc    H11 9286   8.376   7.322   6.183 -2.5555 -1.4632 -0.0043
  346ccc     O6 9287   8.115   7.506   6.411 -0.4887 -0.4056 -0.2908
  347ccc     C1 9288   7.141   8.410   8.157  0.0867 -1.0750  0.2471
  347ccc     C2 9289   7.038   8.315   8.092  0.4804 -0.2183 -0.5136
  347ccc     H1 9290   7.115   8.512   8.126 -0.0758 -0.7838  1.2922
  347ccc     H2 9291   6.934   8.346   8.111  0.8446  1.1384 -0.5964
  347ccc     C3 9292   7.045   8.312   7.934 -0.5129  0.0591 -0.5055
  347ccc     C4 9293   7.187   8.280   7.894 -0.0453 -0.6718  0.0426
  347ccc     C5 9294   7.278   8.386   7.963  0.2503  0.3566  0.1521
  347ccc     H3 9295   7.217   8.179   7.924  2.9819 -0.0420 -0.5234
  347ccc     H4 9296   7.015   8.412   7.898 -0.8581  0.6711  1.3689
  347ccc     H5 9297   7.244   8.487   7.938 -2.0252 -0.2362  0.5893
  347ccc     O1 9298   7.412   8.370   7.928  0.3384  0.0131  0.5575
  347ccc     O2 9299   7.187   8.293   7.747  0.0814  0.2292  0.4191
  347ccc     O3 9300   6.947   8.215   7.880  0.5502 -0.3462 -0.2677
  347ccc     O4 9301   7.054   8.179   8.143 -0.8006 -0.0463  0.3228
  347ccc     C6 9302   7.126   8.408   8.308 -0.0562 -0.4128  0.3054
  347ccc     H6 9303   6.965   8.127   7.918 -0.6979 -0.0476  1.0737
  347ccc     H7 9304   6.963   8.144   8.135 -0.2257 -1.5913  0.0249
  347ccc     H8 9305   7.210   8.202   7.721 -0.0986  0.0642  0.8172
  347ccc     H9 9306   7.169   8.315   8.348 -2.0984 -0.7765  1.8012
  347ccc    H10 9307   7.020   8.397   8.333 -0.5395 -0.7205 -1.6906
  347ccc     O5 9308   7.178   8.516   8.386 -0.0415  0.0220 -0.0429
  347ccc    H11 9309   7.144   8.491   8.474 -0.5859 -1.8234 -0.7325
  347ccc     O6 9310   7.266   8.368   8.108 -0.0515 -0.1865  0.1150
  348ccc     C1 9311   7.784   8.723   7.045  0.2620 -0.4531  0.0586
  348ccc     C2 9312   7.663   8.786   6.970 -0.1747 -0.2792  0.2345
  348ccc     H1 9313   7.831   8.645   6.985  0.6087  1.0057 -1.6473
  348ccc     H2 9314   7.685   8.840   6.877 -1.0796  2.0182  1.2799
  348ccc     C3 9315   7.550   8.679   6.953  0.6131 -0.0758 -0.3249
  348ccc     C4 9316   7.515   8.612   7.092 -0.0194  0.4833  0.1656
  348ccc     C5 9317   7.645   8.558   7.157 -0.2878  0.1209  0.2385
  348ccc     H3 9318   7.468   8.690   7.153  0.3946  0.1105  0.9677
  348ccc     H4 9319   7.574   8.603   6.878 -0.2778  1.1432 -1.9242
  348ccc     H5 9320   7.690   8.472   7.105 -0.4292  1.0419 -1.4699
  348ccc     O1 9321   7.610   8.512   7.289  0.1358 -0.1441 -0.2683
  348ccc     O2 9322   7.422   8.506   7.058 -0.2703  0.2920 -0.1354
  348ccc     O3 9323   7.421   8.753   6.900 -0.3286 -0.6467 -0.1357
  348ccc     O4 9324   7.613   8.884   7.055  0.5033 -0.2223  0.2402
  348ccc     C6 9325   7.904   8.814   7.075 -0.4799 -0.3564 -0.1451
  348ccc     H6 9326   7.393   8.805   6.977  0.0298  0.2928 -0.6247
  348ccc     H7 9327   7.694   8.913   7.099  0.6388  0.2925 -0.3371
  348ccc     H8 9328   7.346   8.556   7.024 -1.5046 -1.7590 -0.5460
  348ccc     H9 9329   7.934   8.853   6.977  1.1340 -0.3211  0.3398
  348ccc    H10 9330   7.982   8.747   7.113 -1.1524 -1.9522 -1.4194
  348ccc     O5 9331   7.859   8.910   7.171  0.3232 -0.2116 -0.0334
  348ccc    H11 9332   7.857   8.854   7.251  2.5810  0.3638  0.4751
  348ccc     O6 9333   7.739   8.663   7.167  0.0005 -0.3451 -1.2321
  349ccc     C1 9334   8.602   6.980   8.461  0.4916  0.1006 -0.1589
  349ccc     C2 9335   8.616   6.844   8.529 -0.0504 -0.1778 -0.5806
  349ccc     H1 9336   8.635   7.062   8.527  0.5484 -1.1613  1.4425
  349ccc     H2 9337   8.718   6.814   8.553 -0.4303 -0.4891  0.7936
  349ccc     C3 9338   8.527   6.845   8.658 -0.1127 -0.2976  0.0595
  349ccc     C4 9339   8.380   6.881   8.620 -0.5301  0.1038  0.3847
  349ccc     C5 9340   8.372   7.022   8.547 -0.1210  0.8164  0.3017
  349ccc     H3 9341   8.336   6.809   8.550 -0.5581  0.4930 -0.0071
  349ccc     H4 9342   8.557   6.926   8.725  2.3583 -0.3890 -0.8096
  349ccc     H5 9343   8.407   7.108   8.605 -0.4062  1.3290 -0.2759
  349ccc     O1 9344   8.238   7.033   8.493  0.1817 -0.4546  0.5765
  349ccc     O2 9345   8.311   6.874   8.748  0.5453  0.2127 -0.3549
  349ccc     O3 9346   8.516   6.724   8.733  0.3464 -0.5386  0.1784
  349ccc     O4 9347   8.560   6.740   8.444 -0.6737  0.1148  0.1873
  349ccc     C6 9348   8.681   6.985   8.329  0.4213  0.2810 -0.6900
  349ccc     H6 9349   8.602   6.712   8.778  0.5040  0.3529  0.1158
  349ccc     H7 9350   8.542   6.666   8.505 -1.2714  1.1632  1.3217
  349ccc     H8 9351   8.367   6.804   8.786 -0.3329 -0.5530 -0.4135
  349ccc     H9 9352   8.645   6.916   8.252 -0.9549 -1.6587  1.5456
  349ccc    H10 9353   8.786   6.955   8.346  0.4056  0.7177  0.2934
  349ccc     O5 9354   8.682   7.123   8.293 -0.2908 -0.1644  0.4180
  349ccc    H11 9355   8.737   7.161   8.364 -1.0693 -0.1246  1.0052
  349ccc     O6 9356   8.461   7.000   8.431 -0.2081 -0.2690 -0.8358
  350ccc     C1 9357   7.721   7.394   9.269 -0.0422 -0.3977 -0.4838
  350ccc     C2 9358   7.810   7.347   9.389 -0.2813  0.6620  0.2538
  350ccc     H1 9359   7.648   7.314   9.250 -1.1487  0.9154 -2.1292
  350ccc     H2 9360   7.748   7.311   9.473 -0.7672 -1.2975 -0.8949
  350ccc     C3 9361   7.904   7.230   9.355 -0.1553  0.1621 -0.4803
  350ccc     C4 9362   7.983   7.263   9.223  0.5481 -0.0174  0.5427
  350ccc     C5 9363   7.889   7.309   9.102  0.8224  0.1112 -0.0309
  350ccc     H3 9364   8.048   7.349   9.244  0.6680 -0.2459  1.1483
  350ccc     H4 9365   7.840   7.142   9.337 -0.1594 -0.0988  0.7063
  350ccc     H5 9366   7.825   7.231   9.057  2.1013 -0.6381 -0.5999
  350ccc     O1 9367   7.967   7.364   8.999  0.4496 -0.5216 -0.3100
  350ccc     O2 9368   8.071   7.154   9.181 -0.4211 -0.0132  0.1930
  350ccc     O3 9369   7.996   7.202   9.458 -0.0774 -0.7693  0.4630
  350ccc     O4 9370   7.885   7.465   9.424  0.1957  0.3798 -0.1544
  350ccc     C6 9371   7.624   7.509   9.312 -0.1090  0.1894 -0.4538
  350ccc     H6 9372   8.030   7.115   9.433 -2.6241 -0.9606 -3.1630
  350ccc     H7 9373   7.943   7.437   9.497 -1.6415  0.5234  1.4365
  350ccc     H8 9374   8.159   7.166   9.220  0.6956 -1.1756 -1.7917
  350ccc     H9 9375   7.674   7.607   9.310 -0.4730  0.3656 -1.1305
  350ccc    H10 9376   7.600   7.501   9.419  0.5958  2.2429 -0.0999
  350ccc     O5 9377   7.515   7.502   9.228  0.3175  0.7029 -0.3412
  350ccc    H11 9378   7.554   7.495   9.139  0.6684 -2.4965 -0.0654
  350ccc     O6 9379   7.800   7.414   9.152 -0.0008 -0.3091 -0.0194
  351ccc     C1 9380   7.487   3.961   6.208  0.2911 -0.1764 -0.4835
  351ccc     C2 9381   7.406   3.845   6.263  0.0659 -0.1164 -0.1655
  351ccc     H1 9382   7.526   4.014   6.295 -1.9355  2.5646 -0.9817
  351ccc     H2 9383   7.457   3.771   6.326 -1.6380 -0.5590  0.7459
  351ccc     C3 9384   7.292   3.902   6.351 -0.3845  0.3959  0.2983
  351ccc     C4 9385   7.206   4.000   6.266  0.3725  1.0618 -0.0209
  351ccc     C5 9386   7.289   4.114   6.199  0.2426  0.4837  1.0164
  351ccc     H3 9387   7.149   3.943   6.192 -1.6093  2.2850  0.4696
  351ccc     H4 9388   7.330   3.967   6.431 -1.4899  1.4091  0.0324
  351ccc     H5 9389   7.330   4.174   6.281 -1.7914 -1.0960  3.2994
  351ccc     O1 9390   7.205   4.181   6.101  0.5929  0.8918 -0.3837
  351ccc     O2 9391   7.112   4.058   6.361  0.0907  0.0397 -0.0800
  351ccc     O3 9392   7.213   3.797   6.414  0.0165 -0.1792 -0.6201
  351ccc     O4 9393   7.348   3.768   6.158 -0.8610 -0.0689 -0.6983
  351ccc     C6 9394   7.603   3.911   6.115 -0.5000 -0.0602  0.8675
  351ccc     H6 9395   7.185   3.841   6.496 -1.6468 -1.0590 -0.6518
  351ccc     H7 9396   7.286   3.709   6.205 -0.3494 -0.4150 -0.4426
  351ccc     H8 9397   7.039   3.992   6.365  0.8285 -0.8374 -0.6345
  351ccc     H9 9398   7.558   3.892   6.017  0.1550  0.3710  0.4756
  351ccc    H10 9399   7.648   3.813   6.138 -0.2113 -0.4909 -1.3121
  351ccc     O5 9400   7.694   4.023   6.114 -0.2310  0.3249 -1.1711
  351ccc    H11 9401   7.751   4.008   6.036 -0.0259 -1.0765 -0.7828
  351ccc     O6 9402   7.401   4.054   6.130 -0.1566  0.2407  0.1798
  352ccc     C1 9403   7.528   4.085   5.619  0.5381  0.0793  0.0053
  352ccc     C2 9404   7.619   4.179   5.701  0.5445  0.5151  0.0973
  352ccc     H1 9405   7.581   4.075   5.523  0.5049  2.5189 -0.3178
  352ccc     H2 9406   7.721   4.141   5.688  0.4715  0.2979  0.1635
  352ccc     C3 9407   7.618   4.321   5.640  0.8780  0.3842 -0.6044
  352ccc     C4 9408   7.478   4.370   5.605  0.8663 -0.4996  0.5969
  352ccc     C5 9409   7.377   4.263   5.547  0.6104 -0.3710  0.0133
  352ccc     H3 9410   7.430   4.396   5.700  3.1035 -3.9734  2.9531
  352ccc     H4 9411   7.686   4.323   5.554  0.9292  1.6495 -0.5563
  352ccc     H5 9412   7.396   4.240   5.442 -1.2903 -1.6691 -0.0950
  352ccc     O1 9413   7.243   4.295   5.578 -0.2953  0.3900 -0.0830
  352ccc     O2 9414   7.508   4.488   5.522 -0.2190 -0.1767 -0.2301
  352ccc     O3 9415   7.674   4.413   5.732 -0.0330  0.3596  0.3843
  352ccc     O4 9416   7.576   4.184   5.841 -0.4016 -0.2035 -0.2668
  352ccc     C6 9417   7.512   3.946   5.697  0.6877 -0.4366  0.6878
  352ccc     H6 9418   7.709   4.481   5.672 -0.6753 -1.0717 -1.7083
  352ccc     H7 9419   7.655   4.210   5.890  0.5285  0.8328 -2.1812
  352ccc     H8 9420   7.437   4.549   5.549 -0.8818 -0.7139 -0.7352
  352ccc     H9 9421   7.607   3.906   5.737  0.3871 -1.5696  0.3174
  352ccc    H10 9422   7.475   3.866   5.632  0.7058  0.2614 -0.2017
  352ccc     O5 9423   7.419   3.969   5.811  0.0678  0.2270  0.1649
  352ccc    H11 9424   7.467   4.049   5.838  1.2061 -0.5709  0.5941
  352ccc     O6 9425   7.395   4.145   5.620  0.2043  0.4252  0.0374
  353ccc     C1 9426   5.649   5.223   5.294 -0.1075 -0.1492 -0.2811
  353ccc     C2 9427   5.566   5.225   5.422 -0.1552 -0.2307 -0.5593
  353ccc     H1 9428   5.578   5.221   5.210 -2.6372 -1.1680  1.7397
  353ccc     H2 9429   5.485   5.299   5.420 -0.6863 -0.8208 -1.9253
  353ccc     C3 9430   5.488   5.094   5.433  0.3966 -0.4249 -0.7791
  353ccc     C4 9431   5.589   4.972   5.433  0.3824 -0.0278 -0.3567
  353ccc     C5 9432   5.662   4.979   5.298  0.4158 -0.0370 -0.4644
  353ccc     H3 9433   5.667   4.985   5.509 -2.4893  0.5077  2.7268
  353ccc     H4 9434   5.419   5.082   5.348 -1.4730 -0.7348  0.7372
  353ccc     H5 9435   5.594   4.979   5.213  0.6637 -0.7016 -0.6707
  353ccc     O1 9436   5.757   4.874   5.290  0.1593 -0.1444  0.0002
  353ccc     O2 9437   5.510   4.853   5.451  0.4472 -0.3851  0.1517
  353ccc     O3 9438   5.400   5.086   5.552  0.1557  0.1172  0.3440
  353ccc     O4 9439   5.651   5.251   5.534  0.3960  0.1103  0.1802
  353ccc     C6 9440   5.744   5.349   5.283  0.1534  0.8480 -0.6083
  353ccc     H6 9441   5.326   5.147   5.537  1.2753  0.9394 -2.3441
  353ccc     H7 9442   5.594   5.294   5.600  0.3596  0.9705 -0.3861
  353ccc     H8 9443   5.433   4.892   5.495 -0.2598 -0.9697 -0.5549
  353ccc     H9 9444   5.823   5.349   5.359 -1.2790  2.8926  0.9998
  353ccc    H10 9445   5.673   5.432   5.298  0.8458  1.0140  2.4301
  353ccc     O5 9446   5.812   5.357   5.160 -0.2432  0.1997 -0.3567
  353ccc    H11 9447   5.906   5.344   5.183  0.2151 -0.4419 -2.3553
  353ccc     O6 9448   5.731   5.103   5.296  0.1628  0.1503  0.2763
  354ccc     C1 9449   5.725   4.066   5.642  0.4778  0.5053 -0.3861
  354ccc     C2 9450   5.723   4.156   5.770 -0.0155  0.2189  0.1482
  354ccc     H1 9451   5.813   4.001   5.643  0.6245  0.7037  0.4387
  354ccc     H2 9452   5.744   4.096   5.860 -0.4642  0.6409  0.5378
  354ccc     C3 9453   5.843   4.254   5.769 -0.4671 -0.0439 -0.1555
  354ccc     C4 9454   5.853   4.336   5.633 -0.1968 -0.5799 -0.5139
  354ccc     C5 9455   5.840   4.242   5.516  0.5496  0.1624  0.3108
  354ccc     H3 9456   5.770   4.407   5.640 -1.3514 -1.9759  0.5908
  354ccc     H4 9457   5.939   4.202   5.776 -0.5324 -0.0100  1.4033
  354ccc     H5 9458   5.930   4.183   5.498 -0.9372 -1.8543 -0.8948
  354ccc     O1 9459   5.834   4.322   5.397  0.1170  0.3520  0.1085
  354ccc     O2 9460   5.982   4.412   5.634 -0.7599 -0.2959 -0.0369
  354ccc     O3 9461   5.828   4.338   5.893 -0.5070 -0.3534 -0.6651
  354ccc     O4 9462   5.604   4.230   5.783  0.1942 -0.5281 -0.0460
  354ccc     C6 9463   5.607   3.969   5.654 -0.6928  0.0504 -0.4934
  354ccc     H6 9464   5.885   4.300   5.962 -1.3826 -0.7409 -0.1361
  354ccc     H7 9465   5.629   4.293   5.853  0.1741 -0.0667 -0.4465
  354ccc     H8 9466   5.955   4.506   5.625 -0.5950 -0.4151 -2.5863
  354ccc     H9 9467   5.520   4.035   5.657  1.1622  2.6842 -0.7182
  354ccc    H10 9468   5.598   3.913   5.748 -0.8695  0.5469 -0.2053
  354ccc     O5 9469   5.613   3.880   5.541  0.2515 -0.2776 -0.3067
  354ccc    H11 9470   5.565   3.928   5.471 -0.4989  1.1765  1.1427
  354ccc     O6 9471   5.720   4.151   5.525 -0.6258  0.1504 -0.6350
  355ccc     C1 9472   7.723   4.656   6.128  0.6242  0.4367 -0.0714
  355ccc     C2 9473   7.742   4.540   6.030 -0.2579 -0.0348 -0.9792
  355ccc     H1 9474   7.796   4.651   6.210  0.9246  0.8860 -0.3127
  355ccc     H2 9475   7.836   4.548   5.974 -1.0469  0.7221 -2.2450
  355ccc     C3 9476   7.748   4.406   6.103  0.1655  0.2170  0.0668
  355ccc     C4 9477   7.619   4.385   6.185  0.5814  0.0081 -0.1270
  355ccc     C5 9478   7.571   4.512   6.267  0.3249  0.6669 -0.1954
  355ccc     H3 9479   7.540   4.376   6.109 -0.0040 -0.8032  0.5506
  355ccc     H4 9480   7.822   4.404   6.184  0.2939 -0.6649 -0.0628
  355ccc     H5 9481   7.632   4.516   6.358  0.5554  0.5792 -0.3454
  355ccc     O1 9482   7.432   4.489   6.289 -0.6891 -0.1356 -0.5650
  355ccc     O2 9483   7.635   4.264   6.260  0.3473  0.0449  0.2761
  355ccc     O3 9484   7.758   4.298   6.002 -0.6009  0.3126  0.8822
  355ccc     O4 9485   7.633   4.554   5.948  0.9463 -0.2761  0.2148
  355ccc     C6 9486   7.729   4.797   6.064  0.3661  0.7726 -0.0509
  355ccc     H6 9487   7.838   4.306   5.946 -2.0441 -0.0643 -1.3428
  355ccc     H7 9488   7.646   4.487   5.878  1.4238 -0.8095  0.8049
  355ccc     H8 9489   7.646   4.186   6.204  1.1933 -1.4976  2.4650
  355ccc     H9 9490   7.635   4.825   6.016 -0.8263 -0.1927  1.5825
  355ccc    H10 9491   7.810   4.812   5.991  0.6921 -0.2914  0.0669
  355ccc     O5 9492   7.752   4.882   6.181 -0.5731 -0.1068  0.4529
  355ccc    H11 9493   7.790   4.963   6.141 -2.7451  0.9107  0.3150
  355ccc     O6 9494   7.591   4.638   6.193 -0.2195 -0.0422  0.4865
  356ccc     C1 9495   7.527   4.860   6.744  0.2104 -0.6883  0.2044
  356ccc     C2 9496   7.551   4.923   6.887  0.3346  0.4240 -0.4499
  356ccc     H1 9497   7.455   4.911   6.679  0.7652  0.0308  0.1409
  356ccc     H2 9498   7.587   5.027   6.878 -1.8732  1.2146 -0.7892
  356ccc     C3 9499   7.421   4.917   6.975 -0.2320 -0.3818  0.3738
  356ccc     C4 9500   7.351   4.789   6.972  0.3245  0.1722  0.4307
  356ccc     C5 9501   7.352   4.724   6.835 -0.2866  0.1693  0.0688
  356ccc     H3 9502   7.391   4.711   7.040  0.0021 -0.1367  0.2697
  356ccc     H4 9503   7.353   4.989   6.926 -1.1539  0.8891  3.3256
  356ccc     H5 9504   7.283   4.776   6.767 -1.4527 -0.3345  0.8154
  356ccc     O1 9505   7.304   4.590   6.855 -0.3097 -0.2807 -0.5997
  356ccc     O2 9506   7.218   4.810   7.008  0.1529  0.5741 -0.2295
  356ccc     O3 9507   7.446   4.970   7.107  0.6579 -0.2569  0.0807
  356ccc     O4 9508   7.659   4.859   6.954 -0.8068 -0.2025  0.1127
  356ccc     C6 9509   7.658   4.836   6.667  0.3521 -0.1672 -0.3854
  356ccc     H6 9510   7.474   5.063   7.099  1.6279 -0.4448  1.1442
  356ccc     H7 9511   7.685   4.922   7.025  2.5799 -1.5852  0.3022
  356ccc     H8 9512   7.207   4.751   7.085  1.1323  0.3438 -0.2554
  356ccc     H9 9513   7.720   4.770   6.729 -0.8289 -0.6921  0.2715
  356ccc    H10 9514   7.703   4.935   6.655 -0.3079  0.2483  0.4583
  356ccc     O5 9515   7.606   4.785   6.544 -0.4846  0.0353  0.1106
  356ccc    H11 9516   7.644   4.696   6.533  0.4964  0.4061  0.3123
  356ccc     O6 9517   7.484   4.720   6.769  0.1263 -0.4753  0.3086
  357ccc     C1 9518   7.320   5.467   7.300  0.6439 -0.4003  0.4916
  357ccc     C2 9519   7.440   5.411   7.222  0.2938  0.3667 -0.1701
  357ccc     H1 9520   7.273   5.393   7.365 -3.4446 -0.0027 -1.6983
  357ccc     H2 9521   7.526   5.393   7.288  1.7064  2.0948 -1.4484
  357ccc     C3 9522   7.400   5.280   7.147  0.9837 -0.0334 -0.0599
  357ccc     C4 9523   7.285   5.319   7.046 -0.2015  0.3558 -0.0063
  357ccc     C5 9524   7.163   5.386   7.123  0.7566 -0.4885  0.6567
  357ccc     H3 9525   7.324   5.391   6.972 -1.0642 -0.4710 -1.3144
  357ccc     H4 9526   7.353   5.211   7.218  1.5560 -0.2901  0.0758
  357ccc     H5 9527   7.107   5.311   7.180  0.1837 -0.5528  0.0200
  357ccc     O1 9528   7.080   5.445   7.015 -0.0577  0.4182  0.3646
  357ccc     O2 9529   7.247   5.199   6.977 -0.0038 -0.5559 -0.5255
  357ccc     O3 9530   7.512   5.210   7.089  0.2661 -0.2251 -0.3079
  357ccc     O4 9531   7.472   5.501   7.125  0.2085 -0.0646 -0.0498
  357ccc     C6 9532   7.348   5.592   7.380 -1.2103 -0.2893 -0.2038
  357ccc     H6 9533   7.582   5.278   7.090 -1.2282  1.4581 -2.3137
  357ccc     H7 9534   7.429   5.578   7.166 -1.0565 -0.1833 -1.1070
  357ccc     H8 9535   7.327   5.196   6.922  0.1666  2.4619 -0.5773
  357ccc     H9 9536   7.418   5.561   7.459  0.3419 -0.2993 -1.5210
  357ccc    H10 9537   7.256   5.637   7.418  0.6304  1.0450  3.1392
  357ccc     O5 9538   7.413   5.684   7.294 -0.2916 -0.0108 -0.4232
  357ccc    H11 9539   7.472   5.737   7.349 -0.3024  0.0107 -0.4324
  357ccc     O6 9540   7.214   5.497   7.206  0.1998 -0.0083  0.6187
  358ccc     C1 9541   6.981   6.005   6.689 -0.1000 -0.5224 -0.8598
  358ccc     C2 9542   7.009   6.039   6.838  0.1235  0.6295  0.7925
  358ccc     H1 9543   6.945   6.099   6.646  0.3939  0.5362  0.8850
  358ccc     H2 9544   7.085   6.117   6.851  0.4342  0.1842  1.7756
  358ccc     C3 9545   6.882   6.090   6.904  0.5112 -0.0401 -0.0643
  358ccc     C4 9546   6.767   5.984   6.892  0.2595  0.1656 -0.5884
  358ccc     C5 9547   6.755   5.934   6.741 -0.2581 -0.6055 -0.3413
  358ccc     H3 9548   6.797   5.898   6.953  3.0566  1.1661 -0.4094
  358ccc     H4 9549   6.846   6.185   6.864  0.6058 -0.6421 -1.6617
  358ccc     H5 9550   6.704   6.008   6.678 -1.3827 -2.5204 -1.8345
  358ccc     O1 9551   6.676   5.813   6.738 -0.4928  0.2781  0.7363
  358ccc     O2 9552   6.646   6.039   6.946  0.0692 -0.0437  0.4603
  358ccc     O3 9553   6.925   6.105   7.044 -0.1214  0.6777 -0.3405
  358ccc     O4 9554   7.046   5.915   6.894  0.0670 -0.2157 -0.3200
  358ccc     C6 9555   7.112   5.971   6.608  0.6367 -0.3545 -0.2546
  358ccc     H6 9556   6.875   6.179   7.083 -0.7942 -0.6731  1.5012
  358ccc     H7 9557   7.090   5.870   6.820  1.6048  0.2114  0.2947
  358ccc     H8 9558   6.587   5.962   6.943 -0.2094  0.1654 -3.0062
  358ccc     H9 9559   7.178   6.059   6.602  0.6259 -0.3210  0.0922
  358ccc    H10 9560   7.082   5.953   6.504 -0.8698  0.2660  0.0554
  358ccc     O5 9561   7.176   5.863   6.682 -0.4527 -0.5014 -0.2538
  358ccc    H11 9562   7.261   5.843   6.638 -1.7238 -3.0159 -1.7448
  358ccc     O6 9563   6.888   5.901   6.682  0.0782 -0.1474 -0.0832
  359ccc     C1 9564   5.879   3.277   7.085  0.1269  0.1954  0.3634
  359ccc     C2 9565   5.873   3.136   7.149 -0.3189  0.0648 -0.0847
  359ccc     H1 9566   5.922   3.343   7.161  1.5356 -0.2299 -0.0495
  359ccc     H2 9567   5.972   3.116   7.193 -0.7466 -0.1393  0.8028
  359ccc     C3 9568   5.773   3.131   7.271 -0.2317 -0.4695 -0.3983
  359ccc     C4 9569   5.629   3.172   7.228  0.6411 -0.5373 -0.2826
  359ccc     C5 9570   5.642   3.314   7.158 -0.2728 -0.2793 -0.3744
  359ccc     H3 9571   5.596   3.101   7.150  0.0408 -0.1856 -0.3570
  359ccc     H4 9572   5.798   3.205   7.349  0.5393  1.7475 -2.5927
  359ccc     H5 9573   5.672   3.391   7.229  0.4329 -1.7105  0.9360
  359ccc     O1 9574   5.514   3.360   7.108 -0.7719 -0.4169  0.0386
  359ccc     O2 9575   5.537   3.172   7.344 -0.3142  0.7525 -0.1261
  359ccc     O3 9576   5.780   3.002   7.336  0.1057 -0.1862  0.6334
  359ccc     O4 9577   5.837   3.040   7.043 -0.7009 -0.3197 -0.1314
  359ccc     C6 9578   5.967   3.289   6.958 -0.1197  0.0617  0.0312
  359ccc     H6 9579   5.734   3.006   7.421 -1.9294 -0.1221 -0.4032
  359ccc     H7 9580   5.821   2.951   7.079 -0.9370 -0.9629 -1.7246
  359ccc     H8 9581   5.492   3.086   7.355  0.6765  0.1664 -0.5331
  359ccc     H9 9582   5.926   3.253   6.862 -0.0310  2.1678 -0.8709
  359ccc    H10 9583   6.056   3.228   6.979 -1.3344 -1.8598 -0.1751
  359ccc     O5 9584   5.997   3.422   6.946  0.0965 -0.0756  0.0225
  359ccc    H11 9585   5.919   3.457   6.899  0.0578  0.3761  0.4181
  359ccc     O6 9586   5.739   3.313   7.046  0.1430 -0.4688  0.1068
  360ccc     C1 9587   4.754   3.620   7.394  0.8247  0.1571 -0.7008
  360ccc     C2 9588   4.811   3.764   7.413 -0.1534  0.6429 -0.0600
  360ccc     H1 9589   4.763   3.570   7.491 -2.7447  2.3627  0.9771
  360ccc     H2 9590   4.752   3.810   7.494 -3.8813  0.2144 -2.3449
  360ccc     C3 9591   4.955   3.763   7.455  0.7079  0.6343  0.0556
  360ccc     C4 9592   5.037   3.672   7.360  0.0137 -0.0016 -0.5171
  360ccc     C5 9593   4.963   3.539   7.320 -0.1309  0.4290 -0.3045
  360ccc     H3 9594   5.052   3.723   7.264  0.7150  1.7574  0.4743
  360ccc     H4 9595   4.962   3.719   7.555 -0.4235 -0.4806 -0.3361
  360ccc     H5 9596   4.972   3.466   7.401  1.3240 -0.3447 -1.1234
  360ccc     O1 9597   5.039   3.484   7.213 -0.0326  0.3108  0.2015
  360ccc     O2 9598   5.164   3.657   7.428  0.0014  0.4051  0.4378
  360ccc     O3 9599   5.011   3.900   7.469  0.3917 -0.3797 -0.1186
  360ccc     O4 9600   4.786   3.843   7.295  0.2354  0.0374  0.3791
  360ccc     C6 9601   4.604   3.624   7.363  0.5954  0.4515  0.2590
  360ccc     H6 9602   4.996   3.939   7.557  1.7437  3.2090 -1.3042
  360ccc     H7 9603   4.792   3.937   7.322  0.5837 -0.3850  1.8281
  360ccc     H8 9604   5.193   3.747   7.451  1.0237  0.0874  0.4431
  360ccc     H9 9605   4.579   3.626   7.257 -2.3934 -0.0290  0.8740
  360ccc    H10 9606   4.567   3.707   7.424  0.5645 -0.7911  2.0398
  360ccc     O5 9607   4.547   3.499   7.402  0.4633  0.1501 -0.2692
  360ccc    H11 9608   4.471   3.479   7.344 -1.7089  1.4616  1.9282
  360ccc     O6 9609   4.825   3.559   7.288 -0.2921 -0.4996  0.3680
  361ccc     C1 9610   4.522   4.011   6.820 -0.1759  0.1078 -0.1497
  361ccc     C2 9611   4.438   4.023   6.686  0.1457 -0.3017  0.4332
  361ccc     H1 9612   4.466   3.955   6.895  1.1683  0.1596  0.9410
  361ccc     H2 9613   4.379   3.935   6.659 -1.6524  1.0163 -0.1059
  361ccc     C3 9614   4.319   4.132   6.706  0.1742 -0.3673 -1.0140
  361ccc     C4 9615   4.369   4.265   6.771 -0.0088 -1.4972  0.3290
  361ccc     C5 9616   4.454   4.233   6.902  0.6433  0.8103 -0.3052
  361ccc     H3 9617   4.436   4.322   6.705 -1.2287  1.7539  1.6662
  361ccc     H4 9618   4.240   4.087   6.768 -1.2488 -0.0965 -2.5811
  361ccc     H5 9619   4.378   4.198   6.973  1.1685  2.4813  1.1534
  361ccc     O1 9620   4.514   4.353   6.954  0.0536 -0.2109  0.5141
  361ccc     O2 9621   4.255   4.351   6.790 -0.3091 -0.3644  0.2152
  361ccc     O3 9622   4.249   4.155   6.580 -0.3113 -0.4265 -0.2456
  361ccc     O4 9623   4.531   4.063   6.587  0.3453  0.0224 -0.0379
  361ccc     C6 9624   4.651   3.929   6.787 -0.8139  0.7986 -0.3600
  361ccc     H6 9625   4.194   4.075   6.572 -1.4301  0.1169  1.5943
  361ccc     H7 9626   4.527   3.989   6.524  1.5250 -2.0752  2.1605
  361ccc     H8 9627   4.276   4.426   6.731 -1.2253 -0.7811 -0.6934
  361ccc     H9 9628   4.732   3.991   6.746  0.5396  0.6896  1.9409
  361ccc    H10 9629   4.632   3.846   6.718 -0.7444 -1.5509  2.2629
  361ccc     O5 9630   4.712   3.870   6.906 -0.1156 -0.0635  0.5640
  361ccc    H11 9631   4.648   3.813   6.952  1.0068 -0.5574  1.5896
  361ccc     O6 9632   4.557   4.138   6.880  0.4062  0.4858  0.5888
  362ccc     C1 9633   5.003   4.970   7.555  0.1281 -0.3155 -0.4428
  362ccc     C2 9634   5.113   4.910   7.647 -0.8809 -0.7144 -0.1072
  362ccc     H1 9635   4.901   4.956   7.595 -1.0483  1.7623 -2.4722
  362ccc     H2 9636   5.105   4.950   7.749 -0.2295 -1.7894  0.3771
  362ccc     C3 9637   5.102   4.758   7.655 -0.3814  0.1127 -0.0966
  362ccc     C4 9638   5.093   4.690   7.518  0.2690  0.8214  0.7092
  362ccc     C5 9639   4.984   4.762   7.434 -0.0623  1.1665  0.4356
  362ccc     H3 9640   5.187   4.692   7.462 -0.0997 -1.5764 -0.1143
  362ccc     H4 9641   5.012   4.732   7.712 -0.0871 -0.1741  0.2380
  362ccc     H5 9642   4.885   4.740   7.477  0.1413  0.4665  0.5448
  362ccc     O1 9643   4.992   4.710   7.294 -0.0656 -0.1280  0.5532
  362ccc     O2 9644   5.065   4.550   7.536 -0.1086 -0.7428  0.3461
  362ccc     O3 9645   5.213   4.717   7.746 -0.0709 -0.1821  0.0905
  362ccc     O4 9646   5.249   4.952   7.601  0.2886 -0.0277  0.1208
  362ccc     C6 9647   5.017   5.119   7.528  0.3985  0.9590  0.5719
  362ccc     H6 9648   5.175   4.713   7.835  0.1130  2.1320  0.3361
  362ccc     H7 9649   5.311   4.903   7.658  0.5134  0.4215  0.2683
  362ccc     H8 9650   5.144   4.508   7.498 -0.1129 -0.0722 -0.4303
  362ccc     H9 9651   5.088   5.138   7.447 -2.0001  1.9839 -1.4533
  362ccc    H10 9652   5.031   5.167   7.625  1.5139  3.0112 -0.5511
  362ccc     O5 9653   4.890   5.153   7.472 -0.3269 -0.8155 -0.7873
  362ccc    H11 9654   4.835   5.150   7.553 -0.6611  0.6367 -0.9436
  362ccc     O6 9655   5.010   4.901   7.427  0.6020 -0.0002 -0.3547
  363ccc     C1 9656   6.214   3.718   6.627  0.4375  0.6259 -0.2692
  363ccc     C2 9657   6.125   3.644   6.530 -0.2420  0.3569 -0.1112
  363ccc     H1 9658   6.260   3.636   6.683 -0.8945 -1.0631 -1.5427
  363ccc     H2 9659   6.184   3.572   6.472 -0.1724  0.0218  0.3624
  363ccc     C3 9660   6.030   3.564   6.608  0.2219 -0.5482  0.2837
  363ccc     C4 9661   5.936   3.655   6.694 -0.4402  0.1419 -0.8519
  363ccc     C5 9662   6.021   3.751   6.788  0.3944  0.0618  0.1066
  363ccc     H3 9663   5.887   3.725   6.626  2.4525  0.6969 -2.5529
  363ccc     H4 9664   6.091   3.505   6.678  0.1454 -1.9618 -0.8117
  363ccc     H5 9665   6.061   3.684   6.865 -1.2882  0.9088  1.7994
  363ccc     O1 9666   5.935   3.849   6.834 -0.0390 -1.0531 -0.1669
  363ccc     O2 9667   5.848   3.567   6.777  0.0290 -0.1425  0.4870
  363ccc     O3 9668   5.959   3.475   6.519 -0.1249  0.2291 -0.0919
  363ccc     O4 9669   6.063   3.747   6.459  0.9295  0.0476  0.5262
  363ccc     C6 9670   6.324   3.796   6.561 -0.0425 -0.6753 -0.4124
  363ccc     H6 9671   5.925   3.400   6.571  0.8161 -0.6485 -0.7155
  363ccc     H7 9672   6.001   3.698   6.401 -0.1591  0.6129  1.1762
  363ccc     H8 9673   5.770   3.620   6.801 -2.0161 -2.3484 -0.8515
  363ccc     H9 9674   6.302   3.897   6.524  1.8702 -0.2203 -0.4212
  363ccc    H10 9675   6.363   3.739   6.476  1.3224  0.0678 -0.3229
  363ccc     O5 9676   6.425   3.808   6.661 -0.2516 -0.3594  0.3707
  363ccc    H11 9677   6.377   3.861   6.727 -1.3480  0.3590 -0.9474
  363ccc     O6 9678   6.135   3.807   6.719 -0.1736 -0.2740  0.1316
  364ccc     C1 9679   6.326   3.595   7.022  0.2298 -0.1868  0.0167
  364ccc     C2 9680   6.425   3.626   7.133  0.0693 -0.5523 -0.3119
  364ccc     H1 9681   6.366   3.635   6.928  2.4296 -2.2837 -0.0370
  364ccc     H2 9682   6.525   3.601   7.095  0.0336  2.0968 -2.4337
  364ccc     C3 9683   6.427   3.774   7.171  0.2971  0.2107 -0.0867
  364ccc     C4 9684   6.278   3.820   7.201 -0.5766 -0.6764 -0.0418
  364ccc     C5 9685   6.186   3.786   7.082 -0.2365 -0.4160  0.0505
  364ccc     H3 9686   6.249   3.773   7.295  1.8750 -0.8895  0.6866
  364ccc     H4 9687   6.452   3.829   7.079 -1.2838  2.3634  0.6864
  364ccc     H5 9688   6.207   3.846   6.993  2.3948 -0.0873  0.8161
  364ccc     O1 9689   6.056   3.808   7.114  0.7030  0.0754  1.1346
  364ccc     O2 9690   6.273   3.967   7.207  0.2497 -0.2199 -0.7574
  364ccc     O3 9691   6.532   3.792   7.279  0.6133 -0.3467 -0.6454
  364ccc     O4 9692   6.382   3.549   7.245  0.0803  0.0244 -0.7097
  364ccc     C6 9693   6.325   3.451   6.985 -0.2052 -0.0805  0.1959
  364ccc     H6 9694   6.502   3.751   7.362 -1.1757  1.8756 -0.0999
  364ccc     H7 9695   6.461   3.529   7.299 -0.2711  0.2937 -0.0794
  364ccc     H8 9696   6.288   3.979   7.302 -2.6581  1.7065 -0.4325
  364ccc     H9 9697   6.305   3.386   7.071 -2.0047  0.5582  0.2937
  364ccc    H10 9698   6.428   3.423   6.958 -0.5026 -2.5338  1.3147
  364ccc     O5 9699   6.235   3.428   6.872 -0.3985  0.1335 -0.0419
  364ccc    H11 9700   6.148   3.438   6.915 -0.0772  1.0343  0.4347
  364ccc     O6 9701   6.197   3.644   7.056 -0.2653 -0.4244  0.1516
  365ccc     C1 9702   5.849   3.073   7.853  0.3477 -0.9361 -0.7240
  365ccc     C2 9703   5.809   3.009   7.724 -0.1690  0.4211 -0.2370
  365ccc     H1 9704   5.774   3.045   7.928  1.0243 -0.0733  0.3075
  365ccc     H2 9705   5.782   2.904   7.739 -2.2442  1.0769  1.0174
  365ccc     C3 9706   5.682   3.069   7.671  0.5789  0.0601  0.2595
  365ccc     C4 9707   5.699   3.223   7.662  0.0581 -0.1886  1.1858
  365ccc     C5 9708   5.745   3.286   7.790 -0.0738  0.0586  0.1739
  365ccc     H3 9709   5.776   3.235   7.585 -1.2997 -0.0427 -0.1939
  365ccc     H4 9710   5.600   3.055   7.743  1.3894 -1.0216  1.0015
  365ccc     H5 9711   5.654   3.280   7.851 -0.0486 -1.7887  0.0941
  365ccc     O1 9712   5.782   3.427   7.762  0.1252  0.3960 -0.3957
  365ccc     O2 9713   5.578   3.282   7.610  0.6908 -0.1936  0.4084
  365ccc     O3 9714   5.630   3.002   7.553 -0.3231 -0.1954 -0.3721
  365ccc     O4 9715   5.916   3.032   7.629  0.3211  0.2968 -0.3731
  365ccc     C6 9716   5.979   3.022   7.909  0.2081 -0.2639 -0.4721
  365ccc     H6 9717   5.545   2.962   7.579 -0.0926  0.0435  0.8208
  365ccc     H7 9718   5.926   2.954   7.573  0.1867 -0.6183  0.8432
  365ccc     H8 9719   5.557   3.220   7.538  1.7713 -0.9716  0.7337
  365ccc     H9 9720   6.065   3.057   7.851  1.4197 -1.3620  0.6303
  365ccc    H10 9721   5.981   2.913   7.910  0.2473 -0.2694  0.9334
  365ccc     O5 9722   5.978   3.067   8.043 -0.1660 -0.1636 -0.7171
  365ccc    H11 9723   5.969   2.984   8.094  0.3370  0.5604  0.6169
  365ccc     O6 9724   5.859   3.216   7.842  0.3215  0.5105 -0.6010
  366ccc     C1 9725   6.627   4.228   8.030  0.4491 -0.4131 -1.2149
  366ccc     C2 9726   6.730   4.170   8.131 -0.2466 -0.5673  0.0524
  366ccc     H1 9727   6.570   4.308   8.078 -0.5795 -1.9483  0.2267
  366ccc     H2 9728   6.794   4.253   8.164 -1.1148  0.8849 -1.7333
  366ccc     C3 9729   6.662   4.088   8.244  0.4317 -0.0129  0.3585
  366ccc     C4 9730   6.558   3.979   8.187  0.0493  0.0273  0.4063
  366ccc     C5 9731   6.466   4.054   8.089  0.1094  0.3640 -0.3065
  366ccc     H3 9732   6.616   3.909   8.127 -0.8200 -0.6411  0.3193
  366ccc     H4 9733   6.599   4.159   8.300 -1.0857 -2.3057  1.7041
  366ccc     H5 9734   6.406   4.125   8.147  1.1658  0.0226  1.2604
  366ccc     O1 9735   6.387   3.959   8.018  0.4199  0.4783  0.0487
  366ccc     O2 9736   6.494   3.904   8.295 -0.0662  0.5229  0.5487
  366ccc     O3 9737   6.759   4.031   8.332  0.3704 -0.0789 -0.4256
  366ccc     O4 9738   6.811   4.080   8.047 -0.2695 -0.0186 -0.0384
  366ccc     C6 9739   6.682   4.306   7.904 -0.1472 -0.0986 -0.4605
  366ccc     H6 9740   6.706   3.982   8.398 -1.2299  2.9671  0.7342
  366ccc     H7 9741   6.791   4.138   7.972 -1.8024  1.1370  1.1928
  366ccc     H8 9742   6.544   3.822   8.310 -0.0111  0.4113 -0.1890
  366ccc     H9 9743   6.717   4.405   7.936 -1.9068  0.4216 -0.0691
  366ccc    H10 9744   6.592   4.324   7.844 -3.3826 -1.9501  3.3287
  366ccc     O5 9745   6.787   4.230   7.839  0.6247  0.0028  0.3210
  366ccc    H11 9746   6.797   4.288   7.762 -3.1061  0.9912  0.3854
  366ccc     O6 9747   6.543   4.121   7.994  0.4498 -0.1865 -0.6676
  367ccc     C1 9748   3.503   3.674   6.741  0.6157 -0.1990  0.1717
  367ccc     C2 9749   3.629   3.610   6.684 -0.7535  0.2320  0.4655
  367ccc     H1 9750   3.436   3.700   6.657 -0.5831  0.7555  1.3862
  367ccc     H2 9751   3.601   3.514   6.638 -2.0415 -0.1775  2.0014
  367ccc     C3 9752   3.717   3.706   6.598  0.0497 -0.0132 -1.0584
  367ccc     C4 9753   3.732   3.841   6.660  0.6234  0.6073 -0.3362
  367ccc     C5 9754   3.598   3.900   6.709  0.0961 -0.0201  0.1260
  367ccc     H3 9755   3.771   3.821   6.761 -1.1534 -0.0521  0.2472
  367ccc     H4 9756   3.666   3.731   6.504 -1.0516 -2.2148 -1.1058
  367ccc     H5 9757   3.532   3.929   6.626 -0.5166 -1.0359  0.2347
  367ccc     O1 9758   3.637   4.013   6.789 -0.4901 -0.7890 -0.1336
  367ccc     O2 9759   3.798   3.932   6.578 -0.1784  0.0087  0.3236
  367ccc     O3 9760   3.846   3.646   6.572  0.1905  0.0447  0.2500
  367ccc     O4 9761   3.718   3.568   6.784 -0.0528  0.2809 -0.2249
  367ccc     C6 9762   3.434   3.587   6.850  0.8020 -0.5785  0.4070
  367ccc     H6 9763   3.846   3.596   6.489 -0.0240 -1.2059  0.9760
  367ccc     H7 9764   3.778   3.511   6.733 -0.8632  0.3363 -1.2821
  367ccc     H8 9765   3.851   3.983   6.641  1.6566 -1.1457 -0.2162
  367ccc     H9 9766   3.485   3.569   6.946  2.2095 -0.8078 -0.3602
  367ccc    H10 9767   3.406   3.494   6.799 -0.3792  0.8733 -1.7587
  367ccc     O5 9768   3.308   3.644   6.866  0.4791 -0.0876  0.1318
  367ccc    H11 9769   3.314   3.706   6.941 -0.0417 -0.8562  0.8306
  367ccc     O6 9770   3.533   3.809   6.796 -0.3831 -0.1322 -0.1468
  368ccc     C1 9771   3.197   4.259   6.055 -0.1283  0.4752 -0.4417
  368ccc     C2 9772   3.235   4.306   5.908  0.7188  0.8193 -0.0925
  368ccc     H1 9773   3.146   4.341   6.107  0.3678  0.6788 -0.2706
  368ccc     H2 9774   3.144   4.355   5.869  0.9754  0.9316 -0.5525
  368ccc     C3 9775   3.338   4.415   5.905 -0.1019 -0.6663  0.1262
  368ccc     C4 9776   3.458   4.391   6.003 -0.0514  0.1614  0.3826
  368ccc     C5 9777   3.417   4.342   6.146 -0.3492  0.6960  0.1103
  368ccc     H3 9778   3.526   4.319   5.955  0.4367  0.4047  0.7000
  368ccc     H4 9779   3.288   4.509   5.932 -0.0855 -0.1791 -1.4061
  368ccc     H5 9780   3.367   4.417   6.208  0.6434 -0.1736  2.0530
  368ccc     O1 9781   3.534   4.278   6.208 -0.1678 -0.3831 -0.5301
  368ccc     O2 9782   3.541   4.509   6.008  0.4492  0.2178  0.2247
  368ccc     O3 9783   3.379   4.441   5.773  0.5532 -0.6711 -0.2288
  368ccc     O4 9784   3.276   4.187   5.839 -0.4275 -0.0553 -0.3407
  368ccc     C6 9785   3.106   4.133   6.057 -0.2934  0.4380  0.9160
  368ccc     H6 9786   3.474   4.426   5.764  1.0032  2.1685 -1.0096
  368ccc     H7 9787   3.257   4.216   5.748 -0.9722 -0.0271 -0.2166
  368ccc     H8 9788   3.561   4.502   6.103 -1.2273 -1.0938  0.5246
  368ccc     H9 9789   3.174   4.048   6.052  0.4534  1.1038 -1.6560
  368ccc    H10 9790   3.052   4.136   5.961  2.2596  1.5624 -0.5798
  368ccc     O5 9791   3.034   4.139   6.174  0.1644  0.0737 -0.4637
  368ccc    H11 9792   2.963   4.074   6.162  0.7115 -0.0873 -3.8347
  368ccc     O6 9793   3.317   4.232   6.129 -0.4427 -0.5843  0.2475
  369ccc     C1 9794   4.008   3.776   6.160 -0.0746  0.0171 -0.3117
  369ccc     C2 9795   3.992   3.819   6.309 -0.3849 -0.0755  0.3304
  369ccc     H1 9796   4.093   3.706   6.160 -0.2841 -0.3107  2.0171
  369ccc     H2 9797   3.986   3.727   6.369 -0.6431  0.0062  0.4324
  369ccc     C3 9798   4.118   3.897   6.350 -0.7527 -0.2129  0.4089
  369ccc     C4 9799   4.129   4.021   6.263  0.1404  0.3855  0.0072
  369ccc     C5 9800   4.141   3.980   6.117  0.0553  0.4669 -0.0262
  369ccc     H3 9801   4.035   4.078   6.269 -0.3492 -0.0239 -2.4771
  369ccc     H4 9802   4.210   3.838   6.341  0.9270  2.3013  0.1508
  369ccc     H5 9803   4.240   3.939   6.093 -0.2300 -0.3009  0.0504
  369ccc     O1 9804   4.132   4.100   6.031 -0.3241  0.4292 -0.0215
  369ccc     O2 9805   4.251   4.094   6.303 -0.4848  0.0620  0.2150
  369ccc     O3 9806   4.117   3.925   6.494  0.2102 -0.0386 -0.8647
  369ccc     O4 9807   3.876   3.900   6.328 -0.4735  0.1647 -0.3005
  369ccc     C6 9808   3.888   3.704   6.111  0.1061  0.2940 -0.1679
  369ccc     H6 9809   4.113   3.833   6.525  2.2313 -0.8137 -2.6455
  369ccc     H7 9810   3.871   3.909   6.424  0.3569 -1.1451 -0.0981
  369ccc     H8 9811   4.243   4.092   6.400 -0.3807 -0.5241  0.2146
  369ccc     H9 9812   3.805   3.771   6.084 -2.5837 -2.6168  0.3306
  369ccc    H10 9813   3.845   3.646   6.193 -2.6333  2.7550  0.3072
  369ccc     O5 9814   3.922   3.618   5.995  0.4793  0.0343  0.1420
  369ccc    H11 9815   3.982   3.544   6.017  2.0364  0.8042 -1.2706
  369ccc     O6 9816   4.035   3.888   6.071  0.2606 -0.6132 -0.3386
  370ccc     C1 9817   3.766   4.751   5.668  0.2535 -0.6460  0.2825
  370ccc     C2 9818   3.680   4.632   5.725  0.7449 -0.4242  0.2783
  370ccc     H1 9819   3.727   4.780   5.570 -0.3399 -0.7824  0.4727
  370ccc     H2 9820   3.575   4.658   5.747  0.6261 -0.5960 -0.0705
  370ccc     C3 9821   3.682   4.512   5.626 -0.3559 -0.1510 -0.4663
  370ccc     C4 9822   3.829   4.468   5.595 -0.2306 -0.2395 -0.2793
  370ccc     C5 9823   3.917   4.591   5.563  0.0670  0.1871 -0.5175
  370ccc     H3 9824   3.861   4.422   5.689 -0.4713  0.0026 -0.0784
  370ccc     H4 9825   3.626   4.544   5.537  0.9846  1.0566 -0.9029
  370ccc     H5 9826   3.889   4.619   5.461  2.8232 -1.9897 -2.0486
  370ccc     O1 9827   4.056   4.546   5.559  0.3279 -0.3939  0.2265
  370ccc     O2 9828   3.830   4.371   5.489  0.0946  0.2666 -0.5388
  370ccc     O3 9829   3.620   4.400   5.694 -0.2155  0.5865 -0.4470
  370ccc     O4 9830   3.744   4.600   5.845  0.5183  0.6092 -0.1616
  370ccc     C6 9831   3.770   4.890   5.751  0.1040  0.7142  0.9132
  370ccc     H6 9832   3.686   4.363   5.755 -0.6382  2.9172  1.6031
  370ccc     H7 9833   3.673   4.577   5.908 -0.9650  2.1327 -1.1657
  370ccc     H8 9834   3.757   4.308   5.503 -0.8973  1.0482 -2.0053
  370ccc     H9 9835   3.824   4.873   5.845 -2.3620 -1.3476  2.0763
  370ccc    H10 9836   3.668   4.921   5.776 -0.1126  2.5754 -1.8163
  370ccc     O5 9837   3.820   5.000   5.680  0.2421  0.2031 -0.8808
  370ccc    H11 9838   3.901   4.971   5.634  0.8546 -0.8134  0.7674
  370ccc     O6 9839   3.905   4.706   5.653  0.2997 -0.6620  0.3346
  371ccc     C1 9840   2.511   4.470   6.327  0.3566  1.1623  0.1246
  371ccc     C2 9841   2.428   4.594   6.363  0.8769 -0.0808 -0.2562
  371ccc     H1 9842   2.442   4.388   6.353 -1.5325  2.1602 -1.5141
  371ccc     H2 9843   2.328   4.578   6.321 -0.1413 -1.7523  2.5355
  371ccc     C3 9844   2.411   4.607   6.522 -0.5927 -0.4880  0.0338
  371ccc     C4 9845   2.549   4.587   6.598  0.0437  0.5799  0.0983
  371ccc     C5 9846   2.626   4.462   6.544 -0.0528 -0.0467 -0.0170
  371ccc     H3 9847   2.611   4.673   6.568 -1.2697  0.7132 -2.5836
  371ccc     H4 9848   2.343   4.529   6.559 -1.4852  0.9635  1.5350
  371ccc     H5 9849   2.571   4.373   6.579  0.5141 -0.5468 -0.3797
  371ccc     O1 9850   2.749   4.458   6.613  0.1198 -0.4771  0.2230
  371ccc     O2 9851   2.528   4.580   6.744 -0.3620  0.6091 -0.1394
  371ccc     O3 9852   2.354   4.734   6.547 -0.2953 -0.2611 -0.5691
  371ccc     O4 9853   2.505   4.712   6.322 -0.1383 -0.1989  0.0442
  371ccc     C6 9854   2.534   4.474   6.172  0.3233  0.1153 -0.1755
  371ccc     H6 9855   2.325   4.733   6.640 -0.0395 -1.2287 -0.4906
  371ccc     H7 9856   2.446   4.786   6.344 -0.0410 -0.5998  1.7302
  371ccc     H8 9857   2.470   4.506   6.769  0.2582  0.1504 -0.0178
  371ccc     H9 9858   2.595   4.562   6.147  1.8039 -0.9548 -0.5102
  371ccc    H10 9859   2.438   4.486   6.121  1.1604 -0.3645 -1.9385
  371ccc     O5 9860   2.601   4.358   6.124  0.2617  0.1587  0.3235
  371ccc    H11 9861   2.690   4.363   6.162  0.5653 -0.7895 -0.2203
  371ccc     O6 9862   2.634   4.466   6.395 -0.2013  0.6945 -0.1711
  372ccc     C1 9863   2.464   4.251   6.958 -0.1165  0.1443  0.5927
  372ccc     C2 9864   2.334   4.325   6.924 -0.4921 -0.4340 -0.5274
  372ccc     H1 9865   2.444   4.207   7.057  0.6550 -2.4399 -0.3340
  372ccc     H2 9866   2.250   4.255   6.929  0.1590 -1.2545 -0.8868
  372ccc     C3 9867   2.315   4.448   7.026  0.0168  0.7093 -0.3896
  372ccc     C4 9868   2.443   4.524   7.059 -0.7093 -0.3889 -0.9431
  372ccc     C5 9869   2.566   4.431   7.086  0.0277  0.0284  0.1039
  372ccc     H3 9870   2.464   4.587   6.972 -0.1750  0.3864 -0.2627
  372ccc     H4 9871   2.277   4.397   7.115  0.1102  0.2597 -0.6068
  372ccc     H5 9872   2.561   4.386   7.185 -3.1322  1.8708  0.9220
  372ccc     O1 9873   2.690   4.515   7.087 -0.0679  0.2036  0.2576
  372ccc     O2 9874   2.416   4.610   7.173 -0.0020 -0.5250  0.7127
  372ccc     O3 9875   2.209   4.538   6.972  0.8250 -0.0990  0.0552
  372ccc     O4 9876   2.351   4.369   6.792  0.1820 -0.3116  0.0835
  372ccc     C6 9877   2.494   4.126   6.870 -0.1019 -0.0194  0.1366
  372ccc     H6 9878   2.146   4.562   7.042  0.5235  0.2239 -0.3213
  372ccc     H7 9879   2.407   4.301   6.751 -0.5026 -0.0630 -1.3168
  372ccc     H8 9880   2.354   4.678   7.141  0.9657  0.1433  0.2102
  372ccc     H9 9881   2.407   4.059   6.874 -1.8490  2.1833  2.0079
  372ccc    H10 9882   2.577   4.066   6.908 -0.9526 -1.5717 -0.3626
  372ccc     O5 9883   2.521   4.174   6.733  0.3604  0.4858 -0.7553
  372ccc    H11 9884   2.564   4.106   6.679 -0.4630  1.1746 -2.3480
  372ccc     O6 9885   2.584   4.338   6.989  0.1881  0.0240  0.2534
  373ccc     C1 9886   3.003   4.920   7.635  0.1674  0.4807 -0.2766
  373ccc     C2 9887   2.910   4.877   7.749 -0.1354 -0.9001  0.0899
  373ccc     H1 9888   3.023   4.834   7.570  2.2854 -0.0079  0.9288
  373ccc     H2 9889   2.821   4.834   7.702  1.2801 -1.6636 -2.0316
  373ccc     C3 9890   2.981   4.772   7.838  0.3630  0.2191  0.5938
  373ccc     C4 9891   3.126   4.823   7.880  0.3123 -0.0121  0.3398
  373ccc     C5 9892   3.209   4.885   7.765 -0.5146  0.4147  0.1804
  373ccc     H3 9893   3.101   4.882   7.969 -1.5257 -0.3316  0.0883
  373ccc     H4 9894   2.991   4.684   7.772 -2.3378  0.0998  0.2498
  373ccc     H5 9895   3.256   4.811   7.699 -0.1184  0.1307  0.7744
  373ccc     O1 9896   3.317   4.968   7.814  0.1656  0.2369  0.1588
  373ccc     O2 9897   3.201   4.698   7.927 -0.6683 -0.7317 -0.0148
  373ccc     O3 9898   2.899   4.735   7.952  0.3846  0.8530 -0.1709
  373ccc     O4 9899   2.880   4.991   7.816 -0.2312 -0.1284  0.3711
  373ccc     C6 9900   2.931   5.022   7.538  0.2088 -0.1429  0.3716
  373ccc     H6 9901   2.945   4.654   7.981  1.0400  1.5599  0.8459
  373ccc     H7 9902   2.873   5.048   7.737 -1.4695 -3.7149 -2.3476
  373ccc     H8 9903   3.180   4.688   8.021 -1.2832 -1.5874 -0.2367
  373ccc     H9 9904   2.842   4.974   7.496  0.9642 -0.6022 -0.7533
  373ccc    H10 9905   3.000   5.057   7.460  0.5472 -2.7114 -0.5770
  373ccc     O5 9906   2.885   5.132   7.613  0.7096 -0.1496  0.0002
  373ccc    H11 9907   2.837   5.189   7.550  1.3890  0.4729  0.0391
  373ccc     O6 9908   3.127   4.971   7.683 -0.5485 -0.2681  0.5655
  374ccc     C1 9909   3.144   5.414   8.651 -0.6552  0.0315  0.0442
  374ccc     C2 9910   2.989   5.388   8.614  0.0379  0.3812 -0.2806
  374ccc     H1 9911   3.162   5.520   8.668 -1.6061  0.7940 -3.0112
  374ccc     H2 9912   2.923   5.431   8.690  0.8753 -0.9336  1.2711
  374ccc     C3 9913   2.939   5.448   8.481 -0.6094 -0.4650  0.8307
  374ccc     C4 9914   3.041   5.423   8.368 -1.0651  0.2437  0.3149
  374ccc     C5 9915   3.187   5.447   8.408 -0.1038  0.1597  0.2082
  374ccc     H3 9916   3.039   5.315   8.348  1.6885  0.0348  0.7856
  374ccc     H4 9917   2.938   5.555   8.506 -0.4773  0.2993 -2.1097
  374ccc     H5 9918   3.201   5.555   8.425 -2.1737  0.6574 -0.8112
  374ccc     O1 9919   3.267   5.389   8.306  0.6213 -0.0584 -0.0108
  374ccc     O2 9920   3.008   5.496   8.246  0.7863 -0.2334  0.2283
  374ccc     O3 9921   2.803   5.403   8.451 -0.3581 -0.1557  0.5145
  374ccc     O4 9922   2.965   5.243   8.612  0.2721  0.4387  0.4415
  374ccc     C6 9923   3.207   5.339   8.764 -0.1832 -0.4385 -0.7656
  374ccc     H6 9924   2.806   5.319   8.403  0.3700 -1.0598  2.0565
  374ccc     H7 9925   2.868   5.233   8.612  0.3250 -0.1444 -0.2469
  374ccc     H8 9926   3.078   5.563   8.242  1.3996 -0.9267 -1.0046
  374ccc     H9 9927   3.147   5.371   8.851  1.4370  1.9037 -0.4133
  374ccc    H10 9928   3.303   5.387   8.786 -1.3342  1.9832 -0.6546
  374ccc     O5 9929   3.205   5.199   8.737  0.7354 -0.2548  0.0198
  374ccc    H11 9930   3.122   5.208   8.687  0.9156  0.5168 -0.1604
  374ccc     O6 9931   3.227   5.387   8.534  0.2443  0.2626  0.4015
  375ccc     C1 9932   5.088   7.145   6.113 -0.3219  0.0867 -0.0240
  375ccc     C2 9933   5.208   7.056   6.160  1.3202  0.4176  0.6268
  375ccc     H1 9934   5.085   7.234   6.177  0.6082  0.0156  0.1229
  375ccc     H2 9935   5.296   7.119   6.143 -0.0438  1.7205 -2.2441
  375ccc     C3 9936   5.201   7.023   6.311  0.1816  0.0528  0.0714
  375ccc     C4 9937   5.059   6.962   6.348 -0.3307  0.1292 -0.2543
  375ccc     C5 9938   4.951   7.053   6.288 -0.0033  0.2256  0.7365
  375ccc     H3 9939   5.042   6.860   6.313  1.5492  0.1172 -1.3014
  375ccc     H4 9940   5.201   7.110   6.378  2.3607 -0.5699  0.9699
  375ccc     H5 9941   4.984   7.148   6.331 -0.1880  1.2880 -1.3213
  375ccc     O1 9942   4.816   7.009   6.317 -0.1428  0.6512  0.0922
  375ccc     O2 9943   5.065   6.960   6.493 -0.5907 -0.3252  0.3401
  375ccc     O3 9944   5.304   6.941   6.361 -0.2061 -0.1690  0.3785
  375ccc     O4 9945   5.224   6.930   6.080  0.1760 -0.5837  0.3485
  375ccc     C6 9946   5.099   7.185   5.969  0.1651 -0.0809 -0.3851
  375ccc     H6 9947   5.306   6.970   6.454  1.4886 -1.9204  0.9472
  375ccc     H7 9948   5.310   6.895   6.108  1.2197  0.7557 -1.0032
  375ccc     H8 9949   5.003   7.031   6.515  0.7938  0.4743  1.9152
  375ccc     H9 9950   5.196   7.234   5.953  0.2080  0.6856  1.8462
  375ccc    H10 9951   5.016   7.253   5.944 -0.1152  0.0815  0.9068
  375ccc     O5 9952   5.100   7.069   5.889 -0.2690 -0.2395  0.1078
  375ccc    H11 9953   5.165   7.011   5.932  0.1668 -1.6388 -2.2524
  375ccc     O6 9954   4.961   7.081   6.145  0.0226 -0.1137 -0.4068
  376ccc     C1 9955   4.909   6.376   5.558  0.1355  0.9281 -0.3877
  376ccc     C2 9956   5.029   6.327   5.648  0.1331  0.1174 -0.2325
  376ccc     H1 9957   4.968   6.436   5.487  2.0972 -0.9442 -0.4406
  376ccc     H2 9958   5.108   6.272   5.595 -1.1483 -2.4961  0.3990
  376ccc     C3 9959   5.098   6.444   5.709  0.0469  0.4660 -0.0857
  376ccc     C4 9960   4.986   6.522   5.792 -0.0625 -0.0218 -0.5775
  376ccc     C5 9961   4.870   6.571   5.695  0.7698 -0.1629 -0.2049
  376ccc     H3 9962   4.950   6.461   5.875 -0.8802  1.1534 -0.0506
  376ccc     H4 9963   5.132   6.507   5.626  1.6696  1.9488  1.6055
  376ccc     H5 9964   4.908   6.642   5.622  1.7372  0.8784  1.2493
  376ccc     O1 9965   4.764   6.633   5.768  0.4742 -0.3264 -0.0532
  376ccc     O2 9966   5.059   6.634   5.854  0.3503 -0.1335  0.3175
  376ccc     O3 9967   5.205   6.398   5.795 -0.2464 -0.2462 -0.5540
  376ccc     O4 9968   4.977   6.244   5.753  0.2296  0.9079 -0.6707
  376ccc     C6 9969   4.851   6.250   5.495 -0.1344 -0.1059 -0.4688
  376ccc     H6 9970   5.288   6.431   5.757  0.0360  0.2196  0.4553
  376ccc     H7 9971   5.056   6.226   5.808  1.0137 -0.3701 -2.1277
  376ccc     H8 9972   5.143   6.588   5.869  0.2660 -0.4714 -0.2030
  376ccc     H9 9973   4.783   6.206   5.569  1.7194  0.0652  1.4146
  376ccc    H10 9974   4.936   6.184   5.475 -0.1713 -0.6832  1.1129
  376ccc     O5 9975   4.772   6.294   5.381  0.2457 -0.1768  0.1446
  376ccc    H11 9976   4.694   6.327   5.429 -2.0858 -2.0688 -2.1169
  376ccc     O6 9977   4.818   6.451   5.632  0.3743  0.0384 -0.1365
  377ccc     C1 9978   5.581   6.642   5.979 -0.3880  0.8104 -0.0506
  377ccc     C2 9979   5.473   6.617   5.876  0.2974  0.3491 -0.0086
  377ccc     H1 9980   5.672   6.661   5.921  1.1094 -0.6183  1.6727
  377ccc     H2 9981   5.460   6.702   5.808 -2.5592  1.0233  1.2454
  377ccc     C3 9982   5.513   6.500   5.792 -0.0502  0.3348 -0.5853
  377ccc     C4 9983   5.522   6.369   5.879 -0.6773 -1.5666  0.4054
  377ccc     C5 9984   5.622   6.396   5.995  0.0848  0.9944  0.0317
  377ccc     H3 9985   5.423   6.350   5.922 -0.5064 -5.4515 -0.5696
  377ccc     H4 9986   5.611   6.526   5.750 -0.0332 -0.5404 -1.1014
  377ccc     H5 9987   5.727   6.385   5.970  0.7341 -0.5105  2.9464
  377ccc     O1 9988   5.584   6.296   6.093  0.3434 -0.7169  0.5210
  377ccc     O2 9989   5.555   6.263   5.797 -0.1587 -0.3275  0.0426
  377ccc     O3 9990   5.423   6.487   5.677 -0.0736  0.4123  0.4275
  377ccc     O4 9991   5.355   6.588   5.954  0.2045 -0.0653  0.1229
  377ccc     C6 9992   5.563   6.766   6.066 -0.4390  0.3675  0.1091
  377ccc     H6 9993   5.458   6.557   5.618  1.4479  0.6229  1.5118
  377ccc     H7 9994   5.371   6.655   6.023  6.3444 -1.4881  0.6944
  377ccc     H8 9995   5.492   6.264   5.723  1.0779  1.0840 -1.0516
  377ccc     H9 9996   5.547   6.850   5.997 -0.2854 -0.3287 -0.7963
  377ccc    H10 9997   5.650   6.769   6.132  0.2917 -0.2616 -0.7923
  377ccc     O5 9998   5.438   6.761   6.139 -0.5803  0.7059  0.0005
  377ccc    H11 9999   5.471   6.712   6.216  0.0698  0.2755 -0.5463
  377ccc     O610000   5.608   6.526   6.061  0.3304 -0.2806 -0.1115
  378ccc     C110001   5.626   6.839   6.700  0.4451  0.2065 -0.0982
  378ccc     C210002   5.585   6.936   6.581 -0.3528  0.3788 -0.4535
  378ccc     H110003   5.732   6.818   6.681  0.5550 -0.9285  1.5942
  378ccc     H210004   5.647   7.026   6.579  1.6621 -0.9237 -0.2671
  378ccc     C310005   5.605   6.860   6.452  0.5620  0.0965 -0.7971
  378ccc     C410006   5.524   6.728   6.449  0.2052  0.1163 -0.0243
  378ccc     C510007   5.556   6.641   6.576 -0.3844 -1.1056  0.2455
  378ccc     H310008   5.415   6.739   6.454 -0.1395 -2.8339  0.6693
  378ccc     H410009   5.711   6.833   6.446  0.1836 -1.8108  0.2444
  378ccc     H510010   5.661   6.614   6.560 -0.8315 -1.4719 -2.5755
  378ccc     O110011   5.470   6.526   6.579  0.5569 -0.1721  0.0645
  378ccc     O210012   5.555   6.653   6.335  0.2792  0.2670  0.4579
  378ccc     O310013   5.570   6.941   6.339  0.0179  0.3231  0.0336
  378ccc     O410014   5.449   6.981   6.591  0.1546 -0.0058 -0.4469
  378ccc     C610015   5.614   6.902   6.839  0.2229 -0.0896  0.7231
  378ccc     H610016   5.472   6.936   6.340  0.0029 -1.3841  3.7436
  378ccc     H710017   5.438   6.979   6.688  0.1946 -1.1919 -0.4573
  378ccc     H810018   5.647   6.624   6.335 -0.1790 -1.2449  0.7499
  378ccc     H910019   5.676   6.991   6.845  1.3876 -0.7318 -1.0643
  378ccc    H1010020   5.643   6.829   6.916 -0.2173 -2.0120 -0.8524
  378ccc     O510021   5.480   6.933   6.858 -0.3200 -0.2069  0.0068
  378ccc    H1110022   5.478   7.026   6.884  1.8136 -0.6714  2.1137
  378ccc     O610023   5.547   6.719   6.701 -0.9169 -0.3210  0.0240
  379ccc     C110024   3.994   5.827   4.830 -0.7994 -0.3654  0.0739
  379ccc     C210025   3.882   5.853   4.930  1.0123 -0.4071 -0.4864
  379ccc     H110026   4.036   5.730   4.862  1.2292 -0.2894 -2.0742
  379ccc     H210027   3.816   5.766   4.941 -2.1096  1.9509  0.9083
  379ccc     C310028   3.936   5.896   5.077  0.3332 -0.3491  0.6605
  379ccc     C410029   4.033   6.024   5.060 -0.4905  0.4023 -0.4744
  379ccc     C510030   4.140   5.996   4.949  0.2944 -0.0372  0.7198
  379ccc     H310031   3.965   6.108   5.038  0.8081  2.1459  1.7875
  379ccc     H410032   3.987   5.810   5.122 -0.2229  1.0045  4.2473
  379ccc     H510033   4.201   5.919   4.996  2.3150  0.2419 -1.2864
  379ccc     O110034   4.233   6.115   4.934 -0.8613  0.4817 -0.0881
  379ccc     O210035   4.111   6.029   5.179 -0.4039 -0.8614 -0.7174
  379ccc     O310036   3.827   5.956   5.157 -0.0555  0.2771 -0.1168
  379ccc     O410037   3.798   5.952   4.875  0.3344  0.0640  0.0998
  379ccc     C610038   3.947   5.782   4.686  0.6217 -0.3750  0.6392
  379ccc     H610039   3.748   5.900   5.143  0.4130 -0.7622  1.2027
  379ccc     H710040   3.870   6.010   4.844  2.2206 -2.2923 -0.2028
  379ccc     H810041   4.052   6.050   5.253 -0.1285  0.8114 -0.9487
  379ccc     H910042   3.897   5.870   4.644 -2.4280 -1.7337  1.1493
  379ccc    H1010043   3.877   5.699   4.700 -0.3935  0.3755  0.1385
  379ccc     O510044   4.056   5.752   4.603 -0.3678  0.4306  0.0121
  379ccc    H1110045   4.018   5.777   4.517 -1.1450 -0.3676  0.0962
  379ccc     O610046   4.084   5.948   4.824 -0.1497  0.0163  0.2154
  380ccc     C110047   3.836   6.354   4.903 -0.2739  0.9293  0.1091
  380ccc     C210048   3.882   6.309   4.764 -0.2931  0.0269 -0.0365
  380ccc     H110049   3.802   6.458   4.894  0.3857  1.1881  0.5061
  380ccc     H210050   3.787   6.310   4.709 -1.1112 -0.9568  1.2794
  380ccc     C310051   3.981   6.418   4.708 -0.6017 -0.4543 -0.1480
  380ccc     C410052   4.106   6.409   4.807 -0.1723 -0.5889  0.6893
  380ccc     C510053   4.055   6.451   4.949  0.0608 -0.3337 -0.7362
  380ccc     H310054   4.124   6.301   4.808 -0.0874 -0.5759  1.6687
  380ccc     H410055   3.942   6.520   4.711  0.0977 -0.0974 -1.7479
  380ccc     H510056   4.010   6.551   4.944  2.2925  0.9417  2.0792
  380ccc     O110057   4.172   6.453   5.037  0.3609 -0.2005 -0.0289
  380ccc     O210058   4.216   6.486   4.754  0.4291 -0.0339 -0.5146
  380ccc     O310059   4.023   6.382   4.574  0.2622 -0.2972  0.5807
  380ccc     O410060   3.933   6.174   4.757  0.2903 -0.0705  0.3889
  380ccc     C610061   3.726   6.256   4.951 -0.2711 -0.4192 -0.3371
  380ccc     H610062   3.952   6.428   4.527  0.8206  1.2045  1.1689
  380ccc     H710063   3.947   6.157   4.662 -0.0631 -0.8493  0.4710
  380ccc     H810064   4.275   6.503   4.830  0.6116 -1.0094 -0.4197
  380ccc     H910065   3.769   6.162   4.986  0.0599 -0.5105 -0.9810
  380ccc    H1010066   3.656   6.236   4.869 -0.6108  0.4033 -0.2613
  380ccc     O510067   3.657   6.315   5.059  0.1179 -0.0733 -0.0955
  380ccc    H1110068   3.691   6.406   5.066  0.7079 -0.3854  1.9418
  380ccc     O610069   3.955   6.354   4.986 -0.3177 -0.3149 -0.0326
  381ccc     C110070   3.600   6.280   5.476 -0.7516 -0.5929 -0.7813
  381ccc     C210071   3.717   6.248   5.378 -0.2769 -0.3373 -0.1252
  381ccc     H110072   3.632   6.360   5.544 -0.8400 -1.0202 -0.2273
  381ccc     H210073   3.746   6.345   5.336 -1.5115 -0.3360 -1.0573
  381ccc     C310074   3.829   6.162   5.441 -0.5184  0.5737  0.5330
  381ccc     C410075   3.778   6.041   5.530 -0.0631 -0.2283  0.4114
  381ccc     C510076   3.672   6.091   5.628 -0.4578 -0.1373  0.2678
  381ccc     H310077   3.725   5.968   5.467 -0.7560 -0.3741  1.1519
  381ccc     H410078   3.887   6.231   5.504  0.2456  1.1001 -0.7091
  381ccc     H510079   3.716   6.156   5.704  1.5273  0.7755 -1.5805
  381ccc     O110080   3.614   5.975   5.693 -0.7982 -0.0253 -0.2808
  381ccc     O210081   3.893   5.987   5.605  0.4693  0.4805 -0.2210
  381ccc     O310082   3.928   6.107   5.347  0.1385  0.3465 -0.2203
  381ccc     O410083   3.655   6.165   5.281  0.5404  0.6201  0.6406
  381ccc     C610084   3.480   6.324   5.401  0.0792  0.3209  0.0381
  381ccc     H610085   3.875   6.047   5.292  1.2407 -0.6642 -0.2052
  381ccc     H710086   3.687   6.196   5.195  3.4347  0.7488  1.6690
  381ccc     H810087   3.936   5.917   5.553  1.5956  0.5047  0.6222
  381ccc     H910088   3.431   6.242   5.347  1.0284  0.9213 -1.8410
  381ccc    H1010089   3.515   6.407   5.337  0.8695  0.4182  0.5862
  381ccc     O510090   3.388   6.373   5.495 -0.0848  0.1509  0.0107
  381ccc    H1110091   3.353   6.293   5.538  0.6904  0.4078  1.1793
  381ccc     O610092   3.569   6.155   5.555 -0.1147 -0.2983  0.0355
  382ccc     C110093   3.285   6.114   5.111 -0.2462 -0.4967  0.3372
  382ccc     C210094   3.335   6.048   4.981 -0.2599 -0.6335  0.0082
  382ccc     H110095   3.369   6.177   5.146  0.2483 -1.1857  0.4056
  382ccc     H210096   3.347   6.127   4.906 -0.7647  0.3467  0.9253
  382ccc     C310097   3.478   5.985   5.013 -1.0522  0.2020 -0.4374
  382ccc     C410098   3.467   5.881   5.127  0.3292 -0.0701  0.3666
  382ccc     C510099   3.396   5.953   5.249  0.2347  0.5247  0.3322
  382ccc     H310100   3.403   5.801   5.088 -0.4736  1.4753 -1.7173
  382ccc     H410101   3.540   6.067   5.052 -1.2912  0.7023 -1.0862
  382ccc     H510102   3.466   6.019   5.302 -0.1226 -0.5749  2.3062
  382ccc     O110103   3.363   5.848   5.338 -0.3487  0.0048  0.8977
  382ccc     O210104   3.601   5.825   5.147  0.4225  0.4073 -0.0350
  382ccc     O310105   3.539   5.939   4.895  0.1766  0.4220 -0.6963
  382ccc     O410106   3.238   5.950   4.939  0.5299 -0.3442  0.0773
  382ccc     C610107   3.168   6.212   5.097  0.0757 -0.1845 -0.5529
  382ccc     H610108   3.636   5.947   4.895  0.5045 -1.7226  2.4032
  382ccc     H710109   3.264   5.930   4.847 -0.4785 -0.7645 -0.1321
  382ccc     H810110   3.576   5.732   5.162  0.7451  0.3827  0.3627
  382ccc     H910111   3.183   6.274   5.008 -0.6139  0.4370 -0.2493
  382ccc    H1010112   3.157   6.279   5.184  0.3711 -0.0104 -0.6508
  382ccc     O510113   3.056   6.129   5.082  0.3732  0.6889 -0.2722
  382ccc    H1110114   3.099   6.041   5.076 -1.6308 -0.3147 -0.9605
  382ccc     O610115   3.277   6.019   5.214  0.1779 -0.0229  0.2416
  383SOL     OW10116   5.133  10.397  11.134 -0.0692 -0.3715 -0.5786
  383SOL    HW110117   5.076  10.394  11.058  0.1480  0.2860 -0.7814
  383SOL    HW210118   5.090  10.343  11.200 -0.3869 -0.7365 -1.0829
  384SOL     OW10119   7.692  12.516   5.025  0.8136 -0.5308 -0.6494
  384SOL    HW110120   7.684  12.501   5.119  2.4008 -1.9653 -0.6936
  384SOL    HW210121   7.755  12.588   5.017  0.8969 -0.6016 -0.6238
  385SOL     OW10122   1.463   5.871   1.256  0.1488 -0.3133  0.1873
  385SOL    HW110123   1.388   5.815   1.273  2.4180 -3.6055  0.1969
  385SOL    HW210124   1.463   5.934   1.328 -1.9934 -0.8322  0.7010
  386SOL     OW10125   0.335  10.811   3.710  0.5848  0.2861  0.3693
  386SOL    HW110126   0.260  10.751   3.711  1.4737 -0.8637  0.0540
  386SOL    HW210127   0.310  10.879   3.646  0.4239 -0.9119 -0.8847
  387SOL     OW10128   9.871   0.194   4.068  0.0739  0.3397 -0.2375
  387SOL    HW110129   9.801   0.212   4.005  0.3798 -0.1973 -0.7458
  387SOL    HW210130   9.841   0.118   4.117  0.3145  0.0732 -0.4953
  388SOL     OW10131  11.862   6.033   6.006 -0.2852 -0.1723 -1.2495
  388SOL    HW110132  11.768   6.043   5.989 -0.6636 -2.1871 -0.6229
  388SOL    HW210133  11.901   6.025   5.919 -0.7059  0.5204 -1.5113
  389SOL     OW10134   9.307   1.858   2.126  0.2183 -0.1388 -0.2982
  389SOL    HW110135   9.338   1.788   2.184  0.9661  0.6856  0.3199
  389SOL    HW210136   9.223   1.825   2.092 -0.1420 -0.7356  1.0925
  390SOL     OW10137   7.215  11.439   9.778  0.0255  0.5191 -0.3713
  390SOL    HW110138   7.310  11.434   9.775 -0.0197 -1.0036 -0.4615
  390SOL    HW210139   7.192  11.410   9.866 -0.4029 -1.9518 -1.1963
  391SOL     OW10140  11.807  11.366   6.437  0.2540 -0.2696  0.0749
  391SOL    HW110141  11.841  11.408   6.516 -0.1621 -2.0908  1.2656
  391SOL    HW210142  11.748  11.298   6.468 -2.4127  0.9718 -1.8885
  392SOL     OW10143   5.232   8.983   4.474 -0.5528 -0.4273 -0.4330
  392SOL    HW110144   5.218   8.961   4.566 -2.7285 -0.8245 -0.7990
  392SOL    HW210145   5.205   8.904   4.426 -1.9288  0.6258 -1.4944
  393SOL     OW10146   7.614   8.793   4.053 -0.0070 -0.3058  0.6498
  393SOL    HW110147   7.644   8.703   4.067 -0.9390 -0.7830 -0.3307
  393SOL    HW210148   7.695   8.845   4.054  0.5068 -1.0830  1.6304
  394SOL     OW10149   1.650  12.504   6.832 -0.2554 -0.2026 -0.1562
  394SOL    HW110150   1.596  12.457   6.896  0.3064 -0.3268  0.2326
  394SOL    HW210151   1.596  12.506   6.752 -1.4168  0.9226  0.6244
  395SOL     OW10152   7.674   6.271   4.581  0.3564 -0.0296 -0.0273
  395SOL    HW110153   7.742   6.253   4.646  0.8536 -0.5624 -0.6868
  395SOL    HW210154   7.630   6.350   4.614  1.4660  0.4899  0.2703
  396SOL     OW10155   9.654   5.072   4.260 -0.3030  0.1855  0.1616
  396SOL    HW110156   9.591   5.142   4.244 -1.1934 -0.2598  1.4588
  396SOL    HW210157   9.735   5.101   4.219 -1.1939  1.0504 -1.0415
  397SOL     OW10158   2.068  11.993   0.612  0.0583  0.5163 -0.5641
  397SOL    HW110159   2.070  12.046   0.691  1.0368  1.1252 -0.9867
  397SOL    HW210160   2.111  11.911   0.637 -1.6505 -0.2012  0.1499
  398SOL     OW10161   7.303   2.769  11.015  0.6830 -0.5281 -0.3784
  398SOL    HW110162   7.369   2.838  11.016  1.6896 -1.4661 -0.0450
  398SOL    HW210163   7.227   2.807  11.060  1.7943 -0.1670  1.2820
  399SOL     OW10164  10.952   3.811   9.780 -0.2595 -0.0454 -0.7343
  399SOL    HW110165  10.977   3.731   9.826  0.4278  0.8442  0.5056
  399SOL    HW210166  11.021   3.825   9.716 -1.3543 -1.4318 -2.3050
  400SOL     OW10167   2.604   0.820   0.513 -0.4549 -0.2673 -0.2120
  400SOL    HW110168   2.561   0.892   0.560  2.1796 -0.4461  2.8610
  400SOL    HW210169   2.668   0.863   0.457  0.5308 -0.0977  0.9880
  401SOL     OW10170  12.341   8.426   1.553 -0.1580  0.4839 -0.1336
  401SOL    HW110171  12.376   8.338   1.569 -0.2132  0.4443 -0.2357
  401SOL    HW210172  12.267   8.434   1.613 -0.2372  0.4101 -0.2208
  402SOL     OW10173  11.000   2.165   5.729  0.1449  0.6517  0.7773
  402SOL    HW110174  10.963   2.078   5.745 -1.1909  0.7862 -1.2334
  402SOL    HW210175  10.975   2.216   5.806 -2.3582  0.2242  0.3220
  403SOL     OW10176   8.473   1.941  10.553 -0.5757 -0.6235  0.5879
  403SOL    HW110177   8.495   1.946  10.646 -0.9052 -1.6305  0.7293
  403SOL    HW210178   8.391   1.892  10.550  0.0867 -1.7049 -0.3192
  404SOL     OW10179   6.313   2.868   2.368  0.1786 -0.8105  0.0343
  404SOL    HW110180   6.291   2.776   2.356  0.3052 -0.8481  0.0800
  404SOL    HW210181   6.242   2.916   2.326 -0.7668 -0.9072  1.4383
  405SOL     OW10182  11.396   1.092  10.550  0.3912 -0.0960  0.4057
  405SOL    HW110183  11.451   1.087  10.472  1.3746  1.0043  0.9921
  405SOL    HW210184  11.327   1.154  10.527 -0.0741 -0.7675 -0.0201
  406SOL     OW10185   5.556   8.121   0.507  0.0701 -0.2535 -0.5028
  406SOL    HW110186   5.563   8.028   0.486 -0.4119 -0.1693 -1.0394
  406SOL    HW210187   5.463   8.135   0.525  0.2517 -0.0339  0.3558
  407SOL     OW10188   3.969   7.936   7.550 -0.5037  0.0190 -0.0021
  407SOL    HW110189   4.003   7.895   7.470 -0.6745  2.6150 -1.5139
  407SOL    HW210190   4.031   8.007   7.569 -2.5020  1.9176 -0.1592
  408SOL     OW10191   7.482  12.275   9.207 -0.4285  0.3335  0.2408
  408SOL    HW110192   7.529  12.197   9.177 -0.9947 -0.0368  0.2966
  408SOL    HW210193   7.462  12.323   9.127 -1.0726 -0.1542  0.1021
  409SOL     OW10194   9.157   7.894   7.259  0.7797  0.0134 -0.2059
  409SOL    HW110195   9.134   7.906   7.167 -1.1274  0.0615  0.2344
  409SOL    HW210196   9.073   7.885   7.303  1.6678 -0.0776  1.5317
  410SOL     OW10197   6.064   3.555   5.359  0.0945  0.0897 -0.2972
  410SOL    HW110198   6.065   3.630   5.299 -2.6841 -0.9816 -1.8227
  410SOL    HW210199   5.987   3.504   5.334  1.1809 -2.6718  1.4877
  411SOL     OW10200   5.009   1.488   2.876 -0.2662 -0.1499 -0.1258
  411SOL    HW110201   5.027   1.403   2.917  0.7364  0.4362  0.6970
  411SOL    HW210202   5.050   1.482   2.789  1.2813  0.0557  0.5575
  412SOL     OW10203  11.496   0.257  12.069  0.1169  0.0043 -0.5263
  412SOL    HW110204  11.454   0.242  11.985  0.0718 -1.4495 -0.2729
  412SOL    HW210205  11.543   0.175  12.087  0.8338  0.6115  0.4524
  413SOL     OW10206   8.141   7.397   0.256 -0.0610  0.9372 -0.7360
  413SOL    HW110207   8.202   7.352   0.315 -1.1396 -0.5600 -0.7039
  413SOL    HW210208   8.182   7.390   0.169  1.7555  3.5511 -0.2055
  414SOL     OW10209   2.209   5.178  12.452  0.1023  0.2858  0.0779
  414SOL    HW110210   2.159   5.120  12.510 -0.0456 -0.6227 -0.9181
  414SOL    HW210211   2.144   5.214  12.392  0.4508  0.1252 -0.4012
  415SOL     OW10212   5.974  10.823   5.720 -0.2473  0.8818 -0.2439
  415SOL    HW110213   6.002  10.731   5.725  1.6019  1.2711 -2.0610
  415SOL    HW210214   5.882  10.818   5.694 -0.4395 -0.4462  0.5713
  416SOL     OW10215   6.257  10.518  11.700 -0.2508 -0.1090 -0.1182
  416SOL    HW110216   6.330  10.548  11.754  2.0490 -2.2507 -1.7575
  416SOL    HW210217   6.218  10.598  11.665  1.5962  1.1206  0.4844
  417SOL     OW10218   6.389   8.157   6.265  0.2728  0.1275 -0.2965
  417SOL    HW110219   6.368   8.138   6.357  0.7317 -0.8125 -0.3728
  417SOL    HW210220   6.457   8.223   6.270  0.9940 -0.6192  0.0839
  418SOL     OW10221  11.193  11.101   6.173  0.0971  0.0760  0.2144
  418SOL    HW110222  11.218  11.084   6.264  0.8893  1.9340  0.3870
  418SOL    HW210223  11.250  11.043   6.121 -0.3563 -0.9866  0.8786
  419SOL     OW10224   4.149   6.536   0.290 -0.1797  0.3176  0.3426
  419SOL    HW110225   4.075   6.596   0.297 -1.6624 -1.5267  1.8004
  419SOL    HW210226   4.166   6.509   0.381  2.0361  0.3404  0.0008
  420SOL     OW10227   0.979  11.155   2.619  0.1908 -0.1638 -0.7639
  420SOL    HW110228   0.912  11.223   2.623 -0.1594 -0.5437  0.1203
  420SOL    HW210229   1.055  11.194   2.661 -0.0411 -0.3387 -0.1665
  421SOL     OW10230  11.667   6.108   8.291 -0.1032 -1.0363  0.0881
  421SOL    HW110231  11.712   6.092   8.208 -0.7789  0.7920 -0.7069
  421SOL    HW210232  11.726   6.165   8.340 -0.7413 -0.1096 -0.1955
  422SOL     OW10233   1.688   7.092   2.761  0.4366  0.2458 -0.3179
  422SOL    HW110234   1.675   7.119   2.670  1.5329  0.1256 -0.5259
  422SOL    HW210235   1.783   7.088   2.771  0.3396  0.6468  0.9496
  423SOL     OW10236   4.513   3.742   3.867  0.4279 -0.3700 -0.4243
  423SOL    HW110237   4.598   3.761   3.826  0.4383 -1.1687 -0.7822
  423SOL    HW210238   4.534   3.685   3.941  0.0814 -1.6730 -1.3127
  424SOL     OW10239   2.727   1.792   5.998 -0.4432 -0.1788  0.1824
  424SOL    HW110240   2.765   1.704   6.003 -2.5066 -1.0321  2.5956
  424SOL    HW210241   2.767   1.840   6.071 -0.3847  0.4856 -0.2710
  425SOL     OW10242  12.019   5.394  11.901 -0.1097  0.4266 -0.1803
  425SOL    HW110243  12.035   5.299  11.904  0.4135  0.5128 -0.0158
  425SOL    HW210244  12.098   5.432  11.940 -0.1196  0.9480 -0.6517
  426SOL     OW10245   1.508   4.025  10.941 -0.3531  0.4686 -0.0714
  426SOL    HW110246   1.433   4.084  10.942 -2.3017 -1.8160 -1.3508
  426SOL    HW210247   1.483   3.953  10.999  1.0402 -0.1764 -0.2230
  427SOL     OW10248   4.970   6.310  11.676 -0.3624 -0.0211 -0.5101
  427SOL    HW110249   4.904   6.318  11.607 -0.2122  1.7833 -0.4937
  427SOL    HW210250   4.996   6.401  11.696  1.6453 -0.6293 -0.0612
  428SOL     OW10251  11.729   0.963   7.668  0.7252  0.3395  0.5160
  428SOL    HW110252  11.663   1.004   7.613 -0.7865  0.0755  2.0202
  428SOL    HW210253  11.808   0.960   7.615 -0.1996  1.6161 -0.9859
  429SOL     OW10254   5.946  12.593   6.917  0.0643  0.2462  0.1625
  429SOL    HW110255   5.940  12.637   7.002  1.4917 -2.6235  1.8773
  429SOL    HW210256   5.864  12.545   6.908  1.2281 -2.2213  1.6959
  430SOL     OW10257   4.757  11.687   6.134  0.0723 -0.4792 -0.4842
  430SOL    HW110258   4.719  11.641   6.208 -0.7869  0.3518 -0.3865
  430SOL    HW210259   4.848  11.704   6.160 -0.6300  1.2257  1.1126
  431SOL     OW10260   5.757  10.281   9.052  0.1306  0.1274 -0.1123
  431SOL    HW110261   5.687  10.244   9.107 -0.2373  0.5032 -0.3211
  431SOL    HW210262   5.712  10.344   8.996  0.6327  0.3298 -0.2904
  432SOL     OW10263  11.451   1.797   8.226 -0.0062  0.3480 -0.2968
  432SOL    HW110264  11.366   1.831   8.252  0.8800  1.1143  1.9143
  432SOL    HW210265  11.497   1.784   8.309  2.1084  0.1953 -1.4281
  433SOL     OW10266   5.343   9.989   9.750 -0.0146 -0.0046 -0.2114
  433SOL    HW110267   5.411   9.977   9.816 -1.2518  2.0564  1.5722
  433SOL    HW210268   5.381  10.051   9.688  0.2881 -0.0378 -0.0628
  434SOL     OW10269   0.120   1.758   6.746  0.0768 -0.2419 -0.0778
  434SOL    HW110270   0.087   1.834   6.794 -0.2899  0.1124 -0.8675
  434SOL    HW210271   0.041   1.718   6.708  0.4211 -0.1220 -0.9314
  435SOL     OW10272   4.067   7.788   8.019 -0.5160  0.0002  0.1705
  435SOL    HW110273   4.074   7.739   7.937  1.5366  0.7852 -0.1874
  435SOL    HW210274   4.141   7.757   8.071  0.5241  2.2343  0.1425
  436SOL     OW10275  12.306   1.557   5.737 -0.1214 -0.2390 -0.0302
  436SOL    HW110276  12.219   1.525   5.712 -0.4563  0.9987 -0.5228
  436SOL    HW210277  12.304   1.558   5.833 -0.0313 -1.8251  0.0107
  437SOL     OW10278   1.519   8.642  11.511  0.0040  0.0174  0.0000
  437SOL    HW110279   1.584   8.633  11.581  0.1160  0.4616 -0.0428
  437SOL    HW210280   1.496   8.735  11.512 -0.1890 -0.0255 -0.3822
  438SOL     OW10281  11.317   5.563   2.790  0.4536  0.0228  0.1895
  438SOL    HW110282  11.281   5.487   2.835  0.1404  0.3412  0.4799
  438SOL    HW210283  11.254   5.583   2.721 -0.2321  0.9069  1.0314
  439SOL     OW10284   5.717   4.491   2.497 -0.2605 -0.3301  0.1642
  439SOL    HW110285   5.713   4.524   2.408  0.4255 -2.0574 -0.5587
  439SOL    HW210286   5.703   4.567   2.552  1.0577  1.1010 -1.3794
  440SOL     OW10287   0.881   9.477   9.389  0.3354 -0.1108  0.1978
  440SOL    HW110288   0.903   9.459   9.297  1.2679  2.3175 -0.1262
  440SOL    HW210289   0.966   9.493   9.431 -0.2088  0.5139  1.0904
  441SOL     OW10290   5.012   2.458   0.124  0.2830 -0.1724 -0.3512
  441SOL    HW110291   5.044   2.370   0.105  0.1547 -0.1976 -0.4505
  441SOL    HW210292   4.987   2.455   0.216  1.4491  0.1146 -0.0123
  442SOL     OW10293   2.478   6.313   1.699 -0.5896 -0.4909  1.0434
  442SOL    HW110294   2.519   6.244   1.750  1.6808 -0.3685 -0.4706
  442SOL    HW210295   2.514   6.303   1.611 -1.4102  1.6466  0.3877
  443SOL     OW10296   4.245   4.139   1.431 -0.5738 -0.2912  0.4464
  443SOL    HW110297   4.315   4.147   1.495 -1.6091 -1.7960  1.8375
  443SOL    HW210298   4.235   4.228   1.395  0.8088  0.3215  1.5044
  444SOL     OW10299   4.615   2.149   4.724 -0.7752 -0.0434  0.2503
  444SOL    HW110300   4.575   2.188   4.802  0.7947  1.0354  0.5584
  444SOL    HW210301   4.647   2.064   4.754 -0.0653  0.4185  0.8396
  445SOL     OW10302  12.007   9.834   6.964 -0.8009  0.7514  0.5680
  445SOL    HW110303  11.970   9.759   7.011 -0.4755  0.1810 -0.0702
  445SOL    HW210304  12.101   9.827   6.978 -0.7328  0.7853  0.1436
  446SOL     OW10305  11.170   4.937   7.312 -0.0304 -0.0442  0.0912
  446SOL    HW110306  11.171   4.975   7.400  1.2100  0.1334  0.0133
  446SOL    HW210307  11.173   4.843   7.326 -1.5723 -0.1011  0.2519
  447SOL     OW10308   4.885   3.107   5.481  0.0219 -0.6983  0.0732
  447SOL    HW110309   4.845   3.042   5.422 -1.0275 -0.9227  0.9919
  447SOL    HW210310   4.932   3.054   5.546  2.1424 -0.4324 -1.1594
  448SOL     OW10311  12.519   5.138   6.932 -0.3336 -0.2396 -0.1486
  448SOL    HW110312  12.498   5.174   7.018  1.1926 -0.6666  0.4368
  448SOL    HW210313  12.434   5.127   6.889 -1.9263 -5.3251  3.3819
  449SOL     OW10314   7.656  10.644   5.561 -0.0578 -0.2962  0.3071
  449SOL    HW110315   7.612  10.706   5.619  0.4749 -0.4846  0.9123
  449SOL    HW210316   7.607  10.563   5.571  0.7503 -0.6600  1.3980
  450SOL     OW10317   2.816   5.367   9.403  0.0790  0.3489  0.2531
  450SOL    HW110318   2.778   5.453   9.423 -0.4066 -0.0698  1.1798
  450SOL    HW210319   2.742   5.307   9.407  0.6441 -0.3191  0.9616
  451SOL     OW10320   0.292   6.492   6.793 -0.3378  0.2220  0.0896
  451SOL    HW110321   0.230   6.540   6.737 -1.2013  0.2076  0.9969
  451SOL    HW210322   0.377   6.504   6.751 -1.0024 -0.0618 -1.3953
  452SOL     OW10323   9.437   0.081   8.148 -0.4884 -0.2588  0.5963
  452SOL    HW110324   9.388   0.019   8.201 -0.3599 -1.4152 -0.5770
  452SOL    HW210325   9.509   0.110   8.204 -0.0025 -1.9148  0.8686
  453SOL     OW10326   3.870   1.636   0.415 -0.4404  0.2855  0.8329
  453SOL    HW110327   3.899   1.712   0.466  1.2752  0.8510 -0.8723
  453SOL    HW210328   3.949   1.603   0.373 -1.5075 -1.1458 -0.1736
  454SOL     OW10329  11.067   2.967  10.298 -0.6432  0.0765 -0.3084
  454SOL    HW110330  10.996   2.935  10.241 -0.5617  0.0516 -0.3977
  454SOL    HW210331  11.144   2.918  10.268 -0.7547 -0.5165  0.3444
  455SOL     OW10332   6.516   1.753   1.676 -0.0978 -0.2818 -0.0321
  455SOL    HW110333   6.504   1.719   1.765 -1.0182  0.3740  0.1104
  455SOL    HW210334   6.530   1.676   1.622  2.1823 -0.6129  0.9118
  456SOL     OW10335   5.240   8.808   5.905 -0.3913 -0.0742 -0.4594
  456SOL    HW110336   5.321   8.823   5.855 -1.2149  1.0035 -1.5525
  456SOL    HW210337   5.231   8.713   5.909  0.9186 -0.2070 -0.3366
  457SOL     OW10338  10.012   1.747   2.930 -0.1091 -0.3086  0.2942
  457SOL    HW110339  10.059   1.742   2.847 -2.7080 -1.7307 -1.1836
  457SOL    HW210340  10.042   1.671   2.979 -0.9549 -1.3123 -0.7097
  458SOL     OW10341   1.794   7.532   9.395  0.0902  0.1449  0.6916
  458SOL    HW110342   1.767   7.620   9.419 -1.1281 -0.4110  1.4585
  458SOL    HW210343   1.745   7.475   9.455 -0.0111 -1.0966 -0.5285
  459SOL     OW10344   5.081   9.510  10.949  0.0988 -0.1178  0.5779
  459SOL    HW110345   5.076   9.442  11.016 -1.6472 -1.3600 -0.7282
  459SOL    HW210346   5.175   9.517  10.929  0.3189 -2.4361  0.4929
  460SOL     OW10347   5.758   4.191   8.951  0.6139  0.1646 -0.2114
  460SOL    HW110348   5.807   4.109   8.943 -0.9056 -0.7362 -0.9058
  460SOL    HW210349   5.767   4.216   9.043  1.2289 -0.7004 -0.0206
  461SOL     OW10350   9.502   6.656  10.130  0.4635 -0.0944  0.2808
  461SOL    HW110351   9.431   6.720  10.126 -0.1926 -0.8201 -0.2387
  461SOL    HW210352   9.572   6.694  10.078  0.0463  0.1573 -0.1040
  462SOL     OW10353   3.202   8.949   5.561 -0.3435  0.1182  0.0597
  462SOL    HW110354   3.168   9.035   5.588 -1.3244  0.2605 -1.4877
  462SOL    HW210355   3.282   8.969   5.512 -0.6016  0.1659 -0.3480
  463SOL     OW10356   4.155   9.511   5.273  0.4364  0.0869  0.2473
  463SOL    HW110357   4.190   9.572   5.209  0.9610 -0.9181 -0.4594
  463SOL    HW210358   4.067   9.543   5.292  0.4507  0.6724 -0.6113
  464SOL     OW10359   9.298   4.718   3.338 -0.4263 -0.1062  0.3833
  464SOL    HW110360   9.340   4.803   3.322 -1.9186  0.4298 -0.8244
  464SOL    HW210361   9.369   4.655   3.328  0.4677  0.9024  0.1136
  465SOL     OW10362   8.288  10.110  11.294  0.6685 -0.8173 -0.0950
  465SOL    HW110363   8.374  10.069  11.286  1.3945  0.7086 -0.4169
  465SOL    HW210364   8.233  10.063  11.231  1.2939 -1.6875 -0.0112
  466SOL     OW10365  10.736   3.493   2.946  0.0284  0.0328 -0.4893
  466SOL    HW110366  10.764   3.578   2.912 -1.6082  0.1223 -1.7279
  466SOL    HW210367  10.646   3.508   2.976  0.4597 -0.7532  1.3255
  467SOL     OW10368   7.751   9.246   7.009  0.5715 -0.2215 -0.1295
  467SOL    HW110369   7.713   9.321   6.964  1.5578  0.0416 -0.5503
  467SOL    HW210370   7.677   9.205   7.054 -0.0719  0.6920 -0.3238
  468SOL     OW10371  11.569   7.349   6.000  0.2036 -0.2599 -0.5751
  468SOL    HW110372  11.533   7.414   5.940 -0.7424 -0.3329 -0.1053
  468SOL    HW210373  11.493   7.297   6.027  0.7778 -0.8699 -0.1014
  469SOL     OW10374   8.163  10.633   6.989 -0.5697  0.5736  0.0374
  469SOL    HW110375   8.170  10.680   7.072  0.1283 -0.1606  0.4095
  469SOL    HW210376   8.138  10.544   7.014 -0.0056  0.2536 -0.5090
  470SOL     OW10377   4.157   1.083  10.300  0.4706 -0.6299  0.3973
  470SOL    HW110378   4.135   1.175  10.289  1.4674 -0.4645 -0.3707
  470SOL    HW210379   4.075   1.042  10.328 -0.3363  0.2581 -0.5505
  471SOL     OW10380   0.185  10.338   9.661 -0.6539  0.2026 -0.0410
  471SOL    HW110381   0.260  10.278   9.663  0.1522  1.1921  0.3672
  471SOL    HW210382   0.175  10.366   9.752 -2.2912 -0.8117  0.1239
  472SOL     OW10383   9.103   1.684   1.971 -0.5090 -0.1414  0.8276
  472SOL    HW110384   9.102   1.607   1.915  0.1334 -0.1469  0.8109
  472SOL    HW210385   9.015   1.689   2.008 -1.1073  0.1786 -0.6044
  473SOL     OW10386   8.232  10.973  10.805  0.2694 -0.2971 -0.1796
  473SOL    HW110387   8.301  10.947  10.743  0.1690 -1.6581  0.2491
  473SOL    HW210388   8.268  10.952  10.891 -0.1949  0.1609  0.1322
  474SOL     OW10389   2.943   6.239   2.469  0.1392  0.6208 -0.8345
  474SOL    HW110390   3.022   6.280   2.434  0.4443  1.0077  0.2862
  474SOL    HW210391   2.871   6.290   2.432  0.4633  1.2122 -0.6455
  475SOL     OW10392   6.929   9.806   1.568  0.3184  0.3234 -0.1313
  475SOL    HW110393   6.939   9.713   1.587  2.5740 -0.0173 -2.5120
  475SOL    HW210394   6.835   9.818   1.555 -0.1288 -1.3622  1.1514
  476SOL     OW10395  12.339  10.096   1.329 -0.5727 -0.1845  0.2530
  476SOL    HW110396  12.259  10.143   1.354 -0.6933 -0.1433 -0.2191
  476SOL    HW210397  12.308  10.010   1.301 -0.4365 -0.2216  0.2181
  477SOL     OW10398  12.269   9.813   7.028 -0.5233  0.2661 -0.1544
  477SOL    HW110399  12.333   9.844   7.091 -1.5226  0.7758  0.6311
  477SOL    HW210400  12.294   9.723   7.010  2.8538  1.5521 -2.9971
  478SOL     OW10401   1.793   9.904  12.531 -0.2404 -0.2733 -0.5227
  478SOL    HW110402   1.805   9.998  12.544 -1.6569 -0.2673  1.1838
  478SOL    HW210403   1.846   9.863  12.600  0.2203 -0.7295 -1.1353
  479SOL     OW10404   0.349   4.875   1.786 -0.0681 -0.1988  0.3944
  479SOL    HW110405   0.439   4.860   1.816 -0.2872 -0.3102  1.0112
  479SOL    HW210406   0.305   4.915   1.860 -0.0864  1.4966 -0.4809
  480SOL     OW10407   6.053  10.375   8.755  0.1708 -0.2910 -0.2966
  480SOL    HW110408   5.967  10.336   8.740  0.1814 -1.2574  1.8868
  480SOL    HW210409   6.044  10.425   8.836  0.8406  2.3583 -1.7324
  481SOL     OW10410   8.751  10.802   0.364 -0.0106 -0.4937  0.2404
  481SOL    HW110411   8.727  10.791   0.272  0.5844 -1.2288  0.1556
  481SOL    HW210412   8.782  10.892   0.370  0.1105 -0.4932 -0.3211
  482SOL     OW10413   0.358   0.485   8.852  0.0340  0.0709  0.3732
  482SOL    HW110414   0.360   0.577   8.879  0.6923 -0.0112  0.6441
  482SOL    HW210415   0.273   0.452   8.882 -0.3018  0.6470  0.0639
  483SOL     OW10416  11.881   8.942   1.854 -0.3471  0.3202 -0.1116
  483SOL    HW110417  11.958   8.966   1.804 -0.3649 -1.4688 -1.0850
  483SOL    HW210418  11.813   9.002   1.825  0.3993  1.2643  0.0308
  484SOL     OW10419   6.600   0.945   9.688  0.8146 -0.1079  0.3531
  484SOL    HW110420   6.511   0.926   9.717  1.2549 -1.8093  0.6643
  484SOL    HW210421   6.589   0.990   9.604 -0.3171 -1.2273 -0.1154
  485SOL     OW10422   6.179   7.954  11.293 -0.3941 -0.3145  0.1980
  485SOL    HW110423   6.098   7.905  11.280  0.2259 -1.3982  0.2843
  485SOL    HW210424   6.245   7.904  11.245  0.3322  0.2288  0.6132
  486SOL     OW10425   4.620  10.935   8.550 -0.0810  0.1900 -0.2324
  486SOL    HW110426   4.653  10.845   8.550 -0.3300  0.0881 -1.3009
  486SOL    HW210427   4.573  10.944   8.633  0.5749 -0.4266  0.2136
  487SOL     OW10428  11.138  10.202   9.522  0.0354 -0.1639 -0.4479
  487SOL    HW110429  11.098  10.138   9.463  1.3063  0.2055 -1.7886
  487SOL    HW210430  11.157  10.153   9.602 -1.9325 -0.6258 -0.2273
  488SOL     OW10431   7.356   8.040   4.295  0.0406  0.0668 -0.7255
  488SOL    HW110432   7.265   8.067   4.310  0.5249  0.6786  1.4265
  488SOL    HW210433   7.372   8.061   4.203 -2.0785 -0.3910 -1.2674
  489SOL     OW10434  10.397   1.195   3.942 -0.0619 -0.3113 -0.8593
  489SOL    HW110435  10.316   1.241   3.964 -0.3962 -0.5922 -1.4650
  489SOL    HW210436  10.467   1.251   3.976 -0.4700  0.5062 -1.3404
  490SOL     OW10437   7.430  12.174   9.535 -0.2785  0.4110 -0.1233
  490SOL    HW110438   7.483  12.181   9.455 -0.0511  0.7266  0.0514
  490SOL    HW210439   7.481  12.221   9.601 -0.1068 -0.4932  0.3925
  491SOL     OW10440   0.320   9.536  10.391  0.0969 -0.1156 -0.3332
  491SOL    HW110441   0.336   9.473  10.462 -0.4568  0.1329  0.0187
  491SOL    HW210442   0.339   9.487  10.312  1.0392 -0.3007 -0.0024
  492SOL     OW10443  12.461  11.172   6.537  0.5821 -1.0286  0.3385
  492SOL    HW110444  12.393  11.121   6.580  0.4457 -1.5018 -0.4156
  492SOL    HW210445  12.511  11.108   6.486  1.5195 -0.6743  0.7779
  493SOL     OW10446   5.332   9.752   1.673 -0.1404  0.0804 -0.0588
  493SOL    HW110447   5.347   9.803   1.594  1.2559  0.9730  0.7326
  493SOL    HW210448   5.300   9.816   1.737  1.7111  0.0407  0.9678
  494SOL     OW10449   7.602  11.712   8.870  0.4258 -0.4276 -0.5460
  494SOL    HW110450   7.513  11.678   8.868  0.4415 -0.6367  1.0894
  494SOL    HW210451   7.592  11.805   8.891  0.4973  0.2157 -2.9856
  495SOL     OW10452   7.650   2.179   5.410 -0.2821  0.5440 -0.1873
  495SOL    HW110453   7.623   2.202   5.321  1.1791  0.3958 -0.7006
  495SOL    HW210454   7.678   2.262   5.448  0.5868  0.3730 -0.4290
  496SOL     OW10455   0.584   5.033   2.559  0.0521 -0.5456  0.3533
  496SOL    HW110456   0.648   5.042   2.628 -0.3329 -1.4262  0.8428
  496SOL    HW210457   0.627   4.980   2.492  1.1953  2.0211 -1.1086
  497SOL     OW10458  12.408  10.837   5.239 -0.0524  0.0352 -0.2512
  497SOL    HW110459  12.321  10.868   5.264 -0.2005 -0.0957 -0.5929
  497SOL    HW210460  12.395  10.796   5.154  0.3123 -0.1461 -0.2210
  498SOL     OW10461   5.687  11.292  10.057  0.2237  0.2394 -0.2481
  498SOL    HW110462   5.687  11.361   9.991  1.3012  0.2818 -0.2287
  498SOL    HW210463   5.750  11.227  10.024  2.3500  1.1959  1.6308
  499SOL     OW10464   8.592  11.738   6.133  0.0881 -0.0087 -0.2826
  499SOL    HW110465   8.555  11.658   6.170  0.3180 -0.8779 -1.8593
  499SOL    HW210466   8.554  11.745   6.046  1.0775  0.8829 -0.6727
  500SOL     OW10467   2.390   7.198  12.520 -0.5139 -0.2733  0.3192
  500SOL    HW110468   2.467   7.231  12.567 -0.3345  0.8782 -0.7327
  500SOL    HW210469   2.350   7.276  12.482 -1.2209 -1.0518 -0.5805
  501SOL     OW10470   9.649   8.056   8.899  0.3263  0.4490  0.0229
  501SOL    HW110471   9.720   8.094   8.848  1.5108 -0.8972  0.6144
  501SOL    HW210472   9.680   8.059   8.990 -0.6712  0.4846  0.3722
  502SOL     OW10473   5.349  12.055   0.629  0.1703  0.4248 -0.6626
  502SOL    HW110474   5.358  12.020   0.717 -2.9941 -0.0129 -0.3680
  502SOL    HW210475   5.337  12.149   0.641  0.4688  0.4642 -0.6822
  503SOL     OW10476   0.315   3.548   2.117 -0.2735 -0.5733 -0.0915
  503SOL    HW110477   0.255   3.539   2.191 -1.0005 -0.4449 -0.6516
  503SOL    HW210478   0.260   3.579   2.045  0.3233 -1.1464 -0.8153
  504SOL     OW10479   5.021   1.361   7.621 -0.9485 -0.6744 -0.0519
  504SOL    HW110480   5.092   1.296   7.621 -1.4031 -1.1931 -1.0419
  504SOL    HW210481   5.052   1.429   7.680  0.2528 -1.0384 -0.2175
  505SOL     OW10482   9.150   6.857   5.167 -0.4532  0.4822 -0.3178
  505SOL    HW110483   9.148   6.769   5.206  1.7017  1.0958  1.3631
  505SOL    HW210484   9.231   6.859   5.117  0.2804  1.9650  0.8675
  506SOL     OW10485   8.225   2.500  11.637 -0.6367 -0.0114  0.6156
  506SOL    HW110486   8.271   2.418  11.655  0.1404  0.1704 -0.4514
  506SOL    HW210487   8.290   2.568  11.655 -0.5788  0.2634 -0.5375
  507SOL     OW10488   3.149   4.123   6.796  0.4833  0.4711  0.8417
  507SOL    HW110489   3.187   4.037   6.778  0.9944  0.6637  0.9991
  507SOL    HW210490   3.055   4.106   6.802  0.5097  0.0410  0.1720
  508SOL     OW10491   7.899  12.591  10.736 -0.1458 -0.0326 -0.2853
  508SOL    HW110492   7.826  12.556  10.787  0.8493 -0.9918  0.5049
  508SOL    HW210493   7.946  12.648  10.797  0.0716  0.1743 -0.6423
  509SOL     OW10494   3.842   1.731   4.235 -0.4550 -0.3553 -0.1929
  509SOL    HW110495   3.925   1.775   4.256 -0.7073  0.0915 -0.1385
  509SOL    HW210496   3.788   1.799   4.196 -1.7519  0.0348  2.1197
  510SOL     OW10497  11.553   1.582   6.266  0.2262 -0.7837 -0.4441
  510SOL    HW110498  11.634   1.607   6.221  0.5477 -2.0914 -0.6164
  510SOL    HW210499  11.524   1.502   6.222 -0.9500 -0.5572 -0.1212
  511SOL     OW10500   3.991   8.387  12.382  0.1846  0.2344 -0.4912
  511SOL    HW110501   3.901   8.395  12.352 -0.3568  4.6350  1.4587
  511SOL    HW210502   4.045   8.409  12.306 -0.3000 -2.0977 -1.5756
  512SOL     OW10503   0.832   6.035   2.580 -0.2004  0.4606 -0.1743
  512SOL    HW110504   0.918   6.041   2.539  0.3421  0.3028  0.9264
  512SOL    HW210505   0.799   5.949   2.555 -0.3908  0.8227 -1.2401
  513SOL     OW10506   6.399   9.778   2.160  0.1070  0.1936  0.1334
  513SOL    HW110507   6.414   9.724   2.238 -0.0252 -0.7979 -0.5103
  513SOL    HW210508   6.304   9.776   2.148  0.1518  0.0969 -0.2207
  514SOL     OW10509   3.170   8.197  12.102  0.0849 -0.2294 -0.2886
  514SOL    HW110510   3.214   8.259  12.161 -1.2578 -1.3637  2.0555
  514SOL    HW210511   3.121   8.253  12.042  0.5958  0.9974  0.3789
  515SOL     OW10512  11.564   6.130  11.555  0.4597 -0.4590 -0.4208
  515SOL    HW110513  11.474   6.131  11.523 -0.1515  0.5511  1.2503
  515SOL    HW210514  11.615   6.166  11.482 -1.0345  2.9069 -0.0157
  516SOL     OW10515   9.934  12.142   0.729  0.7121  0.0788 -0.3339
  516SOL    HW110516   9.927  12.064   0.784  0.2516 -0.1044 -0.6499
  516SOL    HW210517   9.906  12.214   0.785  2.4703  0.2428  0.4212
  517SOL     OW10518   6.346   0.961   2.398 -0.0868 -0.2737  0.0816
  517SOL    HW110519   6.316   0.951   2.308  1.5238 -1.1723 -0.3967
  517SOL    HW210520   6.439   0.936   2.395  0.0511 -0.1025  1.9493
  518SOL     OW10521  11.156   9.433   8.432  0.4218  0.9055 -0.2082
  518SOL    HW110522  11.198   9.478   8.505 -0.4815  0.3825  0.6603
  518SOL    HW210523  11.144   9.343   8.462  1.8555  0.1364 -1.7850
  519SOL     OW10524   7.029   6.938   7.903 -0.3040 -0.0264 -0.3666
  519SOL    HW110525   7.037   6.961   7.996 -0.0381 -3.4714  0.5694
  519SOL    HW210526   6.966   7.002   7.869  0.4242  2.0314  1.8705
  520SOL     OW10527   6.747   3.204   3.255 -0.2100 -0.4029 -0.5499
  520SOL    HW110528   6.747   3.298   3.274 -0.8460 -0.7738  1.5553
  520SOL    HW210529   6.761   3.199   3.160  0.7109  1.7687 -0.5928
  521SOL     OW10530   3.287  10.559   8.956  0.5531 -0.0190  0.5314
  521SOL    HW110531   3.282  10.505   9.035 -1.4518 -1.1639 -0.2895
  521SOL    HW210532   3.215  10.621   8.964 -0.8683 -1.3458 -1.1535
  522SOL     OW10533   4.634   3.505   2.223  0.5738 -0.0531  0.1232
  522SOL    HW110534   4.687   3.466   2.153  0.4207 -0.1082  0.0369
  522SOL    HW210535   4.553   3.531   2.180  0.1876 -0.7370  0.4120
  523SOL     OW10536   2.847   1.083   3.215  0.0917  0.3187  0.9621
  523SOL    HW110537   2.759   1.115   3.195  0.0681 -0.7802 -0.9219
  523SOL    HW210538   2.839   0.987   3.209  0.9804  0.0947  2.7864
  524SOL     OW10539   9.539   9.872   7.950  0.1823 -0.1697 -0.1241
  524SOL    HW110540   9.554   9.894   7.858 -0.9331  0.4490 -0.1633
  524SOL    HW210541   9.459   9.917   7.973  0.5439 -0.1844  1.2146
  525SOL     OW10542   0.096   7.528   0.909  0.0924  0.6627  0.2273
  525SOL    HW110543   0.039   7.454   0.887 -0.4598  0.5628  1.8052
  525SOL    HW210544   0.158   7.492   0.973  0.9230  1.1567 -0.2912
  526SOL     OW10545   0.802  11.809  10.394  0.4639  0.0515  0.9601
  526SOL    HW110546   0.827  11.815  10.486 -0.3744  1.1098  1.1368
  526SOL    HW210547   0.711  11.840  10.392  0.6892  0.6843 -0.3169
  527SOL     OW10548  12.103   9.143   9.559  0.4634  0.2636 -0.2676
  527SOL    HW110549  12.057   9.128   9.477 -0.1375 -1.3479  0.3272
  527SOL    HW210550  12.196   9.136   9.537  0.4642  2.4320 -1.2605
  528SOL     OW10551   4.102   8.428   7.084  0.3879 -0.3383  0.1805
  528SOL    HW110552   4.113   8.339   7.050 -1.2547  0.4376 -2.8432
  528SOL    HW210553   4.166   8.480   7.036 -1.3546  0.6549 -1.2413
  529SOL     OW10554  12.424   0.188  11.406 -0.0629  0.7310  0.4342
  529SOL    HW110555  12.519   0.196  11.403 -0.1198  2.0324  1.3661
  529SOL    HW210556  12.400   0.221  11.492 -1.2354 -1.1949  0.9146
  530SOL     OW10557   9.807   8.723   3.061 -0.2939  0.1918 -0.1763
  530SOL    HW110558   9.764   8.808   3.068  0.8657  0.7952 -0.1986
  530SOL    HW210559   9.740   8.666   3.022 -0.7724  1.3369 -1.1030
  531SOL     OW10560   0.733   2.896   7.850 -0.3247 -0.0587  0.1977
  531SOL    HW110561   0.750   2.884   7.943  0.7143 -1.1854 -0.1112
  531SOL    HW210562   0.728   2.807   7.815  0.5096  0.3527 -1.0263
  532SOL     OW10563   1.146  10.449   4.391 -0.1713  0.2883 -0.1212
  532SOL    HW110564   1.098  10.367   4.400  1.2081 -0.3899  1.7981
  532SOL    HW210565   1.080  10.514   4.369 -1.6250 -0.9421  0.4642
  533SOL     OW10566   1.624   3.027  12.069 -0.2942  0.2453  0.2483
  533SOL    HW110567   1.651   2.935  12.061  0.9628  0.6399 -0.3402
  533SOL    HW210568   1.607   3.054  11.979 -2.0994  0.2149  0.5367
  534SOL     OW10569   1.871   4.791   1.206 -0.5515  0.0040  0.3504
  534SOL    HW110570   1.965   4.793   1.189 -0.1696 -2.2890  1.8075
  534SOL    HW210571   1.853   4.702   1.237 -3.3937  0.0387 -0.8287
  535SOL     OW10572   1.050   9.363  11.149  0.0121  0.3076  0.2336
  535SOL    HW110573   1.051   9.413  11.067  0.5022  2.5200  1.4975
  535SOL    HW210574   0.976   9.304  11.140 -0.6624  1.3217 -1.3417
  536SOL     OW10575   9.965   2.897   3.997 -0.0658 -0.0780  0.1998
  536SOL    HW110576  10.038   2.853   4.040 -0.1286  0.4192  0.8283
  536SOL    HW210577   9.896   2.900   4.063 -0.7231 -0.6801 -0.4353
  537SOL     OW10578   3.503  11.752  12.183 -0.6719 -1.0549 -0.4103
  537SOL    HW110579   3.580  11.696  12.181  0.7416  0.8085 -0.8699
  537SOL    HW210580   3.500  11.786  12.273  1.1280  1.4978 -1.2006
  538SOL     OW10581   9.931   5.170   5.608  0.9061  0.5935 -0.4612
  538SOL    HW110582   9.890   5.215   5.682  2.6259  2.2148 -0.4076
  538SOL    HW210583   9.911   5.225   5.532  2.8180  1.4024 -0.4391
  539SOL     OW10584   3.880   9.676   8.427 -0.4722  0.2804 -0.8876
  539SOL    HW110585   3.785   9.667   8.432 -0.3575 -0.3887  0.5125
  539SOL    HW210586   3.899   9.756   8.475 -0.2378 -0.3178  0.0478
  540SOL     OW10587   9.298   9.555   8.213 -0.4555 -0.1571  1.0584
  540SOL    HW110588   9.271   9.641   8.244  0.4966  0.7240 -0.3822
  540SOL    HW210589   9.353   9.574   8.136  0.8665 -1.9922  1.4830
  541SOL     OW10590   5.029  10.171   3.805  0.0913 -0.4749  0.1840
  541SOL    HW110591   5.028  10.075   3.808 -2.1359 -0.4905  0.9849
  541SOL    HW210592   4.959  10.197   3.866 -0.2750  1.6240 -1.0507
  542SOL     OW10593   1.249   0.389   4.128  0.7169 -0.3872 -0.3470
  542SOL    HW110594   1.220   0.313   4.078  0.8048 -1.6442  1.4385
  542SOL    HW210595   1.337   0.366   4.159  0.6239  0.3114  0.4801
  543SOL     OW10596   3.188   6.903   4.301 -0.0327 -0.0498  0.2181
  543SOL    HW110597   3.166   6.927   4.391  0.9481 -0.0940  0.4755
  543SOL    HW210598   3.250   6.831   4.310 -1.3772 -1.3593 -0.5190
  544SOL     OW10599   6.243   5.003   9.147 -0.0355 -0.0081 -0.0375
  544SOL    HW110600   6.185   4.930   9.126 -1.1650  0.8764 -0.0648
  544SOL    HW210601   6.220   5.071   9.084  3.2951 -0.7205 -2.2627
  545SOL     OW10602   0.882  12.505   4.694 -0.4158 -0.2130  0.0686
  545SOL    HW110603   0.971  12.540   4.695 -0.3347 -0.4230  0.5483
  545SOL    HW210604   0.851  12.516   4.783 -0.4879 -1.1027  0.1625
  546SOL     OW10605   6.902   6.604   1.538  0.2037 -0.0443 -0.0914
  546SOL    HW110606   6.905   6.632   1.446 -1.6220  1.1001  0.1429
  546SOL    HW210607   6.917   6.685   1.587  1.2687 -0.6677  0.6437
  547SOL     OW10608   6.754   4.365   8.438  0.5158 -0.3135  0.2681
  547SOL    HW110609   6.663   4.335   8.441  0.6521 -0.6697  2.1266
  547SOL    HW210610   6.754   4.435   8.373 -1.5770  1.2238  1.7929
  548SOL     OW10611  11.532   0.854   8.652 -0.5770 -0.2073  0.4616
  548SOL    HW110612  11.451   0.886   8.691  0.9241  2.4577  1.6996
  548SOL    HW210613  11.595   0.852   8.724  0.9397 -0.2745 -0.8026
  549SOL     OW10614   3.931   3.720   3.634 -0.2396  0.6695 -0.3070
  549SOL    HW110615   3.975   3.642   3.599 -0.0205  0.4004  0.5458
  549SOL    HW210616   4.001   3.782   3.651 -0.5727  1.8725 -2.8807
  550SOL     OW10617   6.633   8.744   9.924  0.5024  0.7688 -0.3690
  550SOL    HW110618   6.573   8.818   9.919  0.5977  0.8350 -0.5562
  550SOL    HW210619   6.634   8.708   9.835 -0.3763 -0.1224 -0.0318
  551SOL     OW10620   0.413   2.478   6.729 -0.0705 -0.0431  0.5480
  551SOL    HW110621   0.466   2.556   6.712 -0.8978  0.5367  0.5287
  551SOL    HW210622   0.467   2.405   6.701  0.7917  0.5104  0.7130
  552SOL     OW10623   6.215   1.198  11.298  0.8063  0.4258 -0.1294
  552SOL    HW110624   6.237   1.226  11.386  1.3625  1.3317 -0.5472
  552SOL    HW210625   6.164   1.118  11.310  1.4752  0.1539  0.9816
  553SOL     OW10626   1.983   5.071   7.889 -0.2654  0.0929  0.5859
  553SOL    HW110627   2.011   5.145   7.836 -0.4797  1.1347  1.8652
  553SOL    HW210628   1.888   5.077   7.892 -0.3504 -0.7590 -0.0110
  554SOL     OW10629   6.240   7.278  10.928 -0.4080  0.4069  0.2952
  554SOL    HW110630   6.312   7.215  10.924 -1.8256 -1.2140 -0.5869
  554SOL    HW210631   6.254   7.335  10.852 -0.3486 -0.2098 -0.1581
  555SOL     OW10632   9.654  10.115   1.438 -0.3539  0.4695 -0.4086
  555SOL    HW110633   9.745  10.089   1.424 -0.3243 -0.2741  1.0222
  555SOL    HW210634   9.615  10.111   1.351  0.9378  0.6815 -1.0317
  556SOL     OW10635   1.197  10.714   6.940 -0.0788  0.1366 -0.7520
  556SOL    HW110636   1.151  10.777   6.884 -0.9983 -0.3338 -0.5600
  556SOL    HW210637   1.228  10.766   7.015  0.3520  0.5978 -1.2416
  557SOL     OW10638   0.526  11.471  12.170  0.0359  0.1349 -0.1385
  557SOL    HW110639   0.570  11.550  12.139 -0.6562 -0.3101 -2.4117
  557SOL    HW210640   0.436  11.498  12.188  0.3734  0.3374  1.3468
  558SOL     OW10641  11.462  10.244  12.084  0.7148 -0.7434 -0.0937
  558SOL    HW110642  11.458  10.290  12.000 -0.3458  0.6805  0.6805
  558SOL    HW210643  11.379  10.198  12.090  0.0224  0.5678  0.8896
  559SOL     OW10644   0.208   2.102  12.081  0.6248  0.1285  0.4413
  559SOL    HW110645   0.232   2.195  12.076 -0.9588  0.5800  0.5615
  559SOL    HW210646   0.199   2.075  11.990  1.8324 -0.1311  0.3878
  560SOL     OW10647   5.549   0.035   9.665  0.2568  0.0636 -0.2818
  560SOL    HW110648   5.590   0.121   9.670  0.2371  0.1847 -1.6276
  560SOL    HW210649   5.555  -0.001   9.753  1.6324  0.8172 -0.0462
  561SOL     OW10650   6.997   0.337  10.183  0.7823  0.2965 -0.5235
  561SOL    HW110651   6.998   0.340  10.087 -1.5956  2.4642 -0.5790
  561SOL    HW210652   6.905   0.350  10.206  1.1166 -1.2933  2.0869
  562SOL     OW10653   9.930   4.615   1.376  0.0679 -0.4514  0.1592
  562SOL    HW110654   9.875   4.543   1.345 -0.5568  0.8619 -1.9688
  562SOL    HW210655   9.868   4.681   1.407  0.3709  0.8019 -1.7209
  563SOL     OW10656   8.637  12.010   2.050  0.3228  0.2374  0.1689
  563SOL    HW110657   8.554  12.010   2.098  0.0972 -1.3305 -0.1581
  563SOL    HW210658   8.671  12.098   2.061 -2.0221  1.3470 -0.8028
  564SOL     OW10659   0.455   9.625   4.960  0.8205 -0.0643  0.1880
  564SOL    HW110660   0.387   9.589   4.902  1.8396 -1.9950  0.0951
  564SOL    HW210661   0.498   9.547   4.995  2.5987  1.1176  0.7026
  565SOL     OW10662   2.679   2.198   5.899  0.5304 -0.3863 -0.2205
  565SOL    HW110663   2.716   2.122   5.853 -1.2351 -1.7615  0.5451
  565SOL    HW210664   2.725   2.200   5.983  0.3551 -0.8165 -0.1116
  566SOL     OW10665   8.550  12.554   6.748 -0.3124  0.2453  0.3323
  566SOL    HW110666   8.597  12.596   6.676 -0.0095 -1.4324 -0.4993
  566SOL    HW210667   8.618  12.503   6.793 -1.0764 -1.2966 -0.1928
  567SOL     OW10668  12.351  12.422   7.184 -0.0602 -0.4396 -0.2015
  567SOL    HW110669  12.331  12.328   7.181  1.9169 -0.9133 -0.0509
  567SOL    HW210670  12.281  12.463   7.132 -0.6003 -2.0529 -0.8253
  568SOL     OW10671   6.615  11.296   7.377 -0.3479  0.3353 -0.1378
  568SOL    HW110672   6.680  11.317   7.309  0.2888 -1.1846 -0.0326
  568SOL    HW210673   6.655  11.326   7.458 -1.3769  2.7404 -0.4333
  569SOL     OW10674   1.836   6.859   3.291 -0.1247  0.0390  0.6496
  569SOL    HW110675   1.788   6.819   3.219  1.5922 -0.2915 -0.3843
  569SOL    HW210676   1.782   6.932   3.320 -1.8025 -1.0610  0.3995
  570SOL     OW10677   0.410  11.481  10.365 -0.2127  0.2319  0.5991
  570SOL    HW110678   0.359  11.405  10.394 -0.0989 -0.4223 -0.7815
  570SOL    HW210679   0.443  11.455  10.279 -0.5227  2.0153 -0.1040
  571SOL     OW10680   7.790   5.457   5.972  0.1068  0.3399 -0.6926
  571SOL    HW110681   7.730   5.454   5.898 -0.0851  2.2770 -0.6497
  571SOL    HW210682   7.858   5.394   5.950  0.0673  0.8919 -2.5298
  572SOL     OW10683   2.870  11.596   4.531 -0.0248 -0.1990 -0.3792
  572SOL    HW110684   2.871  11.635   4.444  1.1460  0.0533 -0.2695
  572SOL    HW210685   2.812  11.653   4.582  0.3054  0.4019 -0.6641
  573SOL     OW10686   1.069   3.647  10.114 -0.2547 -0.3110 -0.5105
  573SOL    HW110687   1.036   3.733  10.141 -0.3901 -0.1669 -1.1269
  573SOL    HW210688   1.024   3.585  10.171  0.5263  0.0781  0.5718
  574SOL     OW10689   6.743   7.957   3.124  0.0654 -0.0094 -0.2596
  574SOL    HW110690   6.745   8.049   3.097 -0.4600  0.2224  0.4631
  574SOL    HW210691   6.759   7.959   3.218 -2.7828 -0.3958  0.3154
  575SOL     OW10692   3.371  10.352   7.292 -0.0932 -0.1095 -0.0950
  575SOL    HW110693   3.454  10.352   7.244 -0.5225 -3.3892 -1.0783
  575SOL    HW210694   3.395  10.372   7.382  1.9526 -1.9450 -0.1621
  576SOL     OW10695   5.750   7.322   6.520  0.1822 -0.0592 -0.2526
  576SOL    HW110696   5.802   7.262   6.574  0.2268 -0.4274 -0.6983
  576SOL    HW210697   5.793   7.407   6.530 -1.3397  0.5115  2.4155
  577SOL     OW10698   6.525   9.103   2.647 -0.2075 -0.5037 -0.3002
  577SOL    HW110699   6.542   9.016   2.611 -1.8828 -1.4457  1.0195
  577SOL    HW210700   6.448   9.092   2.703  0.7876  1.3525  1.6397
  578SOL     OW10701  12.564   0.045   6.653 -0.0730  0.2459  0.2101
  578SOL    HW110702  12.610   0.035   6.570 -0.0241 -1.4989  0.3920
  578SOL    HW210703  12.473   0.062   6.629  0.1436  0.8806 -0.1777
  579SOL     OW10704  11.940   3.139   1.779 -0.0062  0.1800 -0.2563
  579SOL    HW110705  11.858   3.184   1.757 -0.5463  0.1177  1.5102
  579SOL    HW210706  11.966   3.175   1.864  0.8373 -1.1118  0.0641
  580SOL     OW10707   8.254   1.234   7.892  0.3013  0.2147 -0.2953
  580SOL    HW110708   8.301   1.302   7.843  0.5762  0.8873  0.8568
  580SOL    HW210709   8.162   1.249   7.869  0.0619  2.5663  1.6781
  581SOL     OW10710   4.421   4.249   4.647  0.2259  0.5301 -0.0569
  581SOL    HW110711   4.411   4.343   4.628  0.8337  0.5076 -0.4959
  581SOL    HW210712   4.500   4.223   4.601  0.0891 -0.1965  0.1029
  582SOL     OW10713  11.914   0.715   5.564 -0.0247  0.3449 -0.0306
  582SOL    HW110714  11.989   0.656   5.570  1.0680  1.7463  0.2408
  582SOL    HW210715  11.910   0.759   5.649 -0.3206  1.2622 -0.5085
  583SOL     OW10716   9.244   8.594   1.246 -0.4706  0.4697  0.7522
  583SOL    HW110717   9.260   8.548   1.163 -2.2372 -1.6347  1.4771
  583SOL    HW210718   9.301   8.671   1.242  0.8024 -0.4827 -1.6328
  584SOL     OW10719   2.613   4.656   7.379 -0.5733 -0.0812 -0.3432
  584SOL    HW110720   2.562   4.632   7.302 -0.2634 -1.1672 -0.2295
  584SOL    HW210721   2.664   4.577   7.400  0.6251  0.7485 -0.0432
  585SOL     OW10722   5.707  10.094   6.518 -0.4083  0.1049 -0.2799
  585SOL    HW110723   5.792  10.139   6.513  0.1949 -0.8201  0.9221
  585SOL    HW210724   5.730  10.006   6.549 -1.5835 -0.9079 -2.1428
  586SOL     OW10725   8.161   5.432  12.426  0.0454 -0.4118  0.1441
  586SOL    HW110726   8.252   5.454  12.410 -0.2467 -0.2700 -1.4913
  586SOL    HW210727   8.145   5.355  12.371 -0.8891 -0.3063  0.2538
  587SOL     OW10728   0.799   1.305  12.297  0.4066  0.5313 -0.5769
  587SOL    HW110729   0.718   1.309  12.348  0.6573 -1.5109  0.0475
  587SOL    HW210730   0.839   1.222  12.321  3.2470  1.9304 -0.0637
  588SOL     OW10731  11.572   9.767   5.784  0.7329 -0.2422 -0.0006
  588SOL    HW110732  11.517   9.698   5.821 -0.9990  0.1425 -1.7190
  588SOL    HW210733  11.661   9.736   5.797  0.1337 -1.2791  2.1455
  589SOL     OW10734   8.663   2.929   4.904 -0.1676  0.3051 -0.2232
  589SOL    HW110735   8.696   2.857   4.852 -0.9288 -0.3370  0.1576
  589SOL    HW210736   8.737   2.954   4.960  0.3984  0.4746 -1.0365
  590SOL     OW10737   4.214   5.218  11.658  0.5030 -0.2454 -0.0412
  590SOL    HW110738   4.155   5.192  11.729  1.3692  1.5783  1.4353
  590SOL    HW210739   4.156   5.252  11.590 -0.2032  1.5568  1.3921
  591SOL     OW10740   6.474   3.061   8.330  0.4847 -0.2567  0.0324
  591SOL    HW110741   6.439   3.030   8.246  0.3881  2.0034 -0.8397
  591SOL    HW210742   6.512   2.983   8.370  3.5212 -0.9494 -3.5927
  592SOL     OW10743  12.398  12.537  10.077 -0.2704  0.2555 -0.2664
  592SOL    HW110744  12.321  12.561  10.129 -0.1453 -1.2100  0.6388
  592SOL    HW210745  12.442  12.470  10.129  0.2149 -0.7927 -1.9600
  593SOL     OW10746   0.601   1.248   8.317  0.3085  0.0713  0.3331
  593SOL    HW110747   0.691   1.233   8.287  0.1300 -1.0592  0.3212
  593SOL    HW210748   0.608   1.326   8.373  1.1098  0.6010 -0.4550
  594SOL     OW10749   9.057  10.315   2.879 -0.0569  0.2309  0.2495
  594SOL    HW110750   9.107  10.280   2.805  0.7956 -3.9324  2.5041
  594SOL    HW210751   8.967  10.286   2.863 -0.0813  0.2680  0.3184
  595SOL     OW10752   9.554   2.864   8.377  0.3529 -0.3291  0.2432
  595SOL    HW110753   9.584   2.866   8.286  1.1140  1.0678  0.4909
  595SOL    HW210754   9.479   2.805   8.376 -1.8521  2.1996 -2.0265
  596SOL     OW10755   0.670   6.148   4.401 -0.2924 -0.4808  0.1439
  596SOL    HW110756   0.726   6.216   4.438  0.8497 -0.1591 -1.9872
  596SOL    HW210757   0.591   6.149   4.454 -0.1877  2.3082  0.3672
  597SOL     OW10758   6.638  10.301   0.170 -0.9651  0.6652  0.1713
  597SOL    HW110759   6.716  10.345   0.136  1.2253 -0.2180  3.5792
  597SOL    HW210760   6.631  10.222   0.117  1.1606  0.2434  0.4142
  598SOL     OW10761  12.345  11.578   8.306 -0.2073 -0.1436 -0.2702
  598SOL    HW110762  12.376  11.639   8.239  0.3554  1.1480  1.1270
  598SOL    HW210763  12.281  11.627   8.356  1.5963  0.0227  2.0577
  599SOL     OW10764   0.720   0.194   1.392 -0.2096 -0.5138  0.1761
  599SOL    HW110765   0.677   0.249   1.328 -1.5993 -0.7628  0.8544
  599SOL    HW210766   0.706   0.238   1.476  0.2075 -0.9903  0.5103
  600SOL     OW10767  12.027   3.319   4.684 -0.3283 -0.0927  0.4279
  600SOL    HW110768  11.944   3.342   4.642  0.1296  1.4051  0.2641
  600SOL    HW210769  12.049   3.233   4.650 -0.9123  0.2840 -0.9634
  601SOL     OW10770   4.368   8.241   4.768 -0.2584 -0.0340 -0.1535
  601SOL    HW110771   4.330   8.154   4.786 -1.5581  0.2932 -1.1159
  601SOL    HW210772   4.379   8.243   4.673 -1.7835  1.4162 -0.3500
  602SOL     OW10773   5.005   8.273   3.362  0.1397  0.2738 -0.1406
  602SOL    HW110774   4.930   8.264   3.304  0.5054  0.0779 -0.5852
  602SOL    HW210775   5.081   8.275   3.304  0.5874 -0.8662  0.3708
  603SOL     OW10776   3.738   4.268   0.831 -0.0131 -0.3011  0.0297
  603SOL    HW110777   3.811   4.206   0.830 -0.6621 -1.0884 -0.6635
  603SOL    HW210778   3.776   4.351   0.858  1.1014 -0.7430 -0.1544
  604SOL     OW10779   6.010  11.586   1.834  0.2003  0.1113  0.0463
  604SOL    HW110780   6.031  11.562   1.924  0.7480 -0.3553 -0.1986
  604SOL    HW210781   6.045  11.514   1.781  0.1790  0.5410 -0.5636
  605SOL     OW10782   5.277   4.365  11.438  0.0797 -0.2360  0.4197
  605SOL    HW110783   5.263   4.270  11.436  2.2075 -0.5954 -0.7317
  605SOL    HW210784   5.247   4.395  11.352 -0.7046  0.1765  0.8289
  606SOL     OW10785   4.717  12.555  10.873  0.1679 -0.3076 -0.1848
  606SOL    HW110786   4.758  12.494  10.935  0.3231 -0.7200 -0.6927
  606SOL    HW210787   4.731  12.515  10.787  0.7263  0.6945 -0.5715
  607SOL     OW10788   3.984   0.149   6.945  0.1347  0.5789  0.3091
  607SOL    HW110789   4.063   0.197   6.921  0.4213 -0.5021 -1.0090
  607SOL    HW210790   3.945   0.201   7.015  1.8103  1.3268  0.7315
  608SOL     OW10791   7.456   3.111   1.834  0.6453 -0.0914  0.2954
  608SOL    HW110792   7.396   3.089   1.905  1.2091  1.6232  1.3620
  608SOL    HW210793   7.473   3.204   1.845  0.5907  0.2834 -2.2416
  609SOL     OW10794   5.187   5.080   4.843 -0.2981 -0.3589  0.2375
  609SOL    HW110795   5.193   4.990   4.811 -0.8302 -0.1695 -0.4321
  609SOL    HW210796   5.238   5.132   4.780 -0.6702 -0.0913  0.1508
  610SOL     OW10797   0.557   8.438  10.961  0.3614 -0.3056 -0.0542
  610SOL    HW110798   0.535   8.526  10.932 -0.7461 -0.2162  0.9766
  610SOL    HW210799   0.577   8.390  10.880 -2.1636  0.0529 -0.9850
  611SOL     OW10800   8.764   6.134   8.374  0.2709  0.0293  0.4869
  611SOL    HW110801   8.710   6.169   8.303  1.0286  1.0099  0.3750
  611SOL    HW210802   8.851   6.173   8.360  0.4173  0.3025  1.9857
  612SOL     OW10803   7.975  11.511   9.311 -0.1563 -0.6896  0.6013
  612SOL    HW110804   7.948  11.448   9.244 -1.0005 -0.0078  0.2758
  612SOL    HW210805   7.989  11.459   9.390  1.0858 -1.5460 -0.1464
  613SOL     OW10806  10.668   7.329   6.621  0.0452  0.1783  0.0445
  613SOL    HW110807  10.673   7.410   6.672 -0.8075 -0.0038  0.4367
  613SOL    HW210808  10.602   7.348   6.553 -1.7596 -0.8487  1.4297
  614SOL     OW10809   1.259   9.981   5.554  0.1344  0.0525  0.5813
  614SOL    HW110810   1.194   9.950   5.491  1.4422 -2.3813  0.3222
  614SOL    HW210811   1.207  10.010   5.629 -1.3662  1.3113 -0.8720
  615SOL     OW10812   8.198   5.060   6.492  0.0297 -0.3124 -0.0459
  615SOL    HW110813   8.198   5.079   6.398 -2.1125 -0.2842 -0.0891
  615SOL    HW210814   8.106   5.062   6.517  0.5861  0.2559  2.1962
  616SOL     OW10815   9.506   7.154   8.588 -0.1507 -0.3708 -0.1856
  616SOL    HW110816   9.561   7.213   8.536  0.7954 -0.7517  0.3574
  616SOL    HW210817   9.454   7.107   8.523  0.5074 -0.3453 -0.7478
  617SOL     OW10818   2.731   8.956   4.342  0.6825  0.3896  0.2601
  617SOL    HW110819   2.636   8.962   4.342  0.6414  0.5387  2.2988
  617SOL    HW210820   2.761   9.042   4.313  0.1825  0.8317  1.0392
  618SOL     OW10821   5.408   0.969   2.112 -0.4628  0.2060  0.1379
  618SOL    HW110822   5.374   0.941   2.028 -1.5601 -1.4869  1.0818
  618SOL    HW210823   5.334   0.959   2.172  1.3083 -2.7726  2.1125
  619SOL     OW10824  11.506   5.749  11.244  0.3436  0.1479 -0.3627
  619SOL    HW110825  11.441   5.806  11.284 -0.1509  0.2549 -1.3157
  619SOL    HW210826  11.469   5.724  11.160  0.8482 -1.0496 -0.2505
  620SOL     OW10827  12.112   1.450  12.529  0.1715 -0.3032 -0.0567
  620SOL    HW110828  12.024   1.431  12.497 -0.4163  1.4383  0.4477
  620SOL    HW210829  12.138   1.530  12.484  1.0382 -0.1812  0.6280
  621SOL     OW10830  10.779  11.418  10.640  0.2627  0.1909 -0.2336
  621SOL    HW110831  10.775  11.463  10.556  2.0485  0.3846 -0.2588
  621SOL    HW210832  10.803  11.328  10.617  0.2980  0.1330  0.0321
  622SOL     OW10833   7.110   1.030  11.611  0.7089  0.4383  0.0252
  622SOL    HW110834   7.065   1.112  11.594  1.4456  0.9855  0.6317
  622SOL    HW210835   7.086   1.008  11.701  0.0461 -0.3270 -0.3283
  623SOL     OW10836   3.319   5.163  10.580 -0.4098  0.6291 -0.0170
  623SOL    HW110837   3.253   5.203  10.522 -1.4383 -0.5208  0.3305
  623SOL    HW210838   3.356   5.092  10.528 -1.8101 -0.8403  0.9232
  624SOL     OW10839   2.026   7.774   1.252 -0.0053  0.3730  0.2784
  624SOL    HW110840   2.082   7.699   1.235 -0.0346  0.4232 -0.0453
  624SOL    HW210841   1.966   7.777   1.177 -0.0270  0.6953  0.3058
  625SOL     OW10842   0.566   5.365   1.749 -0.1405 -0.1242 -0.3866
  625SOL    HW110843   0.618   5.286   1.731  0.4181  0.4781 -1.5101
  625SOL    HW210844   0.494   5.361   1.688  0.0207  0.3562 -0.6099
  626SOL     OW10845   4.548   6.572   9.261  1.1337  0.2753  0.0388
  626SOL    HW110846   4.605   6.511   9.212 -0.2493 -1.2598  0.2403
  626SOL    HW210847   4.532   6.528   9.344  1.3901  1.6959  0.8708
  627SOL     OW10848  10.822   9.353   3.092 -0.0099 -0.1885  0.1060
  627SOL    HW110849  10.833   9.269   3.136 -1.0286  0.8390  2.5330
  627SOL    HW210850  10.895   9.406   3.124 -0.8521  0.6289  0.7166
  628SOL     OW10851   1.932  10.479   9.380 -0.6162  0.2244 -0.0206
  628SOL    HW110852   1.861  10.537   9.354 -0.9201 -0.5112 -0.8972
  628SOL    HW210853   1.994  10.483   9.307 -0.4708 -0.2807  0.0692
  629SOL     OW10854  11.318   2.763   1.775 -0.5112  0.2359 -1.0188
  629SOL    HW110855  11.359   2.831   1.721  0.0639 -0.7582 -1.8809
  629SOL    HW210856  11.243   2.734   1.724 -0.5318 -0.0361 -0.8375
  630SOL     OW10857   0.916   8.002   0.406  0.3308  0.2874 -0.0113
  630SOL    HW110858   0.921   7.907   0.400 -2.1148  0.0580  0.5014
  630SOL    HW210859   0.832   8.019   0.449 -0.4182  2.7087 -2.1297
  631SOL     OW10860   8.108   3.794  12.365 -0.2155  0.1851  0.3874
  631SOL    HW110861   8.156   3.742  12.300  1.2667  0.1804  1.4458
  631SOL    HW210862   8.059   3.858  12.313  0.2442 -0.3746 -0.7726
  632SOL     OW10863   9.679   1.530   3.904  0.5221  0.4088  0.2587
  632SOL    HW110864   9.774   1.524   3.917  0.4191  0.5190  1.1335
  632SOL    HW210865   9.642   1.517   3.991 -0.2684  0.4393 -0.0642
  633SOL     OW10866   2.500  12.351   1.129 -0.0665 -0.8852 -0.1703
  633SOL    HW110867   2.526  12.428   1.180 -2.2050 -0.6014  0.5750
  633SOL    HW210868   2.415  12.375   1.091 -0.4129 -2.6023 -0.5598
  634SOL     OW10869   5.676   2.018   9.508 -0.7040  0.8294 -0.5692
  634SOL    HW110870   5.590   2.061   9.505 -0.6845  0.9014 -0.1438
  634SOL    HW210871   5.670   1.948   9.444 -1.5144  0.0302  0.3440
  635SOL     OW10872   4.038   9.708  10.845 -0.0519  0.7917 -0.3830
  635SOL    HW110873   4.007   9.623  10.878  1.0216  0.6772  0.3997
  635SOL    HW210874   3.960   9.764  10.846 -0.6660 -0.0425 -0.4307
  636SOL     OW10875   1.105   2.286   7.040  0.8348  0.0589 -0.4118
  636SOL    HW110876   1.031   2.334   7.078 -1.4470 -3.5413  0.2082
  636SOL    HW210877   1.098   2.302   6.946  1.3865  2.3855 -0.1165
  637SOL     OW10878   9.058  11.904   1.160  0.2353  0.5296 -0.2217
  637SOL    HW110879   9.008  11.828   1.191  2.5964 -1.2172 -0.4250
  637SOL    HW210880   9.025  11.977   1.214 -1.0384 -0.9140  1.0807
  638SOL     OW10881   0.192   2.958   6.853 -0.1829  0.6775  0.6652
  638SOL    HW110882   0.287   2.964   6.858  0.0358 -1.0120 -0.5147
  638SOL    HW210883   0.167   2.906   6.929  0.3377 -2.3684 -1.0946
  639SOL     OW10884   4.755  11.339   2.772  0.4142  0.3184  0.6120
  639SOL    HW110885   4.797  11.265   2.728  0.4920  0.4560  0.4512
  639SOL    HW210886   4.688  11.368   2.711  0.2965  0.2972  0.7320
  640SOL     OW10887   5.315  11.496   9.032  0.4757 -0.2564 -0.0533
  640SOL    HW110888   5.363  11.506   9.114  0.1173  0.4007  0.0861
  640SOL    HW210889   5.375  11.448   8.975  0.7657 -0.6369  0.5579
  641SOL     OW10890   2.793   6.252   3.174  0.3569 -0.2297 -0.7817
  641SOL    HW110891   2.876   6.204   3.177  0.8138  0.5839  1.1014
  641SOL    HW210892   2.726   6.185   3.185  0.9711 -0.5447  1.4808
  642SOL     OW10893  11.450   2.296  11.576  0.8062 -0.4648  0.3195
  642SOL    HW110894  11.526   2.353  11.567 -1.1358  2.1637 -0.3231
  642SOL    HW210895  11.439   2.285  11.671  0.3925  1.4605  0.5247
  643SOL     OW10896   9.578   5.770   9.993 -0.0744 -0.4659  0.8304
  643SOL    HW110897   9.651   5.710  10.010  0.8658  0.9492  2.0129
  643SOL    HW210898   9.618   5.846   9.951 -1.1904 -0.4876 -0.3271
  644SOL     OW10899   3.204   2.870   0.709  0.0421  1.0681 -0.0232
  644SOL    HW110900   3.256   2.894   0.632 -2.4276 -0.0703 -2.2068
  644SOL    HW210901   3.265   2.822   0.765  1.7154  1.1868 -1.6466
  645SOL     OW10902   0.905  12.384  10.150  0.2996  0.0036  0.7423
  645SOL    HW110903   0.901  12.480  10.155  1.5660  0.0077  3.1886
  645SOL    HW210904   0.918  12.365  10.057 -0.0718  2.1879  0.1945
  646SOL     OW10905  10.402   8.711  11.810 -0.0865  0.0331  0.5475
  646SOL    HW110906  10.385   8.618  11.800 -0.5459  0.0799  0.8278
  646SOL    HW210907  10.343   8.753  11.747 -0.1776  0.1484  0.7068
  647SOL     OW10908  10.461   1.852   4.017 -0.3841  0.3501 -0.0467
  647SOL    HW110909  10.501   1.935   4.044  0.4986 -0.4813  1.3339
  647SOL    HW210910  10.451   1.803   4.098  0.0173 -1.2862 -0.9532
  648SOL     OW10911   5.705   9.605   0.008  0.6844  0.0429 -0.0499
  648SOL    HW110912   5.678   9.518  -0.022 -0.1192  0.1412  0.3840
  648SOL    HW210913   5.779   9.589   0.065  1.4741 -0.2413 -1.1150
  649SOL     OW10914   7.713   9.766   7.066 -0.1049  0.3806 -0.2084
  649SOL    HW110915   7.637   9.741   7.014 -0.7023 -1.0405  1.2426
  649SOL    HW210916   7.747   9.845   7.024 -3.0827  1.7708 -0.1960
  650SOL     OW10917   1.855   8.277   3.894 -0.1641  0.1154  0.0948
  650SOL    HW110918   1.807   8.286   3.977  1.8685  0.8379  1.2744
  650SOL    HW210919   1.939   8.320   3.911 -0.4168  2.0956 -3.0335
  651SOL     OW10920   0.029   7.057   9.173 -0.0072 -0.1581  0.2594
  651SOL    HW110921   0.037   6.962   9.167  0.6827 -0.1344  0.7019
  651SOL    HW210922  -0.012   7.073   9.258 -1.8495 -0.1269 -0.5935
  652SOL     OW10923   2.380   2.407   6.108  0.2238  0.3285 -0.7295
  652SOL    HW110924   2.319   2.375   6.041  0.7424 -0.8934 -0.6313
  652SOL    HW210925   2.463   2.365   6.087  0.3317 -0.3145  0.8606
  653SOL     OW10926   9.956  11.316   4.083 -0.3908 -1.0432 -0.6047
  653SOL    HW110927  10.001  11.304   3.999  0.7858  1.3849 -0.4199
  653SOL    HW210928   9.872  11.355   4.060 -0.9994 -2.4290 -0.7637
  654SOL     OW10929   3.790   3.659   3.044 -0.2905 -0.4386  0.7471
  654SOL    HW110930   3.812   3.740   3.090  2.2487 -1.0632  0.7575
  654SOL    HW210931   3.783   3.686   2.952  1.6750 -0.3170  0.5840
  655SOL     OW10932  10.070   9.438   5.126  0.7127  0.9623  0.1517
  655SOL    HW110933  10.134   9.439   5.055 -1.2561  3.3284 -1.7855
  655SOL    HW210934  10.002   9.377   5.097 -0.4134  2.4167 -0.4048
  656SOL     OW10935   0.981   9.919  10.973 -0.2512  0.5853  0.1729
  656SOL    HW110936   1.049   9.863  11.010  0.1238  0.4607 -0.6724
  656SOL    HW210937   0.936   9.956  11.049 -0.9366 -1.3573  0.7698
  657SOL     OW10938  12.467   4.733  10.889  0.0181 -0.0972 -0.2860
  657SOL    HW110939  12.512   4.663  10.935 -1.2851 -0.4975  0.4229
  657SOL    HW210940  12.538   4.789  10.857  1.0072 -0.3895  1.2521
  658SOL     OW10941  10.943   7.698   8.246  0.5764  0.1111  0.2727
  658SOL    HW110942  10.954   7.772   8.307  1.2426 -0.6823  1.1594
  658SOL    HW210943  11.001   7.631   8.281  0.4701 -0.6044 -0.8958
  659SOL     OW10944  12.117   1.196  10.467 -0.0238  0.2883  0.1582
  659SOL    HW110945  12.117   1.288  10.496  0.9834  0.3577 -0.0279
  659SOL    HW210946  12.074   1.198  10.382 -2.0272  0.2458  1.1047
  660SOL     OW10947   6.056   4.371   6.907  0.5521 -0.3790  0.2397
  660SOL    HW110948   6.044   4.447   6.964 -1.6079 -0.2781 -0.2775
  660SOL    HW210949   6.113   4.313   6.957  0.8393  0.8266  1.3750
  661SOL     OW10950  10.567  11.242  10.003  0.1932  0.7271 -0.2635
  661SOL    HW110951  10.588  11.174   9.939  0.9448  0.1005  0.6128
  661SOL    HW210952  10.510  11.199  10.066  0.6250  0.9257  0.2663
  662SOL     OW10953   9.767   0.986   0.431 -0.1802 -0.2134  0.4295
  662SOL    HW110954   9.672   0.993   0.430 -0.2036  0.7147  2.7197
  662SOL    HW210955   9.791   0.990   0.524  2.2186  1.7445 -0.1630
  663SOL     OW10956  11.840   1.999   2.414 -0.0308 -0.3715 -0.3477
  663SOL    HW110957  11.822   2.054   2.490  1.0017 -0.1333 -0.2552
  663SOL    HW210958  11.883   2.058   2.352  2.0758 -1.2469  0.1679
  664SOL     OW10959  11.996   3.692   4.918 -0.6632 -1.2393 -0.3338
  664SOL    HW110960  12.071   3.695   4.858  0.0458 -0.9498  0.5538
  664SOL    HW210961  11.967   3.783   4.926 -2.1905 -1.5162 -1.9651
  665SOL     OW10962   6.439   9.764   4.160  0.0331 -0.4699  0.0669
  665SOL    HW110963   6.386   9.771   4.080  0.0201 -0.5157  0.0714
  665SOL    HW210964   6.375   9.750   4.230 -0.0100  0.2507  0.1806
  666SOL     OW10965   9.015  10.071   0.402  0.6975 -0.3093 -0.3589
  666SOL    HW110966   9.100  10.113   0.415  0.1606  0.5374  0.5642
  666SOL    HW210967   9.003  10.017   0.481 -0.0689  0.3991  0.0271
  667SOL     OW10968   6.841   2.421   8.668  0.2891  0.7595 -0.5170
  667SOL    HW110969   6.765   2.479   8.676  0.0153  0.2468  0.8432
  667SOL    HW210970   6.837   2.366   8.746  2.3984  1.1431 -0.0774
  668SOL     OW10971  11.975   0.185   8.168 -0.5092  0.1062  0.0969
  668SOL    HW110972  11.936   0.259   8.121 -0.5683  1.1069  1.6416
  668SOL    HW210973  11.914   0.168   8.240  0.3110 -0.3934  0.6944
  669SOL     OW10974   1.641  10.057   4.780  0.1038  0.0886 -0.2194
  669SOL    HW110975   1.572  10.123   4.768  0.3254  1.0395  2.8742
  669SOL    HW210976   1.717  10.108   4.808  0.6843 -1.3315  0.8718
  670SOL     OW10977   9.115  10.108   1.832 -0.2426  0.2628  0.0578
  670SOL    HW110978   9.078  10.183   1.786 -0.9143 -0.1551 -0.0886
  670SOL    HW210979   9.195  10.088   1.783 -0.2528  0.6437 -0.1234
  671SOL     OW10980   3.015   8.622   4.611  0.4485  0.1444 -0.0194
  671SOL    HW110981   2.974   8.657   4.690  1.0120  2.8738 -0.8430
  671SOL    HW210982   3.032   8.530   4.632 -0.7945  0.3977  2.4468
  672SOL     OW10983   2.894   1.148   0.168  0.2320  0.4993  0.0599
  672SOL    HW110984   2.974   1.174   0.214  1.7298  0.2108 -2.2113
  672SOL    HW210985   2.913   1.166   0.075 -1.8218 -0.8641 -0.6910
  673SOL     OW10986   6.146   0.544   5.732  0.0891 -0.3861  0.6589
  673SOL    HW110987   6.200   0.473   5.697  2.6735 -0.2584  3.8909
  673SOL    HW210988   6.175   0.622   5.685 -1.9464 -1.1421 -2.0890
  674SOL     OW10989  10.821   4.402   6.008 -0.7128 -0.6560 -0.2284
  674SOL    HW110990  10.901   4.416   6.059 -0.0393 -0.2492 -1.3544
  674SOL    HW210991  10.850   4.350   5.933 -1.6932 -1.2928 -0.1798
  675SOL     OW10992   4.564  11.959  12.362 -0.1285  0.0963 -0.7031
  675SOL    HW110993   4.577  11.934  12.454 -2.1952 -1.1185 -0.6560
  675SOL    HW210994   4.641  11.926  12.317  0.4093 -0.2801  0.4469
  676SOL     OW10995   5.345   6.977   4.156  0.1358  0.1861  0.3620
  676SOL    HW110996   5.287   6.941   4.223 -1.5625  1.3534 -0.3929
  676SOL    HW210997   5.422   6.920   4.157 -0.7272 -1.0321  1.8748
  677SOL     OW10998  10.840   3.332  11.714 -0.5673 -0.1959  0.4997
  677SOL    HW110999  10.792   3.287  11.784  0.4089 -1.2632  0.5091
  677SOL    HW211000  10.931   3.305  11.725 -0.3646 -0.3171 -1.1056
  678SOL     OW11001   1.520   2.812   0.507 -0.2494  0.0748  0.0609
  678SOL    HW111002   1.480   2.850   0.585 -1.3178  0.0339 -0.4530
  678SOL    HW211003   1.577   2.742   0.541 -0.0252  0.6265  0.8511
  679SOL     OW11004   3.224   6.749  10.196  0.3917  0.9487  0.2242
  679SOL    HW111005   3.232   6.793  10.111 -0.0030  1.4667  0.4492
  679SOL    HW211006   3.172   6.671  10.178  1.0694  0.5769 -0.1719
  680SOL     OW11007   1.224   7.947   4.349  0.4300 -0.4336 -0.2784
  680SOL    HW111008   1.209   7.968   4.257  0.1909 -0.5590 -0.2703
  680SOL    HW211009   1.235   7.852   4.350  0.7622 -0.3933 -0.2212
  681SOL     OW11010   6.082   1.140   3.924 -0.2325 -0.0434  0.1140
  681SOL    HW111011   6.147   1.140   3.854 -0.0344 -1.4312  0.2646
  681SOL    HW211012   6.117   1.201   3.989  2.2167 -2.4214  1.2639
  682SOL     OW11013   8.527   5.911  10.291 -0.3123  0.4940 -0.3574
  682SOL    HW111014   8.498   5.823  10.314 -0.6795  0.8846  0.7764
  682SOL    HW211015   8.554   5.905  10.200  1.0875 -1.1530  0.1118
  683SOL     OW11016   4.028   1.407   0.055 -0.7254  0.2419 -0.0262
  683SOL    HW111017   3.953   1.464   0.065 -0.1093  1.3235 -1.2631
  683SOL    HW211018   4.095   1.461   0.013  0.8139 -0.6300  1.1712
  684SOL     OW11019   6.919   7.016   0.256 -0.0025 -0.2257 -0.0605
  684SOL    HW111020   6.880   7.052   0.176  0.8267  0.6487 -0.0785
  684SOL    HW211021   6.928   7.090   0.315  1.4068 -0.4433  0.0280
  685SOL     OW11022   7.067   7.369   1.934  0.2481  0.7110 -0.2521
  685SOL    HW111023   6.975   7.373   1.908  0.4421 -0.8497 -1.3939
  685SOL    HW211024   7.078   7.280   1.967  0.9946  1.3969  1.4153
  686SOL     OW11025  12.417   5.153   5.709 -0.1323 -0.0132  0.0799
  686SOL    HW111026  12.401   5.182   5.799 -2.4160 -0.8705  0.0089
  686SOL    HW211027  12.444   5.062   5.717  0.8924  0.2601 -0.0691
  687SOL     OW11028   2.635   1.912   2.193  0.1998 -0.4629 -0.3875
  687SOL    HW111029   2.624   1.994   2.242  1.2978 -0.7990  0.4518
  687SOL    HW211030   2.671   1.940   2.109 -0.5710  0.0173 -0.5648
  688SOL     OW11031  11.491   9.081  10.393 -0.2171 -0.5905  0.3685
  688SOL    HW111032  11.497   9.053  10.484  1.3392 -0.4684  0.3320
  688SOL    HW211033  11.576   9.058  10.355 -0.6358 -0.1276 -0.8995
  689SOL     OW11034   1.622   0.521   8.823 -0.0736 -0.1247  0.3554
  689SOL    HW111035   1.714   0.544   8.831 -0.0640  0.2487 -0.6846
  689SOL    HW211036   1.600   0.481   8.907  1.2320 -0.9362  0.3359
  690SOL     OW11037   9.131   7.628   9.299  0.0074 -0.1246 -0.0672
  690SOL    HW111038   9.102   7.707   9.255 -1.0975  1.1392  2.7055
  690SOL    HW211039   9.223   7.644   9.319 -0.6411  1.3101  2.0296
  691SOL     OW11040  11.317   5.153   7.801  0.1476 -0.1192  0.7884
  691SOL    HW111041  11.345   5.062   7.795 -2.3893 -0.9093 -1.6327
  691SOL    HW211042  11.351   5.194   7.721 -0.2328  0.5512  0.9580
  692SOL     OW11043   7.595   9.141   0.025 -0.6597 -0.2671  0.9154
  692SOL    HW111044   7.653   9.081  -0.022 -0.2893 -1.2649  2.5485
  692SOL    HW211045   7.545   9.185  -0.043  1.3516 -0.0600 -0.4873
  693SOL     OW11046   3.803   1.047   6.815  1.1059  0.5017  0.0089
  693SOL    HW111047   3.750   1.071   6.739  0.3943  0.1443  0.3869
  693SOL    HW211048   3.748   1.069   6.890  0.6362 -1.7944  0.3841
  694SOL     OW11049   8.066   4.454  11.625  0.6367  0.2316  0.0140
  694SOL    HW111050   8.127   4.416  11.688  1.5399  0.4646 -0.6918
  694SOL    HW211051   8.057   4.545  11.653  2.5887  0.8863 -1.2707
  695SOL     OW11052   0.436   4.817   0.433  0.9354 -0.1922  0.6312
  695SOL    HW111053   0.397   4.875   0.368  0.2727 -2.1743 -0.8235
  695SOL    HW211054   0.362   4.780   0.481  1.2092 -1.2543  0.2616
  696SOL     OW11055  11.775   6.840   7.753 -0.3675  0.1192 -0.0470
  696SOL    HW111056  11.701   6.897   7.770 -0.5844  0.0647 -0.7632
  696SOL    HW211057  11.766   6.769   7.817 -0.9423  0.1063 -0.1352
  697SOL     OW11058   9.652  12.386   7.870 -0.0760  0.0680 -0.6077
  697SOL    HW111059   9.633  12.479   7.882  0.3163 -0.0007  0.7476
  697SOL    HW211060   9.743  12.383   7.839  0.4783  0.1087  0.9149
  698SOL     OW11061   0.648   7.938  10.912 -0.1868  0.3693  0.0528
  698SOL    HW111062   0.744   7.946  10.918 -0.0868  1.1683 -1.7681
  698SOL    HW211063   0.615   8.001  10.976  0.4169 -1.6586  2.5163
  699SOL     OW11064   5.004   2.510   8.201 -0.1327  0.1792  0.5850
  699SOL    HW111065   5.051   2.572   8.257  2.8624 -0.1153 -1.3629
  699SOL    HW211066   5.010   2.547   8.113 -3.4526 -0.0715  0.1384
  700SOL     OW11067  11.776   9.050   4.819  0.3875 -0.6069  0.2407
  700SOL    HW111068  11.767   8.963   4.860  0.1614 -0.5865  0.2366
  700SOL    HW211069  11.702   9.056   4.759  0.0887 -0.1869  0.6473
  701SOL     OW11070   7.825   3.271   2.848 -0.6794  0.1438 -0.5350
  701SOL    HW111071   7.805   3.224   2.768 -0.1428 -1.3266  0.1644
  701SOL    HW211072   7.920   3.271   2.853 -0.7118 -0.8435  0.6760
  702SOL     OW11073   6.621   2.954   9.167 -0.2763 -0.3036 -0.0778
  702SOL    HW111074   6.659   2.867   9.169  0.4416  0.0093  0.7880
  702SOL    HW211075   6.696   3.013   9.155 -0.9543  0.1112 -2.9058
  703SOL     OW11076   0.012   0.974   0.178  0.2375  0.4097  0.4413
  703SOL    HW111077  -0.052   0.973   0.249 -1.2407 -0.0612 -0.8467
  703SOL    HW211078  -0.026   1.032   0.113  0.2801 -1.1914 -1.0783
  704SOL     OW11079  10.396   8.686   6.462 -0.0210  0.3214  0.2778
  704SOL    HW111080  10.490   8.670   6.454  0.0663  0.7297  0.4790
  704SOL    HW211081  10.389   8.767   6.512 -0.4616  0.7797 -0.4985
  705SOL     OW11082   4.849  11.936  11.765  0.0584 -0.1788  0.0880
  705SOL    HW111083   4.848  12.009  11.826 -0.6318 -0.8895  0.9547
  705SOL    HW211084   4.768  11.945  11.715  0.6730  0.4640 -0.8387
  706SOL     OW11085  10.487   0.038  10.011  0.1161 -0.4479  0.9045
  706SOL    HW111086  10.426   0.112  10.014 -1.0969 -1.3931  0.3864
  706SOL    HW211087  10.528   0.045   9.925  0.5599  0.0360  1.1489
  707SOL     OW11088   7.943   9.477  12.367  0.1401 -0.2236 -0.0439
  707SOL    HW111089   7.982   9.465  12.454  1.4635  0.7970 -0.4607
  707SOL    HW211090   7.963   9.568  12.344 -0.8635 -0.2468 -1.1028
  708SOL     OW11091   7.999  11.852   8.932 -0.3434  0.0481  0.4309
  708SOL    HW111092   7.970  11.917   8.867 -0.9846  0.4530  1.1038
  708SOL    HW211093   7.962  11.770   8.901  1.4226 -0.2692 -1.0622
  709SOL     OW11094  10.193  11.495   1.015 -0.2943  0.5514 -0.2010
  709SOL    HW111095  10.237  11.423   0.968 -0.8480  0.6521 -0.8971
  709SOL    HW211096  10.148  11.544   0.946  1.3376  2.5052  0.0500
  710SOL     OW11097   7.125  10.965   0.302 -0.2471  0.1697  0.2832
  710SOL    HW111098   7.133  11.054   0.269  0.1291  0.2342  0.5426
  710SOL    HW211099   7.082  10.975   0.388  0.8430  0.2176  0.8426
  711SOL     OW11100   9.708   2.959   0.557 -0.6361 -0.4750 -0.2761
  711SOL    HW111101   9.623   2.990   0.525 -1.0421 -0.9502  0.3042
  711SOL    HW211102   9.753   2.927   0.479 -0.3416  1.2088 -0.8318
  712SOL     OW11103   2.962   2.548   7.677 -0.0764 -0.1994 -0.0079
  712SOL    HW111104   3.042   2.495   7.679  1.1517  1.4746 -1.6046
  712SOL    HW211105   2.916   2.519   7.598  0.0647  0.3268 -0.2895
  713SOL     OW11106   6.282   2.859  11.865  0.1057 -0.0393 -0.8269
  713SOL    HW111107   6.328   2.943  11.872 -0.7291  0.4334 -0.8483
  713SOL    HW211108   6.197   2.882  11.828 -1.2778 -0.4727  1.8192
  714SOL     OW11109   2.947   6.249   9.763  0.0629 -0.0013 -0.4970
  714SOL    HW111110   2.979   6.164   9.793  2.2171  1.3211  1.2790
  714SOL    HW211111   3.015   6.280   9.702 -0.9382  0.2872 -1.5113
  715SOL     OW11112   5.708   2.965   8.883  0.3389  0.1658  0.2016
  715SOL    HW111113   5.800   2.966   8.860  0.2410 -1.5605 -0.4769
  715SOL    HW211114   5.665   3.017   8.815  0.7481  0.3983  0.1225
  716SOL     OW11115   6.813   8.518   1.706 -0.8871 -0.2749 -0.3416
  716SOL    HW111116   6.793   8.525   1.613  0.3094 -0.1877 -0.6107
  716SOL    HW211117   6.909   8.515   1.710 -0.7825  2.2045  1.0353
  717SOL     OW11118   0.568   0.361   9.159 -0.4590 -0.1878 -0.1562
  717SOL    HW111119   0.489   0.314   9.131 -0.3958 -0.9674  0.9515
  717SOL    HW211120   0.640   0.304   9.132 -0.3833 -0.7738  1.1965
  718SOL     OW11121  11.770   1.155   6.761  0.0897 -0.4190  0.4795
  718SOL    HW111122  11.767   1.070   6.718 -0.4387  0.0174 -0.3548
  718SOL    HW211123  11.678   1.180   6.772  0.2427  0.8312 -0.8702
  719SOL     OW11124   7.959   5.391   8.931  0.7115 -0.5793  0.2873
  719SOL    HW111125   8.001   5.311   8.962 -1.6767 -1.6100  1.0047
  719SOL    HW211126   7.920   5.367   8.847 -1.0185 -0.5494  1.0506
  720SOL     OW11127   8.035   9.690   9.772  0.0861  0.3313  0.1132
  720SOL    HW111128   8.087   9.612   9.751 -1.6185 -0.9822  0.5571
  720SOL    HW211129   8.094   9.745   9.823  1.7858  0.0112 -1.4040
  721SOL     OW11130   1.844   1.292   6.284  0.1295 -0.0731  0.6305
  721SOL    HW111131   1.896   1.302   6.204 -0.7232  0.5695  0.1422
  721SOL    HW211132   1.776   1.229   6.262  0.3719 -0.4991  1.0980
  722SOL     OW11133   4.156   7.744   1.338  0.0478 -0.7572 -0.0725
  722SOL    HW111134   4.167   7.672   1.400  1.1117 -1.7541 -1.3466
  722SOL    HW211135   4.062   7.745   1.319 -0.1218 -1.1563  0.7145
  723SOL     OW11136   3.616   7.941   9.174 -0.2430  0.3656 -0.3481
  723SOL    HW111137   3.599   7.928   9.267  2.0331  2.2666  0.4537
  723SOL    HW211138   3.540   7.989   9.142 -0.5655  0.6697  0.8299
  724SOL     OW11139  10.349   0.428   3.644  0.1699  0.6121  0.1878
  724SOL    HW111140  10.424   0.412   3.587 -0.8056  2.4496 -1.7979
  724SOL    HW211141  10.367   0.513   3.685 -0.4486  0.6813  0.3328
  725SOL     OW11142   6.131   6.373  10.419 -0.3184 -0.6386  0.0264
  725SOL    HW111143   6.116   6.285  10.454  2.0423 -1.8551 -1.7250
  725SOL    HW211144   6.200   6.410  10.474  1.8355 -1.7016 -1.8069
  726SOL     OW11145   7.115   6.600   0.656 -0.4590 -0.2619 -0.0561
  726SOL    HW111146   7.187   6.571   0.713 -0.5854 -0.9655 -0.2444
  726SOL    HW211147   7.124   6.695   0.652 -0.4538 -0.1948  1.1566
  727SOL     OW11148   9.321   9.409  11.945 -0.1708  0.1737 -0.3476
  727SOL    HW111149   9.234   9.423  11.909  0.4941 -0.9823 -2.6236
  727SOL    HW211150   9.314   9.326  11.992  0.0405 -0.8142 -1.9780
  728SOL     OW11151   4.691   7.954   1.524 -0.2495 -0.1897  0.0914
  728SOL    HW111152   4.738   8.022   1.572 -0.5385  0.8740 -1.0994
  728SOL    HW211153   4.735   7.873   1.549  0.8134  0.5487  0.6888
  729SOL     OW11154   6.743   8.941   2.051 -0.3706 -0.0810 -0.6152
  729SOL    HW111155   6.753   9.021   2.101 -0.0820  1.1678 -2.5470
  729SOL    HW211156   6.832   8.918   2.024 -0.4640 -1.0057 -0.1749
  730SOL     OW11157  11.733   6.944  11.479 -0.1134  0.1771  0.4303
  730SOL    HW111158  11.798   7.011  11.459 -0.5009  0.7708  1.1021
  730SOL    HW211159  11.772   6.893  11.550 -0.2236  0.3057  0.5848
  731SOL     OW11160   3.549   0.870   0.703 -0.2871  0.3533 -0.0582
  731SOL    HW111161   3.509   0.946   0.659 -1.9271  0.0495  0.8535
  731SOL    HW211162   3.522   0.878   0.794 -0.5657 -1.3794  0.0328
  732SOL     OW11163   2.617   0.226   1.586  0.7064 -0.1275  0.7308
  732SOL    HW111164   2.526   0.202   1.568  0.5377  1.9028 -1.5929
  732SOL    HW211165   2.667   0.148   1.563 -0.2930 -0.5776 -0.0003
  733SOL     OW11166   5.414   1.710  10.833 -0.2346  0.5476  0.0980
  733SOL    HW111167   5.330   1.719  10.788 -1.4067 -0.9205  1.8355
  733SOL    HW211168   5.399   1.751  10.918  1.2809  1.5038 -0.0761
  734SOL     OW11169  11.292   3.207   5.018  0.2219  0.3274  0.4756
  734SOL    HW111170  11.327   3.248   4.938 -0.4243  0.7389  0.3939
  734SOL    HW211171  11.286   3.280   5.080  0.8332 -0.0162  0.9395
  735SOL     OW11172   0.951   9.007   9.110 -0.4630 -0.6747  0.1951
  735SOL    HW111173   1.036   8.993   9.152 -1.1801  0.4015  2.1778
  735SOL    HW211174   0.948   9.101   9.092 -1.2285 -0.6930  0.1962
  736SOL     OW11175  11.734   8.429   5.127 -0.5217  0.0375 -0.4838
  736SOL    HW111176  11.718   8.373   5.051 -2.4486 -1.1268  0.6878
  736SOL    HW211177  11.652   8.476   5.140  0.0761  0.8883  0.3518
  737SOL     OW11178   3.649   0.414   1.621  0.6005  0.6467  0.5237
  737SOL    HW111179   3.651   0.499   1.577 -0.0655  0.6969  0.5776
  737SOL    HW211180   3.592   0.428   1.697 -1.6360 -0.4751 -0.8427
  738SOL     OW11181   0.358   6.966   7.516 -0.1830  0.0163  0.0270
  738SOL    HW111182   0.264   6.961   7.536 -0.1491  0.2903  0.2612
  738SOL    HW211183   0.362   6.985   7.423 -0.3472 -1.2321 -0.2568
  739SOL     OW11184  10.656   0.516   9.150 -0.6321 -0.3044  0.1841
  739SOL    HW111185  10.689   0.550   9.067 -1.0958  0.9767  0.4960
  739SOL    HW211186  10.734   0.499   9.202 -0.3843  0.0410 -0.0720
  740SOL     OW11187   6.637   2.156   8.187 -0.3259 -0.0689 -0.5847
  740SOL    HW111188   6.592   2.238   8.168 -0.1514 -0.1245 -1.2611
  740SOL    HW211189   6.648   2.156   8.283 -2.9527 -0.6982 -0.2223
  741SOL     OW11190   7.777   3.001   9.199  0.3744 -0.7810  0.4902
  741SOL    HW111191   7.751   3.065   9.266 -2.2172 -1.4129  0.1640
  741SOL    HW211192   7.840   2.944   9.244  0.8901  0.5212  1.4885
  742SOL     OW11193   4.246   4.946  10.421  0.2172  0.0710  0.0274
  742SOL    HW111194   4.167   4.911  10.462 -0.9936  1.8013 -0.6837
  742SOL    HW211195   4.296   4.984  10.494  1.4180 -2.6478  0.7669
  743SOL     OW11196   7.330   2.476   2.614 -0.3416  0.1518  0.7329
  743SOL    HW111197   7.352   2.500   2.704  0.0490  0.2329  0.6162
  743SOL    HW211198   7.257   2.533   2.591 -1.4154 -0.8412  1.4906
  744SOL     OW11199   7.913  11.680   7.544 -0.0805  0.0640 -0.2315
  744SOL    HW111200   7.896  11.744   7.613 -1.7905 -0.3579 -0.2175
  744SOL    HW211201   8.007  11.686   7.528 -0.0986  2.0920  0.2322
  745SOL     OW11202   7.065   0.111  10.813  0.0968 -0.5893  0.6758
  745SOL    HW111203   6.982   0.154  10.831  0.2579  0.8102 -1.5844
  745SOL    HW211204   7.125   0.182  10.792  1.9019 -1.5728  2.1367
  746SOL     OW11205  11.192  12.203   1.871  0.1795 -0.0936 -0.1812
  746SOL    HW111206  11.128  12.248   1.927 -0.1822 -0.6413 -0.1485
  746SOL    HW211207  11.203  12.261   1.796  1.4319  1.1523  0.8939
  747SOL     OW11208   4.000   5.250   2.163  0.3075 -0.2002  0.7061
  747SOL    HW111209   3.931   5.286   2.219  0.1070  0.3235  0.1482
  747SOL    HW211210   3.953   5.197   2.099  0.5834 -1.2661  1.3647
  748SOL     OW11211   6.407   2.311   6.828 -0.3475  0.2613 -0.0009
  748SOL    HW111212   6.476   2.351   6.880  2.1978  0.3909 -3.1519
  748SOL    HW211213   6.357   2.385   6.793  2.0310  0.7318 -2.7949
  749SOL     OW11214  11.016   1.911   1.811 -0.3015 -0.1560 -0.1969
  749SOL    HW111215  10.972   1.854   1.875 -0.9100 -0.5273 -0.9341
  749SOL    HW211216  10.995   2.000   1.841  1.2110 -0.2681  1.3487
  750SOL     OW11217   2.640   5.703   7.203 -0.1382  0.4742  0.2080
  750SOL    HW111218   2.664   5.729   7.114 -0.7476  0.6678  0.0937
  750SOL    HW211219   2.544   5.695   7.201 -0.0148 -1.5406  0.3022
  751SOL     OW11220   5.543  12.498   9.040 -0.7872 -0.4537  0.4814
  751SOL    HW111221   5.479  12.448   8.989  0.8827 -0.1511 -2.0731
  751SOL    HW211222   5.532  12.589   9.010 -0.0408 -0.1975  0.9579
  752SOL     OW11223   2.229  11.618   4.729  0.1590  0.7421  0.2755
  752SOL    HW111224   2.251  11.540   4.780 -0.6818  1.4313  1.7569
  752SOL    HW211225   2.296  11.682   4.753  1.2203  0.3542 -1.4081
  753SOL     OW11226   7.434   0.842   5.196 -0.4544 -0.3199  0.1903
  753SOL    HW111227   7.455   0.825   5.104  0.0438 -3.1206  0.7131
  753SOL    HW211228   7.495   0.786   5.245 -0.2306  1.6185  2.2833
  754SOL     OW11229   2.630   7.129   4.534  0.2437  0.5942 -0.3704
  754SOL    HW111230   2.557   7.163   4.483 -0.9709  0.4465  1.1970
  754SOL    HW211231   2.589   7.084   4.608  1.9094 -0.2396  0.0978
  755SOL     OW11232   4.143   2.765   3.265  0.5120 -0.5268 -0.2556
  755SOL    HW111233   4.161   2.849   3.308 -1.1865 -0.5275  0.5356
  755SOL    HW211234   4.145   2.701   3.336 -0.8420 -0.7528 -0.4057
  756SOL     OW11235   1.013  10.063  11.471 -0.6397 -0.1739 -0.7961
  756SOL    HW111236   1.027  10.148  11.514 -1.0151 -0.3360 -0.3431
  756SOL    HW211237   1.002  10.001  11.543 -0.3488 -0.6114 -1.1252
  757SOL     OW11238  11.342   3.942   6.373 -0.5416  0.1453 -0.2708
  757SOL    HW111239  11.286   3.918   6.300  0.6200 -1.5710 -0.6458
  757SOL    HW211240  11.397   4.013   6.339 -1.4656  0.8372 -0.3535
  758SOL     OW11241   1.048   7.951   5.279  0.3697 -0.0940  0.2404
  758SOL    HW111242   1.084   8.039   5.269  0.8835 -0.4685 -1.5616
  758SOL    HW211243   1.117   7.901   5.321  0.1308  0.3041  1.1367
  759SOL     OW11244   2.571  11.389   5.205 -0.1310  0.1411 -0.0268
  759SOL    HW111245   2.520  11.439   5.140 -2.0952 -1.3632  0.2513
  759SOL    HW211246   2.654  11.436   5.212  0.3514  0.1819 -3.8932
  760SOL     OW11247   7.672   1.788   0.922  0.5193  0.2019 -0.0168
  760SOL    HW111248   7.620   1.763   0.998  0.6761  1.1710  0.4286
  760SOL    HW211249   7.610   1.826   0.861  0.1816 -1.7807 -0.9592
  761SOL     OW11250   3.611  11.366   9.622  0.1984 -0.0703 -0.2805
  761SOL    HW111251   3.657  11.434   9.670  1.0941  0.6560 -2.0574
  761SOL    HW211252   3.668  11.290   9.627 -0.2127 -0.3361  0.6474
  762SOL     OW11253   8.211   8.406   3.543 -0.1706  0.1493 -0.6248
  762SOL    HW111254   8.221   8.335   3.607  0.5533 -0.0601 -0.9634
  762SOL    HW211255   8.223   8.363   3.458 -0.9945  0.4509 -0.9029
  763SOL     OW11256   7.627   8.504  11.694 -0.3853  0.3297  0.0261
  763SOL    HW111257   7.624   8.429  11.754 -1.0343 -0.4381 -0.9312
  763SOL    HW211258   7.716   8.539  11.704  0.9347 -2.2756 -1.4935
  764SOL     OW11259   0.151   0.469   4.496  0.1977  0.0790 -0.4814
  764SOL    HW111260   0.079   0.530   4.514 -0.4276 -0.7842  0.0378
  764SOL    HW211261   0.150   0.458   4.401 -0.8327 -0.4566 -0.4277
  765SOL     OW11262   0.862  10.661   5.017 -0.1336  0.3822  0.4060
  765SOL    HW111263   0.777  10.636   5.053  0.5529 -2.8215  0.0825
  765SOL    HW211264   0.861  10.629   4.927  1.4286  0.1842  0.4260
  766SOL     OW11265   0.855   5.001   7.700 -0.0820 -0.1797  0.0447
  766SOL    HW111266   0.944   4.976   7.675 -0.3228  0.0464 -1.0741
  766SOL    HW211267   0.798   4.948   7.645 -0.6151  0.8590 -0.4368
  767SOL     OW11268  11.055  10.610  10.870 -0.3059  0.4159  0.0092
  767SOL    HW111269  11.144  10.645  10.875  0.4957 -1.6475  2.3193
  767SOL    HW211270  11.007  10.659  10.937  0.1686 -1.0393  1.4790
  768SOL     OW11271   3.308   2.818   1.047  0.1194  0.2944  0.4889
  768SOL    HW111272   3.258   2.899   1.043 -0.5698 -0.1055  0.8364
  768SOL    HW211273   3.399   2.845   1.036 -0.0585  1.1650  1.1161
  769SOL     OW11274   7.019  12.015   7.240  0.5543 -0.3097  0.6264
  769SOL    HW111275   7.114  12.017   7.225  0.5982  1.4400  0.8955
  769SOL    HW211276   7.008  12.051   7.328 -0.4917  2.7305 -0.5946
  770SOL     OW11277   8.860   6.792  10.535 -0.3674 -0.1809 -0.0724
  770SOL    HW111278   8.774   6.784  10.577 -1.5686  0.5311 -2.2412
  770SOL    HW211279   8.896   6.703  10.536 -0.0419 -0.1005  2.9023
  771SOL     OW11280  10.722  12.098   1.811  0.0936 -0.7814  0.1338
  771SOL    HW111281  10.793  12.037   1.791  0.7348  0.0283 -0.1204
  771SOL    HW211282  10.678  12.059   1.886  0.1003 -1.8690 -0.4131
  772SOL     OW11283   2.796   1.141   9.538  0.1641  0.1332  0.2572
  772SOL    HW111284   2.725   1.154   9.601  1.4143  1.0990  1.5144
  772SOL    HW211285   2.756   1.160   9.453 -1.2365  0.0415  0.8721
  773SOL     OW11286   6.885   0.122   3.741 -0.2765 -0.7442  0.2979
  773SOL    HW111287   6.853   0.156   3.658 -0.9807 -0.8995  0.4986
  773SOL    HW211288   6.963   0.174   3.760  0.5806 -1.4804 -1.0284
  774SOL     OW11289   1.712   8.480   6.633  0.1745 -1.0736  0.1797
  774SOL    HW111290   1.675   8.452   6.549  1.8663  0.1047 -1.0376
  774SOL    HW211291   1.698   8.575   6.634 -0.1845 -1.1305  1.4335
  775SOL     OW11292   8.670   5.206   1.610  0.1305  0.1011  0.6920
  775SOL    HW111293   8.722   5.233   1.534 -0.3158  0.9820  0.6904
  775SOL    HW211294   8.692   5.268   1.679 -0.8773  0.4685  0.7031
  776SOL     OW11295   5.713   9.381   0.886 -0.1539 -0.3354 -0.3429
  776SOL    HW111296   5.675   9.434   0.955  1.1005 -0.1987  0.2732
  776SOL    HW211297   5.686   9.425   0.805 -1.2587 -0.2422  0.0574
  777SOL     OW11298   0.438   9.493   4.575 -0.2463  0.2515  0.2495
  777SOL    HW111299   0.443   9.556   4.503 -0.6924 -1.1619 -1.0797
  777SOL    HW211300   0.527   9.459   4.584 -0.0859  0.7911  0.7063
  778SOL     OW11301  12.398   8.809   6.576  0.4519  0.5954  0.0471
  778SOL    HW111302  12.324   8.761   6.539  0.1941  1.8016 -1.1081
  778SOL    HW211303  12.471   8.787   6.518  1.5128 -1.9352  2.1477
  779SOL     OW11304   0.534   8.472   1.679  0.2949  0.5430  0.0732
  779SOL    HW111305   0.551   8.422   1.759 -0.3061  0.3622  0.0936
  779SOL    HW211306   0.474   8.541   1.706 -2.0711 -1.0752 -0.6902
  780SOL     OW11307   9.860  11.236   8.988  0.0973  0.0078  0.1431
  780SOL    HW111308   9.811  11.316   8.971 -1.4576 -0.7665  0.6824
  780SOL    HW211309   9.951  11.260   8.976 -0.3667  1.6938 -0.3082
  781SOL     OW11310   4.283  11.885  10.538 -0.3194  0.2880  0.2617
  781SOL    HW111311   4.358  11.937  10.565 -0.5404  1.5279 -1.3196
  781SOL    HW211312   4.212  11.914  10.594 -0.4010  1.6377 -0.4884
  782SOL     OW11313   4.675   0.660  10.561 -0.0571 -0.4657 -0.3869
  782SOL    HW111314   4.604   0.700  10.511 -0.1934  0.7364  0.7139
  782SOL    HW211315   4.658   0.686  10.651  1.1140 -1.1782  0.0573
  783SOL     OW11316   9.146   1.617   8.908  0.5134 -0.1953 -0.1008
  783SOL    HW111317   9.090   1.621   8.831 -0.6581 -2.2704  0.5436
  783SOL    HW211318   9.232   1.595   8.875  0.4061  0.5897 -0.9273
  784SOL     OW11319  11.528   1.246   6.878 -0.3046  0.3010  0.1762
  784SOL    HW111320  11.452   1.241   6.937 -1.2962 -0.8160 -1.1307
  784SOL    HW211321  11.510   1.323   6.823 -0.9447 -0.4406 -0.6850
  785SOL     OW11322   3.261   7.812  11.864 -0.6254  0.0303  0.3855
  785SOL    HW111323   3.317   7.853  11.931 -0.0350  1.2520 -0.8119
  785SOL    HW211324   3.193   7.877  11.847  0.0872  0.3835 -1.2547
  786SOL     OW11325   4.080   6.428   5.534  0.3689  0.0911 -0.0617
  786SOL    HW111326   4.164   6.383   5.548  0.0814 -0.9374 -1.4279
  786SOL    HW211327   4.104   6.512   5.496  0.7694 -0.6997 -1.6350
  787SOL     OW11328  10.703   4.454   7.180 -0.2072  0.3856 -0.3740
  787SOL    HW111329  10.662   4.414   7.257  0.1846 -1.4586 -1.0877
  787SOL    HW211330  10.637   4.449   7.112  0.4879 -0.8084 -0.9875
  788SOL     OW11331   4.792   0.748   0.670 -0.3281  0.1860 -0.1883
  788SOL    HW111332   4.864   0.686   0.662  1.1455  1.7190  0.4839
  788SOL    HW211333   4.782   0.761   0.765  1.0373  2.6827 -0.2871
  789SOL     OW11334   7.423   6.275   4.001 -0.6231 -0.3745 -0.1855
  789SOL    HW111335   7.394   6.184   3.999 -0.9667 -0.2680 -0.1096
  789SOL    HW211336   7.512   6.273   3.964 -1.0574 -0.5868 -1.2569
  790SOL     OW11337  12.335  12.568   4.102 -0.3371 -0.3004 -0.0497
  790SOL    HW111338  12.359  12.586   4.011  0.1413  1.7209  0.4422
  790SOL    HW211339  12.252  12.519   4.096 -0.1242 -0.5221 -1.5564
  791SOL     OW11340   9.647   3.736   3.374 -0.0945 -0.0023  0.2538
  791SOL    HW111341   9.599   3.727   3.291 -0.7396  1.5883  0.4207
  791SOL    HW211342   9.739   3.743   3.347 -0.2746  0.2470 -0.3223
  792SOL     OW11343   1.417  11.865   7.436  0.4075  0.2005 -0.1383
  792SOL    HW111344   1.441  11.863   7.528  0.5526  0.0550 -0.1788
  792SOL    HW211345   1.385  11.954   7.421 -1.6258 -0.3381  0.5658
  793SOL     OW11346   6.824   8.257   2.058  0.0901 -0.4783  0.4628
  793SOL    HW111347   6.742   8.230   2.017 -0.5019  0.5905  0.8921
  793SOL    HW211348   6.808   8.248   2.152  0.1403  0.5693  0.5871
  794SOL     OW11349   3.659  12.456   2.056 -0.7635 -0.2217 -0.0638
  794SOL    HW111350   3.753  12.471   2.044 -0.7729 -0.3547 -0.3108
  794SOL    HW211351   3.631  12.526   2.115 -0.4389 -0.4022  0.3046
  795SOL     OW11352   8.179   7.713   1.220  0.1694  0.5244 -0.5130
  795SOL    HW111353   8.137   7.657   1.285  1.4813  0.2631  0.1565
  795SOL    HW211354   8.152   7.802   1.244 -0.6276  0.3054 -0.5862
  796SOL     OW11355   2.920   6.556   4.198  0.6276 -0.2912 -0.3292
  796SOL    HW111356   2.897   6.510   4.280 -0.0890  1.2892  0.3979
  796SOL    HW211357   2.861   6.517   4.133 -0.6963  0.2690  0.4899
  797SOL     OW11358   2.887   1.668  11.004  0.4458  0.2568  0.0872
  797SOL    HW111359   2.981   1.663  11.023  0.5765 -2.7000 -0.8260
  797SOL    HW211360   2.850   1.591  11.047 -0.8995 -0.7123 -2.5807
  798SOL     OW11361  11.102   7.851  10.803  0.5497  0.3690 -0.2969
  798SOL    HW111362  11.015   7.835  10.768 -0.5216  1.2016  1.7866
  798SOL    HW211363  11.098   7.940  10.838  0.3933 -1.2284  4.5391
  799SOL     OW11364  11.649  12.400   2.507 -0.1738  0.2254  0.0703
  799SOL    HW111365  11.569  12.363   2.545  0.0248 -1.0001 -0.6645
  799SOL    HW211366  11.696  12.325   2.471  1.1660  0.9688  0.2009
  800SOL     OW11367   2.946   9.329   0.212 -0.0782  0.1622  0.0429
  800SOL    HW111368   2.935   9.373   0.296 -2.0453  0.8411 -0.5014
  800SOL    HW211369   3.031   9.358   0.180  0.3086  0.5751  1.3964
  801SOL     OW11370   1.188   3.788   3.905 -0.4398  0.0230 -0.2973
  801SOL    HW111371   1.209   3.841   3.828  1.0265  0.6363  0.4956
  801SOL    HW211372   1.213   3.699   3.879 -1.6984 -0.1189 -1.1604
  802SOL     OW11373   1.348   1.758   5.296 -0.6224  0.0159 -0.2428
  802SOL    HW111374   1.381   1.809   5.222  1.2375 -0.7632 -0.0189
  802SOL    HW211375   1.410   1.775   5.367  0.4335 -2.8670 -0.3055
  803SOL     OW11376   7.554   9.657   4.657  0.5611  0.3960  0.3624
  803SOL    HW111377   7.649   9.653   4.656  0.5465 -2.1230  1.6991
  803SOL    HW211378   7.534   9.735   4.709  1.7851  2.3314 -1.8713
  804SOL     OW11379   6.625  11.991   6.649  0.4389  0.4113  0.1360
  804SOL    HW111380   6.635  11.903   6.686  0.2322  0.3441  0.0361
  804SOL    HW211381   6.631  11.977   6.554 -1.7779  0.1822 -0.0263
  805SOL     OW11382   3.998   2.797   7.960 -0.1185  0.6574  0.5757
  805SOL    HW111383   3.963   2.731   7.900  0.9752 -0.9496  1.6155
  805SOL    HW211384   3.923   2.854   7.980 -0.9128  0.1748 -0.9249
  806SOL     OW11385   7.157   3.010   4.500  0.2077 -0.2462  0.2361
  806SOL    HW111386   7.231   3.054   4.542 -0.2631  0.1993  0.6177
  806SOL    HW211387   7.160   2.921   4.535  2.6175 -1.3233 -2.3690
  807SOL     OW11388   6.609  11.894   5.393  0.0685  1.6576  0.2011
  807SOL    HW111389   6.615  11.908   5.487  0.7933  0.4965  0.3514
  807SOL    HW211390   6.651  11.809   5.379 -0.7644  1.4309 -1.0677
  808SOL     OW11391   3.873   1.338   6.085 -0.2521 -0.3907  0.2154
  808SOL    HW111392   3.846   1.375   6.169  2.4753 -0.2306  1.1204
  808SOL    HW211393   3.905   1.250   6.106  0.3736 -0.3900 -0.6638
  809SOL     OW11394   4.253   7.581   8.149 -0.4329  0.0107  0.0819
  809SOL    HW111395   4.266   7.578   8.244 -0.5778  2.8949  0.2962
  809SOL    HW211396   4.197   7.506   8.129 -0.2487 -0.7533  2.2235
  810SOL     OW11397  10.969   0.750   0.324 -0.5834  0.7239  0.4320
  810SOL    HW111398  10.920   0.777   0.401 -1.3698  2.6392 -0.6477
  810SOL    HW211399  10.914   0.685   0.281  0.1802 -0.8782  1.7977
  811SOL     OW11400   8.062   5.949   2.655 -0.5732 -0.2499 -0.4336
  811SOL    HW111401   8.035   5.857   2.659 -2.5393  0.2589 -0.7530
  811SOL    HW211402   8.035   5.986   2.739 -1.7419  0.4729 -1.0899
  812SOL     OW11403  10.080  12.230   6.667 -0.3294  0.1360  0.3722
  812SOL    HW111404  10.119  12.300   6.719  0.1166 -0.3161  0.6454
  812SOL    HW211405  10.152  12.196   6.614  0.1184 -1.9173  2.1722
  813SOL     OW11406   1.636   9.359  10.023 -0.6070 -0.3026 -0.0346
  813SOL    HW111407   1.610   9.451  10.032  0.5719 -0.0155  0.7451
  813SOL    HW211408   1.718   9.363   9.975 -1.4051 -1.1036 -1.5254
  814SOL     OW11409   4.419   8.405   1.699  0.1301  0.0749  0.5896
  814SOL    HW111410   4.429   8.311   1.716 -0.5533 -0.4095 -1.3976
  814SOL    HW211411   4.509   8.436   1.685  0.2405 -0.6684 -0.4464
  815SOL     OW11412   1.870   1.631   1.878  0.6367  0.9871  0.3580
  815SOL    HW111413   1.851   1.723   1.897 -1.9124  0.4663  0.6998
  815SOL    HW211414   1.803   1.606   1.814  1.5236 -0.5308 -0.0082
  816SOL     OW11415   1.413   8.178   7.658 -0.0440 -0.3281  0.0603
  816SOL    HW111416   1.328   8.144   7.688 -0.3260 -0.7447 -1.1461
  816SOL    HW211417   1.410   8.272   7.679 -1.0343 -0.2280 -0.4776
  817SOL     OW11418  11.163  10.433   7.712  0.3214 -0.1002 -0.2060
  817SOL    HW111419  11.242  10.483   7.730 -0.4079  0.7932  0.6358
  817SOL    HW211420  11.099  10.498   7.683 -0.2863 -0.7247 -0.3174
  818SOL     OW11421   1.775   2.208   6.616  0.2682  0.4173  0.4305
  818SOL    HW111422   1.797   2.124   6.657  0.5755 -0.6536 -1.7558
  818SOL    HW211423   1.693   2.191   6.569  0.1068  1.4693  0.3055
  819SOL     OW11424   4.502   8.878   2.255  0.4816 -0.0242  0.3875
  819SOL    HW111425   4.589   8.893   2.219  1.6241 -1.0000  2.5549
  819SOL    HW211426   4.452   8.840   2.183  2.5392 -1.5843 -0.2822
  820SOL     OW11427   7.870  10.693   1.990 -0.3831  0.0628  0.6470
  820SOL    HW111428   7.864  10.695   1.894  1.9034 -1.9350  0.3680
  820SOL    HW211429   7.921  10.770   2.013  1.5157 -0.9165 -0.0751
  821SOL     OW11430   1.182  11.720   3.808  0.2783 -0.4969  0.1000
  821SOL    HW111431   1.195  11.661   3.883  1.3972  0.5502  0.7585
  821SOL    HW211432   1.243  11.688   3.742 -0.3341 -1.0997 -0.1872
  822SOL     OW11433  12.522  10.495  11.372  1.0342 -0.0561  0.4984
  822SOL    HW111434  12.566  10.414  11.395  0.9156 -0.1175  0.5099
  822SOL    HW211435  12.432  10.469  11.352  1.7824 -0.4426 -2.9149
  823SOL     OW11436   3.761   3.040   9.623  0.5411  0.9166  0.4026
  823SOL    HW111437   3.712   2.969   9.665 -0.6206  1.5356  0.1561
  823SOL    HW211438   3.751   3.023   9.529 -0.2544  1.7077  0.3277
  824SOL     OW11439   2.560   4.652   4.165 -0.2789 -0.0877 -0.0840
  824SOL    HW111440   2.652   4.665   4.143  0.3436 -2.5666  0.7722
  824SOL    HW211441   2.545   4.711   4.239  0.6957  0.1503 -0.0657
  825SOL     OW11442   7.420  11.675  11.984 -0.1784 -0.8701  0.3149
  825SOL    HW111443   7.420  11.710  11.895  0.7091  0.5908  0.8464
  825SOL    HW211444   7.329  11.686  12.014 -0.7247 -2.3037 -0.7140
  826SOL     OW11445   1.609   8.309   4.408  0.5562  0.1087  0.8301
  826SOL    HW111446   1.582   8.399   4.391  2.0032  0.4175 -0.0279
  826SOL    HW211447   1.528   8.260   4.421 -0.3371  1.1476 -0.6616
  827SOL     OW11448  11.785   9.668  12.238 -0.0282  0.1151 -0.2227
  827SOL    HW111449  11.758   9.759  12.229  0.7388  0.2591 -1.2894
  827SOL    HW211450  11.879   9.669  12.220 -0.2229 -1.0488 -1.4828
  828SOL     OW11451   1.600   2.111   2.552 -0.0369 -0.0890 -0.0777
  828SOL    HW111452   1.540   2.183   2.533  1.4080  1.2361  0.1601
  828SOL    HW211453   1.544   2.034   2.556 -1.5895  0.9476 -0.7337
  829SOL     OW11454   7.784   3.558   4.785 -0.2252  0.1301  0.0052
  829SOL    HW111455   7.732   3.638   4.779 -0.9889 -0.2104  1.6041
  829SOL    HW211456   7.813   3.555   4.876  3.1027  0.5668 -0.9013
  830SOL     OW11457   9.131   0.712   0.196 -0.1068 -0.6182 -0.4705
  830SOL    HW111458   9.120   0.624   0.232 -0.2019 -0.1799  0.5874
  830SOL    HW211459   9.226   0.720   0.183 -0.1285 -1.0016 -0.9229
  831SOL     OW11460   7.116   3.890   5.799 -0.0637 -0.2019  0.1458
  831SOL    HW111461   7.092   3.857   5.712 -0.0071 -0.1838  0.1230
  831SOL    HW211462   7.208   3.914   5.791 -0.1149 -0.0054  0.1525
  832SOL     OW11463  10.279   2.328   8.873  0.1513  0.0502 -0.3971
  832SOL    HW111464  10.209   2.358   8.931  1.0207  0.9849  0.2129
  832SOL    HW211465  10.238   2.320   8.787 -0.7885  0.2049  0.0330
  833SOL     OW11466  11.210   4.882   6.915 -0.7654  0.3647 -0.0507
  833SOL    HW111467  11.278   4.902   6.979 -0.6811  0.0016 -0.0245
  833SOL    HW211468  11.255   4.884   6.830 -0.4550 -1.0236  0.0578
  834SOL     OW11469   6.180   5.012   3.433 -0.6074 -0.9058  0.1844
  834SOL    HW111470   6.230   4.937   3.398  0.9037 -0.2225  0.8041
  834SOL    HW211471   6.212   5.022   3.523 -2.0463 -0.5616  0.6795
  835SOL     OW11472  11.597   7.990  11.159 -0.7589 -0.0062 -0.3269
  835SOL    HW111473  11.650   7.933  11.104 -0.8757  0.3496 -0.8192
  835SOL    HW211474  11.644   7.995  11.242  0.1455  0.5643 -0.8624
  836SOL     OW11475  11.881   2.279   5.680  0.3204  0.0476 -0.2026
  836SOL    HW111476  11.851   2.190   5.696 -0.4415  0.2725 -0.3349
  836SOL    HW211477  11.966   2.268   5.636  1.1632 -0.5851  1.5025
  837SOL     OW11478  11.221  11.305   0.709  0.2725 -0.3237  0.1200
  837SOL    HW111479  11.254  11.317   0.620 -4.0774  1.1662 -1.5546
  837SOL    HW211480  11.233  11.212   0.727  1.6840 -0.5707 -1.7911
  838SOL     OW11481   7.609   5.827   4.920  0.3947  0.0838 -0.5723
  838SOL    HW111482   7.684   5.882   4.901 -0.9711  2.2796 -0.0628
  838SOL    HW211483   7.542   5.854   4.857 -0.8567  0.2391  0.7487
  839SOL     OW11484   8.674  10.833   9.936  0.2934 -0.1387  0.3467
  839SOL    HW111485   8.692  10.907   9.878 -0.8280  0.4995  0.7824
  839SOL    HW211486   8.581  10.840   9.956  0.9152  0.7501  3.6523
  840SOL     OW11487   5.744   1.698   0.624  0.9827 -0.8964  0.3639
  840SOL    HW111488   5.821   1.642   0.628  0.2123 -2.0862 -0.6935
  840SOL    HW211489   5.672   1.642   0.654 -0.1230 -1.1574 -2.5057
  841SOL     OW11490  11.248   8.778   0.501  0.6188  0.0051  0.4800
  841SOL    HW111491  11.315   8.846   0.511  1.0295 -0.3125 -0.0743
  841SOL    HW211492  11.246   8.734   0.586  1.5032 -0.3334  0.3332
  842SOL     OW11493   0.387  11.207   7.131  0.1034  0.3970 -0.0512
  842SOL    HW111494   0.311  11.239   7.179  0.8596  3.1801 -0.5628
  842SOL    HW211495   0.389  11.113   7.150 -3.0208  0.3315  0.5148
  843SOL     OW11496   1.270   7.394   5.338  0.1333  0.7134  0.5500
  843SOL    HW111497   1.212   7.470   5.337 -0.3619  0.3355 -0.2524
  843SOL    HW211498   1.323   7.406   5.417 -0.5651  1.4124  0.9282
  844SOL     OW11499   8.484   9.371   4.184  0.4835  0.5357 -0.1704
  844SOL    HW111500   8.419   9.435   4.210 -0.2543  1.2411 -3.3277
  844SOL    HW211501   8.564   9.422   4.170  1.1797  0.0037  1.6092
  845SOL     OW11502   4.013   9.430   8.494  0.5090  0.1221 -0.2225
  845SOL    HW111503   4.064   9.458   8.570  1.4322 -0.2503 -0.6881
  845SOL    HW211504   3.987   9.512   8.451 -0.1541  0.3395  0.5621
  846SOL     OW11505   0.110  11.104   0.098 -0.2350 -0.0911 -0.1473
  846SOL    HW111506   0.182  11.046   0.072 -0.5857 -0.5822 -0.0416
  846SOL    HW211507   0.033  11.067   0.055 -0.9832 -1.4079  2.1632
  847SOL     OW11508   1.200   7.697   7.422 -0.1582 -0.0032 -0.3858
  847SOL    HW111509   1.143   7.633   7.379 -1.4452  0.5631  0.4180
  847SOL    HW211510   1.143   7.772   7.439  0.2200 -0.2738  2.4871
  848SOL     OW11511   0.362   6.323   5.580 -0.1220  0.1793  0.1761
  848SOL    HW111512   0.457   6.325   5.593 -0.1237 -3.2189  1.4940
  848SOL    HW211513   0.331   6.404   5.620  2.1380  1.1516  0.1192
  849SOL     OW11514   3.204   7.220   1.260  0.1275 -0.1387 -0.4768
  849SOL    HW111515   3.132   7.282   1.274 -0.4443 -0.8067 -0.4177
  849SOL    HW211516   3.266   7.240   1.330 -0.8132 -0.7174  0.5591
  850SOL     OW11517   8.104   0.552   2.339  0.4495  0.6211  0.3268
  850SOL    HW111518   8.072   0.506   2.417  0.1269 -0.0455 -0.1859
  850SOL    HW211519   8.028   0.560   2.282  1.2965 -1.8970 -1.3503
  851SOL     OW11520   7.280   7.806   9.476 -0.7791 -0.0274 -0.5398
  851SOL    HW111521   7.194   7.771   9.452 -0.7639 -1.5330  1.3120
  851SOL    HW211522   7.260   7.887   9.523 -1.3739 -1.2080  1.3623
  852SOL     OW11523  11.938   7.467  12.469  0.7427 -0.5788  0.0771
  852SOL    HW111524  12.013   7.459  12.411  0.5475 -1.6461 -0.0673
  852SOL    HW211525  11.904   7.377  12.475 -0.6487 -0.0866 -0.0581
  853SOL     OW11526   9.991   4.770   7.457 -1.1592 -0.0969  0.0099
  853SOL    HW111527   9.962   4.858   7.435 -0.5924 -0.1980 -1.2482
  853SOL    HW211528   9.912   4.725   7.486 -1.3848  0.9219  1.0257
  854SOL     OW11529   3.342   3.667   4.756 -0.6899 -0.0001 -0.5123
  854SOL    HW111530   3.360   3.678   4.850  0.9817 -0.5076 -0.7326
  854SOL    HW211531   3.301   3.750   4.730 -0.4274  0.4755  0.5113
  855SOL     OW11532  10.804   1.785  10.654  0.2942 -0.1449 -0.2837
  855SOL    HW111533  10.737   1.716  10.650  1.8714 -1.7267 -1.2671
  855SOL    HW211534  10.802   1.815  10.744 -0.4909 -1.4932  0.1803
  856SOL     OW11535   6.832   8.092   8.653  0.2775 -0.0354 -0.7662
  856SOL    HW111536   6.772   8.147   8.602 -3.6305 -1.3390  1.9303
  856SOL    HW211537   6.838   8.011   8.602 -1.3879 -0.3587 -0.5040
  857SOL     OW11538   0.081   5.022   8.181  0.1284  0.1158 -0.0447
  857SOL    HW111539   0.173   5.038   8.160  0.4277 -0.9453  0.3681
  857SOL    HW211540   0.078   4.929   8.204 -1.5315 -0.5531 -2.6051
  858SOL     OW11541  11.695   4.914   7.281  0.5750 -0.6290 -0.1282
  858SOL    HW111542  11.753   4.945   7.211 -0.4575 -0.5413 -0.9682
  858SOL    HW211543  11.637   4.851   7.237 -0.5299 -0.0704  0.4998
  859SOL     OW11544   6.794   5.371   0.387 -0.3747 -0.1101  0.3118
  859SOL    HW111545   6.884   5.380   0.419 -0.7605 -0.3438  1.4856
  859SOL    HW211546   6.804   5.333   0.300  0.6059 -1.4672  0.9819
  860SOL     OW11547   8.663   2.279   2.907 -0.0286 -0.1356  0.2045
  860SOL    HW111548   8.614   2.360   2.911  0.0755 -0.0927  0.6802
  860SOL    HW211549   8.647   2.237   2.992  0.9140 -0.0190  0.4584
  861SOL     OW11550   1.341   0.986   2.639 -0.3115 -0.1348  0.9008
  861SOL    HW111551   1.394   1.066   2.637 -2.3099  1.2670  0.4302
  861SOL    HW211552   1.380   0.933   2.708  0.8941  1.3907  1.4612
  862SOL     OW11553  11.248   9.897  12.584  0.0637  0.3750 -0.1882
  862SOL    HW111554  11.277   9.988  12.589 -0.8704  0.6213  1.6956
  862SOL    HW211555  11.155   9.902  12.566 -0.1541 -0.1622  0.6948
  863SOL     OW11556  10.625   4.427  11.220  0.5832  0.6910  0.5964
  863SOL    HW111557  10.589   4.412  11.307 -0.7047 -0.2061 -0.0688
  863SOL    HW211558  10.588   4.357  11.166  0.6861  1.7177 -0.8592
  864SOL     OW11559  11.946   0.048   1.823  0.3778 -0.0151  0.7260
  864SOL    HW111560  11.933  -0.038   1.784  2.5304 -0.0606 -0.0421
  864SOL    HW211561  11.860   0.090   1.819 -0.4052 -1.6214 -0.1154
  865SOL     OW11562   7.689   8.233   1.094 -0.0102 -0.4795 -0.5212
  865SOL    HW111563   7.686   8.141   1.066  0.3185 -0.9534  0.9470
  865SOL    HW211564   7.732   8.231   1.179  0.1439  1.0672 -0.5443
  866SOL     OW11565  11.540   9.838   7.728 -0.2790  0.1360  0.0025
  866SOL    HW111566  11.475   9.857   7.661 -0.2861 -0.2762 -0.1109
  866SOL    HW211567  11.515   9.892   7.803 -0.6335  0.1259 -0.1119
  867SOL     OW11568  11.002   4.275  10.657 -0.1559 -0.1381 -0.2241
  867SOL    HW111569  11.027   4.218  10.730 -1.9457 -0.2134  0.3731
  867SOL    HW211570  10.988   4.361  10.698 -0.7773 -0.0889 -0.5317
  868SOL     OW11571   0.751   0.864   5.682  0.5022 -0.4193  0.2735
  868SOL    HW111572   0.841   0.876   5.654  0.0763  0.5280 -0.7689
  868SOL    HW211573   0.721   0.951   5.707  0.1882 -0.8949  1.6239
  869SOL     OW11574   6.230  11.175  10.983 -0.2842  0.8197  0.0088
  869SOL    HW111575   6.158  11.115  11.006  0.3318 -0.5612 -1.4856
  869SOL    HW211576   6.307  11.137  11.025  0.0968  0.6003 -0.8744
  870SOL     OW11577   4.820   9.397   2.804 -0.8466 -0.6834  0.0324
  870SOL    HW111578   4.735   9.354   2.807 -1.7948  1.0588 -0.5280
  870SOL    HW211579   4.843   9.414   2.895 -1.4932 -0.4570  0.1536
  871SOL     OW11580  11.931   7.760  11.949 -0.2646 -0.0354 -0.3263
  871SOL    HW111581  11.907   7.690  12.009  1.0466 -0.6535 -0.4743
  871SOL    HW211582  11.858   7.821  11.953 -0.7854 -0.6925  0.9056
  872SOL     OW11583   7.566   7.800  12.352 -0.3362 -0.4313 -0.1743
  872SOL    HW111584   7.600   7.872  12.299  0.6263 -1.0390 -0.4006
  872SOL    HW211585   7.636   7.735  12.352 -1.5144 -1.7468 -0.7087
  873SOL     OW11586  12.122   4.233   7.455  0.0146 -0.1096  0.4006
  873SOL    HW111587  12.125   4.228   7.360 -0.1743  1.9902  0.2272
  873SOL    HW211588  12.207   4.268   7.480 -0.4800  0.8195  0.8493
  874SOL     OW11589   8.694  12.350  10.629  0.4601 -0.0208  0.2084
  874SOL    HW111590   8.616  12.339  10.574  0.5514  1.2714 -0.2063
  874SOL    HW211591   8.659  12.359  10.718  0.1184  0.5690  0.0203
  875SOL     OW11592   6.957  10.557   6.696  0.4464 -0.1977  0.1754
  875SOL    HW111593   7.017  10.551   6.622  0.0643  0.1456 -0.1660
  875SOL    HW211594   6.998  10.619   6.756  1.0366 -0.9090  0.5237
  876SOL     OW11595   7.946   0.501  10.951  0.2860 -0.0422 -0.0621
  876SOL    HW111596   7.867   0.513  10.900 -0.6486 -1.8392  0.8458
  876SOL    HW211597   8.014   0.546  10.902 -1.5011  2.7687 -0.1623
  877SOL     OW11598   4.650   7.267  10.605  0.3403  0.0362  0.7174
  877SOL    HW111599   4.617   7.315  10.528 -1.1957 -0.3545  1.0973
  877SOL    HW211600   4.739   7.241  10.581 -0.5765 -1.3049 -1.5132
  878SOL     OW11601  11.369   4.103  11.933  0.6859 -0.5965  0.1404
  878SOL    HW111602  11.279   4.134  11.928  1.3256  1.4725  0.5188
  878SOL    HW211603  11.390   4.104  12.027  0.9985 -1.4130  0.0869
  879SOL     OW11604  10.104   2.724  12.121 -0.3673  0.0557 -0.2560
  879SOL    HW111605  10.185   2.763  12.086 -0.1360  0.7294  0.9508
  879SOL    HW211606  10.064   2.680  12.047  0.2603  1.1574 -1.2772
  880SOL     OW11607  10.289   5.076  11.617 -0.6797  0.4423  0.0722
  880SOL    HW111608  10.204   5.092  11.659 -0.6788  1.5390 -0.2993
  880SOL    HW211609  10.283   4.987  11.583 -1.9625  0.7328 -0.5500
  881SOL     OW11610  12.083  11.126   7.586  0.3235 -0.0844 -0.1852
  881SOL    HW111611  12.146  11.169   7.644  1.6893  0.0861 -1.7045
  881SOL    HW211612  12.099  11.166   7.500 -2.7708  0.9122 -0.4322
  882SOL     OW11613   1.155   5.897   2.641  0.3440 -0.2827 -0.2608
  882SOL    HW111614   1.163   5.833   2.712  1.1988  0.3828  0.2667
  882SOL    HW211615   1.222   5.872   2.578 -1.7579 -2.1666 -1.9652
  883SOL     OW11616   5.758   0.284   7.329 -0.5139 -0.5852  0.1929
  883SOL    HW111617   5.832   0.223   7.329 -0.1687 -0.1771  0.9706
  883SOL    HW211618   5.767   0.332   7.246 -1.1623 -2.0048 -0.7453
  884SOL     OW11619   0.353   5.043  12.014  0.0600  0.2278  0.0920
  884SOL    HW111620   0.412   5.088  12.075  0.0232  0.8222 -0.3095
  884SOL    HW211621   0.285   5.006  12.070  1.2319 -1.1729  0.6627
  885SOL     OW11622  11.666  12.175   0.367 -0.2342 -0.0165  0.2618
  885SOL    HW111623  11.744  12.231   0.369 -0.8521  0.8723 -0.0991
  885SOL    HW211624  11.659  12.147   0.276 -2.7674  3.4864 -0.8564
  886SOL     OW11625   9.170   5.293   9.591  0.4064  0.3106  0.1799
  886SOL    HW111626   9.170   5.276   9.497 -0.2202  2.0815 -0.1768
  886SOL    HW211627   9.263   5.291   9.615  0.5427 -0.5752 -0.3836
  887SOL     OW11628   1.382   2.914   4.645 -0.0533 -0.4600  0.2425
  887SOL    HW111629   1.375   2.830   4.599 -0.2222 -0.2161 -0.1867
  887SOL    HW211630   1.405   2.977   4.576  1.8757 -0.4367  0.8522
  888SOL     OW11631   1.590   5.562   1.015 -0.7175  0.4355  0.0159
  888SOL    HW111632   1.680   5.547   0.986 -1.0280  0.5578 -1.0353
  888SOL    HW211633   1.599   5.598   1.103  0.2495  0.1024  0.0628
  889SOL     OW11634  12.481  12.587   8.432 -0.5799  0.0978  0.2810
  889SOL    HW111635  12.421  12.620   8.499 -0.6612 -1.1941  0.8760
  889SOL    HW211636  12.445  12.621   8.349 -1.2849  0.5564  0.7628
  890SOL     OW11637   7.967   2.145   7.535 -0.4592 -0.0667  0.4539
  890SOL    HW111638   8.012   2.223   7.565  0.1134 -0.4960  0.7258
  890SOL    HW211639   8.015   2.118   7.457 -2.1176  1.2126 -1.0880
  891SOL     OW11640  10.647   8.909   1.874 -0.5366 -0.2151  0.2603
  891SOL    HW111641  10.712   8.890   1.942  0.6468  1.1816 -0.4250
  891SOL    HW211642  10.563   8.911   1.920  0.0380 -0.8240  1.3844
  892SOL     OW11643   0.805   2.553   7.509 -0.3172 -0.0421  0.7673
  892SOL    HW111644   0.855   2.521   7.434 -2.9882  0.8435 -1.5852
  892SOL    HW211645   0.869   2.604   7.560  1.5620 -0.3739 -1.0867
  893SOL     OW11646   3.608   3.139   1.598 -0.3433 -0.6138 -0.5439
  893SOL    HW111647   3.526   3.143   1.646 -0.0623  0.8656 -0.1413
  893SOL    HW211648   3.642   3.051   1.616 -1.6504 -1.1159 -0.4382
  894SOL     OW11649  10.893   8.941  11.080 -0.6943 -0.0602 -0.2014
  894SOL    HW111650  10.897   8.853  11.118  0.2168  0.4874  1.0615
  894SOL    HW211651  10.982   8.957  11.047 -0.3204  1.0535  1.2421
  895SOL     OW11652   3.675  11.921   7.323 -0.0323 -0.3259  0.0846
  895SOL    HW111653   3.754  11.867   7.329  0.8744  0.9775  0.3994
  895SOL    HW211654   3.651  11.938   7.414  0.6544  1.0993  0.0344
  896SOL     OW11655   1.314  12.368   9.349 -0.1156 -0.6872 -0.3528
  896SOL    HW111656   1.350  12.310   9.415 -1.1797 -1.4431 -0.4076
  896SOL    HW211657   1.333  12.325   9.265 -0.1648 -0.5413 -0.4400
  897SOL     OW11658   1.947   9.022   2.982 -0.2298  0.5957 -0.0203
  897SOL    HW111659   1.902   9.076   2.917 -2.5995 -2.0625 -0.8260
  897SOL    HW211660   1.891   8.944   2.991  3.9814 -2.9069 -0.7464
  898SOL     OW11661   4.267   6.525   1.364 -0.2744 -0.0337  0.7931
  898SOL    HW111662   4.355   6.562   1.365 -0.8257  1.8544 -2.6088
  898SOL    HW211663   4.210   6.598   1.390 -1.0863  0.5230 -2.1203
  899SOL     OW11664   6.497   7.656  10.433 -0.1468 -0.1700  0.6761
  899SOL    HW111665   6.502   7.668  10.338 -1.4415  1.4660  0.7566
  899SOL    HW211666   6.573   7.702  10.468  0.8770 -1.6092  0.4127
  900SOL     OW11667   3.093   1.550  12.352 -0.4053 -0.6432  0.0341
  900SOL    HW111668   3.053   1.548  12.265  0.4939 -2.3356 -0.3853
  900SOL    HW211669   3.019   1.559  12.412 -1.0827  0.0164 -0.8718
  901SOL     OW11670  10.416   1.587   6.088  0.1717 -0.5995 -0.0965
  901SOL    HW111671  10.470   1.556   6.160  0.4559  0.8047  0.3292
  901SOL    HW211672  10.365   1.658   6.126  1.8297  1.5969 -1.7498
  902SOL     OW11673   9.596  11.137   9.272  0.3010 -0.4397 -0.1749
  902SOL    HW111674   9.628  11.071   9.210  0.7245 -1.9285  1.5230
  902SOL    HW211675   9.509  11.161   9.239 -0.1053 -2.2812 -0.5664
  903SOL     OW11676  12.018  12.275  10.493 -0.2926  0.0220 -0.0646
  903SOL    HW111677  11.947  12.336  10.516 -0.2619 -0.3569  1.0687
  903SOL    HW211678  12.010  12.265  10.398 -1.4999  0.3035 -0.0122
  904SOL     OW11679  11.093   5.908   1.904 -0.6003 -0.2897  0.1841
  904SOL    HW111680  11.004   5.887   1.933 -0.6222 -1.3209 -0.5473
  904SOL    HW211681  11.083   5.929   1.811 -0.4877  2.6301  0.7542
  905SOL     OW11682   2.542   4.100   5.703 -0.1889 -0.0200 -0.1788
  905SOL    HW111683   2.535   4.191   5.732  1.0902  0.2194 -0.5623
  905SOL    HW211684   2.497   4.049   5.771 -1.1948  0.9134 -0.1207
  906SOL     OW11685   3.998   7.447   1.092  1.3371 -0.0519 -0.3609
  906SOL    HW111686   4.056   7.498   1.036  1.5199 -0.5328 -0.6126
  906SOL    HW211687   4.046   7.437   1.175  2.1219 -1.4208 -0.9488
  907SOL     OW11688   2.291   1.933   8.321  0.3020  0.2206  0.6277
  907SOL    HW111689   2.301   1.987   8.399  1.8174  0.1990  0.4866
  907SOL    HW211690   2.272   1.845   8.354  0.9937  0.1991  0.9781
  908SOL     OW11691   3.035   0.215   9.266 -0.5380  0.0785 -0.2610
  908SOL    HW111692   2.958   0.267   9.290 -0.9777 -0.3557 -0.7149
  908SOL    HW211693   3.050   0.159   9.342 -0.0147  0.9106  0.2620
  909SOL     OW11694   4.830   4.031  11.313 -0.5465 -0.4491  0.2454
  909SOL    HW111695   4.751   3.986  11.342 -1.5607  1.4758  0.6957
  909SOL    HW211696   4.797   4.106  11.262  1.0143 -0.0595 -0.2266
  910SOL     OW11697  11.806   2.381   9.501 -0.0465  0.2984 -0.2054
  910SOL    HW111698  11.883   2.351   9.454 -0.7698  0.2696 -1.4268
  910SOL    HW211699  11.840   2.427   9.577  1.2211  1.3823 -1.3764
  911SOL     OW11700   6.939  10.183  10.394 -0.2545 -0.2659  0.0863
  911SOL    HW111701   6.867  10.174  10.456 -0.1972 -0.3547  0.1389
  911SOL    HW211702   7.007  10.231  10.442  0.0242 -0.8515  0.2844
  912SOL     OW11703   1.695   9.353   1.107 -0.3062  0.3167  0.1549
  912SOL    HW111704   1.704   9.412   1.182 -1.6391 -0.2156  0.7541
  912SOL    HW211705   1.735   9.401   1.034  2.0159  0.4175  1.3803
  913SOL     OW11706   7.150   3.775   9.375 -0.0563 -0.3136  0.4850
  913SOL    HW111707   7.099   3.767   9.295 -0.5614 -0.8370  0.8554
  913SOL    HW211708   7.116   3.853   9.418 -1.5837 -1.4433  1.4433
  914SOL     OW11709   5.290   1.392  11.714 -0.2453  0.1502 -0.2322
  914SOL    HW111710   5.342   1.371  11.792 -0.0514  0.5388 -0.2554
  914SOL    HW211711   5.201   1.369  11.738 -0.4089  1.5300  0.5951
  915SOL     OW11712   5.484  12.111   8.864 -0.6025 -0.2385  0.4469
  915SOL    HW111713   5.402  12.125   8.910 -1.2108 -2.1203  0.0276
  915SOL    HW211714   5.459  12.102   8.772 -0.0153 -1.3583  0.3773
  916SOL     OW11715   8.986   8.759  12.378 -0.7318  0.0055 -0.1201
  916SOL    HW111716   8.969   8.694  12.310 -3.2114 -2.2175  2.3412
  916SOL    HW211717   9.080   8.753  12.394 -1.0061 -4.3337  1.0296
  917SOL     OW11718   8.683  10.386   6.422  0.6603  0.3171 -0.3013
  917SOL    HW111719   8.638  10.380   6.338  1.4696 -0.4611 -0.6972
  917SOL    HW211720   8.665  10.475   6.452 -0.3120  0.3456 -0.9041
  918SOL     OW11721   0.993   5.025   1.829  0.0067  0.9613 -0.0582
  918SOL    HW111722   0.953   4.984   1.906  1.1700 -0.7839 -0.3322
  918SOL    HW211723   1.072   5.069   1.863 -0.0200  1.0468 -0.1056
  919SOL     OW11724   6.915  10.824   8.962  0.0173  0.8690  0.5309
  919SOL    HW111725   6.979  10.766   9.003  0.0822  0.6389  0.1168
  919SOL    HW211726   6.952  10.912   8.971  0.1662  0.7880  0.7096
  920SOL     OW11727   0.538  10.066   1.673 -0.3770  0.2423 -0.6701
  920SOL    HW111728   0.577  10.022   1.748 -1.4023  0.3090 -0.0773
  920SOL    HW211729   0.592  10.040   1.598  0.0599 -0.6284 -0.0628
  921SOL     OW11730   1.333  10.514   9.182  0.2068  0.4573  0.1454
  921SOL    HW111731   1.372  10.545   9.100  1.4668 -1.5017 -0.0724
  921SOL    HW211732   1.404  10.518   9.246  0.6039 -2.1784  0.0007
  922SOL     OW11733  10.370  11.295   2.547 -0.0757  0.4859 -0.2657
  922SOL    HW111734  10.462  11.272   2.538  0.6934  3.0238  0.2998
  922SOL    HW211735  10.338  11.242   2.620  0.9565 -0.3529 -0.4163
  923SOL     OW11736   8.318  10.492  10.649 -0.3674 -0.3753  0.1133
  923SOL    HW111737   8.267  10.488  10.568 -0.1567 -0.1827 -0.0290
  923SOL    HW211738   8.256  10.466  10.717 -1.0794  1.3034  0.1431
  924SOL     OW11739  12.358  11.597   7.135 -0.0176  0.1149 -0.0538
  924SOL    HW111740  12.379  11.512   7.174  1.0219  0.4983  0.2466
  924SOL    HW211741  12.266  11.589   7.109 -0.6517 -0.2882  2.0956
  925SOL     OW11742   7.868  11.453   1.097 -0.0076  0.1968 -0.6274
  925SOL    HW111743   7.844  11.442   1.005  0.0922  0.8614 -0.7390
  925SOL    HW211744   7.809  11.521   1.130  1.0873  1.2237 -0.6803
  926SOL     OW11745   8.856  12.105   8.890 -0.4120  0.3015  0.1042
  926SOL    HW111746   8.940  12.147   8.875 -0.2501 -0.2011 -0.3732
  926SOL    HW211747   8.874  12.011   8.887 -0.9076  0.1915  0.4466
  927SOL     OW11748   5.437  10.295   3.130 -0.0925 -0.0621 -0.2835
  927SOL    HW111749   5.467  10.384   3.113 -0.9215  0.2479 -0.1707
  927SOL    HW211750   5.377  10.276   3.058  0.8999 -0.9350 -0.8967
  928SOL     OW11751  10.511   7.197   2.900  0.0098  0.6284  0.4746
  928SOL    HW111752  10.515   7.113   2.946  1.0872  0.0810 -0.5575
  928SOL    HW211753  10.600   7.209   2.865 -0.6143  1.2776 -0.9698
  929SOL     OW11754   7.450   6.640   0.359  0.2828 -0.0224  0.0027
  929SOL    HW111755   7.484   6.569   0.414 -0.1663  0.2013  0.5752
  929SOL    HW211756   7.526   6.668   0.307  1.1249  0.8080  1.6051
  930SOL     OW11757  10.658   2.546  10.542  0.6432  0.2333 -0.5460
  930SOL    HW111758  10.583   2.488  10.538  0.5066  0.3861 -0.2093
  930SOL    HW211759  10.668   2.579  10.452 -0.4614  1.1881 -0.3494
  931SOL     OW11760   7.237   0.489   4.754  0.0346  0.1289 -0.4403
  931SOL    HW111761   7.285   0.437   4.819 -1.6860 -1.2800 -0.2382
  931SOL    HW211762   7.146   0.460   4.762 -0.5860  1.5009 -1.9868
  932SOL     OW11763   9.426   9.229   2.608 -0.1229 -0.2511 -0.4279
  932SOL    HW111764   9.369   9.158   2.636 -0.9562  0.8925  0.9675
  932SOL    HW211765   9.473   9.254   2.688 -0.4459  1.2578 -0.6680
  933SOL     OW11766   3.216  10.724  12.276  0.5241 -0.3625  0.0791
  933SOL    HW111767   3.233  10.737  12.369  2.5844 -0.0432 -0.2924
  933SOL    HW211768   3.283  10.776  12.232 -0.4487 -0.4643 -1.5982
  934SOL     OW11769   3.178   0.390   1.662 -0.1641 -0.6028  0.1452
  934SOL    HW111770   3.177   0.450   1.737 -0.1677 -0.0048 -0.3272
  934SOL    HW211771   3.138   0.440   1.591  1.5008 -0.5125 -0.7629
  935SOL     OW11772   9.012   2.309   0.648 -0.6931 -0.6189  0.1381
  935SOL    HW111773   9.050   2.243   0.706 -0.5209 -1.7232 -1.1777
  935SOL    HW211774   8.986   2.260   0.569 -0.6442  0.8679 -0.8479
  936SOL     OW11775   8.508   5.535   6.154 -0.2007 -0.1857 -1.1132
  936SOL    HW111776   8.525   5.597   6.225 -1.3689 -1.1109  0.0200
  936SOL    HW211777   8.588   5.483   6.149  0.3892  0.7122 -1.3793
  937SOL     OW11778   8.799  10.724   7.667 -0.1781  0.0619  0.1514
  937SOL    HW111779   8.812  10.719   7.572 -0.5605  0.0924  0.0961
  937SOL    HW211780   8.883  10.697   7.704 -0.0155  0.0874 -0.1972
  938SOL     OW11781   0.595  12.327  11.923 -0.1300 -0.0275  0.2715
  938SOL    HW111782   0.542  12.278  11.986 -2.0449  1.6758  0.0860
  938SOL    HW211783   0.558  12.304  11.838  0.3981  0.0646  0.0137
  939SOL     OW11784   0.115   0.253  11.037  0.4252 -0.1855  0.1492
  939SOL    HW111785   0.203   0.277  11.008 -0.0231  0.4118 -0.7386
  939SOL    HW211786   0.089   0.182  10.980 -0.7271  1.4406 -1.4677
  940SOL     OW11787   3.711   2.361   1.780 -0.4257  0.1090  0.0761
  940SOL    HW111788   3.761   2.285   1.811 -0.0224 -0.7381 -2.4692
  940SOL    HW211789   3.748   2.381   1.695 -1.9731  1.8372 -0.2416
  941SOL     OW11790   7.827  11.400   5.373 -0.7406  0.1374 -0.0787
  941SOL    HW111791   7.760  11.456   5.334 -1.2465 -1.8881 -2.3068
  941SOL    HW211792   7.887  11.381   5.302  1.9760  1.3838  1.7125
  942SOL     OW11793   7.765   0.813   5.788 -0.2121 -0.3561  0.2171
  942SOL    HW111794   7.713   0.755   5.844  0.0887 -0.2414  0.6234
  942SOL    HW211795   7.855   0.781   5.797 -0.0544  0.1147  0.3825
  943SOL     OW11796  10.417   5.130   3.188  0.2685 -0.0413  0.0832
  943SOL    HW111797  10.363   5.107   3.264  0.0094  0.0495 -0.0714
  943SOL    HW211798  10.507   5.131   3.221 -0.0772  3.7766  1.3815
  944SOL     OW11799   4.588   5.387  11.977 -0.2523 -0.1233  0.3389
  944SOL    HW111800   4.538   5.422  11.903 -0.1136 -1.0131 -0.1861
  944SOL    HW211801   4.522   5.349  12.034 -0.5312  1.9288  1.4857
  945SOL     OW11802   7.699   6.042  12.403  0.1694  0.3870 -0.4540
  945SOL    HW111803   7.733   6.085  12.324 -0.1858 -1.1667 -1.5049
  945SOL    HW211804   7.634   6.103  12.438 -0.3614  0.7151 -1.9232
  946SOL     OW11805   3.564   2.173   5.950 -0.0454 -0.5532  0.0387
  946SOL    HW111806   3.530   2.105   6.007 -0.1112 -0.8563 -0.3610
  946SOL    HW211807   3.497   2.241   5.950 -0.3406 -0.8425 -0.1966
  947SOL     OW11808   7.175   4.521   5.321 -0.2191  0.0362  0.1650
  947SOL    HW111809   7.188   4.519   5.416 -0.7687  2.2997  0.3475
  947SOL    HW211810   7.243   4.463   5.286  1.0667  0.4528  1.8417
  948SOL     OW11811   9.121   2.511   2.581  0.2907  0.2358  0.8436
  948SOL    HW111812   9.192   2.447   2.571  0.4001  0.6314 -1.5491
  948SOL    HW211813   9.152   2.588   2.534 -0.8695  1.1787  1.5754
  949SOL     OW11814   8.997   5.592   3.561  0.2114  0.3407 -0.2395
  949SOL    HW111815   8.946   5.567   3.484 -4.0434  0.9764  2.0614
  949SOL    HW211816   9.024   5.509   3.600  0.6492 -0.0314 -1.2829
  950SOL     OW11817   9.494   9.851  11.190 -0.4198 -0.4196 -0.0176
  950SOL    HW111818   9.500   9.828  11.098  0.4083  2.1208 -0.6721
  950SOL    HW211819   9.513   9.769  11.237  0.3335 -1.4924 -2.0943
  951SOL     OW11820   1.402   9.119   9.089  0.6593  0.7133 -0.1188
  951SOL    HW111821   1.442   9.036   9.066  1.0223  0.6046  0.8615
  951SOL    HW211822   1.359   9.148   9.008  0.5399 -0.4052 -0.4755
  952SOL     OW11823   6.490   7.916   0.631 -0.4979 -0.8094  0.1880
  952SOL    HW111824   6.398   7.888   0.627 -0.3304 -1.7583  1.9188
  952SOL    HW211825   6.484   8.011   0.648 -1.1469 -0.7433 -0.3533
  953SOL     OW11826  10.912   6.984   2.512 -0.3529  0.0854 -0.2991
  953SOL    HW111827  10.853   6.951   2.580  0.0860 -0.6385 -0.2580
  953SOL    HW211828  10.914   6.915   2.446 -1.3207  1.0718 -1.4076
  954SOL     OW11829  11.428   6.457   2.706  0.2337 -0.0385 -0.4446
  954SOL    HW111830  11.372   6.534   2.716 -0.7364 -0.8864  1.3405
  954SOL    HW211831  11.470   6.446   2.792 -1.1805 -2.5444  0.0489
  955SOL     OW11832   8.178   0.719   7.930 -0.6896 -0.1228 -0.2493
  955SOL    HW111833   8.101   0.774   7.946 -1.2938 -0.4136 -1.9615
  955SOL    HW211834   8.194   0.675   8.013 -0.9959  1.6220  0.7760
  956SOL     OW11835   9.509   0.183   9.305 -0.1763 -0.2767 -0.0963
  956SOL    HW111836   9.499   0.259   9.247  0.0627 -0.8640 -0.9156
  956SOL    HW211837   9.600   0.156   9.294 -0.3989 -0.9988 -0.2017
  957SOL     OW11838  10.607   6.732  12.587  0.2357  0.6841  0.4341
  957SOL    HW111839  10.541   6.663  12.596 -0.9777  1.6822 -0.4606
  957SOL    HW211840  10.583   6.798  12.653  1.1299  0.4726  0.9892
  958SOL     OW11841   1.241   9.921   3.726  0.1543 -0.7955  0.0142
  958SOL    HW111842   1.186   9.994   3.755 -0.5416 -1.2469 -0.1376
  958SOL    HW211843   1.198   9.844   3.762  0.7096 -1.1592 -0.0938
  959SOL     OW11844   9.661  12.246   5.862 -0.3022 -0.1099 -0.4578
  959SOL    HW111845   9.628  12.242   5.952 -0.7720  2.1934 -0.4627
  959SOL    HW211846   9.583  12.254   5.809 -0.0181 -1.3696 -1.0860
  960SOL     OW11847  11.323   2.498   6.042  0.4993 -0.4044  0.2115
  960SOL    HW111848  11.373   2.428   5.999  0.3596 -0.5543  0.2882
  960SOL    HW211849  11.294   2.459   6.124  1.2425  0.0665  0.7111
  961SOL     OW11850   0.629   8.928   0.032  0.6599  0.2003  0.3244
  961SOL    HW111851   0.667   8.870   0.096  1.6924 -1.3536 -1.5854
  961SOL    HW211852   0.666   9.014   0.052 -0.4550  0.1725  2.8439
  962SOL     OW11853   3.896   8.877   5.532  0.1011  0.1515 -0.1812
  962SOL    HW111854   3.886   8.954   5.588 -0.1682  0.0880 -0.1412
  962SOL    HW211855   3.988   8.853   5.541 -0.3380 -1.0139  1.7485
  963SOL     OW11856   1.936   2.946   5.064 -0.5757 -0.1555  0.1594
  963SOL    HW111857   1.952   3.032   5.102  1.7004  0.4886 -1.9694
  963SOL    HW211858   1.967   2.884   5.130 -0.8363  0.7054  1.1102
  964SOL     OW11859  11.167   5.369   9.245 -0.2128 -0.3256 -0.3696
  964SOL    HW111860  11.221   5.407   9.175  1.5983 -2.2926 -0.1537
  964SOL    HW211861  11.123   5.295   9.204  0.5700 -1.2674  0.4263
  965SOL     OW11862  12.153   0.882   4.733 -0.0465  0.0851 -0.0710
  965SOL    HW111863  12.058   0.878   4.730 -0.0808  1.1127 -0.6621
  965SOL    HW211864  12.181   0.842   4.650 -0.0873  2.4605 -1.3139
  966SOL     OW11865   3.437   6.564   7.164  0.5955  0.3090 -0.3943
  966SOL    HW111866   3.445   6.642   7.218  0.7489 -0.6243  0.9929
  966SOL    HW211867   3.360   6.518   7.199  1.3029 -0.8243 -0.2793
  967SOL     OW11868   6.539   7.898   8.930 -0.2117  0.0753  0.0787
  967SOL    HW111869   6.528   7.943   9.014 -0.0158 -1.0407  0.7137
  967SOL    HW211870   6.474   7.939   8.872  0.5058  1.7253  0.3898
  968SOL     OW11871   1.016   5.145  11.963 -0.0153  0.4607  0.0405
  968SOL    HW111872   1.007   5.118  12.054 -0.0385 -0.0619 -0.1110
  968SOL    HW211873   1.088   5.208  11.963  1.5955 -1.2496  0.1040
  969SOL     OW11874   1.097   7.317  12.063  0.5288  0.3259 -0.6705
  969SOL    HW111875   1.064   7.231  12.092  1.8814 -0.6544 -1.8880
  969SOL    HW211876   1.113   7.365  12.144 -2.9477  0.5599  0.0326
  970SOL     OW11877  11.616   8.807   6.607  0.2811  0.0391  0.2659
  970SOL    HW111878  11.629   8.731   6.665 -0.4176 -0.8598 -0.7299
  970SOL    HW211879  11.522   8.824   6.611 -0.0586 -1.0504 -1.8030
  971SOL     OW11880   9.381   0.962   9.400  0.2284 -0.0409  0.0351
  971SOL    HW111881   9.395   0.886   9.343 -0.7863 -1.4515  1.5470
  971SOL    HW211882   9.288   0.957   9.424  0.4317  0.9713  1.1423
  972SOL     OW11883   7.206   2.167   2.780  0.3370 -0.0261  0.0478
  972SOL    HW111884   7.300   2.182   2.793  0.1529  0.8221  0.4310
  972SOL    HW211885   7.190   2.082   2.822  0.9478 -0.2215 -0.1007
  973SOL     OW11886   5.176   0.576   4.258 -0.4426 -0.0763 -0.2046
  973SOL    HW111887   5.082   0.562   4.271 -0.1135 -2.3819  0.0554
  973SOL    HW211888   5.192   0.552   4.167 -0.0198 -0.1901 -0.1047
  974SOL     OW11889  12.438   2.532   2.893 -0.3472  0.7976  0.5699
  974SOL    HW111890  12.443   2.503   2.802 -0.7623  1.7614  0.2234
  974SOL    HW211891  12.518   2.583   2.906 -0.0042  0.1766  0.9305
  975SOL     OW11892   2.303  11.673   2.471 -0.4304 -0.1235 -0.1038
  975SOL    HW111893   2.372  11.719   2.519 -0.7387 -0.8118  1.0129
  975SOL    HW211894   2.233  11.739   2.461  0.1407  0.4064 -0.7653
  976SOL     OW11895   0.344  10.627  10.958 -1.0253 -0.3541 -0.5668
  976SOL    HW111896   0.378  10.547  10.999 -1.4101 -0.2476 -0.0229
  976SOL    HW211897   0.404  10.644  10.886 -1.2125 -1.4004 -0.9902
  977SOL     OW11898   5.038   2.394  10.729  0.0371  0.3369 -0.6559
  977SOL    HW111899   5.072   2.469  10.680  1.3617 -1.1697 -2.1669
  977SOL    HW211900   5.074   2.404  10.817  0.4572  1.2950 -0.9271
  978SOL     OW11901   5.634  10.575   4.630  0.1874 -0.0082 -0.2915
  978SOL    HW111902   5.691  10.629   4.684  0.1439  1.0207 -1.2421
  978SOL    HW211903   5.665  10.486   4.644  0.3613  0.2577  1.1924
  979SOL     OW11904   7.936   6.886   5.181 -0.2071  0.7789  0.3118
  979SOL    HW111905   7.942   6.791   5.192 -0.9074  0.6780 -0.1206
  979SOL    HW211906   7.965   6.902   5.091 -1.5066  0.8011 -0.1270
  980SOL     OW11907  10.149   3.147  11.320 -0.1097 -0.2838  0.5601
  980SOL    HW111908  10.063   3.187  11.309  0.1442 -0.1157 -1.1352
  980SOL    HW211909  10.211   3.216  11.295  0.4026 -1.0773 -0.4538
  981SOL     OW11910   7.097   6.649   4.715  0.5629  0.1737  0.0901
  981SOL    HW111911   7.057   6.570   4.678  0.4600 -0.1560  0.8816
  981SOL    HW211912   7.178   6.660   4.665 -0.0196  0.2812 -0.8633
  982SOL     OW11913   0.462   9.969  11.373  0.4428  0.3989 -0.0013
  982SOL    HW111914   0.439   9.878  11.387 -0.2436  0.7709  1.5202
  982SOL    HW211915   0.535   9.986  11.432 -0.3450  1.1770  0.7821
  983SOL     OW11916  10.154  11.615   4.469  0.4842 -0.4419 -0.4108
  983SOL    HW111917  10.212  11.555   4.423  0.3038 -0.6372 -0.3851
  983SOL    HW211918  10.123  11.675   4.402  0.4717 -0.5293 -0.4838
  984SOL     OW11919   3.317   5.061   9.310 -0.1106  0.2648 -0.0009
  984SOL    HW111920   3.411   5.078   9.305 -0.2545  0.7956 -1.9775
  984SOL    HW211921   3.280   5.113   9.239 -1.9826  0.5186  1.0951
  985SOL     OW11922  11.486   6.050   2.865  0.1326  0.0272  0.6253
  985SOL    HW111923  11.426   5.985   2.829 -0.8083  1.0532  0.2604
  985SOL    HW211924  11.564   6.000   2.891 -0.3629 -1.1507 -0.0804
  986SOL     OW11925   0.848   9.490  10.007  0.1016  0.1672  0.0051
  986SOL    HW111926   0.928   9.534   9.979  0.4484 -0.3372  0.1805
  986SOL    HW211927   0.817   9.445   9.928  1.0462 -1.2056  0.3805
  987SOL     OW11928  12.466  11.099  12.384  0.2946  1.0787  0.0414
  987SOL    HW111929  12.496  11.186  12.409  0.8939  1.6019 -2.2653
  987SOL    HW211930  12.402  11.114  12.315 -2.1812 -0.2212  1.8996
  988SOL     OW11931   3.898  11.687   5.222  0.4216  0.2827 -0.3298
  988SOL    HW111932   3.833  11.744   5.261  0.9096  2.2224 -2.1482
  988SOL    HW211933   3.912  11.618   5.286  0.5051  2.7160  2.4879
  989SOL     OW11934   1.902   4.167   1.739 -0.0839 -0.4531  0.3290
  989SOL    HW111935   1.912   4.261   1.749 -1.7004 -0.1143 -0.8795
  989SOL    HW211936   1.988   4.137   1.707  1.1104  0.2447  2.6928
  990SOL     OW11937   4.624   9.122  11.368 -0.5212  0.1485 -0.2408
  990SOL    HW111938   4.676   9.118  11.288 -1.1904 -0.0107 -0.6723
  990SOL    HW211939   4.536   9.144  11.338 -0.5274  1.3465  0.5556
  991SOL     OW11940   9.227   8.730  12.101 -0.3385  0.1642 -0.4135
  991SOL    HW111941   9.185   8.766  12.179  0.2225 -0.2458  0.0803
  991SOL    HW211942   9.282   8.658  12.133 -0.3846 -0.2492 -1.2263
  992SOL     OW11943   5.491   2.402   7.343  0.1812  0.3647  0.1238
  992SOL    HW111944   5.503   2.405   7.248 -1.2423 -0.2427 -0.0965
  992SOL    HW211945   5.408   2.355   7.356  0.0615  0.9264  1.6425
  993SOL     OW11946  10.828   6.057   2.554 -0.8974 -0.3675 -0.5174
  993SOL    HW111947  10.774   6.135   2.542  0.2320  0.4860 -0.2670
  993SOL    HW211948  10.899   6.086   2.612 -1.1439 -1.9214  0.6233
  994SOL     OW11949   0.293   6.915  11.350  0.0859 -0.2411  0.1158
  994SOL    HW111950   0.277   6.822  11.333 -0.4010 -0.4741  1.6431
  994SOL    HW211951   0.332   6.916  11.438 -0.5960  1.0500  0.4206
  995SOL     OW11952   0.612   7.906  11.699 -0.1542  0.2468  0.5815
  995SOL    HW111953   0.564   7.904  11.782 -0.7314 -2.3587  0.2668
  995SOL    HW211954   0.549   7.875  11.634  1.2804 -1.1655 -0.2125
  996SOL     OW11955  12.040   8.863   9.175 -0.1615  0.6532  0.0931
  996SOL    HW111956  12.112   8.834   9.120  0.1835 -1.0027  1.3213
  996SOL    HW211957  12.025   8.790   9.235 -1.0937  2.0186  1.6168
  997SOL     OW11958   4.522   6.501   7.637  0.4576 -0.0044  0.0372
  997SOL    HW111959   4.573   6.439   7.688  0.3558 -0.8579 -0.8732
  997SOL    HW211960   4.462   6.447   7.585 -0.2298  0.8974 -0.1399
  998SOL     OW11961   5.923   5.862   1.405 -0.4852  0.1068  0.2344
  998SOL    HW111962   5.897   5.949   1.434  0.3363  0.1644  0.8014
  998SOL    HW211963   5.848   5.806   1.429 -0.8798  0.5956  0.1511
  999SOL     OW11964  12.346   2.765   8.276 -0.1107  0.6763 -0.0427
  999SOL    HW111965  12.418   2.708   8.249 -0.2962  1.3214 -2.0018
  999SOL    HW211966  12.387   2.851   8.289 -0.4354  0.9465 -0.7567
 1000SOL     OW11967  11.841   1.812  10.331  0.0907  0.0873 -0.1144
 1000SOL    HW111968  11.927   1.853  10.326 -1.0117  2.5436 -1.0991
 1000SOL    HW211969  11.793   1.865  10.395 -0.4615 -1.8173  1.1465
 1001SOL     OW11970   7.680   8.414   0.909 -0.1705 -0.1012 -0.3679
 1001SOL    HW111971   7.604   8.393   0.854 -0.9862  1.0736  0.2496
 1001SOL    HW211972   7.686   8.341   0.970 -0.4272 -0.5053 -0.8186
 1002SOL     OW11973   3.738  12.131   2.274 -0.0922 -0.0013 -0.3630
 1002SOL    HW111974   3.714  12.195   2.341 -1.4919 -0.9618  0.0898
 1002SOL    HW211975   3.823  12.161   2.242 -0.8620  2.2766 -0.4219
 1003SOL     OW11976   9.860  12.232   9.316  0.1118 -0.1194  0.2557
 1003SOL    HW111977   9.766  12.248   9.310  0.1532 -0.1802 -0.6155
 1003SOL    HW211978   9.897  12.277   9.240  0.8484  0.3457  0.8697
 1004SOL     OW11979   7.246   0.951  10.585 -0.4182 -0.0616 -0.3398
 1004SOL    HW111980   7.280   0.961  10.674  0.6879  0.7185 -0.8365
 1004SOL    HW211981   7.199   1.033  10.568 -0.4921 -0.1454 -0.5415
 1005SOL     OW11982   0.416  12.508   3.795 -0.1889 -0.0871 -0.1759
 1005SOL    HW111983   0.334  12.536   3.753  1.2397  0.9547 -2.4482
 1005SOL    HW211984   0.415  12.554   3.880 -1.3723  0.9165 -0.6922
 1006SOL     OW11985   1.442  11.121   5.589  0.1866 -0.0530  0.4642
 1006SOL    HW111986   1.398  11.191   5.539 -0.9448 -0.2299  1.1775
 1006SOL    HW211987   1.535  11.135   5.572 -0.0945  0.7639 -0.5458
 1007SOL     OW11988   8.089   8.846   3.613  0.3403 -0.2528  0.3716
 1007SOL    HW111989   8.054   8.757   3.608  0.0168 -0.1420  0.6300
 1007SOL    HW211990   8.016   8.899   3.646 -0.5810  0.7188 -2.8489
 1008SOL     OW11991   7.318   3.683  11.814 -0.0754 -0.6117  0.2968
 1008SOL    HW111992   7.396   3.701  11.762 -0.8083  0.6302 -0.4256
 1008SOL    HW211993   7.337   3.720  11.900 -0.2901  0.8216 -0.2285
 1009SOL     OW11994   3.121   8.540   9.781  0.1831  0.2106  0.4638
 1009SOL    HW111995   3.138   8.447   9.796 -1.7786 -0.0476  1.3548
 1009SOL    HW211996   3.089   8.572   9.866 -1.3425  1.1441 -0.4226
 1010SOL     OW11997   9.668  10.438   3.945  0.2876 -0.4026  0.3086
 1010SOL    HW111998   9.604  10.395   3.887  1.1435  0.3912 -1.2911
 1010SOL    HW211999   9.733  10.475   3.885  0.9537  0.8942  1.7788
 1011SOL     OW12000   0.760   3.794   4.135  0.2092 -0.4613  0.7818
 1011SOL    HW112001   0.689   3.828   4.081  0.6438  0.6261  0.8781
 1011SOL    HW212002   0.717   3.756   4.212 -0.4611 -2.4687 -0.4959
 1012SOL     OW12003   8.016   6.668   1.455  0.8742 -0.7080  0.1297
 1012SOL    HW112004   7.971   6.675   1.539  1.4183  1.7709  0.2823
 1012SOL    HW212005   8.068   6.748   1.449  1.4666 -1.2020 -2.2248
 1013SOL     OW12006   8.732  11.831  12.320 -0.2926 -0.3311 -0.0734
 1013SOL    HW112007   8.823  11.825  12.347  0.1829  0.5023 -1.3998
 1013SOL    HW212008   8.734  11.885  12.241 -1.6677 -2.1247 -1.4139
 1014SOL     OW12009   7.468   8.027   1.149  0.2370 -0.5863  0.1614
 1014SOL    HW112010   7.419   8.007   1.069  1.2478 -0.6376 -0.4643
 1014SOL    HW212011   7.443   8.117   1.171 -0.2838 -0.6838 -0.0299
 1015SOL     OW12012   6.791   9.718   4.683 -0.0137  0.6623  0.0476
 1015SOL    HW112013   6.848   9.787   4.715  0.1173  1.1794 -1.2510
 1015SOL    HW212014   6.780   9.736   4.590 -0.3389 -0.8130 -0.2319
 1016SOL     OW12015  10.809   8.128   8.506  0.7485  0.1549 -0.2129
 1016SOL    HW112016  10.783   8.181   8.430  0.4434 -0.0573 -0.2612
 1016SOL    HW212017  10.870   8.064   8.471 -1.9836 -2.2228 -1.0510
 1017SOL     OW12018   6.376   0.551   7.413  0.4801  0.1269 -0.0942
 1017SOL    HW112019   6.339   0.507   7.490 -0.4622  0.3487 -0.4079
 1017SOL    HW212020   6.383   0.481   7.347  1.5756 -0.1297  0.2782
 1018SOL     OW12021   8.322   4.326   5.366  0.5684 -0.1644  0.1122
 1018SOL    HW112022   8.231   4.351   5.348  0.4313  0.2771  1.3480
 1018SOL    HW212023   8.364   4.407   5.396  0.7252 -0.8744  1.9104
 1019SOL     OW12024   9.987   2.274   4.985 -0.5546 -0.3917  0.6575
 1019SOL    HW112025  10.082   2.278   4.975 -0.6971  0.0841 -0.6712
 1019SOL    HW212026   9.974   2.245   5.075  0.8468 -0.4978  0.8496
 1020SOL     OW12027  11.995   8.792   3.146  0.5671 -0.3587 -0.6686
 1020SOL    HW112028  12.071   8.766   3.092  0.7846  0.3299 -0.7026
 1020SOL    HW212029  11.939   8.714   3.147  1.3328 -0.9201 -0.5404
 1021SOL     OW12030   2.421   7.863   0.516  0.1095  0.6127 -0.4285
 1021SOL    HW112031   2.333   7.897   0.529 -0.1826 -0.6107  1.0468
 1021SOL    HW212032   2.469   7.889   0.595  0.2377 -1.2174  0.1233
 1022SOL     OW12033   8.984  11.737   2.940  0.2549 -0.0017  0.1490
 1022SOL    HW112034   9.028  11.655   2.917  0.7543  0.0408  0.9314
 1022SOL    HW212035   8.897  11.710   2.969  0.7840 -0.3699  1.4562
 1023SOL     OW12036  10.864   7.746   3.072 -0.3167  0.3194  0.0700
 1023SOL    HW112037  10.864   7.839   3.096 -3.1861  0.9863 -2.0900
 1023SOL    HW212038  10.798   7.706   3.128 -0.8021  0.0894 -0.6549
 1024SOL     OW12039  10.313  10.431   6.240  0.2095  0.3501 -0.2618
 1024SOL    HW112040  10.319  10.464   6.330 -0.6448  0.3427 -0.1980
 1024SOL    HW212041  10.308  10.509   6.186 -1.0000  0.3591 -0.1684
 1025SOL     OW12042  11.188  11.708   4.514 -0.2395 -0.1840  0.0562
 1025SOL    HW112043  11.106  11.678   4.553 -0.0502 -2.1381 -0.9455
 1025SOL    HW212044  11.250  11.706   4.586 -0.7313 -0.1473  0.4896
 1026SOL     OW12045   2.263   9.086  11.686 -0.1247 -0.2051  0.0256
 1026SOL    HW112046   2.183   9.089  11.633  0.0896  2.5299 -0.2774
 1026SOL    HW212047   2.237   9.039  11.765 -1.3515 -1.4874 -1.0838
 1027SOL     OW12048   7.778   1.051   7.184  0.0460 -0.4581 -0.3096
 1027SOL    HW112049   7.728   1.071   7.263 -0.7796  1.8598 -1.3310
 1027SOL    HW212050   7.720   1.076   7.112  1.9573  0.5456 -1.5866
 1028SOL     OW12051   2.094   1.035   9.899  0.4283 -0.2351  0.5025
 1028SOL    HW112052   2.162   0.995   9.844  0.5121  0.0474  0.4019
 1028SOL    HW212053   2.133   1.036   9.986  0.9767  0.9007  0.2603
 1029SOL     OW12054   9.966   4.712   2.782  0.2086 -0.1487  0.1296
 1029SOL    HW112055   9.937   4.702   2.873 -0.5496  1.2266  0.0612
 1029SOL    HW212056   9.927   4.637   2.736  2.0395 -1.8815  1.2142
 1030SOL     OW12057  12.480   7.623   9.530 -1.2643 -0.0731 -0.0535
 1030SOL    HW112058  12.451   7.691   9.591  0.6705  0.5488  0.2591
 1030SOL    HW212059  12.473   7.663   9.444 -2.5119 -0.3881 -0.1051
 1031SOL     OW12060  11.708  11.305   9.408 -0.0343  0.4847  0.2138
 1031SOL    HW112061  11.708  11.241   9.479  2.8400  0.4209  0.2985
 1031SOL    HW212062  11.648  11.373   9.437 -2.0445 -1.3982  0.7968
 1032SOL     OW12063   7.004  11.324   8.857 -0.3960 -0.2359 -0.3693
 1032SOL    HW112064   7.041  11.409   8.879  0.5640 -0.6329 -0.4016
 1032SOL    HW212065   6.955  11.339   8.777  1.4047 -0.1033 -1.5035
 1033SOL     OW12066   3.129  10.223   4.987  0.1522  0.0104  0.0744
 1033SOL    HW112067   3.202  10.285   4.979 -0.3931  0.7166  0.5191
 1033SOL    HW212068   3.154  10.167   5.061  0.3476  0.0948  0.0742
 1034SOL     OW12069   0.811   4.120  11.811  0.3062  0.3946  0.1147
 1034SOL    HW112070   0.895   4.086  11.841  0.9149  1.6015 -0.1348
 1034SOL    HW212071   0.799   4.081  11.724  1.0212  0.8385 -0.1979
 1035SOL     OW12072   7.968   9.879   5.076  0.8291 -0.3222  0.0241
 1035SOL    HW112073   8.013   9.938   5.015  2.4871  0.4293  1.8506
 1035SOL    HW212074   8.032   9.862   5.145 -1.1630 -0.5140  1.9668
 1036SOL     OW12075   9.334  10.219   9.357  0.4130  0.0315  0.7094
 1036SOL    HW112076   9.335  10.276   9.434 -1.5062 -1.5082  1.9542
 1036SOL    HW212077   9.345  10.131   9.392  0.3109 -0.6394 -0.8742
 1037SOL     OW12078   0.441   6.657   9.838  0.5706 -0.1945  0.0203
 1037SOL    HW112079   0.379   6.584   9.843  0.9552 -0.5855 -0.7691
 1037SOL    HW212080   0.394   6.731   9.877  0.0812 -0.7922  0.5920
 1038SOL     OW12081   4.739   3.113  10.936 -0.2009 -0.4304 -0.5342
 1038SOL    HW112082   4.714   3.191  10.986  2.3266  0.9356 -1.1750
 1038SOL    HW212083   4.768   3.050  11.002 -0.8645 -0.2639 -0.0793
 1039SOL     OW12084   5.164   6.403   3.074 -0.1341  0.3670  0.3471
 1039SOL    HW112085   5.189   6.311   3.065  0.5487  0.5605  0.2108
 1039SOL    HW212086   5.073   6.400   3.102  0.0550 -0.3636  0.9230
 1040SOL     OW12087  10.210   4.953  10.067  0.5879 -0.1130  0.1369
 1040SOL    HW112088  10.242   4.977  10.153 -0.8457  1.9164  0.1820
 1040SOL    HW212089  10.278   4.982  10.007  0.3278  1.1982  0.4361
 1041SOL     OW12090   5.140  11.205   9.588 -0.3733  0.4796 -0.2786
 1041SOL    HW112091   5.156  11.137   9.522  1.4301  1.6880 -1.1815
 1041SOL    HW212092   5.195  11.179   9.662 -0.1105  0.6546 -0.4107
 1042SOL     OW12093  10.630   5.355   9.695 -0.4084  0.3004  0.5974
 1042SOL    HW112094  10.705   5.378   9.749  0.2703  2.3267 -1.0992
 1042SOL    HW212095  10.555   5.358   9.755  0.5632  0.4640  1.8278
 1043SOL     OW12096   6.680  10.071   8.485  0.1411 -0.6725  0.7078
 1043SOL    HW112097   6.690  10.149   8.539 -0.5397 -1.3240  1.8117
 1043SOL    HW212098   6.665  10.000   8.548 -2.9897 -1.1166 -0.3391
 1044SOL     OW12099   9.558  10.784   9.594 -0.1752 -0.0070  0.2670
 1044SOL    HW112100   9.487  10.722   9.613  0.0256 -0.0868  0.7681
 1044SOL    HW212101   9.615  10.736   9.534 -0.4894  0.0192 -0.0545
 1045SOL     OW12102   7.570   1.808  10.472  0.4293  0.2688  0.1240
 1045SOL    HW112103   7.652   1.763  10.452  0.9282  0.4580  1.6423
 1045SOL    HW212104   7.515   1.740  10.511  0.2057  0.3595 -0.0340
 1046SOL     OW12105  11.844   5.876  10.730  0.0429 -0.2306 -0.6132
 1046SOL    HW112106  11.853   5.938  10.803  0.2310  0.6476 -1.3732
 1046SOL    HW212107  11.750   5.856  10.728 -0.1266  0.5506 -0.7795
 1047SOL     OW12108   7.141   7.777  11.988  0.0184  0.2640 -0.3695
 1047SOL    HW112109   7.058   7.753  11.947 -0.8372  2.0145  0.2234
 1047SOL    HW212110   7.190   7.820  11.918 -0.3267  0.8365 -0.2641
 1048SOL     OW12111  10.430   4.452   9.048 -0.1051 -0.6823 -0.1758
 1048SOL    HW112112  10.509   4.461   8.994 -0.3127 -0.6649 -0.4835
 1048SOL    HW212113  10.439   4.366   9.089 -1.0868 -1.8236 -2.1645
 1049SOL     OW12114  10.748   5.672  12.195  0.6339  0.4480  0.5899
 1049SOL    HW112115  10.742   5.754  12.244 -0.1952  0.0059  1.2650
 1049SOL    HW212116  10.698   5.688  12.115 -0.1493  0.3883  1.0538
 1050SOL     OW12117   8.506   4.357   7.651  0.4125 -0.1568  0.0795
 1050SOL    HW112118   8.488   4.264   7.667 -2.7403  0.2296 -0.6997
 1050SOL    HW212119   8.476   4.401   7.731 -1.6963  0.4647 -0.9896
 1051SOL     OW12120   5.140  12.339   9.450  0.2453  0.2395 -0.2547
 1051SOL    HW112121   5.089  12.360   9.529 -0.7864  0.1329 -0.8615
 1051SOL    HW212122   5.156  12.424   9.409  1.3246  0.3534  0.3730
 1052SOL     OW12123   9.827   2.953   1.019  0.1839  0.6022 -0.0283
 1052SOL    HW112124   9.922   2.947   1.029  0.1139  0.4357  0.5189
 1052SOL    HW212125   9.797   3.002   1.095 -0.2304  0.1986  0.0683
 1053SOL     OW12126  12.488   4.455   9.621 -0.1648 -0.6101  0.0228
 1053SOL    HW112127  12.411   4.451   9.564 -0.3742 -1.4380  0.3356
 1053SOL    HW212128  12.527   4.367   9.615 -0.3542 -0.8196  1.3514
 1054SOL     OW12129   0.155   0.484   9.119 -0.1814 -0.6109  0.1548
 1054SOL    HW112130   0.135   0.434   9.198 -0.8605 -0.5071  0.0552
 1054SOL    HW212131   0.107   0.440   9.049  0.4106 -0.6958 -0.2002
 1055SOL     OW12132  11.181   5.162  10.910 -0.3665  0.4016  0.0634
 1055SOL    HW112133  11.097   5.181  10.870 -0.4954  0.7362  0.4817
 1055SOL    HW212134  11.168   5.079  10.956 -0.2726  0.1159 -0.4268
 1056SOL     OW12135   6.647   5.073  10.881  0.4703  0.5277 -0.8710
 1056SOL    HW112136   6.611   5.143  10.936 -0.8876  0.5308 -1.6909
 1056SOL    HW212137   6.740   5.094  10.874  0.1353  2.1917 -0.9598
 1057SOL     OW12138   5.504  11.453   8.460 -0.0448  0.1523  0.6029
 1057SOL    HW112139   5.563  11.411   8.397  0.2389  0.9876  0.2913
 1057SOL    HW212140   5.471  11.382   8.514  1.9554 -0.2541  1.3824
 1058SOL     OW12141  11.581   3.535  11.323  0.2958  0.4545  0.3153
 1058SOL    HW112142  11.655   3.594  11.306  0.1168  0.4446 -0.5464
 1058SOL    HW212143  11.600   3.457  11.272 -0.6373  0.7273 -0.4945
 1059SOL     OW12144   6.749   0.908   6.900 -0.1500 -0.0476  0.3673
 1059SOL    HW112145   6.694   0.950   6.833 -2.4203 -0.8757  1.5872
 1059SOL    HW212146   6.790   0.981   6.946  1.2859  0.5475 -1.6823
 1060SOL     OW12147  11.321  11.806   7.649  0.1999  0.6370  0.2185
 1060SOL    HW112148  11.405  11.824   7.690  0.1088  1.3812  0.1020
 1060SOL    HW212149  11.305  11.713   7.666  0.4118  0.7963  1.4100
 1061SOL     OW12150   6.905   3.711   8.608 -0.3870 -0.1583  0.0283
 1061SOL    HW112151   6.953   3.634   8.578 -0.5952  0.9374 -3.4930
 1061SOL    HW212152   6.914   3.708   8.704  2.3256 -2.7517 -0.1505
 1062SOL     OW12153  11.461   7.239   7.243 -0.3680 -0.0790 -0.3735
 1062SOL    HW112154  11.373   7.206   7.225 -1.0116  0.8962  0.8735
 1062SOL    HW212155  11.468   7.236   7.338  0.4471  1.1398 -0.3862
 1063SOL     OW12156   5.068   7.798   9.195  0.4938  0.2692 -0.6352
 1063SOL    HW112157   4.994   7.803   9.135  1.6984  1.9450 -2.0879
 1063SOL    HW212158   5.058   7.873   9.253  1.0114  0.4936 -0.8243
 1064SOL     OW12159  11.710  11.199   6.825  0.1878 -0.3185  0.2049
 1064SOL    HW112160  11.665  11.122   6.859  1.3415 -1.4010 -0.5958
 1064SOL    HW212161  11.660  11.274   6.857 -0.3500 -1.3700  1.9103
 1065SOL     OW12162   1.018  10.458   1.672  0.3777 -0.1730  0.2645
 1065SOL    HW112163   1.038  10.493   1.759  0.5138 -0.0408  0.1810
 1065SOL    HW212164   1.082  10.499   1.614 -0.9298  1.2447 -0.2279
 1066SOL     OW12165   3.224  10.291   0.233  0.5320  0.6019  0.6203
 1066SOL    HW112166   3.303  10.336   0.264 -0.2337  1.2973  1.6359
 1066SOL    HW212167   3.157  10.313   0.297  0.0083 -1.7265  0.9634
 1067SOL     OW12168  12.514   8.612   3.135 -0.2034 -0.6471 -0.6419
 1067SOL    HW112169  12.608   8.596   3.127 -0.3202 -1.1083 -1.2178
 1067SOL    HW212170  12.474   8.526   3.120 -0.7630 -0.2390 -1.6206
 1068SOL     OW12171   8.640   9.665   3.328 -0.4358  0.1505 -0.0679
 1068SOL    HW112172   8.561   9.638   3.282 -0.8139  0.5772  0.3290
 1068SOL    HW212173   8.614   9.742   3.378 -0.0238 -0.2821  0.8396
 1069SOL     OW12174   5.497   0.542   4.616  0.2676 -0.1469 -0.7353
 1069SOL    HW112175   5.496   0.588   4.532  0.5885 -0.0173 -0.6664
 1069SOL    HW212176   5.516   0.610   4.680 -1.4878  0.0491 -0.3758
 1070SOL     OW12177   2.426  10.825   3.991  0.4386  0.0407 -0.9023
 1070SOL    HW112178   2.351  10.832   3.932  0.2646  1.3491 -0.5566
 1070SOL    HW212179   2.389  10.813   4.078  0.5582  1.5035 -0.6110
 1071SOL     OW12180  10.465   2.115   3.601  0.2839 -0.0874  0.3161
 1071SOL    HW112181  10.403   2.159   3.543  2.0896  0.7524 -1.0782
 1071SOL    HW212182  10.410   2.078   3.670 -1.9584 -0.7784 -1.6669
 1072SOL     OW12183  12.100   5.156   3.914  0.3124 -0.0498  0.8223
 1072SOL    HW112184  12.021   5.145   3.966  0.3678 -1.7604  0.6012
 1072SOL    HW212185  12.074   5.130   3.825  0.5932  1.4278  0.2817
 1073SOL     OW12186   0.882   5.079   0.098  0.6410 -0.4425 -0.2261
 1073SOL    HW112187   0.933   5.159   0.096 -0.1643  0.0948 -2.6281
 1073SOL    HW212188   0.862   5.061   0.006 -1.6489 -1.7908  0.4530
 1074SOL     OW12189   7.212  11.047   1.775  0.0232  0.6737  0.5456
 1074SOL    HW112190   7.257  11.001   1.846  0.1064 -0.9215 -0.4844
 1074SOL    HW212191   7.248  11.135   1.777  0.4835  0.4869  2.0717
 1075SOL     OW12192   1.836  10.619   5.162 -0.2599  0.3390  0.1110
 1075SOL    HW112193   1.900  10.664   5.216 -1.0458  0.4968  0.9352
 1075SOL    HW212194   1.811  10.684   5.096 -0.9850  0.9594  0.9620
 1076SOL     OW12195   5.207   7.364   7.449  0.3385 -0.2164  0.0449
 1076SOL    HW112196   5.183   7.326   7.365 -1.7539 -0.7872  0.8455
 1076SOL    HW212197   5.206   7.290   7.510  0.1083  0.4639  0.8879
 1077SOL     OW12198   0.771   4.682  10.550 -0.0374 -0.2331  0.2179
 1077SOL    HW112199   0.801   4.617  10.487 -1.6496 -0.4143 -0.3855
 1077SOL    HW212200   0.754   4.632  10.630 -2.2727 -0.7730 -0.5501
 1078SOL     OW12201   5.347   5.118   5.075  0.2454  0.6263 -0.4655
 1078SOL    HW112202   5.298   5.138   4.995  1.5665  1.7857 -1.0289
 1078SOL    HW212203   5.415   5.057   5.046  0.5350  0.8036 -0.1550
 1079SOL     OW12204  11.459   6.930  11.557  0.2062 -0.2154  0.1330
 1079SOL    HW112205  11.552   6.941  11.537  0.3121 -1.3757 -0.0779
 1079SOL    HW212206  11.443   6.993  11.628  0.6555  1.4181 -1.1291
 1080SOL     OW12207   9.133   5.488   1.365  0.2209  0.3469  0.0245
 1080SOL    HW112208   9.058   5.536   1.400 -0.8208 -0.9661 -0.3038
 1080SOL    HW212209   9.094   5.424   1.305  1.7002  0.3422 -0.9838
 1081SOL     OW12210  12.360   5.514   9.836 -0.2409 -0.3558  0.1154
 1081SOL    HW112211  12.288   5.540   9.778 -0.0402  2.7406  1.0839
 1081SOL    HW212212  12.316   5.486   9.917 -0.4551  1.9157  0.8517
 1082SOL     OW12213  11.433   0.452   8.808  0.4237 -0.4657  0.0704
 1082SOL    HW112214  11.380   0.378   8.835 -1.0142  1.0915  1.7324
 1082SOL    HW212215  11.517   0.440   8.853  0.0549 -0.8775  0.6476
 1083SOL     OW12216  11.722   0.300  11.419 -0.0976 -0.4326 -0.5651
 1083SOL    HW112217  11.785   0.242  11.462  0.4911  0.7778  0.2472
 1083SOL    HW212218  11.688   0.355  11.489 -1.5355 -0.5645 -1.1265
 1084SOL     OW12219  10.248  12.251   4.666  0.3785 -0.0355  0.0836
 1084SOL    HW112220  10.167  12.201   4.677 -0.3148  1.0355  0.0391
 1084SOL    HW212221  10.275  12.273   4.756 -0.6760  1.5645  0.0552
 1085SOL     OW12222   4.115   0.060   0.958 -0.5575 -0.2334  0.2637
 1085SOL    HW112223   4.060  -0.014   0.985 -1.5778 -0.2855 -1.7627
 1085SOL    HW212224   4.120   0.116   1.035 -2.7745 -0.6539  0.7782
 1086SOL     OW12225   4.232  10.820   7.363  0.2187 -0.0474  0.2761
 1086SOL    HW112226   4.240  10.871   7.444 -0.1392  0.6448 -0.1204
 1086SOL    HW212227   4.323  10.801   7.338  0.3607 -2.8855  2.4388
 1087SOL     OW12228   4.413   4.345  11.029 -0.4129  0.0288 -0.2890
 1087SOL    HW112229   4.423   4.301  11.113  1.2535  1.7231  0.4780
 1087SOL    HW212230   4.351   4.291  10.980 -1.8607 -0.7472  2.2124
 1088SOL     OW12231  11.949   3.725   0.635 -0.0211  0.0195 -0.7343
 1088SOL    HW112232  11.943   3.697   0.726  0.9201 -1.1377 -0.9990
 1088SOL    HW212233  11.950   3.643   0.585  2.4156  0.4514 -1.5694
 1089SOL     OW12234   8.890  11.030   7.438  0.3614 -0.5503  0.2594
 1089SOL    HW112235   8.961  11.060   7.381  0.0499 -1.1086 -0.4281
 1089SOL    HW212236   8.918  10.944   7.468  1.0550  0.2026  1.8908
 1090SOL     OW12237   3.167   0.913   0.225 -0.1378 -0.5854 -0.0124
 1090SOL    HW112238   3.172   0.907   0.130  1.0074 -0.8123  0.0517
 1090SOL    HW212239   3.091   0.860   0.249 -0.4011 -0.5666 -0.7904
 1091SOL     OW12240   7.914   9.596   2.088 -0.1755 -0.1356 -0.0245
 1091SOL    HW112241   7.836   9.565   2.135 -0.1184 -0.6598 -0.2651
 1091SOL    HW212242   7.880   9.659   2.024 -0.4311 -0.4955 -0.2507
 1092SOL     OW12243   4.172   6.073   1.839 -0.5744 -0.2355  0.1715
 1092SOL    HW112244   4.140   6.048   1.752 -0.7047 -1.2742  0.4974
 1092SOL    HW212245   4.199   5.990   1.879  1.7388  0.5003  0.2451
 1093SOL     OW12246   9.825   6.851   2.712 -0.4674 -0.1720 -0.1102
 1093SOL    HW112247   9.808   6.916   2.644  2.1238 -0.6752 -1.3901
 1093SOL    HW212248   9.900   6.887   2.760 -0.3115 -1.2728  0.4889
 1094SOL     OW12249   8.536   3.956   2.920 -0.3188 -0.0363 -0.2527
 1094SOL    HW112250   8.456   3.906   2.909 -0.1714 -0.2536 -0.3297
 1094SOL    HW212251   8.571   3.927   3.005  1.1526 -2.0222 -1.4574
 1095SOL     OW12252   9.866   8.540  10.508  0.2974  0.3509  0.5410
 1095SOL    HW112253   9.945   8.576  10.468  0.4091 -0.1681  0.2868
 1095SOL    HW212254   9.892   8.517  10.597  0.4539  0.1125  0.4341
 1096SOL     OW12255   8.389   7.511   0.327  1.0644  0.4887 -0.0523
 1096SOL    HW112256   8.416   7.438   0.384 -1.2640 -0.5766 -0.1774
 1096SOL    HW212257   8.423   7.487   0.241  1.8796  0.4900  0.2584
 1097SOL     OW12258   2.006   8.903  11.211  0.0396  0.2851  0.3414
 1097SOL    HW112259   2.091   8.865  11.190 -0.4202  0.3480 -1.8727
 1097SOL    HW212260   2.017   8.939  11.299  1.8000 -1.1050  0.7396
 1098SOL     OW12261   1.426   2.111  11.730 -0.3271  0.2103 -0.0667
 1098SOL    HW112262   1.466   2.072  11.807  3.5343  0.2459 -1.8260
 1098SOL    HW212263   1.453   2.055  11.657 -0.5687  2.2446 -1.8336
 1099SOL     OW12264  10.741   6.360   5.988  0.2926  0.3829  0.2882
 1099SOL    HW112265  10.738   6.321   5.900  1.7717  1.0959 -0.0954
 1099SOL    HW212266  10.652   6.392   6.002  0.5511  2.2628 -1.8972
 1100SOL     OW12267   4.600   7.847   8.686 -0.0532 -0.1407 -0.2196
 1100SOL    HW112268   4.667   7.779   8.686  0.7496  0.6092  1.2885
 1100SOL    HW212269   4.621   7.900   8.609  1.4865  0.4179  0.5369
 1101SOL     OW12270   2.162   0.210   0.746  0.0054  0.3711 -0.0589
 1101SOL    HW112271   2.142   0.274   0.677  0.3909  0.4842 -0.0671
 1101SOL    HW212272   2.103   0.137   0.728 -0.9823  1.0228  0.3890
 1102SOL     OW12273   5.198   1.933  10.604 -0.0234 -0.2271 -0.6290
 1102SOL    HW112274   5.165   1.891  10.684 -1.1911 -1.0219 -1.4937
 1102SOL    HW212275   5.160   2.021  10.607  0.2771 -0.1077 -0.1156
 1103SOL     OW12276   8.571   7.240   9.155  0.3928 -0.0993  0.7739
 1103SOL    HW112277   8.664   7.255   9.137  0.4841 -2.1427 -0.9699
 1103SOL    HW212278   8.525   7.304   9.100  0.7829 -0.7045 -0.2828
 1104SOL     OW12279   3.559  10.692   9.544  0.6072  0.2344  0.6876
 1104SOL    HW112280   3.505  10.735   9.611  0.7405  0.0430  0.9231
 1104SOL    HW212281   3.633  10.752   9.533 -0.8909  1.8204 -1.5362
 1105SOL     OW12282   5.957   5.024   8.629  0.0889 -0.2895  0.0652
 1105SOL    HW112283   5.865   5.041   8.650  0.0377 -1.6869  1.1175
 1105SOL    HW212284   5.983   5.098   8.574 -1.6503  0.1455 -0.2370
 1106SOL     OW12285   1.206  11.053   9.532  0.4624  0.3071 -0.3206
 1106SOL    HW112286   1.181  10.979   9.589 -0.0048  0.4225 -0.3722
 1106SOL    HW212287   1.182  11.024   9.444  1.3071  0.0763 -0.4824
 1107SOL     OW12288   5.914  11.952   6.717  0.6721  0.1195  0.1219
 1107SOL    HW112289   5.827  11.938   6.754  1.5779 -1.1088  1.9312
 1107SOL    HW212290   5.919  12.047   6.703 -0.7997  0.2547  0.3100
 1108SOL     OW12291   7.779   1.489   7.353  0.0985  0.7170  0.3654
 1108SOL    HW112292   7.822   1.573   7.340 -1.4695  1.6775  1.0215
 1108SOL    HW212293   7.727   1.501   7.433 -0.2073 -0.8630  0.4349
 1109SOL     OW12294   1.807   5.566   3.983  0.4600 -0.5173  0.3751
 1109SOL    HW112295   1.877   5.548   4.046  0.4162 -0.1083  0.5426
 1109SOL    HW212296   1.735   5.599   4.037 -0.1696 -1.7470  0.3145
 1110SOL     OW12297   6.535   5.424   6.322 -0.1623 -0.4266  0.0734
 1110SOL    HW112298   6.452   5.391   6.357 -0.0519 -0.2346  0.5189
 1110SOL    HW212299   6.580   5.346   6.290 -0.0883 -0.6649  0.7376
 1111SOL     OW12300   9.233   5.092   9.250 -0.3588  0.3428  0.3379
 1111SOL    HW112301   9.323   5.062   9.252 -0.1725  0.8848  0.1988
 1111SOL    HW212302   9.236   5.183   9.279 -1.1187 -0.2158  2.2930
 1112SOL     OW12303   1.313   0.865   0.539  0.0478  0.2413  0.4513
 1112SOL    HW112304   1.398   0.885   0.579  0.7940  0.0201 -0.9299
 1112SOL    HW212305   1.290   0.778   0.572  0.6589  0.0456  0.3693
 1113SOL     OW12306   1.036   7.055   5.829  0.4165 -0.0722  0.5082
 1113SOL    HW112307   1.038   7.145   5.861  0.0185 -0.1971  0.8974
 1113SOL    HW212308   1.048   7.063   5.734  0.5664  0.3753  0.5613
 1114SOL     OW12309   5.985  10.322  11.131 -0.0246 -0.4600 -0.7845
 1114SOL    HW112310   6.020  10.282  11.210  2.6122  2.9732  0.0191
 1114SOL    HW212311   5.890  10.327  11.146  0.4643  1.3949  3.0089
 1115SOL     OW12312   9.622   8.124   8.479 -0.2933  0.1124 -0.1835
 1115SOL    HW112313   9.557   8.143   8.547  0.8792  0.7420  0.8093
 1115SOL    HW212314   9.642   8.031   8.490 -1.2308 -0.1646 -0.7029
 1116SOL     OW12315  10.326   4.166  12.297  0.8063  1.2446 -0.1174
 1116SOL    HW112316  10.290   4.231  12.357 -0.2196  0.6170 -0.0375
 1116SOL    HW212317  10.316   4.206  12.210  0.4422  1.3105 -0.0461
 1117SOL     OW12318   9.616   5.829   5.412 -0.4894 -0.4529 -0.1274
 1117SOL    HW112319   9.534   5.830   5.363 -0.9200 -0.9537  0.5706
 1117SOL    HW212320   9.592   5.858   5.500  0.4017  1.1817 -0.3689
 1118SOL     OW12321   0.429   7.476   0.404 -0.1430  0.4231  0.1741
 1118SOL    HW112322   0.507   7.530   0.389 -0.3248  0.7163  0.2696
 1118SOL    HW212323   0.356   7.538   0.401 -0.1622  0.6704  3.0261
 1119SOL     OW12324   6.593   8.149   7.950 -0.3626  0.0072 -0.4216
 1119SOL    HW112325   6.639   8.136   8.032  2.2492 -0.4041 -1.8514
 1119SOL    HW212326   6.602   8.243   7.932  0.1508 -0.1115 -0.8113
 1120SOL     OW12327  10.929   3.928   9.145 -0.5228  0.4785 -0.1938
 1120SOL    HW112328  10.941   3.840   9.110 -1.0455  0.8276 -1.3186
 1120SOL    HW212329  11.018   3.963   9.152 -0.3332 -0.0295 -0.0493
 1121SOL     OW12330   3.136  11.633   1.742 -0.3169 -0.3108  0.0623
 1121SOL    HW112331   3.215  11.685   1.736 -0.3447 -0.1370  1.1088
 1121SOL    HW212332   3.095  11.660   1.824 -1.4344 -0.4324 -0.4331
 1122SOL     OW12333   3.130   9.374   8.573  0.3525  0.0825  0.1268
 1122SOL    HW112334   3.141   9.291   8.619 -1.6085 -0.0076  0.5196
 1122SOL    HW212335   3.046   9.366   8.528  0.0943  1.8524  0.1958
 1123SOL     OW12336   0.698   5.033   5.154 -0.2818 -0.0265  0.4780
 1123SOL    HW112337   0.669   5.086   5.080  0.4030 -0.6846 -0.2712
 1123SOL    HW212338   0.623   4.976   5.174 -0.9577  1.0633  1.1729
 1124SOL     OW12339   2.192   4.983   9.322  0.0242 -0.1654  0.1926
 1124SOL    HW112340   2.253   4.998   9.249  1.3059  0.4012  1.3324
 1124SOL    HW212341   2.175   5.070   9.358 -0.7264 -0.4194  0.4647
 1125SOL     OW12342   5.918  11.398   8.463 -0.6421 -0.1565 -0.1294
 1125SOL    HW112343   5.945  11.320   8.512 -0.3073 -0.8150 -1.3243
 1125SOL    HW212344   5.875  11.363   8.385  2.1761  0.7256 -2.2369
 1126SOL     OW12345   7.638   7.215   9.791  0.2651 -0.2335 -0.2343
 1126SOL    HW112346   7.546   7.194   9.810  0.7242 -1.2327  1.0699
 1126SOL    HW212347   7.656   7.291   9.846  0.3118 -0.2592 -0.2140
 1127SOL     OW12348  12.251   7.320   2.657  0.2442 -0.0284 -0.1104
 1127SOL    HW112349  12.200   7.316   2.738 -0.2958 -1.5966 -0.4891
 1127SOL    HW212350  12.185   7.326   2.588  0.6653  0.2580 -0.4940
 1128SOL     OW12351   9.402   2.373   3.510 -0.3509  0.4123  0.4479
 1128SOL    HW112352   9.483   2.324   3.503 -2.3026 -2.9219 -0.7821
 1128SOL    HW212353   9.341   2.314   3.555 -3.1066  1.2770 -1.8440
 1129SOL     OW12354  12.166   3.916   2.652  0.3190 -0.0976 -0.9841
 1129SOL    HW112355  12.187   3.841   2.596  0.9174 -1.0562  0.4522
 1129SOL    HW212356  12.073   3.931   2.638 -0.0886 -1.8573 -0.5043
 1130SOL     OW12357   9.603   8.413  12.251  0.1668 -0.4954 -0.4379
 1130SOL    HW112358   9.606   8.458  12.335 -0.4313  1.9827 -1.6257
 1130SOL    HW212359   9.663   8.339  12.260 -1.5477 -1.6774  2.8481
 1131SOL     OW12360   1.382   1.365   2.329 -0.2682  0.6211  0.0494
 1131SOL    HW112361   1.324   1.368   2.405  1.6721  1.7587  1.5748
 1131SOL    HW212362   1.468   1.388   2.364  0.5731  1.8779 -2.6309
 1132SOL     OW12363   7.652  11.070   5.830 -0.2074  0.0300  0.0879
 1132SOL    HW112364   7.603  11.058   5.749  1.2591 -0.0691 -0.8174
 1132SOL    HW212365   7.723  11.130   5.807  0.5873 -0.4709  1.1357
 1133SOL     OW12366   4.982  11.414   1.571 -0.0941  0.3707  0.0905
 1133SOL    HW112367   4.976  11.318   1.570 -2.4564  0.4473  1.4853
 1133SOL    HW212368   5.061  11.432   1.622  0.4174 -0.8151 -0.2456
 1134SOL     OW12369   7.583   1.892  11.585 -0.6694  0.1983  0.5664
 1134SOL    HW112370   7.561   1.891  11.491 -0.9853  0.9087  0.6221
 1134SOL    HW212371   7.564   1.803  11.615 -0.4679 -0.0659 -0.0678
 1135SOL     OW12372   7.855   5.358   2.093 -0.2459  0.5175 -0.0565
 1135SOL    HW112373   7.875   5.337   2.002  1.9971  1.6201  0.1230
 1135SOL    HW212374   7.795   5.432   2.088  1.5659  1.9970 -0.6799
 1136SOL     OW12375  10.464   3.370   9.497 -0.3544 -0.3120  0.5449
 1136SOL    HW112376  10.417   3.419   9.565 -0.8463  0.1345 -0.0993
 1136SOL    HW212377  10.460   3.279   9.525  0.1630 -0.0468  1.5249
 1137SOL     OW12378  12.164   0.237   9.075 -0.5123  0.2567  0.2261
 1137SOL    HW112379  12.143   0.169   9.139  1.9623 -0.3309  0.5036
 1137SOL    HW212380  12.252   0.267   9.099 -0.2679  1.3374 -1.7746
 1138SOL     OW12381   5.439   8.444   4.702 -0.0788  1.0437  0.2147
 1138SOL    HW112382   5.433   8.441   4.606 -1.0547  2.0172  0.2149
 1138SOL    HW212383   5.507   8.381   4.724 -0.9179 -0.3579 -1.0122
 1139SOL     OW12384  10.122   5.438   2.960 -0.0342 -0.5919 -0.1566
 1139SOL    HW112385  10.088   5.369   2.902 -1.4648 -0.3630  0.3674
 1139SOL    HW212386  10.200   5.400   2.999 -1.1388 -2.2035  0.6191
 1140SOL     OW12387   5.106   9.799   7.420  0.1292 -0.2062  0.0565
 1140SOL    HW112388   5.029   9.829   7.467  0.8910  1.2172  0.4752
 1140SOL    HW212389   5.127   9.714   7.459 -1.0922 -0.5248  0.0556
 1141SOL     OW12390  10.332  12.283   2.752  0.5871  0.9708 -0.1957
 1141SOL    HW112391  10.367  12.363   2.713 -0.1597  0.2349 -2.5766
 1141SOL    HW212392  10.248  12.269   2.707 -1.0020  0.6466  2.6142
 1142SOL     OW12393   7.377   1.261   2.473  0.3950  0.2526 -0.3996
 1142SOL    HW112394   7.325   1.230   2.399  0.0563 -1.0526  0.3600
 1142SOL    HW212395   7.339   1.345   2.496 -1.4053 -0.6523  0.1294
 1143SOL     OW12396   6.729   8.730   8.522  0.2846  0.0506 -0.1225
 1143SOL    HW112397   6.720   8.666   8.593  0.0468  0.5720  0.3302
 1143SOL    HW212398   6.653   8.787   8.532 -0.7614 -0.9461 -1.9403
 1144SOL     OW12399  12.546  10.312  10.839  0.1631  0.1196  0.3072
 1144SOL    HW112400  12.582  10.258  10.909  1.0424  0.9492  0.5093
 1144SOL    HW212401  12.528  10.396  10.880 -0.0990  0.3553 -0.2780
 1145SOL     OW12402   2.064   9.019   6.535 -0.3982 -0.3373 -0.0797
 1145SOL    HW112403   2.121   9.060   6.599 -0.0599 -0.1762 -0.4820
 1145SOL    HW212404   2.085   8.925   6.540 -1.8837 -0.6363  1.5608
 1146SOL     OW12405  12.347   2.470   3.994 -0.3638 -0.2819  0.3308
 1146SOL    HW112406  12.434   2.479   4.033 -0.7226 -1.3772  1.4598
 1146SOL    HW212407  12.287   2.473   4.069 -1.2130 -0.5729 -0.3241
 1147SOL     OW12408  12.002   3.602   5.505 -0.0155  0.9378 -0.1106
 1147SOL    HW112409  11.969   3.687   5.533  0.8260  1.7715 -1.5674
 1147SOL    HW212410  11.952   3.581   5.426 -0.8488 -0.3680  0.7236
 1148SOL     OW12411  11.232  12.025   9.352 -0.2215  0.0688  0.0716
 1148SOL    HW112412  11.287  11.955   9.317 -1.1533 -0.1535 -1.0088
 1148SOL    HW212413  11.182  11.984   9.423  1.0233  0.2961  1.1274
 1149SOL     OW12414  10.941   8.594   6.422  0.2500  0.0053  0.3938
 1149SOL    HW112415  10.891   8.618   6.500 -0.6950  1.1104 -0.5255
 1149SOL    HW212416  10.882   8.538   6.372  0.2882  0.5175 -0.2360
 1150SOL     OW12417   5.141   0.447   2.443  0.0357  0.0522  0.5381
 1150SOL    HW112418   5.096   0.530   2.453 -0.6103 -0.3625  1.1708
 1150SOL    HW212419   5.073   0.386   2.413  0.3557 -0.3919  0.6929
 1151SOL     OW12420   7.610  10.750   4.015  0.1005 -0.1933  0.2208
 1151SOL    HW112421   7.679  10.704   3.967 -0.0195 -0.6531  0.4915
 1151SOL    HW212422   7.543  10.767   3.948 -0.2410 -1.1786  0.2930
 1152SOL     OW12423   6.728   3.238  11.526 -0.4120 -0.1925 -0.2513
 1152SOL    HW112424   6.773   3.205  11.604  0.5465  3.3787  0.8615
 1152SOL    HW212425   6.794   3.234  11.457 -0.5983 -1.3389 -0.3904
 1153SOL     OW12426   2.213   0.904   9.670 -0.0941  0.1220  0.3949
 1153SOL    HW112427   2.217   0.893   9.575  0.2999 -0.2269  0.4510
 1153SOL    HW212428   2.146   0.842   9.699 -0.3940  0.4062  0.3210
 1154SOL     OW12429   8.257  10.812   3.705  0.1518  0.3152 -0.2668
 1154SOL    HW112430   8.207  10.838   3.783 -1.8001 -0.5386 -1.1645
 1154SOL    HW212431   8.280  10.894   3.662  0.1253  0.7494  0.5254
 1155SOL     OW12432  10.891   3.721   3.806  0.3802 -0.1724  0.0228
 1155SOL    HW112433  10.920   3.643   3.758  0.8691  0.6960 -1.1437
 1155SOL    HW212434  10.957   3.787   3.785 -0.6333  0.8837  0.0878
 1156SOL     OW12435   8.316   2.965  11.359  0.1526  0.1059 -0.1436
 1156SOL    HW112436   8.284   2.927  11.277 -0.6776  0.8431 -0.1694
 1156SOL    HW212437   8.311   3.060  11.345  0.8612  0.2324  0.4361
 1157SOL     OW12438   3.848   0.215   9.966 -0.4456 -0.2383  0.0020
 1157SOL    HW112439   3.889   0.279  10.024  0.2523  0.1805 -0.9260
 1157SOL    HW212440   3.865   0.248   9.878 -1.8885 -0.6116 -0.4430
 1158SOL     OW12441   9.204   8.526   7.810 -0.4335  1.1768  0.1770
 1158SOL    HW112442   9.122   8.478   7.816  1.4445 -2.1207  2.0691
 1158SOL    HW212443   9.210   8.574   7.893 -0.7339  2.0221 -0.2750
 1159SOL     OW12444   3.569  11.776   1.232 -0.4251 -0.1541 -0.7583
 1159SOL    HW112445   3.633  11.839   1.197 -1.2894  1.0506 -0.2419
 1159SOL    HW212446   3.520  11.747   1.155  0.1098 -0.3547 -1.0286
 1160SOL     OW12447   9.163  11.860   0.913  0.0218 -0.3768  0.4258
 1160SOL    HW112448   9.103  11.891   0.981  0.9068 -0.9348  1.5023
 1160SOL    HW212449   9.210  11.939   0.885 -0.6590 -0.0693  0.1177
 1161SOL     OW12450   8.855  12.095   9.209 -0.2676  0.3003  0.0695
 1161SOL    HW112451   8.894  12.178   9.233  0.6565 -0.3601  0.8872
 1161SOL    HW212452   8.879  12.083   9.117  0.9506  0.1948  0.3905
 1162SOL     OW12453   5.210   2.458   5.772 -0.2104 -0.0979  0.1950
 1162SOL    HW112454   5.121   2.446   5.806 -0.7662  0.2627 -1.1006
 1162SOL    HW212455   5.246   2.369   5.767 -0.2025 -0.1880  1.4195
 1163SOL     OW12456   3.079   3.777   3.172 -0.0093  0.0496 -0.1661
 1163SOL    HW112457   3.025   3.832   3.229  1.0253  1.6234 -0.6451
 1163SOL    HW212458   3.164   3.773   3.215  0.3437 -0.0003 -0.8517
 1164SOL     OW12459   8.444   4.498   4.007 -0.6881 -0.2977 -0.7467
 1164SOL    HW112460   8.474   4.436   3.940 -1.6443 -1.8139  0.1675
 1164SOL    HW212461   8.449   4.448   4.089  0.3425  1.4773  0.3199
 1165SOL     OW12462   6.361   7.156  11.379  0.1271 -0.5377 -0.2964
 1165SOL    HW112463   6.316   7.086  11.427  1.4089 -2.4512 -1.7202
 1165SOL    HW212464   6.293   7.194  11.323 -0.7548 -0.1101  1.0212
 1166SOL     OW12465  11.512   8.234   2.276  0.4169 -0.3276  0.5137
 1166SOL    HW112466  11.605   8.228   2.254  0.0542 -1.1668 -0.9249
 1166SOL    HW212467  11.510   8.239   2.371  1.8661 -2.5172  0.7433
 1167SOL     OW12468   9.453   2.864  11.792 -0.7981  0.0335  0.4737
 1167SOL    HW112469   9.480   2.955  11.804 -1.4404  0.3153 -0.1057
 1167SOL    HW212470   9.368   2.858  11.835 -2.2903  0.5896 -2.1554
 1168SOL     OW12471   9.511   2.527   5.499 -0.7934  0.0021  0.7254
 1168SOL    HW112472   9.475   2.598   5.552 -0.3037 -0.0915  1.1898
 1168SOL    HW212473   9.606   2.535   5.509 -0.7417 -0.9421  1.0835
 1169SOL     OW12474   7.319  11.296   6.816 -0.1972  0.1162  0.1374
 1169SOL    HW112475   7.257  11.353   6.861 -2.2192  1.3651 -3.7672
 1169SOL    HW212476   7.372  11.355   6.763  0.0089 -1.3796 -1.4055
 1170SOL     OW12477   4.501  11.217   7.721 -0.0423  0.5156  0.3602
 1170SOL    HW112478   4.492  11.261   7.806 -1.0859  0.7279  0.1533
 1170SOL    HW212479   4.412  11.217   7.685  0.5901  1.6072 -1.3105
 1171SOL     OW12480   7.883   5.030  12.304  0.3291  0.4371  0.0775
 1171SOL    HW112481   7.947   4.988  12.246  0.0040  0.3879 -0.2489
 1171SOL    HW212482   7.867   5.115  12.264 -0.1088  0.2928 -0.0637
 1172SOL     OW12483   7.201   0.152   1.858  0.0497  0.0741  0.0890
 1172SOL    HW112484   7.236   0.065   1.876  0.0455  0.0566  0.0146
 1172SOL    HW212485   7.231   0.206   1.931  1.5597  0.4299 -0.7501
 1173SOL     OW12486   5.204  12.150   6.198 -0.7871 -0.1897  0.3961
 1173SOL    HW112487   5.228  12.078   6.139 -0.9725 -0.8701  1.1343
 1173SOL    HW212488   5.252  12.132   6.279 -0.4618  0.7857  0.4372
 1174SOL     OW12489   6.209  10.955   1.948 -0.1134  0.4222 -0.1156
 1174SOL    HW112490   6.204  10.958   2.043  1.4262 -2.1574  0.1233
 1174SOL    HW212491   6.150  10.884   1.923  0.2199  0.4533 -1.0294
 1175SOL     OW12492   9.671   7.112   4.626  0.7020  0.4021  0.1119
 1175SOL    HW112493   9.731   7.168   4.577  0.4186 -0.5930 -1.4785
 1175SOL    HW212494   9.727   7.043   4.662  0.9784  1.3822  1.6546
 1176SOL     OW12495  10.161   0.467  10.745 -0.2286 -0.0381 -0.0436
 1176SOL    HW112496  10.207   0.384  10.749 -1.0367 -0.4559  1.9644
 1176SOL    HW212497  10.141   0.488  10.836 -3.4109  0.4217 -0.7340
 1177SOL     OW12498   8.076   0.710  12.516 -0.1832 -0.2943 -0.3409
 1177SOL    HW112499   8.149   0.757  12.557 -1.4929  0.5434  1.1691
 1177SOL    HW212500   8.058   0.758  12.435  1.0989 -0.6753 -0.8625
 1178SOL     OW12501  12.545   6.833   3.685 -1.0805  0.4041  0.3719
 1178SOL    HW112502  12.491   6.773   3.737 -2.2347  1.6179  0.6176
 1178SOL    HW212503  12.569   6.903   3.745 -0.1003  0.4275 -0.0238
 1179SOL     OW12504   2.962   0.507   6.002 -0.0103 -0.2968  0.3796
 1179SOL    HW112505   2.901   0.434   6.006 -0.8508  0.1863 -1.9960
 1179SOL    HW212506   2.981   0.518   5.909  1.6230  1.2888  0.8247
 1180SOL     OW12507   7.152  11.581   3.890  0.4672 -0.0355  0.4244
 1180SOL    HW112508   7.145  11.532   3.808  0.6635 -0.7456  0.8156
 1180SOL    HW212509   7.073  11.557   3.938 -0.1935  1.2337  0.0121
 1181SOL     OW12510   5.144   8.700   0.420  0.3013  0.5405  0.1046
 1181SOL    HW112511   5.165   8.606   0.417 -0.6500  0.3336 -1.7901
 1181SOL    HW212512   5.155   8.730   0.330 -0.4649  2.0135  0.4694
 1182SOL     OW12513   5.233   9.425   4.028  0.7011  0.3044 -0.1597
 1182SOL    HW112514   5.303   9.368   4.059 -0.7187 -0.0978  2.5531
 1182SOL    HW212515   5.261   9.513   4.054  1.3956  0.5117 -1.5016
 1183SOL     OW12516   3.466   8.568   3.960 -0.2236 -0.3223 -0.2265
 1183SOL    HW112517   3.550   8.585   4.004 -0.5228 -0.5527  0.4516
 1183SOL    HW212518   3.474   8.612   3.875 -0.0680  1.1252  0.5096
 1184SOL     OW12519  10.541   4.327   0.369 -0.4362 -0.6148 -0.3320
 1184SOL    HW112520  10.449   4.332   0.393 -0.2061  0.5019  0.3881
 1184SOL    HW212521  10.564   4.417   0.346  0.9580 -0.5002  1.3506
 1185SOL     OW12522   7.972   8.461   6.029  0.1971 -0.4061  0.1625
 1185SOL    HW112523   7.987   8.415   6.111 -0.7132  0.3370  0.7665
 1185SOL    HW212524   7.900   8.413   5.987  0.3290 -0.4868  0.0267
 1186SOL     OW12525  11.458   7.549   6.767 -0.1655  0.1586  0.5580
 1186SOL    HW112526  11.461   7.504   6.851 -1.8894 -0.0280  0.5621
 1186SOL    HW212527  11.437   7.640   6.790 -1.4700 -0.0657  0.3067
 1187SOL     OW12528   0.663  11.512   0.719 -0.0506  0.2256  0.0551
 1187SOL    HW112529   0.692  11.513   0.810 -0.5251 -0.1624  0.2111
 1187SOL    HW212530   0.704  11.434   0.681 -0.2789  0.0957  0.0759
 1188SOL     OW12531  12.305  10.036   0.047 -0.4997 -0.4719 -0.5926
 1188SOL    HW112532  12.329   9.965  -0.012 -0.8290 -2.3407  1.4161
 1188SOL    HW212533  12.210  10.031   0.055 -0.4725 -0.2007  0.0257
 1189SOL     OW12534   6.533   7.215  10.965 -0.2569  0.2945 -0.3525
 1189SOL    HW112535   6.511   7.123  10.949  0.1016  0.1236  0.1116
 1189SOL    HW212536   6.628   7.219  10.954 -0.0780  0.3047  1.0113
 1190SOL     OW12537   7.523   3.308   8.720 -0.0936  0.4208  0.1104
 1190SOL    HW112538   7.596   3.364   8.695 -0.6370  1.9952  1.8434
 1190SOL    HW212539   7.564   3.235   8.766  0.4576  0.6468 -0.0127
 1191SOL     OW12540   1.609   0.772   2.199 -1.1720  0.0908 -0.0150
 1191SOL    HW112541   1.636   0.835   2.132  0.2258  0.4444  0.8352
 1191SOL    HW212542   1.527   0.807   2.233 -0.6096  1.2546  0.1745
 1192SOL     OW12543  10.181  10.450   9.845 -0.2711 -0.6173 -0.1950
 1192SOL    HW112544  10.098  10.467   9.801 -0.2564 -1.2867 -0.5015
 1192SOL    HW212545  10.161  10.458   9.938 -0.9635 -1.8776 -0.2143
 1193SOL     OW12546  11.349  11.474   6.978  0.5143  0.1127  0.3214
 1193SOL    HW112547  11.384  11.452   7.064  1.4578  3.0580  0.8161
 1193SOL    HW212548  11.348  11.570   6.976 -0.3153  0.1579 -2.6366
 1194SOL     OW12549  10.068  10.232   4.931 -0.1229  0.4371 -0.3316
 1194SOL    HW112550  10.144  10.285   4.908 -0.5711  0.8355 -0.9217
 1194SOL    HW212551  10.033  10.201   4.847  1.0831 -2.1999  0.0161
 1195SOL     OW12552   1.968   9.367   6.148 -0.2105  0.4711  0.1491
 1195SOL    HW112553   1.981   9.273   6.162 -0.2372  0.4059 -0.2438
 1195SOL    HW212554   2.055   9.402   6.132 -0.0731  0.7009  1.3517
 1196SOL     OW12555   0.308   8.073   3.302 -0.6135 -0.3256  0.0339
 1196SOL    HW112556   0.334   8.076   3.395  0.9204  2.3504 -0.3817
 1196SOL    HW212557   0.361   8.002   3.265  0.9290  0.4668  0.6558
 1197SOL     OW12558  12.383   5.670   0.157 -0.1409  0.2587  0.0213
 1197SOL    HW112559  12.454   5.645   0.097  0.5933  1.3100  0.4286
 1197SOL    HW212560  12.340   5.743   0.114 -0.4420  0.1703  0.1716
 1198SOL     OW12561   0.243   2.378  12.043  0.0371  0.1560 -0.0552
 1198SOL    HW112562   0.291   2.442  11.990 -1.2092  1.2832  0.1102
 1198SOL    HW212563   0.156   2.374  12.002 -0.6851  0.4120  1.3761
 1199SOL     OW12564   4.728   1.226  12.487 -0.9324 -0.4350 -0.2941
 1199SOL    HW112565   4.651   1.173  12.504 -1.5349  0.2240 -0.8903
 1199SOL    HW212566   4.694   1.315  12.479  0.2072  0.2965  2.1019
 1200SOL     OW12567   7.072   0.413  11.994 -0.2470 -0.6995 -0.2690
 1200SOL    HW112568   7.144   0.380  11.940  1.0076  1.3233  0.0713
 1200SOL    HW212569   7.032   0.334  12.031  0.1192 -2.0369 -2.4920
 1201SOL     OW12570   6.618   2.937  12.062 -0.8619 -0.4438 -0.2011
 1201SOL    HW112571   6.534   2.948  12.108  0.2720 -0.2145  1.9304
 1201SOL    HW212572   6.675   3.004  12.098  0.3806 -0.8342 -1.3429
 1202SOL     OW12573   4.919   8.366  11.429  0.5642  0.2945  0.2510
 1202SOL    HW112574   4.947   8.458  11.435  0.5697  0.3054  0.0779
 1202SOL    HW212575   4.970   8.321  11.496 -0.7133  0.7161  1.5769
 1203SOL     OW12576   4.979   5.980   3.129  0.2305 -0.1778  0.4537
 1203SOL    HW112577   5.066   5.967   3.093  0.4912 -0.3682  1.1405
 1203SOL    HW212578   4.943   5.892   3.140  0.7742 -0.2228  2.1316
 1204SOL     OW12579   0.976  12.008   4.579  0.0489 -0.4340 -0.0347
 1204SOL    HW112580   0.946  12.094   4.608 -0.0313 -1.2484  2.5784
 1204SOL    HW212581   0.895  11.961   4.558  0.1501  0.8971 -4.4553
 1205SOL     OW12582   4.245   9.485   9.686  0.2575  0.5160 -0.1178
 1205SOL    HW112583   4.151   9.485   9.705  0.4053 -0.8414  0.8266
 1205SOL    HW212584   4.265   9.394   9.662  1.8430 -0.0634  2.8219
 1206SOL     OW12585  10.212   4.317   3.233  0.0457  0.4376 -0.0513
 1206SOL    HW112586  10.237   4.256   3.163  0.3043  0.5895 -0.0900
 1206SOL    HW212587  10.175   4.260   3.301  1.5604  0.0621  0.5139
 1207SOL     OW12588   8.049   9.820   1.081  0.1399 -0.7842  0.6092
 1207SOL    HW112589   7.965   9.837   1.038  0.8943  0.2134 -0.5463
 1207SOL    HW212590   8.041   9.862   1.166 -0.5004 -0.6026  0.4629
 1208SOL     OW12591   5.322  10.229   4.271  0.0061  0.2038 -0.4567
 1208SOL    HW112592   5.414  10.253   4.287  0.2599  0.0185 -1.5418
 1208SOL    HW212593   5.327  10.157   4.208 -0.9204  1.3157 -1.8670
 1209SOL     OW12594   7.501   3.501   2.934  0.2708 -0.3193 -0.1709
 1209SOL    HW112595   7.435   3.558   2.974  0.0261  0.2430 -1.3427
 1209SOL    HW212596   7.458   3.464   2.857  0.9364 -0.8921 -0.2817
 1210SOL     OW12597   8.691   5.353   4.158 -0.3158 -0.0833  0.1781
 1210SOL    HW112598   8.752   5.312   4.098 -0.7519 -0.5299  0.0351
 1210SOL    HW212599   8.638   5.281   4.192 -0.2908  0.2068  0.8454
 1211SOL     OW12600   6.060   1.391   7.537 -0.2900  0.0580  0.2462
 1211SOL    HW112601   6.051   1.299   7.562  0.2804 -0.5416 -1.6178
 1211SOL    HW212602   6.021   1.439   7.610  1.5014 -1.5301  2.4006
 1212SOL     OW12603   9.867   1.538   2.473 -0.6766 -0.5786  0.1493
 1212SOL    HW112604   9.799   1.473   2.458 -0.5337 -0.9641  1.1346
 1212SOL    HW212605   9.949   1.490   2.460 -0.5732 -0.2460 -0.4974
 1213SOL     OW12606   8.007   4.176   2.133  0.2057  0.5232  0.2450
 1213SOL    HW112607   7.990   4.236   2.206 -0.8428  1.9328 -1.0954
 1213SOL    HW212608   7.920   4.148   2.105  0.6609 -2.3625  1.3226
 1214SOL     OW12609   7.045   4.619   1.408 -0.2936 -0.2431 -0.4386
 1214SOL    HW112610   7.083   4.704   1.383 -0.2896 -0.0402  0.2429
 1214SOL    HW212611   7.050   4.567   1.328  1.8351 -0.3656 -0.2904
 1215SOL     OW12612  10.005   9.513   6.565 -0.0178 -0.2723  0.1182
 1215SOL    HW112613  10.084   9.509   6.511 -0.3969 -0.0722 -0.4558
 1215SOL    HW212614   9.973   9.423   6.567 -1.1327  0.0186 -1.7143
 1216SOL     OW12615  10.184   2.014   5.866 -0.0967 -0.5569 -0.3099
 1216SOL    HW112616  10.238   2.029   5.944 -0.6003  0.9845 -0.2147
 1216SOL    HW212617  10.139   1.931   5.883 -0.0946 -0.3178  0.9872
 1217SOL     OW12618  11.297   7.382  10.168  0.2455 -0.0208 -0.0349
 1217SOL    HW112619  11.239   7.311  10.196 -0.6178 -0.2514 -2.2138
 1217SOL    HW212620  11.346   7.405  10.247 -0.8651 -1.6752  1.2174
 1218SOL     OW12621   4.169  11.026   9.946 -0.2215 -0.3734  0.1114
 1218SOL    HW112622   4.152  11.100   9.889 -1.8454 -0.9621 -0.2022
 1218SOL    HW212623   4.212  10.962   9.889 -2.4764 -1.2470 -0.7328
 1219SOL     OW12624  11.854  11.172  10.481  0.0009 -0.0115 -0.4390
 1219SOL    HW112625  11.911  11.245  10.506  3.0761 -2.4391  0.3603
 1219SOL    HW212626  11.905  11.124  10.416 -0.4307 -3.0617  1.2689
 1220SOL     OW12627   1.106   9.535  10.927  0.1560 -0.7095 -0.0300
 1220SOL    HW112628   1.031   9.536  10.868  1.1498 -1.5121 -1.3481
 1220SOL    HW212629   1.181   9.516  10.871  1.1114 -1.7624  1.5213
 1221SOL     OW12630   7.093  12.537   6.060  0.3989 -0.0491  0.1610
 1221SOL    HW112631   7.011  12.570   6.095  0.5686  0.2542  0.2729
 1221SOL    HW212632   7.108  12.589   5.981  0.5051 -0.0763  0.1629
 1222SOL     OW12633   9.149  12.020  12.191  0.4037  0.1313 -0.2678
 1222SOL    HW112634   9.079  11.986  12.135  0.2609 -0.3017  0.1647
 1222SOL    HW212635   9.228  11.975  12.162  1.0789  2.5310 -2.5639
 1223SOL     OW12636   2.454   5.284   6.203  0.2690 -0.4991  0.4220
 1223SOL    HW112637   2.467   5.270   6.109  0.3669  0.8945  0.2068
 1223SOL    HW212638   2.407   5.367   6.209  3.0445  1.1286  1.6846
 1224SOL     OW12639   1.384   7.897   5.691  0.8608  0.2137 -0.4187
 1224SOL    HW112640   1.347   7.894   5.779 -1.1759  1.0364 -1.1865
 1224SOL    HW212641   1.402   7.806   5.669  0.5432 -0.0796  0.5115
 1225SOL     OW12642   9.046   4.961   6.801 -0.4257 -0.3144 -0.5160
 1225SOL    HW112643   9.038   4.877   6.845 -0.5654 -0.6565 -1.1874
 1225SOL    HW212644   9.128   4.998   6.834 -1.0861 -0.0403  0.8945
 1226SOL     OW12645   5.358  10.471   2.476 -0.3418 -0.1626 -0.4355
 1226SOL    HW112646   5.266  10.495   2.462 -0.5210  0.3117  1.3848
 1226SOL    HW212647   5.354  10.379   2.501 -0.3960  0.0072  0.2064
 1227SOL     OW12648   8.806  11.610  10.652  0.0129  0.2000 -0.1774
 1227SOL    HW112649   8.759  11.529  10.670  0.5580  0.0877  0.7873
 1227SOL    HW212650   8.741  11.667  10.611 -0.3930 -0.6910 -0.8114
 1228SOL     OW12651   5.400  11.815   3.420  0.2231  0.6425 -0.0411
 1228SOL    HW112652   5.453  11.797   3.342 -0.9080 -3.0914 -0.1715
 1228SOL    HW212653   5.461  11.802   3.493  0.5985  1.2501 -0.2383
 1229SOL     OW12654   8.746   4.445  11.898 -0.1385 -0.2002 -0.1337
 1229SOL    HW112655   8.699   4.518  11.857  0.3190  1.0472  1.4779
 1229SOL    HW212656   8.734   4.458  11.992  0.8480 -1.6200  0.2221
 1230SOL     OW12657   4.479  12.190   6.211 -0.0766 -0.4725  0.0983
 1230SOL    HW112658   4.545  12.137   6.255  1.4163 -0.2825 -1.7924
 1230SOL    HW212659   4.505  12.281   6.227 -0.9748 -0.3402  0.9016
 1231SOL     OW12660   9.206   3.377   3.393 -0.0452 -0.0969  0.3696
 1231SOL    HW112661   9.262   3.339   3.326 -3.9057  0.7221 -3.8749
 1231SOL    HW212662   9.217   3.472   3.382  1.6165  0.1789  3.3863
 1232SOL     OW12663   1.833   6.953  11.338 -0.3533 -0.2357 -0.1245
 1232SOL    HW112664   1.782   7.034  11.332 -2.3457 -1.1474  2.4285
 1232SOL    HW212665   1.896   6.968  11.408  0.5676 -0.2982 -0.9169
 1233SOL     OW12666  11.980  12.320   4.860 -0.3316  0.2539  0.1946
 1233SOL    HW112667  12.073  12.336   4.877  0.1907 -1.5562 -0.6474
 1233SOL    HW212668  11.943  12.300   4.946  0.4743 -0.7798  0.3196
 1234SOL     OW12669  10.531   3.986   8.870 -0.2071 -0.0498  0.6789
 1234SOL    HW112670  10.552   3.927   8.797 -1.0454 -0.2052  0.5484
 1234SOL    HW212671  10.435   3.992   8.869 -0.1930  0.4471  1.3793
 1235SOL     OW12672   7.714   9.863  11.444  0.3392  0.3331  0.0695
 1235SOL    HW112673   7.705   9.804  11.369 -0.1500  0.8401 -0.2878
 1235SOL    HW212674   7.713   9.806  11.521 -1.6066 -0.0376 -0.1773
 1236SOL     OW12675   3.830   5.645   6.702 -0.0529  0.4106 -0.4799
 1236SOL    HW112676   3.907   5.679   6.748  0.9082 -0.8326 -1.0961
 1236SOL    HW212677   3.867   5.588   6.634 -1.5070  0.3666 -1.2631
 1237SOL     OW12678   6.622  10.810  10.359 -0.4992  0.0811 -0.1494
 1237SOL    HW112679   6.543  10.857  10.385 -0.5515  0.2317 -0.5713
 1237SOL    HW212680   6.591  10.740  10.302 -0.3443  0.0443 -0.1894
 1238SOL     OW12681  11.668   4.145  11.459 -0.8085  0.6800 -0.7544
 1238SOL    HW112682  11.725   4.149  11.383 -0.4880  0.7203 -0.5138
 1238SOL    HW212683  11.586   4.110  11.425  0.1333 -1.8285 -0.6733
 1239SOL     OW12684  11.838   2.378   5.314  0.7303 -0.3878 -0.2651
 1239SOL    HW112685  11.865   2.287   5.300  1.7992 -0.1434  0.0823
 1239SOL    HW212686  11.910   2.430   5.276  1.3247  0.2938  1.6875
 1240SOL     OW12687   6.980   1.692   2.884 -0.3545 -0.0292  0.3822
 1240SOL    HW112688   7.000   1.695   2.791  1.1274 -1.0717  0.6243
 1240SOL    HW212689   6.999   1.602   2.910  0.7069  0.5853  1.9616
 1241SOL     OW12690  10.066   1.039   0.227  0.2763  0.3345  0.4320
 1241SOL    HW112691  10.071   1.131   0.250 -0.7476  0.7579 -0.9223
 1241SOL    HW212692  10.138   1.025   0.165  0.1292  0.3538  0.2547
 1242SOL     OW12693   8.753   9.501   1.021 -0.4306  0.3457  0.0773
 1242SOL    HW112694   8.713   9.453   0.948  1.1191  2.6133 -2.4334
 1242SOL    HW212695   8.826   9.445   1.048 -1.4899 -0.8902  0.4854
 1243SOL     OW12696  10.430   1.803  10.775 -0.2197 -0.4269  0.5877
 1243SOL    HW112697  10.498   1.736  10.783 -0.1379 -0.1690  2.5052
 1243SOL    HW212698  10.439   1.856  10.854 -1.6568  0.5637  0.1303
 1244SOL     OW12699   1.631   3.380   6.125 -0.1167  0.4892 -0.0605
 1244SOL    HW112700   1.612   3.377   6.219  0.9765  0.1439  0.1713
 1244SOL    HW212701   1.653   3.289   6.103 -0.5911  0.5285 -0.6971
 1245SOL     OW12702   4.529   8.837  12.025 -0.3875 -0.1950 -0.0436
 1245SOL    HW112703   4.526   8.844  11.930  0.2867 -0.1205 -0.0640
 1245SOL    HW212704   4.531   8.743  12.042  0.1549 -0.2051 -0.1349
 1246SOL     OW12705   4.288   7.093   3.885  0.0954 -0.0711  0.1820
 1246SOL    HW112706   4.258   7.184   3.882  0.6515  0.1909  1.6899
 1246SOL    HW212707   4.363   7.091   3.826  0.1574  0.4909  0.2302
 1247SOL     OW12708   6.086  11.961   3.433 -0.0393 -0.3886 -0.4312
 1247SOL    HW112709   6.069  11.875   3.472 -0.3199  0.2253  0.8774
 1247SOL    HW212710   6.038  11.961   3.351 -0.7282 -1.1816 -0.0433
 1248SOL     OW12711   7.766  11.218   8.805  0.3199 -1.0880  0.5869
 1248SOL    HW112712   7.691  11.216   8.746  0.5676  1.1176  0.0809
 1248SOL    HW212713   7.732  11.190   8.889 -1.5246  1.3037  0.7414
 1249SOL     OW12714   1.381   4.982   5.468 -0.2595  0.4831  0.3380
 1249SOL    HW112715   1.347   4.895   5.488  0.5980  0.2604  0.8782
 1249SOL    HW212716   1.305   5.030   5.436 -0.5118 -0.8139 -1.1218
 1250SOL     OW12717   1.490   2.172   3.494 -0.1459  0.1410 -0.2338
 1250SOL    HW112718   1.528   2.189   3.407 -0.1971  1.3231 -0.0440
 1250SOL    HW212719   1.468   2.259   3.528  2.6371  0.0033  2.2398
 1251SOL     OW12720   9.818   1.112  10.037  0.2894  0.3605  0.9314
 1251SOL    HW112721   9.876   1.184  10.015  0.0055  0.0469 -1.0126
 1251SOL    HW212722   9.849   1.038   9.985 -2.4727  0.4970 -1.1827
 1252SOL     OW12723   3.067   6.825   3.073  0.0687  0.5676  0.2748
 1252SOL    HW112724   3.063   6.768   3.150 -3.6034  0.0219 -0.1596
 1252SOL    HW212725   2.998   6.793   3.016  1.7749  1.8125 -2.7334
 1253SOL     OW12726   9.693   6.167  10.075 -0.0880  0.3646  1.4498
 1253SOL    HW112727   9.650   6.249  10.050 -0.1889 -0.5673 -1.8818
 1253SOL    HW212728   9.763   6.194  10.134 -0.8307  2.7049  1.3788
 1254SOL     OW12729  12.098  11.009   6.321 -0.0574 -0.4238  0.1107
 1254SOL    HW112730  12.068  11.092   6.286  0.3568 -0.9180 -1.5330
 1254SOL    HW212731  12.022  10.951   6.313 -0.1329 -0.3964  0.5919
 1255SOL     OW12732   5.471   0.237   5.961 -0.1495  0.0486 -0.3206
 1255SOL    HW112733   5.390   0.242   5.910 -0.0063  1.3122 -0.4544
 1255SOL    HW212734   5.456   0.165   6.022 -1.2774  0.1107 -0.5001
 1256SOL     OW12735   6.121   6.470  12.193 -0.2233 -0.4839 -0.1270
 1256SOL    HW112736   6.032   6.496  12.216 -0.2082 -0.3943 -0.1690
 1256SOL    HW212737   6.113   6.378  12.167 -0.1305 -0.7694  0.8400
 1257SOL     OW12738   3.658   1.566   8.674 -0.2495 -0.2948  0.4940
 1257SOL    HW112739   3.730   1.505   8.686 -0.0375 -0.2113 -0.3321
 1257SOL    HW212740   3.583   1.511   8.653 -0.0422 -0.2689 -0.3221
 1258SOL     OW12741  11.652  11.707  10.175  0.2309  0.3855  0.0662
 1258SOL    HW112742  11.610  11.710  10.261  1.6168 -0.1619  0.8012
 1258SOL    HW212743  11.669  11.798  10.152 -1.0248  0.5907 -0.0977
 1259SOL     OW12744   4.386   3.774   2.448  0.0936 -0.0104 -0.4747
 1259SOL    HW112745   4.304   3.824   2.440  2.0645  3.2861 -2.0502
 1259SOL    HW212746   4.364   3.703   2.508 -4.0783  0.2611 -1.3555
 1260SOL     OW12747   5.443   7.156   5.289 -0.2763  0.2308  0.0006
 1260SOL    HW112748   5.468   7.178   5.378  0.7137  0.8734 -0.4158
 1260SOL    HW212749   5.348   7.162   5.288 -0.4347 -1.3789  1.4048
 1261SOL     OW12750   7.935   8.420   5.400  0.2367 -0.0249  0.9236
 1261SOL    HW112751   7.868   8.352   5.402  1.5414 -1.3576  2.5957
 1261SOL    HW212752   7.895   8.492   5.351 -0.8919 -2.2762 -1.7526
 1262SOL     OW12753   8.013  10.990   7.628  0.2804 -0.7092  0.1101
 1262SOL    HW112754   7.969  10.906   7.618 -1.0784 -0.0284  0.2209
 1262SOL    HW212755   8.000  11.035   7.545 -1.2030  0.3912  0.8959
 1263SOL     OW12756   7.962   5.233  11.602  0.1267  0.7268  0.0171
 1263SOL    HW112757   7.987   5.141  11.611 -0.2905  0.5298 -0.7428
 1263SOL    HW212758   7.922   5.255  11.686  1.9549  0.7799  0.9090
 1264SOL     OW12759  11.887   0.516   0.298 -0.0478  0.5205  0.0504
 1264SOL    HW112760  11.883   0.480   0.386  0.0264  1.7701  0.5837
 1264SOL    HW212761  11.980   0.517   0.277 -0.1245 -0.5826 -0.4035
 1265SOL     OW12762   6.349   4.733  10.077 -0.2558 -0.6200 -0.1854
 1265SOL    HW112763   6.433   4.708  10.114  0.1059 -1.2566 -1.3726
 1265SOL    HW212764   6.287   4.726  10.150  0.9025  1.1013  1.0141
 1266SOL     OW12765   6.062   6.836   0.121 -0.4684 -0.6626  0.0453
 1266SOL    HW112766   6.088   6.889   0.197 -1.6811  2.0429 -1.2898
 1266SOL    HW212767   5.973   6.809   0.140 -0.7997  0.0800 -0.4123
 1267SOL     OW12768   6.560   5.664  10.116 -0.3152  0.6198 -0.0690
 1267SOL    HW112769   6.635   5.614  10.150 -1.9840 -0.9527  1.5404
 1267SOL    HW212770   6.513   5.602  10.060 -1.0552  1.2255 -0.1377
 1268SOL     OW12771   8.194   3.338   7.151  0.2077  0.0479 -0.1201
 1268SOL    HW112772   8.160   3.395   7.082  1.4637  0.0276 -0.7982
 1268SOL    HW212773   8.127   3.272   7.163  0.0163 -0.0396 -1.4498
 1269SOL     OW12774   9.479  10.737  12.475  0.1418 -0.7223 -0.3657
 1269SOL    HW112775   9.552  10.682  12.447  0.6244 -0.6345  0.6945
 1269SOL    HW212776   9.406  10.677  12.487  0.6712 -1.1578  0.8102
 1270SOL     OW12777   2.559   9.041   0.955  0.2216 -0.3682 -0.0635
 1270SOL    HW112778   2.551   8.954   0.994 -1.0440 -0.1432  0.2272
 1270SOL    HW212779   2.469   9.074   0.952  0.8901  2.2090  2.8279
 1271SOL     OW12780   5.882   8.195  11.301 -0.2193 -0.5351  0.6823
 1271SOL    HW112781   5.967   8.216  11.262 -0.1232  0.6295  1.4777
 1271SOL    HW212782   5.875   8.100  11.293  0.6311 -0.5267 -0.4581
 1272SOL     OW12783   3.447   2.498   9.715 -0.0149  0.2961 -0.3873
 1272SOL    HW112784   3.518   2.435   9.731 -2.3055 -2.2975  0.4317
 1272SOL    HW212785   3.473   2.542   9.634  1.3269 -2.4401 -1.5912
 1273SOL     OW12786   1.444   3.549   7.661  0.2200  0.2605  0.3518
 1273SOL    HW112787   1.536   3.524   7.653  0.6305  1.8587 -0.5092
 1273SOL    HW212788   1.430   3.609   7.587 -1.8920 -0.9820 -0.3124
 1274SOL     OW12789   7.921   0.976   8.629  0.4148 -0.3447 -0.0810
 1274SOL    HW112790   7.840   0.991   8.678  1.2121 -0.2827  1.2726
 1274SOL    HW212791   7.912   1.030   8.550 -0.3329  0.6786  0.6733
 1275SOL     OW12792  12.278   0.093  12.177 -0.0462 -0.0722 -0.3437
 1275SOL    HW112793  12.339   0.166  12.165  0.3112  0.1301  2.1881
 1275SOL    HW212794  12.192   0.130  12.160  0.2146  0.7142 -0.0085
 1276SOL     OW12795   0.904   6.266   0.935  0.6547  0.0250 -0.5281
 1276SOL    HW112796   0.885   6.317   1.013 -2.2319  0.1012 -1.1557
 1276SOL    HW212797   0.881   6.324   0.862 -2.2807 -1.8305 -1.2592
 1277SOL     OW12798  10.588   2.692   2.648 -0.0603  0.0824  0.1898
 1277SOL    HW112799  10.531   2.653   2.714  0.2789 -1.4755 -0.3974
 1277SOL    HW212800  10.541   2.681   2.565  0.4541  0.0795 -0.1072
 1278SOL     OW12801   4.025   7.102   8.764  0.5421 -0.4413 -0.0970
 1278SOL    HW112802   3.984   7.017   8.745  0.9026 -0.7603  0.4918
 1278SOL    HW212803   3.965   7.143   8.826  0.6201 -0.4913  0.0133
 1279SOL     OW12804   4.771   6.451   6.620 -0.4684  0.1202 -0.1929
 1279SOL    HW112805   4.790   6.368   6.576  0.1251 -0.3508  0.9040
 1279SOL    HW212806   4.821   6.516   6.571  2.0345 -0.7203  1.0571
 1280SOL     OW12807  11.416   8.216   2.798  0.0329  0.2198  0.0321
 1280SOL    HW112808  11.480   8.174   2.855 -0.0855  0.6756  0.5097
 1280SOL    HW212809  11.344   8.240   2.856 -0.0698  0.7247 -0.2976
 1281SOL     OW12810   3.955   3.787   9.214  0.1405 -0.1464  0.3882
 1281SOL    HW112811   4.004   3.709   9.237 -0.8262 -0.5509  1.1852
 1281SOL    HW212812   3.938   3.830   9.298 -1.0529 -0.1588  0.1807
 1282SOL     OW12813  10.597   2.184  10.812 -0.4278  0.0510 -0.1345
 1282SOL    HW112814  10.552   2.133  10.880 -0.8312  1.7802  0.9600
 1282SOL    HW212815  10.551   2.161  10.731 -0.7963 -1.0502  0.3591
 1283SOL     OW12816  10.418   7.154   2.629 -0.5300 -0.3345  0.1620
 1283SOL    HW112817  10.375   7.237   2.608  0.8255  0.0166 -1.4696
 1283SOL    HW212818  10.481   7.176   2.697 -0.9087 -0.2436  0.4820
 1284SOL     OW12819   0.389   8.865  11.129  0.5774  0.0078 -0.2632
 1284SOL    HW112820   0.342   8.835  11.051  1.0872 -0.8004 -0.2817
 1284SOL    HW212821   0.400   8.786  11.181  2.5039  0.0145 -0.5844
 1285SOL     OW12822   9.598   6.088   4.794  0.4937 -0.0401 -0.1338
 1285SOL    HW112823   9.651   6.109   4.718 -0.2344  0.4706 -0.5196
 1285SOL    HW212824   9.627   6.149   4.862  0.2879  0.3640 -0.4011
 1286SOL     OW12825   3.311   0.448  12.257  0.7715  0.4113 -0.1353
 1286SOL    HW112826   3.360   0.400  12.190  0.1726 -1.0211  0.4057
 1286SOL    HW212827   3.268   0.519  12.209  2.3483  0.9477 -0.8200
 1287SOL     OW12828   1.777  12.281   4.350 -0.1795 -0.0136  0.5314
 1287SOL    HW112829   1.829  12.324   4.282 -1.1292  1.4480  0.6920
 1287SOL    HW212830   1.694  12.259   4.307 -0.1838 -0.5211  0.7935
 1288SOL     OW12831  12.453   6.202   7.190  0.1081  0.1872 -0.3035
 1288SOL    HW112832  12.511   6.277   7.178  1.4902 -0.9079 -0.6458
 1288SOL    HW212833  12.502   6.128   7.156 -1.1252 -0.9319  0.2798
 1289SOL     OW12834   3.634   3.064   5.580  0.1465  0.2829 -0.0354
 1289SOL    HW112835   3.702   3.118   5.621  0.3504  0.5960 -0.7649
 1289SOL    HW212836   3.671   2.976   5.577  0.4272  0.4034 -0.2056
 1290SOL     OW12837   2.570   0.620   4.150 -0.4345  0.4651  0.4224
 1290SOL    HW112838   2.596   0.654   4.064  0.6176 -0.5468  0.3251
 1290SOL    HW212839   2.581   0.694   4.209  2.0547  0.2937  0.2573
 1291SOL     OW12840   9.884   1.278   6.775  0.1794  0.7341 -0.4233
 1291SOL    HW112841   9.942   1.229   6.716 -0.4882  0.3884 -0.7959
 1291SOL    HW212842   9.869   1.220   6.849 -0.4475  0.4518 -0.7693
 1292SOL     OW12843   7.733   2.516   3.292  0.4773 -0.3176  0.2443
 1292SOL    HW112844   7.805   2.454   3.290  0.6050 -0.1919  0.9917
 1292SOL    HW212845   7.707   2.521   3.383  0.9933  1.3192  0.3419
 1293SOL     OW12846   0.612  11.631   8.266  0.0278 -0.0323  0.2273
 1293SOL    HW112847   0.517  11.639   8.251  0.2661  0.6770 -1.0188
 1293SOL    HW212848   0.623  11.541   8.296 -0.9437 -0.4459 -0.5841
 1294SOL     OW12849  10.205   1.408  11.396 -0.1872  0.7873 -0.1842
 1294SOL    HW112850  10.263   1.340  11.362 -0.2124  0.1739  0.9305
 1294SOL    HW212851  10.121   1.364  11.406  0.1587  0.5100  1.9557
 1295SOL     OW12852   6.806  12.353   3.365  0.0798 -0.0700  0.1466
 1295SOL    HW112853   6.872  12.369   3.433  0.9787 -0.3083 -0.6457
 1295SOL    HW212854   6.840  12.278   3.316 -1.1332 -0.6436  0.1406
 1296SOL     OW12855   7.335   3.780   6.969 -0.1379  0.5319  0.3324
 1296SOL    HW112856   7.325   3.861   6.919  0.9601 -0.2786 -1.2950
 1296SOL    HW212857   7.365   3.808   7.055  0.6604  1.8541 -0.3440
 1297SOL     OW12858   9.791   7.588  11.468  0.0813 -0.2880 -0.3949
 1297SOL    HW112859   9.842   7.596  11.388 -2.0245 -0.6513 -1.8764
 1297SOL    HW212860   9.797   7.496  11.493 -0.8642 -0.6374 -1.3507
 1298SOL     OW12861   6.550   5.114  12.018  0.4380 -0.0984  0.2510
 1298SOL    HW112862   6.482   5.049  12.034 -0.2156  0.9114  1.7182
 1298SOL    HW212863   6.610   5.105  12.092  0.1761  1.1646  0.6248
 1299SOL     OW12864   2.048   4.011   6.936 -0.0920 -0.7925 -0.0431
 1299SOL    HW112865   1.990   3.947   6.977 -1.9343 -0.5413 -2.1003
 1299SOL    HW212866   1.990   4.067   6.886  1.5992  1.7563  0.6655
 1300SOL     OW12867   7.823   1.745   0.537  0.4434 -0.1076  0.6063
 1300SOL    HW112868   7.743   1.693   0.532  0.3778 -0.0014  0.5296
 1300SOL    HW212869   7.792   1.836   0.538  0.5438 -0.0807  1.0702
 1301SOL     OW12870   5.299   2.684   1.490 -0.2533 -0.4639 -0.2990
 1301SOL    HW112871   5.386   2.710   1.459 -0.4446 -0.2945 -0.7007
 1301SOL    HW212872   5.291   2.593   1.464  0.6523 -1.1416  1.6246
 1302SOL     OW12873   6.208   3.477   7.703  0.5210 -0.3731  0.1874
 1302SOL    HW112874   6.236   3.512   7.619  0.1963  1.1474  0.6909
 1302SOL    HW212875   6.190   3.384   7.686  0.7031 -0.1409 -1.3410
 1303SOL     OW12876   1.371   8.723   0.098 -0.2051  0.0995  0.1723
 1303SOL    HW112877   1.363   8.808   0.055 -0.8311 -0.3680 -0.6721
 1303SOL    HW212878   1.325   8.663   0.040  0.4992 -0.8730  0.5983
 1304SOL     OW12879   1.038   4.102   6.256  1.2253  0.7016  0.4881
 1304SOL    HW112880   1.011   4.193   6.253 -0.0146  0.5109  2.9483
 1304SOL    HW212881   1.058   4.086   6.348 -1.4787 -2.2267  0.7388
 1305SOL     OW12882   3.569   7.868   9.433 -0.4062  0.3029  0.5730
 1305SOL    HW112883   3.650   7.818   9.446 -1.2130 -1.0076  0.7138
 1305SOL    HW212884   3.529   7.871   9.520 -0.8024  0.4140  0.3845
 1306SOL     OW12885   0.309  10.113   2.656 -0.0803  0.1793  0.3255
 1306SOL    HW112886   0.346  10.031   2.622 -0.2913  0.9312 -1.8827
 1306SOL    HW212887   0.328  10.177   2.588 -2.0053  1.4495  0.9067
 1307SOL     OW12888   4.298   4.866   1.298 -0.3792 -0.8849  0.2998
 1307SOL    HW112889   4.209   4.902   1.297 -0.0796  0.0284  2.1549
 1307SOL    HW212890   4.300   4.809   1.374  0.8191 -0.2915  0.7474
 1308SOL     OW12891   5.963   5.871   5.515  0.1642  0.9854  0.1993
 1308SOL    HW112892   5.987   5.846   5.604  1.1503  1.0394 -0.0433
 1308SOL    HW212893   5.895   5.937   5.526 -2.5881 -1.6912  0.8904
 1309SOL     OW12894   3.622  10.029  11.851  0.4039  0.0321 -0.0001
 1309SOL    HW112895   3.648  10.108  11.803 -1.7668  0.4426 -0.6268
 1309SOL    HW212896   3.532  10.047  11.878  0.4123 -1.6157  1.2369
 1310SOL     OW12897  12.579   2.002   0.800  0.0901  0.1289  0.3158
 1310SOL    HW112898  12.498   1.960   0.774 -1.2493  1.8221  1.5084
 1310SOL    HW212899  12.561   2.096   0.795  1.6064  0.5534  1.6497
 1311SOL     OW12900   5.351   4.949  11.794  0.1932 -0.1252  0.4585
 1311SOL    HW112901   5.373   4.975  11.883 -0.9395 -2.7519  1.6178
 1311SOL    HW212902   5.407   4.873  11.777  1.7635  1.4243 -1.8613
 1312SOL     OW12903   8.642   1.286   5.731  0.8217  0.3647  0.1498
 1312SOL    HW112904   8.652   1.348   5.659 -0.7518  1.0558  0.4835
 1312SOL    HW212905   8.574   1.325   5.787  0.1397 -1.4130  0.6311
 1313SOL     OW12906   7.455   5.482  11.711  0.1404  0.1763  0.0596
 1313SOL    HW112907   7.516   5.512  11.644 -0.5970  0.2872 -0.5818
 1313SOL    HW212908   7.456   5.387  11.702 -0.7405  0.2329 -0.8464
 1314SOL     OW12909   6.007   7.656   1.727  0.1077 -0.0738  0.3802
 1314SOL    HW112910   5.945   7.584   1.723 -0.0870  0.1390 -1.7593
 1314SOL    HW212911   6.089   7.616   1.758  0.5188 -1.6947 -2.4244
 1315SOL     OW12912  12.379   4.498  11.199 -0.2815  0.1736 -0.0516
 1315SOL    HW112913  12.358   4.534  11.113 -0.7788  2.1256  0.8267
 1315SOL    HW212914  12.474   4.499  11.203 -0.2742  0.7914 -0.3038
 1316SOL     OW12915   8.313   8.365   9.645 -0.6436  0.2892 -0.4253
 1316SOL    HW112916   8.262   8.411   9.712  0.2356 -0.5036  0.8408
 1316SOL    HW212917   8.402   8.400   9.654 -0.4118 -0.1810 -0.8268
 1317SOL     OW12918   3.003   7.302   4.097 -0.6515  0.2469  0.1593
 1317SOL    HW112919   3.062   7.291   4.172  1.1221  0.9657 -1.0478
 1317SOL    HW212920   2.988   7.397   4.092  0.0020  0.3069 -0.9113
 1318SOL     OW12921   2.737  10.773   4.100  0.1102 -0.2674 -0.0295
 1318SOL    HW112922   2.712  10.717   4.173 -0.9571  0.1223 -0.0700
 1318SOL    HW212923   2.698  10.858   4.120  2.9290  0.9430  0.7634
 1319SOL     OW12924   5.211   5.422  12.271 -0.4132 -0.5525 -0.5205
 1319SOL    HW112925   5.267   5.479  12.324  0.3756 -0.3427 -1.5451
 1319SOL    HW212926   5.142   5.480  12.238  0.0809 -0.2931 -1.1189
 1320SOL     OW12927   2.936   6.616  10.878 -0.3435 -0.1845  0.2498
 1320SOL    HW112928   2.875   6.563  10.827 -0.9217 -1.0118  1.7550
 1320SOL    HW212929   2.975   6.555  10.940  1.8224  0.3954 -0.4631
 1321SOL     OW12930   6.964   4.501   2.614  0.0142 -0.1532  0.1022
 1321SOL    HW112931   6.969   4.584   2.662 -1.2923 -0.3045  0.5290
 1321SOL    HW212932   7.049   4.494   2.570 -0.1236  1.8077 -0.5917
 1322SOL     OW12933   6.363   2.532   4.328  0.5280 -0.9072  0.1675
 1322SOL    HW112934   6.427   2.550   4.397  0.8665 -0.6650 -0.2071
 1322SOL    HW212935   6.278   2.554   4.368  0.6685 -1.2969  0.6867
 1323SOL     OW12936  10.612   5.614   1.406  0.2481 -0.1485  0.3391
 1323SOL    HW112937  10.633   5.583   1.494 -0.0697  0.0879  0.5011
 1323SOL    HW212938  10.674   5.568   1.349  1.7855  1.1414  0.8793
 1324SOL     OW12939   9.012   5.568   0.373 -0.2998  0.3195 -0.1090
 1324SOL    HW112940   8.970   5.482   0.380 -1.1775  0.7388 -0.0673
 1324SOL    HW212941   8.997   5.594   0.282 -1.8311  1.2945  0.3742
 1325SOL     OW12942   0.640   8.293   2.827 -0.5133  0.4238 -0.2743
 1325SOL    HW112943   0.735   8.294   2.842 -0.6715 -0.3045  0.8751
 1325SOL    HW212944   0.602   8.321   2.910 -1.2962  2.2019 -1.1699
 1326SOL     OW12945   6.971   5.942   5.849  0.1704 -0.3180 -0.2285
 1326SOL    HW112946   6.931   5.877   5.906 -1.0404  2.0244  1.7950
 1326SOL    HW212947   7.053   5.965   5.892  1.1185 -1.1861 -1.4891
 1327SOL     OW12948   8.042   8.207   1.337  0.6233 -0.4306 -0.1101
 1327SOL    HW112949   7.961   8.258   1.336 -0.7808 -2.5355 -0.6928
 1327SOL    HW212950   8.103   8.258   1.284 -0.3321  1.1464  0.2428
 1328SOL     OW12951   6.160  11.223   0.849  0.0055  0.2471 -0.9249
 1328SOL    HW112952   6.110  11.145   0.822 -0.9649  0.8346 -0.8457
 1328SOL    HW212953   6.164  11.217   0.944 -0.8577  0.7537 -0.8460
 1329SOL     OW12954   2.374   2.715  11.409 -0.2285  0.0263  0.6344
 1329SOL    HW112955   2.368   2.683  11.319 -0.5474 -0.1853  0.7306
 1329SOL    HW212956   2.345   2.807  11.404  0.2014  0.1532  0.4455
 1330SOL     OW12957  10.978   6.755   6.913 -0.4451  0.2680 -0.4403
 1330SOL    HW112958  10.891   6.795   6.908 -1.0907 -0.9956  0.1931
 1330SOL    HW212959  10.962   6.661   6.904  1.0574  0.1280 -2.2715
 1331SOL     OW12960  11.763   7.246  10.670 -0.8579 -0.1347 -0.2400
 1331SOL    HW112961  11.676   7.207  10.683 -0.4884 -0.7175  0.6482
 1331SOL    HW212962  11.758   7.331  10.714 -0.0006 -1.5739  2.9351
 1332SOL     OW12963   6.584   2.707   7.508  0.4973  0.3713 -0.7369
 1332SOL    HW112964   6.654   2.642   7.503 -0.0454 -0.1721 -1.5230
 1332SOL    HW212965   6.503   2.656   7.512  0.0297  0.9783 -1.8585
 1333SOL     OW12966  11.440   3.600   1.521 -0.1555 -0.0156  0.2306
 1333SOL    HW112967  11.527   3.561   1.527  0.2360  1.0281  4.4690
 1333SOL    HW212968  11.456   3.693   1.509 -0.7796  0.0339 -0.2856
 1334SOL     OW12969   4.100   0.666   6.623  0.1696 -0.2437 -0.6785
 1334SOL    HW112970   4.183   0.711   6.639  0.7519 -1.2426 -0.8410
 1334SOL    HW212971   4.040   0.735   6.596  0.7996  0.5714 -0.0496
 1335SOL     OW12972   9.352   9.543   6.020  0.1235 -0.0236 -0.1525
 1335SOL    HW112973   9.382   9.537   6.111  1.2533 -1.2015 -0.5755
 1335SOL    HW212974   9.395   9.621   5.985  0.6948 -0.2692 -0.0159
 1336SOL     OW12975   5.485  11.966  11.700  0.2146  0.4862  0.4276
 1336SOL    HW112976   5.486  11.974  11.795 -1.1370  2.4344  0.3378
 1336SOL    HW212977   5.577  11.976  11.674  0.5257  0.5152  1.4940
 1337SOL     OW12978   6.389   7.545   0.318  0.8611 -0.0337  0.5663
 1337SOL    HW112979   6.336   7.552   0.238 -4.4421  3.2016  3.7796
 1337SOL    HW212980   6.448   7.620   0.315 -0.2826  0.8784  0.2115
 1338SOL     OW12981   5.371   1.248   9.938 -0.4224 -0.0493  0.2969
 1338SOL    HW112982   5.365   1.341   9.957  1.2134 -0.4661  3.6668
 1338SOL    HW212983   5.289   1.211   9.970  0.4413 -0.1389  2.5925
 1339SOL     OW12984   9.015   4.773  10.671  0.0220  0.2328 -0.2469
 1339SOL    HW112985   8.968   4.690  10.659 -0.5607  0.4991  0.1374
 1339SOL    HW212986   8.954   4.840  10.642  0.5191  0.5252 -0.6170
 1340SOL     OW12987  11.660   3.135   4.136  0.1535 -0.0920 -0.1868
 1340SOL    HW112988  11.673   3.227   4.112 -1.9505  0.9812  2.2319
 1340SOL    HW212989  11.732   3.116   4.197 -1.2974  1.1998  2.0745
 1341SOL     OW12990   8.009   6.180   0.889  0.4331  0.0098 -1.1022
 1341SOL    HW112991   8.104   6.191   0.885  0.2221  1.8296 -1.9352
 1341SOL    HW212992   7.989   6.122   0.816  1.0112 -1.6232 -0.0302
 1342SOL     OW12993   3.827   9.861   7.357  0.1505 -0.1226  0.2409
 1342SOL    HW112994   3.842   9.946   7.398 -0.0926 -0.2178  0.5233
 1342SOL    HW212995   3.881   9.800   7.407  2.0490  0.2013 -1.2884
 1343SOL     OW12996  12.499   7.738   8.971 -0.1329 -0.2707  0.4812
 1343SOL    HW112997  12.453   7.780   8.899  0.4166  0.0621  0.3272
 1343SOL    HW212998  12.561   7.679   8.929 -0.5025 -0.8243  0.6926
 1344SOL     OW12999  11.140   2.266   8.578  0.2100  0.4771  0.0401
 1344SOL    HW113000  11.178   2.227   8.657  0.3677 -0.0336 -0.2773
 1344SOL    HW213001  11.054   2.298   8.605  0.9281  1.8216  0.8211
 1345SOL     OW13002   3.562   6.930   7.622  0.6266 -0.1305  0.2070
 1345SOL    HW113003   3.629   6.949   7.556 -1.2328  1.1847 -1.4152
 1345SOL    HW213004   3.497   6.999   7.609 -1.3051 -1.6847  1.3328
 1346SOL     OW13005   2.148   8.725   1.932 -0.4069 -0.0173  0.0706
 1346SOL    HW113006   2.090   8.795   1.901  0.7373  1.5553  1.2897
 1346SOL    HW213007   2.142   8.657   1.865  0.3169  2.2740 -2.4840
 1347SOL     OW13008   2.129   6.919   9.608 -0.1331  0.2894  0.2152
 1347SOL    HW113009   2.039   6.922   9.575 -0.8356 -1.0284  1.8766
 1347SOL    HW213010   2.174   6.860   9.548 -0.9776 -0.8070  0.6160
 1348SOL     OW13011   1.410  10.654   6.093 -0.5549  0.5343  0.0489
 1348SOL    HW113012   1.487  10.683   6.043  1.7165 -2.6094  1.3133
 1348SOL    HW213013   1.432  10.674   6.184 -1.1031 -0.6172  0.4537
 1349SOL     OW13014   1.272   4.459   7.472  0.6390 -0.5540 -0.1798
 1349SOL    HW113015   1.365   4.447   7.458  0.6681 -1.1311  0.4413
 1349SOL    HW213016   1.230   4.421   7.395  0.9257  0.1217 -0.6756
 1350SOL     OW13017  11.322   2.303   3.789  0.1291 -0.7911  0.8328
 1350SOL    HW113018  11.326   2.281   3.696 -0.4996  0.3100  0.5275
 1350SOL    HW213019  11.362   2.229   3.833 -0.8727 -2.0033 -0.2188
 1351SOL     OW13020   5.858   5.081   5.707 -0.2280 -0.4684  0.1131
 1351SOL    HW113021   5.910   5.158   5.729 -0.2788 -0.6128  0.7450
 1351SOL    HW213022   5.854   5.030   5.788  0.6231 -1.6252 -0.5366
 1352SOL     OW13023  11.760  10.117   4.789  0.0860  0.4314 -0.1144
 1352SOL    HW113024  11.793  10.194   4.743  2.2030 -0.9128 -0.9645
 1352SOL    HW213025  11.671  10.106   4.756  0.1453  1.8477 -0.8229
 1353SOL     OW13026   4.277   6.917   3.563 -0.0634  0.2349  0.1121
 1353SOL    HW113027   4.296   6.873   3.645  1.7780 -0.7802 -0.7917
 1353SOL    HW213028   4.363   6.945   3.530 -0.9950  3.1390 -0.1388
 1354SOL     OW13029   0.297   1.437   6.437 -0.6798 -0.4443 -0.0252
 1354SOL    HW113030   0.227   1.389   6.482  0.1367  0.1408  2.0015
 1354SOL    HW213031   0.326   1.502   6.501  0.3105  0.7234 -1.5844
 1355SOL     OW13032   2.128   3.298   1.513 -0.3281  0.0633 -0.0881
 1355SOL    HW113033   2.112   3.320   1.605  0.0212  0.1423 -0.0446
 1355SOL    HW213034   2.205   3.350   1.489 -0.1314 -0.3194 -0.2900
 1356SOL     OW13035   1.015   8.228   0.560 -0.5447 -0.1862  0.1837
 1356SOL    HW113036   0.943   8.247   0.499 -0.8773 -0.0512  0.6158
 1356SOL    HW213037   1.007   8.294   0.628 -0.8560 -1.0114  0.9651
 1357SOL     OW13038   0.486   0.036   3.162  0.5080  0.5851 -0.5269
 1357SOL    HW113039   0.476   0.042   3.067 -1.8900 -2.0893 -0.5859
 1357SOL    HW213040   0.402   0.066   3.197  0.5596 -0.4939  0.5826
 1358SOL     OW13041   1.954  12.049   3.014  0.0704 -0.7698  0.3380
 1358SOL    HW113042   1.947  12.102   2.934  1.1176 -0.6022  0.3464
 1358SOL    HW213043   1.914  12.104   3.082  1.1516  0.0425  0.3484
 1359SOL     OW13044   2.497   5.376  10.861  0.0622 -0.3440  0.1490
 1359SOL    HW113045   2.589   5.365  10.837  0.7570  0.3339  2.2677
 1359SOL    HW213046   2.459   5.289  10.853  1.0481 -0.7570 -0.1652
 1360SOL     OW13047  10.047   5.218   9.771 -0.0677 -0.2669 -0.2282
 1360SOL    HW113048  10.137   5.185   9.777 -0.3274 -0.7870  1.2708
 1360SOL    HW213049  10.031   5.227   9.677  1.7566  0.4411 -0.5033
 1361SOL     OW13050   3.844   9.508   6.706 -0.5417 -0.4677  0.5136
 1361SOL    HW113051   3.780   9.565   6.663  0.5202 -0.9707 -1.9019
 1361SOL    HW213052   3.829   9.422   6.666 -1.3965 -1.7336  3.3113
 1362SOL     OW13053   8.967   2.149   2.237  0.0173 -0.6054 -0.3982
 1362SOL    HW113054   8.882   2.178   2.204 -0.8208 -0.0331  2.0458
 1362SOL    HW213055   9.030   2.184   2.174 -1.4689 -0.1843 -1.7265
 1363SOL     OW13056   2.266   7.566   5.695  0.0292  0.7239 -0.6693
 1363SOL    HW113057   2.229   7.498   5.639  0.4026  0.1470 -0.2194
 1363SOL    HW213058   2.283   7.639   5.635 -1.3402  0.8244 -0.9726
 1364SOL     OW13059   8.744   5.182   0.141 -0.0568  0.4029 -0.4911
 1364SOL    HW113060   8.663   5.217   0.104 -0.2908  1.1228  0.6700
 1364SOL    HW213061   8.718   5.099   0.181 -0.7304  1.6423  1.8087
 1365SOL     OW13062   6.800   8.719   8.048 -0.7179  0.1138  0.7803
 1365SOL    HW113063   6.765   8.677   8.126 -1.1096  0.4322  0.7818
 1365SOL    HW213064   6.815   8.810   8.075  1.0627 -0.2306  1.0766
 1366SOL     OW13065   0.758  12.196   7.878 -0.1947  0.2369 -0.4711
 1366SOL    HW113066   0.674  12.167   7.912 -0.2890  1.3448  0.2984
 1366SOL    HW213067   0.739  12.278   7.832  0.4265  0.3878 -0.4739
 1367SOL     OW13068   0.054   4.732   7.722  0.3857  0.4203 -0.0723
 1367SOL    HW113069   0.011   4.658   7.765  0.1877  1.1894  1.1301
 1367SOL    HW213070   0.144   4.729   7.754  1.0825 -0.7646 -2.0247
 1368SOL     OW13071   5.323   3.026   4.893  1.0247  0.4160  0.6155
 1368SOL    HW113072   5.332   3.061   4.982  0.9865  0.6147  0.5420
 1368SOL    HW213073   5.229   3.016   4.880  1.0618 -0.4819  0.9290
 1369SOL     OW13074   7.927   5.060   6.505  0.3773  0.4356 -0.3435
 1369SOL    HW113075   7.919   4.981   6.453  0.9914  0.4729 -0.5075
 1369SOL    HW213076   7.902   5.034   6.594  0.7383  0.0178 -0.3625
 1370SOL     OW13077   4.861   7.788   4.855 -0.1216 -0.3484  0.3499
 1370SOL    HW113078   4.932   7.760   4.913  0.1689  0.1711  0.2566
 1370SOL    HW213079   4.817   7.707   4.830  1.2214 -0.8188 -0.5966
 1371SOL     OW13080   6.846   1.911   6.622 -0.2959 -0.6005 -0.3347
 1371SOL    HW113081   6.868   1.885   6.532  1.2288  2.9077 -1.1265
 1371SOL    HW213082   6.929   1.915   6.668 -0.5275  1.6470 -0.0103
 1372SOL     OW13083   7.494  12.428   8.958  0.5232 -0.1328 -0.1897
 1372SOL    HW113084   7.538  12.502   9.001  0.3244 -0.4032  0.4841
 1372SOL    HW213085   7.558  12.397   8.894 -0.0596  1.7700 -1.8119
 1373SOL     OW13086   7.302   9.908   0.544  0.3284 -0.0539  0.1542
 1373SOL    HW113087   7.375   9.966   0.524 -0.7234  1.1948 -0.1981
 1373SOL    HW213088   7.259   9.894   0.459 -0.4180  0.0401  0.5092
 1374SOL     OW13089   5.634   5.423   3.135  0.6154 -0.3699 -0.7025
 1374SOL    HW113090   5.717   5.387   3.164  0.1676 -0.7523  0.1354
 1374SOL    HW213091   5.641   5.517   3.152  0.9898 -0.3618 -0.9124
 1375SOL     OW13092   1.607   5.444   0.571  0.5423  0.1443  0.8985
 1375SOL    HW113093   1.618   5.353   0.545 -1.3300 -0.6613  2.6474
 1375SOL    HW213094   1.693   5.470   0.605  1.1861 -0.8366  0.0846
 1376SOL     OW13095   1.804   3.751  10.901 -0.4123 -0.1481 -0.2448
 1376SOL    HW113096   1.819   3.794  10.985  0.0471 -1.9319  0.6323
 1376SOL    HW213097   1.849   3.806  10.837 -0.8929  1.3186  0.6423
 1377SOL     OW13098   4.632   8.537   0.631 -0.2651  0.6736 -0.1159
 1377SOL    HW113099   4.557   8.484   0.657 -0.5212  1.0738 -0.0456
 1377SOL    HW213100   4.595   8.622   0.608  0.0423  0.5398 -1.1155
 1378SOL     OW13101   0.691   6.181   2.309 -0.0058 -0.8954  0.2855
 1378SOL    HW113102   0.726   6.163   2.397 -0.2436 -0.2608  0.5130
 1378SOL    HW213103   0.768   6.210   2.259  0.2159 -1.6788  0.1523
 1379SOL     OW13104   3.413   9.531   3.138 -0.4107  0.1105  0.5778
 1379SOL    HW113105   3.468   9.610   3.138 -0.3110  0.0660  2.3240
 1379SOL    HW213106   3.380   9.526   3.048  2.4170  0.1304 -0.5779
 1380SOL     OW13107   8.749   7.843   9.913  1.1612  0.3962  0.1103
 1380SOL    HW113108   8.712   7.876   9.995  1.2566  1.0433 -0.1049
 1380SOL    HW213109   8.741   7.916   9.851 -1.1141 -0.8407 -1.1892
 1381SOL     OW13110   4.276   8.498   8.462  0.0593 -0.0565 -0.0905
 1381SOL    HW113111   4.364   8.533   8.457  0.0554  0.0236  0.3741
 1381SOL    HW213112   4.288   8.405   8.483  0.0665 -0.3228 -1.2255
 1382SOL     OW13113   0.554  10.076  12.521  0.2635  0.0832  0.2795
 1382SOL    HW113114   0.470  10.031  12.509  0.5908 -0.2976 -0.7444
 1382SOL    HW213115   0.617  10.018  12.478  0.6837  1.5462 -1.1831
 1383SOL     OW13116   5.265   9.024   0.436  0.9313 -0.4954 -0.3216
 1383SOL    HW113117   5.326   9.009   0.508  1.1033 -0.1559 -0.3944
 1383SOL    HW213118   5.201   8.953   0.443  1.8877 -1.4396 -0.8345
 1384SOL     OW13119   4.473   0.194   0.003  0.1842 -0.1116 -0.9146
 1384SOL    HW113120   4.402   0.169   0.063  1.6339 -0.2829  0.8276
 1384SOL    HW213121   4.471   0.129  -0.066 -0.0279 -1.3986  0.2628
 1385SOL     OW13122  10.765   9.042   9.773  0.1999 -0.1426  0.3082
 1385SOL    HW113123  10.797   8.974   9.831 -2.0508  0.0324  1.9005
 1385SOL    HW213124  10.693   9.083   9.821 -0.0154  1.8347 -1.5316
 1386SOL     OW13125  10.286   5.928   4.294  0.4451 -0.4451 -0.7052
 1386SOL    HW113126  10.292   6.021   4.272 -0.3244  0.0136  0.8841
 1386SOL    HW213127  10.372   5.906   4.330 -0.2778  0.4581  1.7012
 1387SOL     OW13128  10.070   0.585   4.436 -0.3945  1.1028  0.2023
 1387SOL    HW113129  10.099   0.627   4.354  3.4870 -0.5320  0.4732
 1387SOL    HW213130  10.066   0.492   4.414  1.3153  0.5533  1.8801
 1388SOL     OW13131   0.398   8.908  11.457 -0.1463  0.6805  0.2209
 1388SOL    HW113132   0.443   8.885  11.538  0.0714 -0.3063 -0.1594
 1388SOL    HW213133   0.400   8.827  11.405 -3.3099  0.2252  0.6120
 1389SOL     OW13134   2.260   0.881   2.073 -0.2752 -0.0975 -0.2156
 1389SOL    HW113135   2.248   0.972   2.101 -1.1766 -0.2710 -0.0355
 1389SOL    HW213136   2.304   0.888   1.988 -0.8395  0.5284 -0.4666
 1390SOL     OW13137  11.919   5.685   0.877 -0.0003  0.4388  0.0818
 1390SOL    HW113138  11.976   5.735   0.936 -1.4489 -0.3356  2.2332
 1390SOL    HW213139  11.975   5.666   0.802  2.2081  0.7615  1.5352
 1391SOL     OW13140   9.041   2.202   3.210 -0.1689  0.1110 -0.0495
 1391SOL    HW113141   9.062   2.289   3.243  0.2248  0.8594 -2.1203
 1391SOL    HW213142   9.122   2.152   3.222 -0.6633 -0.2877  1.9620
 1392SOL     OW13143   5.226   2.734   1.121  0.4700  0.2263  0.2215
 1392SOL    HW113144   5.181   2.736   1.206 -0.2985  1.9059 -0.1822
 1392SOL    HW213145   5.157   2.708   1.059  0.5706  0.7387 -0.1111
 1393SOL     OW13146   1.078   6.886   5.131 -0.5147  0.7421  0.6357
 1393SOL    HW113147   1.068   6.973   5.093 -0.3825  0.6679  0.4335
 1393SOL    HW213148   1.144   6.897   5.200  1.4061  0.3010 -1.0299
 1394SOL     OW13149  10.099  11.610   5.454 -0.2133 -0.4143  0.5405
 1394SOL    HW113150  10.107  11.681   5.391 -0.2448  1.0353  2.0859
 1394SOL    HW213151  10.138  11.534   5.411  2.9853  1.3271  0.0224
 1395SOL     OW13152   8.869  10.776  10.480 -0.1746  0.6936 -0.8035
 1395SOL    HW113153   8.933  10.845  10.466  0.6240  0.5706  1.6966
 1395SOL    HW213154   8.899  10.703  10.426  1.1180  1.0561 -0.5910
 1396SOL     OW13155   8.676   9.858   5.065  0.2842 -0.4815 -0.5458
 1396SOL    HW113156   8.757   9.908   5.074  0.8480 -1.2314 -1.3309
 1396SOL    HW213157   8.683   9.788   5.129  0.7841 -1.2219 -1.3969
 1397SOL     OW13158   9.667   0.470  12.149 -0.3661 -0.3887  0.8533
 1397SOL    HW113159   9.663   0.431  12.061 -0.8419 -0.2604  0.8189
 1397SOL    HW213160   9.580   0.458  12.185 -0.2945 -0.0544  1.1440
 1398SOL     OW13161   5.186  12.105   1.619 -0.0793 -0.0190  0.1253
 1398SOL    HW113162   5.191  12.038   1.687 -1.0085 -1.1839 -0.9097
 1398SOL    HW213163   5.277  12.125   1.597  0.2136 -1.2959  0.1297
 1399SOL     OW13164  10.953   6.018   4.568 -0.6924  0.1931 -0.2898
 1399SOL    HW113165  10.918   5.985   4.650 -0.2064 -0.9930 -0.5435
 1399SOL    HW213166  11.041   6.049   4.590 -0.2019 -0.9826 -0.5245
 1400SOL     OW13167   3.517   4.800   5.951  0.3833 -0.7978  0.0648
 1400SOL    HW113168   3.490   4.717   5.992  0.3963  0.1174  2.0440
 1400SOL    HW213169   3.448   4.861   5.975  0.2278 -0.2573 -1.6273
 1401SOL     OW13170   1.591  10.869   2.797  0.0257 -0.3372  0.2401
 1401SOL    HW113171   1.513  10.823   2.829 -1.0479  1.4817  0.3351
 1401SOL    HW213172   1.589  10.954   2.842  1.1038  0.4211 -1.0852
 1402SOL     OW13173  11.115   5.078   9.133  0.2972 -0.1190  0.6132
 1402SOL    HW113174  11.032   5.063   9.087  1.1038 -2.7703 -0.1611
 1402SOL    HW213175  11.162   4.995   9.125  3.1200  1.3343  0.8894
 1403SOL     OW13176   6.287   1.098   5.889  0.1942  0.5896 -0.1526
 1403SOL    HW113177   6.266   1.104   5.796 -1.7560  1.4180  0.3047
 1403SOL    HW213178   6.273   1.187   5.923 -2.1911 -0.3240  1.4995
 1404SOL     OW13179   2.495   1.672   2.716 -0.6104  0.0218 -0.3946
 1404SOL    HW113180   2.413   1.695   2.759  0.5153  1.6303  0.9871
 1404SOL    HW213181   2.529   1.754   2.682  1.1896 -0.3274  0.4490
 1405SOL     OW13182   6.443   9.818   6.709 -0.8702  0.7475  0.1046
 1405SOL    HW113183   6.389   9.740   6.696  0.2799  0.3913 -3.6006
 1405SOL    HW213184   6.528   9.784   6.736 -0.2846  0.5713 -1.7826
 1406SOL     OW13185   3.357   3.626   1.566 -0.1239 -0.4189  0.0204
 1406SOL    HW113186   3.400   3.544   1.591  0.7856  0.3201  0.9443
 1406SOL    HW213187   3.417   3.668   1.504  0.0814  0.2052  0.6327
 1407SOL     OW13188   8.120   3.184  10.189 -0.0298 -0.0419  0.2424
 1407SOL    HW113189   8.130   3.253  10.255  0.2611 -0.5608  0.7455
 1407SOL    HW213190   8.044   3.212  10.137  0.9483  1.3925 -0.4704
 1408SOL     OW13191   9.125  11.291   2.797  0.2634 -0.0143  0.2163
 1408SOL    HW113192   9.154  11.263   2.710  0.9990 -0.0702  0.4776
 1408SOL    HW213193   9.148  11.219   2.855 -0.2212  0.0260  0.4704
 1409SOL     OW13194   5.302   9.492   6.415 -0.8013 -0.5428  0.0514
 1409SOL    HW113195   5.338   9.580   6.418 -2.5702  0.2138  0.0365
 1409SOL    HW213196   5.355   9.443   6.478  1.2381  0.0867 -1.1061
 1410SOL     OW13197   0.382   0.906   9.274  0.0567 -0.0411 -0.3150
 1410SOL    HW113198   0.388   0.836   9.209  1.6620  0.5060 -0.8144
 1410SOL    HW213199   0.471   0.941   9.279 -0.2094  0.4570  1.6111
 1411SOL     OW13200   9.997   2.980   4.752 -0.2002  0.2415  0.3826
 1411SOL    HW113201   9.992   2.887   4.732 -0.1690  0.1750  0.6805
 1411SOL    HW213202   9.933   2.993   4.823 -1.0522  0.6606 -0.4327
 1412SOL     OW13203   8.871   7.791   3.419  0.4593 -0.1159 -0.0906
 1412SOL    HW113204   8.813   7.815   3.347  0.4443 -2.5017 -0.9309
 1412SOL    HW213205   8.839   7.843   3.493 -0.3115  1.4421 -1.4416
 1413SOL     OW13206   7.811  11.169   6.158  0.6034  0.4619  0.2552
 1413SOL    HW113207   7.811  11.153   6.253 -0.1235  2.6177  0.6750
 1413SOL    HW213208   7.726  11.136   6.128 -0.1809  1.9322  0.8002
 1414SOL     OW13209   6.623  11.778   6.981  0.2205 -0.2600 -0.4891
 1414SOL    HW113210   6.698  11.829   7.014 -1.5024  2.3709 -0.3809
 1414SOL    HW213211   6.618  11.703   7.039  2.9358 -0.7235 -0.7022
 1415SOL     OW13212  11.807  11.596   1.235  0.1807 -0.2300  0.5591
 1415SOL    HW113213  11.843  11.678   1.267 -1.9178  1.4336 -1.0676
 1415SOL    HW213214  11.717  11.617   1.208 -1.1539 -3.5076  1.8950
 1416SOL     OW13215   2.950   9.175   8.241  0.0322 -0.2730 -1.2250
 1416SOL    HW113216   2.857   9.193   8.235  0.2593  0.7119 -2.0956
 1416SOL    HW213217   2.991   9.260   8.256  0.4475 -1.0712  5.4706
 1417SOL     OW13218   1.094   7.092  10.271 -0.0840 -0.1154  0.2283
 1417SOL    HW113219   1.137   7.108  10.187  0.3396  2.0381  0.7858
 1417SOL    HW213220   1.049   7.175  10.290 -2.5885 -1.5157  0.7653
 1418SOL     OW13221   7.217   6.014   8.137  0.1128 -0.5530 -0.5589
 1418SOL    HW113222   7.235   5.945   8.074  1.0464  1.3802 -2.5613
 1418SOL    HW213223   7.304   6.039   8.171 -0.3009 -0.9950  0.9120
 1419SOL     OW13224   0.908  11.558   1.432 -0.2127 -0.2084 -0.0270
 1419SOL    HW113225   0.875  11.499   1.499  0.5239  0.1694  0.6897
 1419SOL    HW213226   0.998  11.577   1.459 -0.1971  0.6617 -0.6398
 1420SOL     OW13227  10.639   6.501   9.631  0.3047 -0.3071  0.1181
 1420SOL    HW113228  10.660   6.504   9.724  0.4589 -1.6046  0.1485
 1420SOL    HW213229  10.543   6.508   9.628 -0.0033 -2.9945  0.6208
 1421SOL     OW13230   0.541  10.134   7.185  0.2793  0.4103  0.5968
 1421SOL    HW113231   0.501  10.210   7.227 -0.7577 -0.1376  0.6177
 1421SOL    HW213232   0.513  10.139   7.093 -0.1603 -0.1741  0.6914
 1422SOL     OW13233   8.964  10.405   6.873  0.4659  0.1276  0.3262
 1422SOL    HW113234   9.031  10.348   6.912  0.2226  1.0631  2.2329
 1422SOL    HW213235   8.888  10.396   6.931 -0.3737  0.6238 -0.6654
 1423SOL     OW13236   5.746   8.616   7.556 -0.2356  0.4577 -0.6548
 1423SOL    HW113237   5.810   8.596   7.625 -1.8195  0.3190  0.8331
 1423SOL    HW213238   5.751   8.711   7.546 -0.3240  0.5306 -0.0197
 1424SOL     OW13239   1.766   9.768  11.253 -0.0795  0.5400 -0.1932
 1424SOL    HW113240   1.764   9.862  11.237 -0.5636  0.7614  1.0300
 1424SOL    HW213241   1.728   9.729  11.175  0.4859  1.3324 -0.8796
 1425SOL     OW13242   2.432   8.110   1.910  0.3402 -0.7673  0.4580
 1425SOL    HW113243   2.371   8.037   1.918  0.8148 -1.3029 -0.6132
 1425SOL    HW213244   2.513   8.070   1.879  0.1943  0.3691 -1.5706
 1426SOL     OW13245   3.282   4.756   2.611  0.1226 -0.0813  0.4021
 1426SOL    HW113246   3.224   4.813   2.661  0.5210  0.6118  0.0917
 1426SOL    HW213247   3.358   4.742   2.669  0.2527  0.1177  0.2794
 1427SOL     OW13248   7.388  11.962   3.241 -0.0124  0.4920 -0.2016
 1427SOL    HW113249   7.466  11.906   3.243 -0.3246  0.0695  1.1067
 1427SOL    HW213250   7.359  11.958   3.150 -0.3095 -1.8998 -0.0817
 1428SOL     OW13251   7.331   0.684   5.628  0.3916 -0.1662  0.2277
 1428SOL    HW113252   7.356   0.594   5.651  0.8422  0.1071  0.8556
 1428SOL    HW213253   7.347   0.734   5.709 -0.7477  0.3080  0.1761
 1429SOL     OW13254  11.686   8.053   2.507 -0.1953 -0.6180 -0.0491
 1429SOL    HW113255  11.704   8.007   2.425  1.5869  1.0034 -0.6268
 1429SOL    HW213256  11.696   8.145   2.486 -1.9596 -0.0203  1.4911
 1430SOL     OW13257   2.507   0.682   6.888  0.3390  0.2329  0.0382
 1430SOL    HW113258   2.417   0.711   6.874 -0.0338 -0.9714 -0.2047
 1430SOL    HW213259   2.523   0.620   6.816  0.7315 -0.9407  1.1049
 1431SOL     OW13260   1.756   3.025   3.478  0.4913  0.9618 -0.0045
 1431SOL    HW113261   1.755   2.935   3.511 -0.7394  0.8874 -0.1907
 1431SOL    HW213262   1.834   3.029   3.423 -0.6457 -0.7300 -1.9184
 1432SOL     OW13263  12.441   1.083  10.941 -0.5244 -0.7811  0.1341
 1432SOL    HW113264  12.381   1.119  10.876  0.1425 -1.8246 -1.1028
 1432SOL    HW213265  12.523   1.070  10.893  0.7678  0.6969  1.7853
 1433SOL     OW13266  11.378   7.898  10.737  0.1848  0.6931 -0.4275
 1433SOL    HW113267  11.307   7.842  10.766  0.0311  1.9758  1.8555
 1433SOL    HW213268  11.359   7.916  10.645 -0.9979 -1.0807 -0.5536
 1434SOL     OW13269  10.574   0.719   8.946 -0.6017  0.6964  0.3696
 1434SOL    HW113270  10.579   0.777   9.022  0.2901 -0.2418  1.0632
 1434SOL    HW213271  10.660   0.678   8.942 -0.1507  1.7320 -1.9968
 1435SOL     OW13272   2.723   2.901  10.970  0.0893  0.1261 -0.1906
 1435SOL    HW113273   2.646   2.933  10.923 -0.3096  0.7037  0.8337
 1435SOL    HW213274   2.716   2.939  11.058  0.6846 -1.1259  0.4313
 1436SOL     OW13275  10.849  11.208   1.234  0.0438  0.8701  0.4622
 1436SOL    HW113276  10.936  11.248   1.227  0.5828 -0.2278  0.7671
 1436SOL    HW213277  10.825  11.221   1.326 -0.3678  1.6568  0.2551
 1437SOL     OW13278   8.544   0.092   3.835 -0.1786 -0.6450 -0.6929
 1437SOL    HW113279   8.611   0.042   3.882 -0.4916 -0.4293 -0.0003
 1437SOL    HW213280   8.474   0.029   3.819 -0.7134 -0.3685  0.4700
 1438SOL     OW13281   0.716   8.018   2.009  0.2740 -0.3314 -0.4346
 1438SOL    HW113282   0.723   8.068   2.091  0.7661 -0.9350 -0.0978
 1438SOL    HW213283   0.630   8.040   1.975  0.1666  0.1295  0.1192
 1439SOL     OW13284   3.986   0.144   8.378 -0.0176 -1.0966 -0.3614
 1439SOL    HW113285   4.078   0.122   8.384 -0.3530 -2.2808  1.4422
 1439SOL    HW213286   3.982   0.237   8.401  0.6914 -1.0884 -0.2504
 1440SOL     OW13287   7.004  11.740   2.289  0.2180  0.2497  0.0178
 1440SOL    HW113288   6.991  11.834   2.279 -0.2087  0.1869 -0.0369
 1440SOL    HW213289   6.999  11.706   2.200 -0.4190  0.0794  0.1166
 1441SOL     OW13290   0.023   2.985  12.578  0.3746 -0.2251  0.0955
 1441SOL    HW113291   0.068   3.035  12.646 -1.5636 -0.3617  1.5704
 1441SOL    HW213292  -0.047   2.940  12.625 -3.6094  2.7275 -2.4203
 1442SOL     OW13293   6.463   4.918   3.770  0.2303 -0.4161  0.1345
 1442SOL    HW113294   6.451   4.840   3.716 -0.3726  0.1400 -0.5519
 1442SOL    HW213295   6.377   4.960   3.771  0.8437  0.9012 -0.5673
 1443SOL     OW13296   7.494   9.479   9.571  0.0310  0.0165 -0.2274
 1443SOL    HW113297   7.578   9.435   9.582 -1.6974 -3.6657 -0.0380
 1443SOL    HW213298   7.476   9.474   9.477 -0.2901  0.0337 -0.1694
 1444SOL     OW13299  10.268   4.619  11.738 -0.0029 -0.4082  0.0319
 1444SOL    HW113300  10.183   4.651  11.709  0.1970  1.3350  1.2003
 1444SOL    HW213301  10.256   4.525  11.750 -1.1540 -0.5505 -1.7868
 1445SOL     OW13302   6.694  10.853   2.918 -0.2956  0.4904  0.0121
 1445SOL    HW113303   6.736  10.906   2.986  0.9640  2.1011 -1.8974
 1445SOL    HW213304   6.750  10.776   2.910 -0.3114  0.4102  0.6009
 1446SOL     OW13305   0.095   7.471   1.363  0.7311  0.5167  0.0052
 1446SOL    HW113306   0.151   7.534   1.317  1.3754 -0.6134 -0.8004
 1446SOL    HW213307   0.098   7.392   1.309 -0.6271  0.0103  0.6306
 1447SOL     OW13308   6.190   7.979  11.566 -0.0624  0.5251  0.4709
 1447SOL    HW113309   6.161   7.913  11.629  2.9587 -0.6498  0.8039
 1447SOL    HW213310   6.164   7.944  11.481  0.2914 -0.4200  0.7407
 1448SOL     OW13311   0.899  12.411  10.974 -0.7293  0.5441  0.2976
 1448SOL    HW113312   0.978  12.374  11.015 -0.5962  0.7302  0.2072
 1448SOL    HW213313   0.908  12.388  10.881 -1.1009 -0.0003  0.3925
 1449SOL     OW13314   7.571   6.381   4.878 -0.0608  0.6332  0.0039
 1449SOL    HW113315   7.663   6.406   4.892 -0.4432  3.9727 -2.1056
 1449SOL    HW213316   7.529   6.394   4.963  1.1737  0.2573  0.7002
 1450SOL     OW13317   3.824   6.954   0.780  0.1944 -0.7186 -0.0672
 1450SOL    HW113318   3.852   7.039   0.815 -0.6350 -1.2085  1.8935
 1450SOL    HW213319   3.814   6.898   0.857 -1.0499 -2.0689 -1.1541
 1451SOL     OW13320   6.583   1.473  11.440 -0.5778 -0.3443  0.3837
 1451SOL    HW113321   6.645   1.436  11.503  2.0280  1.5112 -0.9008
 1451SOL    HW213322   6.546   1.398  11.395  1.3084 -1.5555  0.7375
 1452SOL     OW13323   0.668   8.082   8.195  0.3846  0.3065 -0.0285
 1452SOL    HW113324   0.610   8.155   8.215 -1.9607 -1.2598 -0.7220
 1452SOL    HW213325   0.670   8.029   8.274 -0.1620 -0.2743 -0.3898
 1453SOL     OW13326   3.895   2.178   0.688 -0.1416 -0.6120  0.2459
 1453SOL    HW113327   3.894   2.184   0.592  2.1554  3.6288  0.2583
 1453SOL    HW213328   3.813   2.219   0.715  0.6276  1.1808  0.0091
 1454SOL     OW13329   7.067   3.241  11.916  0.7283 -0.1411  0.1566
 1454SOL    HW113330   7.101   3.325  11.947 -0.7160  0.2760  0.6843
 1454SOL    HW213331   7.127   3.176  11.952  1.3121  0.6013  0.5490
 1455SOL     OW13332  11.196   2.033   7.952 -0.6638  0.5158 -0.4663
 1455SOL    HW113333  11.202   2.041   7.857  0.2122  1.8476 -0.3261
 1455SOL    HW213334  11.285   2.013   7.980 -1.0874 -0.8120  0.0245
 1456SOL     OW13335   1.563   7.652   9.722 -1.3334 -0.4985  0.6547
 1456SOL    HW113336   1.522   7.695   9.797  0.5693 -0.5460  1.7835
 1456SOL    HW213337   1.615   7.582   9.760  0.3356  0.0015 -0.6011
 1457SOL     OW13338   9.433  12.136   6.634  0.1343  0.6888  0.5215
 1457SOL    HW113339   9.350  12.140   6.681 -0.9399 -0.6983 -1.1249
 1457SOL    HW213340   9.459  12.044   6.638  0.4790  0.7010 -0.7700
 1458SOL     OW13341   5.929  12.445   6.126  0.4009  0.4852  0.0001
 1458SOL    HW113342   5.919  12.495   6.045  0.1882  0.0878 -0.2208
 1458SOL    HW213343   5.981  12.502   6.183  0.4221  0.8291 -0.3591
 1459SOL     OW13344   8.606   6.161  11.477  0.0169 -0.3212  0.3330
 1459SOL    HW113345   8.514   6.169  11.449 -0.3677 -1.4301  1.2037
 1459SOL    HW213346   8.604   6.180  11.571  0.8252  0.4831  0.1952
 1460SOL     OW13347   5.314   3.335   4.270  0.1648  0.5252  0.0699
 1460SOL    HW113348   5.409   3.330   4.259 -0.0179 -2.4923 -0.9488
 1460SOL    HW213349   5.302   3.354   4.363  1.8267 -2.4667  1.0034
 1461SOL     OW13350   4.828   6.885   3.078  0.1568 -0.0242 -0.2234
 1461SOL    HW113351   4.843   6.822   3.007  0.1981 -1.3060  0.8736
 1461SOL    HW213352   4.752   6.849   3.124  0.3581  0.5917  0.5943
 1462SOL     OW13353   1.411   4.197   7.758  0.4697 -0.4134 -0.2996
 1462SOL    HW113354   1.395   4.126   7.820  0.7610 -0.5378 -0.3671
 1462SOL    HW213355   1.463   4.261   7.808 -0.9604  0.4039  0.1995
 1463SOL     OW13356  10.719   6.104   8.382  0.1206 -0.5107 -0.5457
 1463SOL    HW113357  10.733   6.195   8.409 -2.0428  0.0634 -1.1523
 1463SOL    HW213358  10.655   6.070   8.444 -1.2147 -0.7003 -1.9769
 1464SOL     OW13359  10.892   9.131   9.104 -0.2705 -0.0674 -0.3201
 1464SOL    HW113360  10.946   9.190   9.157  0.7319 -0.7296 -0.5840
 1464SOL    HW213361  10.954   9.069   9.066 -1.2048 -0.7475 -0.7697
 1465SOL     OW13362   6.935   5.483  11.993 -0.0059 -0.2615  0.0814
 1465SOL    HW113363   6.908   5.489  11.901  0.0001 -0.1530  0.0857
 1465SOL    HW213364   6.853   5.481  12.042 -0.0572  1.8082  0.1994
 1466SOL     OW13365   5.833   7.828  12.373  0.2321  0.1935 -0.3742
 1466SOL    HW113366   5.900   7.866  12.429 -0.4706 -0.2405  0.7971
 1466SOL    HW213367   5.874   7.748  12.339  0.2463 -0.1839  0.5041
 1467SOL     OW13368  11.471   6.790   9.637  0.0462 -0.5274  0.5890
 1467SOL    HW113369  11.525   6.779   9.559  0.2515  0.1947  0.6184
 1467SOL    HW213370  11.516   6.858   9.688 -1.5057  0.9924  0.0300
 1468SOL     OW13371  10.689   7.483   3.982 -0.1087  0.2061 -0.5702
 1468SOL    HW113372  10.666   7.565   4.026 -1.9573  0.8570 -2.5682
 1468SOL    HW213373  10.774   7.501   3.941 -0.0584  0.7901 -0.2297
 1469SOL     OW13374   3.123   4.079   3.514 -0.0461 -0.2867  0.1848
 1469SOL    HW113375   3.082   4.166   3.515  0.0071 -0.2263 -1.2764
 1469SOL    HW213376   3.049   4.018   3.504 -0.1786 -0.5176  2.0918
 1470SOL     OW13377   7.738   3.925   6.994  0.4027  0.0078 -0.1297
 1470SOL    HW113378   7.775   3.839   6.976 -0.6252 -0.6206  0.6655
 1470SOL    HW213379   7.797   3.964   7.058  0.6193 -0.2893 -0.1471
 1471SOL     OW13380   5.455   0.966   3.129  0.4047  0.5204 -0.0066
 1471SOL    HW113381   5.425   1.056   3.120 -0.8016  0.6399  3.5173
 1471SOL    HW213382   5.540   0.974   3.172 -0.0605 -0.0005  1.0364
 1472SOL     OW13383   7.501   4.562   5.237 -0.0597 -0.2886  0.2236
 1472SOL    HW113384   7.587   4.597   5.259  0.2736 -1.5280  0.9879
 1472SOL    HW213385   7.483   4.497   5.305 -1.2182 -0.6585 -0.4094
 1473SOL     OW13386   0.017   2.753   4.233  1.0035  0.1065 -0.2528
 1473SOL    HW113387   0.045   2.843   4.213  1.3604  0.1550  0.4280
 1473SOL    HW213388  -0.015   2.719   4.150 -0.8357  1.4692 -0.1701
 1474SOL     OW13389   7.173   6.314   7.599  0.1108 -0.3419 -0.2092
 1474SOL    HW113390   7.129   6.363   7.529 -0.7304 -0.4663  0.2198
 1474SOL    HW213391   7.234   6.376   7.637  0.5853 -0.2751 -1.0588
 1475SOL     OW13392   2.862   8.823   9.156 -0.3696 -0.1833  0.0957
 1475SOL    HW113393   2.954   8.828   9.183 -0.2228  1.7927 -0.5542
 1475SOL    HW213394   2.812   8.834   9.237 -0.0780 -2.1116  0.5717
 1476SOL     OW13395   4.293   3.760   9.911  0.2494  0.2209 -0.2879
 1476SOL    HW113396   4.334   3.769   9.997 -0.8631  1.4436  0.1405
 1476SOL    HW213397   4.333   3.681   9.875  1.4119  0.1825  0.9632
 1477SOL     OW13398   3.213   5.776   0.660 -0.0758 -0.0550  0.1407
 1477SOL    HW113399   3.144   5.838   0.683  0.4004  0.3348  0.5557
 1477SOL    HW213400   3.287   5.801   0.715  1.0144  0.6753 -1.5848
 1478SOL     OW13401  11.212  11.568   6.103 -0.4888  0.1389 -0.1529
 1478SOL    HW113402  11.293  11.616   6.090  0.6229 -0.6923  2.8288
 1478SOL    HW213403  11.222  11.525   6.188 -3.1492 -1.8675 -0.6815
 1479SOL     OW13404   7.416  11.207   5.279  0.3744  0.1026  0.0177
 1479SOL    HW113405   7.406  11.183   5.187  1.5843 -2.4953  0.4886
 1479SOL    HW213406   7.463  11.134   5.319 -1.3060  0.4805  3.0244
 1480SOL     OW13407   1.439   2.621   5.972 -0.3825 -0.3624 -0.3788
 1480SOL    HW113408   1.345   2.610   5.964 -0.4484 -0.9299  0.9586
 1480SOL    HW213409   1.455   2.711   5.944 -1.4723  0.1054  0.4169
 1481SOL     OW13410   0.158   5.799   9.698  0.6454 -0.4386  0.8602
 1481SOL    HW113411   0.107   5.797   9.779  0.0812 -0.4808  0.5131
 1481SOL    HW213412   0.130   5.722   9.650 -0.2134  0.4150 -0.0695
 1482SOL     OW13413  10.927  11.565   6.141 -0.2606  0.2414 -0.1685
 1482SOL    HW113414  11.021  11.583   6.132 -0.5574  0.9660 -2.4589
 1482SOL    HW213415  10.904  11.516   6.061 -1.2355 -2.9309  1.8465
 1483SOL     OW13416   1.961  12.224   9.187 -0.5473  0.3830 -0.0487
 1483SOL    HW113417   1.877  12.217   9.233 -0.6991 -1.0461 -0.5029
 1483SOL    HW213418   1.950  12.298   9.127 -1.4501  0.2611 -0.0368
 1484SOL     OW13419   3.153   7.126  12.261 -0.1828 -0.1739 -0.2643
 1484SOL    HW113420   3.128   7.214  12.234 -0.0085 -0.3694 -1.1014
 1484SOL    HW213421   3.186   7.137  12.350 -1.7950  0.3185  0.2947
 1485SOL     OW13422   4.858   0.345   2.763 -0.1608 -0.0648  0.0754
 1485SOL    HW113423   4.925   0.290   2.724  0.1854 -0.0745  0.6674
 1485SOL    HW213424   4.906   0.402   2.824 -0.4642  1.1125 -0.7420
 1486SOL     OW13425   9.633  10.946  11.501  0.6428  0.3672 -0.2603
 1486SOL    HW113426   9.560  10.989  11.546 -1.7174 -1.4136 -2.1725
 1486SOL    HW213427   9.623  10.970  11.409  1.7955 -0.8410 -0.7360
 1487SOL     OW13428   9.971   8.000   0.047  0.5000  0.6950  0.0005
 1487SOL    HW113429   9.989   7.990   0.140  1.2272  0.7831 -0.1238
 1487SOL    HW213430  10.051   8.037   0.011  0.2890  0.4984 -0.6905
 1488SOL     OW13431  12.281   1.831   7.631  0.0333  0.3550  0.1632
 1488SOL    HW113432  12.259   1.789   7.547 -1.0435 -1.0787  1.1103
 1488SOL    HW213433  12.356   1.887   7.611  0.4813 -0.7684 -1.5406
 1489SOL     OW13434   4.534   2.054   6.433  0.8105 -0.3514  0.0629
 1489SOL    HW113435   4.479   2.016   6.365  1.2954  1.4324 -1.4288
 1489SOL    HW213436   4.543   1.985   6.499 -1.8845 -1.2212 -0.3670
 1490SOL     OW13437  11.409   0.482   9.259  0.7753  0.6139 -0.3469
 1490SOL    HW113438  11.335   0.467   9.317  1.0321  1.8804  0.3401
 1490SOL    HW213439  11.481   0.433   9.299  0.7211  0.7333 -0.1030
 1491SOL     OW13440   4.138   1.779   5.861 -0.2388  0.2537 -0.6588
 1491SOL    HW113441   4.197   1.792   5.936  1.1610  1.2337 -1.8753
 1491SOL    HW213442   4.121   1.684   5.860  0.2051  0.1439  0.5277
 1492SOL     OW13443   2.403   3.294   9.405  0.5668  0.1438  0.4373
 1492SOL    HW113444   2.463   3.368   9.411  1.1712 -0.0766 -1.9686
 1492SOL    HW213445   2.316   3.332   9.420  0.6763  1.7776 -2.3038
 1493SOL     OW13446   6.140   3.711  12.482  0.0874 -0.2991 -0.6839
 1493SOL    HW113447   6.170   3.635  12.532  1.1132  0.3975 -0.1850
 1493SOL    HW213448   6.213   3.731  12.423 -0.0561  0.4360 -0.6242
 1494SOL     OW13449   3.770  11.209   1.676 -0.7566  0.4129 -0.0816
 1494SOL    HW113450   3.693  11.191   1.622 -1.0861 -0.7874  0.7589
 1494SOL    HW213451   3.776  11.305   1.678 -1.0513  0.4894 -1.7703
 1495SOL     OW13452   0.769   3.338   3.411  0.0238 -0.0325 -0.1416
 1495SOL    HW113453   0.703   3.273   3.435 -0.1295  0.6818  1.5009
 1495SOL    HW213454   0.851   3.302   3.445 -0.0565  0.5937  0.7446
 1496SOL     OW13455  10.282   1.497   7.615  0.5982  0.6250 -0.2082
 1496SOL    HW113456  10.333   1.579   7.617 -0.3762  1.2351  0.8001
 1496SOL    HW213457  10.323   1.442   7.681 -0.2713  1.2853  0.9229
 1497SOL     OW13458   8.150   4.887   3.664  0.5735 -0.0371 -0.6017
 1497SOL    HW113459   8.139   4.820   3.597  0.8198  0.1633 -0.8480
 1497SOL    HW213460   8.163   4.839   3.745 -0.5993 -0.2867 -0.5386
 1498SOL     OW13461  11.199   0.718   5.816  0.2771 -0.5750 -0.9060
 1498SOL    HW113462  11.255   0.694   5.889  0.2780  2.4413  0.2145
 1498SOL    HW213463  11.198   0.640   5.760  1.4880 -2.4664  1.5108
 1499SOL     OW13464   0.242   3.925   6.595  0.0009 -0.1471  0.3438
 1499SOL    HW113465   0.218   3.866   6.667 -1.1845  1.3666  1.2609
 1499SOL    HW213466   0.213   4.011   6.625  0.4859  0.6963 -1.5063
 1500SOL     OW13467   8.183   1.916   5.562 -0.3075  0.5728  0.1624
 1500SOL    HW113468   8.106   1.971   5.575 -1.7619 -1.6646  1.7629
 1500SOL    HW213469   8.217   1.942   5.476 -3.5705  0.8598 -1.1848
 1501SOL     OW13470   5.034  11.494   2.673 -0.3420 -0.0813 -0.2118
 1501SOL    HW113471   5.041  11.399   2.676  0.2429 -0.0630 -0.8074
 1501SOL    HW213472   4.939  11.511   2.671 -0.4457 -0.6799 -0.8058
 1502SOL     OW13473   4.186  11.632   4.704  0.9834 -0.2967  0.2118
 1502SOL    HW113474   4.112  11.611   4.646  0.6092  0.2930  0.4621
 1502SOL    HW213475   4.262  11.591   4.662  0.9480  1.1383 -1.3572
 1503SOL     OW13476   7.167   1.431   4.292  0.2374 -0.1375 -0.1084
 1503SOL    HW113477   7.198   1.347   4.259 -0.0339 -0.9649  1.6103
 1503SOL    HW213478   7.096   1.407   4.353 -1.1790  1.4600 -1.0509
 1504SOL     OW13479   1.081   0.165   9.884 -0.2959 -0.1473 -0.0220
 1504SOL    HW113480   1.033   0.185   9.804 -0.3188  0.9206  0.2489
 1504SOL    HW213481   1.173   0.167   9.858 -0.1603  2.6153  0.4475
 1505SOL     OW13482  11.174  10.676   2.030  0.8282 -0.2034  0.2003
 1505SOL    HW113483  11.212  10.764   2.028  1.2511 -0.2655  2.3984
 1505SOL    HW213484  11.250  10.618   2.028  0.5336 -0.5853 -1.7131
 1506SOL     OW13485   5.769   8.101  10.872 -0.6525  0.1733  0.5361
 1506SOL    HW113486   5.804   8.114  10.785  1.6123  0.7655  1.4655
 1506SOL    HW213487   5.732   8.186  10.896  0.1075  0.4594  0.7167
 1507SOL     OW13488   7.835   4.043   9.296  0.2711  0.5491  0.2479
 1507SOL    HW113489   7.765   4.109   9.293  0.2661  0.6275  1.5354
 1507SOL    HW213490   7.895   4.070   9.227  0.8600  2.6109  1.4833
 1508SOL     OW13491   0.675   9.630  12.154  0.2414 -0.1857 -0.0118
 1508SOL    HW113492   0.636   9.600  12.236 -2.1761  1.6824 -0.3577
 1508SOL    HW213493   0.695   9.722  12.168  0.9647 -0.1424 -1.1414
 1509SOL     OW13494   9.261   5.524   8.931  0.2052 -0.0928 -0.3629
 1509SOL    HW113495   9.270   5.606   8.981  0.0285  0.0854 -0.6219
 1509SOL    HW213496   9.338   5.473   8.956  0.0412 -0.0668  0.2060
 1510SOL     OW13497   0.194   9.832   3.658 -0.1749  0.5857  0.1211
 1510SOL    HW113498   0.135   9.758   3.673  0.8029 -0.1085  0.6698
 1510SOL    HW213499   0.214   9.829   3.565 -0.1735  0.1812  0.1345
 1511SOL     OW13500   2.580   0.303  11.617 -0.1595  0.2339  0.0709
 1511SOL    HW113501   2.534   0.219  11.613 -1.0090  0.7036 -3.3499
 1511SOL    HW213502   2.532   0.353  11.683 -0.5640 -1.4155  1.0974
 1512SOL     OW13503   6.613   7.242   1.569 -0.1604  0.1340 -0.2856
 1512SOL    HW113504   6.616   7.180   1.497 -0.5924  0.7216 -0.8152
 1512SOL    HW213505   6.625   7.328   1.529  2.4921  0.3022  0.6460
 1513SOL     OW13506   4.828   4.214   5.819 -0.3672 -0.0753 -0.2463
 1513SOL    HW113507   4.883   4.181   5.890  0.0229  0.0439 -0.4901
 1513SOL    HW213508   4.812   4.138   5.763 -1.0621 -0.2780  0.2057
 1514SOL     OW13509   9.195   1.044   7.085 -0.6183 -0.0277 -0.1691
 1514SOL    HW113510   9.206   1.135   7.061 -0.5247  0.2394  0.8318
 1514SOL    HW213511   9.190   1.045   7.181 -0.8893 -1.0376 -0.1599
 1515SOL     OW13512   8.160   3.211   2.597 -0.7126 -0.6747 -0.3122
 1515SOL    HW113513   8.127   3.276   2.660 -1.4981 -1.4964  0.1497
 1515SOL    HW213514   8.250   3.194   2.625 -0.0347  1.1331 -1.2098
 1516SOL     OW13515   7.237  10.890   3.123  0.3437 -0.3941 -0.3721
 1516SOL    HW113516   7.163  10.830   3.138  0.3544 -0.0733  1.0816
 1516SOL    HW213517   7.284  10.892   3.206  1.1227  0.6000 -0.8124
 1517SOL     OW13518   9.586   9.695   2.131  0.4273 -0.5419 -0.4617
 1517SOL    HW113519   9.664   9.749   2.141  0.1843 -0.0338 -1.2239
 1517SOL    HW213520   9.514   9.758   2.122 -0.1787 -1.0021  0.9261
 1518SOL     OW13521  10.345   9.069   6.390 -0.1587  0.1040 -0.2967
 1518SOL    HW113522  10.325   9.002   6.455  2.9731 -0.2041  0.5450
 1518SOL    HW213523  10.344   9.151   6.439  0.4874  0.0825 -0.2339
 1519SOL     OW13524   2.267   2.025   7.058 -0.0303 -0.1856  1.1035
 1519SOL    HW113525   2.260   2.117   7.080 -1.2244 -0.2570  1.0559
 1519SOL    HW213526   2.195   2.008   6.997  0.2125 -1.1345  1.0498
 1520SOL     OW13527   2.053   5.683   9.081  0.4854  0.3561 -0.0834
 1520SOL    HW113528   2.071   5.631   9.003  0.2625  1.2138 -0.7118
 1520SOL    HW213529   1.998   5.755   9.051 -0.7067 -0.0080  1.0881
 1521SOL     OW13530   3.679   3.610  10.349  0.3939  0.1550 -0.0194
 1521SOL    HW113531   3.688   3.518  10.375 -0.7691 -0.5066 -1.7542
 1521SOL    HW213532   3.758   3.652  10.383  0.3094 -1.1776  1.9815
 1522SOL     OW13533  11.230   1.609   5.984  0.4110 -0.1285  0.2865
 1522SOL    HW113534  11.283   1.674   6.030  1.1069 -0.4352 -0.0540
 1522SOL    HW213535  11.291   1.569   5.921 -0.2481 -0.4434 -0.1684
 1523SOL     OW13536   5.146  11.364   4.469  0.3274  0.5273 -0.6646
 1523SOL    HW113537   5.208  11.312   4.521 -1.6635 -0.0387  1.2850
 1523SOL    HW213538   5.162  11.337   4.379  1.2592 -1.3903  0.0116
 1524SOL     OW13539   9.326  12.584   0.016  0.4622  0.0549  0.5382
 1524SOL    HW113540   9.284  12.639  -0.050 -0.5255 -0.3406  0.8260
 1524SOL    HW213541   9.377  12.521  -0.034 -1.6212 -1.3325  0.0392
 1525SOL     OW13542   3.653   7.752   1.407 -0.5910 -0.4962 -0.0829
 1525SOL    HW113543   3.602   7.823   1.369  0.3858 -0.7999 -2.0576
 1525SOL    HW213544   3.662   7.777   1.500 -0.4955  1.8221 -0.6448
 1526SOL     OW13545   9.400  10.489   6.446 -0.7097  0.6167 -0.0609
 1526SOL    HW113546   9.368  10.424   6.508 -0.3118  0.0586 -0.4265
 1526SOL    HW213547   9.321  10.525   6.405 -0.9561  0.7705  0.5412
 1527SOL     OW13548   8.083   1.002  10.539 -0.2125  0.2873  0.3489
 1527SOL    HW113549   7.987   1.010  10.544 -0.4450  0.6038 -2.7921
 1527SOL    HW213550   8.098   0.933  10.475  1.5614  2.1558 -1.4124
 1528SOL     OW13551   5.552   9.933   3.015  0.4062 -0.4542 -0.3287
 1528SOL    HW113552   5.488   9.929   2.944  1.7569 -3.3278 -1.5644
 1528SOL    HW213553   5.502   9.916   3.095 -1.2759  3.6334 -0.3208
 1529SOL     OW13554   2.399   8.533   3.112 -0.3151 -0.7095 -0.7274
 1529SOL    HW113555   2.366   8.446   3.131 -0.5299 -0.1970  1.4877
 1529SOL    HW213556   2.390   8.581   3.194 -0.2956  1.4410 -1.8908
 1530SOL     OW13557  12.280   7.685   6.437  0.3855 -0.3288 -0.2016
 1530SOL    HW113558  12.341   7.635   6.382 -0.0377  0.6256 -1.5714
 1530SOL    HW213559  12.268   7.768   6.391 -1.0568 -0.0347  0.6509
 1531SOL     OW13560   7.155  10.672   0.676  0.1915  0.0053 -0.6797
 1531SOL    HW113561   7.101  10.662   0.754  1.5821  0.2303  0.3636
 1531SOL    HW213562   7.214  10.597   0.677 -0.1392 -0.2973 -1.8532
 1532SOL     OW13563   1.876   7.192   9.673  0.2992 -0.3476 -0.0723
 1532SOL    HW113564   1.883   7.130   9.600  0.1385 -0.3785 -0.0614
 1532SOL    HW213565   1.782   7.194   9.694  0.2729  0.0821 -0.2318
 1533SOL     OW13566   3.111   6.072  10.369 -0.4980  0.1374 -0.0139
 1533SOL    HW113567   3.017   6.054  10.380 -1.0788  3.2889  1.0246
 1533SOL    HW213568   3.154   5.993  10.401 -2.7598 -0.0867  2.8452
 1534SOL     OW13569   9.256   9.414  11.507  0.0248 -0.1976  0.4346
 1534SOL    HW113570   9.276   9.330  11.549  0.5021 -0.7526 -0.8542
 1534SOL    HW213571   9.340   9.458  11.499 -0.3012  0.6673  1.6166
 1535SOL     OW13572   3.043   3.014  12.533 -0.3177  0.2301 -0.2570
 1535SOL    HW113573   3.024   2.931  12.576  0.7575  0.1317  0.0440
 1535SOL    HW213574   3.083   3.069  12.601  2.1923 -0.2181 -1.2484
 1536SOL     OW13575  11.059   7.805   5.097  0.3012 -0.6003 -0.3927
 1536SOL    HW113576  11.046   7.774   5.008 -0.0423 -2.0116  0.1325
 1536SOL    HW213577  10.970   7.820   5.131  0.2175 -3.2244  0.7652
 1537SOL     OW13578   9.959   2.498  10.618  0.5290  0.2504 -0.1644
 1537SOL    HW113579  10.002   2.414  10.634 -1.3357 -0.6388  0.5426
 1537SOL    HW213580   9.979   2.551  10.695 -0.5105 -0.5684  0.7067
 1538SOL     OW13581   6.015   5.120  10.984  0.3371 -0.3060 -0.2918
 1538SOL    HW113582   5.920   5.108  10.988  0.4530 -0.9063  1.6286
 1538SOL    HW213583   6.043   5.070  10.908 -0.6990 -1.5907  0.1477
 1539SOL     OW13584   7.738   6.819  12.212 -0.2980  0.1069 -0.6341
 1539SOL    HW113585   7.663   6.762  12.230  0.1434 -1.0522 -2.2146
 1539SOL    HW213586   7.700   6.898  12.173 -0.7481 -0.1956 -0.8104
 1540SOL     OW13587  10.425   8.578  10.687  0.3492  0.0339 -0.4228
 1540SOL    HW113588  10.411   8.530  10.769  0.2002 -0.3971 -0.7002
 1540SOL    HW213589  10.488   8.526  10.639  0.2072  0.1286 -0.7133
 1541SOL     OW13590   0.487   4.802   0.896 -0.2412  0.2862 -0.3467
 1541SOL    HW113591   0.519   4.819   0.985 -0.6197 -1.4143  0.1472
 1541SOL    HW213592   0.444   4.884   0.871  2.2562  1.8078 -0.0890
 1542SOL     OW13593  10.807   8.868   2.478  0.1194  0.2407  0.0266
 1542SOL    HW113594  10.782   8.960   2.480  1.6025  0.7497 -1.9772
 1542SOL    HW213595  10.725   8.821   2.496 -0.8468  1.9182  0.2376
 1543SOL     OW13596   4.134   9.542   2.563 -0.2788  0.0903 -0.0771
 1543SOL    HW113597   4.041   9.546   2.586 -0.3977  0.3625 -0.6021
 1543SOL    HW213598   4.135   9.544   2.467  0.3471  2.1469 -0.0620
 1544SOL     OW13599  11.533   5.377   0.788 -0.3794  0.1555 -0.3134
 1544SOL    HW113600  11.459   5.383   0.728 -1.3256  1.2379  0.9121
 1544SOL    HW213601  11.588   5.452   0.766 -0.5086  0.3064 -0.1287
 1545SOL     OW13602   3.989   3.935   0.338  0.5964  0.3975  0.4807
 1545SOL    HW113603   4.063   3.989   0.311  0.8801 -0.9265 -1.6675
 1545SOL    HW213604   3.923   3.997   0.367  2.1506  1.6666  1.5012
 1546SOL     OW13605   4.969  12.389   7.076  0.5315  0.2913 -0.1427
 1546SOL    HW113606   4.996  12.297   7.066  0.3454  0.3261 -0.9989
 1546SOL    HW213607   4.881  12.393   7.039  0.5433  0.8217 -0.1249
 1547SOL     OW13608   3.517  12.169   9.263  0.1663  0.1849  0.2667
 1547SOL    HW113609   3.432  12.212   9.252 -0.4144 -0.7902  0.8542
 1547SOL    HW213610   3.524  12.153   9.357  0.8904  0.0282  0.1909
 1548SOL     OW13611   9.129   7.599   1.909  0.2926 -0.0346 -0.0280
 1548SOL    HW113612   9.058   7.627   1.850  1.2568 -0.4925 -1.4788
 1548SOL    HW213613   9.094   7.525   1.956 -0.3942  0.1035 -0.3073
 1549SOL     OW13614   9.848   8.878   0.796  0.0838 -0.2572 -0.1770
 1549SOL    HW113615   9.903   8.837   0.863 -1.3780 -0.8101  0.7335
 1549SOL    HW213616   9.811   8.954   0.839 -0.2024 -0.1356 -0.6335
 1550SOL     OW13617   1.082   1.723   9.082 -1.1335 -0.4644 -0.8363
 1550SOL    HW113618   1.005   1.713   9.138 -0.4924 -0.3872  0.0774
 1550SOL    HW213619   1.069   1.659   9.012 -1.2384 -1.6049  0.2086
 1551SOL     OW13620   8.179  10.914  11.545  0.3237  0.1480  0.0993
 1551SOL    HW113621   8.257  10.965  11.566  0.3465  0.1037  0.1224
 1551SOL    HW213622   8.109  10.979  11.538 -0.0496  0.0142  1.9983
 1552SOL     OW13623  11.500  11.027   6.312  0.0584  0.1939 -0.2249
 1552SOL    HW113624  11.568  11.078   6.269  0.3310 -0.4392 -0.5505
 1552SOL    HW213625  11.546  10.977   6.380 -0.3913  1.3080  0.9297
 1553SOL     OW13626   9.462   8.466   4.651 -0.1564  0.2221  0.3013
 1553SOL    HW113627   9.529   8.452   4.584 -0.2568 -1.5757  0.5382
 1553SOL    HW213628   9.442   8.560   4.646 -0.8411  0.0086 -2.8244
 1554SOL     OW13629   9.831   5.359   5.772  0.4886 -0.5261  0.1568
 1554SOL    HW113630   9.767   5.356   5.843  2.1158 -0.0405  1.7460
 1554SOL    HW213631   9.790   5.412   5.704 -0.1364  1.3439  1.8827
 1555SOL     OW13632   4.756   9.140  11.130  0.4867  0.2973 -0.4251
 1555SOL    HW113633   4.841   9.183  11.141 -0.0744  0.8786  2.3512
 1555SOL    HW213634   4.698   9.210  11.100  0.1789  0.9110  1.4727
 1556SOL     OW13635   7.752   2.149   2.708 -0.3080 -0.0759  0.2012
 1556SOL    HW113636   7.787   2.151   2.797  0.3021  0.4146 -0.0391
 1556SOL    HW213637   7.712   2.236   2.697 -1.5804 -0.6071  0.4538
 1557SOL     OW13638  10.130   7.060   2.160 -0.3041  0.1677  0.2105
 1557SOL    HW113639  10.215   7.017   2.161  0.4904  1.6498 -0.5886
 1557SOL    HW213640  10.145   7.145   2.202 -1.6491  0.0203  1.0578
 1558SOL     OW13641  11.876   2.225   1.536  1.0207 -0.3652  0.2674
 1558SOL    HW113642  11.838   2.238   1.449  1.9360 -0.8261 -0.2135
 1558SOL    HW213643  11.874   2.313   1.576  0.4014 -0.1928 -0.1274
 1559SOL     OW13644  12.132   6.295   0.591  0.1929  0.3507 -0.2332
 1559SOL    HW113645  12.113   6.295   0.497 -1.5416  0.7672  0.0863
 1559SOL    HW213646  12.219   6.255   0.598 -0.0204 -0.5102 -1.9422
 1560SOL     OW13647   0.184  11.328   1.206 -0.1083  0.4550 -0.6637
 1560SOL    HW113648   0.219  11.417   1.199  0.7900  0.0355 -1.8690
 1560SOL    HW213649   0.161  11.304   1.117 -1.5352 -0.0801 -0.1791
 1561SOL     OW13650   0.461   4.797   9.181  0.4096  0.1231 -0.8099
 1561SOL    HW113651   0.521   4.724   9.170 -0.8448 -0.9538 -0.7442
 1561SOL    HW213652   0.509   4.860   9.235  1.4169 -0.7655 -0.6388
 1562SOL     OW13653   5.725  10.932  10.994  0.2876 -0.2481 -0.2542
 1562SOL    HW113654   5.647  10.977  10.960  0.3352 -0.7510 -1.0557
 1562SOL    HW213655   5.736  10.967  11.082 -1.7810 -1.3040  0.4968
 1563SOL     OW13656   8.413   0.891   7.898  0.4511  0.1796 -0.1989
 1563SOL    HW113657   8.345   0.906   7.963 -0.0439 -1.4597 -0.2904
 1563SOL    HW213658   8.369   0.898   7.814  0.4192 -0.7250 -0.2638
 1564SOL     OW13659   7.448   5.185   9.426 -0.0055  0.1419  0.4311
 1564SOL    HW113660   7.433   5.224   9.512  0.4144  0.3765  0.3989
 1564SOL    HW213661   7.450   5.090   9.443 -0.9363  0.1297  0.5221
 1565SOL     OW13662   5.614  12.428   9.484  0.8447  0.9349  0.2959
 1565SOL    HW113663   5.590  12.501   9.541 -0.3099  1.2528 -0.5503
 1565SOL    HW213664   5.650  12.470   9.405  1.9464  0.5225  0.5745
 1566SOL     OW13665   6.462   4.098   6.368 -0.0138  0.2771 -0.2346
 1566SOL    HW113666   6.415   4.089   6.285  1.1335  0.7195 -0.9510
 1566SOL    HW213667   6.441   4.187   6.397 -0.9624 -0.1057  0.3231
 1567SOL     OW13668   7.285   8.120   6.038  0.1512 -0.2171 -0.1718
 1567SOL    HW113669   7.220   8.077   5.983  0.8580 -1.4251 -0.0937
 1567SOL    HW213670   7.249   8.114   6.127  0.1174 -0.4032 -0.1976
 1568SOL     OW13671   9.760   6.765   8.560 -0.3956  0.6293  0.1775
 1568SOL    HW113672   9.835   6.824   8.554 -0.8965  1.2933  0.3642
 1568SOL    HW213673   9.795   6.679   8.535  0.6465  0.7466  1.1526
 1569SOL     OW13674  10.606   4.729  12.530 -0.0033  0.2011 -0.6310
 1569SOL    HW113675  10.641   4.730  12.441  0.7121  0.3824 -0.3512
 1569SOL    HW213676  10.622   4.817  12.564 -1.3401  0.5034 -0.7167
 1570SOL     OW13677  11.570   4.175   2.646  0.3358  0.1415 -0.4651
 1570SOL    HW113678  11.607   4.134   2.724 -1.1212  2.3206  1.5341
 1570SOL    HW213679  11.567   4.105   2.581  0.9295 -2.0012  1.6601
 1571SOL     OW13680  11.571   3.245   5.173 -0.0047 -0.0575 -0.2814
 1571SOL    HW113681  11.540   3.235   5.083 -2.0225  1.1978  0.2184
 1571SOL    HW213682  11.549   3.335   5.196  1.7637  0.0990  1.0292
 1572SOL     OW13683   9.767   2.527   1.006  0.1698  0.5462  0.3969
 1572SOL    HW113684   9.754   2.610   0.960  0.2725  0.3591  0.0245
 1572SOL    HW213685   9.841   2.486   0.962 -2.1690 -1.4957 -2.0287
 1573SOL     OW13686  10.512   7.951  12.113 -0.3638  0.2166  0.8052
 1573SOL    HW113687  10.567   8.028  12.129  1.0903 -0.5696 -0.1648
 1573SOL    HW213688  10.423   7.985  12.115  0.2354  1.9557  0.2735
 1574SOL     OW13689   9.353   2.577   3.712  0.4669 -0.3909  0.5872
 1574SOL    HW113690   9.265   2.591   3.677  0.7176 -0.9741 -0.3086
 1574SOL    HW213691   9.400   2.531   3.642  1.6317  0.3478  0.8443
 1575SOL     OW13692   3.351   4.428  10.067  0.2357 -0.3672 -0.0904
 1575SOL    HW113693   3.291   4.452  10.137  0.5146  0.3311 -0.0846
 1575SOL    HW213694   3.317   4.345  10.034 -1.8906  0.8945 -1.3446
 1576SOL     OW13695   8.303  11.499  10.718  0.0467 -0.3662  0.3668
 1576SOL    HW113696   8.208  11.499  10.722  0.0796 -2.0047  2.0276
 1576SOL    HW213697   8.323  11.519  10.626 -1.8823 -0.1557 -0.0402
 1577SOL     OW13698   9.327   3.641  12.243  0.4290  0.8294  0.4247
 1577SOL    HW113699   9.238   3.610  12.226 -0.1756  3.3915 -1.8881
 1577SOL    HW213700   9.336   3.639  12.339 -1.8417 -0.1416  0.6666
 1578SOL     OW13701   9.342   7.555   8.498 -0.0793 -0.5719  0.3414
 1578SOL    HW113702   9.354   7.584   8.407  2.2957 -0.4857  0.6163
 1578SOL    HW213703   9.325   7.636   8.546 -0.5376 -0.5173  0.0929
 1579SOL     OW13704   7.798   6.273  11.729  0.2531 -0.1191  0.4598
 1579SOL    HW113705   7.758   6.224  11.657  1.7333 -1.3930  0.4640
 1579SOL    HW213706   7.837   6.350  11.687  1.6167 -1.1444 -0.2535
 1580SOL     OW13707   3.355   6.580   4.823  0.3496  0.0743  0.2765
 1580SOL    HW113708   3.421   6.593   4.891  1.1167  0.6718 -0.5535
 1580SOL    HW213709   3.328   6.668   4.798 -1.6949 -0.1659  1.4504
 1581SOL     OW13710  12.499   1.975   7.586 -0.4742  0.0545  0.7223
 1581SOL    HW113711  12.558   2.038   7.546 -1.8073  1.4363  0.8518
 1581SOL    HW213712  12.481   2.011   7.673 -0.3173 -1.1370  1.2718
 1582SOL     OW13713   1.702   9.538   9.339 -0.7819  0.1339 -0.0720
 1582SOL    HW113714   1.684   9.601   9.269 -1.1735  0.9929  0.7847
 1582SOL    HW213715   1.653   9.459   9.313  0.2854 -0.1046 -1.5101
 1583SOL     OW13716   1.223   2.082   2.004  0.6029 -0.3385  0.1993
 1583SOL    HW113717   1.174   2.037   2.073  1.4218 -0.0732  0.9695
 1583SOL    HW213718   1.314   2.063   2.023  0.8598 -0.0674 -0.6937
 1584SOL     OW13719  10.472   6.753   7.388  0.5743 -0.1163  0.4621
 1584SOL    HW113720  10.565   6.762   7.368  0.1231  1.7874 -0.9959
 1584SOL    HW213721  10.462   6.793   7.475  1.1542 -0.7075  0.8098
 1585SOL     OW13722   7.125  12.038  11.605  0.4554 -0.3132 -0.2865
 1585SOL    HW113723   7.132  12.132  11.620 -2.6505 -0.1751  0.9977
 1585SOL    HW213724   7.133  12.028  11.510 -1.7197  1.6385 -0.7581
 1586SOL     OW13725  11.786   0.326   7.569  0.4608 -0.0435 -0.2832
 1586SOL    HW113726  11.757   0.369   7.489 -0.1826 -1.1726 -0.6795
 1586SOL    HW213727  11.706   0.288   7.606  0.9158 -0.4243  0.3405
 1587SOL     OW13728   8.984   6.997   9.412  0.2517  0.1396  0.1343
 1587SOL    HW113729   8.957   6.960   9.496  0.2026 -1.0502 -0.3793
 1587SOL    HW213730   9.062   6.946   9.388  1.1311  1.4261  0.1200
 1588SOL     OW13731   4.320  11.349   7.135  0.1737 -0.5842 -0.4879
 1588SOL    HW113732   4.413  11.329   7.147 -0.0450 -1.1417  0.3869
 1588SOL    HW213733   4.293  11.296   7.060  0.8900  0.7017 -1.6946
 1589SOL     OW13734   2.514  12.140  10.826 -0.3459 -0.0040  1.0727
 1589SOL    HW113735   2.565  12.143  10.906  1.9925  1.6159 -0.3684
 1589SOL    HW213736   2.541  12.059  10.782  0.2371  0.3443  0.7854
 1590SOL     OW13737   3.759   5.315   2.304 -0.0640  0.3250  0.0232
 1590SOL    HW113738   3.698   5.250   2.269 -2.0809  2.6110 -0.9824
 1590SOL    HW213739   3.721   5.339   2.389 -1.3022  2.5171 -1.0612
 1591SOL     OW13740  11.966   3.121  12.135  0.2764  0.2439 -0.1837
 1591SOL    HW113741  11.885   3.114  12.085 -1.4309 -3.0888  2.5944
 1591SOL    HW213742  12.033   3.081  12.080 -0.3694  1.1334 -1.6710
 1592SOL     OW13743   4.190   9.033   3.997  0.0443  0.4960 -0.2266
 1592SOL    HW113744   4.101   9.063   4.017 -0.3400 -2.2506  3.0926
 1592SOL    HW213745   4.244   9.065   4.069  0.2346 -3.4338  1.6276
 1593SOL     OW13746   5.017   2.428  11.297 -0.1991  0.0504  0.1330
 1593SOL    HW113747   4.963   2.434  11.376 -0.4899  0.4349 -0.0891
 1593SOL    HW213748   5.063   2.345  11.305 -1.1035 -0.4598  0.1562
 1594SOL     OW13749  10.833   0.356   4.453  0.1448 -0.4321 -0.0114
 1594SOL    HW113750  10.918   0.311   4.456  0.7517  0.7179  0.6490
 1594SOL    HW213751  10.782   0.314   4.522 -0.2669 -1.9422 -1.1919
 1595SOL     OW13752  12.480   9.670   8.965 -0.4146  0.6174  0.1255
 1595SOL    HW113753  12.390   9.658   8.994  0.3565  1.0117  2.9920
 1595SOL    HW213754  12.480   9.757   8.924 -1.5999 -0.0224 -1.3084
 1596SOL     OW13755   9.615  10.593   8.343 -0.1258  0.6640 -0.3540
 1596SOL    HW113756   9.586  10.502   8.347  0.0843  0.5528 -1.1768
 1596SOL    HW213757   9.631  10.609   8.250  2.2801  0.7519  0.0117
 1597SOL     OW13758   6.599   0.577   2.399 -0.4868  0.0403 -0.0115
 1597SOL    HW113759   6.585   0.635   2.324  0.4393  1.8474  1.1336
 1597SOL    HW213760   6.602   0.489   2.362 -1.0414  0.7927 -1.9423
 1598SOL     OW13761   1.781   1.377   2.250 -0.5846  0.0671  0.4748
 1598SOL    HW113762   1.773   1.318   2.175  2.2719 -2.5967  2.0388
 1598SOL    HW213763   1.748   1.326   2.324  1.1378  0.7399  1.7588
 1599SOL     OW13764  11.615   7.792   4.850  0.1561 -0.8322 -0.7373
 1599SOL    HW113765  11.635   7.713   4.899  0.5089 -1.2681 -1.5568
 1599SOL    HW213766  11.600   7.761   4.760  1.1716  0.1209 -1.2606
 1600SOL     OW13767  10.033   6.226   0.178  0.6778  0.8175 -0.2927
 1600SOL    HW113768  10.003   6.312   0.209  1.2535  1.0515 -0.3697
 1600SOL    HW213769  10.037   6.234   0.083  0.2864  0.5534 -0.3334
 1601SOL     OW13770   8.962   8.760   4.076 -0.0873 -0.6907 -0.1449
 1601SOL    HW113771   9.037   8.763   4.136 -2.0148  1.9160  2.4236
 1601SOL    HW213772   8.905   8.692   4.112 -0.2503 -0.6905 -0.4012
 1602SOL     OW13773   6.202  10.628   6.377  0.3671  0.0635  0.1954
 1602SOL    HW113774   6.284  10.622   6.329 -0.1433 -0.3619 -0.6642
 1602SOL    HW213775   6.163  10.540   6.369 -1.4098  0.9359 -1.7459
 1603SOL     OW13776   5.733   1.754  11.391  0.5497 -0.0678  0.1869
 1603SOL    HW113777   5.694   1.776  11.475 -1.4580 -0.1137 -0.6816
 1603SOL    HW213778   5.700   1.820  11.330  1.5379 -0.3398 -0.6860
 1604SOL     OW13779  11.104  10.046   1.108  0.2669  0.7690 -0.0025
 1604SOL    HW113780  11.036  10.000   1.058  1.1176  0.3696 -0.8418
 1604SOL    HW213781  11.088  10.023   1.199 -1.6228  1.8905  0.0101
 1605SOL     OW13782   8.783   1.085   0.776  0.3098  0.5704  0.2524
 1605SOL    HW113783   8.805   0.993   0.762  1.7157  0.7690  0.9627
 1605SOL    HW213784   8.694   1.094   0.741 -0.2648 -1.2798  1.1255
 1606SOL     OW13785   8.128   5.152   1.122 -0.2180  0.2317 -0.0431
 1606SOL    HW113786   8.172   5.148   1.207 -0.1465 -2.0342 -0.1178
 1606SOL    HW213787   8.108   5.244   1.109  0.4747  0.7253  2.0710
 1607SOL     OW13788   1.483   6.076   1.425 -0.1475  0.1341  0.2965
 1607SOL    HW113789   1.442   6.153   1.386 -2.3606 -1.7070 -1.3028
 1607SOL    HW213790   1.575   6.081   1.399 -0.0832  2.5031  0.7816
 1608SOL     OW13791  10.052   4.977   7.143  0.6302  0.8591 -0.3081
 1608SOL    HW113792   9.972   4.955   7.190  1.7121  0.1031  1.2525
 1608SOL    HW213793  10.038   5.067   7.112 -0.7464  0.7850  0.0364
 1609SOL     OW13794   4.790   9.567   5.564  0.2429  0.7277 -0.3684
 1609SOL    HW113795   4.699   9.540   5.551 -0.0262  1.2016  0.5007
 1609SOL    HW213796   4.839   9.519   5.497 -0.8973  1.9953 -2.2099
 1610SOL     OW13797   6.316   8.351  10.572  0.0776 -0.1593  0.2310
 1610SOL    HW113798   6.225   8.341  10.600  0.4295  1.1477  1.9667
 1610SOL    HW213799   6.315   8.427  10.513 -0.0114 -0.4368 -0.1321
 1611SOL     OW13800   2.504  12.337   3.904 -0.1677  0.1065  0.1898
 1611SOL    HW113801   2.457  12.267   3.858 -0.5297  0.1081  0.5541
 1611SOL    HW213802   2.596  12.316   3.890 -0.2307 -1.5288  1.8700
 1612SOL     OW13803   5.949   0.263   3.777  0.1763  0.2798 -0.0727
 1612SOL    HW113804   6.027   0.251   3.832 -0.1450  0.8399  0.5198
 1612SOL    HW213805   5.894   0.187   3.797 -0.3688  0.9782  1.1224
 1613SOL     OW13806  10.729   7.188   8.759  0.0502  0.0337  0.1556
 1613SOL    HW113807  10.760   7.228   8.840  0.6381  0.5216 -0.2998
 1613SOL    HW213808  10.808   7.178   8.705 -0.0758 -1.7780  0.2622
 1614SOL     OW13809   9.912   3.334   5.155  0.3182 -0.1701 -0.0004
 1614SOL    HW113810   9.973   3.301   5.220 -1.3894 -3.6553  0.0576
 1614SOL    HW213811   9.838   3.366   5.205 -0.5878 -1.9717 -0.1150
 1615SOL     OW13812   4.985   5.031   5.589  0.7214  0.0284 -0.5855
 1615SOL    HW113813   5.009   5.113   5.546 -0.0717  1.4467  1.5164
 1615SOL    HW213814   5.029   5.035   5.674 -0.7064 -0.9307  0.2293
 1616SOL     OW13815   9.210   5.128   4.886  0.4373 -0.0500  1.0185
 1616SOL    HW113816   9.222   5.140   4.792  1.7029 -1.2628  0.9904
 1616SOL    HW213817   9.212   5.217   4.922  0.4133  0.3952 -0.0411
 1617SOL     OW13818   1.873   9.775   7.505 -0.4438  0.8685 -0.4241
 1617SOL    HW113819   1.794   9.813   7.467  0.1229  2.5745  0.0234
 1617SOL    HW213820   1.842   9.700   7.556 -1.4973  0.1299 -2.0460
 1618SOL     OW13821   6.942   6.821  10.617 -0.2778  0.0634  0.0611
 1618SOL    HW113822   6.961   6.903  10.663  1.5416 -0.7776  0.9225
 1618SOL    HW213823   6.869   6.842  10.559 -0.4825  2.0320  0.9540
 1619SOL     OW13824   9.612  10.860   6.525 -0.6475 -0.3647 -0.0092
 1619SOL    HW113825   9.530  10.825   6.490  0.0887 -0.2141 -2.0508
 1619SOL    HW213826   9.588  10.944   6.564 -1.5089 -0.4160 -0.4015
 1620SOL     OW13827   8.533   3.577   2.156 -0.4085 -0.0460 -0.2260
 1620SOL    HW113828   8.533   3.488   2.193  1.4373 -0.2895 -0.7234
 1620SOL    HW213829   8.483   3.568   2.075 -0.8599 -0.4662  0.0903
 1621SOL     OW13830   8.386   9.256   9.598 -0.0332 -0.2581  0.5041
 1621SOL    HW113831   8.434   9.336   9.579 -0.1828  0.0414  1.3332
 1621SOL    HW213832   8.377   9.256   9.693 -3.2486  0.6434  0.3146
 1622SOL     OW13833   5.163  10.635   2.709 -0.8893  0.1940  0.1728
 1622SOL    HW113834   5.163  10.684   2.626 -1.1844  2.5876  1.4984
 1622SOL    HW213835   5.210  10.692   2.770 -0.3740 -1.6742  1.6036
 1623SOL     OW13836   1.078   4.455  10.156  0.2306 -0.0143  0.3952
 1623SOL    HW113837   1.161   4.418  10.124  1.4158  1.4643  1.6343
 1623SOL    HW213838   1.077   4.544  10.121 -0.3158  0.3425  1.3098
 1624SOL     OW13839  11.056  11.724   1.678 -0.5701  0.8237 -0.3830
 1624SOL    HW113840  11.064  11.634   1.648  2.1334  0.4141  1.1824
 1624SOL    HW213841  11.078  11.777   1.601 -2.8689  0.2491 -1.5032
 1625SOL     OW13842   5.708  12.339  10.694  0.0427 -0.1266  0.0938
 1625SOL    HW113843   5.713  12.422  10.741  1.5655 -0.5046  0.6801
 1625SOL    HW213844   5.758  12.354  10.614  1.1185 -0.7148  0.6306
 1626SOL     OW13845   4.146   5.549   2.025  0.3903  0.2583 -0.1161
 1626SOL    HW113846   4.204   5.558   1.950  2.1539  0.5926  1.2231
 1626SOL    HW213847   4.121   5.456   2.024  2.7790 -0.4760  0.5003
 1627SOL     OW13848   5.400   6.063   7.303 -0.6287  0.0805  0.1872
 1627SOL    HW113849   5.416   6.054   7.209 -0.9639 -0.4099  0.1759
 1627SOL    HW213850   5.362   5.980   7.330 -0.2082  0.0842  0.8274
 1628SOL     OW13851   8.033  11.523  10.663  0.6137 -0.3668 -0.0817
 1628SOL    HW113852   8.056  11.534  10.570 -0.0141  1.6070 -0.0607
 1628SOL    HW213853   7.960  11.461  10.663  0.0398  0.2720 -1.0279
 1629SOL     OW13854   5.260   8.127  11.573  0.0619  0.1342 -0.1829
 1629SOL    HW113855   5.266   8.035  11.547 -2.8747 -0.1433 -0.1839
 1629SOL    HW213856   5.299   8.129  11.660  1.9471 -0.6685 -0.9434
 1630SOL     OW13857  12.092   6.437   5.059 -0.6681  0.2709 -0.0445
 1630SOL    HW113858  12.148   6.489   5.117  0.1752  1.5719 -1.9318
 1630SOL    HW213859  12.139   6.435   4.975 -1.8391 -1.5406 -0.7163
 1631SOL     OW13860   1.093   0.815  11.310 -0.5761 -0.5771 -0.1622
 1631SOL    HW113861   1.069   0.778  11.225  0.1630 -1.0152 -0.1921
 1631SOL    HW213862   1.181   0.851  11.296 -0.5129 -0.5244  0.3735
 1632SOL     OW13863   9.058   2.310   8.258  0.3710 -0.1146  0.1334
 1632SOL    HW113864   9.117   2.361   8.313  0.2918  2.1615 -1.7167
 1632SOL    HW213865   8.976   2.361   8.258 -0.3969 -1.3109 -0.2058
 1633SOL     OW13866   5.386   0.210   7.903 -0.1225  0.3333  0.6364
 1633SOL    HW113867   5.462   0.187   7.957 -1.4169 -1.1297  1.9317
 1633SOL    HW213868   5.409   0.178   7.815  0.7994  0.0343  0.9720
 1634SOL     OW13869   6.412   3.003   2.610 -0.0669 -0.4468  0.3356
 1634SOL    HW113870   6.376   2.942   2.674 -1.4614 -0.1368 -0.1032
 1634SOL    HW213871   6.383   2.969   2.525  2.2787 -1.2044 -0.2435
 1635SOL     OW13872  10.307   3.153   1.526 -0.0661 -0.3201 -0.0714
 1635SOL    HW113873  10.260   3.195   1.598  0.0147 -0.5422  0.1121
 1635SOL    HW213874  10.354   3.225   1.482  1.4937 -0.4360  1.3069
 1636SOL     OW13875   0.649   1.104   0.774 -0.3361 -0.1923  0.1067
 1636SOL    HW113876   0.579   1.095   0.839  0.1960 -3.1249  0.4014
 1636SOL    HW213877   0.635   1.030   0.714  1.2716  0.4079 -1.0728
 1637SOL     OW13878   4.490   5.454   3.492  0.5060  0.6864 -0.4602
 1637SOL    HW113879   4.582   5.437   3.471 -0.3255 -0.7492 -3.4797
 1637SOL    HW213880   4.456   5.501   3.416 -0.9783  2.6125  1.2672
 1638SOL     OW13881   6.221   1.496  11.722 -0.1461 -0.4899  0.3259
 1638SOL    HW113882   6.289   1.456  11.776 -0.8408  1.2052  2.6362
 1638SOL    HW213883   6.141   1.487  11.774 -0.9074  1.0685 -0.4861
 1639SOL     OW13884   1.179  12.541   0.901  0.3044  0.5233 -0.0704
 1639SOL    HW113885   1.098  12.493   0.917  0.3322  0.3349 -0.4755
 1639SOL    HW213886   1.168  12.623   0.949 -0.2164  0.5851 -0.2899
 1640SOL     OW13887  10.473   6.916   1.671  0.5105  0.2666  0.3331
 1640SOL    HW113888  10.560   6.877   1.679  0.1785 -0.5005  0.2814
 1640SOL    HW213889  10.421   6.849   1.627  0.1453  1.1139 -0.5736
 1641SOL     OW13890   5.537   5.402   5.908 -0.1627  0.0001 -0.3671
 1641SOL    HW113891   5.505   5.491   5.921  0.8729  0.4230 -0.5728
 1641SOL    HW213892   5.632   5.410   5.919 -0.2593 -1.7817  3.9441
 1642SOL     OW13893   4.436  11.258  11.347  0.4675  0.0266  0.1034
 1642SOL    HW113894   4.485  11.184  11.384 -0.0571 -0.6794 -0.5750
 1642SOL    HW213895   4.356  11.263  11.400  0.6003  0.2462  0.2844
 1643SOL     OW13896   2.313   0.719   4.405  0.1620 -0.5281 -0.0101
 1643SOL    HW113897   2.285   0.739   4.316 -0.0960 -0.1316  0.1579
 1643SOL    HW213898   2.405   0.744   4.408  0.4412 -1.4807 -0.4560
 1644SOL     OW13899   2.829   3.708   7.035  0.0809 -0.1054 -0.0647
 1644SOL    HW113900   2.901   3.733   6.977 -1.8927  1.7974 -1.9082
 1644SOL    HW213901   2.832   3.772   7.106  0.9283 -0.8383  0.5909
 1645SOL     OW13902   6.961   9.517   7.999  0.2246  0.6420 -0.2170
 1645SOL    HW113903   6.899   9.508   7.926  1.0642 -0.8062 -0.7873
 1645SOL    HW213904   7.023   9.583   7.968  0.1290  0.6044 -0.4984
 1646SOL     OW13905   1.683   1.741  10.405  0.7223  0.5051  0.2792
 1646SOL    HW113906   1.700   1.658  10.361 -0.9255  1.0144 -1.4220
 1646SOL    HW213907   1.665   1.803  10.334 -3.3025  1.0939  1.5548
 1647SOL     OW13908   0.624   7.770   7.224  0.4580 -0.0666 -0.3401
 1647SOL    HW113909   0.585   7.826   7.291 -0.3713  0.1846 -1.0074
 1647SOL    HW213910   0.623   7.683   7.263 -1.1171 -0.1295 -0.4388
 1648SOL     OW13911   2.615  12.551   9.845  0.4548 -0.1138 -0.0266
 1648SOL    HW113912   2.545  12.573   9.784  0.7371 -2.2636 -1.2330
 1648SOL    HW213913   2.657  12.635   9.864 -1.1200  0.9330 -0.9199
 1649SOL     OW13914  10.087  11.939   8.006 -0.1555 -0.4889  0.4927
 1649SOL    HW113915  10.167  11.886   7.997  1.1711  1.5183 -0.3481
 1649SOL    HW213916  10.021  11.877   8.038  1.2224 -2.6738 -0.6076
 1650SOL     OW13917   4.623   4.815   7.485 -0.8519  0.2610 -0.2365
 1650SOL    HW113918   4.570   4.735   7.483 -0.1769 -0.1701 -1.0720
 1650SOL    HW213919   4.626   4.839   7.578  0.4418 -1.7059  0.2836
 1651SOL     OW13920   7.594  10.332   6.656 -0.5101 -0.4103 -0.1054
 1651SOL    HW113921   7.606  10.349   6.562 -0.6389 -0.6743 -0.1706
 1651SOL    HW213922   7.635  10.407   6.699  0.6586 -0.8876 -0.3453
 1652SOL     OW13923   2.365  10.549   4.558  0.3391  0.0930  0.0755
 1652SOL    HW113924   2.357  10.496   4.479 -2.6946 -0.8811  0.8651
 1652SOL    HW213925   2.413  10.493   4.620  0.0463 -0.4015 -0.1371
 1653SOL     OW13926   5.940   8.856   9.891 -0.4643  0.3876  0.8602
 1653SOL    HW113927   6.024   8.892   9.862 -0.7099  0.5840  0.3983
 1653SOL    HW213928   5.924   8.782   9.832 -0.1485 -0.2615  1.5621
 1654SOL     OW13929   8.592   4.461   8.691 -0.1446 -0.0734  0.3673
 1654SOL    HW113930   8.622   4.409   8.765  2.1990 -3.1463 -2.4155
 1654SOL    HW213931   8.538   4.401   8.639 -0.5253  1.4800 -1.1564
 1655SOL     OW13932   2.862   8.809  10.989 -0.0187 -0.0519  0.4411
 1655SOL    HW113933   2.830   8.838  11.075  0.1504 -0.4995  0.6588
 1655SOL    HW213934   2.913   8.884  10.957  1.2348 -0.4318  1.4269
 1656SOL     OW13935   3.523   6.654   8.095 -0.3394 -0.1677  0.0282
 1656SOL    HW113936   3.546   6.700   8.014  0.2737  0.2779  0.4474
 1656SOL    HW213937   3.597   6.670   8.153 -0.8856 -0.2853  0.7639
 1657SOL     OW13938  12.493   2.702  10.975  0.1957 -0.6493 -0.1334
 1657SOL    HW113939  12.554   2.733  11.042  1.0700  1.4065 -1.7599
 1657SOL    HW213940  12.423   2.768  10.975  1.0144  0.3192 -2.2409
 1658SOL     OW13941   3.219   4.365   5.562 -0.2426  0.0480  0.1123
 1658SOL    HW113942   3.161   4.437   5.537 -0.2802  0.4364  1.2558
 1658SOL    HW213943   3.287   4.407   5.615 -0.1706 -0.7353  0.6428
 1659SOL     OW13944   3.972  11.246   9.327 -0.3184  0.0411  0.5322
 1659SOL    HW113945   3.950  11.339   9.323  0.2590  0.1272 -1.4857
 1659SOL    HW213946   3.911  11.204   9.267  1.7724 -0.3305 -1.4891
 1660SOL     OW13947   1.458   7.251   8.451  0.4644 -0.1036  0.3786
 1660SOL    HW113948   1.494   7.162   8.452 -1.2145 -0.8976 -1.6211
 1660SOL    HW213949   1.483   7.286   8.365 -0.2334  0.7518  0.5124
 1661SOL     OW13950   1.235   5.280   7.566  0.4053 -0.0283 -0.7563
 1661SOL    HW113951   1.178   5.204   7.580 -0.2196  0.4138 -0.8677
 1661SOL    HW213952   1.232   5.329   7.648  0.8161 -0.1214 -0.6808
 1662SOL     OW13953   5.492  12.149   3.249 -0.0280  0.0435 -0.3114
 1662SOL    HW113954   5.574  12.101   3.240 -0.1213 -0.0752 -0.5425
 1662SOL    HW213955   5.508  12.212   3.319 -0.2130 -0.9699  0.6686
 1663SOL     OW13956   6.165   8.493  10.845 -0.2523  0.1537  0.0521
 1663SOL    HW113957   6.093   8.432  10.859  0.0978 -0.8743 -2.1854
 1663SOL    HW213958   6.242   8.447  10.877 -0.0180 -0.5680 -1.4540
 1664SOL     OW13959   9.561   0.488  11.747  0.1717  0.2922 -0.4572
 1664SOL    HW113960   9.651   0.469  11.772  0.5844  1.1136 -1.2735
 1664SOL    HW213961   9.554   0.583  11.751 -1.5697  0.1641  2.5788
 1665SOL     OW13962   7.755  10.729   3.338  0.0341  0.3356 -0.1983
 1665SOL    HW113963   7.721  10.651   3.380  0.4258  0.7910  1.0117
 1665SOL    HW213964   7.688  10.754   3.275 -1.4090  0.6003  1.3677
 1666SOL     OW13965   2.977   2.118   9.289  0.3535 -0.2030  0.5042
 1666SOL    HW113966   3.038   2.045   9.286 -0.1281 -0.5883 -0.2518
 1666SOL    HW213967   2.921   2.106   9.212  0.4041  1.0820  0.2450
 1667SOL     OW13968   9.474  10.974   5.073  0.1983 -0.6364  0.1735
 1667SOL    HW113969   9.449  11.037   5.006 -0.5747 -0.1033  0.9299
 1667SOL    HW213970   9.540  10.918   5.031  1.9318  1.4877 -0.1133
 1668SOL     OW13971   7.238   0.485   8.616  0.0026 -0.4745  0.0144
 1668SOL    HW113972   7.190   0.531   8.685  0.3897 -0.6857  0.4381
 1668SOL    HW213973   7.279   0.411   8.662  0.5038 -0.4494 -0.3895
 1669SOL     OW13974   1.765  11.524   2.507  0.4619 -0.1058  0.2437
 1669SOL    HW113975   1.757  11.544   2.600 -1.7578  1.0827 -0.1102
 1669SOL    HW213976   1.839  11.576   2.477  0.6453  0.1956  1.1914
 1670SOL     OW13977   0.026   0.361   2.661  0.6467  0.1900 -0.4051
 1670SOL    HW113978   0.007   0.269   2.645  0.1377  0.4701 -1.5761
 1670SOL    HW213979   0.037   0.398   2.573  2.6334  0.8901  0.0966
 1671SOL     OW13980   9.386   9.563   6.296  0.2162  0.2795 -0.2328
 1671SOL    HW113981   9.416   9.653   6.311  0.3931  0.2683 -0.5133
 1671SOL    HW213982   9.419   9.514   6.372 -0.3249  0.5506  0.1872
 1672SOL     OW13983   9.965   8.821   8.518 -0.4482  0.2101  0.5142
 1672SOL    HW113984  10.052   8.781   8.522 -1.1180 -1.5682 -0.9426
 1672SOL    HW213985   9.951   8.839   8.425 -1.4105  1.0121  0.7924
 1673SOL     OW13986   3.626   6.532   8.739 -0.1402  0.0561  0.4713
 1673SOL    HW113987   3.601   6.446   8.706  2.3604  0.1976 -2.0816
 1673SOL    HW213988   3.681   6.514   8.816  0.2161 -0.6159  0.0618
 1674SOL     OW13989   2.495   8.867   7.522  0.3932 -0.0675  0.1878
 1674SOL    HW113990   2.408   8.895   7.494  1.2222  1.3052 -1.2587
 1674SOL    HW213991   2.539   8.841   7.440  1.1542 -1.3491  0.9637
 1675SOL     OW13992   4.840  10.766   5.785  0.0012  0.6130 -0.3483
 1675SOL    HW113993   4.768  10.732   5.838  0.7323 -0.4740 -0.0264
 1675SOL    HW213994   4.832  10.719   5.702  0.3199  0.5131 -0.3215
 1676SOL     OW13995  12.203   1.343   8.730 -0.0764 -0.1720  0.5142
 1676SOL    HW113996  12.173   1.425   8.692 -1.4932 -1.2253 -0.8037
 1676SOL    HW213997  12.133   1.280   8.709  1.2609 -1.8555  0.8704
 1677SOL     OW13998   8.614   1.033   6.320 -0.3511  0.2994 -0.2990
 1677SOL    HW113999   8.577   0.945   6.326  2.7190 -1.0745  0.4893
 1677SOL    HW214000   8.540   1.090   6.300 -2.4438 -2.4565 -0.8339
 1678SOL     OW14001  12.023   8.755   2.295 -0.2357  0.2179  0.1742
 1678SOL    HW114002  12.016   8.843   2.258  1.1361  1.2616  2.1481
 1678SOL    HW214003  12.065   8.769   2.380  0.1001 -2.3772  0.5119
 1679SOL     OW14004   6.035   1.473  10.937  0.3471  1.1886  0.4764
 1679SOL    HW114005   6.025   1.383  10.968  0.9886  0.9418 -0.0165
 1679SOL    HW214006   6.117   1.503  10.977  0.7828  1.1266 -0.3479
 1680SOL     OW14007   5.743   9.564   4.201  0.3023  0.0229 -0.3881
 1680SOL    HW114008   5.828   9.603   4.179  0.1817  1.0722  0.9210
 1680SOL    HW214009   5.685   9.639   4.215 -0.7426 -0.6817 -0.8601
 1681SOL     OW14010   9.381   3.184   1.681 -1.1567  0.0129  0.8487
 1681SOL    HW114011   9.443   3.127   1.726 -0.0190  0.3566 -0.2334
 1681SOL    HW214012   9.360   3.252   1.745  0.2955  0.4031  0.9375
 1682SOL     OW14013   9.047   2.646   4.194  0.0771 -0.0990  0.7405
 1682SOL    HW114014   8.996   2.580   4.241 -1.4971 -0.1250 -0.8872
 1682SOL    HW214015   9.073   2.603   4.113  1.7513  0.3050  1.0333
 1683SOL     OW14016   9.672   4.494   7.063  0.3127 -0.3568 -0.4880
 1683SOL    HW114017   9.583   4.459   7.062 -0.3371  1.1559  0.2180
 1683SOL    HW214018   9.701   4.489   6.972 -1.9428  2.5030 -1.5152
 1684SOL     OW14019  10.424   9.785   1.777 -0.1654  0.6776 -0.1593
 1684SOL    HW114020  10.416   9.708   1.833 -0.4854 -0.0430 -1.1618
 1684SOL    HW214021  10.426   9.859   1.837  0.7279 -0.1426  0.8584
 1685SOL     OW14022   5.391  10.603  11.328  0.0128  0.4200  0.0587
 1685SOL    HW114023   5.336  10.527  11.307  0.7443  0.1738 -1.0353
 1685SOL    HW214024   5.459  10.603  11.261  0.8401  1.2390  0.8649
 1686SOL     OW14025   3.290   1.308   7.237 -0.5584 -0.2401  0.2817
 1686SOL    HW114026   3.238   1.289   7.315 -0.4955 -1.7061 -0.0111
 1686SOL    HW214027   3.268   1.399   7.214 -1.7051 -0.2983  1.1257
 1687SOL     OW14028   7.327  10.122   2.992  0.3887 -0.4512  0.4221
 1687SOL    HW114029   7.411  10.166   3.003  0.5411 -0.7186  0.3376
 1687SOL    HW214030   7.263  10.193   2.988  0.6901 -0.2125 -0.2516
 1688SOL     OW14031   8.855   4.800   5.420  0.3030 -0.0834 -0.4804
 1688SOL    HW114032   8.916   4.726   5.428  0.3682 -0.0249 -0.4461
 1688SOL    HW214033   8.907   4.871   5.384  0.2627 -0.0234 -0.4209
 1689SOL     OW14034   9.888   3.668   5.761  0.4291 -0.1031  0.6835
 1689SOL    HW114035   9.919   3.682   5.851  0.4929  0.3379  0.5947
 1689SOL    HW214036   9.950   3.717   5.707  0.6027 -0.6616  0.3719
 1690SOL     OW14037   2.761  10.597   6.454 -0.3051  0.4403  0.3670
 1690SOL    HW114038   2.759  10.545   6.534 -0.5680 -0.8418 -0.4304
 1690SOL    HW214039   2.729  10.683   6.479 -0.4587  0.0327  1.6151
 1691SOL     OW14040   6.371   3.201   7.733  0.0418 -0.5162  0.4099
 1691SOL    HW114041   6.427   3.178   7.658 -0.9927 -1.1654 -0.1884
 1691SOL    HW214042   6.397   3.290   7.756 -0.1550 -0.0065 -1.2401
 1692SOL     OW14043   9.523   5.735  10.886  0.2230 -0.1902 -0.2146
 1692SOL    HW114044   9.588   5.744  10.955  0.6823 -0.8937 -0.5483
 1692SOL    HW214045   9.534   5.814  10.833 -1.0175  1.0254  1.2185
 1693SOL     OW14046   8.083  12.208  11.216 -0.3415 -0.0358  0.0108
 1693SOL    HW114047   7.995  12.177  11.192 -0.8292  1.5846 -0.4248
 1693SOL    HW214048   8.072  12.246  11.303  0.1498 -0.6268  0.3416
 1694SOL     OW14049   0.270  12.497  11.468  0.3370 -0.3562  0.3775
 1694SOL    HW114050   0.245  12.587  11.489  2.3508  0.5861 -0.9721
 1694SOL    HW214051   0.189  12.456  11.436 -0.7165  0.7887  1.4591
 1695SOL     OW14052  11.417   3.792   0.302  0.0800  0.0194  0.4731
 1695SOL    HW114053  11.373   3.875   0.321 -1.6669 -0.6538 -0.3766
 1695SOL    HW214054  11.452   3.763   0.386 -0.6043  0.8863  1.0745
 1696SOL     OW14055   4.391   9.618   0.018  0.0242  0.2423  0.7180
 1696SOL    HW114056   4.335   9.583   0.087 -0.7046  0.1778  0.1022
 1696SOL    HW214057   4.338   9.613  -0.061  1.0079 -0.1019  0.0596
 1697SOL     OW14058   7.747   2.658   5.100  0.3991 -0.0657 -0.4371
 1697SOL    HW114059   7.742   2.704   5.184  0.0731 -0.2019 -0.3797
 1697SOL    HW214060   7.717   2.569   5.120  2.2720 -0.6900 -0.2622
 1698SOL     OW14061   1.159   4.757  10.597  0.1632 -0.2814 -0.7245
 1698SOL    HW114062   1.226   4.825  10.585 -0.2275  0.0296 -1.2060
 1698SOL    HW214063   1.095   4.775  10.528 -1.0280  0.1415  0.4409
 1699SOL     OW14064   4.483  11.596   3.117 -0.1084 -0.5709  0.4964
 1699SOL    HW114065   4.532  11.566   3.194  1.6566  1.5044  0.2591
 1699SOL    HW214066   4.545  11.586   3.045 -1.2980 -1.2441 -0.4541
 1700SOL     OW14067   2.090   6.561   8.951 -0.0323  0.2171 -0.1818
 1700SOL    HW114068   2.076   6.655   8.963 -2.0720 -0.0738  0.0332
 1700SOL    HW214069   2.185   6.551   8.944  0.4263  1.9920  2.3431
 1701SOL     OW14070   8.954   3.948  11.282 -0.1997  0.6968  0.0447
 1701SOL    HW114071   9.036   3.899  11.274  0.6254  1.1473  3.9771
 1701SOL    HW214072   8.981   4.038  11.299 -1.4855  0.8575  1.3944
 1702SOL     OW14073   4.520   0.658   4.541  0.4145 -0.0635  0.2382
 1702SOL    HW114074   4.487   0.747   4.550 -0.2770 -0.3560  0.7462
 1702SOL    HW214075   4.481   0.626   4.459  0.6765  0.1057  0.0471
 1703SOL     OW14076  12.564   4.327  10.534  0.8936 -0.3280 -0.1838
 1703SOL    HW114077  12.653   4.340  10.501  1.0770 -2.5963 -0.7249
 1703SOL    HW214078  12.511   4.388  10.482  1.8547 -0.4550 -1.3783
 1704SOL     OW14079  10.630   0.198  11.022 -0.0125 -0.2612 -0.1823
 1704SOL    HW114080  10.686   0.276  11.025 -0.0322 -0.2536 -0.0287
 1704SOL    HW214081  10.576   0.211  10.945 -0.8888  0.4747  0.5428
 1705SOL     OW14082   8.159  11.593   2.229  0.4310  0.1303  0.0022
 1705SOL    HW114083   8.137  11.565   2.318  1.6574  0.2034  0.3540
 1705SOL    HW214084   8.107  11.672   2.215  0.0506 -0.0152  0.5634
 1706SOL     OW14085   3.841   6.813   6.085  0.4862 -0.1575  0.5403
 1706SOL    HW114086   3.747   6.808   6.105 -0.1950  2.3680 -1.3782
 1706SOL    HW214087   3.853   6.753   6.011  0.4121 -0.5380  0.8333
 1707SOL     OW14088   7.980   7.631  11.701 -0.0683 -0.0050 -0.3745
 1707SOL    HW114089   8.005   7.643  11.793 -0.6913 -0.1640 -0.1776
 1707SOL    HW214090   8.060   7.649  11.652  1.2145 -3.0814  0.3482
 1708SOL     OW14091   4.931   0.633   7.367 -0.1133  0.3040  0.2003
 1708SOL    HW114092   4.983   0.553   7.362  1.1626  1.1477 -0.8327
 1708SOL    HW214093   4.863   0.622   7.302 -1.2954 -0.8216  1.5759
 1709SOL     OW14094   1.654   1.807   6.850  0.3478 -0.2796 -0.6777
 1709SOL    HW114095   1.615   1.801   6.937  0.1674 -0.2397 -0.7539
 1709SOL    HW214096   1.662   1.716   6.821  1.1429 -0.3363 -0.3031
 1710SOL     OW14097   4.982   2.362   5.455 -0.6326 -0.4900 -0.4745
 1710SOL    HW114098   4.968   2.289   5.515 -2.5034  0.1620 -0.0681
 1710SOL    HW214099   5.070   2.346   5.419 -0.3492 -2.0585  0.7836
 1711SOL     OW14100   5.933   4.402  12.173 -0.3080  0.2468  0.1063
 1711SOL    HW114101   5.845   4.422  12.143 -0.0667 -1.4934 -2.0094
 1711SOL    HW214102   5.921   4.328  12.234 -0.2697 -0.8085 -1.1201
 1712SOL     OW14103  11.709  11.504   0.459 -0.0987  0.0891  0.3896
 1712SOL    HW114104  11.695  11.431   0.519 -1.3781  1.1346  1.4160
 1712SOL    HW214105  11.691  11.582   0.512  2.0057  1.2215 -0.4397
 1713SOL     OW14106   5.982   2.395   4.916  0.2691 -0.3980  0.1647
 1713SOL    HW114107   5.946   2.378   5.003 -0.1908 -0.5207 -0.0484
 1713SOL    HW214108   5.908   2.384   4.856  0.3507  0.6208 -0.1513
 1714SOL     OW14109   4.343   6.253   3.915  0.2715 -0.3624 -0.2298
 1714SOL    HW114110   4.299   6.293   3.840  0.4915  0.1214 -0.0994
 1714SOL    HW214111   4.366   6.326   3.972 -0.2366 -0.7538  0.4982
 1715SOL     OW14112   9.209   9.534  10.472 -0.0816 -0.0109 -0.0101
 1715SOL    HW114113   9.130   9.576  10.438 -0.1711 -0.5937 -0.5374
 1715SOL    HW214114   9.250   9.494  10.395 -0.6163 -1.9031  0.6206
 1716SOL     OW14115   3.010  11.285   9.167 -0.3573 -0.1868  0.2681
 1716SOL    HW114116   3.050  11.275   9.081  0.4317  0.5649  0.5316
 1716SOL    HW214117   3.018  11.199   9.207  1.9410  0.1291  0.6752
 1717SOL     OW14118   5.238  12.206   0.984 -0.6793  0.5316 -0.4209
 1717SOL    HW114119   5.153  12.197   1.026 -1.4371 -2.2126 -2.2500
 1717SOL    HW214120   5.220  12.260   0.906 -2.0908 -3.7708 -3.4685
 1718SOL     OW14121   7.625   9.865   0.942 -0.6103 -0.2769 -0.1108
 1718SOL    HW114122   7.585   9.948   0.917  0.5422  0.2506 -0.2896
 1718SOL    HW214123   7.623   9.865   1.038 -0.7636 -0.1262 -0.1130
 1719SOL     OW14124   8.487  12.046   6.723 -0.5799 -0.2020  0.0444
 1719SOL    HW114125   8.459  11.978   6.784 -0.5853 -0.2908 -0.0572
 1719SOL    HW214126   8.455  12.017   6.638 -4.8944  2.1717  0.5352
 1720SOL     OW14127  11.228  12.588   6.827  0.0478 -0.3880  0.1915
 1720SOL    HW114128  11.159  12.575   6.762  2.0609 -2.1358 -1.7636
 1720SOL    HW214129  11.190  12.648   6.891 -2.2656  0.9844 -2.2781
 1721SOL     OW14130   9.216   8.106   0.975 -0.4857 -0.1529 -0.0793
 1721SOL    HW114131   9.223   8.193   1.014 -0.7907 -0.2272  0.1416
 1721SOL    HW214132   9.287   8.055   1.015  1.5262  0.7465 -2.2524
 1722SOL     OW14133   9.639  11.400   1.037  0.0105 -0.2716  0.1816
 1722SOL    HW114134   9.579  11.361   1.099 -0.2035  0.3385  0.3676
 1722SOL    HW214135   9.668  11.327   0.982 -1.5991 -0.4394 -0.5099
 1723SOL     OW14136   1.900   6.342  10.177  0.5627  0.1406  0.3175
 1723SOL    HW114137   1.933   6.378  10.095 -0.5076 -0.1224 -0.2525
 1723SOL    HW214138   1.954   6.265  10.193  0.8615  0.2650 -0.0839
 1724SOL     OW14139   0.166   3.165   9.898 -0.3588 -0.0815  0.2069
 1724SOL    HW114140   0.218   3.112   9.838  1.2072  2.9278 -1.3635
 1724SOL    HW214141   0.097   3.203   9.843 -0.4250  0.7733  0.8466
 1725SOL     OW14142   3.899   9.127   3.617 -0.2404  0.5105 -0.4853
 1725SOL    HW114143   3.837   9.181   3.568  0.0231 -0.7297 -2.2730
 1725SOL    HW214144   3.850   9.096   3.693 -0.8676  1.9340 -0.2764
 1726SOL     OW14145   4.877   0.005  11.814 -0.8686  0.0571  0.8551
 1726SOL    HW114146   4.909   0.087  11.850  0.3557 -0.2220  0.4508
 1726SOL    HW214147   4.793   0.028  11.774  0.0957  1.4444 -0.4957
 1727SOL     OW14148  11.833  10.800   0.986  0.5561  0.4342 -0.6421
 1727SOL    HW114149  11.851  10.745   1.062  0.2190 -0.0647 -0.9147
 1727SOL    HW214150  11.770  10.749   0.934 -0.1258  1.2743 -0.6655
 1728SOL     OW14151   6.012  10.936   5.986  0.0321  0.1640 -0.6323
 1728SOL    HW114152   5.970  10.916   5.902 -1.2217 -1.2001  0.2564
 1728SOL    HW214153   6.067  10.861   6.004 -1.0237 -0.3730  0.5288
 1729SOL     OW14154   5.637   6.511   3.766 -0.4612 -0.4154 -0.1000
 1729SOL    HW114155   5.585   6.431   3.776 -0.6027 -0.3375 -0.1968
 1729SOL    HW214156   5.718   6.493   3.813  0.0719 -1.1133 -1.2347
 1730SOL     OW14157   4.391   1.296   9.509 -0.1278  0.2788 -0.1438
 1730SOL    HW114158   4.445   1.350   9.565  0.8678 -0.4164 -0.4123
 1730SOL    HW214159   4.414   1.206   9.531 -0.0086 -0.0142 -1.3612
 1731SOL     OW14160   4.575   6.258   0.127 -0.1848  0.7871  0.4248
 1731SOL    HW114161   4.513   6.184   0.129  1.0118 -0.2952 -0.8788
 1731SOL    HW214162   4.613   6.258   0.215 -0.0109 -0.3439  0.3720
 1732SOL     OW14163  11.696   6.593   2.778  0.3953  0.3996  0.1477
 1732SOL    HW114164  11.727   6.503   2.782  0.8583  0.4318 -1.8065
 1732SOL    HW214165  11.772   6.646   2.800  0.6078  0.3539 -0.4616
 1733SOL     OW14166   2.942   2.720  11.869 -0.3144 -0.3531  0.2109
 1733SOL    HW114167   2.911   2.786  11.807  0.6031 -0.3718 -0.2975
 1733SOL    HW214168   2.952   2.767  11.952 -0.9548 -0.1760  0.1886
 1734SOL     OW14169  11.805  10.195   0.156 -0.9891 -0.1428 -0.2124
 1734SOL    HW114170  11.810  10.217   0.249 -0.5620 -1.0435 -0.0039
 1734SOL    HW214171  11.872  10.127   0.144 -0.6169  0.3907 -1.3079
 1735SOL     OW14172   0.418   0.030   1.089  0.0708 -0.3575  0.4238
 1735SOL    HW114173   0.336  -0.017   1.078 -0.0208 -0.3990  1.2140
 1735SOL    HW214174   0.485  -0.029   1.054 -0.1802 -0.5208  0.2168
 1736SOL     OW14175   0.919  11.020   5.067  0.9015  0.7287 -0.2205
 1736SOL    HW114176   0.880  10.951   5.121 -0.6849  1.5850 -0.2412
 1736SOL    HW214177   1.003  11.038   5.109 -0.3572  1.5011  2.0991
 1737SOL     OW14178   8.437   6.866  11.375  0.0892  0.1806 -0.2572
 1737SOL    HW114179   8.362   6.810  11.352 -0.1627 -0.1732  1.2846
 1737SOL    HW214180   8.505   6.841  11.312 -1.0215  0.4258 -1.6169
 1738SOL     OW14181  11.578   1.543  10.903  0.1753 -0.0924  0.8782
 1738SOL    HW114182  11.503   1.515  10.851 -0.8318  1.1407  1.6184
 1738SOL    HW214183  11.633   1.592  10.842  0.0763 -0.4756  0.4763
 1739SOL     OW14184   1.432   5.259   6.675 -0.4545  0.1907  0.2463
 1739SOL    HW114185   1.389   5.338   6.642 -0.7734  0.3104  0.9161
 1739SOL    HW214186   1.391   5.188   6.626 -0.7671  0.3786  0.2299
 1740SOL     OW14187  10.594   0.243   1.978  0.4662 -0.1714  0.1955
 1740SOL    HW114188  10.515   0.235   1.925  0.4390  1.4102 -0.0755
 1740SOL    HW214189  10.579   0.323   2.030  1.8667  0.1547  0.1371
 1741SOL     OW14190  10.153   5.040   6.541  0.0781  0.3654  0.0630
 1741SOL    HW114191  10.225   5.050   6.604  0.8358  0.5107 -0.8165
 1741SOL    HW214192  10.194   5.050   6.456 -1.1316  1.2496 -0.4331
 1742SOL     OW14193   8.054   3.380   5.357 -0.6309 -0.0797  0.5347
 1742SOL    HW114194   8.149   3.372   5.356 -0.5059  1.1027  1.2908
 1742SOL    HW214195   8.022   3.290   5.371  0.2774 -0.7986 -1.6328
 1743SOL     OW14196   7.182  10.459   7.702  0.3076  0.1083  0.3245
 1743SOL    HW114197   7.269  10.498   7.698  0.6045 -0.4659  0.9543
 1743SOL    HW214198   7.127  10.526   7.744  0.2286  0.8151 -0.8621
 1744SOL     OW14199   0.317   5.817   0.627  0.7674 -0.2729 -0.5868
 1744SOL    HW114200   0.234   5.836   0.582 -0.4799 -2.5246  0.5767
 1744SOL    HW214201   0.324   5.884   0.695 -0.2665 -0.2399 -0.4982
 1745SOL     OW14202   0.539   5.202  12.593  0.0786 -0.2942  0.5437
 1745SOL    HW114203   0.480   5.127  12.588 -0.7710  0.4260 -0.6716
 1745SOL    HW214204   0.552   5.217  12.686 -1.8423 -0.3494  0.8539
 1746SOL     OW14205  12.189   8.252   7.079 -0.0059  0.8726  0.0472
 1746SOL    HW114206  12.203   8.316   7.149 -0.5250  0.4154  0.5828
 1746SOL    HW214207  12.166   8.171   7.125 -1.0372  0.7359 -0.6674
 1747SOL     OW14208   7.460  12.583   5.331  0.0875 -0.2933 -0.6536
 1747SOL    HW114209   7.499  12.650   5.275 -0.0368  0.2597 -0.0785
 1747SOL    HW214210   7.411  12.631   5.397  0.4240 -0.9343  0.0786
 1748SOL     OW14211   0.973   8.045   2.239  0.0392 -0.8475  0.1746
 1748SOL    HW114212   1.038   8.086   2.296 -0.7723  1.2783 -0.3316
 1748SOL    HW214213   0.952   8.112   2.174 -0.9224 -2.3142 -1.1123
 1749SOL     OW14214   3.970  11.695  10.062 -0.4391 -0.1484  0.5377
 1749SOL    HW114215   3.911  11.709   9.988  1.0590 -1.5713 -1.0155
 1749SOL    HW214216   3.952  11.605  10.091 -1.2287  0.4895  2.1811
 1750SOL     OW14217   7.550   9.056   6.426 -0.0918  0.6674 -0.0551
 1750SOL    HW114218   7.612   9.031   6.357 -0.7278 -0.6145 -0.1831
 1750SOL    HW214219   7.527   8.974   6.469  0.1207  1.4137  1.5644
 1751SOL     OW14220   3.154   8.281   3.807 -0.5124  0.2601 -0.3700
 1751SOL    HW114221   3.083   8.330   3.764 -0.2437  1.6692  0.7020
 1751SOL    HW214222   3.186   8.341   3.875  2.0689 -0.1019 -1.1532
 1752SOL     OW14223   4.983  12.104   6.958 -0.5064 -0.2920 -0.1736
 1752SOL    HW114224   5.025  12.154   6.889 -0.3193  0.8796  0.7582
 1752SOL    HW214225   5.040  12.028   6.971  1.7087  1.4870  1.3987
 1753SOL     OW14226   9.276   1.244   6.179 -0.8235 -0.4507 -0.2778
 1753SOL    HW114227   9.198   1.299   6.191 -0.5261  0.2221 -1.2944
 1753SOL    HW214228   9.252   1.159   6.216 -1.7148  0.0222  0.2458
 1754SOL     OW14229   6.676   2.550  12.255  0.1499  0.0581 -0.8058
 1754SOL    HW114230   6.720   2.599  12.186 -0.9051 -1.0577 -2.3319
 1754SOL    HW214231   6.670   2.461  12.222  0.5177 -0.7803  1.1870
 1755SOL     OW14232   4.826   7.709   4.208  0.2100 -0.4837  0.8121
 1755SOL    HW114233   4.906   7.657   4.200  0.8192  0.4665  0.5799
 1755SOL    HW214234   4.846   7.776   4.273  0.5746  1.4362 -1.1281
 1756SOL     OW14235   0.566   2.211   5.766  0.4105 -0.2116  0.7126
 1756SOL    HW114236   0.578   2.172   5.853 -0.3432 -1.1734  0.4023
 1756SOL    HW214237   0.501   2.156   5.724  0.6802  0.3167 -0.4348
 1757SOL     OW14238  11.788   5.482   1.287 -0.2827  0.1085 -0.4511
 1757SOL    HW114239  11.709   5.429   1.298 -0.3528  0.2383 -0.3243
 1757SOL    HW214240  11.859   5.418   1.284 -0.2088  0.0561  1.1846
 1758SOL     OW14241   9.113  11.887   8.616  0.0744 -0.2392  0.3539
 1758SOL    HW114242   9.089  11.979   8.604  1.1156  0.5121  3.3124
 1758SOL    HW214243   9.034  11.839   8.590 -0.6846  1.4838 -0.7273
 1759SOL     OW14244  12.266   9.220   5.968 -0.4311  0.4729 -0.6401
 1759SOL    HW114245  12.312   9.303   5.979  0.4721 -0.0034 -0.7599
 1759SOL    HW214246  12.323   9.167   5.913  0.3377 -1.2293  1.6068
 1760SOL     OW14247   9.704   2.424   2.430 -0.0918 -0.0645 -0.1019
 1760SOL    HW114248   9.720   2.375   2.511  0.4530  0.2341 -0.0260
 1760SOL    HW214249   9.777   2.486   2.424 -0.9474  0.9914 -0.0032
 1761SOL     OW14250   1.253  11.203   7.745  0.2633  0.0286  0.2367
 1761SOL    HW114251   1.260  11.108   7.744  0.9319  0.0708 -0.6166
 1761SOL    HW214252   1.288  11.229   7.831  0.8098 -0.4528  0.1672
 1762SOL     OW14253  10.668   7.076   6.000  0.1960 -0.2079 -0.2022
 1762SOL    HW114254  10.673   7.060   5.906  1.3192  0.3101 -0.2439
 1762SOL    HW214255  10.690   6.992   6.040 -0.6636 -0.5302 -0.3921
 1763SOL     OW14256   0.433  10.128   9.210 -0.1079 -0.3475 -0.1586
 1763SOL    HW114257   0.434  10.122   9.115  0.5214 -3.2156 -0.0495
 1763SOL    HW214258   0.347  10.094   9.236 -0.6880  1.3640  0.3141
 1764SOL     OW14259   9.970  11.700   4.944 -0.2351 -0.0196  0.0053
 1764SOL    HW114260   9.978  11.738   4.856  0.4140 -0.7496 -0.2607
 1764SOL    HW214261   9.884  11.728   4.974  0.3409  1.9857 -0.0140
 1765SOL     OW14262   7.967  12.418   8.781  0.0944  0.4146 -0.3942
 1765SOL    HW114263   7.978  12.497   8.834  0.8512  0.2028 -0.2294
 1765SOL    HW214264   8.015  12.350   8.828  0.0048  0.0130 -0.8758
 1766SOL     OW14265   7.093  11.460   2.731  1.0213  0.0144  0.6515
 1766SOL    HW114266   7.047  11.438   2.812  2.0561 -1.5243  0.8578
 1766SOL    HW214267   7.125  11.376   2.697  0.5369  0.5959 -1.4174
 1767SOL     OW14268   7.788   1.801   2.808 -0.3277  0.3032 -0.5085
 1767SOL    HW114269   7.805   1.850   2.727 -0.5774  0.7758 -0.2792
 1767SOL    HW214270   7.801   1.709   2.783  1.0025  0.5298 -0.7257
 1768SOL     OW14271   6.960   1.383   7.595  0.0680  0.0868 -1.0070
 1768SOL    HW114272   6.892   1.425   7.648 -0.6186 -1.4351 -0.6254
 1768SOL    HW214273   7.026   1.451   7.581 -1.9902  1.9588 -2.2791
 1769SOL     OW14274   9.966   5.633   0.837  0.1266  0.6918 -0.1350
 1769SOL    HW114275  10.008   5.707   0.879  0.3526  0.9853 -0.8606
 1769SOL    HW214276   9.874   5.640   0.862  0.3637  0.4888  0.8224
 1770SOL     OW14277  12.175   9.954  10.222 -0.7366 -0.0966  0.6126
 1770SOL    HW114278  12.111  10.022  10.243 -2.3490 -1.0029 -1.1416
 1770SOL    HW214279  12.232   9.994  10.156 -1.1704 -0.1627  0.1955
 1771SOL     OW14280   1.921   2.342  12.118  0.1793  0.1518  0.5930
 1771SOL    HW114281   1.843   2.319  12.167 -0.5337 -0.3973 -0.7442
 1771SOL    HW214282   1.992   2.292  12.160 -0.4835 -0.6409  0.7874
 1772SOL     OW14283   0.443   2.494   8.644 -0.4573  0.0075 -0.1983
 1772SOL    HW114284   0.508   2.504   8.713  0.9189  0.5190 -1.5051
 1772SOL    HW214285   0.486   2.440   8.578 -1.9451 -0.9565 -0.4374
 1773SOL     OW14286   3.664   9.894   5.195 -0.8396  0.0114 -0.7321
 1773SOL    HW114287   3.644   9.933   5.110  0.1546  0.0632 -0.9556
 1773SOL    HW214288   3.757   9.873   5.191 -0.8818 -0.4164  0.1758
 1774SOL     OW14289  11.906  11.488  11.516 -0.0593 -0.5667  0.1603
 1774SOL    HW114290  11.817  11.482  11.552 -0.5133 -1.6209 -1.0387
 1774SOL    HW214291  11.897  11.454  11.426  1.0849  1.4900 -0.8058
 1775SOL     OW14292   0.853   4.252   0.304  0.3507 -0.6415  0.4216
 1775SOL    HW114293   0.844   4.238   0.398  0.7842  2.7590  1.1201
 1775SOL    HW214294   0.948   4.253   0.288  0.3757  1.0031  0.4561
 1776SOL     OW14295   5.831   1.208   1.730 -0.0045  0.8391  0.2041
 1776SOL    HW114296   5.914   1.207   1.683 -0.0267  2.2946  0.0909
 1776SOL    HW214297   5.855   1.204   1.822  0.3326  3.0483  0.2642
 1777SOL     OW14298   2.665   3.361   9.181  0.0332 -0.0480  0.0596
 1777SOL    HW114299   2.685   3.274   9.216 -0.5343 -0.0317  0.4402
 1777SOL    HW214300   2.638   3.412   9.257 -1.6368 -0.1277 -0.4378
 1778SOL     OW14301  10.153   6.277  11.666  0.0585  0.0358 -0.5905
 1778SOL    HW114302  10.176   6.191  11.700 -0.8400  0.5452  1.4886
 1778SOL    HW214303  10.060   6.270  11.642  0.1378  0.2713 -0.9859
 1779SOL     OW14304  12.427   7.563   3.170 -0.2205  0.1300 -0.7896
 1779SOL    HW114305  12.449   7.475   3.138 -0.5899  0.3682 -1.7316
 1779SOL    HW214306  12.469   7.622   3.107  0.8195  0.6610  0.3633
 1780SOL     OW14307   2.731   1.373   5.333 -0.1117 -0.5802  0.2109
 1780SOL    HW114308   2.695   1.287   5.352 -0.3894 -0.2459  1.2819
 1780SOL    HW214309   2.823   1.367   5.358 -0.1941 -0.4999  0.5477
 1781SOL     OW14310  11.914   0.492   3.875 -0.1344 -0.9059  0.5833
 1781SOL    HW114311  11.973   0.506   3.949  0.2851  0.2419  0.0506
 1781SOL    HW214312  11.938   0.559   3.811 -1.5087 -0.8974  0.0270
 1782SOL     OW14313  10.676   0.234   5.057 -0.5070  0.2737  0.1166
 1782SOL    HW114314  10.665   0.255   5.150  0.3572  1.2777  0.0201
 1782SOL    HW214315  10.654   0.141   5.050 -1.6880  0.4452  1.1150
 1783SOL     OW14316  10.564   1.328   9.221 -0.1764 -0.3214 -0.3374
 1783SOL    HW114317  10.540   1.332   9.128 -0.0752  0.2238 -0.3434
 1783SOL    HW214318  10.504   1.263   9.258 -1.4997  0.7886 -0.4154
 1784SOL     OW14319   4.779   1.966   3.803 -0.4903 -0.2299 -0.5954
 1784SOL    HW114320   4.775   2.048   3.752  0.1376 -0.2697 -0.7121
 1784SOL    HW214321   4.763   1.993   3.893 -0.4525  0.0015 -0.6565
 1785SOL     OW14322   0.060   4.802   2.324 -0.5387  0.1080 -0.1436
 1785SOL    HW114323   0.110   4.775   2.247 -1.2732  2.1199 -1.4116
 1785SOL    HW214324   0.125   4.843   2.382  0.0178 -1.4204  0.3718
 1786SOL     OW14325  10.885   5.820   7.643  0.1169  0.3142 -0.0865
 1786SOL    HW114326  10.969   5.778   7.623 -0.0368 -0.1384  0.2066
 1786SOL    HW214327  10.846   5.764   7.710 -1.0872 -0.3187 -1.2776
 1787SOL     OW14328  10.223   5.778   0.316  0.4043 -0.0991  0.3015
 1787SOL    HW114329  10.143   5.830   0.310 -0.0459 -0.6074  1.5735
 1787SOL    HW214330  10.266   5.810   0.396  1.3202 -0.0506 -0.1983
 1788SOL     OW14331   1.762  12.311   0.635 -0.2295  0.2699  0.3457
 1788SOL    HW114332   1.777  12.284   0.544  0.0935  0.0546  0.4621
 1788SOL    HW214333   1.683  12.263   0.661  2.2703 -3.5798  1.7304
 1789SOL     OW14334   8.103   0.376   4.791 -0.3505 -0.2006  0.5600
 1789SOL    HW114335   8.023   0.398   4.839 -0.7592  0.4615 -0.3967
 1789SOL    HW214336   8.072   0.343   4.706  0.3955  0.9224 -0.1774
 1790SOL     OW14337   6.341   0.274   0.256 -0.2938 -0.4573  0.4222
 1790SOL    HW114338   6.356   0.195   0.203  0.0710  0.2920 -0.6354
 1790SOL    HW214339   6.314   0.340   0.192 -2.7404 -0.2632  1.5509
 1791SOL     OW14340   2.066   9.304   1.798  0.1522  0.4309 -0.2175
 1791SOL    HW114341   1.976   9.272   1.808  0.9356 -2.7391 -1.7903
 1791SOL    HW214342   2.096   9.318   1.888 -1.4022 -0.0747  0.4236
 1792SOL     OW14343  11.717   9.924   2.720 -0.0658  0.2739 -0.0444
 1792SOL    HW114344  11.704   9.916   2.814  1.0260 -0.3942  0.0718
 1792SOL    HW214345  11.647   9.873   2.681 -0.1456  0.0225  0.4211
 1793SOL     OW14346   6.441   9.771   5.545  0.0089  0.1504 -0.0134
 1793SOL    HW114347   6.348   9.788   5.529 -0.2595 -1.0795  0.0909
 1793SOL    HW214348   6.487   9.832   5.488 -0.8814 -0.3788 -1.3563
 1794SOL     OW14349  10.853   1.708   6.560  0.1471 -0.5389  0.0327
 1794SOL    HW114350  10.884   1.663   6.638  0.2057  0.9117  0.8898
 1794SOL    HW214351  10.904   1.789   6.556 -0.0267 -0.4670 -1.3776
 1795SOL     OW14352   9.523   4.222   5.570  0.4298  0.5768 -0.3606
 1795SOL    HW114353   9.530   4.176   5.654 -0.8831  1.0129  0.0143
 1795SOL    HW214354   9.429   4.226   5.553  0.6852 -1.5478 -3.0308
 1796SOL     OW14355   6.348   5.022   1.682 -0.2903 -0.3448 -1.0340
 1796SOL    HW114356   6.424   5.067   1.648  0.6432 -1.3534 -0.3572
 1796SOL    HW214357   6.338   4.944   1.627 -0.5617 -0.4402 -0.8582
 1797SOL     OW14358   5.833  11.129  12.242  0.4050  0.2294  0.4296
 1797SOL    HW114359   5.831  11.041  12.204  0.1436  0.3890  0.0696
 1797SOL    HW214360   5.741  11.155  12.246  0.6008  1.5982 -2.0725
 1798SOL     OW14361   4.551  11.599  12.289 -0.8360  0.5472  0.3185
 1798SOL    HW114362   4.546  11.565  12.200 -1.3209 -2.7056  1.4792
 1798SOL    HW214363   4.643  11.593  12.313 -1.1255 -1.5804  1.0458
 1799SOL     OW14364  12.476   0.658   2.995  0.4992 -0.1013 -0.2739
 1799SOL    HW114365  12.407   0.600   2.963  0.3738 -0.2798  0.2966
 1799SOL    HW214366  12.557   0.607   2.985  0.1771 -1.2036  2.0666
 1800SOL     OW14367  11.832  11.289   7.554 -0.3525 -0.1011 -0.5196
 1800SOL    HW114368  11.740  11.310   7.566  0.1399  1.1769  1.5953
 1800SOL    HW214369  11.871  11.371   7.523  0.4221  0.1127  0.9175
 1801SOL     OW14370   7.279   7.034   7.309 -0.5463  0.0455  0.0632
 1801SOL    HW114371   7.310   7.076   7.389 -0.0054 -0.9040  0.3744
 1801SOL    HW214372   7.287   6.940   7.327  0.0914 -0.1848 -1.2795
 1802SOL     OW14373   5.991  10.432   9.005 -0.5804 -0.0489  0.0234
 1802SOL    HW114374   5.970  10.489   9.079  0.3754  0.7385 -0.2885
 1802SOL    HW214375   5.924  10.364   9.007 -1.2265  0.5942  0.9367
 1803SOL     OW14376   9.117   9.027   5.531  0.0607  0.5748  0.3105
 1803SOL    HW114377   9.088   8.968   5.601  0.1555 -1.5254 -1.3244
 1803SOL    HW214378   9.095   8.981   5.450  2.9943  1.3579 -1.0497
 1804SOL     OW14379   0.574  10.389   5.925 -0.1530 -0.4655  0.2532
 1804SOL    HW114380   0.510  10.449   5.887 -0.6600 -1.4441 -0.4955
 1804SOL    HW214381   0.629  10.362   5.851  1.8555  1.1554  1.0420
 1805SOL     OW14382   3.504   7.032   5.833  0.3574 -0.4515 -0.7485
 1805SOL    HW114383   3.533   6.941   5.819  1.1576 -0.1282 -1.3008
 1805SOL    HW214384   3.457   7.029   5.916  1.1633 -1.2111 -0.2890
 1806SOL     OW14385  12.436   1.280   4.101 -0.0978  0.9746  0.1388
 1806SOL    HW114386  12.399   1.258   4.016 -0.1210  3.0946 -0.4509
 1806SOL    HW214387  12.524   1.312   4.081  0.6397 -0.3076  1.1435
 1807SOL     OW14388   7.825   3.643   6.307 -0.2117  0.1975  0.4875
 1807SOL    HW114389   7.740   3.600   6.293 -0.7900  0.5427  2.5700
 1807SOL    HW214390   7.886   3.592   6.254 -1.4703 -1.0002  0.1158
 1808SOL     OW14391   1.407   9.648  11.075 -0.3680 -0.3445 -0.4533
 1808SOL    HW114392   1.488   9.610  11.041  0.0501 -0.3274  0.4953
 1808SOL    HW214393   1.346   9.574  11.080 -0.5412 -0.2897 -1.5089
 1809SOL     OW14394   3.435   0.262   1.004  0.1666 -0.4552 -0.1400
 1809SOL    HW114395   3.406   0.298   0.921  0.1127  1.5290  0.6637
 1809SOL    HW214396   3.397   0.320   1.070  1.8957 -0.6987  1.1628
 1810SOL     OW14397   8.061   8.810  11.672 -0.5737  0.0419  0.4290
 1810SOL    HW114398   8.054   8.905  11.666  4.1395  0.6660  0.6364
 1810SOL    HW214399   8.088   8.782  11.585  3.4965 -0.1186  1.5290
 1811SOL     OW14400   4.464   7.132  10.767 -0.1232 -0.5570  0.3378
 1811SOL    HW114401   4.398   7.102  10.704 -2.1232  1.1619  1.4701
 1811SOL    HW214402   4.524   7.185  10.715 -0.5357 -0.8828 -0.4885
 1812SOL     OW14403  11.798   4.036   7.637  0.4995  0.3970  0.2528
 1812SOL    HW114404  11.738   4.085   7.694 -1.7887  0.2948 -1.8590
 1812SOL    HW214405  11.780   3.944   7.658  0.8110  0.3858  0.4662
 1813SOL     OW14406   9.059   5.498   7.424 -0.3730  0.6770  0.0730
 1813SOL    HW114407   9.042   5.487   7.518 -0.1779  0.2034  0.0558
 1813SOL    HW214408   9.017   5.422   7.383  0.9492 -0.0112 -0.0580
 1814SOL     OW14409   3.413   7.578   7.739 -0.0113  0.0322  0.1231
 1814SOL    HW114410   3.387   7.549   7.651  0.1982  1.2658 -0.3697
 1814SOL    HW214411   3.489   7.633   7.724  0.8558 -0.8242  1.2359
 1815SOL     OW14412  10.015   8.906  10.592  0.6488 -0.2712  0.5571
 1815SOL    HW114413  10.078   8.834  10.598  2.1359  0.6102 -2.3255
 1815SOL    HW214414  10.004   8.935  10.682  1.0585 -3.1636  1.6635
 1816SOL     OW14415   8.872   5.924   4.623  0.1749  0.0945 -0.7152
 1816SOL    HW114416   8.847   5.832   4.632  1.4496 -0.2198 -0.1620
 1816SOL    HW214417   8.795   5.973   4.652 -0.2232 -0.8099 -0.2081
 1817SOL     OW14418   0.791   9.373  10.935  0.0735  0.5168  0.5421
 1817SOL    HW114419   0.791   9.395  11.028  0.4551  0.3929  0.5719
 1817SOL    HW214420   0.776   9.456  10.890 -4.1442  0.1468  0.8048
 1818SOL     OW14421  11.759   8.786   4.885  0.5856  0.0343 -0.0464
 1818SOL    HW114422  11.675   8.739   4.879  0.0901  0.9555 -0.5372
 1818SOL    HW214423  11.824   8.717   4.896 -0.2130 -0.7155  0.1347
 1819SOL     OW14424  11.984   0.365   2.175  0.7508  0.5620 -0.1726
 1819SOL    HW114425  11.922   0.337   2.242 -0.2402 -0.1824 -1.3882
 1819SOL    HW214426  12.004   0.287   2.125  0.4219  1.3611 -1.6074
 1820SOL     OW14427   9.194  10.635   6.316 -0.2061 -0.1682 -0.2815
 1820SOL    HW114428   9.213  10.632   6.222 -1.1705  0.6569 -0.5170
 1820SOL    HW214429   9.101  10.616   6.323 -0.4077  0.9754  0.3984
 1821SOL     OW14430  10.840   0.210   2.970  0.3842 -1.3019 -0.3451
 1821SOL    HW114431  10.808   0.157   2.897 -0.1196 -1.5118  0.0197
 1821SOL    HW214432  10.763   0.255   3.003  0.6303 -1.1080 -0.0236
 1822SOL     OW14433   7.519   0.657   8.591  0.1153 -0.0848  0.2101
 1822SOL    HW114434   7.547   0.728   8.534 -2.1601  2.2037  1.7596
 1822SOL    HW214435   7.465   0.601   8.534  1.1255 -0.0922 -0.7870
 1823SOL     OW14436   6.376   9.765   8.553 -0.1939  0.2026  0.3896
 1823SOL    HW114437   6.319   9.713   8.496 -0.7347  3.4350 -2.3254
 1823SOL    HW214438   6.315   9.820   8.603  0.4104  1.4104 -0.1725
 1824SOL     OW14439  12.053  11.518  10.283  0.2220  0.0720  0.4475
 1824SOL    HW114440  11.977  11.477  10.325  0.7651  0.6454  2.0500
 1824SOL    HW214441  12.124  11.509  10.346  1.3840 -0.0386 -0.8350
 1825SOL     OW14442  10.615   3.302  10.582 -0.3261  0.3754 -0.2007
 1825SOL    HW114443  10.603   3.250  10.503 -2.6057  0.2501  0.1314
 1825SOL    HW214444  10.541   3.363  10.581  1.4473  2.6250  0.1856
 1826SOL     OW14445   1.954   4.622   4.750 -0.0011  0.5827 -0.2619
 1826SOL    HW114446   2.005   4.545   4.726 -0.3830 -0.0939  0.9818
 1826SOL    HW214447   1.867   4.588   4.772 -0.2250  1.3834  0.1467
 1827SOL     OW14448   5.423   5.866  12.306 -0.4010 -0.2778 -0.3381
 1827SOL    HW114449   5.506   5.879  12.260  0.0958 -2.2598 -0.0523
 1827SOL    HW214450   5.362   5.926  12.262  0.4184 -1.0103 -2.6196
 1828SOL     OW14451   6.587   0.270   2.314 -0.2491 -0.2008 -0.0746
 1828SOL    HW114452   6.524   0.213   2.270 -0.4507 -0.5912  0.7059
 1828SOL    HW214453   6.673   0.234   2.291 -0.3753 -2.8739  2.9526
 1829SOL     OW14454   4.222   4.421   1.396 -0.0305  0.3739 -0.2881
 1829SOL    HW114455   4.178   4.463   1.469 -1.7834  0.1873 -1.1920
 1829SOL    HW214456   4.303   4.472   1.384  0.7264 -0.0901  2.2411
 1830SOL     OW14457   5.331   0.596   2.299  0.2106 -0.1998 -0.2455
 1830SOL    HW114458   5.297   0.567   2.214  1.9679 -1.4516 -0.5534
 1830SOL    HW214459   5.289   0.538   2.362  1.3931 -1.4512 -0.5825
 1831SOL     OW14460  11.240   2.503   0.866 -0.1861  0.1244 -0.2012
 1831SOL    HW114461  11.323   2.509   0.913 -0.4354 -1.3870  0.4857
 1831SOL    HW214462  11.205   2.592   0.868 -0.0929  0.1814  2.3712
 1832SOL     OW14463   8.964   6.704   7.542 -0.1500 -0.1516 -0.1727
 1832SOL    HW114464   8.995   6.737   7.626 -0.6624  0.3561 -0.1713
 1832SOL    HW214465   9.042   6.697   7.488  0.0841  0.2396  0.1121
 1833SOL     OW14466  11.433   9.784   3.227  0.0667 -0.5465  0.2226
 1833SOL    HW114467  11.415   9.869   3.186  0.4332 -1.0126 -0.9671
 1833SOL    HW214468  11.369   9.725   3.188 -0.3815 -0.7652  1.2649
 1834SOL     OW14469   2.981   6.538   4.841 -0.2229 -0.1003  0.7896
 1834SOL    HW114470   2.997   6.565   4.932 -0.0803 -0.2315  0.8042
 1834SOL    HW214471   3.065   6.503   4.811 -0.3016 -0.1691  0.6456
 1835SOL     OW14472   2.049   3.562   3.364  0.1214 -0.3319  0.1122
 1835SOL    HW114473   2.078   3.640   3.411  0.8527 -0.5283  0.0021
 1835SOL    HW214474   2.039   3.591   3.273 -0.4194 -0.1707  0.2184
 1836SOL     OW14475  11.323   6.642   3.992  0.3348 -0.0567 -0.4450
 1836SOL    HW114476  11.263   6.570   3.975 -0.8086  0.3028  1.7215
 1836SOL    HW214477  11.268   6.720   3.992  0.9667  0.4102  0.5424
 1837SOL     OW14478   1.189   9.190  11.810 -0.1454  0.2794 -0.3762
 1837SOL    HW114479   1.268   9.139  11.825 -0.0970  0.8668  1.6901
 1837SOL    HW214480   1.154   9.157  11.727  1.2624 -1.2558 -0.4016
 1838SOL     OW14481   1.107  11.468   4.995  0.5730 -0.0987 -0.1354
 1838SOL    HW114482   1.102  11.557   5.030 -0.2428 -0.0008 -0.4845
 1838SOL    HW214483   1.132  11.479   4.903 -0.9945 -0.1166 -0.5974
 1839SOL     OW14484   1.767   2.060   7.008 -0.6446 -0.6036 -0.1178
 1839SOL    HW114485   1.833   2.046   7.076  1.0137 -1.4840 -1.8397
 1839SOL    HW214486   1.707   1.986   7.018 -1.1850 -0.0304  1.1810
 1840SOL     OW14487   2.073  12.173   0.826 -0.1904 -0.8487 -0.4850
 1840SOL    HW114488   2.034  12.260   0.834 -0.2769 -0.9134 -0.2090
 1840SOL    HW214489   2.065  12.135   0.913  1.1721 -0.5747 -0.2267
 1841SOL     OW14490   9.048   5.321   2.988 -0.3668  0.4746  0.1257
 1841SOL    HW114491   8.975   5.283   2.939 -1.0774  0.7995  0.9078
 1841SOL    HW214492   9.121   5.261   2.972 -0.8742 -0.0080 -0.4416
 1842SOL     OW14493   4.544   9.238   7.672  0.2851  0.2763 -0.1802
 1842SOL    HW114494   4.631   9.224   7.634  1.0084  0.0899  1.4704
 1842SOL    HW214495   4.544   9.330   7.698  0.2634  0.0966  0.4648
 1843SOL     OW14496   4.533   9.087   5.059 -0.3363  0.1661 -0.1947
 1843SOL    HW114497   4.567   9.160   5.111 -2.1836  0.6701  0.3794
 1843SOL    HW214498   4.561   9.008   5.107 -0.7099  0.5824  0.7227
 1844SOL     OW14499  10.217   3.181   7.899  0.1790  0.0914  0.1062
 1844SOL    HW114500  10.203   3.240   7.824 -0.5552 -1.4284 -0.9908
 1844SOL    HW214501  10.135   3.184   7.947  0.4816  0.6817  0.6112
 1845SOL     OW14502   2.670   1.057  10.077 -0.1207  0.2825  0.4877
 1845SOL    HW114503   2.704   1.045   9.989 -2.2611  0.6079 -0.4398
 1845SOL    HW214504   2.682   0.972  10.120 -1.3919 -0.6987 -1.0041
 1846SOL     OW14505   0.786   5.041   2.227  0.6476 -0.0091 -0.5591
 1846SOL    HW114506   0.773   5.109   2.293 -2.3611 -0.3348 -0.6765
 1846SOL    HW214507   0.790   5.089   2.144 -0.4015  0.1196 -0.5459
 1847SOL     OW14508   0.043   7.641   7.377  1.0861 -0.5090  0.0835
 1847SOL    HW114509   0.134   7.656   7.353  0.4759  2.5751 -0.8357
 1847SOL    HW214510   0.047   7.604   7.465  3.2390 -0.0997  0.2099
 1848SOL     OW14511   2.229   3.833   0.230  0.0891  0.3848  0.6177
 1848SOL    HW114512   2.317   3.866   0.247  0.2352  0.2706  0.0788
 1848SOL    HW214513   2.228   3.813   0.137 -0.2660 -0.3461  0.7728
 1849SOL     OW14514   3.102   2.569   0.443 -0.3355  0.3377  0.4152
 1849SOL    HW114515   3.048   2.590   0.520 -0.6878 -1.0596  0.5691
 1849SOL    HW214516   3.158   2.646   0.432 -1.9406  1.5938  0.5982
 1850SOL     OW14517  10.288  11.726   8.358 -0.2652  0.3666 -0.4996
 1850SOL    HW114518  10.231  11.666   8.310  0.7994 -0.1836 -1.1216
 1850SOL    HW214519  10.352  11.756   8.293  1.1800 -0.3545  0.5213
 1851SOL     OW14520  11.654   9.565   0.599  0.8028 -0.2000 -0.5747
 1851SOL    HW114521  11.719   9.529   0.660 -0.4060 -1.7188 -0.1299
 1851SOL    HW214522  11.633   9.492   0.540  0.7697  0.7792 -1.8242
 1852SOL     OW14523   3.644   3.256   8.087  0.6323 -0.0255  0.5853
 1852SOL    HW114524   3.645   3.351   8.093 -0.6194 -0.0187  1.1920
 1852SOL    HW214525   3.590   3.238   8.010  1.1838 -0.2412  0.2493
 1853SOL     OW14526  10.255   6.332   2.290 -0.0753 -0.8123  0.2027
 1853SOL    HW114527  10.256   6.427   2.288  0.6635 -0.7599  1.5675
 1853SOL    HW214528  10.162   6.309   2.294 -0.2339 -0.0469  1.7434
 1854SOL     OW14529   3.609   1.921   1.576 -0.3829 -0.3416 -0.0550
 1854SOL    HW114530   3.580   1.997   1.627 -3.1073 -0.7315 -0.8638
 1854SOL    HW214531   3.577   1.937   1.487  0.8160 -1.4965 -0.7366
 1855SOL     OW14532   8.653   1.260   8.489 -0.8733 -0.0762 -0.5620
 1855SOL    HW114533   8.741   1.224   8.486 -0.9117 -0.1470 -0.8892
 1855SOL    HW214534   8.627   1.253   8.580  1.1343  3.9450  0.5818
 1856SOL     OW14535   4.908   8.763   6.946  0.1861 -0.4429 -0.4855
 1856SOL    HW114536   4.930   8.695   7.009  0.7655 -0.4956 -0.7409
 1856SOL    HW214537   4.977   8.828   6.956 -1.6435  1.3738  1.5351
 1857SOL     OW14538   7.555   1.944   8.222 -0.2871  0.3792  0.8999
 1857SOL    HW114539   7.597   1.859   8.205  1.2526  0.9867  1.4709
 1857SOL    HW214540   7.474   1.922   8.267  0.1462 -0.7962  1.1571
 1858SOL     OW14541   6.005   6.101   9.218  0.7034 -1.2331 -0.0084
 1858SOL    HW114542   5.982   6.121   9.127  1.3254 -1.4433 -0.2181
 1858SOL    HW214543   6.069   6.031   9.211  0.7081 -1.2920  0.6007
 1859SOL     OW14544   9.019   3.954   3.322 -0.2208  0.0896 -0.0562
 1859SOL    HW114545   8.935   3.958   3.275  0.4359 -0.9457 -1.3700
 1859SOL    HW214546   9.081   3.997   3.263 -0.0068  2.0584  1.4682
 1860SOL     OW14547   7.791   1.665  10.414 -0.0596 -0.2842 -0.0633
 1860SOL    HW114548   7.784   1.598  10.345 -0.1080 -0.9647  0.5861
 1860SOL    HW214549   7.782   1.616  10.495  0.4961  0.4470  0.4464
 1861SOL     OW14550   8.909   6.816   9.934  0.1055  0.4031  0.1337
 1861SOL    HW114551   8.997   6.830   9.899  0.6376 -1.0304  0.8502
 1861SOL    HW214552   8.914   6.844  10.025  0.1229 -0.6679  0.4733
 1862SOL     OW14553   0.967   5.925   1.566 -0.1051  0.8023  0.4705
 1862SOL    HW114554   1.021   6.004   1.578 -1.7651  2.4949 -2.1462
 1862SOL    HW214555   0.885   5.945   1.611 -0.1109  0.0756  0.7813
 1863SOL     OW14556   0.839  11.442  12.237 -0.3127 -0.4018 -0.6694
 1863SOL    HW114557   0.766  11.446  12.299  0.5254 -2.9170  0.6211
 1863SOL    HW214558   0.815  11.372  12.176  0.7993 -0.9399 -0.5107
 1864SOL     OW14559   0.044   0.458   4.851 -0.5027 -0.5012  0.0210
 1864SOL    HW114560   0.138   0.472   4.837 -0.5960 -0.6499 -0.7729
 1864SOL    HW214561   0.010   0.546   4.869 -0.3585 -0.3158 -0.5880
 1865SOL     OW14562   1.116   9.499   8.436  0.3903 -0.1753  1.0014
 1865SOL    HW114563   1.076   9.423   8.478  1.5667 -0.9559  0.7733
 1865SOL    HW214564   1.172   9.462   8.368  0.8357  0.9113  0.7526
 1866SOL     OW14565   6.196   0.715  11.254 -0.6856 -0.0259 -0.2294
 1866SOL    HW114566   6.198   0.629  11.213 -0.9677 -0.5965  0.9213
 1866SOL    HW214567   6.209   0.698  11.347  0.0010  1.2436 -0.0649
 1867SOL     OW14568   6.382   4.194   1.133  0.9132 -0.0520 -0.2586
 1867SOL    HW114569   6.402   4.279   1.094  0.9225 -0.2051 -0.5849
 1867SOL    HW214570   6.352   4.215   1.222  2.0471  0.2116  0.0781
 1868SOL     OW14571   5.135  11.366   0.011  0.1064  0.2749  0.1267
 1868SOL    HW114572   5.076  11.322  -0.050 -1.3576  2.1060  0.1588
 1868SOL    HW214573   5.077  11.412   0.072  1.5529 -0.1508  1.9127
 1869SOL     OW14574   1.094  10.544   5.477  0.2237  0.0112 -0.1291
 1869SOL    HW114575   1.178  10.500   5.465  0.7321 -0.0221  2.8373
 1869SOL    HW214576   1.032  10.494   5.424  1.7741 -0.8868 -1.1563
 1870SOL     OW14577   6.301   6.406   3.980  0.1367 -0.3669 -0.1035
 1870SOL    HW114578   6.322   6.434   3.891  1.6785 -0.4285  0.2077
 1870SOL    HW214579   6.329   6.479   4.035  1.4896 -1.2944  0.4942
 1871SOL     OW14580  11.984   3.058  11.723  0.1913 -0.5730 -0.2026
 1871SOL    HW114581  11.983   2.974  11.769  0.2357 -0.1865  0.5119
 1871SOL    HW214582  11.960   3.036  11.633 -0.7231 -1.2349  0.1813
 1872SOL     OW14583   0.262   4.464   0.201 -0.1503  0.2925 -0.3322
 1872SOL    HW114584   0.341   4.503   0.163 -0.1363  0.0432 -0.5589
 1872SOL    HW214585   0.191   4.518   0.166 -0.2093 -0.4265 -1.3851
 1873SOL     OW14586   2.363   7.778  11.749 -0.1518 -0.2527  0.2833
 1873SOL    HW114587   2.295   7.726  11.791 -0.2065  0.1403  0.6996
 1873SOL    HW214588   2.363   7.861  11.798  0.0001  0.0964 -0.3026
 1874SOL     OW14589   5.787   2.631  12.582 -0.9480  0.2637 -0.3337
 1874SOL    HW114590   5.805   2.566  12.514 -2.9223 -0.9121  0.1773
 1874SOL    HW214591   5.801   2.715  12.540 -1.1825 -0.4484 -1.9137
 1875SOL     OW14592   6.351  10.936  10.399  0.0785 -0.5646 -0.3555
 1875SOL    HW114593   6.317  11.025  10.393  0.1396 -0.4829  0.3787
 1875SOL    HW214594   6.388  10.931  10.487  2.0644 -0.6278 -1.1565
 1876SOL     OW14595   4.511   1.941   6.688  0.2336 -0.0335  0.2965
 1876SOL    HW114596   4.572   2.008   6.717 -0.5233  0.2962  1.1523
 1876SOL    HW214597   4.557   1.858   6.701  1.6463  0.3184 -1.8864
 1877SOL     OW14598   3.766   5.438   9.499  0.4565 -0.1802  0.0297
 1877SOL    HW114599   3.810   5.521   9.519 -0.5194  0.4178 -0.2081
 1877SOL    HW214600   3.740   5.447   9.407 -1.2842  0.0266  0.5171
 1878SOL     OW14601   2.648   5.794   6.009 -0.4870 -0.4846  1.0151
 1878SOL    HW114602   2.680   5.848   5.938  0.5297 -2.3602 -0.0260
 1878SOL    HW214603   2.673   5.841   6.089  0.9732  0.2345  0.1583
 1879SOL     OW14604   3.703  12.375   4.102 -1.1652 -0.7806 -0.1262
 1879SOL    HW114605   3.743  12.328   4.175 -0.6171  0.2948  0.2785
 1879SOL    HW214606   3.623  12.326   4.083 -2.6339  0.2578  2.8129
 1880SOL     OW14607  12.432   8.074   3.098  0.4105  0.0276  0.3754
 1880SOL    HW114608  12.383   8.015   3.156  1.1576  0.3856  1.3991
 1880SOL    HW214609  12.377   8.082   3.020 -0.0929 -1.3694  0.5520
 1881SOL     OW14610   9.299   2.328  10.569 -0.4574  0.3604  0.5365
 1881SOL    HW114611   9.327   2.296  10.484 -0.3858  0.3355  0.5685
 1881SOL    HW214612   9.288   2.422  10.557  2.2839  0.8640  1.1891
 1882SOL     OW14613   2.142  10.141   3.251 -0.4940  0.1735  0.4288
 1882SOL    HW114614   2.071  10.080   3.272 -1.4265  0.7843 -0.7778
 1882SOL    HW214615   2.222  10.090   3.261 -1.2864 -1.6788 -1.8331
 1883SOL     OW14616   3.786   5.816   6.146  0.1183 -0.0127  0.2556
 1883SOL    HW114617   3.876   5.826   6.178  0.8842 -1.7756 -1.2036
 1883SOL    HW214618   3.733   5.812   6.226  1.4694 -0.1290  1.1781
 1884SOL     OW14619   8.219   9.245   8.127 -0.2473 -0.5426 -0.3434
 1884SOL    HW114620   8.285   9.309   8.101 -0.1313 -1.0910 -1.4423
 1884SOL    HW214621   8.212   9.256   8.222 -0.0610  0.9267 -0.4702
 1885SOL     OW14622   0.141   9.855   3.122 -0.1929  0.6112 -0.4104
 1885SOL    HW114623   0.194   9.848   3.043  1.3580  0.0835  0.6192
 1885SOL    HW214624   0.102   9.768   3.133 -1.2260  0.9683 -1.1070
 1886SOL     OW14625   1.127  10.262   9.449  0.4062 -0.0015 -0.2360
 1886SOL    HW114626   1.176  10.209   9.513 -0.4623  0.6162  0.9911
 1886SOL    HW214627   1.091  10.198   9.387 -0.0118 -0.7955  0.7923
 1887SOL     OW14628   3.299   4.622   6.366  0.2128 -0.0896  0.0200
 1887SOL    HW114629   3.375   4.665   6.327 -1.1208  1.2346 -1.2958
 1887SOL    HW214630   3.263   4.686   6.427 -0.6204 -0.1415 -0.4003
 1888SOL     OW14631   8.561   1.521   2.884 -0.4402  0.8143  0.3725
 1888SOL    HW114632   8.518   1.550   2.804  0.2610 -0.7023 -0.6105
 1888SOL    HW214633   8.489   1.504   2.945 -1.0328  1.2533 -0.1964
 1889SOL     OW14634   5.268   8.550  11.141  0.6659  0.2126  0.1463
 1889SOL    HW114635   5.345   8.546  11.197  0.0109  1.4405  1.2094
 1889SOL    HW214636   5.259   8.643  11.119 -0.0674 -0.0224 -0.5930
 1890SOL     OW14637   1.916  10.670   9.855  0.1219 -0.2909  0.2202
 1890SOL    HW114638   2.001  10.687   9.895 -0.2256  1.6084  0.2122
 1890SOL    HW214639   1.925  10.701   9.765 -0.7932  0.5958  0.4263
 1891SOL     OW14640   3.460   7.739   9.706  0.1008  0.1079 -0.3891
 1891SOL    HW114641   3.530   7.717   9.768 -1.7808 -1.8236  1.2042
 1891SOL    HW214642   3.399   7.793   9.757 -0.1060  0.9134 -1.4564
 1892SOL     OW14643   5.993   3.643   5.600  0.1309  0.1088 -0.1634
 1892SOL    HW114644   5.904   3.668   5.576 -0.0768  0.8403  1.2340
 1892SOL    HW214645   6.039   3.632   5.517 -0.7491  1.6145 -0.8783
 1893SOL     OW14646   2.683   4.607  10.940 -0.2730  0.1337 -0.0265
 1893SOL    HW114647   2.703   4.688  10.894 -1.0826  1.2033  1.4343
 1893SOL    HW214648   2.763   4.587  10.989 -0.6546  1.0547  1.0081
 1894SOL     OW14649   8.195   7.717   2.888 -0.1352  0.3771 -0.4240
 1894SOL    HW114650   8.176   7.698   2.796  0.3277 -0.6828 -0.3266
 1894SOL    HW214651   8.183   7.633   2.932 -2.3172  1.2845  0.8497
 1895SOL     OW14652   9.586   9.430   1.253  0.6968 -0.2972 -0.7215
 1895SOL    HW114653   9.590   9.364   1.323  0.1096  0.0822 -0.3234
 1895SOL    HW214654   9.672   9.425   1.211  0.9013 -0.8395 -0.2609
 1896SOL     OW14655  10.254   5.895  10.004  0.3526 -0.2055  0.0795
 1896SOL    HW114656  10.322   5.870   9.941  0.0684 -1.6981  0.3224
 1896SOL    HW214657  10.301   5.944  10.071  0.9072  0.1709 -0.5707
 1897SOL     OW14658   3.496   8.102   5.904  0.3097 -0.6767  0.2684
 1897SOL    HW114659   3.575   8.068   5.946  0.3135 -1.7478 -0.5492
 1897SOL    HW214660   3.424   8.066   5.956  0.3405 -0.4627  0.4611
 1898SOL     OW14661   2.486   2.899   5.383 -0.0951 -0.2919 -0.1840
 1898SOL    HW114662   2.449   2.836   5.321 -0.7526 -0.4867  0.3926
 1898SOL    HW214663   2.567   2.857   5.413 -0.2356 -0.6064 -0.2308
 1899SOL     OW14664   9.299   9.725  12.517  0.1672  0.8089  0.3528
 1899SOL    HW114665   9.273   9.753  12.605  1.0426 -0.3972  1.0302
 1899SOL    HW214666   9.239   9.653  12.497  1.8630 -0.9765  1.2962
 1900SOL     OW14667   8.888   9.372   3.986  0.6364 -0.1513 -0.3736
 1900SOL    HW114668   8.910   9.291   3.941  1.1329  0.2851 -0.9402
 1900SOL    HW214669   8.955   9.435   3.957 -0.1557  0.6545 -0.5170
 1901SOL     OW14670   9.199   7.961   7.777  0.1653 -0.2075  0.0707
 1901SOL    HW114671   9.156   7.877   7.757  0.9983 -0.8208  0.7419
 1901SOL    HW214672   9.260   7.975   7.704 -0.5780  0.2533 -0.4707
 1902SOL     OW14673   8.346   8.693  11.258 -0.2381 -0.3598  1.1077
 1902SOL    HW114674   8.423   8.691  11.314  0.2080 -0.6936  0.5021
 1902SOL    HW214675   8.363   8.625  11.192 -0.9146 -0.2345  0.7966
 1903SOL     OW14676   0.533   4.538   4.461 -0.0660 -0.2462  0.5725
 1903SOL    HW114677   0.503   4.583   4.541  0.0591  0.2987  0.3167
 1903SOL    HW214678   0.583   4.463   4.494 -0.0529 -0.0521  1.0115
 1904SOL     OW14679   7.224   7.601   0.916 -0.2394  0.1085  0.1740
 1904SOL    HW114680   7.313   7.572   0.898 -0.0686  0.7335 -0.0016
 1904SOL    HW214681   7.231   7.649   0.999 -0.4352  0.0407  0.2301
 1905SOL     OW14682  10.825   7.836   9.097  0.0937 -0.1970 -0.3239
 1905SOL    HW114683  10.875   7.839   9.178  0.2988  0.3023 -0.4611
 1905SOL    HW214684  10.764   7.764   9.108 -0.6045  0.5186  0.6898
 1906SOL     OW14685   8.432   8.364   8.062  0.3469 -0.0744 -0.4173
 1906SOL    HW114686   8.432   8.428   7.991 -0.2751  1.5595  1.0001
 1906SOL    HW214687   8.525   8.349   8.080  0.5026  0.5262 -0.6936
 1907SOL     OW14688   2.808   5.629  11.706 -0.0713  0.4008  0.2029
 1907SOL    HW114689   2.820   5.724  11.708 -1.3273  0.5655  0.7338
 1907SOL    HW214690   2.887   5.594  11.747  0.2539  1.2377  0.3119
 1908SOL     OW14691   1.930   3.872   1.238 -0.0382 -0.1097 -0.5592
 1908SOL    HW114692   1.936   3.790   1.287  1.5839 -0.2727 -0.9857
 1908SOL    HW214693   1.884   3.848   1.158 -0.9568 -0.2517 -0.0069
 1909SOL     OW14694   7.855   5.722   0.832  0.4586 -0.7891 -0.3276
 1909SOL    HW114695   7.774   5.773   0.827  0.6931 -0.2113  1.2178
 1909SOL    HW214696   7.912   5.760   0.764  0.3994  0.6272  0.3847
 1910SOL     OW14697   3.148   3.158   3.981 -0.1525 -0.4822  0.1690
 1910SOL    HW114698   3.235   3.118   3.983  0.3491  0.5801 -0.1133
 1910SOL    HW214699   3.095   3.096   3.931  0.4475 -1.1226  0.3080
 1911SOL     OW14700   8.301   1.889   2.552  0.2521 -0.3126  0.1606
 1911SOL    HW114701   8.305   1.844   2.467  0.5986  0.0347 -0.0131
 1911SOL    HW214702   8.392   1.912   2.570  0.0008  0.9181 -0.0812
 1912SOL     OW14703  11.437   8.065   3.326  0.2339 -0.1341  0.1575
 1912SOL    HW114704  11.419   7.979   3.289 -0.7752  0.9971 -2.2332
 1912SOL    HW214705  11.531   8.065   3.343  0.1256 -1.9414  0.9889
 1913SOL     OW14706   7.307   0.497   7.289 -0.2265 -0.4565 -0.5759
 1913SOL    HW114707   7.374   0.557   7.256 -1.0188 -0.9282 -3.2471
 1913SOL    HW214708   7.353   0.415   7.303  0.1315 -0.2452 -0.5072
 1914SOL     OW14709   9.189   0.091   7.210 -0.2933  0.0115 -0.3851
 1914SOL    HW114710   9.113   0.088   7.152 -0.1629 -1.8138 -0.5183
 1914SOL    HW214711   9.197   0.183   7.235 -0.5342  0.8352 -3.0308
 1915SOL     OW14712   2.477  11.958   6.061 -0.7168 -0.5388 -0.4675
 1915SOL    HW114713   2.534  11.881   6.070 -0.9107 -0.5568  0.7100
 1915SOL    HW214714   2.536  12.028   6.032 -0.0082 -0.4834  1.0215
 1916SOL     OW14715  11.912   2.532  11.505  0.1390 -0.0844  0.0275
 1916SOL    HW114716  11.890   2.446  11.470  0.1572  0.1368 -0.5470
 1916SOL    HW214717  11.842   2.589  11.472  0.6037  0.2866 -0.3247
 1917SOL     OW14718   4.154  11.674   0.647  0.0242 -0.3714 -0.2357
 1917SOL    HW114719   4.148  11.626   0.565 -0.8293  2.7699 -2.1797
 1917SOL    HW214720   4.244  11.658   0.677  0.3212 -1.7050 -1.6889
 1918SOL     OW14721   0.501   4.966   3.753  0.3008  0.3326 -0.0492
 1918SOL    HW114722   0.523   4.929   3.839 -0.0797  0.9130  0.3038
 1918SOL    HW214723   0.585   4.991   3.716  0.4308  0.5222  0.3618
 1919SOL     OW14724   7.234  11.352   5.409  0.2380  0.2412 -0.4432
 1919SOL    HW114725   7.176  11.364   5.334 -0.0754 -0.4595 -0.3233
 1919SOL    HW214726   7.306  11.298   5.377 -1.0725 -2.0839  0.2815
 1920SOL     OW14727   2.284   1.824  12.528 -0.3500  0.6302  0.1800
 1920SOL    HW114728   2.290   1.866  12.442  2.7121  0.1889  0.0718
 1920SOL    HW214729   2.193   1.834  12.553 -0.9351  2.4099 -2.2927
 1921SOL     OW14730   2.236   7.073   1.430  0.4208  0.3460  0.1903
 1921SOL    HW114731   2.232   7.138   1.501 -0.7299 -0.7685  1.1916
 1921SOL    HW214732   2.306   7.014   1.456 -0.2597 -0.2880  0.6286
 1922SOL     OW14733   4.578  11.326   6.433 -0.0292  0.0004 -0.4323
 1922SOL    HW114734   4.572  11.261   6.363 -0.5917 -0.9925  0.5059
 1922SOL    HW214735   4.627  11.282   6.503  0.9951  1.1621 -0.3816
 1923SOL     OW14736  10.335   7.087   3.532 -0.5698  0.3029 -0.5039
 1923SOL    HW114737  10.342   7.078   3.437  0.9088  0.7260 -0.4567
 1923SOL    HW214738  10.411   7.040   3.567 -0.5768  0.9482  0.4272
 1924SOL     OW14739  11.440   0.680   0.376 -0.0217 -0.2532 -0.7460
 1924SOL    HW114740  11.391   0.661   0.295  0.4484  0.2049 -1.1455
 1924SOL    HW214741  11.373   0.705   0.439 -0.3906 -0.5496 -1.0164
 1925SOL     OW14742  10.668   3.939   1.111  0.0103  0.2591 -0.4845
 1925SOL    HW114743  10.695   3.979   1.028 -0.2080  0.6992 -0.3432
 1925SOL    HW214744  10.750   3.910   1.151  0.1494  0.3680 -0.6847
 1926SOL     OW14745   1.419   8.044   4.108  0.3015  0.5549 -0.1182
 1926SOL    HW114746   1.498   8.015   4.153 -0.2326  0.8917  1.0867
 1926SOL    HW214747   1.382   7.965   4.069  1.5457  0.4940 -1.2249
 1927SOL     OW14748   2.285   4.725   6.781 -0.5451  0.5731 -0.5115
 1927SOL    HW114749   2.347   4.775   6.835  0.5087  0.9111 -1.9408
 1927SOL    HW214750   2.258   4.652   6.836 -0.9297  1.8660  1.0980
 1928SOL     OW14751   8.258   1.786  10.516  0.4070 -0.0819  0.1989
 1928SOL    HW114752   8.234   1.743  10.598  0.3401 -1.7804 -0.6637
 1928SOL    HW214753   8.176   1.820  10.481  0.4480  0.7118  0.8533
 1929SOL     OW14754   0.596  10.842  10.371  0.2182 -0.0043  0.4290
 1929SOL    HW114755   0.514  10.890  10.361  0.2011 -0.0489  0.3576
 1929SOL    HW214756   0.570  10.760  10.413 -0.0060 -0.7308 -1.0671
 1930SOL     OW14757   5.297   4.061  11.438  0.1896 -0.2958 -0.6224
 1930SOL    HW114758   5.368   4.080  11.378  0.8943  0.7473  0.5003
 1930SOL    HW214759   5.227   4.026  11.382  1.3676 -0.8430 -1.8101
 1931SOL     OW14760   6.777  10.317  12.132 -0.6912 -0.1696 -0.9424
 1931SOL    HW114761   6.803  10.327  12.224 -0.7603 -1.1086 -0.8107
 1931SOL    HW214762   6.759  10.224  12.123 -3.0366  0.2665 -1.2894
 1932SOL     OW14763  11.058   2.419   1.825 -0.0261  0.6868  0.1723
 1932SOL    HW114764  11.070   2.513   1.816 -2.6176  0.9886 -1.0932
 1932SOL    HW214765  11.041   2.388   1.737 -1.3621 -0.5791  0.8350
 1933SOL     OW14766   6.495   5.340   0.820 -0.3186 -0.4023 -0.1574
 1933SOL    HW114767   6.587   5.363   0.808 -0.7206  0.9609 -0.8802
 1933SOL    HW214768   6.482   5.340   0.915  0.7521 -2.1249  0.0309
 1934SOL     OW14769   6.685   5.481  11.184 -0.4477  0.2016 -0.0915
 1934SOL    HW114770   6.749   5.437  11.128  1.4240 -0.1743  2.2049
 1934SOL    HW214771   6.655   5.556  11.132 -0.4611 -1.2826 -2.4029
 1935SOL     OW14772  11.243  10.293   1.868  0.4730 -0.2665 -0.4428
 1935SOL    HW114773  11.260  10.203   1.842 -0.6627 -1.1058  1.4711
 1935SOL    HW214774  11.148  10.297   1.881  0.2752  1.6753 -1.9791
 1936SOL     OW14775   0.256  12.224   3.907  0.0396 -0.1926  0.3197
 1936SOL    HW114776   0.303  12.292   3.955  1.0019 -1.0877  0.6750
 1936SOL    HW214777   0.254  12.150   3.967 -0.1349 -0.8079 -0.4376
 1937SOL     OW14778   5.882  10.926   4.315 -0.3973 -0.6784  0.5702
 1937SOL    HW114779   5.934  10.979   4.376 -0.5819  0.9120 -0.5805
 1937SOL    HW214780   5.860  10.847   4.364  1.6667 -0.6351  1.6543
 1938SOL     OW14781  12.417   2.749   4.928  0.7869 -0.0444 -0.5464
 1938SOL    HW114782  12.353   2.720   4.863 -0.4718  0.3022  0.5153
 1938SOL    HW214783  12.447   2.669   4.971  0.8607 -0.1764 -0.8393
 1939SOL     OW14784  11.646  12.014   2.510  0.0612 -0.6713 -0.0817
 1939SOL    HW114785  11.624  12.037   2.601 -0.3142 -0.7238 -0.1564
 1939SOL    HW214786  11.572  11.960   2.481 -0.8840  1.0675 -1.0957
 1940SOL     OW14787  11.834   9.750   5.411  0.6692 -0.0973 -0.4797
 1940SOL    HW114788  11.917   9.764   5.458 -0.2775  1.6249  0.8139
 1940SOL    HW214789  11.822   9.655   5.411  2.2472 -0.3335 -0.0265
 1941SOL     OW14790   9.027  12.374   5.241 -0.1403 -0.3049  1.1153
 1941SOL    HW114791   9.018  12.415   5.155  0.5967 -0.3611  1.0070
 1941SOL    HW214792   8.940  12.337   5.259  0.3383 -2.5848 -0.7817
 1942SOL     OW14793   2.349  10.711   4.243 -0.0791 -0.1067  0.2228
 1942SOL    HW114794   2.285  10.771   4.282 -0.7724 -0.7365  0.0776
 1942SOL    HW214795   2.429  10.725   4.294 -0.1442  1.1106  0.0380
 1943SOL     OW14796  10.612   0.683   0.476 -0.6454 -0.0735  0.7908
 1943SOL    HW114797  10.614   0.692   0.571 -0.1688  2.3539  0.6092
 1943SOL    HW214798  10.678   0.746   0.445 -1.8326  0.2563 -1.2043
 1944SOL     OW14799   5.000  12.183   1.119  0.4200  0.3116 -1.1746
 1944SOL    HW114800   4.963  12.259   1.165  1.3742  0.4613 -0.6328
 1944SOL    HW214801   4.998  12.113   1.184  0.6779  0.2066 -1.2796
 1945SOL     OW14802   1.110   2.409   4.005  0.2367  0.0331 -0.1854
 1945SOL    HW114803   1.193   2.363   4.015 -0.0678 -0.6456 -0.6435
 1945SOL    HW214804   1.078   2.381   3.919 -1.3592 -1.2356  0.7685
 1946SOL     OW14805   3.410   1.410   8.697 -0.4021  0.0235  0.2845
 1946SOL    HW114806   3.355   1.441   8.769 -0.7852 -0.5571  0.2478
 1946SOL    HW214807   3.349   1.388   8.627 -0.1346 -0.5996  0.2360
 1947SOL     OW14808   9.440   4.284   1.289 -0.2798 -0.0136  0.5859
 1947SOL    HW114809   9.350   4.295   1.321 -0.8889 -0.3226 -0.9124
 1947SOL    HW214810   9.437   4.318   1.199  1.2807  0.5909  0.7338
 1948SOL     OW14811   2.453   9.714   3.520  0.3154  0.2128  0.4250
 1948SOL    HW114812   2.504   9.787   3.555  0.1632 -0.1970  1.5610
 1948SOL    HW214813   2.485   9.638   3.568  1.5791 -0.7734 -1.8186
 1949SOL     OW14814   9.035   5.535   9.666  0.1032  0.2809 -0.3206
 1949SOL    HW114815   9.055   5.445   9.639  2.4875  0.8283 -0.6337
 1949SOL    HW214816   9.095   5.589   9.614 -1.4289  2.0905 -0.3046
 1950SOL     OW14817  12.048   4.094   5.194 -0.1776  0.1030  0.2100
 1950SOL    HW114818  12.014   4.020   5.143 -1.9385  0.8273  0.2621
 1950SOL    HW214819  12.118   4.130   5.140 -0.0630 -0.9033 -0.3421
 1951SOL     OW14820  12.343   9.809   6.307  0.1863 -0.3520  0.6474
 1951SOL    HW114821  12.319   9.802   6.215 -0.9781  0.2663  0.8854
 1951SOL    HW214822  12.260   9.811   6.354  0.7664 -1.5007  1.8008
 1952SOL     OW14823   4.831  11.855   7.111 -0.6635 -0.2832  0.6883
 1952SOL    HW114824   4.917  11.867   7.070  1.3444 -0.6284  4.3491
 1952SOL    HW214825   4.825  11.760   7.125 -1.4712 -0.2203  0.7834
 1953SOL     OW14826  11.705   0.773   7.210  0.3530  0.4183  0.3680
 1953SOL    HW114827  11.610   0.774   7.224  0.4411 -0.4063  1.1508
 1953SOL    HW214828  11.736   0.854   7.250 -0.0458  0.8285 -0.1366
 1954SOL     OW14829  10.516  12.366   8.697 -0.0073 -0.3650  0.0124
 1954SOL    HW114830  10.581  12.434   8.686 -0.0016 -0.4912 -0.8041
 1954SOL    HW214831  10.535  12.302   8.628 -0.8458 -0.5122 -0.1051
 1955SOL     OW14832   8.533   9.153   5.592  0.3078  0.4887 -0.4391
 1955SOL    HW114833   8.555   9.173   5.501 -0.8815 -0.1331 -0.8920
 1955SOL    HW214834   8.582   9.073   5.612 -0.8086 -0.4301 -1.1737
 1956SOL     OW14835   4.483   4.880   1.852  0.3202 -0.6760  0.2385
 1956SOL    HW114836   4.567   4.871   1.897  0.7815  1.3967 -0.1044
 1956SOL    HW214837   4.505   4.926   1.771 -1.0244 -1.0216 -0.3410
 1957SOL     OW14838   3.001   0.627   2.537  0.0638  0.0761 -0.4988
 1957SOL    HW114839   2.961   0.712   2.556 -0.7614 -0.1565 -1.1325
 1957SOL    HW214840   3.082   0.626   2.588  0.0440  1.2105 -0.4335
 1958SOL     OW14841   6.578   9.589   4.798  0.2646 -0.0253  0.6064
 1958SOL    HW114842   6.576   9.494   4.789 -0.4906 -0.0378  0.8048
 1958SOL    HW214843   6.656   9.617   4.751  0.2062 -0.6987  0.1068
 1959SOL     OW14844   1.848   8.027   5.362 -0.5555 -0.2103  0.4117
 1959SOL    HW114845   1.809   7.939   5.365  0.7829 -0.8108  0.7784
 1959SOL    HW214846   1.878   8.043   5.451  1.2597 -0.3428 -0.1494
 1960SOL     OW14847  12.390  10.580   3.921  0.3115  0.5342 -0.0447
 1960SOL    HW114848  12.395  10.565   3.827  1.7356  0.8999 -0.0470
 1960SOL    HW214849  12.420  10.498   3.960 -1.1925  0.0305  0.1461
 1961SOL     OW14850   8.837  10.957   3.101 -0.1161  0.4812  0.1241
 1961SOL    HW114851   8.910  10.895   3.092 -1.2741 -0.9160 -0.1547
 1961SOL    HW214852   8.824  10.965   3.195 -1.8790 -2.1814  0.2077
 1962SOL     OW14853   5.612  11.743  12.269  0.2742  0.1576  0.2112
 1962SOL    HW114854   5.685  11.772  12.324  1.3067  0.0820 -1.0805
 1962SOL    HW214855   5.647  11.671  12.218 -0.5097  0.5571 -0.9224
 1963SOL     OW14856   5.238   3.885   2.833 -0.1105  0.0043 -0.2788
 1963SOL    HW114857   5.280   3.959   2.877  0.9237 -0.4910 -0.3969
 1963SOL    HW214858   5.207   3.921   2.750 -0.5981  0.5580  0.1436
 1964SOL     OW14859   8.612  12.359  10.895 -0.3649 -0.1619 -0.7341
 1964SOL    HW114860   8.543  12.297  10.874 -0.8768  0.2487 -0.2790
 1964SOL    HW214861   8.652  12.324  10.975 -0.3982 -0.1105 -0.6955
 1965SOL     OW14862   7.850   7.088   5.784 -0.3962  0.2262  0.6332
 1965SOL    HW114863   7.906   7.141   5.727 -0.5966  1.1565  1.2811
 1965SOL    HW214864   7.857   6.999   5.749  2.0172  0.1778  1.0979
 1966SOL     OW14865   3.395  11.693   8.384 -0.0610 -0.0446  0.2773
 1966SOL    HW114866   3.401  11.785   8.409  0.8079  0.5167 -1.7842
 1966SOL    HW214867   3.477  11.654   8.416  0.7384  0.5127 -1.0162
 1967SOL     OW14868   9.751  11.145   0.888  0.0543  0.0425  0.0380
 1967SOL    HW114869   9.681  11.085   0.860  1.1341 -0.4961 -1.6397
 1967SOL    HW214870   9.784  11.106   0.969 -0.7817 -0.3476  0.2085
 1968SOL     OW14871  10.774   8.822   1.491 -0.1991  0.5551 -0.3024
 1968SOL    HW114872  10.854   8.833   1.439  0.4055 -0.6984  0.3062
 1968SOL    HW214873  10.756   8.728   1.487 -1.8997  0.8797 -0.7701
 1969SOL     OW14874   4.147   5.282  10.368 -0.1091 -0.6394  0.2250
 1969SOL    HW114875   4.073   5.231  10.402  0.6815 -1.6165  0.5600
 1969SOL    HW214876   4.136   5.279  10.273 -1.1030  0.1873  0.2983
 1970SOL     OW14877   0.529  12.011   0.033  0.1887 -0.3467 -0.5750
 1970SOL    HW114878   0.618  11.994   0.065 -0.5097 -3.1033  0.1988
 1970SOL    HW214879   0.473  11.996   0.109 -1.0039  0.4737 -1.2691
 1971SOL     OW14880   3.466   5.219   5.653  0.5132 -0.0620  0.0954
 1971SOL    HW114881   3.447   5.131   5.623  0.4310 -0.0805  0.1985
 1971SOL    HW214882   3.396   5.273   5.616  1.6292  0.2960 -1.5800
 1972SOL     OW14883   1.817   3.727   8.222  0.4044  0.8251  0.4944
 1972SOL    HW114884   1.851   3.756   8.306  0.8005  0.2695  0.5341
 1972SOL    HW214885   1.895   3.708   8.170  0.1669  1.2699 -0.0373
 1973SOL     OW14886  10.924   6.507   6.116  0.0511 -0.2768  0.6358
 1973SOL    HW114887  10.853   6.467   6.067 -0.2526  1.8424 -0.7799
 1973SOL    HW214888  10.981   6.434   6.140 -0.3614 -1.5748 -1.9644
 1974SOL     OW14889   6.297   1.450   4.872  0.8554 -1.0821  0.0150
 1974SOL    HW114890   6.282   1.485   4.784 -2.4261  0.3206  1.0114
 1974SOL    HW214891   6.229   1.384   4.883 -0.5804  0.6742  2.4294
 1975SOL     OW14892   2.829  12.021   4.633 -0.3011  0.0517 -0.8380
 1975SOL    HW114893   2.790  11.934   4.634 -0.4254  0.0796  1.2780
 1975SOL    HW214894   2.923  12.005   4.627 -0.1979 -0.3596  1.1198
 1976SOL     OW14895  12.465   0.605   2.357 -0.0599  0.5167  0.3449
 1976SOL    HW114896  12.491   0.522   2.317 -0.6077  0.7716 -0.5600
 1976SOL    HW214897  12.545   0.655   2.363  0.5756 -0.6066  2.2615
 1977SOL     OW14898  11.360   5.629   3.776 -0.1103  0.1694  0.2559
 1977SOL    HW114899  11.435   5.688   3.789 -0.1056  0.3893 -0.7360
 1977SOL    HW214900  11.330   5.647   3.687 -0.9078 -0.4254  0.3946
 1978SOL     OW14901   8.584   7.235   4.709 -0.2117  0.2537 -0.4097
 1978SOL    HW114902   8.613   7.145   4.697  0.1905  0.2284  0.6633
 1978SOL    HW214903   8.650   7.274   4.766 -1.3669  0.6920  0.6712
 1979SOL     OW14904   2.292   5.504   3.315 -0.1986 -0.4748  0.0431
 1979SOL    HW114905   2.352   5.520   3.242 -0.5349  1.3701  0.1187
 1979SOL    HW214906   2.349   5.476   3.387  0.3220 -0.7058 -0.4438
 1980SOL     OW14907   8.940   6.612   3.269  0.6684  0.6602  0.1121
 1980SOL    HW114908   8.949   6.629   3.363  1.4388 -0.4421  0.2595
 1980SOL    HW214909   8.876   6.542   3.263 -1.4023  2.4717 -0.3956
 1981SOL     OW14910   2.396   1.346   3.524  0.4462 -0.0511  0.5383
 1981SOL    HW114911   2.485   1.383   3.524  0.2211  0.5006  0.3663
 1981SOL    HW214912   2.369   1.350   3.432  0.8421 -1.7136  0.3176
 1982SOL     OW14913  11.648  11.196   0.436 -0.2100  0.4100  0.1829
 1982SOL    HW114914  11.564  11.239   0.423 -0.0364  1.0805  1.1688
 1982SOL    HW214915  11.683  11.182   0.348 -0.3017  2.2300 -0.1662
 1983SOL     OW14916   5.032   3.664   2.935 -0.2197  0.4096 -0.4941
 1983SOL    HW114917   5.095   3.733   2.915 -2.0725  2.0401 -1.0383
 1983SOL    HW214918   5.023   3.667   3.030  2.0760 -1.3576 -0.1361
 1984SOL     OW14919   4.571  12.537   2.633  0.3436  0.0595 -0.1281
 1984SOL    HW114920   4.547  12.469   2.696 -1.5218  0.0914 -0.7371
 1984SOL    HW214921   4.664  12.522   2.616  0.5355 -0.8610  1.5070
 1985SOL     OW14922   7.263   9.419   3.543 -0.1793  0.0648 -0.2721
 1985SOL    HW114923   7.251   9.334   3.585  0.6019  0.1362  0.1190
 1985SOL    HW214924   7.268   9.481   3.616 -0.5084  0.4137 -0.5457
 1986SOL     OW14925   5.166   2.611   3.284  0.3532  0.3022  0.4953
 1986SOL    HW114926   5.224   2.638   3.355  1.9875  1.0775 -1.0491
 1986SOL    HW214927   5.164   2.686   3.225  0.4509 -0.9202 -1.1240
 1987SOL     OW14928  11.533  10.106   3.564  0.1893  0.2776 -0.0330
 1987SOL    HW114929  11.529  10.011   3.552 -0.1154  0.4886 -1.9693
 1987SOL    HW214930  11.446  10.137   3.540  0.0045  0.9764  1.4855
 1988SOL     OW14931   3.382   9.342   5.891  0.1721  0.6012 -0.0572
 1988SOL    HW114932   3.358   9.303   5.975 -0.8183  0.1840 -0.5100
 1988SOL    HW214933   3.423   9.270   5.843  1.0951  0.9452  0.2059
 1989SOL     OW14934   7.464   9.568   1.768  0.5310 -0.1444 -0.2748
 1989SOL    HW114935   7.465   9.660   1.794  1.3954 -0.2434  0.0733
 1989SOL    HW214936   7.372   9.549   1.751  0.2046  0.4812  0.7396
 1990SOL     OW14937  10.397   0.860  10.634 -0.3140 -0.2770  0.3571
 1990SOL    HW114938  10.333   0.818  10.692 -2.1923 -1.2379 -2.2322
 1990SOL    HW214939  10.345   0.891  10.560  1.9786  0.8282 -0.8887
 1991SOL     OW14940   9.613   2.288  11.571  0.0466 -0.0783  0.0693
 1991SOL    HW114941   9.625   2.253  11.483 -0.6052  1.5731 -0.7211
 1991SOL    HW214942   9.621   2.212  11.629  0.0160 -1.2694 -1.4390
 1992SOL     OW14943   0.008   8.248   2.726 -0.1023  0.9252 -0.3459
 1992SOL    HW114944   0.005   8.321   2.787 -0.6603  0.8699 -0.3033
 1992SOL    HW214945  -0.080   8.244   2.689 -0.1484  0.1182 -0.1592
 1993SOL     OW14946   1.054  12.568  12.315  0.1893 -0.4575  0.4318
 1993SOL    HW114947   1.034  12.599  12.403 -0.7136 -0.9018  0.4030
 1993SOL    HW214948   1.124  12.504  12.327  1.4378  0.8897  0.5874
 1994SOL     OW14949  11.976   2.167   7.831  0.2107 -0.8288  0.0471
 1994SOL    HW114950  12.008   2.083   7.800  1.3837 -0.9099  1.3817
 1994SOL    HW214951  11.886   2.150   7.859  0.0130 -1.3290 -0.8575
 1995SOL     OW14952   0.342   8.878   0.591 -0.1756 -0.2960  0.2791
 1995SOL    HW114953   0.434   8.863   0.567 -0.6108 -0.0011 -1.7510
 1995SOL    HW214954   0.296   8.801   0.557 -0.7295 -0.2985  1.0127
 1996SOL     OW14955   5.586   4.933   7.650  0.2765 -0.9219  0.1855
 1996SOL    HW114956   5.569   5.017   7.692 -0.9724 -0.7649 -0.5765
 1996SOL    HW214957   5.677   4.939   7.620  1.0547 -0.8502  2.3375
 1997SOL     OW14958  10.750  12.237   7.913  0.8186  0.6288 -0.0730
 1997SOL    HW114959  10.810  12.227   7.987 -0.1840 -2.2906  0.5000
 1997SOL    HW214960  10.768  12.161   7.857 -0.8154  0.8849 -1.0189
 1998SOL     OW14961   6.624  10.261   8.038  0.3118 -0.2308  0.1871
 1998SOL    HW114962   6.611  10.321   7.965  1.1278 -1.4631 -1.0069
 1998SOL    HW214963   6.594  10.176   8.006  0.2325 -0.7135  1.4572
 1999SOL     OW14964   0.967   1.032   1.719 -0.4686  0.1866  0.4103
 1999SOL    HW114965   1.008   0.965   1.775 -1.1223 -0.3031  0.3095
 1999SOL    HW214966   0.883   0.995   1.694 -0.2055  0.4205 -0.8818
 2000SOL     OW14967   2.691   2.546   9.077  0.3037 -0.7596  0.0097
 2000SOL    HW114968   2.657   2.635   9.081  0.7600 -0.6057  0.5614
 2000SOL    HW214969   2.669   2.508   9.162 -1.1070 -1.6382 -0.7011
 2001SOL     OW14970   2.781  11.154   5.108 -0.0037  0.1303  0.2628
 2001SOL    HW114971   2.838  11.225   5.140  0.8579  0.2084 -1.3435
 2001SOL    HW214972   2.778  11.167   5.013  0.8291 -2.4418 -0.1996
 2002SOL     OW14973   9.566   5.091   4.521  0.3148 -0.3379 -0.0909
 2002SOL    HW114974   9.626   5.161   4.546 -1.0226  0.4054  1.1942
 2002SOL    HW214975   9.586   5.073   4.429  3.4152 -1.0970  0.6364
 2003SOL     OW14976   3.508   5.876   2.968 -0.0569  0.2359  0.0942
 2003SOL    HW114977   3.435   5.900   2.912 -0.7088 -1.1677  0.2957
 2003SOL    HW214978   3.479   5.897   3.057  0.2651  0.7716  0.0798
 2004SOL     OW14979  11.585   8.650   3.154 -0.2638 -0.2178  0.0178
 2004SOL    HW114980  11.531   8.655   3.233 -0.0299 -0.4470  0.1947
 2004SOL    HW214981  11.595   8.741   3.125  0.4973 -0.0326  0.8328
 2005SOL     OW14982   3.165  11.160  10.787  0.0943  0.1805 -0.5188
 2005SOL    HW114983   3.128  11.119  10.866  0.3439  0.5177 -0.2187
 2005SOL    HW214984   3.260  11.150  10.798  0.1383  0.4286 -0.6682
 2006SOL     OW14985  10.404   0.089   0.152  0.2048 -0.1311 -0.0600
 2006SOL    HW114986  10.488   0.133   0.139  0.0513  0.2095  0.0665
 2006SOL    HW214987  10.370   0.075   0.063  0.1706  0.1778 -0.0969
 2007SOL     OW14988  10.286   6.335  10.100  0.4612 -0.2341  0.1847
 2007SOL    HW114989  10.256   6.318  10.010  0.1935  1.8557 -0.1722
 2007SOL    HW214990  10.374   6.299  10.103  0.3673 -0.5904 -0.8254
 2008SOL     OW14991   6.954   2.189   1.635  0.1751  0.2990  0.3410
 2008SOL    HW114992   6.892   2.185   1.708 -0.8725  3.9949 -0.1227
 2008SOL    HW214993   7.040   2.200   1.677 -0.2876  1.3310  1.0723
 2009SOL     OW14994   5.623   4.521   6.398  0.2529  0.6152 -0.8682
 2009SOL    HW114995   5.691   4.454   6.391 -1.4187 -1.4660  1.2824
 2009SOL    HW214996   5.578   4.517   6.314  2.0687  1.3213 -1.9417
 2010SOL     OW14997   1.448  10.647   8.956 -0.0235  0.1395 -0.2639
 2010SOL    HW114998   1.444  10.743   8.960  0.6210  0.1199  1.2173
 2010SOL    HW214999   1.539  10.628   8.931  0.2404 -0.1081  0.8635
 2011SOL     OW15000   2.120   6.829   8.939  0.4241  0.0901  0.0452
 2011SOL    HW115001   2.192   6.863   8.885 -1.2689  3.0001 -0.6052
 2011SOL    HW215002   2.138   6.863   9.026 -0.0446  0.6540 -0.0753
 2012SOL     OW15003   3.346  11.083   1.080  0.3403  0.1841 -0.1033
 2012SOL    HW115004   3.440  11.066   1.081  0.2985 -0.7115 -2.6676
 2012SOL    HW215005   3.330  11.122   0.994 -1.5264  1.1472  0.6191
 2013SOL     OW15006   5.793   4.787   7.337 -0.1930  0.7592 -0.0862
 2013SOL    HW115007   5.873   4.822   7.298 -0.0585  1.1914  0.5606
 2013SOL    HW215008   5.784   4.834   7.420  0.4112 -1.2421  1.2161
 2014SOL     OW15009  11.054  12.303   1.357 -0.2160  0.0227 -0.4357
 2014SOL    HW115010  11.010  12.233   1.406 -0.5886 -0.7504 -1.8388
 2014SOL    HW215011  10.997  12.321   1.283  0.7323  0.6021 -1.0506
 2015SOL     OW15012  12.156   6.463   9.060  0.0533  0.1992  0.6107
 2015SOL    HW115013  12.094   6.392   9.078  1.8040 -1.4336  0.5089
 2015SOL    HW215014  12.105   6.543   9.072 -2.1614 -1.0597  0.1348
 2016SOL     OW15015   6.226   1.728   6.815  0.2717 -0.5270  0.0963
 2016SOL    HW115016   6.158   1.713   6.881  0.6999  2.1249  1.2917
 2016SOL    HW215017   6.299   1.767   6.865  0.9605  0.7284 -1.8020
 2017SOL     OW15018   2.540   7.741   9.708 -0.0518 -0.0754  0.0338
 2017SOL    HW115019   2.524   7.827   9.669  1.2064  0.2791  0.2445
 2017SOL    HW215020   2.454   7.709   9.732 -0.4867  1.4641  0.6509
 2018SOL     OW15021   0.334   1.313   3.267 -0.2762 -0.2370  0.1612
 2018SOL    HW115022   0.335   1.301   3.172  0.4462 -0.3369  0.1743
 2018SOL    HW215023   0.284   1.393   3.281  2.6056  1.8301 -0.5668
 2019SOL     OW15024   0.916   9.562   3.812 -0.0860  0.2763 -0.2797
 2019SOL    HW115025   0.961   9.489   3.856  0.5162  0.2137 -0.9621
 2019SOL    HW215026   0.823   9.546   3.827  0.1000  1.6466  3.1370
 2020SOL     OW15027   6.496   8.330   2.193  0.0639  0.0940 -0.6903
 2020SOL    HW115028   6.571   8.319   2.250 -0.4824 -2.2525 -0.3394
 2020SOL    HW215029   6.499   8.255   2.134 -1.4087  0.5316 -1.3714
 2021SOL     OW15030  10.094   3.873   1.295 -0.2993  0.1603  0.3342
 2021SOL    HW115031  10.121   3.874   1.387 -0.3336 -1.3627  0.3972
 2021SOL    HW215032  10.035   3.798   1.289 -0.1003  0.0863 -0.9754
 2022SOL     OW15033   9.025   7.114  10.407 -0.0631 -0.0077 -0.6136
 2022SOL    HW115034   9.094   7.112  10.341  0.5043  2.4873 -0.1960
 2022SOL    HW215035   9.071   7.113  10.491 -0.6517 -0.5666 -0.2864
 2023SOL     OW15036  10.028   1.859  11.757 -0.6708 -0.0465  0.1435
 2023SOL    HW115037   9.990   1.865  11.670 -0.3400  0.3601  0.0199
 2023SOL    HW215038  10.045   1.950  11.782 -3.0462  0.0561  1.6783
 2024SOL     OW15039   0.499   2.218   4.095 -0.1706 -0.1393 -0.0027
 2024SOL    HW115040   0.420   2.166   4.077 -1.2489  1.0741  0.9720
 2024SOL    HW215041   0.466   2.307   4.107  0.8883 -0.0542  3.4582
 2025SOL     OW15042  10.883   6.294   9.255 -0.3885 -0.2662 -0.2589
 2025SOL    HW115043  10.915   6.371   9.210 -0.5029  0.0507  0.1922
 2025SOL    HW215044  10.952   6.228   9.242 -0.8441 -0.4838 -1.6775
 2026SOL     OW15045   4.802   6.047  12.167  0.5696  0.6412 -0.2973
 2026SOL    HW115046   4.798   5.968  12.114  0.8343  0.6311 -0.3066
 2026SOL    HW215047   4.765   6.116  12.112  1.4242  0.7573 -0.7383
 2027SOL     OW15048  10.893   3.952   0.661  0.0040 -0.5065  0.1060
 2027SOL    HW115049  10.881   4.032   0.609  0.4444  1.8167  3.2434
 2027SOL    HW215050  10.817   3.951   0.720  1.1466 -1.0878  1.6192
 2028SOL     OW15051   1.929   3.049   1.150 -0.4638  0.3984 -0.0970
 2028SOL    HW115052   2.020   3.022   1.151 -0.0875  1.4713 -1.8330
 2028SOL    HW215053   1.880   2.971   1.175  0.9110 -0.1208  1.1173
 2029SOL     OW15054   8.609   3.453   9.681  0.4794  0.5687  0.0232
 2029SOL    HW115055   8.654   3.373   9.653  0.1703  0.0110  1.0953
 2029SOL    HW215056   8.525   3.424   9.715 -0.1385  1.4785 -0.6785
 2030SOL     OW15057  10.494   5.507  12.249  0.8415  0.4160  0.9336
 2030SOL    HW115058  10.502   5.475  12.339 -0.7206 -1.5707  0.4428
 2030SOL    HW215059  10.573   5.476  12.205  0.2495 -1.2271  0.9528
 2031SOL     OW15060   2.600   4.532   2.911 -0.4705  0.2330  0.2230
 2031SOL    HW115061   2.531   4.575   2.861 -1.1808 -0.5527  0.4956
 2031SOL    HW215062   2.582   4.555   3.002  2.7475  4.4924  0.1035
 2032SOL     OW15063  11.116   5.628   1.542 -0.1694 -0.3180  0.7089
 2032SOL    HW115064  11.043   5.690   1.539  0.5832  0.5841  0.6424
 2032SOL    HW215065  11.125   5.597   1.452 -0.8231 -0.8726  0.8232
 2033SOL     OW15066   5.185   8.500  10.046  0.2663 -0.5716  0.4656
 2033SOL    HW115067   5.261   8.442  10.048  0.3462 -0.4508  1.9163
 2033SOL    HW215068   5.216   8.582  10.085 -0.7457 -0.7055  1.5795
 2034SOL     OW15069   3.102   8.437  11.948 -0.0255  0.1933 -0.0602
 2034SOL    HW115070   3.187   8.480  11.946 -1.3065  2.9702 -0.3829
 2034SOL    HW215071   3.073   8.438  11.856 -1.3902  1.6392  0.3269
 2035SOL     OW15072  12.500  12.568   4.337 -0.1965 -0.1980  0.3135
 2035SOL    HW115073  12.579  12.619   4.317  1.4602 -2.7963 -0.1778
 2035SOL    HW215074  12.460  12.551   4.252 -0.2806 -0.4111  0.3948
 2036SOL     OW15075   2.979  11.227   7.227  1.0815  0.5478 -0.0141
 2036SOL    HW115076   3.010  11.178   7.303  0.5037 -1.3999 -0.9771
 2036SOL    HW215077   2.927  11.299   7.265 -0.2691 -1.1104  1.4695
 2037SOL     OW15078   1.714   6.773  11.639 -0.7335  0.2563  1.1467
 2037SOL    HW115079   1.640   6.771  11.578 -0.8055  2.5263  1.0571
 2037SOL    HW215080   1.755   6.687  11.631 -1.1483  0.2242 -1.6072
 2038SOL     OW15081   2.335   2.297  10.824  0.0521 -0.7539 -0.0086
 2038SOL    HW115082   2.381   2.275  10.743  0.4755 -1.3098  0.3769
 2038SOL    HW215083   2.244   2.273  10.807 -0.2348  0.8781 -0.9808
 2039SOL     OW15084   0.618   0.323   8.333 -0.2991 -0.1138 -0.2654
 2039SOL    HW115085   0.671   0.311   8.254 -1.5687  1.7548 -1.4895
 2039SOL    HW215086   0.654   0.401   8.375  0.0667 -0.8224  0.7921
 2040SOL     OW15087   0.748   6.616   4.499 -0.2095 -0.1097 -0.7165
 2040SOL    HW115088   0.733   6.636   4.406  1.6038  1.3204 -0.7698
 2040SOL    HW215089   0.725   6.697   4.544  2.7242  0.6883 -0.4051
 2041SOL     OW15090   8.917   6.571   1.483 -0.0456 -0.3278 -0.2067
 2041SOL    HW115091   8.831   6.537   1.507  0.3186 -1.0134  0.1488
 2041SOL    HW215092   8.969   6.563   1.563  1.3701 -3.2132 -1.3101
 2042SOL     OW15093   5.099   7.936   0.206  0.0570 -0.6165  0.2248
 2042SOL    HW115094   5.027   7.878   0.180 -0.2970  0.8542 -2.4146
 2042SOL    HW215095   5.057   8.002   0.261 -0.4654 -0.3426 -0.4729
 2043SOL     OW15096   0.615   2.671   0.890  0.1247  0.2712  0.1576
 2043SOL    HW115097   0.628   2.604   0.824  2.7691 -0.2605  1.1151
 2043SOL    HW215098   0.559   2.736   0.847  2.1469  0.2254 -2.8479
 2044SOL     OW15099   5.986   7.901  10.237  0.1447  0.1922  0.2503
 2044SOL    HW115100   5.908   7.945  10.202  0.6821  1.2825  0.3717
 2044SOL    HW215101   5.956   7.812  10.257 -0.7885  0.2552 -0.7177
 2045SOL     OW15102   1.287   1.903   3.072 -0.0897 -0.9182  0.2997
 2045SOL    HW115103   1.345   1.901   2.996 -0.2595 -1.5321  0.1841
 2045SOL    HW215104   1.343   1.880   3.146 -0.0837 -1.0488  0.2549
 2046SOL     OW15105   5.387  10.297   6.632  0.1129  0.2849  0.5014
 2046SOL    HW115106   5.343  10.372   6.671  0.5461  1.3108 -0.9237
 2046SOL    HW215107   5.471  10.292   6.678 -0.9400 -0.9854  2.4288
 2047SOL     OW15108   3.204  11.263   5.828 -0.0071 -0.0239 -0.6535
 2047SOL    HW115109   3.292  11.247   5.794  0.2203  0.7428 -0.4354
 2047SOL    HW215110   3.155  11.184   5.805  0.7474 -0.4762 -0.7350
 2048SOL     OW15111   9.821   0.177   7.834 -0.2526  0.0086 -0.2938
 2048SOL    HW115112   9.742   0.139   7.872 -0.8492  0.6150 -0.9132
 2048SOL    HW215113   9.843   0.119   7.761  1.3464 -1.6169  1.3610
 2049SOL     OW15114   4.904   4.405   9.378 -0.3939  0.2309  0.1711
 2049SOL    HW115115   4.977   4.350   9.405 -0.9619 -1.6638 -1.8455
 2049SOL    HW215116   4.934   4.448   9.298 -0.9558  0.6381  0.1678
 2050SOL     OW15117   4.029   0.879   2.512 -0.0815 -0.1881 -0.0648
 2050SOL    HW115118   4.032   0.970   2.483 -2.7423  0.5383  1.5754
 2050SOL    HW215119   4.108   0.869   2.566  1.2087  0.5195 -1.7069
 2051SOL     OW15120  10.281   8.009   7.623  1.0210 -0.0645  0.2299
 2051SOL    HW115121  10.188   8.030   7.616  0.7268 -0.9695  1.1136
 2051SOL    HW215122  10.282   7.921   7.661  2.2233 -0.4224 -0.5852
 2052SOL     OW15123   2.933   3.760   1.637 -0.1629 -0.3634 -0.1876
 2052SOL    HW115124   2.947   3.716   1.553 -1.1553 -0.2697 -0.4169
 2052SOL    HW215125   2.838   3.755   1.651  0.0227 -0.6802  1.0941
 2053SOL     OW15126  10.081   6.704   7.636  0.3228  0.2050  0.2326
 2053SOL    HW115127  10.023   6.669   7.568  0.8188  0.4368 -0.3171
 2053SOL    HW215128  10.148   6.637   7.646 -0.4667 -0.4362  1.4455
 2054SOL     OW15129   5.665   9.775  11.192  0.1333  0.5863 -0.2567
 2054SOL    HW115130   5.727   9.847  11.193  1.8602 -0.8145 -0.6533
 2054SOL    HW215131   5.667   9.740  11.281  0.7502 -0.1216 -0.5403
 2055SOL     OW15132  10.416   9.740   2.295  0.4559 -0.1040 -0.1942
 2055SOL    HW115133  10.475   9.814   2.278 -1.2706  1.3274 -0.3073
 2055SOL    HW215134  10.337   9.760   2.244 -1.2325 -0.4583  2.1101
 2056SOL     OW15135   8.832  10.895   1.062  0.0477  0.1876  0.1791
 2056SOL    HW115136   8.814  10.847   1.143  0.7635  2.0404  1.5094
 2056SOL    HW215137   8.749  10.936   1.039 -0.2319 -0.5746 -0.2431
 2057SOL     OW15138   0.868   6.960   7.257  0.7468 -0.3889 -0.0556
 2057SOL    HW115139   0.858   6.992   7.347 -0.5042  0.3326 -0.4198
 2057SOL    HW215140   0.882   6.866   7.267  2.6088 -0.0463  0.9591
 2058SOL     OW15141   5.685   4.480   4.414  0.2407 -0.0052  0.2578
 2058SOL    HW115142   5.604   4.455   4.458  0.5997 -1.2791  0.2242
 2058SOL    HW215143   5.656   4.532   4.339 -0.7106 -2.0445 -0.8721
 2059SOL     OW15144   1.885   8.738   9.772  0.0703  0.1106 -0.1451
 2059SOL    HW115145   1.950   8.670   9.786 -0.3207 -0.6324 -1.7111
 2059SOL    HW215146   1.936   8.819   9.764  0.7286 -0.3193 -0.3784
 2060SOL     OW15147   8.627  11.428  12.118 -0.3706 -0.2858 -0.2349
 2060SOL    HW115148   8.707  11.405  12.072  0.4805  1.9970 -0.0183
 2060SOL    HW215149   8.566  11.455  12.049  0.7496  2.6801 -0.2363
 2061SOL     OW15150   1.452   6.662   6.553  0.3835 -0.0641 -0.1766
 2061SOL    HW115151   1.397   6.586   6.537  0.2684  0.2471 -1.4151
 2061SOL    HW215152   1.393   6.737   6.543  0.5514  0.1989  0.7542
 2062SOL     OW15153   5.417   4.013   5.390  0.1462  0.1549 -0.2496
 2062SOL    HW115154   5.404   3.921   5.367  2.1727  0.0378 -1.1940
 2062SOL    HW215155   5.361   4.061   5.329 -1.6680 -0.4335  0.8787
 2063SOL     OW15156   7.102   9.483   8.482 -0.6923  0.2585 -0.3069
 2063SOL    HW115157   7.061   9.534   8.412 -1.4287 -1.1463 -0.9595
 2063SOL    HW215158   7.055   9.399   8.480 -0.5689  0.0962  1.7252
 2064SOL     OW15159   3.021  10.357   9.821  0.6995 -0.2705 -0.4199
 2064SOL    HW115160   2.946  10.297   9.826  0.2729  0.1477 -1.4364
 2064SOL    HW215161   3.003  10.424   9.887  0.7842 -0.8268  0.1719
 2065SOL     OW15162   6.083   8.346   1.578 -0.8768 -0.0726  0.1851
 2065SOL    HW115163   6.173   8.374   1.560 -1.4028  0.8692 -1.1657
 2065SOL    HW215164   6.090   8.252   1.593  0.4931  0.1849  1.3808
 2066SOL     OW15165   8.118  10.308  11.036  0.1898 -0.4886 -0.3247
 2066SOL    HW115166   8.147  10.399  11.040  1.6522 -0.9623  1.7933
 2066SOL    HW215167   8.029  10.309  11.070  0.9897 -0.0617  1.9326
 2067SOL     OW15168   4.516  10.627   4.542  0.6891 -0.6741  0.2584
 2067SOL    HW115169   4.458  10.646   4.468 -0.4548  1.9042  1.6543
 2067SOL    HW215170   4.600  10.605   4.502  0.4363  1.6923 -1.8815
 2068SOL     OW15171   8.716   3.025   7.823 -0.5793  0.2753  0.0874
 2068SOL    HW115172   8.681   2.945   7.784 -1.4022  1.2324 -1.2539
 2068SOL    HW215173   8.808   3.026   7.796  0.0408 -1.2670  1.9596
 2069SOL     OW15174   5.685   4.205   0.257 -0.2718 -0.3648 -0.1563
 2069SOL    HW115175   5.689   4.139   0.326 -1.6783 -0.0190  0.2978
 2069SOL    HW215176   5.689   4.288   0.304  0.7063 -0.1205 -0.6614
 2070SOL     OW15177  10.958   9.963   1.876 -0.1711 -0.0740 -0.5841
 2070SOL    HW115178  10.989  10.053   1.870 -0.5161  0.1063  0.1527
 2070SOL    HW215179  10.966   9.928   1.787 -0.9191  0.9830 -1.0902
 2071SOL     OW15180   4.695   0.178  11.313 -0.0160  0.5569 -0.0785
 2071SOL    HW115181   4.667   0.188  11.222  1.0139 -0.5728 -0.5529
 2071SOL    HW215182   4.647   0.102  11.345  0.2350  0.4521  0.0558
 2072SOL     OW15183  11.857   4.348   7.651 -0.0891  0.3588  0.0293
 2072SOL    HW115184  11.827   4.319   7.737 -1.7042  1.5050 -0.1075
 2072SOL    HW215185  11.895   4.434   7.667 -0.7373  0.7428 -0.4434
 2073SOL     OW15186   7.570   2.975   7.250 -0.2526 -0.0107 -0.0134
 2073SOL    HW115187   7.588   3.036   7.321  0.4941  2.1325 -1.9300
 2073SOL    HW215188   7.655   2.935   7.231 -0.1857  0.3872 -0.5485
 2074SOL     OW15189   3.990   6.773   3.711 -0.0379 -0.6422 -0.7197
 2074SOL    HW115190   3.944   6.774   3.627  0.1793  0.5245 -0.8492
 2074SOL    HW215191   4.020   6.683   3.721  0.3589 -0.6992 -2.1448
 2075SOL     OW15192  12.227   6.613   7.981  0.2667 -0.1698 -0.1022
 2075SOL    HW115193  12.277   6.553   7.926  0.7355 -0.7131  0.8999
 2075SOL    HW215194  12.149   6.634   7.929  0.8893 -0.3518 -1.1315
 2076SOL     OW15195   7.694  11.526   7.055 -0.5639  0.1993  0.2120
 2076SOL    HW115196   7.755  11.600   7.055  0.7714 -0.8588 -1.3865
 2076SOL    HW215197   7.613  11.563   7.019  0.0219  0.9566 -0.3726
 2077SOL     OW15198   9.598   5.820   5.034  0.4048 -0.3918  0.3401
 2077SOL    HW115199   9.688   5.843   5.014  0.3718 -0.7912 -0.3245
 2077SOL    HW215200   9.592   5.727   5.015  0.5606 -1.0278  3.0632
 2078SOL     OW15201  10.557   9.634  12.410 -0.1852 -0.1731 -0.0443
 2078SOL    HW115202  10.517   9.603  12.329  0.4849  1.3592 -0.9986
 2078SOL    HW215203  10.645   9.596  12.410 -0.6208 -1.2433  0.6557
 2079SOL     OW15204   0.043   6.915   1.626 -0.0450  0.2454  0.3756
 2079SOL    HW115205  -0.042   6.928   1.585  0.9551  1.4703 -1.4270
 2079SOL    HW215206   0.033   6.950   1.714 -2.1594 -2.1701  1.2325
 2080SOL     OW15207   9.474  10.742  11.139  0.0769  0.0899 -0.7619
 2080SOL    HW115208   9.438  10.750  11.227 -1.9071 -0.5143 -1.4684
 2080SOL    HW215209   9.545  10.678  11.148 -0.1972 -0.0769  0.3653
 2081SOL     OW15210   5.462   7.509   1.936  0.1443  0.5604 -0.4806
 2081SOL    HW115211   5.421   7.425   1.954  3.3400 -0.9581  0.3826
 2081SOL    HW215212   5.444   7.562   2.013 -0.3543  0.0438 -0.2353
 2082SOL     OW15213   6.234   4.372   4.953 -0.0495  0.1854  0.1741
 2082SOL    HW115214   6.321   4.350   4.920  0.1713 -0.2209  0.9792
 2082SOL    HW215215   6.196   4.288   4.980  0.2506  0.5780  1.9857
 2083SOL     OW15216   9.103   9.282   1.075 -0.4041 -0.3863  0.4119
 2083SOL    HW115217   9.042   9.336   1.126 -0.4055 -0.1914  0.2038
 2083SOL    HW215218   9.109   9.200   1.125 -0.3878 -0.1904  0.7388
 2084SOL     OW15219   0.672   9.979   1.440  0.0139 -0.2791  0.0215
 2084SOL    HW115220   0.752  10.014   1.401  0.0138 -0.2318  0.0632
 2084SOL    HW215221   0.679   9.884   1.430 -0.4279 -0.2204 -0.9466
 2085SOL     OW15222   3.896   2.399   5.374 -0.1557  0.3930 -0.4206
 2085SOL    HW115223   3.807   2.429   5.395  0.2411  0.5130  1.2429
 2085SOL    HW215224   3.891   2.303   5.380 -0.5105  0.2916 -1.8914
 2086SOL     OW15225   3.781   9.325   1.706 -0.3261  0.2583  0.5970
 2086SOL    HW115226   3.750   9.330   1.615 -0.0318 -1.9998  0.3287
 2086SOL    HW215227   3.865   9.372   1.705 -0.8635  1.2508 -0.0072
 2087SOL     OW15228   5.211   3.996   1.298  0.0375  0.3330 -0.6792
 2087SOL    HW115229   5.146   4.053   1.257  0.9441  1.7540 -0.1894
 2087SOL    HW215230   5.212   3.918   1.243 -1.9195  0.3516 -0.8165
 2088SOL     OW15231   8.189   9.064   7.705  0.8994 -0.4231 -0.0959
 2088SOL    HW115232   8.199   9.054   7.800 -1.2252 -0.9079  0.1206
 2088SOL    HW215233   8.193   9.158   7.690  0.6197 -0.3022  0.5575
 2089SOL     OW15234   9.258  10.094   4.153  0.0070 -0.3450  0.4881
 2089SOL    HW115235   9.237  10.162   4.088  2.0935  1.0080  1.1368
 2089SOL    HW215236   9.228  10.013   4.112  1.0009  0.4586 -2.0853
 2090SOL     OW15237   5.768  11.114   7.997  0.0200 -0.4250 -0.6977
 2090SOL    HW115238   5.718  11.135   7.918 -0.2523 -0.9648 -0.6716
 2090SOL    HW215239   5.717  11.047   8.041  0.7716 -0.9889 -0.6712
 2091SOL     OW15240  12.083   5.604   4.332  0.1010  0.5055 -0.0292
 2091SOL    HW115241  12.167   5.640   4.359  1.1848 -1.2612 -0.8674
 2091SOL    HW215242  12.090   5.511   4.352 -1.9538  0.4330  0.5477
 2092SOL     OW15243   1.897   0.017  12.152  0.1481  0.0481  0.3327
 2092SOL    HW115244   1.855   0.040  12.070 -0.3850  0.0648  0.6037
 2092SOL    HW215245   1.915  -0.077  12.145 -0.6972 -0.1328  0.5473
 2093SOL     OW15246   7.059   7.859   5.471  0.4122 -0.1207 -0.1639
 2093SOL    HW115247   7.042   7.826   5.383 -0.7540  1.4043 -0.5498
 2093SOL    HW215248   7.121   7.932   5.458 -1.1495  1.2992  0.0174
 2094SOL     OW15249   5.309   2.424  11.835  0.1793  0.0462  0.8035
 2094SOL    HW115250   5.329   2.497  11.894  0.6475  1.4965 -1.0623
 2094SOL    HW215251   5.246   2.461  11.773 -1.5015 -1.8877  1.2452
 2095SOL     OW15252   5.538   6.100   1.366  0.0572  0.0228 -0.1414
 2095SOL    HW115253   5.484   6.162   1.414  0.4257  0.2466 -0.0090
 2095SOL    HW215254   5.490   6.082   1.285 -1.0502 -1.1087  0.7213
 2096SOL     OW15255   1.100   2.930  10.159  0.3861 -0.7110  0.0449
 2096SOL    HW115256   1.177   2.976  10.125 -0.0117  0.9572  1.2780
 2096SOL    HW215257   1.030   2.995  10.154 -0.2683 -1.2518  1.6297
 2097SOL     OW15258   2.097   8.775   4.196 -0.0232 -0.0288  0.3076
 2097SOL    HW115259   2.185   8.747   4.170  0.2011 -0.4634  1.4590
 2097SOL    HW215260   2.053   8.797   4.114  0.8578 -0.6818 -0.3574
 2098SOL     OW15261   4.077   8.040   0.108  0.2366  0.1248  0.2450
 2098SOL    HW115262   4.069   8.067   0.200 -1.0783  0.7350 -0.0277
 2098SOL    HW215263   4.093   8.122   0.061 -1.8599  0.2401 -0.3702
 2099SOL     OW15264  11.069   2.611  11.011 -0.1945 -0.1032  0.4984
 2099SOL    HW115265  11.054   2.640  11.101 -1.9785 -0.3519  0.3091
 2099SOL    HW215266  11.015   2.669  10.957  0.9195  0.0998 -0.4434
 2100SOL     OW15267   3.462   3.593   9.991 -0.1085  0.0208 -0.3147
 2100SOL    HW115268   3.461   3.645   9.911  0.1392  0.7594  0.1514
 2100SOL    HW215269   3.441   3.504   9.962 -0.6881  0.4001 -1.1042
 2101SOL     OW15270  11.375  11.128  12.331 -0.0586 -0.5624 -0.2325
 2101SOL    HW115271  11.331  11.071  12.394 -0.6270  1.2007  1.0625
 2101SOL    HW215272  11.462  11.089  12.320 -0.6858 -2.0847 -0.0065
 2102SOL     OW15273   3.292  12.562   9.934  0.7861 -0.1483  0.1367
 2102SOL    HW115274   3.310  12.644   9.979 -0.9932 -0.6592  1.9644
 2102SOL    HW215275   3.292  12.496  10.004 -0.9851 -1.1658 -0.7384
 2103SOL     OW15276   5.950   8.606   9.751  0.5566 -0.3339 -0.6054
 2103SOL    HW115277   5.896   8.557   9.688  1.0445  0.0958 -1.3804
 2103SOL    HW215278   5.920   8.575   9.837 -0.1622 -0.9017 -1.0387
 2104SOL     OW15279   7.807   6.568  11.579 -0.3112 -0.4364  0.4593
 2104SOL    HW115280   7.796   6.582  11.673 -0.2375  0.7356  0.3153
 2104SOL    HW215281   7.790   6.654  11.541  0.5740 -0.6871 -0.5179
 2105SOL     OW15282   9.194   3.078  10.821  0.3144  0.3696  0.1841
 2105SOL    HW115283   9.140   2.999  10.814  0.0231  0.6401 -0.7408
 2105SOL    HW215284   9.216   3.083  10.914  1.2975 -1.4308  0.1075
 2106SOL     OW15285  12.476   8.627   6.192  0.0120 -0.6457  0.2238
 2106SOL    HW115286  12.465   8.568   6.118 -0.6784 -0.7815  0.4245
 2106SOL    HW215287  12.570   8.629   6.208  0.1387 -0.8197 -0.4895
 2107SOL     OW15288   7.373   2.401   6.745 -0.3400  0.0990 -0.8107
 2107SOL    HW115289   7.444   2.341   6.719  0.7353  1.6071 -1.5185
 2107SOL    HW215290   7.368   2.464   6.673 -2.6543 -0.1324 -0.9309
 2108SOL     OW15291   1.755   8.571   3.375 -0.3196 -0.1176  0.0633
 2108SOL    HW115292   1.850   8.580   3.386 -0.1149 -1.1448 -0.7529
 2108SOL    HW215293   1.719   8.648   3.419  0.8741  0.1517  0.6170
 2109SOL     OW15294   6.778   8.266   3.998 -0.0434 -0.5861  0.1012
 2109SOL    HW115295   6.695   8.306   3.972  0.3578 -0.1302 -0.5055
 2109SOL    HW215296   6.816   8.328   4.060  0.2368 -0.3877 -0.2700
 2110SOL     OW15297   0.600   5.394   1.086 -0.1137 -0.4499  0.1048
 2110SOL    HW115298   0.641   5.479   1.099  1.5567 -0.8517 -2.0172
 2110SOL    HW215299   0.670   5.331   1.105 -0.9672 -1.3262  0.4287
 2111SOL     OW15300  12.583   6.440   6.797 -0.0373 -0.3844  0.0857
 2111SOL    HW115301  12.630   6.440   6.881 -1.2344  1.2526  0.8203
 2111SOL    HW215302  12.619   6.515   6.750 -0.4231 -0.3964 -0.2336
 2112SOL     OW15303  11.871   1.449   2.853 -0.4153  0.0108 -0.1514
 2112SOL    HW115304  11.840   1.364   2.885  1.6970 -1.7258 -2.3474
 2112SOL    HW215305  11.954   1.462   2.899 -0.3900  0.5750 -0.3534
 2113SOL     OW15306  11.697   1.087   2.848  0.4405  0.1864  0.0745
 2113SOL    HW115307  11.687   0.995   2.871  0.4125  0.1307 -0.1580
 2113SOL    HW215308  11.752   1.086   2.770 -2.6514  0.1037 -2.3138
 2114SOL     OW15309   5.055   3.140   0.969 -0.5902 -0.0971 -0.2862
 2114SOL    HW115310   4.990   3.171   1.032 -0.7319  0.2626 -0.5984
 2114SOL    HW215311   5.040   3.195   0.891 -0.1627 -0.2677 -0.4923
 2115SOL     OW15312  10.191   7.731   3.238 -0.2302  0.2285 -0.2621
 2115SOL    HW115313  10.200   7.812   3.289  0.9707 -0.2972  0.4120
 2115SOL    HW215314  10.117   7.686   3.278 -0.5497  0.7323 -0.2740
 2116SOL     OW15315   7.366   7.694   1.215 -0.1330 -0.3010 -0.4590
 2116SOL    HW115316   7.416   7.730   1.289 -0.6765  0.1004 -0.2862
 2116SOL    HW215317   7.314   7.767   1.183 -1.5198 -1.0013  0.1204
 2117SOL     OW15318   8.221   6.169   9.827  0.1051 -0.1415 -0.0590
 2117SOL    HW115319   8.303   6.157   9.778  0.6559  1.9271  0.2715
 2117SOL    HW215320   8.246   6.157   9.919 -0.0851 -0.0211  0.0089
 2118SOL     OW15321   6.803  12.141  10.158 -0.2983  0.2548 -0.2839
 2118SOL    HW115322   6.728  12.122  10.213 -0.7012  0.9346 -0.5862
 2118SOL    HW215323   6.786  12.095  10.076 -1.0145  1.4202 -0.8177
 2119SOL     OW15324  10.213  10.778   1.914  0.6335 -0.5848  0.0502
 2119SOL    HW115325  10.221  10.698   1.966 -0.5291 -0.6534  0.1624
 2119SOL    HW215326  10.248  10.847   1.970  0.3144 -0.8090  0.5333
 2120SOL     OW15327  11.948   0.877   7.890  0.2256 -0.3074  0.1191
 2120SOL    HW115328  11.886   0.926   7.835  0.2807  0.0933  0.4027
 2120SOL    HW215329  12.033   0.917   7.872  0.4450 -1.0486 -0.4804
 2121SOL     OW15330  10.476   2.333   5.516 -0.4407  0.2421  0.0990
 2121SOL    HW115331  10.540   2.294   5.575 -1.8870 -0.7312  1.0779
 2121SOL    HW215332  10.472   2.425   5.544 -0.3012  0.0512  0.7680
 2122SOL     OW15333   7.167   0.081   9.823 -0.2197  0.0430 -0.3182
 2122SOL    HW115334   7.106   0.070   9.750 -0.1814 -1.1667 -0.1949
 2122SOL    HW215335   7.221   0.002   9.821 -2.1781 -1.5930  2.8031
 2123SOL     OW15336   2.241   9.062   1.804  0.2450 -0.1155  0.0547
 2123SOL    HW115337   2.197   9.140   1.771  3.8123  1.8287 -0.6793
 2123SOL    HW215338   2.249   9.075   1.898  1.6782  0.9828 -0.1870
 2124SOL     OW15339  11.180   1.373   0.329  0.0342  0.2331  0.2881
 2124SOL    HW115340  11.251   1.340   0.383 -0.7837 -1.3823  0.4384
 2124SOL    HW215341  11.222   1.403   0.249  0.8177 -1.5196  0.0090
 2125SOL     OW15342   6.755   9.138   2.240 -0.6611 -0.4137  0.7980
 2125SOL    HW115343   6.667   9.165   2.267 -1.0577 -1.5482  0.6862
 2125SOL    HW215344   6.812   9.210   2.268 -1.7420  0.8134 -0.0250
 2126SOL     OW15345   2.214  10.473   3.614 -0.3448  0.7815  0.1277
 2126SOL    HW115346   2.193  10.380   3.602 -0.0609  0.7663 -0.2961
 2126SOL    HW215347   2.167  10.517   3.543 -0.8799  1.0216  0.6280
 2127SOL     OW15348   9.130   9.728   2.256 -0.4382 -0.3289  0.0278
 2127SOL    HW115349   9.048   9.697   2.217 -0.6309  0.7630 -0.4887
 2127SOL    HW215350   9.198   9.681   2.209 -0.7674 -1.6076  0.7945
 2128SOL     OW15351   8.758   2.400   8.858 -0.2051  0.1908 -0.5536
 2128SOL    HW115352   8.688   2.336   8.864  0.7288 -0.8050 -0.0332
 2128SOL    HW215353   8.833   2.352   8.823  0.1411  1.3173 -1.4436
 2129SOL     OW15354   7.158   3.736   1.801  0.3608  0.2011 -0.0469
 2129SOL    HW115355   7.187   3.778   1.719 -1.2354 -3.4425 -2.7367
 2129SOL    HW215356   7.225   3.671   1.820  0.0291  0.0927  0.7989
 2130SOL     OW15357  11.497  10.365  10.550 -0.0971 -0.7047 -0.1821
 2130SOL    HW115358  11.530  10.391  10.464 -0.8636 -0.6572 -0.4728
 2130SOL    HW215359  11.484  10.447  10.596  1.7368 -0.7726  0.5534
 2131SOL     OW15360   5.460   6.339   4.229  0.3618  0.3569  0.5615
 2131SOL    HW115361   5.430   6.248   4.228  0.8730  0.1959 -0.1758
 2131SOL    HW215362   5.544   6.338   4.183 -0.0059  1.3341 -0.1630
 2132SOL     OW15363   6.472  10.765   5.496 -0.7745  0.0756  0.9784
 2132SOL    HW115364   6.461  10.732   5.406 -1.8940 -0.0798  1.1576
 2132SOL    HW215365   6.501  10.855   5.485  1.6417 -0.6992  0.4733
 2133SOL     OW15366   3.720   7.762   6.342  0.2050  0.7149  0.3923
 2133SOL    HW115367   3.742   7.694   6.279  0.9901  0.7809  0.5848
 2133SOL    HW215368   3.627   7.779   6.328  0.0587 -0.2204  0.1780
 2134SOL     OW15369  11.720   9.926  12.190  0.0749 -0.4207  0.1909
 2134SOL    HW115370  11.631   9.940  12.157  0.6077 -1.0266 -1.6464
 2134SOL    HW215371  11.776   9.963  12.122  1.2347 -0.9299  0.8538
 2135SOL     OW15372   5.172   5.932  10.810  0.2771 -0.7649 -0.1212
 2135SOL    HW115373   5.258   5.943  10.768  0.2548 -0.8015 -0.1758
 2135SOL    HW215374   5.150   5.840  10.796 -0.0378 -0.6140 -0.6149
 2136SOL     OW15375   0.492  11.095   0.057  0.2909  0.4259 -0.1519
 2136SOL    HW115376   0.437  11.023   0.028  1.6344 -0.6356 -0.1496
 2136SOL    HW215377   0.499  11.152  -0.019 -2.4921  1.7408  0.4322
 2137SOL     OW15378   0.766   0.264   7.612  0.2190  0.0922  0.1747
 2137SOL    HW115379   0.731   0.298   7.529 -0.1088 -1.7227 -0.4854
 2137SOL    HW215380   0.689   0.252   7.667  0.2828  0.0312  0.2504
 2138SOL     OW15381   1.192   7.304   8.806  0.5480 -0.2571  0.7315
 2138SOL    HW115382   1.161   7.213   8.807 -1.7592  0.3376 -2.2936
 2138SOL    HW215383   1.117   7.355   8.835  0.2191  0.9101 -1.9224
 2139SOL     OW15384  11.226   8.280   3.958  0.3781  0.1424 -0.7741
 2139SOL    HW115385  11.307   8.233   3.979 -0.7006 -0.9745  1.1976
 2139SOL    HW215386  11.251   8.372   3.954  1.9790 -0.2980 -1.6621
 2140SOL     OW15387   3.888   4.883   3.823 -0.4699  0.1367  0.1325
 2140SOL    HW115388   3.880   4.844   3.911  0.8334 -1.0350 -0.2310
 2140SOL    HW215389   3.973   4.925   3.823  0.4272 -1.5381 -1.1498
 2141SOL     OW15390  12.339   2.946   9.000 -0.8227 -0.2083 -0.1293
 2141SOL    HW115391  12.262   2.997   8.980 -1.8691 -0.8360  1.9312
 2141SOL    HW215392  12.326   2.917   9.091  1.5964 -0.7522  0.1376
 2142SOL     OW15393  12.133   5.332   4.982 -0.3426 -0.0858 -0.4910
 2142SOL    HW115394  12.223   5.363   4.983 -0.1953 -0.5183 -0.3450
 2142SOL    HW215395  12.139   5.239   5.004 -0.8515 -0.0376 -0.1310
 2143SOL     OW15396   3.776   8.800   6.120 -1.0050  0.0915  0.3904
 2143SOL    HW115397   3.784   8.761   6.207 -1.8009  0.0645  0.4623
 2143SOL    HW215398   3.866   8.805   6.087 -0.6101  0.8605  1.5357
 2144SOL     OW15399   1.425  11.889   8.574 -0.4210  0.4486 -0.1214
 2144SOL    HW115400   1.476  11.881   8.494 -1.7405 -0.2199 -0.9281
 2144SOL    HW215401   1.462  11.823   8.633 -1.4839 -1.3303 -1.3624
 2145SOL     OW15402  10.003   4.368   0.411 -0.3390 -0.5563 -0.0667
 2145SOL    HW115403   9.997   4.451   0.365  1.4072 -0.6762 -0.5528
 2145SOL    HW215404   9.931   4.315   0.375 -0.9646  0.4408 -0.3208
 2146SOL     OW15405   7.271  10.296   4.604  0.0651  0.0483 -0.0201
 2146SOL    HW115406   7.179  10.315   4.623 -0.3572 -0.0992 -1.7734
 2146SOL    HW215407   7.286  10.331   4.516  1.6222 -0.1446  0.1300
 2147SOL     OW15408   9.247   9.995   6.192 -0.2156 -0.2196  0.4772
 2147SOL    HW115409   9.301  10.003   6.113 -0.1494 -0.1774  0.5273
 2147SOL    HW215410   9.295  10.044   6.258 -0.6148  0.3177  0.3710
 2148SOL     OW15411  11.506   9.158   6.136 -0.5839 -0.5776 -0.1897
 2148SOL    HW115412  11.553   9.237   6.163  0.2958 -1.3040  0.4477
 2148SOL    HW215413  11.421   9.190   6.103  0.2372  0.7341 -1.1137
 2149SOL     OW15414   0.235   4.119   2.844  0.0784  0.1659 -0.3826
 2149SOL    HW115415   0.166   4.053   2.844  0.0862  0.1466 -1.0742
 2149SOL    HW215416   0.193   4.199   2.877 -1.5014  1.3303 -4.5296
 2150SOL     OW15417   0.644   7.603   0.332 -0.5110  0.5800  0.0385
 2150SOL    HW115418   0.716   7.541   0.328 -0.8450  0.0641  1.3426
 2150SOL    HW215419   0.655   7.659   0.255 -0.0082 -0.8706 -0.9706
 2151SOL     OW15420   3.900  11.672   8.853  0.0008 -0.5022  0.0525
 2151SOL    HW115421   3.917  11.639   8.765  1.4899 -2.2794  0.9498
 2151SOL    HW215422   3.959  11.747   8.862  1.3022 -1.4943  0.1574
 2152SOL     OW15423  12.545  10.354  11.781 -0.0387 -0.2757  0.3785
 2152SOL    HW115424  12.535  10.264  11.811  0.4214 -0.2627  0.5864
 2152SOL    HW215425  12.639  10.363  11.762  0.1195  0.4696  1.3956
 2153SOL     OW15426   8.573  11.317   4.061 -0.0994 -0.1125  0.2080
 2153SOL    HW115427   8.478  11.328   4.062 -0.3205 -1.3265 -1.4740
 2153SOL    HW215428   8.605  11.394   4.015 -0.4489 -0.4650 -0.6550
 2154SOL     OW15429  10.287   1.893   8.816  0.3399 -0.2529  0.4059
 2154SOL    HW115430  10.366   1.840   8.824  1.6103  1.4780  0.0602
 2154SOL    HW215431  10.303   1.969   8.872 -1.4265 -0.2155  0.9346
 2155SOL     OW15432   8.576   5.285  11.747  0.7610  0.0601  0.0708
 2155SOL    HW115433   8.665   5.318  11.764  0.8803  0.0915 -0.6008
 2155SOL    HW215434   8.571   5.278  11.652  1.0105 -2.5596  0.1730
 2156SOL     OW15435   9.130  12.105   1.376 -0.2472 -0.0341 -0.0274
 2156SOL    HW115436   9.222  12.105   1.404 -0.1899 -1.2705 -0.1603
 2156SOL    HW215437   9.107  12.198   1.370  0.8864  0.2907  0.3489
 2157SOL     OW15438   3.847   8.532   3.600  0.2851  0.7308 -0.1292
 2157SOL    HW115439   3.754   8.510   3.603  0.7734 -1.5649 -0.4391
 2157SOL    HW215440   3.881   8.505   3.685  1.0050 -0.2569 -0.7057
 2158SOL     OW15441   1.462   0.780   5.535 -0.2839 -0.2432  0.5333
 2158SOL    HW115442   1.488   0.862   5.578 -0.1033  0.1553 -0.3267
 2158SOL    HW215443   1.377   0.758   5.575  0.6874 -0.8503  2.3911
 2159SOL     OW15444   8.303   6.424  10.547 -0.4432  0.1362 -0.2289
 2159SOL    HW115445   8.265   6.444  10.632 -0.1027  0.9979 -0.2704
 2159SOL    HW215446   8.228   6.413  10.489 -0.6586  0.8773 -0.1010
 2160SOL     OW15447  11.091  12.464   6.252  0.3749 -0.0442  0.0617
 2160SOL    HW115448  11.091  12.559   6.243 -1.6054 -0.0013  0.1204
 2160SOL    HW215449  11.050  12.432   6.171  0.3539 -0.7954  0.3572
 2161SOL     OW15450   8.911   6.188   9.827  0.3617  0.1578 -0.4470
 2161SOL    HW115451   8.997   6.205   9.866  0.1266 -0.2038  0.2641
 2161SOL    HW215452   8.869   6.128   9.889 -0.2707  0.0577 -0.9632
 2162SOL     OW15453  10.868   5.324   8.501  0.2083 -0.0455 -0.8870
 2162SOL    HW115454  10.810   5.286   8.567  0.0969  0.5484 -0.6343
 2162SOL    HW215455  10.956   5.303   8.531  0.3181  2.6664  1.0703
 2163SOL     OW15456  11.795   7.214  10.992 -0.4549 -0.3416  0.6059
 2163SOL    HW115457  11.838   7.291  10.954  0.3966 -0.5591  1.0842
 2163SOL    HW215458  11.860   7.144  10.983 -1.0420 -0.8880  0.5945
 2164SOL     OW15459   4.677   3.306   6.459  0.1694 -0.2504 -0.4091
 2164SOL    HW115460   4.683   3.338   6.370  0.2998  0.9986  0.0295
 2164SOL    HW215461   4.651   3.214   6.450 -2.7687  0.5780 -1.6668
 2165SOL     OW15462   6.075   9.384   0.493  0.0881  0.6879 -0.3841
 2165SOL    HW115463   6.086   9.290   0.504 -0.9188  0.7196  1.1401
 2165SOL    HW215464   6.140   9.424   0.551 -0.9257  0.8999  0.6363
 2166SOL     OW15465   9.861   3.943   7.791  0.2961  0.0271 -0.1552
 2166SOL    HW115466   9.799   3.928   7.862 -0.4072  0.7474 -0.6010
 2166SOL    HW215467   9.925   3.871   7.799  0.6767  0.5138  1.6483
 2167SOL     OW15468   4.825  11.441   6.769  0.0924 -0.2349 -0.1992
 2167SOL    HW115469   4.792  11.506   6.832 -0.1583  0.6428 -1.2140
 2167SOL    HW215470   4.823  11.358   6.817 -0.4467  0.3558  0.8298
 2168SOL     OW15471   5.791   3.229   3.960  0.0755  0.0275  0.0120
 2168SOL    HW115472   5.797   3.316   4.000  1.0118  0.3178 -0.7155
 2168SOL    HW215473   5.815   3.169   4.031 -0.8338  0.3300  0.5915
 2169SOL     OW15474   4.244   1.676   3.264  0.1635  0.0812 -0.6964
 2169SOL    HW115475   4.269   1.632   3.346 -0.9740 -0.3871 -0.5906
 2169SOL    HW215476   4.292   1.630   3.196 -1.4027 -1.7167 -0.6483
 2170SOL     OW15477   2.526   5.008   5.311 -0.1537  0.4051 -0.6517
 2170SOL    HW115478   2.510   4.999   5.405  1.4981  0.8531 -0.3024
 2170SOL    HW215479   2.439   5.017   5.272 -0.7815  2.0100  1.0252
 2171SOL     OW15480   5.597   1.717   8.327  0.0009 -0.4355 -0.5532
 2171SOL    HW115481   5.513   1.700   8.285  0.1477  0.0441 -1.0535
 2171SOL    HW215482   5.609   1.812   8.320  0.1684 -0.3820  0.3116
 2172SOL     OW15483   3.731   9.221   2.871  0.0682 -0.4119  0.0750
 2172SOL    HW115484   3.743   9.140   2.920  1.6858  0.4686  1.2272
 2172SOL    HW215485   3.797   9.217   2.802  1.3702  0.6487  1.1995
 2173SOL     OW15486   4.767  10.843   2.259  0.0281  0.1862 -0.0762
 2173SOL    HW115487   4.756  10.749   2.271  0.8815  0.4191  3.5329
 2173SOL    HW215488   4.678  10.877   2.253 -0.3910 -0.6439  1.0950
 2174SOL     OW15489  10.613   0.476   2.110 -0.6042 -0.5054 -0.1005
 2174SOL    HW115490  10.626   0.519   2.025 -3.5856 -1.6493 -1.2578
 2174SOL    HW215491  10.699   0.481   2.152  1.4857 -1.2739 -3.8274
 2175SOL     OW15492  11.214   7.743  11.140 -0.1036 -0.1147  0.5270
 2175SOL    HW115493  11.245   7.813  11.197 -0.9375 -0.4622  1.4446
 2175SOL    HW215494  11.293   7.700  11.109  0.3723  0.2778  1.1776
 2176SOL     OW15495  11.474   0.361   7.347 -0.0092  0.4314  0.3770
 2176SOL    HW115496  11.388   0.379   7.309 -0.8433 -1.9424  0.9728
 2176SOL    HW215497  11.514   0.448   7.357 -1.9682  1.5388 -0.6921
 2177SOL     OW15498   2.291   9.909   3.701 -0.3849 -0.3810 -0.1038
 2177SOL    HW115499   2.355   9.855   3.747 -0.4572  0.8628  1.5344
 2177SOL    HW215500   2.323   9.999   3.712  0.5640 -0.0225 -4.0010
 2178SOL     OW15501   6.748   0.602   7.738 -0.2601  0.6921  0.2118
 2178SOL    HW115502   6.810   0.608   7.666 -1.2113  1.0878 -0.6000
 2178SOL    HW215503   6.676   0.660   7.712 -0.2094  1.5702  1.9102
 2179SOL     OW15504  12.113   6.126   3.451  0.2729  0.0440  0.1466
 2179SOL    HW115505  12.087   6.097   3.539  0.8532 -0.8143  0.0485
 2179SOL    HW215506  12.208   6.136   3.457  0.1114  2.0046  0.1751
 2180SOL     OW15507   6.166   4.456   1.051  0.2474  0.0319  0.4235
 2180SOL    HW115508   6.206   4.417   1.129 -0.6273  0.7191  1.2470
 2180SOL    HW215509   6.237   4.463   0.988  0.9389 -0.6896  1.1077
 2181SOL     OW15510   2.298   6.980  12.412 -0.6764  0.1708 -0.3813
 2181SOL    HW115511   2.304   7.061  12.462  0.4378 -0.3971  0.4395
 2181SOL    HW215512   2.258   6.918  12.473  1.6358 -0.8071  0.2073
 2182SOL     OW15513   2.913   7.154   0.491  0.3135  0.6643 -0.1470
 2182SOL    HW115514   2.850   7.218   0.524  1.1607  1.3491  0.1904
 2182SOL    HW215515   2.974   7.140   0.564  0.7640  0.3063 -0.5817
 2183SOL     OW15516   6.994   4.543  10.759  0.1594  0.3768  0.7256
 2183SOL    HW115517   6.949   4.626  10.741 -0.3832 -0.1840 -0.5788
 2183SOL    HW215518   7.083   4.570  10.781 -0.6150  1.4726  2.9108
 2184SOL     OW15519   6.037  10.048   7.455  0.1202  0.1980  0.0733
 2184SOL    HW115520   6.050   9.954   7.467  2.7688  0.4004 -0.6219
 2184SOL    HW215521   6.107  10.088   7.506 -0.1193  1.7406 -0.7589
 2185SOL     OW15522  11.197  12.520   8.623  0.0237  0.1008 -0.1971
 2185SOL    HW115523  11.215  12.450   8.686 -0.4848 -0.1183 -0.2970
 2185SOL    HW215524  11.268  12.583   8.638  0.8259 -0.6992 -0.5169
 2186SOL     OW15525   1.503   5.221  10.496 -0.6599  0.1872 -0.2379
 2186SOL    HW115526   1.501   5.167  10.417  0.2527  2.5341 -1.9869
 2186SOL    HW215527   1.596   5.229  10.517 -0.8849 -0.2257  0.9629
 2187SOL     OW15528   0.338   8.977   3.969  0.0540  0.4773  0.5425
 2187SOL    HW115529   0.347   9.071   3.955  0.2152  0.4606  0.5289
 2187SOL    HW215530   0.286   8.947   3.894 -0.4987  0.6423  0.8519
 2188SOL     OW15531  11.047   2.801   2.842 -0.9023  0.1190  0.4024
 2188SOL    HW115532  11.116   2.863   2.820 -0.9892 -0.1337 -0.5905
 2188SOL    HW215533  11.068   2.774   2.932  0.3171  0.0101  0.1006
 2189SOL     OW15534   5.005  12.547   5.617 -0.4854 -0.4152 -0.0442
 2189SOL    HW115535   5.071  12.613   5.636  0.7318 -1.6022  0.0114
 2189SOL    HW215536   4.988  12.556   5.523 -0.0403 -0.2857 -0.1132
 2190SOL     OW15537   1.622   7.008   7.302 -0.2987  0.1483  0.6407
 2190SOL    HW115538   1.584   6.987   7.388 -1.6539  0.8250  0.2285
 2190SOL    HW215539   1.550   6.996   7.240  0.8115 -0.8796 -0.4991
 2191SOL     OW15540   7.593   9.477   1.161  0.3120 -0.0312  0.0305
 2191SOL    HW115541   7.619   9.451   1.073 -0.2263 -1.3213  0.2188
 2191SOL    HW215542   7.657   9.542   1.188  1.8919 -1.3361 -0.4206
 2192SOL     OW15543   9.673  10.819   1.635  0.1220 -0.3017 -0.1837
 2192SOL    HW115544   9.752  10.846   1.589 -0.2658 -0.1441 -0.7689
 2192SOL    HW215545   9.674  10.870   1.716 -0.5206  1.4387 -1.2090
 2193SOL     OW15546   4.462   0.501   3.759  0.0961 -0.1444  0.3444
 2193SOL    HW115547   4.450   0.409   3.784  1.5274 -0.3981  0.1925
 2193SOL    HW215548   4.555   0.517   3.775 -0.3438  1.6049  1.3999
 2194SOL     OW15549  10.516  12.149  10.947  0.1883 -0.1342 -0.5028
 2194SOL    HW115550  10.596  12.146  10.895  0.4957  1.4766 -0.1769
 2194SOL    HW215551  10.534  12.096  11.024  1.6592  1.6875  0.4775
 2195SOL     OW15552   6.016   4.341   0.101 -0.2088  1.0929 -0.3608
 2195SOL    HW115553   6.028   4.278   0.172 -0.9706  0.3820 -0.8455
 2195SOL    HW215554   6.049   4.423   0.137 -0.7960  0.8020  0.9173
 2196SOL     OW15555   2.535   8.629   3.742  0.4590 -0.1537 -0.1033
 2196SOL    HW115556   2.605   8.576   3.780  1.9671  1.4672 -0.5106
 2196SOL    HW215557   2.535   8.710   3.792 -0.3815  0.3293 -0.8367
 2197SOL     OW15558   2.413   6.626   2.045  0.7101  0.2507  0.5540
 2197SOL    HW115559   2.381   6.570   2.116  3.4365 -0.5631  1.2254
 2197SOL    HW215560   2.365   6.596   1.968  0.7593 -1.7510  1.2520
 2198SOL     OW15561   0.335   3.691   6.264  0.1980 -0.3515  0.1135
 2198SOL    HW115562   0.315   3.618   6.206 -0.5841  0.7834 -1.1007
 2198SOL    HW215563   0.315   3.658   6.351 -1.2836 -1.2090 -0.5113
 2199SOL     OW15564   9.484   8.374   5.931 -0.7896 -0.3731 -0.5195
 2199SOL    HW115565   9.548   8.357   6.000 -0.3381 -1.2268 -1.1311
 2199SOL    HW215566   9.473   8.469   5.931 -0.4325 -0.3251  0.3999
 2200SOL     OW15567   9.860   8.262  10.122 -0.8545  0.3688 -0.2381
 2200SOL    HW115568   9.917   8.266  10.045 -0.5972  1.6452 -0.0097
 2200SOL    HW215569   9.851   8.169  10.141  0.2422  0.1003 -0.9561
 2201SOL     OW15570   4.896   2.731   9.023  0.3116  0.2845  0.7547
 2201SOL    HW115571   4.827   2.798   9.031 -1.6867 -1.3717 -1.2441
 2201SOL    HW215572   4.970   2.778   8.985 -0.5901  1.6310  0.5903
 2202SOL     OW15573   8.493   2.381   5.180  0.3125 -0.3955 -0.3670
 2202SOL    HW115574   8.537   2.306   5.220  0.7319 -0.2655 -0.5780
 2202SOL    HW215575   8.401   2.368   5.200  0.1173 -2.0040 -2.0294
 2203SOL     OW15576   5.986   7.947  12.563  0.0164 -0.3355 -0.6752
 2203SOL    HW115577   5.915   8.011  12.559 -0.5285 -0.8981 -0.1207
 2203SOL    HW215578   6.065   7.999  12.547 -0.6267  0.0204 -3.1768
 2204SOL     OW15579   7.102   1.870   9.492 -0.5648 -0.2371  0.9240
 2204SOL    HW115580   7.116   1.948   9.545 -1.4975  0.2983  0.4217
 2204SOL    HW215581   7.178   1.867   9.434 -1.0443  0.9574  0.1880
 2205SOL     OW15582   8.174   3.843   7.723  0.3157 -0.1835 -0.6886
 2205SOL    HW115583   8.110   3.860   7.793 -0.0146  2.3538 -1.5055
 2205SOL    HW215584   8.252   3.811   7.769  0.4374  2.3168  1.0366
 2206SOL     OW15585   9.202   6.654   8.533  0.0099  0.5725 -0.6315
 2206SOL    HW115586   9.162   6.686   8.452 -1.3652  1.4155  0.3375
 2206SOL    HW215587   9.169   6.713   8.601 -0.2913 -1.1694  0.8089
 2207SOL     OW15588  11.449   4.405   5.686  0.1115 -0.1618 -0.4969
 2207SOL    HW115589  11.354   4.415   5.678  0.0261 -1.2132 -1.0366
 2207SOL    HW215590  11.463   4.311   5.676  1.2159 -0.0107 -0.4400
 2208SOL     OW15591  12.106   4.513   4.296 -0.0097  0.0216 -0.7186
 2208SOL    HW115592  12.131   4.480   4.210  1.7539  0.8323 -0.5854
 2208SOL    HW215593  12.185   4.559   4.327  0.1359 -1.9318  2.1846
 2209SOL     OW15594   9.631   5.862   6.184 -0.5817 -0.8910 -0.5511
 2209SOL    HW115595   9.604   5.770   6.196 -0.4555 -0.9675 -0.8591
 2209SOL    HW215596   9.724   5.857   6.165 -0.7814 -0.7798 -1.6271
 2210SOL     OW15597   7.698   3.691   7.256 -0.0214 -0.1096 -0.5880
 2210SOL    HW115598   7.767   3.632   7.225  0.8229  0.9732 -0.8083
 2210SOL    HW215599   7.732   3.779   7.241 -0.8177  0.4557  0.7055
 2211SOL     OW15600   7.132   4.640   5.865 -0.2053  0.3586 -0.4043
 2211SOL    HW115601   7.080   4.620   5.942 -1.3625 -0.8445 -1.4417
 2211SOL    HW215602   7.218   4.663   5.899 -0.4325 -0.9736  1.2108
 2212SOL     OW15603   4.780   8.429   0.428  0.2667 -0.5069  0.5999
 2212SOL    HW115604   4.769   8.442   0.522 -0.9522  0.3875  0.3561
 2212SOL    HW215605   4.694   8.451   0.391  1.1959  0.8021 -0.8777
 2213SOL     OW15606  12.010   9.476   1.626  0.0739 -0.5698  0.5519
 2213SOL    HW115607  11.935   9.524   1.662 -0.5504 -1.4686  0.4688
 2213SOL    HW215608  12.047   9.536   1.561 -0.0257  0.2432  1.2193
 2214SOL     OW15609   1.530   8.794   3.049 -0.0670 -0.2490  0.6999
 2214SOL    HW115610   1.532   8.702   3.074 -1.8278 -0.9229 -1.3361
 2214SOL    HW215611   1.613   8.809   3.005 -0.4928 -1.4336 -0.5919
 2215SOL     OW15612   6.778  10.858   5.651 -0.1890  0.0633 -0.1865
 2215SOL    HW115613   6.766  10.917   5.576  0.6102  0.3148 -0.1321
 2215SOL    HW215614   6.844  10.795   5.621 -0.8996 -0.7006 -0.1770
 2216SOL     OW15615  10.575   8.408   4.050  0.6680 -0.5410  0.2643
 2216SOL    HW115616  10.526   8.334   4.014  1.7407 -1.7068  1.1154
 2216SOL    HW215617  10.573   8.394   4.145  1.0560  0.4249  0.4263
 2217SOL     OW15618   4.016   6.502   0.793  0.5831 -0.0806 -0.1424
 2217SOL    HW115619   4.077   6.515   0.720  2.1608  0.2849  1.1737
 2217SOL    HW215620   4.047   6.423   0.836 -0.0304 -0.0271  0.4142
 2218SOL     OW15621   3.006   1.925   5.936 -0.4731 -0.1970  0.1157
 2218SOL    HW115622   2.980   1.876   6.014 -2.5737  0.1398 -0.3140
 2218SOL    HW215623   2.924   1.941   5.889  0.2222  2.8047 -0.2865
 2219SOL     OW15624   5.217   0.774  11.732  0.1550  0.0909  0.7058
 2219SOL    HW115625   5.278   0.787  11.805  0.8747  0.9185 -0.0271
 2219SOL    HW215626   5.213   0.859  11.688 -1.5496  0.0637  0.7302
 2220SOL     OW15627   1.849  11.366   7.653 -1.1294 -0.1468 -0.1006
 2220SOL    HW115628   1.809  11.445   7.617  0.7264  0.7225 -0.3934
 2220SOL    HW215629   1.879  11.317   7.577  0.3811  0.3631  0.1326
 2221SOL     OW15630   1.197   4.997   2.951  0.1714 -0.2994  0.3661
 2221SOL    HW115631   1.289   5.025   2.953 -0.1530  1.1021 -1.8192
 2221SOL    HW215632   1.201   4.906   2.922  0.8622 -0.0129 -0.5060
 2222SOL     OW15633   9.796   8.251   8.082 -0.4539  0.3280  0.0389
 2222SOL    HW115634   9.810   8.314   8.012  0.9213  0.9706  0.8568
 2222SOL    HW215635   9.805   8.165   8.039 -0.6796  0.6883 -0.7515
 2223SOL     OW15636   0.479   7.319   9.360 -0.0128 -0.2735 -0.2888
 2223SOL    HW115637   0.527   7.283   9.435  2.6016  2.1386 -0.6450
 2223SOL    HW215638   0.456   7.408   9.386 -2.1474 -0.5027 -1.1449
 2224SOL     OW15639   7.621   2.579  11.582  0.0967 -0.1008 -0.1457
 2224SOL    HW115640   7.713   2.607  11.577 -0.2051  1.1745  0.9308
 2224SOL    HW215641   7.600   2.580  11.675 -0.7308 -1.4006 -0.2923
 2225SOL     OW15642   9.648   1.823   8.142 -0.0913  0.6102 -0.1842
 2225SOL    HW115643   9.725   1.865   8.103 -0.1381  0.8340 -0.0415
 2225SOL    HW215644   9.679   1.790   8.227  0.2089 -0.5571 -0.7274
 2226SOL     OW15645   3.611   2.373   3.026 -0.1976  0.3159 -0.1183
 2226SOL    HW115646   3.672   2.316   3.074 -1.4710 -0.4310  0.6879
 2226SOL    HW215647   3.551   2.405   3.094  0.1246  2.1954 -0.6534
 2227SOL     OW15648  10.204   4.197  10.262 -0.2773  0.0513  0.2310
 2227SOL    HW115649  10.285   4.162  10.298 -1.0810 -0.6731  1.4120
 2227SOL    HW215650  10.145   4.121  10.258 -0.9221  0.5804 -0.5248
 2228SOL     OW15651  10.045  11.917   3.010 -0.0694 -0.2757 -0.1211
 2228SOL    HW115652   9.984  11.872   2.952 -0.0500 -0.3731 -0.0639
 2228SOL    HW215653  10.130  11.877   2.992 -0.1179 -0.5305  0.2081
 2229SOL     OW15654   3.591   8.152   7.695 -0.5698  0.3163 -0.3138
 2229SOL    HW115655   3.674   8.198   7.676 -0.9199  0.6057 -1.1706
 2229SOL    HW215656   3.610   8.103   7.775  0.2919  0.7472 -0.2309
 2230SOL     OW15657   1.116  10.430   3.308  0.2268 -0.0571  0.4500
 2230SOL    HW115658   1.152  10.513   3.277 -0.8794  0.6298  0.9309
 2230SOL    HW215659   1.134  10.430   3.402 -1.5331  0.6112  0.8258
 2231SOL     OW15660   3.924   8.272  10.614  0.3634 -0.1662 -0.2539
 2231SOL    HW115661   4.008   8.305  10.647  0.9875  0.2343 -2.1127
 2231SOL    HW215662   3.862   8.342  10.635  1.6890  2.5879 -4.2460
 2232SOL     OW15663  12.216   5.797   7.914 -0.0060  0.3120 -0.4723
 2232SOL    HW115664  12.177   5.846   7.841 -2.1943 -1.2818 -0.4670
 2232SOL    HW215665  12.150   5.801   7.983  1.0490 -0.1768  0.6012
 2233SOL     OW15666   8.286  12.179   1.286 -0.0961  0.3574 -0.4738
 2233SOL    HW115667   8.347  12.159   1.357 -1.0949  1.0792  0.6327
 2233SOL    HW215668   8.324  12.255   1.242  0.4715 -0.0211 -0.6471
 2234SOL     OW15669   8.283   7.289   5.826 -0.1967  0.3294  0.2450
 2234SOL    HW115670   8.320   7.371   5.795  1.1135 -0.2636  0.1625
 2234SOL    HW215671   8.342   7.261   5.896 -0.1349 -0.9493 -0.2928
 2235SOL     OW15672   8.640   2.439   9.132 -0.3561 -0.3370 -0.4546
 2235SOL    HW115673   8.595   2.467   9.212  0.7909  0.4599 -0.0523
 2235SOL    HW215674   8.610   2.499   9.064  0.5530  0.6228 -0.0422
 2236SOL     OW15675   1.650   8.349  11.604  0.1157 -0.2853  0.4799
 2236SOL    HW115676   1.580   8.341  11.539 -0.6777  0.2893  1.2293
 2236SOL    HW215677   1.607   8.329  11.688  0.4505  1.5706  1.1496
 2237SOL     OW15678  11.525   8.457   4.097  0.3386 -0.1270 -0.2480
 2237SOL    HW115679  11.566   8.527   4.147  0.8923 -0.6009 -0.0197
 2237SOL    HW215680  11.439   8.491   4.073  0.0991  0.1474  0.9489
 2238SOL     OW15681   8.448   3.390   4.006  0.5293 -0.1986 -0.4956
 2238SOL    HW115682   8.457   3.417   4.098  1.2477  1.1644 -0.9445
 2238SOL    HW215683   8.353   3.388   3.991  0.4122 -0.1516  0.1926
 2239SOL     OW15684  12.260  11.445  10.463 -0.4401  0.1573  0.0126
 2239SOL    HW115685  12.302  11.360  10.481  0.5473  0.1010 -2.2362
 2239SOL    HW215686  12.314  11.508  10.511  0.9990 -0.1550 -1.1127
 2240SOL     OW15687   8.326   8.098   4.517  0.3095  0.5750 -0.2257
 2240SOL    HW115688   8.288   8.035   4.457 -1.4707  2.2814 -1.0176
 2240SOL    HW215689   8.267   8.097   4.593  0.1561  1.3799 -0.3265
 2241SOL     OW15690   3.153   0.285   2.397  0.5978 -0.1627 -0.0195
 2241SOL    HW115691   3.103   0.359   2.363 -2.1317 -1.3762  1.0374
 2241SOL    HW215692   3.187   0.315   2.481 -0.2051  0.0264  0.2466
 2242SOL     OW15693   0.165   5.543  10.430  0.5229  0.2365  0.1346
 2242SOL    HW115694   0.222   5.543  10.354  0.0619 -0.3357 -0.2176
 2242SOL    HW215695   0.219   5.505  10.500  0.8199  0.4104  0.0039
 2243SOL     OW15696   6.321   6.247  10.804  0.2755 -0.1314 -0.0182
 2243SOL    HW115697   6.328   6.287  10.717  0.4110 -1.0317 -0.4280
 2243SOL    HW215698   6.270   6.310  10.855  2.6250  1.8445  0.1256
 2244SOL     OW15699  10.966   0.971   2.264  0.0063 -0.5294  0.2627
 2244SOL    HW115700  10.896   0.908   2.285  0.4732 -0.6726  1.4665
 2244SOL    HW215701  10.926   1.057   2.280 -0.9854 -0.3915 -2.4190
 2245SOL     OW15702  10.852   6.271   7.859 -0.8401 -0.0962  0.1145
 2245SOL    HW115703  10.779   6.253   7.918 -1.1131  0.6914  0.0372
 2245SOL    HW215704  10.823   6.237   7.774 -1.1258  0.2212  0.0826
 2246SOL     OW15705  10.822  10.723   8.860  0.3586  0.3765 -0.4400
 2246SOL    HW115706  10.852  10.812   8.875  3.3300 -0.3232 -1.5831
 2246SOL    HW215707  10.737  10.733   8.816  0.5418  2.6108 -0.3890
 2247SOL     OW15708   2.956  11.109   0.754 -0.1793 -0.0387  0.5655
 2247SOL    HW115709   3.017  11.057   0.807 -0.7984 -0.1929  1.1436
 2247SOL    HW215710   2.984  11.200   0.767  0.6808 -0.1921 -0.1553
 2248SOL     OW15711  12.230  10.427   1.035  1.1004 -0.6504 -0.3368
 2248SOL    HW115712  12.293  10.373   1.081 -1.0997 -4.3634 -1.2870
 2248SOL    HW215713  12.186  10.367   0.975 -2.5626  1.8753 -0.5106
 2249SOL     OW15714   1.679   3.584  12.404  0.6136 -0.5669 -0.4732
 2249SOL    HW115715   1.716   3.639  12.335  1.0408 -1.4323 -0.9560
 2249SOL    HW215716   1.754   3.539  12.442  0.5308  0.7863  1.3959
 2250SOL     OW15717   5.852  10.163   4.561 -0.3328 -0.1218  0.0140
 2250SOL    HW115718   5.763  10.171   4.597 -0.9094 -0.9066 -1.2024
 2250SOL    HW215719   5.851  10.216   4.481  0.2614 -0.2522 -0.0882
 2251SOL     OW15720   4.874   0.825   4.373  0.3448 -0.3341  0.0115
 2251SOL    HW115721   4.848   0.916   4.388 -0.8616 -0.8147  1.0720
 2251SOL    HW215722   4.851   0.780   4.455  0.8780 -1.6009 -0.5080
 2252SOL     OW15723   1.379   7.375   6.395 -0.3596  0.3306 -0.0061
 2252SOL    HW115724   1.470   7.402   6.389 -0.6489  1.0978 -1.6139
 2252SOL    HW215725   1.335   7.423   6.324 -2.0349  0.0893  0.8106
 2253SOL     OW15726   4.204   3.431   7.441  0.6197 -0.6788  0.5751
 2253SOL    HW115727   4.204   3.335   7.433  0.7129 -0.7402  1.2348
 2253SOL    HW215728   4.206   3.447   7.536  2.2489 -0.0323  0.4652
 2254SOL     OW15729  11.257   6.348   5.966 -0.5778 -0.2448  0.1402
 2254SOL    HW115730  11.351   6.352   5.984 -0.8256  2.7199  1.3382
 2254SOL    HW215731  11.219   6.313   6.047 -0.5511 -1.6377 -0.4163
 2255SOL     OW15732   2.501   7.869   4.543  0.8887 -0.1259  0.0294
 2255SOL    HW115733   2.516   7.797   4.482  2.0249  1.0298 -1.1263
 2255SOL    HW215734   2.509   7.830   4.629  2.0355 -1.2999 -0.5724
 2256SOL     OW15735  11.952   0.500   1.529 -0.4047 -0.3290  0.3188
 2256SOL    HW115736  12.031   0.460   1.496 -0.4828 -0.6751  0.5479
 2256SOL    HW215737  11.939   0.577   1.474 -0.0302 -0.3897  0.1445
 2257SOL     OW15738   6.989  11.073   5.101 -0.0658  0.4248  0.4144
 2257SOL    HW115739   6.899  11.040   5.098 -0.4801  1.2014  2.7345
 2257SOL    HW215740   6.980  11.167   5.088  0.7361  0.2509 -2.0126
 2258SOL     OW15741   8.956   1.121  12.306  0.0238  0.3103  0.4939
 2258SOL    HW115742   8.907   1.175  12.243  1.7518  0.9791 -0.3372
 2258SOL    HW215743   9.038   1.099  12.260 -0.0693 -1.9801  1.2905
 2259SOL     OW15744   3.747   3.854   9.038  0.3462  1.0500 -0.6909
 2259SOL    HW115745   3.752   3.790   8.967 -0.0610  0.6140 -0.3388
 2259SOL    HW215746   3.824   3.836   9.092 -0.8760 -0.6250  0.6028
 2260SOL     OW15747   2.696   2.547   2.434  0.4304  0.6743 -0.3296
 2260SOL    HW115748   2.706   2.570   2.341  0.6651 -1.0669 -0.7839
 2260SOL    HW215749   2.777   2.577   2.475  1.7029 -1.1908 -1.3137
 2261SOL     OW15750  11.306  10.830   1.747  0.2032 -0.5107  0.3026
 2261SOL    HW115751  11.281  10.903   1.804  1.7505 -0.4732  0.9733
 2261SOL    HW215752  11.400  10.819   1.762  1.0457  0.5007 -3.3783
 2262SOL     OW15753  12.390   1.129   2.365 -0.3908 -0.3778 -0.6377
 2262SOL    HW115754  12.407   1.210   2.316 -2.0812 -0.1921 -0.9543
 2262SOL    HW215755  12.443   1.063   2.321  0.2016  0.3401 -1.0288
 2263SOL     OW15756   1.536   3.364   7.411 -0.2178  0.1817 -0.0120
 2263SOL    HW115757   1.548   3.277   7.447 -0.6948 -0.6686 -1.8009
 2263SOL    HW215758   1.546   3.353   7.316  1.5004  2.3805 -0.1741
 2264SOL     OW15759   3.951  10.850   9.611  0.4202 -0.5311 -0.6081
 2264SOL    HW115760   3.942  10.758   9.585  0.5406 -0.4705 -0.8746
 2264SOL    HW215761   4.028  10.852   9.668 -0.2477 -0.7804  0.3251
 2265SOL     OW15762   4.331   9.424  10.399 -0.3683  0.1576 -0.0905
 2265SOL    HW115763   4.359   9.467  10.318  0.7610 -1.0146 -0.3563
 2265SOL    HW215764   4.238   9.445  10.406 -0.5022  0.2646 -1.7067
 2266SOL     OW15765   1.092   0.922   4.444 -0.0708  0.1019 -0.1869
 2266SOL    HW115766   1.142   0.916   4.362  0.5250 -2.5326  0.2945
 2266SOL    HW215767   1.130   0.856   4.501 -3.0378 -0.9251  0.8018
 2267SOL     OW15768   8.148   4.041   3.271 -0.6469 -0.1163  0.5104
 2267SOL    HW115769   8.098   4.004   3.198  0.5696  0.3689 -0.6180
 2267SOL    HW215770   8.231   3.993   3.271 -0.4304  0.2459  1.2385
 2268SOL     OW15771   9.868   8.932   9.849  0.0003  0.5673 -0.5186
 2268SOL    HW115772   9.959   8.947   9.874  0.1414  0.7379 -1.1120
 2268SOL    HW215773   9.817   8.977   9.917  0.3406 -0.0040  0.1246
 2269SOL     OW15774   4.867   2.484   5.233  0.5709 -0.6235  0.2023
 2269SOL    HW115775   4.902   2.547   5.169  1.1435 -2.2480 -1.1371
 2269SOL    HW215776   4.940   2.470   5.294  0.1225  0.6953  1.1007
 2270SOL     OW15777   9.954   6.511  11.311  0.8613  0.4187  0.2870
 2270SOL    HW115778  10.032   6.566  11.319  0.4060  1.2639 -0.7788
 2270SOL    HW215779   9.889   6.568  11.270  0.1961 -0.7700 -0.3525
 2271SOL     OW15780  11.934   3.536   0.167  0.0913  0.7347 -0.5927
 2271SOL    HW115781  12.013   3.589   0.158  0.0839  0.6928 -0.9027
 2271SOL    HW215782  11.924   3.492   0.083  1.3335 -1.4767  0.3373
 2272SOL     OW15783  12.260   5.326  11.271  0.1999  0.5490 -0.4242
 2272SOL    HW115784  12.211   5.248  11.245  1.0065 -0.4664  0.9256
 2272SOL    HW215785  12.193   5.392  11.287 -1.1154 -1.3886  3.4385
 2273SOL     OW15786   7.391  10.336   2.570  0.1756  0.0373 -0.0579
 2273SOL    HW115787   7.423  10.426   2.562 -1.8053  0.6531 -2.0182
 2273SOL    HW215788   7.314  10.343   2.627  0.1051 -0.4736 -0.0837
 2274SOL     OW15789   9.873   7.519   3.294 -0.2373 -0.0941 -1.2622
 2274SOL    HW115790   9.951   7.464   3.293 -0.4085 -0.5398  1.2860
 2274SOL    HW215791   9.900   7.598   3.341 -1.1498  0.0253 -0.9187
 2275SOL     OW15792   0.762  10.448   2.147 -0.3612 -0.1950 -0.0345
 2275SOL    HW115793   0.730  10.498   2.072 -0.2440  0.2899  0.2404
 2275SOL    HW215794   0.783  10.362   2.110  0.3496  0.2501 -0.6969
 2276SOL     OW15795   2.542  10.893   7.043 -0.9880  0.0776  0.4447
 2276SOL    HW115796   2.518  10.817   7.095  2.5004 -0.6883  1.1928
 2276SOL    HW215797   2.630  10.873   7.010 -1.6180  2.0101 -2.9237
 2277SOL     OW15798   5.018  11.525   8.135 -0.0984  0.0019 -0.0900
 2277SOL    HW115799   4.984  11.594   8.191  1.1478  1.4220 -0.9940
 2277SOL    HW215800   4.940  11.479   8.103 -0.9583  0.9210  0.6200
 2278SOL     OW15801   9.331   4.825   8.778  0.2161  0.6182  0.0611
 2278SOL    HW115802   9.317   4.732   8.794  0.1852  0.5466 -0.3773
 2278SOL    HW215803   9.424   4.839   8.792  0.1534  0.6023  0.5159
 2279SOL     OW15804   9.584  10.947   1.894  0.5920  0.4518 -0.1652
 2279SOL    HW115805   9.515  10.937   1.959 -0.3442  1.4882 -0.9441
 2279SOL    HW215806   9.628  11.029   1.918  0.2498  0.8315 -0.8119
 2280SOL     OW15807  10.895   4.340   4.769  0.2355 -0.0812  0.1400
 2280SOL    HW115808  10.949   4.278   4.819  1.1392 -0.1939 -0.9408
 2280SOL    HW215809  10.831   4.285   4.725  0.3339 -0.1353  0.0632
 2281SOL     OW15810   7.399  12.309   0.257  0.0027 -0.0724  0.4185
 2281SOL    HW115811   7.465  12.241   0.275  0.8258  1.1337  2.2868
 2281SOL    HW215812   7.448  12.378   0.213 -0.0203  0.7337  1.6089
 2282SOL     OW15813   4.278  10.130   2.903 -0.5129  0.0408 -0.0027
 2282SOL    HW115814   4.361  10.120   2.857 -0.9733  1.3986 -1.1910
 2282SOL    HW215815   4.271  10.052   2.957  1.2090 -0.4239 -0.3991
 2283SOL     OW15816   0.394   8.586   5.368  0.0800 -0.0806 -1.0628
 2283SOL    HW115817   0.423   8.539   5.446  0.4700  1.6408 -0.1030
 2283SOL    HW215818   0.302   8.608   5.386 -0.4322 -1.3353 -1.9738
 2284SOL     OW15819   1.857   2.430   4.209  0.4469 -0.0966 -0.1939
 2284SOL    HW115820   1.853   2.357   4.270 -2.4882  0.6343  0.6520
 2284SOL    HW215821   1.900   2.394   4.131 -1.2487 -2.8887  0.0148
 2285SOL     OW15822   7.866   4.021   4.034  0.4729  0.3045 -0.3380
 2285SOL    HW115823   7.839   3.966   4.107 -1.2874  0.1619 -1.0531
 2285SOL    HW215824   7.911   4.095   4.074  0.1906 -0.1418  0.8202
 2286SOL     OW15825  11.648   7.622   2.066  0.7471  0.1224  0.1289
 2286SOL    HW115826  11.670   7.715   2.062  2.1076 -0.1615  0.5821
 2286SOL    HW215827  11.633   7.604   2.159 -1.0694  0.2112 -0.1223
 2287SOL     OW15828   5.887  11.246   6.763  0.1627 -0.2320  0.6237
 2287SOL    HW115829   5.941  11.304   6.816 -1.3345  0.5234  1.3979
 2287SOL    HW215830   5.865  11.299   6.685 -1.8157  0.6076  1.6727
 2288SOL     OW15831   2.394   9.823   2.251  0.9029 -0.3094  0.4586
 2288SOL    HW115832   2.448   9.805   2.328 -1.3481 -1.5668  1.8649
 2288SOL    HW215833   2.304   9.823   2.284 -0.0643  0.7075 -1.9181
 2289SOL     OW15834   7.824  10.354  10.433  0.0578  0.0700  0.3115
 2289SOL    HW115835   7.916  10.328  10.427  0.1021  0.0314  0.9888
 2289SOL    HW215836   7.788  10.296  10.501  0.3409  2.2309  2.4395
 2290SOL     OW15837  11.667   3.714   6.506  0.0193 -0.1827  0.9623
 2290SOL    HW115838  11.708   3.634   6.474  1.5557 -0.4126  3.2590
 2290SOL    HW215839  11.648   3.765   6.427  2.0827 -1.3683 -0.3840
 2291SOL     OW15840   5.204   7.244   5.545  0.5585  0.2664 -0.6383
 2291SOL    HW115841   5.205   7.159   5.589 -0.3524  1.2786  1.4918
 2291SOL    HW215842   5.259   7.300   5.600 -1.4215  1.8496 -0.1795
 2292SOL     OW15843   0.451  10.862   6.213  0.0209 -0.0298  0.1284
 2292SOL    HW115844   0.432  10.948   6.250  1.5313  0.1297  0.5991
 2292SOL    HW215845   0.472  10.879   6.121  2.4061  0.4467  0.6947
 2293SOL     OW15846   1.943   8.917   4.405  0.1912  0.0970  0.3829
 2293SOL    HW115847   1.864   8.963   4.375  0.2187  0.4064  0.7753
 2293SOL    HW215848   1.982   8.881   4.325 -0.2761  0.0541  0.1719
 2294SOL     OW15849   4.865   3.378   3.818 -0.0649 -0.7061 -0.1929
 2294SOL    HW115850   4.865   3.293   3.774  0.3249 -2.0237  2.2009
 2294SOL    HW215851   4.889   3.358   3.908  0.0047  1.9698  0.4505
 2295SOL     OW15852   6.523  11.385   8.099  0.2526 -0.0907  0.1572
 2295SOL    HW115853   6.586  11.381   8.027  0.7952  0.2142  0.6032
 2295SOL    HW215854   6.441  11.352   8.062  0.5467 -0.0138 -0.5746
 2296SOL     OW15855  10.508   8.345   5.083 -0.0244 -0.1986  0.3617
 2296SOL    HW115856  10.452   8.283   5.036 -0.1141  0.6815 -0.7139
 2296SOL    HW215857  10.466   8.430   5.069  0.9745  0.3175  0.4801
 2297SOL     OW15858  10.906   8.744   4.738 -0.0438 -0.1421  0.4673
 2297SOL    HW115859  10.968   8.704   4.677 -0.5935  1.2995 -1.1131
 2297SOL    HW215860  10.842   8.787   4.682 -1.8168 -0.5571  2.0592
 2298SOL     OW15861   6.997  12.533   8.707  0.2191  0.2785  0.4678
 2298SOL    HW115862   7.069  12.494   8.758  0.5464  0.2281 -0.0252
 2298SOL    HW215863   6.963  12.461   8.655  1.9067  0.9225 -1.7059
 2299SOL     OW15864  11.538  10.224   0.184  0.1047  0.1493 -0.0201
 2299SOL    HW115865  11.538  10.147   0.240 -1.2498  0.3806  0.3249
 2299SOL    HW215866  11.627  10.228   0.150  1.1206  0.2632  2.4447
 2300SOL     OW15867   3.654  10.426   5.396  0.1125 -0.2415  0.0749
 2300SOL    HW115868   3.720  10.492   5.417  0.3694 -0.7820  1.0415
 2300SOL    HW215869   3.693  10.344   5.425 -0.2846 -0.7944 -0.9333
 2301SOL     OW15870  10.297   5.446   6.451  0.1018  0.2156 -0.1131
 2301SOL    HW115871  10.293   5.353   6.472  0.2225  0.1996 -0.1633
 2301SOL    HW215872  10.251   5.454   6.367  0.6291  0.1132 -0.4095
 2302SOL     OW15873   1.940   1.946   0.475 -0.6945 -0.1153 -0.7396
 2302SOL    HW115874   1.994   2.021   0.454  0.1619  0.0095  1.5967
 2302SOL    HW215875   1.972   1.876   0.418  0.6552  0.4699 -0.7364
 2303SOL     OW15876   8.953   6.049   3.125  0.3891 -0.5453  0.4209
 2303SOL    HW115877   9.020   6.112   3.099 -1.6584  0.7853 -2.1256
 2303SOL    HW215878   8.985   5.965   3.093  1.6656 -0.2870  0.9530
 2304SOL     OW15879   0.603   7.180   5.049  0.0733  0.2695 -0.2505
 2304SOL    HW115880   0.670   7.198   5.115 -0.1812 -0.0090  0.0848
 2304SOL    HW215881   0.570   7.267   5.024  1.5856  0.5358 -1.5081
 2305SOL     OW15882   9.561   4.832   5.950 -0.4502 -0.1821 -0.0416
 2305SOL    HW115883   9.521   4.841   5.863 -0.8602 -0.3862  0.1219
 2305SOL    HW215884   9.654   4.821   5.933 -0.4497  0.3874 -0.4292
 2306SOL     OW15885   7.905   9.400  10.405 -0.6634  0.0369  0.8598
 2306SOL    HW115886   7.815   9.416  10.433 -0.5546 -1.2933  2.1167
 2306SOL    HW215887   7.940   9.339  10.471  1.1914  0.6049  0.4695
 2307SOL     OW15888   5.793  10.885   9.368  0.0380  0.5557 -0.0107
 2307SOL    HW115889   5.786  10.962   9.423 -0.5076  0.2869  0.2994
 2307SOL    HW215890   5.764  10.914   9.282  0.8969  0.9757 -0.1670
 2308SOL     OW15891   0.776  11.953   0.127  0.3373 -0.2005 -0.2974
 2308SOL    HW115892   0.756  12.019   0.194  1.0548  0.1678 -0.4359
 2308SOL    HW215893   0.870  11.965   0.109  0.3781 -0.9771 -0.6320
 2309SOL     OW15894   3.629   6.479   4.606  0.3759 -0.3213  0.0836
 2309SOL    HW115895   3.578   6.560   4.608 -0.1998 -0.6873  0.6623
 2309SOL    HW215896   3.695   6.494   4.538 -1.3771 -0.3574 -1.7026
 2310SOL     OW15897   6.299   5.831   1.962 -0.2355 -0.3782  0.3918
 2310SOL    HW115898   6.229   5.768   1.978 -0.4288 -0.7213 -1.5537
 2310SOL    HW215899   6.364   5.783   1.911  0.5024  0.4832  0.4979
 2311SOL     OW15900   8.519   2.001   0.703  0.2175 -0.0435  0.3567
 2311SOL    HW115901   8.573   2.045   0.638  0.3030  1.5848  1.4644
 2311SOL    HW215902   8.568   2.010   0.785 -0.2673 -1.3369  0.8244
 2312SOL     OW15903  10.633  10.297   2.243 -0.1205 -0.2426 -0.3546
 2312SOL    HW115904  10.691  10.299   2.167 -1.2186 -1.0353 -1.2427
 2312SOL    HW215905  10.650  10.211   2.283  1.0812  0.5052  0.8410
 2313SOL     OW15906   7.228   3.363   3.957 -0.0477  1.0013  0.2135
 2313SOL    HW115907   7.180   3.372   3.875 -0.8164  0.0889  0.5482
 2313SOL    HW215908   7.163   3.331   4.020  1.2076 -1.3608  0.4112
 2314SOL     OW15909   5.151  11.952   1.384  0.5513 -0.8205  0.0297
 2314SOL    HW115910   5.210  11.881   1.358  0.1204 -0.7036 -1.3536
 2314SOL    HW215911   5.199  11.999   1.452  0.0953 -3.5456  2.4654
 2315SOL     OW15912   2.013  10.983  10.240 -0.0578  0.0384  0.5046
 2315SOL    HW115913   2.100  10.947  10.222  0.0947  0.4625  0.3770
 2315SOL    HW215914   1.976  11.001  10.154 -0.4511 -0.5426  0.5442
 2316SOL     OW15915   0.519   0.524  10.602 -0.1225 -0.7695  0.0337
 2316SOL    HW115916   0.542   0.455  10.540 -1.3587 -0.1362 -1.1839
 2316SOL    HW215917   0.454   0.577  10.556 -1.4195 -0.5205  2.0117
 2317SOL     OW15918   1.043   3.704   5.474 -1.0345 -0.1960  0.6618
 2317SOL    HW115919   1.130   3.737   5.495 -1.3130 -0.5599  2.5102
 2317SOL    HW215920   1.004   3.682   5.558 -1.3728 -4.0230 -0.3409
 2318SOL     OW15921   8.519   6.062   3.954 -0.2184  0.1438 -0.1560
 2318SOL    HW115922   8.545   6.078   4.045  0.7045 -1.0241 -0.1977
 2318SOL    HW215923   8.442   6.005   3.961 -0.9744  1.1305 -0.1058
 2319SOL     OW15924   0.227   1.543   6.174 -0.2771  0.4959 -0.1996
 2319SOL    HW115925   0.318   1.570   6.165  0.0543 -0.3576  0.3857
 2319SOL    HW215926   0.230   1.471   6.238 -1.1583 -0.6200 -1.3601
 2320SOL     OW15927   4.002   2.772   0.553  0.2497  0.4147 -0.0659
 2320SOL    HW115928   4.005   2.680   0.581 -0.5800  0.7691  1.2197
 2320SOL    HW215929   4.090   2.805   0.571  0.7731 -0.3002 -1.2037
 2321SOL     OW15930   5.611   3.786   8.918  0.0707 -0.8758 -0.0388
 2321SOL    HW115931   5.676   3.855   8.933 -2.4693  1.8762 -0.5074
 2321SOL    HW215932   5.633   3.750   8.832  1.0468 -0.0957 -0.1312
 2322SOL     OW15933   0.512   1.071   6.025  0.2188 -0.6020  0.2727
 2322SOL    HW115934   0.464   0.992   6.048 -0.9062  0.1984  0.8067
 2322SOL    HW215935   0.603   1.052   6.046 -0.1109 -1.5864  0.8448
 2323SOL     OW15936   8.880   9.260   4.727 -0.3371  0.1148  1.0506
 2323SOL    HW115937   8.911   9.274   4.638 -0.5369  0.7264  1.0672
 2323SOL    HW215938   8.954   9.218   4.772  1.5384  3.6375  1.7251
 2324SOL     OW15939  10.353  11.348   8.451 -0.7462 -0.2270  0.5088
 2324SOL    HW115940  10.390  11.264   8.425 -0.8826 -0.2476  0.3797
 2324SOL    HW215941  10.308  11.380   8.373  1.4056  1.1555 -0.2439
 2325SOL     OW15942   7.229   7.777   1.672  0.2057 -0.0437 -0.4492
 2325SOL    HW115943   7.210   7.694   1.715 -0.5640  0.1845 -0.3324
 2325SOL    HW215944   7.172   7.777   1.595  0.4585  0.2188 -0.6336
 2326SOL     OW15945  10.124  12.327  11.099  0.2209 -0.8837 -0.1772
 2326SOL    HW115946  10.108  12.371  11.182  1.2151 -0.5494 -0.1524
 2326SOL    HW215947  10.038  12.294  11.072 -0.9933  2.6193 -1.0981
 2327SOL     OW15948   1.606   8.898   3.800 -0.8312 -0.6116 -0.8675
 2327SOL    HW115949   1.633   8.874   3.712 -1.7668 -0.8516 -1.0966
 2327SOL    HW215950   1.525   8.850   3.815 -1.1809  0.1488 -0.2267
 2328SOL     OW15951   9.201   3.647   7.538 -0.4354  0.4593 -0.9603
 2328SOL    HW115952   9.200   3.551   7.534 -0.5470  0.1465  2.7479
 2328SOL    HW215953   9.294   3.669   7.540 -0.2892 -0.0033  1.8236
 2329SOL     OW15954   2.416   0.700   7.481  0.3162  0.5739  1.1133
 2329SOL    HW115955   2.349   0.706   7.413  1.4830  1.5432 -0.0053
 2329SOL    HW215956   2.406   0.780   7.531 -1.3088 -0.6630  2.8990
 2330SOL     OW15957   7.890   2.929   5.585  0.4066 -0.1277  0.1363
 2330SOL    HW115958   7.876   2.837   5.604 -0.4572 -0.1464 -0.5164
 2330SOL    HW215959   7.802   2.964   5.571  0.8119 -0.2993 -4.4752
 2331SOL     OW15960   0.180   6.259   1.294  0.1077 -0.2947  0.7544
 2331SOL    HW115961   0.104   6.293   1.247 -0.3191  0.5937  2.0337
 2331SOL    HW215962   0.244   6.330   1.289  0.0203 -0.1458  1.5719
 2332SOL     OW15963  10.537   9.547   6.908  0.3160  0.7587 -0.4571
 2332SOL    HW115964  10.558   9.455   6.892  0.8511  0.5332  1.3126
 2332SOL    HW215965  10.543   9.588   6.821 -0.1113 -0.8794 -1.3098
 2333SOL     OW15966   2.565   4.835   0.004 -0.5262  0.6926 -0.2623
 2333SOL    HW115967   2.525   4.857   0.088 -1.3933 -0.9890 -0.1931
 2333SOL    HW215968   2.630   4.903  -0.010 -1.3909  1.8481  1.0537
 2334SOL     OW15969  10.924  10.028   5.384 -0.2159 -0.0422  0.0698
 2334SOL    HW115970  10.879   9.968   5.325 -0.2079 -0.1500  0.1733
 2334SOL    HW215971  10.975   9.972   5.442  0.4696  0.0965 -0.3847
 2335SOL     OW15972   3.124   0.634   1.524 -0.8296 -0.3017 -0.2373
 2335SOL    HW115973   3.106   0.713   1.473  0.0364 -1.1828 -2.0112
 2335SOL    HW215974   3.050   0.627   1.584 -0.8220  1.9382  0.1064
 2336SOL     OW15975   2.441   4.964   6.623  0.2679  0.2554  0.1735
 2336SOL    HW115976   2.367   5.010   6.582 -1.2750 -0.2772  2.2050
 2336SOL    HW215977   2.421   4.871   6.612  0.3376  0.1038  1.1869
 2337SOL     OW15978   0.081   7.310   5.839 -0.2362  0.5638  0.2151
 2337SOL    HW115979   0.094   7.356   5.756 -0.8391  0.9799  0.3461
 2337SOL    HW215980   0.074   7.217   5.814  3.8203  0.0510  0.1802
 2338SOL     OW15981  10.825   4.281  11.038  0.0017 -0.2796 -0.0167
 2338SOL    HW115982  10.765   4.222  10.992 -0.0805 -0.0532 -0.2021
 2338SOL    HW215983  10.909   4.236  11.036 -0.1932 -0.6749  0.3854
 2339SOL     OW15984  11.943   1.083  12.243  0.6117  0.4522 -0.0502
 2339SOL    HW115985  11.908   1.150  12.185  1.0262  1.0916  0.4213
 2339SOL    HW215986  11.971   1.012  12.185  3.2764  2.0655 -0.8934
 2340SOL     OW15987   2.853   9.172   0.007 -0.3606  0.2131 -0.1993
 2340SOL    HW115988   2.817   9.234  -0.056 -0.8466  1.7032  1.4634
 2340SOL    HW215989   2.895   9.227   0.073  0.5376 -1.3105  0.5392
 2341SOL     OW15990   5.901  11.190   1.582  0.0282  0.1563 -0.1829
 2341SOL    HW115991   5.975  11.249   1.598  1.1103 -0.2763 -3.0566
 2341SOL    HW215992   5.936  11.103   1.599 -0.0198  0.0049 -0.8319
 2342SOL     OW15993   9.319   0.549   9.579 -0.0395  0.3579 -0.3988
 2342SOL    HW115994   9.361   0.463   9.568 -2.0224 -1.0142  1.7837
 2342SOL    HW215995   9.392   0.611   9.582  1.6257 -1.5051  0.1113
 2343SOL     OW15996  12.095   2.892   3.157  0.1600  0.2587  0.6439
 2343SOL    HW115997  12.033   2.821   3.171  0.2120  0.1870  0.5091
 2343SOL    HW215998  12.088   2.946   3.236 -1.1013  1.0331  0.0328
 2344SOL     OW15999   9.698   6.833   6.779  0.1636  0.3349  0.2242
 2344SOL    HW116000   9.759   6.842   6.852 -0.2027  1.3234  0.4282
 2344SOL    HW216001   9.648   6.915   6.780 -1.9841 -0.9110  0.7933
 2345SOL     OW16002   1.969   1.327   2.868 -0.3762 -0.0407  0.0549
 2345SOL    HW116003   2.024   1.279   2.806 -0.9507 -1.2534  0.4484
 2345SOL    HW216004   1.898   1.363   2.814  0.4636  1.0332 -0.3597
 2346SOL     OW16005   1.230   2.008  12.046  0.4939 -0.0435 -0.3323
 2346SOL    HW116006   1.216   2.094  12.008  2.2820  0.6868  0.5384
 2346SOL    HW216007   1.290   1.964  11.986  1.0717  0.0493  0.1640
 2347SOL     OW16008   3.270  10.782   4.092  0.0147  0.3012 -0.5068
 2347SOL    HW116009   3.290  10.859   4.146  0.4538 -1.8360  2.6230
 2347SOL    HW216010   3.176  10.788   4.076 -0.0620  1.2021  0.1567
 2348SOL     OW16011   4.914   9.466   6.780  0.5539  0.0604 -0.0348
 2348SOL    HW116012   4.873   9.553   6.781  0.3176 -0.0507  0.2001
 2348SOL    HW216013   4.935   9.448   6.872  3.0059  0.9721 -0.3560
 2349SOL     OW16014   5.006  10.095  10.691 -0.3579 -0.4738 -0.7560
 2349SOL    HW116015   4.916  10.089  10.722  0.3822  1.3349  2.2800
 2349SOL    HW216016   5.058  10.052  10.759  1.1177 -1.3952 -2.3740
 2350SOL     OW16017   8.281   2.290   0.639 -0.3365 -0.4811 -0.0522
 2350SOL    HW116018   8.208   2.342   0.671  0.0309 -0.6484  1.1068
 2350SOL    HW216019   8.247   2.201   0.633 -0.2636 -0.5448  0.4136
 2351SOL     OW16020   6.102   8.723  10.992  0.0473 -0.4676  0.1848
 2351SOL    HW116021   6.143   8.807  10.970 -1.4057 -0.1662 -1.7096
 2351SOL    HW216022   6.149   8.659  10.939  0.3194 -0.6543  0.6519
 2352SOL     OW16023   4.454   0.705   9.001 -0.2293 -0.0390  0.1742
 2352SOL    HW116024   4.525   0.661   9.050  0.0337 -1.0606 -1.0669
 2352SOL    HW216025   4.476   0.690   8.909 -2.0266 -0.3223 -0.2444
 2353SOL     OW16026   9.674   8.278  10.406  0.8792 -0.0332 -0.4530
 2353SOL    HW116027   9.617   8.327  10.347 -0.3766 -0.1851  0.5789
 2353SOL    HW216028   9.666   8.187  10.376 -0.7199 -0.2940  0.6350
 2354SOL     OW16029   9.975   4.981   5.077 -0.3275  0.4896  0.1576
 2354SOL    HW116030   9.907   4.978   5.010  1.1210  3.3540 -1.6250
 2354SOL    HW216031   9.945   5.049   5.138 -1.0065 -1.2027  1.8250
 2355SOL     OW16032  10.464   8.179   9.305  0.0005 -0.0470  0.3701
 2355SOL    HW116033  10.445   8.258   9.253 -0.0145 -0.5167 -0.3546
 2355SOL    HW216034  10.553   8.192   9.336  0.2754 -0.0733 -0.3783
 2356SOL     OW16035   0.240   6.389   3.058 -0.0305  0.1033  0.3412
 2356SOL    HW116036   0.209   6.309   3.101 -1.5224  1.5220  2.0559
 2356SOL    HW216037   0.310   6.421   3.114  1.7386 -0.7813 -1.2266
 2357SOL     OW16038   5.994   8.393   5.836 -0.0358  0.7277 -0.2214
 2357SOL    HW116039   6.024   8.348   5.914  0.0311  1.8474  0.4202
 2357SOL    HW216040   6.073   8.433   5.799 -0.0381  0.0874 -0.9644
 2358SOL     OW16041  11.160   4.969   8.032  0.0220  0.5139  0.1802
 2358SOL    HW116042  11.120   4.904   7.976  1.4735 -0.3941  0.1314
 2358SOL    HW216043  11.147   5.052   7.987 -0.5039  0.0551 -0.5230
 2359SOL     OW16044   0.608   3.236   2.321  0.6784  0.5050 -0.3886
 2359SOL    HW116045   0.546   3.301   2.353  1.6789  0.4593  1.7729
 2359SOL    HW216046   0.553   3.161   2.298 -0.0352 -0.1973  3.1414
 2360SOL     OW16047   4.891   8.174   2.788  0.4282  0.8455  0.6812
 2360SOL    HW116048   4.837   8.232   2.734  0.1606  0.2958  0.3451
 2360SOL    HW216049   4.838   8.157   2.865  0.9768  1.9644  1.3448
 2361SOL     OW16050  10.347   8.773  10.322  0.2517  0.3508  0.2628
 2361SOL    HW116051  10.349   8.850  10.379  0.3515  0.2981  0.3303
 2361SOL    HW216052  10.434   8.734  10.330  1.2807  1.8988 -2.0759
 2362SOL     OW16053   1.114   1.003   0.626  0.2864  0.3708  0.5029
 2362SOL    HW116054   1.159   1.088   0.621 -0.0386  0.5355  0.3638
 2362SOL    HW216055   1.169   0.944   0.574  1.9283 -0.1470  2.6706
 2363SOL     OW16056  11.153   7.439   3.326 -0.5505  0.5405  0.0453
 2363SOL    HW116057  11.151   7.345   3.306 -1.0785  0.3500  0.9200
 2363SOL    HW216058  11.065   7.457   3.360 -0.5370  1.4122 -0.3729
 2364SOL     OW16059   7.274   9.451   7.263  0.9933  0.7985  0.0579
 2364SOL    HW116060   7.287   9.385   7.332 -0.3596  0.9492  0.4731
 2364SOL    HW216061   7.218   9.517   7.303  0.2763  0.9445 -1.1390
 2365SOL     OW16062   4.490   4.139   1.225  0.4847 -0.5638 -0.5887
 2365SOL    HW116063   4.478   4.045   1.240 -0.2167 -0.2951  0.6608
 2365SOL    HW216064   4.413   4.180   1.265  0.8802  0.5670 -0.9424
 2366SOL     OW16065   6.438  11.825   9.440 -1.0559  0.3152  0.3404
 2366SOL    HW116066   6.474  11.824   9.351 -0.0781  2.7370  0.6256
 2366SOL    HW216067   6.351  11.865   9.429 -1.8673 -1.3876  0.2433
 2367SOL     OW16068   1.746   3.344   4.249 -0.2986  0.2833 -0.2902
 2367SOL    HW116069   1.721   3.325   4.339  1.2719  0.8994  0.3153
 2367SOL    HW216070   1.792   3.265   4.220  2.4697  1.3740  0.7763
 2368SOL     OW16071   3.831   1.294  11.976 -0.0895 -0.7842 -0.3099
 2368SOL    HW116072   3.834   1.389  11.966  0.4625 -0.7976 -0.3351
 2368SOL    HW216073   3.820   1.260  11.887 -0.4106 -0.7430 -0.2875
 2369SOL     OW16074   9.912   7.767   2.156 -0.4915 -0.3837 -0.1184
 2369SOL    HW116075   9.941   7.810   2.076 -0.1583 -0.3103  0.0391
 2369SOL    HW216076   9.897   7.838   2.218 -1.7000 -0.3667 -0.4098
 2370SOL     OW16077   8.978   4.714   1.395 -0.6054 -0.0758 -0.1698
 2370SOL    HW116078   8.956   4.621   1.394 -1.1427  0.0420 -1.0169
 2370SOL    HW216079   9.046   4.722   1.461 -0.4384 -1.0935 -0.1975
 2371SOL     OW16080   8.339   0.641  11.055  0.2656 -0.2842  0.2343
 2371SOL    HW116081   8.286   0.579  11.004 -1.2505 -0.0929  1.4973
 2371SOL    HW216082   8.425   0.600  11.061 -0.5229 -1.9966  0.4996
 2372SOL     OW16083   5.276   5.551   2.775 -0.2146  0.2826  0.5053
 2372SOL    HW116084   5.361   5.508   2.769  0.3939  1.3616  1.0127
 2372SOL    HW216085   5.283   5.627   2.716 -1.6105 -0.8069 -1.1633
 2373SOL     OW16086   5.072   5.569   1.905  0.5749  0.3327  0.5474
 2373SOL    HW116087   5.113   5.512   1.970  0.1291 -0.0582  0.4973
 2373SOL    HW216088   4.998   5.608   1.950 -0.8478 -1.3436 -0.1924
 2374SOL     OW16089  11.715   9.643  10.903  0.0899  0.4961  0.4967
 2374SOL    HW116090  11.658   9.623  10.829 -1.4964  3.8901  0.6458
 2374SOL    HW216091  11.779   9.705  10.869  1.5238 -0.4877  1.2443
 2375SOL     OW16092   3.410   1.467  10.103 -0.5903 -0.3038 -0.3724
 2375SOL    HW116093   3.490   1.519  10.101 -1.4423  1.0818  0.1942
 2375SOL    HW216094   3.388   1.452  10.011 -1.7807  2.7165 -0.6933
 2376SOL     OW16095  10.413  10.147   7.195  0.3914 -0.1046 -0.2983
 2376SOL    HW116096  10.324  10.127   7.165  1.3749 -2.3531 -2.0173
 2376SOL    HW216097  10.414  10.122   7.287 -0.9223  0.6581 -0.0503
 2377SOL     OW16098   2.117  12.265   4.874  0.1670  0.1251 -0.0912
 2377SOL    HW116099   2.087  12.197   4.813  0.1982 -1.9254  2.0141
 2377SOL    HW216100   2.169  12.325   4.820  0.2840 -1.6247 -2.0539
 2378SOL     OW16101   6.359   9.354   7.899  0.8109 -0.6342  0.6383
 2378SOL    HW116102   6.306   9.326   7.974 -0.2928  1.9908  0.9608
 2378SOL    HW216103   6.422   9.416   7.936  0.2534  0.6959 -0.5428
 2379SOL     OW16104   7.658  10.306   4.948 -0.1053  0.6725  1.0458
 2379SOL    HW116105   7.565  10.310   4.973 -0.1094  1.1980  0.9484
 2379SOL    HW216106   7.659  10.256   4.867 -0.5950  2.8096 -0.3388
 2380SOL     OW16107   4.934   7.346   8.230  0.0742  0.2820 -0.1082
 2380SOL    HW116108   4.898   7.298   8.305 -1.0859  0.0498 -0.7910
 2380SOL    HW216109   4.887   7.430   8.231  0.6532  0.6078 -0.0945
 2381SOL     OW16110   6.430   8.692   7.833  0.0806  0.0530  0.0753
 2381SOL    HW116111   6.509   8.747   7.830 -0.8638  1.5378  1.0875
 2381SOL    HW216112   6.437   8.645   7.916  0.3914 -0.6427 -0.3293
 2382SOL     OW16113   5.723   3.191   5.258 -0.0900 -0.2761  0.1367
 2382SOL    HW116114   5.730   3.130   5.184 -1.4731 -0.4330  0.1089
 2382SOL    HW216115   5.673   3.143   5.324  0.2356  0.2432  0.7709
 2383SOL     OW16116   0.903   6.689   5.188  0.8036 -0.2101  0.1522
 2383SOL    HW116117   0.912   6.621   5.120 -1.4597  0.0966 -0.5438
 2383SOL    HW216118   0.975   6.749   5.170  0.9920 -0.7880 -1.2229
 2384SOL     OW16119   8.311  11.895   8.611 -0.0346  0.0149 -0.2718
 2384SOL    HW116120   8.350  11.974   8.574 -0.0829  0.7010  1.0618
 2384SOL    HW216121   8.360  11.823   8.572  1.0288  0.7646 -0.3708
 2385SOL     OW16122   6.967   7.416   4.304 -0.0794  0.1609 -0.3764
 2385SOL    HW116123   6.891   7.386   4.255 -0.1672 -0.5989  0.2030
 2385SOL    HW216124   6.993   7.340   4.356  0.1644  0.8570  0.5494
 2386SOL     OW16125   7.769  11.881   9.718 -0.2302 -0.1847 -0.1195
 2386SOL    HW116126   7.674  11.872   9.727 -0.2750  0.1521 -0.2357
 2386SOL    HW216127   7.793  11.821   9.648 -0.4750  0.3522 -0.6681
 2387SOL     OW16128   8.664   8.688   2.818 -0.2212 -1.0755 -0.1299
 2387SOL    HW116129   8.581   8.733   2.805  0.3489 -0.5316 -2.4745
 2387SOL    HW216130   8.728   8.758   2.831  0.2045 -1.3530 -0.6552
 2388SOL     OW16131   5.144   3.871   3.991 -0.4025  0.6323  0.2615
 2388SOL    HW116132   5.125   3.825   4.073 -1.0191  1.2880  0.5045
 2388SOL    HW216133   5.239   3.868   3.984 -0.4200 -0.6104  0.2933
 2389SOL     OW16134   5.563   9.303  12.478  0.6208  0.0324 -0.2601
 2389SOL    HW116135   5.562   9.221  12.428  1.7075  0.4791 -1.0398
 2389SOL    HW216136   5.612   9.282  12.557  0.1957 -0.2722 -0.0696
 2390SOL     OW16137   8.257  10.474   9.029 -0.5687 -0.4260  0.3757
 2390SOL    HW116138   8.170  10.440   9.048 -0.3152 -1.0345  0.4727
 2390SOL    HW216139   8.264  10.555   9.079 -1.2680 -0.1057 -0.0365
 2391SOL     OW16140  10.692  11.132   5.374 -0.1152 -0.1604 -0.1712
 2391SOL    HW116141  10.779  11.140   5.413  0.5296 -2.8425 -0.8585
 2391SOL    HW216142  10.703  11.159   5.283  0.0397 -0.6666 -0.3025
 2392SOL     OW16143   8.302   3.535   5.595 -0.6543 -0.1738 -0.3412
 2392SOL    HW116144   8.308   3.467   5.663 -1.1295  0.4323  0.3140
 2392SOL    HW216145   8.376   3.517   5.537 -0.9543 -1.4527 -0.3618
 2393SOL     OW16146  11.386   0.458   0.968 -0.0126  0.8792 -0.4213
 2393SOL    HW116147  11.359   0.393   0.903 -0.6012 -0.5552  1.2189
 2393SOL    HW216148  11.482   0.458   0.963  0.1986 -2.1412  1.3778
 2394SOL     OW16149  10.488   8.139   5.914 -0.4825  0.1526 -0.1880
 2394SOL    HW116150  10.463   8.188   5.992 -1.7553  0.7170 -0.9147
 2394SOL    HW216151  10.550   8.073   5.946 -0.8053  0.5057  1.2504
 2395SOL     OW16152   6.092   8.974   4.719 -0.0983  0.2023 -0.2038
 2395SOL    HW116153   6.123   8.894   4.761  0.5822  0.6782  0.2053
 2395SOL    HW216154   6.080   8.949   4.627 -1.4910 -0.8069  0.2237
 2396SOL     OW16155   6.148  12.475   6.390  0.2922  0.0085  0.7700
 2396SOL    HW116156   6.234  12.467   6.348 -0.1535 -1.7993  0.1010
 2396SOL    HW216157   6.109  12.551   6.349  0.5714 -0.6890 -0.8754
 2397SOL     OW16158   3.753   9.028   3.088  0.1252 -0.1510  0.0010
 2397SOL    HW116159   3.675   9.081   3.071  0.2085  0.7242  2.1340
 2397SOL    HW216160   3.741   8.995   3.177  1.5572 -1.1587 -0.1415
 2398SOL     OW16161   1.469  11.983  10.659  0.2374 -0.2274  0.3074
 2398SOL    HW116162   1.441  11.969  10.569  0.0443 -0.8365  0.4554
 2398SOL    HW216163   1.409  12.050  10.693  0.5666  0.2957 -0.1303
 2399SOL     OW16164   9.836  11.035   3.804  0.2043  0.4049 -0.3583
 2399SOL    HW116165   9.826  10.969   3.872  0.4162  0.8827  0.1498
 2399SOL    HW216166   9.931  11.046   3.795  0.2798 -1.4320 -2.4986
 2400SOL     OW16167   8.157  12.254  10.946  0.6118 -0.0011 -0.0931
 2400SOL    HW116168   8.238  12.222  10.907  0.6433  1.4391 -1.3223
 2400SOL    HW216169   8.175  12.256  11.040  2.1792  0.6596 -0.3577
 2401SOL     OW16170   1.826   3.185   4.578 -0.3284  0.0406  0.2658
 2401SOL    HW116171   1.789   3.266   4.544 -0.4310  0.5203  1.4600
 2401SOL    HW216172   1.768   3.116   4.546 -1.8192  0.6982  1.3944
 2402SOL     OW16173  10.711   6.574  10.803 -0.4452  0.3889  0.0040
 2402SOL    HW116174  10.781   6.598  10.864 -1.2892  1.4810  0.5738
 2402SOL    HW216175  10.630   6.583  10.854 -1.0590 -0.1405 -0.8475
 2403SOL     OW16176   8.305  12.543   2.460  0.2997 -0.2716 -0.0243
 2403SOL    HW116177   8.257  12.625   2.453  1.7514  0.7148  1.0544
 2403SOL    HW216178   8.297  12.518   2.552 -0.0655 -1.3026 -0.3255
 2404SOL     OW16179   8.461   0.123  11.899 -0.1294 -0.5081 -0.4639
 2404SOL    HW116180   8.455   0.170  11.816 -0.8729 -1.1952 -0.8120
 2404SOL    HW216181   8.371   0.113  11.928  0.2038  1.6038  1.5394
 2405SOL     OW16182   6.220   9.563   9.597 -0.2511  0.0507  0.3631
 2405SOL    HW116183   6.231   9.487   9.540 -2.1425  0.5348 -0.7252
 2405SOL    HW216184   6.133   9.553   9.635 -0.7164  1.8346 -0.1118
 2406SOL     OW16185  10.169   2.523   3.892 -0.2994 -0.0672  0.1773
 2406SOL    HW116186  10.196   2.605   3.851 -1.5093 -0.3214 -1.2448
 2406SOL    HW216187  10.077   2.538   3.917  0.0855 -0.3087  1.8380
 2407SOL     OW16188   3.811   6.610  10.235 -0.3457  0.4913 -0.0218
 2407SOL    HW116189   3.779   6.696  10.262 -0.4157  1.1597 -2.0126
 2407SOL    HW216190   3.877   6.629  10.168 -0.3431 -0.9868 -0.4727
 2408SOL     OW16191   1.214   5.845   3.192  0.5742 -0.2271  0.0973
 2408SOL    HW116192   1.215   5.883   3.105  0.7176  1.3089  0.7363
 2408SOL    HW216193   1.302   5.860   3.226  1.4375 -3.3769 -0.5084
 2409SOL     OW16194   8.565  11.587   4.020 -0.2589 -0.2113  0.0815
 2409SOL    HW116195   8.611  11.608   4.101  0.3051 -0.5891 -0.1404
 2409SOL    HW216196   8.491  11.648   4.018  0.1683  0.3294  0.4917
 2410SOL     OW16197   7.245   3.125   4.803 -0.0301  0.4638 -0.6857
 2410SOL    HW116198   7.253   3.138   4.898 -0.6724  0.1468 -0.5859
 2410SOL    HW216199   7.240   3.030   4.793  0.5451  0.4716 -1.0831
 2411SOL     OW16200   1.580   6.760   1.722 -0.0518 -0.4755 -0.2666
 2411SOL    HW116201   1.552   6.850   1.705 -1.4839 -0.8014  0.2180
 2411SOL    HW216202   1.674   6.760   1.702 -0.2523  0.8343 -1.3624
 2412SOL     OW16203   5.615   3.603   2.317 -0.5166 -0.2689 -0.6960
 2412SOL    HW116204   5.566   3.523   2.337  2.2882 -1.7558  0.8484
 2412SOL    HW216205   5.637   3.595   2.224 -0.5829 -1.1511 -0.6500
 2413SOL     OW16206   4.556   1.741   7.117  0.0085  0.4430 -0.1583
 2413SOL    HW116207   4.499   1.808   7.154 -0.5217  0.3533 -0.7963
 2413SOL    HW216208   4.509   1.659   7.130  0.1734  0.3208 -0.3228
 2414SOL     OW16209   0.573   4.172  11.195 -0.0631 -0.1559 -0.2244
 2414SOL    HW116210   0.633   4.105  11.163 -1.2242 -0.3285 -2.2015
 2414SOL    HW216211   0.531   4.206  11.116 -1.1370  1.3181  0.9349
 2415SOL     OW16212   7.823   2.050   3.190  0.1140  0.1492 -0.3072
 2415SOL    HW116213   7.904   2.013   3.155  0.0894  0.7887 -1.0671
 2415SOL    HW216214   7.850   2.119   3.249  0.1368 -0.3683  0.2990
 2416SOL     OW16215   5.880  12.398   0.697  0.3465  0.3933  0.2522
 2416SOL    HW116216   5.822  12.334   0.739 -0.6215 -0.5703 -2.3568
 2416SOL    HW216217   5.950  12.412   0.760 -1.7793  0.2440  2.7978
 2417SOL     OW16218   4.986   4.542   0.475 -0.6406 -0.0391 -0.6851
 2417SOL    HW116219   4.971   4.449   0.460  0.2977 -0.1303 -1.1232
 2417SOL    HW216220   4.931   4.563   0.550  1.0201 -1.5313  1.0433
 2418SOL     OW16221   1.887   5.336   9.448  0.6119 -0.5267  0.2637
 2418SOL    HW116222   1.877   5.417   9.398  0.4866 -0.4055  0.4833
 2418SOL    HW216223   1.968   5.297   9.415  0.7922 -0.1991  0.3186
 2419SOL     OW16224   1.595   1.975   3.661  0.0887  0.0745  0.3817
 2419SOL    HW116225   1.642   2.040   3.714  0.5226  0.9424 -1.0068
 2419SOL    HW216226   1.545   2.027   3.598 -1.5379 -0.8896  0.8160
 2420SOL     OW16227   5.811  11.147   8.815 -0.2282  0.3437  0.1293
 2420SOL    HW116228   5.805  11.242   8.806 -1.4894  0.5382  2.4759
 2420SOL    HW216229   5.730  11.121   8.858  0.1559 -1.8039 -0.3298
 2421SOL     OW16230   8.802   5.274   6.651 -0.2582  0.2065 -0.2183
 2421SOL    HW116231   8.896   5.256   6.658  0.0554  1.4403 -0.9195
 2421SOL    HW216232   8.765   5.193   6.616  0.9345  0.4906 -2.3331
 2422SOL     OW16233   0.587   3.390  11.460 -0.0250  0.0363 -0.1944
 2422SOL    HW116234   0.578   3.441  11.380  0.8521 -2.2432 -1.8472
 2422SOL    HW216235   0.677   3.407  11.489  0.4220 -0.8980 -1.0040
 2423SOL     OW16236   9.992   3.762   8.002 -0.6599  0.7399 -0.3870
 2423SOL    HW116237   9.903   3.747   8.032 -0.1775  1.1527  1.4273
 2423SOL    HW216238  10.035   3.676   8.009 -0.7367  0.6891 -0.5577
 2424SOL     OW16239  11.410  11.504   0.855 -0.2876  0.0100 -0.3875
 2424SOL    HW116240  11.448  11.578   0.903 -2.2408  0.0467  1.2218
 2424SOL    HW216241  11.378  11.543   0.773  1.1101  0.3619 -0.8123
 2425SOL     OW16242  10.229   2.178   9.427  0.3509  0.5083  0.1773
 2425SOL    HW116243  10.206   2.244   9.362 -0.1932 -1.2239 -1.4655
 2425SOL    HW216244  10.245   2.098   9.376 -0.3349 -0.9837  2.1857
 2426SOL     OW16245  11.590   9.341   7.036  0.0804 -0.2945 -0.4526
 2426SOL    HW116246  11.533   9.409   7.070 -0.3437 -0.1735 -1.3749
 2426SOL    HW216247  11.600   9.362   6.943 -0.6295 -1.8780 -0.9111
 2427SOL     OW16248  12.105   1.728   1.365  0.2131  0.1584  0.1694
 2427SOL    HW116249  12.057   1.803   1.399  0.4020 -0.3866  1.7444
 2427SOL    HW216250  12.174   1.766   1.311 -1.5625  0.9649 -1.6573
 2428SOL     OW16251   8.954   2.255   5.571 -0.0326 -0.1946  0.1449
 2428SOL    HW116252   9.035   2.294   5.605  0.3687 -1.7531  1.0462
 2428SOL    HW216253   8.890   2.270   5.641 -0.0429 -0.5868  0.2183
 2429SOL     OW16254   3.179   8.838   4.844 -0.3842 -0.2808 -0.1128
 2429SOL    HW116255   3.119   8.802   4.779  1.5085 -0.9856 -1.5636
 2429SOL    HW216256   3.220   8.913   4.801 -0.3909  0.3373  0.9308
 2430SOL     OW16257   1.261  10.431   9.731  0.8332  0.0515  0.6449
 2430SOL    HW116258   1.181  10.433   9.679  1.5036 -0.4951 -0.4602
 2430SOL    HW216259   1.235  10.396   9.816 -0.3271  1.1467  0.7703
 2431SOL     OW16260   5.508  10.575   7.359  0.0315 -0.0793 -0.0083
 2431SOL    HW116261   5.526  10.648   7.300  1.1291 -1.1747 -1.0694
 2431SOL    HW216262   5.540  10.605   7.444 -1.5314  1.4964  0.0738
 2432SOL     OW16263   6.019  10.548   5.727 -0.0037  0.3794 -0.1791
 2432SOL    HW116264   6.014  10.518   5.636 -0.6126  1.5666 -0.5686
 2432SOL    HW216265   5.956  10.494   5.774 -0.0903  0.1348 -0.5728
 2433SOL     OW16266   7.299   3.199   3.205  0.6309  0.4421  0.5236
 2433SOL    HW116267   7.230   3.207   3.271 -0.2001  0.2996 -0.3076
 2433SOL    HW216268   7.376   3.239   3.246  0.7763 -1.5537  2.4496
 2434SOL     OW16269   9.021   0.518   5.863 -0.4170  0.2651  0.4037
 2434SOL    HW116270   9.001   0.428   5.889 -0.0553  0.2789  0.7384
 2434SOL    HW216271   9.116   0.525   5.870 -0.5126  0.9583  1.3423
 2435SOL     OW16272  10.732   2.560  12.485 -0.2659  0.0121 -0.1767
 2435SOL    HW116273  10.681   2.626  12.532 -0.0117 -0.8212  1.3386
 2435SOL    HW216274  10.739   2.594  12.396  0.2738  2.2521  0.6462
 2436SOL     OW16275   7.702  12.214   4.987 -0.0468 -0.5190 -1.0886
 2436SOL    HW116276   7.714  12.261   5.069 -0.7189 -0.8072 -0.8187
 2436SOL    HW216277   7.782  12.232   4.937  0.1456  0.0711 -0.5815
 2437SOL     OW16278   1.735   9.633   4.027  0.0462  0.1564  0.9302
 2437SOL    HW116279   1.705   9.564   3.969 -0.6977 -1.5958  3.2509
 2437SOL    HW216280   1.829   9.641   4.009 -0.3235  0.3539 -1.0987
 2438SOL     OW16281  12.001   7.601   6.227 -0.0524  0.4259 -0.3738
 2438SOL    HW116282  12.063   7.673   6.243 -0.3049  0.5483  0.0944
 2438SOL    HW216283  12.011   7.581   6.134  0.6308  0.4973 -0.3242
 2439SOL     OW16284   0.900   8.941   2.713  0.1071 -0.2048  0.8961
 2439SOL    HW116285   0.840   8.933   2.788  0.7983  0.5350  1.5541
 2439SOL    HW216286   0.967   9.002   2.744 -1.3853  2.8780 -1.4433
 2440SOL     OW16287   0.372   2.385   6.291  0.3780 -0.5953 -0.7564
 2440SOL    HW116288   0.379   2.469   6.337  0.7250 -0.2503 -1.4340
 2440SOL    HW216289   0.325   2.328   6.353  0.8836 -0.1575  0.0505
 2441SOL     OW16290   7.098   7.892   0.175  0.2151 -0.0078  0.3523
 2441SOL    HW116291   7.083   7.846   0.258 -1.6726 -0.3185 -0.1196
 2441SOL    HW216292   7.011   7.923   0.148  0.6603 -0.4739 -1.8313
 2442SOL     OW16293   6.487   4.884   2.158  0.2242  0.2980  0.1435
 2442SOL    HW116294   6.542   4.962   2.154  0.5862  0.0458  0.1712
 2442SOL    HW216295   6.445   4.880   2.072  0.2907  0.4582  0.1027
 2443SOL     OW16296   0.259   1.543   3.031  0.0288  0.2914 -0.2506
 2443SOL    HW116297   0.239   1.536   2.938  1.0392  1.0083 -0.5400
 2443SOL    HW216298   0.347   1.507   3.040 -0.1853 -0.0678  0.4880
 2444SOL     OW16299   5.543   1.984   6.036  0.4540 -0.3554 -0.5368
 2444SOL    HW116300   5.557   1.995   6.130  2.1794  0.0903 -0.7949
 2444SOL    HW216301   5.511   1.894   6.027  0.1115 -0.3500  0.4821
 2445SOL     OW16302   3.470   9.382   0.940 -0.1249 -0.3684  0.2921
 2445SOL    HW116303   3.538   9.315   0.930 -0.6315 -0.6037 -2.2730
 2445SOL    HW216304   3.440   9.373   1.030  2.1071 -1.3438  1.0068
 2446SOL     OW16305   4.649   6.240  12.043 -0.3446  0.2033  0.2943
 2446SOL    HW116306   4.661   6.256  11.950  0.6719 -0.7943  0.2311
 2446SOL    HW216307   4.576   6.297  12.068 -0.7617  0.3361 -1.1397
 2447SOL     OW16308   5.212  12.380   2.204  0.2836 -0.8375  0.0932
 2447SOL    HW116309   5.226  12.344   2.291  1.5291  0.4038  0.4387
 2447SOL    HW216310   5.119  12.406   2.204  0.4441 -0.1999  1.3058
 2448SOL     OW16311   4.022   2.298   6.103 -0.0724  0.0436 -0.0336
 2448SOL    HW116312   3.993   2.367   6.163 -0.5423  0.3070 -0.5582
 2448SOL    HW216313   3.989   2.217   6.142 -4.6077  0.5076 -2.2245
 2449SOL     OW16314   5.559  11.859  11.398 -0.3001 -0.3825  0.5843
 2449SOL    HW116315   5.508  11.939  11.413 -0.7841 -0.3710 -0.9980
 2449SOL    HW216316   5.569  11.854  11.303 -0.2412 -2.1929  0.6558
 2450SOL     OW16317  11.907   5.149   0.741  0.2086 -0.2463  0.1984
 2450SOL    HW116318  11.902   5.057   0.715 -1.2600 -0.0793 -0.1554
 2450SOL    HW216319  11.991   5.179   0.705  1.4583 -1.8057  1.6194
 2451SOL     OW16320   6.808   2.631   1.768 -0.0510  0.1436  0.4068
 2451SOL    HW116321   6.887   2.621   1.821 -0.6833 -1.6206  1.1064
 2451SOL    HW216322   6.738   2.646   1.832 -0.6206 -0.6703 -0.0044
 2452SOL     OW16323   9.991   6.969   0.362 -0.3482 -0.1734  0.3177
 2452SOL    HW116324   9.905   6.955   0.321  0.3706 -0.9416 -1.0193
 2452SOL    HW216325  10.019   7.054   0.329 -0.2826 -0.2640  0.1326
 2453SOL     OW16326  11.475  12.172   2.277 -0.0500  0.0491 -0.4367
 2453SOL    HW116327  11.553  12.120   2.258  0.5665  1.0560 -0.7942
 2453SOL    HW216328  11.464  12.228   2.200  0.2769  1.5664  0.5761
 2454SOL     OW16329   9.108   0.778   2.839  0.1715 -0.0079  0.2310
 2454SOL    HW116330   9.167   0.853   2.850  1.7177 -1.2892  0.9901
 2454SOL    HW216331   9.157   0.717   2.784 -1.0935 -0.4670 -0.4297
 2455SOL     OW16332   6.798   6.376   6.666  0.6510  0.0752  0.1857
 2455SOL    HW116333   6.718   6.325   6.653 -0.1003  1.5085 -1.1690
 2455SOL    HW216334   6.802   6.391   6.761  0.6781 -2.0777  0.5693
 2456SOL     OW16335   2.395   3.892   7.118 -0.0606 -0.2063 -0.4672
 2456SOL    HW116336   2.335   3.923   7.185 -1.9341  0.1724 -2.2038
 2456SOL    HW216337   2.452   3.829   7.163 -0.0286  1.3462  1.8206
 2457SOL     OW16338   1.909   1.747   5.856 -0.0145  0.1959 -0.0784
 2457SOL    HW116339   1.928   1.663   5.814 -1.8433 -0.4141  0.2160
 2457SOL    HW216340   1.967   1.809   5.813  2.5204 -1.4273  0.7433
 2458SOL     OW16341   1.162   1.447   9.230  0.5352 -0.4773  0.1878
 2458SOL    HW116342   1.229   1.404   9.178  0.6465 -0.5270  0.3725
 2458SOL    HW216343   1.080   1.427   9.185  0.6490 -0.3647 -0.0709
 2459SOL     OW16344  11.778  10.682   6.269 -0.2741 -0.4233 -0.0241
 2459SOL    HW116345  11.789  10.627   6.191  0.9540 -0.2674  0.0058
 2459SOL    HW216346  11.837  10.756   6.253 -1.4090  0.5608  0.2288
 2460SOL     OW16347   9.763   2.826  10.326  0.3076 -0.3049 -0.3672
 2460SOL    HW116348   9.686   2.881  10.340  0.9259  0.3807  0.4318
 2460SOL    HW216349   9.727   2.737  10.322 -0.5916  0.0556 -0.6581
 2461SOL     OW16350   2.735   2.190  11.235 -0.1666 -0.4626 -0.2380
 2461SOL    HW116351   2.772   2.161  11.318  1.4982  2.4292  0.1584
 2461SOL    HW216352   2.644   2.211  11.255  0.3565  0.6943  1.0118
 2462SOL     OW16353   5.295   6.918   3.813 -0.0591 -0.1070  0.2397
 2462SOL    HW116354   5.333   6.998   3.847 -0.8128  0.7313 -0.8138
 2462SOL    HW216355   5.368   6.856   3.808  0.4433  0.3647  1.4567
 2463SOL     OW16356  10.281  12.071   0.721  0.0918 -0.1429  0.3841
 2463SOL    HW116357  10.347  12.056   0.653  0.7593  1.0006  0.7589
 2463SOL    HW216358  10.199  12.044   0.681  0.4777  0.4582 -0.8624
 2464SOL     OW16359   0.146   0.010   1.010 -0.4063 -0.1306  0.4619
 2464SOL    HW116360   0.090  -0.067   1.000 -2.4710  1.1543  1.5040
 2464SOL    HW216361   0.140   0.054   0.925 -0.3093 -0.4067  0.3077
 2465SOL     OW16362   1.226   0.621  10.183 -0.0113  0.1557  0.5883
 2465SOL    HW116363   1.265   0.677  10.116  0.1758 -0.6224  0.0472
 2465SOL    HW216364   1.154   0.674  10.219 -0.2951  0.4698 -0.4072
 2466SOL     OW16365   7.931   5.945   0.299  0.7218 -0.0250 -0.4192
 2466SOL    HW116366   7.900   5.991   0.221 -1.7616  0.8385  0.9604
 2466SOL    HW216367   7.892   5.993   0.372  1.1874 -2.0873  1.2728
 2467SOL     OW16368   3.752   6.603  12.346 -0.4391 -0.6624 -0.1364
 2467SOL    HW116369   3.758   6.696  12.370  2.8438 -0.1451 -2.2495
 2467SOL    HW216370   3.827   6.562  12.389 -0.8158 -1.9722 -0.6755
 2468SOL     OW16371   2.014   2.008   1.756 -0.4719  0.5434  1.0333
 2468SOL    HW116372   1.940   2.044   1.708  0.2031  0.5990 -0.0023
 2468SOL    HW216373   1.975   1.957   1.827 -1.6508 -1.8957 -1.1778
 2469SOL     OW16374   7.042   4.723   6.334 -1.2037 -0.0961  0.5127
 2469SOL    HW116375   7.033   4.659   6.264  0.3811 -0.7339  0.8607
 2469SOL    HW216376   6.997   4.801   6.300 -1.0791 -0.6108 -0.9229
 2470SOL     OW16377   3.360   7.247  10.182 -0.3758  0.0178 -0.3985
 2470SOL    HW116378   3.358   7.341  10.167 -0.0941  0.1298  0.2629
 2470SOL    HW216379   3.411   7.236  10.262 -1.9388 -0.5705  0.5620
 2471SOL     OW16380   6.960  10.711   7.712 -0.3386  0.5077  0.2822
 2471SOL    HW116381   7.016  10.789   7.713 -0.8702  0.8974  1.1891
 2471SOL    HW216382   6.936  10.700   7.620 -0.6353  1.7101  0.1920
 2472SOL     OW16383   0.458   2.091   0.869 -0.6559 -0.0365 -0.6512
 2472SOL    HW116384   0.479   2.136   0.787 -1.7934  1.5072 -0.1291
 2472SOL    HW216385   0.386   2.032   0.845 -0.1670 -0.4930 -1.0170
 2473SOL     OW16386  11.010   2.185  11.925 -0.0613 -0.7031 -0.4000
 2473SOL    HW116387  11.035   2.233  11.846  2.7580 -2.0167 -0.4118
 2473SOL    HW216388  10.972   2.104  11.894  0.7732 -1.0897 -0.4302
 2474SOL     OW16389   8.268   4.355   0.411 -0.4984  0.2361 -0.7396
 2474SOL    HW116390   8.235   4.410   0.482  0.6223  1.8321 -1.4145
 2474SOL    HW216391   8.197   4.353   0.347 -0.5453  0.9062 -0.7133
 2475SOL     OW16392  10.019  10.721   9.021  0.5881 -0.2503 -0.2179
 2475SOL    HW116393  10.047  10.813   9.013 -0.7917  0.0884 -1.6318
 2475SOL    HW216394  10.043  10.681   8.938 -1.5387 -0.3474 -0.8581
 2476SOL     OW16395  10.153  12.250  11.917  0.0132  0.3681  0.8360
 2476SOL    HW116396  10.101  12.212  11.847  1.1678  0.8242 -0.3160
 2476SOL    HW216397  10.132  12.344  11.914  0.2995  0.4353  0.8869
 2477SOL     OW16398   3.843   9.015   0.808  0.2646 -0.0718 -0.1609
 2477SOL    HW116399   3.883   9.089   0.853  0.9638 -0.9206  0.6795
 2477SOL    HW216400   3.815   8.957   0.879 -2.3521  0.3960 -0.7190
 2478SOL     OW16401   2.868   7.149   4.369 -0.1932  0.0619  0.3060
 2478SOL    HW116402   2.821   7.191   4.297 -0.1916 -2.9310 -1.5753
 2478SOL    HW216403   2.798   7.117   4.427 -0.2716  0.3795  0.3895
 2479SOL     OW16404  11.356   0.960   6.938 -0.0607 -0.6727 -0.0769
 2479SOL    HW116405  11.382   0.912   7.017  0.8778  1.5891  1.0892
 2479SOL    HW216406  11.344   1.050   6.968 -2.5658 -0.2766 -2.0045
 2480SOL     OW16407  10.636   6.634  11.241  0.0140  0.1171 -0.1060
 2480SOL    HW116408  10.576   6.561  11.224  0.2165  0.3288 -1.8621
 2480SOL    HW216409  10.718   6.592  11.268  0.1834 -0.3295 -1.2783
 2481SOL     OW16410   6.192   0.170   3.149 -0.3048 -0.1121 -0.2002
 2481SOL    HW116411   6.232   0.227   3.215  0.7213 -0.2529 -0.6819
 2481SOL    HW216412   6.256   0.099   3.137  0.0047  0.4255 -2.0500
 2482SOL     OW16413   7.806  11.566   8.023 -0.4896  0.1517  0.3503
 2482SOL    HW116414   7.823  11.488   7.971 -0.8436 -0.5341  1.2341
 2482SOL    HW216415   7.740  11.614   7.974 -0.0918  0.0211 -0.3203
 2483SOL     OW16416  11.553   2.509   9.716  0.0317  0.1136  0.1232
 2483SOL    HW116417  11.550   2.604   9.718  0.2646  0.2202 -1.8892
 2483SOL    HW216418  11.534   2.487   9.625 -0.1844 -1.7734  0.5876
 2484SOL     OW16419   3.567   9.100   6.408 -0.5078  0.3104 -0.9592
 2484SOL    HW116420   3.655   9.096   6.445 -1.7484 -1.2555  2.2869
 2484SOL    HW216421   3.556   9.191   6.382  1.2960  1.1053  0.7473
 2485SOL     OW16422   4.101  10.040   3.842 -0.4795 -0.4377  0.1259
 2485SOL    HW116423   4.061  10.125   3.860 -0.0847 -0.2797  0.2646
 2485SOL    HW216424   4.027   9.981   3.828 -0.7535 -0.0537 -0.0587
 2486SOL     OW16425   9.849   4.520   7.999 -0.1472  0.6670 -0.2381
 2486SOL    HW116426   9.764   4.489   7.967  0.1031 -1.0634  0.6691
 2486SOL    HW216427   9.838   4.530   8.093  1.4313 -2.7044  0.4678
 2487SOL     OW16428   9.299  12.329   7.515 -0.3034 -0.7025  0.7321
 2487SOL    HW116429   9.297  12.307   7.608 -0.5362 -0.6657  0.7360
 2487SOL    HW216430   9.241  12.265   7.474  0.6170 -1.3954  0.4700
 2488SOL     OW16431  11.791  12.023   0.664  0.3375  0.2207  0.2888
 2488SOL    HW116432  11.859  12.003   0.728 -0.6367  0.4348  1.4358
 2488SOL    HW216433  11.720  11.962   0.683 -0.1333  0.5546 -0.3187
 2489SOL     OW16434   3.238   9.416   9.094  0.3952  0.0471  0.4620
 2489SOL    HW116435   3.327   9.449   9.100  0.8024 -0.8619 -0.2969
 2489SOL    HW216436   3.186   9.491   9.067  0.9705  0.5236  0.6636
 2490SOL     OW16437   2.964   3.732   6.376 -0.9802  0.2415 -0.1023
 2490SOL    HW116438   3.005   3.672   6.315 -1.9701  0.3145 -0.8569
 2490SOL    HW216439   3.023   3.807   6.379  0.1142 -0.6163  0.6319
 2491SOL     OW16440   4.092   1.756   6.869 -0.1789  0.2062 -0.0451
 2491SOL    HW116441   4.187   1.740   6.872 -0.2129  0.0869  0.6543
 2491SOL    HW216442   4.067   1.764   6.961 -0.9203 -0.1426 -0.2153
 2492SOL     OW16443   5.433   4.068   1.762  0.3589  0.0420 -0.1811
 2492SOL    HW116444   5.442   4.025   1.847  0.0433  1.1315  0.4188
 2492SOL    HW216445   5.342   4.097   1.759  0.6076  0.8058 -0.5040
 2493SOL     OW16446   0.992  11.783   2.870 -0.1698 -0.2833 -0.1148
 2493SOL    HW116447   1.039  11.848   2.817  1.5071 -0.7941  0.6595
 2493SOL    HW216448   0.999  11.817   2.960 -2.1524  0.1007 -0.0795
 2494SOL     OW16449   2.207  10.388   1.989 -0.3562  0.2525  0.0121
 2494SOL    HW116450   2.279  10.447   1.964  0.1710  0.5651  2.1186
 2494SOL    HW216451   2.205  10.323   1.918  0.3648  1.6245 -1.3487
 2495SOL     OW16452  12.360   2.401   8.921  0.7444  0.1767 -0.1233
 2495SOL    HW116453  12.276   2.358   8.937  1.0565 -0.6056 -0.4897
 2495SOL    HW216454  12.374   2.456   8.997  0.4891 -0.6684  0.5560
 2496SOL     OW16455   3.976  10.543   2.823 -0.2823  0.0239  0.4304
 2496SOL    HW116456   4.016  10.628   2.837 -0.6797  0.0091  1.7440
 2496SOL    HW216457   3.890  10.564   2.784  0.1751  0.1413 -0.5422
 2497SOL     OW16458   8.716   4.290   0.437 -0.7792 -0.1135 -0.8238
 2497SOL    HW116459   8.762   4.213   0.471 -0.6920  0.3498  0.1637
 2497SOL    HW216460   8.776   4.326   0.371  0.0616  0.1760  0.0659
 2498SOL     OW16461   0.572   3.290   0.334  0.2818  0.0720 -0.0957
 2498SOL    HW116462   0.524   3.344   0.272  0.3721  1.9536  1.4082
 2498SOL    HW216463   0.662   3.290   0.300  0.2144  0.6054 -0.2863
 2499SOL     OW16464   5.940   9.809   0.833  0.0495  0.4194  0.1756
 2499SOL    HW116465   5.972   9.869   0.767 -2.6515  1.5347 -0.2745
 2499SOL    HW216466   5.877   9.753   0.787 -0.4232 -0.1046  1.3860
 2500SOL     OW16467   2.243   3.230   0.229  0.1264 -0.1830  0.4447
 2500SOL    HW116468   2.151   3.211   0.246  0.1142 -0.7246 -0.1825
 2500SOL    HW216469   2.274   3.157   0.176  0.7986  0.2190  0.2596
 2501SOL     OW16470  10.935   5.588   3.388 -0.7197  0.3992  0.0844
 2501SOL    HW116471  10.940   5.494   3.407  0.1895  0.4572  0.1505
 2501SOL    HW216472  10.857   5.617   3.435 -0.0225  0.0022  1.5582
 2502SOL     OW16473   0.429   0.071   4.342  0.8100 -0.3030 -0.5960
 2502SOL    HW116474   0.477  -0.010   4.330  0.3917 -0.6138 -0.2173
 2502SOL    HW216475   0.483   0.138   4.300  2.1350 -0.4551  0.7961
 2503SOL     OW16476   7.929   7.661   5.131 -0.1267  0.4991 -0.3982
 2503SOL    HW116477   7.917   7.740   5.078 -1.7822  0.3444 -0.3258
 2503SOL    HW216478   7.938   7.590   5.068 -1.3771  0.4130 -0.5202
 2504SOL     OW16479   3.745  12.012   8.566 -0.5658  0.0196 -0.2730
 2504SOL    HW116480   3.688  12.054   8.501 -0.7309  1.6022  0.8511
 2504SOL    HW216481   3.691  11.944   8.605 -0.6055 -0.6627 -1.4693
 2505SOL     OW16482   1.329   1.297  10.347  0.4551 -0.2175 -0.0911
 2505SOL    HW116483   1.278   1.317  10.268  1.1871  0.5134 -0.3997
 2505SOL    HW216484   1.355   1.383  10.381  2.1385 -0.5534 -0.4097
 2506SOL     OW16485  10.839   7.320   7.315 -0.3792  0.4423 -0.0333
 2506SOL    HW116486  10.863   7.340   7.225 -3.4438  0.7655 -0.9076
 2506SOL    HW216487  10.779   7.245   7.308 -1.9895  1.4872  1.5042
 2507SOL     OW16488   1.255   8.594  11.153  0.3857  0.3802 -0.0513
 2507SOL    HW116489   1.265   8.653  11.078 -0.9260 -0.2260 -0.7257
 2507SOL    HW216490   1.183   8.632  11.203 -0.4703 -0.6292 -0.4904
 2508SOL     OW16491   2.557   9.232   5.103 -0.7723 -0.4736 -0.2087
 2508SOL    HW116492   2.589   9.312   5.060 -0.0954 -1.4244 -1.5601
 2508SOL    HW216493   2.483   9.261   5.156 -0.8521  0.9756 -1.0605
 2509SOL     OW16494   4.571   9.888   3.060 -0.2631 -0.2009  0.3332
 2509SOL    HW116495   4.558   9.819   2.995  2.1353 -0.6290  0.1930
 2509SOL    HW216496   4.618   9.956   3.013 -0.2811  0.3736  1.1233
 2510SOL     OW16497   7.857   5.681  10.694  0.0186  0.1578  0.0550
 2510SOL    HW116498   7.770   5.709  10.720  0.0018  1.0749 -0.8889
 2510SOL    HW216499   7.891   5.754  10.642  2.4627  1.0809  2.6608
 2511SOL     OW16500   3.309   8.414   4.768 -0.3564  0.2211  0.5392
 2511SOL    HW116501   3.272   8.454   4.847 -1.0318  0.9206 -0.1160
 2511SOL    HW216502   3.249   8.341   4.749 -0.1915  0.0497  0.6679
 2512SOL     OW16503   5.566   8.691   4.754  0.1401 -0.5220  0.2049
 2512SOL    HW116504   5.662   8.693   4.760  0.2560 -0.1721 -1.4733
 2512SOL    HW216505   5.543   8.600   4.772  0.7437 -0.5262  1.0311
 2513SOL     OW16506   3.520   7.718   2.031  0.2620  0.0039  0.0335
 2513SOL    HW116507   3.491   7.629   2.012 -1.7652  0.5923  0.0442
 2513SOL    HW216508   3.490   7.735   2.120  2.7811 -0.0830  0.9503
 2514SOL     OW16509   8.847  12.045   3.451  0.0257  0.1559 -0.6166
 2514SOL    HW116510   8.789  11.997   3.392 -0.3082  0.4268 -0.5115
 2514SOL    HW216511   8.824  12.137   3.438 -0.5994  0.1725  0.5032
 2515SOL     OW16512  10.916   1.840   0.752  0.0592  0.0842  0.3126
 2515SOL    HW116513  10.928   1.745   0.741 -0.8519 -0.0854  0.7321
 2515SOL    HW216514  10.863   1.849   0.831  0.3160  0.9608  0.3961
 2516SOL     OW16515   3.320  11.760   6.147  0.1058 -0.5911  0.5955
 2516SOL    HW116516   3.355  11.840   6.187  0.6446 -0.0819 -0.8085
 2516SOL    HW216517   3.258  11.792   6.081  0.3158 -1.3255  0.0236
 2517SOL     OW16518   9.273   0.452   7.732 -0.2438 -0.6728  0.1540
 2517SOL    HW116519   9.255   0.545   7.743 -1.5166 -0.9872  0.9368
 2517SOL    HW216520   9.336   0.448   7.661  0.2222  0.8199  0.4451
 2518SOL     OW16521  10.672  11.651   4.859 -0.2638 -0.0004  0.4290
 2518SOL    HW116522  10.708  11.582   4.803 -1.5413 -0.8753  0.6410
 2518SOL    HW216523  10.580  11.627   4.870 -0.5429  1.3308  1.1476
 2519SOL     OW16524   0.560  11.701   2.740  0.5129  0.7758  0.0098
 2519SOL    HW116525   0.533  11.652   2.662  1.2228 -0.1466  0.3402
 2519SOL    HW216526   0.478  11.738   2.774  0.0675  0.3992 -0.6313
 2520SOL     OW16527   0.586   9.554   9.527  0.1104  0.2655  0.3334
 2520SOL    HW116528   0.635   9.505   9.462  0.0923  1.7007 -0.8028
 2520SOL    HW216529   0.618   9.644   9.520 -1.9853  1.0758  0.1883
 2521SOL     OW16530  12.361   2.068   0.391 -0.2046  0.9060  0.3560
 2521SOL    HW116531  12.333   2.119   0.315  0.3770  1.3719  0.4517
 2521SOL    HW216532  12.297   1.997   0.397  0.0445  0.5530 -0.8922
 2522SOL     OW16533   9.706   0.434   7.807 -0.0173  0.2778  0.5450
 2522SOL    HW116534   9.669   0.437   7.896  1.9582  0.9326  1.3931
 2522SOL    HW216535   9.749   0.348   7.803 -1.8284 -0.6369 -0.5683
 2523SOL     OW16536   9.363  11.458   9.425  0.5017  0.1056 -0.3489
 2523SOL    HW116537   9.323  11.532   9.470  0.3837  0.4928 -1.0864
 2523SOL    HW216538   9.298  11.388   9.432 -0.4538  0.8104 -1.7774
 2524SOL     OW16539   2.155   2.223  12.164 -0.0180  0.5574  0.1363
 2524SOL    HW116540   2.245   2.223  12.131  0.7419 -1.3072  1.9546
 2524SOL    HW216541   2.165   2.227  12.259 -1.7219 -1.9172  0.5072
 2525SOL     OW16542  10.051   5.141  11.717 -0.2066  0.1251  0.2088
 2525SOL    HW116543  10.015   5.213  11.665 -0.7345 -0.0645  0.3062
 2525SOL    HW216544  10.040   5.169  11.808  0.1304  0.1777  0.2348
 2526SOL     OW16545   6.322   0.011   0.455 -0.5592  0.0307 -0.0436
 2526SOL    HW116546   6.374   0.052   0.524 -2.5529  1.9607  0.4128
 2526SOL    HW216547   6.326   0.073   0.382 -1.2250 -0.3556 -0.4212
 2527SOL     OW16548  10.496   1.774  11.683  0.1087  0.0208  0.0990
 2527SOL    HW116549  10.587   1.800  11.668 -0.4051  0.9509 -1.6518
 2527SOL    HW216550  10.471   1.727  11.604 -0.6701 -1.0411  0.9583
 2528SOL     OW16551   3.227  11.346   9.317 -0.0555 -0.1240  0.1720
 2528SOL    HW116552   3.146  11.319   9.275 -0.2545 -1.1526  1.1570
 2528SOL    HW216553   3.293  11.341   9.247 -0.9165  1.2752 -0.7711
 2529SOL     OW16554   6.600   9.962   7.250  0.5069 -0.0764  0.0657
 2529SOL    HW116555   6.687   9.995   7.272  1.6927 -1.9098 -1.5297
 2529SOL    HW216556   6.562  10.029   7.193  0.5183  1.0941  1.3835
 2530SOL     OW16557   2.807  10.415  10.191  0.4923  0.4884 -0.1390
 2530SOL    HW116558   2.867  10.343  10.214  1.0032  1.5437  2.1818
 2530SOL    HW216559   2.864  10.485  10.159  0.3976  1.0406  0.8601
 2531SOL     OW16560  11.999   0.973  11.512  0.2593 -0.3268 -0.0854
 2531SOL    HW116561  11.967   1.048  11.462 -1.4687 -1.7756 -1.2673
 2531SOL    HW216562  12.074   0.941  11.462  2.4618  1.7992  1.5732
 2532SOL     OW16563   0.197  10.025   0.419 -0.7997  0.0504 -0.0303
 2532SOL    HW116564   0.192   9.935   0.387 -0.1378 -0.6948  1.8682
 2532SOL    HW216565   0.284  10.055   0.391 -0.3829 -0.4612  0.6825
 2533SOL     OW16566   3.003   8.976  12.483  0.4406 -0.0435 -0.4397
 2533SOL    HW116567   3.082   9.024  12.459  1.6075 -1.4531  0.3808
 2533SOL    HW216568   2.951   9.038  12.534  1.0189  0.8961 -0.9707
 2534SOL     OW16569  10.512   8.211   2.584 -0.3215  0.0806  0.0651
 2534SOL    HW116570  10.537   8.243   2.497 -2.1830  0.4039 -0.3792
 2534SOL    HW216571  10.538   8.282   2.643 -0.0446  0.3376 -0.3554
 2535SOL     OW16572   2.107  10.677   1.884 -0.0120 -0.2646  0.1037
 2535SOL    HW116573   2.021  10.678   1.926 -0.1762 -2.0740 -0.1238
 2535SOL    HW216574   2.108  10.598   1.831  1.2117  0.5633 -1.2050
 2536SOL     OW16575   8.864  10.796   0.693 -0.0422 -0.1998 -0.0942
 2536SOL    HW116576   8.783  10.771   0.648 -2.0053  0.1008  2.9721
 2536SOL    HW216577   8.851  10.887   0.717  1.7770  0.2172 -0.5326
 2537SOL     OW16578   1.267  10.904   0.728 -0.3255  0.2039  0.4314
 2537SOL    HW116579   1.327  10.855   0.784 -0.3088  1.2829  1.3764
 2537SOL    HW216580   1.180  10.876   0.756 -0.3246  0.9297  1.1968
 2538SOL     OW16581   6.574  10.305   7.744  0.2239 -0.5642 -0.5014
 2538SOL    HW116582   6.663  10.270   7.745  0.8813  0.9947  1.8920
 2538SOL    HW216583   6.580  10.384   7.689  0.8011  0.5522  1.1013
 2539SOL     OW16584   8.813  11.110   5.871  0.0740 -0.3016 -0.2635
 2539SOL    HW116585   8.878  11.116   5.941 -2.1591 -0.4197  1.9016
 2539SOL    HW216586   8.801  11.201   5.843  1.3702 -0.3113 -0.9350
 2540SOL     OW16587   6.705   7.969   3.688  0.2320 -0.6715  0.1543
 2540SOL    HW116588   6.680   7.899   3.748  0.0256 -1.1102 -0.4329
 2540SOL    HW216589   6.634   8.033   3.695  1.8258  1.0166  2.9783
 2541SOL     OW16590   1.639   8.709   2.082 -0.2900 -0.0700  0.0665
 2541SOL    HW116591   1.645   8.624   2.125 -1.7978 -0.2263  0.0200
 2541SOL    HW216592   1.563   8.751   2.122 -0.7913  0.4173 -1.3211
 2542SOL     OW16593   8.053   4.399   5.327  0.2048 -0.2954 -0.1243
 2542SOL    HW116594   7.959   4.404   5.339  0.3836  0.4991  1.1833
 2542SOL    HW216595   8.068   4.432   5.239 -0.6768  0.4607 -0.0045
 2543SOL     OW16596   5.461   4.924  10.056 -0.2392  0.3278 -0.4798
 2543SOL    HW116597   5.375   4.958  10.033 -0.7475 -1.0150 -0.6726
 2543SOL    HW216598   5.510   4.925   9.974  0.0820  1.4646 -0.2911
 2544SOL     OW16599  11.737   0.438   3.654 -0.1395 -0.4246 -0.0680
 2544SOL    HW116600  11.787   0.486   3.720 -1.4595  0.6967  0.1521
 2544SOL    HW216601  11.782   0.456   3.571  1.5521 -1.8706  0.4683
 2545SOL     OW16602   3.309   0.703   6.068  0.1199 -0.4005 -0.2956
 2545SOL    HW116603   3.364   0.651   6.010  0.8120  0.0762 -0.0753
 2545SOL    HW216604   3.264   0.764   6.009  0.4850 -0.2170 -0.3887
 2546SOL     OW16605   5.039  12.001   5.231  0.0872 -0.0603 -0.1461
 2546SOL    HW116606   4.976  12.067   5.202 -0.2049  0.1368  0.8915
 2546SOL    HW216607   5.047  12.016   5.325  1.3642 -0.3666 -0.1996
 2547SOL     OW16608   9.258   6.276   7.609  0.2425 -0.6216  0.0230
 2547SOL    HW116609   9.214   6.198   7.644  0.8621 -0.1279  1.9928
 2547SOL    HW216610   9.252   6.341   7.679  0.0775  1.0087 -1.4422
 2548SOL     OW16611   0.235   4.548  10.821 -0.2713 -0.5189 -0.3102
 2548SOL    HW116612   0.263   4.457  10.824  2.2791  0.2196  0.6935
 2548SOL    HW216613   0.188   4.561  10.903  0.3828 -0.6483  0.0917
 2549SOL     OW16614   4.868   3.811  10.518 -0.4941 -0.1118 -0.4929
 2549SOL    HW116615   4.927   3.875  10.478 -2.0260  2.0194  0.4761
 2549SOL    HW216616   4.874   3.827  10.612 -0.9048 -1.4372 -0.2084
 2550SOL     OW16617  10.957   8.547   9.766  0.7689  0.1045 -0.3973
 2550SOL    HW116618  11.001   8.629   9.743  0.5363  0.8103  1.4884
 2550SOL    HW216619  11.015   8.506   9.830 -0.3263  0.0746  0.6038
 2551SOL     OW16620   3.298   1.782   5.812  0.1755 -0.2384  0.4351
 2551SOL    HW116621   3.240   1.851   5.845 -0.0502  0.3054 -1.0018
 2551SOL    HW216622   3.364   1.829   5.761 -0.8842 -1.1295 -1.8887
 2552SOL     OW16623   5.723   6.290   6.992 -0.2934 -0.3372  0.1553
 2552SOL    HW116624   5.774   6.286   6.911 -0.2905  0.3017  0.1137
 2552SOL    HW216625   5.683   6.204   7.000 -1.3731  0.0052 -1.2380
 2553SOL     OW16626  11.905   7.430   9.207  0.5826 -0.3040  0.5169
 2553SOL    HW116627  11.975   7.448   9.145  1.0248  2.0982  1.6282
 2553SOL    HW216628  11.858   7.355   9.168  2.0804 -0.2297 -1.6173
 2554SOL     OW16629   8.650  11.763   9.685  0.1533 -0.3081 -0.2368
 2554SOL    HW116630   8.646  11.789   9.777  1.9469 -0.4312 -0.0754
 2554SOL    HW216631   8.576  11.704   9.672 -1.0784  0.9989  0.6819
 2555SOL     OW16632  11.288   4.762   2.085 -0.0849 -0.4752  0.2845
 2555SOL    HW116633  11.371   4.811   2.088 -1.7124  2.4936  0.6073
 2555SOL    HW216634  11.269   4.753   1.991 -0.5214  0.9538  0.2230
 2556SOL     OW16635   5.664   9.634   5.948  0.4644 -0.7089 -0.3217
 2556SOL    HW116636   5.642   9.553   5.993 -0.3303  0.9346  2.5346
 2556SOL    HW216637   5.748   9.661   5.985  0.0334  0.4525 -0.1226
 2557SOL     OW16638  12.278   0.417  12.372  0.2127  0.0959 -0.2434
 2557SOL    HW116639  12.274   0.397  12.279 -0.5042  0.7322 -0.3644
 2557SOL    HW216640  12.190   0.448  12.394  0.5765  0.6715  0.4669
 2558SOL     OW16641   6.668   3.568   2.794 -0.1036 -0.1288 -0.2729
 2558SOL    HW116642   6.601   3.624   2.755 -1.2364 -0.7972  0.6684
 2558SOL    HW216643   6.712   3.528   2.719  0.1127  1.2741 -0.9368
 2559SOL     OW16644   9.730   2.276   4.812 -0.2145  0.2572  0.0580
 2559SOL    HW116645   9.693   2.218   4.745 -1.0753  1.0557 -0.1742
 2559SOL    HW216646   9.663   2.280   4.880 -1.0038  2.3976 -0.7542
 2560SOL     OW16647  11.719  10.624   6.004 -0.4882  0.2110  0.2078
 2560SOL    HW116648  11.731  10.571   5.926 -0.9827  0.2008  0.1339
 2560SOL    HW216649  11.625  10.644   6.005 -0.3381  0.9571  0.3115
 2561SOL     OW16650   4.158  11.439  12.188  0.0969  0.3007 -0.1258
 2561SOL    HW116651   4.216  11.467  12.259 -1.2946 -1.3003  1.7574
 2561SOL    HW216652   4.125  11.520  12.150 -1.0165  1.3133  2.7406
 2562SOL     OW16653   0.272   8.065   6.320 -0.5272 -0.2287 -0.5402
 2562SOL    HW116654   0.219   8.145   6.330 -0.4335 -0.3049  0.8650
 2562SOL    HW216655   0.300   8.045   6.409  1.1702 -0.6790 -1.1427
 2563SOL     OW16656   5.633   6.829  11.051 -0.5478 -0.0292 -0.3538
 2563SOL    HW116657   5.568   6.892  11.085 -0.9276  0.0894 -1.2756
 2563SOL    HW216658   5.713   6.880  11.043 -0.6549  0.1408 -0.3610
 2564SOL     OW16659   2.597   2.578   3.066 -0.3267  0.1814 -0.5860
 2564SOL    HW116660   2.523   2.630   3.035 -1.6730 -0.9774  0.5075
 2564SOL    HW216661   2.571   2.487   3.051  0.8528 -0.2589 -0.1194
 2565SOL     OW16662   1.254   8.526   9.637 -0.3562  0.1846  0.1685
 2565SOL    HW116663   1.332   8.492   9.593 -0.1904  0.5489  0.1839
 2565SOL    HW216664   1.255   8.484   9.723  0.0807  0.5525  0.3471
 2566SOL     OW16665   1.945   9.217   5.214  0.2949 -0.2372 -0.0763
 2566SOL    HW116666   1.879   9.179   5.272  0.2423  0.6875  0.4885
 2566SOL    HW216667   2.029   9.190   5.252  0.2517 -0.0875  0.1326
 2567SOL     OW16668   3.295   4.089  11.353  0.3969  0.2957  0.1048
 2567SOL    HW116669   3.232   4.110  11.284  0.8725 -0.3300 -0.5207
 2567SOL    HW216670   3.351   4.167  11.359 -1.0590  1.3132  1.4016
 2568SOL     OW16671   9.876   2.442  11.630 -0.4741 -0.1971  0.0600
 2568SOL    HW116672   9.811   2.479  11.690 -0.3065 -0.7578  0.6008
 2568SOL    HW216673   9.956   2.491  11.648 -0.5259 -0.1005  0.0233
 2569SOL     OW16674   0.076   3.317  11.886  0.5108 -0.1376 -0.1434
 2569SOL    HW116675   0.030   3.243  11.927  0.0565 -0.2519 -0.8407
 2569SOL    HW216676   0.038   3.323  11.798  0.3116  1.1224  0.0031
 2570SOL     OW16677   1.576   7.429   3.680 -0.6210 -0.4740  0.3576
 2570SOL    HW116678   1.632   7.495   3.638  1.0896 -0.7656  2.0464
 2570SOL    HW216679   1.574   7.454   3.772 -0.2356 -2.5342  0.9738
 2571SOL     OW16680   1.571   0.696  11.326 -0.1609 -0.4925  0.3279
 2571SOL    HW116681   1.496   0.656  11.371 -0.7703  1.4157  1.0881
 2571SOL    HW216682   1.540   0.782  11.298  1.0893 -0.5304 -1.3433
 2572SOL     OW16683   1.534   5.417  11.852  0.5156  0.5024  0.1294
 2572SOL    HW116684   1.551   5.358  11.926  1.1701 -0.3955 -0.7122
 2572SOL    HW216685   1.470   5.371  11.798 -0.3459  1.3801  0.3767
 2573SOL     OW16686   1.207   8.737  10.929 -0.2382  0.1277 -0.0104
 2573SOL    HW116687   1.261   8.810  10.961  0.0270  0.6891 -1.6487
 2573SOL    HW216688   1.216   8.740  10.834  1.8372 -3.5714 -0.1342
 2574SOL     OW16689   4.799   8.357   5.435  0.2853  0.6817  0.4814
 2574SOL    HW116690   4.777   8.353   5.528  0.4136 -1.5563  0.4569
 2574SOL    HW216691   4.717   8.382   5.392 -0.1320  0.3765  1.0843
 2575SOL     OW16692   7.764   0.208   2.445  0.4622  0.1064  0.7827
 2575SOL    HW116693   7.757   0.286   2.501  0.8036  0.6403  0.0981
 2575SOL    HW216694   7.702   0.224   2.374  0.7048 -0.1334  0.5137
 2576SOL     OW16695   6.086   9.505  11.103 -0.0162 -0.5571 -0.8393
 2576SOL    HW116696   6.152   9.511  11.034  1.0825  0.3955  0.2559
 2576SOL    HW216697   6.120   9.559  11.174 -1.4354 -0.9811  0.2107
 2577SOL     OW16698   0.748   5.806   5.555 -0.0897 -0.0910  0.0727
 2577SOL    HW116699   0.801   5.738   5.513 -0.2335  0.9489 -1.9619
 2577SOL    HW216700   0.811   5.861   5.600  0.3278 -0.1725 -0.3988
 2578SOL     OW16701   0.284   5.051   5.918  0.2891  0.7658 -0.0581
 2578SOL    HW116702   0.225   4.980   5.893 -1.1774  2.2413 -0.9551
 2578SOL    HW216703   0.352   5.051   5.850  0.4062  0.1169  0.0548
 2579SOL     OW16704  12.234   0.755  10.896  0.7169  0.4588  0.3779
 2579SOL    HW116705  12.279   0.821  10.949  0.4710  0.6164  0.3918
 2579SOL    HW216706  12.204   0.690  10.959 -0.6185  1.2430  0.5867
 2580SOL     OW16707  10.621   2.107   5.886 -0.0173 -0.8771 -0.5366
 2580SOL    HW116708  10.692   2.146   5.835 -0.7389 -1.7587 -2.3018
 2580SOL    HW216709  10.542   2.151   5.855 -0.5553 -1.9508 -0.7261
 2581SOL     OW16710   6.553   4.599   7.531  0.4722  0.4026 -0.1525
 2581SOL    HW116711   6.479   4.605   7.591 -0.6881  0.1750 -1.4805
 2581SOL    HW216712   6.630   4.595   7.587 -0.5581  0.0610  1.3001
 2582SOL     OW16713   2.310  12.490   6.286  0.0386 -0.0789  0.4787
 2582SOL    HW116714   2.261  12.563   6.324 -0.0561  0.1533 -0.0798
 2582SOL    HW216715   2.401  12.507   6.312  0.0326  0.2975  0.2714
 2583SOL     OW16716   1.376  12.564  11.950  0.4283  0.6110  0.2920
 2583SOL    HW116717   1.359  12.659  11.952  2.4923  1.0317  0.4560
 2583SOL    HW216718   1.439  12.552  11.879 -0.5113 -0.8015 -0.3391
 2584SOL     OW16719   5.989  12.282   4.232  0.1364  0.0783  0.2416
 2584SOL    HW116720   6.055  12.263   4.165 -0.1374 -0.0680  0.0080
 2584SOL    HW216721   5.913  12.230   4.205 -0.5728  1.3490 -0.3049
 2585SOL     OW16722  12.240   3.513   2.743  0.1928  0.5727 -0.4947
 2585SOL    HW116723  12.251   3.421   2.768 -2.0637 -0.3865 -2.6397
 2585SOL    HW216724  12.320   3.534   2.694  1.4726  0.3408  1.3854
 2586SOL     OW16725   4.421   3.407   6.061  0.0038 -0.2168  0.4865
 2586SOL    HW116726   4.510   3.385   6.088  0.1640 -0.2047 -0.0268
 2586SOL    HW216727   4.426   3.416   5.966 -0.1758  1.4735  0.6070
 2587SOL     OW16728   5.848   8.869   2.305 -0.0852  0.1600  0.0290
 2587SOL    HW116729   5.770   8.831   2.347 -1.2615  0.7887 -1.5065
 2587SOL    HW216730   5.909   8.882   2.377 -1.4585 -0.2046  1.3188
 2588SOL     OW16731   3.607  10.344   6.280 -0.1283 -0.1538 -0.3044
 2588SOL    HW116732   3.670  10.272   6.277 -0.3889 -0.3645 -1.0092
 2588SOL    HW216733   3.548  10.321   6.352  0.3998 -0.1221  0.1374
 2589SOL     OW16734  12.156   1.153   1.754 -0.5116 -0.1058  0.1065
 2589SOL    HW116735  12.121   1.165   1.665  0.3424  0.2028 -0.1958
 2589SOL    HW216736  12.242   1.194   1.752 -0.1233 -0.8469  0.8374
 2590SOL     OW16737   7.406   9.286   6.361  0.4880 -0.0705  0.4468
 2590SOL    HW116738   7.467   9.215   6.381  0.4774 -0.2004  0.0329
 2590SOL    HW216739   7.378   9.269   6.271  0.6423  0.5775  0.2742
 2591SOL     OW16740  11.130   2.981  12.237  0.1681  0.1364  0.3254
 2591SOL    HW116741  11.140   2.925  12.314  0.5553 -0.1279  0.0883
 2591SOL    HW216742  11.038   3.007  12.239 -0.3329 -1.4433 -0.1640
 2592SOL     OW16743  10.351   0.548   2.427 -0.0552  0.0295 -0.9070
 2592SOL    HW116744  10.268   0.502   2.439 -0.6110  1.3894  1.0947
 2592SOL    HW216745  10.386   0.558   2.516  1.9968 -0.0118 -1.6535
 2593SOL     OW16746   4.817  10.749   5.077  0.2907 -0.1971  1.0430
 2593SOL    HW116747   4.870  10.769   5.154  1.6056  0.2847  0.0694
 2593SOL    HW216748   4.810  10.833   5.030 -0.9493 -0.3616  0.9060
 2594SOL     OW16749   7.602   2.762   8.476 -0.3735  0.2136  0.4164
 2594SOL    HW116750   7.629   2.820   8.547 -1.1761  0.9069  0.1765
 2594SOL    HW216751   7.509   2.746   8.492 -0.1522 -1.0797  0.5120
 2595SOL     OW16752   0.141  10.031  10.541  0.1592  0.2231 -0.5126
 2595SOL    HW116753   0.076   9.985  10.594  0.1520  0.3720 -0.3892
 2595SOL    HW216754   0.210   9.967  10.526  1.5015  0.9106  1.9962
 2596SOL     OW16755   9.665   1.192   9.216 -0.2681  0.5717  0.2208
 2596SOL    HW116756   9.682   1.107   9.174 -0.1239  1.1210 -0.8609
 2596SOL    HW216757   9.666   1.172   9.310 -0.1081 -0.5995 -0.0047
 2597SOL     OW16758   9.611   5.872   0.181 -0.1783 -0.3607 -0.4841
 2597SOL    HW116759   9.659   5.858   0.263 -1.9428  0.7899  0.8388
 2597SOL    HW216760   9.678   5.875   0.113  1.5486  0.4888  1.1623
 2598SOL     OW16761  11.739   1.225  11.550  0.1831  0.0513  0.1948
 2598SOL    HW116762  11.748   1.313  11.587 -1.3569 -0.2230  1.2797
 2598SOL    HW216763  11.761   1.166  11.622  1.5343 -0.4857 -0.6205
 2599SOL     OW16764   0.862   7.272   2.972 -0.7543  0.2198  0.3355
 2599SOL    HW116765   0.957   7.256   2.971 -0.8899 -0.6069  0.1188
 2599SOL    HW216766   0.853   7.362   2.941 -0.1128 -0.1658 -1.0899
 2600SOL     OW16767   3.097   6.116   4.290 -0.2069 -0.3261  0.8814
 2600SOL    HW116768   3.112   6.203   4.325  0.9554 -0.4487  0.7266
 2600SOL    HW216769   3.167   6.102   4.226  0.6194 -1.9847  2.0693
 2601SOL     OW16770   3.167  11.110   4.238 -0.0495  0.3947 -0.0634
 2601SOL    HW116771   3.236  11.079   4.297 -0.8913  0.6307  1.0879
 2601SOL    HW216772   3.153  11.201   4.264 -2.0495 -0.1562  1.0279
 2602SOL     OW16773   9.363   0.507   2.900  0.2759 -0.5150 -0.0527
 2602SOL    HW116774   9.412   0.575   2.854 -1.0320 -0.2198 -1.0812
 2602SOL    HW216775   9.425   0.434   2.906  1.0464  0.0483 -0.7646
 2603SOL     OW16776   2.330   8.611   0.986  0.1154 -0.2014 -0.1685
 2603SOL    HW116777   2.252   8.663   0.967  0.1483  0.0194  0.2796
 2603SOL    HW216778   2.398   8.646   0.927 -0.1083 -0.3585 -0.5208
 2604SOL     OW16779   3.983   0.790   1.862 -0.3210  0.4500 -0.2179
 2604SOL    HW116780   3.917   0.728   1.894  0.6282 -0.2997  0.3243
 2604SOL    HW216781   4.027   0.821   1.940  0.5340  0.3013 -0.6341
 2605SOL     OW16782  12.156   7.717   7.321 -0.1045 -0.1797 -0.5132
 2605SOL    HW116783  12.233   7.664   7.301  0.0360  0.1263 -0.7936
 2605SOL    HW216784  12.082   7.657   7.308  0.1441 -1.0248  1.5481
 2606SOL     OW16785   1.084  11.537  12.299  0.3995 -0.2486  0.1947
 2606SOL    HW116786   1.154  11.500  12.246 -0.1475 -0.9643 -0.0517
 2606SOL    HW216787   1.004  11.511  12.253 -0.0179  3.0131 -1.1813
 2607SOL     OW16788  10.191   4.664   1.341 -0.3622 -0.6545 -0.2114
 2607SOL    HW116789  10.200   4.627   1.253 -1.2538 -0.9835 -0.1827
 2607SOL    HW216790  10.096   4.664   1.357 -0.1882 -1.0942  0.9502
 2608SOL     OW16791   2.284   8.176   6.121 -0.0001  0.2994 -0.0477
 2608SOL    HW116792   2.354   8.236   6.095  1.7652 -2.1263 -1.3536
 2608SOL    HW216793   2.329   8.092   6.135 -2.5689 -1.2212 -0.3134
 2609SOL     OW16794  12.288   0.665   8.099  0.1521 -0.0676  0.3922
 2609SOL    HW116795  12.363   0.690   8.153  0.4655 -0.2954  0.0686
 2609SOL    HW216796  12.279   0.571   8.113  1.3025 -0.4774 -1.2355
 2610SOL     OW16797  10.890   0.506   9.335 -0.2060  0.2576  0.2294
 2610SOL    HW116798  10.887   0.523   9.429 -1.4340 -1.0511  0.4654
 2610SOL    HW216799  10.913   0.413   9.328 -1.1358  0.0806 -0.7214
 2611SOL     OW16800  10.490  12.132   0.961  0.8115  0.4725  0.2712
 2611SOL    HW116801  10.506  12.070   1.033 -0.4655 -0.5564 -0.2967
 2611SOL    HW216802  10.565  12.120   0.903  0.1578 -1.2472 -0.2866
 2612SOL     OW16803   8.194   5.845   8.772  0.1842 -0.3269 -0.6482
 2612SOL    HW116804   8.222   5.913   8.711  0.8260 -0.3337 -0.3654
 2612SOL    HW216805   8.232   5.871   8.856  1.4932 -1.6858 -0.7874
 2613SOL     OW16806   2.934   2.778   7.821  1.1624  0.1993 -0.0134
 2613SOL    HW116807   2.863   2.770   7.885  0.3175  2.0065 -0.6490
 2613SOL    HW216808   2.943   2.690   7.785 -0.7453 -0.1156  0.1241
 2614SOL     OW16809   9.320   7.613   3.421 -0.2254 -0.0331 -0.0666
 2614SOL    HW116810   9.351   7.538   3.472 -0.2916 -0.3331 -0.4670
 2614SOL    HW216811   9.226   7.615   3.438 -0.3097 -0.3779 -0.5010
 2615SOL     OW16812   6.899   9.663  11.918  0.0902 -0.3327 -0.0740
 2615SOL    HW116813   6.807   9.660  11.944  0.1269 -0.0789  0.0889
 2615SOL    HW216814   6.899   9.639  11.825 -0.3550  1.5053 -0.5925
 2616SOL     OW16815   6.957  12.496   8.086  0.1864 -0.3255 -0.0275
 2616SOL    HW116816   6.944  12.508   8.180 -0.1199  1.4398 -0.2728
 2616SOL    HW216817   7.011  12.417   8.080 -0.5674 -1.0057  1.5721
 2617SOL     OW16818  11.683   1.335   1.321 -0.2509 -0.8731  0.2292
 2617SOL    HW116819  11.714   1.260   1.372  0.2981  0.0569  1.2770
 2617SOL    HW216820  11.758   1.393   1.315 -0.5829 -0.5260 -0.8430
 2618SOL     OW16821   0.989   0.485   0.211  0.1643  0.3705 -0.5187
 2618SOL    HW116822   0.916   0.488   0.150  0.7764 -0.7112 -1.3394
 2618SOL    HW216823   1.046   0.415   0.177  1.5832  1.1956  0.0819
 2619SOL     OW16824   1.497   8.872   9.942  0.5403  0.6827 -0.0270
 2619SOL    HW116825   1.461   8.842  10.026  0.4279  1.8650  0.3585
 2619SOL    HW216826   1.469   8.963   9.935  1.0602  0.7706 -1.0764
 2620SOL     OW16827   6.811  10.828   1.749  0.0926  0.1453 -0.7776
 2620SOL    HW116828   6.884  10.873   1.705  1.3352  0.5092  1.5211
 2620SOL    HW216829   6.788  10.886   1.822 -2.7607  0.1820 -1.5761
 2621SOL     OW16830   6.099   3.801   1.935 -0.3381  0.1027 -0.2721
 2621SOL    HW116831   6.143   3.858   1.998 -1.1186 -0.5428  0.8824
 2621SOL    HW216832   6.006   3.809   1.954 -0.4233 -2.7375  1.0379
 2622SOL     OW16833   3.634   1.833   8.717 -0.3770 -0.1749 -0.3884
 2622SOL    HW116834   3.686   1.866   8.791 -1.1657  1.0135 -0.3321
 2622SOL    HW216835   3.657   1.741   8.711  2.5946  0.4978 -1.0801
 2623SOL     OW16836   4.281  11.189   0.649 -0.1594  0.6505  0.3185
 2623SOL    HW116837   4.206  11.243   0.625 -1.1826 -0.5833  0.6335
 2623SOL    HW216838   4.245  11.122   0.707  1.4092  0.7552  1.4872
 2624SOL     OW16839   8.499  10.967  10.228  0.2693  0.1486 -0.2977
 2624SOL    HW116840   8.470  10.877  10.215  0.2804  0.1441 -0.2929
 2624SOL    HW216841   8.501  11.005  10.140  2.8297 -0.6338 -0.6547
 2625SOL     OW16842  10.257   2.097  10.257 -0.0546  0.1971  0.8948
 2625SOL    HW116843  10.319   2.160  10.293 -0.1255  0.8739 -0.1170
 2625SOL    HW216844  10.222   2.141  10.179 -0.0434 -1.1256  0.1259
 2626SOL     OW16845   3.515   5.359   1.844  0.5154  0.4453  0.0791
 2626SOL    HW116846   3.440   5.418   1.856  0.1632 -0.1331  0.7939
 2626SOL    HW216847   3.514   5.338   1.751 -1.0073 -0.5607  0.2816
 2627SOL     OW16848   9.923   9.785   4.930 -0.0642 -0.4433 -0.0776
 2627SOL    HW116849   9.943   9.808   4.839 -2.0072 -1.9403 -0.9409
 2627SOL    HW216850  10.009   9.769   4.970  0.9270  1.6826 -1.1813
 2628SOL     OW16851   3.441  12.214   2.912 -0.1613 -0.2060 -0.0685
 2628SOL    HW116852   3.517  12.269   2.928 -2.5236  3.4762 -0.4222
 2628SOL    HW216853   3.428  12.167   2.994  2.3147 -0.8877  0.0373
 2629SOL     OW16854   2.195   0.514   3.197 -0.0382  0.1422  0.6051
 2629SOL    HW116855   2.230   0.506   3.108  0.4000  1.8180  0.5867
 2629SOL    HW216856   2.101   0.499   3.188 -0.0443  0.6213 -0.2037
 2630SOL     OW16857   5.486   0.277   7.273 -1.0367 -0.1170 -0.6980
 2630SOL    HW116858   5.461   0.188   7.249 -0.8561 -0.9320  1.8809
 2630SOL    HW216859   5.568   0.267   7.322 -0.3346  1.6262 -1.4138
 2631SOL     OW16860   1.506   7.374   4.059  0.5039 -0.1597 -0.1921
 2631SOL    HW116861   1.580   7.434   4.052  0.3427 -0.0794 -1.3236
 2631SOL    HW216862   1.545   7.287   4.048  0.6190 -0.2234  0.6331
 2632SOL     OW16863   4.145   7.217   5.641  0.0795  0.4769  0.6093
 2632SOL    HW116864   4.080   7.197   5.709 -0.6980  1.2496  0.1215
 2632SOL    HW216865   4.114   7.299   5.603  2.1296  1.6539  1.3305
 2633SOL     OW16866   3.798  10.645   9.909 -0.3258 -0.4338 -0.3013
 2633SOL    HW116867   3.865  10.694   9.955 -0.8261 -1.1455  1.2374
 2633SOL    HW216868   3.720  10.701   9.912 -0.6154 -0.8623  0.5698
 2634SOL     OW16869   5.007   3.990   6.862 -0.6138 -0.2859  0.2085
 2634SOL    HW116870   4.924   3.969   6.903 -0.1359  0.2136  1.4867
 2634SOL    HW216871   5.012   3.933   6.786 -2.9781  0.9775 -1.0021
 2635SOL     OW16872   5.136   5.167   0.755 -0.5967  0.0042  0.4756
 2635SOL    HW116873   5.050   5.136   0.781 -0.3614 -1.5484 -0.4588
 2635SOL    HW216874   5.174   5.094   0.704  0.5720  1.2878 -0.5880
 2636SOL     OW16875   0.556   2.168  10.479  0.1503  0.0250 -0.4636
 2636SOL    HW116876   0.565   2.136  10.390  2.6707 -0.3568 -0.1589
 2636SOL    HW216877   0.592   2.257  10.476 -1.4850  0.7285 -0.1664
 2637SOL     OW16878   7.987   7.006   0.235  0.1434 -0.0860  0.1900
 2637SOL    HW116879   7.930   6.976   0.306  0.6176  1.6262  1.3516
 2637SOL    HW216880   8.054   7.059   0.278  0.8091  0.5038 -1.4696
 2638SOL     OW16881   4.091   1.124   6.893 -0.0385  0.1201  0.0900
 2638SOL    HW116882   4.004   1.086   6.898 -0.2008  0.2648 -1.2205
 2638SOL    HW216883   4.077   1.218   6.905 -0.2155  0.2662 -1.0942
 2639SOL     OW16884  10.023   5.552   1.507 -0.1643  0.9044 -0.1756
 2639SOL    HW116885   9.984   5.608   1.440  2.1553 -0.7600 -3.1573
 2639SOL    HW216886  10.008   5.463   1.475  1.7742  0.0729  1.0911
 2640SOL     OW16887   7.839   4.290   8.602  0.0656  0.2718 -0.3056
 2640SOL    HW116888   7.794   4.208   8.623  2.3581 -1.1195 -0.4905
 2640SOL    HW216889   7.889   4.271   8.523  3.0732  0.8037  1.3353
 2641SOL     OW16890  10.975   8.583   6.049  0.2457 -0.0966  0.4303
 2641SOL    HW116891  11.043   8.556   6.110  0.1784  2.9012  2.0373
 2641SOL    HW216892  11.019   8.590   5.964  1.4058 -0.2774  1.0118
 2642SOL     OW16893   6.591   5.933   2.802  0.2862 -0.1719 -0.0112
 2642SOL    HW116894   6.502   5.940   2.768  0.5953 -0.3022 -0.8785
 2642SOL    HW216895   6.647   5.966   2.732  0.8578  1.0934  0.9901
 2643SOL     OW16896   4.185  10.787   6.453  0.0196  0.5991  0.3517
 2643SOL    HW116897   4.268  10.804   6.409  0.0469  2.0511  0.8863
 2643SOL    HW216898   4.119  10.827   6.396 -0.4068 -1.0874 -0.3840
 2644SOL     OW16899   3.776   5.299  10.701  0.1922  0.4423  0.6041
 2644SOL    HW116900   3.795   5.206  10.695 -1.0671  0.1991  0.0052
 2644SOL    HW216901   3.842   5.334  10.760  0.2386 -0.9634  1.4182
 2645SOL     OW16902  11.793   1.442  11.713  0.4233 -0.0021  0.1551
 2645SOL    HW116903  11.884   1.446  11.742  0.4494  0.4634  0.0144
 2645SOL    HW216904  11.749   1.509  11.764  0.5247  1.0268 -1.0669
 2646SOL     OW16905   7.317   0.498   9.923  0.6576 -0.7949  0.0923
 2646SOL    HW116906   7.319   0.505  10.018  2.9552 -1.9601  0.2012
 2646SOL    HW216907   7.290   0.585   9.893 -3.5866 -1.2904  1.7679
 2647SOL     OW16908  11.698   5.199  11.968  0.6457 -0.5587  0.4547
 2647SOL    HW116909  11.674   5.266  11.904  0.8167  1.1059  2.0423
 2647SOL    HW216910  11.626   5.136  11.965  0.1533  0.0206 -0.6281
 2648SOL     OW16911   7.359   7.708  11.595 -0.3564  0.1800  0.1274
 2648SOL    HW116912   7.443   7.688  11.555  0.3438  2.7938  0.0888
 2648SOL    HW216913   7.380   7.749  11.678 -1.4958  1.8683 -0.3512
 2649SOL     OW16914   8.586   8.203  11.844 -0.0073  0.0271 -0.2551
 2649SOL    HW116915   8.655   8.172  11.903 -2.5024 -0.0123  2.9178
 2649SOL    HW216916   8.604   8.296  11.832  1.6461 -0.3607 -1.2081
 2650SOL     OW16917   7.122  11.618   8.466  0.1950  0.1610 -0.0985
 2650SOL    HW116918   7.062  11.667   8.410  0.0686 -0.6276 -0.6646
 2650SOL    HW216919   7.148  11.681   8.533 -0.8285  0.6809 -0.1638
 2651SOL     OW16920   0.377   9.699   7.079 -0.2222 -0.4199 -0.1314
 2651SOL    HW116921   0.435   9.651   7.021  1.3830  1.1870  0.0649
 2651SOL    HW216922   0.289   9.679   7.047  0.4467 -2.3004 -0.9211
 2652SOL     OW16923   2.233   0.265   9.349  0.3324  0.1777 -1.0779
 2652SOL    HW116924   2.229   0.236   9.258 -0.2338 -1.7394 -0.4789
 2652SOL    HW216925   2.256   0.187   9.399 -1.8486  0.5919  0.7161
 2653SOL     OW16926   2.221   6.529   0.977  0.0324 -0.8009  0.0465
 2653SOL    HW116927   2.159   6.468   1.018 -0.7057 -0.7733 -0.9948
 2653SOL    HW216928   2.307   6.492   0.995 -0.1970 -0.4086  2.2564
 2654SOL     OW16929   9.835   6.193   0.825  0.3471  0.2993 -0.2475
 2654SOL    HW116930   9.913   6.162   0.781 -0.0423 -0.3193 -0.5228
 2654SOL    HW216931   9.770   6.125   0.809  0.3795 -0.2905  1.8547
 2655SOL     OW16932   1.357  10.650   7.251 -0.2932  0.5384 -0.0249
 2655SOL    HW116933   1.367  10.564   7.210  0.6193  0.3329  0.5960
 2655SOL    HW216934   1.393  10.712   7.187 -0.2948  0.3784 -0.1805
 2656SOL     OW16935   8.204   2.543   8.378  0.3600  0.4000  0.5452
 2656SOL    HW116936   8.182   2.467   8.324  2.3913  0.7978 -0.9444
 2656SOL    HW216937   8.153   2.615   8.342 -0.1348  0.1472  0.7389
 2657SOL     OW16938   1.905   5.270   7.517 -0.9686 -1.0572 -0.2380
 2657SOL    HW116939   1.857   5.267   7.434 -0.9900 -0.3680 -0.2580
 2657SOL    HW216940   1.837   5.274   7.584 -0.9714  0.8129 -0.3038
 2658SOL     OW16941   7.778   3.158   5.055 -0.3517  0.4551  0.0973
 2658SOL    HW116942   7.843   3.088   5.058 -1.3274 -0.6811 -2.2705
 2658SOL    HW216943   7.740   3.151   4.967 -2.0887  2.5192  0.6032
 2659SOL     OW16944   1.779   8.757   6.060  0.2266 -0.4245  0.1043
 2659SOL    HW116945   1.836   8.775   6.135 -0.3603 -1.0804  0.7255
 2659SOL    HW216946   1.729   8.838   6.048  0.1738 -0.3831  0.5636
 2660SOL     OW16947   7.900   7.154   0.049 -0.3229 -0.1524  0.8095
 2660SOL    HW116948   7.909   7.092   0.122 -1.0231  0.4410  1.4287
 2660SOL    HW216949   7.893   7.099  -0.029  1.5459 -0.7813  1.0312
 2661SOL     OW16950   1.651  12.489   1.111 -0.6151  0.0160 -0.2160
 2661SOL    HW116951   1.717  12.431   1.149 -1.1736 -1.1052 -0.9027
 2661SOL    HW216952   1.593  12.431   1.062 -1.0804  1.1769 -1.1020
 2662SOL     OW16953   1.851   5.726   0.261 -0.2758 -0.3290 -0.5580
 2662SOL    HW116954   1.756   5.725   0.265 -0.2872 -0.0795 -0.8168
 2662SOL    HW216955   1.877   5.805   0.310 -0.1229 -1.4114  1.2189
 2663SOL     OW16956   3.364  11.416   9.881  0.1685 -0.0403 -0.0890
 2663SOL    HW116957   3.308  11.463   9.820  1.1343  1.8989  0.4217
 2663SOL    HW216958   3.331  11.441   9.967 -0.6533 -2.0848  0.2419
 2664SOL     OW16959   3.192   2.749   4.713 -0.2120 -0.7447 -0.6448
 2664SOL    HW116960   3.181   2.677   4.775 -0.0299 -0.3266 -0.1134
 2664SOL    HW216961   3.102   2.778   4.694 -0.2376  0.4280  1.0093
 2665SOL     OW16962   4.105   6.874   3.348 -0.0533 -0.4130 -0.3322
 2665SOL    HW116963   4.020   6.852   3.385 -0.2110  0.7773  0.0397
 2665SOL    HW216964   4.162   6.888   3.424  0.2566 -0.3456 -0.5727
 2666SOL     OW16965   8.704   5.587   3.092  0.5301  0.5603  0.3876
 2666SOL    HW116966   8.719   5.654   3.026 -0.2470  1.4066  1.0365
 2666SOL    HW216967   8.637   5.531   3.055 -0.4197  1.4432  0.7087
 2667SOL     OW16968  11.250   6.475  10.452 -0.1541 -0.2297  0.3196
 2667SOL    HW116969  11.167   6.442  10.487  0.2190  0.1441  1.6330
 2667SOL    HW216970  11.245   6.570  10.465  0.2162 -0.1390 -0.1912
 2668SOL     OW16971   7.051   2.208   0.533 -0.2306 -0.3546 -0.1986
 2668SOL    HW116972   6.989   2.170   0.596  0.5237 -0.5287  0.4478
 2668SOL    HW216973   6.996   2.232   0.458 -0.9468 -1.3292 -0.0096
 2669SOL     OW16974  10.380   9.659   8.774 -0.0256 -0.2530  0.0965
 2669SOL    HW116975  10.361   9.718   8.847 -1.1066 -0.7085  0.2047
 2669SOL    HW216976  10.435   9.590   8.812  2.1621  1.1797 -0.2588
 2670SOL     OW16977   1.914   0.918   8.740 -0.5122  0.5054  0.6175
 2670SOL    HW116978   1.833   0.943   8.697 -0.4548 -1.2750 -0.6595
 2670SOL    HW216979   1.963   0.999   8.751 -1.0535  1.1862 -1.6608
 2671SOL     OW16980   5.104   3.598  10.524  0.0610  0.2009 -0.3532
 2671SOL    HW116981   5.085   3.603  10.618  0.0033  0.2564 -0.3675
 2671SOL    HW216982   5.020   3.616  10.482  0.4631  2.1709 -0.4446
 2672SOL     OW16983   6.633   2.535   4.927  0.4970  0.9797 -0.0069
 2672SOL    HW116984   6.566   2.571   4.985 -0.6914  0.7667 -1.1886
 2672SOL    HW216985   6.635   2.441   4.948  0.5507  1.0146  0.1448
 2673SOL     OW16986   9.463   4.228   0.013  0.4180 -0.0216 -0.5590
 2673SOL    HW116987   9.472   4.235   0.108 -0.0291  0.2609 -0.5362
 2673SOL    HW216988   9.553   4.228  -0.019  0.5962  2.5541 -0.3060
 2674SOL     OW16989   9.245   4.038   8.777 -0.0117 -0.4600 -0.2466
 2674SOL    HW116990   9.152   4.014   8.778 -0.6136  1.4948  2.1558
 2674SOL    HW216991   9.291   3.956   8.795 -1.2740 -1.4032 -1.1326
 2675SOL     OW16992  12.008  10.758   7.231 -0.0461 -0.1165 -0.7337
 2675SOL    HW116993  11.937  10.694   7.221  1.8441 -2.1873 -1.8884
 2675SOL    HW216994  12.005  10.784   7.323 -1.6338 -0.9230 -0.5224
 2676SOL     OW16995   0.974  12.032   8.513  0.0936  0.3476 -0.1560
 2676SOL    HW116996   0.973  11.983   8.431  0.5379  0.0149  0.0292
 2676SOL    HW216997   0.929  11.975   8.575 -0.2099  0.5823 -0.1626
 2677SOL     OW16998   0.044   5.568   4.201  0.1699  0.0996  0.5915
 2677SOL    HW116999   0.002   5.530   4.278  1.5777 -1.3995  0.6768
 2677SOL    HW217000   0.003   5.525   4.127  0.6550 -0.4154  0.6203
 2678SOL     OW17001   1.189  11.594   8.732  0.4931  0.1827 -0.2023
 2678SOL    HW117002   1.221  11.626   8.816 -0.4048 -0.4063  0.3780
 2678SOL    HW217003   1.184  11.672   8.677  2.6409  0.3471 -0.2607
 2679SOL     OW17004   8.639   6.716   2.998 -0.0177 -0.6328  0.0965
 2679SOL    HW117005   8.692   6.643   2.966  1.7816  0.6242  0.0665
 2679SOL    HW217006   8.699   6.768   3.052 -1.3094  0.6829  0.3429
 2680SOL     OW17007   2.972  10.903   0.265  0.4011  0.4656 -0.2714
 2680SOL    HW117008   2.925  10.845   0.204  0.1108  1.6431 -1.2231
 2680SOL    HW217009   2.930  10.988   0.252  0.8558  0.9054  1.0485
 2681SOL     OW17010   5.060   3.856  11.401  0.5716  0.4303  0.1787
 2681SOL    HW117011   5.071   3.827  11.311 -0.5611 -2.1784  0.7831
 2681SOL    HW217012   4.992   3.923  11.397  1.0403  0.8653 -0.9602
 2682SOL     OW17013  11.542  12.405  10.167  0.5452  0.5030  0.0098
 2682SOL    HW117014  11.564  12.495  10.142 -1.1021  1.0991  0.5410
 2682SOL    HW217015  11.590  12.350  10.105 -1.4275  1.8391 -2.9490
 2683SOL     OW17016   5.695  11.095   5.974 -0.9941  0.4653  0.2199
 2683SOL    HW117017   5.600  11.104   5.966 -1.1424  0.1682  1.4397
 2683SOL    HW217018   5.725  11.182   6.001 -1.0517  0.2783  0.8895
 2684SOL     OW17019   6.105   9.384   8.490 -0.3417 -0.0120  0.2267
 2684SOL    HW117020   6.059   9.379   8.573 -0.8030 -1.1570 -0.0741
 2684SOL    HW217021   6.198   9.378   8.513 -0.4783 -0.5778  0.6393
 2685SOL     OW17022   3.376   3.073   7.621 -0.1631  0.1301  0.0829
 2685SOL    HW117023   3.395   2.989   7.661 -0.7146  0.3840  0.9009
 2685SOL    HW217024   3.354   3.052   7.530  2.2158 -0.3374 -0.4366
 2686SOL     OW17025  11.681   5.678   8.833  0.1675 -0.3715 -0.2199
 2686SOL    HW117026  11.653   5.591   8.861 -0.6459 -0.1167 -0.1936
 2686SOL    HW217027  11.751   5.663   8.770 -0.2310 -1.0578 -0.5086
 2687SOL     OW17028   5.839  10.606   2.512 -0.0189  0.1296 -0.2627
 2687SOL    HW117029   5.832  10.699   2.490 -1.2535  0.1193  0.0120
 2687SOL    HW217030   5.802  10.561   2.437 -0.5773 -0.0842  0.1382
 2688SOL     OW17031   8.173   9.710   2.742 -0.1751 -0.0519  0.2465
 2688SOL    HW117032   8.101   9.702   2.679 -0.5672  0.6765  0.5842
 2688SOL    HW217033   8.199   9.802   2.737 -0.4933  0.1220  1.4202
 2689SOL     OW17034   9.852   8.560   7.257 -0.8203 -0.0620 -0.1114
 2689SOL    HW117035   9.757   8.553   7.245 -0.8696 -0.0132  0.2237
 2689SOL    HW217036   9.866   8.650   7.285 -0.6275  0.0482 -0.5706
 2690SOL     OW17037   2.101   9.277  12.007 -0.0466  0.1362 -0.5182
 2690SOL    HW117038   2.047   9.265  11.929  0.6155  0.5509 -1.0516
 2690SOL    HW217039   2.128   9.189  12.032 -0.8938 -0.0708 -0.2851
 2691SOL     OW17040   5.580   1.454   1.430  0.0328 -0.0366  0.3623
 2691SOL    HW117041   5.490   1.425   1.443 -1.2920  1.5440 -3.6726
 2691SOL    HW217042   5.589   1.530   1.487 -1.6669  0.5040 -0.0346
 2692SOL     OW17043  11.801   7.041   6.839 -0.1900 -0.2539 -0.1795
 2692SOL    HW117044  11.736   7.108   6.821 -1.3014 -1.4778 -0.9042
 2692SOL    HW217045  11.753   6.958   6.833  0.8569 -1.0800  1.9256
 2693SOL     OW17046   8.102   1.967  11.803 -0.5506 -0.7195  0.0721
 2693SOL    HW117047   8.031   1.958  11.740  0.9129 -1.0696 -1.6007
 2693SOL    HW217048   8.128   1.877  11.823  0.6194 -0.5978 -0.7840
 2694SOL     OW17049  11.115   0.405   2.403  0.3653 -0.0894  0.3281
 2694SOL    HW117050  11.114   0.479   2.342  0.8491  0.1740  0.6312
 2694SOL    HW217051  11.188   0.423   2.462  0.5196 -0.8344  0.3821
 2695SOL     OW17052  11.345   2.600   3.849 -0.6204 -0.2603 -0.3944
 2695SOL    HW117053  11.324   2.507   3.841  1.7323 -0.7504 -1.9232
 2695SOL    HW217054  11.348   2.631   3.758  1.3177  0.5954 -0.0855
 2696SOL     OW17055  12.109   1.029   0.118  0.0368 -0.5587  0.4075
 2696SOL    HW117056  12.043   0.961   0.106 -0.3373 -0.1970  0.3905
 2696SOL    HW217057  12.088   1.095   0.052  0.6932 -0.6502  0.1010
 2697SOL     OW17058   1.041   2.725   8.426  0.5518  0.0874 -0.0868
 2697SOL    HW117059   0.956   2.709   8.385 -0.3998  1.4943  1.2010
 2697SOL    HW217060   1.095   2.762   8.356  0.1456 -0.8865 -0.9390
 2698SOL     OW17061   1.267   8.036  11.475  0.6030 -0.2062 -0.3234
 2698SOL    HW117062   1.189   8.038  11.418  0.8012  1.8507 -0.5981
 2698SOL    HW217063   1.340   8.029  11.414  0.7912  1.5595 -0.3522
 2699SOL     OW17064   1.070   1.402  11.197  0.0201  0.0487  0.0164
 2699SOL    HW117065   1.004   1.470  11.184 -1.0398 -0.5388  2.0027
 2699SOL    HW217066   1.138   1.423  11.133 -1.5064  1.3819 -1.2771
 2700SOL     OW17067   3.807   3.335   1.097  0.3725 -0.1790  0.6896
 2700SOL    HW117068   3.864   3.412   1.102  1.8051 -1.2045  0.8553
 2700SOL    HW217069   3.788   3.314   1.189 -0.8365  0.5298  0.6220
 2701SOL     OW17070   3.428   2.399   7.750  0.3192 -0.9290  0.0127
 2701SOL    HW117071   3.504   2.359   7.793 -0.2482 -3.0384 -0.8156
 2701SOL    HW217072   3.357   2.390   7.813  0.1416 -1.4294 -0.2557
 2702SOL     OW17073   5.642   6.364   0.645  0.3868 -0.0531 -0.4131
 2702SOL    HW117074   5.615   6.441   0.596 -2.4200  0.5245  1.7517
 2702SOL    HW217075   5.685   6.400   0.723  1.3089 -0.8158 -0.5468
 2703SOL     OW17076   1.190   7.271  10.814 -0.3744  0.0196  0.0339
 2703SOL    HW117077   1.220   7.226  10.893 -0.4666 -0.2136 -0.0612
 2703SOL    HW217078   1.234   7.225  10.742  1.6903  1.7929  0.0598
 2704SOL     OW17079   7.094   1.410   0.610 -0.2491 -0.2952  0.0227
 2704SOL    HW117080   7.127   1.443   0.527 -0.2239 -0.3959 -0.0079
 2704SOL    HW217081   7.008   1.449   0.620  1.1052  2.5838  1.6451
 2705SOL     OW17082   5.896  10.321   1.274 -0.5076  0.6919  0.0531
 2705SOL    HW117083   5.982  10.315   1.233 -0.1894 -1.0968  0.8673
 2705SOL    HW217084   5.834  10.295   1.206 -0.4188  1.9371 -0.5209
 2706SOL     OW17085   7.903   3.238  12.168  0.0593  0.3781 -0.2499
 2706SOL    HW117086   7.965   3.164  12.167 -0.2547  0.1159 -0.4481
 2706SOL    HW217087   7.818   3.198  12.154 -0.1282  0.7699 -0.2290
 2707SOL     OW17088   7.303   7.840   7.371 -0.1869  0.1653  0.1362
 2707SOL    HW117089   7.355   7.801   7.442  0.9082  1.4396  0.0682
 2707SOL    HW217090   7.223   7.870   7.415 -0.1682 -0.3683  0.5492
 2708SOL     OW17091   6.143   4.867   7.983 -0.2667  0.0918  0.1135
 2708SOL    HW117092   6.236   4.848   7.979 -0.0142  1.4122 -0.9724
 2708SOL    HW217093   6.138   4.960   8.007 -1.2319  0.5442 -1.6660
 2709SOL     OW17094   5.115  11.885   7.037  0.1777  0.7123 -0.4715
 2709SOL    HW117095   5.151  11.867   7.124 -0.4889  1.5570 -0.0036
 2709SOL    HW217096   5.134  11.806   6.986  0.7107  0.2674  0.3984
 2710SOL     OW17097   3.009   4.341  12.272  0.4002 -0.5532 -0.2464
 2710SOL    HW117098   2.954   4.342  12.350  1.6747 -2.7812  0.7671
 2710SOL    HW217099   2.947   4.342  12.199 -0.8995 -0.7556  0.8274
 2711SOL     OW17100   9.613   8.039  10.306 -0.3465  0.1922  0.3952
 2711SOL    HW117101   9.563   7.957  10.314 -1.5168  0.7615 -0.7096
 2711SOL    HW217102   9.697   8.012  10.270 -0.3860 -0.6145  0.8670
 2712SOL     OW17103   3.530   0.570   4.549 -0.3352 -0.0718 -0.0686
 2712SOL    HW117104   3.547   0.496   4.490  1.3076 -0.2549  0.6025
 2712SOL    HW217105   3.595   0.562   4.618  0.3224  2.3859 -0.3197
 2713SOL     OW17106   9.858  10.479  10.331  0.2634  0.8134  0.0505
 2713SOL    HW117107   9.927  10.473  10.266 -0.6435  1.2622 -0.9743
 2713SOL    HW217108   9.802  10.551  10.301 -0.4169  0.7362  1.0805
 2714SOL     OW17109  12.028   8.707   1.314  0.0995  0.9190  0.0061
 2714SOL    HW117110  12.098   8.734   1.255  0.1807  0.4605 -0.1091
 2714SOL    HW217111  12.037   8.765   1.389  0.9997  0.4536  0.2727
 2715SOL     OW17112   2.085   1.580   1.532  0.1041 -0.2501 -0.4395
 2715SOL    HW117113   2.180   1.584   1.538  0.1791 -1.7159 -0.2529
 2715SOL    HW217114   2.054   1.605   1.619  0.3256  0.0307 -0.4409
 2716SOL     OW17115   7.616   3.534  10.345  0.0713  0.1514 -0.6668
 2716SOL    HW117116   7.638   3.461  10.288  1.6352  0.3023 -0.3100
 2716SOL    HW217117   7.522   3.526  10.360  0.1843 -1.6963 -0.7490
 2717SOL     OW17118   6.770   9.831   3.799  0.4071 -0.1737 -0.7221
 2717SOL    HW117119   6.847   9.814   3.743  1.0154  0.7951 -0.1952
 2717SOL    HW217120   6.708   9.875   3.741 -0.0543 -1.5670 -1.3375
 2718SOL     OW17121   8.804  11.421   6.484 -0.1334  0.2404 -0.3617
 2718SOL    HW117122   8.738  11.361   6.449 -0.0989  0.5594 -0.9857
 2718SOL    HW217123   8.756  11.501   6.505 -0.0454  0.2726 -0.2795
 2719SOL     OW17124   7.882  10.824   9.141 -0.3845  0.0565  0.1224
 2719SOL    HW117125   7.906  10.873   9.063 -1.2130 -1.0984 -0.8991
 2719SOL    HW217126   7.874  10.890   9.210  1.5425  0.9528 -0.4572
 2720SOL     OW17127   6.198   4.027   0.351  0.1053  0.2844 -0.1738
 2720SOL    HW117128   6.148   4.109   0.358 -1.8712 -0.9193  0.5300
 2720SOL    HW217129   6.147   3.974   0.290  0.8521 -0.7755  0.1153
 2721SOL     OW17130  12.486   8.430   2.461 -0.1925  0.2674 -0.3354
 2721SOL    HW117131  12.434   8.507   2.440  1.9384  1.6267 -0.9211
 2721SOL    HW217132  12.536   8.455   2.539  0.4767 -0.5367 -0.4879
 2722SOL     OW17133   8.709   7.270   6.585 -0.5231  0.1587 -0.5118
 2722SOL    HW117134   8.708   7.264   6.681 -1.6780  0.7335 -0.4681
 2722SOL    HW217135   8.618   7.257   6.560 -0.2807  0.3473 -1.5180
 2723SOL     OW17136   8.997   3.520   7.816 -0.0482  0.1758  0.5636
 2723SOL    HW117137   8.983   3.433   7.853  1.3164 -0.0972  0.4637
 2723SOL    HW217138   8.925   3.573   7.851 -0.4722 -0.8028  1.2062
 2724SOL     OW17139  12.467   1.593   6.396  0.2844 -0.0450 -0.3969
 2724SOL    HW117140  12.509   1.549   6.322 -1.5595  0.1448 -1.6248
 2724SOL    HW217141  12.447   1.680   6.364 -0.1852  0.1813  0.4793
 2725SOL     OW17142   2.009   0.597   6.353  0.1626  0.2439 -0.2955
 2725SOL    HW117143   1.915   0.585   6.342  0.0970 -0.2215  0.6782
 2725SOL    HW217144   2.026   0.685   6.319 -0.5963  0.2771 -0.6081
 2726SOL     OW17145  10.540   9.944   6.143 -0.2414  0.0432  0.4287
 2726SOL    HW117146  10.600   9.930   6.217  0.4110 -0.6495 -0.2246
 2726SOL    HW217147  10.583   9.903   6.069 -1.3155 -0.0552 -0.1566
 2727SOL     OW17148   9.018   4.946   8.989  0.3144 -0.0200 -0.0539
 2727SOL    HW117149   9.011   4.989   9.074  1.9897 -0.2965  0.2458
 2727SOL    HW217150   9.109   4.917   8.984 -0.3407 -2.1140 -0.9189
 2728SOL     OW17151   4.131   2.801   6.497 -0.4874  0.5119 -0.4236
 2728SOL    HW117152   4.099   2.796   6.407 -0.8024  0.8530 -0.3344
 2728SOL    HW217153   4.095   2.883   6.530  1.6220  1.6513 -0.7611
 2729SOL     OW17154   5.347   6.359   9.822 -0.1546  0.2933 -0.0671
 2729SOL    HW117155   5.381   6.364   9.732  0.6917 -0.7285  0.1838
 2729SOL    HW217156   5.417   6.395   9.876 -0.1177 -0.3259  0.3034
 2730SOL     OW17157   3.793   5.637   8.274  0.0547  0.2314  0.0276
 2730SOL    HW117158   3.834   5.606   8.355  0.9930  1.2602 -0.0385
 2730SOL    HW217159   3.737   5.710   8.301 -0.7378 -0.3273 -0.0678
 2731SOL     OW17160   7.674   5.050   8.469 -0.5790  0.2467  0.5216
 2731SOL    HW117161   7.726   5.130   8.470 -1.2469  0.7133 -0.3322
 2731SOL    HW217162   7.659   5.030   8.561  0.3616  0.5940  0.7557
 2732SOL     OW17163   8.947   2.934  11.513  0.3044 -0.4981 -0.6085
 2732SOL    HW117164   8.888   2.930  11.589  0.3301 -1.2261 -0.6229
 2732SOL    HW217165   8.894   2.972  11.443 -0.9175 -3.2670 -1.3052
 2733SOL     OW17166   4.003  10.661   3.524  0.1602  0.3333  0.0549
 2733SOL    HW117167   4.049  10.581   3.549 -0.2027  0.2685  0.5223
 2733SOL    HW217168   4.059  10.701   3.457  1.6687  1.0158  1.6189
 2734SOL     OW17169   8.347   1.057   9.591 -0.1731  0.1935  0.2259
 2734SOL    HW117170   8.254   1.062   9.616 -0.5746 -1.0441 -0.8951
 2734SOL    HW217171   8.379   0.977   9.632  0.0620 -0.0200 -0.3562
 2735SOL     OW17172   5.580  10.628   0.222 -0.0802 -0.1705 -0.2959
 2735SOL    HW117173   5.555  10.581   0.301  0.1999  0.2647  0.0531
 2735SOL    HW217174   5.613  10.560   0.163 -0.8405 -0.5779 -0.2748
 2736SOL     OW17175   2.575  10.785  10.261 -0.5593  0.2152 -0.1729
 2736SOL    HW117176   2.552  10.776  10.168  1.8448  0.5925 -0.8947
 2736SOL    HW217177   2.607  10.698  10.286 -1.4932  0.0351  0.3951
 2737SOL     OW17178   2.306  10.289   0.524 -0.0087 -0.8129 -0.0291
 2737SOL    HW117179   2.315  10.250   0.612  1.3535 -1.1636 -0.2988
 2737SOL    HW217180   2.300  10.214   0.465 -1.9014 -0.5784 -0.1751
 2738SOL     OW17181   5.915   9.799   5.377  0.5319  0.3084 -0.4051
 2738SOL    HW117182   5.876   9.855   5.310 -1.7725 -2.0460 -1.2257
 2738SOL    HW217183   5.844   9.785   5.440  0.9435 -1.7511 -0.3383
 2739SOL     OW17184   7.533  12.470  12.329 -0.4875  0.3464 -0.5039
 2739SOL    HW117185   7.573  12.467  12.416 -2.7715  0.4343  0.6103
 2739SOL    HW217186   7.478  12.548  12.331 -0.6052  0.3248 -2.0330
 2740SOL     OW17187   5.702   1.001   5.557  0.0554 -0.3647  0.5707
 2740SOL    HW117188   5.733   0.922   5.602  0.9568 -0.9022 -0.8933
 2740SOL    HW217189   5.782   1.045   5.528 -0.4670  0.5824  0.5290
 2741SOL     OW17190   4.346   8.871   6.096  0.4943 -0.0734  0.4724
 2741SOL    HW117191   4.416   8.861   6.032  0.4395 -1.2232  0.5781
 2741SOL    HW217192   4.319   8.963   6.088 -0.2705 -0.4544 -1.9232
 2742SOL     OW17193   3.693  10.855   3.016  0.0221  0.4875  0.2989
 2742SOL    HW117194   3.704  10.927   2.955  2.6787  0.6197  0.8278
 2742SOL    HW217195   3.683  10.778   2.960 -0.3603  0.9354 -0.2663
 2743SOL     OW17196   2.208   0.522   1.036 -0.0763 -0.0946 -0.0562
 2743SOL    HW117197   2.227   0.469   0.958 -1.5148 -0.0852 -0.4577
 2743SOL    HW217198   2.251   0.476   1.107  0.7069 -0.4790 -0.7621
 2744SOL     OW17199   0.392   8.940   1.905  0.5712  0.1337  0.1108
 2744SOL    HW117200   0.370   8.976   1.991  1.4358 -1.5847  1.1046
 2744SOL    HW217201   0.485   8.959   1.894  0.8358 -0.9793  0.2766
 2745SOL     OW17202   7.869   2.789   1.406  0.1923  0.5380 -0.4138
 2745SOL    HW117203   7.789   2.736   1.409 -0.6505  1.7375 -0.9232
 2745SOL    HW217204   7.940   2.725   1.413 -0.7869 -0.6419 -0.8089
 2746SOL     OW17205   9.381   9.019   0.900 -0.3170 -0.3845  0.4031
 2746SOL    HW117206   9.393   9.113   0.905  1.1574 -0.5617  0.5724
 2746SOL    HW217207   9.432   8.992   0.824 -1.8872 -0.8912 -0.5163
 2747SOL     OW17208   5.519  11.267  11.294 -0.5865  0.5451  0.1881
 2747SOL    HW117209   5.499  11.229  11.379 -0.8249  0.0812 -0.0702
 2747SOL    HW217210   5.607  11.237  11.273  0.4041  2.4982  1.2748
 2748SOL     OW17211   5.463  10.141   1.187 -0.0571 -0.1095 -0.7500
 2748SOL    HW117212   5.545  10.103   1.218  0.1230  1.4732  0.8972
 2748SOL    HW217213   5.489  10.221   1.141 -0.5465 -0.8114 -2.2749
 2749SOL     OW17214   3.005   7.927  10.609  0.5202 -0.4293  0.2571
 2749SOL    HW117215   2.916   7.954  10.631  0.5939  1.0829 -1.0896
 2749SOL    HW217216   2.998   7.891  10.521  1.1461 -0.8200  0.3605
 2750SOL     OW17217   0.626   7.501   8.282 -0.2004 -0.0483 -0.2536
 2750SOL    HW117218   0.710   7.504   8.237 -0.9594 -1.1100 -1.8280
 2750SOL    HW217219   0.649   7.497   8.375  1.5955 -2.6827 -0.7001
 2751SOL     OW17220   9.486   2.109  11.755 -0.6324 -0.3270 -0.5613
 2751SOL    HW117221   9.433   2.189  11.765 -1.5177 -0.8079 -1.2843
 2751SOL    HW217222   9.534   2.102  11.838 -2.3253 -0.3215  0.4768
 2752SOL     OW17223   7.655  10.298  10.223 -0.2953  0.3789 -0.3828
 2752SOL    HW117224   7.715  10.324  10.293  0.5634 -1.1147 -0.5144
 2752SOL    HW217225   7.656  10.202  10.226 -1.4503  0.3122 -1.4465
 2753SOL     OW17226  10.990  11.114   6.996 -0.6788  0.0769 -0.7121
 2753SOL    HW117227  11.022  11.203   6.982 -1.0624  0.4501  0.6228
 2753SOL    HW217228  11.057  11.072   7.050 -0.0540 -0.7644 -2.0802
 2754SOL     OW17229  11.711  10.694   8.403 -0.1668  0.4501  0.5305
 2754SOL    HW117230  11.791  10.642   8.401  0.9603  2.1293 -1.2453
 2754SOL    HW217231  11.736  10.775   8.447  0.2079  2.4661 -3.0142
 2755SOL     OW17232   9.249   5.832   4.819  0.5166  0.1776 -0.2565
 2755SOL    HW117233   9.260   5.907   4.879  0.3027 -0.6254  0.8226
 2755SOL    HW217234   9.300   5.855   4.742  1.0695  1.1117  0.3696
 2756SOL     OW17235   0.951  12.282   9.535  0.1850 -0.1295 -0.1355
 2756SOL    HW117236   1.020  12.223   9.566  1.5847  0.9092 -1.1213
 2756SOL    HW217237   0.930  12.251   9.447  0.9731  0.8218 -0.6868
 2757SOL     OW17238  11.763   2.124   1.908 -0.2330  0.1760  0.3059
 2757SOL    HW117239  11.857   2.106   1.896 -0.5074 -1.3109  0.2575
 2757SOL    HW217240  11.759   2.218   1.927  1.1013  0.6780 -1.6244
 2758SOL     OW17241   9.890   8.819   3.643  0.6005 -0.2651 -0.2471
 2758SOL    HW117242   9.886   8.865   3.559  1.8362  1.3873  0.5398
 2758SOL    HW217243   9.958   8.753   3.631  1.0044  0.1848 -0.4465
 2759SOL     OW17244  10.101   9.831   9.252  0.1346 -0.7602 -0.1955
 2759SOL    HW117245  10.116   9.809   9.160  1.0827  0.2584 -0.3054
 2759SOL    HW217246  10.053   9.914   9.249  0.5545 -0.4986  0.2230
 2760SOL     OW17247  10.691   2.760   2.970 -0.0459  0.2177 -0.3610
 2760SOL    HW117248  10.613   2.788   3.017  1.3854  2.0434  1.1089
 2760SOL    HW217249  10.682   2.666   2.961 -1.9998  0.2873  0.5152
 2761SOL     OW17250  10.788   2.552   6.920 -0.2530 -0.7179  0.3572
 2761SOL    HW117251  10.720   2.577   6.983 -1.9193 -0.7153 -1.3351
 2761SOL    HW217252  10.856   2.619   6.930 -1.2250  0.2072  1.0334
 2762SOL     OW17253  10.452  10.467   8.393  0.3914 -0.5671 -0.1782
 2762SOL    HW117254  10.469  10.517   8.472  0.2055  0.9279 -1.0309
 2762SOL    HW217255  10.473  10.528   8.321 -3.8026 -0.1390 -1.3123
 2763SOL     OW17256  12.039  11.111   3.738  0.0135  0.3459 -0.3369
 2763SOL    HW117257  11.998  11.033   3.777 -0.6960  1.6758  1.7809
 2763SOL    HW217258  12.090  11.078   3.664 -0.1538 -2.1233  0.5735
 2764SOL     OW17259  10.751   2.493   1.822  0.4109  0.1725 -0.1548
 2764SOL    HW117260  10.695   2.417   1.805  0.1935  0.1207  0.7065
 2764SOL    HW217261  10.834   2.456   1.851  0.6497  0.2588 -0.7164
 2765SOL     OW17262   8.234   3.727   6.701 -0.5105  0.3115  0.2384
 2765SOL    HW117263   8.330   3.727   6.696 -0.5668  0.5170 -1.3572
 2765SOL    HW217264   8.211   3.634   6.709 -0.1582  0.3251  1.5717
 2766SOL     OW17265   1.714  12.570   0.545 -0.1362  0.5920 -0.0707
 2766SOL    HW117266   1.620  12.584   0.541  0.1826  2.7775 -1.6176
 2766SOL    HW217267   1.724  12.486   0.590 -2.8793 -0.8023 -1.7882
 2767SOL     OW17268   4.120   0.795   0.465 -0.1565  0.4196 -0.8893
 2767SOL    HW117269   4.207   0.778   0.502 -0.7508  1.4117  1.1515
 2767SOL    HW217270   4.131   0.876   0.415  0.1494  0.4041 -0.8484
 2768SOL     OW17271   2.291  10.365   7.828 -0.4084  0.1402  0.4951
 2768SOL    HW117272   2.213  10.314   7.807 -0.6322 -0.2208  2.0450
 2768SOL    HW217273   2.257  10.446   7.866 -0.1468 -1.0788  3.6726
 2769SOL     OW17274   3.857   4.174   7.037  0.3996 -0.2813  0.0544
 2769SOL    HW117275   3.935   4.196   7.088 -0.1348  1.1330  0.3070
 2769SOL    HW217276   3.816   4.103   7.087  1.2095 -0.6525  0.2185
 2770SOL     OW17277   8.301   8.271   5.777 -0.0993  0.2748  0.3995
 2770SOL    HW117278   8.248   8.328   5.722 -1.4480 -0.9496  0.3629
 2770SOL    HW217279   8.290   8.184   5.739 -0.8633 -0.5644  2.4141
 2771SOL     OW17280   0.319   7.332   6.711  0.2068 -0.3682  0.3540
 2771SOL    HW117281   0.296   7.239   6.714 -0.8471 -0.1793 -0.8086
 2771SOL    HW217282   0.369   7.342   6.631 -1.8149  0.4609 -0.8718
 2772SOL     OW17283   5.534  12.423   1.384 -0.0642 -0.4457  0.4038
 2772SOL    HW117284   5.539  12.327   1.384  1.9567 -0.3734  0.6345
 2772SOL    HW217285   5.624  12.452   1.370 -0.5610  1.4299  0.8466
 2773SOL     OW17286  10.323   6.992   0.870  0.4864  0.2583  0.1007
 2773SOL    HW117287  10.279   7.058   0.816 -0.3286  0.4052  0.9086
 2773SOL    HW217288  10.411   7.026   0.883  0.0154  1.3118  0.6818
 2774SOL     OW17289  11.903   7.595   0.636 -0.1209  0.1994 -0.4793
 2774SOL    HW117290  11.884   7.678   0.680 -3.2852 -1.5078  1.7722
 2774SOL    HW217291  11.867   7.606   0.548  1.1478  1.7499 -0.8557
 2775SOL     OW17292  10.242   7.339   5.617 -0.1529  0.5285 -0.2597
 2775SOL    HW117293  10.315   7.280   5.634 -0.9021 -0.6997 -1.1195
 2775SOL    HW217294  10.214   7.369   5.703  1.7724  1.5965  0.0587
 2776SOL     OW17295   1.546   5.092  10.257  0.2761  0.3496  0.2613
 2776SOL    HW117296   1.634   5.054  10.260  0.7501  1.3679 -0.3977
 2776SOL    HW217297   1.536   5.125  10.168 -0.6975  0.4458  0.3890
 2777SOL     OW17298  11.433   3.708  10.930 -0.6008 -0.1667  0.0094
 2777SOL    HW117299  11.502   3.649  10.961 -0.1625  0.5973  0.5277
 2777SOL    HW217300  11.413   3.678  10.841  0.1963 -0.5722 -0.0373
 2778SOL     OW17301   5.369   8.533   5.153 -0.3097  0.1562  0.3609
 2778SOL    HW117302   5.312   8.597   5.111 -0.3931 -0.9791 -1.3848
 2778SOL    HW217303   5.320   8.450   5.147  1.2351 -0.7324 -0.6502
 2779SOL     OW17304   1.919  11.036   2.053 -0.2145 -0.0839  0.0510
 2779SOL    HW117305   1.917  11.003   2.143 -0.0810 -0.7773 -0.1951
 2779SOL    HW217306   1.919  11.131   2.062  1.2233 -0.1255  0.8246
 2780SOL     OW17307   9.783   1.393   3.525 -0.4336 -0.2756  0.9267
 2780SOL    HW117308   9.777   1.305   3.489  1.2913 -0.5512  1.2168
 2780SOL    HW217309   9.834   1.383   3.605 -1.6441  0.7562  1.8755
 2781SOL     OW17310   5.832   8.620   1.750 -0.0173  0.1013  0.2450
 2781SOL    HW117311   5.741   8.639   1.726  0.8098  1.3176 -2.2728
 2781SOL    HW217312   5.832   8.527   1.773 -1.5049 -0.4821 -1.8411
 2782SOL     OW17313   6.713   5.990   0.624 -0.3877 -0.0314  0.4534
 2782SOL    HW117314   6.792   6.035   0.655 -0.0973 -0.7866  0.8131
 2782SOL    HW217315   6.647   6.010   0.690 -0.0123 -0.8782  1.1029
 2783SOL     OW17316   5.501   2.538   6.739 -0.0656  0.0168 -0.5500
 2783SOL    HW117317   5.526   2.535   6.647  0.7461 -0.6940 -0.3141
 2783SOL    HW217318   5.503   2.447   6.768 -0.4031  0.2234  0.1556
 2784SOL     OW17319   5.759   0.200   3.082 -0.6879 -0.4700  0.1273
 2784SOL    HW117320   5.694   0.131   3.096 -1.4741  0.1949 -0.2094
 2784SOL    HW217321   5.719   0.278   3.120  0.4915 -0.3273  1.1492
 2785SOL     OW17322  10.236   7.477   8.668  0.1374  0.4208 -0.2534
 2785SOL    HW117323  10.155   7.469   8.618  1.2336 -0.7490 -2.0159
 2785SOL    HW217324  10.235   7.403   8.728 -1.5595  2.2840  2.1827
 2786SOL     OW17325   3.323   5.525   3.324  0.1736 -0.3621 -0.1439
 2786SOL    HW117326   3.233   5.525   3.358 -0.0899  1.6988 -0.6963
 2786SOL    HW217327   3.370   5.463   3.379 -1.2540 -0.3966  1.1071
 2787SOL     OW17328  11.837   0.148   6.274  0.2581  0.2192  0.0406
 2787SOL    HW117329  11.857   0.089   6.347  0.7545  0.2820 -0.0375
 2787SOL    HW217330  11.923   0.167   6.235 -0.0806 -0.6402 -1.1949
 2788SOL     OW17331  10.670   8.155   3.787  0.6012 -0.1337 -0.0455
 2788SOL    HW117332  10.731   8.220   3.752  0.7003 -0.5396 -0.6344
 2788SOL    HW217333  10.585   8.199   3.784  0.8491  0.4432  0.8056
 2789SOL     OW17334   2.599   3.857   4.504 -0.0346 -0.0885 -0.4476
 2789SOL    HW117335   2.566   3.768   4.505  0.2337 -0.2568 -2.3584
 2789SOL    HW217336   2.550   3.903   4.572 -1.2872 -1.3052 -0.5101
 2790SOL     OW17337   5.143   4.786   1.420  0.1367 -0.0235 -0.6371
 2790SOL    HW117338   5.138   4.719   1.351  1.6825  0.0813 -0.8850
 2790SOL    HW217339   5.222   4.836   1.399  0.9815 -0.3432  1.5059
 2791SOL     OW17340   6.352   9.864   2.595 -0.0183 -0.6583  0.1287
 2791SOL    HW117341   6.421   9.919   2.631 -1.3152  0.6093  0.7792
 2791SOL    HW217342   6.273   9.891   2.642 -1.1772 -1.2409 -1.3997
 2792SOL     OW17343   9.871  10.260   9.053 -0.2297 -0.2579 -0.2491
 2792SOL    HW117344   9.837  10.309   8.978  0.2804  1.0885  0.3592
 2792SOL    HW217345   9.947  10.213   9.018 -0.6350 -0.5085 -0.8102
 2793SOL     OW17346   1.146   5.069   3.892  0.2893  0.3525 -0.3870
 2793SOL    HW117347   1.195   5.053   3.972  0.1366 -0.8162 -0.5071
 2793SOL    HW217348   1.135   5.164   3.889  0.6069  0.4427  0.7826
 2794SOL     OW17349   3.581   6.755   5.783 -0.6489 -0.2861  0.6058
 2794SOL    HW117350   3.540   6.725   5.702  1.1023 -2.9913  0.6030
 2794SOL    HW217351   3.668   6.786   5.756 -0.1985 -0.8523  1.3774
 2795SOL     OW17352  12.263  11.620   9.475 -0.1491  0.4555 -0.0765
 2795SOL    HW117353  12.193  11.583   9.529  0.0475  1.6307  1.0212
 2795SOL    HW217354  12.341  11.614   9.530  2.3061 -6.2213 -3.1041
 2796SOL     OW17355   9.092   2.517   1.011 -0.3154 -0.1131  0.1082
 2796SOL    HW117356   9.048   2.580   1.067  0.0151 -1.0036  1.4182
 2796SOL    HW217357   9.161   2.568   0.967  0.6563  0.2671  1.9671
 2797SOL     OW17358   8.351   7.840   9.815 -0.0475  0.2133 -0.3423
 2797SOL    HW117359   8.401   7.758   9.824 -0.6105 -0.1535 -0.5100
 2797SOL    HW217360   8.355   7.880   9.902 -0.0006 -0.1316 -0.1850
 2798SOL     OW17361   6.782   9.713   7.391  0.6135  0.1105 -0.5453
 2798SOL    HW117362   6.687   9.706   7.384 -0.0202  1.6024  3.6258
 2798SOL    HW217363   6.801   9.804   7.367  0.9122 -0.0338 -0.8583
 2799SOL     OW17364   6.781   2.033   2.561  0.0012 -0.6091 -0.7638
 2799SOL    HW117365   6.720   2.016   2.489 -1.4823 -0.4745  0.4141
 2799SOL    HW217366   6.863   2.055   2.518 -1.8080  3.5422 -2.6162
 2800SOL     OW17367   7.005   6.377   1.344  0.0336 -0.3731 -0.0742
 2800SOL    HW117368   7.052   6.439   1.400  0.7508 -0.1482 -0.9071
 2800SOL    HW217369   6.959   6.320   1.406  0.1768  0.3464  0.7254
 2801SOL     OW17370   0.548   2.485   5.914 -0.0293 -0.1050  0.2371
 2801SOL    HW117371   0.642   2.497   5.925  0.5268 -1.4097 -2.1971
 2801SOL    HW217372   0.537   2.390   5.904 -1.9635 -0.2594  2.7074
 2802SOL     OW17373   5.507   2.931   4.625 -1.0478 -0.3645 -0.0328
 2802SOL    HW117374   5.598   2.942   4.599 -1.0683 -1.4188 -0.6139
 2802SOL    HW217375   5.482   3.015   4.663  1.4880 -1.2752  4.3838
 2803SOL     OW17376   8.577   2.237   9.588  0.0342 -0.7635 -0.0237
 2803SOL    HW117377   8.650   2.246   9.527 -0.5842 -1.1217 -0.8465
 2803SOL    HW217378   8.555   2.144   9.585 -0.8189 -0.5615 -0.2293
 2804SOL     OW17379   7.976  10.864   8.678 -0.3360  0.0326 -0.0808
 2804SOL    HW117380   7.989  10.933   8.613 -3.4945  0.7698 -0.1343
 2804SOL    HW217381   8.029  10.891   8.753  0.1911  1.3426 -0.8944
 2805SOL     OW17382   0.424   4.226   3.829  0.1680 -0.0327  0.0966
 2805SOL    HW117383   0.385   4.271   3.904  0.6812  1.1728 -0.3331
 2805SOL    HW217384   0.364   4.243   3.757 -0.1243 -0.8643  0.1326
 2806SOL     OW17385  11.803  11.571   6.187  0.4185  0.6484  0.3765
 2806SOL    HW117386  11.758  11.631   6.246 -1.1915  1.0763 -1.2106
 2806SOL    HW217387  11.781  11.484   6.221 -2.8651  0.7789 -1.0962
 2807SOL     OW17388  11.455   3.179  12.396  0.4899  0.1857  0.0805
 2807SOL    HW117389  11.545   3.211  12.405  0.6475  0.4540 -2.0674
 2807SOL    HW217390  11.453   3.098  12.448  2.8418 -1.3976 -2.0787
 2808SOL     OW17391   7.194   4.673   7.231  0.3083  0.2005  0.2021
 2808SOL    HW117392   7.189   4.582   7.261  0.3252  0.0984 -0.0999
 2808SOL    HW217393   7.193   4.725   7.311 -1.5398  0.0230  0.3478
 2809SOL     OW17394   2.264  11.025  10.944  0.4472 -0.5249  0.3799
 2809SOL    HW117395   2.269  11.048  10.851 -0.6979 -1.2492  0.1213
 2809SOL    HW217396   2.200  11.086  10.981  1.0446 -0.1072  0.7525
 2810SOL     OW17397  11.648  12.165   0.064  0.8213  0.3324  0.6877
 2810SOL    HW117398  11.601  12.086   0.040 -0.8684  0.7451  2.3739
 2810SOL    HW217399  11.736  12.136   0.085  0.4541 -0.9715  0.4612
 2811SOL     OW17400   4.533   1.330   9.232 -0.1224 -1.0604 -0.2997
 2811SOL    HW117401   4.544   1.334   9.327  0.5436  1.2631 -0.3992
 2811SOL    HW217402   4.441   1.350   9.218 -0.2675 -1.6121 -0.1336
 2812SOL     OW17403   4.551   9.078   7.354 -0.0703 -0.4386 -0.8541
 2812SOL    HW117404   4.456   9.069   7.355 -0.2088  0.7152 -1.6288
 2812SOL    HW217405   4.574   9.102   7.444 -0.6322  0.3100 -0.9050
 2813SOL     OW17406  11.971   4.456  11.436 -0.1792 -0.1696  0.6415
 2813SOL    HW117407  11.901   4.500  11.483  1.0042  1.2342  1.1933
 2813SOL    HW217408  12.014   4.527  11.387  0.2338 -1.1643 -0.4873
 2814SOL     OW17409   9.097   8.663   0.408  0.3942  0.1584  0.2393
 2814SOL    HW117410   9.107   8.758   0.403  2.8750  0.0439  1.5551
 2814SOL    HW217411   9.046   8.640   0.330  0.3573  2.4610 -0.4968
 2815SOL     OW17412   6.965   0.412   9.181 -0.1305 -0.0644  0.0377
 2815SOL    HW117413   6.907   0.426   9.107 -0.8101  0.1732  0.6046
 2815SOL    HW217414   7.047   0.454   9.155 -0.5653  0.5844 -0.3188
 2816SOL     OW17415   0.015   2.914   8.954 -0.6621 -0.0097  0.0118
 2816SOL    HW117416  -0.074   2.918   8.990 -0.2242  0.5968  1.0783
 2816SOL    HW217417   0.031   2.821   8.940 -1.1836 -0.1882  0.5461
 2817SOL     OW17418   2.044   9.845   7.944 -0.2505  0.1543  0.1578
 2817SOL    HW117419   1.954   9.815   7.961  0.0684 -1.1531 -0.3392
 2817SOL    HW217420   2.046   9.934   7.979 -0.7946 -0.9373  3.2688
 2818SOL     OW17421   9.944   1.536   1.871 -0.0930  0.6000  0.2449
 2818SOL    HW117422  10.024   1.584   1.851  0.2806 -0.5182 -1.1613
 2818SOL    HW217423   9.936   1.540   1.966  0.8486  1.9299  0.2895
 2819SOL     OW17424  11.988   5.674   6.123  0.0536  0.1238 -0.1832
 2819SOL    HW117425  12.078   5.643   6.131  0.2082  0.5724 -0.1443
 2819SOL    HW217426  11.959   5.688   6.213 -0.1513 -0.2907 -0.1850
 2820SOL     OW17427  11.459   2.807   3.132  0.5428 -0.0227 -0.0264
 2820SOL    HW117428  11.440   2.896   3.162  0.9216  0.3743 -0.9311
 2820SOL    HW217429  11.530   2.817   3.068  1.2332 -1.0821  0.5499
 2821SOL     OW17430   3.280   3.542   0.674 -0.1697 -0.0481  0.2572
 2821SOL    HW117431   3.255   3.541   0.766  0.9397  1.0166  0.6063
 2821SOL    HW217432   3.297   3.634   0.654  1.6196 -0.4721 -0.4122
 2822SOL     OW17433  12.243   8.576   6.854  0.0052  0.1105  0.1522
 2822SOL    HW117434  12.324   8.525   6.862 -0.0436  0.1770  1.1861
 2822SOL    HW217435  12.242   8.605   6.763  1.1165  0.0530  0.1042
 2823SOL     OW17436   0.519   6.996   6.735  0.0693  0.4074 -0.9559
 2823SOL    HW117437   0.461   6.930   6.773  1.1121  0.3616  0.6731
 2823SOL    HW217438   0.535   6.966   6.646  0.6495 -1.6841 -0.2049
 2824SOL     OW17439   3.078   9.244   1.487 -0.1800 -0.0069  0.3203
 2824SOL    HW117440   2.996   9.218   1.444  0.7114 -0.7781 -1.0105
 2824SOL    HW217441   3.124   9.161   1.503  0.4623  0.4317  0.7867
 2825SOL     OW17442  10.028   0.249   5.159  0.1179  0.1324 -0.2747
 2825SOL    HW117443  10.084   0.310   5.112  1.0194 -1.6892 -1.7055
 2825SOL    HW217444  10.078   0.167   5.161 -1.7901 -1.0969 -0.1125
 2826SOL     OW17445   7.844   8.553   7.902  0.4476 -0.0989  0.1813
 2826SOL    HW117446   7.891   8.588   7.826 -0.9894 -1.5630 -1.4789
 2826SOL    HW217447   7.760   8.598   7.901  0.1388 -0.6610  0.4559
 2827SOL     OW17448   6.516   9.466   3.598 -0.1807  0.2399  0.4895
 2827SOL    HW117449   6.471   9.505   3.523 -1.5637 -1.0609  0.5820
 2827SOL    HW217450   6.480   9.512   3.674 -1.2459 -0.6500  0.5480
 2828SOL     OW17451   4.734  10.250   2.216  0.2591  0.1350 -0.3001
 2828SOL    HW117452   4.758  10.299   2.138 -1.0105  2.1918  0.5116
 2828SOL    HW217453   4.659  10.196   2.189 -0.1239  0.7767 -0.5256
 2829SOL     OW17454   9.876  11.081   5.672  0.5474  0.3606  0.3135
 2829SOL    HW117455   9.856  11.169   5.640 -2.1912 -0.4415 -0.4612
 2829SOL    HW217456   9.831  11.075   5.756  2.9675  0.5226  1.7141
 2830SOL     OW17457   0.430   2.557   5.320  0.5032  0.2566 -0.1258
 2830SOL    HW117458   0.523   2.569   5.300  0.5816 -1.2976 -0.9013
 2830SOL    HW217459   0.429   2.520   5.409  0.6087  0.5530 -0.0012
 2831SOL     OW17460  11.587  12.271  12.131  0.4533 -0.3395 -0.6415
 2831SOL    HW117461  11.628  12.306  12.052  0.8824  0.3340 -0.1255
 2831SOL    HW217462  11.633  12.189  12.148  0.5204 -0.3666 -0.9493
 2832SOL     OW17463   4.424   5.233   8.344  0.2812  0.5607 -0.2510
 2832SOL    HW117464   4.407   5.237   8.438  0.1195  2.3368 -0.3148
 2832SOL    HW217465   4.422   5.140   8.323  0.8053  0.0840  1.5833
 2833SOL     OW17466   5.097   0.354  12.055 -0.2930  0.2439 -0.1432
 2833SOL    HW117467   5.165   0.422  12.062  1.4790 -1.5220  0.7934
 2833SOL    HW217468   5.043   0.367  12.133  1.8203 -1.1566  1.6723
 2834SOL     OW17469   1.158   5.721   6.530 -0.3302 -0.0396  0.5554
 2834SOL    HW117470   1.180   5.684   6.444  1.2283  0.3322  0.7728
 2834SOL    HW217471   1.242   5.745   6.568 -1.1411  1.7713  1.3169
 2835SOL     OW17472   6.594   0.178   0.361 -0.1338  0.3828 -0.4166
 2835SOL    HW117473   6.583   0.270   0.385 -0.6626  0.4727 -0.9598
 2835SOL    HW217474   6.604   0.179   0.266 -0.1010 -0.1155 -0.4226
 2836SOL     OW17475  10.442  10.542   9.225  0.4681  0.0946 -0.1304
 2836SOL    HW117476  10.510  10.595   9.267  0.7907 -0.6960  0.3814
 2836SOL    HW217477  10.490  10.492   9.159 -0.1319  1.7882 -1.9341
 2837SOL     OW17478   1.912   5.680  10.611  0.3346  0.3080  0.8235
 2837SOL    HW117479   1.883   5.751  10.668 -1.0485  1.0347 -0.7240
 2837SOL    HW217480   1.887   5.708  10.523  0.5513 -1.7026  0.0793
 2838SOL     OW17481   3.760  10.163   7.468 -0.1134  0.1684 -0.2312
 2838SOL    HW117482   3.688  10.146   7.407 -1.7528  1.5771  1.1773
 2838SOL    HW217483   3.719  10.214   7.539  1.2435 -2.7628  2.9276
 2839SOL     OW17484   6.780   3.010   5.725  0.1905 -0.1453  0.0410
 2839SOL    HW117485   6.767   2.931   5.673  1.4716 -0.8310  0.7388
 2839SOL    HW217486   6.719   3.074   5.686 -0.3161 -1.2263 -1.0083
 2840SOL     OW17487   0.853   4.041   2.752 -0.1191  0.8849  0.0050
 2840SOL    HW117488   0.766   4.081   2.757  0.2337  1.7329 -0.4883
 2840SOL    HW217489   0.891   4.055   2.838 -0.0954  1.3876 -0.0879
 2841SOL     OW17490  10.170   5.402  10.832 -0.1640 -0.2613 -0.3012
 2841SOL    HW117491  10.216   5.417  10.915  0.6933  0.3051 -0.8617
 2841SOL    HW217492  10.197   5.474  10.776 -1.1817 -0.3202 -0.9016
 2842SOL     OW17493   5.811   7.861   4.650  0.5921  0.4064  0.1842
 2842SOL    HW117494   5.890   7.885   4.601  1.0622 -1.7439 -0.2252
 2842SOL    HW217495   5.740   7.871   4.586  0.8398  0.1674 -0.1300
 2843SOL     OW17496   1.820   2.069   4.708 -0.2065 -0.1319  0.6258
 2843SOL    HW117497   1.767   2.017   4.648 -0.1325 -0.5114  0.8853
 2843SOL    HW217498   1.773   2.152   4.716  0.7957  0.7402 -1.5501
 2844SOL     OW17499  10.791   3.095   7.628  0.3437 -0.1230 -0.0973
 2844SOL    HW117500  10.720   3.100   7.564  0.6582 -0.5729 -0.4863
 2844SOL    HW217501  10.870   3.076   7.576  0.4317 -1.5884  0.5173
 2845SOL     OW17502   5.377   4.832   3.826 -0.1897  0.5523 -0.4329
 2845SOL    HW117503   5.291   4.866   3.802 -2.2029 -3.2640  0.4509
 2845SOL    HW217504   5.388   4.753   3.773  1.3981 -0.6488  1.4898
 2846SOL     OW17505   8.714   8.144  10.776  0.1443  0.1268  0.2666
 2846SOL    HW117506   8.731   8.109  10.688  0.7511  1.6328 -0.2549
 2846SOL    HW217507   8.625   8.180  10.770 -1.0444 -2.3804  1.2053
 2847SOL     OW17508   3.436   0.264   8.241  0.3453 -0.3750  0.2681
 2847SOL    HW117509   3.391   0.230   8.164  0.3926 -0.2858  0.2004
 2847SOL    HW217510   3.432   0.192   8.305  2.1825 -1.2822 -0.5566
 2848SOL     OW17511  11.244   4.015   2.388 -0.3535 -0.2730 -0.0865
 2848SOL    HW117512  11.309   4.084   2.373 -1.8399  1.2834  0.3444
 2848SOL    HW217513  11.277   3.940   2.338  2.9262 -0.3371  1.8616
 2849SOL     OW17514   4.839   1.414   9.449 -0.1802 -0.5222  0.3058
 2849SOL    HW117515   4.909   1.425   9.384 -1.2788 -0.4399 -0.8919
 2849SOL    HW217516   4.884   1.377   9.526  0.9372 -1.9098 -0.9502
 2850SOL     OW17517   3.966   9.295   4.352  0.4187 -0.0177  0.1703
 2850SOL    HW117518   3.872   9.286   4.336  0.5194  0.1583 -0.5323
 2850SOL    HW217519   3.984   9.388   4.343  1.1169 -0.3098 -2.4296
 2851SOL     OW17520   6.378   3.491   0.237  0.2662  0.2793  0.3378
 2851SOL    HW117521   6.414   3.420   0.291  0.4470  1.6164  2.0538
 2851SOL    HW217522   6.437   3.564   0.251 -1.6878  1.7637  1.2172
 2852SOL     OW17523   1.237  12.106   0.211  0.0202  0.5708 -0.4931
 2852SOL    HW117524   1.255  12.127   0.119 -1.0372  1.3880 -0.5323
 2852SOL    HW217525   1.290  12.029   0.229  1.9140  1.6504 -1.1799
 2853SOL     OW17526   1.154   3.891   2.122  0.6786 -0.0081  0.0963
 2853SOL    HW117527   1.199   3.834   2.060  0.5264  0.0302 -0.0514
 2853SOL    HW217528   1.069   3.848   2.136  0.9679 -0.3633  0.7858
 2854SOL     OW17529   3.745   6.831   3.155 -0.0707  0.0007  0.3912
 2854SOL    HW117530   3.713   6.782   3.080 -0.4036  0.1822  0.4146
 2854SOL    HW217531   3.746   6.923   3.126 -0.4778  0.1063  0.7027
 2855SOL     OW17532   7.484  10.114   1.942  0.0245 -0.2032 -0.2027
 2855SOL    HW117533   7.444  10.082   1.861  1.8109  0.1736 -1.2923
 2855SOL    HW217534   7.538  10.189   1.914  1.4758 -0.6822  1.1537
 2856SOL     OW17535   0.350   3.980   9.173  0.3347 -0.0444  0.0796
 2856SOL    HW117536   0.425   4.001   9.117  0.6813 -0.0381  0.5316
 2856SOL    HW217537   0.371   3.893   9.208  0.0280 -0.1333  0.0402
 2857SOL     OW17538   4.103   1.150   2.450 -0.5223  0.3079  0.1601
 2857SOL    HW117539   4.190   1.149   2.409 -0.7052  1.1614 -0.2791
 2857SOL    HW217540   4.117   1.190   2.535 -0.1856 -1.2348  0.8686
 2858SOL     OW17541   8.024   5.273   8.532  0.4062  0.3625  0.0234
 2858SOL    HW117542   8.085   5.204   8.509  0.4048  0.7032 -1.0706
 2858SOL    HW217543   7.970   5.235   8.601  0.7390 -0.5419 -0.1958
 2859SOL     OW17544  12.022   9.606  12.462 -0.6099 -0.2794  0.1368
 2859SOL    HW117545  12.113   9.606  12.492 -1.5409 -0.4842  3.3013
 2859SOL    HW217546  12.012   9.521  12.418  0.7210 -0.1939 -0.3957
 2860SOL     OW17547   2.290   5.993  10.869  0.8509 -0.0274  0.0825
 2860SOL    HW117548   2.245   6.077  10.862  1.0895  0.0741 -0.2194
 2860SOL    HW217549   2.380   6.016  10.894  0.7650 -0.2244  0.5971
 2861SOL     OW17550  11.420   8.791   5.610 -0.1255 -0.5172 -0.1796
 2861SOL    HW117551  11.332   8.825   5.624  0.3241  0.8763 -0.6357
 2861SOL    HW217552  11.467   8.811   5.691  0.3836  0.7741 -0.7769
 2862SOL     OW17553   2.628   2.174  11.746 -0.2451  0.6385 -0.2722
 2862SOL    HW117554   2.694   2.112  11.714 -1.0170  0.7472 -2.2729
 2862SOL    HW217555   2.549   2.120  11.758 -0.3807  0.8798 -0.0889
 2863SOL     OW17556   8.610   2.605   8.916  0.3247  0.1973 -0.0849
 2863SOL    HW117557   8.668   2.680   8.918  0.3456  0.2317 -1.4356
 2863SOL    HW217558   8.668   2.529   8.909  0.2712  0.1098  0.3797
 2864SOL     OW17559   9.928   0.823   9.473  0.3780  0.1043  0.4472
 2864SOL    HW117560  10.019   0.807   9.448  0.1661  0.0581 -0.3011
 2864SOL    HW217561   9.926   0.916   9.495  0.0193  0.8200 -2.2348
 2865SOL     OW17562   3.910   7.070   3.904  0.0653 -1.0472  0.1485
 2865SOL    HW117563   3.862   6.988   3.917  0.3771 -1.1475  0.6794
 2865SOL    HW217564   3.965   7.079   3.981 -0.7671  0.2243  0.6328
 2866SOL     OW17565   8.541   9.511  12.582 -0.1620 -0.1343 -0.0508
 2866SOL    HW117566   8.513   9.603  12.584 -0.7315 -0.2735 -0.9610
 2866SOL    HW217567   8.603   9.507  12.509 -0.4559 -0.5538 -0.2784
 2867SOL     OW17568   8.781   6.207   0.265  0.0757 -0.4871 -0.8834
 2867SOL    HW117569   8.791   6.115   0.289 -1.2082 -0.6374 -0.8950
 2867SOL    HW217570   8.691   6.215   0.234 -0.0255  0.9045 -0.3067
 2868SOL     OW17571   7.853   6.542   4.675  0.3116  0.4426 -0.0482
 2868SOL    HW117572   7.897   6.537   4.590  1.8940  3.1415  0.4861
 2868SOL    HW217573   7.887   6.467   4.724 -0.6282 -1.1500 -1.7466
 2869SOL     OW17574   4.269   9.840   4.779  0.1387  0.8942  0.2445
 2869SOL    HW117575   4.301   9.831   4.869  0.9076  1.4283  0.0313
 2869SOL    HW217576   4.252   9.933   4.769  2.7508  1.3239 -1.0307
 2870SOL     OW17577   1.377   0.974  12.257 -0.0103  0.1579  0.9120
 2870SOL    HW117578   1.426   0.933  12.186 -0.4316  2.7776 -1.0543
 2870SOL    HW217579   1.290   0.936  12.251 -0.0876  0.4755 -0.1108
 2871SOL     OW17580   9.858   7.981  10.160  0.2472  0.5018  0.2683
 2871SOL    HW117581   9.921   7.982  10.088  0.7353 -1.8225  0.5729
 2871SOL    HW217582   9.908   7.950  10.236 -1.0300 -0.6545  0.6938
 2872SOL     OW17583  12.135   8.321   1.749  0.0815 -0.1794 -0.1981
 2872SOL    HW117584  12.114   8.328   1.842 -0.3265 -1.7630 -0.1394
 2872SOL    HW217585  12.054   8.346   1.704  0.5835  1.5795 -0.1751
 2873SOL     OW17586   3.992   3.179   2.466 -0.2732  0.4003  0.0969
 2873SOL    HW117587   4.046   3.234   2.411  0.4677 -2.3111 -2.1348
 2873SOL    HW217588   3.983   3.227   2.548  0.9372  3.3650 -1.3814
 2874SOL     OW17589  11.188  11.616   6.729 -0.5665 -0.3945 -0.0906
 2874SOL    HW117590  11.098  11.585   6.736 -0.6242 -0.1651  0.2322
 2874SOL    HW217591  11.240  11.537   6.712 -0.6828 -0.6980  0.9257
 2875SOL     OW17592  11.256   1.728  11.130  0.0899 -0.1294  0.0489
 2875SOL    HW117593  11.274   1.783  11.206 -0.7197 -1.0803  0.9556
 2875SOL    HW217594  11.283   1.640  11.156 -0.3927 -0.5079 -0.6844
 2876SOL     OW17595  11.748   0.718   3.107  0.2499 -0.2890 -0.3271
 2876SOL    HW117596  11.832   0.706   3.063  0.5578 -3.1669  0.8208
 2876SOL    HW217597  11.693   0.647   3.074 -1.7337  1.4163 -0.9045
 2877SOL     OW17598   2.600   3.045   9.980  0.2760  0.0859  0.5724
 2877SOL    HW117599   2.523   2.990   9.971  0.4885 -0.7343  2.8805
 2877SOL    HW217600   2.577   3.128   9.939 -2.1564  0.1506  1.9342
 2878SOL     OW17601   0.327   4.874   2.429 -0.4717 -0.2945  0.4464
 2878SOL    HW117602   0.403   4.899   2.378 -1.1615  0.9911  0.0065
 2878SOL    HW217603   0.289   4.956   2.459 -2.2263 -0.8269 -0.1438
 2879SOL     OW17604   4.035   0.104  12.550 -0.0785  0.3631 -0.1357
 2879SOL    HW117605   4.090   0.042  12.598  1.0174 -1.0691 -3.0105
 2879SOL    HW217606   4.097   0.155  12.498 -1.2165  1.7543 -0.1722
 2880SOL     OW17607   0.384   9.380   0.169 -0.1895  0.0371  0.4648
 2880SOL    HW117608   0.349   9.374   0.258 -0.0555 -1.7829  0.4408
 2880SOL    HW217609   0.313   9.348   0.113  1.5391 -4.6746  0.4925
 2881SOL     OW17610   8.529   6.889  11.639  0.3351  0.3386 -0.0955
 2881SOL    HW117611   8.504   6.894  11.547  2.6642 -2.1490 -0.9958
 2881SOL    HW217612   8.494   6.805  11.669  0.2953  0.7514  1.0709
 2882SOL     OW17613   3.429   2.595   6.866  0.5178  0.1705  0.8841
 2882SOL    HW117614   3.365   2.639   6.922 -1.0627 -2.2159  1.1083
 2882SOL    HW217615   3.493   2.558   6.927  1.3673  1.3408  0.7470
 2883SOL     OW17616  10.908   5.022   2.315 -0.1987 -0.5234 -0.0672
 2883SOL    HW117617  11.003   5.012   2.312 -0.0050  0.9886  0.0453
 2883SOL    HW217618  10.882   5.029   2.223  0.0318  0.7415 -0.0533
 2884SOL     OW17619   7.889   9.000   3.748 -0.1960 -0.5419  0.0999
 2884SOL    HW117620   7.957   9.048   3.795 -0.2268 -0.1991 -0.2064
 2884SOL    HW217621   7.810   9.053   3.758 -0.5455 -1.1873  0.8798
 2885SOL     OW17622   1.530   9.630   2.506 -0.0389  0.2348 -0.0772
 2885SOL    HW117623   1.610   9.657   2.460 -0.3314 -0.6686 -1.1730
 2885SOL    HW217624   1.480   9.711   2.517  0.5110  0.6330 -0.4227
 2886SOL     OW17625   5.582   2.221  12.136 -0.6930 -0.4684 -0.6211
 2886SOL    HW117626   5.536   2.264  12.209 -0.3782 -0.4682 -0.4208
 2886SOL    HW217627   5.512   2.188  12.079 -0.9442 -0.6845 -0.1910
 2887SOL     OW17628   4.029  12.546   7.537  0.1881  0.1288  0.4874
 2887SOL    HW117629   4.053  12.611   7.603 -0.5567  0.7916  0.1166
 2887SOL    HW217630   4.105  12.543   7.479 -0.9953  3.2813 -1.5121
 2888SOL     OW17631   8.930   9.765   9.690 -0.3824  0.2238  0.3441
 2888SOL    HW117632   8.852   9.762   9.745  0.2611  1.0900  1.3321
 2888SOL    HW217633   8.939   9.675   9.656 -1.5481  0.0158  0.5562
 2889SOL     OW17634  11.068   6.667   9.398 -0.1241  0.1266 -0.3319
 2889SOL    HW117635  11.109   6.704   9.476  2.3525 -0.5269 -1.2177
 2889SOL    HW217636  11.045   6.743   9.345 -0.5445  0.5309  0.4189
 2890SOL     OW17637   8.042   5.622  11.801 -0.2039 -0.2244 -0.0863
 2890SOL    HW117638   7.970   5.618  11.738 -0.5989  0.4220  0.3124
 2890SOL    HW217639   8.069   5.714  11.801 -0.0953 -0.2548  0.5650
 2891SOL     OW17640   7.211   9.920   5.017 -0.0451 -0.3013  0.1928
 2891SOL    HW117641   7.188   9.923   5.110  1.9851 -1.1378  0.7766
 2891SOL    HW217642   7.300   9.954   5.013 -0.5603  1.0397 -1.6800
 2892SOL     OW17643   0.256  12.322   0.996 -0.3360  0.0059  0.1331
 2892SOL    HW117644   0.161  12.335   0.993 -0.1566  1.5857  0.3438
 2892SOL    HW217645   0.274  12.300   1.088 -0.4184  0.6626  0.3176
 2893SOL     OW17646   3.020   0.011   5.011  0.3475 -0.5204  0.3200
 2893SOL    HW117647   3.061  -0.019   4.931  0.4970  0.6195 -0.0533
 2893SOL    HW217648   3.020  -0.065   5.069 -0.1552 -1.4728 -0.9005
 2894SOL     OW17649  12.403   1.868   4.323 -0.7968  0.5133 -0.6769
 2894SOL    HW117650  12.437   1.786   4.286 -1.2070 -0.4665  1.0249
 2894SOL    HW217651  12.476   1.903   4.374 -0.3052  1.7476 -2.1483
 2895SOL     OW17652   7.545   6.560   5.654 -0.4059  0.1598 -0.1908
 2895SOL    HW117653   7.640   6.543   5.659 -0.5058 -0.1532  1.0673
 2895SOL    HW217654   7.519   6.576   5.745 -1.5549  0.3465 -0.5360
 2896SOL     OW17655   5.977  10.496  12.027 -0.1444  0.3885 -0.6669
 2896SOL    HW117656   5.977  10.540  11.942  0.4608  0.8305 -0.4452
 2896SOL    HW217657   6.069  10.496  12.054 -0.5057  1.6847  0.6958
 2897SOL     OW17658   8.742   7.130   0.388  0.3165  0.1995  0.3286
 2897SOL    HW117659   8.681   7.111   0.316 -2.7373 -1.3401  3.0536
 2897SOL    HW217660   8.796   7.051   0.394  1.1298  0.6533 -0.6910
 2898SOL     OW17661   6.871   3.107   6.337 -0.2581  0.1464 -0.1625
 2898SOL    HW117662   6.820   3.026   6.338 -1.2372  0.7343  0.4623
 2898SOL    HW217663   6.955   3.084   6.377 -0.9798 -0.3091  1.1764
 2899SOL     OW17664   1.004   6.290   7.318  0.1292  0.7269  0.5363
 2899SOL    HW117665   0.932   6.227   7.314  2.5071 -2.3036  1.3710
 2899SOL    HW217666   0.980   6.350   7.389 -1.8425  0.2342  0.3313
 2900SOL     OW17667   1.242   4.731   6.165 -0.3624 -0.2167 -0.0467
 2900SOL    HW117668   1.295   4.707   6.240 -1.0578 -0.6739  0.3076
 2900SOL    HW217669   1.254   4.826   6.156 -0.5535 -0.0999  0.8643
 2901SOL     OW17670  12.025   1.670  11.692  0.6743 -0.6967  0.0247
 2901SOL    HW117671  11.973   1.686  11.771 -0.4770  0.3620 -0.8960
 2901SOL    HW217672  12.078   1.593  11.713 -1.0688 -1.6652  1.1322
 2902SOL     OW17673   0.492   9.809  11.898 -0.8821  0.0063 -0.4679
 2902SOL    HW117674   0.529   9.723  11.880 -1.9973 -0.4283 -0.7735
 2902SOL    HW217675   0.431   9.795  11.970 -2.5562  0.1201 -1.8040
 2903SOL     OW17676  11.941   3.863   1.066  0.1749  0.8444 -0.2528
 2903SOL    HW117677  12.005   3.834   1.001  0.0709 -0.5845  0.2373
 2903SOL    HW217678  11.974   3.829   1.149 -1.1814  0.0792  0.0103
 2904SOL     OW17679   8.858   1.689   4.406 -0.1047  0.3943 -0.1469
 2904SOL    HW117680   8.924   1.706   4.474  0.2819 -1.1490 -0.0864
 2904SOL    HW217681   8.793   1.634   4.450 -0.3743  0.2149 -0.7638
 2905SOL     OW17682   3.418   0.728   9.186  0.2987  0.5473 -0.4502
 2905SOL    HW117683   3.437   0.660   9.251  1.1414  0.3836 -0.8516
 2905SOL    HW217684   3.340   0.697   9.140  1.6310 -1.0152 -1.7713
 2906SOL     OW17685   5.678  10.100   0.704 -0.1435 -0.3590 -0.4386
 2906SOL    HW117686   5.583  10.092   0.697 -0.5769  0.5511  2.7874
 2906SOL    HW217687   5.692  10.179   0.756  2.3455 -1.0957  0.1836
 2907SOL     OW17688   7.349   5.681  11.388  0.3011  0.0092 -0.0268
 2907SOL    HW117689   7.264   5.639  11.374  0.1664  0.2907 -0.0496
 2907SOL    HW217690   7.383   5.697  11.300  0.7726 -0.8873 -0.0320
 2908SOL     OW17691   8.546   8.168   0.854  0.4952  0.9175 -0.5292
 2908SOL    HW117692   8.637   8.174   0.825  0.9769 -0.1948  0.6744
 2908SOL    HW217693   8.534   8.244   0.911  1.1457  0.2940  0.4808
 2909SOL     OW17694  10.662  10.583   2.040  0.0228 -0.6253  0.1210
 2909SOL    HW117695  10.600  10.655   2.054  0.9952 -0.0595  1.8859
 2909SOL    HW217696  10.743  10.627   2.012  0.3927 -1.1008  0.4367
 2910SOL     OW17697   6.599   8.522   5.831 -0.1518  0.3483 -0.0697
 2910SOL    HW117698   6.569   8.608   5.859  0.3495  0.9690 -1.3698
 2910SOL    HW217699   6.580   8.519   5.737  0.0696 -0.8637 -0.1000
 2911SOL     OW17700   8.201  12.218   8.607 -0.7868 -0.0807 -0.2433
 2911SOL    HW117701   8.206  12.146   8.670 -0.1677  0.3146  0.1652
 2911SOL    HW217702   8.257  12.286   8.643  2.2499 -0.9893 -2.7777
 2912SOL     OW17703   3.542   1.956  10.431 -0.3300  0.6277  0.4483
 2912SOL    HW117704   3.495   2.016  10.375  1.7146  2.1291  0.2176
 2912SOL    HW217705   3.627   1.945  10.388  1.6158  2.3917  3.4781
 2913SOL     OW17706   3.120   8.453   6.038  0.0323  0.7140 -0.3676
 2913SOL    HW117707   3.064   8.507   5.983  1.2643  1.0502 -1.3347
 2913SOL    HW217708   3.200   8.439   5.986 -0.4833 -2.6438 -0.5028
 2914SOL     OW17709   1.519   8.903   0.324 -0.2174  0.2245 -0.1471
 2914SOL    HW117710   1.540   8.851   0.401  3.2228  1.4218 -0.1166
 2914SOL    HW217711   1.461   8.848   0.272 -1.7374 -1.0643  2.7063
 2915SOL     OW17712   0.780  12.527   1.172  0.1578 -0.3503 -0.4747
 2915SOL    HW117713   0.810  12.616   1.154 -1.1988 -0.0692 -1.5734
 2915SOL    HW217714   0.845  12.471   1.130  0.8389  0.1268 -0.0722
 2916SOL     OW17715   5.170   6.432   1.558 -0.2662 -0.3728 -0.4137
 2916SOL    HW117716   5.113   6.441   1.481 -1.4479  0.8115  0.5373
 2916SOL    HW217717   5.147   6.507   1.613  0.9447 -0.8848  0.8481
 2917SOL     OW17718   4.030   7.756   3.986  0.0258 -0.0683  0.0809
 2917SOL    HW117719   3.993   7.723   3.904  0.8293  0.7489 -0.6348
 2917SOL    HW217720   4.105   7.699   4.003  0.6689  0.5855 -0.4918
 2918SOL     OW17721   3.133   3.709   3.446 -0.0357 -0.1079  0.1386
 2918SOL    HW117722   3.151   3.620   3.418  2.6164  0.6460 -0.7881
 2918SOL    HW217723   3.052   3.733   3.400 -0.2230 -1.6373 -0.3886
 2919SOL     OW17724   2.880   1.015   9.862  0.2154 -0.4968 -0.2143
 2919SOL    HW117725   2.825   0.954   9.815  0.5007 -0.2385 -0.9029
 2919SOL    HW217726   2.929   1.061   9.793 -0.3297  0.8298  0.2472
 2920SOL     OW17727   3.552   9.137   8.097  1.1615  0.2854 -0.1743
 2920SOL    HW117728   3.602   9.063   8.065  0.0466 -0.3240 -0.5848
 2920SOL    HW217729   3.468   9.099   8.123  0.0986  1.5665 -1.5435
 2921SOL     OW17730   9.530  11.249   5.119 -0.3374  0.0436 -0.2917
 2921SOL    HW117731   9.593  11.233   5.190 -0.0086 -1.1011 -0.8293
 2921SOL    HW217732   9.584  11.259   5.041 -0.7016  1.3255 -0.4000
 2922SOL     OW17733   7.254   4.849  11.262  0.1335 -0.2487  0.2308
 2922SOL    HW117734   7.254   4.772  11.319  1.7075 -0.0152  0.5835
 2922SOL    HW217735   7.346   4.867  11.246 -0.2460 -0.0643 -2.0927
 2923SOL     OW17736  11.636  11.001   2.266 -0.0527 -0.2622  0.9829
 2923SOL    HW117737  11.689  11.035   2.338  0.6601  0.2783  0.2234
 2923SOL    HW217738  11.626  11.075   2.206 -1.9906 -0.2362  1.2627
 2924SOL     OW17739   5.632   7.674  12.483 -0.1462  0.4082  0.4479
 2924SOL    HW117740   5.706   7.722  12.447 -0.4575  0.8954  0.4486
 2924SOL    HW217741   5.568   7.742  12.505 -0.4132  0.0277  0.8595
 2925SOL     OW17742   5.389   0.020   3.040  0.2994  0.3787 -0.5749
 2925SOL    HW117743   5.426   0.043   3.125 -3.0160  3.2122  0.3764
 2925SOL    HW217744   5.377  -0.074   3.043  0.6639  0.3467  1.9616
 2926SOL     OW17745   3.719   8.565   4.929 -0.0980 -0.0797 -0.0404
 2926SOL    HW117746   3.695   8.624   4.858  1.6222  1.0833  0.2638
 2926SOL    HW217747   3.806   8.534   4.906 -0.4460 -1.5013  0.4548
 2927SOL     OW17748   4.852  11.395   3.531 -0.6022 -0.3485  0.5057
 2927SOL    HW117749   4.842  11.442   3.614 -0.1249  0.2841  0.2139
 2927SOL    HW217750   4.777  11.425   3.478  0.5582  1.3746 -0.2643
 2928SOL     OW17751   5.962  10.176   6.561 -0.3245 -0.7816 -0.6987
 2928SOL    HW117752   6.000  10.176   6.473  0.7099  0.7750 -0.3038
 2928SOL    HW217753   6.032  10.143   6.617 -1.3864 -2.9787 -0.5474
 2929SOL     OW17754   2.374   0.172   4.015  0.2843 -0.1950  0.0655
 2929SOL    HW117755   2.408   0.244   4.069 -1.7393 -0.2790  1.5524
 2929SOL    HW217756   2.378   0.095   4.073  1.5287 -1.1208 -1.1898
 2930SOL     OW17757   7.362   1.403   3.992  0.5009  0.4264 -0.3903
 2930SOL    HW117758   7.331   1.485   4.032  0.7600  0.2851  0.1107
 2930SOL    HW217759   7.367   1.341   4.065  2.7307  0.6561 -0.2535
 2931SOL     OW17760   2.319   9.126   8.301 -0.3546 -0.1826  0.2305
 2931SOL    HW117761   2.407   9.091   8.311 -0.9981 -2.2774 -0.8125
 2931SOL    HW217762   2.295   9.159   8.387  1.3151  0.1338  0.5951
 2932SOL     OW17763   9.454   5.317   8.699 -0.0707  0.0571 -0.0661
 2932SOL    HW117764   9.457   5.408   8.668 -0.0776  0.3668  0.8104
 2932SOL    HW217765   9.442   5.325   8.794 -0.0048 -0.8623  0.0239
 2933SOL     OW17766   5.152   9.493   1.133 -0.2205  0.0702 -0.2101
 2933SOL    HW117767   5.186   9.410   1.099 -2.1494 -0.6847 -0.4165
 2933SOL    HW217768   5.061   9.474   1.156 -0.9434  2.3146 -0.9741
 2934SOL     OW17769   2.751   5.708   7.578 -0.1321 -0.2451  0.5248
 2934SOL    HW117770   2.818   5.777   7.574  0.6021 -0.9857 -0.2853
 2934SOL    HW217771   2.800   5.629   7.602 -0.9490 -0.5159  1.3465
 2935SOL     OW17772  10.304  11.576  10.376  0.2048 -0.3284 -0.1672
 2935SOL    HW117773  10.233  11.582  10.311 -0.8290 -0.7931  0.8840
 2935SOL    HW217774  10.382  11.604  10.329 -0.6916  0.2745 -1.3416
 2936SOL     OW17775   9.242   0.474   8.217  0.3748 -0.2272 -0.3032
 2936SOL    HW117776   9.271   0.444   8.131 -0.1415 -0.2412 -0.4752
 2936SOL    HW217777   9.261   0.402   8.276 -0.9747 -0.9736 -0.7359
 2937SOL     OW17778   1.380   0.974   4.934  0.0406  0.3460  0.2463
 2937SOL    HW117779   1.364   0.956   5.027 -0.5385  0.0765  0.0997
 2937SOL    HW217780   1.424   0.896   4.902 -0.6058  0.0383  0.0854
 2938SOL     OW17781   5.241  10.195   7.352 -0.4514 -0.1577  0.1742
 2938SOL    HW117782   5.334  10.215   7.356 -0.1851 -1.0943 -0.7916
 2938SOL    HW217783   5.204  10.261   7.294 -0.3058 -0.0355  0.2225
 2939SOL     OW17784   4.415   5.768  12.017  0.2812  0.5504 -0.5429
 2939SOL    HW117785   4.384   5.781  11.927  0.8032  0.3625 -0.7484
 2939SOL    HW217786   4.339   5.790  12.071 -0.5897 -0.9731 -1.0736
 2940SOL     OW17787   4.509   3.503   7.661 -0.1338  0.1172  0.2540
 2940SOL    HW117788   4.595   3.484   7.698  0.2134 -0.7698 -0.9585
 2940SOL    HW217789   4.519   3.488   7.567 -1.6733 -0.2796  0.1189
 2941SOL     OW17790   2.965   6.127   6.694 -0.6215 -0.1392 -0.2451
 2941SOL    HW117791   2.969   6.222   6.702  2.2621 -0.1994 -0.0124
 2941SOL    HW217792   3.047   6.103   6.650 -0.9645 -2.5759  0.2991
 2942SOL     OW17793   3.959   9.673   7.488  0.1417 -0.0325  0.8896
 2942SOL    HW117794   4.041   9.721   7.500 -0.1436  1.2509 -1.5688
 2942SOL    HW217795   3.964   9.600   7.550  2.4373  0.8791  1.8808
 2943SOL     OW17796   6.848   3.477   4.365 -0.4083  0.1194  0.3713
 2943SOL    HW117797   6.794   3.404   4.394 -0.6837  0.0324 -0.3430
 2943SOL    HW217798   6.903   3.498   4.441 -2.5128  1.2246  1.6853
 2944SOL     OW17799  10.295   7.925   1.004  0.1484 -0.2608 -0.3311
 2944SOL    HW117800  10.359   7.898   1.070  0.7803  1.6913 -0.0672
 2944SOL    HW217801  10.210   7.912   1.045  0.4575 -1.0713  0.0552
 2945SOL     OW17802   4.629  10.609   2.309  0.2701 -0.0681 -0.2924
 2945SOL    HW117803   4.584  10.666   2.371  1.3471  1.1756 -0.5927
 2945SOL    HW217804   4.561  10.551   2.275 -0.6303  0.2373  0.9198
 2946SOL     OW17805   6.009   3.814  10.079 -0.1457 -0.5457  0.9197
 2946SOL    HW117806   5.929   3.805  10.028 -0.7271  0.0858  1.6846
 2946SOL    HW217807   6.067   3.866  10.024  0.1661 -1.9388 -0.0984
 2947SOL     OW17808   3.654   8.720   4.096  0.3183  0.8179  0.6642
 2947SOL    HW117809   3.651   8.762   4.182  1.0414  2.0058  0.1294
 2947SOL    HW217810   3.742   8.737   4.064  0.0709  0.3430 -0.2938
 2948SOL     OW17811   7.949  12.209   6.463 -0.0580  0.4250 -0.5357
 2948SOL    HW117812   8.019  12.212   6.528  0.1033  0.8061 -0.7240
 2948SOL    HW217813   7.956  12.122   6.424  0.4180  0.5238 -0.6718
 2949SOL     OW17814   8.605   6.741   5.254  0.0841 -0.6047 -0.0678
 2949SOL    HW117815   8.555   6.823   5.254  0.1512 -0.5404  1.1433
 2949SOL    HW217816   8.579   6.697   5.173  1.4318  1.4213 -1.7299
 2950SOL     OW17817   0.028   6.759   2.256 -0.3828  0.0256 -0.7392
 2950SOL    HW117818  -0.010   6.694   2.197  0.0394  0.4171 -1.4479
 2950SOL    HW217819   0.120   6.764   2.231  0.2574 -1.1645  1.1916
 2951SOL     OW17820   0.527   3.064  12.192  0.2310 -0.2594  0.0852
 2951SOL    HW117821   0.520   3.014  12.273  0.4147 -0.4079  0.0110
 2951SOL    HW217822   0.561   3.002  12.128  2.4680  0.4622  0.4785
 2952SOL     OW17823   0.023   6.046   3.666 -0.1661 -0.7332 -0.3773
 2952SOL    HW117824   0.081   5.971   3.649  0.6738  0.0351 -1.0194
 2952SOL    HW217825   0.051   6.112   3.602  0.1007  0.6615  1.1310
 2953SOL     OW17826  10.032   3.987  10.243 -0.0425 -0.3096  0.0909
 2953SOL    HW117827   9.994   3.925  10.180  1.5090 -1.5901  0.3524
 2953SOL    HW217828   9.981   3.973  10.323  0.0550 -1.0000  0.0393
 2954SOL     OW17829   7.898  12.401  12.332 -0.4305 -0.8684  0.1702
 2954SOL    HW117830   7.853  12.320  12.307 -1.6795  0.3995 -1.9509
 2954SOL    HW217831   7.906  12.451  12.251  0.2818  1.1690  1.4126
 2955SOL     OW17832   9.674  10.337   2.432  0.1075  0.1158  0.0978
 2955SOL    HW117833   9.598  10.379   2.473 -0.5925 -1.8306  0.9011
 2955SOL    HW217834   9.747  10.358   2.491 -0.2063  0.2504  0.4438
 2956SOL     OW17835  10.505   8.048   7.224 -0.4716 -0.0668 -0.5543
 2956SOL    HW117836  10.545   8.076   7.141 -1.3185  0.5345 -0.7747
 2956SOL    HW217837  10.412   8.065   7.212 -0.3842  2.1099  1.3053
 2957SOL     OW17838  11.388   2.645   4.196  0.0640  0.0429 -0.5125
 2957SOL    HW117839  11.397   2.585   4.270 -1.1040  1.3562  0.7509
 2957SOL    HW217840  11.409   2.592   4.120 -2.0826 -2.3198  0.4181
 2958SOL     OW17841   5.928   8.168   4.678 -0.8193  0.0450 -0.2016
 2958SOL    HW117842   5.973   8.127   4.752  0.0108  0.4000 -0.4988
 2958SOL    HW217843   5.989   8.160   4.605 -1.0076  1.0257 -0.4814
 2959SOL     OW17844   0.101   9.905   6.977  0.3274  0.4758  0.2003
 2959SOL    HW117845   0.052   9.826   6.956  0.4165  0.0811  1.4255
 2959SOL    HW217846   0.059   9.974   6.925 -0.3718 -0.1810 -0.1228
 2960SOL     OW17847   6.814   8.585   1.444 -0.0668  0.3802 -0.1261
 2960SOL    HW117848   6.758   8.629   1.380  0.8522  0.1093 -1.1399
 2960SOL    HW217849   6.897   8.633   1.440  0.1735  0.0245  0.4742
 2961SOL     OW17850   2.780   0.820   1.210  0.7927  0.2659  0.0372
 2961SOL    HW117851   2.813   0.735   1.183 -0.5802 -0.2194 -0.1727
 2961SOL    HW217852   2.854   0.861   1.256  2.1893 -0.1143 -1.7545
 2962SOL     OW17853   2.711  10.665   8.969  0.3390  0.3392  0.6889
 2962SOL    HW117854   2.651  10.659   8.894  1.8300  0.5913 -0.5694
 2962SOL    HW217855   2.709  10.577   9.008 -1.5264  0.5854  1.2601
 2963SOL     OW17856   6.583  10.002   9.311 -0.2621  0.1946  0.6129
 2963SOL    HW117857   6.643   9.931   9.291 -0.7824 -0.1640  0.2839
 2963SOL    HW217858   6.616  10.077   9.262  1.2485  0.6715  2.2435
 2964SOL     OW17859   1.218  10.683   8.248  0.1040  0.0606 -0.1475
 2964SOL    HW117860   1.238  10.602   8.295  0.4017  2.1043  3.6361
 2964SOL    HW217861   1.286  10.744   8.277 -2.4092  2.7590  0.4725
 2965SOL     OW17862   0.461   6.187  10.837 -0.2286  0.2181 -0.3300
 2965SOL    HW117863   0.394   6.188  10.770  0.2390 -0.7153 -0.8300
 2965SOL    HW217864   0.421   6.142  10.911 -0.2378 -0.1046 -0.5336
 2966SOL     OW17865   9.857   4.529   5.615  0.0691  0.1376 -0.5243
 2966SOL    HW117866   9.920   4.594   5.646  0.5755 -1.0146  0.9672
 2966SOL    HW217867   9.779   4.580   5.594 -0.1932  1.0899  2.3905
 2967SOL     OW17868   0.404   7.916   0.729 -0.0407  0.3239 -0.0832
 2967SOL    HW117869   0.397   7.917   0.633  2.9778 -1.3552 -0.4697
 2967SOL    HW217870   0.326   7.871   0.758 -1.0133  0.8288 -1.7436
 2968SOL     OW17871   4.393   8.860   7.592  0.1286  0.5320 -0.1616
 2968SOL    HW117872   4.334   8.868   7.518 -0.9249 -0.6519  0.5160
 2968SOL    HW217873   4.337   8.874   7.669  1.1637  1.5843  0.4403
 2969SOL     OW17874   3.821   1.330   1.571 -0.2049  0.6405  0.2666
 2969SOL    HW117875   3.849   1.283   1.492  0.6941 -0.1947  1.0547
 2969SOL    HW217876   3.730   1.352   1.555  0.0867  0.9033 -1.2051
 2970SOL     OW17877   3.713   7.132  10.953  0.4664  0.4509 -0.3193
 2970SOL    HW117878   3.805   7.110  10.969  0.0826 -0.7184  0.4420
 2970SOL    HW217879   3.711   7.159  10.862  1.3365 -0.9361 -0.7951
 2971SOL     OW17880  12.159   2.989  12.008 -0.2470  0.1891  0.1071
 2971SOL    HW117881  12.240   2.993  11.956  0.3737  0.6537  1.0799
 2971SOL    HW217882  12.105   2.925  11.962  1.1734 -1.0892  0.1234
 2972SOL     OW17883   8.701  10.474   5.969 -0.3162  0.3284 -0.2349
 2972SOL    HW117884   8.796  10.462   5.961 -0.1009  0.6410  1.5887
 2972SOL    HW217885   8.689  10.566   5.989 -1.0147  0.2837 -0.4033
 2973SOL     OW17886  11.098   9.211   6.904  0.5905 -0.0753  0.2400
 2973SOL    HW117887  11.137   9.291   6.940 -1.0722  0.0447  1.9386
 2973SOL    HW217888  11.039   9.241   6.835  0.0129  0.1811  0.8363
 2974SOL     OW17889   7.935   1.816   2.022  0.4318  0.7048 -0.0949
 2974SOL    HW117890   7.850   1.772   2.026  0.7177  0.0947 -0.5517
 2974SOL    HW217891   7.942   1.846   1.931 -0.3247  2.8714  0.5060
 2975SOL     OW17892   9.386   4.123   3.767  0.0083 -0.1484 -0.1269
 2975SOL    HW117893   9.298   4.149   3.741  0.6309  0.3057 -1.9100
 2975SOL    HW217894   9.411   4.056   3.704  1.3422  0.5240 -0.3570
 2976SOL     OW17895   8.539   9.193   3.530  0.2146  0.0356 -0.3343
 2976SOL    HW117896   8.558   9.286   3.540  0.5469 -0.0882  0.1819
 2976SOL    HW217897   8.458   9.179   3.579  0.4508 -0.0519  0.0325
 2977SOL     OW17898   2.400   2.805   7.224 -0.1524  0.1987 -0.0041
 2977SOL    HW117899   2.445   2.726   7.254  0.8445  0.1091 -1.6057
 2977SOL    HW217900   2.471   2.862   7.193 -0.7702  2.0705  1.7641
 2978SOL     OW17901   9.860   0.989  12.357 -0.0471 -0.1103 -0.6678
 2978SOL    HW117902   9.820   1.058  12.304 -0.0318 -0.5916 -1.3234
 2978SOL    HW217903   9.801   0.914  12.346  0.1098 -0.3009 -0.2320
 2979SOL     OW17904   5.870   7.755   8.952 -0.2715  0.1690  0.3309
 2979SOL    HW117905   5.904   7.841   8.927 -0.9954  1.0526  2.2007
 2979SOL    HW217906   5.904   7.696   8.885 -0.3339  2.0071 -1.4427
 2980SOL     OW17907   8.673  10.176   6.580  0.8308 -0.2713  0.1765
 2980SOL    HW117908   8.635  10.138   6.501 -2.1717  1.1212  0.8326
 2980SOL    HW217909   8.721  10.253   6.549  0.9529 -0.5951 -0.4375
 2981SOL     OW17910   0.462   9.611   4.056 -0.0217 -0.1381  0.0016
 2981SOL    HW117911   0.366   9.613   4.053 -0.0483 -1.5932 -0.8314
 2981SOL    HW217912   0.482   9.606   4.150 -0.7432  0.4907  0.2001
 2982SOL     OW17913  11.925   6.600   5.927  0.3185 -0.0247  0.6612
 2982SOL    HW117914  11.953   6.517   5.966  1.3065  1.1978  2.7660
 2982SOL    HW217915  12.002   6.657   5.935 -0.7360  1.4756  0.4897
 2983SOL     OW17916   4.453   4.078  10.058 -0.5332 -0.1498 -0.0903
 2983SOL    HW117917   4.482   4.168  10.072 -2.7628  0.5534  0.4875
 2983SOL    HW217918   4.401   4.057  10.136 -0.5245 -1.7343 -0.4779
 2984SOL     OW17919  12.344   9.509   7.104  0.1622  0.2849  0.6522
 2984SOL    HW117920  12.327   9.417   7.126  0.2630  0.0717 -0.1405
 2984SOL    HW217921  12.293   9.524   7.024 -1.8456  1.6108  2.0615
 2985SOL     OW17922  11.732   5.774   7.847  0.3393 -0.3550  0.4414
 2985SOL    HW117923  11.726   5.679   7.837 -0.2705 -0.3507  0.7247
 2985SOL    HW217924  11.641   5.804   7.842  0.6078  0.3358 -0.8394
 2986SOL     OW17925   9.748  10.818   6.777 -0.2217 -0.4097  0.0417
 2986SOL    HW117926   9.669  10.820   6.831 -1.2222  2.9334 -1.2700
 2986SOL    HW217927   9.716  10.799   6.689  0.9702 -2.5538  0.0153
 2987SOL     OW17928   5.223   1.178   8.355  0.3201  0.0031 -0.5044
 2987SOL    HW117929   5.203   1.155   8.265 -1.3060  2.3028 -0.8186
 2987SOL    HW217930   5.297   1.238   8.349  0.9097 -0.6842 -0.1997
 2988SOL     OW17931   7.547   0.061   0.447  0.5341 -0.7792  0.0134
 2988SOL    HW117932   7.614   0.002   0.481  1.8434  0.7197  0.1889
 2988SOL    HW217933   7.534   0.125   0.518  0.4033  0.0975 -0.7873
 2989SOL     OW17934  11.789   0.148   8.371 -0.3627 -0.4173  0.3476
 2989SOL    HW117935  11.707   0.100   8.376  0.8968 -2.7397  0.2747
 2989SOL    HW217936  11.821   0.151   8.462  1.3977 -3.2977 -0.0522
 2990SOL     OW17937  12.446   4.794   2.663 -0.5370  0.0837  0.0766
 2990SOL    HW117938  12.451   4.821   2.755 -2.6575 -1.3067  0.6917
 2990SOL    HW217939  12.436   4.875   2.614  0.7981  0.8644  1.0239
 2991SOL     OW17940  10.613   3.222   1.866  0.2525 -0.3571 -0.1284
 2991SOL    HW117941  10.705   3.234   1.842  0.4748  0.1906  0.9557
 2991SOL    HW217942  10.568   3.210   1.782  1.3936 -1.2983 -0.6307
 2992SOL     OW17943   5.973   6.352   3.778  0.4314  0.3342 -0.0256
 2992SOL    HW117944   5.971   6.425   3.715 -0.3399  0.4221  0.0945
 2992SOL    HW217945   5.927   6.386   3.855 -0.4724 -0.4844 -0.1948
 2993SOL     OW17946   0.278   8.169  10.710  0.2230 -0.5046 -0.3046
 2993SOL    HW117947   0.250   8.088  10.753  1.2256 -0.0750  1.2470
 2993SOL    HW217948   0.333   8.141  10.638  0.2660 -1.2172 -0.0002
 2994SOL     OW17949   1.878  10.576   6.113 -0.6853 -0.0573 -0.2412
 2994SOL    HW117950   1.850  10.667   6.100 -4.5764 -1.0875 -0.3037
 2994SOL    HW217951   1.918  10.575   6.200  0.9851  1.9151 -0.8937
 2995SOL     OW17952   7.727  11.457  10.965 -0.2276  0.5706  0.2808
 2995SOL    HW117953   7.767  11.386  11.015 -1.0878 -0.4656 -0.4532
 2995SOL    HW217954   7.684  11.512  11.031  0.7144  0.6114  0.8843
 2996SOL     OW17955   0.380   0.651   9.152  0.1283  0.0602  0.1441
 2996SOL    HW117956   0.291   0.620   9.137  0.9956 -2.5530 -0.1042
 2996SOL    HW217957   0.436   0.579   9.121  2.2875  0.6864  2.2960
 2997SOL     OW17958  11.242   8.084  12.409  0.1700  1.3210  0.7888
 2997SOL    HW117959  11.152   8.115  12.408 -1.1768 -2.0835 -0.5435
 2997SOL    HW217960  11.267   8.081  12.316  0.6296 -0.2666  0.9347
 2998SOL     OW17961  11.452   5.886   7.950 -0.1278 -0.8521  0.0131
 2998SOL    HW117962  11.478   5.971   7.916  0.8196 -0.9447  0.4646
 2998SOL    HW217963  11.370   5.903   7.997 -1.2479 -0.6611 -1.9206
 2999SOL     OW17964   2.643   4.007   6.553 -0.2596 -0.0690  0.4278
 2999SOL    HW117965   2.734   3.992   6.577 -0.3669  0.2065  1.0353
 2999SOL    HW217966   2.647   4.055   6.471  0.1518  0.4059  0.7235
 3000SOL     OW17967   7.153   1.890   0.301  0.2641  0.2461 -0.2582
 3000SOL    HW117968   7.122   1.859   0.216  2.2994 -1.9353 -0.2920
 3000SOL    HW217969   7.139   1.815   0.360  1.5277  0.7079  0.6606
 3001SOL     OW17970   3.325   7.517  12.325  0.3617 -0.0038  0.2231
 3001SOL    HW117971   3.322   7.501  12.230  2.3790 -1.1828  0.3093
 3001SOL    HW217972   3.256   7.582  12.340  0.5493  0.8631 -2.1789
 3002SOL     OW17973   4.799   9.849  12.590 -0.2468 -0.0158 -0.7648
 3002SOL    HW117974   4.871   9.836  12.528 -2.7142  1.0197 -4.1611
 3002SOL    HW217975   4.828   9.921  12.646  1.7834 -0.3923 -1.2427
 3003SOL     OW17976  11.592   0.137   8.806  0.4923 -0.6137 -0.4959
 3003SOL    HW117977  11.617   0.192   8.881  0.8405  0.2511 -1.2249
 3003SOL    HW217978  11.589   0.048   8.841  1.3536 -0.3126  0.3836
 3004SOL     OW17979   0.135   3.498  10.798  0.5332  0.2943  0.3191
 3004SOL    HW117980   0.051   3.495  10.752  1.2107 -1.2986 -0.9098
 3004SOL    HW217981   0.122   3.563  10.868 -2.1456 -0.8540  1.0251
 3005SOL     OW17982   8.870   6.291  12.039 -0.4623  0.4764  0.3626
 3005SOL    HW117983   8.858   6.312  12.131  0.3795 -1.7751  1.0285
 3005SOL    HW217984   8.825   6.208  12.026  0.8888 -0.1049 -0.8438
 3006SOL     OW17985   8.255   3.563   8.410 -0.2027 -0.1379  0.3055
 3006SOL    HW117986   8.284   3.472   8.397 -0.6712 -0.3834  0.9289
 3006SOL    HW217987   8.329   3.605   8.453 -0.3745 -0.4969  0.9636
 3007SOL     OW17988   9.309  10.176   3.499  1.0049 -0.1462 -0.3386
 3007SOL    HW117989   9.257  10.167   3.579 -1.5776  2.7770 -1.4903
 3007SOL    HW217990   9.320  10.086   3.467 -1.7934 -1.0569  0.9830
 3008SOL     OW17991   7.864   1.269   5.762 -0.0037 -0.0960 -0.1684
 3008SOL    HW117992   7.884   1.305   5.676  1.0740 -0.0018  0.1047
 3008SOL    HW217993   7.784   1.218   5.749 -0.1062  0.2859 -1.1198
 3009SOL     OW17994   0.958   3.646   0.864  0.0668 -0.0930  0.3177
 3009SOL    HW117995   0.980   3.571   0.918 -1.6498 -0.0861  1.0971
 3009SOL    HW217996   0.865   3.662   0.881 -0.0843  1.0296 -1.2820
 3010SOL     OW17997   4.208   5.980   2.979 -0.2303  0.7224  0.1212
 3010SOL    HW117998   4.265   5.947   2.909 -1.4803  1.9327 -1.5472
 3010SOL    HW217999   4.211   6.075   2.969 -2.6025  0.8217 -0.1016
 3011SOL     OW18000   9.724   1.519   1.045  0.6323 -0.0338  0.0942
 3011SOL    HW118001   9.712   1.492   0.954  0.0621 -0.1565  0.1987
 3011SOL    HW218002   9.814   1.495   1.066  0.0006 -2.4839  0.3698
 3012SOL     OW18003   4.700   8.775   5.738 -0.0910 -0.4588  0.1005
 3012SOL    HW118004   4.767   8.713   5.765 -1.1648 -1.2795  0.9527
 3012SOL    HW218005   4.747   8.858   5.727  1.5424 -1.5779 -1.9924
 3013SOL     OW18006   9.603   7.883  10.951  0.0422  0.6534  0.2549
 3013SOL    HW118007   9.604   7.897  10.856 -0.0263 -0.1700  0.1272
 3013SOL    HW218008   9.574   7.967  10.987 -0.9748  0.6549 -0.5113
 3014SOL     OW18009   7.594   9.660   2.130  0.1186 -0.5429 -0.1784
 3014SOL    HW118010   7.648   9.720   2.182 -1.1196 -0.3261  0.9398
 3014SOL    HW218011   7.534   9.718   2.083  0.5439 -0.7994 -1.0451
 3015SOL     OW18012   9.062   7.208   5.602 -0.2230 -0.0221 -0.3204
 3015SOL    HW118013   8.999   7.169   5.542 -1.0596  0.0824  0.4607
 3015SOL    HW218014   9.138   7.228   5.548 -0.6335 -0.6841 -1.1712
 3016SOL     OW18015   7.298   6.247   8.677  0.3626 -0.3333 -0.3504
 3016SOL    HW118016   7.382   6.204   8.692 -0.1120 -1.7147 -1.3700
 3016SOL    HW218017   7.311   6.337   8.707  1.9487 -0.7163  0.2350
 3017SOL     OW18018  10.570  12.493   1.540 -0.3382 -0.3230 -0.2663
 3017SOL    HW118019  10.485  12.524   1.570  0.0079 -0.0331  0.4293
 3017SOL    HW218020  10.612  12.458   1.619  1.0092  1.4143 -0.1733
 3018SOL     OW18021   9.020   2.827  10.676  0.2347 -0.0795 -0.0253
 3018SOL    HW118022   9.077   2.779  10.616 -0.0900  1.2608 -1.4619
 3018SOL    HW218023   8.959   2.873  10.619 -1.0539  0.0683  1.4127
 3019SOL     OW18024   9.133   9.690   9.225  0.2369  0.0616 -0.5790
 3019SOL    HW118025   9.108   9.782   9.235 -0.5098 -0.1149 -0.7623
 3019SOL    HW218026   9.177   9.669   9.307  1.5978  0.9403 -1.0533
 3020SOL     OW18027   9.847   0.660   5.966  0.0443 -0.3450  0.1858
 3020SOL    HW118028   9.805   0.742   5.992  0.1228 -0.3060  0.1890
 3020SOL    HW218029   9.778   0.612   5.921  0.5996  0.6737 -1.8537
 3021SOL     OW18030   0.658  11.893   6.984 -0.3004  0.7363 -0.8193
 3021SOL    HW118031   0.573  11.879   6.943  0.2769 -0.0880 -1.7833
 3021SOL    HW218032   0.704  11.810   6.973  0.8152  1.3310 -0.7688
 3022SOL     OW18033   0.257   5.434   6.468  0.0438  0.5447  0.3287
 3022SOL    HW118034   0.184   5.417   6.527  1.3849  1.5704  2.4476
 3022SOL    HW218035   0.230   5.511   6.418 -0.5367  0.5886  0.6980
 3023SOL     OW18036   1.769   2.741   7.548  0.0018  0.2926  0.4922
 3023SOL    HW118037   1.805   2.781   7.470 -0.3165  2.5940  1.4461
 3023SOL    HW218038   1.839   2.746   7.613 -0.4304  0.3606  0.9616
 3024SOL     OW18039   9.207   9.160   6.125 -0.5401  0.3523 -0.5925
 3024SOL    HW118040   9.161   9.076   6.124 -0.2054  0.1611 -0.0934
 3024SOL    HW218041   9.155   9.216   6.067 -0.6199 -0.2694 -1.1323
 3025SOL     OW18042   0.249   3.155   3.056 -0.0686 -0.0859  0.5365
 3025SOL    HW118043   0.276   3.107   2.978  1.7203 -1.2618  1.8073
 3025SOL    HW218044   0.326   3.205   3.083 -1.2100  1.7917  0.5474
 3026SOL     OW18045  11.740  12.052  12.253  0.0885  0.5678  0.3527
 3026SOL    HW118046  11.824  12.030  12.213 -0.7753 -0.1255 -1.1540
 3026SOL    HW218047  11.721  11.977  12.310 -0.0383  0.1775 -0.1940
 3027SOL     OW18048   4.695   2.482  11.742  0.4604 -0.3300 -0.4697
 3027SOL    HW118049   4.732   2.420  11.805  2.9628  1.2796 -0.1640
 3027SOL    HW218050   4.629   2.530  11.792  1.5841  0.1380  0.6289
 3028SOL     OW18051  10.667   4.570   9.410 -0.5441 -0.2129  0.5110
 3028SOL    HW118052  10.736   4.636   9.410 -1.0684  0.3646  1.5845
 3028SOL    HW218053  10.708   4.492   9.373  0.3878  0.4105  0.2120
 3029SOL     OW18054   9.519   7.498   7.100 -0.7820  0.1516  0.2852
 3029SOL    HW118055   9.475   7.572   7.058 -1.0610 -0.5324 -0.6266
 3029SOL    HW218056   9.567   7.455   7.030 -0.1852 -0.2369  0.9132
 3030SOL     OW18057  10.832   2.315  12.236  0.5509 -0.1001 -0.1386
 3030SOL    HW118058  10.912   2.263  12.231 -0.3321 -1.7502  1.4805
 3030SOL    HW218059  10.793   2.290  12.320 -1.4815  0.9336 -0.7163
 3031SOL     OW18060   9.773   1.955   5.385 -0.5172 -0.0837 -0.0223
 3031SOL    HW118061   9.692   1.910   5.407 -1.7505  0.6852 -2.6348
 3031SOL    HW218062   9.825   1.889   5.338  1.5014 -1.2826  3.4618
 3032SOL     OW18063   6.858  11.374   9.827  0.3486 -0.9882  0.2610
 3032SOL    HW118064   6.808  11.321   9.890  0.4586  0.1344  1.3433
 3032SOL    HW218065   6.866  11.319   9.750 -2.5770 -1.2223  0.0295
 3033SOL     OW18066   6.486   6.364   4.693 -1.2402 -0.0395 -0.2249
 3033SOL    HW118067   6.511   6.440   4.641  2.7139 -0.3938  0.8575
 3033SOL    HW218068   6.568   6.318   4.711 -2.9988 -2.6207  2.2119
 3034SOL     OW18069  10.771  12.199  11.309 -0.1119  0.3080 -0.2916
 3034SOL    HW118070  10.828  12.129  11.340  0.8290  1.5037  0.8048
 3034SOL    HW218071  10.702  12.204  11.375  0.7837  1.5213  0.6057
 3035SOL     OW18072   8.644   5.339   6.875 -0.5464 -0.0591 -0.6721
 3035SOL    HW118073   8.729   5.313   6.840  0.9198  1.4782  1.5398
 3035SOL    HW218074   8.583   5.276   6.836  1.6341 -1.5680 -1.9056
 3036SOL     OW18075   0.556   0.383  10.143  0.3834 -0.5265 -0.3516
 3036SOL    HW118076   0.630   0.440  10.164  2.0408 -2.5482 -0.2984
 3036SOL    HW218077   0.548   0.388  10.048  1.2764 -1.0129 -0.4693
 3037SOL     OW18078   3.956  12.294  12.226  0.0270 -0.3471  0.0457
 3037SOL    HW118079   3.965  12.361  12.158  0.9681  1.3234  1.7198
 3037SOL    HW218080   4.015  12.224  12.200  0.7138  0.4633 -0.6155
 3038SOL     OW18081  10.293   7.452  10.711  0.4498 -0.3361  0.2155
 3038SOL    HW118082  10.275   7.393  10.638 -0.3605 -0.6137  0.6240
 3038SOL    HW218083  10.288   7.395  10.789  0.0540  0.1873  0.5789
 3039SOL     OW18084   6.866   8.049  12.167 -0.4424  0.4015  0.1922
 3039SOL    HW118085   6.887   7.958  12.184 -0.2296  0.2315 -0.9146
 3039SOL    HW218086   6.852   8.054  12.073  0.2697  1.6476  0.1199
 3040SOL     OW18087   1.288   5.399  10.133 -0.0142 -0.2668  0.5347
 3040SOL    HW118088   1.226   5.345  10.182  0.5587 -0.0939  1.4770
 3040SOL    HW218089   1.291   5.360  10.046 -0.1227 -1.3524  1.0063
 3041SOL     OW18090   4.561   6.330  10.512 -0.1414 -0.4327  0.2413
 3041SOL    HW118091   4.574   6.424  10.504 -0.0593 -0.5109 -0.7125
 3041SOL    HW218092   4.649   6.295  10.530 -0.1137 -0.3553  0.2555
 3042SOL     OW18093  11.484   1.396  11.492  0.2248  0.5925 -0.2637
 3042SOL    HW118094  11.409   1.405  11.550 -2.1348 -1.5491 -2.6423
 3042SOL    HW218095  11.482   1.304  11.465  1.5778  1.2604 -3.0741
 3043SOL     OW18096  12.514   3.086   6.825 -0.4743 -0.0217 -0.1501
 3043SOL    HW118097  12.602   3.054   6.842 -0.1194  0.2693 -1.3267
 3043SOL    HW218098  12.464   3.064   6.904  0.9897  1.0879  1.1417
 3044SOL     OW18099   6.863  10.099   2.863  0.3221  0.3928  0.1900
 3044SOL    HW118100   6.877  10.087   2.769 -1.8536  0.3161 -0.1918
 3044SOL    HW218101   6.928  10.043   2.904  0.9840  0.0220 -1.2874
 3045SOL     OW18102   7.494   7.682   0.454  0.1837  0.5681  0.2886
 3045SOL    HW118103   7.552   7.606   0.455 -1.5730 -0.8570  0.7802
 3045SOL    HW218104   7.460   7.685   0.364 -2.1573 -1.2752  1.0068
 3046SOL     OW18105   4.437  11.340   8.357  0.4474  0.0592 -0.3654
 3046SOL    HW118106   4.501  11.407   8.382  0.3979 -0.2884  0.7395
 3046SOL    HW218107   4.479  11.294   8.284  1.4684 -0.1607  0.3352
 3047SOL     OW18108   5.441  10.759   4.664  0.6506  0.1634 -0.4749
 3047SOL    HW118109   5.361  10.710   4.685 -0.2696  1.7869  0.0484
 3047SOL    HW218110   5.500  10.694   4.626 -0.5334 -1.3017  0.0694
 3048SOL     OW18111   3.179   5.036   5.387 -0.4687 -0.5067  0.1121
 3048SOL    HW118112   3.176   4.981   5.309 -0.3109 -1.3376  0.6818
 3048SOL    HW218113   3.087   5.053   5.408 -0.5105  0.2671 -0.6118
 3049SOL     OW18114   1.138  10.020   0.474  0.1432 -0.2988 -0.0888
 3049SOL    HW118115   1.069   9.956   0.461  0.9987 -1.4226  0.6758
 3049SOL    HW218116   1.198   9.978   0.537  1.3344  0.7677 -0.4725
 3050SOL     OW18117   4.275   9.689   7.851 -0.4001  0.0787 -0.8216
 3050SOL    HW118118   4.284   9.765   7.908  0.2230 -0.2090 -0.5262
 3050SOL    HW218119   4.184   9.692   7.820 -1.6376 -1.2387  2.2729
 3051SOL     OW18120  12.128   7.003  10.605  0.2484 -0.2222  0.2912
 3051SOL    HW118121  12.065   7.006  10.677 -0.3721  0.5663 -0.2728
 3051SOL    HW218122  12.115   6.916  10.567 -0.1144 -0.2686  0.5131
 3052SOL     OW18123  10.816  10.465   6.901  0.0847 -0.4316 -0.1343
 3052SOL    HW118124  10.759  10.398   6.940 -1.0554  0.9445  0.6865
 3052SOL    HW218125  10.758  10.540   6.888  1.6857  0.9975  0.6378
 3053SOL     OW18126   7.927   8.214   2.460 -0.1039  0.0753 -0.4226
 3053SOL    HW118127   7.873   8.151   2.411 -1.0810 -0.2005  0.9593
 3053SOL    HW218128   7.864   8.277   2.496  0.5926  0.3208  0.3895
 3054SOL     OW18129  11.433   9.212   1.691 -0.0070  0.1457 -0.0043
 3054SOL    HW118130  11.524   9.182   1.688 -0.9599 -3.1735  0.4750
 3054SOL    HW218131  11.429   9.281   1.625  3.1957  1.5931  1.1185
 3055SOL     OW18132   1.018   6.574   0.198 -0.0756  0.7132  0.2396
 3055SOL    HW118133   1.055   6.580   0.110 -0.3751  0.8850  0.1234
 3055SOL    HW218134   0.927   6.546   0.185 -0.1697  0.8929  0.4812
 3056SOL     OW18135   2.921  10.832  10.505 -0.3833 -0.9960  0.3026
 3056SOL    HW118136   2.903  10.831  10.411 -1.8855 -0.5576  0.5487
 3056SOL    HW218137   2.993  10.894  10.515  0.0325 -1.3168 -0.5827
 3057SOL     OW18138   9.714  11.567   3.540  0.3207 -0.3277  1.0050
 3057SOL    HW118139   9.764  11.623   3.600 -0.2660 -0.0024  1.1999
 3057SOL    HW218140   9.779  11.535   3.478  0.6304  0.7743  0.7359
 3058SOL     OW18141   8.633   6.985   7.636 -0.6110  0.2687 -0.5974
 3058SOL    HW118142   8.610   6.898   7.603  0.2929 -0.6881  1.1420
 3058SOL    HW218143   8.586   7.046   7.579 -0.4321 -1.3043 -2.5242
 3059SOL     OW18144   2.715   3.984   4.878  0.5464  0.1110 -0.1637
 3059SOL    HW118145   2.764   3.911   4.840  1.0367  0.0811  0.5012
 3059SOL    HW218146   2.748   3.991   4.968 -0.5691  0.1846  0.2570
 3060SOL     OW18147   1.394  10.343   2.034  0.2346 -0.4108  0.7427
 3060SOL    HW118148   1.394  10.424   1.982 -1.7210 -0.5324  0.4529
 3060SOL    HW218149   1.436  10.278   1.978 -0.1300 -0.0888  0.0823
 3061SOL     OW18150  10.123  12.417  12.575  0.3493 -0.0736 -0.6114
 3061SOL    HW118151  10.110  12.327  12.546 -0.2818 -0.1512 -0.1085
 3061SOL    HW218152  10.125  12.468  12.494 -0.5008 -0.3956 -0.8489
 3062SOL     OW18153   7.293   4.486   9.462  0.0284 -0.2670  0.0666
 3062SOL    HW118154   7.320   4.395   9.456 -0.4540 -0.4642  0.7981
 3062SOL    HW218155   7.350   4.532   9.400  0.4218 -1.0253 -0.1457
 3063SOL     OW18156   9.315   9.986   2.473 -0.6715  0.3662  0.2679
 3063SOL    HW118157   9.361   9.903   2.484 -2.1851 -0.5157  0.2229
 3063SOL    HW218158   9.362  10.029   2.402 -1.3239 -1.5818 -1.4544
 3064SOL     OW18159  10.402  11.077   7.123 -0.1654  0.3348 -0.8323
 3064SOL    HW118160  10.459  11.090   7.199 -1.3703 -2.1363  0.5891
 3064SOL    HW218161  10.427  10.992   7.088 -1.9260 -0.1085 -1.0982
 3065SOL     OW18162   0.523   4.272   3.491  0.1675 -0.4865  1.0560
 3065SOL    HW118163   0.457   4.203   3.484 -0.4559  0.1523  0.5209
 3065SOL    HW218164   0.475   4.350   3.518  0.6010  0.1222  0.1372
 3066SOL     OW18165   0.578   4.320   7.634  0.1958 -0.0631  0.3869
 3066SOL    HW118166   0.539   4.377   7.567  1.7443 -1.8813 -2.2825
 3066SOL    HW218167   0.669   4.349   7.640  0.9466 -1.9521 -0.8440
 3067SOL     OW18168   1.342   0.440   5.435  0.0737 -0.0294 -0.0933
 3067SOL    HW118169   1.418   0.465   5.488 -0.0922 -0.1940  0.2238
 3067SOL    HW218170   1.324   0.517   5.381  0.0826  0.2333  0.2770
 3068SOL     OW18171   0.174   3.973   3.191  0.3012 -0.5284 -0.1533
 3068SOL    HW118172   0.243   4.037   3.207  1.3076 -1.1316 -1.8352
 3068SOL    HW218173   0.107   4.022   3.143 -0.1213 -0.1295  0.8171
 3069SOL     OW18174  12.328   1.908   0.099 -0.1053  0.8277  0.3270
 3069SOL    HW118175  12.346   1.854   0.022  0.5922  1.5072  0.0113
 3069SOL    HW218176  12.240   1.943   0.084  0.2786  1.4797 -0.4808
 3070SOL     OW18177   7.102   5.568   4.708  0.4039 -0.7490  0.2276
 3070SOL    HW118178   7.190   5.531   4.700  0.6520  0.1668 -1.9122
 3070SOL    HW218179   7.088   5.616   4.626 -0.5632  2.4622  2.0744
 3071SOL     OW18180   4.319  12.057   6.410 -0.0873 -0.0549 -0.2521
 3071SOL    HW118181   4.361  12.094   6.333 -0.3919  0.9486  0.0510
 3071SOL    HW218182   4.362  11.972   6.422  0.0279 -0.1826 -1.4586
 3072SOL     OW18183   6.672   8.684   0.714  0.0886 -0.2716  0.0234
 3072SOL    HW118184   6.625   8.646   0.640 -1.2587  1.1441  0.1012
 3072SOL    HW218185   6.614   8.753   0.746  1.6937  0.7229  0.9201
 3073SOL     OW18186   6.196   0.056   2.646  0.2593 -0.4159  0.1376
 3073SOL    HW118187   6.263   0.107   2.600  0.1844 -2.6584 -2.7198
 3073SOL    HW218188   6.116   0.073   2.597 -0.6894 -0.0137  1.7705
 3074SOL     OW18189  11.318  11.846   9.734 -0.4545 -0.0478  0.1786
 3074SOL    HW118190  11.232  11.883   9.753 -0.7192 -0.4838 -0.1679
 3074SOL    HW218191  11.359  11.837   9.821 -1.2550 -1.0428  0.4626
 3075SOL     OW18192   4.098   4.569  12.309 -0.2287 -0.1800 -0.6165
 3075SOL    HW118193   4.049   4.525  12.379 -0.4264  0.7074 -0.1828
 3075SOL    HW218194   4.130   4.649  12.349 -0.5128  0.4408 -1.5934
 3076SOL     OW18195  11.382  11.755   5.167 -0.5184  0.0308 -0.0094
 3076SOL    HW118196  11.462  11.746   5.116 -0.1636  2.6430 -0.0228
 3076SOL    HW218197  11.363  11.666   5.197  2.9053 -0.5503  0.8318
 3077SOL     OW18198   5.621   3.032   9.638  0.2615 -0.1285 -0.0548
 3077SOL    HW118199   5.560   3.019   9.565 -1.9121 -1.0426  1.7952
 3077SOL    HW218200   5.569   3.078   9.705  2.6358  2.1788  0.3942
 3078SOL     OW18201   5.451  11.539   2.308 -0.2640  0.1633  0.6056
 3078SOL    HW118202   5.480  11.551   2.398  0.8025 -0.0603  0.3046
 3078SOL    HW218203   5.499  11.606   2.258 -0.0818 -0.3600  0.0611
 3079SOL     OW18204   5.172   1.586   1.409 -0.8002 -0.3731  0.5353
 3079SOL    HW118205   5.227   1.607   1.334 -2.6142 -1.3724 -1.1630
 3079SOL    HW218206   5.218   1.515   1.454  2.6887  3.1248  3.2806
 3080SOL     OW18207   2.552   2.357   9.642  0.2391  0.7153  0.5320
 3080SOL    HW118208   2.573   2.386   9.553 -0.4135 -1.8526 -0.5560
 3080SOL    HW218209   2.636   2.330   9.679  0.4234  1.1650  0.4458
 3081SOL     OW18210   8.649  10.832  10.929  0.0329  1.2277  0.0622
 3081SOL    HW118211   8.601  10.765  10.881  1.5810  1.0208 -1.2666
 3081SOL    HW218212   8.622  10.915  10.889  0.7766  1.1097 -0.7023
 3082SOL     OW18213   8.691   0.991   6.623  0.4947 -0.3146  0.3027
 3082SOL    HW118214   8.679   1.078   6.662 -0.3880  0.0240 -0.6807
 3082SOL    HW218215   8.674   1.003   6.530 -1.7280 -1.9047  0.4149
 3083SOL     OW18216   3.503   7.184   0.722 -0.1674  0.6969  0.1517
 3083SOL    HW118217   3.575   7.124   0.704 -0.7431  0.2222 -0.6503
 3083SOL    HW218218   3.455   7.143   0.794  0.3035  0.9677  0.6258
 3084SOL     OW18219   6.179  11.389   6.351  0.5721 -0.0879  0.0553
 3084SOL    HW118220   6.141  11.306   6.323 -0.0546  0.2145 -0.0265
 3084SOL    HW218221   6.139  11.406   6.436 -1.8606  1.6904 -1.3188
 3085SOL     OW18222   3.439   5.476   9.674  0.2397 -0.2563 -0.3261
 3085SOL    HW118223   3.451   5.444   9.585 -1.4398 -1.7219 -0.0908
 3085SOL    HW218224   3.362   5.533   9.668 -1.0809 -1.8759  0.4616
 3086SOL     OW18225   3.580   0.647   4.255  0.1393 -0.3459 -0.7331
 3086SOL    HW118226   3.655   0.630   4.199  0.0288  0.3447 -1.0963
 3086SOL    HW218227   3.557   0.561   4.291  1.1346 -0.5540 -0.5622
 3087SOL     OW18228   9.984   2.055   2.574  0.2770 -0.1555 -0.1885
 3087SOL    HW118229   9.938   1.971   2.584  1.2732 -0.7206 -0.2310
 3087SOL    HW218230   9.996   2.065   2.480  1.3553 -0.6432 -0.1160
 3088SOL     OW18231   3.168   0.470   9.519 -0.8914  0.2780 -0.0876
 3088SOL    HW118232   3.149   0.518   9.438  1.1307  0.7271 -0.3440
 3088SOL    HW218233   3.144   0.530   9.589 -1.2641  0.4641 -0.3725
 3089SOL     OW18234  11.473   2.156   9.708  0.8422  0.5244  0.3982
 3089SOL    HW118235  11.512   2.088   9.763  0.9803 -0.1806 -0.5501
 3089SOL    HW218236  11.428   2.214   9.770  1.0428 -0.2138  1.2561
 3090SOL     OW18237   7.573   8.084   4.434  0.2440 -0.0426  0.5056
 3090SOL    HW118238   7.626   8.141   4.379  0.8211 -0.5625  0.5079
 3090SOL    HW218239   7.493   8.068   4.383 -0.4718  1.7207  1.0166
 3091SOL     OW18240   5.389  11.116   3.632  0.6215 -0.3286  0.3326
 3091SOL    HW118241   5.312  11.167   3.609  0.9825 -0.1721 -0.5850
 3091SOL    HW218242   5.383  11.104   3.727 -1.4851 -1.9062  0.0677
 3092SOL     OW18243   7.666   8.660   9.737  0.3330 -0.1870  0.4575
 3092SOL    HW118244   7.582   8.700   9.759  0.6413 -0.1741  1.6580
 3092SOL    HW218245   7.712   8.652   9.820  0.5464 -2.4702  0.1906
 3093SOL     OW18246   5.410  11.713   0.089 -0.3572 -0.1165  0.5544
 3093SOL    HW118247   5.328  11.739   0.130 -2.2972 -0.7038 -2.6364
 3093SOL    HW218248   5.437  11.789   0.038 -0.9043 -1.0462 -1.2057
 3094SOL     OW18249   9.831   7.991   2.328 -0.0864  0.0905  0.3144
 3094SOL    HW118250   9.763   7.977   2.393 -1.9404 -1.0429 -1.7311
 3094SOL    HW218251   9.847   8.086   2.330 -0.9663  0.2397  1.5329
 3095SOL     OW18252  10.777   5.949  10.754 -0.0830  0.2092  0.2745
 3095SOL    HW118253  10.826   6.028  10.779 -0.6421  0.2374  1.3224
 3095SOL    HW218254  10.689   5.964  10.788 -0.8390  0.1448 -1.5608
 3096SOL     OW18255  10.449  11.626   9.913  0.5382 -0.0179  0.3727
 3096SOL    HW118256  10.495  11.600   9.993  0.8702 -1.2413 -0.1896
 3096SOL    HW218257  10.519  11.640   9.849  0.1980 -1.8855 -0.4884
 3097SOL     OW18258   0.593   0.725   3.701  0.5203  0.0960 -0.3567
 3097SOL    HW118259   0.571   0.792   3.636 -1.6340 -1.4513 -1.3250
 3097SOL    HW218260   0.601   0.644   3.651  1.1011 -0.7600  1.0472
 3098SOL     OW18261   1.312  10.579   4.940 -0.0231 -0.1108  0.3891
 3098SOL    HW118262   1.316  10.652   5.002  1.4491  0.3009 -0.1532
 3098SOL    HW218263   1.240  10.525   4.972 -1.4073  1.7525  0.5928
 3099SOL     OW18264   4.819   7.684   8.689 -0.7897 -0.4418  0.0646
 3099SOL    HW118265   4.824   7.599   8.733  2.6100 -1.3061 -1.6147
 3099SOL    HW218266   4.898   7.730   8.717 -1.8796  1.6465 -0.1270
 3100SOL     OW18267   4.768  11.830   6.499 -0.0799  0.6826 -0.1474
 3100SOL    HW118268   4.860  11.804   6.506 -0.0517  0.2265 -1.7239
 3100SOL    HW218269   4.727  11.761   6.447 -1.0365  1.4980 -0.5181
 3101SOL     OW18270  12.363   7.751   0.237  0.3131  0.3224  0.2070
 3101SOL    HW118271  12.346   7.718   0.149  0.4602  0.8110 -0.0104
 3101SOL    HW218272  12.408   7.679   0.281 -1.0355 -0.4649  0.3498
 3102SOL     OW18273   2.002   6.487   2.177 -0.2249 -0.5586  0.6477
 3102SOL    HW118274   1.968   6.406   2.140  0.5397 -0.3721 -0.5135
 3102SOL    HW218275   1.925   6.535   2.207 -0.9132 -0.5586 -1.0478
 3103SOL     OW18276   0.725   5.840   2.144  0.3683  0.5938  0.3518
 3103SOL    HW118277   0.639   5.817   2.110  0.1399 -0.0412  1.3253
 3103SOL    HW218278   0.711   5.858   2.237  1.1513  1.2706  0.3535
 3104SOL     OW18279   9.819   4.489   7.306  0.4125  0.2144  0.3170
 3104SOL    HW118280   9.776   4.496   7.221 -0.3069 -0.5544  0.6037
 3104SOL    HW218281   9.912   4.490   7.286  0.2741 -1.5339 -0.6577
 3105SOL     OW18282   2.602   5.577   3.283 -0.7899 -0.5954 -0.6070
 3105SOL    HW118283   2.580   5.587   3.190 -0.6466 -0.6169 -0.6437
 3105SOL    HW218284   2.642   5.660   3.307 -0.5528 -0.6968 -0.6430
 3106SOL     OW18285   8.306   2.961   1.770  0.0873  0.3979 -0.2301
 3106SOL    HW118286   8.299   2.935   1.862  0.8662 -2.2426 -0.8473
 3106SOL    HW218287   8.378   3.025   1.769  0.4991 -0.0206  0.9035
 3107SOL     OW18288   4.980  11.462   6.565  0.3887 -0.1671 -0.4184
 3107SOL    HW118289   5.015  11.374   6.578 -1.3591 -0.7285  0.7617
 3107SOL    HW218290   4.933  11.482   6.646 -0.0788  1.4732 -1.0446
 3108SOL     OW18291   3.497   1.256   4.403  0.1950 -0.2964  0.4120
 3108SOL    HW118292   3.462   1.330   4.452  0.2015 -2.5280  4.3138
 3108SOL    HW218293   3.587   1.280   4.383 -0.0230  1.0328  0.9505
 3109SOL     OW18294  10.364   6.470   5.109 -0.1698  0.1588  0.2363
 3109SOL    HW118295  10.339   6.391   5.156  0.3774 -0.1110  0.0851
 3109SOL    HW218296  10.460   6.471   5.113 -0.0641 -0.1640 -1.3314
 3110SOL     OW18297   0.910   5.772   2.456  0.1895 -0.4220  0.3836
 3110SOL    HW118298   1.005   5.784   2.447  0.1939 -0.4830  0.3466
 3110SOL    HW218299   0.900   5.687   2.497  0.1142 -1.2727 -1.2940
 3111SOL     OW18300   4.173   5.284   5.073  0.4893  0.1473 -0.4420
 3111SOL    HW118301   4.146   5.347   5.008  0.8941  1.9408  1.0456
 3111SOL    HW218302   4.235   5.226   5.027 -0.8379  0.0232 -2.1396
 3112SOL     OW18303   4.726  11.440   0.035 -0.7326  1.0548 -0.0283
 3112SOL    HW118304   4.685  11.371  -0.017  1.4847  0.7019 -1.4005
 3112SOL    HW218305   4.779  11.393   0.099  1.2165  1.4029 -1.3130
 3113SOL     OW18306   8.635   8.403   3.046 -0.2257  0.1284 -0.2189
 3113SOL    HW118307   8.553   8.452   3.046 -0.0029  0.5236 -0.9550
 3113SOL    HW218308   8.695   8.458   3.097 -0.4133 -0.1541  0.3076
 3114SOL     OW18309   5.570   9.991   8.839  0.5117  0.0803  0.0399
 3114SOL    HW118310   5.615  10.011   8.756 -0.3860  0.6385 -0.3235
 3114SOL    HW218311   5.618   9.915   8.874  0.0479 -1.0788 -1.6827
 3115SOL     OW18312   3.923   3.431   7.226 -1.0906 -0.3231  0.4918
 3115SOL    HW118313   3.847   3.469   7.182  0.2438  0.8551 -0.9096
 3115SOL    HW218314   3.963   3.504   7.273 -1.2130 -1.0947  1.8642
 3116SOL     OW18315   9.711   8.723  10.877  0.6073 -0.0600  0.2211
 3116SOL    HW118316   9.664   8.677  10.807  0.6225  0.5855 -0.2226
 3116SOL    HW218317   9.647   8.730  10.948  0.1575  0.4411 -0.2256
 3117SOL     OW18318   1.629   5.056  11.965 -0.3809 -0.2607  0.1353
 3117SOL    HW118319   1.551   5.001  11.969 -0.2927 -0.3970 -0.0135
 3117SOL    HW218320   1.692   5.013  12.023  0.2893 -1.2752 -1.2933
 3118SOL     OW18321   7.742  12.259   6.608 -0.0072  0.0545  0.3107
 3118SOL    HW118322   7.674  12.203   6.571  0.6015  0.1197 -0.9710
 3118SOL    HW218323   7.822  12.233   6.561  0.7999  0.1697  1.5794
 3119SOL     OW18324   7.746  11.016   5.232  0.4435  0.1751  0.1981
 3119SOL    HW118325   7.693  10.959   5.288 -1.4571  1.4761 -0.2052
 3119SOL    HW218326   7.808  11.056   5.292 -0.5940  0.4304  1.1410
 3120SOL     OW18327  10.853   5.444   2.218  0.0141  0.0006  0.0460
 3120SOL    HW118328  10.945   5.461   2.236 -0.5557  0.7276  2.6870
 3120SOL    HW218329  10.834   5.362   2.263 -0.4465 -0.6886 -1.3253
 3121SOL     OW18330   7.157   6.803   3.967 -0.4427  0.2125 -0.4076
 3121SOL    HW118331   7.237   6.854   3.982 -0.4803  0.6747 -1.6627
 3121SOL    HW218332   7.170   6.763   3.881 -1.6956  0.5533 -0.7744
 3122SOL     OW18333   6.044  11.403   6.898 -0.2944  0.2350  1.1494
 3122SOL    HW118334   6.099  11.389   6.974  0.6424 -0.0248  0.4424
 3122SOL    HW218335   5.999  11.486   6.916 -0.3088  0.0304  2.1007
 3123SOL     OW18336   7.988   2.378   8.674  0.2360  0.7320  0.0739
 3123SOL    HW118337   8.016   2.314   8.608  3.0342  1.5235  0.3504
 3123SOL    HW218338   8.028   2.348   8.755 -0.1314  1.7170  0.6362
 3124SOL     OW18339   0.124   6.625   1.602  0.0095  0.1952 -0.1765
 3124SOL    HW118340   0.088   6.577   1.677  0.4317  0.4392  0.1921
 3124SOL    HW218341   0.130   6.716   1.633 -0.8986  0.5109 -0.9077
 3125SOL     OW18342   9.805   9.623   4.116  0.4599  0.3347  0.4533
 3125SOL    HW118343   9.710   9.618   4.118  0.4646  0.0455  2.6414
 3125SOL    HW218344   9.825   9.689   4.050 -1.2771  0.6672  0.2283
 3126SOL     OW18345   5.320   3.349   5.287 -0.5376 -0.2539  0.0663
 3126SOL    HW118346   5.226   3.365   5.274 -0.2109  2.2668  0.2532
 3126SOL    HW218347   5.335   3.369   5.379 -0.0253 -2.0779  0.4145
 3127SOL     OW18348   5.200   2.293   3.703 -0.0909 -0.0169 -0.4071
 3127SOL    HW118349   5.146   2.265   3.777  0.4405 -0.6122 -0.2356
 3127SOL    HW218350   5.149   2.362   3.661 -0.2627  0.5505  0.6936
 3128SOL     OW18351   0.332  10.097   2.942  0.0070 -0.0275  0.4579
 3128SOL    HW118352   0.343  10.090   2.847 -0.7909 -1.6978  0.4623
 3128SOL    HW218353   0.404  10.048   2.979  1.7793  2.6510  0.8432
 3129SOL     OW18354  10.869   4.966   6.535  0.5416  0.6032 -0.3337
 3129SOL    HW118355  10.834   4.898   6.593 -0.2389  2.7847  1.9107
 3129SOL    HW218356  10.946   4.925   6.494 -1.1701 -2.3483 -0.8727
 3130SOL     OW18357   8.273   1.602   4.711  0.1969 -0.0757 -0.2231
 3130SOL    HW118358   8.280   1.696   4.731 -0.4708  0.0842 -0.7312
 3130SOL    HW218359   8.276   1.559   4.797 -0.2722  0.4598  0.0671
 3131SOL     OW18360   4.142  11.386   3.239  0.1790  0.0991  0.5181
 3131SOL    HW118361   4.060  11.341   3.261 -0.4582 -0.4331 -2.5676
 3131SOL    HW218362   4.205  11.354   3.305 -1.1184 -2.6141  0.5882
 3132SOL     OW18363   8.756   6.746   2.657 -0.2237  0.2338 -0.3272
 3132SOL    HW118364   8.827   6.732   2.595  0.0709  1.9253 -0.4188
 3132SOL    HW218365   8.780   6.694   2.734 -0.5199 -1.7465 -1.5259
 3133SOL     OW18366   2.034   6.330   1.787 -0.5964  0.5892 -0.0585
 3133SOL    HW118367   1.943   6.358   1.779 -1.0055 -0.7934 -0.7280
 3133SOL    HW218368   2.029   6.234   1.793  0.8581  0.3690 -1.5209
 3134SOL     OW18369   8.048   7.948   1.354  0.0257  0.3220  0.3551
 3134SOL    HW118370   8.023   7.915   1.440 -0.8665  0.5575  0.1954
 3134SOL    HW218371   8.037   8.043   1.360  0.5776  0.4029  0.1747
 3135SOL     OW18372   0.713  11.329   3.089 -0.1893  0.4053  0.4546
 3135SOL    HW118373   0.618  11.322   3.078 -0.0647 -0.8305  0.0653
 3135SOL    HW218374   0.725  11.335   3.184 -0.6186 -0.1754  0.5513
 3136SOL     OW18375  11.136   5.990  12.026 -0.0499 -0.6566  0.5198
 3136SOL    HW118376  11.122   5.902  12.060 -0.6466 -1.2983 -1.2507
 3136SOL    HW218377  11.185   5.977  11.945 -1.1499  0.5320 -0.3732
 3137SOL     OW18378  11.053   0.640   1.933  0.0389  0.0370  0.1434
 3137SOL    HW118379  11.038   0.726   1.971 -0.4586  0.1239 -0.2452
 3137SOL    HW218380  11.014   0.645   1.846 -0.0832 -0.6133  0.1553
 3138SOL     OW18381   2.470  12.087   2.922 -0.2037  0.3100  0.1296
 3138SOL    HW118382   2.379  12.113   2.905  0.4115  1.5537 -1.5789
 3138SOL    HW218383   2.496  12.140   2.996 -0.8318  0.0038  0.5825
 3139SOL     OW18384   6.508   8.483   5.575  0.0847 -0.4468 -0.2481
 3139SOL    HW118385   6.414   8.500   5.570 -0.0535 -0.7477  0.9966
 3139SOL    HW218386   6.516   8.388   5.578  0.1979 -0.4213  2.5525
 3140SOL     OW18387   5.066   8.035   8.377 -0.1550  0.0728 -0.4639
 3140SOL    HW118388   5.097   8.121   8.347  0.3041  0.3340  0.7111
 3140SOL    HW218389   5.041   7.989   8.297  3.0815 -0.0844 -1.5290
 3141SOL     OW18390  11.430   3.317  11.570 -0.2523  0.1427 -0.0796
 3141SOL    HW118391  11.382   3.341  11.491  1.1185 -2.1133 -1.7224
 3141SOL    HW218392  11.417   3.222  11.578  0.9907  0.0600  1.4533
 3142SOL     OW18393   4.054   5.796   5.461  0.0767  0.3182  0.4232
 3142SOL    HW118394   3.984   5.748   5.416  1.5975 -1.1213 -0.5215
 3142SOL    HW218395   4.131   5.784   5.406  1.5180  0.2870  2.3309
 3143SOL     OW18396   0.051   5.028   6.137  0.1922 -0.1605  0.1698
 3143SOL    HW118397   0.025   4.936   6.142 -3.3452  0.6804 -0.4853
 3143SOL    HW218398   0.063   5.043   6.043 -1.5532  0.5447  0.0293
 3144SOL     OW18399   8.392   5.127  12.015 -0.0864 -0.2804  0.4853
 3144SOL    HW118400   8.471   5.099  11.969  0.2360  0.4008  0.6246
 3144SOL    HW218401   8.412   5.214  12.049 -0.8196 -0.1848  0.7048
 3145SOL     OW18402   8.005   9.151   3.095 -0.2185  0.4143  0.5287
 3145SOL    HW118403   7.994   9.100   3.014 -0.7851  1.4205 -0.0450
 3145SOL    HW218404   7.987   9.088   3.165 -0.3679 -0.3103 -0.1400
 3146SOL     OW18405   0.029  10.084   1.849 -0.1561 -0.1652  0.0136
 3146SOL    HW118406   0.124  10.074   1.852 -0.3259 -2.1503  1.0670
 3146SOL    HW218407   0.010  10.109   1.759  1.3737  0.5742 -0.1355
 3147SOL     OW18408   1.229  11.149   1.302  0.5414 -0.1825 -0.1395
 3147SOL    HW118409   1.295  11.208   1.339  0.3095  0.3177 -0.5150
 3147SOL    HW218410   1.151  11.165   1.354 -0.5673  2.4069 -2.3602
 3148SOL     OW18411   7.166   1.692  11.398 -0.8869  0.5321  0.2646
 3148SOL    HW118412   7.075   1.678  11.373  0.0465 -1.8349 -2.3952
 3148SOL    HW218413   7.194   1.609  11.435  0.6021  0.6162 -0.5784
 3149SOL     OW18414   1.142   9.705   3.835  0.6234  0.4250  0.0561
 3149SOL    HW118415   1.165   9.689   3.926 -1.6086  0.3286  0.6589
 3149SOL    HW218416   1.059   9.659   3.822  0.1851  1.5695 -1.6171
 3150SOL     OW18417   7.465   9.508   6.164  0.0392  0.0862  0.2394
 3150SOL    HW118418   7.454   9.460   6.081  1.5423  1.2518 -0.6734
 3150SOL    HW218419   7.461   9.439   6.231  1.5149 -1.2843 -0.9840
 3151SOL     OW18420  11.112   8.901  12.450 -0.9429 -0.7009  0.1113
 3151SOL    HW118421  11.137   8.928  12.362  0.1015  1.1392  0.9326
 3151SOL    HW218422  11.113   8.982  12.501  0.5001 -2.0114  2.2915
 3152SOL     OW18423   0.790  10.264  12.364 -0.4902 -0.1045  0.1488
 3152SOL    HW118424   0.720  10.248  12.300 -0.4657  1.3688 -0.2858
 3152SOL    HW218425   0.867  10.285  12.310 -0.3494  0.7005  0.6512
 3153SOL     OW18426   9.600   9.316  10.500 -0.3258  0.0305 -0.3804
 3153SOL    HW118427   9.648   9.287  10.578  0.6087  1.2334 -0.4683
 3153SOL    HW218428   9.663   9.372  10.453 -0.5589 -1.3741 -2.4767
 3154SOL     OW18429  11.109   8.847   6.525 -0.3694  0.1579  0.3487
 3154SOL    HW118430  11.106   8.810   6.437  1.7019 -0.2706  0.4032
 3154SOL    HW218431  11.028   8.899   6.533 -1.9089 -1.9312 -0.7972
 3155SOL     OW18432   5.541   1.302   0.201  0.2395 -0.5436 -0.8373
 3155SOL    HW118433   5.580   1.215   0.198  2.9248  0.5111  0.4826
 3155SOL    HW218434   5.610   1.360   0.169 -1.6407  1.1177 -2.1575
 3156SOL     OW18435   3.947  10.130   0.063  0.3426  0.2755 -0.3531
 3156SOL    HW118436   3.980  10.124  -0.027  0.7152 -1.8494 -0.1135
 3156SOL    HW218437   3.944  10.224   0.081  0.7753  0.7253 -2.3907
 3157SOL     OW18438  12.371  11.097  11.107  0.1369 -0.1011  0.1270
 3157SOL    HW118439  12.415  11.113  11.191 -1.5087 -1.1112  1.2555
 3157SOL    HW218440  12.291  11.149  11.113  0.7504  1.1210 -1.5618
 3158SOL     OW18441   1.678   4.884   0.421 -0.5093 -0.4605 -0.2546
 3158SOL    HW118442   1.683   4.830   0.501 -2.5456 -2.6485 -1.4637
 3158SOL    HW218443   1.716   4.829   0.353 -0.8403  0.4370 -1.1836
 3159SOL     OW18444   2.977   5.818   3.651 -0.2956 -0.6999  0.1563
 3159SOL    HW118445   2.940   5.879   3.715  0.7480  0.9666 -0.7401
 3159SOL    HW218446   2.984   5.870   3.571  1.5982 -1.6733 -0.3642
 3160SOL     OW18447   4.895   2.710   6.747  0.1814 -0.5515 -0.1281
 3160SOL    HW118448   4.822   2.732   6.689 -0.8893 -0.7553  1.0871
 3160SOL    HW218449   4.878   2.620   6.775 -0.4249  0.1280  1.9506
 3161SOL     OW18450   8.788   1.677   1.066  0.4487  0.7397  0.0995
 3161SOL    HW118451   8.788   1.677   1.162  0.2194  0.9737  0.1015
 3161SOL    HW218452   8.701   1.644   1.042  0.6333  0.3328 -0.0329
 3162SOL     OW18453   5.428   3.482   1.737 -0.1245  0.2908 -0.4260
 3162SOL    HW118454   5.463   3.440   1.659 -1.9531 -0.3119 -0.9622
 3162SOL    HW218455   5.357   3.425   1.766 -2.7776  2.9417 -1.2148
 3163SOL     OW18456   8.915   8.696   7.872 -0.0508 -0.5536  0.2350
 3163SOL    HW118457   8.997   8.745   7.879 -0.8366  0.6610  1.6411
 3163SOL    HW218458   8.891   8.701   7.780  0.1839  1.2954  0.2459
 3164SOL     OW18459   6.408   3.679   9.695 -0.5180 -0.5351  0.5363
 3164SOL    HW118460   6.428   3.586   9.682  1.3001 -0.3464  1.5970
 3164SOL    HW218461   6.315   3.682   9.717 -0.0244 -2.4434  3.3385
 3165SOL     OW18462  12.062   2.693   3.812  0.0766  0.2158 -0.4702
 3165SOL    HW118463  12.132   2.738   3.765  0.1519 -0.3062 -0.8579
 3165SOL    HW218464  11.984   2.747   3.798 -0.0262 -0.2132 -1.6537
 3166SOL     OW18465  11.089   2.043   7.095  0.4178 -0.4494  0.6239
 3166SOL    HW118466  11.020   2.012   7.154 -0.0678  0.6396  0.6396
 3166SOL    HW218467  11.075   2.137   7.089  1.7425 -0.2532  0.4039
 3167SOL     OW18468  10.963   3.105   7.423  0.0056 -0.3011  0.0501
 3167SOL    HW118469  11.046   3.095   7.376  0.1529 -0.3634  0.3211
 3167SOL    HW218470  10.908   3.157   7.363  0.6456  0.7542  0.3499
 3168SOL     OW18471   0.060   2.873   4.991 -0.0298  0.1918  0.0804
 3168SOL    HW118472  -0.031   2.848   5.009 -0.1924  1.1351  0.6598
 3168SOL    HW218473   0.076   2.843   4.902 -1.0212  0.3017 -0.1481
 3169SOL     OW18474   0.120   7.262   6.125  0.1183  0.2967 -0.3563
 3169SOL    HW118475   0.050   7.197   6.131  0.4357 -0.1384 -1.2132
 3169SOL    HW218476   0.104   7.308   6.043  1.7710 -0.9639 -1.4613
 3170SOL     OW18477   9.677   8.624   3.946  0.4191  0.7602  0.2183
 3170SOL    HW118478   9.749   8.585   3.897 -0.3898  0.0592 -0.4418
 3170SOL    HW218479   9.599   8.578   3.915 -0.0891 -0.0480  2.4978
 3171SOL     OW18480  10.558   3.758   2.230  0.1725  0.4879 -0.3632
 3171SOL    HW118481  10.513   3.723   2.307  2.6491 -1.8791  0.1371
 3171SOL    HW218482  10.557   3.687   2.167  2.2854  0.7010 -0.6916
 3172SOL     OW18483   0.403   1.028   6.769 -0.4507  0.3339  0.5892
 3172SOL    HW118484   0.390   1.122   6.780 -1.1981  0.0838  2.1654
 3172SOL    HW218485   0.493   1.013   6.796 -0.1856  0.6576 -0.1108
 3173SOL     OW18486   2.537   3.120   1.427 -0.6673  0.2988  0.0208
 3173SOL    HW118487   2.597   3.176   1.477  1.0682 -0.1839 -1.4125
 3173SOL    HW218488   2.498   3.179   1.362  0.7328  0.0060 -1.1230
 3174SOL     OW18489   2.060   1.953   9.468  0.1439 -0.3018  0.2335
 3174SOL    HW118490   2.141   1.904   9.455  1.5415  1.6930  0.9966
 3174SOL    HW218491   2.062   2.022   9.402 -1.5318 -0.8684 -0.4744
 3175SOL     OW18492   1.299   2.557   0.163 -0.2026 -0.0341 -0.0243
 3175SOL    HW118493   1.349   2.638   0.156  1.4125 -1.0928 -1.6707
 3175SOL    HW218494   1.348   2.505   0.227 -1.9707  0.7204  2.0547
 3176SOL     OW18495  10.100   9.679   0.449  0.2481  0.0051 -0.1942
 3176SOL    HW118496  10.163   9.646   0.385 -0.6673  0.5933 -1.4438
 3176SOL    HW218497  10.153   9.731   0.509  1.0734 -0.1444 -0.7658
 3177SOL     OW18498   4.871  11.965   4.446  0.8809  0.3742  0.6591
 3177SOL    HW118499   4.825  12.009   4.518  2.4964  1.2157  1.2016
 3177SOL    HW218500   4.910  12.036   4.395 -1.4709 -0.0639 -2.0328
 3178SOL     OW18501  12.146   0.567   8.772  0.2306  0.1853  0.2891
 3178SOL    HW118502  12.200   0.522   8.708 -0.6179  0.8626 -0.9396
 3178SOL    HW218503  12.062   0.580   8.728  0.4318  2.9674  0.5315
 3179SOL     OW18504   6.566   6.390   7.824 -0.6785 -0.1611 -0.4445
 3179SOL    HW118505   6.478   6.413   7.793 -0.8962  0.3652  0.5323
 3179SOL    HW218506   6.552   6.322   7.889 -0.4928  0.7917  0.6312
 3180SOL     OW18507   6.860   6.632   2.302  0.1600  0.1866  0.1768
 3180SOL    HW118508   6.786   6.679   2.341 -0.1921  0.7086 -1.0790
 3180SOL    HW218509   6.825   6.546   2.279  0.0228  0.3220 -0.1273
 3181SOL     OW18510   9.190  12.118   6.769  0.0071  0.0179 -0.0575
 3181SOL    HW118511   9.204  12.030   6.804  0.9734  0.3224  0.3731
 3181SOL    HW218512   9.138  12.162   6.836 -0.2889 -0.1656 -0.1695
 3182SOL     OW18513   1.379   9.280   0.235  0.2410  0.0939 -0.5579
 3182SOL    HW118514   1.360   9.241   0.321 -0.4708  0.3287 -0.5989
 3182SOL    HW218515   1.450   9.226   0.200 -0.7519 -1.2189 -0.6363
 3183SOL     OW18516   4.497  11.665   2.413  0.4712 -0.4402 -0.1501
 3183SOL    HW118517   4.499  11.660   2.508 -0.8375  0.1874 -0.0667
 3183SOL    HW218518   4.531  11.581   2.384 -0.1133 -1.0624  0.8998
 3184SOL     OW18519   8.646   1.489   0.801  0.3693  0.2135  0.2956
 3184SOL    HW118520   8.714   1.543   0.762  0.8624 -1.3644 -1.1933
 3184SOL    HW218521   8.586   1.469   0.728  1.8468 -3.6566 -0.1258
 3185SOL     OW18522  12.119  10.633   0.319  0.0105 -0.2134  0.4245
 3185SOL    HW118523  12.209  10.634   0.286 -0.6393  0.4546 -1.4523
 3185SOL    HW218524  12.107  10.544   0.354  1.6729 -0.0182  1.6126
 3186SOL     OW18525   3.463   1.909   9.110 -1.0328 -0.3062  0.8804
 3186SOL    HW118526   3.438   1.851   9.038 -0.1250 -1.8733  1.7849
 3186SOL    HW218527   3.549   1.942   9.084 -1.9797  1.5470 -0.1252
 3187SOL     OW18528  11.405   2.879   4.000  0.5974  0.1129  0.8670
 3187SOL    HW118529  11.366   2.858   4.085 -0.4285  0.1689  0.4192
 3187SOL    HW218530  11.406   2.797   3.952 -2.9439  0.8045 -0.6909
 3188SOL     OW18531  12.365   3.902   1.690  0.3902 -0.2478  0.2577
 3188SOL    HW118532  12.274   3.917   1.664 -0.2409  0.1787  2.5451
 3188SOL    HW218533  12.376   3.951   1.771  2.9905  0.5746 -0.4767
 3189SOL     OW18534   6.868   0.297   2.527 -0.3140  0.6793  0.7230
 3189SOL    HW118535   6.929   0.370   2.519  0.8905 -0.1943  1.6714
 3189SOL    HW218536   6.807   0.309   2.454  1.0545  1.5008 -0.3293
 3190SOL     OW18537   9.014  11.589   7.536  0.0317 -0.6101  0.4194
 3190SOL    HW118538   8.996  11.506   7.493 -0.7510 -0.2605  0.0517
 3190SOL    HW218539   9.093  11.622   7.493  0.2822 -1.1112  0.4966
 3191SOL     OW18540   1.131   7.941   4.071 -0.1931 -0.2088 -0.1561
 3191SOL    HW118541   1.145   7.848   4.086 -0.6924 -0.0082  1.8013
 3191SOL    HW218542   1.046   7.946   4.028 -0.6299 -0.6164  0.6384
 3192SOL     OW18543  11.739   6.325   5.785  0.3406 -0.3513  0.6555
 3192SOL    HW118544  11.832   6.302   5.778  0.2849 -0.6829  0.9304
 3192SOL    HW218545  11.701   6.252   5.833 -0.2469 -0.6812 -0.2901
 3193SOL     OW18546   1.206   7.936   5.968  0.0829 -0.2523  0.0636
 3193SOL    HW118547   1.238   8.006   6.026 -0.6782  1.9967 -2.0874
 3193SOL    HW218548   1.112   7.952   5.960 -0.2158 -1.8651 -0.1371
 3194SOL     OW18549   9.673   6.794   7.235 -0.3465 -0.2062  0.1744
 3194SOL    HW118550   9.664   6.745   7.317 -0.4931  0.7068  0.7164
 3194SOL    HW218551   9.606   6.862   7.241  0.5561  0.7116 -0.0974
 3195SOL     OW18552   6.382   1.676   9.524 -0.0948  0.1357  0.4039
 3195SOL    HW118553   6.342   1.700   9.441 -1.1146  0.1403  0.8790
 3195SOL    HW218554   6.322   1.711   9.590  0.5219 -0.1632  1.1357
 3196SOL     OW18555   5.965   8.264   7.450  0.4409  0.1618 -0.4813
 3196SOL    HW118556   6.053   8.251   7.486  0.9562 -0.4436 -1.8718
 3196SOL    HW218557   5.914   8.298   7.523  2.1799  1.9298  0.0316
 3197SOL     OW18558  11.249   8.123   1.890  0.1397 -0.2857 -0.0608
 3197SOL    HW118559  11.273   8.185   1.959 -0.1795  0.6090 -0.7450
 3197SOL    HW218560  11.195   8.058   1.935  0.8909 -0.3604  0.7618
 3198SOL     OW18561   1.920   4.425   2.370 -0.0345  0.3196 -0.3500
 3198SOL    HW118562   2.012   4.435   2.343 -0.3856 -1.3611 -2.4034
 3198SOL    HW218563   1.870   4.441   2.290 -1.4989  0.2482  0.5201
 3199SOL     OW18564  10.348   5.209   5.124  0.1375  0.0921 -0.5574
 3199SOL    HW118565  10.322   5.121   5.094 -1.1313 -0.2282  1.3584
 3199SOL    HW218566  10.284   5.268   5.084  0.4615  0.0723 -1.1269
 3200SOL     OW18567   2.486   4.473  10.847  0.1684 -0.0390  0.6727
 3200SOL    HW118568   2.564   4.522  10.870  0.8348  0.1592 -1.7923
 3200SOL    HW218569   2.414   4.535  10.857  1.0286  1.7632 -2.7754
 3201SOL     OW18570   9.744   8.058  12.467 -0.2485  0.5225  0.0486
 3201SOL    HW118571   9.817   8.047  12.527  1.1734  1.1459 -1.4742
 3201SOL    HW218572   9.709   7.970  12.454  2.2390 -0.3345 -1.5400
 3202SOL     OW18573   7.907   7.546   0.274  0.4043  0.1339  0.3183
 3202SOL    HW118574   7.906   7.611   0.204  3.0695  0.6679  0.6368
 3202SOL    HW218575   7.984   7.491   0.255  0.0802 -0.9080  1.7801
 3203SOL     OW18576   4.975   7.829   3.068 -0.3741 -0.1845 -0.1855
 3203SOL    HW118577   4.959   7.749   3.017 -0.3145  0.3486 -1.0573
 3203SOL    HW218578   4.996   7.797   3.155  5.2319 -1.5629 -1.6594
 3204SOL     OW18579   6.392   4.186   3.861 -0.0661  0.2900 -0.2412
 3204SOL    HW118580   6.487   4.176   3.857 -0.1182  0.2592 -1.8495
 3204SOL    HW218581   6.358   4.109   3.816 -0.8903  0.0540  0.7405
 3205SOL     OW18582   4.340   2.112   5.780  0.0271  0.1598  0.1171
 3205SOL    HW118583   4.310   2.167   5.852  2.2175  1.9968 -0.2563
 3205SOL    HW218584   4.265   2.107   5.721 -0.4882  2.1765  0.5229
 3206SOL     OW18585   9.526   2.039   0.347 -0.2564  0.1938  0.4920
 3206SOL    HW118586   9.493   2.026   0.436 -1.4706 -0.5371 -0.0500
 3206SOL    HW218587   9.470   2.107   0.310 -0.3801 -0.1930 -0.0378
 3207SOL     OW18588   9.338   4.675   7.679 -0.0958  0.2577 -0.1416
 3207SOL    HW118589   9.366   4.671   7.588  1.7923 -1.2121  0.4423
 3207SOL    HW218590   9.412   4.717   7.725  0.6477 -2.3615  1.2255
 3208SOL     OW18591  11.232   0.896   4.946  0.6305 -0.8170 -0.4921
 3208SOL    HW118592  11.261   0.811   4.912  0.2951 -0.1764 -2.5447
 3208SOL    HW218593  11.313   0.943   4.963  0.8086 -1.1540 -0.3905
 3209SOL     OW18594   1.076   7.339   4.173 -0.0620 -0.1666 -0.2093
 3209SOL    HW118595   1.095   7.253   4.136 -2.0705 -0.8870  0.3093
 3209SOL    HW218596   1.152   7.392   4.149  0.5384 -1.6491 -1.8568
 3210SOL     OW18597   2.624  11.238   7.278  0.2352 -0.1670  0.5054
 3210SOL    HW118598   2.563  11.312   7.290  0.1535 -0.0840 -0.3516
 3210SOL    HW218599   2.650  11.243   7.186 -0.4898 -1.7591  0.1836
 3211SOL     OW18600   2.368  12.573   4.353  0.2766 -0.0899 -0.4667
 3211SOL    HW118601   2.342  12.500   4.409  0.2777  0.4488  0.2344
 3211SOL    HW218602   2.369  12.535   4.265 -1.1511 -0.5713 -0.3021
 3212SOL     OW18603   7.450   8.334   2.822 -0.4238  0.4879 -0.5408
 3212SOL    HW118604   7.367   8.307   2.862  0.1459 -1.9102 -0.8521
 3212SOL    HW218605   7.512   8.333   2.895  0.0308 -1.2027 -0.9004
 3213SOL     OW18606   7.271  12.458   0.477  0.3142  0.6750 -0.1232
 3213SOL    HW118607   7.357  12.446   0.437  0.8577  0.2187  1.1321
 3213SOL    HW218608   7.254  12.552   0.469  0.4495  0.6157 -1.2961
 3214SOL     OW18609  10.957   3.555   2.559 -0.4478  0.3142 -0.0051
 3214SOL    HW118610  10.916   3.485   2.508 -1.3110  1.6806 -1.2702
 3214SOL    HW218611  11.027   3.512   2.607  0.0389 -1.1684 -1.9217
 3215SOL     OW18612   3.504   4.043   4.445 -0.3591 -0.2575 -0.4017
 3215SOL    HW118613   3.419   4.048   4.403 -0.6800  1.1687  0.3585
 3215SOL    HW218614   3.485   4.014   4.534  0.0686 -0.9003 -0.5103
 3216SOL     OW18615   2.419   2.929   0.245  0.2755 -0.1461 -0.5031
 3216SOL    HW118616   2.377   2.843   0.254  0.8689 -0.3261  0.7120
 3216SOL    HW218617   2.512   2.912   0.262  0.5649  0.5692 -1.2890
 3217SOL     OW18618   2.156   5.800  10.288 -0.5931 -0.1368 -0.7725
 3217SOL    HW118619   2.096   5.838  10.224 -0.7793  1.0597  0.0761
 3217SOL    HW218620   2.101   5.777  10.363 -0.1595 -0.0147 -0.4083
 3218SOL     OW18621   1.940   2.009  12.515  0.6958 -0.6621  0.3086
 3218SOL    HW118622   1.926   1.927  12.468  0.7186 -1.5014  1.7297
 3218SOL    HW218623   1.958   1.983  12.605  1.0590  0.8923  0.7148
 3219SOL     OW18624   0.176   9.780   4.669 -0.8775 -0.4578  0.3611
 3219SOL    HW118625   0.140   9.853   4.619 -1.6473 -0.9320  0.2115
 3219SOL    HW218626   0.222   9.821   4.742 -2.0681  0.1668  0.7900
 3220SOL     OW18627   3.785  10.671   2.001  0.0078 -0.0797 -0.2346
 3220SOL    HW118628   3.742  10.588   1.980  2.7874 -2.1644  1.6284
 3220SOL    HW218629   3.838  10.691   1.923 -0.1968 -0.3694 -0.4494
 3221SOL     OW18630   9.812   4.677   8.574 -0.1028  0.3334  0.7316
 3221SOL    HW118631   9.779   4.746   8.632 -0.6235  1.9991 -1.4076
 3221SOL    HW218632   9.734   4.640   8.533  0.3549  1.4846 -1.3156
 3222SOL     OW18633   7.351  11.978   8.666 -0.0082 -0.0922 -0.0447
 3222SOL    HW118634   7.286  12.041   8.633 -0.3439 -0.6140 -0.3897
 3222SOL    HW218635   7.420  11.980   8.600  0.9631  1.4170  0.9551
 3223SOL     OW18636   4.443  11.203   8.660  0.2312  0.3680 -0.0801
 3223SOL    HW118637   4.441  11.267   8.589  0.1918 -0.8784 -1.2451
 3223SOL    HW218638   4.524  11.222   8.708 -0.0543  1.6100 -0.0728
 3224SOL     OW18639   7.790   3.310   3.517 -0.0480 -0.1232 -0.1541
 3224SOL    HW118640   7.806   3.217   3.532 -0.0632 -0.1772 -0.4618
 3224SOL    HW218641   7.819   3.325   3.427  0.0514  0.1929 -0.0697
 3225SOL     OW18642   7.017   0.218   5.574 -0.2271 -0.8136  0.4737
 3225SOL    HW118643   6.940   0.232   5.629 -1.0931  2.5431 -1.3236
 3225SOL    HW218644   6.981   0.186   5.491  0.3339  0.1893 -0.1711
 3226SOL     OW18645  10.031   8.813   5.563 -0.0047  0.2377 -0.1215
 3226SOL    HW118646  10.071   8.739   5.516  3.8736  0.5536  2.2575
 3226SOL    HW218647  10.064   8.890   5.518  1.4691  0.5030  1.3380
 3227SOL     OW18648   4.992   6.293   2.470  0.4608 -0.3259  0.4906
 3227SOL    HW118649   4.900   6.305   2.447  0.6963  1.4677  0.3274
 3227SOL    HW218650   4.994   6.302   2.565  0.3847 -1.0947  0.5712
 3228SOL     OW18651   1.368   5.339   5.934  0.5220 -0.6400  0.2504
 3228SOL    HW118652   1.418   5.261   5.957  1.6597  0.0256  0.0832
 3228SOL    HW218653   1.414   5.411   5.978 -0.2806 -0.0110  0.0874
 3229SOL     OW18654   0.176   9.032   4.513 -0.2450 -0.5428  0.2332
 3229SOL    HW118655   0.168   9.051   4.419  0.1728 -0.1013  0.2791
 3229SOL    HW218656   0.197   9.116   4.552 -0.8969 -0.6373  0.7941
 3230SOL     OW18657   0.959   5.816   1.005  0.7686  0.0561  0.1307
 3230SOL    HW118658   0.903   5.891   0.983  1.3770  0.4689 -0.0329
 3230SOL    HW218659   1.048   5.849   0.993  1.0359 -1.0055 -1.0286
 3231SOL     OW18660   8.884   0.383   7.201  0.1695  0.3272 -0.4082
 3231SOL    HW118661   8.978   0.383   7.215  0.3974 -1.8977 -1.5185
 3231SOL    HW218662   8.868   0.463   7.150  1.6239  0.2480 -1.0497
 3232SOL     OW18663   5.218   2.733   5.761  0.2509 -0.2569  0.4340
 3232SOL    HW118664   5.192   2.647   5.728 -0.9654  0.6210 -1.0552
 3232SOL    HW218665   5.247   2.717   5.851 -1.5149 -1.9614  0.7605
 3233SOL     OW18666   7.793   6.912   9.453 -0.1486  0.7139 -0.4453
 3233SOL    HW118667   7.888   6.927   9.444  0.2217 -1.4501 -0.6134
 3233SOL    HW218668   7.769   6.864   9.374 -1.2090  0.4000  0.0516
 3234SOL     OW18669  12.037   7.966   8.868 -0.1105  0.2642  0.5770
 3234SOL    HW118670  12.133   7.970   8.861 -0.0293 -0.7450  0.9760
 3234SOL    HW218671  12.006   7.985   8.779  0.4344  0.9961  0.5302
 3235SOL     OW18672   1.799  11.753   0.256 -0.2471 -0.4354  0.1341
 3235SOL    HW118673   1.882  11.709   0.234 -1.5946 -2.4950 -1.1792
 3235SOL    HW218674   1.809  11.777   0.348  2.2530  0.5008 -0.2924
 3236SOL     OW18675   7.424   2.277   0.391 -0.2106 -0.3669 -0.1633
 3236SOL    HW118676   7.395   2.368   0.403  0.3820 -0.1413 -0.3665
 3236SOL    HW218677   7.488   2.263   0.460 -0.2030 -0.5827 -0.2144
 3237SOL     OW18678   5.171   1.018   2.902 -0.5960  0.1152  0.1489
 3237SOL    HW118679   5.184   0.927   2.927  2.6921 -0.6359 -3.3425
 3237SOL    HW218680   5.231   1.067   2.957  1.9023 -0.7052 -1.6656
 3238SOL     OW18681  11.190   6.533   8.883  0.5634 -0.1443  0.6397
 3238SOL    HW118682  11.161   6.590   8.954 -1.3365  0.1060 -0.2592
 3238SOL    HW218683  11.199   6.590   8.807  3.5525 -0.2316  0.8270
 3239SOL     OW18684   9.826   6.949   7.438 -0.6205  0.4848  0.1079
 3239SOL    HW118685   9.812   6.854   7.439 -0.1742  0.4061  1.6036
 3239SOL    HW218686   9.745   6.984   7.401 -1.4805 -0.3996  1.0701
 3240SOL     OW18687   2.258  11.160  11.927  0.3175 -0.0532 -0.6180
 3240SOL    HW118688   2.350  11.184  11.941  0.3094 -0.3890  0.0398
 3240SOL    HW218689   2.260  11.067  11.905  0.0429 -0.3838  0.6779
 3241SOL     OW18690   0.891  12.283   8.109  0.3863  0.0837  0.0340
 3241SOL    HW118691   0.832  12.234   8.051  0.6367 -0.3279  0.1303
 3241SOL    HW218692   0.977  12.277   8.067  0.5806 -0.2675  0.4800
 3242SOL     OW18693   7.090   1.899  12.000 -0.0849  0.0232  0.7196
 3242SOL    HW118694   7.040   1.829  12.043 -1.4777  0.1092 -0.6809
 3242SOL    HW218695   7.076   1.976  12.056  0.1593 -0.4357  1.4221
 3243SOL     OW18696   9.078   5.283   1.120 -0.4238 -1.0107 -0.8048
 3243SOL    HW118697   8.997   5.234   1.104  0.4606 -1.8507 -3.1331
 3243SOL    HW218698   9.145   5.216   1.132 -0.2661 -0.3707  3.1694
 3244SOL     OW18699   9.143   9.236   5.758 -0.4198 -0.1385 -0.1794
 3244SOL    HW118700   9.218   9.177   5.756  0.3405  0.7922  0.3159
 3244SOL    HW218701   9.090   9.209   5.683  0.3087 -0.9178 -0.4370
 3245SOL     OW18702  10.939   1.484   7.241 -0.4209 -0.1049  0.3389
 3245SOL    HW118703  10.925   1.392   7.218  1.4859  0.0790 -1.8737
 3245SOL    HW218704  10.855   1.526   7.224 -1.0583 -1.2579  0.5030
 3246SOL     OW18705  12.533   5.178   8.674 -0.1042  0.0844  0.2180
 3246SOL    HW118706  12.528   5.082   8.672 -1.6495  0.1535 -0.8147
 3246SOL    HW218707  12.504   5.201   8.762 -0.2703 -0.3726  0.2894
 3247SOL     OW18708   6.914   3.599  10.578  0.0254 -0.4119  0.4272
 3247SOL    HW118709   6.996   3.568  10.616 -0.1204 -0.5423  0.6388
 3247SOL    HW218710   6.856   3.523  10.582  0.0644 -0.4846 -0.2303
 3248SOL     OW18711   0.896  10.501   8.953  0.1879  0.0519  0.2952
 3248SOL    HW118712   0.829  10.438   8.927  0.2163 -0.6939  1.9011
 3248SOL    HW218713   0.965  10.448   8.994  0.6919  1.0172  0.7345
 3249SOL     OW18714   2.161  10.003   0.976 -0.7498 -0.8433  0.0095
 3249SOL    HW118715   2.177   9.981   1.067 -1.8185  1.2228  0.7656
 3249SOL    HW218716   2.075   9.966   0.956  0.3442 -3.0916 -0.8734
 3250SOL     OW18717   1.396   3.834   8.626 -0.2644 -0.0825 -0.3444
 3250SOL    HW118718   1.353   3.781   8.558 -0.5664  0.7819 -0.8561
 3250SOL    HW218719   1.325   3.887   8.662 -0.0597 -0.3853  0.5039
 3251SOL     OW18720   8.732  10.668   2.788  0.2054  0.4972 -1.0241
 3251SOL    HW118721   8.742  10.591   2.731 -2.0975 -0.7758  0.1531
 3251SOL    HW218722   8.673  10.726   2.740  0.8069  0.9015 -1.2886
 3252SOL     OW18723   5.940   1.196  12.149 -0.3001 -0.4234  0.5481
 3252SOL    HW118724   6.029   1.162  12.157  0.0186 -0.0748 -1.1533
 3252SOL    HW218725   5.918   1.184  12.057 -2.4530 -1.5215  1.1590
 3253SOL     OW18726  10.427  10.494  11.792  0.1306 -0.3346 -0.6945
 3253SOL    HW118727  10.511  10.468  11.755  1.3364 -0.1275  1.6794
 3253SOL    HW218728  10.373  10.415  11.789  1.3533 -1.2326  0.1265
 3254SOL     OW18729   2.445  10.413   3.040 -0.1445 -0.0979  0.3607
 3254SOL    HW118730   2.431  10.364   3.121 -2.4423 -0.6964 -0.3216
 3254SOL    HW218731   2.360  10.410   2.995  0.9279  0.5845 -1.8663
 3255SOL     OW18732   0.593   7.892   7.961 -0.4552 -0.0993 -0.5370
 3255SOL    HW118733   0.672   7.878   7.908 -0.5578 -0.9782 -0.4709
 3255SOL    HW218734   0.620   7.957   8.027 -0.4226  1.2612 -1.8466
 3256SOL     OW18735   8.990   8.411   1.125  0.2265 -0.1481 -0.3083
 3256SOL    HW118736   8.943   8.328   1.135  0.5247 -0.3600 -0.6596
 3256SOL    HW218737   8.951   8.452   1.048  1.7257 -1.0838 -1.6038
 3257SOL     OW18738   0.012  10.609   9.573  0.8002  0.0879 -0.3571
 3257SOL    HW118739   0.053  10.691   9.601  0.7454  0.2474 -0.7467
 3257SOL    HW218740  -0.010  10.565   9.655  2.7789 -0.5284 -0.0813
 3258SOL     OW18741  10.588   0.604   7.707 -0.1973  0.1070  0.3043
 3258SOL    HW118742  10.499   0.639   7.708  0.2782  1.3881 -0.4042
 3258SOL    HW218743  10.619   0.618   7.796 -0.5126  0.1642  0.4083
 3259SOL     OW18744   6.233   7.804   8.305  0.2054  0.2149  0.7363
 3259SOL    HW118745   6.155   7.836   8.350 -1.3427 -0.0263 -1.6265
 3259SOL    HW218746   6.268   7.880   8.260  1.5179  0.3619  1.9088
 3260SOL     OW18747   9.245   3.649  12.497  0.1609 -0.4518  0.1246
 3260SOL    HW118748   9.167   3.671  12.548 -0.0808 -0.1632 -0.3699
 3260SOL    HW218749   9.315   3.699  12.540 -0.5611  2.3297 -1.6492
 3261SOL     OW18750   8.942   5.678   3.999  0.2754 -0.2314 -0.5609
 3261SOL    HW118751   8.886   5.695   3.924  0.2456 -2.6690 -1.1610
 3261SOL    HW218752   9.012   5.622   3.965  1.3294  0.1792  0.8406
 3262SOL     OW18753   1.717   1.860  12.166 -0.1441  0.5204  0.3933
 3262SOL    HW118754   1.786   1.842  12.230 -0.7730  2.0649  1.5682
 3262SOL    HW218755   1.637   1.828  12.207 -0.2715 -0.4025 -0.5551
 3263SOL     OW18756   4.686   0.904   7.168  0.0986 -0.2885  0.0833
 3263SOL    HW118757   4.596   0.929   7.145  0.3309  0.3069 -0.2148
 3263SOL    HW218758   4.735   0.915   7.086  0.3163 -1.2645  0.0751
 3264SOL     OW18759   7.375   2.022   5.498  0.2976 -0.6624  0.1514
 3264SOL    HW118760   7.406   2.099   5.449  0.6943 -0.9907 -0.1236
 3264SOL    HW218761   7.362   2.054   5.587 -2.1104  0.3919 -0.4882
 3265SOL     OW18762   3.686   5.509   4.848 -0.0110  0.0461 -0.1003
 3265SOL    HW118763   3.694   5.423   4.807  1.1044  0.0310  0.1252
 3265SOL    HW218764   3.618   5.553   4.797  1.4988  0.1314 -2.1954
 3266SOL     OW18765   0.430   0.502   3.555  0.1256  0.0561  0.3209
 3266SOL    HW118766   0.469   0.415   3.545  1.3702  0.5284  0.8591
 3266SOL    HW218767   0.335   0.487   3.550  0.3500 -1.2170 -0.3510
 3267SOL     OW18768   8.265  10.829   2.186 -0.0271 -0.1700 -0.1220
 3267SOL    HW118769   8.234  10.838   2.276  1.3237  1.2478  0.2377
 3267SOL    HW218770   8.327  10.901   2.175 -0.2626 -0.2402 -2.2337
 3268SOL     OW18771   3.516   0.925   8.672  1.0312 -0.4870 -0.2021
 3268SOL    HW118772   3.608   0.938   8.695  0.9466  0.2836 -0.2556
 3268SOL    HW218773   3.476   0.894   8.753  1.1220  0.3066  0.1648
 3269SOL     OW18774   0.895   8.224   3.582 -0.2146 -0.0696 -0.1267
 3269SOL    HW118775   0.964   8.283   3.612 -1.1055  0.8001  0.2728
 3269SOL    HW218776   0.823   8.282   3.559 -0.5190 -0.9077 -1.3579
 3270SOL     OW18777   2.197   7.062   6.641 -0.0334  0.7298 -0.1483
 3270SOL    HW118778   2.126   7.033   6.699  2.7348 -0.4336  2.9422
 3270SOL    HW218779   2.232   6.981   6.604  0.1261  1.2408 -1.1433
 3271SOL     OW18780   0.744  10.868   7.214 -0.2356  0.0088 -0.3248
 3271SOL    HW118781   0.760  10.961   7.231  0.4524 -0.2035  0.2611
 3271SOL    HW218782   0.779  10.853   7.126 -1.0431  0.4625 -0.7312
 3272SOL     OW18783  11.346   4.864   6.681  0.1610  0.3665  0.2364
 3272SOL    HW118784  11.420   4.909   6.641 -1.3227  1.4119 -1.5275
 3272SOL    HW218785  11.317   4.801   6.615 -1.6065  1.2731  0.0581
 3273SOL     OW18786   3.742   7.266  11.485  0.3477 -0.5523  0.0410
 3273SOL    HW118787   3.728   7.182  11.441  0.0777 -0.7938  0.5785
 3273SOL    HW218788   3.807   7.246  11.554  0.6151 -0.2252 -0.1132
 3274SOL     OW18789   8.087   2.577   9.506 -0.5937  0.5287  0.4014
 3274SOL    HW118790   8.093   2.501   9.564 -1.3292 -1.1882 -1.5961
 3274SOL    HW218791   8.120   2.650   9.557 -0.8121 -0.9414  2.7867
 3275SOL     OW18792   6.724   0.926   2.137  0.1714  0.3053 -0.3427
 3275SOL    HW118793   6.637   0.954   2.107 -0.4778  1.1600  2.1253
 3275SOL    HW218794   6.785   0.968   2.076 -1.0863  0.8863 -1.2444
 3276SOL     OW18795   6.964   1.263  11.609  0.0762  0.1756 -0.0885
 3276SOL    HW118796   6.995   1.347  11.643  0.2743 -0.4942  1.4708
 3276SOL    HW218797   6.882   1.247  11.657  0.8451 -1.2440  0.8045
 3277SOL     OW18798   0.686   1.185  10.261 -0.1366 -0.2827 -0.0164
 3277SOL    HW118799   0.643   1.170  10.176 -0.7722 -1.2484  0.4629
 3277SOL    HW218800   0.775   1.153  10.248 -0.2602 -0.5230 -0.2940
 3278SOL     OW18801   3.618   3.529   4.735 -0.3352 -0.3600 -0.4098
 3278SOL    HW118802   3.531   3.493   4.719 -0.8711  0.6908  0.0483
 3278SOL    HW218803   3.606   3.588   4.809  0.7389 -0.0675 -0.4548
 3279SOL     OW18804   4.001  10.852   2.961  0.2539 -0.0523  0.3663
 3279SOL    HW118805   4.077  10.894   3.002 -0.0442  0.2748  0.5941
 3279SOL    HW218806   3.938  10.843   3.033  0.4454 -1.2262  0.4062
 3280SOL     OW18807   4.048   5.052   0.635 -0.6984 -0.4596  0.5525
 3280SOL    HW118808   4.124   4.999   0.612 -0.0824 -0.0250  1.4899
 3280SOL    HW218809   4.016   5.014   0.717 -0.7053  0.1270  0.8322
 3281SOL     OW18810   0.794   2.948   5.943  0.2877 -0.3339  0.1414
 3281SOL    HW118811   0.878   2.932   5.986 -0.2597  1.3110  1.9443
 3281SOL    HW218812   0.771   2.864   5.903  1.6376 -1.4792  1.6600
 3282SOL     OW18813   6.025   6.668   0.946  0.2137  0.3576 -0.0979
 3282SOL    HW118814   5.977   6.661   0.864 -1.1527  1.7557  0.5252
 3282SOL    HW218815   6.022   6.761   0.968  0.2680 -0.0227  1.6971
 3283SOL     OW18816   0.369   6.773   6.843 -0.0510  0.6972 -0.7123
 3283SOL    HW118817   0.375   6.738   6.932 -2.0592  0.9081 -0.4481
 3283SOL    HW218818   0.416   6.710   6.790 -1.9368 -1.4711  0.0231
 3284SOL     OW18819   5.214   2.447   7.883 -0.1724 -0.0543 -0.0495
 3284SOL    HW118820   5.304   2.463   7.912 -0.0105 -2.2248  0.8377
 3284SOL    HW218821   5.186   2.530   7.845  2.3387  0.5831 -0.7134
 3285SOL     OW18822   3.730   7.289   5.938  0.6311 -0.1599 -0.0185
 3285SOL    HW118823   3.646   7.287   5.893  0.5910 -0.2007  0.0570
 3285SOL    HW218824   3.721   7.224   6.007  1.0609 -0.8483 -0.6032
 3286SOL     OW18825  11.695   4.352   1.706  0.0065  0.3252  0.3611
 3286SOL    HW118826  11.730   4.434   1.740  1.0236  0.1775 -0.2886
 3286SOL    HW218827  11.618   4.335   1.759  1.8584 -0.2379  3.0328
 3287SOL     OW18828   7.248   9.545   6.916 -0.4322  0.7599 -0.3460
 3287SOL    HW118829   7.297   9.584   6.843 -0.5376  0.5134 -0.5507
 3287SOL    HW218830   7.311   9.545   6.989  0.9818 -2.3764 -1.3998
 3288SOL     OW18831   8.812   4.741  10.967  0.9415  0.3321 -0.0960
 3288SOL    HW118832   8.854   4.810  11.018 -0.8238  1.6124 -0.2767
 3288SOL    HW218833   8.780   4.785  10.888 -1.1371 -0.4045  0.2632
 3289SOL     OW18834   4.863   8.940   0.140 -0.0199  0.2137 -0.0529
 3289SOL    HW118835   4.870   8.872   0.207 -2.0279 -1.1604 -1.1315
 3289SOL    HW218836   4.933   8.919   0.077 -0.0372 -0.3129  0.0990
 3290SOL     OW18837   0.915   7.192  11.342 -0.0566 -0.6009 -0.2353
 3290SOL    HW118838   0.889   7.251  11.271 -1.3491 -1.7310 -0.7500
 3290SOL    HW218839   0.836   7.181  11.395  0.8570  0.1278  1.3356
 3291SOL     OW18840   8.321   8.548  11.809  0.1541 -0.1044  0.2492
 3291SOL    HW118841   8.332   8.459  11.842 -3.8472 -0.4466  1.1999
 3291SOL    HW218842   8.307   8.601  11.887 -0.3671  0.7998 -0.4405
 3292SOL     OW18843   5.022   3.682   0.215  0.0386  0.5765 -0.4448
 3292SOL    HW118844   5.091   3.623   0.247  0.4680 -0.5025 -3.0974
 3292SOL    HW218845   5.028   3.759   0.272  1.7520 -0.5306  0.9779
 3293SOL     OW18846   4.520   1.738   4.004  0.4283 -0.2548  0.2515
 3293SOL    HW118847   4.504   1.654   3.960 -1.3158 -0.0406  0.3938
 3293SOL    HW218848   4.494   1.804   3.940 -4.0027  0.0612  2.0237
 3294SOL     OW18849   1.051   2.828   8.881  0.1644  0.2880 -0.4016
 3294SOL    HW118850   1.097   2.846   8.799  0.5257  1.1764 -0.0190
 3294SOL    HW218851   0.986   2.762   8.858  2.4462 -2.0136 -0.7055
 3295SOL     OW18852   5.472   9.269   9.859 -0.0615  0.0330 -0.2435
 3295SOL    HW118853   5.513   9.312   9.783  0.8977 -1.3414 -0.5343
 3295SOL    HW218854   5.437   9.341   9.911 -0.4080  1.0383 -1.7904
 3296SOL     OW18855   8.974   7.028  11.761 -0.0594  1.1841 -0.1530
 3296SOL    HW118856   8.935   7.094  11.704 -1.4717  1.4643  1.0556
 3296SOL    HW218857   8.905   7.008  11.825  1.0085 -0.0457  0.6800
 3297SOL     OW18858  11.916   9.207   8.681 -0.0883 -0.1803  0.2351
 3297SOL    HW118859  11.979   9.172   8.744 -0.5687  1.3401  1.6090
 3297SOL    HW218860  11.882   9.286   8.722 -2.8827 -0.9129 -0.4599
 3298SOL     OW18861   5.243   2.658   6.733 -0.7624  0.3741  0.2984
 3298SOL    HW118862   5.300   2.735   6.735 -1.5996  1.0812 -1.2098
 3298SOL    HW218863   5.302   2.584   6.749  0.3299  1.2054  0.2304
 3299SOL     OW18864   4.474   4.676   4.062  0.3352  0.8124 -1.0567
 3299SOL    HW118865   4.512   4.633   4.138  0.9902  2.3928 -0.4407
 3299SOL    HW218866   4.434   4.756   4.097  1.0334  1.7983 -2.4050
 3300SOL     OW18867   1.494   9.970  12.514 -0.4559 -0.1185  0.3143
 3300SOL    HW118868   1.587   9.980  12.534 -0.1449 -1.0926 -0.5960
 3300SOL    HW218869   1.454   9.946  12.598 -0.2918  2.5251  1.2381
 3301SOL     OW18870   3.302   3.853   5.629  0.4748  0.4621  0.0704
 3301SOL    HW118871   3.257   3.780   5.586  1.3077 -1.0643  1.6468
 3301SOL    HW218872   3.271   3.851   5.719  1.1837  1.5116  0.3606
 3302SOL     OW18873   4.265   0.498  12.089 -0.6786  0.5076  0.4251
 3302SOL    HW118874   4.173   0.497  12.063 -0.0235 -0.6996 -2.1379
 3302SOL    HW218875   4.274   0.424  12.149 -0.7604 -1.5101 -1.9545
 3303SOL     OW18876  10.798   8.068  10.505 -0.3906  0.2554 -0.0137
 3303SOL    HW118877  10.755   7.984  10.488  0.3693 -0.1034 -0.2273
 3303SOL    HW218878  10.727   8.130  10.518 -0.9674 -0.2260 -0.8366
 3304SOL     OW18879   7.800  10.229   0.280  0.2465 -0.6301  0.6490
 3304SOL    HW118880   7.804  10.325   0.286 -0.0914 -0.5136 -0.7558
 3304SOL    HW218881   7.726  10.205   0.336 -1.2036  0.1620 -0.8258
 3305SOL     OW18882   2.703  10.005   1.664 -0.2915  0.5901 -0.4107
 3305SOL    HW118883   2.645   9.964   1.728  0.0578  0.7449  0.0172
 3305SOL    HW218884   2.645  10.057   1.608 -0.4832  1.4905  0.5831
 3306SOL     OW18885   2.130   9.085  10.691 -0.5188 -0.2332  0.0978
 3306SOL    HW118886   2.128   8.990  10.701  0.8159 -0.3274 -0.3791
 3306SOL    HW218887   2.223   9.108  10.695 -0.8788  1.1542  1.0741
 3307SOL     OW18888   4.436   8.407   3.838 -0.1969  0.1280  0.2952
 3307SOL    HW118889   4.402   8.347   3.771  2.5429 -0.1955 -0.9403
 3307SOL    HW218890   4.501   8.355   3.885  2.3865  2.0832 -0.9141
 3308SOL     OW18891  10.215   3.307   0.692  0.0665  0.5699 -0.0092
 3308SOL    HW118892  10.156   3.291   0.619 -1.3978  0.8932  1.0615
 3308SOL    HW218893  10.288   3.356   0.654 -0.4575  0.3747 -1.3172
 3309SOL     OW18894  12.173   0.104   2.685 -0.1080  0.3140 -0.1952
 3309SOL    HW118895  12.190   0.040   2.616  1.7887  1.6209 -1.0400
 3309SOL    HW218896  12.259   0.120   2.723 -0.9982  0.2007  2.0140
 3310SOL     OW18897   0.687   2.616   5.367 -0.2873 -0.4147 -0.5353
 3310SOL    HW118898   0.686   2.711   5.380  0.7837 -0.4345 -0.1878
 3310SOL    HW218899   0.763   2.586   5.417 -1.1144 -1.5734  0.0839
 3311SOL     OW18900   1.940   6.617   9.451 -0.2601 -0.0162  0.1739
 3311SOL    HW118901   2.017   6.581   9.495  0.3957  0.3084 -0.6642
 3311SOL    HW218902   1.867   6.597   9.509  0.2575 -1.5610  0.3216
 3312SOL     OW18903   1.707   4.333   0.224  0.4424  0.7663  0.0555
 3312SOL    HW118904   1.662   4.414   0.248 -1.4638 -0.5260  1.1084
 3312SOL    HW218905   1.687   4.273   0.295 -0.0267 -1.2869 -1.7239
 3313SOL     OW18906   3.993   5.334   5.288  0.5588 -0.4044  0.3288
 3313SOL    HW118907   3.924   5.267   5.287 -0.0249  0.0751  2.6439
 3313SOL    HW218908   4.044   5.317   5.208 -1.4137 -1.6215 -0.7551
 3314SOL     OW18909  10.413   6.889   6.044  0.3665  0.0843  0.0935
 3314SOL    HW118910  10.368   6.816   6.086 -2.1139  3.1110  3.2664
 3314SOL    HW218911  10.506   6.874   6.061  0.0600 -2.7635 -0.3134
 3315SOL     OW18912  10.459  11.939   9.905  0.2326 -0.2640 -0.0070
 3315SOL    HW118913  10.369  11.905   9.907  0.3705 -0.6357  0.0501
 3315SOL    HW218914  10.511  11.869   9.944  0.9936 -1.4405 -2.9077
 3316SOL     OW18915   4.219   0.285  11.704  0.6563  0.7000 -0.1549
 3316SOL    HW118916   4.143   0.248  11.749  1.7738 -0.5735  0.7732
 3316SOL    HW218917   4.265   0.334  11.772  1.8355 -0.4084 -0.1157
 3317SOL     OW18918   3.160  11.822   7.469  0.5786 -0.6057  0.2359
 3317SOL    HW118919   3.234  11.875   7.441  0.8158 -0.4026  1.2137
 3317SOL    HW218920   3.098  11.884   7.508  0.8518 -1.0251  1.3773
 3318SOL     OW18921   9.879  10.236  12.013 -0.2212  0.0606 -0.0506
 3318SOL    HW118922   9.844  10.260  11.928  0.5117 -3.9958 -1.7150
 3318SOL    HW218923   9.972  10.219  11.997 -0.0775 -0.8814  1.5399
 3319SOL     OW18924  11.284   6.695  12.572 -0.3596  0.3977 -0.0360
 3319SOL    HW118925  11.377   6.689  12.593 -0.4275  1.5406  0.6739
 3319SOL    HW218926  11.274   6.783  12.536 -0.8834 -0.2913 -1.7090
 3320SOL     OW18927  11.256   5.091   0.676  0.2192  0.4097  0.2451
 3320SOL    HW118928  11.240   5.172   0.626  0.0107 -0.8907 -1.9035
 3320SOL    HW218929  11.351   5.081   0.675  0.1532 -0.4779 -1.4609
 3321SOL     OW18930   9.728   1.489  10.289  0.0662  0.1222 -0.0162
 3321SOL    HW118931   9.702   1.398  10.278  0.5906 -0.0943  0.4747
 3321SOL    HW218932   9.691   1.515  10.373 -1.7036  0.9652 -1.0045
 3322SOL     OW18933  10.556   3.986   2.608 -0.3958 -0.0720 -0.1523
 3322SOL    HW118934  10.522   3.992   2.518 -2.5966 -0.7746  0.5524
 3322SOL    HW218935  10.564   3.892   2.624 -0.0135  0.0500  0.3893
 3323SOL     OW18936   0.933   0.084  10.119  0.0050  0.1532 -0.0629
 3323SOL    HW118937   0.977   0.117  10.040 -0.3403  1.0239  0.0942
 3323SOL    HW218938   0.994   0.105  10.190 -0.4852  1.0319  0.1119
 3324SOL     OW18939   1.530  12.070   4.446 -0.0352  0.0045  0.2447
 3324SOL    HW118940   1.506  12.153   4.406 -1.0681  0.4102  1.6319
 3324SOL    HW218941   1.566  12.018   4.374 -1.6677  0.7452 -1.1726
 3325SOL     OW18942   4.142   9.346  11.959  0.1983 -0.2335 -0.0953
 3325SOL    HW118943   4.158   9.268  11.906 -1.4815 -1.6313  1.3285
 3325SOL    HW218944   4.113   9.312  12.044 -1.3218  1.9365  0.3376
 3326SOL     OW18945   8.377   9.875   5.001 -1.0999 -0.4209  0.2745
 3326SOL    HW118946   8.349   9.955   5.045 -1.3164 -0.5154  0.3093
 3326SOL    HW218947   8.466   9.860   5.032 -0.3899  0.7671 -1.0465
 3327SOL     OW18948   5.959   4.300   9.689  0.1342  0.0969  0.7972
 3327SOL    HW118949   6.016   4.377   9.689  0.2813  0.0496 -1.7237
 3327SOL    HW218950   5.872   4.335   9.670 -0.0460 -0.2291  1.0063
 3328SOL     OW18951   9.951  10.020   2.698 -0.4375 -0.3206  0.1739
 3328SOL    HW118952   9.930   9.991   2.609  2.2827 -0.2551 -0.5810
 3328SOL    HW218953   9.982   9.941   2.742  1.2019  0.1892  0.0196
 3329SOL     OW18954   7.765   8.971   5.784 -0.3097 -0.0997 -0.4235
 3329SOL    HW118955   7.765   9.022   5.703  0.6047 -0.2742 -0.5496
 3329SOL    HW218956   7.854   8.935   5.789  0.0995  1.0398  1.3717
 3330SOL     OW18957   7.405   1.712   1.025 -0.2868 -0.9448 -0.0743
 3330SOL    HW118958   7.313   1.701   1.050 -0.4072 -1.5874 -0.7629
 3330SOL    HW218959   7.452   1.717   1.108 -0.9282 -0.7441  0.2858
 3331SOL     OW18960   1.528   6.083   1.082 -0.6365  0.1107  0.1230
 3331SOL    HW118961   1.608   6.100   1.132 -0.2406  0.4866 -0.6189
 3331SOL    HW218962   1.481   6.017   1.133  0.7892 -1.1178 -0.1101
 3332SOL     OW18963   7.683  10.846   2.546 -0.1559  0.0889 -0.3581
 3332SOL    HW118964   7.688  10.814   2.456  0.0038  1.2836 -0.7928
 3332SOL    HW218965   7.591  10.869   2.559 -0.0113  0.8197 -0.5588
 3333SOL     OW18966   5.640   1.153   9.934 -0.2346  0.2197 -0.4707
 3333SOL    HW118967   5.546   1.170   9.929 -1.0399 -3.6422 -1.4492
 3333SOL    HW218968   5.653   1.120  10.023  0.1485  0.3189 -0.4874
 3334SOL     OW18969  11.709   0.426  11.684 -0.3173 -0.0193 -0.1991
 3334SOL    HW118970  11.798   0.459  11.699 -0.5148  0.3890  0.0912
 3334SOL    HW218971  11.669   0.424  11.771 -0.3669 -0.8634 -0.2385
 3335SOL     OW18972   8.045   4.733   5.723  0.7476 -0.0709 -0.2424
 3335SOL    HW118973   8.050   4.762   5.814 -0.5292 -0.9409  0.1398
 3335SOL    HW218974   8.036   4.813   5.672  2.1703  0.4777  0.3069
 3336SOL     OW18975   3.306   8.024   6.928  0.2356  0.3197  0.1828
 3336SOL    HW118976   3.345   7.938   6.942  0.3781  0.0549 -1.5612
 3336SOL    HW218977   3.371   8.071   6.876  0.7859  2.0297  2.3122
 3337SOL     OW18978   9.390   2.690  12.467 -0.2606  0.1636  0.4080
 3337SOL    HW118979   9.332   2.693  12.391  0.6683  0.9026 -0.2912
 3337SOL    HW218980   9.429   2.603  12.464  1.0331  0.7454 -0.9622
 3338SOL     OW18981   1.180  11.235  10.172  0.1485 -0.0440  0.4853
 3338SOL    HW118982   1.214  11.157  10.128  0.6810  0.2980  0.2749
 3338SOL    HW218983   1.129  11.280  10.105  0.6271  0.2696  0.3220
 3339SOL     OW18984   4.350  11.603  10.726 -0.2610  0.3862  0.1435
 3339SOL    HW118985   4.429  11.602  10.781  0.4774 -0.4335 -0.8986
 3339SOL    HW218986   4.377  11.643  10.644 -0.4666 -1.4119 -0.8482
 3340SOL     OW18987   8.634   8.934   3.119  0.1699  0.3055 -0.0065
 3340SOL    HW118988   8.598   8.864   3.173  1.2045  0.9417  1.5554
 3340SOL    HW218989   8.706   8.970   3.170 -0.6522  2.8747 -0.4979
 3341SOL     OW18990   3.787   3.562   5.775 -0.4458  0.0069 -0.1863
 3341SOL    HW118991   3.811   3.622   5.845  1.2855 -0.0250 -0.7077
 3341SOL    HW218992   3.870   3.540   5.733 -1.3918 -0.2274 -2.0332
 3342SOL     OW18993   6.760   8.434   4.576 -0.0409  0.1324 -0.1749
 3342SOL    HW118994   6.776   8.496   4.647  1.5043 -2.4415  1.8703
 3342SOL    HW218995   6.692   8.375   4.610 -0.2178 -0.3802 -1.3662
 3343SOL     OW18996   8.562   6.997   3.663 -0.0304 -0.2509 -0.1110
 3343SOL    HW118997   8.518   7.068   3.616 -0.2539 -1.4888 -1.8906
 3343SOL    HW218998   8.603   6.945   3.594  0.2315 -1.7874  1.1414
 3344SOL     OW18999  10.087  10.082   1.607 -0.0632 -0.3213 -0.4500
 3344SOL    HW119000  10.095  10.005   1.664 -1.0302 -0.4203 -0.4345
 3344SOL    HW219001  10.024  10.056   1.540 -0.5274  0.5015 -0.3511
 3345SOL     OW19002   2.182   5.484   2.882  0.4222  0.8986 -0.0573
 3345SOL    HW119003   2.115   5.463   2.818  0.2094  1.4193 -0.0084
 3345SOL    HW219004   2.146   5.454   2.966 -0.2735  2.2481  0.1493
 3346SOL     OW19005   6.872   9.548   6.168 -0.1034  0.1727 -0.5341
 3346SOL    HW119006   6.895   9.494   6.244  1.5492  1.3628 -0.1178
 3346SOL    HW219007   6.799   9.602   6.197  0.2251  0.3001  0.0587
 3347SOL     OW19008   8.237   5.745   3.039  0.4006 -0.0455 -0.3881
 3347SOL    HW119009   8.264   5.737   3.131  1.6110 -0.2332 -0.7359
 3347SOL    HW219010   8.198   5.661   3.018 -0.8625  0.3652  0.2439
 3348SOL     OW19011   3.400   2.068   2.660  0.4500 -0.0731 -0.0095
 3348SOL    HW119012   3.334   2.092   2.594 -1.6164  0.8539  2.2470
 3348SOL    HW219013   3.481   2.107   2.628 -0.2281 -0.5189 -2.4727
 3349SOL     OW19014   0.256   0.413   1.838  0.4119 -0.2427  0.5391
 3349SOL    HW119015   0.277   0.322   1.859 -0.0601 -1.0793 -2.1746
 3349SOL    HW219016   0.340   0.458   1.834  0.8605 -1.1289 -0.2848
 3350SOL     OW19017   0.978  10.484  12.328  0.2143 -0.2880 -0.4076
 3350SOL    HW119018   1.057  10.508  12.279 -0.7656 -0.2529 -2.0270
 3350SOL    HW219019   1.011  10.442  12.407  1.8906  1.2711 -0.2113
 3351SOL     OW19020  10.573   4.431   9.692  0.6246 -0.1567  0.2899
 3351SOL    HW119021  10.579   4.430   9.597 -0.4829  3.1654  0.0415
 3351SOL    HW219022  10.656   4.469   9.721  0.4260  0.1043  0.5300
 3352SOL     OW19023   4.629  10.126   1.546 -0.5569 -0.3254 -0.3262
 3352SOL    HW119024   4.552  10.081   1.513 -0.7393  1.1184 -2.0165
 3352SOL    HW219025   4.702  10.087   1.496 -0.6924  1.0200 -1.6396
 3353SOL     OW19026   7.125   9.381   1.183 -0.3075  0.6634 -0.6583
 3353SOL    HW119027   7.183   9.306   1.195  0.2836  1.0016 -1.3433
 3353SOL    HW219028   7.184   9.456   1.181 -0.8980  1.1634  0.0954
 3354SOL     OW19029   7.255   4.030   6.867  0.3864  0.2069  0.0681
 3354SOL    HW119030   7.336   4.065   6.904  0.7017  0.4889 -0.8535
 3354SOL    HW219031   7.191   4.037   6.938  0.8904  1.0152  0.4654
 3355SOL     OW19032   2.260   8.130   7.253 -0.5111  0.2971 -0.3496
 3355SOL    HW119033   2.229   8.073   7.322 -0.7471  0.2784 -0.4710
 3355SOL    HW219034   2.354   8.112   7.247 -0.5942 -0.1166 -0.4256
 3356SOL     OW19035   5.388  10.818   3.127 -0.2350  0.3071 -0.0020
 3356SOL    HW119036   5.314  10.779   3.080  0.4900  0.3015 -1.1930
 3356SOL    HW219037   5.451  10.841   3.058  0.6818  0.7237  0.9395
 3357SOL     OW19038   1.726  10.411   7.022  0.3322  0.2219  0.4452
 3357SOL    HW119039   1.729  10.341   6.956  0.6200 -0.8695  1.5887
 3357SOL    HW219040   1.810  10.407   7.066 -0.0978  0.5201  1.3141
 3358SOL     OW19041  11.193   1.320   4.888  0.3711 -0.8359  0.1431
 3358SOL    HW119042  11.231   1.244   4.843  1.9587  0.0298 -0.0363
 3358SOL    HW219043  11.229   1.396   4.842 -1.0727  0.0456  0.4214
 3359SOL     OW19044   7.455  11.205   2.135 -0.2600 -0.4222 -1.2614
 3359SOL    HW119045   7.527  11.170   2.188 -0.2777 -0.1124 -1.0244
 3359SOL    HW219046   7.488  11.289   2.103 -1.1552  0.6035  0.3413
 3360SOL     OW19047  12.090   7.471  11.298  0.3370  0.3441  0.2547
 3360SOL    HW119048  12.080   7.566  11.294 -1.3213  0.2875  1.7549
 3360SOL    HW219049  12.104   7.445  11.207 -0.7626  1.8830 -0.3991
 3361SOL     OW19050  12.566   4.188   5.086 -0.5283  0.5760  0.4327
 3361SOL    HW119051  12.498   4.132   5.126 -1.3549 -1.0121 -2.8700
 3361SOL    HW219052  12.517   4.253   5.036  0.3928  0.6867 -0.3535
 3362SOL     OW19053   2.005   4.681  10.958  0.3263 -0.3145  0.0058
 3362SOL    HW119054   1.947   4.748  10.923  0.2581 -0.4243 -0.0936
 3362SOL    HW219055   1.970   4.661  11.045 -1.4511 -2.3585 -1.1061
 3363SOL     OW19056   7.694  12.376   9.559  0.2040 -0.0565 -0.3335
 3363SOL    HW119057   7.640  12.417   9.492 -0.7697 -2.1982 -0.9738
 3363SOL    HW219058   7.638  12.373   9.637 -0.0628 -0.8576 -0.5396
 3364SOL     OW19059   4.564   5.328   0.904  0.3849 -0.3138  0.7150
 3364SOL    HW119060   4.625   5.370   0.844  0.1236  0.8685  1.2550
 3364SOL    HW219061   4.481   5.325   0.856  0.5390 -0.7352  0.4688
 3365SOL     OW19062  10.903  10.710   2.624 -0.3533 -0.1886 -0.2889
 3365SOL    HW119063  10.850  10.723   2.546  0.6156  0.7162 -0.8088
 3365SOL    HW219064  10.963  10.784   2.626  0.2206 -0.6559  0.8457
 3366SOL     OW19065  12.434   8.053  10.158  0.0304  0.1332  0.1152
 3366SOL    HW119066  12.412   8.146  10.158  1.0967  0.4264  1.8433
 3366SOL    HW219067  12.474   8.039  10.072  1.4020  1.6982  0.4314
 3367SOL     OW19068   5.714   6.063   8.912  0.1727  0.2891 -0.2298
 3367SOL    HW119069   5.703   6.157   8.926 -0.1137  0.3062 -0.5626
 3367SOL    HW219070   5.809   6.051   8.907  0.2280  0.4996  0.1999
 3368SOL     OW19071   2.494   0.131   8.147  0.0856 -0.1882  0.7126
 3368SOL    HW119072   2.580   0.118   8.188 -1.0666 -0.8192  3.0968
 3368SOL    HW219073   2.462   0.213   8.184  1.1502  2.2753 -3.1426
 3369SOL     OW19074   9.141   9.605   2.707 -0.9061  0.5982 -0.5628
 3369SOL    HW119075   9.177   9.537   2.650 -1.0837 -0.1314  0.1754
 3369SOL    HW219076   9.077   9.650   2.653  0.3372  1.2391 -1.5694
 3370SOL     OW19077   0.212   4.658  12.588  0.0225 -0.2812  0.0646
 3370SOL    HW119078   0.200   4.742  12.631  0.5598  0.7778 -1.7262
 3370SOL    HW219079   0.302   4.632  12.608 -0.0106 -0.2235  0.2851
 3371SOL     OW19080  11.230   4.521   2.349 -0.2938  0.2312  0.1880
 3371SOL    HW119081  11.296   4.591   2.353  0.2977 -0.2861 -0.3137
 3371SOL    HW219082  11.263   4.461   2.282 -0.8572 -0.4698  0.5312
 3372SOL     OW19083   5.619   9.535   7.548 -0.2466 -0.0537  0.0604
 3372SOL    HW119084   5.544   9.594   7.553 -0.4880 -0.3317 -0.2063
 3372SOL    HW219085   5.629   9.502   7.638 -0.9977 -0.6819 -0.0766
 3373SOL     OW19086   4.050  12.142   6.471  0.1851 -0.0621 -0.2349
 3373SOL    HW119087   4.144  12.124   6.466  0.1196 -0.0638 -2.1701
 3373SOL    HW219088   4.020  12.089   6.545  1.5255 -0.8957 -0.2472
 3374SOL     OW19089   3.503   9.924   5.668 -0.2197 -0.6580 -0.5081
 3374SOL    HW119090   3.570   9.990   5.687 -0.4269 -0.7450  0.5942
 3374SOL    HW219091   3.535   9.880   5.589  0.9529 -0.6041 -0.0906
 3375SOL     OW19092  10.237  10.272  10.527  0.1276 -0.6728  0.6309
 3375SOL    HW119093  10.155  10.322  10.527 -0.3285 -1.4088  1.4652
 3375SOL    HW219094  10.279  10.293  10.610  2.5038  2.3602 -1.0890
 3376SOL     OW19095   7.116   4.254  11.341  0.3921  0.7829 -0.0094
 3376SOL    HW119096   7.022   4.235  11.351  0.4326 -0.2859 -1.2772
 3376SOL    HW219097   7.159   4.191  11.398  0.3675  0.4406 -0.3647
 3377SOL     OW19098   0.824   0.971   1.192 -0.4989  0.1624  0.3083
 3377SOL    HW119099   0.789   0.901   1.137 -2.0798  1.1580  0.0064
 3377SOL    HW219100   0.787   1.051   1.156  0.6414  1.0973  1.1439
 3378SOL     OW19101   4.259   2.360   1.018  0.4023  0.1843  0.2000
 3378SOL    HW119102   4.217   2.343   1.102 -2.2924  3.3643 -0.3060
 3378SOL    HW219103   4.215   2.300   0.957  0.5466 -0.3297  0.5892
 3379SOL     OW19104   7.764   6.491  10.289  0.2430  0.5408 -0.1826
 3379SOL    HW119105   7.816   6.560  10.332  1.0391 -0.1669  0.0010
 3379SOL    HW219106   7.792   6.492  10.198  0.8970 -0.1311  0.0084
 3380SOL     OW19107  12.305  11.826   6.330 -0.0285  0.5472 -0.1250
 3380SOL    HW119108  12.237  11.860   6.388  0.0689  1.2097 -0.3954
 3380SOL    HW219109  12.362  11.775   6.388 -1.1479 -0.6437 -0.0118
 3381SOL     OW19110   8.474   2.756   8.068  0.6870  0.1792 -0.4165
 3381SOL    HW119111   8.539   2.785   8.131  1.6647  0.4618 -1.5211
 3381SOL    HW219112   8.515   2.770   7.983 -1.2700  1.5538 -1.2193
 3382SOL     OW19113   6.045   9.774  10.438 -0.4848  0.4269 -0.2478
 3382SOL    HW119114   6.088   9.807  10.517 -0.4995  1.1084 -0.5156
 3382SOL    HW219115   5.957   9.750  10.467  0.1596 -1.3046  0.3751
 3383SOL     OW19116   9.628   2.455  12.371 -1.0124 -0.1986  0.3836
 3383SOL    HW119117   9.675   2.514  12.312 -2.3162  2.1462  1.5550
 3383SOL    HW219118   9.663   2.368  12.350  1.5374  1.0159 -0.9227
 3384SOL     OW19119   3.882   9.265   2.642  0.1907  0.4180 -0.9360
 3384SOL    HW119120   3.869   9.257   2.548  1.4059 -1.4628 -1.0053
 3384SOL    HW219121   3.946   9.336   2.651 -0.2487  0.8940 -1.4759
 3385SOL     OW19122   5.898   4.799  12.358  0.1105 -0.1921  0.1945
 3385SOL    HW119123   5.935   4.861  12.295 -1.3986  0.2926 -0.2497
 3385SOL    HW219124   5.825   4.758  12.311 -0.5136 -0.4315  1.3571
 3386SOL     OW19125   6.059   5.197   4.250  0.2076 -0.0186 -0.2955
 3386SOL    HW119126   5.984   5.139   4.243  0.1124 -0.0318  0.6905
 3386SOL    HW219127   6.130   5.141   4.282  0.0673  0.4301  0.8453
 3387SOL     OW19128  10.562  12.294   5.192 -0.5781  0.1669 -0.1128
 3387SOL    HW119129  10.480  12.288   5.240 -0.2368 -0.2240  0.4267
 3387SOL    HW219130  10.571  12.210   5.148  0.4676 -0.5323  1.3715
 3388SOL     OW19131   6.761  10.696  11.727 -0.2162  0.1033 -0.0939
 3388SOL    HW119132   6.748  10.762  11.796 -1.4269 -0.7604  0.5395
 3388SOL    HW219133   6.768  10.613  11.773  1.1332 -0.2715 -0.8999
 3389SOL     OW19134   7.268   5.708   3.026  0.0971  0.0472 -0.5278
 3389SOL    HW119135   7.216   5.634   3.056  0.9980  0.3614  2.1519
 3389SOL    HW219136   7.204   5.779   3.015 -0.6158 -0.7833 -2.0225
 3390SOL     OW19137   1.335   1.119   9.387 -0.1543 -0.2151 -0.0737
 3390SOL    HW119138   1.252   1.073   9.400  1.1178 -2.3540  1.1463
 3390SOL    HW219139   1.381   1.069   9.319  0.8758 -0.2219  0.5941
 3391SOL     OW19140   5.605  11.874   8.125 -0.2525 -0.1027  0.0017
 3391SOL    HW119141   5.567  11.856   8.039  1.1672  0.2559 -0.7369
 3391SOL    HW219142   5.539  11.925   8.171 -0.9976 -0.2226 -0.9126
 3392SOL     OW19143   7.809   5.735  11.171  0.2101 -1.0717 -0.5231
 3392SOL    HW119144   7.840   5.776  11.090  0.2722 -0.9030 -0.4158
 3392SOL    HW219145   7.722   5.773  11.185  1.1374  0.7768  0.7647
 3393SOL     OW19146   6.488   6.938  10.921 -0.2960  0.2398 -0.5442
 3393SOL    HW119147   6.574   6.895  10.914 -0.3125  0.4419 -2.6227
 3393SOL    HW219148   6.441   6.885  10.985  1.1478 -0.2657  0.1608
 3394SOL     OW19149   2.933   5.368   5.508  0.5640 -0.6190  0.1419
 3394SOL    HW119150   2.941   5.430   5.580  0.8895 -0.2281 -0.2283
 3394SOL    HW219151   2.954   5.419   5.429 -2.8344 -0.1297 -0.6482
 3395SOL     OW19152   1.230  12.258   7.266  0.0858 -0.4497 -0.3097
 3395SOL    HW119153   1.174  12.322   7.310  1.9820  0.5103  0.8668
 3395SOL    HW219154   1.199  12.256   7.175 -2.7418 -1.0896  0.5748
 3396SOL     OW19155   9.410   6.574   8.692 -0.7754  0.1242  0.3643
 3396SOL    HW119156   9.465   6.644   8.728  0.3812  0.5035 -1.9490
 3396SOL    HW219157   9.370   6.613   8.614 -2.1993 -1.0207  0.4733
 3397SOL     OW19158   1.855   0.337  10.004  0.6610 -0.3389  0.2865
 3397SOL    HW119159   1.924   0.291  10.051  1.2624  0.3232  0.0675
 3397SOL    HW219160   1.901   0.396   9.944 -0.0850 -1.1110 -1.1054
 3398SOL     OW19161   8.404   7.450   3.139  0.4062 -0.4851 -0.1717
 3398SOL    HW119162   8.421   7.476   3.230  0.3310  3.9997 -1.1842
 3398SOL    HW219163   8.322   7.401   3.144  1.7444 -2.7348  2.3490
 3399SOL     OW19164   1.311   3.901  12.319  0.5574  0.0030 -0.2146
 3399SOL    HW119165   1.235   3.878  12.372 -0.4997 -0.4391 -1.8410
 3399SOL    HW219166   1.288   3.985  12.278  1.8036  0.8832  0.8306
 3400SOL     OW19167   9.288   8.472   3.594 -0.9067 -0.6818 -0.0747
 3400SOL    HW119168   9.197   8.468   3.566 -1.4851  2.8786  0.7759
 3400SOL    HW219169   9.304   8.565   3.610  3.4812 -0.8047 -2.0858
 3401SOL     OW19170   0.216   1.820   8.366 -0.6615 -0.3314 -0.0723
 3401SOL    HW119171   0.213   1.896   8.308  2.3124 -0.4096 -0.4693
 3401SOL    HW219172   0.180   1.749   8.314  0.3293 -0.0269 -1.2156
 3402SOL     OW19173  10.273   9.106   8.200  0.1753  0.3698  0.0639
 3402SOL    HW119174  10.361   9.143   8.193  0.4754 -0.2819  0.3372
 3402SOL    HW219175  10.215   9.176   8.170  0.9322  0.0077 -2.4641
 3403SOL     OW19176   1.588  10.678   9.947  0.2315  0.5940 -0.5706
 3403SOL    HW119177   1.638  10.600   9.923  1.7462  0.7011  1.9216
 3403SOL    HW219178   1.651  10.735   9.990 -1.5393  1.7942  0.5703
 3404SOL     OW19179   0.569  11.817   8.551 -0.4580  0.5899 -0.0420
 3404SOL    HW119180   0.503  11.747   8.549 -1.7609  1.7411  0.8989
 3404SOL    HW219181   0.648  11.774   8.583 -0.7411 -0.8069 -1.1054
 3405SOL     OW19182  12.215   3.235   9.995 -0.4064 -0.1976 -0.1339
 3405SOL    HW119183  12.208   3.235  10.091  2.9644  1.5027  0.2971
 3405SOL    HW219184  12.183   3.322   9.970 -1.4772 -0.7189 -0.6065
 3406SOL     OW19185   8.129   8.817   8.406  0.3422  0.4192  0.1139
 3406SOL    HW119186   8.197   8.877   8.436  0.6092  0.6030 -0.8129
 3406SOL    HW219187   8.093   8.860   8.328  1.6571 -1.3524 -1.5773
 3407SOL     OW19188   3.331   6.607   8.284  0.0972 -0.6067 -0.4079
 3407SOL    HW119189   3.357   6.517   8.263  1.0384 -0.5367  0.4270
 3407SOL    HW219190   3.413   6.655   8.293 -0.3270  1.1539 -3.9781
 3408SOL     OW19191   4.521   7.551   1.145 -0.2522 -0.4782 -0.0230
 3408SOL    HW119192   4.508   7.634   1.190 -1.8755 -0.4568 -0.4596
 3408SOL    HW219193   4.486   7.485   1.204 -2.3702 -0.4510 -1.1313
 3409SOL     OW19194   3.612   5.811   0.439  0.4016 -0.1597 -0.1217
 3409SOL    HW119195   3.593   5.743   0.504 -0.5704  0.2433  0.0334
 3409SOL    HW219196   3.647   5.763   0.364 -0.2831 -0.8391 -0.0188
 3410SOL     OW19197   5.623  11.300  12.313  0.2076  0.5399 -0.1626
 3410SOL    HW119198   5.585  11.261  12.391  1.9565 -0.0029  0.4666
 3410SOL    HW219199   5.566  11.271  12.241 -0.2099 -0.7206  0.6481
 3411SOL     OW19200  10.332   6.374   6.042 -0.2400 -0.9487 -0.1229
 3411SOL    HW119201  10.243   6.348   6.020  0.3316 -3.0571 -0.1712
 3411SOL    HW219202  10.365   6.304   6.098  1.1626  0.1337  0.4810
 3412SOL     OW19203   2.324   9.101   4.518 -0.3670  0.1604 -0.1648
 3412SOL    HW119204   2.257   9.137   4.460  0.1635  0.0512 -0.8512
 3412SOL    HW219205   2.275   9.046   4.579 -0.9219  0.2075 -0.5604
 3413SOL     OW19206   4.752   1.824  12.290 -0.9197 -0.7045  0.4106
 3413SOL    HW119207   4.829   1.780  12.253 -1.0615 -1.0153  0.4806
 3413SOL    HW219208   4.697   1.843  12.214 -0.7299 -0.3923  0.3495
 3414SOL     OW19209   6.290   8.474   4.906  0.3536  0.1799  0.0528
 3414SOL    HW119210   6.283   8.438   4.995  0.8966  0.4716  0.2179
 3414SOL    HW219211   6.383   8.469   4.886  0.3042  0.6390 -0.2852
 3415SOL     OW19212  12.519   2.760  11.262 -0.5463 -0.1088  0.2774
 3415SOL    HW119213  12.525   2.853  11.286  1.3767 -0.1945  0.2467
 3415SOL    HW219214  12.436   2.753  11.215 -0.0181  1.9337 -1.0858
 3416SOL     OW19215   7.862   5.120   7.936  0.1405  0.2459 -0.0588
 3416SOL    HW119216   7.953   5.139   7.916  0.3540 -2.3678 -2.1401
 3416SOL    HW219217   7.850   5.028   7.911 -3.0558  0.4562  0.1954
 3417SOL     OW19218   8.530   2.915   4.589 -0.2209  0.0085  0.4382
 3417SOL    HW119219   8.533   3.009   4.605  0.4635  0.0777 -0.0732
 3417SOL    HW219220   8.499   2.878   4.672  1.8544  0.4805  1.4974
 3418SOL     OW19221   3.617   0.041   6.221  0.3636  0.0454  0.5853
 3418SOL    HW119222   3.582   0.123   6.255  0.5456  0.4931 -0.2842
 3418SOL    HW219223   3.659   0.065   6.139  2.1418 -0.5871  1.2665
 3419SOL     OW19224   8.007  12.222   8.961  0.0746 -0.1196 -0.0254
 3419SOL    HW119225   7.945  12.188   9.026  1.1657 -2.0507  0.0961
 3419SOL    HW219226   8.084  12.247   9.013  0.4871 -0.5073 -0.4409
 3420SOL     OW19227  11.674   5.904   7.372  0.3599  0.6343  0.1511
 3420SOL    HW119228  11.640   5.862   7.292  1.3409  2.0496 -1.0642
 3420SOL    HW219229  11.597   5.916   7.427 -0.5618  0.7315 -1.1080
 3421SOL     OW19230   8.532   0.743   6.355  0.3132 -0.0184 -0.2294
 3421SOL    HW119231   8.460   0.767   6.414  0.4072 -1.1207  0.3715
 3421SOL    HW219232   8.491   0.687   6.290  0.6276 -0.7162  0.1626
 3422SOL     OW19233  12.421   0.118   9.712  0.0214 -0.2542 -0.6063
 3422SOL    HW119234  12.495   0.062   9.689 -0.2480  0.1287 -2.6167
 3422SOL    HW219235  12.347   0.080   9.666 -0.6550  0.4286 -0.1116
 3423SOL     OW19236   3.680  10.150   3.099 -0.4487 -0.6799  0.0142
 3423SOL    HW119237   3.687  10.190   3.013  0.3974 -1.7713 -0.4477
 3423SOL    HW219238   3.587  10.127   3.107 -0.5405 -0.5268 -0.5774
 3424SOL     OW19239  11.696  10.747   3.706 -0.0566 -0.5634 -0.2723
 3424SOL    HW119240  11.694  10.777   3.616  0.9347 -0.6305 -0.3321
 3424SOL    HW219241  11.616  10.781   3.745 -0.1422  0.0738 -0.9831
 3425SOL     OW19242   9.382  12.249   8.626 -0.0654  0.2246 -0.6461
 3425SOL    HW119243   9.439  12.180   8.661  0.7826  1.4469  0.5131
 3425SOL    HW219244   9.402  12.325   8.680 -1.9456  1.0300 -1.0197
 3426SOL     OW19245  11.480   9.490   9.155  0.2983  0.1996 -0.2077
 3426SOL    HW119246  11.494   9.493   9.060  0.2024  0.7649 -0.2066
 3426SOL    HW219247  11.568   9.498   9.191  0.3240  0.0969 -0.2482
 3427SOL     OW19248  11.149   9.360   7.935 -0.0316 -0.0859  0.4766
 3427SOL    HW119249  11.165   9.415   8.012  3.0731 -0.2315  0.0268
 3427SOL    HW219250  11.110   9.280   7.971  0.8692  0.0635  1.8578
 3428SOL     OW19251  12.307   5.394  10.873 -0.3776 -0.0491 -0.1231
 3428SOL    HW119252  12.386   5.438  10.841 -0.1957 -0.0659  0.2972
 3428SOL    HW219253  12.245   5.465  10.889 -0.3964 -0.0226 -0.3186
 3429SOL     OW19254   8.266   7.862   0.900 -0.0508  0.6044 -0.3752
 3429SOL    HW119255   8.281   7.861   0.995 -1.4135 -0.3682 -0.1340
 3429SOL    HW219256   8.332   7.921   0.866 -1.6509  3.7988  1.5525
 3430SOL     OW19257   1.932   8.939  12.412  0.8069  0.4075  0.3306
 3430SOL    HW119258   1.855   8.938  12.357  0.3245  0.3084  0.9953
 3430SOL    HW219259   1.997   8.887  12.364  0.2620 -0.0234  0.0471
 3431SOL     OW19260   0.051   8.564   1.286  0.5412  0.1441  0.3890
 3431SOL    HW119261   0.067   8.621   1.211  2.7595 -1.3203 -0.3260
 3431SOL    HW219262  -0.043   8.545   1.281  0.4908  0.6395 -1.6067
 3432SOL     OW19263   1.324   2.960  10.875  0.2090 -0.0242 -0.0189
 3432SOL    HW119264   1.303   3.049  10.845 -0.8656  0.4185  1.8349
 3432SOL    HW219265   1.275   2.903  10.817 -1.7324  0.7819  0.7489
 3433SOL     OW19266   3.823  11.005  10.324  0.4554  0.1451  0.0641
 3433SOL    HW119267   3.872  10.922  10.333  0.3835 -0.3788 -3.1624
 3433SOL    HW219268   3.758  11.002  10.394  1.3890 -1.8218  0.9387
 3434SOL     OW19269   0.223   9.641   8.394 -0.1464 -0.2861 -0.1677
 3434SOL    HW119270   0.147   9.628   8.450 -0.2450 -1.0889 -0.4643
 3434SOL    HW219271   0.197   9.710   8.333  0.2763  1.2098  1.2915
 3435SOL     OW19272   3.238  11.157   6.574 -0.0693  0.4724  0.2336
 3435SOL    HW119273   3.260  11.096   6.504  1.0601 -1.6453  2.3326
 3435SOL    HW219274   3.272  11.241   6.543 -0.5348 -0.1456 -2.1816
 3436SOL     OW19275   0.484   6.978  11.893 -0.0318 -0.0354  0.1902
 3436SOL    HW119276   0.393   6.968  11.921  0.4770 -1.8135  1.3595
 3436SOL    HW219277   0.535   6.964  11.972  1.3120 -0.1734 -0.6762
 3437SOL     OW19278   0.802   8.794   9.032  0.7057  0.6646 -0.1110
 3437SOL    HW119279   0.854   8.873   9.045 -1.4220  1.7748  2.5265
 3437SOL    HW219280   0.839   8.730   9.092  1.0806  0.3305 -0.6837
 3438SOL     OW19281   5.990   5.363  10.241  0.2712  0.0712 -0.0793
 3438SOL    HW119282   6.030   5.360  10.328 -1.6899  1.1150  0.9197
 3438SOL    HW219283   5.996   5.455  10.215 -1.4361  0.2706  0.1232
 3439SOL     OW19284   2.869   9.247   9.356 -0.2835  0.5760  0.1150
 3439SOL    HW119285   2.825   9.233   9.272  0.1572  0.1996 -0.0550
 3439SOL    HW219286   2.928   9.320   9.340  1.5873 -1.0200 -0.6059
 3440SOL     OW19287   1.121   6.634   9.340 -0.3280 -0.5030 -0.1533
 3440SOL    HW119288   1.051   6.677   9.389  0.0708 -0.2916  0.2371
 3440SOL    HW219289   1.163   6.705   9.291  0.1764 -0.4790  0.3038
 3441SOL     OW19290   3.018   8.470   0.946 -0.5267 -0.5314  0.0960
 3441SOL    HW119291   3.079   8.539   0.974 -0.6162 -0.4948  0.2053
 3441SOL    HW219292   3.066   8.388   0.959 -0.8324 -0.5737  1.1194
 3442SOL     OW19293   1.690   6.362   1.464  0.2765 -0.0435  0.2699
 3442SOL    HW119294   1.769   6.411   1.491  0.7478 -0.6189 -0.0418
 3442SOL    HW219295   1.618   6.423   1.480  0.6316 -0.0171  1.9210
 3443SOL     OW19296   2.144  10.722   3.775 -0.1667  0.3565  0.3930
 3443SOL    HW119297   2.075  10.770   3.730 -1.0150 -0.4487  0.8147
 3443SOL    HW219298   2.145  10.636   3.734 -0.0616  0.0521  1.0166
 3444SOL     OW19299   1.615  10.788   5.948 -0.0578 -0.0222  0.6893
 3444SOL    HW119300   1.694  10.793   6.003  0.0064 -1.8606  0.8536
 3444SOL    HW219301   1.613  10.871   5.901  2.3322 -0.1316  0.2440
 3445SOL     OW19302  12.325   6.376   6.862  0.2123 -0.2096 -0.2980
 3445SOL    HW119303  12.309   6.447   6.924 -0.0487 -0.0970 -0.4911
 3445SOL    HW219304  12.416   6.387   6.835  0.1208  0.1602 -0.4604
 3446SOL     OW19305   4.381   5.699   3.939  0.1033  0.6936 -0.5154
 3446SOL    HW119306   4.352   5.788   3.958 -2.7447  0.4515 -2.8798
 3446SOL    HW219307   4.424   5.705   3.854  0.1954 -0.1017 -0.5376
 3447SOL     OW19308   9.120   9.913   8.867  0.6693  0.0070  0.2746
 3447SOL    HW119309   9.125   9.822   8.897  2.2262 -0.2817 -0.7463
 3447SOL    HW219310   9.091   9.962   8.944 -0.1092 -1.3362  0.8668
 3448SOL     OW19311   5.659   3.774  10.407  0.2442 -0.2253 -0.2519
 3448SOL    HW119312   5.676   3.695  10.355  1.1839  0.7612 -1.4996
 3448SOL    HW219313   5.740   3.824  10.403 -0.4821  1.0336  0.1227
 3449SOL     OW19314   7.365   5.033   0.495  0.0530 -0.6020 -0.1101
 3449SOL    HW119315   7.348   5.127   0.488  2.6103  0.0670  1.3854
 3449SOL    HW219316   7.455   5.023   0.464 -0.6577 -2.8484 -1.6946
 3450SOL     OW19317   3.795   0.302   2.385  0.1186  0.1512  0.1325
 3450SOL    HW119318   3.823   0.274   2.297  0.7974  0.4711  0.2400
 3450SOL    HW219319   3.867   0.275   2.442 -0.5547 -0.5341  0.6819
 3451SOL     OW19320   3.128   4.233   1.320  0.4466  0.0321 -0.1093
 3451SOL    HW119321   3.169   4.153   1.353 -0.5085 -1.0158 -1.3630
 3451SOL    HW219322   3.086   4.272   1.397 -1.0698 -1.9388  0.1529
 3452SOL     OW19323   0.692   2.740  10.780  0.4478  0.3169 -0.4764
 3452SOL    HW119324   0.601   2.714  10.769  0.5390  0.1098 -0.7801
 3452SOL    HW219325   0.709   2.799  10.707  0.8770 -0.5499 -1.0969
 3453SOL     OW19326  11.416   6.220   9.753  0.0932  0.5809 -0.5869
 3453SOL    HW119327  11.468   6.204   9.675 -0.3487  2.1045 -1.2460
 3453SOL    HW219328  11.439   6.309   9.779 -2.6427  1.6121 -1.3402
 3454SOL     OW19329  12.059   3.241   8.229 -0.2669 -0.7116  0.2495
 3454SOL    HW119330  12.121   3.173   8.254  2.1003  0.6307 -1.5487
 3454SOL    HW219331  12.059   3.302   8.302  2.6641  0.5997 -0.7068
 3455SOL     OW19332   8.475   1.247   4.023  0.3029 -0.0917  0.3060
 3455SOL    HW119333   8.503   1.236   3.933 -0.6153 -1.4250  0.1452
 3455SOL    HW219334   8.538   1.196   4.075 -1.0318 -2.1359  0.0523
 3456SOL     OW19335   0.999   1.865   2.515 -0.2804 -0.1440  0.3923
 3456SOL    HW119336   0.920   1.892   2.561 -0.2819  1.6925 -0.5954
 3456SOL    HW219337   1.069   1.918   2.552 -0.1349  0.7316 -1.0256
 3457SOL     OW19338   6.593   5.144   4.124  0.3840  0.1237 -0.2222
 3457SOL    HW119339   6.605   5.095   4.205 -0.5533 -1.2144 -0.8634
 3457SOL    HW219340   6.498   5.150   4.113  0.4713 -0.7051 -1.7690
 3458SOL     OW19341   1.108   2.784   4.647 -0.0580  0.1741  0.1283
 3458SOL    HW119342   1.163   2.749   4.577  0.4728  0.7702  0.2409
 3458SOL    HW219343   1.166   2.791   4.722 -1.1826 -2.9163  1.4724
 3459SOL     OW19344   3.762   1.546  12.439 -0.2198  0.1462  0.2945
 3459SOL    HW119345   3.756   1.642  12.431 -0.9317  0.0232 -1.0181
 3459SOL    HW219346   3.758   1.515  12.348 -0.1069 -1.1392  0.7162
 3460SOL     OW19347  12.079   2.134   9.964  0.9576 -0.4094 -0.2005
 3460SOL    HW119348  12.018   2.063   9.985  2.0497 -0.8298  1.9049
 3460SOL    HW219349  12.164   2.091   9.957  1.6016  0.6246  0.8538
 3461SOL     OW19350   1.713   2.959  12.577  0.0871  0.2213  0.2352
 3461SOL    HW119351   1.793   2.984  12.531  0.5071  0.8152  1.2523
 3461SOL    HW219352   1.643   2.972  12.513  0.9284 -1.6546 -1.1284
 3462SOL     OW19353  12.304   3.823  12.501  0.0087 -0.1338  0.0130
 3462SOL    HW119354  12.352   3.890  12.451  1.9593 -2.2969 -1.2140
 3462SOL    HW219355  12.238   3.790  12.440 -0.1832 -0.1403  0.2212
 3463SOL     OW19356  11.417   6.347   5.201 -0.1323 -0.6208 -0.0492
 3463SOL    HW119357  11.383   6.372   5.286 -2.0014 -2.4035 -0.1811
 3463SOL    HW219358  11.371   6.403   5.139  0.6861  0.1785  0.0622
 3464SOL     OW19359   0.114  10.911   8.009  0.0057 -0.4007  0.1650
 3464SOL    HW119360   0.139  10.978   7.946  0.3451 -0.6365  0.0459
 3464SOL    HW219361   0.059  10.957   8.072 -1.2294 -0.3894 -0.8879
 3465SOL     OW19362   7.570   1.640   0.528  0.0238  0.0011  0.1374
 3465SOL    HW119363   7.517   1.716   0.506  0.4029  0.1223 -0.3467
 3465SOL    HW219364   7.543   1.617   0.617 -1.3721 -0.3805 -0.3558
 3466SOL     OW19365   1.511   6.549  10.244  0.7214 -0.4669 -0.1104
 3466SOL    HW119366   1.571   6.492  10.293  1.8487  0.8034  0.0334
 3466SOL    HW219367   1.566   6.590  10.178 -0.2465 -0.1378 -0.7272
 3467SOL     OW19368   1.473   3.262   1.246 -0.0686 -0.4004 -0.0150
 3467SOL    HW119369   1.542   3.196   1.238  2.4299  2.0203 -0.2877
 3467SOL    HW219370   1.409   3.239   1.179  1.3593 -1.8313 -0.9584
 3468SOL     OW19371   5.917   1.312   6.596  0.2244  0.1239 -0.2982
 3468SOL    HW119372   5.924   1.317   6.691  0.4446 -0.8520 -0.2559
 3468SOL    HW219373   5.966   1.388   6.565  0.9720 -0.0807  0.3462
 3469SOL     OW19374   0.936   4.711   3.184 -0.1168  0.4230  0.1989
 3469SOL    HW119375   0.956   4.804   3.194 -0.5372  0.4720  0.6052
 3469SOL    HW219376   0.989   4.667   3.250  1.4442  0.1831 -1.1443
 3470SOL     OW19377   0.261   7.435   3.708 -0.2898 -0.3311 -0.2441
 3470SOL    HW119378   0.324   7.506   3.696  0.8366 -1.2837 -0.1350
 3470SOL    HW219379   0.209   7.436   3.627  1.5144 -1.1020 -1.4894
 3471SOL     OW19380   7.265   1.868  10.781 -0.7793 -0.1010  0.3929
 3471SOL    HW119381   7.284   1.951  10.826 -2.7067  1.8182 -2.0110
 3471SOL    HW219382   7.182   1.839  10.819 -0.0597 -1.0239  1.2960
 3472SOL     OW19383  11.970   1.198   8.678 -0.1965  0.0789 -0.3882
 3472SOL    HW119384  11.893   1.196   8.621 -1.1885  0.9812  0.8611
 3472SOL    HW219385  11.934   1.209   8.766  1.2385 -2.0517  0.5511
 3473SOL     OW19386   8.060   4.037   3.752 -0.2821  0.5357  0.1792
 3473SOL    HW119387   8.073   4.113   3.807 -0.7614  0.5315  0.3053
 3473SOL    HW219388   8.071   4.070   3.663 -0.1515  0.6792  0.2478
 3474SOL     OW19389   5.522  11.194   7.329  0.0611 -0.5894  0.1135
 3474SOL    HW119390   5.534  11.280   7.368 -1.2704  0.2937 -1.3082
 3474SOL    HW219391   5.569  11.134   7.387  1.7118  1.1773  0.6938
 3475SOL     OW19392   2.026   5.044   5.689 -0.2128 -0.5076  0.1869
 3475SOL    HW119393   1.980   5.049   5.605 -0.1426 -0.7601  0.1360
 3475SOL    HW219394   2.118   5.039   5.666 -0.0526  1.1368  0.2977
 3476SOL     OW19395   7.386   3.332   4.717 -0.0997 -0.0009  0.0389
 3476SOL    HW119396   7.338   3.251   4.731 -0.5496  0.0480 -1.1424
 3476SOL    HW219397   7.478   3.308   4.729 -0.2760 -0.5250  0.3693
 3477SOL     OW19398   6.811   2.871   3.034  0.4153  0.0135 -0.2080
 3477SOL    HW119399   6.783   2.788   3.070 -1.2729  0.5468 -0.1972
 3477SOL    HW219400   6.843   2.850   2.946  1.9852 -0.8941  0.5332
 3478SOL     OW19401  10.087  11.033  10.093 -0.0311  0.2314  0.1694
 3478SOL    HW119402  10.060  10.960  10.148  1.5229 -0.2464  0.3696
 3478SOL    HW219403  10.045  11.018  10.009  0.7688 -1.2810  0.0025
 3479SOL     OW19404   9.750   6.874   0.942 -0.6163 -0.0257 -0.9275
 3479SOL    HW119405   9.837   6.912   0.928 -1.0801  1.1074 -0.8237
 3479SOL    HW219406   9.697   6.947   0.973 -1.4977 -0.8146 -0.5429
 3480SOL     OW19407  10.122   0.797   5.223 -0.3664  0.4109 -0.2530
 3480SOL    HW119408  10.084   0.786   5.136  0.8902  0.8991 -0.8802
 3480SOL    HW219409  10.165   0.713   5.240 -0.3676  0.4166 -0.2220
 3481SOL     OW19410  11.050   0.450   5.329  0.6444  0.7751 -0.6554
 3481SOL    HW119411  11.114   0.462   5.258  0.6345  0.4437 -0.7221
 3481SOL    HW219412  11.036   0.356   5.332  1.6997  0.6290  0.7201
 3482SOL     OW19413   9.925   1.391   0.143 -0.4232 -0.4486 -0.2588
 3482SOL    HW119414   9.905   1.311   0.093  1.6996  0.4409 -2.7426
 3482SOL    HW219415   9.980   1.360   0.215 -0.9249 -1.4225 -0.2682
 3483SOL     OW19416  10.029   0.554   8.819 -0.4337  0.1100 -0.0520
 3483SOL    HW119417  10.054   0.575   8.729 -1.4932 -1.7478 -0.8405
 3483SOL    HW219418  10.087   0.482   8.843 -0.4695  0.2964  0.5933
 3484SOL     OW19419   3.088  11.066   6.760 -0.3691 -0.7056 -0.2359
 3484SOL    HW119420   3.014  11.125   6.744 -0.9536 -1.0550  1.0681
 3484SOL    HW219421   3.150  11.086   6.690 -1.2486  0.3163 -0.7559
 3485SOL     OW19422   9.659   4.179   7.801  0.4253  0.3590  0.3576
 3485SOL    HW119423   9.711   4.100   7.790 -0.1850  0.1387 -1.1042
 3485SOL    HW219424   9.674   4.229   7.721 -0.8200  0.7503  0.3469
 3486SOL     OW19425   9.369  10.215   4.731  0.6628 -0.0746  0.2674
 3486SOL    HW119426   9.370  10.309   4.716  0.3089 -0.3039 -1.4011
 3486SOL    HW219427   9.281  10.187   4.704  0.9678 -0.9543  0.1486
 3487SOL     OW19428   4.959   6.037   2.021  0.3371 -0.1822  0.0811
 3487SOL    HW119429   4.950   6.069   1.931 -1.9018 -1.1202 -0.0795
 3487SOL    HW219430   4.905   5.959   2.024  0.1793 -0.0343  2.3233
 3488SOL     OW19431   9.727   2.089   1.855 -0.1479  0.6918 -0.8364
 3488SOL    HW119432   9.816   2.091   1.819  0.6712 -0.0369  1.0493
 3488SOL    HW219433   9.738   2.058   1.945 -2.2027  1.5757 -0.2228
 3489SOL     OW19434  12.418   9.183  10.185 -0.3670 -0.1425 -0.4542
 3489SOL    HW119435  12.330   9.190  10.148  0.1559  0.0633 -1.7237
 3489SOL    HW219436  12.472   9.153  10.112  0.5339 -0.7455  0.4375
 3490SOL     OW19437   1.646   1.588   1.739  0.4207 -0.4062  0.3443
 3490SOL    HW119438   1.630   1.533   1.662 -1.1773  1.5825 -0.8227
 3490SOL    HW219439   1.584   1.557   1.804 -0.2829 -0.1740 -0.2094
 3491SOL     OW19440   3.164   7.673   2.204  0.4280 -0.0296  0.7914
 3491SOL    HW119441   3.226   7.628   2.262  1.2423 -0.1806 -0.1766
 3491SOL    HW219442   3.216   7.742   2.163 -0.4633  0.8994  1.1862
 3492SOL     OW19443   2.827  10.154  11.248  0.3227 -0.1117 -0.1462
 3492SOL    HW119444   2.883  10.077  11.237  2.0191  1.3613 -3.0222
 3492SOL    HW219445   2.877  10.225  11.208 -1.2089  2.5191  2.2968
 3493SOL     OW19446   5.938   8.048   9.608  0.2428 -0.3942  0.4136
 3493SOL    HW119447   5.855   8.051   9.655  0.1651 -2.3781  0.4794
 3493SOL    HW219448   5.989   8.121   9.644 -1.1779  0.3882  0.9032
 3494SOL     OW19449  11.361   6.138   7.157 -0.1263 -0.0982 -0.0123
 3494SOL    HW119450  11.451   6.104   7.157 -0.0671  0.0549  0.2170
 3494SOL    HW219451  11.358   6.198   7.232 -0.6810 -0.7839  0.5245
 3495SOL     OW19452  10.410   1.878   7.494 -0.5145 -0.3605 -0.4115
 3495SOL    HW119453  10.318   1.863   7.515 -0.6084  1.0062  0.2585
 3495SOL    HW219454  10.431   1.962   7.534  0.4243  0.4439 -2.4249
 3496SOL     OW19455   0.686   7.125  12.567 -0.0926 -0.2291 -0.1614
 3496SOL    HW119456   0.741   7.169  12.632 -0.9125  1.4877 -0.5664
 3496SOL    HW219457   0.598   7.156  12.585 -0.2852  0.7048 -2.3393
 3497SOL     OW19458  11.164   7.531   5.585  0.7640 -0.1492  0.4551
 3497SOL    HW119459  11.083   7.484   5.565  0.3010  0.9546 -0.3868
 3497SOL    HW219460  11.234   7.474   5.552  0.1260  0.5166 -2.2430
 3498SOL     OW19461   8.204   8.061   2.089  0.6155  0.1489 -0.0780
 3498SOL    HW119462   8.173   7.998   2.155 -1.7198  0.6928 -0.5574
 3498SOL    HW219463   8.215   8.008   2.010 -1.2930  0.2508 -0.4665
 3499SOL     OW19464   1.386   7.782   3.988  0.3016  0.6384 -0.0800
 3499SOL    HW119465   1.445   7.725   4.039 -0.1256 -1.1009 -1.4434
 3499SOL    HW219466   1.445   7.833   3.932  0.6300  0.6969  0.3088
 3500SOL     OW19467   6.535  10.514   7.190 -0.2403 -0.0302  0.2206
 3500SOL    HW119468   6.586  10.433   7.184 -0.6714 -0.2385 -0.9026
 3500SOL    HW219469   6.507  10.532   7.100 -1.4456  0.5416  0.6840
 3501SOL     OW19470  10.735   4.100   4.618  0.2335  0.5375  0.4444
 3501SOL    HW119471  10.685   4.105   4.699 -1.5844  0.1466 -0.5949
 3501SOL    HW219472  10.694   4.030   4.568 -0.5568  2.5645 -1.9859
 3502SOL     OW19473  10.739   5.686   9.502 -0.1277  0.1319  0.7521
 3502SOL    HW119474  10.739   5.780   9.517 -1.7652  0.6362 -1.8398
 3502SOL    HW219475  10.827   5.667   9.469  0.8772  0.3122  3.1184
 3503SOL     OW19476   0.654   6.913   1.778 -0.0350  0.1561 -0.0427
 3503SOL    HW119477   0.570   6.925   1.821 -0.5657 -1.3659 -0.6156
 3503SOL    HW219478   0.675   6.821   1.789  0.6653  0.0999 -1.4971
 3504SOL     OW19479  10.926   4.373   5.549  0.4711 -0.1699  0.1647
 3504SOL    HW119480  10.936   4.444   5.485  0.8123  1.3487  1.8215
 3504SOL    HW219481  10.832   4.358   5.554  0.1403  1.9861  1.6151
 3505SOL     OW19482  11.654   8.002   4.422 -0.0556 -0.3980  0.3422
 3505SOL    HW119483  11.620   8.091   4.425 -1.1844 -0.6679 -2.2468
 3505SOL    HW219484  11.611   7.962   4.346  2.1603 -2.4221  0.0345
 3506SOL     OW19485  10.797   8.254   0.224  0.0752  0.0951 -0.6706
 3506SOL    HW119486  10.823   8.233   0.135  0.5667  1.7702 -0.9572
 3506SOL    HW219487  10.821   8.178   0.275  2.6212  0.2920 -1.4631
 3507SOL     OW19488   6.744   5.227   3.498 -0.5815  0.1185 -1.0459
 3507SOL    HW119489   6.767   5.183   3.417  1.2985 -0.1221 -0.4184
 3507SOL    HW219490   6.655   5.195   3.518  0.3250 -2.7061 -1.1169
 3508SOL     OW19491   8.880  12.387  11.448 -0.5033 -0.2389 -0.2945
 3508SOL    HW119492   8.876  12.374  11.543  0.3917  0.4940 -0.1396
 3508SOL    HW219493   8.901  12.301  11.412  1.6126 -0.0612  0.3860
 3509SOL     OW19494   5.697  12.532   7.699 -0.7093  0.6903  0.2271
 3509SOL    HW119495   5.775  12.525   7.754 -0.4753  1.7400  0.0567
 3509SOL    HW219496   5.676  12.442   7.675  0.3336  0.3788  0.4431
 3510SOL     OW19497  10.099   9.922   5.160  0.2321  0.3155  0.3993
 3510SOL    HW119498  10.144  10.003   5.136  0.4446  0.4424  1.1891
 3510SOL    HW219499  10.140   9.854   5.107  1.3915  0.4243  1.1364
 3511SOL     OW19500  10.408   6.539   0.587 -0.2872 -0.0450  0.1591
 3511SOL    HW119501  10.346   6.596   0.633 -0.0788  0.5938 -0.3315
 3511SOL    HW219502  10.359   6.459   0.570 -0.9101  0.3646 -0.0112
 3512SOL     OW19503   9.015   5.182  12.279  0.1048 -0.3124  0.6526
 3512SOL    HW119504   8.965   5.243  12.333 -0.4810 -2.0417  2.1882
 3512SOL    HW219505   8.950   5.121  12.245  0.8530 -1.1585  0.6878
 3513SOL     OW19506   4.168   0.258   6.286  0.1184  0.3795 -0.4211
 3513SOL    HW119507   4.197   0.342   6.322 -1.0008  1.4743 -1.9601
 3513SOL    HW219508   4.074   0.268   6.274  0.0929 -0.8216 -1.3898
 3514SOL     OW19509   4.535  10.367   4.259 -0.7658  0.0591  0.3150
 3514SOL    HW119510   4.584  10.290   4.288  1.8341  0.7322 -1.8342
 3514SOL    HW219511   4.464  10.331   4.205  0.0361 -0.8710 -0.1435
 3515SOL     OW19512   8.162   2.046  10.026  0.0561  0.1753  0.5329
 3515SOL    HW119513   8.112   2.026   9.947 -0.8981 -0.4875  1.2699
 3515SOL    HW219514   8.173   1.962  10.069 -0.9675  0.7221  1.9587
 3516SOL     OW19515   6.552   4.197   3.060  0.1945  0.1474 -0.4283
 3516SOL    HW119516   6.579   4.109   3.033 -1.6089  0.0537 -2.1915
 3516SOL    HW219517   6.469   4.211   3.014  0.5284  2.8551 -0.3230
 3517SOL     OW19518   0.325  10.350   9.407  0.0492 -0.9189 -0.4577
 3517SOL    HW119519   0.389  10.288   9.442  0.6262 -1.0788 -1.7248
 3517SOL    HW219520   0.294  10.308   9.326 -0.4588 -0.1047 -0.6932
 3518SOL     OW19521   3.999   6.121   0.526  0.7171  0.1184 -0.0998
 3518SOL    HW119522   3.966   6.054   0.585 -0.6403  1.9299  1.3363
 3518SOL    HW219523   4.094   6.120   0.538  0.6751 -1.1340  0.2996
 3519SOL     OW19524   5.363   1.775  11.634  0.4560 -0.0269  0.5638
 3519SOL    HW119525   5.449   1.780  11.675  0.9943  1.4985 -0.6193
 3519SOL    HW219526   5.361   1.851  11.575 -2.1148  0.5771  1.3338
 3520SOL     OW19527   3.227   2.684   1.336  0.9359  0.0983 -0.1441
 3520SOL    HW119528   3.271   2.699   1.253  2.7710 -0.5149  0.6534
 3520SOL    HW219529   3.197   2.770   1.364 -0.8065  0.1489 -1.9686
 3521SOL     OW19530  10.687  11.312   6.473 -0.3618 -0.4444 -0.0516
 3521SOL    HW119531  10.773  11.325   6.432 -0.8828 -0.5543 -1.2274
 3521SOL    HW219532  10.662  11.223   6.449 -1.3185 -0.0118 -0.7599
 3522SOL     OW19533   1.595   3.109   7.508  0.0869  0.1474  0.2924
 3522SOL    HW119534   1.615   3.153   7.591  1.1378  0.7547 -0.2554
 3522SOL    HW219535   1.674   3.060   7.487 -0.1677  0.0018 -0.3555
 3523SOL     OW19536   8.130   4.839   3.227  0.6614  0.1494  0.2136
 3523SOL    HW119537   8.146   4.793   3.310  0.8851 -0.9032 -0.3965
 3523SOL    HW219538   8.185   4.917   3.232  0.5073  0.2169  1.1430
 3524SOL     OW19539   9.373   6.697   6.074 -0.0382 -0.0488  0.3071
 3524SOL    HW119540   9.426   6.670   6.148  1.1245  0.2576 -0.3886
 3524SOL    HW219541   9.284   6.667   6.095  0.4039 -0.5598  1.4909
 3525SOL     OW19542   6.992  11.976   8.751  0.2298  0.1952 -0.1210
 3525SOL    HW119543   7.029  12.045   8.696  0.9841 -0.2449 -0.1813
 3525SOL    HW219544   6.990  12.014   8.839 -1.6071  1.1432 -0.5243
 3526SOL     OW19545   9.117   9.501   4.673  0.2227 -0.1798  0.3390
 3526SOL    HW119546   9.159   9.561   4.612 -2.2917  0.1988 -1.1579
 3526SOL    HW219547   9.089   9.557   4.746 -0.5626  0.1816 -0.2260
 3527SOL     OW19548   9.831   9.715   6.568  0.6161 -0.2781  0.4608
 3527SOL    HW119549   9.880   9.650   6.518  0.9045 -0.0245  0.4126
 3527SOL    HW219550   9.766   9.664   6.616 -0.7715 -0.3932 -1.4274
 3528SOL     OW19551   0.700   4.621  10.090 -0.3885  0.3637  0.6464
 3528SOL    HW119552   0.757   4.588  10.020 -0.7108  0.2871  0.4149
 3528SOL    HW219553   0.621   4.568  10.083 -0.3797  0.2775  1.1474
 3529SOL     OW19554   1.859   6.369  10.624 -0.2107 -0.4351 -0.0463
 3529SOL    HW119555   1.947   6.405  10.632  0.5884 -2.0879 -0.7727
 3529SOL    HW219556   1.805   6.424  10.679  1.3176  0.5100  0.5684
 3530SOL     OW19557   1.816   5.319   4.749  0.0426 -0.0202  0.1728
 3530SOL    HW119558   1.748   5.386   4.758 -0.3866 -0.3243 -0.6957
 3530SOL    HW219559   1.777   5.241   4.789  0.3505  0.1072  0.7371
 3531SOL     OW19560   5.841   1.952   3.251  0.1984 -0.3629 -0.4038
 3531SOL    HW119561   5.848   1.903   3.333  0.2510 -0.0067 -0.1945
 3531SOL    HW219562   5.780   1.900   3.198  1.0012 -1.1639 -0.5622
 3532SOL     OW19563   7.435   0.068  10.101 -0.2859 -0.5550  0.1651
 3532SOL    HW119564   7.476   0.145  10.062  2.2659 -0.4205  2.7609
 3532SOL    HW219565   7.488  -0.006  10.072 -0.0064 -0.7561  1.1295
 3533SOL     OW19566  10.290   7.691   8.514  0.3407  0.1326 -0.0152
 3533SOL    HW119567  10.198   7.718   8.504  0.3783  0.2435 -0.0561
 3533SOL    HW219568  10.285   7.612   8.568  0.1184 -0.5905 -1.0625
 3534SOL     OW19569   6.917   6.965   7.340  0.2153 -0.5949  0.1255
 3534SOL    HW119570   7.002   6.944   7.300  0.8424  0.5381  0.8180
 3534SOL    HW219571   6.923   6.932   7.429  0.4437  0.6720  0.5889
 3535SOL     OW19572   3.765   9.032   4.908 -0.9060  0.2650 -0.2411
 3535SOL    HW119573   3.680   8.988   4.917 -0.4761 -0.8333 -1.3309
 3535SOL    HW219574   3.800   8.999   4.825 -1.4362  4.1643 -2.2486
 3536SOL     OW19575   5.324   0.495   0.989 -0.4576  0.1089 -0.6306
 3536SOL    HW119576   5.387   0.444   1.041  0.5720 -0.0814 -1.9998
 3536SOL    HW219577   5.374   0.569   0.956 -1.6903  1.4840  0.4996
 3537SOL     OW19578   9.894   0.284   6.569 -0.1733  0.1836  0.2145
 3537SOL    HW119579   9.972   0.317   6.524  0.1002  0.8707  1.1623
 3537SOL    HW219580   9.918   0.284   6.662 -1.6016  1.2946  0.6153
 3538SOL     OW19581   9.206   4.621   6.937  0.1654 -0.4939  0.3365
 3538SOL    HW119582   9.167   4.658   7.017 -1.4855  0.2364 -0.7638
 3538SOL    HW219583   9.240   4.536   6.965 -1.7602 -0.9507  1.5087
 3539SOL     OW19584   3.152   1.818   2.459 -0.3332  0.2773 -0.1572
 3539SOL    HW119585   3.132   1.867   2.380 -0.4065 -0.3459 -0.5341
 3539SOL    HW219586   3.076   1.762   2.472  0.2992 -0.6876 -0.4835
 3540SOL     OW19587   9.027   9.497   0.137  0.3402 -0.4424 -0.2456
 3540SOL    HW119588   9.077   9.486   0.056 -0.1457 -0.7454 -0.5090
 3540SOL    HW219589   8.990   9.585   0.132  0.4098 -0.4164 -0.2991
 3541SOL     OW19590   5.746   2.591   1.114  0.3889  0.0771  0.2371
 3541SOL    HW119591   5.675   2.654   1.102  1.0497  0.4768 -1.9096
 3541SOL    HW219592   5.740   2.566   1.207 -2.4834  0.1350  0.1663
 3542SOL     OW19593   2.521  10.412   9.110  0.4575 -0.4877 -0.7119
 3542SOL    HW119594   2.614  10.407   9.132  0.6808 -1.2068 -1.7282
 3542SOL    HW219595   2.504  10.331   9.061 -0.7319 -0.4171 -0.4432
 3543SOL     OW19596   8.438   1.654   2.687 -0.1819  0.2632 -0.1102
 3543SOL    HW119597   8.372   1.648   2.618  1.4402  1.1310 -1.8232
 3543SOL    HW219598   8.449   1.748   2.702  1.6762  0.2182 -0.9431
 3544SOL     OW19599   0.673   1.890   1.679  0.1853 -0.3926 -0.3191
 3544SOL    HW119600   0.704   1.843   1.601  0.1725  0.1796 -0.6786
 3544SOL    HW219601   0.623   1.825   1.728  0.1329 -0.7476 -0.8323
 3545SOL     OW19602   8.383   1.869   9.875  0.1143 -0.0369 -0.3508
 3545SOL    HW119603   8.325   1.795   9.892  0.1988  0.1993  1.1061
 3545SOL    HW219604   8.330   1.930   9.824 -0.4542 -0.4445 -0.2509
 3546SOL     OW19605   9.858   3.268   0.965  0.0844  0.1695  0.1754
 3546SOL    HW119606   9.931   3.218   1.001 -0.3322 -0.2901  0.4030
 3546SOL    HW219607   9.807   3.294   1.042  0.8996  1.9505  0.1666
 3547SOL     OW19608   5.913   2.151   5.366  0.1309  0.3699  0.8636
 3547SOL    HW119609   5.820   2.132   5.373 -0.0020  0.3932 -0.6182
 3547SOL    HW219610   5.929   2.216   5.436 -1.6518  2.7708 -0.7935
 3548SOL     OW19611  10.251  12.009  10.700  0.0586  0.3102 -0.0687
 3548SOL    HW119612  10.311  11.944  10.662 -0.6963 -0.3373 -0.1734
 3548SOL    HW219613  10.199  12.039  10.625 -2.0040 -1.5725  0.5217
 3549SOL     OW19614   0.977   9.288   0.686  0.5482  0.1942  0.6927
 3549SOL    HW119615   1.011   9.299   0.597 -1.2406 -0.4980 -0.1297
 3549SOL    HW219616   1.047   9.244   0.734  0.7506 -1.3949 -0.9746
 3550SOL     OW19617  11.980   5.499   8.910 -0.3013  0.1288  0.5190
 3550SOL    HW119618  11.984   5.584   8.954  0.9374 -0.0671  0.7998
 3550SOL    HW219619  11.914   5.450   8.959  1.3397 -0.2348  2.4751
 3551SOL     OW19620   4.905   0.161   7.964  0.3814  0.5182  0.6459
 3551SOL    HW119621   4.952   0.231   8.011  0.2095  1.3974 -0.4483
 3551SOL    HW219622   4.895   0.195   7.875  0.3188 -0.9348  0.0795
 3552SOL     OW19623   3.193   9.579   7.723  0.0081 -0.1161 -0.2754
 3552SOL    HW119624   3.160   9.663   7.692  0.6613  0.8598  1.5335
 3552SOL    HW219625   3.181   9.582   7.818 -0.3798 -2.2743 -0.1919
 3553SOL     OW19626   1.165   7.968   6.611  0.2167 -0.4434 -0.3240
 3553SOL    HW119627   1.187   7.926   6.694  0.7988 -0.4497 -0.4751
 3553SOL    HW219628   1.119   8.048   6.636 -2.2900 -1.8750 -0.0525
 3554SOL     OW19629   3.024   4.012   0.434 -0.1563 -0.0722 -0.6263
 3554SOL    HW119630   3.118   3.997   0.429 -0.3782 -1.3806 -1.1092
 3554SOL    HW219631   3.001   4.047   0.347 -0.3381 -1.1943 -1.0512
 3555SOL     OW19632   7.276   0.905   9.434  0.0516  0.3674  0.4058
 3555SOL    HW119633   7.234   0.844   9.374  0.0293  0.5928  0.1929
 3555SOL    HW219634   7.210   0.921   9.501  0.2378 -0.2449  0.7500
 3556SOL     OW19635   5.737   4.448   2.927  0.1378 -0.4735 -0.5798
 3556SOL    HW119636   5.749   4.538   2.955  1.5291 -0.7652 -0.1600
 3556SOL    HW219637   5.818   4.426   2.881 -1.1526 -0.7343 -2.9058
 3557SOL     OW19638  12.133   6.876   2.544 -0.1849  0.1904 -0.4071
 3557SOL    HW119639  12.063   6.814   2.524  0.7294 -0.7834 -0.7263
 3557SOL    HW219640  12.193   6.827   2.601  0.3999  0.8807 -0.4148
 3558SOL     OW19641   7.315   8.797  11.509 -0.0351  0.2812  0.1759
 3558SOL    HW119642   7.371   8.774  11.435  1.3641  2.0379  0.6366
 3558SOL    HW219643   7.230   8.816  11.469  0.2839 -0.2304 -0.7872
 3559SOL     OW19644   9.288  11.389   5.048  0.3027 -0.0020  0.0550
 3559SOL    HW119645   9.293  11.458   5.114  0.7865  0.2072 -0.2001
 3559SOL    HW219646   9.354  11.325   5.074  0.5799  0.1400 -0.2954
 3560SOL     OW19647  12.138  10.399   5.840 -0.3429 -0.3130 -0.4035
 3560SOL    HW119648  12.231  10.391   5.821 -0.2170 -0.5524  0.2919
 3560SOL    HW219649  12.111  10.312   5.868 -0.2707  0.2468  1.5505
 3561SOL     OW19650   4.720  11.926   5.486 -0.1730 -0.7435  0.1224
 3561SOL    HW119651   4.655  11.861   5.513  0.1563 -0.8997  0.5520
 3561SOL    HW219652   4.736  11.978   5.564  0.8527 -1.2525  0.2637
 3562SOL     OW19653   7.195   5.065   1.607  0.0260 -0.4243 -0.4181
 3562SOL    HW119654   7.246   5.144   1.591  0.6377 -0.3717  1.5550
 3562SOL    HW219655   7.259   4.994   1.609 -0.2996 -0.7263 -0.4881
 3563SOL     OW19656   6.110   7.975  11.939  0.3772 -0.1639 -0.1619
 3563SOL    HW119657   6.114   7.904  11.875  2.1503  0.8396 -1.2630
 3563SOL    HW219658   6.102   7.931  12.024 -3.5743 -1.5155 -1.0305
 3564SOL     OW19659   2.563  11.433  11.293  0.1918 -0.1508  0.3819
 3564SOL    HW119660   2.572  11.427  11.198 -0.7930 -1.0097  0.3314
 3564SOL    HW219661   2.551  11.526  11.311  3.0004  0.3822 -0.0663
 3565SOL     OW19662  12.007   4.964   1.031 -0.7637 -0.5123 -0.5327
 3565SOL    HW119663  11.960   5.023   1.090 -0.1422 -0.7409  0.2020
 3565SOL    HW219664  11.975   4.988   0.944  0.8908  2.2971 -0.4896
 3566SOL     OW19665   8.957   0.099   9.309 -0.5883  0.1106 -0.4848
 3566SOL    HW119666   9.044   0.128   9.279 -1.4743  0.2674 -3.1544
 3566SOL    HW219667   8.958   0.004   9.299 -0.0595 -0.1449  1.5548
 3567SOL     OW19668   0.561   8.506   6.723 -0.4464  0.6778  0.5480
 3567SOL    HW119669   0.596   8.420   6.700 -1.2710 -0.3153  2.6950
 3567SOL    HW219670   0.637   8.563   6.727  0.3344 -0.3510  0.7328
 3568SOL     OW19671  11.766   6.664  10.318 -0.2277 -0.1650 -0.0343
 3568SOL    HW119672  11.790   6.702  10.403 -0.3994 -0.3321  0.0890
 3568SOL    HW219673  11.813   6.717  10.254 -1.4094  1.0294  0.0507
 3569SOL     OW19674   3.953   4.843  11.204 -0.2788 -0.1153  0.5874
 3569SOL    HW119675   3.936   4.850  11.298 -1.4402  1.1522  0.3033
 3569SOL    HW219676   3.888   4.781  11.172 -2.2715  2.0941  0.0866
 3570SOL     OW19677  11.582   7.266  11.492 -0.4043 -0.1520 -0.2019
 3570SOL    HW119678  11.511   7.328  11.473 -0.5349 -0.2940 -0.1777
 3570SOL    HW219679  11.648   7.284  11.424  0.3901  1.2951  0.9018
 3571SOL     OW19680   1.456   9.713  12.060  0.9557  0.5454 -0.2246
 3571SOL    HW119681   1.495   9.627  12.072  1.5839  0.7769 -0.5607
 3571SOL    HW219682   1.486   9.741  11.973 -0.2244  0.5895 -0.6443
 3572SOL     OW19683   8.640  11.480  12.582  0.2812 -0.1658 -0.0709
 3572SOL    HW119684   8.650  11.575  12.588  0.5301 -0.2085  0.2149
 3572SOL    HW219685   8.695  11.455  12.508  1.4975 -0.2733  0.8378
 3573SOL     OW19686  12.075   7.238   0.904 -0.7725 -0.2676 -0.2511
 3573SOL    HW119687  11.998   7.292   0.884 -0.1317  0.7854  0.0794
 3573SOL    HW219688  12.047   7.183   0.977 -0.3668  2.1203  1.8183
 3574SOL     OW19689   4.330   8.406   2.278  0.9134 -0.4352  0.4947
 3574SOL    HW119690   4.341   8.500   2.269  0.9370 -0.2910  1.8745
 3574SOL    HW219691   4.392   8.368   2.216  0.4392  0.4473 -0.5479
 3575SOL     OW19692   3.372  10.601   4.813  0.3596  0.1057 -0.0730
 3575SOL    HW119693   3.347  10.634   4.899  0.4382  0.3512 -0.1431
 3575SOL    HW219694   3.296  10.551   4.784 -0.5597  1.8021 -0.7858
 3576SOL     OW19695   5.380  11.495  10.938 -0.5222  0.0394 -0.1211
 3576SOL    HW119696   5.287  11.505  10.920 -0.0226  1.0669 -2.3752
 3576SOL    HW219697   5.393  11.400  10.944 -1.5473 -0.1512 -0.6829
 3577SOL     OW19698   1.254   8.573  12.475 -0.4151  0.0493  0.0023
 3577SOL    HW119699   1.187   8.505  12.475  1.7227 -2.2293  1.0420
 3577SOL    HW219700   1.323   8.539  12.418  1.3443  0.5957  1.6961
 3578SOL     OW19701   1.009   8.598  12.270  0.2965 -0.5823 -0.1336
 3578SOL    HW119702   0.992   8.504  12.262  0.7507 -0.6587 -0.1968
 3578SOL    HW219703   1.036   8.626  12.183 -0.5826 -0.2346 -0.3085
 3579SOL     OW19704   3.723   0.677   1.871 -0.2019 -0.1113  0.0943
 3579SOL    HW119705   3.669   0.667   1.793  1.4362 -1.0112 -0.9877
 3579SOL    HW219706   3.708   0.767   1.899 -1.5216 -0.0541 -0.7097
 3580SOL     OW19707   4.931   6.081  10.675 -0.7938  0.5167  0.5358
 3580SOL    HW119708   4.869   6.019  10.637  0.0631 -0.5292  0.8106
 3580SOL    HW219709   5.015   6.037  10.671  0.2347  2.4250 -1.0816
 3581SOL     OW19710   7.318   3.060   3.696  0.1437  0.0641 -0.0207
 3581SOL    HW119711   7.300   3.137   3.750  0.7199  0.7065 -0.7318
 3581SOL    HW219712   7.301   2.986   3.754 -0.7229  0.7151  0.5773
 3582SOL     OW19713   2.289   0.703  12.500  0.4117 -0.0398 -0.4074
 3582SOL    HW119714   2.356   0.741  12.444  0.3877  0.2173 -0.2598
 3582SOL    HW219715   2.299   0.608  12.488  0.3086  0.0149 -0.9648
 3583SOL     OW19716   8.686   7.746   5.665 -0.2858  0.0358 -0.2959
 3583SOL    HW119717   8.616   7.772   5.725 -0.4501  1.6452 -1.1378
 3583SOL    HW219718   8.756   7.809   5.681  0.9436 -1.4335  0.3940
 3584SOL     OW19719   4.598   0.416  12.185  0.4678 -0.0487  0.4847
 3584SOL    HW119720   4.581   0.497  12.137  2.0174  0.2904  0.4774
 3584SOL    HW219721   4.537   0.419  12.259  0.1527  0.8688  0.2041
 3585SOL     OW19722   0.508   5.697   5.684  0.1985  0.2424  0.0043
 3585SOL    HW119723   0.590   5.653   5.706 -0.7389 -2.6425 -1.7294
 3585SOL    HW219724   0.441   5.645   5.729 -0.9765 -0.3837 -2.2894
 3586SOL     OW19725   6.312   3.502   8.350 -0.1636  0.1932 -0.1389
 3586SOL    HW119726   6.309   3.570   8.417  3.7697  2.0368 -1.5312
 3586SOL    HW219727   6.293   3.549   8.268  3.0121 -0.0826 -1.1845
 3587SOL     OW19728  12.320   3.449   8.051  0.6213  0.1561  0.1288
 3587SOL    HW119729  12.316   3.368   8.001  4.1174  0.4046 -0.8709
 3587SOL    HW219730  12.368   3.426   8.130  0.0317  0.9063  0.7218
 3588SOL     OW19731   5.674  11.530   3.730  0.1110  0.0495  0.5742
 3588SOL    HW119732   5.762  11.510   3.696 -0.0287  0.4641 -0.0360
 3588SOL    HW219733   5.633  11.583   3.662 -0.5851 -0.0615  0.9004
 3589SOL     OW19734   4.529   2.922   5.958  0.2213 -0.1659 -0.2712
 3589SOL    HW119735   4.596   2.925   5.890  0.0025 -0.9084 -0.5340
 3589SOL    HW219736   4.448   2.900   5.911 -0.0615 -0.0263  0.1433
 3590SOL     OW19737   5.024  12.227   6.708  0.0964 -0.7108 -0.2807
 3590SOL    HW119738   5.071  12.304   6.676 -1.3051  1.0460  1.5923
 3590SOL    HW219739   4.941  12.229   6.662  0.0934 -1.1719 -0.2969
 3591SOL     OW19740   7.370  11.121   7.528 -1.1875 -0.1620  0.5697
 3591SOL    HW119741   7.453  11.100   7.570  0.6199  3.0388 -1.0245
 3591SOL    HW219742   7.307  11.129   7.600 -0.2014 -2.6602  1.8183
 3592SOL     OW19743   2.518   1.985   8.834  0.8659 -0.2877  0.1783
 3592SOL    HW119744   2.424   1.986   8.853  0.6258 -1.4007 -0.8531
 3592SOL    HW219745   2.542   1.892   8.837  1.3798 -0.2803 -2.0731
 3593SOL     OW19746   4.894   7.063  10.145 -0.0594  0.0604  0.2964
 3593SOL    HW119747   4.893   6.984  10.199 -1.7350 -0.0710  0.1207
 3593SOL    HW219748   4.894   7.031  10.055  1.9938  0.2857  0.1563
 3594SOL     OW19749   5.242   7.788   4.498  0.0740 -0.0131 -0.2690
 3594SOL    HW119750   5.160   7.759   4.537 -0.4703  1.4548 -0.2710
 3594SOL    HW219751   5.217   7.827   4.415  0.8271  0.0895 -0.4531
 3595SOL     OW19752   5.407   6.357   9.511 -0.0671 -0.4369 -0.4799
 3595SOL    HW119753   5.457   6.399   9.441  0.5925 -0.4653 -0.0334
 3595SOL    HW219754   5.322   6.401   9.510  0.7241  1.1702  0.2163
 3596SOL     OW19755  11.200   6.041   7.505  0.0993  0.0136  0.7681
 3596SOL    HW119756  11.290   6.068   7.486  0.0714  0.1138  0.7770
 3596SOL    HW219757  11.209   5.975   7.575  0.2930 -1.2752 -0.4353
 3597SOL     OW19758   6.884   2.287   8.426  0.2598 -0.2396  0.5344
 3597SOL    HW119759   6.962   2.325   8.387  0.2195 -1.3120 -0.6784
 3597SOL    HW219760   6.867   2.340   8.504  2.3156 -0.1397  0.9563
 3598SOL     OW19761  12.022  10.937   9.520  0.0450 -0.6956 -0.0306
 3598SOL    HW119762  11.943  10.963   9.472 -0.4094 -1.5054  0.2595
 3598SOL    HW219763  12.007  10.969   9.609  0.8731  0.7768 -0.3903
 3599SOL     OW19764   8.982   4.256   9.503  0.3387 -0.0871 -0.0348
 3599SOL    HW119765   9.076   4.270   9.506  0.3004  0.3127 -0.4954
 3599SOL    HW219766   8.944   4.343   9.517  0.1002  0.4239 -3.0705
 3600SOL     OW19767   9.886   6.560   3.688 -0.2085 -0.3747  0.3063
 3600SOL    HW119768   9.820   6.494   3.709 -1.6045  0.8542 -0.0333
 3600SOL    HW219769   9.856   6.598   3.605  1.3136 -0.2529 -0.2152
 3601SOL     OW19770  12.345   7.766   3.930  0.1794  0.0518  0.3232
 3601SOL    HW119771  12.353   7.706   3.855  0.4945  0.2301  0.2111
 3601SOL    HW219772  12.279   7.726   3.986 -0.7985  0.4212 -0.5301
 3602SOL     OW19773   3.831   6.519   1.401 -0.2402  0.3581  0.3582
 3602SOL    HW119774   3.769   6.488   1.335  1.0656 -1.2985 -0.1806
 3602SOL    HW219775   3.783   6.513   1.484 -2.0268  2.7946 -0.3842
 3603SOL     OW19776  11.958  10.963   7.784  0.3455  0.5265  0.8554
 3603SOL    HW119777  11.900  10.909   7.838  1.7067 -1.8256  0.1215
 3603SOL    HW219778  12.046  10.941   7.814  1.0571  0.4909 -1.1292
 3604SOL     OW19779   3.660  10.951   2.520  0.1549  0.2846 -0.2894
 3604SOL    HW119780   3.701  10.867   2.502  0.3356 -0.0734  1.5449
 3604SOL    HW219781   3.733  11.010   2.540 -0.0696  0.1857  0.9262
 3605SOL     OW19782   4.673  12.041   9.561  0.5508  0.5590  0.1704
 3605SOL    HW119783   4.685  12.086   9.478 -2.3654  0.8324 -0.1917
 3605SOL    HW219784   4.657  12.112   9.624 -2.8460  0.2728 -0.1819
 3606SOL     OW19785   6.878   7.431  12.076  0.2827 -0.5221  0.1512
 3606SOL    HW119786   6.806   7.494  12.081  0.5771 -0.0476 -1.0914
 3606SOL    HW219787   6.858   7.366  12.144 -0.3168  0.6063  1.0890
 3607SOL     OW19788  11.459  11.796  12.357 -0.0532 -0.7407 -0.1417
 3607SOL    HW119789  11.481  11.704  12.339  0.7061 -0.9424  1.6485
 3607SOL    HW219790  11.438  11.798  12.450 -2.1346  0.5453 -0.5658
 3608SOL     OW19791   5.717   9.435   2.392 -0.2129 -0.2182  0.0184
 3608SOL    HW119792   5.747   9.359   2.342 -1.1461 -0.9428  0.5444
 3608SOL    HW219793   5.784   9.501   2.376  0.6617 -1.1735 -0.3747
 3609SOL     OW19794  11.432   2.065   1.969 -0.2941  0.8055 -0.0066
 3609SOL    HW119795  11.374   2.113   1.910 -1.2390 -1.9016 -1.4383
 3609SOL    HW219796  11.519   2.074   1.930 -0.7871 -0.2636 -1.4315
 3610SOL     OW19797   3.899   7.859   3.351 -0.6067 -0.0739 -0.0625
 3610SOL    HW119798   3.937   7.906   3.277 -0.0380 -0.8807 -0.2962
 3610SOL    HW219799   3.930   7.769   3.341  0.3793  0.0116  1.7315
 3611SOL     OW19800  11.387   1.117   5.276 -0.2433 -0.2482  0.1421
 3611SOL    HW119801  11.306   1.081   5.241 -0.0138 -0.4541 -0.1935
 3611SOL    HW219802  11.376   1.115   5.371  0.4554 -2.9926  0.2621
 3612SOL     OW19803   8.803   3.440   0.491  0.2947  0.0058  0.4472
 3612SOL    HW119804   8.736   3.478   0.548 -0.0688 -0.3171  0.2380
 3612SOL    HW219805   8.778   3.348   0.482 -0.7310  0.4370 -1.7562
 3613SOL     OW19806   3.361  12.231   0.468  0.1587  0.3120 -0.4978
 3613SOL    HW119807   3.276  12.248   0.508 -0.2482  0.5362 -1.4290
 3613SOL    HW219808   3.346  12.156   0.410  0.8415 -0.2868  0.0756
 3614SOL     OW19809   9.957   7.711   7.965  0.3181  0.3690 -0.3804
 3614SOL    HW119810   9.987   7.621   7.979  0.4262  0.5781  0.8832
 3614SOL    HW219811  10.036   7.765   7.977  0.4097  0.6023 -1.8448
 3615SOL     OW19812  12.323   6.844  12.206 -0.0421 -0.1716 -0.0242
 3615SOL    HW119813  12.417   6.830  12.223 -0.0199  0.9366  0.8821
 3615SOL    HW219814  12.291   6.889  12.284 -0.9219  1.1982 -1.1289
 3616SOL     OW19815   3.238   8.131  12.496  0.4167 -0.4039  0.3718
 3616SOL    HW119816   3.147   8.103  12.500  0.5849 -0.8833  1.1137
 3616SOL    HW219817   3.282   8.078  12.563  1.5117 -1.1894 -0.9066
 3617SOL     OW19818   4.219   5.734   6.589  0.2356  1.1226  0.6268
 3617SOL    HW119819   4.308   5.701   6.581 -0.5331 -0.9972 -0.0537
 3617SOL    HW219820   4.210   5.798   6.518  0.9036  0.5371  0.0022
 3618SOL     OW19821  10.588   3.753   4.804  0.0363 -0.1188 -0.2741
 3618SOL    HW119822  10.665   3.778   4.855  0.4134 -1.8308  0.0472
 3618SOL    HW219823  10.581   3.658   4.815 -2.4906  0.0431  0.2212
 3619SOL     OW19824   5.030   5.536   2.484  0.0799 -0.0044 -0.0300
 3619SOL    HW119825   5.109   5.574   2.446  0.4428  0.1678  0.8598
 3619SOL    HW219826   4.990   5.607   2.534 -0.9115  0.0440 -0.8625
 3620SOL     OW19827   8.530   5.690   4.224 -0.5199 -0.1429 -0.0189
 3620SOL    HW119828   8.592   5.642   4.278  1.3485  1.0672 -0.9813
 3620SOL    HW219829   8.500   5.626   4.159  1.8854 -0.1074 -1.2579
 3621SOL     OW19830  10.115  11.893   5.700 -0.4074  0.7406  0.1474
 3621SOL    HW119831  10.059  11.835   5.648 -0.7525  0.7446  0.5075
 3621SOL    HW219832  10.064  11.974   5.708 -0.0819  0.9680 -0.0472
 3622SOL     OW19833   1.492   7.953   5.166  0.7064  0.2033  0.5169
 3622SOL    HW119834   1.503   8.017   5.097  0.4319  0.9797  1.1762
 3622SOL    HW219835   1.445   7.880   5.125  2.4190 -0.3122 -0.6581
 3623SOL     OW19836  11.489   3.886  12.495 -0.4174 -0.1279  0.2733
 3623SOL    HW119837  11.554   3.955  12.482  0.7681 -1.1739  0.4554
 3623SOL    HW219838  11.514   3.844  12.577 -0.1042 -1.8116 -0.6281
 3624SOL     OW19839   3.373   5.028  10.360 -0.3091 -0.8216  0.1924
 3624SOL    HW119840   3.343   5.033  10.269  0.4067  1.0880  0.0255
 3624SOL    HW219841   3.464   5.059  10.357  0.1499 -1.9661  1.3868
 3625SOL     OW19842   1.775   0.999   5.590 -0.3057 -0.0090 -0.4029
 3625SOL    HW119843   1.845   1.062   5.575 -1.1003  0.4169 -2.8041
 3625SOL    HW219844   1.698   1.037   5.547 -2.1516 -0.3373  2.3354
 3626SOL     OW19845   8.681  11.373  10.740  0.1348  0.0958  0.1184
 3626SOL    HW119846   8.612  11.332  10.792  0.2727  0.1099  0.3119
 3626SOL    HW219847   8.678  11.328  10.656  0.4010 -0.4276  0.3873
 3627SOL     OW19848   3.613   9.431   7.722  0.4394  0.4362 -0.3216
 3627SOL    HW119849   3.534   9.443   7.670 -0.5935  1.2906  1.3796
 3627SOL    HW219850   3.674   9.388   7.662 -0.8401  0.9566 -2.0810
 3628SOL     OW19851   6.755   8.378   5.472 -0.0901  0.3395  0.0589
 3628SOL    HW119852   6.735   8.446   5.536 -0.2750  0.2268  0.1229
 3628SOL    HW219853   6.719   8.410   5.390  0.0629  0.4412  0.0308
 3629SOL     OW19854   4.110   0.392   9.775  0.3576 -0.1590 -0.2520
 3629SOL    HW119855   4.019   0.402   9.746  0.0434  1.1323  1.0511
 3629SOL    HW219856   4.151   0.338   9.708 -0.6367  1.6183 -2.4061
 3630SOL     OW19857   3.335   4.466   3.811  0.2755  0.0397  0.1036
 3630SOL    HW119858   3.324   4.379   3.849  2.7769  0.9683  3.3213
 3630SOL    HW219859   3.278   4.523   3.863  0.4904  0.7067 -0.3757
 3631SOL     OW19860  12.518   3.551   0.299 -0.0535 -0.2158 -0.7092
 3631SOL    HW119861  12.564   3.470   0.322  0.8414  0.3924 -0.3146
 3631SOL    HW219862  12.441   3.553   0.355  1.1211  0.3271  0.9500
 3632SOL     OW19863   7.584   4.830  10.320 -0.4309  0.8712 -0.3182
 3632SOL    HW119864   7.661   4.816  10.266 -0.9614 -0.4760 -0.7683
 3632SOL    HW219865   7.568   4.925  10.315  1.1120  1.1529 -0.2820
 3633SOL     OW19866   6.694   1.472  11.878 -0.3603 -0.2310 -0.1785
 3633SOL    HW119867   6.732   1.454  11.964 -1.4049  0.2597  0.4125
 3633SOL    HW219868   6.674   1.566  11.880 -0.7971 -0.3062 -0.7839
 3634SOL     OW19869  10.714   0.996   4.682 -0.2861 -0.4233  0.0477
 3634SOL    HW119870  10.705   0.999   4.778 -0.3989 -1.6885  0.0911
 3634SOL    HW219871  10.789   1.052   4.663 -0.2472 -0.1787  0.8759
 3635SOL     OW19872   6.969  12.029   5.644  0.3628 -0.0959  0.3278
 3635SOL    HW119873   6.978  12.027   5.739  0.8946 -0.1020  0.2806
 3635SOL    HW219874   7.047  11.984   5.611 -0.5510 -1.4345 -0.0755
 3636SOL     OW19875   0.553   4.576   8.653  0.0928 -0.0861 -0.1795
 3636SOL    HW119876   0.540   4.509   8.585 -1.2968  0.4479 -0.4671
 3636SOL    HW219877   0.644   4.564   8.680  0.1200 -1.5548 -0.8008
 3637SOL     OW19878  12.534  12.105   0.163  0.1771 -0.0484  0.0060
 3637SOL    HW119879  12.626  12.125   0.175 -0.3844  1.5686  2.1195
 3637SOL    HW219880  12.525  12.013   0.189  0.8619  0.3867  1.8639
 3638SOL     OW19881  10.257   8.914   2.806  0.0016 -0.6176  0.0988
 3638SOL    HW119882  10.352   8.924   2.818  0.2423 -2.0852 -0.4297
 3638SOL    HW219883  10.221   8.996   2.840  1.3638 -0.4860  1.3722
 3639SOL     OW19884   9.794   3.136  11.036  0.1612 -0.3495  0.1505
 3639SOL    HW119885   9.843   3.122  10.955 -2.0813  0.6861 -1.4872
 3639SOL    HW219886   9.836   3.213  11.076 -1.0223  1.5999 -2.0933
 3640SOL     OW19887   8.217   3.555   4.958 -0.3305  0.4479 -0.3323
 3640SOL    HW119888   8.202   3.593   4.871 -0.8883 -0.9497 -0.8719
 3640SOL    HW219889   8.310   3.533   4.959 -0.4175  0.0469 -0.7535
 3641SOL     OW19890   8.554   0.702   0.585 -0.1326 -0.0841 -0.4434
 3641SOL    HW119891   8.569   0.608   0.579 -0.8582 -0.5211  2.7315
 3641SOL    HW219892   8.636   0.738   0.619 -0.1889  0.2540 -0.6630
 3642SOL     OW19893   4.453   8.190   5.189 -0.1687  0.3749 -0.1348
 3642SOL    HW119894   4.509   8.267   5.179 -0.8201  0.7973 -0.6012
 3642SOL    HW219895   4.512   8.116   5.176  0.6285  0.7653  1.0920
 3643SOL     OW19896   9.148  12.245   0.442 -0.5002  0.7311  0.4476
 3643SOL    HW119897   9.137  12.151   0.428 -0.2735  0.8372 -0.5810
 3643SOL    HW219898   9.178  12.278   0.357 -1.9111  1.9413  0.3802
 3644SOL     OW19899  11.088   8.321   5.347 -0.0597 -0.0822  0.4474
 3644SOL    HW119900  11.132   8.243   5.316 -1.1159 -1.2945  1.8691
 3644SOL    HW219901  10.995   8.304   5.334 -0.2689  1.6584 -0.7812
 3645SOL     OW19902   2.260  10.681   5.917 -0.2619 -0.0473 -0.1668
 3645SOL    HW119903   2.212  10.667   5.835 -0.0760 -0.0417 -0.2775
 3645SOL    HW219904   2.261  10.776   5.928 -1.7629 -0.1012  0.7272
 3646SOL     OW19905  12.369  12.332   9.441 -0.0613  0.5838 -0.6070
 3646SOL    HW119906  12.326  12.418   9.439 -0.1784  0.5115 -1.7620
 3646SOL    HW219907  12.299  12.271   9.465  0.3542  0.9560  1.8575
 3647SOL     OW19908   7.331   0.415  12.372  0.4926  0.1423 -0.4386
 3647SOL    HW119909   7.259   0.476  12.364 -0.7046 -1.4158 -2.3499
 3647SOL    HW219910   7.384   0.429  12.294  2.1210  0.9944  0.7502
 3648SOL     OW19911   5.789   6.097   2.233  0.3449 -0.2270 -0.1630
 3648SOL    HW119912   5.875   6.130   2.259  0.1996 -0.4199  0.6071
 3648SOL    HW219913   5.801   6.065   2.144  1.2540 -0.9060  0.1900
 3649SOL     OW19914   9.744  12.370   2.593 -0.1566  0.1432  0.8280
 3649SOL    HW119915   9.663  12.336   2.630  0.1273  0.1145  1.4299
 3649SOL    HW219916   9.748  12.461   2.624 -0.0172  0.1779  0.7077
 3650SOL     OW19917  12.017   0.453   4.646 -0.3875 -0.4705 -0.1293
 3650SOL    HW119918  11.956   0.517   4.682  0.3919  0.3674 -0.2447
 3650SOL    HW219919  11.990   0.442   4.555 -0.6791 -0.4998 -0.0396
 3651SOL     OW19920   1.939  11.196   7.419 -0.2044 -0.0961  0.2569
 3651SOL    HW119921   1.962  11.274   7.370 -0.7745 -0.3740 -0.4740
 3651SOL    HW219922   2.008  11.133   7.398  1.5568  0.8759  2.6331
 3652SOL     OW19923  11.654   1.917  11.885  0.0523 -0.1925 -0.0362
 3652SOL    HW119924  11.678   1.913  11.792  0.1651  1.2648 -0.0968
 3652SOL    HW219925  11.583   1.980  11.889  0.5250  0.3072  0.9476
 3653SOL     OW19926   1.664   9.453  10.768 -0.4293 -0.0074 -0.1806
 3653SOL    HW119927   1.584   9.413  10.735  0.3959 -0.4341 -1.7316
 3653SOL    HW219928   1.676   9.531  10.714  0.9177 -0.6846 -0.8955
 3654SOL     OW19929  10.554  12.136   4.520  0.1080 -0.2983 -0.3127
 3654SOL    HW119930  10.498  12.081   4.575 -0.1760 -0.4474 -0.7465
 3654SOL    HW219931  10.587  12.204   4.579  0.2542 -0.7790  0.1727
 3655SOL     OW19932   8.351   3.939   8.819  0.9502 -0.2425 -0.0229
 3655SOL    HW119933   8.270   3.918   8.771  1.1561 -0.6195 -0.2161
 3655SOL    HW219934   8.371   4.029   8.794  1.9000 -0.9254 -1.9046
 3656SOL     OW19935   9.553   0.234   6.277  0.2616 -0.1956  0.8115
 3656SOL    HW119936   9.565   0.140   6.290 -0.5473 -0.4690 -0.2502
 3656SOL    HW219937   9.459   0.248   6.290  0.3802  0.4744  0.9773
 3657SOL     OW19938   5.569  11.243   7.066 -0.1974  0.1013  0.2192
 3657SOL    HW119939   5.643  11.301   7.082  1.1218 -1.5671  0.3621
 3657SOL    HW219940   5.538  11.218   7.153 -1.0080  0.8354  0.1626
 3658SOL     OW19941   5.182   3.827   5.554 -0.3945 -0.5376  0.0249
 3658SOL    HW119942   5.257   3.838   5.495 -0.0519  0.2467  0.5795
 3658SOL    HW219943   5.128   3.760   5.513  0.9115 -1.5514 -0.0909
 3659SOL     OW19944   3.470   6.293  12.097  0.0765 -0.6513  0.0931
 3659SOL    HW119945   3.375   6.302  12.097  0.2279  1.5940  1.0310
 3659SOL    HW219946   3.487   6.218  12.040 -2.2633 -1.4388  0.3238
 3660SOL     OW19947   8.429   7.550  11.728  0.3155  0.4850 -0.0869
 3660SOL    HW119948   8.431   7.637  11.769  2.6095  0.1055  0.7241
 3660SOL    HW219949   8.432   7.489  11.802  0.6091 -0.2560 -0.7006
 3661SOL     OW19950  11.967   5.562   1.931  0.4281  0.5203  0.1663
 3661SOL    HW119951  11.931   5.492   1.876  2.7193  0.8510 -1.9603
 3661SOL    HW219952  12.039   5.520   1.978 -0.4363  0.6568  1.6501
 3662SOL     OW19953   1.089   4.154   5.296  0.0292  0.5280  0.4409
 3662SOL    HW119954   1.122   4.116   5.377 -2.6661 -0.7195  1.0581
 3662SOL    HW219955   1.122   4.096   5.227 -0.4651 -0.4394  0.9900
 3663SOL     OW19956   2.696   3.452   3.218  0.4806 -0.5034 -0.4556
 3663SOL    HW119957   2.636   3.489   3.153  0.5608  1.1110  0.3287
 3663SOL    HW219958   2.642   3.434   3.295  1.0687  1.9299  0.6293
 3664SOL     OW19959   2.283   6.313  12.088  0.0483 -0.8741 -0.1626
 3664SOL    HW119960   2.299   6.272  12.173  0.9926  0.4557  0.3357
 3664SOL    HW219961   2.349   6.382  12.082 -1.7797  0.9252 -0.7293
 3665SOL     OW19962  11.174   5.913  12.349 -0.2091 -0.1319  0.4760
 3665SOL    HW119963  11.269   5.901  12.344 -0.3195 -0.9830  0.2640
 3665SOL    HW219964  11.138   5.832  12.314 -1.0222  0.4483 -0.0403
 3666SOL     OW19965   0.476   6.355  11.919  0.2063  0.5526 -0.2048
 3666SOL    HW119966   0.381   6.354  11.902  0.3202  0.0216 -0.8850
 3666SOL    HW219967   0.515   6.371  11.833  0.7618 -0.3744 -0.1431
 3667SOL     OW19968   5.201   0.968   2.308 -0.6228 -0.0856  0.0884
 3667SOL    HW119969   5.277   1.021   2.332 -0.1663  0.2591 -1.9654
 3667SOL    HW219970   5.129   1.007   2.357  0.1071  1.0307  0.3208
 3668SOL     OW19971   0.608   6.221   0.363 -0.2268  0.2460  0.5407
 3668SOL    HW119972   0.550   6.293   0.337 -0.0170  0.4209  0.5586
 3668SOL    HW219973   0.598   6.216   0.458  0.0007  0.4589  0.5757
 3669SOL     OW19974  10.395   0.567   2.685 -0.0262  0.4851  0.2865
 3669SOL    HW119975  10.380   0.504   2.756  0.2888 -1.6762 -1.4353
 3669SOL    HW219976  10.452   0.633   2.723 -0.3323 -0.2831  2.1953
 3670SOL     OW19977  10.344  11.879  11.491  0.5817  0.4021  0.0886
 3670SOL    HW119978  10.340  11.875  11.587 -0.7592  1.8740  0.1294
 3670SOL    HW219979  10.253  11.885  11.463  1.0076  1.7932 -1.1563
 3671SOL     OW19980   0.616   8.996   9.134  0.4188 -0.2501  0.1807
 3671SOL    HW119981   0.687   8.944   9.096 -1.0551 -1.2337 -1.3663
 3671SOL    HW219982   0.631   9.084   9.099 -0.0708 -0.8260 -1.5938
 3672SOL     OW19983   7.854   4.489   1.565 -0.1311 -0.1292 -0.3178
 3672SOL    HW119984   7.783   4.434   1.531  1.6755 -0.2358 -4.4534
 3672SOL    HW219985   7.907   4.430   1.619 -3.1104  0.0469  3.2622
 3673SOL     OW19986   7.743   8.005  11.954 -0.2689 -0.0477  0.2317
 3673SOL    HW119987   7.691   7.932  11.919 -1.0286  0.3510  0.5023
 3673SOL    HW219988   7.700   8.029  12.036 -0.0850  0.7628  0.1030
 3674SOL     OW19989   8.730   8.469   4.620  0.0920 -0.1243 -0.1073
 3674SOL    HW119990   8.815   8.478   4.664  0.5925 -1.0640 -0.8420
 3674SOL    HW219991   8.705   8.558   4.596  0.8881  0.1520  0.0770
 3675SOL     OW19992   0.286   0.348  12.498  0.2248 -0.8747 -0.4753
 3675SOL    HW119993   0.317   0.435  12.524 -0.0220 -0.7766 -0.5057
 3675SOL    HW219994   0.341   0.287  12.548  1.4468 -0.7345 -1.6121
 3676SOL     OW19995   1.679   5.431   6.993 -0.6071  0.1315 -0.0580
 3676SOL    HW119996   1.682   5.368   6.921  2.8061  0.1617 -0.0927
 3676SOL    HW219997   1.692   5.516   6.952  1.1758  0.1659  0.4759
 3677SOL     OW19998   0.651  11.190   8.832  0.2208 -0.3550  0.3169
 3677SOL    HW119999   0.671  11.106   8.791  0.4775  0.4031 -1.2030
 3677SOL    HW220000   0.567  11.177   8.875 -1.5116 -0.5032 -2.8000
 3678SOL     OW20001   3.474  11.761   0.987 -0.2777 -0.0371 -0.0332
 3678SOL    HW120002   3.444  11.852   0.993  1.3572  0.5179  0.2441
 3678SOL    HW220003   3.427  11.724   0.913 -4.1371 -0.2635  2.2560
 3679SOL     OW20004  11.161   8.699   7.314 -0.1365  0.1070 -0.2253
 3679SOL    HW120005  11.196   8.613   7.289 -1.8626 -0.5870 -0.4057
 3679SOL    HW220006  11.230   8.761   7.292  0.3631 -1.0302 -2.0370
 3680SOL     OW20007   0.484   2.614   9.546  0.6364  0.1507 -0.6187
 3680SOL    HW120008   0.427   2.539   9.530 -1.0541  1.3096 -0.3319
 3680SOL    HW220009   0.493   2.655   9.460  1.3788 -0.2587 -0.7363
 3681SOL     OW20010   5.693  11.281   6.301 -0.3024  0.4453  0.3945
 3681SOL    HW120011   5.735  11.310   6.220  0.6317  2.7936  1.6428
 3681SOL    HW220012   5.612  11.240   6.272  1.2501 -1.2975 -1.8856
 3682SOL     OW20013  12.066   8.149  11.211  0.0575  0.0754  0.2535
 3682SOL    HW120014  12.070   8.086  11.140  2.1341  0.3324  0.0987
 3682SOL    HW220015  12.015   8.222  11.175 -0.9022 -0.7560 -0.1318
 3683SOL     OW20016   0.132   7.787  11.720 -0.2246  0.6743 -0.6359
 3683SOL    HW120017   0.078   7.826  11.651  0.6123  1.1257 -1.0470
 3683SOL    HW220018   0.164   7.705  11.682 -0.0514  0.7474 -0.6451
 3684SOL     OW20019   1.190   7.219  11.398 -0.0871 -0.6267 -0.3883
 3684SOL    HW120020   1.104   7.188  11.372 -0.4351  0.6327 -0.8602
 3684SOL    HW220021   1.182   7.238  11.491 -1.1175  1.7280 -0.8542
 3685SOL     OW20022   4.970   9.273   6.495 -0.5362 -0.3147  0.0921
 3685SOL    HW120023   4.974   9.242   6.586  0.1067 -0.5011  0.0050
 3685SOL    HW220024   4.895   9.333   6.494  0.4013  0.9203  1.1177
 3686SOL     OW20025   5.595  11.774   3.240  0.2151  0.2805 -0.0007
 3686SOL    HW120026   5.611  11.714   3.167 -1.3005 -2.1539  1.5062
 3686SOL    HW220027   5.679  11.783   3.283  0.9301  1.0274 -1.4634
 3687SOL     OW20028  11.738   2.682  11.176  0.0837 -0.1130  0.3279
 3687SOL    HW120029  11.819   2.693  11.127  0.2547 -1.0354  0.3864
 3687SOL    HW220030  11.724   2.587  11.180 -1.3145  0.0354 -0.2093
 3688SOL     OW20031  12.364   2.641   1.437 -0.1650 -0.1712 -0.6650
 3688SOL    HW120032  12.311   2.718   1.457  0.7272 -0.1350  1.9832
 3688SOL    HW220033  12.300   2.574   1.411 -0.9952  1.2415 -2.4981
 3689SOL     OW20034   2.956  10.654   0.857 -0.3807  0.3905 -0.5288
 3689SOL    HW120035   2.975  10.595   0.784 -1.8491 -0.3190 -0.3727
 3689SOL    HW220036   2.929  10.736   0.815  0.9692  0.7425 -0.7494
 3690SOL     OW20037   9.615   6.237   2.124  0.3669  0.1104  0.3580
 3690SOL    HW120038   9.546   6.258   2.186  0.5140  1.5840  0.0560
 3690SOL    HW220039   9.685   6.299   2.143 -0.4370  2.1754 -2.6389
 3691SOL     OW20040   2.204  11.975   3.106 -0.1754  0.0689 -0.0671
 3691SOL    HW120041   2.237  12.057   3.071  0.1844  0.0321  0.1744
 3691SOL    HW220042   2.110  11.975   3.085  0.1373 -0.2377 -1.5482
 3692SOL     OW20043   8.619  11.456   1.982 -0.5528  0.5936  0.0761
 3692SOL    HW120044   8.713  11.438   1.973 -0.6945 -0.7230  0.9498
 3692SOL    HW220045   8.614  11.549   2.002  0.7024  0.3694  1.6213
 3693SOL     OW20046   9.156   8.294   5.005  0.2462  0.4266 -0.4640
 3693SOL    HW120047   9.217   8.222   4.987  1.5580  1.0041  1.3332
 3693SOL    HW220048   9.076   8.250   5.034  1.1519 -0.3575  0.9741
 3694SOL     OW20049   3.117   1.316   7.456  0.2392  0.4672 -0.2592
 3694SOL    HW120050   3.116   1.411   7.453  2.1534  0.4950 -1.4852
 3694SOL    HW220051   3.075   1.294   7.539  0.1190  2.3802  0.2193
 3695SOL     OW20052   4.946   2.001   1.749 -0.1808 -0.0504 -0.4538
 3695SOL    HW120053   5.040   2.003   1.734 -0.0566 -0.4808  0.2259
 3695SOL    HW220054   4.919   2.092   1.747 -0.0508 -0.0221 -2.4506
 3696SOL     OW20055   7.899   6.307   9.288 -0.0169 -0.2487  0.1056
 3696SOL    HW120056   7.844   6.354   9.225  1.5288  0.3738 -0.8502
 3696SOL    HW220057   7.919   6.224   9.245 -0.0666 -0.3942  0.3650
 3697SOL     OW20058   2.152   4.680   4.042  0.2057  0.0847  0.0490
 3697SOL    HW120059   2.113   4.764   4.018 -0.1562  0.4537  1.8131
 3697SOL    HW220060   2.088   4.614   4.013  0.4314  0.4023 -1.2194
 3698SOL     OW20061   0.121  12.243  12.379 -0.5276  0.6963 -0.3588
 3698SOL    HW120062   0.053  12.193  12.424 -0.6298  0.4994 -0.7254
 3698SOL    HW220063   0.086  12.331  12.370 -0.0683  1.0242  0.9063
 3699SOL     OW20064   2.786   0.834   6.122  0.1334 -0.1132  0.2244
 3699SOL    HW120065   2.702   0.795   6.097  0.0515  0.7343 -0.9032
 3699SOL    HW220066   2.818   0.779   6.194 -0.1155 -2.0604 -1.0939
 3700SOL     OW20067   1.074   8.412   3.721 -0.1094  0.0370  0.4085
 3700SOL    HW120068   1.158   8.438   3.758  0.4789 -1.3972  0.1611
 3700SOL    HW220069   1.009   8.442   3.784  0.7191 -0.4244  1.5127
 3701SOL     OW20070   7.288   2.107  10.892 -0.2866 -0.0575 -0.2622
 3701SOL    HW120071   7.327   2.149  10.968  1.6670 -2.5978  0.2673
 3701SOL    HW220072   7.236   2.176  10.850  1.4704  2.3805  1.3385
 3702SOL     OW20073   6.585   6.226  10.760  0.0079  0.0332  0.2794
 3702SOL    HW120074   6.597   6.317  10.734  0.5073 -0.2833 -0.6729
 3702SOL    HW220075   6.536   6.230  10.842  1.1180  1.2082  0.9238
 3703SOL     OW20076   3.958   8.801   3.063  0.2453  0.5399 -0.5932
 3703SOL    HW120077   3.883   8.802   3.003 -0.2118 -0.1748 -0.0544
 3703SOL    HW220078   3.932   8.859   3.134 -0.0811 -0.2089 -0.0871
 3704SOL     OW20079   2.297  11.349  10.999 -0.4974 -0.1379  0.0500
 3704SOL    HW120080   2.256  11.432  11.023  2.2100  1.7799 -1.4192
 3704SOL    HW220081   2.273  11.338  10.907  0.4129 -0.1563 -0.1863
 3705SOL     OW20082   0.264   8.628   9.535 -0.3006 -0.1455 -0.3762
 3705SOL    HW120083   0.351   8.667   9.537 -0.8706  1.1285  0.5714
 3705SOL    HW220084   0.259   8.576   9.616 -1.2582  1.7947  0.9084
 3706SOL     OW20085   4.572  10.332   1.194 -0.1171 -0.7433 -0.4702
 3706SOL    HW120086   4.663  10.354   1.214 -0.5764  0.0563  0.8372
 3706SOL    HW220087   4.577  10.287   1.109  1.4419 -0.3748 -0.6132
 3707SOL     OW20088  10.501  10.981   4.454  0.5183  0.4659  0.2029
 3707SOL    HW120089  10.464  11.057   4.409  2.3647 -0.1355 -2.5938
 3707SOL    HW220090  10.497  10.911   4.389 -0.0124 -1.5411  2.2888
 3708SOL     OW20091   8.734  11.731   6.533 -0.0669 -0.6051 -0.1522
 3708SOL    HW120092   8.788  11.740   6.455  0.0427  2.2321  0.1377
 3708SOL    HW220093   8.662  11.793   6.520 -0.7185 -0.9641  1.4731
 3709SOL     OW20094   5.568   7.804  11.392  0.1010  0.0169 -0.1864
 3709SOL    HW120095   5.658   7.778  11.371 -0.4536 -1.6648 -0.6753
 3709SOL    HW220096   5.523   7.721  11.409 -1.7634  0.6657 -1.5871
 3710SOL     OW20097  10.840   3.139   5.847 -0.5477 -0.1721  0.1997
 3710SOL    HW120098  10.769   3.080   5.871  1.0177 -1.3358  2.3476
 3710SOL    HW220099  10.903   3.131   5.919  1.3665  1.4453 -1.1821
 3711SOL     OW20100   1.521   4.976   0.187 -0.0889  0.2849  0.1330
 3711SOL    HW120101   1.473   4.895   0.204  0.3510  0.2347  1.1568
 3711SOL    HW220102   1.613   4.953   0.198  0.1149  0.6703 -0.6492
 3712SOL     OW20103   1.231   1.999  11.404 -0.6322  0.1345  0.1267
 3712SOL    HW120104   1.203   2.031  11.490 -1.6064 -0.1705 -0.0640
 3712SOL    HW220105   1.190   2.059  11.341 -0.6960 -0.2007 -0.1542
 3713SOL     OW20106   5.508   4.384   8.870 -0.3168 -0.2779  0.3706
 3713SOL    HW120107   5.558   4.335   8.935 -1.8485 -2.4392  0.0255
 3713SOL    HW220108   5.573   4.412   8.806  0.7547 -1.0842  1.0718
 3714SOL     OW20109   6.957   6.269  10.969  0.4917 -0.4487 -0.1726
 3714SOL    HW120110   7.013   6.344  10.987 -0.5458 -0.0712  1.7302
 3714SOL    HW220111   6.973   6.209  11.042 -0.8558 -0.7555 -0.1012
 3715SOL     OW20112   5.577   0.734   7.000 -0.3193  0.5005  0.2476
 3715SOL    HW120113   5.636   0.687   6.941 -0.1718 -0.8216  1.3894
 3715SOL    HW220114   5.490   0.717   6.966 -0.5185 -2.8758  2.0015
 3716SOL     OW20115   4.881   6.169   3.319  0.4703  0.4158  0.3700
 3716SOL    HW120116   4.787   6.150   3.311  0.6010 -0.3580  0.6138
 3716SOL    HW220117   4.923   6.102   3.265  0.8613  1.0569 -0.1307
 3717SOL     OW20118  10.407  10.829   4.918  0.3842 -0.1168 -0.0038
 3717SOL    HW120119  10.487  10.793   4.879 -0.1935 -1.4393 -0.0245
 3717SOL    HW220120  10.362  10.753   4.956 -1.0290  0.5394 -0.2788
 3718SOL     OW20121  12.285   3.669   0.955  0.6688  0.1326 -0.4476
 3718SOL    HW120122  12.342   3.722   1.011 -0.4445  0.9928 -0.0992
 3718SOL    HW220123  12.345   3.607   0.912  1.5133 -0.9203  2.0670
 3719SOL     OW20124  11.002   6.712   2.057 -0.2323  0.3980  0.0448
 3719SOL    HW120125  11.094   6.695   2.037  0.1381  0.7562  1.3492
 3719SOL    HW220126  10.987   6.668   2.140 -1.6539 -0.8761 -0.8486
 3720SOL     OW20127   8.994   1.237   0.709 -0.3373  1.2329 -0.2198
 3720SOL    HW120128   8.992   1.219   0.615 -1.2445 -0.1593  0.0446
 3720SOL    HW220129   8.913   1.199   0.743 -0.0700  1.7911  1.1253
 3721SOL     OW20130   3.105   3.157   4.563 -0.1594 -0.0951  0.3037
 3721SOL    HW120131   3.138   3.128   4.648 -0.6131 -1.2965  0.0809
 3721SOL    HW220132   3.180   3.151   4.504  0.0970  0.5250  0.5534
 3722SOL     OW20133  11.890   8.661   9.427  0.4037 -0.0879  0.0695
 3722SOL    HW120134  11.964   8.645   9.369  1.0681  1.2512  0.4927
 3722SOL    HW220135  11.918   8.734   9.482 -1.6759  1.2802 -0.5641
 3723SOL     OW20136   9.002   6.982   8.497  0.5842  0.7665 -0.3339
 3723SOL    HW120137   9.095   6.960   8.495  0.0897 -1.6398  0.2729
 3723SOL    HW220138   8.965   6.924   8.564 -0.8431  3.9662  1.8866
 3724SOL     OW20139   9.662   4.237   7.404  0.3478  0.1602  0.7829
 3724SOL    HW120140   9.733   4.300   7.403 -0.6436  1.3272 -0.4778
 3724SOL    HW220141   9.705   4.151   7.401  1.7101  0.8434 -0.6587
 3725SOL     OW20142   3.461  12.208   4.168  0.4300  0.3787  0.6202
 3725SOL    HW120143   3.464  12.113   4.159 -2.5889 -0.2797  4.0846
 3725SOL    HW220144   3.433  12.240   4.082 -1.4058 -2.2237  0.1520
 3726SOL     OW20145   8.242  10.335   2.501 -0.0232  0.3821 -0.0627
 3726SOL    HW120146   8.250  10.359   2.408 -0.6701  2.3723  0.3403
 3726SOL    HW220147   8.332  10.343   2.535  0.3487 -1.0648 -0.6369
 3727SOL     OW20148   9.008   2.630   8.857 -0.7933 -0.0496  0.0622
 3727SOL    HW120149   8.996   2.536   8.870  0.6591 -0.0349  1.8397
 3727SOL    HW220150   8.966   2.670   8.933 -0.6194  0.6980 -0.2288
 3728SOL     OW20151   5.220   9.745   9.480 -0.6948  0.4087 -0.9931
 3728SOL    HW120152   5.266   9.712   9.403  0.6514 -0.9640  0.3366
 3728SOL    HW220153   5.258   9.697   9.554 -2.8704  0.6724  0.4078
 3729SOL     OW20154  10.161   1.775   1.581  0.2635  0.1363 -0.4611
 3729SOL    HW120155  10.151   1.857   1.531  0.0894  0.7913  0.6196
 3729SOL    HW220156  10.107   1.712   1.534 -0.1624  0.8252 -0.9160
 3730SOL     OW20157   7.476   7.749  11.852 -0.3285 -0.1162 -0.0352
 3730SOL    HW120158   7.562   7.716  11.826  0.8350  2.8340 -0.2709
 3730SOL    HW220159   7.468   7.723  11.944  0.1945 -1.5797 -0.3773
 3731SOL     OW20160   3.960   9.444  10.956 -0.0128 -0.6898 -0.1543
 3731SOL    HW120161   4.055   9.449  10.952  0.0471 -1.0210  0.6546
 3731SOL    HW220162   3.938   9.482  11.041 -0.5762 -0.9326 -0.1883
 3732SOL     OW20163  11.779   9.243   9.286 -0.1498 -0.6113  0.0086
 3732SOL    HW120164  11.862   9.203   9.312 -1.0667 -1.4513  1.8829
 3732SOL    HW220165  11.717   9.170   9.284 -1.4399  0.3630  1.5554
 3733SOL     OW20166   5.946   4.713   2.299 -0.3922 -0.0510  0.3663
 3733SOL    HW120167   5.938   4.754   2.385  0.7368  0.7864  0.0920
 3733SOL    HW220168   6.010   4.643   2.312  0.9219  1.0240 -0.0892
 3734SOL     OW20169   2.555  11.279   1.090 -0.3944  0.5688  0.2111
 3734SOL    HW120170   2.609  11.357   1.075  2.0747 -1.2844 -1.3297
 3734SOL    HW220171   2.506  11.268   1.008 -0.9083  0.6161  0.5095
 3735SOL     OW20172   3.741   9.570   4.585  0.3123  0.1301  0.3617
 3735SOL    HW120173   3.722   9.476   4.580  0.1966  0.1688  0.0261
 3735SOL    HW220174   3.660   9.612   4.558  0.3198  0.3313  0.6519
 3736SOL     OW20175   7.844   9.889  10.757  0.4289 -0.0335  0.1042
 3736SOL    HW120176   7.838   9.794  10.757 -1.1882 -0.0692  3.2855
 3736SOL    HW220177   7.908   9.909  10.825  1.2982  1.1775 -1.0315
 3737SOL     OW20178  12.434   5.975   8.465  0.2174 -0.4679 -0.0878
 3737SOL    HW120179  12.498   6.045   8.478 -1.4433  1.5208 -1.8019
 3737SOL    HW220180  12.430   5.964   8.370 -1.6407 -0.8374  0.0028
 3738SOL     OW20181  10.511   7.616   5.572 -0.0874 -0.3304  0.4693
 3738SOL    HW120182  10.489   7.560   5.646 -0.1736 -1.1248 -0.1395
 3738SOL    HW220183  10.548   7.556   5.507 -1.3676  0.1004 -0.7017
 3739SOL     OW20184  11.947   2.736   3.314 -0.0060  0.1134 -0.0691
 3739SOL    HW120185  12.024   2.732   3.370  0.3205  0.8149 -0.4647
 3739SOL    HW220186  11.886   2.794   3.359  0.3931  0.9562 -0.5914
 3740SOL     OW20187   9.177   5.505   2.696 -0.3173 -0.1018  0.2993
 3740SOL    HW120188   9.261   5.504   2.741 -0.4669 -2.6542  0.6783
 3740SOL    HW220189   9.196   5.473   2.608 -0.8459 -0.5607  0.3449
 3741SOL     OW20190   6.650   7.395  11.473  0.1399 -0.0693 -0.6361
 3741SOL    HW120191   6.588   7.378  11.402 -0.0881  1.4277 -0.8319
 3741SOL    HW220192   6.712   7.459  11.436  1.5350 -1.1665 -0.2916
 3742SOL     OW20193   0.548   4.653   5.729  0.0458  0.5781  0.1257
 3742SOL    HW120194   0.594   4.681   5.809  0.1836 -0.6865  0.5079
 3742SOL    HW220195   0.478   4.596   5.760  1.5438 -1.9032 -0.7226
 3743SOL     OW20196   6.189  12.108   9.581 -0.1190 -0.2993  0.3458
 3743SOL    HW120197   6.284  12.118   9.583 -0.0915 -0.6476  1.2578
 3743SOL    HW220198   6.172  12.051   9.506  0.3466  0.1638 -0.1137
 3744SOL     OW20199  11.074   1.344   7.779  0.1940  0.3662  0.0058
 3744SOL    HW120200  11.082   1.398   7.700  0.3081 -0.6609 -0.7107
 3744SOL    HW220201  10.992   1.296   7.768  0.4678 -0.1703  0.2656
 3745SOL     OW20202   0.246   8.698  10.953  0.3844 -0.1811 -0.2316
 3745SOL    HW120203   0.178   8.654  11.004  0.8661 -0.0375  0.5553
 3745SOL    HW220204   0.263   8.640  10.879 -1.1872  0.1798 -0.9216
 3746SOL     OW20205  10.826   3.458  10.859 -0.0299 -0.1382 -0.0913
 3746SOL    HW120206  10.747   3.493  10.818  0.5371 -0.1397 -1.2137
 3746SOL    HW220207  10.895   3.521  10.836 -0.0147  0.9236  2.4830
 3747SOL     OW20208   5.608   7.747   6.707  0.0345 -0.1160  0.2067
 3747SOL    HW120209   5.539   7.696   6.664 -0.6756  1.1650 -0.2205
 3747SOL    HW220210   5.579   7.755   6.798  0.3970 -0.8716  0.3990
 3748SOL     OW20211   6.220  11.177   2.696  0.4243  0.3906 -0.4192
 3748SOL    HW120212   6.300  11.124   2.698 -0.8030 -1.7517  3.1187
 3748SOL    HW220213   6.243  11.257   2.744  0.4128 -0.5161  1.2027
 3749SOL     OW20214   4.504   6.759   8.446 -0.2524  0.2173  0.3804
 3749SOL    HW120215   4.561   6.687   8.419 -2.0757 -0.3861 -2.3656
 3749SOL    HW220216   4.434   6.717   8.497 -2.6341 -0.6196 -3.1770
 3750SOL     OW20217   8.205   1.672   5.266  0.3320 -0.5032 -0.4788
 3750SOL    HW120218   8.204   1.752   5.214 -1.7859 -0.7701 -0.9367
 3750SOL    HW220219   8.117   1.635   5.256  1.0855 -2.6385  0.1133
 3751SOL     OW20220  12.333  10.995   8.878 -0.5405 -0.7297  0.0542
 3751SOL    HW120221  12.408  11.013   8.821 -0.1794 -1.3903  0.3160
 3751SOL    HW220222  12.372  10.973   8.963 -1.0839  0.4655  0.6297
 3752SOL     OW20223   9.935  12.340   1.525  0.0798  0.0201  0.2612
 3752SOL    HW120224   9.906  12.394   1.599 -0.2370  0.2813 -0.0500
 3752SOL    HW220225   9.947  12.253   1.563  0.9719  0.3836  0.8504
 3753SOL     OW20226   6.434   4.768   0.603  0.6260 -0.1350 -0.3343
 3753SOL    HW120227   6.516   4.736   0.640  0.2246  0.8052  1.4800
 3753SOL    HW220228   6.456   4.852   0.565  0.2910  0.8045  1.4258
 3754SOL     OW20229   9.153   8.910   9.931  0.4294  0.1022  0.1174
 3754SOL    HW120230   9.210   8.894   9.856 -0.1410  0.8179 -0.4941
 3754SOL    HW220231   9.067   8.881   9.902  0.0270  1.2010  0.1480
 3755SOL     OW20232   5.175  11.785   2.376  0.7331  0.0192  0.4446
 3755SOL    HW120233   5.168  11.727   2.300  0.5275  1.6618 -0.8579
 3755SOL    HW220234   5.086  11.789   2.411  0.8178 -0.6968  0.7746
 3756SOL     OW20235   5.746   9.011   4.701  0.1469 -0.4216  0.2573
 3756SOL    HW120236   5.652   9.028   4.708 -0.2417 -1.7038 -1.2108
 3756SOL    HW220237   5.758   8.922   4.735  0.8963 -0.1396  0.7633
 3757SOL     OW20238   4.369  10.680   7.795  0.1128 -0.3360  0.3176
 3757SOL    HW120239   4.309  10.668   7.868 -0.3978 -2.5282 -0.4069
 3757SOL    HW220240   4.313  10.683   7.718  0.7527  0.4281 -0.1277
 3758SOL     OW20241   8.459  11.227  12.277  0.1938  0.0383 -0.0446
 3758SOL    HW120242   8.503  11.273  12.205 -0.4223  0.1556 -0.3450
 3758SOL    HW220243   8.403  11.294  12.317 -1.5736 -0.7035 -1.1823
 3759SOL     OW20244   2.734  12.190   6.360 -0.5826 -0.2490  0.1642
 3759SOL    HW120245   2.772  12.248   6.294  0.4009 -1.3442 -0.2847
 3759SOL    HW220246   2.733  12.104   6.318  0.6358 -1.0967  1.7490
 3760SOL     OW20247   6.710   8.102  10.814  0.3839  0.2374  0.6615
 3760SOL    HW120248   6.699   8.008  10.802 -0.0117  0.3802 -0.1525
 3760SOL    HW220249   6.635   8.141  10.770  0.8864  0.9671  0.4344
 3761SOL     OW20250   4.768   5.596   2.295  0.4042 -0.3595 -0.5119
 3761SOL    HW120251   4.795   5.617   2.206 -0.6625  0.1538 -0.7219
 3761SOL    HW220252   4.824   5.522   2.320  1.8797  0.5700 -0.9771
 3762SOL     OW20253   4.260   7.481  12.066  0.6465  0.4685 -0.3748
 3762SOL    HW120254   4.267   7.509  12.158  0.7265  0.5785 -0.4147
 3762SOL    HW220255   4.278   7.560  12.015 -1.0493  0.8192 -0.4934
 3763SOL     OW20256   3.535  10.048   7.726  0.5661 -0.4746 -0.0682
 3763SOL    HW120257   3.523   9.979   7.662 -1.6682 -0.5443  0.3528
 3763SOL    HW220258   3.542  10.003   7.810  1.6137 -0.2934 -0.0466
 3764SOL     OW20259   0.956   2.102   5.845 -0.1821 -0.1271  0.1764
 3764SOL    HW120260   1.000   2.153   5.914  0.1718  0.4094 -0.4367
 3764SOL    HW220261   1.027   2.072   5.789 -0.5759  0.6947 -0.7963
 3765SOL     OW20262   7.773   8.976   6.272  0.0288 -0.2899 -0.4308
 3765SOL    HW120263   7.841   8.929   6.321  0.1562  0.7744  0.4429
 3765SOL    HW220264   7.821   9.037   6.216 -0.1802  0.8879  0.6224
 3766SOL     OW20265   8.374   5.607   9.442  0.2041  0.2853 -0.3715
 3766SOL    HW120266   8.354   5.534   9.383 -0.1546  0.2735 -0.2399
 3766SOL    HW220267   8.295   5.662   9.438  0.6747  0.9361 -0.8741
 3767SOL     OW20268  10.536   1.561   8.696 -0.0412 -0.3480  0.3569
 3767SOL    HW120269  10.527   1.471   8.727  0.5006 -0.5745 -0.1252
 3767SOL    HW220270  10.583   1.553   8.613  0.7311  0.4302  0.7008
 3768SOL     OW20271   6.068  12.423   3.389  0.3354 -0.6317 -0.1304
 3768SOL    HW120272   6.132  12.475   3.437 -1.0367 -0.6136  1.8221
 3768SOL    HW220273   6.119  12.366   3.332  1.9553  1.1888 -0.5680
 3769SOL     OW20274   8.903   1.797   0.613 -0.4907 -0.2355  0.9495
 3769SOL    HW120275   8.918   1.852   0.691  1.8025 -0.3909  0.7051
 3769SOL    HW220276   8.933   1.710   0.639  0.3036 -0.2909 -0.0602
 3770SOL     OW20277   5.168   0.435   3.713  0.2688 -0.0815 -0.3883
 3770SOL    HW120278   5.120   0.355   3.731  1.3472 -1.0086 -1.4418
 3770SOL    HW220279   5.105   0.492   3.669 -0.4585 -0.4045  0.2151
 3771SOL     OW20280  10.954   5.228  10.798 -0.0336  0.6281 -0.4695
 3771SOL    HW120281  10.866   5.237  10.834  0.6945  0.0881  1.6158
 3771SOL    HW220282  10.941   5.191  10.711 -1.8859  1.2790 -0.5104
 3772SOL     OW20283   9.197   4.068   4.364 -0.0859 -0.1063 -0.3676
 3772SOL    HW120284   9.274   4.012   4.358  0.6856  0.7028  1.2316
 3772SOL    HW220285   9.134   4.016   4.415 -0.8651 -0.9801 -2.1211
 3773SOL     OW20286   2.854  12.107   2.422 -0.3272  0.3661 -0.0857
 3773SOL    HW120287   2.937  12.061   2.434 -0.4220 -0.0263 -0.8577
 3773SOL    HW220288   2.812  12.061   2.349 -0.5294  1.5231 -0.7190
 3774SOL     OW20289   1.620   1.780   5.915 -0.1722  0.0758 -0.3890
 3774SOL    HW120290   1.712   1.781   5.890  0.0083  1.2640  0.2795
 3774SOL    HW220291   1.578   1.725   5.849  1.1473 -1.2336 -0.1738
 3775SOL     OW20292   8.235   8.382   1.261  0.0781  0.4332 -0.2613
 3775SOL    HW120293   8.291   8.443   1.308 -0.6349  0.3178  0.7530
 3775SOL    HW220294   8.295   8.336   1.201  0.6310  2.0610 -1.0159
 3776SOL     OW20295  11.928   9.426  11.690  0.5838  0.0664  0.5593
 3776SOL    HW120296  11.968   9.498  11.643  0.3939 -1.5631 -2.2958
 3776SOL    HW220297  11.845   9.462  11.723  1.0358  1.4566  0.2202
 3777SOL     OW20298  11.428   8.332   0.428 -0.0991 -0.8360  0.3148
 3777SOL    HW120299  11.388   8.328   0.341  0.4352  0.8400 -0.0316
 3777SOL    HW220300  11.481   8.252   0.433  0.6928 -0.4510 -1.3122
 3778SOL     OW20301   3.507   7.945  10.801  0.2031 -0.0031 -0.5181
 3778SOL    HW120302   3.598   7.971  10.785  0.5316 -0.0926  1.0261
 3778SOL    HW220303   3.463   8.026  10.826  0.1090 -0.1261 -0.2791
 3779SOL     OW20304  11.699   7.842   3.716 -0.2753  0.1488 -0.2953
 3779SOL    HW120305  11.668   7.753   3.699 -2.2654  0.9395 -1.1357
 3779SOL    HW220306  11.674   7.891   3.638 -0.4514  1.7497  0.7355
 3780SOL     OW20307   2.997   7.915  11.568  0.0874 -0.0396  0.3544
 3780SOL    HW120308   2.915   7.951  11.534  0.7447  0.4746 -0.7440
 3780SOL    HW220309   3.064   7.973  11.534  1.0027 -1.1068  0.2947
 3781SOL     OW20310   1.953   7.883   6.153 -0.6639  0.7348 -0.4557
 3781SOL    HW120311   2.033   7.834   6.172 -1.4658 -1.2799 -1.8874
 3781SOL    HW220312   1.978   7.975   6.161  1.5524  0.1434 -0.0207
 3782SOL     OW20313   4.742   1.847   2.493  0.5556 -0.2692 -0.2090
 3782SOL    HW120314   4.768   1.756   2.478  0.9118 -0.1015 -0.6311
 3782SOL    HW220315   4.758   1.890   2.409  1.1187  0.3515  0.2108
 3783SOL     OW20316  10.503   0.364  11.732  0.2242  0.0815 -0.3467
 3783SOL    HW120317  10.562   0.400  11.665 -1.0898  0.0862 -1.5624
 3783SOL    HW220318  10.439   0.434  11.746 -1.5895 -1.2074 -1.7530
 3784SOL     OW20319   4.544   8.836   9.588 -0.1263  0.4653 -0.4617
 3784SOL    HW120320   4.540   8.845   9.683 -1.8176  0.9002 -0.5415
 3784SOL    HW220321   4.633   8.863   9.565  1.5813 -3.0363  1.2828
 3785SOL     OW20322   5.739   3.128   8.382 -0.2318  0.0806  0.3289
 3785SOL    HW120323   5.813   3.188   8.375  0.6168 -1.0252 -0.5250
 3785SOL    HW220324   5.770   3.059   8.440 -0.8143 -0.0929  0.4354
 3786SOL     OW20325  11.414   5.437  12.134  0.1955  0.4245 -0.1853
 3786SOL    HW120326  11.477   5.374  12.098  1.2143  2.3382 -1.9290
 3786SOL    HW220327  11.354   5.383  12.185  2.9608 -1.5983  1.2419
 3787SOL     OW20328   1.008  10.365  11.774  0.6384  0.0678 -0.0748
 3787SOL    HW120329   1.067  10.290  11.770  0.2653 -0.1613 -1.6818
 3787SOL    HW220330   0.936  10.336  11.830  0.2124 -0.9821 -1.1561
 3788SOL     OW20331   3.805   3.255   2.718 -0.0234  0.0954 -0.2734
 3788SOL    HW120332   3.748   3.202   2.773 -1.0226  0.1815 -1.1818
 3788SOL    HW220333   3.892   3.248   2.758 -1.0027  1.5354  2.3182
 3789SOL     OW20334   8.034   3.155   7.393 -0.1207  0.1207  0.1176
 3789SOL    HW120335   8.063   3.237   7.433 -0.1754  0.1646  0.0662
 3789SOL    HW220336   8.106   3.094   7.410  0.3817  0.4580 -0.7499
 3790SOL     OW20337   7.063   2.911  11.844 -1.0071  0.2537 -0.6075
 3790SOL    HW120338   7.051   2.904  11.749 -1.4544  0.1310 -0.5450
 3790SOL    HW220339   7.157   2.924  11.855 -0.9164  0.0257 -1.0571
 3791SOL     OW20340   1.850   3.375   6.588 -0.1358  0.1866  0.0533
 3791SOL    HW120341   1.929   3.410   6.548 -0.5365 -0.2061 -1.1218
 3791SOL    HW220342   1.783   3.442   6.572 -0.3223 -0.0140 -0.0052
 3792SOL     OW20343   3.769   4.965   1.254 -0.1978  0.2535 -0.0131
 3792SOL    HW120344   3.680   4.992   1.231 -0.1707  1.9022  1.5571
 3792SOL    HW220345   3.761   4.932   1.344  0.3526 -2.2463 -0.7917
 3793SOL     OW20346   9.960   4.281   7.978  0.3807  0.0756 -0.6795
 3793SOL    HW120347   9.901   4.227   8.030  1.3775 -0.3885 -0.0033
 3793SOL    HW220348   9.944   4.370   8.008  0.5749 -0.1347  0.0623
 3794SOL     OW20349   3.692   5.406   3.467 -0.1328 -0.4412  0.0151
 3794SOL    HW120350   3.701   5.334   3.529  1.7697 -0.6282 -0.3888
 3794SOL    HW220351   3.698   5.364   3.381 -0.2319  0.0577 -0.2401
 3795SOL     OW20352  10.125  12.084   9.879  0.4952  0.1994  0.0097
 3795SOL    HW120353  10.136  12.036   9.961  0.5007  1.1327  0.5721
 3795SOL    HW220354  10.179  12.163   9.890 -0.7709  1.1286 -0.2263
 3796SOL     OW20355   5.479   3.295   2.802 -0.4183  0.3297  0.3218
 3796SOL    HW120356   5.457   3.204   2.824  0.3303 -0.0041 -0.2756
 3796SOL    HW220357   5.394   3.338   2.791 -0.7752 -0.4216  0.1028
 3797SOL     OW20358  12.468  10.777   0.572  0.2541  0.2000 -0.0281
 3797SOL    HW120359  12.558  10.799   0.551  0.3114 -0.9044 -0.9971
 3797SOL    HW220360  12.469  10.683   0.589 -0.4114  0.4580  1.7047
 3798SOL     OW20361   4.077   0.844  11.144  0.8567  0.3296 -0.4770
 3798SOL    HW120362   4.020   0.916  11.172  1.4824  1.0609 -1.0153
 3798SOL    HW220363   4.142   0.887  11.089  0.2448 -0.9006 -2.2299
 3799SOL     OW20364   5.447   8.029   8.647  0.1122 -0.9149 -0.0970
 3799SOL    HW120365   5.471   7.936   8.644  1.7999 -0.4857 -2.3489
 3799SOL    HW220366   5.514   8.069   8.703 -1.5419 -1.2021  2.2375
 3800SOL     OW20367   0.314   7.830   6.168  0.3613  0.0472  0.4146
 3800SOL    HW120368   0.234   7.855   6.122  0.1172 -0.2840  0.6531
 3800SOL    HW220369   0.322   7.893   6.240 -0.0081 -0.2735  0.7436
 3801SOL     OW20370   1.159   1.711   5.952 -0.0361 -0.1370 -0.7287
 3801SOL    HW120371   1.071   1.683   5.981  0.2575 -0.6708 -0.3185
 3801SOL    HW220372   1.218   1.655   6.002  0.5821  1.1323 -0.0013
 3802SOL     OW20373   3.898   9.864   7.789  0.2618 -0.2367 -0.0855
 3802SOL    HW120374   3.806   9.841   7.795  0.1221  0.2922 -0.0834
 3802SOL    HW220375   3.945   9.781   7.796 -0.1675 -0.3985  1.0698
 3803SOL     OW20376   8.521   6.191  10.948  0.0015 -0.6027  0.1058
 3803SOL    HW120377   8.484   6.277  10.966  3.2724  0.9308  0.3206
 3803SOL    HW220378   8.463   6.129  10.993 -1.7374  1.5741  1.0155
 3804SOL     OW20379  11.681   8.080   0.866  0.0828  0.0521 -0.6513
 3804SOL    HW120380  11.710   8.111   0.779 -1.2767  0.6877 -0.9048
 3804SOL    HW220381  11.625   8.005   0.847  1.3517 -1.0678 -0.1695
 3805SOL     OW20382   6.361   9.017   9.312 -0.3228 -0.3020  0.4561
 3805SOL    HW120383   6.420   9.064   9.253  0.0356  0.7766  1.6465
 3805SOL    HW220384   6.418   8.970   9.372 -0.6850 -1.1339  0.1561
 3806SOL     OW20385   3.119   2.370   3.349 -0.3066 -0.0625  1.1032
 3806SOL    HW120386   3.172   2.443   3.382 -0.0302  0.0881  0.3443
 3806SOL    HW220387   3.182   2.300   3.333 -0.4145 -0.0887  0.7802
 3807SOL     OW20388   2.832   9.731   5.482  0.0297 -0.4012 -0.1445
 3807SOL    HW120389   2.850   9.659   5.543 -1.1936 -1.4662 -0.9936
 3807SOL    HW220390   2.900   9.723   5.416  1.1731  0.5654  0.8606
 3808SOL     OW20391   1.329   3.464   4.062 -0.3252 -0.9478  0.1910
 3808SOL    HW120392   1.255   3.471   4.123 -1.5362 -1.1609 -1.1874
 3808SOL    HW220393   1.405   3.488   4.114 -1.1253 -2.2705  2.1055
 3809SOL     OW20394  12.037   9.581   0.509 -0.4345 -0.3928  0.0291
 3809SOL    HW120395  12.087   9.576   0.591 -0.2139 -0.0482 -0.0850
 3809SOL    HW220396  11.972   9.649   0.525 -0.1673 -0.0842 -0.2077
 3810SOL     OW20397   0.908   8.628   5.667  0.0620 -0.1568  0.4313
 3810SOL    HW120398   0.860   8.681   5.603 -0.2878 -0.4221  0.4706
 3810SOL    HW220399   0.840   8.600   5.730 -0.0641 -1.9816 -0.4599
 3811SOL     OW20400   0.140  12.590   3.797  0.2142 -0.0369  0.7305
 3811SOL    HW120401   0.107  12.622   3.881 -0.6860  0.9207  0.0333
 3811SOL    HW220402   0.158  12.669   3.746 -4.3835 -0.3459 -1.9530
 3812SOL     OW20403  11.557   5.519   4.739  0.7194  0.6274  0.1168
 3812SOL    HW120404  11.482   5.471   4.774  0.7073  1.4859  1.3417
 3812SOL    HW220405  11.542   5.522   4.645 -0.8875  0.9238  0.3539
 3813SOL     OW20406   2.001   7.094   0.435 -0.2980 -0.1730 -0.2064
 3813SOL    HW120407   2.045   7.012   0.413  0.2789 -0.1438  0.8028
 3813SOL    HW220408   1.996   7.094   0.530 -1.5700  0.3092 -0.2563
 3814SOL     OW20409   5.507   2.010   5.616 -0.0130 -0.0892 -0.7742
 3814SOL    HW120410   5.549   2.044   5.696  2.0439 -0.7266 -1.5022
 3814SOL    HW220411   5.440   1.950   5.648 -0.0473  0.5711  0.4732
 3815SOL     OW20412   0.199   0.601   6.530  0.0845 -0.2252 -0.8737
 3815SOL    HW120413   0.108   0.611   6.557  0.1141  0.0198 -0.8644
 3815SOL    HW220414   0.244   0.570   6.609  0.5532  2.3750 -0.0016
 3816SOL     OW20415  12.077   6.732   5.635 -0.0525 -0.0137  0.3861
 3816SOL    HW120416  12.160   6.704   5.675  0.4544  0.4182 -0.3418
 3816SOL    HW220417  12.058   6.666   5.569  0.5532  0.7089 -0.5439
 3817SOL     OW20418   7.535   2.378  10.731  0.2842 -0.2723  0.3283
 3817SOL    HW120419   7.543   2.309  10.797  1.0086  0.2134  0.7595
 3817SOL    HW220420   7.615   2.370  10.679 -0.3256 -0.7139 -0.5620
 3818SOL     OW20421  11.033   1.666   1.371 -0.0461  0.3809 -0.6822
 3818SOL    HW120422  11.070   1.582   1.397  0.4866  0.7262 -0.3241
 3818SOL    HW220423  11.067   1.728   1.435 -0.1968  0.9232 -1.1253
 3819SOL     OW20424   5.220   9.967   1.781 -0.0115 -0.0154 -0.5868
 3819SOL    HW120425   5.154  10.020   1.737  1.6085  1.3446 -1.4836
 3819SOL    HW220426   5.262  10.027   1.842  0.5940 -0.7781 -0.2291
 3820SOL     OW20427  12.105   5.787   8.186 -0.0561 -0.3043  0.1321
 3820SOL    HW120428  12.030   5.743   8.144  0.5777 -0.1392 -1.2457
 3820SOL    HW220429  12.121   5.736   8.265 -2.6312  0.6281  1.3657
 3821SOL     OW20430   5.590  10.439   8.860 -0.5373  0.1086 -0.3364
 3821SOL    HW120431   5.591  10.385   8.781  3.0123 -0.8913  0.2306
 3821SOL    HW220432   5.511  10.411   8.907  0.4485 -3.8502 -0.6683
 3822SOL     OW20433  10.881   7.527   5.219  0.3543  0.0731 -0.1463
 3822SOL    HW120434  10.882   7.465   5.146 -0.5239  0.7560 -0.7523
 3822SOL    HW220435  10.966   7.571   5.213  1.7185 -2.1567  1.2947
 3823SOL     OW20436   9.152   9.830   9.523 -0.2260 -0.4326  0.5869
 3823SOL    HW120437   9.074   9.803   9.571 -0.7643  0.2624  0.1305
 3823SOL    HW220438   9.222   9.776   9.558 -0.9957 -1.3793  0.7035
 3824SOL     OW20439   3.800   7.551   7.754  0.5192  0.1630 -0.0511
 3824SOL    HW120440   3.740   7.562   7.827 -1.7587 -1.2970 -1.5969
 3824SOL    HW220441   3.801   7.637   7.711 -0.9434  0.0661 -0.3242
 3825SOL     OW20442   5.234  10.203   0.462 -0.3641  0.0750 -0.3715
 3825SOL    HW120443   5.182  10.270   0.507 -2.0136 -1.2670 -0.2115
 3825SOL    HW220444   5.170  10.152   0.413  0.8138 -1.5956 -0.2236
 3826SOL     OW20445  12.050   9.846   1.574 -0.7496  0.0185  0.3215
 3826SOL    HW120446  12.054   9.938   1.599 -1.4465 -0.2105  1.3333
 3826SOL    HW220447  12.118   9.804   1.628 -0.4929 -0.0737 -0.0722
 3827SOL     OW20448   7.707   0.157   7.555 -0.0459 -0.3197 -0.1848
 3827SOL    HW120449   7.742   0.232   7.603 -0.2766 -0.1335 -0.3050
 3827SOL    HW220450   7.744   0.165   7.467 -1.0631  0.3685 -0.5705
 3828SOL     OW20451  10.090  10.961   0.918 -0.2454  0.1243  0.2542
 3828SOL    HW120452  10.061  10.975   1.008  2.0702 -1.4382  1.3378
 3828SOL    HW220453  10.172  11.009   0.911 -0.2854  0.0415 -0.9516
 3829SOL     OW20454   4.993  10.388   3.601 -0.1779 -0.0756  0.2598
 3829SOL    HW120455   4.950  10.339   3.532  0.7985 -1.5137  0.6289
 3829SOL    HW220456   4.987  10.332   3.678 -0.8399  1.2952  1.2564
 3830SOL     OW20457   0.206   4.365   3.658 -0.7442 -0.4052  0.2775
 3830SOL    HW120458   0.185   4.371   3.751  0.4336 -0.6263  0.5789
 3830SOL    HW220459   0.130   4.322   3.619 -0.3562 -2.3418  1.5075
 3831SOL     OW20460   7.142  11.560   8.850 -0.3554  0.2840 -0.1381
 3831SOL    HW120461   7.122  11.596   8.937 -3.6574 -1.8582  0.1634
 3831SOL    HW220462   7.140  11.635   8.792  0.0864  1.5132  1.3546
 3832SOL     OW20463   5.634   8.359   5.738 -0.1003  0.2064  0.3370
 3832SOL    HW120464   5.669   8.433   5.789 -0.5457 -0.7723  2.1086
 3832SOL    HW220465   5.551   8.392   5.703 -0.4293  0.4750  1.3334
 3833SOL     OW20466  11.964   3.001   1.468  0.1450 -0.1658 -0.0581
 3833SOL    HW120467  11.988   3.088   1.499  0.4366  0.5012 -1.9937
 3833SOL    HW220468  11.872   3.010   1.442 -0.3155 -0.9086  1.2108
 3834SOL     OW20469   5.835   4.833   7.996 -0.2782  0.1005  0.0327
 3834SOL    HW120470   5.915   4.818   8.046 -0.6648  1.3917  1.0930
 3834SOL    HW220471   5.849   4.915   7.950 -0.5566 -0.2533 -0.7029
 3835SOL     OW20472   1.886   7.417   9.816 -0.4068  0.1853 -0.2917
 3835SOL    HW120473   1.878   7.348   9.751 -1.1005  1.4569 -1.5982
 3835SOL    HW220474   1.797   7.435   9.845  0.0375 -2.8021  3.8059
 3836SOL     OW20475   4.845   3.500   4.601 -0.1820 -0.1605  0.0612
 3836SOL    HW120476   4.762   3.504   4.648 -0.9369  0.9408 -1.2804
 3836SOL    HW220477   4.820   3.498   4.508  1.2795 -0.5419 -0.3524
 3837SOL     OW20478   7.266   5.837   7.920 -0.0504 -0.3243 -0.1848
 3837SOL    HW120479   7.294   5.901   7.855  0.2061 -1.0901 -0.8391
 3837SOL    HW220480   7.203   5.781   7.874 -1.4038  0.3301  0.7898
 3838SOL     OW20481  11.558  11.536   7.207 -0.0888  0.3594 -0.4839
 3838SOL    HW120482  11.538  11.625   7.234  0.2151  0.2945 -0.0377
 3838SOL    HW220483  11.493  11.481   7.251  0.4781  0.2425  0.2329
 3839SOL     OW20484   1.678   3.420   5.608 -0.0796  0.2836  1.0919
 3839SOL    HW120485   1.738   3.479   5.654  1.0778 -0.7355  0.9432
 3839SOL    HW220486   1.676   3.341   5.662 -0.0304 -0.2942  0.2704
 3840SOL     OW20487   6.511   9.674   7.223  0.4007 -0.0937 -1.3424
 3840SOL    HW120488   6.544   9.756   7.260  1.6997 -0.7918 -0.8779
 3840SOL    HW220489   6.494   9.695   7.131 -1.2923  1.2287 -0.7761
 3841SOL     OW20490   1.065   1.488   8.367 -0.1747  0.2357  0.5285
 3841SOL    HW120491   1.145   1.456   8.409  0.4694 -0.7254 -1.3534
 3841SOL    HW220492   1.005   1.504   8.440  0.8680 -1.4447  1.8194
 3842SOL     OW20493  11.330  10.312   8.185 -0.0229 -0.3975 -0.3965
 3842SOL    HW120494  11.367  10.399   8.194  2.0872 -1.1148 -1.5399
 3842SOL    HW220495  11.345  10.288   8.093 -0.3243 -2.0677 -0.0510
 3843SOL     OW20496   7.912   8.584   8.313  0.4763  0.3877 -0.3311
 3843SOL    HW120497   7.901   8.493   8.288 -1.5653  0.6485 -0.5498
 3843SOL    HW220498   7.850   8.632   8.259 -2.5231  1.2306  3.4238
 3844SOL     OW20499   8.591   0.898   9.295  0.3779  0.3676  0.2579
 3844SOL    HW120500   8.532   0.972   9.281 -0.3734  0.3088  2.6359
 3844SOL    HW220501   8.678   0.937   9.303  0.6210  0.5360 -2.4441
 3845SOL     OW20502   9.309   5.613  11.922 -0.4377 -0.4049 -0.1345
 3845SOL    HW120503   9.236   5.666  11.890 -0.3631  0.0831  0.4891
 3845SOL    HW220504   9.303   5.618  12.017  2.1450  2.1977  0.0523
 3846SOL     OW20505   4.760   2.185   2.663 -0.1537  0.2153 -0.0921
 3846SOL    HW120506   4.811   2.107   2.687  0.4335  1.4563  3.2630
 3846SOL    HW220507   4.822   2.240   2.614  0.4761 -0.0603  0.3734
 3847SOL     OW20508   3.847   8.801   2.227  0.6934  0.0959  0.1058
 3847SOL    HW120509   3.831   8.771   2.316  0.2491  0.1591  0.0501
 3847SOL    HW220510   3.770   8.854   2.205  1.3209  1.0361  0.0984
 3848SOL     OW20511   2.405   6.708  11.619  0.0089  0.4108 -0.1517
 3848SOL    HW120512   2.435   6.783  11.568 -0.8307 -0.2892 -1.7558
 3848SOL    HW220513   2.485   6.668  11.653  0.5441  1.2754 -0.3782
 3849SOL     OW20514  12.592   7.031   8.594  0.0454 -0.0566  0.1180
 3849SOL    HW120515  12.553   6.963   8.540 -0.3534  0.1602  0.1216
 3849SOL    HW220516  12.607   7.104   8.533 -1.8878  0.7801  0.5667
 3850SOL     OW20517   6.135   2.722   4.152 -0.2618 -0.3896  0.1605
 3850SOL    HW120518   6.042   2.739   4.164 -0.6967 -0.5682 -2.4291
 3850SOL    HW220519   6.154   2.648   4.210 -1.3203  0.6229  1.8832
 3851SOL     OW20520   2.516   8.875   1.294  0.0044 -0.1165 -0.3109
 3851SOL    HW120521   2.530   8.840   1.206 -0.2543  1.2886 -0.9350
 3851SOL    HW220522   2.591   8.845   1.344 -0.2442 -1.6082 -0.7825
 3852SOL     OW20523  11.684  10.468   0.563 -0.0786 -0.6028  0.3148
 3852SOL    HW120524  11.602  10.430   0.594 -1.3160  2.3380  0.9565
 3852SOL    HW220525  11.697  10.546   0.617  4.1563 -1.8209  1.5000
 3853SOL     OW20526  11.132  10.673   6.437  0.4839 -0.2370 -0.1524
 3853SOL    HW120527  11.063  10.660   6.372  0.3110  0.1415 -0.0482
 3853SOL    HW220528  11.214  10.671   6.387  0.2742  1.9640 -0.7070
 3854SOL     OW20529  11.773   8.744   1.270  0.6497  0.1630  0.1770
 3854SOL    HW120530  11.728   8.782   1.346  1.1678  2.6903 -0.6894
 3854SOL    HW220531  11.863   8.730   1.301  0.6831  0.5209  0.2510
 3855SOL     OW20532   2.890   0.981   8.456  0.3368  0.2116  0.1727
 3855SOL    HW120533   2.930   0.896   8.444 -0.7496  0.0291 -2.8059
 3855SOL    HW220534   2.833   0.993   8.380 -0.1131  3.2866  0.8369
 3856SOL     OW20535   8.154   3.173   6.108  0.4962  0.4288  0.3103
 3856SOL    HW120536   8.059   3.186   6.108  0.2363 -1.2549  0.2756
 3856SOL    HW220537   8.165   3.079   6.126  2.1482  0.5588  0.0908
 3857SOL     OW20538  10.963   7.801   4.814 -0.1413  0.2035  0.1105
 3857SOL    HW120539  10.993   7.731   4.755 -0.4661  0.9682 -0.9977
 3857SOL    HW220540  10.871   7.780   4.830  0.2548 -0.6857  1.3784
 3858SOL     OW20541   4.210   7.040   0.781  0.5791 -0.2196  0.5451
 3858SOL    HW120542   4.134   7.092   0.751  0.7930 -1.1921 -1.9440
 3858SOL    HW220543   4.175   6.984   0.850 -0.9450 -0.4397 -0.3474
 3859SOL     OW20544   1.085  10.721   3.556 -0.1962  0.0947  0.0062
 3859SOL    HW120545   1.057  10.717   3.464  0.6365  0.7462 -0.2875
 3859SOL    HW220546   1.145  10.795   3.559 -1.5598  1.2152  1.4533
 3860SOL     OW20547   9.088   1.840   9.048 -0.4508 -0.2061  0.7250
 3860SOL    HW120548   9.078   1.750   9.017 -0.3841 -0.2208  0.7472
 3860SOL    HW220549   9.171   1.841   9.094  0.0513  0.1160 -0.1583
 3861SOL     OW20550  10.949   6.792  12.093 -0.0570 -0.7000  0.0552
 3861SOL    HW120551  10.899   6.862  12.135  0.7336 -0.2056  0.1851
 3861SOL    HW220552  10.929   6.714  12.146  0.8731 -0.0969  1.3441
 3862SOL     OW20553  12.090   7.286   4.335 -0.4761 -0.4303 -0.0367
 3862SOL    HW120554  12.181   7.261   4.352 -0.2414  0.3016 -0.1808
 3862SOL    HW220555  12.044   7.203   4.325  0.1596 -0.8108  0.1286
 3863SOL     OW20556   0.410   2.762  11.703 -0.5840  0.0042  0.0325
 3863SOL    HW120557   0.474   2.833  11.709 -2.5627  1.7819  1.8289
 3863SOL    HW220558   0.452   2.688  11.746  0.2746  1.1360  1.2256
 3864SOL     OW20559  10.583   7.076  12.457 -0.1677  0.3640  0.3438
 3864SOL    HW120560  10.619   7.108  12.374  0.0189 -0.1806  0.2117
 3864SOL    HW220561  10.651   7.097  12.521 -0.3529  0.8710  0.3771
 3865SOL     OW20562   1.574   7.237   4.652  0.0553  0.0684  0.0873
 3865SOL    HW120563   1.482   7.211   4.639  0.2372 -0.7681  0.3868
 3865SOL    HW220564   1.611   7.237   4.564  0.4174 -2.1991  0.1861
 3866SOL     OW20565   9.363  10.607   2.371  0.3636 -0.7262 -0.1910
 3866SOL    HW120566   9.419  10.651   2.435 -0.1690 -1.5142  0.8353
 3866SOL    HW220567   9.407  10.621   2.287  0.8773  0.6554  0.2765
 3867SOL     OW20568   3.368   2.100   4.958 -0.2538 -0.2162  0.1387
 3867SOL    HW120569   3.363   2.095   5.054  0.0043 -1.4869  0.1055
 3867SOL    HW220570   3.414   2.182   4.941  0.6782 -0.4949  1.1511
 3868SOL     OW20571   1.651   3.591   6.546  0.1660  0.8393  0.2619
 3868SOL    HW120572   1.571   3.607   6.595  1.1626  3.0318  1.3092
 3868SOL    HW220573   1.717   3.648   6.586  2.3412 -1.0187 -0.4209
 3869SOL     OW20574   5.404  12.000   7.064  0.6712 -0.2504  0.1381
 3869SOL    HW120575   5.467  11.945   7.112 -0.3635 -1.3971  0.2465
 3869SOL    HW220576   5.335  11.939   7.038 -0.5911  1.0336  0.3667
 3870SOL     OW20577  10.795   0.492   5.402  0.1602 -0.8666 -0.1291
 3870SOL    HW120578  10.880   0.463   5.369 -0.5214 -2.5288 -0.5620
 3870SOL    HW220579  10.759   0.545   5.331  0.2523 -1.3501 -0.5438
 3871SOL     OW20580   4.397   0.444   5.308  0.7152  0.1101  0.4430
 3871SOL    HW120581   4.344   0.384   5.255  1.3276 -4.5263  4.4316
 3871SOL    HW220582   4.487   0.414   5.295  0.8544 -1.6098  4.1475
 3872SOL     OW20583   4.441   2.506   9.386  0.8921  0.6402 -0.0703
 3872SOL    HW120584   4.362   2.551   9.414 -0.1082 -1.8310  1.3577
 3872SOL    HW220585   4.455   2.536   9.296 -0.7032  2.3526  0.2057
 3873SOL     OW20586   0.988   4.718   6.738  0.2145 -0.2396 -0.1591
 3873SOL    HW120587   0.993   4.812   6.755  1.3788  0.1967 -2.5845
 3873SOL    HW220588   1.070   4.683   6.773  1.2906  0.2141 -2.0820
 3874SOL     OW20589   7.867   4.860   3.174 -0.2903 -0.0043  0.0082
 3874SOL    HW120590   7.882   4.868   3.268 -1.6475  0.1085  0.2352
 3874SOL    HW220591   7.911   4.778   3.149 -0.4125 -0.3276  0.8385
 3875SOL     OW20592   0.716   6.202  10.043  0.2235 -0.5777 -0.0449
 3875SOL    HW120593   0.651   6.250   9.993 -1.5197 -2.5848  0.1735
 3875SOL    HW220594   0.794   6.203   9.988 -1.1799 -1.4882 -2.1739
 3876SOL     OW20595  10.295   7.194   8.607  0.0323  0.4311  0.0614
 3876SOL    HW120596  10.350   7.124   8.571 -1.1271 -0.4063 -0.1244
 3876SOL    HW220597  10.347   7.229   8.680  0.6715 -0.5901  0.1243
 3877SOL     OW20598   4.120   7.172   3.160  0.2566  0.6202 -0.1445
 3877SOL    HW120599   4.210   7.171   3.129  0.1915 -0.8600 -0.3183
 3877SOL    HW220600   4.069   7.202   3.085  0.4658  0.2147 -0.4534
 3878SOL     OW20601   1.201   0.988   3.095  0.5305  0.3214  0.0316
 3878SOL    HW120602   1.225   1.049   3.024  1.0124  1.0346  0.7961
 3878SOL    HW220603   1.117   1.022   3.126 -0.4325 -0.8687 -1.1645
 3879SOL     OW20604   9.613   3.230   6.953 -0.3680  0.3993 -0.3804
 3879SOL    HW120605   9.608   3.136   6.969 -0.1274  0.8094  2.7880
 3879SOL    HW220606   9.529   3.252   6.913 -1.2920 -0.8910  0.7505
 3880SOL     OW20607   2.390  11.470   9.173 -0.6335  0.1356 -0.4581
 3880SOL    HW120608   2.372  11.564   9.169  0.5954  0.3626 -1.1425
 3880SOL    HW220609   2.454  11.461   9.244  1.5631  0.2752 -2.2789
 3881SOL     OW20610  10.092   3.584   9.300 -0.2327 -0.5956 -0.6230
 3881SOL    HW120611  10.066   3.499   9.263 -2.0284  0.4446 -1.9111
 3881SOL    HW220612  10.119   3.635   9.225 -0.1703  0.3222  0.0136
 3882SOL     OW20613  10.548   6.043   8.671  0.0233 -0.1209 -0.6380
 3882SOL    HW120614  10.550   6.078   8.760  2.2985  2.1216 -1.4570
 3882SOL    HW220615  10.500   6.108   8.620  1.6857  0.4096 -1.6205
 3883SOL     OW20616   7.737   3.482   0.698  0.1523 -0.2728  0.1137
 3883SOL    HW120617   7.758   3.494   0.791 -1.4572  1.3565  0.3305
 3883SOL    HW220618   7.659   3.425   0.698  0.0848 -0.1843 -0.2321
 3884SOL     OW20619  10.124   9.620   1.906  0.0669 -0.1217  0.9820
 3884SOL    HW120620  10.218   9.609   1.898  0.1822  1.4234 -0.2357
 3884SOL    HW220621  10.090   9.531   1.919  1.6846 -0.6646  1.7395
 3885SOL     OW20622   0.926   8.489   5.004 -0.0702 -0.7612  0.1499
 3885SOL    HW120623   0.913   8.413   5.062 -0.6944 -0.8144 -0.0536
 3885SOL    HW220624   0.838   8.516   4.980  0.1795 -0.8957 -0.9873
 3886SOL     OW20625   1.010   7.095   8.867 -0.8026  0.0543 -0.0590
 3886SOL    HW120626   0.989   7.034   8.797 -1.7756  2.2588 -1.8039
 3886SOL    HW220627   0.925   7.114   8.908 -0.4740  0.0788  0.6237
 3887SOL     OW20628   4.636  10.994   0.073 -0.1431 -0.0129 -0.0502
 3887SOL    HW120629   4.612  10.902   0.060 -2.4335  0.8262 -2.7549
 3887SOL    HW220630   4.559  11.033   0.116  0.1850  0.9419 -0.3009
 3888SOL     OW20631   3.480   4.994   9.822 -0.8342 -0.4695 -0.1646
 3888SOL    HW120632   3.515   4.918   9.775  1.7431  0.5285  0.0188
 3888SOL    HW220633   3.508   5.069   9.770 -2.4056  0.4487  0.2491
 3889SOL     OW20634   7.780   2.082  10.318 -0.1734  0.3425  0.5971
 3889SOL    HW120635   7.839   2.022  10.364  1.8659  1.1653 -0.7580
 3889SOL    HW220636   7.836   2.156  10.293 -1.7844  1.1564 -0.8378
 3890SOL     OW20637   0.432   8.772   6.112  0.3281  0.1036  0.6699
 3890SOL    HW120638   0.494   8.700   6.111  1.4711  1.0314  1.5570
 3890SOL    HW220639   0.362   8.743   6.171 -0.1683 -0.9919 -0.4267
 3891SOL     OW20640   7.443  11.815  11.743  0.3721 -0.4399  0.3233
 3891SOL    HW120641   7.418  11.794  11.653 -3.0833 -1.6049  1.4070
 3891SOL    HW220642   7.394  11.894  11.765 -1.2219 -1.8099  2.0283
 3892SOL     OW20643   9.177  11.457   8.612 -0.0713 -0.3883 -0.6100
 3892SOL    HW120644   9.233  11.393   8.567 -1.3348 -0.8284 -1.6234
 3892SOL    HW220645   9.156  11.415   8.695  0.7015 -0.4196 -0.4191
 3893SOL     OW20646   6.442   1.145   0.256 -0.1003  0.2128  0.5042
 3893SOL    HW120647   6.441   1.241   0.250 -1.4621  0.2482  0.9117
 3893SOL    HW220648   6.488   1.127   0.338  1.5021  0.4355 -0.3057
 3894SOL     OW20649   8.348   5.144  11.675  0.4227 -0.7911 -0.3515
 3894SOL    HW120650   8.419   5.180  11.727 -1.0357 -0.8207  1.7567
 3894SOL    HW220651   8.302   5.220  11.641 -0.8038 -0.6544  1.5158
 3895SOL     OW20652   6.532   5.263  11.026  0.0026 -0.1107  0.0311
 3895SOL    HW120653   6.575   5.320  11.090  1.6045  0.1124 -1.1692
 3895SOL    HW220654   6.483   5.323  10.970 -0.1089 -0.1419  0.0956
 3896SOL     OW20655  10.045   7.747   8.775 -0.3217 -0.2296  0.1365
 3896SOL    HW120656  10.016   7.666   8.733  0.1944 -0.8186  0.8845
 3896SOL    HW220657  10.061   7.722   8.866 -2.1110  1.1669  0.8980
 3897SOL     OW20658  11.908   3.902  12.145 -0.0118 -0.2808  0.4082
 3897SOL    HW120659  11.843   3.848  12.100 -0.9641  0.8282  0.4004
 3897SOL    HW220660  11.914   3.981  12.092  2.4742 -0.9312 -0.4110
 3898SOL     OW20661   2.274   4.307   5.598 -0.3718 -0.2387  0.4389
 3898SOL    HW120662   2.247   4.248   5.668  1.1766 -0.2121  1.1236
 3898SOL    HW220663   2.267   4.394   5.637 -1.1179 -0.0898 -0.0221
 3899SOL     OW20664   2.245   4.377   1.184  0.1118  0.2655  0.0142
 3899SOL    HW120665   2.275   4.287   1.171 -0.1746  0.2817 -0.8753
 3899SOL    HW220666   2.150   4.373   1.169  0.0995  0.7155 -0.0538
 3900SOL     OW20667   7.001   0.815   2.463  0.0759 -0.2796  0.1754
 3900SOL    HW120668   6.937   0.773   2.521  0.4366  0.7104  1.3185
 3900SOL    HW220669   7.073   0.840   2.520  0.4880  0.6481 -0.7201
 3901SOL     OW20670  11.571   2.900   4.411  0.0271 -0.8929 -0.0752
 3901SOL    HW120671  11.623   2.971   4.450 -0.3866 -0.6593  0.0499
 3901SOL    HW220672  11.613   2.884   4.327 -1.3675  1.2329 -1.2610
 3902SOL     OW20673   8.046   5.921   6.983 -0.0892 -0.2284  0.2641
 3902SOL    HW120674   8.023   5.861   7.053 -0.2439 -1.3650 -0.7212
 3902SOL    HW220675   7.961   5.952   6.950 -0.0055  0.7732  0.9499
 3903SOL     OW20676   9.659   5.486   5.279 -0.1027 -0.0552  0.4703
 3903SOL    HW120677   9.573   5.512   5.245  0.6378  0.4484 -1.0609
 3903SOL    HW220678   9.648   5.393   5.301 -0.3882 -0.6945 -2.0369
 3904SOL     OW20679   5.312   3.497  10.841  0.1431  0.0000 -0.1957
 3904SOL    HW120680   5.290   3.407  10.821 -0.2834 -0.2280  1.1989
 3904SOL    HW220681   5.338   3.535  10.757 -2.7779 -0.4957 -1.4373
 3905SOL     OW20682   9.148   7.428   4.358  0.3108 -0.0364 -0.0702
 3905SOL    HW120683   9.172   7.520   4.345  1.0867 -0.1262  0.6336
 3905SOL    HW220684   9.163   7.387   4.272  2.3720  0.0085  0.2137
 3906SOL     OW20685   4.340   4.022   5.175 -0.4490  0.1939 -0.3398
 3906SOL    HW120686   4.387   3.994   5.254 -1.4145  1.1142  0.5791
 3906SOL    HW220687   4.409   4.057   5.118  0.0966  0.8155  0.6646
 3907SOL     OW20688  12.302   9.397  11.715 -0.2941 -0.9139 -0.1635
 3907SOL    HW120689  12.253   9.359  11.642  0.8634 -1.7195 -0.5535
 3907SOL    HW220690  12.389   9.357  11.709  0.5410  0.7361  0.2914
 3908SOL     OW20691   9.091  11.728  11.024 -0.4274 -0.4181 -0.7470
 3908SOL    HW120692   9.053  11.805  10.982  0.1764  0.2841 -0.0148
 3908SOL    HW220693   9.035  11.655  10.995 -0.4839  0.1530 -2.1427
 3909SOL     OW20694   6.480   1.468   2.760 -0.2450 -0.3697  0.7594
 3909SOL    HW120695   6.468   1.555   2.799  4.1968  0.9986 -0.2654
 3909SOL    HW220696   6.444   1.476   2.672  0.3699  0.6256  0.5726
 3910SOL     OW20697   1.340   2.549  11.597  0.1721 -0.0948  0.2716
 3910SOL    HW120698   1.256   2.588  11.618  0.1209  0.4704 -0.9254
 3910SOL    HW220699   1.390   2.554  11.679 -1.0266 -0.6623  1.0527
 3911SOL     OW20700   1.668   7.986   4.179 -0.2457  0.4621 -0.1613
 3911SOL    HW120701   1.676   7.908   4.234 -0.4128  2.0552  2.2425
 3911SOL    HW220702   1.758   8.017   4.168 -0.2952  0.6547 -0.0205
 3912SOL     OW20703   6.671   8.799  11.565 -0.0779  0.0406 -0.2223
 3912SOL    HW120704   6.684   8.805  11.659 -1.0855  0.2872 -0.0899
 3912SOL    HW220705   6.576   8.798  11.553  0.0313 -0.3722 -1.2125
 3913SOL     OW20706   1.824   0.048   9.955 -0.6841 -0.0918  0.4649
 3913SOL    HW120707   1.803   0.025   9.864 -1.6922  0.5732  0.5151
 3913SOL    HW220708   1.842   0.141   9.953  0.6830 -0.3318  0.7301
 3914SOL     OW20709   3.760   5.119   5.115 -0.1492 -0.4204  0.0202
 3914SOL    HW120710   3.709   5.180   5.169 -0.8185 -0.1718 -0.8742
 3914SOL    HW220711   3.768   5.162   5.030 -0.2731 -1.3933 -0.4972
 3915SOL     OW20712   6.102   9.340  12.197 -0.3527 -0.3823 -0.2309
 3915SOL    HW120713   6.120   9.430  12.225 -1.8764  0.6187 -2.1949
 3915SOL    HW220714   6.165   9.324  12.127 -3.2228  1.1948 -3.4699
 3916SOL     OW20715   5.704   5.390  11.039 -0.1208  0.0994  0.1007
 3916SOL    HW120716   5.749   5.364  10.959 -1.9254 -2.6207 -0.1737
 3916SOL    HW220717   5.630   5.442  11.010  1.4697  2.7412  0.4132
 3917SOL     OW20718   7.984   9.090  11.728 -0.0147 -0.4230 -0.5833
 3917SOL    HW120719   8.049   9.133  11.783 -0.8202 -1.6442  1.4490
 3917SOL    HW220720   7.919   9.057  11.790 -1.4252 -1.1573 -2.3696
 3918SOL     OW20721   5.222   2.116   5.456 -0.0900  0.8097  0.1314
 3918SOL    HW120722   5.271   2.196   5.471 -0.0896  0.5860  1.3828
 3918SOL    HW220723   5.252   2.056   5.524  0.9782 -0.7790 -1.6220
 3919SOL     OW20724  10.191   8.931   4.347  0.0511  0.2313  0.5496
 3919SOL    HW120725  10.171   8.999   4.283 -1.7179  0.7894  1.6150
 3919SOL    HW220726  10.256   8.970   4.405 -1.0391  1.1114  1.2205
 3920SOL     OW20727   0.553   7.116   7.841 -0.4974  0.6401 -0.0341
 3920SOL    HW120728   0.566   7.178   7.770 -0.4530 -0.3380 -0.8890
 3920SOL    HW220729   0.592   7.159   7.917 -0.8967  1.8664 -0.4905
 3921SOL     OW20730   2.996   5.767   4.659  0.2179 -0.4110 -0.4209
 3921SOL    HW120731   2.972   5.842   4.712 -0.8725 -1.7575  1.0988
 3921SOL    HW220732   3.078   5.793   4.615  0.9009  0.9590  1.5488
 3922SOL     OW20733   5.516   3.409   6.261  0.4155  0.2413 -0.4902
 3922SOL    HW120734   5.546   3.474   6.197  1.1807 -0.4986 -0.9002
 3922SOL    HW220735   5.562   3.432   6.342 -0.5393  1.1689 -0.1875
 3923SOL     OW20736  11.600   1.099   0.776  0.3420 -0.0167 -0.2974
 3923SOL    HW120737  11.588   1.024   0.834 -1.6843  0.7987  0.4033
 3923SOL    HW220738  11.601   1.061   0.688  3.2709 -1.2504  0.1406
 3924SOL     OW20739   5.346   6.940   7.569 -0.6013  0.0663  0.6454
 3924SOL    HW120740   5.386   6.945   7.482 -2.3723  3.5153 -0.1819
 3924SOL    HW220741   5.281   6.870   7.561 -1.0603  0.6240 -1.0350
 3925SOL     OW20742   3.936   9.572   9.413  0.1066  0.2266 -0.5538
 3925SOL    HW120743   4.011   9.618   9.450 -0.6333  0.1721  1.0901
 3925SOL    HW220744   3.959   9.561   9.320  2.6906 -0.9397  0.1212
 3926SOL     OW20745  11.140   9.036  10.968 -0.6362 -0.8416  0.2129
 3926SOL    HW120746  11.184   8.954  10.945 -0.9565 -1.1557  0.7052
 3926SOL    HW220747  11.198   9.104  10.934 -1.0143 -1.2725 -1.3787
 3927SOL     OW20748   0.433   6.562   8.537  0.0672  0.3260 -0.2026
 3927SOL    HW120749   0.409   6.595   8.451  0.1811 -2.8033 -1.5857
 3927SOL    HW220750   0.529   6.558   8.536  0.0322 -0.6393 -0.3335
 3928SOL     OW20751   3.780   1.162  11.047  0.1999  0.2831  0.2164
 3928SOL    HW120752   3.812   1.107  11.119 -0.3673  3.0429  2.7440
 3928SOL    HW220753   3.686   1.172  11.064  0.0971  1.1566 -0.7691
 3929SOL     OW20754   4.820   0.425   6.412  0.3250 -0.1383  0.0774
 3929SOL    HW120755   4.835   0.357   6.477  2.3187 -1.3791 -1.5345
 3929SOL    HW220756   4.791   0.378   6.334  1.5315  0.8432 -1.0170
 3930SOL     OW20757   5.331   1.716   1.695 -0.7200  0.4071 -0.6900
 3930SOL    HW120758   5.313   1.809   1.708 -0.2181  0.4168  0.0246
 3930SOL    HW220759   5.403   1.714   1.632 -0.0357  0.5554  0.0659
 3931SOL     OW20760   5.334   3.653   2.527 -0.2823  0.5053 -0.2685
 3931SOL    HW120761   5.390   3.715   2.574 -0.9439  1.1579 -0.3272
 3931SOL    HW220762   5.247   3.690   2.532 -0.3602  0.6885 -2.1425
 3932SOL     OW20763   7.779   4.209   7.743 -0.4007 -0.2912 -0.1183
 3932SOL    HW120764   7.868   4.174   7.753 -0.9540 -1.3726  1.2451
 3932SOL    HW220765   7.738   4.152   7.679 -0.3394 -0.2503 -0.1940
 3933SOL     OW20766   4.415  12.005   1.491  0.4133  0.0076 -0.7259
 3933SOL    HW120767   4.484  11.939   1.483 -0.3396 -0.6601 -1.9331
 3933SOL    HW220768   4.461  12.084   1.520  1.5174 -0.7032 -0.4663
 3934SOL     OW20769  10.096   9.888   8.284  0.3465  0.1122 -0.2424
 3934SOL    HW120770  10.161   9.838   8.334  1.2793  0.5894 -0.9533
 3934SOL    HW220771  10.086   9.839   8.202 -0.3355 -0.0558 -0.0646
 3935SOL     OW20772  11.073  11.723   3.699  0.3721 -0.0562  0.0357
 3935SOL    HW120773  11.137  11.737   3.769  0.5320  0.6879 -0.2510
 3935SOL    HW220774  11.031  11.808   3.688 -0.5677 -0.4967  0.1116
 3936SOL     OW20775  10.633   6.507  11.943  0.1515 -0.7727  0.2152
 3936SOL    HW120776  10.667   6.467  12.023  1.0846 -1.0117 -0.2905
 3936SOL    HW220777  10.538   6.491  11.947  0.1971 -0.8732  1.2090
 3937SOL     OW20778   7.784   6.396   7.662 -0.6404  0.4533  0.2738
 3937SOL    HW120779   7.760   6.478   7.618 -1.2280 -0.3872 -1.0059
 3937SOL    HW220780   7.805   6.336   7.591  1.8381  0.0734  1.2377
 3938SOL     OW20781   7.175   2.552  11.470 -0.3924  0.1660 -0.1476
 3938SOL    HW120782   7.135   2.631  11.432 -0.0855  1.1465  1.4458
 3938SOL    HW220783   7.105   2.487  11.468 -0.9171  0.7298 -0.7586
 3939SOL     OW20784   4.586   8.919   4.643  0.1611  0.7468 -0.5909
 3939SOL    HW120785   4.590   8.902   4.549  0.6633  0.1784 -0.4678
 3939SOL    HW220786   4.552   8.839   4.681  1.2093  0.4868 -0.1566
 3940SOL     OW20787  10.220   5.374   8.690 -0.2440  0.1074 -0.2736
 3940SOL    HW120788  10.167   5.372   8.770  0.6970 -1.1742  0.3662
 3940SOL    HW220789  10.181   5.443   8.637 -0.4530  1.5208  1.6003
 3941SOL     OW20790   1.963   9.190   0.473  0.1661  0.2566 -0.3391
 3941SOL    HW120791   1.901   9.256   0.504  0.2395  0.3323 -0.3543
 3941SOL    HW220792   2.020   9.172   0.549 -1.4253 -1.6621  0.5024
 3942SOL     OW20793   0.985   0.287   0.589 -0.2668 -0.5302  0.1556
 3942SOL    HW120794   0.984   0.221   0.658 -1.7927 -0.9389 -0.2137
 3942SOL    HW220795   0.940   0.362   0.627  0.3869 -0.1453  0.1674
 3943SOL     OW20796   1.742   8.754   2.657  0.2522 -0.3565 -0.2985
 3943SOL    HW120797   1.666   8.724   2.706  1.1909 -0.5873  1.0893
 3943SOL    HW220798   1.777   8.827   2.708  0.7176  0.0271 -1.1423
 3944SOL     OW20799   7.379   2.798  10.251  0.1347 -0.5457  0.1714
 3944SOL    HW120800   7.329   2.854  10.310  1.8927  1.5917 -0.2128
 3944SOL    HW220801   7.422   2.735  10.308 -1.0159 -0.8302  0.7522
 3945SOL     OW20802   1.767   8.846   7.752  0.2758  0.4458  0.6558
 3945SOL    HW120803   1.747   8.790   7.827  1.3024  0.3755  0.8899
 3945SOL    HW220804   1.681   8.869   7.716 -0.1737 -1.3459  0.4839
 3946SOL     OW20805   2.030  11.654   2.225 -0.2773 -0.2048 -0.0210
 3946SOL    HW120806   1.937  11.632   2.220 -0.4063  0.4489 -0.6951
 3946SOL    HW220807   2.043  11.682   2.316 -1.4996  2.8267 -0.6505
 3947SOL     OW20808   9.774   9.708  11.814 -0.5879 -0.1749  0.0873
 3947SOL    HW120809   9.692   9.678  11.776 -0.1343 -1.1046 -0.1818
 3947SOL    HW220810   9.752   9.726  11.906 -1.0219 -0.7347  0.1027
 3948SOL     OW20811   1.136   0.884   6.795  0.0300 -0.3770  0.0416
 3948SOL    HW120812   1.176   0.834   6.724  1.0254 -0.5063  0.6733
 3948SOL    HW220813   1.041   0.874   6.782  0.2027 -0.4228 -1.2333
 3949SOL     OW20814   5.025  11.750   6.545 -0.4416 -0.0333  0.2833
 3949SOL    HW120815   5.040  11.656   6.547 -1.2648 -0.1721  1.9170
 3949SOL    HW220816   5.068  11.783   6.625  1.9481  1.3745 -1.4416
 3950SOL     OW20817  11.312   3.180  11.895 -0.4624 -0.7788 -0.0691
 3950SOL    HW120818  11.234   3.208  11.943 -0.4420  0.0067 -0.4779
 3950SOL    HW220819  11.384   3.226  11.937 -0.5468  0.6829 -1.4099
 3951SOL     OW20820   5.830   7.073   8.877  0.4289  0.1033  0.2104
 3951SOL    HW120821   5.885   6.999   8.849  0.3118 -0.0324  0.3316
 3951SOL    HW220822   5.882   7.150   8.859  1.0457 -0.0741  1.1978
 3952SOL     OW20823   7.135   9.955   2.934 -0.6921  0.9154  0.2344
 3952SOL    HW120824   7.130   9.890   3.004 -0.3483  0.9337  0.2795
 3952SOL    HW220825   7.209  10.010   2.958  1.2002 -0.6867 -1.4865
 3953SOL     OW20826   4.901   9.196   2.289  0.0642 -0.6261 -0.0331
 3953SOL    HW120827   4.970   9.260   2.306 -0.5605 -0.2708  1.2790
 3953SOL    HW220828   4.904   9.137   2.364 -0.4097 -1.2028 -0.4564
 3954SOL     OW20829   9.132   2.037   4.521 -0.7056  0.0549  0.0085
 3954SOL    HW120830   9.129   2.113   4.463 -0.5233  0.0100 -0.0597
 3954SOL    HW220831   9.099   2.069   4.605  1.7984  0.9150  0.7704
 3955SOL     OW20832   1.997  12.170   9.693 -0.4595  0.2157  0.1802
 3955SOL    HW120833   2.041  12.093   9.728 -0.2127  0.0517 -0.4770
 3955SOL    HW220834   2.052  12.197   9.619 -0.4225  1.1576  0.5443
 3956SOL     OW20835   9.893   7.238   8.617 -0.0100  0.3291 -0.0231
 3956SOL    HW120836   9.954   7.309   8.598 -0.5179  0.4761 -1.1890
 3956SOL    HW220837   9.920   7.205   8.702  0.4342  1.7113  0.3908
 3957SOL     OW20838   7.652   8.010   3.089  0.6231 -0.0527  0.7193
 3957SOL    HW120839   7.710   7.979   3.019 -2.0901 -0.0208 -1.6964
 3957SOL    HW220840   7.597   7.935   3.109 -0.4965  0.7674  0.7791
 3958SOL     OW20841  11.635  12.592   9.979 -0.3083 -0.0488  0.3245
 3958SOL    HW120842  11.544  12.596   9.950 -0.3695  1.8432  0.6508
 3958SOL    HW220843  11.666  12.683   9.975  2.1131 -0.8313 -1.4409
 3959SOL     OW20844   7.600   7.887   8.377  0.7627 -0.6903 -0.0192
 3959SOL    HW120845   7.510   7.862   8.356  0.8845 -0.7037 -0.5311
 3959SOL    HW220846   7.643   7.897   8.292  0.5873  1.7903  0.1022
 3960SOL     OW20847   2.946  11.088   3.856 -0.2989  0.4631 -0.4336
 3960SOL    HW120848   3.005  11.140   3.911  0.1928  1.4471 -1.8338
 3960SOL    HW220849   2.859  11.102   3.894 -0.1562  2.1834 -0.6512
 3961SOL     OW20850   1.224   3.513  10.881 -0.6115  0.3366  0.0059
 3961SOL    HW120851   1.160   3.471  10.938 -0.1740  0.3296  0.4954
 3961SOL    HW220852   1.215   3.607  10.898  0.8953  0.2501  1.6102
 3962SOL     OW20853   3.071   2.798   4.124  0.0799  0.5009  0.0564
 3962SOL    HW120854   3.041   2.789   4.034  0.9713 -0.0379 -0.1969
 3962SOL    HW220855   3.038   2.719   4.168 -0.7832  1.0053  0.3361
 3963SOL     OW20856   0.249   9.438  11.584  0.0346 -0.1025 -0.4988
 3963SOL    HW120857   0.324   9.429  11.525  1.0386 -2.4432  1.0186
 3963SOL    HW220858   0.271   9.514  11.638 -0.4048  1.4029 -2.2973
 3964SOL     OW20859   9.275   3.083   5.128 -0.4310  0.2818 -0.1829
 3964SOL    HW120860   9.278   3.003   5.180  0.1865  0.7861  0.5746
 3964SOL    HW220861   9.231   3.147   5.185 -0.0795  0.7361 -0.4190
 3965SOL     OW20862   9.505   6.503   3.683 -0.8286  0.1427 -0.0003
 3965SOL    HW120863   9.499   6.599   3.675  0.0637  0.2999  0.9912
 3965SOL    HW220864   9.417   6.476   3.708 -1.2172  0.6370 -0.7701
 3966SOL     OW20865   6.508   7.855   4.208  0.2212 -0.1954 -0.1292
 3966SOL    HW120866   6.447   7.843   4.135  0.9235 -0.5706 -0.6640
 3966SOL    HW220867   6.583   7.900   4.170  0.8638 -0.9487  0.2296
 3967SOL     OW20868  12.310   9.281  10.827 -0.5013 -0.1208 -0.2281
 3967SOL    HW120869  12.310   9.326  10.911 -0.2608  1.1197 -0.8639
 3967SOL    HW220870  12.222   9.246  10.818 -0.3000 -0.9679  0.8824
 3968SOL     OW20871   9.226  12.095   1.715  0.6768 -0.0500  0.0284
 3968SOL    HW120872   9.181  12.178   1.728  1.3774  0.2042  1.0331
 3968SOL    HW220873   9.285  12.111   1.642 -0.7619 -0.3612 -1.2358
 3969SOL     OW20874  11.184   7.876  11.947  0.4081  0.1922 -0.5076
 3969SOL    HW120875  11.099   7.857  11.986  0.5541 -0.1442 -0.3547
 3969SOL    HW220876  11.243   7.809  11.981  0.7206  0.3772 -0.6706
 3970SOL     OW20877   1.788  11.435   6.322 -0.6668  0.3254  0.1323
 3970SOL    HW120878   1.747  11.374   6.260 -1.1184  0.5986  0.1639
 3970SOL    HW220879   1.874  11.454   6.283 -0.1093 -1.0848  0.5966
 3971SOL     OW20880  12.396   9.586   4.767 -0.2054 -0.3440 -0.7081
 3971SOL    HW120881  12.426   9.617   4.853  0.7367 -1.3977 -0.6258
 3971SOL    HW220882  12.315   9.539   4.787 -0.3725  0.0328 -0.4932
 3972SOL     OW20883   1.386   9.249   2.359  0.2516 -0.4519 -0.1950
 3972SOL    HW120884   1.354   9.184   2.296 -1.8252 -0.2341  0.5560
 3972SOL    HW220885   1.387   9.202   2.442 -2.3089  0.6746  0.5558
 3973SOL     OW20886  10.175  11.089   0.412  0.6354  0.0416 -0.2394
 3973SOL    HW120887  10.189  11.183   0.413 -0.4696  0.2427 -1.4465
 3973SOL    HW220888  10.201  11.061   0.324  0.6343 -0.7379 -0.0050
 3974SOL     OW20889   4.025   8.471   2.389  0.1642 -0.5178 -0.2108
 3974SOL    HW120890   4.027   8.487   2.484 -3.2925 -2.7170  0.4035
 3974SOL    HW220891   4.044   8.557   2.350  0.6089  0.7017  2.4379
 3975SOL     OW20892   6.830   8.007   0.756  0.0417  0.0438 -0.3571
 3975SOL    HW120893   6.750   8.024   0.805 -1.1570  1.2173 -2.5536
 3975SOL    HW220894   6.889   8.079   0.781 -0.0160 -0.1566  0.3808
 3976SOL     OW20895   4.820   5.781   8.975 -0.0372 -0.1818 -0.4601
 3976SOL    HW120896   4.900   5.735   9.002 -0.0243  0.4939  0.7144
 3976SOL    HW220897   4.790   5.733   8.897  1.9604  0.0445 -1.4406
 3977SOL     OW20898   3.094   9.570  11.776  0.3452 -0.0059  0.2754
 3977SOL    HW120899   3.108   9.542  11.867  0.6182  0.6620  0.4436
 3977SOL    HW220900   3.016   9.625  11.780  1.5335  1.7270  0.4749
 3978SOL     OW20901   6.956   4.303   6.304 -0.3594  0.3255  0.2484
 3978SOL    HW120902   6.891   4.233   6.314 -0.9410  0.6271 -1.0937
 3978SOL    HW220903   7.040   4.258   6.302 -0.7946 -0.4887 -1.6616
 3979SOL     OW20904   6.936  11.081   6.919 -0.3224 -0.0291 -0.1856
 3979SOL    HW120905   6.965  11.024   6.990  1.3484 -1.9396 -2.2161
 3979SOL    HW220906   6.857  11.123   6.951 -1.1247 -2.7989  1.8336
 3980SOL     OW20907  11.233   7.261   2.080 -0.1764  0.2318  0.1080
 3980SOL    HW120908  11.197   7.173   2.070 -1.4895  0.8929 -1.2365
 3980SOL    HW220909  11.302   7.251   2.146  0.3120 -1.9663 -0.6601
 3981SOL     OW20910   7.606   0.429   3.600  0.6988  0.1297 -0.4543
 3981SOL    HW120911   7.554   0.465   3.528 -1.5147  2.0865  1.9236
 3981SOL    HW220912   7.541   0.399   3.663  2.5641 -2.0655  0.5418
 3982SOL     OW20913   9.071  12.522   3.860 -0.1288 -0.4083  0.4260
 3982SOL    HW120914   9.014  12.543   3.787 -3.3459 -2.3236  2.1139
 3982SOL    HW220915   9.109  12.437   3.837 -0.8346 -0.8255  0.7585
 3983SOL     OW20916   6.318   7.478   0.618  0.6297  0.5490 -0.1975
 3983SOL    HW120917   6.290   7.478   0.526  0.1866  2.9039 -0.1361
 3983SOL    HW220918   6.413   7.467   0.613  0.5091 -0.3111 -0.8665
 3984SOL     OW20919   3.592   1.560   0.296 -0.6347  0.2156 -0.3569
 3984SOL    HW120920   3.664   1.592   0.350 -1.4072 -0.2472  0.9963
 3984SOL    HW220921   3.617   1.583   0.206  0.0413  2.2767  0.3066
 3985SOL     OW20922   5.053   8.414   0.426  0.6830 -0.1977 -0.0273
 3985SOL    HW120923   5.068   8.396   0.519  0.4446  0.2550  0.0985
 3985SOL    HW220924   4.960   8.434   0.419  0.8759  0.7046 -0.2054
 3986SOL     OW20925   1.912   3.051  11.554 -0.8469  0.2676  0.4600
 3986SOL    HW120926   1.914   2.962  11.589  0.5953 -0.2459 -0.8005
 3986SOL    HW220927   1.945   3.042  11.465  1.2232  2.3325  0.9282
 3987SOL     OW20928  12.228   8.482   9.677 -0.5008 -0.5731 -0.1922
 3987SOL    HW120929  12.214   8.549   9.744 -0.8455 -1.7137  0.9262
 3987SOL    HW220930  12.304   8.433   9.708 -0.6879 -1.1407 -0.6112
 3988SOL     OW20931   9.026   1.323   7.689  0.0775 -0.4693  0.2017
 3988SOL    HW120932   9.093   1.266   7.728 -0.9153 -0.9424  1.2528
 3988SOL    HW220933   8.953   1.321   7.750 -1.2563 -0.6351 -1.3107
 3989SOL     OW20934   2.687   1.874   6.402  0.4617  0.0157  0.3563
 3989SOL    HW120935   2.702   1.830   6.485  0.5151 -0.9513 -0.1553
 3989SOL    HW220936   2.597   1.851   6.378  0.2889  0.6529  0.3525
 3990SOL     OW20937  10.352   4.433   3.905  0.0779 -0.2632  0.0839
 3990SOL    HW120938  10.446   4.453   3.914  0.0999 -0.3053 -0.0512
 3990SOL    HW220939  10.335   4.367   3.972  0.0621  0.0153  0.3574
 3991SOL     OW20940  10.550   6.223   5.008 -1.0547  0.4568  0.0918
 3991SOL    HW120941  10.461   6.256   5.022 -1.0394  0.9425 -0.8806
 3991SOL    HW220942  10.538   6.142   4.959 -0.9705  0.3500  0.2457
 3992SOL     OW20943   8.554   6.205   6.766 -0.4750  1.0359  0.3323
 3992SOL    HW120944   8.471   6.232   6.727 -0.1536  1.1076 -0.3201
 3992SOL    HW220945   8.567   6.116   6.733  0.2455  1.4267 -0.4738
 3993SOL     OW20946   8.861   6.663  12.177  0.0565  0.2834 -0.1969
 3993SOL    HW120947   8.956   6.651  12.171  0.2349  2.1553 -2.0723
 3993SOL    HW220948   8.828   6.646  12.089 -1.5069 -1.0357  0.5732
 3994SOL     OW20949  11.432  11.939   3.177  0.3640 -0.4877  0.3056
 3994SOL    HW120950  11.404  12.031   3.170  2.6512  0.2239 -0.4140
 3994SOL    HW220951  11.412  11.901   3.092 -0.9755 -0.8209  0.7410
 3995SOL     OW20952   8.137  10.974   0.015 -0.4144 -0.2366 -0.2032
 3995SOL    HW120953   8.212  10.925   0.049 -0.6779 -0.2264  0.4109
 3995SOL    HW220954   8.112  10.927  -0.064  1.5948  1.0203 -1.6851
 3996SOL     OW20955   9.238   7.873  11.123 -0.1192  0.4680  0.3823
 3996SOL    HW120956   9.314   7.903  11.173  0.5339  3.5031 -2.1589
 3996SOL    HW220957   9.271   7.799  11.072  0.8514  1.0637  0.1153
 3997SOL     OW20958   0.093   3.237  11.413 -0.0963 -0.0800 -0.5706
 3997SOL    HW120959   0.052   3.161  11.371 -1.0681 -0.2225  0.6083
 3997SOL    HW220960   0.186   3.213  11.419 -0.4581 -1.3920  0.1923
 3998SOL     OW20961  11.878  11.076   8.280 -0.3076  0.5401 -0.0111
 3998SOL    HW120962  11.849  11.159   8.242 -0.5306  0.2944 -0.3948
 3998SOL    HW220963  11.810  11.054   8.344 -1.1480 -0.1688 -1.1009
 3999SOL     OW20964   1.997   7.297   9.358 -0.2147 -0.0981 -0.3418
 3999SOL    HW120965   1.952   7.215   9.339  1.3724 -1.2421  0.6165
 3999SOL    HW220966   1.928   7.356   9.388 -1.3435 -1.1624 -0.7831
 4000SOL     OW20967   9.593   0.740   0.476  0.3099  0.3211 -0.4888
 4000SOL    HW120968   9.557   0.826   0.494  0.1243  0.1946 -0.2520
 4000SOL    HW220969   9.597   0.697   0.562  0.0438 -0.0423 -0.6555
 4001SOL     OW20970  10.133   8.777   4.941 -0.7858 -0.1172  0.1350
 4001SOL    HW120971  10.058   8.731   4.904  0.5375 -3.0282  0.7817
 4001SOL    HW220972  10.194   8.787   4.868  0.1997 -2.3385  0.5629
 4002SOL     OW20973  10.523   6.339   8.283 -0.2580 -0.2542  0.4256
 4002SOL    HW120974  10.552   6.387   8.205  1.1246 -1.4411  0.1683
 4002SOL    HW220975  10.600   6.339   8.341 -0.7646 -0.7368  1.1146
 4003SOL     OW20976   1.049  10.486   7.392  0.4866 -0.4313  0.4187
 4003SOL    HW120977   1.122  10.538   7.426 -0.3736 -1.2729  3.9522
 4003SOL    HW220978   0.974  10.546   7.395  0.4117 -0.4835 -0.2216
 4004SOL     OW20979  11.435   9.248   0.725 -0.6070 -0.2424 -0.4323
 4004SOL    HW120980  11.426   9.297   0.807 -0.6203  1.4437 -1.3971
 4004SOL    HW220981  11.517   9.280   0.687 -0.7322 -0.8136 -1.1995
 4005SOL     OW20982   3.096   3.302   9.959 -0.1161 -0.4841  0.1820
 4005SOL    HW120983   3.011   3.292   9.917 -0.6500 -0.9824  1.3373
 4005SOL    HW220984   3.134   3.214   9.958  1.5513  0.1187 -2.5790
 4006SOL     OW20985   2.728   5.207  10.648 -0.2984  0.7543 -0.4518
 4006SOL    HW120986   2.723   5.228  10.742 -2.3320 -0.6539 -0.1880
 4006SOL    HW220987   2.769   5.284  10.609 -1.6405  2.4326  1.2695
 4007SOL     OW20988   4.072  11.538   4.148 -0.4828  0.1419  0.0906
 4007SOL    HW120989   4.050  11.467   4.208  1.5116 -0.0429  0.6876
 4007SOL    HW220990   4.059  11.502   4.061 -0.1027 -0.7659  0.3969
 4008SOL     OW20991   1.869   6.059   9.893 -0.2613 -0.0473 -0.3758
 4008SOL    HW120992   1.825   5.978   9.869  0.4764 -0.3780 -0.6475
 4008SOL    HW220993   1.798   6.122   9.907 -1.0025 -1.3116  2.1525
 4009SOL     OW20994  12.436   5.238   2.127  0.0866 -0.3675  0.5595
 4009SOL    HW120995  12.518   5.234   2.176 -0.6579 -0.3278  1.8327
 4009SOL    HW220996  12.377   5.288   2.183 -0.3447  1.0114 -1.0381
 4010SOL     OW20997   3.543   5.418   9.307 -0.2025  0.1117  0.2131
 4010SOL    HW120998   3.490   5.385   9.379 -0.6750  0.2852 -0.0528
 4010SOL    HW220999   3.594   5.342   9.278  0.7353  0.2645  1.3612
 4011SOL     OW21000  11.526   4.600  12.207  0.1656  0.0764 -0.2132
 4011SOL    HW121001  11.469   4.599  12.130 -0.3625  0.4327  0.1725
 4011SOL    HW221002  11.590   4.669  12.188 -0.8120  1.1460  0.2727
 4012SOL     OW21003  11.586   1.192  12.477 -0.0584 -0.3890 -0.0082
 4012SOL    HW121004  11.491   1.207  12.486 -0.1948 -0.3737 -1.3257
 4012SOL    HW221005  11.625   1.278  12.494  0.0074 -0.9919  3.6967
 4013SOL     OW21006   6.636   7.246   2.297 -0.2571 -0.4010  0.9776
 4013SOL    HW121007   6.606   7.220   2.384 -0.4688  0.5111  1.1869
 4013SOL    HW221008   6.574   7.204   2.237 -0.9592  0.0989  1.3354
 4014SOL     OW21009   6.462  10.481   0.453  0.2229 -0.3389 -1.1577
 4014SOL    HW121010   6.470  10.576   0.462 -0.0955 -0.4724  1.3996
 4014SOL    HW221011   6.380  10.468   0.406 -2.4505  0.7434  2.6731
 4015SOL     OW21012   1.132   8.845   3.275 -0.4910  0.4904 -0.1714
 4015SOL    HW121013   1.062   8.787   3.303  1.4020 -1.0035  1.8787
 4015SOL    HW221014   1.107   8.931   3.309 -0.8205 -0.2457  1.5424
 4016SOL     OW21015   2.212  10.712   0.274  0.0818 -0.5479  0.0122
 4016SOL    HW121016   2.160  10.724   0.195 -0.6054  2.7796  0.8367
 4016SOL    HW221017   2.148  10.706   0.345  0.6659  1.8631  0.8452
 4017SOL     OW21018   7.377  11.494   9.095  0.4994 -0.6385  0.0398
 4017SOL    HW121019   7.357  11.423   9.035  0.9168  0.5921 -1.6082
 4017SOL    HW221020   7.296  11.544   9.102  0.6502 -0.3777 -0.0537
 4018SOL     OW21021   5.336   9.163   3.133  0.4244  0.0699  0.3883
 4018SOL    HW121022   5.362   9.145   3.223  0.3907  1.6478  0.7460
 4018SOL    HW221023   5.356   9.256   3.121 -1.1497  0.3030 -0.6736
 4019SOL     OW21024   5.763   5.863   3.527  0.4938  0.2752  0.1881
 4019SOL    HW121025   5.768   5.957   3.545  2.7920  0.3019 -0.3070
 4019SOL    HW221026   5.823   5.823   3.590  2.8949 -0.3535 -2.2752
 4020SOL     OW21027  12.530   6.005   0.256  0.2447  0.8264 -0.1111
 4020SOL    HW121028  12.485   5.994   0.172  1.8490 -1.6002 -0.7566
 4020SOL    HW221029  12.459   6.009   0.321 -0.9685 -0.2274 -1.3178
 4021SOL     OW21030   9.021   3.163   2.646 -0.6841 -0.1763 -0.6306
 4021SOL    HW121031   9.099   3.159   2.591 -0.2565  1.0126 -0.1509
 4021SOL    HW221032   8.986   3.074   2.645  1.0170 -0.8850 -0.3441
 4022SOL     OW21033   3.350   5.984  10.046 -0.2291  0.3094 -0.5089
 4022SOL    HW121034   3.351   6.058   9.985  3.3134 -1.6889 -3.2495
 4022SOL    HW221035   3.308   5.913   9.997  0.2829 -0.6574  0.4004
 4023SOL     OW21036  11.538   0.584   9.654 -0.2562  0.4275  0.0282
 4023SOL    HW121037  11.522   0.510   9.596 -0.3418 -0.1773  0.7935
 4023SOL    HW221038  11.468   0.579   9.719 -0.2560  1.1813  0.0933
 4024SOL     OW21039   6.774   8.521   8.683 -0.0046  0.0729  0.0164
 4024SOL    HW121040   6.732   8.448   8.636 -0.1678  1.3405 -1.9474
 4024SOL    HW221041   6.722   8.532   8.762 -1.3962 -0.4911 -0.7767
 4025SOL     OW21042   4.536   7.014   3.086  0.1345 -0.3857  0.6128
 4025SOL    HW121043   4.486   6.932   3.098 -0.7669  0.1703  0.7514
 4025SOL    HW221044   4.561   7.040   3.174 -2.2495  1.0973  0.9235
 4026SOL     OW21045  10.588   9.400   6.555  0.1514 -0.1014  0.0879
 4026SOL    HW121046  10.586   9.492   6.584 -1.3099 -0.2315  0.4792
 4026SOL    HW221047  10.636   9.402   6.472 -2.0723  1.4544 -1.2662
 4027SOL     OW21048  11.912   5.272   5.612 -0.2397 -0.4759 -0.2949
 4027SOL    HW121049  11.913   5.290   5.706  0.9563 -0.3064 -0.3305
 4027SOL    HW221050  11.968   5.195   5.602 -0.9447 -0.9404 -0.7943
 4028SOL     OW21051   9.423  11.176   0.928  0.2163 -0.5782 -0.0414
 4028SOL    HW121052   9.388  11.103   0.980 -0.5962  0.9087  1.5916
 4028SOL    HW221053   9.360  11.187   0.857 -1.0973  0.1931  1.2116
 4029SOL     OW21054   5.768   7.701   8.594 -0.1039  0.4740 -0.2763
 4029SOL    HW121055   5.762   7.795   8.573  2.1169  0.2024 -2.6859
 4029SOL    HW221056   5.840   7.696   8.656  0.5211  0.3044 -0.9980
 4030SOL     OW21057   6.007   3.895   7.538 -0.9562  0.0208  0.0726
 4030SOL    HW121058   6.069   3.967   7.548 -1.8918  1.2065 -2.1139
 4030SOL    HW221059   5.921   3.936   7.545 -1.5109 -0.8422 -1.3179
 4031SOL     OW21060   1.886   9.239   9.180 -0.1276 -0.0189  0.3625
 4031SOL    HW121061   1.907   9.278   9.095  0.3285 -2.7155 -0.8730
 4031SOL    HW221062   1.971   9.224   9.221 -0.2673 -0.2502  0.5705
 4032SOL     OW21063   0.245   9.309   3.545 -0.3405  0.0548 -0.4069
 4032SOL    HW121064   0.156   9.337   3.525 -0.4037 -0.2020 -0.4839
 4032SOL    HW221065   0.276   9.266   3.466 -0.5086 -0.7550 -0.0376
 4033SOL     OW21066  10.965   1.508   5.996  0.2907 -0.3879 -0.2818
 4033SOL    HW121067  10.967   1.579   6.061  0.8381 -1.4862  0.9603
 4033SOL    HW221068  11.052   1.508   5.957  0.3562 -0.4834 -0.1388
 4034SOL     OW21069   8.446   7.800  12.304 -0.3121  0.3680  0.0462
 4034SOL    HW121070   8.433   7.722  12.359 -1.3378 -0.7653 -1.7241
 4034SOL    HW221071   8.395   7.868  12.348 -1.5287 -0.6375  0.2581
 4035SOL     OW21072  12.236   5.423   1.387  0.5061 -0.5311 -0.2097
 4035SOL    HW121073  12.303   5.373   1.341  3.3840  3.3200 -0.7003
 4035SOL    HW221074  12.204   5.486   1.322 -0.4912  0.4445  1.1733
 4036SOL     OW21075   7.983   4.009  12.242 -0.2661  0.0820 -0.8779
 4036SOL    HW121076   8.051   4.065  12.204 -1.1816  0.8207 -1.4735
 4036SOL    HW221077   7.933   4.067  12.299  0.4333 -0.7781  0.6894
 4037SOL     OW21078   4.360   8.513   5.992  0.6706 -0.3876  0.1154
 4037SOL    HW121079   4.380   8.525   6.085 -2.1092  0.0599  0.7470
 4037SOL    HW221080   4.381   8.421   5.975  0.2681 -0.7509  1.4687
 4038SOL     OW21081  10.394  12.283   2.186  0.8833  0.4389  0.0736
 4038SOL    HW121082  10.326  12.281   2.119 -3.3066 -1.3000  3.8479
 4038SOL    HW221083  10.401  12.375   2.211  0.4509  0.7306 -0.8527
 4039SOL     OW21084   9.595   9.578   6.731 -0.3775 -0.8288  0.3090
 4039SOL    HW121085   9.549   9.543   6.807 -0.1031  0.3518  1.0471
 4039SOL    HW221086   9.543   9.551   6.656 -2.4787  0.6844  1.1284
 4040SOL     OW21087   9.782   4.946   0.796  0.3937 -0.3872  0.1922
 4040SOL    HW121088   9.866   4.931   0.839  0.1070  1.1166  1.3950
 4040SOL    HW221089   9.786   5.038   0.767 -0.2724 -0.7315 -1.0931
 4041SOL     OW21090  10.703   2.728   9.937 -0.1895  0.0122 -0.7707
 4041SOL    HW121091  10.625   2.690   9.978 -1.4058  1.4301 -1.7121
 4041SOL    HW221092  10.700   2.821   9.959  1.8292 -0.0587  0.0624
 4042SOL     OW21093   5.654  12.449   2.871  0.2292  0.0929  0.4159
 4042SOL    HW121094   5.564  12.470   2.894  0.8113  0.7486  2.3622
 4042SOL    HW221095   5.650  12.414   2.782 -2.1804 -1.8452  1.1848
 4043SOL     OW21096  10.361   3.617   5.302 -0.0071  0.5840  0.2188
 4043SOL    HW121097  10.435   3.624   5.363  1.4231 -0.1568 -1.3729
 4043SOL    HW221098  10.318   3.702   5.308  1.8811  1.6096  0.0781
 4044SOL     OW21099   5.853   2.311   6.548  0.1490  0.2452  0.3921
 4044SOL    HW121100   5.853   2.229   6.597  0.6189  0.2070  0.3330
 4044SOL    HW221101   5.936   2.310   6.500 -1.0555 -0.5649 -1.8371
 4045SOL     OW21102  11.975  10.808   6.801  0.2435  0.2093 -0.2096
 4045SOL    HW121103  11.961  10.902   6.806  0.4699  0.3032 -1.1568
 4045SOL    HW221104  11.887  10.770   6.802  0.1474  0.4346 -0.0152
 4046SOL     OW21105   6.438   2.508   1.521  0.1527  0.1333  0.3306
 4046SOL    HW121106   6.512   2.486   1.465 -2.1793 -0.9867 -2.6159
 4046SOL    HW221107   6.464   2.589   1.565  4.2097 -1.7476  1.8863
 4047SOL     OW21108   4.336   7.507   3.311 -0.1501 -0.7755  0.1647
 4047SOL    HW121109   4.311   7.478   3.224  0.6900 -0.5834 -0.1499
 4047SOL    HW221110   4.305   7.597   3.317  0.1188 -0.6667 -0.0756
 4048SOL     OW21111   0.627  10.828   9.248  0.0656 -0.0194 -0.6780
 4048SOL    HW121112   0.598  10.758   9.190 -1.1644 -0.5436  0.5004
 4048SOL    HW221113   0.698  10.789   9.299  0.1571 -0.0435 -0.8255
 4049SOL     OW21114   6.410   3.030  12.446  0.0777  0.0643  0.0936
 4049SOL    HW121115   6.449   2.946  12.420 -0.6251 -0.7262  1.4834
 4049SOL    HW221116   6.441   3.044  12.535 -4.2425 -1.6705  2.1649
 4050SOL     OW21117   1.868   3.388   0.561  0.2965  0.1294  0.2037
 4050SOL    HW121118   1.953   3.366   0.522  0.3357 -0.4804  0.6257
 4050SOL    HW221119   1.804   3.347   0.504  0.2786  0.5489 -0.0872
 4051SOL     OW21120   2.007   8.281   1.815 -0.6761 -0.2433  0.4654
 4051SOL    HW121121   1.977   8.372   1.819 -0.3464  0.1663 -3.2560
 4051SOL    HW221122   2.101   8.286   1.836 -0.9291  0.0480  1.5759
 4052SOL     OW21123   1.332   6.327  11.652 -0.1501 -0.2253  0.1824
 4052SOL    HW121124   1.396   6.258  11.639  1.5644  1.3324 -0.1096
 4052SOL    HW221125   1.310   6.357  11.563 -1.8048 -1.1514  0.2438
 4053SOL     OW21126   2.906   3.667   6.043  0.1600 -0.0807 -0.1922
 4053SOL    HW121127   2.926   3.595   6.102  0.2665  1.1514  1.3278
 4053SOL    HW221128   2.810   3.673   6.043  0.1674  0.0457  0.0267
 4054SOL     OW21129  10.201   7.362   9.340 -0.0733 -0.5445  0.0941
 4054SOL    HW121130  10.123   7.350   9.395 -0.5596 -1.0476 -0.6914
 4054SOL    HW221131  10.216   7.276   9.300  0.1248 -0.1300 -0.7444
 4055SOL     OW21132   5.426   8.904   8.144 -0.1218 -0.0831 -0.4063
 4055SOL    HW121133   5.335   8.911   8.171  0.0829  1.2513 -0.0055
 4055SOL    HW221134   5.469   8.981   8.181  0.7751  0.3040 -2.1169
 4056SOL     OW21135   6.156   5.191   8.499 -0.1446 -0.0151  0.5521
 4056SOL    HW121136   6.215   5.247   8.550  0.7586 -0.2275 -0.2443
 4056SOL    HW221137   6.198   5.105   8.500 -1.5805 -0.7396  1.8673
 4057SOL     OW21138   7.173   2.745   8.081 -0.0754  0.3373  0.6323
 4057SOL    HW121139   7.196   2.837   8.069 -0.0946  0.5371  2.0363
 4057SOL    HW221140   7.078   2.744   8.081 -0.1054  0.0665 -1.0377
 4058SOL     OW21141   8.734   2.139   8.568 -0.4388  0.2839  0.3937
 4058SOL    HW121142   8.681   2.095   8.634 -2.4213  1.7335 -0.1328
 4058SOL    HW221143   8.785   2.069   8.526 -1.1131 -1.0076  1.6679
 4059SOL     OW21144  10.910   5.711   5.290  0.0328 -0.8304 -0.1151
 4059SOL    HW121145  10.834   5.755   5.252  0.1323  0.7163  1.3480
 4059SOL    HW221146  10.976   5.780   5.300 -0.2703 -0.8659  3.4883
 4060SOL     OW21147   2.459   5.112  10.167  0.3381  0.8078  0.4335
 4060SOL    HW121148   2.549   5.098  10.197  0.4521 -0.7510 -0.4881
 4060SOL    HW221149   2.465   5.186  10.107  1.6248 -1.0078 -1.8780
 4061SOL     OW21150   7.486   5.894  11.830  0.7274  0.1513  0.1340
 4061SOL    HW121151   7.453   5.873  11.743  2.1717  1.5934 -0.8299
 4061SOL    HW221152   7.432   5.969  11.858 -1.0482 -1.4914  1.3970
 4062SOL     OW21153  12.596   6.389   7.447 -0.6434  0.2883 -0.2288
 4062SOL    HW121154  12.610   6.387   7.352 -2.1612  0.0200 -0.4794
 4062SOL    HW221155  12.589   6.297   7.472  1.0292  0.3005  0.3852
 4063SOL     OW21156   3.781   4.674  11.091 -0.1933 -0.4078 -0.5544
 4063SOL    HW121157   3.783   4.675  10.996 -0.5544 -0.7488 -0.5660
 4063SOL    HW221158   3.712   4.612  11.114 -1.2406  0.9002 -0.0773
 4064SOL     OW21159   2.676   4.785   6.838  0.8940  0.0722 -0.1095
 4064SOL    HW121160   2.616   4.725   6.792  0.3989  0.5379 -0.0830
 4064SOL    HW221161   2.677   4.864   6.784 -0.1888  0.8704  0.9831
 4065SOL     OW21162   4.898   7.124   6.611 -0.3233 -0.0456 -0.1853
 4065SOL    HW121163   4.832   7.059   6.634 -1.6339  1.0062 -0.8466
 4065SOL    HW221164   4.907   7.179   6.689  0.6267 -0.8592  0.2982
 4066SOL     OW21165   6.950   0.649  10.167 -0.3141 -0.1342  0.2062
 4066SOL    HW121166   7.003   0.589  10.220  0.6939  1.2170  0.7829
 4066SOL    HW221167   6.864   0.606  10.162 -0.2058 -0.7120  2.2576
 4067SOL     OW21168   9.679   9.138  11.556  0.1141  0.4672  0.3308
 4067SOL    HW121169   9.673   9.115  11.463  0.3258  0.6845  0.2639
 4067SOL    HW221170   9.687   9.233  11.557 -0.0340  0.4787  0.5794
 4068SOL     OW21171   4.661   4.199   4.535 -0.1511 -0.6644 -0.0662
 4068SOL    HW121172   4.752   4.209   4.506 -0.1189 -2.1165 -0.5099
 4068SOL    HW221173   4.648   4.105   4.541 -1.4817 -0.4573  0.5031
 4069SOL     OW21174   9.115   7.123   7.490  0.4802  0.1728 -0.1751
 4069SOL    HW121175   9.178   7.164   7.549 -1.6695  0.8523  1.8009
 4069SOL    HW221176   9.045   7.092   7.547 -0.2869 -1.9544 -2.1154
 4070SOL     OW21177   2.246   9.552   0.932 -0.3470  0.0782 -0.2536
 4070SOL    HW121178   2.285   9.481   0.881 -2.0008 -0.0194 -1.4697
 4070SOL    HW221179   2.258   9.526   1.023 -0.4531 -1.5148 -0.6654
 4071SOL     OW21180   6.822   7.113   1.767 -0.3663  0.1645  0.6970
 4071SOL    HW121181   6.751   7.160   1.723 -1.7197 -1.0308  1.5150
 4071SOL    HW221182   6.825   7.028   1.723 -1.2016 -0.7476  2.3025
 4072SOL     OW21183   3.166   6.587   3.534 -0.2700 -0.0379  0.0397
 4072SOL    HW121184   3.218   6.660   3.567  1.0212 -0.5326 -0.8173
 4072SOL    HW221185   3.089   6.584   3.591  1.0850  0.1295  1.9721
 4073SOL     OW21186   6.210   0.428   7.868  0.6471  0.1679  0.5016
 4073SOL    HW121187   6.223   0.392   7.956  0.1218  1.2222  1.0432
 4073SOL    HW221188   6.255   0.513   7.871  2.1502 -0.5314 -0.8379
 4074SOL     OW21189  10.430  11.069   6.208  0.4518  0.4109 -0.0858
 4074SOL    HW121190  10.441  11.162   6.231 -0.0035  0.2842  0.6749
 4074SOL    HW221191  10.337  11.052   6.224  0.5565 -0.2048 -0.1338
 4075SOL     OW21192   8.049   3.198  11.158 -0.0900  0.2221  0.3673
 4075SOL    HW121193   8.117   3.224  11.220 -1.4323  2.0035  1.1732
 4075SOL    HW221194   8.078   3.232  11.074  0.7061 -0.3389  0.4022
 4076SOL     OW21195  10.699   9.774   7.892  0.2258 -0.0872 -0.0421
 4076SOL    HW121196  10.745   9.850   7.929  0.6404 -0.3041 -0.1159
 4076SOL    HW221197  10.697   9.710   7.963 -3.2479  1.2581  1.2880
 4077SOL     OW21198   9.327   7.681   4.125 -0.0531  0.2600 -0.0473
 4077SOL    HW121199   9.384   7.652   4.053  0.9031  0.0354  0.7842
 4077SOL    HW221200   9.245   7.703   4.082  0.9379  1.4893 -1.4302
 4078SOL     OW21201  10.049   5.066   0.288  0.3147 -0.4161  0.2840
 4078SOL    HW121202  10.046   5.004   0.215 -0.6457 -0.9939  0.8081
 4078SOL    HW221203  10.056   5.152   0.246 -0.3451 -0.7334 -0.4950
 4079SOL     OW21204  12.086   0.034   9.819 -0.0921 -0.0064  0.3081
 4079SOL    HW121205  11.998   0.047   9.785 -0.2026 -1.0085  0.1730
 4079SOL    HW221206  12.127  -0.026   9.756  1.9358  3.1848 -1.6805
 4080SOL     OW21207   4.830   6.980   5.052  0.4808 -0.0392  0.1687
 4080SOL    HW121208   4.836   6.929   5.133 -0.0683 -0.6910 -0.1875
 4080SOL    HW221209   4.792   7.063   5.079 -0.1860 -0.4446  0.5121
 4081SOL     OW21210   9.767   1.686  11.220  0.0859  0.3639  0.1887
 4081SOL    HW121211   9.827   1.756  11.193 -0.3990  0.3863 -0.8812
 4081SOL    HW221212   9.804   1.653  11.302  1.9786 -0.1118 -0.8055
 4082SOL     OW21213   1.131   5.364   0.888 -0.6338  0.0301  0.0086
 4082SOL    HW121214   1.133   5.292   0.950  1.3156 -0.1310 -0.2013
 4082SOL    HW221215   1.136   5.321   0.802 -1.3110  0.3437 -0.1942
 4083SOL     OW21216  10.239  12.137  12.580 -0.1593 -0.1096 -0.3946
 4083SOL    HW121217  10.333  12.129  12.567 -0.0457  1.0176 -0.4101
 4083SOL    HW221218  10.225  12.120  12.673  0.0502 -0.3463 -0.4076
 4084SOL     OW21219   7.784  11.758   5.446 -0.3000 -0.4747 -0.5759
 4084SOL    HW121220   7.847  11.736   5.377 -0.5013  0.3534 -1.0445
 4084SOL    HW221221   7.809  11.846   5.474 -0.8355 -0.4089 -0.2951
 4085SOL     OW21222  11.257  10.898   8.107 -0.0425  0.0980 -0.2515
 4085SOL    HW121223  11.221  10.894   8.196 -0.0832  0.4372 -0.2539
 4085SOL    HW221224  11.262  10.806   8.080 -0.3982  0.0159 -0.0465
 4086SOL     OW21225  12.095   0.910   6.737  0.1553 -0.1475  0.0665
 4086SOL    HW121226  12.189   0.914   6.717 -0.2035  0.9743 -1.5824
 4086SOL    HW221227  12.086   0.964   6.816  0.9677 -0.7904  0.6173
 4087SOL     OW21228   4.271   7.929   1.560  0.4027 -0.1038  0.0221
 4087SOL    HW121229   4.313   7.881   1.632  0.9513  0.1682 -0.1054
 4087SOL    HW221230   4.194   7.877   1.538 -0.4855  0.4632  1.6385
 4088SOL     OW21231  11.058   3.897   2.746 -0.2080  0.3304 -0.0056
 4088SOL    HW121232  11.138   3.950   2.759  0.2854 -0.4991  0.4318
 4088SOL    HW221233  11.040   3.904   2.653  1.7440 -1.3504 -0.5856
 4089SOL     OW21234   9.218  12.218   4.315 -0.3327 -0.7450 -0.0644
 4089SOL    HW121235   9.182  12.291   4.263 -0.4821 -1.5321 -1.1042
 4089SOL    HW221236   9.141  12.175   4.352 -0.2338 -0.2794  0.7173
 4090SOL     OW21237   3.032  11.463   7.959 -0.1153  0.5835 -0.2870
 4090SOL    HW121238   3.049  11.467   8.053 -0.4850  1.8350 -0.2583
 4090SOL    HW221239   2.957  11.403   7.951  0.2872  0.0116  0.1491
 4091SOL     OW21240   1.335  11.486  11.798 -0.3097  0.0210  0.1222
 4091SOL    HW121241   1.370  11.401  11.824  1.2676  0.6255  0.0865
 4091SOL    HW221242   1.310  11.475  11.707  2.4569  0.2855 -0.7616
 4092SOL     OW21243  12.586   4.513   9.199  0.1472  0.3246 -0.7840
 4092SOL    HW121244  12.579   4.609   9.207  0.1332  0.3046 -0.5391
 4092SOL    HW221245  12.508   4.488   9.150 -0.5601  0.3004  0.3133
 4093SOL     OW21246  12.413  10.142   7.120 -0.0910  0.2009  0.4258
 4093SOL    HW121247  12.447  10.142   7.031 -1.7786 -1.6105 -0.2925
 4093SOL    HW221248  12.421  10.051   7.148 -2.5936  0.0616  0.8719
 4094SOL     OW21249   5.577   2.301   6.212  0.5620  0.5776 -0.3851
 4094SOL    HW121250   5.583   2.211   6.244 -2.3299  0.1111 -0.9415
 4094SOL    HW221251   5.570   2.354   6.291  0.7703  0.1704 -0.0915
 4095SOL     OW21252   4.036  10.836  10.058  0.4770 -0.0460  0.0733
 4095SOL    HW121253   4.105  10.776  10.085 -1.0039 -1.7240  0.3549
 4095SOL    HW221254   4.081  10.917  10.035  2.3129 -0.4346  2.0866
 4096SOL     OW21255   8.413   5.734   2.843  0.1005  0.3382 -0.1922
 4096SOL    HW121256   8.443   5.644   2.856 -0.3283  0.0827 -0.9051
 4096SOL    HW221257   8.358   5.752   2.919 -2.0293 -0.9810 -1.3086
 4097SOL     OW21258   2.383  10.203  10.693 -0.4952  0.0267  0.3088
 4097SOL    HW121259   2.297  10.207  10.651 -0.1217  0.2889 -0.4373
 4097SOL    HW221260   2.364  10.209  10.787 -1.4155 -1.5039  0.2619
 4098SOL     OW21261   2.171  11.758   1.187  0.1458  0.4958  0.3037
 4098SOL    HW121262   2.237  11.737   1.253  1.0952  1.3890 -0.3273
 4098SOL    HW221263   2.201  11.715   1.107  0.4098  1.5339 -0.1806
 4099SOL     OW21264   8.196   9.269   2.928  0.9040 -1.1749 -0.1207
 4099SOL    HW121265   8.142   9.217   2.987 -0.3693 -0.8200 -0.9458
 4099SOL    HW221266   8.168   9.360   2.944  0.2737 -1.1018 -1.5025
 4100SOL     OW21267   7.766   8.974   9.766 -0.0513  0.8830  0.0318
 4100SOL    HW121268   7.743   8.926   9.686 -0.8935 -1.1595  1.4066
 4100SOL    HW221269   7.692   9.031   9.782 -0.7883 -0.1288  0.3524
 4101SOL     OW21270   6.500   8.153   2.526 -0.2895 -0.2482  0.6317
 4101SOL    HW121271   6.565   8.108   2.471  1.2970 -0.1943  2.3675
 4101SOL    HW221272   6.451   8.083   2.567 -0.1590 -0.3317  0.6462
 4102SOL     OW21273   4.548   0.725  10.825 -0.8821  0.0915  0.2534
 4102SOL    HW121274   4.509   0.662  10.885  0.3032  0.5085  1.5274
 4102SOL    HW221275   4.608   0.775  10.880 -0.6571  1.3082 -1.0482
 4103SOL     OW21276   9.261   6.198   6.350 -0.1977  0.1934  0.2086
 4103SOL    HW121277   9.182   6.165   6.392  0.1219 -0.3651  0.3782
 4103SOL    HW221278   9.266   6.152   6.266 -2.0821  2.9482 -1.5901
 4104SOL     OW21279   0.905   2.743   9.745 -0.0234 -0.0385 -0.0091
 4104SOL    HW121280   0.936   2.830   9.766  1.2472 -0.3997 -0.2733
 4104SOL    HW221281   0.813   2.755   9.721  0.1261  1.2147 -0.0188
 4105SOL     OW21282   1.144  12.090   4.391 -0.1117 -0.0503  0.5115
 4105SOL    HW121283   1.128  12.179   4.361  1.6457  0.5771  1.2974
 4105SOL    HW221284   1.079  12.075   4.460 -0.5920  0.5162  0.1882
 4106SOL     OW21285   7.022   9.569   5.260 -0.3389 -0.0020  0.4702
 4106SOL    HW121286   6.956   9.505   5.231  0.4351 -0.0444 -1.3618
 4106SOL    HW221287   7.100   9.546   5.210  0.3349  1.5762  0.7655
 4107SOL     OW21288  12.382   3.903   7.657  0.2845  0.1006 -0.0874
 4107SOL    HW121289  12.347   3.887   7.744  2.4154 -0.7735  0.6780
 4107SOL    HW221290  12.319   3.862   7.597 -0.2808 -0.9025  1.1623
 4108SOL     OW21291   1.913   1.850   5.237  1.0852 -0.7770  0.5528
 4108SOL    HW121292   1.994   1.806   5.259  2.2854  1.2522  0.4398
 4108SOL    HW221293   1.873   1.871   5.322  1.8924  0.3029  0.6842
 4109SOL     OW21294   8.251   3.164   2.007  0.4919  0.6348 -0.2000
 4109SOL    HW121295   8.203   3.115   1.940  0.1727  2.2071 -1.1621
 4109SOL    HW221296   8.343   3.147   1.989  0.3981  0.8419 -0.8788
 4110SOL     OW21297   1.088   9.847   9.532  0.7574  0.4497  0.8015
 4110SOL    HW121298   1.032   9.922   9.548  1.2254  0.7555  1.0233
 4110SOL    HW221299   1.155   9.851   9.601 -0.5603 -1.5062  2.3093
 4111SOL     OW21300   4.053   1.292   0.615  0.2724 -0.3502 -0.1133
 4111SOL    HW121301   4.096   1.301   0.530 -1.0370 -0.4331 -0.8148
 4111SOL    HW221302   4.115   1.242   0.668  0.6295 -1.3258 -1.4019
 4112SOL     OW21303  10.728   9.071   5.210  0.4136  0.0923 -0.6508
 4112SOL    HW121304  10.771   9.143   5.164  2.3694  0.1887  1.2105
 4112SOL    HW221305  10.690   9.112   5.288 -0.6801 -0.5046 -0.8444
 4113SOL     OW21306  11.733   7.994  11.396 -0.5686 -0.4264  0.0335
 4113SOL    HW121307  11.741   7.902  11.422 -0.8616  0.2125  2.6685
 4113SOL    HW221308  11.818   8.033  11.417  0.4268 -0.4740 -3.3016
 4114SOL     OW21309  12.365  10.022  10.871  0.6344 -0.3357 -0.3647
 4114SOL    HW121310  12.423  10.058  10.937  2.1810 -2.3210 -0.5425
 4114SOL    HW221311  12.311  10.096  10.843  2.3012  1.3254  0.6251
 4115SOL     OW21312   6.034   8.661   8.640 -0.2620  0.0701 -0.3062
 4115SOL    HW121313   5.978   8.662   8.562  0.6990 -2.7165 -1.1691
 4115SOL    HW221314   6.123   8.666   8.606  0.1312  0.7334  0.7737
 4116SOL     OW21315   8.748  10.622  12.123  0.2469  0.0506  0.8320
 4116SOL    HW121316   8.837  10.648  12.147  0.0547  0.7298  0.8393
 4116SOL    HW221317   8.694  10.654  12.195 -0.0729  0.1549  0.5454
 4117SOL     OW21318   2.915   6.035   5.889  0.3068  0.3606  0.0235
 4117SOL    HW121319   2.906   6.046   5.794  0.3935  1.2056  0.1134
 4117SOL    HW221320   2.987   6.092   5.914 -1.3919  2.1971  0.9831
 4118SOL     OW21321  11.537   9.066   8.263  0.0739  0.2159  0.2503
 4118SOL    HW121322  11.584   8.987   8.292 -0.1425 -0.2824 -0.6979
 4118SOL    HW221323  11.449   9.034   8.243 -0.5595  1.0576  1.5826
 4119SOL     OW21324   2.779  10.890  11.136  0.7074  0.4874  0.4357
 4119SOL    HW121325   2.691  10.926  11.146 -0.1118 -1.2190 -0.1349
 4119SOL    HW221326   2.791  10.884  11.041  1.0690 -0.1286  0.5150
 4120SOL     OW21327  12.334  10.295   9.492  0.0868  0.2954  0.1524
 4120SOL    HW121328  12.386  10.215   9.491 -0.6355 -0.1855  0.1748
 4120SOL    HW221329  12.262  10.277   9.431  0.7415  1.4926 -1.0063
 4121SOL     OW21330   6.147   7.112   4.057  0.1416  0.2476  0.1629
 4121SOL    HW121331   6.147   7.041   4.122 -2.0020 -0.2933 -0.3463
 4121SOL    HW221332   6.121   7.070   3.975 -1.3594  1.6181 -0.1101
 4122SOL     OW21333  11.646  10.246   7.937  0.5952 -0.3511  0.3070
 4122SOL    HW121334  11.679  10.314   7.996  1.4872 -0.8103  0.3554
 4122SOL    HW221335  11.552  10.262   7.932  0.6716  0.3718  0.9790
 4123SOL     OW21336  12.031   9.169   7.519 -0.0194  0.2102 -0.1220
 4123SOL    HW121337  12.080   9.145   7.598  0.0379  0.9852  0.0891
 4123SOL    HW221338  11.952   9.114   7.522  1.0946 -1.5292 -0.8067
 4124SOL     OW21339   4.772   3.490  10.759  0.6019 -0.1977 -0.4235
 4124SOL    HW121340   4.772   3.544  10.680  1.8971 -0.5388 -0.6716
 4124SOL    HW221341   4.864   3.468  10.774  0.6134  1.1435  2.0689
 4125SOL     OW21342   4.409   5.926   2.168  0.0203 -0.4083 -0.3620
 4125SOL    HW121343   4.468   5.854   2.190  0.4686  0.1315  0.2584
 4125SOL    HW221344   4.466   5.991   2.127 -0.3658 -0.3675 -0.8481
 4126SOL     OW21345   1.609   4.572   8.160 -0.4929  0.7498 -0.1063
 4126SOL    HW121346   1.607   4.575   8.065 -1.2564  1.1936 -0.0882
 4126SOL    HW221347   1.626   4.480   8.181 -3.4231 -0.0124 -0.6700
 4127SOL     OW21348   5.884   1.311  12.392 -0.0858  0.3200  0.1050
 4127SOL    HW121349   5.911   1.260  12.315 -1.1937 -1.4610  0.8303
 4127SOL    HW221350   5.844   1.390  12.355  1.1039  0.4096 -1.0811
 4128SOL     OW21351   4.077   4.208   2.025 -0.6399 -0.5197  0.3929
 4128SOL    HW121352   4.037   4.294   2.029  1.4705  0.5531 -0.3308
 4128SOL    HW221353   4.056   4.176   1.937 -1.9422 -1.0483  0.8732
 4129SOL     OW21354  10.309   1.503  11.021  0.2173  0.4567  0.9358
 4129SOL    HW121355  10.303   1.595  11.046  2.4737  0.9856 -0.2312
 4129SOL    HW221356  10.320   1.456  11.103 -3.5986  0.8107  1.8457
 4130SOL     OW21357   0.235   5.616   6.277  0.7979 -0.1710 -0.2205
 4130SOL    HW121358   0.219   5.685   6.213  1.4767 -0.6147 -0.8870
 4130SOL    HW221359   0.328   5.598   6.270  0.8927 -0.1980  0.9381
 4131SOL     OW21360   9.601  12.129   7.940  0.4632  0.5012 -0.0258
 4131SOL    HW121361   9.619  12.215   7.904 -0.9520  1.0757  0.5750
 4131SOL    HW221362   9.564  12.146   8.027 -1.1391 -0.6365 -0.4485
 4132SOL     OW21363   6.633   2.056   4.511 -0.6376 -0.4421  0.3621
 4132SOL    HW121364   6.635   2.143   4.471  1.3416 -1.3738 -1.8394
 4132SOL    HW221365   6.709   2.053   4.569 -0.4375 -0.8179  0.0907
 4133SOL     OW21366  11.368  12.139   7.343  0.2240  0.1521 -0.4502
 4133SOL    HW121367  11.312  12.064   7.366  1.8730 -1.0721 -0.2554
 4133SOL    HW221368  11.416  12.158   7.424  2.4268 -0.9264 -1.4447
 4134SOL     OW21369   5.097   4.620   1.189 -0.3013  0.4879  0.1755
 4134SOL    HW121370   5.127   4.673   1.116  0.4041  0.3482  0.3616
 4134SOL    HW221371   5.022   4.571   1.154  0.1735  0.2467 -0.5228
 4135SOL     OW21372  10.454   0.520   4.330 -0.0525  0.1784  0.2013
 4135SOL    HW121373  10.474   0.593   4.272  1.6646 -0.9676 -0.7331
 4135SOL    HW221374  10.477   0.442   4.280 -1.8033 -1.0345  1.1726
 4136SOL     OW21375  12.387  10.759   2.643 -0.2247 -0.5496 -0.5890
 4136SOL    HW121376  12.358  10.784   2.731 -0.5774 -1.0476 -0.5646
 4136SOL    HW221377  12.482  10.758   2.649 -0.2644 -1.6693  0.0964
 4137SOL     OW21378   6.766   5.565   5.794  0.2366  0.3620 -0.1675
 4137SOL    HW121379   6.811   5.620   5.859  1.7398 -1.0847  0.0996
 4137SOL    HW221380   6.735   5.489   5.845 -0.3023  0.1522 -0.8016
 4138SOL     OW21381  11.863   9.179   5.531 -0.0274  0.4029  0.0641
 4138SOL    HW121382  11.793   9.171   5.467 -1.3263  0.3885  1.4399
 4138SOL    HW221383  11.944   9.174   5.479 -1.0163 -0.1771 -1.4850
 4139SOL     OW21384   5.090   9.183   3.276 -0.1523  0.2003  0.2369
 4139SOL    HW121385   5.159   9.150   3.219 -1.8835 -0.7761 -1.4471
 4139SOL    HW221386   5.112   9.149   3.363  0.4419 -1.8239 -0.6316
 4140SOL     OW21387  11.758   7.743   5.877  0.3605 -0.8822 -0.0921
 4140SOL    HW121388  11.775   7.807   5.946  1.5152 -0.4600 -0.7426
 4140SOL    HW221389  11.664   7.752   5.858  0.3688  0.1283  0.3096
 4141SOL     OW21390   6.953   8.501   3.099  0.6314  0.8790  0.0721
 4141SOL    HW121391   6.922   8.511   3.008  0.1836  0.4731  0.1760
 4141SOL    HW221392   7.047   8.518   3.094  0.4934  1.5630 -0.3495
 4142SOL     OW21393   6.212   0.149   5.335  0.5510  0.0992 -0.3031
 4142SOL    HW121394   6.230   0.213   5.266 -0.3414  0.5206 -0.1706
 4142SOL    HW221395   6.193   0.068   5.288 -0.0399  0.3826 -0.5631
 4143SOL     OW21396  10.414   3.599   7.127  0.6662 -0.4602 -0.0969
 4143SOL    HW121397  10.385   3.509   7.146 -1.0388  0.0993  0.1244
 4143SOL    HW221398  10.428   3.638   7.213 -1.6222  0.3787 -0.0328
 4144SOL     OW21399  11.960   0.070  10.627 -0.4862  0.0615 -0.3941
 4144SOL    HW121400  11.918   0.155  10.623 -0.2332  0.2829  1.0553
 4144SOL    HW221401  12.052   0.089  10.642 -0.4942 -0.4624  0.3646
 4145SOL     OW21402  12.203   3.803   0.550  0.4015 -0.0544 -1.4972
 4145SOL    HW121403  12.129   3.757   0.590  2.0291 -1.8912 -0.4346
 4145SOL    HW221404  12.200   3.890   0.590 -1.4113  0.0910 -1.8291
 4146SOL     OW21405   5.608  11.486   3.363  0.6770 -0.2915 -0.2297
 4146SOL    HW121406   5.642  11.575   3.359  1.8405 -0.7658 -1.5424
 4146SOL    HW221407   5.517  11.496   3.390  1.2283  1.1643  1.2701
 4147SOL     OW21408   5.210   4.367   5.041 -0.2598  0.1047 -0.4507
 4147SOL    HW121409   5.215   4.459   5.066 -0.2480  0.3280 -1.2829
 4147SOL    HW221410   5.251   4.321   5.115 -2.2318  0.5635  1.0068
 4148SOL     OW21411   4.387   7.240   6.466 -0.0479  0.2558 -0.4411
 4148SOL    HW121412   4.408   7.261   6.375  0.3342  0.2755 -0.3519
 4148SOL    HW221413   4.382   7.325   6.509 -3.2188  0.4756 -1.0416
 4149SOL     OW21414   3.348   9.301  10.677  0.4229  0.1361  0.3212
 4149SOL    HW121415   3.395   9.249  10.741 -1.3848 -0.9925  0.8180
 4149SOL    HW221416   3.353   9.251  10.596 -0.5525 -0.3952  0.5740
 4150SOL     OW21417   2.789   8.520   7.275  0.3889 -0.3274 -0.1101
 4150SOL    HW121418   2.878   8.502   7.304  0.2039 -1.3304 -0.1233
 4150SOL    HW221419   2.782   8.475   7.190  1.0699  2.8920 -2.0403
 4151SOL     OW21420   4.734   5.590  12.138  0.6211  0.4280  0.8158
 4151SOL    HW121421   4.743   5.681  12.107  0.2245 -0.0368 -0.7763
 4151SOL    HW221422   4.698   5.543  12.063  0.6825 -1.0306  1.6660
 4152SOL     OW21423   1.898   4.948   1.928 -0.1263 -0.4179 -0.4294
 4152SOL    HW121424   1.981   4.912   1.895 -0.3134 -1.1508 -0.1057
 4152SOL    HW221425   1.889   5.032   1.882 -0.2843 -1.3161 -2.0910
 4153SOL     OW21426   3.566   0.065   0.903  0.0400 -0.2687 -0.2866
 4153SOL    HW121427   3.615   0.131   0.854 -0.9789  0.4832 -0.3292
 4153SOL    HW221428   3.509   0.116   0.961  0.5383 -1.1276  1.0102
 4154SOL     OW21429   4.763   1.959  10.443 -0.7865  0.4615  0.3819
 4154SOL    HW121430   4.692   1.968  10.379 -2.2791 -1.7000  1.6018
 4154SOL    HW221431   4.801   1.873  10.424  1.8815  1.7583 -0.5164
 4155SOL     OW21432  10.157   3.361   7.696 -0.0094  0.2712 -0.3895
 4155SOL    HW121433  10.079   3.406   7.730  0.1938  0.1558  0.2525
 4155SOL    HW221434  10.139   3.348   7.603 -1.0909 -0.4076 -0.1101
 4156SOL     OW21435   0.810   3.294   0.825 -0.3171 -0.0888 -0.3815
 4156SOL    HW121436   0.820   3.201   0.848  0.0786  0.0665  0.1021
 4156SOL    HW221437   0.745   3.327   0.886 -0.2730  0.0073 -0.3864
 4157SOL     OW21438   0.904   2.002  10.028  0.2020 -0.3664 -0.5426
 4157SOL    HW121439   0.995   2.030  10.029 -0.2209  1.1026 -0.9214
 4157SOL    HW221440   0.867   2.043   9.949 -0.5942 -1.5918 -0.8321
 4158SOL     OW21441   0.640   8.516   8.894  0.1443 -0.2079  0.2589
 4158SOL    HW121442   0.663   8.447   8.956  4.1482  1.2436  0.6900
 4158SOL    HW221443   0.621   8.593   8.948 -2.5840 -0.3995 -0.2721
 4159SOL     OW21444   1.306   3.244   7.216 -0.0452  0.4161  0.2065
 4159SOL    HW121445   1.228   3.248   7.162  0.6119  1.8570 -0.6925
 4159SOL    HW221446   1.370   3.196   7.162 -0.4238 -1.2127  1.1387
 4160SOL     OW21447   5.470   6.484   2.129 -0.5509 -0.1966  0.3227
 4160SOL    HW121448   5.502   6.397   2.105 -1.0256  0.2326 -2.2389
 4160SOL    HW221449   5.376   6.473   2.140 -0.5168 -0.1363  0.6695
 4161SOL     OW21450   9.896  10.976   1.138  0.3282 -0.2815 -0.0695
 4161SOL    HW121451   9.941  10.907   1.186 -0.9212 -1.4087 -0.4756
 4161SOL    HW221452   9.881  11.045   1.203  1.7400 -0.2918  0.2958
 4162SOL     OW21453   4.620   6.822  11.721  0.4450  0.5424  0.3270
 4162SOL    HW121454   4.538   6.797  11.764  0.6213  1.0269  0.9548
 4162SOL    HW221455   4.624   6.765  11.644 -0.3625  0.3470  0.4121
 4163SOL     OW21456   6.234   1.272   2.220 -0.3262  0.3059  0.3811
 4163SOL    HW121457   6.241   1.268   2.124 -0.2587  0.6128  0.3714
 4163SOL    HW221458   6.193   1.189   2.244  0.4616 -0.1655  0.1631
 4164SOL     OW21459   5.703   3.358   1.852  0.0785  0.1711  0.1607
 4164SOL    HW121460   5.611   3.337   1.870 -0.2412  0.2518 -1.2823
 4164SOL    HW221461   5.750   3.276   1.872 -0.4110 -0.1296  0.0943
 4165SOL     OW21462   3.866  12.347   3.613  0.0963 -0.2875  0.1531
 4165SOL    HW121463   3.930  12.277   3.627  1.4188  0.9417  0.4563
 4165SOL    HW221464   3.858  12.390   3.698 -0.8953 -0.2251  0.0337
 4166SOL     OW21465  12.484  10.227   4.910 -0.3620  0.2581  0.5311
 4166SOL    HW121466  12.493  10.132   4.901  0.7771  0.1454  2.3734
 4166SOL    HW221467  12.573  10.260   4.910 -0.6548  1.1273  1.5653
 4167SOL     OW21468  12.558   4.508   7.878  0.2452  0.5037  0.1007
 4167SOL    HW121469  12.648   4.484   7.860  0.1191  0.6930 -0.8431
 4167SOL    HW221470  12.540   4.473   7.965  0.7913 -0.7837 -0.2781
 4168SOL     OW21471   2.690  10.631   4.932  0.0914 -0.5922  0.0391
 4168SOL    HW121472   2.615  10.590   4.887 -0.5905  0.5395  0.1062
 4168SOL    HW221473   2.670  10.620   5.025 -0.7828  1.0439  0.0738
 4169SOL     OW21474  11.440   5.107   9.279 -0.4617  0.2442 -0.8418
 4169SOL    HW121475  11.468   5.112   9.370 -1.2486  1.6088 -0.6393
 4169SOL    HW221476  11.345   5.120   9.282 -0.6255 -0.6274 -1.7803
 4170SOL     OW21477   0.076   3.077  12.284 -0.3253  0.2615  0.1098
 4170SOL    HW121478   0.036   3.058  12.369  0.7182 -1.1264  0.3196
 4170SOL    HW221479   0.103   3.169  12.290  0.5786 -0.0776  1.6518
 4171SOL     OW21480  11.944  12.270   6.981 -0.2634  0.5397 -0.4358
 4171SOL    HW121481  11.854  12.241   6.964 -0.2224  0.4461 -0.4945
 4171SOL    HW221482  11.935  12.359   7.013 -0.3734  0.5594 -0.5207
 4172SOL     OW21483  11.036  11.330   0.411 -0.1596 -0.9215  0.3939
 4172SOL    HW121484  11.119  11.334   0.458 -0.5037  0.2300  0.9436
 4172SOL    HW221485  11.058  11.290   0.327  0.5504 -2.6563  1.3291
 4173SOL     OW21486   6.671  11.362   8.917 -0.2360 -0.4827 -0.3271
 4173SOL    HW121487   6.751  11.348   8.967  0.8137  0.1106 -1.7677
 4173SOL    HW221488   6.611  11.403   8.978  0.9878  0.1853  0.4647
 4174SOL     OW21489   2.158   6.507   7.825 -0.0039 -0.4106 -0.1899
 4174SOL    HW121490   2.136   6.580   7.769 -0.7889 -0.3074  0.2408
 4174SOL    HW221491   2.242   6.531   7.865 -1.1611  1.1581  1.4355
 4175SOL     OW21492   5.388  11.900   5.771 -0.5719 -0.1276  0.2603
 4175SOL    HW121493   5.335  11.847   5.711  2.5954 -1.2366 -1.8119
 4175SOL    HW221494   5.450  11.839   5.809  0.2811  1.3413  1.3414
 4176SOL     OW21495   6.846   3.127  11.754  0.1971 -0.2064  0.1319
 4176SOL    HW121496   6.922   3.090  11.710  0.5532  1.5725 -0.8672
 4176SOL    HW221497   6.881   3.170  11.831  0.4794  1.7931 -1.0373
 4177SOL     OW21498   4.379   1.758  10.048  0.7083  0.0710 -0.0078
 4177SOL    HW121499   4.330   1.764  10.130  1.8604  0.6422  0.6787
 4177SOL    HW221500   4.343   1.828   9.993  1.7483  1.5319  1.0756
 4178SOL     OW21501   1.662   5.672   4.232  0.1841 -0.2777  0.3670
 4178SOL    HW121502   1.680   5.635   4.319 -1.3303  2.0765  1.7686
 4178SOL    HW221503   1.716   5.751   4.228 -0.8984  0.4497 -0.2135
 4179SOL     OW21504   0.487   1.537   0.152 -0.0160 -0.2496  0.4482
 4179SOL    HW121505   0.481   1.444   0.133  0.4849  0.0722 -1.4867
 4179SOL    HW221506   0.527   1.541   0.239 -0.4156 -1.8280  0.7320
 4180SOL     OW21507  11.081  11.342   1.212  0.3502  0.2575  0.4317
 4180SOL    HW121508  11.166  11.307   1.239  0.7261 -0.9500 -2.0797
 4180SOL    HW221509  11.095  11.371   1.122 -2.4827 -2.3427 -1.0113
 4181SOL     OW21510   0.355   3.455   1.806 -0.1580 -1.1701 -0.0980
 4181SOL    HW121511   0.266   3.430   1.783 -0.5297 -0.8784  0.9337
 4181SOL    HW221512   0.399   3.467   1.723 -2.2452  2.9110 -0.8589
 4182SOL     OW21513   4.196  10.031   6.784 -0.1372  0.4189 -0.1531
 4182SOL    HW121514   4.268  10.069   6.835  0.8186 -2.3117  0.7261
 4182SOL    HW221515   4.235  10.011   6.699 -0.0646 -0.3562  0.0599
 4183SOL     OW21516   7.033   5.643   4.444  0.2684  0.1082  0.3808
 4183SOL    HW121517   6.990   5.558   4.441  0.6302 -0.0573 -1.7192
 4183SOL    HW221518   7.099   5.639   4.375 -0.2339  2.3449 -0.3173
 4184SOL     OW21519   8.635  11.603   4.310  0.4755  0.3084 -0.0266
 4184SOL    HW121520   8.676  11.526   4.272 -0.5991  0.1243 -0.8680
 4184SOL    HW221521   8.562  11.568   4.362 -1.6540  0.8001 -2.4748
 4185SOL     OW21522   8.471   8.749   7.519  0.6059  0.4232 -0.5269
 4185SOL    HW121523   8.495   8.785   7.433 -0.6699 -0.8399 -1.4747
 4185SOL    HW221524   8.453   8.826   7.573  1.7609  1.2497 -1.2883
 4186SOL     OW21525   3.017  11.016   4.539  0.1679 -0.2980  0.1006
 4186SOL    HW121526   3.042  10.935   4.494  1.6953  0.4909 -0.5468
 4186SOL    HW221527   3.077  11.021   4.613 -1.1435 -0.6639  1.2266
 4187SOL     OW21528   3.833  11.993   7.032  0.8032 -0.1749 -0.4124
 4187SOL    HW121529   3.841  11.905   7.067  0.3343  0.0112  0.1876
 4187SOL    HW221530   3.764  11.986   6.966 -0.6019  0.1010  0.9594
 4188SOL     OW21531   9.462   0.942   8.362  0.1403 -0.1679 -0.2167
 4188SOL    HW121532   9.490   0.955   8.271  0.0311 -0.2074 -0.2574
 4188SOL    HW221533   9.480   0.850   8.380  0.4830 -0.0747 -0.0831
 4189SOL     OW21534   1.150   8.483   6.866 -0.2113 -0.5038 -0.1986
 4189SOL    HW121535   1.073   8.433   6.894 -0.5101  0.7007  1.2775
 4189SOL    HW221536   1.222   8.420   6.869 -0.3558 -0.6366  2.7484
 4190SOL     OW21537   7.580   0.691   6.266  0.2160 -0.3132 -0.0134
 4190SOL    HW121538   7.581   0.691   6.361  2.7273  0.1653  0.0464
 4190SOL    HW221539   7.662   0.734   6.241 -0.0161 -1.0591 -2.3898
 4191SOL     OW21540  11.353  10.876   4.163  0.3899  0.3081 -0.2168
 4191SOL    HW121541  11.375  10.816   4.091  2.4587  0.3579  0.3074
 4191SOL    HW221542  11.398  10.839   4.239 -2.7061 -0.4205  1.4328
 4192SOL     OW21543   0.432   0.683   9.916 -0.2868  0.2381  0.2526
 4192SOL    HW121544   0.425   0.773   9.948 -1.4535  0.6253 -0.9778
 4192SOL    HW221545   0.342   0.650   9.917  0.0094 -0.6229 -0.1301
 4193SOL     OW21546   1.568   3.188   2.490 -0.1402 -0.0987  0.3228
 4193SOL    HW121547   1.505   3.148   2.550 -2.0760  0.6324 -1.1056
 4193SOL    HW221548   1.544   3.281   2.490  0.2061  0.0062 -1.1135
 4194SOL     OW21549   4.919   3.784  11.056 -0.2073 -0.0972 -0.0621
 4194SOL    HW121550   4.846   3.817  11.108  1.2528  0.9322  1.4155
 4194SOL    HW221551   4.997   3.823  11.095  1.1439 -0.9666 -1.7362
 4195SOL     OW21552   2.989   8.120   3.499  0.5276 -0.3682 -0.1569
 4195SOL    HW121553   2.940   8.080   3.427 -0.5675 -1.4835  1.1607
 4195SOL    HW221554   2.988   8.214   3.479 -0.6782 -0.5520 -1.0591
 4196SOL     OW21555   7.996   3.328   2.106 -0.4175  0.3088 -0.0648
 4196SOL    HW121556   8.046   3.371   2.037  1.5997  0.9366  1.6674
 4196SOL    HW221557   7.907   3.361   2.096  0.3600  2.3159 -0.8633
 4197SOL     OW21558   6.073   3.944   9.526 -0.1835 -0.2337  0.1553
 4197SOL    HW121559   5.984   3.909   9.518 -0.5417  0.8758 -1.0354
 4197SOL    HW221560   6.089   3.988   9.443  1.2420  0.1537  0.6090
 4198SOL     OW21561  10.772   6.159  11.094  0.4486  0.3792  0.5583
 4198SOL    HW121562  10.694   6.146  11.146  0.3992  0.4053  0.4914
 4198SOL    HW221563  10.745   6.220  11.025  0.1434 -0.7333 -0.3252
 4199SOL     OW21564   9.689   2.663   0.205 -0.1675  0.5574 -0.1756
 4199SOL    HW121565   9.657   2.735   0.150  1.3530  0.8289 -0.7442
 4199SOL    HW221566   9.648   2.585   0.168 -0.3794  0.9146 -0.7107
 4200SOL     OW21567   6.872   7.581   0.211  0.0773 -0.2374  0.5765
 4200SOL    HW121568   6.903   7.497   0.246  0.2383 -1.1105 -1.5071
 4200SOL    HW221569   6.942   7.643   0.232  0.1023 -0.6704  1.8548
 4201SOL     OW21570   2.340   1.210   6.157 -0.4417  0.5342  0.0256
 4201SOL    HW121571   2.409   1.163   6.110  0.3110  2.2251 -0.6427
 4201SOL    HW221572   2.363   1.302   6.147 -2.2155  1.0908  0.7333
 4202SOL     OW21573   1.130   8.238   4.622  0.4731 -0.7229 -0.4684
 4202SOL    HW121574   1.045   8.195   4.626 -0.0206  0.0335 -1.8137
 4202SOL    HW221575   1.133   8.293   4.700  0.4303 -1.9466  0.4153
 4203SOL     OW21576   2.454  11.690  12.238  0.1682 -0.0464 -0.8350
 4203SOL    HW121577   2.454  11.780  12.205  0.4000 -0.3114 -1.5695
 4203SOL    HW221578   2.519  11.690  12.309  0.0823  0.3882 -0.7539
 4204SOL     OW21579  12.092  11.523   6.374  0.2444 -0.4196  0.0749
 4204SOL    HW121580  12.113  11.616   6.381  2.8051 -0.7755 -1.3351
 4204SOL    HW221581  12.007  11.514   6.416  0.3944  2.3592  1.2113
 4205SOL     OW21582   5.582   2.237  11.187 -0.4569 -0.2135 -0.1549
 4205SOL    HW121583   5.516   2.301  11.215  0.9735  0.9704  0.6482
 4205SOL    HW221584   5.610   2.195  11.268  0.2260 -0.2626 -0.4120
 4206SOL     OW21585   2.973   1.147   2.685  0.1723 -0.4154 -0.5035
 4206SOL    HW121586   2.915   1.196   2.744  0.1228 -1.2527  0.1595
 4206SOL    HW221587   3.054   1.198   2.683  0.2320 -0.4620  0.4310
 4207SOL     OW21588  11.483  10.120   5.850 -0.6402  0.2787  0.0662
 4207SOL    HW121589  11.542  10.109   5.924 -0.1482 -0.9007 -0.4741
 4207SOL    HW221590  11.541  10.125   5.774 -1.1722  0.6661 -0.3230
 4208SOL     OW21591   1.113   5.300   4.942 -0.4845  0.4975  0.1142
 4208SOL    HW121592   1.144   5.231   4.884 -1.1714 -0.4608  0.8574
 4208SOL    HW221593   1.167   5.292   5.021  0.1639  1.5244 -0.1991
 4209SOL     OW21594   8.740   0.290   4.548  0.0574 -0.2819 -0.0128
 4209SOL    HW121595   8.725   0.262   4.458  0.1066  2.1453 -0.8506
 4209SOL    HW221596   8.654   0.320   4.578  0.7384  2.8451 -0.8052
 4210SOL     OW21597  11.625   1.374   6.055 -0.1635 -0.3461  0.5300
 4210SOL    HW121598  11.704   1.336   6.094  0.8760 -0.5756 -1.6282
 4210SOL    HW221599  11.554   1.319   6.086  0.4945 -0.1057  2.5718
 4211SOL     OW21600   9.848   4.156   2.824  0.2425 -0.2301  0.0259
 4211SOL    HW121601   9.835   4.219   2.895  0.2692 -0.9204  0.6536
 4211SOL    HW221602   9.769   4.163   2.770 -0.8674 -1.3238  1.4099
 4212SOL     OW21603   8.418   1.241   9.808 -0.3542 -0.3501  0.1370
 4212SOL    HW121604   8.436   1.150   9.831 -0.4325 -0.4138 -0.0487
 4212SOL    HW221605   8.484   1.263   9.743 -0.5250 -0.3730 -0.0468
 4213SOL     OW21606  11.902   6.160   0.698 -0.2209  0.3673  0.2822
 4213SOL    HW121607  11.898   6.133   0.789 -0.1470  0.2738  0.2575
 4213SOL    HW221608  11.986   6.204   0.689 -0.5773  1.1071  0.4602
 4214SOL     OW21609   9.183  10.336  11.456 -0.4146  0.9957  0.0398
 4214SOL    HW121610   9.218  10.254  11.491  1.1774  1.3753 -0.5725
 4214SOL    HW221611   9.088  10.326  11.461 -0.2451 -0.1549  1.6466
 4215SOL     OW21612  10.894   6.480   9.513  0.7020 -0.0279  0.1782
 4215SOL    HW121613  10.954   6.547   9.481  2.1695  0.0807  2.8509
 4215SOL    HW221614  10.812   6.527   9.528  1.0004  0.6304 -0.1831
 4216SOL     OW21615   1.960   8.064  10.000 -0.0307  0.2356  0.4637
 4216SOL    HW121616   1.998   8.140   9.957  1.6244 -0.4762  0.6043
 4216SOL    HW221617   2.027   8.034  10.062 -0.6309 -1.3144  0.4208
 4217SOL     OW21618   5.563  11.069   5.144 -0.4503 -0.1580 -0.3917
 4217SOL    HW121619   5.521  11.130   5.205 -0.4380 -0.5147 -0.0259
 4217SOL    HW221620   5.656  11.088   5.152 -0.1707 -2.0865  1.7976
 4218SOL     OW21621   5.720   8.147   4.500  0.3866 -0.2723  0.7247
 4218SOL    HW121622   5.637   8.161   4.545  0.5371  0.6730  0.7324
 4218SOL    HW221623   5.785   8.148   4.570  0.3486 -1.9103  0.8319
 4219SOL     OW21624   1.478  10.781   9.349 -0.0941 -0.3014 -1.1181
 4219SOL    HW121625   1.391  10.783   9.309 -0.6285 -0.6846 -0.0059
 4219SOL    HW221626   1.475  10.849   9.417  0.1484 -0.9726 -0.4293
 4220SOL     OW21627   1.766  11.265   2.400 -0.0616  0.3616 -0.8384
 4220SOL    HW121628   1.690  11.208   2.409  0.5922 -0.4709 -0.3908
 4220SOL    HW221629   1.743  11.344   2.449 -0.2110 -0.3383  0.2462
 4221SOL     OW21630   0.491   1.635   6.147  0.1665 -0.0843  0.4104
 4221SOL    HW121631   0.519   1.543   6.143  0.4132 -0.0717  1.6029
 4221SOL    HW221632   0.504   1.668   6.058 -2.8976 -2.0487 -0.9695
 4222SOL     OW21633  12.285   8.366   7.308  0.3918  0.2215 -0.1956
 4222SOL    HW121634  12.316   8.409   7.388 -0.7518 -2.6499  1.9650
 4222SOL    HW221635  12.341   8.289   7.299 -0.1585 -0.0403 -1.6480
 4223SOL     OW21636   6.325   0.721  10.462  0.1070 -0.0005 -0.3267
 4223SOL    HW121637   6.242   0.759  10.494 -0.4671 -2.4111  1.3130
 4223SOL    HW221638   6.329   0.747  10.370 -1.6765  1.5040 -0.0409
 4224SOL     OW21639   1.424  12.460   0.806 -0.4228  0.0793 -0.1325
 4224SOL    HW121640   1.432  12.371   0.773  1.0615 -0.0969  0.6103
 4224SOL    HW221641   1.348  12.458   0.864 -1.0078 -0.4367 -0.9038
 4225SOL     OW21642   3.213   5.205   6.615 -0.5177  0.9313 -0.4167
 4225SOL    HW121643   3.265   5.145   6.562  0.0065  0.8368  0.1894
 4225SOL    HW221644   3.237   5.292   6.583  0.6188  0.9328  0.3549
 4226SOL     OW21645   8.698   7.550   8.400  0.1759 -0.2599 -0.2157
 4226SOL    HW121646   8.768   7.506   8.449 -0.3538 -1.2422 -0.3166
 4226SOL    HW221647   8.738   7.572   8.316  0.7296  0.3368  0.1895
 4227SOL     OW21648  10.719   5.677   3.527 -0.1060 -0.0999 -0.0173
 4227SOL    HW121649  10.644   5.624   3.502  1.1182 -1.4492 -1.0141
 4227SOL    HW221650  10.686   5.767   3.529 -1.6668 -0.6289 -0.6449
 4228SOL     OW21651  11.630  10.993   0.957 -0.5365 -0.2344  0.0222
 4228SOL    HW121652  11.678  11.036   0.886 -0.4695  3.2403  1.9366
 4228SOL    HW221653  11.694  10.933   0.996  1.4357  2.1215  0.6719
 4229SOL     OW21654   7.109   0.261   3.835 -0.4058 -0.1138  0.2025
 4229SOL    HW121655   7.180   0.317   3.868 -0.4635  0.0286  0.0847
 4229SOL    HW221656   7.150   0.176   3.822 -0.9484 -0.9507  3.1738
 4230SOL     OW21657  12.501   5.479   5.378  0.3091 -0.3186 -0.1980
 4230SOL    HW121658  12.542   5.428   5.447 -1.1771 -0.4441  0.6383
 4230SOL    HW221659  12.435   5.420   5.341  0.5040  0.0451 -1.1476
 4231SOL     OW21660  11.318   3.076   8.512 -0.2607  0.0671  0.1340
 4231SOL    HW121661  11.339   2.988   8.484 -0.8192 -0.5751  1.6147
 4231SOL    HW221662  11.223   3.076   8.523 -0.2555  0.8179  0.2656
 4232SOL     OW21663   6.793  11.591   3.275 -0.2803  0.5626 -0.2638
 4232SOL    HW121664   6.799  11.686   3.273 -1.4045  0.6476 -0.1877
 4232SOL    HW221665   6.728  11.572   3.342 -0.4320 -0.2381 -0.6205
 4233SOL     OW21666   9.625   7.748   7.406  0.4908 -0.0668  0.1800
 4233SOL    HW121667   9.696   7.710   7.353 -0.3471  0.0166 -1.0499
 4233SOL    HW221668   9.595   7.823   7.356 -1.1808 -0.7265  0.1264
 4234SOL     OW21669   2.904  11.305  11.653 -0.1431 -0.5048  0.1471
 4234SOL    HW121670   2.889  11.225  11.703 -1.3376 -0.8525 -0.7373
 4234SOL    HW221671   2.989  11.337  11.684 -0.2464 -1.4087  1.4388
 4235SOL     OW21672   7.459   7.732   6.456  0.2005  0.2423 -1.0431
 4235SOL    HW121673   7.364   7.742   6.447  0.1370  0.0632 -0.5946
 4235SOL    HW221674   7.470   7.686   6.539  0.7674  2.0665 -0.0501
 4236SOL     OW21675   2.697  11.649   6.521 -0.3174  0.2681 -0.6005
 4236SOL    HW121676   2.628  11.678   6.581  0.1943  0.3376 -0.0430
 4236SOL    HW221677   2.771  11.707   6.539 -0.2622  0.4944 -1.5189
 4237SOL     OW21678   7.927  10.531   0.957 -0.0901  0.4726  0.2808
 4237SOL    HW121679   7.944  10.621   0.928 -0.0062  0.0051 -1.2172
 4237SOL    HW221680   7.834  10.531   0.979 -0.1287  0.9032  0.1453
 4238SOL     OW21681   0.072  11.356   9.011  0.1959 -0.0523 -0.0444
 4238SOL    HW121682  -0.019  11.383   9.014 -0.3485 -1.8242  0.6046
 4238SOL    HW221683   0.107  11.379   9.097  0.7013  1.6384 -0.6717
 4239SOL     OW21684  11.664  11.209   6.133 -0.0196  0.7208 -0.8207
 4239SOL    HW121685  11.659  11.136   6.071  1.1445  1.0307 -1.3150
 4239SOL    HW221686  11.599  11.271   6.102 -0.7033  0.1061 -0.6620
 4240SOL     OW21687   8.859  11.411  11.965 -0.4951  0.5497 -0.1328
 4240SOL    HW121688   8.899  11.495  11.987 -1.0449  0.8784 -0.3746
 4240SOL    HW221689   8.826  11.422  11.876  1.2330 -0.5859 -0.9939
 4241SOL     OW21690   6.214  12.329  10.524 -0.5381  0.3716  0.1632
 4241SOL    HW121691   6.199  12.397  10.590 -0.1459  0.4378  0.1848
 4241SOL    HW221692   6.172  12.251  10.560  0.0835  0.2866  0.7046
 4242SOL     OW21693   2.186   6.254  10.888  0.1551 -0.2585  0.1456
 4242SOL    HW121694   2.143   6.293  10.812  0.3598  1.7864  1.0275
 4242SOL    HW221695   2.273   6.292  10.888  0.6012 -1.2361  0.7070
 4243SOL     OW21696   7.308  10.444   0.696  0.4968 -0.0095 -0.1460
 4243SOL    HW121697   7.403  10.445   0.685  0.5667 -2.5087 -0.3934
 4243SOL    HW221698   7.295  10.403   0.782 -0.3746  0.7467  0.1006
 4244SOL     OW21699   1.999  11.285  11.203 -0.2066 -0.7988 -0.0853
 4244SOL    HW121700   1.986  11.222  11.133  1.3410 -0.9751 -0.2507
 4244SOL    HW221701   1.974  11.239  11.283 -0.1244 -1.2522 -0.3201
 4245SOL     OW21702   7.081   2.349   7.192  0.1648  0.0399 -0.0033
 4245SOL    HW121703   7.176   2.350   7.187  0.3458  1.6860  2.2836
 4245SOL    HW221704   7.060   2.274   7.247  0.1557  0.0317 -0.0178
 4246SOL     OW21705   0.019   4.696   8.828 -0.3151  0.4786 -0.0802
 4246SOL    HW121706  -0.016   4.763   8.887  0.4334  0.8216 -0.0258
 4246SOL    HW221707   0.109   4.722   8.812  0.3522 -1.1334  0.8569
 4247SOL     OW21708  10.109   9.154   2.597 -0.1014 -0.7003  0.1000
 4247SOL    HW121709  10.023   9.129   2.631  0.1091 -1.9884 -0.2915
 4247SOL    HW221710  10.154   9.191   2.674 -0.0718 -2.4543  0.9757
 4248SOL     OW21711   9.897   4.008  12.454  0.0490 -0.1233  0.4272
 4248SOL    HW121712   9.992   4.021  12.464  0.1897 -1.2030  0.6367
 4248SOL    HW221713   9.889   3.941  12.386 -0.6305  1.0158 -0.6349
 4249SOL     OW21714   1.459  11.641   7.661 -0.2549  0.3435 -0.3067
 4249SOL    HW121715   1.472  11.723   7.707 -1.0245  0.3055 -0.0047
 4249SOL    HW221716   1.379  11.604   7.698  1.5507 -1.9775  1.6441
 4250SOL     OW21717   2.241   6.524   2.302  0.3832 -0.4595  0.1683
 4250SOL    HW121718   2.234   6.544   2.395  1.1156  2.3985 -0.2620
 4250SOL    HW221719   2.152   6.501   2.275 -0.0716 -0.1863  1.3768
 4251SOL     OW21720   4.739   3.751  12.564 -0.3584 -0.1443 -0.2167
 4251SOL    HW121721   4.762   3.658  12.570 -0.7175 -0.1450  3.8459
 4251SOL    HW221722   4.792   3.784  12.491  2.0875 -2.9131  0.1265
 4252SOL     OW21723   5.041   6.041   7.722 -0.1165 -0.2465 -0.4007
 4252SOL    HW121724   4.986   5.990   7.663  1.0654 -1.8611 -0.1821
 4252SOL    HW221725   5.128   6.037   7.681  0.9894 -2.3343  1.9012
 4253SOL     OW21726   9.624   2.517   3.786  0.7871 -1.3405 -0.3763
 4253SOL    HW121727   9.549   2.551   3.834  1.2426 -2.6760  1.3634
 4253SOL    HW221728   9.623   2.423   3.802  2.1986 -1.5356 -1.2433
 4254SOL     OW21729   4.001  11.291   0.124  0.6857 -0.4447  0.3872
 4254SOL    HW121730   4.041  11.220   0.175  4.0341 -0.8578 -2.4671
 4254SOL    HW221731   3.949  11.247   0.058  2.3682 -0.3260 -1.0793
 4255SOL     OW21732   1.280   0.299  10.065  0.3087  0.7548  0.2378
 4255SOL    HW121733   1.204   0.262  10.019  1.4993  0.3312 -1.4818
 4255SOL    HW221734   1.252   0.387  10.089 -1.0152  0.3186  0.3956
 4256SOL     OW21735   8.773   0.401  12.259  0.5726  0.4462  0.1795
 4256SOL    HW121736   8.861   0.366  12.273 -0.0797 -0.1253  3.9623
 4256SOL    HW221737   8.784   0.496  12.270  0.5461  0.2302  3.0644
 4257SOL     OW21738   4.833   0.313   2.118  0.2905  0.1980 -0.0828
 4257SOL    HW121739   4.905   0.300   2.056 -0.1791  2.2992 -1.1573
 4257SOL    HW221740   4.754   0.299   2.067 -0.1009 -0.4853  0.6880
 4258SOL     OW21741  11.029   9.237   3.799 -0.1256  0.4719 -0.2162
 4258SOL    HW121742  10.941   9.270   3.779  0.1024  2.0959  1.1587
 4258SOL    HW221743  11.080   9.316   3.819  1.6740 -0.4348 -1.0093
 4259SOL     OW21744   0.865   9.543   2.197  0.0576  0.8010 -0.0712
 4259SOL    HW121745   0.854   9.626   2.242 -0.1144  0.2795  0.8912
 4259SOL    HW221746   0.828   9.478   2.257  1.0343 -0.0764 -0.3764
 4260SOL     OW21747   0.551   2.845   3.235  0.4798  0.1018 -0.3027
 4260SOL    HW121748   0.623   2.881   3.287  0.4957 -0.6620  0.2166
 4260SOL    HW221749   0.539   2.908   3.164  1.0556  0.7004  0.1198
 4261SOL     OW21750   3.789   7.959   8.987 -0.4655 -0.2665 -0.5352
 4261SOL    HW121751   3.759   7.901   8.917 -0.6428 -0.0562 -0.6363
 4261SOL    HW221752   3.723   7.952   9.055 -1.4981  1.2303 -1.3150
 4262SOL     OW21753   5.803  12.306   9.713  0.1603  0.1292 -0.6263
 4262SOL    HW121754   5.832  12.215   9.706 -4.3298 -1.5982 -0.2580
 4262SOL    HW221755   5.763  12.312   9.800 -0.9649  1.9603 -1.2010
 4263SOL     OW21756   9.148   5.810  11.806 -1.1720 -0.2410 -0.1464
 4263SOL    HW121757   9.230   5.859  11.812 -1.0117 -0.6580  2.5707
 4263SOL    HW221758   9.091   5.852  11.871 -3.0991 -0.0319 -1.8903
 4264SOL     OW21759   0.704   3.926   2.503 -0.7293  0.6053  0.1509
 4264SOL    HW121760   0.763   3.963   2.438  1.1941 -2.0778  0.2088
 4264SOL    HW221761   0.661   3.854   2.459 -0.8063 -0.0818  1.3008
 4265SOL     OW21762   8.394   0.901   2.905  0.1868  0.0890 -0.3717
 4265SOL    HW121763   8.345   0.873   2.983  1.1733 -0.4332  0.0778
 4265SOL    HW221764   8.486   0.886   2.928  0.5384  0.6625 -1.3541
 4266SOL     OW21765   3.237   9.133   1.180  0.4332 -0.2323  0.4933
 4266SOL    HW121766   3.167   9.132   1.244  0.6346 -0.9122  0.7046
 4266SOL    HW221767   3.194   9.113   1.097  0.0096  1.5788  0.2228
 4267SOL     OW21768   5.091  11.217   2.416  0.2671  0.7044 -0.0542
 4267SOL    HW121769   5.041  11.142   2.383  1.4230  0.6218 -1.7390
 4267SOL    HW221770   5.054  11.234   2.503 -1.0435 -0.8437 -0.2590
 4268SOL     OW21771  10.237   8.990   8.856 -0.0247  0.7337  0.2409
 4268SOL    HW121772  10.289   9.064   8.887 -0.2087  1.2764 -0.7104
 4268SOL    HW221773  10.165   9.030   8.808  0.7088 -0.0630 -1.6290
 4269SOL     OW21774   3.801   5.599   0.889  0.3731  0.0992 -0.0816
 4269SOL    HW121775   3.740   5.642   0.828  0.9565  1.3707  0.1909
 4269SOL    HW221776   3.751   5.526   0.925 -0.8527  0.8392 -0.1932
 4270SOL     OW21777   8.892   7.218  11.004  0.2554  0.3872  0.8401
 4270SOL    HW121778   8.878   7.229  10.910 -0.3215 -0.7469  0.7693
 4270SOL    HW221779   8.915   7.305  11.036 -2.2364  1.4139  0.1071
 4271SOL     OW21780   8.101   7.907  11.678  0.9705 -0.4260 -0.3130
 4271SOL    HW121781   8.183   7.946  11.709  2.4437 -2.2906 -1.6510
 4271SOL    HW221782   8.061   7.870  11.757  1.6389  0.1095  0.2917
 4272SOL     OW21783  11.318   0.246   5.291  0.3994  0.0994 -0.0701
 4272SOL    HW121784  11.305   0.313   5.224  0.1454  0.7144  0.5818
 4272SOL    HW221785  11.347   0.294   5.368 -0.8208 -0.3911  0.7393
 4273SOL     OW21786   1.261   2.175   4.206 -0.3946  0.4441  0.3509
 4273SOL    HW121787   1.272   2.192   4.299  0.1971 -0.4424  0.4637
 4273SOL    HW221788   1.350   2.158   4.175 -0.4235  1.9960 -0.6492
 4274SOL     OW21789  12.589   3.287   0.447 -0.0291  0.0362  0.0754
 4274SOL    HW121790  12.585   3.229   0.523 -0.2488  0.0894  0.1050
 4274SOL    HW221791  12.677   3.325   0.450  0.2451 -0.5733 -0.1518
 4275SOL     OW21792   4.472   6.014   4.085  0.2228 -0.2862 -0.3039
 4275SOL    HW121793   4.476   6.079   4.155 -0.5940 -0.5890  0.0337
 4275SOL    HW221794   4.514   6.057   4.010  0.4920  0.2936  0.1712
 4276SOL     OW21795   0.376   7.257   6.105 -0.0904 -0.1557  0.1158
 4276SOL    HW121796   0.284   7.280   6.116 -0.2120 -1.1341  1.3694
 4276SOL    HW221797   0.423   7.326   6.152 -0.3114 -0.7682  1.2870
 4277SOL     OW21798   3.261   7.179   5.098 -0.1569 -0.5818 -0.2185
 4277SOL    HW121799   3.174   7.139   5.091  0.0247 -0.8436 -1.0289
 4277SOL    HW221800   3.268   7.204   5.190 -0.7047 -1.4537  0.0710
 4278SOL     OW21801   0.706   6.505   3.396  0.0958 -0.2353  0.0160
 4278SOL    HW121802   0.763   6.464   3.331  0.4011  1.2332 -0.6966
 4278SOL    HW221803   0.734   6.468   3.480  0.1972 -1.6102 -0.5901
 4279SOL     OW21804   1.126   3.400   8.255 -0.1996  0.1512  0.1562
 4279SOL    HW121805   1.097   3.458   8.326 -0.7023  0.7412 -0.5201
 4279SOL    HW221806   1.206   3.360   8.289  0.7708  2.0553  0.2436
 4280SOL     OW21807  10.493   6.319  12.373 -0.1021 -0.2374 -0.0212
 4280SOL    HW121808  10.429   6.252  12.352  0.2853 -0.3719 -0.8024
 4280SOL    HW221809  10.461   6.358  12.455 -0.5772 -1.0483  0.1888
 4281SOL     OW21810   8.655   7.041  10.803  0.2242 -0.8282 -0.1135
 4281SOL    HW121811   8.608   7.123  10.817  1.6957  0.0163  0.1149
 4281SOL    HW221812   8.673   7.039  10.709 -0.6881 -1.4200 -0.2946
 4282SOL     OW21813  10.554   8.897   2.824 -0.1105  0.1702 -0.3728
 4282SOL    HW121814  10.587   8.808   2.813  1.1604  0.6884 -0.8530
 4282SOL    HW221815  10.549   8.909   2.919 -0.4253 -0.4534 -0.3049
 4283SOL     OW21816   6.736   2.468   2.600 -0.1763  0.1790  0.3160
 4283SOL    HW121817   6.697   2.481   2.514  0.5797  1.9196  0.2094
 4283SOL    HW221818   6.830   2.479   2.586  0.0583 -0.5311  1.1954
 4284SOL     OW21819   7.340   8.094   3.274 -0.9218  0.2517  0.2371
 4284SOL    HW121820   7.430   8.108   3.302 -0.3518 -1.3845 -0.6721
 4284SOL    HW221821   7.300   8.181   3.279 -0.0087  0.6140  2.9583
 4285SOL     OW21822   0.034   6.662   8.891  0.1922  0.1663 -0.8748
 4285SOL    HW121823   0.100   6.713   8.844 -0.1544 -0.4942 -2.1436
 4285SOL    HW221824  -0.040   6.658   8.830 -1.5180  1.8950  0.9537
 4286SOL     OW21825   9.424  10.129   0.742  0.4673 -0.2834  0.1359
 4286SOL    HW121826   9.507  10.154   0.783  0.6068 -1.2665  0.4731
 4286SOL    HW221827   9.418  10.035   0.755 -0.0505 -0.4427 -1.0894
 4287SOL     OW21828   0.479   5.875  12.446  0.0141  0.4830  0.4118
 4287SOL    HW121829   0.486   5.966  12.418 -0.8880  0.4591  0.0700
 4287SOL    HW221830   0.461   5.880  12.540  0.0785  0.6576  0.4149
 4288SOL     OW21831   3.144   8.408   5.585 -0.6240 -0.2871  0.4524
 4288SOL    HW121832   3.052   8.417   5.561 -1.2306 -0.1400  2.6262
 4288SOL    HW221833   3.183   8.493   5.567 -0.6383 -0.6378 -1.4094
 4289SOL     OW21834   2.239  11.280   7.069  0.1083 -0.1086  0.0029
 4289SOL    HW121835   2.301  11.217   7.032 -0.0711 -0.5624  0.4606
 4289SOL    HW221836   2.283  11.314   7.147 -0.3490 -0.6800  0.5177
 4290SOL     OW21837   7.129  10.236   3.645  0.0613 -0.3631 -0.1997
 4290SOL    HW121838   7.209  10.210   3.600 -0.1955  0.4807 -1.1960
 4290SOL    HW221839   7.122  10.176   3.719  0.6562 -1.6229 -1.1290
 4291SOL     OW21840   5.383   7.873   1.106  0.3995  0.3778  0.0883
 4291SOL    HW121841   5.468   7.892   1.145 -0.1108  0.3656  1.2579
 4291SOL    HW221842   5.324   7.937   1.145 -0.7084 -1.4811  1.6258
 4292SOL     OW21843   5.534   1.694   4.697 -0.3601 -0.0317 -0.3257
 4292SOL    HW121844   5.565   1.702   4.607 -0.2750 -0.4897 -0.3412
 4292SOL    HW221845   5.567   1.609   4.726 -1.6302 -0.5479 -0.3506
 4293SOL     OW21846   3.411   5.882  11.570  0.0484  0.0622 -0.4041
 4293SOL    HW121847   3.370   5.863  11.486 -1.3488  2.0134 -0.2141
 4293SOL    HW221848   3.489   5.933  11.548 -1.1792  1.9812 -0.5026
 4294SOL     OW21849   5.160   6.089   1.071 -0.2123  0.1234 -0.4268
 4294SOL    HW121850   5.242   6.045   1.048  0.1157 -0.4247  1.5804
 4294SOL    HW221851   5.102   6.074   0.997 -0.0156 -3.4822 -0.0007
 4295SOL     OW21852   1.011   3.358  10.757 -1.0307 -0.6304 -0.9043
 4295SOL    HW121853   0.937   3.419  10.758 -0.0754  0.5965 -1.5301
 4295SOL    HW221854   1.022   3.332  10.849 -0.3304  1.6176 -0.2821
 4296SOL     OW21855   3.089  10.935   2.786  0.8940  0.3674  0.0154
 4296SOL    HW121856   3.040  10.889   2.854 -0.5972  0.1320 -1.1706
 4296SOL    HW221857   3.098  11.025   2.820 -1.2524  0.6954 -0.1121
 4297SOL     OW21858   6.195   7.176   5.792 -0.3067 -0.0599 -0.3334
 4297SOL    HW121859   6.288   7.157   5.807  0.0759 -0.4765 -2.7543
 4297SOL    HW221860   6.196   7.252   5.734 -1.4269 -0.5752 -1.0620
 4298SOL     OW21861   3.890   4.726  11.464 -0.1584  0.3115 -0.1838
 4298SOL    HW121862   3.815   4.680  11.428 -1.2535  1.9984 -0.1588
 4298SOL    HW221863   3.858   4.768  11.544  0.4466  1.9911 -0.7622
 4299SOL     OW21864   8.339   1.997   8.387  1.7165  0.1169 -0.1508
 4299SOL    HW121865   8.331   1.989   8.482  1.9905 -0.1620 -0.1495
 4299SOL    HW221866   8.408   1.935   8.364  0.0423 -1.6350 -0.8069
 4300SOL     OW21867   1.317   7.035   5.681  0.5156 -0.0347  0.1716
 4300SOL    HW121868   1.253   6.999   5.620  0.4311 -1.1677  0.8982
 4300SOL    HW221869   1.282   7.122   5.704  0.2396  0.1507 -0.8905
 4301SOL     OW21870  12.165  11.406   7.389  0.1473  0.2924 -0.2790
 4301SOL    HW121871  12.208  11.447   7.464 -3.2925  0.1532  1.9776
 4301SOL    HW221872  12.088  11.459   7.373  0.5026  0.0631 -3.5810
 4302SOL     OW21873   0.011   2.748  11.946  0.7703  0.1954 -0.1916
 4302SOL    HW121874   0.039   2.768  12.035  1.9167 -0.8802 -0.2868
 4302SOL    HW221875  -0.074   2.792  11.937  1.5958  2.0504  0.7064
 4303SOL     OW21876   4.234   1.566   4.574  0.2183  0.3953 -0.3951
 4303SOL    HW121877   4.257   1.527   4.490  1.1975 -0.4869  0.2571
 4303SOL    HW221878   4.253   1.659   4.564 -0.2804  0.3973 -1.3519
 4304SOL     OW21879   4.702   5.004   7.319  0.3547 -0.0553 -0.8020
 4304SOL    HW121880   4.749   5.055   7.385  0.0497  0.3667 -0.9024
 4304SOL    HW221881   4.669   4.928   7.366  2.4226 -1.1850 -1.0370
 4305SOL     OW21882   8.744   1.698   7.321 -0.2320  0.1683  0.0586
 4305SOL    HW121883   8.737   1.784   7.361  0.1605  0.8569 -1.2915
 4305SOL    HW221884   8.772   1.640   7.392  0.0685  1.2642  0.8537
 4306SOL     OW21885   0.132   9.008   7.734  0.8212  0.1524  0.1021
 4306SOL    HW121886   0.128   9.100   7.709  0.0728 -0.2919 -1.6020
 4306SOL    HW221887   0.045   8.988   7.769  0.2138 -0.3929 -1.5973
 4307SOL     OW21888   9.879   6.886   5.785 -0.3491 -0.0426  0.0007
 4307SOL    HW121889   9.884   6.917   5.695  0.9786  2.2350  0.7556
 4307SOL    HW221890   9.968   6.857   5.805 -0.5836 -0.3379  0.6438
 4308SOL     OW21891   8.505  11.313   7.334  0.3431  0.2020  0.3032
 4308SOL    HW121892   8.534  11.277   7.418  1.3562  2.0862  0.8128
 4308SOL    HW221893   8.496  11.407   7.349 -1.0139  0.3854 -1.2964
 4309SOL     OW21894   7.731   0.857   4.379  0.7967 -0.4019 -0.7499
 4309SOL    HW121895   7.727   0.761   4.371  1.3611 -0.3461 -1.9143
 4309SOL    HW221896   7.640   0.885   4.370  0.4947 -0.8817  0.6043
 4310SOL     OW21897   2.923   3.184   1.452  0.1506  0.2742 -0.1610
 4310SOL    HW121898   2.932   3.092   1.477  1.5903  0.1711 -0.9022
 4310SOL    HW221899   2.972   3.191   1.370 -0.3720  1.5982 -0.3899
 4311SOL     OW21900   8.084   6.261   7.579  0.1742  0.0829 -0.0149
 4311SOL    HW121901   8.070   6.324   7.508 -1.4143 -1.5372 -1.2359
 4311SOL    HW221902   8.169   6.222   7.561 -0.3632 -0.5545 -1.2695
 4312SOL     OW21903   2.721   8.001  10.612 -0.5208  0.6489  0.2966
 4312SOL    HW121904   2.731   8.046  10.696  0.3619 -0.8754  1.0661
 4312SOL    HW221905   2.752   8.064  10.547  1.4116  0.9398  1.4034
 4313SOL     OW21906   9.705   1.004   3.858  0.6460  0.4404  0.2672
 4313SOL    HW121907   9.798   1.017   3.872  0.5202  2.2287 -0.3349
 4313SOL    HW221908   9.700   0.946   3.782  1.3343  2.4821 -1.4474
 4314SOL     OW21909  12.459  12.226   5.846 -0.0003 -0.2976 -0.4705
 4314SOL    HW121910  12.373  12.240   5.806 -0.1251  2.3255  0.5396
 4314SOL    HW221911  12.519  12.281   5.794  0.6351 -0.2904  0.2456
 4315SOL     OW21912   3.053   0.615   0.101  0.0333 -0.0062  0.2229
 4315SOL    HW121913   2.968   0.658   0.087  0.3615  0.4758 -0.3694
 4315SOL    HW221914   3.081   0.590   0.013  1.1519  1.1051  0.2406
 4316SOL     OW21915   5.745   8.239   2.829 -0.2890 -0.2029  0.3059
 4316SOL    HW121916   5.799   8.200   2.761 -0.0202  1.1955 -0.3018
 4316SOL    HW221917   5.795   8.225   2.910  0.1600 -0.4520 -0.0096
 4317SOL     OW21918   6.113  12.252   5.489  0.5886  0.1599  0.1754
 4317SOL    HW121919   6.162  12.327   5.522  1.2040 -0.7744  1.4760
 4317SOL    HW221920   6.127  12.184   5.554 -0.6938 -0.8127 -0.5211
 4318SOL     OW21921   2.035   5.572   4.165  0.4167 -0.1030  0.1311
 4318SOL    HW121922   2.090   5.650   4.173 -0.2811  0.4151 -0.0604
 4318SOL    HW221923   2.009   5.551   4.254  0.2250  0.1657  0.1410
 4319SOL     OW21924   1.867   6.924   7.149 -0.4570  0.0823  0.0983
 4319SOL    HW121925   1.841   6.842   7.109 -0.6982 -1.2405  2.7295
 4319SOL    HW221926   1.784   6.965   7.175 -0.2852  0.6638 -0.2401
 4320SOL     OW21927  10.140   2.792  10.331  0.4570 -0.2515  0.0558
 4320SOL    HW121928  10.117   2.706  10.297  0.9083 -0.0465 -0.8021
 4320SOL    HW221929  10.142   2.781  10.426  1.9402 -1.5742 -0.0844
 4321SOL     OW21930  11.253   5.870   2.520 -0.4687  0.1210 -0.1015
 4321SOL    HW121931  11.290   5.957   2.510  0.8264 -0.3241  0.5641
 4321SOL    HW221932  11.195   5.877   2.596 -1.8477  0.8391 -1.1900
 4322SOL     OW21933   5.560  10.266   8.637  0.0130 -0.2429 -0.1621
 4322SOL    HW121934   5.550  10.276   8.543 -0.4028  0.8719 -0.0077
 4322SOL    HW221935   5.498  10.196   8.661 -1.1099  0.6246 -0.4791
 4323SOL     OW21936   0.111   2.235   0.612  0.0036  1.0453 -0.2546
 4323SOL    HW121937   0.073   2.317   0.581  0.6318  0.9771 -1.2748
 4323SOL    HW221938   0.078   2.169   0.550 -0.2225  0.5759  0.3514
 4324SOL     OW21939   0.693   3.865   1.381  0.6347  0.0440 -0.1196
 4324SOL    HW121940   0.720   3.805   1.451 -2.1861 -0.2081  0.8629
 4324SOL    HW221941   0.619   3.913   1.417  0.2278  1.2208 -2.3308
 4325SOL     OW21942   3.491   3.388   7.230  0.8567  0.5485  0.8648
 4325SOL    HW121943   3.569   3.410   7.179 -0.2790 -0.4111 -1.4703
 4325SOL    HW221944   3.524   3.335   7.303  2.3513 -0.5649 -0.5359
 4326SOL     OW21945   2.180   0.872   3.730 -0.1260 -0.5359 -0.1515
 4326SOL    HW121946   2.252   0.872   3.793  1.1854 -0.5435 -1.5825
 4326SOL    HW221947   2.203   0.805   3.666 -1.9344 -1.2600 -0.1202
 4327SOL     OW21948   7.899   4.409   4.695  0.7905  0.4999  0.0671
 4327SOL    HW121949   7.880   4.502   4.692  0.7500  0.5411  1.1287
 4327SOL    HW221950   7.963   4.400   4.766  0.5391 -0.3087  0.2023
 4328SOL     OW21951   3.821   9.089   8.700  0.1408 -0.3139 -0.2850
 4328SOL    HW121952   3.831   9.126   8.613  3.0592 -0.2150 -0.0117
 4328SOL    HW221953   3.877   9.010   8.699  1.4306  0.4733  1.8544
 4329SOL     OW21954  10.671   9.947   6.594  0.6170  0.1509 -0.0747
 4329SOL    HW121955  10.599  10.007   6.613 -0.8932 -1.3177 -0.9528
 4329SOL    HW221956  10.648   9.907   6.511 -1.0150 -5.2114  2.5280
 4330SOL     OW21957   8.065  12.417   7.272  0.4362 -0.7830 -0.2298
 4330SOL    HW121958   8.075  12.457   7.359 -2.2548 -0.2119 -0.0797
 4330SOL    HW221959   7.991  12.463   7.233  0.7750 -1.8967 -2.3358
 4331SOL     OW21960   0.755  10.485   0.798  0.3872  0.2054 -0.9104
 4331SOL    HW121961   0.701  10.411   0.828  1.9365 -0.5760  0.0632
 4331SOL    HW221962   0.773  10.466   0.707 -1.2286  0.6584 -1.3640
 4332SOL     OW21963   6.536   2.013   4.154 -0.1737  0.1293 -0.5623
 4332SOL    HW121964   6.516   1.994   4.062 -0.7853  0.2649 -0.4610
 4332SOL    HW221965   6.554   2.107   4.157 -1.2895  0.3546 -0.3612
 4333SOL     OW21966   0.588   8.347  11.860 -1.0495  0.2856 -0.5544
 4333SOL    HW121967   0.544   8.364  11.777  1.1708 -0.8997 -2.0770
 4333SOL    HW221968   0.666   8.402  11.857 -0.5292 -0.3837  0.4001
 4334SOL     OW21969   9.707   1.905   7.318 -0.0344 -0.4309  0.3890
 4334SOL    HW121970   9.657   1.824   7.331  1.0617 -1.1364  0.4290
 4334SOL    HW221971   9.657   1.954   7.253 -1.0386 -0.8634  0.8210
 4335SOL     OW21972   8.258   5.868   9.066 -0.4097 -0.9653  0.0449
 4335SOL    HW121973   8.200   5.908   9.130  0.7417  1.3271 -0.2589
 4335SOL    HW221974   8.296   5.793   9.112  0.4004  0.6154  2.1251
 4336SOL     OW21975   4.759   2.513   1.101  0.2340  0.4214  0.0557
 4336SOL    HW121976   4.718   2.452   1.039  0.0643 -0.6587  1.1966
 4336SOL    HW221977   4.853   2.500   1.087  0.1982  0.3233 -0.1080
 4337SOL     OW21978  10.939   3.659   4.293 -0.1537 -0.1277  0.1090
 4337SOL    HW121979  11.009   3.679   4.354  0.1469 -2.0382  0.4655
 4337SOL    HW221980  10.905   3.744   4.265  0.7143  0.7965  1.7588
 4338SOL     OW21981   8.544   5.697  11.069  0.4439  0.0527 -0.3906
 4338SOL    HW121982   8.556   5.662  11.157 -0.6953 -1.0422 -0.6436
 4338SOL    HW221983   8.618   5.664  11.019  0.8841  0.3559  0.0598
 4339SOL     OW21984   4.374   0.853  11.510 -0.5720  0.3790 -0.4100
 4339SOL    HW121985   4.307   0.848  11.578 -2.0017 -0.8555 -1.8284
 4339SOL    HW221986   4.330   0.897  11.437  0.0915 -0.6284 -1.4320
 4340SOL     OW21987   7.829   9.511   7.200 -0.5536 -0.4715  0.4062
 4340SOL    HW121988   7.825   9.536   7.108 -0.8477 -0.6815  0.3601
 4340SOL    HW221989   7.877   9.582   7.242  1.3171 -1.2888 -0.2213
 4341SOL     OW21990   5.477  11.353   3.911  0.0814  0.1778  0.0456
 4341SOL    HW121991   5.445  11.286   3.851 -0.6915  0.2294  0.3926
 4341SOL    HW221992   5.558  11.385   3.870  1.2700 -1.9418  0.5581
 4342SOL     OW21993   7.318  11.036   6.128  0.7733 -0.7130  0.0641
 4342SOL    HW121994   7.331  11.078   6.213  0.9334  0.1664 -0.3798
 4342SOL    HW221995   7.239  11.078   6.093 -0.3305 -2.3257  0.5162
 4343SOL     OW21996   0.557   6.134  10.464 -0.2702 -0.0073  0.3950
 4343SOL    HW121997   0.514   6.199  10.408  2.3096  1.9367  0.4571
 4343SOL    HW221998   0.623   6.185  10.512  1.4541 -2.5852  0.9364
 4344SOL     OW21999   4.266   8.004   8.917 -0.0364  0.3670  0.2563
 4344SOL    HW122000   4.182   7.971   8.886 -0.7701 -0.4508  2.8733
 4344SOL    HW222001   4.254   8.099   8.920 -0.7791  0.2760  0.3450
 4345SOL     OW22002   7.443   7.928   5.962  0.1402 -0.0617  0.5920
 4345SOL    HW122003   7.377   7.970   6.017  0.2999  1.5396 -0.4027
 4345SOL    HW222004   7.399   7.851   5.926 -0.1935 -0.7326  2.3347
 4346SOL     OW22005   7.242   7.560   1.840 -0.1145 -0.8297 -0.4474
 4346SOL    HW122006   7.258   7.622   1.911  0.5387  0.6311 -1.8164
 4346SOL    HW222007   7.191   7.490   1.881 -2.1732  1.2847  0.8697
 4347SOL     OW22008   7.187   0.097   5.309 -0.0658 -0.2123 -0.2733
 4347SOL    HW122009   7.095   0.080   5.286 -0.5026  1.8996 -0.2365
 4347SOL    HW222010   7.223   0.141   5.233  0.8273 -0.6904 -0.1353
 4348SOL     OW22011   3.876   9.844   1.262  0.0868 -0.3431  0.4211
 4348SOL    HW122012   3.845   9.934   1.253 -2.3440 -1.2267 -1.0515
 4348SOL    HW222013   3.804   9.791   1.228  1.5555 -2.8461  1.0025
 4349SOL     OW22014   9.563   0.728   2.215  0.4540 -0.6258 -0.6443
 4349SOL    HW122015   9.629   0.671   2.175 -0.4270 -0.4979 -2.3701
 4349SOL    HW222016   9.554   0.801   2.155 -0.2253  0.0976  0.3020
 4350SOL     OW22017   9.364  10.228   9.917 -0.1239 -0.0370 -0.2922
 4350SOL    HW122018   9.447  10.192   9.884 -1.0478 -0.0268 -2.8335
 4350SOL    HW222019   9.329  10.159   9.974  0.8468 -0.7273 -0.5004
 4351SOL     OW22020   5.514  11.516   1.861 -0.1175  0.3221  0.2262
 4351SOL    HW122021   5.518  11.427   1.897  0.8378  0.0144 -0.6086
 4351SOL    HW222022   5.595  11.526   1.811 -0.7429  1.2577 -0.6407
 4352SOL     OW22023   0.718   1.727  12.312  0.2904 -0.2370 -0.0566
 4352SOL    HW122024   0.623   1.737  12.314  0.3622  0.5894 -0.6987
 4352SOL    HW222025   0.740   1.717  12.220  0.7627 -1.2490  0.1415
 4353SOL     OW22026   7.986   6.638  10.645  0.1962 -0.0162 -0.4853
 4353SOL    HW122027   7.918   6.581  10.681  0.3702 -0.1623 -0.3840
 4353SOL    HW222028   8.063   6.621  10.700  0.5249 -0.3851 -1.0496
 4354SOL     OW22029   1.790   1.926   5.485 -0.5751 -0.3370 -0.1390
 4354SOL    HW122030   1.862   1.866   5.504 -1.0451 -1.3367 -1.3928
 4354SOL    HW222031   1.712   1.883   5.521 -0.4278  1.4667  2.6628
 4355SOL     OW22032   8.830  10.317   5.627 -0.0830  0.2544 -0.2395
 4355SOL    HW122033   8.745  10.315   5.670  1.5367 -1.3241  3.3884
 4355SOL    HW222034   8.843  10.228   5.594  0.4304  0.2604 -0.0708
 4356SOL     OW22035   8.400  12.452   0.578 -0.6745 -0.2038  0.7831
 4356SOL    HW122036   8.355  12.536   0.568 -0.3717 -0.2246 -0.9797
 4356SOL    HW222037   8.331  12.386   0.568 -0.4642 -0.2107 -0.7656
 4357SOL     OW22038  12.563   5.340  10.457 -0.1499 -0.3504  0.2416
 4357SOL    HW122039  12.538   5.304  10.372  0.9004 -1.1286  0.2502
 4357SOL    HW222040  12.636   5.399  10.438 -0.1379 -0.2570  0.5710
 4358SOL     OW22041   4.214   3.263   5.199 -0.5914  0.1732  0.1728
 4358SOL    HW122042   4.309   3.253   5.209 -0.6332 -0.0796  0.3304
 4358SOL    HW222043   4.187   3.183   5.153 -1.0760 -0.9393  2.2936
 4359SOL     OW22044   9.284   8.025   9.383 -0.0908 -0.0360 -0.2780
 4359SOL    HW122045   9.271   7.934   9.409  0.1959  0.4809  1.8370
 4359SOL    HW222046   9.351   8.022   9.314  1.2966 -1.2849  1.0673
 4360SOL     OW22047   6.723   2.291   0.982  0.0380  0.0799 -0.1238
 4360SOL    HW122048   6.685   2.258   0.901  2.1588  0.4168 -1.3224
 4360SOL    HW222049   6.649   2.324   1.032 -1.5959 -2.1579 -0.9317
 4361SOL     OW22050  10.068   0.303   4.411  0.0623 -0.1563  0.0675
 4361SOL    HW122051  10.057   0.221   4.364 -1.9279 -0.4016  0.8770
 4361SOL    HW222052  10.096   0.277   4.499  1.2427  0.1619 -0.1939
 4362SOL     OW22053   5.689  12.513   1.650 -0.3645  0.2037 -0.3800
 4362SOL    HW122054   5.595  12.500   1.639 -0.6931  0.1273  2.0480
 4362SOL    HW222055   5.712  12.460   1.726  1.2474  1.7809  0.3098
 4363SOL     OW22056   9.069   8.885  10.974 -0.0220  0.2752  0.2190
 4363SOL    HW122057   9.157   8.918  10.991 -0.3041  0.7900  0.7073
 4363SOL    HW222058   9.034   8.942  10.906 -0.1298  0.3408  0.3284
 4364SOL     OW22059   4.482   2.731  10.640  0.1357 -0.4365  0.3620
 4364SOL    HW122060   4.538   2.682  10.700  0.0161  0.4655  1.2216
 4364SOL    HW222061   4.504   2.823  10.655 -0.2842 -0.1676 -0.5914
 4365SOL     OW22062   0.684   8.614  11.205 -0.1168  0.4873 -0.0464
 4365SOL    HW122063   0.715   8.703  11.221 -0.0108  0.4863 -0.2398
 4365SOL    HW222064   0.670   8.578  11.292 -0.0160  0.6431  0.0352
 4366SOL     OW22065   8.175   1.367   6.481  0.2989 -0.2066  0.1298
 4366SOL    HW122066   8.091   1.413   6.486  1.5426  2.5593 -1.7943
 4366SOL    HW222067   8.169   1.314   6.402  0.3646 -0.0314  0.0080
 4367SOL     OW22068   0.077   8.904   2.208 -0.2480 -0.0435 -0.2654
 4367SOL    HW122069   0.145   8.969   2.188 -1.1784  0.7325 -1.0044
 4367SOL    HW222070   0.106   8.863   2.289  1.4342 -0.1994 -0.9055
 4368SOL     OW22071  12.098   6.513   3.067 -0.0731 -0.2008  0.5911
 4368SOL    HW122072  12.140   6.445   3.013 -1.8161 -1.6203  0.9310
 4368SOL    HW222073  12.136   6.501   3.154 -2.7580 -3.1454  1.5298
 4369SOL     OW22074   5.356   5.169   4.128 -0.3251  0.1469  0.0170
 4369SOL    HW122075   5.289   5.231   4.098 -0.5881  0.5500  1.3971
 4369SOL    HW222076   5.346   5.166   4.223  1.2611 -0.1983  0.2069
 4370SOL     OW22077  10.261  11.367   0.455 -0.1375  0.3550 -0.0749
 4370SOL    HW122078  10.352  11.353   0.430 -0.8010 -0.0213 -2.5003
 4370SOL    HW222079  10.240  11.455   0.424 -1.0747 -0.2215 -1.1413
 4371SOL     OW22080   5.277   2.167  10.857  0.1087 -0.4605 -0.2676
 4371SOL    HW122081   5.215   2.095  10.865  1.0630 -1.2330  0.5775
 4371SOL    HW222082   5.227   2.245  10.880  0.0657 -1.3708  3.4864
 4372SOL     OW22083   5.747  11.941  11.627  0.1280 -0.0789 -0.6009
 4372SOL    HW122084   5.839  11.920  11.617  0.9116  3.0158 -0.8781
 4372SOL    HW222085   5.706  11.910  11.546  1.3075  0.3520 -1.3784
 4373SOL     OW22086  11.613  10.608  11.593  0.4206  0.7186  0.3538
 4373SOL    HW122087  11.704  10.637  11.604  0.4711  0.3541  0.9322
 4373SOL    HW222088  11.595  10.556  11.671  0.1230 -0.2591 -0.3462
 4374SOL     OW22089   6.159   1.417   0.547 -0.2856 -0.3211  0.5317
 4374SOL    HW122090   6.098   1.344   0.558 -0.2670 -0.3071  0.7166
 4374SOL    HW222091   6.111   1.494   0.576 -1.1074  0.0935 -1.7199
 4375SOL     OW22092   4.171   2.880   6.853  0.2713 -0.0388 -0.9896
 4375SOL    HW122093   4.188   2.887   6.760  0.0692  0.1217 -1.0147
 4375SOL    HW222094   4.257   2.892   6.894  0.2482  0.6157 -1.1217
 4376SOL     OW22095  10.073   7.457   8.122 -0.2158  0.2466 -0.6267
 4376SOL    HW122096   9.981   7.434   8.107 -0.5463  1.8233 -1.1740
 4376SOL    HW222097  10.108   7.383   8.171 -2.2553  0.4264  1.2601
 4377SOL     OW22098   1.979   7.570   2.296  0.3694 -0.1032  0.4412
 4377SOL    HW122099   2.037   7.494   2.288 -1.8224 -1.8983  0.5020
 4377SOL    HW222100   1.935   7.576   2.212 -1.1490 -0.3916  1.1806
 4378SOL     OW22101   3.151   1.790  11.578  0.3760  0.1511 -1.1170
 4378SOL    HW122102   3.169   1.703  11.614  0.5212 -0.3016 -2.2545
 4378SOL    HW222103   3.055   1.793  11.570  0.2939  0.5061 -0.0969
 4379SOL     OW22104   5.202   8.831  12.374 -0.8939 -0.7340 -0.1890
 4379SOL    HW122105   5.271   8.773  12.405 -0.7617 -0.6702 -0.3605
 4379SOL    HW222106   5.184   8.802  12.285 -0.3448 -0.0783 -0.5208
 4380SOL     OW22107   6.018   0.431   0.435  0.4371  0.1658 -0.2728
 4380SOL    HW122108   5.938   0.423   0.487  1.0757  0.6126  0.8078
 4380SOL    HW222109   6.062   0.347   0.446  1.8178  1.0837  2.0947
 4381SOL     OW22110  10.661   6.052   1.188  0.3495 -0.2461 -0.5499
 4381SOL    HW122111  10.661   6.064   1.283 -0.3266  1.0042 -0.6861
 4381SOL    HW222112  10.579   6.007   1.170 -0.1443  0.6617 -0.6462
 4382SOL     OW22113   2.150   6.796   7.404  0.9102  0.1112 -0.1015
 4382SOL    HW122114   2.128   6.744   7.327 -1.8862 -2.2908  2.0635
 4382SOL    HW222115   2.068   6.842   7.425  1.3769  0.1710  1.7455
 4383SOL     OW22116   4.652   1.307   0.452 -0.2251 -0.0861  0.6152
 4383SOL    HW122117   4.610   1.323   0.536 -0.9283 -0.4047  0.3284
 4383SOL    HW222118   4.580   1.296   0.390  0.2841  0.2940 -0.0597
 4384SOL     OW22119   9.802   0.203   9.224 -0.2716 -0.1366  0.3263
 4384SOL    HW122120   9.852   0.161   9.294  0.4084 -0.2241 -0.2121
 4384SOL    HW222121   9.846   0.286   9.208 -1.3515  0.6039  1.0749
 4385SOL     OW22122  12.181  11.922   2.521 -0.7965 -0.6566  0.6459
 4385SOL    HW122123  12.112  11.986   2.538 -1.0285 -0.1160 -1.9125
 4385SOL    HW222124  12.135  11.840   2.503 -0.6521 -0.7748  0.7982
 4386SOL     OW22125   0.940   6.636   8.423  0.0300 -0.0767 -0.3929
 4386SOL    HW122126   0.962   6.548   8.391  1.9808  0.1535  0.1689
 4386SOL    HW222127   0.860   6.660   8.375 -0.2943 -1.9705 -0.8717
 4387SOL     OW22128  12.576   3.465   7.249 -0.4657  0.6296  0.0431
 4387SOL    HW122129  12.570   3.447   7.343 -1.7820 -2.0017 -0.4613
 4387SOL    HW222130  12.517   3.539   7.235 -2.0866 -0.3982  1.0282
 4388SOL     OW22131   1.546  11.304   9.743  0.0113  0.0680  0.0037
 4388SOL    HW122132   1.463  11.258   9.751  0.0439  0.1593  0.9223
 4388SOL    HW222133   1.541  11.375   9.807  1.0836 -0.3644  0.5990
 4389SOL     OW22134   2.033  11.161   0.302  0.1869 -0.4712  0.6807
 4389SOL    HW122135   1.988  11.244   0.318 -0.9804 -1.3678  2.4391
 4389SOL    HW222136   2.099  11.156   0.372 -0.5124 -1.4977  1.2973
 4390SOL     OW22137   9.734   0.412   5.896  0.6130 -0.7232  0.4531
 4390SOL    HW122138   9.714   0.419   5.989 -0.1415 -0.5228  0.2896
 4390SOL    HW222139   9.674   0.475   5.854  0.1704 -1.5820 -0.2561
 4391SOL     OW22140  12.390   2.159   5.209 -0.4940 -0.3175 -0.1172
 4391SOL    HW122141  12.474   2.191   5.242 -0.2283 -0.2232 -0.8601
 4391SOL    HW222142  12.345   2.237   5.177 -0.3736 -0.5116 -0.7806
 4392SOL     OW22143   5.661   3.690   4.957  0.2727 -0.7111  0.2548
 4392SOL    HW122144   5.667   3.610   4.905 -0.8039 -0.1338 -0.8090
 4392SOL    HW222145   5.637   3.758   4.894 -3.4496 -0.3828  1.7270
 4393SOL     OW22146   8.309   7.773   0.073  0.5069  0.1859  0.3484
 4393SOL    HW122147   8.264   7.691   0.053 -0.4293  1.0588 -1.2845
 4393SOL    HW222148   8.283   7.793   0.163 -1.9770  0.3639 -0.3395
 4394SOL     OW22149   4.713   2.674  10.283  0.5295 -0.3555 -0.2531
 4394SOL    HW122150   4.687   2.765  10.269  0.4755 -0.5693 -1.6711
 4394SOL    HW222151   4.808   2.674  10.271  0.5921 -0.4080  0.2227
 4395SOL     OW22152   0.045   3.575   8.729 -0.1507 -0.3808  0.0237
 4395SOL    HW122153   0.068   3.640   8.663  1.0443  0.6032  1.3217
 4395SOL    HW222154   0.109   3.505   8.717  0.4162  0.0520  0.4645
 4396SOL     OW22155   7.198  10.209  11.449  0.2090 -0.5161  0.1044
 4396SOL    HW122156   7.256  10.281  11.473  1.3039 -1.3490  0.0338
 4396SOL    HW222157   7.138  10.248  11.385 -0.1903  0.7040  1.1788
 4397SOL     OW22158   6.814   1.943   7.284 -0.6514 -0.2862  0.1547
 4397SOL    HW122159   6.748   1.873   7.286  0.0457 -0.9891 -0.5219
 4397SOL    HW222160   6.871   1.924   7.358 -0.0288 -0.8850 -0.4665
 4398SOL     OW22161   8.090   0.874   4.159 -0.6024 -0.2780 -0.2026
 4398SOL    HW122162   8.115   0.812   4.228 -0.7085 -1.0819 -0.8694
 4398SOL    HW222163   8.023   0.828   4.109 -1.5634  0.8564  0.0110
 4399SOL     OW22164  10.888   9.655   1.583 -0.1105  0.0409  0.5759
 4399SOL    HW122165  10.830   9.653   1.507 -0.0781 -1.2976  0.5719
 4399SOL    HW222166  10.852   9.590   1.643  1.3764 -0.8487  0.5559
 4400SOL     OW22167  12.044   9.344   3.565 -0.5555  0.1122  0.6750
 4400SOL    HW122168  12.047   9.437   3.587  1.3129  0.4916 -0.8444
 4400SOL    HW222169  12.033   9.299   3.648 -3.8116  1.7108  1.2400
 4401SOL     OW22170   9.400   3.458   3.006  0.5820 -0.2315 -0.4983
 4401SOL    HW122171   9.316   3.431   2.969  0.4925  2.2434 -2.3685
 4401SOL    HW222172   9.461   3.451   2.933  1.4818  0.2584  0.1996
 4402SOL     OW22173   7.395   7.901   3.839 -0.6896 -0.6634  0.0090
 4402SOL    HW122174   7.343   7.914   3.760  0.4442 -1.4165 -0.8904
 4402SOL    HW222175   7.398   7.987   3.881  0.1805  0.1786 -1.7000
 4403SOL     OW22176   0.414   7.734   2.167 -0.5790 -0.1156 -0.1132
 4403SOL    HW122177   0.484   7.767   2.223  0.0842  1.7838 -1.9288
 4403SOL    HW222178   0.455   7.665   2.114 -0.3191  0.3461 -0.5183
 4404SOL     OW22179   0.091   2.773   1.430  0.3374  0.9596 -0.3727
 4404SOL    HW122180   0.059   2.818   1.508  0.4849  0.5773 -0.0880
 4404SOL    HW222181   0.186   2.783   1.435  0.4450 -0.1670  0.1875
 4405SOL     OW22182   8.085   7.399  10.412 -0.1861  0.0764  0.4146
 4405SOL    HW122183   8.019   7.449  10.364 -0.1238 -1.2661 -1.1893
 4405SOL    HW222184   8.109   7.454  10.486 -2.8345  0.7557  0.8464
 4406SOL     OW22185   9.064  11.081   9.658  0.4382  0.3315  0.1254
 4406SOL    HW122186   9.109  11.002   9.688  0.3188  0.0830 -0.3396
 4406SOL    HW222187   9.017  11.113   9.734 -1.5878 -1.4560 -0.2773
 4407SOL     OW22188   9.582  12.258   1.696 -0.1976  0.0670 -0.4279
 4407SOL    HW122189   9.587  12.267   1.601 -0.1268  1.3366 -0.3183
 4407SOL    HW222190   9.533  12.335   1.725  0.5894  0.1773  0.6501
 4408SOL     OW22191   8.676   9.793   3.689  0.1547  0.0450 -0.1062
 4408SOL    HW122192   8.767   9.764   3.680  0.0092 -0.2477 -0.6731
 4408SOL    HW222193   8.668   9.863   3.624  0.4986  1.3834  1.2256
 4409SOL     OW22194   0.739   9.765   6.787  0.4160  0.0014 -0.1479
 4409SOL    HW122195   0.795   9.778   6.864 -0.3341 -1.7909  0.7652
 4409SOL    HW222196   0.801   9.746   6.716  1.0608  0.4731  0.2760
 4410SOL     OW22197  10.680   7.282  12.231 -0.4301  0.1888  0.1813
 4410SOL    HW122198  10.760   7.271  12.281  1.0337 -1.7591 -2.3690
 4410SOL    HW222199  10.685   7.371  12.196 -0.9780  1.1934  2.4453
 4411SOL     OW22200   6.960   6.061   8.564  0.5381 -0.2294  0.1138
 4411SOL    HW122201   6.976   6.151   8.536 -0.0384 -0.0423  0.3710
 4411SOL    HW222202   7.028   6.009   8.520 -0.4726  0.0067 -1.8451
 4412SOL     OW22203   3.035   1.742   9.672 -0.1107 -0.5041 -0.2310
 4412SOL    HW122204   2.996   1.659   9.645  0.2050 -0.9533  0.6519
 4412SOL    HW222205   2.961   1.794   9.704 -0.0256 -1.4322  1.6380
 4413SOL     OW22206  10.443   6.036   0.710 -0.0924 -0.0441 -0.4331
 4413SOL    HW122207  10.377   6.066   0.772 -0.6077 -0.7958 -0.5990
 4413SOL    HW222208  10.521   6.020   0.763 -0.1110  0.6062 -0.1968
 4414SOL     OW22209   4.508   7.938   5.825 -0.4904  0.6015 -0.2408
 4414SOL    HW122210   4.440   7.893   5.775 -0.8057 -0.5035  1.1448
 4414SOL    HW222211   4.544   8.002   5.763 -0.3571 -1.1937 -2.1381
 4415SOL     OW22212   3.111  11.701   4.395 -0.6580  0.0707  0.3980
 4415SOL    HW122213   3.082  11.612   4.412 -1.1652  0.0132 -0.6510
 4415SOL    HW222214   3.164  11.694   4.315  1.5420  0.3197  1.7493
 4416SOL     OW22215   6.748   8.844  12.442  0.3564 -0.1581 -0.0669
 4416SOL    HW122216   6.839   8.849  12.413  0.2356  0.9986 -0.3310
 4416SOL    HW222217   6.701   8.806  12.368  0.7712 -1.7833  0.4761
 4417SOL     OW22218  11.529  11.049   8.804 -0.1024  0.3289 -0.5005
 4417SOL    HW122219  11.532  10.973   8.862  1.6886  0.5328 -0.2741
 4417SOL    HW222220  11.606  11.100   8.827 -0.4367  1.4397 -1.7146
 4418SOL     OW22221   0.185   6.498   1.040 -0.2126 -0.5837 -0.5168
 4418SOL    HW122222   0.106   6.463   0.998  0.3437 -0.6502 -1.5148
 4418SOL    HW222223   0.151   6.549   1.114 -1.2197 -0.2081 -1.2138
 4419SOL     OW22224   4.348  11.472   6.471  0.0212  0.0191 -0.2843
 4419SOL    HW122225   4.310  11.499   6.388  0.8079  1.2544 -0.2684
 4419SOL    HW222226   4.424  11.420   6.447  0.9971  1.4258 -0.4004
 4420SOL     OW22227   7.882   3.080   3.953  0.1214 -0.2211  0.5333
 4420SOL    HW122228   7.840   3.147   3.899  1.3783  0.4764  0.3837
 4420SOL    HW222229   7.887   3.119   4.040 -1.3028 -1.0888  1.0417
 4421SOL     OW22230   7.183  10.451   5.105  0.7388 -0.1477  0.0635
 4421SOL    HW122231   7.199  10.459   5.199  1.9013  1.3365 -0.2120
 4421SOL    HW222232   7.177  10.541   5.074  1.6399 -0.5766 -1.4799
 4422SOL     OW22233   1.653   5.851   2.389 -0.5945 -0.1597 -0.1002
 4422SOL    HW122234   1.648   5.801   2.470 -0.8998  1.0471  0.6564
 4422SOL    HW222235   1.746   5.873   2.380 -0.9239  2.6008  1.8293
 4423SOL     OW22236  11.209   7.761   1.893  0.4402 -0.2766 -0.5435
 4423SOL    HW122237  11.170   7.837   1.937 -0.0694 -0.5867 -0.4472
 4423SOL    HW222238  11.205   7.691   1.958  0.1568 -0.6025 -0.9045
 4424SOL     OW22239   2.716   3.689   7.325  0.2019 -0.3208 -0.2356
 4424SOL    HW122240   2.778   3.627   7.362  1.5909  0.8324 -0.5415
 4424SOL    HW222241   2.690   3.651   7.241  0.2126 -0.9746  0.0528
 4425SOL     OW22242   7.828   2.184   1.574  0.2926 -0.2242  0.4604
 4425SOL    HW122243   7.905   2.199   1.519 -0.8143 -1.4768 -1.5617
 4425SOL    HW222244   7.860   2.196   1.664  2.2370  1.6555 -0.4038
 4426SOL     OW22245   7.442   3.855   9.366  0.4748 -1.0453 -0.6337
 4426SOL    HW122246   7.347   3.847   9.366  0.5029 -1.3984 -0.9707
 4426SOL    HW222247   7.461   3.920   9.298  0.3870  0.2814  0.5439
 4427SOL     OW22248   7.585   9.694   2.768 -0.3937  0.2240  0.4238
 4427SOL    HW122249   7.671   9.702   2.808  0.2448  0.0432 -0.8758
 4427SOL    HW222250   7.534   9.643   2.832  0.2605  0.8336  1.4712
 4428SOL     OW22251   6.632   3.495  10.680  0.1282 -0.0132  0.1678
 4428SOL    HW122252   6.613   3.506  10.586 -2.2469  1.4720  0.7416
 4428SOL    HW222253   6.699   3.427  10.682 -0.6720 -1.0399 -2.5415
 4429SOL     OW22254  10.305  11.678  11.932 -0.4578 -0.2753  0.1671
 4429SOL    HW122255  10.367  11.609  11.957 -0.3491 -0.7497 -1.3245
 4429SOL    HW222256  10.278  11.717  12.015  1.5566 -0.2908  0.8750
 4430SOL     OW22257   1.612   0.489  11.704  0.6563 -0.1054  0.1903
 4430SOL    HW122258   1.568   0.498  11.788 -1.2539  0.6573 -0.8357
 4430SOL    HW222259   1.649   0.401  11.706 -2.2284 -1.4389  0.5813
 4431SOL     OW22260   1.202   1.109   4.756  1.2524  0.3072 -0.3699
 4431SOL    HW122261   1.256   1.056   4.814  1.0210  0.3187 -0.1444
 4431SOL    HW222262   1.231   1.084   4.668  1.8223  0.5232 -0.2486
 4432SOL     OW22263  11.605   5.175   4.821 -0.2330 -0.0909 -0.1677
 4432SOL    HW122264  11.563   5.138   4.743 -1.8344 -0.7356  0.9443
 4432SOL    HW222265  11.626   5.099   4.875  0.7772  0.3578  0.0960
 4433SOL     OW22266  10.993   2.408   7.411 -0.8185 -0.3807 -0.3387
 4433SOL    HW122267  11.065   2.349   7.387 -0.5214  0.7972 -2.6191
 4433SOL    HW222268  11.028   2.462   7.481  0.2568 -0.3386 -0.8974
 4434SOL     OW22269  10.596   5.417   2.580  0.4384 -0.3485 -0.1868
 4434SOL    HW122270  10.529   5.422   2.511 -0.2443 -0.8546  0.4192
 4434SOL    HW222271  10.576   5.490   2.638  1.6247  0.6890 -1.0314
 4435SOL     OW22272   2.738   9.409   6.455  0.0300 -0.1691  0.1764
 4435SOL    HW122273   2.665   9.364   6.412  0.3346 -0.2052 -0.3144
 4435SOL    HW222274   2.763   9.478   6.394 -0.4134  0.6602  0.9160
 4436SOL     OW22275   0.580   6.878   2.348 -0.0769 -0.5419  0.2917
 4436SOL    HW122276   0.668   6.907   2.374 -0.3505  0.6482 -0.0210
 4436SOL    HW222277   0.552   6.944   2.285 -0.8405 -1.4235 -0.3145
 4437SOL     OW22278   2.508   0.185   4.491 -0.3190 -0.3784 -0.0446
 4437SOL    HW122279   2.479   0.097   4.465  1.3813 -0.6620 -1.1307
 4437SOL    HW222280   2.600   0.188   4.464  0.4317  0.7774  2.4447
 4438SOL     OW22281  10.273   7.146   9.694  0.1973 -0.3064  0.3446
 4438SOL    HW122282  10.237   7.232   9.717 -0.2264 -0.5230  0.5101
 4438SOL    HW222283  10.348   7.166   9.638 -1.0369  0.1305 -1.2413
 4439SOL     OW22284   5.014  11.016   0.757 -0.5357 -0.0362  0.1659
 4439SOL    HW122285   5.044  11.039   0.668 -2.5594 -2.1080 -1.1763
 4439SOL    HW222286   5.094  11.010   0.808  0.5666  3.3070 -0.9023
 4440SOL     OW22287   6.690   5.741   8.331 -0.2640  0.3160 -0.2853
 4440SOL    HW122288   6.624   5.673   8.345 -0.0936  0.4374  1.2464
 4440SOL    HW222289   6.650   5.821   8.364 -0.5976  1.0762 -2.3925
 4441SOL     OW22290   8.872   4.241   3.647  0.3141 -0.3883 -0.3546
 4441SOL    HW122291   8.895   4.290   3.568  1.4689 -2.0244 -1.1174
 4441SOL    HW222292   8.844   4.307   3.710 -1.1780  0.9491 -2.2789
 4442SOL     OW22293   0.280   7.282  10.075  0.0688 -0.3120 -0.1323
 4442SOL    HW122294   0.322   7.252   9.994  1.0218 -1.5028  0.7714
 4442SOL    HW222295   0.219   7.213  10.099 -0.5504  0.2447 -0.0642
 4443SOL     OW22296   6.370  12.279  11.478  0.1016  0.3040 -0.5821
 4443SOL    HW122297   6.344  12.302  11.389  1.9735 -1.3779 -1.6461
 4443SOL    HW222298   6.460  12.310  11.485  0.4593 -0.8389  0.2055
 4444SOL     OW22299   7.445   1.660   1.811 -0.2488 -0.4335  0.6817
 4444SOL    HW122300   7.357   1.625   1.821 -0.7300  0.9315  1.3917
 4444SOL    HW222301   7.435   1.735   1.753  0.3401  0.1175  1.2805
 4445SOL     OW22302   6.222   5.424   9.259 -0.0732 -0.4335 -0.4382
 4445SOL    HW122303   6.214   5.483   9.183  1.6185 -0.8815 -1.0128
 4445SOL    HW222304   6.270   5.349   9.225 -0.0872 -1.0527  0.8795
 4446SOL     OW22305  10.953   1.532   3.968  0.6642 -0.4141  0.3973
 4446SOL    HW122306  11.026   1.473   3.951  1.2899  0.5024 -0.2052
 4446SOL    HW222307  10.921   1.556   3.881 -0.6888 -1.1837  0.6527
 4447SOL     OW22308  10.217   2.323   3.682  0.1237  0.1718  0.6786
 4447SOL    HW122309  10.217   2.382   3.607 -0.3632  0.6133  1.0189
 4447SOL    HW222310  10.220   2.381   3.758 -0.7250 -0.2304  1.0221
 4448SOL     OW22311   0.692   8.097   9.776 -0.4533  0.1010  0.3682
 4448SOL    HW122312   0.599   8.099   9.800 -0.7942 -1.5580 -0.5974
 4448SOL    HW222313   0.722   8.011   9.806  1.0284  0.9550  1.4485
 4449SOL     OW22314   9.185   6.611   4.115  0.0950  0.0685 -0.5230
 4449SOL    HW122315   9.193   6.669   4.190  0.6985  0.2407 -0.7185
 4449SOL    HW222316   9.232   6.655   4.045 -0.4486 -0.1027 -1.0006
 4450SOL     OW22317   8.609   1.636   3.151  0.2644 -0.3911 -0.1411
 4450SOL    HW122318   8.522   1.625   3.190  0.1351 -0.2151 -0.3730
 4450SOL    HW222319   8.592   1.646   3.057  0.7043 -2.6555 -0.5078
 4451SOL     OW22320   7.586   5.717   5.413  0.1855 -0.2501 -0.0516
 4451SOL    HW122321   7.607   5.626   5.395  0.2222  0.1241 -2.0535
 4451SOL    HW222322   7.666   5.765   5.393  0.0398  0.2867  0.6014
 4452SOL     OW22323   4.179   8.923  10.982 -0.4304 -0.0005 -0.7006
 4452SOL    HW122324   4.233   8.933  11.061 -1.7835  0.8592  0.1579
 4452SOL    HW222325   4.169   9.012  10.948 -2.4348  0.0885 -0.0245
 4453SOL     OW22326   0.803   8.786   4.908 -0.3704  0.1173  0.1804
 4453SOL    HW122327   0.866   8.715   4.911  0.1628  0.5541 -0.3435
 4453SOL    HW222328   0.802   8.813   4.816 -0.5443  0.7933  0.3739
 4454SOL     OW22329   2.188   6.937   7.827  0.0267 -0.2477 -0.7258
 4454SOL    HW122330   2.166   6.978   7.911 -0.5347 -1.0507 -0.4689
 4454SOL    HW222331   2.284   6.936   7.825  0.0983 -2.3662  1.0109
 4455SOL     OW22332   6.372   9.449   8.815  0.1232  0.0079  0.2098
 4455SOL    HW122333   6.377   9.392   8.739 -1.5237  0.6516 -0.4274
 4455SOL    HW222334   6.288   9.494   8.806  0.0538  0.3645  2.2278
 4456SOL     OW22335   4.127   6.265   8.130 -0.1696  0.4349  0.0117
 4456SOL    HW122336   4.111   6.312   8.048 -0.6431  4.0088  1.9531
 4456SOL    HW222337   4.182   6.325   8.181  0.8800 -2.0555  2.0180
 4457SOL     OW22338   5.105   4.382  10.513 -0.2990  0.0716 -0.6612
 4457SOL    HW122339   5.089   4.313  10.577 -1.9435  1.2668  0.2850
 4457SOL    HW222340   5.178   4.349  10.460  0.5234 -1.3385  1.2388
 4458SOL     OW22341   8.426  11.474  10.378  0.3479  0.3300  0.5693
 4458SOL    HW122342   8.501  11.426  10.342  1.0653 -0.4049  2.8673
 4458SOL    HW222343   8.367  11.405  10.410 -0.0244  0.9428  1.2177
 4459SOL     OW22344   4.443   8.448   4.950 -0.5201 -0.0709 -0.1016
 4459SOL    HW122345   4.386   8.397   4.893 -1.4051  1.3755 -0.5717
 4459SOL    HW222346   4.532   8.433   4.916 -0.7431 -1.3171 -0.1683
 4460SOL     OW22347   7.980   9.298   4.780  0.8478 -0.0622  0.1040
 4460SOL    HW122348   7.986   9.203   4.767  0.9332  0.0535 -0.7743
 4460SOL    HW222349   8.071   9.327   4.784  1.0923 -0.5686  5.2763
 4461SOL     OW22350   9.087   4.364   2.156  0.5390 -0.4027  0.8630
 4461SOL    HW122351   9.062   4.379   2.065  2.1628 -1.9786  0.1097
 4461SOL    HW222352   9.089   4.452   2.195 -1.6146  0.1758 -0.1682
 4462SOL     OW22353   9.889   9.454  12.186 -0.2926  0.0200  0.4365
 4462SOL    HW122354   9.806   9.476  12.227 -0.5819 -0.5685  0.1872
 4462SOL    HW222355   9.954   9.462  12.256 -0.6259  0.0540  0.7433
 4463SOL     OW22356  10.317   9.118   7.372 -0.1628  0.5266  0.2362
 4463SOL    HW122357  10.281   9.047   7.319 -1.3527  1.6144 -0.4701
 4463SOL    HW222358  10.403   9.085   7.401  0.8105  0.0783 -2.7925
 4464SOL     OW22359  11.115   4.380  11.754 -0.2378 -0.5196  0.2509
 4464SOL    HW122360  11.211   4.381  11.746 -0.1375 -2.9782  0.5013
 4464SOL    HW222361  11.087   4.460  11.709  2.0432  1.9085  2.7637
 4465SOL     OW22362   1.843  12.147   2.486  0.1332  0.1222 -1.1450
 4465SOL    HW122363   1.750  12.141   2.467 -0.4532  2.5760  0.4706
 4465SOL    HW222364   1.866  12.238   2.466  1.5369  0.3169  1.0224
 4466SOL     OW22365   9.161   0.802   9.214 -0.0549  0.0647 -0.3191
 4466SOL    HW122366   9.212   0.863   9.161 -0.1522  1.5962  1.2794
 4466SOL    HW222367   9.140   0.850   9.293 -2.9502 -0.9295 -0.3709
 4467SOL     OW22368   0.699  11.302  11.177  0.1867 -0.1946  0.0237
 4467SOL    HW122369   0.619  11.283  11.127 -0.8873  1.2953  1.0709
 4467SOL    HW222370   0.668  11.346  11.256  2.1352  3.3928 -0.9398
 4468SOL     OW22371  10.611   3.714   7.894 -0.0989  0.2996 -0.0260
 4468SOL    HW122372  10.553   3.647   7.931 -1.5126  1.3030 -0.3403
 4468SOL    HW222373  10.552   3.785   7.867  1.3132  1.5239 -0.0423
 4469SOL     OW22374   0.386   7.200   8.100 -0.2433 -0.4535 -0.4107
 4469SOL    HW122375   0.342   7.194   8.015 -1.9553  0.5640  0.3418
 4469SOL    HW222376   0.438   7.280   8.095  1.9081 -1.8574 -1.4370
 4470SOL     OW22377   4.593   7.364   4.650 -0.1588  0.2099  0.1962
 4470SOL    HW122378   4.536   7.336   4.721 -0.8230 -0.3822 -0.5425
 4470SOL    HW222379   4.544   7.434   4.607  0.8218  1.5085  1.1046
 4471SOL     OW22380   1.299   8.391   5.042  0.3036  0.2265 -0.0983
 4471SOL    HW122381   1.363   8.350   4.984 -0.0992  0.0202 -0.4040
 4471SOL    HW222382   1.339   8.474   5.067 -0.1180  1.0105 -1.8406
 4472SOL     OW22383  12.268   8.029   8.493 -0.3967 -0.2469  0.4521
 4472SOL    HW122384  12.243   8.008   8.582  0.3533 -2.1934  0.2334
 4472SOL    HW222385  12.359   8.002   8.486 -0.5009 -0.3028 -0.9627
 4473SOL     OW22386   1.930  11.645   5.915  0.7872 -0.0717  0.1156
 4473SOL    HW122387   1.889  11.674   5.833 -0.7656  1.2472  1.3037
 4473SOL    HW222388   1.884  11.564   5.937  0.8905 -0.1780 -0.0482
 4474SOL     OW22389   4.503   6.942   8.757 -0.3095  0.3015 -0.4443
 4474SOL    HW122390   4.588   6.918   8.794  0.3591  0.1792 -1.9694
 4474SOL    HW222391   4.525   6.979   8.671 -1.8402 -0.2649 -1.1011
 4475SOL     OW22392   4.675   3.494   5.824 -0.0120 -0.0559 -0.0716
 4475SOL    HW122393   4.725   3.414   5.809 -0.7185 -0.4594 -0.2574
 4475SOL    HW222394   4.584   3.467   5.826 -0.2232  0.6481  0.5062
 4476SOL     OW22395   2.341   0.243   2.515  0.1640  0.2052 -0.9392
 4476SOL    HW122396   2.299   0.240   2.429 -0.8168  0.5834 -0.4897
 4476SOL    HW222397   2.318   0.329   2.550 -1.6881 -0.9012  0.7808
 4477SOL     OW22398  11.214   1.965   5.150  0.2016  0.0192  0.2566
 4477SOL    HW122399  11.258   1.904   5.209 -0.2717  0.2444  0.8522
 4477SOL    HW222400  11.231   1.930   5.062  0.0440 -0.8901  0.5828
 4478SOL     OW22401  10.101   4.941   7.965  0.6295  0.4727  0.0134
 4478SOL    HW122402  10.059   4.871   7.914  1.0202  0.4282 -0.2479
 4478SOL    HW222403  10.089   4.916   8.056  0.1029  0.4474 -0.0595
 4479SOL     OW22404   7.596   3.560   2.324 -0.1436  0.2288 -0.2291
 4479SOL    HW122405   7.624   3.640   2.280 -0.5606 -1.1747 -3.3345
 4479SOL    HW222406   7.673   3.530   2.371  0.5677  1.4887 -0.5328
 4480SOL     OW22407   3.586   6.000   7.892  0.5144  0.1063 -0.5196
 4480SOL    HW122408   3.586   5.920   7.945 -0.5022 -1.0896 -2.1990
 4480SOL    HW222409   3.650   5.982   7.823 -0.0049  0.5813 -1.1352
 4481SOL     OW22410   4.773  10.248  10.357 -0.4303  0.1921  0.1499
 4481SOL    HW122411   4.749  10.231  10.266  1.4629  0.5296 -0.4632
 4481SOL    HW222412   4.848  10.308  10.351 -0.1707  0.0990  1.9285
 4482SOL     OW22413   9.464   4.213   1.776 -0.1900  0.0299 -0.3143
 4482SOL    HW122414   9.405   4.268   1.827  0.8961 -1.9358  3.5366
 4482SOL    HW222415   9.407   4.160   1.720 -1.6868  1.0533  0.2099
 4483SOL     OW22416  10.560   6.402   7.781 -0.0213  0.2739  0.0495
 4483SOL    HW122417  10.467   6.402   7.803 -0.3465  1.8151 -1.1047
 4483SOL    HW222418  10.604   6.417   7.865 -0.8584  0.2789  0.5031
 4484SOL     OW22419   8.423  12.407   9.631 -0.6962 -0.0638  0.0269
 4484SOL    HW122420   8.508  12.400   9.675 -0.3787 -1.3507 -0.7260
 4484SOL    HW222421   8.375  12.330   9.659 -0.7157 -0.5924 -1.3523
 4485SOL     OW22422   9.294   9.685   6.610  0.0212  0.1036 -0.3041
 4485SOL    HW122423   9.369   9.687   6.670 -1.6940 -0.4753  1.9778
 4485SOL    HW222424   9.251   9.769   6.624  0.3191  0.5333 -1.7845
 4486SOL     OW22425   1.673   0.477   5.351 -0.4442  0.3457  0.2040
 4486SOL    HW122426   1.639   0.454   5.438 -0.4678  0.7845  0.3151
 4486SOL    HW222427   1.754   0.428   5.343  0.0414  1.0209  0.8632
 4487SOL     OW22428  11.415   9.713   1.642  0.8932 -0.0065 -0.1814
 4487SOL    HW122429  11.405   9.759   1.725  0.6616  1.7190 -1.1286
 4487SOL    HW222430  11.327   9.685   1.619  0.5412  1.6939 -1.0232
 4488SOL     OW22431   1.195   4.776   2.779 -0.0364 -0.2678 -0.1670
 4488SOL    HW122432   1.164   4.685   2.781 -0.2865 -0.1909 -0.4420
 4488SOL    HW222433   1.202   4.796   2.686 -2.4211  0.8240 -0.1750
 4489SOL     OW22434   3.401   9.753   3.899 -0.1402  0.4120  0.2323
 4489SOL    HW122435   3.451   9.833   3.882  0.5713  0.3086  1.6873
 4489SOL    HW222436   3.400   9.708   3.814  1.1714  1.0206 -0.1470
 4490SOL     OW22437   1.672   6.535  11.073  0.0147 -0.6555 -0.1481
 4490SOL    HW122438   1.655   6.512  11.164 -0.9190  0.3421 -0.0442
 4490SOL    HW222439   1.591   6.576  11.044  1.2743  1.7340 -0.5404
 4491SOL     OW22440   5.899   2.351   3.940 -0.2870  0.1618  0.2793
 4491SOL    HW122441   5.811   2.387   3.941 -0.0995  0.6292  0.9282
 4491SOL    HW222442   5.956   2.428   3.942  0.1740 -0.0713 -1.8903
 4492SOL     OW22443   8.524   3.867   3.534 -0.1793 -0.1257  0.5475
 4492SOL    HW122444   8.562   3.822   3.609 -0.3098  0.0471  0.7190
 4492SOL    HW222445   8.565   3.954   3.536 -0.5214  0.0321  0.6844
 4493SOL     OW22446   7.060   3.623   0.772 -0.2744 -0.0924 -0.6890
 4493SOL    HW122447   7.094   3.692   0.714 -0.7528  0.8203  0.0861
 4493SOL    HW222448   7.027   3.671   0.849 -0.5022 -1.2045 -0.0818
 4494SOL     OW22449   1.699  11.215   3.162 -0.4219 -0.3045  0.0471
 4494SOL    HW122450   1.633  11.190   3.227 -1.2046 -1.2352 -1.0611
 4494SOL    HW222451   1.781  11.179   3.195 -0.0950  2.1197  2.2025
 4495SOL     OW22452   8.145   1.845   5.835  0.1919 -0.1863  0.5171
 4495SOL    HW122453   8.175   1.879   5.750 -0.4056  1.3550  0.8938
 4495SOL    HW222454   8.052   1.865   5.837  0.1797 -0.3220  1.4943
 4496SOL     OW22455   9.530   9.108   1.210 -0.0711 -0.2088  0.5024
 4496SOL    HW122456   9.607   9.074   1.163  1.3083  0.9215  1.8344
 4496SOL    HW222457   9.483   9.159   1.144  0.5561 -0.5360 -0.2197
 4497SOL     OW22458   9.027  10.402   9.839  0.0200  0.4815 -0.0881
 4497SOL    HW122459   9.115  10.438   9.850  0.9405 -1.2935 -1.0617
 4497SOL    HW222460   8.968  10.469   9.873  1.7910  1.3206  1.5073
 4498SOL     OW22461  11.507   3.518  10.344 -0.3130  0.0321  0.1542
 4498SOL    HW122462  11.563   3.481  10.275  0.6211 -0.3995  1.1105
 4498SOL    HW222463  11.422   3.476  10.331 -0.0782 -0.2283 -0.5772
 4499SOL     OW22464   6.491   2.304   0.044 -0.5841 -0.3142 -0.0851
 4499SOL    HW122465   6.537   2.387   0.034 -2.7508  0.8058 -1.4620
 4499SOL    HW222466   6.439   2.314   0.124  0.7656 -1.2034  0.9329
 4500SOL     OW22467   6.854   7.233   5.898  0.3524 -0.4421  0.3634
 4500SOL    HW122468   6.822   7.247   5.809  1.0509  0.2092  0.2025
 4500SOL    HW222469   6.786   7.269   5.954  0.2455 -0.1895  0.0743
 4501SOL     OW22470  12.193  11.242  10.725  0.0305 -0.2753 -0.1042
 4501SOL    HW122471  12.178  11.148  10.714 -0.3140 -0.2625  0.2439
 4501SOL    HW222472  12.286  11.249  10.746  0.2042 -0.4821 -0.7567
 4502SOL     OW22473   5.903   3.675   0.288  0.2323  0.4507  0.0689
 4502SOL    HW122474   5.835   3.712   0.343 -0.0872  0.1588 -0.1224
 4502SOL    HW222475   5.975   3.654   0.348 -0.0217  0.3433  0.3360
 4503SOL     OW22476   8.333   5.063   3.571 -0.3032 -0.1110  0.1015
 4503SOL    HW122477   8.299   5.038   3.657 -0.8080  1.5439  0.4217
 4503SOL    HW222478   8.255   5.081   3.518  0.0089 -0.8828 -0.6475
 4504SOL     OW22479   1.161   3.597   9.620  0.1042 -0.2753 -0.7533
 4504SOL    HW122480   1.153   3.511   9.661  2.5265  0.2659  1.1075
 4504SOL    HW222481   1.118   3.656   9.682  0.3953  0.0927 -0.9011
 4505SOL     OW22482   3.103   8.273  10.847 -0.4059  0.0372 -0.3390
 4505SOL    HW122483   3.105   8.316  10.933 -0.5906 -2.2172  0.8698
 4505SOL    HW222484   3.024   8.308  10.804  1.1158  3.2477 -0.8170
 4506SOL     OW22485   3.692   3.069   3.794  0.1266  0.1405 -0.0826
 4506SOL    HW122486   3.640   2.997   3.830 -1.0710  0.7751 -0.4769
 4506SOL    HW222487   3.689   3.055   3.699  1.5693 -0.3881 -0.0773
 4507SOL     OW22488  12.408   0.538   1.034 -0.4414 -0.3324 -0.3193
 4507SOL    HW122489  12.433   0.629   1.049 -0.8663 -0.2074 -0.3498
 4507SOL    HW222490  12.356   0.540   0.954  2.7186 -1.1379 -2.5857
 4508SOL     OW22491   7.650   1.287   6.158  0.2073  0.8280  0.0880
 4508SOL    HW122492   7.731   1.246   6.189 -1.0633 -2.0441 -0.0927
 4508SOL    HW222493   7.672   1.320   6.071  1.4687  1.2153  0.5216
 4509SOL     OW22494   7.738  11.487   2.802 -0.1574 -0.6185  0.0916
 4509SOL    HW122495   7.796  11.482   2.727 -0.8268 -0.9514 -0.4147
 4509SOL    HW222496   7.726  11.396   2.830 -0.6601 -0.5791  0.0143
 4510SOL     OW22497  12.586   2.544   4.413  0.3123 -0.5525  0.1316
 4510SOL    HW122498  12.664   2.494   4.391 -1.4296 -2.1928 -2.8772
 4510SOL    HW222499  12.592   2.623   4.359  0.3390 -0.1490  0.7030
 4511SOL     OW22500   6.299   3.983   6.172  0.1936 -0.1597 -0.3581
 4511SOL    HW122501   6.301   3.887   6.168  1.1192 -0.1439 -0.3884
 4511SOL    HW222502   6.264   4.010   6.088 -2.2746 -0.5167  0.4609
 4512SOL     OW22503  12.172   7.641  11.952  0.1697 -0.7496 -0.2443
 4512SOL    HW122504  12.087   7.685  11.953  0.9971  1.0018 -0.8960
 4512SOL    HW222505  12.230   7.704  11.909  1.6690 -2.1385 -0.3435
 4513SOL     OW22506  11.288   7.592   9.841  0.2410 -0.3443  0.3515
 4513SOL    HW122507  11.216   7.534   9.865 -0.0377 -0.0226  0.3155
 4513SOL    HW222508  11.281   7.599   9.745 -2.0569  2.6268  0.5777
 4514SOL     OW22509   7.636   0.990  12.043 -0.0808 -0.3889 -0.2144
 4514SOL    HW122510   7.616   1.058  12.107 -0.3253  0.3801 -1.0869
 4514SOL    HW222511   7.552   0.970  12.002 -0.5040 -2.9950  1.6610
 4515SOL     OW22512   7.352   4.438   3.225  0.7225 -0.0250  0.3519
 4515SOL    HW122513   7.269   4.397   3.252  0.4098 -0.1578 -0.7478
 4515SOL    HW222514   7.417   4.369   3.235  0.5711 -0.1463  0.5170
 4516SOL     OW22515   2.955   5.857   2.965 -0.4648  0.2021 -0.1885
 4516SOL    HW122516   2.875   5.837   3.013  0.0482  0.1784  0.6647
 4516SOL    HW222517   2.977   5.946   2.992  0.6704 -0.3633  0.8201
 4517SOL     OW22518  10.859   2.361  11.137 -0.3455  0.2882  0.0462
 4517SOL    HW122519  10.896   2.450  11.140  0.0572  0.1368 -0.3425
 4517SOL    HW222520  10.934   2.304  11.151 -0.6373  0.0063  0.4940
 4518SOL     OW22521   6.446   9.141   4.301 -0.2450 -0.3544  0.3812
 4518SOL    HW122522   6.421   9.232   4.316 -2.2806 -1.2056  2.6812
 4518SOL    HW222523   6.483   9.141   4.212 -0.2534  2.6493  0.2703
 4519SOL     OW22524   7.350   6.766   7.697 -0.0985  0.1541  0.1395
 4519SOL    HW122525   7.416   6.800   7.757  2.0125 -1.3696 -1.1601
 4519SOL    HW222526   7.310   6.844   7.658  3.6694  1.3180 -1.8268
 4520SOL     OW22527   6.881   9.356   1.835  0.2799  0.2300 -0.1095
 4520SOL    HW122528   6.827   9.403   1.773 -0.0178  1.3120  0.9269
 4520SOL    HW222529   6.830   9.278   1.858 -0.0171  0.3130 -0.4890
 4521SOL     OW22530   8.627   2.459   8.043 -0.0035 -0.0690  0.3000
 4521SOL    HW122531   8.586   2.503   7.968 -1.0930  1.7731  1.8975
 4521SOL    HW222532   8.566   2.472   8.115  1.4274 -1.0152  1.7460
 4522SOL     OW22533   8.378   6.863   6.373  0.4470  0.5888 -0.4867
 4522SOL    HW122534   8.306   6.926   6.384  0.5621  0.7085 -0.4221
 4522SOL    HW222535   8.457   6.914   6.386  0.5349  0.3855 -0.2046
 4523SOL     OW22536  11.016   7.203   7.510  0.3835 -1.1500 -0.2647
 4523SOL    HW122537  11.081   7.141   7.476  3.2828  1.8768 -0.7027
 4523SOL    HW222538  10.983   7.248   7.432  2.9829  1.9997  0.2455
 4524SOL     OW22539   3.768   1.920  11.509 -0.2456 -0.0920 -0.3769
 4524SOL    HW122540   3.824   1.998  11.505  0.0227 -0.2877 -0.4296
 4524SOL    HW222541   3.815   1.854  11.459 -0.4947 -0.2781 -0.3670
 4525SOL     OW22542   0.868   5.271  10.079  0.1082 -0.1011  0.3834
 4525SOL    HW122543   0.897   5.263  10.169  1.3879 -0.5551 -0.0449
 4525SOL    HW222544   0.808   5.197  10.067  0.5531 -0.5105  0.6389
 4526SOL     OW22545   2.846   9.860   9.034 -0.2695  0.1502  0.1978
 4526SOL    HW122546   2.901   9.853   9.112 -0.1151  0.1872  0.0926
 4526SOL    HW222547   2.759   9.882   9.068 -0.3453 -0.4349  0.4018
 4527SOL     OW22548   1.514  10.470   8.472 -0.2830 -0.3760  0.3397
 4527SOL    HW122549   1.504  10.421   8.554 -0.2622 -0.8473  0.0613
 4527SOL    HW222550   1.465  10.551   8.487 -0.8093 -0.7318  0.5924
 4528SOL     OW22551   2.484   8.460   6.705  0.3901  0.1068 -0.5599
 4528SOL    HW122552   2.402   8.424   6.671  0.3427 -0.5809  0.2441
 4528SOL    HW222553   2.551   8.396   6.678  0.2734 -0.7452  1.0927
 4529SOL     OW22554   9.220  11.919   7.143 -0.6951 -0.1729 -0.0028
 4529SOL    HW122555   9.158  11.986   7.116 -0.7782  0.1139  0.8588
 4529SOL    HW222556   9.247  11.877   7.062 -0.6345  0.9068 -0.5544
 4530SOL     OW22557  10.983   2.227   2.520 -0.1085  1.0164  0.3941
 4530SOL    HW122558  10.920   2.223   2.448  0.7466 -0.7334 -0.3073
 4530SOL    HW222559  11.055   2.280   2.486  0.7468 -0.6364 -0.4499
 4531SOL     OW22560  12.534  10.174   1.597  0.6132 -0.0583  0.0966
 4531SOL    HW122561  12.459  10.218   1.560 -0.8149 -0.4941  2.2590
 4531SOL    HW222562  12.551  10.100   1.538 -2.2232 -1.3644  0.7380
 4532SOL     OW22563   4.674  11.393   9.530  0.8664  0.3430  0.2657
 4532SOL    HW122564   4.678  11.298   9.542 -0.1128  0.2114 -0.3078
 4532SOL    HW222565   4.681  11.428   9.618  0.5061 -0.2950  0.5561
 4533SOL     OW22566   6.543  10.152  12.285  0.1095 -0.0103  0.1769
 4533SOL    HW122567   6.582  10.069  12.314  0.5559  0.1656  0.0813
 4533SOL    HW222568   6.535  10.204  12.365  1.5138  0.5466 -0.0237
 4534SOL     OW22569   3.094   5.351   0.787 -0.2598  0.3791  0.4033
 4534SOL    HW122570   3.095   5.293   0.863 -0.4073  0.5993  0.5751
 4534SOL    HW222571   3.156   5.311   0.726 -0.2649  0.1099  0.5703
 4535SOL     OW22572  10.973   3.399   0.673  0.7773 -0.7745  0.0883
 4535SOL    HW122573  10.997   3.323   0.620 -2.0594 -0.8506 -1.2892
 4535SOL    HW222574  11.042   3.463   0.657  1.8802 -2.1242 -0.7621
 4536SOL     OW22575   1.300   2.706   4.467 -0.1950 -0.0247  0.1568
 4536SOL    HW122576   1.306   2.764   4.391 -0.4348 -0.0030  0.1534
 4536SOL    HW222577   1.328   2.621   4.433 -0.6040 -0.0865 -0.0402
 4537SOL     OW22578  11.273   6.494   6.835  0.4754  0.1294  0.2515
 4537SOL    HW122579  11.235   6.471   6.919 -2.9374  2.9096 -0.2935
 4537SOL    HW222580  11.330   6.569   6.854  0.7708 -0.0929  0.2474
 4538SOL     OW22581   9.505   3.318   3.649 -0.3417  0.1522 -0.3440
 4538SOL    HW122582   9.545   3.255   3.590  1.7578  0.9488  0.1412
 4538SOL    HW222583   9.533   3.291   3.736  0.5573  1.6818 -0.1249
 4539SOL     OW22584   3.406   1.812   4.736 -0.4537  0.2001  0.7531
 4539SOL    HW122585   3.438   1.857   4.659 -0.1395 -2.1134 -0.5758
 4539SOL    HW222586   3.409   1.877   4.806 -1.8693  2.7198 -1.3932
 4540SOL     OW22587   9.251   2.950   6.288  0.7282 -0.1601 -0.1406
 4540SOL    HW122588   9.286   2.976   6.202  0.4993 -2.8230 -1.1239
 4540SOL    HW222589   9.324   2.906   6.331 -0.0372 -1.6957 -0.3406
 4541SOL     OW22590  10.162   0.468  12.366 -0.1509 -0.0074 -0.3633
 4541SOL    HW122591  10.226   0.503  12.304  0.8841 -1.1870 -0.0037
 4541SOL    HW222592  10.081   0.460  12.316  0.4032  0.0188 -1.2763
 4542SOL     OW22593   3.653   1.961  12.069 -0.0145  0.6504 -0.4276
 4542SOL    HW122594   3.727   1.992  12.122 -0.7716  1.7116  0.0472
 4542SOL    HW222595   3.694   1.921  11.992  1.0657  2.1176 -0.6741
 4543SOL     OW22596  10.891  11.667   2.236  0.0623 -0.8244 -0.6114
 4543SOL    HW122597  10.986  11.674   2.238 -0.0001  2.7660 -2.2883
 4543SOL    HW222598  10.862  11.710   2.316 -0.1368  0.6309 -1.4396
 4544SOL     OW22599   7.198  12.235   6.099 -0.2957  0.2987  0.3748
 4544SOL    HW122600   7.171  12.168   6.036  0.3623  0.0723  0.3283
 4544SOL    HW222601   7.137  12.307   6.085 -1.0919 -0.3300  0.5039
 4545SOL     OW22602   2.510   2.843   5.757 -0.2991  0.5472 -0.1603
 4545SOL    HW122603   2.428   2.867   5.801  0.5468  0.1439  1.7316
 4545SOL    HW222604   2.505   2.748   5.749  0.3675  0.4103  0.8437
 4546SOL     OW22605   9.393   5.739   4.119  0.4369 -0.0646 -0.4845
 4546SOL    HW122606   9.381   5.734   4.214  1.3068  1.6020 -0.2600
 4546SOL    HW222607   9.358   5.656   4.087 -1.0520 -0.1243  1.1578
 4547SOL     OW22608  11.736   5.198  11.542  0.3212 -0.1701 -0.0300
 4547SOL    HW122609  11.799   5.157  11.601  0.3427 -1.6741 -1.0316
 4547SOL    HW222610  11.669   5.131  11.529  0.2387  0.1694 -1.5701
 4548SOL     OW22611   4.410   3.463   1.809 -0.1931 -0.2489  0.0501
 4548SOL    HW122612   4.476   3.521   1.772  0.5613  0.8324  2.8602
 4548SOL    HW222613   4.418   3.382   1.759 -0.1203  1.4117 -2.8743
 4549SOL     OW22614   0.549   7.469   2.674 -0.2325  0.6325 -0.1454
 4549SOL    HW122615   0.486   7.515   2.729  0.0866  0.9340 -0.0272
 4549SOL    HW222616   0.498   7.436   2.601 -0.8696 -0.6900  0.8532
 4550SOL     OW22617   5.638  10.552   4.102 -0.0114  0.5916  0.5473
 4550SOL    HW122618   5.708  10.508   4.054 -1.6447 -1.4059 -0.1428
 4550SOL    HW222619   5.604  10.618   4.041  1.2740  1.6719  0.9359
 4551SOL     OW22620   6.647  10.251   8.829 -0.0905 -0.1953  0.3298
 4551SOL    HW122621   6.564  10.260   8.783 -0.8860 -1.5339  1.3931
 4551SOL    HW222622   6.623  10.250   8.922  1.2124  0.2485  0.7020
 4552SOL     OW22623   8.963  12.103  10.122 -0.9821  0.5208 -0.0840
 4552SOL    HW122624   8.884  12.104  10.068  0.0646 -1.3897 -1.7851
 4552SOL    HW222625   8.969  12.013  10.154  1.0032  0.3479 -0.8104
 4553SOL     OW22626   1.568   5.359   3.145 -0.7272  0.6137 -0.0604
 4553SOL    HW122627   1.511   5.411   3.087 -0.3131  0.0220 -1.0280
 4553SOL    HW222628   1.508   5.320   3.209 -1.1267  1.7446  0.2835
 4554SOL     OW22629  12.388   6.377   9.868  0.0808  0.2842  0.2750
 4554SOL    HW122630  12.328   6.305   9.845  0.6558 -0.5358  1.2722
 4554SOL    HW222631  12.351   6.415   9.948 -0.7055  1.7110 -0.7130
 4555SOL     OW22632   9.039   0.529  12.347  0.2322 -0.2034  0.2657
 4555SOL    HW122633   9.042   0.576  12.431  1.8386 -0.1064  0.1808
 4555SOL    HW222634   9.018   0.597  12.283  1.9925  0.3648  0.2205
 4556SOL     OW22635  11.509   1.103   5.582  0.3548  0.0725  0.2297
 4556SOL    HW122636  11.439   1.164   5.560 -0.7892 -1.0756  0.5838
 4556SOL    HW222637  11.468   1.038   5.638  1.8463 -0.3184  0.9278
 4557SOL     OW22638   7.086   1.368   5.334  0.4905 -0.1847 -0.5364
 4557SOL    HW122639   6.993   1.383   5.317 -0.4020 -1.3645  2.5923
 4557SOL    HW222640   7.118   1.451   5.370  0.1106 -0.3971  0.2985
 4558SOL     OW22641   4.968   9.570   6.365  0.1699 -0.1303  0.3432
 4558SOL    HW122642   4.994   9.478   6.355  0.2096 -0.1286  0.4287
 4558SOL    HW222643   4.973   9.606   6.277  1.3386  0.1064  0.4965
 4559SOL     OW22644   2.673  10.344   1.719 -0.3275 -0.1104 -0.3508
 4559SOL    HW122645   2.731  10.407   1.761 -3.4001  3.0613 -0.4228
 4559SOL    HW222646   2.628  10.301   1.791 -0.2016 -0.1806 -0.3143
 4560SOL     OW22647   5.714   1.714   0.304 -0.1865 -0.7845 -0.3699
 4560SOL    HW122648   5.768   1.788   0.279 -2.2050  1.4263  1.3565
 4560SOL    HW222649   5.740   1.643   0.244  1.1846  1.5471 -2.7272
 4561SOL     OW22650  12.448   4.282  11.985  0.1295  0.0221 -0.3915
 4561SOL    HW122651  12.356   4.299  11.967  0.4195  0.3564 -1.5816
 4561SOL    HW222652  12.463   4.318  12.073 -1.5511 -2.5292  1.0771
 4562SOL     OW22653   4.634   0.793  11.887  0.0408 -0.0737  0.2931
 4562SOL    HW122654   4.563   0.848  11.920 -0.3697  0.0969 -0.8547
 4562SOL    HW222655   4.695   0.787  11.961  0.2251  2.1183  0.4002
 4563SOL     OW22656   4.557   3.887   0.974  0.2911 -0.0585  0.2973
 4563SOL    HW122657   4.499   3.850   0.907  0.9179  0.2677 -0.4447
 4563SOL    HW222658   4.516   3.864   1.057 -2.7828  3.0447 -0.1474
 4564SOL     OW22659  11.109   0.261   2.171 -0.2702  0.1273  0.1843
 4564SOL    HW122660  11.199   0.238   2.193 -0.4258  0.4892  1.2904
 4564SOL    HW222661  11.089   0.336   2.228 -1.1457  0.2839 -0.3091
 4565SOL     OW22662   3.769  12.268   4.366  0.3467  0.8244  0.0500
 4565SOL    HW122663   3.776  12.180   4.403 -1.1796  1.6450  2.5379
 4565SOL    HW222664   3.858  12.302   4.367  1.1484 -1.0005 -1.9940
 4566SOL     OW22665   0.272  11.952   9.280  0.0383 -0.3237 -0.3768
 4566SOL    HW122666   0.188  11.997   9.291 -0.1773 -0.6330 -0.7634
 4566SOL    HW222667   0.264  11.873   9.334  0.0717 -0.3725 -0.4446
 4567SOL     OW22668   1.865   6.778   2.873  0.0769 -0.1738 -0.1811
 4567SOL    HW122669   1.858   6.810   2.963  1.0405  0.2845 -0.2537
 4567SOL    HW222670   1.908   6.849   2.826  0.1506 -0.6621 -0.8696
 4568SOL     OW22671   0.177   5.239   0.103 -0.1941 -0.5122 -0.2409
 4568SOL    HW122672   0.203   5.309   0.043  0.7845  0.9529  1.7687
 4568SOL    HW222673   0.136   5.284   0.177 -1.3545 -2.2369  0.2281
 4569SOL     OW22674   9.738  10.997   9.051  0.1520  0.6528  0.4608
 4569SOL    HW122675   9.776  11.077   9.016  1.0181 -0.5512 -1.5284
 4569SOL    HW222676   9.730  10.939   8.976 -2.9694 -0.2450  1.3368
 4570SOL     OW22677   4.316   3.503   9.079  0.2636 -0.6104 -0.2049
 4570SOL    HW122678   4.389   3.537   9.027  0.6015  0.0965  0.6985
 4570SOL    HW222679   4.239   3.548   9.045  0.8473  2.1144  1.7686
 4571SOL     OW22680  10.496   2.243  12.349 -0.3373 -0.0430  0.1058
 4571SOL    HW122681  10.488   2.337  12.332 -0.3757 -0.1652 -0.5874
 4571SOL    HW222682  10.488   2.202  12.262  4.6189 -0.3785 -0.5372
 4572SOL     OW22683   1.196  12.286   5.428 -0.0239 -0.4319  0.1603
 4572SOL    HW122684   1.212  12.257   5.338  0.2643 -1.4594  0.5283
 4572SOL    HW222685   1.267  12.348   5.446  0.8543 -1.4216  0.2002
 4573SOL     OW22686   3.992   5.295   9.769  0.1392  0.0616  0.1887
 4573SOL    HW122687   4.062   5.355   9.746 -0.4163  0.1887 -1.2476
 4573SOL    HW222688   4.036   5.214   9.793  0.7822  0.1233 -0.7503
 4574SOL     OW22689   6.737   1.901   0.828  0.2473 -0.5582 -0.5003
 4574SOL    HW122690   6.673   1.840   0.792 -0.8422  0.9137 -1.1931
 4574SOL    HW222691   6.703   1.922   0.915  1.1182 -1.6065  0.1161
 4575SOL     OW22692   0.084   5.857   0.871 -0.4035 -0.3290  0.9050
 4575SOL    HW122693   0.140   5.785   0.899  0.2909  0.2091  0.9156
 4575SOL    HW222694   0.076   5.913   0.948  0.8405  0.7283  0.3005
 4576SOL     OW22695   2.148   0.771   8.695  0.1355 -0.0196 -0.2171
 4576SOL    HW122696   2.064   0.816   8.682 -0.7217 -1.1831  0.9774
 4576SOL    HW222697   2.134   0.684   8.657  1.1897  0.1429 -0.9964
 4577SOL     OW22698   1.984   4.085   1.398  0.0526 -0.2466 -0.0659
 4577SOL    HW122699   2.000   4.005   1.347  1.9658 -0.7324  1.1915
 4577SOL    HW222700   1.891   4.083   1.417 -0.1589 -1.5481 -1.0803
 4578SOL     OW22701   2.325  10.992   1.319  0.1021  0.1776 -0.2965
 4578SOL    HW122702   2.355  10.939   1.392  1.0952 -1.0653 -1.5644
 4578SOL    HW222703   2.334  10.936   1.242  0.1835  1.8158 -1.5543
 4579SOL     OW22704   5.818  10.376   0.518  0.1495 -0.2634  0.0128
 4579SOL    HW122705   5.779  10.310   0.461 -1.0615  0.3484  0.1068
 4579SOL    HW222706   5.836  10.450   0.460  2.5884 -1.0327 -0.3356
 4580SOL     OW22707   9.635   0.808  11.388 -0.8391 -0.0207  0.5140
 4580SOL    HW122708   9.682   0.824  11.469 -1.3401  0.3918  0.7312
 4580SOL    HW222709   9.543   0.824  11.410 -1.2629 -2.0631  0.4368
 4581SOL     OW22710   2.504   9.923   1.811  0.2794  0.5988 -0.0393
 4581SOL    HW122711   2.435   9.981   1.843 -1.3248 -1.1534 -0.1305
 4581SOL    HW222712   2.457   9.852   1.767  2.2290  0.2833 -1.7752
 4582SOL     OW22713   6.181   4.067   5.303 -0.2939  0.7179  0.2564
 4582SOL    HW122714   6.149   4.102   5.219 -1.4916 -0.0043  0.3829
 4582SOL    HW222715   6.236   3.993   5.279 -0.3608  0.7226  0.0861
 4583SOL     OW22716   9.470   5.721   6.854  0.0511 -0.4275  0.7210
 4583SOL    HW122717   9.422   5.787   6.903  1.0677 -0.6068  2.0331
 4583SOL    HW222718   9.549   5.766   6.824 -0.5950 -0.3008 -0.8751
 4584SOL     OW22719   5.286   9.821   4.383 -0.1473 -0.1842 -1.0431
 4584SOL    HW122720   5.233   9.743   4.393 -1.0331  0.4173 -0.9225
 4584SOL    HW222721   5.359   9.809   4.444 -0.7198 -0.5487 -0.4245
 4585SOL     OW22722  10.936  11.349   2.345  0.0889 -0.4897  0.1281
 4585SOL    HW122723  10.846  11.380   2.353 -0.1348 -0.5366 -1.6690
 4585SOL    HW222724  10.985  11.400   2.410 -0.7317  1.7450 -0.8889
 4586SOL     OW22725   2.436   3.152   5.302 -0.6550 -0.2737  0.1894
 4586SOL    HW122726   2.449   3.066   5.343 -0.0787 -0.7877 -1.0344
 4586SOL    HW222727   2.398   3.206   5.371  1.7955 -0.6111  1.9208
 4587SOL     OW22728   6.657  12.157  10.805  0.0156  0.5957  0.1109
 4587SOL    HW122729   6.728  12.102  10.838 -0.9850 -1.8211 -1.5139
 4587SOL    HW222730   6.696  12.244  10.797  2.5307 -0.4497  0.1031
 4588SOL     OW22731  11.944   4.703   8.686  0.7034  0.3257 -0.0277
 4588SOL    HW122732  11.913   4.625   8.733 -1.6836  0.0391 -1.8335
 4588SOL    HW222733  11.899   4.776   8.728  1.5882  0.5364  0.5650
 4589SOL     OW22734   9.282  10.251   7.225  0.0146 -0.3293 -0.1110
 4589SOL    HW122735   9.351  10.307   7.261 -0.4435  0.2558 -0.1428
 4589SOL    HW222736   9.265  10.187   7.295 -1.5790  1.3930  1.1962
 4590SOL     OW22737   5.047   0.802   2.727 -0.0888  0.4898 -0.4534
 4590SOL    HW122738   5.060   0.893   2.754  0.4494  0.2475  0.1426
 4590SOL    HW222739   4.977   0.770   2.783 -0.3244  0.5540 -0.7101
 4591SOL     OW22740  11.089  12.434   4.233 -0.4321  0.4348 -0.2247
 4591SOL    HW122741  11.069  12.340   4.238 -3.8406  1.0162 -0.0930
 4591SOL    HW222742  11.131  12.454   4.316 -0.8924 -0.7697  0.3375
 4592SOL     OW22743   2.006   4.278   0.581 -0.0358  0.2977  0.1985
 4592SOL    HW122744   2.097   4.276   0.609  0.5787 -0.7893 -1.6771
 4592SOL    HW222745   2.003   4.221   0.504 -1.8838  1.8119 -0.9608
 4593SOL     OW22746   4.761   3.278   8.052 -0.2217  0.5719 -0.0195
 4593SOL    HW122747   4.827   3.242   7.992  0.6643  0.3927  1.0465
 4593SOL    HW222748   4.768   3.372   8.041  0.0390  0.5465 -0.0792
 4594SOL     OW22749   1.887  11.786   2.939  0.0979  0.2377  0.1887
 4594SOL    HW122750   1.919  11.874   2.962  1.0355 -0.0903  0.1819
 4594SOL    HW222751   1.945  11.727   2.986  0.8647 -0.4232 -1.5139
 4595SOL     OW22752   1.669  12.565   1.760  0.8191 -0.7251 -0.1607
 4595SOL    HW122753   1.624  12.534   1.681 -0.4365  1.4089 -0.3457
 4595SOL    HW222754   1.757  12.587   1.731  0.5741 -0.5989 -0.8080
 4596SOL     OW22755   3.039  11.475   3.993 -0.1443  0.4979  0.4502
 4596SOL    HW122756   3.063  11.386   4.022  0.9947  0.3239 -0.8982
 4596SOL    HW222757   3.090  11.533   4.050 -0.2306  0.2614  0.7702
 4597SOL     OW22758  10.713   4.826   6.138  0.0353 -0.7269 -0.4386
 4597SOL    HW122759  10.742   4.771   6.066 -0.6887  0.2494 -1.5299
 4597SOL    HW222760  10.707   4.914   6.100 -0.7103 -0.2452  0.7180
 4598SOL     OW22761  10.447  10.579   0.953  0.1678  0.1891 -0.2280
 4598SOL    HW122762  10.475  10.551   1.040  0.3474 -1.2030 -0.7189
 4598SOL    HW222763  10.404  10.663   0.968  0.1184 -0.0698  1.2127
 4599SOL     OW22764  11.099   0.973   3.343  0.3167  0.8298  0.1934
 4599SOL    HW122765  11.159   0.909   3.305 -0.7608  0.4089 -0.9063
 4599SOL    HW222766  11.076   0.936   3.429  0.8301  0.4811  0.1858
 4600SOL     OW22767   2.128   6.871   4.332  0.0515 -0.8998 -0.3023
 4600SOL    HW122768   2.086   6.956   4.320  0.3286 -1.0355 -2.6614
 4600SOL    HW222769   2.062   6.807   4.304  0.2795 -1.3949  0.2697
 4601SOL     OW22770   4.697   4.491   4.885 -0.1438 -1.0295 -0.3451
 4601SOL    HW122771   4.617   4.441   4.868  0.3492 -1.5001 -1.3945
 4601SOL    HW222772   4.765   4.424   4.895  0.4200 -0.6137 -1.1827
 4602SOL     OW22773   7.243   6.923   0.918  0.3906  0.3390  0.4762
 4602SOL    HW122774   7.234   6.838   0.961  2.1934  0.2178  0.7141
 4602SOL    HW222775   7.288   6.903   0.836  0.7537  1.0483  0.4995
 4603SOL     OW22776   7.249   7.145   2.246  0.1345  0.2071  0.1552
 4603SOL    HW122777   7.173   7.181   2.292  0.6589  1.9893 -0.2690
 4603SOL    HW222778   7.237   7.051   2.250 -1.8177  0.4209  0.5752
 4604SOL     OW22779   4.407   6.588   0.889 -0.8644  0.7423  0.1928
 4604SOL    HW122780   4.322   6.585   0.933 -2.0899  1.8140 -1.9238
 4604SOL    HW222781   4.425   6.682   0.877  0.8360  0.5527  0.9427
 4605SOL     OW22782  10.037   4.859  10.381  0.8301  0.1012 -0.4960
 4605SOL    HW122783  10.026   4.954  10.377  1.0697  0.0916 -2.5367
 4605SOL    HW222784   9.947   4.825  10.380  0.7568  0.2976 -0.8426
 4606SOL     OW22785   4.933   0.313   8.371  0.5310  0.1475  0.2752
 4606SOL    HW122786   4.979   0.262   8.437  1.1385  0.5395  0.1585
 4606SOL    HW222787   4.844   0.321   8.405  0.3637 -1.1281  0.2137
 4607SOL     OW22788  12.250   8.735   1.178 -0.1927  0.1443  0.2615
 4607SOL    HW122789  12.321   8.781   1.222  1.4468 -2.9280  1.1131
 4607SOL    HW222790  12.257   8.763   1.086  1.1211  1.0792  0.6200
 4608SOL     OW22791  11.680   1.802   9.352  0.1435 -1.0486 -0.0241
 4608SOL    HW122792  11.710   1.841   9.434  0.9717 -2.1756  0.2331
 4608SOL    HW222793  11.757   1.805   9.295 -0.5200  0.0529 -0.9133
 4609SOL     OW22794   5.734   4.025   4.305  0.1082 -0.2555 -0.6385
 4609SOL    HW122795   5.823   3.989   4.296 -0.0869 -0.5728 -1.3748
 4609SOL    HW222796   5.737   4.108   4.257  0.1841  0.0536 -0.1040
 4610SOL     OW22797  11.881   7.895   2.914  0.5215  0.4683  0.2089
 4610SOL    HW122798  11.886   7.825   2.849 -1.8437 -0.0445  0.5226
 4610SOL    HW222799  11.929   7.862   2.990 -1.0419 -1.0884  0.5618
 4611SOL     OW22800   1.943   4.560  12.372  1.0838  0.7922 -0.1994
 4611SOL    HW122801   1.946   4.501  12.446  2.1266  0.8940 -0.1445
 4611SOL    HW222802   1.850   4.563  12.347  1.2965 -3.8060 -2.5754
 4612SOL     OW22803   1.901   1.789   9.629 -0.0099 -0.4689  0.2324
 4612SOL    HW122804   1.945   1.845   9.565 -0.0733 -0.8417 -0.1403
 4612SOL    HW222805   1.959   1.713   9.639 -0.0032 -0.4159  0.6144
 4613SOL     OW22806  12.450   0.572   1.403 -0.5116  0.6422 -0.4033
 4613SOL    HW122807  12.444   0.637   1.333 -0.7164 -0.2750 -1.2580
 4613SOL    HW222808  12.530   0.595   1.450  0.9904 -0.1595 -2.4476
 4614SOL     OW22809   5.947  12.243   5.276 -0.3053  0.0482  0.7221
 4614SOL    HW122810   5.977  12.247   5.367 -2.2284 -0.6649  1.4447
 4614SOL    HW222811   5.991  12.166   5.240  1.5295  1.1039  0.5953
 4615SOL     OW22812  12.544   4.241   0.859 -0.3780  0.2631 -0.1127
 4615SOL    HW122813  12.534   4.332   0.833  1.6255  0.0451 -1.9262
 4615SOL    HW222814  12.602   4.245   0.935 -1.8601  0.5683  1.0483
 4616SOL     OW22815   1.321   8.975  11.341  0.0434 -0.3240  0.0472
 4616SOL    HW122816   1.281   9.060  11.324  0.3353 -0.3415 -0.7693
 4616SOL    HW222817   1.268   8.912  11.293  0.1511 -0.5407  0.2069
 4617SOL     OW22818   9.111   5.850   3.690 -0.5202 -0.3071 -0.1183
 4617SOL    HW122819   9.160   5.858   3.771 -0.7598 -1.8221  0.2003
 4617SOL    HW222820   9.044   5.919   3.695 -0.5631 -0.4174  0.9816
 4618SOL     OW22821  10.770   7.558  12.198 -0.2271 -0.0664  0.8985
 4618SOL    HW122822  10.696   7.601  12.156  0.3216  0.9511  0.9388
 4618SOL    HW222823  10.762   7.580  12.291  1.1798  1.7288  0.6463
 4619SOL     OW22824   7.464   5.056   5.407 -0.0862 -0.1548  0.5473
 4619SOL    HW122825   7.413   5.131   5.438 -0.1844 -0.1197  0.2975
 4619SOL    HW222826   7.554   5.089   5.403  0.0179 -0.3114  1.3067
 4620SOL     OW22827   7.837   0.425   6.582  0.8280 -0.0683  0.6827
 4620SOL    HW122828   7.776   0.447   6.652  0.8980  4.3446 -0.3326
 4620SOL    HW222829   7.919   0.406   6.627  0.7526  2.2023  1.9500
 4621SOL     OW22830   5.196   1.271   5.082  0.2852 -0.1902 -0.0917
 4621SOL    HW122831   5.222   1.324   5.157 -0.9710 -0.0055  0.2366
 4621SOL    HW222832   5.100   1.272   5.084  0.2379 -1.7601 -0.5946
 4622SOL     OW22833  10.014   7.931   9.357 -0.0491  0.5147 -0.0518
 4622SOL    HW122834   9.935   7.939   9.410  0.4177  1.6332  0.5093
 4622SOL    HW222835  10.066   7.865   9.401  1.0688  2.5684  1.9189
 4623SOL     OW22836   5.694   2.728  11.285 -0.5297  0.2975  0.0470
 4623SOL    HW122837   5.746   2.676  11.347 -0.6507 -0.9670 -0.8822
 4623SOL    HW222838   5.759   2.774  11.232 -0.4150  0.5660  0.4089
 4624SOL     OW22839  10.737   3.515   6.922 -0.2934  0.2273 -0.4531
 4624SOL    HW122840  10.695   3.516   7.008 -1.0728 -2.2720 -0.7213
 4624SOL    HW222841  10.665   3.529   6.860 -0.1949 -0.6547 -0.7796
 4625SOL     OW22842   5.443   1.704  12.407 -0.0118  0.2891 -0.2436
 4625SOL    HW122843   5.446   1.616  12.369  2.1485 -0.2393  1.0256
 4625SOL    HW222844   5.374   1.700  12.473  0.4872 -0.6297  0.2235
 4626SOL     OW22845   1.988   7.714  12.188  0.3455 -0.6294  0.5921
 4626SOL    HW122846   1.958   7.623  12.189  0.6958 -0.7592 -0.1012
 4626SOL    HW222847   2.028   7.725  12.102 -0.1776  0.3386  0.4542
 4627SOL     OW22848   9.425   8.125   3.123 -0.1525 -0.2534 -0.6202
 4627SOL    HW122849   9.372   8.047   3.141 -1.3604  0.6529 -0.0554
 4627SOL    HW222850   9.461   8.110   3.036  0.3603 -1.8199 -0.1758
 4628SOL     OW22851  12.288   7.198   0.299  0.3638 -0.2264 -0.5222
 4628SOL    HW122852  12.214   7.245   0.337 -0.9629 -1.5969 -1.2896
 4628SOL    HW222853  12.342   7.266   0.260  0.3249  0.9495  1.3655
 4629SOL     OW22854   0.339  10.403   1.830  0.5415 -0.2880 -0.0267
 4629SOL    HW122855   0.330  10.421   1.924  0.1154 -0.3885 -0.0493
 4629SOL    HW222856   0.327  10.308   1.823 -1.0206 -0.0864 -0.3729
 4630SOL     OW22857   4.499  12.282   0.318  0.1027  0.0761  0.1227
 4630SOL    HW122858   4.497  12.247   0.406  1.0333 -1.8033 -0.5535
 4630SOL    HW222859   4.578  12.336   0.315 -0.2447  0.6243  0.5813
 4631SOL     OW22860  10.538   4.560  10.079  0.3375 -0.1163  0.4822
 4631SOL    HW122861  10.501   4.573   9.992 -0.7345  0.0433  0.9479
 4631SOL    HW222862  10.466   4.524  10.131  0.5162  1.1530  1.6725
 4632SOL     OW22863   9.148   6.831   4.608 -0.1402 -0.5695  0.4323
 4632SOL    HW122864   9.120   6.922   4.600 -0.3063 -0.6911 -0.4268
 4632SOL    HW222865   9.071   6.786   4.644  0.0452 -0.3261  1.1561
 4633SOL     OW22866   4.626   6.836   2.124 -0.0591  0.4260  0.1413
 4633SOL    HW122867   4.621   6.924   2.162 -0.7452 -0.0407  1.1428
 4633SOL    HW222868   4.601   6.849   2.033  1.1524  1.4826 -0.0813
 4634SOL     OW22869  11.136   9.467   1.178 -0.1680  0.0527  0.6788
 4634SOL    HW122870  11.086   9.396   1.139  0.3620 -0.2275  0.5048
 4634SOL    HW222871  11.147   9.441   1.269 -0.5299  0.2228  0.7731
 4635SOL     OW22872   0.802   2.209   4.509  0.3907  0.0639  0.7576
 4635SOL    HW122873   0.865   2.281   4.516 -0.0267  0.5500 -0.3788
 4635SOL    HW222874   0.777   2.190   4.600 -1.2003  2.8453  0.9888
 4636SOL     OW22875   4.064   5.585   6.405 -0.5654 -0.4662  0.2240
 4636SOL    HW122876   4.058   5.665   6.354 -2.1080 -0.4064  0.4474
 4636SOL    HW222877   4.106   5.611   6.487  0.9877 -0.3656 -0.5538
 4637SOL     OW22878   9.349   6.245   3.549 -0.0820  0.0037  0.3830
 4637SOL    HW122879   9.424   6.238   3.490 -0.7722 -0.4925 -0.4540
 4637SOL    HW222880   9.386   6.228   3.636  0.6562 -0.9450 -0.0893
 4638SOL     OW22881   5.617   9.578   3.626  0.6355 -0.4452  0.1664
 4638SOL    HW122882   5.572   9.543   3.703 -1.1336 -0.2832 -0.7697
 4638SOL    HW222883   5.677   9.508   3.600 -0.7432 -1.6224  0.0622
 4639SOL     OW22884  11.297   9.170   2.344  0.5693  0.0081  0.7947
 4639SOL    HW122885  11.352   9.163   2.266 -0.8013  1.7303 -0.3887
 4639SOL    HW222886  11.259   9.083   2.355  0.8240 -0.2698 -0.4129
 4640SOL     OW22887   6.194   2.184   4.823 -0.3235 -0.3325  0.4662
 4640SOL    HW122888   6.110   2.228   4.811 -0.9712 -1.9488 -1.7493
 4640SOL    HW222889   6.256   2.237   4.773 -0.2047  0.3401  1.3124
 4641SOL     OW22890   2.691   7.371  10.498  0.6240  0.3061 -0.0918
 4641SOL    HW122891   2.653   7.283  10.502  0.3675  0.2657 -2.2649
 4641SOL    HW222892   2.621   7.430  10.525  0.8587 -0.1218  1.5822
 4642SOL     OW22893  12.536   4.873   6.579  0.1026  0.4323  0.4212
 4642SOL    HW122894  12.535   4.797   6.521  1.1650  0.6237  0.1324
 4642SOL    HW222895  12.575   4.943   6.527  0.3553  0.8163  1.1087
 4643SOL     OW22896   8.980  12.092   4.385 -0.1568 -0.0677  0.2779
 4643SOL    HW122897   8.889  12.100   4.357  0.1170 -0.2901 -0.7110
 4643SOL    HW222898   9.009  12.007   4.352  1.1424  1.0504 -1.6381
 4644SOL     OW22899   6.987  11.964   2.014  0.2352  0.2980  0.0668
 4644SOL    HW122900   7.014  11.976   2.105  1.3652 -1.4407 -0.0032
 4644SOL    HW222901   7.059  11.916   1.973 -0.7753 -0.0075 -1.4611
 4645SOL     OW22902   6.317   8.177   3.541  0.1639  0.2092  0.1105
 4645SOL    HW122903   6.295   8.270   3.544  0.3275  0.2555 -0.0969
 4645SOL    HW222904   6.235   8.135   3.515 -0.1941  0.1882  1.2400
 4646SOL     OW22905   4.398  11.341   5.549  0.7827 -0.3189 -0.3318
 4646SOL    HW122906   4.466  11.304   5.605 -0.5282  1.1598  2.4463
 4646SOL    HW222907   4.331  11.273   5.545 -0.0016  0.2771  1.6836
 4647SOL     OW22908   0.594   0.589  11.122 -0.0820  0.2800  0.1053
 4647SOL    HW122909   0.662   0.533  11.160 -1.2993 -0.0313  1.9661
 4647SOL    HW222910   0.548   0.532  11.061  1.3009  0.5009 -1.1910
 4648SOL     OW22911   5.079   2.365   1.441  0.2211 -0.5226 -0.6397
 4648SOL    HW122912   5.003   2.422   1.453 -0.3886 -1.3284 -0.5409
 4648SOL    HW222913   5.045   2.289   1.394  0.4108 -1.9793  1.4283
 4649SOL     OW22914  11.649  10.782   2.586  0.3610 -0.1216  0.2080
 4649SOL    HW122915  11.611  10.858   2.543  2.1628  0.8408  0.2339
 4649SOL    HW222916  11.596  10.708   2.556  0.5459  0.7086 -2.4070
 4650SOL     OW22917  10.409   1.579   4.492 -0.3152  0.3511  0.5282
 4650SOL    HW122918  10.408   1.484   4.504 -1.1771  0.1090 -1.1239
 4650SOL    HW222919  10.323   1.608   4.523 -0.8759  0.2725 -0.8483
 4651SOL     OW22920   9.557   5.398   3.879 -0.2011 -0.0528  0.3675
 4651SOL    HW122921   9.607   5.474   3.849 -0.1903 -0.6163 -1.1733
 4651SOL    HW222922   9.466   5.427   3.879 -0.0064  0.6117  1.9798
 4652SOL     OW22923  11.632  11.557  10.761  0.5463  0.2083  0.3564
 4652SOL    HW122924  11.638  11.627  10.697  2.2384 -0.2758 -0.0828
 4652SOL    HW222925  11.568  11.496  10.725  0.8052  0.3970 -0.4384
 4653SOL     OW22926   1.563   1.317  10.822 -0.0901  0.1423  0.0274
 4653SOL    HW122927   1.570   1.412  10.832 -0.1565  0.1556 -0.0461
 4653SOL    HW222928   1.509   1.289  10.896  1.6565 -0.1085  1.2614
 4654SOL     OW22929   3.555   3.546   5.630 -0.7063 -0.3017 -0.3889
 4654SOL    HW122930   3.630   3.523   5.685 -0.8945 -0.9154 -0.3873
 4654SOL    HW222931   3.561   3.641   5.621  0.0371 -0.3390 -0.3403
 4655SOL     OW22932  10.831  11.400   8.557  0.0193  0.2158  0.0364
 4655SOL    HW122933  10.894  11.393   8.486  1.6612  0.0632  1.4474
 4655SOL    HW222934  10.753  11.439   8.517  0.5663 -0.6731 -2.0086
 4656SOL     OW22935   4.398  10.307   8.055 -0.1551 -0.6599  0.7190
 4656SOL    HW122936   4.384  10.233   8.113  1.1467 -0.1573  1.7208
 4656SOL    HW222937   4.471  10.280   7.998  0.3503 -0.1587  1.1138
 4657SOL     OW22938  12.070  11.203   3.050 -0.6165  0.1602  0.0996
 4657SOL    HW122939  12.023  11.247   3.121 -0.1641 -0.6522  0.9390
 4657SOL    HW222940  12.003  11.158   3.000 -0.9790  1.0239 -0.2169
 4658SOL     OW22941   0.857  11.454   6.387  0.0551 -0.3087  0.4439
 4658SOL    HW122942   0.833  11.369   6.426 -0.3684 -0.8786 -0.9723
 4658SOL    HW222943   0.876  11.433   6.296 -0.4665  1.1905 -0.0330
 4659SOL     OW22944   2.666  11.708   7.196 -0.2393  0.0077  0.2392
 4659SOL    HW122945   2.574  11.707   7.169 -0.4223 -1.1465  0.8580
 4659SOL    HW222946   2.707  11.638   7.145  0.2887  0.4744  0.0127
 4660SOL     OW22947   3.952  11.563   4.552  0.1381 -0.1861 -0.2217
 4660SOL    HW122948   3.954  11.511   4.472  0.7690 -1.2405  0.4487
 4660SOL    HW222949   3.861  11.558   4.582  0.2722 -1.3116  0.0648
 4661SOL     OW22950   4.089   2.346  10.051  0.1869  0.2096 -0.1203
 4661SOL    HW122951   4.153   2.349  10.123  0.0626 -1.4629  0.0833
 4661SOL    HW222952   4.012   2.390  10.087  0.3562 -0.0013  0.5268
 4662SOL     OW22953   9.252  10.513   4.825 -0.2489  0.3908 -0.4885
 4662SOL    HW122954   9.322  10.518   4.761  0.1046  0.2211 -0.1196
 4662SOL    HW222955   9.295  10.529   4.909 -0.7134  0.6639 -0.2975
 4663SOL     OW22956  10.777   5.792   0.701  0.3614  0.2888  0.0670
 4663SOL    HW122957  10.869   5.763   0.701  0.5279  0.7086  1.3671
 4663SOL    HW222958  10.741   5.760   0.619  1.1505 -1.6030  0.4051
 4664SOL     OW22959   8.500   3.699   8.818  0.1661  0.3533 -0.7081
 4664SOL    HW122960   8.436   3.637   8.851 -0.7046  0.2983 -2.3812
 4664SOL    HW222961   8.457   3.785   8.827  0.3592  0.4459 -0.6713
 4665SOL     OW22962   9.615   2.792   3.720 -0.5822  0.2550 -0.5291
 4665SOL    HW122963   9.632   2.703   3.750 -2.6574  0.3451  1.1679
 4665SOL    HW222964   9.574   2.835   3.796  0.7414  2.7898 -1.1412
 4666SOL     OW22965  11.685  10.478   8.675  0.1110 -0.1214 -0.3871
 4666SOL    HW122966  11.751  10.416   8.646  0.2954  0.4459 -1.2269
 4666SOL    HW222967  11.625  10.486   8.601 -1.3668 -1.2281  0.6408
 4667SOL     OW22968  11.233  10.913   9.019  0.8355  0.2873  0.0073
 4667SOL    HW122969  11.309  10.947   8.972  0.6801  0.4833 -0.1083
 4667SOL    HW222970  11.174  10.988   9.026  1.0180  0.3650  0.8602
 4668SOL     OW22971  10.484  10.922   0.068 -0.2476 -0.8694  0.9775
 4668SOL    HW122972  10.454  11.000   0.114  0.2924 -0.1947  0.1954
 4668SOL    HW222973  10.416  10.906   0.002  1.3929  1.1492 -1.3612
 4669SOL     OW22974   7.758   0.808   9.360  0.2227  0.6037 -0.2250
 4669SOL    HW122975   7.697   0.755   9.307  1.0271  0.1977 -0.7659
 4669SOL    HW222976   7.795   0.746   9.422 -1.9590  1.3946  2.0339
 4670SOL     OW22977   8.750  10.008   7.023 -0.1699 -0.3214  0.6972
 4670SOL    HW122978   8.836  10.021   6.984  0.3166 -0.1826  1.7879
 4670SOL    HW222979   8.698  10.082   6.991  0.4149  0.1673  0.8613
 4671SOL     OW22980  10.797  12.574   7.810 -0.6270 -0.2770  0.0997
 4671SOL    HW122981  10.875  12.520   7.796 -0.9957 -2.2872  4.2047
 4671SOL    HW222982  10.727  12.529   7.762 -0.0456 -0.7542 -0.3150
 4672SOL     OW22983   6.996   1.876   3.858 -0.2117  0.8316 -0.6238
 4672SOL    HW122984   7.054   1.861   3.782 -1.2761  0.2379 -1.3430
 4672SOL    HW222985   6.953   1.792   3.872 -1.2266  1.3786 -0.3844
 4673SOL     OW22986   2.368  10.657   5.149 -0.5658  0.3021  0.5637
 4673SOL    HW122987   2.364  10.752   5.160  2.3094  0.3669  2.0083
 4673SOL    HW222988   2.289  10.624   5.191 -0.4504  1.9462  2.1841
 4674SOL     OW22989  11.881   1.934   0.841  0.2521 -0.1198  0.0372
 4674SOL    HW122990  11.946   1.892   0.898  2.2523  0.6578 -1.5408
 4674SOL    HW222991  11.851   1.864   0.784 -0.0538 -0.4182  0.5584
 4675SOL     OW22992   3.181   9.469   8.172  0.2532 -0.0502  0.6427
 4675SOL    HW122993   3.217   9.408   8.108  0.2307  0.5165  0.0809
 4675SOL    HW222994   3.236   9.458   8.250  2.8162  2.0034 -0.7064
 4676SOL     OW22995   4.643   6.331   9.631  0.4583  0.0922  0.3146
 4676SOL    HW122996   4.568   6.344   9.573  0.4545 -3.0315 -0.5675
 4676SOL    HW222997   4.605   6.296   9.712  0.8084  0.1114  0.4909
 4677SOL     OW22998   4.709   6.397   4.940  0.4851  0.2876  0.1348
 4677SOL    HW122999   4.776   6.453   4.977  1.2329  1.5687 -2.8704
 4677SOL    HW223000   4.652   6.456   4.891 -0.5107 -1.2312 -0.6359
 4678SOL     OW23001   2.976   8.787  10.603 -0.3692 -0.4972 -0.0130
 4678SOL    HW123002   3.058   8.742  10.624 -0.1968 -0.5589 -0.7832
 4678SOL    HW223003   2.911   8.747  10.660  0.5338  1.1169  2.2838
 4679SOL     OW23004   4.062   7.410   2.330  0.2587  0.0823 -0.3018
 4679SOL    HW123005   4.022   7.324   2.340  0.4998  0.0857  0.8643
 4679SOL    HW223006   4.096   7.411   2.241  2.0032 -1.7793  0.2826
 4680SOL     OW23007   5.031   2.673   1.799 -0.1815  0.0717 -0.2063
 4680SOL    HW123008   5.029   2.655   1.893  1.6093  0.8800  0.0248
 4680SOL    HW223009   4.987   2.597   1.760  0.0293 -0.8283  1.2062
 4681SOL     OW23010   5.502   2.567   8.405 -0.2920  0.1418  0.1043
 4681SOL    HW123011   5.505   2.475   8.431 -1.0691  0.2711  0.7005
 4681SOL    HW223012   5.591   2.588   8.378  0.3316 -0.3031  1.7117
 4682SOL     OW23013   4.473   9.796  10.598  0.1978  0.0139  0.3215
 4682SOL    HW123014   4.478   9.818  10.691  1.6348  0.0709  0.2514
 4682SOL    HW223015   4.494   9.879  10.554 -1.1515  0.1598 -0.0807
 4683SOL     OW23016   9.764   8.509   6.807  0.0758  0.0424  0.2957
 4683SOL    HW123017   9.782   8.431   6.755  0.2826 -0.8032  1.5774
 4683SOL    HW223018   9.824   8.503   6.881  0.6704  1.8619  0.0186
 4684SOL     OW23019   4.246   7.399   5.171 -0.0662  0.5112  0.1195
 4684SOL    HW123020   4.272   7.491   5.174 -0.8141  0.7482 -0.3307
 4684SOL    HW223021   4.329   7.351   5.174  0.5142  1.2451 -2.0482
 4685SOL     OW23022  12.141   2.460   3.681 -0.2212  0.7227 -0.3850
 4685SOL    HW123023  12.232   2.476   3.657  0.0660 -0.0818  0.1358
 4685SOL    HW223024  12.116   2.538   3.730  0.9607 -0.0248  1.5536
 4686SOL     OW23025  11.149   4.776   8.841 -0.0361  0.1118 -0.1925
 4686SOL    HW123026  11.063   4.783   8.883 -0.7009 -0.4758 -1.3840
 4686SOL    HW223027  11.129   4.766   8.747  1.3871  1.8685 -0.7527
 4687SOL     OW23028   8.244   6.563   7.259 -0.4153  0.0543 -0.4637
 4687SOL    HW123029   8.225   6.517   7.341  0.9252  0.6216  0.1924
 4687SOL    HW223030   8.286   6.496   7.204 -0.0710  0.0234 -0.1686
 4688SOL     OW23031  10.636   4.994   3.653 -0.4353 -0.4299 -0.5006
 4688SOL    HW123032  10.599   5.037   3.576 -1.5727 -0.2203  0.1539
 4688SOL    HW223033  10.716   5.044   3.671 -0.4197 -0.1690 -1.2339
 4689SOL     OW23034   8.408   3.153   5.585 -0.3574  0.6193  0.3385
 4689SOL    HW123035   8.440   3.069   5.554 -1.7198  0.7909 -1.6646
 4689SOL    HW223036   8.408   3.145   5.681  1.6368 -0.8136  0.2819
 4690SOL     OW23037   5.414  10.527   4.337  0.2189 -0.9880 -0.4162
 4690SOL    HW123038   5.359  10.504   4.412 -0.6159 -0.6675 -0.9164
 4690SOL    HW223039   5.446  10.443   4.303 -0.0999 -1.1843 -0.2259
 4691SOL     OW23040  11.361  11.207   3.109 -0.1044 -0.2360  0.4884
 4691SOL    HW123041  11.312  11.136   3.149  1.6628 -1.6059  0.3221
 4691SOL    HW223042  11.358  11.188   3.015  0.5522 -0.2259  0.4613
 4692SOL     OW23043   6.355   5.356   0.359 -0.6384  0.8584  0.3179
 4692SOL    HW123044   6.362   5.305   0.439  1.7270  2.7414  1.4279
 4692SOL    HW223045   6.275   5.407   0.369 -1.5423 -0.5344  0.4221
 4693SOL     OW23046   4.839   4.738   0.126  0.0160  0.3927  0.0992
 4693SOL    HW123047   4.770   4.759   0.189  0.5568  2.9991 -0.0751
 4693SOL    HW223048   4.920   4.745   0.177  0.3191 -0.2752 -0.2731
 4694SOL     OW23049  12.523  10.723  11.580 -0.4669 -0.5582  0.1885
 4694SOL    HW123050  12.613  10.738  11.609 -0.4788 -0.0292 -0.0423
 4694SOL    HW223051  12.530  10.652  11.517 -0.2202 -0.5688  0.2269
 4695SOL     OW23052   8.172  10.504   6.703 -0.4649  0.1931 -0.2806
 4695SOL    HW123053   8.213  10.583   6.669  2.1444 -0.4383  1.1633
 4695SOL    HW223054   8.102  10.536   6.761 -1.3469  1.3176 -1.8887
 4696SOL     OW23055   8.500   3.825   7.376  0.1783 -0.2195  0.6122
 4696SOL    HW123056   8.412   3.794   7.354  0.4455 -1.0372  0.6701
 4696SOL    HW223057   8.533   3.762   7.441  0.0216  1.2530  2.1803
 4697SOL     OW23058   0.601   4.606   1.176  0.1114 -0.1307 -0.2000
 4697SOL    HW123059   0.620   4.565   1.261  0.5333  1.1226  0.3339
 4697SOL    HW223060   0.678   4.587   1.122  0.5990  0.5015  0.2591
 4698SOL     OW23061   2.553   3.548   6.451  0.4254 -0.0636 -0.0477
 4698SOL    HW123062   2.489   3.528   6.520 -0.4931  2.0935 -0.1960
 4698SOL    HW223063   2.574   3.641   6.464 -0.2860  0.6248 -3.0175
 4699SOL     OW23064   1.614   2.717   2.026 -0.1716 -0.5327 -0.3461
 4699SOL    HW123065   1.588   2.792   2.079 -0.4212 -0.0878 -1.0730
 4699SOL    HW223066   1.531   2.672   2.008 -0.0567 -0.8214 -0.1459
 4700SOL     OW23067   8.095   1.481   3.312  0.4225 -0.1236  0.2242
 4700SOL    HW123068   8.012   1.494   3.266 -0.0528 -0.4511  0.9677
 4700SOL    HW223069   8.095   1.547   3.381  0.4077 -0.6308  0.7216
 4701SOL     OW23070   7.294   5.701   8.511  0.2454  0.3642  0.4088
 4701SOL    HW123071   7.281   5.789   8.546 -0.2918  0.4804 -0.0625
 4701SOL    HW223072   7.210   5.679   8.470  0.7497  0.1125 -0.5220
 4702SOL     OW23073   9.284  11.184   5.699  0.5434 -0.3841  0.0211
 4702SOL    HW123074   9.287  11.143   5.786  0.9819  0.9572  0.6721
 4702SOL    HW223075   9.221  11.132   5.650 -1.5503  0.1758  1.8959
 4703SOL     OW23076   9.682  12.083   4.662 -0.2625 -0.3422 -0.8544
 4703SOL    HW123077   9.603  12.136   4.674  0.2899  0.7644 -1.8568
 4703SOL    HW223078   9.671  12.041   4.577  0.2526 -0.1141 -1.0391
 4704SOL     OW23079  12.068   8.323  10.802  0.3710  0.7654 -0.2894
 4704SOL    HW123080  12.155   8.316  10.841 -0.0679 -0.3562  0.5466
 4704SOL    HW223081  12.080   8.289  10.713  0.6387 -0.1341  0.0796
 4705SOL     OW23082   6.332   7.241   5.016  0.1193  0.0052 -0.2504
 4705SOL    HW123083   6.422   7.273   5.026 -0.9148  2.6012  2.3134
 4705SOL    HW223084   6.303   7.278   4.932  0.8810  0.6651 -0.2369
 4706SOL     OW23085   0.225   0.682   3.997 -0.0446 -0.6323  0.4689
 4706SOL    HW123086   0.290   0.718   4.057  1.2182 -0.4909 -0.9284
 4706SOL    HW223087   0.232   0.737   3.919 -2.6195  0.0678  0.6413
 4707SOL     OW23088  11.065   1.664   0.250 -0.2824 -0.0386 -0.1288
 4707SOL    HW123089  11.056   1.719   0.173 -0.5272 -0.8473 -0.6855
 4707SOL    HW223090  11.134   1.602   0.228  0.5634  0.5395  0.7999
 4708SOL     OW23091   0.869  12.525   9.663 -0.3106  0.2814 -0.3442
 4708SOL    HW123092   0.908  12.602   9.622  1.7286 -0.5451 -0.0883
 4708SOL    HW223093   0.896  12.452   9.607 -1.5556 -0.3490 -0.1573
 4709SOL     OW23094   9.856   9.096   2.713 -0.3961  0.5178 -0.1405
 4709SOL    HW123095   9.809   9.151   2.776 -1.9043 -1.3660  0.4462
 4709SOL    HW223096   9.824   9.124   2.628 -0.4008  1.1982  0.0752
 4710SOL     OW23097   0.874  10.965   9.059 -0.1651  0.2641 -0.9618
 4710SOL    HW123098   0.843  11.017   9.133 -0.9438  1.4385 -2.0795
 4710SOL    HW223099   0.914  10.888   9.099 -2.1413 -0.0097  0.6318
 4711SOL     OW23100   4.214  10.883   7.081 -0.6714 -0.6120 -0.1597
 4711SOL    HW123101   4.126  10.921   7.072 -0.4590  0.0945  0.6383
 4711SOL    HW223102   4.206  10.820   7.152 -0.5264 -0.5389 -0.0785
 4712SOL     OW23103   6.939   5.094   4.234  0.4422 -0.5524 -0.1100
 4712SOL    HW123104   6.899   5.162   4.179  0.4316 -0.5988 -0.1596
 4712SOL    HW223105   6.995   5.045   4.174  0.9430 -0.1914  0.0555
 4713SOL     OW23106   7.386   8.555  10.048  0.6359  0.4230 -0.5081
 4713SOL    HW123107   7.331   8.633  10.048  1.2337  0.9034  1.7145
 4713SOL    HW223108   7.475   8.589  10.035  0.6194 -0.2415 -2.8830
 4714SOL     OW23109  12.125  12.197   1.916 -0.4444 -0.0657 -0.2080
 4714SOL    HW123110  12.136  12.163   2.005 -1.7411 -0.4184 -0.1582
 4714SOL    HW223111  12.206  12.173   1.871 -1.4036 -3.6509 -0.3219
 4715SOL     OW23112   9.796  11.792   5.134 -0.2116  0.5241 -0.1536
 4715SOL    HW123113   9.805  11.839   5.217 -1.4152 -3.0007  2.2720
 4715SOL    HW223114   9.712  11.821   5.099 -0.0348  1.5585  0.2571
 4716SOL     OW23115  12.259   6.404   6.119  0.2621  0.3336  0.2267
 4716SOL    HW123116  12.167   6.427   6.110  0.4247  1.4334  1.2270
 4716SOL    HW223117  12.263   6.348   6.197  0.4057  0.0066 -0.0104
 4717SOL     OW23118   8.731  10.172   3.174  0.0071 -0.1003 -0.3499
 4717SOL    HW123119   8.644  10.158   3.139 -0.4619  0.3149  0.6233
 4717SOL    HW223120   8.789  10.128   3.111 -1.0208 -2.0564 -0.0096
 4718SOL     OW23121   9.548   8.181  11.043  0.1950  0.2978 -0.0086
 4718SOL    HW123122   9.583   8.252  11.096  2.9201 -1.6639  1.0285
 4718SOL    HW223123   9.493   8.131  11.102  2.0889 -1.0639  0.7188
 4719SOL     OW23124   1.266  10.668   3.922  0.3453 -0.2149 -0.2598
 4719SOL    HW123125   1.258  10.575   3.940 -0.4077  0.0730  0.9959
 4719SOL    HW223126   1.301  10.706   4.002 -0.2560  0.7140 -0.4217
 4720SOL     OW23127   8.846   3.904   7.494 -0.2570  0.0346  0.3923
 4720SOL    HW123128   8.776   3.848   7.528 -0.7931  0.4154 -0.0689
 4720SOL    HW223129   8.823   3.920   7.402 -1.5433  3.1013  1.1090
 4721SOL     OW23130   4.429  11.203   2.844 -0.4042 -0.5306 -0.0132
 4721SOL    HW123131   4.475  11.245   2.772  0.5252  1.5421  1.6799
 4721SOL    HW223132   4.346  11.250   2.850  0.1511  0.3370  1.1719
 4722SOL     OW23133   4.333   3.854  11.963  0.0223 -0.1596  0.0286
 4722SOL    HW123134   4.329   3.935  12.014 -0.9426  0.1913 -0.5643
 4722SOL    HW223135   4.306   3.786  12.025 -0.2422  0.1336  0.2404
 4723SOL     OW23136   4.011   2.051   7.122 -0.4638  0.1684 -0.2065
 4723SOL    HW123137   3.971   2.122   7.073 -1.1018 -0.9847 -1.4475
 4723SOL    HW223138   4.091   2.088   7.159 -0.2439  1.2410 -1.6914
 4724SOL     OW23139   8.166   4.003   8.582 -0.5214 -0.2226  0.2378
 4724SOL    HW123140   8.247   4.019   8.534  2.0505 -0.3514  4.0763
 4724SOL    HW223141   8.141   3.914   8.557  0.9414 -0.4576 -0.5210
 4725SOL     OW23142  11.341  10.853   0.380  0.0838  0.3960  0.7980
 4725SOL    HW123143  11.409  10.889   0.324 -0.6099 -0.0944 -0.3976
 4725SOL    HW223144  11.287  10.799   0.322 -1.3344  0.7763  1.6877
 4726SOL     OW23145   3.231   4.819   1.031  0.2706  0.0516  0.0207
 4726SOL    HW123146   3.161   4.762   0.999 -0.9358  1.5069 -0.0196
 4726SOL    HW223147   3.186   4.887   1.081  1.6013  1.3592 -0.4762
 4727SOL     OW23148   2.353   8.515   1.234 -0.7394  0.1470  0.2398
 4727SOL    HW123149   2.355   8.540   1.142 -1.4794 -0.9658 -0.1074
 4727SOL    HW223150   2.444   8.496   1.256 -0.5150  0.7378 -0.1618
 4728SOL     OW23151   6.591  11.280   3.910 -0.3152  0.3448 -0.1661
 4728SOL    HW123152   6.529  11.340   3.869  1.5062  1.1110 -1.9202
 4728SOL    HW223153   6.580  11.295   4.004 -1.5116  1.7260 -0.4912
 4729SOL     OW23154   0.386   2.622   2.965  0.0145 -0.0189  0.2346
 4729SOL    HW123155   0.444   2.698   2.958 -0.1085  0.1151  0.5944
 4729SOL    HW223156   0.363   2.600   2.875 -1.8738  1.8813  0.1573
 4730SOL     OW23157  11.391   7.128   0.386  0.0192 -0.5064  0.0917
 4730SOL    HW123158  11.481   7.147   0.413  0.2015 -1.3483  0.1038
 4730SOL    HW223159  11.364   7.055   0.442 -0.4283 -0.7231 -0.3974
 4731SOL     OW23160  11.880   6.847  10.153  0.0569 -0.2347 -0.1622
 4731SOL    HW123161  11.845   6.875  10.068  1.3813 -0.0159 -0.6612
 4731SOL    HW223162  11.954   6.790  10.131  0.0639 -0.6385  0.8547
 4732SOL     OW23163   6.577   9.402   9.878  0.4071 -0.2712 -0.1763
 4732SOL    HW123164   6.605   9.471   9.939  0.5718  0.4628 -1.0673
 4732SOL    HW223165   6.640   9.407   9.806 -0.5280 -0.2733 -1.0105
 4733SOL     OW23166   5.939   6.501  10.218  0.5431  0.1274  0.1100
 4733SOL    HW123167   5.911   6.586  10.252 -0.2657  0.3130 -0.9866
 4733SOL    HW223168   5.987   6.461  10.291 -1.4465  0.3428  1.6188
 4734SOL     OW23169   1.711  10.891   7.212 -0.0119 -0.8541  0.4208
 4734SOL    HW123170   1.789  10.841   7.234 -0.9424 -2.7742 -0.3628
 4734SOL    HW223171   1.691  10.943   7.290  1.0672 -1.6380  1.2315
 4735SOL     OW23172   8.008   0.863   1.043  0.4726 -0.2657 -0.1037
 4735SOL    HW123173   8.085   0.858   1.101  0.2017  0.0741  0.2867
 4735SOL    HW223174   7.952   0.929   1.083  0.4182  0.2008 -0.9230
 4736SOL     OW23175  11.479   8.620   2.349  0.1919  0.1171  0.2585
 4736SOL    HW123176  11.527   8.602   2.269  1.1470  0.5378  0.7216
 4736SOL    HW223177  11.407   8.557   2.349 -1.2828  1.6361 -2.1145
 4737SOL     OW23178   9.488  10.136   2.342 -0.0032  0.0738 -0.2226
 4737SOL    HW123179   9.531  10.222   2.340 -1.9745  1.0926 -1.8004
 4737SOL    HW223180   9.502  10.100   2.255  1.5361 -1.6651  0.6699
 4738SOL     OW23181   7.540  10.420   6.163  0.0283  0.2009 -0.0788
 4738SOL    HW123182   7.525  10.514   6.175 -0.3985  0.1587 -0.2652
 4738SOL    HW223183   7.549  10.408   6.069 -0.9849 -0.0895 -0.1555
 4739SOL     OW23184   2.562   1.903   2.524 -0.4164 -0.3629  0.3214
 4739SOL    HW123185   2.513   1.975   2.564  1.7670  0.9245  0.8786
 4739SOL    HW223186   2.513   1.882   2.445 -1.2420  1.6338  0.2359
 4740SOL     OW23187   9.822   4.231   6.259  0.2323  0.5502  0.3138
 4740SOL    HW123188   9.727   4.245   6.259  0.2738  0.8219  0.9787
 4740SOL    HW223189   9.859   4.314   6.289  0.5826 -0.1415  1.8918
 4741SOL     OW23190   5.268   8.535   5.955 -0.0852  0.0753 -0.1164
 4741SOL    HW123191   5.327   8.461   5.961  0.7881  0.6286 -1.4492
 4741SOL    HW223192   5.181   8.499   5.974  0.3807 -1.2014 -0.3639
 4742SOL     OW23193   8.267   5.122   9.342  0.2933 -0.7437 -0.0221
 4742SOL    HW123194   8.260   5.089   9.432  1.8126  0.7820  0.7219
 4742SOL    HW223195   8.291   5.045   9.290 -0.0750 -1.5502  0.9617
 4743SOL     OW23196  12.176   6.207  11.489 -0.7918 -0.5001  0.3373
 4743SOL    HW123197  12.205   6.269  11.556  2.6517 -1.6491  0.0771
 4743SOL    HW223198  12.107   6.156  11.532 -1.2599  1.1610  1.6884
 4744SOL     OW23199   4.954  11.917  11.105 -0.3428  0.1058 -0.3081
 4744SOL    HW123200   4.977  11.956  11.189  0.6255  0.4076 -0.6992
 4744SOL    HW223201   4.994  11.831  11.107  1.7969  1.0037 -1.3883
 4745SOL     OW23202  10.335  10.290   7.962 -0.1941  0.7790 -0.0988
 4745SOL    HW123203  10.400  10.297   8.031 -1.6204  0.3161  1.3536
 4745SOL    HW223204  10.345  10.201   7.928 -0.0186  0.7321  0.0742
 4746SOL     OW23205  10.879   2.127   3.437 -0.6462 -0.3368  0.0347
 4746SOL    HW123206  10.963   2.087   3.461  0.1502  0.7352 -0.8203
 4746SOL    HW223207  10.855   2.085   3.355  0.5701  1.3687 -1.2596
 4747SOL     OW23208  11.921  12.398   1.245 -0.6652 -0.1086  0.8795
 4747SOL    HW123209  11.892  12.383   1.155 -0.0593 -1.7200  0.9227
 4747SOL    HW223210  11.957  12.487   1.244  0.4062 -0.5125 -0.7561
 4748SOL     OW23211  11.652   6.861   0.746  0.2039  0.2914 -0.1201
 4748SOL    HW123212  11.571   6.812   0.762  0.1342  0.6270  0.5734
 4748SOL    HW223213  11.659   6.865   0.650  0.4077 -1.3802 -0.1997
 4749SOL     OW23214   2.956   7.860   1.940  0.2429 -0.2236  0.4011
 4749SOL    HW123215   2.911   7.778   1.920 -0.3525  0.3594 -0.7090
 4749SOL    HW223216   2.971   7.901   1.855 -0.4429  1.3451  0.9992
 4750SOL     OW23217  11.557   8.527   9.498 -0.2147  0.4483  0.6602
 4750SOL    HW123218  11.646   8.490   9.497 -0.1428  0.5221  1.9552
 4750SOL    HW223219  11.571   8.622   9.506 -0.4079  0.7321 -1.6973
 4751SOL     OW23220   1.139   5.925   2.251 -0.1741  0.2351 -0.1768
 4751SOL    HW123221   1.114   5.941   2.160 -0.0498  1.0320 -0.0732
 4751SOL    HW223222   1.136   5.830   2.260  0.1145  0.1335 -1.1006
 4752SOL     OW23223   1.533   2.096   4.184 -0.1220 -0.4327  0.6229
 4752SOL    HW123224   1.484   2.014   4.182 -0.5497 -0.1754  0.4942
 4752SOL    HW223225   1.624   2.069   4.195  0.1327 -1.0974 -2.2486
 4753SOL     OW23226   3.194   0.879   2.308 -0.8119  0.2712  0.0805
 4753SOL    HW123227   3.206   0.788   2.336 -0.0071  0.6195  0.9111
 4753SOL    HW223228   3.225   0.931   2.382  0.2237  1.2217 -0.9840
 4754SOL     OW23229   0.521   4.911   2.214  0.1507 -0.1884 -0.3691
 4754SOL    HW123230   0.615   4.904   2.231  0.3811  1.0638 -1.0113
 4754SOL    HW223231   0.492   4.821   2.201  0.4402 -1.1328  3.8550
 4755SOL     OW23232  11.007   1.637  10.826 -0.1239  0.3623  0.0744
 4755SOL    HW123233  10.976   1.614  10.738  1.0246  1.1811 -0.5594
 4755SOL    HW223234  10.931   1.677  10.868 -0.8248 -0.4707 -0.3531
 4756SOL     OW23235   0.492   0.535   4.359 -0.0813 -0.2101 -0.6556
 4756SOL    HW123236   0.419   0.597   4.367 -0.0951 -0.1199 -1.3864
 4756SOL    HW223237   0.452   0.455   4.326 -0.0260 -0.5397  0.0692
 4757SOL     OW23238   3.618   9.630   8.451 -0.1255  0.1916  0.5087
 4757SOL    HW123239   3.579   9.710   8.484  0.1931 -0.5037  2.7571
 4757SOL    HW223240   3.545   9.568   8.443 -0.2893  0.5108 -0.7284
 4758SOL     OW23241   9.396   6.453   0.303 -0.2611  1.0169 -0.0355
 4758SOL    HW123242   9.392   6.511   0.379  1.1713  1.3523 -0.1985
 4758SOL    HW223243   9.358   6.370   0.335  2.0939  0.4884  1.7113
 4759SOL     OW23244  11.499   4.109   6.240 -0.3628  0.4192  0.1440
 4759SOL    HW123245  11.472   4.110   6.148 -0.3882  0.3482  0.1505
 4759SOL    HW223246  11.563   4.179   6.247  1.4737 -1.0865 -0.4855
 4760SOL     OW23247   2.758   2.424   5.116  0.0998 -0.0927  0.4088
 4760SOL    HW123248   2.778   2.334   5.091  0.8838  0.3910 -0.8068
 4760SOL    HW223249   2.721   2.463   5.037 -0.5711  0.5683  1.0274
 4761SOL     OW23250  10.681   4.804  11.451  0.2963  0.0312  0.1178
 4761SOL    HW123251  10.671   4.897  11.469  3.4241  0.4561  0.3001
 4761SOL    HW223252  10.624   4.761  11.514 -1.5254  1.7990 -0.2435
 4762SOL     OW23253   0.820  10.680   9.362 -0.2565 -0.0144 -0.3504
 4762SOL    HW123254   0.905  10.676   9.405  1.0309  2.7359 -2.3678
 4762SOL    HW223255   0.788  10.589   9.363  1.5003 -0.7474  2.5893
 4763SOL     OW23256  10.879   1.815   9.137  0.0657 -0.6401 -0.1788
 4763SOL    HW123257  10.847   1.864   9.062 -1.7745 -2.5197 -0.7038
 4763SOL    HW223258  10.871   1.876   9.211 -3.2522 -0.4318 -0.5851
 4764SOL     OW23259  10.274   8.226   7.834 -0.2593  0.4216 -0.0534
 4764SOL    HW123260  10.181   8.205   7.827 -0.3525  0.1752  1.4829
 4764SOL    HW223261  10.311   8.153   7.882  1.1837 -0.5491 -2.4994
 4765SOL     OW23262   4.326   1.507   3.476  0.1556  0.1002  0.3299
 4765SOL    HW123263   4.300   1.462   3.556  2.6258 -1.1737  0.5095
 4765SOL    HW223264   4.290   1.452   3.406  1.3998 -1.1078  0.5803
 4766SOL     OW23265   9.360   5.417  11.522 -0.0806  0.2469  0.0944
 4766SOL    HW123266   9.401   5.470  11.590  0.8381 -0.8008  0.3962
 4766SOL    HW223267   9.337   5.479  11.453 -0.7288  1.2850  1.2029
 4767SOL     OW23268   0.574  12.367   3.171 -0.1900 -0.2023  0.1327
 4767SOL    HW123269   0.540  12.456   3.179  2.1061  0.7387  0.0653
 4767SOL    HW223270   0.572  12.332   3.260  1.7767  1.0887  0.7365
 4768SOL     OW23271   7.982   5.566   5.289 -0.6287  0.5813 -0.0134
 4768SOL    HW123272   7.895   5.538   5.317 -0.3837  0.4319  0.6147
 4768SOL    HW223273   8.041   5.526   5.352 -0.2399  2.3962  0.8376
 4769SOL     OW23274  11.547   0.105   5.402  0.0646  0.1421  0.1204
 4769SOL    HW123275  11.458   0.134   5.385 -0.6778 -1.8984  0.2084
 4769SOL    HW223276  11.537   0.015   5.434  2.0355  0.4971  1.9391
 4770SOL     OW23277   0.489  11.937  10.528 -0.1875 -0.1326 -0.5001
 4770SOL    HW123278   0.433  11.864  10.502 -1.4609  0.5798  0.1572
 4770SOL    HW223279   0.509  11.982  10.446 -0.0787 -0.7310 -0.8088
 4771SOL     OW23280  12.104  10.371   1.717  0.6344  0.3130 -0.4015
 4771SOL    HW123281  12.179  10.398   1.769  0.2544  0.0261  0.3156
 4771SOL    HW223282  12.032  10.427   1.748  0.7185  1.1261 -1.6286
 4772SOL     OW23283   8.681   9.923   9.617 -0.3681  0.3993  0.2145
 4772SOL    HW123284   8.626   9.888   9.687 -0.8339  0.2743 -0.2026
 4772SOL    HW223285   8.702  10.012   9.644  1.4957 -0.4103  1.6847
 4773SOL     OW23286   2.370   7.214   0.477 -0.0017  0.0975 -0.0859
 4773SOL    HW123287   2.442   7.249   0.425  0.2213  0.9963  0.8064
 4773SOL    HW223288   2.403   7.131   0.511  1.2800  1.2653  1.6719
 4774SOL     OW23289   6.156  10.824   5.476 -0.4344 -0.0119 -0.6971
 4774SOL    HW123290   6.097  10.896   5.497  0.2932  0.8236 -1.4633
 4774SOL    HW223291   6.207  10.811   5.556  1.2735  2.1394 -1.3384
 4775SOL     OW23292   3.700   0.895   8.347  0.0323 -0.1056  0.0333
 4775SOL    HW123293   3.632   0.962   8.343 -0.2515 -0.1298  2.6402
 4775SOL    HW223294   3.701   0.856   8.260 -1.6325  1.4994 -0.7585
 4776SOL     OW23295  11.774   2.058   4.514 -0.1987 -0.3332  0.1413
 4776SOL    HW123296  11.714   2.047   4.441 -0.5469  1.6352  0.0784
 4776SOL    HW223297  11.718   2.068   4.590  0.0965 -0.1369  0.3347
 4777SOL     OW23298   8.910   0.863   3.626 -0.5344  0.0872  0.2655
 4777SOL    HW123299   8.932   0.791   3.685 -1.3168  0.6362  1.2591
 4777SOL    HW223300   8.815   0.862   3.621 -0.7105  2.2239  1.8730
 4778SOL     OW23301   8.067   2.008   9.384  0.0804  0.0452  0.3863
 4778SOL    HW123302   7.992   2.010   9.445  0.0082  0.4440  0.2901
 4778SOL    HW223303   8.112   2.091   9.400 -0.4747  0.5939 -0.7717
 4779SOL     OW23304   1.254   7.186   3.969  0.0053 -0.0984  0.3908
 4779SOL    HW123305   1.345   7.210   3.986  0.1722 -1.2191  1.2304
 4779SOL    HW223306   1.227   7.242   3.897  0.4797  2.2655  1.9252
 4780SOL     OW23307  10.891  10.451  10.134  0.3933 -0.2546 -0.1578
 4780SOL    HW123308  10.974  10.495  10.150 -0.0668 -0.2791  2.9076
 4780SOL    HW223309  10.825  10.519  10.144 -0.0751 -0.6541 -0.4595
 4781SOL     OW23310   3.322  11.677   6.998  0.3442 -0.3804  0.1702
 4781SOL    HW123311   3.340  11.708   7.087  1.1115 -0.7044  0.1336
 4781SOL    HW223312   3.407  11.678   6.954 -0.1325  0.3526 -0.7543
 4782SOL     OW23313   0.130   7.569   2.055 -0.0356 -0.3984 -0.3485
 4782SOL    HW123314   0.054   7.595   2.106  0.0248 -1.4871  0.3334
 4782SOL    HW223315   0.102   7.577   1.964 -1.1444 -1.2635 -0.1063
 4783SOL     OW23316   8.577   3.277   3.009  0.0359  0.3773 -0.5803
 4783SOL    HW123317   8.661   3.272   2.963 -0.1195  0.6638 -0.9015
 4783SOL    HW223318   8.569   3.192   3.053  0.7043  0.5224 -0.1684
 4784SOL     OW23319   2.392   9.985   2.984 -0.1954 -0.2170  0.2769
 4784SOL    HW123320   2.488   9.990   2.978 -0.3225  2.5250 -0.4123
 4784SOL    HW223321   2.371   9.899   2.947  1.9427 -0.6819 -0.0372
 4785SOL     OW23322  10.227   2.275   8.151  0.0702 -0.6125 -0.0285
 4785SOL    HW123323  10.215   2.290   8.057  1.6102 -0.1932 -0.1854
 4785SOL    HW223324  10.317   2.303   8.169 -0.0682 -1.0392  1.5044
 4786SOL     OW23325  11.163   1.996   3.876  0.4413 -0.1196 -0.6069
 4786SOL    HW123326  11.092   1.972   3.937  0.2562  0.8094 -0.4510
 4786SOL    HW223327  11.243   1.978   3.926  0.2905  1.5147  0.2918
 4787SOL     OW23328   1.226   2.736   3.815  0.4567  0.2839 -0.0130
 4787SOL    HW123329   1.240   2.831   3.816  0.1374  0.3319  0.0855
 4787SOL    HW223330   1.314   2.699   3.804  0.9916  0.4983  2.7367
 4788SOL     OW23331   1.075  11.865   4.863  0.1654 -0.0422  0.4879
 4788SOL    HW123332   1.071  11.961   4.862  0.7199 -0.0104 -0.6442
 4788SOL    HW223333   1.073  11.842   4.955  1.7046  1.1484  0.8693
 4789SOL     OW23334   6.677   1.776  10.288 -0.0646 -0.3504 -0.1213
 4789SOL    HW123335   6.656   1.717  10.361 -2.1605  0.0836 -0.3060
 4789SOL    HW223336   6.767   1.804  10.305 -1.0123  1.2186  3.4197
 4790SOL     OW23337   9.346   8.006   0.327  0.2517 -0.1570 -0.2063
 4790SOL    HW123338   9.320   8.066   0.397 -0.5645 -1.2434  0.4634
 4790SOL    HW223339   9.292   8.031   0.253 -0.2624 -0.2078  0.1452
 4791SOL     OW23340  10.635   2.415   2.934  0.0515 -0.5075 -0.0155
 4791SOL    HW123341  10.698   2.382   2.999 -0.7550 -1.2231  0.4109
 4791SOL    HW223342  10.660   2.371   2.853  0.6244 -0.1440 -0.0454
 4792SOL     OW23343  10.713   5.278   3.969  0.0382 -0.4247 -0.0682
 4792SOL    HW123344  10.743   5.369   3.973 -0.0582 -0.4203  0.9482
 4792SOL    HW223345  10.642   5.274   4.034  0.3750 -1.3377  0.2548
 4793SOL     OW23346   7.317   7.195   3.715  0.1370  0.3839 -0.3728
 4793SOL    HW123347   7.280   7.245   3.788 -1.1582 -0.1606 -0.6337
 4793SOL    HW223348   7.307   7.103   3.742 -0.0824  0.1892 -1.1105
 4794SOL     OW23349   1.714   9.623   4.598 -0.5686 -0.4591 -0.1874
 4794SOL    HW123350   1.671   9.704   4.570  0.3519  0.1239  0.0524
 4794SOL    HW223351   1.768   9.648   4.672 -0.5764 -1.3799  0.1427
 4795SOL     OW23352   0.955   0.428   9.319  0.2273  0.1141  0.2743
 4795SOL    HW123353   1.022   0.488   9.287 -1.9100  1.5584 -1.8290
 4795SOL    HW223354   0.993   0.341   9.308  0.8575  0.6962 -3.4294
 4796SOL     OW23355   1.803   4.520   7.021  0.8023 -0.0977  0.2611
 4796SOL    HW123356   1.873   4.549   7.079  0.4284 -0.8361  1.1039
 4796SOL    HW223357   1.804   4.583   6.949 -0.0259  2.0165  2.0174
 4797SOL     OW23358  11.092  10.268  12.474  0.1738 -0.0952 -0.5221
 4797SOL    HW123359  11.110  10.362  12.477 -1.0676  0.2078  3.5201
 4797SOL    HW223360  11.160  10.229  12.529 -0.7563 -1.2007 -0.1053
 4798SOL     OW23361   5.524  12.340   0.923 -0.0461  0.1063  0.6089
 4798SOL    HW123362   5.534  12.301   0.836 -0.0544  0.9501  0.2123
 4798SOL    HW223363   5.474  12.276   0.973 -0.6673 -0.0869 -0.2314
 4799SOL     OW23364   4.828   0.666   5.883  0.3403  0.6521 -0.3126
 4799SOL    HW123365   4.857   0.720   5.809  1.5542 -2.5414 -2.3590
 4799SOL    HW223366   4.894   0.681   5.951  2.5483 -0.5702 -2.0470
 4800SOL     OW23367   6.164   7.325   1.862 -0.3860 -0.1537  0.5175
 4800SOL    HW123368   6.116   7.359   1.938  0.4353 -0.7442  1.3212
 4800SOL    HW223369   6.146   7.231   1.862 -1.2263 -0.0011 -0.6541
 4801SOL     OW23370  11.666   3.625   1.701 -1.0485  0.0124 -0.0624
 4801SOL    HW123371  11.618   3.705   1.681  1.1737  1.2860 -0.5806
 4801SOL    HW223372  11.751   3.655   1.734  0.1789 -2.1245 -1.0842
 4802SOL     OW23373   5.676   4.234   3.512  0.4257  0.2030 -0.2657
 4802SOL    HW123374   5.761   4.189   3.520  0.0222 -0.5851 -0.3221
 4802SOL    HW223375   5.615   4.179   3.561 -0.5331 -0.5240 -2.1771
 4803SOL     OW23376   4.564  10.092   4.399 -0.2571 -0.1697  0.5542
 4803SOL    HW123377   4.562   9.997   4.395  0.2041 -0.2126  1.0664
 4803SOL    HW223378   4.652  10.112   4.433 -0.9383  0.3549  2.1119
 4804SOL     OW23379   2.111  12.301   7.796  0.1288  1.5380  0.2387
 4804SOL    HW123380   2.146  12.246   7.726  0.0351  0.8843  0.6994
 4804SOL    HW223381   2.184  12.360   7.818  1.0643  0.0567  1.3348
 4805SOL     OW23382   1.250   9.278   5.007 -0.1680 -0.4728  0.4224
 4805SOL    HW123383   1.201   9.204   5.044  0.8743 -1.3465  0.1295
 4805SOL    HW223384   1.292   9.242   4.929  1.6805 -0.0429  1.1674
 4806SOL     OW23385   0.265   8.079   1.197  0.1526  0.0518  0.2037
 4806SOL    HW123386   0.316   8.066   1.116 -0.0233 -0.9310  0.2383
 4806SOL    HW223387   0.176   8.095   1.167  0.1398 -0.0329  0.1975
 4807SOL     OW23388  12.161   9.828  12.341 -0.1985  0.2533  0.0656
 4807SOL    HW123389  12.125   9.915  12.327 -2.3172 -0.3922  1.0031
 4807SOL    HW223390  12.099   9.786  12.400  1.4154 -1.4908  0.6162
 4808SOL     OW23391   7.907   0.850   0.230  0.3052  0.6664  0.0767
 4808SOL    HW123392   7.943   0.904   0.159  1.6225  0.1574  0.3245
 4808SOL    HW223393   7.922   0.902   0.309 -0.3534  0.8502  0.0809
 4809SOL     OW23394   5.213   4.632   4.261  0.3560 -0.0553  0.4019
 4809SOL    HW123395   5.306   4.633   4.239  0.6488  1.6988  1.5469
 4809SOL    HW223396   5.184   4.722   4.248 -1.3003 -0.6617 -0.3081
 4810SOL     OW23397  11.803   1.190   9.973 -0.3749 -0.4250 -0.3345
 4810SOL    HW123398  11.798   1.107  10.021 -2.1765  0.6009  1.4300
 4810SOL    HW223399  11.733   1.243  10.011  0.6566  1.8806 -1.4832
 4811SOL     OW23400   4.801   7.877  12.288  0.1685  0.9153  0.4412
 4811SOL    HW123401   4.877   7.927  12.258 -0.2667  1.1705 -0.2611
 4811SOL    HW223402   4.729   7.910  12.235 -0.1679 -0.3203  0.0938
 4812SOL     OW23403   1.665   9.837   6.332 -0.0354  0.0928  0.0150
 4812SOL    HW123404   1.642   9.783   6.408  1.2941 -0.7250 -0.1414
 4812SOL    HW223405   1.744   9.884   6.360  0.3069 -0.0095 -0.7585
 4813SOL     OW23406  11.498   9.676  11.910 -0.6361  0.0690 -0.5370
 4813SOL    HW123407  11.517   9.729  11.833 -0.8075  1.0736  0.0887
 4813SOL    HW223408  11.435   9.611  11.880 -0.1799  0.0207 -1.3998
 4814SOL     OW23409  11.275   2.478  10.941 -0.6477 -0.0361 -0.1378
 4814SOL    HW123410  11.203   2.528  10.979  1.0866  2.5817 -0.0188
 4814SOL    HW223411  11.298   2.526  10.861  1.6583 -0.0821  0.4313
 4815SOL     OW23412   2.540  12.033   6.856 -0.1006 -0.3390  0.3683
 4815SOL    HW123413   2.600  12.055   6.786  0.0805  2.6391  1.3005
 4815SOL    HW223414   2.590  11.976   6.914  0.3379 -1.3401 -0.9460
 4816SOL     OW23415   9.757  11.298   6.149 -0.2469  0.0534 -0.3134
 4816SOL    HW123416   9.810  11.377   6.139 -0.0769 -0.0621 -0.3418
 4816SOL    HW223417   9.744  11.290   6.244  0.8617 -0.6072 -0.1958
 4817SOL     OW23418   4.501   0.597   3.368  0.3390  0.5323  0.3184
 4817SOL    HW123419   4.576   0.552   3.407 -0.1928 -1.8279 -1.1719
 4817SOL    HW223420   4.458   0.530   3.316 -1.3521  2.4924 -0.9377
 4818SOL     OW23421  11.091  10.526   5.693 -0.1309  0.3206  0.0643
 4818SOL    HW123422  11.007  10.479   5.695  0.3021 -0.4475  0.7210
 4818SOL    HW223423  11.069  10.612   5.657 -1.0074 -0.2422 -0.8272
 4819SOL     OW23424   6.466   7.561   8.107  0.5094  0.3182 -0.0436
 4819SOL    HW123425   6.525   7.624   8.149  0.4481 -0.1318  0.7228
 4819SOL    HW223426   6.380   7.604   8.107 -0.1851 -0.8411  3.0862
 4820SOL     OW23427   9.049   0.786   5.733  0.2419 -0.0525 -0.6682
 4820SOL    HW123428   9.140   0.815   5.723  0.4739 -0.4057  0.2695
 4820SOL    HW223429   9.056   0.693   5.756 -0.3563 -0.0669 -0.5233
 4821SOL     OW23430   0.222  10.687   7.332  0.1662 -0.2029 -0.0136
 4821SOL    HW123431   0.191  10.759   7.278 -0.5822 -0.4001  0.1433
 4821SOL    HW223432   0.228  10.613   7.271  0.3829 -0.1487 -0.0571
 4822SOL     OW23433  11.946   0.941  11.975  0.2125  0.3095  0.1413
 4822SOL    HW123434  11.876   0.888  11.937  0.5176 -0.0147  0.0238
 4822SOL    HW223435  12.014   0.943  11.908  0.8889 -0.5334  0.7852
 4823SOL     OW23436   7.673   4.579   7.050  0.6777  0.3672  0.0584
 4823SOL    HW123437   7.765   4.571   7.072  0.3488  0.2554  1.4607
 4823SOL    HW223438   7.664   4.667   7.014  1.2252  0.5890  0.4586
 4824SOL     OW23439   9.984   8.891   6.797  0.1012  0.1691  0.5305
 4824SOL    HW123440   9.897   8.862   6.770  0.1168  1.3207 -0.8642
 4824SOL    HW223441  10.028   8.914   6.715  2.3601 -2.0315  1.0304
 4825SOL     OW23442   5.296  11.482  10.045  0.3559 -0.0847  0.4820
 4825SOL    HW123443   5.336  11.401  10.076  2.2830  0.4246 -0.5318
 4825SOL    HW223444   5.328  11.550  10.105 -1.8691 -0.0933  1.8184
 4826SOL     OW23445   2.158   2.712   8.211  0.0448  0.1358  0.4192
 4826SOL    HW123446   2.156   2.618   8.230 -0.1960 -0.4027 -1.9482
 4826SOL    HW223447   2.087   2.725   8.148  1.7528  1.3690 -1.3742
 4827SOL     OW23448   2.670   8.280   6.601  0.4168  0.1983 -0.4939
 4827SOL    HW123449   2.738   8.217   6.626  1.8493  1.1467 -1.7883
 4827SOL    HW223450   2.600   8.226   6.564  0.7962 -0.7609  0.1501
 4828SOL     OW23451   1.629  11.285   9.410  0.7570  0.3377 -0.1615
 4828SOL    HW123452   1.605  11.267   9.501 -0.9262 -1.4839 -0.8712
 4828SOL    HW223453   1.620  11.380   9.401 -3.8274  0.2134  0.4779
 4829SOL     OW23454   5.399   0.296  10.062 -0.3281 -0.1686  0.5380
 4829SOL    HW123455   5.441   0.214  10.087 -0.7688 -1.3135 -2.1631
 4829SOL    HW223456   5.397   0.294   9.966 -1.4325  2.4692  0.4170
 4830SOL     OW23457   8.297   6.833   7.820 -0.1079  0.5715 -0.1496
 4830SOL    HW123458   8.327   6.917   7.856  0.7769  1.1075 -1.9801
 4830SOL    HW223459   8.272   6.854   7.730  0.0241 -1.1174 -0.6065
 4831SOL     OW23460  11.955   0.292   6.676  0.2440  0.7851 -0.1556
 4831SOL    HW123461  11.926   0.343   6.751 -1.0438 -0.5604  0.3088
 4831SOL    HW223462  11.880   0.290   6.617  1.5175  2.5842 -1.9729
 4832SOL     OW23463   3.880   8.311   1.944 -0.3294 -0.6222  0.4834
 4832SOL    HW123464   3.858   8.360   1.865 -2.0991 -1.2072  0.5694
 4832SOL    HW223465   3.908   8.378   2.007 -0.9953  0.0769  0.0446
 4833SOL     OW23466   0.653   9.791   7.547  0.1652  0.3090  0.3573
 4833SOL    HW123467   0.696   9.867   7.587 -2.2353  0.8573  2.0837
 4833SOL    HW223468   0.582   9.828   7.495 -0.3357 -0.6932  0.3015
 4834SOL     OW23469   3.239   0.687  12.096  0.2590 -0.4777  0.3101
 4834SOL    HW123470   3.318   0.676  12.044  0.9105 -0.2497  1.2336
 4834SOL    HW223471   3.228   0.782  12.104 -1.2416 -0.4455 -1.4672
 4835SOL     OW23472  10.978   2.009   6.807 -0.7245 -0.0846 -0.0219
 4835SOL    HW123473  11.003   2.072   6.874 -2.5336  0.6051  0.0869
 4835SOL    HW223474  10.964   2.063   6.728  0.5264 -0.7641 -0.7345
 4836SOL     OW23475   6.282   7.778   9.702  0.3828 -0.1414 -0.3911
 4836SOL    HW123476   6.236   7.797   9.620  1.6147  0.5069 -0.9674
 4836SOL    HW223477   6.287   7.862   9.747  0.3335 -0.3539  0.0101
 4837SOL     OW23478   8.055  11.823  11.575  0.5885 -0.4102 -0.4595
 4837SOL    HW123479   8.081  11.900  11.626 -0.0055 -0.6786  0.2757
 4837SOL    HW223480   7.963  11.809  11.599 -0.0614  0.1210 -2.4753
 4838SOL     OW23481  12.406   8.606   7.494  0.1217 -0.3713  0.1083
 4838SOL    HW123482  12.463   8.555   7.437  1.2095  1.0362 -0.0977
 4838SOL    HW223483  12.398   8.691   7.452  1.9388  1.1560  2.5588
 4839SOL     OW23484   1.510  12.187   0.636  0.3132  0.2500  0.2902
 4839SOL    HW123485   1.431  12.182   0.581  0.0792  0.1069  0.6329
 4839SOL    HW223486   1.525  12.096   0.663  0.8394  0.2145 -0.1109
 4840SOL     OW23487   2.892   5.590   4.817 -0.4019 -0.0950 -0.4073
 4840SOL    HW123488   2.931   5.645   4.750 -1.1913 -0.2993 -1.0590
 4840SOL    HW223489   2.798   5.594   4.800 -0.6409 -0.0408  0.7831
 4841SOL     OW23490   6.869   3.487   9.694  0.3891  0.4337  0.2898
 4841SOL    HW123491   6.809   3.412   9.691  0.5842  0.2284  1.0614
 4841SOL    HW223492   6.890   3.505   9.603 -1.4753  1.0351 -0.0673
 4842SOL     OW23493   6.347   9.342   5.765 -0.2844 -0.0754 -0.3510
 4842SOL    HW123494   6.345   9.435   5.743 -0.8572 -0.1227 -0.5332
 4842SOL    HW223495   6.425   9.308   5.720 -0.1848  0.2788 -0.4461
 4843SOL     OW23496   8.869  12.406   4.885 -0.0687 -0.5767 -0.5958
 4843SOL    HW123497   8.881  12.313   4.905 -1.2186 -0.4958  0.6038
 4843SOL    HW223498   8.924  12.452   4.948  0.6865 -0.4354 -1.3455
 4844SOL     OW23499   4.653   4.931   0.754 -0.0442 -0.5169  0.2878
 4844SOL    HW123500   4.667   5.008   0.809  0.1413  1.6653 -2.5382
 4844SOL    HW223501   4.731   4.877   0.767  1.1530  1.1387  0.3822
 4845SOL     OW23502   4.568   5.850   2.973 -0.1649  0.4962 -0.1695
 4845SOL    HW123503   4.519   5.922   2.932 -1.0442  0.3484  0.5870
 4845SOL    HW223504   4.516   5.772   2.954  0.9912 -0.0351 -1.3303
 4846SOL     OW23505   0.926   8.392  11.987  1.0313 -0.0048 -0.1275
 4846SOL    HW123506   0.846   8.418  12.032  0.8326 -1.4604  0.4260
 4846SOL    HW223507   0.949   8.467  11.933  1.4461  1.9656  2.6000
 4847SOL     OW23508   2.640   8.074   6.925  0.2073 -0.3148  0.2193
 4847SOL    HW123509   2.609   7.998   6.876 -0.0625  0.4266 -0.7978
 4847SOL    HW223510   2.704   8.116   6.867  1.6971 -0.7307  1.5002
 4848SOL     OW23511   8.315  12.190   9.768  0.2461 -0.1664 -0.1480
 4848SOL    HW123512   8.396  12.145   9.745 -0.7843 -1.3176 -1.7625
 4848SOL    HW223513   8.246  12.129   9.742 -1.1565  0.4699  1.8173
 4849SOL     OW23514   6.663   1.332   5.731 -0.2978  0.2668  0.3691
 4849SOL    HW123515   6.712   1.298   5.806  0.9004 -1.8974 -1.2754
 4849SOL    HW223516   6.719   1.398   5.692 -1.1705  1.8147  1.6442
 4850SOL     OW23517   4.651   3.927   4.760  0.2227 -0.1414 -0.1513
 4850SOL    HW123518   4.713   3.917   4.687 -0.0975 -1.4277 -0.2838
 4850SOL    HW223519   4.571   3.885   4.728 -0.4042  0.6377  0.3826
 4851SOL     OW23520   6.785   6.311   2.611 -0.3318 -0.6363  0.7430
 4851SOL    HW123521   6.819   6.227   2.580  0.8776 -0.3009  1.0848
 4851SOL    HW223522   6.703   6.290   2.655 -0.1131 -1.6207  0.6929
 4852SOL     OW23523   2.488   9.760   5.420 -0.0622  0.3726  0.0822
 4852SOL    HW123524   2.407   9.777   5.371  0.8732  1.7933 -1.0372
 4852SOL    HW223525   2.537   9.842   5.415  1.6731 -0.5988  0.3249
 4853SOL     OW23526   3.718   4.338  11.055 -0.1347  0.3648  0.9394
 4853SOL    HW123527   3.663   4.287  10.996 -1.2660  2.2959  0.2303
 4853SOL    HW223528   3.788   4.373  10.999  0.0594  0.4069  1.2037
 4854SOL     OW23529  11.297   8.950   7.276  0.5463  0.7832 -0.3859
 4854SOL    HW123530  11.281   9.023   7.216  0.3606  0.5447 -0.6266
 4854SOL    HW223531  11.385   8.967   7.311  0.1406  1.6252  0.2735
 4855SOL     OW23532   7.122   8.326  12.052  0.0053  0.6195  0.1337
 4855SOL    HW123533   7.033   8.323  12.086  0.1586 -0.2797  0.4915
 4855SOL    HW223534   7.133   8.242  12.006  0.7700  0.5712  0.3864
 4856SOL     OW23535   4.521   3.126   8.025 -0.1060 -0.1402  0.2078
 4856SOL    HW123536   4.597   3.182   8.007 -0.9786  1.2630  0.7873
 4856SOL    HW223537   4.458   3.150   7.957  0.7009 -2.8848 -1.6858
 4857SOL     OW23538   9.814  10.472   8.142 -0.0205  0.1225  0.1143
 4857SOL    HW123539   9.773  10.393   8.178 -0.4188  0.2870  0.0292
 4857SOL    HW223540   9.880  10.438   8.080 -1.1260 -0.1571 -0.9596
 4858SOL     OW23541   2.093   5.319   5.791 -0.1192  0.3599 -0.0707
 4858SOL    HW123542   2.034   5.334   5.865 -0.8092  1.8069 -0.8584
 4858SOL    HW223543   2.048   5.255   5.737  0.9001 -1.5802  1.2501
 4859SOL     OW23544   4.451   4.065   5.464 -0.0029  1.1260  0.1857
 4859SOL    HW123545   4.395   4.015   5.523 -0.7685  0.5890 -0.9583
 4859SOL    HW223546   4.509   4.114   5.522  0.3702 -0.6090  1.3662
 4860SOL     OW23547   5.393   9.000  11.544 -0.5755  0.2322 -0.4975
 4860SOL    HW123548   5.301   8.997  11.520 -0.4286 -0.7617 -0.9745
 4860SOL    HW223549   5.439   8.959  11.471  0.1247 -0.4485  0.3046
 4861SOL     OW23550   7.457  10.235  10.823 -0.6784  0.3526  0.5673
 4861SOL    HW123551   7.436  10.282  10.743 -0.5364 -1.7818 -0.8011
 4861SOL    HW223552   7.550  10.250  10.837 -0.5224  0.0480 -0.1489
 4862SOL     OW23553  12.045   7.944   5.692 -0.1294 -0.1449 -0.6091
 4862SOL    HW123554  12.099   7.886   5.747 -2.3472 -2.0803 -0.3322
 4862SOL    HW223555  11.957   7.909   5.700 -1.1527  1.7895 -2.5274
 4863SOL     OW23556   1.052   9.199   9.483 -0.4968  0.2671  0.1112
 4863SOL    HW123557   1.104   9.136   9.433 -0.3606 -2.1218  2.9861
 4863SOL    HW223558   0.968   9.201   9.437 -0.1261 -1.1983 -0.7105
 4864SOL     OW23559   2.098   6.395   3.191 -0.5039 -0.4656 -0.2267
 4864SOL    HW123560   2.098   6.347   3.274  0.0307 -2.7306 -1.4417
 4864SOL    HW223561   2.189   6.424   3.179 -0.2377 -1.4090 -0.6468
 4865SOL     OW23562   8.827   5.068  11.755  0.1642  0.0767  0.0104
 4865SOL    HW123563   8.915   5.068  11.717  1.0583  0.3769  1.9689
 4865SOL    HW223564   8.771   5.105  11.686  1.7309  0.8195 -0.9189
 4866SOL     OW23565   2.858   9.724   2.797  0.1649 -0.7200  0.1261
 4866SOL    HW123566   2.953   9.712   2.796  0.4590  1.3626 -0.9474
 4866SOL    HW223567   2.837   9.759   2.711 -1.2929  0.6739  0.9887
 4867SOL     OW23568   5.376   4.343  11.726 -0.0912  0.0287  0.1349
 4867SOL    HW123569   5.358   4.311  11.638  0.8878  0.0149 -0.0773
 4867SOL    HW223570   5.335   4.429  11.729 -1.5722 -0.6514  0.2499
 4868SOL     OW23571   5.642  11.287   9.190  0.3431 -0.8295  0.3827
 4868SOL    HW123572   5.623  11.325   9.104  0.5262  0.1397  0.7630
 4868SOL    HW223573   5.645  11.193   9.173 -2.7022 -0.9486 -0.1118
 4869SOL     OW23574   0.180   6.422   3.800  0.2294 -0.0612  0.4289
 4869SOL    HW123575   0.094   6.455   3.825  0.5008  0.8884  0.1339
 4869SOL    HW223576   0.161   6.345   3.747 -0.6655  2.3617 -3.1146
 4870SOL     OW23577   5.774  10.260   3.293 -0.5210  0.0428 -0.0185
 4870SOL    HW123578   5.753  10.252   3.200  1.0299 -1.0047 -0.3164
 4870SOL    HW223579   5.699  10.219   3.338 -0.1826 -1.7003 -0.9376
 4871SOL     OW23580   5.373   7.982   4.119  0.3991 -0.1299  0.3090
 4871SOL    HW123581   5.415   7.971   4.034  0.0164  1.9821 -0.2267
 4871SOL    HW223582   5.296   7.925   4.117  0.8842 -0.7540 -0.4182
 4872SOL     OW23583   7.801   5.309   6.535  0.3367 -0.3692  0.1453
 4872SOL    HW123584   7.817   5.360   6.614 -0.2053 -1.1164  0.7534
 4872SOL    HW223585   7.860   5.234   6.543  1.7398  0.5490 -1.1496
 4873SOL     OW23586   6.095   5.205   1.658  0.6840 -0.4321 -0.4294
 4873SOL    HW123587   6.178   5.159   1.669  1.2278 -0.6036 -4.0481
 4873SOL    HW223588   6.029   5.136   1.656  1.0947 -0.8135 -2.4174
 4874SOL     OW23589   5.997  11.648   8.511 -0.0828 -0.8562 -0.6036
 4874SOL    HW123590   5.943  11.570   8.501 -0.5583 -0.7295  0.7747
 4874SOL    HW223591   6.080  11.616   8.546 -0.1187 -0.7926 -0.4589
 4875SOL     OW23592  10.559   6.734   1.418 -0.2610  0.0980  0.3704
 4875SOL    HW123593  10.594   6.645   1.425 -0.1274  0.0472 -0.8614
 4875SOL    HW223594  10.636   6.791   1.420 -0.3473  0.2124  1.1775
 4876SOL     OW23595  12.470  10.921   3.569 -0.8730 -0.1540 -0.7636
 4876SOL    HW123596  12.517  11.004   3.556 -0.2074 -0.1886  1.1720
 4876SOL    HW223597  12.478  10.876   3.485  1.0577  0.6057 -1.0344
 4877SOL     OW23598   2.275   2.647   3.618  0.2822 -0.2791 -0.2695
 4877SOL    HW123599   2.307   2.736   3.632  0.6529 -0.1351 -1.7853
 4877SOL    HW223600   2.347   2.591   3.648  0.0778 -0.0700  0.6224
 4878SOL     OW23601  10.234   3.880   8.676 -0.3135 -0.6595  0.6916
 4878SOL    HW123602  10.167   3.872   8.607 -1.0107 -0.4910  1.3372
 4878SOL    HW223603  10.197   3.833   8.751 -0.1087  0.2017  1.3431
 4879SOL     OW23604   4.415   4.586  10.207  0.0295  0.4259 -0.3645
 4879SOL    HW123605   4.351   4.635  10.155 -0.5560 -0.5554 -0.5933
 4879SOL    HW223606   4.450   4.651  10.268 -1.0183  1.0471 -0.3881
 4880SOL     OW23607   9.086   2.392  12.408  0.3123 -0.3946  0.3334
 4880SOL    HW123608   9.035   2.445  12.470  1.0394 -0.6340  1.1594
 4880SOL    HW223609   9.024   2.369  12.339 -0.0826  1.3118  0.0904
 4881SOL     OW23610   4.860   6.538   4.599 -0.0981  0.4534 -0.5589
 4881SOL    HW123611   4.814   6.539   4.516 -2.0297  0.7855  0.4558
 4881SOL    HW223612   4.902   6.452   4.602  0.6495  0.7192 -2.1600
 4882SOL     OW23613   9.568   4.374   3.755  0.3756 -0.1658  0.4685
 4882SOL    HW123614   9.573   4.391   3.661  1.6203  1.2679  0.7594
 4882SOL    HW223615   9.544   4.281   3.761 -1.8985  0.2367 -1.2270
 4883SOL     OW23616   5.176  11.456   1.146  0.3221  0.6698  0.0300
 4883SOL    HW123617   5.120  11.530   1.169  0.3441  0.7664 -0.2290
 4883SOL    HW223618   5.129  11.412   1.075  0.0807  0.1661  0.4933
 4884SOL     OW23619  10.403   9.228  10.295  0.4545 -0.0340  0.1995
 4884SOL    HW123620  10.396   9.322  10.316  0.6544 -0.4527  2.4216
 4884SOL    HW223621  10.481   9.221  10.240 -0.2535  1.2227 -1.0368
 4885SOL     OW23622   2.552   2.146   2.281  0.2588 -0.0523 -0.2977
 4885SOL    HW123623   2.499   2.113   2.352 -0.5288  0.5550 -0.5876
 4885SOL    HW223624   2.504   2.223   2.248  0.7376 -0.1561 -1.2957
 4886SOL     OW23625   6.693   8.308   5.962 -0.0835 -0.1267 -0.7139
 4886SOL    HW123626   6.645   8.385   5.932  0.4246  0.5026  0.0339
 4886SOL    HW223627   6.778   8.342   5.990  0.2108 -0.9806 -0.5180
 4887SOL     OW23628  10.839   7.858   7.083 -0.2747  0.0218 -0.5982
 4887SOL    HW123629  10.902   7.796   7.121 -1.1222 -1.0295 -0.8673
 4887SOL    HW223630  10.886   7.941   7.082 -0.3495  0.3313  3.3469
 4888SOL     OW23631   1.162  11.070   8.035  0.2813  0.5252  0.5045
 4888SOL    HW123632   1.215  11.075   8.115  1.0360 -2.3505  0.3202
 4888SOL    HW223633   1.222  11.032   7.970 -0.7121  1.5438 -1.0689
 4889SOL     OW23634   3.984   9.027   3.264  0.3252  0.8116  0.0576
 4889SOL    HW123635   3.933   9.084   3.207 -0.5346 -0.4416 -0.4848
 4889SOL    HW223636   4.067   9.073   3.278  0.4343  1.3066 -1.9455
 4890SOL     OW23637   8.746   1.715   1.317  0.6084 -0.2556  0.2264
 4890SOL    HW123638   8.707   1.793   1.356 -1.2174 -1.0130 -0.0061
 4890SOL    HW223639   8.710   1.642   1.367  0.2904 -1.0860 -1.1627
 4891SOL     OW23640   3.046   7.246   7.702  0.0411 -0.3968 -0.5742
 4891SOL    HW123641   3.088   7.325   7.736  1.3046 -0.6959 -1.3636
 4891SOL    HW223642   3.027   7.193   7.779  1.2508 -0.2998 -0.1982
 4892SOL     OW23643   2.897   2.016   1.489 -0.0537  0.3262  0.6097
 4892SOL    HW123644   2.922   2.056   1.406  0.0756 -3.6995 -1.5530
 4892SOL    HW223645   2.937   2.072   1.556  3.5264  1.4889 -2.1826
 4893SOL     OW23646   8.553  11.291   6.023 -0.6408 -0.2181  0.1544
 4893SOL    HW123647   8.618  11.303   5.954  1.0542 -1.4208  1.4430
 4893SOL    HW223648   8.496  11.221   5.992 -1.0202  0.4810 -0.7636
 4894SOL     OW23649  10.834  10.822  10.833 -0.4543  0.3561  0.1114
 4894SOL    HW123650  10.759  10.842  10.776 -0.9894  0.0284  0.6849
 4894SOL    HW223651  10.902  10.792  10.773 -1.8911 -2.6268 -0.2116
 4895SOL     OW23652   5.326   1.251   0.032  0.3499 -0.3049  0.0810
 4895SOL    HW123653   5.373   1.235  -0.050 -0.2771 -0.6648 -0.2110
 4895SOL    HW223654   5.393   1.286   0.091  0.6218  0.8354 -0.8497
 4896SOL     OW23655  10.425   3.133   5.727 -0.2084  0.1253 -0.7036
 4896SOL    HW123656  10.367   3.171   5.792  0.1289  0.5926 -0.6686
 4896SOL    HW223657  10.457   3.051   5.766  0.1962  0.5335 -0.1754
 4897SOL     OW23658   7.701   9.539   6.338 -0.0065 -0.5018 -0.2270
 4897SOL    HW123659   7.771   9.476   6.319  1.3564  1.3038 -1.5430
 4897SOL    HW223660   7.667   9.563   6.252 -0.0605  0.9913  0.1842
 4898SOL     OW23661   2.404   4.564   1.597 -0.1514 -0.1927  0.1041
 4898SOL    HW123662   2.369   4.525   1.677 -0.7109 -0.2874 -0.1815
 4898SOL    HW223663   2.383   4.657   1.604 -1.5980 -0.4317 -0.6293
 4899SOL     OW23664   4.924   1.827   5.842 -0.5170 -0.4792 -0.5086
 4899SOL    HW123665   4.923   1.898   5.778 -1.2211 -0.7725 -0.8439
 4899SOL    HW223666   4.927   1.870   5.927  1.5053 -0.0977 -0.7254
 4900SOL     OW23667  11.155   0.164   7.386  0.1856 -0.2626  0.0703
 4900SOL    HW123668  11.226   0.124   7.336 -0.8958 -2.2209  0.0307
 4900SOL    HW223669  11.139   0.104   7.458 -0.5189  0.8461  0.8642
 4901SOL     OW23670   1.709   6.709   3.091 -0.1992  0.8378 -0.1433
 4901SOL    HW123671   1.771   6.652   3.046 -0.0849  1.1680 -0.4096
 4901SOL    HW223672   1.642   6.649   3.125  1.1453  0.2907  1.6713
 4902SOL     OW23673   0.821  11.519   4.781  0.3249 -0.0820 -0.2264
 4902SOL    HW123674   0.842  11.489   4.693  1.0059  0.3319 -0.2148
 4902SOL    HW223675   0.894  11.487   4.835  1.8628  2.6976 -0.4542
 4903SOL     OW23676   0.673  10.546   7.786 -0.1297  0.1300 -0.5686
 4903SOL    HW123677   0.622  10.607   7.733  0.3347 -0.1582 -1.3679
 4903SOL    HW223678   0.627  10.463   7.780  0.6652 -0.2594 -1.7065
 4904SOL     OW23679   1.213   4.863   4.458 -0.4861  0.0722 -0.0424
 4904SOL    HW123680   1.153   4.904   4.520  0.7879  2.4519 -0.2646
 4904SOL    HW223681   1.168   4.867   4.374 -0.3577  1.1181 -0.0681
 4905SOL     OW23682   9.293   2.625  10.881  0.1543  0.0708  0.1854
 4905SOL    HW123683   9.262   2.535  10.868  2.3988 -0.7029 -0.2765
 4905SOL    HW223684   9.223   2.680  10.846 -0.8124 -1.5278 -0.4891
 4906SOL     OW23685   8.869  10.732   8.015 -0.5333  0.0468 -0.2715
 4906SOL    HW123686   8.802  10.664   8.024  0.3055 -0.6358  1.1898
 4906SOL    HW223687   8.863  10.783   8.095  1.9333 -1.2552  0.8741
 4907SOL     OW23688   8.898   9.971  10.288  0.7513  0.1173 -1.1187
 4907SOL    HW123689   8.878   9.971  10.194  1.0841  0.8290 -1.1988
 4907SOL    HW223690   8.979  10.022  10.295  0.6388  0.2103 -0.4250
 4908SOL     OW23691   5.283  10.378  11.567 -0.3669 -0.1337 -0.4573
 4908SOL    HW123692   5.309  10.468  11.549  0.8669 -0.2135  0.7610
 4908SOL    HW223693   5.361  10.337  11.603 -0.6571 -1.9485 -1.7527
 4909SOL     OW23694   4.781   4.273   4.024  0.4288 -0.4970  0.6230
 4909SOL    HW123695   4.855   4.213   4.009  1.6297  0.8825  0.8661
 4909SOL    HW223696   4.819   4.360   4.014 -1.0248  0.2573  1.4873
 4910SOL     OW23697   2.853   8.726   4.367  0.5630 -0.0619  0.0717
 4910SOL    HW123698   2.790   8.797   4.355  1.6926  1.0248  0.3310
 4910SOL    HW223699   2.885   8.737   4.457  0.3422 -1.2730  0.3235
 4911SOL     OW23700   1.663   0.440   1.928 -0.3384 -0.0172 -0.0146
 4911SOL    HW123701   1.575   0.442   1.965 -0.5980 -1.1784 -0.5447
 4911SOL    HW223702   1.717   0.399   1.996 -0.6119 -1.1673 -0.4662
 4912SOL     OW23703   3.643   3.858  11.015 -0.1425 -0.2040 -0.6528
 4912SOL    HW123704   3.575   3.810  11.062 -0.0569 -2.6805 -2.8085
 4912SOL    HW223705   3.648   3.942  11.060 -0.1412 -2.1882  3.5762
 4913SOL     OW23706   7.499   1.005   8.193 -0.0653 -0.2071 -0.0036
 4913SOL    HW123707   7.434   1.076   8.190  1.9762  1.7255 -0.8106
 4913SOL    HW223708   7.549   1.014   8.112  1.3892 -1.4597  0.7097
 4914SOL     OW23709   2.830   9.518  10.157  0.0666  0.2312 -0.6122
 4914SOL    HW123710   2.882   9.445  10.124 -1.7684 -1.2871 -0.3012
 4914SOL    HW223711   2.758   9.526  10.095 -0.1062  1.3620 -0.2768
 4915SOL     OW23712  11.064   4.774   1.726  0.1392 -0.0468  0.1661
 4915SOL    HW123713  11.119   4.842   1.766 -1.1509  1.0558  0.1688
 4915SOL    HW223714  11.125   4.718   1.678  1.1655  1.6854 -0.6460
 4916SOL     OW23715  10.194  10.175   6.182  0.3459 -0.0899 -0.0756
 4916SOL    HW123716  10.220  10.108   6.120  3.5355  0.5295  0.4147
 4916SOL    HW223717  10.224  10.257   6.143 -1.0816  0.7583  0.5354
 4917SOL     OW23718   6.760   9.361   4.233  0.0060  0.7419 -0.2826
 4917SOL    HW123719   6.795   9.305   4.301 -1.0573 -0.4360 -0.6647
 4917SOL    HW223720   6.777   9.314   4.151 -0.2971  1.2922 -0.6729
 4918SOL     OW23721   8.569   4.849   1.449 -0.4177 -0.0104 -0.2854
 4918SOL    HW123722   8.583   4.758   1.476 -0.8980  0.1336  0.4598
 4918SOL    HW223723   8.587   4.849   1.355  1.5849 -0.4723  0.0348
 4919SOL     OW23724   3.495   9.113  12.000 -0.3811 -0.2094 -0.1901
 4919SOL    HW123725   3.482   9.104  12.094 -0.0751  1.2256  0.0136
 4919SOL    HW223726   3.570   9.056  11.981  0.6269  0.7496  0.7500
 4920SOL     OW23727   6.420   4.828   3.440 -0.2155 -0.3568 -0.1831
 4920SOL    HW123728   6.490   4.786   3.391  0.8888 -0.5628  1.4661
 4920SOL    HW223729   6.415   4.779   3.522 -0.9848  0.8249  0.5208
 4921SOL     OW23730   5.328  12.387   6.242 -0.2676  0.1286 -0.1241
 4921SOL    HW123731   5.300  12.389   6.334  0.6188 -0.4318  0.1736
 4921SOL    HW223732   5.299  12.303   6.209  1.8739 -0.9438  0.4990
 4922SOL     OW23733   6.254  10.291   9.052 -0.2136  0.0190 -0.0518
 4922SOL    HW123734   6.168  10.333   9.062 -0.3108 -0.0604 -0.5125
 4922SOL    HW223735   6.317  10.361   9.064 -0.3534  0.1355  0.0035
 4923SOL     OW23736   5.809  11.423   2.236  0.1861  0.1524 -0.0956
 4923SOL    HW123737   5.782  11.459   2.320  1.6095  0.6123  0.1993
 4923SOL    HW223738   5.731  11.381   2.201 -0.5756  0.4492  1.1954
 4924SOL     OW23739  11.288   2.898   5.457  0.5558  0.2667  0.0528
 4924SOL    HW123740  11.371   2.906   5.503  0.1347  0.7041  0.7525
 4924SOL    HW223741  11.305   2.934   5.370  0.7425  1.6400  0.6352
 4925SOL     OW23742   1.372   5.301   9.205  0.3471 -0.2440  0.0673
 4925SOL    HW123743   1.303   5.279   9.267 -1.5426  1.1655 -1.4094
 4925SOL    HW223744   1.449   5.316   9.259 -0.9950  0.1049  1.9951
 4926SOL     OW23745  11.371  12.199   3.072 -0.1344 -0.4280  0.6341
 4926SOL    HW123746  11.335  12.272   3.123 -2.1001 -1.1736  0.3813
 4926SOL    HW223747  11.348  12.219   2.982 -0.7830 -1.4032  0.5721
 4927SOL     OW23748   2.676  12.076  11.531  0.0004  0.5986  0.0218
 4927SOL    HW123749   2.770  12.089  11.543 -0.1942  2.8145 -0.4508
 4927SOL    HW223750   2.635  12.144  11.584 -1.3307 -0.0048 -0.1839
 4928SOL     OW23751  11.056   7.982   1.996  0.6446 -0.5548 -0.5034
 4928SOL    HW123752  10.999   7.970   1.919 -0.7308 -0.9958  0.5342
 4928SOL    HW223753  11.003   7.950   2.069  0.6659  2.7644  1.1067
 4929SOL     OW23754   1.096   9.254   6.923  0.0751 -0.6548  0.5054
 4929SOL    HW123755   1.033   9.210   6.980  0.3722 -0.7018  0.7988
 4929SOL    HW223756   1.172   9.270   6.979  0.2143 -0.3421  0.2295
 4930SOL     OW23757   4.996   9.374   0.803 -0.6616 -0.0169  0.0391
 4930SOL    HW123758   4.948   9.456   0.793 -1.1683 -0.2936  0.1587
 4930SOL    HW223759   5.071   9.383   0.744 -1.5970 -0.1247 -1.1999
 4931SOL     OW23760   7.493  11.907   1.911 -0.2002 -0.1371  0.0915
 4931SOL    HW123761   7.412  11.876   1.871  0.1039 -0.6413 -0.1457
 4931SOL    HW223762   7.518  11.984   1.861 -0.7064  0.2141  0.3755
 4932SOL     OW23763   3.688   2.831   0.604 -0.2488  0.5736  0.1114
 4932SOL    HW123764   3.778   2.797   0.611  0.5189  2.4212 -0.1160
 4932SOL    HW223765   3.699   2.926   0.606 -2.1626  0.8429 -0.6481
 4933SOL     OW23766   6.038   4.421   3.623 -0.0872 -0.0967 -0.2948
 4933SOL    HW123767   6.066   4.386   3.708  0.5989 -0.6750 -0.7527
 4933SOL    HW223768   6.016   4.344   3.572 -1.8873  0.3044 -0.1906
 4934SOL     OW23769   6.231  12.012   4.155  0.6145  0.0494  0.5800
 4934SOL    HW123770   6.251  12.062   4.234 -0.2484  2.1440 -0.4539
 4934SOL    HW223771   6.191  12.075   4.096 -0.5863 -1.8999 -0.8134
 4935SOL     OW23772   9.466   5.125   6.459 -0.3991 -0.0114 -0.4088
 4935SOL    HW123773   9.552   5.084   6.461 -0.4281 -0.1092 -1.0805
 4935SOL    HW223774   9.479   5.207   6.410 -0.5228  0.3657  0.1744
 4936SOL     OW23775   5.838   6.726  10.482 -0.3087  0.4283 -0.0690
 4936SOL    HW123776   5.822   6.816  10.455 -0.5556  0.1979 -0.7169
 4936SOL    HW223777   5.931   6.723  10.504 -0.5823  1.1588  1.2350
 4937SOL     OW23778   3.666  11.743   1.731 -0.2302 -0.4054  0.4328
 4937SOL    HW123779   3.759  11.754   1.710 -0.6125 -1.6260 -2.2154
 4937SOL    HW223780   3.622  11.735   1.647 -2.5216 -1.6433  1.6324
 4938SOL     OW23781   7.097  10.138   5.445 -0.0482 -0.0464  0.5481
 4938SOL    HW123782   7.133  10.094   5.522  0.2704 -0.1955  0.3184
 4938SOL    HW223783   7.008  10.161   5.470  0.2129  0.3470  1.1376
 4939SOL     OW23784   1.318   5.527   0.772 -0.7571 -0.2201  0.4225
 4939SOL    HW123785   1.396   5.482   0.803 -1.4232  0.5234  3.5660
 4939SOL    HW223786   1.245   5.472   0.802 -1.4815  0.4012 -0.1658
 4940SOL     OW23787   2.348  10.125  10.310  0.4002 -0.1397  0.0941
 4940SOL    HW123788   2.287  10.109  10.381  0.6255 -1.1277  0.0836
 4940SOL    HW223789   2.324  10.060  10.243  2.6826 -1.9497  0.8882
 4941SOL     OW23790   7.638   2.254   1.280 -0.2244  0.1293 -0.3372
 4941SOL    HW123791   7.727   2.246   1.247  0.7725  0.2495  2.1074
 4941SOL    HW223792   7.640   2.211   1.366 -2.7248 -0.5271 -0.5390
 4942SOL     OW23793   1.033  10.881   8.827  0.4119  0.5342 -0.3852
 4942SOL    HW123794   1.115  10.927   8.844  0.1313  0.8771  0.0478
 4942SOL    HW223795   0.995  10.867   8.913  0.3288 -0.2131 -0.5370
 4943SOL     OW23796   0.432  11.355  11.684  0.0560  0.3473 -0.2287
 4943SOL    HW123797   0.482  11.382  11.760  0.6265  0.5419 -0.6633
 4943SOL    HW223798   0.449  11.262  11.675  1.0403  0.5752 -0.8724
 4944SOL     OW23799   0.523   8.914   8.892 -0.3824  0.1521 -0.5998
 4944SOL    HW123800   0.472   8.980   8.845 -2.5708 -0.1557  1.1883
 4944SOL    HW223801   0.530   8.948   8.981  2.2646 -0.0367 -0.6521
 4945SOL     OW23802   2.721   4.157   7.257 -0.5238 -0.1196  0.2457
 4945SOL    HW123803   2.628   4.148   7.276 -0.9777 -0.2082 -1.8653
 4945SOL    HW223804   2.764   4.111   7.330 -2.1394 -1.0181  0.6918
 4946SOL     OW23805   3.657   1.172   7.029 -0.3275 -0.1034  0.0839
 4946SOL    HW123806   3.739   1.220   7.036  0.7144 -1.7709 -0.1315
 4946SOL    HW223807   3.589   1.238   7.047  0.9670  1.5567 -0.8101
 4947SOL     OW23808   1.236  12.106  12.535  0.2438  0.1028 -0.2733
 4947SOL    HW123809   1.262  12.162  12.462 -0.2772  1.2580  0.4077
 4947SOL    HW223810   1.301  12.036  12.535  1.0096  0.7873 -1.0349
 4948SOL     OW23811  11.997   2.001   2.131  0.5444  0.1300 -0.0126
 4948SOL    HW123812  11.972   1.961   2.048 -1.2400 -1.8743  1.3987
 4948SOL    HW223813  11.934   2.072   2.144 -0.0782 -0.4762  0.2946
 4949SOL     OW23814   9.279   8.915  10.207  0.4108  0.1122 -0.2913
 4949SOL    HW123815   9.258   8.917  10.114 -1.0737 -2.7825 -0.1434
 4949SOL    HW223816   9.287   8.821  10.227  0.5775  0.6502  2.5056
 4950SOL     OW23817   6.026   9.438  10.012  0.2030 -0.0710 -0.0590
 4950SOL    HW123818   5.938   9.401  10.024 -0.5577  1.9035  0.9209
 4950SOL    HW223819   6.079   9.395  10.079 -0.3119 -0.3827  0.1567
 4951SOL     OW23820  10.873   9.540   6.143  0.4182  0.4032  0.2411
 4951SOL    HW123821  10.864   9.559   6.049  1.3066  0.1969  0.1016
 4951SOL    HW223822  10.965   9.516   6.153  0.3510  0.5289  1.1905
 4952SOL     OW23823   1.902   5.289  10.568 -0.3013 -0.2772  0.3781
 4952SOL    HW123824   1.889   5.238  10.488 -0.2636 -0.1514  0.2909
 4952SOL    HW223825   1.956   5.363  10.540 -1.9305  0.8357  0.1174
 4953SOL     OW23826   9.850   5.342   2.103 -0.0694  0.1308  0.0392
 4953SOL    HW123827   9.813   5.385   2.179 -1.9501  0.9594 -1.2815
 4953SOL    HW223828   9.843   5.407   2.032 -1.6417 -1.7670 -1.6664
 4954SOL     OW23829  10.014   2.914   1.493 -0.0930 -0.4690  0.4470
 4954SOL    HW123830   9.970   2.869   1.420  1.2694  0.7468 -1.2132
 4954SOL    HW223831  10.098   2.942   1.456 -0.4004  2.4553  1.7127
 4955SOL     OW23832  12.008   2.218   3.732 -0.0895 -0.5643 -0.0859
 4955SOL    HW123833  12.055   2.291   3.692  0.8462 -0.2940  1.4275
 4955SOL    HW223834  12.046   2.210   3.820 -1.2265 -1.8995  0.3235
 4956SOL     OW23835  11.987   5.310   1.368 -0.7645  0.6715  0.6445
 4956SOL    HW123836  12.075   5.343   1.385  0.0549 -0.0345 -1.8433
 4956SOL    HW223837  11.995   5.215   1.371 -1.4721  0.5975  0.5183
 4957SOL     OW23838   8.634   7.730   4.685  0.2696 -0.7211 -0.1323
 4957SOL    HW123839   8.693   7.773   4.623  0.1251 -2.5272 -1.6373
 4957SOL    HW223840   8.551   7.775   4.674  1.2058  1.6570  1.7939
 4958SOL     OW23841   7.774   4.941  11.165 -0.3425  0.2671  0.0470
 4958SOL    HW123842   7.845   4.967  11.106  0.1263 -1.2760 -0.1030
 4958SOL    HW223843   7.819   4.899  11.239 -1.0619 -0.3006  0.1698
 4959SOL     OW23844   1.531  11.702   9.199 -0.0251  0.1436 -0.2593
 4959SOL    HW123845   1.587  11.639   9.244 -1.5147 -0.9711  0.1224
 4959SOL    HW223846   1.486  11.651   9.132 -0.9612  0.8667 -0.2083
 4960SOL     OW23847  11.535   9.045   7.359  0.5115 -0.6778  0.6209
 4960SOL    HW123848  11.623   9.057   7.324  0.5425  1.0594  1.2159
 4960SOL    HW223849  11.536   9.091   7.443 -1.4440  0.9207 -0.1627
 4961SOL     OW23850   3.693  10.498   2.279  0.2914 -0.2675 -0.1887
 4961SOL    HW123851   3.600  10.506   2.259  0.2341 -1.4919 -0.5111
 4961SOL    HW223852   3.720  10.419   2.232  2.1386  1.5103 -2.3534
 4962SOL     OW23853   7.507  11.727   8.126 -0.0640  0.5308  0.1451
 4962SOL    HW123854   7.456  11.659   8.170  1.4369  0.6099  2.1631
 4962SOL    HW223855   7.570  11.678   8.072 -0.8702  0.4028 -0.6991
 4963SOL     OW23856   0.018   6.021   6.309 -0.2358  0.6426  0.1975
 4963SOL    HW123857   0.095   6.018   6.364 -0.9364  0.5117  1.1928
 4963SOL    HW223858   0.021   6.108   6.267  0.4566  0.6210  0.1952
 4964SOL     OW23859   4.708   8.089   2.133  0.1641 -0.4131  0.6638
 4964SOL    HW123860   4.757   8.057   2.057  0.3827  0.8318  0.2695
 4964SOL    HW223861   4.774   8.128   2.190 -0.1758 -0.0589  0.8224
 4965SOL     OW23862   0.391   5.418   0.894 -0.6863  0.1553 -0.1578
 4965SOL    HW123863   0.456   5.422   0.964 -0.4287  3.3376 -0.4258
 4965SOL    HW223864   0.443   5.407   0.814 -0.7773 -0.6507 -0.1184
 4966SOL     OW23865   1.473   8.631   8.807  0.1139  0.0852 -0.2253
 4966SOL    HW123866   1.464   8.714   8.759 -0.3771  1.5204  2.1791
 4966SOL    HW223867   1.550   8.643   8.862 -0.0320 -1.0307  0.2454
 4967SOL     OW23868  11.458   4.796   5.350 -0.6221  0.0112 -0.5051
 4967SOL    HW123869  11.549   4.773   5.332 -0.6333 -1.5627  1.1129
 4967SOL    HW223870  11.463   4.869   5.412 -0.3360 -1.3215  1.1448
 4968SOL     OW23871   9.956   9.760   4.590 -0.2727 -0.1095 -0.4284
 4968SOL    HW123872   9.963   9.675   4.633 -0.7976 -0.9587 -1.9499
 4968SOL    HW223873  10.046   9.781   4.564 -0.0763  0.0241  0.3332
 4969SOL     OW23874  11.320  10.102   0.542  0.2002 -0.2920 -0.3070
 4969SOL    HW123875  11.292  10.015   0.517 -0.1536 -0.8137  1.7362
 4969SOL    HW223876  11.414  10.104   0.523  0.0048 -0.7354 -1.3314
 4970SOL     OW23877  11.071   2.023   9.451 -0.9824 -0.1114  0.0386
 4970SOL    HW123878  11.068   2.076   9.531 -2.9272 -3.6710  2.6236
 4970SOL    HW223879  10.981   2.023   9.418 -0.6478 -0.3832 -0.9020
 4971SOL     OW23880  12.221   4.166   2.685  0.0209 -0.2724  0.5055
 4971SOL    HW123881  12.205   4.178   2.591 -0.4965 -0.1529  0.6076
 4971SOL    HW223882  12.196   4.075   2.702  0.5143 -0.4226  0.4477
 4972SOL     OW23883   2.495   8.559   0.253  0.1488 -0.2288  0.0633
 4972SOL    HW123884   2.461   8.482   0.208  2.4859 -1.4023  0.1956
 4972SOL    HW223885   2.459   8.553   0.342  0.9210 -1.6178  0.3030
 4973SOL     OW23886   3.201   4.749   2.288  0.1002 -0.0662  0.4047
 4973SOL    HW123887   3.161   4.836   2.285 -0.8366 -0.4950  0.0658
 4973SOL    HW223888   3.243   4.739   2.203 -0.6758 -0.3534  0.0566
 4974SOL     OW23889   8.595   8.420   7.793 -0.2746 -0.0328 -0.7126
 4974SOL    HW123890   8.621   8.481   7.863  2.9606 -1.5096 -0.4127
 4974SOL    HW223891   8.500   8.430   7.786 -0.1645  3.4187  0.7736
 4975SOL     OW23892  12.196   6.181   0.107 -0.4064 -0.3239  0.2880
 4975SOL    HW123893  12.256   6.230   0.050 -0.4514  0.0675  0.5736
 4975SOL    HW223894  12.121   6.161   0.050 -0.4771  0.1177  0.2206
 4976SOL     OW23895   0.582   3.392   0.637 -0.5242 -0.3562  0.4310
 4976SOL    HW123896   0.661   3.343   0.660 -0.4107  0.0820  1.0293
 4976SOL    HW223897   0.544   3.345   0.563  0.1320 -0.7477  0.3394
 4977SOL     OW23898   4.206   2.761   4.467 -0.2573  0.1353  0.3512
 4977SOL    HW123899   4.277   2.754   4.405  0.1518 -4.1367  0.9958
 4977SOL    HW223900   4.127   2.770   4.413  0.3501 -0.3580 -0.6398
 4978SOL     OW23901   8.875   1.025   2.723  0.1285  0.2235  0.2275
 4978SOL    HW123902   8.949   1.076   2.689 -0.7578  1.6809  0.4045
 4978SOL    HW223903   8.798   1.064   2.681 -0.8832  1.1707  2.7562
 4979SOL     OW23904   9.989  11.786   8.485 -0.3524 -0.2956 -0.0385
 4979SOL    HW123905  10.078  11.759   8.509  0.0502 -0.7901 -1.9654
 4979SOL    HW223906   9.969  11.857   8.546  1.8288  0.6188 -0.2937
 4980SOL     OW23907  11.218   6.090   4.632  0.0112 -0.1407 -0.6207
 4980SOL    HW123908  11.290   6.152   4.641 -1.3701  1.5837 -0.8824
 4980SOL    HW223909  11.234   6.025   4.701  1.5143  0.4835 -0.3453
 4981SOL     OW23910   6.570   6.137  10.328  0.1960 -0.0630  0.7533
 4981SOL    HW123911   6.634   6.208  10.328 -2.0247  2.0535  1.5285
 4981SOL    HW223912   6.562   6.112  10.420  1.2086 -1.6571  0.4573
 4982SOL     OW23913   0.183  11.036   6.665 -0.0783 -0.0971  0.6814
 4982SOL    HW123914   0.267  10.993   6.678 -0.0299 -0.6231 -1.1156
 4982SOL    HW223915   0.145  10.994   6.588 -0.3893  2.4960 -0.6997
 4983SOL     OW23916  11.832  10.378   2.987  0.4058 -0.3661  0.5932
 4983SOL    HW123917  11.758  10.341   3.036 -1.1920  0.7767 -0.8725
 4983SOL    HW223918  11.845  10.317   2.914  0.2521 -0.0409  0.2932
 4984SOL     OW23919   5.102   2.616  10.602 -0.7353  0.3613 -0.2502
 4984SOL    HW123920   5.192   2.647  10.612 -0.4360 -0.3071 -0.7582
 4984SOL    HW223921   5.078   2.638  10.512 -1.1728  0.7603 -0.0395
 4985SOL     OW23922   8.486   8.860   8.891 -0.0830 -0.3720 -0.0306
 4985SOL    HW123923   8.555   8.805   8.927 -0.8552 -0.5908  1.1613
 4985SOL    HW223924   8.491   8.942   8.941 -0.9798 -0.5672  0.3996
 4986SOL     OW23925   8.102   2.447   0.003  0.0845  0.3274  0.2705
 4986SOL    HW123926   8.014   2.483   0.008 -0.1258 -0.0232 -0.8554
 4986SOL    HW223927   8.159   2.521   0.024 -0.4214  0.8746 -0.2607
 4987SOL     OW23928   8.568   4.087  12.360  0.2513 -0.3273 -0.2660
 4987SOL    HW123929   8.553   4.119  12.449 -0.1275 -1.5348  0.1200
 4987SOL    HW223930   8.637   4.021  12.370  0.4360 -0.2320 -0.9119
 4988SOL     OW23931   8.450   2.813  12.240  0.0584  0.6251 -0.2590
 4988SOL    HW123932   8.509   2.872  12.194  0.2744  1.2549  0.8015
 4988SOL    HW223933   8.492   2.798  12.324 -1.3339  1.1672  0.5670
 4989SOL     OW23934   4.365   7.171   8.049  0.3253 -0.7412  0.3415
 4989SOL    HW123935   4.332   7.169   8.138  2.7249  1.0396  1.3880
 4989SOL    HW223936   4.297   7.215   7.998 -0.9697 -1.5675  1.3112
 4990SOL     OW23937   4.096   5.720   6.831  0.2245  0.1786  0.2376
 4990SOL    HW123938   4.148   5.761   6.901  1.7692 -2.0603  0.5089
 4990SOL    HW223939   4.133   5.755   6.750  0.1991  0.7893  0.4863
 4991SOL     OW23940   6.979   9.448   0.461  0.6384  0.7597  0.0328
 4991SOL    HW123941   6.909   9.403   0.508  0.9966 -0.3411 -0.4555
 4991SOL    HW223942   7.041   9.473   0.530 -0.0764  1.4871  0.4316
 4992SOL     OW23943  11.627   7.768   6.290  0.0938  0.0181  0.5280
 4992SOL    HW123944  11.662   7.695   6.341  1.2681 -0.2033 -0.5585
 4992SOL    HW223945  11.574   7.728   6.222  0.9319  0.1516 -0.2157
 4993SOL     OW23946   3.283   7.483   7.090 -0.6897  0.2803  0.1553
 4993SOL    HW123947   3.343   7.446   7.025 -0.6663  0.2497  0.1944
 4993SOL    HW223948   3.269   7.412   7.153 -1.7164 -0.1303 -0.4997
 4994SOL     OW23949   2.916   2.471   6.138 -0.3064  0.2038 -0.0348
 4994SOL    HW123950   2.907   2.475   6.233 -0.9871 -1.6915  0.0238
 4994SOL    HW223951   2.830   2.495   6.104 -0.1753  0.4898 -0.1723
 4995SOL     OW23952   5.359   0.660   0.097 -0.1585  0.2255 -0.2793
 4995SOL    HW123953   5.412   0.700   0.027  0.2299  1.2564  0.5750
 4995SOL    HW223954   5.276   0.708   0.094 -0.0548  0.4310  0.1147
 4996SOL     OW23955   4.067   1.001   7.520 -0.0998 -0.0909  0.5193
 4996SOL    HW123956   4.157   0.972   7.503 -0.5814 -0.3666 -2.0187
 4996SOL    HW223957   4.067   1.094   7.500 -0.1789  0.1178  1.4652
 4997SOL     OW23958  10.434   8.355   1.962 -0.4872 -0.1887 -0.2920
 4997SOL    HW123959  10.448   8.448   1.945  0.2873 -0.2927 -0.2734
 4997SOL    HW223960  10.386   8.323   1.885  0.8875 -0.1561 -1.2009
 4998SOL     OW23961  12.206   3.456   4.510  0.3146 -0.0886  0.6326
 4998SOL    HW123962  12.271   3.406   4.462 -0.2551 -0.7831  0.5573
 4998SOL    HW223963  12.160   3.391   4.564 -0.0102  0.4514  1.0227
 4999SOL     OW23964   5.597   9.446   6.135  0.0473  0.3335 -0.1155
 4999SOL    HW123965   5.533   9.379   6.111 -1.3322  1.0463  1.4002
 4999SOL    HW223966   5.681   9.408   6.109 -0.6544 -2.1100  0.8705
 5000SOL     OW23967  11.210   8.289   8.460  0.0966  0.0658  0.4151
 5000SOL    HW123968  11.217   8.338   8.378 -1.7407 -0.8937 -0.3842
 5000SOL    HW223969  11.221   8.355   8.529 -1.6827  1.5199 -0.6092
 5001SOL     OW23970   4.470   7.640   6.173  0.0794 -0.2094  0.5521
 5001SOL    HW123971   4.483   7.696   6.249 -0.4340  0.2339  0.3213
 5001SOL    HW223972   4.379   7.653   6.148 -0.3728 -1.9838  1.1409
 5002SOL     OW23973   4.573   8.231   7.451  0.0975 -0.3118 -0.0780
 5002SOL    HW123974   4.642   8.281   7.496 -0.1622  0.8902 -0.9477
 5002SOL    HW223975   4.520   8.194   7.521  0.7740 -0.0286  0.5985
 5003SOL     OW23976   8.525   1.666   2.132  0.3895  0.2437 -0.2682
 5003SOL    HW123977   8.540   1.695   2.222  0.1529 -0.1351 -0.1075
 5003SOL    HW223978   8.496   1.745   2.087  2.1826  0.8483 -0.4296
 5004SOL     OW23979   3.848   9.119   1.856  0.2647  0.1518 -0.4870
 5004SOL    HW123980   3.905   9.099   1.782 -0.1436 -0.4848 -0.6379
 5004SOL    HW223981   3.797   9.194   1.828 -1.0318 -1.0560 -1.5067
 5005SOL     OW23982   0.305  11.608   1.152  0.4902  0.4748 -0.2677
 5005SOL    HW123983   0.335  11.664   1.224 -2.1229  2.3225 -0.5003
 5005SOL    HW223984   0.378  11.609   1.090  2.1140  0.2335  1.5447
 5006SOL     OW23985   0.548  10.173   9.450  0.1678  0.0040 -0.3596
 5006SOL    HW123986   0.536  10.149   9.358 -2.0038  1.2061 -0.4654
 5006SOL    HW223987   0.636  10.210   9.454  0.0420  0.5940 -2.1183
 5007SOL     OW23988  10.899   5.248   2.457  0.2761  0.4449 -0.0745
 5007SOL    HW123989  10.918   5.239   2.550 -0.4712 -0.7987 -0.0153
 5007SOL    HW223990  10.909   5.160   2.422 -0.3913  0.7127 -0.9849
 5008SOL     OW23991   6.172   5.624   6.192  0.5594 -0.2134 -0.4285
 5008SOL    HW123992   6.257   5.628   6.235  0.0884 -0.2243  0.5390
 5008SOL    HW223993   6.121   5.562   6.244 -0.1706  0.1070 -0.7369
 5009SOL     OW23994   5.044   8.216   6.690  0.0608  0.0178  0.3733
 5009SOL    HW123995   5.053   8.211   6.786 -0.8931  0.0206  0.4665
 5009SOL    HW223996   5.083   8.135   6.658 -0.7251 -0.5539  0.8438
 5010SOL     OW23997   3.737   9.427   2.121  0.1966 -0.1735 -0.0059
 5010SOL    HW123998   3.687   9.447   2.042  1.0660  2.5425  0.0327
 5010SOL    HW223999   3.829   9.437   2.094  0.5186  0.4339  1.2365
 5011SOL     OW24000   7.526   7.399  11.470 -0.2249  0.2203 -1.0928
 5011SOL    HW124001   7.495   7.362  11.552 -0.4544  1.8201 -0.4127
 5011SOL    HW224002   7.605   7.350  11.449 -0.0940 -0.1262  0.1631
 5012SOL     OW24003   7.142   7.201   1.614  0.5271  0.1177  0.2436
 5012SOL    HW124004   7.060   7.240   1.585  1.1009  0.3882 -1.1284
 5012SOL    HW224005   7.120   7.152   1.693 -1.4147 -1.5899 -1.2486
 5013SOL     OW24006   7.627  10.739   5.853 -0.0312  0.1657  0.1064
 5013SOL    HW124007   7.699  10.784   5.897  0.7183 -2.2269  1.4676
 5013SOL    HW224008   7.555  10.802   5.856  0.6763  0.9811  2.7022
 5014SOL     OW24009   3.435   9.463  10.445  0.0853 -0.4768  0.0379
 5014SOL    HW124010   3.489   9.525  10.493 -0.5172 -0.8977  1.3144
 5014SOL    HW224011   3.378   9.424  10.511 -0.2891 -1.6164 -0.9051
 5015SOL     OW24012   7.716   5.639   4.352 -0.4173 -0.1283  0.3199
 5015SOL    HW124013   7.659   5.609   4.282  0.2103 -1.7018  0.4312
 5015SOL    HW224014   7.705   5.733   4.354 -0.1310  0.0307 -2.2050
 5016SOL     OW24015   6.396   0.061   9.792  0.1183  0.6327 -0.2399
 5016SOL    HW124016   6.410   0.143   9.744  1.3939  0.0904 -0.8306
 5016SOL    HW224017   6.451   0.069   9.869  1.8099 -0.4328 -1.2669
 5017SOL     OW24018   0.480   3.180   0.824 -0.7390  0.2728 -0.4681
 5017SOL    HW124019   0.402   3.230   0.799 -0.8132  0.4624  0.1246
 5017SOL    HW224020   0.536   3.182   0.746 -0.5550  1.6480 -0.3313
 5018SOL     OW24021  10.620   0.111  12.067  0.6874 -0.1323  0.2120
 5018SOL    HW124022  10.539   0.138  12.023  0.1761 -1.9988 -0.1170
 5018SOL    HW224023  10.688   0.166  12.030 -0.3705  1.1946  0.1833
 5019SOL     OW24024  10.746   0.794   7.624 -0.0377  0.0726  0.2990
 5019SOL    HW124025  10.691   0.721   7.651  0.5163 -0.4301  0.0862
 5019SOL    HW224026  10.695   0.839   7.556 -0.4279 -0.0499  0.5112
 5020SOL     OW24027   0.926  11.940  12.438 -0.0627  0.0510  0.1068
 5020SOL    HW124028   0.981  11.908  12.368 -1.7016 -0.5595 -0.9673
 5020SOL    HW224029   0.976  11.924  12.518  0.6004 -2.0536 -0.6762
 5021SOL     OW24030   3.540  11.613   5.050 -0.2223  0.2071  0.1838
 5021SOL    HW124031   3.629  11.582   5.062  0.1843  1.6528  1.2519
 5021SOL    HW224032   3.489  11.566   5.116  0.2104  1.0628  1.1588
 5022SOL     OW24033  11.316   0.565   6.022 -0.0070  0.3485 -0.3370
 5022SOL    HW124034  11.357   0.629   6.080 -0.6895  0.2463  0.2721
 5022SOL    HW224035  11.388   0.508   5.994  0.4276  0.7545 -0.0558
 5023SOL     OW24036   2.309   8.312  11.497 -0.2330  0.6249 -0.1796
 5023SOL    HW124037   2.273   8.229  11.527 -0.7924  0.6298 -0.8160
 5023SOL    HW224038   2.365   8.342  11.569  1.4250 -1.1597 -0.6478
 5024SOL     OW24039   3.802   1.734   6.202 -0.5023  0.8683  0.1018
 5024SOL    HW124040   3.748   1.809   6.224 -0.9214  0.8732 -0.8702
 5024SOL    HW224041   3.888   1.753   6.240 -1.0558  1.0647  1.2697
 5025SOL     OW24042   5.615  10.215   6.211 -0.0507 -0.1118  0.6616
 5025SOL    HW124043   5.549  10.266   6.258  0.7008  1.5423  0.0180
 5025SOL    HW224044   5.695  10.227   6.261  0.0053 -1.2555  0.8666
 5026SOL     OW24045   7.856   9.937   2.605  0.4751 -0.0165  0.1995
 5026SOL    HW124046   7.945   9.971   2.617  1.4744 -2.9049  1.9988
 5026SOL    HW224047   7.817   9.942   2.692 -0.7813  0.2700 -0.3601
 5027SOL     OW24048   4.534   3.654   6.944 -0.5465 -0.0418 -0.2101
 5027SOL    HW124049   4.439   3.640   6.949 -0.5502 -0.0964 -0.4269
 5027SOL    HW224050   4.570   3.566   6.935 -0.3489 -0.1919  1.7027
 5028SOL     OW24051   6.057  11.880   6.330 -0.4478  0.2438  0.1257
 5028SOL    HW124052   6.094  11.793   6.347  0.4320  0.3670 -0.9730
 5028SOL    HW224053   6.129  11.927   6.287 -1.2414  1.1801 -0.1950
 5029SOL     OW24054   8.735   6.087   5.518  0.0530  0.0788  0.0524
 5029SOL    HW124055   8.727   6.130   5.433  1.1886 -0.7525 -0.5053
 5029SOL    HW224056   8.780   6.005   5.499 -0.2122 -0.3938  1.3825
 5030SOL     OW24057   8.785   7.455   4.533 -0.1183 -0.1646 -0.3752
 5030SOL    HW124058   8.776   7.520   4.463 -0.6492  2.3402  1.8129
 5030SOL    HW224059   8.698   7.417   4.542 -0.2066 -0.0371 -0.6867
 5031SOL     OW24060  12.077   8.399   3.545 -0.3794  0.2484  0.8720
 5031SOL    HW124061  12.026   8.441   3.615  0.5746  2.4231  0.3374
 5031SOL    HW224062  12.163   8.440   3.549  0.6579 -1.7004  0.2597
 5032SOL     OW24063   9.139   6.452  10.058 -0.4596  0.2163  0.3681
 5032SOL    HW124064   9.207   6.391  10.031  1.6260  2.4274  0.2861
 5032SOL    HW224065   9.162   6.476  10.148 -0.5118  1.7143  0.0181
 5033SOL     OW24066  10.780   9.415   8.660  0.6158 -0.2035  0.0164
 5033SOL    HW124067  10.730   9.407   8.741  1.2359  0.3861  0.4689
 5033SOL    HW224068  10.777   9.509   8.639  2.7777  0.1358  0.9010
 5034SOL     OW24069  10.758   8.451   2.281 -0.2707 -0.2535  0.1190
 5034SOL    HW124070  10.771   8.450   2.376  0.0770 -2.5134  0.1204
 5034SOL    HW224071  10.728   8.362   2.261  1.0580 -0.2784 -2.0452
 5035SOL     OW24072   2.838   0.615   7.664  0.7296  0.8967  0.0034
 5035SOL    HW124073   2.877   0.529   7.678 -3.1527 -1.5316 -2.1580
 5035SOL    HW224074   2.877   0.648   7.583  1.5396  0.7574  0.3315
 5036SOL     OW24075   2.194   1.380   8.238  0.5392 -0.7890  0.3176
 5036SOL    HW124076   2.125   1.356   8.299  1.8143 -1.3223  1.6295
 5036SOL    HW224077   2.244   1.448   8.285  1.1150 -0.6876 -0.4320
 5037SOL     OW24078   9.133   2.930   1.950 -0.5489  0.1257  0.0094
 5037SOL    HW124079   9.080   2.852   1.967 -1.1386  0.2737 -1.0593
 5037SOL    HW224080   9.101   2.994   2.014 -2.8846  0.7419 -1.6393
 5038SOL     OW24081   4.058  11.642   3.352 -0.2657  0.1707  0.2699
 5038SOL    HW124082   4.060  11.699   3.276 -0.1247  0.7529  0.7055
 5038SOL    HW224083   4.096  11.559   3.320  2.0214  1.1276  0.2730
 5039SOL     OW24084   3.246   1.533  11.710 -0.4866  0.4557  0.0286
 5039SOL    HW124085   3.297   1.577  11.779  1.2822 -0.9789 -0.2837
 5039SOL    HW224086   3.164   1.507  11.753 -0.3126  1.4423  0.9922
 5040SOL     OW24087   5.130  10.865   3.743 -0.0888 -0.1726  0.2705
 5040SOL    HW124088   5.086  10.823   3.669  0.9194 -0.4902 -0.1568
 5040SOL    HW224089   5.117  10.805   3.816 -0.4526 -0.2104  0.1794
 5041SOL     OW24090  11.296  11.518   5.262 -0.6503  0.3853  0.4484
 5041SOL    HW124091  11.207  11.547   5.285 -0.3244 -0.2228  2.7223
 5041SOL    HW224092  11.318  11.454   5.330  2.0724  1.5804  0.7957
 5042SOL     OW24093  10.177   6.294   6.800 -0.4602  0.6531  0.5999
 5042SOL    HW124094  10.131   6.225   6.846 -0.7147  1.0043  0.8773
 5042SOL    HW224095  10.206   6.354   6.869 -1.0653  1.3148  0.2963
 5043SOL     OW24096   4.309   6.668   4.104 -0.1078  0.2465  0.0021
 5043SOL    HW124097   4.263   6.708   4.178  0.2762  2.3680 -0.8497
 5043SOL    HW224098   4.267   6.705   4.027  0.0308 -1.3328 -0.8752
 5044SOL     OW24099  12.377   2.118   6.951  0.5282  0.1872 -0.3275
 5044SOL    HW124100  12.303   2.167   6.989 -0.0329 -0.3182 -0.7441
 5044SOL    HW224101  12.415   2.178   6.887 -0.0908  0.1263 -0.7608
 5045SOL     OW24102   4.626   3.519   2.646 -0.3775  0.3142 -0.6644
 5045SOL    HW124103   4.591   3.456   2.582  0.1676  0.0080 -0.6701
 5045SOL    HW224104   4.720   3.503   2.646  0.0068  2.2649 -1.8905
 5046SOL     OW24105   4.901   6.820   9.132 -0.5509  0.2884  0.0447
 5046SOL    HW124106   4.814   6.821   9.173 -0.7463 -0.0989 -0.3542
 5046SOL    HW224107   4.958   6.778   9.197  0.0416  3.2915  1.6590
 5047SOL     OW24108  10.460  12.470   4.293 -0.5253  0.0131 -0.2063
 5047SOL    HW124109  10.456  12.502   4.203  0.5523 -0.7021 -0.5207
 5047SOL    HW224110  10.450  12.549   4.346  1.6319  0.8657 -0.9682
 5048SOL     OW24111   2.444   6.340   7.481 -0.0527  0.2148 -0.8434
 5048SOL    HW124112   2.507   6.410   7.461  1.7025 -1.5460 -1.7877
 5048SOL    HW224113   2.453   6.278   7.409 -0.5569 -1.6482  0.6141
 5049SOL     OW24114   9.253   6.188   4.806  0.5242  0.4209 -0.0630
 5049SOL    HW124115   9.259   6.162   4.713 -0.9193 -1.5902  0.3313
 5049SOL    HW224116   9.336   6.158   4.843  0.5585 -0.0026 -0.4560
 5050SOL     OW24117   2.262  11.635   4.362 -0.3022  0.2567  0.9464
 5050SOL    HW124118   2.335  11.698   4.365 -0.6262  0.6180  1.3055
 5050SOL    HW224119   2.183  11.690   4.364 -0.5862 -0.1383  0.6879
 5051SOL     OW24120   2.128   4.984  11.682  0.3836  0.2007 -0.1601
 5051SOL    HW124121   2.144   4.945  11.768  1.0744 -1.9127 -1.1721
 5051SOL    HW224122   2.034   5.000  11.680 -0.0650 -2.1021  0.1035
 5052SOL     OW24123   6.614   7.728   0.489 -0.6515  0.0130 -0.4741
 5052SOL    HW124124   6.561   7.784   0.547  0.2277  2.3469 -1.7761
 5052SOL    HW224125   6.704   7.753   0.508 -0.0483 -2.4256  0.2293
 5053SOL     OW24126   9.100   2.876   9.515 -0.3893  0.1236 -0.2143
 5053SOL    HW124127   9.075   2.804   9.573 -0.4177  2.2550  2.5752
 5053SOL    HW224128   9.174   2.917   9.558 -0.5694  1.9895 -1.5638
 5054SOL     OW24129  10.086   0.264  11.799  0.2871 -0.4966 -0.2528
 5054SOL    HW124130  10.003   0.238  11.840 -0.0124  0.0992 -0.4714
 5054SOL    HW224131  10.153   0.225  11.855 -0.1109  0.4197  0.9041
 5055SOL     OW24132   3.590   9.377   9.743  0.0213  0.2106 -0.5921
 5055SOL    HW124133   3.648   9.331   9.682  0.8110  1.0681 -0.5074
 5055SOL    HW224134   3.602   9.470   9.722 -0.1291  0.4841  0.4737
 5056SOL     OW24135  12.425   2.422  12.175 -0.2395 -0.3885 -0.3602
 5056SOL    HW124136  12.335   2.410  12.145 -0.6238 -0.5385  0.8225
 5056SOL    HW224137  12.424   2.504  12.223  0.3796 -0.1243 -0.7858
 5057SOL     OW24138  11.982   1.004  10.876  0.2989  0.2527  0.0542
 5057SOL    HW124139  12.053   1.007  10.940  3.0193  0.5623 -2.7182
 5057SOL    HW224140  12.003   1.075  10.815 -1.1292 -1.0661 -2.0868
 5058SOL     OW24141   3.271   3.888   6.697  1.4065 -0.0372 -0.5249
 5058SOL    HW124142   3.279   3.812   6.755  0.0881 -0.2260 -0.5570
 5058SOL    HW224143   3.309   3.858   6.614 -1.4734 -1.6615 -1.3838
 5059SOL     OW24144   9.333   4.520   2.693  0.0760 -0.2061  0.4576
 5059SOL    HW124145   9.286   4.441   2.720 -0.0869  0.1856  1.3587
 5059SOL    HW224146   9.289   4.548   2.613  0.5462 -1.3782 -0.2326
 5060SOL     OW24147   8.299   5.323   7.692  0.0838  0.4300  0.0672
 5060SOL    HW124148   8.381   5.311   7.646 -0.6517 -1.3229 -0.8611
 5060SOL    HW224149   8.281   5.417   7.685  1.5025  0.6716 -0.5519
 5061SOL     OW24150   6.387   8.432   3.785 -0.7300  0.7385 -0.5944
 5061SOL    HW124151   6.308   8.423   3.838  0.5663  0.7116  1.4417
 5061SOL    HW224152   6.389   8.525   3.761 -0.5612  1.0986  0.7345
 5062SOL     OW24153   3.388   6.407   6.032  0.5134 -1.1222  0.3876
 5062SOL    HW124154   3.314   6.467   6.029  0.6221 -0.8381  2.1266
 5062SOL    HW224155   3.440   6.429   5.955 -0.1669  0.0794  0.2419
 5063SOL     OW24156   8.139   8.876   7.529  0.2687 -0.1342 -0.0847
 5063SOL    HW124157   8.147   8.953   7.586 -0.8222 -0.0277 -0.0458
 5063SOL    HW224158   8.211   8.884   7.467  0.7212  0.4250  0.5015
 5064SOL     OW24159   9.190   4.639  11.823  0.2892 -0.1697  0.6476
 5064SOL    HW124160   9.142   4.617  11.743  1.3995 -1.1906  0.2478
 5064SOL    HW224161   9.124   4.633  11.892 -0.3536 -0.7298  0.0025
 5065SOL     OW24162   3.549   9.257   5.316 -0.0566  0.3908 -0.5554
 5065SOL    HW124163   3.482   9.305   5.365 -2.1907 -1.2158 -1.7071
 5065SOL    HW224164   3.565   9.311   5.239 -1.7340 -0.1839 -1.3676
 5066SOL     OW24165   8.247   0.643   2.558 -0.3836  0.6845 -0.3210
 5066SOL    HW124166   8.291   0.603   2.483 -0.4036 -2.1492  1.0698
 5066SOL    HW224167   8.171   0.588   2.574  0.1541  0.5679  2.3559
 5067SOL     OW24168   5.830  12.419  10.406  0.5876  0.0864 -0.2220
 5067SOL    HW124169   5.776  12.446  10.331  1.0599 -1.2945 -1.0757
 5067SOL    HW224170   5.914  12.395  10.368  0.9174 -0.3925  0.7861
 5068SOL     OW24171  11.829   5.235  10.498 -0.8103  0.1051 -0.3243
 5068SOL    HW124172  11.851   5.238  10.591  2.1349  0.2970 -0.9285
 5068SOL    HW224173  11.862   5.151  10.467 -2.0784 -0.1181 -1.1500
 5069SOL     OW24174  11.341   1.826   4.946 -0.1944 -0.5216 -0.2373
 5069SOL    HW124175  11.418   1.835   5.002 -0.7160  3.7108  0.0785
 5069SOL    HW224176  11.376   1.822   4.858  0.4318 -0.9342  0.0226
 5070SOL     OW24177   3.449   5.966  10.322  0.0367  0.3538 -0.2161
 5070SOL    HW124178   3.405   5.963  10.237 -4.0095  1.2954  1.6066
 5070SOL    HW224179   3.437   6.056  10.352  0.4411 -0.1988  1.7548
 5071SOL     OW24180   0.163   1.309  11.904 -0.1228 -0.0888  0.0657
 5071SOL    HW124181   0.090   1.251  11.882  0.9739 -1.4582 -0.0559
 5071SOL    HW224182   0.219   1.256  11.961 -0.5076  1.8041  2.3616
 5072SOL     OW24183   4.816   4.406   8.808  0.2687 -0.1279 -0.0153
 5072SOL    HW124184   4.840   4.412   8.715 -0.2644  0.4816 -0.1191
 5072SOL    HW224185   4.850   4.487   8.847 -0.8780  0.3606 -0.0040
 5073SOL     OW24186  12.185  11.649   8.812  0.0830 -0.3493  0.1844
 5073SOL    HW124187  12.091  11.659   8.828 -0.1693 -0.7490 -0.9348
 5073SOL    HW224188  12.199  11.555   8.808  0.3932 -0.2876 -0.3274
 5074SOL     OW24189  11.518   0.117   3.070  0.5486  0.4176  0.0289
 5074SOL    HW124190  11.453   0.186   3.080  2.3317  2.0457  0.9224
 5074SOL    HW224191  11.602   0.161   3.083  1.7055 -2.2792  2.7558
 5075SOL     OW24192  10.596   7.572   6.715  0.0870 -0.7154 -0.0207
 5075SOL    HW124193  10.542   7.651   6.701  0.4233 -0.2889  1.0079
 5075SOL    HW224194  10.643   7.589   6.796  0.7351 -1.6768 -0.1761
 5076SOL     OW24195   9.340   9.807   1.788 -0.2435  0.0168  0.2417
 5076SOL    HW124196   9.425   9.840   1.818 -0.6771  0.5170  0.9417
 5076SOL    HW224197   9.294   9.884   1.755  0.1719 -0.5074 -1.6445
 5077SOL     OW24198   7.932   6.767   5.942 -0.3251 -0.0190 -0.3087
 5077SOL    HW124199   7.892   6.783   5.856  0.7150 -1.1582 -1.0456
 5077SOL    HW224200   8.008   6.712   5.923  0.0549 -0.1158  1.3340
 5078SOL     OW24201   2.155   2.817   0.664 -0.5991 -0.4315 -0.0027
 5078SOL    HW124202   2.229   2.769   0.700  0.5092  1.8038  0.9349
 5078SOL    HW224203   2.182   2.840   0.575 -0.0773  0.4673  0.3722
 5079SOL     OW24204   3.153   0.353  11.916  0.5595 -0.4757  0.6933
 5079SOL    HW124205   3.240   0.395  11.918 -0.2907  1.6735 -1.7343
 5079SOL    HW224206   3.168   0.270  11.871  1.1008  0.9648 -2.0248
 5080SOL     OW24207   5.861   1.724   0.007 -0.7085 -0.0042  0.0218
 5080SOL    HW124208   5.835   1.653  -0.052  0.3032 -0.5800  0.2334
 5080SOL    HW224209   5.838   1.804  -0.040  0.7700 -0.4232 -1.5446
 5081SOL     OW24210  10.644  10.274   4.436  0.2020 -0.3693 -0.4220
 5081SOL    HW124211  10.682  10.210   4.376  0.8067 -0.0079 -0.4344
 5081SOL    HW224212  10.707  10.346   4.437 -0.4633  0.2251 -0.4114
 5082SOL     OW24213   7.488   9.260   8.074 -0.2270  0.0226 -0.0032
 5082SOL    HW124214   7.441   9.313   8.009 -0.8887 -1.9409 -1.2334
 5082SOL    HW224215   7.561   9.315   8.101 -1.0315  1.6614 -0.9867
 5083SOL     OW24216   6.051   0.454   1.777  0.2838  0.3128 -0.0819
 5083SOL    HW124217   6.065   0.475   1.869 -1.2621  0.5891  0.1146
 5083SOL    HW224218   6.056   0.358   1.773  1.9949  0.3604 -0.0367
 5084SOL     OW24219   9.548   0.009   3.953 -0.6354 -0.0141 -0.2713
 5084SOL    HW124220   9.584  -0.065   3.903  1.2074 -1.8408  3.4064
 5084SOL    HW224221   9.461  -0.021   3.981 -1.5411  0.8909 -1.9469
 5085SOL     OW24222   0.312   4.274  12.376  0.5902 -0.0466 -0.3711
 5085SOL    HW124223   0.363   4.341  12.330 -0.6156  0.8701 -0.4060
 5085SOL    HW224224   0.356   4.266  12.461  0.4092  1.2147 -0.1432
 5086SOL     OW24225   3.979   8.783   7.133  0.0713 -0.1115  0.2796
 5086SOL    HW124226   4.025   8.724   7.193  1.0519  0.0985 -0.2598
 5086SOL    HW224227   4.015   8.764   7.047 -0.3461  0.5528 -0.0507
 5087SOL     OW24228   2.402   9.321   9.345 -0.3151  0.0295 -0.0403
 5087SOL    HW124229   2.457   9.250   9.311  2.0346  1.3221  0.8657
 5087SOL    HW224230   2.419   9.322   9.439 -1.5431  0.8063  0.1954
 5088SOL     OW24231  11.069   2.855   5.235  0.2323 -0.2518 -0.1611
 5088SOL    HW124232  11.040   2.944   5.254 -0.3362 -0.1939 -1.2026
 5088SOL    HW224233  11.073   2.812   5.320 -0.1438  0.5782  0.2845
 5089SOL     OW24234   0.321   0.274   0.236  0.0504  0.1489 -0.1041
 5089SOL    HW124235   0.368   0.333   0.295  2.2592  0.1798 -1.7754
 5089SOL    HW224236   0.390   0.224   0.192 -1.4337  0.1000 -2.6018
 5090SOL     OW24237  10.981   2.204  10.204 -0.0438  0.0949 -0.5640
 5090SOL    HW124238  11.001   2.117  10.239 -1.0466  0.0254 -0.1147
 5090SOL    HW224239  10.981   2.193  10.109  0.4696 -0.2450 -0.5269
 5091SOL     OW24240   4.444   8.526   2.840  0.7512 -0.0748 -0.0878
 5091SOL    HW124241   4.401   8.498   2.759  1.2019  0.4695 -0.5146
 5091SOL    HW224242   4.457   8.445   2.889  1.2135 -0.5101 -0.9162
 5092SOL     OW24243   2.435   6.671  10.941 -0.3629  0.0185  0.9551
 5092SOL    HW124244   2.420   6.739  11.007  1.6430  0.5104  0.9891
 5092SOL    HW224245   2.379   6.696  10.867  0.7498  2.0928  0.7405
 5093SOL     OW24246   6.011   2.927   4.422  0.1968  0.0247 -0.2768
 5093SOL    HW124247   6.035   2.864   4.354  1.0224 -1.8976  1.6620
 5093SOL    HW224248   6.093   2.971   4.443 -0.0555  0.6126 -0.5130
 5094SOL     OW24249  10.089  10.260   5.200  0.1549 -0.1418 -0.0061
 5094SOL    HW124250  10.080  10.252   5.105  0.4588 -2.1562  0.0842
 5094SOL    HW224251  10.010  10.306   5.228 -0.5774 -0.6785 -1.1177
 5095SOL     OW24252   8.954   5.139   1.850  0.4700  0.2243 -0.2430
 5095SOL    HW124253   9.014   5.188   1.905  0.5688  0.2946 -0.4105
 5095SOL    HW224254   8.890   5.203   1.820  0.3622  0.1670 -0.1314
 5096SOL     OW24255   2.359   7.411   0.954  0.0564  0.3919 -0.6166
 5096SOL    HW124256   2.330   7.483   0.898 -0.2282 -0.1307 -1.1655
 5096SOL    HW224257   2.363   7.335   0.894 -1.0594 -0.3670  0.2386
 5097SOL     OW24258   4.518   2.822   8.392  0.8137  0.2721 -0.2734
 5097SOL    HW124259   4.610   2.832   8.417  0.6710  4.0844 -0.5989
 5097SOL    HW224260   4.509   2.877   8.314 -1.7547  0.0656 -0.2052
 5098SOL     OW24261   5.819   7.354   2.995  0.1034  0.0230 -0.3469
 5098SOL    HW124262   5.841   7.442   2.963 -0.4929 -0.5130 -2.3883
 5098SOL    HW224263   5.758   7.370   3.067  0.7165  1.3012 -0.0766
 5099SOL     OW24264  10.801   7.681  10.686 -0.4218 -0.2252 -0.2397
 5099SOL    HW124265  10.770   7.745  10.622 -0.3875 -0.9084 -0.9654
 5099SOL    HW224266  10.733   7.677  10.752 -1.2022 -0.6195 -1.0382
 5100SOL     OW24267  10.072   5.451   2.375  0.4268  0.0998  0.2587
 5100SOL    HW124268  10.008   5.522   2.366  0.3685 -0.0442 -0.5061
 5100SOL    HW224269  10.018   5.372   2.383  0.4548 -0.2778 -2.3731
 5101SOL     OW24270   4.905   1.815   6.495 -0.2823 -0.1678 -0.4445
 5101SOL    HW124271   4.921   1.894   6.444 -0.9277 -0.1737 -0.6744
 5101SOL    HW224272   4.859   1.757   6.434  0.4302 -0.8272 -0.3662
 5102SOL     OW24273  11.115   7.180  10.240  0.3533 -0.3539 -0.2205
 5102SOL    HW124274  11.030   7.187  10.198 -0.4149  0.2956  1.3450
 5102SOL    HW224275  11.135   7.087  10.237 -0.8162 -0.6380  0.1055
 5103SOL     OW24276  10.826   4.675   6.355 -0.2405 -0.2926  0.8701
 5103SOL    HW124277  10.826   4.696   6.262 -2.3535 -0.7070  0.7108
 5103SOL    HW224278  10.757   4.731   6.392  0.3982 -0.3103  2.1575
 5104SOL     OW24279  12.388   7.079   7.484 -0.4513  0.0972  0.1268
 5104SOL    HW124280  12.389   7.033   7.400 -1.1470  0.0205  0.1483
 5104SOL    HW224281  12.469   7.052   7.528 -0.6185 -0.7450 -0.0573
 5105SOL     OW24282   2.592   2.052   9.758 -0.2791 -0.0101  0.2332
 5105SOL    HW124283   2.547   2.059   9.674 -0.8144 -0.2662  0.5003
 5105SOL    HW224284   2.531   2.089   9.821  0.4555  0.9481  0.4012
 5106SOL     OW24285  10.002   7.306  10.911 -0.1260 -0.7230  0.1699
 5106SOL    HW124286  10.004   7.395  10.874  1.4534 -1.4510 -1.6881
 5106SOL    HW224287  10.094   7.281  10.919 -0.5315 -2.0154  1.1819
 5107SOL     OW24288   6.605   2.014   3.487 -0.2259  0.2480  0.7746
 5107SOL    HW124289   6.552   2.038   3.563 -2.0463 -0.4544 -0.1960
 5107SOL    HW224290   6.661   1.943   3.517 -1.4574 -0.5395  1.2983
 5108SOL     OW24291   8.886   9.507   5.884 -0.1119  0.6317 -0.2979
 5108SOL    HW124292   8.971   9.475   5.915 -0.2275 -1.3300 -1.8120
 5108SOL    HW224293   8.822   9.452   5.929 -0.6240  2.1193  0.8516
 5109SOL     OW24294   0.263   3.876   1.596  0.7506 -0.0951  0.6149
 5109SOL    HW124295   0.195   3.862   1.531 -1.6261  1.1565  2.6331
 5109SOL    HW224296   0.314   3.950   1.563 -0.8353  0.9601  0.4190
 5110SOL     OW24297   8.254   2.350   5.352  0.1774  0.0987 -0.3846
 5110SOL    HW124298   8.287   2.436   5.381  2.3606 -0.2271 -1.6234
 5110SOL    HW224299   8.179   2.370   5.296  0.8952  1.2635 -0.9715
 5111SOL     OW24300   9.390  12.062   1.507  0.5857  0.0843 -0.2979
 5111SOL    HW124301   9.354  11.976   1.532 -1.7148  1.2259  0.7115
 5111SOL    HW224302   9.468  12.042   1.456 -0.5873 -2.6447 -1.2256
 5112SOL     OW24303  11.312  11.548   2.131 -0.2038  0.5798 -0.1380
 5112SOL    HW124304  11.362  11.486   2.184 -0.4562  0.2743 -0.2529
 5112SOL    HW224305  11.250  11.494   2.083 -1.3955  1.0393  0.8128
 5113SOL     OW24306   5.697  10.787   4.778 -0.7111 -0.7125 -0.3408
 5113SOL    HW124307   5.734  10.873   4.756  1.9201 -1.6535  0.1309
 5113SOL    HW224308   5.604  10.795   4.755 -0.3378  1.9079 -1.2867
 5114SOL     OW24309  10.067   4.102   7.073 -0.2135 -0.2722  0.5683
 5114SOL    HW124310  10.078   4.149   6.991 -2.0033  0.7357  0.8651
 5114SOL    HW224311  10.079   4.169   7.141 -0.6231 -0.6928  1.0642
 5115SOL     OW24312   1.167   0.906  10.221  0.2046 -0.2902  0.5826
 5115SOL    HW124313   1.208   0.898  10.307  1.8556  2.3827  0.1854
 5115SOL    HW224314   1.095   0.968  10.234  1.5819  1.5825 -0.1690
 5116SOL     OW24315   7.971   4.798  11.317  0.0426 -0.9482  0.3023
 5116SOL    HW124316   8.027   4.817  11.242 -1.8320  0.1469 -0.9248
 5116SOL    HW224317   8.029   4.801  11.393  1.6226  0.0957 -0.8916
 5117SOL     OW24318   7.118   3.612  10.998  0.3756  0.1533 -0.4031
 5117SOL    HW124319   7.117   3.571  10.911 -1.1818 -0.3425 -0.1809
 5117SOL    HW224320   7.038   3.665  11.001  0.2188 -0.1183  0.8365
 5118SOL     OW24321   5.119  11.262   0.285 -0.2333  0.1052 -0.5985
 5118SOL    HW124322   5.165  11.271   0.369 -0.7398  0.8806 -0.3946
 5118SOL    HW224323   5.176  11.205   0.233 -1.4259 -3.1621  1.3497
 5119SOL     OW24324  11.813   6.221   8.485 -0.7668 -0.5778  0.0186
 5119SOL    HW124325  11.904   6.202   8.505 -0.3026  0.2808 -1.1839
 5119SOL    HW224326  11.765   6.195   8.565  0.3389 -2.2914  0.1845
 5120SOL     OW24327   5.105   1.154   1.995 -0.6507  0.4982 -0.2813
 5120SOL    HW124328   5.118   1.172   1.902 -0.0912 -0.3161 -0.3764
 5120SOL    HW224329   5.178   1.198   2.038 -1.0137  1.0316 -0.2020
 5121SOL     OW24330   7.236   7.578   2.981  0.1122 -0.2980 -0.5478
 5121SOL    HW124331   7.234   7.661   3.029  1.5245 -1.4098  1.5972
 5121SOL    HW224332   7.258   7.603   2.891  0.1918  1.6653 -0.0328
 5122SOL     OW24333   0.457   0.858   1.648 -0.2200  0.5416 -0.0215
 5122SOL    HW124334   0.466   0.880   1.740  1.7783 -0.5888  0.1132
 5122SOL    HW224335   0.510   0.779   1.636 -1.2446  0.0655 -1.9339
 5123SOL     OW24336   9.495   5.862  12.223  0.0173 -0.1452  0.1173
 5123SOL    HW124337   9.453   5.790  12.270 -0.0263 -1.2442 -1.4997
 5123SOL    HW224338   9.587   5.857  12.248 -0.1999  0.0560  0.9868
 5124SOL     OW24339   3.181   2.626   0.889  0.3931 -0.1555 -0.1343
 5124SOL    HW124340   3.229   2.674   0.957  0.1380 -1.7381  1.2210
 5124SOL    HW224341   3.092   2.618   0.924  0.1842 -0.7489 -0.7928
 5125SOL     OW24342   8.762   7.126  12.354  0.1217  0.0514  0.2021
 5125SOL    HW124343   8.796   7.037  12.357 -1.6314 -0.6648 -0.0969
 5125SOL    HW224344   8.812   7.168  12.283  0.8357 -0.7207  0.2267
 5126SOL     OW24345   4.098   4.455   3.457 -0.5110 -0.1440  0.4212
 5126SOL    HW124346   4.112   4.427   3.367  0.0680  0.8416  0.1883
 5126SOL    HW224347   4.095   4.373   3.508 -0.7031 -0.6975 -0.4618
 5127SOL     OW24348   0.548   0.335  10.804 -0.6867 -0.0299  0.2824
 5127SOL    HW124349   0.479   0.365  10.863  0.1515  0.9103  0.8128
 5127SOL    HW224350   0.543   0.394  10.729 -0.3329  0.1808  0.4207
 5128SOL     OW24351   4.082  11.224  11.127 -0.3829 -0.4896 -0.3790
 5128SOL    HW124352   4.112  11.158  11.190  2.3925  2.0744  1.2804
 5128SOL    HW224353   4.078  11.178  11.044  1.7148 -2.7029  0.6228
 5129SOL     OW24354   2.948   6.441   6.630  0.2530  0.3085  0.6387
 5129SOL    HW124355   2.967   6.511   6.692  2.6954 -1.0370  1.5509
 5129SOL    HW224356   2.944   6.485   6.545  0.4431  1.7089  1.3204
 5130SOL     OW24357   6.092   4.311  11.940 -0.1648 -0.0293 -0.6233
 5130SOL    HW124358   6.094   4.384  12.003  1.0007 -0.2487 -0.3710
 5130SOL    HW224359   6.093   4.233  11.995 -1.2885 -0.2447 -0.8980
 5131SOL     OW24360   2.619   9.046   5.871  0.2111 -0.0578 -0.1378
 5131SOL    HW124361   2.683   9.022   5.804 -1.2791 -0.8294 -1.3588
 5131SOL    HW224362   2.586   8.962   5.903 -0.9698  0.3055 -0.3458
 5132SOL     OW24363  11.068   4.527   9.291 -0.5754 -0.6235  0.4291
 5132SOL    HW124364  10.999   4.590   9.272 -0.3945 -0.1970  1.1792
 5132SOL    HW224365  11.030   4.442   9.268 -1.7556 -0.5184  1.8828
 5133SOL     OW24366   5.238   5.723   3.748  0.3435  0.3337  0.1440
 5133SOL    HW124367   5.179   5.678   3.688 -0.0982 -0.9231  1.4421
 5133SOL    HW224368   5.180   5.779   3.801  0.4950  0.1687  0.4886
 5134SOL     OW24369   4.199   7.625   2.861 -0.0338 -0.3834  0.1069
 5134SOL    HW124370   4.112   7.651   2.892  0.0348 -1.3889  1.2040
 5134SOL    HW224371   4.195   7.636   2.766 -0.5612  1.9182  0.3309
 5135SOL     OW24372   6.921   4.376  10.077  0.4909 -0.1687  0.0390
 5135SOL    HW124373   6.873   4.293  10.077  2.1224 -1.2352  2.3220
 5135SOL    HW224374   6.998   4.359  10.022  0.2579  0.2279 -0.4160
 5136SOL     OW24375   2.045   4.581   7.168 -0.2206 -0.3824  0.1518
 5136SOL    HW124376   1.996   4.549   7.244 -1.6057 -3.0969 -1.7098
 5136SOL    HW224377   2.064   4.673   7.189 -1.6496 -0.6426  3.1729
 5137SOL     OW24378   6.443   8.532  10.059  1.3035  0.4953  0.0150
 5137SOL    HW124379   6.366   8.574  10.096  1.5026  0.4116  0.5310
 5137SOL    HW224380   6.486   8.600  10.008  1.7325  0.9807  1.0060
 5138SOL     OW24381   3.946   3.929   0.631 -0.2866 -0.3686 -0.5405
 5138SOL    HW124382   4.033   3.968   0.640 -0.2630 -0.5676  0.1769
 5138SOL    HW224383   3.930   3.928   0.536  0.4125 -0.1624 -0.6703
 5139SOL     OW24384   9.915  11.818   7.587 -0.5460 -0.0863  0.5689
 5139SOL    HW124385   9.948  11.907   7.599  1.0710 -0.5661 -0.0425
 5139SOL    HW224386   9.937  11.796   7.496  1.1126 -1.8782  1.3258
 5140SOL     OW24387  11.546   5.299   6.704  0.1683 -0.0321 -0.1004
 5140SOL    HW124388  11.474   5.287   6.765  0.7375 -2.6916  0.1687
 5140SOL    HW224389  11.533   5.387   6.668 -2.0773  0.2976  1.3424
 5141SOL     OW24390  11.187  10.829  11.553 -0.6690  0.2326 -0.9749
 5141SOL    HW124391  11.095  10.854  11.556 -0.6898  0.0911 -0.1248
 5141SOL    HW224392  11.207  10.800  11.642  0.2108  0.3166 -1.1342
 5142SOL     OW24393  10.845   6.127   1.008  0.0314  0.8054 -0.1496
 5142SOL    HW124394  10.903   6.201   1.029  0.7750  0.2582 -0.2106
 5142SOL    HW224395  10.788   6.118   1.085  0.4789  0.9344  0.2021
 5143SOL     OW24396  11.240   9.052   5.540 -0.2142  1.0629  0.3161
 5143SOL    HW124397  11.165   8.998   5.512 -0.9556  1.0990  2.1041
 5143SOL    HW224398  11.306   9.038   5.472 -1.4497  0.1893 -0.7619
 5144SOL     OW24399   8.268  11.351   0.560 -0.0662 -0.3551 -0.0186
 5144SOL    HW124400   8.230  11.270   0.524 -0.5732 -0.3109  0.4039
 5144SOL    HW224401   8.222  11.421   0.514 -0.6973 -0.2989  0.6832
 5145SOL     OW24402   1.618  12.460   1.476  0.7259  0.8767  0.1314
 5145SOL    HW124403   1.571  12.391   1.429  0.4709  0.7249  0.6012
 5145SOL    HW224404   1.709  12.433   1.474  0.5616  0.2486  0.7720
 5146SOL     OW24405  11.153   0.150   9.685 -0.2096  0.0942 -0.2667
 5146SOL    HW124406  11.124   0.068   9.724 -1.1059 -0.1741 -1.4280
 5146SOL    HW224407  11.077   0.208   9.690 -0.7625 -0.3156 -2.5177
 5147SOL     OW24408   1.575   0.072   4.038 -0.0481 -0.4020 -0.1799
 5147SOL    HW124409   1.640   0.052   4.106 -0.0511  0.9323  0.2625
 5147SOL    HW224410   1.620   0.054   3.956  0.4021 -0.8085  0.1489
 5148SOL     OW24411   2.513   6.380   4.962  0.0071 -0.3718  0.1017
 5148SOL    HW124412   2.436   6.380   5.019 -0.0107 -1.7863  0.1343
 5148SOL    HW224413   2.480   6.407   4.876  0.2984  3.2193  1.0005
 5149SOL     OW24414   4.029   8.446   3.305  0.1209  0.2435  0.9154
 5149SOL    HW124415   3.957   8.498   3.341  0.2026 -0.0694  1.5415
 5149SOL    HW224416   4.059   8.392   3.378 -0.2889 -1.0675  0.1631
 5150SOL     OW24417   1.194   4.790   5.510 -0.1751  0.1996  0.1218
 5150SOL    HW124418   1.147   4.857   5.461 -0.4035  0.5911  0.8604
 5150SOL    HW224419   1.217   4.723   5.444 -0.2531  0.8256 -0.5523
 5151SOL     OW24420   3.582   4.736  11.604  0.1981  0.2494 -0.7023
 5151SOL    HW124421   3.614   4.686  11.679  0.9466  1.2649 -0.3239
 5151SOL    HW224422   3.597   4.678  11.529 -1.6838 -1.2757  0.0250
 5152SOL     OW24423   7.471   5.106   5.751  0.3355  0.1592  0.5583
 5152SOL    HW124424   7.476   5.011   5.762  0.5542 -0.0489 -1.0690
 5152SOL    HW224425   7.381   5.128   5.777 -0.7469 -0.9662 -1.8552
 5153SOL     OW24426  11.073   7.274   6.508 -0.5168  0.3827  0.2761
 5153SOL    HW124427  11.077   7.268   6.603 -0.0142  1.4409  0.3326
 5153SOL    HW224428  11.009   7.342   6.490 -1.9381 -1.0237 -0.2018
 5154SOL     OW24429   0.086   4.092   1.178  0.1049 -0.0788 -0.5282
 5154SOL    HW124430   0.133   4.115   1.098 -1.3981 -1.3360 -1.8713
 5154SOL    HW224431   0.104   4.163   1.239 -0.0147  1.8004 -2.5671
 5155SOL     OW24432   4.822   5.975   2.472 -0.3217 -0.0365 -0.6644
 5155SOL    HW124433   4.870   6.038   2.525 -0.4390 -0.8269  0.4164
 5155SOL    HW224434   4.810   6.018   2.387  1.4538  0.5612 -0.6522
 5156SOL     OW24435   8.258  11.002   9.784 -0.2031 -0.2802  0.2769
 5156SOL    HW124436   8.202  11.045   9.720  0.5851 -1.0647 -0.9848
 5156SOL    HW224437   8.301  10.931   9.735  1.1982 -0.2683  1.4126
 5157SOL     OW24438   9.507   9.285   0.981  0.7886 -0.0462 -0.1160
 5157SOL    HW124439   9.577   9.319   0.925  2.0771 -0.2243  1.3459
 5157SOL    HW224440   9.506   9.343   1.057 -1.9111  1.0734 -0.8876
 5158SOL     OW24441  11.804   4.502   5.349  0.4077  0.3409 -0.2386
 5158SOL    HW124442  11.822   4.527   5.440  0.6825  1.2518 -0.5369
 5158SOL    HW224443  11.827   4.409   5.346  1.9574  0.6744  0.2246
 5159SOL     OW24444  10.192   0.231   9.799 -0.1809  0.9353 -0.1875
 5159SOL    HW124445  10.287   0.230   9.788 -0.0353 -2.9234  0.2206
 5159SOL    HW224446  10.158   0.209   9.712 -0.8042  2.6384 -0.4218
 5160SOL     OW24447   8.259  12.090   0.053 -0.0840 -0.3822 -0.0699
 5160SOL    HW124448   8.174  12.124   0.081  0.1470  0.4724 -0.3807
 5160SOL    HW224449   8.296  12.159  -0.003  1.6769  0.1846  1.6316
 5161SOL     OW24450   4.371   0.276   4.700 -0.1859 -0.0487 -0.4173
 5161SOL    HW124451   4.294   0.219   4.706 -0.1367 -0.0109  3.4041
 5161SOL    HW224452   4.347   0.352   4.753  1.6536  1.0798 -1.1227
 5162SOL     OW24453   3.073   1.509  10.350 -0.3900 -0.0006 -0.7394
 5162SOL    HW124454   3.019   1.512  10.430 -0.5711  0.4056 -0.8732
 5162SOL    HW224455   3.118   1.425  10.355 -0.7591 -0.1862 -0.4420
 5163SOL     OW24456  12.438   0.433   7.928  0.4959  0.2986 -0.1866
 5163SOL    HW124457  12.347   0.404   7.928  0.8003 -0.7302  0.7853
 5163SOL    HW224458  12.485   0.367   7.877  0.6333  1.1586 -1.2309
 5164SOL     OW24459   4.834  11.840   3.935  0.0344  0.0959  0.4084
 5164SOL    HW124460   4.873  11.889   3.863 -2.2342 -0.6997 -1.4841
 5164SOL    HW224461   4.877  11.755   3.932 -0.2073 -0.0153 -0.2118
 5165SOL     OW24462   7.257  11.090   0.543 -0.2441 -0.1743 -0.4726
 5165SOL    HW124463   7.163  11.077   0.543 -0.3825  0.6831 -1.0153
 5165SOL    HW224464   7.294  11.003   0.555 -1.0752 -0.8435 -2.4334
 5166SOL     OW24465   3.650   9.377   7.264 -0.1301  0.0585 -0.1549
 5166SOL    HW124466   3.617   9.462   7.289  0.5289  0.5202 -0.7952
 5166SOL    HW224467   3.711   9.395   7.192 -0.4923 -1.0106 -0.7627
 5167SOL     OW24468   9.932  11.232   6.736  1.0146  0.4544 -0.0369
 5167SOL    HW124469   9.937  11.141   6.765 -0.4069  1.3432  3.5384
 5167SOL    HW224470   9.839  11.249   6.723  1.3261  1.2079 -1.6823
 5168SOL     OW24471   2.209   4.998   0.179 -0.2146 -0.4367 -0.0695
 5168SOL    HW124472   2.304   4.987   0.169 -0.1570  0.5231 -0.7132
 5168SOL    HW224473   2.194   5.090   0.160 -1.4406 -0.8697 -1.3989
 5169SOL     OW24474   2.213   0.025   1.186  0.1749 -0.5835 -0.6033
 5169SOL    HW124475   2.167   0.090   1.133 -2.7101 -1.7795  0.2450
 5169SOL    HW224476   2.218  -0.053   1.131 -0.0726 -0.8853 -0.2051
 5170SOL     OW24477   5.451   7.664   5.116  0.2440  0.4534  0.0072
 5170SOL    HW124478   5.405   7.585   5.143 -0.3289  1.1487  1.1120
 5170SOL    HW224479   5.482   7.645   5.027 -0.1242 -0.8982  0.1575
 5171SOL     OW24480   6.376  11.384   1.913 -0.6204 -0.1934 -0.0033
 5171SOL    HW124481   6.287  11.350   1.926 -1.8347  2.0542 -1.7633
 5171SOL    HW224482   6.398  11.361   1.823 -0.2557  1.0026 -0.2379
 5172SOL     OW24483   4.788  12.420   3.176  0.9889  0.1183  0.3322
 5172SOL    HW124484   4.810  12.512   3.183  1.2141 -0.0583  2.4580
 5172SOL    HW224485   4.864  12.380   3.134  0.5177  0.9780 -1.4658
 5173SOL     OW24486   1.361   2.322   0.681 -0.5986  0.3361 -0.1474
 5173SOL    HW124487   1.345   2.288   0.770  1.6030  0.7453  0.4568
 5173SOL    HW224488   1.374   2.244   0.628 -2.3173  0.0728 -0.2291
 5174SOL     OW24489   1.038  11.413  10.027  0.0558 -0.0987  0.0304
 5174SOL    HW124490   0.983  11.492  10.026  0.5848  0.4445  3.0303
 5174SOL    HW224491   1.093  11.421   9.950 -1.3344  1.4042 -0.8732
 5175SOL     OW24492  12.048   3.358   7.609 -0.0937  0.6302 -0.1220
 5175SOL    HW124493  12.014   3.445   7.634  3.0775  1.6253  1.1808
 5175SOL    HW224494  12.090   3.325   7.688 -1.4565 -2.3434 -0.5009
 5176SOL     OW24495   2.578   3.221  12.180  0.2470  0.4139 -0.5082
 5176SOL    HW124496   2.550   3.210  12.271  0.0674  0.1606 -0.5945
 5176SOL    HW224497   2.576   3.316  12.166 -1.2148  0.3718 -0.7203
 5177SOL     OW24498  10.982   4.060   4.522  0.0239 -0.0152  0.4497
 5177SOL    HW124499  11.049   4.102   4.576 -0.7594 -0.8309  2.1297
 5177SOL    HW224500  10.899   4.087   4.561 -0.5166 -2.5626  1.2325
 5178SOL     OW24501   2.067   6.258   9.416 -0.7092  0.0189 -0.3196
 5178SOL    HW124502   1.992   6.279   9.471 -2.2845  0.0930 -2.4099
 5178SOL    HW224503   2.048   6.298   9.331  1.1391 -0.9430 -1.2589
 5179SOL     OW24504   2.591   8.684   7.986  0.2264  0.1454 -0.2223
 5179SOL    HW124505   2.542   8.708   8.065  0.1961 -1.1340  0.1845
 5179SOL    HW224506   2.526   8.638   7.932  0.9170 -1.5312  0.3029
 5180SOL     OW24507   1.315   5.013   6.120  0.0800  0.0472  0.4594
 5180SOL    HW124508   1.381   5.067   6.077  0.0102  1.0635  1.5634
 5180SOL    HW224509   1.237   5.067   6.123 -0.5819 -0.8486 -0.1144
 5181SOL     OW24510  12.408   3.526   4.954  0.0582  0.6039  0.4364
 5181SOL    HW124511  12.335   3.470   4.929 -0.4332  1.1049  0.7271
 5181SOL    HW224512  12.481   3.466   4.969 -0.2672  0.1100  0.0501
 5182SOL     OW24513   4.523   9.347   7.274 -0.7474  0.2176 -0.5991
 5182SOL    HW124514   4.437   9.363   7.236 -0.1470  1.2246 -1.5888
 5182SOL    HW224515   4.542   9.255   7.253 -2.1204 -0.4332  0.8041
 5183SOL     OW24516  12.475   9.125   8.467  0.0620 -0.4497  0.3245
 5183SOL    HW124517  12.381   9.141   8.467  0.1031 -0.1794  0.9507
 5183SOL    HW224518  12.509   9.178   8.395 -0.2889 -0.7204 -0.0451
 5184SOL     OW24519   2.871  11.900   0.095  0.6407  0.4986  0.2407
 5184SOL    HW124520   2.887  11.962   0.165  3.6998 -0.9357  0.9963
 5184SOL    HW224521   2.958  11.867   0.072 -0.4603 -0.6476 -2.7966
 5185SOL     OW24522  11.255  11.288   5.873 -0.3583  0.1175 -0.0735
 5185SOL    HW124523  11.298  11.203   5.857 -0.8386 -0.3780  1.1146
 5185SOL    HW224524  11.247  11.328   5.786  2.0585  0.0266 -0.4228
 5186SOL     OW24525   8.055   5.020   2.244  0.0289 -0.1630 -0.2066
 5186SOL    HW124526   8.113   5.009   2.320  0.3759 -0.0366 -0.4472
 5186SOL    HW224527   8.090   4.960   2.178 -0.0539 -0.0151 -0.3874
 5187SOL     OW24528   4.161  11.292   8.382 -0.1409  1.0485 -0.2987
 5187SOL    HW124529   4.134  11.375   8.342  0.6227  1.3740 -0.1516
 5187SOL    HW224530   4.256  11.298   8.388 -0.2599  1.5520  2.6569
 5188SOL     OW24531   8.938   2.495   2.239 -0.2216 -0.5749  0.4264
 5188SOL    HW124532   8.935   2.408   2.199 -0.0126 -0.7895  0.8679
 5188SOL    HW224533   8.988   2.548   2.178  0.3291 -0.9693  0.5256
 5189SOL     OW24534   2.430   5.404   3.548  0.2286  0.3428 -0.1650
 5189SOL    HW124535   2.417   5.389   3.642 -0.3037 -1.0917 -0.4522
 5189SOL    HW224536   2.523   5.386   3.534  0.4596  1.2114  0.1924
 5190SOL     OW24537   4.947  10.735   1.377 -0.6897  0.1083  0.1812
 5190SOL    HW124538   4.935  10.823   1.413  0.8383  0.4596 -0.0640
 5190SOL    HW224539   4.878  10.682   1.417 -1.9347  1.5156 -0.0416
 5191SOL     OW24540   9.992   1.685   9.638 -0.5389 -0.0409 -0.3377
 5191SOL    HW124541   9.952   1.624   9.576  1.2838  0.3898 -2.0025
 5191SOL    HW224542   9.930   1.758   9.643 -1.6091 -0.9298 -0.1299
 5192SOL     OW24543   3.243   2.184   8.294 -0.2772  0.1504 -0.1384
 5192SOL    HW124544   3.182   2.169   8.221  0.9045  0.4390 -1.2211
 5192SOL    HW224545   3.257   2.098   8.332 -1.6734  0.1333  0.4169
 5193SOL     OW24546  11.605   4.970   1.431 -0.1341  0.6167  0.3260
 5193SOL    HW124547  11.614   4.901   1.365 -0.1081  1.1030 -0.1935
 5193SOL    HW224548  11.695   4.985   1.462  0.2447  2.0508 -1.2913
 5194SOL     OW24549   5.915   2.902   1.452  0.9097 -0.6044  0.5899
 5194SOL    HW124550   5.899   2.812   1.481  1.9592 -0.5875  1.2912
 5194SOL    HW224551   5.937   2.949   1.533  0.4700  0.2615  0.2138
 5195SOL     OW24552   8.550   8.866   9.289  0.9013 -0.0975 -0.1275
 5195SOL    HW124553   8.590   8.935   9.343  1.3637 -1.4798  1.3475
 5195SOL    HW224554   8.537   8.908   9.204 -0.4283  2.3708  1.1662
 5196SOL     OW24555  12.082   5.410   7.173 -0.2954  0.4095  0.0203
 5196SOL    HW124556  12.158   5.459   7.144  0.4547  0.2005  1.5453
 5196SOL    HW224557  12.118   5.338   7.224 -1.3600 -1.7156 -2.0052
 5197SOL     OW24558   5.389  10.315  11.169 -0.0208 -0.0313 -0.6382
 5197SOL    HW124559   5.370  10.222  11.182  0.6814  0.0084  0.9213
 5197SOL    HW224560   5.303  10.357  11.166 -0.3340 -0.6844 -0.9229
 5198SOL     OW24561  11.374   0.016  10.630 -0.4056 -0.0430 -0.1831
 5198SOL    HW124562  11.443   0.055  10.577  0.4299  0.8141  1.4522
 5198SOL    HW224563  11.309   0.085  10.641  0.3319  0.4574  1.4171
 5199SOL     OW24564   2.960   9.458   3.485  0.1577 -0.0519 -0.1336
 5199SOL    HW124565   2.946   9.489   3.574  0.0323 -1.5989  0.4094
 5199SOL    HW224566   2.874   9.429   3.455  0.1276  0.7853 -0.9078
 5200SOL     OW24567   6.997   8.182   3.153  0.5063  0.0411  0.6763
 5200SOL    HW124568   6.958   8.241   3.089  1.6524  1.6676  1.4186
 5200SOL    HW224569   6.943   8.193   3.232 -2.1832 -3.4723 -0.4462
 5201SOL     OW24570   3.765   8.924   6.997 -0.0076  0.4409 -0.1094
 5201SOL    HW124571   3.820   8.865   7.049 -2.0748 -0.8293  0.7475
 5201SOL    HW224572   3.745   8.996   7.056 -0.2193  0.3178 -0.0315
 5202SOL     OW24573   8.796   9.077   2.729 -0.0428  0.2065  0.2093
 5202SOL    HW124574   8.767   9.128   2.805  0.6805 -0.2599  0.8176
 5202SOL    HW224575   8.871   9.026   2.762  0.4413  0.1851 -0.8796
 5203SOL     OW24576   6.582   5.370  10.381 -0.2572 -0.3141 -0.1652
 5203SOL    HW124577   6.545   5.404  10.462 -0.3293  0.9155 -0.6832
 5203SOL    HW224578   6.677   5.373  10.394 -0.2430  0.7218 -0.4323
 5204SOL     OW24579   6.602   8.947   0.143  0.2944 -0.2195  1.0853
 5204SOL    HW124580   6.678   8.918   0.192  0.8182 -1.1902 -0.2310
 5204SOL    HW224581   6.616   8.913   0.054 -1.6313 -0.3825  0.7882
 5205SOL     OW24582   5.383   2.985   4.258  0.3852  0.1843 -0.0898
 5205SOL    HW124583   5.342   3.047   4.318  0.9254  0.2531  0.2119
 5205SOL    HW224584   5.310   2.931   4.226  0.0616  0.3094  0.4275
 5206SOL     OW24585   1.026   4.110   1.968 -0.0575  0.5732 -0.2941
 5206SOL    HW124586   1.001   4.062   1.889 -0.2924  0.5442 -0.2018
 5206SOL    HW224587   1.054   4.042   2.029 -2.9201  0.2471  0.8158
 5207SOL     OW24588   9.419  11.492   7.151 -0.2226  0.5320  0.0103
 5207SOL    HW124589   9.445  11.403   7.176  2.3662  0.6014 -1.9517
 5207SOL    HW224590   9.338  11.481   7.101 -0.1454 -0.6863  0.1162
 5208SOL     OW24591  10.871   5.012  12.528 -0.5020  0.9793  0.2727
 5208SOL    HW124592  10.891   5.045  12.440 -1.5358 -0.5898 -0.5769
 5208SOL    HW224593  10.950   4.965  12.554 -0.2867  1.2278  0.0799
 5209SOL     OW24594  12.212   0.009   4.374 -0.2915  0.4954  0.1421
 5209SOL    HW124595  12.185   0.053   4.293  0.2058 -0.1254 -0.3691
 5209SOL    HW224596  12.306  -0.001   4.366 -0.3498 -0.3291  0.4202
 5210SOL     OW24597   1.659   6.584   6.183  0.1543  0.0430  0.4056
 5210SOL    HW124598   1.674   6.650   6.250  1.2664 -0.5219  0.7390
 5210SOL    HW224599   1.678   6.628   6.101 -0.0645  0.4036  0.5469
 5211SOL     OW24600  11.258   6.833   4.246  0.1551 -0.0744  0.7956
 5211SOL    HW124601  11.351   6.855   4.258 -0.0178  0.7049  0.7826
 5211SOL    HW224602  11.251   6.742   4.277  0.6076  0.3938  2.3933
 5212SOL     OW24603   3.117   9.048   0.422  0.6408 -0.2473  0.1679
 5212SOL    HW124604   3.151   9.121   0.475  1.5265  0.3818 -1.2185
 5212SOL    HW224605   3.026   9.072   0.406  0.3346 -0.4742  1.4148
 5213SOL     OW24606   8.052   5.668   8.961  0.0425 -0.0646  0.0761
 5213SOL    HW124607   8.098   5.670   8.877 -0.8179  0.4407 -0.3957
 5213SOL    HW224608   8.006   5.585   8.962  0.4714 -0.3050  0.2877
 5214SOL     OW24609   7.346  10.224   9.189  0.4559 -0.5533  0.4325
 5214SOL    HW124610   7.431  10.182   9.177 -0.6786 -2.9305 -0.1113
 5214SOL    HW224611   7.294  10.159   9.236 -1.2755  0.5072  0.0766
 5215SOL     OW24612   7.329   9.498   0.014  0.0524  0.0709 -0.1590
 5215SOL    HW124613   7.333   9.561  -0.058  2.9686 -0.5859 -0.6824
 5215SOL    HW224614   7.292   9.419  -0.026  0.0844  0.2258 -0.4979
 5216SOL     OW24615   7.811   3.049  11.479  0.2713 -0.0904 -0.0736
 5216SOL    HW124616   7.822   3.144  11.479 -1.4557  0.1406  0.2122
 5216SOL    HW224617   7.852   3.020  11.397  2.1121  0.6915  0.5221
 5217SOL     OW24618  11.328   9.278   1.941 -0.0249 -0.2799 -0.0378
 5217SOL    HW124619  11.280   9.357   1.914  1.5085  0.5794 -0.3911
 5217SOL    HW224620  11.354   9.237   1.858  0.6252 -0.2289  0.1367
 5218SOL     OW24621  11.119   3.510   3.704 -0.4254 -0.5319  0.4495
 5218SOL    HW124622  11.087   3.467   3.625 -1.1156 -1.3963  1.1832
 5218SOL    HW224623  11.213   3.494   3.704 -0.2092  0.5525 -0.8335
 5219SOL     OW24624   1.623   2.872   6.129 -0.0460 -0.6572 -0.1604
 5219SOL    HW124625   1.710   2.895   6.096 -0.1330 -0.5379 -0.3067
 5219SOL    HW224626   1.568   2.868   6.051 -0.2758 -0.2705 -0.0204
 5220SOL     OW24627   0.003   8.394   7.063 -0.7095  0.6729  0.4733
 5220SOL    HW124628  -0.071   8.374   7.004 -0.3489  1.2644 -0.2021
 5220SOL    HW224629  -0.018   8.481   7.098 -0.3609  0.8207  0.3173
 5221SOL     OW24630   2.803   7.721   7.797  1.3993 -0.1709 -0.2169
 5221SOL    HW124631   2.723   7.674   7.821  3.1347 -2.3897  1.8184
 5221SOL    HW224632   2.802   7.723   7.702 -1.4200  0.6429 -0.2657
 5222SOL     OW24633   1.667   0.878   7.941  0.3312  0.4202  0.4336
 5222SOL    HW124634   1.598   0.941   7.921 -0.6944 -0.9467 -0.4969
 5222SOL    HW224635   1.659   0.862   8.035 -0.0766  0.9038  0.4852
 5223SOL     OW24636   9.255   0.493   3.136  0.0455  0.1722 -1.0637
 5223SOL    HW124637   9.207   0.568   3.172  0.9357 -0.3108  1.3012
 5223SOL    HW224638   9.275   0.519   3.046 -2.0282  1.6061 -1.1814
 5224SOL     OW24639   5.769   7.266   3.314 -0.5898 -0.1371  0.5533
 5224SOL    HW124640   5.802   7.178   3.293  0.0705  0.6541 -1.9338
 5224SOL    HW224641   5.697   7.249   3.375 -0.4046 -2.3956  0.2570
 5225SOL     OW24642   9.946   7.031  11.696 -0.4370  0.3090 -0.0628
 5225SOL    HW124643  10.009   6.967  11.728 -0.0700  0.4930 -0.4169
 5225SOL    HW224644   9.947   7.101  11.762  1.4166  1.4019 -1.1771
 5226SOL     OW24645   1.158  11.148   5.176  0.3255  0.1687  0.1588
 5226SOL    HW124646   1.181  11.157   5.268  0.0040  0.7732  0.1887
 5226SOL    HW224647   1.234  11.180   5.128  0.3700  0.1490  0.2159
 5227SOL     OW24648   8.494   6.907   4.834  0.8203  0.8780 -0.0313
 5227SOL    HW124649   8.468   6.926   4.924  1.1603  0.7123  0.1037
 5227SOL    HW224650   8.588   6.926   4.831  0.8743  0.5897 -0.2700
 5228SOL     OW24651   6.655   3.363   5.955 -0.0301  0.7680 -0.5010
 5228SOL    HW124652   6.738   3.408   5.969  0.8229 -0.5793 -0.9929
 5228SOL    HW224653   6.645   3.306   6.031  0.0836  0.0941 -0.9778
 5229SOL     OW24654   6.195   7.276   6.753  0.8434 -0.3339 -0.1633
 5229SOL    HW124655   6.186   7.367   6.723  3.3035  0.6163  1.5897
 5229SOL    HW224656   6.234   7.230   6.678  1.5635  0.6000 -0.3863
 5230SOL     OW24657   8.764   0.679  11.040 -0.6850 -0.5052  0.1542
 5230SOL    HW124658   8.737   0.691  10.949 -0.7087 -1.7276 -0.0097
 5230SOL    HW224659   8.859   0.676  11.037 -0.7166 -1.5188  0.0378
 5231SOL     OW24660   0.717   8.124   4.409 -0.4625  0.1497 -0.4803
 5231SOL    HW124661   0.763   8.057   4.460 -2.9479 -1.0828  0.3255
 5231SOL    HW224662   0.678   8.077   4.336  0.6124  1.3935 -1.9185
 5232SOL     OW24663   7.889   3.892   8.180  0.0224  0.3283  0.3328
 5232SOL    HW124664   7.950   3.865   8.249  1.7682 -0.7991 -1.5332
 5232SOL    HW224665   7.926   3.973   8.145 -0.4825  0.5474  0.3108
 5233SOL     OW24666   1.765   6.305   4.935  0.1006 -0.2682  0.1689
 5233SOL    HW124667   1.683   6.328   4.892  0.2144 -0.0131  0.0864
 5233SOL    HW224668   1.794   6.386   4.978 -0.5443 -0.7861  1.6305
 5234SOL     OW24669   0.542   4.027   4.826  0.0507 -0.4583 -0.4340
 5234SOL    HW124670   0.463   4.024   4.772  0.3209 -0.8777 -0.8098
 5234SOL    HW224671   0.511   4.055   4.912 -0.3582  0.3624 -0.8402
 5235SOL     OW24672   2.906  10.684   8.700  0.0098 -0.1972 -0.0325
 5235SOL    HW124673   2.900  10.640   8.784  0.0112  0.4050  0.2905
 5235SOL    HW224674   2.973  10.636   8.651 -0.2195 -0.7391  0.1895
 5236SOL     OW24675   7.954   7.910   1.597 -0.1087 -0.6069  0.2565
 5236SOL    HW124676   7.922   7.853   1.668 -0.0143  0.9543  1.6098
 5236SOL    HW224677   7.894   7.984   1.597  0.2874 -0.2745 -0.8981
 5237SOL     OW24678   2.401   3.196   9.109 -0.3176 -0.1215  0.4053
 5237SOL    HW124679   2.427   3.222   9.198 -1.6652  0.3607  0.6716
 5237SOL    HW224680   2.317   3.151   9.120 -0.7616  0.4106 -0.6804
 5238SOL     OW24681   8.779  12.597  10.941  0.8676  0.2662  0.1610
 5238SOL    HW124682   8.719  12.657  10.985  0.7999 -0.4343  1.0396
 5238SOL    HW224683   8.724  12.546  10.882  0.2565 -1.5071  2.1343
 5239SOL     OW24684   5.503   8.364  11.896 -0.6259  0.1450 -0.1543
 5239SOL    HW124685   5.574   8.315  11.937 -1.8245 -0.1090  1.7216
 5239SOL    HW224686   5.469   8.420  11.965 -2.4013  0.0888 -0.9285
 5240SOL     OW24687   0.904  10.727   7.424 -0.3338  0.0180  0.0881
 5240SOL    HW124688   0.860  10.766   7.349  0.6531 -1.0971 -1.1365
 5240SOL    HW224689   0.934  10.802   7.477  0.3181  0.9010 -1.4650
 5241SOL     OW24690  12.280   2.183  10.822  0.1429  0.4465 -0.4984
 5241SOL    HW124691  12.314   2.271  10.808  1.3216 -0.0317 -0.7827
 5241SOL    HW224692  12.357   2.129  10.838 -0.7220  0.1639  4.1505
 5242SOL     OW24693   4.004  11.682   1.394 -0.3343 -0.1146  0.1184
 5242SOL    HW124694   4.020  11.774   1.372  0.0006  0.1040  1.2038
 5242SOL    HW224695   4.026  11.634   1.314 -1.3886  0.8121 -0.7646
 5243SOL     OW24696   2.083   9.452   5.103 -0.3729  0.4323 -0.1004
 5243SOL    HW124697   2.139   9.379   5.075  1.4891  1.4654  0.7255
 5243SOL    HW224698   2.004   9.410   5.136  0.9270 -1.3082  1.0226
 5244SOL     OW24699   5.231   1.700  12.595 -0.5199  0.4552  0.1858
 5244SOL    HW124700   5.291   1.725  12.665  1.8330 -1.2740 -1.0943
 5244SOL    HW224701   5.216   1.606  12.609 -1.7728  0.5463 -0.4022
 5245SOL     OW24702  10.924   9.715   5.309  0.4133 -0.0894  0.4511
 5245SOL    HW124703  11.018   9.717   5.292  0.5383  0.8730  1.1704
 5245SOL    HW224704  10.914   9.755   5.396 -0.8052  1.3629 -0.3176
 5246SOL     OW24705   9.546   2.388   8.032 -0.2223  0.5265  0.4963
 5246SOL    HW124706   9.559   2.329   8.106 -0.6927  1.0758  1.0250
 5246SOL    HW224707   9.610   2.457   8.044  1.3975 -0.6337 -0.9615
 5247SOL     OW24708   7.586   0.094   6.242  0.3644 -0.5954  0.1057
 5247SOL    HW124709   7.597   0.118   6.150 -0.1356 -0.8747 -0.0319
 5247SOL    HW224710   7.676   0.086   6.276  0.5676  1.7332  0.2516
 5248SOL     OW24711   8.321  11.653   2.020  0.1640 -0.1019  0.2517
 5248SOL    HW124712   8.252  11.632   2.083  0.1654  0.5637  0.4792
 5248SOL    HW224713   8.339  11.746   2.034  1.6221 -0.4355  0.6853
 5249SOL     OW24714  12.292   3.964   4.465 -0.3507  0.4063 -0.1825
 5249SOL    HW124715  12.383   3.935   4.469 -0.3172  0.2445 -1.4765
 5249SOL    HW224716  12.256   3.918   4.389 -1.3544  0.9096 -0.0321
 5250SOL     OW24717   8.798  10.415   3.633 -0.3275  0.5277  0.3999
 5250SOL    HW124718   8.710  10.428   3.667 -0.9946 -1.3833 -0.4815
 5250SOL    HW224719   8.786  10.391   3.541  1.0791 -0.0325  0.3277
 5251SOL     OW24720  10.683   5.154   6.699 -0.4349 -0.5554  0.4223
 5251SOL    HW124721  10.698   5.178   6.790 -0.8258  1.5354 -0.0204
 5251SOL    HW224722  10.589   5.133   6.695 -0.5285 -0.1473  0.4121
 5252SOL     OW24723   7.097  11.602   6.157  0.6863  0.0098  0.6400
 5252SOL    HW124724   7.156  11.669   6.194  2.2011  0.4051 -2.1593
 5252SOL    HW224725   7.066  11.641   6.075  0.5221 -2.1627 -0.3982
 5253SOL     OW24726  10.489   0.867   6.282 -0.3613  0.2904  0.3044
 5253SOL    HW124727  10.493   0.783   6.329  0.4728 -0.0169 -0.3103
 5253SOL    HW224728  10.397   0.875   6.256 -0.2274 -1.0312 -0.6817
 5254SOL     OW24729   0.725   0.363  12.160  0.1505  0.2471  0.1284
 5254SOL    HW124730   0.703   0.456  12.152 -0.4313  0.1588  0.5432
 5254SOL    HW224731   0.820   0.361  12.169  0.3919  0.6476 -1.8763
 5255SOL     OW24732   8.974   9.027   0.669  0.1009 -0.2350  0.3122
 5255SOL    HW124733   9.063   9.060   0.656  0.5064 -1.4918 -0.2819
 5255SOL    HW224734   8.970   8.947   0.616 -1.9418  0.6822 -1.0201
 5256SOL     OW24735   1.430   9.205  10.186  0.8249 -0.0511 -0.1436
 5256SOL    HW124736   1.502   9.259  10.154 -0.1559  0.7291 -1.1568
 5256SOL    HW224737   1.446   9.118  10.150  2.0619 -0.3001  0.9398
 5257SOL     OW24738  12.492  10.985   0.331 -0.6008 -0.5877  0.0870
 5257SOL    HW124739  12.435  11.045   0.283  1.2920  1.7059  0.5410
 5257SOL    HW224740  12.439  10.955   0.405 -1.2623  1.5042  0.5158
 5258SOL     OW24741  11.408  11.616  11.926  0.2600  0.1073  0.3086
 5258SOL    HW124742  11.416  11.582  11.837 -1.0595  0.8262 -0.1119
 5258SOL    HW224743  11.354  11.550  11.972 -0.3857  0.4989  0.1245
 5259SOL     OW24744  11.682   8.840   3.710  0.7784  0.6148 -0.3607
 5259SOL    HW124745  11.618   8.800   3.650  1.4063  1.2535 -1.4930
 5259SOL    HW224746  11.695   8.774   3.778 -1.0840  0.4668 -0.0951
 5260SOL     OW24747   3.162  11.097   5.481  0.8613 -0.5510  0.0347
 5260SOL    HW124748   3.171  11.061   5.569  2.0392  0.1355  0.2152
 5260SOL    HW224749   3.241  11.069   5.434  0.6982 -0.1321 -0.5127
 5261SOL     OW24750   1.707   0.891  11.760 -0.2898  0.3457  0.0083
 5261SOL    HW124751   1.708   0.843  11.842 -2.4188  0.9653  0.4844
 5261SOL    HW224752   1.749   0.833  11.697  1.4249 -0.1227  1.5207
 5262SOL     OW24753   2.550   8.258   1.232 -0.5505  0.2041  0.6756
 5262SOL    HW124754   2.529   8.315   1.306  1.7585  1.3485  0.5481
 5262SOL    HW224755   2.602   8.187   1.270 -0.4234  0.1027  0.3186
 5263SOL     OW24756   3.643   4.171   5.512  0.1146  0.1265  0.2270
 5263SOL    HW124757   3.602   4.202   5.593  0.2361  1.6895 -0.2661
 5263SOL    HW224758   3.575   4.183   5.445  0.2386 -0.5254 -0.0188
 5264SOL     OW24759   6.155   2.193   8.440 -0.4411  0.0067 -0.2564
 5264SOL    HW124760   6.242   2.227   8.420 -1.0523  1.6843 -0.2014
 5264SOL    HW224761   6.101   2.271   8.450 -2.0715 -1.0206 -0.7991
 5265SOL     OW24762  10.483  12.504   2.655  0.6227 -0.0054 -0.4672
 5265SOL    HW124763  10.529  12.487   2.737  0.9317  0.1145 -0.6163
 5265SOL    HW224764  10.543  12.559   2.604 -0.1239  1.0638 -0.2325
 5266SOL     OW24765  10.909   8.457  11.357  0.6627 -0.1442  0.4188
 5266SOL    HW124766  10.947   8.420  11.437 -0.8122 -0.7863  0.8528
 5266SOL    HW224767  10.819   8.425  11.356  0.6325 -0.0902 -1.4878
 5267SOL     OW24768   9.846   6.831   8.038 -0.6776 -0.1301 -0.0823
 5267SOL    HW124769   9.799   6.753   8.011 -2.2985  0.6801  0.2305
 5267SOL    HW224770   9.820   6.844   8.130 -0.4768  0.7663 -0.1366
 5268SOL     OW24771   7.257   8.142   9.401  0.4127  0.3378  0.3451
 5268SOL    HW124772   7.247   8.232   9.430  1.0560  0.8468 -0.9410
 5268SOL    HW224773   7.268   8.092   9.482  0.6410  1.4833  1.0445
 5269SOL     OW24774   9.274   7.805  10.606  0.4012  0.1068  0.2582
 5269SOL    HW124775   9.195   7.790  10.555  0.7689 -0.9598 -0.0146
 5269SOL    HW224776   9.288   7.723  10.654  0.9977  0.5031  0.7814
 5270SOL     OW24777   8.633   9.095   9.411  0.4598  0.0526 -0.0451
 5270SOL    HW124778   8.693   9.167   9.391 -0.2674  1.1352  1.4714
 5270SOL    HW224779   8.638   9.086   9.506 -0.1841 -1.2771 -0.1191
 5271SOL     OW24780   2.644   6.385  11.472 -0.1948  0.1904  0.1166
 5271SOL    HW124781   2.674   6.322  11.406  0.3933  0.2178  0.3520
 5271SOL    HW224782   2.564   6.346  11.506 -0.1078 -0.1881 -0.0941
 5272SOL     OW24783   5.372   3.761   2.269  0.1508  0.4193  0.2050
 5272SOL    HW124784   5.338   3.735   2.354  0.0991  2.1543  0.7488
 5272SOL    HW224785   5.467   3.756   2.278  0.1412  0.4041  0.2981
 5273SOL     OW24786  12.550   5.260   7.194  0.2470 -0.4547 -0.5612
 5273SOL    HW124787  12.635   5.264   7.239  1.0114  2.5845 -2.0573
 5273SOL    HW224788  12.486   5.284   7.261  0.4506 -2.7012  0.5625
 5274SOL     OW24789   5.949  10.886   2.794 -0.1019  0.0147  0.0296
 5274SOL    HW124790   5.919  10.862   2.881  0.7242 -1.1171  0.0333
 5274SOL    HW224791   6.043  10.866   2.795 -0.1904 -0.6063 -1.2990
 5275SOL     OW24792   9.562   7.792   8.722  0.5422 -0.3868  0.1673
 5275SOL    HW124793   9.568   7.866   8.782  0.7577  0.4546 -0.8642
 5275SOL    HW224794   9.477   7.802   8.680  0.8787 -0.3016 -0.5051
 5276SOL     OW24795   9.776   4.405  11.578 -0.3638  0.2202 -0.7542
 5276SOL    HW124796   9.696   4.403  11.630 -0.9837 -0.1721 -1.6926
 5276SOL    HW224797   9.822   4.324  11.602 -0.8509 -0.1707 -1.1101
 5277SOL     OW24798   2.819  10.426   9.088  0.6015 -0.5957  0.3599
 5277SOL    HW124799   2.846  10.421   8.996 -1.1874 -1.2190 -0.1652
 5277SOL    HW224800   2.815  10.335   9.117 -1.1893 -0.5661  0.3026
 5278SOL     OW24801  11.533  10.428   4.416 -0.1115 -0.7188 -0.1218
 5278SOL    HW124802  11.544  10.355   4.355  0.5417  0.6661 -1.7463
 5278SOL    HW224803  11.622  10.462   4.429 -0.4005 -0.2126  0.5821
 5279SOL     OW24804  10.591   8.825  11.584  0.0811 -0.3377  0.1841
 5279SOL    HW124805  10.666   8.831  11.643  0.7283  1.2987 -0.7484
 5279SOL    HW224806  10.611   8.751  11.527  1.2902  0.4775 -0.4606
 5280SOL     OW24807  12.346   3.283   0.155 -0.0104  0.0466  0.6777
 5280SOL    HW124808  12.319   3.373   0.172 -1.7873 -0.2297 -0.4077
 5280SOL    HW224809  12.358   3.245   0.242  2.4817  1.7500  1.1826
 5281SOL     OW24810   5.679   8.027   1.018 -0.0191  0.4679  0.4922
 5281SOL    HW124811   5.637   8.074   0.946  0.6440 -0.3496 -0.4475
 5281SOL    HW224812   5.674   8.088   1.092 -0.1742  1.5656 -0.4006
 5282SOL     OW24813   6.759  11.262   5.075 -0.2160  0.7886 -0.0866
 5282SOL    HW124814   6.738  11.169   5.063 -0.0503  0.4149  2.1387
 5282SOL    HW224815   6.798  11.288   4.992  1.9868 -1.7677  0.0086
 5283SOL     OW24816  10.519   2.633  10.950 -0.5132  0.1711 -0.3772
 5283SOL    HW124817  10.539   2.678  11.032 -3.0125 -1.7659  1.4463
 5283SOL    HW224818  10.574   2.555  10.951  0.1559  0.6282 -1.0444
 5284SOL     OW24819   8.397   1.363   1.131 -0.2351  0.1900  0.0270
 5284SOL    HW124820   8.395   1.276   1.171  0.0703 -0.4849 -1.3709
 5284SOL    HW224821   8.308   1.396   1.142  0.0536  0.4102  2.0202
 5285SOL     OW24822   7.922   9.557   6.867 -0.1221  0.0741 -0.0714
 5285SOL    HW124823   7.966   9.636   6.834 -0.1457  0.0892 -0.0678
 5285SOL    HW224824   7.985   9.486   6.852  0.0967  0.1683  0.3748
 5286SOL     OW24825   0.756  10.502   6.076 -0.4755 -0.0075  0.3165
 5286SOL    HW124826   0.676  10.476   6.030  0.9054 -3.0079 -0.7063
 5286SOL    HW224827   0.752  10.455   6.160  0.4915 -0.7988 -0.0565
 5287SOL     OW24828   8.868   4.020   9.431  0.3895 -0.5074 -0.3745
 5287SOL    HW124829   8.849   4.043   9.340 -1.9023  0.3862  0.2677
 5287SOL    HW224830   8.910   4.097   9.468  0.4649 -0.5289 -0.4140
 5288SOL     OW24831   6.066   6.775   2.694  0.1206 -0.0140 -0.4451
 5288SOL    HW124832   5.975   6.773   2.663 -0.5706  1.9847  1.1667
 5288SOL    HW224833   6.075   6.862   2.735  2.6780 -0.2731 -0.2843
 5289SOL     OW24834  12.391   2.868  12.133 -0.2682 -0.3315  0.1764
 5289SOL    HW124835  12.417   2.959  12.143 -1.3419  0.1003 -0.7720
 5289SOL    HW224836  12.321   2.855  12.198  0.0798 -0.5759  0.5106
 5290SOL     OW24837   0.550   3.989   8.097 -0.1440  0.6844  0.0778
 5290SOL    HW124838   0.566   3.937   8.176 -2.4933  1.0717  0.8852
 5290SOL    HW224839   0.516   3.927   8.033 -0.7730  0.8185  0.2761
 5291SOL     OW24840   0.265  10.994   0.892  0.3424 -0.3956  0.0861
 5291SOL    HW124841   0.267  11.015   0.985  0.1220 -1.6342  0.3904
 5291SOL    HW224842   0.353  10.960   0.874  0.7779  0.9336 -0.4554
 5292SOL     OW24843   5.833   3.133   2.246 -0.0376 -0.0140  0.6595
 5292SOL    HW124844   5.863   3.224   2.243  0.6876 -0.2650 -0.0839
 5292SOL    HW224845   5.774   3.130   2.321 -1.2052  1.3918 -0.1587
 5293SOL     OW24846   8.755   5.927   7.228  0.8311 -0.3923 -0.2038
 5293SOL    HW124847   8.835   5.896   7.271  0.3966  0.3384  1.2365
 5293SOL    HW224848   8.711   5.980   7.296 -0.5022 -0.1691 -1.1959
 5294SOL     OW24849   5.147   5.469   1.653  0.8678 -0.3342 -0.1874
 5294SOL    HW124850   5.144   5.517   1.736  0.3251 -1.6264  0.5791
 5294SOL    HW224851   5.088   5.518   1.595  0.5458  0.0900  0.4788
 5295SOL     OW24852  10.353   2.341   3.102 -0.1874  0.0415  0.3846
 5295SOL    HW124853  10.352   2.436   3.095  1.5808  0.0883  0.4404
 5295SOL    HW224854  10.415   2.312   3.034 -0.2787 -1.0307  0.7303
 5296SOL     OW24855   5.530   0.023  11.505 -0.3026 -0.1291  0.0170
 5296SOL    HW124856   5.480  -0.009  11.580  0.6399  0.4200  0.9044
 5296SOL    HW224857   5.579  -0.053  11.475  3.3872  0.6372  3.2766
 5297SOL     OW24858  10.722  12.015   7.748  0.0879 -0.0724 -0.5349
 5297SOL    HW124859  10.701  11.984   7.660  0.8446  0.2509 -0.8408
 5297SOL    HW224860  10.706  11.940   7.805 -0.8708 -0.1354 -0.8809
 5298SOL     OW24861   6.531   3.577  11.075 -0.2349  0.4469  0.3261
 5298SOL    HW124862   6.606   3.544  11.124 -0.5134  1.3027  1.3552
 5298SOL    HW224863   6.570   3.634  11.008  0.1193 -0.4246 -0.2342
 5299SOL     OW24864  10.243   1.368   4.591  0.3102  0.1347  0.4485
 5299SOL    HW124865  10.234   1.323   4.506 -0.2558 -0.3342  0.7431
 5299SOL    HW224866  10.227   1.299   4.656 -0.6937  0.7780  0.9131
 5300SOL     OW24867   0.056   2.782   7.788 -0.5148  0.0869 -0.2241
 5300SOL    HW124868   0.019   2.815   7.870 -2.2214  1.4818 -1.4528
 5300SOL    HW224869   0.108   2.706   7.813  1.3440  2.0812  2.4676
 5301SOL     OW24870  12.065   6.341  10.652  0.5068 -0.2181 -0.5972
 5301SOL    HW124871  11.999   6.313  10.589 -0.4349 -0.8221  0.6052
 5301SOL    HW224872  12.055   6.436  10.657 -0.9971 -0.4022  0.3169
 5302SOL     OW24873   5.827   1.775   7.978 -0.1722  0.5595  0.2187
 5302SOL    HW124874   5.732   1.768   7.974 -0.2468  1.1830  0.6273
 5302SOL    HW224875   5.847   1.853   7.925  0.0087  1.0202  0.9452
 5303SOL     OW24876  11.043   1.151   5.644  0.7964  0.0152 -0.8097
 5303SOL    HW124877  11.016   1.164   5.553 -1.7419 -0.9726 -0.2968
 5303SOL    HW224878  11.007   1.065   5.667  0.8120  0.5213  1.2978
 5304SOL     OW24879   6.571   4.751  11.681 -0.7067 -0.2762 -0.0080
 5304SOL    HW124880   6.616   4.727  11.761 -1.0910 -0.0387  0.2854
 5304SOL    HW224881   6.515   4.825  11.706 -1.6260 -0.8702 -0.2394
 5305SOL     OW24882   2.040   2.412   2.711 -0.0825 -0.3972 -0.6003
 5305SOL    HW124883   1.947   2.423   2.730 -0.1520  1.3067 -1.6718
 5305SOL    HW224884   2.045   2.330   2.663 -0.9887 -0.6776 -0.2239
 5306SOL     OW24885  12.295   3.429   9.224  0.1973  0.3995 -0.1506
 5306SOL    HW124886  12.364   3.417   9.289 -0.3786  0.9168  0.5755
 5306SOL    HW224887  12.324   3.503   9.170  1.3120 -0.8714 -1.3645
 5307SOL     OW24888   5.058   2.805   3.751 -0.4047 -0.6229 -0.0597
 5307SOL    HW124889   5.008   2.817   3.670 -0.2824 -1.4137 -0.2622
 5307SOL    HW224890   4.993   2.775   3.814 -0.3597 -0.7476 -0.0725
 5308SOL     OW24891   3.118   9.683   1.603 -0.2403  0.1568  0.3827
 5308SOL    HW124892   3.073   9.599   1.604 -0.5673  0.2486  4.0772
 5308SOL    HW224893   3.211   9.661   1.613 -0.2753  0.2118  0.8365
 5309SOL     OW24894   2.632   8.441  12.018 -0.3017  0.5761  0.0986
 5309SOL    HW124895   2.685   8.480  12.088 -1.1299  0.6487  0.6947
 5309SOL    HW224896   2.598   8.360  12.056 -0.0551  0.1641 -0.5275
 5310SOL     OW24897  11.846   5.332   4.096  0.0242 -0.2965 -0.2571
 5310SOL    HW124898  11.936   5.352   4.120 -0.2594 -0.2770  0.8535
 5310SOL    HW224899  11.808   5.417   4.072  0.1766 -0.2297 -0.2609
 5311SOL     OW24900   9.436   5.275   9.681  0.2547 -0.2435  0.4701
 5311SOL    HW124901   9.505   5.263   9.616  1.7296  1.0557  1.7139
 5311SOL    HW224902   9.473   5.242   9.762 -0.4760  0.7247  1.2248
 5312SOL     OW24903   7.297   2.123   6.476 -0.8959 -0.6891 -0.0523
 5312SOL    HW124904   7.347   2.100   6.398  0.1227 -0.0835  0.4010
 5312SOL    HW224905   7.206   2.130   6.446 -0.6999 -1.6738 -0.9181
 5313SOL     OW24906  10.381   7.482  11.360  0.1855  0.1626  0.0306
 5313SOL    HW124907  10.432   7.414  11.316 -0.3328 -0.5692  0.5596
 5313SOL    HW224908  10.441   7.557  11.364  1.4502 -0.8546  1.1315
 5314SOL     OW24909   7.780   2.932   0.200  0.3720  0.2053 -0.1067
 5314SOL    HW124910   7.806   3.024   0.194 -0.1048  0.2830 -1.2906
 5314SOL    HW224911   7.857   2.884   0.169  0.1884  0.2807 -0.6981
 5315SOL     OW24912   9.504   5.370   6.626  0.2058 -0.3191 -0.5077
 5315SOL    HW124913   9.547   5.334   6.549 -0.1556 -0.4283 -0.6621
 5315SOL    HW224914   9.433   5.423   6.591  0.6752  0.4788 -0.2781
 5316SOL     OW24915   6.364   2.753   7.936  0.7061 -0.1840  0.3072
 5316SOL    HW124916   6.333   2.780   7.849  0.1140 -0.1921  0.5089
 5316SOL    HW224917   6.354   2.658   7.937  0.4578 -0.1594  0.4722
 5317SOL     OW24918   5.942   5.463   9.345 -0.0190  0.7453 -0.2351
 5317SOL    HW124919   6.030   5.432   9.322  0.8438  0.8377  2.6010
 5317SOL    HW224920   5.949   5.490   9.436 -2.4055  3.1568 -0.6506
 5318SOL     OW24921   9.779   1.094   4.697  0.8201  0.0566  0.2755
 5318SOL    HW124922   9.763   1.088   4.602  0.5028 -0.1381  0.3401
 5318SOL    HW224923   9.704   1.051   4.737 -0.4873  2.5487  0.7008
 5319SOL     OW24924   2.194  10.501   2.370  0.1116 -0.3394 -0.4694
 5319SOL    HW124925   2.231  10.417   2.342 -2.1687 -1.0790 -1.5987
 5319SOL    HW224926   2.242  10.567   2.320  3.0670 -0.7112  1.6190
 5320SOL     OW24927   6.118   7.937  12.219 -0.0429 -0.5341 -0.2012
 5320SOL    HW124928   6.066   7.991  12.278 -1.6196 -1.3142 -0.8125
 5320SOL    HW224929   6.090   7.847  12.237 -0.5421 -0.7955 -2.0857
 5321SOL     OW24930   4.714   4.979   8.441 -0.0479 -0.0003 -0.1650
 5321SOL    HW124931   4.727   4.884   8.440 -1.7209 -0.2783 -1.4362
 5321SOL    HW224932   4.724   5.006   8.350 -2.6599  0.4758 -0.4163
 5322SOL     OW24933   9.960   2.150  12.069 -0.1451  0.2435  0.0359
 5322SOL    HW124934   9.982   2.111  12.153 -1.8291 -2.0583 -0.5008
 5322SOL    HW224935   9.925   2.236  12.091 -1.6166 -0.7518  1.8347
 5323SOL     OW24936   3.248   7.125   3.525 -0.0570  0.2500  0.3649
 5323SOL    HW124937   3.323   7.151   3.472  0.3114 -0.3046  0.6156
 5323SOL    HW224938   3.285   7.093   3.607 -0.4418 -1.8211 -0.2237
 5324SOL     OW24939   3.208   8.677   5.556 -0.1898 -0.2132  0.5375
 5324SOL    HW124940   3.275   8.675   5.625  0.5727 -0.8770 -0.1992
 5324SOL    HW224941   3.181   8.769   5.552 -0.6302 -0.2465  2.0574
 5325SOL     OW24942  11.522   4.152  10.547  0.3748  0.1945 -0.1008
 5325SOL    HW124943  11.517   4.102  10.628 -0.0473 -1.9345 -1.3577
 5325SOL    HW224944  11.604   4.201  10.554  0.0582  0.5273  1.8258
 5326SOL     OW24945   6.960   2.433   3.167  0.7874 -0.2431  0.0391
 5326SOL    HW124946   6.914   2.377   3.105 -2.3315 -1.3008  3.0195
 5326SOL    HW224947   7.007   2.496   3.112 -1.3021 -1.3663 -3.3579
 5327SOL     OW24948   3.186   2.921   5.774  0.0009 -0.0056 -0.7114
 5327SOL    HW124949   3.232   2.843   5.804 -2.5379 -1.3467 -0.0484
 5327SOL    HW224950   3.247   2.993   5.791  1.5743 -1.5793  0.6866
 5328SOL     OW24951   3.613   1.893   7.090  0.3213  0.0055  0.5905
 5328SOL    HW124952   3.671   1.843   7.148  1.4482  2.3476  1.6263
 5328SOL    HW224953   3.525   1.874   7.122  0.7320 -1.0182  1.1568
 5329SOL     OW24954   1.607   2.446   6.567  0.1747  0.1370 -0.1538
 5329SOL    HW124955   1.584   2.423   6.476  0.5158 -0.7919 -0.0214
 5329SOL    HW224956   1.680   2.388   6.588 -1.3592 -1.3501  1.4640
 5330SOL     OW24957  10.463   8.932   5.175 -0.9110  0.9553  0.4713
 5330SOL    HW124958  10.499   8.933   5.263  1.8396  0.2440 -0.5118
 5330SOL    HW224959  10.502   9.009   5.132  1.6249 -1.1097 -1.3178
 5331SOL     OW24960   8.055  10.036   8.004 -0.1659  0.7061  0.0085
 5331SOL    HW124961   8.111   9.990   7.941  0.1727  0.1905  0.6706
 5331SOL    HW224962   8.117  10.088   8.055  0.2455 -2.3502  2.9464
 5332SOL     OW24963   0.758  11.922   3.259  0.3074  0.1809  0.6282
 5332SOL    HW124964   0.703  11.911   3.182 -1.7602  1.5251  1.8105
 5332SOL    HW224965   0.846  11.936   3.224 -0.7814  2.2369 -1.5812
 5333SOL     OW24966   3.424   6.140   0.952  0.1199  0.0224 -0.0175
 5333SOL    HW124967   3.386   6.133   0.865  0.7751  1.6867 -0.4667
 5333SOL    HW224968   3.513   6.172   0.938  0.2383  0.3310  1.2612
 5334SOL     OW24969   0.134  11.668   6.632  0.1072  0.0970  0.2588
 5334SOL    HW124970   0.211  11.723   6.647  1.4671 -1.9162  1.1373
 5334SOL    HW224971   0.117  11.626   6.717  0.0479 -1.8929 -0.6656
 5335SOL     OW24972   1.588   9.106   8.179  0.0399 -0.2927  0.2290
 5335SOL    HW124973   1.625   9.088   8.093  0.0797 -1.3297  0.4460
 5335SOL    HW224974   1.503   9.147   8.161 -0.3287 -1.2645 -0.3223
 5336SOL     OW24975  11.899   7.721   9.280 -0.0937 -0.1814  0.1759
 5336SOL    HW124976  11.870   7.781   9.211 -1.7884 -1.4813 -0.3053
 5336SOL    HW224977  11.920   7.640   9.234 -1.9338 -1.3061  1.2114
 5337SOL     OW24978   7.562   9.093  11.181 -0.3581  0.0770 -0.7712
 5337SOL    HW124979   7.503   9.076  11.108  0.2684  0.3606 -1.3521
 5337SOL    HW224980   7.649   9.099  11.141  0.3497 -2.1372  0.2736
 5338SOL     OW24981   7.609   5.941   1.024  0.4563 -0.1294  0.4226
 5338SOL    HW124982   7.540   5.901   1.076  0.2875  0.5425  0.7188
 5338SOL    HW224983   7.592   5.911   0.935 -1.3441  1.5154  0.1661
 5339SOL     OW24984   7.996   9.759  11.597 -0.0041  0.2138 -0.5342
 5339SOL    HW124985   8.016   9.698  11.526  2.1718 -1.2971  1.2269
 5339SOL    HW224986   7.960   9.704  11.667  0.5196  1.1478  0.5196
 5340SOL     OW24987   4.812   8.101   1.224  0.1305  0.3967 -0.1017
 5340SOL    HW124988   4.778   8.013   1.205  2.0919 -0.2642 -0.8416
 5340SOL    HW224989   4.809   8.108   1.320 -1.6230  0.2175 -0.1214
 5341SOL     OW24990   6.802  11.021  10.186 -0.0539  0.1817 -0.2514
 5341SOL    HW124991   6.869  11.046  10.250  1.5749 -0.4405 -1.6486
 5341SOL    HW224992   6.763  10.942  10.222  0.8121 -0.1395  0.0144
 5342SOL     OW24993   3.196   0.546   1.883 -0.0897 -0.3536  0.0736
 5342SOL    HW124994   3.112   0.589   1.899  0.1247 -0.0768  0.4555
 5342SOL    HW224995   3.234   0.533   1.970  0.3964 -0.2157 -0.1150
 5343SOL     OW24996   6.190   9.249   9.373 -0.1708 -0.2315  0.4641
 5343SOL    HW124997   6.225   9.161   9.356  0.1871  0.0727 -0.4877
 5343SOL    HW224998   6.259   9.292   9.423 -0.0601 -0.2849  0.3599
 5344SOL     OW24999   8.147  11.642   2.875 -0.2562  0.1051  0.2490
 5344SOL    HW125000   8.204  11.572   2.842 -2.0031 -0.7926 -1.0829
 5344SOL    HW225001   8.144  11.705   2.803  1.0256  1.4463  1.3089
 5345SOL     OW25002   7.147   4.651  12.408  0.0051  0.2093 -0.5335
 5345SOL    HW125003   7.225   4.653  12.463  0.1630  0.6933 -0.7687
 5345SOL    HW225004   7.161   4.720  12.343 -0.5624  0.2239 -0.6514
 5346SOL     OW25005  12.543   8.802   4.385 -0.0502 -0.7485 -0.1136
 5346SOL    HW125006  12.594   8.800   4.466  0.4762 -0.8594 -0.4436
 5346SOL    HW225007  12.513   8.892   4.378  1.6351 -0.2124 -0.8539
 5347SOL     OW25008   2.337  10.408   4.338 -0.0369  0.3996 -0.0609
 5347SOL    HW125009   2.371  10.325   4.304 -0.6967 -0.2516  0.8351
 5347SOL    HW225010   2.338  10.466   4.262 -0.4711 -0.7067 -0.9451
 5348SOL     OW25011   8.705  10.020   6.285  0.0747  0.1952 -0.0544
 5348SOL    HW125012   8.744   9.961   6.349 -1.7750 -0.4707  0.5181
 5348SOL    HW225013   8.780  10.066   6.247  1.4472 -1.3759  0.5959
 5349SOL     OW25014  10.756   6.194   3.501  0.5589  0.5390  0.2653
 5349SOL    HW125015  10.811   6.244   3.561 -0.4232  1.4233  0.4614
 5349SOL    HW225016  10.764   6.240   3.417 -0.3731  1.0629  0.4538
 5350SOL     OW25017   6.949   8.048  10.284 -0.3197 -0.9250 -0.3989
 5350SOL    HW125018   6.892   8.086  10.351 -0.2381  0.2705 -0.9848
 5350SOL    HW225019   7.017   8.114  10.270  0.9315 -2.0909 -0.1091
 5351SOL     OW25020   9.580   8.900   8.781  0.1287 -0.1138  0.0200
 5351SOL    HW125021   9.596   8.835   8.849  2.5155  1.0428  0.6628
 5351SOL    HW225022   9.612   8.858   8.701  2.6937  0.5612  0.6060
 5352SOL     OW25023   5.462   1.997   2.010 -0.6199  0.0650 -0.1244
 5352SOL    HW125024   5.490   2.033   1.926 -0.5335 -3.2805 -1.7055
 5352SOL    HW225025   5.538   2.006   2.067  0.7082 -0.9532 -1.6378
 5353SOL     OW25026   5.845   6.156   5.126 -0.7658 -0.1828  0.2644
 5353SOL    HW125027   5.863   6.124   5.214  0.6632  0.7605  0.3486
 5353SOL    HW225028   5.762   6.204   5.134 -0.2821  0.5158  1.2801
 5354SOL     OW25029   8.152   1.722   9.684 -0.3795 -1.0088 -0.2735
 5354SOL    HW125030   8.069   1.688   9.651  0.4933 -3.5760 -0.0577
 5354SOL    HW225031   8.149   1.815   9.665 -3.8234 -0.7506  0.8359
 5355SOL     OW25032   8.762   7.068  11.431 -0.0449 -0.8608 -0.2623
 5355SOL    HW125033   8.726   6.991  11.388  0.5704 -1.2087 -0.1763
 5355SOL    HW225034   8.793   7.124  11.360 -0.1154 -0.8844 -0.3111
 5356SOL     OW25035   2.188   0.187   7.196 -0.7267  0.2181  0.3923
 5356SOL    HW125036   2.191   0.245   7.121  2.6532  1.1113  1.0461
 5356SOL    HW225037   2.183   0.099   7.159 -1.0876  0.7160 -0.7729
 5357SOL     OW25038   6.862   2.777   3.840 -0.0563  0.1588 -0.0146
 5357SOL    HW125039   6.810   2.772   3.921  0.3460 -1.2626  0.1839
 5357SOL    HW225040   6.825   2.851   3.792 -1.7787 -0.3481  0.4632
 5358SOL     OW25041   0.241   5.496   1.469  0.9021 -0.0916  0.1907
 5358SOL    HW125042   0.150   5.471   1.452  0.3862  0.3931  2.1020
 5358SOL    HW225043   0.282   5.497   1.382 -1.7892  3.1740 -1.2424
 5359SOL     OW25044   8.749   3.713  11.239 -0.0327  0.3324 -0.1050
 5359SOL    HW125045   8.738   3.798  11.197 -0.7788  0.3820  0.1644
 5359SOL    HW225046   8.834   3.718  11.281  0.2831  0.6495 -0.7639
 5360SOL     OW25047   0.515   1.179  11.199 -0.2810 -0.0799  0.4919
 5360SOL    HW125048   0.513   1.248  11.133 -0.6584 -0.9862 -0.4583
 5360SOL    HW225049   0.608   1.158  11.208 -0.2850 -0.4754 -0.3148
 5361SOL     OW25050   2.957   2.437   3.117 -0.0633  0.5962  0.2593
 5361SOL    HW125051   3.006   2.390   3.185  0.5260 -1.1723 -1.3014
 5361SOL    HW225052   2.911   2.368   3.069 -0.0960  1.7327 -1.4141
 5362SOL     OW25053  10.557   4.031  12.034 -1.1421  0.3233 -0.4829
 5362SOL    HW125054  10.536   4.032  11.940 -0.9937  2.1007 -0.5416
 5362SOL    HW225055  10.577   4.123  12.054  2.5403 -0.5558  0.4749
 5363SOL     OW25056  11.807   4.569   9.167 -0.0891 -0.3539 -0.3324
 5363SOL    HW125057  11.743   4.601   9.231 -1.2556  0.7452 -1.9788
 5363SOL    HW225058  11.829   4.645   9.114 -0.0982 -1.4871 -2.0425
 5364SOL     OW25059   0.196  10.305   2.270 -0.1556  0.4038 -0.5088
 5364SOL    HW125060   0.149  10.306   2.187 -1.3897 -0.6094  0.1562
 5364SOL    HW225061   0.266  10.370   2.258 -0.7213  0.7691 -2.0818
 5365SOL     OW25062   8.826   7.300   5.372  0.5270 -0.0239  0.3820
 5365SOL    HW125063   8.779   7.378   5.401  1.2604  0.6094 -0.0766
 5365SOL    HW225064   8.898   7.335   5.319  0.1421 -1.0702 -0.8656
 5366SOL     OW25065  11.349   3.396   0.934  1.1369 -0.0837 -0.1335
 5366SOL    HW125066  11.338   3.388   1.029  1.5595 -0.6120 -0.1306
 5366SOL    HW225067  11.291   3.469   0.910  0.5177 -0.3763  0.4314
 5367SOL     OW25068   9.332  12.477   5.834 -0.5702 -0.5345 -0.2185
 5367SOL    HW125069   9.369  12.476   5.922  3.8373  1.8478 -1.7574
 5367SOL    HW225070   9.372  12.401   5.790 -2.2133 -1.3169 -0.4531
 5368SOL     OW25071  10.561  11.353  11.025 -0.0181 -0.1277 -0.0724
 5368SOL    HW125072  10.534  11.318  11.110 -1.4279 -0.8997 -0.8040
 5368SOL    HW225073  10.534  11.445  11.027 -0.6934 -0.3248  0.0561
 5369SOL     OW25074  10.458   2.651  10.007 -0.6376 -0.1743 -0.0346
 5369SOL    HW125075  10.419   2.564  10.012 -0.5427 -0.1701  0.8742
 5369SOL    HW225076  10.396   2.707  10.053  0.0564 -0.0314  0.7256
 5370SOL     OW25077   7.254   3.860  12.074 -0.3871 -0.5696 -0.7155
 5370SOL    HW125078   7.266   3.942  12.028  0.7857 -0.9907 -1.2133
 5370SOL    HW225079   7.162   3.858  12.099  0.0028  1.9157  1.3044
 5371SOL     OW25080  10.104   3.490   1.887 -0.7158  0.1132 -0.2628
 5371SOL    HW125081  10.015   3.523   1.900 -0.1982  1.4016  0.1570
 5371SOL    HW225082  10.129   3.523   1.800 -0.9659 -1.0475 -0.8009
 5372SOL     OW25083   0.485  11.793  11.239  0.0720 -0.1432 -0.4149
 5372SOL    HW125084   0.576  11.812  11.261  0.3876 -1.3253 -0.6399
 5372SOL    HW225085   0.490  11.733  11.164 -0.9202  0.7103 -1.1982
 5373SOL     OW25086  12.564   2.285  12.372  0.0053  0.1150 -0.5109
 5373SOL    HW125087  12.532   2.318  12.288 -1.0332 -0.3373 -0.3056
 5373SOL    HW225088  12.516   2.336  12.438  1.3751  1.0186 -0.1600
 5374SOL     OW25089   6.868   2.100   7.078 -0.5621  0.5818 -0.0932
 5374SOL    HW125090   6.845   2.043   7.152 -3.5930 -0.3149 -1.5838
 5374SOL    HW225091   6.953   2.067   7.048  0.0685  0.0724  2.0674
 5375SOL     OW25092   1.529  12.155  12.437  0.3545  0.2979 -0.4219
 5375SOL    HW125093   1.513  12.070  12.478  2.4368 -0.1065 -0.3176
 5375SOL    HW225094   1.559  12.133  12.349 -0.2103  0.9888 -0.7879
 5376SOL     OW25095  12.581   3.443   0.021  0.3711  0.0446 -0.0114
 5376SOL    HW125096  12.496   3.419  -0.016  0.9002  1.5311 -2.4074
 5376SOL    HW225097  12.560   3.508   0.088 -0.3247  2.6274 -2.5703
 5377SOL     OW25098  10.876  10.568   6.643 -0.0318 -0.3051  0.4492
 5377SOL    HW125099  10.862  10.502   6.575 -0.0895  0.4158 -0.2571
 5377SOL    HW225100  10.833  10.532   6.720 -0.5954 -0.8205 -0.0895
 5378SOL     OW25101   6.718   8.604   6.223 -0.4017  0.3732  0.1626
 5378SOL    HW125102   6.811   8.598   6.200 -0.4369  1.5395 -0.3435
 5378SOL    HW225103   6.694   8.695   6.203 -1.7918 -0.0580 -0.2246
 5379SOL     OW25104   0.049   9.289   9.431  0.1786 -0.0746 -0.4628
 5379SOL    HW125105   0.121   9.233   9.460  1.9853  2.5005  0.3318
 5379SOL    HW225106   0.051   9.281   9.335  0.3512 -1.3484 -0.3811
 5380SOL     OW25107  12.024   4.902   3.007  0.1782  0.0704  0.0131
 5380SOL    HW125108  12.102   4.957   3.002  0.5138 -0.4894 -1.2236
 5380SOL    HW225109  11.950   4.964   3.003  0.5330  0.5631  0.7423
 5381SOL     OW25110   3.998   7.305   4.622 -0.1775 -0.4908  0.5287
 5381SOL    HW125111   4.013   7.380   4.564  1.5780 -0.1838  1.3310
 5381SOL    HW225112   3.911   7.321   4.659  0.2881  1.3510  0.9443
 5382SOL     OW25113   8.683   1.900   4.162 -0.1216  0.1173  0.1935
 5382SOL    HW125114   8.589   1.897   4.180 -0.3586  2.2862 -0.3582
 5382SOL    HW225115   8.717   1.819   4.200 -2.3534 -1.2950 -0.5973
 5383SOL     OW25116   8.748  10.123  10.447  0.1356 -0.0128  0.1100
 5383SOL    HW125117   8.782  10.056  10.387  0.7795 -0.2602  0.7478
 5383SOL    HW225118   8.795  10.203  10.424 -1.9206  0.7459 -1.9079
 5384SOL     OW25119   4.457   9.294   1.832 -0.1467 -0.2856 -0.0660
 5384SOL    HW125120   4.440   9.357   1.902 -0.4514 -1.7657  1.2332
 5384SOL    HW225121   4.552   9.299   1.820 -0.2365  0.8932 -0.4731
 5385SOL     OW25122  12.288   1.486   5.049  0.5272  0.8095  0.3765
 5385SOL    HW125123  12.358   1.551   5.047 -0.3916  1.8245  0.5349
 5385SOL    HW225124  12.302   1.433   4.971  2.0028  0.4080  0.8730
 5386SOL     OW25125   8.244  12.473   7.036 -0.1509  0.2557  0.3682
 5386SOL    HW125126   8.307  12.542   7.054  1.5599 -0.5831 -1.9568
 5386SOL    HW225127   8.259  12.408   7.105  0.4630  0.7411  0.7042
 5387SOL     OW25128  11.708  12.087   9.311  0.4328 -0.2223 -0.3992
 5387SOL    HW125129  11.753  12.171   9.301 -0.5080  0.4289  0.5539
 5387SOL    HW225130  11.724  12.041   9.229  1.0156  0.8673 -0.9193
 5388SOL     OW25131  11.576  10.474   2.579 -0.1372 -0.3890 -0.0928
 5388SOL    HW125132  11.489  10.457   2.543 -0.8700 -1.2217  1.9010
 5388SOL    HW225133  11.636  10.449   2.510 -1.4591 -0.9223 -1.1043
 5389SOL     OW25134   4.623   0.563   8.662 -0.0265 -0.1722 -0.2334
 5389SOL    HW125135   4.649   0.634   8.603 -0.0269  1.0167  1.1488
 5389SOL    HW225136   4.656   0.589   8.747 -1.0152 -1.2981  0.5287
 5390SOL     OW25137  12.065   7.602   0.202  0.4992 -0.7281 -1.0234
 5390SOL    HW125138  12.119   7.537   0.247  1.1165  0.4616 -0.0292
 5390SOL    HW225139  12.091   7.595   0.110  3.2051  0.5736 -0.4489
 5391SOL     OW25140   9.659   3.712  11.456 -0.3385  0.2686  0.0237
 5391SOL    HW125141   9.598   3.645  11.427  0.2498 -0.0206 -0.5776
 5391SOL    HW225142   9.660   3.776  11.385 -0.0999  0.3751  0.1215
 5392SOL     OW25143   2.360   6.949   7.343 -0.1424 -0.6440 -0.3186
 5392SOL    HW125144   2.278   6.900   7.346 -0.3841 -0.2149  0.1352
 5392SOL    HW225145   2.424   6.886   7.307 -0.7639 -0.8328 -1.1097
 5393SOL     OW25146   7.254   4.537   8.954 -0.1747 -0.0227 -0.2418
 5393SOL    HW125147   7.336   4.581   8.976 -0.2299 -0.2382  0.3987
 5393SOL    HW225148   7.244   4.551   8.860  0.7854 -0.3032 -0.3939
 5394SOL     OW25149   6.922  12.440   3.634 -0.4567  0.3576 -0.5447
 5394SOL    HW125150   6.881  12.523   3.659  1.3068  1.2341 -0.3505
 5394SOL    HW225151   6.871  12.373   3.680 -1.8540  1.3332 -0.6210
 5395SOL     OW25152   6.847   6.330   5.240 -0.0944  0.1158  0.0009
 5395SOL    HW125153   6.760   6.333   5.202  0.0395  0.2147 -0.3030
 5395SOL    HW225154   6.837   6.277   5.319 -0.3876 -0.0394 -0.1389
 5396SOL     OW25155   1.914  11.320   2.845  0.3428 -0.4153 -0.1133
 5396SOL    HW125156   1.860  11.395   2.820 -1.0181 -1.1600  0.4972
 5396SOL    HW225157   1.852  11.251   2.867  1.5437 -1.2228  0.9217
 5397SOL     OW25158   9.338   5.628   8.649  0.2268  0.7950 -0.7067
 5397SOL    HW125159   9.301   5.641   8.736 -0.3702  0.0716 -0.8517
 5397SOL    HW225160   9.282   5.679   8.591  0.0346  0.4826 -0.7968
 5398SOL     OW25161   7.942   5.079   0.911 -0.2476 -0.1886 -0.2675
 5398SOL    HW125162   8.009   5.103   0.976  1.4355 -2.7326 -0.9195
 5398SOL    HW225163   7.911   4.994   0.940 -1.3442 -0.1984 -1.4159
 5399SOL     OW25164   4.558   5.617   1.995 -0.8234  0.0870  0.2345
 5399SOL    HW125165   4.634   5.573   1.956 -0.1798  0.3100  1.1976
 5399SOL    HW225166   4.537   5.688   1.935  0.9458  1.2090  0.8761
 5400SOL     OW25167   8.108   5.539  10.890  0.3727  0.5384  0.5332
 5400SOL    HW125168   8.043   5.566  10.954 -0.8713 -1.0431  0.0013
 5400SOL    HW225169   8.073   5.566  10.806  0.4369 -0.2429  0.2495
 5401SOL     OW25170   3.783   5.462   3.979 -0.3449  0.3277 -0.0336
 5401SOL    HW125171   3.737   5.505   3.907  1.4408  0.2962 -1.2369
 5401SOL    HW225172   3.785   5.370   3.954  1.9536  0.5818 -0.9267
 5402SOL     OW25173   4.079   6.429   7.936  0.4625  0.3274 -0.3005
 5402SOL    HW125174   4.058   6.514   7.899 -0.7486  0.2835  0.2257
 5402SOL    HW225175   4.075   6.368   7.863  0.6241  0.6111 -0.5460
 5403SOL     OW25176   0.599   7.171   2.938 -0.0048 -0.2970  0.0604
 5403SOL    HW125177   0.687   7.198   2.964  0.2037  0.6126 -1.4633
 5403SOL    HW225178   0.547   7.182   3.017  0.8803  0.9682  0.5111
 5404SOL     OW25179  11.601   4.703   7.158 -0.1975  0.1461 -0.7212
 5404SOL    HW125180  11.514   4.691   7.120  0.1385  0.6314 -1.7131
 5404SOL    HW225181  11.661   4.692   7.083  1.0335 -4.9564  0.6703
 5405SOL     OW25182   9.007   2.251   2.936 -1.0041  0.1740  0.3473
 5405SOL    HW125183   8.978   2.281   3.022  1.3022  0.9950  0.8936
 5405SOL    HW225184   9.020   2.157   2.946 -1.9360  0.0471  0.5010
 5406SOL     OW25185   0.591  10.653   1.066  0.0255 -0.3173  0.3141
 5406SOL    HW125186   0.534  10.669   1.141 -1.4024 -2.3254 -0.2636
 5406SOL    HW225187   0.559  10.713   0.999 -0.4020 -0.3329  0.4974
 5407SOL     OW25188   1.192   0.699   6.599  0.1967  0.2470  0.2869
 5407SOL    HW125189   1.165   0.760   6.531  0.3061 -0.7250 -0.6627
 5407SOL    HW225190   1.179   0.612   6.560 -0.7939 -0.3805  1.8892
 5408SOL     OW25191   5.967   0.947   5.072  0.4431  0.0268  0.2877
 5408SOL    HW125192   6.050   0.900   5.073  1.1844  1.2789  0.7025
 5408SOL    HW225193   5.982   1.024   5.128 -1.0070  0.2620  0.3994
 5409SOL     OW25194   2.826  11.405   5.720 -0.8201 -0.1613 -0.0659
 5409SOL    HW125195   2.890  11.373   5.783 -0.9401  0.7110  0.5085
 5409SOL    HW225196   2.784  11.326   5.686  1.5830 -0.8949 -1.5914
 5410SOL     OW25197  12.153   5.803  11.686 -0.5862  0.0565  0.1158
 5410SOL    HW125198  12.112   5.748  11.620  1.1613  0.4781 -1.4114
 5410SOL    HW225199  12.116   5.890  11.672 -1.4784 -0.1919  0.8545
 5411SOL     OW25200  12.399   3.636  10.970  0.2045 -0.3442  0.1549
 5411SOL    HW125201  12.417   3.542  10.966  0.0491 -0.4030  0.8386
 5411SOL    HW225202  12.485   3.677  10.963  0.2945 -0.5414  0.0987
 5412SOL     OW25203  12.529   4.305   5.372 -0.2692  0.9486 -0.2379
 5412SOL    HW125204  12.466   4.293   5.443 -0.7058 -0.3853 -0.7951
 5412SOL    HW225205  12.544   4.216   5.339  1.5010  1.3048 -0.4836
 5413SOL     OW25206   3.608   9.826   6.059 -0.0104 -0.2893 -0.0366
 5413SOL    HW125207   3.575   9.740   6.032  1.1836 -0.9351  0.5045
 5413SOL    HW225208   3.540   9.859   6.118 -0.2070 -1.1254  0.2322
 5414SOL     OW25209  11.191   3.101   0.743 -0.1881 -0.1684 -0.1074
 5414SOL    HW125210  11.257   3.101   0.673 -1.1961 -0.9894 -1.0918
 5414SOL    HW225211  11.112   3.068   0.701 -0.6981 -1.1538  1.5411
 5415SOL     OW25212   2.441   8.903   5.440 -0.5753 -0.1013  0.1575
 5415SOL    HW125213   2.401   8.894   5.353  1.7984  0.8142 -1.1326
 5415SOL    HW225214   2.448   8.997   5.454 -0.6342 -0.2441  1.2237
 5416SOL     OW25215   3.348   8.318   5.198 -0.4080 -0.0154  0.0372
 5416SOL    HW125216   3.269   8.370   5.213  0.2973  1.2285 -0.4123
 5416SOL    HW225217   3.419   8.382   5.196  0.9506 -1.2918  2.6924
 5417SOL     OW25218  11.060   6.744   2.346 -0.1007 -0.4575 -0.5623
 5417SOL    HW125219  11.120   6.815   2.367 -0.6616 -0.1200 -0.0753
 5417SOL    HW225220  11.114   6.680   2.299  0.4925  0.1106 -0.6692
 5418SOL     OW25221   0.095   6.014   0.653  0.4793  0.5387  0.6250
 5418SOL    HW125222   0.011   6.059   0.645 -0.2003 -0.7945  0.0546
 5418SOL    HW225223   0.081   5.949   0.721  0.7802 -0.2400 -0.0367
 5419SOL     OW25224   7.572   8.789   6.164 -0.8961 -0.2270 -0.2992
 5419SOL    HW125225   7.522   8.840   6.101  0.6266 -1.0091 -2.2578
 5419SOL    HW225226   7.659   8.829   6.164  0.1818 -2.3910 -1.4821
 5420SOL     OW25227   3.012   4.993   0.739  0.4186 -0.1155 -0.4314
 5420SOL    HW125228   3.018   4.933   0.665  1.5761 -1.4635  0.7095
 5420SOL    HW225229   3.018   4.937   0.816  0.9495  1.4079  0.6812
 5421SOL     OW25230   4.062   9.194  11.213  0.7628  0.1515 -0.0634
 5421SOL    HW125231   4.068   9.280  11.255 -0.5862  1.5921 -2.5382
 5421SOL    HW225232   3.997   9.146  11.264  0.7681  0.9952  0.7609
 5422SOL     OW25233   1.329   3.518  10.071  0.0045  0.7115  0.3481
 5422SOL    HW125234   1.263   3.587  10.078 -1.0438 -0.3588  1.5671
 5422SOL    HW225235   1.278   3.437  10.065  1.2042 -0.0889  0.5813
 5423SOL     OW25236   9.297   9.103   4.635  0.1809  0.2727 -0.6282
 5423SOL    HW125237   9.301   9.041   4.562 -1.0357 -0.5258 -0.0360
 5423SOL    HW225238   9.240   9.174   4.603  0.4341  0.4050 -0.7922
 5424SOL     OW25239  11.331   3.547   7.765  0.0264 -0.3092 -0.5184
 5424SOL    HW125240  11.367   3.504   7.842  0.2371  0.7817  0.0228
 5424SOL    HW225241  11.240   3.567   7.789 -0.4071 -1.4205 -1.1846
 5425SOL     OW25242   2.325   7.670   2.304 -0.5500  0.0594  0.0737
 5425SOL    HW125243   2.243   7.714   2.328 -2.1734 -2.4483 -0.4180
 5425SOL    HW225244   2.353   7.628   2.384 -0.1353  0.3135  0.0623
 5426SOL     OW25245  12.221   4.264   1.648  0.0112  0.2993 -0.5331
 5426SOL    HW125246  12.254   4.285   1.735 -1.9116 -1.1368  0.6435
 5426SOL    HW225247  12.166   4.338   1.624 -2.1041 -0.6874  1.0079
 5427SOL     OW25248   8.427  11.093   9.991  0.2896 -0.4477  0.2006
 5427SOL    HW125249   8.400  11.183   9.974 -2.8293 -1.3180  0.0241
 5427SOL    HW225250   8.383  11.041   9.924  1.9836 -2.1683  0.3212
 5428SOL     OW25251   7.015  10.259   8.634 -0.9398  0.1535 -0.6169
 5428SOL    HW125252   7.107  10.240   8.655 -0.8675  1.8807  0.8355
 5428SOL    HW225253   6.988  10.185   8.580  1.2780 -0.4489 -1.0366
 5429SOL     OW25254   5.165   0.362   5.337  0.6681 -0.2552  0.1349
 5429SOL    HW125255   5.243   0.390   5.384  0.6200  1.2176 -0.6093
 5429SOL    HW225256   5.199   0.310   5.264  0.8795 -0.4471  0.3642
 5430SOL     OW25257   1.918   5.446   0.641  0.1186 -0.4476 -0.0482
 5430SOL    HW125258   1.939   5.375   0.580  0.7034 -0.0433 -0.3275
 5430SOL    HW225259   1.998   5.497   0.647  0.0362 -0.4174  0.9956
 5431SOL     OW25260   2.497   7.077   2.467 -0.1140  0.1091 -0.2253
 5431SOL    HW125261   2.517   7.129   2.388  0.7481  0.9655  0.5294
 5431SOL    HW225262   2.410   7.106   2.493 -0.3896 -0.1491 -0.8298
 5432SOL     OW25263   5.713   8.906   6.910 -0.2404 -0.1787  0.1748
 5432SOL    HW125264   5.620   8.896   6.891 -0.6812 -0.0236  2.0110
 5432SOL    HW225265   5.715   8.950   6.995  1.4908 -1.2993  0.7702
 5433SOL     OW25266  10.159   3.388   2.256 -0.3393  0.1264 -0.4508
 5433SOL    HW125267  10.104   3.414   2.330 -1.6388 -2.2332 -0.4886
 5433SOL    HW225268  10.126   3.438   2.182 -0.6168  0.7291  0.0716
 5434SOL     OW25269   6.776   8.615  11.957 -0.4313  0.0363 -0.3024
 5434SOL    HW125270   6.864   8.640  11.930 -0.5501  1.0578  0.2177
 5434SOL    HW225271   6.760   8.531  11.913  0.8940 -0.2980 -0.1886
 5435SOL     OW25272   6.593   8.828   6.724 -0.3807  0.1901  0.2449
 5435SOL    HW125273   6.546   8.765   6.779 -0.5974 -0.3026 -0.4839
 5435SOL    HW225274   6.643   8.773   6.663 -1.8667  0.6907 -1.5045
 5436SOL     OW25275  11.603  11.070   5.731 -0.3710  0.7260  0.2005
 5436SOL    HW125276  11.650  11.038   5.808 -1.1641 -1.8076 -0.2586
 5436SOL    HW225277  11.511  11.072   5.758 -0.4695  1.4695 -0.1746
 5437SOL     OW25278  11.222   5.381   1.090  0.3883  0.6964 -0.6010
 5437SOL    HW125279  11.257   5.463   1.124 -1.1910 -0.0896  3.5672
 5437SOL    HW225280  11.129   5.398   1.075 -0.1293 -0.3883  1.0319
 5438SOL     OW25281   2.026   4.892   1.696 -0.0379  1.2718 -0.1254
 5438SOL    HW125282   2.073   4.968   1.662 -0.1845  1.2949 -0.2757
 5438SOL    HW225283   1.965   4.867   1.626 -0.0628  1.0796 -0.0365
 5439SOL     OW25284   3.926  10.192   6.249 -0.3061 -0.5163  0.1904
 5439SOL    HW125285   3.968  10.265   6.203 -1.7790  0.9527  1.0316
 5439SOL    HW225286   3.863  10.157   6.185  0.9694 -1.6247 -0.4946
 5440SOL     OW25287   3.806   2.911   8.956 -0.1092 -1.0798  0.7373
 5440SOL    HW125288   3.885   2.965   8.965 -0.9997  0.4071  0.0187
 5440SOL    HW225289   3.809   2.879   8.866 -1.7880  1.4942 -0.3335
 5441SOL     OW25290   6.822   1.870  11.690 -0.9747 -0.2326 -0.0735
 5441SOL    HW125291   6.750   1.838  11.745 -0.8534 -1.3229 -0.5172
 5441SOL    HW225292   6.900   1.832  11.730 -0.6766  0.5941  0.1524
 5442SOL     OW25293  12.199  12.097   4.827  0.2195  0.3523 -0.0441
 5442SOL    HW125294  12.260  12.169   4.843  0.4782  0.0873  0.1722
 5442SOL    HW225295  12.190  12.055   4.913 -1.6348  1.4555  0.3640
 5443SOL     OW25296  10.885   3.820   1.426  0.2375  0.0446  0.2355
 5443SOL    HW125297  10.843   3.906   1.431  0.6904  0.2006  2.0940
 5443SOL    HW225298  10.858   3.785   1.342  0.1762  2.0807 -0.6590
 5444SOL     OW25299  11.375  11.183   9.585  0.0192  0.2518  0.0506
 5444SOL    HW125300  11.415  11.119   9.644 -0.7636 -1.3687 -1.1022
 5444SOL    HW225301  11.304  11.136   9.542  0.5493  1.3394 -2.1907
 5445SOL     OW25302  10.714   6.801   6.011 -0.1097  0.4790  0.6948
 5445SOL    HW125303  10.789   6.776   5.957 -0.0382  1.3088  0.3878
 5445SOL    HW225304  10.671   6.719   6.032 -1.1354  0.2174 -2.0473
 5446SOL     OW25305   3.793   8.363   5.666 -0.0203 -0.1812  0.4451
 5446SOL    HW125306   3.837   8.446   5.683  1.1421 -0.9177  1.2544
 5446SOL    HW225307   3.819   8.340   5.576  0.8146 -0.3339  0.7168
 5447SOL     OW25308   9.432   1.719   4.153 -0.6648 -0.1013  1.2437
 5447SOL    HW125309   9.511   1.664   4.152 -0.3014  0.3459 -1.2053
 5447SOL    HW225310   9.463   1.804   4.187 -0.1014  0.0107  0.4927
 5448SOL     OW25311  12.450   9.364   8.952 -0.3810  0.5792  0.2022
 5448SOL    HW125312  12.465   9.314   8.871 -1.5311  1.2949 -0.4839
 5448SOL    HW225313  12.511   9.437   8.947  0.3247  0.0194  0.5278
 5449SOL     OW25314  10.528  11.208   0.395 -0.1011  0.3629  0.3088
 5449SOL    HW125315  10.601  11.223   0.335  0.9382  2.0211  1.8759
 5449SOL    HW225316  10.565  11.222   0.482 -1.9585 -0.2161  1.2482
 5450SOL     OW25317  11.636   0.921   5.167  0.0960  0.4354  0.5660
 5450SOL    HW125318  11.711   0.920   5.107 -0.1509  0.9482  0.2398
 5450SOL    HW225319  11.670   0.886   5.249  0.7122  0.7261  0.4393
 5451SOL     OW25320   6.144   4.248   1.883  0.1172 -0.5329  0.3946
 5451SOL    HW125321   6.219   4.276   1.831  0.6824 -0.2315  1.3635
 5451SOL    HW225322   6.094   4.192   1.823  0.9771 -0.5463 -0.3368
 5452SOL     OW25323   3.173  11.403   4.312 -0.0444  0.2467  0.5144
 5452SOL    HW125324   3.208  11.394   4.400  0.4134  2.1553  0.5568
 5452SOL    HW225325   3.239  11.452   4.263 -1.0806  0.8232 -0.3815
 5453SOL     OW25326   1.182  10.376   0.461 -0.7167 -0.2833  0.4525
 5453SOL    HW125327   1.208  10.347   0.374 -1.3076  0.0745  0.1501
 5453SOL    HW225328   1.203  10.470   0.462 -2.5050  0.1609 -0.0182
 5454SOL     OW25329  10.220   1.840   4.407 -0.1787 -0.1532 -0.4139
 5454SOL    HW125330  10.208   1.761   4.355 -0.4560 -0.1112 -0.4131
 5454SOL    HW225331  10.194   1.815   4.496  2.0759 -0.7750  0.1444
 5455SOL     OW25332   6.254   2.851  10.043 -0.1245  0.0408  0.2834
 5455SOL    HW125333   6.177   2.851   9.986  0.0159  0.4536  0.0908
 5455SOL    HW225334   6.325   2.879   9.987  0.6231 -2.4327 -0.1312
 5456SOL     OW25335   9.666   0.515   6.175  0.1513  0.1484 -0.1143
 5456SOL    HW125336   9.590   0.570   6.197 -0.8612 -1.0533 -0.5302
 5456SOL    HW225337   9.735   0.548   6.232 -0.9722  0.5535  1.0759
 5457SOL     OW25338   9.042   7.656   1.209 -0.7353  0.5205 -0.3457
 5457SOL    HW125339   9.006   7.702   1.133 -0.9306 -0.4190 -0.8278
 5457SOL    HW225340   9.001   7.570   1.207 -0.8992  0.5413  0.9433
 5458SOL     OW25341   2.987   4.621   3.522  0.2471 -0.0957 -0.6567
 5458SOL    HW125342   2.989   4.694   3.584 -0.8283 -1.4570  1.0638
 5458SOL    HW225343   3.070   4.576   3.533 -0.1363 -0.6177  0.1950
 5459SOL     OW25344   4.513  11.962   0.881  0.5368 -0.2421 -0.5629
 5459SOL    HW125345   4.607  11.948   0.864  1.0569  2.2441 -0.1713
 5459SOL    HW225346   4.484  12.016   0.807 -0.2692  0.0235 -0.0563
 5460SOL     OW25347   9.362   7.517   5.731 -0.1921  0.5099 -0.1425
 5460SOL    HW125348   9.324   7.569   5.802 -0.8816  0.3669 -0.3997
 5460SOL    HW225349   9.351   7.426   5.760 -0.1348  0.4651 -0.2631
 5461SOL     OW25350   6.379   8.801   8.903  0.2988 -0.2518  0.5336
 5461SOL    HW125351   6.359   8.879   8.851  2.1944 -0.1276 -0.1037
 5461SOL    HW225352   6.363   8.728   8.844 -2.1147 -0.4698  1.3330
 5462SOL     OW25353   8.355   2.723  10.878  0.1701  0.0727 -0.0070
 5462SOL    HW125354   8.418   2.659  10.910  1.7210  0.8261 -1.3849
 5462SOL    HW225355   8.273   2.674  10.869  0.8679 -1.2624  0.6279
 5463SOL     OW25356   4.371   1.002   6.193 -0.3085  0.6885  1.0614
 5463SOL    HW125357   4.371   0.933   6.260 -0.4993 -1.0138 -0.6207
 5463SOL    HW225358   4.333   1.078   6.238 -1.2513 -0.6405  2.6421
 5464SOL     OW25359   7.758   8.875   4.478  0.0317 -0.8678 -0.4193
 5464SOL    HW125360   7.762   8.966   4.509  1.5560 -1.2628  0.6485
 5464SOL    HW225361   7.679   8.840   4.518  0.0313 -0.3251  0.0782
 5465SOL     OW25362   6.505   1.000   8.758  0.3711 -0.1654  0.2140
 5465SOL    HW125363   6.566   1.036   8.693  0.4249 -0.3045  0.1865
 5465SOL    HW225364   6.537   1.033   8.842 -0.9353  1.7869  0.0046
 5466SOL     OW25365   5.319   5.089   6.532  0.0758  0.7565  0.0064
 5466SOL    HW125366   5.301   5.110   6.441  0.3244 -0.0571 -0.2449
 5466SOL    HW225367   5.413   5.069   6.534  0.2984  1.7780  0.6530
 5467SOL     OW25368  12.582   9.493   7.823  0.2883  0.1908 -0.5528
 5467SOL    HW125369  12.673   9.516   7.804  0.2913  0.0388 -0.7319
 5467SOL    HW225370  12.547   9.463   7.739 -0.1022  0.8150 -0.6280
 5468SOL     OW25371   9.973  11.843   2.597 -0.7498  0.4241  0.6245
 5468SOL    HW125372   9.912  11.870   2.665 -0.7201 -1.2216  1.3381
 5468SOL    HW225373  10.048  11.902   2.607 -0.1088 -0.7040  3.0149
 5469SOL     OW25374   0.506  12.048   7.233  1.3054  0.2463 -0.7773
 5469SOL    HW125375   0.453  11.969   7.220  1.0233 -0.0719  1.8254
 5469SOL    HW225376   0.496  12.097   7.151 -1.8626 -0.4751 -0.9481
 5470SOL     OW25377   0.641   1.687  11.143  0.5512  0.0350  0.1307
 5470SOL    HW125378   0.614   1.641  11.222 -0.8978  0.3694 -0.1320
 5470SOL    HW225379   0.558   1.713  11.101  1.3046  1.2878 -0.6497
 5471SOL     OW25380  10.052   6.539   9.719 -0.3375  0.1437 -0.2969
 5471SOL    HW125381   9.990   6.610   9.700 -0.2578  0.3118  0.0714
 5471SOL    HW225382  10.048   6.483   9.641 -1.1443  0.0101 -0.1647
 5472SOL     OW25383   4.310   2.700   2.634  0.1411 -0.2298  0.3679
 5472SOL    HW125384   4.326   2.678   2.725 -0.4481  2.6635  1.3001
 5472SOL    HW225385   4.218   2.728   2.632 -0.5785 -2.4042 -1.6617
 5473SOL     OW25386   9.320   7.867   3.094  0.1034 -0.6823 -0.4630
 5473SOL    HW125387   9.314   7.792   3.152  0.2658 -0.2441  0.1281
 5473SOL    HW225388   9.335   7.830   3.007 -1.5623 -1.4155 -0.4782
 5474SOL     OW25389   0.233  11.061   7.813  0.4310 -0.4297 -0.2554
 5474SOL    HW125390   0.327  11.060   7.796  0.6823  2.0877  0.7083
 5474SOL    HW225391   0.205  11.149   7.789 -1.0745 -0.0765  2.4440
 5475SOL     OW25392  11.803   4.471   2.531  0.3156  0.3671  0.0467
 5475SOL    HW125393  11.719   4.432   2.556  1.2658 -0.9929  1.3110
 5475SOL    HW225394  11.782   4.531   2.460 -1.4289 -1.6427 -1.2776
 5476SOL     OW25395   0.452   5.816   0.352 -1.1391  0.8318  0.7658
 5476SOL    HW125396   0.535   5.770   0.366 -1.3648 -0.9464 -2.6110
 5476SOL    HW225397   0.404   5.804   0.434  1.1067  0.1004  2.0745
 5477SOL     OW25398   4.751  11.363   1.891 -0.1646  0.5170  0.4525
 5477SOL    HW125399   4.709  11.449   1.897 -1.1826  0.2218 -1.6837
 5477SOL    HW225400   4.746  11.328   1.980 -1.2505  1.9801  1.0081
 5478SOL     OW25401   5.176   9.079   8.115  0.3572  0.2889  0.0424
 5478SOL    HW125402   5.229   9.146   8.157  1.4334 -0.0657 -0.6893
 5478SOL    HW225403   5.193   9.090   8.021 -0.7613  0.0615 -0.2131
 5479SOL     OW25404   5.322   9.479   1.518 -0.6808  0.2852  0.2060
 5479SOL    HW125405   5.262   9.415   1.481 -1.7353  1.9245 -1.0507
 5479SOL    HW225406   5.362   9.522   1.442  2.5466 -1.0689  0.9579
 5480SOL     OW25407  11.641   3.351   1.622  0.5007 -0.5866  0.2235
 5480SOL    HW125408  11.650   3.440   1.656  1.1777 -1.2249  1.8350
 5480SOL    HW225409  11.714   3.341   1.561 -1.3611  0.9472 -2.4956
 5481SOL     OW25410   8.430   3.742  10.623 -0.3817 -0.3508  0.0744
 5481SOL    HW125411   8.418   3.837  10.623 -0.2433 -0.3314 -0.1340
 5481SOL    HW225412   8.477   3.724  10.705  0.5654 -0.1053 -0.3967
 5482SOL     OW25413   5.003   8.001  12.160  0.7782  0.3173 -0.0407
 5482SOL    HW125414   4.988   7.981  12.067  0.5480  0.3486 -0.0098
 5482SOL    HW225415   5.070   8.070  12.158  1.5829 -0.4542 -0.1430
 5483SOL     OW25416  11.538  11.542   8.415  0.1514  0.0895 -0.3066
 5483SOL    HW125417  11.556  11.480   8.344 -0.6214  1.8827 -2.1701
 5483SOL    HW225418  11.543  11.628   8.374 -0.1596  1.2316  1.8862
 5484SOL     OW25419  11.851   0.648   1.306 -0.1421 -0.3277  0.9684
 5484SOL    HW125420  11.821   0.571   1.258  0.2210  0.0049  0.2000
 5484SOL    HW225421  11.770   0.694   1.330 -0.3331 -0.6230  0.8953
 5485SOL     OW25422   3.664   3.024   2.899 -0.5499  0.1987  0.9696
 5485SOL    HW125423   3.731   2.956   2.886 -0.1867  0.7743 -0.3244
 5485SOL    HW225424   3.653   3.028   2.994  0.6543 -0.4836  1.1651
 5486SOL     OW25425   8.902   1.218   9.688 -0.5211 -0.4131  0.0650
 5486SOL    HW125426   8.982   1.173   9.712 -0.2655 -0.6635 -1.2211
 5486SOL    HW225427   8.877   1.181   9.603 -1.1486  0.7576 -0.2876
 5487SOL     OW25428   7.083   9.032  10.351 -0.0947 -0.0363 -0.4789
 5487SOL    HW125429   7.003   8.984  10.370 -0.4732  0.1106 -1.6240
 5487SOL    HW225430   7.064   9.079  10.270  0.3442  1.8446  0.4510
 5488SOL     OW25431   6.886   9.163   5.693  0.0765 -0.4384 -0.0829
 5488SOL    HW125432   6.830   9.239   5.710 -0.5307 -0.9481  0.2063
 5488SOL    HW225433   6.906   9.169   5.600  1.6665  1.1762  0.2934
 5489SOL     OW25434   0.926   1.986   6.439 -0.0831 -0.3916 -0.8638
 5489SOL    HW125435   0.887   1.981   6.525 -0.1874  0.3141 -0.8664
 5489SOL    HW225436   0.870   2.045   6.390  0.6087  0.1056 -1.0687
 5490SOL     OW25437   7.589   7.057   9.314  0.0798 -0.1147  0.3655
 5490SOL    HW125438   7.644   7.000   9.368  1.8804  0.7701 -0.4605
 5490SOL    HW225439   7.582   7.013   9.230  1.1661  0.6554 -0.1540
 5491SOL     OW25440   8.144   3.231   5.629  0.6073  0.8324  0.1943
 5491SOL    HW125441   8.105   3.202   5.547  1.2178  1.9815 -0.5266
 5491SOL    HW225442   8.239   3.223   5.615  0.7312  1.4687  0.6110
 5492SOL     OW25443  12.111  11.201   0.759  0.1947  0.1776  0.4549
 5492SOL    HW125444  12.056  11.261   0.709  1.3162  0.6342 -0.2583
 5492SOL    HW225445  12.080  11.209   0.849 -1.2604  0.0160  0.0011
 5493SOL     OW25446   9.518   0.347   9.543  0.5013  0.1512  0.0170
 5493SOL    HW125447   9.493   0.283   9.476  0.2997  0.7253 -0.4600
 5493SOL    HW225448   9.580   0.300   9.599  0.2727 -0.4957 -0.2661
 5494SOL     OW25449   3.977   0.161   3.651 -0.1853 -0.1865 -0.0580
 5494SOL    HW125450   4.019   0.085   3.610 -0.3529 -0.2889 -0.0388
 5494SOL    HW225451   3.986   0.230   3.586  0.5734 -0.0378  0.2045
 5495SOL     OW25452  10.878   3.729   9.433 -0.0766 -0.2923 -0.2424
 5495SOL    HW125453  10.795   3.682   9.446 -0.4990  0.6372  0.5922
 5495SOL    HW225454  10.929   3.710   9.512 -0.8499  1.7676  0.8468
 5496SOL     OW25455  11.348   8.829   6.666  0.1735 -0.2293 -0.1563
 5496SOL    HW125456  11.343   8.907   6.721  2.0256  0.9449 -1.5457
 5496SOL    HW225457  11.270   8.835   6.610 -0.6703 -0.3933  0.9635
 5497SOL     OW25458   8.865  12.543  11.685  0.3763  0.2483 -0.1385
 5497SOL    HW125459   8.941  12.586  11.725  0.3244  2.1137 -1.8912
 5497SOL    HW225460   8.793  12.560  11.745  1.0154 -0.2008  0.7757
 5498SOL     OW25461   2.862   0.801   4.069  0.9475 -0.1067  0.3333
 5498SOL    HW125462   2.777   0.826   4.106  0.5004 -0.9764 -0.0882
 5498SOL    HW225463   2.926   0.841   4.128  0.2694  1.6815 -0.0639
 5499SOL     OW25464   3.536   9.360   4.169 -0.4493 -0.4974  0.3550
 5499SOL    HW125465   3.447   9.352   4.135 -0.1579 -1.1721 -0.2794
 5499SOL    HW225466   3.584   9.407   4.101  0.0023 -1.3604  0.0565
 5500SOL     OW25467   0.261   3.345   5.775 -0.3744 -0.0966 -0.2428
 5500SOL    HW125468   0.172   3.309   5.782 -0.2784 -0.3569 -0.3199
 5500SOL    HW225469   0.317   3.277   5.814 -0.2170  0.0975 -0.1304
 5501SOL     OW25470  10.379   6.345   9.271  0.4305 -0.4806 -0.1462
 5501SOL    HW125471  10.372   6.273   9.333  1.1520 -0.6577 -0.2666
 5501SOL    HW225472  10.452   6.398   9.302  0.7161 -0.4985 -0.7592
 5502SOL     OW25473   8.373   0.929   3.623 -0.4921 -0.6688  0.1326
 5502SOL    HW125474   8.283   0.948   3.600 -0.1488  1.6652  0.4626
 5502SOL    HW225475   8.415   0.902   3.541 -1.0942 -0.1254 -0.3566
 5503SOL     OW25476   3.296   2.838   6.739 -0.1543 -0.6092 -0.2679
 5503SOL    HW125477   3.343   2.755   6.727 -0.0035 -0.9724  2.2105
 5503SOL    HW225478   3.355   2.904   6.702 -0.0386 -1.5165 -1.8066
 5504SOL     OW25479  11.816   6.002   3.973  0.0517 -0.5339  0.4022
 5504SOL    HW125480  11.825   5.926   3.917 -0.2295 -0.6657  0.5301
 5504SOL    HW225481  11.769   6.066   3.920 -0.1749 -0.6423  0.4696
 5505SOL     OW25482   0.119  11.427   2.790 -0.1059  0.0204  0.0131
 5505SOL    HW125483   0.106  11.498   2.727  2.8932  0.9030  0.2554
 5505SOL    HW225484   0.128  11.349   2.735  0.1339  0.4094 -0.5183
 5506SOL     OW25485   8.123   6.028   4.596 -0.3111  0.1236  0.4691
 5506SOL    HW125486   8.173   5.975   4.658  0.1797  0.7085  0.5848
 5506SOL    HW225487   8.156   6.003   4.510 -1.0745 -0.7745  0.4278
 5507SOL     OW25488   9.901   5.497   7.791  0.9126  0.5284  0.0284
 5507SOL    HW125489   9.834   5.489   7.722  0.0141  1.0435  0.8239
 5507SOL    HW225490   9.964   5.560   7.756  1.3942 -0.4872 -1.0293
 5508SOL     OW25491   9.882   6.178   8.969  0.0462 -0.0242  1.3630
 5508SOL    HW125492   9.918   6.202   9.055  1.1254  2.3745  0.3521
 5508SOL    HW225493   9.959   6.162   8.914 -0.5509  0.3159  0.4013
 5509SOL     OW25494   2.724   8.032   4.479 -0.5563 -0.4777 -0.3535
 5509SOL    HW125495   2.650   7.972   4.467  0.0657 -1.0417 -1.5961
 5509SOL    HW225496   2.791   7.979   4.522 -0.3592 -0.3847 -0.5433
 5510SOL     OW25497   5.338   6.651   4.892 -0.4370  0.2268 -0.6409
 5510SOL    HW125498   5.422   6.648   4.846  0.8324 -1.4695  1.6246
 5510SOL    HW225499   5.346   6.725   4.952 -1.1248  0.8812 -1.3234
 5511SOL     OW25500   6.207   8.112   6.840  0.4823  0.2121  0.1685
 5511SOL    HW125501   6.238   8.076   6.757  0.7909  0.9988 -0.0715
 5511SOL    HW225502   6.287   8.127   6.891  0.3088 -0.0714  0.5240
 5512SOL     OW25503   8.623   3.379   7.979 -0.1765  0.3728 -0.3212
 5512SOL    HW125504   8.567   3.302   7.972 -0.6066  0.6503  0.0231
 5512SOL    HW225505   8.680   3.362   8.054  0.3964 -0.0319 -0.8444
 5513SOL     OW25506  10.102   9.017  12.288 -0.4281 -0.3210 -0.0302
 5513SOL    HW125507  10.079   9.067  12.209  0.0664  0.4409  0.2983
 5513SOL    HW225508  10.094   9.081  12.359  1.7220 -0.2586  0.2243
 5514SOL     OW25509   8.662   9.229   2.513  0.0968  0.0671 -0.4032
 5514SOL    HW125510   8.700   9.317   2.504 -1.0413  0.6333  0.2096
 5514SOL    HW225511   8.736   9.174   2.540  0.2520  1.4618  2.3665
 5515SOL     OW25512   5.339   8.732  11.849  0.3588 -0.0480 -0.0990
 5515SOL    HW125513   5.297   8.675  11.785 -1.7086  2.1279 -0.8096
 5515SOL    HW225514   5.423   8.754  11.808  0.3206 -0.9801 -0.7174
 5516SOL     OW25515   1.499   4.400   7.384  0.2397 -0.2865  0.4338
 5516SOL    HW125516   1.530   4.472   7.328  0.4941  0.2837  1.2911
 5516SOL    HW225517   1.496   4.325   7.325 -1.2672  0.6792 -0.8237
 5517SOL     OW25518   9.627   9.781   0.861  0.0444 -0.0529  0.2931
 5517SOL    HW125519   9.617   9.736   0.777 -0.2541  0.0707  0.2634
 5517SOL    HW225520   9.550   9.756   0.911  0.8455 -1.1693  1.0181
 5518SOL     OW25521   7.540   0.312   9.998 -0.0716 -0.0807 -0.1838
 5518SOL    HW125522   7.461   0.365   9.992 -0.6919 -0.9961 -0.2620
 5518SOL    HW225523   7.577   0.315   9.909  0.0426  0.4321 -0.1225
 5519SOL     OW25524   6.332   8.282   1.226  0.4821  0.3940  0.0753
 5519SOL    HW125525   6.277   8.360   1.219 -2.0720 -1.2832  0.1029
 5519SOL    HW225526   6.409   8.310   1.276 -0.3704  2.8401  0.1219
 5520SOL     OW25527   6.123   5.693   5.831  0.0754 -1.1651 -0.2179
 5520SOL    HW125528   6.090   5.782   5.843 -1.2143 -1.5792 -0.5055
 5520SOL    HW225529   6.167   5.695   5.747  0.4883 -0.6803  0.0041
 5521SOL     OW25530   0.260   8.765   6.587 -0.3204 -0.7358  0.6230
 5521SOL    HW125531   0.347   8.798   6.612 -0.4039 -0.2577  0.2862
 5521SOL    HW225532   0.246   8.690   6.645  0.3530 -0.8712  0.6243
 5522SOL     OW25533   9.006   3.811   5.342  0.2772 -0.0699  0.2361
 5522SOL    HW125534   8.955   3.884   5.378  2.5319  1.5117  0.4714
 5522SOL    HW225535   9.096   3.831   5.368  1.4051 -1.2744 -2.4258
 5523SOL     OW25536   3.257   1.494   7.930  0.7201 -0.4736  0.1161
 5523SOL    HW125537   3.301   1.481   7.847  2.4981 -0.5966  1.0342
 5523SOL    HW225538   3.170   1.526   7.907  1.1132 -0.6903 -1.7723
 5524SOL     OW25539   3.967   7.147   4.369 -0.2947  0.5641 -0.6333
 5524SOL    HW125540   4.016   7.163   4.288  0.2838  2.0651 -0.0177
 5524SOL    HW225541   4.031   7.106   4.427 -1.0122 -1.5829 -1.2565
 5525SOL     OW25542   0.100   0.551   0.937 -0.1496  0.1043  0.2878
 5525SOL    HW125543   0.120   0.524   1.026  1.1719 -1.7511 -0.5048
 5525SOL    HW225544   0.056   0.475   0.898 -0.5995  0.8404 -0.6934
 5526SOL     OW25545   2.714  12.251   3.550  0.8225  0.2836  0.0507
 5526SOL    HW125546   2.729  12.245   3.644 -0.3896 -3.1957  0.1470
 5526SOL    HW225547   2.629  12.293   3.541  0.5659 -0.1300  0.5474
 5527SOL     OW25548   0.538   4.532  11.063 -0.5324  0.3671 -0.3383
 5527SOL    HW125549   0.501   4.475  10.995 -3.1994  0.4892  0.8868
 5527SOL    HW225550   0.488   4.510  11.142  1.7530  0.9587  1.3732
 5528SOL     OW25551  11.960   0.367  10.602  0.0947  0.8692  0.0803
 5528SOL    HW125552  11.873   0.407  10.597 -0.5882 -0.6538 -1.2142
 5528SOL    HW225553  12.007   0.418  10.668 -1.6302  2.0040  0.4812
 5529SOL     OW25554  10.642   2.391   6.726  0.4164 -0.8068 -0.4893
 5529SOL    HW125555  10.691   2.445   6.788 -1.8842  1.4405 -0.4310
 5529SOL    HW225556  10.593   2.330   6.782 -2.0598  1.5588  0.1248
 5530SOL     OW25557   8.838   2.745   7.051 -0.8596  0.3427 -0.1668
 5530SOL    HW125558   8.830   2.762   7.144 -0.9736  0.1999 -0.1496
 5530SOL    HW225559   8.908   2.803   7.021 -1.2267  0.8197 -0.1066
 5531SOL     OW25560   3.108  11.755   1.223 -0.0104  0.1449  0.1369
 5531SOL    HW125561   3.191  11.711   1.240 -1.2746 -2.2513  0.4235
 5531SOL    HW225562   3.041  11.694   1.253 -1.9370  1.5296 -1.0955
 5532SOL     OW25563   9.192  11.229  12.146 -0.6816  0.1513  0.0672
 5532SOL    HW125564   9.240  11.255  12.224  1.9760  1.2717 -1.8075
 5532SOL    HW225565   9.176  11.310  12.099 -3.2919 -0.3605 -0.0819
 5533SOL     OW25566   8.291   2.039   6.499 -0.1352  0.1590 -0.2915
 5533SOL    HW125567   8.228   2.044   6.572  0.2431 -0.5498  0.0945
 5533SOL    HW225568   8.307   1.946   6.488  0.2923  0.2976 -0.8774
 5534SOL     OW25569   1.329   1.703   0.769  0.3381 -0.2599  0.0599
 5534SOL    HW125570   1.399   1.676   0.829 -1.2521 -0.3616  1.9650
 5534SOL    HW225571   1.268   1.628   0.769  0.1102 -0.0964 -1.3975
 5535SOL     OW25572   3.330   1.954   6.835 -0.5429 -0.3081  0.3024
 5535SOL    HW125573   3.296   1.907   6.759 -3.6582  0.0826  1.2879
 5535SOL    HW225574   3.414   1.912   6.854 -0.4302 -1.4790 -2.3364
 5536SOL     OW25575  10.999  12.052   7.497 -0.3634  1.0130 -0.2741
 5536SOL    HW125576  10.912  12.014   7.510 -0.7641  2.4661  1.8665
 5536SOL    HW225577  10.982  12.144   7.476  0.6485  1.3139  0.1795
 5537SOL     OW25578  12.023  12.192   3.279 -0.0472 -0.3782  0.3340
 5537SOL    HW125579  12.050  12.101   3.296  0.6042 -0.0520  1.1039
 5537SOL    HW225580  11.950  12.184   3.217  1.0385 -1.3618 -0.8849
 5538SOL     OW25581   8.566   5.027   9.959 -0.4835 -0.4315  0.2908
 5538SOL    HW125582   8.597   4.963   9.895  1.3120  0.3244  0.3527
 5538SOL    HW225583   8.642   5.083   9.977 -0.7383 -0.8817  3.4276
 5539SOL     OW25584   8.619   3.658  10.412 -0.0548  0.6895  0.4283
 5539SOL    HW125585   8.598   3.703  10.330 -0.7020  0.0645  0.2381
 5539SOL    HW225586   8.537   3.660  10.462 -0.1336 -0.3655  0.3649
 5540SOL     OW25587   8.456   0.052   9.015 -0.0712  0.3306 -0.7460
 5540SOL    HW125588   8.424   0.077   9.102 -0.4458 -1.2520 -0.4043
 5540SOL    HW225589   8.526  -0.011   9.032  0.3012  0.5092 -1.5855
 5541SOL     OW25590  11.997   4.573   6.375  0.2194 -0.2523  0.0172
 5541SOL    HW125591  12.036   4.644   6.424 -0.1743  0.3076 -0.4674
 5541SOL    HW225592  12.070   4.534   6.327  0.4084 -0.0782  0.1605
 5542SOL     OW25593   5.938  10.814   4.054  0.6996  0.2699 -0.3800
 5542SOL    HW125594   5.886  10.881   4.011 -1.3834 -0.3229  1.0518
 5542SOL    HW225595   5.940  10.841   4.146  0.3233 -1.3235  0.1123
 5543SOL     OW25596  11.117   3.219   2.142 -0.4623 -0.1622  0.4091
 5543SOL    HW125597  11.099   3.128   2.164 -1.7125 -0.6924 -2.4168
 5543SOL    HW225598  11.045   3.268   2.181 -0.2433 -0.4678  1.2107
 5544SOL     OW25599  10.112   5.337   0.161  0.1602  0.1628  0.5432
 5544SOL    HW125600  10.138   5.410   0.216 -1.0519 -0.0262  1.4141
 5544SOL    HW225601  10.025   5.361   0.129  0.5096 -0.0913 -0.6804
 5545SOL     OW25602   7.903  11.390   0.825 -0.2084 -0.0708  0.1076
 5545SOL    HW125603   7.866  11.350   0.747 -1.4478  2.7469 -0.9063
 5545SOL    HW225604   7.997  11.386   0.812 -0.3551 -1.0436 -0.7644
 5546SOL     OW25605   2.059   6.345   0.076 -0.7743  0.0728 -0.2629
 5546SOL    HW125606   1.994   6.364   0.009  0.1966  0.1215 -1.2072
 5546SOL    HW225607   2.101   6.429   0.094 -1.8539  0.3151  1.3271
 5547SOL     OW25608  11.126   7.118  12.239 -0.0488  0.6538  0.2166
 5547SOL    HW125609  11.151   7.207  12.261 -0.7189  0.9627 -0.2478
 5547SOL    HW225610  11.087   7.124  12.152  0.0608 -0.1162  0.1042
 5548SOL     OW25611   5.384   5.419   2.396  0.9176  0.4511 -0.2946
 5548SOL    HW125612   5.421   5.435   2.483  1.1671 -0.7255 -0.1764
 5548SOL    HW225613   5.327   5.495   2.381  0.3390  0.3520  1.1808
 5549SOL     OW25614  11.811  12.533   8.768  0.6620  0.1196 -0.4775
 5549SOL    HW125615  11.725  12.492   8.756  0.7828 -0.4842  0.5386
 5549SOL    HW225616  11.814  12.553   8.862  1.1062  1.3662 -0.7433
 5550SOL     OW25617   7.164  10.906   7.700  0.1109  0.4668 -0.1495
 5550SOL    HW125618   7.143  10.999   7.700  1.9056  0.9414 -1.3111
 5550SOL    HW225619   7.155  10.879   7.791 -2.7918  1.1408 -0.1407
 5551SOL     OW25620   3.000   4.675  11.696  0.3455  0.0731 -0.1137
 5551SOL    HW125621   2.970   4.608  11.757  0.8720 -1.1826 -1.1905
 5551SOL    HW225622   2.920   4.716  11.664 -0.0628 -0.8091 -0.2630
 5552SOL     OW25623  10.257   6.172  11.379 -0.4100  0.3378 -0.6287
 5552SOL    HW125624  10.175   6.189  11.426 -0.9416 -1.4001 -0.8534
 5552SOL    HW225625  10.323   6.163  11.448 -0.5699  0.9283 -0.3977
 5553SOL     OW25626   5.037   3.110  12.042 -0.3849  0.3202  0.2852
 5553SOL    HW125627   5.097   3.079  12.110  1.7645  0.9064 -1.2640
 5553SOL    HW225628   4.974   3.165  12.089  0.1211 -0.5182  2.0076
 5554SOL     OW25629  10.771   9.073   3.822  0.7303  0.6822  0.5094
 5554SOL    HW125630  10.857   9.087   3.863  0.1326  0.6787  1.7885
 5554SOL    HW225631  10.752   9.157   3.780  1.2051  0.7932  0.5023
 5555SOL     OW25632   0.976  10.665   4.308 -0.8744  0.5967  0.4358
 5555SOL    HW125633   0.977  10.731   4.239  1.6907 -1.0929 -1.3572
 5555SOL    HW225634   0.894  10.617   4.294 -0.5268  0.4556 -1.3522
 5556SOL     OW25635   9.914   9.160   4.776 -0.0341  0.1483 -0.0666
 5556SOL    HW125636   9.867   9.080   4.753  1.8218 -0.7763 -0.8938
 5556SOL    HW225637   9.934   9.201   4.692 -2.2926  2.3694  0.3829
 5557SOL     OW25638   3.914   4.038   3.791  0.0042 -0.7418 -0.4210
 5557SOL    HW125639   3.845   4.040   3.725 -1.2893 -1.3396  0.8506
 5557SOL    HW225640   3.979   3.977   3.756  0.4967  0.6894 -2.1539
 5558SOL     OW25641  12.162   6.350   0.329 -0.2369 -0.3987 -0.2603
 5558SOL    HW125642  12.199   6.418   0.273  2.5374 -1.1803  0.4551
 5558SOL    HW225643  12.169   6.270   0.276  2.0986 -1.0840  0.9165
 5559SOL     OW25644   0.425  11.014   3.841 -0.8255  0.1571 -0.1448
 5559SOL    HW125645   0.423  10.928   3.798 -2.4683  0.5788 -0.9593
 5559SOL    HW225646   0.363  11.006   3.914 -0.4502  0.4441  0.2099
 5560SOL     OW25647  11.676   2.223   3.359  0.1701 -0.1676 -0.0413
 5560SOL    HW125648  11.583   2.204   3.347  0.1201  0.4600 -0.7112
 5560SOL    HW225649  11.706   2.156   3.421 -0.9428  0.2543  0.9960
 5561SOL     OW25650   9.324   1.113  10.513 -0.3417 -0.6411  0.1803
 5561SOL    HW125651   9.402   1.167  10.524  1.8634 -3.8361  1.8934
 5561SOL    HW225652   9.300   1.125  10.421  2.5410  0.0641 -0.5936
 5562SOL     OW25653   6.132   7.666   3.304 -0.1908  0.2340 -0.3797
 5562SOL    HW125654   6.068   7.596   3.317 -1.0398  0.8756 -0.9944
 5562SOL    HW225655   6.112   7.730   3.372 -1.7628  1.5211 -1.9416
 5563SOL     OW25656   7.353  10.769   3.907  0.0774 -0.4911  0.1368
 5563SOL    HW125657   7.396  10.764   3.821  2.3679  1.5589  1.0606
 5563SOL    HW225658   7.309  10.685   3.916  0.8167 -1.2727 -2.4965
 5564SOL     OW25659   9.005   9.755  10.784 -0.3843 -0.2178 -0.5721
 5564SOL    HW125660   9.021   9.664  10.808 -0.1783 -0.1346 -0.3791
 5564SOL    HW225661   8.911   9.761  10.771 -0.4558 -0.3539 -0.1305
 5565SOL     OW25662   9.613   7.733   0.668 -0.0556  0.4226 -0.5772
 5565SOL    HW125663   9.555   7.663   0.699  0.7551  0.9663  2.5108
 5565SOL    HW225664   9.687   7.688   0.628 -1.1333 -0.3436 -1.7729
 5566SOL     OW25665   4.913   9.999  10.260 -0.3484  0.1360  0.0794
 5566SOL    HW125666   4.863  10.058  10.203  0.4158  1.7956  1.0435
 5566SOL    HW225667   4.992  10.049  10.283  0.3027 -1.2535  1.0008
 5567SOL     OW25668  10.844   5.424   1.653 -0.1917  0.0745  1.1348
 5567SOL    HW125669  10.809   5.505   1.690 -1.3122  0.8544 -1.3952
 5567SOL    HW225670  10.767   5.377   1.621  0.6729 -0.3903 -0.3846
 5568SOL     OW25671   9.657   0.002   6.298 -0.2983  0.2187  0.4307
 5568SOL    HW125672   9.675  -0.063   6.366  0.0533 -2.6666 -2.2185
 5568SOL    HW225673   9.739   0.011   6.250 -0.3427  2.7123  0.6637
 5569SOL     OW25674   4.101  12.525   2.692 -0.8181 -0.0778 -0.2181
 5569SOL    HW125675   4.151  12.446   2.670 -0.3833  0.2617 -0.4640
 5569SOL    HW225676   4.162  12.579   2.742 -1.4732 -0.3884  0.9640
 5570SOL     OW25677   3.908   7.445   3.987 -0.4452  0.0080 -0.1850
 5570SOL    HW125678   3.946   7.396   3.914  0.8187  0.3713  0.2038
 5570SOL    HW225679   3.977   7.448   4.053 -0.7566  1.6395  0.1137
 5571SOL     OW25680  10.759   1.786   0.036  0.2167 -0.1225 -0.1761
 5571SOL    HW125681  10.848   1.814   0.012  1.1490 -1.2324  1.6873
 5571SOL    HW225682  10.721   1.864   0.078 -0.0579  0.6417 -1.7872
 5572SOL     OW25683   2.481   6.236   7.016 -0.2502 -0.0234 -0.9958
 5572SOL    HW125684   2.553   6.290   6.986 -0.1957  1.0377  0.8985
 5572SOL    HW225685   2.419   6.298   7.056 -1.5855 -1.0470 -1.4040
 5573SOL     OW25686  11.530   7.180   1.691 -0.0042 -0.4140 -0.3767
 5573SOL    HW125687  11.559   7.145   1.775  1.3741  0.5974 -0.3930
 5573SOL    HW225688  11.548   7.274   1.697 -0.7446 -0.1909 -1.4603
 5574SOL     OW25689   5.183  10.369   0.695  0.0807  0.2204 -0.6876
 5574SOL    HW125690   5.218  10.441   0.643 -1.3298  0.9560 -0.6405
 5574SOL    HW225691   5.091  10.390   0.708 -0.8806 -2.4846 -2.2344
 5575SOL     OW25692  12.217   2.348   9.198  0.2479 -0.5337  0.0148
 5575SOL    HW125693  12.215   2.418   9.263 -1.0017  0.4818 -1.0638
 5575SOL    HW225694  12.169   2.383   9.123 -1.5690 -3.0138 -0.1002
 5576SOL     OW25695   9.760  10.688  11.500 -0.4179  0.6124 -0.1841
 5576SOL    HW125696   9.856  10.688  11.495 -0.2622 -0.4508  1.7648
 5576SOL    HW225697   9.735  10.779  11.488  0.7569  0.7717 -1.6625
 5577SOL     OW25698   0.315   7.879   0.476  0.0921  0.0736 -0.6485
 5577SOL    HW125699   0.320   7.870   0.381 -1.1235 -2.2650 -0.5609
 5577SOL    HW225700   0.233   7.836   0.500  1.5731 -1.7179  1.6972
 5578SOL     OW25701   9.884   0.445  11.137 -0.1111 -0.5951  0.0966
 5578SOL    HW125702   9.851   0.498  11.209 -0.1456 -0.6373  0.1122
 5578SOL    HW225703   9.812   0.444  11.074 -0.4653 -1.3903  0.5030
 5579SOL     OW25704   3.523   7.883   5.421  0.1164  0.5165  0.3748
 5579SOL    HW125705   3.459   7.888   5.492 -0.5039  0.2205 -0.1549
 5579SOL    HW225706   3.511   7.965   5.372  0.9235  0.9722  0.9218
 5580SOL     OW25707   7.808   8.430   3.283  0.3330  0.0112  0.2331
 5580SOL    HW125708   7.838   8.350   3.326  0.1174 -0.1276  0.1288
 5580SOL    HW225709   7.854   8.500   3.329 -0.3560 -0.0894  1.1218
 5581SOL     OW25710   7.553   1.223  12.167 -0.2139  0.1806 -0.1909
 5581SOL    HW125711   7.598   1.233  12.251 -1.3031 -0.1056  0.4461
 5581SOL    HW225712   7.546   1.312  12.133 -0.3092  0.3716  0.3159
 5582SOL     OW25713   2.730   8.081   1.335 -0.3944  0.1145  0.1756
 5582SOL    HW125714   2.810   8.123   1.366 -0.2685  1.7392 -2.0787
 5582SOL    HW225715   2.760   8.002   1.290 -0.1904 -0.0077  0.5268
 5583SOL     OW25716   6.503   5.924   8.864  0.3889  0.5786 -0.2887
 5583SOL    HW125717   6.571   5.969   8.915  1.0305  0.1175 -0.7171
 5583SOL    HW225718   6.552   5.873   8.799 -0.1508 -2.1699  1.2808
 5584SOL     OW25719   5.388  11.595   7.859 -0.0181 -0.2931  0.2009
 5584SOL    HW125720   5.389  11.658   7.931 -0.6344 -0.2173  0.1450
 5584SOL    HW225721   5.365  11.648   7.782 -0.9247 -0.6576  0.2194
 5585SOL     OW25722  10.470   1.548  10.005 -0.5747 -0.4457 -0.2451
 5585SOL    HW125723  10.408   1.611   9.968  0.6504  1.4192  0.7306
 5585SOL    HW225724  10.550   1.560   9.953  0.0010 -0.4206  0.6246
 5586SOL     OW25725   1.024   1.876   6.814  0.3835 -0.1818 -0.1156
 5586SOL    HW125726   0.945   1.931   6.815  0.2675 -0.2965 -1.6228
 5586SOL    HW225727   0.996   1.793   6.778  0.5145 -1.4002  2.3596
 5587SOL     OW25728  12.065   7.288  10.526 -0.4035 -0.2683  0.1815
 5587SOL    HW125729  11.981   7.288  10.573 -0.1548  1.4681  0.7137
 5587SOL    HW225730  12.112   7.212  10.562 -0.8817  0.0382  1.5387
 5588SOL     OW25731  10.895   3.277   3.095  0.0102 -0.2241 -0.6972
 5588SOL    HW125732  10.805   3.273   3.063 -0.0785  1.9398 -0.8808
 5588SOL    HW225733  10.932   3.355   3.052  1.3431  0.0657  0.8721
 5589SOL     OW25734   4.052   2.871   5.368  0.5790 -0.1301  0.4134
 5589SOL    HW125735   4.137   2.904   5.341  0.3952 -0.3722 -0.5084
 5589SOL    HW225736   3.999   2.874   5.288 -0.3533  0.2626  1.0326
 5590SOL     OW25737   6.757   0.499   5.373 -0.2363 -0.7035 -0.1646
 5590SOL    HW125738   6.833   0.551   5.348 -0.4686 -0.7220 -0.9496
 5590SOL    HW225739   6.779   0.461   5.458  0.9977 -1.4346 -0.7888
 5591SOL     OW25740   5.488   9.000   0.901 -0.2593 -0.4590 -0.1768
 5591SOL    HW125741   5.440   9.070   0.944  0.8329 -1.4809  2.9468
 5591SOL    HW225742   5.572   8.996   0.946  0.8757 -1.8923 -2.2272
 5592SOL     OW25743  11.710   0.398   8.859 -0.0572  0.5756 -0.0093
 5592SOL    HW125744  11.794   0.365   8.893 -0.0639 -0.4802 -0.9658
 5592SOL    HW225745  11.725   0.408   8.765 -0.9644  0.5327 -0.1592
 5593SOL     OW25746   9.117   5.414   4.969  0.2694 -0.2990 -0.7512
 5593SOL    HW125747   9.162   5.428   5.052 -0.6210 -0.0759 -0.2910
 5593SOL    HW225748   9.148   5.485   4.912 -0.0147  0.2581 -0.2185
 5594SOL     OW25749   2.513   1.725   8.908 -0.0987 -0.1572 -0.5251
 5594SOL    HW125750   2.418   1.733   8.917 -0.1860  0.3492 -1.6809
 5594SOL    HW225751   2.548   1.753   8.993 -0.9493  0.6999 -0.4426
 5595SOL     OW25752   7.161  10.255   9.776 -0.0340 -0.0155  0.0907
 5595SOL    HW125753   7.179  10.336   9.825 -1.9510 -0.4405  1.5947
 5595SOL    HW225754   7.085  10.276   9.722 -0.3685 -0.7012  0.2791
 5596SOL     OW25755  10.875   3.214   1.796  0.5259 -0.3025 -0.0703
 5596SOL    HW125756  10.966   3.213   1.825 -0.0614  1.9877  2.2357
 5596SOL    HW225757  10.873   3.279   1.725  0.8197 -1.1246 -0.8553
 5597SOL     OW25758   6.815  10.450  10.245 -0.2270  0.0835 -0.7357
 5597SOL    HW125759   6.868  10.399  10.307 -1.6857 -0.2260  0.2929
 5597SOL    HW225760   6.758  10.503  10.299  1.0503  2.7151 -1.7814
 5598SOL     OW25761   1.925   4.438   8.389  0.0934  0.1855  0.2241
 5598SOL    HW125762   1.944   4.482   8.307 -0.2025  2.9962  1.5660
 5598SOL    HW225763   1.909   4.347   8.364 -1.3032  1.1842 -2.9749
 5599SOL     OW25764   8.836   4.463   5.672 -0.5047 -0.7157 -0.0352
 5599SOL    HW125765   8.904   4.529   5.657  1.0106 -2.0021  0.8917
 5599SOL    HW225766   8.770   4.509   5.724 -0.0743  0.3779 -0.4066
 5600SOL     OW25767  10.012   5.867   7.142  0.0118  0.2691 -0.7281
 5600SOL    HW125768   9.938   5.809   7.158 -0.5230  1.1518  0.1733
 5600SOL    HW225769  10.087   5.809   7.130 -0.5799 -0.6126 -0.2372
 5601SOL     OW25770  11.246   6.454   1.163 -0.0961  0.4871 -0.0358
 5601SOL    HW125771  11.336   6.474   1.190  0.1769 -0.7213 -0.0325
 5601SOL    HW225772  11.253   6.375   1.110 -1.0171  1.0713 -1.0758
 5602SOL     OW25773  10.613   2.509   3.663  0.0035 -0.2402 -0.3171
 5602SOL    HW125774  10.592   2.443   3.729  2.8771  1.0442  2.0994
 5602SOL    HW225775  10.678   2.468   3.607  1.1157  0.1680  0.6352
 5603SOL     OW25776   2.563   6.309  10.661  0.0241  0.2406 -0.2048
 5603SOL    HW125777   2.524   6.317  10.748 -1.9402  2.4629 -1.1865
 5603SOL    HW225778   2.507   6.248  10.614 -0.6382  1.2268 -0.7356
 5604SOL     OW25779   7.850   7.013  12.423 -0.0809  0.5326  0.1274
 5604SOL    HW125780   7.897   7.044  12.345  0.4753 -0.4727  0.0456
 5604SOL    HW225781   7.769   6.976  12.390  0.2392 -0.0627 -0.0003
 5605SOL     OW25782   9.364   2.606   7.251 -0.6629 -0.1533  0.2411
 5605SOL    HW125783   9.270   2.615   7.272 -0.2069  0.6119  2.1811
 5605SOL    HW225784   9.384   2.515   7.274 -0.9642 -0.3796 -0.3719
 5606SOL     OW25785  11.077   3.796  11.391  0.0320  0.4679 -0.2233
 5606SOL    HW125786  11.116   3.750  11.465 -3.2344 -1.1909  0.6691
 5606SOL    HW225787  11.098   3.742  11.315 -0.1423 -0.1826  0.1831
 5607SOL     OW25788   0.658   5.799   9.538  0.3547 -0.1366 -0.2337
 5607SOL    HW125789   0.667   5.892   9.516  1.4385  0.2715  1.6399
 5607SOL    HW225790   0.592   5.798   9.607  1.3058 -0.5526  0.7027
 5608SOL     OW25791  11.496   0.105   7.472  0.1913  0.0203  0.1728
 5608SOL    HW125792  11.466   0.176   7.415  0.8125  0.0099 -0.1817
 5608SOL    HW225793  11.514   0.148   7.556 -0.3307  0.1099  0.2411
 5609SOL     OW25794   1.155   8.584   1.492 -0.3692  0.1157 -0.3231
 5609SOL    HW125795   1.106   8.632   1.425 -0.7771  1.7176  1.0581
 5609SOL    HW225796   1.088   8.550   1.551  0.0331 -0.3749 -0.1451
 5610SOL     OW25797   4.734   2.517   1.963 -0.0384 -0.1623 -0.0678
 5610SOL    HW125798   4.755   2.572   2.039  0.3285  0.2824 -0.4817
 5610SOL    HW225799   4.638   2.509   1.965 -0.3347  2.1412 -1.0830
 5611SOL     OW25800   9.618  11.402   1.572 -0.1743  0.1138 -0.5969
 5611SOL    HW125801   9.627  11.307   1.571 -0.9112  0.0326 -0.1387
 5611SOL    HW225802   9.696  11.434   1.527  0.4889 -0.6839 -0.0524
 5612SOL     OW25803   2.207   1.566   9.395  0.5102  0.4801  0.6154
 5612SOL    HW125804   2.118   1.531   9.382  0.9127 -0.2307 -0.3027
 5612SOL    HW225805   2.247   1.563   9.308  0.7327  2.8294  0.5796
 5613SOL     OW25806   6.386  10.236   8.758 -0.1513  0.1150 -0.2730
 5613SOL    HW125807   6.336  10.315   8.736 -0.3778 -0.3319 -1.4376
 5613SOL    HW225808   6.332  10.191   8.822  1.0218  1.9814  2.2353
 5614SOL     OW25809   7.027   0.620   0.422 -0.1575  0.3048  0.1766
 5614SOL    HW125810   6.942   0.583   0.443 -0.4740  0.4225 -0.8426
 5614SOL    HW225811   7.008   0.699   0.371  0.5578 -0.3719 -1.1962
 5615SOL     OW25812   3.223   5.785   2.381 -0.3385  0.2365 -0.0539
 5615SOL    HW125813   3.179   5.834   2.312  2.1578  2.5307 -0.1809
 5615SOL    HW225814   3.298   5.744   2.337  0.1808  0.1041  0.9270
 5616SOL     OW25815   0.141   0.933   6.796 -0.5303  0.0083 -0.1233
 5616SOL    HW125816   0.096   1.010   6.832 -0.3495 -0.1169  0.3722
 5616SOL    HW225817   0.234   0.955   6.802 -0.4304 -0.6665  0.9826
 5617SOL     OW25818   4.516   5.669   2.246  0.5236  0.4839  0.2487
 5617SOL    HW125819   4.603   5.660   2.284  0.9102  0.9572 -0.4853
 5617SOL    HW225820   4.528   5.642   2.154 -0.3733 -0.6231  0.4290
 5618SOL     OW25821   3.881  11.075  11.573  0.2650  0.0072 -0.1397
 5618SOL    HW125822   3.815  11.144  11.571  1.6285  1.4131  0.6615
 5618SOL    HW225823   3.833  10.994  11.553 -1.5668  1.0404 -0.1112
 5619SOL     OW25824  10.977  10.894   5.951 -0.0721  0.1462 -0.5351
 5619SOL    HW125825  11.029  10.821   5.984  2.2681  2.9088  2.4428
 5619SOL    HW225826  10.929  10.927   6.027 -1.9578  1.0854 -2.0329
 5620SOL     OW25827   6.458  10.724   2.712  0.5396 -0.0398 -0.5049
 5620SOL    HW125828   6.529  10.665   2.736  0.4513  0.2741  0.6040
 5620SOL    HW225829   6.418  10.684   2.635  0.4805 -1.4429  0.2139
 5621SOL     OW25830  12.429  11.592  12.141  0.1826 -0.1617  0.2877
 5621SOL    HW125831  12.439  11.627  12.052  1.0912  0.4062  0.5952
 5621SOL    HW225832  12.489  11.645  12.194  2.2323 -2.6634  0.6800
 5622SOL     OW25833   6.925  10.231   3.477 -0.6071 -0.0207  0.1949
 5622SOL    HW125834   6.840  10.218   3.521 -0.6587  0.6793  0.3137
 5622SOL    HW225835   6.987  10.242   3.549 -0.5770  0.4327  0.1007
 5623SOL     OW25836   6.727   9.482   3.055 -0.1445  0.1114 -0.1432
 5623SOL    HW125837   6.738   9.424   3.131 -0.3376 -0.3117 -0.4310
 5623SOL    HW225838   6.794   9.549   3.065  0.7245 -0.7252 -0.3209
 5624SOL     OW25839   2.039   2.060   8.217  0.3157 -0.3833 -0.0501
 5624SOL    HW125840   2.114   2.023   8.262  0.8901  2.0238  1.1304
 5624SOL    HW225841   2.076   2.116   8.149 -0.4964 -1.1850 -1.2010
 5625SOL     OW25842  12.221   2.839   9.854 -0.1115  0.0557 -0.0132
 5625SOL    HW125843  12.282   2.909   9.877  0.9811 -1.0328  0.5052
 5625SOL    HW225844  12.192   2.860   9.765 -0.1920  1.4175  0.3147
 5626SOL     OW25845   6.369   2.872   3.950  0.2279 -0.6519  0.1713
 5626SOL    HW125846   6.359   2.807   3.881 -0.4035 -0.5914  0.1970
 5626SOL    HW225847   6.404   2.824   4.025  1.3265 -0.6362 -0.3155
 5627SOL     OW25848   8.420  10.325   9.224  0.6100 -0.2992 -0.6549
 5627SOL    HW125849   8.416  10.245   9.276 -0.3316  0.7236  0.9386
 5627SOL    HW225850   8.334  10.334   9.184  0.8969 -0.3632 -1.3154
 5628SOL     OW25851   8.897  11.543  10.918 -0.1447 -0.1282  0.4414
 5628SOL    HW125852   8.871  11.511  10.832  1.7841 -2.0284  0.5025
 5628SOL    HW225853   8.815  11.575  10.957 -1.5225 -1.5542 -1.1077
 5629SOL     OW25854   6.957   6.145   4.200  0.0631  0.0903 -0.5449
 5629SOL    HW125855   7.009   6.173   4.275  0.1047 -0.4103 -0.3854
 5629SOL    HW225856   7.012   6.081   4.155  0.1254  0.5391 -1.1266
 5630SOL     OW25857   8.445   2.065   0.238  0.1221 -0.2763 -0.5838
 5630SOL    HW125858   8.505   2.020   0.178 -0.4431 -2.1566  0.1803
 5630SOL    HW225859   8.367   2.010   0.239 -1.3741  1.7516 -1.0021
 5631SOL     OW25860   1.033  11.579   7.531 -0.1703  0.0915 -0.5490
 5631SOL    HW125861   1.031  11.485   7.548 -0.6829  0.0486 -0.8326
 5631SOL    HW225862   0.990  11.589   7.446 -0.8345  0.6583 -0.1552
 5632SOL     OW25863   5.064   5.225   9.286 -0.1794  0.3015 -0.1159
 5632SOL    HW125864   5.118   5.256   9.214  0.6550 -1.7212 -0.4104
 5632SOL    HW225865   5.096   5.137   9.305  0.9676  1.3602  4.0104
 5633SOL     OW25866  10.476  11.961  12.231  0.1333 -0.4506 -0.0933
 5633SOL    HW125867  10.529  11.972  12.151 -0.5631 -1.4027 -0.7013
 5633SOL    HW225868  10.391  11.999  12.209 -0.6416 -2.3015 -0.4483
 5634SOL     OW25869   8.613   0.884   5.763 -0.4049 -0.3052  0.4078
 5634SOL    HW125870   8.555   0.908   5.692  0.1605  0.9907  0.3577
 5634SOL    HW225871   8.673   0.819   5.725 -1.1578 -0.8772  0.1860
 5635SOL     OW25872  11.875   6.157   7.243 -0.4978  0.4632  0.1482
 5635SOL    HW125873  11.876   6.121   7.331  1.7807 -1.4402 -0.5270
 5635SOL    HW225874  11.947   6.220   7.242  0.1295 -0.2416 -0.5692
 5636SOL     OW25875   6.285   2.253   3.753 -0.2652  0.4644 -0.2994
 5636SOL    HW125876   6.272   2.296   3.669 -0.7759  0.2305 -0.3436
 5636SOL    HW225877   6.213   2.190   3.759  0.1666 -0.0044  0.0023
 5637SOL     OW25878  10.394   4.662   6.648  0.1170  0.3651  0.0444
 5637SOL    HW125879  10.443   4.580   6.649 -0.8585 -0.2358  1.1496
 5637SOL    HW225880  10.333   4.653   6.575 -0.6809 -0.3360  0.7802
 5638SOL     OW25881   3.172   6.545   2.259 -0.2221  0.1742  0.1481
 5638SOL    HW125882   3.248   6.512   2.211 -0.1374  0.7590 -0.1335
 5638SOL    HW225883   3.161   6.484   2.332  1.3373  0.7827  0.9477
 5639SOL     OW25884  10.595   0.922   1.724  0.2382 -0.4093  0.3240
 5639SOL    HW125885  10.667   0.859   1.721 -0.1993 -0.9431  0.8663
 5639SOL    HW225886  10.618   0.987   1.658  1.8961  0.1820  1.4390
 5640SOL     OW25887   9.421   5.235  10.637  0.0837 -0.2725 -0.3872
 5640SOL    HW125888   9.384   5.213  10.722  1.0496 -1.9809 -0.3587
 5640SOL    HW225889   9.514   5.211  10.645  0.6594  1.5098 -1.2557
 5641SOL     OW25890  11.823  12.427   3.519 -0.2073 -0.1435 -0.0250
 5641SOL    HW125891  11.859  12.362   3.579  0.1393 -1.3622 -1.4884
 5641SOL    HW225892  11.737  12.393   3.495  0.7324 -1.1649 -2.2877
 5642SOL     OW25893   7.217  11.836   4.122 -0.4512  0.8259  0.3904
 5642SOL    HW125894   7.212  11.913   4.179 -2.1534  1.4599 -0.5466
 5642SOL    HW225895   7.126  11.804   4.118 -0.0326 -0.3160 -0.4764
 5643SOL     OW25896  11.518   1.250  10.011 -1.1652  0.5621  0.2165
 5643SOL    HW125897  11.466   1.322  10.046  0.2947  2.0453 -0.5616
 5643SOL    HW225898  11.456   1.199   9.958 -2.1830  1.3262  0.6345
 5644SOL     OW25899   7.486   0.752  10.164  0.4031  0.1104 -0.1812
 5644SOL    HW125900   7.444   0.791  10.241 -1.7074  0.4789 -1.4282
 5644SOL    HW225901   7.470   0.658  10.173  0.8107  0.0751  0.1918
 5645SOL     OW25902   4.747   6.023   9.995 -0.0854  0.5754 -0.1723
 5645SOL    HW125903   4.668   5.978   9.966 -0.6183  0.3462  1.5582
 5645SOL    HW225904   4.722   6.115   9.998 -0.3766  0.4755  0.6172
 5646SOL     OW25905   0.712   9.858  12.391 -0.1694 -0.3519  0.3588
 5646SOL    HW125906   0.698   9.893  12.303 -0.5156 -1.2668  0.0401
 5646SOL    HW225907   0.795   9.812  12.387 -0.8871 -1.6860  0.0715
 5647SOL     OW25908   3.854  12.441   6.212 -0.3203  0.1641  1.0727
 5647SOL    HW125909   3.772  12.418   6.168 -0.4705  2.5399 -0.0210
 5647SOL    HW225910   3.826  12.496   6.286  0.1372 -1.5445  2.6034
 5648SOL     OW25911   7.961   6.185  11.074 -0.1199  0.3556 -0.1295
 5648SOL    HW125912   7.966   6.239  10.995 -1.6329  1.8826  0.7465
 5648SOL    HW225913   7.881   6.133  11.063 -0.3368  0.5762  0.3765
 5649SOL     OW25914   9.235   7.262  12.544 -0.6332  0.1945  0.2268
 5649SOL    HW125915   9.152   7.309  12.540 -0.6213  0.1927 -0.1125
 5649SOL    HW225916   9.283   7.302  12.616 -1.1751 -0.2116  0.8190
 5650SOL     OW25917   2.277   2.798   8.451 -0.1166 -0.2486 -0.3458
 5650SOL    HW125918   2.238   2.771   8.368  0.8392  0.5115 -1.0663
 5650SOL    HW225919   2.328   2.877   8.430  0.7356 -0.4537  0.8157
 5651SOL     OW25920   8.295   2.977  12.046  0.6891  0.1099 -1.0385
 5651SOL    HW125921   8.351   2.900  12.044  0.5583 -0.0287 -0.0403
 5651SOL    HW225922   8.277   2.991  12.139 -1.1279  0.0159 -1.3313
 5652SOL     OW25923  12.226  10.103   7.984  0.1553  0.2607  0.0781
 5652SOL    HW125924  12.235  10.191   7.948  0.0418 -0.2257 -1.1748
 5652SOL    HW225925  12.131  10.091   7.994  0.0630 -0.2966 -1.2810
 5653SOL     OW25926  10.449   3.177  12.509 -0.1846  0.0797 -0.2097
 5653SOL    HW125927  10.540   3.189  12.537 -0.8218 -0.6363  2.4728
 5653SOL    HW225928  10.398   3.230  12.570 -1.5751  1.5264 -2.4682
 5654SOL     OW25929   0.704   6.934   4.494 -0.0220  0.0646  0.0255
 5654SOL    HW125930   0.721   6.896   4.408 -0.7819  0.5426 -0.3446
 5654SOL    HW225931   0.646   7.008   4.477  0.2575  0.5050  0.8935
 5655SOL     OW25932   8.501   1.418  11.726 -0.1488  0.4126 -0.2228
 5655SOL    HW125933   8.412   1.426  11.693 -0.2736 -1.0065 -0.2830
 5655SOL    HW225934   8.548   1.491  11.686 -0.8440  0.0860 -1.6844
 5656SOL     OW25935   0.264  12.526   1.328 -0.0541 -0.0432  0.2346
 5656SOL    HW125936   0.178  12.564   1.345  0.0300  0.0141  0.5483
 5656SOL    HW225937   0.307  12.588   1.269 -0.6941 -0.7012 -0.9500
 5657SOL     OW25938   5.966   4.125   3.529 -0.1733  0.2810  0.1775
 5657SOL    HW125939   5.952   4.039   3.568  0.1340  1.1900  2.4522
 5657SOL    HW225940   6.060   4.139   3.535 -0.4249  1.6436  1.9660
 5658SOL     OW25941  10.730   1.641   4.324 -0.7561  0.1264  0.6220
 5658SOL    HW125942  10.655   1.687   4.287 -0.3922 -1.0750 -1.8097
 5658SOL    HW225943  10.692   1.562   4.363 -0.8769 -0.0723  0.1197
 5659SOL     OW25944   3.867   2.958   5.773  0.5395  0.1102  0.3664
 5659SOL    HW125945   3.935   2.985   5.835  0.4770  0.6563  0.2080
 5659SOL    HW225946   3.893   3.000   5.690  0.3855 -0.2510  0.1355
 5660SOL     OW25947   5.452   0.884   9.286 -0.4030 -0.2540  0.9093
 5660SOL    HW125948   5.459   0.853   9.377 -1.8347 -0.7580  0.8668
 5660SOL    HW225949   5.360   0.904   9.274 -0.0471  0.8938 -0.1130
 5661SOL     OW25950   1.222   4.325   1.896 -0.0776 -0.4787  0.2018
 5661SOL    HW125951   1.143   4.282   1.928 -0.8267  0.8697  0.2463
 5661SOL    HW225952   1.251   4.272   1.822 -0.7251 -1.2701  0.5099
 5662SOL     OW25953   2.411   9.992  12.492  0.6893 -0.0747 -0.4617
 5662SOL    HW125954   2.418   9.931  12.566 -0.0946  0.7476  0.3132
 5662SOL    HW225955   2.501  10.007  12.465  1.0739  0.3536  0.9571
 5663SOL     OW25956  10.262   7.883   9.168  0.1164  0.0236 -0.1940
 5663SOL    HW125957  10.174   7.911   9.189  0.5146  1.1660  0.0208
 5663SOL    HW225958  10.260   7.788   9.175 -0.8276  0.1052  0.8289
 5664SOL     OW25959   5.942   0.095  10.272 -0.7431 -0.6446 -0.4795
 5664SOL    HW125960   5.876   0.048  10.322 -1.8220 -1.6359 -2.7141
 5664SOL    HW225961   6.024   0.052  10.294 -0.7799  0.4354  2.1392
 5665SOL     OW25962   4.585   8.525   6.761  0.7427  1.1162 -0.8203
 5665SOL    HW125963   4.528   8.600   6.777  0.5872  0.7694  0.4160
 5665SOL    HW225964   4.653   8.533   6.828  0.8793  0.3175 -0.8574
 5666SOL     OW25965  10.638   0.943  10.245 -0.0703  0.1781  0.0297
 5666SOL    HW125966  10.621   1.031  10.278  1.3689  0.4868  0.0504
 5666SOL    HW225967  10.627   0.951  10.150 -0.6327  0.1990  0.0940
 5667SOL     OW25968   1.854   1.295   6.809 -0.5494 -0.2825  0.0135
 5667SOL    HW125969   1.839   1.380   6.851 -0.5917 -0.6244  0.7103
 5667SOL    HW225970   1.766   1.258   6.798 -0.4343 -1.7426  2.9463
 5668SOL     OW25971   6.187   6.855   5.819 -0.0388 -0.2123 -0.0080
 5668SOL    HW125972   6.103   6.884   5.784  0.0356  1.5918  1.1785
 5668SOL    HW225973   6.251   6.914   5.779  0.4523 -0.4742  0.3906
 5669SOL     OW25974   1.332   7.050   1.448  0.0786 -0.1047  0.0158
 5669SOL    HW125975   1.252   7.056   1.396 -0.3934  0.6415  0.8062
 5669SOL    HW225976   1.302   7.035   1.537  0.8418 -0.2650  0.2553
 5670SOL     OW25977   6.568   1.991  10.924 -0.2816  0.0665 -0.0725
 5670SOL    HW125978   6.594   2.068  10.872 -2.5990  0.8271 -0.2125
 5670SOL    HW225979   6.623   1.920  10.891  1.7824  1.5847 -0.1025
 5671SOL     OW25980   7.078  10.496   6.462  0.3356 -0.1657 -0.1863
 5671SOL    HW125981   7.167  10.487   6.495 -0.5192 -0.0179  2.3658
 5671SOL    HW225982   7.042  10.408   6.469 -0.8640  0.4458  2.5962
 5672SOL     OW25983   2.744   0.004  10.525 -0.3873  0.4583 -0.2653
 5672SOL    HW125984   2.728  -0.083  10.562  0.3770  1.4009  2.5185
 5672SOL    HW225985   2.755   0.060  10.601  2.3648  2.4133 -1.9525
 5673SOL     OW25986   1.563   5.258   0.977  0.0255 -0.4458 -0.1011
 5673SOL    HW125987   1.652   5.280   1.003  0.1063 -0.0490 -0.6797
 5673SOL    HW225988   1.563   5.267   0.882 -1.1539  1.5947  0.0341
 5674SOL     OW25989   6.727   0.927   1.779  0.5721  0.4345 -0.7763
 5674SOL    HW125990   6.692   0.855   1.831 -0.2206  1.2585 -0.1156
 5674SOL    HW225991   6.786   0.886   1.716  0.7693 -0.6940  0.1213
 5675SOL     OW25992   2.153   7.391   9.815  0.2895 -0.2817  0.2862
 5675SOL    HW125993   2.058   7.401   9.817  0.1898 -0.9955 -0.5255
 5675SOL    HW225994   2.169   7.319   9.754  1.3867  0.2546 -0.0836
 5676SOL     OW25995   1.795   1.341   4.754  0.3699 -0.1920  0.0781
 5676SOL    HW125996   1.728   1.402   4.724  1.0438  0.9932  0.8876
 5676SOL    HW225997   1.747   1.268   4.792 -0.4649  0.4968  0.3662
 5677SOL     OW25998   5.698   4.466   3.390  0.4683  0.5017 -0.2579
 5677SOL    HW125999   5.692   4.390   3.448 -0.0769  1.1186  0.5204
 5677SOL    HW226000   5.660   4.437   3.307 -0.6294  0.2052  0.3311
 5678SOL     OW26001   5.135   5.107   7.972  0.5739 -0.0049 -0.6028
 5678SOL    HW126002   5.214   5.052   7.967  1.0491  0.2385  2.1698
 5678SOL    HW226003   5.063   5.046   7.959  1.1687 -0.8552 -0.0594
 5679SOL     OW26004   8.682   5.984   3.756 -0.4837  0.4243  0.5160
 5679SOL    HW126005   8.640   6.033   3.827  0.1620  1.2970  0.3047
 5679SOL    HW226006   8.653   6.028   3.676  0.9438  1.1491  0.3710
 5680SOL     OW26007   0.538   4.402  11.966 -0.0438 -0.0140 -0.1001
 5680SOL    HW126008   0.456   4.424  11.921  0.9150  0.1201 -1.8696
 5680SOL    HW226009   0.556   4.312  11.939 -0.7031 -0.8724  2.0730
 5681SOL     OW26010   2.955   6.028   3.458  0.1350 -0.2581  0.6008
 5681SOL    HW126011   2.999   6.106   3.493  0.0311 -0.0428  0.2584
 5681SOL    HW226012   2.862   6.048   3.462  0.1484  0.3869 -1.1531
 5682SOL     OW26013   6.495   8.867   8.553 -0.4829  0.2308  0.3854
 5682SOL    HW126014   6.476   8.949   8.599  1.2899 -0.6599  2.9229
 5682SOL    HW226015   6.409   8.831   8.533 -1.3257  1.6638  1.2003
 5683SOL     OW26016   9.295   6.304   0.717 -0.3951 -0.7584  0.1320
 5683SOL    HW126017   9.325   6.391   0.693  0.0568 -1.3414 -1.5696
 5683SOL    HW226018   9.260   6.314   0.805  2.3065  0.5309  1.1629
 5684SOL     OW26019   3.685  11.843   4.819 -0.1203  0.5722  0.2315
 5684SOL    HW126020   3.701  11.932   4.786 -0.1322  1.1366  1.6674
 5684SOL    HW226021   3.597  11.848   4.857 -0.3237 -0.2018 -0.1256
 5685SOL     OW26022   1.868   6.959   9.506 -0.9399 -0.3008 -0.0807
 5685SOL    HW126023   1.921   6.946   9.428  0.9376 -0.1829  1.1129
 5685SOL    HW226024   1.804   6.887   9.504  1.0934 -2.2298 -0.1384
 5686SOL     OW26025   7.376   8.926   5.304  0.4821 -0.1422  0.1470
 5686SOL    HW126026   7.433   8.860   5.343  0.0895 -0.1944  0.6457
 5686SOL    HW226027   7.426   8.961   5.230  0.3361 -1.6282 -0.6948
 5687SOL     OW26028   5.877   4.105   9.869  0.3942  0.2191  0.1822
 5687SOL    HW126029   5.916   4.143   9.790 -1.3544  0.0775 -0.7924
 5687SOL    HW226030   5.815   4.040   9.836 -1.2527  1.0004  1.6043
 5688SOL     OW26031   6.605   5.154   8.254  0.1115 -0.1726 -0.0004
 5688SOL    HW126032   6.555   5.097   8.196 -0.5722 -1.6555  1.9196
 5688SOL    HW226033   6.688   5.109   8.268  2.1465  2.2389 -3.0968
 5689SOL     OW26034   2.580   9.005   8.287  0.1477  0.4703 -0.2561
 5689SOL    HW126035   2.624   9.086   8.261  0.6690 -0.2781 -1.8647
 5689SOL    HW226036   2.651   8.949   8.319  0.1942 -0.2455 -1.5559
 5690SOL     OW26037   7.207   0.293   8.241 -0.0870 -0.5554 -0.4343
 5690SOL    HW126038   7.202   0.359   8.172  0.8138  1.0249  0.9621
 5690SOL    HW226039   7.267   0.227   8.205 -1.0960 -0.7447 -1.8925
 5691SOL     OW26040   6.965  10.817  11.510  0.5887  0.4688  0.2865
 5691SOL    HW126041   6.902  10.831  11.581  0.0360  0.7524 -0.2538
 5691SOL    HW226042   6.924  10.855  11.433  1.0932 -0.0176 -0.2391
 5692SOL     OW26043   9.553   5.416  10.981  0.3830  0.4513 -0.4899
 5692SOL    HW126044   9.502   5.496  10.968 -1.0418 -0.6619 -2.1649
 5692SOL    HW226045   9.599   5.430  11.064  0.0026  2.8906 -0.6210
 5693SOL     OW26046   7.591   0.923  10.729  0.4568  0.7356  0.3127
 5693SOL    HW126047   7.642   0.908  10.809 -0.2872 -0.5985  0.5781
 5693SOL    HW226048   7.503   0.945  10.760  0.1315  0.0964 -0.1130
 5694SOL     OW26049   0.884  12.459   0.748 -0.0809  0.2970  0.4839
 5694SOL    HW126050   0.930  12.542   0.757 -0.0001  0.2111  0.8408
 5694SOL    HW226051   0.807  12.467   0.804 -0.2113  0.2267  0.3203
 5695SOL     OW26052   6.277  10.923   1.671  0.3338 -0.2882  0.0936
 5695SOL    HW126053   6.248  10.943   1.760 -0.9453  1.9024 -0.7466
 5695SOL    HW226054   6.366  10.958   1.666  0.2732 -0.0860  0.4045
 5696SOL     OW26055   0.008  11.556   3.951  0.3276 -0.6928 -0.8459
 5696SOL    HW126056  -0.005  11.545   4.045  2.5210  1.1893 -0.2133
 5696SOL    HW226057  -0.040  11.636   3.929 -0.2608 -1.1814 -1.3537
 5697SOL     OW26058   9.213   6.947  11.836 -0.2028  0.5300  0.1422
 5697SOL    HW126059   9.179   6.937  11.925  0.1181 -0.5498  0.1595
 5697SOL    HW226060   9.135   6.957  11.781 -0.4480  0.1558  0.4220
 5698SOL     OW26061   6.686   3.734  11.845  0.3928 -0.1888  0.1326
 5698SOL    HW126062   6.604   3.717  11.799  0.3424 -1.2099  0.5571
 5698SOL    HW226063   6.750   3.751  11.776  0.1381 -0.8762 -0.2813
 5699SOL     OW26064   8.142   6.811  12.386  0.5975 -0.5602 -0.7017
 5699SOL    HW126065   8.133   6.846  12.474 -1.0502 -0.4881 -0.8633
 5699SOL    HW226066   8.149   6.888  12.330 -1.4683 -0.4589 -0.9019
 5700SOL     OW26067   4.862  10.722   7.727  0.2032  0.5697  0.0059
 5700SOL    HW126068   4.895  10.764   7.648 -1.2177 -1.2505 -1.6759
 5700SOL    HW226069   4.775  10.761   7.740 -0.3359 -0.3991 -0.4826
 5701SOL     OW26070   4.385   3.655  11.774  0.4013 -0.6615 -0.1959
 5701SOL    HW126071   4.294   3.640  11.749  0.4530 -0.5127 -0.4705
 5701SOL    HW226072   4.385   3.739  11.819  0.4840 -0.4226 -0.6354
 5702SOL     OW26073  11.424   4.657  10.954  0.5279 -0.3853  0.0758
 5702SOL    HW126074  11.371   4.591  10.997 -0.7200 -0.9263 -2.1663
 5702SOL    HW226075  11.507   4.613  10.935 -0.4784 -1.5588 -1.8755
 5703SOL     OW26076   6.116   8.531  12.548 -0.5187 -0.0010 -0.0396
 5703SOL    HW126077   6.047   8.532  12.482 -0.9347 -3.3699  0.1367
 5703SOL    HW226078   6.080   8.581  12.622 -1.5883  0.6647 -0.9868
 5704SOL     OW26079  11.809   9.179   1.547 -0.5694 -0.3309 -0.2917
 5704SOL    HW126080  11.786   9.190   1.639  0.9185 -0.7346  0.1575
 5704SOL    HW226081  11.865   9.254   1.526  0.0003 -0.8112 -0.5414
 5705SOL     OW26082  10.608   6.445   3.391  0.3428  0.2874 -0.4466
 5705SOL    HW126083  10.689   6.492   3.369 -0.5424  3.1081  1.7079
 5705SOL    HW226084  10.599   6.457   3.486 -2.7755  0.3842 -0.6742
 5706SOL     OW26085   3.455   4.364   9.089 -0.9211  0.0582 -0.2001
 5706SOL    HW126086   3.410   4.406   9.015 -0.4521  1.7392  0.4259
 5706SOL    HW226087   3.547   4.363   9.063 -0.9606 -0.8843 -0.3275
 5707SOL     OW26088   7.848   5.181   8.194  0.0063  0.1608 -0.0082
 5707SOL    HW126089   7.839   5.276   8.196 -0.8873  0.1071 -0.6210
 5707SOL    HW226090   7.837   5.158   8.102  1.4924 -0.4374 -0.0563
 5708SOL     OW26091   2.100   6.575   4.932  0.0544 -0.0588 -0.1300
 5708SOL    HW126092   2.125   6.640   4.867 -0.5517 -1.3066 -1.6829
 5708SOL    HW226093   2.033   6.618   4.985 -0.9705  0.3344 -1.6701
 5709SOL     OW26094   4.577   0.839   3.278  0.5767 -0.0806 -0.1815
 5709SOL    HW126095   4.549   0.822   3.188  1.9289 -2.5559 -0.2260
 5709SOL    HW226096   4.556   0.759   3.326  0.6399  0.8807  1.5314
 5710SOL     OW26097   0.468   2.945   3.642  0.0816  0.0864 -0.4796
 5710SOL    HW126098   0.513   2.948   3.727  1.3067 -1.3109 -1.0419
 5710SOL    HW226099   0.527   2.897   3.585 -0.9341  0.5929 -2.0241
 5711SOL     OW26100   6.079   9.196   5.745  0.1868 -0.1632 -0.4981
 5711SOL    HW126101   6.128   9.257   5.800  0.2551  0.3341 -1.0961
 5711SOL    HW226102   6.094   9.227   5.655 -0.7956 -0.3149 -0.7259
 5712SOL     OW26103   7.182  11.431   0.496 -0.8785  0.2141 -0.2510
 5712SOL    HW126104   7.097  11.396   0.470 -0.7624 -0.0653 -0.2610
 5712SOL    HW226105   7.165  11.522   0.519 -1.0358  0.3918 -1.0345
 5713SOL     OW26106   9.449   2.736   1.422 -0.2793  0.2981  0.8272
 5713SOL    HW126107   9.452   2.643   1.441 -2.1211  0.0156 -0.1080
 5713SOL    HW226108   9.452   2.741   1.326  0.5324  1.2611  0.8794
 5714SOL     OW26109   4.904   7.147  11.195 -0.2488  0.1289 -0.3162
 5714SOL    HW126110   4.946   7.069  11.159 -0.2433  0.8491 -1.9486
 5714SOL    HW226111   4.971   7.216  11.190 -0.6316  0.5352  0.0014
 5715SOL     OW26112   9.837   7.817   9.777  0.1642  0.0107 -0.0922
 5715SOL    HW126113   9.827   7.818   9.682  1.5242  1.2281 -0.2616
 5715SOL    HW226114   9.910   7.877   9.794 -0.7970  0.7393  1.7968
 5716SOL     OW26115   0.539   4.055   2.659  0.5649  0.1907 -0.3762
 5716SOL    HW126116   0.595   4.029   2.587  0.6868  1.6973 -0.8722
 5716SOL    HW226117   0.451   4.056   2.622  0.5592  0.4305 -0.3610
 5717SOL     OW26118  10.297   1.076   2.152  0.2620  0.7948  0.6944
 5717SOL    HW126119  10.330   0.988   2.132  2.8193  1.9074 -0.3164
 5717SOL    HW226120  10.211   1.079   2.109 -1.0817 -1.9710  2.8314
 5718SOL     OW26121   3.551   9.836   7.899 -0.1793  0.3959 -0.5989
 5718SOL    HW126122   3.482   9.780   7.935  1.6010 -0.1686  2.3236
 5718SOL    HW226123   3.561   9.906   7.964  1.5143  0.8206 -1.2566
 5719SOL     OW26124   0.045   4.235   9.578 -0.2879 -0.7010  0.1465
 5719SOL    HW126125   0.105   4.263   9.510 -0.5527 -0.6986 -0.0880
 5719SOL    HW226126   0.034   4.141   9.564 -0.7940 -0.5973 -0.1752
 5720SOL     OW26127   1.074  10.645  10.540 -0.0567  0.0883  0.2686
 5720SOL    HW126128   1.013  10.572  10.530 -0.2507  0.3739 -0.7673
 5720SOL    HW226129   1.052  10.683  10.625 -1.0168 -0.0914  0.1099
 5721SOL     OW26130   7.745   8.294   2.729 -0.4938 -0.3510  0.1882
 5721SOL    HW126131   7.721   8.376   2.773  0.3444  0.3094 -0.5423
 5721SOL    HW226132   7.675   8.234   2.752 -0.9602  0.4662  1.0228
 5722SOL     OW26133   9.380   8.382   7.321  0.4128 -0.3701  0.2138
 5722SOL    HW126134   9.394   8.367   7.415  0.7622 -0.2865  0.1775
 5722SOL    HW226135   9.412   8.301   7.280 -0.8182 -0.8922  0.2399
 5723SOL     OW26136   0.375   4.347   9.009  0.9117  0.0428  0.6769
 5723SOL    HW126137   0.336   4.432   9.028 -0.8038 -0.2456 -1.2010
 5723SOL    HW226138   0.309   4.284   9.039  0.8723 -0.5188 -0.5344
 5724SOL     OW26139  11.377   2.083   7.652  0.2302  0.7068  0.0156
 5724SOL    HW126140  11.412   2.160   7.697  1.6974 -0.1781  0.4331
 5724SOL    HW226141  11.378   2.107   7.559 -1.0154  1.8244  0.2487
 5725SOL     OW26142   0.065   1.721   4.318  0.8080 -0.3870 -0.4947
 5725SOL    HW126143   0.118   1.729   4.239  0.5628  0.7216 -0.5599
 5725SOL    HW226144   0.032   1.631   4.316  0.1484 -0.1385 -2.0704
 5726SOL     OW26145   0.637   8.154   7.164  0.1281 -0.0709 -0.0082
 5726SOL    HW126146   0.704   8.127   7.227  0.9821  1.7354 -0.0872
 5726SOL    HW226147   0.635   8.082   7.100  1.7135 -0.3602  0.2139
 5727SOL     OW26148   3.704   9.590   2.872  0.4195 -0.3456 -0.6631
 5727SOL    HW126149   3.741   9.526   2.933 -1.3027  1.7412  2.8895
 5727SOL    HW226150   3.611   9.569   2.868  0.2901  0.3230 -1.6112
 5728SOL     OW26151   4.364   9.622   6.955  0.2648  0.1928 -0.7624
 5728SOL    HW126152   4.435   9.641   7.016 -1.3135  1.2939  0.7984
 5728SOL    HW226153   4.387   9.671   6.876  1.2835  0.4444 -0.3281
 5729SOL     OW26154   3.058   8.347   4.963 -0.0895 -0.5590  0.0278
 5729SOL    HW126155   3.124   8.412   4.989  0.5662 -0.4797 -1.7165
 5729SOL    HW226156   3.052   8.289   5.039  2.9940 -1.3453 -0.1776
 5730SOL     OW26157  11.053   2.836   9.624 -0.1134 -0.1606  0.2461
 5730SOL    HW126158  11.031   2.853   9.716 -1.6013 -1.5463  0.1871
 5730SOL    HW226159  11.017   2.749   9.607 -0.5984  0.4048 -1.8751
 5731SOL     OW26160   6.568   0.683   4.296  0.3169  0.0830 -0.3711
 5731SOL    HW126161   6.634   0.731   4.246  1.0974  0.0366  0.5791
 5731SOL    HW226162   6.594   0.592   4.288  0.1226  0.0256 -0.3427
 5732SOL     OW26163  11.855   3.246   0.733 -0.3475 -0.2510 -0.3073
 5732SOL    HW126164  11.793   3.233   0.804 -0.6736  2.5980  0.0391
 5732SOL    HW226165  11.938   3.267   0.777  0.1618 -1.1917 -0.7841
 5733SOL     OW26166  11.706   9.821   7.030  0.0067  0.3503  0.3186
 5733SOL    HW126167  11.618   9.796   7.003  0.1287 -0.8893  1.0077
 5733SOL    HW226168  11.759   9.811   6.951 -0.0784 -1.0011  0.4021
 5734SOL     OW26169   2.521   0.800  11.254 -0.5450 -0.5159  0.2576
 5734SOL    HW126170   2.488   0.733  11.314 -0.0656 -0.6853  0.3306
 5734SOL    HW226171   2.442   0.839  11.216 -0.8279 -1.2005  0.1283
 5735SOL     OW26172  10.283   4.897   1.435  0.2908  0.4281  0.2504
 5735SOL    HW126173  10.257   4.805   1.437  1.8835 -0.1124 -1.1566
 5735SOL    HW226174  10.204   4.945   1.458 -0.7822 -1.2567  0.2762
 5736SOL     OW26175  10.352   8.429  11.776  0.4882 -0.1385  0.4622
 5736SOL    HW126176  10.319   8.383  11.698  1.4574  0.6882 -0.4739
 5736SOL    HW226177  10.275   8.437  11.833 -0.0955 -1.3361 -0.1162
 5737SOL     OW26178  10.456   4.749  11.609 -0.0381 -0.0723 -0.0012
 5737SOL    HW126179  10.403   4.690  11.664  2.0282 -1.1411  0.9550
 5737SOL    HW226180  10.392   4.794  11.554 -1.8908 -1.6618  0.7307
 5738SOL     OW26181  10.143   6.510   4.469 -0.5773  0.3176 -0.1256
 5738SOL    HW126182  10.193   6.589   4.489 -1.0918  0.5875  0.1290
 5738SOL    HW226183  10.177   6.444   4.530 -1.8901  1.0380  1.4972
 5739SOL     OW26184   6.916  11.535   3.734 -0.4100  0.3406  0.1609
 5739SOL    HW126185   6.871  11.454   3.709  0.2814  0.1295 -0.4521
 5739SOL    HW226186   6.951  11.569   3.652  0.8555  0.2977  0.6647
 5740SOL     OW26187   4.411   2.351   7.263 -0.5172 -0.1702 -0.5572
 5740SOL    HW126188   4.361   2.415   7.212 -1.2746  0.9565  1.5250
 5740SOL    HW226189   4.501   2.362   7.233 -0.7877  1.1940 -0.9101
 5741SOL     OW26190  10.436  11.914   4.057 -0.1860 -0.2631 -0.2329
 5741SOL    HW126191  10.352  11.933   4.017 -1.0851  1.2920  2.1587
 5741SOL    HW226192  10.424  11.828   4.099 -0.9064  0.3082  0.7797
 5742SOL     OW26193   0.049  11.191  11.232 -0.1017  0.4086  0.2944
 5742SOL    HW126194   0.078  11.174  11.142  0.1156  2.4780 -0.0596
 5742SOL    HW226195   0.120  11.242  11.271 -1.0471  1.1981  1.0325
 5743SOL     OW26196   2.560   4.252   2.879 -0.6388  1.3164 -0.2571
 5743SOL    HW126197   2.471   4.281   2.862 -0.4277  1.7736 -0.5996
 5743SOL    HW226198   2.609   4.333   2.894 -0.5633  1.0008  1.3595
 5744SOL     OW26199   5.647  12.405   5.635  0.9010 -0.3776  0.3316
 5744SOL    HW126200   5.724  12.401   5.579  0.2650 -0.9631 -0.5361
 5744SOL    HW226201   5.631  12.314   5.660 -0.5039 -0.5376 -0.9452
 5745SOL     OW26202   6.787   0.989   2.620 -0.2980 -0.0362 -0.1765
 5745SOL    HW126203   6.739   1.072   2.621  0.5253  0.4797 -1.0607
 5745SOL    HW226204   6.764   0.950   2.536  0.4906  0.0193 -0.4207
 5746SOL     OW26205   9.794   0.227   1.493  0.2967  0.1107 -0.5620
 5746SOL    HW126206   9.874   0.262   1.454  0.3400 -0.4289 -0.9647
 5746SOL    HW226207   9.773   0.150   1.441 -0.4999  0.2547 -0.4697
 5747SOL     OW26208   6.694  11.844   8.465  0.0630  0.3449  0.6831
 5747SOL    HW126209   6.674  11.776   8.529 -0.4104  1.4673  1.7641
 5747SOL    HW226210   6.682  11.927   8.512  0.3841  1.1969 -0.6571
 5748SOL     OW26211  12.483   5.635   1.364 -0.1872 -0.0552  0.0551
 5748SOL    HW126212  12.408   5.686   1.335 -0.9761  0.9986  3.5103
 5748SOL    HW226213  12.534   5.695   1.418 -0.2363 -2.3401  2.8860
 5749SOL     OW26214   8.678   5.087  11.479  0.1650  0.2682 -0.2927
 5749SOL    HW126215   8.617   5.161  11.476  0.3090  0.4052  0.1250
 5749SOL    HW226216   8.757   5.119  11.436  0.1164  0.2530 -0.3940
 5750SOL     OW26217   2.241   3.149  12.227  0.0311  0.0300 -0.2747
 5750SOL    HW126218   2.309   3.155  12.294 -1.7696  0.5864  1.6080
 5750SOL    HW226219   2.197   3.066  12.245 -1.1572  0.6879 -0.0249
 5751SOL     OW26220   6.360  10.738  10.205  0.0937 -0.2700  0.0004
 5751SOL    HW126221   6.274  10.695  10.207 -0.2685  0.4562  1.7664
 5751SOL    HW226222   6.351  10.813  10.264  2.1835 -0.6922  0.9548
 5752SOL     OW26223   0.498   8.946   3.322 -0.4687  0.1070 -0.2232
 5752SOL    HW126224   0.514   8.888   3.247 -0.8160  1.1270 -1.1090
 5752SOL    HW226225   0.581   8.948   3.368 -0.1327 -0.2305 -0.7954
 5753SOL     OW26226   0.742   2.575  10.038 -0.3371  0.0415 -0.7427
 5753SOL    HW126227   0.668   2.636  10.039  0.6533  1.2866  0.0056
 5753SOL    HW226228   0.815   2.626  10.002  1.4586  0.5734  3.1024
 5754SOL     OW26229   2.002   8.040   5.114 -0.1375  0.0219  0.5963
 5754SOL    HW126230   1.990   8.135   5.107  1.2888  0.2149  0.4785
 5754SOL    HW226231   1.949   8.015   5.190  0.6365  1.1558  1.5527
 5755SOL     OW26232  11.902   1.209   4.263  1.0116 -0.1953  0.7595
 5755SOL    HW126233  11.813   1.237   4.284  1.1531  0.5370  0.4054
 5755SOL    HW226234  11.949   1.215   4.347  0.6054 -1.1429  1.0787
 5756SOL     OW26235  12.593   3.294   6.205  0.8208 -0.1818  0.4754
 5756SOL    HW126236  12.564   3.242   6.280 -0.9576 -0.4925 -0.3864
 5756SOL    HW226237  12.547   3.256   6.130  0.9514  1.4238 -0.4684
 5757SOL     OW26238   8.314   2.270   2.169 -0.5575  0.2766  0.0737
 5757SOL    HW126239   8.221   2.286   2.154 -0.5942 -1.1646 -1.6490
 5757SOL    HW226240   8.316   2.196   2.231 -0.5779  0.0028 -0.2496
 5758SOL     OW26241   5.318   3.328   7.340  0.0552  0.5548  0.5242
 5758SOL    HW126242   5.400   3.279   7.342  0.0872  0.5175 -0.8601
 5758SOL    HW226243   5.321   3.382   7.418  1.7078  1.0323  0.1787
 5759SOL     OW26244  10.394   5.029  10.264 -0.9742 -0.8202  0.6151
 5759SOL    HW126245  10.415   4.980  10.344 -1.1509 -0.8279  0.6563
 5759SOL    HW226246  10.467   5.009  10.205 -1.2018 -1.3833  0.5193
 5760SOL     OW26247  11.512   4.949  10.118 -0.5885 -0.3130  0.2663
 5760SOL    HW126248  11.485   4.859  10.139 -1.4158 -0.4440 -1.2115
 5760SOL    HW226249  11.438   5.003  10.146 -0.2029 -0.1033  0.9070
 5761SOL     OW26250   2.365   7.141   3.590  0.2994  0.3308  0.0214
 5761SOL    HW126251   2.350   7.234   3.573 -1.2571  0.1799  0.3395
 5761SOL    HW226252   2.346   7.130   3.683  1.5293 -0.1242  0.2344
 5762SOL     OW26253  10.627   5.209  11.216 -0.3511 -0.1247  0.6534
 5762SOL    HW126254  10.583   5.257  11.146 -2.3271 -0.1859  1.7786
 5762SOL    HW226255  10.620   5.117  11.189 -0.5725 -0.1067  0.6475
 5763SOL     OW26256   4.186   2.687   3.735 -0.1869  0.2664 -0.0530
 5763SOL    HW126257   4.161   2.726   3.819  0.4448 -1.5766  1.0374
 5763SOL    HW226258   4.266   2.639   3.754 -0.2166 -0.4572 -1.6487
 5764SOL     OW26259   0.375   9.269   1.853  0.6991  0.4583 -0.0364
 5764SOL    HW126260   0.381   9.364   1.862 -1.8642  0.6465  0.5824
 5764SOL    HW226261   0.282   9.250   1.865  1.4748 -2.4311  3.0146
 5765SOL     OW26262   8.079   9.296   0.236  0.0016  0.4054  0.7479
 5765SOL    HW126263   8.061   9.207   0.266 -1.1816  0.1160 -0.6988
 5765SOL    HW226264   8.009   9.348   0.274 -0.4263  0.3639  0.0284
 5766SOL     OW26265   7.646   3.809   9.030  0.0537  0.2722 -0.3067
 5766SOL    HW126266   7.575   3.823   8.968  0.3706 -0.8926 -0.9649
 5766SOL    HW226267   7.721   3.855   8.992  0.7021 -1.7796 -1.7160
 5767SOL     OW26268   0.711   1.170   0.197 -0.2107  0.2221 -0.1300
 5767SOL    HW126269   0.703   1.107   0.268 -0.6508  1.0298  0.5551
 5767SOL    HW226270   0.797   1.210   0.210  0.5786 -1.0251 -1.2535
 5768SOL     OW26271   4.955  11.062   7.188 -0.9759 -0.2424  0.2425
 5768SOL    HW126272   4.905  11.037   7.266 -1.0017  1.4049  0.7955
 5768SOL    HW226273   5.029  11.112   7.223 -2.4860  3.0587 -0.8047
 5769SOL     OW26274   6.552   0.606  11.633 -0.5948  0.2151 -0.1058
 5769SOL    HW126275   6.608   0.572  11.703  0.6344 -1.0529 -1.6235
 5769SOL    HW226276   6.600   0.682  11.599 -1.3128  0.9834  0.5780
 5770SOL     OW26277   5.885   5.082   9.732  0.3264 -0.2185  0.5187
 5770SOL    HW126278   5.953   5.056   9.795 -0.4044 -1.3603  0.8755
 5770SOL    HW226279   5.805   5.041   9.765 -0.3955  0.4932 -0.2945
 5771SOL     OW26280   7.771   0.063   9.800 -0.1244 -0.1755  0.0149
 5771SOL    HW126281   7.857   0.022   9.794  0.0593  0.2249 -0.1267
 5771SOL    HW226282   7.751   0.088   9.710 -1.6815 -2.8633 -0.4911
 5772SOL     OW26283   5.105  10.702  11.980 -0.0829  0.2539 -0.1374
 5772SOL    HW126284   5.106  10.788  11.937  0.7324  0.7512  0.8167
 5772SOL    HW226285   5.197  10.677  11.986 -0.1155  0.3862  1.5957
 5773SOL     OW26286   7.752   9.285   3.152  0.1803 -0.2217 -0.0710
 5773SOL    HW126287   7.738   9.378   3.170 -0.3247 -0.3716  0.3223
 5773SOL    HW226288   7.847   9.274   3.154  0.1783 -0.0676  1.6789
 5774SOL     OW26289   4.362   2.363   3.284  0.8864 -0.0178 -0.8832
 5774SOL    HW126290   4.387   2.296   3.221 -1.1662 -0.3366 -1.4359
 5774SOL    HW226291   4.426   2.354   3.355  1.8833 -1.1597 -1.8752
 5775SOL     OW26292  11.168  12.084  11.417 -0.4892 -0.2090  0.3716
 5775SOL    HW126293  11.175  12.142  11.493 -2.4450  0.0693  0.3855
 5775SOL    HW226294  11.093  12.028  11.436 -1.3880  0.2481 -1.5821
 5776SOL     OW26295   8.298   9.319  10.570 -0.3706  0.0469 -0.4176
 5776SOL    HW126296   8.333   9.388  10.514 -0.8392  1.2738  0.7456
 5776SOL    HW226297   8.203   9.331  10.565 -0.4788 -0.8656 -0.6325
 5777SOL     OW26298   3.873  11.706   7.513 -0.9187  0.3110  0.2529
 5777SOL    HW126299   3.867  11.683   7.606 -1.9302  1.0948  0.4030
 5777SOL    HW226300   3.965  11.693   7.491 -0.9258 -1.2872  0.9816
 5778SOL     OW26301   7.401  11.134   3.688  0.5147 -0.1574  0.6427
 5778SOL    HW126302   7.349  11.087   3.753  0.4175 -2.5061 -1.0024
 5778SOL    HW226303   7.466  11.070   3.659  0.9135  0.9928 -1.1586
 5779SOL     OW26304   3.298   9.859  12.321 -0.7469 -0.0316  0.3482
 5779SOL    HW126305   3.314   9.852  12.227  0.8351  0.3734  0.5617
 5779SOL    HW226306   3.319   9.772  12.355 -0.6943  0.0060  0.4111
 5780SOL     OW26307   7.319  11.627   4.269  0.0998 -0.3780  0.1867
 5780SOL    HW126308   7.235  11.581   4.273  1.2838 -2.7751 -0.4766
 5780SOL    HW226309   7.301  11.707   4.220 -1.4620 -1.7402 -1.5864
 5781SOL     OW26310   6.605   0.686   2.147 -0.3451 -0.0995  0.2498
 5781SOL    HW126311   6.648   0.772   2.142  0.8182 -0.6529  0.4656
 5781SOL    HW226312   6.669   0.625   2.111 -0.9312 -0.9628  0.6439
 5782SOL     OW26313   0.364  11.948   3.953  0.4298  0.1110 -0.3109
 5782SOL    HW126314   0.300  11.891   3.911 -1.1906  1.2990  0.4158
 5782SOL    HW226315   0.430  11.888   3.988 -0.2849 -1.1651 -1.0514
 5783SOL     OW26316   0.634  10.707   8.763 -0.5681  0.3504 -0.6543
 5783SOL    HW126317   0.592  10.643   8.706  0.2527  0.3562 -1.2782
 5783SOL    HW226318   0.719  10.722   8.723 -0.6682  1.6793 -0.4016
 5784SOL     OW26319   9.137   9.834   4.930  0.1251  0.2748  0.0438
 5784SOL    HW126320   9.083   9.798   5.000 -0.8276 -0.4636 -1.0406
 5784SOL    HW226321   9.137   9.929   4.945 -2.1661  0.3915 -0.3741
 5785SOL     OW26322   4.298   4.765  11.817  0.2192 -0.2768 -0.3761
 5785SOL    HW126323   4.298   4.793  11.726  1.8912 -2.6121 -1.1872
 5785SOL    HW226324   4.321   4.672  11.814  0.0092 -0.5161  2.4173
 5786SOL     OW26325  12.064   1.578   0.599 -0.4856  0.0734 -0.2868
 5786SOL    HW126326  12.098   1.510   0.656  0.8948  0.8970 -0.0696
 5786SOL    HW226327  12.059   1.537   0.512  0.9171 -0.1599 -0.2835
 5787SOL     OW26328   3.178   3.746  10.184 -0.0783  0.1843  0.3217
 5787SOL    HW126329   3.257   3.785  10.221 -0.1012 -0.1352  0.7124
 5787SOL    HW226330   3.116   3.746  10.257  0.4347 -2.0830  0.8167
 5788SOL     OW26331  12.016   5.052   2.702  0.6741 -0.4334 -0.6705
 5788SOL    HW126332  12.072   5.108   2.649  1.0949 -0.8098 -0.6317
 5788SOL    HW226333  12.057   4.966   2.698  0.0435 -0.7391 -0.7207
 5789SOL     OW26334   2.456   7.086   6.898 -0.3629  0.0014  0.2434
 5789SOL    HW126335   2.440   7.037   6.818  2.8586 -4.1803  1.8023
 5789SOL    HW226336   2.390   7.054   6.960 -0.7828  0.7518  0.1968
 5790SOL     OW26337   2.738  11.043   4.844 -0.4127  0.2890  0.2875
 5790SOL    HW126338   2.721  11.096   4.766 -0.2985 -1.1754 -0.7679
 5790SOL    HW226339   2.661  10.985   4.851 -0.2364  0.1370  1.0313
 5791SOL     OW26340   3.935   6.633   3.168 -0.2409  0.0789  0.0866
 5791SOL    HW126341   3.972   6.620   3.081 -0.2963 -0.7496  0.1834
 5791SOL    HW226342   3.893   6.719   3.164  0.1660  0.2503 -0.5574
 5792SOL     OW26343   6.283   6.941   7.688  0.1193  0.0593 -0.3424
 5792SOL    HW126344   6.275   6.974   7.777  1.0068  1.0982 -0.6210
 5792SOL    HW226345   6.194   6.946   7.653 -0.3074 -0.7269  0.5929
 5793SOL     OW26346   9.201  11.439   6.972 -0.0049  0.0270 -0.7328
 5793SOL    HW126347   9.136  11.510   6.978  2.8371  2.7891 -0.0499
 5793SOL    HW226348   9.206  11.419   6.879 -1.0865  0.4846 -0.9012
 5794SOL     OW26349   9.045   0.872   0.472  0.1147 -0.2483  0.4807
 5794SOL    HW126350   9.012   0.782   0.469  1.3713 -0.7595  1.0511
 5794SOL    HW226351   9.043   0.902   0.381 -0.4071 -0.8233  0.3023
 5795SOL     OW26352  12.057   0.896   8.639 -0.5930  0.1920  0.5439
 5795SOL    HW126353  12.011   0.977   8.616 -0.4288  0.3613  0.7985
 5795SOL    HW226354  11.992   0.843   8.685 -0.7097  0.1670  0.3490
 5796SOL     OW26355  10.977   1.791   3.048  0.0545 -0.1976 -0.6931
 5796SOL    HW126356  10.955   1.791   2.955  1.6319  0.5821 -1.0956
 5796SOL    HW226357  10.927   1.718   3.085 -1.8873  0.5018 -1.8200
 5797SOL     OW26358   6.192  10.709   4.673  0.6265 -0.0489 -0.0899
 5797SOL    HW126359   6.268  10.652   4.666  0.3582 -0.2904 -1.3202
 5797SOL    HW226360   6.169  10.708   4.766  1.7753 -0.4156  0.2038
 5798SOL     OW26361   4.437   6.171   3.084  0.1100  0.0648 -0.1841
 5798SOL    HW126362   4.464   6.170   2.992 -2.0482 -2.1163 -0.9034
 5798SOL    HW226363   4.343   6.189   3.082 -0.2405 -1.2406  1.4430
 5799SOL     OW26364   0.060   7.501   7.624 -0.4301 -0.0088 -0.1504
 5799SOL    HW126365  -0.025   7.457   7.624 -0.9959  0.9804 -1.7748
 5799SOL    HW226366   0.072   7.531   7.714 -1.6716 -0.4135  0.1646
 5800SOL     OW26367   2.009   7.186  11.992  0.3398 -0.9819  0.6212
 5800SOL    HW126368   2.098   7.207  12.020  0.6261 -0.6427 -0.4867
 5800SOL    HW226369   1.954   7.251  12.036  0.7879 -0.4016  0.3397
 5801SOL     OW26370  10.624  11.068   9.773  0.7572 -0.3362  0.0991
 5801SOL    HW126371  10.566  10.993   9.789  1.4353 -0.8974  0.0165
 5801SOL    HW226372  10.634  11.070   9.678  1.2690 -0.5624  0.1439
 5802SOL     OW26373   4.198   2.190   0.369 -0.1328 -0.1106 -0.0468
 5802SOL    HW126374   4.240   2.250   0.430 -1.2273  0.8682 -0.2191
 5802SOL    HW226375   4.235   2.212   0.284 -1.3976  1.1902 -0.2973
 5803SOL     OW26376   5.864   0.328   5.260 -0.2621  0.0989  0.2004
 5803SOL    HW126377   5.889   0.380   5.184 -0.7640 -0.6567 -0.5021
 5803SOL    HW226378   5.931   0.347   5.326  0.1899  0.7494 -0.4347
 5804SOL     OW26379   3.986   4.301   6.698  0.3734  0.4425  0.0928
 5804SOL    HW126380   4.081   4.294   6.699  0.4333  1.0532  1.8040
 5804SOL    HW226381   3.956   4.215   6.728  0.3526  0.1218 -0.8118
 5805SOL     OW26382   3.211   9.127  12.382 -0.5093  0.7223  0.0623
 5805SOL    HW126383   3.146   9.178  12.334 -1.2684  0.2602  0.5882
 5805SOL    HW226384   3.213   9.167  12.469  0.4412  1.1849 -0.1531
 5806SOL     OW26385   1.710   6.960   4.443 -0.0434 -0.4651 -1.1828
 5806SOL    HW126386   1.779   7.000   4.497 -0.6975  1.5469 -1.7237
 5806SOL    HW226387   1.742   6.970   4.353  0.2566 -2.2092 -1.2972
 5807SOL     OW26388  10.066   4.705   8.438 -0.5490  0.1309  0.3094
 5807SOL    HW126389  10.100   4.752   8.514  1.3569 -0.9757  0.2098
 5807SOL    HW226390   9.981   4.672   8.466 -1.2156  2.2043  0.9180
 5808SOL     OW26391   2.132   0.971   0.546 -0.3601 -0.3137  0.4646
 5808SOL    HW126392   2.181   0.905   0.498 -1.4656  0.0667 -1.2713
 5808SOL    HW226393   2.182   0.984   0.627  0.9999 -1.7272 -0.1016
 5809SOL     OW26394   5.247   1.611   9.467 -0.3522  0.0314  0.1712
 5809SOL    HW126395   5.171   1.592   9.521 -1.0618 -3.9749 -1.7762
 5809SOL    HW226396   5.322   1.588   9.522 -0.8626 -0.6952  0.5802
 5810SOL     OW26397   4.036   4.144  11.112  0.3201 -0.0486 -0.2214
 5810SOL    HW126398   4.045   4.237  11.091  0.3666 -0.1988 -0.8955
 5810SOL    HW226399   3.962   4.141  11.174  0.1801  0.4122 -0.3574
 5811SOL     OW26400   0.709   4.776   5.940  0.1962  0.1757  0.4002
 5811SOL    HW126401   0.715   4.686   5.972 -0.9865 -0.3215 -0.6622
 5811SOL    HW226402   0.648   4.819   6.000  0.6587  0.2429  0.8299
 5812SOL     OW26403   3.557  11.673   2.398 -0.1523  0.1675 -0.8664
 5812SOL    HW126404   3.550  11.606   2.329  2.4432 -0.4909 -0.5791
 5812SOL    HW226405   3.610  11.742   2.359 -0.4968  0.7984 -0.2304
 5813SOL     OW26406   3.466   6.530   1.842 -0.0806  0.5801  0.1924
 5813SOL    HW126407   3.449   6.461   1.906  2.1902 -0.5474 -0.3048
 5813SOL    HW226408   3.556   6.558   1.861  1.5324 -1.2937 -3.6836
 5814SOL     OW26409   7.617   3.768   8.548  0.6636 -0.1151  0.7304
 5814SOL    HW126410   7.553   3.792   8.615  0.5837  1.1386  0.2405
 5814SOL    HW226411   7.577   3.796   8.465  1.4736 -0.0856  0.3390
 5815SOL     OW26412  12.376   9.521  10.651 -0.2165 -0.6744 -0.3714
 5815SOL    HW126413  12.374   9.435  10.694  0.3910 -0.3178  0.3928
 5815SOL    HW226414  12.426   9.577  10.711  0.0895  0.0107 -1.2422
 5816SOL     OW26415   1.538  10.249   9.049 -0.4738 -0.2351  0.2687
 5816SOL    HW126416   1.573  10.337   9.066  0.0470 -0.4942  0.5436
 5816SOL    HW226417   1.611  10.190   9.068 -0.7089 -0.7071 -0.2593
 5817SOL     OW26418  10.575   7.972   9.785 -1.0114 -0.0416  0.0193
 5817SOL    HW126419  10.628   7.954   9.862 -1.3737 -2.1250 -0.1545
 5817SOL    HW226420  10.593   8.063   9.764  1.1993 -0.2018  0.9509
 5818SOL     OW26421  10.626   1.570   1.656 -0.2601 -0.3300 -0.3120
 5818SOL    HW126422  10.697   1.594   1.715  0.0778  0.5467 -1.0403
 5818SOL    HW226423  10.598   1.484   1.685  0.5769 -0.3489  0.4804
 5819SOL     OW26424   2.207  11.761   6.248  0.0214 -0.5172  0.1147
 5819SOL    HW126425   2.261  11.841   6.253  0.7376 -1.0866  2.5610
 5819SOL    HW226426   2.146  11.779   6.176  0.8265  1.8104 -0.0934
 5820SOL     OW26427   8.709   2.853   1.864 -0.2266  0.5683  0.0137
 5820SOL    HW126428   8.723   2.930   1.808 -0.4748  0.7607  0.2149
 5820SOL    HW226429   8.685   2.784   1.802 -0.7838  0.8525 -0.0986
 5821SOL     OW26430   0.711   1.762   8.599  0.6776 -0.6768 -0.2315
 5821SOL    HW126431   0.621   1.769   8.628  0.4835 -0.6997 -0.8065
 5821SOL    HW226432   0.706   1.765   8.503  1.2591 -0.9373 -0.2779
 5822SOL     OW26433   1.111   8.851  10.137  0.5020 -0.2729  0.0500
 5822SOL    HW126434   1.098   8.768  10.092  0.9795 -0.3958  0.1385
 5822SOL    HW226435   1.161   8.905  10.076 -1.8461  0.8467 -1.0281
 5823SOL     OW26436   1.856   4.623   1.736  0.6530  0.1169 -0.0036
 5823SOL    HW126437   1.885   4.605   1.825  1.4614  0.7629 -0.1343
 5823SOL    HW226438   1.868   4.717   1.724  0.5299  0.0430 -0.7910
 5824SOL     OW26439   1.465  11.275   6.553  0.2447  0.6253 -0.0691
 5824SOL    HW126440   1.388  11.307   6.600  0.8788  1.3242  0.5023
 5824SOL    HW226441   1.502  11.207   6.610 -0.0110  0.1972 -0.4041
 5825SOL     OW26442   9.875   5.131   4.096  0.2340  0.2659  0.0264
 5825SOL    HW126443   9.878   5.212   4.044 -0.3869  0.8406  0.8551
 5825SOL    HW226444   9.919   5.066   4.042  4.2922  2.0226  0.8494
 5826SOL     OW26445   0.663   4.252   0.070  0.0541  0.7339 -0.2922
 5826SOL    HW126446   0.687   4.338   0.103  0.6786 -0.1246  1.6193
 5826SOL    HW226447   0.706   4.190   0.129 -1.1851 -0.8883 -1.0019
 5827SOL     OW26448   1.183   5.944   4.857 -0.6662  0.4457  0.2554
 5827SOL    HW126449   1.112   6.003   4.834 -0.9499 -0.3304 -0.9304
 5827SOL    HW226450   1.159   5.912   4.944 -1.1099  1.1521  0.4039
 5828SOL     OW26451   6.670   1.792   6.952 -0.1270 -0.7101 -0.3184
 5828SOL    HW126452   6.686   1.881   6.921 -0.0557 -0.5039  0.2897
 5828SOL    HW226453   6.584   1.796   6.995  1.0143 -0.2468  2.1173
 5829SOL     OW26454   3.815   2.060  12.354 -0.5364  0.3788 -0.1317
 5829SOL    HW126455   3.835   2.071  12.260 -2.8616  0.1670 -0.6979
 5829SOL    HW226456   3.877   2.119  12.398 -0.6168  1.8887 -1.9286
 5830SOL     OW26457   7.492  11.707   7.637 -0.7506 -0.4981 -0.5315
 5830SOL    HW126458   7.408  11.740   7.604  0.1131  1.5289 -0.8001
 5830SOL    HW226459   7.556  11.736   7.572  0.6270  1.1338  1.4493
 5831SOL     OW26460  12.475   5.644   3.681  0.4408 -0.5827  0.4230
 5831SOL    HW126461  12.490   5.592   3.602 -0.0983  1.2418 -0.9611
 5831SOL    HW226462  12.562   5.652   3.721  0.8260 -1.0854 -0.2901
 5832SOL     OW26463   4.693   8.140   5.673  0.4223  0.3029 -0.3744
 5832SOL    HW126464   4.602   8.162   5.652  0.5939  0.3236 -1.1261
 5832SOL    HW226465   4.717   8.201   5.742  0.6960  2.1023 -1.9996
 5833SOL     OW26466   3.348   3.607   2.125  0.5549 -0.0862  0.2616
 5833SOL    HW126467   3.435   3.648   2.119  0.4266  0.2659  0.7502
 5833SOL    HW226468   3.288   3.681   2.135  0.2904 -0.3799  0.9046
 5834SOL     OW26469   4.233   0.283  10.001 -0.2812  0.0000  0.2502
 5834SOL    HW126470   4.311   0.339   9.995 -0.2394  0.2681  2.5389
 5834SOL    HW226471   4.181   0.306   9.924  1.8232 -0.1123 -1.3019
 5835SOL     OW26472   1.939   3.338  11.873 -0.4686 -0.3256 -0.5677
 5835SOL    HW126473   2.009   3.290  11.827  0.4587 -1.2946  1.6950
 5835SOL    HW226474   1.926   3.289  11.955 -3.2277  0.3443 -0.5071
 5836SOL     OW26475   5.919   5.320  11.224  0.0958  0.5556  0.0869
 5836SOL    HW126476   5.880   5.390  11.172 -1.5585 -0.6757 -0.4182
 5836SOL    HW226477   5.987   5.363  11.276 -1.7697  2.8199  0.8394
 5837SOL     OW26478  10.859  12.080   4.984 -0.7213  0.2946 -0.6378
 5837SOL    HW126479  10.796  12.042   5.046 -0.1466 -2.1776 -1.4522
 5837SOL    HW226480  10.806  12.131   4.924 -1.5835  0.6466  0.3945
 5838SOL     OW26481   5.098   0.601   8.742 -0.2319 -0.4065 -0.4207
 5838SOL    HW126482   5.092   0.695   8.762 -1.0446 -0.6343  0.4858
 5838SOL    HW226483   5.083   0.558   8.826 -3.2505 -1.4134 -1.3814
 5839SOL     OW26484   5.658   1.031   4.668 -0.3051  0.3680  0.1782
 5839SOL    HW126485   5.696   1.088   4.602  2.3227 -1.3643  0.0547
 5839SOL    HW226486   5.608   1.090   4.725  2.0355  2.7536 -0.0598
 5840SOL     OW26487   7.681   7.100   3.918 -0.6277 -0.1169  0.5843
 5840SOL    HW126488   7.649   7.170   3.974 -0.9654 -0.7176  1.1507
 5840SOL    HW226489   7.732   7.043   3.976 -0.6091 -0.5065  0.1971
 5841SOL     OW26490   3.048   7.077   2.325  0.2155 -0.5298  0.6819
 5841SOL    HW126491   3.064   7.055   2.416  0.8339 -1.9493  0.2706
 5841SOL    HW226492   3.119   7.033   2.277  0.0536  0.4011 -0.4519
 5842SOL     OW26493  12.146   0.225   3.695  0.2663  0.2413 -0.0266
 5842SOL    HW126494  12.178   0.173   3.621  0.4772  0.0909  0.1709
 5842SOL    HW226495  12.108   0.161   3.756  1.0091  0.2607  0.4635
 5843SOL     OW26496   7.407   6.916   3.944 -0.3205 -0.2695  0.5873
 5843SOL    HW126497   7.446   6.856   4.007 -0.3999  0.0760  0.9698
 5843SOL    HW226498   7.479   6.940   3.886 -0.2155 -0.4794  0.6283
 5844SOL     OW26499   6.982  10.320   0.146  0.8414  0.2169 -0.0399
 5844SOL    HW126500   6.953  10.404   0.110 -1.2968  0.1113  1.2655
 5844SOL    HW226501   7.000  10.338   0.238  0.8866 -0.6301  0.1267
 5845SOL     OW26502   3.749  10.581   1.389  0.1326  0.4614 -0.1305
 5845SOL    HW126503   3.840  10.549   1.395 -0.0135 -0.2149 -1.2383
 5845SOL    HW226504   3.702  10.531   1.456 -0.4004 -2.9614 -2.7658
 5846SOL     OW26505   5.988   0.636   7.830  0.3325  0.2725 -0.0204
 5846SOL    HW126506   6.036   0.554   7.845 -1.3545 -0.8701 -0.5542
 5846SOL    HW226507   6.012   0.692   7.904  0.9204 -0.9953  0.7893
 5847SOL     OW26508   5.129   8.837   0.679 -0.2145  0.3372 -0.1670
 5847SOL    HW126509   5.148   8.808   0.590  1.4339 -0.9245  0.5407
 5847SOL    HW226510   5.034   8.833   0.686 -0.3683  0.3658 -1.8181
 5848SOL     OW26511   7.271   8.390   3.337  0.0043  0.5125 -0.6054
 5848SOL    HW126512   7.304   8.410   3.425 -2.5655  1.0188  0.3453
 5848SOL    HW226513   7.177   8.377   3.350 -0.0727 -2.0935 -2.8744
 5849SOL     OW26514   4.375   6.484   3.211 -0.6791  0.5076 -0.2420
 5849SOL    HW126515   4.314   6.462   3.141 -1.7305 -2.3411  1.3974
 5849SOL    HW226516   4.323   6.481   3.291  1.0386  0.7969  0.9641
 5850SOL     OW26517   4.837   3.794   2.195  0.1256 -0.5552 -0.1672
 5850SOL    HW126518   4.921   3.752   2.175  0.9691 -0.7288  3.1163
 5850SOL    HW226519   4.792   3.731   2.251 -2.2301 -0.3981 -1.7711
 5851SOL     OW26520   9.450   7.403   5.293  0.5413 -0.0275  0.0173
 5851SOL    HW126521   9.489   7.449   5.219  0.2186  0.3264  0.0674
 5851SOL    HW226522   9.512   7.416   5.365  1.9110 -2.0912 -0.6875
 5852SOL     OW26523   5.026  11.735  10.257 -0.4900  0.0776 -0.0234
 5852SOL    HW126524   5.098  11.765  10.200 -0.0759  0.1916  0.5506
 5852SOL    HW226525   4.955  11.797  10.240 -0.1778  0.4452 -0.0069
 5853SOL     OW26526   7.842  11.273   5.745  0.0617 -0.0798 -0.2629
 5853SOL    HW126527   7.912  11.327   5.707 -1.8222  2.0632 -0.9077
 5853SOL    HW226528   7.834  11.305   5.835 -0.1431 -0.2725 -0.2136
 5854SOL     OW26529  10.585   9.218   4.215 -0.1095  0.4585 -0.1782
 5854SOL    HW126530  10.494   9.223   4.186  0.1368  2.3304 -0.7929
 5854SOL    HW226531  10.628   9.293   4.173  1.2227  0.8935  1.8015
 5855SOL     OW26532   8.084  10.175  11.771  0.1066  0.1458  0.4177
 5855SOL    HW126533   8.018  10.242  11.759  0.5535  0.8989  1.8884
 5855SOL    HW226534   8.165  10.215  11.739  0.5065  0.6064  1.9307
 5856SOL     OW26535   3.204   8.405  11.128 -0.4546  0.4332  0.4112
 5856SOL    HW126536   3.130   8.462  11.148  0.4648  1.2915  1.5524
 5856SOL    HW226537   3.255   8.453  11.062 -0.0464  0.6336  0.8634
 5857SOL     OW26538   0.314   7.202   8.820  0.2314  0.0933 -0.3576
 5857SOL    HW126539   0.371   7.204   8.743  1.8079  3.0329  0.7224
 5857SOL    HW226540   0.279   7.291   8.826 -2.0903 -0.8088  0.8135
 5858SOL     OW26541   2.581   9.369  11.512  0.3020  0.0354  0.5067
 5858SOL    HW126542   2.572   9.303  11.444 -0.5076  1.2532 -0.6193
 5858SOL    HW226543   2.535   9.333  11.588  1.8758 -1.6767  0.7157
 5859SOL     OW26544  12.336  12.259   0.176 -0.1556 -1.0077  0.0226
 5859SOL    HW126545  12.264  12.211   0.219  0.4955 -0.9036  1.2852
 5859SOL    HW226546  12.415  12.216   0.208  0.6502  2.4788  3.4666
 5860SOL     OW26547   5.044  10.182   2.259  0.2387  0.1268  0.5849
 5860SOL    HW126548   4.953  10.167   2.236  0.1070 -0.9295  1.6985
 5860SOL    HW226549   5.047  10.272   2.290  0.0689  0.9745 -1.6424
 5861SOL     OW26550   7.277   9.622   4.948 -0.3120  0.1050  0.0018
 5861SOL    HW126551   7.299   9.712   4.926 -0.8429  0.5954  1.3906
 5861SOL    HW226552   7.237   9.587   4.868 -0.4276  1.2092 -0.4367
 5862SOL     OW26553  10.112   6.246  12.508  0.3284 -0.5504  0.1228
 5862SOL    HW126554  10.112   6.276  12.417 -0.0686 -0.1961  0.2364
 5862SOL    HW226555  10.196   6.201  12.518  1.1864  0.9734  0.0904
 5863SOL     OW26556  11.425  11.070   1.540 -0.3869 -0.0511  0.4039
 5863SOL    HW126557  11.382  11.075   1.455 -0.3834  0.2886  0.4178
 5863SOL    HW226558  11.366  11.118   1.599 -0.6185 -0.6785  0.6899
 5864SOL     OW26559   8.572   5.015   9.449  0.3450 -0.2406 -0.0665
 5864SOL    HW126560   8.485   5.015   9.408 -0.4262 -1.0525  1.4618
 5864SOL    HW226561   8.606   4.927   9.434  0.0050 -0.5825  1.0861
 5865SOL     OW26562   5.217   2.159   0.995 -0.2671  0.5293  0.3759
 5865SOL    HW126563   5.307   2.156   1.026  0.3186 -0.0102 -1.2972
 5865SOL    HW226564   5.168   2.107   1.060  0.4551  1.4690  1.7191
 5866SOL     OW26565   7.656  10.032  10.213  0.2018  0.2194 -0.6516
 5866SOL    HW126566   7.607   9.975  10.272 -0.4346  0.4290 -0.9602
 5866SOL    HW226567   7.622  10.011  10.126 -0.7100  1.6878 -0.6871
 5867SOL     OW26568   9.896   1.058   5.053  0.3019 -0.2697  0.2703
 5867SOL    HW126569   9.801   1.066   5.051  0.4665  2.7079 -0.4298
 5867SOL    HW226570   9.917   1.003   4.978 -0.7743  1.5375 -1.4491
 5868SOL     OW26571   8.563  10.387   7.853  0.2431 -0.1575  0.2594
 5868SOL    HW126572   8.487  10.330   7.848  0.6824 -0.8359  1.0711
 5868SOL    HW226573   8.634  10.336   7.816  1.0428 -0.9098  2.6313
 5869SOL     OW26574  11.395  12.147   9.561  0.4384  0.0609 -0.0928
 5869SOL    HW126575  11.477  12.098   9.555 -0.8109 -2.3616  1.2837
 5869SOL    HW226576  11.336  12.102   9.501 -0.4058  0.7210  0.2253
 5870SOL     OW26577  12.591  11.402  12.461 -0.4047  0.1102 -0.1800
 5870SOL    HW126578  12.536  11.478  12.480  2.2712  1.9718  0.7307
 5870SOL    HW226579  12.624  11.374  12.546 -0.1858 -1.1560 -0.6655
 5871SOL     OW26580   2.354   1.127   4.413 -0.0128  0.4044 -0.5754
 5871SOL    HW126581   2.336   1.221   4.422  1.2372  0.6683 -0.6146
 5871SOL    HW226582   2.421   1.109   4.479 -0.0778 -0.4063 -0.7228
 5872SOL     OW26583   4.782   8.918   6.273  0.2570 -0.4473  0.3465
 5872SOL    HW126584   4.760   8.938   6.182  0.1472  0.4375  0.5532
 5872SOL    HW226585   4.730   8.981   6.324 -0.9960 -2.0453  1.1042
 5873SOL     OW26586   9.506   2.321  11.252 -0.1588 -0.1909  0.0625
 5873SOL    HW126587   9.564   2.397  11.239  0.9694 -1.1381 -0.6927
 5873SOL    HW226588   9.452   2.344  11.327 -0.3319  1.6502 -0.5837
 5874SOL     OW26589   8.396  10.958   5.413 -0.8983 -0.1281  0.3463
 5874SOL    HW126590   8.352  10.885   5.456 -2.2551  1.0623  1.0739
 5874SOL    HW226591   8.386  11.031   5.474  2.0148  0.2713  0.4992
 5875SOL     OW26592   6.955   2.906   8.722 -0.1032 -0.9693 -0.2116
 5875SOL    HW126593   6.888   2.934   8.659  1.0471 -1.5451 -1.7543
 5875SOL    HW226594   6.905   2.860   8.790 -1.5655  1.1523  0.2526
 5876SOL     OW26595   1.311  12.547  10.537  0.1611  0.0515 -0.0146
 5876SOL    HW126596   1.250  12.479  10.506  0.6546 -0.5773  0.3521
 5876SOL    HW226597   1.275  12.574  10.621  0.2669 -0.1550  0.0968
 5877SOL     OW26598   8.279   2.868  10.604 -0.2079  0.0018 -0.3564
 5877SOL    HW126599   8.316   2.798  10.658 -0.8769  0.2820  0.4892
 5877SOL    HW226600   8.241   2.929  10.667 -0.0054  0.9163 -1.1056
 5878SOL     OW26601   6.480   8.201  10.747  0.4542  0.7400 -0.1542
 5878SOL    HW126602   6.431   8.240  10.674  0.8082  1.1713 -0.1725
 5878SOL    HW226603   6.447   8.245  10.825 -0.9381 -0.7431  0.1204
 5879SOL     OW26604  12.257   8.138   2.505  0.3914 -0.0870  0.3259
 5879SOL    HW126605  12.241   8.188   2.425 -2.9154  1.2696  1.6246
 5879SOL    HW226606  12.192   8.067   2.503  0.1442  0.0556  1.7922
 5880SOL     OW26607   8.270   6.590   7.952 -0.2008 -0.3357 -0.4156
 5880SOL    HW126608   8.257   6.617   8.042 -1.0873 -1.1286 -0.2873
 5880SOL    HW226609   8.288   6.671   7.904 -0.5235  0.1856  0.3325
 5881SOL     OW26610   4.540   7.824   6.367 -0.0528 -0.3729 -0.2177
 5881SOL    HW126611   4.566   7.763   6.436 -0.8348 -0.6148 -0.1287
 5881SOL    HW226612   4.514   7.903   6.413 -0.6398 -0.5576 -0.2230
 5882SOL     OW26613   4.353   7.862   8.142 -0.2592  0.5089  0.3431
 5882SOL    HW126614   4.392   7.916   8.074  0.9389  0.5550  1.0426
 5882SOL    HW226615   4.332   7.779   8.098 -0.0989  0.7647 -0.2199
 5883SOL     OW26616   6.467   0.118   1.858  0.1447 -0.0387  0.0850
 5883SOL    HW126617   6.521   0.096   1.934 -0.6046  0.6510  0.8250
 5883SOL    HW226618   6.390   0.162   1.894 -0.8902 -0.9153 -0.9509
 5884SOL     OW26619   2.419   8.770   4.769  0.1030 -0.5143 -0.1728
 5884SOL    HW126620   2.350   8.721   4.815 -0.6702  0.4454 -0.2802
 5884SOL    HW226621   2.501   8.729   4.799 -0.4153 -0.4670  1.4321
 5885SOL     OW26622   0.630   2.469   0.692 -0.2876 -0.4769 -0.4542
 5885SOL    HW126623   0.596   2.383   0.717 -0.5496 -0.5257 -0.9861
 5885SOL    HW226624   0.681   2.453   0.613 -2.1659  0.2003 -1.8502
 5886SOL     OW26625   5.297   4.258  10.379  0.5594  0.4754  0.0068
 5886SOL    HW126626   5.276   4.168  10.352  2.8086  0.3000 -1.3541
 5886SOL    HW226627   5.388   4.254  10.409  0.5725  2.2381  0.3247
 5887SOL     OW26628   4.959   1.108   7.877  0.3647  0.5196  0.4227
 5887SOL    HW126629   4.879   1.154   7.852  0.7585  1.3578  0.6694
 5887SOL    HW226630   5.002   1.087   7.794 -0.0296  0.1993  0.2947
 5888SOL     OW26631   2.463   0.341   0.730  0.2575 -0.0238  0.4374
 5888SOL    HW126632   2.456   0.427   0.689  1.2925 -0.5231 -0.8955
 5888SOL    HW226633   2.549   0.342   0.773 -0.6742  0.3695  2.3747
 5889SOL     OW26634   6.341   1.645   8.982  0.1425  0.4296 -0.0325
 5889SOL    HW126635   6.406   1.658   8.913 -0.0503  0.4070 -0.2227
 5889SOL    HW226636   6.304   1.558   8.964 -0.0536  0.5099 -0.0238
 5890SOL     OW26637  10.873   1.959   0.499 -0.0822  0.4542  0.3089
 5890SOL    HW126638  10.908   1.914   0.576 -0.1214  1.1565  0.7488
 5890SOL    HW226639  10.928   2.037   0.490 -0.0619  0.3584 -0.3927
 5891SOL     OW26640   9.979   9.042   3.058  0.3888 -0.6849 -0.9240
 5891SOL    HW126641  10.008   9.090   2.980 -1.2510  0.1153 -1.0820
 5891SOL    HW226642   9.885   9.031   3.045  0.0677 -0.4718  0.9760
 5892SOL     OW26643   7.092   7.955   3.255 -0.0070  0.2263  0.5077
 5892SOL    HW126644   7.177   7.998   3.264  0.5510 -1.0810  1.8549
 5892SOL    HW226645   7.042   8.013   3.197  1.7820  1.0230 -0.3139
 5893SOL     OW26646   4.931   9.332   0.485  0.6883  0.8206  0.0410
 5893SOL    HW126647   5.002   9.396   0.475  2.1176 -0.9484 -2.3274
 5893SOL    HW226648   4.975   9.254   0.518 -0.4786  0.1948  0.1487
 5894SOL     OW26649   1.522   6.120  11.610  0.6712  0.4906  0.2353
 5894SOL    HW126650   1.527   6.142  11.704  1.4904  2.4991 -0.2128
 5894SOL    HW226651   1.568   6.037  11.602  0.8885  0.4590  1.5845
 5895SOL     OW26652  11.776   6.785   4.954 -0.0209 -0.1066 -0.0340
 5895SOL    HW126653  11.783   6.846   5.027 -1.6444 -0.6170  0.5971
 5895SOL    HW226654  11.770   6.699   4.995 -1.3946 -0.3619 -0.7095
 5896SOL     OW26655   0.841   2.521  12.564  0.3861  0.4286 -0.1583
 5896SOL    HW126656   0.922   2.470  12.552  0.9427  1.4436 -0.8569
 5896SOL    HW226657   0.849   2.593  12.502 -0.3706  1.4048  0.8409
 5897SOL     OW26658   4.716   5.662   5.113 -0.2023 -0.1165 -0.7969
 5897SOL    HW126659   4.706   5.754   5.087  0.9791 -0.0827 -1.2056
 5897SOL    HW226660   4.796   5.633   5.068  0.7442 -0.6709  1.1067
 5898SOL     OW26661   3.311   8.353   0.555  0.2970  0.2282 -0.5125
 5898SOL    HW126662   3.377   8.307   0.607  0.0918 -1.5810 -1.7378
 5898SOL    HW226663   3.297   8.436   0.600  2.8998  0.3737  0.1440
 5899SOL     OW26664  10.328   4.124   4.532  0.0707 -0.4778 -0.1056
 5899SOL    HW126665  10.274   4.051   4.505  1.2260 -1.9513  1.3167
 5899SOL    HW226666  10.380   4.089   4.605  2.4337  1.0139 -0.9497
 5900SOL     OW26667  11.256   4.972   9.519 -0.1632  0.3138 -0.2388
 5900SOL    HW126668  11.222   4.931   9.439  1.6785 -1.4308 -0.1948
 5900SOL    HW226669  11.233   4.912   9.589  2.6080 -0.7908 -0.1738
 5901SOL     OW26670   0.803   8.777   0.227  0.2791 -0.3459 -0.8188
 5901SOL    HW126671   0.869   8.708   0.221  0.7406  0.0139 -0.0436
 5901SOL    HW226672   0.730   8.736   0.273  1.4277  0.2643  1.7167
 5902SOL     OW26673   1.737   0.841   4.538  0.0450  0.4880  0.3071
 5902SOL    HW126674   1.778   0.754   4.546  1.5894  1.1760  0.3220
 5902SOL    HW226675   1.653   0.824   4.497  1.4201 -0.7776 -2.2701
 5903SOL     OW26676  10.714   2.025   0.196  0.1760 -0.1959 -0.0328
 5903SOL    HW126677  10.748   2.108   0.165  1.1418 -0.7197 -0.4318
 5903SOL    HW226678  10.663   2.047   0.274  1.0281  0.6881  0.2957
 5904SOL     OW26679   2.452   8.656   6.543 -0.2264 -0.0275  0.0796
 5904SOL    HW126680   2.435   8.575   6.591 -0.7331  0.2862  0.4401
 5904SOL    HW226681   2.546   8.654   6.525 -0.2351 -0.6908  0.0890
 5905SOL     OW26682   8.128   5.067  11.903 -0.1971  0.1834 -0.1490
 5905SOL    HW126683   8.188   5.086  11.975  1.6285  2.3959 -2.0987
 5905SOL    HW226684   8.180   5.081  11.824 -2.3822 -1.1794 -1.9594
 5906SOL     OW26685  11.368   8.116   7.288  0.5316 -0.6448  0.0657
 5906SOL    HW126686  11.350   8.184   7.353  1.4513 -2.0577  1.8591
 5906SOL    HW226687  11.286   8.067   7.281  0.4984 -0.6239  0.3180
 5907SOL     OW26688   5.766   7.508   0.077  0.4462 -0.1151  0.2551
 5907SOL    HW126689   5.830   7.563   0.122  2.8644 -0.8719 -2.0661
 5907SOL    HW226690   5.702   7.570   0.041  0.6533  0.7640  1.3331
 5908SOL     OW26691   3.146  12.067   7.934  0.2304 -0.2948 -0.1927
 5908SOL    HW126692   3.126  12.161   7.945  1.2121 -0.0122 -0.7343
 5908SOL    HW226693   3.071  12.023   7.974 -1.5537  0.7076 -2.1558
 5909SOL     OW26694   0.810   7.780   1.370  0.1020  0.2177 -0.3325
 5909SOL    HW126695   0.825   7.701   1.422  0.7237  0.9331  0.6253
 5909SOL    HW226696   0.718   7.802   1.386  0.1202  0.0831 -0.0157
 5910SOL     OW26697   2.619   3.491   2.453  0.4107  0.8651  0.1157
 5910SOL    HW126698   2.628   3.399   2.478 -2.7592  0.7251  1.1574
 5910SOL    HW226699   2.615   3.539   2.536  0.7205  1.7890 -0.3885
 5911SOL     OW26700   7.667   3.843   0.329 -0.4725  0.2067  0.0631
 5911SOL    HW126701   7.756   3.867   0.355 -0.2579  1.4917 -1.6306
 5911SOL    HW226702   7.636   3.785   0.398  1.6315 -0.1680  0.7621
 5912SOL     OW26703   3.198   2.671  12.189 -0.1443  0.3521  0.0456
 5912SOL    HW126704   3.180   2.614  12.264 -0.8232  0.6944  0.1493
 5912SOL    HW226705   3.288   2.650  12.165  0.6160  1.2968  1.8820
 5913SOL     OW26706  10.101   6.471   7.394  0.5466 -0.1660 -0.0198
 5913SOL    HW126707  10.163   6.503   7.459  0.2628  0.0758  0.1359
 5913SOL    HW226708  10.117   6.526   7.317  2.4517 -1.9120 -0.9733
 5914SOL     OW26709   6.406   5.319   0.085 -0.4921 -0.7100 -0.3104
 5914SOL    HW126710   6.370   5.404   0.062 -0.8901 -0.4200  1.2660
 5914SOL    HW226711   6.406   5.318   0.181  1.5639 -1.6141 -0.2656
 5915SOL     OW26712   2.030   8.585  11.727  0.2152  0.2026 -0.4937
 5915SOL    HW126713   2.010   8.607  11.818  0.4909  0.1883 -0.4294
 5915SOL    HW226714   1.983   8.651  11.676  0.4149  0.4782 -0.3249
 5916SOL     OW26715   0.683   6.858   5.746 -0.0947  0.2725 -0.1604
 5916SOL    HW126716   0.607   6.817   5.786 -2.9127  1.3866 -3.8111
 5916SOL    HW226717   0.710   6.797   5.677  0.8369  0.9449 -0.4094
 5917SOL     OW26718   2.737   4.081   2.762  0.7059  0.0867 -0.4637
 5917SOL    HW126719   2.815   4.135   2.755 -1.3900  3.2125 -1.6066
 5917SOL    HW226720   2.665   4.143   2.768 -1.7474 -2.6331  0.6731
 5918SOL     OW26721   2.379  11.850  10.532  0.1348  0.3259 -0.5110
 5918SOL    HW126722   2.381  11.771  10.587  1.9924  0.7033  0.0460
 5918SOL    HW226723   2.298  11.894  10.556 -0.2396 -0.7107  0.2104
 5919SOL     OW26724  11.863   4.994   4.649 -0.5363  0.2421  0.1188
 5919SOL    HW126725  11.885   5.070   4.595  0.4642 -1.0581 -1.3611
 5919SOL    HW226726  11.909   5.009   4.731  2.3350 -0.2398 -1.2971
 5920SOL     OW26727   4.612  10.514   7.772 -0.0715  0.0446 -0.1154
 5920SOL    HW126728   4.548  10.446   7.749 -0.3363 -0.0017  0.6878
 5920SOL    HW226729   4.560  10.594   7.780  0.1900  0.2766 -0.7608
 5921SOL     OW26730   4.672   4.006  11.895 -0.2477 -0.1004  0.4345
 5921SOL    HW126731   4.707   3.974  11.978 -0.3447 -2.3912 -0.3429
 5921SOL    HW226732   4.681   3.932  11.835 -1.0815  1.1723 -1.3511
 5922SOL     OW26733   6.942   6.843   1.716 -0.6147  0.4798  0.4514
 5922SOL    HW126734   7.025   6.832   1.762 -0.4603  5.0792  1.8168
 5922SOL    HW226735   6.877   6.802   1.772  0.5126 -2.5114 -0.2591
 5923SOL     OW26736   1.409   0.548   4.879 -0.0154  0.2840  0.4989
 5923SOL    HW126737   1.424   0.512   4.967  0.5075 -0.1390  0.2389
 5923SOL    HW226738   1.362   0.479   4.833 -0.9411  0.7911  0.6647
 5924SOL     OW26739   9.221   9.507   3.324 -0.0206 -0.1392 -0.1891
 5924SOL    HW126740   9.132   9.525   3.354  0.1587 -1.6059  1.3908
 5924SOL    HW226741   9.227   9.412   3.325  2.0980 -0.0576  1.5376
 5925SOL     OW26742   3.395   4.230   1.914  0.1221 -0.5145  0.2342
 5925SOL    HW126743   3.377   4.170   1.842  0.5339 -3.5195  2.4404
 5925SOL    HW226744   3.316   4.282   1.922 -0.2360 -0.6598 -1.8321
 5926SOL     OW26745   1.909  11.732   1.179 -0.1201  0.4967  0.2699
 5926SOL    HW126746   1.907  11.722   1.084  0.0230  2.5781 -0.0100
 5926SOL    HW226747   2.001  11.724   1.202 -0.3624 -2.1658  0.5737
 5927SOL     OW26748   1.730   7.164   6.362  0.2518 -0.1690  0.0136
 5927SOL    HW126749   1.720   7.149   6.268  2.0753  2.5706 -0.7433
 5927SOL    HW226750   1.813   7.121   6.384  1.8668  2.3789 -0.6222
 5928SOL     OW26751  11.463   2.980  10.825 -0.1473 -0.4281  0.1883
 5928SOL    HW126752  11.413   2.924  10.884  0.4004 -1.7718 -0.5860
 5928SOL    HW226753  11.408   2.988  10.747  1.0307 -2.4132 -0.9141
 5929SOL     OW26754   2.565   0.021   3.408  0.6140  0.8839  0.3862
 5929SOL    HW126755   2.533  -0.025   3.485 -1.2008  3.2050  1.1513
 5929SOL    HW226756   2.526  -0.026   3.334 -1.8190  1.5037  1.1618
 5930SOL     OW26757   7.116   6.427   3.221  0.4042 -0.1110 -0.1593
 5930SOL    HW126758   7.049   6.366   3.189  0.9257 -0.1961 -1.1346
 5930SOL    HW226759   7.172   6.442   3.145  1.4425  0.0343  0.6151
 5931SOL     OW26760   6.023   5.859   6.493  0.1508  0.2339  0.3622
 5931SOL    HW126761   5.951   5.834   6.436 -0.8136  0.5956  1.3901
 5931SOL    HW226762   5.983   5.915   6.560  1.4661  0.8643  0.6709
 5932SOL     OW26763   3.535   6.370   2.493 -0.2267  0.3802  0.0781
 5932SOL    HW126764   3.458   6.330   2.533 -0.1666 -0.1296 -0.2986
 5932SOL    HW226765   3.515   6.373   2.399 -0.7356  2.3707  0.2032
 5933SOL     OW26766   8.412   5.804   3.624 -0.3699  0.3216  0.4155
 5933SOL    HW126767   8.472   5.833   3.556  1.1235 -0.7501  1.2196
 5933SOL    HW226768   8.458   5.733   3.668 -1.3981  0.7831  2.3495
 5934SOL     OW26769   3.188   2.799  10.105  0.0025 -0.0086 -0.7093
 5934SOL    HW126770   3.151   2.716  10.075  1.8508 -0.7961 -0.9338
 5934SOL    HW226771   3.161   2.806  10.196  0.3229 -1.1483 -0.5167
 5935SOL     OW26772  12.425   7.347   0.557 -0.5146  0.0865  0.0167
 5935SOL    HW126773  12.427   7.282   0.487 -0.5020 -0.5009  0.5547
 5935SOL    HW226774  12.517   7.367   0.575 -0.5269  0.7068 -0.5502
 5936SOL     OW26775   1.534   7.641   9.186 -0.0168  0.0363 -0.2215
 5936SOL    HW126776   1.515   7.551   9.213 -0.8132  0.4808  0.7733
 5936SOL    HW226777   1.566   7.633   9.096 -3.1518 -0.9813 -1.3787
 5937SOL     OW26778   6.403   8.175   6.559 -0.7210 -0.0220  0.5852
 5937SOL    HW126779   6.492   8.142   6.564 -0.7050 -0.0624  0.0202
 5937SOL    HW226780   6.399   8.243   6.627 -0.9268 -1.5474  2.1583
 5938SOL     OW26781  11.861   8.597   7.278 -0.3279  0.9182  0.1364
 5938SOL    HW126782  11.772   8.628   7.261 -0.2135  1.1451 -0.0517
 5938SOL    HW226783  11.861   8.506   7.249 -0.6401  0.7629  0.6155
 5939SOL     OW26784   9.258  10.099  12.560 -0.1444 -0.0003  0.0159
 5939SOL    HW126785   9.167  10.082  12.584 -0.3106 -1.1216 -1.3177
 5939SOL    HW226786   9.307  10.025  12.597 -0.1617 -0.7791 -1.4287
 5940SOL     OW26787   7.748  11.402   8.494 -0.1354 -0.4924  0.0136
 5940SOL    HW126788   7.800  11.475   8.527 -1.4350  0.7675 -0.6085
 5940SOL    HW226789   7.811  11.347   8.448  0.5449  1.6200 -1.8065
 5941SOL     OW26790  11.505   8.771   4.298 -0.3623  0.0579 -0.3155
 5941SOL    HW126791  11.569   8.763   4.368 -1.0999  0.1641  0.3889
 5941SOL    HW226792  11.557   8.774   4.218  0.5682  1.1258  0.2935
 5942SOL     OW26793   4.371  11.066   9.460 -0.2002  0.0708  0.0368
 5942SOL    HW126794   4.359  10.975   9.434  0.7173 -0.2500  0.6806
 5942SOL    HW226795   4.408  11.061   9.548  0.5445  1.0533 -0.2005
 5943SOL     OW26796  11.063   8.322   7.782  0.8696 -0.0962  0.1634
 5943SOL    HW126797  10.976   8.326   7.742 -0.0547  1.9172  2.1827
 5943SOL    HW226798  11.062   8.241   7.834 -0.3327  0.5765  1.2317
 5944SOL     OW26799  11.627   3.654   7.391  0.6648 -0.0053  0.4212
 5944SOL    HW126800  11.594   3.569   7.364  0.5954  0.1801 -0.1024
 5944SOL    HW226801  11.573   3.717   7.343  2.1924  0.2994 -1.0170
 5945SOL     OW26802   2.229  11.112   3.892  0.2947  0.2265  0.4607
 5945SOL    HW126803   2.201  11.194   3.852  1.4711 -0.1903 -1.3515
 5945SOL    HW226804   2.320  11.128   3.919  0.5064 -0.4439  0.1736
 5946SOL     OW26805   8.353   2.217   2.941 -0.6140  0.0662 -0.5899
 5946SOL    HW126806   8.360   2.312   2.937 -2.0858  0.1828 -1.0627
 5946SOL    HW226807   8.279   2.196   2.883 -0.5701 -1.3231 -0.1775
 5947SOL     OW26808   0.967   6.604   9.786 -0.5817  0.2415 -0.7774
 5947SOL    HW126809   0.928   6.652   9.714  1.0556  2.2431 -0.4398
 5947SOL    HW226810   0.941   6.652   9.864 -0.2003 -0.3666 -0.2617
 5948SOL     OW26811   6.664   6.751   9.020  0.3913  0.4435 -0.6118
 5948SOL    HW126812   6.663   6.689   9.093  2.2103 -1.2090 -1.8935
 5948SOL    HW226813   6.574   6.784   9.016 -0.4089 -1.3880  0.7442
 5949SOL     OW26814   2.224   4.566   9.940 -0.2199  0.3187  0.1548
 5949SOL    HW126815   2.205   4.659   9.954  0.0260  0.2481  1.0227
 5949SOL    HW226816   2.223   4.556   9.844 -0.8766  1.0740  0.0674
 5950SOL     OW26817   4.158   9.967  10.069 -0.0707  0.1460 -0.9974
 5950SOL    HW126818   4.185  10.052  10.034  0.5401  1.7128  2.7209
 5950SOL    HW226819   4.118   9.989  10.153 -0.2252 -3.2587 -0.0603
 5951SOL     OW26820  10.528   3.511   6.362  0.1673  0.1667 -0.0796
 5951SOL    HW126821  10.481   3.566   6.300  0.8442  0.0154 -0.7401
 5951SOL    HW226822  10.465   3.445   6.389 -0.0345  0.0307 -0.8686
 5952SOL     OW26823   8.595   2.814   2.571  0.3725 -0.0431 -0.0004
 5952SOL    HW126824   8.563   2.898   2.603 -0.3480 -0.0989 -0.5345
 5952SOL    HW226825   8.544   2.749   2.620 -1.9283 -0.1341 -2.2585
 5953SOL     OW26826  11.294  10.597   9.421  0.5261  0.2657 -0.2846
 5953SOL    HW126827  11.368  10.569   9.474  0.0918 -0.5525 -0.1005
 5953SOL    HW226828  11.318  10.685   9.390  2.0725 -0.4397 -1.1816
 5954SOL     OW26829   4.119   3.314  11.418  0.2731 -0.2272  0.6558
 5954SOL    HW126830   4.118   3.329  11.513 -5.3076 -0.1315  0.9206
 5954SOL    HW226831   4.095   3.222  11.408  0.2917 -0.1041 -0.6248
 5955SOL     OW26832  12.202   8.542   7.644  0.3158  0.6521  0.1557
 5955SOL    HW126833  12.220   8.460   7.690 -0.3731  0.2456 -0.2920
 5955SOL    HW226834  12.288   8.576   7.622  0.6331  0.4359  1.0092
 5956SOL     OW26835   2.675   1.769  11.937  0.0062  0.8536 -0.5059
 5956SOL    HW126836   2.663   1.685  11.981  1.2045  1.7459  1.6740
 5956SOL    HW226837   2.713   1.746  11.852 -0.1239 -0.8328 -0.1501
 5957SOL     OW26838  12.361   8.840   0.945  0.1791  0.0418 -0.4023
 5957SOL    HW126839  12.318   8.923   0.966  0.2388  0.0996 -0.5068
 5957SOL    HW226840  12.454   8.862   0.940  0.3711 -0.3166  1.0881
 5958SOL     OW26841   5.167  10.595   7.520  0.4826  0.1684  0.2978
 5958SOL    HW126842   5.146  10.506   7.549  1.9718 -0.2746  0.0678
 5958SOL    HW226843   5.183  10.643   7.601 -1.5217  0.6000  0.5106
 5959SOL     OW26844   9.877   7.233   5.646 -0.6870 -0.0301  0.1584
 5959SOL    HW126845   9.947   7.204   5.704 -0.3015  2.9913  1.4048
 5959SOL    HW226846   9.922   7.282   5.576 -1.4404  2.3222  1.2107
 5960SOL     OW26847   1.162   0.008   6.846 -0.4125  0.2939 -0.0330
 5960SOL    HW126848   1.241   0.014   6.792 -0.5615  1.7013 -0.1092
 5960SOL    HW226849   1.094   0.053   6.797 -1.2467 -0.7496  0.1178
 5961SOL     OW26850  12.376   3.129   5.812 -0.1304  0.0625 -0.1238
 5961SOL    HW126851  12.425   3.204   5.846 -0.1227  0.3308 -0.7263
 5961SOL    HW226852  12.284   3.154   5.821 -0.1132  0.5432 -1.2166
 5962SOL     OW26853   2.467   3.482   3.607  0.2075  0.0839 -0.3177
 5962SOL    HW126854   2.421   3.422   3.665  0.0869  1.7834  1.4488
 5962SOL    HW226855   2.547   3.505   3.655  1.3432 -0.3297 -1.9278
 5963SOL     OW26856   0.593  10.575  10.188 -0.1566 -0.2206  0.5216
 5963SOL    HW126857   0.545  10.546  10.265 -0.0581  1.3523  1.2039
 5963SOL    HW226858   0.540  10.646  10.152 -0.9169 -1.7834 -1.7068
 5964SOL     OW26859   8.722   1.539   0.422 -0.0726 -0.0698 -0.3535
 5964SOL    HW126860   8.763   1.578   0.344  2.3380 -0.1081  0.8266
 5964SOL    HW226861   8.779   1.563   0.494 -1.4347 -1.3141  1.2154
 5965SOL     OW26862   4.757   5.041   5.014 -0.4896 -0.3273 -0.0236
 5965SOL    HW126863   4.692   4.990   4.965 -0.7459 -0.3509  0.3322
 5965SOL    HW226864   4.737   5.132   4.993 -2.2020 -0.1659  1.9103
 5966SOL     OW26865   8.869   9.137  12.478  0.0305 -0.0389 -0.0904
 5966SOL    HW126866   8.961   9.116  12.491  0.0264 -0.6772 -0.9932
 5966SOL    HW226867   8.822   9.077  12.536  0.1974  0.6830  0.8020
 5967SOL     OW26868   2.776   4.142   1.392 -0.4285 -0.5752  0.1927
 5967SOL    HW126869   2.687   4.153   1.359 -0.9965 -0.7553  1.6029
 5967SOL    HW226870   2.779   4.196   1.471  0.1354 -2.0016  1.1703
 5968SOL     OW26871   8.868  10.121   4.796  0.1159  0.3547 -0.6163
 5968SOL    HW126872   8.879  10.215   4.782 -1.9041  0.5471 -1.3092
 5968SOL    HW226873   8.827  10.090   4.715 -1.1723 -0.7216  0.3976
 5969SOL     OW26874   5.066   7.729   8.768 -0.3041  0.3216  0.5557
 5969SOL    HW126875   5.106   7.793   8.709 -1.7849 -0.0818 -0.9495
 5969SOL    HW226876   5.129   7.721   8.840  0.9878  1.7446 -0.3451
 5970SOL     OW26877   1.662  10.335  11.818 -0.0899  0.2932 -0.2712
 5970SOL    HW126878   1.634  10.243  11.825 -1.5147  0.7442  0.3395
 5970SOL    HW226879   1.687  10.359  11.908 -0.6342  0.7752 -0.2478
 5971SOL     OW26880   5.782   3.804   2.463 -0.1435 -0.3687  0.0741
 5971SOL    HW126881   5.779   3.883   2.410  1.5515  0.5811  1.3146
 5971SOL    HW226882   5.698   3.761   2.446 -0.5118  0.9434 -1.7245
 5972SOL     OW26883  11.297  11.693   4.074 -0.4661  0.0800  0.0718
 5972SOL    HW126884  11.210  11.668   4.043 -1.5875  0.8086  2.3615
 5972SOL    HW226885  11.296  11.789   4.072  0.7709  0.0933 -1.0273
 5973SOL     OW26886   9.135  11.011   2.247 -0.1064 -0.2158 -0.9312
 5973SOL    HW126887   9.104  10.920   2.253 -0.2174 -0.1979 -1.2484
 5973SOL    HW226888   9.171  11.029   2.334  0.0419 -0.6105 -0.9082
 5974SOL     OW26889   1.836   9.374   9.819 -0.5278  0.3097 -0.0199
 5974SOL    HW126890   1.811   9.282   9.817  0.1616  0.1195 -0.0379
 5974SOL    HW226891   1.864   9.394   9.730  0.2481  0.2726  0.2105
 5975SOL     OW26892   1.236  11.713  12.042 -0.1878 -0.1634 -0.1687
 5975SOL    HW126893   1.224  11.619  12.027  1.3366 -0.4946  0.4908
 5975SOL    HW226894   1.330  11.723  12.055 -0.2484  1.5638 -0.8471
 5976SOL     OW26895   7.110   2.682   5.489 -0.6585  0.3199  0.5624
 5976SOL    HW126896   7.028   2.635   5.475 -0.4308  0.0505  0.1003
 5976SOL    HW226897   7.145   2.646   5.570 -0.8414  0.2091  0.5923
 5977SOL     OW26898   7.469   9.860   4.861 -0.1306 -0.5609 -0.3492
 5977SOL    HW126899   7.453   9.955   4.862 -1.1063 -0.6962  1.9496
 5977SOL    HW226900   7.542   9.848   4.921 -0.4666 -1.3180 -0.0822
 5978SOL     OW26901  11.678  11.467   2.410 -0.0796 -0.6060 -0.0633
 5978SOL    HW126902  11.641  11.538   2.463 -0.6795  0.2176 -1.5332
 5978SOL    HW226903  11.760  11.446   2.454 -0.4561  0.1794  1.0848
 5979SOL     OW26904   7.745   7.521   2.457 -0.6475 -0.1012 -0.6915
 5979SOL    HW126905   7.674   7.477   2.503 -0.8080  2.4063  1.7179
 5979SOL    HW226906   7.823   7.470   2.477 -0.9502  0.1476  1.2796
 5980SOL     OW26907   4.969  10.860   8.530 -0.2555 -0.4514 -0.1050
 5980SOL    HW126908   4.970  10.896   8.618 -0.2780 -0.4033 -0.1245
 5980SOL    HW226909   4.905  10.788   8.534 -0.1959 -0.5022 -0.0612
 5981SOL     OW26910   0.312   2.399  10.422 -0.3921  0.4911 -0.2838
 5981SOL    HW126911   0.401   2.428  10.446 -0.5541 -0.4125  1.6094
 5981SOL    HW226912   0.264   2.400  10.505 -1.2518 -2.1748 -0.6637
 5982SOL     OW26913   2.238   4.210   4.074  0.1013  0.4250  0.8546
 5982SOL    HW126914   2.302   4.281   4.065 -0.6908  1.1098  0.4783
 5982SOL    HW226915   2.172   4.245   4.134 -1.4286  0.8878 -0.9789
 5983SOL     OW26916   9.682   7.519  11.102 -0.1815  0.5140  0.3811
 5983SOL    HW126917   9.669   7.568  11.183 -0.4917  0.2879  0.4666
 5983SOL    HW226918   9.761   7.467  11.118  1.0643  2.0903 -0.2399
 5984SOL     OW26919   3.616   6.704   6.203 -0.0008 -0.2419 -0.1242
 5984SOL    HW126920   3.585   6.615   6.220 -0.7669  0.2330  1.1050
 5984SOL    HW226921   3.589   6.754   6.280  0.8235  0.9613 -0.5851
 5985SOL     OW26922   6.976   4.538   7.480  0.0388 -0.1235  0.7912
 5985SOL    HW126923   6.983   4.506   7.390 -0.6437 -0.4732  0.8575
 5985SOL    HW226924   7.063   4.574   7.499 -0.0397  0.6838 -0.2766
 5986SOL     OW26925   5.230   4.827   8.350 -0.0764  0.1013  0.4471
 5986SOL    HW126926   5.211   4.921   8.355 -0.1225  0.0628  1.1449
 5986SOL    HW226927   5.262   4.814   8.261  0.9177  0.9704  0.6551
 5987SOL     OW26928  10.100   6.965   8.127  0.4920  0.2889 -0.0641
 5987SOL    HW126929  10.018   6.956   8.077  1.2265 -1.5161 -1.0493
 5987SOL    HW226930  10.163   7.001   8.064  1.2534 -1.3836 -0.3121
 5988SOL     OW26931   5.294   1.206   7.068 -0.3955  0.4387  0.3966
 5988SOL    HW126932   5.281   1.267   7.141 -2.6633  1.2086 -0.5398
 5988SOL    HW226933   5.266   1.121   7.102 -1.3006  0.7655  0.4943
 5989SOL     OW26934  12.012   0.576  10.030 -0.2080 -0.0857  0.1166
 5989SOL    HW126935  12.048   0.655  10.070 -1.4612  0.0652  1.0290
 5989SOL    HW226936  12.018   0.591   9.936 -1.5752  1.6790  0.2573
 5990SOL     OW26937   5.925   4.136  10.938 -0.3114 -0.3235 -0.2114
 5990SOL    HW126938   6.018   4.113  10.929  0.0961  1.1865 -0.1832
 5990SOL    HW226939   5.915   4.217  10.888 -1.0264  0.8897  1.7579
 5991SOL     OW26940   0.322   8.745   4.816 -0.5329  0.0414 -0.4863
 5991SOL    HW126941   0.363   8.762   4.731  1.1495  0.8816  0.4504
 5991SOL    HW226942   0.387   8.773   4.880 -1.1426 -1.9958  1.1222
 5992SOL     OW26943   1.609   4.701  11.422 -0.2472  0.5318  0.5460
 5992SOL    HW126944   1.535   4.759  11.402 -0.7154  0.2307  1.3418
 5992SOL    HW226945   1.569   4.625  11.464  0.5852  0.7561  1.8176
 5993SOL     OW26946   4.680   8.014   4.135  0.2501  0.2893  0.0695
 5993SOL    HW126947   4.719   7.939   4.090  0.5240  0.0526  0.6858
 5993SOL    HW226948   4.753   8.055   4.181  0.2715  1.4654 -0.9642
 5994SOL     OW26949   3.978   3.580   2.535  0.3976  0.9988 -0.8909
 5994SOL    HW126950   3.886   3.554   2.540  1.2203 -2.1788  0.2388
 5994SOL    HW226951   4.001   3.606   2.625  1.4260 -1.9020 -0.2072
 5995SOL     OW26952   9.233  11.471  10.849  0.7176 -0.3487  0.0025
 5995SOL    HW126953   9.175  11.442  10.919  1.0788 -3.4234 -0.8235
 5995SOL    HW226954   9.175  11.490  10.775  0.5077  0.8746  0.4471
 5996SOL     OW26955   3.165   8.442  10.501  0.0621 -0.3896  0.3975
 5996SOL    HW126956   3.254   8.414  10.482 -0.1206 -1.8905  1.5866
 5996SOL    HW226957   3.110   8.383  10.449 -0.2765  1.0469 -0.9748
 5997SOL     OW26958   4.005   7.315  11.802  0.3249 -0.5616 -0.2163
 5997SOL    HW126959   3.966   7.229  11.783  0.4595 -0.6512 -0.0870
 5997SOL    HW226960   4.079   7.295  11.859 -1.0146 -0.1545  1.7381
 5998SOL     OW26961  10.950   0.884   5.600 -0.5093 -0.3151 -0.3210
 5998SOL    HW126962  10.991   0.832   5.531 -0.5588  0.3588 -0.8800
 5998SOL    HW226963  10.890   0.825   5.643  0.6755 -1.1890  0.1854
 5999SOL     OW26964   8.741   4.501  12.171 -0.3535 -0.3296 -0.5960
 5999SOL    HW126965   8.662   4.448  12.171  0.2428 -1.2466 -0.5395
 5999SOL    HW226966   8.797   4.459  12.237 -0.9492  2.0551  1.6087
 6000SOL     OW26967   8.707   0.658   9.389  0.4936 -0.2796  0.3108
 6000SOL    HW126968   8.785   0.655   9.334 -0.4129 -0.8263 -0.9901
 6000SOL    HW226969   8.677   0.749   9.383  1.0445 -0.0590  0.8466
 6001SOL     OW26970   8.358   8.953  11.492 -0.0205  0.2447  0.6071
 6001SOL    HW126971   8.362   8.870  11.540 -1.2615  1.0186  2.1384
 6001SOL    HW226972   8.267   8.981  11.501  0.2313  1.4761 -0.4376
 6002SOL     OW26973   6.192   4.280   4.316 -0.1734  0.0526 -0.1990
 6002SOL    HW126974   6.192   4.328   4.398 -0.9598 -1.7393  0.9066
 6002SOL    HW226975   6.206   4.189   4.341 -1.7646 -0.7376 -1.9220
 6003SOL     OW26976   1.290   3.031  11.876  0.2092 -0.0572  0.2481
 6003SOL    HW126977   1.302   3.126  11.878  1.0879 -0.1421 -0.5066
 6003SOL    HW226978   1.282   3.010  11.784  1.5809 -0.8875  0.2991
 6004SOL     OW26979   5.239   9.508   5.997 -0.5500 -0.0077 -0.0496
 6004SOL    HW126980   5.250   9.549   5.911  0.1976 -1.1911 -0.5518
 6004SOL    HW226981   5.292   9.429   5.992 -0.9617 -0.3930  1.3140
 6005SOL     OW26982   4.900   7.455  11.586  0.4675  0.2986  0.4576
 6005SOL    HW126983   4.840   7.391  11.547  0.9674  0.4967 -0.6774
 6005SOL    HW226984   4.955   7.403  11.645  1.2017 -0.4450 -0.8282
 6006SOL     OW26985   2.177  12.434   9.204  0.2554  0.3081  0.2087
 6006SOL    HW126986   2.137  12.466   9.122  0.5338 -0.2122 -0.1349
 6006SOL    HW226987   2.205  12.513   9.250  1.2254  0.5594 -0.7765
 6007SOL     OW26988   7.071   9.808   7.969  0.1158  0.5241 -0.3640
 6007SOL    HW126989   6.997   9.851   8.012 -1.1669 -0.2120 -1.7071
 6007SOL    HW226990   7.133   9.790   8.039 -1.2961  0.5333  0.9544
 6008SOL     OW26991   4.195   1.892  11.710  0.4030 -0.5166 -0.5253
 6008SOL    HW126992   4.193   1.859  11.621  1.1436  1.5240 -1.3551
 6008SOL    HW226993   4.287   1.885  11.737  0.8466  1.7947 -1.1729
 6009SOL     OW26994   6.160   8.462   7.897 -0.2061 -0.5584  0.0310
 6009SOL    HW126995   6.128   8.550   7.915  0.1601 -0.0655 -1.5375
 6009SOL    HW226996   6.102   8.404   7.946 -0.9018  0.5204  0.5109
 6010SOL     OW26997   8.249   4.494   0.043 -0.8131 -0.5409 -0.2743
 6010SOL    HW126998   8.342   4.480   0.025 -0.6333  0.2295  0.0248
 6010SOL    HW226999   8.211   4.406   0.043  0.0227 -0.9112  0.1892
 6011SOL     OW27000   0.562   7.131   5.681  0.4320  0.1110 -0.1708
 6011SOL    HW127001   0.480   7.095   5.646  0.9105 -1.0603 -0.1350
 6011SOL    HW227002   0.609   7.055   5.714  1.6895  0.7284 -0.4930
 6012SOL     OW27003  12.537   5.130   1.047 -0.3400 -0.4478 -0.2611
 6012SOL    HW127004  12.519   5.062   0.982  2.3921 -0.8887 -0.7160
 6012SOL    HW227005  12.625   5.108   1.080 -0.2858  1.6431  1.1859
 6013SOL     OW27006   1.028   5.176   9.887 -0.3555  0.0340 -0.2753
 6013SOL    HW127007   1.109   5.223   9.867  0.2687 -0.4341  1.0508
 6013SOL    HW227008   0.985   5.229   9.955 -0.8168 -0.0879 -0.4659
 6014SOL     OW27009   9.649  12.279   0.056 -0.6296 -0.2476 -0.1306
 6014SOL    HW127010   9.650  12.337   0.133 -1.7816  0.8589 -0.9039
 6014SOL    HW227011   9.593  12.206   0.082 -1.4074  0.3570 -0.0316
 6015SOL     OW27012  12.378  10.094   4.179  0.2300  0.1269 -0.0841
 6015SOL    HW127013  12.289  10.059   4.181 -0.2213  1.0010 -1.9768
 6015SOL    HW227014  12.376  10.157   4.107  2.8466 -1.1687 -1.4173
 6016SOL     OW27015   6.271   5.911  12.488  0.2377  0.4534  0.2666
 6016SOL    HW127016   6.304   5.992  12.527 -0.9033  0.9190  0.3302
 6016SOL    HW227017   6.301   5.913  12.398  0.4370  0.8266  0.3394
 6017SOL     OW27018  10.631  10.324   8.042  0.1817  0.0994  0.1481
 6017SOL    HW127019  10.706  10.337   7.984  1.1253  1.5749  1.6102
 6017SOL    HW227020  10.665  10.274   8.116 -1.1007 -2.1274 -0.6750
 6018SOL     OW27021   4.020  10.209   1.433 -0.3203  0.0820 -0.4207
 6018SOL    HW127022   3.931  10.199   1.468 -0.3833  0.5006 -0.4584
 6018SOL    HW227023   4.077  10.193   1.507 -0.4011 -1.0838 -0.5958
 6019SOL     OW27024   3.651  11.125  12.092  0.5798 -0.3658  0.1856
 6019SOL    HW127025   3.745  11.138  12.087  0.4293  1.3445  1.0014
 6019SOL    HW227026   3.622  11.122  12.000  1.2740  0.3874 -0.0652
 6020SOL     OW27027   1.158   8.576   3.529  0.5007  0.2019 -0.7793
 6020SOL    HW127028   1.128   8.509   3.590 -1.3292  0.8869 -0.8651
 6020SOL    HW227029   1.080   8.601   3.479  1.1733  2.1464 -0.9689
 6021SOL     OW27030   3.317  11.816   2.276 -0.0453 -0.2553  0.3284
 6021SOL    HW127031   3.353  11.856   2.355  2.0807  0.6598 -1.0206
 6021SOL    HW227032   3.238  11.867   2.257  1.7167  2.3718 -0.4355
 6022SOL     OW27033   7.555  12.557   3.388 -0.7365 -0.1739 -0.2491
 6022SOL    HW127034   7.578  12.604   3.309 -1.3542 -1.2445 -1.0955
 6022SOL    HW227035   7.479  12.503   3.363 -0.8924 -0.5969  1.0386
 6023SOL     OW27036   9.611   5.516   5.618 -0.2024  0.1108 -0.3459
 6023SOL    HW127037   9.540   5.502   5.556  0.6680 -0.3892 -1.2631
 6023SOL    HW227038   9.572   5.568   5.688 -1.5659 -0.4905 -0.6283
 6024SOL     OW27039   4.911   6.431   7.180 -0.4953  0.0218  0.7936
 6024SOL    HW127040   4.967   6.479   7.120 -1.3950  1.6626  1.1825
 6024SOL    HW227041   4.968   6.365   7.220  0.1640 -0.9609 -1.6448
 6025SOL     OW27042  12.447   9.982   5.374 -0.0417 -0.3279  0.2176
 6025SOL    HW127043  12.463   9.909   5.313  1.2522  0.7924 -0.8644
 6025SOL    HW227044  12.377  10.032   5.334 -0.4124 -0.5563  0.5752
 6026SOL     OW27045  10.930   8.050  12.577  0.3166  0.2111  0.1932
 6026SOL    HW127046  10.943   8.098  12.495  0.5531 -0.3771 -0.1193
 6026SOL    HW227047  11.017   8.050  12.619  0.1628  0.6369  0.5134
 6027SOL     OW27048  12.526   6.534   2.160  0.4963  0.0297  0.2131
 6027SOL    HW127049  12.505   6.507   2.071  0.1466  0.1099  0.2715
 6027SOL    HW227050  12.591   6.469   2.189 -0.1412 -0.6067  0.2577
 6028SOL     OW27051   8.799   6.317   7.314 -0.1470 -0.3032  0.6065
 6028SOL    HW127052   8.761   6.361   7.391  3.3705  3.6231  0.4683
 6028SOL    HW227053   8.767   6.367   7.239 -0.4294 -1.5901 -0.1558
 6029SOL     OW27054   0.177   9.186   0.995  0.6842 -0.3396  0.0009
 6029SOL    HW127055   0.156   9.218   1.083 -0.8045  0.9337 -0.7621
 6029SOL    HW227056   0.269   9.158   1.000  0.1015 -2.1845  2.4544
 6030SOL     OW27057   8.147   1.631   1.696 -0.3700 -0.0964 -0.5801
 6030SOL    HW127058   8.139   1.695   1.767  2.1664  1.9661 -2.0006
 6030SOL    HW227059   8.069   1.645   1.642  0.1746  2.0002 -0.9303
 6031SOL     OW27060   9.428   1.157   1.217  0.1412  0.2968 -0.1213
 6031SOL    HW127061   9.498   1.220   1.234  1.8571 -1.0369 -1.7892
 6031SOL    HW227062   9.454   1.079   1.266 -0.7977  0.1554  0.1642
 6032SOL     OW27063   6.812   8.295   7.657 -0.0058 -0.6327  0.2044
 6032SOL    HW127064   6.858   8.290   7.741  0.0327 -0.0946  0.2220
 6032SOL    HW227065   6.782   8.386   7.653  0.6896 -0.4335 -0.7339
 6033SOL     OW27066  10.058   5.439   8.893  0.3947  0.3408  0.0946
 6033SOL    HW127067  10.081   5.528   8.867  1.4212  0.2241  0.5813
 6033SOL    HW227068   9.979   5.450   8.946 -1.0110  0.7021 -1.9376
 6034SOL     OW27069  11.174   6.937   0.870 -0.3504 -0.4135 -0.0925
 6034SOL    HW127070  11.114   6.939   0.795  0.3590 -0.0820 -0.6619
 6034SOL    HW227071  11.225   7.017   0.861 -1.0947  0.2832  1.4582
 6035SOL     OW27072   0.241   1.705   5.026  0.6489  0.2309 -0.2388
 6035SOL    HW127073   0.336   1.693   5.024  0.5965 -0.1117 -0.7167
 6035SOL    HW227074   0.220   1.714   5.119  1.1782  0.5645 -0.1481
 6036SOL     OW27075   1.207   3.474   7.989 -0.0641 -0.0448  0.7372
 6036SOL    HW127076   1.172   3.446   8.073  0.8003 -0.9772  0.8080
 6036SOL    HW227077   1.254   3.555   8.007 -0.2004 -0.0443  1.0837
 6037SOL     OW27078  10.615   8.684   2.528 -0.3636 -0.1194 -0.9000
 6037SOL    HW127079  10.526   8.659   2.553 -0.0329  0.1124  0.5698
 6037SOL    HW227080  10.668   8.668   2.606  0.5433  1.5135 -1.1369
 6038SOL     OW27081   3.893  10.768   5.861  0.4585  0.4707 -0.0813
 6038SOL    HW127082   3.908  10.681   5.897 -1.3624 -0.5774 -1.7109
 6038SOL    HW227083   3.798  10.776   5.854  0.5718  2.6571  0.1423
 6039SOL     OW27084   4.446  11.384   7.979 -0.0065  0.2133 -0.2408
 6039SOL    HW127085   4.464  11.312   8.040  0.7842 -0.1370 -0.8753
 6039SOL    HW227086   4.366  11.424   8.012 -0.9230 -1.4721 -0.3294
 6040SOL     OW27087   7.562   2.330   0.160  0.3131 -0.1767  0.6469
 6040SOL    HW127088   7.564   2.257   0.098 -2.0153  2.2708 -2.7349
 6040SOL    HW227089   7.500   2.303   0.227  0.5844 -1.8221  0.2700
 6041SOL     OW27090   2.029   3.549   8.763  0.7031 -0.2707 -0.3174
 6041SOL    HW127091   1.974   3.470   8.769 -1.2293  0.9867 -0.6101
 6041SOL    HW227092   2.118   3.516   8.773 -0.1623 -2.0544  4.0323
 6042SOL     OW27093   3.424   3.400   3.313 -0.0618 -1.2073 -0.2167
 6042SOL    HW127094   3.481   3.451   3.255  0.7445 -1.3850  0.3986
 6042SOL    HW227095   3.475   3.389   3.393 -0.7990 -1.7512  0.1935
 6043SOL     OW27096   0.915   7.976   5.519 -0.8494  1.0654 -0.4673
 6043SOL    HW127097   0.875   7.910   5.575  1.5097 -0.0098  0.0454
 6043SOL    HW227098   0.920   7.935   5.433  1.4564  0.1302  0.0532
 6044SOL     OW27099   4.354   3.676   4.098  0.4115 -0.2683  0.0764
 6044SOL    HW127100   4.419   3.721   4.152 -0.3288  1.1801 -0.2038
 6044SOL    HW227101   4.280   3.736   4.095 -0.5144 -1.4150 -0.5256
 6045SOL     OW27102  12.300   7.485   9.834  0.1458 -0.6667  0.4944
 6045SOL    HW127103  12.350   7.440   9.767  0.8057  2.0170 -0.9670
 6045SOL    HW227104  12.353   7.477   9.913  2.3582  0.9703 -0.7138
 6046SOL     OW27105   6.697   6.585   7.594 -0.8385 -0.3094 -0.2015
 6046SOL    HW127106   6.776   6.531   7.602 -1.2446 -1.1299 -1.3957
 6046SOL    HW227107   6.648   6.567   7.674  0.3526  0.5205  0.7380
 6047SOL     OW27108   0.654   9.858   9.584  0.6053 -0.2242  0.1072
 6047SOL    HW127109   0.737   9.844   9.538  0.7629  0.4058  0.1877
 6047SOL    HW227110   0.669   9.937   9.636  0.2616 -0.6294  0.8422
 6048SOL     OW27111   0.061   1.676   8.835 -0.3419  0.0534 -0.1604
 6048SOL    HW127112   0.039   1.651   8.745 -2.7218 -0.5965  0.5030
 6048SOL    HW227113  -0.010   1.735   8.861  0.5219  0.5503  1.1777
 6049SOL     OW27114   2.105  11.023   9.770 -0.0774 -0.1929  0.7479
 6049SOL    HW127115   2.168  11.093   9.789  0.3208 -0.2312 -0.3601
 6049SOL    HW227116   2.149  10.943   9.797  1.0144 -0.3857 -1.3723
 6050SOL     OW27117   6.229  12.561   5.572 -0.5563  0.0365  0.6079
 6050SOL    HW127118   6.201  12.582   5.661 -2.9358 -0.6114  0.0770
 6050SOL    HW227119   6.215  12.642   5.523 -2.7367 -0.5898  0.1060
 6051SOL     OW27120   3.484  12.544   9.164  0.2134 -0.0677  1.2112
 6051SOL    HW127121   3.434  12.465   9.147 -1.2414  0.7809  1.3739
 6051SOL    HW227122   3.573  12.514   9.179 -0.3961 -1.7081  1.7030
 6052SOL     OW27123   5.915   7.915   5.002  0.1023  0.0967  0.2707
 6052SOL    HW127124   5.985   7.903   4.938 -1.0587 -2.4555 -0.6856
 6052SOL    HW227125   5.946   7.868   5.080  0.6079  1.3976  0.8858
 6053SOL     OW27126   6.598  10.827   8.314 -0.7390 -0.6578 -0.4124
 6053SOL    HW127127   6.683  10.870   8.325 -0.1480 -1.9876  0.4994
 6053SOL    HW227128   6.614  10.759   8.248 -1.1690 -0.7570 -0.4181
 6054SOL     OW27129   3.215  10.143   9.769  0.3164 -0.6750 -0.0561
 6054SOL    HW127130   3.305  10.172   9.787  0.9879  0.7852 -4.6620
 6054SOL    HW227131   3.160  10.213   9.803  1.2088  0.4005 -0.7647
 6055SOL     OW27132   0.805   7.770   0.097 -0.0215  0.2877  0.3728
 6055SOL    HW127133   0.885   7.821   0.086 -0.3282  0.7802  0.4078
 6055SOL    HW227134   0.746   7.802   0.028 -0.4338  0.4162  0.7741
 6056SOL     OW27135   3.390  12.479   0.780  0.4335 -0.0897  0.2229
 6056SOL    HW127136   3.440  12.543   0.830 -2.7474  1.7064  1.3341
 6056SOL    HW227137   3.335  12.435   0.844 -1.1540 -0.2854 -1.2078
 6057SOL     OW27138   7.468  12.567   1.282  0.2902 -0.6079 -0.4171
 6057SOL    HW127139   7.413  12.564   1.361  0.2400 -1.0854 -0.4660
 6057SOL    HW227140   7.558  12.573   1.316  0.1617  1.3618 -0.3450
 6058SOL     OW27141   3.535   3.982   8.093 -0.4169 -0.3575  0.0565
 6058SOL    HW127142   3.452   3.972   8.048 -0.8480  0.2791  0.6930
 6058SOL    HW227143   3.553   4.076   8.090 -0.0615 -0.4057  0.5129
 6059SOL     OW27144  12.293   0.158   2.947  0.3904 -0.3651 -0.4363
 6059SOL    HW127145  12.242   0.214   3.007  0.2641 -0.1417 -0.7524
 6059SOL    HW227146  12.244   0.076   2.945  1.3379 -1.0261  1.1625
 6060SOL     OW27147   3.928   2.788   4.426 -0.3035 -0.8943 -0.1914
 6060SOL    HW127148   3.886   2.707   4.456  0.7609 -1.7435 -0.9559
 6060SOL    HW227149   3.931   2.780   4.331  2.3807 -1.2793 -0.1348
 6061SOL     OW27150  10.359   9.205   9.001  0.3771  0.1764  0.4040
 6061SOL    HW127151  10.366   9.291   9.042  1.3433 -0.5560  1.8415
 6061SOL    HW227152  10.444   9.164   9.016  0.0953 -0.8598 -0.6801
 6062SOL     OW27153   3.296  10.168   7.697 -0.3531 -0.0695 -0.0066
 6062SOL    HW127154   3.304  10.225   7.773  0.2164 -0.1532  0.0030
 6062SOL    HW227155   3.378  10.119   7.695 -0.1337  0.2970 -0.9623
 6063SOL     OW27156  10.130  10.395   8.483  0.3927  0.2882 -0.0436
 6063SOL    HW127157  10.074  10.359   8.414  0.4989 -0.6918  0.3777
 6063SOL    HW227158  10.210  10.344   8.479  0.6721  0.6846  0.3600
 6064SOL     OW27159   7.571   5.680  12.197  0.1641  0.4855  0.2889
 6064SOL    HW127160   7.514   5.633  12.136  1.1886  2.6852 -2.6426
 6064SOL    HW227161   7.559   5.772  12.174  2.1982  1.2678  2.0328
 6065SOL     OW27162  11.691   9.071   6.930  0.5509  0.2091  0.2448
 6065SOL    HW127163  11.768   9.097   6.981  0.8528 -0.9566  0.4114
 6065SOL    HW227164  11.632   9.146   6.936  1.5951  1.0592  0.2613
 6066SOL     OW27165  10.843   8.401   8.635  0.6333  0.5274 -0.3286
 6066SOL    HW127166  10.793   8.400   8.716  0.1720 -1.6809 -0.5745
 6066SOL    HW227167  10.834   8.313   8.600  2.1948  0.9450 -1.9538
 6067SOL     OW27168   1.341  11.741   1.563 -0.1882 -0.3375 -0.2593
 6067SOL    HW127169   1.421  11.724   1.613  1.2964 -2.3885 -3.0144
 6067SOL    HW227170   1.359  11.821   1.514 -0.5037  0.0758  0.2823
 6068SOL     OW27171   4.039   6.315   6.688 -0.3408  0.3247  0.1092
 6068SOL    HW127172   3.950   6.283   6.671  0.3354 -1.7377  0.2287
 6068SOL    HW227173   4.075   6.254   6.752  1.2240  1.0276 -0.0571
 6069SOL     OW27174  10.522   8.745   8.325  0.5058 -0.0686 -0.4758
 6069SOL    HW127175  10.456   8.685   8.291 -1.2997  0.0734  2.4324
 6069SOL    HW227176  10.589   8.688   8.362  0.3912 -0.2705 -0.5750
 6070SOL     OW27177   7.367   8.244   8.460 -0.5542  0.1177  0.0836
 6070SOL    HW127178   7.306   8.209   8.526  1.6405 -1.3169  1.4664
 6070SOL    HW227179   7.349   8.193   8.382 -0.2749 -1.2011  0.8518
 6071SOL     OW27180   1.700  10.255   6.803  0.2706 -0.2297 -0.4889
 6071SOL    HW127181   1.683  10.163   6.783  3.9700 -1.7153  2.2360
 6071SOL    HW227182   1.786  10.273   6.766 -0.1338  1.9907 -0.4837
 6072SOL     OW27183   5.057   8.603   7.128  0.4127  0.2963  0.0228
 6072SOL    HW127184   5.146   8.596   7.163  0.5997  1.9445 -0.0388
 6072SOL    HW227185   5.000   8.597   7.205  0.5397 -0.9593  0.0422
 6073SOL     OW27186  11.833   5.186   7.203 -0.4839  0.6876  0.2737
 6073SOL    HW127187  11.887   5.115   7.237  0.4191  0.7311 -0.9876
 6073SOL    HW227188  11.895   5.258   7.189 -1.5342  2.1298  2.4737
 6074SOL     OW27189   0.900   2.761  12.428  0.4563 -0.0423  0.0979
 6074SOL    HW127190   0.965   2.761  12.498  0.0907  1.0851  0.4595
 6074SOL    HW227191   0.852   2.843  12.440  1.0058  0.6490 -2.0541
 6075SOL     OW27192  11.920  11.491   0.237  0.3748 -0.1764  0.2135
 6075SOL    HW127193  11.849  11.506   0.299  0.0042 -1.0960  0.0268
 6075SOL    HW227194  11.987  11.555   0.261 -0.2961  0.3419  0.7289
 6076SOL     OW27195   3.500   9.720   2.428  0.4311 -0.0799 -0.0971
 6076SOL    HW127196   3.502   9.646   2.367 -1.5539 -0.4426  0.2220
 6076SOL    HW227197   3.442   9.784   2.386  3.0239  1.9039 -0.9567
 6077SOL     OW27198   1.791   3.819   2.158 -0.2628  0.2504 -0.7547
 6077SOL    HW127199   1.836   3.758   2.217 -2.3584 -0.1520  0.5523
 6077SOL    HW227200   1.846   3.822   2.080  2.6968  0.8499  1.1962
 6078SOL     OW27201   6.662   7.627   6.387 -0.1794 -0.1573 -0.0462
 6078SOL    HW127202   6.686   7.534   6.394  1.4948 -0.0275 -2.8050
 6078SOL    HW227203   6.744   7.672   6.366 -1.1263  1.8478  0.3186
 6079SOL     OW27204   0.997   3.085   2.289 -0.0215  0.2053 -0.1286
 6079SOL    HW127205   1.009   3.171   2.328  0.8178  0.5459 -1.1091
 6079SOL    HW227206   1.063   3.030   2.330 -0.1368  0.1880  0.0334
 6080SOL     OW27207   2.989   8.646   7.896 -0.2764  0.4573 -0.5430
 6080SOL    HW127208   3.007   8.624   7.805 -0.5272  2.0652 -1.0143
 6080SOL    HW227209   2.997   8.563   7.943  1.6737 -0.1008 -1.7279
 6081SOL     OW27210  12.579   7.087   5.415  0.6814 -0.0103  0.8504
 6081SOL    HW127211  12.596   7.176   5.384  2.4495 -0.7541 -0.5271
 6081SOL    HW227212  12.485   7.085   5.433  0.7009  2.2979  1.5520
 6082SOL     OW27213   2.997  11.239   4.811  0.1882 -0.2628 -0.7529
 6082SOL    HW127214   3.019  11.304   4.744  1.1803 -1.7822 -1.9842
 6082SOL    HW227215   2.926  11.188   4.772 -0.7104  0.1786  0.2789
 6083SOL     OW27216   6.513   6.576  10.918 -0.2051 -0.0460  0.0617
 6083SOL    HW127217   6.545   6.503  10.972 -0.4176  0.2377  0.5816
 6083SOL    HW227218   6.441   6.613  10.969  0.7188  1.3233  0.4151
 6084SOL     OW27219  11.996   0.501  10.347  1.0633 -0.4855 -0.2790
 6084SOL    HW127220  11.905   0.519  10.368  0.6149 -2.2642 -0.5851
 6084SOL    HW227221  12.004   0.525  10.255  1.3114  0.9856  0.0852
 6085SOL     OW27222   2.633   9.832   4.749 -0.2660  0.1014 -0.0334
 6085SOL    HW127223   2.723   9.803   4.763 -1.0199 -2.7169 -0.3721
 6085SOL    HW227224   2.613   9.804   4.660 -1.8668 -0.5193  0.4951
 6086SOL     OW27225   3.769   3.136   0.063 -0.1486  0.2824 -0.2109
 6086SOL    HW127226   3.806   3.049   0.072 -1.5040 -0.3772 -0.7591
 6086SOL    HW227227   3.736   3.158   0.151  0.7134  0.4953  0.0621
 6087SOL     OW27228   3.835   8.696  11.863  0.1260 -0.3811  0.2977
 6087SOL    HW127229   3.808   8.648  11.785 -0.0460 -0.1150  0.1907
 6087SOL    HW227230   3.758   8.748  11.886  0.7783  0.9816 -0.4711
 6088SOL     OW27231   0.170  11.833   9.503 -0.5629 -0.5235 -0.0470
 6088SOL    HW127232   0.125  11.895   9.560  0.3597  0.5978 -0.4997
 6088SOL    HW227233   0.248  11.807   9.553 -0.2784 -0.3234 -0.3874
 6089SOL     OW27234   0.996  11.833   0.827 -0.2783 -0.2538  0.6314
 6089SOL    HW127235   1.090  11.815   0.836 -0.1857  0.7207  1.8046
 6089SOL    HW227236   0.966  11.770   0.761  1.1875 -0.6000  0.2569
 6090SOL     OW27237   0.505   9.879   0.791  0.5931 -0.5606  0.2473
 6090SOL    HW127238   0.459   9.927   0.722 -0.7693 -3.1218 -0.7439
 6090SOL    HW227239   0.486   9.928   0.871  0.9430  1.6255 -0.9226
 6091SOL     OW27240   7.020   7.760   9.440  0.1476  0.0673  0.1522
 6091SOL    HW127241   6.972   7.760   9.522 -1.5469  1.1070 -0.7615
 6091SOL    HW227242   6.964   7.812   9.380  1.5613 -0.2081 -1.4833
 6092SOL     OW27243   8.661   5.018   6.454 -0.1758  0.5923  0.2388
 6092SOL    HW127244   8.741   5.010   6.506 -0.4329  0.6277  0.6397
 6092SOL    HW227245   8.676   4.962   6.378  0.2933  0.7196  0.2332
 6093SOL     OW27246   2.691   8.932   6.182 -0.3403 -0.0340 -0.2041
 6093SOL    HW127247   2.629   8.866   6.212  1.5222 -1.4903  0.6560
 6093SOL    HW227248   2.644   9.015   6.192 -1.9413 -1.0223  0.9515
 6094SOL     OW27249   3.535   3.063   8.788 -0.1679 -0.4837  0.0114
 6094SOL    HW127250   3.576   3.085   8.871  1.6609  1.5195 -1.3031
 6094SOL    HW227251   3.443   3.086   8.799  0.0244 -0.3307  1.4925
 6095SOL     OW27252   3.326  12.110   2.419  0.3069 -0.6073 -0.5301
 6095SOL    HW127253   3.308  12.147   2.333  0.8268 -0.7492 -0.7052
 6095SOL    HW227254   3.393  12.167   2.457 -0.8157  0.1894  0.3064
 6096SOL     OW27255  11.747   2.136   3.796 -0.0767  0.0449 -0.2094
 6096SOL    HW127256  11.726   2.097   3.712 -0.5948  0.0140 -0.0691
 6096SOL    HW227257  11.830   2.180   3.782  0.6640 -1.3226 -0.3140
 6097SOL     OW27258   7.431   1.869   0.433  0.2150  0.0095 -0.0910
 6097SOL    HW127259   7.428   1.882   0.338 -0.8262  0.5581  0.0035
 6097SOL    HW227260   7.370   1.934   0.468  2.6227  1.7710  1.1668
 6098SOL     OW27261   9.909  10.819   0.369  0.0337  0.4222  0.6483
 6098SOL    HW127262   9.909  10.782   0.281 -0.3556  2.9946 -0.5466
 6098SOL    HW227263   9.999  10.810   0.399  0.3705  0.2741 -0.3815
 6099SOL     OW27264  11.415   6.530   1.571  0.0736  0.1951  0.3754
 6099SOL    HW127265  11.470   6.478   1.630  0.1054 -0.8766 -0.5569
 6099SOL    HW227266  11.360   6.465   1.527  0.8771  0.8139 -1.6474
 6100SOL     OW27267   2.558   4.351   0.545 -0.9420 -0.0372 -0.0202
 6100SOL    HW127268   2.614   4.342   0.622  2.1845 -2.2579 -2.2886
 6100SOL    HW227269   2.476   4.309   0.570  0.0548 -0.9139  2.0186
 6101SOL     OW27270   9.470  12.151  12.345  0.0083  0.1564  0.0786
 6101SOL    HW127271   9.520  12.100  12.281 -0.4050 -1.3255  0.8755
 6101SOL    HW227272   9.487  12.107  12.429 -1.4178  0.5211  0.5851
 6102SOL     OW27273   5.688   7.713   5.230  0.3284  0.5348 -0.3009
 6102SOL    HW127274   5.602   7.714   5.187  0.2962  0.6623 -0.2344
 6102SOL    HW227275   5.745   7.670   5.166 -0.0048 -0.5317  0.0891
 6103SOL     OW27276   3.403   6.172   9.835  0.5624  0.1667 -0.2832
 6103SOL    HW127277   3.436   6.140   9.751  0.4184  2.2139 -1.1802
 6103SOL    HW227278   3.481   6.187   9.888  0.7731  0.5119 -0.6880
 6104SOL     OW27279   1.564   6.054   0.572 -0.0935 -0.0543 -0.5009
 6104SOL    HW127280   1.477   6.046   0.611  0.1791 -0.1357  0.1035
 6104SOL    HW227281   1.588   5.965   0.547  1.0138 -0.5402  1.9996
 6105SOL     OW27282   8.816  10.980   8.524  0.2604 -0.0019  0.8114
 6105SOL    HW127283   8.744  10.991   8.586  1.3085  0.3290  2.0267
 6105SOL    HW227284   8.799  11.046   8.457 -0.6974 -0.1004  0.9371
 6106SOL     OW27285   8.046   2.361   6.533 -0.9904  0.5815 -0.0639
 6106SOL    HW127286   7.964   2.399   6.500 -2.1578  0.6244  2.6806
 6106SOL    HW227287   8.018   2.283   6.581  0.4334  1.1972  1.8631
 6107SOL     OW27288   1.530   4.413   7.647  0.4068 -0.1833 -0.0002
 6107SOL    HW127289   1.531   4.428   7.552 -0.4664  1.2045  0.1825
 6107SOL    HW227290   1.456   4.354   7.661 -0.7332  1.1829 -0.0122
 6108SOL     OW27291   9.863   0.043   7.584 -0.4313  0.9661 -0.3238
 6108SOL    HW127292   9.846   0.065   7.492 -2.2497 -1.3305 -0.6374
 6108SOL    HW227293   9.924  -0.030   7.580 -0.1172  1.1932  0.3197
 6109SOL     OW27294   7.319   5.106   1.239 -0.4940 -0.0601 -0.0864
 6109SOL    HW127295   7.363   5.028   1.272 -1.3735 -0.1226  0.9741
 6109SOL    HW227296   7.353   5.116   1.150  1.5519 -0.1715  0.6255
 6110SOL     OW27297   9.783   5.832  11.370  0.3077  0.4486  0.0218
 6110SOL    HW127298   9.799   5.792  11.455  0.2475  0.5347  0.0738
 6110SOL    HW227299   9.740   5.915  11.390 -1.0106 -0.1673 -0.1423
 6111SOL     OW27300   7.911  11.426   1.389 -0.7014  0.1578  0.2641
 6111SOL    HW127301   7.901  11.340   1.431 -2.0512  1.1312  2.0359
 6111SOL    HW227302   7.858  11.419   1.309 -2.9356  0.0942  1.6552
 6112SOL     OW27303  10.374   3.455  12.314 -0.1646 -0.6069 -0.5883
 6112SOL    HW127304  10.430   3.387  12.275 -0.5137 -0.9699 -0.4650
 6112SOL    HW227305  10.303   3.406  12.355  1.2251 -0.4180  2.3283
 6113SOL     OW27306   5.089  11.078   5.106 -0.8158 -0.0274 -0.4316
 6113SOL    HW127307   5.072  11.094   5.199  1.1409  0.5659 -0.1244
 6113SOL    HW227308   5.034  11.142   5.061  0.5492  1.9126  0.4881
 6114SOL     OW27309   6.968  11.015   1.638 -0.2221 -0.0656 -0.2014
 6114SOL    HW127310   7.054  11.023   1.679 -0.8664 -0.5444  1.3069
 6114SOL    HW227311   6.920  11.092   1.668  0.0697  0.9458 -2.1450
 6115SOL     OW27312   2.366  10.380   9.534  0.1688 -0.3720  0.1609
 6115SOL    HW127313   2.305  10.348   9.600  0.0360 -1.2597 -0.3706
 6115SOL    HW227314   2.314  10.385   9.454  1.2168 -3.1376 -0.7983
 6116SOL     OW27315   6.567   5.048   4.381 -0.1371  0.0027 -0.5057
 6116SOL    HW127316   6.602   5.044   4.471 -1.1564 -1.1204 -0.1363
 6116SOL    HW227317   6.540   4.958   4.362  0.6700  0.0869 -2.2121
 6117SOL     OW27318   9.436   2.594   3.976 -0.0569  0.1657 -0.1783
 6117SOL    HW127319   9.445   2.689   3.975  0.1286  0.1550  0.2708
 6117SOL    HW227320   9.379   2.574   3.902 -0.1531  0.6324 -0.2298
 6118SOL     OW27321  10.664   6.885   6.846 -0.5466 -0.0753  0.3676
 6118SOL    HW127322  10.717   6.943   6.791  0.3053 -1.1055  0.0715
 6118SOL    HW227323  10.671   6.923   6.934 -0.3158  0.4825  0.1138
 6119SOL     OW27324   4.727   3.400   4.959  0.7988  0.1482  0.1355
 6119SOL    HW127325   4.660   3.333   4.952  0.2922  0.4006  1.9497
 6119SOL    HW227326   4.744   3.428   4.869 -3.1800  1.6884 -0.3348
 6120SOL     OW27327  10.694   3.172   6.610 -0.3038 -0.1230 -0.3591
 6120SOL    HW127328  10.784   3.207   6.606 -0.1483 -0.5410 -0.5983
 6120SOL    HW227329  10.664   3.195   6.698  1.2129 -2.7819  0.9701
 6121SOL     OW27330   3.463   2.161   9.468 -0.6976 -0.2988  0.6048
 6121SOL    HW127331   3.528   2.224   9.438 -1.3507 -0.3394 -1.0132
 6121SOL    HW227332   3.401   2.213   9.518 -0.2908  0.0329  0.7719
 6122SOL     OW27333   9.413   3.784  11.117 -0.1440 -0.1601  0.5074
 6122SOL    HW127334   9.414   3.693  11.088  0.3169  0.3967 -1.3698
 6122SOL    HW227335   9.505   3.806  11.129 -0.3016 -0.2509  2.1259
 6123SOL     OW27336   0.734  12.303  11.473 -0.0165 -0.3651 -0.4070
 6123SOL    HW127337   0.675  12.363  11.518 -0.9211 -1.5170  0.0056
 6123SOL    HW227338   0.779  12.256  11.543  0.2295 -0.5934 -0.7147
 6124SOL     OW27339  10.600   6.433   5.318  0.2378 -0.1416 -0.5341
 6124SOL    HW127340  10.543   6.361   5.290  0.9542 -1.0149  0.1926
 6124SOL    HW227341  10.555   6.472   5.392  0.6134 -0.8991  0.1062
 6125SOL     OW27342  11.075   1.205   7.151 -0.1732  0.2860 -0.5450
 6125SOL    HW127343  11.071   1.111   7.167 -1.1746  0.3046 -0.6028
 6125SOL    HW227344  11.109   1.243   7.232 -0.1075 -0.0922 -0.3947
 6126SOL     OW27345   0.278   5.525   4.916  0.5454  0.2963 -0.1872
 6126SOL    HW127346   0.189   5.541   4.884 -0.1058 -1.1706  0.7877
 6126SOL    HW227347   0.271   5.529   5.011  1.8729  1.7378 -0.1089
 6127SOL     OW27348   3.670   8.895   4.332 -0.0121 -0.5112 -0.0142
 6127SOL    HW127349   3.577   8.878   4.342  0.0759 -2.5895 -1.9838
 6127SOL    HW227350   3.711   8.842   4.401 -0.2360 -0.1603  0.3941
 6128SOL     OW27351   3.078   2.052   2.287  0.2332  0.4028  0.2589
 6128SOL    HW127352   3.096   2.076   2.196  1.2775 -0.5134  0.2003
 6128SOL    HW227353   2.990   2.085   2.304  0.0120  0.5567 -1.0942
 6129SOL     OW27354   9.475   0.043   5.074  0.1882 -0.4598 -0.2785
 6129SOL    HW127355   9.456   0.020   4.983 -1.6114  2.0458 -0.6289
 6129SOL    HW227356   9.408  -0.002   5.125  1.4407 -2.1979 -0.0641
 6130SOL     OW27357   4.561   2.582  11.973 -0.0269  0.2551 -0.4381
 6130SOL    HW127358   4.519   2.501  12.002 -1.3543  0.8707 -0.5460
 6130SOL    HW227359   4.625   2.603  12.041  0.0243 -0.6476 -0.2015
 6131SOL     OW27360   0.923   6.558   5.975  0.3364  0.0176 -0.7027
 6131SOL    HW127361   0.851   6.596   6.025 -0.1009 -0.2994 -1.0802
 6131SOL    HW227362   0.974   6.634   5.945  0.2968  0.2312 -0.2322
 6132SOL     OW27363   4.779   1.068   4.668 -0.2217  0.1234 -0.0113
 6132SOL    HW127364   4.731   1.151   4.658  2.4079  1.9259  1.1035
 6132SOL    HW227365   4.835   1.064   4.590 -0.1631 -0.4762  0.0624
 6133SOL     OW27366   7.044   7.760   0.400  0.2737 -0.7032  0.4470
 6133SOL    HW127367   7.121   7.718   0.439 -0.6634 -1.2639  1.7492
 6133SOL    HW227368   6.975   7.748   0.465 -0.9081 -0.1650 -0.6805
 6134SOL     OW27369   1.232   7.256   2.102 -0.2732 -0.2686 -0.4656
 6134SOL    HW127370   1.174   7.265   2.026 -1.1112  0.1251  0.2046
 6134SOL    HW227371   1.221   7.338   2.150 -0.1519 -0.7308  0.3620
 6135SOL     OW27372   8.610  10.438   0.337 -0.3723  0.1335 -0.2596
 6135SOL    HW127373   8.678  10.379   0.369  1.7560  1.7782 -1.4840
 6135SOL    HW227374   8.584  10.488   0.414  1.3574  0.8876 -0.1114
 6136SOL     OW27375   9.839   4.564   3.357 -0.0652  0.3768 -0.1260
 6136SOL    HW127376   9.913   4.525   3.402 -1.2415 -0.1104  1.4577
 6136SOL    HW227377   9.853   4.659   3.365  0.9494  0.2915 -0.8332
 6137SOL     OW27378   5.510  10.082   5.444 -0.1822 -0.3997  0.9794
 6137SOL    HW127379   5.550  10.000   5.414 -0.3474 -1.0221  2.3733
 6137SOL    HW227380   5.584  10.139   5.464 -0.0655  0.2503 -1.0805
 6138SOL     OW27381   9.492   0.941   1.431  0.6646 -0.4516  0.0662
 6138SOL    HW127382   9.508   0.986   1.514  2.3223 -0.3487 -0.2671
 6138SOL    HW227383   9.426   0.875   1.451  0.1307  0.3801  1.1713
 6139SOL     OW27384   7.939   1.327   1.654 -0.2494  0.1188  0.2812
 6139SOL    HW127385   7.897   1.242   1.666 -0.5182  0.0888 -0.7473
 6139SOL    HW227386   8.009   1.328   1.719 -1.4033 -0.1093  1.5591
 6140SOL     OW27387   8.347  12.193   7.374  0.3055  0.0232 -0.1690
 6140SOL    HW127388   8.333  12.203   7.468  0.4547 -1.3172  0.0169
 6140SOL    HW227389   8.424  12.245   7.355  1.8598 -1.7273  0.9627
 6141SOL     OW27390   6.697   7.409   1.804  0.3063  0.2777  0.0899
 6141SOL    HW127391   6.655   7.489   1.771 -0.3839 -0.0859  0.0658
 6141SOL    HW227392   6.640   7.338   1.774  1.4844 -0.3246 -0.8331
 6142SOL     OW27393   7.256   5.449   6.590 -0.3765  0.4527  0.4399
 6142SOL    HW127394   7.217   5.421   6.508 -0.4608  0.2336  0.5537
 6142SOL    HW227395   7.197   5.516   6.624  1.0780  2.6755 -1.0566
 6143SOL     OW27396   7.221  10.483   1.266 -0.3040 -0.0943 -0.0091
 6143SOL    HW127397   7.313  10.509   1.270 -0.9586  2.3032  2.6281
 6143SOL    HW227398   7.172  10.564   1.282 -2.7678 -1.7505  1.5518
 6144SOL     OW27399   6.103  12.547   0.803 -0.6598 -0.6028 -0.3276
 6144SOL    HW127400   6.096  12.631   0.848 -1.9384 -0.2084 -1.1803
 6144SOL    HW227401   6.070  12.483   0.866  1.6463 -0.7233  0.8593
 6145SOL     OW27402   8.018   5.076   3.990 -0.0066  0.3823  0.3301
 6145SOL    HW127403   8.065   5.014   4.046  0.3928 -0.0188 -0.4368
 6145SOL    HW227404   7.927   5.044   3.992  0.1983 -0.2410 -0.0729
 6146SOL     OW27405   8.928   1.737  12.479 -0.1242  0.1444  0.1206
 6146SOL    HW127406   8.919   1.660  12.535 -0.2197  0.1908  0.1695
 6146SOL    HW227407   8.972   1.705  12.400  0.1429  0.1086  0.2838
 6147SOL     OW27408   2.723  12.347  10.257 -0.1424  0.2106  0.2989
 6147SOL    HW127409   2.673  12.364  10.337  0.8218  1.0041  0.7566
 6147SOL    HW227410   2.717  12.428  10.206 -0.8382 -0.3275 -0.4882
 6148SOL     OW27411   1.062   5.456   7.432 -0.5196 -0.2401  0.0266
 6148SOL    HW127412   1.031   5.402   7.359 -1.8493 -0.4624  0.7235
 6148SOL    HW227413   1.119   5.398   7.482 -0.6183 -0.4790 -0.1351
 6149SOL     OW27414   8.673   3.462  11.371 -0.2677  0.2559 -0.0329
 6149SOL    HW127415   8.707   3.547  11.343  1.5112 -0.5139 -0.3837
 6149SOL    HW227416   8.743   3.400  11.348 -0.4814 -0.9874  2.3665
 6150SOL     OW27417  11.948   3.399   0.395 -0.2743 -0.2156 -0.0107
 6150SOL    HW127418  12.036   3.398   0.432 -0.2767  2.2111  0.1783
 6150SOL    HW227419  11.960   3.436   0.307 -0.7710 -2.4924 -1.1037
 6151SOL     OW27420   8.041   2.623   3.780  0.4473  0.2984  0.4620
 6151SOL    HW127421   7.973   2.663   3.834 -0.0741  1.0445 -0.7036
 6151SOL    HW227422   8.108   2.691   3.771  1.3167 -0.3913  1.5018
 6152SOL     OW27423   9.753   3.767   8.117 -0.3132 -0.0104 -0.2154
 6152SOL    HW127424   9.742   3.820   8.196  0.4083  0.9069 -0.7112
 6152SOL    HW227425   9.696   3.692   8.130  1.2019 -0.8677  2.0464
 6153SOL     OW27426   5.657   1.861   9.254  0.4105 -0.1500 -0.6897
 6153SOL    HW127427   5.734   1.840   9.202  0.2238 -0.7745 -0.7231
 6153SOL    HW227428   5.646   1.786   9.312 -1.2518 -0.9652 -1.9657
 6154SOL     OW27429  11.379   8.635   1.248 -0.8756  0.3193  0.1634
 6154SOL    HW127430  11.473   8.618   1.256 -1.2767 -2.4733  0.0687
 6154SOL    HW227431  11.373   8.708   1.187  1.2438  1.1724  0.8913
 6155SOL     OW27432   7.838   3.918   6.413  0.1736  0.2366 -0.2056
 6155SOL    HW127433   7.905   3.953   6.355 -0.9911  0.2463 -1.6045
 6155SOL    HW227434   7.825   3.828   6.384 -0.5702  0.3052 -0.1017
 6156SOL     OW27435   9.053   4.393   6.515  0.2558  0.6926 -0.9130
 6156SOL    HW127436   9.088   4.411   6.602 -0.6496  1.7099 -0.7333
 6156SOL    HW227437   9.080   4.469   6.462  0.2057  0.4175 -1.3411
 6157SOL     OW27438   6.354   9.738   4.453 -0.0870  0.3793  0.1151
 6157SOL    HW127439   6.280   9.722   4.512 -1.0658  0.9850 -0.9270
 6157SOL    HW227440   6.385   9.651   4.429 -1.3679  0.0879 -0.5508
 6158SOL     OW27441  10.569   1.790   1.033  0.8216  0.1669 -0.0568
 6158SOL    HW127442  10.503   1.786   1.102 -1.2685  2.0014 -1.8001
 6158SOL    HW227443  10.534   1.734   0.963  1.6756  0.3015 -0.6050
 6159SOL     OW27444   2.203   9.930   1.263  0.1821 -0.5982 -0.5385
 6159SOL    HW127445   2.284   9.879   1.265  1.0402  0.7285  0.9852
 6159SOL    HW227446   2.146   9.887   1.328 -0.3076 -1.4200 -1.4782
 6160SOL     OW27447   1.717   3.733   6.813  0.1406  0.1357  0.4178
 6160SOL    HW127448   1.681   3.798   6.753 -0.2621 -2.2130 -2.0922
 6160SOL    HW227449   1.642   3.679   6.837  0.7404 -0.4304  1.0563
 6161SOL     OW27450   9.793   1.126   3.444 -0.1028  0.0604 -0.4066
 6161SOL    HW127451   9.707   1.096   3.414 -0.8087  1.2364  0.3514
 6161SOL    HW227452   9.823   1.057   3.503 -0.9101  0.0104 -0.0414
 6162SOL     OW27453   4.650  12.171   5.609 -0.5853 -0.3920  0.2508
 6162SOL    HW127454   4.736  12.213   5.614 -0.2171 -1.2199  1.5504
 6162SOL    HW227455   4.623  12.181   5.518  1.5944 -1.4314 -0.5837
 6163SOL     OW27456  10.462   7.203   5.020  0.2563  0.0930 -0.3920
 6163SOL    HW127457  10.477   7.209   5.115 -1.7188 -1.5899  0.1184
 6163SOL    HW227458  10.439   7.111   5.006 -1.2735  0.6804 -2.1935
 6164SOL     OW27459  11.517   3.765   9.576 -0.7396  0.0123 -0.2378
 6164SOL    HW127460  11.566   3.801   9.650 -1.0648 -1.0256  0.5007
 6164SOL    HW227461  11.559   3.802   9.498  0.7201 -0.2426  0.4112
 6165SOL     OW27462   9.852  10.012  11.519 -0.4514 -0.1997 -0.4027
 6165SOL    HW127463   9.769  10.017  11.471  0.5632 -1.4384 -2.4416
 6165SOL    HW227464   9.899   9.940  11.478  0.2640 -1.8959  3.0253
 6166SOL     OW27465  11.132   1.813   1.159  0.2355  0.0538  0.0852
 6166SOL    HW127466  11.106   1.740   1.215  0.7108 -0.8423 -0.8277
 6166SOL    HW227467  11.215   1.785   1.121  0.3898  1.0493 -0.3280
 6167SOL     OW27468  10.590   8.911   4.014  0.5224 -0.0016 -0.1157
 6167SOL    HW127469  10.604   8.912   4.109  0.2046  1.4149 -0.0705
 6167SOL    HW227470  10.678   8.918   3.977  0.6161 -0.1288  0.0782
 6168SOL     OW27471   4.966  11.893   0.964  0.9448  0.5328 -0.3577
 6168SOL    HW127472   4.918  11.929   1.038  1.2144 -0.3622  0.2720
 6168SOL    HW227473   4.914  11.918   0.887 -0.7154 -0.6682  0.3182
 6169SOL     OW27474   8.412   4.730   3.062 -0.2254  0.0533  0.3102
 6169SOL    HW127475   8.469   4.665   3.101 -0.1386  0.6910  1.2732
 6169SOL    HW227476   8.429   4.810   3.111 -0.0486  0.9164 -1.0873
 6170SOL     OW27477   2.574   0.750   3.920  0.2287 -0.1582 -0.3977
 6170SOL    HW127478   2.514   0.823   3.903  0.0188 -0.5879 -1.6178
 6170SOL    HW227479   2.562   0.691   3.845 -0.3683 -1.9887  1.0706
 6171SOL     OW27480   3.361   6.069   8.628 -0.2203  0.4141 -0.0069
 6171SOL    HW127481   3.442   6.113   8.655 -1.5776  1.6680  2.2573
 6171SOL    HW227482   3.383   6.030   8.544  1.9630  2.9175 -0.7365
 6172SOL     OW27483   8.923   8.069   0.974  0.0966 -0.0321 -0.6771
 6172SOL    HW127484   9.018   8.065   0.963  0.1086  1.9069 -1.6572
 6172SOL    HW227485   8.896   7.977   0.983  2.2368 -0.5451  1.5115
 6173SOL     OW27486  11.433   2.495   6.756 -0.2389 -0.2372  0.1029
 6173SOL    HW127487  11.497   2.466   6.821 -0.0396  2.0584  1.0086
 6173SOL    HW227488  11.350   2.455   6.785  0.4257 -1.8500 -0.1187
 6174SOL     OW27489   4.762   6.673   3.788 -0.6056  0.1274  0.0790
 6174SOL    HW127490   4.793   6.587   3.759 -1.0952  0.3227 -1.0923
 6174SOL    HW227491   4.841   6.728   3.790 -0.6948  0.4265 -2.1521
 6175SOL     OW27492   5.059   4.413   1.588 -0.1664  0.7134 -0.5715
 6175SOL    HW127493   5.027   4.388   1.675  0.0573  1.2659 -0.3223
 6175SOL    HW227494   5.053   4.509   1.588  0.1357  0.7318 -1.0499
 6176SOL     OW27495   2.465  12.411   4.158  0.4071 -0.4496  0.5582
 6176SOL    HW127496   2.485  12.330   4.204  0.1495 -0.5792  0.4409
 6176SOL    HW227497   2.476  12.390   4.065 -0.6486 -0.6281  0.4658
 6177SOL     OW27498   8.494   1.990  10.083  0.1223 -0.3498  0.0290
 6177SOL    HW127499   8.449   1.951  10.158 -1.6365 -1.0045 -1.2772
 6177SOL    HW227500   8.460   1.941  10.007  1.3403  0.7088 -1.2499
 6178SOL     OW27501   0.279   4.417  11.904  0.2619 -0.1834 -0.0641
 6178SOL    HW127502   0.232   4.493  11.870  1.7283  0.7135 -0.1486
 6178SOL    HW227503   0.252   4.410  11.995 -0.2672  0.1163 -0.1958
 6179SOL     OW27504   0.171   0.080   8.962 -0.2766 -0.0830  0.1052
 6179SOL    HW127505   0.110   0.073   8.889 -0.4360 -0.8898  0.3097
 6179SOL    HW227506   0.240   0.017   8.942  0.2399  0.4616  0.1279
 6180SOL     OW27507   4.179   4.454   0.770  0.2623  0.1274  0.6215
 6180SOL    HW127508   4.164   4.387   0.837  0.6298 -0.9095 -0.3202
 6180SOL    HW227509   4.175   4.407   0.687  0.5266  1.2771 -0.0611
 6181SOL     OW27510   0.530   9.014   6.124 -0.6791 -0.4489 -0.0161
 6181SOL    HW127511   0.505   8.922   6.126 -0.4013 -0.5987 -1.8352
 6181SOL    HW227512   0.456   9.061   6.162 -2.0526 -1.2113 -1.6490
 6182SOL     OW27513  11.838   0.636   4.730 -0.0346 -0.6670 -0.0267
 6182SOL    HW127514  11.842   0.723   4.691 -2.8149 -0.9428 -1.1022
 6182SOL    HW227515  11.853   0.651   4.824 -0.4588  0.9447 -0.1920
 6183SOL     OW27516   4.650   4.552   0.717 -0.1155 -0.3706 -0.5606
 6183SOL    HW127517   4.678   4.474   0.765  0.4818 -0.3643 -0.8895
 6183SOL    HW227518   4.720   4.615   0.730 -0.8536  0.3283  0.1702
 6184SOL     OW27519   9.695   6.943   1.602 -0.5137 -0.2733  0.0964
 6184SOL    HW127520   9.681   6.858   1.561  0.9671 -1.0044  1.0220
 6184SOL    HW227521   9.643   6.940   1.683 -0.7502 -0.1386 -0.0472
 6185SOL     OW27522   9.180   3.951   0.787 -0.8235  0.2225 -0.5773
 6185SOL    HW127523   9.105   3.893   0.796  0.1185 -1.0632 -0.7715
 6185SOL    HW227524   9.204   3.947   0.695 -0.4489  0.5430 -0.5013
 6186SOL     OW27525   1.536  10.109   2.664 -0.0304  0.2400 -0.8853
 6186SOL    HW127526   1.489  10.123   2.582  3.2408 -1.0039 -3.1997
 6186SOL    HW227527   1.526  10.016   2.682 -0.7359  0.5106  0.1940
 6187SOL     OW27528   9.079   6.100   9.262 -0.2765  0.7897 -0.1789
 6187SOL    HW127529   9.045   6.129   9.178  0.8659  1.0342 -0.5738
 6187SOL    HW227530   9.012   6.040   9.295 -0.7495  0.6966 -1.2521
 6188SOL     OW27531   7.708   5.087   3.223 -0.0178 -0.5436 -0.6122
 6188SOL    HW127532   7.714   4.992   3.219 -1.7340 -0.9829  3.0713
 6188SOL    HW227533   7.640   5.110   3.159 -0.0201 -1.8584 -1.1060
 6189SOL     OW27534   4.685   2.297   2.934 -0.5717  0.3207 -0.5883
 6189SOL    HW127535   4.699   2.238   2.860 -2.9998 -0.7230 -0.3212
 6189SOL    HW227536   4.650   2.377   2.896  1.6057  1.2081 -0.8412
 6190SOL     OW27537   9.168   2.963  11.660  0.2703  0.3334 -0.3060
 6190SOL    HW127538   9.081   2.947  11.624  0.1360 -0.3920  0.3306
 6190SOL    HW227539   9.171   2.913  11.741  1.5801 -0.3476 -0.7403
 6191SOL     OW27540   0.869   6.952   2.448  0.7933 -0.1840 -0.0951
 6191SOL    HW127541   0.958   6.928   2.421  0.4431 -0.4529 -1.0462
 6191SOL    HW227542   0.861   7.045   2.425 -0.0927 -0.8047 -2.6980
 6192SOL     OW27543  12.424   1.499  10.361  0.2821 -0.3615  0.3183
 6192SOL    HW127544  12.466   1.414  10.372 -1.6467 -1.3917  0.1778
 6192SOL    HW227545  12.440   1.545  10.444  0.1042 -1.4399  0.9646
 6193SOL     OW27546   7.806  11.895   7.803 -0.2704  0.0040 -0.0818
 6193SOL    HW127547   7.743  11.963   7.782  0.2722  0.5917  0.1668
 6193SOL    HW227548   7.850  11.926   7.883  1.6964  0.5822 -1.3161
 6194SOL     OW27549   2.038   9.062   7.827 -0.3991  0.2911 -0.2973
 6194SOL    HW127550   2.010   8.994   7.765 -1.3304  0.2298  0.1574
 6194SOL    HW227551   2.129   9.081   7.804 -0.8394  0.5550 -1.9246
 6195SOL     OW27552  11.280   2.034   5.854 -0.0338 -0.2236 -0.4142
 6195SOL    HW127553  11.269   2.129   5.864  3.3571  0.3393 -0.9165
 6195SOL    HW227554  11.230   2.012   5.775  1.1812  1.6898 -1.8055
 6196SOL     OW27555   8.227   2.179   4.356 -0.3414  0.1029  0.4750
 6196SOL    HW127556   8.176   2.099   4.363 -2.0414  1.1416  0.5482
 6196SOL    HW227557   8.220   2.204   4.264 -1.8616  1.3972  0.8958
 6197SOL     OW27558   4.461   8.043   6.502  0.0676 -0.2416  0.2838
 6197SOL    HW127559   4.547   8.048   6.545  0.6916 -0.8398 -0.8358
 6197SOL    HW227560   4.458   8.121   6.446  0.6104 -1.0331 -0.9081
 6198SOL     OW27561   7.632  11.276   3.625 -0.1820  0.7259  0.2016
 6198SOL    HW127562   7.669  11.354   3.585  0.0487  0.8430  0.6298
 6198SOL    HW227563   7.690  11.257   3.699  0.1241 -0.2121 -0.2577
 6199SOL     OW27564   4.905   3.188   3.439 -0.4202 -0.3061  0.3784
 6199SOL    HW127565   4.849   3.130   3.388 -0.7150 -0.7557  1.1959
 6199SOL    HW227566   4.855   3.269   3.448  0.0281  0.1276 -0.8411
 6200SOL     OW27567   4.099  11.683   2.640 -0.0665 -0.2279 -0.3973
 6200SOL    HW127568   4.010  11.662   2.668 -0.5528 -0.4753 -2.0180
 6200SOL    HW227569   4.102  11.778   2.641  0.0037 -0.2242  0.6324
 6201SOL     OW27570   2.422   6.402  10.925  0.0362 -0.3008  0.1660
 6201SOL    HW127571   2.470   6.388  11.006  0.0167 -0.1265  0.2087
 6201SOL    HW227572   2.412   6.497  10.919  0.6768 -0.2606 -0.4111
 6202SOL     OW27573   6.876   2.134   4.292 -0.1307  0.0439  0.4488
 6202SOL    HW127574   6.963   2.143   4.332  0.0656 -0.1078  0.0604
 6202SOL    HW227575   6.844   2.049   4.322 -0.5120  0.4634  1.2844
 6203SOL     OW27576   4.386  11.515   4.188 -0.4317 -0.2297  0.6675
 6203SOL    HW127577   4.317  11.493   4.251  1.7292 -3.0162  2.2586
 6203SOL    HW227578   4.445  11.573   4.236 -0.0524 -0.3751  0.3842
 6204SOL     OW27579   5.420  11.054   5.914 -0.0790 -0.0130  0.5074
 6204SOL    HW127580   5.388  10.964   5.921 -1.7033  0.4427 -0.6175
 6204SOL    HW227581   5.377  11.090   5.837  1.7806  1.2581 -0.0125
 6205SOL     OW27582   3.306  10.075   3.325  0.3934 -0.4177 -0.1564
 6205SOL    HW127583   3.291  10.127   3.404  1.3915  1.0166 -0.8804
 6205SOL    HW227584   3.232  10.014   3.322 -0.1946  0.1910  1.3282
 6206SOL     OW27585   2.462   6.862   2.657  0.1517 -0.4616 -0.4916
 6206SOL    HW127586   2.398   6.792   2.661  0.1355 -0.5260 -1.5045
 6206SOL    HW227587   2.442   6.907   2.575  1.7532 -0.8274 -1.1058
 6207SOL     OW27588   1.763   4.445   2.146  0.3242 -0.0420  0.0040
 6207SOL    HW127589   1.745   4.407   2.061 -0.9742 -2.4563  1.2497
 6207SOL    HW227590   1.693   4.509   2.160  0.1940 -0.0788 -0.4919
 6208SOL     OW27591  11.545  11.471   4.817  0.7576 -0.0562 -0.3449
 6208SOL    HW127592  11.506  11.445   4.900  1.5025  1.7668  0.6453
 6208SOL    HW227593  11.600  11.396   4.792  2.0807  0.0801  1.8599
 6209SOL     OW27594   5.264   9.031   4.011  0.4211 -0.5971  0.1549
 6209SOL    HW127595   5.294   8.967   3.947  0.0041  0.1659 -0.8376
 6209SOL    HW227596   5.203   8.983   4.067  2.6559 -1.9336  1.6309
 6210SOL     OW27597  10.654   7.013   7.655  0.3069 -0.3165 -0.3278
 6210SOL    HW127598  10.716   6.943   7.636  1.1907  0.7587 -1.6424
 6210SOL    HW227599  10.690   7.058   7.731 -0.4992 -1.5121  0.8033
 6211SOL     OW27600   3.207   8.240  11.711 -0.4073  0.2487  0.2005
 6211SOL    HW127601   3.282   8.263  11.766  0.0371 -0.2933 -0.1749
 6211SOL    HW227602   3.193   8.317  11.655  1.1568 -0.4137 -1.1519
 6212SOL     OW27603   8.226   6.499  10.793 -0.1139 -0.4809  0.2119
 6212SOL    HW127604   8.252   6.459  10.877 -2.0393 -1.7642  0.2710
 6212SOL    HW227605   8.272   6.583  10.792  0.2811 -0.5877  2.3794
 6213SOL     OW27606   0.172  11.754   8.320  0.5433  0.3679 -0.4093
 6213SOL    HW127607   0.133  11.825   8.269 -0.1903 -0.1551 -0.5947
 6213SOL    HW227608   0.101  11.726   8.379  1.5634  1.4309  1.4475
 6214SOL     OW27609   9.036   7.290   7.922  0.1401 -0.6324  0.6972
 6214SOL    HW127610   8.954   7.244   7.937  0.5401 -1.6754 -0.2063
 6214SOL    HW227611   9.074   7.301   8.009  1.3740 -4.5422  0.8252
 6215SOL     OW27612  11.953   0.635   6.477 -0.6300  0.7221 -0.3527
 6215SOL    HW127613  11.916   0.675   6.556  1.0234  2.3441 -0.3248
 6215SOL    HW227614  12.030   0.588   6.508 -0.4462  0.6521 -0.9019
 6216SOL     OW27615   4.147   1.645   1.604 -0.7788 -0.6575  0.2532
 6216SOL    HW127616   4.205   1.570   1.590 -0.0271  0.0917 -0.7776
 6216SOL    HW227617   4.060   1.606   1.613 -0.2697 -1.7218  0.7141
 6217SOL     OW27618   9.358   5.891   3.573 -0.2950  0.2707  0.1846
 6217SOL    HW127619   9.350   5.966   3.632  1.8381  0.7145  0.0241
 6217SOL    HW227620   9.440   5.849   3.599 -0.1221 -0.4593 -1.4173
 6218SOL     OW27621  10.042   5.611  10.055 -0.7575  0.0860  0.1166
 6218SOL    HW127622  10.020   5.704  10.057 -0.8212  0.0701  0.1739
 6218SOL    HW227623  10.093   5.600   9.975 -0.7960  0.1600  0.0815
 6219SOL     OW27624   2.763   8.499  10.503  0.2859 -0.1372 -0.5999
 6219SOL    HW127625   2.691   8.562  10.504  0.3372 -0.0809 -0.3807
 6219SOL    HW227626   2.796   8.499  10.593  0.5270 -0.2005 -0.6870
 6220SOL     OW27627   7.319   2.762   5.367  0.1268  0.2203 -0.2742
 6220SOL    HW127628   7.315   2.857   5.367 -2.1716  0.2035  1.4204
 6220SOL    HW227629   7.246   2.734   5.422  0.2218 -2.5597 -1.3479
 6221SOL     OW27630   3.893   5.332   3.721 -0.3165 -0.3442  0.1574
 6221SOL    HW127631   3.960   5.291   3.775 -0.0229  0.8109  0.6970
 6221SOL    HW227632   3.910   5.426   3.727 -2.1041  0.0127  0.4920
 6222SOL     OW27633  12.033   5.448   0.402  1.0259 -0.1029 -0.4751
 6222SOL    HW127634  12.068   5.359   0.398 -0.2303 -0.6387 -0.2701
 6222SOL    HW227635  12.107   5.504   0.379  1.7959 -1.2076 -0.8090
 6223SOL     OW27636   2.366   1.483   6.359  0.0080  0.1345 -0.4910
 6223SOL    HW127637   2.400   1.480   6.269  1.7345  1.2080  0.0654
 6223SOL    HW227638   2.289   1.539   6.353  1.0386  1.5752 -1.0890
 6224SOL     OW27639   1.859   7.288   5.762  0.0879  0.3937 -0.2429
 6224SOL    HW127640   1.838   7.201   5.795 -2.2708  0.2373 -1.8876
 6224SOL    HW227641   1.844   7.346   5.837 -0.7610 -0.3637  0.1918
 6225SOL     OW27642   0.010   7.280   9.017  0.5438 -0.6331  0.4442
 6225SOL    HW127643   0.030   7.210   9.080 -0.6718 -0.2903  1.2365
 6225SOL    HW227644  -0.009   7.234   8.935 -0.7494 -1.2814  1.0862
 6226SOL     OW27645   3.981   2.732   0.278 -0.4756  0.3573  0.1760
 6226SOL    HW127646   3.975   2.721   0.373 -0.3033  0.1339  0.1627
 6226SOL    HW227647   4.066   2.773   0.264  0.2148 -1.0681  0.0104
 6227SOL     OW27648   5.512   4.392   2.760 -0.2592  0.2211 -0.1139
 6227SOL    HW127649   5.564   4.368   2.837 -1.8732 -0.3559  0.8656
 6227SOL    HW227650   5.510   4.487   2.761 -1.2126  0.2193  1.2821
 6228SOL     OW27651   7.896   8.540   9.641 -0.5321  0.4980 -0.0247
 6228SOL    HW127652   7.976   8.584   9.673 -0.2736  1.6470 -2.0785
 6228SOL    HW227653   7.825   8.599   9.666 -0.3879  1.1161 -1.0487
 6229SOL     OW27654   0.086   8.616   6.013  0.5627  0.1865 -0.0397
 6229SOL    HW127655   0.120   8.600   5.925  0.3745  0.1088 -0.0985
 6229SOL    HW227656   0.140   8.559   6.069  1.1071  0.7074 -0.0221
 6230SOL     OW27657   5.266  11.958   3.812  0.3572  0.2578 -0.2865
 6230SOL    HW127658   5.187  11.992   3.854  0.6139  0.3146  0.1584
 6230SOL    HW227659   5.258  11.983   3.720 -1.1504 -1.5038 -0.7128
 6231SOL     OW27660   3.766  10.589  10.623  0.1578 -0.2700 -0.1405
 6231SOL    HW127661   3.853  10.627  10.613 -0.7315  1.6182 -1.2555
 6231SOL    HW227662   3.707  10.664  10.627 -1.4125 -1.4951  0.9226
 6232SOL     OW27663   7.433   5.191   7.602 -0.2208 -0.1959 -0.1502
 6232SOL    HW127664   7.490   5.177   7.677  0.0023  0.7704 -0.1291
 6232SOL    HW227665   7.473   5.140   7.531 -0.2764 -0.8779  0.2983
 6233SOL     OW27666   6.112   2.795   4.731 -0.6631  0.4574 -0.2357
 6233SOL    HW127667   6.150   2.719   4.776 -0.6109  2.1336  2.7619
 6233SOL    HW227668   6.019   2.791   4.752 -0.8194  0.7743 -0.8396
 6234SOL     OW27669   9.278   9.322   0.477 -0.4244 -0.7951  0.2295
 6234SOL    HW127670   9.299   9.399   0.530  1.2046 -0.8676 -0.2376
 6234SOL    HW227671   9.248   9.257   0.540  0.9508 -0.7031  1.0145
 6235SOL     OW27672  10.725  10.756   6.133 -0.2144 -0.4901 -0.1721
 6235SOL    HW127673  10.675  10.743   6.052 -0.1121 -3.0147  0.0769
 6235SOL    HW227674  10.660  10.751   6.203 -0.4403  2.5888 -0.0307
 6236SOL     OW27675   2.214   4.648  11.123 -0.1616 -0.5966  0.2968
 6236SOL    HW127676   2.299   4.669  11.083  0.6793 -0.6106  1.9844
 6236SOL    HW227677   2.151   4.659  11.052  1.1149  0.4846 -0.7311
 6237SOL     OW27678  11.552   8.638   6.822  0.4843  0.2971 -0.3260
 6237SOL    HW127679  11.458   8.652   6.806  0.4554  1.4667  0.6749
 6237SOL    HW227680  11.568   8.682   6.906  2.2661  1.5713 -1.2803
 6238SOL     OW27681   0.427   8.905   4.491  0.6383  0.3220  0.3036
 6238SOL    HW127682   0.426   8.942   4.403 -0.9326  0.8655  0.5125
 6238SOL    HW227683   0.365   8.959   4.541  0.1803 -1.0310  1.2773
 6239SOL     OW27684  11.986   8.913   0.606 -0.1546  0.3510  0.1137
 6239SOL    HW127685  12.010   8.896   0.515 -1.8321  1.3160 -0.5511
 6239SOL    HW227686  12.006   8.831   0.652  2.2403  0.3669 -0.7620
 6240SOL     OW27687   7.188   2.231   4.766 -0.4659  0.2869 -0.1084
 6240SOL    HW127688   7.182   2.152   4.820  1.0756 -0.7943 -1.4260
 6240SOL    HW227689   7.222   2.298   4.826  0.4950 -0.6779  0.4636
 6241SOL     OW27690   2.218  12.433   9.818 -0.1310  0.0593 -0.4789
 6241SOL    HW127691   2.262  12.484   9.887  1.1600 -1.3863 -0.1712
 6241SOL    HW227692   2.183  12.356   9.863 -0.9595  0.0352 -1.1374
 6242SOL     OW27693   0.046  10.656   2.364  0.2738 -0.0861 -0.4619
 6242SOL    HW127694   0.116  10.637   2.302  0.5514  1.1873 -0.5666
 6242SOL    HW227695  -0.020  10.701   2.313 -0.6921 -1.3469 -0.3798
 6243SOL     OW27696  12.178  10.636   4.140 -0.6322 -0.0132  0.6624
 6243SOL    HW127697  12.246  10.647   4.206 -0.9094 -1.8510  1.3069
 6243SOL    HW227698  12.220  10.587   4.069 -0.5138  1.3879 -0.2895
 6244SOL     OW27699   7.561   8.942  10.914  0.6463  0.4571 -0.4305
 6244SOL    HW127700   7.492   9.007  10.926  2.0809  2.4061 -1.9906
 6244SOL    HW227701   7.526   8.884  10.846  0.3163  1.1270 -0.8555
 6245SOL     OW27702  10.318  11.103   0.926  0.3248 -0.2809 -0.9044
 6245SOL    HW127703  10.307  11.145   0.840  1.6101 -0.6229 -1.2572
 6245SOL    HW227704  10.398  11.142   0.961 -0.1779 -0.1672  0.1410
 6246SOL     OW27705  10.039   3.193   6.180  0.0871  0.2513 -0.2843
 6246SOL    HW127706   9.989   3.159   6.255  0.6828 -0.7101 -0.3124
 6246SOL    HW227707  10.062   3.283   6.206 -0.4923  0.2420  0.2977
 6247SOL     OW27708   6.245   1.038   8.447  0.1520  0.0245 -0.1142
 6247SOL    HW127709   6.169   1.071   8.400  0.2407  1.5303  0.7334
 6247SOL    HW227710   6.320   1.079   8.404  0.3958 -0.4120 -0.1109
 6248SOL     OW27711   5.550   0.772   5.036  0.3003 -0.0238 -0.8494
 6248SOL    HW127712   5.494   0.796   5.109 -0.1110 -1.4150 -0.6768
 6248SOL    HW227713   5.548   0.676   5.034  0.6506 -0.0328 -2.4105
 6249SOL     OW27714   2.685   2.515  11.299 -0.1539  0.0300 -0.0719
 6249SOL    HW127715   2.771   2.474  11.306  0.8394  1.9379 -0.3658
 6249SOL    HW227716   2.623   2.444  11.315  1.4604 -1.4300 -0.0099
 6250SOL     OW27717   1.228   9.678  12.513 -0.6051 -0.4783 -0.0010
 6250SOL    HW127718   1.297   9.619  12.482 -1.0410 -1.2263  0.4052
 6250SOL    HW227719   1.198   9.638  12.595 -1.2165  0.0727  0.0533
 6251SOL     OW27720   3.652   5.711   9.099 -0.2061  0.3900  0.3349
 6251SOL    HW127721   3.623   5.670   9.018  0.5228  0.9780 -0.2454
 6251SOL    HW227722   3.662   5.804   9.076  0.5306  0.4671  0.9458
 6252SOL     OW27723  12.522   9.184  11.175 -0.6625  0.1531  0.5924
 6252SOL    HW127724  12.586   9.233  11.227 -0.8192  1.9697 -0.8230
 6252SOL    HW227725  12.574   9.114  11.134  0.4449  1.4985 -0.4019
 6253SOL     OW27726   0.632   4.827  12.314 -0.0575 -0.1496 -0.6251
 6253SOL    HW127727   0.647   4.741  12.354  0.4533 -0.3415 -1.2061
 6253SOL    HW227728   0.540   4.846  12.330  0.2388 -0.0068  1.0432
 6254SOL     OW27729   4.984   0.620   3.915  0.5393 -0.3252 -0.2737
 6254SOL    HW127730   4.949   0.542   3.957  1.2515 -0.8967 -0.7372
 6254SOL    HW227731   4.916   0.647   3.853  0.1283 -0.3450  0.1649
 6255SOL     OW27732   7.611  10.996   8.406  0.0768  0.2945  0.0328
 6255SOL    HW127733   7.622  10.944   8.326 -1.2929  1.1276 -0.7439
 6255SOL    HW227734   7.541  10.952   8.454 -0.4838  0.9030 -0.2098
 6256SOL     OW27735   3.616   7.013   6.568  0.2892  0.2038  0.0082
 6256SOL    HW127736   3.678   6.981   6.503  1.2083 -0.1212  1.0220
 6256SOL    HW227737   3.612   7.107   6.554  0.2565  0.1013 -0.7022
 6257SOL     OW27738   9.713  11.476   7.457 -0.7343  0.1538  0.6515
 6257SOL    HW127739   9.745  11.389   7.482 -1.6443 -0.1524  0.7959
 6257SOL    HW227740   9.770  11.503   7.385 -0.2492 -0.4300  0.8096
 6258SOL     OW27741   9.953  11.072   9.818  0.4197 -0.1738 -0.7094
 6258SOL    HW127742   9.903  11.080   9.736  0.5105  3.5883 -0.5829
 6258SOL    HW227743  10.044  11.088   9.793  0.2348  2.9346  0.2166
 6259SOL     OW27744  11.842   4.201   4.892  0.6659 -0.3741 -0.0435
 6259SOL    HW127745  11.779   4.249   4.946  0.9899 -1.5079  1.4150
 6259SOL    HW227746  11.913   4.262   4.878 -0.0291  0.3865 -0.3532
 6260SOL     OW27747   4.290   0.402   2.878  0.1440  0.5413 -0.1046
 6260SOL    HW127748   4.305   0.363   2.792 -1.4066  1.1535 -0.6944
 6260SOL    HW227749   4.231   0.342   2.922  0.9862  0.1965  0.5831
 6261SOL     OW27750   0.857   0.901  12.181  0.6367 -0.5791 -0.0179
 6261SOL    HW127751   0.763   0.909  12.164  0.2978 -2.4691  0.6488
 6261SOL    HW227752   0.888   0.843  12.111  1.0539 -0.9280  0.4539
 6262SOL     OW27753   4.410   4.846   6.373  0.0171 -0.7759 -0.1134
 6262SOL    HW127754   4.412   4.842   6.469  0.3676 -1.3865 -0.1393
 6262SOL    HW227755   4.346   4.780   6.348  0.9209 -1.6005 -0.3388
 6263SOL     OW27756   0.697   4.547   1.413 -0.2817 -0.2658 -0.0556
 6263SOL    HW127757   0.698   4.631   1.460 -1.1058 -0.5542  0.5118
 6263SOL    HW227758   0.790   4.526   1.401  0.0461 -0.8694  2.7696
 6264SOL     OW27759   9.068   2.125  11.902  0.4135  0.5587 -0.4899
 6264SOL    HW127760   9.113   2.191  11.848 -0.0111 -0.9954 -2.8994
 6264SOL    HW227761   9.130   2.053  11.908 -0.4841 -0.2759 -1.0224
 6265SOL     OW27762   9.652   2.224   6.906 -0.1629 -0.0520 -0.1266
 6265SOL    HW127763   9.645   2.317   6.928  1.6869  0.5740 -1.8605
 6265SOL    HW227764   9.677   2.223   6.813  3.3098 -2.1230  0.6485
 6266SOL     OW27765  11.502   9.295   3.347 -0.1590 -0.4130  0.0761
 6266SOL    HW127766  11.571   9.234   3.372  0.3157  1.0107  2.5190
 6266SOL    HW227767  11.427   9.270   3.402 -0.3812  0.3764  0.1382
 6267SOL     OW27768   5.422   6.725  10.338 -0.0739  0.1986 -0.5331
 6267SOL    HW127769   5.352   6.702  10.399 -0.3783  0.7561 -0.6611
 6267SOL    HW227770   5.379   6.728  10.253  0.3840 -0.7319 -0.8048
 6268SOL     OW27771   2.939   2.541   6.401  0.3691 -0.1336 -0.5233
 6268SOL    HW127772   2.955   2.457   6.443 -0.9183  1.1891  2.9260
 6268SOL    HW227773   3.001   2.601   6.442 -1.3600  1.3614 -0.0025
 6269SOL     OW27774   9.999   2.957   8.400  0.8123  0.0995  0.0793
 6269SOL    HW127775  10.034   2.887   8.455 -1.2249 -1.6853 -0.7465
 6269SOL    HW227776   9.906   2.961   8.423  0.4961  1.2115 -1.2728
 6270SOL     OW27777  10.889  10.093   3.825 -0.5417  0.3769 -0.1358
 6270SOL    HW127778  10.983  10.093   3.842 -0.3982  1.8261 -0.7985
 6270SOL    HW227779  10.849  10.067   3.908  0.4863 -2.6061 -0.4728
 6271SOL     OW27780   8.775  12.409   3.709  0.4698 -0.5405 -0.1525
 6271SOL    HW127781   8.848  12.365   3.666 -1.1962 -2.8823 -0.7590
 6271SOL    HW227782   8.719  12.439   3.638  0.8151  1.2923  0.3028
 6272SOL     OW27783  11.705   2.904   1.150 -0.3996  0.4225  0.5144
 6272SOL    HW127784  11.694   2.881   1.058  0.2026 -0.1903  0.5883
 6272SOL    HW227785  11.798   2.927   1.158 -0.8401  2.3742  0.5638
 6273SOL     OW27786   2.465  10.532   8.788  0.6779 -0.6271 -0.2107
 6273SOL    HW127787   2.537  10.475   8.764  2.0292  0.5694  0.8409
 6273SOL    HW227788   2.478  10.611   8.736 -0.2919 -0.6698 -0.5338
 6274SOL     OW27789   4.567   5.315   5.077  0.9909 -0.0050  0.2261
 6274SOL    HW127790   4.636   5.361   5.125  1.0342 -0.5057  0.6630
 6274SOL    HW227791   4.609   5.286   4.996  1.6854 -1.4259  1.0561
 6275SOL     OW27792   4.167   1.130   9.519  0.0717 -0.3734  0.2108
 6275SOL    HW127793   4.214   1.212   9.505 -1.5721  1.0259  2.1764
 6275SOL    HW227794   4.167   1.118   9.614 -2.2351 -1.0159  0.2069
 6276SOL     OW27795   6.938   9.998   1.771  0.6198  0.2847  0.2661
 6276SOL    HW127796   6.886   9.971   1.847 -0.3037  0.8538 -0.1481
 6276SOL    HW227797   6.960   9.917   1.727  2.7399 -0.2505  2.0921
 6277SOL     OW27798   8.029   7.079   8.012  0.1022  0.0078  0.1672
 6277SOL    HW127799   7.953   7.111   8.060  1.9544  0.8048  2.8268
 6277SOL    HW227800   8.036   7.137   7.936 -0.7747  1.2370  0.9877
 6278SOL     OW27801   4.983  10.177   5.716  0.5259  0.1879 -0.2958
 6278SOL    HW127802   4.956  10.119   5.788 -0.5591 -0.6240 -1.3169
 6278SOL    HW227803   4.990  10.263   5.756  1.3859 -0.5024  1.0945
 6279SOL     OW27804   0.094  11.511   2.368  0.3621 -0.5272  0.7737
 6279SOL    HW127805   0.040  11.433   2.380 -1.6661  0.7002  0.2794
 6279SOL    HW227806   0.128  11.503   2.279 -1.1390 -0.1674  0.1262
 6280SOL     OW27807   8.250   7.075   0.325  0.5072  0.1626 -0.2727
 6280SOL    HW127808   8.204   7.041   0.402 -0.7625  1.0826 -0.5990
 6280SOL    HW227809   8.326   7.121   0.361 -0.4701  1.2122  0.5121
 6281SOL     OW27810   8.889   9.053  10.845 -0.6925 -0.1956 -0.6427
 6281SOL    HW127811   8.881   9.141  10.881 -0.1986 -0.1634 -0.5944
 6281SOL    HW227812   8.833   9.052  10.768 -0.6856  0.1674 -0.6512
 6282SOL     OW27813   3.976   8.961  10.537  0.1835  0.3406  0.6840
 6282SOL    HW127814   3.985   8.875  10.577  0.2179  0.4111  0.8259
 6282SOL    HW227815   3.981   9.023  10.610  1.2092  0.5172  0.4695
 6283SOL     OW27816   2.317  11.268   1.321  0.1663  0.5109  0.3654
 6283SOL    HW127817   2.384  11.296   1.259 -0.1737  2.3377  0.7820
 6283SOL    HW227818   2.330  11.173   1.328 -0.4310  0.0076 -3.2539
 6284SOL     OW27819  12.143  11.440   5.815  0.1497  0.5429  0.2741
 6284SOL    HW127820  12.230  11.478   5.807  1.4622 -2.1303  0.7605
 6284SOL    HW227821  12.103  11.485   5.889  1.5711  1.0196  0.7648
 6285SOL     OW27822   7.060   5.044   1.117  0.4352 -0.5314 -0.6247
 6285SOL    HW127823   7.007   5.092   1.053 -0.5606 -0.9967 -0.1752
 6285SOL    HW227824   7.147   5.084   1.110 -0.3090  1.2513 -0.3720
 6286SOL     OW27825   3.865   5.670  10.417 -0.2170  0.8531 -0.1861
 6286SOL    HW127826   3.956   5.639  10.417 -1.1941 -2.4542 -0.9091
 6286SOL    HW227827   3.827   5.633  10.337 -2.4848  1.2541  0.6220
 6287SOL     OW27828  11.146   7.357  12.422 -0.0521 -0.0862  0.7898
 6287SOL    HW127829  11.166   7.334  12.513 -0.3938  1.0926  1.1861
 6287SOL    HW227830  11.212   7.422  12.399 -0.9341  0.8156  0.7510
 6288SOL     OW27831   5.807   4.652   8.579  0.3960 -0.3424 -0.2838
 6288SOL    HW127832   5.741   4.714   8.612  1.6681  0.4053  0.9387
 6288SOL    HW227833   5.832   4.687   8.494  0.0916  0.0456 -0.2184
 6289SOL     OW27834  12.409   8.336   6.887 -0.1675 -0.0130 -0.6229
 6289SOL    HW127835  12.406   8.297   6.799 -1.4728  0.6589 -0.8989
 6289SOL    HW227836  12.350   8.282   6.939  3.0355 -2.4979  0.8160
 6290SOL     OW27837  10.316   1.620   0.078 -0.1154 -0.6562 -0.1805
 6290SOL    HW127838  10.263   1.555   0.031  0.7124 -0.7087 -1.0676
 6290SOL    HW227839  10.370   1.568   0.139 -0.7033 -0.6419  0.3665
 6291SOL     OW27840   4.793   3.120   3.677  0.1037 -0.0543 -0.2033
 6291SOL    HW127841   4.829   3.134   3.590 -0.1941  0.1120 -0.3046
 6291SOL    HW227842   4.716   3.064   3.663  0.0119  0.0326 -0.0605
 6292SOL     OW27843  10.118   2.887   9.543 -0.3212  0.2066 -0.2882
 6292SOL    HW127844  10.040   2.908   9.595  0.1131  0.7305  0.1659
 6292SOL    HW227845  10.135   2.966   9.493  0.1185  0.2177 -0.1229
 6293SOL     OW27846   9.897   8.148   1.656  0.0542 -0.0521  0.1419
 6293SOL    HW127847   9.892   8.236   1.619  0.7552 -0.2493 -0.4453
 6293SOL    HW227848   9.844   8.095   1.597 -1.2604  0.1501  1.0976
 6294SOL     OW27849  12.487   6.531   8.428 -0.5062 -0.3332  0.1039
 6294SOL    HW127850  12.438   6.508   8.349  0.3617 -2.1904  0.0310
 6294SOL    HW227851  12.446   6.480   8.497 -1.6673  1.7649  1.0603
 6295SOL     OW27852   2.472   9.742  10.707 -0.1140 -0.4526  0.1317
 6295SOL    HW127853   2.409   9.687  10.661 -1.5447  2.0977 -1.2032
 6295SOL    HW227854   2.528   9.778  10.637  1.4610 -1.0034  1.0711
 6296SOL     OW27855   5.949   3.283  11.528  0.0861 -0.1997 -0.2165
 6296SOL    HW127856   5.924   3.222  11.458 -0.4482  0.4892 -0.6484
 6296SOL    HW227857   5.920   3.241  11.609 -1.4611  0.0662 -0.6170
 6297SOL     OW27858   6.600   5.461   5.134  0.4443 -0.1549 -0.3044
 6297SOL    HW127859   6.525   5.517   5.115 -0.2859 -1.4586 -1.4427
 6297SOL    HW227860   6.561   5.380   5.167  1.5212  0.4993  2.9670
 6298SOL     OW27861   5.265  11.758   9.573 -0.4922 -0.7250  0.2959
 6298SOL    HW127862   5.270  11.840   9.623  2.3114 -0.3159 -0.4565
 6298SOL    HW227863   5.291  11.690   9.636  2.3518 -0.2942 -0.2578
 6299SOL     OW27864   5.221   4.522   3.435 -0.1770 -0.3532 -0.2416
 6299SOL    HW127865   5.160   4.593   3.413 -0.3273 -0.5928 -0.6025
 6299SOL    HW227866   5.236   4.532   3.529 -1.8641 -1.1292  0.1559
 6300SOL     OW27867   9.930  12.547   6.626  0.0453  0.2318 -0.4229
 6300SOL    HW127868   9.993  12.491   6.671  0.3156 -0.9881 -2.2050
 6300SOL    HW227869   9.968  12.635   6.633  1.4694 -0.3319 -0.6074
 6301SOL     OW27870  10.550   4.784   9.029 -0.6687  0.5710 -0.0066
 6301SOL    HW127871  10.635   4.823   9.048 -0.5903  0.2755  0.2549
 6301SOL    HW227872  10.571   4.698   8.993 -0.8719  0.2397  0.6668
 6302SOL     OW27873   7.156  10.302  11.951 -0.3013  0.4788  0.1904
 6302SOL    HW127874   7.143  10.312  12.045 -0.6185  0.2372  0.1721
 6302SOL    HW227875   7.241  10.259  11.943  0.4951  1.9516  0.3085
 6303SOL     OW27876   7.293  10.161  12.564  0.1021 -0.0860  0.5294
 6303SOL    HW127877   7.270  10.182  12.654 -1.4739 -1.0263  0.3749
 6303SOL    HW227878   7.389  10.158  12.564  0.1279  0.0167  2.1325
 6304SOL     OW27879  12.564   8.539   8.715  0.2693 -0.3008 -0.4621
 6304SOL    HW127880  12.604   8.573   8.635 -0.9951  1.1240 -0.5325
 6304SOL    HW227881  12.569   8.612   8.777  2.9584 -1.9375  1.4844
 6305SOL     OW27882   1.899   7.623  11.189 -0.0173 -0.2391 -0.3471
 6305SOL    HW127883   1.844   7.545  11.197 -0.0319 -0.3254 -1.2092
 6305SOL    HW227884   1.890   7.667  11.273 -0.7090 -0.7134 -0.1646
 6306SOL     OW27885   5.321  12.128   6.775  0.5371 -0.8055  0.2257
 6306SOL    HW127886   5.400  12.168   6.740  0.0244  0.0551  0.0311
 6306SOL    HW227887   5.293  12.187   6.845 -2.0009  1.0261 -2.1027
 6307SOL     OW27888   8.383   0.644   1.730 -0.0770  0.0916 -0.1980
 6307SOL    HW127889   8.318   0.708   1.700  0.2040  0.0173 -0.9961
 6307SOL    HW227890   8.443   0.635   1.656  0.9834  0.3442  0.6080
 6308SOL     OW27891   8.970   6.535   2.223 -0.3476 -0.0227  0.0943
 6308SOL    HW127892   9.038   6.595   2.194  0.5156  0.5293  2.8992
 6308SOL    HW227893   8.888   6.572   2.189  0.3831  1.4667 -0.1220
 6309SOL     OW27894   3.439   1.032  12.069  0.6243 -0.5218  0.2541
 6309SOL    HW127895   3.512   1.000  12.015  0.5179  0.4640 -0.5025
 6309SOL    HW227896   3.451   0.989  12.153  0.0532 -3.1731 -0.9099
 6310SOL     OW27897   0.120  12.092   6.332  0.3227  0.0956  0.1479
 6310SOL    HW127898   0.040  12.040   6.320  1.0589 -1.4333  1.4042
 6310SOL    HW227899   0.090  12.183   6.327 -1.3379 -0.4245 -0.3237
 6311SOL     OW27900   0.501   6.939   1.286 -0.4307  0.6717 -0.2863
 6311SOL    HW127901   0.411   6.907   1.291  0.3433 -1.5004  2.1725
 6311SOL    HW227902   0.554   6.859   1.282  1.4605  1.8242  0.5313
 6312SOL     OW27903   4.617   8.420   0.004 -0.0536  0.4774  0.3515
 6312SOL    HW127904   4.623   8.457   0.092  1.6075 -1.0066  0.9104
 6312SOL    HW227905   4.555   8.477  -0.042 -0.4035  1.7037  2.2506
 6313SOL     OW27906  11.995   4.013   3.472 -0.5275 -0.5303  0.1581
 6313SOL    HW127907  12.053   3.999   3.396  0.7630  1.8705  0.5910
 6313SOL    HW227908  11.916   4.051   3.435  0.0004  0.4041 -0.0395
 6314SOL     OW27909  10.945  10.628   6.213 -0.3405 -0.2006 -0.0028
 6314SOL    HW127910  11.004  10.624   6.137  0.2819  2.1909  0.2748
 6314SOL    HW227911  10.869  10.677   6.181 -0.4238  0.1291  0.6989
 6315SOL     OW27912   0.444  11.587   9.040 -0.3059 -0.4223  0.2627
 6315SOL    HW127913   0.510  11.556   8.977 -1.1951 -0.2543 -0.7939
 6315SOL    HW227914   0.373  11.620   8.985 -0.0979  2.0232  1.3178
 6316SOL     OW27915   1.192   1.888   4.435  0.0162  0.1237  0.0262
 6316SOL    HW127916   1.141   1.962   4.468  0.3091 -0.2757  1.4735
 6316SOL    HW227917   1.283   1.912   4.454  0.2103 -0.0729 -0.6352
 6317SOL     OW27918   3.436  10.592  12.030  0.3486 -0.2914  0.2676
 6317SOL    HW127919   3.404  10.679  12.053 -0.7525 -0.4577 -0.5999
 6317SOL    HW227920   3.364  10.551  11.984  1.8997 -0.5443 -2.0910
 6318SOL     OW27921   1.843   3.714   7.565  0.0397  0.3043  0.0373
 6318SOL    HW127922   1.834   3.656   7.490 -1.3913  0.5226  0.0202
 6318SOL    HW227923   1.855   3.655   7.640 -0.8519  0.0052 -0.0531
 6319SOL     OW27924  11.732  10.029   4.495 -0.2635 -0.3425  0.0214
 6319SOL    HW127925  11.754  10.055   4.405 -2.2810  1.6373 -0.0093
 6319SOL    HW227926  11.637  10.045   4.501 -0.3995 -1.6502  2.1299
 6320SOL     OW27927  12.426   0.856   0.823 -0.2929  0.4162 -0.3281
 6320SOL    HW127928  12.348   0.897   0.859 -0.0993 -0.6908  1.4801
 6320SOL    HW227929  12.412   0.762   0.834  1.9957  0.2058  1.7718
 6321SOL     OW27930   3.791   3.752   7.466  0.3207 -0.0674  0.3881
 6321SOL    HW127931   3.722   3.810   7.496  0.3818  0.1557  0.1032
 6321SOL    HW227932   3.776   3.670   7.513  0.1971  0.1571  0.7435
 6322SOL     OW27933   2.378   2.444   7.807 -0.5956 -0.0964 -0.0035
 6322SOL    HW127934   2.401   2.501   7.880 -1.8078  0.4337 -0.0232
 6322SOL    HW227935   2.283   2.430   7.815 -0.9021  0.5675 -1.8877
 6323SOL     OW27936  11.965   3.717   3.600  0.2128  0.0592 -0.3337
 6323SOL    HW127937  11.964   3.805   3.562  0.4156  0.7020  1.1010
 6323SOL    HW227938  11.890   3.716   3.659  0.6517 -0.4830  0.2198
 6324SOL     OW27939   5.793   9.804   8.904 -0.2928 -0.0839  0.1982
 6324SOL    HW127940   5.847   9.837   8.832 -0.1915  0.4883  0.5345
 6324SOL    HW227941   5.852   9.746   8.952 -0.6016 -1.1447 -0.6497
 6325SOL     OW27942   7.395  11.716   0.596  0.2356  0.8109  0.1588
 6325SOL    HW127943   7.302  11.704   0.615  0.2227 -3.1456 -1.4230
 6325SOL    HW227944   7.398  11.789   0.534 -2.2579 -0.6552 -1.9169
 6326SOL     OW27945   7.027   2.910   6.133  0.0575  0.2557  0.3012
 6326SOL    HW127946   7.006   2.956   6.052 -0.3931  2.1219  1.4124
 6326SOL    HW227947   6.946   2.913   6.184  0.1914 -1.3081  0.6669
 6327SOL     OW27948   1.335   5.812   9.743  0.2833 -0.0111  0.0948
 6327SOL    HW127949   1.408   5.827   9.682  0.5484  0.5516  0.5400
 6327SOL    HW227950   1.360   5.733   9.791  0.2541 -0.2349 -0.2517
 6328SOL     OW27951   6.638  11.054   3.226 -0.2176  0.5708  0.5933
 6328SOL    HW127952   6.720  11.100   3.240 -0.0100  0.2858  0.3217
 6328SOL    HW227953   6.578  11.120   3.193  0.2225  0.5410 -0.2851
 6329SOL     OW27954   1.888   0.513   5.644 -0.1731 -0.2579  0.6552
 6329SOL    HW127955   1.832   0.470   5.709 -0.0645 -0.9955  0.2736
 6329SOL    HW227956   1.897   0.448   5.574  0.6345  0.0977  0.4207
 6330SOL     OW27957   1.608   4.562   7.883 -0.0561 -0.2997 -0.0637
 6330SOL    HW127958   1.537   4.621   7.857 -1.2012 -0.7696  1.8205
 6330SOL    HW227959   1.609   4.495   7.815 -0.1838  0.6988 -1.0804
 6331SOL     OW27960  12.432   7.138  12.423 -0.0076 -0.3981 -0.4659
 6331SOL    HW127961  12.501   7.090  12.469 -0.8547 -1.7659 -0.5778
 6331SOL    HW227962  12.477   7.179  12.349  0.8658 -0.4646  0.0206
 6332SOL     OW27963   8.029  10.065   7.149 -0.1318 -0.4946  0.1635
 6332SOL    HW127964   8.086  10.091   7.076 -1.2719 -0.1469 -0.6309
 6332SOL    HW227965   8.011   9.973   7.134  0.5386 -0.7152  0.6518
 6333SOL     OW27966  11.004   9.838   9.518  0.0321 -0.0906 -0.5651
 6333SOL    HW127967  10.911   9.830   9.497 -0.1676 -0.5422  0.4269
 6333SOL    HW227968  11.039   9.896   9.451 -0.9358 -0.0330 -1.0363
 6334SOL     OW27969   4.405   4.287   0.257 -0.0039 -0.0940  0.5358
 6334SOL    HW127970   4.443   4.283   0.344 -0.1677 -1.5222  0.5722
 6334SOL    HW227971   4.477   4.314   0.200 -0.0200  1.3361  1.1569
 6335SOL     OW27972   6.682   0.168   0.105 -0.3748  0.2275  0.1394
 6335SOL    HW127973   6.624   0.196   0.035 -1.6644 -2.1714  0.1134
 6335SOL    HW227974   6.737   0.100   0.066  1.8717  1.7596  0.4296
 6336SOL     OW27975  10.599  12.462   6.504  0.1680  0.0612  0.8215
 6336SOL    HW127976  10.512  12.481   6.469  0.4377 -0.4562 -0.1679
 6336SOL    HW227977  10.584  12.399   6.574 -0.3625  0.9405  1.5155
 6337SOL     OW27978   6.406   6.622   9.946  1.0007  0.4038 -0.4657
 6337SOL    HW127979   6.464   6.651   9.876  1.5520  0.4627  0.0011
 6337SOL    HW227980   6.452   6.648  10.026 -0.4634  2.0080 -0.0934
 6338SOL     OW27981  10.243   0.082   2.948 -0.1277  0.3207 -0.8204
 6338SOL    HW127982  10.207   0.134   3.019 -0.5160 -2.1576  0.9075
 6338SOL    HW227983  10.336   0.074   2.969 -0.2015 -0.2465 -0.7003
 6339SOL     OW27984   9.373   2.476   8.941  0.0365 -0.2655 -0.8464
 6339SOL    HW127985   9.450   2.481   8.998  1.7334 -3.2389 -2.6199
 6339SOL    HW227986   9.323   2.401   8.974 -1.3315  0.6708 -0.6841
 6340SOL     OW27987   8.557   9.934   1.233  0.2709  0.3223 -0.0176
 6340SOL    HW127988   8.499   9.889   1.172 -0.6662 -0.1764  1.1907
 6340SOL    HW227989   8.623   9.976   1.178 -2.0514  2.1590 -1.5933
 6341SOL     OW27990   9.398   4.649   1.930 -0.2895  0.4763 -0.4188
 6341SOL    HW127991   9.398   4.718   1.863 -1.0199  0.5304 -0.3653
 6341SOL    HW227992   9.489   4.645   1.959 -0.4034  2.0743  0.2490
 6342SOL     OW27993   3.215   2.427   0.073 -0.0480 -0.0454 -0.0438
 6342SOL    HW127994   3.287   2.478   0.111  1.1766 -1.5474 -0.2630
 6342SOL    HW227995   3.226   2.339   0.109 -0.7103 -0.7345 -1.4509
 6343SOL     OW27996  11.651   5.609  11.454 -0.1785 -0.1544 -0.1826
 6343SOL    HW127997  11.569   5.569  11.483 -1.6188  1.9850 -1.0936
 6343SOL    HW227998  11.626   5.667  11.382  1.8327  2.0436  0.7467
 6344SOL     OW27999   6.215  11.736   0.358  0.2696  0.2639  0.2005
 6344SOL    HW128000   6.130  11.707   0.388  0.2661  0.5739  0.5015
 6344SOL    HW228001   6.272  11.730   0.435  0.8501 -1.1733 -0.3018
 6345SOL     OW28002  11.208   2.094   0.436  0.0613 -0.1602 -0.2331
 6345SOL    HW128003  11.162   2.178   0.432  0.8143  0.2076 -1.8964
 6345SOL    HW228004  11.258   2.099   0.517  1.0126  1.5261 -0.8726
 6346SOL     OW28005   4.991   8.338   5.101 -0.4102  0.0044  0.2626
 6346SOL    HW128006   4.939   8.415   5.123 -2.3323 -0.5612 -1.8563
 6346SOL    HW228007   5.051   8.327   5.175 -3.2680  0.7570  2.9103
 6347SOL     OW28008   4.871   3.547   0.923  0.4900  0.1880  0.0550
 6347SOL    HW128009   4.909   3.463   0.898  2.7931  0.5022  2.1042
 6347SOL    HW228010   4.781   3.544   0.891  0.9298 -2.4563 -1.1573
 6348SOL     OW28011  11.438   2.173   7.053 -0.2882  0.6389 -0.1406
 6348SOL    HW128012  11.386   2.244   7.088  0.7681  1.4083 -0.0742
 6348SOL    HW228013  11.477   2.208   6.973  0.0837  0.0677 -0.2208
 6349SOL     OW28014  11.903   4.015   6.692 -0.4490 -0.1580  0.4527
 6349SOL    HW128015  11.990   4.054   6.684  0.1063 -1.4557 -0.3252
 6349SOL    HW228016  11.899   3.982   6.782 -1.1801  2.1437  1.3343
 6350SOL     OW28017  12.168   6.523   7.545  0.0417  0.0897 -0.6058
 6350SOL    HW128018  12.209   6.437   7.552 -0.4140 -0.0476  0.6875
 6350SOL    HW228019  12.242   6.584   7.541  0.4699 -0.1106  2.2813
 6351SOL     OW28020   6.102   8.399   9.184 -0.9948 -0.1660 -0.1826
 6351SOL    HW128021   6.122   8.480   9.230 -0.9644  0.5051 -1.3362
 6351SOL    HW228022   6.108   8.331   9.251  3.1618  0.1985  0.0665
 6352SOL     OW28023  10.524   5.131   9.552 -0.1962  0.3234 -0.4242
 6352SOL    HW128024  10.562   5.215   9.579 -0.6660  0.1066  0.9901
 6352SOL    HW228025  10.536   5.129   9.457  2.1577  0.8270 -0.1882
 6353SOL     OW28026   5.981  11.669   4.365  0.1924 -0.7155  0.1075
 6353SOL    HW128027   6.061  11.669   4.312 -1.3846 -0.5438 -2.4574
 6353SOL    HW228028   5.948  11.580   4.360 -0.0791 -0.6486  0.6450
 6354SOL     OW28029   4.427   2.985   4.487 -0.4373  0.0640  0.2823
 6354SOL    HW128030   4.365   2.961   4.556 -0.1746  2.6664  1.5543
 6354SOL    HW228031   4.507   2.937   4.509 -1.7704 -3.1663 -1.2585
 6355SOL     OW28032  12.259   3.217   1.064  0.0077  0.2243  0.4208
 6355SOL    HW128033  12.344   3.173   1.054 -1.2528 -2.2189 -0.2758
 6355SOL    HW228034  12.239   3.209   1.157  0.6640  1.1184  0.6539
 6356SOL     OW28035   9.446   1.882   4.716 -0.3825 -0.3683 -0.3567
 6356SOL    HW128036   9.441   1.973   4.746 -0.7330 -0.7210  0.6870
 6356SOL    HW228037   9.389   1.834   4.776 -0.7092 -1.1846 -1.2997
 6357SOL     OW28038  11.549   1.874   2.522  0.5791 -0.1342 -0.1364
 6357SOL    HW128039  11.525   1.957   2.563 -0.9622  0.3426 -1.8636
 6357SOL    HW228040  11.591   1.900   2.440  0.6615 -1.0615 -0.3977
 6358SOL     OW28041   3.769   7.767   1.671  0.3529  0.1635  0.1598
 6358SOL    HW128042   3.712   7.830   1.714  0.7958  0.7097 -0.0450
 6358SOL    HW228043   3.803   7.713   1.743 -2.3766 -1.8530  0.0656
 6359SOL     OW28044   0.284   9.373   8.686  0.3516 -0.1112  0.6906
 6359SOL    HW128045   0.203   9.406   8.724 -0.4298 -1.2347  0.0698
 6359SOL    HW228046   0.266   9.280   8.669  1.6627 -0.3059  0.2571
 6360SOL     OW28047   4.664  11.717   0.048  0.3311  0.0689 -0.0864
 6360SOL    HW128048   4.691  11.629   0.020  0.3564  0.2530 -0.6653
 6360SOL    HW228049   4.573  11.724   0.021  0.6962  0.6905 -1.2659
 6361SOL     OW28050   9.929  10.064   5.804  0.0695  0.1736 -0.4970
 6361SOL    HW128051   9.900   9.999   5.740 -1.1736  0.9705 -0.7790
 6361SOL    HW228052  10.005  10.104   5.763  1.5367 -1.7869  0.1425
 6362SOL     OW28053   8.320   0.856  12.577 -0.4891  0.3118  0.3728
 6362SOL    HW128054   8.368   0.926  12.533  1.6128 -1.3483 -0.1465
 6362SOL    HW228055   8.328   0.876  12.671 -2.7214  2.4277  0.2211
 6363SOL     OW28056   8.680   2.810   3.386  0.1317 -0.1576 -0.4340
 6363SOL    HW128057   8.616   2.741   3.398 -0.7500  0.5437 -0.9272
 6363SOL    HW228058   8.636   2.890   3.416  1.1741  0.1859  0.2633
 6364SOL     OW28059   8.996  12.181  10.764  0.3262 -0.1601 -0.9457
 6364SOL    HW128060   8.915  12.179  10.713  0.5321  0.8778 -1.3274
 6364SOL    HW228061   9.065  12.192  10.698  0.7193 -0.3493 -0.5655
 6365SOL     OW28062  12.094   6.397   9.446  0.7987 -0.2244 -0.2786
 6365SOL    HW128063  12.184   6.368   9.428  0.5303 -0.8185 -0.7092
 6365SOL    HW228064  12.074   6.457   9.375  1.8081  2.1069  1.3076
 6366SOL     OW28065   3.438  10.461   0.294  1.1240  0.0665  0.4295
 6366SOL    HW128066   3.423  10.518   0.369 -1.5133  0.6975 -0.4995
 6366SOL    HW228067   3.472  10.519   0.226 -1.4375  0.6220 -0.4738
 6367SOL     OW28068   1.616  11.643  10.051 -0.2969 -0.0899  0.8206
 6367SOL    HW128069   1.604  11.701  10.127 -0.4103 -1.2331  1.7147
 6367SOL    HW228070   1.531  11.599  10.042 -0.4018  0.2997 -0.2229
 6368SOL     OW28071  11.250   6.712   1.457 -0.0690  0.2760  0.3291
 6368SOL    HW128072  11.267   6.684   1.367  0.0759  1.9132 -0.2004
 6368SOL    HW228073  11.292   6.647   1.512 -0.3562 -0.8841 -0.7849
 6369SOL     OW28074   7.891   0.421   4.425  0.2447 -0.5304 -0.4694
 6369SOL    HW128075   7.905   0.328   4.411 -0.9748 -0.7414 -0.4050
 6369SOL    HW228076   7.889   0.459   4.337  2.2797 -0.2972 -0.4513
 6370SOL     OW28077   2.712   6.460   1.750  0.5339  0.4518  0.0197
 6370SOL    HW128078   2.687   6.537   1.800 -0.8063 -0.7166  1.2266
 6370SOL    HW228079   2.636   6.402   1.756  0.8257 -0.2744 -2.3153
 6371SOL     OW28080   1.910   7.118   4.000 -0.7583 -0.2165  0.3786
 6371SOL    HW128081   1.935   7.096   3.910 -2.0866  0.5101 -0.1779
 6371SOL    HW228082   1.994   7.127   4.046 -0.0677 -0.8919 -0.6991
 6372SOL     OW28083   4.363   1.635  12.014  0.2526  0.6494 -0.5130
 6372SOL    HW128084   4.349   1.542  12.031  0.3380  0.7676  0.2326
 6372SOL    HW228085   4.395   1.639  11.923  0.1388 -0.0343 -0.5813
 6373SOL     OW28086  11.809   9.805   3.469 -0.7672  0.7194 -0.5120
 6373SOL    HW128087  11.804   9.900   3.460  0.3180  1.1405  2.1941
 6373SOL    HW228088  11.829   9.773   3.381  2.4417  3.3546 -0.9423
 6374SOL     OW28089  11.423   1.678   9.355  0.2099  0.3768  0.0543
 6374SOL    HW128090  11.382   1.764   9.350 -0.5013  0.3093  3.0155
 6374SOL    HW228091  11.516   1.695   9.340  0.0704  1.6552  0.5342
 6375SOL     OW28092   4.760   9.485  12.344  0.4680 -0.9279  0.0947
 6375SOL    HW128093   4.812   9.538  12.404 -0.4617 -1.5275  1.4827
 6375SOL    HW228094   4.722   9.416  12.399 -1.5877 -0.6541 -0.8674
 6376SOL     OW28095   0.327   1.255   8.812  0.4630  0.6731 -0.2937
 6376SOL    HW128096   0.399   1.274   8.752  0.7392  0.0888 -0.1556
 6376SOL    HW228097   0.358   1.287   8.897  0.4565  0.6612 -0.2864
 6377SOL     OW28098   0.527   6.394   6.136  0.2120 -0.1982  0.3338
 6377SOL    HW128099   0.584   6.439   6.074  0.0159 -1.1502 -0.5778
 6377SOL    HW228100   0.586   6.363   6.205  0.8464 -1.2036 -0.6141
 6378SOL     OW28101  10.355   4.630   2.529  0.1427 -0.1499  0.6076
 6378SOL    HW128102  10.420   4.655   2.463  0.4912  1.3705  1.4783
 6378SOL    HW228103  10.365   4.535   2.538 -0.3452 -0.5199 -1.9348
 6379SOL     OW28104   6.857  10.606  10.654  0.0088 -0.1676  0.5693
 6379SOL    HW128105   6.801  10.547  10.604  0.3148 -0.1671  0.2168
 6379SOL    HW228106   6.850  10.690  10.609 -0.4814  0.0914  1.1113
 6380SOL     OW28107   8.664   6.453   8.324 -0.3574  0.0489 -0.1680
 6380SOL    HW128108   8.585   6.476   8.374 -1.6928 -1.4287 -1.5026
 6380SOL    HW228109   8.728   6.430   8.392 -0.7449  2.0330  0.9782
 6381SOL     OW28110   9.135   9.117  12.520 -0.2209 -0.0815  0.3351
 6381SOL    HW128111   9.215   9.068  12.537 -0.9038 -0.9549  1.1416
 6381SOL    HW228112   9.147   9.153  12.432 -0.6386 -3.6274 -1.3503
 6382SOL     OW28113   3.949   2.775   2.237 -0.6285  0.1287 -0.0732
 6382SOL    HW128114   3.981   2.854   2.279 -0.6664 -0.8411  1.8970
 6382SOL    HW228115   3.856   2.771   2.263 -0.7633 -0.2742 -0.6131
 6383SOL     OW28116   6.100   1.744   8.042 -0.3647 -0.0299 -0.1055
 6383SOL    HW128117   6.085   1.727   8.135  0.1278  0.9662  0.1674
 6383SOL    HW228118   6.013   1.764   8.007 -0.3731  0.9567  0.4440
 6384SOL     OW28119   9.301   4.031  10.062  0.2664 -0.1542 -0.1012
 6384SOL    HW128120   9.345   3.955  10.025 -1.3083 -0.7384 -0.8882
 6384SOL    HW228121   9.232   3.993  10.117 -0.9460  0.6577 -1.0055
 6385SOL     OW28122   0.317   6.906  10.543 -0.6089  0.2147  0.6376
 6385SOL    HW128123   0.370   6.842  10.590 -1.5193 -0.0769  1.2806
 6385SOL    HW228124   0.351   6.903  10.453 -0.8143 -1.3833  0.5832
 6386SOL     OW28125   7.652   2.424   2.842  0.3319 -0.2753  0.1593
 6386SOL    HW128126   7.633   2.468   2.924 -1.1323 -1.0717  0.2879
 6386SOL    HW228127   7.681   2.494   2.783 -1.1965  0.7554  0.5700
 6387SOL     OW28128   8.165   3.563   1.007  0.1745 -0.7078 -0.3661
 6387SOL    HW128129   8.142   3.641   1.058  0.4445 -0.1488 -1.0894
 6387SOL    HW228130   8.247   3.533   1.046  0.5550 -0.0887 -0.6837
 6388SOL     OW28131   1.184   6.998   8.582 -0.2180  0.2778 -0.3414
 6388SOL    HW128132   1.131   7.077   8.576 -0.0403  0.5631  1.2012
 6388SOL    HW228133   1.121   6.927   8.594 -0.4923 -0.1365 -3.5057
 6389SOL     OW28134   2.955  10.597   3.190 -0.0763 -0.1484  0.3793
 6389SOL    HW128135   2.899  10.604   3.267  0.5445 -0.4587  0.8697
 6389SOL    HW228136   3.013  10.523   3.208  0.8128  0.4585  0.1090
 6390SOL     OW28137   7.769   5.438   0.414 -0.1141 -0.5218 -0.5990
 6390SOL    HW128138   7.726   5.439   0.499  2.6897  1.1995  0.9194
 6390SOL    HW228139   7.771   5.529   0.386  0.6107 -0.8385 -1.6669
 6391SOL     OW28140   4.297   0.454  10.721  0.3214  0.7782 -0.3062
 6391SOL    HW128141   4.321   0.508  10.796  0.3506 -0.4681  0.6155
 6391SOL    HW228142   4.228   0.397  10.754  0.3841  0.1603 -1.2073
 6392SOL     OW28143   3.239   8.030  11.075 -0.2089 -0.1268  0.6438
 6392SOL    HW128144   3.193   7.966  11.021  1.4768 -0.5650 -0.3829
 6392SOL    HW228145   3.295   8.078  11.013  1.1006  0.0066  1.8531
 6393SOL     OW28146   2.441   8.510   5.750  0.5594 -0.1347  0.4630
 6393SOL    HW128147   2.535   8.498   5.734  0.7287 -0.7124  1.7937
 6393SOL    HW228148   2.422   8.596   5.712  1.1114 -0.9452 -1.8490
 6394SOL     OW28149   4.480  11.961   3.866  0.0905  0.4194 -0.3342
 6394SOL    HW128150   4.402  11.940   3.814 -3.5415  2.4986  3.6160
 6394SOL    HW228151   4.471  11.908   3.945  1.5143  2.2467  1.1507
 6395SOL     OW28152   8.056  10.914  11.119 -0.2813  0.2581  0.3273
 6395SOL    HW128153   8.088  10.991  11.072  1.7219 -0.5481  0.3024
 6395SOL    HW228154   7.960  10.924  11.118 -0.2387  1.2194 -2.2748
 6396SOL     OW28155   1.436   1.619   2.806 -0.1698 -0.2422  0.2996
 6396SOL    HW128156   1.511   1.619   2.746  0.0091 -1.3418  0.4985
 6396SOL    HW228157   1.362   1.589   2.753 -0.5107  0.8777  0.0939
 6397SOL     OW28158   0.366  10.767   9.389 -1.2814  0.8342 -0.2993
 6397SOL    HW128159   0.432  10.836   9.381 -1.5681  1.2140  0.5008
 6397SOL    HW228160   0.387  10.722   9.471 -0.2643 -0.9459 -1.4676
 6398SOL     OW28161   8.975   0.298  11.198 -0.1536 -0.8099 -0.3168
 6398SOL    HW128162   8.967   0.205  11.218 -0.7972 -1.0157 -1.4497
 6398SOL    HW228163   9.069   0.314  11.194 -0.0306 -1.2263  0.6530
 6399SOL     OW28164   6.739   8.919   2.409 -0.6099 -0.1394  0.9519
 6399SOL    HW128165   6.766   8.860   2.339 -1.3923  0.0094  0.5135
 6399SOL    HW228166   6.725   9.004   2.366  0.0195  0.2503  1.4914
 6400SOL     OW28167   3.668   1.687  10.618  0.0408  0.1033  0.1450
 6400SOL    HW128168   3.674   1.755  10.686 -0.4670  0.6737 -0.3677
 6400SOL    HW228169   3.702   1.730  10.539 -1.1863  0.0778 -0.4086
 6401SOL     OW28170   0.365   7.646   5.625  0.0173  0.5006  0.1294
 6401SOL    HW128171   0.297   7.584   5.599  0.2411 -0.0490  0.8281
 6401SOL    HW228172   0.402   7.609   5.705  0.5047  1.2773  0.2718
 6402SOL     OW28173   9.920   7.864   8.275  0.0369  0.0163 -0.7183
 6402SOL    HW128174   9.854   7.886   8.209 -1.7778  1.3866  1.3979
 6402SOL    HW228175   9.992   7.925   8.258 -0.3907  0.3443 -1.4189
 6403SOL     OW28176   7.372   0.902  12.179 -0.5900 -0.4064 -0.2805
 6403SOL    HW128177   7.372   0.813  12.214 -0.6860 -0.7468 -1.1350
 6403SOL    HW228178   7.367   0.891  12.084 -0.0186  0.5006 -0.4299
 6404SOL     OW28179   1.432   7.638   5.580 -0.2092 -0.2249 -0.2052
 6404SOL    HW128180   1.500   7.582   5.615 -0.3406  0.3236  0.9956
 6404SOL    HW228181   1.452   7.646   5.487  0.8245 -0.8091 -0.0424
 6405SOL     OW28182   3.755   1.549   7.322  0.3043  0.2386  0.2005
 6405SOL    HW128183   3.713   1.516   7.402  1.5776 -0.3247  0.6617
 6405SOL    HW228184   3.816   1.616   7.353  0.7513  0.0714 -0.2993
 6406SOL     OW28185   9.822   0.964  11.035  0.1784 -0.0223 -0.0319
 6406SOL    HW128186   9.863   1.044  11.003 -0.5371 -0.4207 -2.0809
 6406SOL    HW228187   9.742   0.993  11.079  1.1206  0.5223  1.4167
 6407SOL     OW28188  11.207   4.673   4.887  0.4616 -0.1367 -0.1836
 6407SOL    HW128189  11.301   4.674   4.869  0.5112 -2.0484 -0.2535
 6407SOL    HW228190  11.169   4.735   4.825  1.8787  2.6051  1.4949
 6408SOL     OW28191  12.208   5.007   7.983  0.0424 -0.0219 -0.8728
 6408SOL    HW128192  12.131   5.033   7.933 -1.4808 -2.0777  0.2733
 6408SOL    HW228193  12.199   5.055   8.066  1.0265  1.1386 -1.3969
 6409SOL     OW28194   3.938   2.811   3.034 -0.5041  0.4010  0.1490
 6409SOL    HW128195   4.034   2.816   3.043 -0.5150  1.7256 -0.3080
 6409SOL    HW228196   3.905   2.814   3.124 -0.1459  0.6748  0.2734
 6410SOL     OW28197  12.544  10.370  12.398 -0.0018  0.4270 -0.4608
 6410SOL    HW128198  12.597  10.291  12.408 -1.2846 -0.4517 -0.2499
 6410SOL    HW228199  12.488  10.371  12.476 -1.2715  0.5286 -1.3360
 6411SOL     OW28200   4.841  10.475   2.393  0.2732  0.0823  0.5581
 6411SOL    HW128201   4.785  10.500   2.320 -0.9728 -1.0643  1.0828
 6411SOL    HW228202   4.799  10.397   2.430  0.9940  0.5143  2.3731
 6412SOL     OW28203  10.809   7.396   4.343  0.2802 -0.1010 -0.3806
 6412SOL    HW128204  10.815   7.358   4.255 -2.1489  0.4615 -0.8561
 6412SOL    HW228205  10.717   7.419   4.353  0.1854 -1.3440  2.8345
 6413SOL     OW28206   0.463   2.257   0.636  0.1563 -0.0666  0.1184
 6413SOL    HW128207   0.376   2.284   0.606  1.1570  1.9893 -1.0704
 6413SOL    HW228208   0.505   2.221   0.559  0.9089  0.3872  0.3082
 6414SOL     OW28209   6.805   4.843   5.997 -0.6224  0.1839 -0.3867
 6414SOL    HW128210   6.877   4.840   5.935  1.6544 -1.4572  2.0931
 6414SOL    HW228211   6.765   4.756   5.992 -0.6112  0.1388  0.1995
 6415SOL     OW28212   0.649   1.744   0.744  0.5175 -0.2598  0.6519
 6415SOL    HW128213   0.696   1.827   0.742 -0.9824  0.6139  0.1005
 6415SOL    HW228214   0.644   1.722   0.837 -2.3038  2.2451  1.2383
 6416SOL     OW28215   3.692   8.037   0.818  0.3622  0.4296  0.0809
 6416SOL    HW128216   3.760   8.071   0.877  1.4548  1.2959 -1.5972
 6416SOL    HW228217   3.613   8.032   0.873  1.6594 -0.2920  2.0105
 6417SOL     OW28218   9.356   3.097   5.729  0.5137  0.0126  0.0206
 6417SOL    HW128219   9.294   3.025   5.720 -1.4835  1.8029 -1.3127
 6417SOL    HW228220   9.348   3.148   5.648  0.8912  2.4428  1.3882
 6418SOL     OW28221   2.270   4.296   1.653  0.0662  0.2007  0.0468
 6418SOL    HW128222   2.195   4.345   1.620 -0.0948 -0.9396 -1.3334
 6418SOL    HW228223   2.286   4.228   1.588  0.9725 -0.9120  1.3717
 6419SOL     OW28224   4.030  11.735   5.924 -0.3155  0.1016  0.1453
 6419SOL    HW128225   4.079  11.790   5.985 -0.1773  0.3698 -0.2048
 6419SOL    HW228226   4.078  11.652   5.922 -0.6120 -0.0904  0.7930
 6420SOL     OW28227   8.327   6.182   6.466 -0.4486  0.0209  0.3310
 6420SOL    HW128228   8.283   6.140   6.540 -2.1923  0.2078 -0.5600
 6420SOL    HW228229   8.331   6.275   6.491 -0.5282 -0.0010  0.4254
 6421SOL     OW28230   2.416  11.817   8.238 -0.6310 -0.1990  0.3352
 6421SOL    HW128231   2.417  11.867   8.319 -3.1138  1.3867 -0.4803
 6421SOL    HW228232   2.336  11.764   8.243 -0.9494  0.0758 -1.1311
 6422SOL     OW28233   6.701   5.945   4.973  0.3567 -0.5084  0.1941
 6422SOL    HW128234   6.660   5.989   5.048  0.5998  2.1534 -1.1118
 6422SOL    HW228235   6.628   5.915   4.920  0.1295  0.1101  0.1435
 6423SOL     OW28236   5.361   0.070   6.575 -0.1424 -0.1609 -0.1948
 6423SOL    HW128237   5.292   0.021   6.619  1.5082  0.2061  3.0972
 6423SOL    HW228238   5.440   0.051   6.626  1.9085  0.7151 -2.8198
 6424SOL     OW28239  12.173   2.319   5.812 -0.0795 -0.1588  0.2052
 6424SOL    HW128240  12.228   2.374   5.757  0.0777  0.2294  0.7418
 6424SOL    HW228241  12.164   2.238   5.763  1.1668 -0.3222  0.2063
 6425SOL     OW28242   7.495   3.334   7.801 -0.4663  0.2155 -0.1064
 6425SOL    HW128243   7.557   3.316   7.871  0.7982  1.8908 -0.7397
 6425SOL    HW228244   7.521   3.275   7.730 -2.1742 -1.9799  0.9801
 6426SOL     OW28245  10.281   4.134   1.654  0.3970 -0.5382 -0.2274
 6426SOL    HW128246  10.218   4.168   1.718  0.1782  0.7105 -1.0757
 6426SOL    HW228247  10.362   4.183   1.672  0.0762  0.4904 -1.4680
 6427SOL     OW28248   0.022   1.505   9.082  0.0844  0.1096 -0.3250
 6427SOL    HW128249  -0.043   1.446   9.046  0.9123 -0.7816 -0.4130
 6427SOL    HW228250   0.041   1.566   9.010  0.8795 -0.9431 -1.0493
 6428SOL     OW28251   6.083   9.961  11.468  0.6204 -0.2359  0.2736
 6428SOL    HW128252   6.085  10.053  11.441 -0.6404 -0.9019 -2.4199
 6428SOL    HW228253   6.005   9.954  11.523  0.6848  0.2901  0.4366
 6429SOL     OW28254  12.197  12.553   2.174 -0.0278  0.2766 -0.3139
 6429SOL    HW128255  12.275  12.576   2.224  1.0383 -1.9225 -0.8174
 6429SOL    HW228256  12.230  12.506   2.098 -1.8219 -0.1328 -0.8929
 6430SOL     OW28257   1.712   6.077   4.616  0.0297 -0.0356 -0.0825
 6430SOL    HW128258   1.617   6.087   4.621  0.1467  1.0210  0.3349
 6430SOL    HW228259   1.738   6.136   4.545  0.5455  1.0760  1.0003
 6431SOL     OW28260   4.497   4.230  10.367  0.0905  0.4677  0.0312
 6431SOL    HW128261   4.534   4.280  10.441 -0.0773 -0.7474  0.9655
 6431SOL    HW228262   4.493   4.140  10.399  0.6194 -0.2067 -1.7124
 6432SOL     OW28263   7.961   3.484  10.165 -0.1787  0.3139  0.0701
 6432SOL    HW128264   7.895   3.539  10.123 -0.8957 -1.1277 -0.7614
 6432SOL    HW228265   8.003   3.436  10.093  2.2351  1.6091  0.4992
 6433SOL     OW28266   8.431  12.099   1.519  0.1514 -0.6091 -0.2230
 6433SOL    HW128267   8.414  12.015   1.561  0.0342 -0.1637  0.6498
 6433SOL    HW228268   8.383  12.163   1.572 -1.1606 -0.1708 -1.8390
 6434SOL     OW28269   4.829   6.254  10.485  0.3723  0.5481 -0.1742
 6434SOL    HW128270   4.895   6.212  10.539 -1.5463 -1.4481  0.7334
 6434SOL    HW228271   4.808   6.190  10.418 -1.4366  0.6735  0.2325
 6435SOL     OW28272   8.426   3.947   3.287  0.0950  0.4982  0.2311
 6435SOL    HW128273   8.497   3.901   3.242  0.6475  0.1195  1.4603
 6435SOL    HW228274   8.441   3.930   3.380 -2.9668 -1.6334  0.4925
 6436SOL     OW28275  11.894   1.447   3.242 -0.5033  0.2125  0.0902
 6436SOL    HW128276  11.981   1.470   3.210 -0.1781 -0.8515  0.1520
 6436SOL    HW228277  11.868   1.371   3.189  0.0511 -1.5920  2.2608
 6437SOL     OW28278   0.405  10.748  10.588  0.2311  0.0837 -0.3832
 6437SOL    HW128279   0.319  10.718  10.616  1.4957 -2.4087  1.1580
 6437SOL    HW228280   0.438  10.799  10.663  0.8571 -0.6769 -0.1268
 6438SOL     OW28281   9.259   1.633  12.016  0.5228 -0.0101  0.1188
 6438SOL    HW128282   9.175   1.599  11.986  0.1270 -0.1063  1.2665
 6438SOL    HW228283   9.308   1.555  12.042  1.2087 -0.0023 -1.1126
 6439SOL     OW28284   8.885   6.562   4.346 -0.0823  0.2924  0.6472
 6439SOL    HW128285   8.974   6.591   4.327 -0.2871  0.4332 -0.1317
 6439SOL    HW228286   8.896   6.475   4.385  0.2973 -1.2240 -2.5189
 6440SOL     OW28287   8.291   8.246   7.025 -0.4095  0.3177 -0.5383
 6440SOL    HW128288   8.226   8.178   7.042  0.9667 -1.2298 -1.1511
 6440SOL    HW228289   8.366   8.198   6.988  1.6461  1.7786  1.4710
 6441SOL     OW28290   9.191   8.843   0.784 -0.4127  0.1901 -0.2845
 6441SOL    HW128291   9.182   8.883   0.698 -0.5049  1.2469  0.2011
 6441SOL    HW228292   9.255   8.897   0.829 -0.3250 -0.3846  0.3000
 6442SOL     OW28293   4.908   8.261   2.146  0.5334  0.0863 -0.3889
 6442SOL    HW128294   4.985   8.204   2.137  1.1360  0.9173 -0.6795
 6442SOL    HW228295   4.936   8.329   2.207 -0.3309 -0.1675  0.3144
 6443SOL     OW28296   4.765   6.902   4.807 -0.2882  0.1963 -0.5565
 6443SOL    HW128297   4.776   6.934   4.897 -0.7752  0.5202 -0.6093
 6443SOL    HW228298   4.855   6.888   4.776 -0.1305 -0.6011  0.2176
 6444SOL     OW28299   3.683   5.701   2.364 -0.2578 -0.2519  0.2522
 6444SOL    HW128300   3.738   5.755   2.421 -0.2915 -1.0606  1.0643
 6444SOL    HW228301   3.745   5.650   2.312 -0.2029 -1.2769  1.2751
 6445SOL     OW28302   6.753   4.006   1.491 -0.0765 -0.1861  0.2387
 6445SOL    HW128303   6.842   3.971   1.486  0.9122  1.8103  2.1250
 6445SOL    HW228304   6.720   3.978   1.576 -0.8287  0.0182  0.0282
 6446SOL     OW28305   1.114   8.266  11.036 -0.1351  0.1489 -0.6334
 6446SOL    HW128306   1.183   8.313  10.990  1.3496 -0.9961  0.3440
 6446SOL    HW228307   1.087   8.197  10.975  2.1275 -1.6389  0.2591
 6447SOL     OW28308   5.202   5.066   1.512 -0.3358 -0.0519  0.0540
 6447SOL    HW128309   5.187   5.054   1.418  0.7199 -3.8801  0.2130
 6447SOL    HW228310   5.289   5.105   1.518 -0.1541 -0.3634 -0.5259
 6448SOL     OW28311   8.987   1.102   3.447 -0.1872 -0.3547  0.3528
 6448SOL    HW128312   8.924   1.041   3.485  0.4489 -0.5385  1.1387
 6448SOL    HW228313   9.072   1.063   3.465  0.1728  0.1075 -0.3152
 6449SOL     OW28314   3.707   8.914   2.729 -0.4170 -0.2299 -0.4393
 6449SOL    HW128315   3.644   8.937   2.661  0.4171  1.2157 -0.7750
 6449SOL    HW228316   3.792   8.930   2.689  0.2671 -3.1314 -0.3492
 6450SOL     OW28317   7.669   1.858   1.865 -0.1599  0.1973  0.4211
 6450SOL    HW128318   7.631   1.866   1.777 -0.6417 -0.8094  0.5318
 6450SOL    HW228319   7.652   1.768   1.891 -0.2654  0.5552  1.6633
 6451SOL     OW28320   5.658   0.959   1.880  0.6804 -0.1606  0.4882
 6451SOL    HW128321   5.727   0.998   1.933  0.3113  0.9019  0.2122
 6451SOL    HW228322   5.585   0.947   1.941  0.4180  0.6196  0.3352
 6452SOL     OW28323   5.472   8.883  12.483  0.4129  0.4134  0.3326
 6452SOL    HW128324   5.390   8.925  12.508 -0.0842  0.0897 -0.7323
 6452SOL    HW228325   5.510   8.941  12.418  0.0261 -0.4373 -0.6849
 6453SOL     OW28326  10.416   4.181  10.600 -0.5775 -0.1120  0.3181
 6453SOL    HW128327  10.442   4.136  10.520  0.9974 -1.3215  1.4580
 6453SOL    HW228328  10.393   4.111  10.661 -0.5992  0.7303  1.3135
 6454SOL     OW28329   0.009   7.235   3.485 -0.2887  0.5454  0.3837
 6454SOL    HW128330   0.002   7.160   3.425 -2.0524  0.9752  0.0019
 6454SOL    HW228331   0.046   7.305   3.432 -0.8357  0.6093  0.0760
 6455SOL     OW28332   3.346   3.430   6.075  0.1643  0.8621  0.6450
 6455SOL    HW128333   3.279   3.372   6.113  0.1322  0.2846 -0.2679
 6455SOL    HW228334   3.310   3.456   5.990  1.3602  0.0683 -0.1243
 6456SOL     OW28335   6.029  11.044   4.532  0.1570 -0.1399  0.0522
 6456SOL    HW128336   6.045  11.128   4.490  2.2089 -0.7656 -0.5718
 6456SOL    HW228337   6.072  11.051   4.617 -1.8481  0.2653  1.0858
 6457SOL     OW28338   8.442   1.843   1.658 -0.8849  0.5120  0.1376
 6457SOL    HW128339   8.399   1.818   1.576  1.6469 -2.1665 -0.5386
 6457SOL    HW228340   8.531   1.809   1.649  0.4443  2.9645  2.7353
 6458SOL     OW28341  12.127   6.025   5.052 -0.1372 -0.0756  0.0068
 6458SOL    HW128342  12.123   5.950   4.993  0.3398 -1.3355  1.5112
 6458SOL    HW228343  12.041   6.028   5.093 -0.1700  0.2406 -0.0796
 6459SOL     OW28344   0.858  12.423  11.881 -0.1592 -0.6867  0.2510
 6459SOL    HW128345   0.867  12.481  11.956  0.2669  1.5867 -1.4619
 6459SOL    HW228346   0.764  12.404  11.876 -0.2818 -0.2620  0.9100
 6460SOL     OW28347  12.419   2.606   6.640  0.0806 -0.0635  0.1506
 6460SOL    HW128348  12.355   2.633   6.706  0.4292  1.2766 -0.0376
 6460SOL    HW228349  12.465   2.687   6.617  1.3961 -0.8852 -0.1977
 6461SOL     OW28350   0.691   4.371   1.787 -0.2144  0.5988 -0.6529
 6461SOL    HW128351   0.741   4.293   1.762 -1.3193 -0.1806 -0.4953
 6461SOL    HW228352   0.757   4.433   1.819  0.5545 -0.7482  0.4430
 6462SOL     OW28353   9.295   8.398  11.195  0.2865 -0.2034 -0.0933
 6462SOL    HW128354   9.288   8.492  11.210  1.0748 -0.2283  0.5290
 6462SOL    HW228355   9.373   8.372  11.243  2.8857 -0.3900 -3.9522
 6463SOL     OW28356   2.227   0.710   8.389  0.1287 -0.7289  0.4157
 6463SOL    HW128357   2.144   0.717   8.437 -0.1897 -1.2272 -0.0487
 6463SOL    HW228358   2.210   0.644   8.321  0.9387 -0.9154  0.3834
 6464SOL     OW28359   9.502   7.982   6.863  0.2834 -0.9799  0.2360
 6464SOL    HW128360   9.513   7.949   6.774  2.0218 -0.5555  0.2710
 6464SOL    HW228361   9.521   8.075   6.857 -0.6679 -0.7295  0.8750
 6465SOL     OW28362  12.073   5.264   1.968  0.3898  0.1112  0.3784
 6465SOL    HW128363  12.090   5.247   1.876 -0.0258 -1.7582  0.6141
 6465SOL    HW228364  12.090   5.180   2.012  2.9903  1.4995  2.3787
 6466SOL     OW28365   9.651  10.335   5.674  0.4192 -0.1047 -0.0049
 6466SOL    HW128366   9.704  10.265   5.636 -1.0205 -2.1116  1.4514
 6466SOL    HW228367   9.595  10.365   5.603  2.3591  0.9861 -1.1552
 6467SOL     OW28368   5.687   6.410   4.439  0.2646 -0.1341 -0.4397
 6467SOL    HW128369   5.627   6.450   4.501  0.9969  1.6973 -0.8495
 6467SOL    HW228370   5.773   6.414   4.482  0.4119 -0.9565 -0.6422
 6468SOL     OW28371   8.992   6.517   9.576 -0.8816  0.4793 -0.4671
 6468SOL    HW128372   8.964   6.425   9.575 -1.3751  0.6378 -1.3166
 6468SOL    HW228373   9.008   6.535   9.669  0.0944 -0.7248 -0.3591
 6469SOL     OW28374   5.962   6.495  11.728 -0.4142 -1.0469  0.2898
 6469SOL    HW128375   6.034   6.557  11.735 -0.4098 -1.2130  2.3964
 6469SOL    HW228376   5.897   6.540  11.673 -0.2815  0.7536  1.4976
 6470SOL     OW28377   7.325   6.788   7.411 -0.0188 -0.2920  0.6228
 6470SOL    HW128378   7.373   6.720   7.363 -0.4344 -0.3228  0.2491
 6470SOL    HW228379   7.322   6.755   7.501 -0.6061 -0.9879  0.3578
 6471SOL     OW28380  10.650  10.612  10.603  0.2017 -0.8694  0.0135
 6471SOL    HW128381  10.733  10.567  10.618  0.6078 -0.7633 -1.6710
 6471SOL    HW228382  10.667  10.703  10.626  0.4411 -0.9180  0.0315
 6472SOL     OW28383   5.451   4.050   5.040  0.4532 -0.2752  0.4530
 6472SOL    HW128384   5.409   4.014   4.962 -1.9334  0.5772  1.2629
 6472SOL    HW228385   5.469   4.142   5.018 -2.6674  0.7503  1.6660
 6473SOL     OW28386   2.855   0.159   7.683  0.6574 -0.0324  0.1986
 6473SOL    HW128387   2.814   0.173   7.597  0.2859 -1.6255  0.0792
 6473SOL    HW228388   2.870   0.065   7.687  3.1086  0.3097  0.8040
 6474SOL     OW28389   9.794   1.956   2.961  0.1478  0.3783 -0.0733
 6474SOL    HW128390   9.825   1.866   2.963  0.4134  0.3778 -2.3885
 6474SOL    HW228391   9.717   1.956   3.018  0.8151 -1.0175  0.8844
 6475SOL     OW28392   9.006   5.346   7.921  0.1257 -0.7930  0.5723
 6475SOL    HW128393   8.952   5.287   7.868  0.6006  0.2949 -1.2203
 6475SOL    HW228394   9.025   5.297   8.000 -1.2935 -2.2016  0.1006
 6476SOL     OW28395  10.489   2.023   4.558 -0.8283  0.4977  0.2162
 6476SOL    HW128396  10.459   1.990   4.642 -0.3163 -0.0841  0.1718
 6476SOL    HW228397  10.419   2.000   4.497  0.7252 -3.2097 -0.4105
 6477SOL     OW28398  10.711  11.401   2.918 -0.3747 -0.2463 -0.6604
 6477SOL    HW128399  10.703  11.306   2.908 -1.1164 -0.3580  0.7356
 6477SOL    HW228400  10.758  11.430   2.840  1.0710 -1.9290 -0.4656
 6478SOL     OW28401   3.592   4.937  11.784  0.0938 -0.0194  0.6986
 6478SOL    HW128402   3.561   4.879  11.714  0.9536  0.8731 -0.4550
 6478SOL    HW228403   3.686   4.920  11.790  0.5408  1.8640 -0.3022
 6479SOL     OW28404   3.308  12.108   6.040 -0.4982 -0.3361  0.4821
 6479SOL    HW128405   3.394  12.138   6.012 -0.4321 -0.7589  0.2305
 6479SOL    HW228406   3.321  12.077   6.129 -0.4132 -0.2932  0.4851
 6480SOL     OW28407   3.360   7.397   0.334 -0.6448 -0.1178 -0.1473
 6480SOL    HW128408   3.445   7.437   0.315  0.3517 -1.4856  1.2136
 6480SOL    HW228409   3.299   7.443   0.276  1.1986  0.0463 -2.0801
 6481SOL     OW28410  10.064   3.628  12.509 -0.2887 -0.1153 -0.0980
 6481SOL    HW128411  10.058   3.692  12.580  0.2256  0.8232 -0.8675
 6481SOL    HW228412  10.147   3.648  12.466 -0.0175 -1.4589 -0.2342
 6482SOL     OW28413   9.129   5.409   8.721  0.3263  0.4944 -0.3859
 6482SOL    HW128414   9.112   5.320   8.752  0.7917  0.2790 -0.7445
 6482SOL    HW228415   9.130   5.463   8.800  0.2565  0.1478 -0.1510
 6483SOL     OW28416  11.579   2.968   9.262 -0.2925  0.8202 -0.2629
 6483SOL    HW128417  11.523   3.001   9.333 -1.2203 -1.2348  0.0473
 6483SOL    HW228418  11.668   2.976   9.296 -0.6623  0.8070  0.7458
 6484SOL     OW28419   4.448   8.163   2.179  0.2817  0.0597  0.0234
 6484SOL    HW128420   4.525   8.113   2.151 -0.7957 -1.1668 -0.8622
 6484SOL    HW228421   4.383   8.147   2.111 -0.1359  2.7148 -0.2913
 6485SOL     OW28422   5.821   8.977   6.673 -0.2202 -0.1379  0.5804
 6485SOL    HW128423   5.827   8.966   6.768 -0.5285 -0.9660  0.5139
 6485SOL    HW228424   5.736   8.939   6.650 -0.5676  0.8914  0.0817
 6486SOL     OW28425   6.277  11.795   3.979 -0.6377  0.2101  0.3535
 6486SOL    HW128426   6.206  11.850   4.012 -0.3402  0.8196 -0.0255
 6486SOL    HW228427   6.240  11.752   3.902 -0.5222  0.7169  0.0107
 6487SOL     OW28428   5.679   5.554   0.596 -0.2992 -1.0709 -0.0640
 6487SOL    HW128429   5.741   5.627   0.599 -1.4929 -0.0226 -0.0711
 6487SOL    HW228430   5.716   5.489   0.656  0.8366 -0.5190 -0.1288
 6488SOL     OW28431   3.488  11.350   7.505  0.0534  0.1135 -0.7115
 6488SOL    HW128432   3.491  11.312   7.417 -1.5642  1.6320 -1.4786
 6488SOL    HW228433   3.508  11.442   7.492  0.1038  0.2949  0.5680
 6489SOL     OW28434   4.389   1.517  10.279 -0.1050 -0.0153  0.7336
 6489SOL    HW128435   4.474   1.546  10.246  0.2261 -1.3477  0.3352
 6489SOL    HW228436   4.334   1.595  10.278  0.1488  0.2245 -2.1559
 6490SOL     OW28437   6.726   5.452   1.325 -0.1555  0.0148  0.3351
 6490SOL    HW128438   6.648   5.478   1.374 -0.6100 -0.7189  0.0092
 6490SOL    HW228439   6.715   5.358   1.310  0.4159  0.0540 -0.3877
 6491SOL     OW28440   7.840   3.412   3.265 -0.2046  0.1242  0.6133
 6491SOL    HW128441   7.890   3.489   3.293 -0.1732  0.7527 -1.0244
 6491SOL    HW228442   7.753   3.447   3.243 -0.6779 -0.5875  1.2983
 6492SOL     OW28443   2.222   1.808  11.402  0.0341 -0.3531 -0.0027
 6492SOL    HW128444   2.264   1.889  11.373 -0.5949 -0.3734 -1.0243
 6492SOL    HW228445   2.138   1.807  11.356  0.6427 -2.2935 -1.2003
 6493SOL     OW28446  11.222   8.196   2.207  0.4158 -0.1098  0.2517
 6493SOL    HW128447  11.308   8.233   2.227  0.8855 -1.1537  0.2123
 6493SOL    HW228448  11.206   8.132   2.276  0.8025 -1.7393 -1.1037
 6494SOL     OW28449   1.823   6.692   2.312  0.7047  0.4694  0.2731
 6494SOL    HW128450   1.793   6.740   2.235  1.5702  0.6728  0.0557
 6494SOL    HW228451   1.887   6.750   2.354  2.3883 -0.7957 -0.4367
 6495SOL     OW28452   3.069   9.751   2.139 -0.3345 -0.7841 -0.2018
 6495SOL    HW128453   2.980   9.779   2.163 -0.2498 -0.3969 -0.3266
 6495SOL    HW228454   3.101   9.822   2.083  1.1400  0.5185  2.1389
 6496SOL     OW28455   0.008   5.373   2.805 -0.0144 -0.0023 -0.4868
 6496SOL    HW128456  -0.087   5.368   2.817 -0.1221  0.3945 -1.1790
 6496SOL    HW228457   0.022   5.356   2.712  0.4268  2.0511 -0.8388
 6497SOL     OW28458   8.163   6.144   3.861  0.0690  0.4670  0.1233
 6497SOL    HW128459   8.108   6.068   3.879  0.6315  0.1506  0.5458
 6497SOL    HW228460   8.120   6.188   3.787 -0.8528  0.3502  0.5797
 6498SOL     OW28461   3.388   6.033   3.174  0.1497 -0.1733  0.2605
 6498SOL    HW128462   3.304   6.066   3.143 -0.4059 -1.3001  0.4913
 6498SOL    HW228463   3.395   6.065   3.264  1.5210  2.6582 -0.7363
 6499SOL     OW28464  12.190   2.231  12.158  0.3559  0.0118 -0.0637
 6499SOL    HW128465  12.262   2.189  12.111 -0.1100 -1.1220  0.2002
 6499SOL    HW228466  12.190   2.189  12.244 -0.6620 -0.0494 -0.0819
 6500SOL     OW28467   6.926   2.871   5.302 -0.1399 -0.2023 -0.3350
 6500SOL    HW128468   6.908   2.848   5.393  0.6211  1.1617  0.1983
 6500SOL    HW228469   6.968   2.794   5.265  0.1891 -0.5226  0.6686
 6501SOL     OW28470   8.405   5.314   5.702  0.2520 -0.3585  0.3975
 6501SOL    HW128471   8.399   5.410   5.707  2.2359 -0.0726 -1.3272
 6501SOL    HW228472   8.492   5.294   5.737  0.1273 -1.4519  0.0925
 6502SOL     OW28473  10.769   1.046   5.098 -0.1065  0.3353  0.1731
 6502SOL    HW128474  10.786   1.107   5.027 -0.1127  0.8766  0.6282
 6502SOL    HW228475  10.840   0.982   5.093 -0.1098  0.3649 -0.3157
 6503SOL     OW28476   3.756   1.946   0.751  0.0027 -0.4065 -0.4881
 6503SOL    HW128477   3.817   2.019   0.757 -1.0072  0.3513  1.9374
 6503SOL    HW228478   3.769   1.897   0.832 -1.4753 -1.1510 -0.6603
 6504SOL     OW28479   2.219   4.535   7.953  0.2512 -0.1702  0.1322
 6504SOL    HW128480   2.193   4.612   8.004  0.2425 -0.8262  1.1381
 6504SOL    HW228481   2.234   4.467   8.018 -1.7693 -1.6557 -0.8558
 6505SOL     OW28482   4.853   9.674   7.229 -0.3138  0.3805  0.0685
 6505SOL    HW128483   4.851   9.747   7.291 -1.1204 -0.1920  0.7364
 6505SOL    HW228484   4.894   9.603   7.277 -2.1346 -0.4757  0.4407
 6506SOL     OW28485   3.649   9.058   7.760 -0.2155  0.4277  0.2731
 6506SOL    HW128486   3.732   9.106   7.759  0.0474 -0.0278 -0.4068
 6506SOL    HW228487   3.649   9.010   7.843  0.2074  0.4199  0.2705
 6507SOL     OW28488   8.213  11.664   4.622 -0.2435  0.0062  0.1447
 6507SOL    HW128489   8.285  11.686   4.681  0.0626  1.0326 -0.5770
 6507SOL    HW228490   8.256  11.646   4.538 -0.8338  1.0674 -0.4131
 6508SOL     OW28491   6.169   3.447   7.399  0.4323  0.1042  0.4751
 6508SOL    HW128492   6.207   3.500   7.329  0.2753 -1.5224 -0.9110
 6508SOL    HW228493   6.221   3.367   7.400 -0.2331 -0.3400  1.5245
 6509SOL     OW28494   5.168  10.201   5.501  0.1047 -0.0177 -0.2832
 6509SOL    HW128495   5.103  10.206   5.571  0.0297  1.0474 -0.4091
 6509SOL    HW228496   5.252  10.213   5.544  0.1093 -0.0203 -0.2921
 6510SOL     OW28497   8.785   1.775   2.332  0.2726 -0.3655  0.6345
 6510SOL    HW128498   8.766   1.861   2.371  1.9197 -0.2369  1.2104
 6510SOL    HW228499   8.718   1.718   2.369 -1.4093  0.8079 -0.4409
 6511SOL     OW28500   8.884   4.250   8.129  0.3714 -0.4923 -0.4945
 6511SOL    HW128501   8.948   4.180   8.122  0.0618 -0.6946 -1.4544
 6511SOL    HW228502   8.864   4.256   8.223  1.9404 -0.2782 -0.1569
 6512SOL     OW28503  10.732   9.351   8.069 -0.3505  0.4775  0.3808
 6512SOL    HW128504  10.735   9.401   8.150  0.8220  1.3893 -0.1856
 6512SOL    HW228505  10.804   9.386   8.017 -2.2113  1.2490 -1.8352
 6513SOL     OW28506   4.268   6.517   8.284  0.1668  0.0041 -0.2469
 6513SOL    HW128507   4.276   6.541   8.376 -1.5248  1.4997 -0.4331
 6513SOL    HW228508   4.330   6.574   8.238 -0.3655  0.6323 -0.2025
 6514SOL     OW28509   6.525   3.138   3.887  0.1826  0.4803  0.3813
 6514SOL    HW128510   6.515   3.233   3.885  0.9238  0.5682  0.8985
 6514SOL    HW228511   6.498   3.113   3.975  1.5289  0.3894  0.7788
 6515SOL     OW28512   4.074   8.954   5.724  0.5552  0.0689 -0.5496
 6515SOL    HW128513   4.143   8.893   5.750  0.0532 -0.7239 -1.0551
 6515SOL    HW228514   4.083   9.027   5.786  0.8955 -0.6998  0.3340
 6516SOL     OW28515   9.943   2.555   6.343  0.3892  0.1596 -0.5384
 6516SOL    HW128516   9.969   2.576   6.432  0.8341 -0.2267 -0.5787
 6516SOL    HW228517  10.011   2.594   6.287  0.2990  0.0993 -0.6931
 6517SOL     OW28518   2.826   5.160   0.643  0.1221  0.0750  0.5715
 6517SOL    HW128519   2.753   5.110   0.681  0.6020 -2.3028 -1.3677
 6517SOL    HW228520   2.903   5.107   0.664  0.6176 -0.2606 -1.8478
 6518SOL     OW28521   1.173   9.591   3.169 -0.3624  0.5019  0.0422
 6518SOL    HW128522   1.252   9.576   3.220 -0.4146 -0.5576 -0.1790
 6518SOL    HW228523   1.126   9.508   3.172 -1.0317  0.8458 -0.5914
 6519SOL     OW28524   6.330   8.117   9.594 -0.4569  0.6370 -0.0280
 6519SOL    HW128525   6.357   8.203   9.625 -0.6603  0.2936  1.1618
 6519SOL    HW228526   6.258   8.092   9.652 -0.0072 -0.5898  0.0447
 6520SOL     OW28527  12.027  10.665   9.606 -0.0542  0.7482 -0.4248
 6520SOL    HW128528  12.042  10.759   9.599  0.9399  0.4706 -4.0523
 6520SOL    HW228529  12.115  10.628   9.619 -0.3080  0.2600 -0.0816
 6521SOL     OW28530   8.395  12.402   1.163 -0.2539 -0.0880 -0.0954
 6521SOL    HW128531   8.468  12.443   1.209 -0.6301 -0.2939  0.6950
 6521SOL    HW228532   8.435  12.360   1.087  0.1729  1.5239 -0.7898
 6522SOL     OW28533  12.498  12.334   8.531  0.0108  0.1715 -0.4018
 6522SOL    HW128534  12.565  12.330   8.599  0.9844 -0.0953 -1.3504
 6522SOL    HW228535  12.490  12.427   8.511  0.1153  0.1995 -0.3122
 6523SOL     OW28536   1.678   0.340   5.841  0.2760 -0.0437 -0.3531
 6523SOL    HW128537   1.710   0.367   5.927  1.2443 -1.8028 -0.0932
 6523SOL    HW228538   1.720   0.255   5.827  0.4731  0.3980 -2.7595
 6524SOL     OW28539   5.449   9.727   7.278  0.0949 -0.0259  0.2363
 6524SOL    HW128540   5.435   9.803   7.336  1.1255  1.6544 -1.5909
 6524SOL    HW228541   5.434   9.651   7.335 -1.6627  1.5012  1.9966
 6525SOL     OW28542   9.599   7.339   2.637 -0.2910  0.0155  0.2641
 6525SOL    HW128543   9.622   7.340   2.544 -1.2427 -1.2172 -0.0115
 6525SOL    HW228544   9.675   7.377   2.681  0.1116  0.7729 -1.0218
 6526SOL     OW28545   7.335   3.557   6.797 -0.5360 -0.1540 -0.4390
 6526SOL    HW128546   7.298   3.586   6.713 -1.5896  0.1744  0.1182
 6526SOL    HW228547   7.344   3.638   6.848  0.4896 -0.3002 -0.3691
 6527SOL     OW28548   5.332   2.349   0.592  0.8518 -0.7259  0.1592
 6527SOL    HW128549   5.328   2.445   0.592 -0.5022 -0.7585 -0.4965
 6527SOL    HW228550   5.240   2.321   0.595  1.2421 -2.0146  0.9487
 6528SOL     OW28551  10.474   7.091  10.857  0.0311  0.3318  0.1404
 6528SOL    HW128552  10.547   7.150  10.873 -0.5246  1.1921 -0.3991
 6528SOL    HW228553  10.501   7.008  10.896  1.1229  0.7413  0.2926
 6529SOL     OW28554   7.526   8.469   4.313 -0.1001  0.5905  0.0023
 6529SOL    HW128555   7.587   8.469   4.239 -1.0042  0.3919 -0.7586
 6529SOL    HW228556   7.582   8.465   4.390  0.9171  2.1710 -0.6184
 6530SOL     OW28557   5.692   9.734  11.922  0.3603 -0.2875 -0.2064
 6530SOL    HW128558   5.695   9.648  11.880 -1.0532 -0.7755  0.6487
 6530SOL    HW228559   5.704   9.716  12.015 -1.4485  0.2772  0.1597
 6531SOL     OW28560   6.278   1.027   1.776  0.1326 -0.5791 -0.1056
 6531SOL    HW128561   6.205   0.972   1.747  1.0686 -1.6768 -0.4116
 6531SOL    HW228562   6.235   1.099   1.824 -1.1240 -1.4512  0.1389
 6532SOL     OW28563   3.660   1.367  11.409 -0.0277  0.1690 -0.2707
 6532SOL    HW128564   3.595   1.381  11.478  0.0199 -2.0118  0.2957
 6532SOL    HW228565   3.609   1.364  11.328 -0.4541 -0.1417  0.0063
 6533SOL     OW28566   2.136  10.313  11.842 -0.0722  0.0280 -0.2602
 6533SOL    HW128567   2.194  10.262  11.897 -0.2549 -0.5952 -0.6364
 6533SOL    HW228568   2.093  10.374  11.902  1.3594  0.8805 -0.0580
 6534SOL     OW28569   3.866   6.859   2.827 -0.5016 -0.1762  0.2038
 6534SOL    HW128570   3.934   6.885   2.889 -0.2156  1.2239 -0.6478
 6534SOL    HW228571   3.861   6.931   2.765 -0.4133 -1.7488 -1.7350
 6535SOL     OW28572  12.244   0.221   9.948 -0.0227 -0.1507 -0.2289
 6535SOL    HW128573  12.198   0.140   9.928  0.8460 -0.3187 -1.7244
 6535SOL    HW228574  12.315   0.225   9.883  3.7791 -1.2156  3.4023
 6536SOL     OW28575  11.252   8.030   5.242 -0.0056 -0.6218 -0.4948
 6536SOL    HW128576  11.213   7.968   5.181 -0.2880 -0.6469 -0.2901
 6536SOL    HW228577  11.306   8.087   5.188 -0.7517 -0.2448 -0.8508
 6537SOL     OW28578   7.699   7.196   8.327  0.6021 -0.2847  0.3736
 6537SOL    HW128579   7.638   7.252   8.377  1.5378 -0.0653  1.3067
 6537SOL    HW228580   7.684   7.108   8.362  0.0045 -0.4363 -0.2315
 6538SOL     OW28581   6.024   8.336   8.948  0.3422 -0.2629  0.5241
 6538SOL    HW128582   6.052   8.347   9.039  1.5448 -0.3402  0.1822
 6538SOL    HW228583   5.998   8.424   8.921 -0.2477 -0.2807  1.0058
 6539SOL     OW28584   6.745   7.584   6.893  0.5130  0.0351  0.0433
 6539SOL    HW128585   6.774   7.506   6.940 -0.8717 -2.2707 -2.6037
 6539SOL    HW228586   6.659   7.604   6.930 -0.0747 -1.0803 -0.6636
 6540SOL     OW28587   3.009  10.743   5.493 -0.1282 -0.3456  0.2591
 6540SOL    HW128588   2.993  10.664   5.545  2.0183 -1.0327 -0.0086
 6540SOL    HW228589   3.101  10.765   5.511 -0.0259  0.7675 -1.3939
 6541SOL     OW28590  11.116  12.172   4.999 -0.5383  0.3014 -0.4247
 6541SOL    HW128591  11.024  12.147   5.005 -0.6423  1.0237  1.4030
 6541SOL    HW228592  11.122  12.256   5.043  1.0000  0.2826 -0.5377
 6542SOL     OW28593   7.066   1.174   5.563  0.0976 -0.5760 -0.0247
 6542SOL    HW128594   7.088   1.082   5.547 -1.3164 -0.7457 -1.1240
 6542SOL    HW228595   7.119   1.223   5.500  1.4001 -0.5445  1.0440
 6543SOL     OW28596   6.222  10.038   6.549 -0.0217  0.1677 -0.4461
 6543SOL    HW128597   6.313  10.067   6.557 -0.8385  2.8058  0.5571
 6543SOL    HW228598   6.201  10.001   6.634 -0.1053  0.3406 -0.3898
 6544SOL     OW28599   0.196  10.032  11.034  0.3314 -0.1348  1.1816
 6544SOL    HW128600   0.271  10.063  11.085 -0.1968  2.9505  0.3197
 6544SOL    HW228601   0.217  10.057  10.944 -1.3566  0.1005  0.8175
 6545SOL     OW28602   0.226   4.207   5.213  0.0536 -0.3537 -0.3636
 6545SOL    HW128603   0.157   4.204   5.147 -0.9708 -2.3654  0.7077
 6545SOL    HW228604   0.195   4.272   5.277  0.4963  0.7337 -1.2127
 6546SOL     OW28605  11.365   5.979  11.318  0.1004 -0.4078  0.2197
 6546SOL    HW128606  11.360   6.074  11.324 -1.8059 -0.3250 -1.4701
 6546SOL    HW228607  11.282   5.948  11.356 -0.4213 -1.1949 -1.4520
 6547SOL     OW28608   1.178  11.634   7.760  0.1519 -0.1259 -0.2496
 6547SOL    HW128609   1.168  11.729   7.768 -0.2625 -0.1568 -0.3762
 6547SOL    HW228610   1.147  11.614   7.672  0.8100 -0.3049 -0.4472
 6548SOL     OW28611   0.949   5.656   2.132  0.4602  0.2019  0.1356
 6548SOL    HW128612   0.916   5.629   2.047 -0.7280  0.6076  0.4475
 6548SOL    HW228613   0.881   5.712   2.168  1.5670  1.2104  0.7528
 6549SOL     OW28614   8.873   9.223   8.641  0.1462  0.0297 -0.1063
 6549SOL    HW128615   8.941   9.156   8.632  0.6657  0.4008  0.8526
 6549SOL    HW228616   8.896   9.290   8.578 -0.8859 -1.0769 -1.7244
 6550SOL     OW28617   5.113  11.586   9.351 -0.1589  0.1559 -0.0759
 6550SOL    HW128618   5.086  11.674   9.378  0.3233  0.1648  0.4184
 6550SOL    HW228619   5.034  11.533   9.358 -0.4256  0.5273 -0.2570
 6551SOL     OW28620   3.001   9.838   9.267  0.0051  0.0053  0.2393
 6551SOL    HW128621   3.091   9.808   9.255  0.2124  1.1623 -1.2600
 6551SOL    HW228622   3.009   9.918   9.319  0.0050  1.0067 -1.2571
 6552SOL     OW28623   9.260   7.494   4.782  0.2740  0.3703  0.3534
 6552SOL    HW128624   9.250   7.415   4.834 -0.1176  1.0816  1.3943
 6552SOL    HW228625   9.217   7.475   4.699 -1.3479  0.0782  1.2256
 6553SOL     OW28626   0.421   2.805  10.453  0.2444  0.2665 -0.0966
 6553SOL    HW128627   0.364   2.793  10.377 -1.5769 -1.5401  1.4079
 6553SOL    HW228628   0.470   2.885  10.435  0.4210 -0.4592 -3.4427
 6554SOL     OW28629   4.246   5.312   9.445 -0.0953 -0.2824 -0.5135
 6554SOL    HW128630   4.250   5.337   9.537  0.7760  0.2090 -0.6758
 6554SOL    HW228631   4.210   5.389   9.400  2.4281  0.7054 -0.9904
 6555SOL     OW28632   8.425   2.392   0.063 -0.0612 -0.0481 -0.1741
 6555SOL    HW128633   8.364   2.461   0.035  0.0153 -0.5984 -1.7855
 6555SOL    HW228634   8.378   2.345   0.132 -0.1001  1.6091  0.9830
 6556SOL     OW28635   3.887   7.342   7.313 -0.2807 -0.1141  0.1101
 6556SOL    HW128636   3.896   7.343   7.218 -0.3262 -2.8073  0.0108
 6556SOL    HW228637   3.820   7.275   7.330 -0.7832  0.8023  2.0167
 6557SOL     OW28638   0.470   5.974   6.312  0.6389  0.1884  0.0879
 6557SOL    HW128639   0.528   5.905   6.345 -1.6552 -1.5655  0.7874
 6557SOL    HW228640   0.417   5.999   6.388 -0.6485  0.4740 -0.8710
 6558SOL     OW28641   5.860   4.291   4.611 -0.1130  0.0331  0.6267
 6558SOL    HW128642   5.820   4.376   4.627  0.9280  1.2151 -2.3985
 6558SOL    HW228643   5.792   4.239   4.569  0.4944  0.9959 -1.6817
 6559SOL     OW28644   8.622   7.295   1.131  0.1302 -0.1030 -0.0653
 6559SOL    HW128645   8.626   7.201   1.146  1.3437 -0.4122 -2.0828
 6559SOL    HW228646   8.624   7.305   1.036  1.8836  2.0219  0.1241
 6560SOL     OW28647   3.686   8.625   8.187  0.2518 -0.2087 -0.0790
 6560SOL    HW128648   3.634   8.551   8.219 -0.7198  0.6568  0.4060
 6560SOL    HW228649   3.632   8.702   8.204  0.7564  0.5268 -1.6004
 6561SOL     OW28650   2.955   0.960   3.823  0.0731  0.0430  0.7188
 6561SOL    HW128651   3.042   0.943   3.787 -0.5160 -2.3101  0.1937
 6561SOL    HW228652   2.949   0.903   3.899 -0.8256  0.5563  1.0502
 6562SOL     OW28653   3.108   0.092   7.335 -0.1493  0.3724 -0.6402
 6562SOL    HW128654   3.080   0.028   7.401 -0.1515  1.0292  0.0101
 6562SOL    HW228655   3.199   0.068   7.316 -0.4041 -0.3272 -1.0246
 6563SOL     OW28656   5.203  12.294  10.192 -0.6248 -0.5517 -0.4132
 6563SOL    HW128657   5.297  12.280  10.179 -0.2261  1.1397  0.2682
 6563SOL    HW228658   5.183  12.248  10.274  0.3153  1.3978  1.0087
 6564SOL     OW28659   3.733   6.426   6.906 -0.1377 -0.1982  0.6864
 6564SOL    HW128660   3.764   6.513   6.881  1.1224 -1.2481 -1.6460
 6564SOL    HW228661   3.688   6.393   6.828 -1.5264 -1.2609  1.8820
 6565SOL     OW28662   4.699   0.969   2.632 -0.2374  0.2502  0.1862
 6565SOL    HW128663   4.606   0.949   2.643 -0.1735 -2.2426 -2.5503
 6565SOL    HW228664   4.743   0.899   2.680  0.1281 -0.5187 -1.2179
 6566SOL     OW28665  10.439  10.652   1.483  0.3989 -0.5354  0.4173
 6566SOL    HW128666  10.456  10.562   1.455 -0.7147 -0.1609 -1.6610
 6566SOL    HW228667  10.363  10.645   1.541  0.3832 -0.9516  0.3469
 6567SOL     OW28668   6.644   1.733   6.315 -0.0484 -0.3025 -0.4700
 6567SOL    HW128669   6.596   1.812   6.339 -0.0093 -0.0937 -1.0641
 6567SOL    HW228670   6.736   1.759   6.322 -0.0264 -0.4659 -0.1161
 6568SOL     OW28671   9.894   2.497   9.339  0.1519  0.0343  0.0117
 6568SOL    HW128672   9.833   2.570   9.348  0.5670  0.1469  2.4133
 6568SOL    HW228673   9.940   2.514   9.257 -0.0842  2.2176  0.2899
 6569SOL     OW28674   0.323  11.744  10.447  0.2662  0.3961 -0.5210
 6569SOL    HW128675   0.370  11.665  10.419 -1.1222 -0.8731  0.5212
 6569SOL    HW228676   0.281  11.777  10.367  3.5620  2.1364 -1.6945
 6570SOL     OW28677  10.179   4.084   6.158 -0.2352 -0.3901  0.3833
 6570SOL    HW128678  10.110   4.139   6.122  0.4332 -0.1640 -0.5988
 6570SOL    HW228679  10.239   4.070   6.085  0.4679 -1.0449  1.0664
 6571SOL     OW28680   7.251   5.690  10.684  0.2804 -0.0266 -0.6494
 6571SOL    HW128681   7.233   5.754  10.753 -2.2845 -1.5588  0.2185
 6571SOL    HW228682   7.333   5.649  10.711 -0.3766 -0.2012  1.2298
 6572SOL     OW28683   7.931  12.160   5.380  0.9823  0.2196  0.2417
 6572SOL    HW128684   7.896  12.090   5.436  0.3923 -1.3049 -1.8797
 6572SOL    HW228685   8.021  12.171   5.410  0.7723 -0.7276  1.3142
 6573SOL     OW28686   6.041   6.349   0.888 -0.0606 -0.1767  0.2009
 6573SOL    HW128687   6.073   6.430   0.928  0.4011  0.0053 -0.5210
 6573SOL    HW228688   6.112   6.322   0.830 -0.1059 -1.2335  0.6175
 6574SOL     OW28689   7.853  11.745   2.949 -0.0089  0.0213  0.0695
 6574SOL    HW128690   7.943  11.713   2.949 -0.2287 -0.6956  1.7939
 6574SOL    HW228691   7.804  11.679   2.900  0.3424  0.2914 -0.6613
 6575SOL     OW28692   9.750   2.247   9.299  0.3414  0.3183  0.0959
 6575SOL    HW128693   9.775   2.338   9.314  3.0253 -0.4859  1.0786
 6575SOL    HW228694   9.816   2.214   9.237 -1.5182 -0.5916 -1.5223
 6576SOL     OW28695   3.353   2.783   9.098  0.1656  0.3574  0.3938
 6576SOL    HW128696   3.286   2.716   9.088  0.3428  0.2978 -0.4669
 6576SOL    HW228697   3.436   2.734   9.097  0.2331  0.3856  1.8453
 6577SOL     OW28698  12.557   3.291   1.851  0.2175  0.4027 -0.2712
 6577SOL    HW128699  12.623   3.235   1.894  0.4580 -0.3306 -1.5626
 6577SOL    HW228700  12.479   3.236   1.846 -0.5029  1.2383  1.1607
 6578SOL     OW28701   9.182   1.416   2.405  0.1605  0.0960 -0.2128
 6578SOL    HW128702   9.131   1.485   2.448  0.2782 -0.6677  1.2328
 6578SOL    HW228703   9.172   1.433   2.311  0.3640  2.1885  0.0991
 6579SOL     OW28704   9.655   5.611   1.726  0.3621  0.1856  0.5475
 6579SOL    HW128705   9.627   5.654   1.645 -0.9266 -0.5762  0.5545
 6579SOL    HW228706   9.694   5.681   1.779 -2.2632  1.5488  0.8432
 6580SOL     OW28707  12.496   1.823   2.356  0.7484  0.7715 -0.1619
 6580SOL    HW128708  12.417   1.823   2.411  0.6014  1.3283 -0.3704
 6580SOL    HW228709  12.558   1.768   2.404  0.8083  1.6925  0.8353
 6581SOL     OW28710   7.825   2.991   1.811  0.7456  0.2983  0.4889
 6581SOL    HW128711   7.827   2.981   1.716 -1.2255 -2.0264  0.5868
 6581SOL    HW228712   7.877   2.916   1.843 -1.2405 -0.8446  1.2114
 6582SOL     OW28713   7.074   5.325   4.054  0.1524 -0.1014 -0.1625
 6582SOL    HW128714   6.984   5.298   4.073 -0.0250  1.6575  2.0137
 6582SOL    HW228715   7.065   5.412   4.015  0.8997 -0.4198 -1.0799
 6583SOL     OW28716   4.297   2.956   5.299 -0.4241 -0.4520 -0.3696
 6583SOL    HW128717   4.276   2.929   5.210 -0.5003 -1.9401  0.0699
 6583SOL    HW228718   4.391   2.972   5.298 -0.3030 -1.1292 -0.5695
 6584SOL     OW28719   8.325   3.969  10.805  0.2550  0.3451 -0.2170
 6584SOL    HW128720   8.252   3.978  10.867  0.5954  1.7699  0.0113
 6584SOL    HW228721   8.402   3.958  10.860  0.4013  0.3305 -0.4241
 6585SOL     OW28722   2.309   1.883   2.041  0.1153  0.1559  0.2764
 6585SOL    HW128723   2.263   1.966   2.048  1.1751  0.6824  1.2461
 6585SOL    HW228724   2.333   1.876   1.949 -0.6861  0.5227  0.0333
 6586SOL     OW28725   8.376  11.599   9.821  0.1344  0.3989  0.6672
 6586SOL    HW128726   8.400  11.566   9.734 -1.5904 -1.6831  0.9119
 6586SOL    HW228727   8.365  11.693   9.808  0.0947  0.1589 -1.3379
 6587SOL     OW28728   7.850   0.407   9.316 -0.3293  0.2345 -0.4632
 6587SOL    HW128729   7.766   0.454   9.318  0.1730  1.2048 -1.3359
 6587SOL    HW228730   7.909   0.465   9.268  0.8540 -0.4398  0.1314
 6588SOL     OW28731   0.261   8.224   9.342  0.6191  0.5727  0.6453
 6588SOL    HW128732   0.196   8.294   9.329  0.1807  0.4324  1.9789
 6588SOL    HW228733   0.296   8.208   9.254 -0.5987  1.1847  0.0202
 6589SOL     OW28734   4.511   2.844   7.369  0.3478  0.4823  0.1983
 6589SOL    HW128735   4.574   2.773   7.361 -1.1956 -0.7570 -1.5885
 6589SOL    HW228736   4.444   2.810   7.430  0.3509  0.9858  0.4879
 6590SOL     OW28737   8.172   6.811  11.166  0.4724 -0.3704  0.1895
 6590SOL    HW128738   8.170   6.907  11.162  0.1505 -0.3954 -0.5989
 6590SOL    HW228739   8.167   6.790  11.259  1.5575  0.3944  0.4352
 6591SOL     OW28740  12.235   7.869   9.932  0.0692  0.5841  0.3260
 6591SOL    HW128741  12.284   7.794   9.968  1.9631  1.3365 -0.5565
 6591SOL    HW228742  12.184   7.832   9.860  0.7530  0.0816  0.0887
 6592SOL     OW28743   1.616   1.321   6.626  0.7136 -0.1020 -0.2859
 6592SOL    HW128744   1.689   1.377   6.600  0.0183  0.2338 -1.5757
 6592SOL    HW228745   1.549   1.336   6.560 -1.2581  0.9685  1.8117
 6593SOL     OW28746   3.017  11.479   8.769  0.8389 -0.2843  0.3471
 6593SOL    HW128747   2.965  11.402   8.748  0.8809 -0.9024  2.3030
 6593SOL    HW228748   3.060  11.502   8.687  0.7388 -2.2717 -0.3206
 6594SOL     OW28749   8.935   2.070   8.232 -0.0778  0.0195 -0.0535
 6594SOL    HW128750   8.970   2.158   8.243 -0.7594  0.2041  0.7486
 6594SOL    HW228751   8.841   2.083   8.220 -0.5596 -0.6961  2.4372
 6595SOL     OW28752   9.212   6.521  12.372 -0.7450 -0.7200  0.5359
 6595SOL    HW128753   9.206   6.613  12.399  1.9814  0.7054 -2.9700
 6595SOL    HW228754   9.230   6.474  12.454  0.6112  2.2425  2.1234
 6596SOL     OW28755  11.084  12.191   9.835 -0.0918 -0.5796 -0.2561
 6596SOL    HW128756  11.064  12.099   9.819  0.3634 -1.2161  2.3579
 6596SOL    HW228757  11.004  12.238   9.808 -0.6845 -1.8260 -0.7285
 6597SOL     OW28758   3.905   5.685   9.548  0.0408  0.2151 -0.1236
 6597SOL    HW128759   3.826   5.716   9.593  0.3721  0.8706  0.0259
 6597SOL    HW228760   3.967   5.666   9.618  0.0247 -0.2711 -0.2405
 6598SOL     OW28761   5.520  10.630   1.889  0.4470  0.7362  0.0138
 6598SOL    HW128762   5.587  10.608   1.823 -0.4396  0.7652 -0.9245
 6598SOL    HW228763   5.440  10.589   1.856 -0.1130  1.1312  0.8583
 6599SOL     OW28764   7.305   2.655   1.936  0.1020  0.0437  0.5867
 6599SOL    HW128765   7.344   2.690   1.855 -1.1973  0.5631  0.1651
 6599SOL    HW228766   7.270   2.732   1.981 -0.2746 -0.3891  1.0448
 6600SOL     OW28767   9.349   0.563   1.211 -0.4527 -0.0274 -0.2999
 6600SOL    HW128768   9.314   0.474   1.199 -0.3991 -0.3759  1.8420
 6600SOL    HW228769   9.441   0.556   1.187  0.3299 -1.3545  2.7258
 6601SOL     OW28770   0.122  10.994   5.822  0.0615  0.5473  0.0747
 6601SOL    HW128771   0.172  11.028   5.748 -1.0503  0.2458 -0.8529
 6601SOL    HW228772   0.097  11.071   5.872 -2.3019  1.2204 -1.9145
 6602SOL     OW28773   0.900  10.153   8.474  1.0946 -0.8127  0.2624
 6602SOL    HW128774   0.883  10.245   8.495 -1.6742 -0.4713 -2.6400
 6602SOL    HW228775   0.951  10.155   8.394  1.2116 -1.7994  0.2964
 6603SOL     OW28776   2.347   6.669   7.575  0.0640 -0.0995  0.0268
 6603SOL    HW128777   2.288   6.668   7.500 -0.7133  1.3138  0.5874
 6603SOL    HW228778   2.290   6.675   7.651  0.8711  3.5568  0.5092
 6604SOL     OW28779  11.841   1.072   5.770  0.1523 -0.6134 -0.3355
 6604SOL    HW128780  11.834   1.142   5.706 -3.1942 -0.1050  0.3896
 6604SOL    HW228781  11.776   1.007   5.742 -2.8502  0.4402  3.2096
 6605SOL     OW28782   4.801  12.379   5.674  1.0916  0.1326  1.0388
 6605SOL    HW128783   4.881  12.432   5.673  1.2895 -0.1613 -0.2023
 6605SOL    HW228784   4.731  12.442   5.692  1.4788  0.5871  0.9668
 6606SOL     OW28785   1.897   2.323  10.557 -0.5323 -0.1776  0.4066
 6606SOL    HW128786   1.859   2.342  10.643 -0.6260  1.1527  0.0755
 6606SOL    HW228787   1.933   2.234  10.567 -1.4298 -0.4413  1.5010
 6607SOL     OW28788   4.468   4.512   7.907 -0.1204  0.5371  0.0364
 6607SOL    HW128789   4.437   4.463   7.831 -0.3575 -1.2729  1.2586
 6607SOL    HW228790   4.392   4.516   7.966  0.0415  1.9680  0.1867
 6608SOL     OW28791   8.287   0.554   4.976  0.1034  0.2132  0.0181
 6608SOL    HW128792   8.215   0.517   4.925  0.0103 -1.8628  1.5383
 6608SOL    HW228793   8.244   0.606   5.044  0.1138  0.3714 -0.0951
 6609SOL     OW28794   3.622   8.859   1.473 -0.4229 -0.0154  0.2533
 6609SOL    HW128795   3.602   8.879   1.382 -1.0438 -1.9181 -0.0690
 6609SOL    HW228796   3.575   8.927   1.523  0.3379  1.3462 -0.8259
 6610SOL     OW28797   7.358   8.212  10.962  0.4246  0.2791 -0.4028
 6610SOL    HW128798   7.301   8.135  10.967  0.5683  0.2042  0.1894
 6610SOL    HW228799   7.395   8.209  10.874 -0.6042  0.4187 -0.8467
 6611SOL     OW28800   9.494   5.701   1.546  0.2786  0.4081  0.0771
 6611SOL    HW128801   9.473   5.683   1.454 -0.0830 -0.6783  0.3669
 6611SOL    HW228802   9.433   5.648   1.596  1.4172 -0.1194  0.9508
 6612SOL     OW28803   8.338  11.257  11.354 -0.1150  0.0893  0.3443
 6612SOL    HW128804   8.355  11.260  11.259  0.1368  1.6529  0.4200
 6612SOL    HW228805   8.396  11.188  11.386 -0.4269 -0.6845 -0.6706
 6613SOL     OW28806  11.978  11.214   2.284  0.1764 -0.1561  0.0323
 6613SOL    HW128807  11.904  11.164   2.318  1.4479 -0.9832  1.7380
 6613SOL    HW228808  12.052  11.185   2.337  1.7944  0.4091 -1.8266
 6614SOL     OW28809   9.621   1.271   0.362  0.4455 -0.4773  0.3123
 6614SOL    HW128810   9.631   1.182   0.395 -1.6761 -0.4853  1.1155
 6614SOL    HW228811   9.670   1.325   0.424  0.2973 -0.9282  0.8339
 6615SOL     OW28812  10.964   1.176   2.665 -0.1282 -0.5811 -0.3075
 6615SOL    HW128813  11.002   1.244   2.608  0.5138 -1.6586 -1.2060
 6615SOL    HW228814  10.989   1.094   2.623 -1.6149 -1.3747  0.3022
 6616SOL     OW28815   0.180   8.437   3.483 -0.2130 -0.2659  0.6721
 6616SOL    HW128816   0.231   8.401   3.410 -0.9818 -1.2149  0.5854
 6616SOL    HW228817   0.239   8.501   3.523 -0.0674  0.9316 -1.2867
 6617SOL     OW28818   9.243   0.255   6.228  0.0570  0.1275 -0.3942
 6617SOL    HW128819   9.227   0.345   6.201  1.3392  0.2643 -0.7421
 6617SOL    HW228820   9.262   0.208   6.147 -1.6362 -0.7232 -0.3533
 6618SOL     OW28821   5.562   4.046   2.009 -0.0878  0.6365  0.4258
 6618SOL    HW128822   5.551   4.047   2.104  0.8589  3.4737  0.5764
 6618SOL    HW228823   5.656   4.061   1.995  0.3759 -2.5977 -1.0134
 6619SOL     OW28824   5.250   3.372   8.419 -0.2113 -0.4735 -0.2895
 6619SOL    HW128825   5.302   3.380   8.340  1.3582 -0.0741  0.7357
 6619SOL    HW228826   5.297   3.423   8.485 -1.4510 -0.8010  0.9096
 6620SOL     OW28827  11.559   4.693  11.830  0.2680  0.0575 -0.3479
 6620SOL    HW128828  11.485   4.726  11.880  0.5709 -0.2586  0.3211
 6620SOL    HW228829  11.593   4.620  11.883  0.4814 -0.3994 -1.0977
 6621SOL     OW28830  11.132   4.540   5.147 -0.0539  0.4818 -0.0321
 6621SOL    HW128831  11.095   4.558   5.234 -2.2285  0.5999 -0.9083
 6621SOL    HW228832  11.056   4.538   5.089  1.3956  1.0102 -2.0592
 6622SOL     OW28833   7.214   5.818   7.166 -0.2996  0.4657 -0.0090
 6622SOL    HW128834   7.278   5.833   7.096  0.8564  2.3600  1.3487
 6622SOL    HW228835   7.247   5.740   7.212  0.2297  0.5888 -0.1748
 6623SOL     OW28836   9.684   9.390   4.713  0.2092  0.4492 -0.1599
 6623SOL    HW128837   9.605   9.442   4.699  0.2574  0.2163 -1.4856
 6623SOL    HW228838   9.652   9.301   4.729  0.1966  0.1977 -1.4783
 6624SOL     OW28839   0.765  10.060   7.589 -0.1038 -0.5156 -0.1497
 6624SOL    HW128840   0.750  10.092   7.500 -1.2231  1.3253  0.6316
 6624SOL    HW228841   0.819  10.128   7.629 -1.3562 -0.2514  1.1615
 6625SOL     OW28842   3.679   1.599   0.613 -0.1382  0.2034  0.2623
 6625SOL    HW128843   3.732   1.624   0.537 -1.1161  0.5630 -0.3224
 6625SOL    HW228844   3.683   1.504   0.615 -0.4237  0.1659 -0.4900
 6626SOL     OW28845  11.561   4.707   9.335 -0.5350 -0.0024 -0.5000
 6626SOL    HW128846  11.525   4.667   9.414 -3.0852  3.8849  0.5703
 6626SOL    HW228847  11.647   4.741   9.362  0.9777 -3.1001 -1.0220
 6627SOL     OW28848   2.959   5.202   4.191 -0.5240 -0.5905 -0.0275
 6627SOL    HW128849   3.029   5.161   4.140 -0.8216  0.6285 -1.4711
 6627SOL    HW228850   2.909   5.128   4.225 -0.6459 -1.4822 -1.9968
 6628SOL     OW28851   5.211   0.896  10.329  0.4365 -0.6628  0.1831
 6628SOL    HW128852   5.123   0.932  10.345  0.9515  0.0806  1.5281
 6628SOL    HW228853   5.197   0.827  10.264 -0.7242  1.2915 -1.7404
 6629SOL     OW28854   4.981   3.153   8.250 -0.1402  0.2195  0.0626
 6629SOL    HW128855   4.997   3.203   8.330 -1.8327  0.6385  0.1591
 6629SOL    HW228856   4.895   3.114   8.263  0.5631 -1.6449 -0.5828
 6630SOL     OW28857   2.485   8.210   5.208  0.4878 -0.4287 -0.5540
 6630SOL    HW128858   2.463   8.294   5.169  0.6045 -0.0997  0.0720
 6630SOL    HW228859   2.403   8.162   5.210  0.3139 -0.1294 -0.4430
 6631SOL     OW28860  12.461   8.884  10.694  0.5530  0.6884 -0.6014
 6631SOL    HW128861  12.450   8.829  10.617 -1.3832  0.7611 -0.4232
 6631SOL    HW228862  12.427   8.831  10.766  0.5440  1.3611 -0.1066
 6632SOL     OW28863   3.195   5.459  11.077 -0.1594  0.1782 -0.0376
 6632SOL    HW128864   3.259   5.399  11.114  1.4166  0.7148 -1.7074
 6632SOL    HW228865   3.181   5.427  10.988 -1.5664  0.5902  0.0146
 6633SOL     OW28866   8.492   0.572   8.439 -0.3966 -0.3235 -0.6945
 6633SOL    HW128867   8.482   0.607   8.351 -1.4095 -0.3452 -0.6069
 6633SOL    HW228868   8.585   0.551   8.447 -0.3377 -0.5339 -1.8279
 6634SOL     OW28869   5.008   7.643   0.611 -0.0673  0.3837  0.0710
 6634SOL    HW128870   4.972   7.685   0.533 -0.4119 -0.0032  0.0219
 6634SOL    HW228871   4.953   7.675   0.683  0.0229  0.4568  0.1071
 6635SOL     OW28872   3.679   6.536   1.636 -0.1661  0.0609  0.2249
 6635SOL    HW128873   3.627   6.457   1.646  1.8601 -1.8620 -2.6782
 6635SOL    HW228874   3.729   6.543   1.718 -0.6872 -1.4239  0.6892
 6636SOL     OW28875  10.989  10.331  10.953  0.0020  0.1986  0.0632
 6636SOL    HW128876  11.053  10.284  11.007 -1.3217 -0.0062  1.5534
 6636SOL    HW228877  11.041  10.391  10.901  1.4498 -0.3104  0.8518
 6637SOL     OW28878   1.690   7.717   4.806 -1.1860  0.3650 -0.7631
 6637SOL    HW128879   1.603   7.755   4.820 -1.1127 -0.0842  1.2667
 6637SOL    HW228880   1.707   7.667   4.886  0.1146 -1.2038 -1.9388
 6638SOL     OW28881   9.432   4.430  10.552  0.7222  0.0357  0.1771
 6638SOL    HW128882   9.481   4.481  10.616  0.8469  0.6551 -0.3987
 6638SOL    HW228883   9.360   4.488  10.525 -0.8248 -1.1356  1.5932
 6639SOL     OW28884   7.448  11.655   0.249  0.5765  0.9419  0.4641
 6639SOL    HW128885   7.409  11.701   0.322 -0.8306  0.1789  0.2247
 6639SOL    HW228886   7.382  11.658   0.180  1.1717  0.1288 -0.1692
 6640SOL     OW28887  10.060   2.204  10.662 -0.5553 -0.1541  0.2507
 6640SOL    HW128888  10.146   2.203  10.705 -1.0117  0.9857  1.2382
 6640SOL    HW228889   9.998   2.216  10.733 -1.4941 -0.3350 -0.5264
 6641SOL     OW28890  10.431   4.912   9.896 -0.6558 -0.0093  0.2939
 6641SOL    HW128891  10.392   4.829   9.867 -0.6513 -0.3909  1.3555
 6641SOL    HW228892  10.522   4.890   9.915 -0.0665  0.7248 -1.4898
 6642SOL     OW28893   1.881  11.723  11.341 -0.6848  0.1586  0.2446
 6642SOL    HW128894   1.824  11.664  11.390 -0.9653 -0.8351 -1.2198
 6642SOL    HW228895   1.924  11.775  11.408  1.1256 -3.0383  1.7938
 6643SOL     OW28896   4.946  11.091   8.111  0.4832  0.1258 -0.3159
 6643SOL    HW128897   5.002  11.152   8.064  0.8296  0.1599  0.1317
 6643SOL    HW228898   4.947  11.122   8.202 -0.0409 -0.0314 -0.2543
 6644SOL     OW28899  10.907   3.007   8.026 -0.0635 -0.0072 -0.7357
 6644SOL    HW128900  10.980   2.945   8.033  0.5841  0.7302 -0.8326
 6644SOL    HW228901  10.851   2.969   7.958  0.5313 -0.2899 -1.0813
 6645SOL     OW28902   0.194  11.173   6.035 -0.5847 -0.2807 -0.6848
 6645SOL    HW128903   0.139  11.229   6.090 -0.9449 -0.7493 -0.5662
 6645SOL    HW228904   0.249  11.124   6.097 -1.6074 -1.4583 -0.6843
 6646SOL     OW28905   8.130   9.990   0.258  0.2713  0.5732  0.1498
 6646SOL    HW128906   8.176   9.908   0.239  0.8421  0.8485  0.3213
 6646SOL    HW228907   8.057   9.964   0.314 -0.5325 -0.0386 -1.1629
 6647SOL     OW28908   5.001   8.078   3.649 -0.4729  0.3369  0.5059
 6647SOL    HW128909   4.957   8.163   3.649 -2.3913 -0.5638 -0.8683
 6647SOL    HW228910   5.017   8.059   3.741 -0.7749  1.7955  0.8825
 6648SOL     OW28911   2.819   4.669   4.143  0.1930  0.1759 -0.5373
 6648SOL    HW128912   2.848   4.744   4.092  0.6227 -0.6653 -1.5433
 6648SOL    HW228913   2.836   4.593   4.088 -0.1763 -0.6821  0.4876
 6649SOL     OW28914   7.329   6.023   5.492  0.1949  0.0864  0.4054
 6649SOL    HW128915   7.371   6.005   5.576  0.0684  2.7338  1.1292
 6649SOL    HW228916   7.236   6.030   5.512 -0.0274 -0.7428 -0.2632
 6650SOL     OW28917   4.190  11.501   9.614 -0.0447  0.1610 -0.2547
 6650SOL    HW128918   4.159  11.411   9.609  0.6739 -0.1169  0.1063
 6650SOL    HW228919   4.269  11.503   9.559 -0.1238  0.6021 -0.3599
 6651SOL     OW28920  11.116   3.238   8.066  0.0022 -0.0470 -0.3267
 6651SOL    HW128921  11.205   3.263   8.045 -0.9343  2.5411 -1.6077
 6651SOL    HW228922  11.083   3.198   7.986 -0.7567  1.4577 -0.8046
 6652SOL     OW28923  11.239  12.578   3.652 -0.1562 -0.1559  0.0299
 6652SOL    HW128924  11.332  12.560   3.663  0.0076  0.5242 -0.2217
 6652SOL    HW228925  11.235  12.656   3.597 -0.8543  0.4376  0.8871
 6653SOL     OW28926  10.605   2.878   1.297  0.0688 -0.0954 -0.0544
 6653SOL    HW128927  10.645   2.809   1.350  0.0434 -1.3729 -1.5985
 6653SOL    HW228928  10.511   2.867   1.310  0.0595 -0.4667 -0.4126
 6654SOL     OW28929   6.777   4.286   2.777  0.2281  0.2740 -0.0953
 6654SOL    HW128930   6.853   4.290   2.718  0.7948  1.3681  0.6782
 6654SOL    HW228931   6.814   4.301   2.864 -0.8701  0.7011  0.3087
 6655SOL     OW28932   3.361   0.099  11.309 -0.1938 -0.5620 -0.3664
 6655SOL    HW128933   3.371   0.040  11.234 -1.4941 -2.0084  0.5531
 6655SOL    HW228934   3.304   0.168  11.278  0.2810 -0.4701 -1.0651
 6656SOL     OW28935   5.850   2.072   9.053 -0.1099  0.2420 -0.0873
 6656SOL    HW128936   5.841   1.977   9.059  3.0753 -0.1300  0.8313
 6656SOL    HW228937   5.922   2.086   8.991  0.8289  1.9148  1.2811
 6657SOL     OW28938   1.942   4.547   6.673  0.1257 -0.7351 -0.0820
 6657SOL    HW128939   1.869   4.486   6.681  1.0297 -2.0332 -1.1760
 6657SOL    HW228940   1.921   4.618   6.734 -2.5571 -0.5053 -1.1143
 6658SOL     OW28941   0.825   8.122  12.462  0.3395 -0.1948  0.0949
 6658SOL    HW128942   0.771   8.167  12.527  0.2594  1.7483 -1.2254
 6658SOL    HW228943   0.904   8.176  12.456  0.9368 -1.1008 -0.4683
 6659SOL     OW28944   3.735   9.021   9.827  0.0976  0.6365 -0.8481
 6659SOL    HW128945   3.763   8.968   9.902  0.5763  2.0816  0.0150
 6659SOL    HW228946   3.640   9.024   9.834  0.2285  2.1548  0.6987
 6660SOL     OW28947   5.441   7.842  12.579  0.3618  0.3441  0.2737
 6660SOL    HW128948   5.420   7.910  12.643  3.6737  1.4270  0.4006
 6660SOL    HW228949   5.374   7.852  12.511  0.1304  3.0572  0.7825
 6661SOL     OW28950   7.687   1.081   2.896 -0.9191  0.0928 -0.2663
 6661SOL    HW128951   7.648   1.003   2.933 -0.0761  0.2735  1.0948
 6661SOL    HW228952   7.647   1.154   2.944  1.2453  0.2662  1.4766
 6662SOL     OW28953   7.531   6.725   6.889 -0.0436 -0.4181 -0.1615
 6662SOL    HW128954   7.603   6.727   6.951 -0.6846 -1.1044  0.6301
 6662SOL    HW228955   7.567   6.763   6.809  0.8421  0.3362  0.5729
 6663SOL     OW28956   5.746   0.400   8.782  0.2602  0.4242  0.2396
 6663SOL    HW128957   5.651   0.393   8.777  0.3547 -2.3664  0.6659
 6663SOL    HW228958   5.765   0.403   8.876  0.6167  0.9588  0.1574
 6664SOL     OW28959  11.216   1.143   8.492 -0.4696  0.3118  0.1888
 6664SOL    HW128960  11.163   1.190   8.427  0.6003  2.0821  0.5396
 6664SOL    HW228961  11.183   1.172   8.577  0.4903  0.7921  0.4133
 6665SOL     OW28962  11.924  10.616   2.574  0.5017  0.2370 -0.2526
 6665SOL    HW128963  11.938  10.676   2.501  0.0206  0.5640 -0.0834
 6665SOL    HW228964  11.867  10.665   2.634 -0.6600 -0.7447 -0.5411
 6666SOL     OW28965   5.046   4.646   2.627 -0.4830  0.6902 -0.0613
 6666SOL    HW128966   5.035   4.741   2.630  2.3098  1.0685  1.3203
 6666SOL    HW228967   5.129   4.633   2.580 -0.6494 -1.0418  0.0555
 6667SOL     OW28968   1.874   9.288   5.850 -0.6874  0.4876 -0.8181
 6667SOL    HW128969   1.868   9.370   5.899 -0.7544  0.7684 -1.2933
 6667SOL    HW228970   1.955   9.295   5.800 -0.7236  0.2911 -0.9069
 6668SOL     OW28971  11.201   7.809   0.899  0.1995  0.6048 -0.1333
 6668SOL    HW128972  11.192   7.768   0.813 -0.2565  1.6203 -0.5852
 6668SOL    HW228973  11.230   7.738   0.957 -1.5438 -0.6248 -0.6640
 6669SOL     OW28974   1.089   5.222   3.107 -0.2321  0.0968 -0.0311
 6669SOL    HW128975   1.129   5.200   3.023 -1.8168 -0.2762 -0.7088
 6669SOL    HW228976   0.999   5.247   3.086 -0.8821 -0.7033  1.6306
 6670SOL     OW28977   6.395   4.171  11.597  0.7447  1.0101 -0.1210
 6670SOL    HW128978   6.482   4.132  11.594 -0.7140 -2.9937  2.4556
 6670SOL    HW228979   6.380   4.189  11.690 -1.6736  0.1889 -0.2819
 6671SOL     OW28980   5.292   9.209   4.313 -0.2453 -0.1019  0.1428
 6671SOL    HW128981   5.257   9.166   4.391 -2.0156 -0.5784 -0.8757
 6671SOL    HW228982   5.300   9.139   4.249  0.0901  0.4997 -0.4824
 6672SOL     OW28983   7.148   0.671  11.535  1.0573 -0.4524  0.1348
 6672SOL    HW128984   7.208   0.722  11.590  0.1211  0.8489  0.0206
 6672SOL    HW228985   7.152   0.714  11.449 -1.8000  1.2942  0.7360
 6673SOL     OW28986   0.299   1.183   7.069  0.4719  0.0414  0.3100
 6673SOL    HW128987   0.277   1.276   7.071  0.6697  0.1163 -0.5612
 6673SOL    HW228988   0.387   1.178   7.106  0.5482  0.2245  0.1486
 6674SOL     OW28989   7.192   6.701   5.741 -0.0303 -0.4449  0.9353
 6674SOL    HW128990   7.174   6.611   5.765 -2.1989 -0.5283 -0.6948
 6674SOL    HW228991   7.136   6.717   5.665  3.1167  1.1192 -1.2256
 6675SOL     OW28992  12.404   9.309   0.556  0.0610  0.9796  0.0030
 6675SOL    HW128993  12.404   9.260   0.639 -2.0296  0.8834 -0.0038
 6675SOL    HW228994  12.354   9.254   0.496 -0.8187  2.3158 -0.5135
 6676SOL     OW28995   2.198   3.813  12.555  0.1993  0.2590  0.1328
 6676SOL    HW128996   2.106   3.831  12.537 -0.3271 -1.5373  0.7640
 6676SOL    HW228997   2.244   3.848  12.479 -0.9904  1.1811 -0.2016
 6677SOL     OW28998   1.562   9.316   6.375  0.4087 -0.7335  0.0001
 6677SOL    HW128999   1.554   9.388   6.438 -1.2872  1.0548 -2.0835
 6677SOL    HW229000   1.644   9.334   6.328  0.9334 -1.2454  0.7057
 6678SOL     OW29001  12.084   6.458   1.100  0.2438  0.0584  0.1563
 6678SOL    HW129002  12.044   6.464   1.013  0.9525  0.1074 -0.1762
 6678SOL    HW229003  12.178   6.446   1.082  0.7305  2.2353  0.8842
 6679SOL     OW29004   1.983   1.451   4.925 -0.2015 -0.3978  0.2008
 6679SOL    HW129005   1.940   1.404   4.854 -1.5251  0.6486  0.2522
 6679SOL    HW229006   1.913   1.502   4.965  0.3535 -1.4945  2.7454
 6680SOL     OW29007   6.768   9.959  11.755 -0.2117 -0.0960 -0.0995
 6680SOL    HW129008   6.767   9.985  11.847 -0.0473 -1.2296  0.2314
 6680SOL    HW229009   6.856   9.979  11.725  0.0579 -0.6911  0.2834
 6681SOL     OW29010   9.189   9.085   2.647 -0.8172 -0.3561  0.5855
 6681SOL    HW129011   9.119   9.147   2.667 -1.5268 -0.9033 -0.1282
 6681SOL    HW229012   9.182   9.070   2.553 -0.6918 -1.5608  0.7539
 6682SOL     OW29013   2.567   9.005   0.053 -0.0477  0.2189  0.3591
 6682SOL    HW129014   2.611   9.045   0.128  2.6626 -1.3436 -0.2587
 6682SOL    HW229015   2.531   9.079   0.005 -0.5228  1.3731  2.3652
 6683SOL     OW29016   4.805   1.252   2.622 -0.1690 -0.1523 -0.9528
 6683SOL    HW129017   4.750   1.316   2.667  2.1226 -0.1234  2.1761
 6683SOL    HW229018   4.762   1.168   2.638 -0.7749  0.1317 -1.0627
 6684SOL     OW29019   6.057  10.729   2.231 -0.0693  0.1866 -0.2950
 6684SOL    HW129020   5.986  10.762   2.286  0.4751 -0.3499  0.7569
 6684SOL    HW229021   6.014  10.700   2.150 -0.9930  0.1626  0.1971
 6685SOL     OW29022  10.324   1.345   2.747  0.7417 -0.2291  0.2544
 6685SOL    HW129023  10.241   1.392   2.747  0.4230 -0.7077 -1.3075
 6685SOL    HW229024  10.348   1.339   2.654  1.2378 -2.3005  0.4678
 6686SOL     OW29025  11.471   5.003   7.463  0.7421 -0.3681  0.1086
 6686SOL    HW129026  11.550   4.959   7.431  1.2558  0.2878  0.4401
 6686SOL    HW229027  11.448   5.066   7.395  0.5817 -0.4655  0.0722
 6687SOL     OW29028   7.433   5.311   3.319 -0.1781 -0.2519 -0.2752
 6687SOL    HW129029   7.428   5.307   3.223 -1.0096 -1.1584 -0.2115
 6687SOL    HW229030   7.420   5.403   3.340  0.1727 -0.0179 -1.0421
 6688SOL     OW29031   9.475   3.192   5.432  0.2709 -0.1250 -0.0959
 6688SOL    HW129032   9.487   3.213   5.524  1.2588 -0.0189 -0.2399
 6688SOL    HW229033   9.399   3.243   5.405 -1.9498 -2.4092  1.3805
 6689SOL     OW29034   0.749   6.660   1.096  0.0223 -0.0363 -0.2053
 6689SOL    HW129035   0.770   6.725   1.162  0.7294 -0.5767  0.1042
 6689SOL    HW229036   0.670   6.695   1.053  0.1482  0.8101  0.2299
 6690SOL     OW29037   8.828  11.673   4.503  0.1842 -0.1718 -0.3961
 6690SOL    HW129038   8.789  11.729   4.571  1.4380 -0.8447  0.9422
 6690SOL    HW229039   8.776  11.593   4.505 -1.1627  0.6075 -1.8189
 6691SOL     OW29040   1.548   8.366   6.183  0.3214  0.1145 -0.1318
 6691SOL    HW129041   1.497   8.427   6.130 -2.2966  0.9543  3.0000
 6691SOL    HW229042   1.538   8.281   6.140 -2.1615  0.6394 -0.7055
 6692SOL     OW29043   9.079  12.439  12.062 -0.6165  0.6488 -0.2335
 6692SOL    HW129044   9.042  12.517  12.104  3.2785  2.8152 -0.3543
 6692SOL    HW229045   9.068  12.455  11.968 -0.1600  0.8980 -0.2482
 6693SOL     OW29046   8.965   3.847   1.605  0.4798 -0.1350 -0.4495
 6693SOL    HW129047   9.048   3.804   1.625  1.2806  0.1065 -3.0163
 6693SOL    HW229048   8.989   3.936   1.581 -0.5200 -0.0506 -1.1868
 6694SOL     OW29049   3.455   5.147   1.307  0.0266 -0.4490 -1.0769
 6694SOL    HW129050   3.441   5.232   1.350 -1.4640 -0.8330 -0.7622
 6694SOL    HW229051   3.470   5.170   1.215  1.8041  0.2757 -0.6632
 6695SOL     OW29052   0.821  12.107   2.906  0.8306 -1.0208 -0.3818
 6695SOL    HW129053   0.881  12.057   2.961  1.7544  0.8192  0.3741
 6695SOL    HW229054   0.754  12.043   2.879  0.8456 -2.2299  2.1194
 6696SOL     OW29055   5.022  11.763   7.513  0.1453  0.3507 -0.1764
 6696SOL    HW129056   4.984  11.841   7.474  0.4433  0.4697 -0.2308
 6696SOL    HW229057   5.049  11.790   7.601 -0.5448  0.0771  0.1235
 6697SOL     OW29058   2.310   3.807   1.533 -0.1748  0.0662 -0.2202
 6697SOL    HW129059   2.320   3.716   1.505 -1.3372  0.2368 -1.2805
 6697SOL    HW229060   2.236   3.806   1.594  0.6752  0.1122  0.8484
 6698SOL     OW29061   3.736  10.830  11.544  0.3918 -0.2986  0.2536
 6698SOL    HW129062   3.707  10.775  11.617  0.4260 -0.6755 -0.0163
 6698SOL    HW229063   3.785  10.771  11.487 -0.5119 -0.2496 -0.5970
 6699SOL     OW29064   6.702  10.236   5.376 -0.1089 -0.2450  0.1524
 6699SOL    HW129065   6.651  10.290   5.436  1.0815 -0.9442  1.8817
 6699SOL    HW229066   6.772  10.199   5.430 -0.0965 -2.4558 -1.2208
 6700SOL     OW29067   2.536   5.897   3.696 -0.1490 -0.1202  0.0143
 6700SOL    HW129068   2.620   5.870   3.735 -0.4011  0.0445  0.6955
 6700SOL    HW229069   2.551   5.988   3.671 -0.8856  0.8022  2.5544
 6701SOL     OW29070   8.024   9.758   3.696  0.0691 -0.1847 -0.2734
 6701SOL    HW129071   7.997   9.844   3.663  1.4737  0.1167 -0.7303
 6701SOL    HW229072   8.044   9.707   3.617 -0.8830 -0.9913 -0.0110
 6702SOL     OW29073   7.766   6.136   3.439 -0.2896  0.1883 -0.2569
 6702SOL    HW129074   7.750   6.229   3.454 -0.0056  0.0944  0.7648
 6702SOL    HW229075   7.703   6.092   3.497 -1.1550 -0.2836 -1.5249
 6703SOL     OW29076   3.513   1.977  11.632 -0.0481 -0.1043  0.8537
 6703SOL    HW129077   3.596   1.957  11.588 -0.9981  0.4489 -1.3156
 6703SOL    HW229078   3.527   2.062  11.673  0.2770  0.2516  0.0075
 6704SOL     OW29079   0.595   4.805   0.124 -0.2931  0.1890  0.5140
 6704SOL    HW129080   0.517   4.843   0.084 -1.1087  0.0847  1.9366
 6704SOL    HW229081   0.587   4.826   0.217  0.8217 -0.7654  0.8465
 6705SOL     OW29082  10.519   9.641   3.732 -0.0140 -0.3209 -0.0336
 6705SOL    HW129083  10.481   9.579   3.669 -0.7446  0.7653 -0.6892
 6705SOL    HW229084  10.557   9.710   3.678  0.3274  0.0692  0.6993
 6706SOL     OW29085   3.397   8.783   9.767 -0.2343  0.0997 -1.0283
 6706SOL    HW129086   3.389   8.718   9.837  1.6336 -0.2353 -1.0798
 6706SOL    HW229087   3.406   8.866   9.813  0.6238 -0.0800 -0.8405
 6707SOL     OW29088   0.033  11.443   9.871 -0.1050 -0.0539 -0.1642
 6707SOL    HW129089   0.102  11.480   9.815 -0.6610 -0.6534 -1.2754
 6707SOL    HW229090   0.005  11.517   9.926  3.4322 -0.4353  2.5166
 6708SOL     OW29091  10.055   7.243   3.533  0.2984  0.2868 -0.1662
 6708SOL    HW129092  10.013   7.298   3.599 -0.6998 -0.5807 -0.0429
 6708SOL    HW229093   9.982   7.205   3.484  1.0147  0.5008 -1.4278
 6709SOL     OW29094  10.696   6.034   0.800 -0.1282 -0.0008  0.3278
 6709SOL    HW129095  10.729   5.946   0.780 -0.1703  0.2267 -0.8097
 6709SOL    HW229096  10.735   6.055   0.884  1.0437 -0.5476 -0.0530
 6710SOL     OW29097   4.113   1.926   2.429 -0.0955  0.1386  0.0337
 6710SOL    HW129098   4.105   1.854   2.367  1.0656 -1.9739  2.1587
 6710SOL    HW229099   4.204   1.955   2.420 -0.2557  0.6174 -0.0630
 6711SOL     OW29100   2.347   9.912   9.998 -0.1434  0.0791 -0.0176
 6711SOL    HW129101   2.268   9.915  10.053 -0.2967 -0.6344 -0.1849
 6711SOL    HW229102   2.316   9.940   9.911  0.0289  0.8915  0.1845
 6712SOL     OW29103   8.249   0.426   9.968 -0.1713  0.5098  0.2451
 6712SOL    HW129104   8.154   0.424   9.985 -0.3286 -0.6894 -0.6593
 6712SOL    HW229105   8.256   0.416   9.874  0.8913 -0.8086  0.4409
 6713SOL     OW29106   5.409   5.749   1.570 -0.5703  0.9294 -0.2909
 6713SOL    HW129107   5.494   5.776   1.606 -1.4039  3.6858 -0.1602
 6713SOL    HW229108   5.353   5.741   1.647 -0.3545 -1.6086 -0.3008
 6714SOL     OW29109   5.528  10.881   0.082 -0.2847  0.0334 -0.4419
 6714SOL    HW129110   5.439  10.877   0.046 -1.3187  0.6574  1.8579
 6714SOL    HW229111   5.532  10.808   0.144  1.2404 -0.6577 -1.2825
 6715SOL     OW29112   1.386   0.419   9.263  0.7166 -0.3889 -0.0127
 6715SOL    HW129113   1.392   0.515   9.262  0.3472 -0.3632 -0.9098
 6715SOL    HW229114   1.292   0.401   9.271  0.7905 -0.6734  0.1994
 6716SOL     OW29115  10.683   3.264   7.880  0.0931  0.1173  0.0542
 6716SOL    HW129116  10.609   3.232   7.932  1.4343 -1.5311  1.0381
 6716SOL    HW229117  10.718   3.186   7.838  1.8231  0.7091  0.3405
 6717SOL     OW29118   7.601   4.668  12.422 -0.1356  0.5274 -0.4764
 6717SOL    HW129119   7.658   4.596  12.448 -2.3701 -0.8979  0.7803
 6717SOL    HW229120   7.628   4.741  12.478 -1.8928 -1.2199  2.9513
 6718SOL     OW29121   4.424   8.061   6.078  0.3170  0.2642  0.1389
 6718SOL    HW129122   4.445   7.975   6.040 -0.5376 -0.3624  1.0167
 6718SOL    HW229123   4.417   8.119   6.003 -2.6442 -1.2196 -0.8819
 6719SOL     OW29124   9.302   6.202  10.109 -0.2788 -0.7473  0.1865
 6719SOL    HW129125   9.308   6.217  10.015 -0.0647 -0.0128  0.3095
 6719SOL    HW229126   9.265   6.114  10.118 -1.4323 -0.3588 -0.5823
 6720SOL     OW29127   0.951   1.012  11.110 -0.1212 -0.1239 -0.3210
 6720SOL    HW129128   1.004   0.933  11.118 -1.5069 -1.2477 -1.4948
 6720SOL    HW229129   1.003   1.071  11.054 -0.0903 -1.2168 -1.4854
 6721SOL     OW29130   1.295   1.414   0.298  0.1034 -0.4173 -0.2902
 6721SOL    HW129131   1.318   1.374   0.214  0.8956 -0.4518 -0.0718
 6721SOL    HW229132   1.318   1.348   0.363 -0.0788 -0.2165 -0.0207
 6722SOL     OW29133   6.234   5.259   5.594 -0.1993  0.0212  0.0219
 6722SOL    HW129134   6.305   5.298   5.646 -0.6006  0.8654 -0.0477
 6722SOL    HW229135   6.156   5.307   5.620 -0.9873 -1.7003  0.9638
 6723SOL     OW29136  10.935  12.024  11.974  0.4715 -0.2870 -0.3992
 6723SOL    HW129137  10.935  12.054  11.883  0.1780 -3.3918 -1.5605
 6723SOL    HW229138  10.843  12.004  11.993  0.7083 -1.0368  0.0303
 6724SOL     OW29139   2.686   7.980   1.886  0.0281 -0.1187 -0.1825
 6724SOL    HW129140   2.760   7.977   1.826 -0.2705 -0.0586 -0.5574
 6724SOL    HW229141   2.721   7.947   1.969  0.3297 -0.6364 -0.5114
 6725SOL     OW29142   0.536   5.334   3.524 -0.3091  0.1767  0.2156
 6725SOL    HW129143   0.577   5.415   3.493  0.8703  0.3344  1.9961
 6725SOL    HW229144   0.602   5.266   3.510  0.1714  0.2179  2.0391
 6726SOL     OW29145   8.014  10.288   1.056  0.0054  0.1272  0.3407
 6726SOL    HW129146   7.925  10.254   1.048  0.3626 -0.8279  0.3595
 6726SOL    HW229147   8.008  10.378   1.022 -0.7923 -0.1941 -0.4081
 6727SOL     OW29148   2.072  10.269   0.190  0.0123  0.5671  0.5479
 6727SOL    HW129149   2.094  10.197   0.249  0.0499  0.3379  0.2540
 6727SOL    HW229150   2.154  10.316   0.178 -0.3253  1.5973  1.9919
 6728SOL     OW29151  12.295  10.563   9.056  0.0425  0.4665  0.2755
 6728SOL    HW129152  12.343  10.521   8.984  0.2156  1.5355 -0.2559
 6728SOL    HW229153  12.312  10.507   9.132 -0.3762 -0.8422 -0.5600
 6729SOL     OW29154   9.097   4.015   0.039  0.4001 -0.0664 -0.3144
 6729SOL    HW129155   9.150   4.040  -0.036  0.3959  0.0044 -0.2942
 6729SOL    HW229156   9.009   4.048   0.020  0.4290  0.0658 -0.2199
 6730SOL     OW29157   8.877   6.420  10.140 -0.2627 -0.7495  0.3657
 6730SOL    HW129158   8.862   6.437  10.047 -0.2487 -1.8406  0.1497
 6730SOL    HW229159   8.971   6.430  10.151 -0.3985  0.4747  0.5066
 6731SOL     OW29160   3.660   7.110   3.805 -0.6748 -0.5945  0.0477
 6731SOL    HW129161   3.652   7.044   3.874  0.3504 -1.8499 -0.9975
 6731SOL    HW229162   3.747   7.147   3.817 -0.9585  0.0481  0.1582
 6732SOL     OW29163   3.190   8.802  10.341  0.0202 -0.2758  0.1244
 6732SOL    HW129164   3.146   8.727  10.381 -0.4174  0.5503  1.2131
 6732SOL    HW229165   3.143   8.815  10.258 -1.4398  0.2274  0.9954
 6733SOL     OW29166   6.313   3.149   6.881  0.1467 -0.5463 -0.2911
 6733SOL    HW129167   6.273   3.232   6.854 -0.0300 -0.9227 -1.2298
 6733SOL    HW229168   6.265   3.082   6.831  0.6761 -1.1591  0.0114
 6734SOL     OW29169   0.765   2.348   1.549  0.1956 -0.6651  0.2280
 6734SOL    HW129170   0.728   2.422   1.500 -0.6767 -0.6653  0.8554
 6734SOL    HW229171   0.768   2.379   1.640  3.5631  0.0473 -0.0010
 6735SOL     OW29172   2.873   9.275   7.108 -0.4937  0.1713  0.1285
 6735SOL    HW129173   2.845   9.285   7.199 -0.2384  1.2544  0.1014
 6735SOL    HW229174   2.794   9.291   7.056 -0.8289 -1.2580  0.1677
 6736SOL     OW29175   2.882  10.091   7.562 -0.2963  0.9826  0.0442
 6736SOL    HW129176   2.801  10.057   7.600 -1.0273  1.3784 -1.1313
 6736SOL    HW229177   2.935  10.013   7.544 -1.2029  0.5774 -0.9305
 6737SOL     OW29178  12.045   9.342   0.746 -0.2301 -0.0900  0.1314
 6737SOL    HW129179  12.045   9.289   0.666 -1.2934 -0.4571  0.3478
 6737SOL    HW229180  12.121   9.399   0.738 -0.2726 -0.1813 -1.1009
 6738SOL     OW29181   8.120  10.252   0.343 -0.3559  0.3897 -0.1631
 6738SOL    HW129182   8.136  10.233   0.435  0.9661 -0.6406 -0.5610
 6738SOL    HW229183   8.101  10.167   0.303 -1.1971  0.8562 -0.7997
 6739SOL     OW29184   6.754   9.117   1.357 -0.2087  0.1028 -0.4739
 6739SOL    HW129185   6.678   9.161   1.321 -0.4621 -0.8756 -1.1755
 6739SOL    HW229186   6.819   9.186   1.369 -1.0190  0.8600 -0.3548
 6740SOL     OW29187   2.693   4.691   3.603  0.3554 -0.2797  0.1971
 6740SOL    HW129188   2.700   4.720   3.694  1.5745 -0.7925  0.2878
 6740SOL    HW229189   2.783   4.670   3.578  0.0858  0.2064 -1.2497
 6741SOL     OW29190   7.254   9.981  10.676  0.4835  0.2428 -0.5591
 6741SOL    HW129191   7.317   9.971  10.747  0.7460  0.0241 -0.8202
 6741SOL    HW229192   7.177  10.020  10.717  0.9394  0.9125 -0.3153
 6742SOL     OW29193   6.571   3.339   1.774  0.2285 -0.7400  0.1137
 6742SOL    HW129194   6.549   3.386   1.694  2.6106 -0.9563 -0.7777
 6742SOL    HW229195   6.667   3.346   1.780  0.1166 -0.5176  3.0987
 6743SOL     OW29196   9.813   5.580   2.340 -0.1080  0.6116 -0.2821
 6743SOL    HW129197   9.828   5.645   2.271 -1.1298  0.8782 -0.2663
 6743SOL    HW229198   9.730   5.538   2.316 -0.2668  0.4203  0.5688
 6744SOL     OW29199   2.329   4.098   4.409  0.0760 -0.5459 -0.3929
 6744SOL    HW129200   2.334   4.185   4.448  1.2242 -0.9726  0.4773
 6744SOL    HW229201   2.406   4.094   4.351  0.5277 -1.2824  0.2454
 6745SOL     OW29202  11.526   7.561   4.164 -0.2325 -0.0595 -0.2693
 6745SOL    HW129203  11.599   7.553   4.104  0.0698  0.0795  0.0741
 6745SOL    HW229204  11.448   7.552   4.110  0.0241  0.6774 -0.7778
 6746SOL     OW29205   2.614   4.868   7.547 -0.1230  0.1434  0.1008
 6746SOL    HW129206   2.616   4.791   7.490 -0.8097 -0.4242  0.8168
 6746SOL    HW229207   2.606   4.942   7.488  1.8271 -0.2237 -0.6815
 6747SOL     OW29208   7.242  10.556   3.426 -0.4087  1.0527 -0.0847
 6747SOL    HW129209   7.257  10.558   3.332 -0.0007  2.7990 -0.0129
 6747SOL    HW229210   7.149  10.537   3.436 -0.7607  2.2807 -0.8910
 6748SOL     OW29211   4.452   5.368   2.672 -0.8782 -0.4963  0.2392
 6748SOL    HW129212   4.386   5.428   2.707  0.0068  1.6414 -1.5646
 6748SOL    HW229213   4.401   5.298   2.631 -1.9737 -0.1240  0.9320
 6749SOL     OW29214   0.998   3.750  11.447 -0.3389  0.5814 -0.3554
 6749SOL    HW129215   0.939   3.824  11.434 -1.6951 -0.4619 -0.2994
 6749SOL    HW229216   1.054   3.776  11.520 -2.2547  0.6959  1.1436
 6750SOL     OW29217  12.548   4.199   5.939 -0.2233 -0.3530  0.1104
 6750SOL    HW129218  12.616   4.175   6.002 -0.5739 -0.5749  0.4068
 6750SOL    HW229219  12.594   4.253   5.874  0.3559 -0.9771 -0.0095
 6751SOL     OW29220   8.493   4.615   1.244 -0.7389  0.2508 -0.2670
 6751SOL    HW129221   8.407   4.651   1.224 -0.6622  0.6406  0.0842
 6751SOL    HW229222   8.553   4.689   1.233 -0.0236 -0.6770 -3.3656
 6752SOL     OW29223   9.075   9.060  11.788 -0.2575 -0.0114 -0.4151
 6752SOL    HW129224   8.996   9.007  11.775 -0.6602  0.5576 -0.3461
 6752SOL    HW229225   9.042   9.148  11.806  0.1839 -0.5127  3.7755
 6753SOL     OW29226   9.455   6.956   5.001  0.3065  0.4858  0.1251
 6753SOL    HW129227   9.454   6.985   4.910 -0.8851  1.2762  0.3674
 6753SOL    HW229228   9.495   7.028   5.049 -2.0071  1.5056  0.6316
 6754SOL     OW29229   3.458  12.062   7.165 -0.1554  0.3941 -0.6719
 6754SOL    HW129230   3.529  11.999   7.181  1.3871  1.7797 -1.7296
 6754SOL    HW229231   3.404  12.058   7.244  1.2637 -0.4943  0.3058
 6755SOL     OW29232   8.308  10.965   7.732  0.7675  0.1545  0.0378
 6755SOL    HW129233   8.221  11.003   7.747  1.1271  0.9624  0.1213
 6755SOL    HW229234   8.290  10.882   7.687  0.0340  1.6544 -2.6384
 6756SOL     OW29235  11.558  11.407   7.607 -0.4043  0.0759  0.2903
 6756SOL    HW129236  11.586  11.423   7.697 -1.2198 -0.6117  0.6788
 6756SOL    HW229237  11.504  11.483   7.585 -1.4363 -0.4551  0.9223
 6757SOL     OW29238  12.185   0.085   3.461  0.0604  0.2689 -0.4355
 6757SOL    HW129239  12.137   0.167   3.446  0.8639  0.9667  0.6445
 6757SOL    HW229240  12.135   0.019   3.413 -1.6408  1.0638  0.1418
 6758SOL     OW29241   4.521   0.046   9.821 -0.4432 -0.1560  0.5915
 6758SOL    HW129242   4.460   0.024   9.891  0.8241  1.5122  2.3046
 6758SOL    HW229243   4.506   0.139   9.804 -1.4107 -0.7210 -2.1374
 6759SOL     OW29244   1.171  11.985   5.308  0.4367  0.1958 -0.1562
 6759SOL    HW129245   1.223  12.055   5.270 -1.2921  0.9346 -1.2714
 6759SOL    HW229246   1.087  12.025   5.330 -0.1341 -1.2239  0.4338
 6760SOL     OW29247   0.968  12.303   7.523  0.1121  0.0273  0.8937
 6760SOL    HW129248   1.015  12.255   7.590  0.5564  0.2888  0.7726
 6760SOL    HW229249   1.022  12.380   7.506 -0.5271  0.5129  1.0024
 6761SOL     OW29250   7.864   4.486   8.781  0.4448 -0.1416 -0.5416
 6761SOL    HW129251   7.942   4.512   8.732 -0.0836  0.7578 -0.9421
 6761SOL    HW229252   7.840   4.400   8.745  1.8348 -0.9236  0.3236
 6762SOL     OW29253   3.767   5.644  10.648 -0.3891  0.5553 -0.1903
 6762SOL    HW129254   3.843   5.612  10.697 -0.9518  1.3043  1.2390
 6762SOL    HW229255   3.786   5.621  10.557 -0.2820 -2.9482  0.5439
 6763SOL     OW29256   7.332   8.138   2.558  0.0046  0.4932  0.2889
 6763SOL    HW129257   7.267   8.200   2.593 -2.2098 -1.1354 -0.6895
 6763SOL    HW229258   7.381   8.109   2.635 -2.7630 -0.7829  1.7236
 6764SOL     OW29259   7.150   5.896   1.846  0.0460 -0.6582 -0.4788
 6764SOL    HW129260   7.100   5.973   1.821 -0.0839 -0.8924 -0.9600
 6764SOL    HW229261   7.210   5.881   1.772  0.3055 -0.8179 -0.2417
 6765SOL     OW29262   2.557   6.724  12.190 -0.2610 -0.3095  0.2894
 6765SOL    HW129263   2.576   6.632  12.207  0.6177 -0.2266 -0.2124
 6765SOL    HW229264   2.586   6.770  12.269 -1.6722 -0.5621  0.9787
 6766SOL     OW29265   9.221   9.326   0.814 -0.7035 -0.5024  0.6569
 6766SOL    HW129266   9.139   9.335   0.766 -2.2820 -3.5175  2.5149
 6766SOL    HW229267   9.196   9.288   0.898  2.6788 -2.4739  0.9604
 6767SOL     OW29268   3.006  11.006   8.096 -0.0678  0.0383 -0.1399
 6767SOL    HW129269   2.957  11.085   8.074  0.2060 -0.1715 -1.6175
 6767SOL    HW229270   3.098  11.033   8.090  0.0199 -0.1606  0.2900
 6768SOL     OW29271   8.167   3.889   8.295 -0.0935 -0.0252  0.2295
 6768SOL    HW129272   8.222   3.937   8.233  0.8751  0.7506  1.6251
 6768SOL    HW229273   8.213   3.807   8.309 -0.4784 -0.3369 -0.3042
 6769SOL     OW29274   2.974   1.429   3.719 -0.0318 -0.8443 -0.1287
 6769SOL    HW129275   2.955   1.343   3.756 -0.7008 -0.6513 -0.0124
 6769SOL    HW229276   2.889   1.465   3.696  0.1542  0.1990  0.7536
 6770SOL     OW29277   1.394   1.603  12.566  0.5434 -0.3549  0.2491
 6770SOL    HW129278   1.310   1.581  12.526  1.3201 -1.0349 -1.0728
 6770SOL    HW229279   1.407   1.696  12.548  0.8359 -0.6340 -1.0361
 6771SOL     OW29280  12.083   6.533   1.732 -0.2629 -0.0209 -0.4066
 6771SOL    HW129281  11.998   6.545   1.691 -0.4308  0.2427  0.0132
 6771SOL    HW229282  12.072   6.565   1.822  0.2445 -0.0899 -0.3132
 6772SOL     OW29283   5.224  11.792  10.066 -0.2702 -0.0259  0.2408
 6772SOL    HW129284   5.213  11.870  10.013  0.6466  0.3038  0.5265
 6772SOL    HW229285   5.306  11.753  10.036 -1.3396 -1.6119 -0.8033
 6773SOL     OW29286   8.230  11.919   1.157 -0.4781 -0.6218  0.6550
 6773SOL    HW129287   8.280  11.855   1.206  0.3389 -1.8826 -1.6756
 6773SOL    HW229288   8.232  11.998   1.211  1.4458 -1.5256  2.0092
 6774SOL     OW29289   3.273   8.199   2.476  1.2512 -0.2156  0.3854
 6774SOL    HW129290   3.196   8.255   2.467  1.4158  0.1324  1.0977
 6774SOL    HW229291   3.329   8.223   2.403 -0.0950 -1.7497 -1.2301
 6775SOL     OW29292   4.274   3.135   8.697 -0.7888 -0.6814  0.0512
 6775SOL    HW129293   4.299   3.166   8.784 -0.1809  0.4452 -0.5010
 6775SOL    HW229294   4.295   3.042   8.697  1.2246 -0.2699  0.4216
 6776SOL     OW29295   1.095   4.441   2.240 -0.0926  0.1698  0.4428
 6776SOL    HW129296   1.087   4.348   2.262 -0.8114  0.1908  0.3248
 6776SOL    HW229297   1.179   4.449   2.196 -0.4757 -0.6204 -0.4703
 6777SOL     OW29298   4.887   9.865   7.553 -0.0142 -0.3111 -0.2487
 6777SOL    HW129299   4.792   9.853   7.554  0.1008 -1.4106  1.1284
 6777SOL    HW229300   4.908   9.892   7.643  1.1805 -2.0003  0.0180
 6778SOL     OW29301  11.363  10.775   2.525 -0.1728 -0.4006  0.1720
 6778SOL    HW129302  11.399  10.858   2.556  0.2566  0.0294 -1.4221
 6778SOL    HW229303  11.329  10.733   2.604 -0.3991  1.2837  0.9983
 6779SOL     OW29304   4.776   8.038   2.988 -0.0278 -0.1652  0.2849
 6779SOL    HW129305   4.838   7.975   3.024  0.1579  0.9334  1.9901
 6779SOL    HW229306   4.695   7.987   2.975  0.3315 -0.9154  0.9316
 6780SOL     OW29307   9.387   4.188   6.157  0.1370  0.3299 -0.3425
 6780SOL    HW129308   9.443   4.264   6.171  0.2825  0.3219 -0.8265
 6780SOL    HW229309   9.437   4.114   6.191  1.1341  0.1013 -2.1827
 6781SOL     OW29310   6.394   3.580   5.834 -0.2508 -0.3513  0.5066
 6781SOL    HW129311   6.400   3.570   5.739  1.3661 -1.2621  0.6709
 6781SOL    HW229312   6.300   3.581   5.852 -0.5945  0.7779 -1.1711
 6782SOL     OW29313   9.571   3.499   6.179 -0.8590  0.3483 -0.0827
 6782SOL    HW129314   9.610   3.461   6.100  2.8342 -0.7447  2.0244
 6782SOL    HW229315   9.595   3.591   6.176  1.2799 -0.1372  0.7527
 6783SOL     OW29316   1.717   6.175   1.279 -0.0873  0.1621 -0.6098
 6783SOL    HW129317   1.706   6.259   1.324  2.5244  0.0728  0.3258
 6783SOL    HW229318   1.809   6.154   1.290 -0.8398 -3.3263  0.0289
 6784SOL     OW29319  11.670   4.999   9.119  0.4227 -0.6370  0.7712
 6784SOL    HW129320  11.625   4.915   9.106  0.8314 -0.9684  1.3998
 6784SOL    HW229321  11.601   5.061   9.142  0.0917 -0.7593  0.1051
 6785SOL     OW29322  10.192   8.515   2.442  0.4721 -0.5834  0.3569
 6785SOL    HW129323  10.237   8.479   2.366 -0.8149 -2.8167  0.5740
 6785SOL    HW229324  10.188   8.443   2.505  1.0425  1.0387  2.3777
 6786SOL     OW29325   8.736   0.344  11.329  0.2034  0.3073 -0.9001
 6786SOL    HW129326   8.728   0.430  11.369  0.8583  0.4010 -0.9576
 6786SOL    HW229327   8.829   0.336  11.308  0.2488 -0.6187 -0.4256
 6787SOL     OW29328   3.832   8.304   2.335  0.2259  0.2394 -0.3905
 6787SOL    HW129329   3.889   8.379   2.350  0.5109 -0.1161  0.3570
 6787SOL    HW229330   3.745   8.335   2.357  0.2602  0.5181 -0.6429
 6788SOL     OW29331   9.410   4.674   5.315  0.3293 -0.0576 -0.1552
 6788SOL    HW129332   9.444   4.763   5.314 -0.3053  0.1878 -0.1926
 6788SOL    HW229333   9.485   4.620   5.340  0.7453  0.4711 -0.2488
 6789SOL     OW29334  10.746   9.348   2.813 -0.1195 -0.4414 -0.1661
 6789SOL    HW129335  10.689   9.282   2.773 -1.2454  1.2730 -1.5027
 6789SOL    HW229336  10.760   9.316   2.902 -3.7505 -0.6318  0.4533
 6790SOL     OW29337   1.398   6.730   4.003 -0.4243  0.3214  0.0127
 6790SOL    HW129338   1.349   6.789   3.948 -0.4375  1.2802  1.0192
 6790SOL    HW229339   1.487   6.731   3.967 -1.1280 -1.6793 -2.0180
 6791SOL     OW29340  11.494  10.978   3.740 -0.2672  0.4004 -0.1303
 6791SOL    HW129341  11.445  10.998   3.819  0.4589 -0.5365  0.5811
 6791SOL    HW229342  11.448  10.903   3.702  0.1212  0.0298  0.1112
 6792SOL     OW29343  11.182   8.764   1.405 -0.0260 -0.0502  0.2455
 6792SOL    HW129344  11.227   8.846   1.424  2.1386 -0.9932 -0.4285
 6792SOL    HW229345  11.242   8.717   1.346 -1.9358 -1.4150 -0.7246
 6793SOL     OW29346   5.681   4.039   8.716 -0.2020 -0.3246 -0.2513
 6793SOL    HW129347   5.749   3.976   8.741  1.2773  0.8593 -1.0818
 6793SOL    HW229348   5.691   4.111   8.777 -1.1676 -0.4096  0.0220
 6794SOL     OW29349   4.363  11.345   1.235  0.6854  0.9378 -0.1581
 6794SOL    HW129350   4.453  11.362   1.208  0.7067 -0.3681 -1.0038
 6794SOL    HW229351   4.369  11.270   1.294  0.0809  0.2091 -0.9956
 6795SOL     OW29352   8.931   0.170   5.271  0.1438 -0.3373 -0.2275
 6795SOL    HW129353   8.937   0.082   5.233 -0.9796 -0.3170 -0.4746
 6795SOL    HW229354   9.007   0.175   5.330  1.8836 -0.4035 -2.3343
 6796SOL     OW29355   9.921   9.790   2.897 -0.2886 -0.2474 -0.0319
 6796SOL    HW129356   9.842   9.845   2.898 -0.2603 -0.0540 -2.3942
 6796SOL    HW229357   9.903   9.724   2.830  1.1744 -0.7977  0.0849
 6797SOL     OW29358   2.353   4.553   4.386  0.3587 -0.3447  0.4997
 6797SOL    HW129359   2.382   4.570   4.296 -0.9949 -0.8641 -0.0620
 6797SOL    HW229360   2.368   4.636   4.432 -0.1777  0.3550 -0.5469
 6798SOL     OW29361   0.301   4.049   8.403 -0.0144 -0.2142 -0.2851
 6798SOL    HW129362   0.392   4.074   8.420 -0.0361 -1.0008  1.1955
 6798SOL    HW229363   0.254   4.132   8.396  1.0948  0.2915 -3.2445
 6799SOL     OW29364   8.314   7.792   0.607  0.1145 -0.1775 -0.3592
 6799SOL    HW129365   8.323   7.887   0.620  3.0833 -0.3415 -0.6106
 6799SOL    HW229366   8.307   7.756   0.695  1.4257  0.1408 -0.0996
 6800SOL     OW29367   9.543  10.087   1.203  0.2603  0.2592  0.2700
 6800SOL    HW129368   9.578  10.113   1.118  0.7653 -1.3236 -0.0430
 6800SOL    HW229369   9.532   9.992   1.197  2.9024 -0.3716  2.8125
 6801SOL     OW29370   9.857   3.297   2.582  0.3369 -0.6419 -0.3989
 6801SOL    HW129371   9.914   3.221   2.571  1.6474  0.2606  0.0123
 6801SOL    HW229372   9.907   3.370   2.546 -0.2377  0.3075  0.6902
 6802SOL     OW29373  10.782   1.321   2.262 -0.3318 -0.1321  0.1726
 6802SOL    HW129374  10.877   1.330   2.249 -0.2594 -0.0607  0.7279
 6802SOL    HW229375  10.751   1.277   2.183  0.1994 -0.3637  0.0908
 6803SOL     OW29376   5.297  10.044  11.188  0.3572 -0.5256 -0.2927
 6803SOL    HW129377   5.230  10.099  11.229 -2.3783 -2.2039 -2.1427
 6803SOL    HW229378   5.310   9.972  11.249  0.0558 -0.4749 -0.1661
 6804SOL     OW29379   9.825   9.400   5.282 -0.0005  0.5568  0.6535
 6804SOL    HW129380   9.779   9.484   5.280 -1.0221 -0.0034 -0.0443
 6804SOL    HW229381   9.906   9.417   5.233  0.6530  1.5896  2.0204
 6805SOL     OW29382   2.780   5.642   9.354 -0.2520  0.6874  0.1013
 6805SOL    HW129383   2.711   5.689   9.401 -0.6195 -0.4093  0.7006
 6805SOL    HW229384   2.752   5.644   9.263  0.9769  3.7272 -0.3331
 6806SOL     OW29385   8.159   4.537   2.106  0.0077 -0.4929  0.3311
 6806SOL    HW129386   8.094   4.538   2.036 -1.1637  2.0907  1.2885
 6806SOL    HW229387   8.232   4.589   2.072 -0.2261  0.0949  0.7058
 6807SOL     OW29388   2.734   0.684   0.784  0.0399  0.2193  0.2363
 6807SOL    HW129389   2.705   0.696   0.875 -1.4265  0.6194 -0.2712
 6807SOL    HW229390   2.670   0.624   0.746  1.5312 -1.2296 -0.1250
 6808SOL     OW29391   8.615   3.055  11.046  0.1665 -0.4061  0.0286
 6808SOL    HW129392   8.615   3.066  10.951  0.7621  0.0638  0.0779
 6808SOL    HW229393   8.605   3.143  11.081  0.3902 -0.5282  0.4042
 6809SOL     OW29394   8.680   7.689  10.339  0.3255 -0.4248  0.2135
 6809SOL    HW129395   8.650   7.746  10.269  0.6109  0.7482  1.0180
 6809SOL    HW229396   8.689   7.746  10.415  1.5804 -1.3453  0.8074
 6810SOL     OW29397  12.321  10.437   2.364  0.0759 -0.2529  0.1989
 6810SOL    HW129398  12.370  10.360   2.392  0.0984 -0.7471 -1.1490
 6810SOL    HW229399  12.238  10.401   2.332  0.7352  0.0624 -2.0278
 6811SOL     OW29400   5.109   9.894   3.821 -1.1889  0.2216 -0.1985
 6811SOL    HW129401   5.179   9.841   3.783 -0.6467 -0.4094  1.5743
 6811SOL    HW229402   5.065   9.836   3.883 -2.9939  0.7633 -0.9110
 6812SOL     OW29403   0.752   0.479   4.368 -0.2879  0.3787  0.3529
 6812SOL    HW129404   0.808   0.539   4.320 -0.4807 -0.5134 -1.0459
 6812SOL    HW229405   0.664   0.517   4.360 -0.3266  0.2110 -0.0708
 6813SOL     OW29406   1.046  11.222   1.078 -0.4209 -0.2439  0.1522
 6813SOL    HW129407   0.997  11.142   1.098  0.1437 -0.9058 -0.9686
 6813SOL    HW229408   1.118  11.222   1.141  0.2273 -1.2514 -0.5596
 6814SOL     OW29409   8.541  10.478   6.681 -0.4864 -0.0928 -0.2672
 6814SOL    HW129410   8.539  10.509   6.590  1.2669  0.5823 -0.1238
 6814SOL    HW229411   8.495  10.395   6.679  0.2634 -0.5166 -1.9651
 6815SOL     OW29412  11.042   5.702   0.337  0.4740  0.2519  0.0659
 6815SOL    HW129413  11.020   5.694   0.430 -0.1211  5.2311  0.6301
 6815SOL    HW229414  10.983   5.769   0.304  0.8306 -1.1404 -3.9718
 6816SOL     OW29415   3.376   2.782   0.046  0.3395 -0.0983 -0.2765
 6816SOL    HW129416   3.320   2.856   0.070  1.3091  0.1349  1.5059
 6816SOL    HW229417   3.465   2.812   0.067  0.9209 -1.1753 -1.1214
 6817SOL     OW29418   6.601   1.779   6.619 -0.4326  0.5858 -0.0567
 6817SOL    HW129419   6.587   1.834   6.542 -0.9470  1.1461  0.4251
 6817SOL    HW229420   6.695   1.788   6.637  0.3522 -1.8619 -2.3123
 6818SOL     OW29421   9.393   8.990  10.833 -0.0811  0.6856 -0.0588
 6818SOL    HW129422   9.344   8.929  10.778  1.5480 -0.9216  0.1677
 6818SOL    HW229423   9.476   9.002  10.787  1.2729 -0.5817  1.9105
 6819SOL     OW29424   7.308   2.736   1.102  0.4811 -0.5152  0.4012
 6819SOL    HW129425   7.314   2.641   1.093  2.0193 -0.4092 -0.0003
 6819SOL    HW229426   7.395   2.763   1.132 -0.3675  0.6305  2.0189
 6820SOL     OW29427   8.686   5.328   9.332 -0.1586  0.2710 -0.5524
 6820SOL    HW129428   8.594   5.306   9.316 -0.0301 -0.8157  0.0683
 6820SOL    HW229429   8.735   5.260   9.287  0.2715 -0.5740  1.0985
 6821SOL     OW29430   1.705   5.169  12.279  0.5222  0.6466 -0.1001
 6821SOL    HW129431   1.641   5.113  12.324  0.4658  1.6917  1.1661
 6821SOL    HW229432   1.758   5.107  12.228  1.5573 -0.8359  2.5392
 6822SOL     OW29433   1.109   8.331  11.293 -0.1245  0.4098 -0.2238
 6822SOL    HW129434   1.120   8.313  11.200  0.2161 -0.5868  0.0004
 6822SOL    HW229435   1.198   8.341  11.326 -0.1868 -0.3729  0.2038
 6823SOL     OW29436  12.556   7.320   0.163 -0.1461  0.0375 -0.0671
 6823SOL    HW129437  12.548   7.282   0.076 -0.9347 -0.0922  0.0480
 6823SOL    HW229438  12.648   7.310   0.186 -0.2194 -1.2431 -0.2954
 6824SOL     OW29439   9.740   4.816   3.032  0.6951  0.2689 -0.1619
 6824SOL    HW129440   9.649   4.825   3.003  0.8062  0.0637 -0.5765
 6824SOL    HW229441   9.749   4.724   3.055  0.7412  0.3329  0.0799
 6825SOL     OW29442   1.148   2.047  10.872 -0.0192 -0.0829 -0.4012
 6825SOL    HW129443   1.058   2.063  10.900 -0.3838 -1.9180 -0.4459
 6825SOL    HW229444   1.197   2.120  10.910 -1.4853  0.8969 -0.2897
 6826SOL     OW29445  10.895   4.269   1.341 -0.0503  0.0607 -0.0245
 6826SOL    HW129446  10.939   4.258   1.256 -1.0654  0.1229 -0.5662
 6826SOL    HW229447  10.814   4.314   1.320  0.4454  1.6166  1.1850
 6827SOL     OW29448  11.309   9.647   0.066  0.0744 -0.0601 -0.1618
 6827SOL    HW129449  11.224   9.623   0.028 -0.5205 -0.4858  1.3332
 6827SOL    HW229450  11.315   9.742   0.053 -1.2730  0.2092  0.8222
 6828SOL     OW29451   8.440   2.614  11.146  0.2575 -0.5355 -0.5014
 6828SOL    HW129452   8.469   2.562  11.221 -0.6078  1.0867  1.0349
 6828SOL    HW229453   8.449   2.705  11.175 -1.9626  0.1124 -1.6506
 6829SOL     OW29454   2.310  11.702   7.311 -0.4071  0.6651  0.4274
 6829SOL    HW129455   2.337  11.666   7.226 -0.9202 -0.8836  0.8717
 6829SOL    HW229456   2.375  11.768   7.332  1.5083 -1.0530  0.2179
 6830SOL     OW29457   9.222   8.279   6.212  0.2096 -0.2596 -0.1626
 6830SOL    HW129458   9.185   8.192   6.228  0.9989 -0.3014  1.7918
 6830SOL    HW229459   9.175   8.312   6.137 -2.3976 -1.0802  0.9973
 6831SOL     OW29460  10.929   5.948   1.249  0.2508 -0.3670  0.1887
 6831SOL    HW129461  10.957   5.864   1.284  1.3527 -0.2844 -0.4322
 6831SOL    HW229462  10.850   5.929   1.198 -0.3285 -0.7719  1.2118
 6832SOL     OW29463   8.980   7.486   5.644  0.4321  0.8319  0.2731
 6832SOL    HW129464   9.052   7.425   5.662  1.3430  1.9662  0.5635
 6832SOL    HW229465   9.005   7.531   5.564  0.2762  1.5428  0.6100
 6833SOL     OW29466   2.338   2.407   0.388  0.3147  0.7054  0.1591
 6833SOL    HW129467   2.265   2.375   0.442 -0.7496  2.0301 -0.4434
 6833SOL    HW229468   2.300   2.422   0.302  1.6803 -0.0423 -0.6059
 6834SOL     OW29469  12.228   2.529  11.052 -0.1462  0.6536 -0.0581
 6834SOL    HW129470  12.233   2.572  11.138  3.8612 -2.1860  1.4789
 6834SOL    HW229471  12.289   2.579  10.997 -0.2578  0.6192 -0.2116
 6835SOL     OW29472   9.593   4.539   8.480  0.1037  0.1472  0.2590
 6835SOL    HW129473   9.584   4.501   8.567  0.6742  0.8325  0.6209
 6835SOL    HW229474   9.520   4.601   8.473 -1.3968 -1.6260 -0.6888
 6836SOL     OW29475   8.868   4.962   8.776 -0.0031 -0.9137  0.1480
 6836SOL    HW129476   8.883   4.876   8.736  1.0706 -0.5408 -0.2540
 6836SOL    HW229477   8.927   4.964   8.851  1.3165  0.1784 -0.8904
 6837SOL     OW29478   6.408   8.142   7.000  0.7396 -0.5508  0.2093
 6837SOL    HW129479   6.376   8.163   7.088 -0.0503  1.3549 -0.4805
 6837SOL    HW229480   6.487   8.090   7.015  0.1123 -1.0298  2.0248
 6838SOL     OW29481  11.734   1.029   3.576  0.4105  0.7481  1.1111
 6838SOL    HW129482  11.726   1.124   3.583  0.1701  0.7796  0.4726
 6838SOL    HW229483  11.820   1.014   3.538  1.5744  0.5895  3.5742
 6839SOL     OW29484   5.981   1.874   5.574 -0.7492  0.2003 -0.6862
 6839SOL    HW129485   6.054   1.821   5.543  1.5571  2.2613  0.8862
 6839SOL    HW229486   5.941   1.908   5.494 -0.5091 -1.5387 -1.6026
 6840SOL     OW29487   9.430  11.717   9.833  0.2284  0.0615  0.3907
 6840SOL    HW129488   9.444  11.623   9.839 -1.3307 -0.2205  0.0462
 6840SOL    HW229489   9.451  11.739   9.743  0.6593  0.0670  0.4898
 6841SOL     OW29490   1.648   3.370   4.503 -0.3469 -0.2903 -0.0599
 6841SOL    HW129491   1.607   3.352   4.588 -3.3431  0.8169 -1.1307
 6841SOL    HW229492   1.672   3.463   4.508 -1.1035 -0.0532 -0.5824
 6842SOL     OW29493   8.110   1.697   2.900  0.3592 -0.1325 -0.1323
 6842SOL    HW129494   8.023   1.668   2.925 -0.1422  0.2971 -1.3252
 6842SOL    HW229495   8.167   1.622   2.921 -0.0819  0.0040  1.7226
 6843SOL     OW29496   1.444   5.154   7.844  0.2295  0.3635  0.1862
 6843SOL    HW129497   1.364   5.106   7.864  0.6354 -0.6211 -0.4485
 6843SOL    HW229498   1.461   5.134   7.752  2.1150 -0.8606  0.7349
 6844SOL     OW29499  12.360   1.326   7.481  0.2958 -0.3784  0.6817
 6844SOL    HW129500  12.355   1.341   7.387  0.6213  0.3606  0.7749
 6844SOL    HW229501  12.431   1.262   7.492  1.9150  1.3154  0.5841
 6845SOL     OW29502   7.952   1.951   9.825 -1.2029 -0.3929 -0.2605
 6845SOL    HW129503   7.898   1.891   9.774  0.1172 -0.9471 -1.0679
 6845SOL    HW229504   7.949   1.917   9.915  0.6320 -2.5660 -0.9414
 6846SOL     OW29505   5.826   2.012  11.584 -0.1225  0.2881  0.0994
 6846SOL    HW129506   5.897   1.966  11.541 -1.2529 -0.5827 -0.9028
 6846SOL    HW229507   5.784   1.946  11.638 -0.3926  0.7042  0.4042
 6847SOL     OW29508   5.545   9.070   7.628  0.1595 -0.2456 -0.1543
 6847SOL    HW129509   5.527   9.125   7.704  1.2990  0.8555 -0.6379
 6847SOL    HW229510   5.549   9.132   7.555 -1.8561 -1.3852 -1.2971
 6848SOL     OW29511  11.171   8.473  11.254 -0.3202 -0.1594  0.1621
 6848SOL    HW129512  11.214   8.514  11.330 -0.7913 -0.7790  0.7801
 6848SOL    HW229513  11.081   8.457  11.284  0.0731 -2.4668  0.2997
 6849SOL     OW29514   8.520  10.694   2.342  0.3259  0.5890 -0.1339
 6849SOL    HW129515   8.428  10.719   2.337  0.2798  1.1817  2.2051
 6849SOL    HW229516   8.565  10.757   2.286 -0.6849  0.0801 -1.5780
 6850SOL     OW29517   8.105   8.841   2.399 -0.2705 -0.0551  0.4602
 6850SOL    HW129518   8.104   8.763   2.344  1.0449  0.3130 -0.1214
 6850SOL    HW229519   8.069   8.910   2.343 -0.7229 -0.0809  0.7168
 6851SOL     OW29520  10.249  11.191   4.501 -0.5345 -0.0882  0.6246
 6851SOL    HW129521  10.291  11.234   4.576 -0.8578  0.2493  0.6095
 6851SOL    HW229522  10.227  11.262   4.441  0.0190 -0.3844  0.0544
 6852SOL     OW29523   4.871  10.506  10.168 -0.0778 -0.6794  0.3133
 6852SOL    HW129524   4.922  10.465  10.097  0.0778  0.1730 -0.0806
 6852SOL    HW229525   4.919  10.483  10.247  1.5269  0.9061 -0.1257
 6853SOL     OW29526   8.345  10.253   6.721 -0.5112 -1.0900 -0.5148
 6853SOL    HW129527   8.316  10.336   6.759  0.3296 -0.8071 -0.4756
 6853SOL    HW229528   8.342  10.267   6.627 -0.7374 -1.1474 -0.5176
 6854SOL     OW29529   8.762   7.054   4.886 -0.3759  0.1159 -0.0988
 6854SOL    HW129530   8.751   7.062   4.981 -0.9919  1.1583 -0.2380
 6854SOL    HW229531   8.815   7.130   4.862 -1.6013  0.7690 -0.7959
 6855SOL     OW29532   7.237  11.514  10.735  0.3587  0.1351  0.5691
 6855SOL    HW129533   7.251  11.554  10.649 -1.3854 -0.6023 -0.1046
 6855SOL    HW229534   7.306  11.448  10.742  1.0608  0.8080  0.1251
 6856SOL     OW29535   8.519   7.141   7.392 -1.0590 -0.1159  0.4925
 6856SOL    HW129536   8.474   7.170   7.312  0.6505  0.7749 -0.1895
 6856SOL    HW229537   8.563   7.061   7.366 -1.7508 -0.6648  0.9937
 6857SOL     OW29538   2.952  11.309   1.160  0.0037  0.0745 -0.2354
 6857SOL    HW129539   3.035  11.264   1.174  0.0354  0.4350  0.8633
 6857SOL    HW229540   2.886  11.241   1.167  0.0839  0.0980  0.9210
 6858SOL     OW29541   9.692  11.048   4.882 -0.2449  0.6260 -0.3007
 6858SOL    HW129542   9.745  11.127   4.869 -0.7135  0.9125 -0.4985
 6858SOL    HW229543   9.606  11.071   4.848  0.1164 -0.6030 -2.2237
 6859SOL     OW29544   7.762   5.157   5.400  0.1989  0.5108 -0.3158
 6859SOL    HW129545   7.777   5.161   5.494  1.4893  1.2467 -0.5158
 6859SOL    HW229546   7.843   5.118   5.365 -1.7358 -3.5324 -0.8331
 6860SOL     OW29547   3.400  11.441   2.837 -0.3487  0.3274 -0.0896
 6860SOL    HW129548   3.443  11.509   2.888 -2.0263  1.1307  0.2967
 6860SOL    HW229549   3.308  11.447   2.861 -1.0615  0.1378 -2.5631
 6861SOL     OW29550   7.226   7.838  10.502  0.0165  0.4205 -0.3442
 6861SOL    HW129551   7.261   7.876  10.583 -1.0881  0.7390 -0.0030
 6861SOL    HW229552   7.187   7.755  10.529 -0.0605  0.3664 -0.6185
 6862SOL     OW29553   5.435   8.124  11.815  0.5317  0.3827 -0.6357
 6862SOL    HW129554   5.507   8.095  11.760  1.0531  0.8251 -0.1965
 6862SOL    HW229555   5.461   8.211  11.845 -0.1274  0.4949 -0.3775
 6863SOL     OW29556   5.299   8.157   0.581  0.3483  0.1585  0.2613
 6863SOL    HW129557   5.219   8.201   0.609  1.1827  0.7210  1.9097
 6863SOL    HW229558   5.274   8.065   0.570 -1.2766  0.8029 -2.6221
 6864SOL     OW29559   4.787   5.683   3.561  0.5611 -0.1609 -0.2617
 6864SOL    HW129560   4.755   5.694   3.472  1.4483 -0.2825 -0.6022
 6864SOL    HW229561   4.823   5.769   3.584  2.0345 -0.6221 -0.7233
 6865SOL     OW29562   5.637   1.511  11.579 -0.2393 -0.2899  0.0324
 6865SOL    HW129563   5.546   1.517  11.550  0.0685  0.9331 -0.7910
 6865SOL    HW229564   5.649   1.586  11.636  0.2247 -0.5036  0.2189
 6866SOL     OW29565   5.364   3.626   3.232 -0.1821  0.0538  0.5355
 6866SOL    HW129566   5.324   3.547   3.268 -0.3854 -0.2695 -0.3709
 6866SOL    HW229567   5.302   3.696   3.251 -0.5727 -0.2197  0.2923
 6867SOL     OW29568   7.102   0.339   2.287  0.5529  0.0158 -0.4003
 6867SOL    HW129569   7.097   0.434   2.293  1.2509  0.0156  0.6862
 6867SOL    HW229570   7.154   0.322   2.208  2.2630  0.6355  0.5285
 6868SOL     OW29571   8.937  11.622   2.400  0.0917 -0.0618  0.4724
 6868SOL    HW129572   8.952  11.528   2.392  1.9714  0.1125  1.3816
 6868SOL    HW229573   9.011  11.662   2.355 -0.7061  1.0157  0.0612
 6869SOL     OW29574   6.492   4.447   1.989 -0.2197  0.0946  0.0062
 6869SOL    HW129575   6.556   4.423   2.057  0.2269  2.4017  0.5066
 6869SOL    HW229576   6.426   4.498   2.036 -1.3039 -0.4366 -0.8924
 6870SOL     OW29577   7.082   5.668   8.368 -0.8725 -0.1923  0.0653
 6870SOL    HW129578   7.020   5.626   8.309 -1.5871  1.2366 -0.2536
 6870SOL    HW229579   7.078   5.761   8.345  0.7449  0.0606  0.6299
 6871SOL     OW29580  12.016   1.198   6.651 -0.2119 -0.1319  0.4889
 6871SOL    HW129581  12.102   1.162   6.671 -0.4511 -0.5692  0.7421
 6871SOL    HW229582  11.954   1.141   6.697 -0.6498  0.0676  0.1615
 6872SOL     OW29583   4.278  12.241   7.794 -0.4084  0.5355  0.3011
 6872SOL    HW129584   4.215  12.280   7.855  0.3096  0.5515  1.0405
 6872SOL    HW229585   4.331  12.183   7.848  0.8373  1.2364 -0.1191
 6873SOL     OW29586  11.390   4.228   2.329 -0.5167  0.3007 -0.5818
 6873SOL    HW129587  11.419   4.285   2.400 -0.4836  0.3520 -0.6358
 6873SOL    HW229588  11.467   4.221   2.272 -0.4842  0.1065 -0.5144
 6874SOL     OW29589   8.800  10.268   7.975 -0.0492 -0.2218  0.0985
 6874SOL    HW129590   8.893  10.246   7.978  0.1337  0.2997 -1.2399
 6874SOL    HW229591   8.773  10.250   7.885 -0.7700  1.4213 -0.0578
 6875SOL     OW29592   1.539   7.094   4.115 -0.8289 -0.2271 -0.1874
 6875SOL    HW129593   1.465   7.054   4.160 -0.4106 -0.6574  0.1263
 6875SOL    HW229594   1.578   7.022   4.065 -0.6482  0.0067 -0.3869
 6876SOL     OW29595   4.289  11.716   8.419  0.0114 -0.3094  0.1742
 6876SOL    HW129596   4.305  11.663   8.497  1.8348 -0.3854 -0.2098
 6876SOL    HW229597   4.339  11.796   8.435 -2.5296  1.3172  0.6647
 6877SOL     OW29598   2.120   1.206   2.711 -0.0823  0.0047  0.0473
 6877SOL    HW129599   2.086   1.119   2.692 -2.4062  0.7124  0.6089
 6877SOL    HW229600   2.199   1.214   2.658 -0.2262 -2.1483 -0.5688
 6878SOL     OW29601   2.543  11.624  12.495  0.3246 -0.1722 -0.3803
 6878SOL    HW129602   2.547  11.533  12.468  0.6605 -0.2601 -0.0483
 6878SOL    HW229603   2.593  11.627  12.576 -1.1162 -0.0099  0.5233
 6879SOL     OW29604   2.848   6.865   2.520 -0.5956  0.2891 -0.0080
 6879SOL    HW129605   2.879   6.798   2.459 -0.0555  0.1697  0.3817
 6879SOL    HW229606   2.825   6.816   2.599 -0.1472  0.5636  0.2980
 6880SOL     OW29607  11.257   3.899   6.064  0.4279 -0.0197  0.0223
 6880SOL    HW129608  11.230   3.807   6.058  0.4819 -0.0332 -0.0139
 6880SOL    HW229609  11.176   3.947   6.082  0.3498 -0.0354 -0.2848
 6881SOL     OW29610   0.890   6.793  12.495  0.3879 -0.0739 -0.0598
 6881SOL    HW129611   0.932   6.708  12.508 -0.5995 -0.6934 -0.7815
 6881SOL    HW229612   0.951   6.841  12.438 -0.1118 -1.1855 -1.6022
 6882SOL     OW29613   4.040   3.678   7.785  0.1291  0.2564 -0.0620
 6882SOL    HW129614   4.099   3.619   7.739 -0.8391  0.1556 -1.2349
 6882SOL    HW229615   4.052   3.763   7.743 -0.1495  0.3631  0.0692
 6883SOL     OW29616   7.311   5.973  11.146 -0.3756  0.2177 -0.3884
 6883SOL    HW129617   7.262   6.054  11.137 -1.2631  0.0530  2.1274
 6883SOL    HW229618   7.275   5.915  11.079 -0.8410  1.3782 -1.1623
 6884SOL     OW29619   4.816   4.925   6.699 -0.4671 -0.0557  0.0181
 6884SOL    HW129620   4.901   4.966   6.716 -0.7157  0.6211 -0.3281
 6884SOL    HW229621   4.759   4.997   6.672 -1.6228 -0.2205  1.8266
 6885SOL     OW29622   0.397   5.341  11.421 -0.2178  0.0922  0.1165
 6885SOL    HW129623   0.389   5.305  11.332 -1.2788  3.1430 -1.1453
 6885SOL    HW229624   0.315   5.388  11.435  0.3845  0.5783  2.3324
 6886SOL     OW29625  10.576  10.653   8.988  0.2941 -0.5140  0.0684
 6886SOL    HW129626  10.612  10.565   9.005 -0.2755 -0.5084  1.3584
 6886SOL    HW229627  10.601  10.704   9.065  0.2305  0.3423 -0.4729
 6887SOL     OW29628  10.099  10.235   5.662  0.3678 -0.7613  0.2637
 6887SOL    HW129629  10.191  10.258   5.654  0.6559 -1.0648  2.1272
 6887SOL    HW229630  10.074  10.202   5.576  1.6348  0.5326 -0.6391
 6888SOL     OW29631   6.037   4.132   2.944 -0.2757  0.2861  0.3677
 6888SOL    HW129632   5.977   4.166   3.011  0.9685 -0.1345  1.7523
 6888SOL    HW229633   6.031   4.037   2.952 -0.7179  0.2057 -0.7085
 6889SOL     OW29634   3.333   1.099   9.749  0.4791  0.4642 -0.0853
 6889SOL    HW129635   3.351   1.088   9.842  0.5007 -0.7387 -0.2213
 6889SOL    HW229636   3.249   1.056   9.735  1.2232 -0.7656 -0.9101
 6890SOL     OW29637   8.242  11.211   8.709  0.5147  0.0945 -0.2686
 6890SOL    HW129638   8.160  11.201   8.660  0.7925  2.1315 -1.2759
 6890SOL    HW229639   8.215  11.234   8.798  0.0110 -0.7500 -0.1919
 6891SOL     OW29640   9.744   7.818   6.606  0.4171  0.2950 -0.4622
 6891SOL    HW129641   9.835   7.834   6.630  0.4486 -0.9573  0.3440
 6891SOL    HW229642   9.706   7.905   6.594  1.0984  0.9156  1.5663
 6892SOL     OW29643   6.460   9.611  12.323  0.4464 -0.1683 -0.2187
 6892SOL    HW129644   6.438   9.518  12.329 -2.4094  0.4781  1.4876
 6892SOL    HW229645   6.556   9.614  12.321  0.6448 -3.0888  1.0775
 6893SOL     OW29646  10.501   6.792   5.540 -0.1826  0.7741 -0.2088
 6893SOL    HW129647  10.417   6.794   5.493  0.3159 -0.4685 -1.1965
 6893SOL    HW229648  10.565   6.769   5.473  0.9068  1.3407  0.6142
 6894SOL     OW29649  10.676  12.461   8.233  0.3452  0.0347 -0.6814
 6894SOL    HW129650  10.765  12.496   8.239  0.4225 -0.0518 -1.2672
 6894SOL    HW229651  10.688  12.371   8.203  0.2426 -1.0381  2.1415
 6895SOL     OW29652  11.572   1.753   1.704 -0.4700  0.2354 -0.0662
 6895SOL    HW129653  11.506   1.685   1.710 -0.8758  0.6903  0.9265
 6895SOL    HW229654  11.622   1.745   1.786 -0.8244  1.4128  0.2862
 6896SOL     OW29655   0.723   5.886   3.313  0.4616  0.6648  0.2996
 6896SOL    HW129656   0.682   5.827   3.250  1.0331 -1.1804  1.5394
 6896SOL    HW229657   0.810   5.902   3.278  0.9344 -0.7111  0.7722
 6897SOL     OW29658  11.951  10.696  11.256  0.6770  0.3648  0.1102
 6897SOL    HW129659  12.028  10.752  11.268  1.0841  0.0546 -1.0137
 6897SOL    HW229660  11.946  10.646  11.338  2.9846 -1.1988 -0.6032
 6898SOL     OW29661   1.561   9.719   5.850  0.3134 -0.0538  0.0620
 6898SOL    HW129662   1.473   9.730   5.887  0.6856 -1.4741  1.4365
 6898SOL    HW229663   1.554   9.754   5.761 -1.6740 -0.2598  0.1053
 6899SOL     OW29664  10.704   1.406   8.976  0.1286 -0.6628  0.7998
 6899SOL    HW129665  10.755   1.475   8.934 -1.4470 -0.2798 -0.5688
 6899SOL    HW229666  10.706   1.429   9.069  1.1689  0.1767  0.5952
 6900SOL     OW29667   2.745  12.388   7.752 -0.1517 -0.2840 -0.3127
 6900SOL    HW129668   2.702  12.371   7.836 -0.2613  3.0107  0.4469
 6900SOL    HW229669   2.674  12.411   7.693  0.0529 -1.2555 -0.9561
 6901SOL     OW29670   4.298   4.832  10.790  0.3538 -0.6877 -0.2717
 6901SOL    HW129671   4.333   4.895  10.728 -0.3822  0.4440  0.4233
 6901SOL    HW229672   4.290   4.881  10.873  1.9188 -2.3225  0.9170
 6902SOL     OW29673   2.006   3.264   6.096 -0.6780 -0.1857 -0.0536
 6902SOL    HW129674   2.000   3.321   6.173 -1.2392 -0.7424  0.3241
 6902SOL    HW229675   2.100   3.260   6.076 -0.6585  1.3817 -0.4919
 6903SOL     OW29676   0.343   4.916   9.887  0.1747  0.0928  0.6717
 6903SOL    HW129677   0.381   4.978   9.949  0.4998 -1.4688  2.1451
 6903SOL    HW229678   0.252   4.907   9.915 -0.3100  1.0344 -0.5174
 6904SOL     OW29679   1.094   1.681   9.369  0.3395 -0.2802  0.2151
 6904SOL    HW129680   1.011   1.671   9.323 -0.4420  0.9524  1.3095
 6904SOL    HW229681   1.156   1.630   9.316 -0.6736  0.3777 -1.7129
 6905SOL     OW29682   8.945   2.133   0.083  0.6610 -0.5114  0.4232
 6905SOL    HW129683   8.969   2.085   0.004 -0.4528  1.1669 -1.0118
 6905SOL    HW229684   9.009   2.105   0.149  2.7143 -0.6686 -1.5336
 6906SOL     OW29685   0.426   1.126  11.700 -0.8059 -0.7305 -0.4465
 6906SOL    HW129686   0.484   1.054  11.677 -0.3295 -1.3564  2.3462
 6906SOL    HW229687   0.371   1.091  11.770 -2.4584  0.8071 -0.9016
 6907SOL     OW29688   3.982   2.643   6.881 -0.1570  0.0377 -0.2307
 6907SOL    HW129689   3.896   2.686   6.875  0.0672  0.6533  0.7312
 6907SOL    HW229690   4.045   2.712   6.859  0.0584 -0.7251 -2.1665
 6908SOL     OW29691   7.434   2.503   5.852 -0.0561  0.0363 -0.6131
 6908SOL    HW129692   7.456   2.595   5.865 -1.1563  0.1662  0.5385
 6908SOL    HW229693   7.512   2.455   5.880  0.5763  0.6112 -1.3613
 6909SOL     OW29694   5.103   7.847   5.863 -0.4739 -0.0375 -0.1678
 6909SOL    HW129695   5.183   7.847   5.810  0.0317 -1.2261  0.5565
 6909SOL    HW229696   5.052   7.921   5.829  0.3971  0.0170 -1.4395
 6910SOL     OW29697   8.161   2.895  10.339 -0.1881 -0.5827  0.2747
 6910SOL    HW129698   8.219   2.838  10.289  0.9759  1.9179 -1.4909
 6910SOL    HW229699   8.205   2.907  10.423 -0.0772 -1.6773  0.3788
 6911SOL     OW29700   3.775  10.174   3.753  0.2242 -0.8869 -0.1845
 6911SOL    HW129701   3.830  10.147   3.827  1.1469 -2.3832 -1.3661
 6911SOL    HW229702   3.776  10.270   3.757  2.2097 -0.8872  0.3515
 6912SOL     OW29703   0.318   0.964   4.841  0.2157 -0.4455 -0.1778
 6912SOL    HW129704   0.373   1.015   4.901 -1.8958  0.4243  1.1371
 6912SOL    HW229705   0.291   0.888   4.893  1.5931 -1.8600 -1.4232
 6913SOL     OW29706   9.164  11.823   9.785  0.2445  0.2207 -0.4907
 6913SOL    HW129707   9.238  11.767   9.810 -1.6310 -1.7602  0.9992
 6913SOL    HW229708   9.167  11.895   9.849  0.4708 -0.2237  0.0122
 6914SOL     OW29709   9.286   2.906   2.699 -0.6535 -0.2010 -0.3892
 6914SOL    HW129710   9.362   2.852   2.678  0.6615  1.7101 -0.7089
 6914SOL    HW229711   9.266   2.885   2.790  0.7443 -0.1725 -0.0645
 6915SOL     OW29712   3.449   9.277   2.974  0.5016 -0.6021 -0.4089
 6915SOL    HW129713   3.497   9.302   2.895 -0.0215  1.3310 -0.1691
 6915SOL    HW229714   3.486   9.330   3.043  0.0262 -1.2826  0.3889
 6916SOL     OW29715   8.067   1.950   3.128 -0.0319 -0.0643 -0.0820
 6916SOL    HW129716   8.060   1.914   3.039  0.8271 -0.5897  0.0529
 6916SOL    HW229717   8.128   1.891   3.173 -0.0061  0.5354  0.6895
 6917SOL     OW29718  10.240   4.296  12.084 -0.3680 -0.1439  0.2910
 6917SOL    HW129719  10.269   4.376  12.129  3.9049 -0.6744 -1.0170
 6917SOL    HW229720  10.225   4.324  11.994 -1.7153 -0.3581  0.4382
 6918SOL     OW29721   5.750   8.612   2.154  0.8469 -0.7499  0.3101
 6918SOL    HW129722   5.828   8.666   2.166  0.7967 -0.3464 -1.0382
 6918SOL    HW229723   5.677   8.672   2.165  0.7819 -0.6243 -0.7374
 6919SOL     OW29724   6.083   4.391   3.184  0.3316 -0.0310  0.0595
 6919SOL    HW129725   6.009   4.338   3.212 -0.7520  0.9101 -0.9255
 6919SOL    HW229726   6.064   4.413   3.092  1.7071  0.4323 -0.1393
 6920SOL     OW29727   9.132   4.252  11.853  0.1369 -0.1797  0.0720
 6920SOL    HW129728   9.143   4.187  11.922  1.4046  1.0174  1.0573
 6920SOL    HW229729   9.217   4.294  11.845 -0.7332  1.6678 -0.1987
 6921SOL     OW29730   0.056  12.510   3.021  0.7689 -0.2820 -0.1080
 6921SOL    HW129731   0.130  12.449   3.021  0.6371 -0.4413  0.1100
 6921SOL    HW229732   0.036  12.524   3.113 -0.3343 -1.2958 -0.1666
 6922SOL     OW29733   1.044   9.443  10.285  0.1670  0.1448 -0.2328
 6922SOL    HW129734   1.100   9.435  10.208 -1.2090 -1.2004 -1.1677
 6922SOL    HW229735   0.976   9.376  10.272 -1.7029  1.7412  0.7964
 6923SOL     OW29736   0.815   9.150   4.795 -0.4308 -0.3833 -0.2225
 6923SOL    HW129737   0.846   9.154   4.886 -0.6753 -1.1793 -0.0929
 6923SOL    HW229738   0.861   9.221   4.751  0.1657 -0.3789  0.3840
 6924SOL     OW29739   7.731   9.444   5.088  0.3602  0.1387 -0.0593
 6924SOL    HW129740   7.649   9.493   5.094  0.4652  0.4705 -1.2121
 6924SOL    HW229741   7.717   9.380   5.019  1.8182  1.7595 -1.9943
 6925SOL     OW29742   5.955   1.178   5.188 -0.4197  0.4055  0.3923
 6925SOL    HW129743   6.005   1.233   5.249 -2.0203 -0.2706  2.4490
 6925SOL    HW229744   5.869   1.220   5.184 -0.9414 -0.6712  0.1369
 6926SOL     OW29745   4.471  10.755   0.068  0.3198 -0.3705 -0.2458
 6926SOL    HW129746   4.425  10.722  -0.009 -0.0728 -1.3165  0.3879
 6926SOL    HW229747   4.402  10.790   0.124  0.7598  2.3363 -1.2236
 6927SOL     OW29748   2.414   4.824   1.317 -0.2493  0.0782  0.1326
 6927SOL    HW129749   2.456   4.740   1.299 -2.2951 -1.0467  0.3460
 6927SOL    HW229750   2.461   4.858   1.393  1.6415 -0.0805 -0.9143
 6928SOL     OW29751   4.797  10.303   9.896  0.6127  0.3921  0.0881
 6928SOL    HW129752   4.708  10.336   9.898  0.2539 -0.5313 -0.1762
 6928SOL    HW229753   4.851  10.381   9.881 -0.1400  0.9601  0.2627
 6929SOL     OW29754   5.562  12.098  10.015 -0.1887  0.6565 -0.2371
 6929SOL    HW129755   5.599  12.033   9.956  1.1439  1.3951 -0.2598
 6929SOL    HW229756   5.519  12.161   9.957 -1.4459 -0.1517 -0.2168
 6930SOL     OW29757  10.714   1.232   7.643  0.0410 -0.2877  0.0629
 6930SOL    HW129758  10.729   1.145   7.681  1.0774 -0.1893 -0.0899
 6930SOL    HW229759  10.642   1.219   7.581  1.5770 -1.5370 -1.5576
 6931SOL     OW29760   7.510   5.236   0.737  0.1799  0.4484 -0.2551
 6931SOL    HW129761   7.545   5.165   0.682  0.0480 -0.5302  0.8676
 6931SOL    HW229762   7.416   5.220   0.740  0.3038 -0.2133  1.1452
 6932SOL     OW29763   6.118  12.213   6.499 -0.0744  0.0766  0.4286
 6932SOL    HW129764   6.204  12.177   6.520  0.8701  1.7025 -0.4322
 6932SOL    HW229765   6.135  12.304   6.475 -2.1294  0.6264  0.8526
 6933SOL     OW29766   2.925   4.745   2.872 -0.1206  0.5485 -0.2224
 6933SOL    HW129767   2.870   4.731   2.795  0.2227  0.2203 -0.4120
 6933SOL    HW229768   2.887   4.821   2.916 -0.3807  0.6721 -0.6606
 6934SOL     OW29769   4.248   8.964   3.054  0.0353 -0.6376  0.2490
 6934SOL    HW129770   4.296   9.033   3.102 -1.5710  0.7862 -0.1069
 6934SOL    HW229771   4.218   8.905   3.123  1.8094 -1.2967  0.5272
 6935SOL     OW29772   2.586   3.297  11.426 -0.2296  0.1001  0.6985
 6935SOL    HW129773   2.530   3.313  11.351 -0.8003 -1.7297  0.6799
 6935SOL    HW229774   2.570   3.205  11.449  1.4291  0.0398  1.8057
 6936SOL     OW29775   9.334   8.205   6.746 -0.4821 -0.4159 -0.4560
 6936SOL    HW129776   9.293   8.135   6.797  1.2285 -2.0632 -1.1887
 6936SOL    HW229777   9.334   8.281   6.804 -0.6837 -1.5661  1.1244
 6937SOL     OW29778   3.689   9.592  12.065 -0.8906  0.1929 -0.6021
 6937SOL    HW129779   3.729   9.528  12.007 -0.4032 -0.1235  0.0780
 6937SOL    HW229780   3.632   9.540  12.122 -1.3108  0.4960 -0.7355
 6938SOL     OW29781   6.119   2.855   3.606  0.4343 -0.3788  0.3045
 6938SOL    HW129782   6.036   2.808   3.617  0.5232 -0.1537  2.3540
 6938SOL    HW229783   6.093   2.945   3.585  0.1645 -0.4021  0.5315
 6939SOL     OW29784   0.269  12.408  11.820  0.0203 -0.0710 -0.0837
 6939SOL    HW129785   0.270  12.489  11.769 -2.5599 -0.3270 -0.7092
 6939SOL    HW229786   0.257  12.437  11.911 -0.4990  0.2699 -0.2558
 6940SOL     OW29787   6.706   6.402  11.048 -0.2486 -0.2166  0.0942
 6940SOL    HW129788   6.750   6.487  11.048 -0.0320 -0.2165  3.0671
 6940SOL    HW229789   6.774   6.340  11.022 -0.2479  0.4071 -1.4991
 6941SOL     OW29790  10.992   2.799   2.415  0.1140  0.1821 -0.3170
 6941SOL    HW129791  10.939   2.746   2.475 -1.9916  1.6288 -0.8087
 6941SOL    HW229792  11.027   2.735   2.353 -0.4948 -0.9045  0.4070
 6942SOL     OW29793   8.287  10.514   0.742 -0.0705 -0.1010  0.8333
 6942SOL    HW129794   8.315  10.583   0.682 -0.3840 -0.1560  0.6205
 6942SOL    HW229795   8.192  10.523   0.746 -0.2284 -1.2166 -0.0628
 6943SOL     OW29796   5.060   3.567   1.281  0.5215 -0.3439  0.0375
 6943SOL    HW129797   5.063   3.472   1.292  1.6922 -0.4219 -0.7367
 6943SOL    HW229798   5.089   3.602   1.366  0.7107 -0.6932  0.1188
 6944SOL     OW29799  10.676   0.338   3.180  0.1312  0.4205  0.4571
 6944SOL    HW129800  10.586   0.356   3.207 -0.2017 -2.6584  1.7506
 6944SOL    HW229801  10.730   0.371   3.252 -0.1333  0.2318  0.7436
 6945SOL     OW29802   5.169   6.900  11.331  0.0222 -0.0868 -0.6444
 6945SOL    HW129803   5.135   6.913  11.243 -1.4660  0.2872 -0.0392
 6945SOL    HW229804   5.110   6.837  11.372 -0.3102  0.9971  0.6192
 6946SOL     OW29805   4.854   9.319   5.431  0.0282  0.1392  0.1521
 6946SOL    HW129806   4.924   9.304   5.494 -0.1410  1.0452  0.5720
 6946SOL    HW229807   4.810   9.234   5.424  0.3988 -0.1204  0.8247
 6947SOL     OW29808   1.670  12.286   5.587  0.5025  0.3072  0.1434
 6947SOL    HW129809   1.709  12.336   5.659  0.7957 -0.0578  0.2402
 6947SOL    HW229810   1.742  12.235   5.551  0.8224  1.9801 -1.7227
 6948SOL     OW29811   6.630   4.468   5.368  0.2658  0.1235 -0.2424
 6948SOL    HW129812   6.629   4.382   5.410 -0.3259 -0.4835 -1.4728
 6948SOL    HW229813   6.713   4.507   5.397 -0.6687  0.2850  2.5330
 6949SOL     OW29814   8.809   7.610   3.190  0.2918  0.4488 -0.0069
 6949SOL    HW129815   8.797   7.688   3.136  0.2098 -0.8582 -1.9774
 6949SOL    HW229816   8.894   7.622   3.232  0.1723  1.6846 -0.0887
 6950SOL     OW29817   0.519  12.108   7.992  0.5029  0.1659 -0.6001
 6950SOL    HW129818   0.449  12.125   8.056 -0.1752 -0.0188 -1.2789
 6950SOL    HW229819   0.510  12.015   7.972  1.6942 -0.1319  0.1652
 6951SOL     OW29820   8.920   3.110   3.413 -0.2460  1.0087 -0.2566
 6951SOL    HW129821   8.865   3.082   3.341  0.5141 -0.7871 -0.2036
 6951SOL    HW229822   8.860   3.120   3.487 -0.5870 -0.5445 -0.2915
 6952SOL     OW29823   4.432   9.765  12.174 -0.4123 -0.3507 -0.3030
 6952SOL    HW129824   4.437   9.673  12.148 -1.1924 -0.6241  0.4511
 6952SOL    HW229825   4.521   9.798  12.162  0.6373 -1.9740  2.1532
 6953SOL     OW29826   6.404   8.608   6.113 -0.4112 -0.3728 -0.4411
 6953SOL    HW129827   6.495   8.580   6.110 -0.0909  0.4168  1.1400
 6953SOL    HW229828   6.405   8.699   6.082 -0.8366 -0.6791 -1.4167
 6954SOL     OW29829   4.204   7.647   5.267 -0.2309 -0.2321 -0.2037
 6954SOL    HW129830   4.172   7.713   5.329  1.4237  0.0174  0.4453
 6954SOL    HW229831   4.267   7.694   5.212  1.5713 -1.3811  0.7667
 6955SOL     OW29832   8.943  10.114   9.886 -0.0399 -0.3811  0.1911
 6955SOL    HW129833   8.889  10.041   9.914 -0.7184 -0.3496 -0.9857
 6955SOL    HW229834   8.960  10.164   9.966 -0.5572 -1.1706  0.7995
 6956SOL     OW29835  10.783   2.349   9.717 -0.6808  0.2409  0.0551
 6956SOL    HW129836  10.700   2.390   9.694 -0.0089  1.6937  0.0927
 6956SOL    HW229837  10.828   2.415   9.770  0.7863 -0.2308 -0.5621
 6957SOL     OW29838   8.823  11.404   9.569  0.2997 -0.5334 -0.3166
 6957SOL    HW129839   8.802  11.318   9.606 -0.8508  0.2228  0.8336
 6957SOL    HW229840   8.783  11.403   9.482  0.7113 -1.3313 -0.5050
 6958SOL     OW29841   8.498   4.370   7.961 -0.8696  0.0139 -0.0676
 6958SOL    HW129842   8.531   4.444   8.012  0.2016  1.7889 -3.0663
 6958SOL    HW229843   8.446   4.319   8.023  0.6035  1.7672  2.8016
 6959SOL     OW29844  12.451   8.190   0.516  0.2328 -0.6212 -0.3398
 6959SOL    HW129845  12.358   8.185   0.535 -0.1083  0.5212 -1.5537
 6959SOL    HW229846  12.492   8.215   0.599 -0.8348  1.2334 -0.3143
 6960SOL     OW29847   1.256   6.542   0.903 -0.1516 -0.7806 -0.4268
 6960SOL    HW129848   1.223   6.452   0.898  0.7796 -1.2112  0.7709
 6960SOL    HW229849   1.177   6.595   0.918 -0.7625 -1.3271 -1.6036
 6961SOL     OW29850   1.330   8.048   9.316 -0.1442  0.2824 -0.3081
 6961SOL    HW129851   1.300   7.961   9.343 -0.8681  0.7007  0.2789
 6961SOL    HW229852   1.316   8.104   9.393 -0.1987  1.0329 -0.8472
 6962SOL     OW29853   2.838   4.335   0.621  0.7510  0.2515  0.0952
 6962SOL    HW129854   2.822   4.241   0.634 -0.6470  0.5478  0.7641
 6962SOL    HW229855   2.866   4.343   0.530  1.4659 -0.8741  0.2016
 6963SOL     OW29856   2.002   1.948   5.002  0.9383 -0.3232  0.1228
 6963SOL    HW129857   1.968   1.911   5.083  3.0700 -0.4352  1.0162
 6963SOL    HW229858   2.061   1.880   4.967  0.7679  0.0999 -1.0405
 6964SOL     OW29859   0.115   6.066   5.066  0.2083  0.1353 -0.0688
 6964SOL    HW129860   0.119   6.123   4.989  0.6241  0.4854  0.2087
 6964SOL    HW229861   0.194   6.087   5.115 -1.3073  1.8678  1.8326
 6965SOL     OW29862   5.457   3.091   0.415  0.5499  0.1742 -0.0802
 6965SOL    HW129863   5.458   3.044   0.332 -0.6385  0.2870 -0.1866
 6965SOL    HW229864   5.549   3.099   0.440  0.8619 -0.7619 -0.8680
 6966SOL     OW29865   0.771   0.960   7.350 -0.4996 -0.0715  0.1047
 6966SOL    HW129866   0.728   0.988   7.270  1.2103 -1.6921 -1.4600
 6966SOL    HW229867   0.753   0.866   7.356 -1.1236  0.1222  2.0097
 6967SOL     OW29868   0.177   5.720   2.129  0.1190 -0.4358  0.0824
 6967SOL    HW129869   0.234   5.686   2.060  1.3610  0.3670  0.6600
 6967SOL    HW229870   0.223   5.797   2.161 -1.1052 -0.0171  0.8897
 6968SOL     OW29871   8.792   0.067   2.713  0.5670 -0.0148 -0.0272
 6968SOL    HW129872   8.881   0.045   2.740  0.3590 -1.4839 -0.4546
 6968SOL    HW229873   8.799   0.083   2.619  0.7050  1.8333  0.2630
 6969SOL     OW29874  11.248   5.743   7.351 -0.5372 -0.1466  0.1070
 6969SOL    HW129875  11.341   5.756   7.369 -0.9035  1.1419  1.2710
 6969SOL    HW229876  11.229   5.804   7.280 -0.0161 -2.1743 -1.8879
 6970SOL     OW29877   3.613   1.525  11.079  0.0933  0.2205  0.3253
 6970SOL    HW129878   3.598   1.472  11.001  1.8996 -0.1361  0.1916
 6970SOL    HW229879   3.553   1.488  11.144 -1.7656  0.7981 -0.9500
 6971SOL     OW29880   8.372   5.539  10.912 -0.2936 -0.2316 -0.4018
 6971SOL    HW129881   8.412   5.601  10.973 -0.4366 -0.5517  0.0175
 6971SOL    HW229882   8.282   5.569  10.902 -0.3958 -0.4438 -0.1066
 6972SOL     OW29883   0.770   9.425   9.764  0.0924 -0.0996 -0.7636
 6972SOL    HW129884   0.775   9.376   9.681  0.2475  2.7528 -2.5614
 6972SOL    HW229885   0.741   9.512   9.739  0.2877  0.9295  2.2153
 6973SOL     OW29886   4.480   1.161   4.431  0.3453  0.6745  0.9865
 6973SOL    HW129887   4.386   1.144   4.429  0.3988  0.4124 -0.3064
 6973SOL    HW229888   4.519   1.078   4.458  0.4789 -0.9555 -3.3929
 6974SOL     OW29889  11.428   3.218   0.101  0.6025  0.2042  0.5186
 6974SOL    HW129890  11.396   3.306   0.122  1.8651  1.3596 -1.9898
 6974SOL    HW229891  11.522   3.230   0.088  0.4948 -1.0658 -1.8924
 6975SOL     OW29892   8.265   3.505  10.658 -0.0765 -0.1626 -0.3054
 6975SOL    HW129893   8.299   3.583  10.614  1.3769 -0.7100 -0.1994
 6975SOL    HW229894   8.203   3.540  10.722  1.4907  1.0524  0.6444
 6976SOL     OW29895   5.942   1.017   4.809 -0.2355 -0.4506  0.8725
 6976SOL    HW129896   5.851   1.027   4.782 -0.3138 -0.6068  1.0769
 6976SOL    HW229897   5.937   0.976   4.895  0.0912 -3.0175 -0.2483
 6977SOL     OW29898   5.510  12.046   5.393  0.0049 -0.4282  0.0149
 6977SOL    HW129899   5.537  12.118   5.336 -0.1250  0.3029  0.8602
 6977SOL    HW229900   5.574  11.977   5.376 -0.9254 -0.8276 -2.1443
 6978SOL     OW29901   0.300   5.669   8.100 -0.4885 -0.3354 -0.0539
 6978SOL    HW129902   0.310   5.669   8.005  1.8986  0.5401  0.1189
 6978SOL    HW229903   0.289   5.577   8.123 -0.6435 -0.6055 -1.1369
 6979SOL     OW29904   1.969  10.705   8.003  0.2909 -0.1781 -0.2913
 6979SOL    HW129905   2.050  10.682   7.956  0.4832 -0.7484  0.3158
 6979SOL    HW229906   1.983  10.674   8.092 -0.0681  0.9197  0.1595
 6980SOL     OW29907   8.171   0.114   8.021 -0.3527  0.1317 -0.3130
 6980SOL    HW129908   8.241   0.090   7.961 -1.0172 -0.9159 -0.6993
 6980SOL    HW229909   8.106   0.044   8.012  0.1258 -0.8610  2.6638
 6981SOL     OW29910   9.811   6.347   5.864 -0.0895 -0.5378 -0.6763
 6981SOL    HW129911   9.831   6.323   5.774  1.2729 -0.1345 -0.5080
 6981SOL    HW229912   9.721   6.378   5.861 -0.2260 -1.0017 -1.8049
 6982SOL     OW29913   0.179  10.787   0.589  0.2688 -0.3993  0.6188
 6982SOL    HW129914   0.256  10.738   0.616  0.1145 -1.4340 -0.7075
 6982SOL    HW229915   0.214  10.860   0.538  0.4192 -0.2211  0.9766
 6983SOL     OW29916   4.711   0.578   6.630 -0.2914  0.3398  0.6591
 6983SOL    HW129917   4.739   0.504   6.576 -1.1353 -0.8956  1.8604
 6983SOL    HW229918   4.645   0.623   6.577 -1.7048 -1.3301  0.9321
 6984SOL     OW29919   6.591   6.386   5.192 -0.1163 -0.4368  0.1212
 6984SOL    HW129920   6.622   6.467   5.233  1.4795 -0.5345 -0.7904
 6984SOL    HW229921   6.561   6.414   5.105  0.2298 -0.7802 -0.1113
 6985SOL     OW29922   1.981  10.854   3.110 -0.0252  0.1368 -0.2589
 6985SOL    HW129923   2.064  10.830   3.151 -1.1096 -0.4240  1.7242
 6985SOL    HW229924   1.975  10.949   3.122 -0.2152  0.0138  0.7150
 6986SOL     OW29925   2.411   0.079   5.193 -0.5415 -0.5354  0.0560
 6986SOL    HW129926   2.486   0.021   5.207 -0.6257 -0.1054  2.8497
 6986SOL    HW229927   2.385   0.063   5.102  3.6418  0.2186 -1.4958
 6987SOL     OW29928   7.680   0.303   4.785 -0.1327  0.1848 -0.1847
 6987SOL    HW129929   7.732   0.382   4.800 -0.2145  0.2332 -0.1518
 6987SOL    HW229930   7.590   0.335   4.773 -0.8089 -0.0944  3.1748
 6988SOL     OW29931   5.804   1.540   3.549  0.0832  0.2979  0.3307
 6988SOL    HW129932   5.878   1.514   3.603 -0.5397 -0.0461  1.0546
 6988SOL    HW229933   5.821   1.502   3.463  1.0138  0.7108  0.3287
 6989SOL     OW29934   8.035   1.517  10.234 -0.5191 -0.4603  0.3378
 6989SOL    HW129935   7.995   1.448  10.182  0.5369  0.3156 -1.6065
 6989SOL    HW229936   7.974   1.591  10.226  1.0613  0.6823 -2.5251
 6990SOL     OW29937  11.026   8.013   0.837  0.1647  0.0782 -0.3325
 6990SOL    HW129938  10.982   8.035   0.920  1.4502 -0.0338  0.3961
 6990SOL    HW229939  11.095   7.953   0.862  1.6853  1.3804 -1.2493
 6991SOL     OW29940   3.990   2.965   7.220  0.2071  0.1309  0.1447
 6991SOL    HW129941   4.074   2.956   7.176  0.1301 -0.0757  0.0401
 6991SOL    HW229942   3.991   2.898   7.289  0.2764  0.3684  0.3800
 6992SOL     OW29943   9.731   5.825  11.092  0.0773  0.4717  0.1605
 6992SOL    HW129944   9.765   5.745  11.051 -1.2805 -0.3448  0.5702
 6992SOL    HW229945   9.754   5.817  11.184 -0.1759  0.4848  0.2263
 6993SOL     OW29946   2.800  11.430   8.481 -0.3260 -0.3533  0.2094
 6993SOL    HW129947   2.856  11.506   8.466  1.4025 -1.2906  1.4620
 6993SOL    HW229948   2.721  11.465   8.522 -1.1558  1.1207 -2.3860
 6994SOL     OW29949   0.384   9.675  11.393  0.2936 -0.0373 -0.0471
 6994SOL    HW129950   0.324   9.722  11.450 -1.4566 -2.4419  0.2592
 6994SOL    HW229951   0.357   9.583  11.400  2.0392 -0.8262 -2.3315
 6995SOL     OW29952   0.392   0.674  10.816 -0.0599  0.7339  0.5537
 6995SOL    HW129953   0.297   0.668  10.800  0.1391  0.5003 -0.7097
 6995SOL    HW229954   0.430   0.615  10.750  0.8462 -1.5337  2.9501
 6996SOL     OW29955   0.586   5.892   2.412 -0.1952  0.0544  0.2159
 6996SOL    HW129956   0.621   5.840   2.484 -0.7841  2.0254  2.0309
 6996SOL    HW229957   0.543   5.966   2.455 -0.5557  1.3284 -2.1827
 6997SOL     OW29958   5.064   2.046   6.748  0.1090 -0.6196  0.0693
 6997SOL    HW129959   5.095   2.101   6.676  2.0100  0.3871  1.5722
 6997SOL    HW229960   5.045   1.961   6.707  1.1402 -0.0764 -1.6025
 6998SOL     OW29961   9.069   4.522   5.217 -0.2269 -0.1186  0.3536
 6998SOL    HW129962   9.097   4.490   5.131 -0.8055 -0.7226  0.3810
 6998SOL    HW229963   8.984   4.480   5.231 -0.6938  0.9158  0.6927
 6999SOL     OW29964   2.332   7.723  12.214 -0.2090 -0.0288  0.4627
 6999SOL    HW129965   2.405   7.769  12.255 -0.5566 -0.4664  1.6173
 6999SOL    HW229966   2.256   7.744  12.269 -0.5324 -1.3044  0.5490
 7000SOL     OW29967   1.936   9.062   8.793 -0.1777 -0.3658  0.0109
 7000SOL    HW129968   1.875   9.084   8.722 -0.3158  0.6784  0.4306
 7000SOL    HW229969   1.931   9.137   8.853 -0.4282 -1.4271  1.3768
 7001SOL     OW29970   8.724   0.262   9.116  0.1410 -0.7380  0.1525
 7001SOL    HW129971   8.729   0.206   9.039  2.9084  0.3190 -0.5903
 7001SOL    HW229972   8.779   0.218   9.182  0.6192  0.0150  0.2805
 7002SOL     OW29973   1.039  11.486  10.606 -0.5334 -0.4997 -0.1359
 7002SOL    HW129974   0.972  11.529  10.553 -2.5682 -4.2765 -1.0021
 7002SOL    HW229975   1.017  11.509  10.696 -0.9164  0.9746 -0.5889
 7003SOL     OW29976  12.382   3.186  12.462  0.4503 -0.4806  0.0435
 7003SOL    HW129977  12.367   3.269  12.417  1.8844 -0.8810 -1.2769
 7003SOL    HW229978  12.419   3.211  12.547 -1.2769  0.2561  0.6164
 7004SOL     OW29979  11.518  11.257   3.867  0.1006 -0.0796  0.3972
 7004SOL    HW129980  11.437  11.207   3.863  0.0964 -0.4717  3.2042
 7004SOL    HW229981  11.584  11.194   3.896  0.6094  0.9896  1.6657
 7005SOL     OW29982   3.406  11.221   3.915  0.0140 -0.0346  0.2399
 7005SOL    HW129983   3.454  11.303   3.922  0.7736 -0.3757 -0.6667
 7005SOL    HW229984   3.469  11.154   3.942 -1.1005 -0.2416  2.6511
 7006SOL     OW29985   2.090   4.718   7.510  0.2254  0.0598  0.1821
 7006SOL    HW129986   2.079   4.634   7.465 -0.8144 -0.7554  1.8203
 7006SOL    HW229987   2.168   4.706   7.564 -0.0320  0.0624  0.5592
 7007SOL     OW29988   4.205   2.598   9.487 -0.0569  0.6641 -0.2276
 7007SOL    HW129989   4.127   2.578   9.435  0.3972  1.8492 -1.4244
 7007SOL    HW229990   4.179   2.672   9.541 -0.6970 -0.8888  1.7420
 7008SOL     OW29991  11.925  11.509   6.639 -0.1224 -0.5402 -0.0019
 7008SOL    HW129992  11.954  11.600   6.635 -1.8967  0.1556  1.6809
 7008SOL    HW229993  11.992  11.465   6.692  0.6351 -0.2001 -0.6479
 7009SOL     OW29994  11.390   5.646   6.721  0.7287 -0.3551  0.1714
 7009SOL    HW129995  11.413   5.597   6.642 -1.3572  0.1851 -0.8441
 7009SOL    HW229996  11.371   5.734   6.689 -1.8084 -0.5456  0.9668
 7010SOL     OW29997  12.390   1.820   0.706  0.2760  0.3516 -0.3154
 7010SOL    HW129998  12.342   1.759   0.763  0.3888 -0.2809 -0.8823
 7010SOL    HW229999  12.322   1.878   0.670 -0.1007 -0.6064 -1.1989
 7011SOL     OW30000   2.283   7.579   7.715  0.1478 -0.3596  0.3653
 7011SOL    HW130001   2.372   7.566   7.749  0.7581  0.9078 -0.6293
 7011SOL    HW230002   2.243   7.493   7.719  1.0309 -0.7366  1.9020
 7012SOL     OW30003   7.129   8.871   6.862 -0.3401 -0.1713  0.0057
 7012SOL    HW130004   7.182   8.853   6.784 -1.5537  1.1249 -1.1788
 7012SOL    HW230005   7.193   8.876   6.933  1.3008  2.0887 -1.4836
 7013SOL     OW30006   9.330   5.131  12.276 -0.2343 -0.2165 -0.9358
 7013SOL    HW130007   9.242   5.153  12.306 -0.2365 -0.8223 -0.4944
 7013SOL    HW230008   9.348   5.196  12.208  0.3374  2.0997  1.3024
 7014SOL     OW30009   8.337   6.389   6.656 -0.4511 -0.3396  0.3677
 7014SOL    HW130010   8.348   6.477   6.618 -0.6196 -0.3907  0.1964
 7014SOL    HW230011   8.270   6.400   6.723 -0.9479 -0.4652 -0.1020
 7015SOL     OW30012   8.050  10.007  11.983  0.8156 -0.1085  0.2534
 7015SOL    HW130013   8.114  10.029  12.051 -0.5834  0.5127  1.4269
 7015SOL    HW230014   8.079  10.056  11.906  1.6937  0.2410  0.7885
 7016SOL     OW30015   2.570   3.504  12.156  0.0493 -0.4430 -0.0478
 7016SOL    HW130016   2.491   3.539  12.114 -0.8839 -1.5574  0.7007
 7016SOL    HW230017   2.617   3.582  12.186 -1.2203  0.2319  0.2901
 7017SOL     OW30018   6.544   2.498   4.111  0.4520 -0.5192  0.5950
 7017SOL    HW130019   6.607   2.457   4.170 -0.5527 -2.2777  0.5336
 7017SOL    HW230020   6.467   2.514   4.166  0.1647 -0.4599  0.1819
 7018SOL     OW30021   2.978   5.477   9.147 -0.0027 -0.0990  0.1240
 7018SOL    HW130022   2.893   5.511   9.175  1.2572  1.7556  1.9959
 7018SOL    HW230023   3.002   5.530   9.071 -0.7665 -1.0825 -0.8352
 7019SOL     OW30024   9.376   9.477   7.346 -0.4774 -0.1225 -0.1218
 7019SOL    HW130025   9.416   9.402   7.302 -1.3597  0.1190 -1.4013
 7019SOL    HW230026   9.428   9.489   7.425  0.4438 -1.3132 -0.5126
 7020SOL     OW30027  12.375   4.272   0.584  0.3218  0.3335  0.2390
 7020SOL    HW130028  12.457   4.225   0.597  0.9077  0.4444 -2.4736
 7020SOL    HW230029  12.327   4.220   0.520 -0.5246  1.6495 -0.2432
 7021SOL     OW30030  11.774   4.459   6.460 -0.3363  0.1298  0.5198
 7021SOL    HW130031  11.854   4.498   6.424 -0.1613 -0.5728  0.1163
 7021SOL    HW230032  11.802   4.416   6.540 -0.0611 -1.0768 -0.1925
 7022SOL     OW30033  11.494  10.371   0.723  0.2686 -0.4608  0.0588
 7022SOL    HW130034  11.411  10.386   0.678  1.0921 -0.9124 -1.7337
 7022SOL    HW230035  11.502  10.276   0.727  0.4148 -0.4199  0.7894
 7023SOL     OW30036   7.404   9.949   3.532  0.5951 -0.4062  0.1450
 7023SOL    HW130037   7.423  10.007   3.606 -0.8153 -2.0758  1.9481
 7023SOL    HW230038   7.437   9.863   3.561  1.3615 -0.8251 -1.8347
 7024SOL     OW30039   3.877   0.782   6.858 -0.0547 -0.5474 -0.1216
 7024SOL    HW130040   3.818   0.853   6.833 -0.6686 -0.8214  0.4888
 7024SOL    HW230041   3.939   0.823   6.918 -0.1939 -0.4455 -0.0447
 7025SOL     OW30042   6.647   7.080   4.961  0.4742 -0.1599  0.0334
 7025SOL    HW130043   6.734   7.082   5.001  0.2413 -0.0236  0.5434
 7025SOL    HW230044   6.656   7.130   4.880  1.0074 -0.6244 -0.2045
 7026SOL     OW30045   0.944   2.452   9.824 -0.4903  1.0938  0.1350
 7026SOL    HW130046   0.890   2.389   9.777 -1.4715  1.0082  1.3207
 7026SOL    HW230047   0.893   2.533   9.822  0.5248  1.7404 -0.9312
 7027SOL     OW30048   4.397  10.548   6.308 -0.2210  0.1195 -0.3768
 7027SOL    HW130049   4.370  10.632   6.270 -1.3632 -0.4319 -0.8271
 7027SOL    HW230050   4.455  10.572   6.381 -0.0158  1.2682 -0.8961
 7028SOL     OW30051  10.327   8.528   3.641 -0.0277  0.4981 -0.2713
 7028SOL    HW130052  10.403   8.544   3.695 -0.4082  0.6125  0.2360
 7028SOL    HW230053  10.344   8.577   3.560  0.0196  1.2754  0.2016
 7029SOL     OW30054   0.865   7.406   0.313  0.1736  0.6202  0.4608
 7029SOL    HW130055   0.925   7.467   0.271 -2.0380  2.4098 -0.3037
 7029SOL    HW230056   0.898   7.397   0.402  2.5210  0.1249 -0.3853
 7030SOL     OW30057   1.688   9.162   8.664  0.0375 -0.1575 -0.0565
 7030SOL    HW130058   1.694   9.153   8.569  1.4775  2.9058 -0.3843
 7030SOL    HW230059   1.618   9.226   8.677 -0.4979 -0.9387  0.9953
 7031SOL     OW30060   2.153   0.922   2.588  0.1359 -0.3794  0.2362
 7031SOL    HW130061   2.091   0.885   2.652 -0.9527  1.5248  0.3637
 7031SOL    HW230062   2.107   0.916   2.504 -0.3988  1.3185  0.3757
 7032SOL     OW30063  11.682   4.769   2.910 -0.1781  0.1564 -0.0240
 7032SOL    HW130064  11.744   4.786   2.839 -0.7165  0.0450 -0.5268
 7032SOL    HW230065  11.724   4.701   2.962  0.1183  0.0711 -0.3661
 7033SOL     OW30066   9.568   1.667   4.448 -0.3935 -0.2192  0.5210
 7033SOL    HW130067   9.610   1.753   4.442 -0.9431 -0.0340 -2.4570
 7033SOL    HW230068   9.594   1.622   4.367 -1.1938 -2.3593  1.3728
 7034SOL     OW30069   2.488   3.021  10.879 -0.4446 -0.0447 -0.1644
 7034SOL    HW130070   2.452   3.019  10.790 -0.5856  3.1457 -0.2754
 7034SOL    HW230071   2.411   3.027  10.936 -0.2858 -0.1555  0.0663
 7035SOL     OW30072   0.491   7.669  11.936 -0.0490 -0.4116 -0.3124
 7035SOL    HW130073   0.457   7.642  11.850  1.1789 -0.7345 -0.7169
 7035SOL    HW230074   0.478   7.764  11.938 -0.2950 -0.4311 -0.7562
 7036SOL     OW30075   6.096   3.160   9.765  0.2899  0.5798 -0.5049
 7036SOL    HW130076   6.012   3.187   9.728  0.7872  0.6616 -1.5991
 7036SOL    HW230077   6.150   3.139   9.689  1.1222  0.1029  0.2046
 7037SOL     OW30078   9.990  10.501   3.302 -0.3535 -0.4908  0.5364
 7037SOL    HW130079   9.963  10.495   3.393  0.8580  0.9903  1.0393
 7037SOL    HW230080  10.057  10.571   3.301  0.7741 -1.5102 -1.2061
 7038SOL     OW30081  10.461  11.494   5.614  0.6418 -0.5386  0.1264
 7038SOL    HW130082  10.471  11.443   5.694 -0.0130  0.0957  0.6282
 7038SOL    HW230083  10.442  11.583   5.644  0.6076 -0.2448 -0.7276
 7039SOL     OW30084   9.248   0.102   6.002 -0.4379 -0.3164  0.0887
 7039SOL    HW130085   9.335   0.066   5.980 -0.5458 -0.2099 -0.5272
 7039SOL    HW230086   9.204   0.030   6.048  0.1810 -0.1739  0.9161
 7040SOL     OW30087  11.217   7.071   4.013 -0.0342  0.2583  0.3189
 7040SOL    HW130088  11.193   6.982   4.036 -0.1216  0.3548  0.6180
 7040SOL    HW230089  11.295   7.089   4.066  1.1766 -0.3182 -1.2158
 7041SOL     OW30090   6.130  10.138   8.110  0.7552 -0.3394  0.4886
 7041SOL    HW130091   6.072  10.213   8.119  0.0226 -0.9945  1.4523
 7041SOL    HW230092   6.215  10.171   8.141  0.5775  0.2435  0.3712
 7042SOL     OW30093   3.360   4.229   2.552  0.0930 -0.1928 -0.1047
 7042SOL    HW130094   3.300   4.162   2.518  1.1315 -1.0808 -0.2440
 7042SOL    HW230095   3.364   4.211   2.646 -1.5444  1.2633  0.2864
 7043SOL     OW30096  12.446   5.239   8.927 -0.1301 -0.1977 -0.2382
 7043SOL    HW130097  12.428   5.197   9.011  0.8644  1.1834  0.7198
 7043SOL    HW230098  12.369   5.293   8.910 -1.6427 -2.6328 -1.7238
 7044SOL     OW30099   7.683   2.744  11.266 -0.0572  0.7166 -0.0606
 7044SOL    HW130100   7.683   2.705  11.353  0.5768  1.5116  0.3064
 7044SOL    HW230101   7.762   2.708  11.224 -0.2161  0.5467 -0.2191
 7045SOL     OW30102   7.508  12.472   2.358  0.3381 -0.2368  0.0283
 7045SOL    HW130103   7.448  12.402   2.333 -0.8083  0.3491  1.0409
 7045SOL    HW230104   7.460  12.523   2.423  1.3875  1.1128 -0.2014
 7046SOL     OW30105   3.035   1.123   5.952 -0.4338  0.2505  0.5386
 7046SOL    HW130106   3.082   1.205   5.962  0.2509 -0.3430  2.7982
 7046SOL    HW230107   2.984   1.115   6.033 -1.5297 -0.9184 -0.2270
 7047SOL     OW30108   8.734   7.530   5.451  0.0710 -0.5477 -0.1579
 7047SOL    HW130109   8.735   7.603   5.390  0.0023 -0.2952  0.1379
 7047SOL    HW230110   8.756   7.569   5.536 -0.5338 -0.7610  0.1100
 7048SOL     OW30111   0.840   3.978   0.835  0.3241 -0.3784  0.0401
 7048SOL    HW130112   0.890   4.015   0.908  1.4980  1.7682 -1.7330
 7048SOL    HW230113   0.900   3.915   0.794  0.2389 -0.4436  0.0158
 7049SOL     OW30114   4.197   9.579   8.199  0.2279  0.0369 -0.2956
 7049SOL    HW130115   4.108   9.596   8.168  0.4093 -0.2757 -1.0142
 7049SOL    HW230116   4.239   9.665   8.200  0.2603  0.0408 -1.0846
 7050SOL     OW30117   9.082   5.529   4.177  0.3705 -0.4968 -0.3290
 7050SOL    HW130118   9.158   5.497   4.128  0.2338 -0.7985 -0.3474
 7050SOL    HW230119   9.039   5.590   4.118 -0.2237 -1.4376 -0.8847
 7051SOL     OW30120   3.505   4.797   6.349 -0.3555  0.2782  0.0371
 7051SOL    HW130121   3.459   4.881   6.346 -1.2802 -0.1915  0.4591
 7051SOL    HW230122   3.556   4.801   6.430  0.4274  0.8314 -0.4686
 7052SOL     OW30123   2.533   5.490   9.718 -0.3727 -0.0971 -0.3053
 7052SOL    HW130124   2.550   5.569   9.668  0.2864  0.4287  0.7147
 7052SOL    HW230125   2.481   5.519   9.792  2.1147 -0.0768  1.5632
 7053SOL     OW30126   2.445   6.660   3.205  0.0872 -0.6459 -0.3663
 7053SOL    HW130127   2.412   6.698   3.124  1.2549 -0.2368 -0.6749
 7053SOL    HW230128   2.472   6.571   3.180 -0.0596 -0.7105 -0.2968
 7054SOL     OW30129   2.516   6.466   2.624 -0.3768 -0.2358 -0.1998
 7054SOL    HW130130   2.490   6.394   2.681 -0.9945 -1.6695 -2.1778
 7054SOL    HW230131   2.605   6.445   2.597 -0.4735 -0.1239 -0.6066
 7055SOL     OW30132   3.578   6.755   1.192  0.5532  0.1520  0.0699
 7055SOL    HW130133   3.605   6.793   1.276  0.6770  1.1237 -0.3946
 7055SOL    HW230134   3.489   6.789   1.179  0.0778 -0.9257  0.3413
 7056SOL     OW30135   6.711   7.140   2.003 -0.1351  0.0059 -0.2103
 7056SOL    HW130136   6.633   7.167   1.954  0.4192  0.0839 -1.0766
 7056SOL    HW230137   6.775   7.117   1.936  1.3349  2.0336  0.3958
 7057SOL     OW30138   8.778   8.870   6.429 -0.0996  0.2983  0.3591
 7057SOL    HW130139   8.779   8.965   6.443 -0.1550  0.1325  1.6336
 7057SOL    HW230140   8.686   8.846   6.431 -0.1814  0.3853 -1.3592
 7058SOL     OW30141   0.890   4.496  10.369  0.2952 -0.4317  0.0210
 7058SOL    HW130142   0.960   4.519  10.307 -0.8315  1.6051 -0.6095
 7058SOL    HW230143   0.822   4.458  10.314 -0.1904  0.1951  0.1751
 7059SOL     OW30144   0.444  10.913   6.646 -0.2576 -0.7914  0.0515
 7059SOL    HW130145   0.469  10.867   6.566  0.7033 -0.2995  0.0501
 7059SOL    HW230146   0.496  10.871   6.715 -0.8054 -0.9694  0.3595
 7060SOL     OW30147  11.038   8.938   5.416  0.3437 -0.6196  0.8504
 7060SOL    HW130148  11.101   8.890   5.362 -0.0778 -0.2224 -0.0162
 7060SOL    HW230149  11.039   9.027   5.380  0.9025 -0.0319  2.2427
 7061SOL     OW30150   9.340   4.719   3.025 -0.3990  0.2679 -0.2995
 7061SOL    HW130151   9.356   4.675   3.109  1.9857  0.1656 -0.7401
 7061SOL    HW230152   9.320   4.648   2.965 -1.1217  0.2512 -0.0539
 7062SOL     OW30153   3.352   9.665   3.625  0.4097  0.5684 -0.2353
 7062SOL    HW130154   3.435   9.649   3.581  0.4846 -0.2618  0.1859
 7062SOL    HW230155   3.303   9.583   3.615 -0.9706  1.5209 -1.7467
 7063SOL     OW30156   7.607   6.930   3.047  0.1654  0.2374 -0.6573
 7063SOL    HW130157   7.577   7.000   2.990 -0.7735  0.5612  0.1995
 7063SOL    HW230158   7.554   6.939   3.127  2.1277  0.4713  0.7087
 7064SOL     OW30159   7.432   8.298   1.181 -0.3857  0.1036  0.8643
 7064SOL    HW130160   7.402   8.386   1.202 -0.5359  0.1560  0.4193
 7064SOL    HW230161   7.527   8.306   1.171 -0.3510  0.1391  1.1982
 7065SOL     OW30162   0.264  10.986   5.597  0.2678  0.0126 -0.3143
 7065SOL    HW130163   0.277  10.894   5.618 -0.0967  0.3691  1.6499
 7065SOL    HW230164   0.352  11.024   5.597  0.2549  0.0893  1.1558
 7066SOL     OW30165   2.904   8.904   5.761 -0.8997 -0.1978 -0.4136
 7066SOL    HW130166   2.956   8.975   5.798 -0.0526 -1.0876  0.1382
 7066SOL    HW230167   2.852   8.946   5.693  0.6093  0.7076 -1.0573
 7067SOL     OW30168   4.680   7.493   0.189  0.0623 -0.2125 -0.3622
 7067SOL    HW130169   4.617   7.433   0.228  0.9592 -0.5983  0.5648
 7067SOL    HW230170   4.628   7.557   0.142 -0.9966 -0.6696  0.1670
 7068SOL     OW30171   7.886   9.837   0.826  0.2398 -0.4124 -0.2341
 7068SOL    HW130172   7.900   9.747   0.853 -1.0136 -0.6950 -0.4400
 7068SOL    HW230173   7.805   9.864   0.871 -0.3582  0.0150 -1.5012
 7069SOL     OW30174   4.248  12.408   4.704  0.8609 -0.3165 -0.2833
 7069SOL    HW130175   4.266  12.348   4.776  0.9420 -0.0541 -0.0807
 7069SOL    HW230176   4.161  12.383   4.672  0.1597  0.5032  0.8819
 7070SOL     OW30177   9.713   5.532   6.678 -0.1621 -0.0528 -0.3036
 7070SOL    HW130178   9.681   5.588   6.607 -0.4962 -1.1730 -1.0729
 7070SOL    HW230179   9.643   5.468   6.691  0.8686 -1.2813 -0.5754
 7071SOL     OW30180   6.823   2.573   6.770 -0.2019 -0.2156  0.3891
 7071SOL    HW130181   6.864   2.515   6.834  1.1248  1.6119  1.2570
 7071SOL    HW230182   6.736   2.589   6.805  0.3805  0.4655  1.5545
 7072SOL     OW30183   5.791   6.097   5.491 -0.3027 -0.1344 -0.2935
 7072SOL    HW130184   5.746   6.182   5.486 -0.4330 -0.1731  0.1595
 7072SOL    HW230185   5.721   6.035   5.514 -0.2284 -0.3856 -0.7271
 7073SOL     OW30186  12.061   1.525   4.549 -0.0403  0.2278  0.1253
 7073SOL    HW130187  12.031   1.593   4.489 -2.3486 -1.6504 -1.0381
 7073SOL    HW230188  12.145   1.557   4.582  0.1640  2.4619 -2.2300
 7074SOL     OW30189   7.522   1.313   9.724  0.2907  0.1920 -0.2244
 7074SOL    HW130190   7.615   1.326   9.742 -0.4200  3.5605  1.9985
 7074SOL    HW230191   7.486   1.278   9.805 -0.7199  1.3307 -0.1528
 7075SOL     OW30192   3.063   5.660   1.243 -0.3507 -0.3720  0.0358
 7075SOL    HW130193   3.059   5.756   1.242  1.5288 -0.2620 -0.9346
 7075SOL    HW230194   3.070   5.636   1.151 -1.3086 -1.4986  0.2408
 7076SOL     OW30195   8.235   9.225  12.415  0.3932  0.1200 -0.7785
 7076SOL    HW130196   8.316   9.182  12.388  1.0268  1.1305 -0.5520
 7076SOL    HW230197   8.176   9.213  12.341  0.7284 -0.6445 -0.9383
 7077SOL     OW30198   9.552   6.624   6.651 -0.1171  0.4868  1.3427
 7077SOL    HW130199   9.616   6.552   6.650 -0.1762  0.4045 -0.3853
 7077SOL    HW230200   9.575   6.675   6.728  1.5260 -0.0038  1.2286
 7078SOL     OW30201   4.065   4.949   8.148  0.4216  0.0974  0.0524
 7078SOL    HW130202   4.108   5.019   8.100 -1.0654  0.5706 -0.6608
 7078SOL    HW230203   4.006   4.909   8.084 -0.1315 -0.5768  0.9561
 7079SOL     OW30204  11.148  11.988   8.294  0.2281 -0.9638 -0.0783
 7079SOL    HW130205  11.221  11.931   8.273  0.0949 -0.8136 -0.9524
 7079SOL    HW230206  11.173  12.074   8.260 -0.8059 -1.1498 -1.3979
 7080SOL     OW30207   6.004   1.793   7.027  0.0483 -0.3738 -0.5460
 7080SOL    HW130208   6.085   1.765   7.070 -1.0060 -0.6653  1.3602
 7080SOL    HW230209   5.982   1.720   6.969  0.2130 -1.1102  0.2924
 7081SOL     OW30210   7.245   3.044   5.068 -0.4857 -0.3067  0.6380
 7081SOL    HW130211   7.304   2.972   5.047  0.9180  0.8655  0.3850
 7081SOL    HW230212   7.242   3.045   5.164 -0.9502 -1.0126  0.6419
 7082SOL     OW30213  12.581   3.289   1.327  0.1215 -0.0238 -0.1650
 7082SOL    HW130214  12.560   3.224   1.261  2.5334 -0.6523 -0.3971
 7082SOL    HW230215  12.497   3.312   1.366 -1.1430 -0.9727 -2.1860
 7083SOL     OW30216   8.662   4.495   6.193 -0.0772 -0.1271  0.4769
 7083SOL    HW130217   8.642   4.435   6.121  2.4514  0.7136 -1.0827
 7083SOL    HW230218   8.586   4.552   6.200 -0.9858 -1.1849 -0.5173
 7084SOL     OW30219  11.119   8.624   5.311 -0.8121  0.1727  0.1273
 7084SOL    HW130220  11.193   8.604   5.368  1.6972  1.8314 -2.2636
 7084SOL    HW230221  11.081   8.539   5.290  2.1533 -1.1339 -0.5974
 7085SOL     OW30222   9.509   9.632  10.312 -0.0033 -0.4245  1.1904
 7085SOL    HW130223   9.543   9.678  10.388  0.2913  2.8588 -0.7422
 7085SOL    HW230224   9.586   9.609  10.260 -0.3248  1.0186  0.0043
 7086SOL     OW30225   6.588   4.088   2.392  0.2330 -0.5442  0.1072
 7086SOL    HW130226   6.557   4.092   2.482 -2.7879  1.9824 -0.8351
 7086SOL    HW230227   6.567   3.999   2.362  0.2090 -1.0287  1.5248
 7087SOL     OW30228   3.181   2.230   5.503 -0.0011  0.6769 -0.2178
 7087SOL    HW130229   3.088   2.240   5.483  0.0079 -1.7324 -1.8538
 7087SOL    HW230230   3.187   2.143   5.544  1.5561  0.6498 -0.4472
 7088SOL     OW30231   5.120  10.793   2.075 -0.1308  0.1112 -0.1153
 7088SOL    HW130232   5.160  10.723   2.127 -0.2166  0.5404  0.5417
 7088SOL    HW230233   5.192  10.825   2.019 -0.3155 -1.0855 -1.0724
 7089SOL     OW30234   3.315   8.147   0.385 -0.1273 -0.0291  0.3007
 7089SOL    HW130235   3.282   8.215   0.444  0.1124  0.2025  0.1700
 7089SOL    HW230236   3.389   8.108   0.432 -0.5582 -0.5322  0.5829
 7090SOL     OW30237  10.697  12.177  11.692  0.1178  0.3663 -0.6084
 7090SOL    HW130238  10.792  12.179  11.702 -0.0655  0.5959  1.5937
 7090SOL    HW230239  10.667  12.259  11.732 -1.1148 -0.5593  0.4344
 7091SOL     OW30240   1.586   6.993  10.580 -0.1641 -0.6417 -0.2977
 7091SOL    HW130241   1.586   6.924  10.513 -0.1671 -0.8709 -0.0617
 7091SOL    HW230242   1.643   6.961  10.649 -1.4061 -1.1365  0.5459
 7092SOL     OW30243   4.897   0.362   4.074 -0.4625  0.0299 -0.2877
 7092SOL    HW130244   4.843   0.282   4.073 -1.3876  0.6412 -1.5137
 7092SOL    HW230245   4.921   0.373   4.166 -1.8952 -0.6336  0.1941
 7093SOL     OW30246   0.381   3.704   0.485 -0.4070 -0.3767 -0.2567
 7093SOL    HW130247   0.403   3.797   0.482  1.8279 -0.8714 -1.5020
 7093SOL    HW230248   0.421   3.673   0.566 -1.6595 -0.1690  0.4597
 7094SOL     OW30249   2.780   2.345   5.491 -0.0539  0.0384 -0.3212
 7094SOL    HW130250   2.804   2.332   5.583 -2.5643  0.2112  0.4219
 7094SOL    HW230251   2.841   2.289   5.443  0.2332 -1.3827  1.5650
 7095SOL     OW30252   0.625   7.713   6.348 -0.2268  0.3176 -0.3966
 7095SOL    HW130253   0.544   7.719   6.398  0.0047  0.9528 -0.0775
 7095SOL    HW230254   0.612   7.773   6.275  0.0630  0.6482 -0.1806
 7096SOL     OW30255   7.984   2.581   6.229 -0.5777  0.4720  0.1906
 7096SOL    HW130256   7.928   2.511   6.195 -1.3290  1.1709 -0.0245
 7096SOL    HW230257   7.954   2.660   6.184  0.7664  0.8198 -0.1448
 7097SOL     OW30258   5.207   1.318   7.332 -0.1308  0.1756  0.0979
 7097SOL    HW130259   5.120   1.351   7.353 -0.3515 -1.1835  1.4172
 7097SOL    HW230260   5.233   1.266   7.408  2.1811  1.1833  0.0935
 7098SOL     OW30261   5.929   0.014   3.269  0.2752 -0.1442 -0.0211
 7098SOL    HW130262   5.871   0.049   3.336  1.1321  2.4215 -0.4883
 7098SOL    HW230263   5.983  -0.050   3.315 -1.4154 -0.9547  0.9040
 7099SOL     OW30264  10.929   5.833   4.849  0.2107 -0.0053  0.1059
 7099SOL    HW130265  10.953   5.926   4.855 -1.2062  0.5485 -1.9496
 7099SOL    HW230266  10.988   5.790   4.911  2.5879  1.9475 -0.6316
 7100SOL     OW30267   2.786   1.011  12.168 -0.1174  0.4663  0.2317
 7100SOL    HW130268   2.742   0.936  12.128  1.5158 -0.3651 -0.0793
 7100SOL    HW230269   2.746   1.087  12.127 -0.6008 -0.2828 -0.7194
 7101SOL     OW30270   5.601  11.759  10.710 -0.6031  0.0154 -0.7592
 7101SOL    HW130271   5.517  11.803  10.720 -0.7358 -0.5879  1.2471
 7101SOL    HW230272   5.655  11.821  10.661 -0.9521  2.2377  1.4523
 7102SOL     OW30273  11.068   4.868   0.026  0.1441  0.0486 -0.1044
 7102SOL    HW130274  11.044   4.776   0.034 -0.3879  0.2408  0.6716
 7102SOL    HW230275  11.107   4.891   0.110  1.0948  0.3067 -0.6076
 7103SOL     OW30276  12.004  11.367  10.548  0.1942 -0.0618  0.2308
 7103SOL    HW130277  11.977  11.426  10.617  0.1199  0.1740  0.0033
 7103SOL    HW230278  12.100  11.376  10.544  0.3191 -0.8713  1.0120
 7104SOL     OW30279   9.429   2.866   3.895 -0.0447  0.3846 -0.0428
 7104SOL    HW130280   9.441   2.945   3.948  2.8523  1.2098 -1.7275
 7104SOL    HW230281   9.334   2.860   3.883 -0.4739  2.7088  1.4335
 7105SOL     OW30282   8.962  10.364  11.009 -0.0673  0.7366 -0.3802
 7105SOL    HW130283   9.052  10.346  10.982  0.0498  1.4541 -0.4782
 7105SOL    HW230284   8.956  10.460  11.011 -1.2837  0.7152 -1.9091
 7106SOL     OW30285  11.671   1.431   4.159 -0.2496 -0.2382  0.4768
 7106SOL    HW130286  11.678   1.410   4.252 -1.6205 -0.1037  0.6379
 7106SOL    HW230287  11.578   1.417   4.139 -0.3490  1.4523 -0.4360
 7107SOL     OW30288   6.904   3.756  10.980  0.4149  0.0596 -0.1547
 7107SOL    HW130289   6.826   3.770  10.926  2.0647  0.0417 -2.6832
 7107SOL    HW230290   6.944   3.843  10.987  0.6468 -0.0876  0.3659
 7108SOL     OW30291   9.820  12.203   2.903  0.8281  0.5382  0.8590
 7108SOL    HW130292   9.761  12.129   2.893 -1.2439  2.2753 -0.5650
 7108SOL    HW230293   9.900  12.176   2.856 -0.1724 -0.4869 -0.3219
 7109SOL     OW30294  10.941   2.919   1.950 -0.5454  0.6280  0.8629
 7109SOL    HW130295  10.852   2.954   1.945  0.1122  2.1355 -1.6638
 7109SOL    HW230296  10.970   2.911   1.859  1.8519 -0.0411  1.5932
 7110SOL     OW30297   4.725   6.870   9.596 -0.2407  0.0567  0.0877
 7110SOL    HW130298   4.814   6.836   9.606  0.2681  0.9451 -1.2061
 7110SOL    HW230299   4.670   6.802   9.635  1.0807  0.4603  2.9889
 7111SOL     OW30300   2.916  12.330   1.867 -0.3627 -0.8079 -0.0350
 7111SOL    HW130301   2.916  12.236   1.849  0.8901 -0.6687 -0.9313
 7111SOL    HW230302   2.986  12.365   1.811 -0.1151  0.5054  1.0371
 7112SOL     OW30303  10.934  10.766   3.926 -0.0192  0.3420 -0.2894
 7112SOL    HW130304  10.981  10.746   4.006  0.6520 -0.7482 -0.9394
 7112SOL    HW230305  10.847  10.729   3.939 -0.1211  0.7391  0.1846
 7113SOL     OW30306  12.498   6.617   5.433 -0.3025 -0.2252 -0.3739
 7113SOL    HW130307  12.577   6.635   5.382 -0.7954  0.6955 -0.8476
 7113SOL    HW230308  12.480   6.524   5.418  0.3438 -0.2939 -0.7621
 7114SOL     OW30309   2.498   0.320   1.937  0.2142 -0.0707  0.3075
 7114SOL    HW130310   2.429   0.276   1.887  1.0884 -1.7837  0.5091
 7114SOL    HW230311   2.562   0.250   1.955  2.5850  1.6223 -0.8857
 7115SOL     OW30312   5.025   1.707   0.535 -0.2769  0.1079  0.3528
 7115SOL    HW130313   4.941   1.667   0.511 -0.2589  0.1501  0.2218
 7115SOL    HW230314   5.080   1.633   0.561  0.2736 -0.1277 -1.3889
 7116SOL     OW30315  11.151   0.407   1.327 -0.1603 -0.4892 -0.8099
 7116SOL    HW130316  11.075   0.355   1.354 -1.4325  0.9789 -1.4390
 7116SOL    HW230317  11.177   0.454   1.406  1.1701 -2.1699 -0.1596
 7117SOL     OW30318  10.012   8.674   8.866  0.4486  0.2337 -0.5125
 7117SOL    HW130319  10.102   8.697   8.889  0.4244  1.0898 -1.2203
 7117SOL    HW230320   9.959   8.746   8.899  0.1978  0.4797 -1.4151
 7118SOL     OW30321  11.828  11.333   5.410  0.5917 -0.2438  0.0915
 7118SOL    HW130322  11.891  11.270   5.377 -0.3649 -0.2311 -1.9411
 7118SOL    HW230323  11.879  11.393   5.464  1.7461 -1.9373  0.9817
 7119SOL     OW30324   4.277   4.743  10.025 -0.2902  0.5149 -0.1520
 7119SOL    HW130325   4.275   4.721   9.932  0.9808  0.4163 -0.1646
 7119SOL    HW230326   4.292   4.838  10.027  1.1692  0.3104 -0.0656
 7120SOL     OW30327   7.102   1.984   6.664  0.4987  0.3685 -0.1760
 7120SOL    HW130328   7.113   2.076   6.689 -0.1406 -0.0500  1.8362
 7120SOL    HW230329   7.177   1.965   6.608  0.7939  2.0293 -0.4004
 7121SOL     OW30330   2.533   3.642   7.107 -0.0344  0.0446 -0.0609
 7121SOL    HW130331   2.519   3.551   7.080 -2.7557 -0.0238  1.2489
 7121SOL    HW230332   2.585   3.680   7.037  1.2659 -2.5240 -0.6061
 7122SOL     OW30333   8.804  11.727   4.087 -0.6501 -0.5889  0.6593
 7122SOL    HW130334   8.840  11.658   4.032  1.2457  1.0722 -0.3254
 7122SOL    HW230335   8.746  11.776   4.029  0.0339  0.1610  0.5933
 7123SOL     OW30336   9.191   0.603   6.495  0.8251 -0.3544  0.1081
 7123SOL    HW130337   9.189   0.621   6.589 -0.9040 -1.6058  0.3765
 7123SOL    HW230338   9.262   0.540   6.484 -0.9027 -2.6339  1.1533
 7124SOL     OW30339  12.448  10.619  10.222  0.2697 -0.2862 -0.4890
 7124SOL    HW130340  12.354  10.630  10.211  0.0300 -0.0547  1.4415
 7124SOL    HW230341  12.465  10.527  10.202 -0.6488 -0.7410  0.7239
 7125SOL     OW30342   2.023  11.381   9.398  0.1604  0.2593  0.3292
 7125SOL    HW130343   2.082  11.345   9.464  0.6993 -0.0277 -0.2943
 7125SOL    HW230344   1.962  11.437   9.448  0.3839 -0.1597  1.0912
 7126SOL     OW30345   8.848   5.939   4.326 -0.3386  0.5577  0.1533
 7126SOL    HW130346   8.885   5.853   4.343 -1.5042  0.1808  0.9059
 7126SOL    HW230347   8.863   5.989   4.406 -0.7458  0.6593  0.1693
 7127SOL     OW30348   9.190   6.081   6.116  0.4153  0.8769  0.2539
 7127SOL    HW130349   9.225   6.121   6.036  0.7135  0.2837  0.0828
 7127SOL    HW230350   9.189   5.987   6.097 -1.1987  0.8684  0.2943
 7128SOL     OW30351   2.642   9.802   4.465 -0.1377 -0.0245 -0.1607
 7128SOL    HW130352   2.616   9.879   4.414 -0.8310 -0.5361 -0.5962
 7128SOL    HW230353   2.738   9.804   4.464 -0.1078  1.8126  1.3684
 7129SOL     OW30354  10.999   4.713   6.918 -0.5913 -0.7055 -0.0633
 7129SOL    HW130355  11.074   4.772   6.913 -0.5126 -0.8306 -0.3388
 7129SOL    HW230356  10.924   4.771   6.932 -0.3898 -0.6112  0.6563
 7130SOL     OW30357   9.688  11.466  11.617 -0.3261 -0.4206 -0.7853
 7130SOL    HW130358   9.611  11.413  11.595  0.0157 -2.2577  1.9848
 7130SOL    HW230359   9.753  11.402  11.645  0.6163  1.3500  1.3516
 7131SOL     OW30360   0.370   9.650   9.381  0.1278  0.8612 -0.0062
 7131SOL    HW130361   0.429   9.588   9.424  0.4250  0.2255 -1.2735
 7131SOL    HW230362   0.285   9.635   9.424 -0.4376 -2.2756 -1.8653
 7132SOL     OW30363   6.133   1.758   1.064 -0.4023 -0.0819  0.0152
 7132SOL    HW130364   6.199   1.826   1.063  0.9513 -1.3650 -0.7539
 7132SOL    HW230365   6.056   1.798   1.023  0.8396  0.5109 -1.8118
 7133SOL     OW30366   8.346  12.270   1.716  0.7611 -0.3657  0.5174
 7133SOL    HW130367   8.404  12.318   1.775  0.7616  0.0150  0.2094
 7133SOL    HW230368   8.300  12.338   1.666 -0.7229 -0.6165  1.4826
 7134SOL     OW30369   2.460  11.865   5.152  0.2966  0.4436  0.1016
 7134SOL    HW130370   2.524  11.936   5.164 -0.2033  0.8324  0.5160
 7134SOL    HW230371   2.512  11.785   5.154  0.9594  0.8299 -1.0457
 7135SOL     OW30372   1.711   5.884  10.114  0.4864  0.2041  0.2094
 7135SOL    HW130373   1.671   5.803  10.082  1.0304  0.4504 -1.1591
 7135SOL    HW230374   1.639   5.948  10.112  0.7173  0.4689 -1.5632
 7136SOL     OW30375   6.682   3.457   6.869 -0.1369  0.3279 -0.3457
 7136SOL    HW130376   6.718   3.541   6.899 -0.2958  0.5435 -0.7425
 7136SOL    HW230377   6.755   3.396   6.876 -0.3011  0.2576  0.9222
 7137SOL     OW30378   4.290   8.203  11.273  0.5743 -0.0629  0.1208
 7137SOL    HW130379   4.301   8.273  11.337 -1.0404  1.8273 -1.5135
 7137SOL    HW230380   4.198   8.179  11.279 -0.1082  1.4371 -2.5802
 7138SOL     OW30381  11.006   9.732   5.887 -0.0993 -0.1917 -0.2035
 7138SOL    HW130382  11.059   9.709   5.963 -1.0491 -0.4716  0.3984
 7138SOL    HW230383  10.973   9.648   5.854 -1.8960  0.0941  0.7424
 7139SOL     OW30384   2.671   5.797   6.946 -0.0391 -0.0582 -0.3189
 7139SOL    HW130385   2.685   5.890   6.933  0.5107 -0.1281 -0.2574
 7139SOL    HW230386   2.718   5.755   6.874 -1.1056 -0.2518 -0.9107
 7140SOL     OW30387   1.310  12.563   8.316  0.2854 -0.1809 -0.7541
 7140SOL    HW130388   1.303  12.545   8.222 -1.1372 -0.8143 -0.5627
 7140SOL    HW230389   1.294  12.478   8.358 -0.2708  0.3124  0.0759
 7141SOL     OW30390   1.780   2.198   5.406  0.0741  0.4675  0.0149
 7141SOL    HW130391   1.844   2.210   5.335 -0.1657  0.3320 -0.2234
 7141SOL    HW230392   1.793   2.107   5.434  1.6678  1.1120  1.6049
 7142SOL     OW30393  11.513   5.596   7.192  0.1858  0.3282 -0.0147
 7142SOL    HW130394  11.543   5.677   7.151  0.0876 -0.0651 -0.9013
 7142SOL    HW230395  11.584   5.534   7.176  0.9570  0.6211  2.0119
 7143SOL     OW30396   1.534   5.998   6.471 -0.1514 -0.3173 -1.0595
 7143SOL    HW130397   1.440   6.015   6.461 -0.0233 -0.1872 -2.2534
 7143SOL    HW230398   1.576   6.081   6.447  0.2608 -0.2430 -0.1076
 7144SOL     OW30399   3.668   0.159   0.186  0.2146  0.0332  0.1365
 7144SOL    HW130400   3.660   0.173   0.280 -3.1886 -0.6183  0.0848
 7144SOL    HW230401   3.699   0.243   0.152  0.7883  0.5047  1.7435
 7145SOL     OW30402   6.573   7.719  11.876  0.0750 -0.0025 -0.0695
 7145SOL    HW130403   6.562   7.803  11.919 -0.1395  0.7157 -1.4732
 7145SOL    HW230404   6.536   7.731  11.788  1.0900 -1.1995 -0.7045
 7146SOL     OW30405   7.484   1.489  12.122 -0.4423  0.6049  0.4953
 7146SOL    HW130406   7.512   1.565  12.174  0.9954  0.7823 -0.4897
 7146SOL    HW230407   7.389   1.499  12.115 -0.1085  3.7510 -1.7124
 7147SOL     OW30408   5.102  11.257  11.625 -0.0166 -0.0351  0.2458
 7147SOL    HW130409   5.162  11.253  11.700  2.1046 -0.6862 -1.4034
 7147SOL    HW230410   5.120  11.177  11.576  1.1708  1.9264 -2.7512
 7148SOL     OW30411  10.919   9.645   7.697 -0.4049  0.1608 -0.0586
 7148SOL    HW130412  10.852   9.647   7.766 -0.8851 -1.8798 -0.4076
 7148SOL    HW230413  10.870   9.641   7.615  0.1512  0.3071 -0.4070
 7149SOL     OW30414   1.612   0.826   0.554 -0.1582  1.0199 -0.2987
 7149SOL    HW130415   1.609   0.736   0.587 -1.6732  0.8337 -0.8609
 7149SOL    HW230416   1.697   0.832   0.510  0.9821  0.6310  1.7386
 7150SOL     OW30417   2.675   9.743  11.587  0.0746 -0.0990 -0.1321
 7150SOL    HW130418   2.711   9.683  11.522 -1.3330  1.4993 -2.5338
 7150SOL    HW230419   2.613   9.690  11.637  0.5864 -1.1727 -0.6052
 7151SOL     OW30420   8.392   4.705   2.596  0.0298  0.0719  0.2558
 7151SOL    HW130421   8.453   4.654   2.650  0.8917  0.7412 -0.0623
 7151SOL    HW230422   8.391   4.661   2.512  0.5126  0.3767  0.0873
 7152SOL     OW30423   1.686   0.781   2.723  0.0641 -0.1056  0.0934
 7152SOL    HW130424   1.751   0.851   2.722  1.9456 -1.7675  0.2641
 7152SOL    HW230425   1.640   0.789   2.639  0.1032  1.4166  0.1972
 7153SOL     OW30426   9.694   5.595   3.755 -0.0578  0.1246  0.1165
 7153SOL    HW130427   9.673   5.662   3.820  0.5464 -0.3376  0.8049
 7153SOL    HW230428   9.777   5.624   3.717 -1.5679  1.6975 -2.2600
 7154SOL     OW30429   9.868   0.677  12.427 -0.0273  0.1496 -0.1141
 7154SOL    HW130430   9.957   0.709  12.413 -0.0405  0.9374  1.3388
 7154SOL    HW230431   9.864   0.595  12.378  0.8866  1.0110 -1.7259
 7155SOL     OW30432   9.416   4.508   6.517  0.2602 -0.3165 -0.0027
 7155SOL    HW130433   9.409   4.424   6.473  2.9506 -0.8702  0.4362
 7155SOL    HW230434   9.438   4.487   6.607 -0.1358  0.8488  0.3876
 7156SOL     OW30435  10.945  11.700   8.766 -0.1402  0.3288 -0.7560
 7156SOL    HW130436  10.895  11.772   8.726 -1.8954  0.0397  0.7712
 7156SOL    HW230437  10.880  11.648   8.812  1.5106 -0.4537  0.8323
 7157SOL     OW30438   5.334   1.693   1.066  0.1827 -0.2540  0.4195
 7157SOL    HW130439   5.356   1.704   1.158 -1.2807 -1.2112  0.9313
 7157SOL    HW230440   5.242   1.721   1.060 -0.0470 -1.1533 -0.5310
 7158SOL     OW30441   9.291   5.071   7.980  0.3352  0.3598 -0.2476
 7158SOL    HW130442   9.376   5.074   7.935  0.9806  0.2362  0.9293
 7158SOL    HW230443   9.283   5.157   8.021  0.1474  0.1818  0.0951
 7159SOL     OW30444  11.645   6.566   8.486  0.0421  0.9244 -0.0801
 7159SOL    HW130445  11.649   6.517   8.568  1.3510  1.9250  0.4991
 7159SOL    HW230446  11.710   6.525   8.429  1.2978  2.0479  0.4821
 7160SOL     OW30447   1.067   0.441   7.513 -0.4354 -0.0352  0.1719
 7160SOL    HW130448   0.995   0.387   7.547 -0.4788 -0.2472 -0.2491
 7160SOL    HW230449   1.142   0.416   7.566  0.0364 -2.0412 -1.3325
 7161SOL     OW30450   8.268   3.304   2.251  0.0715 -0.3500  0.5579
 7161SOL    HW130451   8.244   3.284   2.160  1.0885 -0.2548  0.2539
 7161SOL    HW230452   8.363   3.291   2.254 -0.0361 -0.9981  1.7813
 7162SOL     OW30453   3.241   4.409   8.044 -0.0628  0.0449 -0.0757
 7162SOL    HW130454   3.332   4.381   8.035 -0.1752 -0.2762 -0.2266
 7162SOL    HW230455   3.242   4.468   8.120  0.3269  0.3044 -0.2777
 7163SOL     OW30456   3.190   6.368   2.484 -0.3441  0.4746 -0.1761
 7163SOL    HW130457   3.179   6.436   2.550  0.1351  2.0220 -1.6060
 7163SOL    HW230458   3.235   6.297   2.529  0.2464  1.6082  1.0786
 7164SOL     OW30459   4.517   7.271   3.335 -0.0633  0.2661 -0.1826
 7164SOL    HW130460   4.451   7.339   3.353 -0.9762 -0.9488  1.2300
 7164SOL    HW230461   4.532   7.278   3.240 -1.3168  1.3900 -0.3345
 7165SOL     OW30462   6.428   1.855   5.229  0.3991 -0.3941 -0.2214
 7165SOL    HW130463   6.446   1.867   5.322  0.2693  1.6069 -0.4194
 7165SOL    HW230464   6.381   1.934   5.203  2.9961  0.5501 -2.6269
 7166SOL     OW30465   8.164   0.851   1.286  0.0716  0.1143  0.0496
 7166SOL    HW130466   8.258   0.866   1.273 -0.2668  1.5174 -1.0721
 7166SOL    HW230467   8.154   0.756   1.287  1.6348 -0.0715  1.3000
 7167SOL     OW30468   4.751   7.860   3.594 -0.4238 -0.0634 -0.1858
 7167SOL    HW130469   4.800   7.780   3.613 -1.3679 -0.1193  2.5468
 7167SOL    HW230470   4.709   7.843   3.509 -0.4706 -2.4331  0.2285
 7168SOL     OW30471   5.992   8.221   4.956 -0.3572  0.3621 -0.2702
 7168SOL    HW130472   5.927   8.278   4.914  1.3549  2.4105 -0.2723
 7168SOL    HW230473   5.941   8.146   4.987 -2.5094  1.2771 -1.3756
 7169SOL     OW30474   8.653  11.271   2.252 -0.3361  0.1129  0.2324
 7169SOL    HW130475   8.577  11.214   2.241  0.0192  0.0358 -2.8312
 7169SOL    HW230476   8.620  11.359   2.234  0.0098  0.2720  0.3661
 7170SOL     OW30477   1.910  10.945   8.618 -0.1749  0.0703  0.3858
 7170SOL    HW130478   1.977  10.906   8.675 -1.0969 -1.2459  0.6205
 7170SOL    HW230479   1.957  11.011   8.568  0.3651  2.5917  3.8449
 7171SOL     OW30480   3.509   2.382   5.698 -0.6801 -0.1893  0.0779
 7171SOL    HW130481   3.558   2.441   5.755 -2.1304 -1.4185  2.7762
 7171SOL    HW230482   3.435   2.434   5.667  0.2437  0.5567 -0.9638
 7172SOL     OW30483   8.589  10.978   1.861  0.2275  0.2218 -0.1328
 7172SOL    HW130484   8.627  10.919   1.797 -0.3562 -0.0629 -0.2268
 7172SOL    HW230485   8.500  10.945   1.874 -0.0478  0.9770 -0.0562
 7173SOL     OW30486   8.612   2.807   2.888 -0.2165  0.3896  0.3802
 7173SOL    HW130487   8.636   2.752   2.814  0.7175 -0.0425  0.9819
 7173SOL    HW230488   8.630   2.754   2.965  1.4390  1.7704  1.0136
 7174SOL     OW30489  11.369  11.656   0.622 -0.2079  0.1108  0.0500
 7174SOL    HW130490  11.333  11.613   0.545  0.4976 -2.5762  1.1069
 7174SOL    HW230491  11.457  11.683   0.596  1.7179 -4.4703  0.8430
 7175SOL     OW30492   6.932  12.281   9.737 -0.8046  0.2908  0.1821
 7175SOL    HW130493   6.930  12.185   9.736 -1.4359  0.2425  2.2814
 7175SOL    HW230494   6.968  12.304   9.651 -1.3363 -1.7882 -0.6735
 7176SOL     OW30495   9.873   1.770   5.213  0.0343 -0.0968  0.2754
 7176SOL    HW130496   9.895   1.823   5.136 -1.2094 -1.3905 -1.0403
 7176SOL    HW230497   9.889   1.680   5.186  0.4541 -0.5408  1.8826
 7177SOL     OW30498   7.834  11.384  11.956 -0.1875  0.0520 -0.1936
 7177SOL    HW130499   7.925  11.412  11.949 -0.6521  1.2041 -2.6234
 7177SOL    HW230500   7.832  11.330  12.034  2.2944  1.0648  0.6714
 7178SOL     OW30501   9.927  12.510   3.693 -0.0353 -0.6271 -0.3935
 7178SOL    HW130502   9.853  12.451   3.705  1.0072 -1.8402  0.2985
 7178SOL    HW230503   9.979  12.501   3.773  1.1748 -0.2777 -1.1112
 7179SOL     OW30504   0.083   6.262  10.943  0.1149 -0.2678 -0.3100
 7179SOL    HW130505   0.070   6.207  10.866 -0.1494  0.5386 -0.8658
 7179SOL    HW230506   0.004   6.249  10.995 -0.7096  0.7955 -1.2343
 7180SOL     OW30507   9.478   9.984   9.775 -0.2348 -0.0560 -0.5687
 7180SOL    HW130508   9.491   9.956   9.865 -0.5536  1.8545  0.1159
 7180SOL    HW230509   9.385  10.007   9.770  0.0265  0.9786 -1.0225
 7181SOL     OW30510   0.541  10.304  11.875 -0.1828  0.0446 -0.1584
 7181SOL    HW130511   0.523  10.287  11.783  1.6700  1.9612 -0.9702
 7181SOL    HW230512   0.466  10.267  11.922 -1.2373 -0.8682 -2.4177
 7182SOL     OW30513   2.560   7.385   2.307  0.0810 -0.1046  0.3422
 7182SOL    HW130514   2.497   7.422   2.368 -0.8823  0.4524 -0.9238
 7182SOL    HW230515   2.601   7.461   2.265  1.5163 -0.4579  1.0347
 7183SOL     OW30516   3.152   9.937   1.641  0.3234  0.3744 -0.1333
 7183SOL    HW130517   3.190   9.933   1.729 -0.5934  0.5108  0.2783
 7183SOL    HW230518   3.140   9.845   1.616 -1.7500  0.3115  0.9340
 7184SOL     OW30519   2.767   1.844   0.691 -0.0521  0.2416 -0.0265
 7184SOL    HW130520   2.813   1.863   0.610 -0.7917 -0.4859 -0.6335
 7184SOL    HW230521   2.823   1.782   0.737 -0.3783 -0.5797 -0.7247
 7185SOL     OW30522   9.827   7.765  11.039  0.3401 -0.1240 -0.1806
 7185SOL    HW130523   9.856   7.853  11.064 -1.4786  0.2584  0.7481
 7185SOL    HW230524   9.741   7.779  11.000  0.7573 -1.3403 -1.6301
 7186SOL     OW30525   9.445   3.121   7.963 -0.3131 -0.1371 -0.8087
 7186SOL    HW130526   9.386   3.094   7.893 -1.6413 -0.5187  0.3944
 7186SOL    HW230527   9.426   3.214   7.975 -1.6166 -0.5090  0.3680
 7187SOL     OW30528   8.604   0.878   8.379 -0.1436  0.5784 -0.2085
 7187SOL    HW130529   8.554   0.809   8.335 -1.3446  1.1991  0.1718
 7187SOL    HW230530   8.570   0.881   8.468  0.5382  1.0479  0.0486
 7188SOL     OW30531   7.261   9.757   8.160  0.0350  0.0711  0.1480
 7188SOL    HW130532   7.288   9.678   8.208  2.6961 -0.1146 -1.4193
 7188SOL    HW230533   7.266   9.827   8.225  1.4175 -0.4962  0.7020
 7189SOL     OW30534   9.575   8.721   4.632 -0.2639  0.3653  0.4209
 7189SOL    HW130535   9.663   8.720   4.593 -0.7219 -1.3517 -0.6686
 7189SOL    HW230536   9.588   8.755   4.720  1.6814 -0.8526  0.6572
 7190SOL     OW30537   7.863  10.623   8.655  0.2908  0.0694  0.2907
 7190SOL    HW130538   7.891  10.715   8.656 -0.2062  0.2329 -0.2973
 7190SOL    HW230539   7.857  10.600   8.562  0.7891 -0.6841  0.4338
 7191SOL     OW30540   4.119  11.362   7.328  0.0608  0.3893  0.0265
 7191SOL    HW130541   4.171  11.398   7.255  0.7576 -0.6607 -0.0191
 7191SOL    HW230542   4.043  11.321   7.285  0.9746 -1.1141 -0.2454
 7192SOL     OW30543   4.873   9.778   9.922  0.3638  0.2151 -0.2125
 7192SOL    HW130544   4.922   9.822   9.991 -0.4617  0.5768  0.1531
 7192SOL    HW230545   4.937   9.719   9.881  0.6202 -0.7590  1.5151
 7193SOL     OW30546   3.970   1.442   0.829 -0.0509 -0.5447  0.0638
 7193SOL    HW130547   3.987   1.532   0.802 -1.2611 -0.3615 -0.1530
 7193SOL    HW230548   3.998   1.388   0.755 -0.5991 -0.2410 -0.3731
 7194SOL     OW30549   1.428  10.132  12.052 -0.4199  0.1171 -0.9574
 7194SOL    HW130550   1.469  10.124  11.966  1.2813  0.8341 -0.2712
 7194SOL    HW230551   1.446  10.049  12.095  2.4941  1.1678  0.1531
 7195SOL     OW30552   5.119  10.130   4.969  0.1912 -0.0420  0.0777
 7195SOL    HW130553   5.093  10.129   5.061 -2.6244  0.4394 -0.6357
 7195SOL    HW230554   5.052  10.079   4.924  0.7914  0.7947 -1.8785
 7196SOL     OW30555   6.563  12.139   1.102  0.4502  0.1530  0.0636
 7196SOL    HW130556   6.653  12.166   1.084  0.5815 -0.2395  0.1458
 7196SOL    HW230557   6.513  12.174   1.028  1.0346 -1.7279 -1.3007
 7197SOL     OW30558  10.753   4.448  12.357  0.7550 -0.0034  0.0314
 7197SOL    HW130559  10.843   4.427  12.333  0.2403  0.0789 -2.1570
 7197SOL    HW230560  10.732   4.526  12.306 -1.3045 -1.3804 -1.3723
 7198SOL     OW30561   4.490   2.627   6.929 -0.3279 -1.0723 -0.0747
 7198SOL    HW130562   4.481   2.722   6.926 -1.4630 -1.1495  0.4184
 7198SOL    HW230563   4.505   2.601   6.839  0.6177 -0.3753 -0.1330
 7199SOL     OW30564   8.475  10.350   4.066 -0.2747  0.4812  0.1205
 7199SOL    HW130565   8.492  10.310   4.151  2.7152 -0.6634 -0.9088
 7199SOL    HW230566   8.485  10.444   4.082 -0.7089  0.3681  1.1804
 7200SOL     OW30567   9.253   1.386   1.235  0.3620 -0.0287 -0.2435
 7200SOL    HW130568   9.311   1.377   1.159  0.3773 -3.5059  0.0063
 7200SOL    HW230569   9.175   1.430   1.201  0.1141 -2.0078 -2.5115
 7201SOL     OW30570   2.321   9.917   3.307 -0.3039 -1.0242 -0.0697
 7201SOL    HW130571   2.335   9.840   3.361 -1.1822 -2.8538 -2.2751
 7201SOL    HW230572   2.396   9.918   3.247 -0.6266 -0.5128 -0.4734
 7202SOL     OW30573   7.138   5.028   4.546  0.0080  0.0543  0.1348
 7202SOL    HW130574   7.097   4.975   4.614 -2.3829  1.1226 -0.3882
 7202SOL    HW230575   7.166   5.108   4.591 -0.6965  0.3457  0.0692
 7203SOL     OW30576  10.221  10.409   4.744  0.1130  0.4950  0.0386
 7203SOL    HW130577  10.274  10.454   4.679 -0.1747  0.7342 -0.0343
 7203SOL    HW230578  10.257  10.320   4.747 -0.0636  0.3910 -0.6672
 7204SOL     OW30579   1.047   8.804   5.283  0.1507 -0.5939  0.1674
 7204SOL    HW130580   1.060   8.716   5.247  0.8600  0.4507 -2.3785
 7204SOL    HW230581   0.970   8.837   5.237 -0.2968  0.0235  1.3290
 7205SOL     OW30582   6.310   6.694   7.998  0.3709  0.4093 -0.3644
 7205SOL    HW130583   6.241   6.644   7.953 -0.3422  1.1502 -0.1176
 7205SOL    HW230584   6.385   6.634   8.001  0.1147 -0.0085 -1.6524
 7206SOL     OW30585  11.770  11.026   9.996 -0.5961 -0.2088 -0.4209
 7206SOL    HW130586  11.801  11.085   9.927  0.3293 -0.5739 -0.3281
 7206SOL    HW230587  11.675  11.034   9.993 -0.4864  1.9884  0.1846
 7207SOL     OW30588   3.818   4.242  11.748  0.2778 -0.4922 -0.1115
 7207SOL    HW130589   3.897   4.247  11.802  0.2012  0.3656 -0.0698
 7207SOL    HW230590   3.829   4.161  11.697  1.9984  0.4649 -1.3718
 7208SOL     OW30591   7.816   1.168  10.634  0.0861  0.0167 -0.1913
 7208SOL    HW130592   7.730   1.126  10.644 -0.0500  0.1474 -0.7462
 7208SOL    HW230593   7.798   1.262  10.644  0.2376  0.0119  0.1299
 7209SOL     OW30594   7.908   1.196   3.191  0.4368 -0.2348 -0.1968
 7209SOL    HW130595   7.982   1.157   3.237 -0.3530 -1.0952  0.3968
 7209SOL    HW230596   7.851   1.121   3.170  0.6746  0.1382 -2.4442
 7210SOL     OW30597   9.650   3.340   9.365 -0.1330  0.5825  0.5167
 7210SOL    HW130598   9.594   3.381   9.431  0.7392  0.4134  1.3933
 7210SOL    HW230599   9.717   3.406   9.346  0.2548  0.2203  0.6151
 7211SOL     OW30600   5.723  11.091   8.350  0.3788 -0.3166 -0.2918
 7211SOL    HW130601   5.696  11.041   8.273  0.4618  1.4006 -1.4975
 7211SOL    HW230602   5.643  11.098   8.402 -0.0800 -0.2190 -0.9859
 7212SOL     OW30603   2.032   0.017   4.270  0.5522  0.1353  0.3557
 7212SOL    HW130604   2.075   0.054   4.346 -0.3157 -2.1315  2.0866
 7212SOL    HW230605   2.098   0.017   4.201  0.8234  3.9314  0.4243
 7213SOL     OW30606  12.257   3.241   0.683 -0.1237  0.0194 -0.3394
 7213SOL    HW130607  12.199   3.253   0.759 -0.4626 -0.5206 -0.5032
 7213SOL    HW230608  12.344   3.264   0.716 -0.0576 -1.4003  0.5874
 7214SOL     OW30609  11.983   9.915   1.309 -0.1377  0.7098  0.0841
 7214SOL    HW130610  12.034   9.898   1.230  0.0846 -1.4258  0.6407
 7214SOL    HW230611  12.036   9.880   1.380 -0.6161  2.0325  1.1353
 7215SOL     OW30612   4.222   2.057   1.214 -0.6772  0.2632  0.0343
 7215SOL    HW130613   4.307   2.029   1.248 -0.2487  1.7847  0.3013
 7215SOL    HW230614   4.179   2.099   1.289 -1.3547  0.1472 -0.2859
 7216SOL     OW30615   9.955  11.809   9.200 -0.1365 -0.0764 -0.5734
 7216SOL    HW130616   9.923  11.777   9.284  0.9249  0.4839  0.0682
 7216SOL    HW230617   9.877  11.820   9.147 -0.6975 -1.8517 -0.1672
 7217SOL     OW30618   9.602   2.030   7.638  0.7265 -0.2495 -0.3545
 7217SOL    HW130619   9.559   2.030   7.723 -1.6226  0.9065 -1.4538
 7217SOL    HW230620   9.661   2.105   7.641 -1.0439  1.2090 -0.4687
 7218SOL     OW30621   3.321   8.038   0.137  0.3002 -0.0125 -0.3633
 7218SOL    HW130622   3.298   7.950   0.168  1.9722 -0.3223  0.0933
 7218SOL    HW230623   3.314   8.093   0.214  0.0229  0.1076 -0.4733
 7219SOL     OW30624   0.341  10.442   6.170 -0.1080 -0.1021 -0.1072
 7219SOL    HW130625   0.387  10.368   6.210 -1.7674 -1.9008 -1.3458
 7219SOL    HW230626   0.403  10.477   6.105  0.7066 -0.3837  0.5080
 7220SOL     OW30627   9.195  11.579   6.169  0.1718 -0.3983 -0.2486
 7220SOL    HW130628   9.163  11.528   6.243 -0.6966 -0.9143 -0.9636
 7220SOL    HW230629   9.256  11.642   6.208  2.5849 -2.9761  0.5385
 7221SOL     OW30630   2.898   3.218   7.631 -0.0825  0.2356  0.2569
 7221SOL    HW130631   2.988   3.222   7.661 -0.1172  0.4010  0.3364
 7221SOL    HW230632   2.902   3.234   7.537 -0.0971  0.9069  0.3662
 7222SOL     OW30633   8.103  11.117   5.277 -0.0669  0.0228 -0.2255
 7222SOL    HW130634   8.084  11.206   5.249 -0.7742 -0.2196 -0.5499
 7222SOL    HW230635   8.182  11.093   5.229  1.0421  1.0032  1.0366
 7223SOL     OW30636  11.508   7.168  10.660 -0.0880 -0.6054  0.3224
 7223SOL    HW130637  11.505   7.264  10.670 -0.6731 -0.5787 -0.0665
 7223SOL    HW230638  11.416   7.142  10.654  0.0904 -1.1412 -0.0797
 7224SOL     OW30639   1.147   6.253   4.760  0.1094  0.3052  0.1605
 7224SOL    HW130640   1.061   6.212   4.748  0.5271 -0.6680  0.3958
 7224SOL    HW230641   1.132   6.346   4.742 -0.4268 -0.2365 -2.6914
 7225SOL     OW30642   7.883   2.373   0.317  0.1405 -0.0787  0.0655
 7225SOL    HW130643   7.809   2.363   0.377  0.2145  1.2228  0.3962
 7225SOL    HW230644   7.921   2.285   0.312 -0.3003 -0.3718  1.3662
 7226SOL     OW30645   6.545   0.548  10.822  0.3727  0.0062 -0.8576
 7226SOL    HW130646   6.529   0.535  10.915 -1.0061 -0.2750 -1.1016
 7226SOL    HW230647   6.466   0.514  10.779  1.0173  0.0406 -2.1326
 7227SOL     OW30648   7.471   2.970   8.226  0.1362 -0.2276 -0.4220
 7227SOL    HW130649   7.412   3.007   8.160 -0.5714 -1.4314 -0.4845
 7227SOL    HW230650   7.524   2.906   8.178  0.1418 -0.5618  0.0234
 7228SOL     OW30651   7.203   3.560   6.223  0.0304  0.1954 -0.4170
 7228SOL    HW130652   7.146   3.540   6.148 -1.4879 -0.2677  0.7871
 7228SOL    HW230653   7.143   3.593   6.290  1.1662 -0.4673  0.9822
 7229SOL     OW30654   3.395   7.823  12.391  0.5096  0.6488 -0.1136
 7229SOL    HW130655   3.451   7.763  12.442 -0.2977  1.0960  1.3522
 7229SOL    HW230656   3.398   7.905  12.439  2.6392  2.2915 -2.7886
 7230SOL     OW30657   9.072   1.163   4.866 -0.3055 -0.5661  0.6766
 7230SOL    HW130658   8.994   1.210   4.895  0.1880  0.3526  0.5724
 7230SOL    HW230659   9.138   1.232   4.854  0.3538 -1.2624  0.2198
 7231SOL     OW30660  10.701   0.296   7.220  0.0495 -0.2333  0.3004
 7231SOL    HW130661  10.776   0.250   7.181  0.9405  1.1113  0.3586
 7231SOL    HW230662  10.647   0.321   7.145  0.4957  0.1849  0.1075
 7232SOL     OW30663  10.511   1.476   6.322  0.6102 -0.5329  0.1579
 7232SOL    HW130664  10.467   1.504   6.403  1.0424  0.4848  0.0494
 7232SOL    HW230665  10.593   1.438   6.351  0.7325 -0.2340  0.2027
 7233SOL     OW30666   4.723   5.571   9.690  0.2327  0.0118 -0.0729
 7233SOL    HW130667   4.648   5.600   9.742  1.2128  0.6212  1.0556
 7233SOL    HW230668   4.796   5.570   9.752  1.1580 -0.5778 -1.1398
 7234SOL     OW30669   2.078   2.315   6.392  0.3980  0.0531  0.0081
 7234SOL    HW130670   2.044   2.234   6.427 -0.3680  0.7095  0.8274
 7234SOL    HW230671   2.159   2.290   6.347  0.7099 -1.0093  1.1125
 7235SOL     OW30672   2.331   3.508  11.653  0.3749 -0.4902 -0.3599
 7235SOL    HW130673   2.370   3.572  11.712  1.0878 -1.7073  0.5214
 7235SOL    HW230674   2.317   3.430  11.707  2.9688 -2.3859 -2.1645
 7236SOL     OW30675   7.823  12.014  10.628 -0.0621  0.2037 -0.1281
 7236SOL    HW130676   7.887  11.957  10.669 -1.2840 -0.5855  0.7601
 7236SOL    HW230677   7.864  12.043  10.547 -0.0275 -3.3088 -1.5034
 7237SOL     OW30678   6.899   2.713   8.074 -0.0903  0.3060 -0.6306
 7237SOL    HW130679   6.877   2.682   7.986  1.8483 -1.7087 -0.4840
 7237SOL    HW230680   6.814   2.722   8.117 -0.9717 -1.3165 -1.8963
 7238SOL     OW30681   2.680  11.455  11.661 -0.0139 -0.3952 -0.6182
 7238SOL    HW130682   2.690  11.511  11.584  1.1479 -1.1573 -1.0621
 7238SOL    HW230683   2.755  11.395  11.656  0.2937 -0.2247  1.3146
 7239SOL     OW30684   0.239   5.997  10.998 -0.8736 -0.1998  0.2146
 7239SOL    HW130685   0.167   5.967  10.942  0.8422 -1.6294 -1.3503
 7239SOL    HW230686   0.280   5.916  11.029  0.3564  0.5703  0.6483
 7240SOL     OW30687   4.739  11.115   3.579 -0.0447 -0.1326 -0.1726
 7240SOL    HW130688   4.727  11.204   3.545 -1.3028  0.0596  0.7057
 7240SOL    HW230689   4.832  11.110   3.600 -0.0712  1.2090  0.3653
 7241SOL     OW30690  11.908   6.119  11.331  0.6743  0.0115 -0.2502
 7241SOL    HW130691  11.939   6.197  11.377  1.0042 -1.8576  2.9958
 7241SOL    HW230692  11.812   6.128  11.332  0.7255  1.1450 -1.5466
 7242SOL     OW30693   0.365  12.265   8.743 -0.1549  0.4654  0.1567
 7242SOL    HW130694   0.417  12.195   8.704  0.0881  1.6684 -1.7735
 7242SOL    HW230695   0.277  12.229   8.748  0.0498 -0.1352 -0.4051
 7243SOL     OW30696   8.297   0.949   8.818  0.4595 -0.4303 -0.3227
 7243SOL    HW130697   8.390   0.923   8.817  0.6608 -0.2546  3.0258
 7243SOL    HW230698   8.265   0.921   8.903 -1.9635  1.6246 -0.4441
 7244SOL     OW30699  10.007   5.770  11.876  0.1891  0.1828 -0.3543
 7244SOL    HW130700  10.089   5.761  11.827 -0.6863  0.5773 -1.9275
 7244SOL    HW230701  10.029   5.831  11.947  1.0593  0.9533 -1.2534
 7245SOL     OW30702   7.096   7.506   5.375 -0.5985 -0.0354  0.7566
 7245SOL    HW130703   7.026   7.478   5.317 -0.2541 -0.9592  0.7567
 7245SOL    HW230704   7.097   7.439   5.444 -0.0497  0.2412  1.0216
 7246SOL     OW30705   1.165   5.305   1.641  0.0266 -0.0703  0.6160
 7246SOL    HW130706   1.243   5.361   1.637 -1.4349  2.0504  0.4000
 7246SOL    HW230707   1.200   5.216   1.648  2.4792  0.5985 -1.6285
 7247SOL     OW30708   8.380   5.595   0.380 -0.7947  0.0494  0.0992
 7247SOL    HW130709   8.400   5.660   0.448 -0.4545  0.1032 -0.0523
 7247SOL    HW230710   8.284   5.595   0.375 -0.9228 -1.2640  1.8407
 7248SOL     OW30711   0.340   7.006   6.027  0.1766  1.0946  0.2898
 7248SOL    HW130712   0.361   7.099   6.028 -0.1439  1.1823 -0.6294
 7248SOL    HW230713   0.295   6.992   5.944 -0.7896  0.3394  0.9202
 7249SOL     OW30714   6.525   4.340   4.964  0.4578  0.2153 -0.0997
 7249SOL    HW130715   6.518   4.429   4.998  0.6024 -0.5074  1.9604
 7249SOL    HW230716   6.519   4.350   4.869 -1.8091  2.2054  0.1523
 7250SOL     OW30717  11.475   5.891   7.581  0.6444  0.1072  0.6660
 7250SOL    HW130718  11.489   5.799   7.557 -1.1878  0.1049 -0.6096
 7250SOL    HW230719  11.415   5.887   7.656 -2.3905  0.2052 -1.5783
 7251SOL     OW30720   4.913   9.437   1.199  0.3076 -0.1534 -0.3170
 7251SOL    HW130721   4.829   9.479   1.218  0.5878  0.6815 -0.8708
 7251SOL    HW230722   4.916   9.363   1.260  0.2358  1.1920  1.4231
 7252SOL     OW30723   3.928   8.722   1.961  0.3148 -0.1602 -0.0270
 7252SOL    HW130724   3.941   8.642   2.012 -0.2017  0.2348  0.7520
 7252SOL    HW230725   3.896   8.786   2.025  2.3108  1.1697 -0.2903
 7253SOL     OW30726   9.455   9.731   0.304  0.1400 -0.4026 -0.3171
 7253SOL    HW130727   9.494   9.648   0.276  0.1388 -1.3813  2.3236
 7253SOL    HW230728   9.385   9.706   0.364  1.3328  1.4780  2.0514
 7254SOL     OW30729  12.504   8.215   1.530  0.2305 -0.2525  0.5294
 7254SOL    HW130730  12.464   8.159   1.463  0.5712 -0.2593  0.3301
 7254SOL    HW230731  12.585   8.246   1.490  0.4745 -0.3163  0.9688
 7255SOL     OW30732   9.654   8.619   8.898 -0.4407  0.8800  0.1554
 7255SOL    HW130733   9.668   8.544   8.955 -1.2127 -0.2929 -1.1443
 7255SOL    HW230734   9.732   8.673   8.909  0.2951 -0.2882  0.8300
 7256SOL     OW30735   4.575  10.503   4.927 -0.2833 -0.3961 -0.0822
 7256SOL    HW130736   4.513  10.485   4.856 -0.0840  1.7728 -0.8755
 7256SOL    HW230737   4.529  10.476   5.006 -2.4105  1.3577 -0.6209
 7257SOL     OW30738   6.103   2.225   2.523  0.3706  0.3730  0.8121
 7257SOL    HW130739   6.112   2.164   2.450 -0.7621  1.4916 -0.2891
 7257SOL    HW230740   6.099   2.311   2.483  0.1461  1.0506  2.2289
 7258SOL     OW30741   9.570   8.150   4.635  0.4590 -0.2411 -0.3956
 7258SOL    HW130742   9.483   8.190   4.626  0.6439 -0.1340 -2.0020
 7258SOL    HW230743   9.553   8.067   4.679 -0.5897 -0.6412 -1.5095
 7259SOL     OW30744   9.244  12.260   3.827  0.5345  0.0979  0.0724
 7259SOL    HW130745   9.207  12.191   3.772 -1.6561  0.6589  0.7437
 7259SOL    HW230746   9.322  12.220   3.867 -0.8313 -2.1099  0.7060
 7260SOL     OW30747   9.067   3.329   1.947 -0.4501  0.6410  0.1536
 7260SOL    HW130748   9.092   3.388   1.876  0.1287  0.8373  0.5129
 7260SOL    HW230749   9.145   3.275   1.963 -0.3074  1.1021  1.1273
 7261SOL     OW30750   0.689   8.525   4.843 -0.5228  0.3664  0.7857
 7261SOL    HW130751   0.715   8.455   4.783 -1.4485  0.6659 -0.0083
 7261SOL    HW230752   0.654   8.593   4.785 -0.4615  1.1075  1.6071
 7262SOL     OW30753   6.491   8.226   5.583  0.3607 -0.2680 -0.1875
 7262SOL    HW130754   6.420   8.169   5.554  1.1361 -0.8943 -0.9099
 7262SOL    HW230755   6.548   8.169   5.635 -0.0219  0.4008  1.0149
 7263SOL     OW30756   6.160   4.775   0.446  0.0586 -0.0596  0.5445
 7263SOL    HW130757   6.241   4.744   0.406  0.6791  0.1258  1.6114
 7263SOL    HW230758   6.178   4.867   0.468  0.5791 -0.7114  3.2218
 7264SOL     OW30759   7.560   1.252   7.338 -0.3025 -0.3440 -0.4938
 7264SOL    HW130760   7.642   1.300   7.331 -0.2335 -0.6161 -1.8802
 7264SOL    HW230761   7.507   1.303   7.400  0.4240  0.5330 -0.5814
 7265SOL     OW30762   8.179  11.262   4.789  0.4207 -0.2450 -0.2732
 7265SOL    HW130763   8.210  11.217   4.711  1.0455 -0.0820 -0.1218
 7265SOL    HW230764   8.104  11.211   4.818  1.3764 -1.4437  0.1572
 7266SOL     OW30765   6.742   2.289  12.131 -0.1793 -0.2063 -0.2713
 7266SOL    HW130766   6.766   2.340  12.053 -1.3058 -0.3300 -0.7162
 7266SOL    HW230767   6.816   2.229  12.144 -0.8447 -1.6603 -2.5429
 7267SOL     OW30768   5.628   5.176  10.053  0.2541  0.3392 -0.1737
 7267SOL    HW130769   5.661   5.134   9.974  0.6963  0.5642 -0.1124
 7267SOL    HW230770   5.536   5.149  10.058  0.1032  0.6593 -0.9904
 7268SOL     OW30771   7.935   1.987   2.597  0.1124 -0.3860  0.4615
 7268SOL    HW130772   7.868   2.048   2.627 -0.1136 -0.0378 -0.6836
 7268SOL    HW230773   8.005   1.993   2.662 -0.7120 -0.3138  1.3570
 7269SOL     OW30774   0.306   5.589   9.964 -0.1236 -0.0040 -0.5127
 7269SOL    HW130775   0.253   5.560   9.890 -0.0249  0.9777 -0.9797
 7269SOL    HW230776   0.257   5.662  10.002  1.1177  1.3103 -1.3085
 7270SOL     OW30777   6.112  10.629   6.710  0.1081 -0.2159  0.7013
 7270SOL    HW130778   6.193  10.679   6.698  0.0659 -0.5775 -1.3251
 7270SOL    HW230779   6.076  10.619   6.622 -1.9842 -0.3638  1.5141
 7271SOL     OW30780  10.079  11.414  12.082  0.1797 -0.2927 -0.0397
 7271SOL    HW130781  10.109  11.325  12.099  1.5132 -0.0751 -1.1260
 7271SOL    HW230782  10.109  11.434  11.994 -0.7549  0.9793 -0.1070
 7272SOL     OW30783   5.505   8.391   8.637 -0.0610  0.1266  0.2902
 7272SOL    HW130784   5.516   8.422   8.547 -0.0316  1.5625  0.7588
 7272SOL    HW230785   5.413   8.367   8.643  0.4452 -2.3649 -0.7940
 7273SOL     OW30786  11.803   8.986   7.564  0.5600 -0.4104 -0.4341
 7273SOL    HW130787  11.792   8.970   7.658  0.4386 -0.9754 -0.5428
 7273SOL    HW230788  11.714   8.983   7.529  0.6363 -0.5292 -0.6176
 7274SOL     OW30789   2.195   8.043   0.458  0.1567 -0.2465 -0.1582
 7274SOL    HW130790   2.160   8.047   0.547  0.5110 -0.1477 -0.0205
 7274SOL    HW230791   2.229   8.131   0.442 -1.9293  0.4195 -1.2317
 7275SOL     OW30792   5.986   0.149   0.149  0.2530 -0.3918  0.4683
 7275SOL    HW130793   5.978   0.244   0.160 -0.2732 -0.0912 -1.9650
 7275SOL    HW230794   6.070   0.137   0.105 -0.7872 -0.7664 -1.5221
 7276SOL     OW30795   5.200   1.398   4.594 -0.0636 -0.1869  0.0940
 7276SOL    HW130796   5.112   1.382   4.628  0.0268  0.9066  0.9102
 7276SOL    HW230797   5.258   1.346   4.650 -0.1582 -0.7288 -0.3003
 7277SOL     OW30798  12.445   5.241  11.466 -0.3236 -0.1761  0.5328
 7277SOL    HW130799  12.387   5.277  11.399 -0.3085 -0.0755  0.5727
 7277SOL    HW230800  12.399   5.254  11.549  0.9729  2.6347  0.9351
 7278SOL     OW30801   3.841  12.550   8.709 -0.4728 -0.1790  0.2287
 7278SOL    HW130802   3.934  12.529   8.715 -0.4047 -0.6269 -1.7598
 7278SOL    HW230803   3.839  12.646   8.715  0.2480 -0.0804 -0.7208
 7279SOL     OW30804   9.002   2.989   4.796 -0.1757  0.0354  0.8108
 7279SOL    HW130805   9.094   2.997   4.769 -0.4856  0.5046 -0.1705
 7279SOL    HW230806   8.957   2.959   4.716 -0.7704 -0.8690  1.4690
 7280SOL     OW30807   8.936   6.053   3.834  0.7963  0.4114 -0.2995
 7280SOL    HW130808   8.852   6.024   3.799  1.5679 -0.7533 -1.2115
 7280SOL    HW230809   8.952   5.995   3.908  1.6643 -0.5901 -1.2570
 7281SOL     OW30810   4.167   9.924   8.734 -0.0098  0.4100 -0.0486
 7281SOL    HW130811   4.088   9.871   8.727 -0.3912  1.0317 -0.6182
 7281SOL    HW230812   4.145  10.007   8.691  1.2888  0.2142 -1.1854
 7282SOL     OW30813   5.301   0.373   8.516 -0.1038 -0.5184  0.3410
 7282SOL    HW130814   5.236   0.426   8.472  0.6399 -1.2228 -1.7456
 7282SOL    HW230815   5.256   0.290   8.535  0.1534 -1.0826 -1.2822
 7283SOL     OW30816   2.326   6.211   9.467 -0.5265  0.8196 -0.4479
 7283SOL    HW130817   2.236   6.214   9.436 -0.1618  0.9695 -1.5352
 7283SOL    HW230818   2.319   6.194   9.561 -1.6249 -1.1245 -0.8418
 7284SOL     OW30819   7.796   0.947   0.818 -0.5307 -0.0367 -0.0503
 7284SOL    HW130820   7.741   0.945   0.897 -1.1104 -0.2429 -0.4481
 7284SOL    HW230821   7.823   0.856   0.805 -1.0024 -0.1231 -0.4679
 7285SOL     OW30822  12.592   6.480   4.506 -0.2557 -0.2027  0.2824
 7285SOL    HW130823  12.544   6.499   4.425  0.8123  1.8784  0.0583
 7285SOL    HW230824  12.665   6.424   4.479 -0.8680 -0.9227  0.1108
 7286SOL     OW30825   7.906   1.772   2.442  0.2610  0.2075  0.3281
 7286SOL    HW130826   7.813   1.761   2.420 -0.5519 -0.7201  3.6649
 7286SOL    HW230827   7.909   1.855   2.490  1.5727  1.2200 -1.4147
 7287SOL     OW30828  11.208   7.187   3.757  0.3615  0.3286 -0.4571
 7287SOL    HW130829  11.224   7.139   3.838 -0.8160 -1.1693 -1.0542
 7287SOL    HW230830  11.145   7.255   3.781 -1.1837 -1.0678 -0.3550
 7288SOL     OW30831   4.374   1.896   3.345  0.2324 -0.0545 -0.3497
 7288SOL    HW130832   4.316   1.823   3.320 -0.4036  0.3660 -0.1384
 7288SOL    HW230833   4.452   1.885   3.290 -1.0070  0.7144 -2.4009
 7289SOL     OW30834  11.073  11.153   6.611  0.2681 -0.1094  0.1653
 7289SOL    HW130835  11.103  11.146   6.701  0.2852 -1.1437  0.0865
 7289SOL    HW230836  11.143  11.115   6.558 -0.2009 -0.4899 -0.1931
 7290SOL     OW30837   3.911  11.233   1.160  0.0995 -0.1699 -0.3716
 7290SOL    HW130838   3.947  11.187   1.084  1.1747 -0.3883  0.2561
 7290SOL    HW230839   3.958  11.196   1.235 -0.5984  0.3940  0.3558
 7291SOL     OW30840   9.803  10.667  11.775  0.0967 -0.0163  0.4637
 7291SOL    HW130841   9.779  10.668  11.683 -0.0010 -0.5585  0.4767
 7291SOL    HW230842   9.896  10.692  11.777  0.4879 -1.3204  0.0783
 7292SOL     OW30843  11.658   2.111  12.113  0.4271  0.2172 -0.3141
 7292SOL    HW130844  11.622   2.191  12.152  1.0532  0.4172 -0.1307
 7292SOL    HW230845  11.742   2.138  12.076  1.8235 -0.8411  1.8891
 7293SOL     OW30846   2.024   3.894   7.793 -0.2741 -0.0994  0.3846
 7293SOL    HW130847   2.039   3.954   7.720 -1.8553 -0.7937 -0.5515
 7293SOL    HW230848   2.098   3.833   7.788  0.3726  0.6715  0.2353
 7294SOL     OW30849   8.588   1.929  10.832 -0.9674 -0.0344  0.2838
 7294SOL    HW130850   8.592   1.834  10.821  1.4638 -0.1077  1.1453
 7294SOL    HW230851   8.503   1.945  10.873 -2.0496 -1.6362 -1.1952
 7295SOL     OW30852  12.450   8.223   9.588 -0.0886 -0.2805  0.5762
 7295SOL    HW130853  12.445   8.220   9.684 -3.2788 -0.5922  0.4950
 7295SOL    HW230854  12.370   8.180   9.559  1.2529 -1.0470 -2.2967
 7296SOL     OW30855   2.315   2.183   9.117 -0.3408 -0.3895  0.3534
 7296SOL    HW130856   2.312   2.263   9.170 -0.7475  1.7805 -2.6845
 7296SOL    HW230857   2.223   2.159   9.105 -0.3433  0.0895 -0.6575
 7297SOL     OW30858  11.704   0.822   3.743  0.1981  0.3151  0.9655
 7297SOL    HW130859  11.714   0.887   3.674  0.0805  0.0855  0.7291
 7297SOL    HW230860  11.619   0.782   3.726  0.9863 -1.0703  0.1060
 7298SOL     OW30861   1.603   1.476  11.979 -0.1313 -0.3367 -0.1085
 7298SOL    HW130862   1.677   1.416  11.985 -0.5694 -0.9131 -0.2995
 7298SOL    HW230863   1.616   1.523  11.896 -0.2783 -0.8523 -0.4271
 7299SOL     OW30864   3.632  11.225   6.652  0.0465  0.2928 -0.0144
 7299SOL    HW130865   3.610  11.242   6.561  1.8372 -0.0420 -0.5482
 7299SOL    HW230866   3.549  11.234   6.699 -1.0877 -0.4602 -1.7835
 7300SOL     OW30867   1.591   5.856   9.168 -0.1562 -0.3526  0.1552
 7300SOL    HW130868   1.568   5.770   9.203  0.6519 -0.9043 -0.6305
 7300SOL    HW230869   1.628   5.903   9.243  1.7187 -1.5820  0.0692
 7301SOL     OW30870   8.475   5.861   8.560 -0.1421  0.0277 -0.1198
 7301SOL    HW130871   8.464   5.767   8.577 -0.5160  0.2118  0.6915
 7301SOL    HW230872   8.438   5.904   8.637  0.0123  0.8465 -0.4931
 7302SOL     OW30873   1.313   6.565   1.202  0.5528  0.0282  0.0880
 7302SOL    HW130874   1.229   6.580   1.244  0.2269  0.5620 -0.7287
 7302SOL    HW230875   1.299   6.592   1.111  1.9111  1.1450  0.1858
 7303SOL     OW30876   1.816   0.799   0.046 -0.5020 -0.1165  0.4045
 7303SOL    HW130877   1.787   0.847   0.124 -2.8647  1.4779 -1.3114
 7303SOL    HW230878   1.893   0.847   0.015 -0.4282  0.1064  0.9282
 7304SOL     OW30879   2.164   8.236   2.751  0.0848 -0.1003  0.2952
 7304SOL    HW130880   2.186   8.205   2.663 -1.1111  0.6090 -0.2746
 7304SOL    HW230881   2.077   8.201   2.768 -0.4477  1.2352  0.4431
 7305SOL     OW30882  11.899   0.384   1.769 -0.5310 -0.3305  0.7601
 7305SOL    HW130883  11.909   0.414   1.679  0.9985 -2.7415  0.0555
 7305SOL    HW230884  11.830   0.319   1.765 -0.7358 -0.1585  1.4193
 7306SOL     OW30885  11.458   5.341   2.973  0.4438 -0.0273  0.2925
 7306SOL    HW130886  11.373   5.375   2.944  0.1116  0.0634  1.3367
 7306SOL    HW230887  11.492   5.409   3.031  2.2366  0.9326 -1.7771
 7307SOL     OW30888   4.008  10.080  10.272 -0.5469  0.2792 -0.2894
 7307SOL    HW130889   4.004  10.148  10.205  0.4358 -1.0722 -1.7988
 7307SOL    HW230890   4.015  10.128  10.354  3.1759  2.1348 -1.4554
 7308SOL     OW30891   2.557   6.811   2.315  0.1369  0.2835 -0.6664
 7308SOL    HW130892   2.651   6.815   2.296 -0.3260  0.5590 -3.3920
 7308SOL    HW230893   2.539   6.890   2.365  1.2462  0.6198 -0.7724
 7309SOL     OW30894   6.434  10.445   2.179 -0.5666 -0.4346  0.1557
 7309SOL    HW130895   6.416  10.434   2.086  0.1878 -1.1137  0.0684
 7309SOL    HW230896   6.375  10.383   2.222 -0.4260 -0.6306  0.0719
 7310SOL     OW30897   1.402   6.784  10.447  0.6596 -0.1068 -0.2240
 7310SOL    HW130898   1.458   6.783  10.524  0.0012  0.0410  0.2641
 7310SOL    HW230899   1.453   6.739  10.379  1.7789  0.9202 -0.0905
 7311SOL     OW30900   4.952   8.611   5.806 -0.7053  0.4437  0.5968
 7311SOL    HW130901   5.017   8.608   5.736  0.5899 -1.2554  1.8014
 7311SOL    HW230902   4.997   8.654   5.878 -1.5789  0.9443  0.8618
 7312SOL     OW30903   5.433   1.959   5.296  0.1830  0.4314 -0.2726
 7312SOL    HW130904   5.352   2.001   5.328 -0.2437  0.2462 -1.0972
 7312SOL    HW230905   5.406   1.872   5.269  0.6936  0.3219 -0.4401
 7313SOL     OW30906   5.252   1.991   0.727  0.1504  0.0229  0.1425
 7313SOL    HW130907   5.256   2.051   0.801 -0.5166 -2.1220  2.0618
 7313SOL    HW230908   5.341   1.955   0.720  0.2347  0.2894 -0.1441
 7314SOL     OW30909   6.516  10.373  11.651 -0.3817 -0.0388  0.3253
 7314SOL    HW130910   6.513  10.284  11.687 -1.0498  0.5634  1.8470
 7314SOL    HW230911   6.483  10.428  11.721 -1.4487  1.2562 -1.1234
 7315SOL     OW30912   1.932   3.883  12.526 -0.3935 -0.1521 -0.3246
 7315SOL    HW130913   1.852   3.931  12.549  0.2889  0.3390  1.1607
 7315SOL    HW230914   1.911   3.841  12.442 -1.7783  0.9492 -0.5800
 7316SOL     OW30915   0.619   6.546   5.408 -0.2551 -0.2594 -0.3239
 7316SOL    HW130916   0.591   6.494   5.483 -1.6245  0.4962 -0.2967
 7316SOL    HW230917   0.568   6.626   5.413  0.3533  0.2288 -1.5167
 7317SOL     OW30918  12.384   4.099   3.297 -0.6248 -0.1121  0.3348
 7317SOL    HW130919  12.396   4.105   3.392  1.6208  1.8571  0.0035
 7317SOL    HW230920  12.299   4.141   3.282 -0.3866  0.7950  1.3742
 7318SOL     OW30921   9.317   7.724   6.118  0.2204 -0.3805 -0.0001
 7318SOL    HW130922   9.344   7.708   6.209  0.6656 -1.1527 -0.2600
 7318SOL    HW230923   9.399   7.723   6.068 -0.1385 -1.3747 -0.6034
 7319SOL     OW30924  11.595   9.194   5.415 -0.5536 -0.1282 -0.4808
 7319SOL    HW130925  11.559   9.105   5.421 -0.1049 -0.2079  1.7126
 7319SOL    HW230926  11.568   9.236   5.497  1.0573  1.0545 -0.5320
 7320SOL     OW30927   9.885   0.451   4.826  0.2592 -0.2957  0.2643
 7320SOL    HW130928   9.965   0.408   4.856 -0.2370 -1.5164 -0.1175
 7320SOL    HW230929   9.876   0.424   4.734 -0.0323  0.6884 -0.0123
 7321SOL     OW30930   3.330   9.253   9.734  0.5492 -0.2523 -0.4805
 7321SOL    HW130931   3.293   9.316   9.796 -1.7663 -0.3444 -1.6633
 7321SOL    HW230932   3.402   9.301   9.692 -0.2547  1.1067 -0.3586
 7322SOL     OW30933   7.896   2.303   3.361 -0.1982 -0.2539  0.0714
 7322SOL    HW130934   7.987   2.275   3.352 -0.2184  0.1742 -1.8060
 7322SOL    HW230935   7.887   2.328   3.453  1.3825 -0.9514  0.4365
 7323SOL     OW30936   2.758   7.371   7.766 -0.2703  0.4279  0.2755
 7323SOL    HW130937   2.845   7.362   7.804 -0.2918 -1.0786  0.0361
 7323SOL    HW230938   2.773   7.401   7.676  0.0099  0.0107  0.1821
 7324SOL     OW30939   0.412   9.339  11.374  0.5763  0.2933 -0.0703
 7324SOL    HW130940   0.376   9.267  11.323  0.7177  1.0480 -1.2612
 7324SOL    HW230941   0.483   9.299  11.425 -0.3242 -0.6985  0.4422
 7325SOL     OW30942   0.578   2.268   1.265  0.1105  0.1478 -0.3845
 7325SOL    HW130943   0.590   2.173   1.256 -2.9792 -0.4009  0.1499
 7325SOL    HW230944   0.638   2.306   1.201 -0.4669 -2.3302 -2.5800
 7326SOL     OW30945   1.431   5.199   0.729 -0.1179 -0.7065 -0.1957
 7326SOL    HW130946   1.359   5.227   0.672  0.8993 -1.0237 -1.6863
 7326SOL    HW230947   1.429   5.104   0.724  0.1105 -0.7274  0.1396
 7327SOL     OW30948   0.580   8.920   3.786  0.4497  0.3317 -0.1266
 7327SOL    HW130949   0.560   8.830   3.758 -0.8206  0.6506 -0.3150
 7327SOL    HW230950   0.545   8.926   3.874  0.3566  0.6986 -0.1871
 7328SOL     OW30951   4.897   1.315   0.320  0.2980 -0.1678 -0.3271
 7328SOL    HW130952   4.817   1.290   0.366  1.2546 -0.2191  1.3923
 7328SOL    HW230953   4.874   1.396   0.274 -0.8968 -0.5077 -0.3525
 7329SOL     OW30954   6.575   0.007  11.852  0.3405 -0.0376 -0.3973
 7329SOL    HW130955   6.615  -0.072  11.888 -1.1477 -0.8296 -0.4139
 7329SOL    HW230956   6.493   0.017  11.900  0.1525  1.1003 -0.9101
 7330SOL     OW30957   4.008  12.091  11.252 -0.2703  0.6403  0.2217
 7330SOL    HW130958   4.009  12.094  11.156  1.7463  1.8386  0.2400
 7330SOL    HW230959   4.086  12.041  11.275 -1.3754 -0.6728  1.2564
 7331SOL     OW30960   6.507   2.949   7.615  0.5335 -0.2006 -0.0902
 7331SOL    HW130961   6.419   2.934   7.648  0.7167  0.9175  0.9524
 7331SOL    HW230962   6.536   2.862   7.586 -0.0902 -1.0078  1.5794
 7332SOL     OW30963  11.297   2.434   5.145 -0.6949 -0.1574  0.1782
 7332SOL    HW130964  11.287   2.360   5.205 -1.4907  0.7002  1.1488
 7332SOL    HW230965  11.212   2.478   5.147 -0.1464  0.9552 -0.1280
 7333SOL     OW30966   9.482   8.974   2.412  0.6925  0.7380 -0.0538
 7333SOL    HW130967   9.491   8.955   2.505  0.1568  0.6434 -0.0207
 7333SOL    HW230968   9.513   9.064   2.403 -0.2683  1.1288  0.3990
 7334SOL     OW30969   3.182   9.655   9.739 -0.0766  0.0736 -0.4576
 7334SOL    HW130970   3.228   9.736   9.762  1.0003 -0.2368 -1.4312
 7334SOL    HW230971   3.228   9.587   9.788 -0.9214  0.0116  0.2831
 7335SOL     OW30972   0.198   9.600   3.321 -0.0305 -0.0291 -0.1870
 7335SOL    HW130973   0.284   9.605   3.279  1.7066 -0.7997  2.9330
 7335SOL    HW230974   0.197   9.675   3.381 -0.6796 -1.0738  1.1631
 7336SOL     OW30975   8.106  10.937   1.079 -0.2341 -0.0188  0.0092
 7336SOL    HW130976   8.083  11.021   1.119 -1.1879 -1.2443  2.2287
 7336SOL    HW230977   8.200  10.929   1.092 -0.3352  0.1704  0.9579
 7337SOL     OW30978   8.533   6.997  12.335 -0.0600  0.6128 -0.0865
 7337SOL    HW130979   8.564   6.907  12.325 -1.1465  0.0980  0.8361
 7337SOL    HW230980   8.611   7.047  12.360  0.0175 -0.7635  2.8796
 7338SOL     OW30981   3.267  10.641   2.483  0.7288  0.4976 -0.4264
 7338SOL    HW130982   3.184  10.663   2.441 -0.5340 -2.4763  0.2281
 7338SOL    HW230983   3.290  10.719   2.534 -0.8300  1.9476 -1.8402
 7339SOL     OW30984  10.918  12.422   8.927 -0.2521 -0.1385 -0.0984
 7339SOL    HW130985  10.945  12.440   8.837  0.2221  0.6950  0.2014
 7339SOL    HW230986  11.000  12.415   8.976 -0.5008 -0.6951  0.2599
 7340SOL     OW30987   7.412  11.125   4.070  0.3559 -0.0687 -0.2994
 7340SOL    HW130988   7.501  11.091   4.055  0.1213 -0.5539 -0.6111
 7340SOL    HW230989   7.425  11.218   4.088  0.9580 -0.1931 -0.0420
 7341SOL     OW30990   7.240   0.648  11.879 -0.2976  0.1710 -0.6917
 7341SOL    HW130991   7.149   0.642  11.908 -0.5708 -0.6822 -1.6504
 7341SOL    HW230992   7.271   0.557  11.879  0.6933  0.4791 -0.0029
 7342SOL     OW30993   8.087   5.245  10.145  0.7478 -0.1498  0.0594
 7342SOL    HW130994   8.024   5.316  10.130  1.4553  1.4235  3.3459
 7342SOL    HW230995   8.037   5.178  10.192  1.1446  0.5780  1.6070
 7343SOL     OW30996   5.253   3.036   2.265 -0.3438 -0.0979 -0.2109
 7343SOL    HW130997   5.202   3.115   2.245  0.4187  0.7034  0.8741
 7343SOL    HW230998   5.264   2.992   2.181 -1.2462  0.6652 -0.7469
 7344SOL     OW30999   8.534   8.596   7.200  0.2397 -0.0045 -0.1936
 7344SOL    HW131000   8.553   8.675   7.252  2.1672 -0.7701  0.3727
 7344SOL    HW231001   8.608   8.537   7.219 -0.9800 -1.8231 -0.8524
 7345SOL     OW31002   0.229   3.024   0.613  0.0268 -0.4777 -0.0232
 7345SOL    HW131003   0.256   3.094   0.554  0.4557 -0.6489 -0.0349
 7345SOL    HW231004   0.208   3.068   0.696  0.3087 -0.3391 -0.0256
 7346SOL     OW31005   9.939   9.222   9.553  0.4183  0.1459  0.3263
 7346SOL    HW131006   9.974   9.216   9.643 -2.9753  1.9642  1.9374
 7346SOL    HW231007   9.885   9.143   9.544  1.7762 -0.7133 -0.7169
 7347SOL     OW31008   2.454   6.760   5.174 -0.7111  0.4403  0.3084
 7347SOL    HW131009   2.418   6.683   5.217  1.8197  0.2562  2.3120
 7347SOL    HW231010   2.487   6.728   5.090 -2.4412  0.0533 -0.2672
 7348SOL     OW31011   5.743   8.727   9.566  0.2233  0.0258 -0.1011
 7348SOL    HW131012   5.723   8.634   9.574 -1.0050  0.1000 -1.7447
 7348SOL    HW231013   5.660   8.767   9.540  0.7044  1.6070  0.6408
 7349SOL     OW31014   6.413  11.167   4.924 -0.3557 -0.0304 -0.1760
 7349SOL    HW131015   6.482  11.181   4.989 -0.8414 -0.0678  0.3492
 7349SOL    HW231016   6.397  11.073   4.926 -0.7023  0.0316 -0.0118
 7350SOL     OW31017   2.139   0.067   0.184 -0.0366 -0.0345  0.2819
 7350SOL    HW131018   2.064   0.024   0.225  0.3263 -2.1014 -1.0634
 7350SOL    HW231019   2.216   0.031   0.228  0.2707 -0.6116 -0.6922
 7351SOL     OW31020   3.562   0.347   5.235  1.1055  0.2415  1.0456
 7351SOL    HW131021   3.484   0.301   5.267 -0.4458  1.6813 -0.4352
 7351SOL    HW231022   3.591   0.400   5.310  0.0713  0.3942  1.3611
 7352SOL     OW31023   8.182   8.707  12.424  0.1130  0.5263  0.1407
 7352SOL    HW131024   8.109   8.766  12.409  0.8983  1.1073 -1.5809
 7352SOL    HW231025   8.142   8.620  12.429 -0.8651  1.0005  1.0213
 7353SOL     OW31026   4.008   4.852   9.907  0.1675  0.3196  0.0217
 7353SOL    HW131027   4.062   4.776   9.883  0.4663  0.0945  1.3447
 7353SOL    HW231028   3.925   4.837   9.861  0.8177  0.0839 -1.1147
 7354SOL     OW31029   1.876   8.508  10.737 -0.0360 -0.1622 -0.2462
 7354SOL    HW131030   1.881   8.434  10.797  2.0563 -0.2405 -0.4537
 7354SOL    HW231031   1.817   8.479  10.667  0.1768 -1.3633  0.0528
 7355SOL     OW31032   4.181   0.223   1.498  0.1759 -0.2281  0.5632
 7355SOL    HW131033   4.273   0.240   1.518 -0.0058  0.1600  1.0963
 7355SOL    HW231034   4.183   0.173   1.416  1.0489 -3.3525  2.3499
 7356SOL     OW31035   3.035   9.357  10.071  0.8815  0.3116  0.3162
 7356SOL    HW131036   3.101   9.398  10.127  2.3601 -1.3239 -0.1620
 7356SOL    HW231037   3.078   9.280  10.035 -1.2238 -0.6886 -0.2188
 7357SOL     OW31038   6.075   0.873  11.793  0.2042 -0.4943  0.4133
 7357SOL    HW131039   6.140   0.943  11.803  0.1622 -0.4169  0.1452
 7357SOL    HW231040   6.100   0.807  11.858  1.5058 -1.2144 -0.7704
 7358SOL     OW31041   1.111  11.693  11.355 -0.4971 -0.1065  0.2081
 7358SOL    HW131042   1.150  11.770  11.395  1.2944  0.1157 -1.7823
 7358SOL    HW231043   1.183  11.652  11.306 -1.7578 -2.1861 -0.0225
 7359SOL     OW31044   3.956  12.304   0.195  0.0220  0.0175 -0.3581
 7359SOL    HW131045   3.928  12.291   0.285 -1.2831  0.7652 -0.6382
 7359SOL    HW231046   3.938  12.397   0.177  1.8157  0.3117 -0.8687
 7360SOL     OW31047   7.656   4.052   3.857 -0.1675 -0.0218  0.0052
 7360SOL    HW131048   7.588   3.992   3.886 -1.6896  0.3372 -2.5084
 7360SOL    HW231049   7.732   4.030   3.911 -1.5586 -2.0769  1.2700
 7361SOL     OW31050  11.341   9.672   0.805 -0.5605  0.0173  0.0774
 7361SOL    HW131051  11.371   9.592   0.848  0.4019 -0.3059 -1.1440
 7361SOL    HW231052  11.274   9.643   0.743 -1.1242  0.3389  0.5170
 7362SOL     OW31053   3.959   5.612   5.305 -0.1716  0.0235  0.4958
 7362SOL    HW131054   3.984   5.522   5.327 -0.9452 -0.5242 -0.7433
 7362SOL    HW231055   3.893   5.603   5.236 -0.8636  1.5299  0.9066
 7363SOL     OW31056  10.037   2.563   4.922  0.6356  0.5120  0.0169
 7363SOL    HW131057  10.050   2.604   5.007  0.9948  0.1277  0.1469
 7363SOL    HW231058  10.125   2.546   4.889  0.4947  0.2052 -0.2131
 7364SOL     OW31059   6.621  11.980   1.692  0.3612  0.3461  0.1727
 7364SOL    HW131060   6.699  12.029   1.718  0.8540  0.0132 -0.6210
 7364SOL    HW231061   6.552  12.012   1.750  1.2666  0.0464  1.4742
 7365SOL     OW31062   6.230  10.088  10.159 -0.4940  0.2682 -0.8450
 7365SOL    HW131063   6.159  10.117  10.217  0.7708  1.5257  0.1584
 7365SOL    HW231064   6.271  10.016  10.206 -0.4617  0.2230 -0.9425
 7366SOL     OW31065   4.052   2.810   1.985 -0.3694  0.3005  0.4604
 7366SOL    HW131066   3.991   2.800   2.058 -0.5188 -1.0472  0.1785
 7366SOL    HW231067   4.039   2.732   1.932  1.1825  0.2635  0.0740
 7367SOL     OW31068   1.791   8.837   5.292  0.2290  0.0777  0.0119
 7367SOL    HW131069   1.750   8.921   5.311  2.4093  1.0491  0.8166
 7367SOL    HW231070   1.835   8.812   5.373  3.3310  0.4527 -1.4002
 7368SOL     OW31071   8.330   7.133  12.502 -0.0107 -0.4683 -0.0147
 7368SOL    HW131072   8.323   7.060  12.563 -1.5723 -0.1809  0.2005
 7368SOL    HW231073   8.364   7.094  12.421 -0.0381 -1.2765  0.3541
 7369SOL     OW31074   2.986   8.016   2.424 -0.5610  0.1312 -0.7171
 7369SOL    HW131075   3.013   8.049   2.510  0.7057  0.9566 -1.3856
 7369SOL    HW231076   2.933   7.938   2.443 -1.1253  0.8503  0.8238
 7370SOL     OW31077   9.147   0.856   4.266 -0.0159 -0.3610  0.0625
 7370SOL    HW131078   9.232   0.864   4.308 -0.2725 -0.4727  0.6079
 7370SOL    HW231079   9.091   0.919   4.312 -0.8761 -2.0154  1.3897
 7371SOL     OW31080   3.690  10.543  12.064  0.2338 -0.5724 -1.0097
 7371SOL    HW131081   3.686  10.481  12.137 -0.9186  1.2601  0.6071
 7371SOL    HW231082   3.598  10.564  12.045  0.5703  1.9550 -0.2167
 7372SOL     OW31083  10.661  11.736   6.682 -0.0243  0.3281 -0.1766
 7372SOL    HW131084  10.633  11.717   6.772  0.6999  2.3915  0.5313
 7372SOL    HW231085  10.595  11.692   6.628 -1.1747  0.0402  1.3674
 7373SOL     OW31086  12.441   0.407   2.886 -0.0000  0.3447  0.1869
 7373SOL    HW131087  12.506   0.427   2.818 -1.0184  0.0650 -0.8928
 7373SOL    HW231088  12.416   0.316   2.870 -0.6446  0.4436  0.5903
 7374SOL     OW31089   8.986   0.928   6.505  0.0869 -0.3137  0.5620
 7374SOL    HW131090   8.905   0.903   6.549  1.0249  1.3347  3.5160
 7374SOL    HW231091   9.050   0.863   6.534 -0.3049 -2.6686 -3.1134
 7375SOL     OW31092  11.259   1.878   8.952 -0.3661 -0.5047  0.4857
 7375SOL    HW131093  11.340   1.830   8.931 -1.1460 -1.4575 -0.4503
 7375SOL    HW231094  11.249   1.868   9.046  0.5758 -0.4168  0.6096
 7376SOL     OW31095   1.241   0.434   3.303  0.1640  0.0015 -0.3274
 7376SOL    HW131096   1.159   0.484   3.307 -0.4736 -1.0884  0.8619
 7376SOL    HW231097   1.216   0.350   3.265  1.0246  0.1648 -1.3020
 7377SOL     OW31098   6.359  10.103  12.506 -0.3495 -0.4368  0.4957
 7377SOL    HW131099   6.343  10.025  12.452  0.2720 -0.8710  0.9227
 7377SOL    HW231100   6.450  10.094  12.535 -0.7066 -0.2733  1.7294
 7378SOL     OW31101  12.109   5.695   5.525  0.1670 -0.0724 -0.0648
 7378SOL    HW131102  12.124   5.609   5.484  2.0583  0.3542 -0.3784
 7378SOL    HW231103  12.068   5.747   5.456 -0.6321 -0.6032 -0.0012
 7379SOL     OW31104   6.851   0.545   1.503 -0.4285  0.2592 -0.2542
 7379SOL    HW131105   6.879   0.558   1.412  1.0481 -0.2467  0.0937
 7379SOL    HW231106   6.791   0.471   1.499  0.5590 -0.5468 -0.6897
 7380SOL     OW31107   7.083   9.447   2.052  0.2855  0.7586  0.3611
 7380SOL    HW131108   7.059   9.539   2.066 -1.8311 -0.0122  2.2804
 7380SOL    HW231109   7.021   9.416   1.985 -0.9910  0.0178  1.8333
 7381SOL     OW31110  10.343  10.370   0.835  0.2244  0.0629 -0.3882
 7381SOL    HW131111  10.394  10.447   0.861 -1.8881  0.2873  3.9549
 7381SOL    HW231112  10.267  10.406   0.789  0.4702  0.3512 -0.5718
 7382SOL     OW31113  10.849   1.551   7.905 -0.1094 -0.3863  0.0500
 7382SOL    HW131114  10.782   1.544   7.837  1.5847 -1.4383 -1.6159
 7382SOL    HW231115  10.877   1.461   7.920  0.4472 -0.0354  1.2300
 7383SOL     OW31116   5.472   2.734   2.265  0.2115 -0.2263 -0.2940
 7383SOL    HW131117   5.553   2.703   2.308 -0.2916 -0.5809  0.4214
 7383SOL    HW231118   5.402   2.707   2.325 -0.6061 -1.5782 -1.7772
 7384SOL     OW31119   8.785   7.191   3.195 -0.0160  0.1155 -0.6505
 7384SOL    HW131120   8.697   7.153   3.193  0.1477 -0.2635 -0.8007
 7384SOL    HW231121   8.816   7.183   3.104 -0.6441  2.1914 -1.1017
 7385SOL     OW31122   1.093  12.150   0.966  0.2545 -0.1336  0.1216
 7385SOL    HW131123   1.179  12.126   0.931  1.1678  1.0907  1.4214
 7385SOL    HW231124   1.056  12.067   0.998  1.1191 -0.6110 -0.0926
 7386SOL     OW31125   0.376   6.728  12.066  0.0320 -0.3955  0.2822
 7386SOL    HW131126   0.319   6.657  12.039 -1.6771  0.0606  2.4680
 7386SOL    HW231127   0.323   6.807  12.056  1.0277  0.3060  0.3241
 7387SOL     OW31128  12.495   2.688   4.638  0.5393  0.1500  0.1185
 7387SOL    HW131129  12.523   2.636   4.562 -0.3714  1.3213 -1.0619
 7387SOL    HW231130  12.400   2.675   4.641  0.4593  0.8140  0.5246
 7388SOL     OW31131   3.902   5.162   9.525 -0.2569  0.1891 -0.2004
 7388SOL    HW131132   3.921   5.214   9.603  3.6277  2.0572 -2.0993
 7388SOL    HW231133   3.844   5.217   9.473  1.1272  1.2461 -0.7023
 7389SOL     OW31134  10.311   1.989   3.830 -0.5618  0.3335  0.2643
 7389SOL    HW131135  10.230   1.939   3.816 -0.3612 -0.1395  0.7612
 7389SOL    HW231136  10.375   1.923   3.857 -0.2926  0.8623  0.9259
 7390SOL     OW31137  10.660   1.979   9.828  0.7677  0.2142  0.4937
 7390SOL    HW131138  10.680   1.918   9.899 -2.3213 -1.9704 -0.3257
 7390SOL    HW231139  10.619   2.054   9.872  0.7189 -0.1955  1.1583
 7391SOL     OW31140   2.558   3.845   2.087 -0.3176 -0.1899  0.2407
 7391SOL    HW131141   2.643   3.829   2.046 -0.3651 -0.3621  0.2068
 7391SOL    HW231142   2.494   3.807   2.027 -0.5224  1.0433 -0.3552
 7392SOL     OW31143   8.803   2.793   7.334  0.7231  0.0840  0.0534
 7392SOL    HW131144   8.760   2.715   7.368  0.4166  0.8518  1.5138
 7392SOL    HW231145   8.760   2.866   7.379  0.4127  1.1746 -1.9078
 7393SOL     OW31146   3.741  10.560   6.356  0.6114  0.4747  0.3039
 7393SOL    HW131147   3.684  10.485   6.340  1.7160 -0.5066  0.7844
 7393SOL    HW231148   3.719  10.588   6.445  1.0051 -0.0249  0.5615
 7394SOL     OW31149   6.258   0.766   8.460  0.1202  0.5718 -0.4996
 7394SOL    HW131150   6.316   0.753   8.535 -0.4726  1.8563  0.2196
 7394SOL    HW231151   6.246   0.861   8.455  0.6666  0.5844 -2.6501
 7395SOL     OW31152   0.437   9.748   2.144 -0.0045 -0.7820  0.0882
 7395SOL    HW131153   0.489   9.669   2.129  0.8511 -0.2149  0.0376
 7395SOL    HW231154   0.383   9.727   2.220 -0.5292 -1.7769 -0.5358
 7396SOL     OW31155   7.337   3.444  10.376  0.1461  0.4466 -0.1509
 7396SOL    HW131156   7.250   3.453  10.336  0.6151  1.9192 -0.9303
 7396SOL    HW231157   7.353   3.350  10.377 -0.9523  0.2138 -1.1255
 7397SOL     OW31158  11.368  12.279   6.583 -0.5086  0.3323 -0.3614
 7397SOL    HW131159  11.317  12.240   6.513  1.0157 -1.7920 -0.3801
 7397SOL    HW231160  11.314  12.270   6.662 -1.8166  1.8552 -1.0394
 7398SOL     OW31161   0.167   3.091   7.702  0.2270 -0.1417  0.2528
 7398SOL    HW131162   0.220   3.138   7.766  0.5839  0.6927 -0.6217
 7398SOL    HW231163   0.201   3.001   7.704  0.8038  0.0777  0.6198
 7399SOL     OW31164   9.816   5.722  11.620  0.0883  0.5823 -0.2919
 7399SOL    HW131165   9.909   5.725  11.642  0.1621 -2.4540  0.2348
 7399SOL    HW231166   9.772   5.719  11.705 -0.1801 -1.8379 -0.4372
 7400SOL     OW31167   4.140  12.000   0.158 -0.2953  0.5072 -0.2549
 7400SOL    HW131168   4.084  12.076   0.171 -0.7893 -0.0877  1.3452
 7400SOL    HW231169   4.228  12.029   0.184 -0.5326  0.4673  0.6115
 7401SOL     OW31170   3.558  12.327   6.188 -0.2127  0.5393 -0.2622
 7401SOL    HW131171   3.572  12.413   6.225 -2.5976  0.8655  0.0308
 7401SOL    HW231172   3.470  12.302   6.215  0.4808 -2.1225 -0.1173
 7402SOL     OW31173   4.436   6.881   8.229  0.3740 -1.0188  0.2235
 7402SOL    HW131174   4.437   6.838   8.314  0.0632 -0.9436  0.2661
 7402SOL    HW231175   4.409   6.813   8.168 -0.6064 -0.7603  0.3624
 7403SOL     OW31176   3.708   7.958   2.743  0.2533  0.1969  0.1073
 7403SOL    HW131177   3.757   8.003   2.674 -0.8929  0.3875 -0.5974
 7403SOL    HW231178   3.694   7.870   2.708  1.4048 -0.3535  0.9594
 7404SOL     OW31179   4.843   0.211   7.699  0.3218 -0.0594  0.2772
 7404SOL    HW131180   4.917   0.269   7.716  0.4736 -0.4476  0.9869
 7404SOL    HW231181   4.875   0.151   7.632  1.1769 -1.1543  1.6181
 7405SOL     OW31182  10.913   2.958   3.381  0.0901 -0.1027  0.5631
 7405SOL    HW131183  10.875   2.932   3.297 -0.2440  0.8887  0.3989
 7405SOL    HW231184  10.958   3.041   3.362  2.0221 -1.0306  0.8374
 7406SOL     OW31185   7.987   9.338   1.494 -0.0638 -0.1695  0.0538
 7406SOL    HW131186   8.042   9.264   1.521  0.8592 -0.2321 -1.8146
 7406SOL    HW231187   7.909   9.297   1.457  0.0903 -0.1806 -0.2576
 7407SOL     OW31188   7.932   1.370   9.110  1.0878 -0.5780 -0.4666
 7407SOL    HW131189   7.914   1.452   9.157 -0.9856 -0.2389 -1.7291
 7407SOL    HW231190   7.975   1.315   9.175  0.4974  0.7207  1.1061
 7408SOL     OW31191   2.540  12.054   0.928 -0.2985  0.3451 -1.0146
 7408SOL    HW131192   2.476  12.120   0.900  0.0999  0.8664 -0.7132
 7408SOL    HW231193   2.520  11.977   0.874 -0.5494  0.8195 -1.6129
 7409SOL     OW31194   6.883   6.952   4.220  0.5911  0.0609  0.3316
 7409SOL    HW131195   6.818   6.932   4.152 -0.0840  1.5094  0.5094
 7409SOL    HW231196   6.857   6.897   4.294  1.7417 -2.0461 -0.7461
 7410SOL     OW31197   7.716   4.471   3.351 -0.2669 -0.0700 -1.0491
 7410SOL    HW131198   7.790   4.452   3.409 -1.3282 -0.7992  0.1308
 7410SOL    HW231199   7.756   4.509   3.273  1.4175 -1.1620 -0.7864
 7411SOL     OW31200   4.223   1.610  10.840 -0.7690 -0.1892 -0.2171
 7411SOL    HW131201   4.209   1.599  10.747 -0.3230  1.8343 -0.5842
 7411SOL    HW231202   4.308   1.569  10.857  0.1683  1.2324 -1.1817
 7412SOL     OW31203  12.156   0.466   6.564 -0.6653 -0.3157 -0.0510
 7412SOL    HW131204  12.112   0.384   6.587 -0.4864 -0.7682 -1.2688
 7412SOL    HW231205  12.233   0.468   6.621 -0.3519 -1.2930 -0.4194
 7413SOL     OW31206   3.831   0.558   2.229 -0.2095 -0.0254 -0.1436
 7413SOL    HW131207   3.861   0.481   2.277 -1.0867  0.5657  1.4464
 7413SOL    HW231208   3.857   0.542   2.138  2.2903 -0.7952  0.6375
 7414SOL     OW31209   1.101   3.201   7.040  0.5885 -0.9514  0.0270
 7414SOL    HW131210   1.018   3.154   7.050 -0.5263  0.7889 -0.6265
 7414SOL    HW231211   1.145   3.155   6.969 -0.2805 -1.2926 -0.3108
 7415SOL     OW31212   7.823   1.636  10.104 -0.0130  0.4574 -0.1737
 7415SOL    HW131213   7.781   1.560  10.144  1.0746  0.2805  0.6738
 7415SOL    HW231214   7.751   1.685  10.064 -0.7286 -1.0140 -0.7439
 7416SOL     OW31215   3.620   5.110  10.419 -0.0227  0.3102  0.4135
 7416SOL    HW131216   3.635   5.117  10.513  0.8381 -0.5956  0.3628
 7416SOL    HW231217   3.650   5.022  10.397 -2.8923 -0.6028 -0.2311
 7417SOL     OW31218   9.635  12.507   5.536 -0.2504 -0.0166 -0.6723
 7417SOL    HW131219   9.672  12.546   5.457  0.3646 -0.5673 -0.6616
 7417SOL    HW231220   9.544  12.537   5.537  0.3540  1.9432 -0.3252
 7418SOL     OW31221   1.459   3.750   2.271  0.3152  0.2006  0.2615
 7418SOL    HW131222   1.458   3.785   2.182 -0.1160 -0.7063 -0.0948
 7418SOL    HW231223   1.465   3.828   2.326  2.1773  0.7305 -0.5742
 7419SOL     OW31224   3.289   3.016   7.341 -0.2254  0.4530 -0.4391
 7419SOL    HW131225   3.218   2.954   7.356  0.0722  0.4305  1.0443
 7419SOL    HW231226   3.302   3.016   7.246  2.0084 -4.3366 -0.4543
 7420SOL     OW31227   8.545   7.355   3.719 -0.1236  0.1717 -0.2894
 7420SOL    HW131228   8.494   7.311   3.652  0.5478  1.7579 -1.9317
 7420SOL    HW231229   8.551   7.446   3.689  1.3106  0.6554  1.2746
 7421SOL     OW31230   8.754  10.227   7.725  0.1359  0.3751  0.3446
 7421SOL    HW131231   8.781  10.271   7.644  0.1885  1.9053  1.1649
 7421SOL    HW231232   8.806  10.147   7.727  0.0967  0.2904 -1.1650
 7422SOL     OW31233   2.429   6.514   8.800  0.2207 -0.0971  0.3143
 7422SOL    HW131234   2.377   6.434   8.793 -1.4626  1.0222 -0.8335
 7422SOL    HW231235   2.424   6.538   8.893 -0.4268 -0.5740  0.4074
 7423SOL     OW31236   3.513   1.462   4.581  0.2961  0.9620 -0.4530
 7423SOL    HW131237   3.564   1.498   4.508 -0.2616  0.8687 -0.8925
 7423SOL    HW231238   3.547   1.508   4.658  2.7565 -0.8139 -0.3453
 7424SOL     OW31239   3.133   9.127   9.972 -0.4882 -0.9315  0.2377
 7424SOL    HW131240   3.208   9.096  10.024  0.9648  0.3605 -0.9655
 7424SOL    HW231241   3.060   9.073  10.000  0.6255 -1.4774  2.3327
 7425SOL     OW31242   1.936   2.728   6.281 -0.1493 -0.5516  0.1074
 7425SOL    HW131243   1.902   2.638   6.284 -1.3621 -0.1083  0.2565
 7425SOL    HW231244   1.886   2.775   6.347 -1.0549  0.7268 -1.4089
 7426SOL     OW31245   5.479   5.188  10.319  0.4419  0.0139 -0.1430
 7426SOL    HW131246   5.433   5.115  10.360 -0.9017  1.0582  0.2818
 7426SOL    HW231247   5.558   5.149  10.282  0.4048 -1.4263  1.1834
 7427SOL     OW31248   8.145   0.480   7.471  0.0491  0.1434  0.6979
 7427SOL    HW131249   8.194   0.520   7.544 -0.5100  0.7278  0.7658
 7427SOL    HW231250   8.112   0.397   7.506  0.2590  0.1582  0.9317
 7428SOL     OW31251   7.445  10.655   1.240  0.8228 -0.1695 -0.2959
 7428SOL    HW131252   7.497  10.695   1.170  1.3665  0.4025  0.4224
 7428SOL    HW231253   7.435  10.724   1.306 -2.9484  0.6017 -1.4276
 7429SOL     OW31254  12.389   0.026   3.831 -0.6081  0.5043 -0.5687
 7429SOL    HW131255  12.403   0.118   3.852  3.1377 -0.2834  1.1817
 7429SOL    HW231256  12.429   0.015   3.745 -1.7278  0.6282 -1.1146
 7430SOL     OW31257   0.417   2.802   2.437 -0.2945 -0.5034  0.0048
 7430SOL    HW131258   0.452   2.728   2.488  0.2893  0.0166  0.3702
 7430SOL    HW231259   0.328   2.813   2.470 -0.3063 -0.9026  0.1126
 7431SOL     OW31260   6.396   8.285  12.255  0.5876  0.2331 -0.1362
 7431SOL    HW131261   6.372   8.318  12.342  0.9903 -0.6032  0.3036
 7431SOL    HW231262   6.315   8.249  12.220  0.8318 -1.2877  0.7586
 7432SOL     OW31263   9.850   9.486  10.776  0.1081  0.0567 -0.1012
 7432SOL    HW131264   9.933   9.491  10.730 -0.4839 -0.1831 -1.2274
 7432SOL    HW231265   9.820   9.577  10.781  1.1292  0.3519  1.6857
 7433SOL     OW31266   6.840   3.847   4.151  0.0650  0.1718  0.1285
 7433SOL    HW131267   6.816   3.815   4.238  0.1387  0.5569  0.2930
 7433SOL    HW231268   6.923   3.804   4.132  0.1855  0.2960  0.3669
 7434SOL     OW31269   5.648  10.645  10.678  0.3531  0.1967  0.4246
 7434SOL    HW131270   5.670  10.725  10.726 -1.4881 -0.0486  1.7726
 7434SOL    HW231271   5.699  10.576  10.720  2.9482  0.7535 -1.5561
 7435SOL     OW31272  11.742   6.548   5.623 -0.2895  0.4509  0.1941
 7435SOL    HW131273  11.825   6.585   5.653 -1.0581  2.3874  0.0728
 7435SOL    HW231274  11.730   6.469   5.676  1.1465  0.6584  0.8792
 7436SOL     OW31275   0.582   4.995   6.593  0.1097 -0.3099  0.3640
 7436SOL    HW131276   0.574   5.037   6.679  0.4691 -0.0157  0.2569
 7436SOL    HW231277   0.619   4.909   6.612 -2.7301 -1.5431  0.8277
 7437SOL     OW31278   8.224   3.124   6.807  0.0499 -0.3043  0.1698
 7437SOL    HW131279   8.304   3.166   6.774 -0.3897 -0.6023 -1.3602
 7437SOL    HW231280   8.255   3.041   6.844  0.8488  1.0142  2.6895
 7438SOL     OW31281  10.360   5.665   5.851 -0.3052  0.4801  0.3442
 7438SOL    HW131282  10.425   5.604   5.886  0.7187  0.5058 -1.4056
 7438SOL    HW231283  10.410   5.729   5.802 -1.5887  0.9984 -0.3548
 7439SOL     OW31284  11.639   4.781   8.731 -0.2735  0.0277 -0.2647
 7439SOL    HW131285  11.646   4.806   8.823 -0.7758  0.7739 -0.4188
 7439SOL    HW231286  11.611   4.861   8.686 -2.9049 -1.0091 -0.6470
 7440SOL     OW31287   8.447  11.735   4.854  0.7574 -0.0605  0.0194
 7440SOL    HW131288   8.365  11.765   4.893  0.4045  0.9961 -1.4662
 7440SOL    HW231289   8.513  11.753   4.922 -0.0330  0.3662  0.7002
 7441SOL     OW31290   9.228   9.072   9.332 -0.1262 -0.1737  0.5948
 7441SOL    HW131291   9.309   9.085   9.383  1.0441 -1.6510 -0.8027
 7441SOL    HW231292   9.173   9.018   9.389 -0.0297  0.5756  1.4315
 7442SOL     OW31293   1.102   7.793   6.408 -0.2820 -0.4950 -0.4566
 7442SOL    HW131294   1.074   7.713   6.452 -1.1200  0.5722  1.0477
 7442SOL    HW231295   1.131   7.850   6.479 -1.7709  1.3296 -1.2278
 7443SOL     OW31296   1.963   3.191   5.781 -0.3238  0.2372  0.2285
 7443SOL    HW131297   1.879   3.162   5.818  0.2668 -1.1847  0.5091
 7443SOL    HW231298   1.948   3.191   5.686 -0.0426 -2.1423  0.1298
 7444SOL     OW31299   6.809   6.910   6.821  0.5140 -0.6658 -0.4465
 7444SOL    HW131300   6.818   7.004   6.806 -2.3153 -0.4816 -1.6656
 7444SOL    HW231301   6.799   6.901   6.915  1.6822  0.1471 -0.2312
 7445SOL     OW31302   1.784   0.528  11.289 -0.2805 -0.0489  0.7872
 7445SOL    HW131303   1.718   0.596  11.306 -2.0667 -2.0232  2.2811
 7445SOL    HW231304   1.819   0.550  11.202 -1.4724  2.1858  0.7848
 7446SOL     OW31305   4.176   6.335  12.422 -0.3813 -0.3174  0.2986
 7446SOL    HW131306   4.266   6.365  12.429 -0.7494  0.5889  1.6728
 7446SOL    HW231307   4.180   6.242  12.447 -0.0915  0.2573  2.5952
 7447SOL     OW31308   7.336   8.856   6.642  0.2419  0.4546 -0.0718
 7447SOL    HW131309   7.388   8.819   6.714 -0.7656 -2.9377 -0.9105
 7447SOL    HW231310   7.365   8.808   6.565 -3.5725 -1.2211 -0.6798
 7448SOL     OW31311   4.569   1.013   4.112  0.4080  0.1797  0.4284
 7448SOL    HW131312   4.598   1.090   4.160 -1.0810  2.3538 -1.8940
 7448SOL    HW231313   4.481   0.996   4.144  0.7440 -0.6272  0.9590
 7449SOL     OW31314  10.688   9.689  11.135  0.0660 -0.3064 -0.0476
 7449SOL    HW131315  10.633   9.678  11.213  0.1988  1.1430  0.2802
 7449SOL    HW231316  10.775   9.659  11.162  0.2815  0.8858  0.6006
 7450SOL     OW31317  12.258   9.465   4.359 -0.1819  0.2936  0.3557
 7450SOL    HW131318  12.252   9.465   4.264  0.5527 -0.6641  0.2942
 7450SOL    HW231319  12.259   9.558   4.383  0.0496  0.5477 -0.5940
 7451SOL     OW31320  11.964  11.496   8.387 -0.2682 -0.1368  0.1032
 7451SOL    HW131321  11.931  11.437   8.455 -0.9038  0.3845  0.2572
 7451SOL    HW231322  11.982  11.439   8.312  0.7176 -0.7610  0.7922
 7452SOL     OW31323   9.674   9.733  10.490  0.2857 -0.4328 -0.3559
 7452SOL    HW131324   9.687   9.770  10.578 -0.2401 -1.2257  0.0613
 7452SOL    HW231325   9.747   9.768  10.439  0.5275  0.1382  0.3632
 7453SOL     OW31326   3.940   2.516   1.115  0.1624 -0.5334 -0.1016
 7453SOL    HW131327   4.024   2.555   1.140 -0.4088  0.6759  0.0008
 7453SOL    HW231328   3.889   2.517   1.196 -0.8518  1.1762 -0.7039
 7454SOL     OW31329   8.280   5.875   4.019  0.2863 -0.0876 -0.0213
 7454SOL    HW131330   8.301   5.821   3.942 -0.0231 -1.2891  0.7126
 7454SOL    HW231331   8.194   5.912   3.999 -0.5977 -1.7874  0.4461
 7455SOL     OW31332   0.725  10.967   8.714 -0.0957 -0.0231  0.1328
 7455SOL    HW131333   0.677  10.896   8.756 -0.8604  0.4333  0.0511
 7455SOL    HW231334   0.813  10.963   8.754  0.2255 -1.6805 -0.6635
 7456SOL     OW31335   9.493   5.417  11.905  0.0102 -0.1274  0.3897
 7456SOL    HW131336   9.434   5.490  11.927 -0.1226 -0.1810  0.2110
 7456SOL    HW231337   9.436   5.340  11.908 -0.1106 -0.0788 -0.6093
 7457SOL     OW31338   5.780   5.943  10.704 -0.0634 -0.4115  0.4471
 7457SOL    HW131339   5.858   5.903  10.666 -0.8825 -0.5805 -1.1175
 7457SOL    HW231340   5.766   6.023  10.654 -2.1813 -1.5289 -0.9062
 7458SOL     OW31341  12.461  10.817   3.306 -0.7378  0.5820 -0.7196
 7458SOL    HW131342  12.485  10.791   3.216 -0.0755 -2.2908  0.1770
 7458SOL    HW231343  12.369  10.790   3.315 -0.6055  0.2396 -0.3540
 7459SOL     OW31344   5.381   4.060   3.507 -0.3184 -0.6542  0.1363
 7459SOL    HW131345   5.443   3.994   3.476 -0.5148 -0.6945 -0.1710
 7459SOL    HW231346   5.317   4.068   3.436 -0.0594  0.1683 -0.0135
 7460SOL     OW31347   5.764  10.127   0.045 -0.3446  0.1259  0.2311
 7460SOL    HW131348   5.780  10.186  -0.028 -0.8254  0.6365  0.5284
 7460SOL    HW231349   5.808  10.045   0.021 -1.5879 -0.1473 -1.2238
 7461SOL     OW31350   5.766   9.673   1.327  0.4280 -0.6669 -0.2456
 7461SOL    HW131351   5.751   9.733   1.400  0.5068  0.3251 -1.0230
 7461SOL    HW231352   5.745   9.587   1.362 -0.5039 -0.0938  0.6602
 7462SOL     OW31353   6.278   1.417   3.852  0.0380  0.2358  0.0603
 7462SOL    HW131354   6.257   1.337   3.804  0.5364  0.0139  0.2123
 7462SOL    HW231355   6.373   1.426   3.844  0.1213  0.2126  0.9934
 7463SOL     OW31356   9.460   6.707   1.245 -0.5082 -0.2508 -0.0658
 7463SOL    HW131357   9.411   6.625   1.236 -0.3954 -0.3284  0.0264
 7463SOL    HW231358   9.500   6.720   1.158  1.0062 -1.2750  0.4357
 7464SOL     OW31359   9.736   7.495   8.907 -0.3172 -0.0583  0.4994
 7464SOL    HW131360   9.790   7.570   8.932 -1.3363  0.5531  0.9452
 7464SOL    HW231361   9.734   7.497   8.812  0.0995  0.1702  0.4958
 7465SOL     OW31362   6.965   6.361   7.299 -0.9659  0.2579 -0.0809
 7465SOL    HW131363   7.019   6.299   7.348 -1.7448 -0.1406  0.2915
 7465SOL    HW231364   6.875   6.331   7.313 -1.4233  1.8720  0.6827
 7466SOL     OW31365   4.750   3.715   1.111  0.1907  0.1142  0.1914
 7466SOL    HW131366   4.714   3.793   1.069 -1.9858 -0.8493  0.1087
 7466SOL    HW231367   4.813   3.680   1.049 -0.6425  0.4582 -0.8747
 7467SOL     OW31368  12.500  11.583   2.601 -0.4922 -0.0315  0.0082
 7467SOL    HW131369  12.436  11.634   2.649  0.0776 -0.1460  0.9302
 7467SOL    HW231370  12.449  11.521   2.549 -1.1343  0.1836  0.3828
 7468SOL     OW31371   6.673   2.960   3.723  0.1161 -0.2219 -0.0807
 7468SOL    HW131372   6.612   2.903   3.676  0.5649 -2.0034  1.3668
 7468SOL    HW231373   6.622   2.993   3.797  0.5501 -0.7315  0.4497
 7469SOL     OW31374   1.394   6.201   2.435  0.1353  0.2908 -0.7476
 7469SOL    HW131375   1.421   6.207   2.527 -0.0278 -0.4792 -0.6460
 7469SOL    HW231376   1.299   6.193   2.438  0.2091 -0.7769 -0.9274
 7470SOL     OW31377   9.863   0.359   2.412 -0.6227 -0.4501 -0.2408
 7470SOL    HW131378   9.842   0.443   2.371 -0.1050  0.1913  0.7589
 7470SOL    HW231379   9.953   0.341   2.384 -0.5121 -0.3591  0.0605
 7471SOL     OW31380   6.267  12.237  12.413 -0.5036  0.0504 -0.0183
 7471SOL    HW131381   6.250  12.229  12.507  0.7641  0.0946  0.2344
 7471SOL    HW231382   6.351  12.193  12.401  0.5350  2.0924 -0.7154
 7472SOL     OW31383   7.674   3.702   8.244 -0.0459  0.0295  0.1948
 7472SOL    HW131384   7.762   3.738   8.226  0.4635 -0.7296  1.0971
 7472SOL    HW231385   7.691   3.615   8.280 -1.1529  0.1308  0.9925
 7473SOL     OW31386   6.313   4.662   2.126  0.6782 -0.3884 -0.1997
 7473SOL    HW131387   6.243   4.687   2.066  1.9923  1.5908 -0.9915
 7473SOL    HW231388   6.364   4.742   2.138 -0.4186 -0.1093  4.9199
 7474SOL     OW31389   1.444   7.207   6.005 -0.3549  0.1537 -0.1906
 7474SOL    HW131390   1.430   7.114   5.991 -0.3719  0.1173  0.0744
 7474SOL    HW231391   1.364   7.239   6.046 -0.5014  0.3628 -0.6253
 7475SOL     OW31392  11.149   3.851   5.679 -0.0986 -0.0515 -0.6704
 7475SOL    HW131393  11.241   3.867   5.700  0.7558 -0.4510 -3.6428
 7475SOL    HW231394  11.147   3.761   5.647 -1.5306 -0.0744 -0.5731
 7476SOL     OW31395   4.581   5.929   8.610  0.0346 -0.7243 -0.1147
 7476SOL    HW131396   4.628   5.855   8.571  2.2210  0.6334 -0.2627
 7476SOL    HW231397   4.535   5.969   8.537  0.1745 -0.9831 -0.3491
 7477SOL     OW31398   2.758  12.392  11.904  0.8015  0.4357  0.4739
 7477SOL    HW131399   2.735  12.302  11.927  1.3212  0.4025  0.8880
 7477SOL    HW231400   2.684  12.444  11.934  0.2820  0.1065 -0.1888
 7478SOL     OW31401   0.181   7.292   9.441 -0.4385 -0.0574 -0.3651
 7478SOL    HW131402   0.113   7.230   9.417 -1.7441  2.0741 -2.6274
 7478SOL    HW231403   0.208   7.332   9.358 -0.8706  3.5233  1.0194
 7479SOL     OW31404   4.054   4.846   7.747 -0.4233  0.1245 -0.5652
 7479SOL    HW131405   3.990   4.913   7.773 -0.9616 -0.0378 -1.4571
 7479SOL    HW231406   4.104   4.830   7.827 -0.4985  1.3523 -0.2499
 7480SOL     OW31407   3.065   0.866   2.723 -0.0015  0.1934 -0.5481
 7480SOL    HW131408   3.076   0.953   2.684  2.7905 -0.3991 -1.2437
 7480SOL    HW231409   3.088   0.878   2.815 -0.3153  0.2986 -0.4793
 7481SOL     OW31410   7.477   6.016  10.808  0.4900  0.0952  0.0559
 7481SOL    HW131411   7.409   6.075  10.776  0.2171  0.2934  0.9761
 7481SOL    HW231412   7.541   6.072  10.851  0.1369 -0.2745  1.0980
 7482SOL     OW31413   3.106  10.054   8.540  0.0827  0.0426 -0.3790
 7482SOL    HW131414   3.135  10.017   8.457 -0.6554 -0.6589 -0.3365
 7482SOL    HW231415   3.077   9.979   8.591 -2.6686  0.7246 -0.7570
 7483SOL     OW31416  11.454   8.224  11.846 -0.1847 -0.5583  0.0735
 7483SOL    HW131417  11.476   8.208  11.755  0.2969  0.0638  0.0741
 7483SOL    HW231418  11.512   8.166  11.896  0.2870 -0.1534  0.0111
 7484SOL     OW31419  10.211   9.722   4.998 -0.2209 -1.2264 -0.0111
 7484SOL    HW131420  10.238   9.633   4.975 -1.5274 -1.5906 -0.2023
 7484SOL    HW231421  10.258   9.778   4.936 -0.2686 -1.8691 -0.6349
 7485SOL     OW31422   2.891   2.627   2.612 -0.1754 -0.1110  0.1104
 7485SOL    HW131423   2.904   2.717   2.581 -1.1548 -0.4261 -1.3314
 7485SOL    HW231424   2.977   2.586   2.605 -0.1353  0.1536 -1.2253
 7486SOL     OW31425   0.807   1.217   3.175 -0.3466 -0.4375 -0.3490
 7486SOL    HW131426   0.746   1.273   3.222 -0.8447 -0.1339 -1.3202
 7486SOL    HW231427   0.763   1.133   3.168 -0.4993 -0.3283 -0.7234
 7487SOL     OW31428   5.384   6.851   1.796  0.0339 -0.7454 -0.7410
 7487SOL    HW131429   5.444   6.849   1.870  0.6075  1.1044 -1.1012
 7487SOL    HW231430   5.337   6.934   1.805  1.9244  0.8469 -3.7423
 7488SOL     OW31431   5.934  12.583   3.829  0.5852  0.3602 -0.1165
 7488SOL    HW131432   5.953  12.586   3.923  0.0839 -1.6976  0.0935
 7488SOL    HW231433   6.011  12.541   3.791  0.6018  0.8032 -0.5813
 7489SOL     OW31434   7.322   9.735   6.129 -0.4119 -0.1051 -0.2474
 7489SOL    HW131435   7.260   9.705   6.062  1.3228 -1.0837 -1.5051
 7489SOL    HW231436   7.390   9.667   6.132 -0.2162  0.1096  2.2645
 7490SOL     OW31437   0.579   3.073  10.708  0.7656 -0.1556  0.0301
 7490SOL    HW131438   0.609   3.159  10.737 -0.4190  0.2357  0.1416
 7490SOL    HW231439   0.563   3.025  10.789 -1.5996  0.6084  0.0930
 7491SOL     OW31440   0.531   3.110   8.609 -0.0496 -0.5916  0.1373
 7491SOL    HW131441   0.573   3.184   8.651 -1.3127  0.9042 -1.0869
 7491SOL    HW231442   0.469   3.077   8.674 -1.3369  1.1123 -0.1590
 7492SOL     OW31443   6.943   3.287   7.586 -0.2614 -0.4208 -0.2971
 7492SOL    HW131444   7.035   3.263   7.585  0.4935  2.1994 -1.6202
 7492SOL    HW231445   6.901   3.223   7.528  0.7300 -1.4870  0.1190
 7493SOL     OW31446   2.831   3.192   3.847  0.2105  0.0201  0.1959
 7493SOL    HW131447   2.819   3.214   3.754  1.4547 -0.1212 -0.0148
 7493SOL    HW231448   2.745   3.159   3.874 -0.4964  1.0840 -0.5995
 7494SOL     OW31449   9.716   4.200  10.573 -0.4285  0.5659  0.1895
 7494SOL    HW131450   9.809   4.178  10.580 -0.6873 -0.1479  2.0536
 7494SOL    HW231451   9.707   4.279  10.627 -0.8228  0.9381 -0.4098
 7495SOL     OW31452   1.306   0.959  11.947  0.4776  0.3213  0.3402
 7495SOL    HW131453   1.225   1.007  11.962 -0.1623 -0.6586  0.1003
 7495SOL    HW231454   1.375   1.024  11.959 -0.2641  0.8787  1.8282
 7496SOL     OW31455   1.710  12.471   6.198  0.0359 -0.2113  0.6567
 7496SOL    HW131456   1.735  12.391   6.245  0.1549 -0.0883  0.8070
 7496SOL    HW231457   1.779  12.483   6.133  0.9278  0.6589  1.7072
 7497SOL     OW31458   2.419  12.199   8.972  0.4080  0.3658 -0.3486
 7497SOL    HW131459   2.355  12.132   8.947 -1.0190  1.2186  0.8191
 7497SOL    HW231460   2.473  12.156   9.039 -0.5581  0.3789  0.4613
 7498SOL     OW31461   4.873  11.002   3.148 -0.3240  0.2053 -0.2670
 7498SOL    HW131462   4.794  11.053   3.130 -1.7957 -2.4820 -2.0081
 7498SOL    HW231463   4.850  10.948   3.224 -0.2205 -0.6476 -0.8317
 7499SOL     OW31464  11.864  10.181   4.272  0.3164 -0.2433  0.3101
 7499SOL    HW131465  11.917  10.245   4.320  2.1027 -2.0204  0.8719
 7499SOL    HW231466  11.877  10.203   4.180  3.3986 -1.4684  0.3218
 7500SOL     OW31467  10.812  10.825  11.889  0.2353  0.2175  0.4235
 7500SOL    HW131468  10.810  10.812  11.794 -1.7645  1.7606  0.1923
 7500SOL    HW231469  10.891  10.878  11.904  1.4026 -1.2957 -0.1440
 7501SOL     OW31470   0.456  11.311   3.017  0.1725 -0.3045 -0.3956
 7501SOL    HW131471   0.449  11.397   2.977 -1.3215 -0.3531 -0.2932
 7501SOL    HW231472   0.390  11.311   3.087  1.0638 -1.0687  0.4835
 7502SOL     OW31473   9.028   9.811   7.068  0.1621  0.1546 -0.4294
 7502SOL    HW131474   8.955   9.760   7.033 -1.3382  0.8639  1.5293
 7502SOL    HW231475   9.041   9.881   7.004  0.1115 -0.8023 -1.5159
 7503SOL     OW31476   0.004   8.547   0.911  0.1434 -0.0413  0.1968
 7503SOL    HW131477   0.051   8.606   0.970  0.1666  2.0805 -1.7997
 7503SOL    HW231478  -0.008   8.598   0.830 -1.7503 -2.0460 -0.9016
 7504SOL     OW31479  11.087   9.118   4.275 -0.2079  0.1360  0.2631
 7504SOL    HW131480  11.053   9.063   4.205  0.5100 -0.0366  0.0476
 7504SOL    HW231481  11.074   9.208   4.243  0.7398  0.0478 -0.3940
 7505SOL     OW31482  11.121   3.646   7.895 -0.3403  0.3221 -0.0777
 7505SOL    HW131483  11.171   3.715   7.940 -0.0923  1.1215 -1.5326
 7505SOL    HW231484  11.037   3.685   7.876  0.0312  0.4841 -1.5058
 7506SOL     OW31485   3.609  10.481   6.052 -0.2348  0.0710  0.0033
 7506SOL    HW131486   3.695  10.495   6.012 -0.3398  0.3617 -0.1230
 7506SOL    HW231487   3.615  10.394   6.093 -0.2686 -0.4278 -1.0187
 7507SOL     OW31488  12.234   9.475  11.976 -0.4307  0.1056  0.1697
 7507SOL    HW131489  12.323   9.486  11.944 -0.6314 -0.0373 -0.4485
 7507SOL    HW231490  12.185   9.443  11.900 -0.8692 -0.4202  0.6657
 7508SOL     OW31491   3.052   8.856  10.097  0.0546 -0.7259  0.5939
 7508SOL    HW131492   3.040   8.829  10.005  0.7793  0.0067  0.2734
 7508SOL    HW231493   2.976   8.910  10.116  0.7602  0.5933 -0.1602
 7509SOL     OW31494   0.051   1.449  10.940  0.7018 -0.2504 -0.4683
 7509SOL    HW131495   0.079   1.437  11.031  0.6890  0.1623 -0.4099
 7509SOL    HW231496   0.090   1.533  10.914  2.5666 -1.3787 -1.5466
 7510SOL     OW31497   2.998   2.662  11.491  0.0492 -0.1569  0.1137
 7510SOL    HW131498   2.927   2.619  11.539 -1.0103  1.7116  0.3021
 7510SOL    HW231499   3.005   2.749  11.530 -1.0139  1.5590 -3.1244
 7511SOL     OW31500   1.700   8.347   5.315  0.3082  0.1145  0.2889
 7511SOL    HW131501   1.739   8.261   5.330  0.0484 -0.3689 -1.6139
 7511SOL    HW231502   1.771   8.408   5.335  0.1268 -0.4206  2.8912
 7512SOL     OW31503   9.381   9.137   1.764  0.2322 -0.4396  0.1905
 7512SOL    HW131504   9.451   9.199   1.743 -1.2300  0.9981 -0.6490
 7512SOL    HW231505   9.301   9.179   1.734 -1.0053 -2.1305  0.9126
 7513SOL     OW31506   2.265   9.979   9.765 -0.2498  0.0287  0.3827
 7513SOL    HW131507   2.179  10.014   9.743  1.3480  3.2944 -1.2604
 7513SOL    HW231508   2.303   9.952   9.681  0.1614 -2.0439  1.1594
 7514SOL     OW31509   7.593   1.696  12.252  0.1320  0.8208  0.9258
 7514SOL    HW131510   7.669   1.683  12.195  1.0579 -3.0388  2.7001
 7514SOL    HW231511   7.556   1.779  12.224  4.1897  2.2644 -0.9734
 7515SOL     OW31512   1.211  10.067  11.248  0.2985 -0.0773  0.1770
 7515SOL    HW131513   1.118  10.044  11.246  1.1768 -4.5745  1.0177
 7515SOL    HW231514   1.218  10.143  11.191 -3.7822  0.0812 -0.3924
 7516SOL     OW31515   0.953   5.896  10.059  0.0041  0.3722 -0.4881
 7516SOL    HW131516   1.010   5.973  10.049  1.5911 -0.5530  0.7602
 7516SOL    HW231517   0.990   5.850  10.135 -1.3556 -1.2380 -0.7566
 7517SOL     OW31518   5.788   2.363  12.014 -0.1506 -0.5513 -0.3717
 7517SOL    HW131519   5.754   2.292  12.068  1.5054  0.0423  1.5896
 7517SOL    HW231520   5.784   2.330  11.925 -0.6845 -2.5523  0.3403
 7518SOL     OW31521   1.268  10.909  11.670 -0.0957 -0.4799 -0.4936
 7518SOL    HW131522   1.236  10.988  11.715 -1.3844 -0.5160 -1.3004
 7518SOL    HW231523   1.309  10.858  11.740  0.8517  0.9131  0.0370
 7519SOL     OW31524   3.826   6.072   6.337  0.0955 -0.3717  0.3188
 7519SOL    HW131525   3.871   6.154   6.317  0.5253 -0.7640 -0.3300
 7519SOL    HW231526   3.895   6.007   6.346 -0.0797 -0.3336  2.7166
 7520SOL     OW31527  11.273   5.745   5.792 -0.5739 -0.1078 -0.0848
 7520SOL    HW131528  11.285   5.840   5.799 -2.3216  0.0782  1.1700
 7520SOL    HW231529  11.215   5.734   5.717  0.1710 -0.2631 -0.6506
 7521SOL     OW31530  10.838   2.034   2.794 -0.0794  0.3436 -0.1513
 7521SOL    HW131531  10.794   1.964   2.745 -1.0713  0.2214  0.8814
 7521SOL    HW231532  10.804   2.114   2.755 -1.4511  0.2540  0.7907
 7522SOL     OW31533   0.468   3.732   4.059  0.2069 -0.6198 -0.4288
 7522SOL    HW131534   0.498   3.750   3.970 -0.6594 -1.9803 -1.0364
 7522SOL    HW231535   0.522   3.658   4.088  2.5813  1.6645  1.3868
 7523SOL     OW31536   2.331   5.184  11.594 -0.6010 -0.2178  0.2209
 7523SOL    HW131537   2.339   5.167  11.501  1.3442 -1.3928  0.5552
 7523SOL    HW231538   2.305   5.100  11.632 -0.0800 -0.0914  0.8833
 7524SOL     OW31539   9.484   8.350   0.546  0.4112  0.5031  0.1559
 7524SOL    HW131540   9.422   8.417   0.517 -0.6849 -0.3925  0.3396
 7524SOL    HW231541   9.444   8.313   0.625  1.2469 -0.0096  0.3502
 7525SOL     OW31542  11.609   5.606   9.246 -0.0627 -0.6803 -0.1901
 7525SOL    HW131543  11.577   5.560   9.324 -1.3452 -1.9437 -1.4040
 7525SOL    HW231544  11.694   5.566   9.229  0.3863 -0.1521  0.7389
 7526SOL     OW31545   1.517  11.157  12.362  0.0770  0.4215  0.3040
 7526SOL    HW131546   1.537  11.239  12.408  1.3804  1.1987 -1.5092
 7526SOL    HW231547   1.481  11.185  12.278  2.1604 -0.7494 -1.0843
 7527SOL     OW31548   2.148  11.412  11.397 -0.5157  0.2060 -0.0094
 7527SOL    HW131549   2.130  11.345  11.464  0.0207  0.2664  0.1976
 7527SOL    HW231550   2.095  11.385  11.322  0.1630 -0.8042 -0.1471
 7528SOL     OW31551   0.375  10.476   2.664 -0.2041 -0.2331  0.5141
 7528SOL    HW131552   0.447  10.414   2.648 -0.6328 -0.8545  0.9615
 7528SOL    HW231553   0.323  10.435   2.732 -0.2063  0.8763  1.2087
 7529SOL     OW31554   1.979  11.967   5.285  0.0700  0.1806  0.2607
 7529SOL    HW131555   1.947  12.034   5.345 -1.0184 -1.1671  1.2461
 7529SOL    HW231556   1.905  11.950   5.226  0.4180  0.0195 -0.1364
 7530SOL     OW31557  12.169   0.143   6.754 -0.3618 -0.1260  0.2235
 7530SOL    HW131558  12.214   0.176   6.832 -2.5332 -1.1479  2.0346
 7530SOL    HW231559  12.092   0.200   6.744 -0.6919 -0.6774 -0.5085
 7531SOL     OW31560   7.161   0.819  11.300 -0.3578  0.3402  0.0779
 7531SOL    HW131561   7.136   0.906  11.272  0.1824  0.0498 -1.3978
 7531SOL    HW231562   7.112   0.760  11.243 -1.3229 -0.3754  1.5704
 7532SOL     OW31563   2.288  10.680   5.589  0.7859  0.2726  0.9600
 7532SOL    HW131564   2.199  10.715   5.588  0.9173  0.6123  1.1546
 7532SOL    HW231565   2.344  10.757   5.580  1.1164  0.2475  2.5407
 7533SOL     OW31566  12.390   7.355   8.628  0.1440 -0.1063 -0.3594
 7533SOL    HW131567  12.312   7.304   8.604  0.5642 -1.2304  0.5463
 7533SOL    HW231568  12.445   7.292   8.675  0.1897  1.4751  1.8501
 7534SOL     OW31569   2.072   1.219   9.466  0.4887  0.3456  0.3048
 7534SOL    HW131570   2.102   1.140   9.420  0.7028  0.5462  0.0977
 7534SOL    HW231571   2.076   1.288   9.400  0.9743  0.6742  0.6726
 7535SOL     OW31572   8.790   2.567   7.592 -0.6338 -0.1049  0.0932
 7535SOL    HW131573   8.765   2.484   7.634  2.3667  0.0575  2.5717
 7535SOL    HW231574   8.743   2.634   7.643  0.9116 -0.0874  1.6227
 7536SOL     OW31575   9.722   7.817  12.220  0.1581 -0.5305 -0.4453
 7536SOL    HW131576   9.723   7.763  12.141 -0.1396 -1.4758  0.1881
 7536SOL    HW231577   9.756   7.902  12.191  0.7977 -1.0985 -1.4124
 7537SOL     OW31578   3.995   0.627  10.798 -0.2130 -0.4715  0.5900
 7537SOL    HW131579   4.032   0.624  10.887  0.2398 -2.6574  0.3963
 7537SOL    HW231580   4.057   0.682  10.749 -0.8443  1.3557  1.7281
 7538SOL     OW31581   8.811   3.601  10.974  0.7354 -0.0472 -0.0375
 7538SOL    HW131582   8.847   3.515  10.953 -0.4923 -0.6366  0.1654
 7538SOL    HW231583   8.822   3.609  11.069  1.6625  0.4238 -0.1714
 7539SOL     OW31584   9.850   1.018   7.277 -0.1141 -0.1943  0.3425
 7539SOL    HW131585   9.757   0.998   7.291  0.5110 -2.5830  1.6658
 7539SOL    HW231586   9.882   0.943   7.227  0.8271  1.3559 -1.4970
 7540SOL     OW31587  10.553   2.198  11.217  0.0070  0.5875  0.3671
 7540SOL    HW131588  10.488   2.264  11.193  2.0850  2.7369  0.2557
 7540SOL    HW231589  10.551   2.135  11.145  0.2263  2.3354 -1.2484
 7541SOL     OW31590   4.931   6.246   4.594  0.4276  0.1930 -0.1427
 7541SOL    HW131591   4.889   6.269   4.511  0.1115  0.8180  0.1836
 7541SOL    HW231592   4.974   6.162   4.576  1.1543  0.7679 -1.2117
 7542SOL     OW31593   8.509  10.487   1.780  0.1338  0.1471  0.2323
 7542SOL    HW131594   8.546  10.431   1.712  0.0349 -2.7262  2.3727
 7542SOL    HW231595   8.585  10.530   1.820  0.5483 -0.8591  0.5439
 7543SOL     OW31596  12.174  10.249   7.001  0.6258 -0.1554  0.6654
 7543SOL    HW131597  12.252  10.259   7.055  1.3991  0.9613 -0.6160
 7543SOL    HW231598  12.191  10.301   6.923 -0.3495 -1.9225 -0.8093
 7544SOL     OW31599   1.852   5.200  10.025 -0.5944 -0.1527 -0.4671
 7544SOL    HW131600   1.763   5.222  10.052  0.1189  1.9209  0.4190
 7544SOL    HW231601   1.886   5.281   9.988  0.8886 -0.9465 -0.9091
 7545SOL     OW31602   9.942   5.566  12.432 -0.2371  0.3374 -0.1994
 7545SOL    HW131603   9.910   5.555  12.342  1.1853  1.2252 -0.8438
 7545SOL    HW231604  10.036   5.583  12.422 -0.1583  1.0036  1.4202
 7546SOL     OW31605   0.359   8.636   4.421 -0.2411  0.0702  0.0902
 7546SOL    HW131606   0.371   8.728   4.399 -0.6113  0.1898  0.3561
 7546SOL    HW231607   0.280   8.635   4.477 -0.8547 -0.5287 -0.7594
 7547SOL     OW31608  10.046   1.963   2.289  1.0477  0.2903  0.2083
 7547SOL    HW131609  10.066   1.871   2.268  1.9437  0.9436 -2.0615
 7547SOL    HW231610  10.129   1.999   2.319  0.7545  0.4449  0.8497
 7548SOL     OW31611   7.267   3.772   2.530  0.4969  0.4902 -0.4795
 7548SOL    HW131612   7.318   3.841   2.488  0.4930  1.9095  1.6741
 7548SOL    HW231613   7.180   3.812   2.543  0.0114 -0.5023 -0.6241
 7549SOL     OW31614   9.419   5.685   5.714 -0.3490  0.8199  0.1962
 7549SOL    HW131615   9.333   5.705   5.676 -0.6173 -1.0476 -0.3250
 7549SOL    HW231616   9.481   5.731   5.659 -0.9589  1.1430 -0.2347
 7550SOL     OW31617   7.001  12.154   2.571  0.0470 -0.0641  0.1127
 7550SOL    HW131618   7.055  12.077   2.584 -1.2184 -0.7263  1.9082
 7550SOL    HW231619   7.034  12.194   2.490  0.3534 -2.7715 -1.2033
 7551SOL     OW31620   5.659   8.447   6.552  0.0373  0.2822  0.1902
 7551SOL    HW131621   5.676   8.356   6.528  1.0678  0.5330 -0.1034
 7551SOL    HW231622   5.643   8.445   6.647  0.8901 -0.1099  0.3318
 7552SOL     OW31623  11.905   6.976  10.755 -0.1894  0.0412  0.1610
 7552SOL    HW131624  11.854   7.057  10.756  0.5404  0.5096  0.4727
 7552SOL    HW231625  11.909   6.948  10.846 -3.6201 -2.4400 -0.2647
 7553SOL     OW31626   2.381   1.921   5.191 -0.3889  0.0510 -0.2829
 7553SOL    HW131627   2.464   1.966   5.180  0.0546 -1.0092 -1.4414
 7553SOL    HW231628   2.315   1.988   5.171  0.1467  0.9222  0.7459
 7554SOL     OW31629   9.032   4.054   0.340 -0.2179  0.0469 -0.0322
 7554SOL    HW131630   9.058   4.044   0.249 -1.3227 -1.5724 -0.2197
 7554SOL    HW231631   9.104   4.018   0.390 -0.1281 -0.1858 -0.3250
 7555SOL     OW31632  11.065  11.235  10.045  0.3256  0.2679  0.6977
 7555SOL    HW131633  11.017  11.307  10.003 -0.9405 -0.4806  0.8077
 7555SOL    HW231634  11.142  11.222   9.990  0.3411  1.4077  0.4266
 7556SOL     OW31635   1.796   9.983  10.664 -0.2940  0.1718  0.2379
 7556SOL    HW131636   1.813  10.078  10.664 -0.7604  0.2578 -0.0242
 7556SOL    HW231637   1.809   9.957  10.573 -0.0653 -0.0366  0.3297
 7557SOL     OW31638   5.082   9.233   4.972  0.5137 -0.8937  0.3321
 7557SOL    HW131639   5.150   9.300   4.959  0.2093 -0.9353 -1.8717
 7557SOL    HW231640   5.033   9.263   5.048  0.8096  1.0763 -0.1873
 7558SOL     OW31641   6.166  12.083   1.883 -0.1323 -0.0467  0.0442
 7558SOL    HW131642   6.137  12.049   1.798  0.1541 -1.9792  0.6672
 7558SOL    HW231643   6.111  12.038   1.947  0.0679  0.9245  0.9228
 7559SOL     OW31644  10.112   6.566   8.485  0.1650  0.0093  0.0778
 7559SOL    HW131645  10.152   6.630   8.426  1.1952  0.8689  1.6283
 7559SOL    HW231646  10.026   6.548   8.447  0.3456  1.3952 -1.0551
 7560SOL     OW31647  10.181   0.345   8.880 -0.4315  0.2085 -0.4067
 7560SOL    HW131648  10.176   0.249   8.883 -0.1501  0.2167  0.4774
 7560SOL    HW231649  10.252   0.367   8.940 -1.3122  1.0346  0.3674
 7561SOL     OW31650   5.119   8.192   2.429 -0.0439  0.5651  0.1809
 7561SOL    HW131651   5.060   8.267   2.420 -1.0132 -0.2230 -0.1912
 7561SOL    HW231652   5.120   8.152   2.342  1.3130  0.7482  0.0929
 7562SOL     OW31653   6.620   7.994   6.314 -0.0487  0.0448 -0.4846
 7562SOL    HW131654   6.653   8.003   6.225 -0.3221 -1.0319 -0.7207
 7562SOL    HW231655   6.535   8.038   6.313  0.6248  1.3775 -0.3230
 7563SOL     OW31656   3.720   4.874   7.680  0.1896 -0.2669  0.7826
 7563SOL    HW131657   3.780   4.800   7.668  0.0858  0.1148 -4.0472
 7563SOL    HW231658   3.634   4.834   7.686  0.3498 -0.6313  0.7018
 7564SOL     OW31659   2.772   2.504   9.990  0.2321 -0.8386  0.1918
 7564SOL    HW131660   2.860   2.533  10.013  0.0145  0.3827 -0.4489
 7564SOL    HW231661   2.786   2.442   9.918  0.7809 -3.3446  2.3120
 7565SOL     OW31662   6.824  10.984   6.293  0.1198  0.4948  0.2673
 7565SOL    HW131663   6.773  10.908   6.324  3.8290 -2.3245  0.1972
 7565SOL    HW231664   6.890  10.997   6.361  2.0316  0.9940 -1.5789
 7566SOL     OW31665   7.587   8.337   6.922 -0.1498  0.0634  0.1440
 7566SOL    HW131666   7.519   8.375   6.977 -0.5036 -1.0302  0.4825
 7566SOL    HW231667   7.556   8.348   6.833 -1.5545 -1.7964  0.3400
 7567SOL     OW31668   5.800   6.905  12.396 -0.0878  0.0056 -0.0053
 7567SOL    HW131669   5.832   6.974  12.339 -0.5530  0.1103 -0.1416
 7567SOL    HW231670   5.727   6.944  12.444 -1.7881 -0.9751 -1.6353
 7568SOL     OW31671   7.640   5.786  10.808  0.1855 -0.1019  0.1694
 7568SOL    HW131672   7.586   5.866  10.812  1.3728  0.8389 -1.5306
 7568SOL    HW231673   7.577   5.715  10.822 -1.1940  1.0386  0.0604
 7569SOL     OW31674   4.270  10.633  10.492 -0.4070  0.0692 -0.7822
 7569SOL    HW131675   4.308  10.635  10.580 -0.6107 -0.8020 -0.6633
 7569SOL    HW231676   4.272  10.724  10.463 -0.2536  0.3570  0.0907
 7570SOL     OW31677   3.221   2.282   9.286 -0.1290  0.4977 -0.4374
 7570SOL    HW131678   3.142   2.227   9.288  0.1961  0.0031 -0.7630
 7570SOL    HW231679   3.230   2.314   9.376 -0.8007  0.7040 -0.4385
 7571SOL     OW31680  11.109  10.456   5.315 -0.3207  0.1609  0.0167
 7571SOL    HW131681  11.125  10.398   5.241 -1.8938 -1.0070  0.5387
 7571SOL    HW231682  11.050  10.407   5.372  0.6533  1.1201  1.9422
 7572SOL     OW31683   1.824   9.565   3.305 -0.0660 -0.3948 -0.3154
 7572SOL    HW131684   1.874   9.528   3.233  1.8177  2.0930 -0.4001
 7572SOL    HW231685   1.889   9.592   3.369 -1.4156  1.1564  0.4913
 7573SOL     OW31686   6.807  10.455  11.886  0.4720  0.2929 -0.4950
 7573SOL    HW131687   6.829  10.506  11.963  0.5793  1.3562 -1.2076
 7573SOL    HW231688   6.766  10.376  11.920  0.0082  0.9952  0.6318
 7574SOL     OW31689   1.836   8.370   8.491 -0.2604 -0.3150  0.4819
 7574SOL    HW131690   1.848   8.338   8.581  1.0645 -0.8662  0.1263
 7574SOL    HW231691   1.756   8.422   8.495  0.6564  1.0536  2.3688
 7575SOL     OW31692   9.491   3.292  10.000 -0.1220 -0.3510  0.0846
 7575SOL    HW131693   9.418   3.285  10.062  0.4600  1.7900  1.0988
 7575SOL    HW231694   9.484   3.213   9.946 -2.8098 -0.5067  0.5206
 7576SOL     OW31695   5.868   2.331   2.000 -0.0786 -0.0690  0.4855
 7576SOL    HW131696   5.864   2.426   2.002  0.8161 -0.0046 -0.0377
 7576SOL    HW231697   5.920   2.311   1.922 -2.0508 -1.0696 -0.6394
 7577SOL     OW31698   0.917  10.235   3.239  0.1471  0.5008 -0.1871
 7577SOL    HW131699   0.982  10.306   3.231 -1.1029  1.6677 -0.3932
 7577SOL    HW231700   0.858  10.265   3.308 -0.6029 -0.1941 -0.5216
 7578SOL     OW31701   0.854   5.902   3.581 -0.0821  0.2909 -0.2772
 7578SOL    HW131702   0.833   5.910   3.488 -3.8464  1.9533  0.5206
 7578SOL    HW231703   0.848   5.809   3.600 -2.2587  0.1745 -1.2321
 7579SOL     OW31704   7.743   4.507   1.145  0.0613  0.0485 -0.1484
 7579SOL    HW131705   7.654   4.525   1.176 -0.5161 -1.2817 -0.9618
 7579SOL    HW231706   7.775   4.441   1.206 -0.0862 -0.6080 -0.7809
 7580SOL     OW31707   9.615  11.081  12.300 -0.7919 -0.9161  0.1502
 7580SOL    HW131708   9.539  11.096  12.356 -0.1295  0.0570  0.8181
 7580SOL    HW231709   9.617  11.156  12.241  0.4027 -0.2389  1.0166
 7581SOL     OW31710   3.232  10.068   3.919  0.1075 -0.2305  0.4208
 7581SOL    HW131711   3.152  10.121   3.916 -1.0787 -1.9968 -0.5345
 7581SOL    HW231712   3.223  10.006   3.848  1.4625 -1.7154  1.4721
 7582SOL     OW31713   8.479   0.936   3.874 -0.1491 -0.0646  0.2843
 7582SOL    HW131714   8.433   1.006   3.919 -2.1002 -0.8883 -0.3128
 7582SOL    HW231715   8.437   0.932   3.787  1.0131 -0.9028 -0.2619
 7583SOL     OW31716  10.441   2.722   3.894  0.1430  0.0198 -0.0178
 7583SOL    HW131717  10.518   2.726   3.837 -0.2611 -1.0111 -0.6729
 7583SOL    HW231718  10.367   2.738   3.836 -0.1299  1.4386  0.6902
 7584SOL     OW31719   0.904  10.810   4.097 -0.1883 -0.8256  0.5100
 7584SOL    HW131720   0.912  10.884   4.036 -2.0498  0.1570  1.3895
 7584SOL    HW231721   0.904  10.733   4.040  0.6587 -0.1130 -0.5120
 7585SOL     OW31722   8.969  10.211   7.454  0.1629 -0.1632 -0.1999
 7585SOL    HW131723   8.996  10.185   7.542  3.1361  2.6062 -0.1130
 7585SOL    HW231724   8.882  10.248   7.466 -0.0467 -1.0370  1.3124
 7586SOL     OW31725   1.193   7.118   8.282 -0.1230  0.1595 -0.3749
 7586SOL    HW131726   1.170   7.026   8.290  1.6966 -0.2509  0.7923
 7586SOL    HW231727   1.173   7.156   8.368  0.9732  0.3581 -0.1794
 7587SOL     OW31728   7.091   4.894   1.353  0.0921 -0.3777 -0.4404
 7587SOL    HW131729   7.087   4.931   1.265  1.5160 -0.2812 -0.4738
 7587SOL    HW231730   7.146   4.955   1.402 -0.4096 -0.6149  0.4308
 7588SOL     OW31731   1.055   2.377   8.799  0.3191  0.0006  0.0150
 7588SOL    HW131732   1.042   2.392   8.893  1.5096 -1.8874  0.5554
 7588SOL    HW231733   1.009   2.294   8.782  0.2081  0.2723 -1.0464
 7589SOL     OW31734   8.414   7.303   6.845 -0.0494  0.2372  0.7728
 7589SOL    HW131735   8.508   7.315   6.858  0.0374  0.1448  0.2783
 7589SOL    HW231736   8.408   7.238   6.775 -0.4918 -1.0174  1.9193
 7590SOL     OW31737   8.602   8.615   0.358  0.2896 -0.3516  0.2750
 7590SOL    HW131738   8.628   8.524   0.374  1.5119 -0.1311 -0.3323
 7590SOL    HW231739   8.656   8.643   0.284 -0.0490  0.8790  0.4682
 7591SOL     OW31740   1.622   8.535   2.340 -0.6938  0.4600  0.2762
 7591SOL    HW131741   1.537   8.569   2.367 -0.5861  0.0813  1.1471
 7591SOL    HW231742   1.677   8.542   2.418 -0.3133 -0.5215  0.1221
 7592SOL     OW31743   7.136   8.262   3.820 -0.4307 -0.3123  0.0958
 7592SOL    HW131744   7.060   8.208   3.798 -0.5798 -0.5135  1.0564
 7592SOL    HW231745   7.133   8.270   3.915  0.8299 -0.4421  0.1667
 7593SOL     OW31746   7.806   1.044   5.339  0.3533 -0.0570 -0.0514
 7593SOL    HW131747   7.786   0.957   5.374 -0.9635 -0.5541 -1.8512
 7593SOL    HW231748   7.901   1.045   5.328  0.5531 -0.6627  1.4047
 7594SOL     OW31749   1.462   7.246   3.525  0.2610  0.0890 -0.5684
 7594SOL    HW131750   1.496   7.311   3.586  0.1306  0.6698 -1.1110
 7594SOL    HW231751   1.523   7.172   3.533  0.4281  0.2801  0.0243
 7595SOL     OW31752   0.644   3.953   9.331 -0.5765  0.3310 -0.1259
 7595SOL    HW131753   0.582   3.913   9.270  0.6499 -0.7172 -0.7263
 7595SOL    HW231754   0.659   3.886   9.398  0.8940  0.0356 -0.7141
 7596SOL     OW31755  12.234   1.810   5.900  0.0152  0.2074 -0.1638
 7596SOL    HW131756  12.262   1.901   5.891 -1.1379  0.4753 -1.4885
 7596SOL    HW231757  12.241   1.775   5.811 -2.1885 -0.1727 -0.2242
 7597SOL     OW31758   0.612   3.626   0.301 -0.6620 -0.1894  0.1945
 7597SOL    HW131759   0.550   3.558   0.328 -0.2168 -0.3980  0.7011
 7597SOL    HW231760   0.559   3.705   0.294 -0.9001 -0.2479  1.1542
 7598SOL     OW31761  12.303   2.952   4.016  0.2844 -0.0488  0.1456
 7598SOL    HW131762  12.334   3.000   3.940  0.7349  1.0811  1.0200
 7598SOL    HW231763  12.361   2.875   4.021  0.4028 -0.0036 -0.4985
 7599SOL     OW31764   8.009   1.832  10.387 -0.3906  0.4473  0.1712
 7599SOL    HW131765   8.008   1.902  10.453  2.9456 -0.6951  1.6848
 7599SOL    HW231766   7.937   1.775  10.411  0.7356  0.0616  2.9961
 7600SOL     OW31767   2.653   6.980  12.091 -0.0753 -0.3475 -0.4871
 7600SOL    HW131768   2.600   7.041  12.040 -0.7710 -2.1172 -2.0233
 7600SOL    HW231769   2.742   7.014  12.086 -0.3798  0.3018 -1.6755
 7601SOL     OW31770   5.509   5.481   4.656 -0.3422 -0.4255 -0.2407
 7601SOL    HW131771   5.577   5.531   4.701 -0.2692  0.7265 -1.5430
 7601SOL    HW231772   5.428   5.505   4.701  0.0640 -1.8364  1.3427
 7602SOL     OW31773   9.146   3.902  10.219  0.1822 -0.4928  0.0375
 7602SOL    HW131774   9.139   3.827  10.160  1.7578 -0.6851  0.0715
 7602SOL    HW231775   9.171   3.864  10.303  0.4264  0.0157  0.1989
 7603SOL     OW31776   5.861   6.454   4.009  0.1573 -0.5386  0.1924
 7603SOL    HW131777   5.918   6.514   4.057 -0.6073 -0.9753  1.7368
 7603SOL    HW231778   5.813   6.407   4.078 -1.3420 -0.8734 -1.0204
 7604SOL     OW31779  10.925  11.121   1.923  0.3161 -0.0046 -0.2272
 7604SOL    HW131780  10.953  11.209   1.898  1.4923  0.0090  0.9948
 7604SOL    HW231781  10.868  11.134   1.998 -0.1882 -0.2511 -0.5605
 7605SOL     OW31782   4.236  11.012  11.615  0.0546  0.0341  0.0634
 7605SOL    HW131783   4.331  11.017  11.620  0.0390  1.3471 -0.6908
 7605SOL    HW231784   4.207  11.102  11.599 -1.5512  0.2716  3.4526
 7606SOL     OW31785   2.279  12.580  11.447 -0.2225  0.5110 -0.6136
 7606SOL    HW131786   2.373  12.564  11.448 -0.3067 -0.0100 -0.4155
 7606SOL    HW231787   2.270  12.674  11.431  0.3467  0.6837  0.0398
 7607SOL     OW31788   5.820   4.103  10.131  0.8907  0.1954  0.2181
 7607SOL    HW131789   5.774   4.019  10.134 -2.4677  1.7735 -1.2215
 7607SOL    HW231790   5.846   4.113  10.040  1.0009  0.8566  0.3179
 7608SOL     OW31791   3.967  10.642   6.558 -0.3195  0.5843  0.0592
 7608SOL    HW131792   4.039  10.678   6.508 -0.8421 -0.1795 -1.2844
 7608SOL    HW231793   4.003  10.564   6.600 -0.7519 -0.7970 -2.0011
 7609SOL     OW31794   0.999   9.917   7.852  0.0563  0.4825  0.4222
 7609SOL    HW131795   0.909   9.946   7.866 -0.6814 -0.4979 -1.9022
 7609SOL    HW231796   1.010   9.843   7.912 -0.4226  1.0594  1.2371
 7610SOL     OW31797  12.109   5.748   4.111  0.2573 -0.2435 -0.2800
 7610SOL    HW131798  12.089   5.688   4.182  1.5325  1.4629  1.6360
 7610SOL    HW231799  12.160   5.696   4.049 -4.2890 -2.9484 -2.2439
 7611SOL     OW31800  11.596   4.643   5.674  0.8879  0.2456 -0.1771
 7611SOL    HW131801  11.553   4.559   5.659 -0.0818  0.3350  1.8078
 7611SOL    HW231802  11.580   4.662   5.766  1.9996  2.1154 -0.3218
 7612SOL     OW31803   0.051   3.546   4.182  0.2429  0.1713  0.7215
 7612SOL    HW131804   0.036   3.606   4.109 -0.7042 -1.3927 -0.4230
 7612SOL    HW231805  -0.014   3.573   4.248  0.4838  1.0013  0.6361
 7613SOL     OW31806   0.496   1.467  12.072 -0.1493  0.2111  0.1408
 7613SOL    HW131807   0.411   1.497  12.105 -0.2130  0.1057  0.0699
 7613SOL    HW231808   0.504   1.509  11.987  0.0151  0.4831  0.2891
 7614SOL     OW31809   9.633   7.072   5.747  0.1710  0.2050  0.0232
 7614SOL    HW131810   9.711   7.127   5.755 -0.8190  1.6673  0.1537
 7614SOL    HW231811   9.635   7.015   5.823 -0.3290  2.2215  1.6526
 7615SOL     OW31812   7.240  11.827  10.016  0.0950  0.1375 -0.1599
 7615SOL    HW131813   7.209  11.737  10.022 -3.0526  1.0696 -0.7175
 7615SOL    HW231814   7.225  11.852   9.925 -3.2762  2.4424  0.8278
 7616SOL     OW31815   6.237   3.152   8.547 -0.0272  0.3876  0.1165
 7616SOL    HW131816   6.305   3.173   8.483 -0.2378  0.7977  0.0281
 7616SOL    HW231817   6.273   3.077   8.596 -0.1464 -0.3534 -0.9071
 7617SOL     OW31818   7.510  10.426   3.805 -0.5267  0.0547 -0.3000
 7617SOL    HW131819   7.574  10.482   3.848 -0.8278  0.6251 -0.5827
 7617SOL    HW231820   7.434  10.426   3.864 -0.0864 -1.0254  0.2792
 7618SOL     OW31821   8.051   4.138  11.019  0.0428 -0.2291 -0.3665
 7618SOL    HW131822   8.091   4.198  11.083  0.7563  0.2239 -1.2211
 7618SOL    HW231823   7.963   4.124  11.053  1.0912 -1.8504  1.9943
 7619SOL     OW31824   7.634  10.264   8.300 -0.7095  0.8670 -0.0195
 7619SOL    HW131825   7.623  10.263   8.205 -0.3085 -0.2888 -0.0641
 7619SOL    HW231826   7.713  10.316   8.315  0.5927 -0.8947 -0.4951
 7620SOL     OW31827   9.590  10.006   8.377  0.1215  0.3489 -0.1932
 7620SOL    HW131828   9.679   9.977   8.394  0.9140  0.6623 -3.2780
 7620SOL    HW231829   9.535   9.942   8.422  1.8792 -1.9764 -1.1750
 7621SOL     OW31830   7.126   7.219   6.878 -1.0911  0.0839 -0.0106
 7621SOL    HW131831   7.145   7.128   6.858 -1.7671 -0.0750  0.0724
 7621SOL    HW231832   7.038   7.234   6.845 -0.7553  0.8829 -0.5780
 7622SOL     OW31833   4.424   9.035   2.755 -0.1789 -0.0569 -0.3433
 7622SOL    HW131834   4.443   8.987   2.674 -0.4122 -0.4722 -0.1585
 7622SOL    HW231835   4.509   9.066   2.785  0.2245 -1.6855  0.3466
 7623SOL     OW31836   2.479   3.579   5.568  0.9772  0.9714 -0.1350
 7623SOL    HW131837   2.554   3.537   5.525  0.8661 -0.8606  1.2986
 7623SOL    HW231838   2.501   3.576   5.661 -1.0066 -0.0026  0.3683
 7624SOL     OW31839  11.742   6.579  10.710  0.0925  0.1936  0.2135
 7624SOL    HW131840  11.730   6.646  10.643 -1.3157  1.1253  1.3341
 7624SOL    HW231841  11.738   6.496  10.662 -0.8973  0.8312 -0.8536
 7625SOL     OW31842   6.883   9.443   6.930  0.1247 -0.3683  0.4882
 7625SOL    HW131843   6.895   9.522   6.982  1.6756 -0.6290  0.5902
 7625SOL    HW231844   6.837   9.382   6.988 -1.0864  0.4373  0.4050
 7626SOL     OW31845   3.792   2.102   1.835 -0.3706 -0.2221 -0.2715
 7626SOL    HW131846   3.704   2.070   1.852 -0.0464 -0.6765  0.6265
 7626SOL    HW231847   3.828   2.043   1.769  0.0471 -1.4534  1.0073
 7627SOL     OW31848   1.337   9.762   5.033 -0.3324  0.0149  0.4035
 7627SOL    HW131849   1.273   9.749   5.103  0.7061  0.7370  1.5168
 7627SOL    HW231850   1.309   9.842   4.989 -0.2692  0.2604  0.8081
 7628SOL     OW31851  10.576   9.618   0.689  0.2648 -0.2174 -0.0890
 7628SOL    HW131852  10.660   9.650   0.721  0.5779 -1.2896  0.2132
 7628SOL    HW231853  10.528   9.592   0.768  0.2675 -1.0446 -0.3470
 7629SOL     OW31854  10.387   7.343   0.634  0.0277 -0.6408 -0.1079
 7629SOL    HW131855  10.385   7.438   0.641  1.1006 -0.4692 -1.7218
 7629SOL    HW231856  10.411   7.313   0.722 -0.3864  0.5536  0.4318
 7630SOL     OW31857   0.653   6.662   1.886  0.0373  0.5363 -0.2270
 7630SOL    HW131858   0.681   6.575   1.856 -0.8726  0.4029 -0.7371
 7630SOL    HW231859   0.683   6.667   1.976  3.1133  1.0477 -1.1665
 7631SOL     OW31860   0.643   8.570   0.354  0.2595  0.4413  0.0061
 7631SOL    HW131861   0.641   8.536   0.265  1.3599  0.4240 -0.0343
 7631SOL    HW231862   0.688   8.503   0.404  0.2331  0.7430  0.4370
 7632SOL     OW31863  11.630   4.460   4.401 -0.2503  0.3529  0.2259
 7632SOL    HW131864  11.611   4.366   4.402  0.8056  0.0504  3.8123
 7632SOL    HW231865  11.714   4.466   4.356 -1.3878 -0.0240 -2.1538
 7633SOL     OW31866   0.148   1.252   6.181  0.0312 -0.0759  0.3801
 7633SOL    HW131867   0.116   1.270   6.092  1.2129  0.9562  0.1427
 7633SOL    HW231868   0.183   1.163   6.176  1.0308  0.3504 -0.4753
 7634SOL     OW31869  12.250   4.071   4.948 -0.0243 -0.1182 -0.0919
 7634SOL    HW131870  12.315   4.032   5.006  0.4574 -0.6817 -0.9909
 7634SOL    HW231871  12.183   4.003   4.937 -1.0950  0.6677  1.3009
 7635SOL     OW31872  11.100  10.441  11.880 -0.2359 -0.0292  0.3557
 7635SOL    HW131873  11.008  10.448  11.906 -0.7359 -0.0602 -1.2887
 7635SOL    HW231874  11.099  10.453  11.785  1.4946  0.1924  0.3345
 7636SOL     OW31875   1.453   2.341   3.135  0.3676  0.9672 -0.3916
 7636SOL    HW131876   1.503   2.263   3.160  1.1457  1.3399 -0.7633
 7636SOL    HW231877   1.445   2.391   3.216 -1.4405 -0.1750  0.2148
 7637SOL     OW31878   0.711   7.769   2.738  0.1170 -0.2605 -0.0423
 7637SOL    HW131879   0.738   7.774   2.647 -0.6741 -1.5163 -0.3715
 7637SOL    HW231880   0.616   7.754   2.734 -0.1732  1.0949  1.0160
 7638SOL     OW31881   7.989   7.935   5.945 -0.2307  0.2087  0.7743
 7638SOL    HW131882   7.900   7.901   5.933 -0.0846  0.0028  0.2154
 7638SOL    HW231883   7.977   8.023   5.979 -0.6484  0.1506  0.7772
 7639SOL     OW31884  10.026   6.115   5.628 -0.1300 -0.4772  0.3901
 7639SOL    HW131885  10.061   6.202   5.645  0.6976 -0.6442 -0.3434
 7639SOL    HW231886  10.071   6.086   5.549  0.7392 -2.1527  1.4121
 7640SOL     OW31887   5.345   5.628  12.393 -0.0822 -0.3104 -0.3990
 7640SOL    HW131888   5.384   5.703  12.347  0.0658 -1.4669 -2.2467
 7640SOL    HW231889   5.379   5.634  12.482 -0.9941  2.4837 -0.1446
 7641SOL     OW31890   6.553   9.369   7.254  0.0661  0.3484 -0.0994
 7641SOL    HW131891   6.530   9.458   7.227 -1.1665 -0.0761 -0.5311
 7641SOL    HW231892   6.471   9.332   7.287  0.3803 -0.8648 -0.6150
 7642SOL     OW31893   5.438   1.332   3.254  0.0721 -0.1577  0.0997
 7642SOL    HW131894   5.435   1.403   3.318 -0.0492 -0.2135  0.1562
 7642SOL    HW231895   5.529   1.302   3.256 -0.5000 -2.0184  2.2934
 7643SOL     OW31896   5.741   7.605  11.254 -0.0949  0.2893  0.0761
 7643SOL    HW131897   5.677   7.621  11.184 -1.5110  1.8144  1.6118
 7643SOL    HW231898   5.795   7.684  11.256  0.8255 -0.3225 -0.1612
 7644SOL     OW31899   0.924   1.428   5.889  0.5423  0.0128  0.2137
 7644SOL    HW131900   0.925   1.500   5.952  1.3700 -0.2428  0.5107
 7644SOL    HW231901   0.838   1.433   5.848 -0.1386 -0.0077  1.5886
 7645SOL     OW31902   9.316   1.436  11.776  0.1991  0.8678  0.7001
 7645SOL    HW131903   9.339   1.515  11.727 -0.9333  0.0714 -1.2321
 7645SOL    HW231904   9.334   1.364  11.716 -1.6127 -0.1491  1.2932
 7646SOL     OW31905   0.599   9.145   7.487 -0.1425  0.0146  0.3449
 7646SOL    HW131906   0.542   9.117   7.558 -0.8149  1.1503  0.2636
 7646SOL    HW231907   0.577   9.237   7.472 -0.1345 -0.2314 -1.4274
 7647SOL     OW31908   3.795  12.022   4.429  0.2738 -0.3702 -0.6434
 7647SOL    HW131909   3.719  11.963   4.428  0.2114 -0.3279 -2.3734
 7647SOL    HW231910   3.867  11.967   4.459  0.0567 -1.1581 -1.4919
 7648SOL     OW31911   2.162  11.616   5.754  0.1479 -0.5181 -0.1446
 7648SOL    HW131912   2.081  11.614   5.804 -0.4284  2.0607 -0.8327
 7648SOL    HW231913   2.176  11.709   5.734  2.6172 -1.0156 -1.1053
 7649SOL     OW31914   1.716   3.753   9.047  0.0156  0.1164  0.4535
 7649SOL    HW131915   1.717   3.720   8.958 -0.1984 -0.6290  0.7189
 7649SOL    HW231916   1.631   3.797   9.055 -0.7141 -1.2646  0.7781
 7650SOL     OW31917   7.356  11.990   0.889 -0.0599  0.2763  0.0306
 7650SOL    HW131918   7.355  12.059   0.955 -1.3016  0.5268 -0.2281
 7650SOL    HW231919   7.291  12.018   0.825  0.1321 -0.6563 -0.5792
 7651SOL     OW31920   2.861  11.957   9.305 -0.0853 -0.1259  0.4408
 7651SOL    HW131921   2.875  11.959   9.210 -2.5457  0.0662  0.0183
 7651SOL    HW231922   2.847  11.865   9.325  1.3812 -0.2982  0.8385
 7652SOL     OW31923   0.171   6.746   1.866 -0.1983  0.2196 -0.5881
 7652SOL    HW131924   0.088   6.698   1.869  0.6192 -1.2214  0.5156
 7652SOL    HW231925   0.204   6.743   1.956  0.8576  1.1061 -0.9216
 7653SOL     OW31926   5.574   1.171  11.739  0.0046  0.2698 -0.1370
 7653SOL    HW131927   5.571   1.075  11.730  0.8535  0.3875 -2.4076
 7653SOL    HW231928   5.661   1.195  11.706  0.0998  1.7763  1.1227
 7654SOL     OW31929   3.068   7.210   8.250  0.1396  0.0741 -0.3372
 7654SOL    HW131930   3.128   7.282   8.228  1.9281 -0.9684  0.8840
 7654SOL    HW231931   3.110   7.132   8.213 -0.9781 -0.5515 -0.3128
 7655SOL     OW31932   6.167   2.963   3.019  0.4557 -0.0812  0.7206
 7655SOL    HW131933   6.102   2.979   3.089 -0.3813 -0.3275  0.0169
 7655SOL    HW231934   6.140   2.880   2.980 -1.0106  1.5355 -1.9637
 7656SOL     OW31935  11.576   0.206   7.698 -0.3444 -0.0577  0.2190
 7656SOL    HW131936  11.538   0.274   7.753 -0.0389 -0.0772  0.4597
 7656SOL    HW231937  11.649   0.171   7.750  0.5341  0.5594 -0.5718
 7657SOL     OW31938   8.470   7.273   8.817 -0.2665  0.7207 -0.3655
 7657SOL    HW131939   8.422   7.283   8.735  1.0136 -0.6941 -1.3277
 7657SOL    HW231940   8.408   7.229   8.876 -0.4103 -0.4447 -1.3601
 7658SOL     OW31941   8.301   1.194   9.023  0.0161 -0.1997 -0.3104
 7658SOL    HW131942   8.343   1.108   9.035  1.1493  0.1631 -1.4943
 7658SOL    HW231943   8.351   1.235   8.953 -2.1061  0.4283 -1.5376
 7659SOL     OW31944   6.984   0.621   9.381  0.2272  0.7283  0.6828
 7659SOL    HW131945   6.917   0.590   9.320  0.6468 -1.7469  1.3630
 7659SOL    HW231946   7.008   0.707   9.348 -2.5934  1.3302 -0.1345
 7660SOL     OW31947   4.812   0.075   0.746  0.5900  0.4231 -0.5178
 7660SOL    HW131948   4.816   0.016   0.821 -1.9840  0.5735 -0.1527
 7660SOL    HW231949   4.722   0.109   0.747  0.3736  0.3053 -3.7595
 7661SOL     OW31950   2.804   1.487   0.683  0.2756  0.0780 -0.0173
 7661SOL    HW131951   2.722   1.478   0.634  0.0951  0.8019  0.1410
 7661SOL    HW231952   2.868   1.438   0.631  0.0225  0.5700 -0.8249
 7662SOL     OW31953   8.837   1.750   2.075  0.4628 -0.1917 -0.6979
 7662SOL    HW131954   8.768   1.747   2.009  0.1815  0.6468 -0.4611
 7662SOL    HW231955   8.790   1.761   2.158  0.8370 -0.6945 -0.4130
 7663SOL     OW31956   6.108   9.258  10.688 -0.2602 -0.0429 -0.4817
 7663SOL    HW131957   6.160   9.241  10.610 -1.0406 -3.0845 -0.4389
 7663SOL    HW231958   6.153   9.331  10.731  2.7958 -1.1771 -1.4731
 7664SOL     OW31959   2.548   0.318   5.208  0.3748  0.2900  0.2140
 7664SOL    HW131960   2.637   0.293   5.181  0.1857  0.3142 -0.4206
 7664SOL    HW231961   2.503   0.234   5.220 -0.2494  0.2780 -1.8834
 7665SOL     OW31962   8.596   2.293   1.147  0.4958  0.4681 -0.9855
 7665SOL    HW131963   8.547   2.303   1.229  0.0443  0.1791 -1.2181
 7665SOL    HW231964   8.675   2.345   1.160  0.7424 -0.0995 -0.1146
 7666SOL     OW31965   8.928   8.329   7.348  0.0875  0.3368 -0.9267
 7666SOL    HW131966   8.937   8.268   7.274  0.9408 -2.1572  1.0812
 7666SOL    HW231967   9.017   8.360   7.364  0.0370  0.2170 -0.4138
 7667SOL     OW31968  11.368   4.152   8.170  0.1450 -0.1522  0.0708
 7667SOL    HW131969  11.354   4.058   8.166  0.1406 -0.1205 -0.7933
 7667SOL    HW231970  11.348   4.184   8.082 -1.3978  0.8688  0.7398
 7668SOL     OW31971   3.689   3.559  11.217 -0.7153  0.3674 -0.3317
 7668SOL    HW131972   3.782   3.576  11.234 -0.4008 -0.8835 -0.7297
 7668SOL    HW231973   3.646   3.580  11.300  0.0538 -0.0285  0.1822
 7669SOL     OW31974   2.296  11.211   9.827 -0.2350  0.1876 -0.6430
 7669SOL    HW131975   2.306  11.288   9.770 -2.8927  1.5737  0.5811
 7669SOL    HW231976   2.256  11.245   9.907  0.6618 -2.1603  0.9002
 7670SOL     OW31977   5.177  11.938   1.816 -0.3163 -0.3432 -0.1248
 7670SOL    HW131978   5.128  11.941   1.898  0.3228 -2.1413  0.3626
 7670SOL    HW231979   5.234  11.862   1.825  0.9455  0.3783 -1.5892
 7671SOL     OW31980   3.470   2.537  11.762 -0.2562 -0.1916  0.2632
 7671SOL    HW131981   3.383   2.553  11.726 -0.5626 -1.2173  0.5112
 7671SOL    HW231982   3.479   2.601  11.832  0.1029  1.4178 -1.1787
 7672SOL     OW31983   6.750   1.409   2.273  0.1683 -1.0894  0.2253
 7672SOL    HW131984   6.659   1.402   2.302  0.2542 -1.5372  0.3888
 7672SOL    HW231985   6.754   1.359   2.191  0.1284 -0.5598 -0.1045
 7673SOL     OW31986   6.506   7.544   4.175  0.0372 -0.0289 -0.0859
 7673SOL    HW131987   6.476   7.521   4.087  1.0319  1.2549 -0.8067
 7673SOL    HW231988   6.509   7.640   4.175 -0.0243  0.0019  1.3858
 7674SOL     OW31989  10.841   9.314   5.141 -0.4143  0.0391  0.1011
 7674SOL    HW131990  10.821   9.375   5.212 -1.1220  0.0243 -0.0752
 7674SOL    HW231991  10.862   9.369   5.066  0.7951  0.0559  0.4304
 7675SOL     OW31992   2.298   3.186   7.824  0.0608  0.2931  0.4830
 7675SOL    HW131993   2.277   3.108   7.772 -0.7731  1.5526 -1.2082
 7675SOL    HW231994   2.218   3.204   7.873  0.2560  0.0682  0.8801
 7676SOL     OW31995   5.616   2.504  10.952 -0.1298 -0.8427  0.6428
 7676SOL    HW131996   5.631   2.441  11.022 -1.6003  0.4896  2.2548
 7676SOL    HW231997   5.521   2.504  10.939 -0.0495  0.2044 -0.0914
 7677SOL     OW31998   3.092   1.827   1.778  0.1182 -0.2024 -0.7571
 7677SOL    HW131999   3.079   1.802   1.870 -0.4506 -2.9794 -1.5221
 7677SOL    HW232000   3.183   1.858   1.775  1.6934 -4.1768  0.0395
 7678SOL     OW32001   1.249   8.273   0.842  0.8998  0.4287  0.2921
 7678SOL    HW132002   1.254   8.259   0.747 -0.3226  0.7541  0.1633
 7678SOL    HW232003   1.156   8.268   0.862  1.1812  0.0057  1.5481
 7679SOL     OW32004   3.040   7.801  11.139  0.8449  0.4551  0.1963
 7679SOL    HW132005   3.090   7.809  11.057 -1.0570 -0.2051 -1.1111
 7679SOL    HW232006   2.997   7.885  11.150 -0.2293  0.0160 -0.4492
 7680SOL     OW32007   1.500  11.412  12.448 -0.5929  0.0588  0.1612
 7680SOL    HW132008   1.444  11.460  12.386  0.5586  1.3671  0.0887
 7680SOL    HW232009   1.511  11.473  12.521  0.9900 -0.0552  0.0346
 7681SOL     OW32010   6.514   2.944   0.970 -0.0854 -0.0633  0.4424
 7681SOL    HW132011   6.595   2.967   0.924 -0.7714 -1.9848 -1.9355
 7681SOL    HW232012   6.444   2.973   0.912 -1.0533 -0.8323  1.1827
 7682SOL     OW32013   7.695   4.334   0.111 -0.2726  0.1890  0.2255
 7682SOL    HW132014   7.676   4.400   0.177 -0.0769  1.1473 -0.6416
 7682SOL    HW232015   7.674   4.250   0.153  0.7904  0.6836  1.8302
 7683SOL     OW32016   4.128  12.430   5.503 -0.1125  0.5550 -0.6273
 7683SOL    HW132017   4.214  12.400   5.534 -0.5016 -0.4350 -0.4515
 7683SOL    HW232018   4.098  12.491   5.571  1.0849  2.1112 -1.4281
 7684SOL     OW32019   6.812   7.793  11.318 -0.4250 -0.2558  0.6464
 7684SOL    HW132020   6.824   7.786  11.412 -0.4945  0.6829  0.7312
 7684SOL    HW232021   6.740   7.733  11.298  1.0897 -2.2464  0.8288
 7685SOL     OW32022   1.786   0.675   1.445  0.1378 -0.2277  0.4579
 7685SOL    HW132023   1.876   0.643   1.447 -0.3186 -1.7740 -0.8554
 7685SOL    HW232024   1.736   0.602   1.406 -2.0673 -0.3320  3.1795
 7686SOL     OW32025   9.324   1.520   9.255 -0.4379 -0.1854 -0.0675
 7686SOL    HW132026   9.414   1.486   9.255 -0.4297 -0.1700  0.2176
 7686SOL    HW232027   9.304   1.534   9.348 -0.6428  0.0540 -0.1454
 7687SOL     OW32028   9.348   2.862   9.784 -0.2182  0.0885 -0.0943
 7687SOL    HW132029   9.282   2.910   9.834  0.2013  0.0965  0.4651
 7687SOL    HW232030   9.345   2.901   9.696 -1.3112 -0.2667 -0.2305
 7688SOL     OW32031   7.927   5.853   1.267 -0.2660  0.3429 -0.3819
 7688SOL    HW132032   7.910   5.933   1.316  1.5429  0.3790  0.2652
 7688SOL    HW232033   7.985   5.880   1.195  1.9787 -0.5984  0.9489
 7689SOL     OW32034  10.600   5.339   0.012  0.3332  0.6493 -0.1893
 7689SOL    HW132035  10.577   5.295  -0.070 -0.4921  1.1948 -0.2672
 7689SOL    HW232036  10.515   5.354   0.055  0.7332  0.6208  0.6371
 7690SOL     OW32037   4.197   8.787   3.259 -0.2131  0.3779 -0.5392
 7690SOL    HW132038   4.291   8.807   3.259 -0.2275  0.4445 -0.5044
 7690SOL    HW232039   4.167   8.810   3.347 -0.3796  0.9073 -0.7323
 7691SOL     OW32040  12.207   2.686   2.921 -0.4303 -0.1792 -0.0326
 7691SOL    HW132041  12.277   2.623   2.907 -0.9653 -1.1353  1.3240
 7691SOL    HW232042  12.127   2.633   2.916 -0.9698  0.6422 -0.1749
 7692SOL     OW32043   5.000   6.950   2.413 -0.3051 -0.0995 -0.2440
 7692SOL    HW132044   5.077   6.995   2.375  0.0675  1.0944  1.7865
 7692SOL    HW232045   4.928   6.973   2.354  0.7279 -0.6508 -1.7895
 7693SOL     OW32046  10.240   2.504   3.438  0.5799 -0.2207 -0.2922
 7693SOL    HW132047  10.256   2.471   3.350  1.3174 -0.2920 -0.1428
 7693SOL    HW232048  10.309   2.570   3.451 -0.9598  1.5529 -0.6632
 7694SOL     OW32049   5.912   7.738   8.305 -0.1017 -0.1173 -0.4960
 7694SOL    HW132050   5.936   7.656   8.348  1.9757 -0.2802 -1.7957
 7694SOL    HW232051   5.944   7.806   8.364  1.4072 -0.3278 -1.0010
 7695SOL     OW32052  10.412   3.538   0.628 -0.2757 -0.2779 -0.6298
 7695SOL    HW132053  10.444   3.458   0.587 -0.8857 -0.4068 -0.8504
 7695SOL    HW232054  10.491   3.577   0.667 -0.0653 -1.2833 -0.0028
 7696SOL     OW32055  12.032   8.424   1.339  0.0415  0.1207 -0.4840
 7696SOL    HW132056  12.020   8.390   1.427  0.2527 -0.3906 -0.6537
 7696SOL    HW232057  12.030   8.519   1.350  1.8835  0.1039  0.3251
 7697SOL     OW32058   0.287   1.328   4.689  0.0101  0.0644  0.1596
 7697SOL    HW132059   0.193   1.320   4.677 -0.5505  2.4280  2.2071
 7697SOL    HW232060   0.317   1.378   4.613 -0.0110 -2.1585 -1.3999
 7698SOL     OW32061   6.810   4.874   1.432  0.1750  0.3693 -0.4255
 7698SOL    HW132062   6.835   4.965   1.448  1.8252  0.0562 -1.0451
 7698SOL    HW232063   6.893   4.828   1.415 -0.5867 -1.3087  0.1286
 7699SOL     OW32064   9.240   3.250   0.452 -0.0129 -1.1807 -0.3321
 7699SOL    HW132065   9.242   3.325   0.393 -0.5539 -0.2737  0.7481
 7699SOL    HW232066   9.320   3.258   0.504 -1.5078  0.5319  1.9277
 7700SOL     OW32067   2.896   5.952   8.726 -0.6533  0.2343  0.0977
 7700SOL    HW132068   2.946   6.026   8.762  0.7237  0.2809 -1.7593
 7700SOL    HW232069   2.874   5.979   8.636 -2.7225 -0.4391  0.3463
 7701SOL     OW32070  11.247   1.498   0.094  0.2836  0.2447 -0.5229
 7701SOL    HW132071  11.261   1.582   0.050  0.3251 -0.4029 -1.7751
 7701SOL    HW232072  11.224   1.437   0.024 -0.5023 -0.6290  0.4617
 7702SOL     OW32073   1.302   9.304  11.277 -0.3069 -0.9915 -0.5004
 7702SOL    HW132074   1.328   9.294  11.185 -0.8877 -0.1523 -0.7675
 7702SOL    HW232075   1.222   9.356  11.273 -1.4043 -2.5247  0.3558
 7703SOL     OW32076   9.977   7.965   1.333 -0.2901 -0.2581  0.1674
 7703SOL    HW132077  10.010   8.055   1.337 -1.7511  0.3485 -0.6806
 7703SOL    HW232078  10.012   7.930   1.252 -0.8745  0.0505 -0.2287
 7704SOL     OW32079   0.298  11.286  11.335 -0.4217 -0.5512  0.6233
 7704SOL    HW132080   0.338  11.200  11.354 -0.8663 -0.4147  2.3200
 7704SOL    HW232081   0.355  11.349  11.380  0.0750  0.1089 -0.8622
 7705SOL     OW32082   1.166   8.742   5.524  0.0553 -0.4303  0.1638
 7705SOL    HW132083   1.105   8.765   5.453  0.9724 -1.2116 -0.9080
 7705SOL    HW232084   1.253   8.752   5.485  0.7811  2.6389  2.2542
 7706SOL     OW32085  11.498   6.806   2.861 -0.8075  0.3794 -0.1728
 7706SOL    HW132086  11.560   6.737   2.837 -0.4030 -0.0851  1.9371
 7706SOL    HW232087  11.415   6.759   2.873 -0.6668  0.3177  0.6751
 7707SOL     OW32088   7.799   7.729   6.150 -0.0297  0.1092  0.1145
 7707SOL    HW132089   7.728   7.700   6.092 -0.0346 -0.1190  0.2317
 7707SOL    HW232090   7.858   7.777   6.092  0.2280 -0.5571 -0.1940
 7708SOL     OW32091   7.907   6.391   4.235  0.3984  0.3606  0.1104
 7708SOL    HW132092   7.883   6.299   4.244  0.4446  0.4719  1.7942
 7708SOL    HW232093   7.962   6.395   4.157 -1.0579 -0.7178 -1.0213
 7709SOL     OW32094   6.996  11.184   6.449 -0.3759  0.3522 -0.2695
 7709SOL    HW132095   6.933  11.220   6.512  0.9003 -0.1855  1.3703
 7709SOL    HW232096   7.032  11.106   6.492  0.3747 -0.1619 -1.7665
 7710SOL     OW32097   2.304  10.645  11.564  0.2446  0.5275  0.3874
 7710SOL    HW132098   2.276  10.718  11.509  0.3929  0.2714 -0.0278
 7710SOL    HW232099   2.223  10.613  11.604  0.2679  1.3968  1.1680
 7711SOL     OW32100   5.358   5.929   0.919  0.8486  0.6682  0.5542
 7711SOL    HW132101   5.446   5.949   0.951  0.9661  1.1447 -0.0291
 7711SOL    HW232102   5.352   5.976   0.835 -0.5935  2.1722  1.4238
 7712SOL     OW32103   0.590   0.286   4.230  0.0625 -0.1661  0.7906
 7712SOL    HW132104   0.568   0.307   4.139  1.0815  1.6833  0.9170
 7712SOL    HW232105   0.675   0.328   4.244  1.0678 -2.4050  1.9206
 7713SOL     OW32106  11.726   1.759   4.467  0.2332 -0.2640  0.3260
 7713SOL    HW132107  11.781   1.759   4.389  1.7180 -1.5229  1.2878
 7713SOL    HW232108  11.787   1.776   4.539 -1.1281  1.1320  1.2153
 7714SOL     OW32109   2.778   6.356   6.184  0.6332  0.5959 -0.0837
 7714SOL    HW132110   2.779   6.447   6.154 -0.5052  0.2082 -1.4007
 7714SOL    HW232111   2.774   6.305   6.103 -0.0716 -0.5887  0.6853
 7715SOL     OW32112   4.963   9.094  12.207  0.0808  0.4324  0.0306
 7715SOL    HW132113   5.057   9.114  12.209 -0.0442  1.1778 -0.8249
 7715SOL    HW232114   4.954   9.028  12.138  0.2225 -1.1752  1.4867
 7716SOL     OW32115   4.717  10.298   5.623 -0.2321  0.2004 -0.5151
 7716SOL    HW132116   4.662  10.295   5.545  1.2346  0.4793 -1.6168
 7716SOL    HW232117   4.783  10.230   5.608 -1.4167 -1.5962  1.7339
 7717SOL     OW32118   5.233   1.667  12.025 -0.3464 -0.1684  0.2872
 7717SOL    HW132119   5.246   1.573  12.036  0.0106 -0.1027  0.4299
 7717SOL    HW232120   5.257   1.705  12.109 -1.1801 -0.0125  0.4641
 7718SOL     OW32121  10.786   8.249  11.973 -0.4213 -0.2220 -0.3151
 7718SOL    HW132122  10.771   8.156  11.957 -1.9478 -0.4236  1.8624
 7718SOL    HW232123  10.702   8.282  12.004  0.6838  1.3436  1.1787
 7719SOL     OW32124   4.930   7.239   1.148 -0.5508  0.3208 -0.1353
 7719SOL    HW132125   4.882   7.283   1.077 -0.5212  0.9280  0.2179
 7719SOL    HW232126   4.866   7.180   1.188 -0.8737  0.7849  0.0334
 7720SOL     OW32127   3.898   3.449   3.950  0.1811 -0.4988 -0.0084
 7720SOL    HW132128   3.830   3.392   3.986  0.6026 -1.0848 -0.1235
 7720SOL    HW232129   3.950   3.476   4.026 -1.7028  2.0916  0.4790
 7721SOL     OW32130   1.712   3.403  10.314 -0.2426  0.1803 -0.1391
 7721SOL    HW132131   1.619   3.389  10.299 -0.7555  2.2158  0.7919
 7721SOL    HW232132   1.717   3.489  10.356  2.0108 -0.1286  0.3636
 7722SOL     OW32133   6.478   5.105   3.423  0.1958 -0.4167  0.3361
 7722SOL    HW132134   6.460   5.012   3.439 -0.7218 -0.1625  0.7994
 7722SOL    HW232135   6.468   5.114   3.328 -1.1290 -0.5071  0.4501
 7723SOL     OW32136   8.443   7.388  11.987 -0.5169 -0.9244  0.5812
 7723SOL    HW132137   8.418   7.302  12.020  0.4802 -1.0222  1.0947
 7723SOL    HW232138   8.390   7.449  12.038  1.1904 -1.0533  2.6083
 7724SOL     OW32139   4.261   9.401   7.178  0.4246 -0.4942 -0.0724
 7724SOL    HW132140   4.220   9.487   7.180  0.0692 -0.6794  0.6884
 7724SOL    HW232141   4.205   9.345   7.232  0.5438 -1.2576 -0.7038
 7725SOL     OW32142   8.559   8.457   9.717  0.5594 -0.2311 -0.0544
 7725SOL    HW132143   8.593   8.524   9.777  0.8275  0.8314 -1.3425
 7725SOL    HW232144   8.636   8.411   9.685  0.4338 -0.6496  0.2359
 7726SOL     OW32145   8.128   4.301  11.221  0.3349 -0.3403 -0.4961
 7726SOL    HW132146   8.060   4.269  11.280  1.2448 -1.2826  0.0713
 7726SOL    HW232147   8.197   4.332  11.278 -0.0912  1.8058 -1.0477
 7727SOL     OW32148   6.597   2.557  10.351  0.4464 -0.1827 -0.0048
 7727SOL    HW132149   6.626   2.572  10.441  0.2918  0.2810 -0.0272
 7727SOL    HW232150   6.615   2.464  10.335 -1.0350 -0.6947  1.0530
 7728SOL     OW32151   2.567  12.471   0.172  0.3295 -0.4364 -0.4888
 7728SOL    HW132152   2.663  12.477   0.175  0.3996  0.2556 -2.5354
 7728SOL    HW232153   2.537  12.550   0.217  0.8362  0.9771 -2.4720
 7729SOL     OW32154  11.221   9.263   8.795 -0.4220  0.0037  0.0822
 7729SOL    HW132155  11.222   9.171   8.820 -0.3669 -0.1312 -0.3962
 7729SOL    HW232156  11.151   9.269   8.730  1.6122 -0.3618 -2.2785
 7730SOL     OW32157   4.319   6.439   1.678 -0.2035 -0.0361 -0.0425
 7730SOL    HW132158   4.324   6.401   1.590 -0.2099 -1.0429  0.3770
 7730SOL    HW232159   4.391   6.502   1.681 -0.6776  0.5774 -1.0240
 7731SOL     OW32160  10.635   7.302  10.831 -0.0858  0.0390  0.8422
 7731SOL    HW132161  10.722   7.312  10.792 -0.1474 -1.9697  0.0527
 7731SOL    HW232162  10.575   7.335  10.765  0.0421  1.4444  1.3948
 7732SOL     OW32163   7.035  10.505   1.621  0.3398  0.2314 -0.5440
 7732SOL    HW132164   6.990  10.421   1.626 -1.0295  0.9864  0.8290
 7732SOL    HW232165   7.127  10.484   1.632 -0.0158 -1.0811  0.1359
 7733SOL     OW32166   5.354   6.762   0.546 -0.6312  0.5752  0.5122
 7733SOL    HW132167   5.440   6.739   0.511 -0.6168  1.8404 -0.3377
 7733SOL    HW232168   5.373   6.813   0.625 -0.4964  2.6546 -0.7848
 7734SOL     OW32169   5.550  10.965  12.405  0.7848 -0.1225  0.1063
 7734SOL    HW132170   5.494  11.026  12.357  4.2982  2.3574 -1.3141
 7734SOL    HW232171   5.567  11.009  12.488 -0.0897 -1.3287  0.9536
 7735SOL     OW32172   2.358   1.361   9.501  0.0986 -0.0513 -0.1239
 7735SOL    HW132173   2.372   1.288   9.440 -1.2641  0.9190 -1.6701
 7735SOL    HW232174   2.329   1.433   9.446  0.3479  1.3632  1.5130
 7736SOL     OW32175   1.179   6.331   5.806  0.0120  0.0286 -0.0421
 7736SOL    HW132176   1.205   6.409   5.854  1.4789 -0.3037 -0.2457
 7736SOL    HW232177   1.258   6.277   5.803 -0.4182 -0.5622 -1.6468
 7737SOL     OW32178   9.674   1.687   2.146 -0.4771 -0.5510 -0.3186
 7737SOL    HW132179   9.610   1.700   2.216  0.2055  1.3827  0.0327
 7737SOL    HW232180   9.635   1.728   2.069  0.7800  1.8374  0.2164
 7738SOL     OW32181   4.010  12.310  11.757  0.0337 -0.5017  0.4568
 7738SOL    HW132182   3.982  12.356  11.677 -0.3086 -1.3756  0.0687
 7738SOL    HW232183   4.027  12.220  11.729 -0.9769 -1.0537  1.5451
 7739SOL     OW32184   8.193   4.906   5.209 -0.1875  0.1799 -0.0823
 7739SOL    HW132185   8.122   4.928   5.269  0.1768  3.1210 -0.6088
 7739SOL    HW232186   8.171   4.951   5.127  0.6148 -1.6600 -1.3992
 7740SOL     OW32187   4.275  11.554   1.925  0.1063 -0.3629 -0.3971
 7740SOL    HW132188   4.287  11.644   1.896  3.0453 -1.1064 -1.8935
 7740SOL    HW232189   4.181  11.547   1.942 -0.2535  2.8812 -0.3900
 7741SOL     OW32190   3.343   1.001   9.264  0.3096  0.3275 -0.3526
 7741SOL    HW132191   3.267   1.029   9.214 -1.2077  0.1670  1.7467
 7741SOL    HW232192   3.347   0.906   9.251  0.1284  0.3288 -0.4167
 7742SOL     OW32193   0.448   2.639   7.400 -0.0415 -0.2635 -0.2109
 7742SOL    HW132194   0.512   2.673   7.462 -1.5523  0.5889  0.9339
 7742SOL    HW232195   0.472   2.679   7.316  0.9514 -0.0181  0.1719
 7743SOL     OW32196   8.280   7.204  11.711  0.4230 -0.0669 -0.0548
 7743SOL    HW132197   8.240   7.184  11.796  0.0690  2.6416  0.5141
 7743SOL    HW232198   8.207   7.236  11.658  0.1820 -3.6759 -2.2590
 7744SOL     OW32199   4.336   8.154   1.460 -0.3870 -0.2243 -0.2223
 7744SOL    HW132200   4.346   8.209   1.538 -0.9417 -0.8851  0.3283
 7744SOL    HW232201   4.320   8.066   1.495  2.4687 -1.1912 -1.0639
 7745SOL     OW32202   3.202  12.061   8.764  0.1027  0.1528 -0.0750
 7745SOL    HW132203   3.278  12.118   8.775  0.1526  0.5361 -1.9963
 7745SOL    HW232204   3.237  11.972   8.773  0.4401  0.3642  0.7529
 7746SOL     OW32205  12.597   5.475   9.560  0.5779 -0.2077  0.1671
 7746SOL    HW132206  12.512   5.515   9.538  0.0244 -1.9629 -1.1043
 7746SOL    HW232207  12.598   5.473   9.655 -0.6210  0.2336  0.2163
 7747SOL     OW32208   4.815   7.203  11.459  0.2268  0.0068  0.0079
 7747SOL    HW132209   4.807   7.197  11.363 -1.3052  1.4578  0.0023
 7747SOL    HW232210   4.790   7.116  11.490  1.6131 -0.7676 -0.9135
 7748SOL     OW32211   2.359  12.322   1.688  0.1233 -0.2410 -0.3454
 7748SOL    HW132212   2.347  12.245   1.632  0.9221 -0.0721 -0.7643
 7748SOL    HW232213   2.381  12.393   1.627 -2.2036  0.7457 -0.1469
 7749SOL     OW32214  10.619   1.932   1.693  0.3279 -0.2700  0.7420
 7749SOL    HW132215  10.661   1.922   1.607 -0.6101 -0.8184  0.3355
 7749SOL    HW232216  10.554   1.862   1.697 -0.8210  0.7830  1.1934
 7750SOL     OW32217   4.533   3.336  10.777  0.0044 -0.3766 -0.1524
 7750SOL    HW132218   4.595   3.403  10.748 -0.6293  0.4795  0.4542
 7750SOL    HW232219   4.566   3.308  10.863 -0.5247  0.1863  0.2383
 7751SOL     OW32220   2.003   1.641  11.593  0.1360 -0.0171 -0.2478
 7751SOL    HW132221   2.033   1.706  11.657 -0.9095 -0.8369  1.1349
 7751SOL    HW232222   2.074   1.576  11.590 -0.6468 -1.0532  1.7101
 7752SOL     OW32223   6.203   6.038   0.719  0.0136 -0.2771  0.2831
 7752SOL    HW132224   6.161   6.044   0.805 -0.4385 -1.5243  0.1627
 7752SOL    HW232225   6.277   5.979   0.733 -0.4975 -1.0698 -0.3475
 7753SOL     OW32226   5.022   8.888   0.939  0.0418  0.5733 -0.4535
 7753SOL    HW132227   5.002   8.964   0.884  2.7284  1.9126  0.2530
 7753SOL    HW232228   5.100   8.850   0.899  0.2676 -0.2415  0.7343
 7754SOL     OW32229   1.439   3.008   8.732  0.2242  0.1779 -0.0174
 7754SOL    HW132230   1.407   3.082   8.784 -1.7421 -1.0373  0.6359
 7754SOL    HW232231   1.525   3.036   8.700  0.9683  1.4912  2.8160
 7755SOL     OW32232   4.505   8.646  12.488 -0.0408  0.1925  0.0787
 7755SOL    HW132233   4.415   8.655  12.519 -0.0844 -0.8789  0.2770
 7755SOL    HW232234   4.551   8.720  12.528 -0.0339 -1.2320  2.9385
 7756SOL     OW32235  12.412  12.149   5.374 -0.3763 -0.3181 -0.1198
 7756SOL    HW132236  12.446  12.167   5.287 -1.6649  3.4321 -0.0409
 7756SOL    HW232237  12.398  12.054   5.376  0.8147 -0.6876 -3.5116
 7757SOL     OW32238  12.402   7.034   9.770  0.4704 -0.3115 -0.6278
 7757SOL    HW132239  12.325   6.985   9.739 -1.1049  2.8641 -2.1942
 7757SOL    HW232240  12.438   7.074   9.691  0.3402  2.7571  0.7588
 7758SOL     OW32241   8.673   1.234  11.159  0.0222  0.0997  0.7323
 7758SOL    HW132242   8.676   1.181  11.080  0.8235  0.0927  0.7532
 7758SOL    HW232243   8.718   1.181  11.225  0.0678  0.4398  0.9793
 7759SOL     OW32244   9.753   2.138   8.044  0.2979 -0.2611 -0.5349
 7759SOL    HW132245   9.810   2.062   8.050 -2.1049 -2.3348 -1.9381
 7759SOL    HW232246   9.787   2.188   7.970  0.9901 -0.8302 -0.6067
 7760SOL     OW32247   0.082   2.189   3.627  0.2437 -0.4578 -0.4051
 7760SOL    HW132248  -0.003   2.164   3.665 -0.3786  0.3942 -1.1806
 7760SOL    HW232249   0.062   2.206   3.535  1.8796 -3.3569 -1.4153
 7761SOL     OW32250   3.434   7.768  11.663 -0.2101 -0.3239 -0.2792
 7761SOL    HW132251   3.370   7.788  11.731 -1.0529  1.0088 -1.3940
 7761SOL    HW232252   3.430   7.673  11.654 -0.8092 -0.4164  0.8300
 7762SOL     OW32253   2.761   9.600   1.962 -0.1539  0.0888  0.1442
 7762SOL    HW132254   2.722   9.669   2.015 -1.2195 -0.3069 -0.1121
 7762SOL    HW232255   2.734   9.620   1.873 -0.9447 -0.9525  0.1294
 7763SOL     OW32256   8.454   9.750   0.233  0.5138  0.0547 -0.2277
 7763SOL    HW132257   8.440   9.756   0.327  0.9342  0.4770 -0.1858
 7763SOL    HW232258   8.366   9.738   0.196  0.0678  2.0019  0.0669
 7764SOL     OW32259   4.116   2.858   9.708 -0.1973 -0.1181  0.0980
 7764SOL    HW132260   4.156   2.784   9.753  0.1871  0.1054  0.1295
 7764SOL    HW232261   4.037   2.876   9.758 -0.6621 -0.9430 -0.3156
 7765SOL     OW32262  12.180   8.297   6.205 -0.3306  0.1623 -0.2986
 7765SOL    HW132263  12.166   8.320   6.114 -1.7463 -2.7981 -0.9580
 7765SOL    HW232264  12.095   8.313   6.247 -0.3075 -0.4831  0.0063
 7766SOL     OW32265   2.626   9.924   0.150 -0.1346  0.0980  0.0577
 7766SOL    HW132266   2.701   9.906   0.206  0.6094  0.3554 -0.8145
 7766SOL    HW232267   2.586  10.003   0.187  0.8088  0.7201 -0.1955
 7767SOL     OW32268  10.687   0.847   3.811  0.3975  0.3938  0.1943
 7767SOL    HW132269  10.610   0.832   3.756  2.1386 -2.6011 -1.6391
 7767SOL    HW232270  10.720   0.760   3.831  2.5649  1.5472  2.0962
 7768SOL     OW32271   2.465  10.985   2.521 -0.3258  0.1834 -0.0060
 7768SOL    HW132272   2.388  10.956   2.570 -0.6004 -0.5688 -0.8485
 7768SOL    HW232273   2.505  10.904   2.489 -0.0648  0.6433 -0.8807
 7769SOL     OW32274   4.512   9.332   5.224 -0.2215  0.4850 -0.3923
 7769SOL    HW132275   4.440   9.306   5.281  0.3242 -0.9831 -0.3484
 7769SOL    HW232276   4.474   9.334   5.136 -0.3290 -0.3011 -0.3718
 7770SOL     OW32277   3.573   3.248  10.864 -0.5483  0.0649 -0.2633
 7770SOL    HW132278   3.540   3.320  10.917 -0.4725  1.0415 -1.4997
 7770SOL    HW232279   3.657   3.280  10.829  0.0624 -1.0758  0.1131
 7771SOL     OW32280   6.441   8.259   0.959  0.0256  0.1850 -0.1649
 7771SOL    HW132281   6.408   8.241   1.047 -0.5409  0.1567 -0.3784
 7771SOL    HW232282   6.377   8.321   0.922  2.1084  3.1020  0.7205
 7772SOL     OW32283   8.661   8.037   6.668 -0.2043  0.2013  0.0247
 7772SOL    HW132284   8.726   7.968   6.678 -0.3006  0.1665  0.4162
 7772SOL    HW232285   8.605   8.008   6.596 -0.0574  0.0205 -0.0169
 7773SOL     OW32286   2.685   8.389   4.386 -0.0411  0.0883  0.3532
 7773SOL    HW132287   2.695   8.353   4.474  0.3316  0.1657  0.3405
 7773SOL    HW232288   2.774   8.400   4.353 -0.1852 -1.1440 -0.5250
 7774SOL     OW32289   0.795   3.360  11.689 -0.5809 -0.4377 -0.2443
 7774SOL    HW132290   0.803   3.456  11.691 -0.8811 -0.4318  1.2695
 7774SOL    HW232291   0.781   3.335  11.780 -2.0925 -1.7873 -0.8036
 7775SOL     OW32292   2.187   1.283   9.127  0.3943  0.1061 -0.1527
 7775SOL    HW132293   2.245   1.257   9.055  2.6911 -0.0126  1.6113
 7775SOL    HW232294   2.231   1.251   9.206 -1.7023  0.7706  1.3685
 7776SOL     OW32295   9.301   0.933   6.578  0.3145 -0.6219  0.1862
 7776SOL    HW132296   9.276   0.886   6.499  2.2555 -1.5425  0.0489
 7776SOL    HW232297   9.312   0.865   6.645 -0.8616  0.0947  1.1484
 7777SOL     OW32298   6.373   6.089   1.959 -0.1050 -0.3994 -0.4464
 7777SOL    HW132299   6.360   6.102   1.865  0.8377 -1.3971 -0.7432
 7777SOL    HW232300   6.334   6.003   1.976 -1.1766  0.2154  0.2954
 7778SOL     OW32301   9.993   5.548  10.513  0.0434  0.2229 -0.0956
 7778SOL    HW132302   9.968   5.636  10.483  1.8367  0.3139 -1.4942
 7778SOL    HW232303   9.991   5.495  10.434  1.3563 -0.4133  0.2830
 7779SOL     OW32304  11.643   2.914   0.155  0.0124 -0.3081 -0.1975
 7779SOL    HW132305  11.574   2.855   0.182  0.2961 -0.5475  0.0128
 7779SOL    HW232306  11.609   2.957   0.076 -1.1868  1.0505  0.9955
 7780SOL     OW32307   1.096  11.498   9.222  0.1640  0.3645 -0.1361
 7780SOL    HW132308   1.048  11.461   9.148 -0.9463 -0.8152  1.1268
 7780SOL    HW232309   1.183  11.457   9.216 -0.3597 -0.7880 -0.0071
 7781SOL     OW32310   8.457   2.028   4.488 -0.4366  0.0140  0.0415
 7781SOL    HW132311   8.419   1.979   4.416 -1.0919  0.3209  0.1700
 7781SOL    HW232312   8.436   2.120   4.468  0.8520  0.2739 -0.2545
 7782SOL     OW32313   7.401   0.883   5.933 -0.0585  0.2567 -0.3094
 7782SOL    HW132314   7.409   0.797   5.975 -1.8258  1.0003  1.7206
 7782SOL    HW232315   7.459   0.939   5.984 -0.3929  0.6767 -0.3904
 7783SOL     OW32316   8.756   4.134  10.888  0.1329 -1.1433 -0.1763
 7783SOL    HW132317   8.829   4.080  10.857  0.4967 -0.3486 -0.7231
 7783SOL    HW232318   8.681   4.104  10.837  0.5126 -0.5659 -1.1013
 7784SOL     OW32319  12.051   0.144   6.088 -0.2651 -0.0909  0.4399
 7784SOL    HW132320  12.011   0.159   6.002 -2.0426 -0.1774  1.2081
 7784SOL    HW232321  12.136   0.106   6.068 -1.1048 -1.2068 -1.2874
 7785SOL     OW32322   4.994   2.476   0.421  0.4144 -0.2357 -0.2287
 7785SOL    HW132323   5.048   2.410   0.466  2.0390  0.7613 -0.6266
 7785SOL    HW232324   4.942   2.516   0.491  1.1708 -0.3222  0.4014
 7786SOL     OW32325   3.418   9.105   7.363 -0.4172  0.3139 -0.2295
 7786SOL    HW132326   3.458   9.134   7.445  0.6245 -0.1228 -0.5746
 7786SOL    HW232327   3.334   9.066   7.390 -0.9072  1.7594  0.4319
 7787SOL     OW32328  10.761   3.462   0.480 -0.4529  0.5979 -0.3156
 7787SOL    HW132329  10.802   3.504   0.555  1.6616 -0.2471 -0.9137
 7787SOL    HW232330  10.724   3.534   0.429 -1.7375  1.1911  1.3898
 7788SOL     OW32331  12.014   1.810   8.362  0.3022  0.0545 -0.1156
 7788SOL    HW132332  12.069   1.879   8.324  2.0365 -1.1966 -0.0288
 7788SOL    HW232333  12.005   1.835   8.454  0.6389  0.3396 -0.1563
 7789SOL     OW32334   8.118   7.007   3.853  0.3696  0.1346  0.0628
 7789SOL    HW132335   8.139   6.936   3.792  3.0539  1.1613 -0.3200
 7789SOL    HW232336   8.026   7.027   3.835  0.1400 -1.8239 -1.2687
 7790SOL     OW32337   6.380   5.601   7.755 -0.3585  0.4391  0.0838
 7790SOL    HW132338   6.340   5.643   7.678 -0.8902  0.6268  0.4550
 7790SOL    HW232339   6.430   5.528   7.719  0.2870  1.1570 -0.5474
 7791SOL     OW32340   1.999   9.147   1.155 -0.8520  0.3126 -0.4685
 7791SOL    HW132341   1.981   9.148   1.249 -0.0489  1.0512 -0.3157
 7791SOL    HW232342   2.004   9.240   1.130  0.9527  0.1512 -0.8407
 7792SOL     OW32343   9.060   5.663   4.658 -0.2818 -0.0423  0.8853
 7792SOL    HW132344   9.104   5.582   4.634 -1.1120 -0.0374 -0.8083
 7792SOL    HW232345   9.130   5.723   4.682  0.6875 -0.0222 -1.7514
 7793SOL     OW32346   6.797   0.856  11.816  0.2347  0.2551  0.1708
 7793SOL    HW132347   6.785   0.771  11.859  0.1808 -1.1251 -2.3665
 7793SOL    HW232348   6.891   0.861  11.798  0.0973  0.2552 -0.5748
 7794SOL     OW32349  10.602  11.430  11.544  0.2795 -0.2079 -0.2957
 7794SOL    HW132350  10.635  11.513  11.578 -0.2409  1.0742 -2.7153
 7794SOL    HW232351  10.649  11.417  11.462 -0.7731 -1.4923 -0.7331
 7795SOL     OW32352  10.692   3.420   1.633  0.0661  0.4028 -0.7957
 7795SOL    HW132353  10.641   3.355   1.586 -0.4847 -0.7175  1.2474
 7795SOL    HW232354  10.647   3.503   1.616 -0.3667 -0.0435 -1.8511
 7796SOL     OW32355   2.554   9.611   0.880  0.1164 -0.5162  0.5044
 7796SOL    HW132356   2.583   9.670   0.811 -3.2835 -0.5140 -1.1233
 7796SOL    HW232357   2.525   9.668   0.950  2.0564 -0.4886  1.3501
 7797SOL     OW32358   9.728   8.820   0.523 -0.1207  0.4874  0.1347
 7797SOL    HW132359   9.770   8.804   0.607 -0.6216 -0.4768  0.2154
 7797SOL    HW232360   9.779   8.770   0.460  0.7493  1.8540 -0.2985
 7798SOL     OW32361   8.005   1.859   4.778 -0.4102  0.1195 -0.2963
 7798SOL    HW132362   8.037   1.893   4.694  0.1975  1.2364  0.3734
 7798SOL    HW232363   7.934   1.918   4.802 -1.1067 -0.6648 -0.3876
 7799SOL     OW32364   0.041   3.121  10.929  0.1730  0.2612  0.0464
 7799SOL    HW132365   0.022   3.110  10.835 -0.4604  0.6005  0.1326
 7799SOL    HW232366  -0.023   3.064  10.972  0.0203  0.6283  0.3004
 7800SOL     OW32367   0.044  11.626   4.506  0.1168  0.0215  0.1030
 7800SOL    HW132368  -0.032  11.683   4.516  0.4142  0.2199  1.3031
 7800SOL    HW232369   0.018  11.544   4.547 -0.5819 -1.0303 -2.2524
 7801SOL     OW32370  11.428   5.928   3.147 -0.2279  0.6366  0.5774
 7801SOL    HW132371  11.511   5.935   3.101 -0.5030  2.9057  0.3048
 7801SOL    HW232372  11.452   5.911   3.238  0.4529 -0.2545  0.2361
 7802SOL     OW32373   8.203   2.831   4.103 -0.8978 -0.0627 -0.6477
 7802SOL    HW132374   8.285   2.790   4.129 -0.4127 -1.3485 -3.7960
 7802SOL    HW232375   8.184   2.893   4.173  3.9099  1.9761 -0.7624
 7803SOL     OW32376   2.399   6.491   6.896  0.5230  0.3443 -0.1756
 7803SOL    HW132377   2.317   6.506   6.943  0.3656 -0.5711 -0.1279
 7803SOL    HW232378   2.429   6.578   6.870 -0.1186  0.7392  0.3885
 7804SOL     OW32379   1.366   8.707   1.080  0.2575 -0.4969  0.2210
 7804SOL    HW132380   1.356   8.721   1.174  1.0390 -0.4556  0.3057
 7804SOL    HW232381   1.371   8.611   1.070 -1.5155 -0.6136  0.0223
 7805SOL     OW32382   8.443   6.766   0.672 -0.0311 -0.0568  0.0792
 7805SOL    HW132383   8.494   6.807   0.603 -3.0435  1.3513 -1.4926
 7805SOL    HW232384   8.452   6.825   0.747  0.1967  0.4792 -0.3669
 7806SOL     OW32385   5.331   4.851   5.825  0.0854  0.6708 -0.6050
 7806SOL    HW132386   5.268   4.839   5.896  0.4089 -0.4798 -0.4837
 7806SOL    HW232387   5.382   4.927   5.850 -0.0440  0.4919  0.2136
 7807SOL     OW32388  11.474   5.860   0.138 -0.3872  0.4262 -0.2829
 7807SOL    HW132389  11.529   5.799   0.188 -0.5843 -0.3146 -0.9389
 7807SOL    HW232390  11.413   5.895   0.202 -1.8678 -1.9235 -0.3007
 7808SOL     OW32391   2.406   5.460  12.209 -0.8482  0.0915  0.3771
 7808SOL    HW132392   2.452   5.518  12.148  0.4805 -0.4551  0.8225
 7808SOL    HW232393   2.345   5.518  12.256  0.3964  1.1385  0.7722
 7809SOL     OW32394   2.815   6.247   3.759 -0.4360  0.2988 -0.0532
 7809SOL    HW132395   2.857   6.170   3.798 -0.8526 -0.0609 -0.2980
 7809SOL    HW232396   2.740   6.211   3.711 -0.6716  0.8687 -0.1155
 7810SOL     OW32397  11.545   2.618   7.425 -0.4103 -0.2649 -0.4247
 7810SOL    HW132398  11.562   2.524   7.435 -0.7175 -0.1156  2.2740
 7810SOL    HW232399  11.619   2.660   7.467 -2.1093  0.5765  1.8837
 7811SOL     OW32400   3.518  10.540  10.958 -0.0888 -0.2992  0.0656
 7811SOL    HW132401   3.425  10.529  10.978  0.1730 -0.9461  1.0254
 7811SOL    HW232402   3.551  10.595  11.029  0.6282 -1.6588  0.8244
 7812SOL     OW32403  10.159   3.522   8.077 -0.4192 -0.6237  0.1302
 7812SOL    HW132404  10.212   3.452   8.114  0.6392  0.3373  0.4969
 7812SOL    HW232405  10.194   3.535   7.989  0.1668  0.1884  0.4652
 7813SOL     OW32406  11.190   2.777   0.897 -0.2274  0.6657 -0.0428
 7813SOL    HW132407  11.278   2.810   0.876 -0.0476  1.0840  1.2943
 7813SOL    HW232408  11.144   2.853   0.933 -1.1677  0.4569 -0.7474
 7814SOL     OW32409   2.902   3.981   7.795  0.2065  0.2320  0.1978
 7814SOL    HW132410   2.927   4.067   7.763  0.4284  0.2067  0.3027
 7814SOL    HW232411   2.818   3.963   7.753  0.4130  0.2729 -0.2332
 7815SOL     OW32412   3.905   4.926   2.089 -0.3446  0.1740  0.0650
 7815SOL    HW132413   3.963   4.926   2.013  1.1762  1.7206  1.1585
 7815SOL    HW232414   3.832   4.982   2.064  0.9185  1.9611  0.2414
 7816SOL     OW32415   7.940   0.612  10.263  0.0111  0.0572 -0.5532
 7816SOL    HW132416   7.868   0.572  10.214 -0.9140 -0.6678  1.2971
 7816SOL    HW232417   7.916   0.705  10.267 -1.0206 -0.2223  0.2970
 7817SOL     OW32418   9.302  12.225   3.445  0.2200 -0.0923 -0.4444
 7817SOL    HW132419   9.326  12.160   3.380  0.1188 -0.6859  0.0967
 7817SOL    HW232420   9.258  12.175   3.514 -1.9294  0.8454 -1.0673
 7818SOL     OW32421   0.563  11.210   0.892 -0.3224 -0.2173  0.0278
 7818SOL    HW132422   0.532  11.186   0.805  0.5692 -0.4045 -0.2492
 7818SOL    HW232423   0.659  11.209   0.885 -0.2385 -0.0048  0.9466
 7819SOL     OW32424  11.473  10.090   4.417  0.4462  0.1392 -0.1811
 7819SOL    HW132425  11.438  10.143   4.345 -0.0630 -0.2803 -0.2441
 7819SOL    HW232426  11.458   9.999   4.389 -0.7348 -0.0319  0.9181
 7820SOL     OW32427   7.253  11.387   2.164  0.0281  0.0633  0.3592
 7820SOL    HW132428   7.293  11.472   2.141  0.2513 -0.4986 -1.4307
 7820SOL    HW232429   7.328  11.328   2.173 -0.1711 -0.1003  0.9618
 7821SOL     OW32430   2.006   9.560  11.910  0.5848  0.0054 -0.4965
 7821SOL    HW132431   2.076   9.582  11.972  0.4692  1.6905 -0.9210
 7821SOL    HW232432   1.927   9.598  11.948  0.3452  0.2478 -1.2187
 7822SOL     OW32433   8.745  11.512   0.537 -0.0182  0.1176  0.3542
 7822SOL    HW132434   8.682  11.464   0.483 -0.0574  0.3041  0.2303
 7822SOL    HW232435   8.695  11.540   0.614 -0.3600  1.1308 -0.2194
 7823SOL     OW32436  10.100   2.219   6.166 -0.4620  0.0166  0.4249
 7823SOL    HW132437  10.098   2.314   6.154 -0.8386 -0.0345  0.0485
 7823SOL    HW232438  10.178   2.190   6.118 -0.6540  0.0782  0.0696
 7824SOL     OW32439   1.095  12.125   1.360  0.1164 -0.2087  0.2676
 7824SOL    HW132440   1.072  12.214   1.384 -0.1032 -0.2812  0.3202
 7824SOL    HW232441   1.087  12.075   1.441 -0.7782 -0.4826  0.0211
 7825SOL     OW32442   3.324   0.478   7.427 -0.0428 -0.3326 -0.4809
 7825SOL    HW132443   3.250   0.419   7.442 -0.0065 -0.4014 -0.5687
 7825SOL    HW232444   3.379   0.432   7.363  0.6554 -0.7794  0.4222
 7826SOL     OW32445   3.721   1.703   3.618  0.1553 -0.5731 -0.2048
 7826SOL    HW132446   3.709   1.787   3.574  0.2236 -0.1946  0.4836
 7826SOL    HW232447   3.815   1.698   3.634  0.0365 -0.3259  0.6191
 7827SOL     OW32448   4.854   3.193   2.258  0.4477  0.7550 -0.4761
 7827SOL    HW132449   4.758   3.187   2.253  0.4709 -1.8721  0.7346
 7827SOL    HW232450   4.877   3.254   2.188 -2.0113  0.3827 -1.7345
 7828SOL     OW32451   5.824   4.303   9.194 -0.0672  0.2217 -0.2215
 7828SOL    HW132452   5.912   4.332   9.169 -1.0686  1.5446 -2.5180
 7828SOL    HW232453   5.784   4.381   9.233 -1.0536  0.4382 -1.6099
 7829SOL     OW32454   4.388   9.389   6.171  0.2044  0.2254 -0.5305
 7829SOL    HW132455   4.352   9.410   6.258 -0.1326  1.9010 -1.0282
 7829SOL    HW232456   4.474   9.431   6.170  0.4546 -0.2895 -0.8062
 7830SOL     OW32457  10.113   6.471   1.397  0.2295 -0.1719  0.0087
 7830SOL    HW132458  10.064   6.428   1.327 -0.7154  2.1861 -0.9217
 7830SOL    HW232459  10.184   6.516   1.351  1.4240 -1.0267  0.9788
 7831SOL     OW32460  10.344   1.335   3.143  0.3308 -0.3921 -0.0960
 7831SOL    HW132461  10.389   1.355   3.225 -1.5321  0.0130  0.8962
 7831SOL    HW232462  10.285   1.409   3.131  0.2212 -0.7024 -1.5508
 7832SOL     OW32463   2.294   6.722   8.674  0.0268  0.0958 -0.6260
 7832SOL    HW132464   2.349   6.647   8.695  1.2683  0.6626 -1.7222
 7832SOL    HW232465   2.324   6.791   8.733  1.1451  0.6630 -1.8078
 7833SOL     OW32466   1.299   3.195   8.357  0.0019 -0.7323 -0.0139
 7833SOL    HW132467   1.379   3.241   8.383 -0.5444  0.1629  0.1419
 7833SOL    HW232468   1.243   3.197   8.434 -0.8137  0.1209 -0.6027
 7834SOL     OW32469   8.476   6.076   7.167 -0.6873 -0.0495  0.5009
 7834SOL    HW132470   8.502   6.158   7.209 -0.2089  0.5029 -0.8197
 7834SOL    HW232471   8.558   6.032   7.148 -0.8538 -0.0273 -0.3328
 7835SOL     OW32472   7.439  10.162   6.127  0.5361  0.3782  0.6131
 7835SOL    HW132473   7.514  10.114   6.092 -0.3015  0.1285 -0.8999
 7835SOL    HW232474   7.476  10.245   6.158  1.2819  0.7782 -1.2298
 7836SOL     OW32475   9.407   2.375   7.796  0.4105  0.3289 -0.2278
 7836SOL    HW132476   9.479   2.374   7.859 -0.0372 -0.0662  0.2852
 7836SOL    HW232477   9.348   2.443   7.828  0.9765  1.2828 -1.1451
 7837SOL     OW32478   1.436   4.516   4.909  0.3333  0.2706  0.9962
 7837SOL    HW132479   1.362   4.473   4.867  0.7753 -0.2328  0.7257
 7837SOL    HW232480   1.431   4.607   4.881 -0.9197  0.5337  1.9972
 7838SOL     OW32481   3.526   7.574  10.312  0.0823 -0.3598 -0.0747
 7838SOL    HW132482   3.445   7.584  10.261  0.4374  1.1641 -0.4058
 7838SOL    HW232483   3.596   7.597  10.251  0.6652 -0.4478  0.5480
 7839SOL     OW32484   9.283   7.830  12.162 -0.2801  0.1356 -0.3420
 7839SOL    HW132485   9.253   7.758  12.106  1.6234 -1.7377  0.8940
 7839SOL    HW232486   9.223   7.828  12.237 -1.0913  0.7878 -0.9606
 7840SOL     OW32487   7.096   1.846   4.297  0.2068 -0.8323  0.3281
 7840SOL    HW132488   7.153   1.879   4.227  0.4736 -2.3716 -0.2192
 7840SOL    HW232489   7.148   1.779   4.341 -1.1070 -2.2477 -0.1583
 7841SOL     OW32490   7.701   2.961   6.484 -0.1857  0.0483  0.4489
 7841SOL    HW132491   7.730   2.881   6.440 -3.1806 -0.5413 -0.7037
 7841SOL    HW232492   7.685   2.935   6.574  0.2109 -0.2535  0.4372
 7842SOL     OW32493  11.326   8.921   9.059 -0.5865 -0.5749 -0.0732
 7842SOL    HW132494  11.378   8.841   9.074  0.2119  0.1370  1.1327
 7842SOL    HW232495  11.388   8.982   9.019 -0.7118  0.0114  0.6170
 7843SOL     OW32496   9.307  11.844   4.973  0.2307 -0.2995 -0.3180
 7843SOL    HW132497   9.241  11.805   5.031  0.2364 -1.3568 -1.0099
 7843SOL    HW232498   9.265  11.845   4.887  1.2394 -1.3205 -0.8385
 7844SOL     OW32499  12.013   9.255   3.830 -0.2802  0.4314 -0.7919
 7844SOL    HW132500  11.972   9.170   3.849  1.1492 -0.3998 -1.2760
 7844SOL    HW232501  11.953   9.319   3.869 -0.9037 -0.8456  0.4734
 7845SOL     OW32502   6.975   0.770   4.281 -0.0656  0.2903  0.1053
 7845SOL    HW132503   7.051   0.762   4.225 -0.7753  0.8593 -0.9833
 7845SOL    HW232504   6.992   0.711   4.354  0.2660 -1.5442 -1.3858
 7846SOL     OW32505   7.631   3.243  12.317 -0.3509  0.2436  0.1939
 7846SOL    HW132506   7.662   3.286  12.237 -0.5596  0.6701  0.3426
 7846SOL    HW232507   7.540   3.271  12.326 -0.1687  0.6508  0.8818
 7847SOL     OW32508  10.180   5.632   6.232 -0.2211  0.5035  0.5899
 7847SOL    HW132509  10.156   5.697   6.166 -0.5192 -1.3507 -1.2170
 7847SOL    HW232510  10.098   5.613   6.278 -0.0520  1.6461  1.4245
 7848SOL     OW32511   2.842  11.192  12.127 -0.2803 -0.1720  0.2665
 7848SOL    HW132512   2.747  11.184  12.137 -0.5190 -0.2259 -1.6827
 7848SOL    HW232513   2.878  11.138  12.197 -1.6271  1.4210  2.3103
 7849SOL     OW32514  10.083  12.559  10.283  0.0762 -0.7043  0.7495
 7849SOL    HW132515  10.036  12.591  10.360 -3.4461 -0.6755 -1.2188
 7849SOL    HW232516  10.092  12.635  10.226  1.6810 -0.9540  0.6183
 7850SOL     OW32517   2.459  10.851   0.037  0.2984  0.3404 -0.0188
 7850SOL    HW132518   2.462  10.796  -0.041  0.8577 -1.1128  0.9735
 7850SOL    HW232519   2.369  10.882   0.042  0.0336 -0.2920 -0.7547
 7851SOL     OW32520   8.929  12.029   2.711  0.4228 -0.3834 -0.1906
 7851SOL    HW132521   8.881  12.059   2.788  1.4447  1.0399 -0.0582
 7851SOL    HW232522   8.862  12.005   2.648 -0.4481  0.4396  0.4011
 7852SOL     OW32523   7.862   3.237   6.085 -0.0307 -0.0624  0.5348
 7852SOL    HW132524   7.821   3.319   6.058  0.4351  0.4942  1.4637
 7852SOL    HW232525   7.825   3.219   6.171 -1.0703 -1.5054 -0.1753
 7853SOL     OW32526   2.296   7.855   2.083 -0.3018 -0.1371  0.3662
 7853SOL    HW132527   2.257   7.780   2.039 -0.9955 -0.0446  0.8043
 7853SOL    HW232528   2.329   7.820   2.166  1.5528 -0.4387 -0.4501
 7854SOL     OW32529   5.532  12.376  11.005  0.1927 -0.3687 -0.4980
 7854SOL    HW132530   5.616  12.375  11.051  0.6060  0.1179 -1.2150
 7854SOL    HW232531   5.524  12.465  10.971 -0.7056 -0.3562 -0.2788
 7855SOL     OW32532   4.410   3.580   0.617  0.3377  0.1954  0.3984
 7855SOL    HW132533   4.358   3.567   0.537 -2.0742 -0.4989  1.9577
 7855SOL    HW232534   4.401   3.497   0.664  0.6286  1.0085  1.9501
 7856SOL     OW32535   3.139   0.943  12.560  0.0712  0.3716  0.2553
 7856SOL    HW132536   3.123   0.875  12.495  1.6630  0.7919 -0.6471
 7856SOL    HW232537   3.203   1.001  12.518  0.0509  1.4596  1.6526
 7857SOL     OW32538   8.337   3.293   9.777 -0.0978  0.1245 -0.2176
 7857SOL    HW132539   8.276   3.328   9.842  1.3296 -0.5702  1.6156
 7857SOL    HW232540   8.315   3.200   9.771  0.9720 -0.2172  0.7614
 7858SOL     OW32541   2.049   0.325  11.019  0.5635 -0.0678 -0.5417
 7858SOL    HW132542   2.035   0.401  10.962  2.5810  0.4017 -0.4958
 7858SOL    HW232543   2.026   0.250  10.964  1.3999  0.4428 -1.6312
 7859SOL     OW32544   0.802  11.493   7.336  0.1315  0.1129 -0.0916
 7859SOL    HW132545   0.793  11.586   7.316  2.5806 -0.0722 -2.6742
 7859SOL    HW232546   0.761  11.448   7.261  3.1574 -0.7482 -1.3550
 7860SOL     OW32547   6.169   9.244   6.851 -0.1019 -0.6226 -0.2689
 7860SOL    HW132548   6.254   9.264   6.812  0.3689 -0.8975  0.5950
 7860SOL    HW232549   6.107   9.248   6.778  0.5858  0.0151 -0.8257
 7861SOL     OW32550   4.398  10.294   7.685  0.3152  0.3636 -0.0247
 7861SOL    HW132551   4.424  10.272   7.595  0.9879 -1.3685  0.5494
 7861SOL    HW232552   4.364  10.212   7.720 -0.5371  1.1809  1.1167
 7862SOL     OW32553  10.478   7.285   8.789  0.1399 -0.2447  0.2280
 7862SOL    HW132554  10.561   7.238   8.780 -0.8166 -2.4942  2.0036
 7862SOL    HW232555  10.503   7.372   8.822  1.8666 -0.0656 -1.3952
 7863SOL     OW32556  11.365   2.841  12.148  0.1927  0.0975 -0.0685
 7863SOL    HW132557  11.280   2.873  12.180 -0.0665 -1.0656  0.4636
 7863SOL    HW232558  11.386   2.768  12.206  1.1264 -0.2086 -0.7752
 7864SOL     OW32559   3.254  11.612   9.363  1.0650  0.3383 -0.4482
 7864SOL    HW132560   3.317  11.578   9.425 -0.5305 -0.0604  1.0450
 7864SOL    HW232561   3.212  11.535   9.325  1.4123  0.5924 -1.3759
 7865SOL     OW32562   3.387   1.237   6.532 -0.0498  0.2531 -0.7712
 7865SOL    HW132563   3.349   1.149   6.537 -0.3541  0.1721 -3.2263
 7865SOL    HW232564   3.394   1.254   6.438  0.7769  2.5384 -0.3438
 7866SOL     OW32565   1.711   7.266   8.650  0.0182  0.0727  0.0575
 7866SOL    HW132566   1.785   7.232   8.701 -0.2780  0.0962  0.5071
 7866SOL    HW232567   1.634   7.229   8.692 -0.2644  0.6402  0.0460
 7867SOL     OW32568   3.742   2.607   6.658  0.2209  0.1235  0.2829
 7867SOL    HW132569   3.695   2.630   6.578  1.9145  1.2128 -0.4676
 7867SOL    HW232570   3.772   2.691   6.694  0.7890 -0.4530  1.2234
 7868SOL     OW32571   5.301   0.467   7.883  0.2934  0.2359  0.3015
 7868SOL    HW132572   5.383   0.516   7.889  1.0605 -0.5303 -2.4517
 7868SOL    HW232573   5.326   0.377   7.902 -0.3280  0.2620  1.3284
 7869SOL     OW32574   7.882  10.446   1.517  0.2883 -0.4919  0.3875
 7869SOL    HW132575   7.899  10.456   1.423 -1.2097  1.0921  0.2226
 7869SOL    HW232576   7.815  10.378   1.522  1.6914 -1.9181  0.5010
 7870SOL     OW32577   1.126   0.954   9.437  0.2006  0.1574 -0.0493
 7870SOL    HW132578   1.042   0.999   9.441 -0.4375 -1.0054  0.1393
 7870SOL    HW232579   1.111   0.882   9.376  1.0048 -0.1815  0.1410
 7871SOL     OW32580   9.537   7.061   6.643  0.2180  0.3587 -0.4550
 7871SOL    HW132581   9.466   7.005   6.672  1.1864  0.2009  1.8407
 7871SOL    HW232582   9.513   7.149   6.672  1.7398  0.0227  2.1648
 7872SOL     OW32583   3.183   7.048   4.544 -0.3730  0.0835  0.0512
 7872SOL    HW132584   3.274   7.042   4.515 -0.5930 -3.3386 -0.4340
 7872SOL    HW232585   3.188   7.074   4.635  1.2660 -1.4800  0.4719
 7873SOL     OW32586   2.775  11.297  10.302  0.2386  0.2461  0.0057
 7873SOL    HW132587   2.720  11.339  10.235 -1.4155  1.1984  1.8735
 7873SOL    HW232588   2.714  11.241  10.350  1.5746 -1.0418  0.2460
 7874SOL     OW32589   6.508   1.942   6.417  0.4876  0.1404  0.4899
 7874SOL    HW132590   6.476   2.007   6.478  0.4270  1.0242 -0.4516
 7874SOL    HW232591   6.515   1.989   6.333  0.7218 -0.9801 -0.1426
 7875SOL     OW32592   5.501  11.720   6.989  0.1275  0.0446  0.3419
 7875SOL    HW132593   5.434  11.751   6.929 -0.0790  0.4411  0.7668
 7875SOL    HW232594   5.453  11.666   7.052  0.0399  1.0613  1.1797
 7876SOL     OW32595   4.246   3.269   9.206 -0.3216 -0.2545  0.1719
 7876SOL    HW132596   4.284   3.339   9.155  1.0671 -0.4500  0.9008
 7876SOL    HW232597   4.177   3.233   9.150  1.0497 -0.3922 -1.5118
 7877SOL     OW32598   6.701  10.297   7.095  0.0133  0.4996 -1.1792
 7877SOL    HW132599   6.767  10.252   7.042 -0.5226 -1.3995 -0.3303
 7877SOL    HW232600   6.625  10.240   7.093 -0.9812  1.7467 -0.6257
 7878SOL     OW32601   6.329  12.029  11.478  0.1312  0.5791  1.1438
 7878SOL    HW132602   6.247  12.045  11.430  0.7503 -0.6645 -0.4094
 7878SOL    HW232603   6.369  12.115  11.487  0.1593  0.8131 -0.9246
 7879SOL     OW32604  12.358   2.138   7.386  0.2503 -0.0844 -0.1218
 7879SOL    HW132605  12.387   2.059   7.341  0.6327  0.4592 -0.8462
 7879SOL    HW232606  12.308   2.105   7.461 -2.3166 -1.0746 -2.0936
 7880SOL     OW32607   1.196   3.957   6.072  1.0708 -0.0922 -0.5196
 7880SOL    HW132608   1.132   4.007   6.123  2.1778 -0.3768  1.2309
 7880SOL    HW232609   1.160   3.957   5.983  0.0312  2.0815 -0.1836
 7881SOL     OW32610  11.220  12.363   7.306  0.2030  0.4294  0.5921
 7881SOL    HW132611  11.281  12.291   7.288  1.6654  1.8494 -0.5089
 7881SOL    HW232612  11.174  12.336   7.386  2.2718 -0.7517  1.4869
 7882SOL     OW32613   5.901  12.033   0.772 -0.0067 -0.0162  0.7017
 7882SOL    HW132614   5.808  12.049   0.754  0.5175  1.1844 -1.3348
 7882SOL    HW232615   5.918  11.948   0.732 -0.4725 -0.8698  2.2356
 7883SOL     OW32616   8.361  12.020   4.478 -0.2057 -0.0473  0.4692
 7883SOL    HW132617   8.447  11.980   4.469 -0.1808  0.2090 -0.5949
 7883SOL    HW232618   8.333  11.998   4.567  0.1770 -1.7002  0.2100
 7884SOL     OW32619   2.954   4.519   4.521  0.1718  0.5898  0.0484
 7884SOL    HW132620   3.023   4.522   4.454  0.7466 -0.6515  0.5427
 7884SOL    HW232621   3.001   4.515   4.604 -0.5184  1.0526  0.4714
 7885SOL     OW32622   1.719   3.237   7.758 -0.3513  0.1328  0.0473
 7885SOL    HW132623   1.743   3.152   7.796 -0.7189 -0.2169 -0.4819
 7885SOL    HW232624   1.693   3.290   7.833  0.4656 -0.0124  0.4558
 7886SOL     OW32625   0.792   2.882   0.680  0.0067  0.1382 -0.0732
 7886SOL    HW132626   0.839   2.957   0.645  1.0911 -1.9722 -3.5766
 7886SOL    HW232627   0.857   2.836   0.733  0.1550  0.1832 -0.2180
 7887SOL     OW32628   6.300   7.872   1.554 -0.2763 -0.3502  0.2191
 7887SOL    HW132629   6.326   7.907   1.468  1.1779 -0.2514  0.6634
 7887SOL    HW232630   6.217   7.828   1.538 -0.2114 -0.0171 -1.1693
 7888SOL     OW32631   2.301  11.477   0.072  0.0009  0.2590  0.3454
 7888SOL    HW132632   2.248  11.398   0.060  0.3027  0.2931 -1.5074
 7888SOL    HW232633   2.269  11.538   0.005  1.0057  1.0423  0.5561
 7889SOL     OW32634   6.601   6.119   7.933  0.7105 -0.1568 -0.2337
 7889SOL    HW132635   6.570   6.061   8.003  0.4321 -1.0526 -1.0699
 7889SOL    HW232636   6.670   6.171   7.973 -1.6750  1.8185  1.7047
 7890SOL     OW32637   2.979   2.723  10.747  0.0174 -0.2603  0.4195
 7890SOL    HW132638   3.002   2.798  10.802 -1.2931  0.3937  0.1076
 7890SOL    HW232639   2.921   2.671  10.802  0.0912 -0.5089  0.2617
 7891SOL     OW32640  11.284   5.935   2.080 -0.2034  0.8818  0.2005
 7891SOL    HW132641  11.255   5.867   2.141 -0.5937  1.2617  0.4429
 7891SOL    HW232642  11.210   5.948   2.022  0.5051 -0.1756 -1.0028
 7892SOL     OW32643   2.456   8.438  11.719  0.0257  0.0370  0.8730
 7892SOL    HW132644   2.414   8.523  11.711  0.7627  0.3036 -0.6724
 7892SOL    HW232645   2.474   8.429  11.812 -0.2726  1.4684  1.0995
 7893SOL     OW32646   8.786   8.421   7.134 -0.4179 -0.4862  0.2863
 7893SOL    HW132647   8.834   8.411   7.216  0.2857  0.6575  0.0350
 7893SOL    HW232648   8.809   8.343   7.084  1.1511 -0.0033  0.2030
 7894SOL     OW32649   2.516   0.569   5.081 -0.2807 -1.1330  0.1728
 7894SOL    HW132650   2.595   0.619   5.101 -0.1744 -0.8654 -0.9137
 7894SOL    HW232651   2.535   0.481   5.114  0.3084 -0.9690  0.2784
 7895SOL     OW32652   1.131   7.861   6.858  0.2008 -0.0341  0.4961
 7895SOL    HW132653   1.221   7.840   6.883  0.0092  0.7536  1.9523
 7895SOL    HW232654   1.103   7.928   6.921 -1.6077 -0.6839  0.4504
 7896SOL     OW32655   2.892  11.216  11.348  0.3767  0.2852  0.5041
 7896SOL    HW132656   2.805  11.255  11.360  1.0097  1.4328  1.6100
 7896SOL    HW232657   2.932  11.218  11.436  1.2929 -0.8018  0.1389
 7897SOL     OW32658   0.940   0.561   6.682  0.2600 -0.6693  0.6479
 7897SOL    HW132659   1.002   0.520   6.742  0.2115 -0.2358  0.9950
 7897SOL    HW232660   0.859   0.510   6.691  0.4817 -1.0782  0.3809
 7898SOL     OW32661   5.535   8.408   8.324  0.0263 -0.4898 -0.2654
 7898SOL    HW132662   5.597   8.476   8.299  1.7301 -1.0106  2.2102
 7898SOL    HW232663   5.449   8.451   8.321  1.0097  1.7021  0.9759
 7899SOL     OW32664   7.972  10.630   0.284 -0.0615  0.4683 -0.5778
 7899SOL    HW132665   8.030  10.577   0.231 -0.5406 -0.9837  0.2878
 7899SOL    HW232666   7.884  10.606   0.256 -0.3316 -0.4476  0.9208
 7900SOL     OW32667  11.829   8.431   4.380  0.3371  0.0930 -0.2389
 7900SOL    HW132668  11.812   8.485   4.457  1.4450 -0.6462  0.5644
 7900SOL    HW232669  11.751   8.377   4.371  1.0727 -1.4988  1.8632
 7901SOL     OW32670   6.100   7.203   4.516  0.0157  0.4186 -0.0256
 7901SOL    HW132671   6.144   7.187   4.433 -1.1241 -1.7209 -0.2921
 7901SOL    HW232672   6.100   7.118   4.561 -0.1849  1.3119  1.7850
 7902SOL     OW32673   4.534   4.239  11.888  0.4306  0.0762 -0.5772
 7902SOL    HW132674   4.605   4.296  11.860 -0.3246  0.5080 -1.6572
 7902SOL    HW232675   4.569   4.151  11.881  1.3771  0.3476  0.4477
 7903SOL     OW32676  12.000  11.176   4.784  0.3146  0.2045 -0.1076
 7903SOL    HW132677  11.984  11.101   4.727  0.2486  0.0584  0.0990
 7903SOL    HW232678  12.038  11.243   4.727  0.0934  0.1217 -0.3559
 7904SOL     OW32679   5.699   0.950  11.056  0.2771  0.2442 -0.0633
 7904SOL    HW132680   5.764   0.895  11.013  0.7181 -0.1394  1.0726
 7904SOL    HW232681   5.634   0.968  10.988  1.2276  0.0966 -1.0310
 7905SOL     OW32682   9.548   7.990   9.239  0.0024 -0.4639  0.4858
 7905SOL    HW132683   9.572   8.059   9.302  0.7052 -0.2262 -0.0262
 7905SOL    HW232684   9.629   7.941   9.225 -0.2140 -0.6833 -0.0258
 7906SOL     OW32685   0.737   4.747   4.406  0.1482  0.6959  0.1360
 7906SOL    HW132686   0.699   4.659   4.395 -0.1400  1.1137 -2.9015
 7906SOL    HW232687   0.705   4.776   4.492 -0.1812 -1.9273  0.9909
 7907SOL     OW32688   3.481   2.361   2.765  0.2239  0.5115 -0.6379
 7907SOL    HW132689   3.501   2.353   2.858  1.0791 -0.8706 -0.9159
 7907SOL    HW232690   3.562   2.395   2.726 -0.0645  0.8956 -0.9073
 7908SOL     OW32691   6.321   1.533   2.554  0.3341 -0.4422  0.3147
 7908SOL    HW132692   6.259   1.470   2.519  0.2636 -0.1822 -0.0259
 7908SOL    HW232693   6.286   1.619   2.530  0.9203 -0.2984 -0.0538
 7909SOL     OW32694   2.579   1.007  10.651  0.1878  0.3969  0.3387
 7909SOL    HW132695   2.600   1.048  10.567  1.0772 -0.3619  0.1814
 7909SOL    HW232696   2.603   0.915  10.640 -0.5304  0.0952  1.1335
 7910SOL     OW32697  10.680  10.258  10.585  0.4351  0.0522 -0.1700
 7910SOL    HW132698  10.719  10.316  10.650  1.5257 -0.5826 -0.2258
 7910SOL    HW232699  10.712  10.290  10.501 -1.9514  1.6348 -0.5773
 7911SOL     OW32700  12.454   6.143   4.104  0.3218  0.1277  0.2130
 7911SOL    HW132701  12.408   6.065   4.072 -0.8622  0.1868  1.6395
 7911SOL    HW232702  12.545   6.116   4.112  0.0898 -0.8160 -0.2135
 7912SOL     OW32703   0.062   6.216  12.400  0.5495 -0.3967  0.1935
 7912SOL    HW132704   0.040   6.298  12.357  1.3435  0.1673  0.8344
 7912SOL    HW232705   0.143   6.234  12.446  0.8754 -1.6237  0.1347
 7913SOL     OW32706  10.227   9.725   6.151 -0.5726  0.0170 -0.0084
 7913SOL    HW132707  10.281   9.710   6.074 -0.6076 -3.9082  0.4978
 7913SOL    HW232708  10.277   9.786   6.205  0.2844  1.4113 -2.2439
 7914SOL     OW32709   1.363   3.994   8.230 -0.1694 -0.0479  0.0853
 7914SOL    HW132710   1.402   4.042   8.304 -1.9899  0.9942  0.4505
 7914SOL    HW232711   1.346   3.907   8.265  0.1204  0.0582  0.5068
 7915SOL     OW32712   6.527   6.090   5.482 -0.4091 -0.4957  0.0411
 7915SOL    HW132713   6.582   6.025   5.525  0.7090  1.7726  2.3374
 7915SOL    HW232714   6.514   6.158   5.548 -4.6172 -0.0674 -0.9659
 7916SOL     OW32715   4.076   8.980   4.701  0.1771  0.3172 -0.6429
 7916SOL    HW132716   4.166   9.000   4.675  1.2655  0.9350  3.0142
 7916SOL    HW232717   4.035   9.066   4.711  0.5104  0.2652  1.5966
 7917SOL     OW32718   5.242   6.759   5.456 -0.1513  0.4403  0.1918
 7917SOL    HW132719   5.333   6.731   5.467 -0.1938  0.1465 -0.1940
 7917SOL    HW232720   5.239   6.847   5.494 -0.3004 -0.5296  2.6047
 7918SOL     OW32721   0.729   0.092   7.118 -0.2805  0.1861  0.2036
 7918SOL    HW132722   0.744   0.060   7.207  1.2133  0.7126  0.1869
 7918SOL    HW232723   0.678   0.023   7.076 -0.2492 -0.4850  1.2118
 7919SOL     OW32724   6.821  12.377   1.352 -0.1834 -0.1645 -0.2902
 7919SOL    HW132725   6.820  12.304   1.415  0.9199 -0.7026 -0.8685
 7919SOL    HW232726   6.914  12.398   1.341 -0.3841  0.1909 -1.4315
 7920SOL     OW32727   5.247  12.063  11.867  0.1329  0.5249  0.0710
 7920SOL    HW132728   5.313  12.069  11.936  0.0639  1.1535  0.0859
 7920SOL    HW232729   5.194  12.142  11.877  0.0292  0.5496 -0.6097
 7921SOL     OW32730   9.417   2.242   9.868  0.2457 -0.3873 -0.5594
 7921SOL    HW132731   9.333   2.264   9.828  0.4320  0.7633 -0.3640
 7921SOL    HW232732   9.454   2.327   9.893  2.2311 -0.7015 -2.1532
 7922SOL     OW32733   1.410   3.236   9.297  0.5228 -0.0869  0.0752
 7922SOL    HW132734   1.438   3.220   9.387  1.6498 -0.9940 -0.4034
 7922SOL    HW232735   1.314   3.235   9.301  0.5538 -0.7969  1.1518
 7923SOL     OW32736  10.600   7.782   4.318 -0.1608  0.0492  0.1208
 7923SOL    HW132737  10.622   7.709   4.376 -0.1028  0.4885  0.6721
 7923SOL    HW232738  10.604   7.746   4.230  2.1584 -0.0607  0.2045
 7924SOL     OW32739  10.286   3.102   0.864  0.4605 -0.2420  0.2149
 7924SOL    HW132740  10.298   3.024   0.809  0.8846  0.0009 -0.0431
 7924SOL    HW232741  10.288   3.175   0.802 -1.1868 -0.0891  0.2879
 7925SOL     OW32742   6.682  11.281   9.506  0.2748 -0.1132  0.2058
 7925SOL    HW132743   6.611  11.319   9.455  0.9046 -1.4166 -1.7470
 7925SOL    HW232744   6.639  11.234   9.577 -0.8023 -0.5647 -0.7195
 7926SOL     OW32745   8.705  11.170   5.476  0.1324 -0.1420  0.2913
 7926SOL    HW132746   8.686  11.217   5.395 -1.0760 -0.1172  0.5756
 7926SOL    HW232747   8.620  11.158   5.518  0.7648  0.1479  1.7367
 7927SOL     OW32748  10.016   1.835   9.365  0.0718 -0.5350  0.7271
 7927SOL    HW132749  10.111   1.839   9.377  0.0553  0.0516  0.7044
 7927SOL    HW232750   9.997   1.742   9.351  0.6604 -0.6380  0.5886
 7928SOL     OW32751   7.396   1.609  10.478  0.1638 -0.0913 -0.6002
 7928SOL    HW132752   7.455   1.555  10.530 -0.3933 -0.1843 -0.0544
 7928SOL    HW232753   7.356   1.548  10.416  0.0817 -0.1718 -0.4695
 7929SOL     OW32754   7.942   0.158  11.839 -0.1713 -0.0608  0.0894
 7929SOL    HW132755   7.893   0.108  11.774 -0.4755  0.0227  0.2515
 7929SOL    HW232756   7.921   0.249  11.821 -0.7519 -0.0629  0.6832
 7930SOL     OW32757   5.167   3.803   3.308  0.0368  0.2584 -0.4571
 7930SOL    HW132758   5.072   3.797   3.297 -0.2515 -2.5747  2.1845
 7930SOL    HW232759   5.184   3.897   3.314 -2.5058  0.8679 -1.5230
 7931SOL     OW32760  11.243   2.069   7.362 -0.5266  0.4600  0.7867
 7931SOL    HW132761  11.219   2.053   7.271 -1.6341  0.9386  0.9817
 7931SOL    HW232762  11.207   1.994   7.410  0.4662 -0.0358  0.7852
 7932SOL     OW32763   7.513  12.556   4.584  0.1757 -0.1362 -0.0448
 7932SOL    HW132764   7.502  12.532   4.677  0.2948  0.6267  0.1725
 7932SOL    HW232765   7.588  12.615   4.583 -1.0590  1.5052 -0.3273
 7933SOL     OW32766   5.701   0.045   0.214  0.5233 -0.4596 -0.1586
 7933SOL    HW132767   5.777   0.094   0.182 -0.0194  1.0085  0.7168
 7933SOL    HW232768   5.737  -0.019   0.274  1.2620 -1.2595 -1.4088
 7934SOL     OW32769   9.280   5.337   9.947  0.2165  1.1781  0.3173
 7934SOL    HW132770   9.363   5.330   9.994  1.4845 -1.6946 -2.0209
 7934SOL    HW232771   9.306   5.351   9.856 -1.8849  0.7419 -0.3874
 7935SOL     OW32772   9.769   7.837   9.504 -0.3599  0.2627  0.2129
 7935SOL    HW132773   9.783   7.763   9.446  0.7268  0.1723  0.5623
 7935SOL    HW232774   9.675   7.835   9.525  0.0111 -2.4654  2.0982
 7936SOL     OW32775  10.138   0.409   2.567 -0.4645  0.0641 -0.2346
 7936SOL    HW132776  10.169   0.357   2.493  0.8794  0.2152  0.1909
 7936SOL    HW232777  10.125   0.345   2.637 -2.3318 -0.1622 -0.7602
 7937SOL     OW32778   3.148   7.032   9.166 -0.3877  0.0492  0.2704
 7937SOL    HW132779   3.164   7.021   9.072 -1.1038 -0.0308  0.1589
 7937SOL    HW232780   3.055   7.053   9.173 -0.8214 -1.8801  1.1049
 7938SOL     OW32781   6.481  10.577   0.919 -0.3952 -0.0535 -0.3194
 7938SOL    HW132782   6.468  10.587   1.014  2.0554 -0.4065  0.1207
 7938SOL    HW232783   6.471  10.666   0.885 -0.4986  0.2134  0.3830
 7939SOL     OW32784   5.666   5.892  12.192  0.0995  0.4283 -0.4666
 7939SOL    HW132785   5.686   5.964  12.133 -0.8276  1.4363  0.4098
 7939SOL    HW232786   5.700   5.814  12.148  1.0445  1.3810 -1.4629
 7940SOL     OW32787   0.876   1.161   0.594  0.0272 -0.6732  0.3871
 7940SOL    HW132788   0.866   1.081   0.542  1.3230 -1.5597  1.4543
 7940SOL    HW232789   0.954   1.146   0.647  0.7777  1.6250  0.0540
 7941SOL     OW32790   4.218   4.290  10.017  0.3005 -0.2363  0.1086
 7941SOL    HW132791   4.279   4.227  10.055  0.9379 -1.1694 -2.2748
 7941SOL    HW232792   4.133   4.245  10.021  0.1920  0.0266  1.1242
 7942SOL     OW32793   2.628   9.566  10.339  0.0010 -0.1697 -0.0867
 7942SOL    HW132794   2.653   9.550  10.430 -0.1404 -2.2490 -0.3589
 7942SOL    HW232795   2.708   9.550  10.288 -0.0182  0.5911 -0.3687
 7943SOL     OW32796   7.614   2.527  11.977  0.1499  0.4653 -0.0973
 7943SOL    HW132797   7.697   2.571  11.995 -0.0162  0.7062  0.0746
 7943SOL    HW232798   7.639   2.436  11.959  0.3852  0.3750  0.6505
 7944SOL     OW32799   0.687   7.364  10.698 -0.5105 -0.3461  0.2043
 7944SOL    HW132800   0.634   7.341  10.774 -0.9120 -1.2411 -0.3357
 7944SOL    HW232801   0.640   7.436  10.657  1.1022  2.1158  2.2846
 7945SOL     OW32802   8.275   2.872   9.273  0.1986  0.3325  0.0708
 7945SOL    HW132803   8.332   2.798   9.293 -1.0914 -0.7694 -0.1761
 7945SOL    HW232804   8.320   2.948   9.311  1.5344 -0.5673  0.3573
 7946SOL     OW32805   7.551   8.254   3.700  0.5293 -0.0026  0.5497
 7946SOL    HW132806   7.624   8.314   3.685 -0.5787  1.5364  1.0505
 7946SOL    HW232807   7.584   8.169   3.672  2.1123  0.8529 -0.3480
 7947SOL     OW32808  10.917  12.322   7.493  0.2974  0.1940  0.5596
 7947SOL    HW132809  10.830  12.319   7.533 -0.0437  1.9943  0.0449
 7947SOL    HW232810  10.977  12.330   7.566 -0.1548  1.2629  0.8221
 7948SOL     OW32811   5.473   4.797   8.468  0.6282  0.6038  0.4824
 7948SOL    HW132812   5.472   4.801   8.564 -0.0410  2.0373  0.4368
 7948SOL    HW232813   5.381   4.796   8.443  0.7902 -0.3359 -0.1591
 7949SOL     OW32814  11.799  10.436   0.056  0.2254  0.0071 -0.2271
 7949SOL    HW132815  11.778  10.344   0.071  1.9941 -0.4221 -0.1444
 7949SOL    HW232816  11.885  10.447   0.095  0.6347  1.3724 -1.4355
 7950SOL     OW32817   9.959   1.109   4.180  0.5381 -0.3126  0.1838
 7950SOL    HW132818   9.886   1.048   4.191  0.0339  0.4223  1.1938
 7950SOL    HW232819   9.987   1.128   4.270  1.3384  0.1485 -0.1569
 7951SOL     OW32820   7.604   7.059   2.059 -0.3457 -0.1427  0.4149
 7951SOL    HW132821   7.634   7.030   1.973  0.7982  0.7625  0.4763
 7951SOL    HW232822   7.606   6.981   2.114 -2.4420 -1.0362 -0.7045
 7952SOL     OW32823   6.088   7.202   9.969 -0.6735  0.3301  0.2883
 7952SOL    HW132824   6.137   7.121   9.955 -2.5803 -0.7704 -0.3840
 7952SOL    HW232825   6.094   7.248   9.886  1.3298  1.4580  1.0053
 7953SOL     OW32826  12.486   2.528   0.831  0.7334  0.6291  0.1323
 7953SOL    HW132827  12.518   2.550   0.743  2.8957 -0.5127  0.5712
 7953SOL    HW232828  12.393   2.550   0.828  0.3448 -0.8282 -2.9714
 7954SOL     OW32829   8.594  11.881   2.441 -0.2661 -0.1191  0.4035
 7954SOL    HW132830   8.614  11.799   2.397 -2.3992 -1.0661  1.0410
 7954SOL    HW232831   8.593  11.858   2.534 -1.9063  0.3372  0.5308
 7955SOL     OW32832   5.379   9.952  11.686  0.4888  0.3626 -0.2207
 7955SOL    HW132833   5.321   9.875  11.688 -1.7911  1.9746  1.8444
 7955SOL    HW232834   5.320  10.027  11.696  2.7925  2.2771 -0.1147
 7956SOL     OW32835   6.466   3.474   2.042  1.0801  0.0581  0.3094
 7956SOL    HW132836   6.412   3.546   2.011 -1.1334 -0.3708  2.8324
 7956SOL    HW232837   6.506   3.438   1.962 -1.1181  1.3879 -1.5120
 7957SOL     OW32838   9.787   3.322   1.743 -0.7278  0.3765  0.0610
 7957SOL    HW132839   9.728   3.263   1.791 -1.0786  0.0519 -0.7463
 7957SOL    HW232840   9.786   3.403   1.793  0.3537 -0.5192  1.6355
 7958SOL     OW32841   1.388   3.129   0.416  0.1179 -0.3895  0.3329
 7958SOL    HW132842   1.438   3.115   0.497  0.6524 -0.9464 -0.0787
 7958SOL    HW232843   1.337   3.208   0.432  1.6427  0.5845  0.5370
 7959SOL     OW32844  11.200   8.190   7.509 -0.6172 -0.2020 -0.1027
 7959SOL    HW132845  11.162   8.217   7.593 -1.9985 -0.7679 -0.5014
 7959SOL    HW232846  11.127   8.146   7.464  0.3139 -0.5836 -1.2794
 7960SOL     OW32847  11.148   0.630   4.639  0.1081 -0.2093  0.0069
 7960SOL    HW132848  11.172   0.583   4.559 -0.1076 -0.0759 -0.1363
 7960SOL    HW232849  11.062   0.595   4.663 -0.2022  0.3379 -0.2806
 7961SOL     OW32850   7.494   0.972   4.388  0.4900  0.6318  0.0981
 7961SOL    HW132851   7.398   0.972   4.395  0.5390  0.7928  0.8434
 7961SOL    HW232852   7.524   1.003   4.473  1.2242 -0.3218  0.2075
 7962SOL     OW32853  12.111   0.454   1.932  0.3722  0.7108  0.0077
 7962SOL    HW132854  12.033   0.470   1.880 -0.5486  0.3520  1.2433
 7962SOL    HW232855  12.083   0.464   2.023  0.9802 -2.4500  0.6678
 7963SOL     OW32856   1.729   1.349  11.142  0.1748  0.3398  0.3972
 7963SOL    HW132857   1.730   1.440  11.112 -1.0784 -0.0427 -0.9489
 7963SOL    HW232858   1.770   1.300  11.070 -2.1079 -0.5113 -0.4177
 7964SOL     OW32859   9.186   4.946   5.400 -0.1523  0.0038  0.1553
 7964SOL    HW132860   9.206   5.038   5.384  2.2325 -0.6827 -1.3804
 7964SOL    HW232861   9.231   4.899   5.330 -0.1664 -2.4416  1.6568
 7965SOL     OW32862   8.976  10.738   7.446 -0.6255  0.4854  0.5588
 7965SOL    HW132863   9.055  10.776   7.408 -0.8255 -0.0843 -0.4492
 7965SOL    HW232864   9.007  10.662   7.496 -0.1927  2.0493  2.8029
 7966SOL     OW32865   2.050  10.913  11.673 -0.9600  0.3686  0.3006
 7966SOL    HW132866   1.963  10.895  11.635  0.0115 -2.1842 -1.0187
 7966SOL    HW232867   2.103  10.938  11.598 -0.4551  1.5636  1.0466
 7967SOL     OW32868   0.313  10.914   1.653 -0.5248 -0.5528  0.0597
 7967SOL    HW132869   0.237  10.967   1.676 -0.5824 -0.5002 -0.2449
 7967SOL    HW232870   0.310  10.908   1.558 -0.1640 -0.5742  0.0478
 7968SOL     OW32871  12.021   9.291  11.894 -0.4134  0.1571  0.3343
 7968SOL    HW132872  11.952   9.271  11.956 -0.5356 -1.2194 -0.2114
 7968SOL    HW232873  11.978   9.344  11.826 -0.6004  0.4647  0.6899
 7969SOL     OW32874   6.917   7.806  12.280  0.5613 -0.0326 -0.4151
 7969SOL    HW132875   7.009   7.795  12.301  0.5511  2.2650  1.2351
 7969SOL    HW232876   6.871   7.784  12.362 -0.6558 -3.3891 -1.8074
 7970SOL     OW32877  10.813   7.089   1.101  0.5468  0.4460  0.0445
 7970SOL    HW132878  10.751   7.017   1.087 -0.0162  1.1049 -0.9496
 7970SOL    HW232879  10.899   7.048   1.092  0.2802 -0.4769  1.4355
 7971SOL     OW32880  12.152   7.868   2.051  0.1574 -0.0885 -0.0749
 7971SOL    HW132881  12.127   7.803   2.117  1.3620 -0.7549 -0.2496
 7971SOL    HW232882  12.205   7.932   2.099  1.4193 -0.8163 -0.4414
 7972SOL     OW32883   0.116   9.941   9.047  0.7382 -0.0420  0.0694
 7972SOL    HW132884   0.120   9.910   8.957  0.8150 -1.0454  0.3928
 7972SOL    HW232885   0.171   9.879   9.096 -0.1342 -0.1448  0.9614
 7973SOL     OW32886   7.837   4.002   4.319  0.4780  0.2917 -0.3146
 7973SOL    HW132887   7.833   4.096   4.303 -1.3487  0.3407  0.1551
 7973SOL    HW232888   7.785   3.989   4.399 -0.4170 -1.2602 -1.0990
 7974SOL     OW32889  10.076   3.120   8.731 -0.2845  0.4025  0.5114
 7974SOL    HW132890  10.074   3.142   8.825  0.3652 -0.3107  0.7046
 7974SOL    HW232891  10.006   3.056   8.720 -0.4873  0.6283  0.4641
 7975SOL     OW32892   2.024  10.164   9.067  0.9405  0.1360  0.5104
 7975SOL    HW132893   2.009  10.243   9.015  1.2356 -0.4787 -0.5355
 7975SOL    HW232894   2.100  10.123   9.027 -0.2539 -1.5942 -0.1027
 7976SOL     OW32895   4.435   1.634   5.608 -0.0958 -0.2631 -0.5679
 7976SOL    HW132896   4.497   1.614   5.539  0.6659  0.0562  0.0044
 7976SOL    HW232897   4.460   1.722   5.638  0.9478 -1.1755  1.4976
 7977SOL     OW32898  11.998   5.131   3.640 -0.1182  0.0852  0.0209
 7977SOL    HW132899  12.023   5.056   3.585 -2.6145 -0.8618  0.0545
 7977SOL    HW232900  12.019   5.208   3.587  0.1924 -0.7147 -1.0609
 7978SOL     OW32901   8.701   8.368   4.319  0.0619  0.3605  0.1891
 7978SOL    HW132902   8.727   8.276   4.327 -0.8598  0.1538  0.9393
 7978SOL    HW232903   8.704   8.401   4.409  1.7872  1.4804 -0.2180
 7979SOL     OW32904  10.662   6.473  12.219 -0.3892  0.6773  0.3254
 7979SOL    HW132905  10.747   6.437  12.244 -1.1291 -3.2693 -1.9072
 7979SOL    HW232906  10.599   6.427  12.275 -1.2821  0.3302 -0.9221
 7980SOL     OW32907  10.293  11.079  11.516 -0.9609  0.2664 -0.2359
 7980SOL    HW132908  10.311  10.986  11.510 -0.9761  0.2542 -0.0797
 7980SOL    HW232909  10.211  11.091  11.468 -1.1974  0.1309  0.1319
 7981SOL     OW32910  10.403   3.350   4.909 -0.2582 -0.5390 -0.3776
 7981SOL    HW132911  10.360   3.372   4.992 -0.7217 -0.8684 -0.5242
 7981SOL    HW232912  10.344   3.287   4.868  0.7153 -1.5333 -0.2748
 7982SOL     OW32913   7.767   6.023   2.716  0.2008  0.1589  0.3706
 7982SOL    HW132914   7.680   6.027   2.756 -0.8459  0.9714 -1.8665
 7982SOL    HW232915   7.813   6.098   2.752 -0.6954  0.8369  0.1539
 7983SOL     OW32916   7.085   3.448   3.703 -0.3471 -0.2537  0.6280
 7983SOL    HW132917   7.088   3.497   3.620 -0.0166 -1.0725  0.1443
 7983SOL    HW232918   7.031   3.372   3.683  0.7667 -1.1122  0.7940
 7984SOL     OW32919   9.463   8.604   8.701  0.1919  0.4048  0.7226
 7984SOL    HW132920   9.533   8.617   8.766  0.9936  0.0539 -0.0634
 7984SOL    HW232921   9.505   8.617   8.617 -1.4839  4.0923  0.2667
 7985SOL     OW32922   7.304   8.128   6.304 -0.3803 -0.3322 -0.3622
 7985SOL    HW132923   7.389   8.091   6.330  0.4047  1.0091 -0.8948
 7985SOL    HW232924   7.315   8.222   6.317 -2.0706 -0.1957  0.2803
 7986SOL     OW32925   4.296   1.469   7.214 -0.3774 -0.1969  0.0389
 7986SOL    HW132926   4.253   1.490   7.131  0.2243 -1.8670 -0.7592
 7986SOL    HW232927   4.385   1.445   7.188 -0.3079 -1.1529  1.1120
 7987SOL     OW32928   2.310   9.866  10.903  0.2258  0.3345 -0.4556
 7987SOL    HW132929   2.383   9.871  10.841 -0.2535  1.3654 -0.9652
 7987SOL    HW232930   2.246   9.810  10.860  1.5834 -2.5584  0.9814
 7988SOL     OW32931   2.155   5.525   8.119  0.4662 -0.3322  0.2261
 7988SOL    HW132932   2.075   5.536   8.068  1.5605  0.0010 -1.5006
 7988SOL    HW232933   2.209   5.467   8.065  1.7243  0.1253  0.9709
 7989SOL     OW32934   9.586   5.813   9.314  0.2880  0.0175 -0.0604
 7989SOL    HW132935   9.677   5.830   9.291  0.4601  0.0343  0.6089
 7989SOL    HW232936   9.538   5.885   9.274  0.8596  1.3890  1.5898
 7990SOL     OW32937   7.689   2.388   5.189  0.2758  0.0758 -0.6243
 7990SOL    HW132938   7.616   2.333   5.160  0.2713 -1.3340  1.7982
 7990SOL    HW232939   7.759   2.368   5.127 -0.2455 -1.4604 -0.7626
 7991SOL     OW32940   3.305   1.027   7.191  0.0624 -0.6739 -0.3745
 7991SOL    HW132941   3.276   0.990   7.108  1.3773 -0.9642 -0.7142
 7991SOL    HW232942   3.295   1.121   7.181  1.1183 -0.6396 -1.2257
 7992SOL     OW32943   0.374   6.586  12.427 -0.6443  1.0920 -0.2333
 7992SOL    HW132944   0.365   6.531  12.349  0.1944  1.4768 -0.6159
 7992SOL    HW232945   0.395   6.673  12.393  2.8688  0.6579  0.4080
 7993SOL     OW32946   9.684   4.796   1.381 -0.4024 -0.3362 -0.5241
 7993SOL    HW132947   9.708   4.856   1.310 -0.2949 -0.3918 -0.5342
 7993SOL    HW232948   9.622   4.735   1.341  0.9545 -1.4273 -1.0215
 7994SOL     OW32949   5.090   7.595   0.248 -0.0356 -0.0089 -0.0310
 7994SOL    HW132950   5.131   7.512   0.223  2.0503  1.1133 -0.5533
 7994SOL    HW232951   5.140   7.625   0.324 -0.5738  0.8987 -0.0215
 7995SOL     OW32952   4.562   5.366   7.805 -0.5564 -0.0634 -0.2422
 7995SOL    HW132953   4.581   5.427   7.876 -1.1012  0.1257 -0.2508
 7995SOL    HW232954   4.467   5.358   7.805 -0.5020 -0.8019 -0.3411
 7996SOL     OW32955   9.947   3.077   6.462  0.2972 -0.0272 -0.2764
 7996SOL    HW132956   9.864   3.108   6.500  0.5918 -0.8177  1.0864
 7996SOL    HW232957  10.014   3.132   6.503  0.6109 -0.8172  0.3119
 7997SOL     OW32958  11.891   7.205   0.198 -0.1739  0.2654  0.0529
 7997SOL    HW132959  11.936   7.261   0.262  0.2598  2.1128 -1.7782
 7997SOL    HW232960  11.817   7.257   0.168 -1.0247 -1.0293 -0.1593
 7998SOL     OW32961   2.423   3.060   4.661  0.2750  0.1925 -0.2105
 7998SOL    HW132962   2.381   3.121   4.721 -0.7836 -0.5357 -0.1942
 7998SOL    HW232963   2.360   2.988   4.650  2.5055 -2.3207  1.9165
 7999SOL     OW32964   8.314   9.902  12.195 -0.2012 -0.1236  0.6515
 7999SOL    HW132965   8.390   9.959  12.187 -0.5848  0.1361 -1.6123
 7999SOL    HW232966   8.351   9.815  12.211  0.5403  0.1184  0.2771
 8000SOL     OW32967   3.976  11.046   3.268  0.0134 -0.0722 -0.0385
 8000SOL    HW132968   3.953  11.059   3.176  0.6153  1.2231 -0.0199
 8000SOL    HW232969   3.896  11.065   3.316 -0.8338 -2.4851 -0.3491
 8001SOL     OW32970   3.487   9.810   0.780 -0.1677 -0.2499  0.2462
 8001SOL    HW132971   3.454   9.866   0.710  0.0246 -0.0624  0.3088
 8001SOL    HW232972   3.581   9.825   0.781 -0.4388  1.8196  2.3448
 8002SOL     OW32973  12.168   5.176  10.098  1.1315  0.3186 -0.6524
 8002SOL    HW132974  12.119   5.240  10.047  0.0514  1.1200  1.2942
 8002SOL    HW232975  12.109   5.101  10.107  0.7078  0.7793  0.6260
 8003SOL     OW32976   8.514   3.512   8.198  1.0599 -0.2563  0.1957
 8003SOL    HW132977   8.535   3.482   8.110  0.2794 -0.3366  0.0294
 8003SOL    HW232978   8.584   3.573   8.221  0.6407  0.6511 -0.9235
 8004SOL     OW32979   1.362   8.022   6.942 -0.0364 -0.2031  0.1638
 8004SOL    HW132980   1.359   8.002   7.036  0.1461 -1.5102 -0.0849
 8004SOL    HW232981   1.406   7.947   6.903 -0.9912 -0.1472 -1.0915
 8005SOL     OW32982   4.703   5.831  12.010  0.4021 -0.5243 -0.1675
 8005SOL    HW132983   4.611   5.811  11.995  0.6859 -1.1020 -1.3113
 8005SOL    HW232984   4.745   5.812  11.926  1.4951  0.1467  0.2039
 8006SOL     OW32985   3.357  11.949   2.758  0.2087  0.2278 -0.7302
 8006SOL    HW132986   3.274  11.994   2.741  0.2173  0.6177  0.2003
 8006SOL    HW232987   3.396  11.997   2.832 -0.7336 -2.5104  1.7113
 8007SOL     OW32988  12.363   6.002  10.014  0.3016  0.3516 -0.1857
 8007SOL    HW132989  12.413   6.063  10.069  1.3373 -1.4037  0.9304
 8007SOL    HW232990  12.323   5.942  10.077  1.0331 -1.3615 -1.2974
 8008SOL     OW32991  11.785  10.356   7.740  0.0824  0.6553 -0.2234
 8008SOL    HW132992  11.733  10.357   7.660 -1.6833  0.0203  0.8403
 8008SOL    HW232993  11.739  10.294   7.797  2.1159 -0.0577  0.7561
 8009SOL     OW32994  12.594   5.091   6.411 -0.1418 -0.6952  0.0635
 8009SOL    HW132995  12.618   5.063   6.323 -0.3421 -1.1781  0.1580
 8009SOL    HW232996  12.523   5.154   6.398 -0.3564 -0.9697 -0.1116
 8010SOL     OW32997  10.699  10.659   9.305 -0.0166  0.2597  0.6583
 8010SOL    HW132998  10.754  10.617   9.239 -0.2382  1.8916 -0.6056
 8010SOL    HW232999  10.758  10.671   9.380  1.0889  1.0752 -0.3085
 8011SOL     OW33000   7.999   6.633  10.097  0.0086  0.1451  0.1813
 8011SOL    HW133001   7.992   6.693  10.022 -1.4256  3.0138  2.4023
 8011SOL    HW233002   8.085   6.652  10.134  1.6933 -2.8671 -1.8110
 8012SOL     OW33003   2.145   9.929   0.558  0.2583 -0.6986 -0.4480
 8012SOL    HW133004   2.188   9.993   0.502 -0.0085 -0.7053 -0.6662
 8012SOL    HW233005   2.208   9.911   0.628 -0.4767  1.3804  0.8364
 8013SOL     OW33006   9.789   0.541   9.152 -0.0697  0.1886 -0.7365
 8013SOL    HW133007   9.775   0.490   9.072 -3.2816  0.2814 -0.3788
 8013SOL    HW233008   9.762   0.629   9.129 -0.0288  0.4473  0.1691
 8014SOL     OW33009   5.409   8.407   0.551 -0.1854 -0.4385  0.1437
 8014SOL    HW133010   5.449   8.388   0.467  0.6529  1.0303  0.1734
 8014SOL    HW233011   5.391   8.321   0.589  0.4919 -1.1246 -1.0246
 8015SOL     OW33012   4.027   2.284  12.113 -0.4459 -0.1698 -0.5795
 8015SOL    HW133013   3.980   2.289  12.196 -1.2892  1.2837 -1.1060
 8015SOL    HW233014   4.059   2.194  12.109 -2.1282 -0.8583  0.3643
 8016SOL     OW33015   6.409   7.279   0.417 -0.2217 -0.3435 -0.0820
 8016SOL    HW133016   6.435   7.363   0.381 -1.2731 -0.4887 -1.2147
 8016SOL    HW233017   6.489   7.245   0.457  0.2229  1.1545  0.3591
 8017SOL     OW33018   7.940  10.639   9.371  0.2247  0.3885 -0.3343
 8017SOL    HW133019   7.896  10.675   9.294 -1.2735 -0.9448 -0.1496
 8017SOL    HW233020   7.904  10.551   9.380  1.1149  0.1607  1.3194
 8018SOL     OW33021   5.444   7.739   7.293 -0.2427 -0.0675 -0.1904
 8018SOL    HW133022   5.480   7.721   7.207 -1.0135 -0.9529 -0.3360
 8018SOL    HW233023   5.371   7.800   7.277 -1.3898 -1.4442 -0.3609
 8019SOL     OW33024  12.185   4.896   4.456  0.7942 -0.2774 -0.3107
 8019SOL    HW133025  12.109   4.838   4.466  1.5119 -1.0426  0.9329
 8019SOL    HW233026  12.169   4.968   4.518 -0.2494  1.1025 -2.0735
 8020SOL     OW33027   0.018   2.043   7.169 -0.5259 -0.2430  0.1986
 8020SOL    HW133028  -0.062   2.038   7.117  0.2949  1.2755 -1.3101
 8020SOL    HW233029   0.049   2.133   7.157  0.6238 -0.3563  1.9610
 8021SOL     OW33030   3.289  11.863   9.565  0.0587 -0.3521 -0.0358
 8021SOL    HW133031   3.306  11.842   9.657 -0.9178  0.2381  0.3006
 8021SOL    HW233032   3.325  11.789   9.516  1.7876 -0.0531  0.7192
 8022SOL     OW33033   4.228  11.595   4.972  0.0294 -0.3922  0.0708
 8022SOL    HW133034   4.142  11.584   5.013 -0.1284  0.5310  0.0126
 8022SOL    HW233035   4.209  11.602   4.879  0.1669 -0.1946  0.0572
 8023SOL     OW33036   0.991   0.808   2.412  0.1032  0.3914  0.4892
 8023SOL    HW133037   0.952   0.805   2.325  1.4448  0.2789 -0.1335
 8023SOL    HW233038   0.986   0.718   2.443 -0.5746  0.4719  0.6342
 8024SOL     OW33039   7.177   6.093   8.994  0.1392 -0.1114 -0.4609
 8024SOL    HW133040   7.107   6.143   9.036 -0.6264  0.3444 -2.2051
 8024SOL    HW233041   7.188   6.016   9.050 -1.1548  0.2381  0.3174
 8025SOL     OW33042   0.298   7.291   6.989  0.1391 -0.1740 -0.1820
 8025SOL    HW133043   0.310   7.196   6.994 -0.3916 -0.2213  0.3130
 8025SOL    HW233044   0.288   7.308   6.895  2.0012 -0.3668 -0.4417
 8026SOL     OW33045  11.553   8.835   7.887  0.2477  0.9750  0.4851
 8026SOL    HW133046  11.467   8.877   7.898 -0.6211 -0.8000  0.9266
 8026SOL    HW233047  11.536   8.742   7.903  2.0513  0.4133 -0.5676
 8027SOL     OW33048   1.613   7.172   1.241 -0.1234  0.0082 -0.0379
 8027SOL    HW133049   1.612   7.207   1.152  0.8879 -0.4929 -0.2497
 8027SOL    HW233050   1.542   7.108   1.242 -0.7314  0.6670 -0.2107
 8028SOL     OW33051  10.673   2.334   0.245  0.0058 -0.1202  0.2273
 8028SOL    HW133052  10.667   2.362   0.336 -2.6039 -1.3665  0.5183
 8028SOL    HW233053  10.598   2.374   0.202  0.6551 -0.3338 -1.1716
 8029SOL     OW33054   4.672   7.186   0.627  0.4149 -0.3173  0.0611
 8029SOL    HW133055   4.759   7.196   0.667  0.8817 -0.7413 -0.8179
 8029SOL    HW233056   4.658   7.270   0.582  1.5849 -1.1875 -2.0630
 8030SOL     OW33057   2.856   3.755   4.818 -0.1307 -0.4975  0.4960
 8030SOL    HW133058   2.866   3.660   4.820  0.1813 -0.4765  0.0709
 8030SOL    HW233059   2.868   3.779   4.726 -0.7256 -0.0993  0.5145
 8031SOL     OW33060  10.311   3.966   7.477  0.2138 -0.3651 -0.4763
 8031SOL    HW133061  10.224   4.006   7.465 -1.6318 -3.0052  2.5302
 8031SOL    HW233062  10.356   4.026   7.537 -1.2270 -0.9831  1.3098
 8032SOL     OW33063   0.025   4.886   4.625  0.0497  0.3734  0.1249
 8032SOL    HW133064  -0.037   4.914   4.691  0.1526  1.8019 -0.3655
 8032SOL    HW233065  -0.021   4.898   4.542  0.7937  0.9780 -0.2098
 8033SOL     OW33066   8.768   9.475  10.089  0.1999 -0.0763  0.1560
 8033SOL    HW133067   8.681   9.496  10.054  0.4373  0.9778  0.1801
 8033SOL    HW233068   8.750   9.421  10.166 -0.4540  0.3169  0.2900
 8034SOL     OW33069   3.639   2.875   8.032  0.2042 -0.0179 -0.3998
 8034SOL    HW133070   3.697   2.949   8.044  0.9216 -0.5842 -0.3196
 8034SOL    HW233071   3.696   2.798   8.032 -0.6214 -0.6643  0.5332
 8035SOL     OW33072  10.969  10.744   0.464 -0.2201 -0.0627  0.2192
 8035SOL    HW133073  10.935  10.662   0.498  0.6995 -0.6003 -0.1065
 8035SOL    HW233074  11.028  10.718   0.393  2.1410  0.6462  1.7688
 8036SOL     OW33075   9.863   9.782   3.727  0.6849  0.1867 -0.2327
 8036SOL    HW133076   9.769   9.801   3.716  0.4057 -0.0352  1.5188
 8036SOL    HW233077   9.903   9.868   3.736  0.2752  0.2323  1.4929
 8037SOL     OW33078  11.369   8.150   6.125  0.3183 -0.1480 -0.3513
 8037SOL    HW133079  11.318   8.116   6.198  0.1125 -0.3998 -0.6063
 8037SOL    HW233080  11.306   8.199   6.072 -0.2570 -2.4696 -1.9693
 8038SOL     OW33081   5.038   0.709   2.434  0.1189 -0.7125 -0.7115
 8038SOL    HW133082   5.030   0.787   2.490 -0.1341 -0.4477 -1.1071
 8038SOL    HW233083   5.000   0.737   2.350  0.8526 -0.9814 -1.1333
 8039SOL     OW33084   7.110   7.531   4.557 -0.5104  0.4661 -0.4384
 8039SOL    HW133085   7.103   7.613   4.605 -1.7947 -0.7615  1.5767
 8039SOL    HW233086   7.032   7.529   4.501 -0.3785  0.6973 -0.6316
 8040SOL     OW33087   2.215   9.197   5.349 -0.2923  0.6215 -0.2714
 8040SOL    HW133088   2.179   9.286   5.357  0.0299  0.7754 -0.4919
 8040SOL    HW233089   2.195   9.155   5.432  1.6929  1.7014  0.8313
 8041SOL     OW33090   5.335   4.999  10.447 -0.1869  0.1404 -0.2307
 8041SOL    HW133091   5.388   4.919  10.444  1.2463  1.0590 -2.1470
 8041SOL    HW233092   5.253   4.975  10.405  0.6113 -0.1143 -1.7110
 8042SOL     OW33093   9.918  10.877   7.562 -0.4230  0.2804 -0.6080
 8042SOL    HW133094   9.908  10.924   7.645  0.4089 -0.5418 -0.0191
 8042SOL    HW233095   9.933  10.946   7.497 -0.8505  0.9222 -0.0354
 8043SOL     OW33096   5.766   0.937  11.351 -0.0069  0.2159  0.3016
 8043SOL    HW133097   5.733   0.942  11.262  1.3842  1.4232 -0.2008
 8043SOL    HW233098   5.854   0.976  11.346  1.1613 -2.0015  1.6988
 8044SOL     OW33099   6.959   9.757  10.729  0.3584  0.4800  0.0318
 8044SOL    HW133100   6.879   9.709  10.749  0.1497  1.8611  3.1929
 8044SOL    HW233101   7.026   9.690  10.719 -0.4945 -0.6268  1.3145
 8045SOL     OW33102  11.715   1.541  12.135  0.0418 -0.4488  0.2620
 8045SOL    HW133103  11.735   1.582  12.051 -1.4043  0.8007  0.4680
 8045SOL    HW233104  11.673   1.458  12.112  2.1883 -1.4593 -0.1758
 8046SOL     OW33105   1.858   7.205   7.065  0.0590  0.2888 -0.4817
 8046SOL    HW133106   1.803   7.135   7.029 -0.4457 -0.6872  2.0128
 8046SOL    HW233107   1.934   7.160   7.101 -0.6973  0.8681  1.9685
 8047SOL     OW33108   4.169   0.337   7.874  0.3910  0.0613  0.0792
 8047SOL    HW133109   4.101   0.370   7.932  1.2393 -0.1225  1.2023
 8047SOL    HW233110   4.221   0.415   7.852 -0.1698  0.2035 -0.7833
 8048SOL     OW33111  10.924   0.698  12.026 -0.0773  0.1886 -0.1127
 8048SOL    HW133112  10.859   0.736  12.085 -0.0078  0.7675 -0.4019
 8048SOL    HW233113  11.007   0.737  12.054 -0.0294  0.3876 -0.5184
 8049SOL     OW33114   3.246   8.821  11.639  0.2101 -0.3133  0.3744
 8049SOL    HW133115   3.172   8.802  11.696 -0.4714 -0.7523 -0.6084
 8049SOL    HW233116   3.210   8.876  11.570  0.7827 -0.5710 -0.1469
 8050SOL     OW33117   9.309   5.275  10.381 -0.6939  0.0350  0.1061
 8050SOL    HW133118   9.366   5.276  10.458 -0.5516  0.2936 -0.0025
 8050SOL    HW233119   9.253   5.351  10.392 -0.6335  0.1066 -0.0774
 8051SOL     OW33120   5.165   5.256   6.015  0.2348  0.2458 -0.3501
 8051SOL    HW133121   5.171   5.283   6.107  0.4973  0.3348 -0.3922
 8051SOL    HW233122   5.252   5.223   5.994 -0.4452 -2.0533  0.1262
 8052SOL     OW33123   9.930   0.750   1.890 -0.1626  0.3043 -0.2444
 8052SOL    HW133124   9.867   0.815   1.859 -0.4274 -0.8219 -2.2584
 8052SOL    HW233125   9.953   0.699   1.812  0.4245 -1.6845  1.1267
 8053SOL     OW33126   3.972  10.580   3.965 -0.4812 -0.8076  0.5085
 8053SOL    HW133127   3.915  10.562   4.040  0.2976 -0.3666  1.2326
 8053SOL    HW233128   3.999  10.671   3.977 -2.1318  0.0283 -1.5660
 8054SOL     OW33129  11.086  11.118   3.216  0.4867 -0.2444  0.0989
 8054SOL    HW133130  11.009  11.153   3.261  0.7047 -1.1057  1.1717
 8054SOL    HW233131  11.136  11.073   3.284  1.5822 -0.3208 -0.7205
 8055SOL     OW33132   0.465   4.561   0.057  0.2609 -0.0968  0.2463
 8055SOL    HW133133   0.505   4.567  -0.030 -1.0320  0.1975 -0.3534
 8055SOL    HW233134   0.537   4.580   0.118  1.0572  0.2821 -0.7764
 8056SOL     OW33135  11.712   2.617   0.725  0.0551  0.4623  0.2767
 8056SOL    HW133136  11.645   2.551   0.706 -0.7075  0.9879  1.0649
 8056SOL    HW233137  11.795   2.575   0.699 -0.4315 -0.7142  0.5443
 8057SOL     OW33138   7.476   7.315   4.876 -0.0891  0.6341  0.0788
 8057SOL    HW133139   7.388   7.338   4.907 -0.7252  1.9462 -2.4001
 8057SOL    HW233140   7.464   7.233   4.829 -0.2818  1.3722 -1.2210
 8058SOL     OW33141   5.423   8.151   1.692 -0.3491 -0.3377  0.0397
 8058SOL    HW133142   5.385   8.064   1.680  1.7288 -1.1444 -1.3316
 8058SOL    HW233143   5.506   8.134   1.737 -0.2975  1.0505  0.5238
 8059SOL     OW33144   0.918  10.642   1.011 -0.4671  0.1766  0.1316
 8059SOL    HW133145   0.843  10.606   0.963  1.1844 -2.7865 -0.5209
 8059SOL    HW233146   0.972  10.684   0.944 -0.5864  0.5100  0.2464
 8060SOL     OW33147  10.852   4.530   7.502  0.0099  0.6082 -0.0202
 8060SOL    HW133148  10.848   4.552   7.595 -1.2893  2.3762 -0.4421
 8060SOL    HW233149  10.770   4.484   7.485 -0.8222  2.2949 -0.7263
 8061SOL     OW33150   9.078  10.804  10.305 -0.0161 -0.2296  0.0603
 8061SOL    HW133151   9.127  10.846  10.235 -1.0764  1.7103  0.4082
 8061SOL    HW233152   8.991  10.788  10.268 -0.0753 -0.7845  0.4166
 8062SOL     OW33153   6.234   7.809   0.628  0.4754 -0.9037 -0.4329
 8062SOL    HW133154   6.153   7.787   0.674  0.3766 -0.4459 -0.3899
 8062SOL    HW233155   6.215   7.790   0.536  0.7208 -1.9592 -0.2790
 8063SOL     OW33156   1.918   0.556   3.481 -0.5870  0.2055  0.8347
 8063SOL    HW133157   1.836   0.513   3.456  0.3178 -1.6127  0.8097
 8063SOL    HW233158   1.986   0.494   3.455  0.7497  1.2357  1.7529
 8064SOL     OW33159   6.180   8.666   7.255 -0.0509 -0.1934  0.8261
 8064SOL    HW133160   6.091   8.634   7.268 -0.8465  1.5155 -0.1741
 8064SOL    HW233161   6.185   8.746   7.306  0.2844  0.7303 -0.5990
 8065SOL     OW33162  10.785   4.139   2.497 -0.6452 -0.0865  0.1909
 8065SOL    HW133163  10.866   4.089   2.490 -1.6519 -1.6344 -0.9629
 8065SOL    HW233164  10.735   4.095   2.566 -1.4133 -0.5118 -0.6180
 8066SOL     OW33165   9.025   2.653  10.209  0.4863  0.4252 -0.1373
 8066SOL    HW133166   8.981   2.650  10.294 -0.9466 -0.5258 -0.8742
 8066SOL    HW233167   9.110   2.610  10.224  0.2362  0.2367  0.8030
 8067SOL     OW33168   7.635   3.235   1.463  0.4508 -0.3726  0.2806
 8067SOL    HW133169   7.578   3.179   1.410  1.7326 -1.2388 -0.2331
 8067SOL    HW233170   7.697   3.174   1.503  0.3088  0.4205  1.7465
 8068SOL     OW33171   4.810   7.155   2.785  0.0131  0.1515  0.7616
 8068SOL    HW133172   4.722   7.125   2.811 -1.2688  3.1547  0.3415
 8068SOL    HW233173   4.819   7.125   2.695 -0.5767 -0.1752  0.7980
 8069SOL     OW33174   9.336  10.451   3.666 -0.1596 -0.4550 -0.0669
 8069SOL    HW133175   9.367  10.523   3.612 -2.2916 -0.3530 -1.2780
 8069SOL    HW233176   9.244  10.440   3.640 -0.4426 -2.2964  1.5177
 8070SOL     OW33177   7.925   8.378   0.791  0.0495  0.0296 -0.1833
 8070SOL    HW133178   7.833   8.388   0.815 -0.0246  0.6663 -0.7112
 8070SOL    HW233179   7.940   8.284   0.791 -0.4160 -0.0546  0.5766
 8071SOL     OW33180  10.546   4.046   7.594  0.3211 -0.3578 -0.0595
 8071SOL    HW133181  10.626   4.006   7.626 -0.3791 -0.5662  1.5581
 8071SOL    HW233182  10.513   4.097   7.668 -1.9531 -1.7087 -0.0228
 8072SOL     OW33183   5.970   7.621   8.741  0.6427  0.1342  0.0968
 8072SOL    HW133184   5.995   7.540   8.784  0.6226 -0.5697 -1.1782
 8072SOL    HW233185   6.044   7.641   8.683  0.7753  1.1874  0.6097
 8073SOL     OW33186   6.620  11.929  12.484 -0.1512 -0.2023  0.0806
 8073SOL    HW133187   6.636  11.923  12.390 -1.4048 -0.0284 -0.1536
 8073SOL    HW233188   6.592  12.019  12.498 -0.4560 -0.3628  0.5361
 8074SOL     OW33189   7.991   3.599   5.676 -0.0700 -0.0827 -0.0478
 8074SOL    HW133190   7.976   3.679   5.625  0.0938  1.1340  1.7192
 8074SOL    HW233191   8.086   3.587   5.674  0.0807  0.7730  1.0852
 8075SOL     OW33192   5.919  12.417  12.199 -0.0791 -0.1070  0.1212
 8075SOL    HW133193   5.863  12.363  12.255  0.3757  0.2943  0.9767
 8075SOL    HW233194   5.998  12.364  12.187  0.0713  0.0617  0.3634
 8076SOL     OW33195  10.661  11.664   3.050 -0.7598 -0.0729  0.4991
 8076SOL    HW133196  10.666  11.581   3.003 -0.8259  0.7500 -1.0188
 8076SOL    HW233197  10.586  11.709   3.011  0.1451  1.2949  0.2817
 8077SOL     OW33198  12.401   8.849   6.052  0.0529  0.3861 -0.0415
 8077SOL    HW133199  12.424   8.818   5.965  0.0600 -2.1316  0.7563
 8077SOL    HW233200  12.415   8.773   6.109 -2.6487  1.0414  1.7130
 8078SOL     OW33201   6.369   5.310   2.712  0.1267 -0.2475 -0.4435
 8078SOL    HW133202   6.390   5.218   2.700  0.1813 -0.3418  0.2882
 8078SOL    HW233203   6.282   5.309   2.753  1.0187 -0.0811  1.5934
 8079SOL     OW33204   7.554   0.551   2.298  0.4215  0.2421  0.3720
 8079SOL    HW133205   7.471   0.594   2.276  1.6889  2.5680 -0.1371
 8079SOL    HW233206   7.539   0.514   2.385 -1.1336  0.6806  0.3217
 8080SOL     OW33207   8.918   8.572   0.222  0.6103 -0.0926 -0.1995
 8080SOL    HW133208   8.852   8.633   0.190  0.2434 -0.1469  0.4377
 8080SOL    HW233209   8.953   8.531   0.143 -1.2472 -1.2401 -0.4854
 8081SOL     OW33210   2.383   8.399   0.450 -0.1481 -0.0866 -0.5672
 8081SOL    HW133211   2.426   8.320   0.418 -0.2359 -0.3326 -0.0846
 8081SOL    HW233212   2.290   8.379   0.449 -0.0627 -1.4780  3.2442
 8082SOL     OW33213   1.238   2.657   6.994  0.1727  0.2851 -0.3328
 8082SOL    HW133214   1.266   2.593   6.928  0.2379  1.3208 -1.3256
 8082SOL    HW233215   1.312   2.662   7.055 -0.1989 -1.2692  0.3123
 8083SOL     OW33216   1.207  10.170   6.040  0.2373  0.2137  0.4899
 8083SOL    HW133217   1.257  10.251   6.047 -1.2549  1.3677 -1.3286
 8083SOL    HW233218   1.157  10.166   6.122 -0.2781  1.5928  0.2782
 8084SOL     OW33219  10.280   8.293  11.557 -0.4720 -0.2974 -0.1029
 8084SOL    HW133220  10.236   8.207  11.559 -0.1674 -0.5233 -1.5748
 8084SOL    HW233221  10.275   8.320  11.465  0.2609  0.8401  0.1706
 8085SOL     OW33222   7.060   5.859   3.577 -0.5104 -0.7774  0.7694
 8085SOL    HW133223   6.964   5.851   3.582 -0.5531  0.1212  1.6083
 8085SOL    HW233224   7.077   5.878   3.485 -1.4099  1.8873  1.0643
 8086SOL     OW33225  10.002  11.372   9.671 -0.0654  0.0805 -0.1052
 8086SOL    HW133226   9.959  11.294   9.637 -0.5876 -0.1869  1.1215
 8086SOL    HW233227  10.072  11.390   9.608 -1.6386  0.2512 -1.9126
 8087SOL     OW33228   7.179   2.853   2.086  0.2318  0.2851  0.8800
 8087SOL    HW133229   7.226   2.864   2.168 -1.3379  0.2912  1.8134
 8087SOL    HW233230   7.095   2.816   2.111 -0.2622  0.2269 -0.7412
 8088SOL     OW33231   9.375   0.018   6.578  0.4339 -0.0709 -0.2015
 8088SOL    HW133232   9.451   0.075   6.568 -0.7255  1.2059 -2.6138
 8088SOL    HW233233   9.303   0.078   6.599 -0.4183 -0.9090 -0.6628
 8089SOL     OW33234  11.601   0.710   8.053 -0.8483 -0.3600  0.1370
 8089SOL    HW133235  11.607   0.806   8.052  0.0038 -0.4018 -1.9763
 8089SOL    HW233236  11.511   0.693   8.081 -1.5103  1.1049 -0.9737
 8090SOL     OW33237  12.060   3.639   9.752  0.7295  0.8707 -0.2753
 8090SOL    HW133238  11.995   3.709   9.739 -0.3328 -0.0951 -0.3521
 8090SOL    HW233239  12.060   3.625   9.846 -0.3969 -0.2127 -0.4053
 8091SOL     OW33240   9.988   0.828   8.522  0.4871  0.2736 -0.3479
 8091SOL    HW133241  10.033   0.898   8.475  3.0409  0.0999  1.5652
 8091SOL    HW233242  10.054   0.759   8.530 -0.4620 -0.4797  1.6829
 8092SOL     OW33243  10.943   1.398   1.612  0.0527 -0.0595 -0.1167
 8092SOL    HW133244  10.942   1.314   1.659 -1.1014 -0.1903 -0.3423
 8092SOL    HW233245  10.920   1.463   1.679 -0.0433 -0.0526 -0.1560
 8093SOL     OW33246   5.537   2.255   2.746  0.3886  0.0254 -0.0860
 8093SOL    HW133247   5.549   2.171   2.703  0.3253  0.0135 -0.0806
 8093SOL    HW233248   5.518   2.316   2.675  1.1603  0.1806 -0.1663
 8094SOL     OW33249   6.392   3.228   2.163 -0.1534  0.0688  0.5346
 8094SOL    HW133250   6.404   3.317   2.130  1.9296 -0.0126  0.9310
 8094SOL    HW233251   6.362   3.239   2.253 -1.7104  0.3324 -0.0015
 8095SOL     OW33252  11.880  12.386  10.817  0.0125  0.2879  0.2779
 8095SOL    HW133253  11.803  12.441  10.808 -0.1991 -0.2368 -1.4926
 8095SOL    HW233254  11.946  12.427  10.761  0.4244 -0.2702  0.3350
 8096SOL     OW33255   5.044   8.952   8.339  0.0452  0.2436 -0.1506
 8096SOL    HW133256   5.007   9.022   8.393 -0.0071  0.3092 -0.2715
 8096SOL    HW233257   5.088   8.998   8.267 -0.6700  0.1315 -0.6690
 8097SOL     OW33258   6.936   6.186   0.382 -0.4230  0.3089 -0.0775
 8097SOL    HW133259   6.931   6.281   0.391  0.2545  0.3859 -0.4628
 8097SOL    HW233260   6.977   6.156   0.463 -0.0813  0.4043 -0.2138
 8098SOL     OW33261   8.601   8.679   3.829  0.0031 -0.4027  0.5607
 8098SOL    HW133262   8.606   8.600   3.882 -1.2769  0.1907  1.6192
 8098SOL    HW233263   8.541   8.656   3.758  2.0564 -1.3384 -0.9721
 8099SOL     OW33264   8.126   0.653   5.177 -0.2148 -0.4944 -0.3947
 8099SOL    HW133265   8.033   0.655   5.155  0.1319  1.2274 -1.9220
 8099SOL    HW233266   8.130   0.681   5.268 -1.0504  2.7360 -1.2273
 8100SOL     OW33267  11.777   4.896   5.653  0.1722  0.1548  0.4120
 8100SOL    HW133268  11.833   4.931   5.721  2.8963 -1.5243 -0.7954
 8100SOL    HW233269  11.759   4.806   5.680  3.3152 -1.4076 -1.9603
 8101SOL     OW33270  11.352   5.486   9.055 -0.0229  0.0907  0.1102
 8101SOL    HW133271  11.367   5.395   9.030 -1.0656  0.1558 -0.8087
 8101SOL    HW233272  11.405   5.497   9.134 -1.1715 -1.8073  1.2410
 8102SOL     OW33273   8.425  11.558   0.937  0.2000  0.3117 -1.0650
 8102SOL    HW133274   8.421  11.469   0.972  0.3760 -0.5511 -3.0721
 8102SOL    HW233275   8.338  11.594   0.953 -0.2384 -0.6430 -1.2064
 8103SOL     OW33276   0.326   6.025   3.808 -0.2211  0.1011 -0.3109
 8103SOL    HW133277   0.378   5.946   3.818  0.1606  0.4522  0.5652
 8103SOL    HW233278   0.388   6.097   3.821 -0.7218  0.5313 -0.2467
 8104SOL     OW33279   6.109   1.251   4.904 -0.3034  0.3487  0.6750
 8104SOL    HW133280   6.039   1.279   4.844 -0.7377  0.0698  1.0414
 8104SOL    HW233281   6.062   1.220   4.982  0.1620 -1.3057  0.3261
 8105SOL     OW33282   5.969   1.829   2.776 -0.0425  0.5505 -0.3074
 8105SOL    HW133283   5.934   1.743   2.802 -0.2669  1.0359  1.1176
 8105SOL    HW233284   5.903   1.891   2.807  0.9224  1.3344  0.2145
 8106SOL     OW33285  10.057   3.798   3.835 -0.3187  0.2153 -0.4581
 8106SOL    HW133286  10.083   3.707   3.849 -0.0441  0.3761  0.0905
 8106SOL    HW233287   9.995   3.794   3.762 -1.1106 -0.5337  0.2420
 8107SOL     OW33288   9.743   9.327   2.799 -0.0624 -0.4326  0.2495
 8107SOL    HW133289   9.660   9.362   2.831 -0.2012  0.0851 -0.6366
 8107SOL    HW233290   9.784   9.401   2.753 -0.8190 -1.6429 -2.6005
 8108SOL     OW33291   7.163  11.170   7.705 -0.0723  0.5987  0.2296
 8108SOL    HW133292   7.197  11.255   7.732 -0.5039  0.8723 -0.0835
 8108SOL    HW233293   7.075  11.188   7.673  0.0456  0.1232 -0.3787
 8109SOL     OW33294   7.751   1.556   1.931  0.7132 -0.0524 -0.4065
 8109SOL    HW133295   7.703   1.475   1.947 -1.2976  1.1296 -0.1695
 8109SOL    HW233296   7.755   1.564   1.836 -0.8128  0.4959 -0.4538
 8110SOL     OW33297   2.884   6.731   2.017 -0.2109 -0.0690 -0.4003
 8110SOL    HW133298   2.798   6.704   1.985  0.3655 -0.7709 -1.4212
 8110SOL    HW233299   2.919   6.785   1.946  1.3171 -2.0752 -1.2735
 8111SOL     OW33300   4.109   4.524   7.467 -0.4183  0.1010  0.1093
 8111SOL    HW133301   4.076   4.543   7.379  0.5948 -2.0176 -0.8185
 8111SOL    HW233302   4.132   4.431   7.464  1.9990  0.5423  1.8343
 8112SOL     OW33303   5.732   7.144   0.314  0.0638 -0.7043 -0.1660
 8112SOL    HW133304   5.771   7.080   0.374 -0.7478 -0.8934  0.1787
 8112SOL    HW233305   5.702   7.091   0.240 -1.6641 -0.9297  0.6409
 8113SOL     OW33306   3.654   1.479   9.834 -0.2801  0.7621 -0.4333
 8113SOL    HW133307   3.678   1.388   9.820  0.8917  1.2003 -1.4039
 8113SOL    HW233308   3.561   1.483   9.812 -0.4673 -0.2749  0.0993
 8114SOL     OW33309   0.067   2.516   2.377 -0.0976  0.0621 -0.7112
 8114SOL    HW133310  -0.013   2.472   2.406 -0.0437  0.9836  0.9209
 8114SOL    HW233311   0.038   2.573   2.305 -0.3319 -1.8260 -2.2139
 8115SOL     OW33312   3.056   0.469   0.959 -0.5296  0.2206  0.2395
 8115SOL    HW133313   3.103   0.532   1.014  0.0220 -0.6321  0.7958
 8115SOL    HW233314   3.023   0.404   1.021 -2.3231  0.6944 -0.1648
 8116SOL     OW33315   7.510   2.796   1.284  0.4962  0.0998 -0.1154
 8116SOL    HW133316   7.559   2.726   1.240  0.1776 -0.3071  0.1779
 8116SOL    HW233317   7.464   2.752   1.355  0.7836  0.7173  0.4516
 8117SOL     OW33318   4.490   3.020   2.943  0.2131  0.2225 -0.4404
 8117SOL    HW133319   4.483   3.001   2.850  0.2259 -2.2362 -0.0275
 8117SOL    HW233320   4.536   2.944   2.979 -0.9521  0.4653  1.7491
 8118SOL     OW33321   9.365   8.979   5.057 -0.3124 -0.3121  0.1795
 8118SOL    HW133322   9.304   9.039   5.014 -0.5570 -1.1260 -0.6495
 8118SOL    HW233323   9.432   9.036   5.095 -1.9480  0.6708  1.7539
 8119SOL     OW33324  12.017   7.327   9.807  0.3241  0.5108  0.0133
 8119SOL    HW133325  11.987   7.402   9.756  0.8009  0.1008 -0.8959
 8119SOL    HW233326  12.063   7.365   9.882 -1.1368  1.1314  0.6308
 8120SOL     OW33327   2.327   7.832   5.588  0.6412  0.1230  0.0644
 8120SOL    HW133328   2.356   7.872   5.506  1.0271  0.6222  0.4415
 8120SOL    HW233329   2.406   7.825   5.641  0.5983 -1.2012 -0.0064
 8121SOL     OW33330   6.505   3.253   8.875  0.1600  0.2409 -0.0558
 8121SOL    HW133331   6.482   3.171   8.831 -0.8134  0.4398  0.0556
 8121SOL    HW233332   6.499   3.319   8.806  0.9918  0.2217 -0.1567
 8122SOL     OW33333   9.759   5.093   2.900  0.0317 -0.4347  0.2041
 8122SOL    HW133334   9.668   5.121   2.901 -0.4794 -1.9916  0.6470
 8122SOL    HW233335   9.755   4.999   2.919  1.6567 -0.7231 -0.7059
 8123SOL     OW33336   2.747   6.835   6.441  0.4125 -0.1913  0.4551
 8123SOL    HW133337   2.745   6.746   6.405 -0.4117 -0.7527  1.7757
 8123SOL    HW233338   2.660   6.848   6.478  0.9544  0.6153  1.5343
 8124SOL     OW33339   7.883   0.064   5.217 -0.1576  0.2153 -0.3308
 8124SOL    HW133340   7.924  -0.011   5.174  0.4376  0.5314 -0.3325
 8124SOL    HW233341   7.886   0.134   5.151 -1.7335 -0.0572 -0.7360
 8125SOL     OW33342  11.342   1.643   9.611  0.3686  0.1478  0.0081
 8125SOL    HW133343  11.379   1.657   9.524  2.1856 -0.3108  0.6792
 8125SOL    HW233344  11.354   1.726   9.657 -1.0312  0.5508 -0.2944
 8126SOL     OW33345  10.512   4.956   2.641 -0.0848  0.6830  0.2678
 8126SOL    HW133346  10.517   4.970   2.546 -1.1493  0.9593  0.2514
 8126SOL    HW233347  10.556   5.032   2.679  0.0880  0.7127  0.0126
 8127SOL     OW33348   0.014   7.508   7.054 -0.5304 -0.2139 -0.2325
 8127SOL    HW133349  -0.048   7.542   7.120 -1.2211  1.7440 -1.7886
 8127SOL    HW233350   0.071   7.582   7.036  1.2340 -1.4897 -0.0771
 8128SOL     OW33351   3.325   4.484  10.725  0.6129 -0.0027  0.3277
 8128SOL    HW133352   3.302   4.391  10.721  0.4185  0.0704 -0.4850
 8128SOL    HW233353   3.404   4.487  10.779  0.9128 -0.7003 -0.0550
 8129SOL     OW33354   5.219   3.248   8.858  0.4433 -0.4051  0.2308
 8129SOL    HW133355   5.236   3.190   8.932  0.3957  2.1567  2.4037
 8129SOL    HW233356   5.303   3.291   8.841 -0.2874  1.5249  1.1694
 8130SOL     OW33357   8.849   7.258   9.116  0.1848 -0.0261 -0.1440
 8130SOL    HW133358   8.840   7.217   9.030 -1.0968 -1.4328  0.6038
 8130SOL    HW233359   8.936   7.298   9.115 -0.2341  1.0136 -2.4892
 8131SOL     OW33360  10.552   0.666   1.267 -0.2327  0.3394 -0.2094
 8131SOL    HW133361  10.476   0.724   1.261 -0.5121  0.0149  0.0634
 8131SOL    HW233362  10.548   0.631   1.357 -0.0348 -0.0419 -0.3457
 8132SOL     OW33363   0.974  11.428   3.408  0.2770  0.0613 -0.2454
 8132SOL    HW133364   0.900  11.470   3.364  0.2890  0.1209 -0.2096
 8132SOL    HW233365   0.957  11.442   3.501 -0.5399 -1.4055 -0.1543
 8133SOL     OW33366   7.871   3.760   7.614 -0.1445 -0.3760 -0.2126
 8133SOL    HW133367   7.950   3.790   7.659 -0.2040 -1.0799  0.3873
 8133SOL    HW233368   7.877   3.664   7.617 -0.7678 -0.4323 -0.6226
 8134SOL     OW33369  11.931   4.141   4.512 -0.7447  0.9688 -0.1552
 8134SOL    HW133370  11.993   4.201   4.552  0.9571 -1.2429  0.7718
 8134SOL    HW233371  11.928   4.166   4.420  0.8138  1.7494 -0.0202
 8135SOL     OW33372   3.127   5.239   4.885 -0.7093  0.1332 -0.0616
 8135SOL    HW133373   3.076   5.312   4.918 -2.0814 -0.5069 -0.6872
 8135SOL    HW233374   3.094   5.163   4.934  0.5358 -0.1344  0.4228
 8136SOL     OW33375  10.516   8.380  12.011  0.3048 -0.0605 -0.1331
 8136SOL    HW133376  10.464   8.402  11.934  0.9239 -0.0399 -0.5571
 8136SOL    HW233377  10.498   8.450  12.073 -1.4964 -0.9492  0.3994
 8137SOL     OW33378   1.651   1.511   5.178  0.2983 -0.3038 -0.0474
 8137SOL    HW133379   1.561   1.517   5.147  0.3371  0.6681 -0.0120
 8137SOL    HW233380   1.699   1.574   5.124  0.3849  1.3773  1.8439
 8138SOL     OW33381   1.053   8.501   2.067  0.2139 -0.3162 -0.2641
 8138SOL    HW133382   1.111   8.455   2.007  1.0756  0.1109  0.2201
 8138SOL    HW233383   1.068   8.459   2.152 -1.4351 -1.3191 -0.4135
 8139SOL     OW33384   7.811   0.014   6.358  0.2710  0.1294  0.5943
 8139SOL    HW133385   7.789  -0.077   6.337 -3.2503  1.2847 -1.6035
 8139SOL    HW233386   7.826   0.014   6.453  0.2626 -2.6863  0.6817
 8140SOL     OW33387  10.823  12.480   7.264  0.2708 -0.2444  0.2761
 8140SOL    HW133388  10.866  12.449   7.344  0.1797 -1.4085 -0.1094
 8140SOL    HW233389  10.866  12.432   7.193 -0.2052  0.1717 -0.3078
 8141SOL     OW33390   6.303   1.911  12.396  0.1797 -0.3090  0.1684
 8141SOL    HW133391   6.301   1.960  12.478  0.7891  1.0424 -0.5825
 8141SOL    HW233392   6.270   1.973  12.331 -1.7367 -1.8292 -0.4004
 8142SOL     OW33393   2.519   9.037   9.212 -0.3358  0.9081  0.4107
 8142SOL    HW133394   2.515   8.999   9.300  0.3632  0.1893  0.1422
 8142SOL    HW233395   2.450   8.992   9.163  0.5455 -0.1236  0.0691
 8143SOL     OW33396   0.085   7.709   5.449  0.3805  0.0638 -0.0994
 8143SOL    HW133397   0.042   7.704   5.363 -2.5923  2.5643  1.0425
 8143SOL    HW233398   0.145   7.783   5.441  0.3010  0.1290 -0.0915
 8144SOL     OW33399   2.836   9.636   7.005  0.1471 -0.2624  0.0484
 8144SOL    HW133400   2.855   9.729   7.006  1.2550 -0.4205 -1.6221
 8144SOL    HW233401   2.755   9.628   6.954  1.9070 -0.3912 -2.9697
 8145SOL     OW33402   5.663   9.036   9.370 -0.2634  0.1432 -0.6803
 8145SOL    HW133403   5.662   9.092   9.448  0.2875  0.4155 -0.8641
 8145SOL    HW233404   5.635   8.950   9.402  2.9113 -0.5929  0.5114
 8146SOL     OW33405   6.156  11.760  12.442  0.0254  0.1446  0.1005
 8146SOL    HW133406   6.172  11.786  12.533  0.0765 -0.7082  0.3407
 8146SOL    HW233407   6.118  11.838  12.401  1.1026  0.9168  0.5409
 8147SOL     OW33408  10.011   6.937   2.875  0.0248 -0.0215 -0.3638
 8147SOL    HW133409  10.081   6.969   2.932  1.4054 -1.3448 -1.2357
 8147SOL    HW233410   9.954   6.887   2.933 -0.0485  0.8279  0.3073
 8148SOL     OW33411   1.868  10.553   1.550 -0.3177  0.8562 -0.5087
 8148SOL    HW133412   1.951  10.555   1.597  0.6815  1.9121 -2.2048
 8148SOL    HW233413   1.845  10.645   1.537 -1.2824  0.5790 -0.8460
 8149SOL     OW33414   1.054   8.701   9.895  0.1143  0.0748  0.7934
 8149SOL    HW133415   1.118   8.759   9.855  1.9508 -2.0582  0.4503
 8149SOL    HW233416   0.971   8.749   9.889  1.2096  1.8914 -1.0118
 8150SOL     OW33417  10.737   7.170   0.085 -0.6827 -0.0327  0.2534
 8150SOL    HW133418  10.647   7.200   0.098 -0.2751  1.6434 -0.5555
 8150SOL    HW233419  10.750   7.104   0.153 -1.5778  1.8023  2.3363
 8151SOL     OW33420  10.149   1.440   7.935 -0.1064 -0.1386 -0.2558
 8151SOL    HW133421  10.167   1.530   7.963  1.0394 -0.9483  1.8985
 8151SOL    HW233422  10.069   1.446   7.884  1.2025  2.4077 -2.2011
 8152SOL     OW33423   8.546   9.700   1.092  0.4200 -0.2287 -0.4880
 8152SOL    HW133424   8.622   9.645   1.111  1.1592  0.4619 -1.3414
 8152SOL    HW233425   8.578   9.762   1.027 -0.8358  0.1921 -0.7222
 8153SOL     OW33426   5.018   4.029  11.108 -0.3428  0.3446  0.4074
 8153SOL    HW133427   4.951   4.012  11.175 -0.8345 -0.7880 -0.3503
 8153SOL    HW233428   4.972   4.080  11.041 -0.2463  0.1945  0.2273
 8154SOL     OW33429   4.011   3.056   0.523  0.3403 -0.1198  0.0522
 8154SOL    HW133430   4.003   3.069   0.429 -0.6219 -1.4917 -0.0875
 8154SOL    HW233431   3.982   2.966   0.538  1.8019 -0.4058  1.5014
 8155SOL     OW33432   3.932   2.647   9.388  0.2987 -0.1405  0.2453
 8155SOL    HW133433   3.852   2.675   9.344  0.5065  0.1908  0.0758
 8155SOL    HW233434   3.903   2.582   9.452 -0.1700  0.3278  0.5205
 8156SOL     OW33435   7.449   9.519  10.542 -0.3231 -0.3592 -0.4654
 8156SOL    HW133436   7.376   9.576  10.518  1.2976  1.7759 -0.5640
 8156SOL    HW233437   7.477   9.480  10.459  0.6399  1.3308 -0.9799
 8157SOL     OW33438   2.170   1.270  11.809  0.8606  0.9250 -0.6770
 8157SOL    HW133439   2.091   1.318  11.833  0.8395 -0.0934  1.4527
 8157SOL    HW233440   2.138   1.193  11.761  0.3008 -0.4974  1.7919
 8158SOL     OW33441   4.891  12.118   3.463 -0.1908 -0.5187 -0.6752
 8158SOL    HW133442   4.958  12.153   3.403 -0.3466  0.6281 -0.2193
 8158SOL    HW233443   4.811  12.115   3.410 -0.0797 -0.5690 -0.8399
 8159SOL     OW33444  10.838   7.094   5.689 -0.0998 -0.4326 -0.5598
 8159SOL    HW133445  10.868   7.099   5.598  0.2298 -1.1477 -0.4928
 8159SOL    HW233446  10.766   7.032   5.688  0.3562 -0.9771 -0.2221
 8160SOL     OW33447   0.451   0.131   5.776  0.2283  0.0973 -0.1421
 8160SOL    HW133448   0.394   0.125   5.853  0.5816 -1.6484  0.0230
 8160SOL    HW233449   0.539   0.113   5.810  0.5826  0.6847 -0.7404
 8161SOL     OW33450   3.015  11.380   8.270 -0.1487  1.0328  0.0248
 8161SOL    HW133451   3.081  11.333   8.322  0.4699 -0.7600 -2.2340
 8161SOL    HW233452   2.948  11.315   8.252 -0.8741  1.9265 -0.5414
 8162SOL     OW33453  12.513   8.243   0.087  0.4098 -0.2928 -0.3828
 8162SOL    HW133454  12.424   8.268   0.112  0.5396  0.0593 -0.2686
 8162SOL    HW233455  12.541   8.310   0.025  1.2795  0.7000  0.9950
 8163SOL     OW33456   0.962   4.817   1.647 -0.0140 -0.0051  0.1029
 8163SOL    HW133457   0.970   4.872   1.726 -1.6773 -0.5139  0.6600
 8163SOL    HW233458   1.011   4.738   1.668 -1.9067 -0.9066  1.3938
 8164SOL     OW33459   8.212  10.896   6.115 -0.2940 -0.0346  0.4114
 8164SOL    HW133460   8.299  10.892   6.155 -0.3323 -0.0429  0.4907
 8164SOL    HW233461   8.183  10.805   6.109  0.9711 -0.3507 -2.3736
 8165SOL     OW33462   1.123   2.387   6.490 -0.1125 -0.1113  0.3419
 8165SOL    HW133463   1.168   2.335   6.423  2.2106  1.7231  0.3935
 8165SOL    HW233464   1.033   2.394   6.457  0.9951  0.9988 -2.8478
 8166SOL     OW33465   9.674   6.010   3.683  0.3778 -0.5377 -0.4147
 8166SOL    HW133466   9.716   5.960   3.753 -0.0106  0.2551  0.4077
 8166SOL    HW233467   9.739   6.015   3.613  0.7198 -1.4562 -0.1681
 8167SOL     OW33468   2.627   1.120  11.366 -0.1172 -0.5116  0.0229
 8167SOL    HW133469   2.605   1.142  11.276 -0.0523 -0.1881  0.0868
 8167SOL    HW233470   2.680   1.040  11.359 -0.6790 -0.8761 -0.1781
 8168SOL     OW33471   1.099   9.401   9.893  0.1175 -0.3137 -0.1963
 8168SOL    HW133472   1.138   9.389   9.807  2.4902 -1.2936  0.9230
 8168SOL    HW233473   1.173   9.423   9.950 -1.2395 -0.4960  1.7344
 8169SOL     OW33474   2.385   9.931   6.956 -0.1176  0.1637 -0.4035
 8169SOL    HW133475   2.425   9.977   6.883 -1.7219  0.6672 -1.0150
 8169SOL    HW233476   2.367   9.999   7.021 -0.7471  0.0977 -0.5015
 8170SOL     OW33477  10.826   3.886   4.178 -0.1624  0.0049  0.0557
 8170SOL    HW133478  10.869   3.926   4.103 -0.3246  1.0247  0.4950
 8170SOL    HW233479  10.785   3.959   4.224 -1.0682 -0.7579  0.4850
 8171SOL     OW33480  10.184   6.072   3.926 -0.0386 -0.1340 -0.0558
 8171SOL    HW133481  10.198   5.983   3.956 -0.7061 -0.5102 -0.8331
 8171SOL    HW233482  10.272   6.104   3.906  0.3144 -0.2202  1.2797
 8172SOL     OW33483  12.582  12.222  11.515 -0.3978  0.5345 -0.2466
 8172SOL    HW133484  12.613  12.295  11.462 -0.7986 -1.5621 -3.7479
 8172SOL    HW233485  12.486  12.225  11.506 -0.3881 -0.8093 -1.1592
 8173SOL     OW33486   2.023   6.510  10.426  0.2325  0.1021  0.4448
 8173SOL    HW133487   2.000   6.424  10.393  1.1822 -0.3901  1.0075
 8173SOL    HW233488   2.054   6.558  10.349 -2.2543  0.6831 -0.2662
 8174SOL     OW33489   0.621   7.871   3.287 -0.0747 -0.5859 -0.0734
 8174SOL    HW133490   0.696   7.822   3.254  0.7789 -0.6941  1.9175
 8174SOL    HW233491   0.545   7.828   3.247  0.7217 -2.7190  0.5780
 8175SOL     OW33492  11.455   6.244   5.684  0.0514  0.2472 -0.1457
 8175SOL    HW133493  11.427   6.304   5.615  0.7017 -0.6041 -1.1819
 8175SOL    HW233494  11.543   6.275   5.707  0.1287  0.0809 -0.2205
 8176SOL     OW33495   9.878   7.586   4.570 -0.2568 -0.3959  0.4953
 8176SOL    HW133496   9.966   7.562   4.544 -0.7145 -1.3518 -0.2156
 8176SOL    HW233497   9.863   7.539   4.652 -0.1305 -0.2694  0.5919
 8177SOL     OW33498   4.198  10.317   0.757 -0.1748 -0.2812  0.0833
 8177SOL    HW133499   4.103  10.329   0.757  0.1039  2.6933  0.0725
 8177SOL    HW233500   4.224  10.334   0.666  0.4050 -0.7923  0.1503
 8178SOL     OW33501  12.356   4.497   1.375 -0.4736  0.6306  0.0032
 8178SOL    HW133502  12.417   4.428   1.400  1.0143  1.6233 -0.6874
 8178SOL    HW233503  12.269   4.458   1.384  0.1886 -0.4610  2.1700
 8179SOL     OW33504   5.101   1.175   1.511  0.5605  0.9986 -0.1127
 8179SOL    HW133505   5.050   1.247   1.548  1.9236  1.3078  1.2375
 8179SOL    HW233506   5.161   1.150   1.581 -1.5134 -3.1803  0.4731
 8180SOL     OW33507   2.134   4.473   0.388 -0.4785  0.8453  0.5564
 8180SOL    HW133508   2.067   4.528   0.428 -1.8753  0.4456 -1.1157
 8180SOL    HW233509   2.085   4.399   0.351  0.8208  0.7997 -1.1560
 8181SOL     OW33510   1.141   1.340   2.186 -0.1757 -0.7447  0.0095
 8181SOL    HW133511   1.124   1.433   2.204 -0.0276 -0.7764  0.3225
 8181SOL    HW233512   1.236   1.332   2.185 -0.1215 -0.4531 -2.3732
 8182SOL     OW33513  11.082   1.398   6.925 -0.2045 -0.0081 -0.7810
 8182SOL    HW133514  11.078   1.351   7.008  1.5165  1.1977  0.0336
 8182SOL    HW233515  11.100   1.330   6.860 -0.4256 -0.8138 -0.0129
 8183SOL     OW33516   6.279   1.985   1.099  0.2935  0.0896 -0.5723
 8183SOL    HW133517   6.281   2.055   1.034  0.1788  1.0112  0.4027
 8183SOL    HW233518   6.322   2.021   1.176  0.2218 -0.9054 -0.0426
 8184SOL     OW33519   9.701  11.555   5.908  0.3990  0.1989 -0.0042
 8184SOL    HW133520   9.640  11.489   5.939  0.4838  0.2013  0.1644
 8184SOL    HW233521   9.662  11.638   5.933 -0.5362  0.3042 -1.6452
 8185SOL     OW33522   9.628   7.935   9.949 -0.5787  0.3445  0.1250
 8185SOL    HW133523   9.647   7.954  10.041  1.5333  1.5185 -0.4828
 8185SOL    HW233524   9.697   7.873   9.923 -1.1821 -0.0182 -0.6721
 8186SOL     OW33525  11.715  11.382   2.856 -0.1185 -0.1333  0.4292
 8186SOL    HW133526  11.694  11.475   2.855 -1.7320 -0.4283 -1.6506
 8186SOL    HW233527  11.685  11.351   2.941  1.0243  1.3206  1.4114
 8187SOL     OW33528   6.143   7.701   1.417 -0.6280 -0.2999  0.2161
 8187SOL    HW133529   6.100   7.676   1.498  2.2035 -0.4273  1.8071
 8187SOL    HW233530   6.158   7.618   1.372  0.5587 -0.5894  1.0991
 8188SOL     OW33531  10.382   7.494   9.949 -0.3349 -1.2298  0.4856
 8188SOL    HW133532  10.361   7.406   9.981 -0.6843 -0.7210  1.6865
 8188SOL    HW233533  10.408   7.542  10.027 -0.6009 -0.1307 -0.0896
 8189SOL     OW33534   5.094   2.878   5.429  0.5206  0.1238 -0.2280
 8189SOL    HW133535   5.092   2.913   5.518  0.9567  1.1854 -0.6142
 8189SOL    HW233536   5.022   2.816   5.425  0.2220  0.4023  0.7365
 8190SOL     OW33537   9.179   4.365   8.317 -0.0374  0.1583  0.4173
 8190SOL    HW133538   9.140   4.373   8.230 -1.8520 -1.6129  1.0048
 8190SOL    HW233539   9.271   4.388   8.303  0.2771 -2.1559 -2.4760
 8191SOL     OW33540   7.942   6.976   3.035 -0.4180 -0.6160  0.4988
 8191SOL    HW133541   7.968   6.946   2.947 -1.2524  2.3150 -0.8859
 8191SOL    HW233542   7.850   6.951   3.043  0.1385 -2.5711  1.4228
 8192SOL     OW33543  11.930  12.197   9.956  0.1702  0.0442  0.7478
 8192SOL    HW133544  11.890  12.228   9.874  1.9443 -0.0597 -0.1988
 8192SOL    HW233545  11.932  12.275  10.012 -0.4293  0.2893  0.4413
 8193SOL     OW33546   2.658  10.853   3.643 -0.2304 -1.1191 -0.6717
 8193SOL    HW133547   2.661  10.945   3.617  0.2397 -1.1901 -0.8619
 8193SOL    HW233548   2.567  10.840   3.671 -0.1453 -0.4328 -0.0341
 8194SOL     OW33549   8.127   5.837   7.576 -0.2714  0.4699 -0.2294
 8194SOL    HW133550   8.203   5.868   7.526  1.2239  0.8840  2.1207
 8194SOL    HW233551   8.066   5.911   7.575  1.4196  2.0275  1.6998
 8195SOL     OW33552   6.832   5.445   2.542 -0.0191  0.5902  0.7399
 8195SOL    HW133553   6.740   5.437   2.518  0.1999 -0.1983  0.1241
 8195SOL    HW233554   6.859   5.357   2.566  0.5347  0.8463  1.0863
 8196SOL     OW33555   7.777   8.262   6.006  0.6098 -0.5602 -0.0203
 8196SOL    HW133556   7.687   8.291   6.020  0.5691 -0.5972 -0.2028
 8196SOL    HW233557   7.807   8.234   6.092  0.9347  0.8021  0.3322
 8197SOL     OW33558   7.778   1.448   5.359  0.3001 -0.3403 -0.9545
 8197SOL    HW133559   7.709   1.487   5.413  1.2229  0.8256 -0.5758
 8197SOL    HW233560   7.733   1.380   5.308 -1.1061  0.3366 -0.6648
 8198SOL     OW33561   4.715  11.549   2.993  1.0330  0.4141  0.5942
 8198SOL    HW133562   4.712  11.516   2.903 -0.4320 -0.1668  0.8174
 8198SOL    HW233563   4.793  11.510   3.031  1.1831 -0.0478 -0.1661
 8199SOL     OW33564   0.213   6.041   6.980  0.1520  0.2920  0.2504
 8199SOL    HW133565   0.290   6.039   7.036  0.3330 -0.2125 -0.0075
 8199SOL    HW233566   0.225   6.118   6.925 -0.1595  0.9442  1.0836
 8200SOL     OW33567  12.208   7.589   1.419  0.3803  0.3246 -0.7132
 8200SOL    HW133568  12.277   7.549   1.366 -0.1017 -1.3382 -0.1316
 8200SOL    HW233569  12.147   7.626   1.355 -0.4327 -2.0610 -1.3946
 8201SOL     OW33570   2.197   1.718   8.917 -0.3275  0.2592  0.1632
 8201SOL    HW133571   2.110   1.715   8.958  0.2365 -0.0515  1.3804
 8201SOL    HW233572   2.201   1.639   8.863  0.3314 -1.4743  2.5737
 8202SOL     OW33573   7.475   5.411   4.573 -0.0826  0.3024 -0.7398
 8202SOL    HW133574   7.556   5.450   4.605  0.9786 -2.0648 -0.2588
 8202SOL    HW233575   7.499   5.373   4.488 -0.5538 -0.6992 -0.4498
 8203SOL     OW33576  10.290  10.710   9.922 -0.3074 -0.0480 -0.0503
 8203SOL    HW133577  10.218  10.705   9.859 -2.0150 -0.9140  1.8039
 8203SOL    HW233578  10.295  10.621   9.958  1.6786  0.0230 -0.0559
 8204SOL     OW33579   6.112   2.050  10.853 -0.3686 -0.2290  0.2287
 8204SOL    HW133580   6.078   2.097  10.777 -1.0439  1.7867  1.6670
 8204SOL    HW233581   6.034   2.028  10.904  0.1311  3.8415  3.2356
 8205SOL     OW33582   2.079   9.055   2.650 -0.0800 -0.1280 -0.2557
 8205SOL    HW133583   2.019   8.988   2.616  1.2535 -1.7774  0.5146
 8205SOL    HW233584   2.164   9.012   2.652  1.6304  2.7035 -3.0919
 8206SOL     OW33585   0.580   8.737   6.940  0.4205 -0.2980  0.2726
 8206SOL    HW133586   0.532   8.659   6.914 -0.9469  0.5600  0.1447
 8206SOL    HW233587   0.638   8.707   7.010 -0.5015 -1.3077  0.6265
 8207SOL     OW33588   9.550   4.033   9.444 -0.4674  0.4587 -0.3800
 8207SOL    HW133589   9.570   4.062   9.533  1.0910 -0.6159 -0.3408
 8207SOL    HW233590   9.614   4.077   9.389  0.0379 -0.5915 -0.6677
 8208SOL     OW33591   1.351   5.492  12.124 -0.1682 -0.4721  0.1013
 8208SOL    HW133592   1.429   5.437  12.113 -0.8389 -1.2616 -0.8776
 8208SOL    HW233593   1.304   5.452  12.198 -0.5465 -1.1080 -0.4722
 8209SOL     OW33594   9.407  12.293   5.343 -0.6629  0.3694 -0.5199
 8209SOL    HW133595   9.495  12.324   5.321 -0.1848  0.1024  0.9126
 8209SOL    HW233596   9.421  12.207   5.382 -1.7387 -0.5142 -1.9757
 8210SOL     OW33597   1.436  11.239   8.698 -0.4352 -0.4970 -0.3743
 8210SOL    HW133598   1.445  11.151   8.735 -1.4347  0.0371  1.2703
 8210SOL    HW233599   1.344  11.244   8.671 -0.9122  0.6046  1.2559
 8211SOL     OW33600   3.382   6.727   7.391 -0.1030 -0.1439 -0.2985
 8211SOL    HW133601   3.422   6.690   7.470  0.4239  1.1298  0.0427
 8211SOL    HW233602   3.289   6.735   7.414  0.1716  0.9386  0.4859
 8212SOL     OW33603   1.207  10.552  11.261  0.0954 -0.3816 -0.4926
 8212SOL    HW133604   1.115  10.526  11.272  0.2502 -0.5477  0.5568
 8212SOL    HW233605   1.248  10.529  11.345  0.6190  1.7243 -0.1102
 8213SOL     OW33606   6.127  10.927   1.194 -0.0341  0.3706  0.1263
 8213SOL    HW133607   6.217  10.951   1.216 -0.5028  1.3701  1.0329
 8213SOL    HW233608   6.083  11.011   1.176 -0.5187 -0.1715 -1.4293
 8214SOL     OW33609   1.482   6.907  10.045 -0.3132  0.0276  0.0048
 8214SOL    HW133610   1.403   6.857  10.068 -0.1921 -0.3842 -0.4471
 8214SOL    HW233611   1.477   6.986  10.098 -1.5710  0.4987 -0.7735
 8215SOL     OW33612   5.740   5.028  10.949 -0.3476  0.2375  0.1587
 8215SOL    HW133613   5.675   4.997  11.011 -0.0143  0.0797  0.4263
 8215SOL    HW233614   5.694   5.029  10.865 -0.3590 -1.0143  0.1296
 8216SOL     OW33615  12.513   6.655   2.483 -0.0405  0.0586 -0.5838
 8216SOL    HW133616  12.529   6.716   2.411 -1.4571  3.1998  1.4798
 8216SOL    HW233617  12.600   6.626   2.510  0.9965  3.0664 -0.2838
 8217SOL     OW33618   9.231  11.866   5.471  0.0469 -0.0389 -0.6161
 8217SOL    HW133619   9.318  11.858   5.431  0.7459 -0.2761  0.9075
 8217SOL    HW233620   9.243  11.928   5.543 -1.3513  0.9063 -1.1631
 8218SOL     OW33621   0.895   8.792   6.241 -0.0119 -0.3950  0.3039
 8218SOL    HW133622   0.938   8.869   6.278  0.0584 -0.5378  0.5221
 8218SOL    HW233623   0.885   8.812   6.148 -0.0785 -0.0827  0.3772
 8219SOL     OW33624   0.940   9.409  12.091  0.8665  0.1740 -0.0266
 8219SOL    HW133625   0.921   9.428  12.183  2.5274 -0.7055  0.5528
 8219SOL    HW233626   1.036   9.417  12.084  0.6904  1.2402 -1.9410
 8220SOL     OW33627   1.701   9.653  10.995  0.3075 -0.3669  0.0352
 8220SOL    HW133628   1.707   9.595  10.918 -1.3717  1.4216 -1.5482
 8220SOL    HW233629   1.763   9.724  10.975  0.7952 -0.5250  0.9593
 8221SOL     OW33630   3.685   3.963  12.038 -0.0639 -0.0588  0.8307
 8221SOL    HW133631   3.765   3.946  11.987 -0.6011  1.1317 -0.4839
 8221SOL    HW233632   3.708   4.036  12.095 -0.6250  1.4006 -0.7199
 8222SOL     OW33633   0.643  12.345   9.335 -0.3107 -0.4918  0.0214
 8222SOL    HW133634   0.658  12.393   9.254  0.7632 -2.2705 -0.9013
 8222SOL    HW233635   0.703  12.270   9.330 -1.2653 -1.4434  1.7899
 8223SOL     OW33636  11.464   7.010   8.860  0.5014  0.0152 -0.5660
 8223SOL    HW133637  11.456   6.982   8.769 -1.4967 -0.8606 -0.1607
 8223SOL    HW233638  11.409   7.088   8.866 -1.7242 -1.5239  0.4655
 8224SOL     OW33639   8.735   6.439   2.357 -0.3689  0.3064  0.1170
 8224SOL    HW133640   8.717   6.382   2.282  1.2990 -0.9351  0.5787
 8224SOL    HW233641   8.813   6.488   2.332 -0.1463  0.3139  0.7887
 8225SOL     OW33642   7.438   7.904  12.592  0.8307 -0.5019 -0.0193
 8225SOL    HW133643   7.502   7.873  12.528  2.4104  2.2453  0.0597
 8225SOL    HW233644   7.430   7.998  12.574 -2.5992 -0.5666  0.5446
 8226SOL     OW33645  11.787   4.178   9.526 -0.0014  0.5910 -0.2441
 8226SOL    HW133646  11.832   4.100   9.491 -0.4225  0.9776 -1.7369
 8226SOL    HW233647  11.841   4.205   9.600 -0.3942 -1.7081  0.9788
 8227SOL     OW33648   2.254   3.046   1.632 -0.2719 -0.4010 -0.0089
 8227SOL    HW133649   2.234   3.102   1.557 -0.6659  0.2517  0.5711
 8227SOL    HW233650   2.168   3.020   1.665 -0.1145 -2.5047 -1.0848
 8228SOL     OW33651   2.661   5.657   2.978  0.5204 -0.3246  0.0646
 8228SOL    HW133652   2.669   5.622   2.889  0.6950  0.5894 -0.2910
 8228SOL    HW233653   2.572   5.634   3.005 -0.0115  0.5837 -0.8773
 8229SOL     OW33654   9.729   0.912   5.330  0.2946  0.0865 -0.2471
 8229SOL    HW133655   9.687   0.925   5.245 -1.1841 -1.5179  0.1759
 8229SOL    HW233656   9.809   0.864   5.310 -0.2046 -0.5653 -0.7316
 8230SOL     OW33657   1.932  11.917  12.364  0.2068 -0.2275 -0.3581
 8230SOL    HW133658   2.018  11.924  12.405  0.3266  3.0168 -0.8968
 8230SOL    HW233659   1.870  11.939  12.433  0.1199  1.1021 -0.8278
 8231SOL     OW33660  10.278   5.543   1.373  0.3946 -0.3254 -0.3668
 8231SOL    HW133661  10.339   5.596   1.322  0.4726  0.5515  0.6026
 8231SOL    HW233662  10.250   5.601   1.444 -1.2711 -0.8262 -0.5690
 8232SOL     OW33663   9.781   7.361   8.053  0.4488 -0.5132  0.4993
 8232SOL    HW133664   9.735   7.288   8.095  0.7779 -0.6305  0.6600
 8232SOL    HW233665   9.721   7.435   8.060  0.6127 -0.4642  1.4250
 8233SOL     OW33666   9.165   7.792   0.392  0.6062 -0.4687 -0.3419
 8233SOL    HW133667   9.230   7.845   0.346  0.9036 -0.3606  0.1958
 8233SOL    HW233668   9.096   7.855   0.415 -0.6467 -0.9275 -2.6162
 8234SOL     OW33669   1.001  12.271   0.185  0.1681 -0.1307  0.0039
 8234SOL    HW133670   1.055  12.197   0.211 -0.6018 -0.4885  0.6202
 8234SOL    HW233671   1.063  12.335   0.150  0.8863 -0.8774 -0.1028
 8235SOL     OW33672   2.746   9.528   4.365  0.1863  0.3825 -0.5179
 8235SOL    HW133673   2.817   9.511   4.304  0.6969  1.8069 -0.3664
 8235SOL    HW233674   2.768   9.477   4.443 -0.0884 -0.8597 -1.2276
 8236SOL     OW33675   7.327   5.615   6.298 -0.1602  0.1931  0.1772
 8236SOL    HW133676   7.406   5.571   6.266 -0.2805 -0.4652  0.7644
 8236SOL    HW233677   7.255   5.559   6.268 -0.3927  0.6722 -0.1678
 8237SOL     OW33678  11.061  10.090  10.569 -0.8142  0.0570 -0.1239
 8237SOL    HW133679  11.157  10.097  10.567 -0.5975 -1.9196  0.8673
 8237SOL    HW233680  11.031  10.156  10.506  1.1185  1.6406  0.5241
 8238SOL     OW33681   2.235  11.605  10.790 -0.0556 -0.2940 -0.6137
 8238SOL    HW133682   2.327  11.622  10.770  0.5407 -0.2102  1.8878
 8238SOL    HW233683   2.222  11.513  10.769  0.2636 -0.0287 -2.0429
 8239SOL     OW33684  10.872   5.980  11.899 -0.5599 -0.3651  0.5690
 8239SOL    HW133685  10.877   6.063  11.946  0.7914 -0.2362  0.2448
 8239SOL    HW233686  10.963   5.958  11.880 -1.0350 -0.3668 -2.0571
 8240SOL     OW33687   1.048  12.565   9.050 -0.5341  0.5187 -0.0784
 8240SOL    HW133688   1.092  12.491   9.007 -1.1341 -0.3233  0.7179
 8240SOL    HW233689   1.054  12.636   8.986  3.4116  0.9892  0.6206
 8241SOL     OW33690  10.813   3.589   5.821 -0.2327  0.3991 -0.2258
 8241SOL    HW133691  10.808   3.659   5.886 -0.2122 -0.2579  0.5007
 8241SOL    HW233692  10.812   3.635   5.737 -0.1155  1.2767  0.2311
 8242SOL     OW33693  11.116   6.231   7.777  0.2206  0.1692 -0.2460
 8242SOL    HW133694  11.034   6.267   7.812 -0.7091 -0.5596 -1.5769
 8242SOL    HW233695  11.106   6.136   7.787  1.5716  0.1200  0.9536
 8243SOL     OW33696   9.160   1.652   9.976 -0.2015 -0.1366  0.0543
 8243SOL    HW133697   9.216   1.717  10.019 -0.2079 -1.0369  1.4778
 8243SOL    HW233698   9.202   1.568   9.994 -0.7639 -0.6294 -0.8625
 8244SOL     OW33699   5.317   9.782  11.346 -0.9563 -0.3994 -0.1462
 8244SOL    HW133700   5.272   9.697  11.351 -1.6467  0.0179  1.4573
 8244SOL    HW233701   5.403   9.766  11.384 -1.2937 -0.2912  0.7071
 8245SOL     OW33702   3.169   5.572   7.439 -0.1793  0.2494  0.4634
 8245SOL    HW133703   3.198   5.662   7.425  0.8837 -0.2046 -0.3682
 8245SOL    HW233704   3.109   5.555   7.365 -0.3735  0.2639  0.6160
 8246SOL     OW33705   9.343   8.392  11.524 -0.0443  0.2454  0.2236
 8246SOL    HW133706   9.375   8.478  11.496 -0.1096  0.4414  0.7417
 8246SOL    HW233707   9.365   8.388  11.617  0.6104 -0.6027  0.0402
 8247SOL     OW33708  12.016  10.355   5.281  0.6643  0.5886 -0.1010
 8247SOL    HW133709  11.988  10.288   5.219 -2.3560  1.1205  0.5644
 8247SOL    HW233710  12.036  10.431   5.227  0.2022  0.3730 -0.5842
 8248SOL     OW33711  11.648   0.474   2.997 -0.2335 -0.2784  0.6400
 8248SOL    HW133712  11.624   0.417   2.924 -0.1569 -2.0401  1.9331
 8248SOL    HW233713  11.691   0.416   3.060 -4.4716  0.0096  4.2887
 8249SOL     OW33714   4.659   7.657   1.420 -0.1997 -0.3457  0.2543
 8249SOL    HW133715   4.691   7.604   1.348  0.4746  1.1533 -0.5933
 8249SOL    HW233716   4.572   7.687   1.392  0.1764  0.4619 -0.0737
 8250SOL     OW33717   2.109  10.306   4.634 -0.2921  0.2218 -0.3961
 8250SOL    HW133718   2.146  10.315   4.546  0.4640 -0.9437 -0.2321
 8250SOL    HW233719   2.016  10.290   4.620 -0.2571  0.5106 -0.9621
 8251SOL     OW33720   9.550   9.175   8.772  0.2528  0.3439  0.1360
 8251SOL    HW133721   9.583   9.090   8.802 -1.5012 -0.3185  0.2576
 8251SOL    HW233722   9.499   9.156   8.694 -1.1016  1.1113  0.7978
 8252SOL     OW33723  10.074   9.038   4.117 -0.4852  0.3901  0.2071
 8252SOL    HW133724   9.986   9.029   4.081 -0.6929  0.0108  0.8042
 8252SOL    HW233725  10.121   8.962   4.082 -0.3591  0.6506 -0.1996
 8253SOL     OW33726   7.566   1.900   8.693 -0.4033 -0.0996  0.0219
 8253SOL    HW133727   7.605   1.828   8.741 -1.5544 -1.4374 -0.9762
 8253SOL    HW233728   7.476   1.871   8.675 -0.6078  1.1895 -1.1992
 8254SOL     OW33729   0.511  10.817   0.863  0.2535  0.5411  0.0967
 8254SOL    HW133730   0.595  10.855   0.836 -0.6869  1.6946 -1.4019
 8254SOL    HW233731   0.482  10.766   0.787 -0.0427 -0.5279  0.8988
 8255SOL     OW33732  11.434   0.490  12.229 -0.3706  0.1932  0.0164
 8255SOL    HW133733  11.456   0.404  12.193 -0.3584 -0.5389  1.6584
 8255SOL    HW233734  11.482   0.552  12.175  0.0543 -0.8773 -0.8650
 8256SOL     OW33735  11.233   0.388   6.869  1.2381 -0.2787 -0.4105
 8256SOL    HW133736  11.260   0.478   6.883 -0.5380  0.4827 -1.5918
 8256SOL    HW233737  11.267   0.366   6.782 -0.2696  0.0568 -1.1058
 8257SOL     OW33738  12.272   0.299   0.112 -0.2560  0.7366  0.1759
 8257SOL    HW133739  12.199   0.278   0.054  0.1760  0.1176 -0.1612
 8257SOL    HW233740  12.350   0.283   0.059  0.1636 -0.4667  1.1042
 8258SOL     OW33741   3.615   4.490   0.417  0.3747 -0.4250 -0.2666
 8258SOL    HW133742   3.601   4.429   0.345 -3.5062  0.1465 -0.1973
 8258SOL    HW233743   3.586   4.441   0.495 -1.1523  0.8572  0.0143
 8259SOL     OW33744   8.885   1.025   1.771  0.0991 -0.2860 -0.3909
 8259SOL    HW133745   8.818   1.092   1.758  0.2087 -0.3791 -1.5277
 8259SOL    HW233746   8.942   1.033   1.695  1.4228 -0.1814  0.5695
 8260SOL     OW33747   6.810   6.969   2.233  0.1090  0.6576  0.3549
 8260SOL    HW133748   6.754   7.042   2.206 -0.1556  1.3743  2.6330
 8260SOL    HW233749   6.762   6.891   2.206 -1.6619  1.2763  1.5430
 8261SOL     OW33750   3.347   2.249   3.950 -0.1909 -0.1791  0.7927
 8261SOL    HW133751   3.311   2.306   4.018  0.6658  0.4006  0.7688
 8261SOL    HW233752   3.439   2.274   3.944 -0.1872 -0.4229 -0.3763
 8262SOL     OW33753   1.965   6.654   9.754 -0.2378  0.2345 -0.1187
 8262SOL    HW133754   1.883   6.703   9.754  0.1805  0.9704 -0.7361
 8262SOL    HW233755   2.030   6.716   9.786  0.4838  0.4704 -1.8884
 8263SOL     OW33756   7.315   9.741   2.095 -0.2146  0.3005 -0.6700
 8263SOL    HW133757   7.306   9.812   2.158  1.3144  1.6725 -1.9130
 8263SOL    HW233758   7.225   9.713   2.078 -0.6935 -0.0687  1.9722
 8264SOL     OW33759   3.477   3.371   4.458 -0.4897  0.1511  0.3551
 8264SOL    HW133760   3.561   3.352   4.416 -1.2489  2.0617 -2.2727
 8264SOL    HW233761   3.417   3.305   4.422 -0.7790  0.7505 -0.2745
 8265SOL     OW33762   1.954   3.686   2.367 -0.3888  0.1086  0.7714
 8265SOL    HW133763   1.974   3.598   2.399  0.0899 -0.2173 -0.3826
 8265SOL    HW233764   2.013   3.743   2.416  2.7841 -0.7161 -1.7697
 8266SOL     OW33765   7.479  12.129   5.761 -0.2258 -0.4194  0.7671
 8266SOL    HW133766   7.429  12.049   5.773 -1.9776  0.4060 -0.6110
 8266SOL    HW233767   7.437  12.173   5.687  1.7456  0.9599  0.3867
 8267SOL     OW33768   2.734   2.778  11.347 -0.1823 -0.1123  0.7381
 8267SOL    HW133769   2.716   2.685  11.339  0.9027 -0.2272 -0.5864
 8267SOL    HW233770   2.829   2.785  11.342 -0.2985  1.1579 -0.3683
 8268SOL     OW33771   4.191   6.607   2.969 -0.1443  0.3257 -0.1631
 8268SOL    HW133772   4.228   6.687   2.930 -0.9865  0.7419 -0.1376
 8268SOL    HW233773   4.197   6.542   2.900  2.3040 -0.1568  0.4189
 8269SOL     OW33774   7.741   7.391   3.801  0.1021 -0.1882  0.4020
 8269SOL    HW133775   7.675   7.348   3.747  1.5196 -1.1513 -0.6191
 8269SOL    HW233776   7.713   7.374   3.891 -1.1836 -0.3142 -0.0019
 8270SOL     OW33777   4.185   7.103   1.307  0.1473  0.1114 -0.2488
 8270SOL    HW133778   4.126   7.054   1.250 -0.8770  1.5563 -0.4825
 8270SOL    HW233779   4.247   7.038   1.340 -0.9746 -1.2624 -0.7809
 8271SOL     OW33780   5.039   8.286   4.472  0.3038  0.0520 -0.3008
 8271SOL    HW133781   5.092   8.252   4.401 -0.6228 -0.2660 -0.8622
 8271SOL    HW233782   4.949   8.271   4.444 -0.1010  1.1847  0.3217
 8272SOL     OW33783   2.816  12.563   8.035 -0.1790  0.0637 -0.0582
 8272SOL    HW133784   2.886  12.555   8.100  0.2775  0.8626 -0.4384
 8272SOL    HW233785   2.828  12.650   7.998  0.3599 -0.8391 -2.1188
 8273SOL     OW33786   3.623   0.648   6.822  0.2139  0.4921 -1.0127
 8273SOL    HW133787   3.610   0.716   6.756  2.0119  0.5444 -1.3652
 8273SOL    HW233788   3.708   0.610   6.801  0.3669 -0.1870  0.6700
 8274SOL     OW33789  10.842   0.521   0.115 -0.3015 -0.6460  0.6310
 8274SOL    HW133790  10.830   0.481   0.029 -0.4982  1.0437 -0.1606
 8274SOL    HW233791  10.930   0.493   0.143  1.0438  1.1489 -1.4864
 8275SOL     OW33792   6.253   9.408  11.946  0.1865 -0.0752 -0.3116
 8275SOL    HW133793   6.233   9.497  11.918 -0.5502 -0.1721 -0.1208
 8275SOL    HW233794   6.239   9.354  11.868  1.4225  0.0638 -0.6499
 8276SOL     OW33795   1.536   5.777   0.555  0.6404  0.1102 -0.3093
 8276SOL    HW133796   1.449   5.788   0.592  0.9101 -0.9131  0.7167
 8276SOL    HW233797   1.578   5.713   0.612  2.4762  1.4387 -0.0779
 8277SOL     OW33798  11.193   9.308   5.531 -0.1796 -0.1108 -0.2135
 8277SOL    HW133799  11.214   9.324   5.438 -1.9044 -0.6213 -0.7242
 8277SOL    HW233800  11.217   9.217   5.545  3.2370  0.8025  0.8337
 8278SOL     OW33801   2.544   1.035   6.058 -0.9226  0.0891 -0.8005
 8278SOL    HW133802   2.582   0.947   6.059  2.4582  1.4181 -0.7636
 8278SOL    HW233803   2.550   1.062   5.966 -0.0014  0.9981 -0.4874
 8279SOL     OW33804  11.155   4.289   3.000  0.6421 -0.0262 -0.1083
 8279SOL    HW133805  11.074   4.322   3.040  1.1357  0.4591  0.5050
 8279SOL    HW233806  11.159   4.334   2.915  0.9777  1.0366  0.4530
 8280SOL     OW33807   8.736  12.375   4.557  0.0256  0.0689  0.0303
 8280SOL    HW133808   8.817  12.417   4.528  1.7281 -2.3835  0.9790
 8280SOL    HW233809   8.724  12.302   4.496 -0.4221 -0.7332  1.0645
 8281SOL     OW33810  10.311  10.730   8.873  0.5563 -0.9962 -0.8537
 8281SOL    HW133811  10.381  10.717   8.937 -0.1850 -0.0309  0.1935
 8281SOL    HW233812  10.298  10.825   8.871 -1.4609 -1.2222 -0.1946
 8282SOL     OW33813   7.283   5.849   8.822 -0.6415  0.4814  0.1967
 8282SOL    HW133814   7.237   5.910   8.764 -0.9740  0.7198  0.7080
 8282SOL    HW233815   7.249   5.868   8.909  0.3177  0.5626  0.5704
 8283SOL     OW33816   3.473   0.161   5.460 -0.1690 -0.0837  0.4912
 8283SOL    HW133817   3.463   0.186   5.552  0.5513 -0.7979  0.7737
 8283SOL    HW233818   3.568   0.151   5.448 -0.3889 -2.2617  0.2885
 8284SOL     OW33819   8.950   9.380   9.001 -0.1692  0.2645  0.0695
 8284SOL    HW133820   8.912   9.448   9.056  1.0114 -0.5431  1.9651
 8284SOL    HW233821   9.011   9.334   9.058  1.0160 -0.7230 -1.8901
 8285SOL     OW33822   6.555   5.096   8.676 -0.0039  0.0955 -0.1467
 8285SOL    HW133823   6.642   5.057   8.669  0.1939  0.6725 -1.0925
 8285SOL    HW233824   6.511   5.070   8.596 -0.6587 -0.0669  0.2611
 8286SOL     OW33825   4.689   6.799   9.295  0.1470 -0.2136 -0.3589
 8286SOL    HW133826   4.650   6.717   9.264  0.1154 -0.0729 -0.6963
 8286SOL    HW233827   4.713   6.781   9.386 -0.6214 -0.3276 -0.1717
 8287SOL     OW33828  12.285   4.982   8.393 -0.5281 -0.3720  0.1887
 8287SOL    HW133829  12.253   4.901   8.351  0.2850 -0.0246 -1.1596
 8287SOL    HW233830  12.340   4.951   8.465 -2.1963 -0.9884  1.2609
 8288SOL     OW33831   3.328   0.925   8.482  0.2133 -0.5339 -0.0069
 8288SOL    HW133832   3.262   0.879   8.533 -0.6098 -0.8830 -1.3382
 8288SOL    HW233833   3.410   0.913   8.531 -0.6670 -0.1938  1.6004
 8289SOL     OW33834   4.809   8.100   0.764 -0.0729  0.5149  0.1252
 8289SOL    HW133835   4.754   8.021   0.768 -0.4311  0.7685  0.2825
 8289SOL    HW233836   4.747   8.172   0.769  0.3254  0.8089  0.9014
 8290SOL     OW33837  12.264   7.838   5.147  0.2777  0.5529  0.0362
 8290SOL    HW133838  12.211   7.792   5.082 -0.3477 -0.6169  1.2976
 8290SOL    HW233839  12.295   7.916   5.103  1.7759 -1.2647 -2.4098
 8291SOL     OW33840   1.088   2.203   3.580 -0.5345 -0.3039 -0.2482
 8291SOL    HW133841   1.102   2.290   3.544 -2.3590 -0.3773 -1.2668
 8291SOL    HW233842   1.121   2.144   3.513 -0.9120 -0.4038 -0.3506
 8292SOL     OW33843   5.638  10.933   6.487  0.7831 -0.2141 -0.3731
 8292SOL    HW133844   5.565  10.894   6.535  0.7641  0.8550  0.5085
 8292SOL    HW233845   5.651  11.019   6.528  0.9216  0.6523 -2.1388
 8293SOL     OW33846   3.924   4.955   0.193  0.1681 -0.7718  0.6596
 8293SOL    HW133847   3.907   5.029   0.250 -0.7094 -0.3594 -0.1183
 8293SOL    HW233848   4.014   4.930   0.213  0.6576  0.8230  0.5826
 8294SOL     OW33849   8.434   3.672   0.495 -0.2071 -0.5788 -0.3933
 8294SOL    HW133850   8.347   3.650   0.528 -0.8710  0.5428 -1.3179
 8294SOL    HW233851   8.479   3.588   0.488 -1.9457 -1.4564 -1.9299
 8295SOL     OW33852   2.200   9.024   3.427 -0.2910 -0.4394 -0.3249
 8295SOL    HW133853   2.257   9.002   3.354 -0.2067 -2.2464  0.2438
 8295SOL    HW233854   2.114   8.991   3.401  0.0585 -2.5546  0.9935
 8296SOL     OW33855   2.302   8.679  11.744 -0.2980 -0.0428  0.2171
 8296SOL    HW133856   2.226   8.633  11.780 -0.0350  0.0717  0.9359
 8296SOL    HW233857   2.328   8.740  11.814 -0.8452  1.4503 -0.8140
 8297SOL     OW33858   1.752  11.972   8.531 -0.5885 -0.3472 -0.2167
 8297SOL    HW133859   1.740  11.969   8.436 -1.7104  0.0451 -0.1094
 8297SOL    HW233860   1.792  12.057   8.547 -2.9289  0.8158 -0.1416
 8298SOL     OW33861   7.796   6.411   8.531  0.0562  0.1850 -0.8513
 8298SOL    HW133862   7.706   6.377   8.530 -0.0063  0.3499 -0.8597
 8298SOL    HW233863   7.841   6.358   8.597 -0.4428  1.1184  0.2787
 8299SOL     OW33864  11.729   8.928  10.224  0.0106 -0.6278 -0.1748
 8299SOL    HW133865  11.820   8.896  10.230  0.0248 -0.5957 -0.2200
 8299SOL    HW233866  11.738   9.022  10.209 -0.0362 -0.2370  1.8932
 8300SOL     OW33867   3.167   6.266  11.739 -0.5103  0.1120 -0.4459
 8300SOL    HW133868   3.107   6.305  11.803  0.8833 -0.0048  1.0073
 8300SOL    HW233869   3.159   6.321  11.661  0.7253  2.8323  1.2123
 8301SOL     OW33870   9.920   4.096   7.594  0.7649 -0.0368 -0.4065
 8301SOL    HW133871   9.871   4.059   7.520  1.6938 -1.3550 -0.4050
 8301SOL    HW233872   9.902   4.036   7.666 -0.6692  1.5949  0.6887
 8302SOL     OW33873   9.234   1.068   8.245 -0.2428 -0.4908 -0.3431
 8302SOL    HW133874   9.205   1.143   8.298 -0.0577 -1.4904  1.2133
 8302SOL    HW233875   9.287   1.015   8.304 -0.3330 -1.8417 -1.4274
 8303SOL     OW33876   4.679   2.417  11.322  0.1923  0.2138 -0.7325
 8303SOL    HW133877   4.761   2.369  11.311  0.3124  0.5876 -1.4983
 8303SOL    HW233878   4.626   2.361  11.379  1.3384  0.4066  0.5888
 8304SOL     OW33879   6.310   7.413   1.500  0.3764 -0.0511 -0.2836
 8304SOL    HW133880   6.325   7.482   1.435 -2.2064  0.5521 -0.3351
 8304SOL    HW233881   6.332   7.332   1.455  1.6936  0.5566 -0.8074
 8305SOL     OW33882   7.833  10.859   3.802  0.3397  0.3197 -0.0274
 8305SOL    HW133883   7.890  10.882   3.729 -0.1272 -0.5505 -0.6801
 8305SOL    HW233884   7.877  10.787   3.846  0.8167  1.1075  0.8033
 8306SOL     OW33885   6.712  10.438   6.707 -0.1167 -0.1511  0.0482
 8306SOL    HW133886   6.803  10.468   6.703 -0.6565  1.4688 -2.6049
 8306SOL    HW233887   6.686  10.450   6.798  2.8060 -2.4599  1.3363
 8307SOL     OW33888  12.397   4.922   4.789  0.3710  0.2328  0.1237
 8307SOL    HW133889  12.342   4.999   4.778 -0.9292 -0.4173  1.6547
 8307SOL    HW233890  12.337   4.853   4.817  1.2617 -1.7695 -2.5507
 8308SOL     OW33891   1.381   4.802   4.908 -0.0857 -0.6033 -0.2183
 8308SOL    HW133892   1.300   4.808   4.959  0.0057  0.1892 -0.1465
 8308SOL    HW233893   1.446   4.849   4.961 -0.2984  1.4193 -1.6142
 8309SOL     OW33894   6.925   0.267  11.143  0.6082  0.1444  0.6233
 8309SOL    HW133895   6.935   0.174  11.163 -0.4943  0.3277  2.1901
 8309SOL    HW233896   7.001   0.308  11.184  1.8513 -0.1685 -1.2509
 8310SOL     OW33897  11.761   0.847   4.398 -0.4129  0.2437  0.0461
 8310SOL    HW133898  11.705   0.917   4.363 -0.2891 -0.2452 -1.1801
 8310SOL    HW233899  11.794   0.882   4.480  0.3464  1.9928 -0.9523
 8311SOL     OW33900  11.687   3.434   6.403 -0.2756  0.4992  0.1360
 8311SOL    HW133901  11.594   3.446   6.384 -0.7222 -0.8553  1.2871
 8311SOL    HW233902  11.693   3.347   6.442  1.5422  0.3943 -0.2656
 8312SOL     OW33903  11.870   7.520   2.328 -0.8436  0.9167 -0.0044
 8312SOL    HW133904  11.869   7.491   2.236  0.4442  0.3809  0.1416
 8312SOL    HW233905  11.793   7.477   2.366 -1.0550  0.6600 -0.6859
 8313SOL     OW33906   4.464   8.755   6.848  0.1475 -0.5280  0.1844
 8313SOL    HW133907   4.486   8.846   6.867 -1.3372 -0.4117  1.5069
 8313SOL    HW233908   4.443   8.755   6.754  0.3871  0.4252  0.1197
 8314SOL     OW33909   0.098  12.210   4.895  0.4818 -0.0727 -0.1037
 8314SOL    HW133910   0.132  12.121   4.907 -0.3299 -0.5929 -1.4180
 8314SOL    HW233911   0.154  12.248   4.827  0.8363  0.4328  0.4661
 8315SOL     OW33912  12.478   4.673  12.041 -0.3200 -0.7528 -0.4531
 8315SOL    HW133913  12.419   4.685  12.115 -0.1026 -0.2194 -0.3588
 8315SOL    HW233914  12.420   4.663  11.965 -0.6020 -3.2461  0.0104
 8316SOL     OW33915   0.569  11.469  11.880 -0.5859 -0.1459  0.5337
 8316SOL    HW133916   0.521  11.550  11.897 -0.2471 -0.1589  1.6466
 8316SOL    HW233917   0.653  11.499  11.844  0.0179  0.1002  2.0477
 8317SOL     OW33918  10.207   4.333   8.906 -0.4994  0.1341  0.0600
 8317SOL    HW133919  10.210   4.359   8.814  2.2884 -2.3762 -0.7355
 8317SOL    HW233920  10.268   4.393   8.950  0.5039 -0.5331 -0.3795
 8318SOL     OW33921   1.587   2.126  12.312 -0.2908 -0.4482  0.5837
 8318SOL    HW133922   1.610   2.049  12.259  1.6481  1.0443 -0.8744
 8318SOL    HW233923   1.524   2.174  12.258 -1.4693 -0.9356  1.4733
 8319SOL     OW33924   5.596   2.329   6.492  0.0505 -0.0031  0.8804
 8319SOL    HW133925   5.690   2.325   6.508 -0.3554 -0.7651  3.7811
 8319SOL    HW233926   5.557   2.286   6.569 -2.7156  1.6452  0.5420
 8320SOL     OW33927   8.932   3.074   0.494 -0.3689  0.3808 -0.1109
 8320SOL    HW133928   8.868   3.003   0.490 -0.2352  0.2917 -0.7575
 8320SOL    HW233929   8.929   3.115   0.407  0.9120 -0.0369 -0.3720
 8321SOL     OW33930  12.510   6.338   6.501  0.1442 -0.3677 -0.1629
 8321SOL    HW133931  12.566   6.305   6.571 -0.0669 -2.0673 -0.7327
 8321SOL    HW233932  12.507   6.433   6.514  2.5606 -0.3001  0.2954
 8322SOL     OW33933   9.509   4.419   5.387 -0.1396 -0.3602  0.3315
 8322SOL    HW133934   9.580   4.401   5.325 -0.2356 -1.9913  0.6702
 8322SOL    HW233935   9.507   4.343   5.445 -1.9773 -0.2048  0.5269
 8323SOL     OW33936   5.441   1.036   4.391 -0.0395  0.2577 -0.1582
 8323SOL    HW133937   5.391   0.972   4.341 -1.2250  0.2941  0.9412
 8323SOL    HW233938   5.486   0.984   4.458 -0.0178  0.4270 -0.0411
 8324SOL     OW33939   3.074   3.961   7.496  0.6747  0.1488  0.0100
 8324SOL    HW133940   2.980   3.959   7.482  0.8199 -2.1504 -1.2489
 8324SOL    HW233941   3.091   3.883   7.549  1.8925  0.3196 -0.1075
 8325SOL     OW33942   3.707  10.707   5.596 -0.1829  0.0904 -0.1695
 8325SOL    HW133943   3.672  10.738   5.680  0.0267  0.0248 -0.0575
 8325SOL    HW233944   3.682  10.775   5.533  1.8436  1.4283  0.3687
 8326SOL     OW33945   2.047   9.609   3.091  0.4018  0.6569  0.3960
 8326SOL    HW133946   2.132   9.625   3.050  0.8991 -0.6534  0.8588
 8326SOL    HW233947   2.024   9.520   3.065 -0.2788  0.5776  1.2083
 8327SOL     OW33948   3.789  12.276   6.886  0.3323  0.3393  0.1287
 8327SOL    HW133949   3.879  12.244   6.889  0.1440 -0.1830  0.5120
 8327SOL    HW233950   3.751  12.231   6.811  0.7529  1.5808 -0.8515
 8328SOL     OW33951   0.010   5.670   2.777  0.3140 -0.5095  0.0758
 8328SOL    HW133952  -0.004   5.576   2.787 -1.4036 -0.1795  1.2879
 8328SOL    HW233953   0.063   5.695   2.853  0.5661 -0.4483 -0.1169
 8329SOL     OW33954   3.673   2.797   1.367 -0.6518  0.2667 -0.3403
 8329SOL    HW133955   3.637   2.804   1.455  1.0919  0.5041  0.3913
 8329SOL    HW233956   3.608   2.745   1.319 -0.8859 -1.2715  1.5236
 8330SOL     OW33957  10.290   2.850   3.510  0.2561  0.5151 -0.1115
 8330SOL    HW133958  10.196   2.833   3.507  0.1528  1.0580 -0.1461
 8330SOL    HW233959  10.298   2.944   3.490  0.9258  0.1304 -1.9267
 8331SOL     OW33960   5.200   4.974   8.822 -0.5900  0.1989 -0.2565
 8331SOL    HW133961   5.202   5.069   8.831 -0.3945  0.1411  0.3313
 8331SOL    HW233962   5.284   4.952   8.783 -0.8363  0.3108 -0.8594
 8332SOL     OW33963   5.430   6.930  11.725 -0.0982  0.3780 -0.2208
 8332SOL    HW133964   5.443   6.944  11.819 -0.4109  1.1768 -0.2924
 8332SOL    HW233965   5.376   6.852  11.719  0.5850 -0.1399  0.2379
 8333SOL     OW33966   4.393  10.079   8.226  0.3998  0.4663 -0.6374
 8333SOL    HW133967   4.384  10.151   8.288  0.3949 -0.5409  0.5739
 8333SOL    HW233968   4.485  10.052   8.233  0.3952  0.3277 -1.0595
 8334SOL     OW33969  11.004   6.694  10.419  0.2657  0.7512  0.3317
 8334SOL    HW133970  10.955   6.752  10.478  1.9153  1.6442  0.8949
 8334SOL    HW233971  11.032   6.621  10.475 -0.6032  0.0933 -0.0550
 8335SOL     OW33972  11.430   3.612  11.740  0.1873 -0.2377  0.3289
 8335SOL    HW133973  11.421   3.537  11.681 -1.9794 -1.1796  1.7206
 8335SOL    HW233974  11.517   3.647  11.721  0.3316 -1.6446 -2.0355
 8336SOL     OW33975   0.086  10.501   3.117  0.0726  0.3195 -0.1421
 8336SOL    HW133976   0.162  10.464   3.073 -0.7371 -0.5070 -0.8612
 8336SOL    HW233977   0.048  10.428   3.165 -0.2484  0.7484  0.2674
 8337SOL     OW33978   0.831   3.625   8.213 -0.0524  0.6415  0.3793
 8337SOL    HW133979   0.907   3.642   8.268  1.5634  0.8202 -1.7721
 8337SOL    HW233980   0.791   3.547   8.251  1.9312 -0.2041  0.8824
 8338SOL     OW33981  10.679   2.166   5.003  0.6552 -0.3138  0.0255
 8338SOL    HW133982  10.608   2.208   5.050 -0.4946 -0.6362 -1.3504
 8338SOL    HW233983  10.752   2.229   5.008 -0.1905  0.6777  0.2225
 8339SOL     OW33984  11.230   0.715   3.211  0.2449  0.6731  0.1317
 8339SOL    HW133985  11.258   0.725   3.120  1.4169  2.8152  0.6507
 8339SOL    HW233986  11.308   0.737   3.262 -0.4060 -0.4258  1.6855
 8340SOL     OW33987  10.281   2.187   4.725 -0.1789 -0.7555  0.4201
 8340SOL    HW133988  10.273   2.252   4.655 -2.5112 -0.0278  1.2437
 8340SOL    HW233989  10.356   2.216   4.776 -1.0004  1.2227  0.6181
 8341SOL     OW33990   7.792   9.839   5.297  0.5342 -0.3470  0.3734
 8341SOL    HW133991   7.849   9.801   5.364 -0.1415 -0.9707  0.6079
 8341SOL    HW233992   7.834   9.922   5.274  1.2217 -0.5223  0.9589
 8342SOL     OW33993   8.465   0.546  12.024 -0.1508  0.2200  0.1464
 8342SOL    HW133994   8.514   0.469  11.995  0.9267 -0.5863  3.5672
 8342SOL    HW233995   8.398   0.558  11.958  1.0481 -2.2804 -1.6960
 8343SOL     OW33996   5.291   1.032  12.073 -0.2935 -0.0327  0.9041
 8343SOL    HW133997   5.278   1.086  12.151  0.1677  2.4023 -0.5662
 8343SOL    HW233998   5.209   1.039  12.025 -0.2590 -0.7574  0.7292
 8344SOL     OW33999   8.168  11.361   0.827  0.6729 -0.9385  0.3719
 8344SOL    HW134000   8.237  11.420   0.858 -0.0055 -0.1094  0.3591
 8344SOL    HW234001   8.180  11.357   0.732 -0.7537  1.2370 -0.0014
 8345SOL     OW34002   8.505   0.862   0.845 -0.6250  0.0995  0.0131
 8345SOL    HW134003   8.453   0.798   0.797 -1.9679  0.6399  0.6843
 8345SOL    HW234004   8.585   0.871   0.794 -1.0119 -1.0590 -0.8442
 8346SOL     OW34005   6.723   9.267   2.551  0.5483  0.0017 -0.4476
 8346SOL    HW134006   6.743   9.324   2.625 -1.0240  1.8076 -1.3137
 8346SOL    HW234007   6.657   9.207   2.584  0.3252  0.3785 -0.1948
 8347SOL     OW34008   1.538  10.017   8.486  0.0136  0.0871 -0.2055
 8347SOL    HW134009   1.477  10.062   8.544  0.8174 -0.4552  1.0843
 8347SOL    HW234010   1.482   9.960   8.432 -0.7792  0.9348 -0.2996
 8348SOL     OW34011   7.019   9.207   1.406 -0.0127 -0.0925  0.3152
 8348SOL    HW134012   7.037   9.237   1.317 -0.9696  3.1014  1.0763
 8348SOL    HW234013   7.019   9.111   1.399  0.8251  0.0099 -2.8976
 8349SOL     OW34014  10.815   4.853   3.315  0.1810  0.2977  0.0310
 8349SOL    HW134015  10.751   4.815   3.375 -1.4877  0.3912 -1.6128
 8349SOL    HW234016  10.798   4.947   3.318  0.0969  0.3066 -0.5609
 8350SOL     OW34017   2.838  12.166   8.474  0.2140  0.3116  0.1894
 8350SOL    HW134018   2.905  12.117   8.521 -0.2267 -0.7215 -0.2422
 8350SOL    HW234019   2.832  12.124   8.388 -2.3833 -0.9706  0.8862
 8351SOL     OW34020   1.782  10.028  12.295  0.6046  0.0128 -0.4414
 8351SOL    HW134021   1.781   9.972  12.218 -0.1957  0.0459 -0.4671
 8351SOL    HW234022   1.771   9.969  12.369  0.1316  0.0916 -0.4432
 8352SOL     OW34023   2.577   2.174   9.008 -0.3979 -0.7513  0.5260
 8352SOL    HW134024   2.491   2.173   9.050 -1.6994  0.4301 -1.8982
 8352SOL    HW234025   2.572   2.107   8.940  0.4467 -0.3402  0.0358
 8353SOL     OW34026   3.157  10.877   6.440  0.0753 -0.0436 -0.1731
 8353SOL    HW134027   3.104  10.870   6.361  0.5175 -0.2158 -0.4580
 8353SOL    HW234028   3.245  10.850   6.413  0.9216  2.5312 -0.3278
 8354SOL     OW34029   5.961  10.052   0.673 -0.1001 -0.1313 -0.1436
 8354SOL    HW134030   5.972  10.137   0.629  0.2043 -0.0145  0.1538
 8354SOL    HW234031   5.867  10.046   0.690 -0.1835 -0.0477 -0.5467
 8355SOL     OW34032   4.122   9.645   3.174  0.2058 -0.1834  0.3777
 8355SOL    HW134033   4.123   9.740   3.187 -1.6322 -0.0686 -0.0145
 8355SOL    HW234034   4.126   9.608   3.262 -0.1202  0.2868  0.5893
 8356SOL     OW34035   7.975  12.290   1.029 -0.0531 -0.0989  0.1590
 8356SOL    HW134036   7.938  12.217   0.979  1.6784 -1.6137  0.9822
 8356SOL    HW234037   7.963  12.265   1.121 -0.3582  1.1591  0.4803
 8357SOL     OW34038   1.350   9.137   5.391 -0.6896  0.4877  0.4075
 8357SOL    HW134039   1.383   9.224   5.369  0.2136  0.1544  0.4014
 8357SOL    HW234040   1.364   9.085   5.312 -1.8221  0.4866  0.1901
 8358SOL     OW34041   5.206  11.198   4.222  0.1330 -0.2496  0.6657
 8358SOL    HW134042   5.144  11.156   4.282  0.7773  1.3755  2.6030
 8358SOL    HW234043   5.290  11.156   4.241 -0.0353 -1.2521 -0.7170
 8359SOL     OW34044   0.621   5.980   7.131 -0.0795  0.7419  0.4456
 8359SOL    HW134045   0.696   5.974   7.190  0.4885  1.4491 -0.1798
 8359SOL    HW234046   0.628   5.903   7.075  0.1615  0.7817  0.4191
 8360SOL     OW34047   3.446   6.104   7.242  0.2641  0.2836 -0.4994
 8360SOL    HW134048   3.467   6.085   7.334  0.2386  0.0005 -0.5495
 8360SOL    HW234049   3.510   6.170   7.216  2.0769 -1.5716 -1.0604
 8361SOL     OW34050  11.224   5.228   5.913  0.8181  0.2392 -0.7126
 8361SOL    HW134051  11.261   5.316   5.921 -0.1211  0.5886 -0.0498
 8361SOL    HW234052  11.178   5.214   5.996  0.8165 -0.8181 -0.8779
 8362SOL     OW34053   3.115  11.037   9.272  0.1847  0.1723 -0.4503
 8362SOL    HW134054   3.164  10.985   9.209 -0.6815  0.2470 -1.2058
 8362SOL    HW234055   3.102  10.978   9.346  0.7526 -0.0920 -0.5523
 8363SOL     OW34056   1.357  11.327   4.303 -0.1149  0.8014 -0.0788
 8363SOL    HW134057   1.349  11.254   4.364  0.5734  1.2686  0.5943
 8363SOL    HW234058   1.312  11.400   4.347  0.7992  1.2699  0.1082
 8364SOL     OW34059   1.262   0.727   3.902 -0.3294 -0.3491 -0.0372
 8364SOL    HW134060   1.229   0.784   3.833 -2.2653  0.5228  1.5206
 8364SOL    HW234061   1.200   0.655   3.906  0.5061 -1.0844 -0.0741
 8365SOL     OW34062   9.573   3.725  12.477 -0.5167  0.2147  0.1596
 8365SOL    HW134063   9.590   3.790  12.409 -2.1960 -0.0333 -0.5428
 8365SOL    HW234064   9.656   3.677  12.486  0.5843  2.0317  0.2929
 8366SOL     OW34065  10.825   2.548   2.240 -0.1013  0.4396 -0.4354
 8366SOL    HW134066  10.886   2.613   2.206 -0.1185  1.2192  0.9398
 8366SOL    HW234067  10.820   2.566   2.334 -2.2839  0.2693 -0.4621
 8367SOL     OW34068   6.049   9.955   6.760 -0.4945  0.5554  0.1519
 8367SOL    HW134069   6.050   9.889   6.828 -0.6906  1.9356  1.5523
 8367SOL    HW234070   5.966   9.942   6.714 -0.7000  0.0712  0.6558
 8368SOL     OW34071   4.247   8.342   1.282  0.0501  0.9270  0.4403
 8368SOL    HW134072   4.194   8.283   1.230 -1.0304  1.6416  0.6990
 8368SOL    HW234073   4.287   8.286   1.348  1.1330  0.0797 -0.8877
 8369SOL     OW34074   3.981  10.885   8.073 -0.0110  0.1558 -0.2916
 8369SOL    HW134075   3.895  10.896   8.113 -0.2936 -0.6987 -0.6426
 8369SOL    HW234076   4.038  10.941   8.124 -0.4624 -0.5070  0.9959
 8370SOL     OW34077   5.207  11.118  10.560  0.7974  0.4263 -0.1075
 8370SOL    HW134078   5.225  11.027  10.536  2.0493  0.0209  2.1107
 8370SOL    HW234079   5.125  11.114  10.610  1.0930  0.4310  0.3856
 8371SOL     OW34080   1.097   3.514  11.641 -0.1477 -0.7712  0.2030
 8371SOL    HW134081   1.095   3.448  11.572 -0.0249  0.7222 -1.3028
 8371SOL    HW234082   1.012   3.558  11.634  0.8530  1.1200 -0.8212
 8372SOL     OW34083   7.155   2.302   5.854  0.0849  0.3597  0.1365
 8372SOL    HW134084   7.101   2.341   5.922  0.8771  0.4402  0.7347
 8372SOL    HW234085   7.226   2.258   5.902  1.2722  1.3390 -0.6557
 8373SOL     OW34086   6.989   4.533   6.145  0.0731  0.4166  0.1201
 8373SOL    HW134087   6.908   4.550   6.098 -1.3057 -0.6283  1.9851
 8373SOL    HW234088   6.966   4.466   6.209  1.6986  2.0034  2.5541
 8374SOL     OW34089   3.521   1.244   0.897  0.1384 -0.3145 -0.0359
 8374SOL    HW134090   3.592   1.299   0.930 -1.2176  0.1472  2.3402
 8374SOL    HW234091   3.484   1.293   0.824  0.3394  0.8800  0.6458
 8375SOL     OW34092   5.948   7.780   9.694  0.1725  0.1770 -0.0216
 8375SOL    HW134093   5.951   7.865   9.650 -0.1301 -1.3235 -3.2131
 8375SOL    HW234094   5.880   7.790   9.761 -2.2780  1.5516 -2.5104
 8376SOL     OW34095  10.388  10.143   2.958 -0.2031 -0.3583 -0.0818
 8376SOL    HW134096  10.391  10.077   2.888 -1.3779 -0.2820 -0.2162
 8376SOL    HW234097  10.297  10.144   2.986 -0.0607  0.7385  0.3778
 8377SOL     OW34098   2.001  10.916  10.511 -0.4287  0.2205 -0.1645
 8377SOL    HW134099   1.916  10.877  10.529 -0.1829 -0.8624 -1.2899
 8377SOL    HW234100   2.000  10.936  10.418  0.1674  1.1789  0.0170
 8378SOL     OW34101   3.218   6.795   2.487  0.0144  0.3604 -0.0241
 8378SOL    HW134102   3.158   6.863   2.515  0.7766  0.6749  0.8878
 8378SOL    HW234103   3.197   6.720   2.542  2.4777  1.4183  2.5831
 8379SOL     OW34104   3.393   9.229   8.433  0.4128 -0.1012  0.4970
 8379SOL    HW134105   3.341   9.290   8.485  1.3330  0.2072  1.0846
 8379SOL    HW234106   3.434   9.172   8.497 -0.2592 -1.2179 -0.0388
 8380SOL     OW34107   0.469   1.886   6.255  0.0511  0.0379 -0.4359
 8380SOL    HW134108   0.384   1.894   6.211 -1.3707 -1.4192  1.8422
 8380SOL    HW234109   0.499   1.798   6.234  0.2497 -0.0141  0.0592
 8381SOL     OW34110   8.827   3.306  12.153  0.4410 -0.2477  0.4293
 8381SOL    HW134111   8.792   3.289  12.241  2.2835  0.1318  1.2961
 8381SOL    HW234112   8.753   3.342  12.104 -0.6984 -0.7181  1.7471
 8382SOL     OW34113  11.943   4.249   2.242 -0.1451 -0.1919  0.2253
 8382SOL    HW134114  11.984   4.326   2.280 -0.3958 -0.1126  0.3350
 8382SOL    HW234115  11.957   4.180   2.307 -0.2696 -0.1399  0.3093
 8383SOL     OW34116  10.648   8.495   6.635  0.2982  0.2069  0.2303
 8383SOL    HW134117  10.684   8.583   6.642  1.4036 -0.2556  0.5538
 8383SOL    HW234118  10.585   8.488   6.707 -0.8280  1.1829 -0.6183
 8384SOL     OW34119   0.946  12.232   1.614  0.7466 -0.0416  0.1828
 8384SOL    HW134120   0.942  12.281   1.532  1.4966 -0.8094 -0.3341
 8384SOL    HW234121   1.010  12.280   1.667  2.3907 -1.0588 -0.7769
 8385SOL     OW34122  11.445   6.961  10.244  0.3235  0.1039  0.0016
 8385SOL    HW134123  11.409   6.971  10.155  0.3945  0.6504  0.0273
 8385SOL    HW234124  11.449   6.867  10.258 -0.2952  0.0230 -0.3303
 8386SOL     OW34125   3.105   9.888  10.349 -0.2684 -0.3100  0.2930
 8386SOL    HW134126   3.020   9.844  10.356 -1.1069  1.1269 -0.3085
 8386SOL    HW234127   3.135   9.896  10.440  0.3107 -2.7646  0.3797
 8387SOL     OW34128   1.400   2.765  10.083  0.1002 -0.3266 -0.4277
 8387SOL    HW134129   1.466   2.733  10.021 -1.5181 -0.6483 -2.0908
 8387SOL    HW234130   1.317   2.738  10.044 -1.0130 -0.0711  1.6768
 8388SOL     OW34131  12.258   8.688  11.859 -0.0696 -0.0687 -0.0677
 8388SOL    HW134132  12.205   8.757  11.899 -1.2466  0.5076 -2.4773
 8388SOL    HW234133  12.265   8.621  11.928  0.4539  2.0467  2.0585
 8389SOL     OW34134   4.064  11.053   0.999  0.1096  0.1124 -0.3582
 8389SOL    HW134135   4.128  10.997   1.043  0.7002  0.3121 -0.9527
 8389SOL    HW234136   4.071  11.029   0.907 -0.3569  0.4529 -0.4836
 8390SOL     OW34137   0.230   7.966   1.502  0.2155  0.2753 -0.2884
 8390SOL    HW134138   0.248   7.999   1.414 -1.1934  0.3202 -0.5747
 8390SOL    HW234139   0.135   7.962   1.507  0.2508 -3.1289 -0.0579
 8391SOL     OW34140   9.221   4.546   0.022 -0.3530 -0.2209 -0.0993
 8391SOL    HW134141   9.206   4.613   0.089  1.0894  0.2266 -0.1824
 8391SOL    HW234142   9.235   4.596  -0.059 -2.1356 -0.7556 -0.7687
 8392SOL     OW34143   9.388  10.870   7.453  0.2218 -0.1308  0.3423
 8392SOL    HW134144   9.477  10.897   7.430  1.1645 -2.6666  0.6953
 8392SOL    HW234145   9.354  10.943   7.505  1.5541  1.4993 -0.9397
 8393SOL     OW34146   9.015   5.303  12.540 -0.2902 -0.3233  0.4733
 8393SOL    HW134147   8.940   5.353  12.571  1.5150  0.9734  3.1099
 8393SOL    HW234148   9.016   5.225  12.596 -0.6463 -1.2514 -0.7692
 8394SOL     OW34149   6.723  10.588   6.936  0.3956 -1.1035 -0.4977
 8394SOL    HW134150   6.628  10.577   6.938  0.1759  0.5815 -0.0529
 8394SOL    HW234151   6.751  10.567   7.025  0.4225 -1.4157 -0.5786
 8395SOL     OW34152   1.334   4.746  10.133 -0.0491  0.3202  0.2437
 8395SOL    HW134153   1.267   4.731  10.065 -1.0904  1.7604  0.8974
 8395SOL    HW234154   1.300   4.819  10.184  0.9264 -0.4284  2.0620
 8396SOL     OW34155   5.736  12.348   1.053 -0.0446 -0.4508  0.0955
 8396SOL    HW134156   5.733  12.253   1.064  0.3577 -0.5472 -0.5944
 8396SOL    HW234157   5.652  12.369   1.011  0.0046 -0.5457 -0.0542
 8397SOL     OW34158   5.679   1.987   8.352 -0.0273  0.0337 -0.3382
 8397SOL    HW134159   5.746   2.014   8.414 -0.1247 -0.9705  0.2131
 8397SOL    HW234160   5.684   2.052   8.282  2.2255 -0.5973 -0.8255
 8398SOL     OW34161   4.593   7.232   6.715 -0.2574 -0.1066 -0.0809
 8398SOL    HW134162   4.616   7.271   6.631 -1.0451  0.2288 -0.1439
 8398SOL    HW234163   4.609   7.138   6.704  0.7544  0.0721 -0.2229
 8399SOL     OW34164   4.684   0.563   0.405 -0.1097  0.2297 -0.0470
 8399SOL    HW134165   4.755   0.608   0.452  1.0789 -1.0556 -0.5495
 8399SOL    HW234166   4.611   0.564   0.467  0.8758  0.0965  1.1693
 8400SOL     OW34167   2.328   7.395  11.689  0.1959  0.1642  0.0752
 8400SOL    HW134168   2.244   7.402  11.735  0.1457 -0.2599  0.0491
 8400SOL    HW234169   2.392   7.423  11.754  0.1798 -0.9645  0.6001
 8401SOL     OW34170   0.964   9.420   3.476  0.1037  0.1192 -0.5618
 8401SOL    HW134171   0.870   9.401   3.477  0.5779 -2.7483 -1.4924
 8401SOL    HW234172   0.993   9.406   3.566 -0.3933  1.3458 -0.1989
 8402SOL     OW34173   7.685   6.882   1.304 -0.3716 -0.5312  0.7347
 8402SOL    HW134174   7.750   6.921   1.246 -0.8583 -1.2900 -0.3691
 8402SOL    HW234175   7.693   6.931   1.385 -1.1580  2.1139 -0.6498
 8403SOL     OW34176  10.076   7.680  12.443 -0.2537 -0.3343 -0.2489
 8403SOL    HW134177  10.140   7.703  12.376 -0.9318  1.2881 -0.3795
 8403SOL    HW234178  10.128   7.650  12.517  0.6482  0.4636 -0.5442
 8404SOL     OW34179   9.571   7.490   1.551 -0.2580 -0.3345  0.0008
 8404SOL    HW134180   9.610   7.444   1.626  0.0559  0.8800  0.6161
 8404SOL    HW234181   9.482   7.510   1.579  0.0529  0.6657  0.3188
 8405SOL     OW34182   4.560   8.469   5.201  0.4742  0.2938 -0.2826
 8405SOL    HW134183   4.512   8.500   5.124  1.9602  0.0826 -1.3585
 8405SOL    HW234184   4.495   8.465   5.270 -0.5872  2.0673 -1.1002
 8406SOL     OW34185   3.977  10.820   7.778  0.3225 -0.5100 -0.7042
 8406SOL    HW134186   3.980  10.728   7.804 -0.4125  0.1066  1.8694
 8406SOL    HW234187   3.953  10.867   7.859  2.3771  2.1231 -1.4795
 8407SOL     OW34188   2.676   1.350  11.517  0.1531 -0.2126 -0.3204
 8407SOL    HW134189   2.740   1.400  11.466  0.2549 -0.5267 -0.5014
 8407SOL    HW234190   2.665   1.268  11.469  0.8858 -0.8739  0.6112
 8408SOL     OW34191   2.480   8.811  10.738 -0.2293  0.1732 -0.1357
 8408SOL    HW134192   2.393   8.788  10.771 -0.0393  0.0935  0.3198
 8408SOL    HW234193   2.539   8.751  10.783 -0.0842 -0.8543 -1.6297
 8409SOL     OW34194   8.883  11.133  12.531  0.2581 -0.5825  0.1836
 8409SOL    HW134195   8.957  11.195  12.536  0.6333 -1.0487  0.5139
 8409SOL    HW234196   8.922  11.054  12.492 -0.2411 -0.5773 -0.3335
 8410SOL     OW34197   2.458   7.152   7.518 -0.3010 -0.1982  0.1404
 8410SOL    HW134198   2.543   7.139   7.476 -0.1899 -0.4748  0.4411
 8410SOL    HW234199   2.394   7.122   7.454 -0.3263  1.9921 -0.9517
 8411SOL     OW34200   9.633  10.185  12.124  0.0342 -0.1502 -0.3486
 8411SOL    HW134201   9.633  10.218  12.214  0.9594 -1.7094  0.2729
 8411SOL    HW234202   9.725  10.190  12.096 -0.3601  1.0833 -1.5357
 8412SOL     OW34203   0.778   6.582   5.685 -0.0601 -0.0829  0.0535
 8412SOL    HW134204   0.808   6.620   5.768 -1.6530  0.7283  0.2941
 8412SOL    HW234205   0.856   6.581   5.630  1.0122 -0.5377  1.5158
 8413SOL     OW34206  12.197   7.229   8.472 -0.3501  0.3192 -0.4118
 8413SOL    HW134207  12.116   7.213   8.423 -0.0260  2.4776 -1.7889
 8413SOL    HW234208  12.262   7.171   8.431 -0.8511 -0.3219 -0.3022
 8414SOL     OW34209   7.282   3.289   5.505 -0.4860  0.4617 -0.2381
 8414SOL    HW134210   7.223   3.355   5.540 -0.1942  0.2505  0.6752
 8414SOL    HW234211   7.366   3.334   5.495 -0.0140  0.0076  1.3420
 8415SOL     OW34212   6.367   3.920  10.358  0.1726 -0.2536  0.3266
 8415SOL    HW134213   6.323   3.852  10.307  1.9915 -1.4092  0.1801
 8415SOL    HW234214   6.459   3.892  10.360  1.0748  2.4008 -0.0256
 8416SOL     OW34215  10.777   0.138  12.546  0.5498 -0.0043  0.3384
 8416SOL    HW134216  10.727   0.154  12.626  0.2821  2.0689 -0.1812
 8416SOL    HW234217  10.711   0.136  12.477  0.9306 -0.1491 -0.0193
 8417SOL     OW34218   1.743   3.437   5.333  0.2247  0.6845 -0.2526
 8417SOL    HW134219   1.717   3.420   5.424 -4.1284 -0.5603 -1.4827
 8417SOL    HW234220   1.742   3.533   5.326 -0.9325  0.7657  0.6805
 8418SOL     OW34221   6.654  11.257   6.174 -0.6580 -0.4020  0.5928
 8418SOL    HW134222   6.728  11.234   6.230  1.6370  0.9939 -1.6334
 8418SOL    HW234223   6.620  11.173   6.144  1.7230 -1.1388 -0.2924
 8419SOL     OW34224   3.101   2.013  12.470 -0.2829 -0.2126 -0.0605
 8419SOL    HW134225   3.104   1.936  12.527 -1.9140 -0.8214 -0.7280
 8419SOL    HW234226   3.176   2.003  12.412  1.2959  0.3095  1.7808
 8420SOL     OW34227  10.822   4.349   3.783 -0.1467 -0.4229 -0.2991
 8420SOL    HW134228  10.912   4.379   3.794 -0.7361  0.9230  1.2772
 8420SOL    HW234229  10.784   4.356   3.871 -1.7787 -1.0038 -0.9307
 8421SOL     OW34230  11.181   7.032   2.876  0.9939 -0.4368 -0.0715
 8421SOL    HW134231  11.102   6.993   2.915  0.6058  0.1602 -0.2320
 8421SOL    HW234232  11.160   7.040   2.783  1.1820 -0.1232 -0.0880
 8422SOL     OW34233  10.123   6.653   8.739 -0.4316 -0.8271 -0.1908
 8422SOL    HW134234  10.131   6.748   8.740  0.3223 -0.8815  0.4671
 8422SOL    HW234235  10.113   6.631   8.647  3.2060 -0.3464 -0.8603
 8423SOL     OW34236   9.569   7.383  11.574  0.7039 -0.2047  0.1746
 8423SOL    HW134237   9.526   7.298  11.582  1.0675 -0.3905  0.1737
 8423SOL    HW234238   9.648   7.365  11.523  0.4164  0.2629 -0.4416
 8424SOL     OW34239   3.130  11.236   3.012  0.4380  0.1539  0.1371
 8424SOL    HW134240   3.134  11.263   3.103 -2.3057 -0.5576  0.5748
 8424SOL    HW234241   3.143  11.317   2.962  3.7868  0.2861  0.9954
 8425SOL     OW34242   5.831   3.494   4.640  0.0255 -1.0418 -0.4947
 8425SOL    HW134243   5.829   3.399   4.636  0.6759 -1.1417  1.0185
 8425SOL    HW234244   5.916   3.518   4.602  1.1871 -1.2815  1.8181
 8426SOL     OW34245   0.543   3.542   2.819 -0.3219 -0.4267 -0.0395
 8426SOL    HW134246   0.462   3.543   2.870 -0.3198 -1.9081  0.0219
 8426SOL    HW234247   0.535   3.616   2.759 -1.7041 -0.5372 -0.0049
 8427SOL     OW34248   0.676  11.187   1.656  0.2176  0.0920 -0.3603
 8427SOL    HW134249   0.740  11.257   1.665 -0.4572  0.5190  2.1158
 8427SOL    HW234250   0.612  11.205   1.725 -1.1259 -1.7878 -1.0329
 8428SOL     OW34251   9.359   6.021   6.809 -0.2105  0.4137  0.5219
 8428SOL    HW134252   9.437   6.070   6.833  0.0380  0.6530 -0.6954
 8428SOL    HW234253   9.375   5.993   6.718 -0.6807 -1.2397  0.9023
 8429SOL     OW34254   3.241  10.071   2.458 -0.1346  0.0641 -0.2238
 8429SOL    HW134255   3.317  10.114   2.418 -0.4993  0.5755 -0.3821
 8429SOL    HW234256   3.167  10.127   2.434 -0.4929 -0.1577  0.3569
 8430SOL     OW34257   7.393   4.761   3.940  0.2151 -0.4065  0.4552
 8430SOL    HW134258   7.315   4.755   3.886 -0.1497 -1.6189  1.0785
 8430SOL    HW234259   7.416   4.854   3.939 -1.2435 -0.0221  0.2798
 8431SOL     OW34260   0.089   0.556   6.977  0.3301  0.4495  0.4660
 8431SOL    HW134261   0.081   0.461   6.989  0.9482  0.2199 -0.7898
 8431SOL    HW234262   0.159   0.582   7.038 -0.8772  0.3715  1.9335
 8432SOL     OW34263   3.634  10.833  10.598  0.4203  0.6248 -0.1675
 8432SOL    HW134264   3.566  10.807  10.660  0.0410  1.3532 -0.2774
 8432SOL    HW234265   3.698  10.881  10.651  1.7958 -1.5543  0.3042
 8433SOL     OW34266   4.422   0.162  10.925  0.2167 -0.4291 -0.1273
 8433SOL    HW134267   4.403   0.225  10.994 -1.1382  1.5205 -2.1279
 8433SOL    HW234268   4.517   0.150  10.928  0.4815  1.5278  0.5285
 8434SOL     OW34269   0.831   7.952  12.096 -0.5556  0.4095  0.2119
 8434SOL    HW134270   0.825   8.007  12.018 -0.1159 -0.2570 -0.3076
 8434SOL    HW234271   0.824   7.862  12.063  0.9072  0.0544  0.7899
 8435SOL     OW34272   5.669   1.616   7.312 -0.0553  0.8746  0.0932
 8435SOL    HW134273   5.710   1.685   7.365  0.4839  0.5475  0.1169
 8435SOL    HW234274   5.695   1.535   7.356 -0.8199  0.6559  0.1626
 8436SOL     OW34275   8.870   6.932   6.291  0.1478  0.4862 -0.3086
 8436SOL    HW134276   8.890   6.840   6.305 -1.3171 -0.1047 -1.7232
 8436SOL    HW234277   8.934   6.962   6.226  1.3329  0.8120  0.9649
 8437SOL     OW34278   5.608   9.055  12.307  0.8070 -0.4430  0.6151
 8437SOL    HW134279   5.568   9.012  12.231 -0.1274 -1.4405  1.6405
 8437SOL    HW234280   5.691   9.090  12.273 -0.2503  0.4151 -1.1981
 8438SOL     OW34281   0.110  11.129  11.625  0.3096 -0.0400 -0.1305
 8438SOL    HW134282   0.088  11.221  11.637 -0.8557 -0.5207  1.7842
 8438SOL    HW234283   0.195  11.119  11.669  0.1519 -0.0026  0.1839
 8439SOL     OW34284   9.139   7.221  12.039  0.5265  0.3532  0.5308
 8439SOL    HW134285   9.106   7.231  11.950 -0.5701  1.0390  0.9950
 8439SOL    HW234286   9.143   7.126  12.053 -0.6665  0.2378  0.2245
 8440SOL     OW34287   2.958  10.300   1.176 -0.3498 -0.1646 -0.0330
 8440SOL    HW134288   2.979  10.291   1.269  0.1877  0.9236 -0.0317
 8440SOL    HW234289   2.904  10.379   1.171 -1.3013 -0.8303 -0.5158
 8441SOL     OW34290  12.350   7.604   1.093  0.2731  0.2737 -0.5216
 8441SOL    HW134291  12.390   7.546   1.158 -0.1585  1.9571  1.3575
 8441SOL    HW234292  12.262   7.569   1.081  0.4776 -0.2675 -0.5030
 8442SOL     OW34293  11.032   2.384   3.310 -0.3492 -0.1034  0.9177
 8442SOL    HW134294  11.074   2.303   3.282 -0.6916 -0.4600  1.4035
 8442SOL    HW234295  11.104   2.440   3.340 -0.1516 -0.4095  1.0201
 8443SOL     OW34296  10.925  10.912  11.605  0.0852 -0.8101 -0.0703
 8443SOL    HW134297  10.956  10.997  11.638  2.5895 -0.9472 -1.8409
 8443SOL    HW234298  10.844  10.933  11.559 -0.4197  0.2584  1.2090
 8444SOL     OW34299   5.218   9.730  11.636 -0.3839  0.7057  0.2474
 8444SOL    HW134300   5.142   9.721  11.694 -0.9836 -1.4605 -0.7557
 8444SOL    HW234301   5.193   9.800  11.575 -2.0567 -0.6109 -0.6632
 8445SOL     OW34302   2.166   6.786   8.460 -0.2244  0.5235 -0.1268
 8445SOL    HW134303   2.072   6.788   8.477 -0.5094 -0.4267 -1.3643
 8445SOL    HW234304   2.206   6.770   8.545 -1.2323  0.3209  0.3211
 8446SOL     OW34305   4.530   2.153   3.124 -0.4743 -0.5245 -0.8584
 8446SOL    HW134306   4.500   2.073   3.081  0.8665 -0.3920 -2.1208
 8446SOL    HW234307   4.590   2.193   3.062  0.9827  0.0686  0.8278
 8447SOL     OW34308   7.979  11.527   2.472 -1.0661  0.4710 -0.3092
 8447SOL    HW134309   7.899  11.577   2.489 -0.9820  1.1775 -1.7577
 8447SOL    HW234310   7.951  11.456   2.414 -0.8032  0.1190 -0.0123
 8448SOL     OW34311   2.702   1.043   2.214  0.4980 -0.0271  0.3193
 8448SOL    HW134312   2.637   0.972   2.217  1.4784 -0.9805 -0.0133
 8448SOL    HW234313   2.723   1.060   2.305 -1.3160  1.3708  0.5210
 8449SOL     OW34314   7.913   0.152   7.342 -0.2704  0.3633  0.1712
 8449SOL    HW134315   7.858   0.094   7.289  0.2516  1.1290 -1.2524
 8449SOL    HW234316   7.990   0.169   7.288 -0.2575  2.1025  0.6634
 8450SOL     OW34317   8.476   1.861   1.168 -0.1575 -0.1646  0.0276
 8450SOL    HW134318   8.497   1.773   1.136 -0.2812 -1.3204  2.8211
 8450SOL    HW234319   8.545   1.916   1.132  1.1802 -1.8198 -0.0871
 8451SOL     OW34320   0.955  11.215   8.411 -0.0402  0.0049  0.0551
 8451SOL    HW134321   0.948  11.159   8.334  1.7544 -0.7233  0.3799
 8451SOL    HW234322   0.870  11.207   8.454  0.2073 -2.7052  0.2124
 8452SOL     OW34323   0.266  12.130   2.413  0.0217  0.2350  0.3199
 8452SOL    HW134324   0.245  12.041   2.383 -1.7413  0.5533  0.5134
 8452SOL    HW234325   0.344  12.154   2.364 -0.3702 -0.8458 -0.8886
 8453SOL     OW34326   2.719   6.946   9.856  0.3418 -0.2250 -0.0995
 8453SOL    HW134327   2.636   6.901   9.864 -1.3073  2.6242  0.1022
 8453SOL    HW234328   2.717   7.015   9.922  1.2674  2.1209 -2.2954
 8454SOL     OW34329   4.398   5.563   2.984  0.0945  0.6220  0.0372
 8454SOL    HW134330   4.345   5.493   3.022  1.8295 -1.0644 -0.4727
 8454SOL    HW234331   4.361   5.576   2.897  1.0168 -1.2547 -0.7107
 8455SOL     OW34332   0.294   0.417   8.298 -0.7429  0.1709 -0.2947
 8455SOL    HW134333   0.378   0.409   8.343 -0.6023  0.9698 -0.4110
 8455SOL    HW234334   0.242   0.343   8.331 -0.0072 -0.3249 -0.2125
 8456SOL     OW34335  12.235   0.792  12.203 -0.1482  0.0528  0.7067
 8456SOL    HW134336  12.251   0.812  12.111  2.4555 -1.2549  0.7806
 8456SOL    HW234337  12.316   0.818  12.247 -1.0255 -0.1436  2.5078
 8457SOL     OW34338   0.108   2.369   6.126  0.1325 -0.2827 -0.2522
 8457SOL    HW134339   0.195   2.357   6.162  0.0382 -2.4267 -0.5650
 8457SOL    HW234340   0.097   2.296   6.064 -2.5624 -1.3181  1.2305
 8458SOL     OW34341  12.332  10.223   5.718 -0.3283 -0.2866  0.2895
 8458SOL    HW134342  12.418  10.200   5.754 -0.5134  0.1845  1.0735
 8458SOL    HW234343  12.349  10.300   5.664 -0.3626  0.2587  1.0402
 8459SOL     OW34344   2.904   2.676   8.931 -0.0430 -0.4178  0.9289
 8459SOL    HW134345   2.858   2.598   8.963  0.3263 -2.3870 -2.7684
 8459SOL    HW234346   2.859   2.700   8.851  1.0767  2.0291  0.9419
 8460SOL     OW34347   4.688  10.250   2.500 -0.3256 -0.5223  0.4252
 8460SOL    HW134348   4.663  10.248   2.407  0.7256  0.4545  0.0986
 8460SOL    HW234349   4.608  10.280   2.545 -1.2560 -2.2760  0.0220
 8461SOL     OW34350   8.449   9.247   6.493 -0.1929 -0.1556  0.2877
 8461SOL    HW134351   8.382   9.179   6.500 -0.3029  0.0822  1.9554
 8461SOL    HW234352   8.531   9.203   6.513 -0.1565  0.0037  0.5038
 8462SOL     OW34353   6.516  10.861   3.995 -0.3085 -0.2631  0.0404
 8462SOL    HW134354   6.449  10.909   4.044 -1.7463 -0.6487 -1.4361
 8462SOL    HW234355   6.533  10.916   3.919  1.0658 -0.1969  0.3738
 8463SOL     OW34356   0.333   2.824  12.025 -0.1859  0.0318  0.0859
 8463SOL    HW134357   0.301   2.865  11.944 -1.1519  0.8071  0.8356
 8463SOL    HW234358   0.255   2.816  12.080  0.4051 -0.7891  0.8227
 8464SOL     OW34359   7.802   9.878   9.302 -0.2314  0.3401 -0.7547
 8464SOL    HW134360   7.830   9.800   9.351 -1.0379  0.1286 -0.6145
 8464SOL    HW234361   7.844   9.868   9.216 -0.7010 -0.5004 -0.8970
 8465SOL     OW34362   4.747   6.003   7.014 -0.0903  0.5409 -0.4031
 8465SOL    HW134363   4.681   5.934   7.022 -0.7832  1.2717  0.5358
 8465SOL    HW234364   4.782   6.014   7.103 -0.5345  1.8783 -0.3627
 8466SOL     OW34365   4.888   5.225  10.255 -0.0523 -0.2294  0.5461
 8466SOL    HW134366   4.973   5.204  10.214 -0.4568  0.8460 -0.9124
 8466SOL    HW234367   4.841   5.274  10.188 -1.5401 -0.1328  1.6292
 8467SOL     OW34368   5.139   4.961   0.035 -0.2189  0.2028  0.2030
 8467SOL    HW134369   5.127   4.931   0.125 -0.3807  1.3139  0.5664
 8467SOL    HW234370   5.126   4.883  -0.018  2.5768 -1.1238  1.2646
 8468SOL     OW34371   1.838   5.347   3.237  0.0888 -0.4589 -0.3039
 8468SOL    HW134372   1.747   5.343   3.210  0.0715 -2.4360 -0.0818
 8468SOL    HW234373   1.835   5.370   3.330 -0.1211  0.4284 -0.5243
 8469SOL     OW34374  10.603   2.075   4.218 -0.0547  0.2019  0.1943
 8469SOL    HW134375  10.658   2.012   4.264  1.3678  0.1055 -1.5178
 8469SOL    HW234376  10.515   2.059   4.252  0.8794  0.1543  2.8126
 8470SOL     OW34377   4.113  12.014   7.368 -0.4529  0.1237  0.4023
 8470SOL    HW134378   4.115  12.105   7.340  1.5089 -0.0367 -0.1413
 8470SOL    HW234379   4.065  12.015   7.451 -1.3471  1.4759 -0.1082
 8471SOL     OW34380   6.703   5.315   4.904  0.0504 -0.5875 -0.2530
 8471SOL    HW134381   6.659   5.232   4.920 -0.6179 -0.0706  0.7091
 8471SOL    HW234382   6.659   5.377   4.963  1.6358  0.0882  0.2707
 8472SOL     OW34383   9.344   8.649  10.281 -0.4388  0.2948 -0.5705
 8472SOL    HW134384   9.354   8.639  10.186 -1.2709  0.5726 -0.6958
 8472SOL    HW234385   9.426   8.616  10.317 -0.6862 -1.2350 -1.3090
 8473SOL     OW34386   0.674  11.947  12.119 -0.0939  0.2884  0.2288
 8473SOL    HW134387   0.659  11.955  12.213 -0.4123 -1.0406  0.3125
 8473SOL    HW234388   0.615  12.010  12.079 -2.3169 -1.2982  0.7956
 8474SOL     OW34389   0.099   0.093   0.729 -0.1578  0.0136 -0.1116
 8474SOL    HW134390   0.179   0.122   0.685  0.1920  1.3037  1.2920
 8474SOL    HW234391   0.033   0.092   0.659  0.5854  1.0381 -0.8755
 8475SOL     OW34392   3.965   7.774   7.022 -0.2034 -0.3446 -1.0240
 8475SOL    HW134393   3.899   7.842   7.029 -0.9866 -1.1246 -0.7085
 8475SOL    HW234394   3.996   7.760   7.111  1.7174  1.2545 -1.3518
 8476SOL     OW34395   8.914   8.404   6.269  0.0621 -0.0542 -0.5068
 8476SOL    HW134396   8.948   8.387   6.181  1.5010  0.6417 -0.1211
 8476SOL    HW234397   8.857   8.480   6.258  1.1850  0.8008 -0.6828
 8477SOL     OW34398   2.540   6.761   7.897 -0.3152 -0.7025 -0.2098
 8477SOL    HW134399   2.514   6.806   7.978  2.2229  2.5895 -0.9688
 8477SOL    HW234400   2.508   6.818   7.827  2.0415 -0.5834 -1.2828
 8478SOL     OW34401   6.307   9.742   6.118  0.1202 -0.4214 -0.2874
 8478SOL    HW134402   6.273   9.803   6.184  1.7896  0.2838 -0.0101
 8478SOL    HW234403   6.277   9.778   6.035  0.1085  0.1450 -0.0478
 8479SOL     OW34404   8.169   6.388   2.188 -0.6226  0.0158  0.0899
 8479SOL    HW134405   8.103   6.354   2.248  0.0671 -1.6509 -0.0489
 8479SOL    HW234406   8.137   6.475   2.164 -0.7254  0.9586  3.1780
 8480SOL     OW34407  11.121  12.343  11.945  0.0693 -0.0828 -0.0624
 8480SOL    HW134408  11.150  12.282  12.013  0.6288 -0.3824 -0.5561
 8480SOL    HW234409  11.088  12.286  11.875 -0.9000  0.2337  0.1225
 8481SOL     OW34410   4.434   3.087   6.366  0.1947  0.1125  0.1762
 8481SOL    HW134411   4.523   3.059   6.389 -0.1634 -0.5714  0.8030
 8481SOL    HW234412   4.399   3.014   6.315 -0.4720 -0.2414  1.1198
 8482SOL     OW34413   5.577   7.730   1.570  0.3853 -0.1488 -0.0989
 8482SOL    HW134414   5.600   7.736   1.663  0.3938 -2.3150  0.0746
 8482SOL    HW234415   5.496   7.781   1.562  0.8913  0.8692  0.8727
 8483SOL     OW34416   4.653   4.292   6.496  0.1803  0.3616  0.4637
 8483SOL    HW134417   4.671   4.267   6.405 -0.4030  2.1066 -0.1680
 8483SOL    HW234418   4.626   4.210   6.538 -1.3563 -0.1759 -1.4157
 8484SOL     OW34419   4.651   0.314   5.724  0.8445  0.4412  0.3832
 8484SOL    HW134420   4.603   0.266   5.656 -0.3405  1.1666  0.6787
 8484SOL    HW234421   4.616   0.403   5.719  1.2117  0.6580  1.5142
 8485SOL     OW34422   5.585   6.559  11.378 -0.3582  0.0759 -0.4413
 8485SOL    HW134423   5.632   6.495  11.325 -0.1705 -0.5257  0.4242
 8485SOL    HW234424   5.572   6.633  11.320  0.4700 -0.2808 -1.1126
 8486SOL     OW34425  11.127   4.805   2.818 -0.0337 -0.0053  0.4654
 8486SOL    HW134426  11.095   4.889   2.853 -0.3752 -0.2457  0.7435
 8486SOL    HW234427  11.133   4.748   2.895 -0.2255 -0.3674  0.2166
 8487SOL     OW34428   2.503   4.799   4.378  0.0412  0.8896 -0.0069
 8487SOL    HW134429   2.591   4.768   4.397  0.5542  1.2300 -1.6354
 8487SOL    HW234430   2.504   4.891   4.403 -0.5935  0.3593  2.1257
 8488SOL     OW34431   3.758   7.070   8.076 -0.2201  0.1333 -0.1893
 8488SOL    HW134432   3.682   7.013   8.086 -0.5081  0.0286 -2.4578
 8488SOL    HW234433   3.822   7.035   8.138 -0.6442 -2.2519 -0.9924
 8489SOL     OW34434   7.631   7.575   4.989 -0.0727  0.0403  0.4456
 8489SOL    HW134435   7.558   7.515   5.004 -0.4373  0.1988 -0.6290
 8489SOL    HW234436   7.644   7.618   5.074 -1.8546  0.6942  0.4174
 8490SOL     OW34437   5.842   1.098   4.190 -0.0748 -0.3988 -0.3500
 8490SOL    HW134438   5.878   1.170   4.138 -0.5369  1.4052  1.6742
 8490SOL    HW234439   5.750   1.094   4.164  0.2347 -1.1715 -1.3947
 8491SOL     OW34440   9.782   4.505   8.261 -0.4120 -0.0737 -0.1176
 8491SOL    HW134441   9.738   4.534   8.341  0.3573  2.8018 -0.6216
 8491SOL    HW234442   9.736   4.424   8.236 -2.1119  0.1488  1.9912
 8492SOL     OW34443   6.922   5.776   1.458  0.9033  0.5706  0.2525
 8492SOL    HW134444   6.902   5.756   1.549  0.4316 -0.3905 -0.0534
 8492SOL    HW234445   6.849   5.831   1.429 -0.2082 -1.0753 -0.2078
 8493SOL     OW34446   2.561  10.079   6.799 -0.2199 -0.0023 -0.1906
 8493SOL    HW134447   2.619  10.141   6.844  0.0022  0.6625 -1.3659
 8493SOL    HW234448   2.619  10.027   6.744 -0.7965  1.3068 -2.1157
 8494SOL     OW34449   3.473   0.950  10.697  0.3170 -0.4552  0.4983
 8494SOL    HW134450   3.508   0.877  10.645 -1.2063 -0.1692 -1.0109
 8494SOL    HW234451   3.386   0.921  10.724 -0.0046  0.4983  0.5143
 8495SOL     OW34452   5.175   6.199  10.834 -0.9893 -0.5546  0.0032
 8495SOL    HW134453   5.139   6.113  10.855 -1.0548 -0.7675 -0.9332
 8495SOL    HW234454   5.258   6.180  10.792  0.2564 -0.0682  2.0929
 8496SOL     OW34455   9.258  11.206   3.221 -0.4796 -0.2621 -0.2499
 8496SOL    HW134456   9.271  11.139   3.288  0.0506 -0.5902 -0.6727
 8496SOL    HW234457   9.254  11.157   3.139  1.5786  0.3198 -0.7624
 8497SOL     OW34458  12.289   6.386  11.690 -0.4093 -0.3741 -0.2570
 8497SOL    HW134459  12.223   6.406  11.756  0.2334 -1.1356  0.6462
 8497SOL    HW234460  12.323   6.471  11.664 -4.9356  0.6327 -4.3026
 8498SOL     OW34461   7.205  12.285  11.712  0.0712 -0.6389  0.0689
 8498SOL    HW134462   7.153  12.364  11.695  0.0827 -0.7599 -0.5442
 8498SOL    HW234463   7.295  12.317  11.722 -0.3811 -0.0911  3.6913
 8499SOL     OW34464   9.283   5.362   3.491 -0.0654  0.2493 -0.2031
 8499SOL    HW134465   9.358   5.404   3.532  1.3005 -0.3560 -1.9540
 8499SOL    HW234466   9.242   5.311   3.561  1.9182 -0.4276  0.5263
 8500SOL     OW34467   8.580   8.325   0.306 -0.1674  0.1630  0.4401
 8500SOL    HW134468   8.576   8.240   0.349  0.2311  0.1609  0.4768
 8500SOL    HW234469   8.592   8.305   0.213 -1.9695  0.1486  0.1732
 8501SOL     OW34470   3.351   1.089   5.017  1.0159 -0.6640  0.3094
 8501SOL    HW134471   3.367   1.145   5.093 -0.7235  0.1535  0.1185
 8501SOL    HW234472   3.359   1.148   4.942  0.0929 -0.8586  0.0439
 8502SOL     OW34473   6.012   4.935  10.166  0.0536  0.1748  0.2241
 8502SOL    HW134474   5.971   5.011  10.124  0.1199 -0.5610 -1.2202
 8502SOL    HW234475   6.040   4.968  10.252  0.7653  2.0075 -0.6471
 8503SOL     OW34476   2.231  11.579  11.096 -0.2056  0.9871  0.2245
 8503SOL    HW134477   2.223  11.658  11.042  1.1776 -0.2879 -2.0315
 8503SOL    HW234478   2.234  11.611  11.186 -1.8319  3.3086 -0.4546
 8504SOL     OW34479   0.035   0.544   3.856 -0.2285 -0.1489  1.0068
 8504SOL    HW134480   0.112   0.594   3.886  0.2004  0.5102 -1.0414
 8504SOL    HW234481  -0.034   0.567   3.918  0.4501  1.6131  1.1591
 8505SOL     OW34482   9.543  11.046   0.362  0.1969 -0.6536 -0.6288
 8505SOL    HW134483   9.532  10.956   0.392  0.1153 -0.1519  0.9243
 8505SOL    HW234484   9.572  11.095   0.439  1.6026  0.4081 -1.7692
 8506SOL     OW34485   7.751  10.418   7.902  0.1176  0.0529 -0.0632
 8506SOL    HW134486   7.686  10.347   7.902 -1.1747  1.1287 -2.6955
 8506SOL    HW234487   7.753  10.450   7.812  3.0316  1.2912  0.3105
 8507SOL     OW34488   5.025   9.257   7.009 -0.1761  0.4458 -0.0144
 8507SOL    HW134489   5.113   9.291   7.023 -0.6764  1.6615  0.3247
 8507SOL    HW234490   4.968   9.320   7.053 -1.1086 -1.3512  1.5203
 8508SOL     OW34491  10.350   1.477   6.909 -0.7345  0.3111  0.4929
 8508SOL    HW134492  10.441   1.450   6.907 -0.4574  1.2346 -0.2839
 8508SOL    HW234493  10.328   1.481   7.002 -0.2439 -0.7343  0.6580
 8509SOL     OW34494   6.706   0.304   1.736 -0.2309  0.0677  0.2537
 8509SOL    HW134495   6.624   0.318   1.785 -0.4241  1.2120 -0.3631
 8509SOL    HW234496   6.685   0.331   1.646  0.6788 -0.1178 -0.0231
 8510SOL     OW34497   7.914   2.019  10.827  0.2590  0.5055  0.1945
 8510SOL    HW134498   7.853   2.092  10.815  1.2966  1.3639 -0.0092
 8510SOL    HW234499   7.858   1.941  10.831 -0.7965  1.1709 -0.8775
 8511SOL     OW34500   9.417   4.969   3.289  0.0986  0.5015  0.2278
 8511SOL    HW134501   9.451   4.947   3.203 -0.6883  0.0509  0.0239
 8511SOL    HW234502   9.455   5.055   3.309  0.0501  0.7427 -0.6923
 8512SOL     OW34503   0.097   2.304   9.334  0.7094  0.3361 -0.1872
 8512SOL    HW134504   0.125   2.325   9.245  1.7682  0.8890  0.2514
 8512SOL    HW234505   0.116   2.211   9.344  1.2762  0.4288 -0.3164
 8513SOL     OW34506  10.392  11.066  10.156  0.2826 -0.3043  0.0702
 8513SOL    HW134507  10.441  11.047  10.236 -0.5032 -0.2770  0.5722
 8513SOL    HW234508  10.307  11.025  10.170  0.0380 -0.0492 -0.6323
 8514SOL     OW34509   9.630  10.685  10.477  0.9612 -1.0118  0.4724
 8514SOL    HW134510   9.558  10.740  10.445  1.2122 -0.6283  0.5668
 8514SOL    HW234511   9.709  10.737  10.460  1.8036 -3.2178 -4.0656
 8515SOL     OW34512   2.042   1.824   4.679 -0.3826  0.1145  0.0219
 8515SOL    HW134513   2.081   1.777   4.753  1.1489 -0.1461 -0.9041
 8515SOL    HW234514   1.991   1.894   4.720  0.0683 -0.2889  1.3345
 8516SOL     OW34515   3.796   1.004   2.098 -0.0910  0.3697  0.3059
 8516SOL    HW134516   3.859   1.076   2.092 -0.6809  0.7945 -1.1781
 8516SOL    HW234517   3.835   0.943   2.160  1.8806  0.5357 -0.7105
 8517SOL     OW34518  10.443   2.678   6.875  0.0288  0.1705  0.1084
 8517SOL    HW134519  10.424   2.663   6.782 -0.6141 -1.5025  0.4727
 8517SOL    HW234520  10.416   2.596   6.918  0.1201  0.9969  1.7958
 8518SOL     OW34521   7.670   6.511   4.290  0.0356  0.3430  0.4153
 8518SOL    HW134522   7.763   6.489   4.284  0.1787  1.0995 -0.1964
 8518SOL    HW234523   7.625   6.429   4.272  0.5803  0.0556  0.3340
 8519SOL     OW34524   9.754   5.701   7.448 -0.3229 -0.5189 -0.3291
 8519SOL    HW134525   9.846   5.725   7.459 -0.3799  1.1205 -2.7094
 8519SOL    HW234526   9.752   5.648   7.368 -1.5256  0.2848 -0.8670
 8520SOL     OW34527   1.477  10.239   2.927 -0.4802 -0.5607 -0.3832
 8520SOL    HW134528   1.460  10.157   2.973 -1.8390  0.1528  0.4679
 8520SOL    HW234529   1.459  10.219   2.835  0.1483 -1.4495 -0.3246
 8521SOL     OW34530  10.957   9.984   4.765 -0.6587 -0.2733  0.2349
 8521SOL    HW134531  10.877  10.004   4.717 -0.7537 -0.4800  0.3088
 8521SOL    HW234532  10.994   9.909   4.720 -1.9751 -2.0200  1.8810
 8522SOL     OW34533   9.448   1.279   9.926  0.4728  0.6550  0.1227
 8522SOL    HW134534   9.518   1.343   9.917  1.1103  0.2728  1.9688
 8522SOL    HW234535   9.384   1.321   9.983  0.0121  0.3399 -0.1491
 8523SOL     OW34536   7.381   1.810   7.943 -0.7309  0.3095  0.2621
 8523SOL    HW134537   7.406   1.861   8.020 -0.8683 -0.5997  0.9189
 8523SOL    HW234538   7.310   1.860   7.903 -1.1095  0.4499  1.1004
 8524SOL     OW34539   1.932   0.021   4.582 -0.0514  0.4134  0.0324
 8524SOL    HW134540   2.025   0.044   4.579 -0.2757  1.3343 -0.3788
 8524SOL    HW234541   1.887   0.101   4.554 -0.9163 -0.3187 -0.7548
 8525SOL     OW34542   9.698   1.812   9.635 -0.1933  0.5628  0.3383
 8525SOL    HW134543   9.672   1.755   9.563 -1.1613  1.8492 -0.3849
 8525SOL    HW234544   9.651   1.894   9.619 -0.6471  0.8138  2.5951
 8526SOL     OW34545   6.149  11.550   5.900 -0.4188 -0.3257 -0.0328
 8526SOL    HW134546   6.216  11.482   5.905  0.2609  0.2970 -0.4226
 8526SOL    HW234547   6.104  11.534   5.817 -0.1495 -0.2091 -0.2039
 8527SOL     OW34548   1.573  11.083   1.908  0.1779 -0.0160 -0.0936
 8527SOL    HW134549   1.568  11.109   2.000  1.8407  0.7313 -0.1731
 8527SOL    HW234550   1.559  10.988   1.909 -0.9217  0.1331  0.7794
 8528SOL     OW34551  11.692   2.394  11.190 -0.1319 -0.3615 -0.4902
 8528SOL    HW134552  11.722   2.368  11.277  1.6875 -1.2711 -1.3171
 8528SOL    HW234553  11.610   2.347  11.177 -0.2085 -0.5332  0.5655
 8529SOL     OW34554   8.202  11.519   7.039  0.0475  0.0905  0.0505
 8529SOL    HW134555   8.157  11.447   7.082  0.3484  0.3573  0.8233
 8529SOL    HW234556   8.280  11.479   6.999 -0.9130 -0.4032 -1.4323
 8530SOL     OW34557   9.621   8.883  10.458  0.3831 -0.0289  0.0245
 8530SOL    HW134558   9.638   8.953  10.520  1.2800 -0.6304  0.4863
 8530SOL    HW234559   9.691   8.890  10.394  0.3071 -0.3113 -0.0919
 8531SOL     OW34560   5.030  11.544  10.451  0.3114 -0.6372 -0.2112
 8531SOL    HW134561   5.032  11.605  10.377 -0.1233 -1.1874 -0.6805
 8531SOL    HW234562   4.947  11.564  10.496 -0.8557 -2.2264 -1.5363
 8532SOL     OW34563   3.172   4.571   1.704 -0.3419 -0.2982 -0.0963
 8532SOL    HW134564   3.166   4.505   1.773  0.1949 -0.5313 -0.2637
 8532SOL    HW234565   3.266   4.575   1.683 -0.6203 -1.0193 -1.5842
 8533SOL     OW34566   4.163   6.367   6.449  0.2521 -0.0790  0.1816
 8533SOL    HW134567   4.112   6.354   6.529  0.5126 -0.9991  0.2022
 8533SOL    HW234568   4.254   6.365   6.477  0.3248  1.0454  0.0660
 8534SOL     OW34569   8.119  11.856   5.595  0.2585 -0.7392  0.2579
 8534SOL    HW134570   8.127  11.775   5.545 -2.3088 -0.9110 -0.0159
 8534SOL    HW234571   8.143  11.925   5.533 -1.1686 -1.0764 -0.7266
 8535SOL     OW34572   1.688  10.937   3.641  0.1735  0.3978 -0.2071
 8535SOL    HW134573   1.636  10.934   3.721  0.8258  1.3230  0.2718
 8535SOL    HW234574   1.657  10.863   3.589 -0.1617 -0.3078  0.9641
 8536SOL     OW34575   1.706   9.447   3.788 -0.1664 -0.0201  0.0863
 8536SOL    HW134576   1.680   9.355   3.795 -0.6637  0.1606  0.7539
 8536SOL    HW234577   1.771   9.449   3.718  0.3766 -0.9931  0.5549
 8537SOL     OW34578   7.847   3.703   5.877 -0.1134 -0.2209 -0.1001
 8537SOL    HW134579   7.816   3.623   5.919 -3.2422  0.0501 -1.6559
 8537SOL    HW234580   7.908   3.673   5.809  0.8619 -1.0030  1.0712
 8538SOL     OW34581  12.091   2.030   2.872  0.5835  0.0558 -0.6751
 8538SOL    HW134582  12.106   2.044   2.778  1.0772 -1.8109 -0.9039
 8538SOL    HW234583  12.166   1.979   2.901 -1.0414 -2.0925  0.0272
 8539SOL     OW34584   6.837   5.898   3.144  0.0572  0.0647  0.4348
 8539SOL    HW134585   6.814   5.805   3.141  1.3528 -0.3015 -2.9492
 8539SOL    HW234586   6.758   5.943   3.113 -0.1482 -0.0309  0.8194
 8540SOL     OW34587   8.810   9.790   0.547  0.3861  0.0507 -0.6459
 8540SOL    HW134588   8.757   9.842   0.486 -1.8188  2.0351  2.6198
 8540SOL    HW234589   8.879   9.849   0.575  1.7267 -1.0359 -1.5538
 8541SOL     OW34590   0.725   9.648   6.100  0.5479 -0.2618 -0.0910
 8541SOL    HW134591   0.640   9.689   6.081  1.3157  1.3976 -0.1169
 8541SOL    HW234592   0.709   9.595   6.178 -0.5567 -0.1165 -0.1937
 8542SOL     OW34593   8.242   6.976   7.572 -0.4638 -0.1714 -0.5481
 8542SOL    HW134594   8.228   6.910   7.504 -1.8360  0.9178 -1.3921
 8542SOL    HW234595   8.314   7.031   7.538 -2.5495  1.6835 -2.2750
 8543SOL     OW34596   2.809  11.742   4.282  0.0033  0.1460  0.8676
 8543SOL    HW134597   2.762  11.706   4.207 -0.5956  0.9115  0.8660
 8543SOL    HW234598   2.859  11.815   4.247  1.2782 -0.7081  0.8600
 8544SOL     OW34599   7.488  10.420   5.581  0.4270 -0.0952 -0.0794
 8544SOL    HW134600   7.448  10.365   5.513 -0.3422  0.5129 -0.1341
 8544SOL    HW234601   7.481  10.368   5.661  0.3134 -0.3529 -0.2557
 8545SOL     OW34602   5.725   4.739   2.641  0.0264 -0.0255  0.0514
 8545SOL    HW134603   5.778   4.793   2.582 -0.6372 -0.4031 -0.9069
 8545SOL    HW234604   5.636   4.772   2.632  0.3064  2.1129  3.3319
 8546SOL     OW34605   1.340  10.946  12.409  0.4153  0.1040  0.2912
 8546SOL    HW134606   1.359  10.935  12.503  0.0333  0.3098  0.3924
 8546SOL    HW234607   1.391  11.023  12.384  0.1098  0.3611  0.4506
 8547SOL     OW34608   0.815   3.170   9.885  0.8756  0.1809 -0.6282
 8547SOL    HW134609   0.820   3.252   9.836  0.0707  0.4186 -0.3324
 8547SOL    HW234610   0.731   3.131   9.859  0.7768 -0.0447 -0.0028
 8548SOL     OW34611   2.164  12.492   0.809  0.1596  0.1719  0.0568
 8548SOL    HW134612   2.146  12.496   0.715 -0.2494 -1.2365  0.0492
 8548SOL    HW234613   2.105  12.557   0.848  0.5787  1.0096 -0.6798
 8549SOL     OW34614   9.549   0.547  11.315  0.0776  0.0599  0.1696
 8549SOL    HW134615   9.468   0.555  11.265 -0.6198  1.1176  1.4178
 8549SOL    HW234616   9.570   0.637  11.341  0.8393 -0.3793  1.1177
 8550SOL     OW34617  12.302   5.329   2.340 -0.2030  0.0490  0.1291
 8550SOL    HW134618  12.247   5.406   2.356  0.8565  0.5678  1.4896
 8550SOL    HW234619  12.303   5.283   2.424  0.4562 -0.5896 -0.2216
 8551SOL     OW34620   9.472   5.896   4.668  0.3284 -0.1589  0.1144
 8551SOL    HW134621   9.552   5.932   4.707  0.3498 -0.8488  0.7408
 8551SOL    HW234622   9.440   5.965   4.610  2.0760 -0.3601 -1.1485
 8552SOL     OW34623   4.595   3.262   1.951 -0.5829  0.2291 -0.0635
 8552SOL    HW134624   4.520   3.316   1.927  0.1241  0.8675 -0.8856
 8552SOL    HW234625   4.669   3.323   1.953 -0.1635 -0.2724  1.2953
 8553SOL     OW34626   6.304  11.200   6.802  0.3600  0.8429 -0.7491
 8553SOL    HW134627   6.250  11.276   6.778 -0.6814  0.1526 -0.6352
 8553SOL    HW234628   6.279  11.132   6.740  0.3007  0.1704  0.0061
 8554SOL     OW34629   6.880   7.709   9.679  0.2574 -0.0707  0.2746
 8554SOL    HW134630   6.883   7.690   9.772 -0.2802 -3.3834 -0.2820
 8554SOL    HW234631   6.865   7.625   9.637 -1.1428  1.5030 -2.7455
 8555SOL     OW34632   2.231   8.052  11.317 -0.5462 -0.3304 -0.6383
 8555SOL    HW134633   2.171   8.087  11.383 -0.0563  0.1296 -0.4343
 8555SOL    HW234634   2.244   7.960  11.342 -0.1287 -0.0795  0.0803
 8556SOL     OW34635   2.181   7.704   6.202  0.3193  0.1823  0.3963
 8556SOL    HW134636   2.226   7.699   6.286  0.3609 -1.5469  0.3134
 8556SOL    HW234637   2.232   7.646   6.144  0.7360  1.9048 -1.0462
 8557SOL     OW34638   6.229   6.515   9.339  0.0525  0.5201  0.1726
 8557SOL    HW134639   6.324   6.524   9.347 -0.0853  1.8005  0.4743
 8557SOL    HW234640   6.215   6.420   9.331  1.4274  0.3728 -0.9580
 8558SOL     OW34641  12.420   3.284   5.555 -0.3172 -0.0883 -0.0282
 8558SOL    HW134642  12.334   3.315   5.526 -0.0704  0.8772  0.2553
 8558SOL    HW234643  12.482   3.324   5.494  0.1080  0.9857  1.0657
 8559SOL     OW34644   9.826   5.451  10.703  0.5374 -0.0219 -0.4147
 8559SOL    HW134645   9.904   5.490  10.664  0.4462  0.4774 -0.1061
 8559SOL    HW234646   9.858   5.374  10.749  0.9558  0.5604  0.2922
 8560SOL     OW34647   4.247  11.807  11.784 -0.5669  0.2285  0.3902
 8560SOL    HW134648   4.326  11.860  11.776 -0.5073  0.1682  0.5734
 8560SOL    HW234649   4.246  11.752  11.705 -0.4526  0.2641  0.3642
 8561SOL     OW34650   7.859  11.637   0.801 -0.1679  0.0117  0.5110
 8561SOL    HW134651   7.864  11.544   0.821  1.1492  0.3315  1.8367
 8561SOL    HW234652   7.883  11.644   0.709  1.2255 -0.8288  0.7936
 8562SOL     OW34653   9.744   2.763   1.683  0.4157  0.0516 -0.0904
 8562SOL    HW134654   9.752   2.712   1.602  1.1885  1.0813 -0.6911
 8562SOL    HW234655   9.689   2.709   1.740 -1.1251 -0.1935 -1.7171
 8563SOL     OW34656   6.987   7.695   9.931  0.0502 -0.3097 -0.1667
 8563SOL    HW134657   7.022   7.694  10.020 -0.3213  0.7184  0.0054
 8563SOL    HW234658   6.995   7.604   9.901  2.3180 -0.2396  0.0620
 8564SOL     OW34659   9.088  10.489  11.750  0.0188  0.3108  0.0027
 8564SOL    HW134660   8.999  10.468  11.723  0.3096 -1.4697  0.2844
 8564SOL    HW234661   9.127  10.530  11.673 -0.6587 -0.1098 -0.5855
 8565SOL     OW34662   1.521   5.048  11.325  0.6800 -0.3490  0.0337
 8565SOL    HW134663   1.565   5.003  11.252  0.0978  0.2182 -0.6802
 8565SOL    HW234664   1.592   5.085  11.376  1.0675 -0.0469 -0.7116
 8566SOL     OW34665   4.655   9.215   9.767  0.0557 -0.1568 -0.4662
 8566SOL    HW134666   4.661   9.246   9.858 -0.5326 -0.1852 -0.4163
 8566SOL    HW234667   4.562   9.200   9.753  0.0922  0.3038 -1.2312
 8567SOL     OW34668  10.865   6.188   0.648  0.4051 -0.6092  0.2046
 8567SOL    HW134669  10.823   6.271   0.627  3.2002  0.6784 -0.8763
 8567SOL    HW234670  10.800   6.139   0.699 -1.9784  1.4791 -0.6586
 8568SOL     OW34671   7.211   4.970   2.877  0.3102  0.4157 -0.2617
 8568SOL    HW134672   7.269   5.022   2.932  0.8016 -0.3671 -0.0258
 8568SOL    HW234673   7.270   4.921   2.819  0.0704 -2.0410  1.4107
 8569SOL     OW34674   7.250  10.018   2.147 -0.0412  0.0014  0.3250
 8569SOL    HW134675   7.234   9.981   2.233 -1.4413 -3.0913 -1.1220
 8569SOL    HW234676   7.162  10.037   2.112  0.3567 -0.7096 -1.1475
 8570SOL     OW34677   2.690  11.952   6.261  0.3728 -0.3319 -0.8962
 8570SOL    HW134678   2.690  11.902   6.179  0.5491 -1.1178 -0.4241
 8570SOL    HW234679   2.598  11.960   6.284  0.1931  1.3223 -2.0108
 8571SOL     OW34680   9.533  10.163   2.695  0.6558 -0.0721  0.3540
 8571SOL    HW134681   9.448  10.205   2.679  0.7561 -0.0063 -0.0080
 8571SOL    HW234682   9.554  10.118   2.613  0.9912 -0.0526  0.4277
 8572SOL     OW34683   1.609   4.006   2.944 -0.5164 -0.4593  0.3728
 8572SOL    HW134684   1.679   4.059   2.907  0.0625 -1.6325 -0.2755
 8572SOL    HW234685   1.636   3.916   2.929 -1.3566 -0.9642  1.6599
 8573SOL     OW34686   9.897   1.644   3.697  0.0738  0.1931 -0.1511
 8573SOL    HW134687   9.977   1.631   3.646 -0.4002  0.6384 -1.0390
 8573SOL    HW234688   9.867   1.555   3.717 -0.3582 -0.0483 -1.6919
 8574SOL     OW34689   3.259   5.614  11.630  0.1573 -0.3826  0.1767
 8574SOL    HW134690   3.295   5.689  11.582 -1.6984 -0.7100 -1.9267
 8574SOL    HW234691   3.299   5.538  11.589 -2.8758 -0.7824 -2.5206
 8575SOL     OW34692   3.064   6.648   4.577  0.4570 -0.1144  0.1801
 8575SOL    HW134693   3.045   6.736   4.544 -1.4089 -0.3265  0.5987
 8575SOL    HW234694   3.073   6.659   4.671  2.0893 -0.1085  0.0540
 8576SOL     OW34695   6.389   6.884   6.641 -0.4486 -0.3456  0.1305
 8576SOL    HW134696   6.371   6.822   6.570 -0.9690 -2.3403  1.8822
 8576SOL    HW234697   6.435   6.832   6.707 -2.0368  0.7406  2.2341
 8577SOL     OW34698   0.928   1.655   5.594  0.1480  0.2620  0.3463
 8577SOL    HW134699   0.837   1.630   5.581  0.6350 -0.6103 -1.7914
 8577SOL    HW234700   0.942   1.730   5.537  0.7233  0.5254  0.8121
 8578SOL     OW34701   8.431  11.693   9.436 -0.2973 -0.4286  0.2297
 8578SOL    HW134702   8.365  11.722   9.373  0.5402  0.5201 -0.2424
 8578SOL    HW234703   8.422  11.754   9.509 -0.8287 -1.1279  0.7580
 8579SOL     OW34704   5.172  12.540   2.774  0.6847  0.3926  0.1171
 8579SOL    HW134705   5.187  12.445   2.777 -0.0587  0.2919  0.9894
 8579SOL    HW234706   5.258  12.577   2.753  1.3301 -0.3858  1.2837
 8580SOL     OW34707   5.306   7.157   4.425  0.6456  0.3752 -0.4727
 8580SOL    HW134708   5.258   7.080   4.395  0.4543  1.5265 -3.5078
 8580SOL    HW234709   5.256   7.189   4.500 -1.0263 -0.7361 -1.0667
 8581SOL     OW34710  10.316  10.556   6.486 -0.2533 -0.3692 -0.8951
 8581SOL    HW134711  10.248  10.583   6.547 -0.0225 -2.7923  0.5830
 8581SOL    HW234712  10.380  10.627   6.487 -0.8791  0.2053  0.7442
 8582SOL     OW34713  11.963  10.175   5.057  0.2590 -0.3562  0.4478
 8582SOL    HW134714  12.042  10.149   5.010  1.8696  2.4335  1.3447
 8582SOL    HW234715  11.910  10.219   4.990  1.6960  1.9310  0.6868
 8583SOL     OW34716   2.298   6.116   5.249 -0.2930 -0.4673  0.7960
 8583SOL    HW134717   2.358   6.041   5.250 -0.3427 -0.5091  1.2782
 8583SOL    HW234718   2.219   6.083   5.293 -1.1248 -0.7717 -0.8634
 8584SOL     OW34719   8.580   2.709   6.571 -0.3035 -0.2545 -0.0801
 8584SOL    HW134720   8.517   2.721   6.643 -1.4278 -0.9856 -0.9094
 8584SOL    HW234721   8.625   2.793   6.565 -2.6428  1.0293 -0.7963
 8585SOL     OW34722   9.122   3.840   4.075 -0.1429 -0.2422  0.1182
 8585SOL    HW134723   9.119   3.933   4.054  0.2008  0.5506  3.1117
 8585SOL    HW234724   9.210   3.826   4.111 -0.7970 -1.2458  1.4595
 8586SOL     OW34725  11.436   5.774   9.475 -0.0313 -0.0326 -0.1672
 8586SOL    HW134726  11.392   5.761   9.559 -0.4838  1.2810 -0.1810
 8586SOL    HW234727  11.475   5.689   9.455  0.7191 -0.1906  1.7315
 8587SOL     OW34728   8.994   8.522   4.715  0.3759  0.2491 -0.3855
 8587SOL    HW134729   8.995   8.506   4.810  0.4321 -1.8476 -0.6900
 8587SOL    HW234730   9.071   8.474   4.682 -0.2682  0.0183 -1.6031
 8588SOL     OW34731   0.576   2.294   6.129 -0.0785  0.4027 -0.2237
 8588SOL    HW134732   0.645   2.361   6.132 -1.1801  1.5940 -0.4396
 8588SOL    HW234733   0.497   2.340   6.157 -0.9275 -0.7445 -0.6557
 8589SOL     OW34734   0.381   7.872   3.762  0.5124 -0.1989 -0.4071
 8589SOL    HW134735   0.343   7.929   3.830  1.0203  0.0518 -0.3284
 8589SOL    HW234736   0.313   7.807   3.745 -0.4822  1.0291 -1.2295
 8590SOL     OW34737   6.662   3.767   9.784 -0.0936 -0.4614 -0.6277
 8590SOL    HW134738   6.576   3.741   9.753 -0.5389  2.1230 -1.7911
 8590SOL    HW234739   6.722   3.741   9.714 -0.0239 -1.4521 -0.2142
 8591SOL     OW34740  11.356  10.929  10.011  0.1350  0.1394  0.2372
 8591SOL    HW134741  11.266  10.935  10.044  0.4889  0.7180  1.1484
 8591SOL    HW234742  11.408  10.974  10.077  0.7553  2.3985 -1.6570
 8592SOL     OW34743   4.957   8.534   7.917 -0.4830 -0.1150  0.5094
 8592SOL    HW134744   4.978   8.455   7.966 -2.1571 -0.6207  0.4627
 8592SOL    HW234745   4.898   8.583   7.974  0.3423  1.0108  0.4346
 8593SOL     OW34746  11.925   6.009   7.489 -0.1214 -0.3081 -0.2434
 8593SOL    HW134747  11.841   5.980   7.453 -2.3265  0.4709  3.6856
 8593SOL    HW234748  11.984   5.935   7.474 -2.0818 -1.7516 -1.3011
 8594SOL     OW34749   1.073   5.124   7.232  0.0223  0.1808 -0.1659
 8594SOL    HW134750   1.040   5.060   7.295  1.7241  2.0573  2.9111
 8594SOL    HW234751   0.995   5.162   7.192 -1.3616  0.3307  2.4418
 8595SOL     OW34752   0.195   8.967   3.468  0.4931  0.2046 -0.0296
 8595SOL    HW134753   0.115   8.917   3.449  0.2359  0.6579 -0.1419
 8595SOL    HW234754   0.199   9.034   3.400  0.2619  1.0104  0.7347
 8596SOL     OW34755  12.474  10.765   7.220 -0.1556  0.6257  0.0864
 8596SOL    HW134756  12.548  10.785   7.163 -1.2330 -2.2143 -2.5885
 8596SOL    HW234757  12.410  10.835   7.202  0.6091  1.3191  0.0010
 8597SOL     OW34758   3.392   4.609   1.372  0.2325  0.1845 -0.1556
 8597SOL    HW134759   3.350   4.694   1.381 -0.9512 -0.3782 -0.2416
 8597SOL    HW234760   3.346   4.567   1.299  0.1590 -0.9106  0.5058
 8598SOL     OW34761   1.755   6.290   6.701 -0.9635 -0.2635  0.2600
 8598SOL    HW134762   1.786   6.338   6.779  0.3095 -1.6359  0.6323
 8598SOL    HW234763   1.835   6.264   6.655 -1.6596 -1.1083 -0.5059
 8599SOL     OW34764   2.229   2.911   5.606  1.3545 -0.3398 -0.0217
 8599SOL    HW134765   2.318   2.888   5.579 -0.0432 -3.6310 -2.5102
 8599SOL    HW234766   2.223   2.879   5.696  2.0960 -2.1298 -0.5643
 8600SOL     OW34767  12.457   2.579   8.515 -0.1688  0.4304 -0.3145
 8600SOL    HW134768  12.392   2.584   8.585  1.6503  2.7590  1.4117
 8600SOL    HW234769  12.425   2.637   8.447 -1.0465 -0.3863 -0.6198
 8601SOL     OW34770   0.986  10.836   5.698 -0.1693 -0.2837 -0.6989
 8601SOL    HW134771   1.042  10.870   5.768 -0.9909 -1.0175  0.3472
 8601SOL    HW234772   1.015  10.883   5.619  0.2072  1.1904  0.2717
 8602SOL     OW34773   9.185   0.802  11.826 -0.1930  0.1872  0.2317
 8602SOL    HW134774   9.119   0.834  11.766 -0.1114 -0.4671 -0.2098
 8602SOL    HW234775   9.264   0.853  11.804 -0.3611  0.4878  0.3087
 8603SOL     OW34776   5.137  11.812   8.531 -0.3315 -0.3207  0.6782
 8603SOL    HW134777   5.177  11.838   8.447 -0.3166 -0.0183  0.7759
 8603SOL    HW234778   5.079  11.739   8.509  0.9343 -1.3601  0.6683
 8604SOL     OW34779   0.192   8.442   6.217 -0.2649 -0.7336  0.6592
 8604SOL    HW134780   0.263   8.391   6.179  1.6268  0.8552  1.8987
 8604SOL    HW234781   0.184   8.409   6.306  0.5627  0.6496  1.2745
 8605SOL     OW34782   8.933   9.759   0.074  0.6433 -0.2384 -0.2482
 8605SOL    HW134783   8.944   9.820   0.001 -0.4021 -2.0042 -1.9537
 8605SOL    HW234784   8.855   9.790   0.119  0.9836  0.5478 -0.1740
 8606SOL     OW34785   5.723   0.090   5.151  0.2526  0.4943  0.0549
 8606SOL    HW134786   5.713   0.086   5.056 -1.4726  0.3371  0.2269
 8606SOL    HW234787   5.775   0.169   5.166  1.2591  0.0806 -1.0430
 8607SOL     OW34788   7.947   1.486  10.825 -0.4222  0.2756 -0.2803
 8607SOL    HW134789   7.873   1.515  10.772 -0.2320  2.6959  0.6437
 8607SOL    HW234790   7.908   1.456  10.907 -0.4282  1.8957  0.3499
 8608SOL     OW34791   4.437   8.895   1.479 -0.4203 -0.2047  0.0448
 8608SOL    HW134792   4.462   8.805   1.456 -0.6750 -0.2970  0.1257
 8608SOL    HW234793   4.372   8.885   1.549  0.2430  0.0753  0.7099
 8609SOL     OW34794   6.764  12.135   2.291 -0.9093  0.8930  0.5512
 8609SOL    HW134795   6.733  12.212   2.340 -1.7856 -0.3432  2.0076
 8609SOL    HW234796   6.717  12.140   2.207 -1.1965  1.7684  0.7514
 8610SOL     OW34797   1.290   4.870   7.299 -0.1408 -0.2635 -0.6952
 8610SOL    HW134798   1.258   4.858   7.210  0.6363 -2.4183 -0.7561
 8610SOL    HW234799   1.357   4.938   7.292  0.5550 -1.0355 -1.9488
 8611SOL     OW34800   0.506   6.540   1.625  0.5370 -0.3852  0.1332
 8611SOL    HW134801   0.496   6.595   1.702  0.7632  0.3728 -0.3736
 8611SOL    HW234802   0.500   6.450   1.659 -0.7085 -0.0566  0.8356
 8612SOL     OW34803  10.665  12.061   9.220  0.1644 -0.0175  0.1881
 8612SOL    HW134804  10.578  12.060   9.179 -0.1956 -0.6421  0.9281
 8612SOL    HW234805  10.699  12.148   9.202 -1.6889  1.2027  2.0281
 8613SOL     OW34806   6.285   1.232  12.394 -0.1540  0.5635 -0.3109
 8613SOL    HW134807   6.271   1.138  12.381 -2.8193  0.7659  0.5308
 8613SOL    HW234808   6.303   1.266  12.307 -2.6015 -0.2567 -1.2079
 8614SOL     OW34809   6.557   7.416   3.003  0.3039  0.1659  0.3302
 8614SOL    HW134810   6.510   7.333   3.010 -1.2465  0.8507 -1.2126
 8614SOL    HW234811   6.552   7.453   3.091  0.4537 -1.0785  0.8820
 8615SOL     OW34812   9.955  10.235   9.942 -0.0944  0.2115  0.2928
 8615SOL    HW134813  10.024  10.291   9.978 -0.7198  2.7334 -2.1627
 8615SOL    HW234814   9.878  10.254   9.997 -0.0346  0.9793  0.1167
 8616SOL     OW34815  12.467   3.190   2.576 -0.3407  0.3047 -0.3683
 8616SOL    HW134816  12.546   3.172   2.525 -0.2662  1.4981 -0.7138
 8616SOL    HW234817  12.459   3.286   2.574 -1.1898  0.2670  0.5818
 8617SOL     OW34818  12.319   8.310   1.108  0.3412  0.6650  0.2759
 8617SOL    HW134819  12.360   8.379   1.159 -0.0895  1.6475 -0.6725
 8617SOL    HW234820  12.240   8.287   1.157  1.1881 -0.1492  1.3042
 8618SOL     OW34821  10.525   2.575   4.628  0.0506  0.7035  0.1858
 8618SOL    HW134822  10.499   2.664   4.651  0.2904  1.4063 -1.9487
 8618SOL    HW234823  10.576   2.586   4.547  0.2652 -1.3581 -0.0137
 8619SOL     OW34824   3.598   8.873   5.769 -0.3735  0.1843 -0.2399
 8619SOL    HW134825   3.662   8.925   5.817 -0.1747 -0.0387 -0.2576
 8619SOL    HW234826   3.595   8.911   5.681 -0.7058  0.5641 -0.0661
 8620SOL     OW34827   1.922  12.201   8.534  0.5491 -0.2721  0.9916
 8620SOL    HW134828   1.952  12.237   8.451  0.5962  2.4776  2.0990
 8620SOL    HW234829   1.981  12.238   8.599 -0.9668 -0.4003  2.5035
 8621SOL     OW34830  10.415   4.034  10.347 -0.1740 -0.3838 -0.2017
 8621SOL    HW134831  10.495   3.995  10.313 -0.3473 -1.3016  0.4282
 8621SOL    HW234832  10.367   3.961  10.386 -0.4992  0.4489  1.0034
 8622SOL     OW34833   4.096  11.532  10.832  0.2220 -0.7149 -0.0716
 8622SOL    HW134834   4.160  11.566  10.769  0.5248  2.2963  1.6954
 8622SOL    HW234835   4.149  11.498  10.904  0.0204  2.0698  1.5439
 8623SOL     OW34836   2.152  10.744   9.963 -0.0847  0.4478 -0.5610
 8623SOL    HW134837   2.207  10.666   9.958  0.2905  0.7840 -2.4262
 8623SOL    HW234838   2.191  10.796  10.034  2.4630  0.9849 -2.2369
 8624SOL     OW34839  12.106   7.511   1.084 -0.3968 -0.1089 -1.0241
 8624SOL    HW134840  12.067   7.588   1.126  0.4346 -0.4169  0.3674
 8624SOL    HW234841  12.033   7.450   1.074 -0.3263 -0.7407  1.7016
 8625SOL     OW34842  11.973   5.157  12.127 -0.1011  0.3062  0.0059
 8625SOL    HW134843  11.890   5.177  12.083  0.2287  1.0011 -0.3236
 8625SOL    HW234844  12.034   5.139  12.055 -0.4138 -2.1353  0.2846
 8626SOL     OW34845   8.997   1.895   7.405 -0.2792  0.7024 -0.5497
 8626SOL    HW134846   9.051   1.903   7.484 -0.4583  0.8051 -0.4364
 8626SOL    HW234847   8.913   1.934   7.430 -0.8006 -0.4973 -0.3527
 8627SOL     OW34848   3.875   7.607  10.503 -0.2664  0.4770  0.5218
 8627SOL    HW134849   3.931   7.544  10.457  0.9110  0.2322  2.2114
 8627SOL    HW234850   3.936   7.667  10.545 -1.3475  3.0744 -1.3462
 8628SOL     OW34851   9.865   6.674  10.429 -0.6018  0.5230 -0.1800
 8628SOL    HW134852   9.942   6.624  10.402 -1.4267 -0.1007 -1.4647
 8628SOL    HW234853   9.896   6.765  10.432  0.3688  0.1910  0.0546
 8629SOL     OW34854   2.209  11.738   4.010 -0.2257  0.0068 -0.6696
 8629SOL    HW134855   2.195  11.756   4.102 -1.9631  0.3209 -0.9602
 8629SOL    HW234856   2.137  11.783   3.965 -1.2725 -2.6343 -1.9113
 8630SOL     OW34857   9.789   6.607   2.828  0.6344 -0.3591  0.2938
 8630SOL    HW134858   9.813   6.682   2.774 -0.3300 -0.0805  0.2482
 8630SOL    HW234859   9.845   6.615   2.906  0.4744  0.4665  0.3354
 8631SOL     OW34860  10.985  10.997   8.448 -0.1069  0.0139 -0.0840
 8631SOL    HW134861  11.020  11.014   8.536 -0.1539  3.3598 -0.5900
 8631SOL    HW234862  11.056  10.951   8.403  1.3317  1.4023  0.6855
 8632SOL     OW34863   1.685   1.482  10.264  0.0167 -0.3125 -0.3132
 8632SOL    HW134864   1.756   1.516  10.209  0.2335  0.8394  0.6439
 8632SOL    HW234865   1.729   1.428  10.329 -0.0314 -0.0695 -0.0755
 8633SOL     OW34866   0.486  12.052   9.511  0.3638  0.0959  0.1460
 8633SOL    HW134867   0.506  12.143   9.535 -0.3480  0.0968  0.7926
 8633SOL    HW234868   0.536  12.037   9.431 -0.0543  1.2819 -0.3709
 8634SOL     OW34869  10.475   4.086   5.694 -0.0814  0.4174  0.3464
 8634SOL    HW134870  10.542   4.020   5.710 -0.9443 -0.2948  1.1709
 8634SOL    HW234871  10.477   4.100   5.600 -0.6519 -1.6560 -0.0117
 8635SOL     OW34872   4.902   7.718  10.737  0.0695 -0.1066 -0.6815
 8635SOL    HW134873   4.932   7.772  10.810  0.8523  0.7477 -1.6007
 8635SOL    HW234874   4.836   7.660  10.775 -1.1262  1.7848  0.2796
 8636SOL     OW34875   0.701   6.636   6.120 -0.4407 -0.0789 -0.8784
 8636SOL    HW134876   0.650   6.696   6.065  1.9679  2.2983 -0.7331
 8636SOL    HW234877   0.668   6.651   6.208 -1.9707 -1.3851 -1.1697
 8637SOL     OW34878  11.788   9.003   7.219 -0.2012  0.1014 -0.3457
 8637SOL    HW134879  11.855   9.046   7.166  1.9252 -0.2665  1.8452
 8637SOL    HW234880  11.823   8.915   7.235  0.2450  0.7603  3.1247
 8638SOL     OW34881   0.182   4.331   9.325 -0.1899 -0.5628 -0.5082
 8638SOL    HW134882   0.128   4.403   9.293  2.3077  1.4887 -0.4284
 8638SOL    HW234883   0.139   4.252   9.293 -1.4696  1.0737 -3.1252
 8639SOL     OW34884   0.991   0.064   1.352  0.0232  0.1174 -0.3870
 8639SOL    HW134885   1.015   0.095   1.440  2.3997  1.0238 -1.2764
 8639SOL    HW234886   0.905   0.103   1.336 -0.9526 -0.9084  1.8981
 8640SOL     OW34887  11.140  12.428   5.143 -0.3762  0.0731 -0.0797
 8640SOL    HW134888  11.226  12.451   5.108  0.1482 -0.5748  0.7532
 8640SOL    HW234889  11.103  12.511   5.172  0.1695  0.2909 -0.0002
 8641SOL     OW34890   8.311  11.460   0.196 -0.0055  0.0098  0.1689
 8641SOL    HW134891   8.290  11.478   0.105 -0.3084 -3.9539 -0.7030
 8641SOL    HW234892   8.288  11.368   0.209  2.4242 -0.3137  3.5337
 8642SOL     OW34893  11.297   3.205  12.181  0.0583  0.0534  0.1185
 8642SOL    HW134894  11.262   3.117  12.166  0.0320  0.1263 -0.2745
 8642SOL    HW234895  11.344   3.199  12.264 -0.1706 -0.2630  0.2267
 8643SOL     OW34896  11.950   4.605  12.452 -0.0991 -0.0622 -0.1999
 8643SOL    HW134897  11.933   4.526  12.401  0.6140  0.2281 -0.9149
 8643SOL    HW234898  11.937   4.579  12.543 -1.6844 -0.5227 -0.5266
 8644SOL     OW34899   5.757   5.337   8.751  0.3250 -0.3053 -0.2036
 8644SOL    HW134900   5.852   5.337   8.762  0.2937  0.4443  0.1602
 8644SOL    HW234901   5.742   5.305   8.662  1.0403  1.6470 -1.0958
 8645SOL     OW34902   7.641   8.198  11.691  0.5492  0.2302  0.3506
 8645SOL    HW134903   7.647   8.103  11.684  0.1645  0.0711  1.8756
 8645SOL    HW234904   7.635   8.215  11.785  0.6320  1.7659  0.1017
 8646SOL     OW34905   3.462   8.982   5.018 -0.3911 -0.4349 -0.2947
 8646SOL    HW134906   3.458   9.078   5.015  1.2926 -0.3404 -0.2347
 8646SOL    HW234907   3.501   8.957   4.935  1.4275 -0.8860  0.6507
 8647SOL     OW34908   1.263   3.404   7.429  0.4521  0.0146 -0.2203
 8647SOL    HW134909   1.349   3.445   7.435  0.1952  0.7295 -1.2308
 8647SOL    HW234910   1.269   3.344   7.355 -0.0269  0.3506 -0.5384
 8648SOL     OW34911   3.182   6.204   7.267 -0.1382 -0.1022  0.1806
 8648SOL    HW134912   3.270   6.165   7.264  0.1729  0.5640  0.4462
 8648SOL    HW234913   3.198   6.298   7.274 -0.8826  0.0887 -0.5773
 8649SOL     OW34914  11.988   0.381   4.379 -0.2176 -0.2211 -0.3253
 8649SOL    HW134915  11.979   0.308   4.317 -0.7017 -0.1188 -0.3788
 8649SOL    HW234916  11.904   0.426   4.376 -0.8809 -1.2182  1.6946
 8650SOL     OW34917   9.508   4.631   4.424 -0.1427  0.0301  0.1953
 8650SOL    HW134918   9.582   4.688   4.401  0.5965 -0.8292  0.3806
 8650SOL    HW234919   9.431   4.688   4.419  0.4928  0.8648 -0.3132
 8651SOL     OW34920   8.145   0.204   0.189 -0.2156 -0.0150 -0.5833
 8651SOL    HW134921   8.138   0.254   0.270  0.6401  0.4980 -0.8109
 8651SOL    HW234922   8.101   0.258   0.124 -0.3735 -0.1414 -0.5814
 8652SOL     OW34923   9.229   1.906  11.952 -0.2053  0.1761 -0.0453
 8652SOL    HW134924   9.291   1.833  11.954  0.0423  0.3083  3.4524
 8652SOL    HW234925   9.143   1.864  11.949 -0.0305 -0.1601 -0.4682
 8653SOL     OW34926   0.288   6.462  10.662  0.0159  0.4069  0.5141
 8653SOL    HW134927   0.283   6.378  10.618  1.7024  1.2652 -1.5220
 8653SOL    HW234928   0.206   6.506  10.640  0.6149  0.6173 -1.4318
 8654SOL     OW34929  11.719  11.775   0.128 -0.3260  0.1520 -0.0604
 8654SOL    HW134930  11.791  11.826   0.166  0.0357 -1.4444  1.5145
 8654SOL    HW234931  11.704  11.704   0.191 -1.8905 -0.7587 -1.3901
 8655SOL     OW34932   8.047  12.447  10.091  0.8058 -0.3122  0.2904
 8655SOL    HW134933   8.025  12.539  10.101  0.5859 -0.2975 -0.2847
 8655SOL    HW234934   8.061  12.416  10.181  0.5128  0.1874  0.5150
 8656SOL     OW34935   3.485   7.485  11.670 -0.0191 -0.3901  0.6915
 8656SOL    HW134936   3.542   7.521  11.602 -0.4699  0.8040  0.9304
 8656SOL    HW234937   3.447   7.407  11.630  0.9661 -0.6221  0.1629
 8657SOL     OW34938   9.453   6.791   2.091  0.1292 -0.3054  0.0522
 8657SOL    HW134939   9.528   6.734   2.111 -0.0566 -0.4267  0.4122
 8657SOL    HW234940   9.478   6.876   2.127  1.0835  0.2826 -1.8576
 8658SOL     OW34941   4.967   7.575   5.799 -0.5520  0.0269  0.4753
 8658SOL    HW134942   4.872   7.587   5.799 -0.5119  0.5711  2.2630
 8658SOL    HW234943   5.002   7.659   5.827  0.2717 -1.0206  2.8832
 8659SOL     OW34944  11.511   6.017   9.949 -0.2055  0.2034 -0.1104
 8659SOL    HW134945  11.528   6.000  10.042  0.5234 -0.2866 -0.3182
 8659SOL    HW234946  11.447   6.088   9.948 -0.2232  0.2061  0.7660
 8660SOL     OW34947   4.795   2.668  11.311 -0.8374 -0.0225  0.0568
 8660SOL    HW134948   4.715   2.704  11.350 -0.7853 -0.2831  0.4092
 8660SOL    HW234949   4.777   2.575  11.302 -0.8083  0.0169 -0.4556
 8661SOL     OW34950   1.289   8.741   0.665 -0.0132  0.6014  0.5194
 8661SOL    HW134951   1.221   8.806   0.650 -0.4817 -0.0990 -0.5253
 8661SOL    HW234952   1.278   8.713   0.755  0.1477  1.9047  0.9571
 8662SOL     OW34953   3.216   4.430   2.282 -0.3305 -0.3456  0.3176
 8662SOL    HW134954   3.197   4.349   2.235 -0.0692  0.9891 -2.2839
 8662SOL    HW234955   3.297   4.461   2.243 -0.5483  1.2691  1.0906
 8663SOL     OW34956  12.249   5.261   6.039  0.2252 -0.2736  0.0161
 8663SOL    HW134957  12.221   5.280   6.128  0.5507 -1.4312  0.3773
 8663SOL    HW234958  12.266   5.167   6.038 -3.1609 -1.0755 -2.1638
 8664SOL     OW34959   1.893   3.343   3.462 -0.2864  0.9936  0.2914
 8664SOL    HW134960   1.898   3.288   3.384 -0.7987 -0.4695  1.2539
 8664SOL    HW234961   1.931   3.427   3.434 -0.3897  0.4950 -1.4948
 8665SOL     OW34962  11.232   9.706   7.827 -0.0938  0.0859 -0.0765
 8665SOL    HW134963  11.152   9.685   7.779 -0.6149  1.4992  0.1242
 8665SOL    HW234964  11.302   9.698   7.762 -0.7064  1.3088 -0.9156
 8666SOL     OW34965  11.713   3.852  11.919  0.1010  0.4357  0.1817
 8666SOL    HW134966  11.756   3.800  11.851  0.2110 -0.8735  1.2149
 8666SOL    HW234967  11.690   3.935  11.875  0.2931 -0.3081 -1.3931
 8667SOL     OW34968  11.175   8.126   6.591 -0.6106 -0.6323  0.2919
 8667SOL    HW134969  11.082   8.107   6.597 -1.4485  2.2126 -1.6187
 8667SOL    HW234970  11.191   8.193   6.657 -0.1633 -0.4631  0.0229
 8668SOL     OW34971   9.877   3.743   9.886  0.1692  0.2410 -0.4437
 8668SOL    HW134972   9.846   3.816   9.938 -0.3353  0.1400 -0.5990
 8668SOL    HW234973   9.956   3.776   9.843  0.2121  0.5360 -0.1418
 8669SOL     OW34974   7.344   4.447   8.110 -0.1186 -0.0282 -0.3176
 8669SOL    HW134975   7.321   4.536   8.083 -0.3165  0.3768  1.0836
 8669SOL    HW234976   7.384   4.458   8.196  1.1161 -1.1810 -0.7166
 8670SOL     OW34977  10.395   5.351   4.201  0.6907  0.8529 -0.1772
 8670SOL    HW134978  10.380   5.340   4.107 -0.4428  1.4494 -0.0976
 8670SOL    HW234979  10.367   5.268   4.240  1.0114  0.6615 -0.3557
 8671SOL     OW34980   0.061   3.976   4.941 -0.0462 -0.1321  0.3264
 8671SOL    HW134981  -0.010   3.970   4.876  0.5288 -0.5741 -0.2743
 8671SOL    HW234982   0.027   4.035   5.008 -1.6289 -1.5245  0.8430
 8672SOL     OW34983   5.900   3.020   2.608  0.8463  0.1074  0.0455
 8672SOL    HW134984   5.865   2.956   2.546  2.0172  0.4056 -0.9465
 8672SOL    HW234985   5.825   3.041   2.664  0.0068 -0.8685 -0.6638
 8673SOL     OW34986  10.525   0.723  12.353  0.4929  0.2711 -0.5640
 8673SOL    HW134987  10.494   0.787  12.418  0.4654 -0.1372 -0.1742
 8673SOL    HW234988  10.537   0.642  12.403 -2.5265 -0.9532 -1.6144
 8674SOL     OW34989   8.691   1.050   8.158  0.4767  0.0850  0.3181
 8674SOL    HW134990   8.754   0.992   8.115  1.6403  1.1356  0.5412
 8674SOL    HW234991   8.691   1.022   8.250  0.5455  0.0039  0.2934
 8675SOL     OW34992   0.961   3.183   9.479 -0.9997 -0.1403 -0.3769
 8675SOL    HW134993   1.040   3.140   9.512 -0.7846  0.0710 -0.6170
 8675SOL    HW234994   0.907   3.111   9.445 -0.1081 -0.1132 -1.9080
 8676SOL     OW34995  10.540   2.188   1.965 -0.5866 -0.0060  0.5551
 8676SOL    HW134996  10.616   2.192   1.907 -1.2191 -1.2592 -0.4165
 8676SOL    HW234997  10.466   2.214   1.909 -1.0103  0.2987  1.2354
 8677SOL     OW34998   3.967  11.732  11.782  0.2747 -0.0500  0.2553
 8677SOL    HW134999   3.928  11.783  11.853 -0.8306 -0.9708  0.3330
 8677SOL    HW235000   4.061  11.753  11.787 -0.0255  1.2977  0.8112
 8678SOL     OW35001   2.492  11.846   7.704 -0.8678 -0.1027 -0.0672
 8678SOL    HW135002   2.432  11.917   7.681 -0.8316  0.2052  0.7442
 8678SOL    HW235003   2.504  11.855   7.799 -0.2011 -0.6803 -0.0895
 8679SOL     OW35004  10.133   0.973   4.033  0.0139  0.5734  0.6369
 8679SOL    HW135005  10.066   1.033   4.067 -1.6138 -0.6025 -0.3608
 8679SOL    HW235006  10.131   0.986   3.938 -0.1458 -0.7872  0.4319
 8680SOL     OW35007   7.542   7.884  11.237 -0.5965 -0.1834 -0.6691
 8680SOL    HW135008   7.501   7.949  11.294  1.2779 -0.4448  1.1056
 8680SOL    HW235009   7.512   7.800  11.272  0.5181 -0.3428 -0.0548
 8681SOL     OW35010  12.589   4.866   4.335  0.2668 -0.2144 -0.1580
 8681SOL    HW135011  12.557   4.910   4.256  1.1257  1.1670  0.2140
 8681SOL    HW235012  12.682   4.890   4.339  0.1152  0.2522  1.5815
 8682SOL     OW35013   1.520   0.499   5.109  0.6055 -0.1596  0.0893
 8682SOL    HW135014   1.522   0.415   5.155  0.4172 -1.3161 -1.8807
 8682SOL    HW235015   1.602   0.542   5.133  0.3789 -0.5464  1.7005
 8683SOL     OW35016   1.565   3.191   3.433 -0.0856  0.2998  0.2569
 8683SOL    HW135017   1.553   3.238   3.515 -1.5378 -2.1049  1.5405
 8683SOL    HW235018   1.626   3.121   3.454  0.4335  0.3385 -1.0344
 8684SOL     OW35019  10.166   4.206   7.635 -0.1220 -0.4584 -0.7603
 8684SOL    HW135020  10.082   4.164   7.618 -0.6220  0.5417 -0.7948
 8684SOL    HW235021  10.167   4.224   7.729  0.8566 -2.1367 -0.4032
 8685SOL     OW35022   6.764   0.691   0.844 -0.3623 -0.3234 -0.1576
 8685SOL    HW135023   6.853   0.699   0.876  0.5220  0.3905 -2.5793
 8685SOL    HW235024   6.728   0.780   0.850 -1.2990 -0.7771  1.6976
 8686SOL     OW35025  10.430   9.089   3.813 -0.0980  0.5289  0.2336
 8686SOL    HW135026  10.480   9.045   3.881 -2.1766 -2.7386 -0.1426
 8686SOL    HW235027  10.372   9.149   3.861 -0.0755 -0.1874  1.1898
 8687SOL     OW35028   3.230  10.076   5.208  0.0522 -0.1852 -0.0582
 8687SOL    HW135029   3.314  10.095   5.249 -0.2382  1.7077 -0.2613
 8687SOL    HW235030   3.246   9.997   5.157  1.3451 -0.5990  0.9188
 8688SOL     OW35031   5.090   9.931   4.205 -0.3648  0.1006 -0.3333
 8688SOL    HW135032   5.164   9.945   4.146 -0.3719  0.5319 -0.2476
 8688SOL    HW235033   5.129   9.925   4.292 -0.5013  1.3027 -0.1719
 8689SOL     OW35034   8.016  10.910   0.609  0.1161  0.3579 -0.2057
 8689SOL    HW135035   8.083  10.914   0.542 -0.4893 -1.2407 -0.9591
 8689SOL    HW235036   7.934  10.924   0.562 -0.2162  0.6279  0.4373
 8690SOL     OW35037  11.772   5.498   2.904 -0.2627  0.0839  0.2037
 8690SOL    HW135038  11.688   5.502   2.859 -0.6614 -1.5428  0.7605
 8690SOL    HW235039  11.805   5.411   2.886  1.3247  0.6949 -0.0021
 8691SOL     OW35040   1.985   5.213   4.350 -0.1429 -0.4464  0.0177
 8691SOL    HW135041   1.927   5.255   4.286  0.6624  1.1517  0.3005
 8691SOL    HW235042   1.932   5.143   4.387 -1.5514  0.3099 -0.4848
 8692SOL     OW35043   5.000   7.976   4.692 -0.7137 -0.0484 -0.4849
 8692SOL    HW135044   4.960   7.918   4.757  0.6440  0.3390  0.7406
 8692SOL    HW235045   4.937   7.977   4.619 -1.7025 -1.4522  0.2972
 8693SOL     OW35046   4.135   4.642   8.306 -0.2447  0.3837 -1.3372
 8693SOL    HW135047   4.136   4.726   8.260 -1.6007  0.3560 -1.4424
 8693SOL    HW235048   4.069   4.590   8.261 -0.4622 -0.2210 -0.3538
 8694SOL     OW35049   9.890   6.723   9.583 -0.2804 -0.5987  1.1529
 8694SOL    HW135050   9.857   6.752   9.498  1.4261 -0.1128  0.6224
 8694SOL    HW235051   9.933   6.801   9.619  0.9021 -1.3850  1.4845
 8695SOL     OW35052   5.079   3.324   5.638  0.3615  0.3384  0.5628
 8695SOL    HW135053   5.052   3.316   5.546 -0.9926  2.2804  0.7411
 8695SOL    HW235054   5.130   3.405   5.641  0.0264  0.5232  1.5853
 8696SOL     OW35055   1.430   9.618   1.038 -0.1242 -0.1257 -0.0797
 8696SOL    HW135056   1.477   9.571   0.968  0.2810  1.5306 -0.9872
 8696SOL    HW235057   1.384   9.689   0.992  1.5575  2.1227  1.4503
 8697SOL     OW35058  11.759   4.909  10.287 -0.3565  0.1852  0.2274
 8697SOL    HW135059  11.726   4.861  10.363  0.3423  0.8163  0.9456
 8697SOL    HW235060  11.681   4.936  10.239 -0.7755 -1.1162  0.1506
 8698SOL     OW35061   3.579   3.918   0.498 -0.2203 -0.1828 -0.0541
 8698SOL    HW135062   3.570   3.977   0.573  2.1386 -0.4993  0.5780
 8698SOL    HW235063   3.623   3.840   0.534  0.4500 -0.5888 -1.6373
 8699SOL     OW35064   0.489   9.534   8.864 -0.1975 -0.3338 -0.3330
 8699SOL    HW135065   0.501   9.445   8.899 -0.8396  0.2600  1.5051
 8699SOL    HW235066   0.566   9.548   8.809 -0.0889 -2.0308 -0.6649
 8700SOL     OW35067   8.958  10.918   0.140  0.4940  0.1181 -0.0599
 8700SOL    HW135068   8.908  10.997   0.118  0.7811  0.5890  0.9057
 8700SOL    HW235069   8.894  10.847   0.133 -0.2414  0.6674  0.8060
 8701SOL     OW35070   1.899   6.488   3.921  0.6231  0.2449 -0.1073
 8701SOL    HW135071   1.953   6.527   3.852  0.2576 -0.3519 -0.7360
 8701SOL    HW235072   1.898   6.395   3.901  0.6225  0.0429  0.7929
 8702SOL     OW35073  10.290  11.755   6.562  0.0697 -0.4062 -0.3852
 8702SOL    HW135074  10.358  11.691   6.582 -1.5862 -1.6944  1.5512
 8702SOL    HW235075  10.277  11.748   6.468  1.5159 -1.2213 -0.5498
 8703SOL     OW35076  11.690   4.323   6.807 -0.1394  0.6606 -0.0817
 8703SOL    HW135077  11.663   4.275   6.728  1.9064 -0.2698 -0.2886
 8703SOL    HW235078  11.643   4.281   6.878  1.4546 -1.6643 -0.2851
 8704SOL     OW35079  10.504   3.106  12.261  1.0721 -0.3220  0.0890
 8704SOL    HW135080  10.555   3.177  12.222  0.9070 -0.0341  0.3890
 8704SOL    HW235081  10.486   3.136  12.350  0.2037 -0.3150 -0.0777
 8705SOL     OW35082   0.125   9.782   9.856  0.1374  0.6289  0.7914
 8705SOL    HW135083   0.166   9.801   9.941  0.9605 -1.3104  0.8773
 8705SOL    HW235084   0.194   9.795   9.792  0.3111 -0.5421  0.7164
 8706SOL     OW35085   3.244   0.912   1.678  0.3671 -0.1634 -0.2963
 8706SOL    HW135086   3.191   0.992   1.678  1.1607  0.3883 -1.4706
 8706SOL    HW235087   3.301   0.921   1.755 -1.4536 -0.9629  1.2389
 8707SOL     OW35088   9.856   4.348   0.831 -0.3906 -0.1344 -0.4529
 8707SOL    HW135089   9.851   4.349   0.926  1.8893  0.5780 -0.3030
 8707SOL    HW235090   9.835   4.258   0.807 -1.0741 -0.2998  0.6837
 8708SOL     OW35091   8.937   8.610   1.312  0.0948  0.1279 -0.6009
 8708SOL    HW135092   9.017   8.625   1.363 -1.2170  1.0640  1.2950
 8708SOL    HW235093   8.961   8.540   1.250  2.5025  0.7303 -0.4691
 8709SOL     OW35094   7.696   1.479   1.642 -0.5159  0.0014  0.6823
 8709SOL    HW135095   7.755   1.406   1.622  0.9028  1.4683 -0.8105
 8709SOL    HW235096   7.660   1.504   1.557  0.0115  1.8173  0.9488
 8710SOL     OW35097   0.885   4.527   1.890  0.0799 -0.4838 -0.1954
 8710SOL    HW135098   0.872   4.596   1.955  0.7219 -1.0656  0.5745
 8710SOL    HW235099   0.957   4.559   1.835  1.4429 -1.1660  1.1103
 8711SOL     OW35100   9.749   4.449   2.112  0.1156 -0.1156 -0.0520
 8711SOL    HW135101   9.774   4.362   2.079  1.1985  0.1534  0.0322
 8711SOL    HW235102   9.693   4.430   2.187  1.3923 -0.7811  0.7782
 8712SOL     OW35103   7.451   5.596  10.868 -0.7749  0.3447  0.2349
 8712SOL    HW135104   7.379   5.581  10.929  0.3841 -1.5703  1.2357
 8712SOL    HW235105   7.471   5.509  10.833  2.4454  0.3638  1.6588
 8713SOL     OW35106  11.764  10.048   6.744 -0.3964 -0.0334  0.3259
 8713SOL    HW135107  11.809   9.965   6.756  1.5316  0.6464 -1.4664
 8713SOL    HW235108  11.704  10.033   6.671 -1.0111 -0.1692  0.8473
 8714SOL     OW35109   1.010  10.196   8.112  0.5355  0.0467 -0.0924
 8714SOL    HW135110   0.995  10.148   8.031  0.4973  0.4948 -0.3543
 8714SOL    HW235111   1.076  10.262   8.090 -1.7259  2.2937 -0.6530
 8715SOL     OW35112   0.532   9.810   6.618  0.0580 -0.1869  0.1789
 8715SOL    HW135113   0.606   9.798   6.678 -0.0504  0.9155  0.5651
 8715SOL    HW235114   0.460   9.838   6.675 -0.5315 -0.7783 -0.2583
 8716SOL     OW35115   2.097   0.054   8.551 -0.3045 -0.4921  0.6018
 8716SOL    HW135116   2.072   0.081   8.463  3.1485 -2.4309 -1.1839
 8716SOL    HW235117   2.079  -0.040   8.554  1.0034 -0.7568  1.3426
 8717SOL     OW35118   9.765   0.678   7.191 -0.3056 -0.2221  0.9598
 8717SOL    HW135119   9.679   0.694   7.152 -0.2466  2.0744  1.6597
 8717SOL    HW235120   9.826   0.722   7.133  0.2803 -0.6827  1.2128
 8718SOL     OW35121   8.000  11.222   6.545  0.6520  0.2428 -0.3604
 8718SOL    HW135122   8.036  11.176   6.469 -2.1079  0.6954 -2.0935
 8718SOL    HW235123   7.985  11.311   6.513 -1.6908  0.1268  0.2770
 8719SOL     OW35124   7.296   9.628   4.179  0.0818  0.0026 -0.4203
 8719SOL    HW135125   7.343   9.554   4.142  1.0289 -0.2379  1.1623
 8719SOL    HW235126   7.363   9.696   4.191 -0.2620  0.1997  0.4723
 8720SOL     OW35127   1.998   3.745   6.705 -0.1145  0.3234  0.1752
 8720SOL    HW135128   1.907   3.727   6.685 -0.0932  0.9854 -0.5519
 8720SOL    HW235129   2.007   3.725   6.798 -0.8795 -0.2080  0.1362
 8721SOL     OW35130  10.058   8.741   7.398  0.0986  0.9146 -0.2115
 8721SOL    HW135131  10.017   8.687   7.466 -0.8169  2.7270  0.7742
 8721SOL    HW235132  10.152   8.736   7.417 -0.1709  1.9815  1.7634
 8722SOL     OW35133   8.573   9.563   1.704 -0.0296 -0.1308  0.2735
 8722SOL    HW135134   8.586   9.617   1.782 -0.4516 -1.6901  1.4712
 8722SOL    HW235135   8.632   9.489   1.716  0.4088 -0.0642 -1.2475
 8723SOL     OW35136   7.726   7.358   4.495 -1.5913 -0.0396  0.4836
 8723SOL    HW135137   7.722   7.415   4.418  1.4128  1.2527  1.1524
 8723SOL    HW235138   7.697   7.272   4.462 -2.5273  0.9592 -1.5003
 8724SOL     OW35139   8.500   5.333   1.916  0.3479 -0.1321 -0.1736
 8724SOL    HW135140   8.477   5.325   2.009 -1.6324 -0.7998 -0.6671
 8724SOL    HW235141   8.595   5.320   1.914  0.4547 -0.0169  1.7535
 8725SOL     OW35142  10.620   1.965   8.486 -0.1422 -0.2868 -0.1251
 8725SOL    HW135143  10.615   1.926   8.573  0.1919 -0.3340 -0.1250
 8725SOL    HW235144  10.713   1.983   8.473 -0.2946  0.5407 -0.1128
 8726SOL     OW35145   2.950   1.002   5.026 -0.3618 -0.1327 -0.0998
 8726SOL    HW135146   3.030   0.973   4.982  1.0117  0.7425  1.6997
 8726SOL    HW235147   2.938   1.092   4.997 -0.2767 -0.0232  0.2073
 8727SOL     OW35148   0.008   3.477   4.588 -0.4155  0.2618 -0.3346
 8727SOL    HW135149  -0.042   3.451   4.665  1.7548 -0.6933  0.8198
 8727SOL    HW235150   0.092   3.509   4.623  0.6164 -0.1717 -2.2866
 8728SOL     OW35151   8.770   5.928   9.052 -0.7647 -0.5899 -0.2695
 8728SOL    HW135152   8.809   5.947   9.137 -1.5389 -0.2068  0.0017
 8728SOL    HW235153   8.825   5.858   9.017  0.0658 -0.1901  0.1772
 8729SOL     OW35154   6.044   2.874   6.193  0.1023 -0.0175  0.3027
 8729SOL    HW135155   6.024   2.790   6.151  1.9884 -1.3939  1.9347
 8729SOL    HW235156   5.960   2.920   6.196 -1.3969 -2.6132  0.9308
 8730SOL     OW35157   7.591  11.012   8.723 -0.0882  0.0110  0.0612
 8730SOL    HW135158   7.623  10.991   8.811 -0.4439  0.3706  0.2782
 8730SOL    HW235159   7.559  10.929   8.689  0.0677 -0.1350  0.2682
 8731SOL     OW35160   8.662   8.895  10.836 -0.7279 -0.6879  0.0931
 8731SOL    HW135161   8.723   8.938  10.896  0.3240 -2.0949  0.0840
 8731SOL    HW235162   8.615   8.831  10.891 -2.3123  0.4402  0.1224
 8732SOL     OW35163   5.657   7.860   4.874 -0.7281 -0.3007 -0.4714
 8732SOL    HW135164   5.693   7.860   4.785 -1.4557  1.0043 -0.8023
 8732SOL    HW235165   5.732   7.883   4.930 -0.3375 -0.7981 -0.7842
 8733SOL     OW35166   7.001   8.423  11.431 -0.3826  0.8979  0.0848
 8733SOL    HW135167   7.007   8.462  11.518 -1.3611  1.7557 -0.2220
 8733SOL    HW235168   7.088   8.439  11.392 -0.1411  1.0483  0.6731
 8734SOL     OW35169   0.179   7.467   3.415 -0.2034 -1.2952  0.1043
 8734SOL    HW135170   0.239   7.463   3.341 -0.7055  2.4772 -0.7012
 8734SOL    HW235171   0.124   7.544   3.398 -1.6114 -1.3767  3.4821
 8735SOL     OW35172   2.523   3.876   6.154 -0.3871 -0.0326 -0.4545
 8735SOL    HW135173   2.575   3.813   6.205  2.0422  1.8664 -0.4062
 8735SOL    HW235174   2.513   3.951   6.212 -0.6535  0.7936 -1.5405
 8736SOL     OW35175  10.256   4.929   9.325 -0.1868  0.1779 -0.3115
 8736SOL    HW135176  10.199   4.898   9.256 -2.4359 -0.4788  1.7206
 8736SOL    HW235177  10.318   4.857   9.340 -1.3470 -0.7677  0.0778
 8737SOL     OW35178   8.678   9.738   2.647  0.8427 -0.3002  0.2476
 8737SOL    HW135179   8.621   9.710   2.719  0.5815  0.1166  0.2105
 8737SOL    HW235180   8.638   9.820   2.617 -0.6830 -1.8334 -2.2011
 8738SOL     OW35181   0.239   8.725  12.028 -0.2195  0.0429  0.2794
 8738SOL    HW135182   0.266   8.633  12.020  0.9517  0.2372  1.6408
 8738SOL    HW235183   0.147   8.721  12.050  0.2795 -0.9161  2.4442
 8739SOL     OW35184   1.973   0.333   7.844  0.4297 -0.7084  0.2514
 8739SOL    HW135185   2.034   0.399   7.811  0.4340 -1.2237 -0.8040
 8739SOL    HW235186   1.935   0.293   7.766 -1.8654  0.1167  0.8564
 8740SOL     OW35187   9.233  11.331  11.719 -0.4833  0.2379  0.2936
 8740SOL    HW135188   9.145  11.308  11.691 -0.9823  2.2127  0.1467
 8740SOL    HW235189   9.247  11.278  11.798 -0.8028 -1.9260 -1.0212
 8741SOL     OW35190  10.499   9.573   3.419  0.3577 -0.0367  0.3052
 8741SOL    HW135191  10.532   9.661   3.436  1.0400 -0.4745  1.3830
 8741SOL    HW235192  10.489   9.569   3.324  0.2255  1.2229  0.2504
 8742SOL     OW35193   7.820   1.442   6.780  0.5190 -0.6041  0.7284
 8742SOL    HW135194   7.799   1.446   6.873  0.7486 -2.2695  0.8916
 8742SOL    HW235195   7.800   1.351   6.755 -3.4260  0.6541 -1.7861
 8743SOL     OW35196   9.718   6.268   6.356 -0.2854  0.1243 -0.2715
 8743SOL    HW135197   9.776   6.227   6.293 -0.0055  1.3215 -0.8300
 8743SOL    HW235198   9.756   6.355   6.370 -2.1718  1.1110 -0.9956
 8744SOL     OW35199   6.329   1.535   5.255  0.3058  0.2298  0.2687
 8744SOL    HW135200   6.350   1.606   5.315 -0.8834  0.3357  0.5750
 8744SOL    HW235201   6.373   1.459   5.292  0.1997  0.4516  0.8651
 8745SOL     OW35202  11.935   7.277   0.509  0.4220 -0.1057  0.0272
 8745SOL    HW135203  11.942   7.300   0.602  0.8716 -2.0594  0.5200
 8745SOL    HW235204  11.947   7.182   0.507 -4.2622 -0.8953 -1.5209
 8746SOL     OW35205   2.594   1.120   1.769  0.2586 -0.1520  0.8722
 8746SOL    HW135206   2.529   1.188   1.751 -0.3247 -0.6536  1.0353
 8746SOL    HW235207   2.671   1.146   1.719  0.8404  1.8186  2.6766
 8747SOL     OW35208   7.930  10.005  10.132 -0.7302 -0.3288 -0.0136
 8747SOL    HW135209   7.972  10.072  10.186 -1.2252  0.5655 -0.7009
 8747SOL    HW235210   7.842   9.996  10.168 -0.7677 -0.3777 -0.1159
 8748SOL     OW35211   2.963   9.461   0.445  0.3627  0.3029 -0.1716
 8748SOL    HW135212   2.938   9.449   0.537  0.6429 -1.3273 -0.2895
 8748SOL    HW235213   3.053   9.492   0.448  0.6871 -0.6283  0.1061
 8749SOL     OW35214   2.802   0.739   3.717 -0.1989 -0.1949  0.2536
 8749SOL    HW135215   2.827   0.663   3.769  0.5107  0.1252  0.3867
 8749SOL    HW235216   2.769   0.803   3.780 -1.4639 -0.6350  0.0758
 8750SOL     OW35217  12.439  10.989  11.389  0.2571  0.0835  0.4303
 8750SOL    HW135218  12.502  11.053  11.356  0.2260 -0.1296 -0.0474
 8750SOL    HW235219  12.492  10.917  11.422  0.2771 -1.3400 -2.4222
 8751SOL     OW35220  12.463  11.239  10.448  0.0773 -0.4757 -0.5027
 8751SOL    HW135221  12.557  11.247  10.429  0.2547 -0.2260  0.4339
 8751SOL    HW235222  12.428  11.188  10.375  1.3543 -2.5466  0.2532
 8752SOL     OW35223  10.201   1.930  12.117  0.4320  0.1347 -0.2775
 8752SOL    HW135224  10.192   2.025  12.123  1.0118  0.0979  1.7640
 8752SOL    HW235225  10.277   1.916  12.061  0.3813  0.8751 -0.5272
 8753SOL     OW35226   7.502   6.473   1.816  0.3867  0.6023  0.2791
 8753SOL    HW135227   7.418   6.506   1.783 -0.4125 -0.1262  1.4869
 8753SOL    HW235228   7.524   6.402   1.756  0.6650  1.4487 -0.6392
 8754SOL     OW35229   4.300   8.842   9.455  0.0713 -0.7982 -0.1085
 8754SOL    HW135230   4.384   8.814   9.493  0.1790  0.3969  0.5873
 8754SOL    HW235231   4.247   8.868   9.531 -0.2962  0.1076 -0.6607
 8755SOL     OW35232   4.569   0.338   0.274  0.1006 -0.1967 -0.4082
 8755SOL    HW135233   4.617   0.418   0.294 -1.4997  0.6994  0.0686
 8755SOL    HW235234   4.548   0.345   0.181 -2.0958  1.1801  0.1218
 8756SOL     OW35235  10.777   1.884   5.880  0.3687  0.1405  0.4788
 8756SOL    HW135236  10.836   1.903   5.953 -0.3669  0.6516  0.9651
 8756SOL    HW235237  10.703   1.944   5.893 -1.5302 -2.2032  1.3817
 8757SOL     OW35238   3.199   8.156  10.558  0.0120 -0.1289 -0.4212
 8757SOL    HW135239   3.177   8.214  10.631  1.5514 -0.0003 -0.0201
 8757SOL    HW235240   3.164   8.071  10.583 -0.3407  0.1380  0.0041
 8758SOL     OW35241   5.331  11.141  12.322 -0.4732 -0.3332 -0.1746
 8758SOL    HW135242   5.262  11.117  12.261 -0.4816 -0.9648  0.0748
 8758SOL    HW235243   5.341  11.235  12.311 -2.2458 -0.0029  0.6827
 8759SOL     OW35244   4.917   6.996   0.886 -0.4034  0.5836  0.1910
 8759SOL    HW135245   4.917   7.016   0.792  0.6611 -2.7408 -0.6449
 8759SOL    HW235246   4.825   6.978   0.906 -0.7355  1.9177 -0.0035
 8760SOL     OW35247   3.054   9.759   6.341 -0.0950 -0.3646  0.1579
 8760SOL    HW135248   3.125   9.794   6.287  0.4812  1.3780  1.9279
 8760SOL    HW235249   3.095   9.740   6.425 -1.3606 -1.2184  0.6142
 8761SOL     OW35250  11.239  11.594   0.370 -0.3272  0.2473 -1.0005
 8761SOL    HW135251  11.264  11.502   0.376 -0.5155  0.2270 -0.4075
 8761SOL    HW235252  11.165  11.595   0.309 -2.4101 -0.4615  1.3411
 8762SOL     OW35253   2.079   1.291   8.021 -0.0632 -0.4014  0.1262
 8762SOL    HW135254   2.003   1.252   8.064  0.0505  0.5267  1.2028
 8762SOL    HW235255   2.125   1.338   8.090  0.8566  0.0310 -0.7498
 8763SOL     OW35256   5.214   0.538   2.039  0.4312  0.0938 -0.1563
 8763SOL    HW135257   5.166   0.515   1.959 -0.3825 -0.5539  0.5002
 8763SOL    HW235258   5.173   0.619   2.069  0.2166 -0.0760  0.0152
 8764SOL     OW35259   6.793   6.024   7.438 -0.1254 -0.0899 -0.3917
 8764SOL    HW135260   6.850   6.022   7.516  0.6077 -0.5570 -0.9282
 8764SOL    HW235261   6.705   6.010   7.473 -0.0130  1.2275  0.5262
 8765SOL     OW35262   3.042  11.101   7.568  0.3018  0.1017 -0.2378
 8765SOL    HW135263   2.950  11.080   7.584  0.1933  0.6079 -0.1912
 8765SOL    HW235264   3.089  11.055   7.638  0.2255 -1.3209 -1.0782
 8766SOL     OW35265   8.875   7.731   2.357  0.7952  0.2010 -0.2020
 8766SOL    HW135266   8.883   7.811   2.408 -0.1657  0.2124 -0.0622
 8766SOL    HW235267   8.836   7.758   2.275 -1.1274 -0.3425  0.4818
 8767SOL     OW35268   9.104   4.930   9.443  0.5546  0.0043  0.5700
 8767SOL    HW135269   9.137   4.995   9.382 -1.3585  0.0148 -0.5334
 8767SOL    HW235270   9.182   4.885   9.476  1.6939  0.7675 -1.0000
 8768SOL     OW35271   5.424   8.791   7.729  0.3911  0.1392 -0.3935
 8768SOL    HW135272   5.330   8.780   7.740  0.7102 -1.4018  1.3267
 8768SOL    HW235273   5.444   8.745   7.648 -0.1447 -0.9427  0.0623
 8769SOL     OW35274  12.453   8.222   7.590 -0.6031  0.2016 -0.0684
 8769SOL    HW135275  12.411   8.150   7.637  1.4746 -0.4617  0.9086
 8769SOL    HW235276  12.440   8.201   7.498 -1.6717 -0.3986  0.2049
 8770SOL     OW35277  10.243   4.888   7.397  0.2320  0.5635 -0.0765
 8770SOL    HW135278  10.230   4.946   7.471  0.8516  0.1224  0.3837
 8770SOL    HW235279  10.155   4.857   7.375  0.0089  0.9593  0.2557
 8771SOL     OW35280   3.674   7.413   8.290 -0.5707 -0.4482 -0.2605
 8771SOL    HW135281   3.752   7.468   8.293 -0.0808 -1.1071 -0.4200
 8771SOL    HW235282   3.680   7.367   8.206 -0.4348 -1.4766  0.2914
 8772SOL     OW35283  10.973   8.480  10.521  0.1453 -0.4113 -0.7708
 8772SOL    HW135284  10.991   8.397  10.476 -0.9446 -1.3631  0.4751
 8772SOL    HW235285  11.043   8.489  10.584 -1.3110 -1.9999  1.2039
 8773SOL     OW35286  11.556   9.870   5.062  0.5064  0.3584  0.4419
 8773SOL    HW135287  11.542   9.861   4.967 -1.5022 -0.0870  0.7456
 8773SOL    HW235288  11.581   9.962   5.073  0.6869  0.4402 -0.4953
 8774SOL     OW35289   5.780   7.557   2.156 -0.0865 -0.2787 -0.4277
 8774SOL    HW135290   5.761   7.529   2.245  0.1746  0.0057 -0.2787
 8774SOL    HW235291   5.761   7.651   2.156  0.0105 -0.2582 -0.6424
 8775SOL     OW35292  11.712   7.696  12.271  0.3785  0.1472  0.8104
 8775SOL    HW135293  11.806   7.683  12.286  0.1359 -0.9795  1.4518
 8775SOL    HW235294  11.672   7.614  12.299 -0.5705 -0.4179 -1.9531
 8776SOL     OW35295   2.890  11.205   9.816  0.4261  0.0321  0.0071
 8776SOL    HW135296   2.860  11.115   9.829  2.1610 -0.4397  0.9815
 8776SOL    HW235297   2.811  11.257   9.824 -0.3796 -1.2739  1.0466
 8777SOL     OW35298   4.043   2.254  11.502  0.4878 -0.1329  0.3162
 8777SOL    HW135299   4.128   2.281  11.467  0.7048  0.0103  0.9437
 8777SOL    HW235300   4.001   2.208  11.429  0.0539  1.9534 -0.8470
 8778SOL     OW35301   5.588  11.669   5.450 -0.2557 -0.3308 -0.2995
 8778SOL    HW135302   5.496  11.669   5.423 -0.6005 -1.1762  0.7802
 8778SOL    HW235303   5.628  11.739   5.399 -1.5989  0.3654 -0.4491
 8779SOL     OW35304   3.249   5.368  10.108 -0.0968  0.9239  0.1155
 8779SOL    HW135305   3.180   5.308  10.135 -1.3481  1.3247 -1.9902
 8779SOL    HW235306   3.205   5.453  10.101  0.5012  1.1230 -1.6069
 8780SOL     OW35307   8.808   2.996  11.251 -0.0370 -0.1925 -0.2421
 8780SOL    HW135308   8.718   2.974  11.224  0.2887 -0.3845 -1.2246
 8780SOL    HW235309   8.839   3.056  11.183  0.1299  0.9567  0.8222
 8781SOL     OW35310   8.403   2.149   3.955  0.2091 -0.3970 -0.1013
 8781SOL    HW135311   8.384   2.241   3.973 -1.4946 -0.4086 -1.5560
 8781SOL    HW235312   8.477   2.150   3.894  1.2469 -0.0926  1.1232
 8782SOL     OW35313   7.935  12.472   4.625  0.0576  0.3684 -0.3255
 8782SOL    HW135314   7.896  12.403   4.571 -0.8107  1.0209 -0.5518
 8782SOL    HW235315   7.869  12.541   4.628  0.8298  1.1158  0.0607
 8783SOL     OW35316   5.038  10.130   1.665 -0.6591 -0.6810 -0.6021
 8783SOL    HW135317   4.987  10.198   1.621 -0.1743 -0.2554 -0.5250
 8783SOL    HW235318   5.124  10.170   1.678 -0.8970 -0.6305  1.0932
 8784SOL     OW35319   8.732   0.395   0.278  0.2879  0.0473 -0.3085
 8784SOL    HW135320   8.704   0.308   0.251 -0.1108 -0.2143  0.8956
 8784SOL    HW235321   8.678   0.455   0.226 -1.0801 -0.4427  0.4818
 8785SOL     OW35322   8.421   2.492   3.048 -0.0053 -0.7384 -0.5061
 8785SOL    HW135323   8.473   2.446   3.114 -1.5806 -2.2464 -0.2211
 8785SOL    HW235324   8.336   2.504   3.090 -0.4917 -0.1127 -1.6387
 8786SOL     OW35325   2.392   1.312  10.735 -0.3975 -0.2783 -0.6695
 8786SOL    HW135326   2.432   1.344  10.816 -0.5915  0.0983 -0.7193
 8786SOL    HW235327   2.368   1.221  10.754 -1.9837  0.3094  0.2691
 8787SOL     OW35328   4.094   9.060   9.583  0.1838 -0.1423  0.0652
 8787SOL    HW135329   4.059   9.066   9.494  2.5134  0.6546 -0.8705
 8787SOL    HW235330   4.050   9.130   9.631 -0.9371 -0.4403 -0.4765
 8788SOL     OW35331   7.339   0.312   4.930 -0.1516  0.2703 -0.1098
 8788SOL    HW135332   7.298   0.238   4.976  0.2701 -1.3308 -2.1116
 8788SOL    HW235333   7.405   0.345   4.991 -0.6250 -0.7713  1.0141
 8789SOL     OW35334   3.310   9.701   0.179 -0.4373  0.7603  0.2647
 8789SOL    HW135335   3.291   9.772   0.242 -0.1961  2.4793 -1.4969
 8789SOL    HW235336   3.230   9.695   0.127 -0.3503 -0.1095  0.2284
 8790SOL     OW35337   8.822   3.067   1.096  0.2494  0.0651 -0.2793
 8790SOL    HW135338   8.754   3.013   1.056 -0.3886  0.3795  0.3460
 8790SOL    HW235339   8.775   3.122   1.159  0.8599  1.3823 -0.9335
 8791SOL     OW35340   7.775   8.468  12.396 -0.7181  0.5838  0.0584
 8791SOL    HW135341   7.765   8.445  12.303 -1.2143  0.9836  0.0098
 8791SOL    HW235342   7.700   8.523  12.415 -0.7553  0.2884  0.7746
 8792SOL     OW35343   9.580   3.502  12.229 -0.1446 -0.0992 -0.4216
 8792SOL    HW135344   9.508   3.564  12.222  0.2442  0.4641  0.3464
 8792SOL    HW235345   9.554   3.443  12.300  0.6599  0.8610  0.7229
 8793SOL     OW35346  11.510   6.380   0.808  0.2332  0.5051 -0.1823
 8793SOL    HW135347  11.559   6.323   0.867  0.5347 -0.0720 -0.9844
 8793SOL    HW235348  11.444   6.323   0.768 -0.7527  1.1526  0.4695
 8794SOL     OW35349   6.769   2.909   6.793 -0.2100 -0.3290  0.1404
 8794SOL    HW135350   6.710   2.841   6.824  1.2534 -1.3698  0.7448
 8794SOL    HW235351   6.713   2.986   6.783 -1.5581 -1.1250  1.1707
 8795SOL     OW35352   0.796   0.725   4.710 -0.7800  0.0480  0.2185
 8795SOL    HW135353   0.788   0.770   4.626 -0.2113  0.6948  0.4969
 8795SOL    HW235354   0.729   0.765   4.766 -3.9629 -3.0510 -0.9768
 8796SOL     OW35355   3.517   4.844   8.600 -0.3025  0.1764 -0.4180
 8796SOL    HW135356   3.577   4.849   8.525  1.0728  1.9371  0.6892
 8796SOL    HW235357   3.557   4.779   8.657 -0.1679  0.3708 -0.2873
 8797SOL     OW35358  10.859   9.873  10.270  0.0690  0.2376  0.0797
 8797SOL    HW135359  10.802   9.941  10.235  0.1227 -0.2371 -0.9513
 8797SOL    HW235360  10.946   9.912  10.269 -0.1745  0.8963  1.4809
 8798SOL     OW35361   1.784   3.285   7.227  0.1770  0.2736  0.7126
 8798SOL    HW135362   1.791   3.197   7.192  0.8656 -0.1726  1.8957
 8798SOL    HW235363   1.827   3.341   7.163  1.2878 -0.4967  0.7640
 8799SOL     OW35364   0.054  11.018   3.322 -0.0872 -0.1898 -0.6888
 8799SOL    HW135365  -0.008  10.947   3.303 -0.8421  0.9344 -2.7411
 8799SOL    HW235366  -0.000  11.090   3.354  0.2371  0.5450 -1.7559
 8800SOL     OW35367   6.759   8.586   6.511 -0.3040  0.2725  0.0683
 8800SOL    HW135368   6.720   8.560   6.428  0.0362  0.4159 -0.1422
 8800SOL    HW235369   6.804   8.669   6.491  0.7723 -0.2835  0.1040
 8801SOL     OW35370  10.734   5.205   0.530  0.3513 -0.0377  0.1585
 8801SOL    HW135371  10.694   5.120   0.513 -1.2923  0.5598  0.9138
 8801SOL    HW235372  10.661   5.263   0.548  1.2403  2.1021 -2.5228
 8802SOL     OW35373   6.309  11.506   1.069  0.3201 -0.0976 -0.7191
 8802SOL    HW135374   6.356  11.586   1.090 -1.6434  0.8986  0.1267
 8802SOL    HW235375   6.327  11.491   0.976  1.1350  1.0302 -0.7590
 8803SOL     OW35376  11.236  11.114   4.292 -0.0160 -0.0402  0.2166
 8803SOL    HW135377  11.295  11.054   4.247  1.1568  1.2023  0.0515
 8803SOL    HW235378  11.274  11.124   4.380 -1.0785 -0.7369  0.7802
 8804SOL     OW35379   9.984   0.193  11.138  0.3546 -0.2462  0.3760
 8804SOL    HW135380   9.959   0.283  11.161  2.3229  0.5592 -0.4626
 8804SOL    HW235381  10.061   0.175  11.191 -1.2468 -2.3161  2.1803
 8805SOL     OW35382   1.580   1.949   5.225 -0.2257  0.0166 -0.4608
 8805SOL    HW135383   1.505   2.003   5.248 -0.7909  0.1388 -2.3935
 8805SOL    HW235384   1.608   1.909   5.307 -1.1095  1.5896  0.6397
 8806SOL     OW35385   0.626   1.769   5.949 -0.0629 -0.2238 -0.3914
 8806SOL    HW135386   0.587   1.853   5.972  0.2814 -0.3384  0.7012
 8806SOL    HW235387   0.721   1.785   5.954  0.0133 -0.4126 -1.1970
 8807SOL     OW35388   0.078   4.102  12.057  0.3359  0.2873 -0.5508
 8807SOL    HW135389   0.147   4.109  11.991 -1.0077  0.8936 -1.9695
 8807SOL    HW235390   0.006   4.155  12.022 -0.6591  0.1178  1.1276
 8808SOL     OW35391   1.397  11.577   0.070 -0.1331  0.2454  0.1764
 8808SOL    HW135392   1.370  11.499   0.120  0.6381 -0.0401  0.1603
 8808SOL    HW235393   1.446  11.630   0.132  0.4182  0.1193 -0.1423
 8809SOL     OW35394   2.524  10.550   2.557 -0.6413  0.0616 -0.0981
 8809SOL    HW135395   2.559  10.478   2.505  1.0474  1.4007 -0.9375
 8809SOL    HW235396   2.584  10.559   2.630 -1.0064  0.4195  0.1641
 8810SOL     OW35397   3.896   9.742   2.307 -0.5266  0.2547  0.5604
 8810SOL    HW135398   3.812   9.768   2.269 -0.2080  1.0668  0.3916
 8810SOL    HW235399   3.906   9.799   2.384  1.5376  2.8563 -1.4319
 8811SOL     OW35400   8.174   7.059   6.803 -0.0424 -0.6441  0.5123
 8811SOL    HW135401   8.246   7.057   6.866 -0.9240  0.2059  1.6011
 8811SOL    HW235402   8.095   7.058   6.857 -0.8386 -0.5043 -0.6128
 8812SOL     OW35403  10.115   4.724   7.042 -0.2884 -0.2207  0.0720
 8812SOL    HW135404  10.103   4.817   7.061  1.9876 -0.1283  1.4072
 8812SOL    HW235405  10.210   4.712   7.041 -0.5248 -2.6534  0.6382
 8813SOL     OW35406   1.078   1.395   6.222 -0.0689  0.2123 -0.3144
 8813SOL    HW135407   0.991   1.431   6.239  0.5514  2.5222 -1.6132
 8813SOL    HW235408   1.069   1.302   6.240 -2.7462  0.4132 -0.1814
 8814SOL     OW35409   3.926   4.340   0.275  0.2922 -0.0221  0.4197
 8814SOL    HW135410   3.883   4.396   0.211 -0.8079 -0.6659  0.5759
 8814SOL    HW235411   3.888   4.253   0.261  1.2289 -0.5217  0.8589
 8815SOL     OW35412  10.374   0.552   0.506 -0.1241 -0.1481 -0.5557
 8815SOL    HW135413  10.436   0.558   0.434 -0.1292 -2.4954 -0.8081
 8815SOL    HW235414  10.429   0.540   0.584 -0.1691  1.2248 -0.2855
 8816SOL     OW35415   1.969   0.980   2.176 -0.1942  0.6794  0.2737
 8816SOL    HW135416   2.049   1.015   2.135 -0.1428  0.5658  0.2743
 8816SOL    HW235417   1.903   0.986   2.107  0.0748 -0.2033 -0.0880
 8817SOL     OW35418   8.895  12.317   6.560 -0.3774 -0.2043 -0.0815
 8817SOL    HW135419   8.869  12.243   6.614 -1.3886  1.0638  1.2562
 8817SOL    HW235420   8.816  12.341   6.511 -1.0427  1.8345  1.8013
 8818SOL     OW35421   8.641   5.385   2.750 -0.2612 -0.8782 -0.5245
 8818SOL    HW135422   8.634   5.337   2.833 -1.3958  0.1738  0.0153
 8818SOL    HW235423   8.722   5.435   2.759 -0.6678 -0.3360  0.1910
 8819SOL     OW35424   3.914   2.358   7.998  0.1771 -0.2622 -0.2105
 8819SOL    HW135425   4.001   2.388   7.974  0.0184 -0.8022 -1.5119
 8819SOL    HW235426   3.925   2.265   8.017 -0.0560 -0.2526 -0.0157
 8820SOL     OW35427   8.737   7.404   3.949 -1.0905 -0.5614 -0.0019
 8820SOL    HW135428   8.781   7.414   3.865  0.5802  0.1512  0.8915
 8820SOL    HW235429   8.649   7.374   3.928 -0.1224 -2.2592 -1.8848
 8821SOL     OW35430  12.150  11.564   9.181 -0.4396  0.0990  0.1189
 8821SOL    HW135431  12.167  11.580   9.273  0.8746 -0.3235 -0.0298
 8821SOL    HW235432  12.095  11.637   9.153 -1.8981 -0.4099  1.5069
 8822SOL     OW35433   2.013   7.427  12.237 -0.1637 -0.0408  0.1111
 8822SOL    HW135434   2.068   7.382  12.301  0.1055  1.1805  0.7795
 8822SOL    HW235435   2.074   7.453  12.167 -0.0493  0.4994  0.4044
 8823SOL     OW35436  10.348   6.969  12.471  0.5968  0.2730 -0.0445
 8823SOL    HW135437  10.314   6.978  12.560  1.1287  0.7563  0.1137
 8823SOL    HW235438  10.438   6.999  12.477  0.6109  0.3759 -0.7656
 8824SOL     OW35439  10.695  12.535  10.474  0.2947 -0.8288 -0.2456
 8824SOL    HW135440  10.600  12.549  10.484  0.6346  0.7042  1.2811
 8824SOL    HW235441  10.710  12.540  10.380 -0.8221  1.3214 -0.3617
 8825SOL     OW35442   8.766  11.319   8.747  0.4415  0.2164  0.0853
 8825SOL    HW135443   8.733  11.370   8.673  2.9134  3.6922  1.1232
 8825SOL    HW235444   8.856  11.296   8.722  0.0538 -2.0678  0.5191
 8826SOL     OW35445   6.547   4.797   5.326 -0.1740  0.3147  0.4635
 8826SOL    HW135446   6.546   4.866   5.392 -0.4632  0.6583  0.1018
 8826SOL    HW235447   6.640   4.780   5.311 -0.1057  0.0502  1.1461
 8827SOL     OW35448   4.217  10.644   4.632 -0.4502 -0.4412  0.3820
 8827SOL    HW135449   4.255  10.607   4.552  0.1163 -0.5164  0.6810
 8827SOL    HW235450   4.196  10.734   4.609  0.7943 -0.1067  0.4849
 8828SOL     OW35451  11.150   9.406   5.833  0.1215 -0.7522  0.5008
 8828SOL    HW135452  11.068   9.453   5.849  0.0872 -0.7248  0.2356
 8828SOL    HW235453  11.148   9.384   5.740 -0.6746 -2.8021  0.9542
 8829SOL     OW35454   9.567   4.292  11.021 -0.4839  0.4951 -0.6988
 8829SOL    HW135455   9.501   4.256  10.961  0.4640  0.0550 -1.5162
 8829SOL    HW235456   9.517   4.330  11.093 -1.6501  0.6864 -1.5817
 8830SOL     OW35457   5.733  12.348  11.200  0.3442  0.6574  0.3295
 8830SOL    HW135458   5.798  12.326  11.133  1.0927 -2.2528  1.8494
 8830SOL    HW235459   5.767  12.426  11.243  2.0100  0.1354  0.0038
 8831SOL     OW35460   3.440   5.952   1.630 -0.1528  0.1646  0.4809
 8831SOL    HW135461   3.517   6.000   1.659 -0.0143 -0.0140  0.4121
 8831SOL    HW235462   3.372   5.974   1.694  0.5300 -1.3318  1.7988
 8832SOL     OW35463   5.129   1.436   8.459  0.0429 -0.4404  0.3822
 8832SOL    HW135464   5.071   1.406   8.529 -0.2609  1.5973  1.0802
 8832SOL    HW235465   5.183   1.360   8.438  0.5628 -1.0073  3.2655
 8833SOL     OW35466   0.982   9.447   5.073 -0.7131 -0.4957 -0.4154
 8833SOL    HW135467   0.992   9.352   5.086  1.6291 -0.3708 -0.7188
 8833SOL    HW235468   0.972   9.483   5.161  1.7711 -0.7980  0.0789
 8834SOL     OW35469   4.911   9.689   3.887  0.2331 -1.0801  0.5403
 8834SOL    HW135470   4.866   9.768   3.856 -1.0221 -2.1548 -0.5407
 8834SOL    HW235471   4.871   9.618   3.837  2.2462 -2.2792  0.5174
 8835SOL     OW35472   9.750   0.309   9.974 -0.1456  0.4971  0.7134
 8835SOL    HW135473   9.709   0.258   9.904  1.6634 -0.4511  0.2807
 8835SOL    HW235474   9.818   0.360   9.929  1.1071 -0.1838  1.7531
 8836SOL     OW35475   0.277   0.171   3.636 -0.1346  0.2046  1.0229
 8836SOL    HW135476   0.323   0.169   3.552  2.1089 -0.0485  2.1952
 8836SOL    HW235477   0.258   0.263   3.651 -2.6584  0.0970 -0.7527
 8837SOL     OW35478   4.793   0.705   4.601  0.2469 -0.2990 -0.1557
 8837SOL    HW135479   4.785   0.711   4.696  0.2954  3.0393 -0.2541
 8837SOL    HW235480   4.703   0.710   4.569  0.3713  3.0422 -0.3036
 8838SOL     OW35481   7.142   3.301   6.367  0.0859  0.4357 -0.4853
 8838SOL    HW135482   7.158   3.260   6.282  1.1359  0.5529 -0.3583
 8838SOL    HW235483   7.215   3.361   6.378 -0.5061  1.0583  0.1211
 8839SOL     OW35484   7.688  12.049   1.203  0.2427 -0.2552 -0.7048
 8839SOL    HW135485   7.723  12.016   1.286 -1.2316 -1.0670 -0.3767
 8839SOL    HW235486   7.758  12.106   1.169  0.0460  1.9777  2.1809
 8840SOL     OW35487   7.372   3.626   8.422 -0.0083  0.2836  0.1224
 8840SOL    HW135488   7.346   3.707   8.467  0.0380  0.6531 -0.5012
 8840SOL    HW235489   7.354   3.643   8.330  0.7282 -0.1332 -0.1106
 8841SOL     OW35490   6.689  11.599   1.441  0.5934  0.2725  0.1668
 8841SOL    HW135491   6.601  11.566   1.424  1.0323 -1.6510  1.4067
 8841SOL    HW235492   6.743  11.561   1.371  0.6716  0.3434  0.1887
 8842SOL     OW35493   6.511  10.191   4.088 -0.1622 -0.3405 -0.2793
 8842SOL    HW135494   6.522  10.260   4.023 -3.3920 -0.3559 -1.0062
 8842SOL    HW235495   6.449  10.228   4.151  2.3391 -0.5818  2.5548
 8843SOL     OW35496   7.441   8.628   5.650 -0.7428  0.0801 -0.6095
 8843SOL    HW135497   7.498   8.556   5.625 -0.3577 -0.3620  1.4414
 8843SOL    HW235498   7.473   8.657   5.735 -2.0684  1.4349 -0.5191
 8844SOL     OW35499   4.901   6.894   0.302  0.4221  0.6029  0.4690
 8844SOL    HW135500   4.906   6.981   0.340  1.7942  1.1558 -0.8860
 8844SOL    HW235501   4.980   6.850   0.332 -0.3721 -0.2710  1.3269
 8845SOL     OW35502   1.986   0.775   7.308  0.4206  0.6961 -0.0828
 8845SOL    HW135503   2.076   0.744   7.304  0.0115 -0.6648  0.7302
 8845SOL    HW235504   1.979   0.816   7.395  0.3337  1.0816 -0.2681
 8846SOL     OW35505   5.222  10.663   4.778  0.2360 -0.1668  0.7129
 8846SOL    HW135506   5.199  10.597   4.845 -0.4244  1.7464  2.5035
 8846SOL    HW235507   5.222  10.746   4.826 -0.2699  1.3251 -1.7081
 8847SOL     OW35508   1.480   9.586   3.779 -0.5146 -0.8768 -0.7626
 8847SOL    HW135509   1.567   9.548   3.783 -1.4470 -3.1677 -0.7918
 8847SOL    HW235510   1.493   9.678   3.801  1.6896 -1.5077  0.9062
 8848SOL     OW35511   7.413   8.161   0.000 -0.4607  0.5591 -0.3767
 8848SOL    HW135512   7.463   8.222   0.055  0.9775  0.7010 -1.7730
 8848SOL    HW235513   7.327   8.202  -0.008 -0.6299  0.6737  1.4972
 8849SOL     OW35514   8.210   4.419  11.846 -0.3985  0.3876 -0.1629
 8849SOL    HW135515   8.210   4.486  11.914  0.3030 -1.0420  1.3076
 8849SOL    HW235516   8.287   4.365  11.865 -0.7649 -0.6534 -1.4785
 8850SOL     OW35517   5.915   5.399   1.894 -0.5004 -0.1846 -0.5376
 8850SOL    HW135518   5.819   5.400   1.897 -0.5036 -1.3448  1.2763
 8850SOL    HW235519   5.937   5.330   1.831 -0.7847  1.2438 -2.3078
 8851SOL     OW35520   0.769   3.680   6.275 -0.3118 -0.4043  0.3030
 8851SOL    HW135521   0.864   3.670   6.264 -0.3097  0.8881 -1.2472
 8851SOL    HW235522   0.760   3.748   6.342 -0.0751  0.9324 -0.9786
 8852SOL     OW35523   6.047   5.478   5.531  0.0742 -0.0819  0.1102
 8852SOL    HW135524   5.956   5.504   5.546 -0.1023  0.2205 -1.3502
 8852SOL    HW235525   6.045   5.434   5.446  1.4034  0.5960 -0.2975
 8853SOL     OW35526   9.147   6.860   2.644 -0.5255 -0.3008  0.3111
 8853SOL    HW135527   9.115   6.817   2.724 -1.7961 -2.7955 -1.4274
 8853SOL    HW235528   9.102   6.816   2.573 -0.5352  2.8034 -1.8139
 8854SOL     OW35529   9.614   2.587  10.235 -0.6006 -0.2965 -0.9984
 8854SOL    HW135530   9.528   2.589  10.277  0.0104  2.2032  0.3494
 8854SOL    HW235531   9.648   2.499  10.252 -1.9143 -0.5363  0.5736
 8855SOL     OW35532  12.182   3.614   7.309 -0.2055  0.2558  0.4914
 8855SOL    HW135533  12.184   3.641   7.401 -0.1174  1.1000  0.2513
 8855SOL    HW235534  12.100   3.564   7.301 -0.8468  1.2301  0.7545
 8856SOL     OW35535   9.831   7.115   5.002  0.5029 -0.0133  0.3541
 8856SOL    HW135536   9.771   7.124   5.077  1.7205  0.2936  1.3243
 8856SOL    HW235537   9.858   7.205   4.983  1.0922 -0.1964  0.3045
 8857SOL     OW35538   4.186   0.294  12.411  0.2003  0.0149 -0.1100
 8857SOL    HW135539   4.129   0.364  12.380  0.5264  0.7083  0.8005
 8857SOL    HW235540   4.274   0.331  12.407  0.3026 -0.0740  1.0410
 8858SOL     OW35541   9.671   5.771  11.836  0.1512  0.6507  0.3142
 8858SOL    HW135542   9.651   5.851  11.884  2.4743  0.7046  1.3526
 8858SOL    HW235543   9.698   5.709  11.903  0.8532 -0.1662 -0.6827
 8859SOL     OW35544   2.792   9.370   5.675 -0.0802 -0.4378  0.0218
 8859SOL    HW135545   2.823   9.319   5.600 -0.5549  1.4268 -1.4903
 8859SOL    HW235546   2.872   9.396   5.721  0.3709  0.4457 -1.2311
 8860SOL     OW35547  11.275   4.918  11.686  0.3924 -0.0943 -0.0732
 8860SOL    HW135548  11.337   4.855  11.648  2.0158 -0.7870  3.3322
 8860SOL    HW235549  11.189   4.878  11.673  0.8324 -0.4108 -2.5583
 8861SOL     OW35550   7.762   7.967  10.966  0.1555 -0.1877 -0.2891
 8861SOL    HW135551   7.667   7.953  10.967  0.1339 -0.1454 -0.9361
 8861SOL    HW235552   7.794   7.926  11.046 -0.2340 -1.4813 -0.7683
 8862SOL     OW35553   5.684   5.438   6.754 -0.1752 -0.0111  0.4544
 8862SOL    HW135554   5.631   5.380   6.700 -1.2904  1.2262  0.1780
 8862SOL    HW235555   5.729   5.495   6.691 -0.4600  0.5725  0.7660
 8863SOL     OW35556   6.682  12.032   9.530  0.3132  0.3257  0.1395
 8863SOL    HW135557   6.599  12.073   9.506 -0.6704 -1.7898 -0.3623
 8863SOL    HW235558   6.692  11.960   9.468  2.9803  1.0015 -0.3354
 8864SOL     OW35559   1.216  11.579   4.034 -0.1290  0.2711 -0.5018
 8864SOL    HW135560   1.135  11.552   4.077  1.9664 -2.5514  2.1165
 8864SOL    HW235561   1.248  11.499   3.993  2.1824  0.8254  0.0928
 8865SOL     OW35562   1.299  11.208   9.731  0.2736  0.8033  0.1939
 8865SOL    HW135563   1.232  11.159   9.778  1.3051 -0.5318  0.3575
 8865SOL    HW235564   1.294  11.176   9.641  0.7559  0.6038  0.2330
 8866SOL     OW35565  12.014   3.232   2.118 -0.4077 -0.0012 -0.4604
 8866SOL    HW135566  11.955   3.280   2.060 -1.6701  0.6117  1.2420
 8866SOL    HW235567  12.096   3.280   2.115 -0.5264  0.1685 -1.4947
 8867SOL     OW35568   5.335   0.644   0.620  0.0708  0.2731 -0.8103
 8867SOL    HW135569   5.332   0.726   0.669 -0.7444 -0.3050  0.1357
 8867SOL    HW235570   5.355   0.671   0.530  1.9822  1.3270 -0.1389
 8868SOL     OW35571   5.292   0.625   5.187 -0.3349 -0.1483  0.0130
 8868SOL    HW135572   5.205   0.618   5.226 -0.6511 -1.1050 -0.8298
 8868SOL    HW235573   5.276   0.633   5.093  0.4955 -0.9760 -0.2157
 8869SOL     OW35574   7.116   8.859   6.297 -0.2180  0.2053  0.0436
 8869SOL    HW135575   7.085   8.946   6.272  1.0013  0.2374 -1.4642
 8869SOL    HW235576   7.138   8.868   6.390 -2.2235  0.8597  0.5098
 8870SOL     OW35577  12.568   8.770  12.088  0.4947  0.3531 -0.7724
 8870SOL    HW135578  12.610   8.808  12.165  2.2202  0.4091 -1.6829
 8870SOL    HW235579  12.531   8.846  12.041  0.7366  0.4929 -0.7395
 8871SOL     OW35580   8.380   2.460   8.948 -0.1089 -0.0244 -0.5647
 8871SOL    HW135581   8.310   2.508   8.903  0.4147  0.8172 -0.5041
 8871SOL    HW235582   8.460   2.507   8.923  0.3628 -0.5857 -0.1169
 8872SOL     OW35583  10.585   2.937   4.401  0.6098 -0.2821  0.0640
 8872SOL    HW135584  10.647   3.010   4.404  0.3729 -0.1006  1.1525
 8872SOL    HW235585  10.640   2.859   4.396  0.9072 -0.0928  0.3324
 8873SOL     OW35586  10.969   5.470   8.301  0.2209 -0.4950 -0.3809
 8873SOL    HW135587  11.055   5.501   8.328  0.7488 -1.2895 -1.0729
 8873SOL    HW235588  10.936   5.422   8.377  0.9799 -1.3266 -0.5576
 8874SOL     OW35589  11.144   1.491   3.696 -0.0783 -0.1764  0.5376
 8874SOL    HW135590  11.189   1.561   3.744 -1.4921 -0.0838  1.8060
 8874SOL    HW235591  11.215   1.443   3.653  1.0707  1.0264  0.9849
 8875SOL     OW35592   1.635   8.909  10.537 -0.4927  0.1169  0.2022
 8875SOL    HW135593   1.667   8.958  10.461 -2.0693 -0.2937 -0.7616
 8875SOL    HW235594   1.663   8.961  10.612  2.6555 -0.3526 -0.5055
 8876SOL     OW35595  11.503   1.374   0.170  0.3637 -0.2535  0.6596
 8876SOL    HW135596  11.443   1.411   0.105 -1.8856 -5.1658 -0.5821
 8876SOL    HW235597  11.590   1.384   0.131 -0.4144  1.0267 -0.8754
 8877SOL     OW35598   2.869  11.856   8.728  0.0558  0.5016 -0.6496
 8877SOL    HW135599   2.929  11.902   8.669 -0.1727 -0.0937 -1.3519
 8877SOL    HW235600   2.802  11.921   8.749 -0.0150  0.6347 -1.2724
 8878SOL     OW35601   6.351  11.755  11.548 -0.2548 -0.4903 -0.5330
 8878SOL    HW135602   6.338  11.850  11.549 -0.8038 -0.5286  2.0318
 8878SOL    HW235603   6.286  11.722  11.485  0.0332  0.8071 -1.5488
 8879SOL     OW35604   4.574  10.140   4.776 -0.2251  0.0282  0.1331
 8879SOL    HW135605   4.640  10.094   4.725 -1.4945 -1.2035 -0.4711
 8879SOL    HW235606   4.601  10.231   4.774  1.4272 -0.4425 -0.1187
 8880SOL     OW35607   1.016  11.937   3.163  0.2408  0.1551  0.3392
 8880SOL    HW135608   1.099  11.982   3.174 -0.5287  1.1132  2.9264
 8880SOL    HW235609   1.023  11.859   3.217  0.5915 -1.5650 -2.0434
 8881SOL     OW35610  11.705  12.447  11.252 -1.1948 -0.4829 -0.5122
 8881SOL    HW135611  11.716  12.435  11.347 -1.7414 -0.7474 -0.4783
 8881SOL    HW235612  11.740  12.366  11.214  1.1925  0.5448 -0.7050
 8882SOL     OW35613   0.061   0.584   7.987 -0.3052  0.5184  0.2899
 8882SOL    HW135614  -0.015   0.542   7.947  0.1030 -1.0481  1.0654
 8882SOL    HW235615   0.084   0.655   7.927 -0.3340 -1.0785 -1.7127
 8883SOL     OW35616   8.315  11.869   2.386  0.0902  0.4261 -0.7888
 8883SOL    HW135617   8.406  11.888   2.366 -0.3679  2.4279 -1.1964
 8883SOL    HW235618   8.269  11.881   2.303 -0.9088  2.3033 -0.0330
 8884SOL     OW35619   7.630   1.260   4.047  0.6529 -0.1573 -0.2099
 8884SOL    HW135620   7.612   1.245   4.140  2.0106 -0.9040 -0.0331
 8884SOL    HW235621   7.662   1.350   4.043 -0.8098  0.3889 -0.1988
 8885SOL     OW35622   1.788   8.464   4.952 -0.3572 -0.1650  0.5212
 8885SOL    HW135623   1.712   8.521   4.946 -0.6476 -0.5693  0.3470
 8885SOL    HW235624   1.766   8.388   4.899  0.5521  0.1379 -0.3202
 8886SOL     OW35625  11.824   9.659   1.789  0.5538  0.1035 -0.2807
 8886SOL    HW135626  11.803   9.752   1.798 -1.3867 -0.3976  0.9912
 8886SOL    HW235627  11.741   9.618   1.766  1.7136 -1.1657 -2.4838
 8887SOL     OW35628  11.041   6.264  11.384 -0.2236  0.2120 -0.2686
 8887SOL    HW135629  11.072   6.279  11.474  1.5596 -1.2740 -0.5968
 8887SOL    HW235630  10.966   6.323  11.375 -0.8095 -0.0062  2.3806
 8888SOL     OW35631   5.880   3.434   5.199  0.3351  0.3913  0.0703
 8888SOL    HW135632   5.829   3.357   5.223 -0.7256  1.0922  0.1409
 8888SOL    HW235633   5.875   3.437   5.103  1.8827 -0.6068 -0.0782
 8889SOL     OW35634   5.680   1.086   9.288 -0.1796  0.4943  0.0960
 8889SOL    HW135635   5.642   1.045   9.210 -0.5684 -0.5724  0.8240
 8889SOL    HW235636   5.605   1.127   9.332 -0.1454  0.1883  0.4455
 8890SOL     OW35637   2.479   4.745   4.967 -0.2625 -0.0648  0.0011
 8890SOL    HW135638   2.384   4.757   4.964 -0.0217  2.1504 -0.7758
 8890SOL    HW235639   2.498   4.729   5.059 -1.1923  2.1615  0.6544
 8891SOL     OW35640  12.488  11.217  10.769  0.5494 -0.5282  0.1120
 8891SOL    HW135641  12.507  11.213  10.675  3.0405  0.4229  0.4861
 8891SOL    HW235642  12.469  11.127  10.793 -2.2148 -0.5269 -1.5934
 8892SOL     OW35643   0.907   7.231   9.799  0.3488  0.1848  0.1613
 8892SOL    HW135644   0.928   7.231   9.705 -2.4154  0.5281 -0.5463
 8892SOL    HW235645   0.931   7.143   9.828 -0.0566 -0.4212 -1.2299
 8893SOL     OW35646   8.819   1.290   1.412 -0.2279  0.4187  0.0055
 8893SOL    HW135647   8.822   1.208   1.363 -0.3972  1.5875 -2.1076
 8893SOL    HW235648   8.776   1.269   1.494 -2.3131 -1.1644 -1.4196
 8894SOL     OW35649  12.002   0.076  12.085  0.1060 -0.4963  0.3125
 8894SOL    HW135650  12.003  -0.020  12.087 -0.8229 -0.6034 -1.3907
 8894SOL    HW235651  11.910   0.099  12.100  0.0659  0.0238 -0.5984
 8895SOL     OW35652  11.194   4.714  11.223 -0.1391 -0.5866  0.5669
 8895SOL    HW135653  11.221   4.630  11.186  0.2313 -1.0744  1.9116
 8895SOL    HW235654  11.276   4.759  11.244 -0.2992  0.5711 -1.0506
 8896SOL     OW35655   9.222  12.205   6.067 -0.0308  0.0690 -0.3542
 8896SOL    HW135656   9.179  12.221   5.983  0.4105 -0.8529 -0.7627
 8896SOL    HW235657   9.159  12.154   6.117 -0.5106  1.0674  0.0938
 8897SOL     OW35658  11.317   6.337   7.999  0.7758 -0.7662  0.5278
 8897SOL    HW135659  11.327   6.418   8.050  0.0660 -0.6581  0.5135
 8897SOL    HW235660  11.361   6.355   7.916  1.0774 -0.5850  0.7251
 8898SOL     OW35661   4.440  12.439  10.713 -0.2131  0.2403 -0.3277
 8898SOL    HW135662   4.397  12.362  10.751  2.4439 -0.0501  2.4713
 8898SOL    HW235663   4.531  12.430  10.738  0.3758  3.9058 -0.6165
 8899SOL     OW35664   5.265   8.263   7.551 -0.0884  0.3775  0.7878
 8899SOL    HW135665   5.193   8.321   7.528  0.1088  0.7989  1.1979
 8899SOL    HW235666   5.338   8.323   7.571 -0.2104  0.0400  2.3490
 8900SOL     OW35667   5.925   0.812   0.758  0.1541 -0.7554 -0.2054
 8900SOL    HW135668   5.941   0.762   0.679 -0.1659 -1.7605  0.3483
 8900SOL    HW235669   5.882   0.751   0.818  2.3921 -0.7417  1.5871
 8901SOL     OW35670   9.894   1.547   6.808  0.4513  0.0916  0.0487
 8901SOL    HW135671   9.953   1.553   6.883 -0.1538 -1.3486  0.6924
 8901SOL    HW235672   9.888   1.453   6.790  1.5181  0.4518 -2.6122
 8902SOL     OW35673   3.020  11.525   0.536 -0.4008 -0.0758 -0.0981
 8902SOL    HW135674   2.980  11.612   0.540  0.8997  0.5114  1.0286
 8902SOL    HW235675   3.113  11.541   0.553  0.5867 -1.2481 -3.5315
 8903SOL     OW35676  11.746   5.852   4.644  0.0054  0.1646 -0.0677
 8903SOL    HW135677  11.835   5.886   4.651 -0.5863  1.5682  1.0647
 8903SOL    HW235678  11.704   5.904   4.576  0.0050 -0.4403 -0.5448
 8904SOL     OW35679   2.121   1.176   7.417  0.0773  0.1361 -0.0336
 8904SOL    HW135680   2.125   1.228   7.498  1.8861 -0.9710  0.6545
 8904SOL    HW235681   2.068   1.100   7.440  1.3214 -0.6223  0.4289
 8905SOL     OW35682  11.551  10.028   1.766 -0.1430  0.0450  0.2924
 8905SOL    HW135683  11.547   9.976   1.846  0.1773 -0.9503 -0.3207
 8905SOL    HW235684  11.586   9.968   1.700 -1.0364  0.6372 -0.7597
 8906SOL     OW35685   0.564   1.656   0.996  0.0486 -0.3410  0.1697
 8906SOL    HW135686   0.468   1.664   0.992  0.1346  0.3679 -0.9242
 8906SOL    HW235687   0.589   1.705   1.074 -0.2704  2.0590 -1.1447
 8907SOL     OW35688   0.123   5.878   0.407  0.0367 -0.0819  0.6695
 8907SOL    HW135689   0.109   5.925   0.489  0.0551  0.7109  0.2314
 8907SOL    HW235690   0.055   5.911   0.348 -0.5934 -1.3558  0.6444
 8908SOL     OW35691   4.376   5.161   4.490 -0.2466 -0.3255  0.1043
 8908SOL    HW135692   4.419   5.137   4.408  1.8506 -0.8728  1.2906
 8908SOL    HW235693   4.401   5.092   4.552 -1.5924  0.1919  1.2868
 8909SOL     OW35694   3.616  10.964   7.917  0.1085  0.1113 -0.1334
 8909SOL    HW135695   3.632  10.919   8.000  0.9861 -0.6241 -0.6743
 8909SOL    HW235696   3.694  11.017   7.903  0.1612 -0.1015 -0.6884
 8910SOL     OW35697   5.359   3.837   8.077  0.3152  0.2588 -0.0344
 8910SOL    HW135698   5.400   3.755   8.048 -0.1900 -0.7195  1.8812
 8910SOL    HW235699   5.421   3.873   8.141  0.0989  0.9098 -0.1830
 8911SOL     OW35700   3.975  11.264   6.405 -0.6406  0.3896  0.5222
 8911SOL    HW135701   4.063  11.256   6.442 -0.9811 -0.6833  1.1559
 8911SOL    HW235702   3.921  11.298   6.476 -1.0874 -0.6820  0.7188
 8912SOL     OW35703   0.390   9.077   4.767 -0.0780  0.8587  0.1383
 8912SOL    HW135704   0.402   8.994   4.813 -0.5740 -0.2820 -1.6662
 8912SOL    HW235705   0.313   9.116   4.807 -0.6768 -0.2417  0.1041
 8913SOL     OW35706   5.615   2.635   4.594  0.1285 -0.1405  0.0949
 8913SOL    HW135707   5.534   2.593   4.565  0.6078 -0.2717 -1.1135
 8913SOL    HW235708   5.601   2.654   4.687 -1.4134  0.1619 -0.1811
 8914SOL     OW35709   1.421   2.598  10.636 -0.4748 -0.2211  0.2958
 8914SOL    HW135710   1.357   2.653  10.591  0.4944 -0.1111 -1.0016
 8914SOL    HW235711   1.414   2.513  10.593 -1.2237 -0.8521  1.5882
 8915SOL     OW35712   0.633  12.313   8.508 -0.1459  0.1064  0.1433
 8915SOL    HW135713   0.723  12.323   8.476 -0.0034  0.0756  0.5290
 8915SOL    HW235714   0.605  12.403   8.527 -0.2305  0.1245 -0.0638
 8916SOL     OW35715  10.089   1.841   3.831 -0.1504  0.1280 -0.2033
 8916SOL    HW135716  10.034   1.829   3.908  0.6290 -0.9181  0.2165
 8916SOL    HW235717  10.062   1.772   3.771 -0.9411  1.1050 -1.0020
 8917SOL     OW35718  11.858   0.875  10.358  0.1512  0.3411 -0.1463
 8917SOL    HW135719  11.809   0.813  10.412  0.2868 -0.7162 -1.1898
 8917SOL    HW235720  11.950   0.856  10.378  0.1931  1.8740  1.3196
 8918SOL     OW35721  10.651   1.676   8.447  0.6844  0.1556 -0.4173
 8918SOL    HW135722  10.621   1.761   8.415  0.1579 -0.0052 -0.3662
 8918SOL    HW235723  10.633   1.616   8.375 -0.1624 -0.1418  0.0252
 8919SOL     OW35724  10.880   5.773   1.523  0.2973 -0.2643  0.7428
 8919SOL    HW135725  10.819   5.738   1.587 -1.8392  0.9169 -0.5299
 8919SOL    HW235726  10.861   5.725   1.442  1.3218 -0.1468  0.4172
 8920SOL     OW35727   7.283   9.150   3.642 -0.6541  0.4201 -0.4517
 8920SOL    HW135728   7.370   9.125   3.611  0.2386  2.3051  0.3705
 8920SOL    HW235729   7.223   9.094   3.593  1.0461 -1.4351 -0.5119
 8921SOL     OW35730   2.159   3.626   0.621  0.6278  0.2373 -0.4429
 8921SOL    HW135731   2.176   3.560   0.688  0.1603 -0.5431 -1.0721
 8921SOL    HW235732   2.064   3.637   0.621  0.6680  0.6126 -0.6266
 8922SOL     OW35733   9.732   5.579   4.428  0.3911  0.5244  0.3196
 8922SOL    HW135734   9.733   5.673   4.411 -0.2408  0.7452  1.4029
 8922SOL    HW235735   9.818   5.549   4.401  0.4741  1.3542 -0.3787
 8923SOL     OW35736   6.084   6.811   1.764 -0.0305 -0.5533  0.2043
 8923SOL    HW135737   6.067   6.821   1.670  1.9798 -1.8366 -0.3517
 8923SOL    HW235738   6.077   6.717   1.779  0.6295 -0.4622  1.1462
 8924SOL     OW35739   0.016   1.608   7.150  1.0776  0.4648 -1.0673
 8924SOL    HW135740   0.075   1.666   7.198  1.8062 -0.4035 -0.8862
 8924SOL    HW235741  -0.034   1.667   7.093  0.6012  1.4518  0.3087
 8925SOL     OW35742  11.223   7.667  10.184  0.0425  0.8080  0.9338
 8925SOL    HW135743  11.259   7.584  10.215  1.0180  1.6553  2.1802
 8925SOL    HW235744  11.299   7.725  10.176  0.0341  0.5364 -3.9122
 8926SOL     OW35745   3.321   1.705  10.339 -0.6888  0.6005  0.2365
 8926SOL    HW135746   3.363   1.647  10.403  1.4036 -0.1292 -1.6726
 8926SOL    HW235747   3.323   1.655  10.257  0.6659  3.0822 -1.3515
 8927SOL     OW35748   9.855   5.251   7.047  0.0666 -0.0802  0.0127
 8927SOL    HW135749   9.827   5.335   7.013 -0.9040  0.1498  1.3114
 8927SOL    HW235750   9.805   5.187   6.996 -1.8362  0.2793  1.2873
 8928SOL     OW35751  12.571   1.968   1.728 -0.0167 -0.1246 -0.5040
 8928SOL    HW135752  12.589   1.985   1.635 -0.0880  1.7527 -0.2173
 8928SOL    HW235753  12.507   1.897   1.727  0.9511 -1.0361 -1.8283
 8929SOL     OW35754   1.203   3.527   8.629 -0.8207  0.0343  0.9987
 8929SOL    HW135755   1.164   3.563   8.709 -0.1627 -0.8965  1.7596
 8929SOL    HW235756   1.296   3.520   8.648 -0.7467 -0.8284  0.3933
 8930SOL     OW35757   9.598  10.410  10.421 -0.1369 -0.0083 -0.3131
 8930SOL    HW135758   9.598  10.506  10.430  1.5702 -0.1303  1.8690
 8930SOL    HW235759   9.687  10.389  10.393 -0.1222 -1.0098  0.4301
 8931SOL     OW35760   7.705   8.704  10.525 -0.1114  0.4370 -0.0760
 8931SOL    HW135761   7.728   8.619  10.562  0.8729  0.7284  0.0216
 8931SOL    HW235762   7.727   8.767  10.593 -0.7646  0.7772 -0.1752
 8932SOL     OW35763   1.499   6.505  11.299  0.4300  0.1516 -0.7820
 8932SOL    HW135764   1.477   6.557  11.376  0.8810 -1.2294  0.3365
 8932SOL    HW235765   1.415   6.471  11.269  0.4014 -0.6490  0.1400
 8933SOL     OW35766   8.018   4.984   7.703 -0.2625 -0.3126 -0.5360
 8933SOL    HW135767   8.112   4.997   7.712 -0.0397 -1.8007 -0.5406
 8933SOL    HW235768   7.994   4.924   7.773 -1.5480  1.3579  0.5580
 8934SOL     OW35769   6.079   8.024   6.333  0.3231 -0.4405  0.3572
 8934SOL    HW135770   6.132   7.944   6.328 -0.0766 -0.7711  1.2167
 8934SOL    HW235771   6.110   8.069   6.412 -0.4414 -0.4820  0.6924
 8935SOL     OW35772   9.253   7.031  10.561 -0.1556  0.3733 -0.2371
 8935SOL    HW135773   9.251   6.936  10.545  1.3557  0.2106  0.3601
 8935SOL    HW235774   9.296   7.040  10.646 -0.3914  1.5994 -0.2331
 8936SOL     OW35775   4.439   3.707   5.240 -0.4464 -0.2263  0.4523
 8936SOL    HW135776   4.489   3.769   5.187  0.4627 -0.1263  1.3787
 8936SOL    HW235777   4.482   3.622   5.225  0.2307 -0.0899  1.4792
 8937SOL     OW35778   0.427   3.242   4.861 -0.7020 -0.1380 -0.3955
 8937SOL    HW135779   0.521   3.242   4.880 -0.1835  2.0508 -2.5050
 8937SOL    HW235780   0.392   3.313   4.916 -1.5003 -1.8935  1.5230
 8938SOL     OW35781   3.269   9.036   1.473  0.2109 -0.1604 -0.6708
 8938SOL    HW135782   3.260   8.957   1.527  2.4626 -0.5232 -0.6886
 8938SOL    HW235783   3.322   9.007   1.398 -0.4371  0.9833 -1.5953
 8939SOL     OW35784   5.249   3.392   6.049 -0.3437  0.3106  0.1849
 8939SOL    HW135785   5.298   3.313   6.026 -0.0267  0.1672  1.2900
 8939SOL    HW235786   5.278   3.413   6.138  0.7531  2.5638 -0.6199
 8940SOL     OW35787  10.996   8.142   1.554 -0.0184 -0.7293  0.0963
 8940SOL    HW135788  11.015   8.057   1.594  0.4990 -0.2323  0.9439
 8940SOL    HW235789  11.080   8.187   1.552 -0.5372  0.3438  1.1080
 8941SOL     OW35790   3.816   3.262   5.668 -0.4217 -0.1237  0.4159
 8941SOL    HW135791   3.865   3.202   5.613 -1.5634 -1.9423  1.3014
 8941SOL    HW235792   3.859   3.258   5.753 -0.3704  0.4892  0.4223
 8942SOL     OW35793   2.709  10.072   2.958 -0.1442  0.3150  0.4401
 8942SOL    HW135794   2.737   9.985   2.983 -3.2239 -0.3733  2.0034
 8942SOL    HW235795   2.735  10.128   3.031 -0.7762  0.0968  0.8442
 8943SOL     OW35796   2.011  11.220   9.021  0.0588 -0.4354  0.3054
 8943SOL    HW135797   2.034  11.127   9.021  1.8324 -0.0275 -0.3967
 8943SOL    HW235798   1.960  11.232   9.102  1.5242 -1.6103  1.4648
 8944SOL     OW35799   0.615   9.427   7.532 -0.3505  0.3385  0.5002
 8944SOL    HW135800   0.549   9.481   7.489 -0.9074  2.1755  3.3697
 8944SOL    HW235801   0.699   9.461   7.500 -0.7409  1.3930  0.5794
 8945SOL     OW35802   6.523   6.069  11.455  0.1038  0.1074  0.0363
 8945SOL    HW135803   6.435   6.101  11.433  0.1909 -0.3647 -1.0599
 8945SOL    HW235804   6.571   6.072  11.372  1.2068  0.5951  0.6781
 8946SOL     OW35805   8.097   1.341   5.920  0.5510  0.8427  0.2623
 8946SOL    HW135806   8.164   1.349   5.852  0.0347 -1.1642 -0.5653
 8946SOL    HW235807   8.026   1.293   5.877 -0.1783  0.3305  1.9712
 8947SOL     OW35808   1.833   1.431   0.138 -0.3056 -0.0966 -0.3895
 8947SOL    HW135809   1.878   1.351   0.112  0.3096  0.5275 -1.3170
 8947SOL    HW235810   1.902   1.497   0.145 -0.8535  0.4640 -0.1170
 8948SOL     OW35811   1.390   7.575   8.720 -0.3894  0.1218 -0.0316
 8948SOL    HW135812   1.449   7.533   8.783 -0.5938  1.1291  0.8750
 8948SOL    HW235813   1.447   7.626   8.663 -0.3430  1.0310  0.7933
 8949SOL     OW35814   8.032  10.020   6.546 -0.1889 -0.6465  0.0694
 8949SOL    HW135815   7.984   9.937   6.546  0.4863 -1.0534 -0.6928
 8949SOL    HW235816   8.042  10.041   6.453 -1.2677  0.8461  0.2585
 8950SOL     OW35817   7.859   8.833   9.990 -0.2359 -0.0629 -0.0707
 8950SOL    HW135818   7.840   8.862   9.900 -1.2221 -0.6983 -0.0726
 8950SOL    HW235819   7.774   8.818  10.029  0.1856 -3.1440 -0.1257
 8951SOL     OW35820   4.811   6.765   8.351 -0.4509  0.3153 -0.3882
 8951SOL    HW135821   4.807   6.795   8.260  2.7888  0.9437 -0.4448
 8951SOL    HW235822   4.900   6.733   8.362 -0.8994 -0.2225  2.4628
 8952SOL     OW35823  12.280   7.738   8.405 -0.0922  0.5760  0.0772
 8952SOL    HW135824  12.196   7.781   8.388 -0.1244 -0.1826 -1.8656
 8952SOL    HW235825  12.333   7.756   8.328  0.9110 -0.4771  0.4892
 8953SOL     OW35826  10.470   3.654   6.129  0.3028  0.4378 -0.2775
 8953SOL    HW135827  10.490   3.623   6.040  0.9215 -0.9832  0.3217
 8953SOL    HW235828  10.377   3.676   6.127  0.1800 -0.1275 -1.1192
 8954SOL     OW35829  10.581   1.695  12.390  0.1317  0.1061  0.0241
 8954SOL    HW135830  10.576   1.776  12.339 -1.2204 -0.5675 -0.9679
 8954SOL    HW235831  10.633   1.718  12.467 -0.6696  2.0617  0.0274
 8955SOL     OW35832   5.196   7.033  10.127  0.2706 -0.3176 -0.5727
 8955SOL    HW135833   5.231   6.944  10.133  1.3086  0.1365  0.4409
 8955SOL    HW235834   5.122   7.026  10.066 -0.3920 -2.0932  0.3775
 8956SOL     OW35835  11.404   2.698   6.469  0.2101 -0.2620 -0.4477
 8956SOL    HW135836  11.447   2.618   6.438  0.8133  0.4833 -1.6071
 8956SOL    HW235837  11.349   2.725   6.396 -0.2111  0.2351  0.0459
 8957SOL     OW35838   9.435   6.155   3.205  0.3623 -0.6484  0.3724
 8957SOL    HW135839   9.470   6.184   3.289  2.8637 -1.5823 -0.2511
 8957SOL    HW235840   9.451   6.061   3.204 -1.3457 -0.9563 -0.4081
 8958SOL     OW35841   6.989  11.258   5.512  0.1926  0.0601  0.6411
 8958SOL    HW135842   7.072  11.299   5.487  0.2639 -0.6769 -0.4276
 8958SOL    HW235843   6.964  11.301   5.594 -0.2107  2.8982 -0.8287
 8959SOL     OW35844   7.442   9.262   7.396 -0.5287  0.0633  0.3662
 8959SOL    HW135845   7.519   9.290   7.445 -0.6070 -1.4987  1.4722
 8959SOL    HW235846   7.478   9.212   7.323 -0.4727 -0.2505  0.6055
 8960SOL     OW35847   4.509  12.242   8.832 -0.1400 -0.1731 -0.2946
 8960SOL    HW135848   4.418  12.248   8.863  0.6642 -0.1885  2.3553
 8960SOL    HW235849   4.517  12.153   8.799 -0.9402 -0.3757  0.0144
 8961SOL     OW35850  10.334   7.845   2.068 -0.2398  0.1563 -0.1776
 8961SOL    HW135851  10.339   7.757   2.105  4.4727 -0.0100 -0.6557
 8961SOL    HW235852  10.344   7.832   1.974  1.1882  1.1906 -0.1860
 8962SOL     OW35853  10.030   7.927   2.802 -0.4456 -0.4086 -0.0745
 8962SOL    HW135854  10.076   7.929   2.886  0.4055 -0.2425 -0.5298
 8962SOL    HW235855  10.095   7.959   2.739 -0.9235 -0.9718 -0.8681
 8963SOL     OW35856  12.035  12.314  12.326 -0.1109  0.6600  0.3341
 8963SOL    HW135857  12.032  12.348  12.236 -2.0857 -0.6266 -0.1319
 8963SOL    HW235858  12.046  12.220  12.315 -1.4199  0.3634  1.4023
 8964SOL     OW35859   9.151  12.176   8.898 -0.2183  0.6689  0.1368
 8964SOL    HW135860   9.194  12.191   8.983  1.2031  1.6329 -0.7066
 8964SOL    HW235861   9.188  12.093   8.867 -0.8623  0.2315  0.5072
 8965SOL     OW35862   8.351  12.016   9.292 -0.4992  0.6642  1.0325
 8965SOL    HW135863   8.380  12.008   9.201 -1.5868  1.1363  0.6308
 8965SOL    HW235864   8.430  12.042   9.340  0.1457  0.1704  0.2789
 8966SOL     OW35865   2.584   0.703  10.854 -0.0660 -0.5301 -0.3561
 8966SOL    HW135866   2.534   0.622  10.863 -0.4652 -0.2105  0.3579
 8966SOL    HW235867   2.600   0.712  10.760  0.3141 -1.6347 -0.4054
 8967SOL     OW35868   7.615  11.699   2.156 -0.0924 -0.5634 -0.1197
 8967SOL    HW135869   7.620  11.766   2.224 -2.4472 -0.4015 -0.0338
 8967SOL    HW235870   7.669  11.734   2.085  0.4664  0.3929  0.7403
 8968SOL     OW35871  11.540   8.379   8.180 -0.1185  0.2629 -0.1474
 8968SOL    HW135872  11.603   8.326   8.229  0.3728 -0.5611 -1.6210
 8968SOL    HW235873  11.593   8.423   8.114 -0.8266  1.0619 -0.1860
 8969SOL     OW35874  12.209  11.972   0.148 -0.2118 -0.4715  0.0159
 8969SOL    HW135875  12.188  11.898   0.092 -0.6185 -0.8494  0.6554
 8969SOL    HW235876  12.257  11.933   0.222 -1.2807 -0.2450  0.8474
 8970SOL     OW35877  11.641   2.172   2.236 -0.2389 -0.1483  0.4436
 8970SOL    HW135878  11.626   2.243   2.173  2.6714 -0.9050 -1.2856
 8970SOL    HW235879  11.688   2.213   2.308 -0.3339  0.0320  0.4029
 8971SOL     OW35880   1.071   6.003   4.011 -0.0078 -0.6041 -0.3226
 8971SOL    HW135881   1.006   6.070   4.031 -1.3355 -1.5141 -1.3956
 8971SOL    HW235882   1.077   6.003   3.916  2.0301 -0.1520 -0.2402
 8972SOL     OW35883  10.059   3.827   5.610  0.1968  0.4423 -0.2875
 8972SOL    HW135884  10.147   3.791   5.598 -1.0007 -2.2193 -2.1727
 8972SOL    HW235885  10.070   3.921   5.599  2.8517  0.2389  0.0088
 8973SOL     OW35886   7.986   3.962   3.040  0.3225  0.0156  0.7004
 8973SOL    HW135887   8.002   3.903   2.966  3.0887 -0.8059  1.8512
 8973SOL    HW235888   8.009   4.049   3.006  0.6373 -0.2101  0.3289
 8974SOL     OW35889   4.617   9.494   6.113 -0.2973  0.4294 -0.0997
 8974SOL    HW135890   4.667   9.560   6.162  1.4740 -0.3867 -0.7155
 8974SOL    HW235891   4.607   9.533   6.026 -1.2778  0.8377  0.1869
 8975SOL     OW35892   1.893   7.676   7.767  0.1537  0.5423  0.1785
 8975SOL    HW135893   1.895   7.588   7.804  0.7654  1.0175  1.3228
 8975SOL    HW235894   1.802   7.688   7.737 -0.3262  0.0737  1.3907
 8976SOL     OW35895   7.168   1.033   3.091 -0.4358 -0.1601  0.2880
 8976SOL    HW135896   7.222   1.055   3.014  1.7105 -1.9808  1.1318
 8976SOL    HW235897   7.106   0.968   3.058 -0.7220  0.3912 -0.2757
 8977SOL     OW35898   3.134   2.036   4.802 -0.0155  0.1056  0.1822
 8977SOL    HW135899   3.069   2.105   4.813 -0.8239 -0.9154  2.5335
 8977SOL    HW235900   3.208   2.063   4.856  0.9878  0.5638 -1.3454
 8978SOL     OW35901   6.087   6.152   7.050  0.5852 -0.4477 -0.2352
 8978SOL    HW135902   6.092   6.155   7.145 -0.8205  0.3658 -0.1488
 8978SOL    HW235903   6.137   6.074   7.025  1.4330 -0.3590  1.1104
 8979SOL     OW35904   6.032   1.885  11.436  0.1895 -0.5973 -0.0084
 8979SOL    HW135905   6.048   1.860  11.346  1.8276 -0.3020  0.1725
 8979SOL    HW235906   6.093   1.832  11.487  0.1205  0.0889  0.8123
 8980SOL     OW35907  10.379   7.412   9.551 -0.2099 -0.4954  0.1963
 8980SOL    HW135908  10.319   7.405   9.477  0.7965 -2.2912 -0.5109
 8980SOL    HW235909  10.339   7.477   9.608 -1.4094  0.3883 -1.5511
 8981SOL     OW35910   1.121   5.524   1.154  0.3056  0.5462 -0.1234
 8981SOL    HW135911   1.072   5.461   1.101  1.3318 -0.1180 -0.3075
 8981SOL    HW235912   1.212   5.498   1.144  0.4943 -0.3375  2.8977
 8982SOL     OW35913   8.974   1.095  11.027 -0.7326  0.8210 -0.0402
 8982SOL    HW135914   8.888   1.081  10.988 -0.7654 -0.9294  0.5676
 8982SOL    HW235915   9.020   1.152  10.965 -1.3621 -0.5135 -1.7917
 8983SOL     OW35916   3.665   5.799   6.387  0.0616  0.6485 -0.0271
 8983SOL    HW135917   3.582   5.832   6.421  0.3616  1.4122 -0.0152
 8983SOL    HW235918   3.715   5.774   6.465  0.2989  1.3053  0.0349
 8984SOL     OW35919  11.108   0.747   5.414  0.4904 -0.2290  0.0005
 8984SOL    HW135920  11.193   0.715   5.443 -0.4436 -1.3448  1.6476
 8984SOL    HW235921  11.070   0.673   5.366  0.3601  0.1976 -0.5658
 8985SOL     OW35922  11.661   0.681  10.114 -0.4055 -0.6416 -0.4596
 8985SOL    HW135923  11.698   0.715  10.033  1.5131 -1.6644 -0.0901
 8985SOL    HW235924  11.572   0.655  10.091 -1.0504  2.0710 -1.3712
 8986SOL     OW35925   2.940   5.617   4.399 -0.3505  0.1630  0.0855
 8986SOL    HW135926   2.893   5.688   4.354 -0.8651  0.6542  1.3431
 8986SOL    HW235927   2.969   5.657   4.481  0.0258 -0.8850  0.4712
 8987SOL     OW35928   4.177   5.135   0.986  0.1061 -0.3463 -0.1779
 8987SOL    HW135929   4.111   5.082   0.942  1.7817 -1.8211 -1.0494
 8987SOL    HW235930   4.257   5.084   0.980  1.7732  2.1277 -0.7511
 8988SOL     OW35931   8.586   9.373   5.963  0.3398 -0.3445  0.3033
 8988SOL    HW135932   8.531   9.298   5.983 -0.4512 -0.2561 -1.3284
 8988SOL    HW235933   8.636   9.389   6.043 -0.6568 -1.5833  1.2118
 8989SOL     OW35934   9.816   7.135  10.818  0.5077 -0.1774 -0.3895
 8989SOL    HW135935   9.860   7.215  10.847  0.1937 -0.1321 -0.0103
 8989SOL    HW235936   9.886   7.075  10.794  0.7917  1.4446 -4.3246
 8990SOL     OW35937   8.342   7.565   6.725 -0.1257  0.4325 -0.3145
 8990SOL    HW135938   8.368   7.615   6.802 -0.7234  0.3991 -0.0847
 8990SOL    HW235939   8.389   7.482   6.732  0.0214  0.5346 -0.1182
 8991SOL     OW35940   8.657  12.402   1.660 -0.0027 -0.0558  0.0952
 8991SOL    HW135941   8.652  12.494   1.633  0.0181 -0.2998 -0.7994
 8991SOL    HW235942   8.613  12.399   1.745 -0.6055  0.6651 -0.1793
 8992SOL     OW35943   5.663  10.422   0.750 -0.4169  0.5297  0.0506
 8992SOL    HW135944   5.728  10.400   0.684 -0.5308 -0.1640  0.1611
 8992SOL    HW235945   5.714  10.460   0.822 -0.2015  0.5188 -0.0971
 8993SOL     OW35946   1.285   7.714   6.061 -0.3806  0.6574  0.2251
 8993SOL    HW135947   1.368   7.712   6.013 -0.8011  3.4507 -0.7851
 8993SOL    HW235948   1.238   7.789   6.025 -2.3607  0.5820  2.4212
 8994SOL     OW35949   9.109   2.071   7.207 -0.5513  0.0543 -0.1734
 8994SOL    HW135950   9.075   2.154   7.240 -0.7279  0.1488 -0.5889
 8994SOL    HW235951   9.089   2.008   7.276 -2.0734  0.0012 -0.6225
 8995SOL     OW35952   1.341   9.019   3.463 -0.1570 -0.2474 -0.3584
 8995SOL    HW135953   1.376   8.980   3.384  0.1405 -0.4445 -0.1316
 8995SOL    HW235954   1.308   8.945   3.515  1.9447 -0.4255  0.8369
 8996SOL     OW35955   0.083   0.280  10.577  0.1473 -0.1199 -0.1094
 8996SOL    HW135956   0.007   0.280  10.635 -0.4101 -0.9477 -0.8193
 8996SOL    HW235957   0.051   0.240  10.495  1.5579 -1.2989 -0.1177
 8997SOL     OW35958   9.222   6.643   2.103  0.2280  0.4362 -0.2211
 8997SOL    HW135959   9.250   6.562   2.059  1.0077  0.3282  0.4461
 8997SOL    HW235960   9.299   6.700   2.098  0.1452  0.6182  0.5354
 8998SOL     OW35961   4.510   0.761   9.455 -0.4908  0.1072 -0.1579
 8998SOL    HW135962   4.419   0.777   9.480 -0.6267 -1.4230  0.3888
 8998SOL    HW235963   4.504   0.723   9.367 -0.4008 -0.2262 -0.0207
 8999SOL     OW35964  10.815   4.220   0.531 -0.0206  0.2517  0.4062
 8999SOL    HW135965  10.742   4.280   0.544 -2.0784 -1.5886 -1.7964
 8999SOL    HW235966  10.842   4.233   0.440  1.3939 -0.2084  0.7239
 9000SOL     OW35967   5.417   9.746   6.411  0.1434  0.4383  0.2452
 9000SOL    HW135968   5.483   9.765   6.344  0.0719  3.2889  0.8352
 9000SOL    HW235969   5.457   9.775   6.492 -1.2568  0.8066  0.8373
 9001SOL     OW35970   5.088   8.927   1.352  0.2177 -0.0090 -0.9167
 9001SOL    HW135971   5.086   8.960   1.441 -1.5715 -0.0725 -0.8925
 9001SOL    HW235972   5.038   8.992   1.301 -0.5792 -1.0069 -1.4590
 9002SOL     OW35973   8.522  12.477   5.362  0.1565 -0.1038 -0.3161
 9002SOL    HW135974   8.538  12.570   5.345  0.7831 -0.7050 -3.7652
 9002SOL    HW235975   8.606  12.444   5.395 -0.4381  0.7000  2.2214
 9003SOL     OW35976  10.194   8.224  11.085 -0.1968 -0.1140  0.1016
 9003SOL    HW135977  10.238   8.147  11.049  1.6030  0.4117  1.0934
 9003SOL    HW235978  10.101   8.209  11.066  0.0770 -2.5917  0.3900
 9004SOL     OW35979   9.115   9.441   5.572  0.2290 -0.3771  0.0902
 9004SOL    HW135980   9.168   9.399   5.640 -1.4640 -1.0987  1.0261
 9004SOL    HW235981   9.088   9.525   5.610  0.6292 -0.0366 -0.3591
 9005SOL     OW35982  11.979   3.885   6.459 -0.1743  0.4326  0.0448
 9005SOL    HW135983  12.056   3.860   6.511 -0.7626 -0.6693  0.4191
 9005SOL    HW235984  11.930   3.943   6.517  0.0392  0.6092  0.0528
 9006SOL     OW35985   4.476  10.946   4.989 -0.2047 -0.1169 -1.1793
 9006SOL    HW135986   4.429  10.994   4.920  1.1323  0.2095 -1.8829
 9006SOL    HW235987   4.549  10.905   4.944  1.6703  1.4572  0.2772
 9007SOL     OW35988  12.342   5.237   6.365  0.2117 -0.1047  0.1656
 9007SOL    HW135989  12.249   5.252   6.350  0.6268 -0.8662 -4.4218
 9007SOL    HW235990  12.382   5.324   6.357  0.1504 -0.1343 -0.4568
 9008SOL     OW35991   7.896   6.061   7.538 -0.1140  0.5593 -0.1167
 9008SOL    HW135992   7.836   6.087   7.469 -1.2866  2.0429  1.3756
 9008SOL    HW235993   7.941   6.142   7.562  1.2923 -0.2100 -0.0655
 9009SOL     OW35994   9.768   0.519   8.437 -0.3538 -0.0727  0.4688
 9009SOL    HW135995   9.784   0.437   8.483 -1.8809 -2.3439 -2.6952
 9009SOL    HW235996   9.852   0.541   8.397 -0.3457 -1.1490 -0.1432
 9010SOL     OW35997   2.368   4.801   2.537  0.8304  0.1853  0.4173
 9010SOL    HW135998   2.386   4.738   2.467  2.2996  2.6222 -1.5759
 9010SOL    HW235999   2.278   4.829   2.521  0.2103 -1.2158  1.2425
 9011SOL     OW36000   7.232   2.779   8.364  0.6261  0.6656 -0.7847
 9011SOL    HW136001   7.290   2.709   8.394  1.2685  0.4132 -2.5125
 9011SOL    HW236002   7.202   2.751   8.277 -3.0810  0.2386  0.4590
 9012SOL     OW36003   1.074   7.102   4.377 -0.0110 -0.0432  0.2885
 9012SOL    HW136004   1.075   7.166   4.306 -0.3542 -0.7561 -0.3733
 9012SOL    HW236005   1.093   7.018   4.334  0.4852 -0.3818  1.1447
 9013SOL     OW36006   8.070   0.419  11.530  0.0152 -0.4138 -0.1502
 9013SOL    HW136007   8.097   0.511  11.521  0.2095 -0.4302  0.2511
 9013SOL    HW236008   8.024   0.415  11.614 -0.3982 -0.5894 -0.3819
 9014SOL     OW36009   7.179  10.465  11.555  0.2109  0.5538 -0.4323
 9014SOL    HW136010   7.259  10.464  11.607 -0.3324  0.8337  0.4270
 9014SOL    HW236011   7.111  10.496  11.615 -0.8954 -1.3330 -0.6286
 9015SOL     OW36012  12.588   5.151   2.349 -0.1547 -0.2984  0.4692
 9015SOL    HW136013  12.631   5.203   2.417 -3.8570  1.6788  1.5756
 9015SOL    HW236014  12.531   5.090   2.397 -0.9965 -0.5911 -0.8432
 9016SOL     OW36015   3.161   5.957   5.755  0.6415 -0.3960 -0.4322
 9016SOL    HW136016   3.128   5.882   5.804 -0.5303  1.2510  1.4371
 9016SOL    HW236017   3.089   5.982   5.697  1.0217 -0.6798 -1.0382
 9017SOL     OW36018   5.922   8.198   3.421 -0.2251  0.0831 -0.0404
 9017SOL    HW136019   5.851   8.249   3.382 -1.2088 -0.9981  0.3200
 9017SOL    HW236020   5.926   8.118   3.369 -0.6799 -0.7950  1.2256
 9018SOL     OW36021   2.644   1.176   7.234  0.0979 -0.4214 -0.1031
 9018SOL    HW136022   2.726   1.186   7.185  0.0493 -0.7360 -0.2503
 9018SOL    HW236023   2.590   1.118   7.180 -0.8829  1.1092 -0.8182
 9019SOL     OW36024   1.143   3.405   2.170 -0.3268  0.2535 -0.2384
 9019SOL    HW136025   1.235   3.428   2.173  0.1579 -1.6294  1.1739
 9019SOL    HW236026   1.126   3.385   2.078  0.2459  2.0273 -0.7730
 9020SOL     OW36027   7.884  11.659   4.387 -0.1391  0.2461  0.4009
 9020SOL    HW136028   7.799  11.641   4.348 -0.5932  0.0578  1.4345
 9020SOL    HW236029   7.876  11.629   4.477  0.4889  1.6704  0.9751
 9021SOL     OW36030   4.932   9.737   5.724  0.0086 -0.0614  0.0867
 9021SOL    HW136031   4.872   9.678   5.677  1.0293 -0.7248 -0.4347
 9021SOL    HW236032   4.916   9.823   5.684 -0.0367 -0.3772 -0.5980
 9022SOL     OW36033   4.896  10.355   1.570 -0.3259 -0.3609 -0.0766
 9022SOL    HW136034   4.909  10.448   1.549  0.8055 -1.0660 -3.0627
 9022SOL    HW236035   4.809  10.352   1.611 -0.2710  2.0241  0.3816
 9023SOL     OW36036   4.978   2.148   4.763 -0.3006 -0.3441  0.0255
 9023SOL    HW136037   5.062   2.161   4.718 -1.0227 -0.8617 -1.5230
 9023SOL    HW236038   4.964   2.231   4.809  0.4197  0.2721 -0.8009
 9024SOL     OW36039   6.237  12.204   5.925  0.5843  0.1629  0.3027
 9024SOL    HW136040   6.186  12.271   5.879  0.8900  0.4300  0.3487
 9024SOL    HW236041   6.172  12.150   5.970  0.3330  0.3814  0.2003
 9025SOL     OW36042  11.511   1.901   1.468 -0.7858  0.4532  0.5842
 9025SOL    HW136043  11.591   1.942   1.503  1.1054 -0.5968 -2.1835
 9025SOL    HW236044  11.484   1.840   1.536  0.3162  1.3517  1.8994
 9026SOL     OW36045  11.109   7.861   9.982 -0.0142  0.4080  0.2373
 9026SOL    HW136046  11.196   7.901   9.990  0.2361  0.0906 -0.7784
 9026SOL    HW236047  11.119   7.775  10.023 -0.0731  0.6888  0.8454
 9027SOL     OW36048   2.340   2.506   1.398  0.5847  0.0520  1.1301
 9027SOL    HW136049   2.423   2.551   1.413  1.6855 -1.1498 -0.8117
 9027SOL    HW236050   2.337   2.495   1.303 -1.3646 -0.7638  1.2495
 9028SOL     OW36051   2.452   5.322   0.281 -0.3174 -0.4208 -0.1992
 9028SOL    HW136052   2.519   5.282   0.336 -1.3013 -1.1076  0.5350
 9028SOL    HW236053   2.490   5.322   0.193  0.0426 -2.2771 -0.0868
 9029SOL     OW36054  10.228   8.721   0.705 -0.5088 -0.0128  0.2024
 9029SOL    HW136055  10.245   8.632   0.735  0.3495  0.0669 -0.0342
 9029SOL    HW236056  10.178   8.762   0.776  1.4845  0.1813  1.5515
 9030SOL     OW36057   5.170   5.350   3.821  0.2085 -0.4571  0.0814
 9030SOL    HW136058   5.240   5.288   3.801 -0.0972 -0.5768 -0.6405
 9030SOL    HW236059   5.114   5.349   3.744  0.2380  0.7761  0.0173
 9031SOL     OW36060   6.491   7.257   3.471 -0.4339 -0.8682 -0.5084
 9031SOL    HW136061   6.433   7.181   3.480 -0.4862 -0.7992 -0.2423
 9031SOL    HW236062   6.555   7.231   3.405 -0.1576 -1.3292 -0.0721
 9032SOL     OW36063   5.092   9.670   2.109 -0.2314  0.3290  0.0835
 9032SOL    HW136064   5.044   9.738   2.063 -1.8943 -0.2013  0.9672
 9032SOL    HW236065   5.033   9.595   2.109  1.0960 -0.7521  0.1541
 9033SOL     OW36066   9.787   9.239   0.113 -0.4387 -0.0741 -0.1109
 9033SOL    HW136067   9.836   9.163   0.081 -2.1916 -1.4637  0.3455
 9033SOL    HW236068   9.834   9.267   0.191  0.0328 -0.9213 -0.0798
 9034SOL     OW36069   1.667  10.036   6.642  0.4362 -0.3479 -0.0489
 9034SOL    HW136070   1.596  10.036   6.578  0.6718  1.5953 -0.3763
 9034SOL    HW236071   1.743  10.002   6.594  0.4634  0.5310 -0.6513
 9035SOL     OW36072  11.571   9.587   0.036  0.4041 -0.0163  0.8797
 9035SOL    HW136073  11.480   9.600   0.063  0.6393 -1.5265  2.5618
 9035SOL    HW236074  11.600   9.674   0.009 -1.0339  0.8391  1.9324
 9036SOL     OW36075   0.373   6.946   1.810 -0.5972  0.0250 -0.0982
 9036SOL    HW136076   0.382   6.932   1.716  2.2849 -2.6623  0.3947
 9036SOL    HW236077   0.314   6.876   1.839  1.4678 -1.6217  0.4272
 9037SOL     OW36078  11.159   9.243   0.690  0.1169 -0.3211 -0.1282
 9037SOL    HW136079  11.254   9.234   0.682 -0.1206 -3.0251 -1.2203
 9037SOL    HW236080  11.124   9.188   0.620 -2.2559 -0.4797  1.0694
 9038SOL     OW36081   2.553   9.565   4.568  0.1501 -0.3515 -0.0152
 9038SOL    HW136082   2.601   9.495   4.523  0.0684 -1.4396  1.5314
 9038SOL    HW236083   2.584   9.645   4.526 -0.0424 -1.2967 -2.1070
 9039SOL     OW36084   6.383  10.017   6.129  0.4494 -0.5747  0.6300
 9039SOL    HW136085   6.310  10.009   6.191 -0.3125  0.7304 -0.0641
 9039SOL    HW236086   6.383   9.934   6.082 -1.4888 -0.1054 -0.2867
 9040SOL     OW36087  10.951   4.366   7.259 -0.1775 -0.6522 -0.5821
 9040SOL    HW136088  10.863   4.381   7.222 -0.4594 -1.0155 -0.0631
 9040SOL    HW236089  10.945   4.398   7.349  1.3521  3.1000 -1.6037
 9041SOL     OW36090   9.157   5.728   5.655  0.3017  0.0108  0.2177
 9041SOL    HW136091   9.138   5.797   5.592 -1.8774 -0.8914 -0.1967
 9041SOL    HW236092   9.183   5.653   5.601  0.4461 -0.1568  0.5174
 9042SOL     OW36093  12.153   8.978  12.389  0.2071 -0.0886  0.0369
 9042SOL    HW136094  12.180   8.961  12.479  0.2573  0.3910  0.1178
 9042SOL    HW236095  12.117   9.067  12.391  0.9803  0.2632 -0.5756
 9043SOL     OW36096   3.871   9.463   0.126  0.4942 -0.0530 -0.3746
 9043SOL    HW136097   3.838   9.553   0.120 -1.2776 -0.6611 -0.1385
 9043SOL    HW236098   3.842   9.421   0.045  1.2948 -0.4333 -0.4739
 9044SOL     OW36099   0.612   9.374   5.457  0.2788 -0.1114 -0.1397
 9044SOL    HW136100   0.634   9.403   5.545  3.0805  0.2256 -0.8558
 9044SOL    HW236101   0.655   9.289   5.447 -0.0491 -0.1762 -1.1507
 9045SOL     OW36102  10.948   1.187   3.541 -0.3863  0.2159 -0.1454
 9045SOL    HW136103  10.977   1.145   3.460  0.3665 -0.9585  0.6962
 9045SOL    HW236104  10.868   1.234   3.516  0.5459  0.9858 -1.8439
 9046SOL     OW36105   8.511   5.914   5.448  0.2361  0.0262 -0.0501
 9046SOL    HW136106   8.548   5.958   5.371 -1.1072  0.7877 -0.3038
 9046SOL    HW236107   8.512   5.981   5.516  0.9396 -0.4873  0.4481
 9047SOL     OW36108   9.969  10.523   6.596  0.6613 -0.3078 -0.6403
 9047SOL    HW136109   9.920  10.595   6.557 -0.1445 -0.3818  0.1839
 9047SOL    HW236110  10.027  10.492   6.527  2.8562  2.7023 -0.3260
 9048SOL     OW36111   0.140   5.494   8.291 -0.1737  0.3844 -0.5945
 9048SOL    HW136112   0.090   5.437   8.349  0.0108  0.5413 -0.2800
 9048SOL    HW236113   0.208   5.437   8.255  0.4478  0.5631  0.2609
 9049SOL     OW36114   0.153   2.366   3.895  0.2670  0.0150 -0.0132
 9049SOL    HW136115   0.168   2.285   3.846  2.4930  0.1119  0.4057
 9049SOL    HW236116   0.237   2.384   3.938 -0.0005  2.8020 -0.4714
 9050SOL     OW36117  12.559   6.871  11.499 -0.0986  0.3050  0.3779
 9050SOL    HW136118  12.529   6.948  11.548  0.6146 -0.6960  2.5124
 9050SOL    HW236119  12.506   6.799  11.534 -0.5046 -0.2739 -1.3320
 9051SOL     OW36120   6.881   1.038   7.295  0.2106 -0.2233 -0.6015
 9051SOL    HW136121   6.833   0.967   7.253 -1.3446 -0.4634  1.4257
 9051SOL    HW236122   6.906   1.003   7.381  0.3788  1.2918  0.0031
 9052SOL     OW36123   1.848   2.244  12.412  0.3667 -0.2434  0.0523
 9052SOL    HW136124   1.755   2.232  12.393  0.7829 -0.1631 -2.3219
 9052SOL    HW236125   1.877   2.158  12.443 -0.3252 -0.5188 -0.0408
 9053SOL     OW36126   2.079   8.199   5.863 -0.1376  0.1841  0.2290
 9053SOL    HW136127   2.140   8.126   5.874 -0.0337  0.4334  1.4788
 9053SOL    HW236128   2.135   8.277   5.863 -0.1863  0.2738 -1.6874
 9054SOL     OW36129  10.902   5.716  10.795 -0.1331  0.0714  0.4677
 9054SOL    HW136130  10.986   5.756  10.817  1.2720 -1.4987 -1.6583
 9054SOL    HW236131  10.846   5.790  10.771  0.8770  1.0894  1.1076
 9055SOL     OW36132  10.797   0.596   1.214  0.0956 -0.4019 -0.1283
 9055SOL    HW136133  10.805   0.530   1.282 -0.0288 -0.4073 -0.1180
 9055SOL    HW236134  10.717   0.644   1.237  1.1550  0.9558  0.9258
 9056SOL     OW36135   3.013   5.870   2.701  0.0599 -0.7101  0.1451
 9056SOL    HW136136   2.989   5.878   2.794 -1.2542 -2.4557  0.0059
 9056SOL    HW236137   3.028   5.777   2.688  1.3911 -0.3548 -1.1690
 9057SOL     OW36138  10.728   3.911   2.914 -0.5485  0.1842  0.1233
 9057SOL    HW136139  10.780   3.839   2.879  0.6168  1.0734 -0.0054
 9057SOL    HW236140  10.721   3.974   2.842  0.8194  1.4607  1.0432
 9058SOL     OW36141  12.213   5.842   5.732 -0.3790  0.6899  0.2754
 9058SOL    HW136142  12.284   5.892   5.692 -2.2340  2.1422 -1.4436
 9058SOL    HW236143  12.193   5.774   5.667 -1.2735  1.0276  0.1743
 9059SOL     OW36144   6.207   4.118   1.445  0.0771 -0.5763  0.1897
 9059SOL    HW136145   6.157   4.092   1.367  0.0683  0.2101 -0.0698
 9059SOL    HW236146   6.283   4.060   1.444 -0.0029 -0.6777 -0.3150
 9060SOL     OW36147   4.872   9.255   8.147  0.1993  0.1356 -0.2196
 9060SOL    HW136148   4.884   9.181   8.088  0.8546  0.4313 -0.4747
 9060SOL    HW236149   4.956   9.263   8.192 -0.3586 -0.2178  0.9188
 9061SOL     OW36150   0.950  12.380   1.392 -0.1841 -0.5813  0.6357
 9061SOL    HW136151   0.980  12.464   1.356  0.0561 -0.8656  0.1621
 9061SOL    HW236152   0.886  12.349   1.328  0.0154 -0.9438  0.6125
 9062SOL     OW36153   7.559  11.792   2.700  0.2730  0.0678  0.1822
 9062SOL    HW136154   7.483  11.741   2.727 -1.2318  1.6545 -0.8119
 9062SOL    HW236155   7.558  11.868   2.758  0.5643  0.5316 -0.4126
 9063SOL     OW36156   7.102   7.054  11.690  0.6192 -0.2724 -0.2283
 9063SOL    HW136157   7.082   7.108  11.767 -0.0290 -0.4507 -0.2654
 9063SOL    HW236158   7.092   7.113  11.616  1.6555  0.0105 -0.1625
 9064SOL     OW36159   7.856   2.943   6.914  1.0386  0.0341 -0.1252
 9064SOL    HW136160   7.891   3.032   6.921  0.6833  0.0768  1.8689
 9064SOL    HW236161   7.766   2.954   6.883  0.5578  0.5217  1.3537
 9065SOL     OW36162   9.091   0.623   2.056 -0.2994  0.0401 -0.2943
 9065SOL    HW136163   9.061   0.600   1.968  1.4777  0.1376 -0.9706
 9065SOL    HW236164   9.118   0.715   2.048  0.1804 -0.0516  0.2682
 9066SOL     OW36165   4.044   1.401   1.223 -0.9319  0.2210  0.2963
 9066SOL    HW136166   4.089   1.376   1.142 -2.7359  1.2526 -1.0968
 9066SOL    HW236167   3.994   1.324   1.247 -0.5035 -0.0407  0.3663
 9067SOL     OW36168  10.550   9.225   5.851  0.3169 -0.2626 -0.1785
 9067SOL    HW136169  10.478   9.261   5.902 -0.9420  0.4591 -2.3164
 9067SOL    HW236170  10.575   9.146   5.897 -1.6200 -0.3378  0.8521
 9068SOL     OW36171   2.933  11.763   7.929  0.1249 -0.1289  0.2225
 9068SOL    HW136172   2.861  11.779   7.868 -0.2693  0.8293  0.9086
 9068SOL    HW236173   2.945  11.668   7.929 -1.3375 -0.3262  0.3251
 9069SOL     OW36174   9.045  10.294   5.100  0.2153  0.1363 -0.2668
 9069SOL    HW136175   8.970  10.342   5.065 -0.0462  0.6301  0.9322
 9069SOL    HW236176   9.120  10.350   5.081  0.1968 -0.0258 -0.8361
 9070SOL     OW36177   8.309  10.765   8.243 -0.3393 -0.3811 -0.5447
 9070SOL    HW136178   8.368  10.748   8.169  0.8342 -1.9289  0.6700
 9070SOL    HW236179   8.260  10.684   8.253 -0.1963 -0.3456  0.5971
 9071SOL     OW36180   4.102   9.873   1.134 -0.1927  0.2536  0.4059
 9071SOL    HW136181   4.016   9.847   1.168 -0.6704  1.5258  0.2281
 9071SOL    HW236182   4.140   9.928   1.202  0.1254  0.3691  0.1393
 9072SOL     OW36183   6.875  11.303   4.832  0.3586  0.2503 -0.0598
 9072SOL    HW136184   6.852  11.240   4.764 -0.7271 -2.3374  2.5009
 9072SOL    HW236185   6.967  11.286   4.850  0.4296  0.3532 -0.3285
 9073SOL     OW36186   1.238   8.343   4.248 -0.0876  0.6196  0.5864
 9073SOL    HW136187   1.278   8.264   4.284 -1.7118  0.1451  1.4064
 9073SOL    HW236188   1.260   8.340   4.155 -0.7725 -1.2198  0.4500
 9074SOL     OW36189   5.346   0.064  12.572  0.3514  0.3270 -0.0185
 9074SOL    HW136190   5.276   0.062  12.507  1.4833  2.1373 -1.3911
 9074SOL    HW236191   5.302   0.085  12.654 -0.9333 -0.5751 -0.4420
 9075SOL     OW36192   3.843   6.530   4.461 -0.3809 -0.4112  0.4049
 9075SOL    HW136193   3.867   6.618   4.491  2.0888 -1.0098  0.4194
 9075SOL    HW236194   3.819   6.541   4.369 -1.0212  0.3922  0.6532
 9076SOL     OW36195   6.344   2.353   4.691  0.1649  0.4550 -0.2032
 9076SOL    HW136196   6.408   2.424   4.692  0.2521  0.3757  1.1820
 9076SOL    HW236197   6.336   2.329   4.598  0.1239  2.2567 -0.6948
 9077SOL     OW36198   3.888   4.688   9.053 -0.3532  0.1868 -0.7207
 9077SOL    HW136199   3.959   4.718   9.109 -0.3794 -1.1747  0.0805
 9077SOL    HW236200   3.820   4.755   9.062  0.3362  0.8723 -0.5242
 9078SOL     OW36201  11.700   5.714   4.352 -0.3554 -0.2357  0.2349
 9078SOL    HW136202  11.772   5.766   4.315 -0.7835 -0.4890 -1.0101
 9078SOL    HW236203  11.621   5.757   4.320 -0.7177 -1.4747 -0.5900
 9079SOL     OW36204   6.150   8.402   9.917 -0.0652 -0.3259  0.5215
 9079SOL    HW136205   6.092   8.463   9.871  1.3698  0.3634 -0.4406
 9079SOL    HW236206   6.224   8.390   9.858  1.1431 -0.6073  2.0369
 9080SOL     OW36207   8.134   1.009   3.535 -0.0056  0.5720 -0.1795
 9080SOL    HW136208   8.115   1.101   3.557 -1.7574  0.6728 -1.8684
 9080SOL    HW236209   8.070   0.959   3.585 -1.2439  0.5383 -1.7184
 9081SOL     OW36210   8.137   7.134  10.694 -0.1606 -0.3032 -0.0052
 9081SOL    HW136211   8.058   7.188  10.687 -0.7926 -0.9586  1.5486
 9081SOL    HW236212   8.120   7.059  10.637 -0.6585 -0.4191  0.2904
 9082SOL     OW36213   5.277   5.098   2.673  0.4156  0.3627  0.5160
 9082SOL    HW136214   5.372   5.102   2.682  0.7011  0.7786 -2.0093
 9082SOL    HW236215   5.245   5.167   2.731  1.5967 -0.0162  1.6755
 9083SOL     OW36216   3.005   5.957   1.199 -0.1095 -0.3624  0.8343
 9083SOL    HW136217   2.948   5.983   1.127 -0.5372 -4.4982 -0.6180
 9083SOL    HW236218   3.091   5.946   1.159  0.9554  2.1441  2.1998
 9084SOL     OW36219   6.362  10.962   1.349  0.0596  0.5334 -0.4571
 9084SOL    HW136220   6.339  11.030   1.412  0.1366  0.5700 -0.4693
 9084SOL    HW236221   6.437  10.997   1.302 -0.6479  0.9694 -1.2970
 9085SOL     OW36222   0.137  10.744  10.685  0.3405 -0.0876 -0.1908
 9085SOL    HW136223   0.098  10.776  10.767  0.6625 -1.3936  0.4994
 9085SOL    HW236224   0.154  10.651  10.701  4.7910  0.5444 -0.0141
 9086SOL     OW36225   0.709   8.949  12.084  0.0006  0.0191  0.4855
 9086SOL    HW136226   0.619   8.951  12.052 -0.3583  1.0192  1.5126
 9086SOL    HW236227   0.720   9.031  12.132  1.5101 -0.0136  0.2664
 9087SOL     OW36228  10.724   4.480   8.300  0.1834 -0.0030 -0.3758
 9087SOL    HW136229  10.654   4.545   8.291  0.0651 -0.0602  0.1078
 9087SOL    HW236230  10.747   4.483   8.393  0.6099 -0.2037 -0.4753
 9088SOL     OW36231  11.896   0.959   1.282  0.3871 -0.0037 -0.3598
 9088SOL    HW136232  11.934   0.871   1.286 -1.1575 -0.6573  1.9807
 9088SOL    HW236233  11.893   0.979   1.188  1.3464 -2.1828 -0.9207
 9089SOL     OW36234   0.610   6.683  10.081  0.1927  0.0805 -0.3988
 9089SOL    HW136235   0.580   6.730  10.003 -1.3972 -0.6931 -0.2924
 9089SOL    HW236236   0.674   6.621  10.047 -1.1864 -0.9255 -1.3056
 9090SOL     OW36237   5.787  12.378   8.972  0.1606 -0.2635  0.5004
 9090SOL    HW136238   5.698  12.412   8.984  0.6477  0.6916  1.6532
 9090SOL    HW236239   5.825  12.434   8.904 -0.9179 -2.3740 -2.0353
 9091SOL     OW36240   9.529   4.345   9.482 -0.0631  0.0172  0.0660
 9091SOL    HW136241   9.598   4.374   9.541 -0.7054  0.4446  0.6110
 9091SOL    HW236242   9.546   4.392   9.400  1.0766 -0.8924 -0.2541
 9092SOL     OW36243  10.260   8.327   5.327 -0.7215 -0.3035  0.3411
 9092SOL    HW136244  10.242   8.405   5.380  1.6026  1.5233 -1.3016
 9092SOL    HW236245  10.330   8.282   5.374 -1.2449 -0.7575  0.6910
 9093SOL     OW36246   7.468  12.354   0.983  0.0432  0.5857  0.1350
 9093SOL    HW136247   7.409  12.284   1.010  1.2463 -1.1081 -1.3465
 9093SOL    HW236248   7.493  12.331   0.893 -1.3490  4.2139 -1.3714
 9094SOL     OW36249   0.014   1.744   7.944 -0.6923 -0.2208 -0.5101
 9094SOL    HW136250  -0.059   1.806   7.949 -1.6067 -1.2328 -0.8880
 9094SOL    HW236251  -0.012   1.682   7.875  1.2286  0.2875 -1.7768
 9095SOL     OW36252   1.136  12.059   9.608 -0.1272 -0.1461  0.5851
 9095SOL    HW136253   1.107  11.972   9.583 -1.0902  0.0729  0.8892
 9095SOL    HW236254   1.136  12.058   9.704  0.0161  0.1370  0.5910
 9096SOL     OW36255   1.114   3.071   6.790  0.0880  0.2151  0.2010
 9096SOL    HW136256   1.040   3.112   6.745 -1.7491 -2.1695  0.8421
 9096SOL    HW236257   1.120   2.983   6.753  0.9403 -0.5257  1.9643
 9097SOL     OW36258  10.850   6.832   0.012 -0.0829  0.2484 -0.3793
 9097SOL    HW136259  10.846   6.879  -0.071 -0.4146  0.5150 -0.2175
 9097SOL    HW236260  10.768   6.783   0.015  0.3591 -0.5215 -0.6468
 9098SOL     OW36261   7.567   3.118  11.624 -0.3704  0.5521  0.0844
 9098SOL    HW136262   7.537   3.189  11.567  0.0948  0.6618 -0.0275
 9098SOL    HW236263   7.641   3.079  11.578 -0.0737  0.5572  0.5490
 9099SOL     OW36264   1.094   4.776   7.472  0.1069  0.3239  0.1961
 9099SOL    HW136265   1.055   4.696   7.437  1.0474 -0.6221  1.2037
 9099SOL    HW236266   1.176   4.785   7.424  0.0102  0.6857  0.0954
 9100SOL     OW36267  11.973   1.230   8.111  0.0073  0.0284  0.2658
 9100SOL    HW136268  11.992   1.221   8.204 -1.6856 -0.3062  0.6205
 9100SOL    HW236269  11.880   1.206   8.103  0.0888  0.1570 -1.4892
 9101SOL     OW36270  10.217   9.635   7.833 -0.3910  0.7872 -0.0758
 9101SOL    HW136271  10.297   9.683   7.809  0.7410  1.8643  4.7372
 9101SOL    HW236272  10.248   9.547   7.854 -1.1988  0.0907 -1.6366
 9102SOL     OW36273   9.492   6.817   2.605 -0.0537 -0.0285 -0.0092
 9102SOL    HW136274   9.527   6.742   2.558  0.1583 -0.1692  0.3690
 9102SOL    HW236275   9.502   6.795   2.698  0.8423  0.8363  0.1200
 9103SOL     OW36276   3.963   3.463   5.451  0.2766  1.0251 -0.4766
 9103SOL    HW136277   3.868   3.450   5.458  0.2560  1.2849 -0.2435
 9103SOL    HW236278   3.974   3.513   5.370  0.1251  1.8433 -0.0005
 9104SOL     OW36279  10.036   2.791   9.301  0.0717 -0.1945  0.4424
 9104SOL    HW136280  10.043   2.823   9.391 -0.0284  2.9101 -0.5524
 9104SOL    HW236281   9.947   2.814   9.274 -0.0646 -1.5257 -0.3397
 9105SOL     OW36282   0.026   2.794   9.781  0.0199  0.4589 -0.1506
 9105SOL    HW136283   0.096   2.780   9.717  2.6409  1.6645  2.2691
 9105SOL    HW236284  -0.010   2.880   9.759  0.1877  0.4155 -0.6123
 9106SOL     OW36285   3.355  10.151   4.548 -0.1903 -0.0420 -0.2044
 9106SOL    HW136286   3.273  10.124   4.590 -0.1352 -2.5884 -1.5348
 9106SOL    HW236287   3.346  10.246   4.538 -1.7347  0.1504  2.1931
 9107SOL     OW36288   4.413   1.582  11.696 -0.1831  0.6621 -0.1447
 9107SOL    HW136289   4.445   1.647  11.633  1.9945 -0.6814 -0.5433
 9107SOL    HW236290   4.338   1.542  11.653  1.7226 -0.7895 -2.3901
 9108SOL     OW36291   7.912  11.674   9.899 -0.2161  0.1600  0.1491
 9108SOL    HW136292   7.849  11.696   9.968 -1.2871 -1.4713 -0.2382
 9108SOL    HW236293   7.874  11.709   9.819  0.0649  0.3897  0.1164
 9109SOL     OW36294   0.200   8.317   3.229  0.1780 -0.5526 -0.4412
 9109SOL    HW136295   0.195   8.338   3.135  0.6217  0.0887 -0.3236
 9109SOL    HW236296   0.234   8.227   3.231  1.3381 -0.1412 -0.8706
 9110SOL     OW36297   3.055   5.372  11.488  0.3513  0.2597  0.3493
 9110SOL    HW136298   3.031   5.365  11.580 -0.8782  2.0577  0.2087
 9110SOL    HW236299   3.151   5.375  11.489  0.3417  0.7653  1.6076
 9111SOL     OW36300   6.443   1.669   8.454  0.5522  0.0542  0.0510
 9111SOL    HW136301   6.387   1.617   8.397  0.6035  0.8153 -0.7169
 9111SOL    HW236302   6.466   1.609   8.525 -0.6698 -0.4743  0.0295
 9112SOL     OW36303   7.034  12.005   2.272  0.2350 -0.8771  0.2760
 9112SOL    HW136304   7.089  12.078   2.299  0.9869 -1.2275 -0.2429
 9112SOL    HW236305   6.945  12.032   2.292  0.3592  0.7183 -1.0587
 9113SOL     OW36306  10.413   8.701   3.960  0.2913 -0.6147  0.1981
 9113SOL    HW136307  10.395   8.711   3.867 -1.8204  1.9268  0.7558
 9113SOL    HW236308  10.470   8.775   3.981 -0.1537 -0.5093  1.0961
 9114SOL     OW36309  12.055   0.871   1.575 -0.0726 -0.0934 -0.3535
 9114SOL    HW136310  12.117   0.826   1.631 -1.8096  1.0053  2.6860
 9114SOL    HW236311  12.108   0.910   1.506  2.5738  0.4167  1.8203
 9115SOL     OW36312   4.523   6.617   1.636 -0.1522 -0.1251 -0.0714
 9115SOL    HW136313   4.540   6.685   1.572  0.9643  0.7770  1.1419
 9115SOL    HW236314   4.608   6.578   1.654 -0.5816 -0.9510  0.2235
 9116SOL     OW36315   4.100   3.682   6.611  0.1069 -0.3991  0.1443
 9116SOL    HW136316   4.005   3.676   6.605  0.1228 -2.4955  1.1800
 9116SOL    HW236317   4.117   3.729   6.693  0.0254  1.9618 -1.0997
 9117SOL     OW36318  12.371   6.133  11.772  0.3244 -0.3168  0.3104
 9117SOL    HW136319  12.381   6.139  11.867  0.6800 -0.0792  0.2620
 9117SOL    HW236320  12.342   6.221  11.746  2.9757  0.5311 -0.1117
 9118SOL     OW36321   7.841   4.074   9.903  0.0668 -0.0027  0.9000
 9118SOL    HW136322   7.922   4.045   9.946  0.0594  2.0196  2.3785
 9118SOL    HW236323   7.774   4.066   9.970 -0.4296  0.8716  0.5202
 9119SOL     OW36324   4.222  12.208   9.785 -0.1933  0.2163 -0.0504
 9119SOL    HW136325   4.221  12.113   9.771 -2.4167  0.2328 -0.3242
 9119SOL    HW236326   4.235  12.218   9.879 -0.3559 -0.3771  0.0370
 9120SOL     OW36327   7.255   6.726  10.567 -0.3630  0.3118  0.1623
 9120SOL    HW136328   7.183   6.752  10.625 -1.3370  1.4944 -1.5106
 9120SOL    HW236329   7.316   6.800  10.569  1.9564 -1.4481  3.1237
 9121SOL     OW36330   4.729   7.263   5.081  0.0810 -0.0748 -0.5024
 9121SOL    HW136331   4.656   7.293   5.027 -1.9168 -1.6207  1.1861
 9121SOL    HW236332   4.713   7.301   5.168 -0.5908 -2.9473  0.7475
 9122SOL     OW36333   8.117   2.851  11.835 -0.2636 -0.7116  0.3258
 9122SOL    HW136334   8.025   2.864  11.814  0.3217  0.1620 -1.9747
 9122SOL    HW236335   8.132   2.907  11.912 -1.4597 -0.2588  0.2438
 9123SOL     OW36336  12.219   3.136   7.785  0.0686 -0.2402  0.5308
 9123SOL    HW136337  12.264   3.109   7.864  2.0812  1.2663 -0.0334
 9123SOL    HW236338  12.289   3.154   7.722 -1.3397  1.4749 -0.6412
 9124SOL     OW36339   7.225   5.040   8.112  0.6770 -0.2762  0.3302
 9124SOL    HW136340   7.224   5.093   8.033  1.0465 -0.2941  0.3097
 9124SOL    HW236341   7.317   5.015   8.123  0.2426 -2.6707 -0.8459
 9125SOL     OW36342   2.566   1.433   0.537 -0.3380  0.1521  0.0533
 9125SOL    HW136343   2.493   1.423   0.598  0.2832  0.3752  0.8389
 9125SOL    HW236344   2.558   1.357   0.478 -1.0488  0.0402  0.2851
 9126SOL     OW36345   9.738  12.587   1.356 -0.6182 -0.2644 -0.4749
 9126SOL    HW136346   9.743  12.569   1.262 -0.0845 -0.6850 -0.3717
 9126SOL    HW236347   9.704  12.505   1.394  0.4254 -0.5608 -0.1595
 9127SOL     OW36348   8.877   8.624  12.160  0.2056 -0.3255  0.4923
 9127SOL    HW136349   8.866   8.715  12.130  0.0487  0.4178  2.6721
 9127SOL    HW236350   8.911   8.578  12.083 -0.6907  1.3401 -0.9695
 9128SOL     OW36351  12.454   1.742   8.231  0.4922 -0.1649 -0.4568
 9128SOL    HW136352  12.407   1.662   8.255  1.6070 -0.7206 -0.0598
 9128SOL    HW236353  12.404   1.778   8.158  0.1558 -1.3921 -0.8533
 9129SOL     OW36354   1.051   8.584  11.367 -0.4592  0.7255  0.2622
 9129SOL    HW136355   0.984   8.584  11.436 -2.8425 -0.0558 -1.8752
 9129SOL    HW236356   1.046   8.496  11.329  1.0097  1.0307 -0.7167
 9130SOL     OW36357  11.464   8.347   5.811 -0.2389  0.6026 -0.1414
 9130SOL    HW136358  11.387   8.297   5.784 -0.3978  0.0015  1.3085
 9130SOL    HW236359  11.432   8.437   5.816 -0.8758  0.3621  0.4346
 9131SOL     OW36360   8.546   8.065   0.416 -0.4959  0.0977  0.5557
 9131SOL    HW136361   8.611   8.005   0.451 -1.3131 -1.3309 -0.2663
 9131SOL    HW236362   8.470   8.055   0.474 -1.3855 -1.2995 -0.7566
 9132SOL     OW36363   2.004   3.456   9.065 -0.3423  0.2902  0.5923
 9132SOL    HW136364   2.031   3.487   8.978  0.1783 -2.3771 -0.3025
 9132SOL    HW236365   1.910   3.440   9.056 -0.2959  0.0520  0.5219
 9133SOL     OW36366  12.564   8.844   0.283 -0.1862  0.2473 -0.1269
 9133SOL    HW136367  12.469   8.837   0.291 -0.1437 -1.3510 -0.6935
 9133SOL    HW236368  12.594   8.866   0.372 -0.9494 -1.0865  0.4882
 9134SOL     OW36369   9.440   9.386   8.426  0.3080  0.0409 -0.3993
 9134SOL    HW136370   9.506   9.438   8.474 -0.8355  0.9927  0.1973
 9134SOL    HW236371   9.406   9.447   8.360 -1.3635  0.2467  0.5941
 9135SOL     OW36372   4.362  11.294   9.920  0.0967  0.3110  0.3081
 9135SOL    HW136373   4.385  11.373   9.871 -1.2256  0.0773 -0.7401
 9135SOL    HW236374   4.293  11.253   9.868  1.8118 -2.3903 -0.0278
 9136SOL     OW36375   0.126   5.593   0.677  0.1196 -0.1985 -0.2488
 9136SOL    HW136376   0.054   5.654   0.661  0.4305  1.3960  3.4916
 9136SOL    HW236377   0.205   5.647   0.672  0.6060 -0.7930  0.6710
 9137SOL     OW36378  11.565   9.648   5.276  0.4816  0.3028  0.2532
 9137SOL    HW136379  11.587   9.565   5.235 -0.3867 -0.1457  0.6817
 9137SOL    HW236380  11.533   9.625   5.363 -1.9693  0.8552 -0.4286
 9138SOL     OW36381   1.469  10.873   5.364 -0.1948  0.7548 -0.1231
 9138SOL    HW136382   1.430  10.917   5.439  1.5542  0.1897  1.1717
 9138SOL    HW236383   1.499  10.788   5.398  1.0518  0.6766 -1.3170
 9139SOL     OW36384  11.846   5.178   6.248 -0.2690  0.1080 -0.1142
 9139SOL    HW136385  11.851   5.087   6.275  1.1840  0.0803 -0.3610
 9139SOL    HW236386  11.800   5.176   6.164  2.2351 -0.8069 -1.5922
 9140SOL     OW36387   8.342  11.955   3.391 -0.0315 -0.2095 -0.2823
 9140SOL    HW136388   8.315  11.900   3.464 -0.3509 -0.2632 -0.4374
 9140SOL    HW236389   8.299  11.917   3.314 -0.4521  0.3849 -0.3567
 9141SOL     OW36390  12.426  12.061   6.258  0.1749  0.0993 -0.4249
 9141SOL    HW136391  12.364  12.094   6.193 -1.2341 -1.3084  0.1401
 9141SOL    HW236392  12.416  11.966   6.255  0.3786 -0.0335  1.5347
 9142SOL     OW36393  12.175   4.886   7.335  0.2688 -0.6131  0.0267
 9142SOL    HW136394  12.121   4.895   7.414 -2.3841 -1.7386 -1.5284
 9142SOL    HW236395  12.162   4.796   7.307  0.8199 -0.1394 -1.9226
 9143SOL     OW36396  12.426   1.805  10.830  0.0860 -0.4111  0.0258
 9143SOL    HW136397  12.491   1.860  10.873  1.1761 -1.4286 -0.2391
 9143SOL    HW236398  12.344   1.853  10.838  0.6418  0.3584  1.4367
 9144SOL     OW36399   0.638   5.538   7.435 -0.1752  0.1076 -0.4397
 9144SOL    HW136400   0.722   5.583   7.429  0.5176 -1.0636  0.0740
 9144SOL    HW236401   0.659   5.446   7.418 -1.6825  0.0542 -2.4085
 9145SOL     OW36402   7.455   9.161   8.859 -0.1938 -0.4212 -0.2036
 9145SOL    HW136403   7.433   9.215   8.784 -0.7690  0.8204  0.8136
 9145SOL    HW236404   7.454   9.221   8.933  1.5048 -1.3576  0.6567
 9146SOL     OW36405   6.412   1.104   9.523  0.7556  0.4923 -0.4722
 9146SOL    HW136406   6.376   1.070   9.442  1.7050 -1.7436 -0.0119
 9146SOL    HW236407   6.355   1.070   9.592 -0.3851  2.8312 -0.1513
 9147SOL     OW36408  11.474   6.717   4.627  0.2866 -0.6392  0.3468
 9147SOL    HW136409  11.515   6.640   4.587 -0.0332 -1.0983  0.8983
 9147SOL    HW236410  11.381   6.707   4.610  0.2937 -0.0917 -0.0477
 9148SOL     OW36411   4.675  10.118  11.856  0.0138  0.5692  0.2105
 9148SOL    HW136412   4.625  10.090  11.933  1.6388  0.9920  1.4699
 9148SOL    HW236413   4.664  10.213  11.854 -0.6094  0.4916 -0.5302
 9149SOL     OW36414   3.629   7.228  11.862  0.6847 -0.0306  0.3780
 9149SOL    HW136415   3.603   7.293  11.798 -0.2595  0.9159  1.6657
 9149SOL    HW236416   3.703   7.182  11.822  0.9293  1.3646 -0.8295
 9150SOL     OW36417   0.573   2.621   3.954 -0.2333  0.2092 -0.0577
 9150SOL    HW136418   0.549   2.713   3.963  1.4996  0.5076  2.4351
 9150SOL    HW236419   0.490   2.575   3.941 -1.5821  1.7729  2.3324
 9151SOL     OW36420   0.855  12.344   4.447  0.3115 -0.3076 -0.1180
 9151SOL    HW136421   0.826  12.345   4.356  1.9714 -0.2950 -0.6913
 9151SOL    HW236422   0.904  12.425   4.457 -0.2353 -0.0949  0.9323
 9152SOL     OW36423   4.521   3.962   1.606  0.3622 -0.0284 -0.4603
 9152SOL    HW136424   4.477   3.887   1.566 -0.5645  0.0709  0.3469
 9152SOL    HW236425   4.524   3.941   1.700  0.5303  0.7184 -0.2917
 9153SOL     OW36426   2.125   2.495   5.635  0.0053 -0.2434 -0.0643
 9153SOL    HW136427   2.052   2.469   5.579  0.9064 -0.7180 -1.0636
 9153SOL    HW236428   2.183   2.418   5.637  0.7810  0.3303  0.1841
 9154SOL     OW36429   7.835   9.920   8.189  0.8255  0.0044 -0.1008
 9154SOL    HW136430   7.809  10.004   8.153 -0.4785 -1.1445 -1.9971
 9154SOL    HW236431   7.930   9.918   8.179  0.9068  1.3381  0.2294
 9155SOL     OW36432   2.344  12.148  10.191  0.2910 -0.3477  0.0721
 9155SOL    HW136433   2.251  12.156  10.167  0.4938  0.8491 -0.3458
 9155SOL    HW236434   2.352  12.196  10.274  0.5103 -0.6028  0.2022
 9156SOL     OW36435   1.629  10.483   3.259  0.2813 -0.1173  0.1533
 9156SOL    HW136436   1.565  10.505   3.327  0.3721  0.2703  0.1152
 9156SOL    HW236437   1.641  10.564   3.210 -0.1491 -0.5171 -0.6320
 9157SOL     OW36438   3.990   9.027  12.146 -0.1441  0.6147 -0.0214
 9157SOL    HW136439   4.011   8.939  12.180 -0.7829  1.0741  1.6661
 9157SOL    HW236440   4.049   9.085  12.193 -2.8874  1.5789  2.5184
 9158SOL     OW36441   0.080   1.619  12.298 -0.2106 -0.2773  0.1248
 9158SOL    HW136442   0.153   1.585  12.246  1.5624  0.2793  2.1095
 9158SOL    HW236443   0.079   1.713  12.278  0.1505 -0.1482  0.7085
 9159SOL     OW36444  10.979   9.963   5.048  0.4487 -0.8174 -0.5262
 9159SOL    HW136445  10.955   9.952   4.956 -0.4085  1.1597 -0.5840
 9159SOL    HW236446  11.072   9.941   5.051  0.2210 -2.0083 -1.6352
 9160SOL     OW36447   2.693   1.120  10.869  0.2981 -0.1555 -0.2511
 9160SOL    HW136448   2.685   1.100  10.775 -1.0466  0.1092 -0.2100
 9160SOL    HW236449   2.695   1.034  10.911 -0.5834 -0.2752 -0.4294
 9161SOL     OW36450   1.754   4.137   6.652 -0.8368  0.1410 -0.7454
 9161SOL    HW136451   1.811   4.185   6.591 -1.1586  1.3803 -0.0955
 9161SOL    HW236452   1.666   4.166   6.630 -1.2012 -1.3961 -1.4123
 9162SOL     OW36453  11.447  10.834   2.200 -0.7907  0.3476 -0.5555
 9162SOL    HW136454  11.507  10.906   2.218  0.3267 -0.1838 -1.9562
 9162SOL    HW236455  11.490  10.757   2.238 -0.7378  0.0239 -1.2463
 9163SOL     OW36456   2.697   9.008   7.273  0.1625  0.2394 -0.2744
 9163SOL    HW136457   2.683   9.032   7.182  0.1527 -0.9710 -0.6042
 9163SOL    HW236458   2.704   8.912   7.273  4.5883  0.3629  0.3488
 9164SOL     OW36459   0.758  12.301  10.414  0.1884 -0.1436 -0.9172
 9164SOL    HW136460   0.673  12.288  10.373  0.2174 -1.4079 -0.6176
 9164SOL    HW236461   0.818  12.317  10.341 -0.3535  1.1169 -1.1026
 9165SOL     OW36462   8.924   6.714   4.752  0.1533  0.1310 -0.3075
 9165SOL    HW136463   8.878   6.727   4.835  0.1822 -0.8347 -0.1355
 9165SOL    HW236464   8.854   6.697   4.689 -0.0038  2.3419 -0.8263
 9166SOL     OW36465  12.132  10.863   1.881  0.3021  1.0004 -0.1384
 9166SOL    HW136466  12.108  10.885   1.791 -1.6276  0.0446  0.0947
 9166SOL    HW236467  12.065  10.905   1.935  0.3439  0.0042  0.7161
 9167SOL     OW36468  11.917   0.896   0.699  0.0068  0.0360 -0.7187
 9167SOL    HW136469  11.925   0.856   0.786 -0.9327  0.1373 -0.5694
 9167SOL    HW236470  11.850   0.844   0.655 -1.5174  1.6175 -0.3860
 9168SOL     OW36471   1.347  11.680  12.394  0.6665  0.3006  0.0858
 9168SOL    HW136472   1.281  11.674  12.325  1.0989 -1.7022 -0.2058
 9168SOL    HW236473   1.298  11.661  12.474  0.6656 -0.0510  0.0042
 9169SOL     OW36474   2.986  12.113   3.504  0.3418  0.1966  0.1851
 9169SOL    HW136475   2.901  12.157   3.494 -0.3630 -1.0668  0.4727
 9169SOL    HW236476   3.012  12.089   3.415  1.1560  1.8971 -0.0865
 9170SOL     OW36477   1.432  12.488  12.251  0.1737  0.3883 -0.1253
 9170SOL    HW136478   1.420  12.545  12.175  0.8553  2.2329  1.0818
 9170SOL    HW236479   1.477  12.542  12.315 -1.3044 -0.7482  2.0217
 9171SOL     OW36480  12.558   6.293   7.904  0.0371  0.0396  0.4078
 9171SOL    HW136481  12.600   6.379   7.898  0.4726 -0.1288  0.8944
 9171SOL    HW236482  12.554   6.275   7.998 -0.8493 -0.0875  0.3482
 9172SOL     OW36483   5.858  11.966   3.653 -0.0162  0.2067 -0.6787
 9172SOL    HW136484   5.925  11.966   3.584  0.2807 -1.3242 -0.4283
 9172SOL    HW236485   5.889  12.030   3.716  2.6650 -2.2189  0.7161
 9173SOL     OW36486   2.774  11.179   4.606  0.0623  0.3206 -0.4089
 9173SOL    HW136487   2.733  11.236   4.542 -1.7280 -1.2054 -0.7136
 9173SOL    HW236488   2.820  11.113   4.553  0.8841  0.6241 -0.0841
 9174SOL     OW36489   1.152   9.525   2.114 -0.2322  0.1094 -0.3486
 9174SOL    HW136490   1.058   9.506   2.107 -0.0810 -0.5971 -0.5851
 9174SOL    HW236491   1.179   9.481   2.195  0.5713 -2.7402 -2.0177
 9175SOL     OW36492   9.854   8.777   1.766 -0.2925  0.2142 -0.4858
 9175SOL    HW136493   9.880   8.869   1.770 -0.2484  0.1885 -0.1638
 9175SOL    HW236494   9.769   8.774   1.810 -0.3790  0.1309 -0.6588
 9176SOL     OW36495   4.407   4.395   3.562 -0.2639  0.5374  0.2644
 9176SOL    HW136496   4.423   4.439   3.645 -1.8226  1.6893 -0.0118
 9176SOL    HW236497   4.350   4.321   3.585  1.6142 -0.8991  0.5892
 9177SOL     OW36498   7.057   7.372   1.021  0.2181 -0.3706  0.4136
 9177SOL    HW136499   7.105   7.410   0.947 -0.8396 -0.5025 -0.3675
 9177SOL    HW236500   7.085   7.424   1.097  1.2271 -0.1504 -0.0932
 9178SOL     OW36501   7.397   5.849   0.165  0.1060 -0.0039 -0.2152
 9178SOL    HW136502   7.470   5.882   0.114  2.3931  0.6354  3.1274
 9178SOL    HW236503   7.347   5.928   0.189 -1.3275 -0.3621 -1.8571
 9179SOL     OW36504   4.691  12.446   0.279 -0.0108  0.6065 -0.0507
 9179SOL    HW136505   4.730  12.522   0.235 -0.1411  0.6302 -0.1233
 9179SOL    HW236506   4.758  12.420   0.343 -0.3797  1.4142  0.6868
 9180SOL     OW36507   6.718   3.029   7.271  1.0076  0.1517 -0.0873
 9180SOL    HW136508   6.642   2.975   7.250 -0.1737  1.6724  0.0827
 9180SOL    HW236509   6.758   3.049   7.187  1.6934 -1.2450 -0.1301
 9181SOL     OW36510   7.103   8.496   1.788 -0.8280 -0.5229 -0.1750
 9181SOL    HW136511   7.113   8.541   1.872 -0.6708  1.2420 -1.0791
 9181SOL    HW236512   7.165   8.424   1.791 -0.0946  0.1265  0.8276
 9182SOL     OW36513   9.877   3.905   1.580 -0.4348 -0.3444 -0.5892
 9182SOL    HW136514   9.840   3.886   1.493 -0.6518 -0.2391 -0.5204
 9182SOL    HW236515   9.887   4.000   1.581 -1.0206 -0.2834 -0.2653
 9183SOL     OW36516   2.984   0.328  12.112  0.0564  0.2318  0.0102
 9183SOL    HW136517   2.978   0.415  12.150 -0.6283  0.2921 -0.2298
 9183SOL    HW236518   3.036   0.340  12.032 -0.6715  0.5621 -0.4225
 9184SOL     OW36519   8.946   5.362   4.349 -0.4240  0.3953 -0.0716
 9184SOL    HW136520   8.977   5.418   4.278  0.2605 -0.1817 -0.2315
 9184SOL    HW236521   9.004   5.287   4.348 -1.3505 -0.3479  0.1228
 9185SOL     OW36522   1.796  10.282   3.333 -0.5815 -0.6985 -0.4042
 9185SOL    HW136523   1.739  10.209   3.308 -1.4383  0.5591 -2.3637
 9185SOL    HW236524   1.750  10.360   3.303  1.0912  0.5541  0.1045
 9186SOL     OW36525  11.620   1.172   9.071  0.5369  0.1610 -0.1333
 9186SOL    HW136526  11.649   1.122   9.148  2.5228 -2.2790 -2.2522
 9186SOL    HW236527  11.582   1.252   9.107  1.2987 -0.8585  3.3492
 9187SOL     OW36528  11.697  10.381   8.281  0.2157 -0.3914  0.4319
 9187SOL    HW136529  11.620  10.397   8.336 -1.0126  0.0902 -1.3589
 9187SOL    HW236530  11.752  10.458   8.293 -1.1315  0.8054 -0.7247
 9188SOL     OW36531   3.471   3.566   3.735  0.1269  0.2947  0.1921
 9188SOL    HW136532   3.468   3.476   3.703  1.0539 -0.3369  1.7891
 9188SOL    HW236533   3.563   3.580   3.759 -0.0759  1.5390  0.2991
 9189SOL     OW36534   9.042   9.768   6.746 -0.0840  0.0479  0.6145
 9189SOL    HW136535   8.959   9.815   6.750  0.5131  1.1496  0.5735
 9189SOL    HW236536   9.018   9.675   6.742 -1.3141  0.3987 -0.4117
 9190SOL     OW36537   7.332   3.469   4.210 -0.2479  0.6286 -0.1028
 9190SOL    HW136538   7.313   3.417   4.131 -1.7698  1.2494 -0.1748
 9190SOL    HW236539   7.401   3.420   4.254 -1.2111 -1.1758 -0.4765
 9191SOL     OW36540  10.307   5.942   3.549  0.2733 -0.5085 -0.5195
 9191SOL    HW136541  10.371   5.997   3.504 -1.0461  1.1200 -0.4854
 9191SOL    HW236542  10.360   5.879   3.599  1.8981  1.6477  0.6283
 9192SOL     OW36543   9.028  10.643   6.026  0.0710  0.5457  0.1393
 9192SOL    HW136544   8.972  10.692   6.086  0.1459  0.8487 -0.0327
 9192SOL    HW236545   8.985  10.558   6.016 -0.0265  0.5538  0.4904
 9193SOL     OW36546   5.247   5.436   8.443  0.1943 -0.3196  0.4357
 9193SOL    HW136547   5.222   5.395   8.360 -0.9567  1.7051 -0.3022
 9193SOL    HW236548   5.342   5.426   8.447  0.4966  0.7939 -1.9026
 9194SOL     OW36549   2.253   0.435   2.943  0.6047 -0.9079  0.2296
 9194SOL    HW136550   2.184   0.396   2.890  1.4183 -2.4595  0.2383
 9194SOL    HW236551   2.334   0.413   2.896  1.3774 -2.6046  2.1712
 9195SOL     OW36552   2.461   6.646   6.228  0.3950 -0.0681  0.4031
 9195SOL    HW136553   2.496   6.615   6.145  1.3432  1.0147  0.3636
 9195SOL    HW236554   2.460   6.741   6.220 -0.1984  0.0298  1.3637
 9196SOL     OW36555   8.953  10.387   5.855 -0.1623  0.0523 -0.1536
 9196SOL    HW136556   9.040  10.414   5.827  0.3537 -1.3443  0.0711
 9196SOL    HW236557   8.905  10.370   5.774  0.0539 -0.0641 -0.2554
 9197SOL     OW36558  10.979   1.774   6.292  0.5349  0.1535 -0.4884
 9197SOL    HW136559  11.065   1.748   6.325  0.8599 -1.9134 -2.6985
 9197SOL    HW236560  10.927   1.695   6.297 -0.3346  0.6025 -1.9379
 9198SOL     OW36561   6.221  12.343   2.475  0.0669 -0.4593 -0.0436
 9198SOL    HW136562   6.180  12.394   2.544 -0.7789 -0.4413 -0.5512
 9198SOL    HW236563   6.186  12.378   2.393  2.2684  0.6157 -0.6074
 9199SOL     OW36564   0.613  12.440   0.986 -0.0043  0.5619 -0.3512
 9199SOL    HW136565   0.679  12.477   1.044 -0.3871 -0.8147  1.0332
 9199SOL    HW236566   0.610  12.347   1.010 -0.9763  0.1906 -1.8166
 9200SOL     OW36567   7.773   5.626   9.743  0.6276 -0.4572  0.7624
 9200SOL    HW136568   7.781   5.592   9.654 -0.5184  0.1166  0.4235
 9200SOL    HW236569   7.862   5.653   9.767  0.9036 -0.4279 -0.2788
 9201SOL     OW36570   1.024  11.340   4.705  0.0567 -0.3275 -0.0019
 9201SOL    HW136571   0.961  11.328   4.634  1.3462 -0.9844 -1.0951
 9201SOL    HW236572   1.020  11.258   4.754 -0.5065 -0.0525  0.4187
 9202SOL     OW36573   2.493   2.399   2.716 -0.6169 -0.2185 -0.0817
 9202SOL    HW136574   2.444   2.367   2.792 -0.6228 -1.0586 -0.4331
 9202SOL    HW236575   2.524   2.485   2.743 -2.2417  0.3349  0.1705
 9203SOL     OW36576   3.061   5.329   7.250  0.5646 -0.3362  0.0392
 9203SOL    HW136577   3.065   5.318   7.155 -2.5380 -0.5835 -0.1700
 9203SOL    HW236578   3.012   5.411   7.263  1.0223 -0.2551  1.4327
 9204SOL     OW36579   4.542   3.743   1.825 -0.4184  0.5537  0.5773
 9204SOL    HW136580   4.608   3.791   1.875 -0.3989 -1.0878  2.2616
 9204SOL    HW236581   4.580   3.733   1.738  1.2992  0.2035  1.3237
 9205SOL     OW36582   2.276   9.016   4.824 -0.1408 -0.1657  0.6910
 9205SOL    HW136583   2.356   8.995   4.872 -0.7034 -0.0310  1.7297
 9205SOL    HW236584   2.248   8.932   4.787  0.8160 -0.0952 -0.2396
 9206SOL     OW36585   6.289   5.116  11.102  0.0348  0.6131 -0.0137
 9206SOL    HW136586   6.336   5.199  11.093 -1.3741  1.5624  0.9324
 9206SOL    HW236587   6.206   5.131  11.056 -0.9241  0.3346  1.5668
 9207SOL     OW36588  12.190   5.821   7.107 -0.1887 -0.2209  0.1909
 9207SOL    HW136589  12.122   5.795   7.045 -1.2802  0.7015  0.9491
 9207SOL    HW236590  12.212   5.911   7.083  1.6366 -0.8718 -0.7599
 9208SOL     OW36591   2.066   3.104   0.605  0.4897 -0.2229  0.4811
 9208SOL    HW136592   2.072   3.178   0.545 -0.3855 -0.5341 -0.0052
 9208SOL    HW236593   2.113   3.033   0.560  0.6234 -0.1953  0.5770
 9209SOL     OW36594   9.302   1.208   2.023  0.0452 -0.0559  0.4361
 9209SOL    HW136595   9.295   1.281   1.962  0.8650  0.0710  0.4882
 9209SOL    HW236596   9.226   1.153   2.003  0.6826 -0.4099 -1.2154
 9210SOL     OW36597   9.107   2.402   4.788 -0.5303  0.0134  0.2788
 9210SOL    HW136598   9.171   2.380   4.721 -1.2591 -3.5206  0.5641
 9210SOL    HW236599   9.026   2.360   4.759 -2.2757  2.6528  0.9355
 9211SOL     OW36600   5.744  11.941   9.117 -0.1963 -0.3776 -0.1858
 9211SOL    HW136601   5.732  11.871   9.181  1.3056 -0.8320 -0.3490
 9211SOL    HW236602   5.836  11.934   9.092 -0.6706  0.0088 -2.1520
 9212SOL     OW36603   2.345   0.476   9.973 -0.2216 -0.1808 -0.4364
 9212SOL    HW136604   2.348   0.531  10.052  0.9589 -2.4106  1.1901
 9212SOL    HW236605   2.252   0.471   9.951 -0.6859 -0.1718  1.3465
 9213SOL     OW36606   0.648   8.761   0.547 -0.4696  0.3109  0.7090
 9213SOL    HW136607   0.599   8.704   0.487 -0.7405  0.6664  0.5896
 9213SOL    HW236608   0.732   8.715   0.560 -0.8606 -0.3463  0.9887
 9214SOL     OW36609   7.389   8.506   2.638  0.0369  0.5367 -0.0294
 9214SOL    HW136610   7.421   8.441   2.701  1.8959  1.1507 -0.2860
 9214SOL    HW236611   7.333   8.564   2.691 -2.1057 -1.4908  0.1012
 9215SOL     OW36612   9.260   8.520  10.827 -0.1183  0.0893  1.3655
 9215SOL    HW136613   9.249   8.491  10.736 -0.4051 -1.2332  1.7997
 9215SOL    HW236614   9.206   8.459  10.878 -0.6335  1.3329  2.3515
 9216SOL     OW36615   0.167   8.446   2.960 -0.0199  0.5240  0.3271
 9216SOL    HW136616   0.261   8.463   2.956  0.1663 -0.6370 -1.2255
 9216SOL    HW236617   0.127   8.521   2.917  0.5397 -0.8413 -2.8758
 9217SOL     OW36618   5.625   5.030  12.377 -0.2348  0.6714 -0.1819
 9217SOL    HW136619   5.541   5.031  12.332 -1.0363  2.4879  1.2607
 9217SOL    HW236620   5.688   5.056  12.310 -1.2632  2.3392 -0.5596
 9218SOL     OW36621   3.723   4.406   1.267 -0.2577 -0.1788  0.3130
 9218SOL    HW136622   3.675   4.446   1.195 -0.2011  0.8077  0.8039
 9218SOL    HW236623   3.812   4.393   1.233 -1.1015 -3.0912 -0.9898
 9219SOL     OW36624  10.306  10.523   2.450  0.1395  0.8426 -0.7044
 9219SOL    HW136625  10.351  10.606   2.464  0.5278  0.7059 -1.1201
 9219SOL    HW236626  10.344  10.489   2.369 -0.8183  0.7931 -1.1371
 9220SOL     OW36627   0.845   9.892   1.963  0.3421  0.4334  0.4161
 9220SOL    HW136628   0.874   9.811   1.921  0.4335  1.0272 -0.7327
 9220SOL    HW236629   0.879   9.887   2.052  0.7958 -0.5476  0.2028
 9221SOL     OW36630   1.816  12.306   7.829 -0.1950 -0.1078 -0.3798
 9221SOL    HW136631   1.909  12.289   7.844 -0.2413 -1.2824 -1.2586
 9221SOL    HW236632   1.814  12.384   7.774  0.2285  0.3286  0.2068
 9222SOL     OW36633   3.670   6.715   2.915 -1.0459 -0.4770  0.4854
 9222SOL    HW136634   3.608   6.701   2.843 -1.0190 -3.4001  0.9122
 9222SOL    HW236635   3.744   6.761   2.874 -1.2557 -1.5919 -1.2647
 9223SOL     OW36636   4.889   9.632   0.274  0.1876 -0.7109  0.8129
 9223SOL    HW136637   4.946   9.672   0.208 -0.6484  0.9151  1.0198
 9223SOL    HW236638   4.830   9.576   0.223  1.2058 -1.5159  0.4842
 9224SOL     OW36639   2.054   2.813   0.085  0.1033  0.0409 -0.0557
 9224SOL    HW136640   1.976   2.805   0.138 -1.2009  0.1993 -1.8466
 9224SOL    HW236641   2.101   2.731   0.097 -1.0955 -0.6560 -0.0638
 9225SOL     OW36642   0.935   3.373   1.903 -0.0934 -0.2241 -0.2905
 9225SOL    HW136643   0.879   3.433   1.854 -1.0652 -1.1049 -0.2877
 9225SOL    HW236644   0.892   3.364   1.988  0.3845 -0.4344 -0.0642
 9226SOL     OW36645   6.441   7.065   8.097  0.1119 -0.0540  0.2674
 9226SOL    HW136646   6.482   7.084   8.013  0.3798  0.9859  0.6144
 9226SOL    HW236647   6.353   7.034   8.075 -0.2344  1.3265 -0.3558
 9227SOL     OW36648  11.513  10.777  12.494 -0.4379 -0.1761  0.2253
 9227SOL    HW136649  11.570  10.761  12.570  0.2529  0.7263 -0.0836
 9227SOL    HW236650  11.573  10.794  12.422 -1.0140  3.0253  0.3584
 9228SOL     OW36651   7.542   4.493   1.366  0.6806 -0.0698 -0.2548
 9228SOL    HW136652   7.520   4.527   1.453  0.6473 -0.3133 -0.1672
 9228SOL    HW236653   7.465   4.513   1.312  0.9398  0.6272 -0.3878
 9229SOL     OW36654   2.728  12.369  10.710  0.3169  0.6509  0.1051
 9229SOL    HW136655   2.678  12.296  10.748  0.3459  0.4751 -0.1844
 9229SOL    HW236656   2.737  12.432  10.781  2.3240 -0.6345  1.1023
 9230SOL     OW36657   6.513  11.317   5.510 -0.2216 -0.3357  0.0108
 9230SOL    HW136658   6.529  11.408   5.533  1.6536 -1.0439  1.8504
 9230SOL    HW236659   6.575  11.298   5.440 -0.3858 -0.2985 -0.1464
 9231SOL     OW36660   9.718   5.669   0.977 -0.0176 -0.3007 -0.1216
 9231SOL    HW136661   9.759   5.702   1.057 -0.0569  2.6546 -1.1832
 9231SOL    HW236662   9.626   5.655   1.001 -0.0822  0.7921  0.3225
 9232SOL     OW36663   4.892   8.548  12.447  0.5809  0.1405  0.5975
 9232SOL    HW136664   4.906   8.643  12.444  0.7652  0.0866 -0.2694
 9232SOL    HW236665   4.802   8.538  12.478 -0.0004  0.6433 -0.8401
 9233SOL     OW36666  11.236   4.274   5.208  0.4289 -0.8619 -0.0016
 9233SOL    HW136667  11.232   4.361   5.168  1.6308 -0.6116  0.4051
 9233SOL    HW236668  11.248   4.290   5.302  1.9909 -1.4583 -0.0762
 9234SOL     OW36669  10.555   7.974   4.855  0.2559 -0.0302  0.2778
 9234SOL    HW136670  10.479   8.024   4.826 -0.3235 -1.0941 -0.0735
 9234SOL    HW236671  10.628   8.036   4.849 -0.4214  0.7356 -0.2470
 9235SOL     OW36672   2.808   4.489   1.251 -0.2538 -0.0610 -0.1723
 9235SOL    HW136673   2.823   4.407   1.205 -1.2560 -1.0456  1.1661
 9235SOL    HW236674   2.716   4.510   1.232  0.0431  0.8446 -0.6411
 9236SOL     OW36675   0.003   7.479  11.949 -0.4873  0.2224 -0.5891
 9236SOL    HW136676   0.017   7.493  11.856  1.6637 -1.4927 -0.6060
 9236SOL    HW236677   0.087   7.500  11.989 -0.3848 -2.1203  0.5569
 9237SOL     OW36678   0.021   1.379   1.667  0.6326 -0.6924 -0.5619
 9237SOL    HW136679  -0.009   1.346   1.582 -1.1718  1.1912 -0.7181
 9237SOL    HW236680   0.095   1.436   1.645 -0.9140  1.1929 -1.1441
 9238SOL     OW36681   8.312   7.769  12.053 -0.0409 -0.8649  0.0027
 9238SOL    HW136682   8.359   7.781  12.135  0.0033 -0.5461 -0.0686
 9238SOL    HW236683   8.256   7.846  12.046 -0.7573 -1.3640  0.2072
 9239SOL     OW36684   4.402   5.533   5.466 -0.5400  0.0511  0.0264
 9239SOL    HW136685   4.352   5.588   5.406  1.9063  1.0287 -1.2408
 9239SOL    HW236686   4.361   5.447   5.459  1.2234 -0.7032 -5.3656
 9240SOL     OW36687   3.033   1.193   3.934  0.0006 -0.1381  0.2130
 9240SOL    HW136688   3.023   1.123   3.870 -1.1202 -1.3459  1.6217
 9240SOL    HW236689   3.127   1.204   3.942  0.2424 -1.9390  0.3745
 9241SOL     OW36690   4.362   2.945   3.843 -0.4328 -0.0190  0.1212
 9241SOL    HW136691   4.300   2.958   3.771  1.3098 -1.5878 -1.7914
 9241SOL    HW236692   4.311   2.905   3.913 -1.9965  0.6975 -0.5804
 9242SOL     OW36693   0.769  11.289   7.739  0.1883 -0.0701  0.0607
 9242SOL    HW136694   0.731  11.376   7.745  0.0815 -0.1196  0.0903
 9242SOL    HW236695   0.741  11.245   7.820 -0.1140 -0.2764 -0.1552
 9243SOL     OW36696   1.344   8.941   6.569 -0.1150 -0.9480 -0.1773
 9243SOL    HW136697   1.378   8.880   6.634  0.0762 -1.0585 -0.3810
 9243SOL    HW236698   1.333   9.023   6.618  1.8184 -0.4900 -0.4221
 9244SOL     OW36699   7.844   3.308  11.447 -0.1309 -0.2933  0.7904
 9244SOL    HW136700   7.826   3.388  11.496  2.5298  0.8997  0.0139
 9244SOL    HW236701   7.865   3.339  11.359  1.7156 -1.7227  0.6735
 9245SOL     OW36702   7.478  10.625   2.606  0.1927 -0.3412  0.6597
 9245SOL    HW136703   7.574  10.621   2.597  0.0885 -0.9038 -0.3116
 9245SOL    HW236704   7.462  10.607   2.698  1.0369  0.0257  0.8920
 9246SOL     OW36705   2.512  11.898  12.106 -0.0055 -0.6626 -0.0065
 9246SOL    HW136706   2.473  11.985  12.102 -1.4894 -1.3174 -0.2820
 9246SOL    HW236707   2.477  11.852  12.030  0.8866 -1.4665  0.0460
 9247SOL     OW36708   4.999  11.744   6.214 -0.7154 -0.4510 -0.0849
 9247SOL    HW136709   5.083  11.708   6.242 -0.6552  0.9853  1.8157
 9247SOL    HW236710   4.983  11.816   6.275 -2.0260  1.0849 -2.1333
 9248SOL     OW36711  10.691   2.858   0.027  0.1498  0.7867 -0.0495
 9248SOL    HW136712  10.646   2.816   0.100  0.1424  0.2058 -0.3838
 9248SOL    HW236713  10.689   2.952   0.048  1.5873  0.5204  1.5285
 9249SOL     OW36714   6.236  10.494  12.071 -0.0911 -0.3898  0.1417
 9249SOL    HW136715   6.278  10.542  12.000  0.6589  0.1627  0.9403
 9249SOL    HW236716   6.307  10.473  12.131 -0.9643  0.7713  1.6518
 9250SOL     OW36717   0.545   8.187  10.226 -0.5820 -0.0946 -0.2025
 9250SOL    HW136718   0.625   8.205  10.276 -1.0134  0.9968  0.1129
 9250SOL    HW236719   0.529   8.093  10.239  0.5653 -0.2973 -0.1584
 9251SOL     OW36720   4.294  10.763   0.495  0.1298 -0.2143  0.6252
 9251SOL    HW136721   4.332  10.686   0.452  0.2442  0.6158 -0.8311
 9251SOL    HW236722   4.217  10.730   0.541 -0.6256 -1.0014 -1.1148
 9252SOL     OW36723   4.723   5.585   3.996  0.1500  0.2953  0.1123
 9252SOL    HW136724   4.687   5.668   4.026  0.6933  1.0818 -1.3009
 9252SOL    HW236725   4.790   5.564   4.061  2.1489  2.5771 -1.0220
 9253SOL     OW36726   6.800   9.492   9.039 -0.0898 -0.2797  0.4011
 9253SOL    HW136727   6.873   9.504   8.978 -0.3605 -0.9193 -0.0612
 9253SOL    HW236728   6.723   9.521   8.990 -0.4408 -1.6767  0.0758
 9254SOL     OW36729  11.934   3.506   3.441  0.3370  0.2144  0.2622
 9254SOL    HW136730  11.929   3.589   3.487  0.9167  1.8086 -2.3474
 9254SOL    HW236731  11.842   3.480   3.430 -0.2068  2.7328 -2.4396
 9255SOL     OW36732   8.550   8.411   0.989 -0.5384 -0.2093 -0.0253
 9255SOL    HW136733   8.557   8.502   0.961 -1.2760  0.0231  0.5047
 9255SOL    HW236734   8.567   8.414   1.083  0.4888 -0.7749 -0.1847
 9256SOL     OW36735   8.775   5.257   2.470  0.4341  0.3838  0.4255
 9256SOL    HW136736   8.831   5.328   2.503  1.4162  0.1970 -0.7844
 9256SOL    HW236737   8.836   5.188   2.443 -0.4894 -0.7545  1.1486
 9257SOL     OW36738  10.149   7.024   3.099 -0.3196 -0.3612  0.1049
 9257SOL    HW136739  10.122   6.965   3.169  0.2032  0.5323  1.0708
 9257SOL    HW236740  10.189   7.098   3.143 -0.3487  0.4158 -1.1254
 9258SOL     OW36741   5.139   2.684   0.311  0.0997  0.1994  0.0273
 9258SOL    HW136742   5.144   2.632   0.231  0.9521 -0.4838  0.5006
 9258SOL    HW236743   5.094   2.627   0.374 -2.1552  1.3636 -0.4023
 9259SOL     OW36744   5.929   7.501   6.731 -0.3984  0.2928 -0.3171
 9259SOL    HW136745   5.913   7.550   6.812  0.4057 -1.3414  0.8651
 9259SOL    HW236746   5.917   7.410   6.755 -0.7334 -0.2102 -2.2128
 9260SOL     OW36747  12.501  11.022   7.390 -0.4698 -0.2689  0.2898
 9260SOL    HW136748  12.536  11.048   7.475 -0.0167  0.9376 -0.2366
 9260SOL    HW236749  12.419  10.978   7.409 -0.6435  0.4751  1.3206
 9261SOL     OW36750   1.467  12.128  11.946 -0.1700  0.6771  0.5064
 9261SOL    HW136751   1.448  12.036  11.934 -1.2817  0.7745  1.3146
 9261SOL    HW236752   1.562  12.132  11.962 -0.5844 -0.7917  4.1802
 9262SOL     OW36753  11.983   7.682   8.427 -0.0433  0.4672  0.7917
 9262SOL    HW136754  12.004   7.593   8.456  0.5926  0.4459  0.2750
 9262SOL    HW236755  11.896   7.699   8.463 -1.0788 -1.1290 -0.8194
 9263SOL     OW36756   0.375   0.727   8.437 -0.7224  0.7449 -0.5624
 9263SOL    HW136757   0.361   0.684   8.352 -0.8899  1.5445 -0.9438
 9263SOL    HW236758   0.323   0.807   8.433  0.9571  1.8916 -0.5377
 9264SOL     OW36759   1.717  10.599   8.893 -0.4560  0.6719 -0.0792
 9264SOL    HW136760   1.750  10.567   8.809 -1.4883 -0.6284 -0.0084
 9264SOL    HW236761   1.716  10.694   8.883 -0.4860  0.5440 -1.5068
 9265SOL     OW36762   3.434   1.906   9.383  0.0998 -0.1373 -0.0818
 9265SOL    HW136763   3.443   1.999   9.404  1.9366 -0.7718  2.3771
 9265SOL    HW236764   3.457   1.900   9.290  2.8293  1.5577  0.3707
 9266SOL     OW36765  12.174  10.218   2.611 -0.4448  0.2289  0.3094
 9266SOL    HW136766  12.266  10.202   2.591 -0.9524 -1.5404 -0.7901
 9266SOL    HW236767  12.171  10.310   2.639  1.7056  0.1826  0.8386
 9267SOL     OW36768   7.289   5.668   2.596 -0.7088  0.5045 -0.3954
 9267SOL    HW136769   7.271   5.748   2.646  0.1834  0.5514 -0.1198
 9267SOL    HW236770   7.214   5.658   2.538 -0.9649  1.3898 -0.2344
 9268SOL     OW36771   4.507  11.112  10.076  0.1734  0.1009 -0.6038
 9268SOL    HW136772   4.594  11.146  10.096 -0.4106  0.5474  1.3908
 9268SOL    HW236773   4.476  11.166  10.004  1.0442  0.7912 -0.4724
 9269SOL     OW36774  11.951   4.550   5.929 -0.0368 -0.1096  0.6615
 9269SOL    HW136775  11.887   4.585   5.868 -0.8988 -0.5911  1.2679
 9269SOL    HW236776  12.022   4.518   5.874 -0.9561 -0.8548 -0.1196
 9270SOL     OW36777   3.531  11.188   8.649  0.0878 -0.3448  0.0146
 9270SOL    HW136778   3.503  11.233   8.569  1.5314 -0.3261 -0.5111
 9270SOL    HW236779   3.610  11.140   8.623 -0.5888 -2.0310  0.9294
 9271SOL     OW36780  11.091   0.120   6.575  0.3129 -0.7556  0.1473
 9271SOL    HW136781  11.108   0.068   6.497 -0.9401  0.4113 -0.9609
 9271SOL    HW236782  11.148   0.196   6.566 -0.8502  0.0786 -0.3818
 9272SOL     OW36783   8.851   8.417   5.735 -0.4616  0.0810  0.4637
 9272SOL    HW136784   8.765   8.380   5.754 -0.4387  1.0404  2.9078
 9272SOL    HW236785   8.897   8.414   5.819  1.6742  0.1983 -0.6250
 9273SOL     OW36786   2.545   2.099   8.229 -0.6519 -0.6450 -0.0013
 9273SOL    HW136787   2.590   2.034   8.282 -3.3222 -1.2467  1.7731
 9273SOL    HW236788   2.508   2.049   8.156 -0.0807 -0.5107 -0.3867
 9274SOL     OW36789   9.517   5.645   2.526  0.0635  0.6289 -0.3785
 9274SOL    HW136790   9.536   5.725   2.575 -0.8522  0.2602  0.6133
 9274SOL    HW236791   9.445   5.669   2.468 -0.6826  0.3613  0.4155
 9275SOL     OW36792   6.140   3.307   3.792  0.4119  0.0517  0.3163
 9275SOL    HW136793   6.070   3.243   3.779  0.4438  0.2576 -1.0590
 9275SOL    HW236794   6.219   3.263   3.760  0.5801  0.4814  0.1409
 9276SOL     OW36795  12.052   1.967   0.084 -0.1528 -0.4732  0.5105
 9276SOL    HW136796  12.002   1.901   0.131 -0.0240 -0.6423  0.4085
 9276SOL    HW236797  11.999   1.989   0.008 -0.3258 -0.2574  0.6933
 9277SOL     OW36798  10.613  10.984   2.588  0.1318  0.6178 -0.8741
 9277SOL    HW136799  10.660  10.910   2.548 -0.9726  0.4871 -2.0066
 9277SOL    HW236800  10.552  11.012   2.520 -0.5494  1.5826  0.1113
 9278SOL     OW36801  10.053   2.740   2.288  0.5505  0.2196 -0.1619
 9278SOL    HW136802  10.065   2.774   2.199  1.1099  1.6859  0.4371
 9278SOL    HW236803  10.137   2.756   2.331  0.5448 -1.1899  0.4169
 9279SOL     OW36804   8.106   3.362   0.100 -0.5222 -0.3671 -0.1289
 9279SOL    HW136805   8.091   3.272   0.071  1.1406 -0.9282  0.6402
 9279SOL    HW236806   8.096   3.415   0.020  0.0963 -1.4389 -0.9476
 9280SOL     OW36807  12.498  10.353   9.005  0.3480  0.7567 -0.3654
 9280SOL    HW136808  12.583  10.389   9.034 -0.3741  0.9691  1.6592
 9280SOL    HW236809  12.504  10.260   9.024  0.2113  0.7367 -0.4198
 9281SOL     OW36810   2.272   6.667   4.445  0.3931  0.4263  0.0159
 9281SOL    HW136811   2.258   6.745   4.392  0.4229  1.0050  0.8500
 9281SOL    HW236812   2.367   6.651   4.440  0.3035  0.0328 -0.6980
 9282SOL     OW36813  11.296   2.310   5.787  0.6199  0.1198 -0.1992
 9282SOL    HW136814  11.263   2.291   5.699 -0.6970  0.2094  0.2458
 9282SOL    HW236815  11.294   2.405   5.793  0.5570  0.1076 -0.0262
 9283SOL     OW36816  11.983   6.476  11.679  0.3067 -0.1702  0.2638
 9283SOL    HW136817  12.030   6.397  11.705  0.6979  0.1741  0.6155
 9283SOL    HW236818  11.995   6.480  11.584 -0.6771 -1.1439  0.0758
 9284SOL     OW36819   4.864   3.816   4.280 -0.2652 -0.8387  0.0297
 9284SOL    HW136820   4.887   3.906   4.258 -2.5212  0.0318  0.9914
 9284SOL    HW236821   4.948   3.769   4.277  0.9502  1.2331 -0.5915
 9285SOL     OW36822  11.566   3.688   1.119 -0.3654  0.2707 -0.2277
 9285SOL    HW136823  11.587   3.763   1.176 -0.2840 -0.1417  0.2940
 9285SOL    HW236824  11.479   3.660   1.148  0.2565 -0.8249  0.6724
 9286SOL     OW36825  10.981   6.488   2.750 -0.4499  0.1632 -0.6181
 9286SOL    HW136826  10.888   6.500   2.770 -0.8582  2.3539 -3.2027
 9286SOL    HW236827  10.982   6.449   2.663  1.1321 -1.4679  0.0516
 9287SOL     OW36828   5.925   1.850   1.453  0.0293  0.2018  0.7936
 9287SOL    HW136829   5.955   1.822   1.539  1.6685  3.1251  1.3012
 9287SOL    HW236830   5.997   1.826   1.394  0.0953  0.5942  0.7140
 9288SOL     OW36831  10.160  11.023   6.223  0.5975 -0.0868 -0.3292
 9288SOL    HW136832  10.093  10.956   6.214 -0.7762  1.2563 -0.5793
 9288SOL    HW236833  10.144  11.083   6.150  1.9019  0.4061 -0.2282
 9289SOL     OW36834  10.530   5.975  10.910 -0.3014 -0.3944  0.2109
 9289SOL    HW136835  10.461   6.028  10.951 -0.1954 -1.9785  2.5809
 9289SOL    HW236836  10.484   5.920  10.847 -1.3143 -1.5256  1.8585
 9290SOL     OW36837   7.079   2.227  10.705 -0.1797  0.1288 -0.6233
 9290SOL    HW136838   7.143   2.182  10.649  2.3902  2.4735  0.1763
 9290SOL    HW236839   7.053   2.303  10.653 -0.3960  0.5025  0.0258
 9291SOL     OW36840  10.994   8.102  10.160  0.2784 -0.0274  0.0890
 9291SOL    HW136841  10.944   8.183  10.175  0.3127  0.2949 -1.3561
 9291SOL    HW236842  10.962   8.070  10.076  1.9030 -0.2627 -0.4637
 9292SOL     OW36843   3.356  11.293   7.965  0.4206 -0.2510  0.3625
 9292SOL    HW136844   3.438  11.319   8.005 -0.3478  2.1159  0.5620
 9292SOL    HW236845   3.320  11.374   7.928  0.2393 -1.9144 -3.6389
 9293SOL     OW36846   9.708   5.150   2.299 -0.0682  0.4063 -0.5273
 9293SOL    HW136847   9.694   5.095   2.222  0.0637  0.2381 -0.4295
 9293SOL    HW236848   9.803   5.160   2.305 -0.1366  1.8437 -1.3979
 9294SOL     OW36849   1.405   8.932   5.998  0.5825  0.0239  0.1778
 9294SOL    HW136850   1.469   8.934   5.927 -0.8326  0.0537 -1.1415
 9294SOL    HW236851   1.385   9.024   6.015 -1.2347 -0.0152 -1.4521
 9295SOL     OW36852   2.895   9.850   4.460 -0.1045 -0.4984  0.1729
 9295SOL    HW136853   2.959   9.920   4.447 -0.2813  0.4141  3.3631
 9295SOL    HW236854   2.948   9.773   4.482 -0.0193 -0.6755 -0.6142
 9296SOL     OW36855   8.336  11.295   2.404  0.7929 -0.1734 -0.1965
 9296SOL    HW136856   8.385  11.361   2.355 -0.3175 -0.2028 -1.4236
 9296SOL    HW236857   8.306  11.341   2.483 -0.0975  0.8756 -1.1051
 9297SOL     OW36858   5.421   1.119   5.013  0.1044  0.8132 -0.4113
 9297SOL    HW136859   5.337   1.136   5.056  0.7016  1.2769  0.5990
 9297SOL    HW236860   5.487   1.142   5.078  1.0470  1.4055 -1.5305
 9298SOL     OW36861   2.377   9.698   6.177  0.7561  0.1866 -0.3507
 9298SOL    HW136862   2.446   9.761   6.201  1.2984 -0.9260  1.2415
 9298SOL    HW236863   2.408   9.658   6.097  1.5052  0.3765 -0.1646
 9299SOL     OW36864   4.917  12.026   8.523  0.6525  0.1708 -0.0521
 9299SOL    HW136865   4.863  12.031   8.602  0.6406 -0.6462  0.0036
 9299SOL    HW236866   4.907  11.935   8.493  0.3457  0.5711 -1.2177
 9300SOL     OW36867  11.880   4.987   1.515 -0.1877 -0.1104  0.6674
 9300SOL    HW136868  11.907   5.031   1.595 -0.8143 -0.2693  0.9666
 9300SOL    HW236869  11.951   4.924   1.497 -0.2795 -0.4187  1.3629
 9301SOL     OW36870   8.241   4.811   6.256  0.2573 -0.5984 -0.4168
 9301SOL    HW136871   8.217   4.903   6.247  1.2075 -0.4018 -1.0785
 9301SOL    HW236872   8.174   4.774   6.315 -0.6172  0.3097 -0.8113
 9302SOL     OW36873   9.861   8.503   3.787 -0.0338 -0.3528 -0.1725
 9302SOL    HW136874   9.858   8.461   3.701  1.7274 -1.4020  0.2304
 9302SOL    HW236875   9.936   8.563   3.782 -0.0673 -0.2396  0.5470
 9303SOL     OW36876   1.031   3.935  12.129 -0.5935 -0.1743  0.0919
 9303SOL    HW136877   1.050   3.950  12.036  0.0197 -0.3250  0.1907
 9303SOL    HW236878   1.040   3.841  12.141 -0.0223 -0.0771  0.4456
 9304SOL     OW36879   4.804   3.153   2.613 -0.3183  0.1227 -0.3642
 9304SOL    HW136880   4.844   3.195   2.689 -0.5675 -1.1194  0.4933
 9304SOL    HW236881   4.870   3.090   2.584 -0.9045 -0.6294 -0.0911
 9305SOL     OW36882   7.132   9.481   5.529  0.0631  0.2311  0.6682
 9305SOL    HW136883   7.194   9.552   5.544 -0.4205  0.3085  2.5544
 9305SOL    HW236884   7.103   9.492   5.439  3.0761 -0.0559 -0.4365
 9306SOL     OW36885   1.154   6.896   2.420  0.3501  0.0685  0.0399
 9306SOL    HW136886   1.203   6.967   2.463  0.2273  1.3562 -1.8276
 9306SOL    HW236887   1.187   6.816   2.461  1.6360  1.1040  1.1241
 9307SOL     OW36888   6.495  10.353   3.828 -0.7210 -0.0729 -0.1901
 9307SOL    HW136889   6.563  10.295   3.793  0.9105  0.8251  1.3231
 9307SOL    HW236890   6.414  10.322   3.788  0.0822 -3.2365  0.3613
 9308SOL     OW36891   9.625   0.226   4.898 -0.0149  0.1630 -0.2054
 9308SOL    HW136892   9.624   0.159   4.966  0.0509  1.1047  0.7580
 9308SOL    HW236893   9.620   0.309   4.946 -1.6606  0.8157 -1.4222
 9309SOL     OW36894   5.793  11.101   2.754  0.3329  0.5242  0.3733
 9309SOL    HW136895   5.752  11.053   2.682  0.0937  1.3854 -0.0806
 9309SOL    HW236896   5.852  11.038   2.795 -0.1425 -0.2149 -0.0681
 9310SOL     OW36897  10.677   2.055   6.842  0.4636  0.2156  0.4525
 9310SOL    HW136898  10.653   1.972   6.883  1.5703 -0.8940 -1.0155
 9310SOL    HW236899  10.700   2.031   6.752  1.9149  1.9435  0.3062
 9311SOL     OW36900  11.523   6.454   7.198 -0.5894  0.1852 -0.6006
 9311SOL    HW136901  11.570   6.511   7.259  1.2520 -0.3066 -1.5134
 9311SOL    HW236902  11.591   6.414   7.144 -1.9293 -1.8155 -0.9208
 9312SOL     OW36903   7.760   5.035   7.136 -0.0786  0.3033 -0.7136
 9312SOL    HW136904   7.757   5.129   7.116 -0.9207  0.6241  0.7762
 9312SOL    HW236905   7.808   5.030   7.219 -2.8141 -0.2228  0.9357
 9313SOL     OW36906   3.943  10.732   7.368 -0.4334  0.2545  0.3372
 9313SOL    HW136907   3.934  10.662   7.432  3.1266 -1.8080 -1.1497
 9313SOL    HW236908   4.036  10.755   7.369 -0.2822  0.5076 -3.5852
 9314SOL     OW36909   8.264   7.022   5.044  0.0096 -0.1665 -0.7975
 9314SOL    HW136910   8.205   6.971   4.989 -1.0663  0.2560 -0.0620
 9314SOL    HW236911   8.210   7.094   5.077 -0.4434 -2.2283  3.6031
 9315SOL     OW36912   8.679   3.688   8.305  0.1553 -0.4410  0.4079
 9315SOL    HW136913   8.692   3.780   8.284  0.2620 -0.6162 -0.2956
 9315SOL    HW236914   8.622   3.689   8.383 -0.3144  0.2046  0.0644
 9316SOL     OW36915   0.093   7.879  11.457  0.1736 -0.0729 -0.1513
 9316SOL    HW136916   0.054   7.963  11.482  1.9803  0.6140  0.5972
 9316SOL    HW236917   0.053   7.857  11.373  0.5690  2.2119 -1.0091
 9317SOL     OW36918   4.827   3.667   9.265 -0.3919 -0.0105 -0.0440
 9317SOL    HW136919   4.914   3.637   9.292  0.1950  0.6467 -1.0947
 9317SOL    HW236920   4.835   3.679   9.170 -1.9837 -1.0638 -0.3373
 9318SOL     OW36921   0.049   6.160   8.535  0.4638 -0.1971 -0.4342
 9318SOL    HW136922   0.064   6.249   8.566  0.6641  0.2831 -1.8417
 9318SOL    HW236923   0.107   6.151   8.460 -1.4386 -0.5898 -1.9384
 9319SOL     OW36924   2.952   4.033  11.448  0.3618  0.7394 -0.6496
 9319SOL    HW136925   2.993   4.035  11.361 -0.6650  0.2049 -1.1590
 9319SOL    HW236926   2.935   4.125  11.468 -1.3235  0.7610 -1.9711
 9320SOL     OW36927  12.018   9.789   4.961 -0.3605  0.0826 -0.3315
 9320SOL    HW136928  11.948   9.758   5.019 -1.0021 -1.4194 -1.8242
 9320SOL    HW236929  11.972   9.838   4.892 -0.0287 -1.1409 -1.4760
 9321SOL     OW36930   1.362   1.560   5.105  0.0472 -0.0893 -0.1701
 9321SOL    HW136931   1.360   1.611   5.186 -0.6358  1.4658 -1.1210
 9321SOL    HW236932   1.270   1.552   5.079  0.1746 -1.4716 -0.2822
 9322SOL     OW36933   5.234   1.142   3.551  0.4266 -0.2397 -0.3757
 9322SOL    HW136934   5.310   1.102   3.593  0.7381  1.2914  0.5962
 9322SOL    HW236935   5.161   1.123   3.610 -0.2746 -2.7373 -1.8846
 9323SOL     OW36936  10.188   3.427   8.610 -0.2051  0.2797  0.1871
 9323SOL    HW136937  10.250   3.405   8.540 -1.1668 -2.8489  0.1563
 9323SOL    HW236938  10.140   3.503   8.577  0.8530  0.2506 -1.5395
 9324SOL     OW36939   3.078   4.155   7.996  0.0655 -0.3068 -0.0119
 9324SOL    HW136940   3.064   4.068   7.960  3.2662 -1.5169  1.2697
 9324SOL    HW236941   3.167   4.178   7.970  0.6538  0.9581  2.7075
 9325SOL     OW36942   2.182   1.001   4.886 -0.1742 -0.3596  0.0301
 9325SOL    HW136943   2.114   1.045   4.938  0.1755 -1.5181  1.5421
 9325SOL    HW236944   2.248   1.069   4.871 -1.3930  0.6337 -1.0071
 9326SOL     OW36945   7.140   2.513   1.589  0.0172  0.4793 -0.1290
 9326SOL    HW136946   7.072   2.578   1.572 -1.4161 -0.4906  1.5963
 9326SOL    HW236947   7.138   2.500   1.683  0.6886 -1.6078 -0.3482
 9327SOL     OW36948   1.044   3.061   5.826  0.1034  0.0150  0.4783
 9327SOL    HW136949   1.048   3.145   5.870  1.4694 -0.6659  1.7523
 9327SOL    HW236950   1.098   3.003   5.880 -0.3725 -1.5475 -0.6419
 9328SOL     OW36951  11.990  12.117   4.027 -0.3143 -0.2296 -0.2923
 9328SOL    HW136952  12.056  12.072   4.080 -1.0212 -0.9989 -0.0529
 9328SOL    HW236953  12.036  12.195   3.993  0.6066 -0.5637  0.1506
 9329SOL     OW36954  10.286  11.550   8.093  0.2656 -0.4661  0.8411
 9329SOL    HW136955  10.222  11.502   8.146  0.2628 -0.1488  1.1260
 9329SOL    HW236956  10.233  11.595   8.027  0.2319 -0.5382  0.8194
 9330SOL     OW36957   1.100   2.275   9.635 -0.1609 -0.0603  0.3907
 9330SOL    HW136958   1.122   2.324   9.714 -2.1978 -0.5806  1.3419
 9330SOL    HW236959   1.067   2.191   9.668  1.5831 -1.4290 -1.1335
 9331SOL     OW36960   8.294   9.287  10.839 -0.5471 -0.0554 -0.0943
 9331SOL    HW136961   8.266   9.378  10.843  0.6000  0.3379 -0.6009
 9331SOL    HW236962   8.294   9.266  10.746 -1.7131 -0.8880  0.0660
 9332SOL     OW36963   5.219   4.436  11.174  0.0135  0.0135  0.2560
 9332SOL    HW136964   5.221   4.528  11.203 -0.7742 -0.3372  1.5117
 9332SOL    HW236965   5.303   4.423  11.131  0.4424  1.1376  0.7038
 9333SOL     OW36966   2.220  11.245   7.989  0.0935  0.3678 -0.0435
 9333SOL    HW136967   2.166  11.238   7.910  1.4330  0.0652 -0.9635
 9333SOL    HW236968   2.279  11.170   7.985  0.0332  0.2054  1.3991
 9334SOL     OW36969   8.431   5.675   3.235  0.1778  0.6325 -0.3639
 9334SOL    HW136970   8.386   5.686   3.318 -0.6693  0.2148 -0.7550
 9334SOL    HW236971   8.444   5.765   3.202 -0.4017  0.7536 -0.2632
 9335SOL     OW36972   3.911   9.074   0.198 -0.2842 -0.1472  0.3321
 9335SOL    HW136973   3.891   8.981   0.198 -0.2164 -0.1780 -1.0259
 9335SOL    HW236974   3.826   9.117   0.196 -0.3159 -0.2337 -1.7980
 9336SOL     OW36975   1.523   1.390   6.167 -0.2260 -0.4461 -0.1996
 9336SOL    HW136976   1.532   1.299   6.139 -1.7489 -0.6795 -0.0259
 9336SOL    HW236977   1.602   1.433   6.134  0.1052 -1.6397 -1.0447
 9337SOL     OW36978   6.406   7.680   0.841  0.6634  0.8349  0.0375
 9337SOL    HW136979   6.429   7.606   0.785  0.1850 -0.1371  1.0897
 9337SOL    HW236980   6.391   7.752   0.780 -0.1008 -0.2550 -1.1123
 9338SOL     OW36981   5.269   0.360  12.440 -0.0513  0.1447 -0.0189
 9338SOL    HW136982   5.245   0.383  12.530  0.8519 -0.7510  0.4693
 9338SOL    HW236983   5.228   0.275  12.426  0.8419 -0.3004 -0.0003
 9339SOL     OW36984  10.602   4.611   1.470 -0.4432  0.7939  0.4040
 9339SOL    HW136985  10.690   4.610   1.508 -0.8920  0.4954  1.4668
 9339SOL    HW236986  10.611   4.664   1.391  0.3646  2.1279  1.3398
 9340SOL     OW36987   3.040   0.018  11.502 -0.3741 -0.0191  0.5132
 9340SOL    HW136988   3.122   0.043  11.460 -0.7831  0.0142 -0.2924
 9340SOL    HW236989   3.057  -0.069  11.538  0.1342  0.1609  0.7209
 9341SOL     OW36990   0.454   7.993   1.943 -0.2580 -0.1862  0.3982
 9341SOL    HW136991   0.368   8.019   1.975 -1.5630 -2.8864 -0.6112
 9341SOL    HW236992   0.443   7.981   1.849  1.1183 -0.8939  0.2922
 9342SOL     OW36993  12.011   6.029  10.542  0.6409  0.2358 -0.1081
 9342SOL    HW136994  11.946   6.094  10.516 -0.8209 -1.3329 -0.5658
 9342SOL    HW236995  11.966   5.975  10.608  1.8363 -0.2644  0.3266
 9343SOL     OW36996   7.716   9.110   7.557 -0.2360  0.2273  0.0808
 9343SOL    HW136997   7.670   9.181   7.601  0.5126  0.8873 -0.1797
 9343SOL    HW236998   7.767   9.153   7.488  0.2298 -0.5619 -0.0821
 9344SOL     OW36999   1.384   9.576  10.721  0.5568 -0.1940 -0.1043
 9344SOL    HW137000   1.460   9.613  10.676 -0.6535  1.5043 -0.8811
 9344SOL    HW237001   1.322   9.556  10.650  0.1009 -1.1644  0.5425
 9345SOL     OW37002   4.824   2.205   6.431 -0.2771  0.1322  0.6328
 9345SOL    HW137003   4.864   2.137   6.378 -0.8394 -0.5597  1.0865
 9345SOL    HW237004   4.731   2.185   6.431 -0.5956  1.4713 -0.0348
 9346SOL     OW37005   9.001  11.746   7.910 -0.0679 -0.3364  0.1721
 9346SOL    HW137006   8.952  11.772   7.988 -0.6396  1.2735 -0.6877
 9346SOL    HW237007   8.961  11.663   7.883  0.4350 -1.1583  1.8029
 9347SOL     OW37008   0.955  11.468   2.031 -0.2605 -0.4239 -0.3190
 9347SOL    HW137009   0.887  11.450   1.966  0.3161 -0.5564 -0.8945
 9347SOL    HW237010   1.013  11.391   2.027  0.2312 -0.0641 -0.2291
 9348SOL     OW37011   5.794   1.647  10.975  0.0659 -0.7462  0.2923
 9348SOL    HW137012   5.825   1.675  11.061 -1.2225 -1.6279  1.0660
 9348SOL    HW237013   5.860   1.585  10.945 -0.0498 -1.2972  1.1534
 9349SOL     OW37014   7.484  10.895   4.462  0.0201 -0.1681  0.5233
 9349SOL    HW137015   7.433  10.955   4.517  0.4498 -0.7767  1.6219
 9349SOL    HW237016   7.535  10.952   4.405 -0.9847  0.4697  0.2394
 9350SOL     OW37017   7.434   8.691   1.554 -0.6870  0.5499 -0.5232
 9350SOL    HW137018   7.396   8.691   1.467  0.0429  0.6107 -0.8501
 9350SOL    HW237019   7.451   8.598   1.573  0.1817  0.6150 -0.9180
 9351SOL     OW37020   4.801  10.583   3.446 -0.2410  0.4312 -0.1754
 9351SOL    HW137021   4.786  10.523   3.372 -1.6720 -0.7817  1.0239
 9351SOL    HW237022   4.767  10.536   3.522 -0.3538  2.3354  1.0185
 9352SOL     OW37023   9.050   9.902   0.633  0.1947 -0.2006 -0.0198
 9352SOL    HW137024   9.051   9.874   0.725  1.0920  1.0437  0.3803
 9352SOL    HW237025   9.142   9.909   0.609  0.0192 -2.3215 -1.6427
 9353SOL     OW37026   5.082  12.333   3.804  0.3964  0.2117  0.2796
 9353SOL    HW137027   5.162  12.348   3.855 -0.6710  1.0879  1.7841
 9353SOL    HW237028   5.108  12.346   3.713  1.3687  3.4673  0.8958
 9354SOL     OW37029   6.800   9.218   0.438 -0.4745  0.2525 -0.0518
 9354SOL    HW137030   6.727   9.238   0.379 -1.1541 -0.6565  0.4458
 9354SOL    HW237031   6.768   9.145   0.491  0.3292  0.6773  1.0499
 9355SOL     OW37032   9.509   0.396   8.035  0.0599 -0.2270 -0.5871
 9355SOL    HW137033   9.430   0.345   8.017  0.7793 -1.0969 -1.4012
 9355SOL    HW237034   9.530   0.377   8.126  0.1794 -1.2129 -0.8140
 9356SOL     OW37035   9.629   8.003   7.293 -0.3042  0.1668  0.3957
 9356SOL    HW137036   9.717   7.967   7.281 -0.1974  0.7286 -0.5891
 9356SOL    HW237037   9.643   8.094   7.319 -0.5711 -0.4101  2.8763
 9357SOL     OW37038  12.559  11.369   4.591 -0.0300  0.4372  0.0601
 9357SOL    HW137039  12.596  11.344   4.676 -1.2563 -0.4875  0.3401
 9357SOL    HW237040  12.465  11.375   4.607 -0.0727  2.6873 -0.6557
 9358SOL     OW37041   9.721   0.044   0.539  0.1101  0.2487  0.1172
 9358SOL    HW137042   9.745   0.106   0.607 -1.9702  1.5392 -0.2423
 9358SOL    HW237043   9.781   0.062   0.467 -0.0591  1.4276  0.2599
 9359SOL     OW37044  10.780   2.491   0.697  0.3417 -0.1457 -0.2174
 9359SOL    HW137045  10.778   2.544   0.777 -0.8660  0.6915 -0.7634
 9359SOL    HW237046  10.786   2.555   0.627  1.0059 -0.8559 -0.8240
 9360SOL     OW37047   6.548   9.520   4.336 -0.0592  0.5376 -0.4393
 9360SOL    HW137048   6.559   9.615   4.326 -1.5955  0.7820 -0.0418
 9360SOL    HW237049   6.623   9.482   4.291  1.4733  1.9780  0.7509
 9361SOL     OW37050   5.600   4.906   6.739  0.1601 -0.2490 -0.3061
 9361SOL    HW137051   5.643   4.829   6.702  0.8681 -0.2217  0.4261
 9361SOL    HW237052   5.672   4.961   6.770 -0.1870  1.7575 -2.7283
 9362SOL     OW37053   1.094   3.871   1.498 -0.0573  0.3209 -0.6078
 9362SOL    HW137054   1.070   3.823   1.418  1.7693  0.8562 -1.5199
 9362SOL    HW237055   1.140   3.948   1.466  1.1393  0.2960  0.9866
 9363SOL     OW37056   3.935  11.802   0.518 -0.0004  0.3989 -0.1217
 9363SOL    HW137057   3.999  11.762   0.576 -0.5644 -0.8349 -0.3157
 9363SOL    HW237058   3.966  11.781   0.430 -0.8681 -0.5869 -0.2152
 9364SOL     OW37059   8.833   8.534   9.458 -0.3891 -0.0366 -0.2634
 9364SOL    HW137060   8.842   8.570   9.370 -1.9898  1.0195 -0.0331
 9364SOL    HW237061   8.739   8.534   9.475 -0.3447 -2.7377  0.4673
 9365SOL     OW37062  10.162  11.796   1.393  0.6867  0.2527 -0.1177
 9365SOL    HW137063  10.157  11.716   1.445  0.7202 -0.5413 -1.2975
 9365SOL    HW237064  10.228  11.849   1.438 -0.9842  0.6721  2.0256
 9366SOL     OW37065   7.960   7.324  10.767 -0.4138 -0.1121 -0.1681
 9366SOL    HW137066   7.929   7.415  10.772  0.1033  0.1718 -1.6917
 9366SOL    HW237067   7.996   7.306  10.854  0.0821  1.3608 -0.0451
 9367SOL     OW37068   1.545  11.913   1.842 -0.0540  0.4820 -0.1528
 9367SOL    HW137069   1.559  11.981   1.776 -0.0180  0.4681 -0.1589
 9367SOL    HW237070   1.610  11.932   1.910 -0.5588  0.9265  0.2206
 9368SOL     OW37071   5.147   3.280   8.055  0.0059  0.0512 -0.1422
 9368SOL    HW137072   5.084   3.246   8.118  0.2816 -0.7336 -0.2743
 9368SOL    HW237073   5.122   3.371   8.043 -1.7135 -0.4610 -0.9069
 9369SOL     OW37074   5.394   7.818   1.949  0.4872  0.5994 -0.5229
 9369SOL    HW137075   5.375   7.751   1.882 -1.7435  1.5097 -0.8800
 9369SOL    HW237076   5.430   7.768   2.022  0.9217 -0.7087 -1.5733
 9370SOL     OW37077   1.029   9.609   7.818  1.1460 -0.2168 -0.0559
 9370SOL    HW137078   1.039   9.611   7.914 -0.1278 -0.2812  0.0969
 9370SOL    HW237079   0.978   9.529   7.802  1.0102  0.0112 -0.7581
 9371SOL     OW37080   0.764   2.507   2.472 -0.3059  0.4416 -0.9178
 9371SOL    HW137081   0.858   2.510   2.451  0.0896 -0.9120  0.5119
 9371SOL    HW237082   0.739   2.416   2.455 -0.8392  0.2436  0.7807
 9372SOL     OW37083   4.687  12.177   1.568  0.0553  0.4703  1.0019
 9372SOL    HW137084   4.781  12.188   1.579  0.6314 -1.2358 -1.4354
 9372SOL    HW237085   4.672  12.083   1.581 -1.4325  0.8207  2.0048
 9373SOL     OW37086   2.325   6.635   6.452  0.5597 -0.1551 -0.4649
 9373SOL    HW137087   2.373   6.636   6.369  0.2463  2.0210 -0.6968
 9373SOL    HW237088   2.379   6.688   6.512 -1.1668  1.8889 -0.5717
 9374SOL     OW37089  11.948   4.412   2.803  0.2251 -0.1429 -0.3706
 9374SOL    HW137090  11.891   4.421   2.727  0.7613  0.3032 -0.7286
 9374SOL    HW237091  11.964   4.501   2.833 -0.9570 -0.3514  1.0254
 9375SOL     OW37092   3.720   4.865   4.990 -0.0429  0.5736 -0.2229
 9375SOL    HW137093   3.700   4.937   5.049 -2.2140  1.0159 -1.3765
 9375SOL    HW237094   3.697   4.786   5.039  1.1378  0.7127  0.5914
 9376SOL     OW37095   1.052   8.217  11.822 -0.1060 -0.2156  0.5888
 9376SOL    HW137096   0.967   8.178  11.800 -0.1408 -0.3787  1.0103
 9376SOL    HW237097   1.033   8.276  11.894 -0.0811  0.7189 -0.1471
 9377SOL     OW37098   1.976  11.055   2.394 -0.1572 -0.0497 -0.0703
 9377SOL    HW137099   1.897  11.095   2.431  0.9001  0.8015  1.3771
 9377SOL    HW237100   2.040  11.126   2.392  1.1552 -1.1645  0.6079
 9378SOL     OW37101   6.540   4.498  12.499  0.2054 -0.7432 -0.5110
 9378SOL    HW137102   6.613   4.511  12.438  0.2878 -0.4540 -0.3516
 9378SOL    HW237103   6.581   4.463  12.578  0.3087  0.3255 -0.0725
 9379SOL     OW37104  11.469  12.413   4.883  0.2536  0.0353 -0.5425
 9379SOL    HW137105  11.494  12.320   4.879  1.2368  0.2934 -0.6227
 9379SOL    HW237106  11.390  12.418   4.828  1.2858 -0.4125 -2.1389
 9380SOL     OW37107   7.355   9.301   9.376  0.1156 -0.3661  0.3534
 9380SOL    HW137108   7.277   9.356   9.387 -0.8730 -1.7108  0.2677
 9380SOL    HW237109   7.384   9.319   9.286  1.3482  1.9108  1.1314
 9381SOL     OW37110   3.573   8.626   5.621  0.0842 -0.1590  0.4808
 9381SOL    HW137111   3.493   8.634   5.673 -0.5900 -1.3137 -0.3170
 9381SOL    HW237112   3.643   8.617   5.685 -0.3849  1.0819  1.1971
 9382SOL     OW37113   5.704   8.519   3.884  0.5682  0.1807  0.4757
 9382SOL    HW137114   5.708   8.436   3.837 -0.3755  0.9103 -0.9377
 9382SOL    HW237115   5.662   8.497   3.968 -1.9493 -0.4144 -0.8450
 9383SOL     OW37116  11.682   6.729   8.233 -0.5581 -0.9154  0.1218
 9383SOL    HW137117  11.722   6.645   8.212  2.2767  0.3432  0.0266
 9383SOL    HW237118  11.656   6.721   8.324  1.6781 -1.2445  0.7830
 9384SOL     OW37119   9.962   9.503   9.882  0.2920  0.4940 -0.1287
 9384SOL    HW137120  10.035   9.565   9.871  0.3483  0.7060  1.2999
 9384SOL    HW237121   9.988   9.427   9.829  0.0197  1.8181 -2.2858
 9385SOL     OW37122   7.436  10.534   7.840 -0.0423  0.2433 -0.0512
 9385SOL    HW137123   7.441  10.452   7.792  0.3876  0.5806 -0.5929
 9385SOL    HW237124   7.380  10.515   7.915 -2.1494  0.1275 -1.5689
 9386SOL     OW37125   0.384   2.035   1.602  0.1670  0.0615  0.0430
 9386SOL    HW137126   0.366   1.944   1.579  1.5317 -0.2065 -0.0684
 9386SOL    HW237127   0.414   2.031   1.693 -2.2473  0.7392  0.9352
 9387SOL     OW37128  12.565   0.673  11.081 -0.4725 -0.2046 -0.0869
 9387SOL    HW137129  12.546   0.766  11.073 -1.8526 -0.3938  0.7204
 9387SOL    HW237130  12.566   0.656  11.175  0.1154 -0.9484 -0.2128
 9388SOL     OW37131   0.170   0.442   3.509  0.1726  0.0657  0.0423
 9388SOL    HW137132   0.089   0.420   3.554  0.4604  1.4104  1.3237
 9388SOL    HW237133   0.144   0.462   3.419 -1.0059  0.9366  0.5504
 9389SOL     OW37134  10.512   7.835   5.987  0.2339  0.5301  0.0696
 9389SOL    HW137135  10.427   7.827   5.944  0.4133  1.4616 -0.5022
 9389SOL    HW237136  10.569   7.776   5.939 -0.1028 -0.1741  0.5182
 9390SOL     OW37137   1.979   5.217   2.872  0.2304  0.7611 -0.2570
 9390SOL    HW137138   1.893   5.220   2.914  0.2691  1.6794 -0.2062
 9390SOL    HW237139   2.024   5.143   2.913 -0.6632  0.0558 -0.5448
 9391SOL     OW37140  11.001   5.376   1.966  0.0172  0.0544 -0.3659
 9391SOL    HW137141  10.909   5.395   1.983  0.0515  0.6723 -0.8355
 9391SOL    HW237142  11.048   5.416   2.039 -0.1782 -1.5923  0.7126
 9392SOL     OW37143   9.666  10.512  12.064 -0.0786  0.5853  0.3001
 9392SOL    HW137144   9.645  10.425  12.099  0.5680 -0.3899 -1.5671
 9392SOL    HW237145   9.611  10.519  11.986  1.1678  1.1019 -0.5477
 9393SOL     OW37146   0.364   3.787   3.180  0.0276  0.0474  0.0825
 9393SOL    HW137147   0.300   3.857   3.163 -2.1139 -1.8199 -0.0950
 9393SOL    HW237148   0.444   3.833   3.205 -1.5959  2.5239  1.1110
 9394SOL     OW37149  11.817   5.358   9.067  0.6922  0.6615 -0.1884
 9394SOL    HW137150  11.766   5.360   9.148 -0.6503 -0.6771 -0.9475
 9394SOL    HW237151  11.754   5.331   9.000  1.2597  3.5208 -2.0780
 9395SOL     OW37152   8.358   9.068   5.818 -0.0629 -0.2349  0.3779
 9395SOL    HW137153   8.411   9.120   5.758 -0.4498  0.1993  0.4008
 9395SOL    HW237154   8.399   8.982   5.818 -0.8621 -0.6789 -1.5905
 9396SOL     OW37155   1.824   0.154   8.932 -0.3649 -0.1423 -0.4261
 9396SOL    HW137156   1.802   0.218   9.000 -2.1804  1.3284 -2.2865
 9396SOL    HW237157   1.773   0.076   8.955  3.2855 -1.9017  2.9410
 9397SOL     OW37158   5.206   1.418   2.003  0.0056  0.1877 -0.3285
 9397SOL    HW137159   5.294   1.383   1.995  0.2132  0.4490  0.6139
 9397SOL    HW237160   5.184   1.449   1.915  0.9993  0.4655 -0.4928
 9398SOL     OW37161   6.578  11.569  10.465  0.3403  0.2400 -0.1705
 9398SOL    HW137162   6.573  11.555  10.370 -1.2765 -2.1519  0.1634
 9398SOL    HW237163   6.672  11.570  10.484  0.6899  0.6723 -1.7793
 9399SOL     OW37164   4.057   3.624   4.467 -0.1504 -0.5018 -0.2756
 9399SOL    HW137165   4.137   3.578   4.441  0.3838  0.4743 -0.4248
 9399SOL    HW237166   3.993   3.600   4.400  0.7134  0.5788 -1.5401
 9400SOL     OW37167   4.104   9.895   1.952 -0.0386 -0.2193 -1.0375
 9400SOL    HW137168   4.154   9.889   1.871  0.0332 -2.4369 -0.8966
 9400SOL    HW237169   4.168   9.877   2.021 -0.5177 -0.5928 -0.6790
 9401SOL     OW37170  11.879   3.884   5.540  0.6412  0.8182 -0.1092
 9401SOL    HW137171  11.843   3.900   5.628  1.1106 -1.8322  0.6751
 9401SOL    HW237172  11.802   3.873   5.485  0.1460 -1.4460  0.8727
 9402SOL     OW37173  11.013   5.246   8.166  0.6037 -0.2008 -0.0333
 9402SOL    HW137174  10.995   5.322   8.222 -0.6215 -0.9439  0.6405
 9402SOL    HW237175  11.063   5.281   8.093 -0.8737  1.4806 -0.3103
 9403SOL     OW37176   7.499  10.463  12.388 -0.1916  0.6870 -0.1210
 9403SOL    HW137177   7.458  10.404  12.325  1.4097  0.4209 -0.9671
 9403SOL    HW237178   7.549  10.524  12.335 -1.3211  2.4725  0.7707
 9404SOL     OW37179   9.093  10.732   4.002  0.8808 -0.0237  0.1677
 9404SOL    HW137180   9.045  10.702   3.926  2.5729 -0.6317 -0.7087
 9404SOL    HW237181   9.061  10.821   4.017 -0.4478 -0.3812 -0.3845
 9405SOL     OW37182   1.583   3.610   9.264  0.2502 -0.1844  0.7213
 9405SOL    HW137183   1.536   3.656   9.333  1.0173 -0.3162  1.3433
 9405SOL    HW237184   1.564   3.661   9.184  0.8274  1.0507  1.3338
 9406SOL     OW37185   9.800   1.259   8.350 -0.5662 -0.4174 -0.0519
 9406SOL    HW137186   9.853   1.243   8.272  0.2271 -1.8966  0.7465
 9406SOL    HW237187   9.797   1.175   8.395 -0.0298  0.6356  2.1088
 9407SOL     OW37188   6.351   3.624   3.801  0.4501  0.0385  0.3199
 9407SOL    HW137189   6.374   3.707   3.842  0.2784  1.1130 -1.6233
 9407SOL    HW237190   6.388   3.630   3.713 -1.0936 -1.1830 -0.4708
 9408SOL     OW37191   8.582   4.519   0.041 -0.0406 -0.3404 -0.0831
 9408SOL    HW137192   8.581   4.614   0.050 -0.0904 -0.2376 -1.0563
 9408SOL    HW237193   8.552   4.487   0.127 -1.5670  0.5639 -0.2285
 9409SOL     OW37194   6.326   0.676   0.105  0.7172 -0.0030 -0.5681
 9409SOL    HW137195   6.276   0.602   0.140  0.6041 -0.9493 -2.6123
 9409SOL    HW237196   6.260   0.742   0.086  0.5963 -0.1125 -0.5313
 9410SOL     OW37197  11.762   9.858   1.593 -0.3028 -0.0400 -0.4103
 9410SOL    HW137198  11.704   9.810   1.534  0.1428  0.3232 -1.1470
 9410SOL    HW237199  11.847   9.814   1.584 -0.1082  0.3396 -0.4293
 9411SOL     OW37200   9.159   0.235   6.593  0.4751  0.4090 -0.0104
 9411SOL    HW137201   9.127   0.189   6.515  2.6684 -0.4863 -0.4461
 9411SOL    HW237202   9.218   0.302   6.558  2.6642 -0.9623  0.8564
 9412SOL     OW37203   8.350   7.807  10.185 -0.0941  0.8322 -0.0572
 9412SOL    HW137204   8.344   7.713  10.203  1.3167  1.0004  1.4621
 9412SOL    HW237205   8.273   7.845  10.227 -0.3651  0.4341 -0.1905
 9413SOL     OW37206   2.238   3.803   6.939 -0.1456 -0.1090 -0.1926
 9413SOL    HW137207   2.313   3.831   6.992 -0.3957 -0.3547  0.3017
 9413SOL    HW237208   2.181   3.880   6.935  0.6071  0.4047 -1.4415
 9414SOL     OW37209   2.733   8.046   9.557  0.3103  0.3366 -0.2095
 9414SOL    HW137210   2.791   8.120   9.578  2.4719 -1.7472  1.7594
 9414SOL    HW237211   2.672   8.042   9.630 -0.3714  0.6592 -0.7484
 9415SOL     OW37212  12.372  12.275   1.157  0.3658 -0.3501 -0.0454
 9415SOL    HW137213  12.454  12.231   1.181  0.5200 -1.3004 -2.0694
 9415SOL    HW237214  12.304  12.215   1.187  0.5187 -0.8667 -0.6874
 9416SOL     OW37215   9.884   2.024   6.606  0.5223  0.1104 -0.3549
 9416SOL    HW137216   9.901   2.043   6.513  0.6036 -0.5685 -0.4871
 9416SOL    HW237217   9.863   1.930   6.607 -1.4548  0.5135  0.0403
 9417SOL     OW37218   3.893   0.146   3.917  0.2290  0.1948  0.1262
 9417SOL    HW137219   3.948   0.161   3.840 -1.3099 -0.8787 -1.2641
 9417SOL    HW237220   3.827   0.216   3.914  0.1901  0.1756  0.4834
 9418SOL     OW37221  11.658   3.917   1.254 -0.8384  0.0606 -0.1978
 9418SOL    HW137222  11.727   3.935   1.191 -0.6607 -0.4283 -0.1522
 9418SOL    HW237223  11.602   3.995   1.253 -0.9785 -0.0400 -1.1296
 9419SOL     OW37224   2.040   9.842   4.004  0.2065  0.0546 -0.0867
 9419SOL    HW137225   2.097   9.809   4.074  1.5455  0.9864 -0.6992
 9419SOL    HW237226   2.056   9.783   3.931  1.3806  1.0228 -0.6588
 9420SOL     OW37227   0.989   3.953  10.554 -0.2832 -0.5238 -0.6532
 9420SOL    HW137228   0.942   3.947  10.637 -1.0116  0.1656 -1.0008
 9420SOL    HW237229   1.028   3.866  10.542  0.8359 -0.2744  0.9850
 9421SOL     OW37230   0.630   5.885   5.883 -0.3615 -0.0155 -0.3548
 9421SOL    HW137231   0.648   5.792   5.901  1.7339  0.6120  1.1175
 9421SOL    HW237232   0.586   5.916   5.962 -3.0818 -0.1792 -1.7006
 9422SOL     OW37233   4.117  10.679   9.179 -0.3163 -0.2950 -0.4538
 9422SOL    HW137234   4.037  10.681   9.232 -0.4382 -1.8453 -0.5180
 9422SOL    HW237235   4.165  10.603   9.210  0.6505  0.0202 -1.1181
 9423SOL     OW37236   8.614   2.440   5.634 -0.1293  0.6387 -0.6717
 9423SOL    HW137237   8.612   2.487   5.551 -0.1687  1.5628 -0.1558
 9423SOL    HW237238   8.546   2.373   5.625  0.6958 -0.0996 -1.8448
 9424SOL     OW37239   6.854  11.777  10.106  0.4923 -0.1456 -0.7891
 9424SOL    HW137240   6.762  11.759  10.126  0.8319 -1.4314 -0.3410
 9424SOL    HW237241   6.851  11.826  10.024 -0.6087  0.1089 -0.6109
 9425SOL     OW37242   2.423   2.674   6.872  0.8645  0.1154  0.1231
 9425SOL    HW137243   2.346   2.723   6.844  0.7796 -0.0354  0.0910
 9425SOL    HW237244   2.434   2.695   6.964  0.9795  0.3954  0.0448
 9426SOL     OW37245  12.479   9.789   2.931 -0.4841  0.0398 -0.5680
 9426SOL    HW137246  12.515   9.739   3.004  2.3147  3.5302  0.6831
 9426SOL    HW237247  12.538   9.771   2.858 -0.4074  0.3526 -0.5807
 9427SOL     OW37248  11.292  10.588   2.285 -0.8033 -0.2985  0.7149
 9427SOL    HW137249  11.330  10.615   2.369 -0.0234  2.2939 -0.3516
 9427SOL    HW237250  11.198  10.596   2.298 -0.6716  0.6735  1.2067
 9428SOL     OW37251   0.521  11.835   7.935 -0.0194 -0.6203 -0.4938
 9428SOL    HW137252   0.489  11.840   7.845  0.3445  1.1954 -0.5741
 9428SOL    HW237253   0.590  11.769   7.933  1.8967  1.2842 -2.2170
 9429SOL     OW37254   3.513   5.563   2.533  0.3261 -0.4678  0.3507
 9429SOL    HW137255   3.493   5.653   2.557 -1.0340 -0.5001 -0.5936
 9429SOL    HW237256   3.581   5.571   2.466 -0.3874 -0.0958 -0.3384
 9430SOL     OW37257   0.264   3.113   8.530  0.4276  0.4534 -0.4070
 9430SOL    HW137258   0.354   3.128   8.500  0.4812  0.9792  0.0060
 9430SOL    HW237259   0.232   3.199   8.556 -0.3663  0.3454 -0.9974
 9431SOL     OW37260  10.050   2.301  10.366  0.4530 -0.0497 -0.0346
 9431SOL    HW137261  10.091   2.322  10.450 -1.0764 -1.3690  1.1010
 9431SOL    HW237262  10.010   2.215  10.380 -0.0510 -0.1864 -2.0490
 9432SOL     OW37263   0.141   8.747   5.393  0.0296 -0.2184 -0.1733
 9432SOL    HW137264   0.070   8.728   5.455 -0.2374 -0.8240 -0.6535
 9432SOL    HW237265   0.097   8.790   5.319  0.2797  0.0930 -0.1420
 9433SOL     OW37266   3.164   4.135  11.978  0.0386  0.3430  0.0551
 9433SOL    HW137267   3.157   4.200  11.908  1.1028 -0.3578 -0.7333
 9433SOL    HW237268   3.258   4.125  11.993 -0.1582  1.1836  2.2950
 9434SOL     OW37269   3.450  11.342   0.914  0.1061  0.6463  0.0550
 9434SOL    HW137270   3.529  11.328   0.862  0.4419  0.5999  0.5628
 9434SOL    HW237271   3.482  11.379   0.996 -0.1414 -1.4182  1.1548
 9435SOL     OW37272   4.583   3.510  12.406  0.3933  0.0068 -0.9414
 9435SOL    HW137273   4.491   3.503  12.431  0.3489  0.2203 -1.0429
 9435SOL    HW237274   4.584   3.572  12.333  0.8661  1.7686  0.4836
 9436SOL     OW37275   1.828  11.342   6.619  0.4536  0.1322 -0.3707
 9436SOL    HW137276   1.818  11.364   6.526 -0.6959 -1.0455 -0.5427
 9436SOL    HW237277   1.749  11.376   6.661  0.4365 -0.3390 -0.0156
 9437SOL     OW37278   0.574   8.662  10.572  0.4064  0.0667  0.9212
 9437SOL    HW137279   0.632   8.737  10.560 -2.6068  2.4364 -0.0313
 9437SOL    HW237280   0.537   8.674  10.659 -0.2152 -0.2523  0.7053
 9438SOL     OW37281   5.739  11.388  10.300  0.5024  0.1669  0.2841
 9438SOL    HW137282   5.744  11.373  10.206  0.6100 -0.0237  0.3208
 9438SOL    HW237283   5.651  11.359  10.325  1.3191 -2.1594  0.6691
 9439SOL     OW37284   8.561   7.658   9.792 -0.4307 -0.7013 -0.1402
 9439SOL    HW137285   8.612   7.614   9.723 -0.6873 -0.3961 -0.5312
 9439SOL    HW237286   8.626   7.703   9.845  0.0671 -3.1492  1.4774
 9440SOL     OW37287   3.048   7.684   4.685  0.3428 -0.6335  0.2616
 9440SOL    HW137288   3.089   7.685   4.599 -0.7607  3.1091 -0.3820
 9440SOL    HW237289   3.121   7.672   4.746  1.4646 -0.7817 -1.0617
 9441SOL     OW37290   3.284   2.118   2.430 -0.3486  0.6012  0.3061
 9441SOL    HW137291   3.202   2.094   2.387 -0.1962  2.8063 -1.3830
 9441SOL    HW237292   3.319   2.189   2.377  1.5089  1.2903  2.3058
 9442SOL     OW37293   7.455   8.024   5.510 -0.1132 -0.0075  0.1426
 9442SOL    HW137294   7.497   8.023   5.596 -0.1639  0.0376  0.1687
 9442SOL    HW237295   7.487   7.945   5.466  0.6631  0.4634 -0.1627
 9443SOL     OW37296   3.211   2.942  12.101  0.1619  0.0744 -0.0844
 9443SOL    HW137297   3.158   2.989  12.165  2.3229 -0.4934  2.3259
 9443SOL    HW237298   3.189   2.850  12.115 -0.2950  0.0172 -1.1187
 9444SOL     OW37299  11.513   2.810  10.317  0.2624 -0.4327  0.1558
 9444SOL    HW137300  11.522   2.882  10.380  0.5368  0.1496 -0.5320
 9444SOL    HW237301  11.600   2.802  10.277 -0.2871  0.2236 -1.2262
 9445SOL     OW37302   3.739   6.632   9.826  0.0217 -0.3283 -0.2171
 9445SOL    HW137303   3.715   6.682   9.904  1.9935  0.0033  0.2540
 9445SOL    HW237304   3.784   6.696   9.770  0.3346 -0.9931 -0.7400
 9446SOL     OW37305   1.690   8.254   5.682 -0.3894  0.0555  0.0712
 9446SOL    HW137306   1.636   8.321   5.639 -0.3686 -0.2569 -0.4482
 9446SOL    HW237307   1.647   8.171   5.661  0.2699 -0.1922 -0.3061
 9447SOL     OW37308   1.591  11.440   8.804  0.1891 -0.3052  0.0696
 9447SOL    HW137309   1.562  11.367   8.750  2.0105  0.2093 -1.7092
 9447SOL    HW237310   1.669  11.408   8.849  1.8839  0.8956 -1.8549
 9448SOL     OW37311   7.366   2.587   2.846 -0.5642 -0.3979  0.2247
 9448SOL    HW137312   7.320   2.555   2.924 -0.0369 -0.3641  0.5628
 9448SOL    HW237313   7.394   2.675   2.870 -0.1555 -0.4922  0.1047
 9449SOL     OW37314  11.009   4.511   4.568  0.5524 -0.1412  0.0447
 9449SOL    HW137315  11.001   4.471   4.655  0.1716  1.6010  0.8388
 9449SOL    HW237316  11.089   4.564   4.573  1.4657 -1.3202 -1.2364
 9450SOL     OW37317   1.748  10.398   5.950 -0.4620  0.7948 -0.0728
 9450SOL    HW137318   1.800  10.462   5.999 -0.4971  0.2340  0.7213
 9450SOL    HW237319   1.701  10.349   6.018 -2.3437  1.5384 -0.7759
 9451SOL     OW37320   1.426  11.912  12.552  0.1958  0.3395  0.0555
 9451SOL    HW137321   1.470  11.869  12.626 -0.0928  1.5450  0.9642
 9451SOL    HW237322   1.402  11.841  12.494 -1.4290 -0.9063  2.1166
 9452SOL     OW37323   7.647   9.531   3.128  0.0335 -0.1253 -0.1359
 9452SOL    HW137324   7.587   9.461   3.100 -0.5683 -0.1015  1.0282
 9452SOL    HW237325   7.595   9.584   3.189  0.7256  0.8984 -0.4186
 9453SOL     OW37326   9.807   7.137   3.488  0.3953  0.0087  0.7641
 9453SOL    HW137327   9.802   7.061   3.430  2.3807 -0.2974  0.9063
 9453SOL    HW237328   9.799   7.101   3.576 -3.1382  0.5276  0.8027
 9454SOL     OW37329   6.484   6.359   1.173  0.3109  0.3358 -0.3375
 9454SOL    HW137330   6.410   6.417   1.158  0.2557  0.3299 -0.0853
 9454SOL    HW237331   6.561   6.411   1.147  0.1237 -0.1669 -2.0505
 9455SOL     OW37332  11.498   2.430   0.594  0.2836 -0.5298 -0.3025
 9455SOL    HW137333  11.416   2.425   0.644  0.6423 -0.4735  0.3094
 9455SOL    HW237334  11.497   2.352   0.539  0.6463 -1.5212  1.0317
 9456SOL     OW37335   8.573   2.335   5.913 -0.3261 -0.0826  0.1480
 9456SOL    HW137336   8.539   2.335   6.002 -1.5374 -3.2823 -0.1875
 9456SOL    HW237337   8.555   2.423   5.880 -1.1731  0.7194  2.5561
 9457SOL     OW37338   7.024  11.014  10.365  0.3813 -0.2732  0.6546
 9457SOL    HW137339   7.098  10.961  10.335  1.2476  0.5743  1.2120
 9457SOL    HW237340   7.065  11.094  10.400 -0.7232 -0.2819  2.0421
 9458SOL     OW37341   0.373   0.219   2.564  0.0671  0.8107 -0.1743
 9458SOL    HW137342   0.466   0.241   2.570  0.3265 -0.2133 -0.3528
 9458SOL    HW237343   0.335   0.253   2.645  1.1135 -1.2190  1.2521
 9459SOL     OW37344   1.196   0.508  11.763 -0.2107  0.3289  0.7391
 9459SOL    HW137345   1.264   0.544  11.706  0.5920 -0.4297  1.2075
 9459SOL    HW237346   1.114   0.523  11.715  0.5685 -1.8386 -1.4456
 9460SOL     OW37347   5.766  11.361   6.037 -0.2782  0.7510  0.2522
 9460SOL    HW137348   5.855  11.393   6.020 -0.3878  0.8622 -0.1217
 9460SOL    HW237349   5.712  11.407   5.973 -0.6721  1.0232  0.7671
 9461SOL     OW37350  11.003   4.723   2.176 -0.2068  0.0833 -0.3771
 9461SOL    HW137351  11.063   4.657   2.141 -0.3607  0.3269 -1.1230
 9461SOL    HW237352  11.054   4.804   2.175  0.7538 -0.3546  2.6066
 9462SOL     OW37353   7.091   5.571   1.536  0.2737 -0.4180  0.1017
 9462SOL    HW137354   7.066   5.663   1.527 -0.5737 -0.5962  0.5371
 9462SOL    HW237355   7.150   5.555   1.462  0.4232  0.4700  0.0174
 9463SOL     OW37356   5.070  11.154   1.854 -0.5121 -0.2089 -0.0673
 9463SOL    HW137357   5.150  11.123   1.814 -0.7406  0.1538 -0.8170
 9463SOL    HW237358   5.002  11.136   1.789 -1.1712 -1.2121  0.8598
 9464SOL     OW37359   1.271   2.325   2.607  0.0883 -0.0155 -0.4322
 9464SOL    HW137360   1.188   2.361   2.639 -0.0237 -0.1086 -0.6119
 9464SOL    HW237361   1.338   2.367   2.661  0.0777  1.5655 -1.5744
 9465SOL     OW37362  12.595   0.557   8.282  0.1103  0.0174  0.4689
 9465SOL    HW137363  12.642   0.541   8.200  1.1149 -1.9727  1.3578
 9465SOL    HW237364  12.571   0.649   8.278  1.3153  0.3099 -1.4548
 9466SOL     OW37365   9.957   5.911   1.622 -0.0486  0.6845  0.0244
 9466SOL    HW137366   9.955   5.926   1.528  2.6666 -0.2448 -0.2676
 9466SOL    HW237367  10.045   5.936   1.649 -0.6015  0.4823  2.2453
 9467SOL     OW37368   0.703   5.174   3.366 -0.0189  0.2353 -0.6914
 9467SOL    HW137369   0.794   5.193   3.390  0.4344  0.4058 -2.4137
 9467SOL    HW237370   0.708   5.089   3.323 -0.6815  0.2767 -0.8546
 9468SOL     OW37371   1.086   4.459   3.100  0.0608 -0.6494  0.0464
 9468SOL    HW137372   1.002   4.439   3.059  1.0416 -0.5324 -2.2007
 9468SOL    HW237373   1.144   4.479   3.026  2.0358 -0.6120  1.5250
 9469SOL     OW37374   2.970   1.339   5.003  0.3100  0.0990  0.7700
 9469SOL    HW137375   2.955   1.426   4.964 -0.4882  0.2462  1.3889
 9469SOL    HW237376   2.894   1.288   4.976  0.2336 -0.0823  1.3272
 9470SOL     OW37377   1.108   9.594   5.494 -0.2420  0.1737  0.4029
 9470SOL    HW137378   1.120   9.500   5.507 -0.7306  0.2071  1.1564
 9470SOL    HW237379   1.172   9.635   5.552 -0.7222  0.3054  0.8510
 9471SOL     OW37380   7.478   4.732   9.008  0.5214 -0.4977 -0.4901
 9471SOL    HW137381   7.525   4.676   9.071  0.6164  1.2727  1.0996
 9471SOL    HW237382   7.532   4.730   8.929  2.9172  0.8057  1.0030
 9472SOL     OW37383   3.752   3.010   7.070  0.1236  0.4221 -0.3412
 9472SOL    HW137384   3.712   2.930   7.103  2.2627 -1.5066 -2.0840
 9472SOL    HW237385   3.827   3.025   7.129  1.5876 -0.7475 -1.8208
 9473SOL     OW37386   8.350   4.340   6.606  1.0401 -0.4850  0.0843
 9473SOL    HW137387   8.387   4.360   6.520  0.0215  0.0583 -0.2461
 9473SOL    HW237388   8.276   4.282   6.587 -0.8863  1.7666  0.2855
 9474SOL     OW37389   5.320  11.771   7.626 -0.1215  0.5444  0.2766
 9474SOL    HW137390   5.258  11.844   7.634  1.1813  1.6111  1.1458
 9474SOL    HW237391   5.293  11.726   7.546 -1.2670  1.6991 -0.0293
 9475SOL     OW37392   1.653  10.466  12.143  0.0317  0.2409  0.3771
 9475SOL    HW137393   1.723  10.430  12.090 -1.6544 -0.7867 -1.2440
 9475SOL    HW237394   1.637  10.400  12.211 -0.2449 -0.1377 -0.0530
 9476SOL     OW37395   7.576   6.484   2.083  0.7112  0.4856 -0.3363
 9476SOL    HW137396   7.532   6.459   2.002 -0.3770  3.5199 -0.8077
 9476SOL    HW237397   7.649   6.423   2.090 -0.0926 -0.8991 -2.7221
 9477SOL     OW37398   8.100   8.593  10.709  0.6409 -0.5998 -0.4040
 9477SOL    HW137399   8.015   8.592  10.752  0.6857 -0.1279 -0.2935
 9477SOL    HW237400   8.135   8.680  10.729  1.5081 -1.0850  0.2534
 9478SOL     OW37401   7.667  12.493   8.387 -0.0539 -0.2786  0.2379
 9478SOL    HW137402   7.753  12.461   8.416  0.1814  1.6975  1.9206
 9478SOL    HW237403   7.621  12.514   8.468 -1.2315  0.9455 -0.7095
 9479SOL     OW37404   0.453   5.857   3.398  0.8086 -0.1940 -0.5201
 9479SOL    HW137405   0.547   5.844   3.411  0.8944 -0.9631 -1.7650
 9479SOL    HW237406   0.424   5.777   3.354 -0.6115 -0.3586  0.6205
 9480SOL     OW37407   4.810   7.860   3.868 -0.4716 -0.3346 -0.1573
 9480SOL    HW137408   4.798   7.903   3.783  1.1808  0.1434 -0.1827
 9480SOL    HW237409   4.741   7.795   3.871  0.5137 -1.6803 -2.7443
 9481SOL     OW37410   5.491   5.923   8.944  0.3277  0.3964 -0.2106
 9481SOL    HW137411   5.497   5.839   8.898 -2.8961  0.9955 -1.9984
 9481SOL    HW237412   5.580   5.957   8.941  1.6959 -2.7371  0.2865
 9482SOL     OW37413   2.729   8.232   5.333 -0.2811 -0.4873 -0.2899
 9482SOL    HW137414   2.660   8.229   5.267 -0.1583  0.5962 -0.4886
 9482SOL    HW237415   2.810   8.235   5.283 -0.2269  1.7592 -0.1882
 9483SOL     OW37416   4.319  10.290   6.994 -0.3459  0.2406  0.0806
 9483SOL    HW137417   4.374  10.312   6.918  1.7806  0.6594  1.6427
 9483SOL    HW237418   4.361  10.212   7.032 -1.4632 -0.0548  0.7622
 9484SOL     OW37419   9.972   2.953  10.181 -0.3092  0.0670 -0.2158
 9484SOL    HW137420  10.051   2.934  10.232  0.2483 -1.1176 -1.4624
 9484SOL    HW237421   9.900   2.924  10.237  0.2397 -0.4868  0.2158
 9485SOL     OW37422   6.889   5.790   4.162  0.5344  0.0136 -0.1984
 9485SOL    HW137423   6.970   5.798   4.112  1.3455  2.0592  1.2756
 9485SOL    HW237424   6.831   5.857   4.126 -0.3532 -1.1139 -0.9222
 9486SOL     OW37425   9.925   0.940  10.332 -0.2073 -0.2429 -0.0376
 9486SOL    HW137426   9.868   0.911  10.261  0.0641  0.0675 -0.3901
 9486SOL    HW237427   9.887   1.023  10.360  0.5302  0.3882 -0.8386
 9487SOL     OW37428   3.724   4.198  12.173  0.4110  0.0213  0.4173
 9487SOL    HW137429   3.652   4.212  12.235  0.6601 -1.4541  1.0704
 9487SOL    HW237430   3.755   4.286  12.153 -1.1807  0.6603  0.5787
 9488SOL     OW37431   6.443   3.795   3.097 -0.0953 -0.3367  0.4659
 9488SOL    HW137432   6.471   3.865   3.039 -0.6127 -0.2190  0.3537
 9488SOL    HW237433   6.482   3.817   3.182 -0.5279  0.2663  0.5112
 9489SOL     OW37434   3.975   8.846   8.634  0.2728 -0.2791 -0.3633
 9489SOL    HW137435   3.918   8.773   8.654 -0.8976  0.6299 -0.2799
 9489SOL    HW237436   3.979   8.849   8.538 -1.5793  0.9207 -0.4548
 9490SOL     OW37437   2.035   0.224   3.075  0.2528 -0.3406  0.3628
 9490SOL    HW137438   2.003   0.307   3.110 -0.5765 -0.6929  0.4511
 9490SOL    HW237439   1.991   0.214   2.991 -1.4240 -1.7583  1.3443
 9491SOL     OW37440   7.372   8.685   3.967  0.0667 -0.7621  0.3004
 9491SOL    HW137441   7.453   8.724   3.999 -0.0888 -0.3331  0.1830
 9491SOL    HW237442   7.349   8.620   4.033  0.0200 -0.2420  0.7995
 9492SOL     OW37443  11.335   9.549   8.596 -0.2557 -0.1890  0.0717
 9492SOL    HW137444  11.365   9.517   8.682  0.4733 -1.4221 -0.6120
 9492SOL    HW237445  11.407   9.603   8.564 -0.6736  0.5587  0.3773
 9493SOL     OW37446   7.555   5.013   8.721  0.0160  0.6861  0.0246
 9493SOL    HW137447   7.488   4.946   8.737  1.7792 -0.8922  1.1770
 9493SOL    HW237448   7.587   5.036   8.808  0.3231  2.1341 -0.4516
 9494SOL     OW37449  11.640  12.395   6.364  0.3515  0.3780  0.2696
 9494SOL    HW137450  11.634  12.389   6.460  1.1588 -1.1943  0.2381
 9494SOL    HW237451  11.551  12.420   6.337 -0.2200 -0.3941  1.3417
 9495SOL     OW37452   1.324   9.876   6.937  0.1800 -0.7818 -0.1052
 9495SOL    HW137453   1.249   9.888   6.994 -0.2321 -0.9249 -0.6053
 9495SOL    HW237454   1.366   9.962   6.934 -0.1460 -0.6211 -0.0739
 9496SOL     OW37455  11.391   3.525   9.943  0.9082  0.4234 -0.1768
 9496SOL    HW137456  11.470   3.481   9.975  0.0639 -0.2947  1.0012
 9496SOL    HW237457  11.407   3.536   9.849  2.8423  1.2762  0.2082
 9497SOL     OW37458   4.751  12.401   8.877  0.2082  0.0039 -0.4628
 9497SOL    HW137459   4.709  12.469   8.824 -2.2722 -1.4140 -0.4740
 9497SOL    HW237460   4.693  12.326   8.870  2.8483 -2.2123 -0.5071
 9498SOL     OW37461   1.341   7.833  11.022 -0.4494  0.3238 -0.5048
 9498SOL    HW137462   1.419   7.782  11.043 -0.8192  0.4425  1.2533
 9498SOL    HW237463   1.370   7.894  10.954  0.4228 -1.0595 -1.4304
 9499SOL     OW37464   6.909   5.902  11.038 -0.2510 -0.1973  0.1451
 9499SOL    HW137465   6.881   5.991  11.059 -1.0081  0.1248 -2.0228
 9499SOL    HW237466   6.839   5.867  10.984  0.9935 -1.3618 -0.7725
 9500SOL     OW37467  11.792   6.298   7.575  0.5042 -0.7121  0.3399
 9500SOL    HW137468  11.885   6.301   7.597  0.0473 -0.2703  2.4614
 9500SOL    HW237469  11.763   6.212   7.606  0.6100 -1.8843 -2.4793
 9501SOL     OW37470   1.048   1.817   8.378 -0.1102  0.7567 -0.4388
 9501SOL    HW137471   0.958   1.783   8.386  0.0832  0.6323  2.4220
 9501SOL    HW237472   1.074   1.797   8.288 -2.5969 -0.0657 -1.0521
 9502SOL     OW37473   1.639   1.051   4.687 -0.1599  0.1825 -0.6706
 9502SOL    HW137474   1.707   1.063   4.753 -0.3207  0.5014 -0.5636
 9502SOL    HW237475   1.667   0.973   4.638  0.2567  0.2831 -0.5957
 9503SOL     OW37476   3.335   6.282   8.134 -0.1567  0.0237  0.7917
 9503SOL    HW137477   3.400   6.300   8.066 -1.0029  0.0425 -0.0431
 9503SOL    HW237478   3.384   6.284   8.216  1.0129 -0.6179  0.1369
 9504SOL     OW37479   1.062   7.719  10.159 -0.3300  0.3210 -0.6273
 9504SOL    HW137480   0.971   7.710  10.186 -0.4053 -1.1308 -1.2583
 9504SOL    HW237481   1.091   7.802  10.197 -1.1308 -0.4489  1.8199
 9505SOL     OW37482   2.557   8.434   2.559 -0.2682 -0.3471 -0.1303
 9505SOL    HW137483   2.525   8.482   2.635  0.2135 -0.7600  0.3487
 9505SOL    HW237484   2.643   8.472   2.541 -1.0061  0.7889 -1.4372
 9506SOL     OW37485   2.426   9.700   8.316  0.2300  0.0329 -0.1347
 9506SOL    HW137486   2.405   9.688   8.223 -2.3435  0.2856  0.3275
 9506SOL    HW237487   2.449   9.793   8.323  0.6841 -0.0420 -0.5338
 9507SOL     OW37488   6.291   5.253   4.551  0.0831 -0.2360 -0.6564
 9507SOL    HW137489   6.332   5.219   4.631  0.0664  0.8849 -0.1549
 9507SOL    HW237490   6.239   5.180   4.518  1.0057 -1.0900 -0.2932
 9508SOL     OW37491   5.828   2.247   6.083 -0.1270  0.6914  0.4032
 9508SOL    HW137492   5.782   2.279   6.006 -1.2359 -0.8932  0.3470
 9508SOL    HW237493   5.761   2.242   6.151  0.7074  1.4828  1.3138
 9509SOL     OW37494   9.516  12.006   7.244 -0.0255  0.1105  0.0456
 9509SOL    HW137495   9.422  11.985   7.250 -0.0164  0.0841  0.0956
 9509SOL    HW237496   9.551  11.982   7.329  0.3286 -1.4339 -0.5031
 9510SOL     OW37497   1.463   4.870   2.766 -0.3375  0.3084  0.4442
 9510SOL    HW137498   1.437   4.962   2.758 -1.2288  0.0261  0.0186
 9510SOL    HW237499   1.381   4.821   2.759  0.2667 -0.5920 -0.7968
 9511SOL     OW37500  12.089   4.439   9.914  0.1276 -0.5289 -0.0006
 9511SOL    HW137501  12.151   4.507   9.886 -1.3525  0.9390  0.1157
 9511SOL    HW237502  12.063   4.465  10.002 -0.5811 -1.1794 -0.0132
 9512SOL     OW37503  11.463   5.067   4.594 -0.7338  0.5109  0.5390
 9512SOL    HW137504  11.444   4.974   4.594  0.7361  0.1363 -1.4615
 9512SOL    HW237505  11.380   5.109   4.573 -0.9130 -0.5425 -0.9726
 9513SOL     OW37506   7.536  11.069   0.133  0.5082  0.8020 -0.0397
 9513SOL    HW137507   7.461  11.027   0.089 -0.2537  1.6302  0.4289
 9513SOL    HW237508   7.612  11.018   0.105 -0.2485 -0.1700 -0.3986
 9514SOL     OW37509   5.026  11.061   1.409  0.1177  0.2866  0.5716
 9514SOL    HW137510   5.076  11.005   1.470  1.0163 -0.4904 -0.8152
 9514SOL    HW237511   5.080  11.140   1.400 -0.1026  0.4773  0.9106
 9515SOL     OW37512   1.248   0.133  11.624  0.5512  0.2409  0.4584
 9515SOL    HW137513   1.155   0.110  11.621  0.4486  0.7240 -0.1910
 9515SOL    HW237514   1.266   0.146  11.717 -0.0155  0.0809  0.5967
 9516SOL     OW37515   3.784   0.076  11.986  1.0685 -0.7211 -0.1709
 9516SOL    HW137516   3.794   0.003  12.047  0.0226 -1.5758 -0.9734
 9516SOL    HW237517   3.690   0.095  11.987  1.3240  0.6110 -0.0041
 9517SOL     OW37518  10.119   2.413   6.665  0.1250 -0.4685 -0.1493
 9517SOL    HW137519  10.156   2.403   6.577  0.1792 -0.3975 -0.1342
 9517SOL    HW237520  10.192   2.398   6.724  0.0398 -0.7427 -0.1107
 9518SOL     OW37521  10.659   5.846   7.090  0.5699  0.0204 -0.3940
 9518SOL    HW137522  10.726   5.787   7.055  1.7064 -0.5073  2.3712
 9518SOL    HW237523  10.584   5.833   7.032  0.2795 -5.2009  0.5830
 9519SOL     OW37524   9.424   6.998   9.260 -0.0403  0.2179  0.1862
 9519SOL    HW137525   9.400   7.081   9.219  0.7534 -0.8811 -2.7315
 9519SOL    HW237526   9.348   6.942   9.249 -0.2155  0.2138  1.2665
 9520SOL     OW37527   4.071   4.109   0.875  0.6724  0.3718  0.3111
 9520SOL    HW137528   4.143   4.142   0.927  0.6671 -2.5371  2.4383
 9520SOL    HW237529   4.111   4.081   0.792  1.1007  2.8805 -0.3910
 9521SOL     OW37530   0.985   8.878   0.032 -0.0624  0.2030 -0.2212
 9521SOL    HW137531   0.949   8.837  -0.046 -0.2802 -0.0533  0.0113
 9521SOL    HW237532   0.923   8.857   0.101 -1.3796  2.7749 -0.4959
 9522SOL     OW37533   9.352   3.194   2.666 -0.0263  0.0684 -0.3895
 9522SOL    HW137534   9.446   3.211   2.672 -0.1036  0.0873  1.2518
 9522SOL    HW237535   9.340   3.109   2.709 -0.9389  0.8620  1.0265
 9523SOL     OW37536   1.512   2.335   8.431 -0.8859 -0.3707 -0.6038
 9523SOL    HW137537   1.425   2.365   8.402 -1.6575 -3.6258 -2.0919
 9523SOL    HW237538   1.505   2.240   8.433  3.3069 -0.9778 -3.0783
 9524SOL     OW37539   6.771   0.217  12.271 -0.5358  0.0875 -0.1937
 9524SOL    HW137540   6.794   0.230  12.179 -3.2885  0.1725 -0.9632
 9524SOL    HW237541   6.775   0.122  12.283 -0.6184  0.0361 -0.5419
 9525SOL     OW37542  10.209  10.471  11.281 -0.2355 -0.1337 -0.1177
 9525SOL    HW137543  10.227  10.533  11.352 -2.1659  0.4537 -0.0896
 9525SOL    HW237544  10.115  10.455  11.286 -0.1567 -1.2991 -1.5855
 9526SOL     OW37545   3.286  11.561   0.854  0.2784  0.0491 -0.5567
 9526SOL    HW137546   3.228  11.580   0.928 -0.1334 -0.1692 -0.8189
 9526SOL    HW237547   3.327  11.477   0.877  0.2488  0.0466 -0.5114
 9527SOL     OW37548   4.319  10.709   5.035  0.5484 -0.6509  0.8522
 9527SOL    HW137549   4.233  10.724   4.996  1.3696 -1.4178 -1.4314
 9527SOL    HW237550   4.367  10.791   5.021  0.4714 -0.5125  1.3715
 9528SOL     OW37551   9.321   1.628   9.753  0.2559  0.4328  0.3052
 9528SOL    HW137552   9.237   1.646   9.794  0.0473 -2.4915  1.3732
 9528SOL    HW237553   9.383   1.683   9.801 -0.6927  0.7400  1.2149
 9529SOL     OW37554   9.346  12.294   9.877 -0.2540  0.1401 -0.0428
 9529SOL    HW137555   9.348  12.302   9.782  0.7415  0.2981 -0.0252
 9529SOL    HW237556   9.389  12.373   9.909  1.2192 -0.8150  0.4562
 9530SOL     OW37557   4.701   5.909   5.004 -0.1256  0.0834 -0.3901
 9530SOL    HW137558   4.784   5.892   4.959 -0.6660 -0.0070 -1.3804
 9530SOL    HW237559   4.698   6.004   5.014 -1.0701  0.3699 -2.7451
 9531SOL     OW37560  12.317  12.003   5.641 -0.6221 -0.3038 -0.2989
 9531SOL    HW137561  12.297  12.093   5.666  0.6467 -0.3218  0.9683
 9531SOL    HW237562  12.405  12.008   5.603 -0.6084 -0.9782 -0.3689
 9532SOL     OW37563   7.856   9.103   6.774 -0.5928 -0.1144  0.2834
 9532SOL    HW137564   7.839   9.133   6.863 -1.1887  1.8547 -0.4160
 9532SOL    HW237565   7.816   9.171   6.719  1.5048 -0.2145 -1.4769
 9533SOL     OW37566   4.626   2.105   9.257 -0.5075 -0.0290 -0.3087
 9533SOL    HW137567   4.683   2.138   9.326 -0.4693  2.2827 -1.3581
 9533SOL    HW237568   4.537   2.118   9.290 -0.5106  1.7108 -0.8724
 9534SOL     OW37569   3.987  11.215  12.251  0.5919  0.6347  0.3660
 9534SOL    HW137570   4.058  11.271  12.220  0.8612 -0.2921 -0.7404
 9534SOL    HW237571   4.031  11.141  12.293  0.2484  1.8131  3.0874
 9535SOL     OW37572   4.475   5.626   6.657  0.5749  0.3754  0.0872
 9535SOL    HW137573   4.527   5.546   6.646  1.8346  1.1008  0.5671
 9535SOL    HW237574   4.488   5.651   6.748 -1.0841  0.2809  0.3697
 9536SOL     OW37575   3.281   2.409   5.316  0.3518 -0.0593  0.0898
 9536SOL    HW137576   3.245   2.359   5.389 -1.2938  1.6310  0.5135
 9536SOL    HW237577   3.293   2.498   5.350 -1.3248  1.0176 -1.8827
 9537SOL     OW37578   9.834  10.602   2.949 -0.3992 -0.3418  0.3196
 9537SOL    HW137579   9.781  10.554   3.012  2.5453 -4.2611  0.2095
 9537SOL    HW237580   9.796  10.581   2.864 -1.3889  0.8453  0.4338
 9538SOL     OW37581   7.985   7.554   4.369  0.3408  0.4261 -0.0377
 9538SOL    HW137582   7.960   7.522   4.282 -0.6250 -0.5240  0.5504
 9538SOL    HW237583   7.939   7.637   4.379  0.7304  0.7101 -0.5568
 9539SOL     OW37584   7.555  12.457   3.760  0.2004  0.3251 -0.1253
 9539SOL    HW137585   7.643  12.419   3.758  0.1166  0.1320 -1.4026
 9539SOL    HW237586   7.496  12.381   3.755 -0.1195  0.3215  2.6626
 9540SOL     OW37587  12.012   4.527   3.227 -0.2264 -0.1140  0.0358
 9540SOL    HW137588  11.995   4.436   3.253  0.3362 -0.6532 -1.3722
 9540SOL    HW237589  12.089   4.553   3.278 -0.4311 -0.4025  0.4946
 9541SOL     OW37590   5.639  11.554   1.224  0.3839 -0.0744  0.1294
 9541SOL    HW137591   5.730  11.534   1.247  0.2526 -0.9044 -0.0382
 9541SOL    HW237592   5.587  11.509   1.291  0.0632 -0.6521 -0.5053
 9542SOL     OW37593   9.082   2.277   1.988 -0.0406 -0.1691 -0.1255
 9542SOL    HW137594   9.164   2.293   1.941 -0.0081 -0.2268 -0.0884
 9542SOL    HW237595   9.039   2.208   1.937  0.3556 -0.7895  0.3633
 9543SOL     OW37596   3.413   4.831  11.202 -0.1766  0.0114 -0.2345
 9543SOL    HW137597   3.502   4.865  11.215  0.0799 -0.1171 -1.5617
 9543SOL    HW237598   3.416   4.787  11.118 -0.9999 -1.7182  0.6026
 9544SOL     OW37599   4.267  12.181  11.988 -0.6798  0.5038  0.4187
 9544SOL    HW137600   4.189  12.144  12.029 -0.8207 -1.1177 -1.1579
 9544SOL    HW237601   4.338  12.156  12.047 -1.0246 -0.6475  0.3812
 9545SOL     OW37602   8.444   0.928  11.467  0.5309 -0.4554  0.2381
 9545SOL    HW137603   8.415   1.019  11.471  0.2268 -0.5640  0.5339
 9545SOL    HW237604   8.420   0.900  11.378 -2.3364 -1.2107  1.1335
 9546SOL     OW37605   8.583   7.113   9.438 -0.1376  0.6367  0.3629
 9546SOL    HW137606   8.546   7.155   9.516  0.6973 -2.1397  2.4034
 9546SOL    HW237607   8.669   7.155   9.428  1.5177 -1.5699  3.5312
 9547SOL     OW37608  10.341   5.382   9.103  0.1381 -0.6507 -0.5086
 9547SOL    HW137609  10.420   5.372   9.156  0.6204 -0.5457 -1.1955
 9547SOL    HW237610  10.328   5.477   9.097  0.4178 -0.6404 -1.0472
 9548SOL     OW37611  12.110  12.132   1.549  0.1464 -0.1854 -0.3785
 9548SOL    HW137612  12.156  12.215   1.559 -0.6818  0.0610  2.5963
 9548SOL    HW237613  12.019  12.157   1.531 -0.1183 -0.3830  0.5906
 9549SOL     OW37614   6.495  12.292   5.863  0.2272 -0.1744 -0.2565
 9549SOL    HW137615   6.402  12.269   5.857  0.4327 -1.1954  0.1947
 9549SOL    HW237616   6.510  12.349   5.788 -1.7316  3.6054  1.9435
 9550SOL     OW37617   2.613  12.174   5.358  0.6777 -0.1833  0.5448
 9550SOL    HW137618   2.584  12.135   5.440 -2.8187 -0.1919 -0.5251
 9550SOL    HW237619   2.605  12.268   5.373  1.0413 -0.1410  0.4938
 9551SOL     OW37620   4.363   0.510  12.407 -0.4990  0.1603 -0.3791
 9551SOL    HW137621   4.316   0.563  12.471  0.9940 -0.1713  1.0445
 9551SOL    HW237622   4.455   0.524  12.427 -0.0205 -0.7920 -1.7859
 9552SOL     OW37623  11.427  11.733   6.997 -0.2972 -0.0505  0.4451
 9552SOL    HW137624  11.426  11.811   6.941  0.7074 -0.2143  0.1713
 9552SOL    HW237625  11.375  11.757   7.074 -0.0088  0.8852  0.3555
 9553SOL     OW37626   2.310   5.839   8.646  0.1517 -0.2873 -0.4034
 9553SOL    HW137627   2.391   5.791   8.663  0.9397  1.4906  1.2978
 9553SOL    HW237628   2.255   5.822   8.722 -1.1508 -1.5120 -1.5620
 9554SOL     OW37629   9.313   3.346   9.137  0.2815 -0.3890  0.1625
 9554SOL    HW137630   9.264   3.277   9.181  0.6393 -0.2996  0.7029
 9554SOL    HW237631   9.356   3.301   9.064  0.5169 -0.7374  0.5128
 9555SOL     OW37632   0.075  12.385  11.300  0.1693  0.2238 -0.4973
 9555SOL    HW137633   0.158  12.344  11.278  0.4761  0.7888 -0.3934
 9555SOL    HW237634   0.013  12.351  11.235  0.6600  0.4561 -1.0883
 9556SOL     OW37635   4.105   1.794  11.028 -1.0207  0.3912 -0.4300
 9556SOL    HW137636   4.049   1.748  11.090  0.6599  0.5795  1.3483
 9556SOL    HW237637   4.141   1.725  10.972 -0.2609 -0.2058  0.7557
 9557SOL     OW37638   3.354  10.049   7.102  0.1662 -0.4625  0.2939
 9557SOL    HW137639   3.342   9.955   7.120 -2.8984 -0.3299 -0.4047
 9557SOL    HW237640   3.364  10.054   7.007  1.8799 -0.1523  0.4685
 9558SOL     OW37641   1.154   6.275  10.721  0.1220  0.4311 -0.3019
 9558SOL    HW137642   1.084   6.292  10.657  0.0228 -1.2034 -0.6895
 9558SOL    HW237643   1.108   6.239  10.797  0.5252 -1.0055 -0.6959
 9559SOL     OW37644   4.050  12.372   5.044 -0.5295 -0.2367 -0.2260
 9559SOL    HW137645   4.112  12.299   5.054 -0.3132  0.0447  0.6266
 9559SOL    HW237646   4.025  12.393   5.134 -1.3810  0.0744 -0.5342
 9560SOL     OW37647  12.135   0.525   0.208 -0.1462  0.7526  0.0909
 9560SOL    HW137648  12.194   0.594   0.237 -1.0557  0.1988  3.7866
 9560SOL    HW237649  12.193   0.456   0.175  1.0625  1.5340  0.5066
 9561SOL     OW37650   8.216   7.180  10.279 -0.0401  0.0977  0.1256
 9561SOL    HW137651   8.185   7.263  10.314  0.2264  0.2830 -0.0745
 9561SOL    HW237652   8.296   7.202  10.232 -1.0334  0.0881 -1.6772
 9562SOL     OW37653   8.641   2.770   4.349 -0.3839 -0.6955 -0.0259
 9562SOL    HW137654   8.700   2.695   4.355 -2.0112 -1.9848  0.8171
 9562SOL    HW237655   8.656   2.819   4.430 -0.4836 -1.0303  0.1962
 9563SOL     OW37656   0.580   0.592   3.321 -0.3174 -0.7308  0.1254
 9563SOL    HW137657   0.511   0.568   3.383 -0.6566  0.8053  0.3831
 9563SOL    HW237658   0.536   0.648   3.257  0.8448  1.0883  0.8330
 9564SOL     OW37659   2.878  10.869   0.657  0.5841  0.6018  0.1394
 9564SOL    HW137660   2.859  10.916   0.575 -1.1679  1.7818  1.1719
 9564SOL    HW237661   2.909  10.937   0.716  2.8365 -0.4051  0.2162
 9565SOL     OW37662   8.019   6.946   7.711 -0.4922  0.0279  0.0008
 9565SOL    HW137663   8.009   6.851   7.714 -0.9395  0.0531  2.9522
 9565SOL    HW237664   8.082   6.962   7.641 -1.8672 -2.2366 -1.9075
 9566SOL     OW37665   0.860   6.327   4.482 -0.6407  0.5903 -0.2320
 9566SOL    HW137666   0.836   6.380   4.558  1.1873  1.6712 -0.3717
 9566SOL    HW237667   0.853   6.387   4.407 -0.1546  0.1770 -0.6158
 9567SOL     OW37668   0.511  11.648   1.414  0.0422  0.1071  0.0303
 9567SOL    HW137669   0.525  11.733   1.454  0.7547 -0.3347  0.7457
 9567SOL    HW237670   0.499  11.588   1.488 -1.8559 -0.2029 -0.4598
 9568SOL     OW37671   1.254   1.849  12.555 -0.0019  0.1432  0.6440
 9568SOL    HW137672   1.229   1.903  12.480  0.0691  0.9772  1.2078
 9568SOL    HW237673   1.171   1.816  12.590 -0.0027 -0.7350 -0.1340
 9569SOL     OW37674   0.148  10.934  11.437  0.0484 -0.1104 -0.5880
 9569SOL    HW137675   0.132  11.013  11.489  1.6352  1.0871 -1.8364
 9569SOL    HW237676   0.173  10.966  11.351  1.1554 -1.9620 -1.0140
 9570SOL     OW37677   9.148   0.748   1.187  0.7646  0.3321 -0.1987
 9570SOL    HW137678   9.159   0.837   1.220 -0.4301 -0.3603  2.3019
 9570SOL    HW237679   9.226   0.702   1.218 -0.2878 -0.2813  1.7221
 9571SOL     OW37680   3.206  10.690   5.032 -0.1993 -0.3845 -0.1963
 9571SOL    HW137681   3.111  10.687   5.018 -0.3869  0.5274  0.8018
 9571SOL    HW237682   3.220  10.635   5.109 -0.4432  2.5078  2.0650
 9572SOL     OW37683   4.816   1.152   6.258  0.6426  0.5288 -0.4347
 9572SOL    HW137684   4.784   1.237   6.227  1.8924  1.2380  0.1413
 9572SOL    HW237685   4.834   1.102   6.179 -0.1569  0.7711 -0.7800
 9573SOL     OW37686   6.556   0.102   8.119  0.2603  0.0517  0.4269
 9573SOL    HW137687   6.644   0.093   8.085 -0.2405 -0.3542 -0.8206
 9573SOL    HW237688   6.568   0.130   8.210  1.6536  0.1902  0.2219
 9574SOL     OW37689  10.261   5.237   4.709  0.2723  0.1502  0.0167
 9574SOL    HW137690  10.299   5.207   4.627  1.9465 -0.6658  1.0199
 9574SOL    HW237691  10.324   5.209   4.776 -2.2380 -1.5629  1.8667
 9575SOL     OW37692  11.903   1.575   8.264  0.3082 -0.0945  0.6014
 9575SOL    HW137693  11.924   1.668   8.267 -0.7407  0.2875 -1.6231
 9575SOL    HW237694  11.969   1.533   8.319  1.6934  1.8179  0.4854
 9576SOL     OW37695   6.950   9.592   3.622  0.3195  0.7927 -0.6188
 9576SOL    HW137696   6.952   9.498   3.641 -2.2337  0.4662 -1.5879
 9576SOL    HW237697   6.889   9.601   3.549  2.1967  3.0202 -2.0840
 9577SOL     OW37698   9.479   1.957   1.158  0.6706  0.1823 -0.3468
 9577SOL    HW137699   9.539   1.915   1.095  1.5218  1.1841 -0.2273
 9577SOL    HW237700   9.443   1.884   1.208 -0.1988 -0.6652 -2.1204
 9578SOL     OW37701   4.867   3.206   1.155 -0.4431 -0.0734  0.3028
 9578SOL    HW137702   4.919   3.170   1.227 -1.8544 -1.0295  0.8821
 9578SOL    HW237703   4.811   3.272   1.196  1.4681  2.2543 -0.6036
 9579SOL     OW37704   4.036   5.601  10.715 -0.0209  0.6638 -0.2913
 9579SOL    HW137705   4.024   5.591  10.810 -0.4646  3.4184  0.0174
 9579SOL    HW237706   4.068   5.691  10.704 -0.6341  0.6428 -2.8087
 9580SOL     OW37707  10.873   5.399  11.367  0.1663 -0.0159 -0.4257
 9580SOL    HW137708  10.889   5.490  11.344 -0.4961  0.1366 -0.3069
 9580SOL    HW237709  10.836   5.360  11.288  0.9659 -0.3303 -0.6573
 9581SOL     OW37710   9.236   1.855  10.610 -0.2400  0.1017  0.0636
 9581SOL    HW137711   9.180   1.807  10.549  0.6917 -2.3006  0.9989
 9581SOL    HW237712   9.303   1.895  10.555 -1.6434  1.3314 -0.8477
 9582SOL     OW37713  11.366  10.802   9.270 -0.7331  0.5336  0.3235
 9582SOL    HW137714  11.318  10.876   9.308 -0.1384  1.8843 -1.4185
 9582SOL    HW237715  11.324  10.788   9.185  0.3399  0.0945 -0.1485
 9583SOL     OW37716   9.404   7.434   0.117 -0.5251  0.0117 -0.4052
 9583SOL    HW137717   9.368   7.521   0.101  1.1907  1.2170  1.6433
 9583SOL    HW237718   9.495   7.440   0.087 -0.3635 -1.0690 -0.1904
 9584SOL     OW37719  12.012   2.963   2.095 -0.8252  0.3751  0.2965
 9584SOL    HW137720  11.929   2.944   2.138 -1.1380  0.4488 -0.2647
 9584SOL    HW237721  12.021   3.058   2.100 -2.8890  0.9628 -3.3226
 9585SOL     OW37722   1.488   7.675   5.315 -0.2150 -0.3354  0.4197
 9585SOL    HW137723   1.579   7.703   5.313 -0.1356 -0.3891  2.0702
 9585SOL    HW237724   1.469   7.648   5.225  1.1537  0.3927 -0.1163
 9586SOL     OW37725   9.821   0.367   1.234  0.0612 -0.1347 -0.7710
 9586SOL    HW137726   9.872   0.440   1.200 -0.5322  0.4764 -0.3601
 9586SOL    HW237727   9.878   0.291   1.221  0.4865  0.3165 -1.6392
 9587SOL     OW37728   9.101   5.454  11.682  0.3592 -0.4981  0.2914
 9587SOL    HW137729   9.186   5.411  11.690  0.0844 -1.1917 -0.4808
 9587SOL    HW237730   9.111   5.514  11.608 -0.4159 -2.0775 -1.1657
 9588SOL     OW37731   6.424   3.204   9.143 -0.8468 -0.5045 -0.2079
 9588SOL    HW137732   6.362   3.259   9.095  0.1975  1.1831  0.2969
 9588SOL    HW237733   6.501   3.199   9.087 -0.1367  0.3627  0.6364
 9589SOL     OW37734   1.961   4.994   8.626 -0.3160 -0.3693  0.3325
 9589SOL    HW137735   1.871   4.967   8.608 -0.5091  0.1023  0.5857
 9589SOL    HW237736   1.956   5.040   8.710 -0.0043  0.5331 -0.1395
 9590SOL     OW37737   0.063   6.590  10.586 -0.2975 -0.3177  0.0089
 9590SOL    HW137738  -0.012   6.535  10.608 -0.8584  0.8739  1.2559
 9590SOL    HW237739   0.038   6.677  10.617  0.9240  0.4564 -1.0851
 9591SOL     OW37740   1.027   2.225   0.524  0.3883  0.0635 -0.2102
 9591SOL    HW137741   0.958   2.178   0.477  1.5588 -0.0790 -1.8730
 9591SOL    HW237742   1.053   2.295   0.464  0.9237  0.8197  0.8719
 9592SOL     OW37743   2.352   4.097   8.887 -0.5538  0.1295 -0.5983
 9592SOL    HW137744   2.349   4.029   8.820 -0.8055 -1.6982  1.1912
 9592SOL    HW237745   2.262   4.129   8.893 -0.9959 -1.2449  0.3595
 9593SOL     OW37746   6.944   3.892   3.798  0.0237  0.3227 -0.2336
 9593SOL    HW137747   6.996   3.953   3.745 -0.2072  0.1314 -0.6810
 9593SOL    HW237748   7.004   3.820   3.817  0.5471  1.0396  0.9620
 9594SOL     OW37749   8.627   6.217  12.321 -0.3872 -0.1749  0.0220
 9594SOL    HW137750   8.628   6.153  12.249  0.5761 -0.5841  0.3784
 9594SOL    HW237751   8.605   6.165  12.398 -0.9463  0.1781  0.1039
 9595SOL     OW37752   9.630   2.294   8.855  0.0843 -0.2763  0.1226
 9595SOL    HW137753   9.605   2.345   8.777 -3.2715 -0.6351  0.8358
 9595SOL    HW237754   9.607   2.350   8.929  1.3026 -0.7735  0.9045
 9596SOL     OW37755   3.310   4.994   8.852 -0.8027 -0.6960 -0.5572
 9596SOL    HW137756   3.361   5.035   8.922 -1.5407 -1.9274  0.7361
 9596SOL    HW237757   3.252   5.064   8.820 -0.0723  0.0230 -0.3408
 9597SOL     OW37758   5.931   5.945   8.464 -0.3324 -0.0656 -0.3626
 9597SOL    HW137759   5.900   5.907   8.546 -0.9151  2.6673  0.8094
 9597SOL    HW237760   5.852   5.956   8.411 -0.4246  0.8409 -0.0611
 9598SOL     OW37761   6.845  11.436   2.110  0.3310 -0.4555 -0.4314
 9598SOL    HW137762   6.894  11.518   2.116 -0.4898  0.0803 -0.8788
 9598SOL    HW237763   6.892  11.384   2.044  2.7358 -1.7132  2.0862
 9599SOL     OW37764   0.965   5.468   5.585  0.2117  0.5968  0.1473
 9599SOL    HW137765   1.005   5.423   5.511 -1.6818  4.1529 -3.3627
 9599SOL    HW237766   1.035   5.524   5.620  0.5272  0.5391 -0.3901
 9600SOL     OW37767  12.294  10.322   6.768 -0.1409 -0.1432 -0.3743
 9600SOL    HW137768  12.382  10.295   6.744  1.3867  2.0342  2.1693
 9600SOL    HW237769  12.267  10.383   6.700  0.2171 -0.9676 -1.2692
 9601SOL     OW37770   2.341   7.063   0.943  0.0225 -0.5071 -0.1562
 9601SOL    HW137771   2.428   7.033   0.915  0.8736  1.0747  0.6445
 9601SOL    HW237772   2.305   7.106   0.865  0.5976  0.1401 -0.0765
 9602SOL     OW37773   7.070   1.474   2.659 -0.7930 -0.2651  0.0616
 9602SOL    HW137774   7.147   1.507   2.612  0.0042 -1.5999  0.3945
 9602SOL    HW237775   7.014   1.438   2.590  0.5751 -2.6259  0.1024
 9603SOL     OW37776   2.205   3.369   7.313  0.2601 -0.0537  0.1653
 9603SOL    HW137777   2.214   3.358   7.219 -2.4414 -1.8645  0.0109
 9603SOL    HW237778   2.194   3.464   7.325 -0.5131  0.1055 -1.4913
 9604SOL     OW37779   5.357  11.263   1.601  0.3392  0.4489 -0.4118
 9604SOL    HW137780   5.324  11.273   1.512  0.1479 -1.1654 -0.5413
 9604SOL    HW237781   5.322  11.179   1.631  2.1433 -0.0629  0.4021
 9605SOL     OW37782   0.075   6.324  10.007  0.6140  0.3431  0.6530
 9605SOL    HW137783   0.011   6.281   9.950  1.5019 -0.8131  0.5177
 9605SOL    HW237784   0.022   6.387  10.057 -0.4435  0.2165 -0.2499
 9606SOL     OW37785   6.593   7.116   0.598 -0.3482 -0.2618  0.6084
 9606SOL    HW137786   6.510   7.103   0.645 -0.7510  1.5194  0.4363
 9606SOL    HW237787   6.657   7.067   0.650 -0.7983  1.5418  3.0173
 9607SOL     OW37788   4.118   8.239   2.284 -0.2356 -0.2192  0.6365
 9607SOL    HW137789   4.212   8.256   2.288 -0.0209 -0.7321 -1.1236
 9607SOL    HW237790   4.078   8.321   2.313  0.7871  1.5180 -2.3485
 9608SOL     OW37791   1.789  10.263  12.053 -0.2654  0.0273  0.2756
 9608SOL    HW137792   1.826  10.199  11.992 -2.1705 -0.1153 -0.8105
 9608SOL    HW237793   1.748  10.211  12.121 -2.2443  0.0122 -0.8672
 9609SOL     OW37794   8.160   8.420  12.446 -0.0050 -0.1134  0.2165
 9609SOL    HW137795   8.181   8.421  12.353  0.6099 -0.1856  0.3531
 9609SOL    HW237796   8.237   8.382  12.488 -0.6065 -0.8548  0.6719
 9610SOL     OW37797   9.371   8.605   0.410 -0.4710 -0.3198 -0.2303
 9610SOL    HW137798   9.415   8.579   0.329  1.0104  1.2188  0.0440
 9610SOL    HW237799   9.278   8.587   0.393 -0.4007  1.2547 -2.8347
 9611SOL     OW37800   5.414   6.489   0.983  0.5214  0.2207 -0.5051
 9611SOL    HW137801   5.504   6.516   0.998  1.5758  0.3836 -5.4283
 9611SOL    HW237802   5.364   6.571   0.981  0.9091  0.4475 -0.9471
 9612SOL     OW37803   8.314   9.480   7.990 -0.3882 -0.0731  0.5966
 9612SOL    HW137804   8.274   9.467   7.904 -0.6082  1.0976  0.4933
 9612SOL    HW237805   8.404   9.451   7.980  0.1364  1.7707 -0.6204
 9613SOL     OW37806   7.446   7.286   2.118 -0.0403 -0.3185 -0.0632
 9613SOL    HW137807   7.370   7.229   2.129  1.0047 -2.6977 -3.3803
 9613SOL    HW237808   7.519   7.225   2.104  1.8462  1.8681 -0.3146
 9614SOL     OW37809   1.610   8.358   9.029 -0.1994  0.2525  0.5327
 9614SOL    HW137810   1.591   8.272   9.066 -0.5224  1.3925  3.2371
 9614SOL    HW237811   1.537   8.376   8.971 -1.0967 -0.5363  1.3901
 9615SOL     OW37812   6.113   5.707   1.528 -0.2175  0.0028  0.1711
 9615SOL    HW137813   6.087   5.617   1.510  0.1149 -0.4758  1.9112
 9615SOL    HW237814   6.043   5.760   1.489 -0.9489 -1.0441  0.0179
 9616SOL     OW37815  11.869   7.347   0.764 -0.1562  0.1734  0.0986
 9616SOL    HW137816  11.774   7.350   0.765 -0.2306 -1.3313  0.8456
 9616SOL    HW237817  11.896   7.426   0.718 -1.7359  1.1006  0.7194
 9617SOL     OW37818  11.987   0.048   4.999 -0.9236 -0.0870 -0.0446
 9617SOL    HW137819  12.074   0.009   5.001 -0.9998 -0.2672 -0.2764
 9617SOL    HW237820  11.991   0.111   4.927 -0.9686 -0.0607 -0.0239
 9618SOL     OW37821   0.380  12.586   0.554 -0.2029  0.0193 -0.5803
 9618SOL    HW137822   0.453  12.536   0.518 -0.5279  0.2313 -1.5719
 9618SOL    HW237823   0.369  12.552   0.643  1.3030  0.2221 -0.2936
 9619SOL     OW37824  11.804   0.855   8.550  0.4174  0.1626 -0.9243
 9619SOL    HW137825  11.711   0.871   8.570  0.3167 -0.9856 -0.3716
 9619SOL    HW237826  11.817   0.896   8.465 -0.6134  0.3011 -1.0376
 9620SOL     OW37827   4.498  11.113  12.256 -0.3978 -0.0231 -0.0282
 9620SOL    HW137828   4.456  11.177  12.315 -0.8968 -0.4221  0.0588
 9620SOL    HW237829   4.588  11.145  12.246 -0.8281  1.0730 -0.5356
 9621SOL     OW37830  10.624   2.361   8.704 -0.1634 -0.1226  0.1798
 9621SOL    HW137831  10.564   2.295   8.669 -1.6715  1.0207  0.4827
 9621SOL    HW237832  10.571   2.441   8.709  1.6719  1.2055 -0.4500
 9622SOL     OW37833  10.759   4.562   0.453 -0.0398 -0.1281  0.7528
 9622SOL    HW137834  10.757   4.644   0.403  0.6182 -0.0843  0.7884
 9622SOL    HW237835  10.684   4.568   0.512 -0.5431  0.0324  0.1102
 9623SOL     OW37836   1.036   7.383   6.486  0.2262  0.0206 -0.2050
 9623SOL    HW137837   1.076   7.373   6.399  2.5447 -0.5397  0.8429
 9623SOL    HW237838   0.978   7.459   6.477  1.6725  1.0182 -1.8338
 9624SOL     OW37839   2.498   9.236  10.370  0.0347  0.1855 -1.1512
 9624SOL    HW137840   2.533   9.275  10.289 -2.2792  0.9321 -1.8746
 9624SOL    HW237841   2.410   9.206  10.346 -0.2509 -0.6974  0.8028
 9625SOL     OW37842   6.463   5.072   5.665 -0.4741 -0.1832 -0.7242
 9625SOL    HW137843   6.382   5.105   5.625  0.7287  1.9664 -1.5419
 9625SOL    HW237844   6.433   5.023   5.742 -2.5508  0.5531 -0.9885
 9626SOL     OW37845  10.391   1.180   5.629 -0.6249  0.0038  0.0948
 9626SOL    HW137846  10.350   1.218   5.707 -1.4852  0.3296 -0.5060
 9626SOL    HW237847  10.322   1.127   5.589 -0.2762  0.0738 -0.6118
 9627SOL     OW37848   9.823  11.513   8.644  0.4321  0.2643  0.9584
 9627SOL    HW137849   9.744  11.459   8.649 -0.8041  1.9979  0.8611
 9627SOL    HW237850   9.797  11.590   8.593  2.7895 -0.0799 -0.9183
 9628SOL     OW37851   8.903   4.997   2.501  0.0849  0.2880  0.3445
 9628SOL    HW137852   8.926   5.001   2.408  0.9447  0.5709  0.5526
 9628SOL    HW237853   8.911   4.904   2.524 -2.4068 -0.1609 -0.3816
 9629SOL     OW37854   8.837   1.464   0.008 -0.5119  0.2345 -0.4708
 9629SOL    HW137855   8.817   1.381   0.051  0.0108 -0.2700 -1.1736
 9629SOL    HW237856   8.812   1.531   0.071 -2.2819 -0.4060 -0.4404
 9630SOL     OW37857   7.563  11.279  10.197 -0.0152  0.1151 -0.1704
 9630SOL    HW137858   7.572  11.188  10.226  0.8954  0.7621  1.8258
 9630SOL    HW237859   7.535  11.326  10.276 -0.3351  1.5948 -1.1252
 9631SOL     OW37860   1.623   2.862  11.045 -0.2099  0.3010 -0.0358
 9631SOL    HW137861   1.694   2.798  11.041 -0.8372 -0.6025  1.9422
 9631SOL    HW237862   1.629   2.910  10.962  0.6564 -1.9156 -1.3456
 9632SOL     OW37863  12.514   8.406  10.074 -0.3230  0.0735 -0.3231
 9632SOL    HW137864  12.474   8.492  10.089 -1.2527 -0.2749 -0.7292
 9632SOL    HW237865  12.486   8.354  10.150 -0.1366 -0.0011 -0.3058
 9633SOL     OW37866   4.098   0.559   5.716  0.6754 -0.2693 -0.3233
 9633SOL    HW137867   4.119   0.550   5.809 -0.1404  0.6334 -0.0493
 9633SOL    HW237868   4.184   0.569   5.674  1.0493 -0.6672  0.3225
 9634SOL     OW37869  10.162  11.189  11.734 -0.2317  0.7176 -0.3625
 9634SOL    HW137870  10.237  11.169  11.677  0.6986  1.0882  0.6911
 9634SOL    HW237871  10.157  11.284  11.736 -0.6444  0.6979 -0.3134
 9635SOL     OW37872   7.117   3.797   0.062 -0.1506  0.0683 -0.0355
 9635SOL    HW137873   7.076   3.722   0.020  1.0793 -1.4277  1.2796
 9635SOL    HW237874   7.047   3.837   0.115  0.0063 -2.6331  2.4539
 9636SOL     OW37875   4.344   4.992   5.838  0.1877 -0.4938 -0.2567
 9636SOL    HW137876   4.398   5.071   5.849 -0.3670 -0.2257  0.7072
 9636SOL    HW237877   4.379   4.949   5.760 -0.3353  1.3975 -1.6083
 9637SOL     OW37878   9.305   7.331   0.324  0.2954  0.3294 -0.4164
 9637SOL    HW137879   9.319   7.399   0.389  3.3405 -1.0128  0.4751
 9637SOL    HW237880   9.338   7.369   0.242 -0.3313  0.7669 -0.4783
 9638SOL     OW37881   4.043  11.483   5.625 -0.7832  0.5798 -0.3039
 9638SOL    HW137882   4.112  11.547   5.609  1.6518 -1.1581  2.2098
 9638SOL    HW237883   4.009  11.506   5.712 -1.4354 -0.2195 -0.3312
 9639SOL     OW37884   2.816   8.726   7.516 -0.1862  0.4776 -0.2166
 9639SOL    HW137885   2.777   8.687   7.438  0.6722  1.8596 -1.3831
 9639SOL    HW237886   2.798   8.819   7.509  0.4351  0.7107  0.9421
 9640SOL     OW37887  10.824   0.903   0.506  0.8104  0.2935 -0.0764
 9640SOL    HW137888  10.762   0.903   0.580 -1.0004 -1.6329 -1.4837
 9640SOL    HW237889  10.897   0.957   0.537 -0.0493 -0.0497  2.9488
 9641SOL     OW37890   0.427   9.902   9.403  0.5616 -0.2913 -0.5956
 9641SOL    HW137891   0.412   9.808   9.394 -0.0774 -0.6264  2.6148
 9641SOL    HW237892   0.505   9.908   9.459 -0.7185  0.9515  1.1965
 9642SOL     OW37893  11.278   3.481   9.160  0.0092  0.1988 -0.4364
 9642SOL    HW137894  11.317   3.550   9.213 -1.4728 -0.1961  1.2579
 9642SOL    HW237895  11.345   3.412   9.159  0.3368  0.4925  0.3395
 9643SOL     OW37896   8.163   4.461   7.641 -0.3647 -0.5653 -0.6443
 9643SOL    HW137897   8.176   4.426   7.729 -1.9471  0.2502 -0.0457
 9643SOL    HW237898   8.231   4.529   7.632 -1.6065  0.9767  0.9050
 9644SOL     OW37899   3.313   6.452   2.875  0.6603 -0.1122  0.4489
 9644SOL    HW137900   3.348   6.375   2.830 -1.8189 -1.7056  1.0069
 9644SOL    HW237901   3.299   6.422   2.965 -0.5086  0.9368  0.6447
 9645SOL     OW37902  10.799   6.084   6.887 -0.0586  0.4056  0.2153
 9645SOL    HW137903  10.792   6.074   6.982  1.0394  0.2172  0.2841
 9645SOL    HW237904  10.766   6.001   6.852 -0.6380  0.5456  0.4194
 9646SOL     OW37905   4.662   9.481   0.150 -0.1461 -0.2611 -0.1045
 9646SOL    HW137906   4.594   9.527   0.100 -0.9682 -1.1607  0.1768
 9646SOL    HW237907   4.628   9.393   0.162  0.2783 -0.2223  1.5942
 9647SOL     OW37908   4.521   4.198   7.889 -0.0135  0.2057 -0.5176
 9647SOL    HW137909   4.581   4.181   7.961 -0.2679 -0.7333 -0.5033
 9647SOL    HW237910   4.484   4.284   7.908  0.7001  0.4238 -0.0866
 9648SOL     OW37911   8.598   8.468  11.838  0.0216  0.3753  0.1761
 9648SOL    HW137912   8.581   8.558  11.811  1.9947  1.3823  1.9463
 9648SOL    HW237913   8.688   8.451  11.809  0.0329 -0.6595  0.7514
 9649SOL     OW37914   9.626   3.863   5.737  0.1605  0.0593 -0.6597
 9649SOL    HW137915   9.656   3.845   5.827 -1.9247 -2.9022 -0.3909
 9649SOL    HW237916   9.571   3.940   5.745  0.0249 -0.1424  0.6126
 9650SOL     OW37917   0.883   9.050  12.394 -0.2989  0.3373 -0.4069
 9650SOL    HW137918   0.869   8.957  12.411  0.0065  0.3303 -0.1851
 9650SOL    HW237919   0.977   9.057  12.375 -0.7762  0.1784 -3.2434
 9651SOL     OW37920  12.439  10.245   1.097 -0.2312  0.1735  0.0184
 9651SOL    HW137921  12.411  10.205   1.180  0.1655  1.2048  0.6767
 9651SOL    HW237922  12.512  10.302   1.122 -0.2777  0.7009 -1.0062
 9652SOL     OW37923   2.593   1.404   3.122  0.6269 -0.1266 -0.2729
 9652SOL    HW137924   2.544   1.326   3.096  0.2008  0.0994 -0.1415
 9652SOL    HW237925   2.565   1.472   3.062 -0.7357  0.5345  1.0432
 9653SOL     OW37926   5.488   7.468   9.223  0.2888 -0.3475  0.0030
 9653SOL    HW137927   5.577   7.441   9.244 -0.2310 -0.0121  3.0562
 9653SOL    HW237928   5.435   7.389   9.234 -0.2471  0.2268  2.0132
 9654SOL     OW37929  10.891   0.240   2.465  0.1611  0.4058  0.0970
 9654SOL    HW137930  10.970   0.291   2.447  0.8120 -0.0276  1.5702
 9654SOL    HW237931  10.829   0.303   2.500  0.4341  0.4672  0.4793
 9655SOL     OW37932   1.649   2.570   0.538 -0.2870  0.0962 -0.6872
 9655SOL    HW137933   1.611   2.500   0.591 -0.0077  0.3431 -0.1567
 9655SOL    HW237934   1.688   2.524   0.463  2.8612 -0.7759  1.2506
 9656SOL     OW37935   5.928   8.624   7.291 -0.3858 -0.0072 -0.5569
 9656SOL    HW137936   5.906   8.585   7.376 -3.2651  1.7489 -0.3611
 9656SOL    HW237937   5.861   8.592   7.232  0.7922 -0.1146 -1.8909
 9657SOL     OW37938   2.377  11.506   6.877 -0.5873 -0.0036  0.6126
 9657SOL    HW137939   2.347  11.416   6.887 -2.4980  0.4593 -0.4720
 9657SOL    HW237940   2.458  11.500   6.827 -1.0775 -1.0901 -0.0792
 9658SOL     OW37941  12.320   6.229  10.773 -0.0507 -0.2446 -0.0604
 9658SOL    HW137942  12.238   6.277  10.778  0.5480  0.6755  1.3234
 9658SOL    HW237943  12.341   6.206  10.864  1.3057 -0.3207 -0.3676
 9659SOL     OW37944   0.266   2.048   6.979 -0.4885 -0.2520  0.3717
 9659SOL    HW137945   0.292   2.066   7.070 -0.3246 -2.2404  0.7537
 9659SOL    HW237946   0.325   2.102   6.926 -0.4665  0.8051  1.4212
 9660SOL     OW37947  11.155   8.657   9.053  0.5007  0.3290 -0.2451
 9660SOL    HW137948  11.246   8.683   9.061  1.2031 -1.4409 -1.6677
 9660SOL    HW237949  11.157   8.582   8.993 -1.9802  0.7287 -0.9232
 9661SOL     OW37950  12.252  11.101   0.512 -0.3122  0.4687  0.0689
 9661SOL    HW137951  12.313  11.168   0.482  0.0068 -0.3108 -1.1138
 9661SOL    HW237952  12.221  11.059   0.431 -0.6775 -0.6421  0.7616
 9662SOL     OW37953   3.671   9.775   2.651  0.3756  0.0550 -0.2890
 9662SOL    HW137954   3.606   9.754   2.583 -1.9772  0.7056  1.6070
 9662SOL    HW237955   3.683   9.693   2.699  0.4520  0.0884 -0.2505
 9663SOL     OW37956   6.389   8.676   5.292 -0.7229  0.5841 -0.4246
 9663SOL    HW137957   6.340   8.720   5.362  0.9591  2.1102 -0.1406
 9663SOL    HW237958   6.360   8.585   5.297 -2.3174  1.0961  0.7618
 9664SOL     OW37959   7.733   1.654   5.010  0.4282 -0.1515 -0.2944
 9664SOL    HW137960   7.676   1.640   4.934  0.8450 -0.3319 -0.5771
 9664SOL    HW237961   7.672   1.665   5.083  0.0312 -2.2430 -0.2387
 9665SOL     OW37962   4.341  12.460   7.556  0.6384 -0.1954  0.7752
 9665SOL    HW137963   4.332  12.411   7.638 -0.4433  0.4151  1.0310
 9665SOL    HW237964   4.379  12.544   7.582 -0.6078  0.3843  0.8181
 9666SOL     OW37965  10.260   3.972   6.855 -0.7941 -0.6697  0.1502
 9666SOL    HW137966  10.184   3.981   6.797 -0.5729 -1.4225 -0.2747
 9666SOL    HW237967  10.230   4.005   6.940 -1.1706  0.3146 -0.3498
 9667SOL     OW37968   0.964   1.483   7.934  0.0313 -0.7058  0.0626
 9667SOL    HW137969   0.982   1.562   7.883  3.2656 -2.2449 -1.5003
 9667SOL    HW237970   0.901   1.434   7.881  0.7322 -0.7252 -0.7800
 9668SOL     OW37971  11.574   7.448  10.728 -0.2629 -0.5255 -0.3103
 9668SOL    HW137972  11.498   7.465  10.784 -2.3984 -1.3464 -2.7734
 9668SOL    HW237973  11.607   7.535  10.707  0.0807 -0.1807  1.4963
 9669SOL     OW37974  12.115   2.948   8.234 -0.3613 -0.2975 -0.5464
 9669SOL    HW137975  12.196   2.903   8.212  0.8995  1.0277  1.1086
 9669SOL    HW237976  12.074   2.893   8.300 -0.9033 -1.0290 -1.4717
 9670SOL     OW37977   2.774   4.546   1.519 -0.1368  0.1851 -0.1111
 9670SOL    HW137978   2.688   4.517   1.548  0.2179  0.5528  1.3980
 9670SOL    HW237979   2.789   4.501   1.436 -1.0397 -1.2332  0.4761
 9671SOL     OW37980   3.973   2.446   6.545 -0.3058 -0.3383  0.1917
 9671SOL    HW137981   3.905   2.510   6.565 -1.9066 -1.8590 -0.1330
 9671SOL    HW237982   4.025   2.440   6.626  0.9200  2.4542 -0.2661
 9672SOL     OW37983   6.746   1.250   8.055  0.7300 -0.3182 -0.7050
 9672SOL    HW137984   6.827   1.200   8.065  0.4318 -1.3765 -3.0747
 9672SOL    HW237985   6.702   1.211   7.980 -2.4565 -0.3580  0.9959
 9673SOL     OW37986   4.370   0.431   3.202 -0.4425  0.0772 -0.0033
 9673SOL    HW137987   4.276   0.441   3.216 -0.3631 -0.5917  1.1262
 9673SOL    HW237988   4.384   0.336   3.199  0.1725  0.1704 -0.3781
 9674SOL     OW37989   0.340   4.065   2.475  0.7086 -0.1917  0.1485
 9674SOL    HW137990   0.288   4.137   2.509 -0.2496  0.1544 -1.8646
 9674SOL    HW237991   0.277   3.994   2.463  0.9428 -0.2202 -1.0451
 9675SOL     OW37992  12.489   3.666   5.694 -0.2687 -0.7390 -0.0138
 9675SOL    HW137993  12.412   3.722   5.691 -0.6534 -1.2890 -0.6994
 9675SOL    HW237994  12.556   3.720   5.735  0.2123  1.2887 -3.1084
 9676SOL     OW37995   0.809   4.538  11.088  0.3810 -0.3335  0.6395
 9676SOL    HW137996   0.723   4.554  11.050  1.0495  2.7834  0.1643
 9676SOL    HW237997   0.846   4.467  11.035 -1.1641 -0.4595 -0.3226
 9677SOL     OW37998   4.269   7.000   2.241  0.2098 -0.3787  0.4740
 9677SOL    HW137999   4.262   7.070   2.176 -0.6090  0.7863  1.7469
 9677SOL    HW238000   4.351   7.019   2.288  1.4534 -1.9182 -0.9185
 9678SOL     OW38001  10.594   9.905   7.533 -0.5422 -0.0459  0.7708
 9678SOL    HW138002  10.618   9.813   7.544 -2.2119 -0.6444 -0.1988
 9678SOL    HW238003  10.665   9.953   7.574  1.0488 -1.7196  0.1203
 9679SOL     OW38004   5.058   7.593   4.155 -0.0694  0.3815 -0.1996
 9679SOL    HW138005   5.090   7.601   4.065  0.9727 -0.5574  0.0699
 9679SOL    HW238006   5.115   7.528   4.195 -1.2223 -0.0231  0.8290
 9680SOL     OW38007   9.945   6.375   4.061 -0.3734 -0.3066 -0.0249
 9680SOL    HW138008   9.990   6.394   3.979  0.3046  0.9811  0.6118
 9680SOL    HW238009  10.014   6.352   4.123 -0.9515 -2.0989 -0.0012
 9681SOL     OW38010   3.300  11.798   9.830 -0.0944 -0.3343 -0.2842
 9681SOL    HW138011   3.253  11.823   9.909  2.3140 -1.8032  1.7922
 9681SOL    HW238012   3.277  11.706   9.816 -0.3370 -0.1438 -1.1881
 9682SOL     OW38013   7.714   1.183   0.303  0.1081 -0.1484 -0.4762
 9682SOL    HW138014   7.701   1.262   0.354  0.1047 -1.0689  1.0230
 9682SOL    HW238015   7.738   1.214   0.216  3.4125  1.5669  0.8522
 9683SOL     OW38016   5.550   1.736   7.957  0.0972 -0.3510 -0.3772
 9683SOL    HW138017   5.468   1.689   7.942  1.2810 -2.5171 -0.3683
 9683SOL    HW238018   5.527   1.806   8.019 -2.0528  0.1588 -1.6729
 9684SOL     OW38019   7.716   1.487   9.548  0.0822  0.3666 -0.7922
 9684SOL    HW138020   7.788   1.452   9.601  0.3569  2.3477  0.2397
 9684SOL    HW238021   7.637   1.458   9.593  0.3029  1.1434  0.1233
 9685SOL     OW38022   8.686   4.388   4.425 -0.2371  0.3564 -0.1691
 9685SOL    HW138023   8.728   4.469   4.396 -1.5246  1.0505 -0.1953
 9685SOL    HW238024   8.757   4.325   4.431  0.4054  0.6104 -3.1852
 9686SOL     OW38025   2.964   1.635   8.186  0.0524  0.2476  0.0608
 9686SOL    HW138026   2.929   1.575   8.120  1.5567  0.8243 -1.3361
 9686SOL    HW238027   2.922   1.719   8.167 -2.4013 -0.3247  2.2952
 9687SOL     OW38028   0.797  11.556   2.973  0.0599 -0.3113 -1.0105
 9687SOL    HW138029   0.746  11.480   3.000 -0.6024  0.4476 -0.0579
 9687SOL    HW238030   0.876  11.553   3.027 -0.4443  0.2332 -0.2311
 9688SOL     OW38031   0.518   7.600  10.589 -0.2466 -0.0494 -0.2367
 9688SOL    HW138032   0.487   7.513  10.564  0.4301 -0.4322  0.2263
 9688SOL    HW238033   0.454   7.630  10.654  0.1660 -0.6950  0.4746
 9689SOL     OW38034  10.622  11.209   7.562 -0.6467 -0.6778 -0.2007
 9689SOL    HW138035  10.624  11.256   7.646 -0.5801  0.5096 -0.8438
 9689SOL    HW238036  10.690  11.142   7.570 -0.0931 -0.0508  0.4027
 9690SOL     OW38037   6.958  11.693  11.801  0.2440 -0.2909 -0.0540
 9690SOL    HW138038   6.949  11.686  11.706  1.3679 -3.2878 -0.0516
 9690SOL    HW238039   7.052  11.684  11.816  0.0392 -0.1984  1.3551
 9691SOL     OW38040   2.867   1.951   8.575  0.2889 -0.2774  0.0037
 9691SOL    HW138041   2.870   2.012   8.501 -0.7336  1.0071  0.9748
 9691SOL    HW238042   2.950   1.964   8.620 -0.7101  1.9458  1.3454
 9692SOL     OW38043  10.639  11.226   4.671 -0.4872 -0.2403 -0.6270
 9692SOL    HW138044  10.547  11.238   4.695 -0.3277 -0.3030  0.0316
 9692SOL    HW238045  10.642  11.140   4.628 -0.8506  0.0615 -1.2586
 9693SOL     OW38046   6.517  11.812   4.943  0.2906  0.2328 -0.7596
 9693SOL    HW138047   6.432  11.770   4.958 -0.1505  0.8510 -1.4967
 9693SOL    HW238048   6.512  11.847   4.854  1.0250  0.9614 -0.5283
 9694SOL     OW38049   4.118  10.222   2.503 -0.9618 -0.0400 -0.0481
 9694SOL    HW138050   4.137  10.235   2.596 -2.0793 -0.3534  0.2469
 9694SOL    HW238051   4.055  10.291   2.482 -0.4304  0.2602 -0.6796
 9695SOL     OW38052   0.738   3.670  10.470 -0.2801 -0.4182 -0.3234
 9695SOL    HW138053   0.725   3.679  10.565 -1.0333  0.3326 -0.4842
 9695SOL    HW238054   0.666   3.614  10.442  1.8178 -3.5641 -0.0084
 9696SOL     OW38055   2.142  11.404  12.024  0.3024  0.4281 -0.1488
 9696SOL    HW138056   2.050  11.376  12.020  0.3107  0.4691 -0.7085
 9696SOL    HW238057   2.191  11.331  11.987  0.4904  0.4150  0.1330
 9697SOL     OW38058  11.498   5.647  10.271  0.4454  0.0040 -0.9461
 9697SOL    HW138059  11.577   5.620  10.224 -0.6319 -0.7557 -2.4116
 9697SOL    HW238060  11.501   5.743  10.270  0.1196  0.0430 -3.2699
 9698SOL     OW38061   7.476   9.086   3.873  0.0664 -0.0588 -0.3824
 9698SOL    HW138062   7.385   9.096   3.900  0.5529 -0.0439  1.3590
 9698SOL    HW238063   7.486   8.993   3.854 -0.8953  0.2705 -3.0427
 9699SOL     OW38064   4.036   0.957   6.570  0.1005 -0.5904  0.0458
 9699SOL    HW138065   3.982   0.964   6.649 -0.5188  0.3674 -0.4440
 9699SOL    HW238066   4.026   1.042   6.527 -1.2031 -1.7588 -2.0958
 9700SOL     OW38067   2.954   4.734   1.765 -0.5094  0.1866 -0.5293
 9700SOL    HW138068   3.010   4.669   1.723  0.1173  0.7708 -0.6094
 9700SOL    HW238069   2.920   4.690   1.843 -0.2193 -0.2862 -0.6660
 9701SOL     OW38070   1.243   0.483   9.757  0.3094  0.5553 -0.3571
 9701SOL    HW138071   1.299   0.441   9.692 -0.5513 -0.7065 -0.3189
 9701SOL    HW238072   1.214   0.564   9.714  2.2204  1.3175 -0.3144
 9702SOL     OW38073  11.744   0.020   5.104 -0.5234 -0.2333 -0.6098
 9702SOL    HW138074  11.719  -0.061   5.149 -0.8037 -0.7186 -1.6154
 9702SOL    HW238075  11.838   0.011   5.088 -0.1188  0.5486  1.0581
 9703SOL     OW38076   3.584   7.372   4.517  0.0905  0.1388  0.6028
 9703SOL    HW138077   3.551   7.400   4.603  0.0585  0.7127  0.4065
 9703SOL    HW238078   3.508   7.374   4.460 -0.0345 -0.9075  0.7063
 9704SOL     OW38079   3.806  11.124  11.228 -0.5442 -0.0220 -0.1810
 9704SOL    HW138080   3.862  11.046  11.229  0.0321  0.3795 -0.3155
 9704SOL    HW238081   3.860  11.193  11.268 -1.6012 -0.0468  1.3537
 9705SOL     OW38082   5.510   6.817   9.751  0.4235 -0.8963 -0.0571
 9705SOL    HW138083   5.454   6.757   9.702  0.8387 -1.8838  0.6599
 9705SOL    HW238084   5.469   6.823   9.837  0.2792  0.0180 -0.1721
 9706SOL     OW38085   7.348  11.912   7.947  0.0353 -0.5728  0.1042
 9706SOL    HW138086   7.314  11.910   7.857 -0.3482 -1.3847  0.2562
 9706SOL    HW238087   7.422  11.852   7.946 -0.3912 -1.1090  0.4924
 9707SOL     OW38088   0.076   8.581  10.622  0.1525 -0.2617 -0.1029
 9707SOL    HW138089   0.130   8.561  10.698 -1.3311 -0.1077  1.0363
 9707SOL    HW238090   0.139   8.598  10.552  1.5471 -1.4579  0.7965
 9708SOL     OW38091  12.037   8.881  10.244  0.1250 -0.6489  0.2616
 9708SOL    HW138092  12.064   8.809  10.300  1.0172 -0.1898  0.4363
 9708SOL    HW238093  12.091   8.955  10.272 -2.4025  0.7766  1.7512
 9709SOL     OW38094   2.691   8.357   2.134  0.0693 -0.4901  0.1782
 9709SOL    HW138095   2.771   8.317   2.099 -0.0106  0.2749 -0.9501
 9709SOL    HW238096   2.641   8.283   2.168  1.5655 -0.8991  1.6053
 9710SOL     OW38097   0.845   1.927   6.033 -0.2671  0.0532 -0.0156
 9710SOL    HW138098   0.818   1.981   6.108  0.6734  0.3328  0.1379
 9710SOL    HW238099   0.870   1.990   5.966 -1.3156 -0.1963 -0.6622
 9711SOL     OW38100   4.925   9.885   2.758 -0.0128 -0.1350  0.0456
 9711SOL    HW138101   4.958   9.911   2.672 -0.3900 -0.1787 -0.1150
 9711SOL    HW238102   4.929   9.790   2.758 -1.2985 -0.2184 -0.4617
 9712SOL     OW38103   4.663   7.616   5.885  0.3510 -0.0447 -0.2363
 9712SOL    HW138104   4.595   7.552   5.909 -0.4812  0.8264 -0.2079
 9712SOL    HW238105   4.615   7.698   5.875  1.3869  0.5446 -0.4211
 9713SOL     OW38106   8.982   4.483   8.469 -0.2802 -0.0147 -0.0384
 9713SOL    HW138107   9.061   4.442   8.433 -1.3358 -1.1008 -1.1721
 9713SOL    HW238108   8.998   4.483   8.564  0.8902 -0.6385 -0.2036
 9714SOL     OW38109  12.256   4.798   0.419  0.2593  0.3072  0.2465
 9714SOL    HW138110  12.204   4.878   0.411  1.0346  0.7984 -0.0078
 9714SOL    HW238111  12.244   4.753   0.335 -0.9490 -0.3397  0.7401
 9715SOL     OW38112   1.697   8.487  11.047  0.2905 -0.2802 -0.1787
 9715SOL    HW138113   1.705   8.497  10.952 -0.2278 -0.0350 -0.1996
 9715SOL    HW238114   1.780   8.520  11.081 -0.1090  1.1106 -0.4626
 9716SOL     OW38115   2.244   0.525   8.179 -0.1018 -0.2412 -0.0731
 9716SOL    HW138116   2.163   0.515   8.130 -1.2451 -0.3484  1.7212
 9716SOL    HW238117   2.305   0.566   8.118 -2.4450  2.7937 -0.6012
 9717SOL     OW38118  11.239  12.367   2.188  0.1902 -0.2498  0.5155
 9717SOL    HW138119  11.271  12.405   2.270  0.1207  1.2660 -0.1364
 9717SOL    HW238120  11.166  12.310   2.215 -0.3098  0.8015  1.4425
 9718SOL     OW38121  10.665  10.721   5.161 -0.5973  0.0917  0.3024
 9718SOL    HW138122  10.688  10.723   5.068 -1.8029 -0.5919 -0.0393
 9718SOL    HW238123  10.675  10.629   5.186 -1.1566  0.1105  0.6067
 9719SOL     OW38124  10.138   5.145   1.575  0.0503  0.4192 -0.2746
 9719SOL    HW138125  10.088   5.079   1.623  1.2088  0.0563  0.4732
 9719SOL    HW238126  10.188   5.191   1.642  1.3545  0.2153 -1.0612
 9720SOL     OW38127   7.667  10.846   9.658 -0.3825  0.0983  0.6004
 9720SOL    HW138128   7.579  10.816   9.636 -1.1091  1.6298  1.2883
 9720SOL    HW238129   7.723  10.772   9.636 -1.9289 -1.2532  1.0064
 9721SOL     OW38130  11.250   7.748   9.318  0.0483 -0.1108  0.4566
 9721SOL    HW138131  11.317   7.808   9.352  0.2192 -0.9549  1.6737
 9721SOL    HW238132  11.282   7.661   9.341 -0.0929 -0.7257 -1.4582
 9722SOL     OW38133   9.081   7.931   2.278 -0.2858  0.1115 -0.0004
 9722SOL    HW138134   9.080   7.986   2.357  0.8504  0.8547 -0.4777
 9722SOL    HW238135   9.029   7.980   2.214 -0.1982  0.0938 -0.0853
 9723SOL     OW38136   7.407   0.297   3.742  0.0801 -0.5587  0.5292
 9723SOL    HW138137   7.468   0.224   3.730 -0.4865 -0.7297 -1.9346
 9723SOL    HW238138   7.321   0.259   3.720 -0.2387  0.7635 -0.6753
 9724SOL     OW38139   1.130   1.839   7.442  0.6304  0.5667  0.0504
 9724SOL    HW138140   1.220   1.815   7.463  0.5468  0.7392  0.6152
 9724SOL    HW238141   1.094   1.761   7.399  1.1464  0.6163 -0.4701
 9725SOL     OW38142   4.257   9.903   7.479  0.5004 -0.3818 -0.4007
 9725SOL    HW138143   4.312   9.906   7.557 -0.2017  2.7805  0.1139
 9725SOL    HW238144   4.179   9.954   7.503 -0.7642 -1.2148 -2.4588
 9726SOL     OW38145   3.192   9.746   7.167  0.1291  0.3136  0.2650
 9726SOL    HW138146   3.228   9.674   7.218  0.2433 -0.3616 -0.7338
 9726SOL    HW238147   3.131   9.790   7.226 -1.9985 -2.2182  0.1225
 9727SOL     OW38148   8.763  12.084   2.490 -0.2918 -0.7323  0.9270
 9727SOL    HW138149   8.756  12.172   2.454 -0.7792  0.1009  2.9342
 9727SOL    HW238150   8.696  12.033   2.444  0.4058 -0.2491 -0.6864
 9728SOL     OW38151   0.619   3.145   5.955  0.2930 -0.1600 -1.0345
 9728SOL    HW138152   0.620   3.172   6.047 -0.0132 -0.1480 -1.0329
 9728SOL    HW238153   0.691   3.082   5.948  0.7960  0.3935 -0.9588
 9729SOL     OW38154   2.412   7.414   8.581  0.0453 -0.3933 -0.2592
 9729SOL    HW138155   2.462   7.371   8.649  1.5644  0.4729 -0.7908
 9729SOL    HW238156   2.462   7.398   8.501  0.4669  1.9873 -0.5333
 9730SOL     OW38157   4.800  12.473  12.208  0.3582  0.6840  0.0007
 9730SOL    HW138158   4.705  12.476  12.223  0.3491  0.8034 -0.0753
 9730SOL    HW238159   4.822  12.562  12.182  0.0766  0.0845 -2.5158
 9731SOL     OW38160  12.238   9.089   1.013  0.0540  0.2666  0.1524
 9731SOL    HW138161  12.272   9.121   1.097  0.6592 -0.5376  0.2297
 9731SOL    HW238162  12.149   9.124   1.008  0.3852  1.2273  0.6196
 9732SOL     OW38163   1.122   8.848   8.904  0.2402 -0.6553  0.4002
 9732SOL    HW138164   1.058   8.918   8.917  1.4116  0.4220  0.5662
 9732SOL    HW238165   1.109   8.790   8.979 -1.4921 -1.2513 -0.3104
 9733SOL     OW38166   3.714   9.524   8.698  0.3297 -0.2813  0.4479
 9733SOL    HW138167   3.639   9.546   8.754  0.0986  1.2940 -0.4163
 9733SOL    HW238168   3.711   9.588   8.627  1.8445 -0.9052 -0.2347
 9734SOL     OW38169   6.753  10.638   5.453 -0.7218 -0.0656  0.0315
 9734SOL    HW138170   6.678  10.691   5.425 -1.0674 -0.8367 -0.5630
 9734SOL    HW238171   6.729  10.606   5.540 -0.8944  0.0486  0.0267
 9735SOL     OW38172   8.365   7.082   3.332 -0.2333  0.2465  0.8221
 9735SOL    HW138173   8.453   7.049   3.348  0.4531  1.0759 -1.0556
 9735SOL    HW238174   8.327   7.020   3.270 -1.4020 -0.7058  2.4230
 9736SOL     OW38175  11.958  10.759   8.255 -0.7173 -0.0054 -0.2808
 9736SOL    HW138176  11.910  10.812   8.192  0.4387  0.1567 -1.0591
 9736SOL    HW238177  11.995  10.823   8.317 -1.1350 -0.0945  0.0673
 9737SOL     OW38178   1.206   0.461  11.397  0.1456 -0.4525  0.2983
 9737SOL    HW138179   1.269   0.488  11.464  0.1125 -1.5797  0.8187
 9737SOL    HW238180   1.257   0.453  11.317  0.5694 -0.8937  0.6097
 9738SOL     OW38181   7.933   7.455   4.981 -0.2127 -0.3929  0.8344
 9738SOL    HW138182   7.869   7.385   4.968  0.1398 -0.8038  1.2568
 9738SOL    HW238183   8.001   7.415   5.035 -1.2694  1.0291  3.3886
 9739SOL     OW38184   4.239   3.821   2.876 -0.0551  0.4274 -0.6175
 9739SOL    HW138185   4.181   3.745   2.877  2.4352 -1.5924 -0.6740
 9739SOL    HW238186   4.294   3.811   2.954  0.7771  1.8378 -0.9733
 9740SOL     OW38187   0.112   8.593   2.066 -0.0675 -0.1645 -0.0818
 9740SOL    HW138188   0.206   8.611   2.065 -0.0089 -0.3818  0.9283
 9740SOL    HW238189   0.104   8.503   2.035 -0.0828  0.3638 -1.6967
 9741SOL     OW38190  12.409   4.188   7.382 -0.5664 -0.0537  0.0642
 9741SOL    HW138191  12.466   4.264   7.368  0.4863 -0.5685  1.3145
 9741SOL    HW238192  12.468   4.113   7.378 -1.2707 -0.6605  0.6914
 9742SOL     OW38193  10.032  12.237  10.557 -0.0123  0.2618  0.1518
 9742SOL    HW138194   9.953  12.292  10.560  0.5851  1.1027  2.0007
 9742SOL    HW238195  10.014  12.167  10.619  0.1505 -0.3719 -0.5035
 9743SOL     OW38196   8.327   7.220   7.689 -0.3597  0.0240 -0.5856
 9743SOL    HW138197   8.233   7.207   7.699 -0.2841  0.1130  0.2846
 9743SOL    HW238198   8.340   7.313   7.706 -0.2483  0.2541 -1.8180
 9744SOL     OW38199   5.965   1.563   1.855  0.6269 -0.4028  0.0580
 9744SOL    HW138200   5.880   1.565   1.810  0.2531  0.4921  0.7848
 9744SOL    HW238201   5.949   1.509   1.933  0.4261  0.6564  0.7647
 9745SOL     OW38202   0.938   6.714   2.043  0.3620 -0.5309 -0.5859
 9745SOL    HW138203   1.013   6.673   2.086 -0.7407 -1.6236  0.3433
 9745SOL    HW238204   0.974   6.749   1.961  1.9833 -0.5713  0.0713
 9746SOL     OW38205  10.400  10.184   0.382  0.4730  0.2124 -0.2253
 9746SOL    HW138206  10.400  10.089   0.388 -1.4343  0.2661  1.4886
 9746SOL    HW238207  10.314  10.206   0.347  0.6137  1.3498  0.0927
 9747SOL     OW38208  10.470  11.330   5.833  0.1662 -0.0272  0.2798
 9747SOL    HW138209  10.514  11.245   5.820 -1.4591 -0.6340 -1.9764
 9747SOL    HW238210  10.391  11.308   5.881 -1.4250 -0.2675 -2.2818
 9748SOL     OW38211   9.788   7.928   8.023  0.7116  0.0460  0.2060
 9748SOL    HW138212   9.845   7.855   7.997 -0.9058 -1.2326  0.0706
 9748SOL    HW238213   9.787   7.985   7.946  1.6030 -0.0254  0.1244
 9749SOL     OW38214   5.386   8.003   6.888 -0.2347  0.8131  0.0746
 9749SOL    HW138215   5.316   7.972   6.830  1.0560 -2.7729  0.1996
 9749SOL    HW238216   5.439   7.926   6.905  2.1986  2.7833  2.2484
 9750SOL     OW38217   6.159  10.700   6.002 -0.0246 -0.7182 -0.1730
 9750SOL    HW138218   6.234  10.682   6.057  0.5146  1.8412  0.0462
 9750SOL    HW238219   6.183  10.666   5.916  0.8141 -1.0912  0.2027
 9751SOL     OW38220   1.170  12.403   4.782  0.1105  0.1251  0.2181
 9751SOL    HW138221   1.116  12.389   4.860 -0.3681  2.7828  0.4467
 9751SOL    HW238222   1.260  12.396   4.813 -0.0791 -0.5931  0.6227
 9752SOL     OW38223   7.995   5.408  10.461  0.4711 -0.3981  0.1191
 9752SOL    HW138224   7.943   5.353  10.519 -0.4322 -1.7666 -1.8880
 9752SOL    HW238225   8.085   5.380  10.474  0.1322 -1.6468 -0.0758
 9753SOL     OW38226  10.115   1.662   2.687 -0.3534 -0.1433 -0.6909
 9753SOL    HW138227  10.120   1.693   2.597 -0.7514 -1.6022 -1.2425
 9753SOL    HW238228  10.098   1.568   2.679  2.1920 -0.8214  0.8867
 9754SOL     OW38229   2.826   7.573  10.041  0.1945  0.0061 -0.4291
 9754SOL    HW138230   2.793   7.623  10.115  0.3164  0.3196 -0.5860
 9754SOL    HW238231   2.819   7.481  10.069 -1.2077  0.0403 -0.6208
 9755SOL     OW38232   1.770  12.038   2.186 -0.1551  0.1721 -0.2308
 9755SOL    HW138233   1.724  12.110   2.230  0.7084  0.0383  0.9299
 9755SOL    HW238234   1.771  11.967   2.250  0.2006 -0.4063 -0.8655
 9756SOL     OW38235  10.133   5.854  12.409 -0.2863  0.3398 -0.2494
 9756SOL    HW138236  10.196   5.802  12.458  1.0532  1.0623 -1.1329
 9756SOL    HW238237  10.060   5.868  12.469  1.4425  1.5088  1.7037
 9757SOL     OW38238  11.227   1.652   2.640 -0.3861  0.0615  0.0217
 9757SOL    HW138239  11.284   1.690   2.706  0.8718  0.4024 -1.2196
 9757SOL    HW238240  11.266   1.677   2.556 -1.0080 -1.7298 -0.8658
 9758SOL     OW38241   5.020   8.848  11.216  0.0484  0.2509 -0.5640
 9758SOL    HW138242   5.023   8.928  11.268  2.0360  0.1834 -0.5295
 9758SOL    HW238243   5.111   8.824  11.202 -0.4907 -2.4563  0.0917
 9759SOL     OW38244   1.727   4.049   8.751 -0.3199  0.1325 -0.2809
 9759SOL    HW138245   1.816   4.032   8.781 -0.1042 -0.7724 -1.3810
 9759SOL    HW238246   1.688   4.100   8.821  0.9323  0.1892  0.4085
 9760SOL     OW38247   2.067   5.428   4.667  0.1425 -0.3115 -0.5715
 9760SOL    HW138248   1.989   5.372   4.664 -1.0224  1.2740 -0.7855
 9760SOL    HW238249   2.079   5.449   4.759  0.7406 -1.0986 -0.4597
 9761SOL     OW38250   3.389   9.421   7.571 -0.2590 -0.1012  0.1626
 9761SOL    HW138251   3.330   9.474   7.624 -2.1861 -0.2579 -1.7155
 9761SOL    HW238252   3.383   9.334   7.608 -0.9729 -0.0466  0.1835
 9762SOL     OW38253   5.737  12.099   7.244  0.2929  0.1809  0.8334
 9762SOL    HW138254   5.790  12.106   7.165 -1.4801  1.1536 -0.3288
 9762SOL    HW238255   5.775  12.163   7.304 -0.8702  2.5382 -0.8119
 9763SOL     OW38256   2.598   8.907   2.783  0.1692 -0.5206  0.0292
 9763SOL    HW138257   2.667   8.953   2.830 -0.2263 -1.2264  1.3647
 9763SOL    HW238258   2.591   8.952   2.699  1.3530  0.3709  0.3907
 9764SOL     OW38259   3.071   1.852   0.990 -0.1707 -0.1676 -0.1865
 9764SOL    HW138260   3.148   1.828   1.041  1.3427  0.9690 -1.7988
 9764SOL    HW238261   3.050   1.774   0.939 -0.8331 -0.8563  1.1111
 9765SOL     OW38262  11.499  12.197  10.340 -0.0916  0.0766 -0.0680
 9765SOL    HW138263  11.499  12.280  10.292  2.7727  1.0763  1.4326
 9765SOL    HW238264  11.489  12.223  10.432  1.4321 -1.1632  0.4720
 9766SOL     OW38265   9.292   8.851   2.197 -0.3524  0.7465 -0.3207
 9766SOL    HW138266   9.201   8.869   2.174 -1.3890 -0.9390  2.0469
 9766SOL    HW238267   9.294   8.758   2.218  1.8192  0.8534  0.2169
 9767SOL     OW38268   8.639   4.929   0.259  0.0417 -0.3674  0.4884
 9767SOL    HW138269   8.554   4.974   0.264 -0.3914 -1.1660  0.5084
 9767SOL    HW238270   8.637   4.884   0.174  1.9102  2.4403 -1.1804
 9768SOL     OW38271   2.957  12.138  12.539  0.4739 -0.2289  0.1198
 9768SOL    HW138272   3.044  12.114  12.569  0.0986 -0.8967  0.7063
 9768SOL    HW238273   2.919  12.056  12.506 -0.6189 -0.3658  1.6302
 9769SOL     OW38274  11.112   4.497   8.915 -0.0914 -0.1008 -0.3962
 9769SOL    HW138275  11.127   4.590   8.933  0.6163 -0.1619 -0.6053
 9769SOL    HW238276  11.068   4.496   8.830 -1.5000  0.0981  0.3134
 9770SOL     OW38277  10.731   9.093  10.914  0.0664  0.1901  0.2573
 9770SOL    HW138278  10.789   9.037  10.966  3.0274  2.0637 -0.7581
 9770SOL    HW238279  10.748   9.068  10.823 -2.3294 -0.5857 -0.0361
 9771SOL     OW38280   6.045   3.255   4.933  0.3044 -0.0402  0.1578
 9771SOL    HW138281   5.956   3.276   4.959  0.5674  1.8879 -0.3575
 9771SOL    HW238282   6.090   3.235   5.015 -0.7355 -1.7783  0.3569
 9772SOL     OW38283   0.576   6.672   3.170  0.1676 -0.2097 -0.1197
 9772SOL    HW138284   0.662   6.630   3.161  0.8875  0.8505  1.4720
 9772SOL    HW238285   0.589   6.760   3.135 -0.0877  0.1539  0.6792
 9773SOL     OW38286   7.956  11.645   6.341  0.0309  0.4564  0.5042
 9773SOL    HW138287   7.975  11.627   6.249 -1.5636  1.6258 -0.0986
 9773SOL    HW238288   7.920  11.563   6.375  2.3663 -0.5896  0.6598
 9774SOL     OW38289   7.911   3.064   8.545  0.5092 -0.2416 -0.2713
 9774SOL    HW138290   8.006   3.058   8.558  0.2852 -0.8130  1.3966
 9774SOL    HW238291   7.876   2.989   8.594 -0.8844  0.8439  0.4702
 9775SOL     OW38292   6.593  10.741   7.330 -0.3024 -0.1042  0.0619
 9775SOL    HW138293   6.591  10.795   7.250  0.3794 -1.4133 -0.8710
 9775SOL    HW238294   6.584  10.651   7.299 -0.4655 -0.6131  1.5092
 9776SOL     OW38295   6.156  12.554  11.117  0.0422 -0.1460 -0.1709
 9776SOL    HW138296   6.163  12.501  11.196  1.5400  1.4115  0.8148
 9776SOL    HW238297   6.119  12.636  11.146  0.2983  0.3344 -1.1470
 9777SOL     OW38298   6.867   0.788  10.867  0.0918 -0.0540 -0.5268
 9777SOL    HW138299   6.874   0.834  10.783  0.2262  1.4075  0.2650
 9777SOL    HW238300   6.842   0.699  10.842  0.0645  0.3563 -2.1181
 9778SOL     OW38301   7.438  12.591   7.051 -0.6617  0.1040 -0.6711
 9778SOL    HW138302   7.419  12.585   6.958 -0.3694  2.3705 -0.9418
 9778SOL    HW238303   7.532  12.605   7.056 -0.8457  1.2839 -0.1408
 9779SOL     OW38304  12.297   3.577  11.415  0.0117 -0.1806 -0.4883
 9779SOL    HW138305  12.314   3.647  11.479 -0.4939 -1.1692  0.7812
 9779SOL    HW238306  12.204   3.560  11.423  0.5840 -3.0426  1.5051
 9780SOL     OW38307   7.536   2.464   4.315 -1.0266  0.1578 -0.1431
 9780SOL    HW138308   7.475   2.444   4.386  1.6045  1.5394  2.7669
 9780SOL    HW238309   7.503   2.545   4.277 -3.2525 -1.3232 -1.6406
 9781SOL     OW38310   4.321  12.227  11.479  0.3406 -0.1768  0.6857
 9781SOL    HW138311   4.284  12.159  11.535  1.2663 -0.7854  0.5920
 9781SOL    HW238312   4.383  12.273  11.536 -0.6273  0.9190  0.8860
 9782SOL     OW38313  10.293   6.712   5.261  0.4756 -0.8581  0.3140
 9782SOL    HW138314  10.328   6.627   5.237  0.1058 -0.8202 -0.4167
 9782SOL    HW238315  10.258   6.701   5.349  0.1909 -1.5340  0.1203
 9783SOL     OW38316   2.497   2.801   9.697 -0.6709  0.1966  0.2938
 9783SOL    HW138317   2.574   2.826   9.646 -1.7335  0.9197 -1.0215
 9783SOL    HW238318   2.533   2.760   9.776  1.0730  1.4835  0.2292
 9784SOL     OW38319   8.856   8.689   2.073 -0.4863  0.0470  0.3500
 9784SOL    HW138320   8.894   8.677   1.986  1.9352  0.0078  1.3353
 9784SOL    HW238321   8.761   8.691   2.058 -0.2623 -2.0089 -2.0474
 9785SOL     OW38322  10.748   0.676   9.771  0.0749 -1.1676  0.1589
 9785SOL    HW138323  10.682   0.627   9.722 -1.3726  1.3263 -0.5447
 9785SOL    HW238324  10.723   0.665   9.863 -0.3984 -1.4991 -0.0068
 9786SOL     OW38325   6.600   6.287   6.002 -0.0046  0.3506  0.5442
 9786SOL    HW138326   6.656   6.345   5.949 -1.2809  1.1551  0.0295
 9786SOL    HW238327   6.573   6.342   6.076  0.8814 -0.4280  1.4703
 9787SOL     OW38328   8.135   8.144   1.023 -0.0633  0.2301 -0.4893
 9787SOL    HW138329   8.209   8.089   1.048 -0.6483 -1.4123 -2.1429
 9787SOL    HW238330   8.174   8.225   0.990  0.9425 -0.2417 -0.4714
 9788SOL     OW38331  11.927   5.177  12.397  0.0621 -0.1944 -0.4551
 9788SOL    HW138332  11.850   5.154  12.345  0.0570  0.3280 -0.6829
 9788SOL    HW238333  12.001   5.165  12.337  0.3221 -2.0655  0.1588
 9789SOL     OW38334   8.500   0.530   0.857 -0.1276  0.6811  0.4263
 9789SOL    HW138335   8.484   0.525   0.951  0.4412  1.2518  0.5644
 9789SOL    HW238336   8.591   0.559   0.850 -0.3862  1.3590 -0.2908
 9790SOL     OW38337   2.269  11.659  12.463  0.0570 -0.2197 -0.1877
 9790SOL    HW138338   2.266  11.675  12.368  0.3918  1.5540  0.0659
 9790SOL    HW238339   2.360  11.636  12.481  1.0170  3.3062  0.1806
 9791SOL     OW38340  12.515  11.214   3.454  0.3185  0.2730  0.3748
 9791SOL    HW138341  12.430  11.256   3.444  1.0387  1.4414 -1.2635
 9791SOL    HW238342  12.549  11.248   3.537 -0.3439  0.6476  0.5000
 9792SOL     OW38343   8.229   5.598   6.337 -0.3192  0.3064 -0.5331
 9792SOL    HW138344   8.233   5.502   6.336  0.1615  0.3161 -0.0375
 9792SOL    HW238345   8.136   5.618   6.329 -0.5368 -0.2279  0.5190
 9793SOL     OW38346   8.896  10.490   5.007 -0.2631  0.6180 -0.3100
 9793SOL    HW138347   8.847  10.546   4.948 -1.4987 -0.2956 -0.1996
 9793SOL    HW238348   8.896  10.536   5.090 -1.2300  0.4974 -0.2322
 9794SOL     OW38349   8.989   7.075   3.355 -0.6839  0.1802  0.2301
 9794SOL    HW138350   9.040   7.040   3.281 -0.4925  2.3809 -0.7602
 9794SOL    HW238351   8.908   7.107   3.315 -1.3736 -0.2096  1.2783
 9795SOL     OW38352  12.093  11.692  10.055 -0.0798 -0.1259  0.1114
 9795SOL    HW138353  12.055  11.778  10.075 -0.7078 -0.3538 -0.0914
 9795SOL    HW238354  12.062  11.635  10.125 -0.5580 -0.4386 -0.3482
 9796SOL     OW38355   1.003   4.758  12.380 -0.3087  0.2306  0.5052
 9796SOL    HW138356   1.090   4.788  12.407  0.0615 -0.1602 -0.2267
 9796SOL    HW238357   0.953   4.755  12.461  0.2826  0.7145  0.8998
 9797SOL     OW38358   8.457   0.082  11.471 -0.0509  0.1320  0.2106
 9797SOL    HW138359   8.506   0.002  11.491  0.2424 -0.5913 -2.8175
 9797SOL    HW238360   8.368   0.052  11.455 -0.6458  0.8904  1.8836
 9798SOL     OW38361   6.459   2.420  11.124  0.7381  0.2291 -0.1634
 9798SOL    HW138362   6.536   2.433  11.070  1.4822 -2.0218  0.2210
 9798SOL    HW238363   6.398   2.371  11.068  0.9311 -0.8379  0.5238
 9799SOL     OW38364   4.875  10.229   5.103  0.4641 -0.0063  0.9663
 9799SOL    HW138365   4.939  10.244   5.173  3.0129 -1.1749 -0.9655
 9799SOL    HW238366   4.878  10.309   5.051  1.0856 -0.4162  0.3566
 9800SOL     OW38367   4.919   5.958   9.313  0.7019 -0.1740 -0.4432
 9800SOL    HW138368   4.985   6.005   9.365  0.7118 -0.7575  0.0826
 9800SOL    HW238369   4.837   6.003   9.334  0.6554 -0.6029  0.3376
 9801SOL     OW38370  11.153   4.135   4.723  0.4605 -0.1539  0.0793
 9801SOL    HW138371  11.179   4.220   4.759  0.6915  0.0150 -0.4719
 9801SOL    HW238372  11.229   4.106   4.673 -0.2179  0.1408 -1.1815
 9802SOL     OW38373   6.990   5.176   3.167  0.1160  0.1198 -0.3760
 9802SOL    HW138374   6.979   5.258   3.119  0.9723 -0.0390 -0.8663
 9802SOL    HW238375   7.070   5.189   3.219 -0.1130 -0.1664  0.0525
 9803SOL     OW38376  11.164   9.757   1.997  0.5826  0.1010  0.6380
 9803SOL    HW138377  11.137   9.714   2.078 -0.6942 -2.9444 -1.2257
 9803SOL    HW238378  11.087   9.805   1.968  0.1365 -1.0033 -0.0574
 9804SOL     OW38379   6.377   9.577  10.041  0.6620 -1.1991  0.2452
 9804SOL    HW138380   6.472   9.586  10.040  0.5785 -0.0864  0.4552
 9804SOL    HW238381   6.348   9.623   9.962  0.2970 -1.5749  0.1559
 9805SOL     OW38382  11.053   1.522   4.587  0.1735  0.2444 -0.0362
 9805SOL    HW138383  10.997   1.537   4.663  1.5561  0.1145  1.0505
 9805SOL    HW238384  11.140   1.507   4.624  0.7013 -0.8110 -1.5947
 9806SOL     OW38385   7.485   8.894   0.306  0.1498  0.0195 -0.2962
 9806SOL    HW138386   7.473   8.879   0.213  2.1262 -1.5649 -0.3598
 9806SOL    HW238387   7.569   8.939   0.313 -0.2388  0.6508  0.7086
 9807SOL     OW38388  10.984  11.349   3.894 -0.2229 -0.2053  0.2382
 9807SOL    HW138389  11.017  11.407   3.825  1.6297  1.4369  2.3865
 9807SOL    HW238390  10.897  11.322   3.863 -0.8505  3.0652 -1.2621
 9808SOL     OW38391   1.864   8.772   0.698  0.0195  0.2228  0.0219
 9808SOL    HW138392   1.774   8.741   0.713 -0.1052  1.2471  1.5388
 9808SOL    HW238393   1.919   8.710   0.746  0.0015  0.4743  0.3718
 9809SOL     OW38394   6.593   1.831   4.331 -0.3969  0.0116 -0.8705
 9809SOL    HW138395   6.619   1.882   4.407 -0.9279 -1.5509  0.4298
 9809SOL    HW238396   6.555   1.895   4.270 -1.9868  1.0627  1.1030
 9810SOL     OW38397   4.788   9.262   7.534  0.1835  0.5014 -0.1593
 9810SOL    HW138398   4.877   9.256   7.568  1.1276  2.7535 -1.9792
 9810SOL    HW238399   4.770   9.356   7.532 -3.0934  0.1044  2.0876
 9811SOL     OW38400  11.559   2.666   6.004 -0.0971 -0.2600 -0.3578
 9811SOL    HW138401  11.535   2.626   5.920 -2.7275  1.0364 -0.3287
 9811SOL    HW238402  11.495   2.630   6.066  1.2663 -0.5291  0.9296
 9812SOL     OW38403   8.257   5.450   3.820 -0.1010  0.3382  0.2996
 9812SOL    HW138404   8.338   5.467   3.772 -0.5464  1.4464 -0.0893
 9812SOL    HW238405   8.208   5.389   3.765  1.1680 -1.7490  1.3334
 9813SOL     OW38406  11.336   6.368  10.149 -0.2153 -0.0375 -0.2164
 9813SOL    HW138407  11.426   6.368  10.182 -0.2170 -0.4602 -0.2009
 9813SOL    HW238408  11.286   6.414  10.216 -0.5346 -2.4024  1.2953
 9814SOL     OW38409   1.808   7.592   3.559  0.3046 -0.4874  0.2916
 9814SOL    HW138410   1.800   7.684   3.582  2.1111 -0.4910  1.1172
 9814SOL    HW238411   1.902   7.577   3.554  0.1944 -2.8972  2.8468
 9815SOL     OW38412   9.522   2.820  11.080  0.0314  0.1611 -0.6738
 9815SOL    HW138413   9.455   2.801  11.145  0.0667 -0.6434 -0.8626
 9815SOL    HW238414   9.541   2.914  11.091 -0.7340  0.2710 -0.2630
 9816SOL     OW38415   7.288   7.537   3.823  0.1165 -0.1390  0.8830
 9816SOL    HW138416   7.258   7.447   3.835  0.0648 -0.3080 -0.3570
 9816SOL    HW238417   7.384   7.530   3.822  0.1150 -0.1628  0.9315
 9817SOL     OW38418  11.392   2.344   0.283  0.5474  0.9340  0.2542
 9817SOL    HW138419  11.302   2.314   0.280  0.7027  0.4256  0.6315
 9817SOL    HW238420  11.427   2.308   0.365  1.4972 -0.0246 -0.5472
 9818SOL     OW38421   0.280   2.264   8.423  0.2281  0.1496 -0.4400
 9818SOL    HW138422   0.224   2.341   8.433  0.7095  0.3844  0.4963
 9818SOL    HW238423   0.299   2.236   8.512  0.6460 -0.6264 -0.7662
 9819SOL     OW38424   1.889   9.062   6.895  0.4236 -0.1543  0.2425
 9819SOL    HW138425   1.923   9.147   6.868  1.3433 -0.8719 -0.9789
 9819SOL    HW238426   1.838   9.032   6.819  0.3343 -0.8082  0.5547
 9820SOL     OW38427  11.537  10.421   3.408 -0.3528 -0.1545  0.2728
 9820SOL    HW138428  11.519  10.329   3.387  0.0268 -0.6961  2.0923
 9820SOL    HW238429  11.456  10.467   3.387 -0.1739 -0.6882 -1.7302
 9821SOL     OW38430   0.620   3.722   3.049  0.3847 -0.1027 -0.1421
 9821SOL    HW138431   0.525   3.728   3.057  0.3454 -1.2208  0.4833
 9821SOL    HW238432   0.633   3.661   2.976  0.5987 -0.4556  0.1838
 9822SOL     OW38433   7.724  11.576   9.421 -0.1935  0.0962 -0.6297
 9822SOL    HW138434   7.776  11.588   9.341 -0.3425 -0.6652 -0.8510
 9822SOL    HW238435   7.674  11.495   9.405  0.7406 -0.7909  0.7530
 9823SOL     OW38436  11.868  10.289   6.707  0.0159 -0.2359 -0.2410
 9823SOL    HW138437  11.817  10.334   6.774 -3.3749 -0.0651 -2.6126
 9823SOL    HW238438  11.844  10.197   6.717  1.6485 -0.6230  0.4102
 9824SOL     OW38439   8.634   6.079   4.850 -0.1181 -0.1878  0.3221
 9824SOL    HW138440   8.705   6.100   4.911  0.4378 -0.0684 -0.3461
 9824SOL    HW238441   8.560   6.055   4.905  0.3218  0.0922  1.0394
 9825SOL     OW38442   6.379  12.268   0.950  0.4332 -0.8203 -0.7436
 9825SOL    HW138443   6.287  12.242   0.944 -0.4258  1.5896  0.7094
 9825SOL    HW238444   6.410  12.265   0.860 -1.5344 -0.2078 -1.5112
 9826SOL     OW38445  10.588  10.025   3.209 -0.0257 -0.3881 -0.3050
 9826SOL    HW138446  10.671   9.977   3.202 -0.2732 -1.3609  2.3595
 9826SOL    HW238447  10.601  10.104   3.157  1.2395 -2.1953 -2.9726
 9827SOL     OW38448   0.376  11.793   5.054 -0.1669  0.5060 -0.2353
 9827SOL    HW138449   0.383  11.744   4.972  0.9028  0.0883  0.1022
 9827SOL    HW238450   0.400  11.731   5.122  0.4694  1.2783  0.2581
 9828SOL     OW38451   0.046   9.157   6.859  0.0418  0.4644  0.3290
 9828SOL    HW138452   0.072   9.154   6.951  1.0454  1.1997  0.0783
 9828SOL    HW238453   0.017   9.068   6.840 -0.8474  0.4657  1.5371
 9829SOL     OW38454   0.626   6.300   6.373 -0.1989 -0.2556 -0.4511
 9829SOL    HW138455   0.691   6.260   6.430 -1.5882  0.0168  1.4057
 9829SOL    HW238456   0.545   6.251   6.391 -0.5221 -0.7441 -2.8597
 9830SOL     OW38457   9.642   5.915   7.004  0.4722  0.3876  0.1822
 9830SOL    HW138458   9.624   5.996   6.957  0.9318  1.2030  1.3620
 9830SOL    HW238459   9.692   5.861   6.942  0.3664  1.1001 -0.5310
 9831SOL     OW38460   9.020  12.488   5.710  0.1237 -0.7358  0.1424
 9831SOL    HW138461   9.079  12.550   5.755  0.2177 -1.3176  0.8526
 9831SOL    HW238462   9.074  12.449   5.642  0.0168  0.0742 -0.4167
 9832SOL     OW38463  11.148   0.499   5.627  0.1491 -0.1731 -0.5799
 9832SOL    HW138464  11.235   0.464   5.609  0.2585 -0.0084 -0.3683
 9832SOL    HW238465  11.105   0.499   5.541  0.7505  0.8105 -0.8990
 9833SOL     OW38466  11.264  11.574  12.585 -0.0359  0.0756  0.6053
 9833SOL    HW138467  11.309  11.531  12.512  1.1829  1.7045  0.3419
 9833SOL    HW238468  11.323  11.645  12.611 -0.9827  0.2577  2.4277
 9834SOL     OW38469  12.067  11.852   3.020  0.1348 -0.2077 -0.2679
 9834SOL    HW138470  11.975  11.876   3.009  0.2442  0.8990  0.9379
 9834SOL    HW238471  12.081  11.782   2.957 -1.1493  0.5779 -1.4868
 9835SOL     OW38472  12.550   5.761   1.981  0.3041  0.0717  0.6728
 9835SOL    HW138473  12.616   5.722   2.039 -2.5567 -1.5707  3.1576
 9835SOL    HW238474  12.494   5.688   1.957 -1.1934  1.5298 -0.4737
 9836SOL     OW38475   1.569  11.988   4.099  0.2856  0.1690  0.3122
 9836SOL    HW138476   1.628  11.984   4.024  1.8775  0.1973  1.5181
 9836SOL    HW238477   1.509  11.914   4.086  1.1581 -0.4185 -0.4747
 9837SOL     OW38478   1.513   7.251   2.181 -0.4399 -0.0491  0.2343
 9837SOL    HW138479   1.420   7.240   2.163 -0.5231  1.3779 -0.3178
 9837SOL    HW238480   1.521   7.339   2.217  1.0532  1.2204 -2.8207
 9838SOL     OW38481   0.150   8.143   5.994  0.4314  0.0442  0.0240
 9838SOL    HW138482   0.163   8.178   6.082  0.0626 -0.4002  0.2635
 9838SOL    HW238483   0.123   8.052   6.009 -0.4359  0.2045 -0.5249
 9839SOL     OW38484   0.054   7.550   7.933 -0.2052  0.6517  0.3303
 9839SOL    HW138485  -0.005   7.510   7.997 -0.3763  0.9384  0.3539
 9839SOL    HW238486   0.093   7.624   7.979 -0.6418  1.1095 -0.0159
 9840SOL     OW38487   2.730   5.213   2.319  0.3683 -0.0135 -0.0606
 9840SOL    HW138488   2.728   5.123   2.286 -0.3136 -0.6482  1.6277
 9840SOL    HW238489   2.802   5.254   2.271  1.3454 -1.7472 -0.1752
 9841SOL     OW38490  10.830   3.259   6.850  0.1517  0.1062 -0.4602
 9841SOL    HW138491  10.883   3.299   6.781 -1.5226  1.6607 -0.9106
 9841SOL    HW238492  10.784   3.332   6.891 -0.9036 -1.0763  0.5561
 9842SOL     OW38493  11.075   1.645   9.932  0.0978  0.5968 -0.5021
 9842SOL    HW138494  11.064   1.628   9.838  1.2248  0.0275 -0.5529
 9842SOL    HW238495  10.999   1.604   9.973  0.7275 -1.1539 -0.9880
 9843SOL     OW38496  10.641   8.374   8.818 -0.2184  0.3699  0.1596
 9843SOL    HW138497  10.572   8.434   8.791 -1.0134 -0.6235 -0.0561
 9843SOL    HW238498  10.640   8.378   8.914 -0.7276  0.1775  0.1599
 9844SOL     OW38499   2.849   9.959  11.588  0.1106 -0.7487  0.2926
 9844SOL    HW138500   2.897   9.903  11.648 -0.1453 -1.8470 -0.5072
 9844SOL    HW238501   2.758   9.933  11.598 -0.2075  0.4818  0.9002
 9845SOL     OW38502   6.868   8.141   5.443  0.3780 -0.1559  0.2734
 9845SOL    HW138503   6.917   8.105   5.517  1.5344  2.5471  0.9624
 9845SOL    HW238504   6.825   8.218   5.478 -0.5299  0.1785 -1.4773
 9846SOL     OW38505   9.466  11.109   4.704  0.0239  0.2011 -0.3484
 9846SOL    HW138506   9.432  11.185   4.656  0.0705  0.1580 -0.4516
 9846SOL    HW238507   9.492  11.047   4.635  3.6810  1.6140 -0.4990
 9847SOL     OW38508   8.605   4.395   8.943  0.3219  0.2234 -0.5625
 9847SOL    HW138509   8.628   4.306   8.914 -0.3425 -0.2871  0.4246
 9847SOL    HW238510   8.585   4.385   9.036 -0.4724  1.2846 -0.6069
 9848SOL     OW38511   0.822  11.754   8.135 -0.3127  0.0257  0.2940
 9848SOL    HW138512   0.758  11.701   8.182  0.7528 -0.7327  0.9489
 9848SOL    HW238513   0.850  11.700   8.061 -1.0539  0.7078 -0.5052
 9849SOL     OW38514   8.998  10.037   4.418  0.1691  0.6097 -0.3655
 9849SOL    HW138515   9.069  10.096   4.445  1.5863 -1.4933  0.7711
 9849SOL    HW238516   8.932  10.047   4.487  0.1713  1.2267 -0.4477
 9850SOL     OW38517  10.127   7.828   4.120 -0.3888  0.4852  0.5733
 9850SOL    HW138518  10.070   7.829   4.043 -0.7903  1.5934  0.8685
 9850SOL    HW238519  10.084   7.886   4.183  0.2297  0.0509  1.4228
 9851SOL     OW38520  10.182   0.299   0.265  0.2627  0.3314  0.0815
 9851SOL    HW138521  10.221   0.218   0.233  0.4456 -0.6444  2.5283
 9851SOL    HW238522  10.169   0.352   0.187  2.1040 -1.1961 -1.3625
 9852SOL     OW38523  10.349   2.986  11.479  0.1846 -0.1267 -0.3438
 9852SOL    HW138524  10.387   2.993  11.391  1.3482  0.0378  0.1554
 9852SOL    HW238525  10.285   3.057  11.483  1.3065  0.9194 -0.4898
 9853SOL     OW38526   6.619   2.470   8.091 -0.0135  0.2020  0.3446
 9853SOL    HW138527   6.639   2.555   8.131 -2.1177  0.8801  0.0991
 9853SOL    HW238528   6.633   2.484   7.997  1.9859 -0.4859  0.5049
 9854SOL     OW38529   4.907   9.596   4.173 -0.0105 -0.1257  0.1616
 9854SOL    HW138530   4.859   9.678   4.186  0.5591  0.5567 -1.6919
 9854SOL    HW238531   4.936   9.600   4.082  2.0801 -1.3058  0.7274
 9855SOL     OW38532   2.168   8.437  12.244 -0.3690 -0.0860 -0.2021
 9855SOL    HW138533   2.077   8.418  12.268  0.1508 -1.1442  1.0851
 9855SOL    HW238534   2.198   8.498  12.311 -0.5047  1.4010 -1.4275
 9856SOL     OW38535   5.089   9.910   9.670  0.4981  0.0973 -0.0858
 9856SOL    HW138536   5.179   9.938   9.686  0.6190  1.2345 -2.4124
 9856SOL    HW238537   5.090   9.874   9.582 -1.3493  0.2034 -0.1834
 9857SOL     OW38538   1.090  12.458   9.830 -0.1725  0.1843  0.1432
 9857SOL    HW138539   1.091  12.539   9.882  0.6530  0.1497  0.2052
 9857SOL    HW238540   1.007  12.460   9.784 -0.9356  0.2231  1.4670
 9858SOL     OW38541   7.707   3.645   4.475  0.5695 -0.7852  0.3067
 9858SOL    HW138542   7.626   3.615   4.516  1.1533 -0.7946  1.4865
 9858SOL    HW238543   7.725   3.729   4.517  0.3327  0.0099 -1.1153
 9859SOL     OW38544  12.355   1.372  11.962 -0.6120  0.0692  0.1152
 9859SOL    HW138545  12.376   1.436  12.030 -2.5506  1.2683 -0.3335
 9859SOL    HW238546  12.313   1.300  12.009 -1.3615  0.6078  0.2988
 9860SOL     OW38547   4.745   2.604   5.856 -0.5566  0.2329  0.1340
 9860SOL    HW138548   4.831   2.562   5.851 -0.4450  0.3937  0.6306
 9860SOL    HW238549   4.737   2.630   5.948 -2.0240 -1.6573  0.6004
 9861SOL     OW38550  12.211  12.567   1.398 -0.2445  0.3798  0.0226
 9861SOL    HW138551  12.167  12.652   1.403  0.8935  1.0688 -0.9932
 9861SOL    HW238552  12.263  12.572   1.317 -1.1804 -1.7980 -0.7902
 9862SOL     OW38553   7.646  10.604   4.239 -0.1786  0.1796 -0.0355
 9862SOL    HW138554   7.641  10.510   4.223 -0.2941  0.0828  0.5614
 9862SOL    HW238555   7.632  10.643   4.153  1.4255 -0.3733 -0.5838
 9863SOL     OW38556   9.115  10.586  11.994  0.2316  0.6103 -0.2710
 9863SOL    HW138557   9.115  10.682  11.986  1.0775  0.6891  0.5084
 9863SOL    HW238558   9.112  10.554  11.904 -0.2607  1.3656 -0.5313
 9864SOL     OW38559  11.408   8.594  10.632 -0.0390 -0.0725 -0.0616
 9864SOL    HW138560  11.463   8.573  10.707 -1.5889  0.1396  1.1902
 9864SOL    HW238561  11.469   8.621  10.563  1.3319  2.3249  1.9333
 9865SOL     OW38562   2.196  11.631  12.183 -0.6108  0.3711 -0.5080
 9865SOL    HW138563   2.185  11.547  12.138 -0.7867 -0.2953  0.7397
 9865SOL    HW238564   2.286  11.657  12.164 -1.5281  1.7136 -3.8440
 9866SOL     OW38565   7.724   4.872   5.101 -0.1834 -0.2796  0.2367
 9866SOL    HW138566   7.730   4.957   5.058 -0.3596 -0.5309 -0.2925
 9866SOL    HW238567   7.632   4.865   5.126 -0.0659 -0.1029  0.7200
 9867SOL     OW38568   1.732   4.736   3.604  0.0202 -0.2701  0.2718
 9867SOL    HW138569   1.654   4.680   3.606  1.9021 -3.0986  0.2760
 9867SOL    HW238570   1.758   4.738   3.512  0.5249 -0.2148  0.4111
 9868SOL     OW38571   6.118   9.718   2.157  0.5386 -0.3168 -0.1181
 9868SOL    HW138572   6.099   9.705   2.250  2.2230 -1.0468  0.1662
 9868SOL    HW238573   6.048   9.672   2.111  0.3964 -1.0570  0.8119
 9869SOL     OW38574   7.522   8.887   0.859  0.1757  0.3539 -0.5089
 9869SOL    HW138575   7.617   8.895   0.868  0.0536  0.2156  1.2962
 9869SOL    HW238576   7.509   8.814   0.799  1.2204 -0.4868  0.2454
 9870SOL     OW38577   5.371   7.711  11.183 -0.7218  0.9354 -0.6448
 9870SOL    HW138578   5.452   7.692  11.137 -0.4227  0.7601 -0.0529
 9870SOL    HW238579   5.371   7.806  11.193  0.8958  0.7474  1.9733
 9871SOL     OW38580   2.272   4.459   2.538  0.1000 -0.4162 -0.7446
 9871SOL    HW138581   2.225   4.380   2.563 -0.5191  0.1794  0.0474
 9871SOL    HW238582   2.249   4.472   2.446  1.5004 -2.0191 -1.3695
 9872SOL     OW38583   3.425   4.694   0.421 -0.2050  0.0141  0.1373
 9872SOL    HW138584   3.339   4.661   0.448 -0.3363 -0.1536 -0.4812
 9872SOL    HW238585   3.482   4.617   0.423 -0.5429 -0.2958 -1.4422
 9873SOL     OW38586   2.354   4.592   7.713 -0.5791 -0.1779 -0.1893
 9873SOL    HW138587   2.380   4.681   7.737  2.1849 -1.8297  4.2747
 9873SOL    HW238588   2.274   4.577   7.764  0.1515 -0.8596  0.7805
 9874SOL     OW38589   5.184   0.371   9.375  0.2858 -0.6765  0.2198
 9874SOL    HW138590   5.126   0.359   9.300  1.6722  0.2036 -1.0533
 9874SOL    HW238591   5.126   0.403   9.444 -0.5520  2.1142 -1.5813
 9875SOL     OW38592   5.301   6.013   7.615  0.3472  0.1228  0.5331
 9875SOL    HW138593   5.392   5.987   7.630  0.2024 -0.3525  0.6205
 9875SOL    HW238594   5.298   6.037   7.522  0.5828  0.2373  0.5541
 9876SOL     OW38595   1.504   3.484   1.406 -0.1713 -0.1552  0.1627
 9876SOL    HW138596   1.489   3.412   1.345 -0.3753  0.3640 -0.4154
 9876SOL    HW238597   1.592   3.470   1.440  0.2337 -0.0703 -0.8003
 9877SOL     OW38598   5.719   0.204   8.463  0.2367  0.0572  0.2090
 9877SOL    HW138599   5.714   0.131   8.402 -0.1656 -0.2175  0.5686
 9877SOL    HW238600   5.684   0.170   8.545 -1.0232  0.9731  0.0780
 9878SOL     OW38601   0.862   1.687  10.999  0.0285 -0.2234 -0.2558
 9878SOL    HW138602   0.790   1.697  11.061 -0.7297 -0.3782 -1.0946
 9878SOL    HW238603   0.932   1.742  11.035 -0.1074 -0.9193  1.1397
 9879SOL     OW38604   3.838   2.046   4.118 -0.1671  0.0246 -0.2092
 9879SOL    HW138605   3.749   2.028   4.089  0.4969 -0.5005 -2.1050
 9879SOL    HW238606   3.853   2.137   4.093 -0.7583  0.7292  1.8295
 9880SOL     OW38607   0.744   2.411   5.177  0.1977  0.5418  0.5677
 9880SOL    HW138608   0.840   2.404   5.179  0.2429  1.0494  0.3967
 9880SOL    HW238609   0.726   2.501   5.206 -0.2194  0.4932  0.4661
 9881SOL     OW38610   4.567   2.843   0.735  0.0516  0.7716  0.1294
 9881SOL    HW138611   4.564   2.847   0.640 -0.9354 -0.6910  0.0699
 9881SOL    HW238612   4.520   2.921   0.765  0.5916  1.3725 -0.5644
 9882SOL     OW38613   6.646   5.107   0.996  0.1505  0.2130  0.1455
 9882SOL    HW138614   6.693   5.031   1.032  0.4898  0.2917 -0.1242
 9882SOL    HW238615   6.585   5.069   0.932 -0.2879  0.0943  0.6265
 9883SOL     OW38616   5.142   6.865   9.025 -0.2158 -0.3130  0.4316
 9883SOL    HW138617   5.097   6.934   8.975  0.1598 -0.7053 -0.4603
 9883SOL    HW238618   5.078   6.839   9.092 -0.6919  0.2846  0.2176
 9884SOL     OW38619   5.019   1.223   4.070  0.0758  0.6328  0.6302
 9884SOL    HW138620   5.081   1.184   4.131 -0.0446 -0.2137  0.2280
 9884SOL    HW238621   5.017   1.316   4.093 -0.1752  0.2863  2.0861
 9885SOL     OW38622  10.986  10.371   1.904 -0.1768  0.1326 -0.2121
 9885SOL    HW138623  10.940  10.321   1.836  1.2310 -1.5617  0.0169
 9885SOL    HW238624  10.965  10.462   1.885 -2.6831 -0.4905 -0.7808
 9886SOL     OW38625   9.123  11.639   1.432 -0.5098  0.2987  0.3237
 9886SOL    HW138626   9.116  11.545   1.448  0.3968  0.1451 -0.1204
 9886SOL    HW238627   9.066  11.655   1.357  1.9606 -0.5592 -1.9103
 9887SOL     OW38628   5.520   5.080   2.775 -0.7632 -0.0404  0.5499
 9887SOL    HW138629   5.563   5.057   2.857 -1.3997 -1.5430  0.4900
 9887SOL    HW238630   5.589   5.122   2.723  0.3067 -1.2312  0.9466
 9888SOL     OW38631   7.642   1.233   4.322 -0.3538  0.9489 -0.1685
 9888SOL    HW138632   7.717   1.256   4.377  0.7171 -0.6373 -0.8860
 9888SOL    HW238633   7.626   1.141   4.341  0.4316  0.1704 -2.8822
 9889SOL     OW38634   2.980   9.791   3.546 -0.0242  0.0759 -0.3389
 9889SOL    HW138635   2.935   9.791   3.462  1.6474 -0.7534 -1.2752
 9889SOL    HW238636   2.927   9.733   3.602 -0.5213 -0.2869 -1.1730
 9890SOL     OW38637   7.083   4.360   0.119 -0.6151 -0.0919 -0.3761
 9890SOL    HW138638   7.054   4.423   0.054 -0.9410 -0.0219 -0.1605
 9890SOL    HW238639   7.022   4.369   0.192  1.3427  1.8070  1.1536
 9891SOL     OW38640   4.703   6.552   5.226 -0.2197  0.7167 -0.1283
 9891SOL    HW138641   4.774   6.579   5.169 -0.5615 -0.8442 -1.3585
 9891SOL    HW238642   4.731   6.468   5.263 -0.9032  0.6722  0.3187
 9892SOL     OW38643   8.197   7.609   5.220 -0.3595  0.2456 -0.4005
 9892SOL    HW138644   8.113   7.654   5.231  0.1450  1.2193 -0.4271
 9892SOL    HW238645   8.177   7.534   5.165 -1.3578  0.0230  0.2442
 9893SOL     OW38646   3.357   8.856   8.517  0.1646 -0.0157  0.3500
 9893SOL    HW138647   3.367   8.769   8.555 -1.2017 -1.0935 -1.5945
 9893SOL    HW238648   3.446   8.892   8.516  0.5750 -0.8264  2.3428
 9894SOL     OW38649   2.774   0.990   2.895  0.2220 -0.1309  0.4903
 9894SOL    HW138650   2.848   1.049   2.907 -1.7926  2.4797  1.0298
 9894SOL    HW238651   2.814   0.906   2.873  3.3514  0.8894  1.6269
 9895SOL     OW38652   3.984   2.522  10.978 -0.4695 -0.0181 -0.3832
 9895SOL    HW138653   3.991   2.531  10.883 -0.6219 -1.9952 -0.6234
 9895SOL    HW238654   3.999   2.429  10.995 -0.7227  0.2385  1.5113
 9896SOL     OW38655   1.424  11.011   6.810 -0.0417 -0.5097 -0.0311
 9896SOL    HW138656   1.333  11.029   6.832  0.3051  0.2593  0.8615
 9896SOL    HW238657   1.468  11.007   6.895  0.7947 -0.6595 -0.4634
 9897SOL     OW38658   7.504   0.283   7.252  0.2207 -1.0213  0.3876
 9897SOL    HW138659   7.427   0.255   7.302 -0.0985 -0.5156  0.1820
 9897SOL    HW238660   7.490   0.245   7.165 -0.7580  0.6553 -0.2190
 9898SOL     OW38661   6.551  10.378   5.550 -0.2756  0.6039 -0.3021
 9898SOL    HW138662   6.469  10.337   5.580  1.3398 -2.7194  0.0753
 9898SOL    HW238663   6.569  10.446   5.615 -2.0860  0.5272  0.3337
 9899SOL     OW38664  10.807   8.043   0.375  0.2790  0.6802  0.3315
 9899SOL    HW138665  10.820   8.044   0.470 -4.0074  1.1869  1.1314
 9899SOL    HW238666  10.732   7.984   0.362  0.4715  0.9345 -2.6978
 9900SOL     OW38667   9.512  10.107   7.460  0.1555 -0.5824 -0.9617
 9900SOL    HW138668   9.420  10.082   7.449  0.0019  0.0982 -1.2560
 9900SOL    HW238669   9.521  10.189   7.411  0.4378  0.3948  0.6518
 9901SOL     OW38670   1.988  12.333   4.142 -0.4880 -0.6667  0.3791
 9901SOL    HW138671   2.015  12.265   4.080  0.2103 -0.8212  0.8455
 9901SOL    HW238672   2.037  12.411   4.114 -0.8986 -0.4795  0.1617
 9902SOL     OW38673   0.926   0.149   6.952 -0.6037  0.4432  0.0908
 9902SOL    HW138674   0.990   0.110   7.011  0.1972  1.1040 -0.3310
 9902SOL    HW238675   0.841   0.128   6.993 -0.2854 -2.2476 -0.4476
 9903SOL     OW38676   4.947   9.878   1.599  0.5993  0.1808 -0.2197
 9903SOL    HW138677   4.995   9.954   1.630  1.4533  0.5041 -2.1967
 9903SOL    HW238678   4.910   9.905   1.515 -0.9696 -0.8826  0.0749
 9904SOL     OW38679   6.863   3.645  11.605 -0.7727 -0.0222 -0.2412
 9904SOL    HW138680   6.922   3.575  11.579  0.2025  1.1282 -1.2385
 9904SOL    HW238681   6.905   3.684  11.681  1.4536  2.6747 -2.6216
 9905SOL     OW38682  10.572   6.653   4.938 -0.1775 -0.4002 -0.1350
 9905SOL    HW138683  10.569   6.566   4.898  1.8523 -0.2430 -0.7411
 9905SOL    HW238684  10.620   6.706   4.875 -1.1090  1.0948  0.3827
 9906SOL     OW38685   4.353   4.840  12.078  0.6190  0.0357  0.4920
 9906SOL    HW138686   4.438   4.814  12.113  0.2736 -1.3785  0.3715
 9906SOL    HW238687   4.359   4.819  11.984 -0.4232 -1.7852  0.7783
 9907SOL     OW38688   8.339  12.004   4.045 -0.3308  0.0524  0.0218
 9907SOL    HW138689   8.366  11.988   3.955  3.0904  0.6107  0.8292
 9907SOL    HW238690   8.348  12.098   4.057 -0.3686 -0.0657  1.0509
 9908SOL     OW38691  12.062  11.883   4.995  0.0302 -0.2174 -0.0623
 9908SOL    HW138692  12.032  11.926   5.075  0.2929  0.2361 -0.2099
 9908SOL    HW238693  12.067  11.790   5.019 -0.2807 -0.1363  0.3287
 9909SOL     OW38694  11.890   3.204   3.329  0.3965 -0.0620 -0.1370
 9909SOL    HW138695  11.805   3.230   3.363 -0.0177 -1.6603  0.1060
 9909SOL    HW238696  11.894   3.244   3.242 -1.3496 -1.3174 -0.8641
 9910SOL     OW38697   6.626   3.521  11.487  0.3117  0.4239 -0.3554
 9910SOL    HW138698   6.692   3.563  11.543  0.8190  1.3321 -1.5834
 9910SOL    HW238699   6.622   3.430  11.519  0.9125  0.7906  0.8342
 9911SOL     OW38700  12.294   2.908  10.755  0.3796  0.3581 -0.4471
 9911SOL    HW138701  12.297   3.000  10.780  1.2908 -0.2898  2.0794
 9911SOL    HW238702  12.367   2.897  10.695 -0.3018  1.4311 -1.5357
 9912SOL     OW38703   2.350   9.229   1.248  0.1037  0.1796  0.3391
 9912SOL    HW138704   2.302   9.312   1.255  2.7077  1.7140  1.4686
 9912SOL    HW238705   2.355   9.197   1.338  0.1440 -0.5899  0.0663
 9913SOL     OW38706   9.284   8.079   4.916  0.3658 -0.2044 -0.4336
 9913SOL    HW138707   9.378   8.072   4.900  0.2581  0.6067 -1.5674
 9913SOL    HW238708   9.255   7.989   4.928  1.0318 -0.6219 -1.7123
 9914SOL     OW38709  11.779  12.456   4.142 -0.5409  0.1257  0.0873
 9914SOL    HW138710  11.772  12.511   4.064 -1.4446  0.1191  0.1509
 9914SOL    HW238711  11.740  12.372   4.116 -0.0489 -0.1648  0.2816
 9915SOL     OW38712   6.868  11.994   6.388 -0.3634  0.0903  0.1398
 9915SOL    HW138713   6.786  11.945   6.380 -1.2468  1.4147  0.8255
 9915SOL    HW238714   6.879  12.037   6.304  1.5938 -2.9046 -1.3436
 9916SOL     OW38715   4.613  10.598  10.251 -0.0712  0.3049 -0.4509
 9916SOL    HW138716   4.579  10.679  10.213  1.6359  1.6621  0.7638
 9916SOL    HW238717   4.692  10.579  10.201 -0.9955 -1.2209 -1.3882
 9917SOL     OW38718   4.514   5.214  10.359 -0.4347 -0.6550  0.2890
 9917SOL    HW138719   4.501   5.278  10.289  1.1798 -0.3477  0.2317
 9917SOL    HW238720   4.443   5.232  10.421  0.8467  2.2992  1.0800
 9918SOL     OW38721   8.838   8.802   7.587  0.0218 -0.0601 -0.3568
 9918SOL    HW138722   8.767   8.864   7.568 -1.6687 -1.6218  0.5280
 9918SOL    HW238723   8.835   8.739   7.515 -0.6985 -1.1319  0.5860
 9919SOL     OW38724  11.782  11.391   7.183  0.2896  0.4358 -0.1953
 9919SOL    HW138725  11.811  11.407   7.093 -1.6171 -1.9307 -1.3295
 9919SOL    HW238726  11.691  11.420   7.184 -0.4650 -1.7864  0.2007
 9920SOL     OW38727  10.674  11.340   3.889 -0.6818 -0.0397  0.0126
 9920SOL    HW138728  10.652  11.329   3.981  0.4567  2.0696  0.5939
 9920SOL    HW238729  10.702  11.253   3.861 -2.5237 -1.0779  1.1969
 9921SOL     OW38730   4.346   3.689   6.195  0.1687  0.4363  0.0545
 9921SOL    HW138731   4.398   3.615   6.163 -1.8453  0.4510 -3.7911
 9921SOL    HW238732   4.311   3.659   6.279  1.6366 -1.8446 -0.0475
 9922SOL     OW38733   9.351   1.292  10.840 -0.8198  0.2826  0.4784
 9922SOL    HW138734   9.305   1.315  10.759  0.9467  0.4060 -0.5541
 9922SOL    HW238735   9.309   1.212  10.870 -1.3375  0.0807 -0.7368
 9923SOL     OW38736   0.242   6.302  11.173 -0.0738  0.0168 -0.5962
 9923SOL    HW138737   0.195   6.273  11.095 -1.0550  0.4046 -0.1560
 9923SOL    HW238738   0.176   6.346  11.227  0.9484  1.2867 -0.3285
 9924SOL     OW38739   3.079   3.236   1.218  0.7704 -0.1443  0.1505
 9924SOL    HW138740   3.148   3.270   1.275  0.3061  1.4084 -0.1619
 9924SOL    HW238741   3.069   3.303   1.151  0.6759 -1.5182 -1.2582
 9925SOL     OW38742  12.472   5.464   1.912 -0.4113  0.1680 -0.4097
 9925SOL    HW138743  12.478   5.389   1.972  1.2896  0.1750 -0.5176
 9925SOL    HW238744  12.470   5.424   1.825 -0.1575  0.2224 -0.4415
 9926SOL     OW38745  10.972  10.642   4.594 -0.2977 -0.6010 -0.1707
 9926SOL    HW138746  11.033  10.704   4.555  0.2802 -1.1558 -0.1650
 9926SOL    HW238747  11.026  10.591   4.654 -0.7621 -1.1287 -0.2007
 9927SOL     OW38748   7.116   9.830   4.075 -0.1291  0.5584  0.4770
 9927SOL    HW138749   7.153   9.761   4.130 -0.3589  1.6926  2.1253
 9927SOL    HW238750   7.023   9.808   4.068 -0.1743  0.6097  0.8832
 9928SOL     OW38751   9.557   6.681   5.597  0.2077  0.4398 -0.6652
 9928SOL    HW138752   9.469   6.697   5.632 -1.2796 -0.6505 -3.5442
 9928SOL    HW238753   9.590   6.769   5.575 -1.0604  0.7561 -1.4279
 9929SOL     OW38754   0.532   6.488   7.657 -0.5214 -0.1542 -0.0188
 9929SOL    HW138755   0.474   6.560   7.684 -0.8861 -0.6881  0.6244
 9929SOL    HW238756   0.487   6.409   7.684  0.5488 -0.5860  0.5650
 9930SOL     OW38757   4.137   6.413   8.764  0.9511  0.2574  0.0834
 9930SOL    HW138758   4.085   6.338   8.795  1.5205 -1.2097 -2.2281
 9930SOL    HW238759   4.228   6.387   8.780  1.1309  0.6628 -0.2682
 9931SOL     OW38760  11.231   7.704   8.524  0.5733 -0.3558 -0.2709
 9931SOL    HW138761  11.292   7.776   8.539 -0.3770  0.3346  0.4341
 9931SOL    HW238762  11.165   7.714   8.593 -1.8239  0.5565 -2.5038
 9932SOL     OW38763   6.422   4.358   6.152 -0.1305 -0.2656  0.4364
 9932SOL    HW138764   6.490   4.335   6.089 -0.7902 -0.3466 -0.2530
 9932SOL    HW238765   6.420   4.454   6.151 -0.8730 -0.2777 -0.4771
 9933SOL     OW38766  10.890   9.903   2.312 -0.3636 -0.4673 -0.4972
 9933SOL    HW138767  10.978   9.938   2.302  0.6716 -2.6632  0.4444
 9933SOL    HW238768  10.858   9.894   2.222  0.2170  0.6123 -0.8399
 9934SOL     OW38769  11.622   0.527   6.276 -0.1739 -0.5050 -0.4085
 9934SOL    HW138770  11.550   0.578   6.240 -1.1720 -2.1992 -0.9107
 9934SOL    HW238771  11.701   0.565   6.237 -0.7987  1.0358 -0.2542
 9935SOL     OW38772  12.353   7.761   7.537  0.0827 -0.0815 -0.1389
 9935SOL    HW138773  12.405   7.767   7.457  0.3237  0.5710  0.0561
 9935SOL    HW238774  12.262   7.768   7.508  0.2056  1.1850 -0.2800
 9936SOL     OW38775   4.561   6.528  11.424 -0.6926 -0.6990  0.2924
 9936SOL    HW138776   4.543   6.529  11.518  0.1934 -1.2506  0.4763
 9936SOL    HW238777   4.624   6.458  11.413 -1.2841 -1.0704 -0.8191
 9937SOL     OW38778  11.038   6.419   3.041  0.4378 -0.4303 -0.2377
 9937SOL    HW138779  11.072   6.412   2.952  3.4157 -1.8616  0.8824
 9937SOL    HW238780  11.003   6.332   3.059 -2.0906  0.4277 -0.6196
 9938SOL     OW38781  11.661  11.739   0.605 -0.5523  0.0950 -0.0291
 9938SOL    HW138782  11.647  11.766   0.696 -3.4175  0.1139 -0.3728
 9938SOL    HW238783  11.630  11.814   0.554  0.4408 -0.1640 -1.0400
 9939SOL     OW38784   3.961   4.535  10.659 -0.0991  0.0782  0.6653
 9939SOL    HW138785   4.018   4.463  10.630 -1.1916 -1.0672  1.2976
 9939SOL    HW238786   3.940   4.582  10.579 -0.4934 -1.1416  0.0325
 9940SOL     OW38787  12.404  10.146   3.109 -0.4007  0.0561  0.0748
 9940SOL    HW138788  12.371  10.144   3.019  2.4108  0.9184 -1.0723
 9940SOL    HW238789  12.496  10.171   3.101  0.6315 -2.2101  3.0355
 9941SOL     OW38790  10.282   6.774   1.501 -0.0134 -0.1169  0.1752
 9941SOL    HW138791  10.343   6.716   1.455 -0.8804 -0.9751  0.0613
 9941SOL    HW238792  10.254   6.836   1.435 -0.8305 -1.0066 -0.3464
 9942SOL     OW38793   0.217  12.430  12.100  0.2054  0.4023  0.1916
 9942SOL    HW138794   0.207  12.389  12.186  0.9454 -0.0027  0.0885
 9942SOL    HW238795   0.147  12.495  12.097 -0.6160 -0.4237  0.6033
 9943SOL     OW38796   7.769  10.433   7.609 -0.0474  0.0844  0.2339
 9943SOL    HW138797   7.755  10.339   7.595 -0.1555  0.0730  0.4099
 9943SOL    HW238798   7.745  10.473   7.526 -1.1702  0.0652  0.5358
 9944SOL     OW38799   0.400  11.146   1.839 -0.2339  0.8978 -0.3454
 9944SOL    HW138800   0.333  11.078   1.843  0.2317  0.4562  0.0632
 9944SOL    HW238801   0.367  11.209   1.775  0.2889 -0.7445 -2.3359
 9945SOL     OW38802  10.013   0.328   5.896  0.2572 -0.3302  0.4317
 9945SOL    HW138803   9.926   0.356   5.866  0.0529 -0.5926  0.7768
 9945SOL    HW238804  10.060   0.410   5.911  0.0893 -0.1869  0.1878
 9946SOL     OW38805  10.146   4.023   5.312  0.4900 -0.3702  0.2154
 9946SOL    HW138806  10.140   4.049   5.404  1.0111  0.2889  0.0723
 9946SOL    HW238807  10.066   3.974   5.295  0.1915 -0.1288  0.9046
 9947SOL     OW38808   3.827   4.670   1.446  0.1215  0.5587  0.2975
 9947SOL    HW138809   3.736   4.654   1.471  0.4905 -0.0318  1.2847
 9947SOL    HW238810   3.833   4.637   1.356  0.0624 -2.0964  1.1878
 9948SOL     OW38811   3.316   9.758   4.335 -0.0388 -0.3139 -0.2200
 9948SOL    HW138812   3.322   9.836   4.281 -0.8550  0.5484  0.8747
 9948SOL    HW238813   3.308   9.792   4.425 -0.9927 -1.6286  0.2201
 9949SOL     OW38814   1.022   4.618   4.667  0.4769 -0.3913 -0.4367
 9949SOL    HW138815   0.976   4.674   4.605 -1.7861 -1.1798  0.4033
 9949SOL    HW238816   1.030   4.534   4.622  1.5059 -0.1513 -0.7252
 9950SOL     OW38817   2.070   1.492   3.068  0.0091 -0.3088 -0.3731
 9950SOL    HW138818   2.054   1.439   2.990 -0.5188 -0.6493 -0.0451
 9950SOL    HW238819   1.985   1.532   3.088  0.4005  0.6680 -0.6109
 9951SOL     OW38820   2.526   9.353   1.805  0.2671  0.0448  0.5503
 9951SOL    HW138821   2.558   9.274   1.849 -0.2438  0.2009  1.2223
 9951SOL    HW238822   2.474   9.320   1.732 -1.0285 -0.2954  1.5773
 9952SOL     OW38823   4.351   4.148  12.071  0.1547 -0.1440 -0.6327
 9952SOL    HW138824   4.388   4.197  11.998  1.5428 -2.8905 -1.9264
 9952SOL    HW238825   4.419   4.148  12.138 -0.5866  1.2102  0.1661
 9953SOL     OW38826   6.099  12.394   7.296 -0.1381  0.5396  0.1008
 9953SOL    HW138827   6.102  12.385   7.201  0.1196  0.5717  0.1039
 9953SOL    HW238828   6.013  12.361   7.321  0.4341 -1.1231  0.0133
 9954SOL     OW38829   2.847   0.066   0.312  0.8374  0.1135 -0.0451
 9954SOL    HW138830   2.865  -0.013   0.261 -1.0522 -0.0484 -0.5511
 9954SOL    HW238831   2.917   0.127   0.287  0.3009 -0.1504 -2.5061
 9955SOL     OW38832   5.098   9.773   0.112  0.4856 -0.3864  0.4966
 9955SOL    HW138833   5.082   9.758   0.019  0.8800 -2.2358  0.7041
 9955SOL    HW238834   5.189   9.803   0.116 -0.4999  3.2042  0.0187
 9956SOL     OW38835   7.945   2.034  11.121  0.0393  0.2226  0.0863
 9956SOL    HW138836   8.025   1.982  11.122 -1.7549 -2.7512  0.7092
 9956SOL    HW238837   7.930   2.054  11.028  1.3045  0.5192 -0.0603
 9957SOL     OW38838  11.271   2.780  10.233 -0.4548 -0.3733  0.2514
 9957SOL    HW138839  11.275   2.793  10.138 -3.0053 -2.7651 -0.3008
 9957SOL    HW238840  11.363   2.777  10.261  0.3517  0.5943 -2.0604
 9958SOL     OW38841   2.722   0.779   7.387  0.1247  0.3352 -0.3872
 9958SOL    HW138842   2.816   0.762   7.385  0.1995  0.6885  0.0086
 9958SOL    HW238843   2.692   0.757   7.299  1.1197  3.2595 -1.5839
 9959SOL     OW38844   6.260   7.896   5.786 -0.0378  0.4625 -0.1116
 9959SOL    HW138845   6.277   7.945   5.866  0.1955 -0.0310  0.1468
 9959SOL    HW238846   6.345   7.892   5.741  0.2864 -0.9313  0.5736
 9960SOL     OW38847   9.199  10.862   9.766 -0.3386 -0.0261 -0.5626
 9960SOL    HW138848   9.177  10.781   9.720  0.0016 -0.3199 -0.2061
 9960SOL    HW238849   9.142  10.863   9.842 -0.0331 -0.1516 -0.3302
 9961SOL     OW38850   7.552   5.478   1.788 -0.2954 -0.0819 -0.2589
 9961SOL    HW138851   7.479   5.540   1.788 -0.9070 -0.7800  0.5986
 9961SOL    HW238852   7.517   5.400   1.744  0.0266 -0.3122 -0.1099
 9962SOL     OW38853   5.004   2.052   2.309  0.3703  0.2888  0.2194
 9962SOL    HW138854   5.033   2.139   2.338  2.2880  0.4638 -1.9351
 9962SOL    HW238855   5.085   2.002   2.298 -0.6386 -1.4725  0.4377
 9963SOL     OW38856   2.972   0.600  12.178 -0.6014 -0.5263  0.7120
 9963SOL    HW138857   2.921   0.679  12.198  0.4154  1.0473 -2.2498
 9963SOL    HW238858   3.057   0.633  12.149  0.7062 -2.8790  1.6204
 9964SOL     OW38859  10.652   1.532   7.425  0.0695  0.1590  0.5585
 9964SOL    HW138860  10.616   1.620   7.438 -1.0715 -0.3701  1.1635
 9964SOL    HW238861  10.692   1.509   7.509  0.8904  0.3202  0.2188
 9965SOL     OW38862   1.438   4.701   6.354 -0.0530  0.3056  0.2605
 9965SOL    HW138863   1.393   4.781   6.382 -2.0848 -0.4851 -0.5510
 9965SOL    HW238864   1.449   4.650   6.434  0.6605  1.0818  0.6743
 9966SOL     OW38865   0.439   2.753   4.687 -0.5798 -0.2447  0.5727
 9966SOL    HW138866   0.361   2.796   4.652 -0.9548 -0.6208  0.9441
 9966SOL    HW238867   0.502   2.825   4.699 -0.9455  0.0941  0.4893
 9967SOL     OW38868   1.259  12.057  12.233 -0.1609 -0.2353 -0.2751
 9967SOL    HW138869   1.207  12.115  12.177  0.2551 -0.7876 -1.2770
 9967SOL    HW238870   1.198  11.988  12.260 -0.5437  0.4212  0.5468
 9968SOL     OW38871   6.089  10.812   5.028  0.4665 -0.0031 -0.3328
 9968SOL    HW138872   6.019  10.747   5.020 -0.1173  0.5549  0.0377
 9968SOL    HW238873   6.043  10.891   5.057  1.5558 -0.3161  2.6357
 9969SOL     OW38874   2.464   2.618   8.747  0.2739 -0.7430  0.2694
 9969SOL    HW138875   2.413   2.658   8.817 -0.7726 -1.3587 -0.1097
 9969SOL    HW238876   2.493   2.535   8.783 -0.9281 -1.4182 -0.2588
 9970SOL     OW38877   8.602   2.562   6.279  0.4184  0.4775  0.0696
 9970SOL    HW138878   8.534   2.549   6.213  0.7661 -0.4474 -0.1211
 9970SOL    HW238879   8.599   2.483   6.333  2.2110 -0.2154 -0.7613
 9971SOL     OW38880   8.704  10.930   2.373  0.4953 -0.6005 -0.3330
 9971SOL    HW138881   8.754  10.976   2.306  0.1631  1.6115  0.8459
 9971SOL    HW238882   8.724  10.977   2.454  0.2643 -2.6967  1.0130
 9972SOL     OW38883  11.390   6.632   7.057 -0.6098 -0.1154 -0.0944
 9972SOL    HW138884  11.342   6.570   7.112 -0.7493  0.8070  0.8564
 9972SOL    HW238885  11.482   6.613   7.074 -0.6518 -0.0668  0.1787
 9973SOL     OW38886   8.015  11.349   9.525  0.2034 -0.2637 -0.0076
 9973SOL    HW138887   7.947  11.355   9.592 -0.6915 -0.8666 -0.8226
 9973SOL    HW238888   8.097  11.350   9.573 -0.4081 -0.2675  1.0650
 9974SOL     OW38889   8.788   7.274   5.811  0.2513 -0.2100 -0.3378
 9974SOL    HW138890   8.819   7.359   5.843 -1.5219  0.2727  0.1973
 9974SOL    HW238891   8.735   7.294   5.734 -0.4487 -0.7752 -0.0239
 9975SOL     OW38892   9.199  11.821   2.436 -0.6460 -0.5360  0.4076
 9975SOL    HW138893   9.127  11.879   2.413 -0.4777  0.2982  1.8961
 9975SOL    HW238894   9.181  11.740   2.387 -1.9582  0.0515 -0.1263
 9976SOL     OW38895   5.491   9.582   3.874 -0.4570  0.1752 -0.3507
 9976SOL    HW138896   5.577   9.614   3.901 -0.5469 -0.3494  0.5862
 9976SOL    HW238897   5.438   9.583   3.954 -1.5507  1.1656 -1.0457
 9977SOL     OW38898   5.792   8.318   3.700  0.0208 -0.4462 -0.0818
 9977SOL    HW138899   5.750   8.242   3.660  0.2496 -0.1902 -0.8152
 9977SOL    HW238900   5.785   8.387   3.634  0.8846 -0.1746  0.1034
 9978SOL     OW38901   1.398   6.444  12.363 -0.3109  0.3915  0.5273
 9978SOL    HW138902   1.381   6.353  12.339  1.0165 -0.0059  0.9986
 9978SOL    HW238903   1.442   6.481  12.286 -0.1488  0.4024  0.6234
 9979SOL     OW38904   7.835   2.141   9.220  0.0545  0.2251 -0.4046
 9979SOL    HW138905   7.790   2.070   9.173 -1.9509  0.8928  0.4133
 9979SOL    HW238906   7.872   2.098   9.297 -1.4904  0.0835  0.2941
 9980SOL     OW38907   9.820   7.671   1.465  0.5304 -0.1056  0.5676
 9980SOL    HW138908   9.894   7.634   1.514  0.5322 -2.0052 -0.7804
 9980SOL    HW238909   9.744   7.623   1.496  0.1086  0.6196  0.6762
 9981SOL     OW38910   4.155   0.233  11.430 -0.0500  0.0026 -0.0050
 9981SOL    HW138911   4.196   0.255  11.514  0.9030  0.4533 -0.5650
 9981SOL    HW238912   4.075   0.186  11.453 -0.3374  1.0143  1.1791
 9982SOL     OW38913   0.843  10.216   1.711  0.1393  0.3669  0.1290
 9982SOL    HW138914   0.763  10.269   1.710  0.0847  0.3530  1.4137
 9982SOL    HW238915   0.907  10.267   1.663 -1.3724 -0.9036 -3.5838
 9983SOL     OW38916   6.634   7.671   1.728 -0.6002  0.0780 -0.0219
 9983SOL    HW138917   6.566   7.698   1.790 -0.7651  2.0224 -0.9757
 9983SOL    HW238918   6.674   7.753   1.699  1.4643 -0.9678 -0.2914
 9984SOL     OW38919   8.060   6.808  10.908  0.3618  0.4761  0.2209
 9984SOL    HW138920   8.092   6.821  10.998  1.1450  0.4022 -0.0433
 9984SOL    HW238921   8.131   6.840  10.853  0.3098 -0.4421 -0.3876
 9985SOL     OW38922   5.036   3.910  11.712 -0.5688 -0.3137 -0.5304
 9985SOL    HW138923   4.956   3.961  11.707 -0.6679 -0.5294 -1.3961
 9985SOL    HW238924   5.060   3.894  11.620  0.4530 -0.2681 -0.2881
 9986SOL     OW38925   6.954   3.919   8.908 -0.1167  0.1910 -1.2099
 9986SOL    HW138926   6.893   3.945   8.839  0.3820  0.9132 -1.3813
 9986SOL    HW238927   6.904   3.857   8.962 -1.5526  1.9889 -0.3872
 9987SOL     OW38928   8.822   9.102  11.255 -0.7625  0.2751 -0.3262
 9987SOL    HW138929   8.775   9.042  11.313  0.2045 -0.2602 -0.0790
 9987SOL    HW238930   8.914   9.083  11.270 -0.2888  3.2912  1.3322
 9988SOL     OW38931  10.119   2.300  10.094  0.2774 -0.4963 -0.3607
 9988SOL    HW138932  10.035   2.286  10.050  0.0844 -1.6149  0.3208
 9988SOL    HW238933  10.095   2.317  10.185  0.8009 -1.9843  0.0915
 9989SOL     OW38934   7.928   9.025   2.192 -0.3258 -0.0513 -0.2637
 9989SOL    HW138935   7.910   9.117   2.173  0.9065  0.1945 -0.3685
 9989SOL    HW238936   7.860   8.998   2.253  0.2569  1.4239  1.0931
 9990SOL     OW38937  10.580   3.107   9.353 -0.0353 -0.0294 -0.0733
 9990SOL    HW138938  10.569   3.017   9.320  0.2313 -0.1479  0.1577
 9990SOL    HW238939  10.571   3.162   9.275 -0.5872 -0.2318 -0.1580
 9991SOL     OW38940  11.657   2.561   1.710  0.2543  0.3784  0.2499
 9991SOL    HW138941  11.680   2.616   1.785 -1.5289  1.2014  0.2384
 9991SOL    HW238942  11.611   2.486   1.748  1.1322 -0.2519  0.1149
 9992SOL     OW38943   0.773   1.996   9.345 -0.0219 -0.2331 -0.1704
 9992SOL    HW138944   0.843   2.010   9.409  0.2576 -1.4677 -0.1819
 9992SOL    HW238945   0.812   2.022   9.262 -0.1270  0.6278  0.0372
 9993SOL     OW38946   6.582   1.196  11.554  0.2683 -0.1298  0.6404
 9993SOL    HW138947   6.530   1.116  11.549 -0.9029  0.5823  0.9438
 9993SOL    HW238948   6.636   1.186  11.632  1.0891 -1.1540 -0.0355
 9994SOL     OW38949  12.406   0.437  11.252  0.2884  0.6336  0.0457
 9994SOL    HW138950  12.382   0.344  11.250  0.3069  0.6430 -0.7704
 9994SOL    HW238951  12.500   0.438  11.232  0.1765  0.8603 -0.4884
 9995SOL     OW38952   9.422  10.899   3.604 -0.4966 -0.4969  0.3755
 9995SOL    HW138953   9.408  10.902   3.699 -0.2204  0.4415  0.3922
 9995SOL    HW238954   9.517  10.890   3.594 -0.2670  1.5589  0.1969
 9996SOL     OW38955   2.076  10.849  10.860 -0.1011 -0.1763  0.1108
 9996SOL    HW138956   2.065  10.847  10.765 -2.4299  1.2598  0.2678
 9996SOL    HW238957   2.152  10.905  10.875  0.6524 -0.9142 -0.9004
 9997SOL     OW38958   8.433   0.868   4.650  0.3635 -0.4347  0.4596
 9997SOL    HW138959   8.414   0.815   4.573 -1.0717  0.8006 -0.0800
 9997SOL    HW238960   8.354   0.863   4.703  0.0399  1.4234  0.2207
 9998SOL     OW38961  11.135   9.758  11.030  0.0818 -0.0534  0.4164
 9998SOL    HW138962  11.194   9.730  11.100 -0.5767 -0.1899  0.9258
 9998SOL    HW238963  11.114   9.678  10.982  0.5298  0.0403  0.0621
 9999SOL     OW38964  11.035   8.504   2.881 -0.1021  0.5791  0.3695
 9999SOL    HW138965  11.117   8.540   2.845 -1.2482  1.7191 -1.2484
 9999SOL    HW238966  11.043   8.516   2.975  0.3354  3.5235  0.0341
10000SOL     OW38967   2.952  12.079   6.764  0.5993 -0.3883 -0.4908
10000SOL    HW138968   2.999  12.014   6.816  0.3197 -0.0946  0.1382
10000SOL    HW238969   2.874  12.100   6.816  1.3751  1.4888 -0.0019
10001SOL     OW38970   9.456  10.582  11.890 -0.2853 -0.2045  0.3830
10001SOL    HW138971   9.428  10.508  11.835  2.6640 -1.2681  0.0935
10001SOL    HW238972   9.469  10.654  11.828  0.9757 -0.7779 -0.0625
10002SOL     OW38973   7.947   3.388   7.008 -0.0890 -0.0393  0.2061
10002SOL    HW138974   7.943   3.321   7.076 -0.0048  0.0237  0.2722
10002SOL    HW238975   7.856   3.415   6.997  0.1361  1.5887  1.9131
10003SOL     OW38976   8.743   0.690   9.818  0.3227 -0.4797  0.4706
10003SOL    HW138977   8.817   0.723   9.767  0.2530 -0.5863  0.2985
10003SOL    HW238978   8.781   0.662   9.901  0.1978  1.3892  1.2197
10004SOL     OW38979   0.747   3.394   4.384 -0.5573  0.6105 -0.3418
10004SOL    HW138980   0.706   3.338   4.450 -2.5328  1.5385 -0.7179
10004SOL    HW238981   0.781   3.469   4.434  0.7490 -0.1533 -0.0328
10005SOL     OW38982   4.617  10.269   8.676  0.5552 -0.3172  0.1338
10005SOL    HW138983   4.546  10.311   8.724 -0.0651 -0.4303 -0.6531
10005SOL    HW238984   4.651  10.202   8.734  0.1999 -0.0769  0.6192
10006SOL     OW38985   4.555   3.176   7.704 -0.4574 -0.2359 -0.2424
10006SOL    HW138986   4.520   3.123   7.633  0.9793 -1.6766  0.0635
10006SOL    HW238987   4.625   3.123   7.741  0.1878  1.3560  0.9326
10007SOL     OW38988   3.924  11.974   9.909 -0.1164  0.2324 -0.3759
10007SOL    HW138989   3.886  11.887   9.898  0.9589 -0.1871 -0.9807
10007SOL    HW238990   4.003  11.973   9.854  1.0037  0.9153  1.1385
10008SOL     OW38991   7.962   9.504   8.417 -0.3186 -0.2958  0.3233
10008SOL    HW138992   7.887   9.514   8.475 -0.8364  0.5138 -0.4654
10008SOL    HW238993   7.950   9.418   8.377 -0.6018 -0.3379  0.4949
10009SOL     OW38994   2.240  12.223   2.984  0.3598 -0.4900 -0.2139
10009SOL    HW138995   2.217  12.266   3.066  2.7977 -0.3537  0.4752
10009SOL    HW238996   2.196  12.275   2.917  1.8797  2.2018  0.7150
10010SOL     OW38997  10.893  11.597   9.121 -1.0141 -0.1135  0.5044
10010SOL    HW138998  10.859  11.673   9.075  0.9482  1.1165  0.9427
10010SOL    HW238999  10.908  11.628   9.210 -0.2204 -1.0139  0.7047
10011SOL     OW39000   0.856   4.126   9.705  0.0015  0.6508 -0.1539
10011SOL    HW139001   0.874   4.162   9.792  2.5006 -0.3292 -0.1888
10011SOL    HW239002   0.761   4.119   9.701 -0.1637 -0.0112  2.8395
10012SOL     OW39003   2.674   1.669   4.497  0.2871  0.0629  0.2026
10012SOL    HW139004   2.671   1.643   4.405  2.5360  0.1282  0.0495
10012SOL    HW239005   2.718   1.596   4.541 -0.8091  0.0120  1.2539
10013SOL     OW39006  10.408   8.633   3.383 -0.2876 -0.1194  0.2074
10013SOL    HW139007  10.446   8.716   3.355  0.7442 -0.4363  0.6254
10013SOL    HW239008  10.483   8.577   3.401 -0.9349 -1.9560 -2.3244
10014SOL     OW39009  10.665   7.856   6.865  0.9369 -0.3189  0.3122
10014SOL    HW139010  10.617   7.791   6.915  1.1171 -0.5548  0.1807
10014SOL    HW239011  10.719   7.902   6.929 -1.0081  1.3873  0.8232
10015SOL     OW39012  11.178   8.454   0.256  0.0777  0.5646  0.4318
10015SOL    HW139013  11.115   8.469   0.186 -2.4264  1.3612  2.7002
10015SOL    HW239014  11.211   8.541   0.279 -0.4352  0.5292  1.3551
10016SOL     OW39015   1.137   2.041   5.651 -0.1518  0.4223  0.5737
10016SOL    HW139016   1.178   2.106   5.593 -3.1614  1.5342 -0.4863
10016SOL    HW239017   1.179   1.959   5.627  0.7274  1.3140 -1.1579
10017SOL     OW39018   3.019   2.213  10.570 -0.0749 -0.2829 -0.1374
10017SOL    HW139019   3.000   2.121  10.588 -0.1594 -0.1150  0.6692
10017SOL    HW239020   2.941   2.247  10.527 -0.3022 -0.4214  0.1698
10018SOL     OW39021   6.414   0.186   3.369 -0.0418 -0.3187  0.1023
10018SOL    HW139022   6.505   0.177   3.339  0.3262 -2.6792  1.6320
10018SOL    HW239023   6.411   0.272   3.410  1.7044 -0.4479  0.5831
10019SOL     OW39024   3.512   4.795   2.747 -0.8059 -0.1250  0.8017
10019SOL    HW139025   3.604   4.812   2.727 -0.4931 -0.5558  1.8053
10019SOL    HW239026   3.476   4.881   2.769 -0.5994  0.0111  0.6210
10020SOL     OW39027  11.374   0.787  11.722  0.3931 -0.4788 -0.3205
10020SOL    HW139028  11.308   0.786  11.652  0.2171 -1.3933 -0.1558
10020SOL    HW239029  11.363   0.703  11.766  0.0700  0.3373  1.2351
10021SOL     OW39030   9.931  10.572   6.057  0.1700  0.0200  0.0338
10021SOL    HW139031   9.984  10.512   6.006  2.1676  0.4419  1.5037
10021SOL    HW239032   9.870  10.516   6.105  0.6051 -0.6534 -0.1890
10022SOL     OW39033   6.760   6.051  11.264 -0.0245 -0.1693 -0.2928
10022SOL    HW139034   6.788   5.968  11.302  0.2035 -0.7835 -1.7597
10022SOL    HW239035   6.840   6.102  11.255  0.0248 -0.3097 -0.6394
10023SOL     OW39036   4.266   5.818   8.487 -0.1746 -0.2004 -0.2809
10023SOL    HW139037   4.297   5.793   8.400  1.1220  1.2491 -0.2755
10023SOL    HW239038   4.203   5.888   8.471  1.5300  1.4934 -0.0548
10024SOL     OW39039  10.409   5.525   5.102  0.0187  0.6856 -0.3501
10024SOL    HW139040  10.491   5.558   5.140  1.3890 -1.8008 -0.9048
10024SOL    HW239041  10.359   5.492   5.177  1.9974 -2.7034 -0.3088
10025SOL     OW39042   6.343   5.536   2.951 -0.0900  0.1102  0.4553
10025SOL    HW139043   6.432   5.567   2.968  0.3498 -1.1774  0.5922
10025SOL    HW239044   6.354   5.462   2.892 -1.2604  1.5078 -1.6586
10026SOL     OW39045   4.468  10.889   5.920  0.3274 -0.0518  0.2554
10026SOL    HW139046   4.459  10.877   5.826  0.6208 -0.9269  0.3286
10026SOL    HW239047   4.481  10.983   5.932 -3.5947  0.7583 -0.2781
10027SOL     OW39048  11.726   4.815  12.109 -0.2794  0.2646  0.2263
10027SOL    HW139049  11.776   4.848  12.184  1.1972 -0.2110 -0.5137
10027SOL    HW239050  11.793   4.789  12.045 -1.3644 -2.8369  0.2045
10028SOL     OW39051   1.058   3.873   1.030 -0.6238  0.4242  0.2869
10028SOL    HW139052   1.047   3.847   1.121  0.6693  0.0925  0.3704
10028SOL    HW239053   1.015   3.805   0.979 -1.6952  0.8175  0.6490
10029SOL     OW39054   1.155   1.716  11.090  0.2328  0.5286 -0.2464
10029SOL    HW139055   1.093   1.694  11.159  0.8497  0.8506  0.4139
10029SOL    HW239056   1.211   1.639  11.081 -1.1480 -0.3671 -1.8737
10030SOL     OW39057   8.570   5.572   9.080  0.0008  0.3780  0.5566
10030SOL    HW139058   8.622   5.633   9.028  0.9424 -1.8838 -1.3431
10030SOL    HW239059   8.634   5.518   9.125 -0.6121 -1.5851 -0.7694
10031SOL     OW39060   4.620   3.159   9.873  0.4234 -0.4685 -0.0336
10031SOL    HW139061   4.700   3.108   9.861  1.6695  1.4574 -0.2316
10031SOL    HW239062   4.599   3.192   9.786  0.8768  1.1151  0.4282
10032SOL     OW39063   3.169   4.777   1.513 -0.3169  0.3714  0.3297
10032SOL    HW139064   3.150   4.703   1.571  0.8930  1.1864  1.8320
10032SOL    HW239065   3.116   4.760   1.434  0.0340 -2.1400  0.5585
10033SOL     OW39066   3.220   7.833   3.754  0.2190  0.5796  0.4621
10033SOL    HW139067   3.208   7.801   3.664 -0.6405 -0.5009  0.9423
10033SOL    HW239068   3.151   7.898   3.766 -1.1328 -0.8947  1.0476
10034SOL     OW39069  11.874   7.282   8.441  0.1149  0.3364  0.1874
10034SOL    HW139070  11.781   7.277   8.422  0.2252 -2.6862 -0.0064
10034SOL    HW239071  11.916   7.293   8.356  0.0080 -0.5844  0.0045
10035SOL     OW39072   9.052  10.495   8.812  0.0694  0.1756 -0.2660
10035SOL    HW139073   9.033  10.487   8.718 -2.3965  3.5075 -0.2631
10035SOL    HW239074   8.999  10.428   8.853 -2.4847  1.5317 -1.1101
10036SOL     OW39075   9.567   5.217   9.899 -0.0613 -0.1389  1.0414
10036SOL    HW139076   9.647   5.169   9.918 -1.1633 -1.6279  2.0797
10036SOL    HW239077   9.560   5.280   9.970  1.0882  1.2708 -0.0205
10037SOL     OW39078   3.472  10.910   3.556 -0.1302 -0.5535  0.5334
10037SOL    HW139079   3.453  11.002   3.535 -0.7813 -0.7088  0.4099
10037SOL    HW239080   3.399  10.862   3.517 -0.1326 -1.0643  1.1703
10038SOL     OW39081  10.857   0.890   9.951  0.6378  0.1337 -0.3562
10038SOL    HW139082  10.848   0.975   9.909 -2.9380  0.7436  1.2365
10038SOL    HW239083  10.811   0.830   9.892  0.2861 -0.0224  0.0704
10039SOL     OW39084   6.503   9.979   4.685  0.2813  0.4246 -0.5461
10039SOL    HW139085   6.445  10.034   4.737  0.3208  0.7771 -0.8678
10039SOL    HW239086   6.506   9.896   4.731 -1.1992  0.0883 -1.0141
10040SOL     OW39087   7.065  10.735   6.879  0.1983  0.8778 -0.3883
10040SOL    HW139088   7.140  10.783   6.843 -0.5386  2.5335  0.1676
10040SOL    HW239089   6.989  10.785   6.849 -0.6735 -0.5220 -0.5742
10041SOL     OW39090   4.093   1.611   4.870 -0.2522  0.3887 -0.3515
10041SOL    HW139091   4.169   1.661   4.900  0.1373  0.1250 -0.8828
10041SOL    HW239092   4.043   1.593   4.950 -0.7660  2.1947 -0.2289
10042SOL     OW39093   3.236   1.328   4.940  0.9888  0.4128  0.5009
10042SOL    HW139094   3.174   1.278   4.886  1.3215  1.2414 -0.6978
10042SOL    HW239095   3.191   1.411   4.956  0.4048 -0.2512  2.5474
10043SOL     OW39096   2.901  11.061   9.565  0.3679  0.3108 -0.2057
10043SOL    HW139097   2.955  11.016   9.500  0.2182 -0.6152  0.2887
10043SOL    HW239098   2.841  11.115   9.514  0.3837 -0.2554 -0.8356
10044SOL     OW39099   4.869   8.378   6.569 -0.2966 -0.0896  0.2410
10044SOL    HW139100   4.894   8.438   6.498 -0.6324 -1.7091 -1.3047
10044SOL    HW239101   4.952   8.348   6.605 -0.0758 -0.7433 -0.7834
10045SOL     OW39102   5.552  11.513   9.652 -1.1805  0.0922  0.1556
10045SOL    HW139103   5.471  11.477   9.616 -0.3329  0.1407 -1.9585
10045SOL    HW239104   5.540  11.608   9.650 -1.3353  0.0778  0.4774
10046SOL     OW39105   0.090   2.486   1.960 -0.4885 -0.1847  0.5000
10046SOL    HW139106   0.001   2.520   1.962 -0.1827  0.7358 -0.3266
10046SOL    HW239107   0.081   2.398   1.923 -1.3750 -1.3911  3.3447
10047SOL     OW39108   8.059   2.992   7.745  0.2386  0.0854 -0.6214
10047SOL    HW139109   7.986   3.054   7.739  1.3891  1.6289  0.4873
10047SOL    HW239110   8.044   2.945   7.826  1.0635  1.2642  0.2506
10048SOL     OW39111   8.804   0.338   0.870  0.1449  0.3684  0.2632
10048SOL    HW139112   8.742   0.296   0.809  2.2349 -1.1069 -0.9769
10048SOL    HW239113   8.779   0.305   0.956  0.0087 -1.3208 -0.3783
10049SOL     OW39114   8.566  10.959   3.704  0.1064 -0.6088 -0.2528
10049SOL    HW139115   8.522  10.973   3.620  0.7709  0.1222 -0.4930
10049SOL    HW239116   8.659  10.974   3.686  0.0045  3.1699  1.2536
10050SOL     OW39117   0.754   0.566  12.581  0.7215  0.5291 -0.1064
10050SOL    HW139118   0.816   0.597  12.515  1.3984 -1.2437 -0.3725
10050SOL    HW239119   0.726   0.480  12.549  2.6383 -1.4009  2.7895
10051SOL     OW39120   2.355   7.834   2.734 -0.0177 -0.5882 -0.1066
10051SOL    HW139121   2.285   7.884   2.691  0.6040  0.0987 -0.3461
10051SOL    HW239122   2.310   7.759   2.774 -0.8698 -0.2182 -0.3437
10052SOL     OW39123   5.227   8.477   8.765 -0.2636 -0.1757 -0.3038
10052SOL    HW139124   5.284   8.472   8.842 -0.3944  0.2260 -0.1760
10052SOL    HW239125   5.247   8.562   8.726 -0.3053 -0.3149 -0.6335
10053SOL     OW39126  12.085   6.960   6.801 -0.3823 -0.4452  0.0997
10053SOL    HW139127  12.010   7.016   6.822 -0.4594 -0.6683  0.4149
10053SOL    HW239128  12.161   7.017   6.813 -0.4978 -0.2167 -0.2243
10054SOL     OW39129   2.048  11.093   1.085  0.2999 -0.2614 -0.4007
10054SOL    HW139130   2.062  11.186   1.066 -0.5723 -0.3300 -1.4752
10054SOL    HW239131   1.963  11.090   1.129  0.4175 -0.5294 -0.1898
10055SOL     OW39132   0.478  10.950   5.963 -0.1411 -0.0076  0.3306
10055SOL    HW139133   0.550  11.007   5.939  0.3745 -1.4054 -1.7629
10055SOL    HW239134   0.473  10.886   5.891 -0.7606 -2.4869  2.4068
10056SOL     OW39135   1.373   4.346   8.248 -0.0268  0.1214  0.9206
10056SOL    HW139136   1.462   4.358   8.282  0.8786 -0.6367 -1.0058
10056SOL    HW239137   1.337   4.273   8.298  1.1718 -0.8107  0.4782
10057SOL     OW39138   6.419   1.385   6.657  0.3492  0.1055  0.2124
10057SOL    HW139139   6.506   1.409   6.691  1.0714  0.3280 -1.6896
10057SOL    HW239140   6.361   1.394   6.733  1.9325  0.2020  1.4726
10058SOL     OW39141   1.419   1.646   0.344 -0.2413  0.1993 -0.4359
10058SOL    HW139142   1.377   1.560   0.351  0.4078 -0.1824 -1.1874
10058SOL    HW239143   1.478   1.638   0.269  0.0030  1.2268 -0.3583
10059SOL     OW39144   8.673   1.053   7.042  0.0117 -0.2207 -0.2648
10059SOL    HW139145   8.726   1.124   7.007 -0.2015  0.7532  1.2618
10059SOL    HW239146   8.659   1.078   7.134 -1.7499 -1.2348 -0.2235
10060SOL     OW39147   8.044   6.389  10.420 -0.2636 -0.4189 -0.2121
10060SOL    HW139148   7.953   6.365  10.438 -0.0374 -1.9057 -0.8610
10060SOL    HW239149   8.052   6.382  10.325 -0.0319  1.9076 -0.4140
10061SOL     OW39150   5.869   7.148   8.392 -0.4799 -0.1645 -0.0954
10061SOL    HW139151   5.896   7.057   8.375 -1.4560 -0.0484 -2.6661
10061SOL    HW239152   5.933   7.180   8.455  1.9513 -1.6422 -1.6286
10062SOL     OW39153  10.306  12.000   4.433  0.2239 -0.9802 -0.4215
10062SOL    HW139154  10.281  12.091   4.450  1.5927 -0.7554  0.5607
10062SOL    HW239155  10.271  11.982   4.346 -0.1413  0.4581 -0.6095
10063SOL     OW39156   9.392   6.923   4.382 -0.2200 -0.2584 -0.1665
10063SOL    HW139157   9.449   6.981   4.331 -0.2484  0.3365  0.4534
10063SOL    HW239158   9.305   6.963   4.375 -0.7061 -1.5108 -1.6309
10064SOL     OW39159  11.865  12.187   1.407 -0.1930 -0.1929 -0.4036
10064SOL    HW139160  11.779  12.163   1.371  0.4679 -1.9389 -0.9090
10064SOL    HW239161  11.898  12.253   1.347 -1.4390  1.0168  0.1739
10065SOL     OW39162   6.833   3.362   1.836 -0.1639 -0.5193 -0.5672
10065SOL    HW139163   6.917   3.315   1.841  0.2045  0.0372 -1.2499
10065SOL    HW239164   6.857   3.450   1.807 -0.9660 -0.2871 -0.5391
10066SOL     OW39165   6.350   9.686  11.006  0.1905  0.3674  0.0647
10066SOL    HW139166   6.399   9.766  10.985  0.9753  0.1055  0.8119
10066SOL    HW239167   6.273   9.717  11.054 -1.5322  0.9574 -2.8287
10067SOL     OW39168  12.504   8.363   3.361  0.7190  0.1110 -0.2991
10067SOL    HW139169  12.594   8.359   3.394  0.9661  0.4540 -0.9224
10067SOL    HW239170  12.512   8.392   3.271 -0.1745  2.7810  0.3813
10068SOL     OW39171  10.351   6.399   8.567  0.4630 -0.0243 -0.4286
10068SOL    HW139172  10.290   6.468   8.540 -1.4915 -0.6605  1.9925
10068SOL    HW239173  10.419   6.444   8.616  0.1215  0.3580 -0.2991
10069SOL     OW39174   9.557  10.704   8.066 -0.0310 -0.1340  0.2337
10069SOL    HW139175   9.480  10.717   8.011 -0.7751  0.5352  1.3919
10069SOL    HW239176   9.631  10.710   8.006 -0.8975 -1.6322 -1.0489
10070SOL     OW39177   0.282   5.291   3.559 -0.5291 -0.2655  0.0215
10070SOL    HW139178   0.374   5.311   3.541 -0.8821  0.2864 -1.3065
10070SOL    HW239179   0.285   5.220   3.623  0.8301 -0.8259 -0.6235
10071SOL     OW39180   7.730   2.810  10.336  0.3058  0.2449 -0.3554
10071SOL    HW139181   7.749   2.718  10.316  0.2267 -0.1090  1.0437
10071SOL    HW239182   7.733   2.814  10.432  0.2814  1.7030 -0.3950
10072SOL     OW39183   2.945   9.904  11.299 -0.3928 -0.3134  0.2926
10072SOL    HW139184   2.934   9.953  11.380 -0.2369 -1.5151  1.0486
10072SOL    HW239185   2.993   9.825  11.324  0.5261 -0.2537 -1.1270
10073SOL     OW39186   9.667   7.851  11.325  0.1733 -0.2920  0.0479
10073SOL    HW139187   9.676   7.858  11.420 -0.3124 -1.8326  0.2492
10073SOL    HW239188   9.642   7.759  11.311  0.6522 -0.1926 -1.6016
10074SOL     OW39189   4.025   4.505   4.167  0.0173 -0.9189  0.0756
10074SOL    HW139190   4.084   4.549   4.105 -0.2451 -0.6051  0.0454
10074SOL    HW239191   4.017   4.416   4.133 -2.0745 -0.1307 -1.7895
10075SOL     OW39192   0.322  11.266   5.242 -0.4845 -0.3913 -0.4026
10075SOL    HW139193   0.268  11.198   5.282 -1.1330 -0.4129 -1.2711
10075SOL    HW239194   0.297  11.347   5.288 -1.4232 -0.3670 -0.9290
10076SOL     OW39195  10.105   8.773   9.139 -0.4905 -0.6108 -0.8902
10076SOL    HW139196  10.088   8.680   9.123  0.6550 -0.8860 -0.6630
10076SOL    HW239197  10.179   8.794   9.082  0.4742 -0.3442  0.3847
10077SOL     OW39198   8.859   6.562   3.853 -0.1895 -0.3717 -0.4131
10077SOL    HW139199   8.837   6.567   3.946  1.5190  0.8773 -0.0185
10077SOL    HW239200   8.830   6.476   3.825 -0.1601 -1.0182  1.4424
10078SOL     OW39201   6.025   5.980   1.772  0.0151 -0.4702 -0.1565
10078SOL    HW139202   6.116   5.970   1.747 -0.1529 -0.6877 -0.7003
10078SOL    HW239203   5.994   5.890   1.785 -0.4894 -0.4806 -1.3361
10079SOL     OW39204   4.966  10.525  12.220 -0.5375 -0.0899  0.6711
10079SOL    HW139205   4.955  10.619  12.236  0.3741 -0.0238  0.9819
10079SOL    HW239206   4.922  10.510  12.136 -0.0592  0.7697  0.2494
10080SOL     OW39207   4.190   8.145   9.626 -0.5811 -0.2271  0.3822
10080SOL    HW139208   4.284   8.157   9.643 -0.2348 -1.4376 -0.5736
10080SOL    HW239209   4.151   8.230   9.648  0.6666  0.1723  1.1964
10081SOL     OW39210   5.094   3.946   1.577  0.4833  0.5755  0.0512
10081SOL    HW139211   5.122   4.035   1.597  1.0536  0.9068 -1.9925
10081SOL    HW239212   5.128   3.929   1.490 -0.7855 -1.1618 -0.1626
10082SOL     OW39213  10.672   1.200   5.579  0.0676  0.1422 -0.0119
10082SOL    HW139214  10.648   1.276   5.526  0.5018 -0.0304 -0.4669
10082SOL    HW239215  10.606   1.135   5.558  1.1456 -0.4955 -1.6219
10083SOL     OW39216   8.461   1.997   9.483 -0.5087  0.4287  0.1854
10083SOL    HW139217   8.475   2.051   9.405 -1.3417  0.6632  0.1886
10083SOL    HW239218   8.525   1.926   9.475  1.7391  2.2280  0.9603
10084SOL     OW39219   9.824   1.349   4.901  0.5069  0.2039 -0.2649
10084SOL    HW139220   9.842   1.257   4.881 -0.1071  0.0735 -0.2402
10084SOL    HW239221   9.772   1.380   4.827  0.0751  0.3196  0.0816
10085SOL     OW39222   2.705   0.066   0.822 -0.2539  0.0096  0.5517
10085SOL    HW139223   2.750   0.049   0.739 -1.2426 -1.1630  0.2177
10085SOL    HW239224   2.648  -0.010   0.833 -3.5332  2.2002  0.0396
10086SOL     OW39225   6.549   6.650   3.785 -0.0935  0.2787 -0.7468
10086SOL    HW139226   6.467   6.599   3.779 -0.6822  1.2857 -1.4333
10086SOL    HW239227   6.618   6.583   3.789 -0.9772 -0.6221  0.8138
10087SOL     OW39228   3.725   2.719   1.019  0.2231  0.1041 -0.7412
10087SOL    HW139229   3.770   2.791   0.975  0.1132  0.1866 -0.7179
10087SOL    HW239230   3.793   2.680   1.075  0.8098 -1.0214 -2.1709
10088SOL     OW39231   2.545  10.112  11.439 -0.0058 -0.1866 -0.0934
10088SOL    HW139232   2.561  10.124  11.532 -2.0184  1.6151  0.1226
10088SOL    HW239233   2.632  10.118  11.398  0.7675  0.4083  1.5512
10089SOL     OW39234  10.137   4.823   8.210 -0.2108 -0.1647  0.1379
10089SOL    HW139235  10.212   4.858   8.258  1.5548 -1.7128 -1.3514
10089SOL    HW239236  10.088   4.773   8.275  0.1516  0.6762  1.0839
10090SOL     OW39237   7.695   4.371   2.530  0.0718  0.2847 -0.1850
10090SOL    HW139238   7.753   4.386   2.605  1.4990 -0.7666 -1.0328
10090SOL    HW239239   7.622   4.432   2.544  0.1244 -0.1003  2.2138
10091SOL     OW39240   9.140   0.201   8.867  0.2762 -0.2556 -0.3120
10091SOL    HW139241   9.162   0.126   8.922  0.9918  1.6408  2.1524
10091SOL    HW239242   9.069   0.169   8.811  1.3071 -3.0625 -0.1758
10092SOL     OW39243   0.926   6.449   4.247 -0.1534  0.3727  0.4280
10092SOL    HW139244   0.995   6.492   4.297  0.8049 -1.1759  0.4798
10092SOL    HW239245   0.936   6.484   4.158 -0.9899  2.0828  0.9462
10093SOL     OW39246   8.395  11.353   9.932  0.4016  0.5444 -0.2636
10093SOL    HW139247   8.388  11.441   9.896  0.5416  1.1866  1.2099
10093SOL    HW239248   8.489  11.335   9.933  0.4994  1.0695  0.9967
10094SOL     OW39249   0.248   0.213   5.365  0.1228 -0.3159 -0.3111
10094SOL    HW139250   0.200   0.295   5.373  0.3071 -0.3612  1.6940
10094SOL    HW239251   0.234   0.186   5.274 -0.1404  1.7919 -0.9584
10095SOL     OW39252  10.529   8.746   9.161 -0.1337  0.5368 -0.5661
10095SOL    HW139253  10.497   8.698   9.237  1.0208 -2.4295 -1.7958
10095SOL    HW239254  10.456   8.744   9.099  0.2231 -0.5903 -0.9787
10096SOL     OW39255   7.990   9.102  12.584 -0.1135  0.0065  0.5593
10096SOL    HW139256   7.995   9.141  12.497 -0.5064 -2.3152 -0.5623
10096SOL    HW239257   7.930   9.159  12.632  0.8312  1.8520 -0.3488
10097SOL     OW39258   7.174  10.976   8.662  0.2302  0.3814 -0.3938
10097SOL    HW139259   7.113  10.923   8.610 -1.0681  0.3109  1.1377
10097SOL    HW239260   7.160  11.065   8.632  0.2540  0.2199 -0.8916
10098SOL     OW39261   3.109   6.502  10.102  0.5048 -0.4501 -0.2843
10098SOL    HW139262   3.145   6.432  10.157 -0.4811 -1.8190 -1.3314
10098SOL    HW239263   3.149   6.488  10.016  0.3558  0.3332 -0.4820
10099SOL     OW39264  12.450  11.886   7.199  0.3131 -0.3592  0.5114
10099SOL    HW139265  12.543  11.873   7.181 -0.1814 -0.7096 -2.1236
10099SOL    HW239266  12.406  11.817   7.150 -1.4395  1.0895 -0.0726
10100SOL     OW39267   5.230   9.353   0.623  0.1552  0.7756 -0.2939
10100SOL    HW139268   5.261   9.347   0.532  1.6973  1.5437  0.1567
10100SOL    HW239269   5.290   9.414   0.665  0.2676 -0.5377  1.5837
10101SOL     OW39270   5.269   4.658   9.423 -0.1166  0.4243 -0.4637
10101SOL    HW139271   5.348   4.603   9.425 -0.6124 -0.3054 -0.5688
10101SOL    HW239272   5.302   4.747   9.438  0.5533 -0.0561  1.1262
10102SOL     OW39273   1.605  11.808   0.517 -0.2010  0.0146 -0.4051
10102SOL    HW139274   1.677  11.870   0.526 -0.6154  0.4623 -0.0895
10102SOL    HW239275   1.545  11.849   0.454 -0.4601 -0.0791 -0.2240
10103SOL     OW39276   4.962  11.978   7.323 -0.0161 -0.2065  0.1195
10103SOL    HW139277   4.980  12.069   7.301 -0.8589  0.1092  0.6657
10103SOL    HW239278   4.898  11.949   7.258  0.4464 -0.4912 -0.2114
10104SOL     OW39279   3.917  12.111  11.515 -0.5893 -0.3503  0.4124
10104SOL    HW139280   3.999  12.135  11.559 -1.0237  0.9357  0.5586
10104SOL    HW239281   3.941  12.104  11.423 -0.3026 -0.0224  0.4593
10105SOL     OW39282   2.269   6.415   5.086  0.0930 -0.5668  0.2591
10105SOL    HW139283   2.244   6.325   5.069 -1.1136 -0.7268  2.5036
10105SOL    HW239284   2.206   6.468   5.036  0.4621 -0.9370 -0.6202
10106SOL     OW39285   0.733   0.471   5.966  0.1359 -0.2984  0.1675
10106SOL    HW139286   0.688   0.388   5.978 -0.7552  0.1868  0.2294
10106SOL    HW239287   0.789   0.456   5.889  2.5018 -1.9789  2.0780
10107SOL     OW39288  12.550   0.010   5.621  0.7421  0.3631 -0.1897
10107SOL    HW139289  12.642   0.032   5.612  0.5785  1.1537 -0.0249
10107SOL    HW239290  12.545  -0.083   5.600  1.8416 -0.1220  1.4591
10108SOL     OW39291   3.534   4.200   9.868 -0.1714 -0.4357  0.8782
10108SOL    HW139292   3.487   4.275   9.834 -0.3781 -0.5746  0.8537
10108SOL    HW239293   3.592   4.172   9.797  1.2651  0.8126  1.5018
10109SOL     OW39294   7.847   0.230  10.546 -0.2282 -0.6337 -0.3095
10109SOL    HW139295   7.820   0.308  10.594 -0.8689 -0.8546 -0.2960
10109SOL    HW239296   7.819   0.157  10.601  1.2932 -0.8722  0.1672
10110SOL     OW39297   5.361   9.904  10.235 -0.5724 -0.2307 -0.4459
10110SOL    HW139298   5.281   9.930  10.280  0.0801  1.0283  0.0086
10110SOL    HW239299   5.380   9.816  10.268 -0.9174  0.0874  0.6149
10111SOL     OW39300   7.630   1.895   2.455  0.2453  0.5557  0.0556
10111SOL    HW139301   7.586   1.889   2.370  1.7814  0.4421 -0.7561
10111SOL    HW239302   7.590   1.972   2.497 -1.5288 -0.2134 -0.1489
10112SOL     OW39303   2.762   8.708   2.384 -0.1521 -0.5199 -0.1472
10112SOL    HW139304   2.847   8.738   2.417 -0.3654  0.1632 -0.2095
10112SOL    HW239305   2.767   8.613   2.390  0.0327 -0.4429  1.3026
10113SOL     OW39306   3.351   0.301   7.917 -0.3061  0.0586  0.3778
10113SOL    HW139307   3.308   0.234   7.971  0.1710 -0.5168  0.0592
10113SOL    HW239308   3.290   0.374   7.915 -0.0138  0.4102  2.3402
10114SOL     OW39309   1.361   4.092   9.299  0.3174  0.2455  0.0572
10114SOL    HW139310   1.452   4.118   9.314  0.2349  0.8536 -0.4947
10114SOL    HW239311   1.315   4.119   9.379 -0.0175  3.0151 -0.9582
10115SOL     OW39312   2.440   6.796   5.824  0.3956  0.1734 -0.1314
10115SOL    HW139313   2.399   6.782   5.738  0.3154 -1.3303  0.1215
10115SOL    HW239314   2.472   6.886   5.821  0.4754  0.1159 -1.7787
10116SOL     OW39315   6.354   0.166   5.780  0.2282 -0.5283 -0.6050
10116SOL    HW139316   6.289   0.096   5.785  0.2216 -0.6990 -2.5618
10116SOL    HW239317   6.315   0.230   5.721  0.8989  0.4267 -0.0308
10117SOL     OW39318   3.510  12.237  12.499  0.0933  0.3683  0.7299
10117SOL    HW139319   3.532  12.325  12.529  1.3325  0.6499 -0.8655
10117SOL    HW239320   3.592  12.203  12.463 -1.3420  0.3887 -3.0001
10118SOL     OW39321   8.942   3.651   2.251 -0.4776  0.0510 -0.0224
10118SOL    HW139322   8.982   3.736   2.269 -0.5621  0.0920 -0.0270
10118SOL    HW239323   9.008   3.603   2.201 -0.7295  0.3966 -0.6959
10119SOL     OW39324  11.554   2.544  11.678  0.1568 -0.0262 -0.4096
10119SOL    HW139325  11.604   2.598  11.617  0.7330 -1.6895 -1.4920
10119SOL    HW239326  11.620   2.507  11.737 -0.3429  1.1849  0.9653
10120SOL     OW39327  11.910  11.687   1.832  0.4036  0.2486 -0.1990
10120SOL    HW139328  11.896  11.596   1.855 -0.4889  0.2140 -0.8219
10120SOL    HW239329  11.838  11.734   1.875  0.3069  0.5318 -0.6647
10121SOL     OW39330   7.099   4.665   4.842 -0.2341  0.2458 -0.1368
10121SOL    HW139331   7.070   4.578   4.815  0.0930 -0.0023  0.3113
10121SOL    HW239332   7.137   4.652   4.928  0.7087  0.6678 -0.4805
10122SOL     OW39333   8.758   2.162  10.083 -0.2698  0.3944  0.0967
10122SOL    HW139334   8.753   2.200   9.995  0.6151  0.3647  0.0224
10122SOL    HW239335   8.692   2.093  10.083 -0.8752  0.9595 -0.2577
10123SOL     OW39336   1.737   7.016  10.245 -0.3755 -0.2453 -0.2218
10123SOL    HW139337   1.690   7.004  10.328 -0.0039 -0.5589 -0.0484
10123SOL    HW239338   1.701   7.096  10.208  0.4528  0.7272  0.9532
10124SOL     OW39339   6.132   0.006   5.850 -0.2466  1.2466  0.3610
10124SOL    HW139340   6.110  -0.078   5.808 -0.5172  1.3095  0.3746
10124SOL    HW239341   6.063   0.018   5.915 -1.0179  2.1676 -0.5955
10125SOL     OW39342   3.097   9.897  10.631 -0.2942 -0.2556 -0.6923
10125SOL    HW139343   3.003   9.882  10.636 -0.1104 -1.1478  0.4073
10125SOL    HW239344   3.128   9.891  10.721  0.7482  0.5626 -0.9718
10126SOL     OW39345  11.536   1.052   7.206 -0.5451  0.5774 -0.2334
10126SOL    HW139346  11.573   1.077   7.291  2.0482 -0.0820 -1.0604
10126SOL    HW239347  11.492   0.968   7.223  2.2733 -0.9709  0.0711
10127SOL     OW39348  12.084   8.814   9.572  0.4598  0.2037  0.1694
10127SOL    HW139349  12.146   8.870   9.525  0.5514  0.3650  0.4762
10127SOL    HW239350  12.139   8.747   9.613  0.5902  1.1394  1.5717
10128SOL     OW39351   3.144   6.584   8.498  0.1747  0.7343 -0.3536
10128SOL    HW139352   3.116   6.493   8.494  0.0527  0.7862 -0.7797
10128SOL    HW239353   3.196   6.597   8.418  0.6631  0.8855 -0.0161
10129SOL     OW39354   9.783   6.489   2.243  0.9002 -0.2335 -0.2145
10129SOL    HW139355   9.713   6.528   2.191 -0.1659 -0.5279  0.9489
10129SOL    HW239356   9.811   6.559   2.301  0.3575 -0.6074  0.5114
10130SOL     OW39357   0.703   6.572  11.569  0.0706 -0.0564 -0.1112
10130SOL    HW139358   0.655   6.622  11.503  2.1190 -1.4803 -2.8991
10130SOL    HW239359   0.773   6.631  11.597 -0.6387  0.4486  0.6657
10131SOL     OW39360   4.382  12.501   5.338  0.2608 -0.2100  0.1673
10131SOL    HW139361   4.325  12.503   5.415  0.0410  0.6400 -0.0040
10131SOL    HW239362   4.453  12.561   5.360 -1.5955  2.8840 -1.6019
10132SOL     OW39363   4.868   6.005   4.144 -0.2833  0.0344  0.1004
10132SOL    HW139364   4.953   5.961   4.154  0.4093  1.3086 -0.0585
10132SOL    HW239365   4.837   6.018   4.234  0.9610  1.9416  0.3026
10133SOL     OW39366   5.063   5.728   0.717 -0.1670 -0.1568  0.2158
10133SOL    HW139367   4.971   5.754   0.728 -0.0055 -0.2022  1.8628
10133SOL    HW239368   5.106   5.807   0.682 -0.8274 -0.1481 -0.6028
10134SOL     OW39369   0.539   7.459   6.241 -0.0106  0.6401  0.0511
10134SOL    HW139370   0.611   7.522   6.235  1.3843 -0.9978 -1.8374
10134SOL    HW239371   0.460   7.513   6.241  1.1352  2.4193 -0.2856
10135SOL     OW39372   9.143  12.215   0.089  0.2997  0.1067  0.4726
10135SOL    HW139373   9.218  12.160   0.062  0.4106 -0.3622  1.7013
10135SOL    HW239374   9.089  12.221   0.010  2.0625  1.2160 -0.7387
10136SOL     OW39375  10.525  10.214   5.986 -0.2313 -0.2792 -0.7518
10136SOL    HW139376  10.527  10.120   5.967 -1.4085 -0.0470 -2.1931
10136SOL    HW239377  10.523  10.219   6.081 -1.3367 -1.7619 -0.6636
10137SOL     OW39378  11.882   2.339   0.334 -0.5282  0.0126 -0.0139
10137SOL    HW139379  11.824   2.292   0.273 -1.0553  0.2737  0.2853
10137SOL    HW239380  11.855   2.430   0.328  0.9979  0.4315 -1.1608
10138SOL     OW39381   9.365   6.549   0.684 -0.2797  0.1453 -0.5210
10138SOL    HW139382   9.382   6.597   0.765  1.3035 -2.2953  0.7072
10138SOL    HW239383   9.414   6.597   0.617  0.3375  0.8754  0.4285
10139SOL     OW39384  11.866   4.182   1.591  0.1038  0.0548  0.1675
10139SOL    HW139385  11.915   4.261   1.569  1.0365 -0.3585  0.7013
10139SOL    HW239386  11.796   4.212   1.648  0.1387  0.5693 -0.0600
10140SOL     OW39387   0.688   7.567   7.590 -0.4952  0.0106  0.2073
10140SOL    HW139388   0.621   7.564   7.522 -0.4522 -1.0908  0.2014
10140SOL    HW239389   0.719   7.658   7.589 -0.1141 -0.0986 -1.6308
10141SOL     OW39390  11.235   9.915   5.093 -0.5578 -0.1744 -0.0390
10141SOL    HW139391  11.306   9.945   5.037  0.0869  1.1005  1.3753
10141SOL    HW239392  11.279   9.881   5.172 -1.4881  1.0532  1.0579
10142SOL     OW39393   2.470   9.639   9.885 -0.3339 -0.3965  0.1574
10142SOL    HW139394   2.449   9.585   9.961  0.0591 -1.9329 -0.7812
10142SOL    HW239395   2.405   9.709   9.886 -0.3188 -0.3844  1.9019
10143SOL     OW39396   5.358  11.826  10.492 -0.4928 -0.4292  0.0178
10143SOL    HW139397   5.386  11.901  10.438  0.1945 -1.1815 -0.6998
10143SOL    HW239398   5.356  11.753  10.431  1.9332 -1.6893  1.2876
10144SOL     OW39399   5.488  12.366  10.169  0.1939  0.2345  0.3674
10144SOL    HW139400   5.517  12.371  10.260 -0.0755  2.7612  0.3770
10144SOL    HW239401   5.562  12.326  10.123  1.0835  0.6113  1.4220
10145SOL     OW39402   5.949  12.302   8.046 -0.2766 -0.2345 -0.5326
10145SOL    HW139403   5.886  12.231   8.062  1.0187 -1.7425 -1.8080
10145SOL    HW239404   6.026  12.258   8.010  1.2895  1.6404  0.3602
10146SOL     OW39405   4.318   8.384  11.485 -0.2331  0.2033 -0.6082
10146SOL    HW139406   4.404   8.405  11.449 -0.3212  0.1690 -0.8430
10146SOL    HW239407   4.331   8.384  11.580  0.3997 -1.3092 -0.6529
10147SOL     OW39408  12.008   2.094   1.124  0.1974 -0.4288 -0.2197
10147SOL    HW139409  12.034   2.169   1.071  1.2631  0.8701  1.9650
10147SOL    HW239410  12.037   2.017   1.075  3.4421  0.7898 -0.4115
10148SOL     OW39411   0.179   2.010  11.823  0.6669  0.1533  0.4387
10148SOL    HW139412   0.121   2.065  11.770  2.8485 -0.0068 -2.3590
10148SOL    HW239413   0.184   1.927  11.775 -0.2453 -1.5362  3.0186
10149SOL     OW39414   8.179  10.830   2.448  0.1724  0.2044  0.4116
10149SOL    HW139415   8.129  10.773   2.506 -0.2844 -1.7016 -1.7401
10149SOL    HW239416   8.126  10.909   2.441 -1.2320 -0.7087  0.2972
10150SOL     OW39417   0.015   4.021   8.299  0.3272 -0.1643  0.0097
10150SOL    HW139418   0.065   4.051   8.224 -0.0736 -2.5555 -1.3072
10150SOL    HW239419   0.080   3.981   8.357  0.7969  2.6142  1.5563
10151SOL     OW39420   1.774   6.885   3.574  0.3834 -0.1543 -0.0891
10151SOL    HW139421   1.719   6.906   3.499  0.0868 -0.6985 -0.0298
10151SOL    HW239422   1.814   6.801   3.552  0.7293 -0.0512  0.1254
10152SOL     OW39423   6.598   2.211   5.279  0.1058 -0.4130 -0.2423
10152SOL    HW139424   6.586   2.172   5.365  0.6883  2.1463  1.1011
10152SOL    HW239425   6.510   2.238   5.253  0.1888  0.7613  0.6053
10153SOL     OW39426   8.871   3.204   3.729  0.6457 -0.9388  1.1914
10153SOL    HW139427   8.792   3.152   3.747  0.4912 -1.2615 -0.2489
10153SOL    HW239428   8.843   3.295   3.744 -0.2090 -0.9977  0.1280
10154SOL     OW39429   1.097   6.883   9.669  0.1527 -0.4525 -0.3727
10154SOL    HW139430   1.016   6.851   9.630  1.4303  0.4973 -4.3521
10154SOL    HW239431   1.166   6.828   9.630  1.5606 -0.2292  1.6554
10155SOL     OW39432   8.305   3.006  10.069  0.1081 -0.2467  0.2437
10155SOL    HW139433   8.236   3.059  10.110 -0.9208 -0.6873 -0.8545
10155SOL    HW239434   8.357   2.974  10.143 -0.3493  0.7909  1.0447
10156SOL     OW39435   8.514   7.658   4.369 -0.1883 -0.5140 -0.0208
10156SOL    HW139436   8.593   7.703   4.340  0.4706 -0.8559  1.2137
10156SOL    HW239437   8.529   7.567   4.347  0.7543 -0.9520  2.1847
10157SOL     OW39438  11.395   2.964   3.460 -0.3038 -0.2372  0.1352
10157SOL    HW139439  11.449   3.010   3.525  0.3504 -0.5124 -0.2041
10157SOL    HW239440  11.426   2.996   3.376  0.0428 -1.1469 -0.0993
10158SOL     OW39441  10.893   6.394   4.910  0.4186  0.3957 -0.2018
10158SOL    HW139442  10.953   6.464   4.883  2.3532 -0.6824  1.0538
10158SOL    HW239443  10.870   6.415   5.000 -0.4666  0.3751 -0.4199
10159SOL     OW39444   4.129   5.634   2.332 -0.5597  0.7012  0.2938
10159SOL    HW139445   4.086   5.562   2.376  1.7155 -1.2872 -0.4959
10159SOL    HW239446   4.108   5.622   2.239 -1.7610  2.2602  0.3346
10160SOL     OW39447   6.742   6.666  10.424 -0.7674  0.0663  0.3349
10160SOL    HW139448   6.690   6.698  10.351 -0.5535  0.5582  0.3917
10160SOL    HW239449   6.679   6.653  10.495 -0.6167  2.3026  0.9543
10161SOL     OW39450  11.673   9.560   0.995 -0.0335 -0.0942 -0.2250
10161SOL    HW139451  11.721   9.599   0.922 -0.0975  1.4097  0.4909
10161SOL    HW239452  11.685   9.466   0.984  1.3333  0.1602 -1.2326
10162SOL     OW39453  10.421   9.012   9.719 -0.4444  0.5776  0.5357
10162SOL    HW139454  10.427   8.949   9.647  0.5338  2.0940 -0.7779
10162SOL    HW239455  10.508   9.011   9.759 -0.9753 -0.2338  1.7147
10163SOL     OW39456   2.187  10.500   1.197 -0.0346  0.5687 -0.3850
10163SOL    HW139457   2.208  10.493   1.104 -1.1790  2.0109 -0.7893
10163SOL    HW239458   2.177  10.409   1.226 -2.6231  0.0818 -2.4112
10164SOL     OW39459   5.030   4.293  11.848  0.2803 -0.8377 -0.2080
10164SOL    HW139460   5.118   4.328  11.835  0.3091 -0.5943  0.6331
10164SOL    HW239461   4.972   4.361  11.813  0.3911 -0.6379  0.0031
10165SOL     OW39462   5.642   3.731   6.457  0.7828  0.1824  1.2357
10165SOL    HW139463   5.604   3.776   6.382  0.2512  0.1399  1.4744
10165SOL    HW239464   5.692   3.659   6.420  1.9446  1.1652  0.8167
10166SOL     OW39465   9.005   1.484  11.957  0.4308 -0.1777  0.2942
10166SOL    HW139466   8.926   1.430  11.960  0.8061 -0.6870  1.3060
10166SOL    HW239467   9.075   1.423  11.933  0.5816  0.2133 -0.2978
10167SOL     OW39468   6.957   1.108   2.799 -0.3320  0.0417 -0.1402
10167SOL    HW139469   6.965   1.022   2.839  1.9886 -1.5443 -3.5273
10167SOL    HW239470   6.886   1.098   2.735  2.6576 -0.9913 -3.6355
10168SOL     OW39471   4.299   8.581  11.130  0.4567  0.4585  0.1838
10168SOL    HW139472   4.313   8.665  11.087  0.3133 -0.0071 -0.8147
10168SOL    HW239473   4.306   8.600  11.223  1.3655  1.3926 -0.0555
10169SOL     OW39474   3.686   5.424  11.806  0.3727  0.4361 -0.2276
10169SOL    HW139475   3.676   5.441  11.900  1.8971  2.0217 -0.2918
10169SOL    HW239476   3.606   5.377  11.782 -0.5460  0.8992  1.6560
10170SOL     OW39477   6.928   8.374   4.378  0.3488  0.0927  0.7359
10170SOL    HW139478   6.906   8.408   4.291  1.2591 -0.1894  0.3872
10170SOL    HW239479   6.866   8.417   4.437 -0.9041 -0.4372 -0.1628
10171SOL     OW39480   1.024  10.954   7.551 -0.3147 -0.0574  0.1459
10171SOL    HW139481   1.025  10.934   7.645 -2.0217  1.3218  0.5005
10171SOL    HW239482   0.954  11.018   7.541  1.3255  1.5329 -1.7529
10172SOL     OW39483  11.162   4.851   1.288 -0.2138  0.4342 -0.1567
10172SOL    HW139484  11.173   4.861   1.193  0.9714 -1.9704 -0.3351
10172SOL    HW239485  11.231   4.906   1.325  2.0202 -1.7221 -0.8717
10173SOL     OW39486  11.584   2.040   4.298  0.2311 -0.2282  0.2355
10173SOL    HW139487  11.645   2.062   4.228  0.8954 -1.5831  0.3728
10173SOL    HW239488  11.503   2.017   4.252  0.5927 -0.8815 -0.0796
10174SOL     OW39489   5.337   0.969   7.844 -0.0101 -0.5157 -0.3520
10174SOL    HW139490   5.412   0.942   7.792  1.0411  1.5402  0.0053
10174SOL    HW239491   5.351   0.928   7.930 -0.9920 -2.7057 -1.1605
10175SOL     OW39492   7.673   0.228   6.009  0.4661 -0.3966  0.1358
10175SOL    HW139493   7.587   0.236   5.968  0.4659 -0.0039  0.2055
10175SOL    HW239494   7.694   0.317   6.037  0.7372 -0.5539  0.4402
10176SOL     OW39495  11.688   7.216  12.055 -0.2460 -0.0721 -0.0106
10176SOL    HW139496  11.626   7.242  12.124  1.1274  1.8341  0.5873
10176SOL    HW239497  11.665   7.270  11.980  0.6464  0.6324  0.2067
10177SOL     OW39498   9.981   7.171   5.318 -0.4541 -0.3730  0.5614
10177SOL    HW139499  10.005   7.163   5.226 -0.5590 -2.3130  0.6633
10177SOL    HW239500  10.038   7.239   5.352 -1.0143  1.0230 -1.1132
10178SOL     OW39501   9.393   9.122   0.007 -0.3331  0.0470 -0.3636
10178SOL    HW139502   9.410   9.033   0.037  0.2412  0.0569 -0.6469
10178SOL    HW239503   9.363   9.168   0.085  2.0117  0.3153  0.4415
10179SOL     OW39504   3.333   9.529   8.470 -0.1150  0.0441  0.2743
10179SOL    HW139505   3.302   9.616   8.494 -0.4241 -0.0965  0.3888
10179SOL    HW239506   3.266   9.469   8.504 -1.9359 -0.0483 -3.0770
10180SOL     OW39507   4.902   6.161   3.579 -1.0513 -0.5758 -0.2190
10180SOL    HW139508   4.985   6.119   3.602 -1.1241 -1.3562 -1.3195
10180SOL    HW239509   4.912   6.183   3.486 -2.5314 -1.8102 -0.7035
10181SOL     OW39510   6.946   8.524   5.889  0.5245  0.1715 -0.0795
10181SOL    HW139511   6.870   8.581   5.901 -0.5538 -1.4663  1.2400
10181SOL    HW239512   6.947   8.505   5.795 -1.3676 -0.6547  0.0301
10182SOL     OW39513   2.936   2.674   7.220 -0.3206 -0.0170  0.5996
10182SOL    HW139514   2.976   2.758   7.242  1.1773 -0.6251  0.3058
10182SOL    HW239515   2.874   2.695   7.150  1.2456  0.6471 -0.6747
10183SOL     OW39516  10.583   1.311   1.714 -0.3276 -0.4160 -0.4574
10183SOL    HW139517  10.634   1.231   1.705  0.0824  0.0463 -2.7986
10183SOL    HW239518  10.492   1.282   1.721  0.0263 -1.1916  2.7118
10184SOL     OW39519   8.830   0.035   2.182 -0.6466 -0.1082 -0.3050
10184SOL    HW139520   8.865  -0.017   2.109  0.3735  1.3579 -0.9146
10184SOL    HW239521   8.735   0.026   2.175 -0.5508 -0.3417 -1.5658
10185SOL     OW39522  11.889   9.286  11.320  0.3155 -0.4545  0.5051
10185SOL    HW139523  11.877   9.254  11.410  0.6565 -0.8594  0.4061
10185SOL    HW239524  11.815   9.345  11.306 -0.4777 -1.4032  0.6012
10186SOL     OW39525   2.765   4.427   7.798 -0.2141  0.5755 -0.4824
10186SOL    HW139526   2.697   4.392   7.741 -1.1716  2.8659 -0.8732
10186SOL    HW239527   2.719   4.484   7.860  1.1936  1.1542  0.0885
10187SOL     OW39528  10.514   7.768  10.107  0.0808  0.0652  0.7414
10187SOL    HW139529  10.548   7.733  10.189  3.2805 -1.4725 -1.0797
10187SOL    HW239530  10.571   7.842  10.087 -1.7767  1.5647  0.6760
10188SOL     OW39531   3.168   8.871   1.747  0.0229 -0.4197 -0.4502
10188SOL    HW139532   3.165   8.798   1.685  1.4547  0.2824 -1.3794
10188SOL    HW239533   3.211   8.833   1.825 -1.1983 -1.1227 -0.0814
10189SOL     OW39534   1.635   2.325   8.692 -0.1392  0.0082  0.1771
10189SOL    HW139535   1.619   2.303   8.600  1.5485 -0.0729 -0.1249
10189SOL    HW239536   1.626   2.242   8.739 -1.3599  0.1138  0.1526
10190SOL     OW39537   9.131   0.884   8.484 -0.6649 -0.0936  0.1084
10190SOL    HW139538   9.046   0.876   8.440  0.0053  0.7523 -1.4255
10190SOL    HW239539   9.187   0.821   8.440 -0.1274  0.3631  0.1249
10191SOL     OW39540  10.311   7.931  10.478 -0.3311  0.0849  0.2064
10191SOL    HW139541  10.381   7.881  10.437 -0.4532  0.0988 -0.0219
10191SOL    HW239542  10.353   7.978  10.550  0.3519  1.7671 -1.2123
10192SOL     OW39543   4.869   1.141   1.831  0.0664 -0.3617  0.1494
10192SOL    HW139544   4.895   1.087   1.757  1.5991  0.5158  0.0209
10192SOL    HW239545   4.853   1.227   1.794 -0.3030 -0.1985  0.6680
10193SOL     OW39546  10.660  11.326   4.921 -0.0660  0.0359 -0.0709
10193SOL    HW139547  10.750  11.357   4.909  0.7155 -1.9551  0.3366
10193SOL    HW239548  10.639  11.282   4.838 -0.4170 -0.0967  0.0874
10194SOL     OW39549   7.031   6.209   1.145  0.3206 -0.0604 -0.1714
10194SOL    HW139550   7.019   6.272   1.216  0.2516  0.1697 -0.3835
10194SOL    HW239551   7.119   6.174   1.157  0.3680  0.0964 -0.0679
10195SOL     OW39552  10.079   6.316   2.895 -0.5608 -0.3107 -0.1594
10195SOL    HW139553  10.057   6.229   2.927  0.7509 -0.2856  0.8971
10195SOL    HW239554  10.055   6.375   2.966  1.3902 -0.1484  0.4218
10196SOL     OW39555   3.732   0.518   8.682  0.5373  0.4276  0.4035
10196SOL    HW139556   3.663   0.473   8.731 -0.2419 -0.0140 -1.0495
10196SOL    HW239557   3.808   0.515   8.740  0.0452 -1.3208  1.0331
10197SOL     OW39558   2.785   3.827   1.938 -0.1284 -0.2537  0.3203
10197SOL    HW139559   2.856   3.885   1.909 -0.0008 -0.6652 -0.1935
10197SOL    HW239560   2.827   3.743   1.953 -0.4030 -0.3406  0.6142
10198SOL     OW39561   7.959   2.943   5.058  0.4956 -0.4731  0.5985
10198SOL    HW139562   7.935   2.865   5.007  0.0750  1.1868 -1.9113
10198SOL    HW239563   8.055   2.940   5.063  0.6316 -0.1633 -1.2554
10199SOL     OW39564   0.472   5.944   2.990 -0.4761 -0.3752 -0.2633
10199SOL    HW139565   0.411   5.953   3.063 -1.5703 -0.9559 -1.0759
10199SOL    HW239566   0.475   6.031   2.950 -0.0145 -0.1021  0.3523
10200SOL     OW39567  11.820   8.785  10.684 -0.1211 -0.0556 -0.2286
10200SOL    HW139568  11.815   8.878  10.664  1.7449  0.0362 -0.4501
10200SOL    HW239569  11.853   8.781  10.773  0.5992 -0.4910 -0.5029
10201SOL     OW39570   3.942  10.558   5.575  0.2056 -0.3091  0.0707
10201SOL    HW139571   3.935  10.535   5.482 -0.1363  0.2570 -0.0535
10201SOL    HW239572   3.886  10.636   5.584  1.3946  0.5302  0.4299
10202SOL     OW39573   4.503   7.961   3.669  0.1815 -0.1973  0.1669
10202SOL    HW139574   4.581   7.911   3.646 -0.6818 -0.7430 -1.8106
10202SOL    HW239575   4.434   7.895   3.678 -0.9910  0.5253 -2.5100
10203SOL     OW39576   6.949   4.312   5.029  0.3963 -0.0075  0.2227
10203SOL    HW139577   6.938   4.403   5.053  0.1223  0.2768 -0.9269
10203SOL    HW239578   6.905   4.263   5.099  0.9366  0.7121  1.0769
10204SOL     OW39579   9.648   8.910   7.630  0.1361  0.3022  0.2308
10204SOL    HW139580   9.569   8.867   7.663 -0.2985  1.6466  1.0717
10204SOL    HW239581   9.617   8.964   7.557  0.1293  1.3004  0.9424
10205SOL     OW39582   9.018  12.331   4.115  0.0944 -0.1356  0.0045
10205SOL    HW139583   8.927  12.302   4.118  0.1293 -0.3288 -0.6164
10205SOL    HW239584   9.057  12.282   4.043  0.8332 -0.4405  0.5945
10206SOL     OW39585   0.099   7.939   8.096 -0.6719 -0.3057 -0.2688
10206SOL    HW139586   0.135   8.015   8.143  1.3969 -0.7639 -0.9864
10206SOL    HW239587   0.014   7.969   8.064 -0.6853  1.1006  0.9653
10207SOL     OW39588   4.135   9.890   6.149 -0.2722 -0.4663 -0.4200
10207SOL    HW139589   4.087   9.948   6.091 -0.7312  0.4477  0.8404
10207SOL    HW239590   4.227   9.916   6.139 -0.1775 -1.2149 -1.7061
10208SOL     OW39591   5.489   3.375   5.001  0.5521 -0.0176  0.2796
10208SOL    HW139592   5.420   3.400   4.939  0.5724  1.5635  0.8481
10208SOL    HW239593   5.441   3.340   5.076  0.4192  0.2341  0.3122
10209SOL     OW39594   4.851   4.310  10.359  0.2204  0.3774 -0.6696
10209SOL    HW139595   4.787   4.260  10.409 -1.1962  1.0808 -1.6860
10209SOL    HW239596   4.897   4.363  10.424 -1.6759  1.3817 -0.0527
10210SOL     OW39597   2.245  12.210   5.121 -0.2132 -0.3737  0.9617
10210SOL    HW139598   2.185  12.202   5.047 -0.2718 -0.1655  0.9863
10210SOL    HW239599   2.330  12.228   5.082  0.8299 -4.9699  0.6049
10211SOL     OW39600  10.699   8.265   0.938  0.0979 -0.3711  0.3040
10211SOL    HW139601  10.648   8.311   0.872 -0.8335 -0.9633  0.5873
10211SOL    HW239602  10.656   8.287   1.021 -0.1617 -1.4513  0.4753
10212SOL     OW39603  11.622   6.839   6.824  0.1824  0.1424  0.6383
10212SOL    HW139604  11.531   6.867   6.816 -0.6184 -2.4024 -0.3333
10212SOL    HW239605  11.628   6.804   6.913  0.9339  2.4239  1.5408
10213SOL     OW39606   3.215   8.628   1.045  0.0520 -0.1557  0.1961
10213SOL    HW139607   3.299   8.588   1.068  0.3649  0.5185  0.2307
10213SOL    HW239608   3.175   8.650   1.129  1.2720  2.4695  0.1927
10214SOL     OW39609   1.015   3.642   3.385  0.3577 -0.1911 -0.7951
10214SOL    HW139610   1.080   3.708   3.409 -0.0778  0.0057 -0.1000
10214SOL    HW239611   0.996   3.659   3.293 -0.1730  1.0460 -0.4850
10215SOL     OW39612   1.308   9.888   4.541  0.7716 -0.0405 -0.5031
10215SOL    HW139613   1.237   9.938   4.581  0.9203 -2.2739  2.9381
10215SOL    HW239614   1.276   9.798   4.539  2.2483 -0.5847 -2.1104
10216SOL     OW39615   0.942   2.962   4.529 -0.3357  0.0552 -0.6106
10216SOL    HW139616   0.997   3.035   4.499 -2.3836  1.5406 -1.0123
10216SOL    HW239617   1.003   2.902   4.571  1.6494  1.3329 -1.4945
10217SOL     OW39618   4.898   7.294   9.976 -0.4709  0.1215  0.0389
10217SOL    HW139619   4.989   7.320   9.962 -0.2705 -0.4869  0.2104
10217SOL    HW239620   4.902   7.201   9.999 -1.1304  0.1010  0.0954
10218SOL     OW39621   7.818   2.055   1.063  0.3741 -0.2433 -0.4994
10218SOL    HW139622   7.855   2.071   1.150  0.0654  0.5889 -0.5116
10218SOL    HW239623   7.768   1.974   1.073  0.9044 -0.5309 -0.0856
10219SOL     OW39624   4.820  12.428   2.390 -1.0562  0.2662  0.2859
10219SOL    HW139625   4.755  12.384   2.335  0.6028 -1.1779 -0.6319
10219SOL    HW239626   4.875  12.476   2.329  1.0059 -1.5982  0.5392
10220SOL     OW39627   0.439   8.150   9.827 -0.3788 -0.2915  0.5617
10220SOL    HW139628   0.401   8.187   9.747  0.9239 -0.2631 -0.0748
10220SOL    HW239629   0.474   8.225   9.874  0.3535 -0.4680  0.3189
10221SOL     OW39630  11.793  10.301  11.362 -0.0987  0.0313 -0.2933
10221SOL    HW139631  11.744  10.242  11.419 -1.7143  0.8558 -0.7648
10221SOL    HW239632  11.805  10.252  11.281  1.5896 -0.8806  0.4583
10222SOL     OW39633   6.807   0.463   8.962 -0.3387  0.0784 -0.1329
10222SOL    HW139634   6.758   0.516   9.025 -2.0964 -0.5761 -0.8944
10222SOL    HW239635   6.746   0.448   8.890  0.4762 -1.9977 -0.4799
10223SOL     OW39636   5.520   1.777   3.571  0.0296 -0.5571  0.2597
10223SOL    HW139637   5.428   1.753   3.560  0.1558 -1.1657  0.4418
10223SOL    HW239638   5.531   1.857   3.519 -0.3853 -0.9878 -0.5179
10224SOL     OW39639   2.407  11.336   0.865  0.3805 -0.1358  0.1156
10224SOL    HW139640   2.411  11.432   0.860  0.4219 -0.1841 -3.0654
10224SOL    HW239641   2.314  11.316   0.858  0.5355 -0.2943 -2.4604
10225SOL     OW39642   1.213  11.194  11.415  0.2023 -0.3832 -0.0155
10225SOL    HW139643   1.126  11.194  11.454  0.2934  1.4257  0.2835
10225SOL    HW239644   1.198  11.217  11.323  0.2432 -1.6283 -0.3412
10226SOL     OW39645   8.452   5.097  12.447 -0.4499  0.9395 -0.6251
10226SOL    HW139646   8.530   5.045  12.427 -0.6411 -0.2612  1.4853
10226SOL    HW239647   8.459   5.173  12.389  1.0338 -0.2811 -2.1770
10227SOL     OW39648  11.525   3.689   4.606 -0.1465  0.1748 -0.1473
10227SOL    HW139649  11.453   3.733   4.562 -1.2245  0.1713  1.4871
10227SOL    HW239650  11.555   3.623   4.544 -0.3225  1.3877 -1.5666
10228SOL     OW39651   3.296   3.829   0.612 -0.1068 -0.2618  0.5720
10228SOL    HW139652   3.201   3.844   0.621 -0.0211  0.2652  0.6436
10228SOL    HW239653   3.316   3.859   0.523 -0.2746 -1.8436 -0.0245
10229SOL     OW39654  10.948  11.911   4.379 -1.1293 -0.4624  0.2556
10229SOL    HW139655  10.886  11.936   4.448  0.0269 -0.6728  1.4143
10229SOL    HW239656  11.011  11.855   4.424  0.2514  0.2427 -0.7503
10230SOL     OW39657  10.381   7.432   6.058 -0.6884 -0.4055  0.2477
10230SOL    HW139658  10.428   7.356   6.092  0.6787 -0.5000 -1.6957
10230SOL    HW239659  10.392   7.499   6.125  1.4478 -0.7372  0.2953
10231SOL     OW39660   5.027  12.447   8.848 -0.4357  0.0176 -0.1703
10231SOL    HW139661   4.938  12.426   8.876 -0.6417 -1.1155 -1.5369
10231SOL    HW239662   5.015  12.502   8.771  0.0767  0.7330  0.2510
10232SOL     OW39663   9.745   0.051  10.098 -0.2394 -0.3597  0.9335
10232SOL    HW139664   9.728   0.141  10.071  0.2108  0.2360  2.5693
10232SOL    HW239665   9.799   0.015  10.027  1.6821  1.4398  1.3597
10233SOL     OW39666   6.594   4.404   0.696  0.1416 -0.0006 -0.4617
10233SOL    HW139667   6.570   4.318   0.662  1.6862 -1.0203  0.8888
10233SOL    HW239668   6.689   4.399   0.709  0.0059  1.2850  1.3464
10234SOL     OW39669   7.628   9.851  10.969  0.0251  0.3026  0.0501
10234SOL    HW139670   7.545   9.858  10.923 -1.1920  2.1852  2.3377
10234SOL    HW239671   7.695   9.868  10.902 -1.4654  0.2384 -1.5132
10235SOL     OW39672   6.784   5.661   0.183 -0.3782 -0.4862 -0.2762
10235SOL    HW139673   6.755   5.679   0.094  0.1972 -0.7051 -0.5091
10235SOL    HW239674   6.731   5.719   0.237 -1.4801 -1.1178 -0.6598
10236SOL     OW39675   4.528   9.289   1.475 -0.0306  0.4538  0.0355
10236SOL    HW139676   4.449   9.330   1.511 -1.3983 -1.5185 -0.5447
10236SOL    HW239677   4.498   9.247   1.394  1.6652 -0.2028 -0.2807
10237SOL     OW39678   2.933   3.057   4.227  0.7368  0.3242  0.7885
10237SOL    HW139679   2.983   3.045   4.146  0.1976 -2.3351  0.7825
10237SOL    HW239680   2.992   3.107   4.284  1.9780  0.3713 -0.4745
10238SOL     OW39681   1.052   3.909   8.498  0.3396  0.1938 -0.2294
10238SOL    HW139682   0.983   3.963   8.535 -0.9482  0.3212 -2.5919
10238SOL    HW239683   1.093   3.964   8.431  2.2002 -0.1780  0.5549
10239SOL     OW39684   8.194   4.270   1.865  0.2788 -0.4070 -0.6287
10239SOL    HW139685   8.228   4.359   1.867 -1.6417  0.3633  0.9216
10239SOL    HW239686   8.157   4.256   1.952 -1.8833 -1.6959 -1.6521
10240SOL     OW39687   2.669   8.715   5.749 -0.0505  0.6744  0.1078
10240SOL    HW139688   2.634   8.775   5.683 -0.2229  1.0038  0.4900
10240SOL    HW239689   2.754   8.753   5.773 -0.0879  0.6796  0.2337
10241SOL     OW39690   4.025   7.420  10.348  0.6532  0.8009  0.1979
10241SOL    HW139691   4.060   7.330  10.351  1.4497  1.0525 -0.8468
10241SOL    HW239692   4.098   7.472  10.314 -0.1931  1.6487 -0.3390
10242SOL     OW39693   5.636   2.963   1.628 -0.1019 -0.1364 -0.2727
10242SOL    HW139694   5.688   2.909   1.688  0.3899 -0.1246 -0.6782
10242SOL    HW239695   5.682   3.047   1.627  0.6515 -0.5329 -1.6517
10243SOL     OW39696   9.847   1.889   1.518  0.9819  0.7555 -0.1903
10243SOL    HW139697   9.874   1.808   1.559  1.5480  0.0994 -1.7841
10243SOL    HW239698   9.761   1.908   1.556 -0.5590 -2.1658 -1.7986
10244SOL     OW39699   3.441   4.003   2.732  0.1518 -0.0506 -1.0006
10244SOL    HW139700   3.508   4.044   2.787 -0.9461 -0.3233  0.6096
10244SOL    HW239701   3.367   3.988   2.791 -0.7098 -1.3092 -2.3243
10245SOL     OW39702   7.006   3.045   7.156 -0.6683 -0.1856  0.0843
10245SOL    HW139703   7.004   3.140   7.140  1.2240 -0.4879 -2.7204
10245SOL    HW239704   6.995   3.006   7.069 -0.5783 -2.5516  1.0610
10246SOL     OW39705   9.128   9.014   9.064 -0.0586 -0.2358 -0.3204
10246SOL    HW139706   9.127   9.036   9.157 -1.4924  1.4792 -0.6945
10246SOL    HW239707   9.214   9.041   9.033 -0.3167  1.1123  0.1040
10247SOL     OW39708  10.919  10.881   2.209 -0.1615  0.0485  0.4917
10247SOL    HW139709  10.902  10.970   2.181 -0.9504 -0.9227 -2.5068
10247SOL    HW239710  11.015  10.876   2.218 -0.1225  1.1736  0.8153
10248SOL     OW39711   4.466   0.147   5.040 -0.2911 -0.3959  0.7563
10248SOL    HW139712   4.511   0.184   5.116  0.3386 -0.3952  0.3929
10248SOL    HW239713   4.405   0.083   5.077  0.7774 -1.1813  1.2088
10249SOL     OW39714   3.588  11.235   8.125  1.0748  0.6492 -0.3621
10249SOL    HW139715   3.599  11.146   8.092 -2.4001 -0.4404  0.9882
10249SOL    HW239716   3.665  11.252   8.178  1.1697 -2.1397  0.4974
10250SOL     OW39717   0.578   9.824   7.228 -0.6889  0.0645 -0.2377
10250SOL    HW139718   0.594   9.917   7.212 -1.8326  0.1632 -0.9523
10250SOL    HW239719   0.499   9.805   7.177 -0.6187 -1.2350  0.1168
10251SOL     OW39720   3.381  12.271   8.749  0.4783 -0.2598  0.1501
10251SOL    HW139721   3.408  12.309   8.665 -0.7822  2.6175  0.9382
10251SOL    HW239722   3.462  12.265   8.799  1.4166 -2.8632 -1.4614
10252SOL     OW39723  11.354   2.626   9.926  0.3177 -0.1625 -0.5376
10252SOL    HW139724  11.374   2.570   9.851  0.6957  0.7052 -1.0961
10252SOL    HW239725  11.433   2.621   9.981 -0.5153 -1.9728  0.5773
10253SOL     OW39726   4.762  11.186  10.160 -0.3404 -0.2386 -0.4913
10253SOL    HW139727   4.741  11.235  10.240 -1.2500 -1.1408 -0.1691
10253SOL    HW239728   4.858  11.179  10.161 -0.3262  0.0042  0.3729
10254SOL     OW39729   9.423   4.369  11.267 -0.1861  0.2307  0.5632
10254SOL    HW139730   9.443   4.443  11.324  1.3556 -0.5149  1.0524
10254SOL    HW239731   9.370   4.310  11.322  0.9134 -0.2758  1.1213
10255SOL     OW39732   2.280  12.232   8.625 -0.0402  0.0242  0.5978
10255SOL    HW139733   2.345  12.285   8.580  1.0351 -0.4650  1.5367
10255SOL    HW239734   2.228  12.295   8.676  3.0743  0.1161  4.0919
10256SOL     OW39735  11.102   8.044   7.929  0.1392 -0.3453  0.0917
10256SOL    HW139736  11.018   7.998   7.927  0.2319 -0.5186  0.1175
10256SOL    HW239737  11.092   8.109   7.998 -0.2266  0.1252 -0.3953
10257SOL     OW39738   0.623   3.567   9.966  0.1879  0.3094  0.5758
10257SOL    HW139739   0.621   3.603  10.055  0.1298  0.5522  0.4800
10257SOL    HW239740   0.534   3.579   9.934  0.8327  2.9692 -0.5680
10258SOL     OW39741   5.504   6.935  10.740 -0.1245  0.0325  0.4932
10258SOL    HW139742   5.452   6.981  10.674  1.1056 -0.0915 -0.5873
10258SOL    HW239743   5.582   6.988  10.752  1.2256 -1.6112 -0.6144
10259SOL     OW39744   6.082   9.153   2.271 -0.3457 -0.5310 -0.6207
10259SOL    HW139745   6.125   9.094   2.209 -2.1733 -0.1563 -2.3402
10259SOL    HW239746   6.147   9.221   2.288  0.1585 -0.5661 -2.2705
10260SOL     OW39747   1.025   4.669   2.113 -0.7032  0.0239 -0.3664
10260SOL    HW139748   1.042   4.595   2.172 -2.3680 -0.3414 -0.2906
10260SOL    HW239749   1.105   4.676   2.060 -0.0008 -0.9885  0.5067
10261SOL     OW39750   0.075   6.267   5.806  0.1432 -0.3292  0.4140
10261SOL    HW139751   0.119   6.206   5.747 -0.2045  0.5275 -0.7588
10261SOL    HW239752  -0.007   6.223   5.830 -1.3124  0.6045 -2.4020
10262SOL     OW39753   5.740   6.985  12.041  0.9097 -0.1521  0.1629
10262SOL    HW139754   5.786   7.010  11.961  0.6127 -0.7460 -0.2000
10262SOL    HW239755   5.721   6.892  12.030 -0.6375  0.1299  0.1693
10263SOL     OW39756   7.264   2.948   1.488 -0.0247 -0.0289  0.4007
10263SOL    HW139757   7.229   3.023   1.439  0.0184  0.4862  1.1406
10263SOL    HW239758   7.191   2.885   1.491 -0.7396  0.8041  1.4557
10264SOL     OW39759   9.942   2.601   0.083  0.5291 -0.3865 -0.1240
10264SOL    HW139760   9.940   2.646  -0.001  0.5985  1.3313  0.7575
10264SOL    HW239761   9.867   2.636   0.131  0.9117 -0.7969  0.7987
10265SOL     OW39762   0.792   9.052   7.685 -0.3038 -0.0742 -0.4506
10265SOL    HW139763   0.887   9.049   7.684 -0.2106  1.6807 -1.2831
10265SOL    HW239764   0.768   9.081   7.597 -1.4850  1.3365  0.2770
10266SOL     OW39765   8.226   3.334   6.296  0.0095 -0.4350  0.0067
10266SOL    HW139766   8.311   3.303   6.326  0.1891 -0.6754 -0.7277
10266SOL    HW239767   8.207   3.283   6.217 -0.0129  0.7922 -0.8245
10267SOL     OW39768   0.773   6.453   1.784 -0.6350 -0.3538 -0.3954
10267SOL    HW139769   0.776   6.365   1.747 -0.9961 -0.5296 -0.0152
10267SOL    HW239770   0.844   6.500   1.740  1.7744 -1.7533  1.7062
10268SOL     OW39771   9.782   8.320   0.748 -0.4616  0.4870 -0.1845
10268SOL    HW139772   9.699   8.282   0.720 -0.2070  0.8262 -1.4427
10268SOL    HW239773   9.840   8.244   0.757 -0.5709  0.3636 -0.4913
10269SOL     OW39774   6.074   1.283   7.803 -0.5597  0.0267  0.2152
10269SOL    HW139775   6.085   1.209   7.862  1.1849  0.6212  0.6852
10269SOL    HW239776   6.145   1.274   7.740  0.9949  2.3525  1.4795
10270SOL     OW39777   6.644   8.681   0.356  0.3569 -0.4507 -0.6997
10270SOL    HW139778   6.626   8.663   0.264 -3.7253  2.2292 -0.6747
10270SOL    HW239779   6.710   8.750   0.355 -0.9350  0.8215 -1.7972
10271SOL     OW39780  11.773  11.560   9.212  0.5050 -0.0770  0.4276
10271SOL    HW139781  11.779  11.505   9.133  0.1201 -0.8147  0.8994
10271SOL    HW239782  11.811  11.507   9.281 -1.6508 -0.5982  1.2998
10272SOL     OW39783   8.379  11.527  11.402  0.3483 -0.2044 -0.7243
10272SOL    HW139784   8.357  11.434  11.394 -0.2532 -0.0441 -0.9247
10272SOL    HW239785   8.354  11.551  11.491  2.4643 -0.7466  0.0964
10273SOL     OW39786   2.679  10.953   1.421  0.4652 -0.4716  0.1649
10273SOL    HW139787   2.772  10.943   1.445  0.7742 -2.4429 -1.5659
10273SOL    HW239788   2.650  11.030   1.469  2.8643 -0.1190  1.1813
10274SOL     OW39789   1.015  10.653   3.798  0.3550  1.0584 -0.0308
10274SOL    HW139790   1.102  10.658   3.837  0.6224  1.4605 -0.6596
10274SOL    HW239791   1.029  10.670   3.705 -0.4495  1.5410 -0.0741
10275SOL     OW39792   3.664   5.900   8.295  0.1240 -0.2478 -0.0344
10275SOL    HW139793   3.696   5.981   8.335  0.0605 -0.6173  0.7804
10275SOL    HW239794   3.569   5.902   8.308  0.3261 -1.5919  2.2361
10276SOL     OW39795   9.127   3.669  11.967  0.3288  0.1879  0.1563
10276SOL    HW139796   9.066   3.637  11.899  0.4934 -0.1556  0.1654
10276SOL    HW239797   9.207   3.618  11.952  0.7032  0.8182 -0.0163
10277SOL     OW39798   7.881   7.113   3.720  0.4175  0.2013  0.2216
10277SOL    HW139799   7.816   7.134   3.787  0.4364 -0.8923  0.5997
10277SOL    HW239800   7.832   7.112   3.638 -0.2316 -1.4393  0.6042
10278SOL     OW39801   6.811   4.862   5.684 -0.2224 -0.0859 -0.1625
10278SOL    HW139802   6.904   4.881   5.689  0.1497 -1.7377 -0.1736
10278SOL    HW239803   6.776   4.927   5.624  0.9868  0.3119 -0.4641
10279SOL     OW39804   9.766  10.237   1.910  0.3560  0.4460 -0.0055
10279SOL    HW139805   9.856  10.229   1.881  0.5645  0.3523  0.6457
10279SOL    HW239806   9.713  10.201   1.839  0.7767  1.2615 -0.7470
10280SOL     OW39807  10.795  11.253  10.942 -0.3002  0.0285  0.2061
10280SOL    HW139808  10.835  11.319  10.885  3.2946 -1.1673  1.0832
10280SOL    HW239809  10.705  11.284  10.955 -0.5108  1.7590 -3.8282
10281SOL     OW39810  11.789   3.948   0.635  0.3508 -0.2234 -0.6467
10281SOL    HW139811  11.733   3.937   0.712 -0.5758 -1.6436 -1.4800
10281SOL    HW239812  11.838   3.866   0.629  3.1367  1.2098  0.4406
10282SOL     OW39813   6.283   5.289   7.538 -0.2821 -0.0689 -0.0804
10282SOL    HW139814   6.239   5.371   7.556  0.1887 -0.1840  1.7755
10282SOL    HW239815   6.373   5.302   7.569 -0.2290 -1.3121  0.3600
10283SOL     OW39816   2.070  10.720   7.541  0.0898 -0.0412 -0.2122
10283SOL    HW139817   2.151  10.669   7.547 -0.3303 -0.7017 -0.0764
10283SOL    HW239818   2.064  10.764   7.626  0.4215  0.1895 -0.3063
10284SOL     OW39819   3.784   7.797   0.334 -0.6718  0.7693  0.1656
10284SOL    HW139820   3.825   7.733   0.276  0.7824  1.5509  0.2719
10284SOL    HW239821   3.703   7.755   0.364  0.3446 -1.1017  0.4227
10285SOL     OW39822   8.085   9.187   4.249 -0.4727  0.2710 -0.0808
10285SOL    HW139823   8.104   9.227   4.334  0.0475 -0.2768  0.0696
10285SOL    HW239824   8.028   9.113   4.270 -2.7605  1.7912 -0.5100
10286SOL     OW39825  11.386   6.344  12.112  0.0297 -0.0951 -0.2529
10286SOL    HW139826  11.481   6.350  12.121  0.1531  0.3815 -1.5933
10286SOL    HW239827  11.365   6.254  12.135  0.8884 -0.3627 -0.4887
10287SOL     OW39828   9.044   2.555   9.287  0.3532  0.6623  0.2542
10287SOL    HW139829   9.072   2.500   9.361  2.2511 -0.4149 -1.1494
10287SOL    HW239830   9.111   2.623   9.282 -0.7735  1.8311  0.6092
10288SOL     OW39831  11.724   8.807   8.743 -0.5285  0.3538 -0.5053
10288SOL    HW139832  11.665   8.820   8.669  0.6602 -2.9043 -2.2206
10288SOL    HW239833  11.809   8.788   8.702  0.8146  0.9923  1.8030
10289SOL     OW39834   4.693   0.974   5.843  0.3952 -0.5787  0.0763
10289SOL    HW139835   4.753   0.965   5.916  0.2681 -1.4951  0.0877
10289SOL    HW239836   4.689   1.068   5.825  1.7363 -0.4947  0.1404
10290SOL     OW39837  11.090   6.001  10.007  0.4084  0.8127 -0.1903
10290SOL    HW139838  10.999   6.020   9.982  0.3635 -1.0920 -1.6786
10290SOL    HW239839  11.140   6.075   9.973 -0.5980  2.1992  1.1751
10291SOL     OW39840   5.479   8.000  10.984  0.3414 -0.1310 -0.0393
10291SOL    HW139841   5.557   8.026  11.034  0.3666  1.2903 -0.8003
10291SOL    HW239842   5.489   8.042  10.899 -1.0933 -0.2196 -0.2762
10292SOL     OW39843   6.174   5.326   6.086  0.3928 -0.5020 -0.2593
10292SOL    HW139844   6.126   5.345   6.166  1.2170 -0.9071  0.3539
10292SOL    HW239845   6.245   5.268   6.114  2.6927  1.9170 -0.6626
10293SOL     OW39846  12.208  10.604  10.082 -0.2836  0.3480 -0.5998
10293SOL    HW139847  12.256  10.595  10.000 -0.8114  1.1753 -1.0142
10293SOL    HW239848  12.191  10.513  10.109  1.6330  0.0269 -0.3358
10294SOL     OW39849   8.633   5.201   3.815  0.0360 -0.4274 -0.0390
10294SOL    HW139850   8.551   5.160   3.843  0.8374 -2.8478 -0.9429
10294SOL    HW239851   8.701   5.141   3.846  1.3074  0.2781 -1.3508
10295SOL     OW39852   7.280  11.441  11.518 -0.2469  0.4916  0.0370
10295SOL    HW139853   7.190  11.473  11.520  0.1860  1.8528 -0.4902
10295SOL    HW239854   7.272  11.346  11.523 -1.7734  0.5168 -1.0251
10296SOL     OW39855   4.460   4.865   9.211  0.0086 -0.0937  0.6275
10296SOL    HW139856   4.486   4.921   9.138  1.3060 -1.5477 -0.0693
10296SOL    HW239857   4.415   4.924   9.271  1.0995  1.6413 -0.1837
10297SOL     OW39858   7.195   2.075   4.075  0.2833 -0.1586 -0.1327
10297SOL    HW139859   7.161   2.145   4.019 -0.6720 -0.0545  0.5561
10297SOL    HW239860   7.217   2.004   4.014  1.9434  0.9544 -0.9228
10298SOL     OW39861   4.557   4.154   0.950 -0.0185  0.2035 -1.0522
10298SOL    HW139862   4.526   4.175   1.038 -0.9395  0.2087 -1.3667
10298SOL    HW239863   4.563   4.058   0.949 -0.2673  0.1878 -1.0671
10299SOL     OW39864   5.372   1.605   0.567  0.1849  0.4699 -0.3114
10299SOL    HW139865   5.393   1.566   0.482  2.9909 -1.6506  1.1852
10299SOL    HW239866   5.420   1.688   0.568  0.3551  0.3767 -0.7075
10300SOL     OW39867   3.282  10.558  12.506  0.3643  1.0411  0.1155
10300SOL    HW139868   3.278  10.567  12.411  0.2607  1.0454  0.1202
10300SOL    HW239869   3.261  10.466  12.522 -0.5575  1.2618  0.1945
10301SOL     OW39870   7.804   8.800   8.156 -0.0157  0.0163  0.6430
10301SOL    HW139871   7.766   8.844   8.079 -1.6241 -0.0370  1.3652
10301SOL    HW239872   7.757   8.838   8.230  1.8038  0.3656  1.6518
10302SOL     OW39873   8.178  10.534   8.231  0.6030  0.1019  0.7212
10302SOL    HW139874   8.181  10.463   8.295  2.6954 -0.0870  0.4764
10302SOL    HW239875   8.241  10.509   8.163  1.1551  2.0242  0.4610
10303SOL     OW39876   6.044   5.600   1.216 -0.2588 -0.4346  0.5622
10303SOL    HW139877   6.120   5.561   1.260 -0.3134 -0.1390  0.9247
10303SOL    HW239878   5.977   5.532   1.220 -0.4799 -0.1793  1.5395
10304SOL     OW39879  11.339   5.205   0.068 -0.1208  0.1059 -0.5850
10304SOL    HW139880  11.427   5.169   0.051 -0.1376  0.4853 -1.5182
10304SOL    HW239881  11.287   5.179  -0.007 -1.0078 -0.6838  0.2707
10305SOL     OW39882   1.680   7.070   3.372 -0.0057 -0.0493 -0.3169
10305SOL    HW139883   1.617   7.063   3.301 -0.5000 -0.0069  0.1082
10305SOL    HW239884   1.741   7.139   3.345  0.2186 -0.5070 -0.9976
10306SOL     OW39885  10.294  11.604   2.255 -0.4729 -0.1687  0.0642
10306SOL    HW139886  10.244  11.605   2.174 -0.8766 -2.1729  0.2426
10306SOL    HW239887  10.229  11.610   2.324 -0.3433 -1.0890  0.2730
10307SOL     OW39888  11.889  11.070  12.482 -0.0523 -0.6634  0.2891
10307SOL    HW139889  11.844  11.153  12.465  0.1310 -0.6715 -0.2468
10307SOL    HW239890  11.834  11.027  12.547 -1.5258 -1.2388 -1.2588
10308SOL     OW39891   8.915   4.970  10.210 -0.4462  0.4973 -0.2668
10308SOL    HW139892   8.831   4.971  10.257 -0.9663  1.5191 -1.1880
10308SOL    HW239893   8.951   5.058  10.224  1.5359 -0.5342  1.9111
10309SOL     OW39894   3.603   5.491   6.782 -0.6048 -0.3160 -0.2851
10309SOL    HW139895   3.670   5.558   6.772 -0.1267 -0.6389  0.5919
10309SOL    HW239896   3.601   5.446   6.698  1.9135 -1.7559  0.3022
10310SOL     OW39897   9.596   6.142   6.845 -0.0385 -0.0524 -0.1712
10310SOL    HW139898   9.638   6.138   6.760  1.4691  1.3521  0.4612
10310SOL    HW239899   9.548   6.225   6.844 -1.3798 -0.7997 -0.2244
10311SOL     OW39900   3.818   8.005   6.971 -0.1341 -0.1152  0.0338
10311SOL    HW139901   3.806   7.989   6.877 -2.0754 -0.6402  0.3341
10311SOL    HW239902   3.732   7.987   7.010  1.0660 -1.7587  2.1713
10312SOL     OW39903   6.007   1.932   7.370  0.1902 -0.6978  0.4842
10312SOL    HW139904   6.026   1.845   7.406 -1.5450 -0.8040  1.2255
10312SOL    HW239905   5.913   1.941   7.378 -0.4750 -0.8041 -4.2957
10313SOL     OW39906   8.898   6.729  10.923 -1.1421 -0.1583 -0.2970
10313SOL    HW139907   8.958   6.693  10.990 -0.8418 -0.2149 -0.5923
10313SOL    HW239908   8.849   6.797  10.969  1.2104  1.9873 -0.7513
10314SOL     OW39909   4.291   7.265   1.098  0.2593  0.1989  0.3703
10314SOL    HW139910   4.331   7.302   1.176 -2.3586  1.4253  1.2758
10314SOL    HW239911   4.229   7.200   1.131  1.2744 -1.5233 -0.9398
10315SOL     OW39912   7.199   1.776   3.684  0.1188 -0.2427  0.1589
10315SOL    HW139913   7.220   1.686   3.661 -0.2281 -0.0930 -0.7987
10315SOL    HW239914   7.233   1.828   3.611  0.6991  0.4509  0.9024
10316SOL     OW39915  10.110   9.454   6.155  0.0107  0.3741 -0.5445
10316SOL    HW139916  10.098   9.547   6.173 -0.9286  0.4141 -1.3384
10316SOL    HW239917  10.154   9.451   6.070  2.6894  0.1360  0.7570
10317SOL     OW39918   8.753   2.125   1.808 -0.2024  0.1108  0.0782
10317SOL    HW139919   8.776   2.135   1.716 -0.7567 -1.9636 -0.3325
10317SOL    HW239920   8.827   2.078   1.846  0.5083  1.8571  0.9858
10318SOL     OW39921  12.100   6.027   4.003 -0.0647 -0.7819  0.5408
10318SOL    HW139922  12.006   6.019   4.019 -0.0686 -0.3284  0.7669
10318SOL    HW239923  12.139   5.959   4.057 -0.3240 -1.6615 -0.3480
10319SOL     OW39924   9.831   4.999   6.003  0.1282  0.1631  0.3306
10319SOL    HW139925   9.911   5.042   6.034  0.7622  0.3842 -1.4932
10319SOL    HW239926   9.835   5.007   5.908 -1.8404 -0.2502  0.1728
10320SOL     OW39927   2.697   1.491   4.307  0.1920 -0.1749 -0.5182
10320SOL    HW139928   2.749   1.528   4.235 -0.3439 -1.5989 -1.6906
10320SOL    HW239929   2.738   1.407   4.326 -0.3197 -0.2937  0.0996
10321SOL     OW39930  11.893   0.208  11.810 -0.0628  0.4557 -0.0196
10321SOL    HW139931  11.874   0.294  11.847 -1.8096 -0.4286  1.2946
10321SOL    HW239932  11.924   0.156  11.884 -0.6850 -0.5064 -0.4063
10322SOL     OW39933   8.449   6.943   2.537 -0.7943  0.5765  0.6691
10322SOL    HW139934   8.468   6.850   2.551 -1.6371  0.1192 -0.9247
10322SOL    HW239935   8.535   6.984   2.530 -0.3839  0.2127  2.8307
10323SOL     OW39936   2.909   8.227   9.681 -0.5604  0.2016 -0.0878
10323SOL    HW139937   3.003   8.245   9.680 -0.8208  1.6749 -1.2027
10323SOL    HW239938   2.883   8.240   9.773  0.6819 -2.5486  0.7563
10324SOL     OW39939   2.389   0.961   2.783  0.1589 -0.7146  0.0715
10324SOL    HW139940   2.391   0.868   2.806  0.1467 -0.3243  1.7480
10324SOL    HW239941   2.310   0.971   2.730 -1.1493 -1.2555  1.8340
10325SOL     OW39942   5.089   7.820   5.063 -0.2568 -0.0363 -0.1181
10325SOL    HW139943   5.046   7.740   5.093  0.0647 -0.3398 -0.4588
10325SOL    HW239944   5.091   7.876   5.140  0.0445 -0.5864  0.2852
10326SOL     OW39945   7.879  11.664   8.491 -0.6849 -0.1444 -0.2875
10326SOL    HW139946   7.862  11.756   8.473  1.3444  0.5853  1.2232
10326SOL    HW239947   7.917  11.631   8.409 -2.5199 -0.0244 -1.2529
10327SOL     OW39948   4.009   4.288   2.523 -0.8679 -0.5731 -0.4183
10327SOL    HW139949   3.976   4.244   2.445  2.9338 -1.3146 -1.8149
10327SOL    HW239950   4.086   4.335   2.494 -0.7257  1.2616  2.4707
10328SOL     OW39951   2.911   3.855  11.724  0.4639 -0.3340  0.1573
10328SOL    HW139952   2.901   3.778  11.779 -0.6038 -0.2872  0.0595
10328SOL    HW239953   2.981   3.906  11.766  1.5243 -1.5798 -0.0689
10329SOL     OW39954   8.014   6.093   0.639  0.3623  0.0971 -0.3634
10329SOL    HW139955   7.999   6.013   0.588  0.5959 -0.0385 -0.2231
10329SOL    HW239956   7.953   6.157   0.602 -0.5578 -0.4356  0.1952
10330SOL     OW39957   7.245   6.181   5.815  0.0633  0.3567 -0.8382
10330SOL    HW139958   7.338   6.170   5.798  0.0962  2.2591 -2.0808
10330SOL    HW239959   7.236   6.164   5.909  1.3486 -1.4789 -0.9857
10331SOL     OW39960   9.679   8.671   9.731  0.1981 -0.2967 -0.1795
10331SOL    HW139961   9.703   8.760   9.758  0.9808 -0.5843  0.1230
10331SOL    HW239962   9.710   8.615   9.802 -0.9211 -0.7570 -0.0376
10332SOL     OW39963   0.931   2.874  10.926 -0.4573 -0.2981  0.1337
10332SOL    HW139964   0.850   2.875  10.875  0.7472  1.5792 -1.8891
10332SOL    HW239965   0.986   2.811  10.880 -0.5639 -1.2172  1.2310
10333SOL     OW39966   2.126   9.976  10.154  0.5753  0.4169 -0.3953
10333SOL    HW139967   2.085   9.892  10.174  2.7679 -0.7436 -0.4631
10333SOL    HW239968   2.076  10.040  10.204  0.7721 -1.3366  2.2247
10334SOL     OW39969   5.321   1.091   7.490  0.2589  0.0631  0.1706
10334SOL    HW139970   5.303   1.000   7.466  1.0724 -0.3787  1.1432
10334SOL    HW239971   5.402   1.112   7.442  1.5698 -0.6359  1.9572
10335SOL     OW39972   6.965   7.699   3.237  0.1494 -0.4690  0.1535
10335SOL    HW139973   6.895   7.649   3.278 -0.2995  0.1062  0.0992
10335SOL    HW239974   6.926   7.785   3.220  0.6858 -0.3316 -0.4090
10336SOL     OW39975   4.459   4.779   4.459  0.3028 -0.0573  0.4638
10336SOL    HW139976   4.408   4.839   4.405 -0.4293 -0.4428  0.7024
10336SOL    HW239977   4.486   4.710   4.399 -1.0787 -0.8365  0.6918
10337SOL     OW39978   9.531   7.574  11.357 -0.5198 -0.5588 -0.1828
10337SOL    HW139979   9.491   7.488  11.344 -0.7490 -0.3179 -1.1147
10337SOL    HW239980   9.572   7.568  11.444 -1.9795 -1.0273  0.5053
10338SOL     OW39981   6.810   1.675   2.155 -0.2637  0.0153 -0.1970
10338SOL    HW139982   6.898   1.691   2.189  0.5998 -0.1920 -2.1984
10338SOL    HW239983   6.785   1.591   2.194  0.9090 -0.4886 -0.4632
10339SOL     OW39984   8.343   0.100   6.523 -0.0651 -0.1338 -0.2237
10339SOL    HW139985   8.256   0.117   6.558 -0.3960 -0.0812 -1.0391
10339SOL    HW239986   8.369   0.183   6.483  0.3942 -0.1263  0.0851
10340SOL     OW39987  11.927   3.146   6.358  0.3011  0.2660 -0.3829
10340SOL    HW139988  11.984   3.187   6.293  1.1086  0.3382  0.3610
10340SOL    HW239989  11.969   3.062   6.376 -0.1944  0.0282 -0.3215
10341SOL     OW39990   0.962   9.792   1.217  0.0207 -0.5510 -0.1540
10341SOL    HW139991   1.018   9.725   1.256 -1.2816 -1.7315 -0.2660
10341SOL    HW239992   0.986   9.792   1.124 -0.9760 -1.9240 -0.4366
10342SOL     OW39993   6.848   4.495  10.528  0.4979 -0.4700 -0.2223
10342SOL    HW139994   6.903   4.494  10.606  1.4597 -2.8714 -0.8357
10342SOL    HW239995   6.894   4.553  10.467  0.4727  0.3070  0.4790
10343SOL     OW39996   7.991   2.826   0.042 -0.3466  0.4149  0.4658
10343SOL    HW139997   8.049   2.762   0.083 -1.0039 -0.0682  0.6598
10343SOL    HW239998   7.962   2.783  -0.040 -1.5579  0.0345  1.0659
10344SOL     OW39999   3.680   4.291   2.100 -0.2603  0.1163 -0.0339
10344SOL    HW140000   3.633   4.278   2.182  1.8157  0.4283  1.2699
10344SOL    HW240001   3.718   4.205   2.081  1.0243  0.5367  0.5193
10345SOL     OW40002   5.985   0.783   8.418 -0.0539  0.2678  0.2894
10345SOL    HW140003   5.917   0.720   8.394 -1.2285  1.5047  0.2597
10345SOL    HW240004   6.067   0.737   8.402 -0.8727 -0.9975 -0.4265
10346SOL     OW40005   9.471  12.391   0.591  0.8982 -0.0255 -0.1801
10346SOL    HW140006   9.541  12.337   0.555 -0.7064 -2.0656 -0.4253
10346SOL    HW240007   9.503  12.417   0.678  2.0365 -0.7322 -0.3615
10347SOL     OW40008   8.270   0.098   0.562  0.0812 -0.0898 -0.5760
10347SOL    HW140009   8.323   0.172   0.590 -1.4853  1.8210 -2.3605
10347SOL    HW240010   8.186   0.137   0.536 -1.8557 -2.8211  1.0383
10348SOL     OW40011   5.040   6.514  10.721 -0.2141 -0.5773  0.2075
10348SOL    HW140012   5.094   6.549  10.792  1.8637 -0.1177 -1.5355
10348SOL    HW240013   5.000   6.435  10.759 -0.4272  0.4847  2.3484
10349SOL     OW40014  10.578   3.319  12.135  0.1043 -0.2262 -0.0388
10349SOL    HW140015  10.588   3.406  12.098 -0.5368 -0.1308  0.0025
10349SOL    HW240016  10.633   3.262  12.080 -0.3818  0.0075 -0.7744
10350SOL     OW40017   9.166   2.468   8.461  0.2698  0.0438  0.2768
10350SOL    HW140018   9.248   2.495   8.502  0.5681 -0.4351  0.0017
10350SOL    HW240019   9.125   2.550   8.433  0.4119  0.3240  0.8648
10351SOL     OW40020   6.413  10.926  10.648  0.3036 -0.2440 -0.8327
10351SOL    HW140021   6.430  11.011  10.689  0.1853  0.0645 -1.4183
10351SOL    HW240022   6.485  10.870  10.679 -1.3152 -0.8788  2.1525
10352SOL     OW40023   9.927   8.910   6.118  0.1746  0.3145 -0.5286
10352SOL    HW140024   9.979   8.847   6.068  1.5069  0.6114  0.4344
10352SOL    HW240025   9.875   8.857   6.177  0.3540  0.0594 -0.5978
10353SOL     OW40026   5.466   4.722  11.703  0.1843  0.2394  0.2390
10353SOL    HW140027   5.497   4.641  11.742 -2.0079 -0.5872  0.4454
10353SOL    HW240028   5.396   4.694  11.643  0.2644  1.8713 -0.6666
10354SOL     OW40029   1.545   8.781   4.199  0.2289 -0.0065 -0.2564
10354SOL    HW140030   1.478   8.849   4.192  0.1218 -0.0823  0.0292
10354SOL    HW240031   1.619   8.815   4.150 -1.1501 -1.3048 -3.5518
10355SOL     OW40032   6.279   5.689   6.473  0.1514 -0.0713  0.0140
10355SOL    HW140033   6.187   5.702   6.450  0.5832  0.5160 -1.5416
10355SOL    HW240034   6.286   5.722   6.563 -0.9574  0.8427 -0.2039
10356SOL     OW40035   7.583   0.425  10.412  0.6304  0.4934  0.5617
10356SOL    HW140036   7.533   0.464  10.484  0.5639 -0.8029  1.2307
10356SOL    HW240037   7.669   0.408  10.448  0.8780  0.6619  0.0597
10357SOL     OW40038   6.801   6.557   4.819 -0.3727  0.1095  0.1771
10357SOL    HW140039   6.830   6.558   4.728  0.5439  2.1767  0.4381
10357SOL    HW240040   6.844   6.480   4.857  1.3945  0.6907 -0.5272
10358SOL     OW40041   2.371   6.005   4.844  0.3242 -0.1900 -0.5288
10358SOL    HW140042   2.463   6.019   4.822  0.9435  1.0261  2.3906
10358SOL    HW240043   2.361   5.910   4.848  2.2596 -0.4001  1.7571
10359SOL     OW40044   0.443  10.496   6.454 -0.0763 -0.2420  0.2493
10359SOL    HW140045   0.427  10.455   6.369  0.1166 -2.7503  1.3464
10359SOL    HW240046   0.460  10.588   6.433  2.6297 -1.2394 -2.7014
10360SOL     OW40047   2.933  10.905   7.175  0.0295  0.3096  0.1182
10360SOL    HW140048   2.870  10.961   7.128  0.1065  0.8860  0.6902
10360SOL    HW240049   2.981  10.860   7.105 -1.3654 -0.5447 -0.3241
10361SOL     OW40050   4.563   9.551  10.949  0.6460 -0.0650  0.1637
10361SOL    HW140051   4.651   9.578  10.976  0.3195  1.1269  0.0990
10361SOL    HW240052   4.560   9.571  10.856  1.1010 -2.3527 -0.3959
10362SOL     OW40053   1.078   1.245   4.129  0.2221 -0.5986 -0.6444
10362SOL    HW140054   1.104   1.333   4.101 -1.7931 -0.2023 -1.4775
10362SOL    HW240055   1.147   1.217   4.189  1.7754  0.8595 -1.6437
10363SOL     OW40056   5.892   2.599   4.615 -0.2357 -0.0112  0.2177
10363SOL    HW140057   5.815   2.655   4.604 -0.8875 -1.2301 -1.9879
10363SOL    HW240058   5.858   2.521   4.659 -0.3587 -0.6701 -1.0110
10364SOL     OW40059   2.923   8.715   1.058  0.1698  0.7968 -0.0873
10364SOL    HW140060   2.941   8.627   1.024 -2.1946  0.6950 -1.2488
10364SOL    HW240061   2.959   8.713   1.147  1.8836 -0.6634 -0.7340
10365SOL     OW40062  12.333   7.785   1.546  0.4628  0.3071 -0.2319
10365SOL    HW140063  12.287   7.706   1.519  0.7781 -0.7095  1.9882
10365SOL    HW240064  12.276   7.857   1.519 -0.2326 -0.7000 -1.5401
10366SOL     OW40065  12.483   5.306   1.676  0.5597  0.6911 -0.0591
10366SOL    HW140066  12.432   5.236   1.634 -0.8682  0.6627  1.6357
10366SOL    HW240067  12.552   5.325   1.613 -0.0285 -1.0554 -1.3279
10367SOL     OW40068   2.486   7.139   4.248 -0.2963 -0.0281 -0.2636
10367SOL    HW140069   2.397   7.152   4.215  0.7147  0.2954 -3.1254
10367SOL    HW240070   2.513   7.225   4.280 -0.5025  0.2239 -0.7611
10368SOL     OW40071   4.922   1.871  11.208 -0.3536  0.0005 -0.3044
10368SOL    HW140072   4.838   1.830  11.224 -0.6139  1.0939  1.3272
10368SOL    HW240073   4.977   1.844  11.281  1.4650 -2.4276 -2.3828
10369SOL     OW40074   8.962   9.152   7.445  0.6995  0.1143 -0.4324
10369SOL    HW140075   8.906   9.214   7.493 -0.5006 -2.3540  1.5817
10369SOL    HW240076   8.924   9.148   7.357 -1.4077 -0.3368  0.4408
10370SOL     OW40077   2.579   8.942   4.646  0.5413  0.7766 -0.3354
10370SOL    HW140078   2.506   8.896   4.687  0.2892  1.1641 -0.3515
10370SOL    HW240079   2.548   8.965   4.558  1.0530  0.0148 -0.7344
10371SOL     OW40080   7.707   6.719   3.230 -0.1354  0.1757 -0.0823
10371SOL    HW140081   7.740   6.793   3.282  0.3314 -0.3627  0.4047
10371SOL    HW240082   7.643   6.677   3.288 -0.0899 -0.0479 -0.1970
10372SOL     OW40083   0.362  10.612   0.689  0.1945 -0.2249 -0.1739
10372SOL    HW140084   0.294  10.576   0.746 -2.4483  0.3586 -2.6950
10372SOL    HW240085   0.401  10.535   0.648  1.0949 -0.5634  1.2445
10373SOL     OW40086   2.799   6.887   1.420 -0.5658 -0.0839 -0.0123
10373SOL    HW140087   2.732   6.822   1.442 -2.2064  1.3995 -0.3651
10373SOL    HW240088   2.770   6.967   1.465  0.5600  0.7943 -0.7979
10374SOL     OW40089  12.483   6.594   1.038 -0.1825 -0.3328 -0.0394
10374SOL    HW140090  12.472   6.550   1.122 -0.7491  1.6088  0.9782
10374SOL    HW240091  12.440   6.536   0.975 -0.3146 -1.5318  1.1032
10375SOL     OW40092  11.083   8.825  10.107  0.0256  0.1588 -0.5524
10375SOL    HW140093  11.087   8.756  10.172 -0.4076 -0.6092 -1.3198
10375SOL    HW240094  11.174   8.848  10.091  0.4737 -2.4818 -2.5785
10376SOL     OW40095   5.805   5.171   4.977 -0.1321  0.2705 -0.3673
10376SOL    HW140096   5.721   5.199   4.939  0.2220  2.3448  0.2501
10376SOL    HW240097   5.806   5.212   5.064  0.2721 -2.1430  0.8579
10377SOL     OW40098   1.140  10.876   0.231 -0.0471 -0.7273 -0.1856
10377SOL    HW140099   1.067  10.937   0.241  0.8723  0.1072  2.2463
10377SOL    HW240100   1.196  10.916   0.164  0.2137  0.8044  0.8931
10378SOL     OW40101   3.354  11.503   4.506 -0.2281  0.0905  0.0701
10378SOL    HW140102   3.378  11.497   4.599  0.4657 -1.6740 -0.1892
10378SOL    HW240103   3.437  11.499   4.459 -0.5237  1.6158 -0.6420
10379SOL     OW40104   6.419  11.459   6.519 -0.6161 -0.0378 -0.0049
10379SOL    HW140105   6.377  11.489   6.599  0.6314  1.8872  0.0054
10379SOL    HW240106   6.351  11.462   6.453 -1.1871  0.2582  0.5854
10380SOL     OW40107   2.999   9.605   9.011 -0.2141  0.1366  0.1443
10380SOL    HW140108   2.940   9.681   9.011 -0.9628 -0.4340 -0.0815
10380SOL    HW240109   2.976   9.557   8.931  0.0347 -0.4890  0.4424
10381SOL     OW40110   9.540   4.134   6.778  0.1877 -0.5313 -0.2366
10381SOL    HW140111   9.463   4.079   6.762 -1.0218  1.2612 -0.9589
10381SOL    HW240112   9.556   4.178   6.695  0.1676  1.2831  0.6634
10382SOL     OW40113   9.968   7.106   4.720  0.3182  0.3963  0.0317
10382SOL    HW140114  10.063   7.112   4.728  0.4894 -1.9425  0.3274
10382SOL    HW240115   9.942   7.040   4.783 -1.3217 -0.1212 -1.1172
10383SOL     OW40116   8.595   7.328   5.609 -0.3906  0.2997  0.0571
10383SOL    HW140117   8.538   7.255   5.586 -1.3102  1.5577 -1.9067
10383SOL    HW240118   8.625   7.362   5.525  0.7543  1.6141  0.9624
10384SOL     OW40119   1.136   7.583   8.832 -0.0274 -0.1683 -0.4042
10384SOL    HW140120   1.096   7.514   8.778  0.1016  0.0646 -0.7949
10384SOL    HW240121   1.229   7.577   8.813 -0.1119  0.7377 -1.1714
10385SOL     OW40122   6.478   8.038   2.813 -0.3867 -0.2705  0.0305
10385SOL    HW140123   6.403   8.096   2.796  0.6104  1.2119  0.4876
10385SOL    HW240124   6.443   7.972   2.873 -1.3511  0.3820  0.2226
10386SOL     OW40125   9.502  11.829   3.929 -0.1017 -0.0705  0.1748
10386SOL    HW140126   9.431  11.819   3.992 -0.6416 -1.5752 -0.6239
10386SOL    HW240127   9.565  11.760   3.952  1.1081  1.1997  0.8326
10387SOL     OW40128   9.419   1.798   1.404 -0.2644  0.7125  0.0674
10387SOL    HW140129   9.385   1.736   1.468 -2.1319  0.1294 -1.4031
10387SOL    HW240130   9.458   1.743   1.336  1.2087  1.3115  0.3729
10388SOL     OW40131   3.384   3.213   2.483  0.0267 -0.3977  0.0070
10388SOL    HW140132   3.299   3.254   2.467 -0.1089  0.0199  1.6262
10388SOL    HW240133   3.422   3.201   2.396 -1.8347 -0.9262 -0.7866
10389SOL     OW40134   4.770   3.952   5.709  0.1555  0.2383 -0.0572
10389SOL    HW140135   4.833   3.913   5.770 -0.2072 -1.7475 -0.9107
10389SOL    HW240136   4.699   3.889   5.703  0.5712 -0.0972 -3.2067
10390SOL     OW40137   5.012  10.287   9.213  0.3642 -0.6592  0.4706
10390SOL    HW140138   4.922  10.317   9.205  0.7042  0.4668  0.7871
10390SOL    HW240139   5.014  10.205   9.163 -0.2896  0.4441 -1.4449
10391SOL     OW40140   9.478  12.248   2.666  0.1171 -0.4590 -0.5844
10391SOL    HW140141   9.469  12.245   2.761  0.5409  1.1405 -0.4680
10391SOL    HW240142   9.444  12.164   2.636 -1.0728 -0.5468  0.8995
10392SOL     OW40143   9.760   6.449   9.479  0.7735 -0.7923 -0.2458
10392SOL    HW140144   9.706   6.423   9.554  0.3912 -0.6057 -0.4547
10392SOL    HW240145   9.804   6.529   9.507 -0.6298  0.2018 -0.7988
10393SOL     OW40146   5.762   0.681   1.118  0.1425  0.1700  0.1665
10393SOL    HW140147   5.685   0.733   1.143 -1.2145 -1.2985 -0.7998
10393SOL    HW240148   5.822   0.693   1.191 -2.1111 -0.8369  2.3513
10394SOL     OW40149   7.797   7.248   8.082 -0.1252  0.4659  0.3333
10394SOL    HW140150   7.742   7.240   8.160 -2.1376  0.6991 -0.9821
10394SOL    HW240151   7.775   7.334   8.046 -1.1490 -0.6136 -1.8091
10395SOL     OW40152   0.967   4.396   4.050  0.3159 -0.2105  0.4955
10395SOL    HW140153   0.884   4.435   4.022  1.6386  1.1891 -1.7472
10395SOL    HW240154   0.942   4.309   4.084 -1.9876 -0.0488 -0.5949
10396SOL     OW40155   6.849  11.934  10.500  0.3860  0.2863  0.3573
10396SOL    HW140156   6.756  11.952  10.515 -0.2075 -1.1970 -1.1331
10396SOL    HW240157   6.851  11.897  10.411  2.8002  3.2086 -0.9881
10397SOL     OW40158   0.674   4.310   4.017 -0.3440 -0.6537 -0.2360
10397SOL    HW140159   0.606   4.271   3.962 -0.7165  0.5755 -0.6670
10397SOL    HW240160   0.631   4.325   4.101 -1.1122  1.5392 -0.9602
10398SOL     OW40161   1.778   3.432   8.024 -0.8057 -0.0862  0.2521
10398SOL    HW140162   1.755   3.404   8.112 -1.3339  2.0873  0.8562
10398SOL    HW240163   1.868   3.402   8.011 -1.8551 -3.5914  0.0875
10399SOL     OW40164   9.453   4.446   6.756 -0.2122  0.5267  0.1711
10399SOL    HW140165   9.549   4.452   6.763 -0.3106  2.2581  0.2837
10399SOL    HW240166   9.424   4.430   6.846 -0.0158 -0.4483  0.0709
10400SOL     OW40167   2.392  12.367   2.687 -0.1516 -1.2540  0.1388
10400SOL    HW140168   2.420  12.457   2.671 -2.0721 -0.9339 -1.8678
10400SOL    HW240169   2.391  12.359   2.782  0.0292  0.8576  0.3598
10401SOL     OW40170   1.940   6.062   3.567  0.1040  0.7191  0.0539
10401SOL    HW140171   1.938   6.071   3.663 -1.1843 -0.9930  0.2139
10401SOL    HW240172   1.999   5.988   3.551 -2.1539 -1.1272 -0.2327
10402SOL     OW40173   3.943   3.970  10.737  0.6758  0.0748  0.3719
10402SOL    HW140174   3.925   3.936  10.825  1.5826  0.1528  0.6013
10402SOL    HW240175   4.029   3.935  10.716  0.2872 -0.2807 -0.6697
10403SOL     OW40176   7.496  12.142   4.056 -0.1018  0.3745  0.2341
10403SOL    HW140177   7.426  12.113   3.997 -1.0924 -0.2628  1.6511
10403SOL    HW240178   7.519  12.063   4.106  2.1523  0.3913 -0.6570
10404SOL     OW40179   3.316   2.655   5.327 -0.5776  0.1334  0.2663
10404SOL    HW140180   3.321   2.749   5.343 -0.3695  0.4363 -1.3581
10404SOL    HW240181   3.286   2.648   5.236 -1.0102 -1.3790  0.4993
10405SOL     OW40182   5.178   3.031   3.136 -0.0790  0.3186  0.1944
10405SOL    HW140183   5.266   3.056   3.108  0.3465 -1.2457  0.0472
10405SOL    HW240184   5.159   3.088   3.210  1.5472 -0.0992  0.9809
10406SOL     OW40185   0.381   7.087   9.056  0.1293 -0.2588  0.5432
10406SOL    HW140186   0.356   7.109   8.966 -1.1860  2.0036  1.3926
10406SOL    HW240187   0.355   6.995   9.066 -0.0042 -0.4537 -1.2580
10407SOL     OW40188   6.622   8.380   0.755  0.3319  0.3517 -0.0645
10407SOL    HW140189   6.541   8.355   0.800  0.9223  0.0102  0.8456
10407SOL    HW240190   6.651   8.460   0.800  1.4536 -0.5365  0.8652
10408SOL     OW40191   4.369   9.542  10.167 -0.1213 -0.1533 -0.0403
10408SOL    HW140192   4.406   9.493  10.094 -1.1909 -0.1568 -0.5990
10408SOL    HW240193   4.282   9.568  10.137 -0.2319  0.6201  0.8957
10409SOL     OW40194   4.848   1.563   5.738 -0.1838  0.4089  0.0478
10409SOL    HW140195   4.762   1.548   5.699  0.2350 -0.0053 -0.7450
10409SOL    HW240196   4.848   1.656   5.761 -1.3940  0.0927  1.4841
10410SOL     OW40197   7.704   7.454   9.921 -0.0133 -0.3263  0.4567
10410SOL    HW140198   7.663   7.471  10.005 -1.4819 -0.0048 -0.2864
10410SOL    HW240199   7.786   7.503   9.924  0.4848 -1.2105  2.0969
10411SOL     OW40200   7.612  10.422   9.558 -0.2153  0.7009  0.0853
10411SOL    HW140201   7.588  10.500   9.606 -2.4049  0.8927 -1.1609
10411SOL    HW240202   7.529  10.376   9.543  0.5381 -0.1320 -2.0734
10412SOL     OW40203   9.743   3.913   1.326 -0.4099 -0.5758 -0.0796
10412SOL    HW140204   9.707   3.848   1.265 -0.0672  0.3151 -1.2717
10412SOL    HW240205   9.668   3.966   1.351 -0.3256 -0.0438 -0.8965
10413SOL     OW40206  10.606   5.671   3.051 -0.6956  0.2191  0.9577
10413SOL    HW140207  10.659   5.623   3.114  1.2917  1.1918  0.1126
10413SOL    HW240208  10.612   5.762   3.078  0.9022  0.7780 -1.0350
10414SOL     OW40209   6.597   8.938   8.233 -0.5392  0.3925 -0.0155
10414SOL    HW140210   6.563   8.848   8.228  0.0627  0.2154 -1.7944
10414SOL    HW240211   6.675   8.931   8.287 -2.6144  0.6190  3.2443
10415SOL     OW40212   4.146   8.420  12.150  0.0364  0.0536  0.2070
10415SOL    HW140213   4.230   8.461  12.170  0.5999  0.1739 -2.0826
10415SOL    HW240214   4.104   8.479  12.087 -0.5121 -1.3420 -0.8018
10416SOL     OW40215   2.786   9.210  11.135  0.3923 -0.6299  0.2400
10416SOL    HW140216   2.824   9.210  11.047  0.6626 -1.1749  0.3568
10416SOL    HW240217   2.693   9.228  11.120  0.4040 -0.8849 -0.1682
10417SOL     OW40218   8.256   2.339   4.591 -0.2256  0.0109 -0.2552
10417SOL    HW140219   8.303   2.418   4.617  0.3156 -0.1391 -0.7271
10417SOL    HW240220   8.260   2.340   4.495 -0.7130 -0.2911 -0.2791
10418SOL     OW40221   9.979   5.669   2.971 -0.7865 -0.2575 -0.5539
10418SOL    HW140222  10.024   5.587   2.951  1.3952  1.2758 -2.4613
10418SOL    HW240223   9.906   5.672   2.909 -0.1787 -0.2452 -1.2772
10419SOL     OW40224   1.862   2.124   2.654  0.7520 -0.4009 -0.2019
10419SOL    HW140225   1.915   2.180   2.597  0.1197  0.0499 -0.3587
10419SOL    HW240226   1.772   2.145   2.631  0.3917  1.4107  2.4276
10420SOL     OW40227   1.984  11.427  10.591  0.5803  0.4520 -0.6292
10420SOL    HW140228   1.907  11.430  10.648  0.5072  0.0175 -0.7002
10420SOL    HW240229   1.975  11.503  10.534  0.0555  0.2496 -0.8234
10421SOL     OW40230   0.818  10.810   5.294 -0.5287 -0.0568 -0.5230
10421SOL    HW140231   0.798  10.729   5.339 -0.3154  0.2829  0.1998
10421SOL    HW240232   0.897  10.844   5.338 -2.2353  2.0068  1.2047
10422SOL     OW40233   8.079   9.055   6.318  0.0451  0.1732  0.0232
10422SOL    HW140234   8.065   9.140   6.360  1.9034  0.1987  0.6993
10422SOL    HW240235   8.090   9.076   6.225 -3.1993  0.2103 -0.4633
10423SOL     OW40236   7.125   1.590   5.540 -0.3405  0.3375 -0.2312
10423SOL    HW140237   7.050   1.647   5.523 -1.3766 -0.7495  0.5349
10423SOL    HW240238   7.087   1.511   5.580  1.2684  0.0166  0.7645
10424SOL     OW40239  10.825   0.669  11.476  0.1986  0.3455  0.6367
10424SOL    HW140240  10.785   0.734  11.418 -1.2354 -1.8294 -0.9625
10424SOL    HW240241  10.871   0.721  11.542  1.9789  3.0360 -2.3832
10425SOL     OW40242   6.295   2.020  10.097  0.4641 -0.2411  0.1127
10425SOL    HW140243   6.384   2.040  10.128  0.6932 -0.5132 -0.3649
10425SOL    HW240244   6.248   2.103  10.103  0.4798 -0.2893  1.2555
10426SOL     OW40245   4.973   3.298   4.797 -0.1247 -0.4905 -0.0174
10426SOL    HW140246   5.050   3.351   4.816  0.1069 -0.5542 -0.7806
10426SOL    HW240247   4.949   3.321   4.707  0.3175 -2.1004 -0.5726
10427SOL     OW40248   4.633   0.577  11.396  0.3966  0.1759 -0.1259
10427SOL    HW140249   4.706   0.566  11.335 -1.2237  0.8455 -2.3213
10427SOL    HW240250   4.611   0.488  11.423  1.1910 -0.1369 -0.4768
10428SOL     OW40251  12.307  11.399   2.770 -0.5771 -0.7549 -0.3796
10428SOL    HW140252  12.229  11.348   2.752 -0.5597 -1.1632  0.6870
10428SOL    HW240253  12.352  11.405   2.685 -0.6053 -2.4607 -0.5404
10429SOL     OW40254  12.211   7.120   3.727  0.3402  0.4373  0.5781
10429SOL    HW140255  12.176   7.124   3.638  1.3809 -0.6505  0.0933
10429SOL    HW240256  12.305   7.137   3.717  0.5745 -0.2793  1.3806
10430SOL     OW40257   8.841   7.461   0.897  0.3840  0.2614 -0.5681
10430SOL    HW140258   8.747   7.449   0.887  0.2724  0.9769 -0.4638
10430SOL    HW240259   8.878   7.374   0.882 -0.4049 -0.3684  0.9384
10431SOL     OW40260   8.375   1.967   7.444  0.0426  0.3153 -0.1802
10431SOL    HW140261   8.372   1.893   7.384 -0.6413  0.5737 -0.4797
10431SOL    HW240262   8.287   1.971   7.482 -0.2285  1.5496 -0.8813
10432SOL     OW40263  12.408   8.478   0.374  0.3119  0.5319  0.0346
10432SOL    HW140264  12.351   8.407   0.405 -0.6485  0.8321 -1.0090
10432SOL    HW240265  12.483   8.476   0.434 -1.5032  1.1538  2.4634
10433SOL     OW40266   1.177   5.922   0.896 -0.2383 -0.7646 -0.0917
10433SOL    HW140267   1.205   5.944   0.807  1.2056  0.8005  0.7080
10433SOL    HW240268   1.240   5.856   0.925  0.3251 -0.0534  0.3396
10434SOL     OW40269  11.489  12.303  10.950  0.0983  0.0222  0.2588
10434SOL    HW140270  11.484  12.382  11.004 -0.5603  1.0945 -1.3232
10434SOL    HW240271  11.398  12.277  10.937  0.1611  0.4829 -1.3096
10435SOL     OW40272  12.315   0.114  11.182 -0.0762  0.1593  0.6955
10435SOL    HW140273  12.366   0.145  11.258 -1.7315 -0.1452  1.9843
10435SOL    HW240274  12.233   0.083  11.220 -0.4682 -1.1509 -1.1197
10436SOL     OW40275  10.399   0.453   3.323  0.0163 -0.0561  0.3045
10436SOL    HW140276  10.393   0.546   3.300 -0.3857 -0.4794 -1.4209
10436SOL    HW240277  10.312   0.431   3.356  0.1328  0.1752  0.7863
10437SOL     OW40278   4.315   2.753   2.314  0.0955 -0.6035  0.4971
10437SOL    HW140279   4.246   2.819   2.321  0.6396  0.1572 -0.9405
10437SOL    HW240280   4.270   2.675   2.283 -0.0165  0.1493 -1.3328
10438SOL     OW40281  10.027   8.814   7.069 -0.4802  0.2649  0.1778
10438SOL    HW140282   9.969   8.738   7.062  1.8798 -1.5073 -1.7521
10438SOL    HW240283  10.017   8.859   6.985  1.6826 -0.7187 -0.6684
10439SOL     OW40284   2.107   9.693   1.425 -0.1747  0.1617  0.1120
10439SOL    HW140285   2.062   9.623   1.471  0.8965  0.2771  1.3797
10439SOL    HW240286   2.122   9.761   1.491  0.7549  0.6483 -0.5629
10440SOL     OW40287   9.753   5.853   4.383 -0.0359 -0.7665 -0.0223
10440SOL    HW140288   9.706   5.936   4.368  1.3950  0.0739 -0.0620
10440SOL    HW240289   9.834   5.880   4.427  0.8000 -2.0747 -0.7127
10441SOL     OW40290   9.166   8.160   8.202  0.5564 -1.1913  0.1835
10441SOL    HW140291   9.138   8.228   8.141 -2.1391 -1.2152  1.2372
10441SOL    HW240292   9.181   8.083   8.147  0.1945 -0.6666 -0.6612
10442SOL     OW40293   0.949  11.143   5.519  0.1628  0.1045 -0.4311
10442SOL    HW140294   0.873  11.103   5.477  1.3116 -1.2946 -1.2803
10442SOL    HW240295   0.928  11.236   5.524 -1.7297 -0.3017 -0.3252
10443SOL     OW40296  12.182   5.016   0.114  0.0773  0.2150  0.5298
10443SOL    HW140297  12.094   4.986   0.093 -0.1215  1.2631 -0.2519
10443SOL    HW240298  12.177   5.046   0.205 -0.5744  0.9214  0.2747
10444SOL     OW40299   8.421  11.247   6.744 -0.2119 -0.2234  0.6180
10444SOL    HW140300   8.382  11.328   6.778  0.7559 -0.4845  2.4216
10444SOL    HW240301   8.351  11.182   6.752 -0.5274  0.0940  0.5140
10445SOL     OW40302   6.020  12.416   1.342  0.6572  0.3181 -0.3091
10445SOL    HW140303   6.093  12.399   1.282 -1.0454 -2.6276 -1.7579
10445SOL    HW240304   6.031  12.352   1.413 -0.3684 -0.0052 -0.4230
10446SOL     OW40305   9.340   8.650  11.716  0.6129  0.2674  0.7391
10446SOL    HW140306   9.336   8.562  11.753 -1.4528  0.0436  0.0818
10446SOL    HW240307   9.274   8.700  11.764  1.2444  1.2833  0.5920
10447SOL     OW40308   2.509   7.147   1.333 -0.0227  0.2433 -0.0716
10447SOL    HW140309   2.421   7.112   1.318 -0.0596  0.7715 -1.1651
10447SOL    HW240310   2.495   7.224   1.386 -0.4336  1.3785 -1.7385
10448SOL     OW40311   9.044   0.009   5.061  0.0271 -0.4104 -0.3675
10448SOL    HW140312   9.028   0.088   5.011  0.0670 -0.8883 -1.1468
10448SOL    HW240313   9.100  -0.044   5.005 -1.4548 -1.7662 -0.6427
10449SOL     OW40314   5.759  10.785   0.781  0.4667  0.2528 -0.1059
10449SOL    HW140315   5.730  10.876   0.783 -1.2229 -0.2563 -0.1915
10449SOL    HW240316   5.746  10.757   0.691  2.8185  0.4516 -0.5667
10450SOL     OW40317   8.638  10.848   5.313 -0.6373  0.1374  0.1982
10450SOL    HW140318   8.694  10.824   5.387 -0.0053 -0.9027 -0.5844
10450SOL    HW240319   8.575  10.910   5.350 -0.9054 -1.0231  1.8150
10451SOL     OW40320   4.191   5.004   2.978  0.2718 -0.1918 -0.1338
10451SOL    HW140321   4.259   4.955   2.931  0.9593  0.3250  0.2904
10451SOL    HW240322   4.205   4.981   3.070 -0.0445  0.0245 -0.0329
10452SOL     OW40323  12.509   6.364   5.406 -1.1582 -0.4336  0.2896
10452SOL    HW140324  12.474   6.323   5.485  2.0652 -1.5553  1.3393
10452SOL    HW240325  12.549   6.292   5.357  0.5590  0.7689 -0.1896
10453SOL     OW40326  11.904  12.042   5.501  0.0266  0.3315 -0.3159
10453SOL    HW140327  11.948  12.124   5.482 -2.8179  2.3658  1.0367
10453SOL    HW240328  11.944  12.011   5.582  0.8327  0.6332 -0.5966
10454SOL     OW40329   4.508   6.026   7.286 -0.4286 -0.8306  0.0012
10454SOL    HW140330   4.424   6.072   7.284 -0.1381 -0.3108 -0.5882
10454SOL    HW240331   4.568   6.087   7.329  0.4163  0.1794 -2.4434
10455SOL     OW40332   5.493   2.405   2.510  0.1112 -0.3504 -0.3199
10455SOL    HW140333   5.438   2.393   2.433 -0.1832  0.5164 -0.2652
10455SOL    HW240334   5.575   2.442   2.476 -0.7931  2.0764 -0.0638
10456SOL     OW40335   4.606  10.506   7.114  0.3324  0.0964 -0.2730
10456SOL    HW140336   4.635  10.520   7.204  0.0389  0.2903 -0.2088
10456SOL    HW240337   4.637  10.418   7.093 -0.9483 -0.5917  0.5639
10457SOL     OW40338  10.677   0.915   2.799 -0.5116  0.0627  0.0171
10457SOL    HW140339  10.667   1.011   2.802 -0.6554  0.0344  0.6661
10457SOL    HW240340  10.729   0.895   2.877 -1.4840 -0.5019  0.5403
10458SOL     OW40341   9.788   4.942   5.711  0.5086  0.5140 -0.0643
10458SOL    HW140342   9.840   4.862   5.700  2.3039  0.8498  4.1539
10458SOL    HW240343   9.841   5.011   5.673  0.5586  0.1485 -0.6697
10459SOL     OW40344   2.800   9.560  10.559  0.8894 -0.1678 -0.3642
10459SOL    HW140345   2.783   9.524  10.646 -0.9340  0.3490 -0.4790
10459SOL    HW240346   2.830   9.650  10.575  1.4787 -0.3788 -0.2499
10460SOL     OW40347   3.488   3.386   2.069  0.0466  0.3516  0.0660
10460SOL    HW140348   3.443   3.469   2.086  0.0233  0.1052  1.3036
10460SOL    HW240349   3.435   3.342   2.003  0.9968  2.0566 -1.9463
10461SOL     OW40350  10.635   5.008  10.120  0.2006  0.3073  0.1013
10461SOL    HW140351  10.664   4.940  10.060  1.5871 -0.4960  1.5899
10461SOL    HW240352  10.701   5.077  10.110  0.2333  0.3241  0.4243
10462SOL     OW40353  11.748   2.827  10.192  0.7028 -0.1025 -0.6570
10462SOL    HW140354  11.809   2.761  10.225 -0.0648 -0.1025  0.9022
10462SOL    HW240355  11.797   2.909  10.193  0.6699 -0.0733  0.7343
10463SOL     OW40356   0.074   4.686   5.463 -0.4231 -0.2021  0.2520
10463SOL    HW140357   0.142   4.744   5.498  0.1830  1.4829 -3.2167
10463SOL    HW240358   0.004   4.744   5.435 -1.6817 -1.5824  0.4018
10464SOL     OW40359   6.865   5.316  12.385  0.0162  0.3368 -0.3376
10464SOL    HW140360   6.783   5.361  12.406  0.2634 -0.2383  2.1002
10464SOL    HW240361   6.934   5.374  12.417  0.4614 -0.2637 -0.1777
10465SOL     OW40362   2.817   8.688   9.860 -0.2501  0.1159  0.0099
10465SOL    HW140363   2.787   8.702   9.950 -1.5280  0.4428 -0.4416
10465SOL    HW240364   2.773   8.606   9.834  0.0304  0.0809 -0.3505
10466SOL     OW40365   8.300   3.957   6.092 -0.0231 -0.3203  0.1464
10466SOL    HW140366   8.303   3.960   6.188 -0.7380 -2.1217  0.2663
10466SOL    HW240367   8.210   3.930   6.072  0.2023 -0.2536 -1.0355
10467SOL     OW40368  10.343  11.133   0.207  0.0052 -0.0285  0.4734
10467SOL    HW140369  10.365  11.217   0.168 -0.9694  0.1654  0.3173
10467SOL    HW240370  10.394  11.131   0.288  1.2874 -0.0121 -0.3014
10468SOL     OW40371  12.256   3.443   0.441  0.1853 -0.5097 -0.9499
10468SOL    HW140372  12.315   3.510   0.478 -1.0695 -0.0377  0.2810
10468SOL    HW240373  12.270   3.367   0.497 -1.9823  0.3173  0.8633
10469SOL     OW40374  10.612   6.871  11.106 -0.3574 -0.0960  0.2635
10469SOL    HW140375  10.610   6.955  11.151  1.1270  0.9974 -1.5679
10469SOL    HW240376  10.627   6.806  11.175 -0.5054  1.2485  1.5831
10470SOL     OW40377   6.379   0.379   9.117 -0.2479  0.2009 -0.4353
10470SOL    HW140378   6.448   0.314   9.102 -1.9622 -1.9472  0.3771
10470SOL    HW240379   6.303   0.327   9.141 -1.2656  2.6400  2.1363
10471SOL     OW40380   8.246   9.913   1.793 -0.3308 -0.3998  0.0060
10471SOL    HW140381   8.219   9.983   1.853 -0.2346  0.2393 -0.6780
10471SOL    HW240382   8.177   9.848   1.799 -0.9598  0.2395 -0.1218
10472SOL     OW40383  10.745   1.223   7.931  0.0888 -0.3396 -0.0558
10472SOL    HW140384  10.819   1.171   7.897  0.6300 -0.8968  1.8357
10472SOL    HW240385  10.669   1.168   7.917  0.0814 -0.0070 -1.4978
10473SOL     OW40386   8.616  11.745   5.065 -0.1592  0.0137  0.0460
10473SOL    HW140387   8.693  11.711   5.110  0.8585  1.7786 -0.2293
10473SOL    HW240388   8.548  11.750   5.132  0.5457  0.1791  0.7613
10474SOL     OW40389   9.164   8.806  11.843  0.8383 -0.8154 -0.1237
10474SOL    HW140390   9.183   8.782  11.934  0.2008 -0.6562  0.0493
10474SOL    HW240391   9.167   8.901  11.841 -0.8428 -0.7392  0.1095
10475SOL     OW40392  11.121   0.878   6.848 -0.6058 -0.0936 -0.3238
10475SOL    HW140393  11.200   0.903   6.896 -0.2358 -1.6045 -0.0998
10475SOL    HW240394  11.153   0.838   6.768 -1.1567 -0.1802 -0.5037
10476SOL     OW40395   7.360   1.878   2.158  0.5813  0.2377 -0.0160
10476SOL    HW140396   7.392   1.788   2.163  0.6656  0.3273  1.6036
10476SOL    HW240397   7.436   1.931   2.183  0.0298  0.6382  0.8420
10477SOL     OW40398  10.379   2.943  12.053 -0.0493 -0.5447 -0.0815
10477SOL    HW140399  10.465   2.929  12.014 -0.1532 -0.4535 -0.3532
10477SOL    HW240400  10.394   3.003  12.126 -0.1629  1.2843 -1.4711
10478SOL     OW40401   3.712   3.064   8.285 -0.2701  0.3287  0.0059
10478SOL    HW140402   3.706   3.112   8.367 -0.0937  0.4538 -0.0522
10478SOL    HW240403   3.650   3.107   8.227  0.2293  0.7859 -0.1918
10479SOL     OW40404   5.594   8.266  11.068 -0.4158  0.4407  0.2419
10479SOL    HW140405   5.593   8.213  11.148  1.0581  1.7125  1.1590
10479SOL    HW240406   5.586   8.356  11.099  0.4389  0.9668 -1.0141
10480SOL     OW40407   1.827   3.954   9.832 -0.0062  0.0845 -0.0939
10480SOL    HW140408   1.736   3.937   9.805 -0.3075  0.9932  0.3285
10480SOL    HW240409   1.862   4.010   9.763  0.1796 -0.1004 -0.1519
10481SOL     OW40410   4.443   3.636   3.621 -0.0076  0.3167 -0.6794
10481SOL    HW140411   4.453   3.689   3.700  2.7285  1.4055 -1.6269
10481SOL    HW240412   4.496   3.558   3.638 -0.3159  0.0320 -1.0201
10482SOL     OW40413   6.770   2.269   5.987  0.4724  0.3566 -0.3223
10482SOL    HW140414   6.713   2.223   6.049  0.2076  0.9026 -0.1586
10482SOL    HW240415   6.715   2.335   5.947  0.6785  0.0816 -1.0640
10483SOL     OW40416   0.242   3.398   8.668  0.2137 -0.4255  0.0652
10483SOL    HW140417   0.270   3.484   8.637 -0.6317  0.3180  1.2451
10483SOL    HW240418   0.313   3.368   8.725 -0.5006  0.6272  1.5895
10484SOL     OW40419  11.996   2.465  12.175  0.2558  0.6414  0.0414
10484SOL    HW140420  12.041   2.538  12.131  1.1332 -0.6682 -1.3463
10484SOL    HW240421  12.061   2.394  12.174 -0.1164  0.1969  2.4999
10485SOL     OW40422  12.045   1.033   3.110  0.2778 -0.2698  0.0176
10485SOL    HW140423  12.112   1.101   3.116 -0.5638  0.4633  2.2821
10485SOL    HW240424  11.991   1.058   3.035  3.1596 -1.6020 -2.7311
10486SOL     OW40425   8.140   1.194   5.128 -0.3515  0.5337  0.0615
10486SOL    HW140426   8.206   1.256   5.158  1.0083  0.8030 -3.1329
10486SOL    HW240427   8.130   1.132   5.201  1.2323  2.1356  1.7438
10487SOL     OW40428   0.253   2.988   8.002  0.0453 -0.2533 -0.9874
10487SOL    HW140429   0.322   3.045   8.037 -0.2214  0.8406 -2.1594
10487SOL    HW240430   0.297   2.935   7.936 -0.2934  0.7619 -2.0572
10488SOL     OW40431   7.011   7.494  12.492  0.0571 -0.2006 -0.4007
10488SOL    HW140432   7.052   7.570  12.533  0.3301  0.5181 -1.9551
10488SOL    HW240433   7.082   7.451  12.445 -0.3478 -0.7560 -0.5132
10489SOL     OW40434   9.223   2.455   5.580  0.2050 -0.3300  0.4817
10489SOL    HW140435   9.200   2.536   5.625 -1.1030 -0.8021  0.7097
10489SOL    HW240436   9.296   2.479   5.523  0.5912  0.7357  1.3786
10490SOL     OW40437   9.062   9.875   7.340 -0.4745 -0.2716  0.5998
10490SOL    HW140438   8.971   9.886   7.365 -0.4846  1.1216  0.0270
10490SOL    HW240439   9.061   9.880   7.244  0.0693 -1.4055  0.5195
10491SOL     OW40440   3.716  10.191   9.498 -0.1091  0.1751  0.0709
10491SOL    HW140441   3.667  10.270   9.476 -1.9544 -1.0717 -0.5630
10491SOL    HW240442   3.754  10.163   9.414  0.3633  0.2498  0.2544
10492SOL     OW40443   8.224   8.077   9.766 -0.3787  0.2314  0.1413
10492SOL    HW140444   8.278   7.999   9.765  2.6802  2.1609  0.7131
10492SOL    HW240445   8.155   8.058   9.831  1.7423 -1.1335  2.1357
10493SOL     OW40446   0.568   9.205   0.664 -0.3418 -0.2025 -0.2842
10493SOL    HW140447   0.624   9.130   0.646  0.8828  0.7001 -0.3833
10493SOL    HW240448   0.577   9.260   0.586 -3.2289 -1.0877 -1.3535
10494SOL     OW40449   3.804   1.832   2.334 -0.1334  0.1960  0.3659
10494SOL    HW140450   3.724   1.884   2.334 -0.9125 -0.9769  0.1289
10494SOL    HW240451   3.823   1.818   2.427  0.3183  1.2146  0.4475
10495SOL     OW40452   8.078   0.609   6.722 -0.1020 -0.0077 -0.6413
10495SOL    HW140453   8.165   0.616   6.760 -0.0658  0.2136 -0.7687
10495SOL    HW240454   8.090   0.554   6.645 -0.5419 -2.3707  0.8634
10496SOL     OW40455   7.989   6.674   7.626  0.0667 -0.0933 -0.0174
10496SOL    HW140456   7.939   6.616   7.568  0.9280 -2.1666  1.2138
10496SOL    HW240457   8.007   6.621   7.703  2.5166  1.2068  0.3950
10497SOL     OW40458   6.663   9.378   8.237 -0.1104  0.5328  0.4491
10497SOL    HW140459   6.742   9.337   8.202 -0.1795  1.0805 -0.3956
10497SOL    HW240460   6.655   9.344   8.326  0.2402 -0.6773  0.0279
10498SOL     OW40461   6.182   3.222   1.654 -0.1755 -0.0304 -0.1436
10498SOL    HW140462   6.251   3.269   1.608  0.5022 -0.9022 -0.0327
10498SOL    HW240463   6.204   3.129   1.644 -0.8717 -0.2928  0.6050
10499SOL     OW40464   4.774   9.732   6.778 -0.3001  0.0027  0.2649
10499SOL    HW140465   4.683   9.762   6.785 -0.4800 -0.2475 -0.7753
10499SOL    HW240466   4.817   9.768   6.855 -1.0482  0.9657  0.2572
10500SOL     OW40467  11.947   6.413   8.073  0.1012  0.0592  0.2348
10500SOL    HW140468  11.945   6.345   8.005  1.1657 -0.4731  0.7076
10500SOL    HW240469  12.037   6.445   8.072  0.0433  0.2726  1.1743
10501SOL     OW40470   0.563  11.540   3.622  0.3168 -0.1298  0.6707
10501SOL    HW140471   0.608  11.514   3.703 -0.5063  1.0810  1.5656
10501SOL    HW240472   0.595  11.628   3.604 -1.5889  0.7523  1.3155
10502SOL     OW40473   5.383   5.023   7.948 -0.1991  0.1713  0.1810
10502SOL    HW140474   5.418   5.075   7.876  0.0063 -0.0173  0.1415
10502SOL    HW240475   5.444   5.040   8.021  0.4946 -0.8314 -0.1335
10503SOL     OW40476   6.871   5.578   2.817  0.2617  0.4513  0.3522
10503SOL    HW140477   6.913   5.664   2.810  0.5071  0.2954 -0.1515
10503SOL    HW240478   6.856   5.552   2.726  0.7241 -0.3027  0.4856
10504SOL     OW40479  10.629   0.583   8.565  0.0682  0.2134  0.9071
10504SOL    HW140480  10.561   0.547   8.508 -0.1450 -0.8417  1.7990
10504SOL    HW240481  10.640   0.518   8.634  1.5247  0.6685  1.1477
10505SOL     OW40482  11.189  10.999   1.977 -0.0692 -0.0716 -0.3791
10505SOL    HW140483  11.112  11.045   1.942 -0.1376  0.2583  0.2002
10505SOL    HW240484  11.162  10.969   2.063 -0.4125 -2.1933 -1.1556
10506SOL     OW40485  12.232  12.546   4.945 -0.7153  0.0091 -0.1629
10506SOL    HW140486  12.289  12.620   4.968  1.1884 -1.2426 -0.6311
10506SOL    HW240487  12.263  12.519   4.858 -0.4559 -2.1796  0.5717
10507SOL     OW40488   4.781   2.610   0.730 -0.3880 -0.0917  0.4723
10507SOL    HW140489   4.697   2.609   0.683 -0.8924  1.6862  1.2658
10507SOL    HW240490   4.818   2.696   0.711  0.2078 -0.0048  1.9227
10508SOL     OW40491   7.218   7.759   3.990  0.3140  0.4905  0.2551
10508SOL    HW140492   7.227   7.679   3.939  1.5241  0.3232  0.6960
10508SOL    HW240493   7.286   7.817   3.956  0.0532  0.9891  0.5612
10509SOL     OW40494   9.453   1.209   2.419 -0.1463 -0.0576 -0.0092
10509SOL    HW140495   9.452   1.116   2.395  0.3235 -0.5191  1.6459
10509SOL    HW240496   9.388   1.217   2.488 -0.7980  1.0384 -0.7226
10510SOL     OW40497  12.358   3.135   4.812  0.2285  1.0067  0.3535
10510SOL    HW140498  12.390   3.224   4.805 -0.2697  1.1893  0.3209
10510SOL    HW240499  12.322   3.129   4.900  0.8168  0.6447  0.5728
10511SOL     OW40500   6.331   6.608   1.949 -0.1314 -0.0648  0.2647
10511SOL    HW140501   6.310   6.577   2.037 -0.2761 -0.8601 -0.0455
10511SOL    HW240502   6.260   6.575   1.894 -0.1353  0.5748 -0.1252
10512SOL     OW40503   8.495   2.131   7.989 -0.3400 -0.3515 -0.0233
10512SOL    HW140504   8.433   2.070   7.949 -1.7800 -0.1210  1.7332
10512SOL    HW240505   8.440   2.195   8.034  1.0713  2.5902 -2.1430
10513SOL     OW40506  10.915   3.213   1.036  0.3380 -0.0119  0.0262
10513SOL    HW140507  10.896   3.223   0.942 -1.1463  0.2747  0.3325
10513SOL    HW240508  10.849   3.151   1.067 -0.2198  1.1265  1.1978
10514SOL     OW40509   5.199   2.968   6.985  0.2272 -0.2976 -0.0985
10514SOL    HW140510   5.189   3.026   6.910  1.0328 -1.7842 -1.4092
10514SOL    HW240511   5.120   2.913   6.985  1.4059 -2.1286 -1.5793
10515SOL     OW40512  11.239  12.346  11.318  1.0263  0.3041  0.3794
10515SOL    HW140513  11.208  12.255  11.317 -1.2557  0.9932  1.8281
10515SOL    HW240514  11.322  12.342  11.365  1.9061 -1.2388 -1.1712
10516SOL     OW40515   7.921   1.266   7.044  0.2063 -0.0711 -0.1789
10516SOL    HW140516   7.876   1.183   7.057  1.1673 -0.6341 -0.3734
10516SOL    HW240517   7.851   1.331   7.042 -0.6352 -0.9664 -0.8654
10517SOL     OW40518   4.656  11.407  11.192 -0.2397 -0.2630 -0.2175
10517SOL    HW140519   4.694  11.480  11.241  1.3356 -1.1683 -0.0368
10517SOL    HW240520   4.567  11.400  11.225  0.2678  0.2089  1.3227
10518SOL     OW40521   3.159   7.054   3.210 -0.2134  0.4191  0.3402
10518SOL    HW140522   3.238   7.013   3.174  0.3564  1.4449  0.3638
10518SOL    HW240523   3.088   7.019   3.157  0.3263 -0.0686 -0.0809
10519SOL     OW40524   7.008   0.247   7.302  0.3603 -0.5423 -0.1353
10519SOL    HW140525   6.919   0.211   7.311  0.4491 -1.1803 -1.5193
10519SOL    HW240526   7.027   0.285   7.388 -0.7482 -1.5525  0.5977
10520SOL     OW40527   2.753   7.476   1.004 -0.0012 -0.0290  0.2677
10520SOL    HW140528   2.680   7.524   1.043  2.0188  2.7262  0.9968
10520SOL    HW240529   2.791   7.426   1.076 -0.2324 -0.2381  0.2455
10521SOL     OW40530   6.187   0.031   4.994  0.0169 -0.2252  0.4113
10521SOL    HW140531   6.179  -0.046   5.050  0.6552  0.1962  1.0968
10521SOL    HW240532   6.267   0.017   4.945 -0.7215 -0.7577 -0.6771
10522SOL     OW40533   7.262  11.825   4.632 -0.1989  0.8513 -0.6672
10522SOL    HW140534   7.198  11.754   4.623  0.1735  0.4313 -0.1160
10522SOL    HW240535   7.224  11.898   4.584 -1.3307  0.7629  0.0469
10523SOL     OW40536  10.189   2.668   0.181 -0.0216  0.2305  0.0552
10523SOL    HW140537  10.093   2.672   0.182 -0.1607 -1.4375 -1.1591
10523SOL    HW240538  10.213   2.695   0.092  0.4498 -1.3460 -0.3365
10524SOL     OW40539  10.532  10.880   0.612 -0.3212  0.2012 -0.0877
10524SOL    HW140540  10.513  10.833   0.531 -0.6866 -2.6905  1.5652
10524SOL    HW240541  10.449  10.922   0.635 -0.5166  0.1063 -0.6008
10525SOL     OW40542  12.297   6.718  10.346 -0.2314 -0.9029 -0.1200
10525SOL    HW140543  12.261   6.630  10.345 -2.1038 -0.2013  0.7741
10525SOL    HW240544  12.296   6.744  10.439 -1.3878  0.6654 -0.5202
10526SOL     OW40545   0.981   5.261   4.126  0.2223 -0.0757  0.1598
10526SOL    HW140546   1.015   5.319   4.058 -0.5198  1.7744  1.3149
10526SOL    HW240547   0.906   5.218   4.085 -1.1982  2.2035  0.2248
10527SOL     OW40548  12.335   9.839  11.800  0.5093  0.0426 -0.9250
10527SOL    HW140549  12.297   9.785  11.731 -0.6328  0.6308 -0.7774
10527SOL    HW240550  12.272   9.836  11.872  0.3276  1.6702 -0.9665
10528SOL     OW40551  11.758   1.773   5.788  0.2156 -0.7422  0.6524
10528SOL    HW140552  11.739   1.740   5.700 -0.3145  1.6018 -0.1664
10528SOL    HW240553  11.804   1.855   5.774  0.0007 -0.2439  2.5631
10529SOL     OW40554   0.151   4.744   2.024  0.0511  0.4822 -0.7401
10529SOL    HW140555   0.176   4.679   1.958 -0.4621  0.2181 -0.6786
10529SOL    HW240556   0.087   4.800   1.980 -0.8233 -0.1134 -0.2740
10530SOL     OW40557   9.846   5.901   4.975  0.7987  0.6986 -0.4318
10530SOL    HW140558   9.839   5.909   5.070  0.4532  0.6222 -0.4512
10530SOL    HW240559   9.940   5.887   4.960  0.6916 -0.6511  0.0071
10531SOL     OW40560  11.305  11.233   9.875  0.0951 -0.4147  0.5086
10531SOL    HW140561  11.380  11.267   9.924 -1.3447  0.9336  1.8868
10531SOL    HW240562  11.338  11.223   9.786  1.6683  1.0111  0.8666
10532SOL     OW40563  11.842   0.775  10.802 -0.4200  0.0541 -0.0266
10532SOL    HW140564  11.795   0.787  10.885 -0.5121  1.8419 -0.3179
10532SOL    HW240565  11.886   0.858  10.786  3.1226 -1.5309  0.3285
10533SOL     OW40566   7.615   3.315   5.458  0.1546 -0.4262 -0.2802
10533SOL    HW140567   7.685   3.376   5.479 -0.7994  1.2398 -1.6442
10533SOL    HW240568   7.655   3.252   5.398  0.7273 -0.0757 -0.2733
10534SOL     OW40569  11.044   8.892   3.289  0.1808 -0.5250  0.0899
10534SOL    HW140570  11.071   8.895   3.197  1.4558 -2.0316  0.3756
10534SOL    HW240571  10.966   8.836   3.289 -0.0659 -0.1875 -0.1096
10535SOL     OW40572   8.339   0.278   5.082 -0.1445  0.0241  0.0854
10535SOL    HW140573   8.302   0.212   5.024 -1.0895  1.4817 -1.0311
10535SOL    HW240574   8.325   0.361   5.037  0.8566  1.0298  1.5164
10536SOL     OW40575   2.902  10.849  10.241  0.1460 -0.0185 -0.5033
10536SOL    HW140576   2.989  10.867  10.206  0.2909  0.6138  0.1686
10536SOL    HW240577   2.844  10.858  10.165  0.5000  0.9419 -0.6763
10537SOL     OW40578   3.873   8.629   9.685 -0.6736 -0.0182  0.3281
10537SOL    HW140579   3.905   8.685   9.756  1.9387 -0.7517 -0.2029
10537SOL    HW240580   3.871   8.687   9.609  1.5918 -0.4692 -0.1195
10538SOL     OW40581   0.504  10.415   7.286 -0.3521 -0.2626  0.1730
10538SOL    HW140582   0.486  10.479   7.217 -0.0406 -1.0603 -0.6749
10538SOL    HW240583   0.570  10.456   7.341  0.7149 -0.3028 -1.0375
10539SOL     OW40584   6.586   9.579   8.506 -0.2040 -0.3775  0.5936
10539SOL    HW140585   6.507   9.634   8.500 -0.5068 -0.7364  1.1468
10539SOL    HW240586   6.642   9.609   8.435 -1.0582 -0.4538 -0.1258
10540SOL     OW40587   6.298   0.800  10.799 -0.4464  0.5878  0.2798
10540SOL    HW140588   6.355   0.730  10.767 -0.4346  0.5725  0.3340
10540SOL    HW240589   6.217   0.756  10.825 -0.2243  0.5154  0.8681
10541SOL     OW40590   4.825   3.862  10.793  0.2511  0.2157  0.5145
10541SOL    HW140591   4.731   3.880  10.795  0.2863  0.3701  0.7554
10541SOL    HW240592   4.848   3.843  10.884  0.2333 -0.9286  0.3006
10542SOL     OW40593   2.711   4.398   7.404 -0.5360  0.5318 -0.5283
10542SOL    HW140594   2.733   4.316   7.361 -0.6899 -0.1154  0.5734
10542SOL    HW240595   2.646   4.374   7.471  0.3165  1.3199  0.6363
10543SOL     OW40596   8.014  11.069   4.279  0.8783  0.4916 -0.5823
10543SOL    HW140597   8.047  10.982   4.303  2.9605  1.4455  0.2011
10543SOL    HW240598   7.957  11.094   4.351  0.5045 -0.0693 -0.6696
10544SOL     OW40599   9.627   0.059   5.294 -0.4203 -0.3800 -0.1970
10544SOL    HW140600   9.577   0.045   5.214 -0.9551  0.2140  0.0331
10544SOL    HW240601   9.600   0.145   5.326  1.1706  0.2310 -0.3807
10545SOL     OW40602   3.284   9.394   4.075 -0.0358 -0.0954 -0.5897
10545SOL    HW140603   3.265   9.312   4.028 -0.9429 -0.8248  0.9796
10545SOL    HW240604   3.256   9.463   4.014 -1.6498 -1.0210 -0.9524
10546SOL     OW40605   0.537   7.953   5.763  0.2646  0.2713  0.0438
10546SOL    HW140606   0.594   7.981   5.691  0.9566 -1.8836 -0.3115
10546SOL    HW240607   0.582   7.877   5.801 -0.6217  0.7127  2.0822
10547SOL     OW40608   3.277   3.927   0.324  0.0359  0.0118  0.2521
10547SOL    HW140609   3.318   3.852   0.281 -0.3446  0.2967 -0.6316
10547SOL    HW240610   3.342   3.997   0.317  0.4381 -0.2480  1.1787
10548SOL     OW40611   4.259   8.853   7.323 -0.4928  0.2817  0.1288
10548SOL    HW140612   4.251   8.764   7.287 -0.3610 -0.4145  1.7145
10548SOL    HW240613   4.285   8.907   7.249  2.2084 -1.4950 -0.3499
10549SOL     OW40614   6.274  10.397   6.219 -0.7041 -0.6094 -0.5941
10549SOL    HW140615   6.322  10.363   6.295 -1.0893  0.9326  0.3769
10549SOL    HW240616   6.183  10.374   6.236 -0.6126 -1.6575 -1.4005
10550SOL     OW40617   7.338   4.247   7.205 -0.0512  0.0513 -0.1623
10550SOL    HW140618   7.367   4.163   7.170  0.6656  0.4181 -0.4642
10550SOL    HW240619   7.418   4.297   7.218 -0.3130  0.1056  1.5968
10551SOL     OW40620   0.629   3.732   8.827 -0.1899 -0.0362 -0.1191
10551SOL    HW140621   0.621   3.784   8.748 -0.0491 -0.0587 -0.1477
10551SOL    HW240622   0.540   3.731   8.864 -0.4871 -0.8729 -0.8136
10552SOL     OW40623   9.521  10.921   2.618 -0.1528 -0.3155  0.4132
10552SOL    HW140624   9.443  10.947   2.569  0.1662  0.0217  0.0754
10552SOL    HW240625   9.552  10.842   2.574  1.1615  0.9792 -1.0928
10553SOL     OW40626  10.872   5.590   4.492  0.2588  0.1443  0.3855
10553SOL    HW140627  10.872   5.532   4.416 -0.1928 -0.3292  0.7417
10553SOL    HW240628  10.947   5.648   4.477  1.8137 -1.6198  0.8237
10554SOL     OW40629   4.286   7.147   4.611 -0.1118 -0.3293 -0.2002
10554SOL    HW140630   4.303   7.241   4.603  1.1266 -0.5725 -0.5300
10554SOL    HW240631   4.322   7.123   4.696  2.1020 -1.0098 -1.2643
10555SOL     OW40632  11.823   2.466   8.882 -0.4312 -0.2266  0.1620
10555SOL    HW140633  11.739   2.431   8.855 -2.1202  3.0990  0.5646
10555SOL    HW240634  11.808   2.499   8.970  1.8540 -1.1131  0.9536
10556SOL     OW40635   2.842  11.638  11.524 -0.5134  0.0777 -0.0237
10556SOL    HW140636   2.806  11.714  11.570  0.9786  0.3400  0.7875
10556SOL    HW240637   2.905  11.600  11.586  0.3765 -0.5091 -1.2467
10557SOL     OW40638   0.514  11.713   7.168  0.0963  0.5620  0.5226
10557SOL    HW140639   0.438  11.661   7.193  1.0945 -0.3445  1.8634
10557SOL    HW240640   0.538  11.680   7.081 -0.9570  0.7647  0.1551
10558SOL     OW40641   1.432   0.532   1.321 -0.4062  0.0087  0.0590
10558SOL    HW140642   1.450   0.618   1.284 -2.0341 -0.2819 -1.5131
10558SOL    HW240643   1.454   0.541   1.414 -1.1690  2.3129  0.0764
10559SOL     OW40644   3.368  11.978   6.303  0.1428  0.1376 -0.4985
10559SOL    HW140645   3.336  11.933   6.381  0.2115  0.2469 -0.4072
10559SOL    HW240646   3.461  11.992   6.321  0.5498 -1.2980 -1.2810
10560SOL     OW40647  11.619   0.993   8.165 -0.2669 -0.5008  0.0491
10560SOL    HW140648  11.570   1.033   8.237  0.8849  1.0964 -0.0174
10560SOL    HW240649  11.594   1.044   8.088  1.9864  0.8490  0.1339
10561SOL     OW40650   3.986  12.219  10.827  0.5654  0.1256 -0.8161
10561SOL    HW140651   3.974  12.186  10.738  0.6598 -2.1329 -0.0550
10561SOL    HW240652   3.957  12.147  10.884  2.5829  0.6377  0.9938
10562SOL     OW40653  10.911  12.009  11.455 -0.5690  0.2858  0.2493
10562SOL    HW140654  10.943  12.058  11.531 -1.2260  0.5413  0.3672
10562SOL    HW240655  10.873  11.930  11.492  1.4109 -0.8472 -0.0123
10563SOL     OW40656   8.097  10.396  10.775  0.4821 -0.4282  0.2117
10563SOL    HW140657   8.070  10.385  10.866 -0.1234 -0.5240  0.0237
10563SOL    HW240658   8.027  10.447  10.735  0.4100 -0.9664 -0.3617
10564SOL     OW40659  12.509   5.821   7.970 -0.9209  0.2861 -0.1017
10564SOL    HW140660  12.595   5.863   7.962 -0.0733 -1.5219 -1.0165
10564SOL    HW240661  12.470   5.830   7.883 -0.2981 -1.6404 -0.6176
10565SOL     OW40662   3.876   8.513   6.966 -0.0639 -0.1235  0.2113
10565SOL    HW140663   3.901   8.485   6.878  0.1213  1.6873 -0.3522
10565SOL    HW240664   3.953   8.495   7.020 -0.0652 -0.9537 -0.0579
10566SOL     OW40665   3.234   3.342   1.401 -0.1060  0.4276 -0.2492
10566SOL    HW140666   3.184   3.407   1.450 -0.1660  0.2190 -0.0281
10566SOL    HW240667   3.322   3.379   1.395 -0.0639  0.3953  0.1401
10567SOL     OW40668   2.437   1.010   0.247  0.6090  0.1078  0.2304
10567SOL    HW140669   2.476   0.945   0.188 -0.8963  1.0039 -1.9089
10567SOL    HW240670   2.390   0.958   0.312  1.1277 -0.9357 -0.1922
10568SOL     OW40671  10.309  11.862   1.872 -0.2271  0.5434  0.2822
10568SOL    HW140672  10.333  11.897   1.958 -0.9363 -0.0458  0.7302
10568SOL    HW240673  10.287  11.939   1.820  1.3278  0.9975  0.2579
10569SOL     OW40674   6.463  10.261   3.380  0.2331 -0.0723  0.2339
10569SOL    HW140675   6.377  10.267   3.337  0.3834 -1.3652 -0.2961
10569SOL    HW240676   6.525  10.260   3.307  0.5354 -1.5830  0.4798
10570SOL     OW40677  10.273   7.041   4.239 -0.2427  0.2527  0.4167
10570SOL    HW140678  10.226   7.073   4.162 -1.2418  0.7486  1.2088
10570SOL    HW240679  10.313   6.959   4.211  1.8181  1.7829 -1.4740
10571SOL     OW40680   3.254   9.070   3.623 -0.4750  0.6144  0.5349
10571SOL    HW140681   3.176   9.108   3.666  0.3909  0.2625  2.5542
10571SOL    HW240682   3.326   9.089   3.684  0.6389 -0.9660 -0.2220
10572SOL     OW40683   1.349   3.727   6.421 -0.2076  0.5234 -0.1623
10572SOL    HW140684   1.281   3.668   6.389  1.2384 -0.5730 -1.3698
10572SOL    HW240685   1.372   3.694   6.508 -0.9487  0.6795  0.0935
10573SOL     OW40686   9.127   1.992   1.151 -0.3888  0.5721 -0.9157
10573SOL    HW140687   9.144   1.915   1.096  2.4969  0.7829 -0.5076
10573SOL    HW240688   9.212   2.036   1.156 -1.0027  1.6571  2.0282
10574SOL     OW40689   8.113  11.127   8.074  0.6103 -0.3957  0.0271
10574SOL    HW140690   8.044  11.132   8.008  0.2431 -0.9124  0.3679
10574SOL    HW240691   8.125  11.034   8.091  1.6181 -0.3337 -0.2511
10575SOL     OW40692   0.871   2.072   4.994 -0.2822  0.4877  0.4142
10575SOL    HW140693   0.842   2.112   4.913 -0.2610 -2.2351 -1.0607
10575SOL    HW240694   0.907   2.144   5.046  0.7757  2.1641 -2.4540
10576SOL     OW40695   4.686   9.963   2.640  0.0966 -0.0031  0.2004
10576SOL    HW140696   4.737  10.008   2.572  1.2928  2.1892  2.4175
10576SOL    HW240697   4.751   9.940   2.707 -0.7678 -3.5239  0.0483
10577SOL     OW40698   8.435  11.592   6.482 -0.2176 -0.7767 -0.0587
10577SOL    HW140699   8.348  11.633   6.474 -0.9022 -2.1980 -0.0688
10577SOL    HW240700   8.480  11.618   6.402 -0.4757  0.2910  0.1190
10578SOL     OW40701   1.569   2.794  10.551 -0.2166  0.5787  0.2521
10578SOL    HW140702   1.537   2.708  10.578  2.0609 -1.9857 -4.0143
10578SOL    HW240703   1.660   2.796  10.581 -0.0402  1.1591 -0.3116
10579SOL     OW40704   6.385   6.219  11.644  0.4276 -0.2855 -0.0775
10579SOL    HW140705   6.346   6.271  11.714  0.1168 -2.4639  1.4829
10579SOL    HW240706   6.314   6.207  11.581  0.1486  0.1284  0.1484
10580SOL     OW40707   1.919   9.964   4.685 -0.4470  0.1430 -0.1671
10580SOL    HW140708   2.005   9.922   4.672 -0.0869  1.0377 -0.7722
10580SOL    HW240709   1.882   9.918   4.760  1.7471  1.5682  1.9335
10581SOL     OW40710   2.989  10.855  12.086 -0.0308 -0.0324 -0.3456
10581SOL    HW140711   2.923  10.885  12.149  0.5602 -1.6733  1.1173
10581SOL    HW240712   3.073  10.885  12.123  0.2986 -0.7571 -0.4853
10582SOL     OW40713  11.238   8.411   3.525  0.1097 -0.1817 -0.1959
10582SOL    HW140714  11.189   8.491   3.506  0.2051  0.0994  0.7053
10582SOL    HW240715  11.231   8.359   3.444  0.3013  0.8523 -0.8996
10583SOL     OW40716   7.655   7.751   2.333 -0.4949  0.1206  0.0251
10583SOL    HW140717   7.680   7.662   2.361 -3.1758  0.0200  2.5590
10583SOL    HW240718   7.621   7.740   2.245 -0.0120 -1.2090 -0.0169
10584SOL     OW40719   6.930   3.809   5.070 -0.5614 -0.5485 -0.1612
10584SOL    HW140720   6.858   3.780   5.015  0.2014 -0.9032 -1.0022
10584SOL    HW240721   6.969   3.728   5.103 -1.1345 -0.3357  1.0888
10585SOL     OW40722   4.074  10.617   4.857 -0.7643 -1.0914 -0.1222
10585SOL    HW140723   4.118  10.599   4.774  1.0829  0.7111  0.3892
10585SOL    HW240724   4.057  10.711   4.856  0.4152 -0.7931  2.0001
10586SOL     OW40725   6.699   2.262   7.818 -0.1150  0.0426 -0.6658
10586SOL    HW140726   6.723   2.249   7.909 -0.3394  0.0287 -0.6083
10586SOL    HW240727   6.622   2.206   7.805 -0.5721  0.6498 -0.6461
10587SOL     OW40728   0.902   3.934   6.098 -0.3298 -0.4625  0.3528
10587SOL    HW140729   0.885   3.861   6.158  0.7470 -0.8426  0.2157
10587SOL    HW240730   0.948   3.999   6.151 -0.9827 -0.0194  0.3861
10588SOL     OW40731   9.698   2.524  10.530 -0.0235 -0.0613 -0.3381
10588SOL    HW140732   9.787   2.520  10.564 -0.1412 -0.0102 -0.0193
10588SOL    HW240733   9.703   2.486  10.443  0.0531 -1.2954  0.1919
10589SOL     OW40734   6.579   9.007   4.960 -0.2402 -0.3523  0.3351
10589SOL    HW140735   6.532   8.932   4.924 -0.3673  0.0616 -0.3897
10589SOL    HW240736   6.625   9.045   4.885  0.6432 -0.3063  0.8957
10590SOL     OW40737  10.492   4.708   2.805  0.1761 -0.5704  0.0129
10590SOL    HW140738  10.438   4.629   2.813  0.2114 -0.7999 -1.6249
10590SOL    HW240739  10.566   4.693   2.864  0.0236 -1.6421 -0.0493
10591SOL     OW40740   6.251   1.090   9.957 -0.0814  0.1067 -0.1446
10591SOL    HW140741   6.220   1.157   9.896 -0.2048 -1.2071 -1.5961
10591SOL    HW240742   6.263   1.136  10.040 -0.2783  1.8809 -1.0606
10592SOL     OW40743   9.356   5.013   0.265 -0.0940  0.1398 -0.5303
10592SOL    HW140744   9.419   5.060   0.209  1.9566 -1.3712  0.3655
10592SOL    HW240745   9.322   5.079   0.324 -0.2519  1.2308 -1.7995
10593SOL     OW40746   0.018  10.666   7.950  0.4653 -1.3742  0.2918
10593SOL    HW140747   0.087  10.720   7.989 -1.2261  0.4756  0.8849
10593SOL    HW240748   0.063  10.587   7.921  2.5072 -1.0648  2.3327
10594SOL     OW40749   5.141   8.248  12.393  0.0362 -0.0785  0.1505
10594SOL    HW140750   5.113   8.297  12.316 -1.3672  1.6778  1.6991
10594SOL    HW240751   5.237   8.243  12.385 -0.0440  0.4417 -1.4478
10595SOL     OW40752   9.361   3.779   9.972 -0.2421  0.1733  0.1622
10595SOL    HW140753   9.424   3.734   9.915 -1.6273 -0.8297 -0.6325
10595SOL    HW240754   9.365   3.730  10.054  0.8467  0.8385  0.5165
10596SOL     OW40755   9.996   1.302   0.606  0.2790  0.0720  0.3706
10596SOL    HW140756  10.027   1.305   0.696  1.3607 -0.2165  0.0200
10596SOL    HW240757   9.915   1.353   0.607 -0.1407 -0.5722  1.6546
10597SOL     OW40758   2.305   5.992   6.710 -0.3817  0.6838  0.2099
10597SOL    HW140759   2.317   6.082   6.678 -2.1545  1.3956  1.3482
10597SOL    HW240760   2.324   5.998   6.803 -0.9486 -0.0199  0.3749
10598SOL     OW40761  12.054   7.018   3.992  0.1135 -0.1114 -0.5401
10598SOL    HW140762  12.086   7.014   3.903  0.9402  0.2427 -0.2685
10598SOL    HW240763  12.068   7.109   4.019  0.6123 -0.4026  0.2171
10599SOL     OW40764   2.752   3.842  12.488 -0.4706  0.0038 -0.0602
10599SOL    HW140765   2.704   3.762  12.469  2.6211 -1.6044 -2.0384
10599SOL    HW240766   2.792   3.867  12.405  1.7118  1.4054  1.2850
10600SOL     OW40767   0.764   4.162   6.014 -0.0807 -0.0916 -0.1861
10600SOL    HW140768   0.827   4.234   6.025  1.0298 -0.8485 -1.3435
10600SOL    HW240769   0.794   4.096   6.076 -1.0194  0.3608  0.7773
10601SOL     OW40770   9.196   3.517   4.260 -0.2480 -0.0251 -0.3147
10601SOL    HW140771   9.119   3.482   4.216 -2.5541  0.8280  2.6879
10601SOL    HW240772   9.254   3.442   4.272 -0.8107 -0.7952 -2.1202
10602SOL     OW40773  11.163   4.677   3.999  0.7628 -0.6890  0.1380
10602SOL    HW140774  11.187   4.643   4.085 -1.6913  2.3745  2.2972
10602SOL    HW240775  11.225   4.748   3.983  0.1179 -0.0710  0.3135
10603SOL     OW40776  10.767   1.455   0.602 -0.1826 -0.0698 -0.2559
10603SOL    HW140777  10.763   1.490   0.691  1.6064  1.2829 -0.6613
10603SOL    HW240778  10.762   1.533   0.545 -2.0873 -0.9551 -1.4027
10604SOL     OW40779  11.501   5.961   3.405  0.0897 -0.1155 -0.5419
10604SOL    HW140780  11.563   6.034   3.405 -0.7772  0.6554 -1.5470
10604SOL    HW240781  11.426   5.993   3.456 -0.3039 -0.2757 -1.0097
10605SOL     OW40782   9.845  11.776   9.543 -0.9899  0.1564 -0.1103
10605SOL    HW140783   9.808  11.709   9.486  1.7599 -2.9389  1.3801
10605SOL    HW240784   9.844  11.736   9.630  0.1550  2.3632  0.9925
10606SOL     OW40785   5.587   8.636  10.066 -0.8627 -0.4374 -0.1527
10606SOL    HW140786   5.612   8.686  10.143 -1.2301  0.4596 -0.6074
10606SOL    HW240787   5.613   8.690   9.992 -0.7182 -1.1872 -0.6644
10607SOL     OW40788  10.552   9.852   8.458  0.0527 -0.1223  0.3250
10607SOL    HW140789  10.563   9.841   8.363 -0.8659  0.5325  0.1202
10607SOL    HW240790  10.541   9.947   8.470 -0.5805 -0.2679  0.9871
10608SOL     OW40791  11.514   3.143   0.543 -0.5863 -0.5883  0.4921
10608SOL    HW140792  11.606   3.136   0.520 -0.8409 -0.9662 -0.4720
10608SOL    HW240793  11.483   3.052   0.546 -0.9737 -0.4565  0.6147
10609SOL     OW40794  10.161   6.539  12.502 -0.6100 -0.2790  0.2687
10609SOL    HW140795  10.080   6.489  12.496 -1.4270  1.0081  0.1789
10609SOL    HW240796  10.142   6.622  12.458  0.4228  0.4552  1.1283
10610SOL     OW40797   4.069   8.056   1.210 -0.1792 -0.6756 -0.0063
10610SOL    HW140798   4.102   7.993   1.273  1.1891 -0.1214 -0.1359
10610SOL    HW240799   4.004   8.107   1.258  3.2225  2.0831  2.1959
10611SOL     OW40800  12.427  12.266   4.096  0.0030  1.0746  0.2034
10611SOL    HW140801  12.474  12.349   4.093 -0.7034  1.4611 -0.5038
10611SOL    HW240802  12.388  12.263   4.184  0.8303  1.0240  0.5777
10612SOL     OW40803   8.022  11.134   1.358  0.4054 -0.0859 -0.0003
10612SOL    HW140804   8.053  11.153   1.270 -0.1048  0.0108 -0.1589
10612SOL    HW240805   7.929  11.155   1.357  0.2567 -0.6846  0.3813
10613SOL     OW40806   9.571  12.435  12.160 -0.0014 -0.5388  1.1975
10613SOL    HW140807   9.479  12.410  12.168 -0.2521 -0.2289 -0.4592
10613SOL    HW240808   9.585  12.496  12.233 -1.2592 -0.1643  1.1542
10614SOL     OW40809   7.192   6.769   8.345 -0.0719 -0.3574  0.4452
10614SOL    HW140810   7.164   6.766   8.436 -0.2645 -0.2552  0.3917
10614SOL    HW240811   7.257   6.840   8.342 -0.7306  0.2570  0.3309
10615SOL     OW40812   0.031   6.772   5.964  0.1702  0.4076  0.1821
10615SOL    HW140813   0.066   6.722   5.890 -0.4613 -0.0497  0.1916
10615SOL    HW240814  -0.038   6.717   6.001 -0.6852  1.3705  0.0648
10616SOL     OW40815   6.589  11.319   6.837  0.2642 -0.0943  0.2186
10616SOL    HW140816   6.636  11.317   6.754  0.6361 -1.0842  0.4293
10616SOL    HW240817   6.498  11.299   6.815  0.0379  1.2325 -0.1213
10617SOL     OW40818   6.239   1.270   1.107 -0.3325  0.0129 -0.0996
10617SOL    HW140819   6.201   1.222   1.033  1.6366 -0.1599 -1.0471
10617SOL    HW240820   6.289   1.341   1.067  1.2073 -0.3969  0.9994
10618SOL     OW40821   9.804  12.375   3.968  0.2531 -0.0185  0.0230
10618SOL    HW140822   9.887  12.421   3.953  0.4520 -0.4593 -0.2548
10618SOL    HW240823   9.752  12.394   3.891  0.5256 -0.6654 -0.3249
10619SOL     OW40824   5.631   7.622   8.952 -1.1227  0.5312  0.4373
10619SOL    HW140825   5.577   7.682   9.004 -0.1195  1.3823  0.5398
10619SOL    HW240826   5.715   7.667   8.944 -1.2031  0.4128 -1.8468
10620SOL     OW40827  10.402   7.292   2.290 -0.0580  0.3204 -0.9211
10620SOL    HW140828  10.477   7.310   2.347  0.1348  2.7278 -1.8349
10620SOL    HW240829  10.422   7.206   2.253  0.4183 -0.7544  1.6025
10621SOL     OW40830   9.485  11.649  11.983  0.1458 -0.6219  0.6129
10621SOL    HW140831   9.514  11.665  11.894 -1.9387  0.1498 -0.0040
10621SOL    HW240832   9.564  11.657  12.037  0.9150  2.5452 -0.7682
10622SOL     OW40833  10.864   9.166   6.032 -0.2538 -0.4665 -0.8761
10622SOL    HW140834  10.897   9.145   6.120 -1.2649  2.2642  0.2634
10622SOL    HW240835  10.774   9.135   6.032 -1.8677  3.5033  0.9341
10623SOL     OW40836   6.278   6.769   2.522 -0.8591  0.1302 -0.2523
10623SOL    HW140837   6.348   6.736   2.578 -1.4787 -1.9048 -0.5715
10623SOL    HW240838   6.198   6.754   2.572 -1.2487  0.1165 -0.8673
10624SOL     OW40839   1.772   0.167   5.138 -0.0193  0.0772  0.1998
10624SOL    HW140840   1.775   0.161   5.042 -0.3538 -0.8714  0.2410
10624SOL    HW240841   1.679   0.161   5.160  0.0120  0.8136  0.5621
10625SOL     OW40842   1.539   9.170  12.523 -0.0432  0.0320  0.2054
10625SOL    HW140843   1.545   9.169  12.618 -2.1267 -0.9049  0.3900
10625SOL    HW240844   1.499   9.086  12.500 -0.6962  0.7304 -1.3889
10626SOL     OW40845   0.021   9.353  11.384 -0.1106  0.4817  0.1021
10626SOL    HW140846   0.042   9.353  11.477 -1.1203  0.1711  0.3351
10626SOL    HW240847  -0.003   9.443  11.364  1.2660  0.8205 -0.1442
10627SOL     OW40848   5.513  10.536  12.197  0.3991 -0.2303 -0.1385
10627SOL    HW140849   5.600  10.496  12.187  1.2875  1.6705 -0.5420
10627SOL    HW240850   5.530  10.617  12.246 -0.8014  1.2288 -1.9983
10628SOL     OW40851   1.182   0.372   8.107  0.4488  0.2419  0.1795
10628SOL    HW140852   1.113   0.350   8.169  0.6934 -0.0068  0.3712
10628SOL    HW240853   1.166   0.316   8.032  0.8148 -0.2917  0.4888
10629SOL     OW40854   8.931   7.893   5.696 -0.0793  0.6686 -0.1186
10629SOL    HW140855   8.967   7.863   5.779 -1.1196  1.1759  0.5376
10629SOL    HW240856   8.990   7.858   5.629  0.0667 -0.8085  0.7573
10630SOL     OW40857   7.914   6.864   8.582 -0.2254  0.1017 -0.5481
10630SOL    HW140858   7.855   6.910   8.522 -0.0562 -0.5332 -1.2095
10630SOL    HW240859   7.855   6.824   8.647 -0.4778 -0.0339 -0.8589
10631SOL     OW40860  10.935   1.966   4.559  0.6754 -0.1639  0.3261
10631SOL    HW140861  10.935   1.892   4.620  0.6087  0.6650  1.3676
10631SOL    HW240862  11.021   2.007   4.571  0.4067  0.4000  0.3684
10632SOL     OW40863   4.447   8.094   2.517  0.3336 -0.4379 -0.4023
10632SOL    HW140864   4.364   8.097   2.470  0.5056 -0.1484 -0.6952
10632SOL    HW240865   4.510   8.064   2.452  0.1807 -2.2830  0.2401
10633SOL     OW40866   2.785   9.504  10.830  0.2826 -0.1774 -0.0063
10633SOL    HW140867   2.735   9.517  10.911 -1.2155 -0.2474 -0.9020
10633SOL    HW240868   2.829   9.420  10.843  1.4840  0.6136  1.4321
10634SOL     OW40869  10.638   9.399   8.889 -0.0518  0.0621  0.4588
10634SOL    HW140870  10.604   9.312   8.908 -1.0683  0.2456 -0.3934
10634SOL    HW240871  10.643   9.442   8.974  0.8357 -0.9526  0.9289
10635SOL     OW40872   5.628  11.057   0.369 -0.4802  0.2731  0.2964
10635SOL    HW140873   5.721  11.054   0.344 -0.7312 -0.2788 -0.6733
10635SOL    HW240874   5.622  11.001   0.446 -0.0667 -0.0684  0.0889
10636SOL     OW40875   7.976  11.206   3.070 -0.1048 -0.5483 -0.2310
10636SOL    HW140876   8.012  11.258   3.142  1.3832 -2.7955  0.7620
10636SOL    HW240877   7.925  11.137   3.113  1.6776 -2.5712 -1.1627
10637SOL     OW40878   4.430   4.792   3.284  0.4850 -0.0731  0.3954
10637SOL    HW140879   4.408   4.735   3.210  0.6954  1.3276 -0.7670
10637SOL    HW240880   4.453   4.731   3.354  1.3531 -1.4208 -1.0041
10638SOL     OW40881  12.317   1.704  12.127 -0.1675  0.0957  0.6225
10638SOL    HW140882  12.362   1.622  12.149 -0.4746 -0.4787 -0.7454
10638SOL    HW240883  12.384   1.757  12.084 -0.2371  0.1233  0.5467
10639SOL     OW40884   6.478  10.296   5.213  0.6099  0.0735  0.1477
10639SOL    HW140885   6.568  10.290   5.245  1.2638 -1.7954 -1.7829
10639SOL    HW240886   6.485  10.350   5.134 -0.1285  0.6245  0.4458
10640SOL     OW40887   4.133   2.786   9.240  0.1011  0.1899  0.4861
10640SOL    HW140888   4.067   2.746   9.296 -1.1271 -0.7825 -1.5557
10640SOL    HW240889   4.105   2.877   9.231 -1.5544 -0.4267 -1.0953
10641SOL     OW40890   7.609   0.186   5.226 -0.4199 -0.3015 -0.8965
10641SOL    HW140891   7.603   0.264   5.170 -0.5093 -1.0802 -1.9927
10641SOL    HW240892   7.694   0.147   5.204 -0.7587 -0.9974 -0.9858
10642SOL     OW40893   1.729   5.078   0.763 -0.1038 -0.5998 -0.2119
10642SOL    HW140894   1.805   5.027   0.734 -0.6717 -1.7359  0.2644
10642SOL    HW240895   1.758   5.121   0.843 -0.8966 -3.5760  1.8066
10643SOL     OW40896   4.022   9.365   3.319 -0.5273 -0.2144  0.2354
10643SOL    HW140897   3.989   9.408   3.399  0.5044 -0.1884  0.6619
10643SOL    HW240898   4.085   9.301   3.351 -0.5172 -0.5938 -0.5365
10644SOL     OW40899   0.735   6.238   1.554  0.1858 -0.5074 -0.6789
10644SOL    HW140900   0.641   6.256   1.551  0.0725 -1.0815 -0.5941
10644SOL    HW240901   0.756   6.209   1.466  0.4413  0.3790 -0.9165
10645SOL     OW40902  10.057   5.600   7.357 -0.5112 -0.3331  0.0588
10645SOL    HW140903  10.064   5.696   7.361  2.6590 -0.3610 -1.5290
10645SOL    HW240904   9.996   5.583   7.286 -1.2801  0.4876  0.5010
10646SOL     OW40905  10.409   6.190   5.679  0.2610  0.9047 -0.4155
10646SOL    HW140906  10.484   6.248   5.692 -0.0510  0.9719  1.3045
10646SOL    HW240907  10.440   6.124   5.616  1.5399  1.3134 -0.2321
10647SOL     OW40908   1.214   0.961   2.402 -0.1056 -0.2005  0.2948
10647SOL    HW140909   1.247   0.968   2.492 -1.6447 -0.8216  0.9312
10647SOL    HW240910   1.133   0.911   2.409 -1.8521  2.1877 -1.0474
10648SOL     OW40911   5.311   5.413  10.296 -0.2665 -0.2862  0.2405
10648SOL    HW140912   5.374   5.341  10.295 -0.2079 -0.2458  0.8220
10648SOL    HW240913   5.263   5.404  10.214 -0.6998 -1.3787  0.5966
10649SOL     OW40914   9.207   7.341   3.197  0.2805  0.6680 -0.3495
10649SOL    HW140915   9.171   7.252   3.196  1.9822 -0.1373  1.5867
10649SOL    HW240916   9.151   7.388   3.260  0.7462  0.2787  0.3739
10650SOL     OW40917   7.856   5.701   6.098  0.4700 -0.1886 -0.2974
10650SOL    HW140918   7.839   5.616   6.058 -0.8979 -1.5167  2.8333
10650SOL    HW240919   7.783   5.757   6.070 -0.9027 -1.3308  0.8671
10651SOL     OW40920   3.178   3.519   0.343  0.2257  0.1066 -0.0891
10651SOL    HW140921   3.125   3.489   0.416  1.6824 -0.0707  0.9280
10651SOL    HW240922   3.138   3.602   0.317 -0.3242  0.1611  0.8957
10652SOL     OW40923   5.056   4.981   6.784 -0.0435 -0.2337  0.1439
10652SOL    HW140924   5.074   4.887   6.777 -1.5099 -0.4069 -2.8686
10652SOL    HW240925   5.122   5.023   6.729 -0.3006  0.3543  0.2699
10653SOL     OW40926   0.208   3.187   4.708 -0.0288  0.3836  0.1112
10653SOL    HW140927   0.183   3.097   4.728 -0.9468  0.8205  1.0810
10653SOL    HW240928   0.275   3.209   4.773 -2.6899  1.6559  2.6900
10654SOL     OW40929   6.175   6.356  11.028 -0.8825  1.0842 -0.0645
10654SOL    HW140930   6.165   6.262  11.042 -1.1110  1.1152 -0.0147
10654SOL    HW240931   6.255   6.379  11.076 -0.3162  0.7544 -0.8253
10655SOL     OW40932   4.953   4.166   2.708 -0.0163 -0.3977  0.6854
10655SOL    HW140933   4.865   4.130   2.707 -0.9888  1.7805  1.2190
10655SOL    HW240934   4.942   4.255   2.742  2.4653 -0.2332  1.2600
10656SOL     OW40935   9.485   2.618   6.649 -0.2708 -0.5296  0.0815
10656SOL    HW140936   9.431   2.583   6.720 -1.5376  0.9404 -0.1079
10656SOL    HW240937   9.549   2.674   6.693  0.6276 -1.6419  0.2393
10657SOL     OW40938   4.993   8.200  11.621  0.0815  0.1806 -0.0247
10657SOL    HW140939   5.084   8.186  11.594  0.3248  1.5597  0.0040
10657SOL    HW240940   4.954   8.113  11.620  1.4591 -0.4729  0.1578
10658SOL     OW40941   4.385  12.567   6.846 -0.7430 -0.4517  0.8013
10658SOL    HW140942   4.463  12.620   6.860 -0.0559 -1.0941 -0.4233
10658SOL    HW240943   4.406  12.481   6.883 -0.3474 -1.0146 -0.6560
10659SOL     OW40944   2.993  10.849   4.032  0.4446 -0.0867 -0.7475
10659SOL    HW140945   2.908  10.805   4.032 -0.0989  0.9197 -0.2713
10659SOL    HW240946   2.984  10.917   3.965  1.0037 -0.2279 -0.9614
10660SOL     OW40947  10.823   4.395  11.984 -0.0041  0.5855 -0.3712
10660SOL    HW140948  10.780   4.437  11.909 -2.8264  0.3683  0.9961
10660SOL    HW240949  10.888   4.459  12.013 -0.9584  1.9905 -1.2045
10661SOL     OW40950   4.830   1.621  11.915  0.1231 -0.0171  0.2836
10661SOL    HW140951   4.849   1.598  11.824 -1.8925  2.5379 -0.9442
10661SOL    HW240952   4.734   1.622  11.920  0.1746 -0.2132  2.5161
10662SOL     OW40953   7.506  11.438   2.480 -0.0653  0.5599 -0.1736
10662SOL    HW140954   7.425  11.469   2.441  1.3206  1.4413 -2.6048
10662SOL    HW240955   7.486  11.349   2.510 -1.8801  0.7208 -0.8221
10663SOL     OW40956   4.164   9.766  12.061 -0.2187  0.8170 -0.5843
10663SOL    HW140957   4.252   9.789  12.092 -0.7908 -0.0233  1.8696
10663SOL    HW240958   4.111   9.760  12.141 -2.1780 -0.1217 -1.8765
10664SOL     OW40959   3.203  11.296   7.040  0.1429 -0.5435 -0.5731
10664SOL    HW140960   3.195  11.363   6.972  1.5769  1.8588  1.4374
10664SOL    HW240961   3.115  11.287   7.076  0.1392  1.2031 -0.0840
10665SOL     OW40962   6.950  11.824   4.079 -0.4401  0.1498 -0.3134
10665SOL    HW140963   6.899  11.743   4.071 -0.9681  0.5553 -1.1796
10665SOL    HW240964   6.911  11.870   4.153 -1.6194  0.6371 -1.2039
10666SOL     OW40965   2.349   2.935   2.686 -0.2471 -0.1227  0.5050
10666SOL    HW140966   2.343   2.840   2.687 -0.4380 -0.1224  1.7822
10666SOL    HW240967   2.263   2.965   2.658  0.2878 -0.3155 -1.4976
10667SOL     OW40968  11.558  10.140   9.053  0.1410  0.1921  0.5722
10667SOL    HW140969  11.643  10.148   9.011  0.3051 -0.1203  0.8434
10667SOL    HW240970  11.542  10.045   9.057 -2.0458  0.2288 -3.1682
10668SOL     OW40971   1.235   4.611   0.493  0.4267  0.2773 -0.3487
10668SOL    HW140972   1.160   4.668   0.506 -1.1005 -1.7331  0.1694
10668SOL    HW240973   1.309   4.670   0.482 -0.9147  2.3206  0.9778
10669SOL     OW40974   9.984   2.086   8.483  0.4590 -0.6151  0.0126
10669SOL    HW140975  10.023   2.031   8.415 -0.1700 -1.3168  0.1994
10669SOL    HW240976   9.987   2.174   8.447  3.0817 -0.4846  0.4240
10670SOL     OW40977  11.313   1.474   8.077 -0.4212 -0.1281  0.2210
10670SOL    HW140978  11.367   1.531   8.022 -0.2886 -1.1239 -0.7129
10670SOL    HW240979  11.367   1.457   8.154 -0.4233  0.9136  0.4644
10671SOL     OW40980   8.721   5.969   7.680  0.4083  0.6879  0.4052
10671SOL    HW140981   8.644   6.022   7.699  0.5086  0.8337  0.4040
10671SOL    HW240982   8.759   5.950   7.766 -0.7964 -1.1590  0.6071
10672SOL     OW40983   7.896  12.082   9.165 -0.8748 -0.3219 -0.1320
10672SOL    HW140984   7.803  12.092   9.181 -0.5531  0.9450  1.2168
10672SOL    HW240985   7.934  12.070   9.252  0.0448 -2.9985 -0.7940
10673SOL     OW40986   6.212   0.279   4.865  0.0172  0.3352 -0.1833
10673SOL    HW140987   6.269   0.318   4.798  3.6561 -0.0258  2.4309
10673SOL    HW240988   6.200   0.189   4.835 -0.8098  0.9031 -1.6903
10674SOL     OW40989   3.618   9.744  11.819 -0.1593  0.4270 -0.3058
10674SOL    HW140990   3.651   9.693  11.893 -3.5439 -0.6024  0.6884
10674SOL    HW240991   3.656   9.831  11.830 -0.4860  0.3013  2.6622
10675SOL     OW40992   3.053  10.905   6.098 -0.5301 -0.4458 -0.3234
10675SOL    HW140993   2.976  10.866   6.140 -1.1389 -0.0809 -1.0804
10675SOL    HW240994   3.023  10.990   6.067  1.1707  1.3903  2.6013
10676SOL     OW40995  12.391   6.871   6.333  0.2156 -0.9485  0.5627
10676SOL    HW140996  12.311   6.864   6.280  1.0310 -1.7428 -0.6229
10676SOL    HW240997  12.452   6.919   6.277  0.8503 -1.1483  1.0815
10677SOL     OW40998   2.298   1.262   1.385  0.1942 -0.1286 -0.6402
10677SOL    HW140999   2.329   1.349   1.412  1.8792 -1.0146  0.4884
10677SOL    HW241000   2.339   1.248   1.299 -0.5348  0.4085 -1.0798
10678SOL     OW41001  10.066  11.286  10.239  0.2317 -0.2887 -0.2476
10678SOL    HW141002  10.111  11.362  10.203 -0.0192 -0.6107 -1.2590
10678SOL    HW241003  10.083  11.216  10.176 -1.8785 -0.3650 -0.8055
10679SOL     OW41004   0.257   3.023   8.858  0.1764 -0.1238  0.0812
10679SOL    HW141005   0.252   3.118   8.854 -0.8514 -0.1879 -0.8095
10679SOL    HW241006   0.172   2.996   8.893  0.0283 -0.7462 -0.7118
10680SOL     OW41007   9.326   2.345   2.473  0.4511 -0.3860  0.0198
10680SOL    HW141008   9.393   2.293   2.518 -0.9124 -1.3611  1.0300
10680SOL    HW241009   9.264   2.280   2.440 -1.5557  0.5215  1.7059
10681SOL     OW41010   6.083   3.592   3.882  0.0166 -0.2261  0.1201
10681SOL    HW141011   6.154   3.645   3.847  0.6385 -0.9097  0.3311
10681SOL    HW241012   6.117   3.502   3.882 -1.2418 -0.7304 -0.8373
10682SOL     OW41013   1.785   0.917   6.354 -0.2151  0.5546 -0.2249
10682SOL    HW141014   1.769   0.972   6.430  1.6297  2.8988 -1.3749
10682SOL    HW241015   1.836   0.843   6.387  0.7719  1.6627  0.7900
10683SOL     OW41016   9.167   5.979  12.439 -0.0129 -0.2827  0.4231
10683SOL    HW141017   9.132   6.052  12.490  0.8173 -1.4109  2.7452
10683SOL    HW241018   9.259   6.002  12.425  0.0107 -0.4395  0.3244
10684SOL     OW41019   4.227   4.611  10.971  0.4079 -0.4838  0.2122
10684SOL    HW141020   4.248   4.531  10.923 -2.4200 -0.8690 -0.5280
10684SOL    HW241021   4.242   4.682  10.909 -1.6604 -0.8609 -0.7879
10685SOL     OW41022  11.140   8.006   2.388 -0.2591  0.1492  0.5082
10685SOL    HW141023  11.097   7.940   2.333 -0.3556  0.3227  0.3774
10685SOL    HW241024  11.069   8.063   2.416  0.1044  1.4388 -1.0652
10686SOL     OW41025   5.496   2.062   0.812  0.1517  0.4908 -0.1539
10686SOL    HW141026   5.492   2.146   0.858 -1.0454  0.2932  0.1217
10686SOL    HW241027   5.545   2.081   0.732 -1.1930  1.7771 -0.7247
10687SOL     OW41028   3.840  10.663   3.211  0.3052 -0.3657  0.1622
10687SOL    HW141029   3.883  10.696   3.290 -1.5732 -0.4623  1.2777
10687SOL    HW241030   3.857  10.569   3.210  1.5253 -0.1547 -0.3505
10688SOL     OW41031  10.280   8.467   9.242  0.0788 -0.7651 -0.7331
10688SOL    HW141032  10.184   8.466   9.233 -0.0101  0.2951 -0.0211
10688SOL    HW241033  10.312   8.476   9.152 -0.5480  0.7305 -0.8414
10689SOL     OW41034   1.479   8.416   7.784  0.2261 -0.0393  0.2865
10689SOL    HW141035   1.446   8.486   7.840  2.4176  0.5067  0.9698
10689SOL    HW241036   1.524   8.356   7.843 -0.4757 -1.3709 -0.4680
10690SOL     OW41037  10.312  12.290   3.869 -0.0826 -0.6324  0.3093
10690SOL    HW141038  10.272  12.354   3.928 -0.1574 -0.3646 -0.0280
10690SOL    HW241039  10.390  12.260   3.915  0.4463  0.3646  0.0940
10691SOL     OW41040   8.984   6.654   0.335  0.2278  0.8126 -0.0569
10691SOL    HW141041   9.037   6.612   0.403 -0.0436  0.4387 -0.0728
10691SOL    HW241042   8.915   6.699   0.383 -0.4277 -0.1045 -0.1123
10692SOL     OW41043   9.728   0.771   0.242 -0.2045  0.2151 -0.2617
10692SOL    HW141044   9.683   0.764   0.327 -0.8581  0.2240 -0.5997
10692SOL    HW241045   9.760   0.683   0.225 -0.0625  0.2139 -0.0040
10693SOL     OW41046   5.665   5.698   4.801 -0.3989  0.8870 -0.3079
10693SOL    HW141047   5.742   5.736   4.759 -0.0628  0.1877 -0.3338
10693SOL    HW241048   5.699   5.635   4.864 -0.9376  0.9616  0.0687
10694SOL     OW41049   2.835   4.352   5.474  0.0606  0.6228 -0.1157
10694SOL    HW141050   2.748   4.348   5.434 -0.3332  0.1720  0.7510
10694SOL    HW241051   2.895   4.322   5.405 -0.7947 -2.0916  0.1720
10695SOL     OW41052   1.331  11.006  10.883 -0.5184 -0.0705  0.9604
10695SOL    HW141053   1.294  10.963  10.806 -0.0401  2.9140 -1.0713
10695SOL    HW241054   1.387  11.075  10.848  1.3654  0.1382  3.9971
10696SOL     OW41055   5.825   4.242   3.107 -0.4916 -0.2437  0.0397
10696SOL    HW141056   5.788   4.310   3.051  0.0819 -0.5714 -0.7527
10696SOL    HW241057   5.759   4.172   3.106 -1.1871  0.3758  1.0414
10697SOL     OW41058   1.182   2.025  10.100  0.4645  0.5714 -0.0994
10697SOL    HW141059   1.234   1.954  10.063  2.2712  1.7234  0.1192
10697SOL    HW241060   1.206   2.102  10.048 -2.2004  0.9044 -1.0190
10698SOL     OW41061   6.267   3.651   3.247 -0.3399  0.2371  0.3341
10698SOL    HW141062   6.298   3.722   3.190  0.9057 -0.3655  0.2200
10698SOL    HW241063   6.332   3.647   3.317 -0.7156 -0.4272  0.6503
10699SOL     OW41064   6.161   7.622   5.705 -0.2738  0.4908  0.3005
10699SOL    HW141065   6.213   7.682   5.759  1.0170  0.1752 -0.5346
10699SOL    HW241066   6.080   7.670   5.688 -0.5776  0.7194  2.2130
10700SOL     OW41067   7.147   3.550  10.723  0.2533  0.3484 -0.0556
10700SOL    HW141068   7.172   3.458  10.720  0.5531  0.4354 -0.2899
10700SOL    HW241069   7.225   3.596  10.755  0.5617  0.6682 -1.2198
10701SOL     OW41070   1.916   0.788   5.684  0.0417 -0.0127 -0.3033
10701SOL    HW141071   1.900   0.707   5.635  1.4881 -0.8560  0.5291
10701SOL    HW241072   1.882   0.857   5.628  0.9065 -1.0052 -2.1636
10702SOL     OW41073   2.008  12.091   7.982  0.1286  0.5448 -0.0170
10702SOL    HW141074   2.019  12.154   7.911 -1.4922  3.0099  1.7314
10702SOL    HW241075   2.003  12.006   7.938  0.4825  1.7982 -2.7007
10703SOL     OW41076   4.279   7.323   1.817 -0.0407 -0.3643 -0.4868
10703SOL    HW141077   4.360   7.313   1.767  0.4652 -1.7663  0.5627
10703SOL    HW241078   4.275   7.245   1.873 -1.6006  0.1787  0.2171
10704SOL     OW41079   0.782   7.230   5.256  0.4885  0.0689 -0.3975
10704SOL    HW141080   0.831   7.259   5.333 -0.2297 -3.1309  1.4811
10704SOL    HW241081   0.848   7.192   5.198  0.7457 -0.2990  0.1222
10705SOL     OW41082   2.830   2.780   6.946 -0.3313  0.4335  0.3653
10705SOL    HW141083   2.894   2.849   6.927 -0.6039  0.3254 -1.0280
10705SOL    HW241084   2.837   2.720   6.872 -2.8765  1.0348 -0.4474
10706SOL     OW41085   7.421   1.796   2.840  0.0634  0.0606  0.3484
10706SOL    HW141086   7.430   1.709   2.802  0.7031  0.9707 -1.6748
10706SOL    HW241087   7.504   1.812   2.885  1.2943  0.8269 -2.0121
10707SOL     OW41088   5.237   5.884   4.385  0.0151  0.1446  0.0729
10707SOL    HW141089   5.219   5.797   4.421 -0.5477  0.3590  0.3327
10707SOL    HW241090   5.323   5.908   4.420  0.4251 -0.5345 -0.4532
10708SOL     OW41091   1.961   1.117  11.729 -0.9134 -0.5577  0.2352
10708SOL    HW141092   1.961   1.040  11.671  0.5737 -0.5748  0.2248
10708SOL    HW241093   1.953   1.081  11.817  1.4612 -0.9057  0.3721
10709SOL     OW41094  11.369   3.582  12.247 -0.5253  0.3411  0.0267
10709SOL    HW141095  11.320   3.633  12.311  1.6296  1.0491  1.2152
10709SOL    HW241096  11.398   3.505  12.296  0.2040  0.3331 -0.4044
10710SOL     OW41097   4.308   1.644   0.390 -0.0231 -0.3462  0.4632
10710SOL    HW141098   4.268   1.723   0.354 -0.1636 -0.3884  0.5240
10710SOL    HW241099   4.371   1.676   0.455  0.8897 -0.2312 -0.4479
10711SOL     OW41100  11.524   7.374   8.643 -0.4570  0.4977  0.5982
10711SOL    HW141101  11.522   7.392   8.549 -1.1185  1.2037  0.7357
10711SOL    HW241102  11.489   7.454   8.683  0.3092  0.4097  1.4757
10712SOL     OW41103   9.098   8.245  11.423  0.1445  0.1818 -0.2605
10712SOL    HW141104   9.105   8.241  11.328 -0.2073  2.3600 -0.4389
10712SOL    HW241105   9.173   8.299  11.450  1.8175 -2.5792  1.0156
10713SOL     OW41106  10.018   1.558   9.178 -0.2491 -0.3195 -0.0807
10713SOL    HW141107  10.076   1.623   9.137 -0.6570 -0.7479 -1.4100
10713SOL    HW241108  10.061   1.474   9.160  0.8372 -0.4209  2.5543
10714SOL     OW41109   9.594   4.138   2.690 -0.3454  0.1016  0.3665
10714SOL    HW141110   9.508   4.149   2.731 -1.0060 -0.3636 -0.8444
10714SOL    HW241111   9.590   4.193   2.611  0.9287  1.0456  0.9157
10715SOL     OW41112   5.997   9.260   1.365 -0.0178 -0.3282 -0.2511
10715SOL    HW141113   6.040   9.277   1.449 -0.8241 -1.7725  0.5094
10715SOL    HW241114   5.970   9.168   1.371  0.7956 -0.7561 -2.5257
10716SOL     OW41115  11.296   4.026   4.508  0.8056 -0.0331 -0.1592
10716SOL    HW141116  11.243   4.059   4.436 -0.5533  0.5683  1.0579
10716SOL    HW241117  11.296   3.931   4.498 -1.4015 -0.1419  0.3480
10717SOL     OW41118  12.461   5.842   9.790 -0.2394  0.5276 -0.2789
10717SOL    HW141119  12.396   5.895   9.835  0.7124  1.1383  0.4393
10717SOL    HW241120  12.531   5.831   9.854  0.5484  0.2616 -1.1588
10718SOL     OW41121   5.645   5.326   1.913 -0.4711  0.0965 -0.3900
10718SOL    HW141122   5.630   5.232   1.899 -0.9815 -0.0790  1.1373
10718SOL    HW241123   5.591   5.348   1.989  0.0471  1.5162 -0.3990
10719SOL     OW41124   6.872  10.965   4.431  0.2382  0.0438  0.7254
10719SOL    HW141125   6.872  10.983   4.337 -1.2279 -2.7198  0.0991
10719SOL    HW241126   6.941  10.900   4.443 -0.5062 -0.6443  1.3201
10720SOL     OW41127  11.900   6.775   2.882 -0.2482 -0.3988  0.2930
10720SOL    HW141128  11.879   6.818   2.965  1.3640 -0.4066  0.7347
10720SOL    HW241129  11.994   6.759   2.886  0.0014  0.2102 -1.8237
10721SOL     OW41130   9.364   2.131   2.197 -0.1478 -0.1142  0.3051
10721SOL    HW141131   9.355   2.041   2.166  0.2334 -0.1267  0.2252
10721SOL    HW241132   9.324   2.130   2.284 -0.2120 -0.3431  0.2744
10722SOL     OW41133   9.985   7.486  10.648 -0.1866  0.2936  0.0839
10722SOL    HW141134  10.072   7.460  10.678 -0.9702 -0.6808  1.6381
10722SOL    HW241135   9.951   7.541  10.718 -0.3171  1.8367 -1.1372
10723SOL     OW41136   5.088   1.424   9.356 -0.2709 -0.1688  0.1359
10723SOL    HW141137   5.182   1.434   9.369 -0.0888  0.2212 -1.2862
10723SOL    HW241138   5.074   1.329   9.354  0.0108 -0.2292  0.7857
10724SOL     OW41139   3.322  10.887   6.799 -0.2750 -0.1525  0.0167
10724SOL    HW141140   3.404  10.898   6.751 -1.6602 -1.2774 -2.8780
10724SOL    HW241141   3.322  10.957   6.864  2.3578  0.6745 -0.7596
10725SOL     OW41142  11.899   5.392   5.103 -0.3550 -0.7467 -0.3352
10725SOL    HW141143  11.914   5.371   5.195 -0.5746  0.4980 -0.0023
10725SOL    HW241144  11.987   5.393   5.064 -0.0723  0.4899  0.2717
10726SOL     OW41145   1.119   5.712   2.859  0.0134 -0.1393 -0.1813
10726SOL    HW141146   1.100   5.779   2.925  0.9528  0.1961 -0.2415
10726SOL    HW241147   1.200   5.670   2.889 -1.3321 -2.3034  0.6612
10727SOL     OW41148   1.363   0.413   7.894  0.1584 -0.5279  0.1390
10727SOL    HW141149   1.301   0.454   7.955 -0.0535  0.1514 -0.5213
10727SOL    HW241150   1.412   0.351   7.948 -0.2232 -0.1441  0.9416
10728SOL     OW41151  12.515  11.530  11.835 -0.2107 -0.4271  0.7499
10728SOL    HW141152  12.552  11.543  11.747 -0.4939 -3.6585  0.0187
10728SOL    HW241153  12.590  11.502  11.888 -0.2799  0.2369  1.1990
10729SOL     OW41154   2.011   6.815   2.480  0.1470 -0.6284 -0.5730
10729SOL    HW141155   2.030   6.891   2.536 -0.5615  0.7629 -2.1435
10729SOL    HW241156   2.008   6.741   2.541  1.2040  0.5263  0.9693
10730SOL     OW41157   3.047   5.258   5.862  0.0577 -0.2723  0.2303
10730SOL    HW141158   3.135   5.291   5.879 -0.4016  1.1022  0.0387
10730SOL    HW241159   3.061   5.170   5.825  1.2169 -1.5565  3.4232
10731SOL     OW41160   3.183   7.714   3.508 -0.3229  0.6970 -0.2016
10731SOL    HW141161   3.259   7.657   3.506 -1.8613 -1.5131 -3.0871
10731SOL    HW241162   3.109   7.655   3.517 -1.8291  2.6147  0.7031
10732SOL     OW41163   1.082   5.377   4.553 -0.4886  0.1411 -0.6713
10732SOL    HW141164   1.037   5.396   4.470 -0.5530  1.5800 -0.3403
10732SOL    HW241165   1.137   5.454   4.568 -0.2274 -0.2481  0.4568
10733SOL     OW41166  10.161   3.464   3.593 -0.3011  0.0838  0.3827
10733SOL    HW141167  10.213   3.384   3.599  1.1617  1.0174  0.9578
10733SOL    HW241168  10.126   3.477   3.682 -0.1183  0.3359  0.4198
10734SOL     OW41169  11.966   2.938   3.594  0.1140 -0.3082 -0.1032
10734SOL    HW141170  12.016   2.986   3.528 -0.0255  1.3084  0.9266
10734SOL    HW241171  12.002   2.967   3.678  0.4606 -2.4987  0.5854
10735SOL     OW41172   8.795   1.861   5.422 -0.5450  0.2203 -0.0182
10735SOL    HW141173   8.752   1.895   5.500  1.6469  0.6627  1.0748
10735SOL    HW241174   8.848   1.934   5.391 -1.6417  0.1744 -2.1865
10736SOL     OW41175   4.031  11.774   3.118 -0.3130 -0.1810  0.4498
10736SOL    HW141176   4.119  11.812   3.127  0.5806 -1.4824 -1.8373
10736SOL    HW241177   4.002  11.802   3.031 -1.9229 -0.3022  0.9159
10737SOL     OW41178  10.921   9.996   0.451 -0.2292 -0.0066 -0.2151
10737SOL    HW141179  10.865  10.070   0.432  0.3571  0.2362 -1.0963
10737SOL    HW241180  11.008  10.023   0.420  0.4110 -0.3286  1.2013
10738SOL     OW41181   1.583   6.199   5.651 -0.5462  0.2738 -0.6150
10738SOL    HW141182   1.672   6.193   5.615 -0.7635 -1.2761 -0.9914
10738SOL    HW241183   1.544   6.275   5.608  0.4100  0.6284 -0.8703
10739SOL     OW41184   8.823   5.679   1.070 -0.3858 -0.6232  0.1941
10739SOL    HW141185   8.834   5.772   1.086 -0.6132 -0.7162  0.9717
10739SOL    HW241186   8.911   5.647   1.051 -0.1211 -0.4276  1.0206
10740SOL     OW41187  12.334  11.076   2.640  0.5313 -0.4930 -0.3939
10740SOL    HW141188  12.313  11.037   2.724  0.8234 -1.5040 -0.7813
10740SOL    HW241189  12.395  11.147   2.661 -1.0408  0.6783  0.4436
10741SOL     OW41190   2.720   7.161   3.790 -0.2596  0.0281  0.6612
10741SOL    HW141191   2.666   7.083   3.778  1.5608 -1.1734  0.0115
10741SOL    HW241192   2.718   7.205   3.705  0.2114 -0.3018  0.4781
10742SOL     OW41193   8.407   8.247   2.106 -0.5986  0.5049  0.2551
10742SOL    HW141194   8.318   8.215   2.120 -0.9138  1.4965  0.5929
10742SOL    HW241195   8.395   8.330   2.059  0.2541 -0.5445 -1.9876
10743SOL     OW41196  10.347   4.507   1.520  0.1533 -0.1745  0.1141
10743SOL    HW141197  10.437   4.535   1.501 -0.0559  1.7518  1.5514
10743SOL    HW241198  10.299   4.524   1.439  0.8255  0.0622 -0.2446
10744SOL     OW41199   3.390  10.619   5.514 -0.4953 -0.2202 -0.2542
10744SOL    HW141200   3.343  10.537   5.529  0.8757 -0.7459  1.5053
10744SOL    HW241201   3.469  10.593   5.469  0.0505  0.0766  0.5069
10745SOL     OW41202   8.504   5.926   3.134 -0.0091  0.1123 -0.3375
10745SOL    HW141203   8.448   5.953   3.062  2.2069  1.7675 -1.5803
10745SOL    HW241204   8.592   5.926   3.097  0.9816 -1.2165  1.8043
10746SOL     OW41205   8.137   5.754   9.373  0.3650  0.5226  0.4308
10746SOL    HW141206   8.097   5.680   9.420 -0.8201 -0.3293 -1.7754
10746SOL    HW241207   8.085   5.763   9.294  2.0328  2.1439 -0.5613
10747SOL     OW41208   5.547   4.627   0.190 -0.2588 -0.0725 -0.1550
10747SOL    HW141209   5.574   4.621   0.098  0.5939  1.9866 -0.0915
10747SOL    HW241210   5.469   4.682   0.189  1.3339  2.3303  0.5346
10748SOL     OW41211   9.459   7.424  10.220  0.0295 -0.1314  0.7403
10748SOL    HW141212   9.409   7.374  10.284 -1.3040 -1.8155 -1.4778
10748SOL    HW241213   9.432   7.515  10.234  0.8134 -0.2220  3.3747
10749SOL     OW41214   3.163   6.235   8.567  0.2635  0.0327  0.3296
10749SOL    HW141215   3.132   6.206   8.481  0.4947  0.4406  0.1052
10749SOL    HW241216   3.216   6.162   8.599  0.2937 -0.0629  0.0645
10750SOL     OW41217   4.941   9.465   4.525 -0.5097  0.3616  0.3708
10750SOL    HW141218   4.925   9.380   4.566 -1.6181  0.5793  0.4186
10750SOL    HW241219   4.913   9.529   4.590 -3.4071  0.7029 -1.0699
10751SOL     OW41220   0.761  10.125   1.011 -0.1482 -0.2965 -0.0319
10751SOL    HW141221   0.803  10.203   1.048 -1.1621  0.4876 -0.4842
10751SOL    HW241222   0.815  10.103   0.935 -0.9176  1.1638 -1.0616
10752SOL     OW41223   7.804   9.579   9.039 -0.3407  0.2957  0.1891
10752SOL    HW141224   7.735   9.600   8.976 -0.4264  1.2343  0.5830
10752SOL    HW241225   7.778   9.494   9.075 -2.2359  1.3710  1.5647
10753SOL     OW41226   1.306   7.584   2.795 -0.2012  0.6720 -0.2717
10753SOL    HW141227   1.353   7.528   2.734 -0.4507 -0.5435  0.6015
10753SOL    HW241228   1.309   7.671   2.756  2.2467  0.5292 -0.5278
10754SOL     OW41229   6.167   6.985   3.824 -0.4797 -0.5637 -0.1301
10754SOL    HW141230   6.208   7.015   3.742  1.3102 -0.4777  0.7425
10754SOL    HW241231   6.075   6.970   3.801 -0.4391  1.2074 -1.7070
10755SOL     OW41232   1.708   5.229   7.320 -0.0724  0.3306 -0.0030
10755SOL    HW141233   1.692   5.320   7.295  4.0481  1.0392 -0.7899
10755SOL    HW241234   1.667   5.178   7.250 -0.3847  1.6903 -0.8668
10756SOL     OW41235   4.240   1.065   5.194 -0.4501  0.3219  0.0511
10756SOL    HW141236   4.229   1.160   5.200 -0.7583  0.3092 -0.2959
10756SOL    HW241237   4.153   1.029   5.209 -0.2197  0.0618  0.7852
10757SOL     OW41238   0.912  10.081   9.585 -0.5979  0.9368 -0.6255
10757SOL    HW141239   0.869  10.075   9.671  0.0081 -0.2596 -0.3840
10757SOL    HW241240   0.877  10.161   9.547 -2.5409  0.3790 -0.1610
10758SOL     OW41241   7.741  11.234   2.908 -0.0754 -0.3382 -0.5732
10758SOL    HW141242   7.733  11.157   2.851  0.6172  0.4671 -1.8152
10758SOL    HW241243   7.829  11.226   2.946 -0.8973 -1.3856  1.2086
10759SOL     OW41244   9.733  11.876   9.045  0.4037  0.3266 -0.0332
10759SOL    HW141245   9.751  11.913   8.958 -0.2186 -0.1226 -0.3655
10759SOL    HW241246   9.706  11.786   9.027  0.9809 -0.0019  0.6916
10760SOL     OW41247   3.453   2.345   4.771  0.3474 -0.7656  0.1653
10760SOL    HW141248   3.360   2.366   4.784 -0.0293 -0.1646 -2.6861
10760SOL    HW241249   3.500   2.418   4.811 -0.4400 -0.5487  0.7273
10761SOL     OW41250   6.504   5.945   8.121  0.4529  0.3733  0.1398
10761SOL    HW141251   6.471   5.951   8.210 -1.5070  0.7404 -0.5660
10761SOL    HW241252   6.429   5.919   8.069  1.7290 -0.5706 -1.3220
10762SOL     OW41253   8.612  11.622   5.740 -0.0239  0.0914  0.3299
10762SOL    HW141254   8.605  11.717   5.739 -0.6432  0.0442 -0.1010
10762SOL    HW241255   8.557  11.594   5.812  1.4256  0.1371  1.5110
10763SOL     OW41256   7.255   6.799   1.776 -0.8702  0.1536  0.5636
10763SOL    HW141257   7.337   6.813   1.823  0.3688  0.5386 -1.5657
10763SOL    HW241258   7.257   6.862   1.704 -2.1663 -1.0783 -0.6275
10764SOL     OW41259  10.793   1.602   3.160 -0.2016  0.0509 -0.0289
10764SOL    HW141260  10.700   1.601   3.182 -0.4682 -0.2141 -1.0785
10764SOL    HW241261  10.798   1.549   3.080  0.3828  2.5293 -1.7350
10765SOL     OW41262   1.493   2.497   4.390  0.4208  0.0043  0.8736
10765SOL    HW141263   1.534   2.469   4.308 -0.5062  0.1911  0.3317
10765SOL    HW241264   1.448   2.420   4.423 -1.1123  0.5004  0.0115
10766SOL     OW41265  11.726   5.579   4.073 -0.0530 -0.1593 -0.1000
10766SOL    HW141266  11.632   5.571   4.062 -0.3079  1.1161  0.9644
10766SOL    HW241267  11.737   5.635   4.149  1.5725  0.3831 -0.6911
10767SOL     OW41268  12.458   8.710  12.464 -0.0111 -0.2031 -0.2947
10767SOL    HW141269  12.492   8.664  12.541 -0.1363  1.0548  0.5547
10767SOL    HW241270  12.509   8.792  12.462 -1.6165  0.8404 -0.1460
10768SOL     OW41271   1.837   0.913   9.839  0.2838  0.1293  0.1112
10768SOL    HW141272   1.926   0.944   9.857  1.1560 -1.4790 -1.1483
10768SOL    HW241273   1.813   0.954   9.756 -0.1629  0.5478  0.4399
10769SOL     OW41274   1.671   8.294   9.304  0.0990  0.3184  0.6595
10769SOL    HW141275   1.684   8.371   9.248  0.6959 -0.8753 -0.9220
10769SOL    HW241276   1.595   8.250   9.267  1.7130 -1.5828 -0.5863
10770SOL     OW41277  10.301   0.947   7.308  1.3290  0.6158  0.0475
10770SOL    HW141278  10.333   0.857   7.303 -1.2261 -0.3353 -0.7556
10770SOL    HW241279  10.222   0.941   7.362  1.6186  2.5687  0.7620
10771SOL     OW41280   0.013  12.139   9.922  0.5886 -0.1676  0.3942
10771SOL    HW141281   0.103  12.166   9.935  0.5689 -0.1574  0.5018
10771SOL    HW241282  -0.031  12.216   9.888  1.3052 -0.9632 -2.6667
10772SOL     OW41283   4.135   8.777  12.129  0.2487  0.3665  0.7705
10772SOL    HW141284   4.116   8.708  12.066 -1.0084  1.3823 -0.0095
10772SOL    HW241285   4.212   8.745  12.176 -0.0833 -1.3969  0.2084
10773SOL     OW41286   5.566  10.816   5.119 -0.6622  0.3376 -0.0147
10773SOL    HW141287   5.655  10.794   5.093 -0.4641 -0.5771  1.3470
10773SOL    HW241288   5.565  10.912   5.120 -1.0709  0.6059 -4.4467
10774SOL     OW41289   9.917   3.127   2.291  0.2679  0.1603 -0.8593
10774SOL    HW141290   9.962   3.078   2.221 -0.9120 -0.8655 -0.9425
10774SOL    HW241291   9.864   3.191   2.244  1.2311  1.0279 -0.7836
10775SOL     OW41292   1.025   8.167  10.449 -0.3152 -0.3168 -0.0969
10775SOL    HW141293   1.060   8.239  10.502 -1.5097 -0.5304  1.0031
10775SOL    HW241294   0.957   8.128  10.502 -1.4246 -0.6821 -1.7159
10776SOL     OW41295   8.526   1.387   3.429  0.0074 -0.4746 -0.1485
10776SOL    HW141296   8.452   1.366   3.373 -0.7528  0.0219  0.6467
10776SOL    HW241297   8.599   1.335   3.394 -1.0249 -1.9756 -0.1474
10777SOL     OW41298   8.447   5.740   0.598  0.0505 -0.3832  0.7281
10777SOL    HW141299   8.467   5.690   0.676  0.0755  0.2848  1.1598
10777SOL    HW241300   8.396   5.815   0.629 -0.2905 -0.3208  0.0584
10778SOL     OW41301  12.540   8.933   7.889  0.3155  0.0638 -0.1950
10778SOL    HW141302  12.521   8.853   7.840 -0.5140  0.2368 -0.1838
10778SOL    HW241303  12.525   8.910   7.981  1.5665 -0.1754 -0.0419
10779SOL     OW41304   1.573   4.637   1.900  0.3569  0.6205 -0.3153
10779SOL    HW141305   1.661   4.674   1.895  0.3969  0.6955  0.7731
10779SOL    HW241306   1.586   4.543   1.886  0.9016  0.3160  1.8680
10780SOL     OW41307   2.219   0.931   0.790 -0.0931  0.3779  0.2328
10780SOL    HW141308   2.160   0.997   0.825 -0.4761 -0.4695  1.2263
10780SOL    HW241309   2.204   0.854   0.844  1.4969 -0.0397  0.1330
10781SOL     OW41310   0.830  11.496   8.535 -0.4539  0.0751 -0.0002
10781SOL    HW141311   0.795  11.411   8.509 -1.7032  0.3203  0.7588
10781SOL    HW241312   0.905  11.510   8.478  0.7953 -2.2730  0.9399
10782SOL     OW41313   6.235   1.934   4.271 -0.0856  0.0407 -0.4407
10782SOL    HW141314   6.170   2.002   4.255 -0.5932 -0.2953  0.1558
10782SOL    HW241315   6.304   1.950   4.205 -1.0952 -0.0256 -1.5451
10783SOL     OW41316  10.217   5.529  11.062 -0.1389 -0.4355  0.4259
10783SOL    HW141317  10.249   5.529  11.152 -2.1267 -1.7809  1.1885
10783SOL    HW241318  10.170   5.612  11.054  1.1734  0.3154  0.1447
10784SOL     OW41319  12.553   9.297  11.659 -0.4513 -0.2192 -0.1133
10784SOL    HW141320  12.612   9.311  11.733 -1.4197 -2.8307  1.3101
10784SOL    HW241321  12.551   9.202  11.648 -0.4663  0.0749 -3.4797
10785SOL     OW41322   0.273   8.395   7.772 -0.9891  0.3552 -0.9025
10785SOL    HW141323   0.333   8.452   7.820 -0.4284 -1.8221  1.1351
10785SOL    HW241324   0.198   8.384   7.830 -1.1794 -0.8102 -1.3388
10786SOL     OW41325  12.061   0.027  11.302  0.1438 -0.0449 -0.0508
10786SOL    HW141326  12.005   0.048  11.227  0.7034  0.3525 -0.3684
10786SOL    HW241327  12.011   0.054  11.378 -0.8153 -1.2776 -0.2163
10787SOL     OW41328  10.458   6.402   6.378  0.4157 -0.2881  0.0744
10787SOL    HW141329  10.384   6.400   6.317  0.6678  1.0415 -0.2938
10787SOL    HW241330  10.462   6.492   6.408  1.2774 -0.5747  0.8736
10788SOL     OW41331   1.745   2.614   0.018  0.1793  0.1503  0.7687
10788SOL    HW141332   1.691   2.536   0.006 -0.3758  0.8544 -2.6277
10788SOL    HW241333   1.825   2.596  -0.032 -0.2884  1.9478 -0.7522
10789SOL     OW41334   0.825   8.422   2.476 -0.3262 -0.4661  0.4229
10789SOL    HW141335   0.862   8.505   2.508 -0.4515 -0.0690 -0.4294
10789SOL    HW241336   0.747   8.449   2.428  0.3899 -0.9589 -1.0458
10790SOL     OW41337   9.239  11.421   0.281 -0.3088  0.4204  0.5532
10790SOL    HW141338   9.305  11.401   0.215 -0.2962  0.0539  0.6741
10790SOL    HW241339   9.163  11.367   0.256 -0.5291  0.7635  0.4700
10791SOL     OW41340   8.412   2.208   3.293  0.0955 -0.5066  0.1188
10791SOL    HW141341   8.451   2.295   3.291 -0.6507 -0.1813 -0.6790
10791SOL    HW241342   8.483   2.151   3.323  0.4195  0.4501  1.2447
10792SOL     OW41343  11.167   3.768   5.241 -0.6619  0.5321  0.1017
10792SOL    HW141344  11.262   3.757   5.238 -0.6776  0.3847  0.1404
10792SOL    HW241345  11.145   3.808   5.157 -0.8768 -1.8052 -1.0373
10793SOL     OW41346   4.452   2.664   0.002 -0.1248 -0.0259  0.5832
10793SOL    HW141347   4.362   2.667   0.035 -0.4703  0.4179 -0.3718
10793SOL    HW241348   4.447   2.703  -0.085  0.9036 -0.4787  0.3072
10794SOL     OW41349   2.445   4.028   3.443 -0.4480  0.2043 -0.4827
10794SOL    HW141350   2.355   4.043   3.415 -0.9966  0.3951  1.2283
10794SOL    HW241351   2.499   4.052   3.368 -1.7866  0.8747 -1.2601
10795SOL     OW41352  10.683   2.947   5.958 -0.2237 -0.6509 -0.1967
10795SOL    HW141353  10.595   2.956   5.922 -0.4056 -2.5708 -0.3250
10795SOL    HW241354  10.675   2.980   6.048 -0.6882  0.5675 -0.6577
10796SOL     OW41355   6.756   0.166   4.005 -0.2659  0.4427 -0.1570
10796SOL    HW141356   6.789   0.158   3.915 -0.6874 -0.9024 -0.2069
10796SOL    HW241357   6.671   0.123   4.004  0.1062 -0.3786  1.0907
10797SOL     OW41358   9.948   0.095   2.446  0.0501  0.5595  0.1059
10797SOL    HW141359   9.870   0.151   2.446  0.0420  0.5673  1.0869
10797SOL    HW241360   9.994   0.119   2.526  0.9803  0.4250 -0.3750
10798SOL     OW41361   6.320   4.739   9.797 -1.2151  0.1730  0.2066
10798SOL    HW141362   6.310   4.751   9.891  1.4058  2.3156  0.3411
10798SOL    HW241363   6.261   4.667   9.775 -1.7085 -0.5712  3.4978
10799SOL     OW41364   7.013   3.928   8.458 -0.1212  0.5460  0.1410
10799SOL    HW141365   7.102   3.893   8.461 -0.2457  0.2718  2.1916
10799SOL    HW241366   6.961   3.865   8.508 -1.1031  1.6424  0.5427
10800SOL     OW41367   7.570   0.967   7.347 -0.2079  0.2968  0.5874
10800SOL    HW141368   7.575   1.060   7.370 -0.0435  0.4122  0.0898
10800SOL    HW241369   7.564   0.922   7.432 -0.6850  0.7817  0.8156
10801SOL     OW41370   3.404  10.012  11.394 -0.1192  0.2818 -0.1525
10801SOL    HW141371   3.363  10.075  11.453 -0.5822 -0.7902  0.7169
10801SOL    HW241372   3.444  10.065  11.325 -0.1788  1.5323  0.7483
10802SOL     OW41373   3.960   2.989   9.293  0.0392  0.0894  0.0479
10802SOL    HW141374   3.873   2.989   9.335  0.1705 -1.9121  0.4080
10802SOL    HW241375   3.943   3.022   9.205 -1.3809 -1.6250 -0.3772
10803SOL     OW41376   5.550   5.939   2.625 -0.3396  0.9684 -0.5892
10803SOL    HW141377   5.497   6.010   2.588  0.2508  0.8457 -1.7368
10803SOL    HW241378   5.639   5.957   2.593  0.8391  2.3493  2.9585
10804SOL     OW41379  11.322   1.884   6.064  0.6013 -0.0984  0.1462
10804SOL    HW141380  11.417   1.892   6.073  0.6639  0.7022 -1.0093
10804SOL    HW241381  11.299   1.945   5.993 -0.5186 -1.8253 -1.0481
10805SOL     OW41382   0.380   7.461   4.131  0.0170 -0.7490  0.6615
10805SOL    HW141383   0.373   7.365   4.133 -2.1044 -0.6913  3.8860
10805SOL    HW241384   0.385   7.486   4.223 -1.2507  2.3148  0.0170
10806SOL     OW41385   1.600   1.587  11.724  0.0028  0.5444  0.0999
10806SOL    HW141386   1.642   1.668  11.695  0.1586  1.0204  1.5802
10806SOL    HW241387   1.508   1.610  11.732 -0.0896  0.3242 -0.3156
10807SOL     OW41388   7.764   8.674   3.095 -0.1693 -0.1705  0.1240
10807SOL    HW141389   7.711   8.747   3.128 -2.1270 -1.7009  0.5736
10807SOL    HW241390   7.848   8.683   3.140 -1.1632  0.4765  1.9761
10808SOL     OW41391   3.826   3.219   5.218  0.0972 -0.2640  0.0818
10808SOL    HW141392   3.753   3.157   5.217 -0.0907 -0.0621  0.6725
10808SOL    HW241393   3.827   3.253   5.308  0.3575  0.3929 -0.1614
10809SOL     OW41394  11.639   1.478   6.678  0.4474  0.1965  0.2342
10809SOL    HW141395  11.546   1.500   6.669  0.8516  2.7627  1.3545
10809SOL    HW241396  11.685   1.557   6.651  2.3168 -0.9019  0.0452
10810SOL     OW41397   3.502   2.272  11.830 -0.2123 -0.4518 -0.2488
10810SOL    HW141398   3.495   2.364  11.804 -1.4035 -0.4138  0.1724
10810SOL    HW241399   3.596   2.258  11.842  0.0040  0.6441 -0.5336
10811SOL     OW41400   3.978   1.232   3.296  0.3122  0.0271  0.0716
10811SOL    HW141401   4.073   1.236   3.305  0.4546  0.5686 -1.4634
10811SOL    HW241402   3.954   1.146   3.331  1.1801  0.4626  1.8144
10812SOL     OW41403   3.793   0.863   8.791 -0.3649 -0.1726  0.0951
10812SOL    HW141404   3.735   0.877   8.866 -0.4531 -0.6343  0.1131
10812SOL    HW241405   3.820   0.772   8.798  0.8334  0.1909  0.4215
10813SOL     OW41406  12.513   9.955   2.375 -0.1053 -0.3007 -0.0114
10813SOL    HW141407  12.510   9.864   2.404  0.5298 -0.1644  0.5152
10813SOL    HW241408  12.551   9.951   2.287 -0.2687 -0.5615 -0.0703
10814SOL     OW41409  10.344  11.823   7.964 -0.5442  0.4017  0.5945
10814SOL    HW141410  10.401  11.746   7.966 -0.4121  0.4979  0.5609
10814SOL    HW241411  10.368  11.872   8.042 -0.0635  0.8079  0.2012
10815SOL     OW41412   4.725   3.200  11.434 -0.7678 -0.2163  0.1888
10815SOL    HW141413   4.642   3.170  11.396 -0.6955  0.7941 -0.8035
10815SOL    HW241414   4.737   3.288  11.399  0.1658  0.0904  1.2263
10816SOL     OW41415   7.325   2.001  12.404 -0.3093 -0.2789  0.0517
10816SOL    HW141416   7.373   2.083  12.416 -0.3503 -0.3319  0.5983
10816SOL    HW241417   7.350   1.971  12.316 -0.4987  0.4506 -0.2508
10817SOL     OW41418   5.601  10.472   3.561 -0.5307 -0.0503  0.1250
10817SOL    HW141419   5.537  10.526   3.514  0.0102 -0.4692 -1.1374
10817SOL    HW241420   5.686  10.502   3.528 -0.1836 -0.9580  0.1653
10818SOL     OW41421   6.299   9.158  11.201 -0.3534 -0.2249  0.5535
10818SOL    HW141422   6.241   9.161  11.277  0.6773 -0.2937  1.3567
10818SOL    HW241423   6.387   9.164  11.237  0.1452  0.1010 -0.6625
10819SOL     OW41424  10.027   2.902  11.296  0.2566  0.3965 -0.3580
10819SOL    HW141425   9.942   2.944  11.297 -0.5245 -1.1192  0.1266
10819SOL    HW241426  10.090   2.973  11.308 -1.0789  1.2036  2.8560
10820SOL     OW41427   9.012   1.979   6.939  0.6274  0.3576  0.4629
10820SOL    HW141428   8.962   2.017   7.012  0.3133  0.1342  0.3662
10820SOL    HW241429   9.098   1.960   6.977  1.0564  1.8488  0.3279
10821SOL     OW41430   3.647   4.453   1.892 -0.6863 -0.4704 -0.4036
10821SOL    HW141431   3.606   4.393   1.830 -0.6765 -1.3691  0.4313
10821SOL    HW241432   3.633   4.412   1.977  0.7490 -0.1214  0.0370
10822SOL     OW41433  11.769   9.611   6.319  0.0249  0.8138 -0.5243
10822SOL    HW141434  11.830   9.540   6.340 -1.4998 -0.6733 -0.8968
10822SOL    HW241435  11.796   9.642   6.233 -0.3622 -0.5537 -1.1595
10823SOL     OW41436   4.011   7.742   6.259  0.3299  0.6355 -0.3206
10823SOL    HW141437   3.917   7.755   6.274  0.2863 -0.4197  0.4910
10823SOL    HW241438   4.025   7.649   6.278  1.8704  1.1766  1.4601
10824SOL     OW41439   3.420   9.112  10.869 -0.5591 -0.3678 -0.1813
10824SOL    HW141440   3.357   9.054  10.825 -0.0458 -0.5624 -0.6810
10824SOL    HW241441   3.391   9.114  10.960 -0.9698 -0.8911 -0.2932
10825SOL     OW41442   5.909   7.238   5.927  0.6655 -0.1567 -0.2105
10825SOL    HW141443   5.982   7.198   5.880  0.7032 -1.9643  1.2882
10825SOL    HW241444   5.873   7.301   5.865  3.2187  0.5164 -1.1562
10826SOL     OW41445   4.443   9.468   8.864  0.1957  0.0821  0.1407
10826SOL    HW141446   4.398   9.549   8.839 -0.4666 -0.3931 -0.2376
10826SOL    HW241447   4.521   9.498   8.911  0.4924  0.9664 -0.8749
10827SOL     OW41448  11.073   7.306  10.563  0.3183 -0.5980 -0.3428
10827SOL    HW141449  11.113   7.392  10.573 -1.1419 -0.0730  1.5761
10827SOL    HW241450  11.147   7.246  10.555  1.4019  0.6642 -0.1288
10828SOL     OW41451   0.204   0.351   1.126  0.3116 -0.0463  0.4050
10828SOL    HW141452   0.281   0.347   1.069 -0.3599 -0.6091 -0.4833
10828SOL    HW241453   0.218   0.280   1.189  1.0578  0.5790  0.9672
10829SOL     OW41454  11.541   8.844  11.732 -0.1010  0.3472 -0.0929
10829SOL    HW141455  11.600   8.912  11.700 -0.8174  1.8870  1.6636
10829SOL    HW241456  11.586   8.808  11.809 -0.0854 -0.6616 -0.5558
10830SOL     OW41457   9.391   7.139   7.876 -0.5177  0.3796 -0.4764
10830SOL    HW141458   9.460   7.083   7.913 -1.2543  0.0547  0.4425
10830SOL    HW241459   9.435   7.222   7.860  0.2387 -0.0057 -0.4727
10831SOL     OW41460   9.211   2.344   1.585 -0.2777  0.3092  0.3646
10831SOL    HW141461   9.165   2.424   1.610  0.9697  1.1933 -0.0414
10831SOL    HW241462   9.257   2.317   1.664 -0.5355  0.1007  0.4454
10832SOL     OW41463   9.396   2.303  10.920  0.3806  0.1025  0.2519
10832SOL    HW141464   9.460   2.330  10.855  1.1664  1.3127  1.4801
10832SOL    HW241465   9.437   2.323  11.004 -0.6522 -1.2925  1.1367
10833SOL     OW41466  10.972  10.279   9.949  0.3623  0.2854 -0.1131
10833SOL    HW141467  11.060  10.247   9.970 -0.0823  0.1268  1.6560
10833SOL    HW241468  10.941  10.319  10.030 -1.6340 -0.6699 -0.3368
10834SOL     OW41469   0.148   6.100   1.521  0.5506 -0.0385  0.3007
10834SOL    HW141470   0.149   6.008   1.494  0.4514  0.2858 -0.8899
10834SOL    HW241471   0.156   6.149   1.439  0.6325  1.0186  0.9178
10835SOL     OW41472   5.222   4.819   3.193  0.4708 -0.0357  0.0849
10835SOL    HW141473   5.138   4.789   3.226  0.0973  0.8490 -0.0421
10835SOL    HW241474   5.244   4.894   3.249  1.1605 -0.2415  0.1001
10836SOL     OW41475  11.469   2.536  10.632 -0.2404  0.4845 -0.6822
10836SOL    HW141476  11.526   2.613  10.631  0.3309  0.0926 -2.4516
10836SOL    HW241477  11.396   2.561  10.689  1.3861  1.2106  1.1947
10837SOL     OW41478  11.204   0.163   7.700 -0.0466  0.8365  0.1632
10837SOL    HW141479  11.153   0.184   7.779 -0.0495  0.8793  0.1501
10837SOL    HW241480  11.276   0.225   7.701  1.0166 -0.3524  1.1330
10838SOL     OW41481   2.095   5.298   5.057  0.6411  0.3608 -0.1681
10838SOL    HW141482   2.075   5.388   5.031 -0.4409 -0.2047 -1.3588
10838SOL    HW241483   2.140   5.260   4.982  0.2318 -0.3785 -0.0460
10839SOL     OW41484   6.798   8.692   3.240 -0.1598  0.0097 -0.2446
10839SOL    HW141485   6.756   8.634   3.304  0.4200  1.4433  1.5220
10839SOL    HW241486   6.867   8.639   3.201  0.6757 -0.3884  1.6722
10840SOL     OW41487   8.007   2.135   8.517 -0.2479  0.8754  0.6283
10840SOL    HW141488   8.051   2.051   8.506  1.6291  1.8071  0.7590
10840SOL    HW241489   7.914   2.114   8.505  0.1238 -1.2751  1.0662
10841SOL     OW41490   4.651   8.709   4.041 -0.2231 -0.2620 -0.4678
10841SOL    HW141491   4.638   8.626   4.086  3.1866 -0.8457 -0.3416
10841SOL    HW241492   4.677   8.771   4.110 -0.4101  0.2954 -0.8835
10842SOL     OW41493   0.213   8.137   0.552 -0.4760 -0.0710  0.2655
10842SOL    HW141494   0.184   8.164   0.464  0.4691 -1.2249 -0.4271
10842SOL    HW241495   0.253   8.051   0.539  1.1943  0.4672  1.5481
10843SOL     OW41496   8.087  11.287  11.445  0.6371  0.3734 -0.3283
10843SOL    HW141497   8.179  11.286  11.419  1.1836  3.1586  1.1426
10843SOL    HW241498   8.041  11.329  11.371  0.6729 -0.1430 -0.6509
10844SOL     OW41499   9.426   7.673   4.390 -0.0806  1.0210 -0.5309
10844SOL    HW141500   9.350   7.693   4.445 -0.0290  0.3969 -0.2290
10844SOL    HW241501   9.396   7.689   4.300 -0.1030  2.2644 -0.3251
10845SOL     OW41502   6.414   5.883  11.990  1.0793  0.2570 -0.3540
10845SOL    HW141503   6.378   5.827  11.921  1.0779 -0.1485 -0.0298
10845SOL    HW241504   6.492   5.836  12.019  0.1734 -0.4292  1.0620
10846SOL     OW41505   9.907   0.457   0.662 -0.6549  0.5470  0.3441
10846SOL    HW141506   9.989   0.477   0.618  1.5795 -4.5211  1.4862
10846SOL    HW241507   9.842   0.456   0.592  1.4908 -1.0497 -1.8175
10847SOL     OW41508   2.252  11.689   7.596 -0.0708  0.3998 -0.0556
10847SOL    HW141509   2.327  11.747   7.611  0.4692 -0.2038 -0.3771
10847SOL    HW241510   2.255  11.670   7.502  0.8386 -1.5928  0.3421
10848SOL     OW41511  10.196   8.064   8.456 -0.5916 -0.0747  0.0140
10848SOL    HW141512  10.246   7.982   8.457 -0.3793  0.0148 -1.3813
10848SOL    HW241513  10.252   8.128   8.499  0.9239  0.2390 -2.2904
10849SOL     OW41514   5.514  10.201  11.620  0.3582 -0.1415 -0.0958
10849SOL    HW141515   5.459  10.143  11.673 -1.0826  0.9202 -0.3542
10849SOL    HW241516   5.517  10.160  11.534  2.1007 -1.5003  0.5746
10850SOL     OW41517   7.764   2.835   9.613  0.0102  0.1968 -0.0646
10850SOL    HW141518   7.675   2.871   9.613  1.0140  2.9217 -0.2151
10850SOL    HW241519   7.778   2.806   9.703 -0.0118  2.7576  0.8638
10851SOL     OW41520  10.152   9.986  12.370  0.1695  0.0215 -0.2927
10851SOL    HW141521  10.184  10.023  12.452 -2.6948  1.8702  0.1650
10851SOL    HW241522  10.069  10.032  12.354 -0.6418 -2.0707 -2.9293
10852SOL     OW41523   4.839   6.560   0.979 -0.2369  0.8773  0.6854
10852SOL    HW141524   4.843   6.585   1.071 -0.4046  1.1491  0.6185
10852SOL    HW241525   4.926   6.578   0.945  0.7518 -1.8990  1.4762
10853SOL     OW41526   4.869   7.146   8.414  0.0685 -0.1389  0.1286
10853SOL    HW141527   4.919   7.079   8.460  1.3165 -0.3692 -1.4699
10853SOL    HW241528   4.778   7.115   8.418  0.4282 -1.1549  0.6938
10854SOL     OW41529   7.956   5.503  12.092 -1.1662  0.0426 -0.3183
10854SOL    HW141530   7.887   5.501  12.026 -1.8099  0.5501  0.3278
10854SOL    HW241531   7.988   5.594  12.090  0.7429 -0.5822 -1.8615
10855SOL     OW41532  12.234   6.527   6.459 -0.3725  0.3486 -0.1846
10855SOL    HW141533  12.185   6.480   6.527  0.0449  1.4697  0.9346
10855SOL    HW241534  12.261   6.459   6.398 -1.7376 -0.5419  0.1534
10856SOL     OW41535   4.701   1.200   7.798 -0.0524  0.0413  0.2036
10856SOL    HW141536   4.664   1.158   7.720 -1.1933 -0.9399  1.2499
10856SOL    HW241537   4.640   1.181   7.868 -0.3833  3.0495  0.8834
10857SOL     OW41538   8.264  10.132  10.870 -0.1061 -0.2728  0.3426
10857SOL    HW141539   8.235  10.204  10.924 -0.3396 -1.5545  2.0114
10857SOL    HW241540   8.198  10.064  10.883  0.4232 -1.0206 -0.6899
10858SOL     OW41541   6.410   4.928  11.857 -0.3344 -0.1652  0.4228
10858SOL    HW141542   6.365   4.846  11.878 -1.0086 -0.0862 -0.6215
10858SOL    HW241543   6.339   4.987  11.828  0.3795  0.1188 -0.8094
10859SOL     OW41544   2.991  10.973  11.281  0.1725 -0.2760 -0.2456
10859SOL    HW141545   2.904  10.946  11.251  0.6091 -0.9394 -0.9459
10859SOL    HW241546   2.982  11.067  11.296 -0.7996 -0.4195  0.1788
10860SOL     OW41547   1.997   7.318   5.087  0.3468 -0.0476 -0.7000
10860SOL    HW141548   2.041   7.378   5.028 -0.9957  0.1459 -1.5444
10860SOL    HW241549   2.007   7.357   5.174 -0.1541  1.1931 -1.1857
10861SOL     OW41550   1.800   2.709   4.937  0.7377 -0.4904 -0.3597
10861SOL    HW141551   1.834   2.714   4.848 -0.1825  0.9649 -0.6639
10861SOL    HW241552   1.772   2.798   4.957  0.1927 -0.9592  1.0945
10862SOL     OW41553   9.882   4.616   0.695  0.4051  0.2107 -0.0771
10862SOL    HW141554   9.883   4.521   0.708  0.0417  0.2596  0.3050
10862SOL    HW241555   9.943   4.650   0.761 -1.9320  0.5158  2.0509
10863SOL     OW41556   8.009   6.608   0.826  0.7697 -0.4927 -0.2665
10863SOL    HW141557   8.028   6.698   0.853 -1.0443  0.1149 -0.8467
10863SOL    HW241558   7.920   6.612   0.791 -0.0023 -2.8143  1.1729
10864SOL     OW41559   7.528  10.537  11.855 -0.4270  0.3785 -0.5406
10864SOL    HW141560   7.537  10.612  11.915 -0.7883 -0.0053  0.0094
10864SOL    HW241561   7.607  10.486  11.869 -2.3650 -2.1092  3.0432
10865SOL     OW41562  12.363   0.964   3.806 -0.5909 -0.2574 -0.2642
10865SOL    HW141563  12.330   0.925   3.886  1.4204 -0.0365  0.7344
10865SOL    HW241564  12.354   1.059   3.820  0.6578 -0.1856  0.1356
10866SOL     OW41565   7.145   1.687   2.346  1.0944  0.2802 -0.5094
10866SOL    HW141566   7.160   1.774   2.310 -3.3259  0.5175 -2.4424
10866SOL    HW241567   7.067   1.697   2.402  0.8742 -2.2776 -0.2327
10867SOL     OW41568   5.924   8.140   0.547  0.6644  0.0439 -0.5046
10867SOL    HW141569   5.888   8.051   0.548 -0.1644  0.2388  3.3235
10867SOL    HW241570   5.865   8.188   0.489  0.1828 -1.5640 -1.4170
10868SOL     OW41571   1.546   7.886   1.423 -0.0996  0.6685  0.1803
10868SOL    HW141572   1.461   7.848   1.402 -0.8089 -0.2448  3.8597
10868SOL    HW241573   1.533   7.981   1.415 -1.4923  0.5405  0.6963
10869SOL     OW41574  11.071   2.017   0.899 -0.0208  0.1404 -0.1636
10869SOL    HW141575  11.029   2.021   0.985 -0.0449  0.6825 -0.1925
10869SOL    HW241576  11.009   1.971   0.843 -0.1310  0.0403  0.0420
10870SOL     OW41577   3.047   0.034   2.239  0.2955  0.0722 -0.5833
10870SOL    HW141578   2.954   0.024   2.221  0.3221  0.0520 -0.7090
10870SOL    HW241579   3.054   0.119   2.282  0.1761 -0.0764 -0.2687
10871SOL     OW41580   9.548   8.000   5.784 -0.0309 -0.1816  0.1200
10871SOL    HW141581   9.638   8.022   5.762 -0.2723  0.5279 -0.1758
10871SOL    HW241582   9.499   8.012   5.703 -0.6595  0.9629  0.6468
10872SOL     OW41583   5.865   6.805   1.331  0.5306  0.0728 -0.1029
10872SOL    HW141584   5.779   6.766   1.346  0.7486 -0.2932  0.2068
10872SOL    HW241585   5.850   6.900   1.335  0.0847  0.0123 -0.3858
10873SOL     OW41586   7.996   4.317   5.866 -0.1594 -0.1542  0.0749
10873SOL    HW141587   8.084   4.285   5.847 -1.0924 -1.7476 -1.9834
10873SOL    HW241588   7.979   4.382   5.798 -1.7600 -2.3922 -1.8527
10874SOL     OW41589  10.332  11.800  11.027 -0.3063 -0.4803 -0.0819
10874SOL    HW141590  10.284  11.872  10.986 -1.4804 -1.2880 -0.1864
10874SOL    HW241591  10.417  11.800  10.983 -1.8651 -1.9824 -3.4387
10875SOL     OW41592   0.062   1.410   1.286  0.2315  0.7203  0.0058
10875SOL    HW141593   0.148   1.395   1.326 -0.0083 -0.1741  0.2169
10875SOL    HW241594   0.025   1.322   1.277  0.6083  0.7751 -2.9807
10876SOL     OW41595   5.196   1.673   2.449  0.3922  0.9625 -0.2281
10876SOL    HW141596   5.285   1.638   2.456 -0.4209 -1.0738  1.0672
10876SOL    HW241597   5.154   1.617   2.384 -0.9746 -0.7343  1.9635
10877SOL     OW41598   9.408   4.154   4.703  0.8644 -0.2950  0.5209
10877SOL    HW141599   9.418   4.239   4.745  2.0489 -1.1585  2.1178
10877SOL    HW241600   9.450   4.163   4.618  0.0517  0.9843  0.2358
10878SOL     OW41601   3.425   7.229   2.472  0.0562 -0.0364 -0.1446
10878SOL    HW141602   3.385   7.315   2.462  2.6507  1.2955 -0.0047
10878SOL    HW241603   3.436   7.219   2.567 -1.3978 -1.1669 -0.0535
10879SOL     OW41604   7.363   7.281   8.507  0.4925 -0.0324 -0.1704
10879SOL    HW141605   7.431   7.346   8.489  0.0211  0.1961 -1.2177
10879SOL    HW241606   7.299   7.328   8.561  0.4217  0.2211 -0.4687
10880SOL     OW41607   6.019  11.595   0.499 -0.2774  0.7775 -0.0331
10880SOL    HW141608   6.059  11.537   0.564 -0.2941  1.0594  0.2301
10880SOL    HW241609   5.948  11.543   0.462 -0.0408  0.4859 -0.0821
10881SOL     OW41610   0.520   6.842   7.875  0.2883 -0.3598 -0.1474
10881SOL    HW141611   0.459   6.814   7.807  0.9718 -2.4421  0.0444
10881SOL    HW241612   0.556   6.925   7.842  1.5058 -1.8751 -2.9559
10882SOL     OW41613  11.927   3.846   9.688  0.0791  0.0166 -0.0376
10882SOL    HW141614  11.908   3.884   9.602 -0.7548 -0.5957 -0.1351
10882SOL    HW241615  11.855   3.875   9.744 -0.2350 -0.8885  0.0418
10883SOL     OW41616   4.379   3.221   1.661 -0.1499 -0.1307 -0.4123
10883SOL    HW141617   4.307   3.167   1.693  1.7135 -2.3404  0.4246
10883SOL    HW241618   4.432   3.160   1.609  1.1420  1.3693 -0.9168
10884SOL     OW41619  11.581   0.884  11.267  0.2793  0.0667 -0.5150
10884SOL    HW141620  11.621   0.920  11.188  1.2219 -0.9546 -0.5194
10884SOL    HW241621  11.639   0.814  11.294  0.3385  0.8311  1.4854
10885SOL     OW41622   7.657  12.221   8.766 -0.6994 -0.0318 -0.1395
10885SOL    HW141623   7.600  12.236   8.691  0.7182 -0.4711 -1.3733
10885SOL    HW241624   7.698  12.306   8.783  0.5177 -0.3436 -1.2565
10886SOL     OW41625   0.297   5.980   3.187  0.4781 -0.2410 -0.0689
10886SOL    HW141626   0.231   6.042   3.220 -0.7600 -0.5201 -1.9054
10886SOL    HW241627   0.346   5.954   3.266 -1.1825  0.4589  1.2641
10887SOL     OW41628   3.151  10.368   1.434 -0.7319  0.0960  0.3184
10887SOL    HW141629   3.228  10.399   1.385 -2.0031 -0.0625 -1.9478
10887SOL    HW241630   3.173  10.279   1.460 -0.6876 -0.5412 -1.7226
10888SOL     OW41631   3.115   1.390   0.139 -0.2727 -0.3491  0.3093
10888SOL    HW141632   3.113   1.314   0.196 -1.8528  0.3592  1.2535
10888SOL    HW241633   3.207   1.398   0.114  0.0991 -1.9195  1.0451
10889SOL     OW41634   6.557   9.539   1.046  0.7572 -0.2442  0.1586
10889SOL    HW141635   6.498   9.610   1.072  0.6087  0.3799 -1.6707
10889SOL    HW241636   6.631   9.584   1.005  2.2901 -1.0477  1.9567
10890SOL     OW41637   3.260   5.657   9.635 -0.2053 -0.3182  0.3382
10890SOL    HW141638   3.188   5.607   9.596 -0.8867  1.0813 -0.2353
10890SOL    HW241639   3.261   5.739   9.587  1.9598 -0.3987  0.1594
10891SOL     OW41640   8.682   0.563   2.949  0.2446 -0.1170  0.5787
10891SOL    HW141641   8.765   0.548   2.904 -0.6826 -2.6140 -0.4395
10891SOL    HW241642   8.616   0.566   2.879 -0.9055 -1.4548  1.5415
10892SOL     OW41643   8.207   4.560   8.891 -0.5739  0.4191 -0.6519
10892SOL    HW141644   8.286   4.609   8.912  0.6972 -0.5002 -3.0086
10892SOL    HW241645   8.175   4.598   8.810 -0.8288 -1.1600 -1.3252
10893SOL     OW41646   8.001   7.064   2.423  0.1317 -0.3485  0.4015
10893SOL    HW141647   7.972   7.125   2.355  1.4177  1.2326  1.2063
10893SOL    HW241648   7.986   7.111   2.505  0.9253 -1.2180  1.0569
10894SOL     OW41649   5.808   1.812   3.464 -0.0313 -0.1213  0.3330
10894SOL    HW141650   5.799   1.754   3.540  2.2597  0.3431  1.0373
10894SOL    HW241651   5.763   1.765   3.394 -0.0523 -1.7706  1.3794
10895SOL     OW41652   4.937   6.771   2.607  0.0645 -0.0949 -0.2978
10895SOL    HW141653   4.976   6.819   2.534  0.9411 -1.1740 -0.5554
10895SOL    HW241654   4.915   6.685   2.571  0.0909 -0.4850  0.5903
10896SOL     OW41655   3.054  11.153   8.901  0.0374 -0.4046  0.1801
10896SOL    HW141656   2.997  11.086   8.863  0.4894 -0.3044 -0.7002
10896SOL    HW241657   3.052  11.225   8.838  0.7360 -0.1952  0.3834
10897SOL     OW41658   0.867   7.896  11.071  0.3896  0.1774  0.4354
10897SOL    HW141659   0.793   7.876  11.127  0.1573  0.2645  0.1637
10897SOL    HW241660   0.916   7.964  11.118  0.5555 -0.2104  0.8283
10898SOL     OW41661   8.434   4.097   1.910 -0.4757  0.1758 -0.0737
10898SOL    HW141662   8.428   4.191   1.894 -1.7386  0.2107  0.4769
10898SOL    HW241663   8.523   4.084   1.943  0.1280  0.9728 -1.2940
10899SOL     OW41664   7.896   3.715  11.033 -0.2964 -0.5544  0.3040
10899SOL    HW141665   7.869   3.709  11.124  0.7224 -2.1099  0.5479
10899SOL    HW241666   7.840   3.652  10.987 -1.2126  0.6467 -0.2738
10900SOL     OW41667  10.098   1.193  12.408 -0.3268 -0.0684  0.4632
10900SOL    HW141668  10.110   1.282  12.376  0.7797  0.9495  3.3302
10900SOL    HW241669  10.147   1.138  12.348 -2.1637  0.9952 -2.1853
10901SOL     OW41670   6.035  12.207  12.008 -0.1987 -0.6235 -0.2522
10901SOL    HW141671   6.091  12.280  11.982 -0.3039 -1.0275 -1.6541
10901SOL    HW241672   6.065  12.133  11.955 -2.2055 -0.7923 -1.2515
10902SOL     OW41673   4.487  11.850   6.262  0.3154  0.3747  0.3968
10902SOL    HW141674   4.528  11.771   6.298 -0.4975  0.6387  1.9714
10902SOL    HW241675   4.559  11.896   6.219  0.9295 -0.9010  0.0172
10903SOL     OW41676  12.273   9.047   3.202 -0.0244 -0.1311 -0.2403
10903SOL    HW141677  12.364   9.042   3.232  0.9556  1.3092 -2.6601
10903SOL    HW241678  12.273   9.002   3.117 -0.8693  2.2581 -1.5966
10904SOL     OW41679   4.704   4.764   3.894  0.1362 -0.0169  0.0346
10904SOL    HW141680   4.683   4.703   3.823 -2.8891  0.0009  0.7678
10904SOL    HW241681   4.665   4.724   3.972 -0.6699  2.1052  0.7938
10905SOL     OW41682   9.205   9.660   0.575  0.6040 -0.2058 -0.1517
10905SOL    HW141683   9.123   9.686   0.616  0.8899 -0.3147  0.5068
10905SOL    HW241684   9.181   9.633   0.487  0.0412  0.4795 -0.2099
10906SOL     OW41685   5.218   5.634   5.736 -0.6344 -0.2539 -0.0991
10906SOL    HW141686   5.305   5.650   5.772  1.0405 -0.1978 -3.7139
10906SOL    HW241687   5.167   5.710   5.763  0.7325  0.2693  1.1737
10907SOL     OW41688   7.042   9.797   6.191 -0.0100  0.0121  0.0261
10907SOL    HW141689   6.993   9.715   6.196  0.1129 -0.0165  0.9295
10907SOL    HW241690   7.132   9.769   6.172 -0.2095  0.0256 -0.9802
10908SOL     OW41691   7.702   7.644  11.737  0.0073 -0.0369 -0.0783
10908SOL    HW141692   7.679   7.624  11.646 -0.0669  1.0027 -0.3108
10908SOL    HW241693   7.791   7.680  11.731 -0.2197  0.5720  0.1783
10909SOL     OW41694   1.276   7.624   1.099  0.3988  0.0780  0.1655
10909SOL    HW141695   1.318   7.680   1.165 -0.5718  0.7114  0.2540
10909SOL    HW241696   1.314   7.653   1.016  1.4759 -0.5865  0.3958
10910SOL     OW41697   3.831   7.284   7.745 -0.5476 -0.1214 -0.3713
10910SOL    HW141698   3.796   7.372   7.737 -0.0851  0.1693  0.5576
10910SOL    HW241699   3.900   7.292   7.811  0.5552 -0.8775 -1.3905
10911SOL     OW41700   9.359   1.686   0.475 -0.1849 -0.4268 -0.1371
10911SOL    HW141701   9.413   1.670   0.397  0.3840 -0.5649  0.2753
10911SOL    HW241702   9.318   1.771   0.458  0.4134 -0.1679 -0.3227
10912SOL     OW41703   1.467  10.356   8.729  0.3963  0.1065  0.0034
10912SOL    HW141704   1.482  10.383   8.820  0.3580 -1.4576  0.4970
10912SOL    HW241705   1.451  10.262   8.734  1.1060 -0.1402 -1.7118
10913SOL     OW41706   6.516   5.689  11.462  0.6589  0.2244  0.2384
10913SOL    HW141707   6.453   5.618  11.446  0.6131  0.2527  0.2911
10913SOL    HW241708   6.541   5.719  11.375  0.0879  0.6643  0.2215
10914SOL     OW41709   2.952   0.286   5.396 -0.0353  0.6679  0.3896
10914SOL    HW141710   2.880   0.327   5.445  0.3088  0.9759  0.6399
10914SOL    HW241711   3.027   0.291   5.456  0.4790  1.3544 -0.3026
10915SOL     OW41712  10.211   6.797   4.838 -0.0244 -0.6769 -0.7547
10915SOL    HW141713  10.129   6.823   4.797  0.0978  2.2475  0.5933
10915SOL    HW241714  10.194   6.711   4.875 -1.7120 -1.1226 -2.4260
10916SOL     OW41715   4.994   6.255   9.888  0.8992  0.3356  0.6687
10916SOL    HW141716   5.006   6.341   9.848 -0.6773  0.1520 -0.2806
10916SOL    HW241717   5.021   6.266   9.979 -0.0961  2.0618  0.7833
10917SOL     OW41718   5.687   8.914   5.486  0.0657  0.1112  0.3954
10917SOL    HW141719   5.606   8.888   5.443 -0.3602  2.3129 -0.3032
10917SOL    HW241720   5.694   8.857   5.562 -1.9304 -0.4081  0.2409
10918SOL     OW41721   0.527   6.130  12.342  0.5402  0.0883 -0.1150
10918SOL    HW141722   0.600   6.187  12.368  1.7756 -1.7550  0.6149
10918SOL    HW241723   0.532   6.127  12.246  1.0631  0.4278 -0.1015
10919SOL     OW41724   8.436   2.101   2.353 -0.3306  0.2137 -0.2124
10919SOL    HW141725   8.434   2.032   2.287 -0.9370 -0.1264  0.1504
10919SOL    HW241726   8.350   2.097   2.394  0.5849 -0.6753  1.7304
10920SOL     OW41727   8.221   0.836   7.173 -0.4863  0.1171 -0.2620
10920SOL    HW141728   8.226   0.929   7.149  2.5111  1.1411  3.3622
10920SOL    HW241729   8.277   0.828   7.250 -1.4128 -4.5825  0.2283
10921SOL     OW41730   7.537   3.716   7.652  0.0633  0.4338 -0.0587
10921SOL    HW141731   7.453   3.724   7.607 -0.5269 -2.2712  0.4264
10921SOL    HW241732   7.570   3.630   7.627  2.2645  1.0265  0.5450
10922SOL     OW41733   9.029   8.492   9.660  0.2252 -0.2145 -0.4309
10922SOL    HW141734   8.988   8.418   9.705  0.6076 -0.4436 -0.4488
10922SOL    HW241735   8.973   8.508   9.584 -0.4449  0.1976  0.1427
10923SOL     OW41736   7.544   0.196   8.538 -0.2743  0.1094  0.0028
10923SOL    HW141737   7.502   0.117   8.571  0.7426  0.0719  1.3117
10923SOL    HW241738   7.608   0.219   8.606  1.0810  0.7392 -1.4198
10924SOL     OW41739  11.451   8.089  10.949 -0.1872  0.7274  0.4587
10924SOL    HW141740  11.512   8.047  11.010 -1.7875 -1.2402  0.8006
10924SOL    HW241741  11.438   8.023  10.880 -0.1619  2.0342 -0.8398
10925SOL     OW41742   9.666   0.032   8.339 -0.4932  0.2153 -0.3251
10925SOL    HW141743   9.751  -0.010   8.343 -0.2501  0.7304 -0.0165
10925SOL    HW241744   9.632   0.027   8.428 -1.0499 -0.5242 -0.5741
10926SOL     OW41745   9.548  12.322   9.626  0.1180  0.4809  0.3784
10926SOL    HW141746   9.515  12.233   9.642 -1.9302  1.0720 -0.1696
10926SOL    HW241747   9.633  12.325   9.670 -1.1143 -0.8124  3.0755
10927SOL     OW41748   5.976   3.457   1.650 -0.7232 -0.5386 -0.2710
10927SOL    HW141749   6.047   3.393   1.654  0.0983  0.2816 -1.1806
10927SOL    HW241750   5.964   3.485   1.741  1.1326  0.3808 -0.2702
10928SOL     OW41751   5.538   0.872   1.156 -0.5292 -0.0612 -0.5429
10928SOL    HW141752   5.462   0.852   1.210  0.0412  0.8743  0.6614
10928SOL    HW241753   5.550   0.967   1.166  0.2207 -0.0407 -1.4835
10929SOL     OW41754   8.081   3.802  11.911  0.7212 -0.7771 -0.0823
10929SOL    HW141755   8.146   3.870  11.897  0.4143 -0.0626  1.7199
10929SOL    HW241756   8.048   3.818  12.000 -1.2659 -1.6631 -0.6168
10930SOL     OW41757  10.042  12.426  11.339  0.0882  0.2414  0.0531
10930SOL    HW141758  10.079  12.486  11.403 -1.7369 -1.6859  3.1608
10930SOL    HW241759   9.960  12.468  11.311 -0.2813  0.0433  0.8238
10931SOL     OW41760   5.843   5.347   4.102 -0.1806  0.4858 -0.1223
10931SOL    HW141761   5.756   5.377   4.078 -0.5974 -0.1316  0.5564
10931SOL    HW241762   5.836   5.327   4.195  0.8558  1.0061  0.0748
10932SOL     OW41763   1.577  12.022   5.570 -0.0249 -0.0399 -0.0251
10932SOL    HW141764   1.574  11.972   5.489  0.5379  0.5100 -0.3930
10932SOL    HW241765   1.591  12.113   5.542 -2.5674  0.6094  0.5285
10933SOL     OW41766   1.095   5.766   4.170  0.0774  0.0875 -0.1038
10933SOL    HW141767   1.113   5.803   4.256 -0.4649  0.6039 -0.2077
10933SOL    HW241768   1.084   5.842   4.113  2.0548 -0.2288 -0.9946
10934SOL     OW41769   3.596   2.117   7.685  0.4168 -0.6006  0.2566
10934SOL    HW141770   3.616   2.189   7.746  0.0735  0.4661 -0.8382
10934SOL    HW241771   3.555   2.161   7.611 -0.4734 -2.0454 -0.1248
10935SOL     OW41772   6.933   4.137   9.158 -0.0799 -0.1303 -0.4048
10935SOL    HW141773   6.939   4.115   9.065  0.4714  0.2872 -0.4762
10935SOL    HW241774   6.873   4.212   9.162 -0.6440 -0.5770 -0.3437
10936SOL     OW41775  10.018   0.200   6.840 -0.0073  0.3137  0.1501
10936SOL    HW141776   9.967   0.160   6.910 -0.6760  0.6826 -0.1184
10936SOL    HW241777  10.092   0.241   6.885 -0.3120  0.3603  0.6131
10937SOL     OW41778   6.915   4.755   3.203  0.6800 -0.0494  0.6088
10937SOL    HW141779   6.979   4.729   3.269 -0.1006  0.5549  1.6337
10937SOL    HW241780   6.964   4.813   3.145  1.6887 -1.5148 -0.0793
10938SOL     OW41781   5.616  11.971   0.772  0.2486 -0.2897  0.1247
10938SOL    HW141782   5.563  11.974   0.852  0.3692 -1.0727  0.2377
10938SOL    HW241783   5.607  11.881   0.740  0.1320  0.0403 -0.7940
10939SOL     OW41784   8.237   4.792   6.723  0.0517 -0.0114  0.3004
10939SOL    HW141785   8.169   4.844   6.764 -0.7336 -0.2470 -0.6751
10939SOL    HW241786   8.301   4.856   6.691 -0.7470  0.3534 -0.6118
10940SOL     OW41787   7.956   8.003  12.328 -0.1717 -0.1272  0.2895
10940SOL    HW141788   7.971   8.032  12.418  1.4471  1.3399 -0.3898
10940SOL    HW241789   8.023   7.937  12.312 -0.9206 -0.9231  0.3641
10941SOL     OW41790   9.029   5.842  10.324 -0.6411 -0.5317 -0.4707
10941SOL    HW141791   9.037   5.755  10.363 -2.2882 -1.4121 -1.9240
10941SOL    HW241792   8.950   5.878  10.364  0.2118  0.4645  0.3611
10942SOL     OW41793   1.819   6.355   5.945  0.0176 -0.4172  0.3771
10942SOL    HW141794   1.897   6.404   5.922 -0.4607  0.4641  0.5747
10942SOL    HW241795   1.851   6.274   5.985  0.8719  0.8804  2.5160
10943SOL     OW41796   5.518  12.064   4.816 -0.4679 -0.1079  0.2138
10943SOL    HW141797   5.443  12.121   4.798 -0.2498  0.1396  0.0881
10943SOL    HW241798   5.580  12.083   4.746 -0.2561 -0.2592  0.3610
10944SOL     OW41799   4.781   0.125   3.922  0.6347 -0.3303 -0.3279
10944SOL    HW141800   4.765   0.059   3.854  1.8935 -0.7433 -0.2417
10944SOL    HW241801   4.787   0.075   4.003 -0.6168  0.1408  0.0797
10945SOL     OW41802   3.698   2.020   9.091 -0.9873  0.5516  0.1654
10945SOL    HW141803   3.715   2.082   9.020  0.0254 -0.6859 -0.7150
10945SOL    HW241804   3.770   2.034   9.152 -0.1654 -0.4371 -0.5444
10946SOL     OW41805   9.981   7.718   0.168 -0.5722 -0.0712 -0.1851
10946SOL    HW141806   9.975   7.793   0.109  0.8159 -0.2047 -0.5437
10946SOL    HW241807   9.892   7.705   0.200 -1.2398  0.3930 -1.7781
10947SOL     OW41808   5.642   0.336   8.067  0.2607  0.1196 -0.1965
10947SOL    HW141809   5.722   0.316   8.115  0.0089  1.4870  0.8810
10947SOL    HW241810   5.670   0.344   7.976  1.1621 -0.4129  0.0249
10948SOL     OW41811  11.090   5.038   2.949 -0.0376 -0.5717 -0.4258
10948SOL    HW141812  11.080   5.027   3.044 -0.1555 -1.7648 -0.5611
10948SOL    HW241813  11.185   5.033   2.935 -0.1266 -3.0919 -0.6243
10949SOL     OW41814   8.489   2.716   0.618  0.1646  0.5678 -0.0444
10949SOL    HW141815   8.539   2.719   0.699 -0.1993 -1.3499  0.3011
10949SOL    HW241816   8.525   2.642   0.570 -2.2182 -0.8807  0.2035
10950SOL     OW41817   9.186  11.326   4.397  0.6492  0.3955  0.2532
10950SOL    HW141818   9.105  11.377   4.398 -0.8119 -1.7995  0.9359
10950SOL    HW241819   9.210  11.322   4.305 -2.6161 -2.5936 -0.6985
10951SOL     OW41820   7.287   5.643   5.333  0.2455 -0.0799 -0.1100
10951SOL    HW141821   7.218   5.707   5.349  0.2771 -0.2806  0.9113
10951SOL    HW241822   7.367   5.687   5.360  0.6323  0.3743 -1.8600
10952SOL     OW41823   7.841   2.659   5.548 -0.1255  0.2590 -0.2991
10952SOL    HW141824   7.934   2.640   5.541  0.0453  0.4407  1.2593
10952SOL    HW241825   7.798   2.577   5.523  0.5030 -0.4907  0.9833
10953SOL     OW41826   7.816   0.561   2.251 -0.7152 -0.2921 -0.2637
10953SOL    HW141827   7.722   0.566   2.234 -0.4621  1.7476 -1.3939
10953SOL    HW241828   7.835   0.635   2.308  0.0734 -1.3376  0.8942
10954SOL     OW41829   5.526   1.481  10.963  0.1583  0.1195 -0.0535
10954SOL    HW141830   5.610   1.513  10.998  0.0953  0.5354 -0.2702
10954SOL    HW241831   5.501   1.548  10.899 -1.0395  0.7493  1.0330
10955SOL     OW41832   2.465   5.133   5.037  0.4425 -0.1636 -0.2478
10955SOL    HW141833   2.556   5.106   5.025  1.1279  1.7518  0.2570
10955SOL    HW241834   2.471   5.220   5.077 -1.6219 -0.4568  0.8524
10956SOL     OW41835   3.606   9.908  12.280  0.7756 -0.0307 -0.0053
10956SOL    HW141836   3.546   9.876  12.349  0.0736  0.0410 -0.5676
10956SOL    HW241837   3.563   9.883  12.198  0.6025  1.6510 -0.4549
10957SOL     OW41838   2.181   5.992   8.446  0.1928  0.5292 -0.1130
10957SOL    HW141839   2.097   5.951   8.467  0.2933 -0.3653 -1.3921
10957SOL    HW241840   2.245   5.941   8.495  0.0942  0.6053  0.0974
10958SOL     OW41841  11.818   8.843   7.817  0.4755 -0.0446  0.0507
10958SOL    HW141842  11.822   8.751   7.793 -0.2004  0.2095 -1.1176
10958SOL    HW241843  11.732   8.854   7.857 -0.4139  0.5104 -1.8907
10959SOL     OW41844   9.089   2.561   7.762 -0.3739 -0.1243 -0.3257
10959SOL    HW141845   9.038   2.592   7.688 -0.1864 -0.6054 -0.6604
10959SOL    HW241846   9.025   2.518   7.819 -0.6192  0.7680  0.0954
10960SOL     OW41847   2.788   9.870   8.338  0.1170 -0.1383 -0.1215
10960SOL    HW141848   2.720   9.890   8.273 -0.5828  0.3503  0.7388
10960SOL    HW241849   2.775   9.778   8.359  0.2295 -0.2516 -0.5324
10961SOL     OW41850   5.689   3.870  10.136  0.2562  0.0319  0.6757
10961SOL    HW141851   5.606   3.909  10.108  0.0739 -1.3851 -0.9947
10961SOL    HW241852   5.675   3.776  10.127  1.7855 -0.2674  1.1381
10962SOL     OW41853  10.109   7.227   0.316  0.5648  0.6149 -0.1498
10962SOL    HW141854  10.183   7.262   0.365  0.1514  1.1998  0.0740
10962SOL    HW241855  10.096   7.289   0.244  1.5697 -0.5683 -1.4223
10963SOL     OW41856  10.499   1.929   6.083  0.2626 -0.1720  0.2427
10963SOL    HW141857  10.476   1.996   6.147 -0.8478 -0.6020  0.3046
10963SOL    HW241858  10.550   1.977   6.016 -1.2273  0.9352 -0.1640
10964SOL     OW41859   9.843  11.122   9.567 -0.4062  0.2830 -0.1016
10964SOL    HW141860   9.847  11.026   9.571 -0.2137  0.2360 -1.2028
10964SOL    HW241861   9.856  11.143   9.475 -0.4904  1.3764  0.1214
10965SOL     OW41862  11.502   8.884   7.011  0.2192  0.4469 -0.0300
10965SOL    HW141863  11.579   8.935   6.986 -0.3742  2.5609  2.0649
10965SOL    HW241864  11.430   8.924   6.962  0.0465  0.2989  0.0968
10966SOL     OW41865  12.220   3.608   3.664  0.3056 -0.1544  0.3887
10966SOL    HW141866  12.157   3.677   3.641  0.1601 -0.3602  0.1648
10966SOL    HW241867  12.169   3.527   3.659  0.7896 -0.4166 -0.6728
10967SOL     OW41868   0.045   5.441   6.622 -0.1061  0.2473  0.4152
10967SOL    HW141869  -0.043   5.466   6.650  0.3716  1.1335  1.1934
10967SOL    HW241870   0.076   5.382   6.691 -0.5071 -0.9948 -0.4424
10968SOL     OW41871   4.485   5.924   3.494 -0.2732 -0.0998 -0.6930
10968SOL    HW141872   4.400   5.965   3.511 -0.7136 -1.1991 -0.1902
10968SOL    HW241873   4.484   5.906   3.400 -0.5985 -0.1064 -0.6893
10969SOL     OW41874   7.807   1.709   4.236  0.4323  0.0987 -0.1911
10969SOL    HW141875   7.901   1.718   4.220  0.3168 -0.4867 -1.3201
10969SOL    HW241876   7.788   1.617   4.216 -0.2472 -0.0004  0.8352
10970SOL     OW41877  10.013  11.751   6.609  0.1027 -0.0103 -0.0320
10970SOL    HW141878   9.985  11.832   6.651  0.5532  0.3334 -0.3820
10970SOL    HW241879  10.105  11.766   6.586  0.0072 -0.3727 -0.6806
10971SOL     OW41880   9.085   0.886   5.445 -0.4970  0.0603 -0.2701
10971SOL    HW141881   9.118   0.938   5.371 -1.3276 -0.8304 -1.2863
10971SOL    HW241882   9.160   0.881   5.506  0.5814 -0.1567 -1.5735
10972SOL     OW41883   1.667   8.846   1.343  0.1165  0.2436  0.1829
10972SOL    HW141884   1.626   8.876   1.262 -1.2067 -0.8578  0.4166
10972SOL    HW241885   1.668   8.923   1.400 -0.0497  0.7199 -0.4498
10973SOL     OW41886  11.546   3.842   1.506  0.1252 -0.1725  0.1972
10973SOL    HW141887  11.595   3.841   1.424  0.9453  1.4249  0.6065
10973SOL    HW241888  11.598   3.898   1.563 -0.7268 -0.7822  1.6243
10974SOL     OW41889   7.954   6.831   9.908  0.1529  0.3480  0.1465
10974SOL    HW141890   7.895   6.876   9.848  0.4747 -0.2217 -0.6179
10974SOL    HW241891   8.029   6.890   9.917 -0.3152  0.8607  0.7503
10975SOL     OW41892   0.963  11.609  10.833  0.7399  0.7479 -0.1143
10975SOL    HW141893   1.033  11.621  10.897  0.3024  1.1104  0.3007
10975SOL    HW241894   0.893  11.565  10.881 -0.0051  1.9542 -0.0442
10976SOL     OW41895   9.256  12.350   7.966  0.0068  0.1259 -0.3082
10976SOL    HW141896   9.271  12.314   8.053 -0.2639 -0.2898 -0.4278
10976SOL    HW241897   9.178  12.303   7.935  0.3863 -0.0763 -0.9644
10977SOL     OW41898   8.067   1.838  12.269 -0.5484 -0.1873  0.0016
10977SOL    HW141899   8.054   1.758  12.219 -0.9929 -0.6927  0.8856
10977SOL    HW241900   8.062   1.909  12.205  0.0439 -0.8725 -0.8222
10978SOL     OW41901   9.838   1.575  11.454 -0.4401  0.2096  0.2096
10978SOL    HW141902   9.877   1.488  11.442  1.1612  0.8290  0.6856
10978SOL    HW241903   9.749   1.557  11.484 -0.8200 -1.2720 -1.5989
10979SOL     OW41904  10.736  12.059   5.525 -0.3467 -0.3933  0.5051
10979SOL    HW141905  10.776  11.975   5.550 -1.0851 -1.7246 -2.4509
10979SOL    HW241906  10.696  12.091   5.606  1.4589 -1.9854  2.1262
10980SOL     OW41907   9.941   1.783   7.787  0.8976  0.0931 -0.1653
10980SOL    HW141908   9.915   1.793   7.695  2.4350  0.3393 -0.5973
10980SOL    HW241909   9.949   1.688   7.799  1.0180  0.0734 -0.3876
10981SOL     OW41910   9.914   6.756   4.523  0.0065  0.0851  0.0748
10981SOL    HW141911   9.966   6.831   4.494 -0.8313  0.6359 -0.0292
10981SOL    HW241912   9.901   6.704   4.444  0.8202 -0.3335  0.1986
10982SOL     OW41913  10.357   1.609   5.724  0.0497  0.1896 -0.4634
10982SOL    HW141914  10.265   1.607   5.751  0.3425  0.4679  0.5951
10982SOL    HW241915  10.396   1.678   5.778  0.9878 -0.2734 -0.5366
10983SOL     OW41916  12.398   0.580   5.035 -0.4843 -0.3162  0.5966
10983SOL    HW141917  12.400   0.534   5.119 -1.2091  0.8457  1.2760
10983SOL    HW241918  12.451   0.659   5.050 -0.5988 -0.1120 -0.0493
10984SOL     OW41919   1.548  10.595   4.504 -0.6429  0.2318  0.0716
10984SOL    HW141920   1.479  10.529   4.498 -1.8803  1.4412  0.4242
10984SOL    HW241921   1.543  10.627   4.594  1.0618 -0.3313  0.4108
10985SOL     OW41922   0.674   7.327   9.540 -0.4946  0.1078 -0.1363
10985SOL    HW141923   0.752   7.366   9.499 -0.9924  0.3594 -0.8523
10985SOL    HW241924   0.651   7.388   9.611 -0.9622  0.8564 -0.9174
10986SOL     OW41925   1.388   5.176   6.378  0.1567 -0.5481 -0.5808
10986SOL    HW141926   1.452   5.112   6.346  0.5077 -0.4831 -0.0233
10986SOL    HW241927   1.395   5.250   6.317  1.3652 -0.1045  0.0576
10987SOL     OW41928   3.251   2.681   1.888  0.1526  1.1676 -0.4425
10987SOL    HW141929   3.167   2.718   1.861 -1.6267 -0.8201  1.9107
10987SOL    HW241930   3.233   2.639   1.972  2.9865 -1.2088 -0.8474
10988SOL     OW41931   3.749  10.799   7.628 -0.0637  0.0594 -0.3100
10988SOL    HW141932   3.677  10.831   7.683  0.1752 -0.1248  0.1167
10988SOL    HW241933   3.828  10.831   7.670  0.0887  0.8294 -1.1548
10989SOL     OW41934   1.425   4.587   9.380  0.0966 -0.0398 -0.6140
10989SOL    HW141935   1.419   4.682   9.389  1.9220 -0.0329  1.1149
10989SOL    HW241936   1.377   4.553   9.456  0.2093 -0.4745 -0.7341
10990SOL     OW41937   4.317   9.941   1.689  0.1400  0.1626  0.2936
10990SOL    HW141938   4.254   9.999   1.732  0.1962  0.6626 -0.3002
10990SOL    HW241939   4.403   9.974   1.716  0.1783  0.5853 -0.3461
10991SOL     OW41940   1.160   0.141   3.692 -0.0262  0.3745 -0.5770
10991SOL    HW141941   1.208   0.216   3.658 -0.2827  1.0143  0.4377
10991SOL    HW241942   1.097   0.119   3.622  0.5131  0.6610 -1.1611
10992SOL     OW41943   9.791   6.670   0.598 -0.3430 -0.2216 -0.0853
10992SOL    HW141944   9.732   6.725   0.649 -0.8733 -0.4569 -0.4320
10992SOL    HW241945   9.802   6.591   0.651  1.1596  0.5716  0.8473
10993SOL     OW41946   3.660   3.843   4.290  0.0609 -0.0518 -0.0596
10993SOL    HW141947   3.572   3.829   4.325  0.3859 -0.3921  0.6479
10993SOL    HW241948   3.712   3.771   4.326  0.0330 -1.5145 -2.6894
10994SOL     OW41949   1.362   4.062   0.554  0.0579 -0.0068 -0.4133
10994SOL    HW141950   1.331   4.151   0.573 -0.9228  0.1889 -2.6676
10994SOL    HW241951   1.283   4.013   0.531  0.6426 -1.3753  0.3470
10995SOL     OW41952   5.149   1.452   9.714  0.0260 -0.1430 -0.1957
10995SOL    HW141953   5.170   1.495   9.797  0.8815  0.1221 -0.5388
10995SOL    HW241954   5.053   1.444   9.715 -0.3434  3.0158 -0.7232
10996SOL     OW41955  11.921   3.286   5.291  0.5543 -0.0864 -0.6804
10996SOL    HW141956  11.881   3.309   5.376  0.2314  1.4933 -1.2205
10996SOL    HW241957  11.896   3.195   5.277 -0.2191 -0.0788  0.4782
10997SOL     OW41958   6.802  10.623   5.050 -0.4078 -0.1662  0.0437
10997SOL    HW141959   6.864  10.624   5.123 -0.9582 -1.5147  0.5575
10997SOL    HW241960   6.762  10.710   5.052 -2.1857 -0.9016  2.9488
10998SOL     OW41961   8.916   5.388   2.109  0.1499  0.0399  0.0862
10998SOL    HW141962   8.991   5.366   2.164 -0.0311  0.9891  0.7405
10998SOL    HW241963   8.840   5.359   2.160 -0.0135  0.8511  0.3206
10999SOL     OW41964  12.389   2.121  11.989  0.1991  0.5815  0.5365
10999SOL    HW141965  12.419   2.085  12.072  1.3737  0.7146  0.1846
10999SOL    HW241966  12.408   2.053  11.924  0.5988  1.0219  0.1752
11000SOL     OW41967  12.451   8.410   7.806 -0.3975  0.0486 -0.4032
11000SOL    HW141968  12.494   8.351   7.744  2.0372  0.3723  0.8193
11000SOL    HW241969  12.367   8.369   7.824  0.1532 -1.7044 -1.5176
11001SOL     OW41970   0.836   6.970   3.323  0.6229 -0.3931 -0.4416
11001SOL    HW141971   0.809   6.898   3.380  1.0478 -0.6107 -0.5155
11001SOL    HW241972   0.777   6.965   3.248  0.7539 -0.7580 -0.5204
11002SOL     OW41973   2.806   0.219   5.167 -0.7375 -0.3316  0.2023
11002SOL    HW141974   2.872   0.156   5.138 -1.5706 -1.0653 -0.1381
11002SOL    HW241975   2.847   0.264   5.241  1.2091  1.1438 -1.6591
11003SOL     OW41976   5.127  12.592   4.444  0.2265  0.7601  0.1877
11003SOL    HW141977   5.062  12.657   4.470 -1.3487 -0.1875 -1.1348
11003SOL    HW241978   5.193  12.595   4.513 -0.9804  2.1001  1.3659
11004SOL     OW41979   7.401   3.698   5.906 -0.4737 -0.0867 -0.2822
11004SOL    HW141980   7.378   3.718   5.997 -1.0321  1.6155 -0.7625
11004SOL    HW241981   7.411   3.783   5.864  1.4765 -0.8128 -1.4358
11005SOL     OW41982   6.663  12.320   5.376  0.1968 -0.1027 -0.1117
11005SOL    HW141983   6.736  12.258   5.384 -0.5370 -0.9380  0.3085
11005SOL    HW241984   6.621  12.295   5.294  1.5782  1.7317 -1.4682
11006SOL     OW41985   4.322   5.038   7.706 -0.3900 -0.1784  0.1186
11006SOL    HW141986   4.407   5.026   7.664 -0.6075  1.7156 -0.9663
11006SOL    HW241987   4.310   4.959   7.759  2.3266 -0.2247  0.8253
11007SOL     OW41988   7.427  10.812  11.662 -0.2167 -0.2361 -0.3148
11007SOL    HW141989   7.472  10.739  11.619 -1.7282 -1.0217 -0.5996
11007SOL    HW241990   7.341  10.778  11.685 -1.1626  1.6165 -0.9293
11008SOL     OW41991  11.700  10.668   2.983 -0.4236 -0.1584  0.4842
11008SOL    HW141992  11.657  10.609   2.922  1.6308 -1.6593  0.3715
11008SOL    HW241993  11.705  10.618   3.065 -1.3238  1.0538  1.3104
11009SOL     OW41994   5.260   8.694   4.341 -0.3880 -0.1767 -0.1910
11009SOL    HW141995   5.217   8.619   4.383 -0.1664 -0.0947  0.1892
11009SOL    HW241996   5.348   8.663   4.321 -0.1058  0.1570  0.4952
11010SOL     OW41997   9.387   0.954   9.737 -0.1603  0.2260  0.0060
11010SOL    HW141998   9.416   0.879   9.686 -1.6642  0.1988 -0.8877
11010SOL    HW241999   9.467   1.002   9.758  0.8301 -1.5913  0.5881
11011SOL     OW42000   2.218  11.305   2.110 -0.1273  0.3079 -0.8298
11011SOL    HW142001   2.281  11.240   2.140 -1.3058 -0.1351  0.8310
11011SOL    HW242002   2.135  11.278   2.149 -1.1576  1.4402 -2.1190
11012SOL     OW42003   4.969  10.757   9.028  0.5927 -0.2487  0.0389
11012SOL    HW142004   4.877  10.734   9.039 -0.4288  0.7396 -4.2160
11012SOL    HW242005   5.018  10.683   9.064 -1.9692 -1.9838  0.1970
11013SOL     OW42006   5.659   6.671   1.067  0.2426  0.1565  0.0797
11013SOL    HW142007   5.639   6.691   1.158 -0.7229 -2.0759  0.4140
11013SOL    HW242008   5.685   6.755   1.029 -0.2574  1.3086  2.1584
11014SOL     OW42009   2.904   4.688   9.322  0.5178  0.8810 -0.4020
11014SOL    HW142010   2.963   4.757   9.293 -0.9806  3.2962  1.8885
11014SOL    HW242011   2.817   4.716   9.293 -0.2213  0.4248  1.2511
11015SOL     OW42012  10.851   7.275   1.409  0.0331  0.6684  0.3090
11015SOL    HW142013  10.796   7.347   1.378 -0.0672  0.6537  0.4537
11015SOL    HW242014  10.796   7.197   1.399  1.1497  0.1052 -2.7935
11016SOL     OW42015   4.271   0.912   8.192 -0.5168 -0.2513  0.7973
11016SOL    HW142016   4.342   0.864   8.235 -0.8442  0.2096  1.8782
11016SOL    HW242017   4.264   0.872   8.105  1.2412 -0.1488  0.5599
11017SOL     OW42018   2.438  10.540   4.916  0.3869 -0.1963  0.1696
11017SOL    HW142019   2.424  10.593   4.995 -0.1942  0.5844 -0.4303
11017SOL    HW242020   2.349  10.519   4.887  0.5761  0.1140 -0.6505
11018SOL     OW42021   5.308   9.822   8.996  0.0676 -0.5223  0.3461
11018SOL    HW142022   5.219   9.795   8.973 -0.4846  0.5359  1.1875
11018SOL    HW242023   5.311   9.916   8.976  0.8601 -0.4569  0.7278
11019SOL     OW42024  12.184   3.378   5.465  0.2503  0.2177 -0.2211
11019SOL    HW142025  12.127   3.454   5.461 -0.4992  0.0099  3.2583
11019SOL    HW242026  12.145   3.315   5.405  0.7472  2.3608 -2.9964
11020SOL     OW42027   7.796   3.030   8.266  0.0386 -0.6636  0.5374
11020SOL    HW142028   7.870   3.061   8.318 -0.3346  0.9789  0.1648
11020SOL    HW242029   7.722   3.085   8.294  0.0183  0.9633 -2.2910
11021SOL     OW42030   6.627   2.055   3.003 -0.2840  0.3886  0.4758
11021SOL    HW142031   6.670   2.089   3.082 -0.7058  0.8055  0.5336
11021SOL    HW242032   6.699   2.027   2.947  0.0008 -0.6591  1.3321
11022SOL     OW42033   6.879   9.682   0.636  0.8926 -0.4294  0.0890
11022SOL    HW142034   6.818   9.611   0.657 -0.8507  1.1788  0.7639
11022SOL    HW242035   6.860   9.703   0.544 -1.7460  1.9101  1.0120
11023SOL     OW42036   0.128   7.874  10.155 -0.0596 -0.3681  1.1881
11023SOL    HW142037   0.073   7.799  10.177  0.1798 -1.4645 -1.4850
11023SOL    HW242038   0.209   7.834  10.122  0.4416  1.0929  0.5947
11024SOL     OW42039   7.916   0.727   8.512  0.6882  0.5153 -0.5052
11024SOL    HW142040   7.911   0.808   8.562 -1.2101  0.7350 -0.9420
11024SOL    HW242041   7.856   0.668   8.556  1.4434 -0.3820 -0.6625
11025SOL     OW42042  12.491   6.810   4.748  0.0268 -0.1459  0.4067
11025SOL    HW142043  12.517   6.751   4.818 -0.2946  0.4027  0.9952
11025SOL    HW242044  12.445   6.754   4.685  1.8153 -0.9670 -0.2336
11026SOL     OW42045   6.204   9.870   7.789 -0.3753  0.0747 -0.0755
11026SOL    HW142046   6.270   9.902   7.727  0.5163 -0.9427  0.3211
11026SOL    HW242047   6.196   9.776   7.769 -0.1239 -0.2577  1.2813
11027SOL     OW42048   1.653   3.098   9.027  0.4339  0.6898 -0.2565
11027SOL    HW142049   1.630   3.054   8.945  0.3676 -0.5656  0.4187
11027SOL    HW242050   1.614   3.185   9.019 -1.6306 -0.2228 -0.5744
11028SOL     OW42051   2.188  11.592   9.353 -0.3893  0.6162 -0.0678
11028SOL    HW142052   2.119  11.527   9.335 -0.1956  0.4531 -0.2318
11028SOL    HW242053   2.237  11.597   9.271  1.2972 -1.0732  0.7425
11029SOL     OW42054  11.799   5.571   8.609 -0.6298  0.2738 -0.3812
11029SOL    HW142055  11.768   5.505   8.547  0.4790 -0.3703 -0.2699
11029SOL    HW242056  11.893   5.556   8.615 -0.6531  0.6198  1.1136
11030SOL     OW42057   8.306   8.101   1.520  0.2176 -0.0722 -0.3751
11030SOL    HW142058   8.356   8.131   1.444 -1.7473 -1.6138 -2.3806
11030SOL    HW242059   8.218   8.085   1.487 -0.5670 -1.4301  2.0887
11031SOL     OW42060  10.920  11.046   7.336 -0.0542  0.6149 -0.1199
11031SOL    HW142061  10.849  11.054   7.273  0.4421  1.5793 -0.5801
11031SOL    HW242062  10.973  10.972   7.303 -0.6263  0.1342  0.0252
11032SOL     OW42063   5.136   5.828   5.072  0.8818 -0.4323 -0.3728
11032SOL    HW142064   5.064   5.768   5.095  0.1273  0.0106 -1.4882
11032SOL    HW242065   5.215   5.783   5.103  0.1068 -0.7602  1.2170
11033SOL     OW42066   9.677   2.355   2.917  0.4138  0.0230  0.2517
11033SOL    HW142067   9.744   2.309   2.967 -0.2254 -0.9586  0.2399
11033SOL    HW242068   9.705   2.349   2.826 -0.5819 -2.0474  0.0217
11034SOL     OW42069   3.762   8.338  12.243  0.4587 -0.3344 -0.6323
11034SOL    HW142070   3.782   8.290  12.163  1.3938 -0.8034 -0.1356
11034SOL    HW242071   3.678   8.380  12.226  0.2927 -1.0303 -1.5850
11035SOL     OW42072   8.450   0.051  11.056  0.2684 -0.3462 -0.3147
11035SOL    HW142073   8.525   0.048  11.115  0.0750 -0.5421 -0.0746
11035SOL    HW242074   8.453   0.138  11.016  0.7069 -0.4086 -0.4218
11036SOL     OW42075   6.528  12.181   8.990  0.0879 -0.6621 -0.3412
11036SOL    HW142076   6.571  12.101   8.958  0.7059  0.3393 -2.1770
11036SOL    HW242077   6.460  12.199   8.925 -0.6928 -0.2016  0.5799
11037SOL     OW42078   1.412   5.606   9.888 -0.0212 -0.1563  0.1913
11037SOL    HW142079   1.484   5.595   9.950  0.7342 -1.0286 -0.7967
11037SOL    HW242080   1.373   5.518   9.881  0.0401 -0.1123 -0.7243
11038SOL     OW42081   2.381   6.598   9.035 -0.5813  0.1343 -0.2520
11038SOL    HW142082   2.397   6.688   9.006 -0.0651  0.6571  1.5798
11038SOL    HW242083   2.327   6.607   9.113 -0.1099 -1.1241  0.2425
11039SOL     OW42084   4.285   9.460   3.416 -0.0590  0.5009  0.0857
11039SOL    HW142085   4.255   9.377   3.453  0.6558  1.0705  2.0752
11039SOL    HW242086   4.248   9.527   3.473  0.6515  1.4709 -0.5591
11040SOL     OW42087  11.261   1.806  11.915 -0.5324 -0.1741 -0.0960
11040SOL    HW142088  11.262   1.858  11.996 -0.1197 -0.3378  0.0045
11040SOL    HW242089  11.184   1.750  11.925  0.6739 -1.7022  1.1625
11041SOL     OW42090  10.222   0.696  10.324  0.2373 -0.4353 -0.0130
11041SOL    HW142091  10.213   0.787  10.352 -0.0602 -0.9804  1.8120
11041SOL    HW242092  10.137   0.656  10.346  0.6035 -1.3122 -0.1504
11042SOL     OW42093   6.679   4.420   7.348 -0.0185 -0.4116  0.0798
11042SOL    HW142094   6.598   4.392   7.305 -0.0389  0.3929 -0.4274
11042SOL    HW242095   6.650   4.479   7.417 -0.0450 -2.3463  1.7989
11043SOL     OW42096   9.580   0.013   4.361  0.0628 -0.0773 -0.0042
11043SOL    HW142097   9.641   0.017   4.435 -0.1731 -0.2811  0.2034
11043SOL    HW242098   9.529   0.094   4.367 -0.6374 -0.5569  0.6526
11044SOL     OW42099   1.544   8.792   8.538  0.9321  0.4134 -0.1530
11044SOL    HW142100   1.512   8.835   8.617  2.0852  0.7611  0.1494
11044SOL    HW242101   1.596   8.859   8.493  0.9710 -0.0234 -0.7768
11045SOL     OW42102   0.582   0.667   3.955 -0.7877 -0.5171  0.2318
11045SOL    HW142103   0.545   0.746   3.994  0.0306  0.0879 -0.1856
11045SOL    HW242104   0.584   0.686   3.861  0.6880 -0.4776  0.2547
11046SOL     OW42105   0.538  10.192   5.034 -0.4235 -0.6009  0.2961
11046SOL    HW142106   0.621  10.222   4.999 -0.8056 -0.1612 -0.2604
11046SOL    HW242107   0.474  10.211   4.965 -1.3665  1.1242  1.5524
11047SOL     OW42108   9.480  10.431   2.934 -1.0312  0.0625 -0.0696
11047SOL    HW142109   9.425  10.460   2.860  0.2874  2.1469 -0.3214
11047SOL    HW242110   9.453  10.486   3.007  1.3811  1.9420 -0.4844
11048SOL     OW42111   8.865  10.477   4.212 -0.2352  0.3268  0.2218
11048SOL    HW142112   8.955  10.508   4.201  0.1975 -0.9983 -0.0879
11048SOL    HW242113   8.832  10.468   4.122 -0.2567 -0.3595  0.2924
11049SOL     OW42114   8.809   2.454   7.229  0.2951  0.1031 -0.0435
11049SOL    HW142115   8.902   2.476   7.220  0.6284 -0.8810  0.7718
11049SOL    HW242116   8.806   2.396   7.305 -1.4164  2.5922  1.9387
11050SOL     OW42117  11.998   4.706  10.904 -0.2956 -0.2483  0.0889
11050SOL    HW142118  12.048   4.627  10.883  0.2028  0.0598  0.0847
11050SOL    HW242119  11.955   4.730  10.822  1.5103  0.8536 -0.6096
11051SOL     OW42120  11.048   7.485  10.009  0.0939  0.1229 -0.0625
11051SOL    HW142121  10.991   7.537  10.066  0.7767 -1.0371  1.7559
11051SOL    HW242122  11.127   7.471  10.061  0.7203 -1.0596 -1.2759
11052SOL     OW42123  11.646  10.797   7.083 -0.1279  0.0885 -0.7837
11052SOL    HW142124  11.608  10.751   7.008 -1.8638 -0.5357  0.4232
11052SOL    HW242125  11.695  10.730   7.130 -0.1412  0.1642 -0.6612
11053SOL     OW42126   9.484   4.594   5.670  0.2444 -0.2169  0.6363
11053SOL    HW142127   9.449   4.549   5.593 -1.2048  0.2169  0.9992
11053SOL    HW242128   9.506   4.523   5.731  1.9098 -0.5881 -0.3371
11054SOL     OW42129  11.545  11.120   4.815  0.2398  0.1852  0.0242
11054SOL    HW142130  11.481  11.058   4.849 -1.3481  2.2385  0.9417
11054SOL    HW242131  11.610  11.129   4.885 -0.7755  1.2497  0.8640
11055SOL     OW42132  10.624   9.624  11.462 -0.6012  0.9758  0.7386
11055SOL    HW142133  10.542   9.601  11.504 -0.0942 -0.1623  1.1286
11055SOL    HW242134  10.666   9.540  11.442 -0.4996  1.4805 -1.4117
11056SOL     OW42135  10.737  12.009  10.088 -0.3105 -0.1066  0.4899
11056SOL    HW142136  10.719  12.097  10.056 -1.1348 -0.2523  0.5495
11056SOL    HW242137  10.736  12.017  10.184  0.2388 -0.0611  0.4967
11057SOL     OW42138   1.100   2.411   0.065  0.5569 -0.3202 -0.1692
11057SOL    HW142139   1.138   2.333   0.025  1.0611  0.4971 -1.3201
11057SOL    HW242140   1.173   2.472   0.074  0.0278  0.2961  0.0339
11058SOL     OW42141   8.774   6.257   2.740 -0.2531 -0.3750 -0.2193
11058SOL    HW142142   8.759   6.173   2.783  0.5828 -0.2113  0.4075
11058SOL    HW242143   8.734   6.247   2.653 -0.3979 -1.3178 -0.0485
11059SOL     OW42144   9.161  10.758   4.721 -0.3682  0.5064  0.0574
11059SOL    HW142145   9.110  10.780   4.799 -0.1498  0.9029  0.0930
11059SOL    HW242146   9.204  10.675   4.743 -1.1617  0.0465 -0.0591
11060SOL     OW42147   7.568  10.594  11.453 -0.0325 -0.1877  0.1277
11060SOL    HW142148   7.512  10.602  11.376 -0.4812 -2.2336  0.2016
11060SOL    HW242149   7.654  10.625  11.424  0.1417 -2.1132 -1.6318
11061SOL     OW42150  11.020   6.896   4.350 -0.5217  0.4950 -0.0203
11061SOL    HW142151  11.107   6.873   4.316  0.0471 -0.9452  2.2066
11061SOL    HW242152  11.025   6.991   4.364 -0.2498  0.8812 -2.2846
11062SOL     OW42153   3.683   8.152  11.022  0.9328 -0.2339 -0.0872
11062SOL    HW142154   3.643   8.238  11.014  0.4766 -0.2313  1.8251
11062SOL    HW242155   3.710   8.130  10.933 -1.7759  0.4890 -1.1825
11063SOL     OW42156   5.821   1.265  10.325  0.0400 -0.6273 -0.2412
11063SOL    HW142157   5.731   1.238  10.342  0.0347  0.7414  2.3424
11063SOL    HW242158   5.867   1.252  10.408  1.3627  1.8445 -0.4702
11064SOL     OW42159   0.156   9.765   0.351 -0.0394 -0.2688  0.3491
11064SOL    HW142160   0.223   9.696   0.357 -1.5588 -2.0946 -1.8682
11064SOL    HW242161   0.127   9.761   0.260 -2.2349  1.3602  0.9190
11065SOL     OW42162   1.550   8.347   9.939  0.3200 -0.4262 -1.5226
11065SOL    HW142163   1.585   8.431   9.907 -1.8570  0.6908 -1.1636
11065SOL    HW242164   1.463   8.341   9.900  0.3868 -2.5115 -1.4525
11066SOL     OW42165   3.208  11.895   5.638 -0.7130  0.1194  0.1794
11066SOL    HW142166   3.298  11.887   5.605 -0.3472  2.2919  0.5154
11066SOL    HW242167   3.157  11.836   5.582  0.7778 -0.5252 -0.5587
11067SOL     OW42168   0.135  10.268   5.982  0.4345  0.1931  0.0500
11067SOL    HW142169   0.229  10.252   5.986  0.3345 -0.0835  1.6489
11067SOL    HW242170   0.098  10.218   6.055 -1.1671 -1.0002 -1.4851
11068SOL     OW42171   4.874   2.699   9.599  0.6443 -0.1828 -0.1469
11068SOL    HW142172   4.887   2.641   9.524  0.3632 -0.6050  0.1281
11068SOL    HW242173   4.897   2.646   9.675  0.0074 -0.0593  0.1379
11069SOL     OW42174   6.287   7.358   8.836  0.1563  0.4751  0.0511
11069SOL    HW142175   6.194   7.362   8.857  0.4931 -0.8076  2.1001
11069SOL    HW242176   6.293   7.292   8.767 -0.2483 -1.5473  1.8516
11070SOL     OW42177   0.249   6.955   7.009  0.1613 -0.1647 -0.6062
11070SOL    HW142178   0.154   6.967   7.015  0.1418 -0.3949 -0.4080
11070SOL    HW242179   0.262   6.906   6.928  0.1001 -0.2149 -0.5867
11071SOL     OW42180   3.545   9.481   2.298 -0.4215 -0.2852 -0.3899
11071SOL    HW142181   3.497   9.405   2.264 -0.1854 -0.1771 -0.9899
11071SOL    HW242182   3.622   9.486   2.242 -0.6224  0.6219 -0.5982
11072SOL     OW42183   8.538   4.077   0.913 -0.2985 -0.0861 -0.3240
11072SOL    HW142184   8.517   4.027   0.834  3.2994 -1.5768 -0.4994
11072SOL    HW242185   8.613   4.131   0.889  0.9370 -0.6068  2.0488
11073SOL     OW42186   7.739   5.088   4.910 -0.2804  0.0597  0.0405
11073SOL    HW142187   7.696   5.040   4.839  1.6220  1.3661 -2.1357
11073SOL    HW242188   7.689   5.169   4.916 -0.1733  0.1409 -0.1413
11074SOL     OW42189   5.449   1.576  10.556  0.3028 -0.2127  0.1653
11074SOL    HW142190   5.462   1.500  10.500 -2.0590  0.4910 -1.4529
11074SOL    HW242191   5.417   1.539  10.639  1.1853 -1.0608  0.1543
11075SOL     OW42192   2.051  10.212  10.467  0.3816 -0.2221  0.4370
11075SOL    HW142193   2.018  10.228  10.379  0.4869  1.2170  0.6223
11075SOL    HW242194   1.977  10.177  10.515 -0.4072  1.2590  0.3712
11076SOL     OW42195   7.151   3.196   6.114 -0.0748  0.0851 -0.1414
11076SOL    HW142196   7.088   3.146   6.062  0.6940  0.4736 -1.4929
11076SOL    HW242197   7.211   3.233   6.050  0.6365  0.9829  1.0014
11077SOL     OW42198   4.242   3.381   1.092  0.3214  0.3842  0.3234
11077SOL    HW142199   4.234   3.368   1.186 -0.1481  0.4664  0.3004
11077SOL    HW242200   4.211   3.299   1.054  0.8013  0.2358  0.2432
11078SOL     OW42201   7.664   7.274   5.611 -0.2409 -0.0001 -0.3277
11078SOL    HW142202   7.578   7.261   5.572 -0.4697 -0.1886  0.2305
11078SOL    HW242203   7.647   7.283   5.705  0.4360 -1.0185 -0.0867
11079SOL     OW42204   4.059  11.560   6.203  0.2906  0.6218  0.4585
11079SOL    HW142205   4.019  11.474   6.203  0.1774  0.6143 -2.2325
11079SOL    HW242206   4.132  11.553   6.142  0.6160  2.3071  0.5960
11080SOL     OW42207  10.840   4.928   1.727 -0.1291 -0.2121 -0.0671
11080SOL    HW142208  10.835   4.969   1.641  2.2181  0.3788  0.0083
11080SOL    HW242209  10.920   4.875   1.724  0.1251 -0.0092  1.8080
11081SOL     OW42210   4.643   9.430  11.313  0.3448  0.2217  0.3356
11081SOL    HW142211   4.590   9.368  11.364  0.1179  0.6178  0.5916
11081SOL    HW242212   4.615   9.417  11.223  1.7290 -1.4543  0.1060
11082SOL     OW42213   8.594   3.691  12.437 -0.3624  0.1930  0.1423
11082SOL    HW142214   8.528   3.738  12.489  0.5942  0.1190  1.4815
11082SOL    HW242215   8.675   3.740  12.452  0.2606 -0.7827  0.0329
11083SOL     OW42216  11.066  10.747   5.213  1.0092 -0.4450  0.5845
11083SOL    HW142217  11.066  10.657   5.245  1.5187 -1.0127 -0.9179
11083SOL    HW242218  10.984  10.784   5.246  0.8226 -1.4427  1.2759
11084SOL     OW42219  11.285   7.208   9.124  0.5055  0.1645  0.2105
11084SOL    HW142220  11.302   7.222   9.031  2.1810  2.1153  0.7428
11084SOL    HW242221  11.358   7.154   9.155 -1.3143 -2.6111 -0.0117
11085SOL     OW42222   6.528  10.789   4.520  0.6746  0.5441 -0.5177
11085SOL    HW142223   6.549  10.837   4.600 -1.0340  0.3098  0.1128
11085SOL    HW242224   6.481  10.712   4.551  1.0761 -0.1909 -1.6918
11086SOL     OW42225   1.085   7.227  12.567 -0.2494  0.5437 -0.5038
11086SOL    HW142226   1.118   7.144  12.601 -1.1608 -0.2628 -1.5292
11086SOL    HW242227   1.115   7.292  12.630  0.3604 -0.5780  0.3989
11087SOL     OW42228   8.626   9.018  11.477  0.8005 -0.2265 -0.0859
11087SOL    HW142229   8.543   8.973  11.489  0.9435 -0.3463  0.5343
11087SOL    HW242230   8.689   8.966  11.527  1.5921 -1.0810 -1.9040
11088SOL     OW42231   0.861  10.076   8.831  0.7330 -0.0293 -0.9914
11088SOL    HW142232   0.804  10.014   8.786  0.6441 -1.5868  1.1344
11088SOL    HW242233   0.931  10.095   8.768 -0.8128  0.0773 -2.7658
11089SOL     OW42234   3.087   2.263  12.381  0.1868  0.0533  0.3553
11089SOL    HW142235   3.113   2.223  12.298 -2.0870 -0.7654 -0.0268
11089SOL    HW242236   3.082   2.189  12.442 -1.3554  0.1306  0.3494
11090SOL     OW42237  12.396  11.640   4.979 -0.0250 -0.0319  0.2160
11090SOL    HW142238  12.490  11.634   4.997 -0.1065  0.8087  0.9789
11090SOL    HW242239  12.370  11.726   5.011 -1.3377 -0.7896  1.3612
11091SOL     OW42240   5.566   0.583   9.860  0.0680 -0.0667 -0.0615
11091SOL    HW142241   5.507   0.602   9.933  0.0572 -1.0279  0.1990
11091SOL    HW242242   5.510   0.588   9.782  0.2807  1.9129 -0.1299
11092SOL     OW42243   7.452   3.976   0.577 -0.6676 -0.2448 -0.3833
11092SOL    HW142244   7.440   3.944   0.666  0.8945  1.3543  0.4590
11092SOL    HW242245   7.545   3.999   0.572 -1.0444  1.1153 -1.9258
11093SOL     OW42246   3.383   1.322   6.277 -0.4869 -0.3584 -0.7846
11093SOL    HW142247   3.411   1.414   6.273 -1.7287 -0.0096 -2.1667
11093SOL    HW242248   3.390   1.291   6.187  1.8837 -2.2856 -0.0340
11094SOL     OW42249   2.193  11.956   7.736 -0.8767 -0.5086 -0.1864
11094SOL    HW142250   2.165  11.888   7.798 -2.8503 -0.6067 -1.1009
11094SOL    HW242251   2.111  11.996   7.707 -0.0388 -0.5073 -2.7848
11095SOL     OW42252   0.202   9.985   9.494 -0.5966 -0.6633 -0.7602
11095SOL    HW142253   0.281   9.979   9.440  2.2757  1.1038  2.8348
11095SOL    HW242254   0.157  10.063   9.461  1.5136  0.8602 -0.2479
11096SOL     OW42255   6.919   5.177  10.855  0.1918 -0.0375  0.4775
11096SOL    HW142256   6.974   5.107  10.890  0.0103 -0.5328 -0.2072
11096SOL    HW242257   6.927   5.247  10.919  2.3588  0.2706 -0.0379
11097SOL     OW42258   9.147   1.312  11.458  0.4862  0.0515  0.0760
11097SOL    HW142259   9.099   1.267  11.388 -0.2084  0.2900  0.3916
11097SOL    HW242260   9.153   1.403  11.429  0.3665  0.1110  0.2363
11098SOL     OW42261   9.221   6.847   3.611  0.0507 -0.1646  0.0915
11098SOL    HW142262   9.170   6.807   3.681  1.4478 -0.3053  1.0673
11098SOL    HW242263   9.185   6.810   3.531  0.5465 -2.5514  0.8978
11099SOL     OW42264   4.740   7.212  10.336  0.1391 -0.2561 -0.3575
11099SOL    HW142265   4.723   7.118  10.350  1.4988 -0.8368 -2.2580
11099SOL    HW242266   4.788   7.216  10.254 -0.7440  2.2287 -0.8444
11100SOL     OW42267   1.121   7.835  10.623 -0.2268  0.0577 -0.2394
11100SOL    HW142268   1.044   7.839  10.566 -0.3985 -0.0380 -0.0174
11100SOL    HW242269   1.085   7.816  10.710 -0.0012  0.6009 -0.0249
11101SOL     OW42270  11.070   9.461   3.196  0.3204 -0.3038  0.5120
11101SOL    HW142271  11.049   9.528   3.262  0.0984 -1.4950  1.6812
11101SOL    HW242272  11.166   9.462   3.192  0.3230  0.0077  0.6111
11102SOL     OW42273   3.007  11.706   9.586  0.1240 -0.7272 -0.0299
11102SOL    HW142274   3.047  11.792   9.580 -0.7632 -0.3272 -0.4607
11102SOL    HW242275   2.955  11.698   9.506 -0.1497 -1.4785  0.2087
11103SOL     OW42276   0.690   4.234   8.010  0.3656  0.2621  0.4033
11103SOL    HW142277   0.721   4.200   7.926 -1.1080 -1.1076  0.3740
11103SOL    HW242278   0.635   4.164   8.046 -3.3775  2.7339  0.0450
11104SOL     OW42279   0.433   5.071  10.944 -0.1275 -0.4848  0.1809
11104SOL    HW142280   0.389   4.986  10.936  0.0500 -0.5426 -0.2069
11104SOL    HW242281   0.506   5.054  11.003  1.6374 -1.3221 -2.0888
11105SOL     OW42282  12.272   5.801   8.590  0.4629 -0.2257 -0.3487
11105SOL    HW142283  12.326   5.875   8.562 -0.7245  1.1157  0.7286
11105SOL    HW242284  12.200   5.798   8.526 -0.0224  0.2029  0.1663
11106SOL     OW42285   8.957   0.328   3.812 -0.0776 -0.0309 -0.1630
11106SOL    HW142286   8.920   0.243   3.787  0.5404 -1.1148  2.2349
11106SOL    HW242287   9.010   0.308   3.889  1.7040  2.2484 -0.7161
11107SOL     OW42288   4.595   4.299   8.698  0.0668 -0.1589 -0.1757
11107SOL    HW142289   4.668   4.342   8.742 -1.2003  0.9321  0.9879
11107SOL    HW242290   4.557   4.368   8.643  0.4752 -0.9816 -1.5202
11108SOL     OW42291   6.337  10.457  10.549  0.1962  0.4752  0.2852
11108SOL    HW142292   6.377  10.433  10.465 -1.4372 -1.6863  0.0078
11108SOL    HW242293   6.336  10.375  10.599 -1.0743  1.1475  1.4353
11109SOL     OW42294   8.171   2.622   7.143  0.0515  0.1098 -0.2373
11109SOL    HW142295   8.263   2.626   7.120 -0.1303  0.3860 -0.9369
11109SOL    HW242296   8.125   2.610   7.060 -0.3891 -2.9052  0.3328
11110SOL     OW42297   0.993   5.169  10.634 -0.2446  0.5726 -0.1222
11110SOL    HW142298   1.025   5.256  10.661  0.6043  0.2320  0.0124
11110SOL    HW242299   0.903   5.184  10.605 -0.5318  1.2948  1.0690
11111SOL     OW42300   7.563   6.834   9.607 -0.8604  0.1395 -0.4247
11111SOL    HW142301   7.492   6.834   9.543  0.5013 -1.3616 -1.9938
11111SOL    HW242302   7.638   6.870   9.561 -0.3670  1.0601  1.0121
11112SOL     OW42303   5.940   6.238   1.104  0.2604 -0.1854  0.4312
11112SOL    HW142304   5.964   6.285   1.024  0.8427 -1.3378 -0.0954
11112SOL    HW242305   5.860   6.282   1.134 -0.3354 -0.1173 -1.1350
11113SOL     OW42306  11.316   6.304   7.608 -0.3079 -0.0171  0.4227
11113SOL    HW142307  11.247   6.278   7.668 -0.6391 -0.1312 -0.0062
11113SOL    HW242308  11.359   6.378   7.651  0.3944 -0.9986  1.4695
11114SOL     OW42309   0.219   3.350   5.314  0.7710 -0.3045 -0.3825
11114SOL    HW142310   0.226   3.426   5.371  0.5960 -0.0132 -0.7448
11114SOL    HW242311   0.309   3.318   5.305  0.6829 -1.0085  0.9180
11115SOL     OW42312   4.387  11.056   4.021  0.2529 -0.0866  0.5970
11115SOL    HW142313   4.328  10.990   3.982  0.0853 -1.2398  2.6408
11115SOL    HW242314   4.472  11.037   3.982 -0.3356  0.4600 -1.0741
11116SOL     OW42315   0.325   9.596  11.121 -0.3339  0.6488  0.4140
11116SOL    HW142316   0.254   9.658  11.138 -0.2486  0.3631  2.0275
11116SOL    HW242317   0.381   9.603  11.199 -1.3084 -2.7759  1.6272
11117SOL     OW42318  12.163  11.667   8.502 -0.3097  0.0519 -0.4147
11117SOL    HW142319  12.219  11.634   8.573  0.4074 -1.8711 -1.7948
11117SOL    HW242320  12.094  11.602   8.494 -1.2310  1.0168 -0.5466
11118SOL     OW42321   5.950   0.491   5.924 -0.8424 -0.4253 -0.1481
11118SOL    HW142322   6.034   0.518   5.887 -0.5778 -1.6213 -0.4431
11118SOL    HW242323   5.934   0.404   5.888 -0.6094 -1.6394  2.4450
11119SOL     OW42324   0.456  12.161   0.532  0.7166  0.2933  0.5193
11119SOL    HW142325   0.417  12.141   0.618  0.3856  0.0353  0.3140
11119SOL    HW242326   0.548  12.179   0.551  0.5101  0.8478  1.0058
11120SOL     OW42327   0.115   4.924   0.035 -0.3533 -0.0375 -0.1376
11120SOL    HW142328   0.055   4.854   0.012 -2.6498  1.2579  1.4561
11120SOL    HW242329   0.067   5.005   0.017  1.7692  1.1643 -0.8568
11121SOL     OW42330   4.556  10.413   6.031 -0.2574 -0.3360  0.3678
11121SOL    HW142331   4.632  10.407   6.089 -0.0515  0.1794  0.1563
11121SOL    HW242332   4.489  10.359   6.074 -0.0822 -0.0326  1.0348
11122SOL     OW42333   5.764   7.097   1.662 -0.0820  0.6380 -0.3472
11122SOL    HW142334   5.788   7.133   1.747  2.6477  0.1846 -0.8380
11122SOL    HW242335   5.744   7.005   1.680  1.1633  0.3697 -0.2609
11123SOL     OW42336   7.620   5.337   8.784  0.3678  0.3367 -0.1293
11123SOL    HW142337   7.622   5.396   8.859 -1.2441 -0.3973  0.5383
11123SOL    HW242338   7.576   5.388   8.715 -1.4790 -0.1748  0.5990
11124SOL     OW42339   5.084   8.323  12.135  0.0536  0.4295  0.0190
11124SOL    HW142340   5.074   8.418  12.148 -0.3939  0.4074 -0.1272
11124SOL    HW242341   5.075   8.311  12.040  0.5989  0.2941 -0.0160
11125SOL     OW42342   4.209  10.906   7.651 -0.0669  0.6202 -0.1541
11125SOL    HW142343   4.249  10.960   7.720  0.0628  1.9065 -1.2004
11125SOL    HW242344   4.120  10.891   7.682 -0.5759  2.6614 -0.4628
11126SOL     OW42345   3.208   8.634  12.523  0.1653 -0.0460 -0.3278
11126SOL    HW142346   3.157   8.674  12.594 -2.3595 -0.6293 -1.6925
11126SOL    HW242347   3.272   8.579  12.568 -0.3732  0.7221  1.4984
11127SOL     OW42348  12.445   3.063   8.697 -0.4333 -0.4022 -0.1099
11127SOL    HW142349  12.387   3.016   8.758 -0.6666  1.5813  1.2862
11127SOL    HW242350  12.510   2.997   8.671 -0.4584 -1.4141  2.1229
11128SOL     OW42351   4.532   4.892  11.165  0.0882 -0.0234  0.1672
11128SOL    HW142352   4.514   4.800  11.184  1.3626 -0.8524 -2.1870
11128SOL    HW242353   4.446   4.934  11.168 -0.9434 -1.8565 -1.2277
11129SOL     OW42354  12.314   4.349   6.477 -0.2850  0.5701  0.1595
11129SOL    HW142355  12.363   4.398   6.543  1.0500  1.0848 -1.1872
11129SOL    HW242356  12.379   4.322   6.413 -1.3676 -1.0100 -0.3315
11130SOL     OW42357   5.895   6.299  11.911 -0.0246 -0.1087  0.0384
11130SOL    HW142358   5.971   6.260  11.954 -0.5070  1.5412  2.5908
11130SOL    HW242359   5.932   6.368  11.856  0.3965  0.2018  0.6969
11131SOL     OW42360   7.668   9.178  10.401  0.0914 -0.3273  0.4538
11131SOL    HW142361   7.746   9.146  10.444  0.8478  0.5676 -0.2113
11131SOL    HW242362   7.617   9.099  10.381  0.6491 -0.8849  1.2132
11132SOL     OW42363   1.404   0.729   7.641  0.0932  0.0812  0.6261
11132SOL    HW142364   1.420   0.809   7.591  1.5216  0.5481  1.7421
11132SOL    HW242365   1.486   0.714   7.689 -0.8149 -0.9755  1.9272
11133SOL     OW42366   9.628   3.674   5.976 -0.1906 -0.3096 -0.4043
11133SOL    HW142367   9.561   3.624   5.929 -1.3542  1.1651 -0.3975
11133SOL    HW242368   9.581   3.751   6.009  1.1840 -0.0206  0.9553
11134SOL     OW42369   4.012   9.851   5.614 -0.1991 -0.9326  0.2873
11134SOL    HW142370   4.049   9.764   5.631 -0.6459 -0.7482  2.3883
11134SOL    HW242371   3.925   9.833   5.579 -0.3034 -1.3433  0.7430
11135SOL     OW42372   9.652   4.577   7.494 -0.5232  0.2213  1.0545
11135SOL    HW142373   9.699   4.542   7.419 -0.8285 -3.6042  2.4425
11135SOL    HW242374   9.721   4.594   7.559 -0.4355  1.9550  0.5734
11136SOL     OW42375   6.877   0.118   6.880  0.2439 -0.6539 -0.0281
11136SOL    HW142376   6.874   0.212   6.866  2.6843 -0.2694  1.3802
11136SOL    HW242377   6.789   0.087   6.858 -1.1854  2.1792  1.1612
11137SOL     OW42378  12.267   2.091   1.642 -0.0793  0.5217  0.7335
11137SOL    HW142379  12.325   2.167   1.648  0.7489  0.0398 -0.5838
11137SOL    HW242380  12.327   2.018   1.626 -0.8826 -0.3775  1.7301
11138SOL     OW42381   7.250   0.629   1.781  0.7100  0.0294  0.3626
11138SOL    HW142382   7.190   0.555   1.784 -0.2832  0.7804 -0.4479
11138SOL    HW242383   7.231   0.673   1.699 -0.3136  2.4839  1.8061
11139SOL     OW42384   9.470   2.440   1.582 -0.5033  0.3487 -0.1484
11139SOL    HW142385   9.519   2.359   1.566  0.2291  1.1104 -2.1521
11139SOL    HW242386   9.379   2.417   1.565 -0.4546 -0.3045  0.4165
11140SOL     OW42387   9.742   9.375  11.668  0.1432  0.0110  0.3404
11140SOL    HW142388   9.649   9.384  11.692 -0.5729 -1.8743 -1.4312
11140SOL    HW242389   9.788   9.380  11.752 -1.5553  0.8495  1.2909
11141SOL     OW42390   7.196   0.414   3.350  0.7056  0.4291  0.0687
11141SOL    HW142391   7.165   0.471   3.279 -0.1130 -0.2781 -0.1656
11141SOL    HW242392   7.122   0.409   3.410  0.7571 -0.4061  0.0700
11142SOL     OW42393  10.964   6.173   9.520 -0.0212 -0.1089  0.2519
11142SOL    HW142394  11.048   6.214   9.538 -0.4783  1.2277 -0.4979
11142SOL    HW242395  10.926   6.225   9.450 -1.6183 -0.4717  0.7920
11143SOL     OW42396   4.074  11.141  11.388 -0.0988 -0.7945 -0.2970
11143SOL    HW142397   4.056  11.056  11.429 -0.9216 -0.5607 -0.1644
11143SOL    HW242398   4.063  11.204  11.458 -0.3534 -0.5004 -0.5991
11144SOL     OW42399   5.262   1.922  12.230 -0.1967  0.3155  0.3941
11144SOL    HW142400   5.273   1.993  12.293 -0.7339  0.0546  0.7856
11144SOL    HW242401   5.198   1.863  12.271  0.9489 -0.8901  0.5247
11145SOL     OW42402   8.809   1.085   1.066  0.1345  0.0414 -0.4183
11145SOL    HW142403   8.809   1.180   1.077  2.3806  0.1821 -1.1521
11145SOL    HW242404   8.801   1.072   0.971  1.3717 -0.4042 -0.4874
11146SOL     OW42405   9.905  10.148  12.343 -0.5612 -0.5070  0.3026
11146SOL    HW142406   9.833  10.174  12.400 -0.9531 -1.4547  0.2539
11146SOL    HW242407   9.943  10.231  12.313 -1.0241 -0.0034  1.0822
11147SOL     OW42408  12.443   8.004   9.059  0.2784 -0.4956 -0.0161
11147SOL    HW142409  12.438   7.991   9.154  0.0788  1.5684  0.3090
11147SOL    HW242410  12.532   7.978   9.036  0.3666 -0.9096  0.7493
11148SOL     OW42411   3.873   1.404  10.934  0.2009  0.5604 -0.1426
11148SOL    HW142412   3.824   1.408  10.852 -1.4973 -0.0730  0.7928
11148SOL    HW242413   3.858   1.315  10.966 -0.0882  1.1349  1.3877
11149SOL     OW42414   5.357   0.407   4.388  0.7127 -0.0864 -0.2214
11149SOL    HW142415   5.346   0.489   4.340  1.9051 -0.2283 -0.7719
11149SOL    HW242416   5.385   0.435   4.475  1.2987  0.0924 -0.4629
11150SOL     OW42417   8.008  11.781  11.302 -0.0018 -0.6960  0.0339
11150SOL    HW142418   8.039  11.783  11.392  0.3004  0.6723 -0.0793
11150SOL    HW242419   7.962  11.864  11.290  1.5734  0.0037 -1.6066
11151SOL     OW42420   8.493  10.338   2.941 -0.1074  0.7691  0.5441
11151SOL    HW142421   8.556  10.373   2.879  0.2828  1.4799  1.3237
11151SOL    HW242422   8.451  10.416   2.979 -1.7618  0.3171 -0.2515
11152SOL     OW42423   5.791   0.564   0.089 -0.1882 -0.4099 -0.3626
11152SOL    HW142424   5.758   0.583   0.176  2.3297 -0.7363  0.7369
11152SOL    HW242425   5.766   0.473   0.073 -0.5268 -0.3944  0.0731
11153SOL     OW42426   8.705   3.017   7.497  0.1065 -0.1323 -0.2368
11153SOL    HW142427   8.680   3.092   7.442  0.4073  0.2372  0.1350
11153SOL    HW242428   8.640   3.016   7.567  0.1418 -0.1869 -0.2053
11154SOL     OW42429   4.580  12.212   0.721  0.4020 -0.0222 -0.5051
11154SOL    HW142430   4.648  12.217   0.788  1.7722  1.8082 -1.9322
11154SOL    HW242431   4.502  12.246   0.764  1.5166  2.1849 -0.0473
11155SOL     OW42432  10.697  10.635   9.873  0.1683  0.3295 -0.0917
11155SOL    HW142433  10.775  10.588   9.842  1.1305  1.3642  0.6678
11155SOL    HW242434  10.732  10.716   9.910 -1.1478  0.1884  1.5547
11156SOL     OW42435   2.989  12.421   7.202  0.4717  0.2050 -0.0413
11156SOL    HW142436   2.917  12.484   7.211  0.7493  0.5869 -0.4386
11156SOL    HW242437   3.050  12.464   7.142  0.4510 -0.6500 -0.6735
11157SOL     OW42438   6.383   3.360   4.797  0.3461 -0.2536  0.0197
11157SOL    HW142439   6.454   3.418   4.771 -0.6882  1.3489  0.6090
11157SOL    HW242440   6.396   3.281   4.745  1.2890  0.8524 -1.5086
11158SOL     OW42441  10.519  11.800   9.117 -0.1264  0.4508  0.1935
11158SOL    HW142442  10.447  11.851   9.155 -1.3857 -0.8085 -0.3958
11158SOL    HW242443  10.572  11.865   9.070 -2.6640  1.0872 -2.0675
11159SOL     OW42444   5.777   8.630   8.294 -0.5773  0.5270 -0.0151
11159SOL    HW142445   5.764   8.674   8.379  0.9305  1.1067 -0.0474
11159SOL    HW242446   5.699   8.653   8.243 -0.8304  1.3876  0.7270
11160SOL     OW42447   3.716   5.989   0.806  0.6700 -0.2325  0.2732
11160SOL    HW142448   3.634   5.983   0.757  0.3916 -0.1385  0.7164
11160SOL    HW242449   3.780   5.944   0.752  0.2935 -0.4273 -0.0161
11161SOL     OW42450   6.197   5.771   2.831  0.3384  0.4905  0.3182
11161SOL    HW142451   6.227   5.793   2.919 -0.1879 -0.6015  0.7884
11161SOL    HW242452   6.236   5.686   2.812 -0.3663  0.2446 -0.0906
11162SOL     OW42453   7.715   0.002   1.545  0.2010  0.0405 -0.0207
11162SOL    HW142454   7.637   0.058   1.551  1.0558  1.5116 -1.8537
11162SOL    HW242455   7.713  -0.050   1.626 -0.8524  2.4349  1.5997
11163SOL     OW42456   1.968  10.932   5.174 -0.3932 -0.2389  0.4451
11163SOL    HW142457   1.945  10.880   5.097 -2.9225 -0.1424  1.0609
11163SOL    HW242458   2.045  10.982   5.147 -0.9052 -0.5818 -1.8563
11164SOL     OW42459   4.521   8.077  11.556  0.1373  0.0516 -0.7767
11164SOL    HW142460   4.556   8.071  11.467  0.8615  0.1511 -0.5022
11164SOL    HW242461   4.572   8.145  11.598 -1.2482  1.1223 -0.7473
11165SOL     OW42462   9.831  11.089   8.608  0.1444  0.0932 -0.0618
11165SOL    HW142463   9.796  11.132   8.686  1.3460  0.5232  0.2613
11165SOL    HW242464   9.826  11.156   8.540 -0.6364 -0.1893 -0.2886
11166SOL     OW42465   0.695   5.911   3.845  0.2070  0.7021 -0.4914
11166SOL    HW142466   0.747   5.922   3.765  0.7641  0.4810 -0.1684
11166SOL    HW242467   0.741   5.844   3.895 -1.1187 -0.4542 -0.7753
11167SOL     OW42468   4.949   2.872   6.977 -0.2691  0.0053 -0.1005
11167SOL    HW142469   4.929   2.819   6.900  0.6755 -0.7969  0.1850
11167SOL    HW242470   4.868   2.920   6.995 -0.6827 -0.2340 -1.2361
11168SOL     OW42471   2.654   5.310  12.396  0.2626 -0.1607  0.0632
11168SOL    HW142472   2.686   5.242  12.456  2.1196 -1.0966 -1.8549
11168SOL    HW242473   2.593   5.264  12.338 -0.9179  0.5596  0.7006
11169SOL     OW42474   9.208   3.107  12.088 -0.3084  0.4722 -0.2954
11169SOL    HW142475   9.301   3.120  12.107 -0.2326 -0.9283  0.4440
11169SOL    HW242476   9.204   3.019  12.050 -1.6203 -0.7171  2.3195
11170SOL     OW42477   8.443   3.455   1.640  0.0030  0.7489  0.3757
11170SOL    HW142478   8.505   3.510   1.592  1.4905 -0.2379  1.0947
11170SOL    HW242479   8.428   3.380   1.583 -2.2106  1.9204 -0.7091
11171SOL     OW42480   3.867   5.835  10.951 -0.1561 -0.3803  0.3859
11171SOL    HW142481   3.806   5.909  10.959  1.0249  0.5801  0.9026
11171SOL    HW242482   3.920   5.856  10.874 -1.6970 -2.1872 -1.2751
11172SOL     OW42483   3.166  10.836   8.706 -0.3172  0.0495 -0.3882
11172SOL    HW142484   3.148  10.784   8.784  0.4136  2.7594  1.7516
11172SOL    HW242485   3.093  10.897   8.700  0.1723  0.5745 -1.1925
11173SOL     OW42486   3.900  11.791   5.666 -0.1776 -0.1843  0.3340
11173SOL    HW142487   3.957  11.783   5.743  0.1134 -1.1193  0.0352
11173SOL    HW242488   3.942  11.860   5.613  1.0689 -1.2870 -0.1813
11174SOL     OW42489   9.489   6.135   8.723 -0.4293 -0.3655 -0.1549
11174SOL    HW142490   9.525   6.081   8.653 -2.5800 -0.7326 -1.0302
11174SOL    HW242491   9.514   6.089   8.804  2.3867  0.2555 -0.5582
11175SOL     OW42492   5.251   4.653   5.046 -0.2497 -0.6579  0.6976
11175SOL    HW142493   5.197   4.724   5.082  1.5894  0.8583  0.6120
11175SOL    HW242494   5.340   4.675   5.073  0.5484 -2.2165 -0.5199
11176SOL     OW42495   9.700  11.261   2.679 -0.6064 -0.4863  0.1452
11176SOL    HW142496   9.657  11.253   2.594  0.1189 -0.0532 -0.2814
11176SOL    HW242497   9.746  11.345   2.675  0.1247 -0.8452  0.6376
11177SOL     OW42498   0.284  10.014  12.208  0.4697 -0.0588  0.0020
11177SOL    HW142499   0.301   9.920  12.207  1.2442  0.0672  0.6275
11177SOL    HW242500   0.238  10.030  12.290 -1.1313 -0.1164 -0.8449
11178SOL     OW42501   3.168   3.750   1.756 -0.4166 -0.4936  0.9086
11178SOL    HW142502   3.231   3.694   1.710 -0.5648  0.9399 -1.2023
11178SOL    HW242503   3.085   3.733   1.712 -0.6366  0.6546  0.8431
11179SOL     OW42504  10.603   0.364   9.400  0.0133  0.1341  0.4238
11179SOL    HW142505  10.652   0.322   9.330  1.0553 -1.9215  2.2461
11179SOL    HW242506  10.526   0.309   9.412 -0.5758  0.9275  0.4073
11180SOL     OW42507   1.288  11.668  10.538  0.2893  0.0660 -0.1763
11180SOL    HW142508   1.348  11.644  10.608 -1.6949  0.3397  1.7251
11180SOL    HW242509   1.217  11.604  10.543 -1.0386  1.4637 -0.3919
11181SOL     OW42510  12.034  11.489   1.133  0.3690  0.4792 -0.0107
11181SOL    HW142511  12.053  11.545   1.058 -0.1029  2.3585  1.1773
11181SOL    HW242512  11.940  11.499   1.147  0.1773 -1.0462 -0.0573
11182SOL     OW42513  12.046   6.418   9.891  0.3057 -0.2862 -0.3391
11182SOL    HW142514  11.997   6.353   9.842  0.5435  0.2156 -1.2569
11182SOL    HW242515  12.051   6.494   9.833  0.3893  0.4064  0.5498
11183SOL     OW42516   7.321   6.359   8.017  0.0194 -0.3009 -0.7174
11183SOL    HW142517   7.244   6.307   7.993  0.8084 -1.4147 -0.9175
11183SOL    HW242518   7.353   6.393   7.933  1.2893 -2.0906 -1.0316
11184SOL     OW42519  12.156   3.254   3.927  0.5107  0.1222 -0.2336
11184SOL    HW142520  12.189   3.177   3.880 -2.7161 -1.3860 -0.3481
11184SOL    HW242521  12.223   3.273   3.993  2.8573 -0.7719 -2.1970
11185SOL     OW42522  12.171   4.778   9.937 -0.3286 -0.2768  0.2099
11185SOL    HW142523  12.233   4.748  10.003  0.2094 -2.1778 -1.0845
11185SOL    HW242524  12.204   4.863   9.909  0.8015 -0.5581  0.6603
11186SOL     OW42525  11.005   2.792   9.137  0.5191  0.0492  0.3371
11186SOL    HW142526  10.918   2.805   9.098  0.6951 -0.5558 -0.2934
11186SOL    HW242527  11.033   2.879   9.165 -0.8585  0.0512  1.7909
11187SOL     OW42528  10.514  11.650  10.234 -0.0425  0.2116 -0.3031
11187SOL    HW142529  10.578  11.579  10.246 -0.0013  0.3402  0.2778
11187SOL    HW242530  10.565  11.722  10.197  0.2483  0.4615  0.5683
11188SOL     OW42531   3.218  12.538  12.052 -0.5308  0.1702 -0.0911
11188SOL    HW142532   3.223  12.470  11.985  0.1835 -0.0080  0.1299
11188SOL    HW242533   3.133  12.580  12.039 -0.8850 -0.6267 -0.3674
11189SOL     OW42534   6.674   1.061   0.421  0.6351 -0.2269  0.0452
11189SOL    HW142535   6.670   0.967   0.436 -0.5741 -0.0933  0.7136
11189SOL    HW242536   6.658   1.099   0.508 -1.6986  0.5822 -0.6626
11190SOL     OW42537   6.874   7.018   0.981  0.4435  0.2496  0.4032
11190SOL    HW142538   6.929   7.009   1.059  0.6603 -0.6048  0.1631
11190SOL    HW242539   6.792   6.975   1.004  1.4743 -2.5771 -0.7455
11191SOL     OW42540   9.745   1.450   6.208  0.5321  0.4842 -0.2815
11191SOL    HW142541   9.662   1.402   6.212  0.1762  1.1883  1.8761
11191SOL    HW242542   9.734   1.511   6.135 -0.0753 -0.7546 -1.2576
11192SOL     OW42543   3.346   1.578   1.318 -0.1161  0.3837  0.0828
11192SOL    HW142544   3.319   1.491   1.348  1.8313 -0.7287 -1.1923
11192SOL    HW242545   3.345   1.572   1.222 -0.0788  1.8263 -0.0367
11193SOL     OW42546   2.704  10.275   3.723  0.8457 -0.5890 -0.1241
11193SOL    HW142547   2.765  10.231   3.663  0.0573 -1.4730 -0.2994
11193SOL    HW242548   2.760  10.333   3.774  1.7216 -0.7458 -0.8553
11194SOL     OW42549   4.496   3.203   0.350  0.0062  0.2701 -0.3868
11194SOL    HW142550   4.554   3.239   0.418  0.1219 -1.5500  0.5520
11194SOL    HW242551   4.409   3.206   0.389  0.2655 -2.2045  0.5638
11195SOL     OW42552   3.919  11.999  10.952 -0.0416 -0.2648  0.5897
11195SOL    HW142553   3.946  11.925  10.898 -0.9777 -0.2162  0.0274
11195SOL    HW242554   3.830  11.977  10.981 -0.0737  0.3303  0.9777
11196SOL     OW42555   4.130   6.238   2.190 -0.0824  0.2357  0.3108
11196SOL    HW142556   4.054   6.239   2.133  0.5318  2.1298 -0.5750
11196SOL    HW242557   4.100   6.282   2.270 -0.1241  0.3511  0.2328
11197SOL     OW42558  11.875   9.639   0.811 -0.3750 -0.0589 -0.6090
11197SOL    HW142559  11.894   9.722   0.767 -3.3239  1.5294  0.8225
11197SOL    HW242560  11.961   9.607   0.839  0.8514  2.8351 -0.6811
11198SOL     OW42561   4.931   2.204   9.899  0.5170 -0.1873 -0.6875
11198SOL    HW142562   4.931   2.283   9.953  2.1404 -1.5882  1.5676
11198SOL    HW242563   4.935   2.132   9.963  0.4055 -2.0589 -2.6652
11199SOL     OW42564   3.567   0.448   9.743  0.0773 -0.2030  0.1408
11199SOL    HW142565   3.587   0.354   9.741 -1.6819 -0.6127 -0.1409
11199SOL    HW242566   3.474   0.452   9.766  0.1554  1.4831  0.2657
11200SOL     OW42567   0.584   0.362   1.208 -0.5214 -0.4393 -0.5416
11200SOL    HW142568   0.537   0.327   1.132  0.0504 -0.2388 -0.9980
11200SOL    HW242569   0.665   0.398   1.171 -0.8057  0.7913 -0.0104
11201SOL     OW42570  10.382   6.089   2.403  0.2455 -0.2560  0.8415
11201SOL    HW142571  10.417   6.027   2.339 -1.3485 -0.1008 -0.2470
11201SOL    HW242572  10.360   6.167   2.352 -0.2687  0.2069  1.7343
11202SOL     OW42573   7.086  10.814   4.475 -0.1364 -0.5135 -0.3710
11202SOL    HW142574   7.115  10.792   4.387  0.2157 -1.3558 -0.0542
11202SOL    HW242575   7.153  10.778   4.533  0.4137  1.2892  0.1993
11203SOL     OW42576   1.196   7.045   9.425 -0.2792  0.1542 -0.2604
11203SOL    HW142577   1.191   6.977   9.358  0.5155  0.7723 -0.9709
11203SOL    HW242578   1.153   7.007   9.501 -1.3818 -0.4909 -1.1709
11204SOL     OW42579   1.148  12.413   3.834 -0.4048  0.3775 -0.1911
11204SOL    HW142580   1.189  12.494   3.863 -1.8063  1.0465  0.0054
11204SOL    HW242581   1.208  12.378   3.768 -0.2930  2.1231 -1.0661
11205SOL     OW42582  10.135   6.475   0.834 -0.6002 -0.3681  0.6779
11205SOL    HW142583  10.209   6.514   0.880 -0.3972 -0.7208  0.6512
11205SOL    HW242584  10.085   6.550   0.802  1.3543 -0.0820 -1.9738
11206SOL     OW42585   2.902   4.733   5.939 -0.0100 -0.2169 -0.1846
11206SOL    HW142586   2.947   4.772   6.014  0.9811 -0.2973 -0.7244
11206SOL    HW242587   2.812   4.766   5.945  0.1342  0.0144  0.8639
11207SOL     OW42588   9.464   8.540   5.108 -0.4936 -0.4310  0.6444
11207SOL    HW142589   9.422   8.620   5.078  1.4858  1.5946  2.8903
11207SOL    HW242590   9.404   8.506   5.175 -1.0033 -0.4718  0.1767
11208SOL     OW42591   9.707   9.806   5.400 -0.9125  0.0488 -0.6784
11208SOL    HW142592   9.696   9.718   5.364  0.4120 -0.6152  0.4677
11208SOL    HW242593   9.761   9.852   5.336  1.9388 -1.3096  0.5927
11209SOL     OW42594   4.212   1.551  12.493 -0.9206 -0.1660 -0.3315
11209SOL    HW142595   4.185   1.594  12.412  1.5617  4.1635  0.8318
11209SOL    HW242596   4.272   1.482  12.465  0.3783  1.6147 -2.2800
11210SOL     OW42597   9.260   6.408   3.789 -0.4958 -0.2119 -0.0804
11210SOL    HW142598   9.331   6.367   3.839 -0.2519  1.9180  1.4789
11210SOL    HW242599   9.195   6.338   3.778  1.2113 -1.8515 -0.3889
11211SOL     OW42600   6.345   7.823  12.101 -0.0701 -0.1571  0.5735
11211SOL    HW142601   6.288   7.893  12.134 -1.0037 -0.5774 -0.1160
11211SOL    HW242602   6.433   7.858  12.110 -0.3479  0.1501  2.5319
11212SOL     OW42603   3.318  11.646   5.586  0.0160  0.3282 -0.0776
11212SOL    HW142604   3.356  11.664   5.672  0.8932 -1.0254 -0.1496
11212SOL    HW242605   3.234  11.604   5.604  0.7914 -1.1894  0.1786
11213SOL     OW42606   2.703   2.001   7.046 -0.2021  0.0585 -0.3994
11213SOL    HW142607   2.642   2.070   7.019  0.4911  1.0034  0.3855
11213SOL    HW242608   2.670   1.972   7.131  0.2499  0.3577 -0.1164
11214SOL     OW42609   8.046   8.928   8.142  0.0709  0.1947 -0.3906
11214SOL    HW142610   8.023   8.936   8.049 -1.0315 -1.2278 -0.2806
11214SOL    HW242611   7.974   8.879   8.180  0.8146  0.2130  1.1063
11215SOL     OW42612   3.882   5.601   7.784 -0.0257 -0.1623  0.0107
11215SOL    HW142613   3.833   5.608   7.866 -0.2302 -2.1546  0.0903
11215SOL    HW242614   3.844   5.525   7.739  1.5276 -0.4260 -0.9313
11216SOL     OW42615   8.499   1.303  10.058  0.3201 -0.1899  0.0173
11216SOL    HW142616   8.453   1.271   9.980 -2.3756 -0.7306  1.6708
11216SOL    HW242617   8.508   1.398  10.043 -1.9847  0.0634 -0.1763
11217SOL     OW42618   5.978   7.004   7.638  0.4378 -0.0442  0.0013
11217SOL    HW142619   5.969   6.997   7.543  1.9422 -0.4552 -0.1317
11217SOL    HW242620   5.888   7.018   7.669  0.0715  1.6476 -1.5843
11218SOL     OW42621   8.816   4.706   6.002 -0.1805 -0.5162  0.5499
11218SOL    HW142622   8.862   4.783   6.034  0.1225 -0.1002 -0.8322
11218SOL    HW242623   8.843   4.636   6.062  1.1231  0.0249  0.6384
11219SOL     OW42624   5.939   4.478   6.681 -0.0382  0.6710  0.0314
11219SOL    HW142625   5.962   4.446   6.768 -1.4813  0.3698  0.3399
11219SOL    HW242626   5.959   4.404   6.623 -1.0327  0.0758  0.4134
11220SOL     OW42627   0.444   8.084   2.399  0.5631  0.4562  0.3143
11220SOL    HW142628   0.412   8.174   2.395  0.5207  0.5073  1.4967
11220SOL    HW242629   0.509   8.078   2.329  0.5368  1.3886  0.2051
11221SOL     OW42630   1.855   4.985  11.743 -0.1088 -0.1538 -0.0528
11221SOL    HW142631   1.847   5.048  11.672  0.3782 -0.1628 -0.1199
11221SOL    HW242632   1.772   4.991  11.790 -0.3558 -0.0052 -0.5020
11222SOL     OW42633   2.777   9.579   3.138  0.0458 -0.6429  0.3832
11222SOL    HW142634   2.851   9.520   3.125  0.6100 -0.1426  1.2292
11222SOL    HW242635   2.767   9.585   3.233 -0.4567  0.0556  0.2938
11223SOL     OW42636   5.547   8.666   8.112 -0.7630  0.1818 -0.3031
11223SOL    HW142637   5.486   8.737   8.090 -1.9528 -1.0854 -1.2112
11223SOL    HW242638   5.592   8.647   8.029  0.0368  0.3082  0.0909
11224SOL     OW42639   3.086   3.872   0.980  0.5041 -0.1425  0.1476
11224SOL    HW142640   3.023   3.942   0.965  0.7273 -0.0191 -0.2412
11224SOL    HW242641   3.158   3.915   1.027  0.6933 -0.0847 -0.1950
11225SOL     OW42642   6.849   1.635   5.764 -0.7935 -0.2752 -0.1637
11225SOL    HW142643   6.776   1.658   5.707 -2.4900 -1.4237  1.4185
11225SOL    HW242644   6.900   1.571   5.715 -1.5188 -0.3224 -0.8680
11226SOL     OW42645   2.286   1.821   3.227  0.3840 -0.1340 -0.3773
11226SOL    HW142646   2.278   1.908   3.266  0.2778 -1.0933  1.9203
11226SOL    HW242647   2.352   1.832   3.159  0.9335  1.5905  0.3617
11227SOL     OW42648  11.487  10.782   1.530 -0.2750  0.3738 -0.4873
11227SOL    HW142649  11.481  10.878   1.535  0.7336  0.4082  2.6698
11227SOL    HW242650  11.432  10.751   1.602 -0.0220 -1.4114 -1.0059
11228SOL     OW42651   7.110   4.206   1.785  0.2617 -0.2070 -0.7470
11228SOL    HW142652   7.089   4.299   1.790  0.7357 -0.1548  0.4681
11228SOL    HW242653   7.084   4.181   1.696 -0.9925  0.8029 -0.6948
11229SOL     OW42654   6.372   9.745   1.070 -0.5259 -0.4025  0.2353
11229SOL    HW142655   6.306   9.694   1.024 -1.7683  1.5786 -0.3175
11229SOL    HW242656   6.338   9.835   1.069  1.5159  0.4521  1.1933
11230SOL     OW42657  10.588  10.429   4.969  0.1838  0.2270  0.2599
11230SOL    HW142658  10.599  10.483   4.891  0.1897  0.3944  0.3767
11230SOL    HW242659  10.604  10.339   4.939 -0.2897  0.2398 -0.0375
11231SOL     OW42660   0.648  11.949  12.394  0.2512  0.4105 -0.3063
11231SOL    HW142661   0.740  11.931  12.414  0.1768 -2.0329 -1.7423
11231SOL    HW242662   0.615  11.994  12.472  2.6353  1.3855  0.2264
11232SOL     OW42663  10.195   3.130   2.729 -0.1787 -0.0497 -0.3325
11232SOL    HW142664  10.131   3.112   2.659  0.8426  0.2992 -1.3956
11232SOL    HW242665  10.273   3.080   2.704  0.2810  0.2667  0.4406
11233SOL     OW42666   7.802  11.800  11.698 -0.0184 -0.8785  0.4379
11233SOL    HW142667   7.734  11.829  11.638 -3.4958 -2.7303  3.1200
11233SOL    HW242668   7.783  11.844  11.780  2.4349 -1.0671  1.1985
11234SOL     OW42669   2.334   1.019  10.788  0.2643 -0.3793  0.1320
11234SOL    HW142670   2.382   1.036  10.869  1.8083 -1.5470 -0.4638
11234SOL    HW242671   2.402   0.993  10.725 -0.6433  2.0426 -2.0416
11235SOL     OW42672   3.138   7.693  12.368  0.4403  0.0378 -0.7335
11235SOL    HW142673   3.176   7.774  12.335 -0.3890  0.7000 -0.0797
11235SOL    HW242674   3.044   7.710  12.375  0.2946 -0.8555 -0.2570
11236SOL     OW42675  10.026   2.348   7.445 -0.3938 -0.2442 -0.0268
11236SOL    HW142676   9.948   2.293   7.457 -0.2652 -0.6291 -0.9091
11236SOL    HW242677  10.083   2.296   7.389  0.4709  0.0777  0.5331
11237SOL     OW42678   0.671   4.636   9.125 -0.1641  0.0763 -0.2704
11237SOL    HW142679   0.688   4.670   9.037  0.6914  0.5047  0.0568
11237SOL    HW242680   0.730   4.561   9.134 -1.1332 -0.7446 -0.5070
11238SOL     OW42681   6.611  11.724  11.106 -0.5782  0.3909  0.1780
11238SOL    HW142682   6.706  11.712  11.109 -0.9030 -3.9254 -0.8117
11238SOL    HW242683   6.585  11.734  11.197  0.6642 -0.2593  0.6213
11239SOL     OW42684  10.483   6.663   6.464 -0.2341  0.0250 -0.0155
11239SOL    HW142685  10.533   6.735   6.427  0.9527 -0.5161  0.4751
11239SOL    HW242686  10.470   6.686   6.556 -0.0550 -0.2757  0.0875
11240SOL     OW42687  12.340  11.288   0.940  0.0299  0.1476 -0.2025
11240SOL    HW142688  12.333  11.239   1.022 -0.3521  1.8380  0.8171
11240SOL    HW242689  12.280  11.243   0.880  1.6355 -2.2074 -0.1982
11241SOL     OW42690   7.296   0.779   7.597 -0.2238  1.0858  0.4173
11241SOL    HW142691   7.224   0.833   7.631 -1.8047 -1.0811  0.7291
11241SOL    HW242692   7.255   0.723   7.531  1.3880  0.4340 -0.0805
11242SOL     OW42693   7.565   6.506   8.936 -0.5458 -0.1262  0.3115
11242SOL    HW142694   7.511   6.427   8.938 -0.8705  0.1136  1.0827
11242SOL    HW242695   7.504   6.577   8.952  0.0132  0.1381  1.3041
11243SOL     OW42696   8.185   3.122   4.085  0.2516  0.0615 -0.0051
11243SOL    HW142697   8.170   3.089   3.996  0.9259 -1.8318  0.5426
11243SOL    HW242698   8.278   3.143   4.088  0.7191 -1.8656  0.8065
11244SOL     OW42699   5.210  12.331   8.630 -0.5977 -0.2747  0.0298
11244SOL    HW142700   5.181  12.405   8.684 -0.8650 -0.8022  0.6270
11244SOL    HW242701   5.298  12.354   8.602 -0.6675  0.2565  0.2447
11245SOL     OW42702   4.736   2.942   4.274  0.6518  0.1359 -0.2911
11245SOL    HW142703   4.816   2.927   4.224  0.7035 -0.4500 -0.0455
11245SOL    HW242704   4.691   2.857   4.274 -0.3121  0.6281 -1.0144
11246SOL     OW42705   7.379   4.679   5.959  0.1205  0.8669 -0.4230
11246SOL    HW142706   7.462   4.632   5.956  0.1812  0.9116  0.2667
11246SOL    HW242707   7.393   4.748   6.023 -1.1444 -0.5545  1.5230
11247SOL     OW42708   3.831   1.304   3.050 -0.2834  0.5794  0.0550
11247SOL    HW142709   3.910   1.283   3.099 -1.4474  0.0100  1.8230
11247SOL    HW242710   3.799   1.385   3.091 -0.9122  0.4772 -0.2271
11248SOL     OW42711   9.662   0.339   2.627 -0.7324 -0.1494 -0.3753
11248SOL    HW142712   9.701   0.335   2.540  0.0724 -1.4932  0.0290
11248SOL    HW242713   9.666   0.432   2.650  1.1755 -0.0744 -0.8225
11249SOL     OW42714   5.060  10.129  11.269  0.0081 -0.3398  0.5886
11249SOL    HW142715   5.004  10.051  11.275 -0.1996 -0.3374 -0.9291
11249SOL    HW242716   5.011  10.197  11.315 -0.0922 -0.9465  1.3958
11250SOL     OW42717  11.697   0.295   5.065 -0.6675 -0.2240 -0.3052
11250SOL    HW142718  11.693   0.200   5.078 -0.6163 -0.2935 -0.7742
11250SOL    HW242719  11.761   0.307   4.995 -1.6469  0.0538 -1.1911
11251SOL     OW42720   9.073   9.236  10.539 -0.1130  0.3289  0.0160
11251SOL    HW142721   9.168   9.232  10.535 -0.0824  0.4812  0.5700
11251SOL    HW242722   9.048   9.280  10.458  0.4040  1.8928  0.6638
11252SOL     OW42723  10.889   0.165   8.876 -0.0297 -0.2583  0.4087
11252SOL    HW142724  10.863   0.121   8.795 -0.6749 -1.5799  1.2966
11252SOL    HW242725  10.807   0.183   8.922  0.2090  1.9777  0.0718
11253SOL     OW42726   2.782   0.326   1.772  0.1217  0.3494  0.8377
11253SOL    HW142727   2.708   0.290   1.723  1.5984 -0.4820 -0.9122
11253SOL    HW242728   2.824   0.386   1.710  0.9840  0.7330  1.7709
11254SOL     OW42729   6.025   8.941   3.361  0.4205 -0.0410 -0.3140
11254SOL    HW142730   5.955   9.004   3.346  0.4359 -0.1617 -0.9326
11254SOL    HW242731   6.045   8.948   3.454 -0.1124  0.3065 -0.2247
11255SOL     OW42732  12.097   0.806  11.728 -0.1765 -0.2386 -0.1717
11255SOL    HW142733  12.189   0.806  11.701 -0.5553 -0.1656 -1.5518
11255SOL    HW242734  12.054   0.865  11.666 -1.1835 -0.3792  0.3708
11256SOL     OW42735  10.953  10.312   2.185 -0.3048 -0.1601  0.4316
11256SOL    HW142736  10.982  10.322   2.094  3.5336 -1.0029  1.3610
11256SOL    HW242737  10.941  10.402   2.216 -1.0374  0.1537 -0.7248
11257SOL     OW42738   9.344   5.222   5.864  0.3248  0.2846 -0.1043
11257SOL    HW142739   9.249   5.224   5.865  0.2831 -0.5186  1.8858
11257SOL    HW242740   9.366   5.173   5.784 -1.0156 -1.1175  0.3408
11258SOL     OW42741   7.661   3.511   7.508 -0.1368  0.5307  0.4330
11258SOL    HW142742   7.671   3.587   7.451  0.5673 -0.5679 -0.9736
11258SOL    HW242743   7.744   3.504   7.555 -0.4676  1.0409  1.1024
11259SOL     OW42744  10.411  11.644   3.648  0.3042  0.2577  0.2589
11259SOL    HW142745  10.381  11.733   3.669 -0.7672 -0.3638  1.4606
11259SOL    HW242746  10.448  11.652   3.560 -2.8118  1.2464 -1.1187
11260SOL     OW42747   3.981   9.198   9.360  0.7271 -0.0000  0.0160
11260SOL    HW142748   3.914   9.249   9.316  0.2821 -0.3494  0.2812
11260SOL    HW242749   3.988   9.117   9.310 -0.3296 -0.7345  0.9990
11261SOL     OW42750   3.829   6.916   3.469 -1.2490 -0.5136 -0.1396
11261SOL    HW142751   3.825   6.826   3.438 -0.5084 -0.5504 -0.1592
11261SOL    HW242752   3.820   6.970   3.390  3.1144 -0.5969 -0.9926
11262SOL     OW42753   5.921  12.547   5.594 -0.4779 -0.5912 -0.0281
11262SOL    HW142754   5.876  12.509   5.518  1.5482 -1.4619 -0.8833
11262SOL    HW242755   5.953  12.632   5.563 -0.3935 -0.5670  0.1246
11263SOL     OW42756   9.602  11.766   0.014 -0.2771 -0.1381 -0.3433
11263SOL    HW142757   9.697  11.776   0.005 -0.2959 -0.6458 -1.2081
11263SOL    HW242758   9.591  11.690   0.071 -0.1490 -1.4876 -2.0441
11264SOL     OW42759   5.237   6.407   2.368  0.1925 -0.4588 -0.6769
11264SOL    HW142760   5.170   6.346   2.399 -0.9013  0.7773 -0.5340
11264SOL    HW242761   5.201   6.444   2.288  1.2915 -0.7208 -1.3235
11265SOL     OW42762   8.091   6.945   4.154 -0.2047 -0.0825 -0.0457
11265SOL    HW142763   8.176   6.985   4.136 -0.1113 -0.7951 -1.2869
11265SOL    HW242764   8.081   6.877   4.086 -1.1751 -0.9017  0.8750
11266SOL     OW42765   7.244   3.322   8.848  0.3672 -0.0976  0.1955
11266SOL    HW142766   7.186   3.252   8.877 -0.1676  0.1115 -0.3331
11266SOL    HW242767   7.313   3.278   8.799 -0.9920 -0.1634 -1.8053
11267SOL     OW42768   5.078  10.705   1.727 -0.0442  0.1654 -0.2580
11267SOL    HW142769   5.158  10.653   1.735 -0.4987 -0.4010  0.8534
11267SOL    HW242770   5.107  10.789   1.691  1.6072  1.1589  2.9651
11268SOL     OW42771  11.071   2.233  10.902  0.1925  0.0936  0.1945
11268SOL    HW142772  11.112   2.320  10.898 -1.3130  0.8409  0.0394
11268SOL    HW242773  11.001   2.237  10.836 -1.3674 -0.4174  1.7455
11269SOL     OW42774   0.318   2.313   3.616  0.0177  0.5228 -0.1834
11269SOL    HW142775   0.356   2.300   3.530 -0.7301  0.3891 -0.5029
11269SOL    HW242776   0.230   2.277   3.609  0.7437 -1.7159  1.3509
11270SOL     OW42777   1.987   4.099   2.837 -0.3891  0.0450  0.1272
11270SOL    HW142778   1.922   4.137   2.778  1.4553  3.2055 -0.0837
11270SOL    HW242779   1.963   4.133   2.923  1.4416  2.1948 -0.1064
11271SOL     OW42780   5.015  12.001  11.355 -0.3120 -0.0836  0.3461
11271SOL    HW142781   4.966  12.076  11.387 -1.9210 -0.5715 -0.8563
11271SOL    HW242782   5.009  11.936  11.425 -0.4386  0.2586  0.6522
11272SOL     OW42783   8.716   3.331   6.589  0.1552 -0.2059 -0.2627
11272SOL    HW142784   8.787   3.273   6.560  0.2308  0.5637 -1.6729
11272SOL    HW242785   8.747   3.419   6.568  0.1173  0.4109  1.9994
11273SOL     OW42786   6.843   4.103   1.885 -0.5388 -0.8505  0.3629
11273SOL    HW142787   6.826   4.196   1.871 -1.0972 -1.0762 -0.5181
11273SOL    HW242788   6.921   4.084   1.833 -0.8396 -1.0221 -0.0347
11274SOL     OW42789  10.829   1.990   6.343 -0.4519 -0.1137  0.3403
11274SOL    HW142790  10.843   1.895   6.347  0.7585 -0.0479 -1.2763
11274SOL    HW242791  10.910   2.024   6.306 -0.5539  1.6623  1.6213
11275SOL     OW42792   1.258   2.588   9.425 -0.1573 -0.2312 -0.1103
11275SOL    HW142793   1.264   2.674   9.383  2.2898  1.3057  2.9317
11275SOL    HW242794   1.173   2.588   9.469 -0.1289  0.6986 -0.0426
11276SOL     OW42795  12.341   8.598   2.123 -0.7942 -0.1731 -0.1406
11276SOL    HW142796  12.263   8.617   2.070 -0.7950 -1.6158 -0.7065
11276SOL    HW242797  12.412   8.592   2.060 -0.3900  0.2219  0.2732
11277SOL     OW42798   7.280  12.382   7.931 -0.7998 -0.4977  0.3182
11277SOL    HW142799   7.345  12.326   7.974  0.3865  1.0978  0.7296
11277SOL    HW242800   7.312  12.471   7.948 -2.6808  0.3056 -0.1925
11278SOL     OW42801   1.622   6.240   0.030 -0.2363 -0.2859 -0.4434
11278SOL    HW142802   1.530   6.265   0.020  0.2837  1.9757 -0.1489
11278SOL    HW242803   1.619   6.149   0.060 -2.4120 -0.0444  0.2552
11279SOL     OW42804   9.413   0.777   3.615  0.3820  0.3972 -0.2726
11279SOL    HW142805   9.408   0.866   3.579  2.1694  1.3339  1.5472
11279SOL    HW242806   9.332   0.735   3.587 -0.8531  2.8268 -0.6436
11280SOL     OW42807   9.669   7.733   3.199 -0.1681  0.0804 -0.0386
11280SOL    HW142808   9.715   7.809   3.163 -0.0097 -0.9175 -2.0682
11280SOL    HW242809   9.738   7.667   3.212 -0.5390 -0.2898  0.0663
11281SOL     OW42810   4.132   4.460   9.815  0.1847  0.4295  0.4447
11281SOL    HW142811   4.158   4.393   9.879 -2.7530  0.4870  1.8908
11281SOL    HW242812   4.110   4.411   9.736  0.8037  0.0154  0.5231
11282SOL     OW42813   8.080   0.436  12.591 -0.2162  0.3614 -0.1143
11282SOL    HW142814   7.987   0.435  12.614 -0.7327  0.5340 -2.0323
11282SOL    HW242815   8.099   0.528  12.574 -0.0733  0.1724 -1.0560
11283SOL     OW42816   6.516   4.566   5.146 -0.4403  0.6435 -0.0691
11283SOL    HW142817   6.569   4.507   5.199  0.1837  0.1266 -1.2465
11283SOL    HW242818   6.496   4.639   5.205  0.1641  0.0497  0.8970
11284SOL     OW42819   1.149   3.441  10.546 -0.2513 -0.0615 -0.1832
11284SOL    HW142820   1.110   3.422  10.632  1.7233 -1.9677  0.3971
11284SOL    HW242821   1.243   3.431  10.560  0.2607  1.3538 -2.1952
11285SOL     OW42822   9.027   8.326   8.051  0.1545  0.2322  0.5070
11285SOL    HW142823   9.004   8.408   8.095 -0.1758  0.3034  0.2037
11285SOL    HW242824   8.995   8.337   7.962 -0.9366 -0.6831  0.7620
11286SOL     OW42825   3.494   5.538  10.191 -0.8755  0.0702 -0.0130
11286SOL    HW142826   3.414   5.493  10.165 -0.2994 -0.4405 -0.9917
11286SOL    HW242827   3.558   5.467  10.205  0.4640  0.5185 -2.9994
11287SOL     OW42828   9.099   1.670  10.420 -0.4424  0.1045 -0.2272
11287SOL    HW142829   9.011   1.666  10.381 -0.6242  0.9902  0.0797
11287SOL    HW242830   9.138   1.585  10.398 -0.5460  0.5286 -2.2863
11288SOL     OW42831   4.038  11.284   1.466 -0.3394  0.7650 -0.0901
11288SOL    HW142832   4.008  11.352   1.405  0.9586  1.4775  0.0290
11288SOL    HW242833   4.056  11.332   1.547 -1.6720 -0.1113  0.7528
11289SOL     OW42834  12.059   8.845   3.599 -0.1196  0.4064 -0.0922
11289SOL    HW142835  11.978   8.831   3.550  0.1270  0.2389 -0.4513
11289SOL    HW242836  12.115   8.895   3.540  1.1098 -1.8501 -0.9706
11290SOL     OW42837  10.492   3.190   3.226 -0.0960  0.1923 -0.0543
11290SOL    HW142838  10.409   3.165   3.184  0.4244 -1.3283 -0.2535
11290SOL    HW242839  10.552   3.206   3.153  0.4015 -0.9903  0.0790
11291SOL     OW42840  10.586   2.900   9.630  0.2787  0.6696 -0.2037
11291SOL    HW142841  10.641   2.941   9.697  1.4110 -1.8560  0.5293
11291SOL    HW242842  10.640   2.901   9.551  0.1396  0.9472 -0.2965
11292SOL     OW42843   3.503   4.041   4.147 -0.5841  0.5386 -0.0013
11292SOL    HW142844   3.471   4.094   4.074  0.1426 -0.1321 -0.8307
11292SOL    HW242845   3.488   3.950   4.119  1.3436  0.2209 -0.1242
11293SOL     OW42846   5.191   3.399   1.523  0.3218  0.0253  0.1841
11293SOL    HW142847   5.213   3.360   1.607 -0.8698 -0.8123  0.1315
11293SOL    HW242848   5.205   3.329   1.459  2.3776  0.9942 -0.5129
11294SOL     OW42849   2.365   3.230   6.415 -0.1841  0.1864  0.0559
11294SOL    HW142850   2.356   3.206   6.507  1.2103 -0.1939  0.1226
11294SOL    HW242851   2.333   3.154   6.367 -1.7522  0.7248  0.1892
11295SOL     OW42852   2.954  10.171  10.809  0.2895  0.1564 -0.1691
11295SOL    HW142853   2.917  10.155  10.722  0.5321  1.0217 -0.4377
11295SOL    HW242854   2.903  10.114  10.867 -0.4180  0.1686 -0.7579
11296SOL     OW42855  11.123   1.325   4.019 -0.1829 -0.0735 -0.1630
11296SOL    HW142856  11.052   1.273   4.057 -0.5418  0.3769 -0.2078
11296SOL    HW242857  11.123   1.301   3.926 -1.2742  1.0162 -0.4780
11297SOL     OW42858   1.830   3.960   4.461 -0.0396  0.0207  1.0896
11297SOL    HW142859   1.788   4.036   4.421  0.5352 -0.4813 -0.5757
11297SOL    HW242860   1.917   3.958   4.422  0.2017 -1.0754  1.6536
11298SOL     OW42861   6.682  11.549   0.279  0.2969 -0.3356  0.6597
11298SOL    HW142862   6.641  11.622   0.233  1.2483 -0.0013  0.3251
11298SOL    HW242863   6.684  11.576   0.371 -1.8130 -1.0985  1.0001
11299SOL     OW42864   0.305  11.524   9.870  0.5485  0.0448  0.1012
11299SOL    HW142865   0.335  11.609   9.903 -1.1830  0.2721  1.2492
11299SOL    HW242866   0.337  11.461   9.934  0.9817 -0.0508 -0.2085
11300SOL     OW42867   8.140  10.324   5.514 -0.5410 -0.1627 -0.1273
11300SOL    HW142868   8.102  10.330   5.426  0.6821  0.9125 -0.6258
11300SOL    HW242869   8.093  10.390   5.565  0.7566  1.3716 -0.8191
11301SOL     OW42870   1.456   0.278   2.194  0.2272  0.2049 -0.3134
11301SOL    HW142871   1.381   0.322   2.154  1.3033  2.2070 -0.2606
11301SOL    HW242872   1.467   0.198   2.143 -0.6942  0.8884 -1.6412
11302SOL     OW42873   7.549   5.994   2.084  0.0318  0.4004 -0.1686
11302SOL    HW142874   7.462   5.997   2.044 -0.7377  1.2808  1.4750
11302SOL    HW242875   7.555   6.076   2.134  1.4120 -0.1119  0.5603
11303SOL     OW42876   1.215   1.406   2.919  0.3443 -0.0276  0.6532
11303SOL    HW142877   1.131   1.387   2.960  0.4636 -1.3525  0.3059
11303SOL    HW242878   1.192   1.445   2.835  0.0899  0.3820  0.9088
11304SOL     OW42879   1.831   5.522   0.872  0.6176  0.0075  0.3866
11304SOL    HW142880   1.814   5.616   0.871 -1.9220 -0.3897  0.0056
11304SOL    HW242881   1.863   5.503   0.784  1.3125  0.5199  0.5175
11305SOL     OW42882   2.441   1.635   0.896  0.2101  0.4143 -0.1271
11305SOL    HW142883   2.373   1.595   0.841  0.0754 -0.0205  0.3497
11305SOL    HW242884   2.393   1.697   0.951  0.4218  1.2765 -0.8817
11306SOL     OW42885   6.955   6.254   3.044 -0.5721  0.6617 -0.6665
11306SOL    HW142886   6.909   6.171   3.029 -0.7930  0.8583 -1.0919
11306SOL    HW242887   6.994   6.275   2.959  0.0170  0.6766 -0.3994
11307SOL     OW42888   4.671   0.002   8.038 -0.0468 -0.2938  0.2139
11307SOL    HW142889   4.749   0.044   8.001  1.7260 -2.9556  0.6573
11307SOL    HW242890   4.646   0.058   8.111 -0.4138  2.2053 -1.7195
11308SOL     OW42891   7.575   6.011   4.652  0.0626 -0.3198  0.1824
11308SOL    HW142892   7.490   5.989   4.615 -0.1584  0.8079 -0.0065
11308SOL    HW242893   7.592   6.101   4.623  1.7817 -0.8608 -0.6521
11309SOL     OW42894   8.948   4.613   7.450 -0.2077  0.9237  0.2148
11309SOL    HW142895   8.881   4.566   7.500 -1.6929  1.3482 -1.2912
11309SOL    HW242896   9.026   4.608   7.504 -0.9176 -1.3062  1.1451
11310SOL     OW42897   0.470   7.353   3.274 -0.1380  0.2203  0.0428
11310SOL    HW142898   0.562   7.363   3.249 -0.2452  0.4399 -0.2578
11310SOL    HW242899   0.434   7.441   3.268 -0.5474  0.0123 -0.5294
11311SOL     OW42900   6.585   8.095  12.267 -0.8486 -0.2112 -0.0789
11311SOL    HW142901   6.648   8.164  12.288 -0.5506 -0.2709 -0.7684
11311SOL    HW242902   6.499   8.137  12.278 -0.7301 -0.3001  1.4737
11312SOL     OW42903   1.343  10.273   5.340 -0.7448  0.3256 -0.5784
11312SOL    HW142904   1.256  10.300   5.311 -1.0865  0.6223  0.6574
11312SOL    HW242905   1.370  10.207   5.277 -0.8396  1.9403 -2.3762
11313SOL     OW42906   1.447   1.914   3.302 -0.0003 -0.1986 -0.0997
11313SOL    HW142907   1.392   1.969   3.359  0.2250 -0.1377  0.0597
11313SOL    HW242908   1.522   1.970   3.280  0.5836 -0.6718  0.6251
11314SOL     OW42909   4.454   0.276   8.002 -1.0612 -0.2588  0.1276
11314SOL    HW142910   4.491   0.355   7.962 -0.8409 -1.6619 -2.6905
11314SOL    HW242911   4.516   0.252   8.070 -0.5774  1.3567  0.3059
11315SOL     OW42912   1.089   4.238   5.615  0.0535  0.1686  0.4088
11315SOL    HW142913   1.013   4.189   5.645  0.1230  0.3432  0.8747
11315SOL    HW242914   1.147   4.173   5.576 -0.7928  0.1591 -0.9258
11316SOL     OW42915   3.567   0.728  10.538 -0.0274  0.2988 -0.2943
11316SOL    HW142916   3.658   0.712  10.564 -0.4976  2.1255  2.9376
11316SOL    HW242917   3.515   0.684  10.605 -1.4490  1.7201 -0.4167
11317SOL     OW42918   7.705  10.358   1.859  0.3495  0.2074 -0.2799
11317SOL    HW142919   7.702  10.451   1.837  0.2198  0.0328 -1.0206
11317SOL    HW242920   7.784  10.349   1.913  1.6598  0.3696 -2.0984
11318SOL     OW42921   0.418   3.179  10.115 -0.0185 -0.0823 -0.5034
11318SOL    HW142922   0.336   3.156  10.072  0.1007  1.5447 -1.6823
11318SOL    HW242923   0.410   3.272  10.135  1.4763  0.0752 -0.4971
11319SOL     OW42924   9.060   5.581   7.738  0.5992 -0.0713  0.8533
11319SOL    HW142925   9.017   5.519   7.798 -1.9226  1.8793  1.2123
11319SOL    HW242926   9.154   5.561   7.747  0.1894 -1.2076  3.9243
11320SOL     OW42927   0.287  11.323   1.648  0.1179 -0.0919  0.2224
11320SOL    HW142928   0.277  11.315   1.553 -0.4944  1.9539  0.0758
11320SOL    HW242929   0.201  11.301   1.683 -0.1173  0.7139  0.1714
11321SOL     OW42930   5.170   6.930   4.878  0.1386 -0.6011 -0.1494
11321SOL    HW142931   5.132   6.843   4.886  2.2126 -1.4985  1.0074
11321SOL    HW242932   5.264   6.916   4.892  0.2885  2.1095  2.7378
11322SOL     OW42933   0.815   2.509   3.887 -0.4276  0.4979 -0.4808
11322SOL    HW142934   0.821   2.419   3.920 -0.2818  0.2415 -1.1732
11322SOL    HW242935   0.727   2.538   3.912 -0.4115  0.2239 -0.1015
11323SOL     OW42936   4.904   5.713  10.449  0.3335 -0.1331  0.1489
11323SOL    HW142937   4.842   5.674  10.386  0.7908  0.3054 -0.5829
11323SOL    HW242938   4.978   5.653  10.450 -0.2062 -0.8273  1.2666
11324SOL     OW42939   4.097   1.461   6.905 -0.0525  0.1869 -0.6409
11324SOL    HW142940   4.010   1.443   6.870  0.4264 -0.0394 -1.7739
11324SOL    HW242941   4.097   1.554   6.924 -0.5422  0.1900 -0.6512
11325SOL     OW42942   0.338   1.648   7.210 -0.1931 -0.3863 -1.4008
11325SOL    HW142943   0.263   1.707   7.215  1.2468  1.4579  0.2561
11325SOL    HW242944   0.395   1.686   7.143  1.2058  0.8232  0.3659
11326SOL     OW42945   1.097   5.585   4.920  0.0156 -0.6668  0.4682
11326SOL    HW142946   1.190   5.602   4.903  0.1662  0.7300  2.3411
11326SOL    HW242947   1.091   5.490   4.927  1.4741 -0.7346  1.1228
11327SOL     OW42948   4.616   9.143   8.904 -0.1205  0.0263  0.4895
11327SOL    HW142949   4.640   9.204   8.833  1.1868  0.4748  1.2853
11327SOL    HW242950   4.555   9.193   8.958  0.3037  0.3483  0.6799
11328SOL     OW42951   4.100   0.034   5.317  0.2855 -0.0047  0.5872
11328SOL    HW142952   4.016   0.002   5.283  0.5901  0.1096 -0.2961
11328SOL    HW242953   4.125  -0.030   5.384 -0.8425  0.3398  1.3786
11329SOL     OW42954   7.438   9.291   3.369 -0.9539 -0.6222  0.1016
11329SOL    HW142955   7.394   9.331   3.443  0.1468  1.1261 -0.1274
11329SOL    HW242956   7.514   9.247   3.408  0.7420  1.9490 -0.0809
11330SOL     OW42957   6.169  12.452   2.229  0.2845  0.5168  0.2399
11330SOL    HW142958   6.162  12.545   2.210  2.5539  1.0684  1.7136
11330SOL    HW242959   6.245  12.423   2.178 -1.0539 -0.8441 -1.0974
11331SOL     OW42960   4.996   5.773  11.920  0.4973  0.3204 -0.1497
11331SOL    HW142961   5.041   5.855  11.940  1.2184 -0.1970  0.4245
11331SOL    HW242962   4.920   5.799  11.868  1.0979  1.2842 -0.5784
11332SOL     OW42963   7.982  11.544   8.253 -0.2413  0.6875  0.1802
11332SOL    HW142964   7.923  11.554   8.178 -0.3255 -0.1145  0.1302
11332SOL    HW242965   7.989  11.450   8.265 -0.6304  0.8015  1.5049
11333SOL     OW42966   0.531   1.417  12.342 -0.0532  0.2560  0.5082
11333SOL    HW142967   0.456   1.361  12.360 -0.5868  1.1144  1.0310
11333SOL    HW242968   0.518   1.446  12.252 -1.9817  2.7334  1.4576
11334SOL     OW42969   7.523   0.855   4.949  0.2471  0.1433 -1.0698
11334SOL    HW142970   7.454   0.835   4.886 -0.8954 -0.8731  0.4054
11334SOL    HW242971   7.535   0.950   4.944 -2.6182  0.6543 -0.1152
11335SOL     OW42972  12.291   5.809   1.275  0.1004 -0.0719  0.2265
11335SOL    HW142973  12.232   5.823   1.349  2.0433 -1.0023  2.0568
11335SOL    HW242974  12.241   5.756   1.214 -0.9320 -0.9546  1.7701
11336SOL     OW42975   8.780   9.319   2.087  0.1686 -0.0653  0.4310
11336SOL    HW142976   8.692   9.347   2.061  0.3134  0.5748  0.6217
11336SOL    HW242977   8.766   9.242   2.142 -0.2981  0.3294  0.8673
11337SOL     OW42978   0.738   1.350   5.081  0.2537 -0.2802  0.7249
11337SOL    HW142979   0.721   1.445   5.074  1.6517 -0.0160  0.7560
11337SOL    HW242980   0.729   1.318   4.991 -0.5811 -0.1926  0.7673
11338SOL     OW42981   5.686   0.904   8.266 -0.5192  0.3394 -0.0369
11338SOL    HW142982   5.706   0.828   8.321 -1.9147  1.1900  1.7220
11338SOL    HW242983   5.700   0.980   8.323  0.5814  1.4419 -1.6731
11339SOL     OW42984   0.541   2.911   9.412  0.2440  0.3459 -0.2513
11339SOL    HW142985   0.546   2.874   9.324 -0.0110 -1.6927  0.5274
11339SOL    HW242986   0.632   2.933   9.434  0.5516 -0.6443 -0.4523
11340SOL     OW42987   7.902   4.719   7.212  0.6595  0.4214  0.3326
11340SOL    HW142988   7.927   4.674   7.293  1.9199 -0.9010 -0.7334
11340SOL    HW242989   7.913   4.812   7.231  2.1861  0.0710  1.2838
11341SOL     OW42990   5.031   6.183   8.483 -0.1203 -0.6000  0.1967
11341SOL    HW142991   4.991   6.140   8.558 -0.3359  0.8346  0.9430
11341SOL    HW242992   4.988   6.145   8.407  2.1843 -4.3216  0.5138
11342SOL     OW42993   1.131   9.783   5.215  0.3564  0.1088 -0.9897
11342SOL    HW142994   1.075   9.713   5.248 -1.4465  1.2571 -1.4626
11342SOL    HW242995   1.119   9.855   5.277  2.4273 -0.0429 -0.3351
11343SOL     OW42996  12.282  12.489   2.499 -0.4090 -0.2388 -0.3674
11343SOL    HW142997  12.268  12.399   2.468 -0.3646  0.5434 -2.8129
11343SOL    HW242998  12.375  12.506   2.483 -0.4703  0.3327 -0.1371
11344SOL     OW42999   8.736   0.790   7.565  0.1415  0.1593 -0.0875
11344SOL    HW143000   8.818   0.839   7.563  1.0466 -1.2503  0.8143
11344SOL    HW243001   8.676   0.842   7.511  1.5855  1.2555 -0.7144
11345SOL     OW43002   4.728   6.501   3.435  0.1386  0.1132  0.1562
11345SOL    HW143003   4.690   6.498   3.347  1.9650 -0.9637 -0.6382
11345SOL    HW243004   4.806   6.555   3.425 -0.6619  1.6603  1.6032
11346SOL     OW43005   5.710   0.923  12.032 -0.8475  0.0451 -0.0860
11346SOL    HW143006   5.702   0.828  12.038  0.2599 -0.0702 -0.1316
11346SOL    HW243007   5.747   0.938  11.945 -0.4267  0.4687  0.1599
11347SOL     OW43008   4.863   8.811  11.007 -0.2339 -0.4949  0.2453
11347SOL    HW143009   4.916   8.809  11.087 -0.6739  0.4937  0.5682
11347SOL    HW243010   4.784   8.860  11.031 -1.5576 -2.3664 -0.0973
11348SOL     OW43011   4.531   1.499   6.234 -0.4119  0.6008  0.4770
11348SOL    HW143012   4.467   1.493   6.305 -1.6511  2.3078 -0.4530
11348SOL    HW243013   4.566   1.588   6.239  1.1627  0.0335  0.3118
11349SOL     OW43014   0.059  10.073   7.408 -0.2840  0.2159 -0.0900
11349SOL    HW143015   0.030   9.989   7.373 -0.1500 -0.6331  1.7308
11349SOL    HW243016   0.133  10.098   7.353 -0.2620 -0.9136 -0.5954
11350SOL     OW43017   0.938   7.350   5.438  0.4089  0.5467 -0.6287
11350SOL    HW143018   0.949   7.386   5.525  0.1293  0.8538 -0.7199
11350SOL    HW243019   0.951   7.424   5.379  0.4347  0.3762 -0.8397
11351SOL     OW43020   5.051   5.370   8.619  0.2007  0.0482  0.4324
11351SOL    HW143021   5.010   5.299   8.569 -0.0351  0.3772  0.1492
11351SOL    HW243022   5.125   5.397   8.565  0.5130 -0.2296  0.7178
11352SOL     OW43023   6.448   7.328   5.813  0.1311  0.2803  0.3763
11352SOL    HW143024   6.437   7.339   5.719  1.0808  0.0929  0.2329
11352SOL    HW243025   6.525   7.272   5.822 -0.4405 -0.3990  1.2493
11353SOL     OW43026   1.724   1.530   4.033 -0.3671  0.6573  0.0594
11353SOL    HW143027   1.774   1.456   3.997  1.2890  2.1299 -0.8298
11353SOL    HW243028   1.715   1.510   4.126  1.1193 -0.0964  0.0668
11354SOL     OW43029   2.014   6.087  11.722 -0.1600 -0.1126  0.0006
11354SOL    HW143030   1.959   6.136  11.784  0.6438 -0.0081  0.6504
11354SOL    HW243031   2.100   6.127  11.729  0.0322 -0.3517 -0.9224
11355SOL     OW43032   8.211  11.708   6.394  0.2753 -0.1661 -0.1522
11355SOL    HW143033   8.118  11.699   6.414  0.5647 -2.0761  0.5204
11355SOL    HW243034   8.231  11.799   6.414 -1.7278  0.6731 -1.6112
11356SOL     OW43035   6.346  12.454   8.602  0.1628 -0.0200 -0.3516
11356SOL    HW143036   6.262  12.471   8.645  0.7411  2.3533  0.0187
11356SOL    HW243037   6.403  12.524   8.634  1.5677 -0.1065 -2.4826
11357SOL     OW43038   9.828  12.023   4.923  0.4018  0.0145  0.7674
11357SOL    HW143039   9.798  11.951   4.978  1.5950  0.0173  1.4593
11357SOL    HW243040   9.757  12.037   4.860 -0.2829 -1.0727  1.2751
11358SOL     OW43041   5.708   3.918   4.577 -0.0354  0.1266 -0.1325
11358SOL    HW143042   5.723   3.953   4.489 -1.8294 -0.5424 -0.7510
11358SOL    HW243043   5.751   3.982   4.635 -0.0557  1.3626 -1.4071
11359SOL     OW43044  10.305   9.433   0.692  0.6955 -0.3510  0.8059
11359SOL    HW143045  10.335   9.494   0.760  1.7081  0.1661 -0.0815
11359SOL    HW243046  10.215   9.460   0.674  0.4509 -0.4254  1.8539
11360SOL     OW43047  12.364   5.896   3.992  0.2901  0.5668 -0.4228
11360SOL    HW143048  12.319   5.814   3.970  1.4685 -0.4890  0.9013
11360SOL    HW243049  12.399   5.881   4.080  1.3819  2.1553 -0.5466
11361SOL     OW43050   1.155  10.159   6.873 -0.3136  0.3445 -0.1638
11361SOL    HW143051   1.242  10.168   6.912  0.1656  1.5363 -1.4215
11361SOL    HW243052   1.172  10.135   6.782 -1.2570  1.2553 -0.6102
11362SOL     OW43053   0.791   2.120   0.924  0.4751 -0.0381 -0.5643
11362SOL    HW143054   0.771   2.109   0.831  0.4474 -0.3066 -0.5294
11362SOL    HW243055   0.712   2.088   0.969  0.5276 -0.0024 -0.4473
11363SOL     OW43056  12.138   8.913   1.491 -0.3775 -0.1987  0.1698
11363SOL    HW143057  12.122   8.971   1.566 -1.5627 -0.6044  0.2540
11363SOL    HW243058  12.102   8.961   1.416  0.1094 -0.1263 -0.0195
11364SOL     OW43059   3.655   8.183   1.420  0.0988 -0.6306  0.3037
11364SOL    HW143060   3.607   8.104   1.445  1.0060 -0.9313  1.1552
11364SOL    HW243061   3.712   8.202   1.495  0.1413  0.6448 -0.0241
11365SOL     OW43062   3.970  11.526   8.258  1.0488 -0.6362 -0.1014
11365SOL    HW143063   3.978  11.528   8.163 -0.3601  0.6299 -0.2380
11365SOL    HW243064   4.042  11.582   8.290  1.0320 -0.4033 -0.4722
11366SOL     OW43065   4.528   9.359  11.755  0.9021  0.4990  0.4540
11366SOL    HW143066   4.593   9.325  11.817  2.1576  2.1683  0.1251
11366SOL    HW243067   4.480   9.425  11.805 -0.2952 -0.4257  0.5665
11367SOL     OW43068   1.035  11.507   6.890  0.3177  0.4341  0.6116
11367SOL    HW143069   0.988  11.553   6.820  1.7809  1.0536 -0.0052
11367SOL    HW243070   1.009  11.553   6.970  0.8034  1.5663  0.1387
11368SOL     OW43071  10.803   1.968   3.234  0.0877  0.0393  0.2211
11368SOL    HW143072  10.872   1.942   3.173 -0.8010 -1.6541 -0.1257
11368SOL    HW243073  10.721   1.944   3.189 -0.7178  1.3559  0.9095
11369SOL     OW43074  10.470  10.278   9.569  0.1439 -0.2449  0.2464
11369SOL    HW143075  10.410  10.346   9.539  1.4804  1.5491  1.4405
11369SOL    HW243076  10.438  10.254   9.656 -0.1606 -0.9398 -0.0561
11370SOL     OW43077   3.164   9.892   4.821  0.1816 -0.4549 -0.3544
11370SOL    HW143078   3.152   9.982   4.790 -0.0771  0.1032  1.2801
11370SOL    HW243079   3.079   9.850   4.806 -0.9253  0.6655  2.1861
11371SOL     OW43080  10.432   2.512   0.204 -0.9992  0.1388 -0.6141
11371SOL    HW143081  10.340   2.537   0.194 -0.9896  0.2926 -0.3282
11371SOL    HW243082  10.478   2.594   0.221 -1.0628 -0.1234  0.9877
11372SOL     OW43083   3.565   3.849   8.333 -0.2042  0.4738  0.0678
11372SOL    HW143084   3.554   3.773   8.277 -1.4839  0.2582  0.5755
11372SOL    HW243085   3.581   3.922   8.273  1.8828 -0.3020 -0.3817
11373SOL     OW43086   9.158  12.309   4.682  0.4841 -0.0432  0.4967
11373SOL    HW143087   9.118  12.222   4.674  0.7706 -0.2172  0.9301
11373SOL    HW243088   9.250  12.295   4.660  0.8998 -0.1839  2.1599
11374SOL     OW43089  11.943   1.129   1.934  0.0864 -0.0142  0.3345
11374SOL    HW143090  12.015   1.149   1.874  0.2836  0.1108  0.6116
11374SOL    HW243091  11.975   1.157   2.020  0.4269 -1.6164  0.7715
11375SOL     OW43092  12.401   8.907   8.813 -0.0919  0.1040 -0.2600
11375SOL    HW143093  12.355   8.886   8.895 -1.3850  0.0578 -0.9664
11375SOL    HW243094  12.489   8.872   8.825 -0.2626  0.0837  1.1071
11376SOL     OW43095  11.046   5.451  12.315 -0.4647  0.2528  0.1203
11376SOL    HW143096  11.090   5.466  12.398  0.4419 -0.1038 -0.2867
11376SOL    HW243097  11.060   5.532  12.265 -0.4986  0.2384  0.0859
11377SOL     OW43098   8.325  12.586   8.584 -0.1184  0.1178 -0.1502
11377SOL    HW143099   8.256  12.595   8.517 -0.2148 -0.3997 -0.1213
11377SOL    HW243100   8.403  12.621   8.542 -0.2748  0.1894 -0.3850
11378SOL     OW43101   4.046  10.602  10.705  0.0783  0.4949 -0.4042
11378SOL    HW143102   4.122  10.646  10.666 -0.4300 -0.1945 -2.2892
11378SOL    HW243103   4.033  10.646  10.789  2.6177  0.5567  0.0276
11379SOL     OW43104   3.529   6.453   7.503  0.1311  0.6637 -0.0535
11379SOL    HW143105   3.530   6.533   7.554 -0.1829  1.0677 -0.6642
11379SOL    HW243106   3.620   6.440   7.477  0.0572  1.3244 -0.6974
11380SOL     OW43107   9.631   1.072   9.452  0.2870 -0.1950 -0.4702
11380SOL    HW143108   9.602   1.119   9.530  0.4726  1.4638 -1.3634
11380SOL    HW243109   9.581   0.990   9.454  2.0081 -1.3360  2.6277
11381SOL     OW43110  12.042  10.903   0.849  0.6258  0.1684  0.3161
11381SOL    HW143111  11.982  10.832   0.872 -1.4083  1.2834 -1.2393
11381SOL    HW243112  12.033  10.966   0.921 -1.8324  1.3105 -0.8649
11382SOL     OW43113   7.354   7.003   1.312 -0.5388  0.0603  0.0567
11382SOL    HW143114   7.431   7.059   1.325  0.1542 -0.8683  0.0442
11382SOL    HW243115   7.390   6.915   1.300 -1.6577 -0.7157  1.8935
11383SOL     OW43116   6.309   6.194  12.553 -0.5636 -0.8559 -0.1114
11383SOL    HW143117   6.395   6.236  12.545  0.1441 -2.4290 -1.2355
11383SOL    HW243118   6.281   6.213  12.642  0.3088  0.8396 -0.1499
11384SOL     OW43119   2.436   4.763   8.518 -0.1162 -0.5653 -0.4942
11384SOL    HW143120   2.513   4.810   8.551  0.8669 -1.7408 -1.0216
11384SOL    HW243121   2.370   4.773   8.586  0.7616 -0.1604  0.3184
11385SOL     OW43122   2.031   4.469   3.512  0.0557  0.6042 -0.4951
11385SOL    HW143123   1.973   4.433   3.446  1.6619 -0.2700 -1.5017
11385SOL    HW243124   1.981   4.465   3.594 -0.2595 -3.1080 -0.6951
11386SOL     OW43125   5.480   1.036  10.378  0.5073  0.0072  0.0920
11386SOL    HW143126   5.390   1.007  10.362 -0.6372  2.5263  1.3019
11386SOL    HW243127   5.497   1.014  10.470  1.5831 -1.3991 -0.4037
11387SOL     OW43128  12.247   6.035   2.179  0.3222 -0.3770 -0.2840
11387SOL    HW143129  12.235   5.978   2.103  0.8327 -0.1370 -0.5496
11387SOL    HW243130  12.338   6.022   2.205 -0.0445 -1.0388  0.7657
11388SOL     OW43131   0.320   7.839   2.438  0.0024  0.5417  0.4753
11388SOL    HW143132   0.344   7.791   2.359  0.3683 -0.1420  0.9913
11388SOL    HW243133   0.389   7.903   2.450  0.1876  0.3401  0.4891
11389SOL     OW43134   7.213   5.515   1.295 -0.0434 -0.9460 -0.2945
11389SOL    HW143135   7.155   5.585   1.265  1.8919 -0.0770 -2.3240
11389SOL    HW243136   7.159   5.436   1.289 -1.7059  0.0825  0.2328
11390SOL     OW43137   5.655   7.452   0.977  1.0919 -0.0387  0.8829
11390SOL    HW143138   5.697   7.400   0.908 -1.1993 -1.2504  0.2814
11390SOL    HW243139   5.577   7.488   0.936 -0.0842 -0.3924  2.6725
11391SOL     OW43140  10.684   7.157  10.155  0.3616 -0.2131 -0.5528
11391SOL    HW143141  10.763   7.142  10.103  1.1541 -0.6087  0.7140
11391SOL    HW243142  10.626   7.085  10.131  0.8996 -0.6523 -0.5573
11392SOL     OW43143   1.622   5.509   8.517  0.0354  0.6308 -0.1910
11392SOL    HW143144   1.616   5.422   8.478 -0.1479  1.0093 -1.0376
11392SOL    HW243145   1.640   5.493   8.609  0.7629 -0.2889 -0.4758
11393SOL     OW43146  11.185   1.049   7.557  0.2504 -0.8658 -0.3258
11393SOL    HW143147  11.205   0.955   7.550  1.5734 -0.6417  0.1213
11393SOL    HW243148  11.091   1.052   7.577  0.0008 -2.0568 -1.1835
11394SOL     OW43149   0.139   1.756  11.710  0.7013 -0.3578 -0.4183
11394SOL    HW143150   0.097   1.800  11.637 -1.2851 -0.1789  0.7471
11394SOL    HW243151   0.122   1.663  11.696 -0.6815 -0.2530  0.3262
11395SOL     OW43152   4.314   3.531  12.474  0.6653 -0.7193  0.5775
11395SOL    HW143153   4.221   3.519  12.455  0.1351  0.1099  2.3548
11395SOL    HW243154   4.317   3.607  12.533  2.6405  0.2384 -0.6325
11396SOL     OW43155  12.551  10.319   6.670 -0.2873 -0.2997  0.0215
11396SOL    HW143156  12.577  10.276   6.588 -0.3421  0.4903 -0.4134
11396SOL    HW243157  12.573  10.411   6.657 -2.1618  0.1939  0.1129
11397SOL     OW43158   8.346   7.415   9.184 -0.0432  0.2647 -0.0204
11397SOL    HW143159   8.347   7.322   9.208 -0.7116  0.1504 -0.3956
11397SOL    HW243160   8.347   7.462   9.267 -0.6438 -0.0969  0.1946
11398SOL     OW43161  10.554  12.053   6.016 -0.2686  0.3296 -0.3868
11398SOL    HW143162  10.565  11.980   5.956  2.2500  1.1158 -0.9776
11398SOL    HW243163  10.614  12.120   5.985  0.1405  1.3001  2.2097
11399SOL     OW43164   7.802   3.658   1.692 -0.0327  0.8330 -0.1593
11399SOL    HW143165   7.766   3.571   1.679  0.2815  0.7976 -0.8469
11399SOL    HW243166   7.818   3.664   1.786 -1.2301  0.6229  0.0712
11400SOL     OW43167  10.702  10.376   8.612 -0.2791  0.0258  0.3350
11400SOL    HW143168  10.733  10.440   8.547  0.9921 -0.5349  0.3646
11400SOL    HW243169  10.684  10.428   8.690 -0.6417  0.5395 -0.0801
11401SOL     OW43170   9.787   7.299   3.811 -0.0412  0.1960 -1.0644
11401SOL    HW143171   9.830   7.214   3.796 -0.9082 -0.1727 -1.5360
11401SOL    HW243172   9.811   7.351   3.734 -0.5054 -0.0436 -1.3767
11402SOL     OW43173   9.535   2.803  12.090  0.5649  0.2258 -0.7490
11402SOL    HW143174   9.605   2.853  12.049  2.2840 -0.8890  0.7125
11402SOL    HW243175   9.546   2.714  12.057 -1.2006  0.3204 -1.7418
11403SOL     OW43176   4.395   4.939   4.094  0.9434 -0.5384  0.3973
11403SOL    HW143177   4.480   4.977   4.116  0.1294  0.9155  1.1995
11403SOL    HW243178   4.362   4.994   4.023  0.9472 -1.5107 -0.3771
11404SOL     OW43179   9.779  11.681  10.356  0.3661 -0.5220 -0.7955
11404SOL    HW143180   9.688  11.690  10.381  0.7279  1.8927 -0.1211
11404SOL    HW243181   9.776  11.646  10.267 -1.1504 -1.4900 -0.3983
11405SOL     OW43182   5.598  11.872   7.290  0.3507 -0.2486  0.5351
11405SOL    HW143183   5.642  11.956   7.279 -0.2182 -0.1843 -1.9324
11405SOL    HW243184   5.622  11.843   7.378 -0.4444  3.0597  1.9906
11406SOL     OW43185   9.598   9.281  12.533  0.8777  0.2366  0.2381
11406SOL    HW143186   9.512   9.251  12.564  0.8150 -0.4069 -0.5227
11406SOL    HW243187   9.659   9.251  12.600  0.7528 -1.1815 -0.2456
11407SOL     OW43188   8.453   2.666   3.335  0.5028  0.1621  0.2487
11407SOL    HW143189   8.442   2.582   3.291  0.9445  0.5208 -0.5683
11407SOL    HW243190   8.388   2.723   3.294  0.0015  0.1576  1.0049
11408SOL     OW43191   3.445  11.376   9.114  0.9082 -0.4253  0.0306
11408SOL    HW143192   3.523  11.351   9.065  0.7239  2.7421 -2.1577
11408SOL    HW243193   3.478  11.426   9.189  1.0405  0.5189 -0.6423
11409SOL     OW43194   9.485   2.581   1.850 -0.1336 -0.2155 -0.0286
11409SOL    HW143195   9.531   2.529   1.784  0.3890  1.6174 -1.1839
11409SOL    HW243196   9.536   2.568   1.930  0.0303 -1.3773 -0.3007
11410SOL     OW43197   0.310   5.479   0.345 -0.5953 -0.4959  0.3088
11410SOL    HW143198   0.394   5.490   0.301 -0.9922 -2.4128 -1.0248
11410SOL    HW243199   0.269   5.565   0.339  0.9825  0.3077  0.4273
11411SOL     OW43200   2.258   1.619   6.095 -0.1799  0.8538 -0.4602
11411SOL    HW143201   2.342   1.635   6.051 -0.9500  2.1171 -1.5794
11411SOL    HW243202   2.253   1.687   6.162 -0.5767  1.1769 -0.8153
11412SOL     OW43203   7.978   5.800   4.324 -0.2451  0.2131  1.1583
11412SOL    HW143204   7.903   5.855   4.301  0.4413  0.4676 -0.5334
11412SOL    HW243205   7.974   5.727   4.262 -0.5484 -1.1743  2.7087
11413SOL     OW43206   6.951   6.048   4.873 -0.7482  0.3171 -0.1984
11413SOL    HW143207   6.992   5.975   4.827  0.7179  1.0308 -0.0704
11413SOL    HW243208   6.864   6.015   4.897 -1.0826 -0.5119 -2.3186
11414SOL     OW43209   4.232   1.537   8.402  0.0949 -0.1253 -0.7247
11414SOL    HW143210   4.206   1.611   8.347 -1.1825 -0.7342 -0.9682
11414SOL    HW243211   4.168   1.537   8.473  1.2759  0.1860  0.3793
11415SOL     OW43212   9.886  10.990  11.896 -0.0785 -1.1348  0.2847
11415SOL    HW143213   9.943  11.038  11.955  0.0460 -0.3210 -0.4647
11415SOL    HW243214   9.802  11.037  11.900 -0.1411 -1.2200  0.0133
11416SOL     OW43215   1.523  12.505  11.233  0.1278  0.2969 -0.7303
11416SOL    HW143216   1.511  12.576  11.296  0.0390 -1.1603  0.9725
11416SOL    HW243217   1.618  12.496  11.225  0.1460 -0.0041 -0.2127
11417SOL     OW43218   1.623   3.812   0.412 -0.0587  0.0278  0.1798
11417SOL    HW143219   1.661   3.899   0.421  1.3334 -0.5884  0.5531
11417SOL    HW243220   1.572   3.816   0.331 -0.1178  1.2090  0.2559
11418SOL     OW43221   0.984  11.318  10.393 -0.3545 -0.0134 -0.1100
11418SOL    HW143222   1.061  11.304  10.338  0.0761  0.1240  0.4414
11418SOL    HW243223   1.020  11.339  10.479 -1.0051 -0.9536  0.4177
11419SOL     OW43224  11.017  12.372  12.444  0.2707  0.1650  0.3312
11419SOL    HW143225  11.063  12.347  12.524  0.5808  0.3313  0.2046
11419SOL    HW243226  10.996  12.288  12.402  1.5978  0.1082 -0.2572
11420SOL     OW43227   4.527   0.836   2.066  0.9371  0.6805 -0.3280
11420SOL    HW143228   4.565   0.857   1.980 -1.1162 -0.9015 -1.7092
11420SOL    HW243229   4.542   0.742   2.077 -1.6315  0.1738 -0.5327
11421SOL     OW43230   0.837   8.662   3.046  0.2774 -0.1097  0.1539
11421SOL    HW143231   0.913   8.712   3.018  0.7328 -0.3137  0.9808
11421SOL    HW243232   0.851   8.647   3.140  0.1359 -1.7465 -0.0618
11422SOL     OW43233   9.241  10.623   1.352 -0.6150 -0.5044  0.1427
11422SOL    HW143234   9.212  10.713   1.335 -0.7415 -0.6347 -0.3516
11422SOL    HW243235   9.284  10.596   1.271 -0.9393 -1.0322  0.1382
11423SOL     OW43236   5.109   7.145  11.492  0.6607 -0.5977  0.4100
11423SOL    HW143237   5.015   7.154  11.476  0.8773  0.0307 -0.6540
11423SOL    HW243238   5.135   7.071  11.438  0.8312 -0.5507  0.4293
11424SOL     OW43239   1.498   4.380   8.820 -0.1777  0.2371 -0.1352
11424SOL    HW143240   1.513   4.379   8.726 -0.9906 -0.1977 -0.2741
11424SOL    HW243241   1.402   4.381   8.829 -0.1638 -1.3089  0.6667
11425SOL     OW43242   2.835   6.227   4.310 -0.0991  0.0129 -0.1481
11425SOL    HW143243   2.909   6.167   4.301  1.3615  1.7526 -0.3763
11425SOL    HW243244   2.844   6.263   4.399 -1.6579 -0.9613  0.4338
11426SOL     OW43245   6.845   5.758   1.703 -0.2376 -0.0894 -0.1285
11426SOL    HW143246   6.821   5.695   1.771  4.7025  0.7916  2.9614
11426SOL    HW243247   6.818   5.843   1.739  0.5275  0.1956 -0.1929
11427SOL     OW43248   4.483   9.757   2.009 -0.2416  0.1480  0.5888
11427SOL    HW143249   4.432   9.787   2.085  0.5120  1.3479  0.6503
11427SOL    HW243250   4.569   9.796   2.022  0.4572 -1.1525  0.0496
11428SOL     OW43251   5.097   2.409   3.095 -0.4077 -0.4717 -0.0306
11428SOL    HW143252   5.179   2.406   3.046 -0.4076  0.1633 -0.0778
11428SOL    HW243253   5.111   2.478   3.161  0.3159 -2.5716  2.1849
11429SOL     OW43254   0.252   6.436   1.959  0.5937 -1.0679 -0.3928
11429SOL    HW143255   0.295   6.417   2.042 -0.1218 -0.5657  0.1056
11429SOL    HW243256   0.291   6.518   1.929  0.7034 -1.1406 -0.4477
11430SOL     OW43257   7.339   2.391   7.144  0.1904  0.2581 -0.0674
11430SOL    HW143258   7.410   2.347   7.098  0.3138 -0.1384  0.4802
11430SOL    HW243259   7.380   2.429   7.221  0.0117  1.0245 -0.3463
11431SOL     OW43260   4.970  10.231   4.124 -0.1221  0.2889 -0.6940
11431SOL    HW143261   5.004  10.152   4.168  0.4500  0.6636 -0.4546
11431SOL    HW243262   4.910  10.197   4.058  0.7275 -0.3971 -1.1401
11432SOL     OW43263   4.148   9.999   9.404  0.3975 -0.1732 -0.2214
11432SOL    HW143264   4.161  10.075   9.460  0.1519  0.7301 -1.3598
11432SOL    HW243265   4.225   9.944   9.421  0.0786 -0.1627  1.3513
11433SOL     OW43266   5.345  12.483   0.461  0.2321 -0.2771 -0.1199
11433SOL    HW143267   5.422  12.533   0.434  0.0439 -0.3423 -0.8061
11433SOL    HW243268   5.284  12.492   0.388  0.0384 -1.1651 -0.0809
11434SOL     OW43269  12.565   9.937  10.733  0.3244  0.2541 -0.3416
11434SOL    HW143270  12.533   9.849  10.711  0.5041  0.3233 -0.9094
11434SOL    HW243271  12.495   9.975  10.787 -0.6452  0.4504 -1.6719
11435SOL     OW43272  10.802  11.209   0.512 -0.4029  0.7684 -0.0848
11435SOL    HW143273  10.884  11.253   0.492 -0.3883  0.7831  0.0102
11435SOL    HW243274  10.827  11.119   0.534 -0.6676 -0.5230 -4.1052
11436SOL     OW43275  12.150  11.898  11.807 -0.0368  0.4776 -0.2026
11436SOL    HW143276  12.210  11.931  11.873 -0.7529  1.6230 -0.0922
11436SOL    HW243277  12.181  11.809  11.788  2.3560  1.3738 -0.9407
11437SOL     OW43278   9.305   4.185   9.019 -0.1717 -0.9142 -0.6394
11437SOL    HW143279   9.295   4.139   8.936 -1.2507  1.3404 -1.8550
11437SOL    HW243280   9.231   4.155   9.072 -1.5933  0.2686 -1.8754
11438SOL     OW43281   8.629   9.207  11.089  0.3544  0.0455 -0.1604
11438SOL    HW143282   8.686   9.148  11.139 -1.4642 -1.3669  0.3703
11438SOL    HW243283   8.542   9.167  11.095 -0.1220  0.0642 -4.0070
11439SOL     OW43284   7.573  10.342   4.194 -0.2247  0.1631 -0.3740
11439SOL    HW143285   7.552  10.280   4.123  0.6363  0.8526 -1.2529
11439SOL    HW243286   7.556  10.292   4.274  0.4159 -1.2260 -1.0528
11440SOL     OW43287   8.983   5.689   0.131 -0.1916  0.5405 -0.5810
11440SOL    HW143288   9.044   5.694   0.057  0.5010 -1.7596 -0.2426
11440SOL    HW243289   8.995   5.771   0.178  2.2442  0.4234 -0.8713
11441SOL     OW43290   6.170   0.353   5.106 -0.1639 -0.1342 -0.5151
11441SOL    HW143291   6.190   0.295   5.032 -1.4490 -0.1799 -0.8682
11441SOL    HW243292   6.116   0.422   5.067 -0.3367  0.1745  0.2677
11442SOL     OW43293   3.222   3.083   7.960 -0.2184 -0.1341  0.0230
11442SOL    HW143294   3.276   3.107   8.035  0.7355 -2.4015  0.1306
11442SOL    HW243295   3.159   3.021   7.995 -0.3277 -0.5557 -0.8931
11443SOL     OW43296   7.378   0.574   3.437 -0.3828 -0.3867 -0.9222
11443SOL    HW143297   7.329   0.654   3.452  0.2476  0.0545 -1.1690
11443SOL    HW243298   7.311   0.506   3.425 -0.9201  0.1921 -1.2243
11444SOL     OW43299   6.851  12.137   4.733 -0.1982  0.4715 -0.0407
11444SOL    HW143300   6.831  12.058   4.783  0.9773  0.0717 -0.1790
11444SOL    HW243301   6.829  12.209   4.792 -1.2193  0.0635  0.1110
11445SOL     OW43302   7.544  10.777   0.989  0.7396 -0.3080  0.4723
11445SOL    HW143303   7.465  10.824   0.961  0.9922  0.5654  1.1862
11445SOL    HW243304   7.611  10.845   0.997  1.3402 -0.9207  0.6795
11446SOL     OW43305   0.829   9.577   0.454 -0.3031 -0.1497  0.0066
11446SOL    HW143306   0.903   9.555   0.510 -0.4394 -2.1381 -0.5347
11446SOL    HW243307   0.837   9.672   0.440  1.9104 -0.2407  0.2844
11447SOL     OW43308   2.922   7.243  10.332 -0.0037 -0.1052 -0.4100
11447SOL    HW143309   2.928   7.253  10.427 -0.8493  1.8585 -0.5084
11447SOL    HW243310   2.967   7.161  10.313 -0.8041 -1.1252  1.7978
11448SOL     OW43311   0.417   3.697  11.907 -0.6577 -0.1184 -0.5922
11448SOL    HW143312   0.337   3.724  11.863  0.6838 -0.4759 -3.4273
11448SOL    HW243313   0.440   3.614  11.867  1.2680  0.1005 -0.0410
11449SOL     OW43314   5.530   0.187   9.309  0.3998  0.2974 -0.6826
11449SOL    HW143315   5.602   0.130   9.282  0.1146  0.7115 -2.3992
11449SOL    HW243316   5.462   0.127   9.339  1.6489 -0.0822  1.5968
11450SOL     OW43317  11.382   5.304   2.291 -0.3369 -0.2016 -0.0358
11450SOL    HW143318  11.388   5.230   2.231  0.2227 -1.0021  0.9670
11450SOL    HW243319  11.364   5.264   2.376  2.7527  0.5082  1.0887
11451SOL     OW43320   6.230   2.230  12.521 -0.1745  0.4082  0.7430
11451SOL    HW143321   6.187   2.257  12.602  0.2946  0.3816  1.0057
11451SOL    HW243322   6.322   2.255  12.533  0.2207 -1.0377  0.8639
11452SOL     OW43323   9.997   4.341  10.375 -0.4608 -0.1335 -0.0809
11452SOL    HW143324   9.947   4.392  10.311 -0.3369  0.4529  0.2859
11452SOL    HW243325  10.065   4.298  10.323 -1.6665 -1.4104 -0.6875
11453SOL     OW43326   9.394   7.821   9.859 -0.0678  0.0733 -0.1487
11453SOL    HW143327   9.392   7.729   9.885  0.1458 -0.5240 -2.1088
11453SOL    HW243328   9.478   7.853   9.891 -1.0631  0.2645  2.5395
11454SOL     OW43329   9.962   0.929   4.787  0.4450  0.4534 -0.7622
11454SOL    HW143330  10.037   0.982   4.762  0.8159 -0.7391 -2.3033
11454SOL    HW243331   9.887   0.973   4.748  0.6106  0.4664 -1.0673
11455SOL     OW43332   1.886   7.098   3.716 -0.3070  0.1709 -0.2632
11455SOL    HW143333   1.949   7.149   3.665 -0.9536 -0.0861 -1.3566
11455SOL    HW243334   1.861   7.026   3.659 -3.0818  1.3402 -0.7113
11456SOL     OW43335  12.049   8.245   7.424  0.0609 -0.0859 -0.3862
11456SOL    HW143336  12.132   8.265   7.381  0.1738 -0.6659 -0.4452
11456SOL    HW243337  12.024   8.326   7.468 -0.1532  0.5735 -1.6906
11457SOL     OW43338   2.709  11.944   2.256  0.1476 -0.2633  0.0385
11457SOL    HW143339   2.737  11.857   2.228 -3.8688 -1.9284  0.4600
11457SOL    HW243340   2.687  11.990   2.174  0.7898 -0.1798 -0.0963
11458SOL     OW43341   5.757   1.906   6.482 -0.2180  0.0487  0.1194
11458SOL    HW143342   5.795   1.937   6.564 -0.3808 -0.2928  0.3247
11458SOL    HW243343   5.758   1.811   6.490  0.5667 -0.0204 -0.6331
11459SOL     OW43344   8.269   0.723   5.452 -0.1325 -0.0717 -0.5771
11459SOL    HW143345   8.352   0.744   5.408 -0.0484  0.8448 -0.0216
11459SOL    HW243346   8.295   0.670   5.528  0.0145  0.6358 -0.1197
11460SOL     OW43347  11.538   4.751   0.932 -0.2098  0.3251  0.2755
11460SOL    HW143348  11.528   4.677   0.991 -2.5731 -0.0829 -0.5478
11460SOL    HW243349  11.500   4.825   0.980 -0.6472  0.3425 -0.0968
11461SOL     OW43350   7.183   7.711  11.340 -0.0731 -0.1678 -0.6721
11461SOL    HW143351   7.209   7.718  11.431  1.6302  0.7942 -1.1739
11461SOL    HW243352   7.163   7.801  11.314 -0.0361 -0.3500 -1.3696
11462SOL     OW43353   9.251   2.007   5.752 -0.4654 -0.0653  0.2028
11462SOL    HW143354   9.179   1.959   5.711 -1.2085  0.1434  1.2214
11462SOL    HW243355   9.237   1.996   5.846  0.3581  0.6832  0.4300
11463SOL     OW43356   3.366   3.324   9.885 -0.0199  0.3074 -0.2366
11463SOL    HW143357   3.371   3.263   9.811  1.2417  0.9375 -0.6958
11463SOL    HW243358   3.277   3.313   9.919 -0.7335  0.2140 -2.0225
11464SOL     OW43359  10.464  11.342   3.131  0.3155 -0.4160  0.1998
11464SOL    HW143360  10.549  11.299   3.124  0.0112 -1.0096  0.0352
11464SOL    HW243361  10.401  11.270   3.130 -0.2452  0.0670 -0.7747
11465SOL     OW43362   0.165   5.256   0.869  0.0578 -0.0407 -0.2675
11465SOL    HW143363   0.096   5.299   0.920  1.6839  1.3498  0.8573
11465SOL    HW243364   0.245   5.301   0.894  1.4385 -1.7675 -1.3554
11466SOL     OW43365   4.471   8.699   5.535  0.0993 -0.2470  0.0549
11466SOL    HW143366   4.540   8.661   5.589 -0.1546  0.8977  1.2217
11466SOL    HW243367   4.513   8.773   5.490  0.0800 -0.6541 -0.6520
11467SOL     OW43368   7.452   8.255   5.345 -0.3129 -0.2511 -0.5220
11467SOL    HW143369   7.364   8.219   5.352 -0.0300 -0.9111 -0.2590
11467SOL    HW243370   7.508   8.189   5.385  0.1967  0.5976  0.2226
11468SOL     OW43371   2.022  12.060   8.980  0.3657 -0.1343 -0.5338
11468SOL    HW143372   2.033  12.108   9.062 -1.8568  0.9178 -0.7647
11468SOL    HW243373   2.101  12.008   8.972  0.0977 -1.3697  2.9963
11469SOL     OW43374   4.600  10.995   7.925  0.1972  0.1748  0.2450
11469SOL    HW143375   4.600  10.955   7.838 -0.9227  0.5019  0.0807
11469SOL    HW243376   4.676  10.957   7.969 -0.2506 -1.3578 -0.2567
11470SOL     OW43377   4.396   1.187   2.404 -0.5758  0.3034  0.5701
11470SOL    HW143378   4.414   1.281   2.399 -1.4570  0.4248 -1.3714
11470SOL    HW243379   4.426   1.153   2.320 -2.5741 -0.6961  0.1959
11471SOL     OW43380   7.012   3.576   4.098  0.2943 -0.1197  0.2897
11471SOL    HW143381   7.052   3.544   4.179  0.4400 -1.3749 -0.2608
11471SOL    HW243382   6.931   3.526   4.090 -1.1525  1.9775  1.0875
11472SOL     OW43383  11.896  11.281   1.685  0.1332 -0.1059  0.5419
11472SOL    HW143384  11.805  11.290   1.713 -0.2685 -0.7669 -0.5132
11472SOL    HW243385  11.899  11.320   1.598  1.3808  1.9505  1.4279
11473SOL     OW43386   4.174   0.628   9.035 -0.1289  0.1293  0.3073
11473SOL    HW143387   4.261   0.664   9.017 -0.1420  0.3864  0.7581
11473SOL    HW243388   4.157   0.571   8.960  1.8292 -2.5650  1.7502
11474SOL     OW43389  10.158   5.794   6.002  0.0140  0.4380 -0.0348
11474SOL    HW143390  10.112   5.827   5.925  0.5975 -0.0008 -0.5820
11474SOL    HW243391  10.233   5.746   5.966  0.0792 -0.0960  0.7899
11475SOL     OW43392  12.410   2.511   3.646  0.1090  0.2106 -0.2903
11475SOL    HW143393  12.495   2.509   3.602  0.4432  0.0496  0.3546
11475SOL    HW243394  12.429   2.543   3.734 -0.6548  1.2184 -0.4774
11476SOL     OW43395   2.001   2.420  10.315 -0.4074  0.0671  0.3656
11476SOL    HW143396   1.962   2.397  10.399 -0.0064  1.3300  0.9118
11476SOL    HW243397   1.992   2.340  10.262 -2.0508 -0.2686  1.0773
11477SOL     OW43398   5.132   1.478   6.714 -0.4908  0.3335  0.1203
11477SOL    HW143399   5.223   1.507   6.712 -0.7863  1.2730 -1.7704
11477SOL    HW243400   5.134   1.397   6.766  1.3631  0.4585  0.3169
11478SOL     OW43401   8.873   5.888   5.388  0.2186 -0.2755  0.1863
11478SOL    HW143402   8.964   5.917   5.397 -0.0106  0.2383  0.9337
11478SOL    HW243403   8.879   5.802   5.348  0.9558  0.5044 -1.4750
11479SOL     OW43404   9.161   0.180   3.963 -0.7195 -0.0025  0.7117
11479SOL    HW143405   9.214   0.201   3.886 -1.8320  2.2163  0.4638
11479SOL    HW243406   9.134   0.089   3.950 -0.1921  0.0720 -1.1130
11480SOL     OW43407   8.450  12.471  12.129 -0.0921  0.3099  0.0031
11480SOL    HW143408   8.418  12.430  12.050  0.7298 -4.0153  1.6518
11480SOL    HW243409   8.376  12.466  12.191  0.4040  0.1531  0.5989
11481SOL     OW43410   5.609   5.762   9.854  0.5146 -0.1819  0.4666
11481SOL    HW143411   5.697   5.799   9.852  1.1861 -1.6370  1.7602
11481SOL    HW243412   5.558   5.820   9.797  2.4251  0.3169 -0.8305
11482SOL     OW43413   4.435   1.499   0.186  0.1987  0.6822 -0.2826
11482SOL    HW143414   4.433   1.413   0.229 -0.0657  0.8195 -0.0229
11482SOL    HW243415   4.378   1.554   0.239 -1.0382  0.5673 -1.4475
11483SOL     OW43416   5.882  10.597   6.066  0.1731  0.4642 -0.0755
11483SOL    HW143417   5.908  10.519   6.115 -0.6456  0.4400  0.3458
11483SOL    HW243418   5.964  10.641   6.044  0.6149 -0.2581  0.1101
11484SOL     OW43419   5.420   9.250   0.400  0.3149  0.3523  0.3278
11484SOL    HW143420   5.367   9.170   0.402 -0.4735  0.8173 -0.9077
11484SOL    HW243421   5.510   9.220   0.413  0.1958 -0.9042 -1.4507
11485SOL     OW43422  10.526   3.049   4.791  0.0436 -0.4215  0.3085
11485SOL    HW143423  10.452   3.075   4.845  0.2202 -0.6308  0.6550
11485SOL    HW243424  10.546   3.127   4.739 -1.9158 -1.0777 -1.5326
11486SOL     OW43425   0.033   9.681   7.359 -0.3135  0.2398 -0.0278
11486SOL    HW143426   0.103   9.732   7.399 -0.5223  1.1339 -0.7578
11486SOL    HW243427   0.072   9.595   7.343  0.8160  0.8940 -0.9364
11487SOL     OW43428  10.031  11.802  10.441  0.2525  0.1439  0.1663
11487SOL    HW143429   9.941  11.772  10.431  0.5083 -0.3317 -0.8524
11487SOL    HW243430  10.042  11.869  10.374  0.6021  0.3363  0.4122
11488SOL     OW43431   9.533   1.946   2.408 -0.0556  0.1296  0.1820
11488SOL    HW143432   9.616   1.903   2.427 -0.5443 -0.6977  0.5239
11488SOL    HW243433   9.472   1.873   2.392 -0.3098  0.7405 -1.8500
11489SOL     OW43434   3.380   3.841  12.074  0.1214  0.6516  0.2600
11489SOL    HW143435   3.311   3.881  12.126 -1.0351  0.3416 -0.9849
11489SOL    HW243436   3.429   3.915  12.038  0.9084  0.8646  1.7221
11490SOL     OW43437   2.167   8.060   5.461  0.2240  0.2717 -0.2249
11490SOL    HW143438   2.081   8.094   5.437 -0.3168 -1.4408 -0.7936
11490SOL    HW243439   2.166   8.058   5.557 -0.3925  0.1721 -0.2323
11491SOL     OW43440   7.698   7.299   2.273  0.2549 -0.2267  0.2718
11491SOL    HW143441   7.610   7.336   2.267  0.1447  0.2048  3.1889
11491SOL    HW243442   7.756   7.376   2.279  0.3724 -0.4123  2.5251
11492SOL     OW43443  12.387  10.633   8.116  0.5888  0.9396 -0.0545
11492SOL    HW143444  12.366  10.726   8.104 -0.3483  1.1518  2.5978
11492SOL    HW243445  12.482  10.629   8.106  1.2051  2.9548  3.2671
11493SOL     OW43446   8.879   8.667  11.477  0.1816 -0.0312 -0.0735
11493SOL    HW143447   8.870   8.762  11.477 -0.4429 -0.0760 -0.7682
11493SOL    HW243448   8.912   8.647  11.389  0.9967 -0.4052  0.3074
11494SOL     OW43449  10.622  11.634   3.812  0.0580  0.8370  0.5488
11494SOL    HW143450  10.611  11.541   3.830 -2.5313  1.3431  2.0379
11494SOL    HW243451  10.545  11.658   3.760  1.5985  1.8489 -1.4307
11495SOL     OW43452   1.897   6.765   8.811  0.3697 -0.4424  0.1990
11495SOL    HW143453   1.986   6.782   8.844  1.4558 -2.6374 -1.3145
11495SOL    HW243454   1.899   6.796   8.721 -0.6405  0.0947  0.3540
11496SOL     OW43455   5.972   7.887   6.764  0.0833  0.0676  0.3339
11496SOL    HW143456   6.008   7.887   6.675  0.7240  0.5048  0.5856
11496SOL    HW243457   5.991   7.800   6.798  0.7128  0.2213  0.3840
11497SOL     OW43458   2.812  10.813   4.516  0.3340 -0.0947 -0.9808
11497SOL    HW143459   2.868  10.889   4.532 -0.7668  0.8605 -1.5449
11497SOL    HW243460   2.736  10.848   4.471  0.0441 -1.6220 -1.7545
11498SOL     OW43461   8.518   8.340   4.775  0.7088  1.2366 -0.3005
11498SOL    HW143462   8.537   8.341   4.869 -0.0115  0.7822 -0.1474
11498SOL    HW243463   8.591   8.388   4.736  2.7913 -1.3205  0.1694
11499SOL     OW43464   8.998  10.747  11.238  0.4105  0.7342 -0.0250
11499SOL    HW143465   8.958  10.801  11.170  0.6577 -1.1724 -1.7558
11499SOL    HW243466   8.927  10.728  11.298 -0.1382  1.3027 -0.4822
11500SOL     OW43467   1.413   2.455   1.466 -0.1321 -0.4089 -0.3826
11500SOL    HW143468   1.365   2.384   1.509 -0.2132  0.6295  1.3284
11500SOL    HW243469   1.353   2.530   1.471  0.0301 -0.1449 -1.9735
11501SOL     OW43470   1.148  10.042  10.559  0.1786  0.2542  0.1940
11501SOL    HW143471   1.223   9.984  10.544  0.9544  1.4241 -0.5662
11501SOL    HW243472   1.118  10.020  10.648  1.2211 -0.4391  0.3865
11502SOL     OW43473   5.683   9.467   6.405 -0.0304 -0.2710 -0.3311
11502SOL    HW143474   5.621   9.458   6.333 -1.6329  1.9630  0.6335
11502SOL    HW243475   5.686   9.381   6.446 -1.3318 -0.8311 -1.3318
11503SOL     OW43476   3.655   4.586  11.818  0.2045  0.5629  0.1724
11503SOL    HW143477   3.686   4.618  11.903  0.7177  0.1149  0.1557
11503SOL    HW243478   3.627   4.496  11.836  1.3049  0.1020 -0.3515
11504SOL     OW43479   5.315   5.863   6.292 -0.1694 -0.1454  0.1747
11504SOL    HW143480   5.241   5.882   6.349  1.2464 -0.2362  2.1826
11504SOL    HW243481   5.368   5.800   6.342  0.8237 -0.7712 -1.5548
11505SOL     OW43482   1.297  11.867   4.485  0.4880 -0.1369  0.1270
11505SOL    HW143483   1.367  11.829   4.431 -0.1264  0.0408 -0.8280
11505SOL    HW243484   1.250  11.924   4.425 -0.7724 -0.6285  0.6235
11506SOL     OW43485   0.930   1.263   0.849  0.5046 -0.4534 -0.4305
11506SOL    HW143486   0.985   1.201   0.896  0.0094 -1.1260 -0.7328
11506SOL    HW243487   0.983   1.342   0.842  1.1094 -0.8166  0.0174
11507SOL     OW43488   7.456  12.276   8.593  0.5406 -0.6023  0.3173
11507SOL    HW143489   7.369  12.237   8.586  0.3471 -0.1378  0.1121
11507SOL    HW243490   7.504  12.242   8.517  0.0505  0.3541 -0.4462
11508SOL     OW43491   8.199   0.374   5.294 -0.0164  0.0869  0.6343
11508SOL    HW143492   8.250   0.340   5.220  0.3188  0.3095  0.7584
11508SOL    HW243493   8.265   0.404   5.356 -0.2590 -1.4970  1.7106
11509SOL     OW43494  10.601   0.923   8.773  0.5212  0.2307  0.0685
11509SOL    HW143495  10.588   0.851   8.834 -0.5564  1.6708  1.6411
11509SOL    HW243496  10.651   0.988   8.823  0.8798  0.8750 -1.0807
11510SOL     OW43497  11.091   4.013   0.035 -1.1714 -0.3392  0.5458
11510SOL    HW143498  10.999   4.037   0.027 -1.0937 -0.1732  0.1137
11510SOL    HW243499  11.119   3.999  -0.055 -1.0751 -1.5175  0.7455
11511SOL     OW43500  11.536  11.759   9.568 -0.3275  0.3391  0.5051
11511SOL    HW143501  11.625  11.783   9.594  0.7646  0.0574 -2.5305
11511SOL    HW243502  11.479  11.802   9.632  1.9353  1.8681  1.5963
11512SOL     OW43503  10.092   3.872   4.831  0.1102  0.1391 -0.3981
11512SOL    HW143504  10.138   3.792   4.857 -2.2085 -0.5986  1.8795
11512SOL    HW243505  10.056   3.851   4.744  0.4656 -0.8689 -0.3170
11513SOL     OW43506   3.872   8.219   1.275  0.0242  0.1806 -0.4472
11513SOL    HW143507   3.803   8.206   1.340  1.4460  1.3308  1.3897
11513SOL    HW243508   3.835   8.281   1.212 -1.1084 -0.3483 -0.3229
11514SOL     OW43509  11.405  10.689   8.438 -0.1703  0.0258  0.0167
11514SOL    HW143510  11.413  10.599   8.469 -1.9996  0.1370  0.9581
11514SOL    HW243511  11.488  10.707   8.394 -0.3310 -2.6492 -1.6526
11515SOL     OW43512   6.131   5.666   2.411 -0.2165  0.1268 -0.2912
11515SOL    HW143513   6.131   5.578   2.448  0.4822  0.2869  0.1089
11515SOL    HW243514   6.210   5.669   2.356  1.5255  1.4472  2.0665
11516SOL     OW43515   0.517  10.214   1.390  0.4774 -0.8271  0.0758
11516SOL    HW143516   0.427  10.184   1.376  0.5208 -1.0390  0.2613
11516SOL    HW243517   0.565  10.136   1.418  0.2092 -0.2587  2.3063
11517SOL     OW43518   4.898   1.927   4.891 -0.4437 -0.1908  0.3317
11517SOL    HW143519   4.942   2.001   4.850 -2.0539  0.1100 -0.9893
11517SOL    HW243520   4.968   1.866   4.914  0.6668 -0.1794 -2.5508
11518SOL     OW43521   1.084   4.427  10.557 -0.3064  0.1097  0.0324
11518SOL    HW143522   1.019   4.453  10.492  1.3552 -0.0257 -1.7788
11518SOL    HW243523   1.100   4.506  10.609 -2.2278  0.0122  0.8838
11519SOL     OW43524   8.504   3.226   9.167 -0.2518  0.5168 -0.2853
11519SOL    HW143525   8.511   3.167   9.092  0.7669  1.4155 -0.9338
11519SOL    HW243526   8.553   3.304   9.141 -2.0326  1.9060  0.3071
11520SOL     OW43527   7.048   3.661   2.056  0.0911 -0.3815 -0.0090
11520SOL    HW143528   7.053   3.753   2.081  0.9146 -0.7802  1.4068
11520SOL    HW243529   7.061   3.661   1.961 -1.1678  1.0426 -0.2148
11521SOL     OW43530  12.054   6.265  11.865  0.3132 -0.3787 -0.2469
11521SOL    HW143531  12.138   6.240  11.902  0.5654 -0.5474 -0.9178
11521SOL    HW243532  11.993   6.262  11.939  1.3532  2.2858  0.8270
11522SOL     OW43533  10.264   4.795  12.449  0.6481 -0.1949  0.2433
11522SOL    HW143534  10.328   4.725  12.460  1.1958 -0.0039 -1.4355
11522SOL    HW243535  10.189   4.752  12.407  1.0009  0.2051 -0.8260
11523SOL     OW43536  11.873   1.918   8.941  0.4694 -0.6381  0.4787
11523SOL    HW143537  11.781   1.913   8.967 -0.2769 -0.6583 -1.9958
11523SOL    HW243538  11.917   1.955   9.018 -1.5268 -0.9469  1.8359
11524SOL     OW43539   1.716   5.324   5.680  0.2418  0.1229 -0.1084
11524SOL    HW143540   1.744   5.336   5.771 -1.3211  2.6570  0.1312
11524SOL    HW243541   1.786   5.365   5.628  1.9899 -2.7850 -0.2955
11525SOL     OW43542  12.397   1.163   2.634 -0.0823  0.4895  0.4508
11525SOL    HW143543  12.478   1.202   2.667  0.5837 -0.9316  0.5528
11525SOL    HW243544  12.415   1.144   2.543 -1.3784  2.9291 -0.4254
11526SOL     OW43545   0.911  10.943   2.899 -0.0570  0.1072 -0.0965
11526SOL    HW143546   0.832  10.921   2.850  0.5849 -0.0350 -1.0933
11526SOL    HW243547   0.895  10.909   2.987 -1.8599  1.6916  0.2617
11527SOL     OW43548   6.973   5.448   0.678 -0.2576  0.6521 -0.5501
11527SOL    HW143549   6.944   5.517   0.618  0.6421  0.4200 -1.2819
11527SOL    HW243550   7.064   5.432   0.653  0.0468  0.3344  0.6934
11528SOL     OW43551   3.996   7.956   4.973 -0.4105  0.0835  0.1909
11528SOL    HW143552   3.937   7.904   4.918  0.6265  0.1372 -1.0288
11528SOL    HW243553   3.940   7.992   5.041 -2.5559  2.7569 -2.6686
11529SOL     OW43554   4.399   9.064   1.692  0.5976  0.1385 -0.3483
11529SOL    HW143555   4.470   9.045   1.630  1.5848 -0.6783  0.9860
11529SOL    HW243556   4.433   9.134   1.747  0.3365 -0.1947  0.2418
11530SOL     OW43557  12.331   4.425   3.638 -0.1188 -0.2199  0.1967
11530SOL    HW143558  12.410   4.371   3.638 -0.1749 -0.3033  0.2279
11530SOL    HW243559  12.350   4.497   3.698  1.1353  1.5538 -2.1547
11531SOL     OW43560   9.769  12.596   8.760 -0.2597  0.2747 -0.0187
11531SOL    HW143561   9.721  12.634   8.834 -2.8755 -0.7589 -1.0702
11531SOL    HW243562   9.848  12.559   8.800 -1.4127  0.0620  2.2282
11532SOL     OW43563   1.512   4.206   3.555  0.4118 -0.0403  0.0302
11532SOL    HW143564   1.476   4.260   3.484 -1.0935 -1.8080 -0.6114
11532SOL    HW243565   1.595   4.173   3.521 -0.0370 -0.4322 -0.6748
11533SOL     OW43566   3.730  12.462   9.416  0.5050  0.3792 -0.5462
11533SOL    HW143567   3.690  12.410   9.486 -0.1681 -0.4065 -1.4916
11533SOL    HW243568   3.772  12.398   9.359  0.9346  1.0031 -0.9562
11534SOL     OW43569   5.980   4.534   8.998  0.3332  0.3897 -0.1157
11534SOL    HW143570   6.048   4.582   9.045 -0.2524  0.8638  0.2565
11534SOL    HW243571   5.985   4.566   8.908  1.3875 -0.4427 -0.3760
11535SOL     OW43572   0.783  11.165   7.994  0.2031 -0.3392 -0.2699
11535SOL    HW143573   0.695  11.131   8.012  0.1376  0.5477  1.2671
11535SOL    HW243574   0.838  11.124   8.060  0.2641  1.8188  1.1230
11536SOL     OW43575   2.604   7.653  11.929  0.2166  0.3549  0.7378
11536SOL    HW143576   2.563   7.708  11.862 -1.2902 -1.8692 -0.2833
11536SOL    HW243577   2.595   7.704  12.010 -1.2374  1.5607 -0.1212
11537SOL     OW43578   5.641   6.952   0.151  0.3276  0.6567  0.3139
11537SOL    HW143579   5.663   6.859   0.158  0.2677  0.7086  1.3674
11537SOL    HW243580   5.609   6.963   0.061  1.2039 -0.1461 -0.1081
11538SOL     OW43581   3.035  12.484   8.491  0.4002 -0.4631 -0.5023
11538SOL    HW143582   3.101  12.415   8.483  0.8160  0.0479 -1.6246
11538SOL    HW243583   3.029  12.500   8.585  1.3531 -1.0158 -0.3287
11539SOL     OW43584   3.067   5.507   5.016  0.0643 -0.1325 -0.4624
11539SOL    HW143585   3.149   5.519   4.968 -0.6080  0.9821 -1.3888
11539SOL    HW243586   3.001   5.552   4.963 -1.2512 -1.4413 -0.0119
11540SOL     OW43587   5.490   0.313  12.292  0.1129 -0.2879  0.3736
11540SOL    HW143588   5.547   0.390  12.284 -1.2382  0.5853 -1.6254
11540SOL    HW243589   5.408   0.348  12.327 -1.3129 -0.2838 -2.6774
11541SOL     OW43590   3.221   8.460   4.005  0.5947 -0.3684 -0.4141
11541SOL    HW143591   3.298   8.513   3.984  0.5286  1.9437  4.0427
11541SOL    HW243592   3.146   8.518   3.988  0.1111 -1.0317 -0.6078
11542SOL     OW43593   1.931   9.718   5.082  0.0177  0.0685  0.0074
11542SOL    HW143594   1.902   9.626   5.089  0.4114 -0.1580 -1.1531
11542SOL    HW243595   1.902   9.758   5.164  0.2065 -1.1958  0.7199
11543SOL     OW43596   4.510   6.620   8.922  0.6229 -0.3830 -0.0849
11543SOL    HW143597   4.599   6.649   8.945 -0.0330  0.6569  1.2678
11543SOL    HW243598   4.489   6.553   8.987  0.5687 -0.9486 -0.6749
11544SOL     OW43599   7.584   5.046   0.151 -0.1323 -0.7797 -0.6341
11544SOL    HW143600   7.635   5.100   0.211  0.1488 -0.7034 -0.9387
11544SOL    HW243601   7.637   5.042   0.071 -0.9110 -0.1462 -1.1890
11545SOL     OW43602   2.415   8.707   6.865  0.3920  0.4379  0.8574
11545SOL    HW143603   2.409   8.784   6.809 -1.8150  0.1322  0.5993
11545SOL    HW243604   2.421   8.634   6.803 -4.6518 -0.1600  0.6567
11546SOL     OW43605   7.532   2.866  12.221  0.7473  0.6613 -0.3657
11546SOL    HW143606   7.520   2.916  12.302  0.2579  0.6654 -0.4411
11546SOL    HW243607   7.468   2.795  12.227  0.2727  1.0284 -1.0374
11547SOL     OW43608   6.586   6.982   9.498 -0.2868 -0.0847 -0.5919
11547SOL    HW143609   6.494   6.987   9.471 -0.6593 -1.6955  0.2693
11547SOL    HW243610   6.623   6.911   9.446  0.2001 -0.1333 -0.1887
11548SOL     OW43611   8.034   5.751  12.208 -0.3964 -0.3984 -0.2865
11548SOL    HW143612   7.945   5.761  12.242 -0.3224  2.1271 -0.6315
11548SOL    HW243613   8.081   5.827  12.242  0.8831 -0.2250 -2.2829
11549SOL     OW43614   6.351  10.024  11.922 -0.5019  0.2654 -0.3722
11549SOL    HW143615   6.294   9.964  11.873  1.8082 -0.8126 -1.9229
11549SOL    HW243616   6.418  10.051  11.859  2.1094 -0.4774  1.8877
11550SOL     OW43617   8.738   2.753   9.820 -0.2387  0.0400  0.1263
11550SOL    HW143618   8.702   2.746   9.732 -0.3328 -1.1771  0.2389
11550SOL    HW243619   8.742   2.662   9.851 -0.4288  0.4696  1.4597
11551SOL     OW43620   6.887   2.509   6.297  0.1086 -0.4689  0.1635
11551SOL    HW143621   6.970   2.540   6.334 -0.8747  1.8458  0.5623
11551SOL    HW243622   6.840   2.470   6.371  0.0077  0.0596  0.3784
11552SOL     OW43623   6.775   6.835   7.692  0.1609  0.0989 -0.1010
11552SOL    HW143624   6.861   6.840   7.651  0.1351 -0.8774 -0.3136
11552SOL    HW243625   6.742   6.748   7.667 -0.9746  0.5497 -0.2133
11553SOL     OW43626   2.427   9.423   9.050  0.2823 -0.0703  0.1842
11553SOL    HW143627   2.373   9.377   9.115 -0.3729  1.2912  0.6281
11553SOL    HW243628   2.364   9.456   8.986  0.3839  2.5576  1.3232
11554SOL     OW43629   3.560  12.314  11.152 -0.1347 -0.8348  0.1521
11554SOL    HW143630   3.534  12.236  11.103 -0.0772 -0.3067 -0.7238
11554SOL    HW243631   3.656  12.313  11.150 -0.0936 -1.4839  1.3443
11555SOL     OW43632  11.900  10.993  12.126 -0.1813 -0.2476  0.5557
11555SOL    HW143633  11.861  11.076  12.101 -0.5890 -0.0968  1.6529
11555SOL    HW243634  11.982  11.017  12.170  0.4262 -0.5036 -0.3794
11556SOL     OW43635   3.958   9.183   0.976 -0.1078 -0.1034 -0.1952
11556SOL    HW143636   4.007   9.257   0.939 -0.4319 -0.6742 -1.8657
11556SOL    HW243637   3.889   9.224   1.029  0.1285  0.7783 -0.5506
11557SOL     OW43638   3.489  10.100   1.865  0.1832  0.3677  0.1052
11557SOL    HW143639   3.529  10.069   1.784  2.5372 -1.6173  1.8805
11557SOL    HW243640   3.514  10.192   1.871 -1.4926  1.0703 -2.1505
11558SOL     OW43641   5.749  12.069   1.084  0.3773 -0.3605 -0.0867
11558SOL    HW143642   5.721  11.983   1.115 -0.8146 -0.6393 -1.8118
11558SOL    HW243643   5.841  12.057   1.060  0.8129 -0.5886  1.5338
11559SOL     OW43644   9.814   0.278   6.177 -0.2071 -0.0348  0.3597
11559SOL    HW143645   9.806   0.370   6.202 -2.1758 -0.1189  0.1706
11559SOL    HW243646   9.724   0.246   6.174  0.3217 -1.5158 -1.3174
11560SOL     OW43647   7.031   4.784   0.340  0.0791  0.2659 -0.3779
11560SOL    HW143648   7.074   4.772   0.256  1.2544 -1.4554  0.4129
11560SOL    HW243649   7.102   4.800   0.402 -0.5806 -0.4253  0.5976
11561SOL     OW43650   5.684   7.660   1.835 -0.6112 -0.2341 -0.2585
11561SOL    HW143651   5.609   7.602   1.843 -1.1599  0.4474 -0.3924
11561SOL    HW243652   5.674   7.723   1.906 -0.7016  0.4492 -0.8648
11562SOL     OW43653   0.212  11.116  10.504  0.0260  0.4975 -0.0723
11562SOL    HW143654   0.165  11.193  10.471  0.2081  0.1912 -1.0685
11562SOL    HW243655   0.150  11.044  10.496  0.9054 -0.0975 -2.2772
11563SOL     OW43656   1.610   7.795   8.564 -0.2106 -0.3371  0.6747
11563SOL    HW143657   1.684   7.788   8.624 -0.1633 -0.3757  0.6122
11563SOL    HW243658   1.591   7.704   8.539  0.9136 -0.2097 -0.7578
11564SOL     OW43659   2.597   4.613  12.098  0.2001 -0.1050 -0.0295
11564SOL    HW143660   2.534   4.571  12.157  0.0652 -1.8466 -1.3671
11564SOL    HW243661   2.580   4.575  12.012  1.1164  1.5890 -1.0188
11565SOL     OW43662   3.909   5.019   3.011  0.4061 -0.1924  0.1362
11565SOL    HW143663   3.888   5.111   2.996  0.5532  0.0524  1.3115
11565SOL    HW243664   3.992   5.005   2.965  0.9406  0.5667  0.8385
11566SOL     OW43665   0.729   0.120   2.550 -0.2094  0.1072  0.3078
11566SOL    HW143666   0.690   0.203   2.578 -0.2333  0.5138 -0.8624
11566SOL    HW243667   0.757   0.136   2.460 -0.7037 -1.3333 -0.1229
11567SOL     OW43668   8.856  12.377   8.956  0.0550 -0.3127  0.2943
11567SOL    HW143669   8.896  12.374   9.043  2.3006 -0.1788 -0.6641
11567SOL    HW243670   8.821  12.289   8.943  0.9249 -0.7481  0.8204
11568SOL     OW43671   8.117   5.041   5.835  0.1819  0.2573 -0.5073
11568SOL    HW143672   8.132   4.958   5.881  1.1847  1.3677  1.2451
11568SOL    HW243673   8.200   5.061   5.793 -0.1276  0.2781 -1.1191
11569SOL     OW43674   2.802   0.132   9.071 -0.5012 -0.1015 -0.2110
11569SOL    HW143675   2.765   0.076   9.139 -0.8897 -0.3121 -0.5913
11569SOL    HW243676   2.878   0.173   9.112  0.9046 -2.2975 -0.4644
11570SOL     OW43677  10.540   7.448   4.365 -0.3075  0.6143  0.1422
11570SOL    HW143678  10.456   7.493   4.373 -0.7613  0.1080 -1.4541
11570SOL    HW243679  10.519   7.355   4.371 -0.0150  0.4421 -1.0817
11571SOL     OW43680   3.132   9.844   3.284 -0.3274 -0.2922  0.4756
11571SOL    HW143681   3.097   9.792   3.357 -0.5143 -1.3521 -0.3403
11571SOL    HW243682   3.100   9.799   3.206  0.3714  0.4760 -0.2675
11572SOL     OW43683  11.037   0.260  10.513  0.3062 -0.0897 -0.1696
11572SOL    HW143684  11.100   0.286  10.580  2.4594 -2.4318 -1.1480
11572SOL    HW243685  10.996   0.181  10.548  0.6967 -0.7417 -1.1644
11573SOL     OW43686  11.015   5.399   4.073 -0.8204 -0.2414 -0.1447
11573SOL    HW143687  11.031   5.479   4.023 -0.8000  0.6054  1.1785
11573SOL    HW243688  11.021   5.329   4.008 -2.2053  0.9131 -1.6228
11574SOL     OW43689  10.199   5.505   0.911  0.2100  0.0045 -0.7339
11574SOL    HW143690  10.114   5.497   0.868 -0.0279 -0.4337 -0.1813
11574SOL    HW243691  10.198   5.593   0.949 -0.1138 -0.1154 -0.4661
11575SOL     OW43692   1.858   3.009   7.896 -0.3518  0.2632  0.0935
11575SOL    HW143693   1.840   2.992   7.988  1.0732 -0.4468  0.2687
11575SOL    HW243694   1.887   2.925   7.861 -1.5022  0.3572 -1.1909
11576SOL     OW43695  10.406   5.050   8.991 -0.0032 -0.9614  0.0629
11576SOL    HW143696  10.320   5.051   9.034 -0.3727 -0.6796 -0.6678
11576SOL    HW243697  10.441   4.963   9.011 -0.2661 -0.9265  0.7271
11577SOL     OW43698   2.521   6.256   8.391 -0.0954  0.0113  0.3146
11577SOL    HW143699   2.604   6.300   8.371 -0.3819  0.5715  0.3533
11577SOL    HW243700   2.458   6.297   8.332 -0.3473 -0.4175  0.2866
11578SOL     OW43701   1.294   0.124  11.344 -0.1454 -0.2953 -0.5026
11578SOL    HW143702   1.264   0.139  11.433 -1.8457  1.1553 -1.2601
11578SOL    HW243703   1.353   0.197  11.325  0.8095 -1.0084 -0.3326
11579SOL     OW43704   2.671  12.040   8.732 -0.3872 -0.4815  0.3028
11579SOL    HW143705   2.643  12.037   8.641 -0.0852 -1.4575  0.2275
11579SOL    HW243706   2.678  12.133   8.752 -0.3470 -0.2540 -0.7040
11580SOL     OW43707   2.545   1.620  11.308  0.2637  0.1099  0.3542
11580SOL    HW143708   2.561   1.535  11.266  0.0921 -0.0999  0.7110
11580SOL    HW243709   2.620   1.633  11.365 -0.2515 -0.3303  1.1470
11581SOL     OW43710   5.584   5.052   6.509  0.2786  0.7016  0.7250
11581SOL    HW143711   5.611   5.008   6.590 -0.6264 -1.7814 -0.2379
11581SOL    HW243712   5.623   5.000   6.439 -1.7694  0.7295 -0.5107
11582SOL     OW43713  12.265   2.812   7.947  0.0073 -0.3558  0.3979
11582SOL    HW143714  12.264   2.719   7.971  1.7209 -0.1361  1.3999
11582SOL    HW243715  12.244   2.812   7.853  0.9336 -1.8390  0.1543
11583SOL     OW43716   3.833   1.828   7.507 -0.0420 -0.3078  0.4309
11583SOL    HW143717   3.857   1.916   7.479  1.8159 -0.8091  0.2763
11583SOL    HW243718   3.770   1.841   7.578  2.5044  1.2887  2.5989
11584SOL     OW43719   1.111   9.693   8.796  0.0497 -0.2522 -0.2738
11584SOL    HW143720   1.181   9.697   8.731  0.4124  1.6684  0.1761
11584SOL    HW243721   1.034   9.668   8.746  0.7674 -1.1046 -1.0084
11585SOL     OW43722  11.728  11.954   1.913 -0.9302 -0.0694 -0.2794
11585SOL    HW143723  11.817  11.966   1.879 -0.0308 -2.6684  0.8844
11585SOL    HW243724  11.671  11.984   1.843  0.8357  1.4947 -1.1369
11586SOL     OW43725   2.785   3.464   1.134 -0.1521  0.0432  0.1416
11586SOL    HW143726   2.872   3.472   1.096 -0.4643 -1.2475 -0.9105
11586SOL    HW243727   2.740   3.544   1.106 -0.1442 -0.5360 -1.6528
11587SOL     OW43728   0.655   0.048  12.487 -0.5655 -0.8554 -0.3878
11587SOL    HW143729   0.730   0.006  12.445 -0.3645 -1.0081  0.1213
11587SOL    HW243730   0.654   0.013  12.576 -0.3514  0.2610  0.0803
11588SOL     OW43731   9.531   6.190   7.597  0.2283  0.3375 -0.0999
11588SOL    HW143732   9.445   6.228   7.583  0.3712  0.3057 -1.1376
11588SOL    HW243733   9.581   6.211   7.518  0.7948 -0.6595 -0.0379
11589SOL     OW43734  10.320   5.556  12.579 -0.0524 -0.4112  0.5002
11589SOL    HW143735  10.321   5.649  12.602  0.3015 -0.5597  1.1038
11589SOL    HW243736  10.347   5.511  12.659 -2.0461 -1.1584  0.8297
11590SOL     OW43737   8.353   9.358   0.202 -0.3891  0.0705  0.7868
11590SOL    HW143738   8.258   9.358   0.200 -0.4699  2.9312 -0.9026
11590SOL    HW243739   8.379   9.420   0.134  2.7726 -2.0469 -0.1805
11591SOL     OW43740   0.686   5.661   1.135  0.0698 -0.0037 -0.0047
11591SOL    HW143741   0.674   5.724   1.065  1.3783  0.2400 -0.0322
11591SOL    HW243742   0.774   5.678   1.168  0.5354 -1.9180 -0.1278
11592SOL     OW43743   1.581  12.461   9.053  0.0412  0.7796 -0.0850
11592SOL    HW143744   1.673  12.451   9.028  0.0219  2.2060 -0.8568
11592SOL    HW243745   1.584  12.478   9.147  0.5359  0.4191 -0.0312
11593SOL     OW43746   5.446   9.839   5.994  0.3883 -0.2116  0.3027
11593SOL    HW143747   5.518   9.878   6.044  0.0943 -0.7120  1.1238
11593SOL    HW243748   5.472   9.748   5.983 -0.3691 -0.5365  1.0912
11594SOL     OW43749   6.412   6.948  10.009  0.0123  0.3217  0.5456
11594SOL    HW143750   6.367   6.927   9.927 -0.3358 -1.1344  1.0784
11594SOL    HW243751   6.490   6.996   9.981 -0.1735 -0.0183 -0.6386
11595SOL     OW43752   1.001   9.290   6.665  0.3441  0.1937 -0.7047
11595SOL    HW143753   1.048   9.284   6.749 -1.3554 -2.1784  0.1774
11595SOL    HW243754   0.909   9.290   6.689 -0.3809  4.7542 -2.3847
11596SOL     OW43755   1.386   9.008   5.683  0.0570  0.4149  0.3683
11596SOL    HW143756   1.366   9.084   5.738 -1.6086  0.8397 -0.7180
11596SOL    HW243757   1.374   9.040   5.593  1.3357 -0.6201 -0.2024
11597SOL     OW43758   3.094  11.517   1.484  0.2697  0.2322 -0.2583
11597SOL    HW143759   3.094  11.557   1.571  1.6549  0.9416 -0.5497
11597SOL    HW243760   3.186  11.495   1.468 -0.1803 -1.2285 -0.9623
11598SOL     OW43761   2.635   8.405   4.918  0.0934  0.1080  0.6697
11598SOL    HW143762   2.599   8.324   4.955  0.7238 -0.0426  0.9651
11598SOL    HW243763   2.708   8.376   4.863  0.5401  0.4946  1.0487
11599SOL     OW43764  10.320   2.711  12.505 -0.0164 -0.2733  0.5841
11599SOL    HW143765  10.353   2.639  12.451  0.1418  2.0700 -2.7597
11599SOL    HW243766  10.391   2.776  12.503 -1.4012  1.2891  0.6918
11600SOL     OW43767   1.475   0.441   6.145  0.1312 -0.4645  0.4935
11600SOL    HW143768   1.437   0.384   6.077 -2.1862  1.6438 -0.1508
11600SOL    HW243769   1.489   0.383   6.220 -1.2676 -2.0752 -0.4106
11601SOL     OW43770  10.157   2.496   1.109  0.0155  0.2513 -0.3993
11601SOL    HW143771  10.173   2.555   1.036 -0.1096 -0.7078 -1.2308
11601SOL    HW243772  10.239   2.496   1.159 -0.0744  1.3058 -0.2402
11602SOL     OW43773  10.261   9.035  11.062  0.8300 -0.4891  0.0027
11602SOL    HW143774  10.256   8.944  11.035  2.1676 -0.4122 -0.5733
11602SOL    HW243775  10.335   9.071  11.014  1.2335  0.5341  1.3129
11603SOL     OW43776   1.178   7.658  11.695  0.0811  0.0920 -0.3398
11603SOL    HW143777   1.102   7.658  11.638 -0.2971  1.3460  0.1299
11603SOL    HW243778   1.142   7.662  11.784  0.6729 -1.1112 -0.0147
11604SOL     OW43779   3.687  12.372   2.989  0.3220 -0.0942 -0.1234
11604SOL    HW143780   3.738  12.396   3.066  1.4849 -0.7988 -0.6418
11604SOL    HW243781   3.669  12.454   2.944 -1.0403  0.4124  1.2793
11605SOL     OW43782   9.634   1.390   5.364  0.2123  0.7765 -0.4489
11605SOL    HW143783   9.608   1.454   5.430 -1.4458  0.0821 -0.3666
11605SOL    HW243784   9.725   1.369   5.385 -0.9426 -1.4888  3.5083
11606SOL     OW43785   7.410  10.843   2.464 -0.1826 -0.0970 -0.3213
11606SOL    HW143786   7.432  10.811   2.376 -1.2184 -0.5485 -0.4339
11606SOL    HW243787   7.417  10.766   2.520  0.6331  0.2234  0.0359
11607SOL     OW43788   2.882   6.809   3.386 -0.7273 -0.2803  0.2132
11607SOL    HW143789   2.906   6.720   3.360 -0.9795 -0.3212  0.1147
11607SOL    HW243790   2.929   6.824   3.469  0.2275 -0.0804 -0.3467
11608SOL     OW43791   1.609   1.636   0.124 -0.0705 -0.4465 -0.1285
11608SOL    HW143792   1.548   1.602   0.060 -0.4224 -1.3078  0.6329
11608SOL    HW243793   1.691   1.588   0.108 -0.0259 -0.3386 -0.2225
11609SOL     OW43794   1.893   9.465  12.570  0.1304  0.2793  0.2759
11609SOL    HW143795   1.857   9.436  12.653 -0.2428 -2.6122 -0.7661
11609SOL    HW243796   1.988   9.456  12.580  0.0791 -0.1735  0.3888
11610SOL     OW43797   6.617   1.119  11.157 -0.1764  1.2601  0.4844
11610SOL    HW143798   6.566   1.070  11.093  1.0359  0.3927  0.1560
11610SOL    HW243799   6.641   1.055  11.224 -0.6592  1.9535  1.3545
11611SOL     OW43800  10.063  10.365   3.062 -0.2487  0.7436  0.4232
11611SOL    HW143801  10.028  10.418   3.134  0.4526  0.7402  0.7764
11611SOL    HW243802  10.158  10.372   3.071 -0.1256  1.8325 -1.3100
11612SOL     OW43803   1.767   1.758   7.625  0.1115 -0.0191 -0.8137
11612SOL    HW143804   1.778   1.790   7.714 -0.6375  0.9230 -1.0407
11612SOL    HW243805   1.681   1.715   7.625  0.7767 -1.4036 -0.7059
11613SOL     OW43806   0.450   0.285   0.688  0.3794 -0.0891  0.2570
11613SOL    HW143807   0.441   0.191   0.697 -0.6063 -0.0150  0.1325
11613SOL    HW243808   0.393   0.308   0.615  0.1720  0.6687  0.6444
11614SOL     OW43809   3.386   7.122   3.792 -0.2570  0.2798  0.8440
11614SOL    HW143810   3.481   7.120   3.799 -0.3023 -2.3322  1.7019
11614SOL    HW243811   3.355   7.116   3.882 -1.1666 -1.5863  0.4611
11615SOL     OW43812   6.975   0.509   6.209  0.2344 -0.4309 -0.1779
11615SOL    HW143813   6.981   0.490   6.303 -0.3135  0.4329  0.0401
11615SOL    HW243814   7.037   0.448   6.169  1.4248  0.0534  0.8566
11616SOL     OW43815   0.434   7.773   6.532 -0.4905 -0.0747 -0.4825
11616SOL    HW143816   0.343   7.744   6.540  0.4120 -2.9356  1.0157
11616SOL    HW243817   0.438   7.853   6.585 -2.2134  0.4377 -1.0467
11617SOL     OW43818   2.726   3.124   2.936 -0.7832  0.5620 -0.1306
11617SOL    HW143819   2.648   3.166   2.970  0.1132  2.0986  0.1128
11617SOL    HW243820   2.781   3.196   2.905  0.7779 -0.4243  0.2084
11618SOL     OW43821   5.192  10.966   4.872 -0.1463  0.0405  0.0803
11618SOL    HW143822   5.284  10.989   4.868  0.0125 -0.3647  1.1804
11618SOL    HW243823   5.156  11.019   4.943 -0.1739 -1.6299  1.3984
11619SOL     OW43824   5.990   1.009   0.214  0.2089  0.3700  0.0713
11619SOL    HW143825   5.950   1.061   0.284  1.0515  0.5363  0.4461
11619SOL    HW243826   5.951   1.043   0.133 -0.3555  0.5625  0.4232
11620SOL     OW43827  10.497   8.457   6.868  0.2808 -0.0139 -0.4282
11620SOL    HW143828  10.449   8.374   6.859  0.7198 -0.1393 -1.7748
11620SOL    HW243829  10.540   8.450   6.953 -0.1512 -0.9245 -0.2695
11621SOL     OW43830   9.872   0.221  10.279  0.2808  0.0367  0.7470
11621SOL    HW143831   9.926   0.166  10.336  2.1607  0.4913 -0.4809
11621SOL    HW243832   9.821   0.160  10.226  1.7176 -0.5440 -0.0155
11622SOL     OW43833   6.716   0.236   9.537 -0.1429  0.0342 -0.4921
11622SOL    HW143834   6.693   0.298   9.606  0.9642 -0.2180  0.1292
11622SOL    HW243835   6.638   0.181   9.526 -0.7661  0.8728 -0.3297
11623SOL     OW43836   5.106  10.891   6.994 -0.3142 -0.0389  0.0514
11623SOL    HW143837   5.053  10.811   6.996 -2.7104  1.4213 -0.2593
11623SOL    HW243838   5.061  10.951   7.054  0.5129  1.5694 -0.8676
11624SOL     OW43839   2.710   8.153   2.398  0.8550  0.2934 -0.0359
11624SOL    HW143840   2.798   8.129   2.367  0.4173 -1.1733 -0.2080
11624SOL    HW243841   2.654   8.138   2.322  0.2073 -0.4881  0.5851
11625SOL     OW43842   0.824  10.226   6.007 -0.1585  0.5845 -0.2382
11625SOL    HW143843   0.775  10.155   5.967  2.8028 -1.0264 -1.3065
11625SOL    HW243844   0.760  10.271   6.063 -2.5203 -1.9568 -0.6900
11626SOL     OW43845   2.055   1.154   8.729 -0.2268  0.4908 -0.0184
11626SOL    HW143846   2.143   1.120   8.743  0.0326  1.0965 -0.1581
11626SOL    HW243847   2.058   1.197   8.643 -0.6981  0.3851 -0.0947
11627SOL     OW43848  11.990  11.397   4.259 -0.5410  0.0808  0.1734
11627SOL    HW143849  12.069  11.363   4.216  0.4657 -1.3314  2.9037
11627SOL    HW243850  11.920  11.338   4.231 -0.5645  0.9529 -1.7533
11628SOL     OW43851   5.615  12.119   3.621 -0.8370  0.5603 -0.6098
11628SOL    HW143852   5.585  12.152   3.706 -1.8163 -1.5973 -0.0349
11628SOL    HW243853   5.708  12.102   3.633 -1.4004 -1.9395  0.8972
11629SOL     OW43854  10.431   7.900   8.530 -0.0671 -0.1225 -0.1860
11629SOL    HW143855  10.388   7.815   8.522 -0.0469 -0.1694  0.1942
11629SOL    HW243856  10.525   7.879   8.528 -0.0382 -0.2985  1.6998
11630SOL     OW43857   7.316   7.147  11.455 -0.0982  0.3490  0.0113
11630SOL    HW143858   7.270   7.209  11.511  0.6478  0.8678  0.0638
11630SOL    HW243859   7.248   7.112  11.397 -1.2172 -1.3100  2.1423
11631SOL     OW43860   0.508   7.429  10.934  0.3251  0.2832  0.2954
11631SOL    HW143861   0.556   7.416  11.016  1.5925  0.7869 -0.3425
11631SOL    HW243862   0.423   7.463  10.961  0.5950  0.0972  1.4231
11632SOL     OW43863   8.979   7.985  10.719  0.4889  0.6689 -0.4711
11632SOL    HW143864   8.938   8.043  10.782 -0.4112 -0.8992  0.4386
11632SOL    HW243865   9.067   8.021  10.706  0.5381  1.2718  1.3430
11633SOL     OW43866   0.231  10.358   5.287 -0.4949 -0.0759  0.0091
11633SOL    HW143867   0.195  10.447   5.290  0.5123  0.5196 -2.5533
11633SOL    HW243868   0.156  10.300   5.299 -1.6768  1.1314 -1.2548
11634SOL     OW43869   3.192  10.316  12.547  0.0958 -0.0294  0.3684
11634SOL    HW143870   3.136  10.252  12.504 -0.0186  1.1749 -1.3837
11634SOL    HW243871   3.186  10.295  12.640 -1.8753 -1.0090  0.0682
11635SOL     OW43872   6.399   7.184   0.755  0.0241 -0.0434 -0.5729
11635SOL    HW143873   6.450   7.226   0.824  0.7135 -0.2490 -0.9474
11635SOL    HW243874   6.389   7.252   0.689  1.3573 -0.5093 -1.2928
11636SOL     OW43875   1.667   6.029   6.734  0.6574  0.0430  0.1299
11636SOL    HW143876   1.684   6.121   6.715 -0.5577  0.3276  0.3240
11636SOL    HW243877   1.626   5.995   6.654 -0.7024  0.1965  0.7291
11637SOL     OW43878   6.477   2.504   0.624 -0.1210 -0.1371 -0.1981
11637SOL    HW143879   6.452   2.449   0.698 -0.2042  0.1870  0.0194
11637SOL    HW243880   6.522   2.578   0.664 -0.3695  0.1541 -0.4510
11638SOL     OW43881   2.639  10.836   0.256  0.8228 -0.8853 -0.3184
11638SOL    HW143882   2.576  10.793   0.314  0.2349  1.8137  1.2450
11638SOL    HW243883   2.586  10.863   0.180  0.5238 -0.3877  0.0592
11639SOL     OW43884   0.991   0.619   5.399  0.1191  0.7250 -0.1348
11639SOL    HW143885   1.084   0.616   5.423 -0.2343  0.7857  1.3278
11639SOL    HW243886   0.991   0.617   5.304  1.6023  0.1597 -0.1448
11640SOL     OW43887   3.470   9.344   9.996 -0.4249 -0.2592  0.4313
11640SOL    HW143888   3.510   9.366   9.911 -1.5294  1.1803  0.2462
11640SOL    HW243889   3.543   9.308  10.048 -0.0826 -2.9941 -1.6824
11641SOL     OW43890   4.951   8.982   7.625 -0.1922  0.3993 -0.0675
11641SOL    HW143891   5.001   9.059   7.599 -1.7283  1.4223 -0.0891
11641SOL    HW243892   4.880   8.977   7.561  0.0089 -1.2094 -0.2273
11642SOL     OW43893  11.303   2.849   4.356 -0.0100 -0.5102  0.5574
11642SOL    HW143894  11.393   2.874   4.379  0.5683  1.0390 -2.8067
11642SOL    HW243895  11.312   2.786   4.286 -1.5674 -0.6921  0.4845
11643SOL     OW43896   6.090   5.071   4.974 -0.0410 -0.7359 -0.2502
11643SOL    HW143897   5.998   5.053   4.954 -0.1995 -2.4019  1.6398
11643SOL    HW243898   6.087   5.137   5.044  0.2393 -0.1374 -0.7985
11644SOL     OW43899   9.015   4.858  12.186  0.7664 -0.5469  0.1506
11644SOL    HW143900   8.976   4.883  12.270  0.0705 -0.2640 -0.2475
11644SOL    HW243901   8.940   4.838  12.130  1.2716 -3.8405  0.4997
11645SOL     OW43902   9.658   3.144   0.801  0.5814 -0.3744  0.4399
11645SOL    HW143903   9.723   3.137   0.871  0.1147 -0.8891  0.8285
11645SOL    HW243904   9.701   3.106   0.725  0.3541 -1.7303  0.9682
11646SOL     OW43905   5.822   5.428   5.651 -0.3222 -0.8256 -0.4117
11646SOL    HW143906   5.797   5.342   5.619 -0.4671 -0.0564 -2.4865
11646SOL    HW243907   5.914   5.418   5.678 -0.0149 -1.4039 -1.6064
11647SOL     OW43908   9.072  11.808   1.760  0.0876 -0.2889 -0.4569
11647SOL    HW143909   9.003  11.785   1.697  1.1158  0.7911 -2.0551
11647SOL    HW243910   9.108  11.891   1.727  1.1686 -0.0580  1.1700
11648SOL     OW43911   6.710  10.746   2.159 -0.0757  0.0775 -0.2969
11648SOL    HW143912   6.687  10.838   2.170 -0.0651  0.3534 -2.2664
11648SOL    HW243913   6.805  10.744   2.169 -0.0220  0.3685 -0.7200
11649SOL     OW43914   0.266   0.084  11.698  0.1169  0.3698  0.5934
11649SOL    HW143915   0.195   0.100  11.760  0.2905  1.2908  0.5744
11649SOL    HW243916   0.273   0.166  11.648  1.8721  0.6888  1.2850
11650SOL     OW43917   6.407   5.877  11.670  0.2066 -0.6473 -0.3319
11650SOL    HW143918   6.455   5.800  11.638  0.8328 -0.5425  0.3174
11650SOL    HW243919   6.457   5.951  11.637  1.3069 -0.5263  1.4173
11651SOL     OW43920   6.979   8.611   3.563  0.3208  0.3215 -0.0597
11651SOL    HW143921   6.988   8.522   3.528  0.3343  0.2136  0.2169
11651SOL    HW243922   7.069   8.643   3.568  0.2119  1.0203 -1.8665
11652SOL     OW43923   1.778   5.370   3.511 -0.6808  0.1210  0.2067
11652SOL    HW143924   1.789   5.285   3.554 -0.0270 -0.4811 -1.0811
11652SOL    HW243925   1.798   5.434   3.579  1.1375 -0.8014  0.6087
11653SOL     OW43926   8.772   7.812   4.453 -0.0520 -0.2180  0.7188
11653SOL    HW143927   8.724   7.894   4.443 -2.1562 -1.4047  0.6274
11653SOL    HW243928   8.793   7.786   4.363  0.4659  0.0981  0.7399
11654SOL     OW43929   0.560   7.543   7.360 -0.1512  0.2674 -0.0319
11654SOL    HW143930   0.542   7.450   7.346 -0.2774  0.3024 -0.1102
11654SOL    HW243931   0.474   7.585   7.351 -0.2584  0.2815  0.9512
11655SOL     OW43932  12.374   3.424  12.324 -0.3649 -0.0924  0.0267
11655SOL    HW143933  12.441   3.485  12.292  2.9730 -3.4052  0.0780
11655SOL    HW243934  12.324   3.400  12.246  0.8683 -0.2704 -0.7213
11656SOL     OW43935  12.224   9.365   1.942 -0.0235 -0.1847  0.0970
11656SOL    HW143936  12.257   9.453   1.959  2.0453 -0.9234  0.1375
11656SOL    HW243937  12.228   9.321   2.027  2.2726 -1.3226 -0.5382
11657SOL     OW43938  10.125   1.230   8.570  0.5763 -0.0486 -0.1997
11657SOL    HW143939  10.201   1.288   8.573  1.7651 -1.5758  1.0086
11657SOL    HW243940  10.157   1.152   8.524 -1.0676  0.2944 -2.0839
11658SOL     OW43941   6.811   4.838   5.251 -0.3686  0.4681  0.3374
11658SOL    HW143942   6.829   4.913   5.194  0.2668  0.2969  0.3057
11658SOL    HW243943   6.876   4.845   5.321  2.3549 -2.1497 -1.6641
11659SOL     OW43944   3.807   5.830  11.561  0.1412 -0.0655  0.1170
11659SOL    HW143945   3.772   5.779  11.634 -1.2126 -2.2615 -1.9511
11659SOL    HW243946   3.901   5.835  11.579 -0.1155 -0.7352  1.8737
11660SOL     OW43947  12.155   8.892  10.715 -0.1736 -0.2466  1.0151
11660SOL    HW143948  12.141   8.802  10.684 -0.0016 -0.4464  1.5164
11660SOL    HW243949  12.250   8.897  10.729 -0.2377 -0.1261  1.4105
11661SOL     OW43950   1.166   8.686   7.227  0.2033 -0.0896  0.1337
11661SOL    HW143951   1.169   8.762   7.170  2.4729 -0.8577 -0.9116
11661SOL    HW243952   1.114   8.621   7.179 -3.0945  1.1769  1.7055
11662SOL     OW43953   6.773   6.888   0.438 -0.4606 -0.1943 -0.3154
11662SOL    HW143954   6.808   6.943   0.368  1.9551 -0.1774  0.7882
11662SOL    HW243955   6.746   6.950   0.506 -0.9397 -0.2787 -0.4250
11663SOL     OW43956   4.192  10.715   3.344  0.5399 -0.2780  0.2899
11663SOL    HW143957   4.227  10.684   3.261  0.4686 -0.2348  0.2432
11663SOL    HW243958   4.266  10.760   3.386  0.6100 -0.4069  0.3062
11664SOL     OW43959   3.274  11.856   8.989  0.8887 -0.2003 -0.6908
11664SOL    HW143960   3.215  11.849   9.064  1.2630  0.7388 -0.2968
11664SOL    HW243961   3.353  11.811   9.015  0.1341 -2.0904 -1.4840
11665SOL     OW43962   3.753   1.369   0.972  0.0230  0.2115 -0.3549
11665SOL    HW143963   3.791   1.407   0.893 -1.1728  1.2204 -0.4826
11665SOL    HW243964   3.811   1.296   0.995  0.7210  0.2868 -1.8087
11666SOL     OW43965  11.042  10.836   4.182 -0.3514  1.0178 -0.5898
11666SOL    HW143966  11.114  10.899   4.175  0.3305  0.1704 -1.8127
11666SOL    HW243967  11.081  10.761   4.227 -1.3923  1.7469  1.6379
11667SOL     OW43968   1.684   0.008  10.854  0.1740  0.0277  0.7179
11667SOL    HW143969   1.588   0.007  10.862  0.0628 -1.6905 -0.4176
11667SOL    HW243970   1.700   0.041  10.765  0.5282 -1.6242  0.1397
11668SOL     OW43971   2.013  10.918   7.819  0.4172 -0.5343 -0.2421
11668SOL    HW143972   2.018  10.911   7.914 -0.2056 -2.9643 -0.3271
11668SOL    HW243973   1.933  10.871   7.795  0.8126 -0.3889 -2.0109
11669SOL     OW43974   7.720   5.516   4.637 -0.1745  0.3110  0.1437
11669SOL    HW143975   7.724   5.568   4.557  1.0541 -1.4151 -0.9795
11669SOL    HW243976   7.809   5.517   4.671 -0.6660  0.9504  1.4913
11670SOL     OW43977   8.005   8.682   7.696  0.2999  0.3732  0.7210
11670SOL    HW143978   8.043   8.740   7.629  1.4775 -0.9589  0.1977
11670SOL    HW243979   7.994   8.739   7.772 -1.1139  1.9544 -0.5444
11671SOL     OW43980   7.570   4.028   9.186  0.2788  0.3825 -0.2360
11671SOL    HW143981   7.534   4.060   9.104 -1.3550 -0.1560  0.2260
11671SOL    HW243982   7.625   3.954   9.161 -0.8335 -0.2776 -0.7960
11672SOL     OW43983   7.425   4.153   4.953  0.3012  0.8143  0.6328
11672SOL    HW143984   7.333   4.127   4.952  0.2453  0.8566  2.0400
11672SOL    HW243985   7.473   4.071   4.964  0.4250  0.8078  0.0488
11673SOL     OW43986   4.241  11.960  11.190 -0.4041 -0.3935 -0.0079
11673SOL    HW143987   4.253  11.926  11.102 -0.8399 -1.7310  0.4202
11673SOL    HW243988   4.280  11.893  11.247  2.6659  1.7996  0.7557
11674SOL     OW43989   5.022   9.656   6.013 -0.0122  0.4958 -0.3879
11674SOL    HW143990   5.104   9.608   6.004 -1.2412 -1.3256 -2.6946
11674SOL    HW243991   4.999   9.682   5.924 -2.1878  0.5177  0.1252
11675SOL     OW43992   7.999   1.586   9.289  0.1851 -0.2075  0.4641
11675SOL    HW143993   8.027   1.668   9.249 -0.9531  0.0475  0.1567
11675SOL    HW243994   8.066   1.567   9.354  1.7057 -0.2618 -1.0582
11676SOL     OW43995   4.958   1.981   6.303 -0.0762 -0.2219  0.1281
11676SOL    HW143996   5.048   2.010   6.319  0.2245 -0.7318 -0.5832
11676SOL    HW243997   4.955   1.963   6.209 -0.3818 -1.9483  0.4260
11677SOL     OW43998   4.228  11.874   9.397 -0.3468  0.1771  0.4450
11677SOL    HW143999   4.168  11.831   9.336 -0.3571  0.9162 -0.0771
11677SOL    HW244000   4.313  11.870   9.352  0.2087 -1.6360  1.5475
11678SOL     OW44001   1.981   7.715   8.966 -0.2696 -0.0468  0.0145
11678SOL    HW144002   1.954   7.777   9.034  1.7086  2.1827 -1.0744
11678SOL    HW244003   2.062   7.678   8.998  0.7631  1.1345 -1.1019
11679SOL     OW44004   2.058   0.346   0.515  0.4677 -0.8069 -0.0342
11679SOL    HW144005   1.978   0.301   0.488  0.3700 -1.0738  0.6717
11679SOL    HW244006   2.114   0.345   0.437  0.2839 -1.7472 -0.1702
11680SOL     OW44007   9.632   2.176  10.549 -0.4824 -0.1317 -0.2217
11680SOL    HW144008   9.686   2.237  10.599  0.9471 -1.3528 -0.2070
11680SOL    HW244009   9.619   2.220  10.465  1.6706 -0.3047 -0.7152
11681SOL     OW44010   3.150   0.070  11.055  1.1061 -0.2696 -0.3071
11681SOL    HW144011   3.080   0.095  10.995  1.4217 -1.3688 -1.1692
11681SOL    HW244012   3.143   0.133  11.127 -0.2248  0.1636 -0.7727
11682SOL     OW44013   4.197   3.563   3.619  0.3027  0.0813 -0.0378
11682SOL    HW144014   4.195   3.582   3.713  0.2625  0.3251 -0.0885
11682SOL    HW244015   4.287   3.584   3.593  0.8427 -1.6472  0.2933
11683SOL     OW44016   2.163   5.265   9.349 -0.1232 -0.1547  0.0295
11683SOL    HW144017   2.248   5.284   9.309 -0.6158  1.0394 -0.5149
11683SOL    HW244018   2.172   5.294   9.440  0.0615 -0.0342 -0.0269
11684SOL     OW44019   8.521  10.475  11.495 -0.1404  0.2801 -0.3875
11684SOL    HW144020   8.462  10.436  11.430  0.3859  1.8589 -1.8930
11684SOL    HW244021   8.597  10.417  11.496  0.8703  1.4053 -2.9836
11685SOL     OW44022   0.694   0.052   4.524  0.1434 -0.4891 -0.3593
11685SOL    HW144023   0.756  -0.014   4.554 -0.4155 -0.4254  0.9947
11685SOL    HW244024   0.745   0.108   4.465  1.5109 -0.1631  1.0768
11686SOL     OW44025   4.778  12.531   2.873 -0.1541  0.1392  0.1665
11686SOL    HW144026   4.799  12.549   2.782  0.8800  0.3353  0.4370
11686SOL    HW244027   4.862  12.533   2.919 -0.5850 -0.5700  1.0256
11687SOL     OW44028   6.672   3.104   1.210 -0.2749 -0.1748  0.1977
11687SOL    HW144029   6.725   3.125   1.133 -1.1112  1.0311 -0.0764
11687SOL    HW244030   6.706   3.020   1.240  1.1076  0.0688 -0.5710
11688SOL     OW44031   0.367   6.684   0.301  0.0906  0.1182 -0.2396
11688SOL    HW144032   0.437   6.714   0.244 -0.1439 -0.8556 -1.0669
11688SOL    HW244033   0.395   6.709   0.389  0.3201  1.8945 -0.7870
11689SOL     OW44034   2.392   4.256   4.756 -0.3191  0.2670 -0.1597
11689SOL    HW144035   2.319   4.225   4.810 -0.3634  1.1878  0.3312
11689SOL    HW244036   2.352   4.280   4.672 -0.8468  2.1065  0.5768
11690SOL     OW44037   7.143   8.589  12.112  0.2608  0.2244  0.0198
11690SOL    HW144038   7.146   8.494  12.100  0.5266  0.2033  0.2404
11690SOL    HW244039   7.125   8.624  12.025  0.2226 -0.0286 -0.0723
11691SOL     OW44040  11.192   3.625   5.477 -0.0597 -0.1749 -0.1083
11691SOL    HW144041  11.280   3.588   5.475 -0.0413 -0.0978 -1.0035
11691SOL    HW244042  11.175   3.652   5.387 -1.0131 -0.2198  0.0461
11692SOL     OW44043   5.713   9.923   4.877 -0.3804  0.1331 -0.0032
11692SOL    HW144044   5.640   9.897   4.933 -0.0655  0.2737  0.4695
11692SOL    HW244045   5.674   9.928   4.789 -0.5394 -1.6026 -0.0748
11693SOL     OW44046   9.245  11.349   0.591  0.0423  0.1579 -0.0733
11693SOL    HW144047   9.222  11.405   0.666 -3.5199 -0.9703 -0.1187
11693SOL    HW244048   9.225  11.404   0.515  1.8749  0.6526 -0.2391
11694SOL     OW44049  11.769   5.343   3.197 -0.2323 -0.0915 -0.0323
11694SOL    HW144050  11.676   5.360   3.213 -0.3284 -1.4404  0.9870
11694SOL    HW244051  11.802   5.425   3.160 -2.2672 -0.2749 -2.4750
11695SOL     OW44052   1.667   0.535   0.571 -0.3397 -0.2422 -0.0535
11695SOL    HW144053   1.681   0.532   0.476  0.4746 -0.3623  0.0655
11695SOL    HW244054   1.627   0.451   0.592  0.6018 -0.7119 -0.1195
11696SOL     OW44055   7.088  10.510   3.715 -0.0988 -0.2246  0.6989
11696SOL    HW144056   7.097  10.427   3.668 -0.4903  0.6781 -1.0629
11696SOL    HW244057   7.136  10.573   3.662  1.7521  0.3831  2.9589
11697SOL     OW44058  10.050   1.923   0.064 -0.3440 -0.3267 -0.0262
11697SOL    HW144059  10.128   1.970   0.036 -0.5398 -0.6436 -1.1715
11697SOL    HW244060  10.075   1.830   0.060 -1.2960 -0.5584 -2.2818
11698SOL     OW44061   8.682  10.343   9.120  0.2842 -0.3579  0.0180
11698SOL    HW144062   8.688  10.413   9.055  0.0592  3.6248  3.7852
11698SOL    HW244063   8.589  10.321   9.123  0.4870 -1.6509 -1.8645
11699SOL     OW44064   6.608   6.673  11.438 -0.0775  0.3019 -0.0244
11699SOL    HW144065   6.617   6.583  11.469 -1.7185  0.5121  1.2075
11699SOL    HW244066   6.554   6.716  11.505  0.1827  2.0549 -0.8776
11700SOL     OW44067   2.953   2.673   3.867  0.4524  0.4355 -0.4590
11700SOL    HW144068   2.971   2.695   3.775 -0.6227 -0.1849 -0.8355
11700SOL    HW244069   2.911   2.587   3.864  1.9586 -0.4035  0.7672
11701SOL     OW44070   7.498  11.656   3.978  0.1185  0.0009  0.0552
11701SOL    HW144071   7.462  11.577   4.019 -0.4819  1.1094  1.7963
11701SOL    HW244072   7.424  11.716   3.973  0.9901  1.1811  0.7230
11702SOL     OW44073   9.994   0.542  11.999  0.5805  0.1121  0.3858
11702SOL    HW144074   9.927   0.537  11.930 -0.2889  0.3716  1.1939
11702SOL    HW244075  10.003   0.635  12.018  1.9765  0.1756 -0.4636
11703SOL     OW44076   8.787   6.959   0.113 -0.1361 -0.4660  0.4939
11703SOL    HW144077   8.880   6.968   0.091 -0.4067  0.8868 -0.1394
11703SOL    HW244078   8.768   6.867   0.096  0.7239 -0.4314 -0.8115
11704SOL     OW44079   2.835   5.809  11.060  0.0195 -0.0603 -0.6204
11704SOL    HW144080   2.817   5.753  10.984 -0.0018  1.3209 -1.6657
11704SOL    HW244081   2.832   5.898  11.025 -0.7746  0.6521  1.1776
11705SOL     OW44082   6.367   0.069   7.277  0.2335 -0.5372 -0.0806
11705SOL    HW144083   6.444   0.077   7.220  1.0802 -1.0448  0.9619
11705SOL    HW244084   6.299   0.034   7.220  0.0108  2.1664 -1.6529
11706SOL     OW44085   2.372   4.852   3.150  0.2076 -0.1379  0.4015
11706SOL    HW144086   2.360   4.942   3.180  0.1767 -0.0555  0.1457
11706SOL    HW244087   2.306   4.802   3.198  0.1025  0.0063  0.4084
11707SOL     OW44088  12.504   5.495  12.431 -0.2052  0.5719 -0.2414
11707SOL    HW144089  12.536   5.537  12.351  0.2119 -0.2608 -0.5319
11707SOL    HW244090  12.449   5.423  12.399  1.5761 -1.0497  0.1281
11708SOL     OW44091   4.662   3.861  11.146 -0.5775  0.1110  0.1832
11708SOL    HW144092   4.604   3.887  11.218 -1.7804 -1.1378 -0.2908
11708SOL    HW244093   4.646   3.926  11.077 -1.2129 -0.0605  0.1641
11709SOL     OW44094  11.848   6.457   0.726  0.7219  0.0779 -0.0855
11709SOL    HW144095  11.850   6.367   0.695 -0.4853  0.1589 -0.4558
11709SOL    HW244096  11.844   6.450   0.821 -4.2736 -0.5197 -0.0560
11710SOL     OW44097   4.519   5.902   9.941 -0.0123  0.2609 -0.0553
11710SOL    HW144098   4.457   5.924   9.872  1.1426 -0.0440 -1.2528
11710SOL    HW244099   4.472   5.841   9.998 -0.5635 -0.6139 -1.3936
11711SOL     OW44100   2.837   0.096  11.671  0.3167 -0.2122  0.3348
11711SOL    HW144101   2.916   0.062  11.629  0.6558  1.4226 -0.4125
11711SOL    HW244102   2.767   0.039  11.638  0.8567 -0.1997 -0.9001
11712SOL     OW44103   1.170   0.481   8.724 -0.3496 -0.1674 -0.2763
11712SOL    HW144104   1.249   0.457   8.675  0.9231  0.4840  1.3525
11712SOL    HW244105   1.202   0.532   8.799 -1.9041 -2.8189  2.4470
11713SOL     OW44106   7.256   2.085   1.532  0.0832  0.2202  0.5513
11713SOL    HW144107   7.216   2.153   1.479 -0.5073 -0.8195 -0.3612
11713SOL    HW244108   7.263   2.124   1.619 -1.0671  1.1344  0.2571
11714SOL     OW44109  10.394   1.104   2.848 -0.2767 -0.2328 -0.3430
11714SOL    HW144110  10.481   1.129   2.816 -0.0185 -0.4568  0.1561
11714SOL    HW244111  10.343   1.185   2.845 -0.0944 -0.1318 -0.7809
11715SOL     OW44112   3.653   3.250   6.591  0.1630 -0.4194 -0.0101
11715SOL    HW144113   3.736   3.296   6.598  0.8952 -1.5256 -1.0563
11715SOL    HW244114   3.649   3.194   6.669  0.7710 -0.9212 -0.3307
11716SOL     OW44115   1.193   3.837   2.376 -0.0678 -0.1535  0.0429
11716SOL    HW144116   1.176   3.879   2.291 -2.2789 -0.6486  0.1626
11716SOL    HW244117   1.265   3.887   2.414 -0.2015  1.1911 -1.3706
11717SOL     OW44118  11.111   4.007   6.800 -0.1255 -0.2573 -0.4538
11717SOL    HW144119  11.132   4.089   6.844 -0.7408  0.2909 -1.1501
11717SOL    HW244120  11.043   3.968   6.854  0.3637 -0.4548  0.0317
11718SOL     OW44121   0.951   0.076  11.658 -0.5253 -0.1381 -0.0038
11718SOL    HW144122   0.979  -0.008  11.691 -0.7559  0.1796  1.0307
11718SOL    HW244123   0.904   0.117  11.731  0.7312  1.4481 -0.0108
11719SOL     OW44124   1.531   9.949   1.203 -0.0080  0.8097  0.6679
11719SOL    HW144125   1.455   9.951   1.145 -0.7322  1.1609  1.5984
11719SOL    HW244126   1.497   9.914   1.286  1.4073 -1.6143  0.3453
11720SOL     OW44127   2.782  11.521   1.555 -0.6790  0.1755  0.1701
11720SOL    HW144128   2.786  11.471   1.637  1.7742 -0.1070 -0.0355
11720SOL    HW244129   2.726  11.468   1.498 -0.8518 -0.6269  1.0501
11721SOL     OW44130  11.652  11.173   0.146 -0.1413 -0.1315  0.3641
11721SOL    HW144131  11.696  11.106   0.094  0.1193 -1.2945  2.0099
11721SOL    HW244132  11.581  11.204   0.090  0.9810 -0.3105 -1.2083
11722SOL     OW44133   2.933   7.532   5.210  0.0736  0.5196  0.2350
11722SOL    HW144134   2.944   7.439   5.187  1.4289  0.5860  0.5779
11722SOL    HW244135   2.858   7.532   5.269  0.1590 -0.3822  0.3661
11723SOL     OW44136   0.526   5.598   1.343  0.1942  0.2081  0.1891
11723SOL    HW144137   0.575   5.526   1.384 -1.9220 -2.7691 -2.0223
11723SOL    HW244138   0.585   5.632   1.276  1.2422  0.5914  1.2824
11724SOL     OW44139   5.863   1.378   4.013  0.6231 -0.3464  0.0397
11724SOL    HW144140   5.952   1.411   4.023  0.2961  0.9088 -0.9676
11724SOL    HW244141   5.819   1.443   3.959 -0.4779 -1.7141 -0.7897
11725SOL     OW44142   6.436   8.559   0.563  0.7128  0.0882 -0.4611
11725SOL    HW144143   6.363   8.619   0.577 -0.3160 -1.1191 -0.5037
11725SOL    HW244144   6.479   8.590   0.483 -0.9890 -0.3571 -1.5958
11726SOL     OW44145   9.768   3.460   6.810  0.2577 -0.2134  0.0266
11726SOL    HW144146   9.749   3.543   6.852  2.1381 -0.1022  0.7213
11726SOL    HW244147   9.682   3.423   6.790 -0.6029  1.7189  0.0181
11727SOL     OW44148   3.222   2.842   8.531  0.2924  0.2310  0.4131
11727SOL    HW144149   3.262   2.918   8.572 -0.0613  0.2582  0.7123
11727SOL    HW244150   3.220   2.863   8.438  0.7990  0.3088  0.4208
11728SOL     OW44151   8.469   7.213  10.210 -0.4047  0.4408 -0.1323
11728SOL    HW144152   8.516   7.294  10.225  1.5698 -0.1581 -2.4338
11728SOL    HW244153   8.493   7.157  10.283 -1.6648  1.7847  1.3915
11729SOL     OW44154   3.757  10.450   3.784  0.5141 -0.5345 -0.0708
11729SOL    HW144155   3.751  10.522   3.721  0.6399  0.1075  0.6365
11729SOL    HW244156   3.818  10.482   3.850  0.2982 -1.1578  0.4340
11730SOL     OW44157   6.068   0.173   0.946  0.9061  0.1578 -0.1890
11730SOL    HW144158   6.081   0.261   0.909  0.0697  0.0188 -0.8370
11730SOL    HW244159   6.033   0.189   1.033  0.2781  0.4719 -0.4947
11731SOL     OW44160   7.399  11.492   4.808  0.6854  0.1427  0.2276
11731SOL    HW144161   7.370  11.474   4.718 -0.8870 -0.1415  0.7509
11731SOL    HW244162   7.428  11.583   4.806  3.5582 -0.7079 -1.2232
11732SOL     OW44163   5.415  10.136   0.649  0.1765 -0.1821  0.1923
11732SOL    HW144164   5.380  10.132   0.738 -0.6175 -2.6607 -0.1546
11732SOL    HW244165   5.338  10.140   0.593  0.6511  0.5379 -0.4212
11733SOL     OW44166   6.684   6.683   9.927 -0.2882  0.0328 -0.6228
11733SOL    HW144167   6.779   6.676   9.921 -0.2303  0.0561  0.1436
11733SOL    HW244168   6.652   6.613   9.869  0.2220 -1.1351  0.4472
11734SOL     OW44169  12.553   3.014   5.437 -0.5661 -0.0172  0.5925
11734SOL    HW144170  12.554   2.931   5.388 -1.5507 -0.3588  1.1425
11734SOL    HW244171  12.640   3.051   5.420  0.2411 -1.5776  1.0438
11735SOL     OW44172   4.610  10.087   5.981 -0.1195  0.1155 -0.1574
11735SOL    HW144173   4.612  10.162   6.040 -0.6190  0.6952 -0.8627
11735SOL    HW244174   4.701  10.070   5.960 -0.0713  1.5068 -1.1963
11736SOL     OW44175   0.058  10.099  12.390  0.3624  0.2158 -0.3235
11736SOL    HW144176   0.083  10.086  12.481 -2.2456  0.7285  0.5487
11736SOL    HW244177  -0.036  10.082  12.388  0.2412  0.7472 -2.8184
11737SOL     OW44178   9.867   4.408   4.237 -0.1096 -0.0816  0.8749
11737SOL    HW144179   9.788   4.368   4.274 -0.5044  0.8170  1.0422
11737SOL    HW244180   9.918   4.435   4.314  1.0234 -1.8511  0.7934
11738SOL     OW44181   7.046   9.778   2.031 -0.4833 -0.7564  0.3596
11738SOL    HW144182   7.046   9.862   2.077  0.5433  0.2236 -1.3406
11738SOL    HW244183   6.963   9.776   1.984 -0.6148 -0.8082  0.5937
11739SOL     OW44184   7.870   6.675   2.951 -0.0963 -0.3016  0.1793
11739SOL    HW144185   7.949   6.720   2.919  0.1796 -0.5604  0.4948
11739SOL    HW244186   7.873   6.589   2.908 -0.2390 -0.2893  0.1447
11740SOL     OW44187   2.898   0.609   6.272  0.3744 -0.0195  0.2465
11740SOL    HW144188   2.958   0.680   6.296 -0.6721  0.6639  0.9517
11740SOL    HW244189   2.936   0.572   6.192  1.1621  1.0727  0.0810
11741SOL     OW44190   4.483   0.780   2.806 -1.2478  0.0499 -0.1511
11741SOL    HW144191   4.437   0.700   2.831 -1.8488  0.7365  0.9694
11741SOL    HW244192   4.467   0.787   2.711  1.1253 -2.6124 -0.8935
11742SOL     OW44193   9.810   8.321   0.236 -0.0036 -0.1981  0.6571
11742SOL    HW144194   9.903   8.306   0.253  0.0849  1.9975  2.8129
11742SOL    HW244195   9.806   8.355   0.147  1.1450 -1.0962  0.2525
11743SOL     OW44196   9.131   9.650   8.961  0.3435 -0.2012  0.4536
11743SOL    HW144197   9.226   9.643   8.973  0.3984  0.9104  0.7718
11743SOL    HW244198   9.094   9.627   9.046  0.3272 -0.6487  0.3248
11744SOL     OW44199   5.371   3.051   3.863  0.4951 -0.0443 -0.4157
11744SOL    HW144200   5.324   2.968   3.875  0.5447 -0.3309 -1.9636
11744SOL    HW244201   5.428   3.058   3.939 -0.9614 -0.4231  0.7653
11745SOL     OW44202   4.781   8.897   7.327 -0.2451  0.1116  0.2682
11745SOL    HW144203   4.729   8.883   7.247  0.1819  1.1775 -0.2198
11745SOL    HW244204   4.730   8.959   7.378 -0.0028  0.2605  0.3292
11746SOL     OW44205   6.629   2.587   6.184 -0.7495  0.1487 -0.5908
11746SOL    HW144206   6.715   2.587   6.227  0.1855 -0.5380 -2.3549
11746SOL    HW244207   6.568   2.616   6.252  0.4671 -1.8273  1.4984
11747SOL     OW44208   7.244  11.003   9.844 -0.2900  0.1791 -0.0796
11747SOL    HW144209   7.180  11.024   9.913 -1.2941 -1.1682 -0.5607
11747SOL    HW244210   7.221  11.062   9.772 -1.2949 -0.5909 -0.4089
11748SOL     OW44211   5.293  11.836  11.008  0.0147  0.2748  0.5513
11748SOL    HW144212   5.366  11.899  11.006  0.8366 -0.6890 -0.4090
11748SOL    HW244213   5.250  11.846  10.924 -0.6364  0.4323  0.8944
11749SOL     OW44214   0.284  10.089   8.025 -0.1429  0.1491  0.2091
11749SOL    HW144215   0.222  10.156   7.999 -0.9102 -0.7570 -0.3439
11749SOL    HW244216   0.304  10.109   8.116 -2.0732 -0.1593  0.7346
11750SOL     OW44217   3.053   3.565  10.024 -0.2588  0.0187  0.3141
11750SOL    HW144218   3.099   3.483  10.008  1.0129  0.3195  2.0917
11750SOL    HW244219   3.106   3.610  10.090 -2.3543  1.0170  1.4471
11751SOL     OW44220   1.769  10.094   9.094 -1.1635  0.8300  0.2939
11751SOL    HW144221   1.765  10.057   9.006  1.1386  0.0513  0.4483
11751SOL    HW244222   1.863  10.107   9.110 -1.5266  1.0417  2.5876
11752SOL     OW44223   5.955   6.025  11.904  0.1313  0.2473 -0.1804
11752SOL    HW144224   6.015   5.986  11.841 -0.2430 -0.0148 -0.3831
11752SOL    HW244225   6.011   6.062  11.972  0.5438  0.8362 -0.8443
11753SOL     OW44226   2.299   3.243   8.313  1.2965  0.0982  0.4363
11753SOL    HW144227   2.351   3.294   8.251  0.3589 -0.4492 -0.8391
11753SOL    HW244228   2.314   3.152   8.288  1.2155 -0.1575  1.2744
11754SOL     OW44229  10.184   2.498   4.184  0.0864 -0.3261 -0.3352
11754SOL    HW144230  10.198   2.458   4.098  2.3205  1.4857 -0.9337
11754SOL    HW244231  10.249   2.457   4.241 -0.5057 -0.5912  0.1555
11755SOL     OW44232   0.856   4.528   9.899  0.3810 -0.3229  0.3144
11755SOL    HW144233   0.822   4.531   9.810  0.8590  0.2125  0.1476
11755SOL    HW244234   0.948   4.553   9.891 -0.0860  1.8970  1.2248
11756SOL     OW44235  12.003   0.568   4.117 -0.2803 -0.2234  0.2483
11756SOL    HW144236  12.036   0.658   4.120 -1.7496  0.4701 -1.8136
11756SOL    HW244237  11.927   0.567   4.174 -1.3342  0.3987 -1.0827
11757SOL     OW44238   3.966   6.951   5.167  0.0603 -0.2074 -0.1450
11757SOL    HW144239   3.921   7.022   5.212 -0.6837 -0.6317 -0.1982
11757SOL    HW244240   4.058   6.964   5.187 -0.1400  0.3369  0.4599
11758SOL     OW44241   8.822  11.014   3.385  0.3699  0.2011 -1.2290
11758SOL    HW144242   8.796  10.947   3.449 -0.4678  1.5702 -0.0712
11758SOL    HW244243   8.896  11.059   3.426  0.9551 -0.0216 -2.0158
11759SOL     OW44244   6.293   6.915   2.067 -1.3272  0.5202  0.6969
11759SOL    HW144245   6.296   6.920   1.971  1.9405 -2.6190  0.4072
11759SOL    HW244246   6.209   6.872   2.085 -1.3325 -0.2739 -0.9489
11760SOL     OW44247  11.103   1.320   5.156 -0.2737  0.2513 -0.4469
11760SOL    HW144248  11.118   1.325   5.062  0.6558 -3.5519 -0.6802
11760SOL    HW244249  11.114   1.410   5.188  0.1153  1.5227 -3.8214
11761SOL     OW44250   9.704  11.392   7.000 -0.3144  0.0402 -0.3820
11761SOL    HW144251   9.767  11.345   7.054 -0.8024 -0.2492 -0.0508
11761SOL    HW244252   9.756  11.435   6.932  0.2761  0.1448  0.1320
11762SOL     OW44253  11.749  11.936   9.052  0.4555  0.2655  0.1304
11762SOL    HW144254  11.721  11.996   8.982  2.5890  0.5518 -0.5398
11762SOL    HW244255  11.690  11.862   9.045 -0.7525  1.2475 -0.5473
11763SOL     OW44256   0.309   7.790   4.663 -0.5374 -0.4072  0.2354
11763SOL    HW144257   0.263   7.874   4.668 -1.0249 -0.6945  0.6270
11763SOL    HW244258   0.351   7.791   4.577 -1.8091 -0.4170 -0.4041
11764SOL     OW44259   4.134  12.291   8.229 -0.8318 -0.0918  0.2977
11764SOL    HW144260   4.084  12.274   8.309 -0.3604  0.7062  0.7800
11764SOL    HW244261   4.142  12.386   8.226 -0.8040 -0.1179 -0.6861
11765SOL     OW44262  12.299   0.231   8.820  0.2360  0.7428 -0.1917
11765SOL    HW144263  12.250   0.234   8.903 -2.2786  1.4822 -1.6121
11765SOL    HW244264  12.304   0.322   8.792  2.1747  0.6357 -0.2815
11766SOL     OW44265  11.299   1.666   1.575 -0.4175  0.5866 -0.0796
11766SOL    HW144266  11.246   1.605   1.525 -0.1075  0.5133 -0.3278
11766SOL    HW244267  11.350   1.610   1.634  0.7669  0.4851 -1.1552
11767SOL     OW44268   5.788   0.070   3.498 -0.5722 -0.4530 -0.2270
11767SOL    HW144269   5.758   0.003   3.560 -0.8169  0.3741  0.5645
11767SOL    HW244270   5.740   0.149   3.523  0.1754  0.1769 -0.7506
11768SOL     OW44271  12.473   8.101   1.793 -0.1774  0.4419  0.2773
11768SOL    HW144272  12.530   8.024   1.802 -1.0909 -0.2529  0.2622
11768SOL    HW244273  12.506   8.146   1.716  0.1471 -0.1385  0.0657
11769SOL     OW44274   9.198  12.067   5.678 -0.5812 -0.1210 -0.5560
11769SOL    HW144275   9.151  11.997   5.724 -2.3560 -0.2316 -2.4056
11769SOL    HW244276   9.156  12.148   5.710  1.4781  0.2022  1.5960
11770SOL     OW44277   8.641  10.779   1.701 -0.2487 -0.1386  0.0393
11770SOL    HW144278   8.628  10.733   1.617 -0.8327  1.1098 -0.5750
11770SOL    HW244279   8.591  10.727   1.764 -0.6296 -0.5428 -0.5812
11771SOL     OW44280   0.334   6.179   0.658 -0.0908  0.3258  0.2260
11771SOL    HW144281   0.262   6.237   0.684 -0.2402 -0.2439  1.1387
11771SOL    HW244282   0.290   6.096   0.635  0.3210 -0.4091  1.9173
11772SOL     OW44283   7.374   7.859   5.125  0.3361  0.4727 -0.0461
11772SOL    HW144284   7.362   7.947   5.087 -0.3496  0.0252 -0.9092
11772SOL    HW244285   7.402   7.805   5.052 -2.3295 -0.7076 -0.3156
11773SOL     OW44286   6.865   6.198   1.517  0.0306  0.1574 -0.6253
11773SOL    HW144287   6.810   6.250   1.575  0.2308  0.4887 -0.7266
11773SOL    HW244288   6.807   6.169   1.447 -0.5174 -1.3068  0.3742
11774SOL     OW44289   8.038   1.354   0.507 -0.0763  0.1152  0.0597
11774SOL    HW144290   7.962   1.373   0.451 -0.8543  1.4586  1.4884
11774SOL    HW244291   8.004   1.297   0.576  0.3756  0.1315  0.3022
11775SOL     OW44292   3.294   0.019   8.371  0.5736 -0.6343  0.0681
11775SOL    HW144293   3.275  -0.069   8.404 -2.0825 -0.3667 -0.5501
11775SOL    HW244294   3.246   0.077   8.430  1.5139  0.3672 -0.1242
11776SOL     OW44295  11.615   7.007   3.760 -0.2600  0.1907  0.0806
11776SOL    HW144296  11.675   6.984   3.832  0.7032  1.7294 -0.1893
11776SOL    HW244297  11.602   7.101   3.769 -1.5379  0.1048 -0.7239
11777SOL     OW44298   0.008  11.886   0.512 -0.4096 -0.1208  0.2674
11777SOL    HW144299   0.004  11.963   0.570  0.7721 -0.1588  0.4347
11777SOL    HW244300   0.056  11.821   0.563  0.1237 -0.3612 -0.5157
11778SOL     OW44301   2.982   8.626   3.107 -0.1282  0.3524  0.6398
11778SOL    HW144302   2.989   8.568   3.182 -0.0833  0.3717  0.6510
11778SOL    HW244303   2.908   8.592   3.057  0.2415 -0.0537  0.3549
11779SOL     OW44304   3.933   7.685   2.928  0.1581 -0.4840 -0.3682
11779SOL    HW144305   3.881   7.743   2.984 -1.8375 -1.8568 -0.7091
11779SOL    HW244306   3.885   7.683   2.845  1.0490 -1.4097 -0.8774
11780SOL     OW44307   9.822  10.908  10.005 -0.0028 -0.8642 -0.2459
11780SOL    HW144308   9.855  10.965   9.935  0.9788  0.1262  0.9647
11780SOL    HW244309   9.870  10.826   9.995  1.0668 -0.2850  0.0070
11781SOL     OW44310   0.016   1.751  11.138 -0.2682  0.2291 -0.4501
11781SOL    HW144311   0.056   1.837  11.145  0.3892 -0.1422  0.5680
11781SOL    HW244312   0.074   1.701  11.081  0.6150 -0.2179  0.7887
11782SOL     OW44313   0.182   4.503  11.559  0.2420  0.2838 -0.4494
11782SOL    HW144314   0.115   4.529  11.622  0.6960 -0.8684  0.5502
11782SOL    HW244315   0.241   4.577  11.554  0.5898  0.1389  1.0456
11783SOL     OW44316   7.896   8.640  10.919 -0.6858  0.6805 -0.3940
11783SOL    HW144317   7.865   8.706  10.980 -0.1275  0.3619  0.2602
11783SOL    HW244318   7.948   8.581  10.973 -2.8303 -1.4882 -0.5338
11784SOL     OW44319   7.972  11.174   8.650 -0.3643 -0.4626 -0.3683
11784SOL    HW144320   7.913  11.202   8.721 -0.3008 -0.1103 -0.4509
11784SOL    HW244321   7.913  11.147   8.580 -0.4267 -0.9264 -0.1365
11785SOL     OW44322   4.854   0.529  10.117  0.0061  0.5947 -0.1964
11785SOL    HW144323   4.882   0.502  10.029 -1.8195 -1.4779 -0.2019
11785SOL    HW244324   4.881   0.458  10.174 -1.4813  0.5146  0.4376
11786SOL     OW44325   1.296   0.171   7.530 -0.2867 -0.2380  0.4643
11786SOL    HW144326   1.321   0.256   7.567  0.3082  2.0028 -4.2991
11786SOL    HW244327   1.200   0.172   7.530 -0.3299  1.4011 -1.1192
11787SOL     OW44328   1.627   6.642   5.252  0.2340  0.6635  0.4184
11787SOL    HW144329   1.630   6.652   5.347  0.1711  1.4308  0.3407
11787SOL    HW244330   1.551   6.585   5.237  1.3629 -1.0887  0.9351
11788SOL     OW44331   5.739  10.254   9.798 -0.5052 -0.2511  0.5159
11788SOL    HW144332   5.731  10.159   9.795  0.5331 -0.3712  0.9209
11788SOL    HW244333   5.654  10.285   9.829 -0.4055 -1.1633  1.7940
11789SOL     OW44334   6.076   9.961  12.569  0.3778 -0.4403  0.4932
11789SOL    HW144335   6.002   9.920  12.524 -2.0322 -0.4690  4.0454
11789SOL    HW244336   6.087  10.045  12.525  0.7870 -1.9315 -2.4639
11790SOL     OW44337   9.900  10.219   8.405 -0.2307 -0.8709 -0.1957
11790SOL    HW144338   9.975  10.190   8.352  0.5893  0.4000  0.2183
11790SOL    HW244339   9.832  10.241   8.342  0.6592  0.4155 -0.7499
11791SOL     OW44340   4.951   1.747   1.420 -0.1368  0.2026 -0.2388
11791SOL    HW144341   4.903   1.719   1.497 -2.1056 -2.6041 -2.3092
11791SOL    HW244342   5.022   1.683   1.411  0.8703  1.2633 -0.0993
11792SOL     OW44343   9.831   4.912   7.299 -0.0630 -0.0040  0.8019
11792SOL    HW144344   9.800   4.993   7.340  0.2597 -0.0597  1.1640
11792SOL    HW244345   9.751   4.861   7.283 -0.2560  0.3404  0.6723
11793SOL     OW44346   8.619   7.885  10.185  0.5813  0.3154  0.0606
11793SOL    HW144347   8.533   7.843  10.190 -0.0141  1.5228  0.7229
11793SOL    HW244348   8.599   7.977  10.168  1.7395  0.6263  0.2865
11794SOL     OW44349   1.579   5.277  10.051  0.3014  0.0621  0.3575
11794SOL    HW144350   1.570   5.371  10.064 -1.4267 -0.2991  2.2148
11794SOL    HW244351   1.523   5.257   9.977  0.6261  0.4842 -0.0034
11795SOL     OW44352   0.877   0.494   8.910 -0.5317  0.6427  0.3928
11795SOL    HW144353   0.843   0.579   8.884 -1.3329  0.3274  0.3771
11795SOL    HW244354   0.803   0.434   8.900  0.0860 -0.1096  0.1482
11796SOL     OW44355   5.609   9.543   0.706 -0.3592  0.3254 -0.1091
11796SOL    HW144356   5.515   9.554   0.689 -0.6568 -1.6774 -0.0446
11796SOL    HW244357   5.649   9.542   0.619 -0.9082 -2.2642 -0.4401
11797SOL     OW44358   3.372   9.714   1.248 -0.1499 -0.2973 -0.3926
11797SOL    HW144359   3.343   9.796   1.287  0.4147 -1.5916  3.0833
11797SOL    HW244360   3.291   9.673   1.217 -0.4386  1.4562 -2.1779
11798SOL     OW44361   5.461   6.236   1.097  0.2584 -0.1023 -0.2496
11798SOL    HW144362   5.463   6.315   1.042 -4.3726 -0.5373 -1.4891
11798SOL    HW244363   5.509   6.170   1.047 -0.5881  0.5400 -1.9840
11799SOL     OW44364   6.819   8.537   2.034 -0.2776 -0.4279  0.1701
11799SOL    HW144365   6.812   8.544   1.939  1.2977 -0.1442  0.0589
11799SOL    HW244366   6.813   8.443   2.051  1.9663 -0.7320 -0.4661
11800SOL     OW44367   3.020  11.875  12.312  0.1828  0.3718  0.4593
11800SOL    HW144368   3.063  11.792  12.335 -0.0071  0.0785 -0.2224
11800SOL    HW244369   2.931  11.849  12.289  0.6192  0.5081 -1.5345
11801SOL     OW44370   8.820  10.866   4.560 -0.0110 -0.6411 -0.1542
11801SOL    HW144371   8.738  10.848   4.514 -0.0215 -0.4172 -0.2265
11801SOL    HW244372   8.793  10.901   4.645 -0.0230  1.3004 -0.8880
11802SOL     OW44373   2.399   9.473  10.645  0.1690 -0.6385  0.0428
11802SOL    HW144374   2.319   9.502  10.600  0.1633 -0.7947 -0.0502
11802SOL    HW244375   2.468   9.485  10.580  0.0179 -1.7668 -0.3509
11803SOL     OW44376   9.731   3.065   8.473 -0.0163 -0.0782  0.7040
11803SOL    HW144377   9.690   2.998   8.418  0.8148  0.4287 -0.5993
11803SOL    HW244378   9.661   3.128   8.492 -0.2327 -0.0524 -0.1407
11804SOL     OW44379  10.378   5.929  12.057 -0.2309  0.2154  0.5171
11804SOL    HW144380  10.461   5.903  12.015 -0.7448  0.5130 -0.7476
11804SOL    HW244381  10.337   5.846  12.081 -0.1054  0.0115  0.0479
11805SOL     OW44382   1.408   0.913   9.185  0.1263  0.0229  0.0765
11805SOL    HW144383   1.357   0.908   9.104  2.0031  1.5647 -1.3053
11805SOL    HW244384   1.431   0.822   9.205 -0.9533 -0.4459 -0.7140
11806SOL     OW44385  11.580   4.175  11.776 -0.1489 -0.2333 -0.2125
11806SOL    HW144386  11.515   4.245  11.771 -0.5800 -0.5895  0.2960
11806SOL    HW244387  11.530   4.098  11.806  0.6992 -0.2544  1.2227
11807SOL     OW44388  12.577   5.853   1.517  0.3223 -0.1577  0.0464
11807SOL    HW144389  12.493   5.896   1.534 -0.9400 -2.2215 -0.6709
11807SOL    HW244390  12.620   5.850   1.603 -2.0140 -2.3738  1.2979
11808SOL     OW44391   6.185   0.239   7.463 -0.0525 -0.2321  0.3886
11808SOL    HW144392   6.151   0.172   7.523 -0.1751 -0.8676 -0.3809
11808SOL    HW244393   6.238   0.190   7.400  1.7917  0.6566  1.1716
11809SOL     OW44394   2.818   5.568   9.739  0.0550  0.7471 -0.7605
11809SOL    HW144395   2.805   5.603   9.827 -0.9675  3.4615 -1.8939
11809SOL    HW244396   2.742   5.512   9.724  0.6101 -0.3406  0.3078
11810SOL     OW44397  12.032   0.579   9.759  0.4514  0.1855  0.6034
11810SOL    HW144398  12.045   0.647   9.693 -1.3106 -1.7932 -1.9871
11810SOL    HW244399  12.102   0.516   9.744  0.1152 -0.2209  0.7085
11811SOL     OW44400  12.391   9.387  11.065 -0.0417 -0.0642  0.2540
11811SOL    HW144401  12.443   9.467  11.071 -0.0736  0.0456 -0.7420
11811SOL    HW244402  12.451   9.317  11.089 -0.0491  0.2579  1.2694
11812SOL     OW44403   8.627  10.936   0.847 -0.7292 -0.5007  0.0151
11812SOL    HW144404   8.638  10.847   0.813 -1.4530  0.3058 -2.5653
11812SOL    HW244405   8.689  10.989   0.797  1.8060  0.1487  3.4951
11813SOL     OW44406   3.251   0.523   2.139  0.5753 -0.0789  0.7243
11813SOL    HW144407   3.169   0.501   2.182  0.4436 -0.7239  0.1601
11813SOL    HW244408   3.298   0.577   2.202  0.1054 -0.4646  1.4116
11814SOL     OW44409  11.240   3.201   6.828  0.2938  0.3847 -0.4553
11814SOL    HW144410  11.335   3.200   6.832  0.2846  0.2377 -0.2958
11814SOL    HW244411  11.221   3.220   6.736  0.4793 -0.8696 -0.7758
11815SOL     OW44412   1.147   1.411  10.170 -0.1688  0.2096 -0.0760
11815SOL    HW144413   1.091   1.479  10.134  1.0018  1.3842  0.2519
11815SOL    HW244414   1.138   1.337  10.109  0.1471  1.3985 -1.6281
11816SOL     OW44415   4.902  10.212  12.331 -0.1014  0.0014  0.1249
11816SOL    HW144416   4.851  10.248  12.403 -1.4816 -0.3293 -0.6370
11816SOL    HW244417   4.983  10.263  12.330 -0.8997  1.3290  0.6887
11817SOL     OW44418   8.329   4.692   8.068  0.3650  0.6747 -0.8884
11817SOL    HW144419   8.423   4.675   8.060  0.3024 -0.7946  0.8098
11817SOL    HW244420   8.323   4.781   8.102  1.2187  0.4425 -0.0842
11818SOL     OW44421   2.334   2.940   9.918 -0.3579  0.3707 -0.2531
11818SOL    HW144422   2.345   2.871   9.853 -0.6787  1.8493 -1.9630
11818SOL    HW244423   2.303   3.015   9.867  0.0706  1.7996  1.5194
11819SOL     OW44424  10.459   9.383  10.984 -0.3175 -0.4672 -0.1666
11819SOL    HW144425  10.536   9.439  10.978 -1.7378  1.4562 -1.9939
11819SOL    HW244426  10.431   9.390  11.075  1.4190 -0.9475  0.4455
11820SOL     OW44427  11.518  10.567  11.093  0.2690  0.1162 -0.3479
11820SOL    HW144428  11.487  10.655  11.112 -3.7254 -1.2773  0.4544
11820SOL    HW244429  11.547  10.532  11.177  0.9475  0.3139 -0.4927
11821SOL     OW44430   9.711   6.592   4.249  0.2110  0.5753  0.9726
11821SOL    HW144431   9.628   6.604   4.296  0.0668 -0.4414  1.0003
11821SOL    HW244432   9.684   6.568   4.160  0.4835  1.5459  0.6240
11822SOL     OW44433   3.608   1.854   6.804 -0.5671 -0.0689 -0.2151
11822SOL    HW144434   3.639   1.943   6.787 -0.9087 -0.0066 -0.5000
11822SOL    HW244435   3.622   1.843   6.898 -1.9698  0.8536  0.1358
11823SOL     OW44436   2.569  10.488   6.219 -0.2382 -0.3188 -0.8632
11823SOL    HW144437   2.604  10.570   6.253 -2.9600  0.6119 -0.0477
11823SOL    HW244438   2.566  10.500   6.124  1.3333 -0.3415 -0.9286
11824SOL     OW44439   1.975  11.882  11.112 -0.1407  0.1910  0.0092
11824SOL    HW144440   1.992  11.825  11.037 -1.2562  0.4354 -0.4441
11824SOL    HW244441   1.932  11.826  11.176 -0.0331  0.2114  0.1013
11825SOL     OW44442   7.487   5.481   0.245 -0.0586 -0.1155  0.1539
11825SOL    HW144443   7.564   5.486   0.189  0.9552  0.1085  1.5015
11825SOL    HW244444   7.520   5.443   0.327 -1.5813 -0.8852  0.4387
11826SOL     OW44445   8.133   4.796   6.003  0.2784 -0.5692  1.1342
11826SOL    HW144446   8.181   4.840   6.074 -0.0701 -1.2508  1.8001
11826SOL    HW244447   8.103   4.714   6.042 -0.7708 -0.5019  0.4846
11827SOL     OW44448  11.200   5.450  10.733 -0.1451  0.1989  0.3069
11827SOL    HW144449  11.257   5.386  10.691 -1.2092  0.4981 -1.6702
11827SOL    HW244450  11.139   5.397  10.784  0.3821 -0.2315  0.5059
11828SOL     OW44451   7.491   6.088   2.682  0.9404 -0.0935 -0.1106
11828SOL    HW144452   7.516   6.059   2.595  2.6534  2.4640 -0.5825
11828SOL    HW244453   7.454   6.176   2.669  1.1070  0.2989  1.6954
11829SOL     OW44454   5.728   5.673   9.261 -0.0170 -0.1414 -0.4644
11829SOL    HW144455   5.754   5.586   9.229 -0.0311  0.0728 -1.0705
11829SOL    HW244456   5.780   5.734   9.209  0.1812  0.2092  0.1399
11830SOL     OW44457   1.604   7.503   8.555  0.4069 -0.4245  0.0042
11830SOL    HW144458   1.532   7.458   8.512  0.6408 -0.6196 -0.1864
11830SOL    HW244459   1.672   7.436   8.566  1.1071  0.0783 -1.0908
11831SOL     OW44460   8.546   8.975  10.370 -0.3650 -0.3865  0.0493
11831SOL    HW144461   8.624   8.938  10.330  2.1795  0.7630  3.4618
11831SOL    HW244462   8.570   9.064  10.393 -2.9998  0.2848  0.5590
11832SOL     OW44463   1.985   0.104   9.493 -0.3527 -0.0573  0.0768
11832SOL    HW144464   1.970   0.093   9.399 -1.7325 -0.0513  0.2751
11832SOL    HW244465   2.016   0.018   9.522 -0.5306 -0.2416 -0.2721
11833SOL     OW44466   3.542   5.514   5.997 -0.9043  0.0321 -0.4028
11833SOL    HW144467   3.629   5.539   5.966 -0.7631 -2.7675 -2.6982
11833SOL    HW244468   3.531   5.561   6.080  2.5862  0.7787 -0.2202
11834SOL     OW44469   8.743   2.332  10.532  0.6054  0.1030  0.1030
11834SOL    HW144470   8.705   2.300  10.614  1.8318 -1.2102  0.1825
11834SOL    HW244471   8.687   2.295  10.464  0.5643 -0.1795  0.2885
11835SOL     OW44472   0.494   0.440   6.753  0.1859  0.3010 -0.0016
11835SOL    HW144473   0.438   0.386   6.809 -0.0077  0.5981  0.0957
11835SOL    HW244474   0.476   0.530   6.782  0.4766  0.4180 -0.1873
11836SOL     OW44475  11.811  10.266   0.422  0.2914  0.1488  0.8330
11836SOL    HW144476  11.904  10.288   0.432  0.6392 -1.4302  1.2872
11836SOL    HW244477  11.765  10.348   0.444  1.5702  1.3329 -0.6532
11837SOL     OW44478   8.844   9.733   4.457  0.2467 -0.2281  0.1816
11837SOL    HW144479   8.938   9.743   4.470  0.7137 -2.9794 -0.4116
11837SOL    HW244480   8.831   9.757   4.365  0.1571  1.1134  0.5229
11838SOL     OW44481  11.504   2.205  10.579  0.1433 -0.4841  0.5532
11838SOL    HW144482  11.519   2.292  10.614  0.8673 -0.7005  0.8032
11838SOL    HW244483  11.422   2.176  10.620  0.4432 -0.3309  1.2803
11839SOL     OW44484   5.460   5.915   2.303  0.2078 -0.2189  0.7366
11839SOL    HW144485   5.437   5.985   2.365 -2.7242 -0.8806  0.5595
11839SOL    HW244486   5.433   5.949   2.218  0.5655 -0.8170  0.3785
11840SOL     OW44487  10.480   5.977   9.586 -0.2517 -0.0311 -0.1282
11840SOL    HW144488  10.446   6.046   9.529 -1.6142  0.6525  1.4550
11840SOL    HW244489  10.575   5.987   9.581 -0.1984 -0.9017 -3.3194
11841SOL     OW44490  12.057   4.483   1.010 -0.4403  0.1505  0.2230
11841SOL    HW144491  12.124   4.499   0.944 -0.9859  0.6522 -0.2157
11841SOL    HW244492  12.070   4.391   1.035 -1.2660 -0.5808 -1.7859
11842SOL     OW44493  12.398   8.970   5.140 -0.1011 -0.2259  0.0262
11842SOL    HW144494  12.338   8.925   5.200 -0.7322 -0.3171 -0.6600
11842SOL    HW244495  12.478   8.981   5.191 -0.6782 -0.1494  0.9439
11843SOL     OW44496   3.779   5.396   0.605 -0.3055 -0.6227  0.5839
11843SOL    HW144497   3.776   5.344   0.525 -2.3167 -2.8535  1.9930
11843SOL    HW244498   3.738   5.479   0.582 -0.6334 -1.1405 -0.7403
11844SOL     OW44499   7.056   7.524   0.699 -0.3123 -0.4197  0.1222
11844SOL    HW144500   7.123   7.537   0.632 -0.6831  0.9489 -0.0251
11844SOL    HW244501   7.097   7.552   0.780 -0.7263  0.5806  0.0060
11845SOL     OW44502   6.384   9.855   0.067  0.1321  0.3053 -0.3141
11845SOL    HW144503   6.475   9.871   0.044  0.2583  0.1050  0.0393
11845SOL    HW244504   6.334   9.912   0.009  0.4541  0.0096 -0.8909
11846SOL     OW44505   5.630   1.309   0.894  0.2773 -0.7146 -0.1078
11846SOL    HW144506   5.663   1.361   0.967 -1.8948 -0.4660  0.7811
11846SOL    HW244507   5.562   1.254   0.933  0.1193 -1.6918 -1.6832
11847SOL     OW44508   1.398   9.261   3.606 -0.3824 -0.8331  0.0253
11847SOL    HW144509   1.366   9.195   3.544  2.0668 -1.5421 -0.5887
11847SOL    HW244510   1.419   9.212   3.685 -1.8203 -0.1971  0.8363
11848SOL     OW44511   4.577   4.633   0.250 -0.2687  0.3632 -0.2071
11848SOL    HW144512   4.594   4.569   0.319 -2.7463 -0.8923 -0.6606
11848SOL    HW244513   4.541   4.582   0.178 -0.1034  1.9891 -1.4958
11849SOL     OW44514   3.323   2.210   0.207 -0.3161  0.0603 -0.4708
11849SOL    HW144515   3.320   2.272   0.280  1.4456 -0.2521 -0.0843
11849SOL    HW244516   3.288   2.129   0.243  1.2214 -0.3022  0.3090
11850SOL     OW44517   4.178   0.484   6.429  0.9936  0.5279 -0.4816
11850SOL    HW144518   4.131   0.523   6.503 -1.6820 -1.9951 -0.6937
11850SOL    HW244519   4.153   0.537   6.354 -0.9262 -0.2620 -0.4453
11851SOL     OW44520   0.713   0.605  11.437 -0.1128  0.2141  0.4385
11851SOL    HW144521   0.722   0.509  11.431 -0.8043  0.1832 -0.2644
11851SOL    HW244522   0.764   0.637  11.362  0.1133  0.4041  0.6713
11852SOL     OW44523   3.762   4.862   0.967  0.3545  0.4903 -0.5383
11852SOL    HW144524   3.680   4.838   0.923  0.0671  0.6977 -0.1211
11852SOL    HW244525   3.735   4.895   1.052  0.7166  2.4728 -1.1539
11853SOL     OW44526   9.381   3.401  10.853  0.2016  0.1982  0.2683
11853SOL    HW144527   9.471   3.394  10.822 -0.8081  0.9816 -3.1941
11853SOL    HW244528   9.338   3.324  10.817 -1.1347  1.3269 -0.6136
11854SOL     OW44529  10.631   1.043   6.139  0.1109  0.8826  1.1431
11854SOL    HW144530  10.714   0.999   6.119 -1.0318 -0.7583 -0.2665
11854SOL    HW244531  10.591   0.987   6.206 -0.7185  0.5093  0.3636
11855SOL     OW44532   0.245  11.775   3.465  0.1930  0.2830  0.1129
11855SOL    HW144533   0.182  11.826   3.516  0.0751  1.6206 -1.2892
11855SOL    HW244534   0.192  11.728   3.401  0.4470 -0.4031  0.3943
11856SOL     OW44535   7.040   8.066   3.535 -0.0522 -0.0547  0.6810
11856SOL    HW144536   6.981   8.029   3.600  2.0631 -2.7229  1.2410
11856SOL    HW244537   7.022   8.017   3.455  1.1619 -0.7215  0.7914
11857SOL     OW44538   4.824   1.180   3.864 -0.7141 -1.0511 -0.0811
11857SOL    HW144539   4.869   1.199   3.946  0.9788 -2.2156 -0.6896
11857SOL    HW244540   4.746   1.131   3.889  0.4741 -2.5751  0.7743
11858SOL     OW44541   1.472   0.964   6.278 -0.2690  0.6680 -0.6941
11858SOL    HW144542   1.467   0.999   6.368  2.5647 -1.2372  0.3524
11858SOL    HW244543   1.475   0.869   6.290 -2.8202  0.1645 -3.1118
11859SOL     OW44544   1.930   7.802   1.000 -0.3467  0.2455 -0.5290
11859SOL    HW144545   1.984   7.760   0.932 -0.5681 -0.2648 -0.3969
11859SOL    HW244546   1.935   7.895   0.980  1.7216  0.3553  0.3145
11860SOL     OW44547  11.174   9.585   1.625 -0.2627  0.0518 -0.5845
11860SOL    HW144548  11.179   9.535   1.706 -1.7460 -2.7233 -2.0690
11860SOL    HW244549  11.095   9.638   1.634 -0.5111 -0.3649 -0.2861
11861SOL     OW44550  11.733   7.180   8.021  0.0427 -0.2140  0.2215
11861SOL    HW144551  11.767   7.090   8.025 -1.4182 -0.8315 -0.5586
11861SOL    HW244552  11.686   7.192   8.103 -0.2455 -0.3692  0.0799
11862SOL     OW44553   7.757   7.271   4.924 -0.2778 -0.4786  0.5215
11862SOL    HW144554   7.681   7.298   4.872  1.7334  1.8421 -1.5147
11862SOL    HW244555   7.811   7.220   4.863  0.4125 -0.9220  1.4800
11863SOL     OW44556   6.361   5.130  10.576 -0.0450 -0.5755  0.0357
11863SOL    HW144557   6.358   5.209  10.630 -1.2536 -0.2404 -0.4963
11863SOL    HW244558   6.277   5.129  10.530  0.5537 -1.3916 -1.0802
11864SOL     OW44559   8.627   2.688   4.761 -0.2466  0.0379  0.2797
11864SOL    HW144560   8.632   2.646   4.847 -0.4099  1.0433  0.7982
11864SOL    HW244561   8.690   2.640   4.708 -1.2812 -1.6281  0.4872
11865SOL     OW44562   9.568   6.480  12.444 -0.2761 -0.2549 -0.0543
11865SOL    HW144563   9.547   6.387  12.434  0.9168 -0.8752  2.4318
11865SOL    HW244564   9.623   6.501  12.369 -0.1582 -1.6956 -0.3991
11866SOL     OW44565   9.889  11.412   4.318 -0.3597  0.2951 -0.1446
11866SOL    HW144566   9.871  11.505   4.305  1.5947  0.8305  0.5830
11866SOL    HW244567   9.895  11.376   4.230 -1.0348  0.8696 -0.4314
11867SOL     OW44568   0.680   2.836   3.532 -0.3670  0.1029 -0.0865
11867SOL    HW144569   0.747   2.845   3.465  2.3983  0.3619  2.4772
11867SOL    HW244570   0.685   2.744   3.558 -0.1492  0.3837  0.9063
11868SOL     OW44571   4.067   4.880  10.618 -0.4910 -0.4304 -0.4240
11868SOL    HW144572   4.117   4.870  10.699 -0.3752 -0.8788 -0.5482
11868SOL    HW244573   3.990   4.931  10.643  0.3936  0.8992 -0.3878
11869SOL     OW44574   0.795   0.420   3.329  0.1048 -0.3528  0.2650
11869SOL    HW144575   0.710   0.464   3.323  0.0043 -0.2707  1.8031
11869SOL    HW244576   0.774   0.333   3.365  0.5700 -0.7132 -0.3287
11870SOL     OW44577   2.758   5.977  11.482 -0.4330  0.2328  0.2726
11870SOL    HW144578   2.770   5.985  11.576  1.2591 -1.0489  0.2250
11870SOL    HW244579   2.824   5.913  11.455  0.2077  1.7236 -2.0179
11871SOL     OW44580   0.802   5.323   0.705  0.4314  0.3225 -0.0410
11871SOL    HW144581   0.832   5.264   0.775 -0.0017  1.6309  1.2977
11871SOL    HW244582   0.737   5.379   0.747 -0.5350  0.5410 -1.7563
11872SOL     OW44583  11.584   0.204   3.660  0.0236 -0.2207 -0.2868
11872SOL    HW144584  11.629   0.287   3.675  0.2429 -0.3709 -0.1130
11872SOL    HW244585  11.515   0.202   3.727  2.4173 -1.9426  2.3595
11873SOL     OW44586   2.607   0.723   7.152  0.2985 -0.4688  0.1981
11873SOL    HW144587   2.593   0.679   7.068  1.1266  0.6123 -0.5311
11873SOL    HW244588   2.532   0.782   7.160  0.9665  0.4936 -0.5039
11874SOL     OW44589  10.890   5.369   4.658 -0.3967 -0.7280  0.1893
11874SOL    HW144590  10.798   5.348   4.646 -0.7351 -0.0478  1.4430
11874SOL    HW244591  10.908   5.437   4.593 -0.5029 -1.5547 -0.7249
11875SOL     OW44592   1.321   1.393   9.452 -1.0531 -0.0967 -0.2642
11875SOL    HW144593   1.299   1.426   9.364  0.9189  0.1485 -0.7023
11875SOL    HW244594   1.337   1.299   9.439 -2.1370 -0.3479  0.1219
11876SOL     OW44595  11.708   5.085   2.535  0.9648  0.8073 -0.5698
11876SOL    HW144596  11.663   5.151   2.587  1.4058  0.9102 -0.3201
11876SOL    HW244597  11.647   5.010   2.534  0.7138  1.0071 -0.3820
11877SOL     OW44598   1.123   2.100   4.605 -0.4634  0.3184 -0.4511
11877SOL    HW144599   1.047   2.048   4.630  0.1207 -0.7770 -0.9121
11877SOL    HW244600   1.125   2.171   4.669  0.3116 -1.7396  1.9718
11878SOL     OW44601   7.236   8.875   5.542 -0.2886  0.4577  0.1625
11878SOL    HW144602   7.274   8.923   5.468 -0.5720 -1.8561 -1.6231
11878SOL    HW244603   7.279   8.790   5.540 -2.6924 -0.8718  0.5258
11879SOL     OW44604   1.211   6.004  12.396 -0.3111  0.1066 -0.1612
11879SOL    HW144605   1.119   6.022  12.377 -0.9623 -1.4719  1.2695
11879SOL    HW244606   1.215   5.909  12.408  1.7193  0.0277 -1.2022
11880SOL     OW44607   7.264   6.893   2.463 -0.2822 -0.9297  0.0714
11880SOL    HW144608   7.207   6.877   2.538  0.4986 -0.6881  0.7334
11880SOL    HW244609   7.207   6.884   2.387 -1.2658 -0.3844  0.7213
11881SOL     OW44610   9.262   1.964   0.469 -0.4935 -0.0769  0.5045
11881SOL    HW144611   9.311   1.995   0.545  0.3119 -1.6173  0.6644
11881SOL    HW244612   9.170   1.976   0.492 -0.2410  1.7087  0.7082
11882SOL     OW44613   3.255  11.623   3.190 -0.2002  0.5415 -0.3487
11882SOL    HW144614   3.246  11.692   3.256  1.0396  1.4945 -1.1420
11882SOL    HW244615   3.225  11.663   3.109 -3.3721 -1.1433 -0.1849
11883SOL     OW44616   9.713   2.161   4.273 -0.4821  0.0263 -0.5408
11883SOL    HW144617   9.726   2.249   4.238 -2.4462  0.2658 -0.7646
11883SOL    HW244618   9.759   2.162   4.357  0.1015  1.0288 -0.8479
11884SOL     OW44619  11.017  10.169  11.962 -0.4898  0.2630  0.1490
11884SOL    HW144620  11.021  10.260  11.994 -0.0691 -0.1950  1.4516
11884SOL    HW244621  11.090  10.125  12.006  0.2563 -0.3772 -1.6248
11885SOL     OW44622   6.028   0.651  10.533  0.1964 -0.0896 -0.0325
11885SOL    HW144623   5.946   0.605  10.515  0.3379 -0.7291  0.8944
11885SOL    HW244624   6.051   0.625  10.623  0.7106  1.1482  0.2096
11886SOL     OW44625   2.212   7.372   3.970 -0.6025  0.2015 -0.2602
11886SOL    HW144626   2.196   7.342   4.059 -1.0855  1.4688  0.0969
11886SOL    HW244627   2.306   7.394   3.968 -0.6212  0.3008 -0.0262
11887SOL     OW44628   8.391  11.892   0.912 -0.2400 -0.4585 -0.2875
11887SOL    HW144629   8.425  11.810   0.877  1.3061  0.6308 -1.4772
11887SOL    HW244630   8.330  11.865   0.980 -0.7817 -2.6104 -1.5251
11888SOL     OW44631  10.831   6.928   3.903  0.2227 -0.8393 -0.2689
11888SOL    HW144632  10.903   6.884   3.948 -0.1192 -0.4156  0.7242
11888SOL    HW244633  10.764   6.860   3.892  0.0976 -0.8298  0.3636
11889SOL     OW44634   1.762   9.151   1.759  0.4617 -0.2998  0.0570
11889SOL    HW144635   1.689   9.190   1.808  0.2634  0.0878 -0.5378
11889SOL    HW244636   1.818   9.113   1.827  1.3356  2.0976  0.7795
11890SOL     OW44637  11.426   7.116   6.081 -0.3934  0.0837  0.0388
11890SOL    HW144638  11.368   7.075   6.017 -0.7207  0.5455  0.0351
11890SOL    HW244639  11.376   7.114   6.163 -0.6705  1.0298 -0.0947
11891SOL     OW44640  10.629   1.465   7.758  0.5911  0.4737  0.3263
11891SOL    HW144641  10.540   1.439   7.783  0.0029 -0.4430 -2.3419
11891SOL    HW244642  10.673   1.382   7.738  0.2968  1.0597 -3.4574
11892SOL     OW44643   7.636   3.949   6.617  0.4494  0.1469 -0.0677
11892SOL    HW144644   7.724   3.942   6.579  0.1988  0.0502 -0.6326
11892SOL    HW244645   7.617   3.862   6.651  1.2739  0.5888  1.6433
11893SOL     OW44646   2.807   2.408   1.536 -0.5033 -0.1058 -0.4727
11893SOL    HW144647   2.873   2.348   1.502  0.1915  0.7292 -0.6418
11893SOL    HW244648   2.747   2.422   1.463 -0.7318 -0.6860 -0.3944
11894SOL     OW44649   8.311   8.591   8.862  0.5110  0.3235  0.2700
11894SOL    HW144650   8.387   8.535   8.848  0.8220  0.5628  0.9286
11894SOL    HW244651   8.348   8.680   8.864 -0.1916  0.7791 -2.6126
11895SOL     OW44652  10.810   8.875   3.623  0.3161 -0.1214 -0.0368
11895SOL    HW144653  10.766   8.930   3.688 -1.4499 -0.9717 -0.4708
11895SOL    HW244654  10.814   8.930   3.544  1.1139  0.3657  0.3241
11896SOL     OW44655   6.622   8.363  10.181  0.0359 -0.1193  0.0744
11896SOL    HW144656   6.556   8.431  10.166  0.7067  1.2636  2.7191
11896SOL    HW244657   6.692   8.383  10.119 -0.7708  0.1465 -0.7797
11897SOL     OW44658   9.930   2.420   1.983 -0.1787 -0.1357 -0.2664
11897SOL    HW144659  10.009   2.370   1.963  2.6470  2.6139  2.7728
11897SOL    HW244660   9.889   2.372   2.055 -0.4440 -0.7900 -0.8483
11898SOL     OW44661   9.192   6.134   0.061  0.0344 -0.3058 -0.8698
11898SOL    HW144662   9.139   6.150   0.140  3.4664 -0.0208  1.6055
11898SOL    HW244663   9.228   6.046   0.074 -0.6813 -0.9878 -3.0917
11899SOL     OW44664  10.991  12.305   6.443  0.2161 -0.4230 -0.0938
11899SOL    HW144665  10.981  12.258   6.361  1.2534 -0.9060  0.0343
11899SOL    HW244666  11.027  12.390   6.418  0.0769 -0.3916 -0.1836
11900SOL     OW44667   7.786   1.725   6.771 -0.2412  0.4924  0.3716
11900SOL    HW144668   7.778   1.630   6.769  0.4095  0.4370 -0.5304
11900SOL    HW244669   7.859   1.744   6.712  0.9225  1.4256  2.0422
11901SOL     OW44670  10.240   8.473   4.305  0.0026 -0.0034  0.3317
11901SOL    HW144671  10.285   8.487   4.222  1.5003  0.6801  1.2290
11901SOL    HW244672  10.153   8.511   4.292 -0.1736 -0.8388 -1.2417
11902SOL     OW44673  10.375   4.684   7.022 -0.6312 -0.1255 -0.0480
11902SOL    HW144674  10.400   4.597   6.990 -0.5515  0.3700 -1.4197
11902SOL    HW244675  10.458   4.728   7.040 -0.5564  0.4027 -1.4993
11903SOL     OW44676   4.635   5.354   4.365  0.0046 -0.0101 -0.3753
11903SOL    HW144677   4.598   5.354   4.453 -3.6478 -1.5678 -1.7328
11903SOL    HW244678   4.633   5.446   4.338 -1.0964  0.1984  0.3474
11904SOL     OW44679   9.278  11.109   5.970 -0.4398  0.3406 -0.7089
11904SOL    HW144680   9.372  11.100   5.955 -0.6859 -0.1244 -2.2156
11904SOL    HW244681   9.265  11.201   5.993  0.3192  0.5444 -1.0761
11905SOL     OW44682  10.321   6.238  10.785 -0.2555  0.0745 -0.7772
11905SOL    HW144683  10.261   6.178  10.742  1.1756 -1.3582 -0.8666
11905SOL    HW244684  10.380   6.268  10.716 -0.3713  0.8401 -0.5502
11906SOL     OW44685   6.104   3.719   2.768 -0.3026 -0.5050  0.2734
11906SOL    HW144686   6.147   3.774   2.701  0.0560 -2.0263 -0.7965
11906SOL    HW244687   6.175   3.666   2.804 -0.6805 -0.4170  1.1615
11907SOL     OW44688  11.612   5.718   6.212 -0.8999 -0.2550 -0.4782
11907SOL    HW144689  11.702   5.692   6.190 -0.9484 -1.3926  0.6002
11907SOL    HW244690  11.574   5.744   6.128 -0.1614 -1.6216 -1.2715
11908SOL     OW44691   6.928   4.758   2.780  0.1323  0.8215  0.0214
11908SOL    HW144692   6.944   4.840   2.827 -0.1900  0.0885  1.4788
11908SOL    HW244693   6.853   4.719   2.825 -0.3474  0.1701 -1.2773
11909SOL     OW44694   2.132   2.627   8.627 -0.2542 -0.2867 -0.1084
11909SOL    HW144695   2.120   2.713   8.586 -1.0665 -0.9164 -1.2320
11909SOL    HW244696   2.044   2.594   8.641  0.0103 -0.3203  1.7272
11910SOL     OW44697   7.111   1.975   2.197 -0.0698 -0.2176  0.6765
11910SOL    HW144698   7.111   2.050   2.137 -0.2935 -1.0375 -0.3984
11910SOL    HW244699   7.200   1.942   2.193 -0.1907 -0.5248  0.4541
11911SOL     OW44700   7.258   9.963   5.288 -0.4178  0.3930  0.4969
11911SOL    HW144701   7.306  10.017   5.225 -0.1834  0.5106  0.7770
11911SOL    HW244702   7.196  10.023   5.329  0.8527  0.8148  1.8835
11912SOL     OW44703   5.242   0.272   5.817  0.1486 -0.3987  0.2508
11912SOL    HW144704   5.201   0.340   5.763 -0.8421 -1.4870 -0.4206
11912SOL    HW244705   5.238   0.193   5.764  0.9846 -1.0727  1.1435
11913SOL     OW44706   2.360   1.335   1.769 -0.2615 -0.0888 -0.6847
11913SOL    HW144707   2.274   1.372   1.751 -0.7402 -0.8141  0.0441
11913SOL    HW244708   2.381   1.366   1.857 -0.1422 -0.5756 -0.5394
11914SOL     OW44709   2.347   5.596   2.376  0.6928 -0.8279  0.0680
11914SOL    HW144710   2.390   5.681   2.372  1.4816 -1.1848  0.7399
11914SOL    HW244711   2.351   5.571   2.469  0.4537 -1.5886 -0.1180
11915SOL     OW44712   5.797   9.101   6.228 -0.2618 -0.0159  0.2557
11915SOL    HW144713   5.717   9.148   6.252  0.1766  0.0366  1.7114
11915SOL    HW244714   5.807   9.035   6.296  0.9330 -0.0224  0.0918
11916SOL     OW44715   3.146   1.025   6.473 -0.1296 -0.5731  0.3875
11916SOL    HW144716   3.210   0.955   6.466 -0.7037 -1.0276 -0.4514
11916SOL    HW244717   3.092   1.016   6.395 -1.0614 -0.0465  0.9571
11917SOL     OW44718   6.709   2.477   5.275 -0.2236  0.3445 -0.1664
11917SOL    HW144719   6.621   2.513   5.263 -1.0057 -1.7983 -1.4829
11917SOL    HW244720   6.695   2.382   5.278  1.9328  0.0161  0.9156
11918SOL     OW44721   8.947   0.604   7.580  0.1185 -0.0150  0.1569
11918SOL    HW144722   8.858   0.640   7.572  0.1055 -0.4215 -1.9419
11918SOL    HW244723   9.005   0.680   7.573 -0.0358  0.2950  1.8716
11919SOL     OW44724  11.737   3.674  12.341  0.8396  0.4680 -0.4346
11919SOL    HW144725  11.643   3.659  12.343  0.8826  0.1960 -0.3271
11919SOL    HW244726  11.747   3.767  12.321  0.5300  0.7138  0.5059
11920SOL     OW44727   3.619  10.020   9.692 -0.5111  0.4429  0.0283
11920SOL    HW144728   3.651  10.084   9.629  1.8250 -0.4100  0.2535
11920SOL    HW244729   3.582  10.072   9.763  0.3151  1.5307 -0.3179
11921SOL     OW44730   3.101  12.418   7.917  0.0020 -0.4125  0.3139
11921SOL    HW144731   3.020  12.463   7.942 -1.0957 -1.5870 -0.8807
11921SOL    HW244732   3.131  12.375   7.997 -1.1565 -0.7890  0.5722
11922SOL     OW44733  10.314   1.064   7.708  0.3513 -0.5592 -0.1743
11922SOL    HW144734  10.403   1.063   7.742  0.7726  1.4007 -1.0808
11922SOL    HW244735  10.323   1.039   7.616  0.2728  1.3572 -0.7545
11923SOL     OW44736   6.369   2.548   9.291  0.2693 -0.1546 -0.4051
11923SOL    HW144737   6.396   2.626   9.242  1.6565 -0.4369 -0.1340
11923SOL    HW244738   6.326   2.582   9.369 -1.1582  0.3053 -1.3477
11924SOL     OW44739  12.024   8.081  12.033 -0.2874  0.0393 -0.3529
11924SOL    HW144740  11.997   8.049  12.119 -1.3188  1.6264 -0.0532
11924SOL    HW244741  12.066   8.005  11.991 -0.5114 -0.9851  1.2144
11925SOL     OW44742  11.519   5.793   5.899 -0.2186 -0.3628 -0.0694
11925SOL    HW144743  11.457   5.746   5.843 -0.1416 -1.0862  0.4377
11925SOL    HW244744  11.600   5.794   5.849 -0.5673  0.3854 -0.6376
11926SOL     OW44745   1.270   3.751  11.585 -0.2762  0.1090  0.0708
11926SOL    HW144746   1.266   3.660  11.615  1.1753  0.0058  0.0054
11926SOL    HW244747   1.240   3.802  11.660 -0.2680 -0.3752  0.4069
11927SOL     OW44748  11.599  10.052   2.320 -0.2098  0.1280 -0.1165
11927SOL    HW144749  11.529   9.986   2.322  0.1333 -0.2223  1.0253
11927SOL    HW244750  11.680  10.001   2.320  0.1437  0.4474  3.4209
11928SOL     OW44751   0.379  12.398   6.665  0.4912 -0.6157 -0.8508
11928SOL    HW144752   0.415  12.418   6.578  0.0413  1.2503 -0.6432
11928SOL    HW244753   0.382  12.481   6.712 -3.7655 -0.3396 -0.6977
11929SOL     OW44754   9.346   7.590   1.657 -0.4181 -0.1803 -0.2185
11929SOL    HW144755   9.277   7.589   1.591 -0.7873 -1.1151  0.1584
11929SOL    HW244756   9.299   7.596   1.740  0.0653  2.1589 -0.0322
11930SOL     OW44757   1.563  11.202   1.077  0.2704  0.0204 -0.2196
11930SOL    HW144758   1.573  11.220   0.984 -0.5073  1.2611 -0.0853
11930SOL    HW244759   1.489  11.142   1.082  0.6863 -0.5182 -0.4323
11931SOL     OW44760   1.901   0.354   5.409  0.2004  0.1345 -0.6186
11931SOL    HW144761   1.965   0.419   5.379  1.4713 -1.9632 -2.8375
11931SOL    HW244762   1.953   0.290   5.458 -0.7685  0.0317  0.3045
11932SOL     OW44763   2.400   9.882   9.539  0.4303 -0.5965  0.1179
11932SOL    HW144764   2.484   9.846   9.568  0.7825 -0.5183 -0.7739
11932SOL    HW244765   2.423   9.947   9.472 -0.3706 -1.3509 -0.9293
11933SOL     OW44766   3.096   1.319   6.498  0.0512  0.5573  0.0313
11933SOL    HW144767   3.107   1.340   6.406 -0.0366 -1.4049 -0.4549
11933SOL    HW244768   3.115   1.226   6.505 -2.6010  0.0128  1.5076
11934SOL     OW44769   4.118   4.884   2.403  0.4181  0.1500 -0.2234
11934SOL    HW144770   4.160   4.950   2.349  0.8477 -1.3255 -1.7953
11934SOL    HW244771   4.066   4.832   2.341  0.5869 -1.3607  0.8378
11935SOL     OW44772   3.874   8.813  11.537 -0.0774 -0.2290  0.2440
11935SOL    HW144773   3.930   8.811  11.615  0.1277 -0.6996  0.0904
11935SOL    HW244774   3.802   8.872  11.560 -0.7165 -1.3694  1.2695
11936SOL     OW44775   7.720   3.277   3.796 -0.0399 -0.3214  0.8809
11936SOL    HW144776   7.686   3.358   3.834 -1.7901 -0.9545  0.7232
11936SOL    HW244777   7.718   3.293   3.701  1.8485  0.2825  0.8956
11937SOL     OW44778   0.772   3.880   4.722 -0.5574 -0.4438 -0.2654
11937SOL    HW144779   0.688   3.910   4.758  0.3134  1.8088  0.0481
11937SOL    HW244780   0.819   3.846   4.797  0.5514  2.6091  0.5949
11938SOL     OW44781  11.457   5.246   1.097  0.4192  0.4633 -0.7334
11938SOL    HW144782  11.368   5.282   1.098 -0.1787 -0.7404 -2.9327
11938SOL    HW244783  11.504   5.301   1.034  1.3905  1.2974  0.6562
11939SOL     OW44784   5.472  12.329   9.760  0.1448 -0.0906 -0.9688
11939SOL    HW144785   5.503  12.386   9.830  0.6521 -0.1003 -1.1732
11939SOL    HW244786   5.537  12.340   9.690 -1.9037  2.2408 -2.6775
11940SOL     OW44787  11.149   3.282   1.869 -0.7164  0.7275  0.5449
11940SOL    HW144788  11.144   3.248   1.959 -0.8165  0.7691  0.5557
11940SOL    HW244789  11.240   3.270   1.843 -0.2947  2.2350  1.2409
11941SOL     OW44790   8.712  10.118   8.418  0.2762 -0.1029 -0.3010
11941SOL    HW144791   8.783  10.076   8.467 -1.5932 -0.2943  2.4556
11941SOL    HW244792   8.666  10.172   8.482 -2.1623 -0.0749 -1.9136
11942SOL     OW44793  12.191   5.211   0.646  0.8077 -0.2299  0.2827
11942SOL    HW144794  12.270   5.182   0.601  0.9358 -0.3985  0.6100
11942SOL    HW244795  12.223   5.275   0.710  0.4919  0.9380 -0.6826
11943SOL     OW44796   1.577   9.922   4.567 -0.5011 -0.4238  0.3910
11943SOL    HW144797   1.484   9.902   4.559 -0.5016  0.0605 -1.0414
11943SOL    HW244798   1.588   9.954   4.657 -1.6326 -0.8555  0.6926
11944SOL     OW44799   1.141  10.147   4.697  0.4385  0.1635  0.2792
11944SOL    HW144800   1.046  10.152   4.709  0.4617  1.8213 -0.0435
11944SOL    HW244801   1.170  10.238   4.699  2.0429 -0.3251  0.4466
11945SOL     OW44802   8.044   5.825   0.565  0.3100  0.0045 -0.4205
11945SOL    HW144803   8.073   5.754   0.623 -2.1964  0.2233  1.2628
11945SOL    HW244804   7.972   5.786   0.515  0.3326  0.7578 -1.0484
11946SOL     OW44805   0.038  12.077   4.057  0.4837  0.1975 -0.3120
11946SOL    HW144806  -0.024  12.150   4.066  0.2425 -0.1113  0.6130
11946SOL    HW244807   0.038  12.034   4.143  0.7536 -0.7934 -0.7917
11947SOL     OW44808   7.154   2.581   2.259  0.4691  0.6754  0.3200
11947SOL    HW144809   7.063   2.606   2.271  0.6045  0.7444  1.2135
11947SOL    HW244810   7.203   2.632   2.324  0.9310 -0.6922  1.0917
11948SOL     OW44811   0.811   8.026   3.723 -0.1957  0.2147 -0.0873
11948SOL    HW144812   0.864   8.092   3.677  0.4593  0.2623  0.6976
11948SOL    HW244813   0.744   8.001   3.661 -0.2633  1.4043 -0.5200
11949SOL     OW44814   8.708   6.255   1.827 -0.0374 -0.1771  0.1010
11949SOL    HW144815   8.712   6.338   1.780  1.4173 -0.5869 -0.5583
11949SOL    HW244816   8.640   6.205   1.781 -1.1779  0.7483  0.7235
11950SOL     OW44817  11.459   1.494   1.711  0.1851  0.8379 -0.2201
11950SOL    HW144818  11.463   1.401   1.689  1.3699  0.3994  1.6722
11950SOL    HW244819  11.495   1.500   1.799  1.8131  3.3280 -0.9529
11951SOL     OW44820   8.710   0.822   1.778 -0.3156 -0.5171  0.1410
11951SOL    HW144821   8.784   0.867   1.819  0.6346 -1.3517 -0.5981
11951SOL    HW244822   8.652   0.799   1.851  0.9585 -1.2876  0.9585
11952SOL     OW44823   8.585   2.881  10.687  0.3942  0.7118  0.1336
11952SOL    HW144824   8.599   2.818  10.757  0.3140  0.0834 -0.4099
11952SOL    HW244825   8.508   2.931  10.715 -0.3633 -0.3191 -0.0480
11953SOL     OW44826   8.195   9.163  11.890  0.1568  0.0416 -0.1181
11953SOL    HW144827   8.255   9.092  11.914  1.1270 -0.0797 -2.5721
11953SOL    HW244828   8.214   9.232  11.953  0.5728 -1.1497  1.1306
11954SOL     OW44829   6.251   8.722  10.194  0.5657  0.0011  0.7058
11954SOL    HW144830   6.295   8.786  10.250 -0.2932  0.7042  0.6007
11954SOL    HW244831   6.230   8.770  10.114 -2.2331  0.3520  1.5360
11955SOL     OW44832   5.581   3.776   7.460 -0.0963 -0.0345  0.2352
11955SOL    HW144833   5.635   3.852   7.480  0.6736 -0.2442 -0.9279
11955SOL    HW244834   5.635   3.701   7.485 -0.9183 -0.2243  1.5378
11956SOL     OW44835   1.926   2.888  12.100 -0.2636 -0.5104 -0.2385
11956SOL    HW144836   1.890   2.832  12.168 -1.4125 -0.0394 -0.4258
11956SOL    HW244837   1.912   2.840  12.019 -1.1851 -0.0093 -0.3915
11957SOL     OW44838   3.804  10.100   1.242 -0.5482 -0.2360 -0.1486
11957SOL    HW144839   3.883  10.144   1.213 -0.1298 -0.8622  0.0218
11957SOL    HW244840   3.749  10.170   1.276 -0.7108  0.4085 -1.6553
11958SOL     OW44841   6.791   9.745   1.894 -0.3120  0.5080  0.6213
11958SOL    HW144842   6.776   9.686   1.820  0.2203  0.5850  0.4467
11958SOL    HW244843   6.707   9.749   1.939 -0.4507 -0.0906  0.4212
11959SOL     OW44844   7.726   0.182  12.112  0.1959  0.0550  0.2302
11959SOL    HW144845   7.695   0.152  12.027 -0.6576 -1.2737  0.9773
11959SOL    HW244846   7.802   0.126  12.131 -1.4366 -1.8516  1.6537
11960SOL     OW44847   1.784   0.741  11.990  0.0477  0.6625  0.3698
11960SOL    HW144848   1.873   0.767  12.015  1.0695 -1.0494 -1.1648
11960SOL    HW244849   1.789   0.646  11.981 -1.6722  0.6350 -0.7803
11961SOL     OW44850   5.342  10.390   1.417 -0.1350 -0.3151 -0.1576
11961SOL    HW144851   5.269  10.450   1.404 -0.5625 -0.8977 -0.4801
11961SOL    HW244852   5.416  10.432   1.372 -0.4933 -0.1610 -0.6137
11962SOL     OW44853   8.198   3.693   4.722  0.3679 -0.6634  0.9807
11962SOL    HW144854   8.117   3.744   4.724 -0.4702 -1.9256  0.5008
11962SOL    HW244855   8.263   3.752   4.685 -0.4222  0.2415  0.9905
11963SOL     OW44856   1.439   6.360   7.496  0.1448 -0.3580  0.2318
11963SOL    HW144857   1.418   6.341   7.404  0.5583 -2.5579  0.5344
11963SOL    HW244858   1.505   6.429   7.492 -0.9860  0.6885 -1.0518
11964SOL     OW44859  12.354   3.942   8.426 -0.2941 -0.3795  0.4338
11964SOL    HW144860  12.435   3.940   8.375 -0.5694 -0.5668  0.0006
11964SOL    HW244861  12.294   3.884   8.379 -1.3512  1.2873 -0.3555
11965SOL     OW44862   8.293   0.590   3.040  0.5588 -0.1950 -0.4330
11965SOL    HW144863   8.364   0.554   3.092 -0.6915 -1.1401  0.6938
11965SOL    HW244864   8.333   0.611   2.956  2.0782 -1.0213  0.0467
11966SOL     OW44865  11.481   0.214   0.297  0.3526  0.6665 -0.7691
11966SOL    HW144866  11.566   0.250   0.270  0.3683  0.4653 -0.9925
11966SOL    HW244867  11.419   0.250   0.233 -0.3229  3.6380  1.3589
11967SOL     OW44868   2.865  10.056   1.068  0.3265  0.2871 -0.1563
11967SOL    HW144869   2.870  10.130   1.128 -0.3516  1.1561 -1.1479
11967SOL    HW244870   2.810   9.992   1.114  1.8283 -0.0909  1.1795
11968SOL     OW44871   1.523   9.229   2.633  0.4926 -0.5317  0.4108
11968SOL    HW144872   1.465   9.286   2.682 -1.0461 -0.0449 -1.8157
11968SOL    HW244873   1.580   9.289   2.585 -1.5255 -0.6487 -2.4129
11969SOL     OW44874   0.999   6.993   3.066  0.2557  0.5032  0.3225
11969SOL    HW144875   1.043   6.917   3.105 -0.9761  0.6262  2.0526
11969SOL    HW244876   0.931   7.016   3.129 -1.8736  0.7335 -1.9390
11970SOL     OW44877   6.247  12.537   2.879  0.5566 -0.1427 -0.5030
11970SOL    HW144878   6.202  12.571   2.802 -0.5352 -0.6858 -0.1250
11970SOL    HW244879   6.204  12.581   2.953  2.9249  1.9713 -0.2025
11971SOL     OW44880   0.294   9.859   4.916 -0.6100 -0.3286  0.2567
11971SOL    HW144881   0.360   9.791   4.922  0.3923  0.6355  0.5455
11971SOL    HW244882   0.280   9.887   5.007 -1.9658 -1.0080  0.2873
11972SOL     OW44883   4.802   8.692   8.468 -0.6078  0.2219 -0.8171
11972SOL    HW144884   4.880   8.640   8.488 -0.2022  1.3780  0.8001
11972SOL    HW244885   4.821   8.731   8.382  0.2196 -0.1804 -0.8259
11973SOL     OW44886   8.632   9.862   4.777 -0.2844  0.5468 -0.3755
11973SOL    HW144887   8.624   9.825   4.865  0.0194 -0.8097 -0.8995
11973SOL    HW244888   8.727   9.867   4.762 -0.2740  2.4631  0.0311
11974SOL     OW44889   3.118   2.537  12.430 -0.3662  0.7668 -0.2486
11974SOL    HW144890   3.091   2.445  12.430 -1.1156  0.9116 -2.6938
11974SOL    HW244891   3.183   2.543  12.500 -2.0236 -1.0460  1.5812
11975SOL     OW44892   9.106  10.349   9.551 -0.5178 -0.3559  0.0433
11975SOL    HW144893   9.106  10.390   9.464  0.1855 -0.4559 -0.0074
11975SOL    HW244894   9.199  10.345   9.575 -0.7898  1.1026  1.4695
11976SOL     OW44895   4.659   4.379  10.856 -0.1315  0.4301  0.0314
11976SOL    HW144896   4.572   4.392  10.892 -0.1255 -1.9974  1.2066
11976SOL    HW244897   4.646   4.368  10.762 -0.7204  2.5933 -0.1822
11977SOL     OW44898   4.464   1.110   4.863 -0.2947  0.4125 -0.5687
11977SOL    HW144899   4.560   1.108   4.861 -0.2813  1.0162 -1.2625
11977SOL    HW244900   4.441   1.070   4.946  0.5636  0.2739 -0.3819
11978SOL     OW44901  12.053   1.334   1.536  1.0625 -0.4018 -0.1107
11978SOL    HW144902  11.969   1.372   1.560  0.2479 -2.0045 -0.2775
11978SOL    HW244903  12.115   1.406   1.546 -0.3559  0.9108 -0.2839
11979SOL     OW44904   9.882   4.078   3.780  0.3296  0.1405 -0.9536
11979SOL    HW144905   9.854   4.076   3.872 -0.2176  0.6851 -1.1004
11979SOL    HW244906   9.949   4.010   3.774  0.6626  0.3762 -0.0583
11980SOL     OW44907  11.960   2.222   3.319  0.2972  0.3579  0.3812
11980SOL    HW144908  11.878   2.267   3.300  0.5674  0.2388 -1.1762
11980SOL    HW244909  12.025   2.292   3.323  0.0197  0.5954  2.7442
11981SOL     OW44910  11.433  12.065  12.369 -0.0924 -0.2486 -0.1094
11981SOL    HW144911  11.462  11.975  12.356  0.9251 -0.1415  1.2921
11981SOL    HW244912  11.495  12.117  12.318 -0.6020 -0.3187 -0.8143
11982SOL     OW44913   2.443   7.351   5.339  0.1855  0.1488 -0.9089
11982SOL    HW144914   2.381   7.321   5.272 -0.2696 -0.8887 -0.0729
11982SOL    HW244915   2.418   7.441   5.356 -2.7067 -0.8621  1.0269
11983SOL     OW44916   6.762   1.270   2.045  0.3932 -0.3269 -0.6156
11983SOL    HW144917   6.680   1.253   1.999 -0.7439  0.9964  0.8347
11983SOL    HW244918   6.819   1.197   2.019 -1.0428 -0.9962 -2.0632
11984SOL     OW44919   8.492   6.594   3.926  0.4147 -0.0505  0.7301
11984SOL    HW144920   8.542   6.656   3.979 -2.1009  1.0829  1.9523
11984SOL    HW244921   8.459   6.530   3.989 -0.3458 -0.2793  0.1109
11985SOL     OW44922   4.970   2.617  11.103  0.1432 -0.2450 -0.1170
11985SOL    HW144923   4.996   2.535  11.145 -0.9636 -0.0252  1.0485
11985SOL    HW244924   4.934   2.670  11.173 -2.2172 -0.0284 -1.3889
11986SOL     OW44925   1.979   5.083   1.244  0.2443  0.1050  0.1461
11986SOL    HW144926   1.924   5.019   1.200 -1.2248  0.7750  0.8886
11986SOL    HW244927   2.048   5.032   1.286  1.0621 -0.6283 -1.9892
11987SOL     OW44928   3.795   4.445   9.162 -0.1322 -0.5214  0.3988
11987SOL    HW144929   3.813   4.528   9.119  1.0865 -0.6075  0.7055
11987SOL    HW244930   3.772   4.386   9.090  3.1188 -1.0017 -0.4161
11988SOL     OW44931   7.874   3.788   0.771 -0.4169  0.1397  0.8028
11988SOL    HW144932   7.784   3.774   0.799 -0.0149  0.4207  2.3375
11988SOL    HW244933   7.899   3.871   0.810 -0.1847  1.2331 -1.5129
11989SOL     OW44934  12.316   1.326   9.836  0.0053  0.3065  0.0024
11989SOL    HW144935  12.250   1.298   9.773 -0.2660 -0.5323  0.6301
11989SOL    HW244936  12.392   1.270   9.818 -0.4618 -0.7343  1.1201
11990SOL     OW44937   5.053   1.360   2.634 -0.3005 -0.1871 -0.1236
11990SOL    HW144938   4.967   1.320   2.644 -0.6522  0.3175 -1.1076
11990SOL    HW244939   5.076   1.346   2.542  0.8583 -0.6940  0.2286
11991SOL     OW44940  11.003  10.219   8.035  0.3727  0.3324 -0.6975
11991SOL    HW144941  11.077  10.197   8.092 -1.2210 -0.9780  0.9667
11991SOL    HW244942  10.984  10.138   7.988 -0.5493  0.4141 -0.4725
11992SOL     OW44943   2.242   5.177   6.614 -0.0026 -0.3424  0.2919
11992SOL    HW144944   2.232   5.179   6.519 -1.6893 -1.7965  0.3911
11992SOL    HW244945   2.221   5.266   6.642 -1.7282 -0.4372 -0.5448
11993SOL     OW44946  10.925   9.983   8.543 -0.2831  0.4313  0.7978
11993SOL    HW144947  10.942   9.889   8.534 -0.2866  0.3576  1.5094
11993SOL    HW244948  10.990  10.013   8.607 -0.4513  0.8601  0.7671
11994SOL     OW44949   4.241   4.648   6.345  0.3709 -0.2571 -0.2544
11994SOL    HW144950   4.306   4.578   6.352 -0.4941 -0.9500  1.4072
11994SOL    HW244951   4.157   4.604   6.358 -0.4573  0.6575 -2.0991
11995SOL     OW44952   2.192   0.235  11.803 -0.2783 -0.1869 -0.5030
11995SOL    HW144953   2.277   0.208  11.770  0.2239 -1.1835  1.4501
11995SOL    HW244954   2.137   0.157  11.796 -0.3828 -0.1904  0.1919
11996SOL     OW44955   2.810   3.564   9.882 -0.7300 -0.1053  0.3867
11996SOL    HW144956   2.890   3.556   9.935  1.4907  1.5308 -2.4435
11996SOL    HW244957   2.826   3.507   9.807 -1.7470  1.1099 -0.7832
11997SOL     OW44958   0.521  10.752   6.441  0.4943  0.1731  0.2247
11997SOL    HW144959   0.510  10.803   6.361 -0.0010 -0.1019  0.1177
11997SOL    HW244960   0.616  10.740   6.449  0.4818 -3.4041 -2.6257
11998SOL     OW44961   7.671   8.286  11.257  0.5661 -0.0305 -0.3213
11998SOL    HW144962   7.623   8.367  11.239 -1.2216 -0.8508  0.4898
11998SOL    HW244963   7.709   8.300  11.344  2.3266  0.8141 -1.1717
11999SOL     OW44964   4.550  11.155   9.261  0.4532 -0.3929  0.2782
11999SOL    HW144965   4.474  11.156   9.320  0.1460 -1.6792 -0.0708
11999SOL    HW244966   4.623  11.182   9.316 -0.1759  0.4918  0.7158
12000SOL     OW44967   4.969   8.879   5.570  0.0298 -0.2206 -0.6714
12000SOL    HW144968   5.022   8.893   5.648  0.1549  1.8047 -1.0750
12000SOL    HW244969   5.003   8.797   5.533  0.9702 -0.4290  0.5699
12001SOL     OW44970   8.781   0.604   5.925  0.5070  0.1555  0.0707
12001SOL    HW144971   8.768   0.643   5.838  0.6323  0.7570  0.3220
12001SOL    HW244972   8.874   0.585   5.929  0.7529  1.4027  0.6009
12002SOL     OW44973   3.608   9.759  10.162 -0.6044 -0.9808  0.6692
12002SOL    HW144974   3.690   9.808  10.173 -0.9315 -0.0574 -0.7575
12002SOL    HW244975   3.614   9.689  10.227  0.6858 -0.1072  1.5568
12003SOL     OW44976   4.963   0.167   4.650  0.5797 -0.2530 -0.6829
12003SOL    HW144977   4.968   0.247   4.597  1.0689  0.5919  0.6031
12003SOL    HW244978   4.884   0.123   4.618  1.1869 -0.1142 -2.5381
12004SOL     OW44979   5.647   9.960  11.772  0.3051 -0.7412 -0.0233
12004SOL    HW144980   5.675   9.870  11.787  1.3182 -0.5605 -0.7273
12004SOL    HW244981   5.557   9.952  11.742  0.9508 -1.6837 -1.8767
12005SOL     OW44982   4.506   2.194   1.067  0.4400 -0.1088 -0.6546
12005SOL    HW144983   4.482   2.121   1.123  0.4348 -0.2321 -0.8157
12005SOL    HW244984   4.426   2.247   1.062  0.0985 -0.6678 -1.4208
12006SOL     OW44985   1.812   0.992   0.255 -0.4805  0.5942 -0.4148
12006SOL    HW144986   1.848   0.964   0.339 -0.7391  1.2609 -0.0769
12006SOL    HW244987   1.726   1.028   0.277 -1.1071 -0.4204 -1.1300
12007SOL     OW44988   8.982  11.986  11.562 -0.0626 -0.3056  0.3532
12007SOL    HW144989   8.952  12.054  11.623  0.7726  0.1569  0.2599
12007SOL    HW244990   9.061  11.952  11.602 -0.3299 -1.0457  0.2591
12008SOL     OW44991  11.056  10.580   7.013  0.0543  0.2243 -0.0823
12008SOL    HW144992  11.107  10.529   7.074  0.0820  1.4667  0.9760
12008SOL    HW244993  10.978  10.527   6.995 -0.3784  0.1879  1.7283
12009SOL     OW44994   5.804   3.214   4.734 -0.4362  0.6453  0.1604
12009SOL    HW144995   5.812   3.171   4.819 -2.0210  0.4006  0.2220
12009SOL    HW244996   5.829   3.146   4.671  2.0150  1.2210  0.4499
12010SOL     OW44997   7.298   4.543  11.103  0.0092  0.1643  0.2686
12010SOL    HW144998   7.323   4.480  11.171  0.2617  1.1476  1.1028
12010SOL    HW244999   7.216   4.508  11.067  0.2264 -0.7234  0.5989
12011SOL     OW45000   3.141   4.601   0.405 -0.0062  0.3508  0.5293
12011SOL    HW145001   3.047   4.585   0.397  0.4751 -2.0316 -1.7881
12011SOL    HW245002   3.176   4.521   0.442  1.2710  0.6542  0.0165
12012SOL     OW45003   9.882  11.734  11.063 -0.1105  0.7066 -0.0557
12012SOL    HW145004   9.795  11.749  11.101 -0.2348 -0.1696  0.0176
12012SOL    HW245005   9.937  11.803  11.101 -0.8977  1.6423 -0.5583
12013SOL     OW45006   7.134   8.663   9.299 -0.1574 -0.1932  0.5540
12013SOL    HW145007   7.064   8.598   9.293  1.7433 -2.2336 -1.8266
12013SOL    HW245008   7.116   8.723   9.226 -1.0975  1.1865  1.8663
12014SOL     OW45009   5.521   5.415   8.479 -0.0530  0.2022  0.5351
12014SOL    HW145010   5.580   5.377   8.413 -1.0985 -0.7397  0.1131
12014SOL    HW245011   5.566   5.494   8.508  1.5241 -0.5910  0.3794
12015SOL     OW45012   2.178  11.018   5.646  0.1544  0.4672  0.0402
12015SOL    HW145013   2.184  11.043   5.554 -1.5130  0.3309 -0.1421
12015SOL    HW245014   2.129  11.089   5.687  0.7463  0.4473  0.7947
12016SOL     OW45015  12.466  11.236  11.790  0.0646  0.3042 -0.1333
12016SOL    HW145016  12.411  11.197  11.722  0.2296 -0.0699 -0.0560
12016SOL    HW245017  12.470  11.329  11.767 -0.4030  0.2924 -0.2718
12017SOL     OW45018  11.598   3.038   3.884 -0.5977  0.6772  0.2746
12017SOL    HW145019  11.618   3.083   3.966 -0.8222  0.5959  0.3742
12017SOL    HW245020  11.525   2.981   3.905 -0.7976  0.8148 -0.0350
12018SOL     OW45021   5.191   7.064  11.839  0.3812 -0.1811 -0.2340
12018SOL    HW145022   5.192   6.985  11.893  2.1784 -1.1250 -1.5280
12018SOL    HW245023   5.279   7.069  11.802  0.1090  2.0828 -0.7313
12019SOL     OW45024  12.205  12.273   3.902 -0.0329  0.7698 -0.0546
12019SOL    HW145025  12.223  12.303   3.812  2.1694 -0.9532 -0.2618
12019SOL    HW245026  12.291  12.270   3.944 -0.6874 -1.0818  1.2589
12020SOL     OW45027  12.324  11.507   0.660  0.2248  0.0273 -0.5061
12020SOL    HW145028  12.418  11.495   0.648  0.4033  0.7111  0.1408
12020SOL    HW245029  12.316  11.590   0.706 -0.8052  0.8910 -2.1804
12021SOL     OW45030   1.787   2.760   7.200  0.3431  0.3028  0.0650
12021SOL    HW145031   1.845   2.709   7.256 -0.3678 -1.5676 -0.8274
12021SOL    HW245032   1.762   2.700   7.130 -1.5164  1.4937 -0.3636
12022SOL     OW45033   1.519   3.534   4.231 -1.6908  0.4953  0.2585
12022SOL    HW145034   1.558   3.621   4.233  0.6604 -0.5070  1.0511
12022SOL    HW245035   1.583   3.477   4.274  0.9492 -3.1806 -6.8306
12023SOL     OW45036   7.198   0.679   6.072  0.6807  0.1478  0.0910
12023SOL    HW145037   7.290   0.653   6.067  0.0112 -2.4134 -0.6442
12023SOL    HW245038   7.177   0.674   6.165  0.8066 -1.3337  0.0679
12024SOL     OW45039   5.681  11.188   7.771 -0.0943  0.4043  0.2969
12024SOL    HW145040   5.684  11.152   7.683 -0.7032  0.2794  0.3237
12024SOL    HW245041   5.635  11.272   7.761  0.3834  0.6805  0.3985
12025SOL     OW45042   4.663   4.864   5.895  0.0625  0.2298 -0.1323
12025SOL    HW145043   4.621   4.861   5.981  2.1247 -1.5425  0.8948
12025SOL    HW245044   4.704   4.951   5.891 -2.1473  1.3235 -0.4690
12026SOL     OW45045   8.620   2.463   0.539  0.3825  0.0631 -0.3655
12026SOL    HW145046   8.566   2.411   0.479 -1.4041  0.0815  1.1332
12026SOL    HW245047   8.704   2.472   0.494  0.1871 -2.5969 -1.4569
12027SOL     OW45048   7.992  11.279   8.278  0.1910  0.1533 -0.4304
12027SOL    HW145049   8.033  11.231   8.207  0.3941  0.2908 -0.4055
12027SOL    HW245050   7.945  11.213   8.328  0.5194 -0.0261 -0.3595
12028SOL     OW45051   9.449   4.412  12.186 -0.3215 -0.0791 -0.2093
12028SOL    HW145052   9.491   4.494  12.160  0.9142 -0.6305 -0.0289
12028SOL    HW245053   9.379   4.438  12.245  1.9096  0.7190  2.2706
12029SOL     OW45054   9.076   8.909   7.364 -0.7079 -0.4327  0.7352
12029SOL    HW145055   9.015   8.840   7.340 -0.2035 -0.9176  0.8195
12029SOL    HW245056   9.022   8.977   7.405 -1.2786 -0.5373  0.1632
12030SOL     OW45057   6.649   9.584  10.064  0.0768  0.1748 -0.0188
12030SOL    HW145058   6.741   9.577  10.038  0.4548 -0.5705  1.4299
12030SOL    HW245059   6.651   9.638  10.143 -0.9179  1.4136 -0.7966
12031SOL     OW45060   6.255   7.793   8.915  0.2267 -0.1386 -0.5785
12031SOL    HW145061   6.202   7.873   8.921  1.1672  0.4294  0.8096
12031SOL    HW245062   6.343   7.822   8.939  0.3413 -1.8090  1.3187
12032SOL     OW45063   4.288   6.674   2.558 -0.6394 -0.2496 -0.3362
12032SOL    HW145064   4.283   6.599   2.618 -2.0081 -0.1838 -0.3255
12032SOL    HW245065   4.216   6.730   2.586 -0.0084  0.7750 -0.7482
12033SOL     OW45066  10.594  11.636   9.665  0.4917  0.6187 -0.4312
12033SOL    HW145067  10.535  11.563   9.646  0.1565  0.6652  0.3744
12033SOL    HW245068  10.546  11.714   9.636 -0.0672  0.7013  0.6598
12034SOL     OW45069   6.396  11.585   9.541  0.0495 -0.3757  0.2003
12034SOL    HW145070   6.481  11.560   9.576  0.1165  1.1430  1.2022
12034SOL    HW245071   6.398  11.680   9.536 -1.7927 -0.2567  0.8202
12035SOL     OW45072   7.394   9.608  12.253 -0.5169 -0.1084  0.0785
12035SOL    HW145073   7.433   9.675  12.197 -0.0812 -1.7085 -1.6452
12035SOL    HW245074   7.316   9.649  12.290 -0.6005  1.1469 -1.4242
12036SOL     OW45075   8.068  10.917   1.865 -0.1624 -0.6626 -0.5049
12036SOL    HW145076   8.150  10.868   1.872 -0.0111 -0.4863 -1.0451
12036SOL    HW245077   8.063  10.944   1.774  0.3388  1.3339 -0.0095
12037SOL     OW45078   6.851   0.937  10.633  0.6045  0.1308 -0.1796
12037SOL    HW145079   6.919   0.995  10.599  1.3127 -0.9407 -0.6382
12037SOL    HW245080   6.858   0.858  10.580 -0.3507 -0.3734  0.4203
12038SOL     OW45081   7.226   7.030   0.085 -0.2027  0.2468 -0.3118
12038SOL    HW145082   7.216   7.060   0.175  1.4025  0.3585 -0.1492
12038SOL    HW245083   7.257   6.940   0.093  0.1815  0.3343 -0.7471
12039SOL     OW45084   0.221   6.956  10.159 -0.3711  0.4424 -0.6793
12039SOL    HW145085   0.167   7.024  10.198 -1.8306 -0.9404 -0.1927
12039SOL    HW245086   0.302   6.958  10.210 -0.7623  1.1998 -0.0652
12040SOL     OW45087   7.006  10.596   7.950  0.1697 -0.4295 -0.0941
12040SOL    HW145088   6.950  10.617   7.875  0.4907  1.3597  0.1144
12040SOL    HW245089   6.987  10.505   7.970 -2.2351 -0.0508 -0.3945
12041SOL     OW45090  11.219   1.162  11.517  0.6567  0.6248 -0.7653
12041SOL    HW145091  11.291   1.123  11.467 -0.6649 -0.0936 -2.1974
12041SOL    HW245092  11.235   1.135  11.607  1.3870 -0.8034 -1.2824
12042SOL     OW45093   0.012   5.565  12.165  0.1572  0.1064  0.2402
12042SOL    HW145094   0.065   5.490  12.137 -0.6288 -0.2597 -0.2948
12042SOL    HW245095  -0.066   5.562  12.109 -1.2088 -0.3256  2.0623
12043SOL     OW45096   9.751  10.754   2.025  0.3580 -0.4570  0.0387
12043SOL    HW145097   9.806  10.712   1.959 -1.6713 -1.9126 -0.8074
12043SOL    HW245098   9.701  10.820   1.976 -2.0547 -2.3659 -0.2534
12044SOL     OW45099   1.418   7.484  11.182 -0.3614 -0.2340  0.3311
12044SOL    HW145100   1.437   7.574  11.156 -1.7211 -0.3758 -1.3794
12044SOL    HW245101   1.376   7.491  11.267 -1.7493  0.9272 -0.4056
12045SOL     OW45102   9.468   8.132  11.486 -0.4354  0.0871  0.4539
12045SOL    HW145103   9.532   8.135  11.556  1.6137 -0.4466 -1.2978
12045SOL    HW245104   9.438   8.223  11.476  1.7175  0.7865 -0.1015
12046SOL     OW45105   7.605   5.614  11.514 -0.3405 -0.2411 -0.0749
12046SOL    HW145106   7.528   5.636  11.461  0.6612  2.1433 -0.6764
12046SOL    HW245107   7.655   5.553  11.460 -0.3235  0.6067 -1.0442
12047SOL     OW45108   0.745   7.416  12.154 -0.0093 -0.1230  0.5854
12047SOL    HW145109   0.804   7.343  12.141  0.4949  0.1358  1.3184
12047SOL    HW245110   0.785   7.467  12.225 -1.9956 -0.9179  2.4200
12048SOL     OW45111  11.002   2.838   6.448  0.6315  0.1047  0.3713
12048SOL    HW145112  11.062   2.886   6.390  0.7818  0.2438  0.6354
12048SOL    HW245113  10.926   2.895   6.456  0.0712 -0.4816 -0.6910
12049SOL     OW45114  11.176   3.893   8.025  0.4474  0.1913  0.1957
12049SOL    HW145115  11.109   3.957   8.001 -0.1029 -0.0605  1.0301
12049SOL    HW245116  11.160   3.875   8.117 -0.2499 -2.1359 -0.3056
12050SOL     OW45117  11.889  11.949   5.219 -0.1640  0.0260  0.4322
12050SOL    HW145118  11.881  11.984   5.308  0.7719  2.1940 -0.2719
12050SOL    HW245119  11.807  11.974   5.176 -0.4183 -0.6104  0.5330
12051SOL     OW45120   4.660   1.652   0.169 -0.2940 -0.3921  0.0601
12051SOL    HW145121   4.667   1.652   0.074 -1.0993 -0.0641 -0.0051
12051SOL    HW245122   4.583   1.598   0.188  1.3162 -2.6205  0.6665
12052SOL     OW45123   0.541   8.979  10.785  0.0561 -0.2035 -0.6898
12052SOL    HW145124   0.453   8.948  10.764 -1.4306  1.1794  2.7196
12052SOL    HW245125   0.533   9.074  10.784  1.0432 -0.0542  1.0281
12053SOL     OW45126   5.631   2.038   6.298  0.3859  0.3294  0.0748
12053SOL    HW145127   5.693   1.986   6.349  0.2692  0.2471  0.1326
12053SOL    HW245128   5.555   2.048   6.355  0.1852  0.0861 -0.1514
12054SOL     OW45129  10.484   5.564   0.883  0.2763  0.2074  0.7127
12054SOL    HW145130  10.484   5.643   0.828  0.5128 -1.0854 -1.2560
12054SOL    HW245131  10.392   5.535   0.884  0.4606 -0.4485 -0.0783
12055SOL     OW45132   5.603   5.066   8.130  0.0921 -0.6281 -0.6367
12055SOL    HW145133   5.610   5.056   8.225  0.6640  1.4443 -0.4063
12055SOL    HW245134   5.682   5.024   8.096 -0.0626 -1.2881 -0.2046
12056SOL     OW45135   8.835   2.524   8.210 -0.0829 -0.0860 -0.2281
12056SOL    HW145136   8.804   2.461   8.275  2.3300 -0.9405  0.1989
12056SOL    HW245137   8.763   2.532   8.148 -1.5938 -0.9654  1.3263
12057SOL     OW45138   8.384   4.041   4.599 -0.2903  0.2308  0.8066
12057SOL    HW145139   8.378   3.946   4.590 -0.6292  0.1592  1.7089
12057SOL    HW245140   8.432   4.069   4.521  0.2322 -0.7282  0.7621
12058SOL     OW45141   3.716   5.720   2.963  0.0050  0.1232 -0.7634
12058SOL    HW145142   3.735   5.716   3.057  0.6297 -1.5249 -0.9362
12058SOL    HW245143   3.639   5.777   2.957 -1.5283 -1.6096  0.9959
12059SOL     OW45144   7.564  12.226  12.517  0.2423  0.0552  0.3127
12059SOL    HW145145   7.469  12.222  12.513  0.2904 -0.7131 -0.2492
12059SOL    HW245146   7.583  12.310  12.560 -0.6439  1.1417 -1.2943
12060SOL     OW45147   6.644   6.457   0.590 -0.5636 -0.2584  0.5079
12060SOL    HW145148   6.597   6.374   0.597 -1.4417  0.2908  1.6577
12060SOL    HW245149   6.732   6.438   0.623 -1.1767 -0.4454  2.1198
12061SOL     OW45150  10.851   2.366  10.376  0.0366 -0.0371  0.1331
12061SOL    HW145151  10.763   2.332  10.391 -0.8349  1.7875 -0.5313
12061SOL    HW245152  10.895   2.298  10.326 -1.1142 -0.8502  0.2004
12062SOL     OW45153   9.829  10.939  12.166 -0.0695 -0.0965  0.2472
12062SOL    HW145154   9.794  10.909  12.082  1.0689 -0.9251  0.0474
12062SOL    HW245155   9.754  10.981  12.209 -1.2494 -1.6012 -0.2484
12063SOL     OW45156   8.382   7.244  10.590  0.8859  0.8021  0.1085
12063SOL    HW145157   8.418   7.195  10.516  1.5819  0.3846  0.7180
12063SOL    HW245158   8.297   7.203  10.606  0.2227  1.6144 -1.1542
12064SOL     OW45159   1.408  12.307   4.719  0.2447  0.2510 -0.3164
12064SOL    HW145160   1.364  12.224   4.699 -1.3062  0.3904  2.0840
12064SOL    HW245161   1.408  12.355   4.636 -0.5369 -1.3809 -1.3136
12065SOL     OW45162  12.489   0.402   9.397 -0.1407 -0.7628  0.2788
12065SOL    HW145163  12.452   0.388   9.309  3.6672  1.6889 -2.0184
12065SOL    HW245164  12.468   0.493   9.418  2.8979  0.2221 -0.4407
12066SOL     OW45165   5.629   5.561   8.871 -0.0304 -0.3007  0.6794
12066SOL    HW145166   5.654   5.484   8.820 -1.4738  0.1405 -0.8103
12066SOL    HW245167   5.712   5.601   8.897  0.7756 -0.8498 -0.9267
12067SOL     OW45168   9.339  11.334   0.043 -0.8909 -0.4865 -0.4211
12067SOL    HW145169   9.357  11.253   0.091 -1.8635 -0.0377  0.7513
12067SOL    HW245170   9.425  11.363   0.012 -0.2557 -0.9318  0.8539
12068SOL     OW45171   2.781   4.272   9.731  0.1583  0.5311 -0.2849
12068SOL    HW145172   2.853   4.300   9.674  0.6497  0.7939  0.4462
12068SOL    HW245173   2.727   4.216   9.676  2.4790 -2.1273 -0.1392
12069SOL     OW45174  10.522   7.768  12.376  0.3301  0.2914  0.3043
12069SOL    HW145175  10.593   7.772  12.311  1.3425  2.0332  1.4200
12069SOL    HW245176  10.447   7.734  12.327  1.8491 -1.3975 -0.9792
12070SOL     OW45177   8.745   9.419   3.228 -0.4877  0.2772 -0.1689
12070SOL    HW145178   8.697   9.498   3.252 -0.8930  0.5358 -1.7344
12070SOL    HW245179   8.677   9.353   3.215 -0.3321  0.3059 -1.1636
12071SOL     OW45180   5.977  10.107   5.989 -0.2613  0.5142  0.1554
12071SOL    HW145181   5.940  10.170   5.927  1.9002 -0.5828 -2.4613
12071SOL    HW245182   6.070  10.107   5.970  0.1341 -1.7648  1.7200
12072SOL     OW45183   1.814   4.456   5.298  0.2298 -0.3484  0.2747
12072SOL    HW145184   1.864   4.447   5.379  0.4042 -1.2457  0.0805
12072SOL    HW245185   1.755   4.529   5.314 -1.3762 -1.9393  2.0820
12073SOL     OW45186   6.259  11.660  10.455 -0.5199  0.1247  0.2473
12073SOL    HW145187   6.277  11.749  10.485 -1.0374  0.3006  0.0605
12073SOL    HW245188   6.324  11.644  10.387 -0.1302  0.1869  0.6016
12074SOL     OW45189  12.555   1.418   8.564 -0.4762  0.3602 -0.1009
12074SOL    HW145190  12.641   1.437   8.527  1.0473  1.4217  3.4904
12074SOL    HW245191  12.517   1.504   8.582 -0.2887  0.0095  2.2989
12075SOL     OW45192   3.855   0.651  10.027 -0.3089  0.2229  0.1647
12075SOL    HW145193   3.838   0.676   9.937  1.4935 -0.6917 -0.4883
12075SOL    HW245194   3.807   0.714  10.080 -2.7272 -0.1987 -1.4107
12076SOL     OW45195   4.080  10.622   0.570 -0.1284  0.5249  0.4175
12076SOL    HW145196   4.025  10.700   0.573 -0.1159  0.5096  1.3586
12076SOL    HW245197   4.071  10.583   0.657 -1.4698 -1.4504 -0.5416
12077SOL     OW45198   4.015   8.009   6.675 -0.1705  0.5383 -0.3757
12077SOL    HW145199   3.934   7.958   6.678  0.0225  0.2424  0.0295
12077SOL    HW245200   4.048   7.997   6.587 -0.9489  1.2748 -0.7869
12078SOL     OW45201   9.874   6.565   1.821 -0.4356 -0.2403 -0.2833
12078SOL    HW145202   9.925   6.640   1.791 -0.7604  0.4514  0.8478
12078SOL    HW245203   9.798   6.562   1.762 -0.0507 -0.1340 -0.7886
12079SOL     OW45204   2.232   0.942   3.107  0.5618 -0.2918  0.2153
12079SOL    HW145205   2.288   0.933   3.029 -0.4347 -2.0109 -0.3682
12079SOL    HW245206   2.281   0.896   3.175  0.5433 -0.4896  0.0965
12080SOL     OW45207   3.203   3.057   2.047  0.0033  0.6570 -0.0715
12080SOL    HW145208   3.269   3.027   2.110  0.1460 -0.0641 -0.5488
12080SOL    HW245209   3.196   3.151   2.062 -0.2573  0.4352  1.2902
12081SOL     OW45210   8.284  11.124   1.290  0.0679 -0.3079 -0.0019
12081SOL    HW145211   8.348  11.052   1.290  0.2842 -0.2356  2.6629
12081SOL    HW245212   8.214  11.093   1.347 -1.1854  0.5398 -1.0398
12082SOL     OW45213   7.262   9.444  11.123 -0.0781 -0.9263  0.0580
12082SOL    HW145214   7.344   9.406  11.155  0.3939 -0.1454 -0.2141
12082SOL    HW245215   7.215   9.369  11.085  0.6616 -1.3217 -0.1041
12083SOL     OW45216   6.192   1.774   0.061  0.1699  0.1497  0.0538
12083SOL    HW145217   6.250   1.840   0.023  0.7749  0.7002  1.8558
12083SOL    HW245218   6.111   1.822   0.078  0.7395  0.5790  1.7265
12084SOL     OW45219  11.158   5.366   2.903 -0.1505  0.0963  0.1714
12084SOL    HW145220  11.108   5.285   2.892  1.7693 -1.3273  1.2781
12084SOL    HW245221  11.147   5.389   2.995  0.1146  0.5475  0.0939
12085SOL     OW45222   2.259   9.529   5.286  0.2264  0.2921 -0.8190
12085SOL    HW145223   2.197   9.594   5.317 -0.2090 -0.4357 -0.1165
12085SOL    HW245224   2.225   9.501   5.201 -1.2627 -1.1711  0.2105
12086SOL     OW45225   9.453   7.593  12.338  0.4844  0.4909  0.2094
12086SOL    HW145226   9.462   7.553  12.251  0.3471  0.7632  0.0675
12086SOL    HW245227   9.361   7.581  12.360  0.0750  2.0217 -0.4861
12087SOL     OW45228  10.210   2.694   5.916  0.3407  0.3858 -0.7362
12087SOL    HW145229  10.188   2.740   5.835 -1.7279  0.7796 -0.0170
12087SOL    HW245230  10.189   2.603   5.899  1.4220  0.1956 -1.1302
12088SOL     OW45231  10.361   9.461   9.877  0.7372  0.5539  0.4531
12088SOL    HW145232  10.298   9.506   9.820  0.6080  0.6736  0.6881
12088SOL    HW245233  10.325   9.373   9.887  0.0723  0.9230  1.4034
12089SOL     OW45234  11.074   4.246  12.111  0.3064  0.1467  0.1599
12089SOL    HW145235  11.080   4.184  12.185  0.1311 -1.5055 -1.1398
12089SOL    HW245236  10.989   4.288  12.123 -0.3810 -1.1625  0.1586
12090SOL     OW45237   9.742   2.092  11.929  0.8674  0.0860 -0.0566
12090SOL    HW145238   9.815   2.117  11.987  0.2449  0.8855  0.4004
12090SOL    HW245239   9.772   2.116  11.842  1.4738 -0.3439  0.0236
12091SOL     OW45240  11.234   9.984   7.915 -0.3363 -0.0860 -0.1745
12091SOL    HW145241  11.211   9.891   7.917  0.6975 -0.3481 -0.2124
12091SOL    HW245242  11.329   9.986   7.928 -0.1359  0.8859 -1.6185
12092SOL     OW45243   4.636   6.480   8.355 -0.0066 -0.3778 -0.6732
12092SOL    HW145244   4.704   6.511   8.415 -1.4755  1.1025  0.3208
12092SOL    HW245245   4.588   6.415   8.406 -1.5884  1.2659  0.0265
12093SOL     OW45246   4.757  11.820   3.417 -0.2034  0.2060 -0.1165
12093SOL    HW145247   4.794  11.907   3.401 -0.8684  0.5666  0.2633
12093SOL    HW245248   4.694  11.833   3.488  0.0489 -0.6845  0.2903
12094SOL     OW45249   1.421   0.907   1.581  0.3452  0.0985 -0.1518
12094SOL    HW145250   1.341   0.944   1.545 -0.6871 -1.8953 -0.0264
12094SOL    HW245251   1.480   0.901   1.505  0.6686  2.1876 -0.1161
12095SOL     OW45252   2.253   8.076   5.198  0.4541 -0.7892  0.2879
12095SOL    HW145253   2.184   8.056   5.134  1.1349 -1.4498 -0.2583
12095SOL    HW245254   2.217   8.045   5.282 -0.4213  0.0373  0.2336
12096SOL     OW45255   9.767  10.633   2.302 -0.0163 -0.0114  0.1925
12096SOL    HW145256   9.767  10.664   2.211 -0.5639  0.6983  0.4308
12096SOL    HW245257   9.818  10.697   2.350 -3.9888  2.6409  1.3454
12097SOL     OW45258   3.489   5.630   6.215  0.7519  0.1129  0.4997
12097SOL    HW145259   3.402   5.637   6.254  1.0547 -2.7261  1.8905
12097SOL    HW245260   3.537   5.705   6.252  0.2214 -0.9008  3.5760
12098SOL     OW45261   0.033   0.599   5.838  0.0598  0.2859  0.0593
12098SOL    HW145262  -0.008   0.536   5.779  0.0961  0.3276 -0.0112
12098SOL    HW245263   0.080   0.659   5.780  1.4173 -0.5956  0.1780
12099SOL     OW45264   7.075  11.529   4.266  0.3954  0.6394  0.5029
12099SOL    HW145265   7.027  11.586   4.326  0.6302  0.1317  1.1860
12099SOL    HW245266   7.027  11.447   4.267  1.0019  0.2814  0.8300
12100SOL     OW45267  12.067   2.085   8.480 -0.3508 -0.0965 -0.1805
12100SOL    HW145268  12.073   2.178   8.503  0.3942  0.0154 -0.7827
12100SOL    HW245269  11.997   2.081   8.416 -0.5572  0.0098  0.0368
12101SOL     OW45270   0.940   1.664   3.778 -0.2219 -0.3716 -0.4382
12101SOL    HW145271   0.890   1.690   3.700 -0.5454 -0.0803 -0.1367
12101SOL    HW245272   0.964   1.746   3.821 -0.8984 -0.5399  0.2956
12102SOL     OW45273  10.881  12.088   9.404  0.5901  0.9013  0.1299
12102SOL    HW145274  10.943  12.125   9.341  0.7453 -1.0093 -0.9097
12102SOL    HW245275  10.803  12.069   9.352 -0.3962  2.0413  1.1558
12103SOL     OW45276   0.358   7.612   7.637 -0.1637 -0.3789  0.2313
12103SOL    HW145277   0.304   7.585   7.563 -0.6344 -0.2044  0.5087
12103SOL    HW245278   0.336   7.551   7.707 -0.2924 -0.0634  0.4676
12104SOL     OW45279   1.414   7.765   2.578 -0.0416 -0.1711  0.0196
12104SOL    HW145280   1.439   7.793   2.490 -0.0732  0.4552  0.2062
12104SOL    HW245281   1.457   7.680   2.589 -0.4989 -0.5162 -0.8067
12105SOL     OW45282   2.342   1.443   6.797  0.2158 -0.0366  0.1739
12105SOL    HW145283   2.310   1.525   6.760  0.1876 -0.1250  0.0039
12105SOL    HW245284   2.420   1.422   6.746  0.1967 -0.1393  0.1881
12106SOL     OW45285   8.620  10.932   5.852  0.1224 -0.1295  0.1127
12106SOL    HW145286   8.684  10.998   5.876  0.0280  0.3583 -0.9489
12106SOL    HW245287   8.536  10.978   5.855  0.0833 -0.1224 -0.8914
12107SOL     OW45288   6.316   6.895   1.328 -0.0174  0.6284 -0.0651
12107SOL    HW145289   6.321   6.935   1.241 -1.4750 -0.1956 -0.5666
12107SOL    HW245290   6.388   6.832   1.330 -0.2490  0.3193 -0.8820
12108SOL     OW45291   9.857   8.719   1.056 -0.0372 -0.2658 -0.9882
12108SOL    HW145292   9.887   8.659   1.125 -0.0195 -0.2411 -0.9742
12108SOL    HW245293   9.852   8.664   0.978 -0.5125 -0.4020 -0.8643
12109SOL     OW45294   6.066   3.719   5.130 -0.0513  0.2526 -0.7705
12109SOL    HW145295   6.152   3.752   5.157 -0.9704  2.4949 -0.4007
12109SOL    HW245296   6.077   3.699   5.037  0.9484  0.2060 -0.6590
12110SOL     OW45297   5.921  11.195   9.954 -0.2071  0.6653 -0.3983
12110SOL    HW145298   5.951  11.118  10.002  1.4625  0.0012 -2.3712
12110SOL    HW245299   5.981  11.265   9.979 -0.7173  0.9294  0.1331
12111SOL     OW45300   9.820   7.827  11.620  0.0619 -0.2094 -0.4662
12111SOL    HW145301   9.834   7.763  11.551  0.7368 -0.6754  0.0791
12111SOL    HW245302   9.728   7.852  11.613  0.0184 -0.5787 -1.2405
12112SOL     OW45303  11.642   3.036   7.508 -0.1377  0.0419 -0.6210
12112SOL    HW145304  11.550   3.009   7.508 -0.3249  0.5919 -1.8127
12112SOL    HW245305  11.681   2.987   7.436  0.8831 -1.3121  0.7912
12113SOL     OW45306   1.090   7.872   9.024 -0.2167 -0.1065  0.2399
12113SOL    HW145307   1.065   7.820   8.948  1.3240  0.9036 -1.0216
12113SOL    HW245308   1.124   7.809   9.087 -0.3591 -0.8344 -0.4011
12114SOL     OW45309   1.532   5.304   2.242  0.4021 -0.1211 -0.6062
12114SOL    HW145310   1.519   5.209   2.251  1.4242 -0.1164  2.2586
12114SOL    HW245311   1.461   5.343   2.294  0.5617  0.6314 -0.9440
12115SOL     OW45312   7.211  11.196  12.088 -0.0515  0.5383  0.3133
12115SOL    HW145313   7.158  11.273  12.065 -0.9556  0.1581  1.0804
12115SOL    HW245314   7.297  11.232  12.109  0.2465  1.1054 -1.6287
12116SOL     OW45315   3.374   5.675   8.786 -0.0765  0.3291  0.1977
12116SOL    HW145316   3.412   5.599   8.830 -3.1212 -1.0681  0.6593
12116SOL    HW245317   3.420   5.681   8.703  0.7818 -1.5352  0.4926
12117SOL     OW45318   7.469  11.775   4.431 -0.5021 -0.2055 -0.0665
12117SOL    HW145319   7.401  11.799   4.494 -1.3562  1.7536 -1.6060
12117SOL    HW245320   7.427  11.709   4.375 -0.0537 -1.2712  0.8298
12118SOL     OW45321   3.020  10.138   9.318  0.3159 -0.6775 -0.2287
12118SOL    HW145322   3.073  10.175   9.389  0.8117  0.3342 -1.0901
12118SOL    HW245323   3.078  10.141   9.241 -1.2451  1.3093 -1.4059
12119SOL     OW45324   4.757   5.191   3.319 -0.1387 -0.1813  0.4933
12119SOL    HW145325   4.851   5.179   3.332  0.1108  1.4427  0.4917
12119SOL    HW245326   4.736   5.137   3.243  0.5363 -1.4931  1.2070
12120SOL     OW45327  11.885   8.114   6.379 -0.4897 -0.3088  0.0475
12120SOL    HW145328  11.811   8.094   6.436 -0.2225 -1.2619  0.0745
12120SOL    HW245329  11.895   8.209   6.385 -0.4153 -0.4052  1.6508
12121SOL     OW45330  11.146   7.451   9.102  0.3311 -0.2853 -0.2466
12121SOL    HW145331  11.225   7.398   9.114  0.8941 -0.2547 -3.0910
12121SOL    HW245332  11.102   7.448   9.186  1.2731 -3.7099  0.2741
12122SOL     OW45333  11.003   4.955   0.682 -1.1407  0.5583 -0.1982
12122SOL    HW145334  11.027   4.880   0.628 -0.5156  0.4034  0.2829
12122SOL    HW245335  11.081   5.010   0.683 -0.3814 -0.4032  2.1467
12123SOL     OW45336   6.064  11.145   3.457  0.0305 -0.1548  0.1958
12123SOL    HW145337   6.024  11.064   3.425  0.0220  0.6907 -2.1334
12123SOL    HW245338   5.992  11.194   3.497 -0.1678 -0.8277  0.6835
12124SOL     OW45339   4.459  11.687   9.224  0.0714  0.3969 -0.0238
12124SOL    HW145340   4.437  11.774   9.189  0.7196  0.7767  0.4946
12124SOL    HW245341   4.551  11.675   9.200 -0.0746 -0.2325 -0.2643
12125SOL     OW45342   1.576   2.167   1.193 -0.2387  0.3482 -0.2078
12125SOL    HW145343   1.587   2.262   1.202  3.1181  0.0061  0.7961
12125SOL    HW245344   1.583   2.151   1.099  3.5728  0.8646 -0.1589
12126SOL     OW45345   3.638   9.199   0.181  0.3996 -0.2875  0.1362
12126SOL    HW145346   3.640   9.254   0.259  1.8325 -0.3328  0.1631
12126SOL    HW245347   3.593   9.252   0.115  1.5963  0.8781  0.2123
12127SOL     OW45348  11.086   9.646   2.215  0.4510  0.2829  0.0461
12127SOL    HW145349  11.088   9.669   2.308 -0.9205  1.3733 -0.1616
12127SOL    HW245350  11.014   9.583   2.207  1.0366 -0.3690 -0.1753
12128SOL     OW45351   5.745   6.569  10.877  0.6329  0.0396 -0.1109
12128SOL    HW145352   5.664   6.562  10.928  0.1901  0.2235 -0.7710
12128SOL    HW245353   5.760   6.663  10.870  0.3374  0.0374 -0.8522
12129SOL     OW45354   0.713   1.908  11.616  0.7277 -0.1466 -0.6231
12129SOL    HW145355   0.658   1.902  11.694  1.5104 -0.0826 -0.0569
12129SOL    HW245356   0.658   1.952  11.551  0.6500  1.3925  0.4389
12130SOL     OW45357   4.943  10.989   2.819  0.0309 -0.8369 -0.5317
12130SOL    HW145358   4.996  11.001   2.898 -1.7612  1.6740  0.4387
12130SOL    HW245359   4.854  10.979   2.852 -0.9022  1.3060 -2.1882
12131SOL     OW45360   5.149  11.246  12.088  0.0132  0.3895 -0.0292
12131SOL    HW145361   5.222  11.258  12.028 -0.1058  2.1707  0.1207
12131SOL    HW245362   5.077  11.216  12.033  0.5939 -0.4775 -0.3296
12132SOL     OW45363   8.857   5.608   5.363 -0.1663  0.6289  0.3173
12132SOL    HW145364   8.868   5.578   5.453 -0.7107  0.8869  0.4752
12132SOL    HW245365   8.762   5.612   5.351 -0.1839 -1.7974 -1.0588
12133SOL     OW45366   9.963   1.237   3.210  0.1046  0.3151 -0.5186
12133SOL    HW145367   9.904   1.206   3.278  1.3262 -0.4284  0.2562
12133SOL    HW245368   9.961   1.333   3.218 -0.6481  0.2749 -0.2188
12134SOL     OW45369   8.791   9.128  11.783 -0.1550  0.3100 -0.2195
12134SOL    HW145370   8.788   9.141  11.878 -0.6943 -0.5633 -0.1047
12134SOL    HW245371   8.730   9.193  11.748 -0.4105  0.2458  0.0927
12135SOL     OW45372  10.540   9.013   3.074 -0.0518  0.1661 -0.2661
12135SOL    HW145373  10.497   8.928   3.089 -0.0908  0.0156 -1.1684
12135SOL    HW245374  10.520   9.064   3.152 -1.2382 -0.1641 -0.3412
12136SOL     OW45375   7.887   9.261   7.360 -0.4409 -0.5359  0.2878
12136SOL    HW145376   7.942   9.221   7.292  3.0653  0.0845  2.5084
12136SOL    HW245377   7.852   9.340   7.318 -1.5512 -2.0621 -1.8792
12137SOL     OW45378   9.925   9.836   4.297  0.7698  0.3002 -0.0538
12137SOL    HW145379   9.937   9.846   4.202  0.2865  0.4762 -0.0975
12137SOL    HW245380   9.886   9.749   4.307  0.6909  0.3376 -0.0304
12138SOL     OW45381   5.539   3.596   6.061  0.0765  0.4846  0.1636
12138SOL    HW145382   5.537   3.550   5.977  0.5348  0.8187 -0.0332
12138SOL    HW245383   5.622   3.643   6.061  0.0252  0.5817  0.7570
12139SOL     OW45384  10.256   9.162   9.524 -0.1491  0.0421  0.1162
12139SOL    HW145385  10.186   9.105   9.492  0.6961 -1.0880  0.2033
12139SOL    HW245386  10.285   9.120   9.605 -0.4151  1.3639  0.9170
12140SOL     OW45387   4.831   5.112   9.687  0.6402  0.7842  0.1424
12140SOL    HW145388   4.776   5.082   9.615  1.8496  1.9970 -1.3620
12140SOL    HW245389   4.777   5.175   9.734  0.4844  1.4593 -0.9112
12141SOL     OW45390   8.102   5.568   0.243  0.5068  0.0636 -0.3826
12141SOL    HW145391   8.059   5.552   0.327 -1.1953  2.1648 -0.7713
12141SOL    HW245392   8.088   5.487   0.193 -1.3023 -0.0445  0.2356
12142SOL     OW45393   7.359   6.804   4.557  0.3978 -0.3986 -0.3367
12142SOL    HW145394   7.399   6.862   4.493 -0.4136  0.2877 -0.2318
12142SOL    HW245395   7.266   6.802   4.533 -0.1628  0.8291  1.5064
12143SOL     OW45396   3.261   1.683   9.485 -0.2101 -0.3128 -0.7647
12143SOL    HW145397   3.312   1.762   9.463  0.3001 -0.1052  1.0134
12143SOL    HW245398   3.187   1.715   9.536 -0.2202 -0.9446 -0.3717
12144SOL     OW45399   7.234  11.334   3.506  0.0980 -0.5753  0.2452
12144SOL    HW145400   7.148  11.291   3.509 -0.2319 -0.0341 -0.9725
12144SOL    HW245401   7.232  11.387   3.426  1.3175 -0.0172  0.5614
12145SOL     OW45402   4.107   2.268   3.275 -0.5411  0.1677  0.5642
12145SOL    HW145403   4.125   2.189   3.225 -2.3272 -0.0215  0.1609
12145SOL    HW245404   4.184   2.324   3.260  0.8903 -1.5682  1.0947
12146SOL     OW45405   7.293   3.346   0.164  0.5960  0.1544  0.3753
12146SOL    HW145406   7.385   3.319   0.159  0.8144  0.7164  1.1663
12146SOL    HW245407   7.277   3.392   0.082  1.1882  0.5546  0.4785
12147SOL     OW45408  11.272   7.716   5.343 -0.2946  0.5762  0.1061
12147SOL    HW145409  11.201   7.663   5.380 -0.5934  0.6207 -0.3952
12147SOL    HW245410  11.229   7.795   5.312 -0.1191  0.3359 -0.7581
12148SOL     OW45411  12.306   0.034   6.529  0.4420  0.4823 -0.4679
12148SOL    HW145412  12.257   0.094   6.472  0.2331  1.6172  0.8265
12148SOL    HW245413  12.281   0.061   6.618 -0.4019 -2.1796  0.1879
12149SOL     OW45414   5.020   3.413   1.913 -0.8333 -0.1331  0.5469
12149SOL    HW145415   4.990   3.325   1.935  0.1121 -0.1542  1.8521
12149SOL    HW245416   4.970   3.436   1.834 -0.7026 -2.0379 -0.1418
12150SOL     OW45417   0.755   9.006   0.632  0.2900  0.3034 -0.1328
12150SOL    HW145418   0.703   8.932   0.601 -0.2107  1.2247 -1.6057
12150SOL    HW245419   0.820   9.020   0.563  1.5899  0.1026  0.9979
12151SOL     OW45420   2.389   8.239   2.446  0.2753  0.2472  0.0561
12151SOL    HW145421   2.434   8.157   2.426  1.5685  0.3727  2.1690
12151SOL    HW245422   2.452   8.290   2.497 -0.8173  2.2128 -0.4342
12152SOL     OW45423   6.103   5.754   0.043 -0.4438 -0.5179 -0.0424
12152SOL    HW145424   6.109   5.767   0.137 -1.4667  1.3210 -0.1864
12152SOL    HW245425   6.154   5.825   0.005  0.8239 -1.8229 -0.9120
12153SOL     OW45426   7.354  10.730   7.599  0.5098 -0.8579 -0.0670
12153SOL    HW145427   7.425  10.749   7.660  1.6921  0.0271 -1.6552
12153SOL    HW245428   7.286  10.795   7.619  1.7006  0.7154 -0.9425
12154SOL     OW45429  12.543   6.284   8.189 -0.2753 -0.7706  0.1078
12154SOL    HW145430  12.615   6.250   8.241 -0.8286 -0.5862  1.0130
12154SOL    HW245431  12.465   6.269   8.243 -0.9108 -0.9150 -0.8283
12155SOL     OW45432  12.064   8.721   6.503 -0.1218 -0.3492 -0.0975
12155SOL    HW145433  12.131   8.697   6.439 -0.5089  0.1314 -0.6844
12155SOL    HW245434  11.998   8.653   6.495 -0.9784  0.6091 -1.4092
12156SOL     OW45435   8.222  10.965   9.380 -0.0714 -0.1936 -0.3178
12156SOL    HW145436   8.146  11.018   9.403 -0.5920 -0.1657 -2.0019
12156SOL    HW245437   8.273  10.960   9.461 -0.5780  1.9077  0.1955
12157SOL     OW45438   3.498   9.395   8.210  0.0931  0.0189  0.7550
12157SOL    HW145439   3.496   9.340   8.289  2.4894 -1.4380 -0.1042
12157SOL    HW245440   3.494   9.333   8.137  4.1733  0.6572 -0.2745
12158SOL     OW45441   0.621   2.656   7.801 -0.4814 -0.2133  0.6031
12158SOL    HW145442   0.664   2.575   7.826  0.0453 -0.5338 -1.2302
12158SOL    HW245443   0.537   2.629   7.765 -0.2508  0.0247 -0.1388
12159SOL     OW45444  10.969   8.846   8.931  0.6081  0.2769  0.3390
12159SOL    HW145445  10.885   8.800   8.931  1.5535 -1.5702  0.8233
12159SOL    HW245446  11.030   8.784   8.972  2.5809  0.8505 -1.5436
12160SOL     OW45447   3.662  10.793   6.258  0.0963  0.8544  0.2829
12160SOL    HW145448   3.706  10.709   6.270  1.8965  1.4944 -1.3317
12160SOL    HW245449   3.593  10.794   6.324 -0.2844 -2.0705  0.0384
12161SOL     OW45450  11.714   6.054   7.672  0.6196  0.1480  0.1218
12161SOL    HW145451  11.795   6.008   7.692  0.0516 -1.9646 -1.9504
12161SOL    HW245452  11.665   5.994   7.615 -1.7195  1.9754  0.0140
12162SOL     OW45453   1.872   9.426  12.152  0.0534  0.1866  0.1765
12162SOL    HW145454   1.874   9.363  12.223 -2.7501 -1.3214 -0.9305
12162SOL    HW245455   1.955   9.414  12.106  0.2059 -1.6326  0.8750
12163SOL     OW45456   3.118   9.875   5.565 -0.2690  0.1439 -0.2132
12163SOL    HW145457   3.172   9.844   5.492 -0.6279 -0.0589 -0.3906
12163SOL    HW245458   3.099   9.966   5.543 -1.3061 -0.2314 -0.9292
12164SOL     OW45459   3.013   1.208  11.736  0.4550  1.1897 -0.9378
12164SOL    HW145460   2.921   1.181  11.731  0.9049 -0.4553 -0.9227
12164SOL    HW245461   3.010   1.299  11.766 -1.1696  1.2568 -1.2229
12165SOL     OW45462  12.344   0.441   8.610 -0.2727 -0.3722 -0.0262
12165SOL    HW145463  12.403   0.382   8.563 -0.4644  0.6016 -1.5555
12165SOL    HW245464  12.394   0.521   8.622 -0.6413 -0.2038  0.4181
12166SOL     OW45465   4.365   6.621   4.936  0.5934  0.1425  0.1952
12166SOL    HW145466   4.389   6.644   5.025 -1.8461 -0.5386  1.1031
12166SOL    HW245467   4.443   6.642   4.884  1.5813  1.8947  2.2373
12167SOL     OW45468  12.485   3.236   8.945  0.3568  0.7059 -0.0486
12167SOL    HW145469  12.527   3.195   8.869 -0.6767  0.4916 -0.5288
12167SOL    HW245470  12.414   3.175   8.968 -1.9093  2.6147 -1.4186
12168SOL     OW45471   2.140   5.514   8.389  0.1344  0.4463  0.0191
12168SOL    HW145472   2.227   5.544   8.416 -0.4542  1.3235  1.0119
12168SOL    HW245473   2.140   5.523   8.294  0.7071  1.6260  0.1117
12169SOL     OW45474   6.018   9.718   9.894 -0.4131  0.1956 -0.4817
12169SOL    HW145475   5.994   9.641   9.946 -1.3579  0.4773 -0.4727
12169SOL    HW245476   6.112   9.709   9.878 -0.0146  0.3020  1.5922
12170SOL     OW45477   6.124   8.707   4.909  0.5929  0.5359  0.3065
12170SOL    HW145478   6.174   8.626   4.907  2.8928  1.8574  0.4785
12170SOL    HW245479   6.161   8.756   4.983 -1.6892  1.2027  1.0874
12171SOL     OW45480   9.879   4.336   7.694  0.3643 -0.4846  0.1250
12171SOL    HW145481   9.894   4.310   7.785  1.0550 -1.3485 -0.2224
12171SOL    HW245482   9.878   4.254   7.646 -1.5313 -0.1613 -0.4623
12172SOL     OW45483  10.491   4.732   8.236  0.6645  0.1197 -0.1471
12172SOL    HW145484  10.524   4.783   8.309  0.0980 -0.7412  0.7410
12172SOL    HW245485  10.412   4.690   8.270  1.0585 -1.2664 -0.8557
12173SOL     OW45486  11.771   0.863  11.588 -0.0287 -1.1138  0.5699
12173SOL    HW145487  11.786   0.768  11.595  1.8617 -0.8755  0.1648
12173SOL    HW245488  11.839   0.894  11.529 -0.0836  0.6389  1.3633
12174SOL     OW45489   7.963   7.844   1.900 -0.3651 -0.5282  0.3842
12174SOL    HW145490   7.894   7.909   1.916 -0.0449  0.1772 -0.9486
12174SOL    HW245491   7.922   7.760   1.921 -0.9362  0.0469  1.6798
12175SOL     OW45492   8.907   5.942   1.096  0.1989  0.5211  0.5141
12175SOL    HW145493   8.936   6.010   1.157  0.4000  0.7168  0.2034
12175SOL    HW245494   8.966   5.950   1.022  0.5271 -0.3183  0.6848
12176SOL     OW45495   9.483   7.588   3.896 -0.2187  0.2601 -0.5991
12176SOL    HW145496   9.578   7.582   3.905 -0.2930  0.9961  1.1320
12176SOL    HW245497   9.469   7.669   3.846  0.0693  0.0353 -1.0456
12177SOL     OW45498  10.722   1.365   1.429 -0.6656 -0.1327  0.0171
12177SOL    HW145499  10.788   1.394   1.493 -2.0124 -0.7369  1.7670
12177SOL    HW245500  10.722   1.270   1.437  0.0242 -0.3311 -1.8684
12178SOL     OW45501   4.402   8.245   5.847 -0.2617 -0.0773  0.1451
12178SOL    HW145502   4.384   8.274   5.757  0.5225 -0.8572 -0.2865
12178SOL    HW245503   4.495   8.266   5.859  0.1197 -1.6633  0.0971
12179SOL     OW45504   8.010   3.309   2.374 -0.3065  0.1463 -0.1042
12179SOL    HW145505   8.093   3.274   2.407 -0.9258 -1.3585 -0.1009
12179SOL    HW245506   8.018   3.304   2.279 -0.3243  0.1671 -0.1068
12180SOL     OW45507   1.117   7.719   8.283  0.0282 -0.4685 -0.4433
12180SOL    HW145508   1.077   7.734   8.369 -1.4803 -1.2916 -0.9590
12180SOL    HW245509   1.062   7.769   8.223  1.4479  0.6186 -0.8811
12181SOL     OW45510   0.211   3.285   0.795  0.1012  0.0667 -0.1480
12181SOL    HW145511   0.215   3.370   0.838 -0.9406  0.4721 -0.8146
12181SOL    HW245512   0.225   3.304   0.702  1.6715 -0.7170 -0.1087
12182SOL     OW45513  10.813   9.047   2.988 -0.0913  0.5182 -0.1703
12182SOL    HW145514  10.745   9.001   3.036 -0.8904  0.6812 -1.1110
12182SOL    HW245515  10.867   9.088   3.056 -1.4419  1.1116  0.5824
12183SOL     OW45516   2.608   2.632   2.744  0.1834 -0.2260  0.9936
12183SOL    HW145517   2.636   2.719   2.771  0.0369 -0.0669  0.6389
12183SOL    HW245518   2.671   2.607   2.676 -0.0781 -0.1826  0.7339
12184SOL     OW45519   8.137   9.032   6.778  0.0858 -0.3251  0.0026
12184SOL    HW145520   8.046   9.056   6.761  0.2227 -0.2126 -0.5683
12184SOL    HW245521   8.180   9.114   6.800  0.2284 -0.2608 -0.5150
12185SOL     OW45522  12.456   3.907   4.743  0.1027 -0.1839 -0.5001
12185SOL    HW145523  12.366   3.935   4.755 -0.1947 -0.8534 -1.1125
12185SOL    HW245524  12.450   3.828   4.690  0.9264 -1.3284  1.0524
12186SOL     OW45525   3.901   2.561   3.771  0.3221 -0.1348  0.5426
12186SOL    HW145526   3.867   2.474   3.750  1.2858 -1.3034  3.3340
12186SOL    HW245527   3.969   2.577   3.706 -1.1017 -0.6262 -1.1201
12187SOL     OW45528   2.779  11.371   8.974 -0.1133  0.1451  0.4857
12187SOL    HW145529   2.856  11.426   8.958 -0.6040  1.5578  2.6062
12187SOL    HW245530   2.710  11.410   8.920 -0.1627  0.9393  1.1069
12188SOL     OW45531   1.441   8.584   6.463  0.2313 -1.0269 -0.1485
12188SOL    HW145532   1.347   8.600   6.453  0.3267  0.5519  1.0298
12188SOL    HW245533   1.482   8.631   6.390  0.1355 -1.1529 -0.2816
12189SOL     OW45534   3.925  11.682  11.156 -0.1282 -0.7437 -0.0508
12189SOL    HW145535   3.930  11.587  11.151  1.0458 -0.6160 -3.0323
12189SOL    HW245536   3.880  11.709  11.076  0.6500  1.2527  0.1101
12190SOL     OW45537   4.611   5.799   7.392  0.4139 -0.2399 -0.2259
12190SOL    HW145538   4.557   5.873   7.367 -0.9091 -1.2080 -0.3360
12190SOL    HW245539   4.621   5.807   7.487  0.1088 -0.0371 -0.2111
12191SOL     OW45540   8.892   7.136   7.014  0.3668 -0.0412 -0.1460
12191SOL    HW145541   8.884   7.166   7.104  1.3112 -0.6734  0.1639
12191SOL    HW245542   8.866   7.043   7.018  1.1407 -0.2737 -0.3746
12192SOL     OW45543  12.272   8.842   8.571 -0.5920 -0.0785  0.4083
12192SOL    HW145544  12.309   8.859   8.657 -0.9440  3.5416 -0.0031
12192SOL    HW245545  12.348   8.824   8.515 -0.1538 -0.1584  1.0210
12193SOL     OW45546  12.096   6.740   1.047 -0.2011  0.2070  0.1994
12193SOL    HW145547  12.117   6.824   1.087 -2.4843  1.4192 -0.8805
12193SOL    HW245548  12.047   6.692   1.114  1.3431 -0.4349  0.9132
12194SOL     OW45549   0.771  10.315   6.302 -0.2939  0.6362 -0.4608
12194SOL    HW145550   0.781  10.360   6.385 -0.1508  0.9405 -0.6438
12194SOL    HW245551   0.859  10.285   6.279 -0.1454  1.4676 -1.0177
12195SOL     OW45552   8.174   6.282  12.022 -0.0082  0.0451 -0.1513
12195SOL    HW145553   8.241   6.328  12.072 -1.1133 -0.4944  1.8990
12195SOL    HW245554   8.123   6.352  11.980  1.3873  0.4736 -1.1972
12196SOL     OW45555   3.401   5.030   2.796 -0.2404  0.5372 -0.2160
12196SOL    HW145556   3.376   5.061   2.883 -2.1055 -0.6964 -0.2573
12196SOL    HW245557   3.319   5.007   2.754  0.7498 -0.4298 -1.7161
12197SOL     OW45558  12.103   2.432   8.490  0.2121  0.0579  0.0064
12197SOL    HW145559  12.161   2.446   8.565 -1.0275  1.0157  0.8167
12197SOL    HW245560  12.023   2.479   8.512 -0.5164 -0.3975 -1.5340
12198SOL     OW45561   4.231   9.343   6.855 -0.2812  0.5119 -0.4492
12198SOL    HW145562   4.265   9.401   6.923  1.6199 -0.5033 -0.4676
12198SOL    HW245563   4.208   9.403   6.783  4.3138  1.3076 -1.6369
12199SOL     OW45564  10.030   6.691   1.542  0.4955 -0.0530  0.4633
12199SOL    HW145565  10.119   6.717   1.565  1.2767 -0.3363 -1.8990
12199SOL    HW245566  10.040   6.607   1.497 -0.8107  0.3553 -0.6914
12200SOL     OW45567   1.015   8.847   6.681  0.4867 -0.4672 -0.2969
12200SOL    HW145568   0.968   8.925   6.708  0.0397  0.0173 -2.2811
12200SOL    HW245569   1.026   8.857   6.586  2.1828 -1.8692 -0.3061
12201SOL     OW45570  12.051   4.136   9.194 -0.3614  0.1389  0.7328
12201SOL    HW145571  12.119   4.070   9.201 -0.8260 -0.5122 -0.6266
12201SOL    HW245572  12.082   4.208   9.249  2.8000  1.0307 -1.8778
12202SOL     OW45573  11.725   7.805  11.020 -0.0190  0.8896 -0.3534
12202SOL    HW145574  11.778   7.826  10.943 -0.1737  0.9868 -0.4332
12202SOL    HW245575  11.777   7.740  11.068  0.6608  1.7505  0.1087
12203SOL     OW45576   4.685  12.107   0.485  0.1119 -0.1200  0.3883
12203SOL    HW145577   4.687  12.014   0.505  0.7261  0.1219  1.5931
12203SOL    HW245578   4.657  12.148   0.567  1.9673  0.8931  0.5656
12204SOL     OW45579   5.028   1.560   3.506 -0.5772  0.3287 -0.4571
12204SOL    HW145580   5.086   1.519   3.443 -0.8777  0.3780 -0.7677
12204SOL    HW245581   5.049   1.518   3.589 -0.0180  0.4300 -0.5439
12205SOL     OW45582   8.966   1.578   9.384  0.0602  0.8426  0.2296
12205SOL    HW145583   8.877   1.559   9.354 -0.1691 -0.0254  1.3653
12205SOL    HW245584   9.016   1.500   9.359  0.2628  0.8905  0.4780
12206SOL     OW45585   1.780   8.458  12.583  0.1325 -0.2502 -0.2618
12206SOL    HW145586   1.764   8.393  12.651 -1.4619  0.8150  0.4353
12206SOL    HW245587   1.737   8.538  12.615 -1.0525  0.1738 -2.6962
12207SOL     OW45588   6.537  12.387   3.298  0.1083 -0.3711 -0.2940
12207SOL    HW145589   6.501  12.340   3.373  1.8738 -1.0152  0.2233
12207SOL    HW245590   6.631  12.393   3.317  0.0377  3.2931 -0.3928
12208SOL     OW45591   3.894   9.625   5.285 -0.8894 -0.0138 -0.5180
12208SOL    HW145592   3.865   9.601   5.373 -2.4524 -1.4128 -1.3528
12208SOL    HW245593   3.931   9.713   5.295  1.1133 -1.0100  1.9192
12209SOL     OW45594   6.061   3.848  10.890  0.0091 -0.9734 -0.8760
12209SOL    HW145595   6.036   3.894  10.810 -1.0365  0.6915  0.3489
12209SOL    HW245596   6.147   3.884  10.912 -1.0404  0.8608  0.3695
12210SOL     OW45597  11.743  10.162  11.102 -0.0471 -0.2616  0.1926
12210SOL    HW145598  11.655  10.194  11.121 -0.3416  0.0880 -1.5943
12210SOL    HW245599  11.762  10.194  11.013  1.0780 -2.0257 -0.2545
12211SOL     OW45600   3.624   1.786   2.906 -0.2409  0.3339  0.2014
12211SOL    HW145601   3.603   1.694   2.922  0.8232 -0.2543 -1.4850
12211SOL    HW245602   3.633   1.792   2.810 -2.2610  2.6461  0.0503
12212SOL     OW45603   8.794   0.788   0.711 -0.3477  0.1152 -0.5097
12212SOL    HW145604   8.854   0.737   0.766 -0.0322 -0.8528 -1.7047
12212SOL    HW245605   8.844   0.806   0.632 -0.3606  2.5607 -0.0323
12213SOL     OW45606  10.293   4.123   6.418  0.0836 -0.2267 -0.2746
12213SOL    HW145607  10.254   4.134   6.331  0.9004 -0.3062 -0.6603
12213SOL    HW245608  10.387   4.131   6.403  0.2446 -0.4510  0.5760
12214SOL     OW45609   6.901  12.075  12.049  0.8033  0.3165 -0.2577
12214SOL    HW145610   6.922  12.114  11.964  1.2297 -0.2116 -0.4040
12214SOL    HW245611   6.912  11.981  12.035 -0.7737  0.0854 -0.0708
12215SOL     OW45612   0.470   0.030   9.253  0.5014 -0.5737  0.0975
12215SOL    HW145613   0.413   0.088   9.202  0.2202 -1.0067 -0.0826
12215SOL    HW245614   0.409  -0.027   9.301  0.7776 -0.8014  0.1770
12216SOL     OW45615   0.452   2.577   9.855 -0.1413 -0.1208 -0.5606
12216SOL    HW145616   0.476   2.659   9.898 -0.5611  0.4610 -1.4176
12216SOL    HW245617   0.508   2.574   9.777 -0.6029 -0.3136 -0.8889
12217SOL     OW45618   5.739   3.224   0.423 -0.0614 -0.5075  0.6760
12217SOL    HW145619   5.768   3.265   0.341 -1.6200 -1.6335 -0.4889
12217SOL    HW245620   5.772   3.135   0.417 -1.8365 -1.1611  0.3505
12218SOL     OW45621   5.095   7.470   1.265 -0.0454 -0.5221 -0.0153
12218SOL    HW145622   5.187   7.479   1.243  0.2934 -0.4775  1.2937
12218SOL    HW245623   5.076   7.377   1.251 -0.0798 -0.3465 -1.2228
12219SOL     OW45624  10.380  11.759   0.423 -0.2818  0.6421 -0.2624
12219SOL    HW145625  10.299  11.709   0.427 -0.5664  0.8273 -2.4461
12219SOL    HW245626  10.448  11.693   0.406 -0.0327  0.5617  0.9409
12220SOL     OW45627   2.344  11.817   3.281  0.3983  0.0607 -0.1158
12220SOL    HW145628   2.379  11.760   3.212  0.4852 -1.0224  0.7971
12220SOL    HW245629   2.275  11.867   3.238 -0.7112 -1.8014 -0.6082
12221SOL     OW45630   3.379   6.812   3.144  0.0412 -0.1552  0.5537
12221SOL    HW145631   3.292   6.773   3.152  0.0226 -0.5115 -1.0084
12221SOL    HW245632   3.436   6.755   3.195 -0.2771 -1.2731 -0.3071
12222SOL     OW45633   8.287   3.964  11.937 -0.2635  0.2290  0.0569
12222SOL    HW145634   8.345   3.906  11.987  3.2247  1.2988 -2.3311
12222SOL    HW245635   8.315   4.052  11.962 -0.7001  0.7795 -1.3143
12223SOL     OW45636  12.514  12.133   2.161  0.4832  0.2529 -0.3799
12223SOL    HW145637  12.516  12.149   2.067 -0.0011  0.4471 -0.3551
12223SOL    HW245638  12.431  12.089   2.177  2.0356 -3.0614 -0.5654
12224SOL     OW45639  10.860   9.849  10.989  0.6519  0.3104 -0.1787
12224SOL    HW145640  10.934   9.863  11.049  1.3699  2.2315 -1.3847
12224SOL    HW245641  10.901   9.841  10.903 -0.4773 -0.1157 -0.6892
12225SOL     OW45642   0.051  10.853   5.348  0.6169 -0.2962 -0.0416
12225SOL    HW145643  -0.030  10.856   5.297  0.5907 -0.3190 -0.0015
12225SOL    HW245644   0.046  10.929   5.406  1.2878  0.5411 -1.0443
12226SOL     OW45645   6.328   2.297   5.208  0.0864 -0.1441  0.4894
12226SOL    HW145646   6.255   2.329   5.260 -0.9955  0.6063 -1.4041
12226SOL    HW245647   6.292   2.227   5.154  0.6554  0.4374 -0.6950
12227SOL     OW45648   1.391  11.781   2.920  0.1760 -0.2038 -0.4888
12227SOL    HW145649   1.393  11.876   2.903 -0.4445  0.1970  1.4697
12227SOL    HW245650   1.438  11.770   3.002 -0.7926 -1.4410 -0.0602
12228SOL     OW45651   2.550   4.350   4.951  0.3508  0.8611  0.0896
12228SOL    HW145652   2.495   4.321   4.878  0.9404  2.4324 -1.0324
12228SOL    HW245653   2.488   4.368   5.022 -0.3251  0.2889 -0.3396
12229SOL     OW45654   6.575   5.415  10.661  0.0928 -0.2491 -0.1151
12229SOL    HW145655   6.641   5.359  10.702  2.1952  1.8224 -0.4613
12229SOL    HW245656   6.524   5.449  10.734 -0.0832 -1.2348  0.2383
12230SOL     OW45657   4.796   8.232   4.690 -0.6922 -0.2327  0.1617
12230SOL    HW145658   4.761   8.143   4.695 -2.2812  0.3977  0.6349
12230SOL    HW245659   4.891   8.220   4.690 -0.8733 -1.9784 -0.7849
12231SOL     OW45660  11.589   7.520  11.241  0.3088  0.1724  0.7317
12231SOL    HW145661  11.582   7.574  11.319 -0.4028  0.0088  0.7863
12231SOL    HW245662  11.527   7.559  11.179  1.6994  1.0147 -0.1873
12232SOL     OW45663   1.726   9.453   7.271 -0.7479 -0.3187 -0.2112
12232SOL    HW145664   1.788   9.389   7.236 -1.1818  0.1163 -1.8353
12232SOL    HW245665   1.778   9.504   7.334 -0.0211 -1.2876  0.0109
12233SOL     OW45666   5.625  10.355   1.399  0.0810 -0.1082  0.0195
12233SOL    HW145667   5.578  10.272   1.387 -1.1878  0.6438 -0.4120
12233SOL    HW245668   5.713  10.338   1.365  0.3061 -1.6910  1.2686
12234SOL     OW45669   9.331   6.628  11.533 -0.6822 -0.7513 -0.1188
12234SOL    HW145670   9.411   6.637  11.586  0.1148  0.8357 -1.5269
12234SOL    HW245671   9.355   6.567  11.463 -0.5790  0.0170 -0.7590
12235SOL     OW45672   7.417  10.278  10.539  0.3642  0.2879  0.0233
12235SOL    HW145673   7.457  10.192  10.538 -0.9390 -0.3919  1.3964
12235SOL    HW245674   7.402  10.299  10.447  0.3949 -1.1149 -0.3228
12236SOL     OW45675  12.399   8.218   4.741 -0.1120 -0.4390  0.2463
12236SOL    HW145676  12.329   8.247   4.683 -0.5569 -1.9471 -0.0129
12236SOL    HW245677  12.462   8.290   4.741 -0.7167  0.1164 -1.1012
12237SOL     OW45678   8.345   3.603   9.605 -0.1453 -0.2491 -0.0688
12237SOL    HW145679   8.414   3.665   9.625 -1.7023  1.1336  1.2881
12237SOL    HW245680   8.356   3.532   9.668 -0.2573  0.2121  0.4697
12238SOL     OW45681   5.318  10.612   2.177 -0.0184  0.5138 -0.3467
12238SOL    HW145682   5.326  10.598   2.271 -0.3538  0.2322 -0.3563
12238SOL    HW245683   5.407  10.632   2.147 -0.3188  3.7753  0.5254
12239SOL     OW45684   7.050   6.033   7.648  0.1865 -0.3129  0.1887
12239SOL    HW145685   7.011   6.008   7.732  1.2445 -1.4084  0.3829
12239SOL    HW245686   7.107   6.107   7.669  3.3250 -2.7630  1.2849
12240SOL     OW45687   0.281   7.971   4.972 -0.3286  0.1564  0.4345
12240SOL    HW145688   0.253   8.062   4.957  0.9836  0.9768  2.4071
12240SOL    HW245689   0.354   7.958   4.912 -2.0971 -0.5127 -1.6576
12241SOL     OW45690   5.570   4.829   4.614 -0.0488 -0.1547  0.5785
12241SOL    HW145691   5.551   4.915   4.652 -1.1677  0.1763 -0.6502
12241SOL    HW245692   5.519   4.827   4.533 -1.1608 -2.5013  1.2334
12242SOL     OW45693   2.056  10.933   8.979 -0.1800 -0.3630  0.2487
12242SOL    HW145694   2.105  10.906   8.901 -0.4821 -1.2605  0.3512
12242SOL    HW245695   2.087  10.874   9.048  0.2383  0.5646  0.8709
12243SOL     OW45696   3.375   2.151   7.976 -0.5179  0.7762  0.6522
12243SOL    HW145697   3.371   2.066   8.021 -3.5560  0.8593  0.7690
12243SOL    HW245698   3.327   2.137   7.894 -0.5423  2.2336  0.3963
12244SOL     OW45699   4.734  12.491  11.537 -0.9326  0.0757 -0.1528
12244SOL    HW145700   4.809  12.550  11.541  1.9258 -3.2439 -0.4183
12244SOL    HW245701   4.713  12.484  11.444 -2.9703  2.3812  0.0131
12245SOL     OW45702   6.979   2.449   9.289  0.1657 -0.4580 -0.3699
12245SOL    HW145703   6.960   2.388   9.360 -3.1836  0.9408  0.1404
12245SOL    HW245704   6.979   2.395   9.210 -0.5521 -1.4157  0.2636
12246SOL     OW45705  11.314   4.517   4.577  0.5278 -0.0075 -0.7927
12246SOL    HW145706  11.358   4.601   4.566  0.9215 -0.1954 -0.6690
12246SOL    HW245707  11.383   4.456   4.602  0.0798 -0.1408  0.1830
12247SOL     OW45708   4.690   7.592   1.687  0.2837 -0.1070 -0.0586
12247SOL    HW145709   4.674   7.499   1.674  1.4560 -0.0650 -2.2280
12247SOL    HW245710   4.655   7.634   1.608  1.1452  1.0987  0.1615
12248SOL     OW45711  10.533   4.235   9.868  0.2089  0.3683 -0.2824
12248SOL    HW145712  10.515   4.160   9.812 -1.4518  0.8243 -0.4145
12248SOL    HW245713  10.552   4.306   9.808 -0.7799  0.6596 -0.2743
12249SOL     OW45714   9.543   3.733   2.602 -0.0850  0.0249  0.2392
12249SOL    HW145715   9.467   3.704   2.552  0.7928 -0.1364 -1.0406
12249SOL    HW245716   9.608   3.757   2.536  1.4741 -1.1420  1.2758
12250SOL     OW45717   6.961  10.926   6.550 -0.1046  0.4129 -0.1562
12250SOL    HW145718   6.970  10.836   6.521  0.6101 -0.0374  1.3279
12250SOL    HW245719   6.907  10.920   6.629  1.4674  1.0184  1.0240
12251SOL     OW45720  11.655   9.140  11.048 -0.3555 -0.1392  0.3755
12251SOL    HW145721  11.636   9.173  11.135 -0.1095  0.6784  0.1246
12251SOL    HW245722  11.602   9.194  10.989 -1.8725 -1.8105  0.1317
12252SOL     OW45723  12.497   7.502   8.415  0.4004 -0.1760  0.1932
12252SOL    HW145724  12.468   7.592   8.426 -0.2717 -0.2947 -0.4800
12252SOL    HW245725  12.460   7.455   8.490 -0.4517 -0.1555 -0.2023
12253SOL     OW45726   5.685   6.010   1.052 -0.1332 -0.3699  0.2416
12253SOL    HW145727   5.778   6.025   1.032 -0.7441  1.6953 -1.4518
12253SOL    HW245728   5.685   5.931   1.106  2.7157  0.3974  1.5590
12254SOL     OW45729   5.447   6.904   4.950  0.1860  0.1672 -0.6988
12254SOL    HW145730   5.509   6.969   4.916  2.6685 -2.3474 -1.3846
12254SOL    HW245731   5.500   6.850   5.009 -1.2774 -2.2316 -1.4479
12255SOL     OW45732   6.270   6.391   6.721  0.3873 -0.3460  0.1230
12255SOL    HW145733   6.178   6.372   6.700  0.6781 -1.2066 -0.4419
12255SOL    HW245734   6.269   6.409   6.815 -0.5470  0.9540 -0.1101
12256SOL     OW45735  10.962   2.460   4.300  0.5473  0.3186  0.1758
12256SOL    HW145736  10.968   2.486   4.392 -2.3121 -0.4916  0.6823
12256SOL    HW245737  10.891   2.396   4.297  0.8313 -0.0040 -2.5596
12257SOL     OW45738  10.905   4.101   1.669 -0.3527 -0.1881 -0.1848
12257SOL    HW145739  10.889   4.194   1.657 -0.2889 -0.0919  0.4775
12257SOL    HW245740  10.818   4.062   1.679 -0.3805 -0.2059 -0.4830
12258SOL     OW45741   8.586   0.731  11.593 -0.0705 -0.3366 -0.7228
12258SOL    HW145742   8.612   0.790  11.664  0.9534 -1.2419 -0.3186
12258SOL    HW245743   8.533   0.785  11.535  0.3281  0.8162 -0.0392
12259SOL     OW45744   3.821   1.461   2.428  0.5136 -0.4082  0.4472
12259SOL    HW145745   3.820   1.555   2.446 -2.1375 -0.0089 -1.2137
12259SOL    HW245746   3.797   1.454   2.335 -1.7524 -2.7547  1.0840
12260SOL     OW45747   0.574  10.463  10.834 -0.1944  0.3316 -0.1806
12260SOL    HW145748   0.628  10.384  10.829  1.1725  1.2638 -0.3312
12260SOL    HW245749   0.508  10.451  10.765  0.3935 -0.3831 -0.6248
12261SOL     OW45750   7.870   2.615   2.336  0.5470  0.2372  0.3880
12261SOL    HW145751   7.941   2.599   2.274 -0.1190 -1.2148 -0.0633
12261SOL    HW245752   7.794   2.571   2.297 -0.7942  2.3149  0.5154
12262SOL     OW45753  11.478   2.167   1.125  0.5708 -0.3581 -0.4336
12262SOL    HW145754  11.519   2.119   1.053  2.5056  3.0539 -1.8024
12262SOL    HW245755  11.417   2.227   1.082  1.7480  1.7471  0.6938
12263SOL     OW45756  10.770   5.501   7.670 -0.2922  0.2324 -0.3785
12263SOL    HW145757  10.815   5.424   7.636 -0.4593 -0.5767  1.1375
12263SOL    HW245758  10.681   5.494   7.636 -0.7753 -1.1767  1.0344
12264SOL     OW45759  11.448   0.194   0.564  0.2426  0.7825 -0.0381
12264SOL    HW145760  11.471   0.197   0.471 -0.5870  0.8647 -0.2475
12264SOL    HW245761  11.378   0.258   0.574 -3.1319 -2.5216 -0.3632
12265SOL     OW45762   4.270  11.137   4.868 -0.0775  0.5015  0.6670
12265SOL    HW145763   4.216  11.142   4.948 -0.1797 -2.1905  0.8616
12265SOL    HW245764   4.207  11.119   4.799  0.4104 -2.7057  0.8976
12266SOL     OW45765   6.059   9.261   5.475 -0.3500 -0.5201 -0.0237
12266SOL    HW145766   6.081   9.354   5.481 -1.8471 -0.2361  2.3753
12266SOL    HW245767   5.970   9.260   5.439 -0.7046 -0.9393  0.8408
12267SOL     OW45768  10.027  10.742   7.062  0.0778  0.1823  0.6273
12267SOL    HW145769   9.954  10.694   7.022 -0.8635  0.7493  1.5921
12267SOL    HW245770  10.013  10.732   7.156  2.3427 -1.2862  0.8974
12268SOL     OW45771   2.528   9.797   7.290 -0.2411 -0.0089 -0.0327
12268SOL    HW145772   2.542   9.839   7.205  0.4272 -0.0802  0.0435
12268SOL    HW245773   2.611   9.806   7.336 -0.7161  0.3533  0.7627
12269SOL     OW45774   5.243   8.607   4.024 -0.0316 -0.0233  0.2102
12269SOL    HW145775   5.188   8.637   4.097 -0.7867  1.2671 -0.8341
12269SOL    HW245776   5.188   8.621   3.946  0.4558 -2.1140 -0.5571
12270SOL     OW45777   3.570   9.669   3.472 -0.5877  0.2171  0.0863
12270SOL    HW145778   3.548   9.589   3.425  1.7279 -0.0094 -0.7222
12270SOL    HW245779   3.565   9.738   3.406 -2.0663  0.7088  0.6668
12271SOL     OW45780   4.533   0.228   2.249  0.3625 -0.0710  0.1632
12271SOL    HW145781   4.613   0.229   2.302 -0.8406  0.2244  2.1121
12271SOL    HW245782   4.480   0.300   2.284 -0.4900  0.1550 -1.5145
12272SOL     OW45783  11.998  10.543  11.932  0.6329 -0.1323  0.1762
12272SOL    HW145784  12.018  10.571  12.021  2.2694  1.1795 -0.5387
12272SOL    HW245785  12.067  10.583  11.879 -0.3878 -0.7521 -1.6975
12273SOL     OW45786   3.403  11.506   9.549 -0.1355  0.0941  0.1251
12273SOL    HW145787   3.335  11.471   9.607 -0.0201  0.6672  0.6222
12273SOL    HW245788   3.481  11.454   9.569 -0.1039  0.2711  0.4685
12274SOL     OW45789   7.023   1.805   0.034  0.5466 -0.2109  0.0981
12274SOL    HW145790   7.010   1.721  -0.011  0.8537  0.3221 -1.0396
12274SOL    HW245791   6.962   1.803   0.108  0.7320 -1.5320  0.2339
12275SOL     OW45792   2.032   4.235  10.477  0.2065 -0.6009  0.2463
12275SOL    HW145793   2.009   4.323  10.508  1.3711  0.6334 -2.1301
12275SOL    HW245794   2.127   4.229  10.489 -0.0025 -2.0410  1.4619
12276SOL     OW45795  11.223   6.976   4.609 -0.0653 -0.2390  0.0752
12276SOL    HW145796  11.256   7.005   4.694  1.1497  1.0378 -0.7853
12276SOL    HW245797  11.128   6.979   4.618  0.0049 -2.0373  1.9883
12277SOL     OW45798  11.972  11.734   2.440  0.0351  0.0977 -0.2758
12277SOL    HW145799  11.917  11.780   2.376  0.8932  1.8064  0.1568
12277SOL    HW245800  11.916  11.725   2.517 -0.2161  0.2093 -0.4412
12278SOL     OW45801  11.453   0.626   2.231 -0.5577 -0.4692 -0.8923
12278SOL    HW145802  11.393   0.676   2.176  1.7636  1.2136 -2.0601
12278SOL    HW245803  11.509   0.578   2.169  0.7719 -0.1812  0.0294
12279SOL     OW45804   8.660   0.170   1.656 -0.2080  0.0773 -0.1460
12279SOL    HW145805   8.672   0.125   1.739  0.4468 -0.3610 -0.4780
12279SOL    HW245806   8.590   0.234   1.674 -0.9371 -0.8439  0.4057
12280SOL     OW45807   9.684   1.118   6.407  0.1319 -0.3042 -0.0503
12280SOL    HW145808   9.605   1.151   6.451  0.0655 -0.3995 -0.0973
12280SOL    HW245809   9.684   1.162   6.323  0.2688 -0.1087  0.0524
12281SOL     OW45810   5.900  11.708  12.019 -0.0661 -0.7203  0.5767
12281SOL    HW145811   5.854  11.633  12.058  0.1370 -1.5728 -0.7565
12281SOL    HW245812   5.959  11.738  12.088 -1.9086 -0.1849  2.0119
12282SOL     OW45813  10.671   5.400   9.242  0.3525 -0.3720  0.1060
12282SOL    HW145814  10.689   5.335   9.310  2.0556 -0.6120 -0.5196
12282SOL    HW245815  10.750   5.455   9.240 -0.8478  1.4477  0.2865
12283SOL     OW45816   7.227   5.137   8.723  0.2465  0.0348  0.0611
12283SOL    HW145817   7.299   5.163   8.666  1.4976 -2.1844  0.5348
12283SOL    HW245818   7.168   5.088   8.667  1.3920 -1.9992  0.5338
12284SOL     OW45819  12.210   7.469   0.388 -0.0960 -0.3960 -0.0516
12284SOL    HW145820  12.194   7.549   0.439  0.5275 -0.2974 -0.0036
12284SOL    HW245821  12.295   7.438   0.418 -0.3639 -1.1229 -0.0206
12285SOL     OW45822   5.255   6.413   7.956  0.2013 -0.3579 -0.4233
12285SOL    HW145823   5.336   6.363   7.966  0.6945  0.5872  0.5131
12285SOL    HW245824   5.264   6.486   8.018 -1.9418 -0.9693  0.7146
12286SOL     OW45825   4.419   2.113   5.117  0.0088 -0.7530  0.2258
12286SOL    HW145826   4.398   2.205   5.098  0.3051 -0.2985  1.9236
12286SOL    HW245827   4.512   2.115   5.139 -0.3194 -1.1834  1.7451
12287SOL     OW45828   8.330  11.360   6.334  0.3032  0.2612  0.2636
12287SOL    HW145829   8.352  11.429   6.397 -0.4110  0.7745 -0.0396
12287SOL    HW245830   8.321  11.281   6.387  1.7407  0.2485  0.5424
12288SOL     OW45831   7.577   1.753   3.866  0.3217  0.0077 -0.3569
12288SOL    HW145832   7.484   1.736   3.883  0.0516  0.9203 -0.8680
12288SOL    HW245833   7.578   1.835   3.818  1.2075 -1.1194 -2.4241
12289SOL     OW45834   4.180   9.234   1.991  0.5073 -0.3890  0.2981
12289SOL    HW145835   4.168   9.168   1.923 -0.7973  1.4085 -1.3400
12289SOL    HW245836   4.244   9.295   1.954 -0.9446  1.1452  0.1834
12290SOL     OW45837   7.931   4.980   1.234 -0.5050 -0.4208  0.4431
12290SOL    HW145838   8.010   5.012   1.192 -0.3353  0.0116  1.0826
12290SOL    HW245839   7.943   4.998   1.327 -1.0435 -1.0073  0.6414
12291SOL     OW45840   6.383   6.850   3.499  0.5447 -0.2785 -0.1019
12291SOL    HW145841   6.367   6.795   3.422 -1.7717 -1.3349  1.0271
12291SOL    HW245842   6.463   6.813   3.538  0.5656 -1.0795 -0.8666
12292SOL     OW45843   5.034   7.345   4.041  0.3624  0.1330 -1.1200
12292SOL    HW145844   5.013   7.252   4.032  0.3910  0.1356 -1.2151
12292SOL    HW245845   5.128   7.346   4.060  0.2872  0.1241 -0.7510
12293SOL     OW45846   8.449   7.283   9.615 -0.2957  0.1518  0.1003
12293SOL    HW145847   8.433   7.342   9.542 -0.3158 -0.1527 -0.1447
12293SOL    HW245848   8.378   7.218   9.610 -0.5425  0.3763  0.6448
12294SOL     OW45849   3.509   0.683   1.259  0.0608  0.4643  0.1673
12294SOL    HW145850   3.443   0.723   1.316  1.2489  1.6781  0.7486
12294SOL    HW245851   3.462   0.614   1.213 -1.4961  0.9785  0.9119
12295SOL     OW45852  12.289  12.522   8.984 -0.0888 -0.0738  0.0976
12295SOL    HW145853  12.294  12.427   8.979  0.9470  0.0223 -0.9012
12295SOL    HW245854  12.310  12.553   8.896 -1.8489  1.0457  0.0091
12296SOL     OW45855   7.216  12.186   9.258  0.4423  0.3129 -0.2120
12296SOL    HW145856   7.181  12.273   9.274 -1.5401 -0.9782  4.0395
12296SOL    HW245857   7.311  12.197   9.261  0.2388  2.3129  0.2452
12297SOL     OW45858   2.852   6.424   7.989 -0.0685 -0.0076  0.0807
12297SOL    HW145859   2.808   6.388   7.912 -0.5090 -1.3386  0.9275
12297SOL    HW245860   2.835   6.518   7.985 -0.5477 -0.1366 -1.1509
12298SOL     OW45861   1.509   6.783  11.477  0.7152 -0.4766 -0.7687
12298SOL    HW145862   1.494   6.874  11.501  0.7254 -1.1073  1.9056
12298SOL    HW245863   1.423   6.750  11.452  0.5651  0.0213 -0.9338
12299SOL     OW45864   8.376   5.990  10.004  0.6527 -0.5320 -0.7315
12299SOL    HW145865   8.467   6.007  10.029  0.9826 -0.9463 -1.6067
12299SOL    HW245866   8.368   5.895  10.005 -1.5902 -0.7735  5.6233
12300SOL     OW45867   5.344  12.369  12.258  0.1020 -0.3661  0.2495
12300SOL    HW145868   5.385  12.455  12.245 -2.1669  0.8552  0.6769
12300SOL    HW245869   5.413  12.307  12.235  2.1934  1.5178  0.9911
12301SOL     OW45870   9.047   0.271  11.644 -0.1670 -0.6015  0.0024
12301SOL    HW145871   9.025   0.308  11.559  1.6812 -0.5124 -0.4767
12301SOL    HW245872   8.990   0.318  11.706 -1.7789 -0.9072 -1.1735
12302SOL     OW45873   3.127  10.776   9.007  0.3094  0.7673  0.1645
12302SOL    HW145874   3.176  10.857   9.015 -0.7435  1.4866 -0.4080
12302SOL    HW245875   3.047  10.792   9.058  0.6912 -0.4228  1.1956
12303SOL     OW45876   3.353   7.339   6.008  0.2208  0.0554  0.1534
12303SOL    HW145877   3.423   7.306   5.952 -0.2727 -0.4589 -0.1693
12303SOL    HW245878   3.395   7.353   6.093 -0.2162 -4.9233  1.5000
12304SOL     OW45879  10.225   5.752   6.587 -0.6662 -0.4629 -0.3105
12304SOL    HW145880  10.129   5.745   6.582 -0.8205 -0.2453  1.6254
12304SOL    HW245881  10.257   5.675   6.539 -1.8694 -1.6546  0.7116
12305SOL     OW45882   9.429   4.191  10.247 -0.0179 -0.0053  0.4234
12305SOL    HW145883   9.398   4.154  10.164  1.4886 -2.0858  0.6887
12305SOL    HW245884   9.392   4.135  10.314 -1.0756  1.5531  1.2022
12306SOL     OW45885   4.439  12.308   6.890  0.2265 -0.1722  0.3346
12306SOL    HW145886   4.437  12.269   6.803 -2.1218  1.0804 -0.2419
12306SOL    HW245887   4.420  12.236   6.950 -2.0936 -0.3829 -0.5564
12307SOL     OW45888   8.826   1.211   6.253 -1.2487  0.3961 -0.5605
12307SOL    HW145889   8.754   1.152   6.276 -0.9223  0.4615  0.7122
12307SOL    HW245890   8.839   1.265   6.331  1.7780 -1.2509  0.2416
12308SOL     OW45891   5.308   7.734   3.667  0.1866 -0.7548  0.2276
12308SOL    HW145892   5.305   7.794   3.592 -1.1308 -1.8548 -0.6448
12308SOL    HW245893   5.395   7.694   3.662 -0.2160 -1.5308 -1.3303
12309SOL     OW45894   3.703   3.863   2.273  0.4706 -0.6668 -0.6928
12309SOL    HW145895   3.785   3.819   2.295  0.9995  0.9875  0.8827
12309SOL    HW245896   3.647   3.851   2.349  0.7428  1.5323 -0.0762
12310SOL     OW45897   4.735   5.179   7.692 -0.8874  0.2348  0.5447
12310SOL    HW145898   4.692   5.232   7.759  0.7220 -1.0761  2.7593
12310SOL    HW245899   4.709   5.089   7.712 -0.7939 -0.1374 -0.9469
12311SOL     OW45900   9.598   6.470   9.772  0.9678  0.4521 -0.5027
12311SOL    HW145901   9.560   6.429   9.850 -0.0530 -0.2914 -1.3480
12311SOL    HW245902   9.682   6.504   9.801  0.0206  1.4629  1.2803
12312SOL     OW45903   8.492   7.741   2.069  0.6149  0.1239  0.1098
12312SOL    HW145904   8.462   7.681   2.138 -1.8885 -1.3625 -2.0696
12312SOL    HW245905   8.561   7.692   2.024 -0.9791 -0.9952 -1.2582
12313SOL     OW45906   5.003   7.984   0.598 -0.5304 -0.2389  0.0943
12313SOL    HW145907   4.944   7.926   0.549 -2.2362  2.8013 -1.8342
12313SOL    HW245908   4.946   8.025   0.664 -0.0348  0.9610 -0.1927
12314SOL     OW45909   6.611   9.215   8.849  0.2539 -0.3384 -0.6424
12314SOL    HW145910   6.601   9.273   8.773 -0.6183 -0.9672 -1.0293
12314SOL    HW245911   6.534   9.158   8.845 -0.4276  0.3727  1.3936
12315SOL     OW45912   5.604   5.909   9.418  0.4536 -0.6650  0.0127
12315SOL    HW145913   5.544   5.909   9.343  0.6430  0.4166 -0.1597
12315SOL    HW245914   5.679   5.857   9.388  0.1522 -0.9691 -0.2273
12316SOL     OW45915  12.482   6.132   5.955  0.2969 -0.6242 -0.2500
12316SOL    HW145916  12.409   6.075   5.980 -0.4162  0.2139 -0.3950
12316SOL    HW245917  12.485   6.198   6.025  1.4642 -1.1351  0.2054
12317SOL     OW45918   7.652   8.556  10.829  0.0905  0.4625  0.0726
12317SOL    HW145919   7.737   8.596  10.847  0.0906  0.4226  0.1631
12317SOL    HW245920   7.589   8.628  10.837 -0.0108  0.2828  1.1225
12318SOL     OW45921   1.930   7.859   4.751  0.2099  0.4215  0.7935
12318SOL    HW145922   1.916   7.920   4.679  1.5613 -1.2522 -0.9828
12318SOL    HW245923   1.845   7.817   4.764 -0.3200  1.5061  0.9699
12319SOL     OW45924   8.688  11.787   1.162  0.4345 -0.3650 -0.0216
12319SOL    HW145925   8.640  11.704   1.167  0.0796 -0.1284  0.7375
12319SOL    HW245926   8.647  11.842   1.229  0.5654  0.4772 -0.6131
12320SOL     OW45927   6.033   2.609   3.916 -0.7374  0.1039  0.0525
12320SOL    HW145928   6.095   2.666   3.962  0.3793 -0.6044 -0.5337
12320SOL    HW245929   5.950   2.656   3.920 -0.6796  0.1009  2.7000
12321SOL     OW45930   7.309   8.772   7.342  0.2287  0.1302  0.0654
12321SOL    HW145931   7.245   8.704   7.365  0.8638  0.0931  1.8600
12321SOL    HW245932   7.372   8.771   7.414  2.4540 -0.0203 -1.7791
12322SOL     OW45933   5.360   9.467   0.012  0.4695  0.5836 -0.4807
12322SOL    HW145934   5.339   9.529  -0.057  1.7720  1.6968  0.0857
12322SOL    HW245935   5.423   9.407  -0.028 -0.6904 -0.3379 -0.9880
12323SOL     OW45936   1.177   1.002  10.814 -0.0776  0.7050 -0.1023
12323SOL    HW145937   1.237   1.049  10.756 -2.1252  0.9294 -2.1571
12323SOL    HW245938   1.121   1.071  10.851 -1.5523  0.1832 -1.2682
12324SOL     OW45939  12.368  10.816  11.172 -0.5411  0.2660  0.1809
12324SOL    HW145940  12.456  10.828  11.207 -0.7920  3.3537  0.0723
12324SOL    HW245941  12.311  10.863  11.234 -1.8371  0.0677 -0.8064
12325SOL     OW45942   5.326  11.367   3.133  0.0324  0.3138  0.0883
12325SOL    HW145943   5.326  11.291   3.192 -1.1441 -0.1078 -0.4261
12325SOL    HW245944   5.259  11.425   3.168  0.8955  1.1277  0.4519
12326SOL     OW45945  11.379   9.347   2.541 -0.2432  0.1213  0.1445
12326SOL    HW145946  11.365   9.283   2.471 -0.7026 -0.3029  0.6090
12326SOL    HW245947  11.338   9.307   2.618  1.4160 -0.0353  0.9813
12327SOL     OW45948   9.658   0.037   5.862  0.5204  0.0612  0.0228
12327SOL    HW145949   9.732  -0.002   5.816 -0.0739  0.2205 -1.0968
12327SOL    HW245950   9.639   0.117   5.813 -0.0027  0.3546  0.6825
12328SOL     OW45951   3.343  10.000   1.168  0.4562 -0.1796  0.4592
12328SOL    HW145952   3.404  10.048   1.112 -0.1810 -0.7103 -0.7220
12328SOL    HW245953   3.264   9.990   1.115 -0.5653  0.2130  1.8391
12329SOL     OW45954   1.807   1.785   2.393 -0.0394 -0.7535  0.0377
12329SOL    HW145955   1.777   1.871   2.363 -1.1037 -1.4747 -1.0837
12329SOL    HW245956   1.836   1.741   2.313  0.3065 -1.5078  0.5737
12330SOL     OW45957   3.329   3.195   8.896 -0.3123 -0.4227 -0.2498
12330SOL    HW145958   3.333   3.268   8.957 -0.4052 -0.4520 -0.2090
12330SOL    HW245959   3.263   3.136   8.933 -1.9640  0.5600 -1.4617
12331SOL     OW45960   7.291  11.484  12.347  0.1238 -0.3412 -0.2189
12331SOL    HW145961   7.285  11.524  12.260  0.1803 -0.6769 -0.3766
12331SOL    HW245962   7.200  11.484  12.379  0.3355  1.5025  0.5044
12332SOL     OW45963   8.816   8.647   5.992 -0.0611  0.5993 -0.2669
12332SOL    HW145964   8.867   8.569   5.972  1.1285  1.1924  0.3329
12332SOL    HW245965   8.795   8.638   6.085  0.3165  1.1170 -0.1293
12333SOL     OW45966   0.341  11.923   3.151  0.1017  0.3730 -0.2747
12333SOL    HW145967   0.251  11.955   3.156 -0.0147 -0.0149  0.4348
12333SOL    HW245968   0.376  11.937   3.239  0.7452  0.5482 -0.5538
12334SOL     OW45969  11.327   5.112  10.229 -0.4211  0.5344 -0.3212
12334SOL    HW145970  11.314   5.050  10.301  0.0421  0.9023  0.0945
12334SOL    HW245971  11.238   5.141  10.206 -0.6632 -0.5090 -0.7383
12335SOL     OW45972   4.874   5.884   7.571  0.3714 -0.5110  0.2468
12335SOL    HW145973   4.919   5.803   7.595 -1.2189 -1.8742 -1.0334
12335SOL    HW245974   4.785   5.873   7.607  0.0501  0.5313 -0.1953
12336SOL     OW45975   7.817   6.783   5.716 -0.1108  0.2319 -0.0295
12336SOL    HW145976   7.834   6.829   5.634 -0.1657  0.3295  0.0141
12336SOL    HW245977   7.822   6.690   5.692  0.1383  0.2589 -0.0880
12337SOL     OW45978   9.504  10.204   5.265  1.2597 -0.2618  0.2906
12337SOL    HW145979   9.511  10.214   5.170  0.8283  3.7271  0.5091
12337SOL    HW245980   9.425  10.153   5.279 -0.4777  1.7566 -1.5446
12338SOL     OW45981   7.941   8.956  11.223 -0.1868 -0.2408 -0.3872
12338SOL    HW145982   7.993   8.997  11.292  0.1678  1.0214 -1.3669
12338SOL    HW245983   7.990   8.877  11.200  0.1591 -0.2003  0.1837
12339SOL     OW45984   9.071  10.776   4.986  0.1252 -0.3479  0.3021
12339SOL    HW145985   9.144  10.722   5.016 -1.4534 -1.5598  2.2025
12339SOL    HW245986   9.001  10.759   5.049 -1.2154  2.1834 -0.3868
12340SOL     OW45987   0.095   5.895  12.515 -0.2905  0.3377 -0.0241
12340SOL    HW145988   0.176   5.907  12.565  1.8855 -0.9133 -2.9951
12340SOL    HW245989   0.098   5.961  12.447 -1.1601 -0.5192 -0.9315
12341SOL     OW45990  11.826   7.607   0.368  0.1065 -0.7727  0.8617
12341SOL    HW145991  11.898   7.616   0.306 -0.0064 -0.2035  0.8087
12341SOL    HW245992  11.748   7.599   0.313 -0.0099 -0.1256  0.9303
12342SOL     OW45993   3.268   0.364   9.174  0.6057  0.1801 -0.2062
12342SOL    HW145994   3.197   0.318   9.219  2.2548 -0.6685  1.7089
12342SOL    HW245995   3.316   0.294   9.129  1.4642  0.4254  0.3144
12343SOL     OW45996   9.192   3.737   4.850 -0.5146 -0.2569 -0.0701
12343SOL    HW145997   9.275   3.779   4.827  0.3443 -0.1586  2.7817
12343SOL    HW245998   9.129   3.809   4.856 -0.8889 -0.3420 -2.3302
12344SOL     OW45999   2.552   1.606   8.586 -0.2039 -0.1040 -0.1578
12344SOL    HW146000   2.603   1.579   8.662  0.6230  0.5488 -0.4767
12344SOL    HW246001   2.463   1.617   8.621  0.3035  0.9617  0.9126
12345SOL     OW46002  12.590   2.192   5.685 -1.1368  0.1666 -0.2476
12345SOL    HW146003  12.509   2.218   5.641 -1.5848  1.1127  1.0941
12345SOL    HW246004  12.583   2.096   5.692 -1.2996  0.0454 -1.6940
12346SOL     OW46005   7.170  11.883   6.674  0.3448 -0.5866 -0.1075
12346SOL    HW146006   7.133  11.859   6.589 -1.4005  0.0730  0.4213
12346SOL    HW246007   7.189  11.977   6.665 -3.6815  0.5922  1.3894
12347SOL     OW46008  11.530   5.540   4.466  0.2948  0.1690  0.3390
12347SOL    HW146009  11.613   5.557   4.420 -0.8192  0.5606 -1.6581
12347SOL    HW246010  11.526   5.445   4.474  0.9911  0.1556  0.5639
12348SOL     OW46011   7.737   4.309   1.809 -0.1754 -0.0388  0.1356
12348SOL    HW146012   7.694   4.287   1.727  0.2145  1.7760 -0.6139
12348SOL    HW246013   7.773   4.227   1.841 -1.4256 -1.0080 -0.8461
12349SOL     OW46014   0.181   4.971   0.596  0.4049 -0.5261 -0.5713
12349SOL    HW146015   0.094   4.930   0.596 -0.6072  1.5037 -0.2176
12349SOL    HW246016   0.174   5.043   0.533  1.4418  0.3920  0.3211
12350SOL     OW46017   6.058   8.824   4.383  0.9477  0.0241  0.2580
12350SOL    HW146018   5.967   8.835   4.353  1.1519  0.5248 -0.2065
12350SOL    HW246019   6.097   8.911   4.370  1.8235 -0.4817 -0.6789
12351SOL     OW46020  10.943  11.817   0.742  0.0207  0.2821 -0.3302
12351SOL    HW146021  10.897  11.880   0.686  2.1921  1.9612 -0.3473
12351SOL    HW246022  11.035  11.830   0.722  0.7425 -0.6510  2.0438
12352SOL     OW46023   8.557   0.725   5.985  0.3354  0.0404 -0.3147
12352SOL    HW146024   8.556   0.798   5.922  0.7896  0.1965 -0.1444
12352SOL    HW246025   8.649   0.697   5.987  0.8055  1.4796  1.9291
12353SOL     OW46026  11.992   4.969   6.126 -0.4519 -0.6082  0.3208
12353SOL    HW146027  12.069   4.983   6.181  0.8541  1.1678 -1.7895
12353SOL    HW246028  11.975   4.875   6.131 -0.1460 -0.5986  3.3116
12354SOL     OW46029   7.066   5.214   2.880 -0.1026 -0.1150 -0.5416
12354SOL    HW146030   7.093   5.124   2.864 -2.1743 -0.8404 -0.2356
12354SOL    HW246031   7.145   5.267   2.861  2.0299 -2.1446  1.9256
12355SOL     OW46032   5.609   9.842   2.328 -0.0357 -0.5455  0.5362
12355SOL    HW146033   5.554   9.770   2.298  0.3553 -0.7921  0.3983
12355SOL    HW246034   5.574   9.920   2.285 -0.8948 -0.5373  1.2197
12356SOL     OW46035   4.476   5.625   8.563  0.5882  0.2787 -0.0850
12356SOL    HW146036   4.447   5.536   8.582  2.8898 -0.9503 -1.8452
12356SOL    HW246037   4.394   5.674   8.551 -0.7719 -1.9612 -0.6417
12357SOL     OW46038   5.924   7.232   3.617 -0.2937 -0.3127  0.0317
12357SOL    HW146039   5.996   7.219   3.679 -1.4868 -0.6064  1.4356
12357SOL    HW246040   5.956   7.195   3.535  1.6446  0.7866  0.2283
12358SOL     OW46041   9.211   3.815  11.310  0.2237 -0.2077 -0.1127
12358SOL    HW146042   9.279   3.794  11.246  1.7056  1.9157  0.6448
12358SOL    HW246043   9.251   3.795  11.395 -0.8438 -0.7739  0.2705
12359SOL     OW46044   6.804   2.273   6.792 -0.2580 -0.1590  0.6748
12359SOL    HW146045   6.729   2.319   6.829 -0.6647  1.4810 -1.9750
12359SOL    HW246046   6.880   2.318   6.829 -0.6280  0.7479  0.3447
12360SOL     OW46047   8.518   0.356   3.783  0.6121  0.2386 -0.9359
12360SOL    HW146048   8.603   0.393   3.760  1.0773  1.4269  2.1695
12360SOL    HW246049   8.538   0.269   3.817  0.2648 -0.3870 -2.2584
12361SOL     OW46050   3.643   3.103   3.152  0.5740 -0.2444  0.4983
12361SOL    HW146051   3.719   3.160   3.140 -0.3119  0.6428 -1.1832
12361SOL    HW246052   3.658   3.062   3.237  3.7111 -1.3065 -0.4130
12362SOL     OW46053   2.386   9.968  12.118 -0.2016  0.2135  0.1036
12362SOL    HW146054   2.406  10.061  12.127 -0.3342  0.2317  0.2183
12362SOL    HW246055   2.395   9.949  12.025  0.6542  0.1523  0.1962
12363SOL     OW46056   7.694   1.263  12.380 -0.0477  0.0613 -0.4681
12363SOL    HW146057   7.729   1.316  12.451  0.7001  0.5908 -1.2201
12363SOL    HW246058   7.745   1.182  12.383 -0.6491 -0.3039  0.1755
12364SOL     OW46059   9.338  11.050   4.019 -0.0896 -0.2676  0.4900
12364SOL    HW146060   9.285  11.126   3.994 -1.0138 -0.9130  0.4491
12364SOL    HW246061   9.337  11.050   4.115 -0.8852 -0.7620  0.4889
12365SOL     OW46062  12.109   1.366   9.393  0.0014 -0.5174  0.2928
12365SOL    HW146063  12.032   1.326   9.353  0.1828  1.1621 -1.9447
12365SOL    HW246064  12.079   1.453   9.419  0.6578 -0.5580  1.2103
12366SOL     OW46065   6.426   2.705   3.038 -0.0162 -0.2402 -0.1516
12366SOL    HW146066   6.438   2.789   3.083  2.4935 -0.6020 -0.0262
12366SOL    HW246067   6.435   2.639   3.107 -1.4353 -0.6719 -0.3445
12367SOL     OW46068  11.695   9.772   4.536 -0.3572 -0.2514  0.5134
12367SOL    HW146069  11.779   9.737   4.567  0.3786 -0.0053 -1.0968
12367SOL    HW246070  11.712   9.865   4.520 -0.3341 -0.5823 -1.6786
12368SOL     OW46071   6.701   5.682   1.199 -0.1529 -0.8419  0.2614
12368SOL    HW146072   6.722   5.596   1.235 -1.4938 -1.6260 -0.7588
12368SOL    HW246073   6.680   5.735   1.276 -1.4105 -2.0437  0.7999
12369SOL     OW46074   2.632   7.111   9.431  0.1043  0.5121  0.9601
12369SOL    HW146075   2.581   7.033   9.455 -0.3620  0.6594  0.4586
12369SOL    HW246076   2.707   7.110   9.491 -0.9713  0.8058  2.3714
12370SOL     OW46077   9.668   1.544   5.067  0.3210  0.2525  0.0421
12370SOL    HW146078   9.709   1.474   5.117 -0.8659  0.2484  1.0483
12370SOL    HW246079   9.733   1.567   5.000  1.4844 -0.4968  0.8832
12371SOL     OW46080   8.638   7.061   4.089  0.0072 -0.4486 -0.0103
12371SOL    HW146081   8.700   7.064   4.016  0.3822 -0.1641  0.3126
12371SOL    HW246082   8.677   7.117   4.156 -1.2383  0.7957 -0.2895
12372SOL     OW46083   1.688   9.432  11.151  0.4407  0.3445 -0.0831
12372SOL    HW146084   1.715   9.519  11.122  0.8004  0.0971 -0.5000
12372SOL    HW246085   1.649   9.392  11.073  1.7410 -0.4594 -0.3631
12373SOL     OW46086   7.449   1.135   0.587  0.0723 -0.0038  0.8709
12373SOL    HW146087   7.515   1.186   0.636  1.1996 -0.2985 -0.2889
12373SOL    HW246088   7.426   1.191   0.512  0.0063 -0.4697  0.5416
12374SOL     OW46089   5.387   8.321   1.972  0.1530 -0.6506 -0.1862
12374SOL    HW146090   5.310   8.352   1.923 -0.2068  0.5009  1.0335
12374SOL    HW246091   5.455   8.386   1.953  0.8133 -1.5794 -1.1329
12375SOL     OW46092  11.623  11.861  11.429  0.1140 -0.1243 -0.0968
12375SOL    HW146093  11.527  11.863  11.425  0.1542  0.8624 -3.0696
12375SOL    HW246094  11.646  11.771  11.407 -0.1222 -0.1333 -0.3193
12376SOL     OW46095   8.897   4.094   5.400 -0.0975  0.1864  0.0341
12376SOL    HW146096   8.933   4.115   5.486 -1.7426 -0.5818  0.9443
12376SOL    HW246097   8.813   4.140   5.397 -0.8393 -1.1657 -0.4635
12377SOL     OW46098   1.856   0.720   2.384  0.6231 -0.2283  0.3953
12377SOL    HW146099   1.937   0.748   2.341 -0.0210 -0.0805 -0.7585
12377SOL    HW246100   1.809   0.802   2.402  0.1009 -0.3784 -0.2383
12378SOL     OW46101  10.139   1.529   3.557  0.1731 -0.1216 -0.2830
12378SOL    HW146102  10.191   1.500   3.632  1.1066 -0.2201 -0.9492
12378SOL    HW246103  10.191   1.600   3.518 -0.4538  0.1405 -0.6606
12379SOL     OW46104   6.945  10.859   3.457 -0.7620  0.2431 -0.2956
12379SOL    HW146105   6.860  10.829   3.487 -0.0949 -0.4773  0.9347
12379SOL    HW246106   6.974  10.922   3.523  0.6026 -1.1681  0.5464
12380SOL     OW46107   0.155   2.705  11.394 -0.7368 -0.3984  0.0362
12380SOL    HW146108   0.066   2.732  11.371 -0.4546  2.2321  1.6656
12380SOL    HW246109   0.153   2.695  11.489  0.9740  0.9407  0.2513
12381SOL     OW46110   6.977  11.713   7.707  0.3239  0.0953  0.1853
12381SOL    HW146111   6.910  11.772   7.741  1.6572  2.2847 -0.7869
12381SOL    HW246112   7.023  11.682   7.785 -0.4592  0.2408  0.7187
12382SOL     OW46113   4.487   7.542  11.696 -0.1453  0.0012  0.2060
12382SOL    HW146114   4.462   7.451  11.709  0.3067  0.1328  2.3591
12382SOL    HW246115   4.430   7.591  11.756 -1.0320  1.2676 -1.5788
12383SOL     OW46116   6.245   4.222   3.528  0.3019  0.3845 -0.0978
12383SOL    HW146117   6.252   4.175   3.445 -1.5476  0.1259 -0.1395
12383SOL    HW246118   6.296   4.302   3.515  0.3141  0.1820 -1.3631
12384SOL     OW46119   1.217   1.634  10.380 -0.5955 -0.2159  0.2743
12384SOL    HW146120   1.207   1.587  10.297  0.2909 -1.9230  1.0703
12384SOL    HW246121   1.295   1.595  10.420  0.0220  1.7743  1.1515
12385SOL     OW46122   1.733   2.874   2.782 -0.0319  0.5893  0.1660
12385SOL    HW146123   1.745   2.783   2.758 -0.0240  0.7232 -0.3455
12385SOL    HW246124   1.760   2.924   2.705  0.6247  1.0514  0.6789
12386SOL     OW46125  12.407   1.858   9.309  0.3467 -0.0198 -0.4986
12386SOL    HW146126  12.496   1.892   9.315  0.1169  0.2687  2.3782
12386SOL    HW246127  12.356   1.933   9.278  0.4145  1.3395  2.4195
12387SOL     OW46128   9.737   8.072   3.727 -0.0551  0.1501  0.0527
12387SOL    HW146129   9.803   8.049   3.793 -0.4260  0.8136  0.6638
12387SOL    HW246130   9.745   8.167   3.718  0.7620 -0.0325 -1.6966
12388SOL     OW46131   9.818   8.113   5.745 -0.2016  0.4133  0.4670
12388SOL    HW146132   9.791   8.074   5.662 -0.0835  0.6818  0.2993
12388SOL    HW246133   9.912   8.095   5.750  0.2967  2.4216 -0.6017
12389SOL     OW46134  12.562   1.131   4.997 -0.2491 -0.2911 -0.2588
12389SOL    HW146135  12.493   1.076   5.033 -1.7145  1.7205  0.1947
12389SOL    HW246136  12.643   1.098   5.037 -1.2252 -1.2699  0.9849
12390SOL     OW46137   9.648   1.414   0.032  0.2146 -0.1949 -0.1103
12390SOL    HW146138   9.723   1.386   0.085  0.8643  2.7039  0.6407
12390SOL    HW246139   9.679   1.491  -0.015 -1.0993 -1.2886 -3.0146
12391SOL     OW46140   7.485  11.831   1.085 -0.1115 -0.2866  0.4682
12391SOL    HW146141   7.453  11.917   1.059  0.9881  0.0667  0.2439
12391SOL    HW246142   7.511  11.790   1.002 -0.4133 -0.7533  0.5998
12392SOL     OW46143   3.635   7.721   4.736  0.2994  0.1838 -0.6201
12392SOL    HW146144   3.692   7.689   4.806 -0.9273  0.1868  0.4232
12392SOL    HW246145   3.618   7.813   4.758 -1.4373 -0.2560  0.0533
12393SOL     OW46146   6.731   3.729   7.739 -0.1281 -0.3327 -0.7324
12393SOL    HW146147   6.756   3.647   7.697 -2.5594 -1.3927 -0.3006
12393SOL    HW246148   6.651   3.708   7.787 -0.5741  2.1910 -0.2192
12394SOL     OW46149   0.975  11.052  10.534  0.5151 -0.4672 -0.2860
12394SOL    HW146150   1.038  10.997  10.580  1.6570 -1.2618 -2.6525
12394SOL    HW246151   0.960  11.127  10.593  1.4594 -1.6595  1.5420
12395SOL     OW46152   9.857   0.635   5.281  0.1298  0.3478  0.1799
12395SOL    HW146153   9.789   0.588   5.329 -0.9367 -0.0149 -1.5988
12395SOL    HW246154   9.938   0.591   5.306 -0.4774 -0.3092  1.0623
12396SOL     OW46155   4.895  11.369   5.851 -0.0318 -0.5724 -0.3623
12396SOL    HW146156   4.806  11.404   5.841  0.1639 -0.5605 -2.2554
12396SOL    HW246157   4.920  11.395   5.940 -1.1117  1.3270 -0.5471
12397SOL     OW46158  11.214   0.841  11.020 -0.2362 -0.3465 -0.3204
12397SOL    HW146159  11.202   0.747  11.007 -1.5018 -0.3249  0.5450
12397SOL    HW246160  11.217   0.852  11.115 -0.0860  0.4948 -0.4119
12398SOL     OW46161   0.940   5.254   6.371  0.1229  0.2793  0.0435
12398SOL    HW146162   0.873   5.187   6.387 -0.0462  0.3398 -0.3914
12398SOL    HW246163   0.907   5.332   6.414 -0.0247  0.2736 -0.0578
12399SOL     OW46164  10.401   9.047   7.070  0.3302  0.5764  0.5405
12399SOL    HW146165  10.447   8.968   7.042  2.5059  1.5402  1.1046
12399SOL    HW246166  10.325   9.015   7.117 -0.4489 -1.1058 -1.7030
12400SOL     OW46167   5.057   3.701   1.023 -0.3151  0.3928 -0.4337
12400SOL    HW146168   5.034   3.687   1.115  1.9272 -2.5360 -0.1729
12400SOL    HW246169   4.984   3.664   0.974  0.4296 -2.2399  0.2937
12401SOL     OW46170   7.199   7.777   7.916  0.0434 -0.2829 -0.2890
12401SOL    HW146171   7.170   7.845   7.977 -1.4149 -1.8372  0.8469
12401SOL    HW246172   7.122   7.757   7.863  0.4074 -1.1123 -0.5240
12402SOL     OW46173   7.373   2.187   8.107 -0.1729  0.1775 -0.1621
12402SOL    HW146174   7.439   2.127   8.141 -0.4277  0.1022  0.2025
12402SOL    HW246175   7.418   2.272   8.102  0.0256  0.0731 -0.1640
12403SOL     OW46176   5.656   7.027   3.972  0.7353  0.5054 -0.0761
12403SOL    HW146177   5.661   6.984   4.057  1.8625  1.1759  0.2040
12403SOL    HW246178   5.648   7.120   3.992 -0.3164  0.5652 -0.6997
12404SOL     OW46179   8.729   1.215   3.340 -0.1455 -0.0560  0.0831
12404SOL    HW146180   8.691   1.143   3.290  2.2499 -1.6359  0.4162
12404SOL    HW246181   8.720   1.189   3.432 -1.8514  1.4680  0.4131
12405SOL     OW46182   6.319   1.265  11.535  0.7195 -0.1323  0.6079
12405SOL    HW146183   6.261   1.338  11.557  0.3883 -0.0985 -0.3245
12405SOL    HW246184   6.406   1.295  11.563  0.5462  0.4971  0.5043
12406SOL     OW46185  10.854  10.442  11.992 -0.0336  0.1673  0.1505
12406SOL    HW146186  10.826  10.530  11.967 -0.1870  0.5742  1.6760
12406SOL    HW246187  10.778  10.403  12.035 -0.3582 -1.1744 -1.5100
12407SOL     OW46188   5.274   0.970   7.194 -0.2415  0.9392 -0.2550
12407SOL    HW146189   5.213   0.913   7.241 -1.8581  1.2561 -1.8147
12407SOL    HW246190   5.360   0.931   7.208 -0.9989 -0.4706  0.7117
12408SOL     OW46191  10.650   4.718  12.223 -0.0279 -0.6170  0.2853
12408SOL    HW146192  10.596   4.654  12.177  1.1672 -1.1017 -0.5057
12408SOL    HW246193  10.698   4.763  12.154 -1.7396  2.0450  0.7155
12409SOL     OW46194  11.604   1.010   4.052  0.6170 -0.0453  0.2662
12409SOL    HW146195  11.655   0.932   4.073  0.0128 -0.2998  0.8497
12409SOL    HW246196  11.579   1.046   4.138  1.6029  1.2760  0.0258
12410SOL     OW46197   9.584   7.426   8.402  0.5518  0.6221 -0.6470
12410SOL    HW146198   9.522   7.483   8.357  1.0551 -0.8264 -3.3694
12410SOL    HW246199   9.620   7.370   8.333 -0.9289 -3.9957  1.9095
12411SOL     OW46200   8.922   4.706   6.323 -0.1039 -0.1016 -0.4651
12411SOL    HW146201   8.952   4.636   6.265  0.5309  0.0847 -0.3762
12411SOL    HW246202   8.983   4.778   6.307 -0.7120  0.4131 -0.5105
12412SOL     OW46203   0.937   0.585   8.209 -0.3434  0.0735 -0.8432
12412SOL    HW146204   0.917   0.679   8.204 -0.8028  0.0228 -0.1298
12412SOL    HW246205   0.858   0.542   8.177  0.6043 -0.0707 -3.2187
12413SOL     OW46206   2.268   2.443   9.863 -0.1015  0.4737 -0.4792
12413SOL    HW146207   2.251   2.400   9.779 -0.9392 -1.9144  0.8115
12413SOL    HW246208   2.224   2.387   9.928  1.8381  1.3431  1.7258
12414SOL     OW46209   6.505   3.666   1.276 -0.1629 -0.4731 -0.3188
12414SOL    HW146210   6.582   3.642   1.328 -1.4842 -2.4068  0.8550
12414SOL    HW246211   6.541   3.692   1.191  1.8762  0.1976  0.6775
12415SOL     OW46212   7.255   1.107   1.602  0.9520  0.4243 -0.2493
12415SOL    HW146213   7.215   1.181   1.647  0.0614  0.3942 -0.9515
12415SOL    HW246214   7.326   1.078   1.660  0.2991  0.8268  0.7748
12416SOL     OW46215   6.130   0.124   2.116  0.0188  0.2775  0.1953
12416SOL    HW146216   6.071   0.074   2.060  0.7287 -0.2502 -0.1056
12416SOL    HW246217   6.074   0.189   2.158 -1.0052 -1.0030  0.9078
12417SOL     OW46218   6.039   1.566   6.553 -0.1541 -0.1908  0.1264
12417SOL    HW146219   6.103   1.633   6.526  0.9013 -0.9289  0.7374
12417SOL    HW246220   6.019   1.588   6.644  0.9326 -1.2246  0.6497
12418SOL     OW46221   4.342   5.271   8.918 -0.2003  0.0230  0.3135
12418SOL    HW146222   4.277   5.322   8.966 -0.5051 -0.6660  0.6454
12418SOL    HW246223   4.300   5.187   8.902  0.3900 -0.2219 -0.0009
12419SOL     OW46224   6.418   7.657   2.883 -0.2639 -0.1454  0.1338
12419SOL    HW146225   6.477   7.588   2.853 -0.1849 -0.1794  0.3666
12419SOL    HW246226   6.427   7.656   2.978  2.6890  2.7249  0.0591
12420SOL     OW46227   3.666   6.794  11.210 -0.4845 -0.6741 -0.2924
12420SOL    HW146228   3.583   6.813  11.167 -1.0458 -2.0516  0.1222
12420SOL    HW246229   3.648   6.804  11.303  0.5747  1.7408 -0.2774
12421SOL     OW46230  10.930   0.856  10.492  0.5054  0.0250 -0.7120
12421SOL    HW146231  10.976   0.817  10.566  0.0286  1.7706  0.5715
12421SOL    HW246232  10.851   0.802  10.483  0.3235  0.0648  0.4006
12422SOL     OW46233  11.748   3.325  10.281  0.1186 -0.4869 -0.3117
12422SOL    HW146234  11.816   3.257  10.283  0.7749  0.1506 -0.5092
12422SOL    HW246235  11.679   3.291  10.337  0.8343 -0.9226  0.3307
12423SOL     OW46236   7.048   3.981   3.271 -0.0072  0.0718  0.0201
12423SOL    HW146237   7.096   3.952   3.193 -1.5520 -0.7731 -0.6624
12423SOL    HW246238   7.076   3.921   3.340  1.0725  0.5758  0.0425
12424SOL     OW46239   2.058   7.367   1.722 -0.5229 -0.2174  0.3041
12424SOL    HW146240   2.082   7.438   1.781  0.3861  0.6425 -1.0440
12424SOL    HW246241   2.135   7.354   1.667 -1.0219 -1.6079 -0.1054
12425SOL     OW46242   0.416   8.951   1.242  0.0353 -0.4897 -0.6557
12425SOL    HW146243   0.398   9.020   1.178  0.3592  0.2070 -0.0169
12425SOL    HW246244   0.448   8.878   1.190  0.1432  0.0093 -1.3067
12426SOL     OW46245   0.372  12.389  10.151  0.1327 -0.1786 -0.5644
12426SOL    HW146246   0.295  12.445  10.139  0.8178  0.6754 -1.1721
12426SOL    HW246247   0.442  12.436  10.106  1.3318 -0.2331  1.1549
12427SOL     OW46248  10.251   4.956   1.130  0.1581  0.2542 -0.1191
12427SOL    HW146249  10.282   4.923   1.214  2.8728 -0.9833 -1.4824
12427SOL    HW246250  10.214   5.042   1.150  0.7676  0.0232  2.2959
12428SOL     OW46251   3.039   2.789   0.084  0.3603  0.0229  0.0028
12428SOL    HW146252   2.961   2.734   0.089 -1.1925  2.1315  0.2164
12428SOL    HW246253   3.095   2.758   0.155 -0.8687 -0.6940  0.6894
12429SOL     OW46254   5.229  12.115  10.830 -0.3507 -0.2351 -0.5737
12429SOL    HW146255   5.203  12.041  10.776  0.6320  0.6456 -2.3326
12429SOL    HW246256   5.315  12.141  10.796 -0.7773  1.8625 -0.1998
12430SOL     OW46257   0.405   1.002   0.912  0.6057  0.2116  0.2930
12430SOL    HW146258   0.354   1.078   0.885  0.3742  0.5593  1.6299
12430SOL    HW246259   0.343   0.930   0.912  0.0549  0.6350  1.9254
12431SOL     OW46260   1.324   8.500   0.543  0.2740  0.4771  0.0892
12431SOL    HW146261   1.330   8.595   0.554 -1.4487  0.9283 -2.1802
12431SOL    HW246262   1.353   8.485   0.454  0.7409 -1.1812  0.5027
12432SOL     OW46263  11.314  11.815   3.373 -0.2885 -0.5461  0.4135
12432SOL    HW146264  11.349  11.873   3.305 -0.1166 -1.0443  0.0698
12432SOL    HW246265  11.221  11.807   3.352 -0.5578  0.4914  1.1177
12433SOL     OW46266   9.573   8.249   4.340 -0.2481 -0.1253  0.6293
12433SOL    HW146267   9.568   8.173   4.398  1.7369  0.3372  1.4983
12433SOL    HW246268   9.528   8.221   4.260  0.5010 -2.2746  0.8887
12434SOL     OW46269  12.060   2.921   6.435  0.6601 -0.1590  0.1595
12434SOL    HW146270  12.052   2.826   6.435  1.5035 -0.2385  1.2754
12434SOL    HW246271  12.141   2.939   6.482  0.7289  1.1031 -0.3992
12435SOL     OW46272   0.532   7.656   4.013 -0.3141  0.0444 -0.6566
12435SOL    HW146273   0.470   7.584   4.002 -0.2743  0.0286 -0.7787
12435SOL    HW246274   0.491   7.713   4.078 -0.5291  0.1086 -0.8450
12436SOL     OW46275   4.571  11.478  12.039 -0.0841  0.7248  0.5840
12436SOL    HW146276   4.601  11.544  11.976  1.5975 -1.6135 -1.2881
12436SOL    HW246277   4.537  11.407  11.984  1.6906 -1.5433  2.2115
12437SOL     OW46278   3.044   0.273   3.586  0.2014  0.4434  0.1755
12437SOL    HW146279   3.054   0.247   3.678 -0.5189 -0.7026 -0.0545
12437SOL    HW246280   3.133   0.289   3.556  0.4854  0.3379  0.9354
12438SOL     OW46281   6.016   5.432   1.538 -0.0192  0.1382 -0.4022
12438SOL    HW146282   6.039   5.363   1.600 -1.3455  1.0302  1.1569
12438SOL    HW246283   5.924   5.417   1.519 -0.6467  2.0774  0.8390
12439SOL     OW46284   4.726  10.124   8.871  0.2483  0.4644  0.3761
12439SOL    HW146285   4.817  10.112   8.899  0.3430  0.3037  0.0081
12439SOL    HW246286   4.678  10.056   8.917  0.3099  0.5718  0.5986
12440SOL     OW46287  10.946  12.554   3.639 -0.4963 -0.1947  0.0692
12440SOL    HW146288  10.907  12.474   3.673 -2.0490  1.2483  1.9612
12440SOL    HW246289  10.999  12.588   3.711  1.5398 -0.3320 -1.2900
12441SOL     OW46290  11.570   7.739   5.166  0.2554 -0.3225  0.0899
12441SOL    HW146291  11.550   7.788   5.246  0.1640 -1.8139  1.0285
12441SOL    HW246292  11.495   7.755   5.108 -0.7485 -0.9415  1.1691
12442SOL     OW46293   0.751   0.400   6.705 -0.3964  0.1694  0.4859
12442SOL    HW146294   0.660   0.403   6.734 -0.1867  1.9716  1.1215
12442SOL    HW246295   0.766   0.309   6.681 -1.5940 -0.7831  2.9549
12443SOL     OW46296   5.387  11.597   2.939 -0.0343 -0.4700  0.1845
12443SOL    HW146297   5.377  11.530   3.007  0.5191  2.2302  3.1884
12443SOL    HW246298   5.392  11.547   2.857 -2.8826 -3.8666  1.7705
12444SOL     OW46299   0.820   5.989  11.334 -0.6512 -0.4047 -0.3385
12444SOL    HW146300   0.727   5.969  11.337 -0.7087 -0.0815  0.1980
12444SOL    HW246301   0.860   5.912  11.292 -0.9582 -1.2726  0.9094
12445SOL     OW46302   5.781   4.777   2.063  0.0929 -0.5274 -0.0227
12445SOL    HW146303   5.752   4.694   2.026  2.2652 -0.7842 -1.2844
12445SOL    HW246304   5.861   4.755   2.112  0.7707  0.8157 -0.4863
12446SOL     OW46305   7.006   7.001   5.862 -0.1296  1.0326 -0.0361
12446SOL    HW146306   6.951   7.078   5.870 -2.0822 -0.0264 -2.2102
12446SOL    HW246307   7.027   6.996   5.769 -0.0422 -1.0207  0.0540
12447SOL     OW46308  10.252  11.869   6.790  0.0505  0.1734 -0.4400
12447SOL    HW146309  10.285  11.844   6.704 -0.2694 -1.1336 -0.2087
12447SOL    HW246310  10.158  11.882   6.778  0.0872  0.5012 -0.3887
12448SOL     OW46311  10.005  10.367   0.802  0.4111 -0.1389 -0.1199
12448SOL    HW146312  10.055  10.446   0.820  0.2597  0.0179 -0.3898
12448SOL    HW246313  10.029  10.343   0.713 -0.6859  0.4507 -0.5908
12449SOL     OW46314   0.062  12.497   8.218  0.3680  0.1116 -0.1524
12449SOL    HW146315  -0.003  12.517   8.286 -0.0422 -1.1278 -0.1495
12449SOL    HW246316   0.129  12.446   8.264  0.2501 -0.4537 -0.6040
12450SOL     OW46317   9.123  10.763   8.813 -0.0403  0.7232  0.4748
12450SOL    HW146318   9.093  10.773   8.723 -0.8777  2.1896  0.8793
12450SOL    HW246319   9.091  10.677   8.841 -0.6157  0.6832 -0.3067
12451SOL     OW46320   7.357  10.518   9.194  0.0781  0.1766  0.0244
12451SOL    HW146321   7.414  10.594   9.183  1.6801 -0.7119  1.5626
12451SOL    HW246322   7.405  10.446   9.153 -0.8191 -0.2580 -0.2865
12452SOL     OW46323   4.842   8.847   0.651  0.0849 -0.3107 -0.1036
12452SOL    HW146324   4.827   8.936   0.619  0.2452 -0.5337 -0.7999
12452SOL    HW246325   4.776   8.836   0.719 -0.4356  0.0735 -0.5311
12453SOL     OW46326   2.033   7.327   2.811  0.4790 -0.1776 -0.0170
12453SOL    HW146327   1.982   7.344   2.890  1.8269  0.3978  0.7603
12453SOL    HW246328   2.031   7.232   2.801  0.0623 -0.2308  0.5377
12454SOL     OW46329   7.633   7.918  11.624 -0.6386  0.0567  0.1990
12454SOL    HW146330   7.602   7.833  11.592 -0.9562 -0.2433  1.2787
12454SOL    HW246331   7.712   7.935  11.572  0.0117 -1.3949  0.6548
12455SOL     OW46332   8.796   0.631  10.077  0.1541 -0.3124  0.0790
12455SOL    HW146333   8.784   0.724  10.091 -3.6612 -0.5934 -0.2345
12455SOL    HW246334   8.775   0.590  10.161 -0.7682 -0.9834 -0.4582
12456SOL     OW46335   6.090   3.709   4.184 -0.0051  0.0695  0.1667
12456SOL    HW146336   6.101   3.692   4.090  1.6528  1.5380  0.0468
12456SOL    HW246337   6.051   3.629   4.218  0.8141 -1.1124 -1.5126
12457SOL     OW46338  11.597   5.893   1.913 -0.4697  0.2415  0.1439
12457SOL    HW146339  11.620   5.872   2.003  1.9625 -0.1641 -0.4826
12457SOL    HW246340  11.559   5.812   1.879  1.2751 -0.6109  0.0630
12458SOL     OW46341   2.111   1.384   6.195  0.7442 -0.8007  0.1445
12458SOL    HW146342   2.157   1.464   6.168  1.4837 -1.4516 -0.5724
12458SOL    HW246343   2.179   1.331   6.237  0.4689 -1.4341 -0.2004
12459SOL     OW46344   2.799   5.207   3.829  0.0303 -0.3913  0.5497
12459SOL    HW146345   2.769   5.297   3.819  2.8327  0.5839 -0.0717
12459SOL    HW246346   2.804   5.194   3.924  1.4744  0.8725  0.6896
12460SOL     OW46347   4.825  12.403   3.886 -0.2832  0.5898  0.3263
12460SOL    HW146348   4.793  12.359   3.808 -0.0762  0.6498  0.2062
12460SOL    HW246349   4.917  12.423   3.866 -0.0594  0.0818  0.8026
12461SOL     OW46350   7.805  10.229   9.734 -0.1550  0.3517 -0.7954
12461SOL    HW146351   7.766  10.273   9.658 -0.5240 -1.1004 -1.4801
12461SOL    HW246352   7.730  10.189   9.779  0.1854  0.3128 -0.2606
12462SOL     OW46353   0.294   3.618   5.876  0.2440 -0.2621  0.0723
12462SOL    HW146354   0.296   3.531   5.916  1.1575  0.6198  2.1283
12462SOL    HW246355   0.386   3.645   5.873 -0.1278  1.4367  1.5395
12463SOL     OW46356  11.673   7.856   1.039  0.0101  0.3038 -0.3220
12463SOL    HW146357  11.720   7.922   0.989 -0.0979  0.2866 -0.4449
12463SOL    HW246358  11.618   7.905   1.100  0.7165  0.3228  0.3119
12464SOL     OW46359   4.685  11.624   2.719 -0.3838 -0.4072  0.0506
12464SOL    HW146360   4.590  11.635   2.716 -0.3070  0.0762 -1.6120
12464SOL    HW246361   4.719  11.711   2.740 -0.2890 -0.5239  0.3919
12465SOL     OW46362   3.557  11.196   1.501 -0.3628  0.2066 -0.3567
12465SOL    HW146363   3.604  11.227   1.424  0.7106 -0.6377 -0.0618
12465SOL    HW246364   3.470  11.174   1.468 -0.2139  0.7332 -1.1351
12466SOL     OW46365   1.807   3.034   7.134 -0.3566  0.1662 -0.0506
12466SOL    HW146366   1.762   3.025   7.049  0.4077 -1.8152 -0.2951
12466SOL    HW246367   1.828   2.945   7.159  0.8831  0.8495  1.4761
12467SOL     OW46368  12.320   7.487   5.778  0.2693  0.1136  0.0381
12467SOL    HW146369  12.232   7.486   5.741 -0.3633 -0.1186  1.4753
12467SOL    HW246370  12.375   7.525   5.709 -1.2948  2.2302 -0.1480
12468SOL     OW46371   8.943   3.169  11.050 -0.1785  0.7508  0.4124
12468SOL    HW146372   8.911   3.096  10.998 -0.4841  0.8655  0.4354
12468SOL    HW246373   9.036   3.152  11.062 -0.2674  0.3143  0.5028
12469SOL     OW46374  10.796   9.095   7.246  0.1790 -0.3771 -0.4168
12469SOL    HW146375  10.815   9.185   7.220 -0.3546 -0.4620 -1.1425
12469SOL    HW246376  10.840   9.084   7.330 -2.0085  1.4628  1.0959
12470SOL     OW46377   6.725   5.576   3.844 -0.1439  0.0624  0.0807
12470SOL    HW146378   6.810   5.601   3.807  0.3558 -0.0963  1.0949
12470SOL    HW246379   6.740   5.572   3.938 -1.1429 -0.5141  0.2287
12471SOL     OW46380   3.351   0.644   3.620 -0.0750  1.3102  0.1821
12471SOL    HW146381   3.314   0.653   3.532  0.9507  1.0367 -0.2896
12471SOL    HW246382   3.445   0.659   3.609  0.3356 -0.3732  0.9244
12472SOL     OW46383   7.253   2.014   3.493  0.4418  0.6199 -0.4613
12472SOL    HW146384   7.342   2.008   3.458  1.1562 -0.3084  1.3479
12472SOL    HW246385   7.247   2.103   3.528  1.0896  0.3499  0.3840
12473SOL     OW46386   5.435   9.744  10.013  0.3096 -0.5462 -0.0810
12473SOL    HW146387   5.403   9.798  10.085  0.4771 -1.3442  0.6023
12473SOL    HW246388   5.527   9.728  10.033  0.4298 -0.5448 -0.6134
12474SOL     OW46389   4.380   5.348  10.147  0.2044  0.4201  0.4043
12474SOL    HW146390   4.288   5.323  10.148  0.0285  1.0472  0.4756
12474SOL    HW246391   4.379   5.442  10.129  0.9397 -0.0082 -2.2693
12475SOL     OW46392   6.908   5.734   0.819 -0.0666  0.4386 -0.4472
12475SOL    HW146393   6.974   5.772   0.876 -1.6022  0.0926  1.7099
12475SOL    HW246394   6.950   5.729   0.733  2.6642  0.2676  0.7804
12476SOL     OW46395   9.895   3.080   4.462 -0.2921 -0.0432 -0.0702
12476SOL    HW146396   9.971   3.037   4.501  0.0136  1.1999  0.7564
12476SOL    HW246397   9.834   3.009   4.446  1.2049 -1.1467 -1.1937
12477SOL     OW46398   8.754   8.115   3.042  0.1125 -0.1898 -0.5805
12477SOL    HW146399   8.792   8.097   2.956  0.4478  0.2735 -0.5374
12477SOL    HW246400   8.708   8.198   3.031 -1.3613 -1.0052 -0.7675
12478SOL     OW46401   1.034   3.728   4.155  0.3181 -0.0456 -0.7917
12478SOL    HW146402   1.086   3.786   4.100 -0.2687  0.7740 -0.5058
12478SOL    HW246403   0.945   3.762   4.148  0.1426 -0.2538  0.2303
12479SOL     OW46404   2.566   9.876   6.192  0.2303 -0.4508 -0.2096
12479SOL    HW146405   2.497   9.928   6.152  0.5588 -0.8337 -1.2964
12479SOL    HW246406   2.632   9.941   6.219  1.0430 -0.3064 -2.3452
12480SOL     OW46407  11.458   3.871   0.922  0.1167 -0.4710 -0.3256
12480SOL    HW146408  11.541   3.905   0.956  0.4979 -1.7760  0.1061
12480SOL    HW246409  11.463   3.777   0.937 -1.6587 -0.5268  0.1897
12481SOL     OW46410  11.805   8.299   5.357 -0.4368  0.1047  0.7398
12481SOL    HW146411  11.738   8.251   5.406 -2.3687  2.1156  0.2589
12481SOL    HW246412  11.756   8.339   5.285  1.5307  0.7870 -0.2801
12482SOL     OW46413   8.602   1.648  11.572  0.3872  0.2626  0.0210
12482SOL    HW146414   8.535   1.637  11.504  0.9519  2.8484 -1.0723
12482SOL    HW246415   8.685   1.630  11.528  0.7244  1.5605  0.0665
12483SOL     OW46416   3.311   8.452   5.879  0.4895 -0.7761  0.3862
12483SOL    HW146417   3.386   8.404   5.845  0.7467 -0.3051  0.2702
12483SOL    HW246418   3.319   8.539   5.839 -0.3131 -0.8260  0.0976
12484SOL     OW46419   9.562   5.978  11.984  0.2756  0.6015  0.0200
12484SOL    HW146420   9.495   5.932  12.036 -0.4444  1.0808 -0.4682
12484SOL    HW246421   9.576   6.060  12.031 -1.2647  1.5830 -1.1501
12485SOL     OW46422   1.786   1.309  12.329  0.1758 -0.3303  0.6009
12485SOL    HW146423   1.758   1.298  12.238 -0.1371  0.1417  0.6340
12485SOL    HW246424   1.725   1.374  12.365  2.1361  1.8379  0.2911
12486SOL     OW46425   2.514   4.141   0.813 -0.2135  0.1404 -0.3181
12486SOL    HW146426   2.546   4.077   0.749  1.9426  0.6702  0.1429
12486SOL    HW246427   2.541   4.106   0.898 -1.3863  0.3661  0.1645
12487SOL     OW46428   4.495   2.695  12.319  0.7136 -0.1483 -0.1106
12487SOL    HW146429   4.479   2.789  12.312  2.5985  0.1270 -1.6602
12487SOL    HW246430   4.573   2.680  12.266 -0.3785 -2.8235 -1.1503
12488SOL     OW46431   0.859   1.940   1.208 -0.1742 -0.5254 -0.6404
12488SOL    HW146432   0.799   1.969   1.139  0.7734  0.0511 -1.2552
12488SOL    HW246433   0.840   1.999   1.282 -1.2353 -1.1853 -0.3626
12489SOL     OW46434   7.549  12.264   2.881  0.1079  0.0337 -0.8243
12489SOL    HW146435   7.521  12.175   2.857 -1.4940  0.2747 -0.0178
12489SOL    HW246436   7.472  12.302   2.924  1.0427  1.5333 -0.4088
12490SOL     OW46437   5.903   8.884   1.740  0.4254 -0.5143  0.6691
12490SOL    HW146438   5.884   8.791   1.753 -1.3538 -0.2057  0.5984
12490SOL    HW246439   5.819   8.921   1.712  1.4588  0.8398 -0.8192
12491SOL     OW46440   7.810   1.677   3.260 -0.2559  0.2110 -0.5700
12491SOL    HW146441   7.811   1.771   3.239  0.8613  0.6718  1.2959
12491SOL    HW246442   7.731   1.666   3.313  1.4207  0.9762  2.3630
12492SOL     OW46443  10.208   2.634   8.755  1.1220  0.5529 -0.5734
12492SOL    HW146444  10.153   2.565   8.717  2.7418 -1.9674  1.2734
12492SOL    HW246445  10.187   2.633   8.849  2.0554  1.7337 -0.3189
12493SOL     OW46446   6.606   5.455   7.428  0.0131 -0.2744 -0.5555
12493SOL    HW146447   6.548   5.523   7.395 -0.8057 -1.2297 -1.1692
12493SOL    HW246448   6.636   5.408   7.350  0.0470 -1.0127 -0.1148
12494SOL     OW46449   0.180   5.359   2.254  0.0992 -0.4192  0.2649
12494SOL    HW146450   0.139   5.444   2.265  0.1816 -0.2116 -0.9322
12494SOL    HW246451   0.147   5.307   2.328 -2.6897 -0.4067 -0.8456
12495SOL     OW46452  10.759  12.585   5.429 -0.7145  0.2287  0.3017
12495SOL    HW146453  10.765  12.507   5.373 -0.6358  0.8438 -0.5657
12495SOL    HW246454  10.665  12.598   5.440 -0.8827  1.8937 -2.3101
12496SOL     OW46455   4.115   1.923   5.024  0.3136  0.0134 -0.1897
12496SOL    HW146456   4.187   1.860   5.020 -0.1136 -0.4531 -1.0164
12496SOL    HW246457   4.151   2.003   4.986  0.3871 -0.2388 -0.6641
12497SOL     OW46458   5.334   7.646   1.253 -0.6680 -0.0108 -0.4521
12497SOL    HW146459   5.289   7.695   1.322  1.1162 -1.2165  1.7143
12497SOL    HW246460   5.371   7.713   1.196 -1.2185  1.0676  0.4211
12498SOL     OW46461   6.583  12.125   3.066  0.0378 -0.0898  0.3263
12498SOL    HW146462   6.634  12.191   3.112 -0.7592  0.1118  0.9536
12498SOL    HW246463   6.561  12.166   2.982  0.8738 -0.1728  0.0608
12499SOL     OW46464   9.863  12.594   6.120 -0.1617 -0.1843 -0.3320
12499SOL    HW146465   9.939  12.564   6.169 -1.1129 -1.2564  0.5459
12499SOL    HW246466   9.855  12.687   6.142 -0.2328 -0.5098  1.1399
12500SOL     OW46467   2.609   2.745   9.401 -0.1493  0.1281  0.1614
12500SOL    HW146468   2.641   2.655   9.397 -0.4287  0.0217  0.2942
12500SOL    HW246469   2.517   2.740   9.374 -0.0465  0.4381 -0.2605
12501SOL     OW46470  11.097   2.962   1.621 -0.4238  0.1999 -0.5758
12501SOL    HW146471  11.144   2.897   1.568  0.6573 -0.2149  0.8472
12501SOL    HW246472  11.161   3.032   1.635 -0.2819 -0.2581  1.1877
12502SOL     OW46473   2.122   7.707   5.480  0.0942 -0.3426  0.2528
12502SOL    HW146474   2.032   7.712   5.514  0.5767 -1.3026  1.7737
12502SOL    HW246475   2.168   7.780   5.522  0.9278 -2.0771  2.6024
12503SOL     OW46476  10.314   5.579   7.493 -0.2673 -0.3099 -0.7073
12503SOL    HW146477  10.229   5.550   7.460 -0.8919  0.4961  0.1553
12503SOL    HW246478  10.303   5.672   7.510  0.8941 -0.1279 -0.8969
12504SOL     OW46479   6.872   2.103   3.914 -0.3739  0.3674  0.2433
12504SOL    HW146480   6.921   2.021   3.901 -1.6293 -0.3149 -0.3127
12504SOL    HW246481   6.895   2.156   3.838 -1.7467 -0.6069 -0.8940
12505SOL     OW46482   0.729   6.809  10.706 -0.2390 -0.1301  0.0103
12505SOL    HW146483   0.667   6.882  10.703  0.2587  0.2783 -0.5089
12505SOL    HW246484   0.706   6.755  10.630  0.2348  0.1917 -0.3701
12506SOL     OW46485  11.198   1.476   9.404  0.2433  0.1394  0.0495
12506SOL    HW146486  11.138   1.541   9.368 -0.1670 -1.0202 -1.4682
12506SOL    HW246487  11.283   1.520   9.407 -0.0954  0.8573 -0.6428
12507SOL     OW46488   5.276   5.689  10.147  0.2573 -0.3167 -0.2292
12507SOL    HW146489   5.184   5.713  10.150 -0.0197 -1.2205 -0.8875
12507SOL    HW246490   5.276   5.596  10.125  1.3248 -0.3129 -0.3153
12508SOL     OW46491  10.962   7.031   4.620  0.7533 -0.0710  0.3527
12508SOL    HW146492  10.960   7.075   4.534 -0.1746  0.0134  0.4074
12508SOL    HW246493  10.879   6.984   4.624  2.3287 -3.1876 -0.3719
12509SOL     OW46494   4.000   6.613   8.156  0.6081  0.3254 -0.5664
12509SOL    HW146495   3.993   6.536   8.099  1.0297 -0.6377  0.6352
12509SOL    HW246496   4.082   6.600   8.204  0.4192  1.2665  0.0366
12510SOL     OW46497   2.277   5.931   5.875  0.1881 -0.1180 -0.2083
12510SOL    HW146498   2.349   5.873   5.852 -1.3880 -2.2937  0.0840
12510SOL    HW246499   2.278   5.998   5.806  0.8677 -1.5898 -1.6892
12511SOL     OW46500  10.099   1.702   2.243  0.2642  0.5498  0.2332
12511SOL    HW146501  10.162   1.634   2.221  0.0529  0.3498  0.2455
12511SOL    HW246502  10.029   1.692   2.178 -0.8223 -0.6500  1.5353
12512SOL     OW46503  10.570   2.745   8.902  0.1022  0.2624 -0.0387
12512SOL    HW146504  10.488   2.795   8.913  0.0355  0.1100  0.1577
12512SOL    HW246505  10.558   2.698   8.819  0.3935  1.0104 -0.5178
12513SOL     OW46506  12.485   6.025   7.433  0.1924 -0.2937  0.0617
12513SOL    HW146507  12.578   6.018   7.412  0.0622 -0.1556 -0.5946
12513SOL    HW246508  12.444   6.055   7.351 -0.5013 -0.8615  0.1872
12514SOL     OW46509   4.668   6.842   1.500  0.4341  0.2318  0.1350
12514SOL    HW146510   4.751   6.875   1.535  1.0487  2.8576 -3.2437
12514SOL    HW246511   4.694   6.773   1.439  0.1785  0.8977 -0.7502
12515SOL     OW46512   1.883   2.831   6.039 -0.7896  0.2559 -0.8078
12515SOL    HW146513   1.938   2.808   6.113 -0.1231  2.5062 -0.5161
12515SOL    HW246514   1.843   2.749   6.011  1.4432 -1.1768 -0.0082
12516SOL     OW46515  10.838  11.573  10.971  0.1676 -0.4174 -0.5362
12516SOL    HW146516  10.867  11.491  11.013  0.0028  0.3371  1.1479
12516SOL    HW246517  10.893  11.641  11.012  0.3070  0.3270 -1.9129
12517SOL     OW46518   7.119   2.270   7.829 -0.3402 -0.3495  0.0303
12517SOL    HW146519   7.135   2.339   7.893 -3.1716  0.0400  0.4554
12517SOL    HW246520   7.046   2.302   7.777  2.2147 -0.3927 -3.9418
12518SOL     OW46521  11.819   9.980   0.995  0.0922 -0.1847 -0.8914
12518SOL    HW146522  11.873   9.920   0.943 -0.5295 -0.1346 -1.6096
12518SOL    HW246523  11.732   9.942   0.993 -0.6171  1.3859 -2.4573
12519SOL     OW46524   6.202  10.616   1.710  0.2222  0.5761  0.5624
12519SOL    HW146525   6.235  10.689   1.658 -0.4942  0.6317  0.1777
12519SOL    HW246526   6.147  10.566   1.650  0.9622 -0.4745  0.7292
12520SOL     OW46527   1.434  12.584  10.970 -0.7890  0.6142 -0.0629
12520SOL    HW146528   1.348  12.626  10.969 -1.5933 -0.9081  0.4495
12520SOL    HW246529   1.458  12.580  11.063 -0.9005 -0.2969 -0.0553
12521SOL     OW46530   8.115  11.172  11.018  0.0105  0.1662 -0.4789
12521SOL    HW146531   8.190  11.136  10.970 -0.0128 -0.4776 -0.0355
12521SOL    HW246532   8.136  11.265  11.027  1.5996 -0.2648  1.0995
12522SOL     OW46533   0.470  10.243  11.588 -0.6911  0.1165  0.0391
12522SOL    HW146534   0.389  10.217  11.544 -0.6242 -1.6872  0.8979
12522SOL    HW246535   0.531  10.171  11.572  0.2454  0.7317  0.7200
12523SOL     OW46536   2.989   8.368   1.709  0.1483  0.5705  0.3521
12523SOL    HW146537   2.999   8.442   1.770 -0.2876  1.6729 -0.8506
12523SOL    HW246538   3.065   8.313   1.724  0.1236  0.8987  1.7724
12524SOL     OW46539  10.506  10.942  11.701 -0.1803  0.1281 -0.3610
12524SOL    HW146540  10.570  10.923  11.631  0.0457 -5.4166  0.8543
12524SOL    HW246541  10.430  10.888  11.678 -1.7096  1.3033  1.6854
12525SOL     OW46542   8.893  11.089   5.618  0.5478  0.7924 -0.0767
12525SOL    HW146543   8.835  11.087   5.694  1.3341  1.8988  0.6015
12525SOL    HW246544   8.838  11.117   5.546 -0.2976 -0.6379 -0.0123
12526SOL     OW46545   2.073   8.910   5.151  0.2697 -0.0709  0.0475
12526SOL    HW146546   2.021   8.933   5.073  0.2139 -0.0896  0.0792
12526SOL    HW246547   2.009   8.906   5.222  0.0157 -1.8614 -0.2459
12527SOL     OW46548  11.214   5.898   6.782  0.2993  0.4556  0.6197
12527SOL    HW146549  11.138   5.847   6.809 -0.7020  2.3259  1.5692
12527SOL    HW246550  11.183   5.989   6.781  2.4115  1.2480  0.6490
12528SOL     OW46551   8.194   7.862   3.588  0.3395  0.5666  0.1245
12528SOL    HW146552   8.242   7.802   3.645  0.3223  0.9928  0.5939
12528SOL    HW246553   8.188   7.816   3.504  1.3992  0.4302  0.1182
12529SOL     OW46554   5.118   8.577   3.789 -0.0952  0.4547 -0.0401
12529SOL    HW146555   5.211   8.554   3.785 -0.6961 -2.9540  1.8211
12529SOL    HW246556   5.080   8.540   3.709 -0.1910  0.0557  0.1932
12530SOL     OW46557   6.719   9.635  10.797  0.3701  0.4576  0.1961
12530SOL    HW146558   6.742   9.584  10.719 -0.1575  0.2622  0.1689
12530SOL    HW246559   6.634   9.601  10.825 -0.0778  1.4491  0.0739
12531SOL     OW46560   5.264   8.783  10.748  0.2967 -0.2470  0.5297
12531SOL    HW146561   5.222   8.814  10.828 -0.1951 -0.2341  0.2730
12531SOL    HW246562   5.192   8.777  10.684  0.7138 -0.0705  0.0372
12532SOL     OW46563   2.512  11.496   6.377 -0.3673  0.2949 -0.6037
12532SOL    HW146564   2.566  11.568   6.409 -2.2189  2.1250 -1.3487
12532SOL    HW246565   2.562  11.417   6.397  0.5627  1.5714  2.6908
12533SOL     OW46566  12.489   7.170   2.628 -0.0709  0.9129  0.4669
12533SOL    HW146567  12.493   7.138   2.537  0.3443  0.1930  0.7244
12533SOL    HW246568  12.411   7.225   2.631 -0.8656 -0.1485  0.0030
12534SOL     OW46569   0.650   5.274   4.562  0.0860 -0.0297 -0.2044
12534SOL    HW146570   0.686   5.212   4.625  0.3298  1.0229  0.7174
12534SOL    HW246571   0.602   5.219   4.500  0.9994 -1.2100  0.0942
12535SOL     OW46572   7.361   3.833   2.824  0.6900  0.1550  0.1163
12535SOL    HW146573   7.426   3.802   2.760  1.0838  0.4391  0.3763
12535SOL    HW246574   7.379   3.782   2.903  0.0426 -0.3746 -0.0685
12536SOL     OW46575   4.559   8.701   9.327 -0.3090  0.6587 -0.9018
12536SOL    HW146576   4.540   8.649   9.405 -0.4080 -0.1505 -1.4431
12536SOL    HW246577   4.474   8.736   9.300 -0.1488  1.6408 -0.1815
12537SOL     OW46578   8.980   0.580   7.984 -0.1745 -0.3439  0.1247
12537SOL    HW146579   8.955   0.514   7.919 -0.2927 -0.3485  0.1748
12537SOL    HW246580   9.056   0.624   7.945 -1.1602  0.6847 -0.7247
12538SOL     OW46581   2.742   4.730   0.628  0.1919 -0.4304  0.2189
12538SOL    HW146582   2.821   4.764   0.588  0.7237 -0.6635  1.0429
12538SOL    HW246583   2.672   4.751   0.566  0.5939  1.5514  0.3676
12539SOL     OW46584  12.146  10.920   4.130  0.9268  0.2422  0.0715
12539SOL    HW146585  12.152  10.826   4.114 -0.3720  0.4783 -2.0483
12539SOL    HW246586  12.141  10.927   4.226 -2.7433 -2.1200  0.2319
12540SOL     OW46587   3.402   8.187  10.872  0.5627 -0.1462 -0.0323
12540SOL    HW146588   3.328   8.233  10.832 -1.1370 -1.5423  1.3086
12540SOL    HW246589   3.459   8.257  10.904  0.1302  0.9723 -1.6094
12541SOL     OW46590   3.227   0.725   9.762 -0.0643 -0.5492 -0.4295
12541SOL    HW146591   3.219   0.671   9.841 -0.9531 -0.1385 -0.2272
12541SOL    HW246592   3.152   0.784   9.766  0.3323  0.0152 -1.1758
12542SOL     OW46593   2.800  11.849   1.181 -1.4018 -0.6690 -0.2154
12542SOL    HW146594   2.800  11.849   1.085  1.4042 -0.1584 -0.2849
12542SOL    HW246595   2.835  11.763   1.205 -0.6342 -0.2263  0.2882
12543SOL     OW46596   8.657   1.525   4.556 -0.3857 -0.0969 -0.3733
12543SOL    HW146597   8.578   1.494   4.511 -1.4601  0.7158  0.9093
12543SOL    HW246598   8.631   1.534   4.647  0.8501  1.3713 -0.1395
12544SOL     OW46599   5.067   1.097   6.437  0.2045  0.4390  0.3560
12544SOL    HW146600   5.126   1.171   6.450 -1.5086  2.0870 -0.7815
12544SOL    HW246601   4.992   1.133   6.390 -0.6014 -2.0734 -0.4938
12545SOL     OW46602   2.818   3.636   3.402 -0.3515 -0.0303  0.5641
12545SOL    HW146603   2.815   3.575   3.329 -0.9224  0.2078  0.3825
12545SOL    HW246604   2.751   3.701   3.382  3.0856  3.2840 -1.5018
12546SOL     OW46605   6.448   3.544  10.027  0.4158  0.1046 -0.4185
12546SOL    HW146606   6.387   3.551  10.100  0.5494  1.1812 -0.3997
12546SOL    HW246607   6.392   3.529   9.951  0.1918  0.1566 -0.2669
12547SOL     OW46608   9.957   5.974   1.998  0.4867 -0.2007  0.2817
12547SOL    HW146609   9.960   6.041   1.929  1.1207  2.3995  2.6651
12547SOL    HW246610  10.045   5.973   2.034 -0.8018  2.0179  4.0234
12548SOL     OW46611   9.511   2.229   4.975  0.0597  0.2431  0.3191
12548SOL    HW146612   9.502   2.219   5.070  0.0390  1.7489  0.4908
12548SOL    HW246613   9.429   2.196   4.939 -0.3034  0.5329  0.8809
12549SOL     OW46614  10.320   4.474   2.230 -0.1339  0.8364 -0.5443
12549SOL    HW146615  10.314   4.522   2.147 -0.5729  3.6455  0.9700
12549SOL    HW246616  10.232   4.481   2.268  0.5914  1.5832  1.1161
12550SOL     OW46617  11.492   9.864   9.064  0.1419  0.2746 -0.0869
12550SOL    HW146618  11.419   9.900   9.115  1.4236  2.5521  0.3007
12550SOL    HW246619  11.453   9.836   8.981 -1.2274  1.0565  0.2701
12551SOL     OW46620   6.759   4.379   1.869 -0.5218 -0.0231  0.1461
12551SOL    HW146621   6.683   4.431   1.894  0.5738  1.3335  0.7506
12551SOL    HW246622   6.835   4.428   1.901  0.8007  0.0632 -2.7618
12552SOL     OW46623   0.735   8.664   1.609  0.1488 -0.4517 -0.5955
12552SOL    HW146624   0.678   8.590   1.631 -0.7364  0.4610  0.3049
12552SOL    HW246625   0.768   8.695   1.693  1.7960 -0.7871 -1.0856
12553SOL     OW46626   2.129   0.353   6.102  0.3489  0.8405 -0.1196
12553SOL    HW146627   2.198   0.392   6.156  0.9679  0.0475 -0.3127
12553SOL    HW246628   2.069   0.425   6.083 -0.2699  1.0135  2.2038
12554SOL     OW46629   0.882  11.237   1.924 -0.0070  0.4003 -0.3502
12554SOL    HW146630   0.913  11.172   1.861  2.2884  1.8499 -0.8271
12554SOL    HW246631   0.896  11.195   2.010 -1.8084 -1.0151 -0.6852
12555SOL     OW46632   5.258   8.846   5.277 -0.0813 -0.2749 -1.0254
12555SOL    HW146633   5.231   8.938   5.275 -0.8944 -0.4802 -0.0667
12555SOL    HW246634   5.181   8.798   5.248  0.4336 -0.6514 -1.8024
12556SOL     OW46635  12.588  11.565   5.267  0.0505 -0.4422  0.7825
12556SOL    HW146636  12.569  11.472   5.255 -0.9380 -0.1297 -0.2979
12556SOL    HW246637  12.597  11.599   5.178  0.1839  0.5371  1.1583
12557SOL     OW46638   3.844   7.464   1.437  0.0249 -0.0001  0.0979
12557SOL    HW146639   3.781   7.438   1.504 -1.4785 -0.7337 -1.5124
12557SOL    HW246640   3.823   7.555   1.417  0.9786  0.4636  1.1243
12558SOL     OW46641   3.770   6.921   4.265 -0.7989 -0.2998 -0.1759
12558SOL    HW146642   3.810   6.887   4.345 -1.2914 -1.1647 -0.2827
12558SOL    HW246643   3.744   7.011   4.288  1.9458  0.6482 -0.3823
12559SOL     OW46644   5.034  11.309   4.914 -0.7085 -0.0391  0.5286
12559SOL    HW146645   5.001  11.398   4.925  0.5045  0.5203 -0.1527
12559SOL    HW246646   5.129  11.319   4.912 -0.5726 -1.2624 -0.2462
12560SOL     OW46647   5.709   8.251  12.058 -0.1210 -0.2434  0.0482
12560SOL    HW146648   5.734   8.176  12.003 -2.3766  0.0524 -1.4975
12560SOL    HW246649   5.712   8.216  12.148 -0.9228 -2.1613 -0.6128
12561SOL     OW46650   5.419   6.174   2.486  0.0856 -0.1760 -0.0965
12561SOL    HW146651   5.354   6.175   2.556  1.2486 -1.5558  1.0719
12561SOL    HW246652   5.411   6.259   2.444 -0.5396  0.7673  1.8356
12562SOL     OW46653   2.292  10.246   0.869 -0.0293 -0.1352  0.0912
12562SOL    HW146654   2.243  10.164   0.873  0.7043 -0.5689  0.2850
12562SOL    HW246655   2.376  10.227   0.911  0.1496  0.7160  0.1472
12563SOL     OW46656   3.851   3.362   2.074  0.1895  0.3960  0.1512
12563SOL    HW146657   3.809   3.412   2.143 -0.6674  0.1154 -0.1538
12563SOL    HW246658   3.931   3.329   2.114  0.1482  0.9716  0.7310
12564SOL     OW46659  10.299   1.240   1.701 -0.0707  0.2486 -0.5537
12564SOL    HW146660  10.283   1.151   1.732  1.5586  0.4426  1.0204
12564SOL    HW246661  10.212   1.275   1.683 -0.7344 -1.7727 -1.6486
12565SOL     OW46662  10.448   7.695  10.428  0.5871  0.3872 -0.3435
12565SOL    HW146663  10.413   7.695  10.517  0.9575 -0.0107 -0.1957
12565SOL    HW246664  10.444   7.604  10.400 -0.7235  0.6679 -1.2230
12566SOL     OW46665   6.171   8.461  12.228 -0.2733 -0.0594 -0.1401
12566SOL    HW146666   6.191   8.401  12.156 -0.0101  1.5017 -1.4331
12566SOL    HW246667   6.256   8.491  12.258 -0.4143  0.0361  0.1654
12567SOL     OW46668   7.964   9.576   0.298  0.1412 -0.0232  0.7601
12567SOL    HW146669   7.941   9.617   0.215 -0.1191 -2.6118 -0.5563
12567SOL    HW246670   7.880   9.555   0.339  0.0998 -2.4713 -0.3767
12568SOL     OW46671   4.147   8.099   5.529 -0.4621 -0.2041 -0.4382
12568SOL    HW146672   4.164   8.182   5.575 -0.0888 -0.2951 -0.4123
12568SOL    HW246673   4.110   8.126   5.445 -1.9116 -0.0495  0.2060
12569SOL     OW46674   8.876   0.953  10.775 -0.1109  0.1173 -0.0529
12569SOL    HW146675   8.834   0.934  10.691  0.7657  1.0515 -0.7180
12569SOL    HW246676   8.955   0.899  10.775  1.4833  2.3219 -1.1942
12570SOL     OW46677  11.634   8.692  10.496 -0.7010 -0.0894 -0.5823
12570SOL    HW146678  11.699   8.720  10.560 -1.8350 -0.1932  0.6542
12570SOL    HW246679  11.646   8.752  10.422  0.4991  0.1619 -0.2122
12571SOL     OW46680   6.416   5.153  11.352 -0.6579  0.0493  0.0200
12571SOL    HW146681   6.394   5.110  11.269 -1.3672  0.6216 -0.0945
12571SOL    HW246682   6.496   5.109  11.381 -0.4620 -0.2385 -0.9106
12572SOL     OW46683   7.605   4.471   8.311 -0.1844 -0.0273  0.1555
12572SOL    HW146684   7.623   4.445   8.221 -1.6029  0.7177 -0.3699
12572SOL    HW246685   7.558   4.396   8.349 -4.8226  1.6785 -1.5409
12573SOL     OW46686  11.090   1.299   8.041 -1.1507  0.3311  0.0412
12573SOL    HW146687  11.168   1.346   8.070 -1.6723  1.1350  0.1803
12573SOL    HW246688  11.086   1.315   7.946 -1.1815  0.3434  0.0445
12574SOL     OW46689   5.653   2.833  12.344  0.2888  0.5515  0.6409
12574SOL    HW146690   5.591   2.803  12.411  0.3940 -0.9306  0.1057
12574SOL    HW246691   5.670   2.756  12.291 -1.3217  2.0876 -2.3546
12575SOL     OW46692   0.469   1.826   8.433  0.6203 -0.5555 -0.6810
12575SOL    HW146693   0.517   1.869   8.361 -0.2270  0.1932 -0.8228
12575SOL    HW246694   0.377   1.839   8.411  0.3429 -0.3249  0.5312
12576SOL     OW46695  12.360  10.664   9.359 -0.3794 -0.0884  0.0954
12576SOL    HW146696  12.343  10.737   9.300 -2.6576  1.7553  2.7305
12576SOL    HW246697  12.444  10.686   9.400  0.1216 -0.2298 -0.8444
12577SOL     OW46698   0.047   4.471   6.182 -0.5601  0.1029 -0.0736
12577SOL    HW146699   0.044   4.483   6.088  0.1854 -0.0171 -0.1161
12577SOL    HW246700   0.001   4.388   6.197  0.0520 -0.3059 -0.4182
12578SOL     OW46701   8.588   1.405  10.748 -0.3233 -0.2574 -0.2146
12578SOL    HW146702   8.678   1.385  10.721 -0.2693  0.3693 -0.5222
12578SOL    HW246703   8.579   1.362  10.833  0.1175 -0.7060 -0.3846
12579SOL     OW46704  12.293   9.236   7.085 -0.5305 -0.1242  0.0110
12579SOL    HW146705  12.287   9.167   7.019  2.0111  0.3895 -0.8581
12579SOL    HW246706  12.265   9.194   7.166 -1.4276 -1.4379 -0.9394
12580SOL     OW46707   0.248  11.277   7.540 -0.0177  0.5129  0.2458
12580SOL    HW146708   0.338  11.242   7.539  0.8206  2.5208  0.5497
12580SOL    HW246709   0.219  11.264   7.630  0.5461  1.1833  0.5342
12581SOL     OW46710   7.632   2.998   5.570 -0.3115  0.1945 -0.4639
12581SOL    HW146711   7.645   3.053   5.493  1.3291  3.7224  2.0763
12581SOL    HW246712   7.554   3.034   5.612  1.0584  1.0750  1.4943
12582SOL     OW46713   0.284   3.430   6.067  0.0634 -0.5283  0.1228
12582SOL    HW146714   0.190   3.440   6.082  0.4931  1.1429  2.0430
12582SOL    HW246715   0.310   3.357   6.123  0.1831  0.1741  1.0103
12583SOL     OW46716   4.758   2.600   2.227 -0.3040  0.3997 -0.6225
12583SOL    HW146717   4.804   2.587   2.310 -0.5529  2.4537 -0.1201
12583SOL    HW246718   4.775   2.692   2.204  0.2714 -0.2681 -3.1661
12584SOL     OW46719   0.930   0.702   3.659 -0.3175  0.6454  0.1781
12584SOL    HW146720   0.987   0.777   3.671  2.7764 -0.8976 -3.2318
12584SOL    HW246721   0.873   0.726   3.586 -0.5229  0.3190  0.2290
12585SOL     OW46722   1.533   6.401   4.846  0.4585  0.0581  0.3085
12585SOL    HW146723   1.503   6.381   4.935 -0.0650  1.7068  0.5295
12585SOL    HW246724   1.519   6.495   4.836 -0.0554 -0.1903 -1.7444
12586SOL     OW46725  10.877   6.476  11.036 -0.1462  0.3016 -0.1181
12586SOL    HW146726  10.853   6.460  11.127 -0.6470  0.3525 -0.2385
12586SOL    HW246727  10.805   6.440  10.985 -0.2361  0.9500 -0.4672
12587SOL     OW46728   0.731   8.560   5.834 -0.1219  0.1886 -0.2993
12587SOL    HW146729   0.639   8.579   5.816  0.2505  2.1129 -0.4789
12587SOL    HW246730   0.736   8.556   5.929 -0.5888 -1.1572 -0.3221
12588SOL     OW46731   8.915   6.515   1.767 -0.2823 -0.2602  0.1475
12588SOL    HW146732   8.837   6.472   1.734 -1.0294  1.7965 -0.9803
12588SOL    HW246733   8.883   6.595   1.808  1.2433  1.2241 -1.3718
12589SOL     OW46734   8.618   4.964   5.575  0.2310  0.4273  0.3641
12589SOL    HW146735   8.664   4.889   5.540 -1.3177 -0.0089 -0.8528
12589SOL    HW246736   8.686   5.018   5.615  1.7286 -0.2916 -1.1140
12590SOL     OW46737   4.828   3.779   6.137  0.0970 -0.1709 -0.4644
12590SOL    HW146738   4.876   3.825   6.068 -0.2827  0.8870 -0.0471
12590SOL    HW246739   4.738   3.775   6.105 -0.4475  1.8210  0.6379
12591SOL     OW46740  11.493   4.969   2.079  0.4316  0.6404  0.6139
12591SOL    HW146741  11.575   4.932   2.112  0.5279  0.0286 -0.2719
12591SOL    HW246742  11.519   5.022   2.003 -0.1447 -1.0760 -0.8570
12592SOL     OW46743   3.755   8.572  11.105 -0.0725  0.7442 -0.0161
12592SOL    HW146744   3.813   8.647  11.088 -0.5401  1.1131 -0.0021
12592SOL    HW246745   3.731   8.581  11.198  0.5588  0.0806  0.2283
12593SOL     OW46746   0.333   2.181   7.213 -0.0477 -0.1302 -0.1365
12593SOL    HW146747   0.336   2.114   7.282  0.5243  0.1486  0.1135
12593SOL    HW246748   0.284   2.253   7.252  0.1453 -0.0325 -0.0742
12594SOL     OW46749   0.513   8.832   5.009 -0.6074  0.1593  0.4772
12594SOL    HW146750   0.523   8.891   5.084  0.5508  0.3496  0.2011
12594SOL    HW246751   0.603   8.804   4.989 -0.8996  0.0621 -0.7933
12595SOL     OW46752   8.190   2.373  10.369 -0.7111 -0.2934  0.3447
12595SOL    HW146753   8.128   2.315  10.324  0.1786 -1.2465  0.3141
12595SOL    HW246754   8.186   2.455  10.319 -1.9799 -0.3032  0.3829
12596SOL     OW46755   5.012   9.880  12.437 -0.8626  0.2377 -0.2101
12596SOL    HW146756   5.008   9.856  12.344  0.3114 -0.1154 -0.1909
12596SOL    HW246757   5.097   9.923  12.446 -0.9447  0.2177  0.7145
12597SOL     OW46758   6.043   2.724   7.754 -0.2911 -0.0234  0.5803
12597SOL    HW146759   6.031   2.694   7.844  0.2389 -2.5167 -0.0994
12597SOL    HW246760   5.971   2.684   7.706 -0.1214  0.6406 -0.2517
12598SOL     OW46761  11.151   8.539  10.281  0.0873 -0.3192 -0.4767
12598SOL    HW146762  11.149   8.613  10.342  2.3613 -0.6210  0.0648
12598SOL    HW246763  11.219   8.481  10.316 -2.2195 -3.1970 -0.3388
12599SOL     OW46764   3.097   6.507   5.515 -0.1786 -0.2615  0.5115
12599SOL    HW146765   3.180   6.459   5.518 -0.0368 -0.2930 -1.9991
12599SOL    HW246766   3.104   6.562   5.437 -2.4491 -0.1356  0.3359
12600SOL     OW46767   3.631   7.987   1.199  0.3941 -0.4165 -0.9622
12600SOL    HW146768   3.654   8.051   1.266 -0.6514 -0.8563 -0.1595
12600SOL    HW246769   3.565   8.032   1.146  0.7606 -0.2965 -1.3205
12601SOL     OW46770   0.393   2.121   8.666 -0.9093  0.0535 -0.1792
12601SOL    HW146771   0.470   2.170   8.694 -1.6191  1.6927 -0.9615
12601SOL    HW246772   0.416   2.029   8.681  0.5593  0.5888  1.1271
12602SOL     OW46773  11.982   6.418   6.112  0.1244 -0.4971  0.3097
12602SOL    HW146774  11.958   6.329   6.138 -1.0409 -0.0682  0.7537
12602SOL    HW246775  11.925   6.475   6.164 -0.3213  0.4694 -1.1567
12603SOL     OW46776   3.367   5.084  10.087  0.5035 -0.0065 -0.0047
12603SOL    HW146777   3.401   5.173  10.077 -0.3986  0.2030 -1.7405
12603SOL    HW246778   3.274   5.091  10.064  0.3395 -1.3318  0.1582
12604SOL     OW46779   6.457  11.281   2.821  0.3404 -0.0723  0.5183
12604SOL    HW146780   6.508  11.208   2.785 -1.5050 -0.5746 -1.2788
12604SOL    HW246781   6.456  11.346   2.751 -0.1076  0.6127  1.1542
12605SOL     OW46782   1.587   9.458   3.210  0.5583  0.2340  0.1040
12605SOL    HW146783   1.658   9.513   3.244 -0.4865  1.1034  0.9508
12605SOL    HW246784   1.542   9.514   3.146  0.6994 -0.3505 -0.5093
12606SOL     OW46785   7.916   3.777   3.243  0.0479  0.3167 -0.4585
12606SOL    HW146786   7.876   3.832   3.176 -0.8205  0.9699  0.5632
12606SOL    HW246787   7.909   3.828   3.324  1.1532 -0.4137  0.1280
12607SOL     OW46788   8.614  10.375  12.049  0.5426  0.9691  0.2145
12607SOL    HW146789   8.562  10.326  12.113 -0.1271  0.7609 -0.4767
12607SOL    HW246790   8.633  10.458  12.092  0.6509  0.5824  0.9319
12608SOL     OW46791   0.775   2.202   8.311  0.3022 -0.2868 -0.1950
12608SOL    HW146792   0.852   2.174   8.360 -0.1480 -3.8314 -1.2280
12608SOL    HW246793   0.803   2.280   8.264  1.7091  1.3693  3.0532
12609SOL     OW46794   9.387   7.017   3.233  0.1884  0.5393 -0.3977
12609SOL    HW146795   9.366   6.964   3.310 -0.7555  1.5594  0.0756
12609SOL    HW246796   9.317   6.998   3.171  0.2108  0.7283 -0.4803
12610SOL     OW46797   1.517   7.724   5.926  0.0222 -0.1800  0.1404
12610SOL    HW146798   1.528   7.658   5.858 -1.3837  0.5241 -0.8446
12610SOL    HW246799   1.589   7.786   5.912  0.3466 -0.5921 -0.0305
12611SOL     OW46800   1.455   8.913  10.216 -0.0911  0.9331  0.3574
12611SOL    HW146801   1.518   8.866  10.271 -0.6682 -0.0541  0.2058
12611SOL    HW246802   1.376   8.918  10.270 -0.4850  0.4531 -0.1601
12612SOL     OW46803  11.555   6.045   1.525 -0.0334  0.0252  0.1254
12612SOL    HW146804  11.620   6.004   1.582  0.9877  1.7196  0.2453
12612SOL    HW246805  11.474   6.043   1.576  0.6994  0.8617  1.3705
12613SOL     OW46806  11.812   1.475  10.691 -0.4229  0.9182 -0.6244
12613SOL    HW146807  11.807   1.530  10.613 -0.1235  2.5806  0.4816
12613SOL    HW246808  11.846   1.533  10.759  1.5218 -1.0723  0.2201
12614SOL     OW46809   5.195   1.165   7.712 -0.1425  0.1555 -0.1591
12614SOL    HW146810   5.242   1.137   7.633  0.8019  0.5259  0.2468
12614SOL    HW246811   5.230   1.110   7.782 -0.3460  0.4047  0.1434
12615SOL     OW46812   1.649   5.587   3.359  0.1130 -0.3947 -0.2809
12615SOL    HW146813   1.721   5.625   3.308 -0.2617 -1.4616 -1.6815
12615SOL    HW246814   1.688   5.512   3.403  0.2779  0.1417  0.5180
12616SOL     OW46815   4.766   0.916   8.280  0.2541 -0.5501  0.3028
12616SOL    HW146816   4.805   0.871   8.205  0.8873 -1.1707  0.9849
12616SOL    HW246817   4.840   0.938   8.336 -0.3951 -2.6972  2.1407
12617SOL     OW46818   2.839   4.732   3.322 -0.3140  0.2368  0.0502
12617SOL    HW146819   2.900   4.790   3.275 -1.4371  0.8403 -0.7098
12617SOL    HW246820   2.896   4.672   3.370  0.9272 -0.4685 -2.1571
12618SOL     OW46821  11.614   8.003   7.216 -0.2737  0.0741 -0.3957
12618SOL    HW146822  11.687   8.062   7.237 -0.4525  0.5533 -1.0766
12618SOL    HW246823  11.536   8.059   7.219 -0.4411 -0.1136 -1.0877
12619SOL     OW46824   6.660  12.111   2.052 -0.1143 -0.6418 -0.0223
12619SOL    HW146825   6.719  12.149   1.987  0.3866  0.4233  1.0282
12619SOL    HW246826   6.662  12.017   2.034  1.8468 -0.6218 -0.0684
12620SOL     OW46827  10.712   6.375  10.231  0.1459  0.2289  0.1559
12620SOL    HW146828  10.671   6.462  10.232  2.0115  1.1789 -0.2551
12620SOL    HW246829  10.779   6.380  10.300 -0.2537 -1.1802  0.6760
12621SOL     OW46830   2.651   6.723   4.974  0.0284  0.5204 -0.0457
12621SOL    HW146831   2.696   6.739   4.891  2.3604  1.3329  1.2828
12621SOL    HW246832   2.683   6.637   5.002 -2.5626 -0.8497 -1.0370
12622SOL     OW46833   1.832   1.555   6.946  0.7843 -0.1130  0.4580
12622SOL    HW146834   1.809   1.494   7.017 -1.7575  1.8072  1.4409
12622SOL    HW246835   1.865   1.632   6.991 -2.9417  2.0319 -0.0846
12623SOL     OW46836   0.376  12.415   2.583  0.0686 -0.7233  0.6630
12623SOL    HW146837   0.460  12.371   2.599 -0.1530 -0.6848  2.0636
12623SOL    HW246838   0.321  12.389   2.657 -1.6271 -1.8220 -0.9063
12624SOL     OW46839   7.402  10.052   4.224  0.9924  0.7421 -0.4720
12624SOL    HW146840   7.366  10.113   4.159 -0.3249  0.6092  0.1104
12624SOL    HW246841   7.334  10.046   4.291  0.4930 -2.3232 -1.1082
12625SOL     OW46842  11.598   9.431  11.997 -0.1260 -0.6004  0.3108
12625SOL    HW146843  11.559   9.384  11.924  0.4803  0.1458 -0.5149
12625SOL    HW246844  11.554   9.516  11.996  1.4094  0.2225 -0.5815
12626SOL     OW46845   8.654   9.826   5.552  0.0920  0.0685 -0.2631
12626SOL    HW146846   8.606   9.748   5.527 -0.3171  0.7747 -1.8203
12626SOL    HW246847   8.615   9.896   5.500  0.1594  1.4033  1.4087
12627SOL     OW46848   3.092   7.105  11.343  0.2076  0.0735  0.6305
12627SOL    HW146849   3.143   7.155  11.279  1.9818 -0.2341  1.7113
12627SOL    HW246850   3.089   7.162  11.420 -1.0219  0.0329  0.6248
12628SOL     OW46851  10.992   5.462   6.268 -0.1627 -0.4127  0.0218
12628SOL    HW146852  11.013   5.528   6.202  0.0310  0.3158  0.8005
12628SOL    HW246853  11.036   5.492   6.347  0.8451 -2.0480  0.1302
12629SOL     OW46854  11.661   2.238   1.327  0.7142 -0.0259 -0.5615
12629SOL    HW146855  11.591   2.224   1.264 -1.6470 -0.9766  2.0394
12629SOL    HW246856  11.675   2.332   1.328 -0.2923  0.1395 -1.3918
12630SOL     OW46857   4.364   9.826   0.305  0.0307 -0.0556  0.3499
12630SOL    HW146858   4.350   9.731   0.314 -0.2692 -0.0237  0.2397
12630SOL    HW246859   4.443   9.833   0.251  0.6416 -0.2389  1.2052
12631SOL     OW46860   7.556   9.449  10.960 -0.4322  1.1767 -0.2266
12631SOL    HW146861   7.576   9.496  11.041 -0.6946  1.4318 -0.3118
12631SOL    HW246862   7.542   9.517  10.895  0.9837  0.9682 -0.7861
12632SOL     OW46863   0.605   7.782   2.373 -0.4065 -0.1115  0.1660
12632SOL    HW146864   0.641   7.715   2.432 -0.0612 -1.2765 -1.3138
12632SOL    HW246865   0.648   7.863   2.400 -0.0272 -0.6659  1.3118
12633SOL     OW46866   6.243   4.718   1.096 -0.4581  0.3143  0.3075
12633SOL    HW146867   6.198   4.636   1.078 -0.6887  0.0432  1.9470
12633SOL    HW246868   6.334   4.702   1.071 -0.6645 -0.1484 -0.1584
12634SOL     OW46869  12.325  10.470  11.654  0.1891  0.2199 -0.0552
12634SOL    HW146870  12.276  10.389  11.638 -1.2011  0.9946  0.1182
12634SOL    HW246871  12.400  10.442  11.707 -1.1091 -0.7712  1.3740
12635SOL     OW46872   2.719   8.400   0.431  0.0969  0.6627 -0.6697
12635SOL    HW146873   2.673   8.435   0.355  1.1479  0.9587 -1.1892
12635SOL    HW246874   2.811   8.397   0.404  0.6897  2.0522  1.0663
12636SOL     OW46875   8.236   4.267  12.363 -0.1021  0.2672  0.2493
12636SOL    HW146876   8.322   4.308  12.364 -0.4721  1.0553  0.4507
12636SOL    HW246877   8.220   4.242  12.454  0.5799 -1.3212 -0.0481
12637SOL     OW46878   2.896   7.218   5.581  0.4282  0.6829 -0.7223
12637SOL    HW146879   2.820   7.211   5.524 -0.1193  1.0272 -0.0409
12637SOL    HW246880   2.877   7.291   5.640  0.6968 -0.0448  0.3129
12638SOL     OW46881   0.540   6.089   6.073  0.0926  0.4438 -0.0172
12638SOL    HW146882   0.624   6.123   6.104  0.5888 -0.0635 -0.7792
12638SOL    HW246883   0.504   6.043   6.149  0.0195  1.5229  0.6268
12639SOL     OW46884  10.376   3.661  11.671  0.4490  0.2860 -0.4436
12639SOL    HW146885  10.389   3.679  11.578  2.6281  0.5448 -0.1334
12639SOL    HW246886  10.447   3.601  11.694  0.8038  1.3550  1.3729
12640SOL     OW46887  12.389   5.813  10.904 -0.0036 -0.2826 -0.0746
12640SOL    HW146888  12.359   5.722  10.895  0.6633 -0.9583  3.2373
12640SOL    HW246889  12.310   5.863  10.925  0.1895 -1.0393  2.8544
12641SOL     OW46890  10.992   1.070  11.624  0.0519  0.1598  0.3027
12641SOL    HW146891  11.065   1.106  11.573  1.7559 -1.2114  1.6565
12641SOL    HW246892  10.920   1.131  11.608  1.6253  1.8775 -0.7001
12642SOL     OW46893  11.247   2.781  12.465  0.4400 -0.7425  0.0096
12642SOL    HW146894  11.248   2.687  12.478  1.8848 -0.9051 -0.9824
12642SOL    HW246895  11.160   2.809  12.491 -0.1515 -2.4126 -0.1062
12643SOL     OW46896   2.294   0.442  12.482  0.6109  0.1012  0.3378
12643SOL    HW146897   2.385   0.415  12.473  0.4182 -0.3490 -0.3954
12643SOL    HW246898   2.245   0.360  12.489  0.1536  0.2907 -0.5073
12644SOL     OW46899   6.995   0.959   4.559 -0.2791  0.0143 -0.0855
12644SOL    HW146900   6.939   0.889   4.593  0.9654 -0.1263  1.8077
12644SOL    HW246901   6.985   1.030   4.622 -0.4662  1.0543 -1.2514
12645SOL     OW46902   4.290   8.490   4.088  0.0436 -0.2304 -0.4145
12645SOL    HW146903   4.352   8.464   4.020  0.1487 -1.8579  0.2584
12645SOL    HW246904   4.306   8.429   4.160  0.0613  1.5629  1.1732
12646SOL     OW46905   5.620   7.852   6.144 -0.1210 -0.7499  0.3800
12646SOL    HW146906   5.623   7.899   6.061 -0.0666 -1.6537 -0.1521
12646SOL    HW246907   5.711   7.849   6.173  0.1167 -1.8734 -0.3935
12647SOL     OW46908   5.688   8.781   1.447 -0.5749 -0.5000 -0.2847
12647SOL    HW146909   5.609   8.814   1.406 -0.7213 -1.5932 -0.9260
12647SOL    HW246910   5.657   8.709   1.503 -0.2241  0.1273  0.7348
12648SOL     OW46911  11.649   8.592   6.210  0.4163  0.6559  0.3850
12648SOL    HW146912  11.585   8.522   6.198  1.5943 -0.3457 -0.3693
12648SOL    HW246913  11.615   8.665   6.157  0.1535 -0.0358 -0.4208
12649SOL     OW46914   2.102   5.612   3.464  0.1236 -0.2426 -0.2306
12649SOL    HW146915   2.151   5.548   3.411  2.0747  0.3191  0.8420
12649SOL    HW246916   2.119   5.587   3.554 -3.2521 -1.2464  0.2841
12650SOL     OW46917   1.785  11.670  11.979  0.1042  0.4643 -0.1989
12650SOL    HW146918   1.853  11.731  12.007 -0.5702  0.6942  1.0190
12650SOL    HW246919   1.785  11.602  12.046 -1.7984  1.2181  0.6454
12651SOL     OW46920   2.142   4.504   8.623 -0.1584  0.0717  0.5244
12651SOL    HW146921   2.091   4.481   8.545 -0.1681 -0.9920  0.8288
12651SOL    HW246922   2.080   4.493   8.695  0.1791 -0.0998  0.7883
12652SOL     OW46923  10.273   7.903   6.831  0.0570 -0.1565  0.4223
12652SOL    HW146924  10.300   7.814   6.854  0.3310 -0.2822 -0.3783
12652SOL    HW246925  10.347   7.939   6.783 -0.2787  0.3102  0.2470
12653SOL     OW46926   6.537  12.246  11.819  0.1857  0.3252 -0.3762
12653SOL    HW146927   6.479  12.183  11.775  1.4136  0.4061 -2.1873
12653SOL    HW246928   6.479  12.318  11.845 -0.7295 -0.1662 -0.9972
12654SOL     OW46929   0.340   7.787   7.921  0.1551 -0.1334 -0.5059
12654SOL    HW146930   0.420   7.840   7.930 -0.5441  0.7973  0.5033
12654SOL    HW246931   0.270   7.847   7.946 -0.6722 -1.5662  0.7048
12655SOL     OW46932   2.101   8.914   6.941  0.1605  0.4593 -0.0268
12655SOL    HW146933   2.009   8.932   6.921 -0.5694 -0.3713  2.3255
12655SOL    HW246934   2.122   8.836   6.888  0.7520  2.7661 -3.4999
12656SOL     OW46935   6.591   6.770   1.572 -0.1995  0.7996 -0.3851
12656SOL    HW146936   6.615   6.784   1.664  2.0216 -2.7960 -0.1722
12656SOL    HW246937   6.617   6.850   1.527  1.9616  1.3691  1.6932
12657SOL     OW46938   7.942   9.323   5.800  0.0990 -0.3439 -0.1425
12657SOL    HW146939   7.913   9.305   5.711  0.6378 -3.1155  0.1563
12657SOL    HW246940   7.917   9.414   5.815  1.6594  0.8968 -3.7632
12658SOL     OW46941  12.001   2.680   5.013 -0.4573  0.0160  0.2516
12658SOL    HW146942  12.005   2.597   4.967 -1.3229  0.0152  0.1503
12658SOL    HW246943  11.993   2.746   4.943  2.3208  0.4045  0.2134
12659SOL     OW46944   0.893   1.078   9.131 -0.3861  0.3220 -0.0366
12659SOL    HW146945   0.851   1.072   9.217 -2.1899  0.2717 -0.8598
12659SOL    HW246946   0.859   1.002   9.083  1.9644 -0.6462 -0.2756
12660SOL     OW46947   4.164  10.780  11.402  0.2010 -1.1698  0.2822
12660SOL    HW146948   4.181  10.851  11.464 -0.1852 -0.9222  0.1109
12660SOL    HW246949   4.199  10.702  11.444 -1.3848 -1.2697  1.4940
12661SOL     OW46950   8.863   8.617   2.586 -0.5178 -0.4551 -0.3986
12661SOL    HW146951   8.770   8.611   2.609 -0.5763  0.2458 -0.4165
12661SOL    HW246952   8.895   8.692   2.637 -0.1784 -0.1188 -1.1009
12662SOL     OW46953   4.594   2.498   2.803  0.2214  0.4335 -0.8472
12662SOL    HW146954   4.595   2.497   2.707  1.7264  0.9077 -0.8743
12662SOL    HW246955   4.531   2.567   2.825  1.0513  1.4638 -1.5532
12663SOL     OW46956   1.261  12.187   3.677 -0.3785 -0.7070  0.2981
12663SOL    HW146957   1.179  12.165   3.634  0.4865 -1.3195 -1.0921
12663SOL    HW246958   1.272  12.118   3.743 -0.6412 -0.9932  0.0450
12664SOL     OW46959   6.957   2.407   6.960 -0.0284 -0.7850  0.3152
12664SOL    HW146960   6.974   2.328   7.012  0.6615 -0.4959  0.5475
12664SOL    HW246961   6.988   2.478   7.015 -1.3710 -0.2707  0.4361
12665SOL     OW46962   0.892   0.683   4.257  0.2732 -0.5611  0.1881
12665SOL    HW146963   0.863   0.661   4.169 -1.5210 -0.2133  0.6324
12665SOL    HW246964   0.984   0.707   4.248 -0.0750  0.2074 -1.7180
12666SOL     OW46965   6.360   2.803   5.420  1.3768 -0.0423  0.4193
12666SOL    HW146966   6.448   2.773   5.399  2.4261  4.1015 -2.5592
12666SOL    HW246967   6.373   2.890   5.458 -1.4211  0.5066  0.3387
12667SOL     OW46968   9.698  10.770  12.003 -0.3221  0.2135 -0.6074
12667SOL    HW146969   9.690  10.688  12.051 -0.3694 -0.4196 -1.6713
12667SOL    HW246970   9.717  10.743  11.913  0.6177  1.3829 -0.7836
12668SOL     OW46971   7.753   4.811   7.627 -0.2463  0.2380  0.1009
12668SOL    HW146972   7.832   4.861   7.611  0.7632 -0.8904  1.2876
12668SOL    HW246973   7.783   4.734   7.675 -1.9418 -0.7162 -0.2903
12669SOL     OW46974  12.499   8.840   2.583 -0.3773 -0.5114  0.6570
12669SOL    HW146975  12.472   8.928   2.554 -3.4962 -1.4457  0.3219
12669SOL    HW246976  12.592   8.849   2.604 -0.4862  2.7617  0.2705
12670SOL     OW46977   4.631  12.268   9.701  0.2296  0.3243  0.0654
12670SOL    HW146978   4.553  12.304   9.660 -0.3557 -1.0179 -0.0412
12670SOL    HW246979   4.681  12.345   9.729 -0.8316  1.2080 -0.4000
12671SOL     OW46980   3.853  11.890   3.930 -0.1423 -0.0083  0.5474
12671SOL    HW146981   3.935  11.848   3.905  0.0957  1.7333 -1.9325
12671SOL    HW246982   3.873  11.934   4.012  1.3345  0.1803  0.1210
12672SOL     OW46983   3.178   4.260  11.740 -0.1243  0.8320  0.0201
12672SOL    HW146984   3.272   4.271  11.724 -0.2568  2.3348  0.1504
12672SOL    HW246985   3.136   4.301  11.665 -0.6968 -0.2040 -0.2463
12673SOL     OW46986   1.285   1.984   3.730 -0.2551  0.1089 -0.2211
12673SOL    HW146987   1.249   1.963   3.644  1.0952  0.0868 -0.8000
12673SOL    HW246988   1.379   1.968   3.722  0.1792  1.9425  0.7019
12674SOL     OW46989   9.995   4.362   8.400  0.5875 -0.2012  0.4115
12674SOL    HW146990   9.949   4.426   8.347  0.2583 -0.7427  0.0406
12674SOL    HW246991  10.037   4.304   8.337  3.0106  1.0968  0.6832
12675SOL     OW46992  12.258   7.588   6.898  0.3434 -0.6977 -0.1186
12675SOL    HW146993  12.297   7.569   6.812  1.3424 -1.0248  0.4005
12675SOL    HW246994  12.170   7.620   6.877  1.2488  1.1377 -1.3964
12676SOL     OW46995   6.521   1.628   5.612 -0.5641 -0.3769  0.4736
12676SOL    HW146996   6.528   1.635   5.708  0.3110 -1.8656  0.5486
12676SOL    HW246997   6.501   1.717   5.583 -2.8594 -0.2438  2.1879
12677SOL     OW46998   3.448   0.709   4.856 -0.1363 -0.4859 -0.2126
12677SOL    HW146999   3.496   0.692   4.937  1.3727  1.4465 -0.6256
12677SOL    HW247000   3.360   0.733   4.885 -0.5274 -2.7144  0.6364
12678SOL     OW47001  11.478   2.369   1.857 -0.0793  0.4341 -0.0311
12678SOL    HW147002  11.514   2.349   1.944 -0.4285 -0.7683 -0.1425
12678SOL    HW247003  11.389   2.333   1.859  0.5106 -1.2739 -1.4688
12679SOL     OW47004  10.322  11.183   2.815  0.1247  0.0815 -0.1860
12679SOL    HW147005  10.357  11.145   2.896  0.2502  0.3922 -0.0886
12679SOL    HW247006  10.240  11.137   2.799 -0.7467  1.1258  1.0240
12680SOL     OW47007   5.289   5.220   4.616  0.3145 -0.2011  0.5302
12680SOL    HW147008   5.297   5.297   4.674  1.0252 -0.1563  0.3873
12680SOL    HW247009   5.202   5.227   4.578  0.0036  0.0087  1.2653
12681SOL     OW47010  12.026   7.257   8.204 -0.0358 -0.4455  0.4284
12681SOL    HW147011  12.096   7.200   8.174  1.1966  0.7859  0.8477
12681SOL    HW247012  11.983   7.287   8.124 -0.5274 -1.7152  0.1961
12682SOL     OW47013   2.247   1.092   6.898 -0.0487  0.2562  0.3406
12682SOL    HW147014   2.322   1.080   6.840 -0.1558 -0.0109  0.2571
12682SOL    HW247015   2.178   1.124   6.840 -0.4113 -0.8209  0.1509
12683SOL     OW47016  10.653   3.030   5.552  1.0354  0.0958  0.0028
12683SOL    HW147017  10.738   3.041   5.595  0.9337 -0.8261  0.4765
12683SOL    HW247018  10.591   3.077   5.609  1.0766 -0.1139  0.2208
12684SOL     OW47019   4.922  11.760   8.317  0.0869 -0.0423  0.2770
12684SOL    HW147020   4.856  11.761   8.247  1.2600 -0.8735 -0.8700
12684SOL    HW247021   4.878  11.716   8.390 -1.6091  1.9824  0.5977
12685SOL     OW47022   6.599  12.594   3.569 -0.4034  0.3437 -0.6721
12685SOL    HW147023   6.554  12.511   3.578 -1.9493  1.2710  0.7261
12685SOL    HW247024   6.533  12.660   3.590  1.6724  1.7629  2.0333
12686SOL     OW47025   1.067   0.134   3.408 -0.3092  0.5333 -0.0583
12686SOL    HW147026   1.036   0.210   3.458 -0.3191  0.1646  0.5107
12686SOL    HW247027   1.005   0.126   3.335 -0.8183  0.5604  0.3632
12687SOL     OW47028   8.536   1.586   5.296  0.1084 -0.5078  0.0596
12687SOL    HW147029   8.592   1.626   5.230 -0.8295  0.2222 -0.3162
12687SOL    HW247030   8.475   1.656   5.321 -2.0526 -1.8925 -1.1318
12688SOL     OW47031  11.510   2.782   9.722  0.2946 -0.3270  0.4544
12688SOL    HW147032  11.447   2.853   9.710  0.4028 -0.4112 -0.8159
12688SOL    HW247033  11.552   2.801   9.806 -0.0126  0.8483  0.3640
12689SOL     OW47034   5.046   3.555   9.405 -0.0692 -0.4970 -0.0371
12689SOL    HW147035   5.116   3.574   9.343  0.4386  2.5556  1.3116
12689SOL    HW247036   5.081   3.580   9.490 -2.5705  0.6415  0.7616
12690SOL     OW47037   0.377   6.582   8.985  0.0602 -0.7339 -0.3992
12690SOL    HW147038   0.453   6.589   8.928 -0.3666 -0.8511 -0.9860
12690SOL    HW247039   0.358   6.672   9.011  0.4133 -0.7068 -0.2229
12691SOL     OW47040   7.801   0.454   3.084 -0.2015  0.1565 -0.9288
12691SOL    HW147041   7.822   0.384   3.145 -3.3989  2.0052  2.7306
12691SOL    HW247042   7.876   0.514   3.091  0.9814 -1.1823 -1.5075
12692SOL     OW47043   6.313   5.188   2.410  0.0030  0.3170  0.3329
12692SOL    HW147044   6.224   5.169   2.440 -0.2531  2.6964  1.3034
12692SOL    HW247045   6.369   5.162   2.483  0.2610 -2.0141 -0.6155
12693SOL     OW47046   6.204  10.706   3.478 -0.3753 -0.4295  0.6147
12693SOL    HW147047   6.248  10.658   3.406 -1.2965  0.2730 -0.4502
12693SOL    HW247048   6.275  10.726   3.539  0.8680  0.7604 -1.0922
12694SOL     OW47049   9.243   0.970  11.285  0.2652  0.1339 -0.4548
12694SOL    HW147050   9.262   0.967  11.191  3.0721  1.0542  0.0099
12694SOL    HW247051   9.155   1.008  11.290 -1.0585 -2.2642 -2.7362
12695SOL     OW47052   6.499  12.553   0.949  0.1279 -0.3083 -0.3044
12695SOL    HW147053   6.484  12.471   0.996 -2.0211  0.5103  0.5461
12695SOL    HW247054   6.540  12.611   1.014 -0.9823  0.1769 -0.0168
12696SOL     OW47055   9.037   0.914  10.455 -0.5657 -0.2274 -0.0886
12696SOL    HW147056   9.034   1.009  10.452 -0.8756 -0.2642 -1.8224
12696SOL    HW247057   9.091   0.889  10.380 -0.9849 -1.4436 -0.0095
12697SOL     OW47058   6.720   7.140   7.646 -0.0490  0.3490  0.1217
12697SOL    HW147059   6.699   7.098   7.562 -0.4322 -0.6307  0.6956
12697SOL    HW247060   6.813   7.160   7.640  0.6252 -2.2879  0.5155
12698SOL     OW47061   2.305  11.569   2.111  0.0984  0.1625 -0.0837
12698SOL    HW147062   2.264  11.484   2.092  1.6133 -1.2025  2.1573
12698SOL    HW247063   2.247  11.609   2.176  0.0168  0.2594 -0.2176
12699SOL     OW47064  10.829   5.015   1.479 -0.3318 -0.0214 -0.0632
12699SOL    HW147065  10.855   5.083   1.417 -1.5571 -0.3056 -0.9386
12699SOL    HW247066  10.772   4.958   1.428 -0.0916 -1.1659  0.9200
12700SOL     OW47067   3.203   3.898   4.112 -0.3967  0.3570  0.2770
12700SOL    HW147068   3.275   3.842   4.083 -0.7921 -0.4558  0.8152
12700SOL    HW247069   3.132   3.880   4.050  0.0781  1.7366 -0.7273
12701SOL     OW47070  10.019  12.340  10.161 -0.2008  0.3490 -0.3734
12701SOL    HW147071  10.101  12.320  10.117  0.1737  1.3159 -0.1495
12701SOL    HW247072  10.035  12.424  10.205 -0.8818 -0.0906  0.7724
12702SOL     OW47073   9.726   1.150  12.171  0.8753 -0.4892 -0.1483
12702SOL    HW147074   9.672   1.212  12.220  2.3702  2.5212 -2.0218
12702SOL    HW247075   9.663   1.094  12.126 -0.5724  0.2631  0.8527
12703SOL     OW47076   0.413  12.204   8.350  0.4648 -0.1862  0.7334
12703SOL    HW147077   0.448  12.123   8.314  1.1399  0.6616 -0.6242
12703SOL    HW247078   0.487  12.244   8.396 -0.3120 -1.1151  2.9138
12704SOL     OW47079  11.280  10.550   9.830 -0.0336 -0.3525 -0.3162
12704SOL    HW147080  11.226  10.621   9.796  0.0978  0.0696  0.3501
12704SOL    HW247081  11.323  10.514   9.752  0.2123  0.5585 -0.6131
12705SOL     OW47082   9.510   3.186   4.582 -0.0567 -0.9864 -0.0523
12705SOL    HW147083   9.518   3.153   4.492  1.1170  1.3792 -0.8925
12705SOL    HW247084   9.529   3.110   4.637  0.6228 -2.1581 -1.8196
12706SOL     OW47085   6.273  10.874  12.248 -0.1217 -0.2428 -0.5110
12706SOL    HW147086   6.219  10.796  12.243  0.1434 -0.4978  0.4403
12706SOL    HW247087   6.241  10.921  12.325  0.2874  0.1540 -0.5734
12707SOL     OW47088  12.539   3.457   1.576  0.0838 -0.7207  0.4094
12707SOL    HW147089  12.562   3.386   1.636  1.3337 -2.1312 -1.6097
12707SOL    HW247090  12.620   3.507   1.566  0.0501 -0.8422 -0.5226
12708SOL     OW47091   6.146  11.003   3.061 -0.7422  0.0443  0.3258
12708SOL    HW147092   6.105  11.088   3.045 -1.2128  0.1558  1.9185
12708SOL    HW247093   6.178  10.975   2.976  0.7386  2.4993 -0.0355
12709SOL     OW47094   5.886   8.644   1.288  0.3469  0.2398 -0.1828
12709SOL    HW147095   5.843   8.690   1.359  0.2428 -0.9784  0.5819
12709SOL    HW247096   5.917   8.713   1.229  1.6133  1.3872  1.7057
12710SOL     OW47097  10.891   0.370  12.180 -0.3286 -0.0560 -0.2018
12710SOL    HW147098  10.968   0.319  12.203 -0.7412 -0.2832  0.7771
12710SOL    HW247099  10.840   0.313  12.123  0.5959  0.4076 -1.5244
12711SOL     OW47100  11.025   8.412   5.608 -0.4450 -0.0952 -0.0723
12711SOL    HW147101  10.945   8.459   5.633 -0.9120 -0.6981 -0.3683
12711SOL    HW247102  11.032   8.426   5.514 -0.5715 -0.5680 -0.1591
12712SOL     OW47103   6.239   1.433   4.573 -0.0110 -0.1196  0.0923
12712SOL    HW147104   6.147   1.414   4.591  0.1100  1.6459  3.2350
12712SOL    HW247105   6.256   1.389   4.490 -3.5613 -0.8296 -0.4373
12713SOL     OW47106   8.813   4.430   5.141 -0.6397  0.1509  0.3428
12713SOL    HW147107   8.746   4.369   5.172  1.1170 -2.4660 -0.6244
12713SOL    HW247108   8.776   4.468   5.062 -1.4758 -0.2770  0.5212
12714SOL     OW47109   7.942   6.170   2.877  0.1944  0.8337 -0.5472
12714SOL    HW147110   8.015   6.230   2.879  0.0260  1.0374 -0.4902
12714SOL    HW247111   7.978   6.087   2.909  0.3226  1.0146 -0.2255
12715SOL     OW47112   0.041   8.082   3.552 -0.0038  0.0035 -0.1437
12715SOL    HW147113   0.105   8.130   3.605 -0.1633 -0.3354  0.3701
12715SOL    HW247114   0.094   8.032   3.490  0.2010  0.1954 -0.1240
12716SOL     OW47115   4.164   3.870   4.427  0.0010 -0.1572 -0.2772
12716SOL    HW147116   4.108   3.948   4.432 -0.0078 -0.2072  0.7488
12716SOL    HW247117   4.112   3.801   4.467  0.1871 -0.5865 -0.7733
12717SOL     OW47118   7.939  10.475  10.170 -0.2527  0.2421 -0.7763
12717SOL    HW147119   7.901  10.562  10.181  2.1550  1.2758  0.1495
12717SOL    HW247120   7.913  10.428  10.249 -2.5124 -0.3414 -1.7940
12718SOL     OW47121   1.508   7.846  12.345  0.1534 -0.5021  0.4931
12718SOL    HW147122   1.436   7.905  12.322  0.4379 -0.2208  0.3095
12718SOL    HW247123   1.526   7.798  12.264 -0.2794 -1.0636  0.7249
12719SOL     OW47124   3.867   6.783   3.940  0.5525 -0.5058 -0.5363
12719SOL    HW147125   3.777   6.765   3.916  0.2605  0.1971 -0.0155
12719SOL    HW247126   3.916   6.777   3.857 -0.1390  0.1029 -1.0055
12720SOL     OW47127  12.518   5.520   3.446  0.3733 -0.3460 -0.3133
12720SOL    HW147128  12.436   5.491   3.406 -0.1318 -1.3435  1.3643
12720SOL    HW247129  12.586   5.486   3.388 -0.3690 -0.4792 -1.1184
12721SOL     OW47130   0.874  11.541   0.340 -0.1393  0.1464 -0.4521
12721SOL    HW147131   0.803  11.482   0.364 -1.2396  1.4542 -0.3429
12721SOL    HW247132   0.848  11.578   0.255  0.7319  0.1785 -0.7256
12722SOL     OW47133  11.109   7.761   1.298  0.4600 -0.0578  0.1978
12722SOL    HW147134  11.162   7.732   1.371 -1.9854 -0.5523  1.9108
12722SOL    HW247135  11.125   7.697   1.229  1.0878 -0.9217  1.1319
12723SOL     OW47136   3.907  11.095   8.329  0.4103 -0.4461  0.0290
12723SOL    HW147137   3.866  11.016   8.364  0.1858 -0.0295  0.7143
12723SOL    HW247138   4.000  11.072   8.320  0.7417 -0.1562  2.1899
12724SOL     OW47139   5.464   5.775   7.404 -0.6327 -0.3014  0.2526
12724SOL    HW147140   5.524   5.847   7.384 -3.5546  2.3950  0.2217
12724SOL    HW247141   5.483   5.752   7.495  0.5250  0.3491  0.1952
12725SOL     OW47142  11.510   4.407   2.549 -0.4666 -0.3638 -0.3955
12725SOL    HW147143  11.539   4.325   2.591 -0.0295 -0.4138 -0.7851
12725SOL    HW247144  11.522   4.473   2.616 -0.7908 -0.6167 -0.0863
12726SOL     OW47145   3.136   5.748   8.545 -0.0646 -0.1162 -0.0022
12726SOL    HW147146   3.199   5.734   8.616 -0.2987  0.8999  0.4245
12726SOL    HW247147   3.171   5.823   8.497 -1.4204  1.0780  0.8132
12727SOL     OW47148   8.115   6.671   8.154 -0.9216  0.1825  0.0236
12727SOL    HW147149   8.128   6.762   8.129  1.7439  0.0022  0.5075
12727SOL    HW247150   8.129   6.669   8.248 -0.6193 -0.7793 -0.0288
12728SOL     OW47151   7.715  11.127   9.063 -1.2034  0.7013  0.4787
12728SOL    HW147152   7.761  11.123   9.147  0.4003 -0.5204 -0.3998
12728SOL    HW247153   7.702  11.035   9.038 -1.3818  1.0337 -0.7360
12729SOL     OW47154   3.887   6.176   1.150 -0.3560 -0.1571 -0.4492
12729SOL    HW147155   3.942   6.242   1.192  0.1125 -1.8891  1.8481
12729SOL    HW247156   3.948   6.107   1.123 -1.1460 -1.1757  0.2902
12730SOL     OW47157   1.251   4.108  11.621 -0.0898  0.0768  0.0252
12730SOL    HW147158   1.283   4.061  11.544  0.7171  0.2563  0.2398
12730SOL    HW247159   1.186   4.050  11.660 -1.3078  0.4180 -1.3716
12731SOL     OW47160  10.711   7.142   9.600  0.5524 -0.5621 -1.0717
12731SOL    HW147161  10.745   7.055   9.619 -0.7477 -0.9179 -0.2282
12731SOL    HW247162  10.756   7.199   9.663 -0.3984 -1.0319  0.0738
12732SOL     OW47163   7.490  10.023  10.513  0.1338 -0.2977 -0.2887
12732SOL    HW147164   7.491   9.949  10.452  1.0488 -1.2380  0.8220
12732SOL    HW247165   7.410  10.011  10.563  1.1047 -1.5434  1.0327
12733SOL     OW47166   4.062   6.192   7.758  0.0762  0.0100 -0.0825
12733SOL    HW147167   4.142   6.187   7.809 -0.1201 -0.4525  0.1864
12733SOL    HW247168   4.090   6.179   7.667  0.2159 -0.9299  0.0906
12734SOL     OW47169   4.983   2.919   4.150 -0.7966  0.0825  0.3016
12734SOL    HW147170   4.971   2.853   4.082  0.1281 -1.0094  1.1450
12734SOL    HW247171   5.076   2.913   4.173 -1.1619  0.1134  1.9191
12735SOL     OW47172   0.932   6.367  12.428  0.1263 -0.0010 -0.2803
12735SOL    HW147173   0.866   6.379  12.497 -0.1808  0.5100 -0.6582
12735SOL    HW247174   0.897   6.296  12.375  1.3723 -1.8844  1.2721
12736SOL     OW47175   7.106   6.874  10.332 -0.0572 -0.1949 -0.2656
12736SOL    HW147176   7.077   6.832  10.413 -0.6042  2.4190  1.0087
12736SOL    HW247177   7.065   6.824  10.262 -1.1092 -1.3971  1.1660
12737SOL     OW47178   1.581  10.892   4.844 -0.6419 -0.0230  0.1877
12737SOL    HW147179   1.547  10.887   4.934 -3.1927  1.3902 -0.5947
12737SOL    HW247180   1.564  10.806   4.807 -1.5039  0.0226  0.4528
12738SOL     OW47181   3.881   1.607   4.608  0.1305 -0.5835  0.3471
12738SOL    HW147182   3.804   1.615   4.665  0.0683 -0.3646  0.2317
12738SOL    HW247183   3.845   1.581   4.523  0.3446 -2.4768  0.7855
12739SOL     OW47184   5.173   2.992  10.280 -0.6245 -0.2097 -0.1532
12739SOL    HW147185   5.156   2.905  10.319 -0.2694  0.1744  0.9083
12739SOL    HW247186   5.088   3.035  10.281 -0.4919  0.0700  0.9534
12740SOL     OW47187  11.768   4.624   2.307 -0.0818 -0.1546 -0.0935
12740SOL    HW147188  11.806   4.580   2.231  1.1574 -0.0635  0.4569
12740SOL    HW247189  11.766   4.717   2.282 -0.6992 -0.2492 -0.4238
12741SOL     OW47190   9.609   5.428   7.694  0.1512 -0.1015  0.1619
12741SOL    HW147191   9.568   5.364   7.636 -0.7843  0.9286 -0.3504
12741SOL    HW247192   9.647   5.375   7.764 -3.5831 -1.0855  1.6819
12742SOL     OW47193   5.195   5.375   7.327 -0.4999 -0.0154  0.8842
12742SOL    HW147194   5.260   5.439   7.299  0.6520 -0.8834  1.5174
12742SOL    HW247195   5.236   5.329   7.400 -1.7788 -0.6694  1.2187
12743SOL     OW47196  10.197   7.951   6.447 -0.1152 -0.3617 -0.4331
12743SOL    HW147197  10.143   8.022   6.413 -0.2338  0.1272  0.7086
12743SOL    HW247198  10.235   7.910   6.370 -0.6155  0.4877 -1.1498
12744SOL     OW47199   6.509   6.321   3.004 -0.2365  0.1792  0.1314
12744SOL    HW147200   6.567   6.389   3.038 -0.9348  0.7041  0.2948
12744SOL    HW247201   6.526   6.320   2.910 -0.5800  0.9254  0.0603
12745SOL     OW47202   5.421  10.472   5.528  0.3093 -0.8025 -0.4174
12745SOL    HW147203   5.476  10.448   5.453  1.4866 -1.2653  0.5640
12745SOL    HW247204   5.371  10.392   5.547  1.7368 -1.4620  0.7278
12746SOL     OW47205   6.693  10.752   0.427  0.5920  0.3135 -0.3744
12746SOL    HW147206   6.606  10.766   0.390  0.2467 -0.8734 -0.0632
12746SOL    HW247207   6.753  10.785   0.360 -0.0631 -0.2319 -1.2629
12747SOL     OW47208   8.228   5.002   8.151  0.7423 -0.0927  0.1569
12747SOL    HW147209   8.295   4.962   8.206 -0.1443 -1.1392  0.5274
12747SOL    HW247210   8.146   4.983   8.197  0.0869  0.0948 -0.9006
12748SOL     OW47211   3.290   8.509   2.078  0.2316  0.0849 -0.3251
12748SOL    HW147212   3.339   8.581   2.038  0.9171  0.8448  1.7452
12748SOL    HW247213   3.203   8.515   2.039  0.4709  1.6374 -0.6872
12749SOL     OW47214  10.399   6.495   7.261 -0.3164  0.1998  0.0383
12749SOL    HW147215  10.461   6.455   7.323 -0.8973  0.6572  0.9451
12749SOL    HW247216  10.393   6.587   7.289 -2.3356 -0.1011  0.7960
12750SOL     OW47217   0.027   5.490   9.842  0.0284  0.3681 -0.2755
12750SOL    HW147218   0.045   5.472   9.935  0.3190  1.7756 -0.0356
12750SOL    HW247219  -0.067   5.507   9.839 -0.1991 -0.8597 -0.4583
12751SOL     OW47220   7.530   9.614   5.093  0.1305  0.0190  0.1633
12751SOL    HW147221   7.598   9.668   5.054  0.9764 -0.2348  1.2530
12751SOL    HW247222   7.453   9.631   5.039  0.9933  0.4612 -0.9683
12752SOL     OW47223   9.036  11.460   3.444 -0.1779  0.1410 -0.3391
12752SOL    HW147224   9.046  11.444   3.350  0.7871  0.4699 -0.3009
12752SOL    HW247225   9.121  11.438   3.481  1.3161  5.1087 -0.2381
12753SOL     OW47226   2.798  10.156   9.145  0.2181 -0.0831 -0.3268
12753SOL    HW147227   2.738  10.085   9.169 -0.1621  0.4159  0.2317
12753SOL    HW247228   2.869  10.150   9.208 -0.8524  1.3184  1.0938
12754SOL     OW47229   0.319  12.370   1.973 -0.0307  1.2518 -0.0995
12754SOL    HW147230   0.285  12.412   2.052 -1.7704  0.7546 -0.5492
12754SOL    HW247231   0.345  12.283   2.003 -0.7263  1.0483 -0.0759
12755SOL     OW47232   6.136   3.053   1.931 -0.0297  0.3845 -0.4881
12755SOL    HW147233   6.190   3.034   1.854  2.2549  0.8076  0.9432
12755SOL    HW247234   6.162   3.140   1.958 -1.2438  0.4870  0.4508
12756SOL     OW47235   4.444   7.326   4.128 -0.2536  0.2944 -0.1862
12756SOL    HW147236   4.518   7.337   4.187 -2.1355 -1.0114  2.6737
12756SOL    HW247237   4.459   7.241   4.086 -0.2215 -0.1086  0.6115
12757SOL     OW47238  11.048   4.005   6.533  0.3474 -0.2958 -0.0254
12757SOL    HW147239  10.954   3.992   6.547  0.4752 -1.5129 -0.2330
12757SOL    HW247240  11.088   3.987   6.618  0.3288  1.1980  0.3308
12758SOL     OW47241   4.350  12.096   2.278  0.4793  0.4733  0.3825
12758SOL    HW147242   4.309  12.020   2.320 -0.9707  1.7461  1.4042
12758SOL    HW247243   4.276  12.154   2.257  1.4048  0.9750 -1.7312
12759SOL     OW47244   6.117   8.825   5.969 -0.1143 -0.2018 -0.6553
12759SOL    HW147245   6.064   8.788   6.039 -0.2849 -1.0219 -1.2081
12759SOL    HW247246   6.198   8.853   6.012 -0.4435 -0.1754 -0.0423
12760SOL     OW47247   2.120   4.074   7.581 -0.6387  0.6788  0.5535
12760SOL    HW147248   2.108   4.004   7.517 -1.2661  0.1621  1.2180
12760SOL    HW247249   2.114   4.155   7.530 -1.3035  0.2791 -0.0167
12761SOL     OW47250   4.348   9.402   5.905 -0.3337 -0.0672  0.2851
12761SOL    HW147251   4.430   9.437   5.870 -1.0356  2.3958  0.9182
12761SOL    HW247252   4.370   9.372   5.994  0.0307 -0.1635  0.1626
12762SOL     OW47253   7.883   9.863   2.888 -0.3129 -0.3783  0.2505
12762SOL    HW147254   7.799   9.909   2.884  0.1541  0.4299 -0.8154
12762SOL    HW247255   7.859   9.770   2.894 -1.2977 -0.2368 -1.0305
12763SOL     OW47256   5.733   4.905   3.246  0.0556 -0.6986  0.3915
12763SOL    HW147257   5.725   4.810   3.251 -1.9250 -0.6995 -1.1742
12763SOL    HW247258   5.648   4.938   3.275  0.6209  0.5966  0.6527
12764SOL     OW47259  11.469  10.220   2.849  0.1047 -0.0503 -0.0742
12764SOL    HW147260  11.374  10.216   2.865  0.5362 -3.3987  2.5557
12764SOL    HW247261  11.479  10.182   2.762 -0.9920  1.6389 -1.0052
12765SOL     OW47262   1.725   9.051  10.292  0.7669  0.5664 -0.3532
12765SOL    HW147263   1.692   9.015  10.209  1.5352 -0.6345 -0.1608
12765SOL    HW247264   1.785   9.121  10.265  0.3546  0.7683 -0.7756
12766SOL     OW47265   2.694   4.849  10.771 -0.4530 -0.6874 -0.4781
12766SOL    HW147266   2.779   4.891  10.775 -2.2805  3.5536 -0.7169
12766SOL    HW247267   2.680   4.834  10.677  0.3352 -2.2854 -0.3680
12767SOL     OW47268   0.824   9.948   0.460  0.6679  0.4090 -0.1907
12767SOL    HW147269   0.804  10.031   0.503  1.9407  0.7731 -0.2568
12767SOL    HW247270   0.769   9.947   0.382  0.3735  1.0179  0.0054
12768SOL     OW47271   8.304   4.128   7.440 -0.1280 -0.2959  0.0705
12768SOL    HW147272   8.370   4.109   7.507  0.3345 -2.0803 -0.8169
12768SOL    HW247273   8.355   4.138   7.359 -0.8564 -0.7344 -0.4519
12769SOL     OW47274  11.939   2.133   0.637 -0.4442 -0.5681  0.1747
12769SOL    HW147275  11.925   2.076   0.713 -1.1407 -1.0341 -0.3043
12769SOL    HW247276  11.908   2.083   0.562  0.0678 -0.0367 -0.4098
12770SOL     OW47277  10.773   4.745  10.328  0.0111 -0.7282  0.1756
12770SOL    HW147278  10.682   4.727  10.307 -1.1608  2.6233  1.7619
12770SOL    HW247279  10.777   4.744  10.424  0.8729  2.0198  0.2441
12771SOL     OW47280   1.372   7.954   7.449 -0.2549 -0.2442  0.3248
12771SOL    HW147281   1.318   7.983   7.523 -1.7909 -2.7495  0.2722
12771SOL    HW247282   1.309   7.935   7.380  0.7931 -2.0405 -0.1669
12772SOL     OW47283   2.864   1.864   9.041 -0.2660  0.3653 -0.6207
12772SOL    HW147284   2.782   1.817   9.053  0.1282 -0.1671  0.0760
12772SOL    HW247285   2.838   1.955   9.025 -0.9525  0.5135  1.1361
12773SOL     OW47286   3.239   5.058   1.450 -0.5482  0.7121 -0.6796
12773SOL    HW147287   3.307   5.121   1.425  0.2279 -0.5063 -1.6968
12773SOL    HW247288   3.272   5.019   1.531  0.2354 -0.2350 -1.4331
12774SOL     OW47289   9.187   0.151  11.369 -0.8553 -0.4033 -0.6826
12774SOL    HW147290   9.256   0.087  11.354 -2.0489 -1.2871 -2.7850
12774SOL    HW247291   9.214   0.229  11.321 -0.9506 -0.4837 -0.8676
12775SOL     OW47292   8.764   8.342  11.618 -0.1295 -0.1714  0.0899
12775SOL    HW147293   8.860   8.338  11.612 -0.2191 -1.5811 -0.6861
12775SOL    HW247294   8.734   8.264  11.573 -1.6024 -0.7340  1.9365
12776SOL     OW47295  11.728  10.502  10.908 -0.1732 -0.3946 -0.6846
12776SOL    HW147296  11.725  10.597  10.913 -0.1871 -0.4650  1.1449
12776SOL    HW247297  11.649  10.472  10.953  0.1353 -1.2728 -0.6977
12777SOL     OW47298   8.496   8.188   1.304  0.2601  0.0054 -0.5477
12777SOL    HW147299   8.536   8.101   1.312  0.0487 -0.1056 -0.6695
12777SOL    HW247300   8.565   8.249   1.328 -0.1136 -0.2715  1.4042
12778SOL     OW47301   4.711   7.813   6.133  0.5053  0.2391 -0.1316
12778SOL    HW147302   4.701   7.735   6.078  0.0099 -0.1111  0.4466
12778SOL    HW247303   4.632   7.813   6.188  1.6974 -0.2465  1.6377
12779SOL     OW47304   8.910   2.175   0.442 -0.6108 -0.3510  0.1942
12779SOL    HW147305   8.921   2.220   0.358 -1.0850  0.3732  0.5118
12779SOL    HW247306   8.815   2.169   0.453 -0.6567  2.3073  2.0980
12780SOL     OW47307   1.951  12.591   3.203 -0.0199  0.2660 -0.2230
12780SOL    HW147308   2.033  12.547   3.181 -0.0478 -0.0490  0.2670
12780SOL    HW247309   1.955  12.674   3.157  0.8048  0.4659  0.1891
12781SOL     OW47310  10.882   2.386   5.017 -0.2548 -0.4250  0.4110
12781SOL    HW147311  10.847   2.437   4.944  0.2266 -0.5805  0.0641
12781SOL    HW247312  10.977   2.394   5.009 -0.1857 -0.9058  0.6916
12782SOL     OW47313   0.758   0.151   3.434 -0.2128  0.4263 -0.0347
12782SOL    HW147314   0.723   0.086   3.494 -1.1542  0.3565 -0.6423
12782SOL    HW247315   0.764   0.105   3.350  2.6965 -0.0098  0.3106
12783SOL     OW47316   0.126  11.678  10.737  0.1083  0.5764 -0.5005
12783SOL    HW147317   0.093  11.732  10.665 -0.5159  0.5247 -0.2530
12783SOL    HW247318   0.070  11.600  10.736  1.0370 -0.1173 -0.8976
12784SOL     OW47319  11.616   8.993  12.174 -0.1698 -0.0117 -0.1088
12784SOL    HW147320  11.571   9.077  12.180  1.2848  0.9663 -1.8739
12784SOL    HW247321  11.606   8.954  12.260  1.8639  3.4049  1.8822
12785SOL     OW47322   3.135   5.128   0.251 -0.2902  0.0374  0.1705
12785SOL    HW147323   3.157   5.045   0.294 -0.6944  0.0928  0.4788
12785SOL    HW247324   3.169   5.117   0.162  1.3617  0.2791  0.7432
12786SOL     OW47325  10.193   2.316   7.882 -0.0500  0.2500  0.2990
12786SOL    HW147326  10.192   2.226   7.851 -0.4402  0.4280 -0.2287
12786SOL    HW247327  10.165   2.367   7.806  0.8998  0.8841  0.3579
12787SOL     OW47328  10.471  11.577  11.137 -0.7646 -0.4600 -0.2710
12787SOL    HW147329  10.514  11.619  11.211  0.0061 -3.0574  0.8625
12787SOL    HW247330  10.409  11.643  11.104 -0.8728  0.8998  2.4256
12788SOL     OW47331   4.173   0.287   0.798  0.7123  0.4653 -0.4537
12788SOL    HW147332   4.162   0.216   0.862  1.3768 -0.7722 -1.6360
12788SOL    HW247333   4.243   0.341   0.835  1.5949 -0.6360 -0.4485
12789SOL     OW47334   1.999   1.827   1.298  0.3447  0.2326 -0.1829
12789SOL    HW147335   1.979   1.850   1.207  0.2811  0.0157 -0.2243
12789SOL    HW247336   2.037   1.907   1.335  1.7845 -0.1235 -0.8292
12790SOL     OW47337   1.764   5.398   9.699 -0.2337  0.1220 -0.0863
12790SOL    HW147338   1.815   5.388   9.619  0.2060  0.4041  0.1482
12790SOL    HW247339   1.825   5.441   9.760 -0.0519 -1.4098  0.8741
12791SOL     OW47340   0.863  11.130   9.282  0.4575 -0.2814 -0.0585
12791SOL    HW147341   0.775  11.119   9.318  0.3315 -0.4336 -0.4161
12791SOL    HW247342   0.911  11.176   9.351  0.0236  0.0443  0.0317
12792SOL     OW47343   9.946   0.681   9.703 -0.2043 -0.5441  0.0466
12792SOL    HW147344   9.941   0.722   9.617  0.9681 -0.3101  0.0612
12792SOL    HW247345  10.040   0.684   9.725 -0.5913  0.3934  1.7953
12793SOL     OW47346   4.818   4.679  11.098 -0.2063 -0.2221  0.3602
12793SOL    HW147347   4.749   4.744  11.109  0.8222  0.8688  0.6038
12793SOL    HW247348   4.878   4.694  11.172 -0.9845 -2.8472  1.6647
12794SOL     OW47349   0.888   8.150   4.676  0.2880 -0.2496  0.5863
12794SOL    HW147350   0.846   8.064   4.680  0.7354 -0.5009 -0.0717
12794SOL    HW247351   0.815   8.212   4.664  0.1872 -0.8342 -2.5624
12795SOL     OW47352  11.240   8.313   6.766  0.5191 -0.4757 -0.4182
12795SOL    HW147353  11.229   8.338   6.857 -0.8249  1.5409 -1.0544
12795SOL    HW247354  11.240   8.396   6.718  1.6304 -1.4429 -2.2290
12796SOL     OW47355   6.857  12.436   0.528  0.6582 -0.0706 -0.1628
12796SOL    HW147356   6.783  12.376   0.512  1.7408 -1.0670 -1.7068
12796SOL    HW247357   6.816  12.522   0.537 -0.7038 -0.6013 -0.9209
12797SOL     OW47358  11.857   7.802   9.730 -0.3534  0.3951 -0.7555
12797SOL    HW147359  11.861   7.896   9.748  0.8391  0.4278 -1.1081
12797SOL    HW247360  11.944   7.780   9.696 -0.0624 -1.1178  0.7641
12798SOL     OW47361  11.646   6.556   9.246  0.1136 -0.4036 -0.2955
12798SOL    HW147362  11.590   6.486   9.277  1.4913 -1.0438  0.8544
12798SOL    HW247363  11.628   6.561   9.152 -3.2237  0.7245  0.2870
12799SOL     OW47364   5.180   8.280   8.281 -0.2849 -0.1643  0.5627
12799SOL    HW147365   5.223   8.277   8.366  0.7284  0.2372  0.0766
12799SOL    HW247366   5.201   8.367   8.246 -0.4448 -0.4289 -0.2182
12800SOL     OW47367   9.601   6.952  10.502  0.6680 -0.0401 -0.4403
12800SOL    HW147368   9.589   6.917  10.590 -3.8242 -0.3548 -0.9467
12800SOL    HW247369   9.604   6.875  10.445 -0.3106  0.1779 -0.8141
12801SOL     OW47370   7.640  12.039   3.618  0.1351 -0.0676  0.2057
12801SOL    HW147371   7.553  12.000   3.629 -1.0168  1.7891 -1.7167
12801SOL    HW247372   7.667  12.062   3.707 -1.3310 -0.6861  0.8399
12802SOL     OW47373  12.575   0.094   9.442 -0.0722 -0.0872  0.5047
12802SOL    HW147374  12.546   0.186   9.443  0.0633 -0.0017 -0.9833
12802SOL    HW247375  12.543   0.060   9.358  1.3398 -0.9086  0.2644
12803SOL     OW47376   3.915   8.855   1.619  0.2772 -0.2865  0.3078
12803SOL    HW147377   3.852   8.840   1.549  0.8874 -1.5290 -0.0048
12803SOL    HW247378   3.948   8.943   1.603 -1.2980  0.3511  0.4310
12804SOL     OW47379   4.578   4.879   4.920  0.6462 -0.3314  0.3228
12804SOL    HW147380   4.647   4.820   4.889  0.1072 -0.9228  0.2419
12804SOL    HW247381   4.514   4.822   4.962  0.9620  0.3593  1.8349
12805SOL     OW47382   0.303   9.106  11.275 -0.3401 -0.5104 -0.2995
12805SOL    HW147383   0.359   9.061  11.338 -3.4218 -3.0020  0.9228
12805SOL    HW247384   0.296   9.045  11.202 -0.7790  0.1342 -0.8023
12806SOL     OW47385  11.332   2.642  11.144 -0.2128  0.2363  0.3518
12806SOL    HW147386  11.344   2.566  11.087  0.5581 -0.5722  1.5449
12806SOL    HW247387  11.252   2.624  11.192 -0.4661  0.5708  0.0576
12807SOL     OW47388  11.863   7.587   6.479  0.3284 -0.1600 -0.0368
12807SOL    HW147389  11.806   7.533   6.424  0.5066 -0.3109 -0.0714
12807SOL    HW247390  11.950   7.550   6.467  0.5090  0.3548 -0.3334
12808SOL     OW47391   1.224   0.659   3.563 -1.0533 -0.2331  0.2741
12808SOL    HW147392   1.237   0.691   3.474 -0.6123  0.6515  0.6489
12808SOL    HW247393   1.188   0.733   3.611  0.1459 -0.2165  1.1985
12809SOL     OW47394   3.647   0.019   2.503  0.7412 -0.3983 -1.0485
12809SOL    HW147395   3.620  -0.002   2.414  2.6228 -1.0712 -1.5082
12809SOL    HW247396   3.717   0.084   2.492 -0.1114  0.7493  0.0318
12810SOL     OW47397   3.400   3.360   4.144  0.4179 -0.3046 -0.3767
12810SOL    HW147398   3.442   3.340   4.061  0.0537 -1.2279 -0.3497
12810SOL    HW247399   3.345   3.436   4.126 -0.1423 -0.8789 -1.1398
12811SOL     OW47400  12.452   5.075   3.159  0.2800 -0.1570 -0.5026
12811SOL    HW147401  12.504   5.108   3.085  1.3222 -1.5854 -0.4512
12811SOL    HW247402  12.507   5.007   3.198 -0.8416 -0.3732  0.7515
12812SOL     OW47403   4.961   5.191   6.596  0.1492 -0.6969 -0.2027
12812SOL    HW147404   4.958   5.125   6.526 -0.0343  0.5909 -1.4786
12812SOL    HW247405   4.966   5.275   6.549  1.0547  0.1727  1.3648
12813SOL     OW47406   4.588  10.837   5.423 -0.5015 -0.3198 -0.6233
12813SOL    HW147407   4.564  10.910   5.366  0.2506 -0.9789 -1.8238
12813SOL    HW247408   4.666  10.867   5.469 -1.0415  0.1736 -0.0289
12814SOL     OW47409   4.834   4.318  10.070  0.5705  0.2958  0.0556
12814SOL    HW147410   4.850   4.318  10.164 -1.4031 -1.4361  0.4831
12814SOL    HW247411   4.739   4.305  10.062  0.4389  1.9518 -2.1779
12815SOL     OW47412   7.863   5.565   1.086 -0.2153 -0.1192 -0.0857
12815SOL    HW147413   7.957   5.574   1.106  0.5753 -2.7028 -2.0398
12815SOL    HW247414   7.850   5.623   1.010 -1.0370  2.5494  1.9245
12816SOL     OW47415   0.766  12.486   6.397 -0.0413 -0.3443 -0.1817
12816SOL    HW147416   0.743  12.444   6.480  0.3111  0.8118  0.5213
12816SOL    HW247417   0.709  12.563   6.393  1.4194  0.7817  0.0379
12817SOL     OW47418   7.967   9.726   7.338  0.0921  0.1095  0.6765
12817SOL    HW147419   8.002   9.759   7.256  1.8554 -1.0775  0.8818
12817SOL    HW247420   8.020   9.767   7.406 -0.4287  0.0271  1.1461
12818SOL     OW47421   3.937   2.074   7.994 -0.3824  0.2522 -0.1874
12818SOL    HW147422   3.893   2.040   8.072 -1.0472  1.0233 -0.2107
12818SOL    HW247423   3.927   2.004   7.929 -1.3891  0.3126 -0.1142
12819SOL     OW47424   6.429   7.872   5.253  0.2311  0.3459  0.4329
12819SOL    HW147425   6.470   7.799   5.298  1.3481  0.5848 -0.1573
12819SOL    HW247426   6.375   7.915   5.320 -1.9867 -2.0707  0.3470
12820SOL     OW47427  10.441  10.623   7.559 -0.4458 -0.0615 -0.0079
12820SOL    HW147428  10.412  10.557   7.622 -1.4110  0.0496 -0.3294
12820SOL    HW247429  10.419  10.586   7.473 -0.8169  0.5845 -0.1979
12821SOL     OW47430  11.899   1.878   1.903  0.0296  0.6262  0.3715
12821SOL    HW147431  11.835   1.939   1.867  1.6769  0.8433 -2.4015
12821SOL    HW247432  11.845   1.807   1.940 -1.8294  1.4307 -0.6453
12822SOL     OW47433   4.561   5.822   2.619  0.0466 -0.4269  0.0698
12822SOL    HW147434   4.591   5.733   2.639 -0.9949 -0.8834 -0.3098
12822SOL    HW247435   4.620   5.851   2.549  1.8118  0.0608  1.6706
12823SOL     OW47436   1.727   1.454   4.304  0.4320  0.0166  0.3189
12823SOL    HW147437   1.643   1.415   4.326  0.1099  0.4289 -0.1419
12823SOL    HW247438   1.782   1.440   4.381 -0.1959  0.1279  0.7908
12824SOL     OW47439   5.628   0.677   8.644  0.5079  0.6287 -0.0857
12824SOL    HW147440   5.549   0.662   8.696  0.2467  2.3861  0.0948
12824SOL    HW247441   5.636   0.599   8.589 -0.2795 -0.4180  1.2211
12825SOL     OW47442   8.275   7.775   4.973 -0.1689 -0.0758  0.1093
12825SOL    HW147443   8.286   7.722   5.052  1.5377  0.5474  0.3396
12825SOL    HW247444   8.191   7.819   4.985 -1.5315 -2.5153  0.0015
12826SOL     OW47445   2.821   2.453   2.078  0.0086  0.6399  0.3878
12826SOL    HW147446   2.889   2.406   2.127  0.9304  0.5526 -0.9396
12826SOL    HW247447   2.752   2.388   2.065  1.4728 -0.5905 -1.8511
12827SOL     OW47448  10.843   5.862   1.922 -0.4746  0.2653 -0.0788
12827SOL    HW147449  10.779   5.886   1.855 -0.5271  0.1931 -0.0547
12827SOL    HW247450  10.822   5.772   1.945 -0.6586  0.3923  0.2616
12828SOL     OW47451   5.224   0.229   1.356 -0.1592 -0.0492 -0.0714
12828SOL    HW147452   5.260   0.296   1.298  0.6438 -1.6281 -1.4902
12828SOL    HW247453   5.298   0.171   1.375 -1.1302 -1.3531 -0.1200
12829SOL     OW47454   4.244   8.689  12.576  0.1619 -0.2958  0.3390
12829SOL    HW147455   4.162   8.688  12.526  0.4311 -1.0432 -0.1060
12829SOL    HW247456   4.238   8.612  12.633  0.7628 -0.6301 -0.0451
12830SOL     OW47457   2.183   3.068  10.117  0.5288  0.4674 -0.9753
12830SOL    HW147458   2.249   3.047  10.051 -0.5221  1.1471 -2.3098
12830SOL    HW247459   2.111   3.107  10.066 -0.9741 -0.4282  0.3875
12831SOL     OW47460   0.207  12.093   3.482 -0.1495  0.2173 -0.1864
12831SOL    HW147461   0.177  12.114   3.393  0.9138  1.0371 -0.3872
12831SOL    HW247462   0.291  12.049   3.468 -0.2173 -0.1036  0.4065
12832SOL     OW47463  12.111   4.039   1.521  0.0389 -0.2451 -0.4663
12832SOL    HW147464  12.152   4.109   1.572 -2.6551  0.4155  1.0120
12832SOL    HW247465  12.036   4.082   1.479 -1.6945 -2.2078  0.4770
12833SOL     OW47466  11.993  10.089   5.405  0.1750  0.5559  0.3161
12833SOL    HW147467  11.917  10.036   5.430 -0.3700  0.7630 -0.8233
12833SOL    HW247468  11.985  10.169   5.456  0.1192  0.2088  0.8578
12834SOL     OW47469   9.080  12.559  10.597  0.0866 -0.5583  0.6726
12834SOL    HW147470   9.086  12.608  10.679  1.5875  0.1419  0.1704
12834SOL    HW247471   9.144  12.488  10.607  2.8126  1.4342 -1.0872
12835SOL     OW47472   5.623  10.721   1.523  0.1009 -0.3178  0.0588
12835SOL    HW147473   5.593  10.743   1.435 -2.0045 -0.4464  0.6776
12835SOL    HW247474   5.573  10.643   1.546  1.4809 -0.9839  0.9493
12836SOL     OW47475   8.045  10.138   6.232  0.0168 -0.0301  0.0779
12836SOL    HW147476   7.965  10.178   6.199  0.0921  0.1856  0.1535
12836SOL    HW247477   8.115  10.183   6.184  0.3294  2.4279  2.5585
12837SOL     OW47478   4.468   8.151   9.692  0.5873  0.1590 -0.1568
12837SOL    HW147479   4.513   8.067   9.684  1.3530  0.5138  0.3492
12837SOL    HW247480   4.488   8.180   9.781  0.1849  0.7988 -0.2720
12838SOL     OW47481  11.971   8.678   2.704  0.9876  0.4080  0.2302
12838SOL    HW147482  11.936   8.766   2.719 -1.1383 -0.1919 -0.7249
12838SOL    HW247483  11.972   8.637   2.790 -0.2123  0.6568  0.3872
12839SOL     OW47484   4.435   5.351   1.770  0.1333  0.7931  0.0408
12839SOL    HW147485   4.440   5.257   1.748 -1.1180  0.8065 -0.3739
12839SOL    HW247486   4.516   5.388   1.734  0.7233 -0.1452  0.3556
12840SOL     OW47487   9.609   0.188   9.758 -0.1216  0.2499 -0.2325
12840SOL    HW147488   9.526   0.226   9.785  0.0934 -0.6671  1.9780
12840SOL    HW247489   9.587   0.124   9.692 -1.0822  0.5269 -0.1884
12841SOL     OW47490   6.299   5.202   7.226  0.4637 -0.4574 -0.0225
12841SOL    HW147491   6.251   5.211   7.309  1.7642 -1.1099  0.8412
12841SOL    HW247492   6.326   5.110   7.224 -0.4994 -0.7399 -1.7419
12842SOL     OW47493   4.717   9.135   9.198 -0.3344 -0.2342 -0.0858
12842SOL    HW147494   4.716   9.116   9.104 -0.1457 -0.1987 -0.0961
12842SOL    HW247495   4.790   9.083   9.232 -0.6850 -0.5927  0.1143
12843SOL     OW47496   0.538  10.358   1.123 -0.1557 -0.6742 -0.0837
12843SOL    HW147497   0.594  10.435   1.112 -1.4140  0.8309  2.9011
12843SOL    HW247498   0.575  10.312   1.199  0.5321 -3.1001 -1.7640
12844SOL     OW47499  11.182   4.333   4.174  0.2594 -0.8722 -0.3625
12844SOL    HW147500  11.244   4.405   4.186 -0.1172 -0.6465  0.2171
12844SOL    HW247501  11.195   4.307   4.083  0.1509  0.1503 -0.6852
12845SOL     OW47502  12.031   5.293   8.413  0.3971  0.4473  0.3781
12845SOL    HW147503  12.089   5.369   8.412  1.0719 -0.0622 -0.7291
12845SOL    HW247504  12.058   5.241   8.338 -2.6764  1.0478 -1.2943
12846SOL     OW47505   5.753  10.637   6.682 -0.0879  0.1033  0.2848
12846SOL    HW147506   5.741  10.575   6.754  0.6569 -0.0941  0.2554
12846SOL    HW247507   5.679  10.697   6.688 -1.6642 -1.6865 -0.6379
12847SOL     OW47508  11.816  11.388  11.053 -0.7977  0.5080  0.2782
12847SOL    HW147509  11.882  11.455  11.071 -0.1647 -0.4060  1.6042
12847SOL    HW247510  11.852  11.339  10.979 -1.2581  1.5833 -0.6893
12848SOL     OW47511   0.473   9.388   6.656 -0.2660  0.4440  0.0193
12848SOL    HW147512   0.464   9.379   6.562  0.5456 -2.1251  0.1021
12848SOL    HW247513   0.396   9.343   6.692  0.3108 -0.1408  0.5650
12849SOL     OW47514   7.907   2.409   9.761  0.3106  0.1475 -0.0930
12849SOL    HW147515   7.908   2.445   9.850  0.6807  1.2262 -0.5240
12849SOL    HW247516   7.818   2.377   9.749  0.4452 -0.6433  0.9114
12850SOL     OW47517   7.220   2.228   6.184  0.6885  0.4719  0.0399
12850SOL    HW147518   7.264   2.313   6.178  0.2361  0.6713 -0.4762
12850SOL    HW247519   7.142   2.245   6.236  0.7503  0.3056  0.1898
12851SOL     OW47520   6.139   8.346   4.123  0.1229 -0.5614 -0.1144
12851SOL    HW147521   6.049   8.373   4.143  0.0088 -0.8434 -0.2366
12851SOL    HW247522   6.177   8.325   4.208  0.0493 -0.5093 -0.0685
12852SOL     OW47523  10.471   9.053   1.648 -0.2158 -0.4010  0.4138
12852SOL    HW147524  10.444   8.974   1.696 -0.8736 -0.5416 -0.1693
12852SOL    HW247525  10.537   9.021   1.586 -0.4547 -0.4863  0.2037
12853SOL     OW47526   2.006  12.568   4.930  0.4447 -0.6356  0.2460
12853SOL    HW147527   2.062  12.555   5.006  0.3741 -0.1009  0.3948
12853SOL    HW247528   2.048  12.518   4.860 -0.1352 -2.1600  0.9249
12854SOL     OW47529  10.840   2.855  10.254  0.3815 -0.4779 -0.3221
12854SOL    HW147530  10.790   2.774  10.245  0.5176 -0.5052 -0.8961
12854SOL    HW247531  10.800   2.901  10.328 -0.3164 -0.6206 -0.6061
12855SOL     OW47532   6.168   8.786  12.062  0.3837  0.2238 -0.2967
12855SOL    HW147533   6.114   8.733  12.004 -0.6758  1.7434 -0.7648
12855SOL    HW247534   6.128   8.775  12.149  0.2755  0.1315 -0.3576
12856SOL     OW47535   2.086   7.312   0.023  0.3011  0.3030 -0.0657
12856SOL    HW147536   2.108   7.302   0.116  0.2009  0.9617  0.0300
12856SOL    HW247537   2.023   7.242   0.006 -0.5665  0.8842  0.6512
12857SOL     OW47538   5.763   7.436  12.162 -0.3879  0.5738 -0.5187
12857SOL    HW147539   5.719   7.390  12.090 -0.0153  1.7793 -1.5644
12857SOL    HW247540   5.856   7.429  12.140  0.0977 -2.1864  1.8025
12858SOL     OW47541  11.074   4.475   3.832 -0.8332  0.3660  1.0881
12858SOL    HW147542  11.085   4.513   3.745  1.1636 -0.6697  0.8196
12858SOL    HW247543  11.070   4.550   3.890  0.4106  1.0720  0.3166
12859SOL     OW47544  11.323   3.568   3.489  0.6416 -0.7515  0.2371
12859SOL    HW147545  11.261   3.636   3.516  0.8121 -0.4922 -0.0252
12859SOL    HW247546  11.364   3.539   3.571 -0.6096 -1.7077  0.5635
12860SOL     OW47547  12.098   1.866   1.004 -0.8132 -0.1871 -0.0428
12860SOL    HW147548  12.152   1.852   0.926 -1.5155 -0.7196 -0.4496
12860SOL    HW247549  12.155   1.844   1.077 -0.1644  0.2444 -0.4039
12861SOL     OW47550   7.885   7.920   7.502 -0.6245 -0.2210 -0.6189
12861SOL    HW147551   7.957   7.969   7.540  0.0088 -0.6907 -1.1901
12861SOL    HW247552   7.857   7.972   7.427  0.3872 -0.9628 -1.5330
12862SOL     OW47553   6.923   9.331   0.752 -0.3389  0.0469 -0.6463
12862SOL    HW147554   6.833   9.326   0.784 -0.4451 -0.3484 -1.0067
12862SOL    HW247555   6.962   9.403   0.802 -0.1925 -1.2324  1.1645
12863SOL     OW47556  12.436   7.522  10.564 -0.6727 -0.4687  0.2120
12863SOL    HW147557  12.473   7.445  10.521 -2.0789 -0.9492 -0.2041
12863SOL    HW247558  12.510   7.580  10.579  0.4031 -1.8870  0.4917
12864SOL     OW47559   4.249   6.324   0.189  0.0305 -0.6519 -0.1871
12864SOL    HW147560   4.192   6.397   0.212  0.3186 -0.3546 -0.3985
12864SOL    HW247561   4.299   6.307   0.268 -1.2833 -1.8080  0.4437
12865SOL     OW47562   7.618   5.855   9.572  0.3659  0.5462  0.0625
12865SOL    HW147563   7.696   5.892   9.612  1.0076 -0.3845 -0.2945
12865SOL    HW247564   7.645   5.831   9.483 -0.7598  1.6659 -0.6171
12866SOL     OW47565   9.706  10.966   7.866 -0.4266 -0.0224 -0.3591
12866SOL    HW147566   9.753  10.887   7.894  0.9898  0.7643 -0.4752
12866SOL    HW247567   9.770  11.016   7.816 -1.2622  1.2887 -0.1505
12867SOL     OW47568   9.291   2.544  11.966  0.3173  0.0205 -0.4407
12867SOL    HW147569   9.387   2.553  11.967  0.2705  0.5033  0.0510
12867SOL    HW247570   9.259   2.630  11.990 -0.2274 -0.3650  0.2591
12868SOL     OW47571   2.489   1.782   0.608 -0.5295  0.0249  0.4095
12868SOL    HW147572   2.431   1.728   0.662 -0.6112  0.1821  0.4791
12868SOL    HW247573   2.565   1.798   0.663 -1.0112  0.9538  0.8206
12869SOL     OW47574  11.970   9.090   1.314  0.4267 -0.4292 -0.3703
12869SOL    HW147575  11.937   9.132   1.394  0.6641  0.2852 -0.6365
12869SOL    HW247576  12.014   9.161   1.267  1.1809 -1.0716 -0.6503
12870SOL     OW47577   4.765   2.059  11.788 -0.2068 -0.0618 -0.1675
12870SOL    HW147578   4.807   2.087  11.707 -2.4076 -1.6954 -2.0156
12870SOL    HW247579   4.810   1.978  11.812 -1.2891 -1.0755 -1.3880
12871SOL     OW47580  11.461   6.814  10.835 -0.7620 -0.2016 -0.1130
12871SOL    HW147581  11.523   6.870  10.882  1.3546 -2.2804 -0.2551
12871SOL    HW247582  11.482   6.828  10.743 -0.6363 -0.7366 -0.1684
12872SOL     OW47583  10.894   5.294   7.566  0.0731  0.4325  0.2911
12872SOL    HW147584  10.988   5.309   7.556  0.0716  0.3723  0.1906
12872SOL    HW247585  10.864   5.273   7.478 -0.3739  2.2754 -0.0405
12873SOL     OW47586   5.131   5.965   0.607  0.1831 -0.6235  0.2441
12873SOL    HW147587   5.170   6.040   0.651 -0.5879 -0.7055  1.1109
12873SOL    HW247588   5.090   6.000   0.529 -2.4552  0.3730  1.9384
12874SOL     OW47589   6.341  11.986   6.829 -0.0899  0.0557  0.4041
12874SOL    HW147590   6.319  11.909   6.776 -2.0649  0.6602  0.2710
12874SOL    HW247591   6.307  11.965   6.916  0.9363  0.0792  0.8200
12875SOL     OW47592   0.350   4.757   7.713  0.1835 -0.1878  0.1113
12875SOL    HW147593   0.403   4.806   7.776  1.1651  0.8156 -1.4124
12875SOL    HW247594   0.307   4.825   7.661 -0.5905 -0.9850 -0.3127
12876SOL     OW47595   7.255   4.609  10.823 -0.1822 -0.0969 -0.2034
12876SOL    HW147596   7.295   4.526  10.796 -3.0838 -1.8972  0.6326
12876SOL    HW247597   7.296   4.628  10.908  1.5447  0.2010 -1.0398
12877SOL     OW47598  11.890  11.294   5.917  0.3305  0.1643 -0.0528
12877SOL    HW147599  11.891  11.218   5.860  1.9747  0.6137 -0.6960
12877SOL    HW247600  11.981  11.324   5.918  0.0387  1.1151  1.5397
12878SOL     OW47601  10.876   7.212   3.542 -0.2509  0.0777  0.2035
12878SOL    HW147602  10.964   7.183   3.519 -0.1776  0.2373  0.2796
12878SOL    HW247603  10.839   7.139   3.592 -0.8634 -0.7820 -1.4565
12879SOL     OW47604  10.553   0.533   0.720 -0.1610  0.0566  0.5282
12879SOL    HW147605  10.629   0.544   0.777 -1.1974 -0.2103  2.0386
12879SOL    HW247606  10.547   0.438   0.706  1.0757  0.2176 -1.5101
12880SOL     OW47607   7.073   1.834   3.237  0.4705 -0.1302 -0.3144
12880SOL    HW147608   7.165   1.806   3.237  1.0003  1.2635 -2.9120
12880SOL    HW247609   7.075   1.921   3.195 -1.9694  0.2458  0.2158
12881SOL     OW47610  10.132   6.349   4.252  0.0798 -0.1020  0.1415
12881SOL    HW147611  10.196   6.284   4.281  0.2217  0.4655  1.1554
12881SOL    HW247612  10.121   6.407   4.328 -0.7215  0.5206 -0.4356
12882SOL     OW47613   9.705   9.958   6.036  0.3449  0.6219  0.0666
12882SOL    HW147614   9.706  10.020   5.963 -1.2652  1.5524  0.7834
12882SOL    HW247615   9.794   9.922   6.038  0.9853  2.0275 -1.1141
12883SOL     OW47616   1.457   6.657   7.408  0.3509  0.1987 -0.3019
12883SOL    HW147617   1.412   6.611   7.337 -1.0427  0.4257  0.3838
12883SOL    HW247618   1.389   6.670   7.475  0.9895  2.1580  0.0472
12884SOL     OW47619   9.925   9.518   4.749  0.4371 -0.6054 -0.6521
12884SOL    HW147620   9.860   9.456   4.782 -0.2011 -0.2686 -1.2532
12884SOL    HW247621  10.005   9.496   4.797 -0.4071 -0.2190  1.0036
12885SOL     OW47622  11.570   7.946   2.733  0.6877  0.7603 -0.5552
12885SOL    HW147623  11.481   7.921   2.707 -0.7359  3.2406  1.4212
12885SOL    HW247624  11.614   7.969   2.652 -0.7921  0.3865 -1.4993
12886SOL     OW47625   5.163   5.812   1.945  0.4274  0.6908 -0.0786
12886SOL    HW147626   5.125   5.757   1.876  2.2571 -1.2874  0.3756
12886SOL    HW247627   5.088   5.851   1.989 -0.9369 -0.9928 -0.8112
12887SOL     OW47628   4.917   3.770   3.246  0.4637 -0.0288 -0.1093
12887SOL    HW147629   4.868   3.839   3.201 -0.9447  0.5339  2.0808
12887SOL    HW247630   4.891   3.690   3.201 -1.0431  0.4734 -0.2109
12888SOL     OW47631   9.537   9.969   3.259 -0.2187 -0.3273  0.1796
12888SOL    HW147632   9.534   9.905   3.188 -0.5364  0.8423 -0.8864
12888SOL    HW247633   9.523  10.053   3.217 -1.7155  0.3013  1.7935
12889SOL     OW47634   7.589   0.612   8.306  0.4428  0.3872 -0.2863
12889SOL    HW147635   7.538   0.616   8.226  2.5369  0.6879 -1.6987
12889SOL    HW247636   7.565   0.530   8.347 -2.5570  1.3896  0.1665
12890SOL     OW47637   3.745   2.428   2.635  0.8641 -0.0306 -0.1833
12890SOL    HW147638   3.840   2.440   2.643  1.0908 -1.4256 -0.4328
12890SOL    HW247639   3.728   2.439   2.541  0.6440  1.0444 -0.0199
12891SOL     OW47640   6.809   7.987  11.904  0.1290  0.2192  0.4902
12891SOL    HW147641   6.826   7.910  11.850  0.4198  0.1993  0.6109
12891SOL    HW247642   6.837   8.061  11.850 -0.1582  0.2429  0.3701
12892SOL     OW47643  11.434   1.550  11.265 -0.5135  0.2001  0.3616
12892SOL    HW147644  11.399   1.472  11.223 -0.4331  1.2422 -1.7555
12892SOL    HW247645  11.481   1.517  11.342 -0.8305 -1.7735 -0.2501
12893SOL     OW47646   8.197   6.858  11.940 -0.0867  0.2473 -0.5081
12893SOL    HW147647   8.176   6.804  12.016  0.9603 -1.1577 -1.1672
12893SOL    HW247648   8.164   6.945  11.962  0.1059 -0.1457  1.5039
12894SOL     OW47649   7.727   5.755   2.879  0.8414 -0.0229 -0.1411
12894SOL    HW147650   7.785   5.699   2.931  2.2934  1.4974 -0.0526
12894SOL    HW247651   7.782   5.828   2.852 -0.8964  1.1711 -0.5918
12895SOL     OW47652  10.957   6.205   2.288  0.4082 -0.0443 -0.2328
12895SOL    HW147653  10.938   6.123   2.241  0.2617  0.2711 -0.7263
12895SOL    HW247654  10.878   6.257   2.278  0.3015 -0.0476  0.5344
12896SOL     OW47655   8.817   6.694  11.392 -0.2320 -0.2765  0.6078
12896SOL    HW147656   8.770   6.640  11.455  1.7108 -3.4054 -0.4113
12896SOL    HW247657   8.908   6.692  11.422  0.9013 -2.3944 -2.4364
12897SOL     OW47658   1.808   1.899  11.214  0.6542  0.0133 -0.0308
12897SOL    HW147659   1.792   1.827  11.276  0.2479  0.2937  0.1952
12897SOL    HW247660   1.721   1.925  11.185  0.7488  0.9713  0.5289
12898SOL     OW47661   1.547   0.078   0.257  0.2570 -0.4649 -0.4110
12898SOL    HW147662   1.633   0.075   0.215  0.3618 -0.3349 -0.2090
12898SOL    HW247663   1.550   0.157   0.312 -0.1740 -0.1682 -0.8017
12899SOL     OW47664   3.098   7.036   2.620  0.0186 -0.3754 -0.2363
12899SOL    HW147665   3.039   7.056   2.693  0.8615 -1.9016  0.9437
12899SOL    HW247666   3.185   7.063   2.651 -0.0178  2.4246 -2.1869
12900SOL     OW47667   7.573   3.821   1.435 -0.0171 -0.1432 -1.0149
12900SOL    HW147668   7.627   3.751   1.396 -0.2086 -1.0199  0.2316
12900SOL    HW247669   7.634   3.870   1.490  0.0173  0.4078 -1.5330
12901SOL     OW47670  12.399   5.872   9.540 -0.2289  0.0459  0.0759
12901SOL    HW147671  12.444   5.810   9.481  0.0368  1.0418 -0.7970
12901SOL    HW247672  12.426   5.845   9.628 -1.0470 -1.8125 -0.1786
12902SOL     OW47673   1.660   2.050   8.783 -0.2295  0.3112  0.0308
12902SOL    HW147674   1.701   1.981   8.836  0.2825 -0.0545 -0.8231
12902SOL    HW247675   1.567   2.028   8.785 -0.0864 -0.3585 -0.1527
12903SOL     OW47676  11.753   0.097   3.431 -0.6665 -0.0956  0.2417
12903SOL    HW147677  11.775   0.014   3.474 -1.5612 -0.3413  0.2617
12903SOL    HW247678  11.710   0.148   3.500 -0.6069  0.1666  0.0822
12904SOL     OW47679  10.685   4.681   3.004  0.0828 -0.2795 -0.3329
12904SOL    HW147680  10.723   4.767   2.987 -3.1024  1.1943 -0.6994
12904SOL    HW247681  10.654   4.687   3.095 -0.8368 -0.7092 -0.6036
12905SOL     OW47682   2.079  10.280   5.826 -1.1310  0.2975  0.6598
12905SOL    HW147683   2.038  10.226   5.893 -0.1645  0.1791  1.1706
12905SOL    HW247684   2.167  10.298   5.859 -1.3345  2.0025  0.4025
12906SOL     OW47685   0.824   0.204  11.862  0.1426 -0.5685  0.0749
12906SOL    HW147686   0.871   0.147  11.924 -1.8031 -2.3855  0.0105
12906SOL    HW247687   0.744   0.228  11.908  0.3339  1.0890 -0.4191
12907SOL     OW47688   7.066   7.851   8.831 -0.0865  0.1930 -0.2143
12907SOL    HW147689   6.983   7.865   8.876  0.2368 -0.1443  0.5051
12907SOL    HW247690   7.042   7.819   8.744 -0.7065  0.1754 -0.0375
12908SOL     OW47691   2.114  12.275   2.282 -0.0963  0.0548  0.0290
12908SOL    HW147692   2.207  12.252   2.277 -0.2967 -0.9555  0.5286
12908SOL    HW247693   2.112  12.361   2.323  0.7223  1.2197 -2.2495
12909SOL     OW47694   4.978   4.168   3.575  0.1722  0.0008  0.6358
12909SOL    HW147695   4.987   4.217   3.493  0.5222  0.0468  0.7008
12909SOL    HW247696   4.901   4.206   3.617 -1.7128 -1.8441 -0.9253
12910SOL     OW47697  11.034   6.180   1.412  0.3234 -0.7486 -0.3253
12910SOL    HW147698  10.999   6.110   1.356  0.5420 -0.8983 -0.2764
12910SOL    HW247699  10.957   6.214   1.458  0.3284 -1.5352  0.2871
12911SOL     OW47700   7.500   1.520   6.651  0.0483 -0.3886  0.6303
12911SOL    HW147701   7.486   1.438   6.604  0.8927 -0.1276 -0.0967
12911SOL    HW247702   7.523   1.493   6.740 -1.4224 -0.8852  0.8771
12912SOL     OW47703   4.443   7.197  11.192  0.1319 -0.6159 -0.3682
12912SOL    HW147704   4.441   7.134  11.265  2.1782  1.0081  1.2223
12912SOL    HW247705   4.520   7.171  11.141 -0.3568 -0.7607 -1.0402
12913SOL     OW47706   4.725  10.878  10.387 -0.6682 -0.3884 -0.2584
12913SOL    HW147707   4.772  10.954  10.422 -3.1840  1.0902  0.2399
12913SOL    HW247708   4.785  10.838  10.325  1.8768  0.2360  1.6277
12914SOL     OW47709  10.005  11.974   6.783  0.2110 -0.1648  0.0187
12914SOL    HW147710  10.013  12.062   6.746 -0.3720  0.2740  0.9008
12914SOL    HW247711   9.926  11.978   6.837 -1.4676 -2.0346 -2.1134
12915SOL     OW47712   4.089   3.320   2.222 -0.3575 -0.2272 -0.1357
12915SOL    HW147713   4.154   3.250   2.229  0.8444  0.4758 -2.9226
12915SOL    HW247714   4.126   3.392   2.272 -1.0150 -1.1385  1.7237
12916SOL     OW47715   7.543  12.000   8.892 -0.3282 -0.6856 -0.1443
12916SOL    HW147716   7.468  11.998   8.834 -0.1388 -0.0642 -0.4176
12916SOL    HW247717   7.595  12.074   8.862 -1.7688  1.7071  2.7046
12917SOL     OW47718   6.796   8.679  11.339  0.4491  0.1119 -0.0171
12917SOL    HW147719   6.747   8.724  11.408  0.2324  0.0756 -0.1437
12917SOL    HW247720   6.886   8.675  11.371  0.0053 -1.6204  1.1410
12918SOL     OW47721  12.281   4.689   3.071  0.0506  0.0414 -0.5781
12918SOL    HW147722  12.185   4.679   3.073 -0.0429  0.9739  0.3366
12918SOL    HW247723  12.314   4.600   3.070 -0.8073 -0.3468  1.3602
12919SOL     OW47724   0.807   1.944   6.671  0.0819  0.4964 -0.3150
12919SOL    HW147725   0.744   2.016   6.663  1.0044  1.2128 -1.2984
12919SOL    HW247726   0.752   1.865   6.677 -1.0189  1.3374  2.3913
12920SOL     OW47727   5.534   5.481  11.356  0.1390  0.3656 -0.3760
12920SOL    HW147728   5.578   5.405  11.317  0.5023  0.4562 -0.1388
12920SOL    HW247729   5.602   5.547  11.364 -0.6842  1.6943 -3.0325
12921SOL     OW47730   5.341   6.011   3.932  1.1946  0.3909 -0.4022
12921SOL    HW147731   5.402   5.997   3.860  0.7391 -1.4363 -0.4822
12921SOL    HW247732   5.256   5.985   3.897  0.3956  2.4800 -0.1571
12922SOL     OW47733   2.471   3.580   4.542 -0.6155  0.0089 -0.0461
12922SOL    HW147734   2.486   3.568   4.636 -1.1384 -0.0243  0.0329
12922SOL    HW247735   2.554   3.554   4.501 -0.3641  0.0836  0.4085
12923SOL     OW47736   4.187   0.702  12.537 -0.0194 -0.1409 -0.1499
12923SOL    HW147737   4.170   0.773  12.475 -0.3087 -0.1487 -0.0842
12923SOL    HW247738   4.170   0.741  12.623  1.3299  0.1533  0.0045
12924SOL     OW47739   2.007   7.034   9.840  0.7625  0.2021 -0.3035
12924SOL    HW147740   2.038   6.976   9.770  0.8654  0.1424 -0.2081
12924SOL    HW247741   1.963   7.105   9.793  0.3152 -0.1381 -0.4130
12925SOL     OW47742   9.496  10.370   7.365  0.1327  0.6264 -0.3147
12925SOL    HW147743   9.452  10.453   7.382  1.0261  0.5780  2.8445
12925SOL    HW247744   9.590  10.390   7.371  0.3871 -0.4753 -0.2999
12926SOL     OW47745   0.322   9.255   8.996  0.4002 -0.3769 -0.0147
12926SOL    HW147746   0.408   9.277   9.031  0.8901 -0.3284 -1.1994
12926SOL    HW247747   0.340   9.200   8.920 -0.6288 -0.5751 -0.1375
12927SOL     OW47748   2.734  11.700   7.693 -0.1142 -0.1855 -0.3672
12927SOL    HW147749   2.667  11.768   7.684  1.5519  1.5401 -0.2514
12927SOL    HW247750   2.693  11.634   7.750 -1.4468  1.1696  0.3316
12928SOL     OW47751   5.153   9.009  12.575 -0.1209 -0.2392  0.8218
12928SOL    HW147752   5.079   9.067  12.556  1.0929  1.0499 -0.2191
12928SOL    HW247753   5.159   8.952  12.499  0.2690  0.0153  0.6587
12929SOL     OW47754   8.317   1.826   1.398 -0.3276  0.1890 -0.2732
12929SOL    HW147755   8.356   1.879   1.329 -1.0040 -0.4027 -1.1451
12929SOL    HW247756   8.315   1.738   1.362  1.1851 -0.5347  1.3288
12930SOL     OW47757   8.372  11.841   9.671 -0.1941  0.5091  1.1212
12930SOL    HW147758   8.446  11.892   9.703 -0.1840  1.0769  0.2479
12930SOL    HW247759   8.297  11.901   9.678 -0.2989  0.4357  0.6612
12931SOL     OW47760   8.418   9.547  10.395 -0.0811  0.5703  0.3412
12931SOL    HW147761   8.399   9.638  10.373 -0.2251  0.1787 -1.2724
12931SOL    HW247762   8.510   9.535  10.369 -0.6275 -0.2525 -1.3429
12932SOL     OW47763   1.359   8.741   2.162  0.7816 -0.1348 -0.0328
12932SOL    HW147764   1.299   8.691   2.217  0.8888  1.4263  1.6035
12932SOL    HW247765   1.332   8.721   2.072 -1.7497  0.0241  0.6247
12933SOL     OW47766   7.109   5.414   3.557  0.5036 -0.4723 -0.0063
12933SOL    HW147767   7.097   5.396   3.464 -0.4567 -0.5976  0.1365
12933SOL    HW247768   7.106   5.328   3.599 -1.0266 -0.2766  0.3398
12934SOL     OW47769   8.293   1.620   7.956 -0.1758 -0.9172  0.0831
12934SOL    HW147770   8.340   1.567   7.890  1.1648  0.5690 -0.2304
12934SOL    HW247771   8.207   1.580   7.962 -0.3221 -1.1606 -2.5518
12935SOL     OW47772  10.930   3.929   8.163  0.0328  0.6034  0.4737
12935SOL    HW147773  10.871   3.874   8.213 -1.5205  0.5167 -1.3478
12935SOL    HW247774  10.883   4.012   8.151 -0.9951 -0.3097 -3.1351
12936SOL     OW47775   0.538  11.122  11.903  0.6266 -0.1172 -0.0225
12936SOL    HW147776   0.605  11.057  11.882  0.2612 -0.1013 -1.2971
12936SOL    HW247777   0.455  11.077  11.884  0.3781  0.7822 -1.1192
12937SOL     OW47778   2.560  10.905   7.576  0.0956  0.8751 -0.3187
12937SOL    HW147779   2.537  10.991   7.539 -4.0339 -0.4071 -1.2195
12937SOL    HW247780   2.547  10.844   7.504  2.0827 -0.7074  0.5613
12938SOL     OW47781   3.880   1.176   8.094 -0.1074 -0.1017  0.3529
12938SOL    HW147782   3.804   1.118   8.090  0.0658 -0.3215  0.2022
12938SOL    HW247783   3.940   1.132   8.155 -0.2778  0.2859  0.8075
12939SOL     OW47784   7.728   0.281   7.074  0.3620  0.1383 -0.3751
12939SOL    HW147785   7.671   0.295   7.149  1.7761 -1.9349  1.1944
12939SOL    HW247786   7.758   0.368   7.050 -2.5744  1.2080 -0.6436
12940SOL     OW47787   1.130   4.130   3.208 -0.9060  0.1871  0.3985
12940SOL    HW147788   1.144   4.214   3.252  0.9399  1.1075 -1.7436
12940SOL    HW247789   1.209   4.080   3.227 -1.9911 -1.1716  1.6584
12941SOL     OW47790  10.384   5.025   7.197  0.0207  0.3034  0.4395
12941SOL    HW147791  10.338   4.962   7.254  0.1878  0.8981  1.2564
12941SOL    HW247792  10.318   5.052   7.134 -0.5262  0.5215  1.0879
12942SOL     OW47793   8.417   2.251  10.241 -0.5742  0.3343  0.0228
12942SOL    HW147794   8.348   2.260  10.307 -0.4574 -0.1731  0.2186
12942SOL    HW247795   8.377   2.197  10.173 -0.5974  0.6160 -0.1904
12943SOL     OW47796   7.649   9.495   3.715  0.3937  0.2092  0.1955
12943SOL    HW147797   7.720   9.495   3.650  0.0708 -1.1203 -0.1822
12943SOL    HW247798   7.640   9.403   3.741 -1.0702  0.3710  0.3577
12944SOL     OW47799   8.275   4.830   9.273 -0.2551 -0.0185 -0.0196
12944SOL    HW147800   8.205   4.785   9.321 -0.5457  0.8515  0.4067
12944SOL    HW247801   8.356   4.796   9.312 -0.4915  0.9473  1.3973
12945SOL     OW47802   2.137   2.968   2.895  0.2788  0.1246  0.1048
12945SOL    HW147803   2.135   2.964   2.799  0.0980 -1.2875  0.1436
12945SOL    HW247804   2.211   3.026   2.915  0.8032 -0.1795 -0.8899
12946SOL     OW47805  10.844   1.591   2.248 -0.0647 -0.3304  0.2577
12946SOL    HW147806  10.755   1.627   2.247  0.4732  1.0816 -0.0056
12946SOL    HW247807  10.832   1.496   2.248 -1.5574 -0.1674 -0.5111
12947SOL     OW47808  11.260   0.181   4.932  0.5131 -0.2061  0.2660
12947SOL    HW147809  11.198   0.129   4.882  1.0321 -1.0548  0.4842
12947SOL    HW247810  11.341   0.177   4.882  0.6911 -0.0123  0.5315
12948SOL     OW47811   9.092   4.329   2.838  0.4158 -0.6295 -0.1726
12948SOL    HW147812   9.150   4.258   2.865 -0.6111 -1.4872 -0.1643
12948SOL    HW247813   9.011   4.312   2.885  0.0158  0.3073 -0.5161
12949SOL     OW47814   4.219   5.475  10.940 -0.0065  0.0044  0.0256
12949SOL    HW147815   4.234   5.438  11.027  0.0259  1.0637  0.4859
12949SOL    HW247816   4.307   5.489  10.905  0.0065  0.5411  0.2556
12950SOL     OW47817   8.113   6.044   7.854 -0.0221  0.0307  0.0606
12950SOL    HW147818   8.136   6.134   7.832  0.3204 -0.5957 -2.4425
12950SOL    HW247819   8.197   6.002   7.875 -0.0201 -0.0424 -0.0976
12951SOL     OW47820   3.592   4.517   1.486 -0.4978 -0.4332 -0.0254
12951SOL    HW147821   3.648   4.474   1.421  0.8638  0.8474  0.2623
12951SOL    HW247822   3.525   4.561   1.434 -1.5476 -2.3132 -0.3548
12952SOL     OW47823   1.355   4.693   1.698  0.0232 -0.1879  0.4509
12952SOL    HW147824   1.433   4.689   1.753  1.1758  0.7809 -1.0127
12952SOL    HW247825   1.382   4.746   1.623 -1.3550 -1.6923 -1.1998
12953SOL     OW47826   7.954   3.155   6.744 -0.1693  0.3516  0.0349
12953SOL    HW147827   8.044   3.132   6.769 -0.2399 -0.7529 -0.6837
12953SOL    HW247828   7.964   3.216   6.672  0.0361 -1.1174 -1.2366
12954SOL     OW47829   8.993   8.888   5.321 -0.4132  0.4991  0.0654
12954SOL    HW147830   8.979   8.911   5.229 -1.3059 -1.4985 -0.3573
12954SOL    HW247831   8.973   8.794   5.325  1.3767  0.1279  1.9434
12955SOL     OW47832   4.388   3.914   4.717 -0.5273  0.5541 -0.0404
12955SOL    HW147833   4.325   3.985   4.710 -0.4639  0.6794  0.6116
12955SOL    HW247834   4.336   3.838   4.744 -0.4920  0.5047 -0.1093
12956SOL     OW47835   2.905   9.370   4.530 -0.0546  0.3419  0.3412
12956SOL    HW147836   2.846   9.335   4.597  0.9292 -0.1316  0.9982
12956SOL    HW247837   2.943   9.292   4.489 -0.0676  0.6366 -0.2330
12957SOL     OW47838  11.250   3.197   3.692 -0.3851 -0.3849  0.6313
12957SOL    HW147839  11.177   3.137   3.707 -1.2233  1.0090  2.6321
12957SOL    HW247840  11.213   3.284   3.708  1.4038  0.4616  0.4437
12958SOL     OW47841  12.114   8.225   8.327  0.7754  0.2873 -0.0756
12958SOL    HW147842  12.142   8.140   8.362  0.7143  0.5338  0.5857
12958SOL    HW247843  12.039   8.249   8.381 -0.4970 -0.1879 -1.5721
12959SOL     OW47844   0.675   1.953   8.246 -0.3503 -0.0776 -0.6558
12959SOL    HW147845   0.648   1.951   8.154 -1.2730  0.6936 -0.4153
12959SOL    HW247846   0.703   2.043   8.261  2.0373 -0.7449 -0.7752
12960SOL     OW47847   5.847   0.902  10.676  0.1699  0.7980 -0.0028
12960SOL    HW147848   5.799   0.822  10.656 -2.1443  1.6041  1.9106
12960SOL    HW247849   5.938   0.882  10.651 -0.9031 -1.1694 -2.7571
12961SOL     OW47850   8.120   0.119   7.176  0.1775 -0.5378 -0.5623
12961SOL    HW147851   8.135   0.041   7.122 -0.7567 -1.1478  0.0275
12961SOL    HW247852   8.159   0.191   7.126 -1.9173 -0.8088 -2.7884
12962SOL     OW47853   0.897   4.071   9.301  0.6168  0.0736  0.3876
12962SOL    HW147854   0.820   4.015   9.293  1.3282 -0.9812  0.6879
12962SOL    HW247855   0.863   4.154   9.332 -0.4675 -0.1853 -0.0628
12963SOL     OW47856   3.607   0.800   1.003 -0.2135  0.1541 -0.4916
12963SOL    HW147857   3.608   0.744   1.081  1.0489  0.7877 -0.0088
12963SOL    HW247858   3.536   0.862   1.019 -1.0124 -0.7115 -0.6022
12964SOL     OW47859   7.386   0.099  11.097  0.2005  0.2255 -0.3777
12964SOL    HW147860   7.363   0.069  11.010 -0.1883  0.4727 -0.3600
12964SOL    HW247861   7.380   0.195  11.093  0.6576  0.2647 -0.2166
12965SOL     OW47862   1.164   0.876   7.413  0.2929 -0.2610  0.1498
12965SOL    HW147863   1.099   0.825   7.364 -0.6687  2.1462 -1.2176
12965SOL    HW247864   1.244   0.870   7.360 -0.3706  1.2197 -1.0734
12966SOL     OW47865   2.700   7.518   1.685  0.3061 -0.0513 -0.5985
12966SOL    HW147866   2.656   7.600   1.708  1.5939  0.8295 -1.1562
12966SOL    HW247867   2.784   7.522   1.732  0.3024 -1.1526 -0.4752
12967SOL     OW47868  10.330   7.611   4.758 -0.1573  0.0998 -0.1268
12967SOL    HW147869  10.353   7.624   4.666 -1.5640  0.4287 -0.4442
12967SOL    HW247870  10.243   7.648   4.767 -1.4916 -2.8649  0.5507
12968SOL     OW47871   3.741  12.482   0.816 -0.1669 -0.7229 -0.0728
12968SOL    HW147872   3.652  12.516   0.823  1.0615  3.1820 -0.7280
12968SOL    HW247873   3.778  12.493   0.904  0.5192  0.7677 -0.5006
12969SOL     OW47874  10.427   0.633  11.756  0.2015 -0.2611 -0.3921
12969SOL    HW147875  10.378   0.698  11.706 -0.4854 -1.6837 -1.6327
12969SOL    HW247876  10.518   0.665  11.753 -0.2500  1.1172 -0.1466
12970SOL     OW47877   9.320  12.438   2.023  0.3677 -0.0892  0.7033
12970SOL    HW147878   9.348  12.438   1.931 -0.2301  0.5997  0.5032
12970SOL    HW247879   9.265  12.360   2.031 -2.2685  1.4645 -0.4477
12971SOL     OW47880   6.602   9.973   8.231 -0.5608  0.0862 -0.3901
12971SOL    HW147881   6.620  10.004   8.320 -0.6482 -1.7409  0.3090
12971SOL    HW247882   6.512  10.002   8.213 -0.3081  1.0374 -0.1535
12972SOL     OW47883  10.603  10.110   8.484  0.4593 -0.1261  0.4126
12972SOL    HW147884  10.525  10.129   8.431  0.9356 -0.7163 -0.5306
12972SOL    HW247885  10.615  10.188   8.538  0.5563  0.9632 -1.0970
12973SOL     OW47886  11.695   4.083   4.698  0.1402  0.3865  0.1704
12973SOL    HW147887  11.729   4.121   4.779 -0.2534 -0.3792  0.7077
12973SOL    HW247888  11.762   4.103   4.632  0.8482  0.3257  0.8553
12974SOL     OW47889   8.934   0.553   8.241 -0.2065 -0.0061  0.2191
12974SOL    HW147890   8.959   0.562   8.149 -0.0160 -2.9750 -0.1025
12974SOL    HW247891   9.016   0.539   8.288 -0.2815  1.6621  0.9392
12975SOL     OW47892   7.136  11.603   1.737  0.7131  0.3386 -0.3198
12975SOL    HW147893   7.201  11.595   1.667  0.5320  1.4338 -0.6437
12975SOL    HW247894   7.060  11.641   1.694  1.0826  2.3972  0.7214
12976SOL     OW47895   7.731   0.533   0.683  0.8289 -0.0431 -0.2861
12976SOL    HW147896   7.766   0.532   0.772  0.5638 -1.4209 -0.1604
12976SOL    HW247897   7.758   0.617   0.647  2.2914 -0.1140  0.5617
12977SOL     OW47898   8.481   7.809   5.212 -0.3298 -0.2651  0.2200
12977SOL    HW147899   8.434   7.779   5.290 -0.6682 -0.7173 -0.1476
12977SOL    HW247900   8.549   7.868   5.245 -1.0056  0.2097  0.7819
12978SOL     OW47901   5.399   4.041   0.992 -0.1164  0.3597  0.0764
12978SOL    HW147902   5.341   4.001   1.057 -0.0134 -0.2174 -0.1855
12978SOL    HW247903   5.487   4.028   1.027 -0.1698  2.2845  1.0704
12979SOL     OW47904   9.023  10.804   5.814 -0.1664  0.2872 -0.6230
12979SOL    HW147905   9.025  10.891   5.854 -1.1570  0.1428 -0.2369
12979SOL    HW247906   9.015  10.743   5.887  0.0864 -0.1053 -0.9170
12980SOL     OW47907   7.583  12.188   1.966  0.0900 -0.1728 -0.2759
12980SOL    HW147908   7.516  12.216   2.028  0.2619  0.2970 -0.3034
12980SOL    HW247909   7.665  12.223   2.000  0.4517 -1.4057  0.1803
12981SOL     OW47910   0.437   9.290   4.078  0.3821  0.1924 -0.2184
12981SOL    HW147911   0.393   9.266   3.997 -1.5795 -0.8751  1.0806
12981SOL    HW247912   0.412   9.382   4.092  0.4642  0.2845 -0.6604
12982SOL     OW47913  11.843   2.000  10.082 -0.0002  0.2755  0.0251
12982SOL    HW147914  11.808   1.912  10.097  0.4419  0.2645  1.0577
12982SOL    HW247915  11.811   2.052  10.156  0.8015  0.6665  0.1091
12983SOL     OW47916   6.867   9.314  11.053 -0.2230 -0.2368  0.1028
12983SOL    HW147917   6.805   9.387  11.052  0.5855  0.4690 -0.7780
12983SOL    HW247918   6.840   9.261  11.128 -1.2020  0.6411  0.4028
12984SOL     OW47919   1.849   7.676   6.296 -0.1508  0.6541 -0.3831
12984SOL    HW147920   1.754   7.668   6.281  0.2449 -1.0593 -2.4438
12984SOL    HW247921   1.876   7.749   6.240 -0.2376  1.1521  0.2157
12985SOL     OW47922   8.870  10.802   5.442  0.1938  0.3862 -0.0843
12985SOL    HW147923   8.896  10.718   5.478 -0.3928  0.9591  1.8030
12985SOL    HW247924   8.902  10.866   5.505 -0.0094  1.5417 -1.1095
12986SOL     OW47925  12.283   4.491   5.032  0.0197  0.5284 -0.3460
12986SOL    HW147926  12.239   4.478   5.116 -0.8172  0.1395 -0.8320
12986SOL    HW247927  12.376   4.489   5.053 -0.1777  0.9702  0.6524
12987SOL     OW47928   2.596   5.063  11.234 -0.2442 -0.1155  0.0913
12987SOL    HW147929   2.522   5.018  11.193 -0.6736 -0.1791  0.9115
12987SOL    HW247930   2.582   5.051  11.328 -0.5055  1.9291  0.3614
12988SOL     OW47931   0.800   3.842   1.130 -0.0587 -0.2316  0.2981
12988SOL    HW147932   0.773   3.827   1.221  1.8609  1.1172  1.1557
12988SOL    HW247933   0.766   3.766   1.082 -1.6849 -0.6527  1.9888
12989SOL     OW47934   1.082   4.862   4.215  0.0096  0.1892  0.4345
12989SOL    HW147935   0.994   4.899   4.213 -0.3368 -0.6416 -1.3226
12989SOL    HW247936   1.128   4.904   4.142  1.2428  0.9366  1.5843
12990SOL     OW47937   6.894   0.704   6.539 -0.0986 -0.2654  0.0345
12990SOL    HW147938   6.932   0.762   6.473 -0.7699  1.0761  0.8002
12990SOL    HW247939   6.812   0.746   6.564 -1.2815 -2.2249 -0.3354
12991SOL     OW47940   3.795   4.051   2.058 -0.4331 -0.1228 -0.5887
12991SOL    HW147941   3.768   3.984   2.121  1.5551 -0.3621  0.0775
12991SOL    HW247942   3.834   4.001   1.986  2.3251  0.2477  0.5201
12992SOL     OW47943   8.480  11.305   8.674  0.5916  0.1487  0.3634
12992SOL    HW147944   8.398  11.263   8.701  2.4261 -2.8608  1.6301
12992SOL    HW247945   8.521  11.332   8.755  1.0388  1.4266 -0.2557
12993SOL     OW47946   3.461   0.229   0.479 -0.0953 -0.2985  0.5109
12993SOL    HW147947   3.442   0.317   0.445 -2.0481 -0.6472  0.5777
12993SOL    HW247948   3.478   0.242   0.572 -2.4676 -0.1564  0.9917
12994SOL     OW47949   8.916   6.877   6.681 -0.0337  0.7372 -0.1666
12994SOL    HW147950   8.908   6.957   6.629 -0.4704  0.3165 -0.7604
12994SOL    HW247951   8.899   6.806   6.619  0.4134  0.1776  0.3406
12995SOL     OW47952   9.186   7.738  11.752 -0.1129 -0.7923 -0.1206
12995SOL    HW147953   9.206   7.671  11.687  2.3537 -0.7410  0.4755
12995SOL    HW247954   9.126   7.695  11.813 -2.4658 -0.8456 -2.2847
12996SOL     OW47955   4.994   4.125   3.154  0.2526  0.0924  0.4292
12996SOL    HW147956   5.003   4.191   3.086 -1.0703  1.4242  1.4959
12996SOL    HW247957   4.901   4.104   3.156  0.6732 -2.1688 -0.1622
12997SOL     OW47958  11.002   3.940   2.490 -0.4717  0.0834  0.3015
12997SOL    HW147959  10.984   3.858   2.445 -0.8370 -0.7890  1.9454
12997SOL    HW247960  11.088   3.968   2.457 -0.6230 -0.6370 -0.7264
12998SOL     OW47961  11.343  11.403  12.344 -0.3146  0.4610  0.1852
12998SOL    HW147962  11.367  11.312  12.324  1.0787  1.1488 -1.4765
12998SOL    HW247963  11.413  11.456  12.306 -1.7086  2.3080  0.0395
12999SOL     OW47964  10.552   2.028   0.831  0.1007 -0.3575  0.2940
12999SOL    HW147965  10.490   2.097   0.855  0.2710  0.2454 -0.9464
12999SOL    HW247966  10.634   2.074   0.815  0.4936 -0.9831  0.4560
13000SOL     OW47967   0.988   0.794   2.132 -0.2138 -0.2306 -0.3527
13000SOL    HW147968   0.917   0.793   2.069  0.2968 -0.7393 -0.9381
13000SOL    HW247969   1.018   0.885   2.134  0.7237 -0.4671 -1.9722
13001SOL     OW47970   0.893   2.013   0.411 -0.1068 -0.2423 -0.2076
13001SOL    HW147971   0.838   1.979   0.340  0.4623 -1.8581  0.0913
13001SOL    HW247972   0.912   1.937   0.465  1.4929  0.5005  0.3305
13002SOL     OW47973  10.333   2.526   4.883  0.3342 -0.4566  0.3016
13002SOL    HW147974  10.369   2.555   4.967 -0.1999  1.4370 -0.0596
13002SOL    HW247975  10.391   2.456   4.854  1.9696  0.4936  1.1293
13003SOL     OW47976   6.365   3.884   1.378 -0.0761 -0.4103  0.5491
13003SOL    HW147977   6.412   3.804   1.353  0.2017 -0.8279  2.2496
13003SOL    HW247978   6.301   3.897   1.308  1.7809 -0.4640 -1.2795
13004SOL     OW47979  10.907  12.567   8.220  0.4415  0.4612 -0.1696
13004SOL    HW147980  10.968  12.529   8.158 -0.2915  0.1995 -0.7461
13004SOL    HW247981  10.952  12.564   8.305  0.8881 -0.4942 -0.4357
13005SOL     OW47982  11.251   7.522   2.449  0.1736  0.2698 -1.0348
13005SOL    HW147983  11.312   7.475   2.505 -1.2706  0.5180  0.8379
13005SOL    HW247984  11.306   7.563   2.382  1.8945 -0.5168 -0.1487
13006SOL     OW47985  11.337  11.433   1.443 -0.4141  0.4817  0.0312
13006SOL    HW147986  11.319  11.426   1.349  1.6980  0.8689 -0.4538
13006SOL    HW247987  11.406  11.499   1.448  0.4435 -0.5131  1.7425
13007SOL     OW47988   0.627   6.158   3.296  0.4363  0.1539 -0.2363
13007SOL    HW147989   0.659   6.069   3.310  1.2708  0.1608 -1.9233
13007SOL    HW247990   0.605   6.189   3.384  3.0918 -0.5848  0.7873
13008SOL     OW47991   6.624   9.654  11.999  0.4120 -0.1843  0.0681
13008SOL    HW147992   6.596   9.563  12.005  0.1717 -0.3001 -2.0102
13008SOL    HW247993   6.577   9.699  12.069  0.4925 -1.6213  1.0839
13009SOL     OW47994   1.234   3.445   2.823  0.2895  0.6653  0.4728
13009SOL    HW147995   1.208   3.510   2.888 -0.7838  0.3404  0.3825
13009SOL    HW247996   1.169   3.454   2.753 -1.0318 -1.7565  1.2936
13010SOL     OW47997   7.400   7.388   0.354  0.1429 -0.2642  0.0333
13010SOL    HW147998   7.394   7.293   0.343  1.4512 -0.5770  1.5478
13010SOL    HW247999   7.387   7.424   0.267 -0.5576 -1.8267 -0.5364
13011SOL     OW48000   2.970   7.775   5.625  0.0392 -0.0627 -0.0791
13011SOL    HW148001   3.027   7.763   5.549 -0.0357  4.6229 -1.1389
13011SOL    HW248002   3.024   7.823   5.688 -0.6965 -1.6506  1.8774
13012SOL     OW48003   0.901   7.512   9.836 -0.2762  0.0003 -0.6780
13012SOL    HW148004   0.985   7.535   9.876 -1.6468 -0.7475  3.0929
13012SOL    HW248005   0.909   7.418   9.819  0.0411  0.1649 -1.4634
13013SOL     OW48006   5.727   8.239   7.281 -0.5564 -0.0020 -0.1320
13013SOL    HW148007   5.760   8.150   7.291  0.1685  0.2320 -0.3030
13013SOL    HW248008   5.692   8.262   7.367 -1.1803 -0.6176 -0.2191
13014SOL     OW48009  12.365   7.409   6.233 -0.1638 -0.5892 -0.0067
13014SOL    HW148010  12.346   7.317   6.251 -1.6006 -0.3241 -0.0647
13014SOL    HW248011  12.304   7.433   6.164  0.4662  0.3211 -0.2635
13015SOL     OW48012  12.460   9.712  11.422 -0.0547  0.0818  0.6930
13015SOL    HW148013  12.369   9.705  11.451 -0.0339  0.9467  0.9925
13015SOL    HW248014  12.511   9.680  11.496 -0.1288 -1.3756  0.1547
13016SOL     OW48015   9.883   0.110   0.320  0.2653 -0.2831  0.4183
13016SOL    HW148016   9.906   0.040   0.259  0.1362  0.4275 -0.4620
13016SOL    HW248017   9.967   0.147   0.346  0.2712  1.0572 -1.3151
13017SOL     OW48018   1.223   2.672   5.537  0.3749 -0.1847 -0.1893
13017SOL    HW148019   1.230   2.760   5.502  0.3445 -0.3137 -0.5260
13017SOL    HW248020   1.265   2.617   5.471  0.0643 -0.4646 -0.1548
13018SOL     OW48021   8.415   5.717   9.982  0.3607 -0.5737  0.1085
13018SOL    HW148022   8.381   5.675   9.903 -1.3469 -1.1321  1.0888
13018SOL    HW248023   8.510   5.708   9.974  0.3648  0.7230 -2.5828
13019SOL     OW48024   7.273   9.972  12.379 -0.5257 -0.4426  0.0946
13019SOL    HW148025   7.346   9.997  12.322 -1.0780 -0.7327 -0.7527
13019SOL    HW248026   7.281  10.031  12.455 -0.8859  1.2770 -1.1415
13020SOL     OW48027   8.874  12.462   8.307 -0.5320 -0.9463  0.5788
13020SOL    HW148028   8.850  12.545   8.264  0.8115 -0.0794  1.4260
13020SOL    HW248029   8.891  12.486   8.398  1.2620 -1.8749  0.5343
13021SOL     OW48030   1.133   9.591   4.382  0.2624 -0.0278  0.0543
13021SOL    HW148031   1.219   9.550   4.388  0.4281  0.3268  0.1710
13021SOL    HW248032   1.115   9.623   4.470 -0.2184 -0.5516  0.1446
13022SOL     OW48033   2.150   7.932   3.040  0.1896  0.4189 -0.1924
13022SOL    HW148034   2.227   7.981   3.067 -0.4211  0.9137  0.7071
13022SOL    HW248035   2.076   7.989   3.061 -0.6844 -1.5149  2.5980
13023SOL     OW48036   8.481   2.172  12.487  0.2491 -0.1793  0.1528
13023SOL    HW148037   8.431   2.213  12.417 -1.0343 -0.1340  1.0604
13023SOL    HW248038   8.517   2.245  12.537  1.6287 -0.2131 -0.7541
13024SOL     OW48039   0.086   6.764   2.792  0.3691 -0.1274 -0.0260
13024SOL    HW148040   0.168   6.716   2.782  1.4610  1.7916 -0.6899
13024SOL    HW248041   0.050   6.732   2.875  1.9948 -0.6878  0.5076
13025SOL     OW48042   8.657   6.047  10.731 -0.1115  0.6649 -0.3748
13025SOL    HW148043   8.717   5.996  10.786 -1.8513 -1.7473 -0.5592
13025SOL    HW248044   8.641   6.127  10.781  1.0038  0.0847  0.9981
13026SOL     OW48045   7.312   4.984   5.183  0.1519 -0.2598  0.0989
13026SOL    HW148046   7.377   5.015   5.246 -1.7067  1.5543  1.2401
13026SOL    HW248047   7.231   5.031   5.206 -1.0712 -0.8784 -2.5157
13027SOL     OW48048   7.477   0.851   3.249 -0.3166 -0.2502  0.1076
13027SOL    HW148049   7.536   0.801   3.306  0.2398 -1.2367 -1.2574
13027SOL    HW248050   7.534   0.916   3.207 -0.6896  0.3721  0.5584
13028SOL     OW48051  12.454   8.444   6.525 -0.2807 -0.2261 -0.8056
13028SOL    HW148052  12.381   8.407   6.575  0.7313 -1.1275  0.0627
13028SOL    HW248053  12.499   8.502   6.588 -0.5003  0.6747 -1.4644
13029SOL     OW48054   8.973   2.647   4.867 -0.1265 -0.3457  0.4637
13029SOL    HW148055   9.036   2.577   4.852  0.0593  0.2807 -2.2923
13029SOL    HW248056   8.890   2.612   4.833 -0.0749  0.6489 -0.7571
13030SOL     OW48057   6.265   9.526   0.656 -0.2207 -0.4809  0.0133
13030SOL    HW148058   6.333   9.594   0.660  0.6473 -1.3173 -0.0815
13030SOL    HW248059   6.274   9.479   0.738 -1.6261  0.2430  0.6175
13031SOL     OW48060   6.157   3.945  11.278 -0.1288 -0.1052  0.2836
13031SOL    HW148061   6.212   4.020  11.255 -0.3998  0.2363  0.7535
13031SOL    HW248062   6.213   3.869  11.260  0.5170  0.2366  0.8105
13032SOL     OW48063  10.251   3.164   2.366  0.3230 -1.1466 -0.0244
13032SOL    HW148064  10.192   3.130   2.433 -0.3742  0.4593  0.2015
13032SOL    HW248065  10.212   3.247   2.338  1.9351 -0.5395 -0.5985
13033SOL     OW48066   9.429  10.458   4.626 -0.1902 -0.2954  0.2177
13033SOL    HW148067   9.512  10.502   4.643 -0.9562  0.8743  1.0623
13033SOL    HW248068   9.401  10.490   4.541  0.0525 -0.4241  0.0892
13034SOL     OW48069  10.768   0.796  11.105  0.0226  0.4836  0.2966
13034SOL    HW148070  10.783   0.702  11.094  0.0692  0.4440  0.6867
13034SOL    HW248071  10.677   0.803  11.132 -0.0485  0.5686  0.0352
13035SOL     OW48072   3.050   6.155  10.677  0.3113 -0.1385  0.0931
13035SOL    HW148073   2.969   6.105  10.684 -0.9368  1.4598 -1.7541
13035SOL    HW248074   3.084   6.134  10.590  0.3917  1.2640 -0.2418
13036SOL     OW48075   6.669   2.119   3.257  0.1967  0.5300 -0.1522
13036SOL    HW148076   6.735   2.182   3.286 -0.8774  1.7338 -0.2533
13036SOL    HW248077   6.642   2.074   3.337  0.4725  0.6978  0.0357
13037SOL     OW48078  10.791   7.387  11.823 -0.3022  0.4331  0.2960
13037SOL    HW148079  10.726   7.365  11.757  0.4767  0.3725 -0.4766
13037SOL    HW248080  10.786   7.317  11.887  0.2581 -0.5537 -0.7099
13038SOL     OW48081  10.518   9.744   9.085  0.1580  0.8072 -0.0918
13038SOL    HW148082  10.511   9.823   9.033  0.1113 -0.3001 -1.8323
13038SOL    HW248083  10.491   9.771   9.173  0.6343  2.8104 -0.5050
13039SOL     OW48084   0.478   3.598  10.403  0.1716 -0.3088  0.0832
13039SOL    HW148085   0.419   3.608  10.478 -0.1285  0.2990 -0.2233
13039SOL    HW248086   0.430   3.637  10.330  0.9485  0.1776 -0.1752
13040SOL     OW48087   9.663   0.268   0.303 -0.6094  0.0884  0.3335
13040SOL    HW148088   9.592   0.207   0.286  0.9300 -2.3838  2.1419
13040SOL    HW248089   9.743   0.219   0.282  0.6737  1.9192  0.6987
13041SOL     OW48090   0.593   2.686   2.134 -0.3938 -0.1376 -0.2467
13041SOL    HW148091   0.506   2.721   2.151  0.0386  0.7979  0.1518
13041SOL    HW248092   0.645   2.716   2.209  0.3802 -0.2570 -0.7293
13042SOL     OW48093   8.877  10.877   1.350 -0.6042  0.3423  0.2419
13042SOL    HW148094   8.836  10.791   1.349  0.2627 -0.0875  0.4624
13042SOL    HW248095   8.820  10.931   1.405 -1.5553  0.1255 -0.5096
13043SOL     OW48096  10.974   1.739   2.063 -0.1646  0.1657 -0.2676
13043SOL    HW148097  10.934   1.686   2.131  0.1383 -0.7158 -0.7682
13043SOL    HW248098  11.033   1.680   2.016 -0.6558  0.6353 -1.5473
13044SOL     OW48099   2.404   6.789   2.965 -0.3895  0.1006 -0.1858
13044SOL    HW148100   2.401   6.879   2.933  1.9984 -0.1919 -1.4668
13044SOL    HW248101   2.332   6.745   2.919 -1.1397  1.1660 -0.0704
13045SOL     OW48102   9.351   8.399  11.815 -0.4866 -0.5869  0.0500
13045SOL    HW148103   9.283   8.337  11.788 -1.1024  0.0991 -0.0345
13045SOL    HW248104   9.347   8.399  11.911 -0.2417 -0.9331  0.0629
13046SOL     OW48105  10.498   3.672   5.849  0.3310  0.0383 -0.3420
13046SOL    HW148106  10.581   3.627   5.835  0.5835  0.6329 -0.8223
13046SOL    HW248107  10.517   3.764   5.831 -0.0522  0.4329  1.1393
13047SOL     OW48108   8.329   8.940   7.336  0.0141 -0.2527 -0.1802
13047SOL    HW148109   8.423   8.924   7.333 -0.0940 -0.7810 -1.5731
13047SOL    HW248110   8.315   9.016   7.279 -0.4497 -0.4379 -0.3207
13048SOL     OW48111   4.187  12.228   1.588  0.3022  0.2691  0.2719
13048SOL    HW148112   4.162  12.302   1.533 -0.3040  0.3895  0.6978
13048SOL    HW248113   4.279  12.211   1.565  0.5258  1.2994  0.3463
13049SOL     OW48114   7.502   4.278   8.468  0.0663 -0.4404  0.0092
13049SOL    HW148115   7.571   4.212   8.479  0.3713  0.0065  0.8477
13049SOL    HW248116   7.421   4.231   8.487 -0.0490 -1.3542 -2.4036
13050SOL     OW48117   0.414  11.134   9.050 -0.1876 -0.5970 -0.1615
13050SOL    HW148118   0.477  11.137   9.122 -1.8421  0.3230  1.3660
13050SOL    HW248119   0.349  11.069   9.077 -1.2613  0.3313 -0.3972
13051SOL     OW48120   3.776   6.233   6.649  0.1270  0.0346  0.2475
13051SOL    HW148121   3.720   6.300   6.609 -1.5172 -0.5937  1.3630
13051SOL    HW248122   3.716   6.161   6.668  1.6163 -1.2448  0.2489
13052SOL     OW48123   9.661   5.973   1.047  0.5786 -0.4454  0.0114
13052SOL    HW148124   9.686   5.952   0.958  0.8807 -1.9368  0.4225
13052SOL    HW248125   9.638   6.066   1.045  1.7402 -0.1660 -1.3468
13053SOL     OW48126  10.747   7.943   6.104  0.1423 -0.3154  0.1623
13053SOL    HW148127  10.789   7.857   6.106  0.1504 -0.3328 -0.4438
13053SOL    HW248128  10.661   7.927   6.066 -1.0720 -0.5310  2.7812
13054SOL     OW48129   5.267   1.900   7.135  0.2791 -0.1487 -0.2441
13054SOL    HW148130   5.267   1.961   7.061 -1.0687 -0.9407 -0.9563
13054SOL    HW248131   5.359   1.883   7.153  0.6745  1.5430 -0.4668
13055SOL     OW48132  11.337   0.228   1.167  0.2539 -0.8455  0.4338
13055SOL    HW148133  11.364   0.306   1.118  0.2448 -0.5791  0.8444
13055SOL    HW248134  11.288   0.262   1.241  1.7486 -1.1200  1.6073
13056SOL     OW48135   7.128   0.287   0.606 -0.7159 -0.0419  0.2182
13056SOL    HW148136   7.214   0.312   0.638  0.4709 -2.6975 -0.5932
13056SOL    HW248137   7.126   0.317   0.515  0.6748 -2.5655 -0.7342
13057SOL     OW48138   4.094   1.044   5.857 -0.3411  0.0167  0.1037
13057SOL    HW148139   4.160   1.047   5.926 -0.0329  0.0171 -0.1900
13057SOL    HW248140   4.086   1.135   5.829  1.9916 -0.3893 -2.1751
13058SOL     OW48141   5.534   9.329  11.707  0.1941  0.8619 -0.0530
13058SOL    HW148142   5.591   9.402  11.732  2.0088 -0.9345  1.3962
13058SOL    HW248143   5.574   9.293  11.628  1.0878 -0.3482  0.9160
13059SOL     OW48144  11.411  11.150   5.374 -0.0077 -0.2673 -0.1748
13059SOL    HW148145  11.504  11.135   5.390 -0.2250 -1.3894  0.1212
13059SOL    HW248146  11.373  11.063   5.372 -0.6778  0.0043 -2.8017
13060SOL     OW48147  12.243   4.169   2.420  0.1624 -0.2037  0.4796
13060SOL    HW148148  12.171   4.130   2.371  0.8295 -1.6311  0.5518
13060SOL    HW248149  12.250   4.258   2.387  1.7211 -1.5347 -3.4083
13061SOL     OW48150   4.548   6.568  10.211  0.3506  0.2714 -0.0594
13061SOL    HW148151   4.576   6.610  10.292  0.9592 -0.8018  0.2963
13061SOL    HW248152   4.608   6.601  10.145  0.0180  0.9441 -0.0366
13062SOL     OW48153   3.530   3.295  10.231 -1.0623  0.5860 -0.3090
13062SOL    HW148154   3.591   3.302  10.305 -3.1842  0.0642  1.6312
13062SOL    HW248155   3.585   3.279  10.155  1.2041  0.2539  1.3038
13063SOL     OW48156   2.023   4.083   3.491 -0.0130 -0.6619 -0.2574
13063SOL    HW148157   2.034   4.061   3.399  1.1330  4.1755 -1.5396
13063SOL    HW248158   2.102   4.048   3.533  0.1530 -1.6524 -1.3256
13064SOL     OW48159  10.896   2.599   1.063  0.1530 -0.4725 -0.1376
13064SOL    HW148160  10.890   2.694   1.070 -0.6382 -0.5119 -0.2307
13064SOL    HW248161  10.815   2.573   1.019  0.8467 -1.0947 -1.0614
13065SOL     OW48162   4.966   7.000   9.901 -0.1722 -0.2633 -0.8388
13065SOL    HW148163   4.939   6.911   9.876  2.8640 -1.7895  0.7545
13065SOL    HW248164   5.058   7.005   9.875  0.3156  1.6323  1.0092
13066SOL     OW48165  10.146   5.625   3.460 -0.1665  0.0407  0.0440
13066SOL    HW148166  10.201   5.616   3.538  2.0698  2.0490 -1.1555
13066SOL    HW248167  10.137   5.719   3.448 -0.0266 -0.1907 -2.3766
13067SOL     OW48168   2.046  12.324   2.626 -0.6126  0.2358 -0.0049
13067SOL    HW148169   1.975  12.307   2.689 -1.1299 -1.2064 -0.9307
13067SOL    HW248170   2.047  12.247   2.570  0.4128  1.1137 -1.2433
13068SOL     OW48171   1.160   4.115   1.402  0.1716  0.1387 -0.2982
13068SOL    HW148172   1.110   4.088   1.326 -0.2614  0.1347 -0.0153
13068SOL    HW248173   1.244   4.069   1.393 -0.6410 -1.5377  0.3049
13069SOL     OW48174   1.001   7.955   0.115  0.0244 -0.9390 -0.2063
13069SOL    HW148175   1.044   7.914   0.190  1.2252 -1.5672 -1.1993
13069SOL    HW248176   1.072   7.983   0.058 -0.8274  0.7811 -0.4962
13070SOL     OW48177   8.026  11.944   5.086  0.2129  0.0482 -0.0639
13070SOL    HW148178   8.081  12.015   5.119 -0.7447  0.8599 -0.1767
13070SOL    HW248179   7.969  11.921   5.159 -0.4548  0.3970 -0.4593
13071SOL     OW48180   1.783   2.842   8.830 -1.0257  0.4167  0.2303
13071SOL    HW148181   1.811   2.760   8.871 -1.2488  0.9264  1.4424
13071SOL    HW248182   1.760   2.817   8.741  0.3607 -0.5708  0.1050
13072SOL     OW48183   3.341   9.581   6.190  0.2105  0.4505 -0.3291
13072SOL    HW148184   3.431   9.571   6.158  1.1046  0.6454  1.8684
13072SOL    HW248185   3.343   9.543   6.278 -1.4161  1.9778  0.4371
13073SOL     OW48186   9.594   3.683   9.067  0.8363  1.0742  0.1995
13073SOL    HW148187   9.628   3.726   9.146 -0.0354 -0.2843  1.3478
13073SOL    HW248188   9.672   3.646   9.025  1.0381 -0.5641  1.9091
13074SOL     OW48189   6.007   9.420   3.287  0.3812  0.1477  0.2596
13074SOL    HW148190   6.084   9.364   3.301  1.1743  0.6814 -1.6884
13074SOL    HW248191   5.981   9.403   3.197 -0.5502  1.4981  0.2477
13075SOL     OW48192   4.663   4.438   2.037  0.4262  0.3534 -0.1200
13075SOL    HW148193   4.678   4.486   2.118 -0.7774 -1.3882  1.2044
13075SOL    HW248194   4.631   4.504   1.976  0.0321  1.4596  1.2381
13076SOL     OW48195   6.885   0.675   3.367 -0.0082 -0.5297 -0.4417
13076SOL    HW148196   6.848   0.702   3.283  1.4224  0.8454 -0.6827
13076SOL    HW248197   6.920   0.756   3.404 -1.0513 -0.9977  1.7496
13077SOL     OW48198  11.969  12.365   1.756 -0.0142  0.6656 -0.0488
13077SOL    HW148199  12.043  12.381   1.698 -0.3368 -0.6421 -0.8644
13077SOL    HW248200  12.003  12.305   1.823 -0.0087  1.0797  0.3272
13078SOL     OW48201   6.798   0.172   8.830  0.3092  0.0203  0.2581
13078SOL    HW148202   6.882   0.128   8.818  0.3249  0.1590 -0.1532
13078SOL    HW248203   6.810   0.258   8.789 -0.3358 -0.3103 -0.6578
13079SOL     OW48204  10.532   0.554  11.303 -0.4921 -0.3045 -0.4904
13079SOL    HW148205  10.553   0.498  11.378 -1.2164 -1.6390 -1.2385
13079SOL    HW248206  10.492   0.632  11.341 -0.2764 -0.6783  0.5324
13080SOL     OW48207  10.517  10.224   0.641  0.6231 -0.1353 -0.8403
13080SOL    HW148208  10.468  10.276   0.705  1.0102 -1.5500  0.6421
13080SOL    HW248209  10.454  10.210   0.570  0.2923  1.7195 -0.9757
13081SOL     OW48210   9.478   7.086  10.821  0.0285  0.2562  0.2898
13081SOL    HW148211   9.555   7.111  10.769 -0.4279  0.6397 -0.2129
13081SOL    HW248212   9.501   7.001  10.859  0.2924 -0.1294 -0.7070
13082SOL     OW48213   8.877   2.357  11.796  0.2502 -0.1824  0.2950
13082SOL    HW148214   8.925   2.373  11.877  1.6185  1.3096 -0.7511
13082SOL    HW248215   8.787   2.338  11.825  1.0646 -1.4381  2.2141
13083SOL     OW48216  11.541   6.672   0.315  0.0479  0.3251 -0.0884
13083SOL    HW148217  11.606   6.669   0.385  1.0310  0.7674 -0.9511
13083SOL    HW248218  11.460   6.640   0.355  0.3014  1.6130  1.5346
13084SOL     OW48219   4.605   9.123   2.330 -0.5984  0.2761 -0.5820
13084SOL    HW148220   4.698   9.116   2.311  1.0868  2.7009  4.8304
13084SOL    HW248221   4.574   9.032   2.332  2.4560 -0.8543  0.3982
13085SOL     OW48222   3.783  10.994   0.941 -0.0002  0.4664  0.8655
13085SOL    HW148223   3.763  10.940   0.865  1.9919  0.5747  0.2078
13085SOL    HW248224   3.878  10.992   0.947 -0.0638  1.2521  2.7946
13086SOL     OW48225   3.633   9.056  10.314 -0.2323 -0.2397 -0.2467
13086SOL    HW148226   3.707   8.996  10.320 -0.1101 -0.1188 -0.5196
13086SOL    HW248227   3.562   9.011  10.360  0.2434  0.0215  0.7583
13087SOL     OW48228   8.582   5.181   8.538 -0.2029  0.4023 -0.2537
13087SOL    HW148229   8.604   5.093   8.507  1.2771  0.9398 -0.7936
13087SOL    HW248230   8.514   5.166   8.604  1.0273 -1.2741  0.7093
13088SOL     OW48231   3.727   7.513  12.151  0.0546  0.0130 -0.4991
13088SOL    HW148232   3.724   7.596  12.104  1.4267  0.5567  0.3335
13088SOL    HW248233   3.819   7.487  12.148  0.0540 -0.2852  1.2960
13089SOL     OW48234   6.217   8.141   4.733  0.9646 -0.7462  0.5103
13089SOL    HW148235   6.195   8.186   4.651  0.1433 -1.6239  0.2388
13089SOL    HW248236   6.234   8.212   4.795 -3.3052  0.1488  0.9500
13090SOL     OW48237   9.208   5.077   8.735 -0.2798 -0.1071 -0.0883
13090SOL    HW148238   9.193   5.108   8.645  1.5156  0.4109 -0.2457
13090SOL    HW248239   9.234   4.986   8.725  0.6502  0.1574 -0.1812
13091SOL     OW48240   3.060   5.236   8.058  0.0502  0.1494  0.4572
13091SOL    HW148241   3.082   5.264   7.970 -0.0361 -2.0597 -0.3369
13091SOL    HW248242   2.968   5.262   8.070  0.4591  1.6752  0.4639
13092SOL     OW48243   5.716  10.413  10.935 -0.0249  0.0819 -0.2870
13092SOL    HW148244   5.772  10.488  10.917  2.3597 -1.3524  0.6801
13092SOL    HW248245   5.711  10.409  11.030 -2.9538  0.8952 -0.2954
13093SOL     OW48246   4.285  11.689   6.624 -0.0324  0.7756 -0.1751
13093SOL    HW148247   4.295  11.594   6.625 -0.9026  0.6730  0.4154
13093SOL    HW248248   4.315  11.717   6.711  0.1450  1.0317 -0.3199
13094SOL     OW48249  10.012   2.866   7.214 -0.2740 -0.6311 -0.8418
13094SOL    HW148250  10.000   2.811   7.136 -0.9735 -1.3693 -0.2355
13094SOL    HW248251  10.080   2.821   7.264 -1.7317 -1.7071  0.2734
13095SOL     OW48252  12.481  10.705   6.817  0.0633  0.9040 -0.5037
13095SOL    HW148253  12.511  10.688   6.727 -0.7082  1.5624 -0.8963
13095SOL    HW248254  12.392  10.738   6.806  0.1886  1.5893  0.4721
13096SOL     OW48255   3.451  11.550   7.970 -0.1462 -0.1242  0.1649
13096SOL    HW148256   3.450  11.634   8.016  0.2926 -0.4086  0.7062
13096SOL    HW248257   3.453  11.573   7.878 -1.1626  0.4601  0.2699
13097SOL     OW48258   6.628   8.711  11.118 -0.5116 -0.4668  0.2679
13097SOL    HW148259   6.657   8.800  11.096 -0.0024 -0.4937  0.8233
13097SOL    HW248260   6.690   8.681  11.184  0.1058 -1.7257 -0.8347
13098SOL     OW48261   1.310   2.738  10.366 -0.2422 -0.0030  0.4575
13098SOL    HW148262   1.354   2.761  10.285 -0.8756  1.8380  0.5910
13098SOL    HW248263   1.227   2.699  10.338 -0.9940  1.7229  0.1804
13099SOL     OW48264   7.111   1.731   7.239  0.2404  0.1274  0.2942
13099SOL    HW148265   7.114   1.637   7.254  0.0684 -0.0647 -0.7872
13099SOL    HW248266   7.052   1.765   7.307 -0.2636 -0.6365  0.2443
13100SOL     OW48267   7.496   4.058   7.087 -0.0310 -0.3033 -0.1731
13100SOL    HW148268   7.562   4.122   7.060  0.2696 -1.1666 -1.6372
13100SOL    HW248269   7.545   3.978   7.103 -0.3791 -0.1692  1.8342
13101SOL     OW48270   9.677   4.617  11.441  0.0031  0.2099  0.3732
13101SOL    HW148271   9.603   4.620  11.501 -1.0525 -1.7053 -0.7506
13101SOL    HW248272   9.722   4.535  11.462 -0.7988 -0.8735 -1.8163
13102SOL     OW48273   9.335   1.291   3.607 -0.2270 -0.2353 -0.1281
13102SOL    HW148274   9.294   1.277   3.693 -0.6234  0.8337 -0.1303
13102SOL    HW248275   9.413   1.343   3.626 -1.1944  1.4304 -0.5654
13103SOL     OW48276   0.922   7.286  10.867  0.4116 -0.3557  0.2029
13103SOL    HW148277   0.874   7.336  10.801  0.9414  2.8569  2.0347
13103SOL    HW248278   1.010   7.276  10.829  0.0485 -0.6936 -0.5643
13104SOL     OW48279   1.301   4.029   6.499  0.5119 -0.0486 -0.0902
13104SOL    HW148280   1.387   4.071   6.489  0.9306 -0.5238  1.2003
13104SOL    HW248281   1.314   3.941   6.463  0.4176  0.0495 -0.3627
13105SOL     OW48282   9.368   0.213  11.033 -0.0391  0.1556 -0.2261
13105SOL    HW148283   9.463   0.220  11.048 -0.1087  1.4635 -0.3009
13105SOL    HW248284   9.359   0.210  10.938  0.0296 -2.2346 -0.2297
13106SOL     OW48285   7.756   4.552  10.576 -0.1604 -0.2303  0.0976
13106SOL    HW148286   7.807   4.633  10.573  2.4063 -1.7684 -0.9422
13106SOL    HW248287   7.763   4.521  10.666  1.4368 -0.7821 -0.1889
13107SOL     OW48288  10.082   8.678   5.205 -0.0754  0.4946  0.1636
13107SOL    HW148289  10.159   8.679   5.261  0.5310  1.3705 -0.6654
13107SOL    HW248290  10.108   8.726   5.126 -0.4962 -1.6897 -1.4046
13108SOL     OW48291   6.301   9.089   1.036 -0.3549 -0.2595 -0.4471
13108SOL    HW148292   6.296   9.184   1.026  0.8414 -0.1831 -0.4494
13108SOL    HW248293   6.377   9.063   0.984 -2.1918 -1.5785 -2.6662
13109SOL     OW48294   3.721   6.364   3.761  0.2444 -0.0603 -0.1432
13109SOL    HW148295   3.763   6.284   3.793 -0.8038 -0.2548  0.8260
13109SOL    HW248296   3.748   6.370   3.670  1.0085 -1.0749 -0.0069
13110SOL     OW48297  12.159   5.595   0.658  0.2915 -0.0729  0.1992
13110SOL    HW148298  12.075   5.622   0.621  0.6491 -0.9240 -1.2781
13110SOL    HW248299  12.221   5.603   0.586  1.6818  1.3322  1.4654
13111SOL     OW48300   7.095  11.187   2.042  0.2592 -0.2603 -0.4905
13111SOL    HW148301   7.157  11.240   2.091  1.1087 -1.5458 -0.1231
13111SOL    HW248302   7.094  11.225   1.954 -1.9229  2.6298  0.6064
13112SOL     OW48303   5.545   5.551   4.380 -0.0371 -0.4781 -0.3446
13112SOL    HW148304   5.636   5.581   4.377  0.1383 -1.0114 -2.8045
13112SOL    HW248305   5.524   5.547   4.473  3.0629 -2.1400  0.4311
13113SOL     OW48306   4.618   8.306   3.532 -0.4403 -0.3301  0.2078
13113SOL    HW148307   4.678   8.246   3.487 -0.3688 -0.7671  0.8608
13113SOL    HW248308   4.531   8.285   3.497 -0.1276  0.9795 -1.4670
13114SOL     OW48309  11.368   4.461   3.353 -0.4400 -0.4845  0.2299
13114SOL    HW148310  11.328   4.417   3.428 -0.8009  0.4097  0.5840
13114SOL    HW248311  11.352   4.554   3.369 -0.6566 -0.2895 -1.0396
13115SOL     OW48312   3.163   6.002   9.741  0.9859 -0.4601 -0.0044
13115SOL    HW148313   3.230   6.069   9.730  1.7475 -0.6697  2.7908
13115SOL    HW248314   3.190   5.932   9.682  1.6790  0.5671 -0.9525
13116SOL     OW48315   4.215   4.481  11.840 -0.3421  0.3669 -0.7440
13116SOL    HW148316   4.252   4.487  11.928 -0.3723 -1.7576 -0.5194
13116SOL    HW248317   4.126   4.514  11.849 -0.5569 -0.4192  0.2069
13117SOL     OW48318   0.862   5.620   3.648 -0.1110  0.1508 -0.2045
13117SOL    HW148319   0.823   5.548   3.598 -2.5786  0.4549  1.1331
13117SOL    HW248320   0.848   5.595   3.740 -0.1907  1.9167  0.2852
13118SOL     OW48321   6.284  10.367   1.407 -0.3592 -0.1627  0.3773
13118SOL    HW148322   6.332  10.310   1.467  0.8117  0.6584  0.2428
13118SOL    HW248323   6.333  10.449   1.406  0.3265 -0.5091 -2.5749
13119SOL     OW48324   2.160   4.301   5.337 -0.5673 -0.3584 -0.1994
13119SOL    HW148325   2.074   4.339   5.357  0.0621  1.2154 -0.3459
13119SOL    HW248326   2.209   4.307   5.418  0.2141  1.0953 -0.7397
13120SOL     OW48327   9.555   8.284   4.052  0.0410  0.1946 -0.5051
13120SOL    HW148328   9.540   8.367   4.005  1.7282  0.2344 -1.0404
13120SOL    HW248329   9.546   8.217   3.985 -2.3826 -0.1979  0.1359
13121SOL     OW48330  12.389   6.350  11.363 -0.4476  0.0405  0.0167
13121SOL    HW148331  12.328   6.294  11.411 -0.0468  0.4814  1.0681
13121SOL    HW248332  12.442   6.289  11.312  0.5030 -0.6437  1.7300
13122SOL     OW48333   3.126   7.277  11.554 -0.7039 -0.2081 -0.0140
13122SOL    HW148334   3.146   7.367  11.580 -0.0313  0.0293 -1.2973
13122SOL    HW248335   3.160   7.224  11.626 -0.6809  0.5300  0.5356
13123SOL     OW48336   5.601   9.470   9.054 -0.7893  0.2490  0.0941
13123SOL    HW148337   5.565   9.558   9.069  0.2513  0.9004 -1.1089
13123SOL    HW248338   5.668   9.460   9.121 -0.7489  0.4591  0.0855
13124SOL     OW48339   1.698  11.663   6.702 -0.1708 -0.5107 -0.0535
13124SOL    HW148340   1.638  11.621   6.640 -0.2716 -0.8127  0.2467
13124SOL    HW248341   1.714  11.597   6.769 -0.4122 -0.0342  0.4822
13125SOL     OW48342   3.630   2.879   5.939 -0.3526  0.6739 -0.1625
13125SOL    HW148343   3.693   2.917   5.878  1.0241  1.9888  1.9755
13125SOL    HW248344   3.627   2.939   6.013 -1.0491 -1.4346  1.6534
13126SOL     OW48345   9.707  11.334   4.909 -0.4006  0.0766 -0.3183
13126SOL    HW148346   9.768  11.369   4.843 -0.9785 -0.8778 -1.4008
13126SOL    HW248347   9.698  11.404   4.973  3.8081 -0.5877  1.3265
13127SOL     OW48348   3.505  11.113   4.658  0.0820  0.0744 -0.0801
13127SOL    HW148349   3.496  11.018   4.665  1.9969 -0.4542 -2.8679
13127SOL    HW248350   3.420  11.147   4.685 -0.4132 -2.3456  1.7296
13128SOL     OW48351  10.329  11.866  10.459 -0.6464  0.4861  0.2560
13128SOL    HW148352  10.408  11.880  10.511 -0.8284  1.2433  0.3390
13128SOL    HW248353  10.314  11.771  10.463 -0.2345  0.4440  0.9630
13129SOL     OW48354  11.935   2.727   9.563  0.0587 -0.2727 -0.5188
13129SOL    HW148355  11.849   2.700   9.529  0.2293  0.6001 -1.7080
13129SOL    HW248356  11.960   2.657   9.624 -1.3934 -0.6420 -0.3183
13130SOL     OW48357   8.261   9.440  11.661  1.2379 -0.2364 -0.3166
13130SOL    HW148358   8.320   9.514  11.676  3.8372 -1.5301 -2.9928
13130SOL    HW248359   8.307   9.365  11.700 -1.3183 -0.5881  2.3188
13131SOL     OW48360  10.221   0.815   2.579  0.0771  0.2282 -0.0582
13131SOL    HW148361  10.285   0.750   2.606 -0.1597 -0.0259 -0.1117
13131SOL    HW248362  10.274   0.891   2.554  0.3684 -0.0457 -0.2848
13132SOL     OW48363   3.762   9.312   8.514  0.4039 -0.2997  0.6502
13132SOL    HW148364   3.846   9.348   8.487  0.0605  1.5737  1.8920
13132SOL    HW248365   3.713   9.387   8.547 -2.5317 -0.9475 -1.7605
13133SOL     OW48366   8.353   2.606   9.306 -0.0436 -0.0148 -0.4580
13133SOL    HW148367   8.413   2.624   9.379 -0.6956  0.0056  0.0776
13133SOL    HW248368   8.267   2.598   9.347 -0.5054  0.5206 -1.2862
13134SOL     OW48369   6.063   4.566  10.500 -0.3606 -0.3868  0.2428
13134SOL    HW148370   6.063   4.475  10.530 -1.1379 -0.6465 -0.4685
13134SOL    HW248371   6.085   4.560  10.407 -0.0658  0.1923  0.2685
13135SOL     OW48372   3.587  11.277   7.761 -0.7750 -0.0443  0.3937
13135SOL    HW148373   3.553  11.290   7.672 -0.9541  1.2705  0.6265
13135SOL    HW248374   3.513  11.302   7.818 -0.5176 -0.4444  0.9077
13136SOL     OW48375   9.042   0.651  10.808  0.7212 -0.3535 -0.0699
13136SOL    HW148376   9.005   0.564  10.822 -0.5752  0.0632 -0.6995
13136SOL    HW248377   9.105   0.640  10.738  0.4338 -0.7586 -0.2663
13137SOL     OW48378  10.137   6.342   6.262 -0.1987 -0.1237  0.1845
13137SOL    HW148379  10.110   6.326   6.172 -0.6200 -1.3422  0.5035
13137SOL    HW248380  10.107   6.431   6.281 -0.1036  0.1484 -0.8653
13138SOL     OW48381   5.226   2.199   1.966  0.1131  0.1226 -0.4362
13138SOL    HW148382   5.234   2.197   1.871  0.9679  2.2548 -0.4834
13138SOL    HW248383   5.317   2.201   1.998 -0.1320 -1.9097  0.5225
13139SOL     OW48384   4.719   4.455   5.853  0.6786  0.2048  0.5609
13139SOL    HW148385   4.675   4.425   5.933 -0.2854  1.2906  0.4715
13139SOL    HW248386   4.765   4.378   5.820 -0.6046 -0.8068  1.0516
13140SOL     OW48387   5.390  12.108   8.594 -0.2040  0.0293 -0.3804
13140SOL    HW148388   5.378  12.185   8.538 -1.8864 -0.1865 -0.3489
13140SOL    HW248389   5.306  12.096   8.637  0.0417 -1.8231 -0.3499
13141SOL     OW48390   2.326   4.216   1.949  0.1534 -0.3283  0.7129
13141SOL    HW148391   2.316   4.303   1.987 -0.1047 -0.8621  1.9091
13141SOL    HW248392   2.301   4.227   1.857  2.9280  1.4618  0.0559
13142SOL     OW48393   1.830  11.329  12.447  0.0160 -0.1970 -0.7381
13142SOL    HW148394   1.913  11.374  12.435  0.0347 -0.1602 -0.4771
13142SOL    HW248395   1.800  11.356  12.534  0.4016 -1.2882 -0.2544
13143SOL     OW48396   4.845   5.802   3.839 -0.4131 -0.2145  0.2851
13143SOL    HW148397   4.830   5.709   3.856  0.8231 -1.0044 -2.4356
13143SOL    HW248398   4.779   5.825   3.774  1.8561 -0.3757 -2.1979
13144SOL     OW48399   0.596   7.739   5.491  0.4900  0.2545 -0.1487
13144SOL    HW148400   0.505   7.720   5.516  0.5075  0.5330  0.1275
13144SOL    HW248401   0.593   7.745   5.396  0.4736 -1.0727 -0.2543
13145SOL     OW48402   5.634  10.769   9.546 -0.0174 -0.3142 -0.1147
13145SOL    HW148403   5.677  10.792   9.628  0.0981 -0.4645 -0.1333
13145SOL    HW248404   5.692  10.803   9.477 -0.4265  0.3744 -0.1301
13146SOL     OW48405   6.112  10.465   3.588 -0.4868 -0.2718  0.6789
13146SOL    HW148406   6.119  10.559   3.568  0.0245 -0.5428 -0.5356
13146SOL    HW248407   6.026  10.440   3.554 -0.5140 -0.2916  0.7653
13147SOL     OW48408   3.859   1.782   0.969  0.0739  0.5411 -0.0774
13147SOL    HW148409   3.911   1.729   0.908 -0.7728 -1.3618  0.7414
13147SOL    HW248410   3.883   1.748   1.055 -0.1769  1.8446  0.5191
13148SOL     OW48411   4.290   4.658   7.645  0.0307 -0.5955 -0.3355
13148SOL    HW148412   4.232   4.660   7.569 -2.3642  0.6691  1.3964
13148SOL    HW248413   4.277   4.742   7.688  2.8421 -0.4602  0.4570
13149SOL     OW48414   2.102  10.704   2.503 -0.3621 -0.0120  0.6988
13149SOL    HW148415   2.140  10.623   2.470 -0.1977 -0.2500  1.4704
13149SOL    HW248416   2.033  10.677   2.563  0.7313  0.3900  2.1830
13150SOL     OW48417   2.757   4.159   4.251 -1.0813  0.1823  0.7419
13150SOL    HW148418   2.760   4.211   4.331 -0.3842  1.2297  0.0656
13150SOL    HW248419   2.666   4.166   4.221 -0.6694  2.4059 -0.1836
13151SOL     OW48420  11.926   1.882   1.488 -0.1160 -0.1586 -0.2925
13151SOL    HW148421  11.877   1.929   1.421 -0.5056 -0.9925 -0.6085
13151SOL    HW248422  11.907   1.929   1.570  1.5376  1.7652 -0.9551
13152SOL     OW48423   9.086   1.975   3.514  0.3682  0.3881  0.2095
13152SOL    HW148424   9.007   1.935   3.477 -0.1131  1.6490 -0.1814
13152SOL    HW248425   9.130   1.903   3.560 -0.3368 -0.6236 -0.6519
13153SOL     OW48426  10.905   0.465   8.375  0.2074  0.1673  0.0999
13153SOL    HW148427  10.995   0.437   8.391  0.6058  0.4156 -1.4850
13153SOL    HW248428  10.851   0.389   8.395  0.7923 -0.0783  0.7611
13154SOL     OW48429   5.606   8.980   7.151  0.5333  0.3495  0.5117
13154SOL    HW148430   5.630   8.899   7.196 -0.2972 -0.3679 -0.3147
13154SOL    HW248431   5.511   8.976   7.144  0.6667  0.1978 -1.7494
13155SOL     OW48432  11.237   6.572  12.180 -0.7327 -0.3500 -0.2282
13155SOL    HW148433  11.291   6.493  12.184 -1.9945 -1.2870 -0.7779
13155SOL    HW248434  11.272   6.629  12.248 -0.9003 -2.1147  1.4151
13156SOL     OW48435  12.211   6.403  10.102 -0.4348  0.1613  0.3784
13156SOL    HW148436  12.148   6.406  10.029 -0.5215 -1.6272  0.3331
13156SOL    HW248437  12.169   6.347  10.167  0.6818 -0.2791  0.7495
13157SOL     OW48438   3.645   5.733   9.642 -0.8759 -0.6194 -0.2416
13157SOL    HW148439   3.581   5.805   9.644 -0.2290 -0.0227 -0.5432
13157SOL    HW248440   3.600   5.661   9.685 -2.1228 -0.5231 -1.2992
13158SOL     OW48441   8.378   9.439  10.145 -0.4014 -0.4548  0.4368
13158SOL    HW148442   8.379   9.459  10.239  0.0820  1.0751  0.1358
13158SOL    HW248443   8.412   9.518  10.104 -3.0532 -0.0441 -1.2327
13159SOL     OW48444   3.463  11.650   3.995  0.1049 -0.5070  0.0917
13159SOL    HW148445   3.507  11.719   3.946  0.7035 -0.3752  0.8014
13159SOL    HW248446   3.506  11.569   3.965 -0.8276 -0.6382 -0.9933
13160SOL     OW48447   7.421  11.514   6.678  0.8018 -0.4710 -0.3000
13160SOL    HW148448   7.472  11.569   6.619 -1.7741  2.4622 -0.0280
13160SOL    HW248449   7.377  11.575   6.737  0.2423 -3.0564  2.1951
13161SOL     OW48450   1.231  10.110   4.311 -0.0516 -0.0566 -0.3905
13161SOL    HW148451   1.236  10.034   4.369 -0.5744  0.4370  0.3146
13161SOL    HW248452   1.146  10.150   4.331  0.9951  1.7705  0.5940
13162SOL     OW48453   3.248  11.344  11.182  0.0167  0.3037 -0.0450
13162SOL    HW148454   3.275  11.257  11.150  0.6783  1.1776 -2.0512
13162SOL    HW248455   3.153  11.339  11.188  0.1607 -1.2631  2.2088
13163SOL     OW48456   9.166   9.240   6.756  0.0373  0.8624 -0.9488
13163SOL    HW148457   9.189   9.158   6.712  0.9997  0.5547  0.0763
13163SOL    HW248458   9.206   9.308   6.702  2.8509  0.3833  0.3413
13164SOL     OW48459   0.294   0.323  11.549  0.4793  0.0249  0.0078
13164SOL    HW148460   0.367   0.333  11.609 -0.5048 -1.4888  1.5723
13164SOL    HW248461   0.333   0.318  11.463  2.1435  0.1151  0.7309
13165SOL     OW48462   6.126   2.657   2.964 -0.3516  0.0544 -0.3618
13165SOL    HW148463   6.207   2.663   3.014 -0.6638  1.6470  0.0086
13165SOL    HW248464   6.139   2.582   2.906  0.5795 -0.9782  1.1005
13166SOL     OW48465   1.478   6.949   1.191  0.4607  0.5563 -0.3535
13166SOL    HW148466   1.437   6.958   1.105  1.8807  0.6496 -1.0534
13166SOL    HW248467   1.409   6.972   1.253 -0.8588 -0.3813 -1.4054
13167SOL     OW48468   5.535  11.572   0.778 -0.2004  1.1658  0.1126
13167SOL    HW148469   5.489  11.542   0.857 -0.7659 -2.1493 -1.2869
13167SOL    HW248470   5.465  11.586   0.714  0.4128  0.1824 -0.8132
13168SOL     OW48471   1.803   9.569   5.755 -0.2365  0.1226  0.5507
13168SOL    HW148472   1.761   9.562   5.840 -1.1393  0.3865  0.1379
13168SOL    HW248473   1.759   9.643   5.713  0.5478  0.3144  0.0536
13169SOL     OW48474   7.503   4.372   3.484  0.4996 -0.2799 -0.1645
13169SOL    HW148475   7.496   4.440   3.551  0.0045 -0.4799 -0.0148
13169SOL    HW248476   7.581   4.397   3.434  0.8877 -0.1445  0.4926
13170SOL     OW48477  11.351   9.494   3.177 -0.0860 -0.8050  0.5679
13170SOL    HW148478  11.417   9.426   3.188 -0.5738 -1.1850  1.1917
13170SOL    HW248479  11.324   9.487   3.085  0.9078 -0.4785  0.2368
13171SOL     OW48480   1.865   6.161   3.098 -0.2219 -0.0454 -0.3169
13171SOL    HW148481   1.819   6.239   3.129 -0.8721 -1.1691  1.6939
13171SOL    HW248482   1.925   6.194   3.031  1.2948  2.6249  2.1049
13172SOL     OW48483  10.913   1.552   3.411  0.1794 -0.2378  0.1557
13172SOL    HW148484  10.876   1.564   3.323 -1.5639 -0.0818  0.8693
13172SOL    HW248485  11.007   1.567   3.400 -0.0838  0.3339 -1.5733
13173SOL     OW48486   8.740  10.699   8.731 -0.2110  0.7421 -0.1102
13173SOL    HW148487   8.647  10.685   8.711  0.0834 -1.0570 -0.4211
13173SOL    HW248488   8.783  10.702   8.646  0.6159 -3.6604 -0.0862
13174SOL     OW48489   0.939   2.575   2.995  0.0166 -0.5382  0.2667
13174SOL    HW148490   0.860   2.629   2.993 -1.8227 -2.9066  2.3098
13174SOL    HW248491   0.987   2.604   3.072 -1.5512 -2.3983  2.0432
13175SOL     OW48492   8.808   1.141   5.966 -0.0697  0.0844 -0.1895
13175SOL    HW148493   8.716   1.119   5.951 -0.1439  0.8235 -0.9476
13175SOL    HW248494   8.814   1.162   6.059  0.0259 -3.0829  0.6054
13176SOL     OW48495   0.623   3.090   6.976 -0.3490  0.0432 -0.5189
13176SOL    HW148496   0.611   2.997   6.955 -1.6870 -0.0740  0.6326
13176SOL    HW248497   0.535   3.121   7.000  0.4388  1.0531  1.2613
13177SOL     OW48498  10.109   4.587  10.549  0.3204 -0.2172  0.0060
13177SOL    HW148499  10.118   4.649  10.477 -1.4273 -1.1348 -1.0762
13177SOL    HW248500  10.105   4.501  10.506 -0.5955 -0.7973  1.2092
13178SOL     OW48501   1.782   3.487   7.411  0.1589 -0.3790  0.3659
13178SOL    HW148502   1.784   3.395   7.384 -0.2272 -1.4902  3.7381
13178SOL    HW248503   1.689   3.511   7.408  0.0244 -0.7378  1.2911
13179SOL     OW48504  10.057   8.127   5.434  0.5156  0.5198 -0.1488
13179SOL    HW148505   9.964   8.148   5.436 -0.8117 -3.8056 -2.9928
13179SOL    HW248506  10.093   8.181   5.363 -0.0268  1.3650  0.2026
13180SOL     OW48507  11.369   4.066   6.601  0.2580 -0.0495  0.1190
13180SOL    HW148508  11.462   4.085   6.597  0.2233  0.1401  0.1881
13180SOL    HW248509  11.351   4.014   6.523  0.4515 -0.2187  0.1878
13181SOL     OW48510   9.163   1.351   0.880 -0.3177  0.0571  0.1334
13181SOL    HW148511   9.110   1.311   0.811 -0.3734 -1.5549  1.0757
13181SOL    HW248512   9.117   1.432   0.902 -0.2878  0.6233 -1.6957
13182SOL     OW48513   4.175   9.147   2.725 -0.3442 -0.3070  0.2476
13182SOL    HW148514   4.258   9.100   2.730 -0.9939 -1.4572  0.5141
13182SOL    HW248515   4.134   9.132   2.810 -1.1923 -0.4728 -0.1801
13183SOL     OW48516   0.523   7.490   8.901 -0.1268  0.9537  0.0833
13183SOL    HW148517   0.428   7.484   8.892 -0.1105 -0.2303  0.4398
13183SOL    HW248518   0.543   7.432   8.975  1.0435 -0.2853 -1.1675
13184SOL     OW48519   9.935   8.501   0.909  0.5153  0.4178  0.7313
13184SOL    HW148520   9.994   8.442   0.956 -0.2643  0.6434  2.0549
13184SOL    HW248521   9.881   8.443   0.855  0.5274  0.0081  1.1473
13185SOL     OW48522   0.874  12.350   8.392  0.4944  0.1621 -0.4656
13185SOL    HW148523   0.926  12.427   8.415  1.2436 -0.2604 -0.7171
13185SOL    HW248524   0.890  12.337   8.299  1.3677 -1.0253 -0.1671
13186SOL     OW48525   8.891   9.170   4.344 -0.3476  0.2983 -0.1596
13186SOL    HW148526   8.809   9.147   4.300 -1.1800  0.5734  1.1753
13186SOL    HW248527   8.869   9.246   4.397  0.7458  0.2855  0.3390
13187SOL     OW48528   3.326   8.577  11.954 -0.3162  0.0390  0.5005
13187SOL    HW148529   3.349   8.534  12.037  2.7060  0.8242  0.1802
13187SOL    HW248530   3.355   8.668  11.966 -0.5470  0.3508 -1.1400
13188SOL     OW48531   0.284   9.817   7.423 -0.1759  0.0382  0.5665
13188SOL    HW148532   0.293   9.881   7.352 -1.3028  0.4906  0.8201
13188SOL    HW248533   0.335   9.742   7.393  1.2095  1.0506  0.2841
13189SOL     OW48534   2.259   9.512  11.775 -0.6484 -0.3370  0.0187
13189SOL    HW148535   2.311   9.452  11.828 -0.3637  0.2980  0.4632
13189SOL    HW248536   2.175   9.518  11.821 -0.6018 -0.2281  0.0894
13190SOL     OW48537   4.550   0.702   1.370  0.3719 -0.3199  0.1881
13190SOL    HW148538   4.467   0.729   1.331 -0.4097  0.1410  2.0368
13190SOL    HW248539   4.571   0.619   1.327 -0.9096 -0.3048 -0.5218
13191SOL     OW48540   8.165   1.846   5.054  0.2810 -0.4334  0.8981
13191SOL    HW148541   8.119   1.839   4.970  1.5905  0.0509  0.1160
13191SOL    HW248542   8.253   1.812   5.037  1.4100  2.0193  1.3726
13192SOL     OW48543   3.805   6.062   2.909  0.0926  0.2124 -0.6482
13192SOL    HW148544   3.816   5.968   2.891  0.6072 -0.0613  0.9293
13192SOL    HW248545   3.767   6.065   2.996  0.9063  1.4815 -0.3103
13193SOL     OW48546   8.728   1.546  11.880 -0.6406 -0.4285  0.2408
13193SOL    HW148547   8.707   1.454  11.864  1.3244 -0.9305  0.2780
13193SOL    HW248548   8.685   1.567  11.963 -2.6783 -0.7119 -0.6859
13194SOL     OW48549   1.533  11.504   1.841 -0.1616  0.5408  0.1289
13194SOL    HW148550   1.558  11.566   1.774  1.5384  0.6375  0.8041
13194SOL    HW248551   1.442  11.481   1.821 -0.1090  1.5765 -1.3838
13195SOL     OW48552   6.379   6.061   9.049  0.5131 -0.0144 -0.4089
13195SOL    HW148553   6.406   6.013   8.971 -1.7860 -1.3753 -0.4672
13195SOL    HW248554   6.341   6.142   9.015 -0.1677 -0.4484 -0.7057
13196SOL     OW48555   9.079   6.954   0.232  0.7200 -0.0538 -0.4576
13196SOL    HW148556   9.083   6.988   0.142 -3.5821  0.2520 -0.7381
13196SOL    HW248557   9.116   6.866   0.227  1.6587  0.3989 -2.2263
13197SOL     OW48558   7.893   9.488   3.543  0.0355  0.2618  0.5756
13197SOL    HW148559   7.947   9.547   3.491 -0.1950 -1.3276 -1.6496
13197SOL    HW248560   7.947   9.410   3.554 -0.3863  0.1161  1.7454
13198SOL     OW48561   1.709  11.120   3.448  0.2395 -0.4084  0.2069
13198SOL    HW148562   1.708  11.070   3.530  1.1761 -1.5443 -0.4541
13198SOL    HW248563   1.631  11.091   3.401 -0.4573  0.4542  0.7872
13199SOL     OW48564   0.768   1.229   1.124 -0.2312  0.3997 -0.3098
13199SOL    HW148565   0.741   1.314   1.159  0.1885  0.5122 -0.2511
13199SOL    HW248566   0.812   1.251   1.042  0.5991  0.3133  0.1026
13200SOL     OW48567   4.073   1.515   1.931 -0.0444 -0.1299  1.0618
13200SOL    HW148568   4.006   1.447   1.917  0.6199 -0.7016  0.6013
13200SOL    HW248569   4.028   1.597   1.911 -1.1596 -0.3149  2.6073
13201SOL     OW48570  10.338   8.132   2.915  0.3331 -0.1428  0.5220
13201SOL    HW148571  10.303   8.111   2.829  1.1684  2.9258 -0.7399
13201SOL    HW248572  10.414   8.075   2.925 -0.2548 -1.1139 -0.4047
13202SOL     OW48573   6.616   6.982   9.777  0.1778 -0.7083  0.4320
13202SOL    HW148574   6.695   6.931   9.795  0.9172  0.1558 -0.2848
13202SOL    HW248575   6.604   6.973   9.682  0.6070  0.8253  0.2043
13203SOL     OW48576  11.367   7.957   6.706 -0.4147  0.4916  0.6155
13203SOL    HW148577  11.385   7.905   6.627 -0.0176 -1.4656  1.9109
13203SOL    HW248578  11.295   8.015   6.681 -0.2038  0.0286 -1.2093
13204SOL     OW48579  10.537   7.104   7.909 -0.7800 -0.3930  0.1194
13204SOL    HW148580  10.573   7.172   7.853  0.1243 -1.5807 -0.8018
13204SOL    HW248581  10.442   7.114   7.902 -0.6663  1.2728  0.6704
13205SOL     OW48582   5.721   8.535  12.089  0.1030  0.0072  0.0843
13205SOL    HW148583   5.773   8.560  12.165 -0.7018  0.0618  0.6412
13205SOL    HW248584   5.743   8.444  12.073 -0.5154 -0.3339  1.0784
13206SOL     OW48585   7.356   9.901   6.573 -0.0685  0.2065  0.0646
13206SOL    HW148586   7.409   9.961   6.627  2.7167 -1.9728 -0.0413
13206SOL    HW248587   7.390   9.913   6.485  0.1722 -1.1370 -0.0362
13207SOL     OW48588   7.660  10.143   7.190  0.0165 -0.0948 -0.6537
13207SOL    HW148589   7.690  10.067   7.239 -1.3343  1.0133  2.2056
13207SOL    HW248590   7.567  10.127   7.175 -0.7166  1.5630  1.5053
13208SOL     OW48591  10.212  11.767  10.023  0.2095  0.3327 -0.5971
13208SOL    HW148592  10.251  11.825  10.088 -0.3756 -1.9324  1.9432
13208SOL    HW248593  10.287  11.721   9.984  0.6083  2.0986 -2.0857
13209SOL     OW48594   1.449   8.791  12.335  0.1987  0.4920  0.0324
13209SOL    HW148595   1.450   8.703  12.372  1.3221  0.9107  1.0726
13209SOL    HW248596   1.356   8.813  12.329 -0.0682 -0.3262  0.8526
13210SOL     OW48597   8.685   9.010   7.540 -0.2990  0.2037 -0.1025
13210SOL    HW148598   8.722   9.089   7.580  1.7332 -1.9172  2.6010
13210SOL    HW248599   8.592   9.013   7.564 -0.0024  1.1826  1.0591
13211SOL     OW48600   8.160   6.522   3.030  0.3056 -0.4936 -0.9336
13211SOL    HW148601   8.108   6.503   3.108  0.6132  0.3492 -0.5092
13211SOL    HW248602   8.250   6.526   3.062  0.4853 -0.6073 -1.4206
13212SOL     OW48603   6.953   1.391   4.539 -0.3070  1.0635 -0.7311
13212SOL    HW148604   6.991   1.325   4.598  1.3408  2.4966 -0.1210
13212SOL    HW248605   6.902   1.448   4.596 -1.3207  0.6331 -1.1867
13213SOL     OW48606   9.480  11.039   4.253  0.4879 -0.8780 -0.1298
13213SOL    HW148607   9.464  11.126   4.289 -1.3861 -1.0394 -0.5036
13213SOL    HW248608   9.575  11.027   4.263  0.5216  0.4145  1.6653
13214SOL     OW48609   0.719  10.683  10.788 -0.4401  0.6953  0.2591
13214SOL    HW148610   0.660  10.756  10.805 -1.4344 -0.3128  1.3291
13214SOL    HW248611   0.671  10.606  10.818  0.3524 -0.4809 -1.3491
13215SOL     OW48612   5.895   9.888   8.659 -0.1242 -0.2680  0.5042
13215SOL    HW148613   5.877   9.945   8.585  0.7550  2.0998  2.0044
13215SOL    HW248614   5.990   9.891   8.670 -0.0359 -2.0863  0.6274
13216SOL     OW48615   0.866  10.468   2.545 -0.1753  0.1926  0.0902
13216SOL    HW148616   0.913  10.391   2.515 -0.7887 -0.4908  0.8184
13216SOL    HW248617   0.933  10.523   2.585  0.0047 -0.8812  1.3440
13217SOL     OW48618   2.575   0.983   3.066 -0.1280 -0.1744 -0.4314
13217SOL    HW148619   2.641   0.982   2.997 -1.5484  0.9776 -1.8818
13217SOL    HW248620   2.560   0.891   3.087 -1.0910 -0.7301 -3.1428
13218SOL     OW48621   0.585   2.897   8.390 -0.1045 -0.8744 -0.3982
13218SOL    HW148622   0.623   2.985   8.398  3.0447 -2.1541  0.1726
13218SOL    HW248623   0.520   2.892   8.460 -2.3165  1.7811 -2.0496
13219SOL     OW48624   8.899  10.916  11.054 -0.1166 -0.0893 -0.5234
13219SOL    HW148625   8.808  10.887  11.047 -0.0549 -1.1270  2.0200
13219SOL    HW248626   8.896  11.010  11.033 -1.9568  0.1256  0.4827
13220SOL     OW48627   3.572   1.737   2.634 -0.5645 -0.2979 -0.1342
13220SOL    HW148628   3.508   1.672   2.662 -0.2161 -0.3835  0.5028
13220SOL    HW248629   3.526   1.792   2.571 -0.9817 -0.9178 -0.3763
13221SOL     OW48630   5.299   2.365   5.409 -0.3868  0.1301  0.4801
13221SOL    HW148631   5.258   2.358   5.323 -0.5356  1.1824  0.4523
13221SOL    HW248632   5.344   2.450   5.407  2.7537 -1.4090  0.1203
13222SOL     OW48633  11.524   4.220   3.323 -0.3272 -0.4199  0.5437
13222SOL    HW148634  11.477   4.208   3.241 -1.0548 -0.6212  0.9768
13222SOL    HW248635  11.497   4.306   3.354  0.9163  0.1922 -0.0361
13223SOL     OW48636   6.715   7.598   1.176  0.1887 -0.4413  0.0734
13223SOL    HW148637   6.682   7.675   1.223 -0.0893  0.3092 -1.3249
13223SOL    HW248638   6.638   7.562   1.133  0.5170 -0.8985 -0.1365
13224SOL     OW48639   8.205   5.781   3.394 -0.4357 -0.3066 -0.2590
13224SOL    HW148640   8.114   5.781   3.365 -0.1924  0.2418 -1.0345
13224SOL    HW248641   8.212   5.856   3.453 -0.5348 -0.4918 -0.0050
13225SOL     OW48642   2.353   9.602   3.077  0.1422 -0.0127  0.2509
13225SOL    HW148643   2.306   9.593   3.160 -2.0070  0.5095 -0.8562
13225SOL    HW248644   2.321   9.530   3.022  1.8955 -0.6441 -0.0277
13226SOL     OW48645   5.955   0.413   7.131 -0.1224 -0.1827 -0.0170
13226SOL    HW148646   6.017   0.358   7.083  2.4137  1.0236  1.6456
13226SOL    HW248647   6.007   0.451   7.202 -3.3217 -0.7997  2.9156
13227SOL     OW48648   5.993   1.128  11.859 -0.1981  0.0763 -0.1851
13227SOL    HW148649   5.957   1.039  11.855 -0.0365 -0.0174  0.3677
13227SOL    HW248650   6.070   1.125  11.802 -1.0757  0.2976 -1.4450
13228SOL     OW48651   2.764   9.204   4.268  0.1955  0.0993 -0.1364
13228SOL    HW148652   2.812   9.277   4.227  0.7679 -0.4100 -0.3883
13228SOL    HW248653   2.721   9.244   4.344 -2.6037  1.5512 -2.2988
13229SOL     OW48654   8.741  12.237   7.646 -0.1909  0.5883  0.2164
13229SOL    HW148655   8.828  12.202   7.627 -1.0806 -2.4004  1.1272
13229SOL    HW248656   8.715  12.195   7.727 -2.9522  0.4677 -0.6190
13230SOL     OW48657   6.316  11.191   3.405  0.6619  0.1510 -0.3674
13230SOL    HW148658   6.314  11.103   3.368  1.7213 -0.2584  0.4935
13230SOL    HW248659   6.226  11.206   3.436  0.4162 -0.5240 -0.7463
13231SOL     OW48660   4.396  12.053   6.008 -0.0350  0.1705 -0.0324
13231SOL    HW148661   4.410  12.117   6.077  0.1457  1.3134 -1.0883
13231SOL    HW248662   4.483  12.022   5.985 -0.0011  0.5168 -0.3925
13232SOL     OW48663   9.789   2.209   3.116  0.5948 -0.2931  0.3659
13232SOL    HW148664   9.719   2.193   3.179 -0.1733  1.7452  0.1071
13232SOL    HW248665   9.779   2.139   3.051 -2.0137  0.5662 -0.3088
13233SOL     OW48666  11.348   7.843   2.511 -0.1518  0.5821  0.2494
13233SOL    HW148667  11.297   7.913   2.470  3.3240  2.8536 -0.6560
13233SOL    HW248668  11.355   7.776   2.443 -0.3462  1.1123 -0.3113
13234SOL     OW48669  11.665   3.964   7.927  0.5029  0.4015  0.1912
13234SOL    HW148670  11.576   3.987   7.900  0.0723  1.1247  2.0443
13234SOL    HW248671  11.655   3.885   7.979  1.2719 -0.8114 -1.4208
13235SOL     OW48672   0.279   9.107   6.208  0.3191  0.2459 -0.4687
13235SOL    HW148673   0.211   9.040   6.208  1.0436 -0.5372 -1.7233
13235SOL    HW248674   0.238   9.183   6.166 -0.3038  0.3808  0.3665
13236SOL     OW48675   9.822   8.956   5.797 -0.0496  0.5104 -0.2519
13236SOL    HW148676   9.795   8.953   5.705 -0.6276 -1.4110 -0.0531
13236SOL    HW248677   9.916   8.977   5.793  0.3325 -1.2030 -1.4061
13237SOL     OW48678   2.084  12.133   3.974  0.2659  0.1320 -0.3668
13237SOL    HW148679   2.173  12.101   3.982 -0.0036 -0.5359 -0.0133
13237SOL    HW248680   2.029  12.059   3.997 -0.3800  0.6141 -0.3194
13238SOL     OW48681   7.588   9.129   2.999  0.1028 -0.9186  0.4782
13238SOL    HW148682   7.660   9.184   3.031  0.1310 -0.6437 -0.0506
13238SOL    HW248683   7.597   9.129   2.904 -2.2908  1.5521  0.1060
13239SOL     OW48684   2.306   7.048   0.161 -0.4209  0.1636  0.6642
13239SOL    HW148685   2.356   7.089   0.090  0.8599  0.7027  1.8267
13239SOL    HW248686   2.247   7.117   0.192  0.5552  0.6352  1.5234
13240SOL     OW48687  11.344  11.888   1.196 -0.4550 -0.5844  0.0883
13240SOL    HW148688  11.275  11.898   1.130 -0.6256 -0.9661  0.2040
13240SOL    HW248689  11.406  11.826   1.158  1.4986  2.0690 -1.3547
13241SOL     OW48690  11.526  10.102   0.768  0.4832  0.0510  0.0842
13241SOL    HW148691  11.450  10.082   0.823  0.8410  0.9978  0.9583
13241SOL    HW248692  11.562  10.016   0.745 -0.9002 -0.4175 -0.4441
13242SOL     OW48693   7.184   0.102   9.028 -0.4174 -0.4597  0.7136
13242SOL    HW148694   7.206   0.101   9.121  1.0439  1.1260  0.4272
13242SOL    HW248695   7.191   0.011   9.000  0.4118 -0.7684  1.8732
13243SOL     OW48696   5.577   3.972   1.207 -0.0727 -0.4827 -0.5203
13243SOL    HW148697   5.592   3.919   1.286  0.8297 -2.8416 -2.1782
13243SOL    HW248698   5.643   4.041   1.212  0.7503 -1.2993  0.2247
13244SOL     OW48699  10.618   8.524   8.040  0.4529  0.5666  0.3077
13244SOL    HW148700  10.602   8.456   7.975 -0.7553  0.0990  1.0648
13244SOL    HW248701  10.535   8.571   8.048  1.4233  2.6112 -0.6709
13245SOL     OW48702   6.185   9.053   3.859  0.1776 -0.9049 -0.4641
13245SOL    HW148703   6.219   8.972   3.896  3.8817  1.5774  2.3006
13245SOL    HW248704   6.141   9.096   3.931  0.0138  0.4005 -1.3035
13246SOL     OW48705   1.785   7.348   4.210  0.2552 -0.3924  0.6081
13246SOL    HW148706   1.871   7.363   4.171  0.1636 -2.1121 -0.3423
13246SOL    HW248707   1.795   7.266   4.259 -1.1340 -1.3287 -0.5737
13247SOL     OW48708   5.518   5.078   4.720  0.1714  0.1543 -0.1174
13247SOL    HW148709   5.534   5.124   4.802  0.3567  2.0802 -1.1900
13247SOL    HW248710   5.478   5.143   4.663  1.8265 -0.5429 -2.1876
13248SOL     OW48711   8.124  11.779   5.875 -0.1312  0.0502  0.0244
13248SOL    HW148712   8.118  11.822   5.790  0.5147 -1.1386 -0.6476
13248SOL    HW248713   8.100  11.688   5.858  4.1171 -1.2987  0.1688
13249SOL     OW48714   5.874   7.863   3.713 -0.4903  0.3587 -0.4104
13249SOL    HW148715   5.847   7.884   3.803 -2.4240  0.1248 -0.8788
13249SOL    HW248716   5.843   7.774   3.700  1.4006 -0.2712 -0.7429
13250SOL     OW48717   2.901   1.905   6.206  0.3591  0.1286  0.4746
13250SOL    HW148718   2.977   1.942   6.249 -1.0285  2.1065  1.3919
13250SOL    HW248719   2.843   1.878   6.277  0.3853 -1.8374 -0.1955
13251SOL     OW48720   0.674   1.945   3.878 -0.1698  1.1342 -0.2210
13251SOL    HW148721   0.759   1.925   3.838  0.3660  0.3115  1.2829
13251SOL    HW248722   0.611   1.897   3.825  0.2925  1.6020 -1.2373
13252SOL     OW48723  10.808   9.195   7.638  0.5048  0.1192 -0.1099
13252SOL    HW148724  10.800   9.253   7.714  0.0324 -0.4725  0.2953
13252SOL    HW248725  10.871   9.128   7.666 -1.1743 -1.2540  0.5015
13253SOL     OW48726   2.085   9.628   5.765  0.4024  0.3590  0.0622
13253SOL    HW148727   1.991   9.629   5.787  0.5783  0.9450  0.8332
13253SOL    HW248728   2.095   9.552   5.708 -0.6218  0.5387 -0.3883
13254SOL     OW48729   0.773   9.981   9.137 -0.1634  0.3296 -0.0638
13254SOL    HW148730   0.688   9.936   9.133 -0.2235  0.4756 -0.5759
13254SOL    HW248731   0.784  10.018   9.049 -1.2595  3.4285  0.9760
13255SOL     OW48732   8.156  10.068   9.069 -0.2578 -0.8166  0.2489
13255SOL    HW148733   8.183  10.089   9.158  0.1362  0.0922 -0.0802
13255SOL    HW248734   8.067  10.034   9.079 -0.0337 -1.2000  1.0365
13256SOL     OW48735  11.484   6.643  11.596 -0.2536  0.2845  0.4121
13256SOL    HW148736  11.549   6.640  11.526 -0.5678 -2.4776  0.1320
13256SOL    HW248737  11.451   6.733  11.594  4.5813  2.4329  1.6280
13257SOL     OW48738   3.884   7.061   8.475  0.1371 -0.3732  0.0463
13257SOL    HW148739   3.950   7.019   8.529 -2.1411 -3.8389  0.4710
13257SOL    HW248740   3.902   7.030   8.386  0.1289  0.1469 -0.1439
13258SOL     OW48741   5.238   7.933   7.284  0.3345 -0.3693 -0.4175
13258SOL    HW148742   5.150   7.903   7.265 -0.0046  0.3438 -0.0287
13258SOL    HW248743   5.263   7.986   7.209  0.2564 -0.2158 -0.3368
13259SOL     OW48744   9.132   5.628  11.059 -0.1201 -0.3276 -0.3334
13259SOL    HW148745   9.044   5.592  11.076 -0.3098  0.1678 -0.2605
13259SOL    HW248746   9.189   5.583  11.122 -0.1318 -1.4254 -1.0694
13260SOL     OW48747  12.189   8.334   2.691  0.3226 -0.1585  0.2532
13260SOL    HW148748  12.143   8.398   2.635 -0.5969 -0.2360  0.9057
13260SOL    HW248749  12.221   8.268   2.629  1.4984  1.0287 -0.4686
13261SOL     OW48750  12.328   5.231   0.242  0.8714  0.0394 -1.1983
13261SOL    HW148751  12.363   5.215   0.329 -1.8089  1.1722  0.2102
13261SOL    HW248752  12.377   5.171   0.185  1.5227 -2.0371  1.3310
13262SOL     OW48753   7.315   8.615   1.300 -0.5151  0.1370  0.1536
13262SOL    HW148754   7.236   8.654   1.337 -2.2347 -1.6053 -1.4558
13262SOL    HW248755   7.328   8.660   1.217  1.0924  1.3987  1.0313
13263SOL     OW48756   5.548   3.448   0.280 -0.5088 -0.2784 -0.3625
13263SOL    HW148757   5.557   3.425   0.373 -1.8528 -1.7020 -0.5395
13263SOL    HW248758   5.599   3.381   0.234  1.2958  1.2041 -0.6471
13264SOL     OW48759   9.149   6.365   7.362  0.2034  0.1881  0.3154
13264SOL    HW148760   9.227   6.365   7.307  1.6497  0.0727  2.2339
13264SOL    HW248761   9.182   6.350   7.451 -2.0159  0.1164  1.2098
13265SOL     OW48762   4.168   8.857   8.250  0.1609  0.2530  0.0456
13265SOL    HW148763   4.101   8.866   8.317  0.0480 -1.6079  0.2155
13265SOL    HW248764   4.126   8.810   8.178  1.0508 -0.2395 -0.1741
13266SOL     OW48765   8.918   1.959   2.613 -0.0428  0.3694  0.0535
13266SOL    HW148766   8.877   1.979   2.529 -0.0075 -1.4826 -0.4394
13266SOL    HW248767   8.883   2.025   2.673 -0.5217  1.3653 -1.2649
13267SOL     OW48768   1.974   1.243  10.931 -0.4746  0.3660 -0.1116
13267SOL    HW148769   2.024   1.169  10.967 -1.2303 -0.4090 -0.6102
13267SOL    HW248770   1.940   1.210  10.848 -2.1311  0.7213  0.3884
13268SOL     OW48771   0.218   1.030   2.095  0.1560  0.2791 -0.1212
13268SOL    HW148772   0.207   1.084   2.016 -3.5421 -0.0419 -0.0188
13268SOL    HW248773   0.310   1.041   2.119  0.6552  2.9633 -2.6305
13269SOL     OW48774   8.627  11.257   5.116 -0.4339  0.2039 -0.1778
13269SOL    HW148775   8.534  11.237   5.126  0.0386 -1.2596  1.9020
13269SOL    HW248776   8.634  11.351   5.132 -1.5968  0.4227 -0.8651
13270SOL     OW48777   0.408   1.177   0.399  0.1625 -0.0637  0.0328
13270SOL    HW148778   0.373   1.111   0.459  1.0568 -0.0418  0.5880
13270SOL    HW248779   0.446   1.126   0.327  1.2664 -0.1778  0.6879
13271SOL     OW48780  12.125   3.356  10.740 -0.3191  0.2747 -0.3743
13271SOL    HW148781  12.097   3.327  10.827  1.1832  1.7238  0.6588
13271SOL    HW248782  12.126   3.452  10.746 -0.4252  0.4179 -2.0899
13272SOL     OW48783   2.864   6.549  10.525 -0.1573 -0.1204  0.7935
13272SOL    HW148784   2.863   6.480  10.459  1.8562  0.2213  0.3348
13272SOL    HW248785   2.847   6.503  10.607 -2.5573 -0.5692  0.1095
13273SOL     OW48786   7.824   6.196  10.641  0.2640  0.1707 -0.1210
13273SOL    HW148787   7.884   6.142  10.693  2.5390  2.0352 -0.6261
13273SOL    HW248788   7.802   6.143  10.565  1.7022 -0.4242 -0.1503
13274SOL     OW48789  11.673   5.255   1.585 -0.0584  0.0428 -0.0481
13274SOL    HW148790  11.697   5.265   1.493  1.4171 -0.6794  0.2368
13274SOL    HW248791  11.593   5.307   1.594  1.3191  2.5289 -1.0624
13275SOL     OW48792   1.101  11.831  12.275  0.3057  0.0035 -0.5281
13275SOL    HW148793   1.154  11.822  12.196  0.1665  0.0497 -0.6282
13275SOL    HW248794   1.059  11.746  12.287  2.8461 -1.1091  1.3567
13276SOL     OW48795   6.460   3.407   3.918 -0.2505 -0.0251 -0.6175
13276SOL    HW148796   6.407   3.476   3.878 -0.1307  2.1951  2.6059
13276SOL    HW248797   6.419   3.392   4.003  2.2955 -0.7102  0.5913
13277SOL     OW48798   4.563  10.256   0.465 -0.3564 -0.2107 -0.4452
13277SOL    HW148799   4.586  10.189   0.400  0.5802  0.0343 -0.3757
13277SOL    HW248800   4.645  10.300   0.484 -0.5134 -0.6280  1.3127
13278SOL     OW48801   8.438   9.374   2.925 -0.2071 -0.4329  0.1272
13278SOL    HW148802   8.498   9.300   2.934  0.4270 -0.1288 -1.2846
13278SOL    HW248803   8.362   9.337   2.879 -0.5605 -0.5367  0.7869
13279SOL     OW48804   4.411   3.753   3.346  0.2625  0.1299 -0.0554
13279SOL    HW148805   4.315   3.761   3.342  0.1288 -1.5233 -1.2499
13279SOL    HW248806   4.430   3.741   3.439 -0.9170 -1.4788  0.0291
13280SOL     OW48807   1.599  10.875   8.508  0.3412  0.1167 -0.3237
13280SOL    HW148808   1.598  10.964   8.472 -1.4716 -0.0996 -0.9195
13280SOL    HW248809   1.692  10.853   8.515  0.8183  1.8202 -0.7449
13281SOL     OW48810   7.643   0.796   7.833 -0.5220  0.0265 -0.3242
13281SOL    HW148811   7.656   0.887   7.859 -1.6308 -0.2286  1.2772
13281SOL    HW248812   7.702   0.746   7.890  0.7527 -0.2468 -1.8007
13282SOL     OW48813  12.276   9.014   1.970 -0.3263 -0.3641 -0.4600
13282SOL    HW148814  12.318   8.953   2.031 -0.4152  0.0072 -0.0195
13282SOL    HW248815  12.348   9.060   1.928 -0.2759 -0.1902 -0.1850
13283SOL     OW48816  11.861   8.938   0.122 -0.0725  0.7621 -0.5530
13283SOL    HW148817  11.888   8.980   0.040 -0.7546 -0.9504 -1.7256
13283SOL    HW248818  11.889   8.847   0.112  0.6655  0.7212  1.5521
13284SOL     OW48819  12.364   2.664  11.548  0.1383  0.3847  0.1227
13284SOL    HW148820  12.401   2.744  11.511 -0.5575  0.8838  0.4826
13284SOL    HW248821  12.281   2.653  11.503  0.9880 -1.1072 -1.1790
13285SOL     OW48822   4.745   1.624   4.659 -0.4282  0.2137  0.3982
13285SOL    HW148823   4.838   1.637   4.642 -0.1816 -0.6536  1.0108
13285SOL    HW248824   4.706   1.618   4.571 -0.2472  2.5359  0.0959
13286SOL     OW48825  11.543   4.835   3.403  0.0938  0.0156 -0.4524
13286SOL    HW148826  11.634   4.804   3.403  1.0270  2.4773  0.6739
13286SOL    HW248827  11.522   4.847   3.310  0.5654 -1.4539 -0.7749
13287SOL     OW48828   7.201   4.155  11.934 -0.3362 -0.0012  0.5268
13287SOL    HW148829   7.121   4.136  11.885  0.5223 -3.7323  0.2463
13287SOL    HW248830   7.266   4.174  11.867 -0.5043  1.0611  0.6462
13288SOL     OW48831   5.519   8.635   4.268 -0.1663  0.7330 -0.0099
13288SOL    HW148832   5.594   8.649   4.325  0.7430  1.1821 -1.2629
13288SOL    HW248833   5.543   8.679   4.186 -1.2311 -0.2793 -0.8951
13289SOL     OW48834   4.138  11.221   5.560 -0.2233  0.2124  0.0377
13289SOL    HW148835   4.147  11.165   5.637  0.3583  1.0286  0.5855
13289SOL    HW248836   4.104  11.304   5.595  3.3643  1.8508  0.0371
13290SOL     OW48837   8.037   2.296   2.087  0.1189 -0.3677  0.1067
13290SOL    HW148838   7.997   2.383   2.093 -0.0414 -0.4936  0.8664
13290SOL    HW248839   7.972   2.237   2.123 -0.3684 -1.0096 -1.7132
13291SOL     OW48840   9.320   5.110  11.660 -0.2986  0.1705 -0.0832
13291SOL    HW148841   9.353   5.174  11.597 -1.1846  1.9765  1.1794
13291SOL    HW248842   9.347   5.025  11.625  0.7716  1.2062 -1.9339
13292SOL     OW48843   3.414   1.726   8.918  0.4893 -0.1634 -0.0738
13292SOL    HW148844   3.426   1.728   8.823  1.0267  0.8683  0.0069
13292SOL    HW248845   3.449   1.640   8.944  1.6150  0.0913 -0.6580
13293SOL     OW48846   4.681  12.236  10.763  0.1874  0.5611 -0.2728
13293SOL    HW148847   4.595  12.219  10.724  0.6851  0.3764 -1.3497
13293SOL    HW248848   4.670  12.220  10.856  0.1988 -4.3719 -0.8736
13294SOL     OW48849  12.529   5.973   7.066  0.0641 -0.0652  0.4756
13294SOL    HW148850  12.475   5.919   7.007 -1.4358  1.7750  0.0422
13294SOL    HW248851  12.612   5.984   7.019 -0.1255 -0.8259 -0.0571
13295SOL     OW48852   1.420   9.508   0.508 -0.1508 -0.3546  0.0351
13295SOL    HW148853   1.404   9.505   0.414 -0.0381  1.3728 -0.0652
13295SOL    HW248854   1.396   9.597   0.534  1.2416 -0.3308  1.3682
13296SOL     OW48855   5.875   9.748   6.037 -0.1714  0.4683 -0.1020
13296SOL    HW148856   5.919   9.664   6.050 -0.2299  0.5049  0.3338
13296SOL    HW248857   5.944   9.807   6.008  0.2975  0.7938  1.5704
13297SOL     OW48858   9.228   6.132   1.136  0.5514 -0.3975  0.4359
13297SOL    HW148859   9.255   6.083   1.058  0.6590  0.1439  0.1310
13297SOL    HW248860   9.281   6.095   1.207 -0.9118 -2.2609  0.6607
13298SOL     OW48861   7.653   7.698   7.335 -0.5757 -0.3191  0.0931
13298SOL    HW148862   7.683   7.780   7.297 -1.6961  0.0181 -0.0848
13298SOL    HW248863   7.614   7.723   7.419  1.0954 -0.9568  1.1276
13299SOL     OW48864   3.389   3.909   1.780  0.0698  0.0174 -0.0160
13299SOL    HW148865   3.311   3.859   1.757  1.0569 -0.4681 -2.7540
13299SOL    HW248866   3.364   4.000   1.766 -1.0288  0.2191  2.7170
13300SOL     OW48867   9.173   0.449   8.994  0.3541  0.1630  0.1786
13300SOL    HW148868   9.168   0.377   8.930  0.3611  0.6626 -0.3945
13300SOL    HW248869   9.095   0.439   9.048  0.2950 -0.2067  0.0258
13301SOL     OW48870   4.553   8.659  10.862  1.0465 -0.4388  0.1388
13301SOL    HW148871   4.601   8.594  10.914  2.0385  0.0071 -0.2135
13301SOL    HW248872   4.601   8.665  10.780 -0.0265 -0.5059 -0.5115
13302SOL     OW48873   4.845   8.058   5.428  0.0013 -0.0415 -0.2210
13302SOL    HW148874   4.799   8.131   5.471 -1.9747 -1.1456 -0.3466
13302SOL    HW248875   4.849   7.990   5.495  1.8727  0.1336 -0.0948
13303SOL     OW48876   9.864   0.876   6.207 -0.5161 -0.7064  0.3672
13303SOL    HW148877   9.910   0.819   6.269  0.8387  1.2643  1.3142
13303SOL    HW248878   9.934   0.927   6.166 -1.6838  0.6817  0.0266
13304SOL     OW48879   0.582   5.185   0.899 -0.1869  0.2672  0.0133
13304SOL    HW148880   0.553   5.136   0.822  1.1843  1.2579 -1.1930
13304SOL    HW248881   0.665   5.146   0.923 -0.3522  0.3122  0.6817
13305SOL     OW48882   1.017   0.880   8.808  0.2932  0.2483  0.1993
13305SOL    HW148883   1.043   0.847   8.722 -0.0986 -0.3329  0.2935
13305SOL    HW248884   0.965   0.958   8.789  0.2114  0.1227 -0.0989
13306SOL     OW48885  10.452   9.822   3.033 -0.1176 -0.0788  0.4830
13306SOL    HW148886  10.376   9.782   3.075 -0.8122  0.6083 -0.0795
13306SOL    HW248887  10.500   9.863   3.105 -0.1937 -0.6463  0.8646
13307SOL     OW48888   3.169   4.928  10.654  0.2952  0.1741 -0.5283
13307SOL    HW148889   3.213   5.013  10.648  0.8541  0.2150  2.4903
13307SOL    HW248890   3.083   4.944  10.617  0.9799  1.5678 -1.6485
13308SOL     OW48891  10.070   4.899   3.974 -0.7625  0.0944  0.4055
13308SOL    HW148892  10.137   4.908   4.043  1.3680 -0.5769 -1.4565
13308SOL    HW248893  10.118   4.864   3.899 -3.2554 -0.4035 -1.0501
13309SOL     OW48894   7.034   5.611   3.723  0.4993  0.2974  0.0177
13309SOL    HW148895   7.043   5.696   3.681  1.9740  0.3582  0.4148
13309SOL    HW248896   7.079   5.550   3.664  1.2632  0.1419  0.7477
13310SOL     OW48897  11.192   8.666   8.169  0.3471 -0.0024 -0.0343
13310SOL    HW148898  11.162   8.628   8.086  1.4504 -1.2594  0.1084
13310SOL    HW248899  11.124   8.730   8.192 -0.2161  0.0220 -1.6500
13311SOL     OW48900  10.611   2.924  11.900  0.1214 -0.1067 -0.1310
13311SOL    HW148901  10.557   2.893  11.827  0.7016 -1.0875 -0.1666
13311SOL    HW248902  10.701   2.913  11.870  0.4489  3.3791 -0.8553
13312SOL     OW48903  11.381  12.214   3.426 -0.1679  0.1001 -0.0203
13312SOL    HW148904  11.358  12.179   3.511 -0.5718  0.3737 -0.0151
13312SOL    HW248905  11.303  12.201   3.372 -0.7766  2.0198  0.2986
13313SOL     OW48906   7.609   2.804   5.327  0.3618  0.4175  0.0542
13313SOL    HW148907   7.519   2.773   5.343  0.7662 -1.5048 -1.0496
13313SOL    HW248908   7.651   2.801   5.412 -0.6385  1.5395  0.6297
13314SOL     OW48909   3.994   2.237  12.453 -0.1985  0.0516 -0.2879
13314SOL    HW148910   3.989   2.317  12.402 -0.2927 -1.4895 -2.8713
13314SOL    HW248911   4.087   2.226  12.472 -0.3241  1.5298  1.5605
13315SOL     OW48912   0.131   5.809   4.662  0.2713  0.3115  0.4088
13315SOL    HW148913   0.197   5.871   4.694  1.4077  0.2638 -1.6430
13315SOL    HW248914   0.083   5.782   4.740  0.5350  2.8361  1.5257
13316SOL     OW48915   7.222   9.151   0.011 -0.3904  0.1962 -0.4011
13316SOL    HW148916   7.273   9.192   0.082 -1.1624  1.2646 -0.4339
13316SOL    HW248917   7.133   9.145   0.046 -0.2111 -2.0419 -0.1853
13317SOL     OW48918   2.912   8.827  11.496 -0.0943  0.1192  0.1040
13317SOL    HW148919   2.955   8.742  11.493  0.5524  0.3102  2.3768
13317SOL    HW248920   2.973   8.886  11.451  0.5555 -0.1925  0.5644
13318SOL     OW48921  11.702  12.133   2.147 -0.4655  0.3106  0.9183
13318SOL    HW148922  11.712  12.077   2.069 -0.9134 -0.9265  1.7119
13318SOL    HW248923  11.655  12.210   2.115 -1.1898 -0.4567  0.0705
13319SOL     OW48924   1.036   8.513   4.166 -0.1252  0.4624  0.1308
13319SOL    HW148925   0.960   8.472   4.205  0.0751  0.7235  0.8089
13319SOL    HW248926   1.111   8.473   4.210  0.0858  1.1743  0.4362
13320SOL     OW48927   7.788   0.969   6.890  0.3180  0.3174  0.9328
13320SOL    HW148928   7.713   0.922   6.925 -1.0308  1.9455  0.3765
13320SOL    HW248929   7.855   0.902   6.876 -0.9918 -1.1615  1.5251
13321SOL     OW48930   3.401   3.921  11.556 -0.5298 -0.3464 -0.5116
13321SOL    HW148931   3.330   3.947  11.614  0.1105 -1.1658  0.6900
13321SOL    HW248932   3.406   3.991  11.491 -0.8221  0.9624  0.8174
13322SOL     OW48933   6.200  10.233   3.286  0.0559  0.0328  0.5542
13322SOL    HW148934   6.212  10.213   3.194  0.4452  0.3216  0.5407
13322SOL    HW248935   6.123  10.181   3.312 -0.0485 -0.0571  0.0762
13323SOL     OW48936   9.699   9.296   0.738  0.2176  0.2509 -0.2683
13323SOL    HW148937   9.714   9.237   0.665  0.7418 -0.5621  0.4712
13323SOL    HW248938   9.710   9.384   0.701 -0.4973 -0.1012 -1.3652
13324SOL     OW48939  11.273  11.799   4.797 -0.6845  0.0121  0.1066
13324SOL    HW148940  11.237  11.782   4.883 -1.0832  2.5343  0.4938
13324SOL    HW248941  11.207  11.852   4.753  0.3207  0.3230 -1.0781
13325SOL     OW48942   8.245  11.740   3.569  0.0525  0.4465  0.0212
13325SOL    HW148943   8.179  11.685   3.526  2.2781 -1.4835 -1.1119
13325SOL    HW248944   8.256  11.700   3.656 -0.6215  1.1080  0.4232
13326SOL     OW48945   8.570  11.507   8.424  0.1727 -0.5649 -0.1548
13326SOL    HW148946   8.564  11.515   8.519  0.1548  0.0103 -0.1975
13326SOL    HW248947   8.555  11.414   8.406 -0.4326 -0.5692  0.3545
13327SOL     OW48948   5.072  12.165  11.039  0.0159 -0.1324 -0.2607
13327SOL    HW148949   5.028  12.082  11.057  0.2826 -0.2246 -0.0269
13327SOL    HW248950   5.117  12.150  10.956 -1.0083  0.2127 -0.8900
13328SOL     OW48951   6.638   5.823   0.972 -0.3870 -0.1354  0.2282
13328SOL    HW148952   6.709   5.809   0.909 -1.3676  0.7917 -1.1667
13328SOL    HW248953   6.665   5.775   1.050  1.2485 -0.7039 -0.6271
13329SOL     OW48954  11.108   2.633   5.062 -0.0931  0.3506 -0.1532
13329SOL    HW148955  11.087   2.686   5.139  0.5274  1.1557 -0.5277
13329SOL    HW248956  11.062   2.676   4.990  0.2884  0.2928 -0.4339
13330SOL     OW48957   8.282   9.983   9.641 -0.4406 -0.1071 -0.0981
13330SOL    HW148958   8.200  10.033   9.637 -0.5251  0.0021  1.8140
13330SOL    HW248959   8.270   9.924   9.717  2.2313  1.8083  2.0024
13331SOL     OW48960   4.379   1.018   7.385 -0.0152 -0.6365  0.0006
13331SOL    HW148961   4.338   0.932   7.395  0.6732 -1.1914 -1.6177
13331SOL    HW248962   4.365   1.041   7.294  1.2971  0.1899 -0.0250
13332SOL     OW48963   0.085   1.246   6.461  0.9595 -0.0541 -0.0928
13332SOL    HW148964   0.090   1.152   6.481 -1.6372 -0.6292 -1.6967
13332SOL    HW248965   0.075   1.250   6.366 -2.3472  1.5407  0.1724
13333SOL     OW48966   7.836   5.434  11.489  0.4615 -0.4067 -0.3380
13333SOL    HW148967   7.881   5.352  11.508 -0.8286 -1.0986 -0.1100
13333SOL    HW248968   7.905   5.495  11.463  1.8895 -0.5767  2.6771
13334SOL     OW48969   2.133  10.673   4.578  0.0805  0.3846 -0.2755
13334SOL    HW148970   2.208  10.629   4.540  0.1601 -1.3240  1.6659
13334SOL    HW248971   2.074  10.602   4.603 -0.5569  1.4645  1.4533
13335SOL     OW48972  10.466   0.735   3.368  0.0942 -0.2612  0.2312
13335SOL    HW148973  10.465   0.828   3.388  1.1196 -0.0910 -0.4031
13335SOL    HW248974  10.529   0.698   3.430  0.8606 -0.2630 -0.5358
13336SOL     OW48975   2.957   2.828  12.113  0.6351 -0.6685  0.0984
13336SOL    HW148976   2.972   2.793  12.201 -0.2210 -1.2943  0.0031
13336SOL    HW248977   2.914   2.912  12.128 -1.6851 -1.8262  0.2670
13337SOL     OW48978   1.177   5.315   2.133 -0.0439  0.0985 -0.3459
13337SOL    HW148979   1.094   5.311   2.181 -0.1813  2.0379 -0.3470
13337SOL    HW248980   1.224   5.388   2.172  0.5779  0.6437 -2.0272
13338SOL     OW48981   3.904   7.177   1.378  0.0063 -0.8524  0.4170
13338SOL    HW148982   3.860   7.260   1.395 -0.9647 -0.5910 -2.7303
13338SOL    HW248983   3.991   7.201   1.345 -0.8163 -0.8944 -1.9928
13339SOL     OW48984   4.060   4.986   1.311  0.4079 -0.3559  0.1795
13339SOL    HW148985   3.967   4.995   1.290  0.8811  0.5495 -1.8138
13339SOL    HW248986   4.077   5.054   1.377 -0.2069 -0.0702  0.0454
13340SOL     OW48987  10.206  11.080   9.727 -0.3657 -0.2177 -0.1304
13340SOL    HW148988  10.231  11.077   9.635  0.6365 -1.2144  0.1529
13340SOL    HW248989  10.267  11.020   9.770 -1.2656 -0.2922  1.0779
13341SOL     OW48990  10.798   5.078  11.831 -0.2091 -0.0709 -0.2331
13341SOL    HW148991  10.815   5.128  11.751  0.2455 -1.2688 -0.9131
13341SOL    HW248992  10.716   5.032  11.813 -0.9859  0.9075  0.6485
13342SOL     OW48993   1.623   6.321   5.313 -0.1199  0.2450 -1.0708
13342SOL    HW148994   1.651   6.233   5.288  2.2136  1.1197 -1.8544
13342SOL    HW248995   1.530   6.325   5.288 -0.9913 -2.7018  1.1648
13343SOL     OW48996   6.308   6.714   0.760 -0.2400  0.1416 -0.2703
13343SOL    HW148997   6.273   6.751   0.679 -0.4907 -1.5819 -0.9925
13343SOL    HW248998   6.247   6.644   0.783  0.4609 -0.1617  0.7526
13344SOL     OW48999   1.546   4.673  11.802 -0.4137 -0.1469  0.0499
13344SOL    HW149000   1.640   4.690  11.789 -0.2789  0.2152  1.3901
13344SOL    HW249001   1.521   4.622  11.724  0.8265 -0.0304 -0.4640
13345SOL     OW49002   9.875  10.672   0.645  0.5098 -0.1500  0.1371
13345SOL    HW149003   9.892  10.685   0.738  2.7963 -0.9114 -0.1250
13345SOL    HW249004   9.865  10.760   0.610  2.3908  0.3137  0.6694
13346SOL     OW49005  12.269   9.107   6.572 -0.2986 -0.0898  0.2831
13346SOL    HW149006  12.313   9.022   6.575 -1.4299 -0.9675 -3.4749
13346SOL    HW249007  12.177   9.086   6.582 -0.5959  0.6520 -0.7604
13347SOL     OW49008   3.087   6.996   1.130  0.2475  0.0986 -0.1757
13347SOL    HW149009   3.134   7.071   1.167  1.3828  0.1369 -1.6225
13347SOL    HW249010   3.155   6.932   1.110 -0.6314 -1.0324  0.3254
13348SOL     OW49011   3.783   7.682   2.712  0.9524  0.3332  0.0206
13348SOL    HW149012   3.689   7.673   2.728  1.0570 -2.3841 -0.4486
13348SOL    HW249013   3.796   7.650   2.623  2.2805  1.1542 -0.1133
13349SOL     OW49014   2.131   6.837   3.079  0.3251 -0.1247  0.2704
13349SOL    HW149015   2.107   6.782   3.154  1.7527 -1.3522 -0.1218
13349SOL    HW249016   2.119   6.781   3.003  0.2892  0.6335 -0.2943
13350SOL     OW49017   4.028  11.812   4.391  0.7290  0.1395 -0.2642
13350SOL    HW149018   4.119  11.825   4.418  0.0946  1.6628  1.3419
13350SOL    HW249019   4.003  11.728   4.429  0.5334  1.2322  2.1862
13351SOL     OW49020   5.786   8.655   9.274 -0.1771  0.0767 -0.7811
13351SOL    HW149021   5.794   8.733   9.328  0.7930 -0.7965  0.3753
13351SOL    HW249022   5.709   8.609   9.309 -0.2949  0.1195 -0.9759
13352SOL     OW49023   0.692   8.103   3.975 -0.6024  0.3993  0.0957
13352SOL    HW149024   0.635   8.173   3.941 -0.1933  1.1143  0.8637
13352SOL    HW249025   0.722   8.057   3.896 -0.4904  1.3862 -0.4537
13353SOL     OW49026   2.772   6.943   9.596  0.3546 -0.2565 -0.4561
13353SOL    HW149027   2.745   6.852   9.586  1.1110 -0.6618  0.9612
13353SOL    HW249028   2.745   6.967   9.685 -1.4856  1.5111 -1.3956
13354SOL     OW49029   3.201  12.037  12.138 -0.2263  0.3864  0.1586
13354SOL    HW149030   3.209  11.960  12.083 -1.5839  0.6063 -0.3745
13354SOL    HW249031   3.136  12.012  12.204  0.8894  0.3571  1.2805
13355SOL     OW49032   4.716   3.477   4.121 -0.3009  0.1225 -0.2031
13355SOL    HW149033   4.661   3.544   4.162 -1.0625  0.0762 -1.1268
13355SOL    HW249034   4.769   3.443   4.193 -1.9061 -0.2473  0.8590
13356SOL     OW49035   3.022   1.573   0.368 -0.5981  0.3943 -0.0112
13356SOL    HW149036   2.974   1.494   0.392 -2.1315  1.3930  0.3510
13356SOL    HW249037   3.044   1.559   0.276 -0.3333 -0.6941  0.1957
13357SOL     OW49038   0.942   7.872   8.130 -0.6089 -0.1640  0.1897
13357SOL    HW149039   0.898   7.851   8.047  0.0702 -1.9405  0.2481
13357SOL    HW249040   0.885   7.835   8.197 -0.5255  0.1907  0.4637
13358SOL     OW49041   9.313  10.597   9.347  0.3449 -0.2217  0.0368
13358SOL    HW149042   9.393  10.571   9.301  1.4238  1.4687  0.8665
13358SOL    HW249043   9.250  10.617   9.277  1.4456  0.7733 -0.7035
13359SOL     OW49044   1.646   2.255  11.391  0.1573  0.5137  0.1153
13359SOL    HW149045   1.650   2.167  11.352  1.9266  0.8255 -0.5076
13359SOL    HW249046   1.559   2.260  11.430  0.8812 -2.5112  2.5293
13360SOL     OW49047   1.082   5.953   5.912 -0.3094  0.3492 -0.5701
13360SOL    HW149048   1.075   5.973   6.006  2.7662  0.0839 -0.1704
13360SOL    HW249049   1.110   5.861   5.910  0.7486  0.6779 -1.6621
13361SOL     OW49050   7.083   5.794   5.457 -0.3359  0.3993 -0.3215
13361SOL    HW149051   7.076   5.874   5.406 -0.5417  1.4171  1.2253
13361SOL    HW249052   7.009   5.798   5.518  1.0685  0.3116  1.4704
13362SOL     OW49053  10.201  11.244   2.307  0.6700 -0.3150  0.2260
13362SOL    HW149054  10.156  11.159   2.312 -1.4732  0.7929  1.0382
13362SOL    HW249055  10.236  11.258   2.395  0.2949  0.0152  0.3229
13363SOL     OW49056  10.169  10.235   4.389 -0.3551 -0.2891  0.3096
13363SOL    HW149057  10.086  10.187   4.395 -1.3647  1.4074  0.5357
13363SOL    HW249058  10.148  10.324   4.419  0.9584  0.8854 -1.9898
13364SOL     OW49059   0.565   8.424   1.181  0.2530 -0.3651  0.5945
13364SOL    HW149060   0.526   8.415   1.268  2.3020 -1.0325  1.4910
13364SOL    HW249061   0.490   8.419   1.121 -0.9691 -2.6648  2.1640
13365SOL     OW49062  10.864   3.313  12.449 -0.4480  0.3925  0.4757
13365SOL    HW149063  10.949   3.353  12.430 -0.0212 -1.0896 -0.9779
13365SOL    HW249064  10.806   3.387  12.466  0.6757  1.5523 -0.5104
13366SOL     OW49065  11.587   3.912   9.352 -0.2492  0.2400  0.4554
13366SOL    HW149066  11.650   3.936   9.284 -1.9563  0.3302 -1.1963
13366SOL    HW249067  11.589   3.986   9.413  1.2169  0.2249  0.4632
13367SOL     OW49068  10.001   8.684  11.513 -0.0173  0.1778  0.1577
13367SOL    HW149069  10.094   8.697  11.495  0.2537 -0.4719  0.9828
13367SOL    HW249070   9.973   8.764  11.556  0.6209 -0.2725  1.5054
13368SOL     OW49071   9.140   6.001  10.753 -0.0359 -0.1248  0.6878
13368SOL    HW149072   9.172   5.921  10.795 -1.4416 -0.7305  0.6628
13368SOL    HW249073   9.175   5.996  10.664 -0.0670 -0.6829  0.7013
13369SOL     OW49074   8.403   5.325   9.736  0.1792  0.2206  0.1780
13369SOL    HW149075   8.474   5.260   9.739 -2.0026 -2.3159  0.2077
13369SOL    HW249076   8.377   5.336   9.828 -1.0015 -0.7318 -0.0190
13370SOL     OW49077   0.826   5.652   5.920  0.0702 -0.2041  0.0343
13370SOL    HW149078   0.771   5.585   5.879 -0.2039  0.4087 -0.6169
13370SOL    HW249079   0.899   5.664   5.859  0.5577 -0.4843  0.5434
13371SOL     OW49080   4.425   2.365  12.560 -0.1030  0.1816 -0.3747
13371SOL    HW149081   4.416   2.460  12.548  1.2832  0.4419  0.4534
13371SOL    HW249082   4.519   2.350  12.560 -0.3167 -1.3701 -1.5904
13372SOL     OW49083   2.556   7.805  10.540  0.1542 -0.2940  0.0673
13372SOL    HW149084   2.634   7.853  10.566  0.6374 -0.9196 -0.1865
13372SOL    HW249085   2.525   7.849  10.461 -0.3780  0.6090  0.7606
13373SOL     OW49086   7.256   7.791   2.009  0.2588  0.0060  0.5777
13373SOL    HW149087   7.295   7.869   1.969  0.2652 -0.2279  0.1188
13373SOL    HW249088   7.185   7.825   2.064 -0.0550  0.3063  0.0002
13374SOL     OW49089   1.813   1.012   6.670 -0.4806  0.3198  0.0548
13374SOL    HW149090   1.891   1.068   6.665  0.0998 -0.4508  0.2566
13374SOL    HW249091   1.840   0.939   6.725 -1.6602  0.5195  0.9318
13375SOL     OW49092   0.944   1.956   7.087  0.1731  0.2460  0.1677
13375SOL    HW149093   0.958   1.996   7.172 -0.7031  0.0498  0.4114
13375SOL    HW249094   0.859   1.989   7.058 -0.1475 -0.7198 -0.0388
13376SOL     OW49095   1.785   3.406  11.610 -0.4544  0.3676  0.1419
13376SOL    HW149096   1.764   3.346  11.539 -0.5223  1.0156 -0.4043
13376SOL    HW249097   1.795   3.351  11.687 -0.9392 -0.2927 -0.2590
13377SOL     OW49098   1.859   8.262   9.519  0.3101 -0.6608 -0.1668
13377SOL    HW149099   1.785   8.233   9.573 -0.2821 -1.3197 -1.2953
13377SOL    HW249100   1.818   8.310   9.447  1.0205 -0.5776 -0.5231
13378SOL     OW49101  11.867   5.567   7.163 -0.4547 -0.2813  0.2573
13378SOL    HW149102  11.934   5.509   7.200 -0.1014 -0.0736 -0.0498
13378SOL    HW249103  11.794   5.509   7.143 -0.4239 -0.4885  0.7325
13379SOL     OW49104  11.505   7.322   2.241 -0.0507 -0.0790  0.3478
13379SOL    HW149105  11.517   7.407   2.284 -1.3501 -0.0198  0.6324
13379SOL    HW249106  11.531   7.258   2.308  0.8621  0.0878  0.1579
13380SOL     OW49107   9.445   1.031   5.900  0.1590  0.3562 -0.7445
13380SOL    HW149108   9.518   0.997   5.952  0.1679 -0.7544 -1.4445
13380SOL    HW249109   9.370   0.977   5.926 -0.3157  1.1672 -0.3859
13381SOL     OW49110  11.859   3.249   1.481  0.1546 -1.0321 -0.0704
13381SOL    HW149111  11.834   3.294   1.401 -0.8332 -1.9759 -0.3169
13381SOL    HW249112  11.902   3.316   1.534 -2.3654  0.5832  0.1035
13382SOL     OW49113   0.052   1.038   4.751 -0.1934 -0.5619 -0.1961
13382SOL    HW149114   0.146   1.022   4.761 -0.2311 -0.6388  0.0362
13382SOL    HW249115   0.018   1.036   4.840 -0.1642  0.9989 -0.1261
13383SOL     OW49116   2.779  11.171  12.563 -0.1753  0.0497  0.0761
13383SOL    HW149117   2.793  11.087  12.521 -0.5789 -0.0415  0.1175
13383SOL    HW249118   2.684  11.176  12.577  0.0587 -0.5477  2.2501
13384SOL     OW49119  10.522   0.105   9.749 -0.0380 -0.5136  0.1387
13384SOL    HW149120  10.536   0.012   9.733  0.6768 -0.3559 -0.2045
13384SOL    HW249121  10.482   0.138   9.668  1.0444 -0.2526 -0.3121
13385SOL     OW49122   0.211   1.418   4.302  0.2305  0.3670 -0.4042
13385SOL    HW149123   0.214   1.326   4.277  1.2562 -0.0678  1.1428
13385SOL    HW249124   0.120   1.435   4.323 -0.0648 -0.1279 -1.2432
13386SOL     OW49125  12.159   4.688   0.679  0.2536  0.0662 -0.3157
13386SOL    HW149126  12.242   4.664   0.721  0.8198  3.4464  0.8122
13386SOL    HW249127  12.182   4.707   0.589  0.2372 -1.0773 -0.5804
13387SOL     OW49128   1.596   7.238   9.263 -0.5173 -0.0908  0.0416
13387SOL    HW149129   1.602   7.142   9.260 -1.2244 -0.3421  3.0004
13387SOL    HW249130   1.666   7.269   9.205  1.2069 -2.4296  0.7159
13388SOL     OW49131   0.020   5.156  10.648 -0.0590  0.0761  0.2807
13388SOL    HW149132   0.076   5.188  10.719 -1.1762  0.8617  0.8322
13388SOL    HW249133   0.013   5.230  10.588  0.7794 -0.5437 -0.6306
13389SOL     OW49134   0.754   9.215   7.231 -0.1006  0.2269  0.3623
13389SOL    HW149135   0.805   9.167   7.165  1.9039  0.5018  1.6004
13389SOL    HW249136   0.753   9.156   7.307  1.0062  1.4118  1.3529
13390SOL     OW49137   2.493   8.543   4.296  0.3289  0.3313  0.0851
13390SOL    HW149138   2.558   8.481   4.330 -1.6148 -1.3773  0.9057
13390SOL    HW249139   2.429   8.552   4.367 -1.3750  0.3478 -1.3812
13391SOL     OW49140   9.632   0.774  12.235 -0.0225 -0.0413  0.4703
13391SOL    HW149141   9.634   0.683  12.204  0.4061  0.7024 -1.9537
13391SOL    HW249142   9.557   0.778  12.294 -1.4168 -1.5032 -1.0935
13392SOL     OW49143   8.701   3.222   9.576 -0.4496  0.1822  0.1130
13392SOL    HW149144   8.630   3.171   9.539 -1.4438  1.4704  0.1428
13392SOL    HW249145   8.763   3.234   9.505 -0.2004 -1.0470  0.1150
13393SOL     OW49146  12.274  10.840   2.118  0.1144  0.1794 -0.5727
13393SOL    HW149147  12.332  10.763   2.125 -2.7633 -2.0955  0.6848
13393SOL    HW249148  12.222  10.824   2.039 -0.4521  0.8767 -0.3488
13394SOL     OW49149   2.506   5.407   8.638  0.0473  0.0684 -0.4051
13394SOL    HW149150   2.461   5.456   8.570 -1.3414  0.1991  0.5613
13394SOL    HW249151   2.478   5.448   8.720  1.7539 -0.0068  0.2737
13395SOL     OW49152   7.004   8.003   6.141  0.1687 -0.2528 -0.5218
13395SOL    HW149153   6.981   8.081   6.089 -0.6734  0.2507  0.5600
13395SOL    HW249154   6.980   7.929   6.085 -0.3723  0.2704 -1.0020
13396SOL     OW49155   6.498   6.967   4.384  0.5458 -0.0650 -0.8434
13396SOL    HW149156   6.544   6.890   4.350  2.8817  2.0127 -2.8398
13396SOL    HW249157   6.410   6.935   4.404  1.8734 -3.6035  0.1544
13397SOL     OW49158   4.162   7.651   9.021  0.3721  0.3529  0.2491
13397SOL    HW149159   4.189   7.698   8.942  1.6065  1.3237  1.2029
13397SOL    HW249160   4.075   7.618   9.001  0.2569  1.4199 -1.1514
13398SOL     OW49161   8.936   7.896   7.410  0.8055  0.4693  0.6768
13398SOL    HW149162   8.978   7.945   7.481 -1.3870  0.3259  2.1703
13398SOL    HW249163   8.871   7.841   7.454  1.2841 -1.7520 -1.2177
13399SOL     OW49164   5.492  11.632   4.364  0.5427  0.0303 -0.3769
13399SOL    HW149165   5.528  11.549   4.394 -3.0831 -1.7034 -0.2324
13399SOL    HW249166   5.435  11.609   4.291  1.1157  2.7653 -1.8231
13400SOL     OW49167   3.137   0.223   8.273  1.0808 -0.5345 -0.3936
13400SOL    HW149168   3.142   0.224   8.368  0.4101 -0.4040 -0.3554
13400SOL    HW249169   3.192   0.149   8.247  3.5608  1.0541 -0.0759
13401SOL     OW49170   5.584   3.481   3.694  0.4257 -0.4953  0.2037
13401SOL    HW149171   5.542   3.464   3.779 -0.7866  0.2457 -0.2178
13401SOL    HW249172   5.604   3.394   3.660  1.6849 -0.7908  1.5868
13402SOL     OW49173   8.704   3.893   5.038 -0.4234 -0.3424 -0.5231
13402SOL    HW149174   8.637   3.880   5.104 -0.1597  1.3442  0.1451
13402SOL    HW249175   8.770   3.826   5.056 -2.3910 -2.7958 -1.9220
13403SOL     OW49176   2.432   0.716   2.522 -0.4781 -0.6651 -0.2022
13403SOL    HW149177   2.504   0.770   2.556 -0.0930 -0.5145 -1.2290
13403SOL    HW249178   2.386   0.686   2.600 -0.6794  1.1099  0.4156
13404SOL     OW49179  11.859  12.564   8.084  0.0264 -0.0087 -0.5775
13404SOL    HW149180  11.908  12.633   8.129 -1.2376  1.4215 -1.3078
13404SOL    HW249181  11.813  12.518   8.154 -1.6122  1.9519 -0.2472
13405SOL     OW49182   8.252   8.541  10.066  0.6932  0.0224  0.2858
13405SOL    HW149183   8.205   8.622  10.048  0.2607 -0.1852  0.4692
13405SOL    HW249184   8.227   8.481   9.995 -0.7115 -0.6659  1.3152
13406SOL     OW49185   6.951   5.427   0.055  0.7426 -0.3527  0.0311
13406SOL    HW149186   6.879   5.365   0.067 -1.1437  1.6055 -0.5356
13406SOL    HW249187   6.911   5.513   0.067  2.5386  0.9160 -2.1919
13407SOL     OW49188   9.088   6.085   4.979  0.6524  0.0362  0.3681
13407SOL    HW149189   9.144   6.074   5.056 -0.2425 -0.9929  0.9008
13407SOL    HW249190   9.149   6.105   4.908  1.6148 -0.2447  1.0960
13408SOL     OW49191   8.073   0.187   6.603  0.5457  0.7259  0.2634
13408SOL    HW149192   7.986   0.156   6.577 -0.0868  3.5782 -1.5019
13408SOL    HW249193   8.056   0.249   6.675  1.0134  1.7407 -0.4779
13409SOL     OW49194   4.018   9.490   1.693 -0.3843 -0.0606 -0.1293
13409SOL    HW149195   4.092   9.538   1.656  0.4456 -0.1787  1.3004
13409SOL    HW249196   3.978   9.551   1.755 -0.9800 -0.3059 -0.2564
13410SOL     OW49197   7.044  11.836   1.339  0.2102  0.5109 -0.3790
13410SOL    HW149198   7.118  11.778   1.357 -0.3014 -0.8957 -2.4289
13410SOL    HW249199   6.975  11.808   1.399  0.5510  0.2268 -0.1211
13411SOL     OW49200  12.223   7.207   3.446  0.2492 -0.4433  0.0122
13411SOL    HW149201  12.172   7.215   3.366 -0.1984 -0.3777  0.2956
13411SOL    HW249202  12.303   7.161   3.420 -1.2552 -3.3274  0.0640
13412SOL     OW49203   7.409  12.043   7.617 -0.2104  0.2452  0.3084
13412SOL    HW149204   7.342  12.111   7.616 -1.5801 -1.0462  0.7443
13412SOL    HW249205   7.362  11.963   7.592  1.2406 -0.6332  0.3031
13413SOL     OW49206   9.663   3.821  10.558  0.7017 -0.0496  0.6217
13413SOL    HW149207   9.581   3.870  10.549  0.8908  0.1556 -0.0575
13413SOL    HW249208   9.639   3.742  10.605  0.1938  0.2160  0.8157
13414SOL     OW49209   4.070  12.173   1.257  0.3245  0.0961 -0.0395
13414SOL    HW149210   3.986  12.216   1.241 -0.2850  0.0369  2.5439
13414SOL    HW249211   4.066  12.093   1.204 -0.6799  0.7167 -0.9379
13415SOL     OW49212   6.804  10.616  11.290  0.1102 -0.3235  0.0787
13415SOL    HW149213   6.838  10.536  11.329 -2.3735 -1.4267  0.1190
13415SOL    HW249214   6.730  10.641  11.345  0.1120  1.3771 -0.6070
13416SOL     OW49215   1.259   6.657   7.621  0.0218 -0.0807 -0.2129
13416SOL    HW149216   1.199   6.730   7.606  1.6267  1.1738 -0.9255
13416SOL    HW249217   1.293   6.672   7.710  0.2900  0.0148 -0.3289
13417SOL     OW49218   8.019  10.610   5.307  0.2793 -0.6314 -0.0157
13417SOL    HW149219   8.018  10.690   5.361 -0.6603  1.1933 -2.5375
13417SOL    HW249220   8.103  10.614   5.261 -0.7589  0.3152 -1.9682
13418SOL     OW49221   7.325   3.383  11.966  0.2073  0.6247 -0.3337
13418SOL    HW149222   7.367   3.439  11.900  1.0744  1.4777  0.9020
13418SOL    HW249223   7.311   3.441  12.041 -1.0181 -0.2604  0.1463
13419SOL     OW49224   0.466   4.185   9.431 -0.3161 -0.7327  0.3704
13419SOL    HW149225   0.479   4.168   9.337  0.4532 -0.5076  0.4319
13419SOL    HW249226   0.472   4.280   9.438 -1.3822 -0.6644  0.5070
13420SOL     OW49227   7.600   5.256   1.325  0.2835  0.0341  0.2614
13420SOL    HW149228   7.620   5.230   1.235 -2.3488  1.4249 -0.8396
13420SOL    HW249229   7.667   5.321   1.346  0.5154  0.2284 -0.9921
13421SOL     OW49230   9.922  11.014  11.151  0.1742 -0.0522 -0.0398
13421SOL    HW149231   9.973  10.994  11.230 -1.1061 -0.7387  0.6455
13421SOL    HW249232   9.906  11.108  11.156 -0.7558 -0.2531  1.0646
13422SOL     OW49233   5.764  12.080   2.659  0.0960 -0.0713 -1.5038
13422SOL    HW149234   5.828  12.123   2.603  1.3179 -2.9409 -2.4552
13422SOL    HW249235   5.780  12.117   2.746  0.9277  1.4801 -2.2713
13423SOL     OW49236   3.763  11.572   3.835  0.3694  0.0703  0.2234
13423SOL    HW149237   3.848  11.528   3.825 -0.3604 -1.3742  0.1376
13423SOL    HW249238   3.773  11.655   3.788  1.2093 -0.8090 -1.2331
13424SOL     OW49239   0.152  12.510   4.816  0.1617 -0.4083 -0.9169
13424SOL    HW149240   0.086  12.576   4.795 -1.5539 -1.8495 -0.3497
13424SOL    HW249241   0.197  12.495   4.733  1.6319  2.4611 -0.7447
13425SOL     OW49242   7.654   2.093   7.951  0.4335 -0.0584  0.2633
13425SOL    HW149243   7.640   2.015   8.004  2.4077  0.6239  1.9533
13425SOL    HW249244   7.750   2.102   7.948  0.2604  2.3963  0.3239
13426SOL     OW49245   8.500   9.144   1.906 -0.2488  0.5347  0.0017
13426SOL    HW149246   8.497   9.178   1.995 -0.3008  0.2989  0.0904
13426SOL    HW249247   8.591   9.122   1.891 -0.0606  1.4683 -0.3458
13427SOL     OW49248  10.435   8.697  11.240  0.2031  0.1487  0.4959
13427SOL    HW149249  10.499   8.752  11.196  1.6133 -0.2526  1.9407
13427SOL    HW249250  10.486   8.626  11.278 -1.2503 -0.8075  0.7542
13428SOL     OW49251  11.576   5.847   3.710 -0.2688  0.2516  0.1055
13428SOL    HW149252  11.575   5.844   3.614  0.4931  1.8764  0.0136
13428SOL    HW249253  11.669   5.849   3.733 -0.4447  0.6780  0.8275
13429SOL     OW49254   1.834  12.147   3.399 -0.0159 -0.2001 -0.0651
13429SOL    HW149255   1.878  12.196   3.329  0.1108  0.9761  0.8133
13429SOL    HW249256   1.840  12.204   3.476  2.0708 -2.4583  1.6116
13430SOL     OW49257  10.760  11.354   9.674 -0.1707 -0.7903  0.1271
13430SOL    HW149258  10.666  11.372   9.677 -0.0994 -0.4700  0.5678
13430SOL    HW249259  10.786  11.378   9.585 -0.2030  0.6974  0.4954
13431SOL     OW49260   9.075   7.856  10.031 -0.2520  0.4612 -0.0351
13431SOL    HW149261   9.025   7.774  10.027  2.7548 -1.4985 -0.9780
13431SOL    HW249262   9.084   7.883   9.940 -1.2390  1.9398  0.2676
13432SOL     OW49263   3.583   0.158   8.551  0.1898 -0.6193 -0.4187
13432SOL    HW149264   3.655   0.186   8.607 -0.8830 -0.7374  1.0674
13432SOL    HW249265   3.623   0.096   8.490  1.3548 -0.6274  0.3306
13433SOL     OW49266   4.727   9.360   7.032 -0.6122 -0.4774 -0.5705
13433SOL    HW149267   4.652   9.401   7.075  0.7399 -0.2797  1.7557
13433SOL    HW249268   4.797   9.424   7.039  0.8388 -2.1089  0.8408
13434SOL     OW49269  11.484   1.587  12.354 -0.1899 -0.0160 -0.0232
13434SOL    HW149270  11.426   1.568  12.280  0.3207 -0.8993 -0.2145
13434SOL    HW249271  11.567   1.612  12.315  0.0636 -0.4213  0.2402
13435SOL     OW49272   2.661   6.967  12.367  0.4732 -0.1064 -0.3030
13435SOL    HW149273   2.689   7.055  12.394 -0.2135  0.3653 -1.0782
13435SOL    HW249274   2.634   6.978  12.276 -0.3965 -0.9522 -0.1563
13436SOL     OW49275   0.728   1.928   3.073  0.0419 -0.4969  0.5133
13436SOL    HW149276   0.659   1.956   3.013  1.2009  1.4382 -0.0378
13436SOL    HW249277   0.801   1.905   3.016  0.2452 -1.3871  1.1188
13437SOL     OW49278   7.293  10.875   0.974  0.4727  0.0642 -0.3759
13437SOL    HW149279   7.266  10.825   1.051  1.8112 -1.5637 -0.9054
13437SOL    HW249280   7.280  10.966   0.999 -2.0447 -0.5031  0.6371
13438SOL     OW49281  11.164   8.027   9.228 -0.0710 -0.5766 -0.7845
13438SOL    HW149282  11.102   7.977   9.280  0.5833 -0.2394  0.3637
13438SOL    HW249283  11.223   7.961   9.191 -0.9005 -0.8694 -1.6392
13439SOL     OW49284   3.026  11.453   2.209 -0.5778 -0.0829  0.2016
13439SOL    HW149285   3.023  11.519   2.279 -0.0744 -0.5565  0.6855
13439SOL    HW249286   3.090  11.389   2.240 -2.0010 -1.5015  0.3717
13440SOL     OW49287   0.920  12.082   0.544  0.2764 -0.1079  0.1803
13440SOL    HW149288   0.998  12.063   0.491  1.3807  0.0867  1.6982
13440SOL    HW249289   0.852  12.026   0.505  1.1385 -0.2740 -1.1879
13441SOL     OW49290   5.772   2.808   9.521 -0.5611  0.1080 -0.0715
13441SOL    HW149291   5.716   2.882   9.541 -1.9823 -0.7970 -0.5833
13441SOL    HW249292   5.734   2.770   9.442  0.8629 -0.4535 -0.5154
13442SOL     OW49293   8.815  10.891   8.262 -0.6649 -0.1748  0.3846
13442SOL    HW149294   8.735  10.938   8.238 -0.4338  0.3501  0.6281
13442SOL    HW249295   8.791  10.842   8.340 -0.6049  0.3852  0.7560
13443SOL     OW49296   8.715   8.814   7.051  0.4304  0.6320 -0.4757
13443SOL    HW149297   8.720   8.723   7.021 -1.5282  1.1242 -2.5187
13443SOL    HW249298   8.785   8.859   7.003  0.6815  0.4163 -0.3111
13444SOL     OW49299   8.319   1.431   1.831 -0.4020  0.2012  0.2633
13444SOL    HW149300   8.263   1.503   1.802 -1.4731 -0.1606  1.3561
13444SOL    HW249301   8.259   1.368   1.871  0.1048 -2.5887 -2.8759
13445SOL     OW49302   7.557  12.493   9.368  0.1780 -0.0173  0.1663
13445SOL    HW149303   7.524  12.423   9.312  0.7682 -0.0508 -0.1447
13445SOL    HW249304   7.610  12.547   9.310 -1.6029  1.6759 -0.0142
13446SOL     OW49305   3.173   0.975  12.131  0.0872  0.5485 -0.1024
13446SOL    HW149306   3.263   0.986  12.099  0.0535 -0.8562 -0.7522
13446SOL    HW249307   3.122   1.039  12.081  0.7041  1.3830  0.2961
13447SOL     OW49308   0.905   5.467   7.808  0.3807  0.0466  0.2962
13447SOL    HW149309   0.836   5.495   7.868  1.3832  1.5178  0.8227
13447SOL    HW249310   0.884   5.510   7.725 -0.5206 -1.2845 -0.1980
13448SOL     OW49311   8.198   3.347  11.775 -0.1505  0.5136  0.4127
13448SOL    HW149312   8.113   3.356  11.817 -0.8904 -2.1383 -0.3284
13448SOL    HW249313   8.246   3.286  11.831 -0.4754 -1.5975 -1.4480
13449SOL     OW49314   4.760  12.478   5.163  0.2680  0.3174  0.1391
13449SOL    HW149315   4.803  12.477   5.248  1.2414  0.9931 -0.3217
13449SOL    HW249316   4.793  12.558   5.120  0.6960 -0.5903 -1.3046
13450SOL     OW49317   5.599  11.392   7.511 -0.3136  0.8585  0.1440
13450SOL    HW149318   5.664  11.449   7.551 -1.1293  0.7779  1.6635
13450SOL    HW249319   5.537  11.374   7.581 -1.3699  0.0330 -0.9631
13451SOL     OW49320   0.913   4.838   5.393  0.3281  0.0503 -0.0539
13451SOL    HW149321   0.928   4.893   5.316 -1.0330 -2.3788 -2.2253
13451SOL    HW249322   0.843   4.882   5.441 -0.8758  0.1850 -1.8334
13452SOL     OW49323   9.385   4.525  10.153  0.0188  0.4684 -0.1365
13452SOL    HW149324   9.304   4.554  10.111  0.5049  3.6702  0.8487
13452SOL    HW249325   9.379   4.429  10.155 -2.9601  0.5332 -1.5333
13453SOL     OW49326  10.373   7.508   5.146  0.7250 -0.0013 -0.8473
13453SOL    HW149327  10.434   7.540   5.081  2.2518 -0.9681  0.0351
13453SOL    HW249328  10.426   7.451   5.203 -0.7086  0.1399  0.7276
13454SOL     OW49329   0.732   6.580   2.134  0.5456 -0.9020 -0.1354
13454SOL    HW149330   0.749   6.488   2.115 -0.4804 -1.0851 -0.2034
13454SOL    HW249331   0.816   6.623   2.119  0.9540 -1.7727 -0.4151
13455SOL     OW49332   7.703   7.637   5.264  0.7525  0.0925 -0.6161
13455SOL    HW149333   7.788   7.644   5.222  0.5281  0.2995 -1.0437
13455SOL    HW249334   7.689   7.543   5.275  0.1601 -0.0761 -2.3948
13456SOL     OW49335  10.422   6.422   3.192 -0.2004 -0.5406 -0.1238
13456SOL    HW149336  10.481   6.425   3.267  1.5216 -0.1816 -1.4375
13456SOL    HW249337  10.359   6.493   3.209  0.5276 -0.0651  0.6944
13457SOL     OW49338   0.610   8.747   4.634  0.1356  0.4221  0.9541
13457SOL    HW149339   0.685   8.804   4.651  1.4662 -0.4030 -1.7069
13457SOL    HW249340   0.559   8.793   4.568 -0.6534  0.0710  1.3033
13458SOL     OW49341   7.234   6.750  10.877  0.4083 -0.0786 -0.3480
13458SOL    HW149342   7.200   6.824  10.927  0.0999  0.1247 -0.8464
13458SOL    HW249343   7.328   6.769  10.868  0.4061  0.0448 -0.1289
13459SOL     OW49344  10.826   8.130   9.067  0.6818  0.2995 -0.1067
13459SOL    HW149345  10.732   8.114   9.066  0.8190 -0.5533 -1.4596
13459SOL    HW249346  10.864   8.049   9.102  0.8909  0.9230  1.1732
13460SOL     OW49347   8.907   1.435  10.626 -0.1166  0.1073  0.3483
13460SOL    HW149348   8.880   1.348  10.599  1.3179  0.0781 -1.1833
13460SOL    HW249349   8.850   1.494  10.576 -0.4149  0.0654  0.6318
13461SOL     OW49350   2.267   5.210   4.839  0.4213  0.1857 -0.4631
13461SOL    HW149351   2.330   5.152   4.882  0.2623  1.7054  2.0267
13461SOL    HW249352   2.270   5.184   4.746  1.5815 -2.5758  0.2349
13462SOL     OW49353   1.376  11.602  11.321  0.8807  0.3179 -0.0546
13462SOL    HW149354   1.392  11.689  11.358  0.2902  2.1655 -3.6643
13462SOL    HW249355   1.444  11.591  11.254  0.9549 -2.0846  0.3022
13463SOL     OW49356   7.477   3.146  12.001  0.6081  0.1496 -0.4811
13463SOL    HW149357   7.460   3.239  11.989  0.0594  0.0390 -0.5869
13463SOL    HW249358   7.402   3.114  12.051  0.3336 -0.4109 -1.2353
13464SOL     OW49359   2.084   1.355   5.274 -0.5405 -0.1631  0.5161
13464SOL    HW149360   2.031   1.433   5.256  1.0518  0.7622 -0.4697
13464SOL    HW249361   2.169   1.390   5.300  0.1647 -1.5729  0.2237
13465SOL     OW49362   0.134  11.668  11.622  0.5315 -0.3556  0.2623
13465SOL    HW149363   0.221  11.703  11.604  0.9711 -0.8329  1.3694
13465SOL    HW249364   0.080  11.698  11.549  1.7294 -0.4478 -0.6757
13466SOL     OW49365   6.655   5.206   0.545 -0.3698 -0.1640  0.0094
13466SOL    HW149366   6.696   5.210   0.631 -1.0137 -0.9965  0.3701
13466SOL    HW249367   6.711   5.259   0.489  1.5643 -1.7635  0.3328
13467SOL     OW49368   8.870   1.286   6.956  0.0994 -0.6467 -0.5448
13467SOL    HW149369   8.958   1.289   6.919 -0.0277  2.5096 -0.8050
13467SOL    HW249370   8.883   1.302   7.050 -0.1893 -0.6460 -0.5057
13468SOL     OW49371   9.334   1.050   0.249 -0.0399 -0.2117 -0.2839
13468SOL    HW149372   9.250   1.010   0.227  1.0770 -2.5105 -0.6899
13468SOL    HW249373   9.387   1.039   0.170  1.3732 -0.9801  0.7194
13469SOL     OW49374   9.417  10.646   3.511 -0.0618 -0.1232  0.0359
13469SOL    HW149375   9.391  10.734   3.537 -0.4463  0.6788 -2.7791
13469SOL    HW249376   9.493  10.658   3.454 -0.1232 -1.5920 -0.4061
13470SOL     OW49377  11.630   5.949   9.565  0.4849 -0.4394  0.0849
13470SOL    HW149378  11.657   5.940   9.656 -0.0388  1.3823  0.4637
13470SOL    HW249379  11.556   5.889   9.555  0.9755 -1.1537  0.6401
13471SOL     OW49380   8.655   6.677   9.487  0.1902 -0.0122 -0.1193
13471SOL    HW149381   8.733   6.647   9.441 -0.6580 -1.4837 -0.6759
13471SOL    HW249382   8.639   6.609   9.553  0.5823  1.3555  1.4513
13472SOL     OW49383   7.030   6.605   8.645 -0.2525  0.0590 -0.6576
13472SOL    HW149384   6.954   6.592   8.702 -1.1061 -0.6220 -1.9108
13472SOL    HW249385   7.052   6.518   8.613  0.4070  0.3898 -1.1372
13473SOL     OW49386   3.723   7.155   4.951  0.1123  0.1323  0.3986
13473SOL    HW149387   3.721   7.201   5.035  1.3793  1.4403 -0.2361
13473SOL    HW249388   3.814   7.126   4.942  0.8350  2.7384 -1.8705
13474SOL     OW49389   2.611   9.979   0.870 -0.3477  0.6083 -0.1230
13474SOL    HW149390   2.693   9.960   0.825 -0.9555 -1.1375 -0.5885
13474SOL    HW249391   2.622  10.067   0.905  1.5281  0.5951 -0.5935
13475SOL     OW49392  10.793   0.272   0.844  0.0580 -0.1966  0.1877
13475SOL    HW149393  10.838   0.188   0.835 -0.7658 -0.5779 -0.5920
13475SOL    HW249394  10.723   0.269   0.778 -1.8027 -0.0805  2.0513
13476SOL     OW49395   3.096  12.572   4.401 -0.2288  0.6777  0.0192
13476SOL    HW149396   3.069  12.658   4.430 -0.7043 -0.0613  1.8894
13476SOL    HW249397   3.192  12.573   4.408 -0.2467  0.9867  0.2051
13477SOL     OW49398  12.451   0.040   7.348  0.0319 -0.3503  0.5085
13477SOL    HW149399  12.419  -0.046   7.319 -1.8260  0.6732 -0.6916
13477SOL    HW249400  12.374   0.096   7.344  1.2485  1.4361  1.1242
13478SOL     OW49401   3.122   6.029  11.144 -0.3738 -0.1396  0.0438
13478SOL    HW149402   3.038   6.027  11.098 -1.9123 -0.4128  2.6487
13478SOL    HW249403   3.124   6.115  11.185  0.4877 -0.2617  0.2667
13479SOL     OW49404  10.499   7.138  10.503  0.3524 -0.0012 -0.1395
13479SOL    HW149405  10.573   7.180  10.460 -0.8732  0.8342 -1.5289
13479SOL    HW249406  10.516   7.150  10.597  1.3478  1.2759 -0.4567
13480SOL     OW49407   2.189   2.065   1.155  0.4701  0.5193 -0.5874
13480SOL    HW149408   2.100   2.059   1.120  0.3599  2.4850 -0.7664
13480SOL    HW249409   2.177   2.064   1.250  0.6496 -3.2613 -0.4564
13481SOL     OW49410   7.074   1.571   7.943 -0.1179 -0.2950 -0.5506
13481SOL    HW149411   6.981   1.548   7.947 -0.1203 -0.8588 -2.7143
13481SOL    HW249412   7.118   1.489   7.920  0.7804  0.2366 -0.7741
13482SOL     OW49413  10.119   1.282   7.549  0.1681  0.4982  0.1518
13482SOL    HW149414  10.166   1.263   7.468  0.0115  2.7449 -0.5493
13482SOL    HW249415  10.151   1.369   7.575 -1.3975  0.7820  1.2924
13483SOL     OW49416   4.074   5.411   8.997  0.6978 -0.4349 -0.8403
13483SOL    HW149417   4.007   5.412   9.065  0.5497 -0.4882 -0.9843
13483SOL    HW249418   4.134   5.481   9.022 -0.2995  0.7273 -1.5797
13484SOL     OW49419   8.566   7.550   5.114 -0.0239 -0.2026 -0.4545
13484SOL    HW149420   8.577   7.572   5.021  0.5478  0.1402 -0.3109
13484SOL    HW249421   8.523   7.626   5.152 -0.3825 -0.3999 -0.4602
13485SOL     OW49422   9.330   3.622   9.184  0.6158 -0.1621  0.2474
13485SOL    HW149423   9.423   3.634   9.165  0.3572  1.0229 -0.3851
13485SOL    HW249424   9.310   3.533   9.156  1.5985 -0.4827  0.5543
13486SOL     OW49425  10.428  12.070   7.844  0.5359  0.1542  0.2505
13486SOL    HW149426  10.411  11.984   7.881  2.7986 -0.9325 -1.0497
13486SOL    HW249427  10.437  12.055   7.750 -0.8667  2.1546 -0.2749
13487SOL     OW49428   8.664   3.730   3.735 -0.1917 -0.2964 -0.5318
13487SOL    HW149429   8.725   3.694   3.669 -0.6862 -1.7002 -0.2514
13487SOL    HW249430   8.649   3.658   3.795 -1.6157  0.2405 -0.2132
13488SOL     OW49431  10.889  10.991   4.412 -0.6087 -0.5411  0.0511
13488SOL    HW149432  10.839  11.015   4.334  1.1368 -2.1057 -1.6582
13488SOL    HW249433  10.958  10.934   4.379  0.3222 -1.1009  2.7550
13489SOL     OW49434  11.790   9.462   5.476 -0.3902 -0.2674 -0.0046
13489SOL    HW149435  11.852   9.452   5.405 -1.6518 -2.5662 -0.8697
13489SOL    HW249436  11.804   9.386   5.532  0.3036  1.2749  2.0794
13490SOL     OW49437   8.649   4.536   4.948 -0.1349  0.2194  0.0315
13490SOL    HW149438   8.679   4.539   4.857 -0.5919  0.3617 -0.1171
13490SOL    HW249439   8.675   4.620   4.985  1.1576 -0.3192  0.3926
13491SOL     OW49440   0.235   9.373   0.410 -0.7504 -0.2549 -0.1349
13491SOL    HW149441   0.177   9.297   0.403 -0.4765 -0.3211 -3.6443
13491SOL    HW249442   0.178   9.445   0.435 -2.3393 -0.4403 -2.8493
13492SOL     OW49443   9.585   7.928   6.101  0.3040  0.4432  0.3487
13492SOL    HW149444   9.649   7.888   6.160 -0.7034  0.6716  1.6670
13492SOL    HW249445   9.588   7.875   6.022  1.3794 -0.1712  0.7833
13493SOL     OW49446   3.498   4.933   8.095 -0.1558  0.5618  0.7332
13493SOL    HW149447   3.499   4.858   8.154  2.6435 -1.7317 -1.9140
13493SOL    HW249448   3.459   4.901   8.014  0.7465  2.0214 -0.3481
13494SOL     OW49449   6.032   0.939   1.626  0.2273 -0.1525 -0.2245
13494SOL    HW149450   6.046   0.864   1.684  0.2898  1.8166  2.4913
13494SOL    HW249451   5.952   0.981   1.660  0.1310  0.9735 -1.7242
13495SOL     OW49452  10.911   1.961  10.421  0.4683  0.8100 -0.0544
13495SOL    HW149453  10.908   1.917  10.506  0.3754 -0.0060 -0.4791
13495SOL    HW249454  11.005   1.972  10.403  0.5532 -0.7473 -0.7199
13496SOL     OW49455   2.938   9.007   3.977  0.2095 -0.1488 -0.1480
13496SOL    HW149456   2.920   8.937   3.913  0.7111 -2.1942  1.8008
13496SOL    HW249457   2.966   8.960   4.056  0.7039  2.3112  1.2368
13497SOL     OW49458   7.574   6.207   2.264  0.2846  0.1302  0.5883
13497SOL    HW149459   7.662   6.241   2.281  0.2131  1.0816 -0.7684
13497SOL    HW249460   7.516   6.281   2.283 -0.1495 -0.2222  0.6339
13498SOL     OW49461   2.579   8.441   7.058 -0.5188 -0.2344  0.0866
13498SOL    HW149462   2.507   8.433   7.120 -0.6172 -0.2131 -0.0228
13498SOL    HW249463   2.542   8.491   6.985 -0.4123 -0.2798  0.0010
13499SOL     OW49464   4.956   9.650   9.441  0.3003  0.3880 -0.0083
13499SOL    HW149465   5.043   9.671   9.475  1.1269  0.7811 -2.2216
13499SOL    HW249466   4.896   9.697   9.499  1.6217  1.1145  0.8167
13500SOL     OW49467   0.351   2.154  10.676  0.0130  0.3603 -0.1489
13500SOL    HW149468   0.351   2.247  10.697  1.3319  0.4558 -0.4846
13500SOL    HW249469   0.404   2.147  10.596 -0.0203 -0.6729 -0.1002
13501SOL     OW49470  11.478  10.498   2.842  0.7171  0.3123 -0.3944
13501SOL    HW149471  11.492  10.405   2.862 -1.1401 -0.0305 -0.5423
13501SOL    HW249472  11.512  10.510   2.754  0.3616 -0.4006 -0.6326
13502SOL     OW49473   9.814   7.456   2.756  0.8136 -0.0222  0.0569
13502SOL    HW149474   9.871   7.438   2.831  0.8177  0.9944  0.3113
13502SOL    HW249475   9.804   7.551   2.756  1.0448  0.0257 -1.4023
13503SOL     OW49476   0.062   5.549   5.776 -0.2516 -0.5317  0.1406
13503SOL    HW149477   0.072   5.485   5.705 -1.7845 -0.3357 -0.2821
13503SOL    HW249478   0.001   5.508   5.836 -0.7334  0.2461  0.1975
13504SOL     OW49479   6.957   7.880   4.150  0.1853 -0.2244  0.0499
13504SOL    HW149480   6.965   7.825   4.228  0.0756 -0.7727 -0.3143
13504SOL    HW249481   7.042   7.872   4.106 -0.3899 -1.5022 -0.8915
13505SOL     OW49482   5.785   5.304   0.827  0.1504 -0.5948  0.5983
13505SOL    HW149483   5.849   5.308   0.898 -0.4649  0.9845  1.1126
13505SOL    HW249484   5.713   5.360   0.856 -0.8908 -1.2664 -0.5457
13506SOL     OW49485   0.393  10.676  12.326  0.1026  0.2452 -0.6086
13506SOL    HW149486   0.463  10.624  12.365 -0.7789 -1.1016 -0.7560
13506SOL    HW249487   0.314  10.649  12.373 -0.1829  2.6781  0.4599
13507SOL     OW49488   9.388   8.321   9.258  0.0854  0.2998  0.2988
13507SOL    HW149489   9.322   8.388   9.245  0.7585  0.9588  0.2290
13507SOL    HW249490   9.399   8.282   9.171 -3.3344 -2.8651  1.0233
13508SOL     OW49491   0.579   7.216   2.544 -0.6611 -0.0173 -0.3375
13508SOL    HW149492   0.662   7.210   2.495 -1.2614  1.0299 -1.5558
13508SOL    HW249493   0.605   7.208   2.636  0.6515 -0.8472 -0.7485
13509SOL     OW49494   6.598   6.490  12.446 -0.4157  0.1770  0.2976
13509SOL    HW149495   6.547   6.533  12.514  0.2199 -0.4706  1.2179
13509SOL    HW249496   6.541   6.489  12.370 -1.1830  0.8374  0.8437
13510SOL     OW49497   4.705  11.219   5.012  0.0607  0.3132 -0.2563
13510SOL    HW149498   4.739  11.139   4.972  0.8968  0.5561 -0.0480
13510SOL    HW249499   4.751  11.290   4.966  0.0220  0.6394  0.2055
13511SOL     OW49500   8.424   2.538   4.599 -0.1558 -0.0966 -0.0151
13511SOL    HW149501   8.381   2.603   4.544  0.6495 -0.7852 -1.5589
13511SOL    HW249502   8.462   2.588   4.671 -1.3758  0.8314  0.0013
13512SOL     OW49503   3.790   1.674   6.651 -1.0914 -0.0489 -0.2028
13512SOL    HW149504   3.718   1.733   6.672  0.4146  1.9018 -0.1962
13512SOL    HW249505   3.859   1.732   6.619  0.6458 -1.7866  0.2377
13513SOL     OW49506   9.125   9.820   4.624 -0.1463 -0.0306 -0.3558
13513SOL    HW149507   9.152   9.874   4.698 -0.3809 -2.0741  1.2916
13513SOL    HW249508   9.199   9.823   4.563 -0.1882  2.1598 -0.3909
13514SOL     OW49509   0.967  12.554  10.467  0.1993  0.0191  0.6413
13514SOL    HW149510   1.010  12.585  10.387  0.3450 -0.2015  0.6352
13514SOL    HW249511   1.023  12.585  10.538 -0.1685  0.6081  0.6834
13515SOL     OW49512   0.834  10.185   9.315 -0.0808 -0.3190  0.4273
13515SOL    HW149513   0.904  10.127   9.347  1.4061  0.4593 -1.2406
13515SOL    HW249514   0.799  10.140   9.239  0.3508  0.4292 -0.2335
13516SOL     OW49515   5.573   1.165   7.030  0.4142  0.1957  0.0132
13516SOL    HW149516   5.577   1.155   6.934  0.1079  1.8968 -0.2133
13516SOL    HW249517   5.487   1.203   7.046  0.1694 -0.7374  1.0681
13517SOL     OW49518   9.624   6.357   0.157 -0.8708  0.8174  0.0434
13517SOL    HW149519   9.561   6.406   0.210 -0.3691  0.7652  0.7106
13517SOL    HW249520   9.638   6.410   0.079 -0.2929  1.7767  0.7762
13518SOL     OW49521   7.401   0.284   5.962 -0.3054  0.6542  0.8402
13518SOL    HW149522   7.373   0.333   6.039 -0.8087  1.5684  0.0973
13518SOL    HW249523   7.328   0.225   5.943 -1.6388  2.7091 -0.8197
13519SOL     OW49524   2.352   5.418   5.900 -0.1618  0.4460  0.0143
13519SOL    HW149525   2.295   5.473   5.954  0.5395  0.9307  0.2820
13519SOL    HW249526   2.294   5.381   5.833 -1.1581 -0.6109  1.4076
13520SOL     OW49527  12.306   9.068   5.493 -0.5868  0.1627  0.3077
13520SOL    HW149528  12.225   9.117   5.478 -0.6481 -0.0650 -0.1311
13520SOL    HW249529  12.375   9.134   5.493 -0.7811  0.3688  0.7775
13521SOL     OW49530  10.752   2.965   5.132  0.8110  0.0722 -0.4667
13521SOL    HW149531  10.844   2.982   5.111  0.0887  0.2203 -4.2978
13521SOL    HW249532  10.715   3.052   5.147  1.1718  0.0461  0.6520
13522SOL     OW49533   9.113   9.483  12.473 -0.6248 -0.4092 -0.4699
13522SOL    HW149534   9.080   9.520  12.391 -2.8151  0.2736  0.6511
13522SOL    HW249535   9.199   9.447  12.450 -0.6516  0.8190 -2.7725
13523SOL     OW49536   2.963   0.615  11.436 -0.0795 -0.3365  0.3647
13523SOL    HW149537   3.022   0.635  11.508 -0.3858 -0.4440  0.6502
13523SOL    HW249538   2.928   0.528  11.457 -1.1280  0.1609  0.7399
13524SOL     OW49539  11.670  11.007   1.655  0.1967 -0.3288 -0.0750
13524SOL    HW149540  11.656  10.986   1.747 -0.3125  0.2777 -0.0011
13524SOL    HW249541  11.591  11.056   1.630  0.8014  0.4287 -0.5457
13525SOL     OW49542   3.963   7.372   8.585 -0.2023  0.0782 -0.2951
13525SOL    HW149543   3.953   7.414   8.500  0.2132  1.2899  0.2323
13525SOL    HW249544   3.961   7.278   8.566 -0.7240  0.3270 -1.5584
13526SOL     OW49545  12.214   6.969  12.426  0.4001  0.4464  0.1067
13526SOL    HW149546  12.141   7.022  12.458  0.0532  0.8707 -1.3225
13526SOL    HW249547  12.290   7.026  12.434  0.2006  0.8004 -0.4485
13527SOL     OW49548   3.102  10.139   8.950  0.0334  0.0649  0.4633
13527SOL    HW149549   3.141  10.143   8.862 -1.3672 -0.9898 -0.2595
13527SOL    HW249550   3.176  10.125   9.008  1.1848  2.3391 -0.3349
13528SOL     OW49551  10.464   0.466  11.009 -0.4530 -0.2407 -0.0464
13528SOL    HW149552  10.454   0.536  11.073 -1.5963 -1.2271  0.8931
13528SOL    HW249553  10.424   0.389  11.050 -1.1082 -0.9401 -1.8938
13529SOL     OW49554   9.502   7.470   9.480  0.1895 -0.5137  0.6911
13529SOL    HW149555   9.581   7.508   9.518  1.1710 -1.0165 -0.7634
13529SOL    HW249556   9.445   7.546   9.463  0.4141 -0.1337  1.6114
13530SOL     OW49557   2.861   1.886   4.532 -0.0108 -0.1269  0.1454
13530SOL    HW149558   2.800   1.814   4.518  0.2434 -0.1089 -1.2185
13530SOL    HW249559   2.903   1.867   4.616 -0.5198 -1.1344  0.1805
13531SOL     OW49560   4.427   8.758   0.732 -0.3296  0.0051 -0.4737
13531SOL    HW149561   4.339   8.795   0.721 -1.0889 -1.6763 -0.2552
13531SOL    HW249562   4.414   8.679   0.784  1.2879 -0.4359 -0.6762
13532SOL     OW49563   6.983   3.176   4.149 -0.1866  0.4717  0.2044
13532SOL    HW149564   7.016   3.122   4.078  1.2761  0.9494  0.4966
13532SOL    HW249565   6.946   3.114   4.211  2.5937 -0.3915  1.1494
13533SOL     OW49566   9.715   3.520   2.157 -0.3288  0.0144  0.0681
13533SOL    HW149567   9.770   3.598   2.165 -1.1320  0.6706 -0.5113
13533SOL    HW249568   9.625   3.555   2.156 -0.8191 -1.0697  1.7898
13534SOL     OW49569   4.285   6.426  11.292 -0.8365  0.1345 -0.6580
13534SOL    HW149570   4.251   6.515  11.280 -0.4360  0.2961 -0.6005
13534SOL    HW249571   4.372   6.428  11.252 -0.2346  0.1672  0.6230
13535SOL     OW49572   2.201  10.601   1.443 -0.3180 -0.0226 -0.5198
13535SOL    HW149573   2.192  10.696   1.445  0.6129  0.0777 -0.5039
13535SOL    HW249574   2.188  10.577   1.351 -1.0081  0.0634 -0.4480
13536SOL     OW49575   0.724   8.612   8.523  0.2767 -0.8965 -0.5458
13536SOL    HW149576   0.709   8.658   8.440 -1.4531 -0.3012  0.0611
13536SOL    HW249577   0.720   8.680   8.589  0.6939 -1.5057  0.1181
13537SOL     OW49578   4.177   7.100   1.964  0.8118 -0.5115  0.0060
13537SOL    HW149579   4.201   7.046   1.889  3.0032 -1.1947  1.1395
13537SOL    HW249580   4.121   7.044   2.018 -0.7026 -0.0455 -1.0091
13538SOL     OW49581   1.921  10.903   0.417  0.4079  0.4264  0.5183
13538SOL    HW149582   1.960  10.951   0.490 -1.0693  0.4429  1.3137
13538SOL    HW249583   1.942  10.956   0.340  3.6948 -0.5720  0.5570
13539SOL     OW49584   7.849   2.235  12.446 -0.7263 -0.2121  1.1780
13539SOL    HW149585   7.853   2.300  12.516 -1.4901  2.1777 -0.8524
13539SOL    HW249586   7.828   2.285  12.368 -2.2423 -3.0514 -0.3938
13540SOL     OW49587   4.264   1.879   0.244 -0.0935 -0.2201 -0.0222
13540SOL    HW149588   4.352   1.908   0.219  0.0817 -0.5884  0.1458
13540SOL    HW249589   4.219   1.959   0.271 -0.0204  0.0619 -0.7151
13541SOL     OW49590   8.407   6.433   4.099  0.3759  0.4948 -0.1396
13541SOL    HW149591   8.493   6.406   4.131 -0.4807  0.5249  2.4022
13541SOL    HW249592   8.359   6.458   4.177 -1.5150  1.8355 -1.6288
13542SOL     OW49593  12.249   2.585   9.969  0.4366 -1.0853 -0.7331
13542SOL    HW149594  12.225   2.677   9.958 -1.0829 -1.3647  0.0497
13542SOL    HW249595  12.345   2.586   9.969  0.4814  0.7275  0.9378
13543SOL     OW49596   2.624   8.021   5.508 -0.6706 -0.3845 -0.3799
13543SOL    HW149597   2.686   8.086   5.473  0.9224 -0.0348  2.7623
13543SOL    HW249598   2.668   7.937   5.494 -0.8215 -0.4095 -0.7132
13544SOL     OW49599   4.330  12.232   0.097  0.8154  0.2981 -0.1100
13544SOL    HW149600   4.401  12.246   0.159  1.0967  1.7895 -0.7178
13544SOL    HW249601   4.371  12.241   0.011 -0.3026  2.4960 -0.4746
13545SOL     OW49602   8.129   0.834   9.456 -0.8017  0.1565 -0.3581
13545SOL    HW149603   8.216   0.795   9.462 -1.2681 -1.0365 -0.9609
13545SOL    HW249604   8.116   0.876   9.541 -0.0174 -0.4910  0.1007
13546SOL     OW49605  12.134   2.137   5.596  0.9219 -0.3691 -0.3658
13546SOL    HW149606  12.146   2.057   5.546 -0.7237  0.7521 -2.7609
13546SOL    HW249607  12.193   2.200   5.555 -0.2736  0.5187 -0.7819
13547SOL     OW49608   5.216   4.417   4.444 -0.2553  0.3958  0.1229
13547SOL    HW149609   5.212   4.488   4.380  0.7225  0.3395 -0.0149
13547SOL    HW249610   5.124   4.398   4.465 -0.5682  0.7024 -0.9358
13548SOL     OW49611   0.655  11.523   7.702 -0.1334 -0.5126  0.2513
13548SOL    HW149612   0.622  11.565   7.781  1.6811 -0.5429  1.0571
13548SOL    HW249613   0.682  11.595   7.645 -2.0242 -0.4627 -0.6689
13549SOL     OW49614   3.002   6.038   9.430  0.5332  0.3241  0.5886
13549SOL    HW149615   2.958   5.970   9.482  0.3260 -1.4843 -1.8187
13549SOL    HW249616   2.937   6.109   9.424 -1.5798 -1.6295 -1.5250
13550SOL     OW49617   6.602  10.072   1.924  0.0475 -0.3864  0.2484
13550SOL    HW149618   6.582  10.159   1.888  0.6642 -0.6051 -0.6543
13550SOL    HW249619   6.639  10.090   2.011 -0.3627  0.2176  0.3038
13551SOL     OW49620   2.193   0.325   0.254  0.5565 -0.0683 -0.2371
13551SOL    HW149621   2.257   0.334   0.183 -0.1220 -0.0133 -0.8611
13551SOL    HW249622   2.140   0.250   0.227  1.2944 -1.0869  1.0313
13552SOL     OW49623   0.468   8.371  11.194 -0.7859  0.0574  0.0613
13552SOL    HW149624   0.379   8.388  11.166 -0.6982 -0.4930 -0.5577
13552SOL    HW249625   0.521   8.378  11.114 -0.3630 -0.2489  0.3067
13553SOL     OW49626  11.776   5.313   2.123 -0.4916 -0.1773 -0.1513
13553SOL    HW149627  11.855   5.301   2.071 -1.0976  0.1308 -1.1878
13553SOL    HW249628  11.725   5.233   2.108 -0.8375  0.0742 -0.3598
13554SOL     OW49629  11.574   0.825   2.879 -0.6642 -0.0082 -0.5342
13554SOL    HW149630  11.627   0.765   2.826 -1.3511  0.5154 -1.8620
13554SOL    HW249631  11.504   0.770   2.915  0.1370 -0.4835  0.3253
13555SOL     OW49632  11.109   0.681  10.669  0.6667  0.1591  0.1739
13555SOL    HW149633  11.042   0.689  10.737  1.5623 -0.3393  1.1518
13555SOL    HW249634  11.184   0.642  10.714  1.0462 -0.8728 -1.2756
13556SOL     OW49635   6.959   5.862   9.189 -0.0161  0.1855 -0.1978
13556SOL    HW149636   7.055   5.857   9.184 -0.0621 -2.3424 -0.0892
13556SOL    HW249637   6.939   5.955   9.185  2.3928  0.7342 -1.3271
13557SOL     OW49638   9.436  10.027   4.381  0.2047 -0.5068 -0.0074
13557SOL    HW149639   9.436   9.936   4.412 -0.9182 -0.1711  1.0281
13557SOL    HW249640   9.371  10.028   4.311 -0.6869 -0.2601  0.7994
13558SOL     OW49641   5.681  10.319   8.262  0.1813 -0.2118  0.1222
13558SOL    HW149642   5.602  10.325   8.315 -0.0526  1.4660 -0.3374
13558SOL    HW249643   5.748  10.362   8.315  0.3891 -0.1823 -0.1627
13559SOL     OW49644  10.714   5.048   4.573 -0.4633  0.0864 -0.1006
13559SOL    HW149645  10.698   5.133   4.615 -1.4550 -0.3776  0.5159
13559SOL    HW249646  10.802   5.055   4.537 -0.0132  0.9218  1.0812
13560SOL     OW49647   1.065   6.021   3.719  0.0948  0.1254 -0.4503
13560SOL    HW149648   1.148   6.024   3.671 -0.7684  0.3685 -1.9996
13560SOL    HW249649   1.000   5.999   3.652 -1.2645  1.1073  0.4978
13561SOL     OW49650   0.828  11.725   8.970  0.0558  0.2303  0.0364
13561SOL    HW149651   0.863  11.652   8.919  0.2481  1.1405 -1.1910
13561SOL    HW249652   0.733  11.719   8.958  0.0129 -0.2767  0.5985
13562SOL     OW49653  10.515   3.729   2.714  0.0976  0.0994 -0.7598
13562SOL    HW149654  10.609   3.737   2.724  0.3595 -0.2323 -2.5316
13562SOL    HW249655  10.486   3.685   2.794  1.2130  1.4391  0.4436
13563SOL     OW49656   9.158   0.476  10.600  0.4106 -0.1723 -0.5532
13563SOL    HW149657   9.236   0.530  10.587  0.3819  0.3891  1.2945
13563SOL    HW249658   9.150   0.425  10.519  2.2464  0.3061 -1.0838
13564SOL     OW49659   0.208   8.282   6.880  0.3605 -0.3046 -0.1776
13564SOL    HW149660   0.288   8.286   6.932 -0.3918  0.6015  0.9771
13564SOL    HW249661   0.144   8.330   6.932  0.0149  2.3252 -2.7747
13565SOL     OW49662   4.534   1.285   5.469 -0.1931 -0.1647  0.0665
13565SOL    HW149663   4.626   1.266   5.451 -0.2268 -1.0184  0.7375
13565SOL    HW249664   4.506   1.216   5.530 -1.3117  0.0061 -0.2268
13566SOL     OW49665   4.556  11.696   8.942 -0.0104  0.3051 -0.4377
13566SOL    HW149666   4.503  11.622   8.911 -0.6309  1.2092 -1.6310
13566SOL    HW249667   4.646  11.663   8.939 -0.3805 -0.8872  0.5387
13567SOL     OW49668   9.228  12.443  11.800  0.1907  0.5434  0.2495
13567SOL    HW149669   9.211  12.536  11.816 -0.2893  0.4738  0.1392
13567SOL    HW249670   9.212  12.431  11.707 -2.1490 -0.1575  0.6912
13568SOL     OW49671  10.867   0.869   6.152 -0.3129 -0.5198  0.4602
13568SOL    HW149672  10.861   0.890   6.245 -0.3206 -1.1383  0.6056
13568SOL    HW249673  10.854   0.774   6.148 -2.2264 -0.2662 -0.3524
13569SOL     OW49674  11.136   0.859   9.984 -0.3206 -0.0398  0.4259
13569SOL    HW149675  11.148   0.830  10.074 -0.9200  0.7619  0.7869
13569SOL    HW249676  11.041   0.852   9.970 -0.1049 -1.2419 -0.5359
13570SOL     OW49677   2.523  10.321   3.534  0.3046 -0.2221  0.1167
13570SOL    HW149678   2.442  10.276   3.558 -1.0246  1.7814 -0.2674
13570SOL    HW249679   2.569  10.333   3.617  0.7388 -2.2486  0.2167
13571SOL     OW49680   4.129   0.006   5.712 -0.4459 -0.8575 -0.0516
13571SOL    HW149681   4.139   0.098   5.690  0.1943 -1.4221 -2.4451
13571SOL    HW249682   4.207  -0.015   5.764 -1.0196  0.0984  1.2412
13572SOL     OW49683   1.393   9.830   8.358  0.0986 -0.1798 -0.6191
13572SOL    HW149684   1.451   9.777   8.303 -0.8829 -0.1262 -1.7484
13572SOL    HW249685   1.326   9.862   8.298 -1.1791 -0.3368  0.6677
13573SOL     OW49686  12.397   4.612   4.142  0.3517  0.9012 -0.1889
13573SOL    HW149687  12.373   4.663   4.219  1.6633 -0.0907  0.9198
13573SOL    HW249688  12.481   4.573   4.164 -0.1811 -1.0283 -1.3411
13574SOL     OW49689   5.859   2.655   1.535 -0.1025 -0.4601 -0.1457
13574SOL    HW149690   5.946   2.644   1.576  0.7864 -1.0357 -2.0624
13574SOL    HW249691   5.811   2.576   1.560 -1.9087  1.7920  4.7817
13575SOL     OW49692   4.659   9.109  11.694  0.3922 -0.4365 -0.3108
13575SOL    HW149693   4.701   9.127  11.610 -0.8723 -0.3374 -0.9483
13575SOL    HW249694   4.610   9.189  11.714  1.5150 -0.0576  1.0610
13576SOL     OW49695   7.855   0.593  11.370 -0.4175 -0.4898  0.2700
13576SOL    HW149696   7.788   0.629  11.312  1.6735  2.2288 -0.6598
13576SOL    HW249697   7.899   0.526  11.317 -2.0491 -2.0321  0.7674
13577SOL     OW49698   8.203  11.821   4.925  0.0151  0.1499 -0.2663
13577SOL    HW149699   8.135  11.754   4.928  1.2987 -1.1745  0.5962
13577SOL    HW249700   8.171  11.890   4.982 -1.6467  0.6581 -1.6977
13578SOL     OW49701   4.788   4.161   6.241  0.5326  0.4963 -0.6831
13578SOL    HW149702   4.736   4.082   6.252  0.7038  0.4551 -0.1051
13578SOL    HW249703   4.864   4.133   6.189  0.7423  0.2095 -0.2285
13579SOL     OW49704   6.227   9.680   2.434 -0.1040  0.0621  0.3107
13579SOL    HW149705   6.301   9.629   2.401  0.6435  1.5660 -0.4316
13579SOL    HW249706   6.262   9.730   2.507 -1.1527 -1.3948  1.8946
13580SOL     OW49707  12.357   0.493  11.531  0.4123  0.1932  0.3941
13580SOL    HW149708  12.440   0.466  11.572  0.3849 -0.6282 -0.0576
13580SOL    HW249709  12.371   0.477  11.437  0.4852  2.0556  0.0594
13581SOL     OW49710   8.292   4.149   2.382 -0.0011 -0.0063 -0.1624
13581SOL    HW149711   8.288   4.057   2.355  0.8183 -0.7942  2.2015
13581SOL    HW249712   8.214   4.161   2.437 -0.3050  0.8501 -0.7552
13582SOL     OW49713   8.675   5.391   8.776  0.0734  0.2415  0.5515
13582SOL    HW149714   8.662   5.481   8.803 -0.1259  1.0514 -1.9606
13582SOL    HW249715   8.720   5.397   8.691  0.2397 -2.0198  0.4070
13583SOL     OW49716   8.418   0.682   4.370 -0.0061 -0.5626 -0.5395
13583SOL    HW149717   8.437   0.616   4.303 -2.1404 -1.6606 -0.1567
13583SOL    HW249718   8.425   0.766   4.323 -0.5931 -1.2651 -1.9487
13584SOL     OW49719   7.789  11.113  11.303  0.2742  0.2458 -0.2375
13584SOL    HW149720   7.767  11.022  11.285  0.1295  0.2088  0.1257
13584SOL    HW249721   7.721  11.143  11.363  1.0627  0.2049  0.6992
13585SOL     OW49722   5.901   8.478  10.187  0.5156  0.7478 -0.5112
13585SOL    HW149723   5.930   8.558  10.231  0.8253  1.8904 -2.6874
13585SOL    HW249724   5.978   8.421  10.188  0.8015  1.1366 -0.4237
13586SOL     OW49725   6.946  10.099   4.602 -0.0636  0.0623  0.5979
13586SOL    HW149726   6.957  10.186   4.640  2.2321  0.3885 -0.6206
13586SOL    HW249727   6.963  10.038   4.674  4.1203  0.6575  0.3579
13587SOL     OW49728   7.968   0.769   3.352  0.5535  0.3020  0.3908
13587SOL    HW149729   8.014   0.819   3.420 -0.0965  0.4388  0.7417
13587SOL    HW249730   7.915   0.706   3.402  0.2347  0.2620  0.0015
13588SOL     OW49731  12.595   2.305   1.276  0.6172  0.0440  0.2432
13588SOL    HW149732  12.624   2.367   1.209 -0.3875 -0.9231 -1.1494
13588SOL    HW249733  12.675   2.276   1.319  1.1461  1.9276  0.6045
13589SOL     OW49734  12.453   1.652   8.537  0.3168 -0.3202 -0.0160
13589SOL    HW149735  12.537   1.697   8.543  1.2900 -1.5868 -2.6474
13589SOL    HW249736  12.392   1.718   8.504  1.0328 -0.1268 -1.0021
13590SOL     OW49737   1.877  11.216   9.250 -0.3943  0.4345  0.5742
13590SOL    HW149738   1.940  11.280   9.283 -1.6082  1.5636  0.7918
13590SOL    HW249739   1.802  11.224   9.309 -0.2186 -1.9186  1.2162
13591SOL     OW49740   8.325   3.248  12.419  0.1682 -0.0131  0.0857
13591SOL    HW149741   8.268   3.198  12.477 -0.4573 -0.0012 -0.5104
13591SOL    HW249742   8.268   3.278  12.349  0.8854  0.1257 -0.4483
13592SOL     OW49743   9.126   4.146   6.393  0.2374  0.2938  0.1008
13592SOL    HW149744   9.126   4.171   6.300  0.5961 -0.1971 -0.0356
13592SOL    HW249745   9.106   4.227   6.439 -0.1472  0.5002 -0.4176
13593SOL     OW49746   4.199   8.808   0.520 -0.0592  0.3446  0.1282
13593SOL    HW149747   4.110   8.844   0.523  0.1125  0.8523 -0.4953
13593SOL    HW249748   4.187   8.718   0.491 -0.3630  0.4543 -0.1019
13594SOL     OW49749   0.045   2.521   3.452  0.4752  0.0205 -0.2551
13594SOL    HW149750   0.104   2.482   3.387  0.0440  0.9343 -1.2425
13594SOL    HW249751   0.101   2.577   3.506  0.8987 -1.0299  0.4094
13595SOL     OW49752   7.047   8.652  11.019 -0.1269 -0.2889 -0.3364
13595SOL    HW149753   6.979   8.595  11.056 -1.3948  1.5138  0.2607
13595SOL    HW249754   7.089   8.598  10.952 -1.6956 -1.7032 -0.2709
13596SOL     OW49755   5.597  10.677   7.879 -0.3789 -0.0236 -0.3342
13596SOL    HW149756   5.505  10.702   7.876 -0.3588  0.2989  1.2027
13596SOL    HW249757   5.603  10.611   7.947  0.4133 -0.6373 -0.9682
13597SOL     OW49758   3.325  11.061   1.380  0.5226  0.1055  0.0800
13597SOL    HW149759   3.314  11.051   1.285 -1.5044 -2.9062  0.4962
13597SOL    HW249760   3.289  10.981   1.417  1.6370  0.9894  3.4326
13598SOL     OW49761   3.026   0.968   4.213 -0.1842 -0.6922 -0.3376
13598SOL    HW149762   3.107   1.016   4.230 -0.6226 -0.1187  0.1381
13598SOL    HW249763   2.957   1.034   4.214 -0.6161 -1.1124 -1.1682
13599SOL     OW49764   9.510   1.800   7.931  0.5038  0.4726  0.0568
13599SOL    HW149765   9.513   1.895   7.915 -0.8135  1.0605  2.7365
13599SOL    HW249766   9.545   1.789   8.019 -0.6096 -1.3524  0.3268
13600SOL     OW49767   7.921   8.627   5.027 -0.1189 -0.6966  0.0349
13600SOL    HW149768   7.885   8.638   5.115 -1.3085 -0.0193 -0.5201
13600SOL    HW249769   8.014   8.650   5.036 -0.5058  0.6423  0.8509
13601SOL     OW49770   3.376   7.758   6.994 -0.2055 -0.0466 -0.2788
13601SOL    HW149771   3.463   7.785   7.021 -0.1956 -0.0785 -0.2784
13601SOL    HW249772   3.361   7.675   7.040  0.6464 -1.1999 -1.9437
13602SOL     OW49773   2.027  12.553   2.330 -0.2865 -0.1663  0.2915
13602SOL    HW149774   2.088  12.596   2.271 -1.0337 -0.0722 -0.4251
13602SOL    HW249775   2.074  12.550   2.414  0.9892 -0.7563 -0.4042
13603SOL     OW49776  10.819  10.846   6.605 -0.2330  0.3268 -0.4517
13603SOL    HW149777  10.816  10.856   6.700  0.5924  1.2442 -0.5002
13603SOL    HW249778  10.866  10.765   6.591 -1.0369 -0.2181 -0.0771
13604SOL     OW49779   5.345   3.305   0.536  0.1694  0.3005 -0.0780
13604SOL    HW149780   5.306   3.278   0.619 -2.1346 -0.3804 -1.2836
13604SOL    HW249781   5.399   3.231   0.509  1.7021  0.9029  1.2087
13605SOL     OW49782  11.542   3.753   4.213 -0.3879  0.0768  0.2695
13605SOL    HW149783  11.478   3.824   4.213 -1.3050 -0.7140  0.6186
13605SOL    HW249784  11.491   3.675   4.237  0.8378 -0.4723  1.2160
13606SOL     OW49785   9.587   2.796   2.589 -0.4012  0.5391 -0.0598
13606SOL    HW149786   9.551   2.716   2.549 -1.4671  0.8976  0.1753
13606SOL    HW249787   9.590   2.859   2.517 -0.1944  0.5065 -0.0829
13607SOL     OW49788  11.205  10.238  11.080  0.6711  0.2478 -0.1140
13607SOL    HW149789  11.291  10.197  11.089  0.6434  0.4626  1.2903
13607SOL    HW249790  11.197  10.295  11.156 -0.1571  1.3051 -0.9479
13608SOL     OW49791   8.082   8.732   9.741 -0.0917  0.3141  0.3706
13608SOL    HW149792   8.070   8.827   9.746 -1.2960  0.2172 -0.3580
13608SOL    HW249793   8.094   8.705   9.832  2.1766  1.3662  0.4539
13609SOL     OW49794  10.934   3.588   8.191  0.8480 -0.0400 -0.0400
13609SOL    HW149795  11.012   3.634   8.161  1.0696 -0.1319  0.3927
13609SOL    HW249796  10.875   3.658   8.220  0.7194  0.0362 -0.4789
13610SOL     OW49797   4.245   6.987   4.935  1.2262 -0.4171 -0.8797
13610SOL    HW149798   4.264   6.981   5.029  0.1661  2.1140 -0.4208
13610SOL    HW249799   4.200   6.905   4.914 -3.2001  0.8454  2.1072
13611SOL     OW49800  10.395  10.053   6.684 -0.5347 -0.0599 -0.5788
13611SOL    HW149801  10.340  10.052   6.763  0.9720  0.3872  0.5162
13611SOL    HW249802  10.332  10.055   6.612 -1.9698 -0.8820  0.5815
13612SOL     OW49803   8.377   6.669  12.448 -0.8074  0.1551  0.3128
13612SOL    HW149804   8.450   6.684  12.388  0.8402  2.3143  2.6740
13612SOL    HW249805   8.301   6.705  12.402 -0.0274 -0.1803 -1.3168
13613SOL     OW49806  11.998   9.247   6.039 -0.1622  0.0906 -0.2973
13613SOL    HW149807  11.933   9.183   6.010 -0.4224  0.3492 -0.2887
13613SOL    HW249808  12.075   9.228   5.986  0.2642 -1.2009  0.7434
13614SOL     OW49809   9.782   6.636   4.916  0.5615 -0.2906  0.2771
13614SOL    HW149810   9.846   6.565   4.920 -0.8259 -1.5508  1.0809
13614SOL    HW249811   9.767   6.661   5.007  0.6823  0.7465  0.0348
13615SOL     OW49812   1.369   3.013  11.296  0.5472 -0.4347 -0.1095
13615SOL    HW149813   1.365   2.935  11.241  2.5416  0.2772 -1.3451
13615SOL    HW249814   1.441   2.997  11.357 -0.9512 -0.7621  1.6913
13616SOL     OW49815  12.584   0.381   1.863  0.2315 -0.6273 -0.0725
13616SOL    HW149816  12.672   0.417   1.856 -0.4553  1.0265 -0.7638
13616SOL    HW249817  12.577   0.321   1.789  0.5424 -0.2083 -0.4463
13617SOL     OW49818   6.841   6.413   6.241 -0.2277  0.2440  0.2325
13617SOL    HW149819   6.859   6.499   6.203 -1.5907  0.3014 -0.3438
13617SOL    HW249820   6.769   6.428   6.302  1.1059 -0.0760  1.9656
13618SOL     OW49821   8.511   5.856   6.885  0.3559 -0.2258  0.3282
13618SOL    HW149822   8.475   5.857   6.796 -0.8586  2.6791  0.7287
13618SOL    HW249823   8.606   5.865   6.873 -0.0041  3.9271 -0.8132
13619SOL     OW49824   1.326   4.482   2.085  0.2896 -0.0023 -0.5343
13619SOL    HW149825   1.313   4.572   2.057 -0.9629  0.3516  1.0309
13619SOL    HW249826   1.291   4.429   2.013 -1.6899  0.8542 -0.2799
13620SOL     OW49827   2.424   6.915   7.686  0.4349  0.7394 -0.5239
13620SOL    HW149828   2.369   6.857   7.634 -1.5490 -0.4526  2.6260
13620SOL    HW249829   2.440   6.990   7.629 -3.5283  0.6518 -2.0721
13621SOL     OW49830   1.289  11.940   3.232  0.4170 -0.0050  0.2361
13621SOL    HW149831   1.284  11.845   3.241 -1.4408 -0.0702 -1.0621
13621SOL    HW249832   1.378  11.961   3.261  1.2873 -2.2576 -0.5432
13622SOL     OW49833   6.225   7.725   2.318 -0.5495  0.9315 -0.0942
13622SOL    HW149834   6.249   7.633   2.329 -1.3604  0.7842  0.5049
13622SOL    HW249835   6.129   7.727   2.325 -0.7265  1.5670 -1.9538
13623SOL     OW49836   4.818  10.366   0.546 -0.0389  0.0258 -0.2028
13623SOL    HW149837   4.854  10.361   0.634  0.5128 -0.7608 -0.4640
13623SOL    HW249838   4.799  10.459   0.533  0.7466  0.2786  0.3927
13624SOL     OW49839   8.201   6.586   5.929  0.2337 -0.3397 -0.1109
13624SOL    HW149840   8.209   6.645   6.004  1.3852 -0.2916 -0.2454
13624SOL    HW249841   8.248   6.507   5.956 -2.1732 -1.6782  0.4799
13625SOL     OW49842   8.990  10.090   7.700 -0.0538  0.1398 -0.3333
13625SOL    HW149843   9.063  10.028   7.696 -0.1242 -0.1488  1.7964
13625SOL    HW249844   9.006  10.140   7.780 -2.3077 -0.1026  0.3265
13626SOL     OW49845   9.454   6.361   6.423  0.2275  0.1329 -0.0256
13626SOL    HW149846   9.536   6.312   6.419  0.8718  0.9510  2.0282
13626SOL    HW249847   9.390   6.302   6.384  1.0695 -2.2036  1.8631
13627SOL     OW49848   4.749  11.119   8.385 -0.1762 -0.2285  0.8046
13627SOL    HW149849   4.843  11.110   8.406  0.4373  0.8888 -1.2144
13627SOL    HW249850   4.705  11.060   8.447  2.0205 -2.6253  0.2526
13628SOL     OW49851   8.898   2.925  10.913  0.1463  0.1738 -0.4042
13628SOL    HW149852   8.924   2.882  10.832 -0.4570 -0.4767 -0.2674
13628SOL    HW249853   8.812   2.889  10.933 -0.5333  1.6974 -0.4411
13629SOL     OW49854  11.572   0.895   5.927  0.1693  0.0103 -0.2121
13629SOL    HW149855  11.546   0.900   5.835 -0.4198  0.2538 -0.0370
13629SOL    HW249856  11.666   0.878   5.924  0.2459  0.4978 -0.8647
13630SOL     OW49857   3.161   4.254   9.954 -0.1635  0.3136  0.7529
13630SOL    HW149858   3.145   4.190   9.885  0.1127  1.3961 -0.3569
13630SOL    HW249859   3.156   4.204  10.035 -1.8601 -0.7412  0.0434
13631SOL     OW49860   3.428   6.673  10.385 -0.1353 -0.0389  0.3058
13631SOL    HW149861   3.358   6.713  10.333 -0.1133 -2.5854 -1.8859
13631SOL    HW249862   3.383   6.605  10.437  0.2998  0.3998  1.2701
13632SOL     OW49863   3.317   7.287   2.157  0.4082 -0.4408  0.0667
13632SOL    HW149864   3.237   7.266   2.206  0.8843  0.4656  1.2769
13632SOL    HW249865   3.365   7.204   2.154  0.8281 -0.3293  2.0689
13633SOL     OW49866   2.414   0.087   4.917  0.3597 -0.3713 -0.5789
13633SOL    HW149867   2.476   0.028   4.875  1.0589  0.3008 -0.5212
13633SOL    HW249868   2.462   0.170   4.926 -0.6845  0.2934 -0.9190
13634SOL     OW49869  12.431   7.086   8.047 -0.5055  0.2839 -0.2316
13634SOL    HW149870  12.508   7.127   8.006 -0.4219 -0.0005 -0.3585
13634SOL    HW249871  12.363   7.092   7.981 -0.5660  0.4490 -0.1552
13635SOL     OW49872   2.852  10.227  11.524  0.5712 -0.1256 -0.2603
13635SOL    HW149873   2.860  10.135  11.549  3.5949  0.2851  0.7389
13635SOL    HW249874   2.844  10.225  11.429 -0.8646 -1.4218 -0.1537
13636SOL     OW49875   8.982   9.407   0.657 -0.5658  0.3919 -1.0197
13636SOL    HW149876   8.900   9.364   0.681 -0.3766  0.2414 -0.6235
13636SOL    HW249877   8.960   9.460   0.581 -0.5426 -1.3496 -2.2968
13637SOL     OW49878   6.334  11.218   7.351 -0.4204  0.7238  0.2692
13637SOL    HW149879   6.336  11.200   7.445  1.9901 -1.4552 -0.0784
13637SOL    HW249880   6.421  11.254   7.332 -0.4097 -0.0628 -1.3061
13638SOL     OW49881   9.540   7.715   8.263  0.0065  0.3047 -0.0037
13638SOL    HW149882   9.512   7.790   8.210 -1.3235  0.1057  0.3927
13638SOL    HW249883   9.603   7.752   8.325 -0.1041  0.9642 -0.2750
13639SOL     OW49884  12.016   2.019   0.379  0.5801 -0.3393  0.5408
13639SOL    HW149885  11.948   2.079   0.349 -1.4990 -1.2532  2.9982
13639SOL    HW249886  11.990   1.933   0.346  0.8207 -0.6244  1.0673
13640SOL     OW49887   3.964   0.720   2.885  0.1814 -0.1743  0.2870
13640SOL    HW149888   4.047   0.689   2.921  1.2444  2.8600  0.7906
13640SOL    HW249889   3.970   0.816   2.890 -3.0805  0.1920 -0.3241
13641SOL     OW49890  10.357  11.211   3.903 -0.4285 -0.6126 -1.0798
13641SOL    HW149891  10.412  11.233   3.829  1.3922 -0.2688  0.3123
13641SOL    HW249892  10.410  11.231   3.980 -3.5037  2.5770  0.4764
13642SOL     OW49893   2.855   9.592   3.699 -0.5183  0.4141 -0.0807
13642SOL    HW149894   2.786   9.537   3.661 -1.5599  2.4149 -1.2288
13642SOL    HW249895   2.815   9.630   3.777 -0.1223  0.2810  0.1921
13643SOL     OW49896   5.758   9.435   6.674 -0.0099 -0.3976 -0.1950
13643SOL    HW149897   5.665   9.432   6.700  0.1968 -1.3366  0.4761
13643SOL    HW249898   5.762   9.507   6.611 -1.1705 -0.2447 -0.1280
13644SOL     OW49899   4.567   9.699   7.124 -0.3335  0.1191 -0.1015
13644SOL    HW149900   4.660   9.722   7.134 -0.2216  0.7997 -2.1537
13644SOL    HW249901   4.520   9.764   7.176  0.2956  0.1842  0.4054
13645SOL     OW49902   1.821   0.644   5.031 -0.1645 -0.4214 -0.1482
13645SOL    HW149903   1.863   0.672   5.112 -1.0247  1.2818 -0.2411
13645SOL    HW249904   1.858   0.557   5.013 -1.3928 -1.7789  3.1053
13646SOL     OW49905  12.455   5.346  11.087  0.2995  0.2414 -0.2820
13646SOL    HW149906  12.406   5.372  11.164  0.0049 -1.8042  0.2694
13646SOL    HW249907  12.401   5.374  11.013  1.0832  3.1934  0.1440
13647SOL     OW49908   0.127   0.345   7.459 -0.5062 -0.1632 -0.3124
13647SOL    HW149909   0.034   0.327   7.464 -0.9251  1.6237 -0.8834
13647SOL    HW249910   0.156   0.349   7.550 -1.6549  2.1891  0.0201
13648SOL     OW49911  12.321   8.075   5.758 -0.1246  0.2193 -0.2588
13648SOL    HW149912  12.407   8.112   5.778  1.0052 -2.2558 -0.1731
13648SOL    HW249913  12.260   8.123   5.815  1.0897  2.2888 -0.6125
13649SOL     OW49914   2.488   3.373   5.113  0.0620 -0.4236 -0.7947
13649SOL    HW149915   2.417   3.382   5.050 -2.9203 -1.3589  2.1425
13649SOL    HW249916   2.490   3.280   5.135  0.1585  0.0269  1.3177
13650SOL     OW49917   0.738   0.685   0.575 -0.2195  0.4469  0.2641
13650SOL    HW149918   0.749   0.617   0.509 -1.4356 -0.4873  0.9826
13650SOL    HW249919   0.797   0.659   0.646  2.5554  2.4571 -1.1031
13651SOL     OW49920  11.749   6.826   4.681 -0.2294  0.0380 -0.0754
13651SOL    HW149921  11.754   6.833   4.776 -1.2251 -0.5632  0.0299
13651SOL    HW249922  11.656   6.815   4.662  0.0915 -1.2811 -1.0108
13652SOL     OW49923   6.122   9.361   1.576 -0.0442 -0.3035  0.5114
13652SOL    HW149924   6.206   9.370   1.620 -0.2213 -0.8569  0.9760
13652SOL    HW249925   6.071   9.436   1.605 -0.1020 -0.5784  1.1191
13653SOL     OW49926   5.634   2.590   2.885 -0.3247  0.2676  0.0825
13653SOL    HW149927   5.667   2.501   2.896 -1.4158  0.0459  2.0741
13653SOL    HW249928   5.702   2.646   2.921 -0.6652  0.0416  1.1100
13654SOL     OW49929   4.000   6.555  12.435 -0.0774  0.1622 -0.4655
13654SOL    HW149930   4.063   6.483  12.446  0.0542  0.4505  0.7360
13654SOL    HW249931   4.043   6.631  12.475 -0.6974  0.6456 -0.7145
13655SOL     OW49932   2.916   5.602   7.254 -0.3007 -0.3949  0.2684
13655SOL    HW149933   2.821   5.616   7.261 -0.4817 -1.2572 -0.2055
13655SOL    HW249934   2.936   5.622   7.163 -0.1670 -0.9261  0.1770
13656SOL     OW49935  10.358   3.832  12.130  0.2126  0.0697  0.1600
13656SOL    HW149936  10.410   3.839  12.049 -0.4426  0.4518 -0.2383
13656SOL    HW249937  10.407   3.882  12.195  0.9611 -0.5921  0.1138
13657SOL     OW49938  10.093   4.237   1.806 -0.0435  0.1626 -0.1705
13657SOL    HW149939  10.071   4.318   1.760 -0.2766  0.8031  1.0099
13657SOL    HW249940  10.016   4.218   1.859 -0.6133 -1.7296 -1.6159
13658SOL     OW49941   7.729   4.635  11.871  0.2661  0.1910 -0.6327
13658SOL    HW149942   7.720   4.689  11.950 -0.1387  0.3352 -0.7775
13658SOL    HW249943   7.744   4.547  11.905 -0.1593  0.2096 -0.3946
13659SOL     OW49944   7.464   7.144   4.568 -0.1048 -0.2400  0.4631
13659SOL    HW149945   7.476   7.095   4.487 -0.4190  0.9442 -0.3314
13659SOL    HW249946   7.370   7.144   4.583 -0.1948  0.7807  0.0041
13660SOL     OW49947   0.767   9.071   9.365 -0.1664 -0.2823  0.0061
13660SOL    HW149948   0.818   8.992   9.379  0.8550  0.0730 -1.4965
13660SOL    HW249949   0.694   9.043   9.309 -0.4773 -0.3867  0.4598
13661SOL     OW49950  12.160   9.306   5.726 -0.3873  0.0320  0.4455
13661SOL    HW149951  12.109   9.227   5.744  0.6352 -1.1395 -1.5045
13661SOL    HW249952  12.202   9.327   5.810 -0.6509 -1.5129  0.9991
13662SOL     OW49953  10.118   5.995   2.364 -0.3661  0.3039 -0.0642
13662SOL    HW149954  10.211   6.014   2.377 -0.3394  0.2058 -0.1154
13662SOL    HW249955  10.104   5.912   2.409 -0.8192  1.1791  1.4987
13663SOL     OW49956  10.449   1.195  10.691  0.1594  0.2525  0.1471
13663SOL    HW149957  10.366   1.158  10.720 -0.6640  1.1644 -0.9737
13663SOL    HW249958  10.515   1.132  10.721 -0.9797 -0.8664  0.3885
13664SOL     OW49959   3.083   1.574   6.550  0.2245  0.1881 -0.1717
13664SOL    HW149960   3.028   1.531   6.485  0.4501  1.2086 -1.0697
13664SOL    HW249961   3.135   1.504   6.588 -0.5814 -0.5621 -0.4121
13665SOL     OW49962   8.747   0.909  10.110  0.1472 -0.2967 -0.5218
13665SOL    HW149963   8.689   0.978  10.141  2.0396  1.1302  0.0048
13665SOL    HW249964   8.736   0.909  10.015 -0.8636 -0.2151 -0.4158
13666SOL     OW49965   7.795  12.477   1.255 -0.3488 -0.0482  0.0485
13666SOL    HW149966   7.805  12.521   1.340  3.0119 -0.6934  0.1321
13666SOL    HW249967   7.752  12.394   1.276 -0.1588  0.0833  1.0503
13667SOL     OW49968   7.976   6.275   4.600  0.4624 -0.1284  0.1096
13667SOL    HW149969   8.001   6.199   4.652  1.6028  1.2301  1.6533
13667SOL    HW249970   7.988   6.247   4.510  0.4386 -1.9041  0.6176
13668SOL     OW49971   6.277  10.127   3.926  0.0119 -0.2803 -0.1868
13668SOL    HW149972   6.252  10.210   3.966  0.4905 -1.2286  2.2717
13668SOL    HW249973   6.363  10.107   3.963  0.2731 -1.5093 -1.3419
13669SOL     OW49974   5.565   0.111   4.057 -0.2453 -0.1862 -0.2212
13669SOL    HW149975   5.653   0.116   4.020  0.0555 -1.1626  0.3124
13669SOL    HW249976   5.566   0.029   4.107 -1.0786  0.3982  0.7647
13670SOL     OW49977   2.515   9.586   5.625 -0.0286 -0.1824  0.1047
13670SOL    HW149978   2.580   9.531   5.583  0.0455 -0.1850  0.2218
13670SOL    HW249979   2.491   9.650   5.558 -1.0649 -1.1341 -0.4644
13671SOL     OW49980  12.208   0.711   9.065  0.6340  0.2169  0.3772
13671SOL    HW149981  12.147   0.641   9.088 -0.6219  1.0463 -0.2684
13671SOL    HW249982  12.187   0.731   8.974  2.3018  0.1325 -0.0459
13672SOL     OW49983   1.624   1.524   4.600  0.2548 -0.2093 -0.0066
13672SOL    HW149984   1.662   1.600   4.554 -1.8141  0.0645 -1.4202
13672SOL    HW249985   1.576   1.563   4.673  0.1183 -0.2516 -0.0736
13673SOL     OW49986   4.009   7.865  10.188 -0.2569 -1.0898  0.1604
13673SOL    HW149987   4.076   7.847  10.254  0.1256 -0.4777 -0.0498
13673SOL    HW249988   4.032   7.808  10.114  0.1899 -0.7009 -0.0078
13674SOL     OW49989   4.217   4.426   8.006 -0.1807 -0.2643  0.1231
13674SOL    HW149990   4.186   4.336   7.993 -0.1265 -0.1079 -1.2433
13674SOL    HW249991   4.144   4.471   8.048 -0.9415 -0.4912 -0.9167
13675SOL     OW49992   8.796   6.712   5.004  0.0708  0.1591 -0.3258
13675SOL    HW149993   8.835   6.688   5.088  1.5228  1.9430 -0.4491
13675SOL    HW249994   8.717   6.658   4.999  1.9676 -2.9717  0.3488
13676SOL     OW49995   7.152  11.308   4.901 -0.4800  0.0944  0.2921
13676SOL    HW149996   7.187  11.226   4.937 -0.5291  0.0599  0.2606
13676SOL    HW249997   7.216  11.336   4.836 -0.0589  0.5050  0.8765
13677SOL     OW49998   9.757   9.973   4.036  0.4089 -0.0191  0.1892
13677SOL    HW149999   9.673   9.927   4.034 -0.3078  1.2390  0.2838
13677SOL    HW250000   9.762  10.017   3.951 -0.6244  2.5977  1.3818
13678SOL     OW50001   5.825   0.766   4.939 -0.0365 -0.5004  0.0985
13678SOL    HW150002   5.730   0.775   4.950 -0.1484  2.9180 -2.1315
13678SOL    HW250003   5.862   0.816   5.011  0.0130 -0.4768  0.0565
13679SOL     OW50004   0.926   1.379   9.115 -0.0720 -0.0801 -0.5958
13679SOL    HW150005   0.927   1.283   9.111 -0.1891 -0.0511 -1.6657
13679SOL    HW250006   0.876   1.400   9.194 -0.2299 -0.8960 -0.4749
13680SOL     OW50007  12.412  12.298   0.505 -0.1432 -1.0883 -0.0128
13680SOL    HW150008  12.367  12.382   0.502 -0.3609 -1.2060 -0.0696
13680SOL    HW250009  12.349  12.236   0.469 -0.0411 -1.3005  0.1721
13681SOL     OW50010   3.002   1.742   8.788  0.0781  0.0049 -0.1319
13681SOL    HW150011   2.950   1.798   8.730 -0.6615 -1.3089 -0.7811
13681SOL    HW250012   3.079   1.718   8.736  1.1642  1.5630  0.6638
13682SOL     OW50013   9.140   2.825   1.290 -0.3497 -0.2915  0.2024
13682SOL    HW150014   9.146   2.904   1.344 -0.5229 -0.5523  0.6066
13682SOL    HW250015   9.189   2.847   1.210 -0.8110  0.3938  0.1004
13683SOL     OW50016  10.301   2.483   6.215  0.1165  0.0877 -0.4187
13683SOL    HW150017  10.327   2.471   6.124 -3.3380 -0.7129 -1.4447
13683SOL    HW250018  10.242   2.559   6.214  0.5316  0.4798  1.2892
13684SOL     OW50019   6.227   8.005   2.165  0.0102 -0.3935 -0.3999
13684SOL    HW150020   6.215   7.933   2.227 -0.3829  0.8898  1.0730
13684SOL    HW250021   6.322   8.012   2.157  0.0662 -0.6908 -0.0674
13685SOL     OW50022   3.363  11.028   0.483  0.7183 -0.3455 -0.2347
13685SOL    HW150023   3.334  11.027   0.392  0.6678  0.6307 -0.2401
13685SOL    HW250024   3.436  10.966   0.486  0.0848 -1.1409 -0.7082
13686SOL     OW50025   4.617   9.249   2.835 -0.2569  0.2167  0.4449
13686SOL    HW150026   4.530   9.289   2.836 -0.5921 -0.4802 -0.1099
13686SOL    HW250027   4.610   9.176   2.897 -0.3712 -0.4393 -0.3231
13687SOL     OW50028   2.653   3.194   2.567 -0.3965  0.0042  0.1334
13687SOL    HW150029   2.739   3.191   2.525  0.0716  0.7911  0.9934
13687SOL    HW250030   2.591   3.174   2.497  0.4561 -0.1021 -0.6014
13688SOL     OW50031   5.030   0.867   8.382 -0.4925 -0.5244 -0.4858
13688SOL    HW150032   5.060   0.854   8.293  1.1103  0.1754 -0.0901
13688SOL    HW250033   5.104   0.839   8.437 -0.5185  1.2433  0.5400
13689SOL     OW50034   9.575  11.869   4.981  0.3417  0.1104 -0.4590
13689SOL    HW150035   9.480  11.880   4.981  0.5512  2.8393 -2.3659
13689SOL    HW250036   9.593  11.817   4.903  0.4433 -0.1491 -0.2642
13690SOL     OW50037   5.086   9.809  10.098  0.0530  0.3397 -0.1192
13690SOL    HW150038   5.145   9.743  10.134  1.0260  0.6796 -1.0423
13690SOL    HW250039   5.054   9.857  10.174 -1.0863 -1.4953  0.6179
13691SOL     OW50040   5.419  12.187   0.180 -0.0509  0.2444 -0.3336
13691SOL    HW150041   5.326  12.203   0.165 -0.3106 -1.3480 -0.6361
13691SOL    HW250042   5.462  12.271   0.163 -1.4933  1.1737  0.4571
13692SOL     OW50043   6.526   2.147   2.033 -0.3497 -0.2617  0.7537
13692SOL    HW150044   6.548   2.231   1.993  1.7026 -0.1422  1.9765
13692SOL    HW250045   6.610   2.113   2.065 -1.0277 -2.9847 -0.0616
13693SOL     OW50046   1.918   2.738   9.348  0.0672  0.0475 -0.1761
13693SOL    HW150047   1.943   2.811   9.290 -0.9126  0.1880 -0.4399
13693SOL    HW250048   1.952   2.763   9.434 -0.1845  0.7869 -0.2813
13694SOL     OW50049   5.909  11.666   9.948  0.5258 -0.8453  0.1830
13694SOL    HW150050   6.002  11.682   9.967  1.0321 -1.9852 -1.1241
13694SOL    HW250051   5.863  11.689  10.029  2.0012 -0.7126  1.0152
13695SOL     OW50052   0.268   5.735   9.389  0.8079  0.1976  0.0619
13695SOL    HW150053   0.196   5.680   9.358  1.6066 -0.5202 -0.5784
13695SOL    HW250054   0.256   5.819   9.344 -1.1741  1.0847  2.0265
13696SOL     OW50055   8.460   8.004   1.910  0.4004  0.1337 -0.0066
13696SOL    HW150056   8.484   7.932   1.969  0.3906 -0.3117 -0.5459
13696SOL    HW250057   8.462   8.081   1.966 -2.2165 -0.5844  1.2990
13697SOL     OW50058   7.288   8.202  11.257 -0.4440 -0.2108  0.0063
13697SOL    HW150059   7.372   8.177  11.296 -0.6806 -1.4701 -0.2430
13697SOL    HW250060   7.288   8.159  11.171 -2.0198 -1.6095  0.6630
13698SOL     OW50061  12.461  10.867  11.818 -0.7318 -0.0349  0.2646
13698SOL    HW150062  12.452  10.962  11.822 -3.2344 -0.1489 -0.8256
13698SOL    HW250063  12.477  10.848  11.726  1.0290 -0.6397  0.6564
13699SOL     OW50064   3.269   7.989   5.993 -0.2540  0.6511 -0.1587
13699SOL    HW150065   3.221   8.050   6.049  0.4699  1.8003 -0.7572
13699SOL    HW250066   3.286   7.913   6.049  3.1268  2.9233  2.3017
13700SOL     OW50067  11.466   9.091   8.897  0.2891  0.1039  0.2021
13700SOL    HW150068  11.442   9.112   8.807 -0.7666  1.8441  0.8501
13700SOL    HW250069  11.560   9.073   8.894  0.0646 -1.0136 -1.4141
13701SOL     OW50070   3.849  10.193  10.896 -0.2839  0.2348  0.0018
13701SOL    HW150071   3.787  10.130  10.860 -0.6879  1.2367 -1.1225
13701SOL    HW250072   3.845  10.179  10.991 -0.9694 -0.8438 -0.1668
13702SOL     OW50073   2.086   3.417   6.312  0.2176 -0.1604 -0.1991
13702SOL    HW150074   2.160   3.456   6.267  1.2849 -0.7443  0.9976
13702SOL    HW250075   2.068   3.476   6.386 -0.1202 -0.3365 -0.1356
13703SOL     OW50076   8.391   7.223   3.556  0.0829  0.1349  0.0677
13703SOL    HW150077   8.382   7.184   3.469 -2.1977  0.7483 -0.0460
13703SOL    HW250078   8.303   7.216   3.594  0.4885  1.8942  1.4525
13704SOL     OW50079   5.516   7.612   0.321  0.6220 -0.3654 -0.3473
13704SOL    HW150080   5.474   7.531   0.349  2.1075 -1.4721 -1.2129
13704SOL    HW250081   5.445   7.676   0.316 -0.5087 -1.5022  0.7296
13705SOL     OW50082  10.877  11.352   5.338  0.0205  0.7662 -0.6894
13705SOL    HW150083  10.898  11.314   5.253 -0.5572 -2.2591  0.3665
13705SOL    HW250084  10.952  11.331   5.393 -0.9418 -0.1800  0.3033
13706SOL     OW50085   7.983   6.236   3.637 -0.1361 -0.4180  0.1164
13706SOL    HW150086   7.901   6.265   3.597  0.4677  1.7498  0.3177
13706SOL    HW250087   8.023   6.178   3.572 -1.5086 -0.9943 -0.2402
13707SOL     OW50088   1.536   5.444   8.178 -0.3139  0.5056 -0.6822
13707SOL    HW150089   1.512   5.418   8.089  0.7320 -0.2314 -0.7685
13707SOL    HW250090   1.470   5.510   8.203 -0.0766  1.4206 -2.3433
13708SOL     OW50091   5.679   4.941   8.395  0.6839 -0.6694  0.1925
13708SOL    HW150092   5.676   4.978   8.484 -1.5896 -1.1062  0.3566
13708SOL    HW250093   5.603   4.884   8.391  0.2993 -0.0678 -2.3045
13709SOL     OW50094   4.764   9.599   3.592 -0.3237  0.6693  0.0763
13709SOL    HW150095   4.730   9.680   3.630 -0.7911  0.7114 -0.4278
13709SOL    HW250096   4.691   9.561   3.544  0.2105  0.5625 -0.6917
13710SOL     OW50097   0.369   7.550  11.721 -0.1479 -0.3783 -0.5656
13710SOL    HW150098   0.329   7.529  11.637  3.2204 -4.0008 -1.6189
13710SOL    HW250099   0.329   7.488  11.783  0.3418 -0.6602 -0.5247
13711SOL     OW50100   7.651   8.167   8.277 -0.4595 -0.3126  0.1568
13711SOL    HW150101   7.572   8.143   8.324  0.2282 -1.8584  0.5655
13711SOL    HW250102   7.650   8.112   8.198  0.2752 -0.4379  0.2294
13712SOL     OW50103   5.539   1.674   6.420 -0.0108 -0.5692 -0.1427
13712SOL    HW150104   5.626   1.635   6.434 -0.3534 -1.1149  0.5134
13712SOL    HW250105   5.536   1.692   6.327  0.3684 -1.6155 -0.3735
13713SOL     OW50106   6.282   5.527   0.753  0.2206 -0.2404 -0.0682
13713SOL    HW150107   6.279   5.592   0.824 -1.6466 -1.9995  1.6024
13713SOL    HW250108   6.354   5.469   0.777 -1.4291 -1.7987  1.4207
13714SOL     OW50109   7.457  11.667   6.222  0.1092  0.3322 -0.4156
13714SOL    HW150110   7.516  11.706   6.286  0.3007 -1.4001  0.5292
13714SOL    HW250111   7.514  11.637   6.151  0.0899  0.7898 -0.6230
13715SOL     OW50112   8.988   5.588  11.916 -0.0113  0.6511  0.3134
13715SOL    HW150113   9.024   5.518  11.971 -2.2497 -0.0558  0.9934
13715SOL    HW250114   9.029   5.575  11.831  0.7464 -0.5484  0.8287
13716SOL     OW50115  10.005   4.965  11.323 -0.3087 -0.0107 -0.1293
13716SOL    HW150116  10.009   4.893  11.260 -0.2499  0.2000 -0.3731
13716SOL    HW250117   9.994   5.043  11.268 -2.2903  0.0049  0.1973
13717SOL     OW50118   2.617   7.072   3.479 -0.0002  0.3347 -0.7324
13717SOL    HW150119   2.534   7.117   3.496 -0.5860 -1.0909  0.3980
13717SOL    HW250120   2.602   6.983   3.509  2.2016  0.2270  0.2482
13718SOL     OW50121   7.983   4.536   1.904  0.2531  0.5503 -0.9544
13718SOL    HW150122   7.922   4.479   1.858  0.5257  0.2772 -0.9761
13718SOL    HW250123   8.001   4.607   1.842 -0.5648  1.0023 -0.7039
13719SOL     OW50124  10.903   4.752   3.762  0.6807  0.0428 -0.3092
13719SOL    HW150125  10.816   4.719   3.740  0.8122 -0.2846 -0.3353
13719SOL    HW250126  10.949   4.758   3.678  0.5390  0.6360 -0.3488
13720SOL     OW50127   1.289   3.817  10.364  0.1547  0.1584  0.5679
13720SOL    HW150128   1.340   3.757  10.309 -0.2570 -0.6898  1.0962
13720SOL    HW250129   1.254   3.762  10.434  0.0353  1.0821  1.2538
13721SOL     OW50130   0.118  10.692  10.245  0.2670  0.6361  0.8712
13721SOL    HW150131   0.031  10.655  10.229  0.2674  0.7961  0.4922
13721SOL    HW250132   0.173  10.616  10.266 -0.1099  0.6008  1.8106
13722SOL     OW50133   8.569   5.927  11.891  0.0186 -0.2050  0.3680
13722SOL    HW150134   8.505   5.895  11.828  0.3153  1.1997 -0.6756
13722SOL    HW250135   8.649   5.879  11.871 -0.9282 -3.0045  2.5622
13723SOL     OW50136   2.876   6.516   3.590  0.0138 -0.1443 -0.0008
13723SOL    HW150137   2.816   6.574   3.637  0.0836  0.2132 -0.3473
13723SOL    HW250138   2.850   6.523   3.499 -1.0643 -1.9630  0.1285
13724SOL     OW50139   9.456   6.778  12.015  0.4162 -0.2974  0.0480
13724SOL    HW150140   9.479   6.826  12.094 -0.7468  0.0149  0.2175
13724SOL    HW250141   9.539   6.767  11.968  0.8907  0.8185  0.5933
13725SOL     OW50142  10.524  11.708   3.406  0.0156 -0.7564 -0.0854
13725SOL    HW150143  10.568  11.786   3.371  1.8609 -1.3447  0.8347
13725SOL    HW250144  10.450  11.695   3.346 -0.8128  2.1051  0.1572
13726SOL     OW50145   7.134   1.314   6.423  0.2552 -0.1993 -0.7175
13726SOL    HW150146   7.203   1.291   6.362 -1.0575 -2.9448 -1.3548
13726SOL    HW250147   7.055   1.320   6.369 -0.4355  0.2213  0.3046
13727SOL     OW50148   9.050   5.263   0.421 -0.4184  0.1512 -0.0120
13727SOL    HW150149   8.959   5.284   0.400  0.0318  1.2743 -0.9334
13727SOL    HW250150   9.057   5.169   0.407 -1.3683  0.1015 -0.2114
13728SOL     OW50151  11.596  11.751   3.268  0.2107  0.0083 -0.1402
13728SOL    HW150152  11.554  11.837   3.265  1.0657  0.5629  2.2885
13728SOL    HW250153  11.525  11.690   3.289 -0.4099  0.0566 -1.9366
13729SOL     OW50154   0.743   0.110   5.852  0.0539  0.0748  0.6360
13729SOL    HW150155   0.812   0.064   5.898 -1.2140 -1.0187  1.5161
13729SOL    HW250156   0.787   0.155   5.780  1.4966 -1.5968  0.4281
13730SOL     OW50157   9.684   5.091   1.294  0.3478  0.1347  0.1108
13730SOL    HW150158   9.702   5.149   1.220  0.0699  0.7324  0.5021
13730SOL    HW250159   9.594   5.062   1.279  0.5785 -0.4276 -0.2301
13731SOL     OW50160   8.863  10.595   3.328 -0.3286 -0.1279  0.0707
13731SOL    HW150161   8.849  10.570   3.237 -0.4785  0.7805 -0.1664
13731SOL    HW250162   8.782  10.640   3.354 -0.0181  0.2302  0.4361
13732SOL     OW50163   8.885   8.809  10.617  0.1082  0.3490  0.1988
13732SOL    HW150164   8.944   8.765  10.678 -0.2741 -0.4867 -0.0132
13732SOL    HW250165   8.799   8.801  10.658  0.0637  1.1093  0.2630
13733SOL     OW50166   7.401  12.592   1.555 -0.3621  0.5250  0.0248
13733SOL    HW150167   7.311  12.620   1.570 -0.3993  1.6686 -1.9918
13733SOL    HW250168   7.449  12.622   1.632 -1.5447  0.6532  0.7285
13734SOL     OW50169   3.976  10.267  10.100  0.5547 -0.8774  0.8034
13734SOL    HW150170   3.928  10.343  10.133  1.3453  0.0017  0.0103
13734SOL    HW250171   4.021  10.300  10.022  0.0780 -2.4448 -0.1639
13735SOL     OW50172   9.652   9.885   2.534 -0.2328 -0.2994  0.3730
13735SOL    HW150173   9.717   9.823   2.500 -0.0309  0.5230 -0.8216
13735SOL    HW250174   9.571   9.835   2.538  0.0395 -0.7944 -0.0638
13736SOL     OW50175   9.352   0.160  11.634 -0.3621 -0.6364 -0.0534
13736SOL    HW150176   9.382   0.219  11.566  1.2282  0.3630  1.4391
13736SOL    HW250177   9.257   0.172  11.637 -0.5914 -1.2755 -2.5363
13737SOL     OW50178   8.131   3.292  10.913 -0.0003  0.3253 -0.2417
13737SOL    HW150179   8.067   3.302  10.842 -2.2140  0.4579  1.6544
13737SOL    HW250180   8.129   3.377  10.958  0.8725  0.0301  0.3645
13738SOL     OW50181  10.709  10.768   0.295  0.1478  0.3078  0.3646
13738SOL    HW150182  10.773  10.796   0.361  1.1624 -0.8809 -0.0793
13738SOL    HW250183  10.636  10.829   0.306  0.8410  0.9585  1.6955
13739SOL     OW50184   1.089  11.330  10.869  0.2481 -0.2752  0.0422
13739SOL    HW150185   1.122  11.282  10.794 -0.0899  0.1314 -0.3701
13739SOL    HW250186   1.007  11.285  10.893  1.4901 -1.8604  1.6368
13740SOL     OW50187   3.761  12.051   9.518 -0.1238 -0.2734  0.3704
13740SOL    HW150188   3.682  12.102   9.535  0.0762  0.3367 -0.4761
13740SOL    HW250189   3.734  11.960   9.529 -0.8727 -0.0598  0.3614
13741SOL     OW50190   1.680   9.072   5.369  0.3684 -0.0667 -0.1508
13741SOL    HW150191   1.586   9.056   5.358  0.4936  0.1018 -1.7192
13741SOL    HW250192   1.686   9.165   5.391  0.2185  0.2703 -1.4290
13742SOL     OW50193   7.458   9.341   8.652 -0.5449 -0.1018 -0.9371
13742SOL    HW150194   7.459   9.349   8.557 -0.1038 -1.8537 -1.1135
13742SOL    HW250195   7.404   9.414   8.682 -1.0565  0.2151 -2.5545
13743SOL     OW50196   3.961   0.336   4.469 -0.5761 -0.8168 -0.0448
13743SOL    HW150197   3.965   0.369   4.558  0.0833 -1.0245  0.0096
13743SOL    HW250198   3.883   0.281   4.466 -2.0573  1.2159 -0.3134
13744SOL     OW50199   4.857   4.737   8.462  0.3154  0.0886  0.2693
13744SOL    HW150200   4.949   4.718   8.442  0.4940  0.2869  0.8659
13744SOL    HW250201   4.859   4.768   8.553 -0.6039 -1.7975  0.9684
13745SOL     OW50202   1.286   2.053   0.520 -0.1001  0.3216  0.1031
13745SOL    HW150203   1.205   2.104   0.516 -1.4256 -1.6311  0.6588
13745SOL    HW250204   1.284   1.999   0.440 -1.3036 -2.4124  1.8424
13746SOL     OW50205   8.681   8.281   8.178  0.6655  0.1421 -0.2358
13746SOL    HW150206   8.757   8.282   8.236  0.6315 -0.6624 -0.1762
13746SOL    HW250207   8.711   8.239   8.098  0.0501 -1.0511  0.1329
13747SOL     OW50208  12.049   3.481  11.480  0.4341 -0.0266  0.7687
13747SOL    HW150209  11.966   3.511  11.442  0.8725  1.1939  0.7286
13747SOL    HW250210  12.026   3.449  11.567 -0.1707 -0.3241  0.5062
13748SOL     OW50211   0.480   3.295  12.372 -0.3847 -0.2629  0.1011
13748SOL    HW150212   0.390   3.320  12.349  0.1039  0.7153 -0.8781
13748SOL    HW250213   0.517   3.260  12.291  0.6982  1.1661 -0.0756
13749SOL     OW50214   6.378   7.564   9.005  0.1051  0.6450  0.1284
13749SOL    HW150215   6.355   7.490   8.949  0.3302  0.9867 -0.4251
13749SOL    HW250216   6.347   7.641   8.958 -1.0402  0.8535  1.1762
13750SOL     OW50217   9.081  11.402   3.161  0.3945  0.0183 -0.1274
13750SOL    HW150218   9.143  11.331   3.176  0.7251  0.5105  0.9890
13750SOL    HW250219   9.132  11.482   3.173 -0.6342  0.4500  1.9804
13751SOL     OW50220   4.333   0.923   6.736 -0.0115  0.8621  0.0322
13751SOL    HW150221   4.242   0.953   6.742 -0.0635  0.5587  0.8409
13751SOL    HW250222   4.379   0.997   6.695 -0.5543  1.1496 -0.0811
13752SOL     OW50223   6.771  12.166   1.512  0.1178  0.3170 -0.1401
13752SOL    HW150224   6.762  12.074   1.539  2.1925 -0.1560 -0.9254
13752SOL    HW250225   6.689  12.207   1.541 -2.5970 -2.5232 -2.9982
13753SOL     OW50226   2.811  10.684   1.671  0.1254  0.1962 -0.2138
13753SOL    HW150227   2.739  10.692   1.609  0.0700  0.0386 -0.1712
13753SOL    HW250228   2.885  10.655   1.617  0.3518  1.0621 -0.3827
13754SOL     OW50229   6.478   2.560   0.345 -0.7186  0.3015 -0.3399
13754SOL    HW150230   6.460   2.482   0.292 -0.9502  0.8336 -1.0651
13754SOL    HW250231   6.474   2.530   0.435  0.5986 -0.8390 -0.6204
13755SOL     OW50232   1.115   8.985   2.257  0.6813  0.2441 -0.0346
13755SOL    HW150233   1.132   9.025   2.343  0.1052 -0.7034  0.5369
13755SOL    HW250234   1.053   9.045   2.215  1.2090  0.8786  0.0721
13756SOL     OW50235  10.501   3.499   8.900 -0.3771  0.6039  0.0376
13756SOL    HW150236  10.573   3.541   8.947  0.3224 -1.8484  1.3546
13756SOL    HW250237  10.527   3.502   8.808  2.0196 -1.1361  0.5625
13757SOL     OW50238   4.454   5.819   7.104 -0.1766  0.0555  0.1827
13757SOL    HW150239   4.523   5.797   7.042  0.8177  0.2407  1.1911
13757SOL    HW250240   4.494   5.882   7.164 -0.4303 -1.5912  2.2259
13758SOL     OW50241  10.368   9.072   2.050  0.2293 -0.2550  0.2893
13758SOL    HW150242  10.392   8.979   2.046  2.8066  0.2101  2.4127
13758SOL    HW250243  10.281   9.072   2.090 -0.2790 -1.7385 -0.6942
13759SOL     OW50244   0.311  12.256   7.454  0.3408 -0.3908 -0.1382
13759SOL    HW150245   0.381  12.230   7.514  0.5888 -1.6198 -0.9233
13759SOL    HW250246   0.353  12.311   7.389  0.1965  0.4096  0.4302
13760SOL     OW50247   2.060  10.123   3.979 -0.3958 -0.1935  0.2827
13760SOL    HW150248   2.056  10.028   3.995  0.1142 -0.6998 -2.1786
13760SOL    HW250249   1.998  10.137   3.907 -1.3893  1.5841  1.4233
13761SOL     OW50250   2.807   4.962   9.605  0.0444  0.2468  0.4106
13761SOL    HW150251   2.737   4.979   9.667 -0.6525 -1.4775  0.1583
13761SOL    HW250252   2.887   4.973   9.656 -0.3516  2.5121  0.6298
13762SOL     OW50253   8.979   0.917   7.620 -0.1542 -0.0349 -0.2913
13762SOL    HW150254   9.013   0.949   7.704 -2.0210 -0.1130  0.5321
13762SOL    HW250255   9.038   0.955   7.555  0.3678  1.3837  0.9487
13763SOL     OW50256   0.705   8.587  12.545  0.6499 -0.2408  0.5099
13763SOL    HW150257   0.781   8.529  12.551  0.9352  0.0846  0.1199
13763SOL    HW250258   0.632   8.529  12.528  0.9739 -0.4731 -0.1267
13764SOL     OW50259   3.400   5.439   0.760 -0.0882 -0.0047  0.3619
13764SOL    HW150260   3.434   5.364   0.808 -0.2209 -0.4751 -0.2673
13764SOL    HW250261   3.306   5.439   0.778 -0.2417 -0.5589 -0.3886
13765SOL     OW50262  11.513  10.246   8.689 -0.0776 -0.5684 -0.1419
13765SOL    HW150263  11.601  10.284   8.696 -0.8358  1.3388 -0.5524
13765SOL    HW250264  11.483  10.239   8.779  0.7099 -1.8427  0.0506
13766SOL     OW50265   3.797   3.151   0.892  0.2289  0.1555  0.0776
13766SOL    HW150266   3.819   3.218   0.827 -0.2682 -1.1127 -1.4535
13766SOL    HW250267   3.784   3.200   0.973  0.7967  1.8043 -0.7840
13767SOL     OW50268  12.455   9.558   0.110  0.2984 -0.1155  0.1123
13767SOL    HW150269  12.537   9.596   0.078  0.7823  0.5042  1.9537
13767SOL    HW250270  12.478   9.467   0.130  0.8414  0.2812  1.4654
13768SOL     OW50271   2.219   6.506   3.444  0.5856 -0.2687 -0.0821
13768SOL    HW150272   2.145   6.567   3.445  0.8269  0.0296  1.0616
13768SOL    HW250273   2.179   6.420   3.432  0.0399 -0.1107  0.5527
13769SOL     OW50274  12.067  11.065   8.865  0.0288  0.5981  0.1263
13769SOL    HW150275  12.021  10.990   8.905  1.5853  0.7417  2.3622
13769SOL    HW250276  12.159  11.039   8.865  0.2090  0.9859 -2.7284
13770SOL     OW50277   2.041   1.789  10.642 -0.1265 -0.0784  0.4192
13770SOL    HW150278   2.122   1.782  10.692 -0.5060  1.4075  1.3073
13770SOL    HW250279   2.065   1.762  10.553  1.3552  0.4167  0.6429
13771SOL     OW50280   9.327   3.998   2.639  0.2148 -0.3883  0.2754
13771SOL    HW150281   9.285   4.062   2.582 -1.0464 -0.8736  0.6334
13771SOL    HW250282   9.417   3.992   2.606 -0.1358  0.2767 -0.8517
13772SOL     OW50283   3.706  10.485   4.537 -0.4141 -0.0884  0.4426
13772SOL    HW150284   3.715  10.529   4.622 -1.3316  2.0939 -0.5387
13772SOL    HW250285   3.785  10.510   4.488  0.6450 -2.1921  0.9275
13773SOL     OW50286   1.456   9.926   4.037  0.2881 -0.0415  0.2314
13773SOL    HW150287   1.539   9.906   3.993 -0.4603  0.8389 -1.7406
13773SOL    HW250288   1.406   9.844   4.032  0.8802 -0.4740  1.1200
13774SOL     OW50289   9.173   1.500   0.504 -0.3781 -0.1418 -0.1351
13774SOL    HW150290   9.169   1.459   0.418 -1.0972  0.4943 -0.4124
13774SOL    HW250291   9.249   1.558   0.500  0.5504 -1.2796  0.2053
13775SOL     OW50292   9.636   4.737   0.693  0.1324  0.1855 -0.4610
13775SOL    HW150293   9.713   4.680   0.682 -0.3695 -0.2803 -1.6904
13775SOL    HW250294   9.670   4.815   0.736  1.4362  0.2728 -1.5938
13776SOL     OW50295   1.346   1.351  12.003 -0.0596 -0.0460 -0.2687
13776SOL    HW150296   1.354   1.310  12.089 -0.2624 -0.3518 -0.3906
13776SOL    HW250297   1.428   1.399  11.991  0.4407 -0.8979 -0.3690
13777SOL     OW50298   1.241   7.494   8.274 -0.3021 -0.6259 -0.2721
13777SOL    HW150299   1.229   7.445   8.356  2.0925  1.5078  1.5319
13777SOL    HW250300   1.175   7.563   8.278  0.5573  0.1827  0.5170
13778SOL     OW50301   8.881   3.937   6.733 -0.1975 -0.1498  0.0612
13778SOL    HW150302   8.821   3.903   6.800 -0.4069  1.5489  0.8054
13778SOL    HW250303   8.823   3.975   6.667  0.0220  0.2882  0.1144
13779SOL     OW50304   9.733   0.680   4.780 -0.0054  0.1363  0.2905
13779SOL    HW150305   9.767   0.591   4.782 -1.6034 -0.5064  0.3500
13779SOL    HW250306   9.743   0.712   4.869 -0.3800 -0.3712  0.5179
13780SOL     OW50307   1.140   9.121   5.888 -0.2175 -0.0505  0.5696
13780SOL    HW150308   1.208   9.186   5.874 -0.1056 -0.2336  0.2577
13780SOL    HW250309   1.137   9.109   5.983 -0.1273  0.2905  0.6140
13781SOL     OW50310   1.190   1.373   4.747  0.2742 -0.3602  0.2321
13781SOL    HW150311   1.156   1.378   4.836 -0.3797  0.5383 -0.0584
13781SOL    HW250312   1.185   1.280   4.724 -0.3832 -0.4716  0.8144
13782SOL     OW50313   5.787   8.271  10.632 -0.1390  0.2589  0.1612
13782SOL    HW150314   5.765   8.313  10.549  0.6071 -1.1859 -0.7972
13782SOL    HW250315   5.762   8.336  10.698  2.9739  3.2132 -1.2384
13783SOL     OW50316   2.955  11.014  12.309 -0.1620 -0.5575 -0.3282
13783SOL    HW150317   3.001  11.097  12.325 -2.6759  0.9693 -0.4710
13783SOL    HW250318   2.989  10.955  12.377  0.3096  1.1755  1.0223
13784SOL     OW50319  11.789  10.216   2.788  0.1267  0.3788  0.3007
13784SOL    HW150320  11.693  10.223   2.781  0.2617  0.5572 -2.3288
13784SOL    HW250321  11.807  10.123   2.776  0.3581  0.5586 -0.7978
13785SOL     OW50322   6.441   4.467   3.848 -0.3429  0.7612  0.0234
13785SOL    HW150323   6.417   4.386   3.802  0.8851 -0.2644  1.1108
13785SOL    HW250324   6.467   4.439   3.935  1.4385  2.1532  0.0127
13786SOL     OW50325   0.792   2.719   8.781 -0.0568 -0.1050 -0.3621
13786SOL    HW150326   0.735   2.711   8.857  0.9267 -0.3747  0.3637
13786SOL    HW250327   0.776   2.639   8.731 -1.2690  0.4229 -0.8547
13787SOL     OW50328  10.851  10.374   7.887  0.0927  0.0238 -0.1629
13787SOL    HW150329  10.896  10.340   7.964 -0.3347 -1.2490 -0.4610
13787SOL    HW250330  10.878  10.316   7.816 -1.6623 -0.5170 -0.4272
13788SOL     OW50331   5.698   2.547   0.847 -0.4802  0.0186  0.9467
13788SOL    HW150332   5.726   2.585   0.929 -0.3321  1.8962  0.0706
13788SOL    HW250333   5.632   2.481   0.872 -0.7781  0.8673  2.5153
13789SOL     OW50334   5.183  10.215   3.314  0.0591 -0.1024  0.5992
13789SOL    HW150335   5.237  10.180   3.384  1.0398  0.6241  0.2264
13789SOL    HW250336   5.245  10.252   3.252 -0.7830 -0.8547 -0.7346
13790SOL     OW50337  11.803   2.984  11.216  0.1973 -0.8904  0.1218
13790SOL    HW150338  11.763   2.901  11.243  0.2621 -0.6752  0.9028
13790SOL    HW250339  11.774   2.996  11.126 -2.0273 -0.4529  0.8119
13791SOL     OW50340   5.793  10.643   2.114 -0.5275 -1.3482  0.2628
13791SOL    HW150341   5.751  10.593   2.044  0.2531 -1.7524  0.0691
13791SOL    HW250342   5.779  10.735   2.090 -0.6746 -1.4833 -0.1750
13792SOL     OW50343  11.541  11.125   3.364  0.1381 -0.1721  0.4211
13792SOL    HW150344  11.454  11.089   3.350 -0.2490  0.7195  0.5117
13792SOL    HW250345  11.560  11.175   3.285  0.2514  0.2714  0.7246
13793SOL     OW50346   8.884   6.946   5.164  0.0102 -0.2011 -0.2963
13793SOL    HW150347   8.850   6.869   5.119 -1.4946 -0.4466  1.1586
13793SOL    HW250348   8.978   6.928   5.174  0.0617 -0.8825 -1.7790
13794SOL     OW50349   1.939  10.417   2.486 -0.3163 -0.2468  0.3462
13794SOL    HW150350   1.995  10.451   2.417 -1.7624  1.9695  0.1477
13794SOL    HW250351   1.999  10.383   2.552  1.2394  1.1051 -0.3041
13795SOL     OW50352   9.270   9.985   1.589  0.2175 -0.3493 -0.4249
13795SOL    HW150353   9.197   9.933   1.556  1.4284 -1.7518 -1.0069
13795SOL    HW250354   9.301  10.034   1.513  0.0587  0.0311 -0.2452
13796SOL     OW50355  12.222  10.062   5.261 -0.3719 -0.3135 -0.0796
13796SOL    HW150356  12.219  10.143   5.210  0.0958 -0.2857 -0.0625
13796SOL    HW250357  12.147  10.068   5.321 -1.3405 -0.6420 -1.2101
13797SOL     OW50358   5.781   1.416   8.762 -0.0342 -0.1893 -0.0704
13797SOL    HW150359   5.805   1.370   8.843  0.4033 -1.8610 -1.0941
13797SOL    HW250360   5.776   1.347   8.696 -1.3258  1.0004 -1.2855
13798SOL     OW50361   5.796   4.847   8.912 -0.2416 -0.0096  0.1847
13798SOL    HW150362   5.792   4.942   8.914 -0.2660  0.0106  2.9256
13798SOL    HW250363   5.711   4.820   8.876  0.3060  0.9382 -1.9984
13799SOL     OW50364  11.095   4.116  11.762 -0.4317 -0.0754  0.4524
13799SOL    HW150365  11.004   4.121  11.735  0.4635  0.2869 -2.8874
13799SOL    HW250366  11.115   4.203  11.797 -0.8457  0.5338 -0.7874
13800SOL     OW50367   0.561   2.323   8.416 -0.0940 -0.1986  0.1512
13800SOL    HW150368   0.501   2.248   8.419  1.5848 -1.5740  1.0070
13800SOL    HW250369   0.648   2.283   8.406  0.9397  1.5969  1.5692
13801SOL     OW50370   2.807   8.506   1.458 -0.1446 -0.3285 -0.1751
13801SOL    HW150371   2.761   8.566   1.517  0.3158  0.8389 -0.9789
13801SOL    HW250372   2.856   8.448   1.517  0.0144  0.5760  0.6056
13802SOL     OW50373   9.609   9.374   5.028 -0.1993 -0.0675  0.4909
13802SOL    HW150374   9.699   9.351   5.003 -0.3784 -0.5323  0.2670
13802SOL    HW250375   9.599   9.465   5.001 -1.1706 -1.1618 -3.3974
13803SOL     OW50376   9.007   3.592   8.771  0.1537  0.4677  0.4400
13803SOL    HW150377   9.033   3.529   8.704 -2.1472  1.7823 -1.8704
13803SOL    HW250378   8.958   3.541   8.835  0.1956 -0.4389 -0.2378
13804SOL     OW50379   5.095   1.967   0.512  0.2099  0.4954  0.4327
13804SOL    HW150380   5.154   1.965   0.588  0.5981  1.9887  0.2114
13804SOL    HW250381   5.092   1.876   0.482  1.0941  0.1053  1.4419
13805SOL     OW50382  11.856   0.962   5.006 -0.7674 -0.1205  0.8381
13805SOL    HW150383  11.834   0.963   4.912 -1.7785  1.0024  1.0536
13805SOL    HW250384  11.951   0.954   5.008 -0.4959  1.8704 -0.3826
13806SOL     OW50385   1.945   8.535   0.821 -0.0472 -0.3539  0.3522
13806SOL    HW150386   2.010   8.467   0.804  0.4492 -0.3397  2.0531
13806SOL    HW250387   1.862   8.495   0.798  0.3704 -1.0583  0.0291
13807SOL     OW50388   7.212   9.957  11.425  0.1232 -0.1564  0.1203
13807SOL    HW150389   7.280   9.938  11.489 -1.8043 -0.1885  2.2423
13807SOL    HW250390   7.201  10.052  11.430 -1.9909 -0.4412  2.0002
13808SOL     OW50391  10.880   7.232  11.043 -0.0334 -0.3215 -0.2308
13808SOL    HW150392  10.786   7.239  11.028 -0.0637  0.3104  0.1864
13808SOL    HW250393  10.887   7.192  11.130  0.0523  0.9432  0.3613
13809SOL     OW50394   3.467  11.428   5.221  0.3197 -0.3204  0.6498
13809SOL    HW150395   3.385  11.393   5.257  0.4500 -1.3411 -0.0270
13809SOL    HW250396   3.469  11.398   5.131  1.6432 -0.6623  0.7715
13810SOL     OW50397   0.767   8.935   3.383  0.1861 -0.0577  0.1280
13810SOL    HW150398   0.792   8.943   3.475  0.9049 -2.5596  0.2263
13810SOL    HW250399   0.826   8.868   3.348 -0.9531 -0.1138 -1.8247
13811SOL     OW50400   7.163   0.075  11.915 -0.0946 -0.0838 -0.3115
13811SOL    HW150401   7.232   0.139  11.897  0.5498 -1.2029 -2.1746
13811SOL    HW250402   7.126   0.055  11.829  0.7845 -3.2836 -0.1027
13812SOL     OW50403   6.692   5.974   5.722  0.6176  0.3397  0.7546
13812SOL    HW150404   6.755   5.941   5.787  0.6179  2.5382  1.9866
13812SOL    HW250405   6.607   5.949   5.756  0.6813  0.4434  0.9982
13813SOL     OW50406   8.291   6.976  10.882 -0.5773  0.5846 -0.3599
13813SOL    HW150407   8.268   7.056  10.834  0.7804  0.7901 -0.7242
13813SOL    HW250408   8.304   7.006  10.972 -0.9270  0.6225 -0.3238
13814SOL     OW50409   9.918   3.083   2.000 -0.7112 -0.8325 -0.3125
13814SOL    HW150410   9.874   3.064   1.918  0.4621  1.3105 -1.5377
13814SOL    HW250411   9.863   3.150   2.042  0.2060  0.2594 -0.8131
13815SOL     OW50412  11.864   0.420   8.045  0.5025 -0.3561  0.0253
13815SOL    HW150413  11.886   0.455   8.131  0.0167  0.8022 -0.2949
13815SOL    HW250414  11.877   0.494   7.985  0.3321 -0.9932 -0.8169
13816SOL     OW50415   5.762   1.819   7.493 -0.2912 -0.3702  0.0521
13816SOL    HW150416   5.845   1.772   7.505  0.1098  0.6675  1.6184
13816SOL    HW250417   5.710   1.796   7.570 -0.8582  0.1993 -0.1530
13817SOL     OW50418   7.082  11.283   3.098  0.3534  0.0792 -0.0139
13817SOL    HW150419   7.055  11.233   3.021 -1.1216  0.7673  0.0142
13817SOL    HW250420   7.057  11.373   3.077  3.7129  1.0772 -0.4456
13818SOL     OW50421   9.305   1.026   3.509  0.1785  0.0067 -0.3372
13818SOL    HW150422   9.233   1.016   3.571 -1.7806  1.0406 -2.3077
13818SOL    HW250423   9.346   1.109   3.534  0.6852 -0.5504  0.7517
13819SOL     OW50424   9.793   3.674  11.673  0.3746 -0.2399 -0.3280
13819SOL    HW150425   9.746   3.690  11.755  1.0765  0.0821  0.0151
13819SOL    HW250426   9.727   3.685  11.605  0.0067  0.4565  0.1329
13820SOL     OW50427   1.670   0.899   5.071  0.4782 -0.7860  0.1801
13820SOL    HW150428   1.643   0.851   4.992  0.9774 -0.3318 -0.2723
13820SOL    HW250429   1.619   0.858   5.142  0.3561 -1.4988 -0.3032
13821SOL     OW50430   4.761   4.395  11.895 -0.5744 -0.1706  0.3653
13821SOL    HW150431   4.783   4.357  11.980  1.0499 -2.6173 -1.0179
13821SOL    HW250432   4.798   4.483  11.898 -0.1068 -0.3912  2.0014
13822SOL     OW50433   7.362   8.866   5.990 -1.0027 -0.6939 -0.0261
13822SOL    HW150434   7.436   8.834   5.940  0.9880  0.1851  2.1600
13822SOL    HW250435   7.303   8.903   5.925  1.6733  0.8719 -1.7510
13823SOL     OW50436   7.035   3.648   7.454 -0.3168 -0.3407  0.1740
13823SOL    HW150437   7.061   3.565   7.415  0.7021  0.0556 -0.0345
13823SOL    HW250438   7.116   3.700   7.454 -0.9942  0.7389  0.0470
13824SOL     OW50439   8.425   5.722   7.154  0.8585  0.2964 -0.1399
13824SOL    HW150440   8.497   5.662   7.135  1.1613  0.8348 -0.7314
13824SOL    HW250441   8.403   5.761   7.070 -2.4090 -2.2749 -0.6846
13825SOL     OW50442   8.596   2.268  10.770  0.2348 -0.2482 -0.1083
13825SOL    HW150443   8.596   2.177  10.799 -0.5363 -0.1141  0.3520
13825SOL    HW250444   8.514   2.304  10.805 -0.9262 -0.1347 -2.7157
13826SOL     OW50445  11.662   4.848   9.801  0.1385 -0.2271  0.1305
13826SOL    HW150446  11.686   4.794   9.876  0.3058 -0.6971 -0.2568
13826SOL    HW250447  11.609   4.919   9.838  0.0340 -0.5783  0.6561
13827SOL     OW50448  11.138   6.805   3.884 -0.4152  0.0789  0.1722
13827SOL    HW150449  11.070   6.738   3.876  0.8451 -1.2386  0.0289
13827SOL    HW250450  11.137   6.852   3.801 -2.6555  1.6303  0.9907
13828SOL     OW50451   3.345   9.568   9.954  0.0524  0.4462  0.3054
13828SOL    HW150452   3.361   9.482   9.992 -1.5644 -0.3989 -0.7955
13828SOL    HW250453   3.298   9.616  10.021 -0.3066 -0.0414  0.4054
13829SOL     OW50454   6.420  11.422   3.743  0.2594 -0.1081 -0.3958
13829SOL    HW150455   6.342  11.453   3.788  0.5557 -1.7404  1.3391
13829SOL    HW250456   6.402  11.439   3.650 -1.1214  1.6892  0.1383
13830SOL     OW50457   3.132  11.156   0.114  0.1161 -0.7145  0.0161
13830SOL    HW150458   3.133  11.249   0.137  0.3836 -0.0615 -2.3550
13830SOL    HW250459   3.068  11.117   0.174 -0.6391  1.1470  0.4823
13831SOL     OW50460   4.648   7.031   0.984 -0.0074  0.4945 -0.0777
13831SOL    HW150461   4.638   7.125   0.969  0.6338  0.5554 -0.1537
13831SOL    HW250462   4.688   7.025   1.071  2.6933  0.4450 -1.2270
13832SOL     OW50463   8.273   7.281   2.439 -0.2384 -0.2925 -0.0584
13832SOL    HW150464   8.358   7.324   2.430 -0.4525  0.4337  1.1424
13832SOL    HW250465   8.279   7.203   2.384  0.8846  0.2138 -0.6823
13833SOL     OW50466  11.028   3.978   1.905 -0.1824  0.2864 -0.1511
13833SOL    HW150467  10.971   4.039   1.951 -1.0821 -0.3932 -0.3469
13833SOL    HW250468  10.998   3.981   1.814 -0.6482 -0.8847 -0.0558
13834SOL     OW50469   2.843   4.091   0.200  0.2342  0.9676  0.3968
13834SOL    HW150470   2.809   4.109   0.113  1.3157  1.9305  0.1441
13834SOL    HW250471   2.772   4.117   0.259 -0.5705  0.1459 -0.1794
13835SOL     OW50472   9.820  10.583   5.590  0.1735  0.2055  0.0054
13835SOL    HW150473   9.840  10.637   5.667  0.8579 -0.7546  0.5359
13835SOL    HW250474   9.779  10.504   5.627  0.8180 -0.4161 -0.5645
13836SOL     OW50475   2.513   7.421   0.364 -0.5684 -0.7078  0.1697
13836SOL    HW150476   2.487   7.445   0.275  0.0823 -0.3259  0.0809
13836SOL    HW250477   2.476   7.490   0.419 -0.3740 -0.5626  0.1195
13837SOL     OW50478   7.204   2.276   9.920 -0.3697 -0.2100 -0.1785
13837SOL    HW150479   7.141   2.337   9.958  0.7664  0.6370  0.4287
13837SOL    HW250480   7.192   2.195   9.970  0.8452  0.7695  1.8514
13838SOL     OW50481   1.908   2.620   0.693 -0.3249  0.1590 -0.1648
13838SOL    HW150482   1.942   2.703   0.659  1.3195 -1.2245 -2.0562
13838SOL    HW250483   1.828   2.604   0.642  2.0516 -1.8386 -3.6704
13839SOL     OW50484   3.314   2.182  10.808 -0.2043  0.5147 -0.0542
13839SOL    HW150485   3.287   2.152  10.895 -0.5517  1.7224  0.2795
13839SOL    HW250486   3.340   2.103  10.761  3.3941  0.0939  2.2711
13840SOL     OW50487  11.802   2.999   8.432  0.3423 -0.0928 -0.2729
13840SOL    HW150488  11.810   3.038   8.345  1.0991  1.5215  0.4567
13840SOL    HW250489  11.784   3.074   8.490 -2.0736 -1.3443  0.7407
13841SOL     OW50490  11.899   2.148  11.977 -0.3821  0.4781  0.1119
13841SOL    HW150491  11.972   2.194  12.019  0.0367  0.3765 -0.4964
13841SOL    HW250492  11.933   2.121  11.892 -0.9623 -0.0441  0.0380
13842SOL     OW50493  12.551   1.144   7.560 -0.4119 -0.2150 -0.0150
13842SOL    HW150494  12.537   1.071   7.499 -2.4177 -0.2734  0.4678
13842SOL    HW250495  12.593   1.103   7.635  0.8066 -0.3852 -0.7495
13843SOL     OW50496   6.558   6.816   7.947  0.0263  0.3620 -0.1500
13843SOL    HW150497   6.583   6.724   7.955 -1.8280 -0.1806 -0.1317
13843SOL    HW250498   6.464   6.817   7.961 -0.3097  2.0140 -2.0141
13844SOL     OW50499  12.204  12.307   5.419 -0.1045  0.3622  0.1085
13844SOL    HW150500  12.271  12.240   5.404  0.7492  0.7024  2.0631
13844SOL    HW250501  12.219  12.373   5.352 -0.3166 -0.8942 -1.2247
13845SOL     OW50502   6.915   2.861   2.248  0.0163 -0.6730  0.5777
13845SOL    HW150503   6.827   2.831   2.226 -0.6120  0.6815  1.1049
13845SOL    HW250504   6.907   2.957   2.254  2.0125 -0.2807 -1.5129
13846SOL     OW50505   2.163  10.824   8.736  0.3528  0.1581  0.6864
13846SOL    HW150506   2.196  10.766   8.668 -2.7137  1.0048 -1.7523
13846SOL    HW250507   2.172  10.912   8.699 -0.9820  0.6758  1.5086
13847SOL     OW50508   6.803   0.158   5.427  0.3139  0.7723  0.1100
13847SOL    HW150509   6.710   0.178   5.418  0.1286 -0.2333 -0.3730
13847SOL    HW250510   6.815   0.079   5.375  1.7034  1.5767 -0.8543
13848SOL     OW50511   3.731   0.171   1.648 -0.3696 -0.1787 -0.3933
13848SOL    HW150512   3.827   0.167   1.652 -0.2905  0.7730 -1.0016
13848SOL    HW250513   3.712   0.261   1.622 -1.2993 -1.0540 -3.1418
13849SOL     OW50514  12.472   5.618  10.484 -0.5285  0.3219  0.6852
13849SOL    HW150515  12.561   5.584  10.484 -0.9892 -0.9303  0.5695
13849SOL    HW250516  12.483   5.713  10.474  0.7489  0.0448 -1.2480
13850SOL     OW50517   6.319   9.299  10.048 -0.0123  0.7672 -0.5067
13850SOL    HW150518   6.360   9.260   9.971  1.6261  2.0524 -0.3329
13850SOL    HW250519   6.333   9.393  10.038  2.1204  0.8770  2.3329
13851SOL     OW50520   8.473   9.806  12.488 -0.9898  0.6036 -0.3044
13851SOL    HW150521   8.564   9.801  12.458 -0.6936 -0.8951  0.6953
13851SOL    HW250522   8.454   9.900  12.491  0.8987  1.0193  0.4923
13852SOL     OW50523   1.375   4.301   1.249 -0.3768  0.1197 -0.1325
13852SOL    HW150524   1.332   4.355   1.181 -1.0520 -1.4693 -1.0258
13852SOL    HW250525   1.333   4.329   1.330 -0.4790  1.1669 -0.5159
13853SOL     OW50526   7.523  11.277   0.999  0.7942 -0.1594 -0.0983
13853SOL    HW150527   7.606  11.312   0.967  0.7551  0.2834  0.2730
13853SOL    HW250528   7.524  11.294   1.093  1.1150 -1.8509  0.2459
13854SOL     OW50529   0.625   1.096   5.339  0.1818  0.1791 -0.1545
13854SOL    HW150530   0.586   1.101   5.252 -0.3668 -1.7529 -0.0635
13854SOL    HW250531   0.707   1.049   5.325 -0.1539 -0.5953  0.4259
13855SOL     OW50532   3.604   9.244   8.782  0.2018 -0.0150 -0.4774
13855SOL    HW150533   3.676   9.180   8.786  0.4639  0.2763 -0.4718
13855SOL    HW250534   3.641   9.318   8.734 -0.2407 -0.0441 -0.8710
13856SOL     OW50535   2.664  11.315   3.257  0.7202 -0.0402 -0.6279
13856SOL    HW150536   2.666  11.373   3.181  1.4164  0.1211 -0.4898
13856SOL    HW250537   2.755  11.312   3.288  0.5378 -0.5236 -0.1198
13857SOL     OW50538   3.095  10.915   9.742  0.1740 -0.6922  0.8153
13857SOL    HW150539   3.111  10.996   9.792 -1.3543 -0.1110  0.4298
13857SOL    HW250540   3.008  10.888   9.770 -0.6914 -0.4073 -1.4260
13858SOL     OW50541   4.328   1.755   4.943  0.5655 -0.1249  0.0566
13858SOL    HW150542   4.401   1.749   5.005  1.0767 -0.6377 -0.5725
13858SOL    HW250543   4.367   1.793   4.864 -0.2385  1.2347  0.2720
13859SOL     OW50544   3.989   0.134   1.672 -0.3167 -0.3556 -1.0130
13859SOL    HW150545   4.022   0.184   1.746 -0.1810 -1.9560  0.0565
13859SOL    HW250546   4.054   0.146   1.603 -0.4752  1.1990 -0.9158
13860SOL     OW50547   9.536   8.736  10.683  0.6070  0.4665 -0.0977
13860SOL    HW150548   9.579   8.785  10.612 -0.6333 -1.8775 -2.6085
13860SOL    HW250549   9.443   8.755  10.673  0.3329 -0.5663  0.4005
13861SOL     OW50550  10.433   8.778   5.932  0.1919 -0.5077 -0.6681
13861SOL    HW150551  10.501   8.710   5.937  1.1225  0.4666  0.7431
13861SOL    HW250552  10.384   8.768   6.013  0.9058  1.0438 -0.0151
13862SOL     OW50553   9.912   7.399  11.170 -0.1834  0.4977 -0.1366
13862SOL    HW150554   9.969   7.385  11.245 -0.8648  2.1548  0.7521
13862SOL    HW250555   9.942   7.336  11.105  0.6158 -0.7858  1.4082
13863SOL     OW50556   5.835   4.772   6.103  0.3810 -0.1891  0.0010
13863SOL    HW150557   5.918   4.729   6.125  0.4651  0.0108  0.0800
13863SOL    HW250558   5.783   4.704   6.061 -0.2101 -0.9042  1.7923
13864SOL     OW50559  11.705  10.788  12.297 -0.3639 -0.4819 -0.1318
13864SOL    HW150560  11.782  10.844  12.291  0.5709 -1.8588 -1.9543
13864SOL    HW250561  11.738  10.705  12.332 -1.1274 -0.8701 -0.3040
13865SOL     OW50562   2.337   1.920   2.358  0.7060 -0.0430 -0.2941
13865SOL    HW150563   2.270   1.981   2.389 -0.5971 -0.7121 -1.6292
13865SOL    HW250564   2.339   1.934   2.263  1.4534 -1.0191 -0.4365
13866SOL     OW50565  12.071   8.005   9.315  0.4075 -0.1365  0.2933
13866SOL    HW150566  11.986   8.032   9.350 -0.2578  0.2596 -1.5220
13866SOL    HW250567  12.051   7.969   9.228  2.2285  1.3684 -0.8246
13867SOL     OW50568  10.659   5.306   5.866  0.1785  0.2572 -0.2986
13867SOL    HW150569  10.750   5.327   5.884  0.4612 -1.2294  0.2009
13867SOL    HW250570  10.650   5.315   5.772  1.1321 -0.5423 -0.4862
13868SOL     OW50571  10.918  11.526  11.772 -0.3080 -0.0463  0.0730
13868SOL    HW150572  10.895  11.568  11.689  1.3955  0.4454 -0.1731
13868SOL    HW250573  10.847  11.462  11.786 -0.7473  0.0129 -1.6408
13869SOL     OW50574   1.018   1.623   4.793  0.6068  0.4147  0.4689
13869SOL    HW150575   1.024   1.544   4.846 -0.4171  1.1234  1.6859
13869SOL    HW250576   1.044   1.694   4.852 -2.0575  1.4166  0.6066
13870SOL     OW50577   1.629   0.383   7.086 -0.7343 -0.3663  0.1471
13870SOL    HW150578   1.547   0.360   7.131 -0.4316  1.0729  1.5079
13870SOL    HW250579   1.601   0.439   7.014 -0.9011  0.9602  1.2138
13871SOL     OW50580   1.503   6.031   5.403  0.2296 -0.7303  0.4105
13871SOL    HW150581   1.522   6.021   5.497  0.7568  2.5570  0.7858
13871SOL    HW250582   1.431   6.093   5.400  1.8527  1.2208 -1.3166
13872SOL     OW50583  11.522   1.792   6.461  0.1109 -0.2370  0.0198
13872SOL    HW150584  11.515   1.713   6.408 -0.3672 -1.2768  1.5618
13872SOL    HW250585  11.472   1.772   6.540  1.7938  0.7898  1.4000
13873SOL     OW50586   0.167  10.601   9.308  0.5777 -0.4290  0.2824
13873SOL    HW150587   0.242  10.659   9.319  0.3607 -0.0622 -0.1526
13873SOL    HW250588   0.091  10.656   9.325  0.2890 -0.1741 -1.5482
13874SOL     OW50589   1.396   8.075  10.355 -0.7987  0.3481  0.1675
13874SOL    HW150590   1.327   8.027  10.400  0.0840 -0.1515  1.0293
13874SOL    HW250591   1.368   8.078  10.264 -2.3596  0.9122  0.6447
13875SOL     OW50592   8.562  12.206  11.435 -0.6633  0.7038 -0.1746
13875SOL    HW150593   8.569  12.144  11.507 -0.6082  0.0986 -0.6964
13875SOL    HW250594   8.496  12.170  11.377 -1.0863  1.4523 -0.1760
13876SOL     OW50595  11.823   3.493   9.289  0.3334  0.3455 -0.1418
13876SOL    HW150596  11.842   3.492   9.383 -0.1251 -1.2415 -0.0437
13876SOL    HW250597  11.901   3.532   9.250  1.2205 -0.4348  0.7738
13877SOL     OW50598   4.839  12.251   7.319  0.2897 -0.3783 -0.1442
13877SOL    HW150599   4.781  12.313   7.364  0.8600  0.3644 -0.4107
13877SOL    HW250600   4.781  12.204   7.259 -0.1054  0.1054 -0.1547
13878SOL     OW50601   0.095   9.929   7.934  0.1727  0.1448 -0.7745
13878SOL    HW150602   0.117   9.898   7.846  2.5654 -2.6323  0.6568
13878SOL    HW250603   0.170   9.982   7.960 -0.3237  0.5893 -0.2386
13879SOL     OW50604   7.259   3.989   7.837  0.1441  0.1834 -0.3406
13879SOL    HW150605   7.211   3.906   7.835 -1.3548  0.9811  0.9065
13879SOL    HW250606   7.296   3.992   7.925  0.1153  0.8776 -0.3520
13880SOL     OW50607   3.114   2.872   9.622  0.3678  0.0432 -0.2679
13880SOL    HW150608   3.021   2.858   9.607  0.6331  0.5908 -2.8541
13880SOL    HW250609   3.148   2.785   9.644 -0.6191 -0.3181 -0.1591
13881SOL     OW50610   2.501   4.467  11.881 -0.4556  0.2420 -0.1869
13881SOL    HW150611   2.408   4.456  11.861 -0.2088 -2.5498 -0.2180
13881SOL    HW250612   2.523   4.392  11.937  1.5118  1.5096  0.8566
13882SOL     OW50613   1.151  10.204   8.592 -0.3077  0.1736 -0.2981
13882SOL    HW150614   1.121  10.293   8.572 -3.0955 -1.0569 -2.0963
13882SOL    HW250615   1.162  10.162   8.507 -0.2823 -1.5858  0.5362
13883SOL     OW50616  10.448  11.409  11.956  0.5129 -0.5132  0.2727
13883SOL    HW150617  10.474  11.367  11.874 -0.3864 -2.1855  0.8017
13883SOL    HW250618  10.494  11.360  12.024 -1.3209 -1.3444  0.9742
13884SOL     OW50619   8.173  11.420  11.039  0.0457 -0.8657  0.4384
13884SOL    HW150620   8.115  11.456  11.105 -2.7080 -1.5976 -1.4028
13884SOL    HW250621   8.172  11.485  10.968 -0.6820 -2.0794 -0.6991
13885SOL     OW50622   4.630  10.674   6.086  0.3089  0.0348  0.8288
13885SOL    HW150623   4.563  10.740   6.069 -0.9056 -0.9481  1.6086
13885SOL    HW250624   4.581  10.593   6.101  1.7588 -1.0571 -0.0668
13886SOL     OW50625   0.015   9.617  11.616  0.0910 -0.1441  0.1768
13886SOL    HW150626   0.001   9.634  11.709  0.3383  0.0157  0.1847
13886SOL    HW250627   0.073   9.541  11.614 -1.3625 -1.2967  0.1399
13887SOL     OW50628   8.223   7.259  11.325 -0.0288 -0.4511  0.0504
13887SOL    HW150629   8.188   7.207  11.253  0.0937  0.4567 -0.6884
13887SOL    HW250630   8.309   7.220  11.343 -0.2922 -1.0279  0.0939
13888SOL     OW50631   5.488   6.311  10.798 -0.1287 -0.1933  0.4979
13888SOL    HW150632   5.486   6.377  10.868  0.6113 -0.7445  1.0626
13888SOL    HW250633   5.442   6.352  10.725 -1.5467  0.1307  1.5282
13889SOL     OW50634   3.208   9.543   8.809  0.3084  0.7919  0.6297
13889SOL    HW150635   3.186   9.476   8.744 -0.5712  3.6057 -2.2656
13889SOL    HW250636   3.304   9.540   8.815  0.2667 -1.0287  1.0566
13890SOL     OW50637   9.538   8.432   2.510  0.2411 -0.1095 -0.2764
13890SOL    HW150638   9.592   8.499   2.552 -0.5370 -0.0434  0.6779
13890SOL    HW250639   9.601   8.367   2.479  0.8624 -0.4492  1.5315
13891SOL     OW50640   2.345   2.403   8.582 -0.1564 -0.1274 -0.2565
13891SOL    HW150641   2.332   2.342   8.654  0.2111  0.2525  0.1407
13891SOL    HW250642   2.279   2.379   8.517 -1.1575  0.1575  0.6209
13892SOL     OW50643   5.770   3.544  10.299 -0.2697 -0.4768 -0.4274
13892SOL    HW150644   5.706   3.534  10.228  0.6253  0.1766 -1.3500
13892SOL    HW250645   5.836   3.478  10.282 -0.1728 -0.4822 -0.0473
13893SOL     OW50646   0.686   8.612   6.143  0.1569  0.0547  0.0785
13893SOL    HW150647   0.668   8.569   6.227  0.3633 -1.6956 -0.7297
13893SOL    HW250648   0.754   8.676   6.163  0.0807 -0.2133  1.2766
13894SOL     OW50649   5.393  10.903   9.228  0.5620  0.0545  0.4644
13894SOL    HW150650   5.390  10.818   9.184  2.2575 -0.0276  0.4587
13894SOL    HW250651   5.426  10.883   9.316  0.1620  0.6221  0.7516
13895SOL     OW50652   9.715   7.226   0.169  0.1383 -0.1110  0.1754
13895SOL    HW150653   9.742   7.302   0.220  2.7108 -0.8098 -0.0380
13895SOL    HW250654   9.775   7.224   0.095 -0.2301 -2.0348 -0.1221
13896SOL     OW50655   3.438  10.782   3.231  0.2283  0.4919 -0.3157
13896SOL    HW150656   3.373  10.785   3.160  0.0550  0.3647 -0.1631
13896SOL    HW250657   3.386  10.784   3.311  0.2686 -1.5202 -0.1698
13897SOL     OW50658   0.876   0.456   7.053 -0.0823  0.1810  0.0219
13897SOL    HW150659   0.897   0.549   7.052  1.5470 -0.1600 -1.0807
13897SOL    HW250660   0.914   0.422   6.972  0.5144 -1.6822  1.0378
13898SOL     OW50661   7.944   5.761   3.296 -1.0498 -0.5611 -0.0550
13898SOL    HW150662   7.854   5.729   3.304 -1.5733  0.7861 -0.2833
13898SOL    HW250663   7.935   5.854   3.272  0.3966 -0.2867  0.3351
13899SOL     OW50664   2.427   1.852   1.773 -0.5119 -0.2814  0.3961
13899SOL    HW150665   2.502   1.907   1.751 -0.7207 -0.1590 -0.0233
13899SOL    HW250666   2.463   1.763   1.777  0.1420  0.0189  2.5717
13900SOL     OW50667   9.846   0.135   9.597 -0.3879  0.0560 -0.5335
13900SOL    HW150668   9.918   0.198   9.594 -0.3653  0.1023  0.5718
13900SOL    HW250669   9.806   0.149   9.683  0.4207 -2.3108  0.2920
13901SOL     OW50670   8.879   6.857   6.956 -0.0760  0.1934 -0.3758
13901SOL    HW150671   8.908   6.884   6.869  0.2258  1.3060  0.0604
13901SOL    HW250672   8.846   6.768   6.944 -0.1093  0.3696 -1.6383
13902SOL     OW50673   1.121   8.603   8.037  0.0791 -0.1983  0.2102
13902SOL    HW150674   1.129   8.671   7.970 -0.0161  0.0436  0.4420
13902SOL    HW250675   1.210   8.591   8.070  0.0503  0.0157  0.3662
13903SOL     OW50676   2.806   2.054   1.961 -0.0538  0.3961  0.0140
13903SOL    HW150677   2.800   1.967   1.922 -0.6005 -1.0604  3.1133
13903SOL    HW250678   2.878   2.096   1.914  1.3870 -2.3597 -0.4445
13904SOL     OW50679   2.386  11.916   9.388  0.0271 -1.0012  0.0132
13904SOL    HW150680   2.304  11.965   9.398  0.0289 -0.9289 -0.3130
13904SOL    HW250681   2.447  11.979   9.351  0.0604 -1.2166 -0.3084
13905SOL     OW50682   0.874   6.456   5.040 -0.3768 -0.2743  0.5704
13905SOL    HW150683   0.801   6.439   4.981  0.2808  0.6736 -0.5639
13905SOL    HW250684   0.835   6.458   5.127 -1.5970 -0.3492  0.0409
13906SOL     OW50685   2.294   9.700   9.335 -0.4862 -0.3103  0.2514
13906SOL    HW150686   2.371   9.665   9.290  0.6876  1.2622  0.9185
13906SOL    HW250687   2.324   9.716   9.424 -0.5463  3.2615 -0.2284
13907SOL     OW50688   0.217   0.125   5.084  0.3517 -0.8478  0.2568
13907SOL    HW150689   0.169   0.043   5.074 -1.5230  0.2007  0.2120
13907SOL    HW250690   0.261   0.137   5.000 -0.3525 -1.2248 -0.1823
13908SOL     OW50691   9.655  10.589   4.705 -0.4262 -0.0434 -0.0451
13908SOL    HW150692   9.650  10.571   4.799  0.1300 -0.1724 -0.0364
13908SOL    HW250693   9.699  10.674   4.699 -0.8915  0.1905 -0.1729
13909SOL     OW50694  10.828   6.272   3.222 -0.1426 -0.5472 -0.2213
13909SOL    HW150695  10.874   6.232   3.148 -1.0786 -0.3857 -0.9040
13909SOL    HW250696  10.756   6.321   3.183  0.7247  1.5285  0.6162
13910SOL     OW50697   2.129   8.684   6.764  0.1348 -0.3186  0.0387
13910SOL    HW150698   2.037   8.660   6.775  0.0455  0.7432  2.1871
13910SOL    HW250699   2.178   8.608   6.795 -0.0823  0.0385  1.3205
13911SOL     OW50700  11.995   7.681   6.911 -0.4170 -0.1551  0.1442
13911SOL    HW150701  11.926   7.678   6.845 -0.9108  0.7838  0.5978
13911SOL    HW250702  11.961   7.739   6.979  0.2336 -0.8124  1.0548
13912SOL     OW50703   8.879   8.843   3.347 -0.2150 -0.0955  0.1835
13912SOL    HW150704   8.812   8.868   3.411  0.6145  0.6517  0.7825
13912SOL    HW250705   8.925   8.770   3.388  0.2016  0.2665  0.3598
13913SOL     OW50706   4.940   1.038   4.955  0.3645  0.1551 -0.2162
13913SOL    HW150707   4.869   1.044   5.019  1.1353 -2.0087  0.9143
13913SOL    HW250708   4.895   1.045   4.870 -0.8846  1.2238  0.4762
13914SOL     OW50709  11.676   8.059   9.585 -0.0663 -0.0621 -0.1981
13914SOL    HW150710  11.726   8.106   9.518 -0.6771  1.0331  0.0998
13914SOL    HW250711  11.723   8.078   9.666  0.5219 -1.1736 -0.2640
13915SOL     OW50712   6.648  11.472   3.059 -0.6256  0.3055  0.1075
13915SOL    HW150713   6.701  11.501   3.133 -0.3144 -1.1213  0.4728
13915SOL    HW250714   6.583  11.413   3.098 -0.9571  0.1445 -0.6627
13916SOL     OW50715   5.859   8.559   2.426  0.0804  0.1771  0.1335
13916SOL    HW150716   5.930   8.578   2.488  1.2531 -0.7671 -0.8606
13916SOL    HW250717   5.902   8.511   2.354 -1.9047 -2.3490  0.4790
13917SOL     OW50718  10.477   3.550   4.484 -0.0624 -0.4823 -0.4282
13917SOL    HW150719  10.517   3.631   4.453 -1.1263 -0.2413 -1.2494
13917SOL    HW250720  10.421   3.578   4.556 -1.1313 -0.3178 -1.2937
13918SOL     OW50721   2.945   7.238   7.447 -0.2792 -0.0487  0.2852
13918SOL    HW150722   3.017   7.224   7.386 -0.0830  0.1846  0.4624
13918SOL    HW250723   2.986   7.240   7.533 -0.4623  0.3643  0.3630
13919SOL     OW50724  11.586   2.050   5.230  0.4704 -0.3247  0.4333
13919SOL    HW150725  11.587   2.140   5.198  1.2951  0.1816  1.7981
13919SOL    HW250726  11.517   2.049   5.296  0.8852 -0.5157  0.8694
13920SOL     OW50727   6.330  12.120   3.174  0.4084 -0.0530 -0.2521
13920SOL    HW150728   6.281  12.185   3.123  1.1535  2.2576  1.7604
13920SOL    HW250729   6.419  12.125   3.139  0.5255  0.2257  0.0810
13921SOL     OW50730   5.004  11.564   0.148 -0.0439  0.0430 -0.3511
13921SOL    HW150731   5.025  11.628   0.080  0.6926  1.3181  1.0249
13921SOL    HW250732   4.908  11.564   0.151 -0.0519  1.9439  0.3841
13922SOL     OW50733   9.445   9.948   2.119  0.0280  0.0129 -0.3007
13922SOL    HW150734   9.452   9.951   2.024  0.8631 -0.6537 -0.2809
13922SOL    HW250735   9.354   9.969   2.138  0.2614  2.0329 -1.1359
13923SOL     OW50736   5.322  10.699   9.766 -0.7704 -0.6916 -0.4252
13923SOL    HW150737   5.363  10.762   9.706 -0.3474 -1.0564 -0.5245
13923SOL    HW250738   5.367  10.713   9.849  0.6848 -2.1609 -0.9172
13924SOL     OW50739   3.078   7.629  11.528  0.2575  0.4785  0.0442
13924SOL    HW150740   3.089   7.723  11.518  0.3878  0.4440 -0.1474
13924SOL    HW250741   3.092   7.594  11.440 -1.8852  0.4847 -0.3668
13925SOL     OW50742  10.419   1.573  11.451  0.1093  0.3513 -0.6135
13925SOL    HW150743  10.339   1.521  11.455 -0.4807  1.2601 -0.2261
13925SOL    HW250744  10.432   1.590  11.357 -0.4022  0.5610 -0.6516
13926SOL     OW50745   5.092  11.694   5.242 -0.3810  0.1646 -0.6359
13926SOL    HW150746   5.096  11.763   5.176  2.8242  0.3852 -0.3646
13926SOL    HW250747   5.058  11.738   5.321  0.8739  1.3046 -0.6870
13927SOL     OW50748   2.324   5.139   3.169  0.5918 -0.1350 -0.1453
13927SOL    HW150749   2.330   5.176   3.256  0.8719 -1.5468  0.4655
13927SOL    HW250750   2.383   5.192   3.115  1.3924 -0.0363  0.8135
13928SOL     OW50751  12.413   9.521   1.638 -0.1695 -0.3045  0.8548
13928SOL    HW150752  12.464   9.555   1.565  0.2987 -2.2881  0.1992
13928SOL    HW250753  12.402   9.596   1.697 -0.3643  1.2782 -1.1110
13929SOL     OW50754   7.804   6.000   6.518  0.1702 -0.2887 -0.3176
13929SOL    HW150755   7.747   5.980   6.444  2.4122 -0.7546 -2.0256
13929SOL    HW250756   7.805   5.919   6.570 -1.9302  0.2539  0.6801
13930SOL     OW50757   1.301  10.698   3.050 -0.3058 -0.2377 -0.7864
13930SOL    HW150758   1.345  10.615   3.073  1.6562  0.6290 -1.1695
13930SOL    HW250759   1.259  10.680   2.966  0.5719 -0.7235 -1.1416
13931SOL     OW50760   7.011   5.965  12.035  0.3863  0.0919 -0.2051
13931SOL    HW150761   6.989   5.918  11.955  0.6057 -0.1288 -0.1382
13931SOL    HW250762   6.946   6.035  12.040  0.2561 -0.0059 -0.4760
13932SOL     OW50763   5.468   0.765   9.530 -0.2112 -0.6625 -0.7793
13932SOL    HW150764   5.453   0.809   9.613 -0.5887  0.2481 -1.3193
13932SOL    HW250765   5.504   0.680   9.554  1.2647  0.2139  0.2653
13933SOL     OW50766   4.152  12.273   2.282  0.3314 -0.0012 -0.2875
13933SOL    HW150767   4.154  12.366   2.263 -1.1878 -0.0101 -0.6295
13933SOL    HW250768   4.060  12.247   2.269  0.6432 -1.4637  0.1512
13934SOL     OW50769  10.492   7.580   8.024  0.2187 -0.2010 -0.0023
13934SOL    HW150770  10.584   7.598   8.044 -0.2916  1.4537  1.0955
13934SOL    HW250771  10.443   7.627   8.092 -1.4773 -0.2172 -1.1391
13935SOL     OW50772   2.886   1.194   7.625 -0.0788  0.3084  0.1185
13935SOL    HW150773   2.849   1.239   7.549  1.3435  0.3498 -0.5839
13935SOL    HW250774   2.929   1.116   7.588  0.0495 -0.0277  0.9613
13936SOL     OW50775   9.635   3.145   6.082 -0.3657 -0.5665  0.3766
13936SOL    HW150776   9.657   3.069   6.028 -0.8250 -1.8359  1.8852
13936SOL    HW250777   9.539   3.149   6.081 -0.3618 -0.2889  0.6609
13937SOL     OW50778   9.456  10.719   5.780  0.8181 -1.0856 -0.1743
13937SOL    HW150779   9.481  10.661   5.707 -0.8009 -1.6499 -0.3301
13937SOL    HW250780   9.412  10.793   5.738  0.4080 -1.1219  0.1836
13938SOL     OW50781   3.494  12.592   0.065  0.0581  0.2039 -0.0338
13938SOL    HW150782   3.469  12.525   0.129 -1.9213  0.3663 -0.5558
13938SOL    HW250783   3.544  12.656   0.116 -1.6759  0.4583  1.4591
13939SOL     OW50784  10.873   9.227  11.285  0.2418  0.1335 -0.4043
13939SOL    HW150785  10.935   9.154  11.286  1.5644  1.2182 -0.9916
13939SOL    HW250786  10.852   9.240  11.192 -0.0215  0.4738 -0.2995
13940SOL     OW50787  12.205  10.378   3.128  0.0714 -0.0529  0.4785
13940SOL    HW150788  12.163  10.299   3.093  0.1031  1.1448 -2.5588
13940SOL    HW250789  12.290  10.381   3.084  1.3753  0.1702  2.8233
13941SOL     OW50790   9.809   0.332   5.301 -0.2252 -0.1946 -0.7231
13941SOL    HW150791   9.887   0.283   5.275  0.1575  0.6838 -1.3018
13941SOL    HW250792   9.790   0.302   5.390  1.3492  0.2439 -0.2014
13942SOL     OW50793   8.528  11.267   7.621  0.1188 -0.0693 -0.2699
13942SOL    HW150794   8.464  11.264   7.692 -0.0400  2.0236 -0.2741
13942SOL    HW250795   8.600  11.211   7.650 -0.7649 -0.7576  0.6672
13943SOL     OW50796   2.437  10.186   1.559  0.0894  0.7070  0.1401
13943SOL    HW150797   2.375  10.167   1.630 -2.1331  1.3125 -1.5184
13943SOL    HW250798   2.487  10.261   1.591  0.2466 -0.0044  1.6728
13944SOL     OW50799   4.646   0.544   8.227  0.0904  0.0232 -0.3161
13944SOL    HW150800   4.617   0.468   8.178  0.2663 -0.3558  0.1601
13944SOL    HW250801   4.717   0.582   8.174 -0.4137  0.2194 -0.8563
13945SOL     OW50802  12.512  10.111   9.782 -0.6862  0.3949 -1.0345
13945SOL    HW150803  12.505  10.022   9.749  1.6892 -0.0819 -0.4757
13945SOL    HW250804  12.605  10.133   9.772 -0.9258  2.2423  0.2268
13946SOL     OW50805   1.208   8.639   2.798  0.1556 -0.3504 -0.2508
13946SOL    HW150806   1.279   8.581   2.771 -0.2655 -1.1532  0.3382
13946SOL    HW250807   1.129   8.586   2.788 -0.2147  0.0584  0.4759
13947SOL     OW50808  10.078   9.473   5.580  0.2787 -0.2495 -0.1156
13947SOL    HW150809  10.150   9.472   5.516  0.3703 -2.9201 -0.0805
13947SOL    HW250810  10.028   9.552   5.558  2.8994  1.4390 -0.4504
13948SOL     OW50811   3.413   5.412   2.179  0.5802 -0.7870 -0.0042
13948SOL    HW150812   3.340   5.417   2.117 -0.7203  1.0487  1.5606
13948SOL    HW250813   3.374   5.375   2.259  1.1589  0.7406  1.0401
13949SOL     OW50814   5.396   1.920   7.543  0.0390  0.2078  0.6521
13949SOL    HW150815   5.464   1.865   7.580  1.2781  2.2769  1.6290
13949SOL    HW250816   5.382   1.886   7.455  2.5083 -0.1567  0.3455
13950SOL     OW50817   9.838   7.708  11.982  0.3888 -0.0838  0.3348
13950SOL    HW150818   9.825   7.614  11.998 -0.1894  0.1257  1.1874
13950SOL    HW250819   9.898   7.712  11.908 -1.2353 -1.1488 -1.1388
13951SOL     OW50820   9.416   4.599   8.959  0.5422 -0.5804 -0.0138
13951SOL    HW150821   9.482   4.666   8.944 -0.0869  0.1484  0.4267
13951SOL    HW250822   9.353   4.639   9.018  0.3280 -1.6746  0.5328
13952SOL     OW50823   2.310   8.265   4.968  0.8747  0.0753  0.5062
13952SOL    HW150824   2.265   8.296   4.890  1.3552  1.1710  0.6532
13952SOL    HW250825   2.334   8.174   4.947  0.7343  0.2616 -0.4930
13953SOL     OW50826   2.023   3.769   3.576  0.4718 -0.9666 -0.5215
13953SOL    HW150827   2.102   3.775   3.630  0.2111  1.1309 -0.2746
13953SOL    HW250828   1.962   3.718   3.627  0.9862 -0.8691  0.2055
13954SOL     OW50829   5.874   4.562   4.785  0.2126 -0.4595  0.0351
13954SOL    HW150830   5.868   4.654   4.758  0.4889 -0.2565  0.6408
13954SOL    HW250831   5.789   4.542   4.823  0.7162  0.0781  1.4987
13955SOL     OW50832   9.819   1.835   4.666 -0.4100 -0.5376 -0.0868
13955SOL    HW150833   9.766   1.771   4.618 -0.6683  0.7906 -1.6382
13955SOL    HW250834   9.886   1.862   4.603 -0.4394  0.8690  0.4696
13956SOL     OW50835   5.122  10.585   5.572 -0.1090 -0.3633  0.5991
13956SOL    HW150836   5.217  10.579   5.564 -0.2597 -0.6324 -1.7432
13956SOL    HW250837   5.107  10.672   5.609  1.0282  0.4142 -0.6721
13957SOL     OW50838   7.630  12.278   0.774  0.3328  0.4493  0.4154
13957SOL    HW150839   7.659  12.192   0.743 -1.5760  0.3986 -1.4962
13957SOL    HW250840   7.710  12.324   0.798  1.6066 -1.0049 -0.8577
13958SOL     OW50841   5.478   2.250   1.192 -0.3372 -0.8345  0.3842
13958SOL    HW150842   5.570   2.244   1.166 -0.7847 -1.9283 -1.0595
13958SOL    HW250843   5.460   2.344   1.196  1.3918 -0.5069  2.8786
13959SOL     OW50844   2.159   2.166  11.683  0.1951  0.6449  0.1439
13959SOL    HW150845   2.168   2.214  11.766 -0.5244  1.7988 -0.4106
13959SOL    HW250846   2.068   2.137  11.682  0.4992 -0.3177  0.2484
13960SOL     OW50847   0.585   9.153  11.465 -0.3622 -0.6634  0.1428
13960SOL    HW150848   0.681   9.154  11.458 -0.3693 -2.2590 -0.6083
13960SOL    HW250849   0.566   9.076  11.519 -1.2978 -2.3569 -2.3953
13961SOL     OW50850   8.639   0.775   7.064 -0.3776 -0.3138  0.0480
13961SOL    HW150851   8.677   0.859   7.035  0.5308 -0.8114 -0.2469
13961SOL    HW250852   8.580   0.750   6.994 -1.3798  0.5235  0.5573
13962SOL     OW50853  12.307   6.064  10.546 -0.3400 -0.2821  0.5303
13962SOL    HW150854  12.304   6.116  10.626 -1.7109 -0.3138  0.5353
13962SOL    HW250855  12.216   6.039  10.530 -0.0033 -0.8723 -0.6542
13963SOL     OW50856   7.259  10.744  10.510 -0.0054 -0.4557  0.2045
13963SOL    HW150857   7.227  10.803  10.578 -0.3357 -1.2951  0.7992
13963SOL    HW250858   7.320  10.686  10.556  2.0274  0.7863 -0.8033
13964SOL     OW50859   3.798   7.537  12.459 -0.5619  0.1457  0.1164
13964SOL    HW150860   3.706   7.564  12.468 -0.9238 -0.8340 -0.4605
13964SOL    HW250861   3.829   7.530  12.549 -1.0936  0.3876  0.3252
13965SOL     OW50862   9.854   7.851   4.531 -0.6175 -0.2045  0.4542
13965SOL    HW150863   9.779   7.871   4.587 -1.6608  0.2482 -1.0470
13965SOL    HW250864   9.860   7.756   4.531 -1.7127 -0.2843 -0.0345
13966SOL     OW50865   4.023   2.303   1.914  0.1341  0.5802 -0.0497
13966SOL    HW150866   4.091   2.306   1.847 -1.0683  0.9778 -1.3096
13966SOL    HW250867   3.952   2.253   1.874 -0.3028  0.0991  1.2610
13967SOL     OW50868   4.292   4.232   0.911  0.0442 -0.0675 -0.2088
13967SOL    HW150869   4.312   4.304   0.970 -0.1276 -0.6477  0.5847
13967SOL    HW250870   4.378   4.199   0.883  0.1162  0.7481 -0.9681
13968SOL     OW50871   6.477  11.838   4.164  0.3132  0.2398 -0.9204
13968SOL    HW150872   6.393  11.873   4.135 -0.0420  0.1387 -0.0628
13968SOL    HW250873   6.476  11.747   4.135 -0.0683  0.1198 -0.5499
13969SOL     OW50874  10.620   2.719   6.221  0.1732  0.2774 -0.2209
13969SOL    HW150875  10.647   2.804   6.257  2.3391 -0.2088 -0.6163
13969SOL    HW250876  10.524   2.725   6.218  0.2541  2.7266 -0.2971
13970SOL     OW50877   4.429   3.558   0.312  0.3160  0.3587 -0.1179
13970SOL    HW150878   4.494   3.533   0.247  0.1600  0.2445 -0.2309
13970SOL    HW250879   4.372   3.620   0.267 -0.4490 -0.5544 -0.4308
13971SOL     OW50880   4.298   8.056   3.137  0.0947  0.6749  0.1146
13971SOL    HW150881   4.221   8.020   3.180  0.8349 -0.5562  0.4496
13971SOL    HW250882   4.343   8.107   3.204  0.9554 -0.7904  0.6924
13972SOL     OW50883   2.487  12.524   7.346  0.5860  0.1353 -0.3732
13972SOL    HW150884   2.510  12.538   7.437 -2.2933  0.9762  0.3311
13972SOL    HW250885   2.475  12.612   7.310 -0.2500 -0.2104 -0.9824
13973SOL     OW50886  11.817  11.809  11.161 -0.2945  0.4190  0.5579
13973SOL    HW150887  11.849  11.827  11.072 -0.3238  0.0947  0.4830
13973SOL    HW250888  11.786  11.719  11.158  1.7680 -0.3690  1.4901
13974SOL     OW50889  11.120   3.690   8.455  0.4291 -0.2593  0.5407
13974SOL    HW150890  11.175   3.659   8.383 -1.5096 -0.2900 -1.0095
13974SOL    HW250891  11.181   3.703   8.528  2.5158 -0.0292 -1.1445
13975SOL     OW50892   2.378   2.738   5.179 -0.0803 -0.5239 -0.1981
13975SOL    HW150893   2.357   2.645   5.174 -2.1131 -0.1247 -0.0005
13975SOL    HW250894   2.303   2.782   5.140  0.5171  1.0670  0.3357
13976SOL     OW50895   9.742   7.964   1.523  0.0052 -0.1437  0.2462
13976SOL    HW150896   9.798   7.940   1.448  1.5546 -0.3993  1.4334
13976SOL    HW250897   9.756   7.894   1.586  0.2365  1.0401  1.5482
13977SOL     OW50898   3.624   3.655   7.761 -0.0469  0.4203 -0.2769
13977SOL    HW150899   3.554   3.720   7.764  1.2629  1.9893 -1.6755
13977SOL    HW250900   3.682   3.680   7.833 -0.1044  0.0837 -0.1103
13978SOL     OW50901   1.747   7.387   2.662 -0.1889  0.2297 -0.1958
13978SOL    HW150902   1.814   7.382   2.730  0.4979 -0.1646 -0.8845
13978SOL    HW250903   1.786   7.342   2.586 -2.6690 -3.6932  0.5395
13979SOL     OW50904   0.808  11.762   2.378 -0.1973 -0.2241  0.0343
13979SOL    HW150905   0.716  11.786   2.367  0.4372  2.1135 -0.8871
13979SOL    HW250906   0.823  11.767   2.472 -0.5301  1.7435  0.0422
13980SOL     OW50907   8.101   2.537   0.761 -0.3945  0.1521  0.1224
13980SOL    HW150908   8.141   2.579   0.685 -0.7858  0.3319  0.0148
13980SOL    HW250909   8.009   2.561   0.757 -0.8489 -1.5580 -0.5027
13981SOL     OW50910   5.727   2.587   6.927 -0.0495  0.0675 -0.4457
13981SOL    HW150911   5.668   2.570   6.854 -0.4714  0.8252 -0.2983
13981SOL    HW250912   5.745   2.501   6.965 -0.9032 -0.1906 -0.6099
13982SOL     OW50913   8.336   3.412  11.560  0.7110 -0.7860  0.1130
13982SOL    HW150914   8.419   3.373  11.587  0.3349 -0.6361  1.5739
13982SOL    HW250915   8.273   3.385  11.627 -0.5613 -1.3483 -1.2467
13983SOL     OW50916   3.241   4.212  12.345 -0.8385 -0.1421 -0.4696
13983SOL    HW150917   3.226   4.125  12.308 -1.3903  0.1807 -1.0328
13983SOL    HW250918   3.171   4.266  12.308  0.4031  0.9088 -1.3662
13984SOL     OW50919   8.694   2.617  11.758 -0.0752  0.3504 -0.3247
13984SOL    HW150920   8.736   2.559  11.822  2.2596  1.2315 -0.9672
13984SOL    HW250921   8.745   2.606  11.678 -0.7412  1.9096 -0.9953
13985SOL     OW50922  11.401   3.897   8.538 -0.3615 -0.5266 -0.4545
13985SOL    HW150923  11.380   3.830   8.603  1.7453  0.6723  1.6187
13985SOL    HW250924  11.367   3.978   8.575  2.3869  0.4608  0.1144
13986SOL     OW50925   7.412   2.390   1.258 -0.3147  0.1752 -0.3395
13986SOL    HW150926   7.497   2.346   1.253 -0.1473  0.5086 -0.4118
13986SOL    HW250927   7.379   2.389   1.169 -0.2037  0.4027 -0.3855
13987SOL     OW50928  11.444   2.289  11.167 -0.4288 -0.2081  0.1771
13987SOL    HW150929  11.440   2.194  11.175  1.1534 -0.1998  1.7333
13987SOL    HW250930  11.353   2.318  11.175 -0.9105 -1.5770 -0.1602
13988SOL     OW50931  10.831   3.083   6.193 -0.3453 -0.3131 -0.0728
13988SOL    HW150932  10.796   3.170   6.175  0.5371  0.1828  0.5291
13988SOL    HW250933  10.800   3.063   6.282 -0.4219 -0.5583 -0.1534
13989SOL     OW50934   5.863  11.831   7.414  0.4087 -0.3266  0.3208
13989SOL    HW150935   5.871  11.824   7.509  0.9795  1.6122  0.4556
13989SOL    HW250936   5.910  11.911   7.391  0.6481 -0.9690 -1.6610
13990SOL     OW50937   1.257   8.562  11.661  0.5219 -0.3497  0.3550
13990SOL    HW150938   1.309   8.577  11.583 -0.4034 -1.9459 -0.6167
13990SOL    HW250939   1.262   8.468  11.676 -1.2151 -0.4015  0.8235
13991SOL     OW50940   5.686   1.440   4.292 -0.2328  0.0415 -0.4165
13991SOL    HW150941   5.663   1.522   4.247  1.6261 -0.2259 -1.9973
13991SOL    HW250942   5.725   1.386   4.224 -1.7191 -2.3574  0.5199
13992SOL     OW50943   3.727  12.140   2.897 -0.6678  0.5413 -0.5395
13992SOL    HW150944   3.723  12.091   2.979 -1.0591 -2.0804 -2.0337
13992SOL    HW250945   3.726  12.232   2.925 -1.8030 -0.2245  2.3405
13993SOL     OW50946  10.289   6.645   9.387 -0.7451  0.5743  0.1859
13993SOL    HW150947  10.221   6.691   9.338  0.0671  0.5018 -1.0564
13993SOL    HW250948  10.367   6.651   9.331 -0.2102 -0.9477  0.7222
13994SOL     OW50949   3.817   6.322   7.700 -0.5232  0.4701 -0.0469
13994SOL    HW150950   3.894   6.267   7.708 -0.6956  0.2950  0.4688
13994SOL    HW250951   3.762   6.278   7.635 -0.4351  0.3008 -0.0061
13995SOL     OW50952   1.536   7.194  10.149  0.0769  0.2467 -0.2784
13995SOL    HW150953   1.574   7.249  10.081  1.3768 -0.2766  0.0058
13995SOL    HW250954   1.492   7.256  10.207 -1.0572  0.7064 -1.5595
13996SOL     OW50955   5.099  12.277   7.425  0.0683 -0.5778 -0.2378
13996SOL    HW150956   5.004  12.281   7.417  0.1042  2.4040  0.0057
13996SOL    HW250957   5.117  12.302   7.516  1.1198 -0.9325 -0.3276
13997SOL     OW50958   9.268  11.016   3.406  0.1632  0.2179 -0.4461
13997SOL    HW150959   9.203  10.951   3.379  1.2875 -0.3882 -1.8344
13997SOL    HW250960   9.306  10.981   3.486 -0.4433  0.0532 -0.2212
13998SOL     OW50961   0.957  10.444   6.498 -0.6016 -0.0118  0.7405
13998SOL    HW150962   0.892  10.431   6.566 -0.5096 -0.2085  0.7921
13998SOL    HW250963   1.041  10.426   6.540 -0.6926 -2.5573 -0.0050
13999SOL     OW50964   0.248   5.549   6.977  0.3097 -0.3318  0.4329
13999SOL    HW150965   0.155   5.533   6.993 -0.0123  0.1788 -0.7806
13999SOL    HW250966   0.292   5.470   7.007 -0.6396 -1.0521 -0.0352
14000SOL     OW50967   9.881   3.568   6.361 -0.0465  0.2084 -0.2219
14000SOL    HW150968   9.878   3.517   6.280  1.0459  0.1115 -0.2148
14000SOL    HW250969   9.973   3.590   6.372  0.1197 -1.2568  1.9074
14001SOL     OW50970   2.651  10.538   5.495 -0.0073 -0.1452  0.6025
14001SOL    HW150971   2.602  10.468   5.452  0.0155 -1.3578  2.4279
14001SOL    HW250972   2.723  10.557   5.435 -0.1318 -1.5422 -0.0362
14002SOL     OW50973   9.395   9.766  11.902 -0.0951  0.3405  0.2236
14002SOL    HW150974   9.343   9.697  11.860  0.0900  0.6654 -0.5502
14002SOL    HW250975   9.408   9.831  11.833  1.0398  0.4324  0.5103
14003SOL     OW50976   1.024  11.155   4.161 -0.3310  0.1244  0.3035
14003SOL    HW150977   0.953  11.105   4.122 -1.5893  1.2383  1.0669
14003SOL    HW250978   1.031  11.121   4.250 -1.1246  1.1889  0.7946
14004SOL     OW50979   1.877   9.854  10.941 -0.1633 -0.0243 -0.0454
14004SOL    HW150980   1.949   9.912  10.965 -0.1273 -0.4732  0.9931
14004SOL    HW250981   1.842   9.891  10.860 -0.6608  1.8872  1.0091
14005SOL     OW50982  10.338   8.133  10.656  0.1804  0.0876 -0.1081
14005SOL    HW150983  10.275   8.192  10.615 -0.0776  1.2028  1.7557
14005SOL    HW250984  10.293   8.100  10.734  1.8646  1.0262  1.3517
14006SOL     OW50985   1.789   7.692  11.855  0.5098 -0.5771  0.1651
14006SOL    HW150986   1.872   7.667  11.895 -0.5770  0.0077  3.0521
14006SOL    HW250987   1.796   7.787  11.843  1.1665 -0.8475 -2.0970
14007SOL     OW50988   4.913  10.600   2.820  0.2685 -0.6818  0.9369
14007SOL    HW150989   4.848  10.620   2.753  0.0752 -0.0673  1.2955
14007SOL    HW250990   4.997  10.602   2.775  0.0506 -1.3676  0.4935
14008SOL     OW50991   7.059   6.411   5.498  0.0892  0.5082  0.4820
14008SOL    HW150992   7.067   6.469   5.423  0.0471 -0.9728 -0.7197
14008SOL    HW250993   6.989   6.350   5.474 -0.1331  0.1680  1.8625
14009SOL     OW50994   8.544   8.089   8.337 -0.5340  0.1978 -0.2816
14009SOL    HW150995   8.574   8.152   8.271 -0.8325 -0.3069 -0.9204
14009SOL    HW250996   8.616   8.083   8.399 -0.7144  1.5619  0.0942
14010SOL     OW50997  12.396   3.042   9.814  0.3993 -0.0024  0.3529
14010SOL    HW150998  12.409   3.090   9.733 -1.8244 -1.2994 -0.8584
14010SOL    HW250999  12.367   3.109   9.877  2.3495  1.0472  0.2200
14011SOL     OW51000   0.797  12.087   2.262 -0.4443 -0.1375 -0.0731
14011SOL    HW151001   0.827  12.018   2.321  1.8470  1.9842  1.4468
14011SOL    HW251002   0.825  12.058   2.175 -0.9919 -1.8100  0.2672
14012SOL     OW51003   9.754   1.139   2.143 -0.1923  0.4662 -0.2241
14012SOL    HW151004   9.749   1.231   2.119  1.4386  0.7625  0.4985
14012SOL    HW251005   9.744   1.138   2.238  1.1037  0.0341 -0.0773
14013SOL     OW51006  10.180  11.241   6.621  0.7368 -0.4043 -0.6809
14013SOL    HW151007  10.099  11.237   6.673  0.0964 -2.1271 -1.7300
14013SOL    HW251008  10.246  11.200   6.677  0.3928 -0.9127 -0.6401
14014SOL     OW51009   4.184   1.572  11.278 -0.5192  0.0278  0.0232
14014SOL    HW151010   4.226   1.509  11.336 -0.9480  0.4168  0.7658
14014SOL    HW251011   4.136   1.518  11.215  1.2726 -0.4336 -1.0134
14015SOL     OW51012   5.884   9.881   6.327  0.1052 -0.2325  0.2791
14015SOL    HW151013   5.829   9.844   6.258 -2.2238  0.7181  1.5355
14015SOL    HW251014   5.892   9.810   6.391  0.2023 -0.2947  0.1997
14016SOL     OW51015  10.691   4.890   3.961 -0.2649 -1.1326 -0.6064
14016SOL    HW151016  10.771   4.852   3.998 -0.2179  0.7697  1.4632
14016SOL    HW251017  10.722   4.951   3.895  0.1823  0.7531  1.2567
14017SOL     OW51018   4.289  12.191   5.252 -0.1498 -0.0784  0.0441
14017SOL    HW151019   4.383  12.210   5.245  0.5091 -2.9883 -0.2764
14017SOL    HW251020   4.283  12.097   5.235 -3.2813  0.2245 -1.0853
14018SOL     OW51021   6.265   3.927   2.635  0.7742 -0.3106  0.0531
14018SOL    HW151022   6.271   4.009   2.683 -0.6046 -0.0532 -0.1954
14018SOL    HW251023   6.222   3.949   2.553 -1.0040 -1.5048  0.6103
14019SOL     OW51024   0.765   7.692  12.015  0.3011  0.1345 -0.1001
14019SOL    HW151025   0.784   7.611  12.063  0.7274  0.7137  0.7282
14019SOL    HW251026   0.679   7.676  11.975  0.4716 -0.8043 -0.1274
14020SOL     OW51027   1.267  12.306   2.653  0.3587  0.4251  0.3995
14020SOL    HW151028   1.232  12.230   2.606 -1.9861  1.0015  1.0476
14020SOL    HW251029   1.229  12.381   2.607 -0.1758  1.0713  1.8325
14021SOL     OW51030   0.437   2.117  12.394  0.0980 -0.1186 -0.4512
14021SOL    HW151031   0.452   2.043  12.453  0.1057 -0.9008 -1.4105
14021SOL    HW251032   0.349   2.103  12.360 -0.3672  0.9687  0.2579
14022SOL     OW51033   8.835   4.891   7.246  0.5384 -0.4246  0.4248
14022SOL    HW151034   8.768   4.841   7.294 -0.1146  1.9091  2.0991
14022SOL    HW251035   8.791   4.972   7.222  2.1181  0.1640 -0.5508
14023SOL     OW51036   2.067   1.265   9.751  0.5421 -0.4697  0.1602
14023SOL    HW151037   2.085   1.234   9.662  0.4070  0.3575 -0.1636
14023SOL    HW251038   2.052   1.185   9.802  0.9163 -0.9660 -0.4920
14024SOL     OW51039   9.219   6.712   0.209  0.2274  0.5910  0.0604
14024SOL    HW151040   9.176   6.630   0.233  1.1192  0.2803  0.6079
14024SOL    HW251041   9.308   6.704   0.242  0.6934  1.2751 -0.9609
14025SOL     OW51042  11.878  12.573   9.613  0.1269  0.4950 -0.0361
14025SOL    HW151043  11.949  12.573   9.549 -0.3149 -0.2908 -0.5372
14025SOL    HW251044  11.882  12.487   9.655 -1.1478  0.0479 -0.7788
14026SOL     OW51045   6.627   5.052  11.702  0.2600  0.1449  0.4451
14026SOL    HW151046   6.597   5.004  11.779  2.2605 -0.9156  0.6368
14026SOL    HW251047   6.618   5.144  11.725 -2.1443 -0.0929  0.6930
14027SOL     OW51048   5.902  12.573   1.967 -0.2018 -0.1681 -0.3574
14027SOL    HW151049   5.808  12.561   1.953  0.0275  0.7388 -3.3862
14027SOL    HW251050   5.943  12.504   1.915  0.8045  0.8925 -1.0170
14028SOL     OW51051   3.327   4.287  10.408  0.0798  0.3769 -0.6185
14028SOL    HW151052   3.292   4.253  10.490 -1.9507  0.1012 -1.5580
14028SOL    HW251053   3.407   4.236  10.393  1.3034  1.3681  1.8198
14029SOL     OW51054   8.807   2.765   1.593 -0.0490  0.2195 -0.1574
14029SOL    HW151055   8.867   2.700   1.556  1.7606  0.0072  2.8684
14029SOL    HW251056   8.855   2.847   1.590 -0.0231  0.2742  1.2360
14030SOL     OW51057   0.796   2.093   1.456 -0.4155  0.0455 -0.4722
14030SOL    HW151058   0.764   2.025   1.516 -0.1275  0.9124  0.6978
14030SOL    HW251059   0.769   2.175   1.497 -2.0378  0.6405 -2.5857
14031SOL     OW51060  10.495   7.160   3.915  0.2393  0.1782  0.9629
14031SOL    HW151061  10.413   7.164   3.865 -1.3733 -0.4564  3.3555
14031SOL    HW251062  10.491   7.237   3.973  0.9954 -0.2300  1.5705
14032SOL     OW51063   4.239   1.807  11.434  0.0116 -0.3768 -0.0394
14032SOL    HW151064   4.228   1.724  11.388 -0.5038 -0.7258  0.6831
14032SOL    HW251065   4.257   1.871  11.365  0.4381 -1.0912 -0.5981
14033SOL     OW51066   8.749   1.395   7.315  0.6799 -0.0444 -0.3825
14033SOL    HW151067   8.823   1.426   7.263  0.6343  0.9873  0.1437
14033SOL    HW251068   8.672   1.420   7.265  0.6362  0.9386  0.1433
14034SOL     OW51069   6.518   0.628   2.960  0.0178 -0.1837  0.3448
14034SOL    HW151070   6.565   0.696   2.912  0.0835 -0.2352  0.3356
14034SOL    HW251071   6.428   0.659   2.964  0.1802  0.2217  0.9262
14035SOL     OW51072   7.035  10.747  12.196  0.5627 -0.0200  0.2092
14035SOL    HW151073   7.046  10.774  12.287  0.0460  0.6653  0.0764
14035SOL    HW251074   6.948  10.708  12.192  1.1399 -1.3659  0.3046
14036SOL     OW51075   6.576  11.261   0.964  0.3966 -0.0653 -0.4371
14036SOL    HW151076   6.495  11.241   0.917 -0.0588 -0.6907  0.5746
14036SOL    HW251077   6.638  11.195   0.934  0.4802  0.2960 -1.0716
14037SOL     OW51078   2.981   7.456   2.093  0.0770 -0.0291 -0.1703
14037SOL    HW151079   2.976   7.429   2.185 -0.6029 -0.2647 -0.2698
14037SOL    HW251080   3.052   7.521   2.090  1.4435 -1.4451  0.1671
14038SOL     OW51081   8.452   0.360   1.635  0.3352 -0.3116 -0.0886
14038SOL    HW151082   8.423   0.431   1.693  1.3474  0.5705 -0.6326
14038SOL    HW251083   8.378   0.300   1.633 -0.8124  1.0495 -0.1257
14039SOL     OW51084  10.151   0.901   9.658 -0.1528 -0.6326 -0.0601
14039SOL    HW151085  10.127   0.926   9.747 -1.5496 -0.1478 -0.5455
14039SOL    HW251086  10.228   0.954   9.638 -0.3641 -0.0882  0.5403
14040SOL     OW51087   8.548  10.003  11.226  0.1101 -0.0474 -0.4667
14040SOL    HW151088   8.640  10.028  11.235 -0.1772  0.4185  2.3576
14040SOL    HW251089   8.546   9.910  11.247  0.0741 -0.4557 -2.1230
14041SOL     OW51090   6.939   4.544   5.169 -0.7585 -0.3742  0.4963
14041SOL    HW151091   7.018   4.547   5.224 -1.0062  2.2010  0.8492
14041SOL    HW251092   6.954   4.613   5.104 -2.1175 -0.8453 -0.3441
14042SOL     OW51093   0.286   5.944   0.113 -0.0473 -0.7719 -0.8949
14042SOL    HW151094   0.237   6.020   0.145 -0.4346 -0.7070 -1.6178
14042SOL    HW251095   0.340   5.916   0.187 -1.9910 -1.5213  0.3003
14043SOL     OW51096   9.280   2.582   5.271  0.0910 -0.5791 -0.7025
14043SOL    HW151097   9.199   2.603   5.318 -0.0539  0.0846 -1.2422
14043SOL    HW251098   9.254   2.515   5.208  0.0793 -0.7460 -0.5240
14044SOL     OW51099   7.220   0.066   5.015 -0.4270 -0.1688  0.1364
14044SOL    HW151100   7.225  -0.025   5.044 -1.0743 -0.4546 -0.6257
14044SOL    HW251101   7.132   0.094   5.042  0.0126  0.4606  0.9865
14045SOL     OW51102  12.535   6.828  10.771  0.5314 -0.3320  0.3995
14045SOL    HW151103  12.477   6.902  10.791 -0.1942 -1.3200  2.1445
14045SOL    HW251104  12.617   6.849  10.814  0.6270 -0.1128  0.1087
14046SOL     OW51105   7.757   8.521   9.394  0.0444 -0.1619 -0.5939
14046SOL    HW151106   7.843   8.550   9.365  0.4293 -0.3267  0.3193
14046SOL    HW251107   7.769   8.503   9.488 -0.9622 -0.2666 -0.4759
14047SOL     OW51108   8.266  12.279   4.334 -0.2714 -0.1821  0.3215
14047SOL    HW151109   8.274  12.185   4.349  0.1401 -0.3284 -0.7341
14047SOL    HW251110   8.279  12.318   4.421 -0.1822 -1.0788  0.7269
14048SOL     OW51111   7.230  11.655   0.962 -0.1129  0.5612 -0.9046
14048SOL    HW151112   7.278  11.730   0.927 -1.3328  1.7611 -0.1158
14048SOL    HW251113   7.142  11.663   0.925  0.0866 -1.3296 -1.9543
14049SOL     OW51114   6.624   9.868   0.962  0.6596 -0.4576  0.0355
14049SOL    HW151115   6.670   9.789   0.934 -0.6570 -1.2882  0.1304
14049SOL    HW251116   6.550   9.876   0.902  0.8159  0.7580 -0.0256
14050SOL     OW51117   3.121   3.941   1.959 -0.4599  0.3966 -0.3416
14050SOL    HW151118   3.149   3.871   1.900  0.0296  2.2893 -2.4926
14050SOL    HW251119   3.040   3.974   1.920 -1.4678  0.1584  1.4395
14051SOL     OW51120  12.283   8.073  11.317 -0.3840 -0.2631 -0.5462
14051SOL    HW151121  12.190   8.069  11.296 -0.0905  0.3233 -2.0487
14051SOL    HW251122  12.324   8.012  11.256  0.4387  1.0419 -1.3304
14052SOL     OW51123   3.654   8.697   7.765  0.0032 -0.6361  0.6012
14052SOL    HW151124   3.744   8.666   7.774 -0.4245 -2.1822 -0.0633
14052SOL    HW251125   3.638   8.696   7.671 -0.8027 -0.6883  0.7299
14053SOL     OW51126   0.154   6.587   7.551 -0.3612 -0.6397  0.4637
14053SOL    HW151127   0.214   6.609   7.478  1.2362 -0.8909  1.6472
14053SOL    HW251128   0.104   6.512   7.519 -1.1502  0.4868 -1.1173
14054SOL     OW51129   4.151  11.496  10.290 -0.3248 -0.2690  0.0317
14054SOL    HW151130   4.223  11.445  10.252 -0.2157  0.4800 -0.8205
14054SOL    HW251131   4.109  11.437  10.352  1.7269 -0.3785  1.4375
14055SOL     OW51132   6.375   0.416   7.159  0.0974 -0.1717 -0.1105
14055SOL    HW151133   6.318   0.493   7.154  1.1745  0.6876  0.3980
14055SOL    HW251134   6.434   0.425   7.084  1.2098  0.3174  0.8078
14056SOL     OW51135   2.617   4.898   2.207 -0.1026  0.1979 -0.0083
14056SOL    HW151136   2.664   4.815   2.218  2.3000  1.2260 -1.6368
14056SOL    HW251137   2.584   4.894   2.117 -1.7334  0.2026  0.5724
14057SOL     OW51138   5.118   1.679   7.133 -0.4476  0.0869  0.4859
14057SOL    HW151139   5.185   1.611   7.145  0.3909  0.6235 -0.8877
14057SOL    HW251140   5.168   1.760   7.126 -0.9652  0.2652 -2.8721
14058SOL     OW51141  11.527   1.831   7.623  0.8518  0.1276 -0.2695
14058SOL    HW151142  11.451   1.888   7.618  0.2319 -0.7701 -1.7495
14058SOL    HW251143  11.507   1.769   7.694  1.0981  1.0881  0.6668
14059SOL     OW51144   0.522   3.384   2.002  0.7277 -0.0497  0.1833
14059SOL    HW151145   0.478   3.393   1.917 -0.0144 -3.0155  0.1289
14059SOL    HW251146   0.471   3.439   2.061 -0.3825  0.0195 -0.7807
14060SOL     OW51147   9.625   4.763   8.931 -0.1958  0.0842  0.2673
14060SOL    HW151148   9.646   4.785   8.840  2.4313 -1.3576  0.4060
14060SOL    HW251149   9.670   4.831   8.982 -1.0439  0.4624  0.5201
14061SOL     OW51150   3.170   4.263   4.194 -0.6212 -0.4418  0.1312
14061SOL    HW151151   3.100   4.228   4.138 -0.9745 -0.0650  0.3280
14061SOL    HW251152   3.205   4.186   4.239  0.9553 -1.0499 -1.9872
14062SOL     OW51153  11.419   5.803   9.165 -0.3638 -0.3070  0.1389
14062SOL    HW151154  11.496   5.748   9.150 -0.5206 -0.0387 -1.8608
14062SOL    HW251155  11.397   5.788   9.257  0.9097 -1.8816  0.2335
14063SOL     OW51156   9.694   5.317  10.478 -0.7066 -0.1271  0.6130
14063SOL    HW151157   9.697   5.273  10.562 -1.0022  0.7123  1.0829
14063SOL    HW251158   9.662   5.405  10.498  0.4915  0.5188 -0.2004
14064SOL     OW51159   7.203   9.033   9.314  0.2525 -0.2807  0.0247
14064SOL    HW151160   7.268   9.099   9.338  0.6115  0.0351 -1.7097
14064SOL    HW251161   7.254   8.959   9.282 -0.2064 -0.4660 -0.2960
14065SOL     OW51162  11.466   5.827  12.365 -0.0898  0.3987  0.4246
14065SOL    HW151163  11.493   5.902  12.419  1.7249  0.2475 -0.2261
14065SOL    HW251164  11.443   5.759  12.429  1.2505  0.4881  1.0357
14066SOL     OW51165  12.346   6.964   7.236  0.1388  0.3812 -0.2558
14066SOL    HW151166  12.278   6.908   7.274  1.1622 -0.9415 -0.2834
14066SOL    HW251167  12.298   7.032   7.189 -1.1516  0.7137  1.4677
14067SOL     OW51168  10.319  11.891   7.194 -0.1759  0.4864  0.2486
14067SOL    HW151169  10.338  11.984   7.182 -1.5486  1.0349  1.8961
14067SOL    HW251170  10.405  11.849   7.202  0.4473  1.6386 -0.2123
14068SOL     OW51171   7.105   5.186   5.547  0.1376  0.0014 -0.0454
14068SOL    HW151172   7.086   5.276   5.573  1.7638 -0.0170  1.4035
14068SOL    HW251173   7.052   5.132   5.606 -0.4827  0.0084 -0.5979
14069SOL     OW51174   5.743   7.174  10.035 -0.7739 -0.2625 -0.2950
14069SOL    HW151175   5.791   7.218   9.965  0.1650  0.5283  0.8028
14069SOL    HW251176   5.738   7.083  10.007 -0.8676  0.1301 -1.6166
14070SOL     OW51177   7.499  11.497  11.691  0.1723 -0.3813  0.1044
14070SOL    HW151178   7.442  11.466  11.621  1.8026 -1.2452 -0.8961
14070SOL    HW251179   7.470  11.587  11.708 -1.6510 -0.8884 -0.1409
14071SOL     OW51180   1.321   6.286   1.343  0.1495 -0.3108  0.9336
14071SOL    HW151181   1.280   6.243   1.268 -1.0893 -0.4462  1.6674
14071SOL    HW251182   1.311   6.380   1.326 -0.3781 -0.3422  1.0497
14072SOL     OW51183  11.186   0.877   4.556 -0.0868 -0.5196  0.1094
14072SOL    HW151184  11.183   0.787   4.588 -2.6187  0.0408  1.7425
14072SOL    HW251185  11.149   0.872   4.468 -0.5733 -1.0408  0.3382
14073SOL     OW51186  10.185   1.586   3.094  0.1849 -0.1236  0.2189
14073SOL    HW151187  10.095   1.562   3.120 -0.2817  0.1169 -1.0899
14073SOL    HW251188  10.219   1.636   3.168 -0.8630  0.0094  0.6311
14074SOL     OW51189  11.446   9.297   7.531  0.1919 -0.1093 -0.4355
14074SOL    HW151190  11.408   9.358   7.594  0.3740  0.2303 -0.6525
14074SOL    HW251191  11.525   9.341   7.500  0.6896 -0.7472 -0.0919
14075SOL     OW51192  12.348   2.909   9.281 -0.4275  0.1347  0.4143
14075SOL    HW151193  12.339   2.885   9.373 -1.6217  0.7886  0.4933
14075SOL    HW251194  12.259   2.932   9.253 -0.4699 -1.9496 -1.4602
14076SOL     OW51195   7.589   0.704   5.362  0.1487 -0.0731  0.3583
14076SOL    HW151196   7.590   0.608   5.359  0.0343 -0.0501 -0.8573
14076SOL    HW251197   7.642   0.726   5.438 -0.2720 -1.1120  0.9736
14077SOL     OW51198   2.079   0.368  10.625 -0.0230 -0.3561  0.1532
14077SOL    HW151199   2.006   0.311  10.600  0.7870 -0.5434 -2.0629
14077SOL    HW251200   2.149   0.307  10.650  0.2104 -0.2972 -0.3294
14078SOL     OW51201   8.106   2.382   7.624  0.0223 -0.7322  0.1455
14078SOL    HW151202   8.138   2.378   7.534  1.2029  0.2535  0.4990
14078SOL    HW251203   8.044   2.454   7.624  0.4809 -0.3285  0.2392
14079SOL     OW51204   6.005   6.204  10.867  0.4669  0.2348  0.1143
14079SOL    HW151205   6.006   6.296  10.840 -1.1490  0.3424  0.3061
14079SOL    HW251206   5.916   6.190  10.901 -1.1626 -2.6160 -4.3320
14080SOL     OW51207  10.546   8.684   9.762 -0.3398  0.5232  0.1102
14080SOL    HW151208  10.602   8.731   9.700 -1.4519  1.5156 -0.1886
14080SOL    HW251209  10.595   8.605   9.784  0.6209  0.7527 -1.0881
14081SOL     OW51210   9.889   7.384   5.063 -0.2040  0.3173 -0.4563
14081SOL    HW151211   9.911   7.467   5.019 -0.2966  1.1551  1.0309
14081SOL    HW251212   9.969   7.333   5.058 -0.4045  0.0882 -2.1956
14082SOL     OW51213   2.506   5.123   4.145  0.5426 -0.3329  0.0381
14082SOL    HW151214   2.432   5.078   4.106  0.0504 -0.6921  1.3307
14082SOL    HW251215   2.583   5.082   4.106  0.0771 -0.1893 -1.0610
14083SOL     OW51216   4.520   1.726  10.760 -0.3860 -0.7525  0.3768
14083SOL    HW151217   4.470   1.735  10.679  0.6766  0.1679 -0.1952
14083SOL    HW251218   4.598   1.677  10.735 -0.0669 -0.4932  0.8547
14084SOL     OW51219   4.381  12.113   6.685 -0.3121 -0.4658 -0.6230
14084SOL    HW151220   4.323  12.059   6.739 -1.7485  0.8492 -0.7818
14084SOL    HW251221   4.361  12.087   6.595 -1.4235  0.6619 -0.7325
14085SOL     OW51222   2.283  10.188   3.580 -0.0011  0.2667 -0.0389
14085SOL    HW151223   2.188  10.188   3.573  0.0059  1.8241 -0.6157
14085SOL    HW251224   2.309  10.097   3.563 -1.4358 -0.4474  1.3864
14086SOL     OW51225  11.524   3.815  12.177 -0.3404 -0.0865 -0.3395
14086SOL    HW151226  11.575   3.812  12.097 -1.5576 -1.2479 -1.1063
14086SOL    HW251227  11.476   3.732  12.179 -0.9019  0.2322  1.2090
14087SOL     OW51228  10.053   9.341   4.601  0.2732 -0.4835 -0.0101
14087SOL    HW151229   9.999   9.415   4.629  0.7297  0.1663 -0.8210
14087SOL    HW251230  10.138   9.355   4.644  0.2359 -0.7549  0.1567
14088SOL     OW51231   8.237   4.877   4.290 -0.1913 -0.1778 -0.1962
14088SOL    HW151232   8.268   4.966   4.274 -0.3721  0.0248  0.5210
14088SOL    HW251233   8.178   4.886   4.365 -2.4359 -0.4359 -1.8217
14089SOL     OW51234  10.975   4.827  10.704  0.1302  0.3631 -0.5088
14089SOL    HW151235  11.022   4.901  10.741 -0.1232 -0.0901  0.7593
14089SOL    HW251236  10.883   4.844  10.723 -0.1924  0.8323 -2.2464
14090SOL     OW51237   7.809   4.576   5.582  0.2244 -0.2371  0.3544
14090SOL    HW151238   7.771   4.597   5.497 -1.6158  1.4713  1.5217
14090SOL    HW251239   7.902   4.561   5.563 -0.0989  0.2067 -1.9126
14091SOL     OW51240   6.522   3.031   1.556 -0.1198  0.2963  0.1157
14091SOL    HW151241   6.518   3.111   1.504  0.3702  0.8998  0.9748
14091SOL    HW251242   6.588   3.050   1.623 -1.3846 -0.1164  1.5158
14092SOL     OW51243   4.636   1.326   4.604  0.2157  0.5633 -0.6830
14092SOL    HW151244   4.583   1.394   4.646 -0.7572 -1.0381  0.8053
14092SOL    HW251245   4.580   1.291   4.536 -0.3727 -0.5545  0.3381
14093SOL     OW51246   4.944   2.647   4.218 -0.4222  0.2113  0.4514
14093SOL    HW151247   4.850   2.646   4.235 -0.6661 -0.3625 -0.8328
14093SOL    HW251248   4.979   2.577   4.273 -0.7367  0.4317  0.9399
14094SOL     OW51249   7.751   6.182   8.131 -0.4875 -0.0175 -0.3283
14094SOL    HW151250   7.847   6.184   8.129 -0.4978  1.1248 -1.6702
14094SOL    HW251251   7.725   6.271   8.106 -1.8847 -0.4812 -0.6079
14095SOL     OW51252   1.914   8.831   7.373  0.1525  0.4157  0.0305
14095SOL    HW151253   1.867   8.913   7.386 -1.6975 -0.5431 -0.2375
14095SOL    HW251254   1.885   8.800   7.287  0.6672 -0.6042  0.2073
14096SOL     OW51255   0.622   5.947   0.137  0.4976  0.1275 -0.2956
14096SOL    HW151256   0.621   6.010   0.210  1.2615  0.8366 -0.8804
14096SOL    HW251257   0.585   5.867   0.175  2.3412 -0.0319  1.3580
14097SOL     OW51258   9.530   5.518   3.561 -0.1571 -0.3860 -0.0037
14097SOL    HW151259   9.595   5.543   3.627  2.3485 -1.4772 -1.9166
14097SOL    HW251260   9.580   5.506   3.481 -2.8484 -0.7472 -1.7537
14098SOL     OW51261   0.400   3.618  12.524 -0.3443  0.2297  0.2263
14098SOL    HW151262   0.351   3.574  12.454 -0.1794  0.8667 -0.2976
14098SOL    HW251263   0.336   3.676  12.565 -0.1651  0.6650 -0.1090
14099SOL     OW51264   6.936   8.769   8.743  0.0552  0.1802  0.1349
14099SOL    HW151265   6.930   8.776   8.648  1.5273 -1.7681 -0.1640
14099SOL    HW251266   6.863   8.712   8.767 -0.5807  1.0239  0.2570
14100SOL     OW51267  11.136   7.034   6.119  0.1837  0.0192  0.5004
14100SOL    HW151268  11.049   7.071   6.108  1.0789  1.8221 -1.1845
14100SOL    HW251269  11.179   7.092   6.182  0.8045  0.4206 -0.2712
14101SOL     OW51270   1.221  11.989  11.740  0.0956  0.0266  0.0973
14101SOL    HW151271   1.216  12.077  11.702  1.0075 -0.6547 -1.7091
14101SOL    HW251272   1.312  11.963  11.730 -0.2124 -1.2300  0.3685
14102SOL     OW51273   5.519   8.013   5.777  0.1981  0.2400 -0.2178
14102SOL    HW151274   5.580   8.039   5.846  0.1190 -0.2478  0.0403
14102SOL    HW251275   5.542   7.923   5.756  0.5475  0.5513 -1.1953
14103SOL     OW51276   8.513   0.621   5.366 -0.0329 -0.0569 -0.5483
14103SOL    HW151277   8.529   0.527   5.376  0.0854 -0.3324 -2.6875
14103SOL    HW251278   8.525   0.636   5.272 -0.1614  2.0875 -0.2533
14104SOL     OW51279   0.666  11.360   0.396  0.2376 -0.2747  0.3234
14104SOL    HW151280   0.582  11.377   0.440  0.2106  0.5134 -0.0058
14104SOL    HW251281   0.641  11.334   0.307  0.2992 -1.6513  0.6936
14105SOL     OW51282   9.129   2.982   9.856  0.2001  0.4697 -0.0751
14105SOL    HW151283   9.063   3.038   9.816 -0.8005 -0.6570 -0.0707
14105SOL    HW251284   9.111   2.986   9.949 -1.4484 -1.6212 -0.1969
14106SOL     OW51285   8.339   0.391   8.576  0.2516  0.1484  0.2312
14106SOL    HW151286   8.394   0.462   8.543  1.5082 -1.5827 -1.6105
14106SOL    HW251287   8.338   0.326   8.506 -1.5404 -1.3052  1.5011
14107SOL     OW51288   6.488  10.744   5.186 -0.2463  0.4701  0.2347
14107SOL    HW151289   6.554  10.813   5.173 -1.7144  2.0399  0.7465
14107SOL    HW251290   6.514  10.675   5.125  1.3848  1.3838 -0.1848
14108SOL     OW51291   7.734   4.076   0.571 -1.1325  0.2003 -0.0558
14108SOL    HW151292   7.828   4.073   0.555 -1.3168 -2.3366 -1.0822
14108SOL    HW251293   7.726   4.108   0.662  0.6292  1.1743 -0.2036
14109SOL     OW51294  11.310   6.459  11.511  0.4090  0.4819  0.2619
14109SOL    HW151295  11.384   6.506  11.550  0.0953  1.0711  0.1651
14109SOL    HW251296  11.236   6.480  11.568  0.4856 -0.8439  0.8856
14110SOL     OW51297   8.765   0.613   1.208  0.1171 -0.2504 -0.1457
14110SOL    HW151298   8.835   0.610   1.273  1.0331 -1.3124 -1.1502
14110SOL    HW251299   8.806   0.648   1.129 -0.5096 -0.7418 -0.6995
14111SOL     OW51300   7.363  11.149   6.362 -0.4981  0.0881  0.2705
14111SOL    HW151301   7.358  11.237   6.400  1.1782 -0.0639  0.9551
14111SOL    HW251302   7.324  11.092   6.429  0.7507  0.0466  1.0092
14112SOL     OW51303   9.765  10.404   0.957 -0.3475  0.2469 -0.0042
14112SOL    HW151304   9.715  10.480   0.989 -1.0481 -0.2640  0.1280
14112SOL    HW251305   9.855  10.435   0.955 -0.7315  1.3950 -0.8547
14113SOL     OW51306   7.809   6.143   8.917 -0.2972  0.0047  0.0265
14113SOL    HW151307   7.841   6.078   8.855 -1.9310 -1.5654  0.7126
14113SOL    HW251308   7.846   6.117   9.001 -0.1557  0.5676  0.1412
14114SOL     OW51309   6.754   2.720   9.183  0.6285 -0.3438 -0.3358
14114SOL    HW151310   6.808   2.710   9.261 -0.2261  0.5789  0.4022
14114SOL    HW251311   6.705   2.638   9.177 -0.4767  0.1663  1.0506
14115SOL     OW51312   2.465  10.707   0.402 -0.2383 -0.5760 -0.0175
14115SOL    HW151313   2.400  10.700   0.332 -0.3911 -0.8693  0.1503
14115SOL    HW251314   2.415  10.728   0.481 -0.2226 -1.5113  0.2542
14116SOL     OW51315   2.693   1.481   2.320 -0.1943  0.2578 -0.1168
14116SOL    HW151316   2.771   1.443   2.361 -1.1411 -1.0944  0.5299
14116SOL    HW251317   2.686   1.436   2.236  0.0127  0.7702 -0.4124
14117SOL     OW51318   4.295   9.697  11.723  0.4706 -0.1363  0.1726
14117SOL    HW151319   4.358   9.680  11.653 -0.5206 -2.7003 -0.2193
14117SOL    HW251320   4.216   9.726  11.677  1.1894  2.9212  0.6509
14118SOL     OW51321   7.059   8.969   4.829  0.0001 -0.4860  0.1444
14118SOL    HW151322   7.073   8.874   4.829 -3.6652 -1.1886  1.4750
14118SOL    HW251323   7.003   8.985   4.905  0.4420  2.7976 -0.0662
14119SOL     OW51324   3.449   5.998   2.467  0.0523  0.6970  0.3202
14119SOL    HW151325   3.470   5.925   2.525  0.4079 -0.2934 -1.0133
14119SOL    HW251326   3.532   6.045   2.456  0.7148 -0.8004 -1.6321
14120SOL     OW51327   0.268  11.329   0.763 -0.0529  0.1949 -0.0879
14120SOL    HW151328   0.334  11.265   0.736  0.0313 -0.2989  1.2312
14120SOL    HW251329   0.254  11.382   0.685  2.1451  0.5306 -0.3136
14121SOL     OW51330   4.001   1.192   7.214  0.2001 -0.5959  0.2221
14121SOL    HW151331   3.957   1.275   7.193  0.7987 -0.1965  0.5064
14121SOL    HW251332   3.984   1.179   7.307  0.6907 -0.4309  0.3361
14122SOL     OW51333  12.278  12.236   9.989  0.3217  0.3641 -0.5080
14122SOL    HW151334  12.318  12.314   9.952 -0.0095  0.0742 -1.5202
14122SOL    HW251335  12.257  12.181   9.913  1.1256 -0.9993  0.2155
14123SOL     OW51336  11.240   0.543   3.552 -0.1434 -0.0503 -0.3621
14123SOL    HW151337  11.210   0.472   3.608  0.4828 -1.1644 -1.3831
14123SOL    HW251338  11.161   0.573   3.507 -0.8112  1.4508  1.7032
14124SOL     OW51339   8.117   0.528  12.273 -0.1122  0.5564 -0.0525
14124SOL    HW151340   8.150   0.514  12.184 -0.1425  0.8122 -0.1049
14124SOL    HW251341   8.031   0.568  12.260 -0.5418 -0.2922  0.0745
14125SOL     OW51342   2.359  12.304   3.552 -0.6091 -0.6101  0.0443
14125SOL    HW151343   2.282  12.332   3.503 -2.1515 -1.7755  1.6547
14125SOL    HW251344   2.357  12.208   3.547 -0.4106 -0.7408  1.6665
14126SOL     OW51345   1.154   0.421   4.879 -0.8195 -0.2450  0.3105
14126SOL    HW151346   1.126   0.345   4.828 -1.0217  1.3576 -2.1425
14126SOL    HW251347   1.083   0.484   4.868  0.9223  1.6264 -0.8669
14127SOL     OW51348   4.003   9.552   9.161  0.1311  0.6215  0.0411
14127SOL    HW151349   3.948   9.616   9.115 -0.0247  1.5714  1.4916
14127SOL    HW251350   4.037   9.496   9.091  0.3034  2.3006 -1.2968
14128SOL     OW51351  11.597   2.095   2.954 -0.1874  0.3654 -0.4583
14128SOL    HW151352  11.688   2.091   2.983 -0.7547 -0.8967  1.3379
14128SOL    HW251353  11.546   2.071   3.032 -2.2612  3.7904 -0.5758
14129SOL     OW51354   1.141  10.089   5.785 -0.3507  0.5436  0.3271
14129SOL    HW151355   1.051  10.121   5.777 -0.0583  1.3303  0.1121
14129SOL    HW251356   1.163  10.103   5.878 -1.5642 -2.7286  1.2339
14130SOL     OW51357  11.734   3.850   4.571 -0.0548 -0.2793 -0.4038
14130SOL    HW151358  11.735   3.927   4.629  1.2704 -0.7945  0.3028
14130SOL    HW251359  11.645   3.815   4.579 -0.6899  1.1850 -0.7609
14131SOL     OW51360  12.176   6.778   0.735  0.1810 -0.0899  0.5697
14131SOL    HW151361  12.084   6.772   0.763 -0.5525  0.7707 -1.4543
14131SOL    HW251362  12.202   6.686   0.723 -0.5287 -0.3425  0.8623
14132SOL     OW51363   6.625   9.988   9.903  0.7168 -0.6900  0.2682
14132SOL    HW151364   6.535  10.018   9.902  0.9664  0.6549  3.4069
14132SOL    HW251365   6.621   9.896   9.879 -1.2977 -0.3709 -0.7705
14133SOL     OW51366   7.486   2.963   0.075 -0.6026 -0.4636  0.1110
14133SOL    HW151367   7.554   2.963   0.008 -0.8477  0.1694 -0.1443
14133SOL    HW251368   7.411   3.006   0.033 -0.5268  0.5945  1.0039
14134SOL     OW51369   2.457  11.367   0.309  0.7561  0.2065  0.2865
14134SOL    HW151370   2.544  11.355   0.270  1.0739 -0.4309  1.1617
14134SOL    HW251371   2.404  11.402   0.238  1.5195 -0.1925 -0.5038
14135SOL     OW51372   3.178   7.532   9.909  0.3975  0.6758 -0.5495
14135SOL    HW151373   3.229   7.462   9.868  0.5171  1.2789 -1.4569
14135SOL    HW251374   3.087   7.507   9.893  0.3746 -0.4269  1.1146
14136SOL     OW51375   0.623   2.720  12.551  0.1184 -0.2059  0.0399
14136SOL    HW151376   0.669   2.705  12.633  0.8481 -0.0173 -0.3222
14136SOL    HW251377   0.596   2.632  12.522 -2.4254 -0.0662  1.7290
14137SOL     OW51378   4.554   6.372   5.506  0.4900 -0.0924 -0.2548
14137SOL    HW151379   4.477   6.425   5.488 -0.3392 -1.3714 -0.6237
14137SOL    HW251380   4.574   6.390   5.598  0.2669  0.8780 -0.3820
14138SOL     OW51381  11.195   5.311  11.161  0.1446  0.6208  0.1666
14138SOL    HW151382  11.198   5.275  11.072  0.2820  0.8311  0.0832
14138SOL    HW251383  11.132   5.256  11.207 -0.3164  0.8348 -0.2059
14139SOL     OW51384   0.213   0.932   8.421 -0.0515  0.4134  0.3072
14139SOL    HW151385   0.232   0.940   8.515  1.7976 -0.9511  0.1195
14139SOL    HW251386   0.135   0.985   8.407 -0.4089  0.5926  2.6313
14140SOL     OW51387  11.857   0.134  12.353 -0.0154 -0.0076  0.0556
14140SOL    HW151388  11.837   0.221  12.320  0.0776  0.8247  2.0352
14140SOL    HW251389  11.951   0.124  12.339 -0.2526 -0.3887 -1.4220
14141SOL     OW51390  10.281  10.476   1.178 -0.4852  0.0753  0.2088
14141SOL    HW151391  10.360  10.431   1.149 -1.1388  0.0873 -1.7422
14141SOL    HW251392  10.252  10.427   1.254 -0.5165 -2.1323 -1.1382
14142SOL     OW51393   4.435   7.554   0.614 -0.1055  0.0170  0.3382
14142SOL    HW151394   4.459   7.598   0.695  3.7141 -1.2637  0.0718
14142SOL    HW251395   4.411   7.466   0.640  0.7952 -0.2942  0.1555
14143SOL     OW51396   8.351   9.294   7.364 -0.7000  0.1145 -0.1673
14143SOL    HW151397   8.268   9.271   7.406 -0.8912 -0.7730 -0.9986
14143SOL    HW251398   8.416   9.288   7.434 -1.1375 -0.5098  0.1943
14144SOL     OW51399  10.209   6.139   1.183 -0.6670  0.2110 -0.1061
14144SOL    HW151400  10.217   6.086   1.263  0.0238  1.1225  0.4537
14144SOL    HW251401  10.116   6.139   1.163 -0.5380 -2.6703 -1.1582
14145SOL     OW51402   5.156  10.378   1.923 -0.0956 -0.3068  0.2707
14145SOL    HW151403   5.148  10.468   1.953 -0.1287 -0.0297 -0.5740
14145SOL    HW251404   5.222  10.380   1.854 -2.2587 -0.3889 -1.9111
14146SOL     OW51405   5.107   9.600   4.351  0.0492  0.3512 -0.1600
14146SOL    HW151406   5.059   9.590   4.269  1.7900 -1.1862 -1.0615
14146SOL    HW251407   5.060   9.544   4.413 -0.1314 -0.0152 -0.6236
14147SOL     OW51408   5.734  10.005   1.985 -0.1799 -0.0829  0.7995
14147SOL    HW151409   5.707   9.934   1.926 -0.8760 -0.3977  1.4817
14147SOL    HW251410   5.824   9.982   2.010 -0.6402 -1.1083  1.5635
14148SOL     OW51411   3.442   2.377   8.889  0.5420 -0.2595  0.3855
14148SOL    HW151412   3.518   2.331   8.854  1.0711  0.3179  0.7488
14148SOL    HW251413   3.421   2.332   8.970 -0.6190 -1.5334 -0.5741
14149SOL     OW51414   7.447  11.753   4.818  0.3889  0.5744  0.7995
14149SOL    HW151415   7.393  11.785   4.746 -0.5798  1.5179  1.9044
14149SOL    HW251416   7.520  11.814   4.822 -0.2532  1.3180  1.4395
14150SOL     OW51417  11.053   7.920   3.922  0.2316  0.0877  0.1023
14150SOL    HW151418  11.127   7.900   3.864  0.5153  0.3417  0.3684
14150SOL    HW251419  11.054   7.851   3.987  0.6990  0.4983  0.5398
14151SOL     OW51420   1.056   0.866   4.803 -0.3817 -0.0893 -0.2393
14151SOL    HW151421   1.075   0.958   4.783  1.0879 -0.5819 -1.2697
14151SOL    HW251422   1.095   0.817   4.731 -1.1005 -1.5432  0.3167
14152SOL     OW51423  10.192   9.122   6.132  0.8058  0.7704  0.0867
14152SOL    HW151424  10.236   9.084   6.208  0.8287  0.0834 -0.2671
14152SOL    HW251425  10.120   9.173   6.170  0.3621 -0.1651  0.5374
14153SOL     OW51426   7.130   4.463   1.642  0.1247 -0.1952  0.0834
14153SOL    HW151427   7.205   4.408   1.619  0.7676  0.4980  0.4615
14153SOL    HW251428   7.104   4.504   1.559  0.6027  0.0847  0.0689
14154SOL     OW51429  10.974   3.655   6.990 -0.4833  0.0337 -0.3489
14154SOL    HW151430  10.936   3.743   6.989 -0.0215  0.2473  0.2714
14154SOL    HW251431  10.910   3.601   6.946 -1.3035  0.4739  0.2800
14155SOL     OW51432   5.800  11.604   3.076 -0.6101  0.4481  0.3194
14155SOL    HW151433   5.860  11.643   3.013 -0.3671  1.2003  1.0011
14155SOL    HW251434   5.791  11.513   3.047 -0.9284  0.9138 -1.1054
14156SOL     OW51435  11.988   7.213   2.253 -0.0451 -0.2430  0.1408
14156SOL    HW151436  12.063   7.176   2.206 -1.4901 -1.3528 -1.4151
14156SOL    HW251437  11.943   7.267   2.187 -2.2917 -2.0830  0.0589
14157SOL     OW51438  11.914   5.780   6.405 -0.1052 -0.5047  0.0044
14157SOL    HW151439  11.836   5.826   6.437  0.1096 -0.5913  0.6787
14157SOL    HW251440  11.986   5.838   6.429 -0.0795  0.6476 -2.5486
14158SOL     OW51441   1.523   1.595   3.851  0.6606 -0.0951 -0.0448
14158SOL    HW151442   1.514   1.545   3.770  1.5892  0.4289 -0.4889
14158SOL    HW251443   1.595   1.552   3.898  0.8390  0.2569  0.0051
14159SOL     OW51444   7.016   1.003   6.633 -0.6044  0.2077  0.1784
14159SOL    HW151445   7.034   0.999   6.540  0.2781 -1.0863  0.3843
14159SOL    HW251446   7.050   1.089   6.660 -1.7522  1.0070 -0.8335
14160SOL     OW51447   0.512   8.057   4.585 -0.4643 -0.1337  1.1152
14160SOL    HW151448   0.461   8.020   4.513  1.0197 -0.3346  0.1297
14160SOL    HW251449   0.601   8.063   4.551 -0.2480  2.4487  1.9575
14161SOL     OW51450   9.775   2.625  12.188 -0.2196 -0.3270  0.1002
14161SOL    HW151451   9.781   2.616  12.093  0.1842  0.6534  0.0136
14161SOL    HW251452   9.744   2.715  12.201 -0.8955 -0.6665  0.8846
14162SOL     OW51453  11.086  11.305   0.129 -0.0347  0.5400  0.4032
14162SOL    HW151454  11.061  11.354   0.051 -0.1472  1.1339  0.8054
14162SOL    HW251455  11.176  11.277   0.111  0.3417  1.6139  0.4953
14163SOL     OW51456  12.539   9.691   4.076 -0.3862 -0.2081  0.0832
14163SOL    HW151457  12.451   9.694   4.039 -0.4077 -0.6769  0.0932
14163SOL    HW251458  12.526   9.692   4.170 -0.3704 -0.0463  0.0841
14164SOL     OW51459   2.457   1.096  11.035  0.5164  0.4400 -0.8760
14164SOL    HW151460   2.438   1.169  11.094  1.8954 -0.1146  0.3332
14164SOL    HW251461   2.540   1.119  10.993  2.0743 -1.2141  1.0459
14165SOL     OW51462   7.779   7.088   6.908 -0.1994  0.2167 -0.0683
14165SOL    HW151463   7.687   7.095   6.930 -0.3274  0.2280 -0.5935
14165SOL    HW251464   7.781   7.085   6.813  0.1712 -1.8964 -0.0565
14166SOL     OW51465   6.982   5.682  11.224  0.1452  0.6925  0.1053
14166SOL    HW151466   6.992   5.762  11.173  0.6035  1.5862  1.5272
14166SOL    HW251467   7.058   5.629  11.200  0.1094  0.8941 -0.4686
14167SOL     OW51468   6.514   1.789   2.374 -0.4768 -0.0629 -0.4524
14167SOL    HW151469   6.548   1.877   2.363  0.4176 -0.1055  1.4468
14167SOL    HW251470   6.421   1.801   2.393 -0.6914  0.3476 -1.7208
14168SOL     OW51471   3.554  10.219   6.541 -0.0449 -0.0444 -0.0498
14168SOL    HW151472   3.610  10.284   6.583  0.7072 -0.4104 -0.4659
14168SOL    HW251473   3.465  10.244   6.566  0.2261  1.2013 -0.2827
14169SOL     OW51474   0.249   5.051   9.522 -0.5524  0.1505 -0.0251
14169SOL    HW151475   0.258   4.995   9.445  1.9778 -0.1149  0.4117
14169SOL    HW251476   0.307   5.125   9.504  1.5999 -0.8297  2.3883
14170SOL     OW51477   4.697   1.423   6.586  0.5088  0.8973 -0.0083
14170SOL    HW151478   4.739   1.369   6.653 -1.1547 -1.1403 -0.5052
14170SOL    HW251479   4.770   1.462   6.538  1.8867 -1.5254 -0.0832
14171SOL     OW51480  10.705   2.289   2.701  0.3807 -0.5519  0.0986
14171SOL    HW151481  10.684   2.302   2.608  0.7171 -0.1193  0.0762
14171SOL    HW251482  10.641   2.226   2.732 -0.3793  0.0587 -0.1875
14172SOL     OW51483  10.047  11.617   7.945 -0.1311 -0.0192  0.5541
14172SOL    HW151484   9.964  11.625   7.898  0.3544  1.3616 -0.1205
14172SOL    HW251485  10.108  11.671   7.895  1.4610 -1.8211  0.4549
14173SOL     OW51486  10.892   8.520   4.286 -0.4130  0.3890  0.2619
14173SOL    HW151487  10.841   8.552   4.361  1.3933  2.4606  0.7156
14173SOL    HW251488  10.977   8.497   4.323 -0.3841 -1.3206 -0.7548
14174SOL     OW51489   1.698   2.456  11.582 -0.7772  0.2866  0.2784
14174SOL    HW151490   1.778   2.416  11.614  0.9442  2.6606 -0.7880
14174SOL    HW251491   1.684   2.415  11.496 -0.7256 -0.1371  0.4686
14175SOL     OW51492   9.523   9.279   8.130  0.5480 -0.3137 -0.2618
14175SOL    HW151493   9.487   9.221   8.063 -1.0503  1.2124 -0.8147
14175SOL    HW251494   9.456   9.283   8.198 -0.3453  2.3813 -1.1831
14176SOL     OW51495   8.694   5.018   5.908 -0.0520 -0.6383  0.3106
14176SOL    HW151496   8.745   5.005   5.988 -1.5270  1.4263  1.6910
14176SOL    HW251497   8.753   4.993   5.837  1.3092 -2.5361  2.0050
14177SOL     OW51498   1.710   5.765   6.487 -0.6037 -0.1466  0.1498
14177SOL    HW151499   1.620   5.799   6.487 -0.5367  0.0305  0.0856
14177SOL    HW251500   1.765   5.843   6.487 -0.4396 -0.2458  1.5168
14178SOL     OW51501   9.552  11.594   2.265 -0.6909 -0.1228 -0.1687
14178SOL    HW151502   9.586  11.626   2.182 -0.3013  0.9571  0.3919
14178SOL    HW251503   9.488  11.527   2.240 -0.5627  0.1630 -1.3301
14179SOL     OW51504   1.047   4.922   8.424 -0.6635 -0.2311 -1.2523
14179SOL    HW151505   0.955   4.899   8.432 -0.5151 -0.3076  0.6208
14179SOL    HW251506   1.094   4.848   8.461  0.1984 -0.3525 -2.5103
14180SOL     OW51507   1.557   8.571   1.665  0.1189 -0.0183 -0.2788
14180SOL    HW151508   1.565   8.644   1.726  1.4947 -0.7455  0.4487
14180SOL    HW251509   1.550   8.613   1.579  0.8889  0.9707  0.1201
14181SOL     OW51510   1.144   9.735  11.097  0.0337 -0.1129  0.2192
14181SOL    HW151511   1.117   9.673  11.030 -0.4386  1.3530 -0.9945
14181SOL    HW251512   1.240   9.736  11.092 -0.0096  0.2733 -0.7359
14182SOL     OW51513   7.759   3.417   5.880 -0.4419 -0.0945  0.2974
14182SOL    HW151514   7.813   3.360   5.826  1.0102  1.0836  0.4342
14182SOL    HW251515   7.687   3.443   5.822  0.0870 -0.3084 -0.4739
14183SOL     OW51516   0.810   7.020   9.419 -0.1489 -0.9454 -0.5439
14183SOL    HW151517   0.840   6.938   9.457  2.1029 -0.8098 -1.8362
14183SOL    HW251518   0.718   7.004   9.395 -0.2944 -2.4294  0.8901
14184SOL     OW51519  12.266   5.950  12.263 -0.2474 -1.1438 -0.0828
14184SOL    HW151520  12.315   5.904  12.331  1.0028 -0.8628 -0.7643
14184SOL    HW251521  12.175   5.949  12.294  0.1123 -2.0567  1.0028
14185SOL     OW51522   9.271  11.948   6.434  0.4736  0.1144  0.4943
14185SOL    HW151523   9.347  11.988   6.392 -0.3936 -0.1418 -1.4292
14185SOL    HW251524   9.200  12.011   6.419 -0.6674 -1.5255 -1.6631
14186SOL     OW51525   8.799   2.579   5.795 -0.2704 -0.5537 -0.0950
14186SOL    HW151526   8.828   2.549   5.880 -0.7958 -1.5241 -0.2456
14186SOL    HW251527   8.742   2.509   5.762  0.6877 -0.6513 -1.6595
14187SOL     OW51528   7.236   5.965   4.802 -0.3683  0.4519  1.0051
14187SOL    HW151529   7.196   5.880   4.783  3.5807 -1.4669  0.2979
14187SOL    HW251530   7.249   5.965   4.897  0.4991 -0.1856  0.8902
14188SOL     OW51531   2.062  11.713   1.762 -0.4144 -0.4060  0.2576
14188SOL    HW151532   2.043  11.619   1.772 -0.9574 -0.1537  1.9586
14188SOL    HW251533   2.027  11.752   1.842  2.0022  0.9306  0.7448
14189SOL     OW51534   6.642   9.364   5.105 -0.4422 -0.0716  0.4272
14189SOL    HW151535   6.560   9.317   5.088 -0.4900  0.6240 -1.6496
14189SOL    HW251536   6.614   9.455   5.117  0.0738  0.3752 -1.4882
14190SOL     OW51537   8.598   9.367  10.831  0.6287  0.4631 -0.3379
14190SOL    HW151538   8.558   9.453  10.840 -1.6087 -0.4399 -0.9618
14190SOL    HW251539   8.535   9.306  10.871  1.6779 -0.9835 -0.7873
14191SOL     OW51540  12.262   0.054   8.231  0.0101  0.5728 -0.2755
14191SOL    HW151541  12.183   0.058   8.177  0.4972 -0.1109 -1.0642
14191SOL    HW251542  12.315   0.128   8.201  0.3315  0.1252 -0.8394
14192SOL     OW51543   3.490  12.290   8.488 -0.1314 -0.4081 -0.4526
14192SOL    HW151544   3.578  12.324   8.506 -0.5780  0.6319 -0.1736
14192SOL    HW251545   3.505  12.213   8.434  1.0980 -1.7360  1.6225
14193SOL     OW51546  11.060   7.001   8.371 -0.5546  0.9250 -0.3521
14193SOL    HW151547  11.083   6.919   8.415 -0.3407  1.2385  0.1426
14193SOL    HW251548  11.015   6.975   8.291 -1.1474  0.3342  0.1670
14194SOL     OW51549   5.805  12.215   1.318 -0.1571 -0.0978 -0.3327
14194SOL    HW151550   5.788  12.149   1.250 -0.1969  0.4286 -0.8501
14194SOL    HW251551   5.894  12.246   1.299 -0.2001  0.1078 -0.2012
14195SOL     OW51552   7.695  10.563   4.791 -0.5020 -0.4610 -0.1670
14195SOL    HW151553   7.711  10.476   4.827 -2.1087 -1.0965 -0.8841
14195SOL    HW251554   7.658  10.547   4.704  0.1533  0.9693 -0.7414
14196SOL     OW51555  10.363   0.731  11.428  0.0096  0.1281  0.0671
14196SOL    HW151556  10.302   0.722  11.501  0.1469 -1.3073  0.0432
14196SOL    HW251557  10.322   0.795  11.370 -0.8786  0.0941  0.6383
14197SOL     OW51558   7.353   8.312   4.481  0.5340  0.2914  0.1912
14197SOL    HW151559   7.397   8.336   4.399  1.3896 -1.4133  0.1195
14197SOL    HW251560   7.302   8.234   4.459  0.7610 -0.1756  1.2936
14198SOL     OW51561   5.082   6.761   5.241  0.0565  0.8289  0.0214
14198SOL    HW151562   5.156   6.766   5.300  0.4496  0.3802 -0.4204
14198SOL    HW251563   5.020   6.826   5.274  0.1761  0.4389  1.0378
14199SOL     OW51564   2.055   0.159   5.903 -0.1466 -0.0868  1.1059
14199SOL    HW151565   2.090   0.224   5.964  2.8098 -2.8181  2.6347
14199SOL    HW251566   2.133   0.119   5.864 -1.9006  0.2100 -3.1862
14200SOL     OW51567   1.728   3.875   6.570 -0.0346 -0.2595  0.0637
14200SOL    HW151568   1.709   3.899   6.479 -0.4332 -0.7739  0.0105
14200SOL    HW251569   1.753   3.958   6.612  0.5882 -0.0974 -0.6210
14201SOL     OW51570   7.757   7.237  11.467 -0.3720 -0.0610 -0.3299
14201SOL    HW151571   7.818   7.174  11.428 -1.2275 -1.2081  0.1240
14201SOL    HW251572   7.765   7.223  11.561  0.3322  1.4056 -0.1513
14202SOL     OW51573   1.934  12.167   5.503 -0.4253 -1.0621 -0.1052
14202SOL    HW151574   1.941  12.126   5.589 -2.1913  0.7615  0.9940
14202SOL    HW251575   1.998  12.238   5.506 -0.3595 -1.1081 -0.3791
14203SOL     OW51576   8.264   4.790  11.874 -0.2175  0.5241 -0.2256
14203SOL    HW151577   8.294   4.729  11.942 -1.4091  1.3975  1.1540
14203SOL    HW251578   8.228   4.865  11.923 -0.3516  1.5682 -1.8417
14204SOL     OW51579   8.796   2.514   6.079  0.1896  0.1239  0.1684
14204SOL    HW151580   8.806   2.444   6.143  0.6311 -0.4215 -0.4793
14204SOL    HW251581   8.775   2.592   6.131  0.4834 -0.3200  0.9668
14205SOL     OW51582   2.231   0.955   5.236  0.1695  0.2660 -0.0642
14205SOL    HW151583   2.287   0.911   5.300 -0.3879 -0.1570  0.1386
14205SOL    HW251584   2.277   1.036   5.216 -0.1394  0.9198  1.6736
14206SOL     OW51585   9.388   3.603   7.176 -0.7169  0.8212  0.2255
14206SOL    HW151586   9.470   3.556   7.163 -0.8814  0.9350 -1.3675
14206SOL    HW251587   9.409   3.694   7.154 -0.9167  1.1376  1.2750
14207SOL     OW51588   4.320   4.984  10.175 -0.0333 -0.3328  0.5570
14207SOL    HW151589   4.379   5.059  10.164 -1.5525  0.7964 -0.1234
14207SOL    HW251590   4.322   4.967  10.270  1.5380 -0.4867  0.5369
14208SOL     OW51591  10.416   4.228   2.135  0.6980 -0.2757 -0.5664
14208SOL    HW151592  10.364   4.305   2.161  0.7141  0.6673 -2.9923
14208SOL    HW251593  10.506   4.253   2.153  0.5412 -0.6861  0.8297
14209SOL     OW51594   5.526   0.631   7.897  0.0777 -0.0223 -0.5265
14209SOL    HW151595   5.613   0.631   7.938 -0.6799  0.0429  1.1205
14209SOL    HW251596   5.499   0.723   7.896  0.2874  0.0485 -1.6750
14210SOL     OW51597   7.280   7.581   9.329  0.1827 -0.5522  0.2965
14210SOL    HW151598   7.358   7.553   9.281 -0.7956  0.2345 -1.9054
14210SOL    HW251599   7.305   7.663   9.371  1.1817 -1.4603  1.5470
14211SOL     OW51600   7.750  11.811   1.951  0.4562 -0.3260 -0.5870
14211SOL    HW151601   7.667  11.845   1.917  0.1705 -0.8529 -0.4235
14211SOL    HW251602   7.806  11.889   1.959  0.1020 -0.0164 -1.0411
14212SOL     OW51603   8.792   5.786   3.390 -0.4395 -0.0853 -0.5029
14212SOL    HW151604   8.754   5.714   3.340  0.3231  0.5229 -2.0200
14212SOL    HW251605   8.720   5.847   3.405 -1.1809 -1.2758  1.1154
14213SOL     OW51606   5.575   7.170  11.680 -0.0523  0.4943 -0.5163
14213SOL    HW151607   5.554   7.077  11.689 -1.9069  0.8074 -1.0823
14213SOL    HW251608   5.649   7.173  11.620  1.3460 -0.6855  1.0506
14214SOL     OW51609   1.266   9.162   8.508 -0.4078 -0.0590  0.0623
14214SOL    HW151610   1.313   9.216   8.571  0.4966  0.1891 -0.7901
14214SOL    HW251611   1.181   9.205   8.498 -1.1188 -0.8700  2.1034
14215SOL     OW51612   4.614   2.977   1.755  0.1699 -0.2759  0.2438
14215SOL    HW151613   4.641   3.067   1.737  1.7954 -0.6034  0.8170
14215SOL    HW251614   4.618   2.933   1.670 -1.5517  0.3808 -0.2120
14216SOL     OW51615   4.495  12.355  11.624 -0.1641  0.2912 -0.2214
14216SOL    HW151616   4.566  12.414  11.602 -0.5842  0.0719 -2.3810
14216SOL    HW251617   4.509  12.333  11.717  0.3331  3.2358  0.4917
14217SOL     OW51618  10.003   4.449   1.665 -0.0697 -0.2587  0.1971
14217SOL    HW151619   9.992   4.487   1.577 -1.2055 -1.3557 -0.1632
14217SOL    HW251620   9.920   4.466   1.709  0.1228 -0.6342  0.7128
14218SOL     OW51621  12.194   0.356   0.586 -0.2204  0.4124  0.0694
14218SOL    HW151622  12.217   0.307   0.507  0.6256  0.8719  0.0234
14218SOL    HW251623  12.102   0.337   0.600 -0.3798  0.3395 -1.0366
14219SOL     OW51624   7.606   4.346   8.032 -0.5541  0.3387  0.8843
14219SOL    HW151625   7.607   4.356   7.937 -0.1890  1.3800  0.9814
14219SOL    HW251626   7.535   4.403   8.061  0.3696  1.3103  1.3366
14220SOL     OW51627   1.772   0.110   4.840  0.3119 -0.3176 -0.1767
14220SOL    HW151628   1.856   0.068   4.857  0.3182 -0.0306  0.5677
14220SOL    HW251629   1.781   0.149   4.754  0.0453 -2.4640 -1.2467
14221SOL     OW51630  12.237   9.674   9.039  0.4101 -0.6280 -0.0148
14221SOL    HW151631  12.166   9.730   9.007  0.6949  0.3505  0.9767
14221SOL    HW251632  12.192   9.605   9.088  0.0779  1.6634  3.2933
14222SOL     OW51633   1.029   6.921  10.725 -0.0800  0.5328 -0.2322
14222SOL    HW151634   0.941   6.882  10.723 -1.4809  3.4430 -1.4961
14222SOL    HW251635   1.059   6.919  10.634  1.5583 -1.0805  0.2866
14223SOL     OW51636   1.887   5.933  10.967  0.5987 -0.0090  0.1373
14223SOL    HW151637   1.935   5.853  10.987 -0.1101  0.0142  2.1018
14223SOL    HW251638   1.843   5.914  10.884  1.9509 -0.9265 -0.4087
14224SOL     OW51639   7.615   1.743   9.983  0.4720 -0.0380 -0.0747
14224SOL    HW151640   7.625   1.835  10.008  0.7153  0.5670 -2.2060
14224SOL    HW251641   7.525   1.737   9.950  0.0017 -0.9130  1.2943
14225SOL     OW51642   2.815  12.488   5.849  0.2970  0.3418  0.5574
14225SOL    HW151643   2.739  12.491   5.791 -0.4947  0.9641  1.5826
14225SOL    HW251644   2.816  12.399   5.883 -0.7479  0.6486  1.4778
14226SOL     OW51645   1.953   7.894   0.557 -0.6343  0.1603 -0.4120
14226SOL    HW151646   2.017   7.928   0.619 -0.3850 -1.6940  0.4374
14226SOL    HW251647   1.868   7.914   0.597 -0.4826 -0.6177  0.3460
14227SOL     OW51648   6.301   9.345  10.985  0.3506  0.6628  0.7423
14227SOL    HW151649   6.396   9.330  10.981 -0.0424 -1.9725 -0.2903
14227SOL    HW251650   6.276   9.312  11.071  0.1756  0.0152  0.4449
14228SOL     OW51651   6.434   0.026   9.137 -0.0204  0.0680  0.3543
14228SOL    HW151652   6.493   0.086   9.091 -0.4554 -0.6730 -1.2176
14228SOL    HW251653   6.349   0.039   9.095 -0.6631  0.0466  1.6054
14229SOL     OW51654   9.504   7.710   9.085 -0.0723  0.5789 -0.2625
14229SOL    HW151655   9.488   7.641   9.021 -0.6766 -0.2588  0.7475
14229SOL    HW251656   9.422   7.759   9.088  0.0731  0.8311 -0.3742
14230SOL     OW51657  10.528   8.428  11.064 -0.0187  0.1668 -0.1587
14230SOL    HW151658  10.541   8.500  11.003 -3.5800  1.5799  0.5062
14230SOL    HW251659  10.523   8.349  11.010  1.6624  0.6969 -1.1253
14231SOL     OW51660   9.940  12.082   6.326  0.4298  0.7601 -0.0145
14231SOL    HW151661  10.001  12.155   6.331  1.6348 -0.0648 -1.6591
14231SOL    HW251662   9.859  12.115   6.366  2.1813  1.5496  3.2345
14232SOL     OW51663  10.334   9.486   4.187  0.4756 -0.1160  0.4117
14232SOL    HW151664  10.271   9.433   4.236  0.6567 -1.2152 -0.5041
14232SOL    HW251665  10.280   9.544   4.134  0.2745  1.0495  1.8160
14233SOL     OW51666   4.440  11.865   9.603 -0.0893 -0.1187 -0.0116
14233SOL    HW151667   4.511  11.919   9.567  0.3368 -0.5427  0.1712
14233SOL    HW251668   4.360  11.900   9.564  0.2483  0.2075 -0.4143
14234SOL     OW51669  12.340   2.904   5.635  0.4323  0.1377  0.1014
14234SOL    HW151670  12.271   2.861   5.585  0.7966 -1.9485  1.2505
14234SOL    HW251671  12.325   2.875   5.725  2.0285  0.7198  0.5896
14235SOL     OW51672   9.226   7.514   5.953  0.0115 -0.3818 -0.0216
14235SOL    HW151673   9.180   7.523   6.037 -0.1492 -0.8909 -0.0509
14235SOL    HW251674   9.209   7.424   5.926 -0.1829 -0.1334 -0.7474
14236SOL     OW51675   6.289   6.597   3.357  0.1517  0.1940  0.1086
14236SOL    HW151676   6.273   6.507   3.384  2.5892 -0.2238  0.4276
14236SOL    HW251677   6.305   6.592   3.263  2.2220 -0.0952  0.4190
14237SOL     OW51678   7.374   3.408   2.719  0.4118 -0.5920 -0.6780
14237SOL    HW151679   7.281   3.407   2.696  0.0784 -1.2526  0.6119
14237SOL    HW251680   7.419   3.431   2.637 -0.8025 -1.4898 -1.6394
14238SOL     OW51681  12.306   3.919   2.308  0.5199 -0.5558  0.0264
14238SOL    HW151682  12.276   3.851   2.247  0.1896 -0.9517  0.6194
14238SOL    HW251683  12.230   3.936   2.364  0.8265 -0.2212  0.3490
14239SOL     OW51684   7.744   9.907   7.301 -0.3556  0.1953 -0.0934
14239SOL    HW151685   7.754   9.839   7.368 -1.6539 -1.2289 -1.2673
14239SOL    HW251686   7.731   9.858   7.219 -1.2846  1.8555 -0.9838
14240SOL     OW51687   8.923   9.719   2.863  0.0278  0.7234  0.7497
14240SOL    HW151688   8.905   9.692   2.773 -0.0657 -3.4784  1.8165
14240SOL    HW251689   9.018   9.708   2.873  0.3069  2.7945  0.7907
14241SOL     OW51690   1.553   0.320  10.966  0.1120  0.1590  0.5953
14241SOL    HW151691   1.535   0.413  10.982 -2.4007 -0.6277  3.2049
14241SOL    HW251692   1.609   0.294  11.039 -0.7374 -0.7433  0.9431
14242SOL     OW51693   0.176   1.777   7.673  0.3742 -0.3046  0.2385
14242SOL    HW151694   0.104   1.715   7.685  0.4234 -0.2886  0.6459
14242SOL    HW251695   0.212   1.756   7.587  0.0149 -0.4468  0.1187
14243SOL     OW51696  11.708   9.570   9.910 -0.5079  0.0121  0.1593
14243SOL    HW151697  11.740   9.533   9.992 -1.0993  0.1426  0.4518
14243SOL    HW251698  11.699   9.494   9.852 -4.1014 -0.7704  1.5119
14244SOL     OW51699   1.434   0.635   2.867 -0.3499 -0.1400 -0.0787
14244SOL    HW151700   1.492   0.565   2.894 -1.0559 -0.7318 -0.0550
14244SOL    HW251701   1.366   0.638   2.935 -1.1149 -0.4078 -0.8032
14245SOL     OW51702   6.692   0.474   2.758  0.5166  0.1520 -0.2667
14245SOL    HW151703   6.620   0.443   2.703  0.4243 -1.1453  0.5542
14245SOL    HW251704   6.650   0.501   2.840  0.8313  0.5533 -0.2325
14246SOL     OW51705   6.117  11.752   2.265 -0.6191 -1.0980 -0.9273
14246SOL    HW151706   6.201  11.710   2.247 -0.0595 -0.0565 -0.8305
14246SOL    HW251707   6.100  11.733   2.357  0.5608  0.4293 -0.3533
14247SOL     OW51708   7.863  10.659   1.718  0.0405  0.0169 -0.3999
14247SOL    HW151709   7.832  10.729   1.662 -1.5154 -1.2698 -1.2431
14247SOL    HW251710   7.890  10.590   1.657 -0.5779 -0.9648  0.4006
14248SOL     OW51711  10.756   0.834  12.247 -0.0127 -0.5196  0.3053
14248SOL    HW151712  10.706   0.915  12.244  1.7013  0.7571  2.9237
14248SOL    HW251713  10.697   0.771  12.288  0.0255  0.6085  2.1896
14249SOL     OW51714   0.241   9.284   6.720  0.2179 -0.2640 -0.3901
14249SOL    HW151715   0.236   9.222   6.647 -0.2942  0.5871 -1.0982
14249SOL    HW251716   0.167   9.262   6.776  0.3236 -0.6052 -0.3852
14250SOL     OW51717  11.532   4.600  10.056  0.0420  0.4070 -0.2719
14250SOL    HW151718  11.627   4.593  10.070 -0.4053 -2.0365  2.3857
14250SOL    HW251719  11.494   4.586  10.143 -2.7731  2.7485 -0.9987
14251SOL     OW51720   6.880  11.802   7.991  0.3416  0.1643 -0.3773
14251SOL    HW151721   6.880  11.872   8.056  0.9985  1.0404 -1.2981
14251SOL    HW251722   6.897  11.722   8.042 -1.2162  0.5189  0.8002
14252SOL     OW51723   1.452   8.937  11.586 -0.0409 -0.2176 -0.1837
14252SOL    HW151724   1.486   9.021  11.553  1.6725 -0.6778  0.3198
14252SOL    HW251725   1.363   8.932  11.550 -0.8768  2.6063  1.1490
14253SOL     OW51726   9.445   2.783   6.409 -0.2909  0.6243 -0.3899
14253SOL    HW151727   9.521   2.840   6.394  0.7634 -0.3931  0.8064
14253SOL    HW251728   9.447   2.764   6.503 -1.1144 -0.6797 -0.6126
14254SOL     OW51729  12.323   2.618   5.514 -0.2495 -0.8491  0.0759
14254SOL    HW151730  12.344   2.609   5.607  1.3183  2.1590  0.1530
14254SOL    HW251731  12.231   2.643   5.512 -0.7410 -2.5111  0.6495
14255SOL     OW51732   9.574   8.563   7.475  0.1291 -0.2457 -0.0681
14255SOL    HW151733   9.480   8.565   7.494  0.4279  0.0615  1.4841
14255SOL    HW251734   9.579   8.572   7.380 -1.4251 -0.7768 -0.2302
14256SOL     OW51735   5.216   4.063   3.309  0.6503 -0.1814 -0.2938
14256SOL    HW151736   5.271   4.113   3.249 -0.4745  1.4205 -0.0734
14256SOL    HW251737   5.126   4.087   3.285  0.1532  0.3456  1.8183
14257SOL     OW51738   9.909   5.927   4.114  0.5570 -0.1116 -0.3024
14257SOL    HW151739   9.864   5.936   4.198 -0.1702 -1.0235 -0.5710
14257SOL    HW251740   9.998   5.955   4.131  0.1009  0.9382  0.4530
14258SOL     OW51741   7.295   1.110   3.343 -0.2422 -0.6666  0.3869
14258SOL    HW151742   7.268   1.044   3.279 -0.3517 -0.1453 -0.1151
14258SOL    HW251743   7.325   1.059   3.419 -0.2175 -1.2901 -0.0316
14259SOL     OW51744   2.761   3.895   2.576 -0.5555 -0.2010 -0.0380
14259SOL    HW151745   2.739   3.936   2.660 -1.5193  0.4069 -0.5620
14259SOL    HW251746   2.700   3.821   2.569  0.0426 -0.7142  0.1422
14260SOL     OW51747   5.646   2.961  11.627 -0.0880 -0.0570  0.0621
14260SOL    HW151748   5.739   2.972  11.643 -0.0441  1.9689 -1.1183
14260SOL    HW251749   5.615   2.902  11.696  2.2687 -1.8430 -0.2920
14261SOL     OW51750   2.280  10.042   8.531 -0.0676  0.2240  0.1959
14261SOL    HW151751   2.372  10.025   8.512 -0.2241 -0.3032 -0.1205
14261SOL    HW251752   2.253   9.968   8.586 -0.5684 -0.1755 -0.5722
14262SOL     OW51753   0.793   3.344   7.289 -0.0944 -0.2427 -0.0513
14262SOL    HW151754   0.813   3.412   7.224 -0.7466  0.2488  0.2500
14262SOL    HW251755   0.841   3.267   7.259  0.6169  0.3408 -0.4258
14263SOL     OW51756   9.092   6.419  11.998 -0.0778 -0.3683 -0.9271
14263SOL    HW151757   9.025   6.370  12.046  1.8236 -0.0354  2.4319
14263SOL    HW251758   9.056   6.507  11.987 -0.1914 -0.1307  1.0251
14264SOL     OW51759  11.006   4.330  12.566  0.5566  0.0441 -0.1294
14264SOL    HW151760  10.936   4.316  12.629  0.1088 -0.0696 -0.6384
14264SOL    HW251761  11.002   4.253  12.509  1.4861 -0.2570  0.1904
14265SOL     OW51762  11.039  10.793   0.986 -0.3315  0.1693 -0.9482
14265SOL    HW151763  10.977  10.821   0.919  0.6557 -1.3690 -2.6193
14265SOL    HW251764  11.085  10.719   0.946  1.8308  0.5698  0.6152
14266SOL     OW51765   0.264   3.498   5.548  0.3584  0.2610 -0.5983
14266SOL    HW151766   0.298   3.574   5.596 -1.4378 -0.3003  1.7802
14266SOL    HW251767   0.255   3.430   5.616  1.5771 -2.0095 -2.5689
14267SOL     OW51768   6.500  11.650   2.938 -0.1856  0.0792  0.0007
14267SOL    HW151769   6.534  11.715   2.999 -3.0050 -2.3839  4.8087
14267SOL    HW251770   6.554  11.572   2.953 -1.1914 -0.7113 -0.3105
14268SOL     OW51771   2.086   2.988   2.619  0.0220  0.1941 -0.5098
14268SOL    HW151772   2.027   3.060   2.596 -2.2052 -1.6147 -0.8786
14268SOL    HW251773   2.040   2.910   2.589  2.7189 -1.3616 -0.9168
14269SOL     OW51774   8.917  12.087   9.724  0.4119  0.1900  0.5491
14269SOL    HW151775   8.955  12.167   9.760  0.2647 -0.0287  1.2048
14269SOL    HW251776   8.850  12.062   9.787 -0.1482  0.0318 -0.1041
14270SOL     OW51777  10.462   4.954   2.970  0.5362  0.2671 -0.0311
14270SOL    HW151778  10.430   5.016   3.036  1.0400 -1.3494  1.7779
14270SOL    HW251779  10.554   4.940   2.992 -0.2486 -3.4438  1.6158
14271SOL     OW51780   2.194  12.393  12.162  0.0612 -0.5259 -0.3930
14271SOL    HW151781   2.253  12.436  12.101 -2.1887  2.2812 -0.8043
14271SOL    HW251782   2.131  12.347  12.107 -0.5013 -0.0878 -0.1272
14272SOL     OW51783   3.987  10.971   1.734  0.0572 -0.0399 -0.0778
14272SOL    HW151784   4.053  10.906   1.758  0.7099  0.7879  0.4317
14272SOL    HW251785   4.010  11.048   1.786 -1.3922  0.2270  0.1828
14273SOL     OW51786   6.975   8.222   6.403  0.4125  0.0713 -0.6934
14273SOL    HW151787   6.973   8.155   6.335  0.6605  1.0534 -1.7033
14273SOL    HW251788   6.885   8.226   6.436  0.5024 -1.0893 -0.2634
14274SOL     OW51789   3.466   3.357  11.811  0.3940  0.4264 -0.7968
14274SOL    HW151790   3.391   3.371  11.754 -0.1858 -0.2023 -0.1991
14274SOL    HW251791   3.489   3.265  11.799 -0.1404  0.1104  0.4421
14275SOL     OW51792   4.294  10.071   9.637 -0.3392  0.2850 -0.0925
14275SOL    HW151793   4.390  10.069   9.640 -0.3332 -1.7967  0.0114
14275SOL    HW251794   4.267   9.995   9.690 -1.9908  0.1060 -1.1220
14276SOL     OW51795   8.222   3.681   3.232  1.1228  0.0473 -0.1688
14276SOL    HW151796   8.146   3.649   3.184  0.4014  0.5206  0.6330
14276SOL    HW251797   8.260   3.748   3.175 -1.1243  2.3499  0.8725
14277SOL     OW51798   3.364   9.420   5.441  0.3999  0.0117 -0.2329
14277SOL    HW151799   3.344   9.451   5.530  0.5113 -0.0386 -0.1905
14277SOL    HW251800   3.279   9.419   5.397  0.3871  0.3260 -0.2175
14278SOL     OW51801   3.341   8.624   9.993  0.6775  0.3443 -0.1757
14278SOL    HW151802   3.381   8.672  10.065  0.7727 -0.8331  0.5855
14278SOL    HW251803   3.250   8.610  10.021  0.5567  0.3830 -0.5446
14279SOL     OW51804   8.831   9.617   7.087  0.5063 -0.4476  0.0222
14279SOL    HW151805   8.781   9.603   7.168 -1.3820 -1.6371 -1.2534
14279SOL    HW251806   8.906   9.557   7.095  1.6869  1.1662  1.8598
14280SOL     OW51807   2.882   5.358   1.904 -0.3857  0.4359 -0.1881
14280SOL    HW151808   2.865   5.317   1.989 -0.8071  2.7150  0.8956
14280SOL    HW251809   2.838   5.443   1.909 -0.3966  0.6506 -2.6982
14281SOL     OW51810   6.886   3.560   2.258 -0.1339  0.0845  0.4034
14281SOL    HW151811   6.931   3.622   2.201 -0.1684  0.9942  1.3348
14281SOL    HW251812   6.954   3.526   2.316  0.0687 -1.4934 -0.7088
14282SOL     OW51813   5.329   0.237  11.916  0.7192 -0.6132 -0.1690
14282SOL    HW151814   5.264   0.201  11.856 -1.4036  2.0757  0.3114
14282SOL    HW251815   5.285   0.238  12.001  1.4113  1.0902  0.2150
14283SOL     OW51816   5.525   0.296   6.528 -0.3287 -0.2856 -0.4863
14283SOL    HW151817   5.468   0.226   6.560 -0.1926  0.2544  1.0494
14283SOL    HW251818   5.611   0.256   6.520 -0.7039 -0.8729 -1.9339
14284SOL     OW51819   9.532   5.434   4.315 -0.2515  0.8416  0.7566
14284SOL    HW151820   9.453   5.450   4.367  0.4813  1.5634  1.6757
14284SOL    HW251821   9.603   5.470   4.368  0.7859 -0.4248  0.2769
14285SOL     OW51822   5.527   2.696   2.537  0.5154 -0.1547 -0.2702
14285SOL    HW151823   5.457   2.761   2.534 -0.6005 -1.3290 -0.8070
14285SOL    HW251824   5.575   2.716   2.617  1.4623  2.5388 -1.4034
14286SOL     OW51825   2.691   4.639   2.227  0.2684  0.7446 -0.4548
14286SOL    HW151826   2.777   4.612   2.260  0.3515 -1.2999 -2.1595
14286SOL    HW251827   2.633   4.566   2.250 -0.4397  0.9323 -1.5960
14287SOL     OW51828   4.847   3.048   7.274  0.0641 -0.2832  0.4778
14287SOL    HW151829   4.786   3.110   7.313  0.1694 -0.0331  0.2468
14287SOL    HW251830   4.792   2.977   7.241 -0.7045  1.9569 -3.8205
14288SOL     OW51831   7.040  10.454   4.114  0.0334 -0.5355  0.2827
14288SOL    HW151832   6.953  10.413   4.110  0.5706 -1.6899 -0.1201
14288SOL    HW251833   7.073  10.429   4.200 -0.9035  1.8146  1.3955
14289SOL     OW51834   0.228   8.623   0.655 -0.0758 -0.7309  0.4988
14289SOL    HW151835   0.299   8.559   0.668  1.5479  1.0375  0.7865
14289SOL    HW251836   0.243   8.690   0.721 -0.5985  0.8817 -0.9279
14290SOL     OW51837   2.436   4.667   5.485 -0.2328 -0.1617 -0.2627
14290SOL    HW151838   2.350   4.642   5.518 -0.3880  0.9668  0.2074
14290SOL    HW251839   2.484   4.698   5.562  0.0081  0.8046 -0.7843
14291SOL     OW51840   4.995   4.050  10.417 -0.0894  0.0389  0.1103
14291SOL    HW151841   5.036   4.091  10.494  1.6967 -0.2547 -0.6321
14291SOL    HW251842   4.994   4.119  10.351 -1.3952  0.2157  0.2970
14292SOL     OW51843   6.892   7.237   4.673  0.9246  0.7934 -0.2189
14292SOL    HW151844   6.974   7.210   4.713  2.1578  3.0868 -0.9993
14292SOL    HW251845   6.824   7.213   4.736  2.4349  0.8886  1.4962
14293SOL     OW51846   2.512   8.009   8.414  0.3126 -0.0604  0.4034
14293SOL    HW151847   2.492   7.932   8.360  2.0910 -0.0973 -0.2789
14293SOL    HW251848   2.504   8.083   8.354  0.7061  0.0643  0.5011
14294SOL     OW51849   8.487   3.339  10.376  0.2608  0.5774  0.3662
14294SOL    HW151850   8.454   3.265  10.427  0.4975  0.4146  0.2874
14294SOL    HW251851   8.582   3.332  10.384  0.2658  1.7121  1.5470
14295SOL     OW51852  12.466  10.058   9.418  0.3637  0.2892 -0.8306
14295SOL    HW151853  12.494   9.969   9.437  0.4133  0.8257  2.1344
14295SOL    HW251854  12.447  10.058   9.324  0.0098 -2.9145 -0.8733
14296SOL     OW51855   8.876   6.392   8.148 -0.1882  0.1806  0.2450
14296SOL    HW151856   8.835   6.411   8.064  0.8293 -1.5165 -0.6850
14296SOL    HW251857   8.811   6.419   8.213 -0.6173  2.3857 -1.0191
14297SOL     OW51858  11.557  12.590  11.442 -0.6702  0.1226  0.2945
14297SOL    HW151859  11.630  12.605  11.502 -0.3251 -1.8112  0.4049
14297SOL    HW251860  11.597  12.545  11.367 -1.2955  1.4817 -0.9007
14298SOL     OW51861   3.864  12.314   7.644  0.0756  0.0831  0.5219
14298SOL    HW151862   3.834  12.330   7.734  1.5367  0.4674  0.9719
14298SOL    HW251863   3.936  12.376   7.632 -0.5275  0.5037 -1.1589
14299SOL     OW51864   7.432   3.706   4.322  0.2901 -0.1746  0.0381
14299SOL    HW151865   7.419   3.665   4.407  0.4307 -1.5188 -0.5685
14299SOL    HW251866   7.361   3.673   4.268 -0.5260  1.6221 -0.0718
14300SOL     OW51867   4.934   3.860   5.890  0.5040  0.0212  0.1093
14300SOL    HW151868   4.926   3.767   5.869 -0.9224  0.0487  0.4521
14300SOL    HW251869   5.028   3.873   5.906  0.3657 -2.1393  3.6613
14301SOL     OW51870   9.234   7.522  11.614  0.8696  0.2423 -0.0663
14301SOL    HW151871   9.290   7.510  11.538  2.7003  0.3578  1.2020
14301SOL    HW251872   9.153   7.476  11.592  2.0963 -1.4633 -1.2833
14302SOL     OW51873   2.832   3.912  10.902  0.1981  0.5133 -0.3651
14302SOL    HW151874   2.849   3.998  10.941  1.1404 -0.8780  2.5655
14302SOL    HW251875   2.749   3.884  10.942  1.4797 -1.1982  1.3256
14303SOL     OW51876   8.369   4.001   5.028 -0.5746  0.1538 -0.5756
14303SOL    HW151877   8.427   3.980   5.102 -0.6466 -1.7023 -0.9982
14303SOL    HW251878   8.427   4.041   4.963 -0.2352  0.4881 -0.0770
14304SOL     OW51879   6.514   2.304   6.345 -0.3503  0.3969 -0.6188
14304SOL    HW151880   6.512   2.298   6.249  0.4742 -0.2540 -0.6114
14304SOL    HW251881   6.425   2.328   6.370 -0.3855  1.3852 -1.5960
14305SOL     OW51882   3.441  11.688   2.911  0.0361 -0.1994 -0.2989
14305SOL    HW151883   3.414  11.757   2.972  3.0797  0.4174  0.4886
14305SOL    HW251884   3.469  11.735   2.832  0.5184 -0.6613 -0.4067
14306SOL     OW51885   7.380   6.098   0.751 -0.1758 -0.3745  0.4394
14306SOL    HW151886   7.447   6.123   0.815  0.4652 -1.5765  0.2787
14306SOL    HW251887   7.422   6.114   0.666  0.3878 -2.1998  0.3293
14307SOL     OW51888   7.991   3.877   4.749 -0.1982  0.1186  0.6965
14307SOL    HW151889   8.036   3.945   4.799 -1.1069  0.7702  0.6582
14307SOL    HW251890   7.911   3.920   4.718 -0.3936 -0.7345 -0.0119
14308SOL     OW51891   2.165   8.001   9.438 -0.0081  0.1960  0.3967
14308SOL    HW151892   2.088   7.968   9.392  0.1823 -0.1378  0.3153
14308SOL    HW251893   2.130   8.037   9.520 -0.3679  0.9551 -0.0809
14309SOL     OW51894  12.320   7.106   5.498 -0.4921 -0.6432  0.1487
14309SOL    HW151895  12.245   7.093   5.440  0.8852 -0.9911 -1.6523
14309SOL    HW251896  12.293   7.177   5.556 -1.4523  0.7558 -1.8597
14310SOL     OW51897   1.822   6.073   0.797 -0.4050  0.2100  0.3504
14310SOL    HW151898   1.743   6.019   0.792 -0.7638  0.6622  1.0343
14310SOL    HW251899   1.793   6.161   0.771 -0.5564  0.7888  2.2600
14311SOL     OW51900  11.354  10.128   3.849 -0.1866  0.0502 -0.1832
14311SOL    HW151901  11.384  10.201   3.796  1.4762 -0.7173 -0.3558
14311SOL    HW251902  11.384  10.050   3.802  1.3239 -0.6578  1.8049
14312SOL     OW51903   3.742   4.362  10.332 -0.0073  0.4160  0.4142
14312SOL    HW151904   3.690   4.416  10.272  0.9244  0.4295 -0.4187
14312SOL    HW251905   3.832   4.373  10.302  0.4097 -0.1394  1.3988
14313SOL     OW51906  10.569   2.227   9.917  0.6634  0.5110 -0.0678
14313SOL    HW151907  10.564   2.266  10.004 -0.5718  1.9575 -0.7371
14313SOL    HW251908  10.569   2.301   9.857  1.2000 -0.4609 -1.3331
14314SOL     OW51909   0.062   3.019   1.664  0.3112 -0.1682  0.2871
14314SOL    HW151910   0.116   3.097   1.671 -0.0876  0.1047  0.3340
14314SOL    HW251911  -0.025   3.046   1.696  0.4297 -0.8975  1.2828
14315SOL     OW51912   0.631   2.476   6.992 -0.7987 -0.0917 -0.1117
14315SOL    HW151913   0.697   2.526   7.040 -0.8172 -0.6212  0.4710
14315SOL    HW251914   0.670   2.461   6.906 -2.1426  3.9694 -1.6652
14316SOL     OW51915   8.955   6.428   0.117  0.1734 -0.2877  0.1892
14316SOL    HW151916   8.959   6.337   0.148 -0.2613 -0.2951  0.2280
14316SOL    HW251917   8.961   6.481   0.197 -5.0802 -0.3136  0.9046
14317SOL     OW51918  11.776   5.853   6.883 -0.5968 -0.2807 -0.6966
14317SOL    HW151919  11.812   5.932   6.842  0.3579 -0.5071 -0.3221
14317SOL    HW251920  11.681   5.859   6.868 -0.6296  1.3007 -0.0558
14318SOL     OW51921  10.048   7.951   9.911 -0.0142  0.2276 -0.0590
14318SOL    HW151922  10.137   7.919   9.924  0.0781 -0.0428 -1.2136
14318SOL    HW251923  10.058   8.027   9.854 -0.5685 -0.1937 -0.7320
14319SOL     OW51924   4.188   4.406  11.570  0.0812  0.2056  0.4831
14319SOL    HW151925   4.221   4.407  11.660 -0.8005  0.2549  0.8166
14319SOL    HW251926   4.130   4.482  11.565  0.1040  0.1899 -0.1293
14320SOL     OW51927   1.165   3.597   0.356  0.1138 -0.2790 -0.1216
14320SOL    HW151928   1.077   3.618   0.324 -0.3990 -1.2388  0.6020
14320SOL    HW251929   1.184   3.511   0.318  0.5901 -0.2352  0.0168
14321SOL     OW51930  10.629   7.468   5.337  0.5905 -0.4509 -0.4150
14321SOL    HW151931  10.627   7.373   5.341  1.2256 -0.4492  3.0130
14321SOL    HW251932  10.712   7.489   5.295  0.8919 -1.4151 -0.3219
14322SOL     OW51933  10.455   8.781   6.951 -0.1166 -0.1075  0.0184
14322SOL    HW151934  10.537   8.771   6.902 -0.6445 -1.4038 -0.6438
14322SOL    HW251935  10.424   8.692   6.966 -0.6061  0.3085  1.6857
14323SOL     OW51936   2.490   8.728   6.212 -0.1249 -0.9270  0.6619
14323SOL    HW151937   2.456   8.753   6.298  0.7713 -0.7133  0.9597
14323SOL    HW251938   2.558   8.663   6.231  2.4273  1.4870  0.3937
14324SOL     OW51939   1.183   1.136   8.002 -0.0054 -0.2642 -0.3496
14324SOL    HW151940   1.214   1.223   8.025  1.0030 -0.6887 -0.0751
14324SOL    HW251941   1.151   1.099   8.085  0.3756 -0.4785 -0.2960
14325SOL     OW51942   6.239   2.787   1.480 -0.5129  0.3418 -0.1460
14325SOL    HW151943   6.184   2.848   1.529 -1.9840 -1.9874  1.2798
14325SOL    HW251944   6.306   2.759   1.542 -0.8709 -0.7459 -0.2313
14326SOL     OW51945  10.742   6.685   8.424  0.2709 -0.0945  0.0591
14326SOL    HW151946  10.661   6.635   8.416  0.7118 -0.9573  0.8388
14326SOL    HW251947  10.798   6.651   8.355  1.4326 -2.4166  2.0103
14327SOL     OW51948   3.415   9.276   5.026 -0.4924 -0.3616  0.0727
14327SOL    HW151949   3.373   9.362   5.026 -0.0344 -0.0680  2.0258
14327SOL    HW251950   3.481   9.282   4.957  0.6077  1.4850  1.1771
14328SOL     OW51951   9.554   3.908   7.905  0.0535 -0.1913 -0.0036
14328SOL    HW151952   9.521   3.997   7.919  0.6421 -0.1499  1.2848
14328SOL    HW251953   9.588   3.881   7.990  0.1092 -1.5693 -0.4319
14329SOL     OW51954  11.443   7.571   8.804 -0.2796  0.1483 -0.2961
14329SOL    HW151955  11.370   7.632   8.793 -1.2221 -0.5231  1.7088
14329SOL    HW251956  11.498   7.611   8.871 -0.5168 -0.8122  0.4923
14330SOL     OW51957   6.085   2.890   6.451  0.1373 -0.0843 -0.5798
14330SOL    HW151958   6.072   2.879   6.357  0.1734 -1.4536 -0.4389
14330SOL    HW251959   6.006   2.853   6.490  0.3892 -0.0658 -0.0555
14331SOL     OW51960   5.162  12.299   5.622 -0.3472 -0.6159  0.6434
14331SOL    HW151961   5.224  12.300   5.695 -0.5191 -0.2755  0.7836
14331SOL    HW251962   5.119  12.384   5.625  1.9687  0.8247 -1.8330
14332SOL     OW51963   9.774  10.329   7.167 -0.3619 -0.4073  0.3984
14332SOL    HW151964   9.717  10.390   7.120  0.0415 -1.1486 -1.1216
14332SOL    HW251965   9.846  10.311   7.106  0.2992 -1.2586  1.3880
14333SOL     OW51966   7.731   1.852   1.420  0.1705 -0.6395 -0.3861
14333SOL    HW151967   7.792   1.867   1.349  1.7961 -1.6767  0.7111
14333SOL    HW251968   7.707   1.939   1.451 -1.5971 -0.1110 -2.9371
14334SOL     OW51969   7.125   0.519   6.855 -0.1538 -0.1446 -0.3057
14334SOL    HW151970   7.065   0.481   6.918 -0.6557  0.2402 -0.5439
14334SOL    HW251971   7.107   0.613   6.858  1.7905  0.2417  1.0422
14335SOL     OW51972   6.645  11.373   7.865 -0.0547  0.4873  0.1789
14335SOL    HW151973   6.668  11.319   7.789 -1.4510 -0.1341  0.1660
14335SOL    HW251974   6.636  11.462   7.830  3.3044  1.0355  0.3800
14336SOL     OW51975   0.654   2.577   3.611 -0.1044  0.0963  0.3430
14336SOL    HW151976   0.702   2.503   3.574  1.1298  0.1431  1.7760
14336SOL    HW251977   0.663   2.567   3.706 -1.5293  1.0478  0.6139
14337SOL     OW51978   8.209   6.547   3.639 -0.0988  0.0981 -0.0744
14337SOL    HW151979   8.280   6.514   3.693 -1.6160 -0.1873  1.8451
14337SOL    HW251980   8.160   6.469   3.613 -0.1973  0.3594 -0.6879
14338SOL     OW51981   2.412  11.865   9.888  0.1755 -0.3104 -0.0626
14338SOL    HW151982   2.505  11.885   9.895 -0.0896  1.7376 -1.5419
14338SOL    HW251983   2.387  11.834   9.975  2.5566 -2.5949 -0.0908
14339SOL     OW51984   6.970   4.911   2.351 -0.4292 -0.9341  0.0285
14339SOL    HW151985   7.065   4.920   2.354 -0.5474  0.2706  0.9693
14339SOL    HW251986   6.949   4.853   2.425 -0.4620 -0.8710  0.0684
14340SOL     OW51987  12.253   2.557  10.321 -0.7682  0.3786  0.4966
14340SOL    HW151988  12.162   2.557  10.289 -0.6880  1.6659  0.1853
14340SOL    HW251989  12.302   2.508  10.255 -1.5495 -2.3229  1.7937
14341SOL     OW51990   2.929   2.994   0.298  0.1479 -0.0255  0.0872
14341SOL    HW151991   2.989   3.019   0.368  0.4442 -0.0160 -0.1704
14341SOL    HW251992   2.918   2.900   0.308  0.3130 -0.0487  0.0506
14342SOL     OW51993   4.754   8.497   4.733  0.5151  0.3474 -0.1454
14342SOL    HW151994   4.670   8.532   4.704  0.3149  1.6609  1.8402
14342SOL    HW251995   4.750   8.404   4.708 -1.7358  0.2517  0.2900
14343SOL     OW51996   6.561   9.092  10.391 -0.3963 -0.1866 -0.4068
14343SOL    HW151997   6.628   9.041  10.437 -2.2993 -1.6340  0.9173
14343SOL    HW251998   6.561   9.056  10.302  0.1737 -0.5657 -0.2620
14344SOL     OW51999   2.583   5.928  10.353  0.1562  0.0740  0.0200
14344SOL    HW152000   2.498   5.953  10.389  1.0540  2.5592  0.5721
14344SOL    HW252001   2.568   5.922  10.258 -0.7777 -0.2053  0.1761
14345SOL     OW52002   3.606  11.541   5.827  0.1710 -0.2409  0.1240
14345SOL    HW152003   3.642  11.465   5.873 -0.8201 -0.7372  0.1209
14345SOL    HW252004   3.655  11.546   5.745 -0.5189 -1.5952 -0.3984
14346SOL     OW52005   6.437   8.184   4.008 -0.2084 -0.1566  0.3661
14346SOL    HW152006   6.438   8.277   4.031 -0.8766 -0.6020  2.4346
14346SOL    HW252007   6.345   8.164   3.990  0.1082 -0.1623 -1.3600
14347SOL     OW52008  12.116   1.568   3.813 -0.3066  0.0106 -0.2003
14347SOL    HW152009  12.054   1.629   3.773 -0.6727 -1.0005 -1.2257
14347SOL    HW252010  12.199   1.586   3.770 -0.0327  0.8315  0.6221
14348SOL     OW52011  11.283   9.592   6.371 -0.4541 -0.4800 -0.7532
14348SOL    HW152012  11.261   9.513   6.419  0.1930  0.5907  1.4193
14348SOL    HW252013  11.376   9.607   6.390 -0.4372  0.5348 -1.5178
14349SOL     OW52014  11.056   8.043  10.423  0.5088 -0.6322 -0.3084
14349SOL    HW152015  10.971   8.047  10.466  0.1943 -1.2849 -0.8545
14349SOL    HW252016  11.037   8.056  10.330  1.1925  0.9081 -0.2668
14350SOL     OW52017  10.914   7.338   0.989 -0.2963  0.8037  0.1374
14350SOL    HW152018  10.880   7.249   0.992 -1.7405  1.3522  1.5495
14350SOL    HW252019  11.004   7.330   1.021 -1.2813  0.1540  3.0595
14351SOL     OW52020   5.141   4.696  11.245 -0.0982 -0.1119  0.0497
14351SOL    HW152021   5.152   4.788  11.222 -0.0605 -0.0192  0.4464
14351SOL    HW252022   5.085   4.696  11.322  0.3319 -0.3929  0.3686
14352SOL     OW52023  10.664   7.907  11.708 -0.4660  0.1346  0.2016
14352SOL    HW152024  10.663   7.811  11.702 -0.0453  0.0693  1.0478
14352SOL    HW252025  10.582   7.934  11.667  0.7810 -0.3942 -2.9421
14353SOL     OW52026   7.573   1.014   3.948 -0.9384 -0.2531  0.2850
14353SOL    HW152027   7.515   1.057   3.886 -0.1116  1.5905  0.7443
14353SOL    HW252028   7.607   1.084   4.003  2.6306 -1.0657 -0.6842
14354SOL     OW52029   9.276   5.953   9.460 -0.2254  0.6000  0.2158
14354SOL    HW152030   9.279   5.971   9.366  0.9416  2.9187  0.6219
14354SOL    HW252031   9.357   5.992   9.494 -0.9329  0.3752  2.2785
14355SOL     OW52032   2.060   3.871   5.002  0.0795  0.3182  0.4223
14355SOL    HW152033   2.132   3.888   5.062 -0.6113 -0.2917  1.4664
14355SOL    HW252034   1.998   3.942   5.018  0.8787  1.4461 -1.2350
14356SOL     OW52035   6.351   6.672  10.346 -0.0072 -0.1371 -0.3229
14356SOL    HW152036   6.271   6.680  10.294  0.6617  2.9206 -1.0779
14356SOL    HW252037   6.387   6.586  10.322 -0.1378  0.7568 -4.4216
14357SOL     OW52038  12.040   0.687   3.408 -0.1354 -0.4456  0.1267
14357SOL    HW152039  12.055   0.653   3.496 -2.1777  0.3093  0.8315
14357SOL    HW252040  12.037   0.782   3.420  0.3168 -0.2959 -0.8999
14358SOL     OW52041   7.634  11.161   2.541 -0.1638  0.1470  0.7560
14358SOL    HW152042   7.551  11.165   2.587 -0.3382  3.1214  0.3684
14358SOL    HW252043   7.612  11.124   2.455 -0.9443  0.2610  0.9011
14359SOL     OW52044   0.091   0.974   2.730 -0.4422 -0.0964 -0.6563
14359SOL    HW152045   0.096   1.069   2.720  0.0448 -0.2218 -1.7663
14359SOL    HW252046   0.113   0.940   2.643  1.8016 -1.3005  0.3033
14360SOL     OW52047   7.304   3.050  11.546  0.0356  0.4583 -0.1173
14360SOL    HW152048   7.298   3.002  11.463 -2.5135 -2.8603  1.7389
14360SOL    HW252049   7.397   3.047  11.569  0.1089 -3.7805 -0.2158
14361SOL     OW52050   7.006   8.360   3.482  0.0411 -0.1076  0.5838
14361SOL    HW152051   7.041   8.281   3.524 -1.2202 -1.7405 -1.2268
14361SOL    HW252052   6.925   8.330   3.440 -1.0595  2.4338  0.7370
14362SOL     OW52053  11.843   5.496   5.460  0.1746 -1.0773  0.1989
14362SOL    HW152054  11.923   5.495   5.407  0.0813 -0.5068  0.0357
14362SOL    HW252055  11.868   5.455   5.543  0.8398 -0.2311  0.4256
14363SOL     OW52056   5.394   7.056   7.955  0.2094 -0.1686  0.1404
14363SOL    HW152057   5.304   7.079   7.931  0.3434  1.4959  1.0305
14363SOL    HW252058   5.425   7.002   7.883 -1.1744  0.0783 -0.6859
14364SOL     OW52059   0.031   4.936   5.326 -0.2894 -0.2670  0.6103
14364SOL    HW152060  -0.005   5.022   5.304 -0.5308  0.0428  2.0910
14364SOL    HW252061   0.107   4.926   5.269 -2.0542 -0.4724 -1.8486
14365SOL     OW52062  11.504   0.938   6.345  0.3645 -0.7802 -0.6020
14365SOL    HW152063  11.588   0.945   6.299  0.0458  1.8188 -0.9291
14365SOL    HW252064  11.521   0.975   6.431  0.0284 -2.1757  0.0830
14366SOL     OW52065  10.549   7.212   7.496 -0.2663 -0.3261  0.3382
14366SOL    HW152066  10.547   7.292   7.548 -2.0414  0.5741 -1.0027
14366SOL    HW252067  10.575   7.144   7.558 -0.7786  0.9401  2.0261
14367SOL     OW52068   0.731   1.837   4.455 -0.2854  0.0139 -0.2558
14367SOL    HW152069   0.697   1.917   4.415  1.3064  0.6518 -0.4050
14367SOL    HW252070   0.763   1.865   4.541  0.5693 -0.3803 -0.4370
14368SOL     OW52071   8.896   6.611  11.907 -0.4128 -0.2141  0.0983
14368SOL    HW152072   8.881   6.666  11.830  2.8857 -0.1281 -0.6338
14368SOL    HW252073   8.898   6.522  11.873  0.4756 -0.2236  0.1457
14369SOL     OW52074  11.276   3.050   2.728 -0.6178 -0.3642 -0.4352
14369SOL    HW152075  11.297   3.080   2.640  0.1126 -0.7138 -0.3908
14369SOL    HW252076  11.232   3.124   2.769 -1.5504 -0.4212 -1.2981
14370SOL     OW52077   0.124   4.695   9.892  0.2392 -0.7766  0.5559
14370SOL    HW152078   0.196   4.656   9.842  0.8515 -1.1304  1.6731
14370SOL    HW252079   0.093   4.766   9.837 -0.3287 -2.2638 -1.1414
14371SOL     OW52080   9.534   2.465   0.034  0.1617  0.3722  0.3049
14371SOL    HW152081   9.576   2.476  -0.051 -0.3912  2.2576  0.2261
14371SOL    HW252082   9.488   2.381   0.027 -0.0148  0.5713 -1.3137
14372SOL     OW52083   4.284   7.779  10.297  0.1472 -0.5642  0.4699
14372SOL    HW152084   4.243   7.798  10.382  1.7291 -0.9423  1.3627
14372SOL    HW252085   4.255   7.690  10.276 -1.5465  0.1204 -0.2054
14373SOL     OW52086   0.711   1.473  12.568 -0.0398 -1.0105 -0.3444
14373SOL    HW152087   0.650   1.477  12.495 -0.4237  1.4921  0.0081
14373SOL    HW252088   0.658   1.499  12.644  1.0590 -0.5013  0.2656
14374SOL     OW52089  10.017  10.757   1.309  0.5424 -0.8342 -0.3955
14374SOL    HW152090   9.969  10.677   1.333 -0.1685  0.1426  1.7555
14374SOL    HW252091   9.985  10.823   1.371  3.2549  0.3857 -0.1431
14375SOL     OW52092  10.447  11.928   5.417 -0.4425  0.4421 -0.2548
14375SOL    HW152093  10.412  12.005   5.372  2.5820  0.6757 -2.5581
14375SOL    HW252094  10.532  11.957   5.451 -0.3502 -1.2418  1.0730
14376SOL     OW52095   8.989  11.915   5.813  0.3937  0.4024 -0.0694
14376SOL    HW152096   8.910  11.961   5.841  1.2509  1.4696  0.6717
14376SOL    HW252097   9.020  11.871   5.892  1.6348  1.6668  0.1927
14377SOL     OW52098   9.481   3.086   4.074 -0.2026  0.6571  0.9716
14377SOL    HW152099   9.573   3.115   4.077 -0.1669  0.4690  1.7301
14377SOL    HW252100   9.434   3.163   4.042  0.0751  1.1139  1.6381
14378SOL     OW52101   3.933   3.919   1.850  0.0552  0.0191 -0.4067
14378SOL    HW152102   3.962   3.843   1.902 -2.3780 -0.1863  0.7866
14378SOL    HW252103   3.898   3.881   1.770  0.9844  0.1002 -0.8653
14379SOL     OW52104   0.383   7.151   0.650 -0.3243 -0.3896  0.3898
14379SOL    HW152105   0.442   7.134   0.724 -1.5154 -2.5838  0.9386
14379SOL    HW252106   0.439   7.189   0.582  1.2879 -0.5454  1.5751
14380SOL     OW52107   0.998   1.648   0.762  0.2438  0.0891  0.4335
14380SOL    HW152108   1.049   1.567   0.766 -0.4816 -0.3388  1.3695
14380SOL    HW252109   1.007   1.687   0.849 -1.5010 -0.3173  0.8418
14381SOL     OW52110   5.997   2.486   1.068 -0.6834  0.0242  0.6629
14381SOL    HW152111   5.908   2.521   1.066 -0.2965  1.0440  0.2690
14381SOL    HW252112   6.030   2.509   1.155  0.6529  3.6576 -0.5828
14382SOL     OW52113   3.650  12.043   6.396 -0.2819 -0.3884  0.0011
14382SOL    HW152114   3.709  11.978   6.433 -0.6520 -0.2464  0.8785
14382SOL    HW252115   3.692  12.072   6.315  0.5385 -0.7403  0.2976
14383SOL     OW52116  12.086   2.628   9.216  0.3042 -0.0052  0.4999
14383SOL    HW152117  12.155   2.677   9.171 -0.8583  1.9748  0.8015
14383SOL    HW252118  12.116   2.623   9.307  1.7450 -2.3739 -0.0100
14384SOL     OW52119   2.613   3.313   0.833 -0.2524 -0.2262  0.3764
14384SOL    HW152120   2.705   3.290   0.826  0.4915  2.2546  0.7597
14384SOL    HW252121   2.592   3.352   0.748 -0.3743  0.9238  0.9165
14385SOL     OW52122   8.340   2.198   9.922 -0.5484 -0.1805  0.0665
14385SOL    HW152123   8.271   2.147   9.964  0.3135 -0.8554  0.6863
14385SOL    HW252124   8.421   2.150   9.940  0.2104  1.0784  0.1389
14386SOL     OW52125  11.509   8.915   3.343 -0.3908  0.1962  0.7490
14386SOL    HW152126  11.450   8.950   3.276 -1.4180 -0.6823  1.1659
14386SOL    HW252127  11.451   8.886   3.413  0.6002  0.0502  1.5253
14387SOL     OW52128   6.275  10.843   4.408 -0.0364 -0.2183  0.2854
14387SOL    HW152129   6.354  10.823   4.459 -0.1217  0.0875  0.5413
14387SOL    HW252130   6.207  10.856   4.474 -0.2910 -0.4288  0.0656
14388SOL     OW52131   7.670  12.373   4.058  0.3227 -0.0934 -0.8513
14388SOL    HW152132   7.714  12.361   3.974  1.2314 -3.2128 -0.0621
14388SOL    HW252133   7.604  12.304   4.060  1.5927 -1.3476  1.7254
14389SOL     OW52134   6.140   6.305   8.708  0.1061 -0.4650 -0.1670
14389SOL    HW152135   6.056   6.349   8.717 -0.4096 -1.5636  0.5745
14389SOL    HW252136   6.128   6.245   8.634  0.9614  0.9154 -1.4947
14390SOL     OW52137   4.955  11.912   9.045 -0.0655 -0.0807 -0.5075
14390SOL    HW152138   5.011  11.987   9.025 -0.3881 -0.0444 -1.3036
14390SOL    HW252139   5.016  11.844   9.074  0.2087  0.5493  0.4425
14391SOL     OW52140   4.457   2.966   1.141  0.4948 -0.0953  0.1462
14391SOL    HW152141   4.484   2.875   1.142 -0.0286 -0.2647 -0.2971
14391SOL    HW252142   4.516   3.008   1.078 -0.3271 -0.4940 -0.9343
14392SOL     OW52143  10.853   0.263   1.204  0.1120  0.4298 -0.4543
14392SOL    HW152144  10.786   0.202   1.173  1.3511 -1.2452  0.0123
14392SOL    HW252145  10.861   0.328   1.133  0.5121 -1.3809 -2.1658
14393SOL     OW52146   3.226   6.862   1.916  0.4899 -0.4741  0.2339
14393SOL    HW152147   3.213   6.771   1.888  0.1949 -0.0224 -1.1693
14393SOL    HW252148   3.158   6.911   1.871  1.0537  0.5427  0.4645
14394SOL     OW52149  10.145   0.442  11.573  0.1204 -0.3245 -0.6386
14394SOL    HW152150  10.225   0.404  11.536  0.8786 -0.0609  0.6630
14394SOL    HW252151  10.135   0.397  11.657 -0.9516 -0.1508 -0.6714
14395SOL     OW52152   7.828   1.751   7.758  0.0807 -0.6609  0.3716
14395SOL    HW152153   7.848   1.751   7.851 -0.0437 -0.3985  0.3977
14395SOL    HW252154   7.892   1.691   7.720  1.2231  0.5113  0.3855
14396SOL     OW52155  11.952   4.007   7.942  0.0704 -0.3631 -0.3026
14396SOL    HW152156  11.857   3.999   7.935  0.1992 -0.4105 -3.5883
14396SOL    HW252157  11.977   3.949   8.014 -2.2257 -1.6364 -0.4686
14397SOL     OW52158   6.991   0.476   3.527  0.9525 -0.1552  0.4037
14397SOL    HW152159   6.928   0.404   3.519  1.5294 -0.6285 -0.0603
14397SOL    HW252160   6.947   0.551   3.489  1.1970 -0.8393 -1.3559
14398SOL     OW52161   7.904   1.176   6.697  0.2466 -0.3757 -0.3915
14398SOL    HW152162   7.877   1.123   6.772  1.3875 -0.0859  0.2572
14398SOL    HW252163   7.990   1.210   6.722 -0.2916  1.4950 -0.9393
14399SOL     OW52164   4.901   1.488   4.896 -0.5863 -0.1090  0.5824
14399SOL    HW152165   4.943   1.476   4.810 -1.5800 -0.6031  0.1482
14399SOL    HW252166   4.818   1.530   4.876 -1.1726 -0.9437  1.2353
14400SOL     OW52167   0.476   7.607   3.677 -0.0094 -0.1812 -0.4184
14400SOL    HW152168   0.560   7.571   3.704 -0.1641  0.2077  0.6230
14400SOL    HW252169   0.487   7.702   3.684 -0.2247 -0.0800 -1.2591
14401SOL     OW52170   6.297   4.384  11.359  0.1346 -0.6097  0.4424
14401SOL    HW152171   6.300   4.458  11.299 -1.2266 -1.1399 -0.3024
14401SOL    HW252172   6.334   4.419  11.441  0.4194  0.5959 -0.1741
14402SOL     OW52173   9.053   7.393   4.617  0.5776 -0.1314  0.2372
14402SOL    HW152174   8.963   7.427   4.619  1.1064  1.3029  1.7605
14402SOL    HW252175   9.077   7.398   4.524 -1.0259 -0.9289 -0.2656
14403SOL     OW52176  11.846   2.483   3.252 -0.1657 -0.0449  0.2755
14403SOL    HW152177  11.907   2.463   3.181  1.5122  0.5590  1.4780
14403SOL    HW252178  11.871   2.570   3.283 -1.5877  0.1892  0.8916
14404SOL     OW52179  10.432  10.285  11.260 -0.2780  0.3226  0.3321
14404SOL    HW152180  10.485  10.344  11.208  1.1599 -0.6252  0.6532
14404SOL    HW252181  10.351  10.333  11.278 -1.0271  0.5346 -3.0832
14405SOL     OW52182   7.900   5.224   7.531 -0.0076  0.3992  0.9441
14405SOL    HW152183   7.880   5.131   7.538  0.4463  0.1297 -0.8118
14405SOL    HW252184   7.958   5.241   7.606 -0.4127 -0.6281  1.5176
14406SOL     OW52185   9.627   7.441   5.508  0.3609 -0.1767 -0.1743
14406SOL    HW152186   9.623   7.413   5.600 -0.5224  0.7835  0.0964
14406SOL    HW252187   9.718   7.467   5.495  0.3809  0.1336  0.5641
14407SOL     OW52188   6.993  12.496   1.592  0.5495  0.6812 -0.6579
14407SOL    HW152189   7.029  12.466   1.509 -1.5456  0.7029 -1.6189
14407SOL    HW252190   7.030  12.436   1.657  0.4947 -0.7499 -1.8878
14408SOL     OW52191   1.247   2.411   5.078 -0.1775 -1.0481  0.3805
14408SOL    HW152192   1.277   2.323   5.101  2.5053 -1.2065 -2.9432
14408SOL    HW252193   1.318   2.469   5.106 -0.0873 -0.4706 -0.9758
14409SOL     OW52194   3.648   1.813  12.420 -0.1004 -0.4188  1.1814
14409SOL    HW152195   3.573   1.865  12.450  0.3810  1.2491 -0.3282
14409SOL    HW252196   3.715   1.879  12.399  1.5262 -1.8277  1.7631
14410SOL     OW52197   6.064   0.855   1.001  0.0213  0.4933 -0.0710
14410SOL    HW152198   6.026   0.895   1.080  0.5798  1.1324 -0.1222
14410SOL    HW252199   5.991   0.854   0.938 -1.0518 -1.9533  1.0965
14411SOL     OW52200   5.120  11.037  11.462 -0.4015  0.1486  0.6057
14411SOL    HW152201   5.032  11.010  11.491 -0.1859  0.9752  2.1644
14411SOL    HW252202   5.172  10.956  11.465 -0.9445 -0.2215  0.3012
14412SOL     OW52203   8.211   1.329   4.060 -0.1845  0.6447  0.5154
14412SOL    HW152204   8.295   1.289   4.040  0.0852  0.7321  1.4265
14412SOL    HW252205   8.223   1.422   4.039 -0.1035  0.6261  0.4804
14413SOL     OW52206   0.696   8.111   0.129 -0.2645 -0.4410 -0.0423
14413SOL    HW152207   0.778   8.080   0.167  0.1763 -0.8983 -1.2916
14413SOL    HW252208   0.636   8.118   0.203  0.7813 -0.4866  0.8368
14414SOL     OW52209   9.616   7.666   2.754  0.1731  0.0695 -0.2163
14414SOL    HW152210   9.695   7.716   2.772  0.5510 -0.8816  0.8853
14414SOL    HW252211   9.580   7.706   2.674  1.4630  0.8492 -0.4365
14415SOL     OW52212   1.939  11.630   4.070  0.0141  0.0142  0.3415
14415SOL    HW152213   2.009  11.565   4.063  0.7804  0.9063 -0.5334
14415SOL    HW252214   1.903  11.617   4.158  1.9917  0.2453  1.2312
14416SOL     OW52215   3.383   4.792   4.732  0.5429 -0.5725 -0.6763
14416SOL    HW152216   3.463   4.787   4.680  0.0484 -0.9382 -1.4294
14416SOL    HW252217   3.316   4.822   4.670  0.0533 -0.4672 -0.1081
14417SOL     OW52218   4.753  12.509   9.767 -0.6796  0.2370  0.5388
14417SOL    HW152219   4.664  12.544   9.774 -1.1848 -1.2953  2.7557
14417SOL    HW252220   4.799  12.544   9.843 -0.2339 -1.2638  0.9830
14418SOL     OW52221   1.890   9.089   0.246  0.2842  0.0131 -0.1617
14418SOL    HW152222   1.934   9.113   0.327 -0.5422  1.2889 -0.0670
14418SOL    HW252223   1.957   9.094   0.178  0.8652 -0.5977  0.3572
14419SOL     OW52224   2.507   1.381  11.180  0.2634 -0.5178  0.3495
14419SOL    HW152225   2.501   1.402  11.087 -0.3415 -3.1623 -0.2815
14419SOL    HW252226   2.418   1.356  11.205  0.5066 -0.2493  1.5414
14420SOL     OW52227   1.684  11.849   3.636 -0.0191  0.1507 -0.3035
14420SOL    HW152228   1.726  11.763   3.634  1.1673  0.7233 -1.7350
14420SOL    HW252229   1.597  11.833   3.600 -0.2713 -0.6599  0.6128
14421SOL     OW52230   0.939   2.347   9.397 -0.1089  0.0717  0.2075
14421SOL    HW152231   0.983   2.278   9.446 -0.8362 -0.5251  0.0378
14421SOL    HW252232   1.008   2.385   9.342  0.4190 -0.1335  0.7231
14422SOL     OW52233   0.337   2.012   5.726 -0.3862 -0.4372 -0.5842
14422SOL    HW152234   0.282   2.050   5.657  0.1348  0.3206 -0.6000
14422SOL    HW252235   0.391   1.947   5.681  0.4079  0.5034 -1.0357
14423SOL     OW52236   0.711   3.971   1.805 -0.7085 -0.3596  0.3072
14423SOL    HW152237   0.729   4.028   1.730 -1.2245 -0.4125  0.1403
14423SOL    HW252238   0.641   4.017   1.853 -1.5423 -1.1337 -0.1440
14424SOL     OW52239   4.233   4.633   3.953 -0.2847 -0.0671 -0.6370
14424SOL    HW152240   4.317   4.640   3.998  0.4360 -0.3447 -1.8865
14424SOL    HW252241   4.231   4.707   3.893 -1.0977  0.1325 -0.3808
14425SOL     OW52242   2.026   5.736   1.707  0.0451  0.0895 -0.3641
14425SOL    HW152243   2.015   5.750   1.613 -0.0728 -0.5569 -0.4478
14425SOL    HW252244   1.937   5.734   1.742  0.1135  2.9432  0.1709
14426SOL     OW52245   3.785   1.064  10.587 -0.0769  0.1811  0.1999
14426SOL    HW152246   3.697   1.091  10.615  0.4271  1.3017  0.7315
14426SOL    HW252247   3.826   1.030  10.666 -0.2813 -1.0969 -0.2133
14427SOL     OW52248  10.466   7.236   0.112  0.1287  0.0893 -0.8207
14427SOL    HW152249  10.410   7.159   0.107 -0.6846  0.5605  0.5707
14427SOL    HW252250  10.448   7.273   0.199  0.2433  2.0272 -1.5801
14428SOL     OW52251   9.232   7.546  11.143 -0.4621 -0.2594 -0.2559
14428SOL    HW152252   9.298   7.508  11.200 -0.8321  1.9895  1.8756
14428SOL    HW252253   9.280   7.608  11.088 -0.6177  0.7197  0.6735
14429SOL     OW52254  12.533   3.941   5.445  0.4142  0.3103  0.2234
14429SOL    HW152255  12.470   3.910   5.510 -0.4304 -1.0429 -1.1675
14429SOL    HW252256  12.616   3.903   5.473 -0.1223 -1.0789  0.0164
14430SOL     OW52257   3.122   5.996  11.726 -0.4617  0.4277  0.1657
14430SOL    HW152258   3.210   5.970  11.699 -0.8721 -0.9570  0.0765
14430SOL    HW252259   3.132   6.085  11.759  0.9482  0.3377  0.0371
14431SOL     OW52260  10.649   5.900   9.894  0.1950 -0.1663 -0.2095
14431SOL    HW152261  10.656   5.995   9.892  1.4196 -0.1529  1.7656
14431SOL    HW252262  10.740   5.869   9.896 -0.1788 -1.4092 -1.0253
14432SOL     OW52263   1.440   6.304   2.696  0.4149 -0.4402  0.2130
14432SOL    HW152264   1.443   6.395   2.668  1.1265 -0.5517 -0.1000
14432SOL    HW252265   1.348   6.279   2.691  0.3511 -0.0333 -0.6599
14433SOL     OW52266   2.163  11.696   9.603  0.8881  0.1223  0.0190
14433SOL    HW152267   2.093  11.645   9.645 -0.5086  1.4251 -0.6472
14433SOL    HW252268   2.170  11.659   9.515 -1.5224  2.2484 -1.1699
14434SOL     OW52269  10.545   5.604   2.780 -0.1424 -0.1322 -0.0233
14434SOL    HW152270  10.454   5.632   2.774 -0.1773 -0.1472  0.4196
14434SOL    HW252271  10.570   5.620   2.871  0.4896  0.4694 -0.2891
14435SOL     OW52272  10.130   6.245  12.208 -0.0959 -0.4226  0.5398
14435SOL    HW152273  10.102   6.253  12.117 -1.7527 -2.2944  0.8025
14435SOL    HW252274  10.222   6.221  12.203 -0.0296 -0.0029 -0.6155
14436SOL     OW52275  12.448   8.463   5.304 -0.0495  0.3860 -0.1146
14436SOL    HW152276  12.369   8.516   5.299 -0.5418 -0.3017  0.2486
14436SOL    HW252277  12.416   8.373   5.308  0.7833 -0.0403 -1.8797
14437SOL     OW52278   9.728  11.032  10.675 -0.4582  0.5455 -0.5493
14437SOL    HW152279   9.762  11.097  10.737 -1.4550 -1.0130  1.8174
14437SOL    HW252280   9.644  11.068  10.647 -0.0384  1.2331 -0.9655
14438SOL     OW52281  11.360   6.481   8.466  0.5406 -0.3358 -0.1846
14438SOL    HW152282  11.430   6.539   8.498  0.7932 -0.6493 -0.1622
14438SOL    HW252283  11.406   6.409   8.425  0.2458 -0.9526  0.5444
14439SOL     OW52284  12.065   7.013   6.531 -0.3096 -0.2248  0.3711
14439SOL    HW152285  12.036   6.927   6.499  0.3852  0.2393 -1.6573
14439SOL    HW252286  12.068   7.004   6.626  0.9715 -2.8486  0.1605
14440SOL     OW52287   5.948  10.502   0.308  0.4378  0.3879  0.2313
14440SOL    HW152288   5.953  10.441   0.234 -0.8239 -1.3449  1.4942
14440SOL    HW252289   5.941  10.588   0.268 -1.1941 -0.5767 -1.7273
14441SOL     OW52290   1.417   1.543   1.888 -0.2496  0.2335  0.2729
14441SOL    HW152291   1.471   1.554   1.966 -1.0530  0.9623  0.7470
14441SOL    HW252292   1.399   1.632   1.858 -1.1097  0.0068  0.0816
14442SOL     OW52293  11.824  10.350   2.075 -0.4816 -0.1916  0.1145
14442SOL    HW152294  11.800  10.326   2.164 -2.2204  0.0059 -0.2681
14442SOL    HW252295  11.878  10.429   2.085  0.3442 -0.8515  1.0290
14443SOL     OW52296   2.606   7.852   2.543 -0.0893  0.3748 -0.4544
14443SOL    HW152297   2.702   7.844   2.541 -0.1635 -0.9187  0.4843
14443SOL    HW252298   2.578   7.790   2.609 -1.4998  1.7756  0.3282
14444SOL     OW52299   3.971   6.935   8.237  0.1333 -0.0033  0.1893
14444SOL    HW152300   4.059   6.915   8.205  0.2875  1.6757 -0.5059
14444SOL    HW252301   3.930   6.849   8.247  0.4085 -0.7499 -3.5639
14445SOL     OW52302   2.165   1.353   4.724  0.1584  0.2800 -0.2711
14445SOL    HW152303   2.114   1.400   4.790  0.5500  0.7754 -0.3159
14445SOL    HW252304   2.234   1.309   4.774  2.1528  2.8785 -0.5747
14446SOL     OW52305   4.957   0.122  11.281 -0.2677 -0.5011 -0.7041
14446SOL    HW152306   4.958   0.126  11.376  0.5641  0.6805 -0.7359
14446SOL    HW252307   4.865   0.111  11.258 -0.4725 -0.8450  0.2268
14447SOL     OW52308   7.739  10.123   9.441 -0.4656  0.0880  0.0505
14447SOL    HW152309   7.753  10.046   9.386 -1.1080 -0.9236  1.2403
14447SOL    HW252310   7.650  10.114   9.473  0.1038  0.2543  1.8115
14448SOL     OW52311   8.203   3.235   8.622  0.5912  0.2057  0.0701
14448SOL    HW152312   8.222   3.143   8.602  0.0864  0.3476 -1.1571
14448SOL    HW252313   8.289   3.274   8.638  0.6562 -1.0173  3.2594
14449SOL     OW52314   1.825   0.271   4.515 -0.1590  0.8001  0.3704
14449SOL    HW152315   1.840   0.295   4.424 -0.0819  0.9286  0.4170
14449SOL    HW252316   1.887   0.325   4.565 -0.0997  0.6256  0.4863
14450SOL     OW52317   0.065   5.886  10.763  0.1069 -0.2334 -0.1980
14450SOL    HW152318  -0.028   5.893  10.785  0.3561  0.9821  0.5868
14450SOL    HW252319   0.069   5.901  10.669 -0.7418 -3.1271 -0.7895
14451SOL     OW52320   6.190   8.620   9.317  0.4554 -0.6185 -0.2282
14451SOL    HW152321   6.185   8.692   9.255  1.0156  0.7074  1.2213
14451SOL    HW252322   6.277   8.627   9.356 -0.9166  0.6150  3.0012
14452SOL     OW52323   4.113   9.473   2.870  0.3726  0.0193  0.3001
14452SOL    HW152324   4.065   9.487   2.788  1.7479 -3.2798 -1.3015
14452SOL    HW252325   4.045   9.465   2.937 -1.1367 -0.9532 -1.2533
14453SOL     OW52326   8.092   0.260   1.841 -0.0722  0.0466 -0.3752
14453SOL    HW152327   8.029   0.211   1.788  0.3789  0.9053 -1.7558
14453SOL    HW252328   8.041   0.332   1.878 -0.1197  0.1702 -0.6790
14454SOL     OW52329   1.785   8.768   2.945  0.1223  0.3093  0.2356
14454SOL    HW152330   1.732   8.692   2.919  1.7904 -0.2902 -1.6864
14454SOL    HW252331   1.873   8.747   2.914  0.6871  2.9214 -0.1456
14455SOL     OW52332   7.375   3.527  11.184 -0.1552 -0.3268 -0.1567
14455SOL    HW152333   7.349   3.618  11.170  2.3914  0.5202  0.0671
14455SOL    HW252334   7.407   3.498  11.098 -0.0461 -0.6904  0.0055
14456SOL     OW52335   7.527   1.244   6.566 -0.2195 -0.4176  0.4577
14456SOL    HW152336   7.581   1.166   6.574  0.1261 -0.3635 -1.1162
14456SOL    HW252337   7.473   1.229   6.488  0.8767  1.4807 -0.7511
14457SOL     OW52338   8.394   1.973   3.104  0.1888 -0.2548  0.5515
14457SOL    HW152339   8.351   2.014   3.028  1.8494  0.4137 -0.0661
14457SOL    HW252340   8.391   2.040   3.172  0.0022 -0.3146  0.6028
14458SOL     OW52341  12.521   1.921   5.116 -0.0291  0.1156  0.1096
14458SOL    HW152342  12.464   1.991   5.147 -0.0596  0.5431 -0.8867
14458SOL    HW252343  12.583   1.964   5.057 -0.6383 -0.8222 -1.2660
14459SOL     OW52344   8.255   2.521   0.365  0.0905  0.3853  0.2974
14459SOL    HW152345   8.225   2.431   0.348 -1.9193  1.2841 -1.3805
14459SOL    HW252346   8.349   2.518   0.352 -0.0667 -1.2690 -0.7824
14460SOL     OW52347  12.290   9.696   7.889  0.3165  0.2732  0.0194
14460SOL    HW152348  12.321   9.634   7.823  1.1081  1.7551 -1.0468
14460SOL    HW252349  12.207   9.658   7.919  0.9468 -1.4787 -0.3188
14461SOL     OW52350   8.440   2.481   1.783  0.2724 -0.2781  0.5925
14461SOL    HW152351   8.421   2.555   1.726  1.3792 -0.7557 -0.4402
14461SOL    HW252352   8.470   2.521   1.865  0.3792  0.4185  0.2186
14462SOL     OW52353  11.948   9.480   7.040 -0.6590  0.3000  0.3519
14462SOL    HW152354  11.886   9.423   7.085 -0.8560  0.3750  0.1772
14462SOL    HW252355  11.996   9.523   7.110  0.1316 -0.7705  0.4929
14463SOL     OW52356   4.576   6.623  10.498 -0.1433  0.0277  0.2994
14463SOL    HW152357   4.517   6.696  10.513 -0.4546  0.0342 -0.9343
14463SOL    HW252358   4.656   6.647  10.545 -0.4185  0.9102  0.3252
14464SOL     OW52359   2.378   2.320   2.159 -0.4885  0.4779 -0.5934
14464SOL    HW152360   2.323   2.399   2.163 -0.5994  0.3600  0.8668
14464SOL    HW252361   2.460   2.350   2.120 -0.6088  1.2797 -0.2587
14465SOL     OW52362   9.055   1.264   7.430 -0.5987 -0.1711  0.3801
14465SOL    HW152363   9.005   1.275   7.511  1.1926  0.3491  1.5003
14465SOL    HW252364   9.140   1.304   7.450  0.0545 -0.4576 -1.6226
14466SOL     OW52365   0.237   5.102   6.592  0.1249 -0.1438 -0.3213
14466SOL    HW152366   0.169   5.126   6.529  0.7382  0.4476 -0.7784
14466SOL    HW252367   0.201   5.127   6.677  0.6426  2.3637 -0.7472
14467SOL     OW52368   7.817   6.244   7.120  0.3847 -0.0327 -0.9274
14467SOL    HW152369   7.812   6.158   7.079 -1.4498 -1.1968  1.4567
14467SOL    HW252370   7.748   6.295   7.076 -1.3782 -1.1733  0.3726
14468SOL     OW52371   5.833   1.636  11.878  0.3020 -0.1349 -0.0748
14468SOL    HW152372   5.806   1.643  11.969 -1.3705  0.3451 -0.5750
14468SOL    HW252373   5.757   1.666  11.828  0.0084 -3.2576 -1.7319
14469SOL     OW52374   8.588  10.530   3.772 -0.0963 -0.0715 -0.3978
14469SOL    HW152375   8.616  10.592   3.840 -0.7217 -0.8743  0.6182
14469SOL    HW252376   8.517  10.576   3.726  1.7987  1.3793 -2.0281
14470SOL     OW52377   1.382  11.797   4.074  0.0836  0.0087  0.7669
14470SOL    HW152378   1.322  11.728   4.048 -0.3010  0.0250  1.5901
14470SOL    HW252379   1.374  11.802   4.169 -0.2621  1.5046  0.6834
14471SOL     OW52380   5.257  10.542   6.743  0.2478 -0.0048  0.5649
14471SOL    HW152381   5.249  10.605   6.671 -1.0496  1.1493  1.6413
14471SOL    HW252382   5.167  10.511   6.758  0.7590 -1.5820  0.5415
14472SOL     OW52383   4.793   4.259   5.464  0.5372 -0.2061  0.6919
14472SOL    HW152384   4.802   4.166   5.443  1.1373 -0.1805  0.8073
14472SOL    HW252385   4.883   4.290   5.474  0.4678  0.8097 -1.2071
14473SOL     OW52386  11.869   8.501   4.118 -0.6366  0.0809 -0.2037
14473SOL    HW152387  11.965   8.503   4.109 -0.5707 -0.8008  0.1892
14473SOL    HW252388  11.855   8.485   4.211 -1.1143 -1.8398 -0.5490
14474SOL     OW52389   7.132   3.086   6.710  0.6149  0.1581 -0.3241
14474SOL    HW152390   7.095   3.023   6.773  1.1542  0.4984  0.3446
14474SOL    HW252391   7.120   3.171   6.751  1.4944  0.3354 -0.4179
14475SOL     OW52392   5.346   7.607   7.502  0.6157 -0.0881  0.0850
14475SOL    HW152393   5.374   7.645   7.419  1.9508 -0.9736  0.0908
14475SOL    HW252394   5.283   7.539   7.477 -0.5955  1.0423 -0.0269
14476SOL     OW52395   4.741  10.599   1.530 -0.0672 -0.1302  0.3199
14476SOL    HW152396   4.733  10.629   1.621  1.3879  0.1792  0.3667
14476SOL    HW252397   4.655  10.564   1.509 -0.4811 -0.0435  1.7666
14477SOL     OW52398  11.470   5.059   9.834 -0.0501 -0.1726  0.3347
14477SOL    HW152399  11.433   5.128   9.780  1.2007 -0.1690 -0.5790
14477SOL    HW252400  11.511   5.105   9.907  2.6105  0.3543 -1.3301
14478SOL     OW52401   8.928   6.917  12.297 -0.6563 -0.3560 -0.4555
14478SOL    HW152402   8.890   6.836  12.263  1.6230 -1.6621 -0.0820
14478SOL    HW252403   8.997   6.940  12.235  0.1794  0.0498  0.5725
14479SOL     OW52404   1.466   0.568   3.344  0.3982 -0.2284 -0.0253
14479SOL    HW152405   1.390   0.512   3.330  1.9055 -2.2800 -0.3562
14479SOL    HW252406   1.461   0.592   3.437  0.1981 -1.6933  0.3684
14480SOL     OW52407   6.890  11.904  12.494  0.4252  0.2480  0.3847
14480SOL    HW152408   6.932  11.926  12.577 -0.4015  0.1006  0.8445
14480SOL    HW252409   6.797  11.921  12.508  0.3073  0.4495 -0.5888
14481SOL     OW52410  12.127   7.285   1.393 -0.1925  0.1103  0.2901
14481SOL    HW152411  12.068   7.359   1.409  1.4423  1.3290  1.0197
14481SOL    HW252412  12.205   7.305   1.446  1.1050 -1.1289 -1.0665
14482SOL     OW52413   4.698   5.966  11.350  0.0280 -0.5722  0.2813
14482SOL    HW152414   4.779   6.018  11.351  0.1980 -0.8365  0.6784
14482SOL    HW252415   4.729   5.876  11.342 -0.2676 -0.6091 -0.4864
14483SOL     OW52416   6.848   0.239  10.883  0.4093 -0.7421 -0.2169
14483SOL    HW152417   6.768   0.187  10.884 -0.3828  0.3986 -0.9562
14483SOL    HW252418   6.870   0.252  10.975  0.9142 -2.7339 -0.0025
14484SOL     OW52419   0.408   8.731   1.067  0.3801  0.1820  0.1455
14484SOL    HW152420   0.371   8.777   0.992  0.4975 -0.6501 -0.4333
14484SOL    HW252421   0.393   8.639   1.049 -0.8126 -0.0076  1.7864
14485SOL     OW52422   1.168   7.376   7.489 -0.2585 -0.1413  0.0569
14485SOL    HW152423   1.151   7.421   7.406  0.2270 -0.2220 -0.0842
14485SOL    HW252424   1.092   7.399   7.544  0.8812  2.5402  0.6963
14486SOL     OW52425   5.227   7.031   9.839  0.3940  0.3045 -0.0776
14486SOL    HW152426   5.277   7.021   9.758  0.3202 -0.8493  0.0060
14486SOL    HW252427   5.273   6.978   9.903  0.0138  0.5858  0.4358
14487SOL     OW52428   5.106   4.355   2.999 -0.4933 -0.0199  0.0007
14487SOL    HW152429   5.040   4.398   2.945 -0.5694  1.2778  1.0471
14487SOL    HW252430   5.119   4.416   3.072  1.9217 -0.1769 -0.2114
14488SOL     OW52431   2.431  11.205   4.071 -0.1662  0.0428  0.0072
14488SOL    HW152432   2.402  11.295   4.061  0.8909  0.7721  2.7474
14488SOL    HW252433   2.368  11.166   4.132 -1.8179 -1.7943 -2.6266
14489SOL     OW52434  10.015   3.064   2.543 -0.1038 -0.1364  0.0431
14489SOL    HW152435   9.985   2.979   2.574  1.5870 -1.3935 -1.4813
14489SOL    HW252436   9.988   3.067   2.451  1.3767  0.1535 -0.4163
14490SOL     OW52437  10.653   7.727   5.782 -0.6759 -0.6763  0.1679
14490SOL    HW152438  10.728   7.667   5.780 -1.3185 -1.6938  2.6020
14490SOL    HW252439  10.601   7.702   5.705  0.5444 -1.2027 -0.5271
14491SOL     OW52440   5.666  11.826   8.824 -0.1537 -0.2470  0.3451
14491SOL    HW152441   5.598  11.759   8.821 -0.5727  0.1132  1.2848
14491SOL    HW252442   5.747  11.780   8.803 -0.3262 -1.2078  1.6751
14492SOL     OW52443   7.967   7.455   5.677  0.2317 -0.0357  0.5758
14492SOL    HW152444   7.887   7.505   5.690  1.2503  1.8600  0.0411
14492SOL    HW252445   8.024   7.513   5.626  1.7224 -1.5442  0.4015
14493SOL     OW52446   2.843  10.164   4.839 -0.0847  0.2653 -0.4388
14493SOL    HW152447   2.869  10.239   4.893  0.1694 -0.0806 -0.0652
14493SOL    HW252448   2.801  10.104   4.901 -1.7599  0.7958 -1.0348
14494SOL     OW52449   5.803  11.750   1.971 -0.2739 -0.3545  0.2280
14494SOL    HW152450   5.776  11.809   1.901 -1.9585 -0.7989  0.4448
14494SOL    HW252451   5.863  11.689   1.930 -0.2883  0.1308 -0.5333
14495SOL     OW52452  11.849   6.783   5.343  0.3356 -0.4289 -0.2897
14495SOL    HW152453  11.804   6.818   5.420 -1.7240  1.5884 -2.2294
14495SOL    HW252454  11.806   6.699   5.326 -2.4946  1.1692 -1.7342
14496SOL     OW52455  10.812  12.331   3.678 -0.1804  0.6661  0.4874
14496SOL    HW152456  10.726  12.365   3.655 -0.2526  0.1263 -0.0561
14496SOL    HW252457  10.794  12.246   3.718  0.1101  0.4320  0.1280
14497SOL     OW52458  11.267  12.527  12.483  0.3175  0.2209  0.5294
14497SOL    HW152459  11.249  12.479  12.564  1.0117 -1.8492 -0.4768
14497SOL    HW252460  11.184  12.525  12.435  0.6545 -1.1183 -0.0415
14498SOL     OW52461   4.242  12.582  10.875 -0.0362 -0.5661  0.0428
14498SOL    HW152462   4.314  12.644  10.892 -0.6102 -0.1627  1.1092
14498SOL    HW252463   4.271  12.532  10.799  1.9994 -1.3286  1.2167
14499SOL     OW52464   1.465   3.012   7.277  0.4362  0.0584  0.2723
14499SOL    HW152465   1.496   3.059   7.354  0.9418  0.0859  0.0557
14499SOL    HW252466   1.511   2.928   7.280 -0.5850 -0.5114  0.7504
14500SOL     OW52467   4.469   2.602   1.769 -0.7261  0.0302 -0.6299
14500SOL    HW152468   4.485   2.683   1.818  2.9719  0.0897 -1.6460
14500SOL    HW252469   4.471   2.533   1.836  1.1662  0.3803 -0.2887
14501SOL     OW52470   4.209   0.670   4.500 -0.5692 -0.3231 -0.5707
14501SOL    HW152471   4.221   0.747   4.555  0.2210 -1.0011  0.2264
14501SOL    HW252472   4.154   0.611   4.551 -0.2390 -0.7586 -0.7155
14502SOL     OW52473   7.921   0.723   4.716  0.4582 -0.0053 -0.3733
14502SOL    HW152474   7.827   0.738   4.707  0.5298 -0.1054 -1.5453
14502SOL    HW252475   7.958   0.750   4.631  1.5364  0.3780  0.1867
14503SOL     OW52476   7.104   4.970  10.902 -0.8326 -0.1442  0.2271
14503SOL    HW152477   7.184   4.989  10.952 -0.9622 -0.8362  0.7075
14503SOL    HW252478   7.066   4.894  10.945 -0.9830 -0.7311 -0.8990
14504SOL     OW52479  10.217  10.160   9.285  0.1237 -0.1273  0.4457
14504SOL    HW152480  10.228  10.244   9.331 -2.4682 -0.4091  1.7628
14504SOL    HW252481  10.182  10.101   9.351 -1.6480 -1.1793 -1.3211
14505SOL     OW52482   7.479   0.366   1.686 -0.6556 -0.6284  0.2933
14505SOL    HW152483   7.494   0.412   1.769  1.0598  0.8629 -0.7721
14505SOL    HW252484   7.419   0.422   1.637 -0.4822 -0.7513 -0.0630
14506SOL     OW52485   5.453   6.406   3.013  0.5414  0.1997  0.3591
14506SOL    HW152486   5.366   6.432   3.044  0.4537  1.0694 -0.5914
14506SOL    HW252487   5.486   6.348   3.082 -0.9106 -0.3945  0.6001
14507SOL     OW52488   8.885   1.591   5.411 -0.3377 -0.6422 -0.6113
14507SOL    HW152489   8.829   1.669   5.415  0.5381 -0.0509  0.6923
14507SOL    HW252490   8.856   1.545   5.332 -1.1982  0.7585 -1.1484
14508SOL     OW52491   7.395   0.468  10.217  0.0939  0.1426  0.3286
14508SOL    HW152492   7.461   0.458  10.286  2.0340  1.0352 -1.2797
14508SOL    HW252493   7.351   0.383  10.213  1.9534 -0.8977  0.7167
14509SOL     OW52494   5.702   6.347   1.177  0.3946 -0.4350  0.5028
14509SOL    HW152495   5.681   6.397   1.255  0.9584 -0.5230  0.7205
14509SOL    HW252496   5.626   6.290   1.163  0.1649 -0.2055  0.8109
14510SOL     OW52497   5.161  12.535  10.046  0.2221 -0.5444  0.7005
14510SOL    HW152498   5.138  12.474  10.116 -1.0824 -1.4045 -0.4261
14510SOL    HW252499   5.179  12.479   9.970 -0.3352  0.4212 -0.1827
14511SOL     OW52500   9.870  11.073   7.379 -0.4503 -0.2516 -0.1876
14511SOL    HW152501   9.785  11.071   7.336 -0.8680  0.6828  0.5589
14511SOL    HW252502   9.929  11.112   7.314 -0.1924 -2.3391 -1.3043
14512SOL     OW52503   0.498  12.182   9.852  0.0558  0.5770  0.0408
14512SOL    HW152504   0.519  12.107   9.907 -0.9109  0.4093  0.1855
14512SOL    HW252505   0.500  12.148   9.763 -0.8632  0.2524  0.1346
14513SOL     OW52506  12.538   0.395   2.166 -0.1995 -0.2097 -0.3900
14513SOL    HW152507  12.481   0.323   2.140  0.9222 -0.9722 -0.8470
14513SOL    HW252508  12.572   0.430   2.083 -0.5741  0.7293 -0.1656
14514SOL     OW52509   5.188   4.390   8.787 -0.4891  0.2805 -0.4983
14514SOL    HW152510   5.137   4.467   8.760  0.4627  0.9914 -0.3412
14514SOL    HW252511   5.211   4.347   8.705 -3.6846 -1.6878 -0.5084
14515SOL     OW52512   4.148   6.478   3.347 -0.2666 -0.2432 -0.5009
14515SOL    HW152513   4.096   6.518   3.277 -0.5318 -0.5753 -0.4989
14515SOL    HW252514   4.083   6.437   3.404 -0.0030 -0.5981 -0.4566
14516SOL     OW52515   7.312   9.183   1.280 -0.3166 -0.4380 -0.3042
14516SOL    HW152516   7.266   9.099   1.279 -3.0040  0.9499 -0.9472
14516SOL    HW252517   7.390   9.168   1.226 -0.8495 -2.4210 -0.5969
14517SOL     OW52518   8.381  10.087   7.125 -0.1503  0.0413  0.2259
14517SOL    HW152519   8.329  10.156   7.085 -1.4695 -1.1501 -0.2132
14517SOL    HW252520   8.378  10.015   7.062 -0.0880 -0.9480  1.3175
14518SOL     OW52521   6.980   1.552   6.842 -0.0102 -0.1295 -0.2546
14518SOL    HW152522   7.035   1.484   6.882 -0.1062 -0.1656 -0.1840
14518SOL    HW252523   6.936   1.594   6.916 -1.6465 -1.4350 -0.4265
14519SOL     OW52524   9.775   2.588   7.694  0.5470 -0.2049  0.1427
14519SOL    HW152525   9.853   2.639   7.669 -0.3154  1.3068  0.4345
14519SOL    HW252526   9.736   2.638   7.766 -0.2443 -1.3931  0.5614
14520SOL     OW52527   4.724   0.785   8.528 -0.3495  0.1362 -0.3730
14520SOL    HW152528   4.738   0.790   8.433 -0.9508  1.8244 -0.4021
14520SOL    HW252529   4.772   0.860   8.564 -1.5908  0.5681  0.4528
14521SOL     OW52530   8.701   1.340   1.070  0.2641 -0.5994  0.5530
14521SOL    HW152531   8.682   1.354   0.977  0.9323  1.0071  0.6351
14521SOL    HW252532   8.615   1.339   1.112  0.0077 -0.1589  0.0606
14522SOL     OW52533   9.242  10.269   6.078  0.0255 -0.4715 -0.0503
14522SOL    HW152534   9.258  10.176   6.060  0.8073 -0.5108  0.7692
14522SOL    HW252535   9.259  10.313   5.995 -1.6920 -1.1886 -0.8268
14523SOL     OW52536   5.768   3.075   6.775 -0.4698 -0.5388  0.1569
14523SOL    HW152537   5.822   2.999   6.754  1.7083  1.1965 -1.0103
14523SOL    HW252538   5.775   3.084   6.870  0.9276 -0.6716  0.0888
14524SOL     OW52539   6.090   6.776  10.511 -0.2964  0.2903  0.1609
14524SOL    HW152540   6.143   6.744  10.584  1.3100 -2.0606 -1.8498
14524SOL    HW252541   6.155   6.808  10.447 -1.4631  0.0899 -1.1809
14525SOL     OW52542   8.299  10.084   5.155 -0.7680  0.5944  0.3309
14525SOL    HW152543   8.354  10.161   5.171  2.6899 -1.3751 -1.2373
14525SOL    HW252544   8.297  10.038   5.239  2.0628 -0.4536 -0.0839
14526SOL     OW52545   8.171   7.245   0.883  0.5452  0.3867  0.3954
14526SOL    HW152546   8.161   7.176   0.948  0.1528  0.1248  0.0628
14526SOL    HW252547   8.113   7.315   0.912  0.1165  0.1358  0.1511
14527SOL     OW52548   8.792   4.979   3.837 -0.0728  0.1091 -0.8030
14527SOL    HW152549   8.717   4.921   3.824  0.6860 -0.7682 -1.3828
14527SOL    HW252550   8.835   4.982   3.751  0.1475  1.1978 -0.6741
14528SOL     OW52551   7.418  11.800   6.794 -0.1562 -0.3081  0.4254
14528SOL    HW152552   7.460  11.886   6.791  0.8448 -0.7966  0.0378
14528SOL    HW252553   7.344  11.808   6.734 -0.8539  0.6598  1.3606
14529SOL     OW52554   5.444   0.971   4.064 -0.0259 -0.8152 -0.2882
14529SOL    HW152555   5.476   1.060   4.054 -1.8065  0.1927  2.0042
14529SOL    HW252556   5.375   0.963   3.998  1.5707 -1.3453 -1.9862
14530SOL     OW52557   4.185   8.355  10.705  0.3627  0.2289 -0.2127
14530SOL    HW152558   4.157   8.419  10.770  0.4548 -0.0994  0.1517
14530SOL    HW252559   4.277   8.337  10.726  0.4063  0.1492 -0.4590
14531SOL     OW52560  10.748  10.569   8.407  0.1078 -0.1787 -0.5578
14531SOL    HW152561  10.725  10.560   8.315 -0.8154  0.4507 -0.4085
14531SOL    HW252562  10.744  10.663   8.424 -1.2078 -0.3772  0.4575
14532SOL     OW52563   0.180   7.854   2.088 -0.3589  0.3215  0.4597
14532SOL    HW152564   0.115   7.785   2.079 -0.2563  0.3266 -0.4006
14532SOL    HW252565   0.263   7.808   2.103 -0.1860  0.2184 -0.7258
14533SOL     OW52566   4.765   6.501   4.356  0.4714 -0.4880  0.0213
14533SOL    HW152567   4.750   6.568   4.288  1.8122  0.1797  0.3416
14533SOL    HW252568   4.826   6.439   4.315  1.1462 -0.1772  0.5350
14534SOL     OW52569   8.003   3.855   1.878  0.0751  0.5608  0.3336
14534SOL    HW152570   8.090   3.851   1.917 -0.3686 -0.0845  1.2930
14534SOL    HW252571   7.952   3.790   1.926 -0.4390 -0.4716 -1.4906
14535SOL     OW52572   2.805   4.987   4.318 -0.1243  0.0320  0.1356
14535SOL    HW152573   2.824   5.039   4.397 -1.3243 -0.0036  0.4729
14535SOL    HW252574   2.808   4.896   4.348 -1.9730  0.0576  0.5035
14536SOL     OW52575  11.759   4.390  11.675 -0.1793  0.8626 -0.6361
14536SOL    HW152576  11.755   4.404  11.770  1.0270 -0.3992 -0.3608
14536SOL    HW252577  11.753   4.478  11.638 -2.5348  1.2768  0.4866
14537SOL     OW52578   8.419   4.223  11.998 -0.6217  0.4134  0.2422
14537SOL    HW152579   8.489   4.174  11.955 -1.5859  0.1468 -1.1028
14537SOL    HW252580   8.462   4.266  12.072  0.8983  0.0518 -0.3793
14538SOL     OW52581   1.212   8.715   1.935  0.0332 -0.6707 -0.6281
14538SOL    HW152582   1.197   8.803   1.902 -0.3389 -0.7342 -0.6295
14538SOL    HW252583   1.135   8.695   1.987  2.0601  0.8079  3.3875
14539SOL     OW52584   9.809   7.683   5.669  0.2937  0.0970 -0.4376
14539SOL    HW152585   9.831   7.656   5.579 -1.0251  1.2971 -1.1753
14539SOL    HW252586   9.758   7.611   5.704  2.1855 -1.1087 -0.0105
14540SOL     OW52587   6.358   5.118   6.130  0.2475  0.8870 -0.4942
14540SOL    HW152588   6.362   5.026   6.156 -1.5621  0.8168 -0.3419
14540SOL    HW252589   6.449   5.147   6.130  1.1465 -1.5363 -2.9554
14541SOL     OW52590   0.467   8.232   0.885 -0.0136  0.0288 -0.3574
14541SOL    HW152591   0.461   8.152   0.831  0.8722 -0.0505 -0.3484
14541SOL    HW252592   0.560   8.242   0.902 -0.3024 -0.1498  1.4890
14542SOL     OW52593  12.284   0.899   9.338  0.2158 -0.0374 -0.2038
14542SOL    HW152594  12.246   0.945   9.263  1.9910 -0.0160 -1.1393
14542SOL    HW252595  12.291   0.967   9.406 -2.0256 -0.2146  0.2739
14543SOL     OW52596   7.506   2.037   7.620 -0.0285  0.4775  0.1414
14543SOL    HW152597   7.545   2.114   7.579  1.3652 -0.7371 -0.9304
14543SOL    HW252598   7.452   2.072   7.691  0.4173  2.4340 -0.4298
14544SOL     OW52599   4.674   6.307   0.385  0.0325 -0.2591 -0.0025
14544SOL    HW152600   4.732   6.382   0.399 -0.7264  0.3125  0.1031
14544SOL    HW252601   4.678   6.259   0.467 -0.4310  0.3313  0.3711
14545SOL     OW52602   3.186   9.501  10.241  0.5075 -0.2390 -0.7148
14545SOL    HW152603   3.265   9.454  10.268 -0.1176  0.3831  2.7670
14545SOL    HW252604   3.128   9.495  10.317 -2.4015  0.2693 -2.7252
14546SOL     OW52605   7.602   7.108   5.078  0.6144  0.0920  0.2839
14546SOL    HW152606   7.633   7.178   5.020 -1.6746  0.5035 -0.5466
14546SOL    HW252607   7.593   7.032   5.021  1.2151 -0.3503  0.7667
14547SOL     OW52608   1.750   8.157   3.058 -0.1112  0.2171 -0.0415
14547SOL    HW152609   1.674   8.100   3.054 -0.1678  0.2915 -0.0328
14547SOL    HW252610   1.721   8.232   3.110  0.9996 -1.3863  3.1991
14548SOL     OW52611   3.436   0.958   6.220 -0.0565  0.1177 -0.2453
14548SOL    HW152612   3.428   0.867   6.191  0.6011 -0.0387  0.0398
14548SOL    HW252613   3.436   0.952   6.316 -0.7013  0.4901 -0.2120
14549SOL     OW52614   3.796   5.164   7.667 -0.7893  0.2048  0.2446
14549SOL    HW152615   3.889   5.154   7.647 -0.2185 -0.4963  2.7951
14549SOL    HW252616   3.758   5.078   7.648 -1.2543  0.8532 -2.0345
14550SOL     OW52617   2.200   4.589   2.888  0.8244  0.2284 -0.5721
14550SOL    HW152618   2.196   4.573   2.982  1.6533  2.8387 -0.0174
14550SOL    HW252619   2.111   4.615   2.864  0.7880  0.2981 -0.3602
14551SOL     OW52620   6.228   9.650   1.478 -0.0906 -0.2140  0.0520
14551SOL    HW152621   6.246   9.576   1.536 -0.4345  0.4694  1.0493
14551SOL    HW252622   6.165   9.704   1.526  0.8569  1.2158 -0.2476
14552SOL     OW52623   4.028  12.356   8.911 -0.1650  0.3777  0.3031
14552SOL    HW152624   4.074  12.291   8.963 -1.6535 -0.1903  0.9920
14552SOL    HW252625   3.982  12.305   8.844  1.7265  1.1015 -1.6431
14553SOL     OW52626   2.953  10.775   6.655 -0.3645 -0.2314  0.4146
14553SOL    HW152627   2.983  10.702   6.601 -0.2586 -0.6662  1.0515
14553SOL    HW252628   2.883  10.816   6.603 -1.8179 -1.9880  0.8798
14554SOL     OW52629   3.915  11.211   8.854 -0.3960 -0.5614 -0.2036
14554SOL    HW152630   3.991  11.231   8.909  0.0951  1.0617 -1.3985
14554SOL    HW252631   3.935  11.250   8.769 -2.5093 -0.1734 -0.5967
14555SOL     OW52632   8.650   8.287  12.165  0.5566 -0.2133  0.5312
14555SOL    HW152633   8.703   8.220  12.122  1.2628  0.0320  1.0035
14555SOL    HW252634   8.712   8.334  12.222  0.4296  1.8542 -0.9252
14556SOL     OW52635  12.231   4.090   4.031  0.4276 -0.5205 -0.6331
14556SOL    HW152636  12.240   4.119   4.122  1.2520 -1.6786 -0.3209
14556SOL    HW252637  12.239   4.170   3.979  0.5553  0.0760  0.2819
14557SOL     OW52638   0.926  10.213   5.035 -0.1073 -0.1477  0.0730
14557SOL    HW152639   0.871  10.249   4.966  0.1597  1.5854  0.7155
14557SOL    HW252640   0.937  10.121   5.012 -0.0339  0.3720 -2.1858
14558SOL     OW52641   4.413   6.666   8.092  0.1992 -0.2202  0.1510
14558SOL    HW152642   4.385   6.661   8.001  1.8681  1.4197 -0.5124
14558SOL    HW252643   4.504   6.634   8.091  0.8189  1.4155  0.9093
14559SOL     OW52644  10.915   9.565  10.698  0.1209 -0.5225  0.4090
14559SOL    HW152645  10.925   9.660  10.698 -2.0574 -0.2201  1.3739
14559SOL    HW252646  10.987   9.533  10.752  1.8595  0.3897 -1.2664
14560SOL     OW52647   5.279   9.191   9.626 -0.0245  0.3170  0.1696
14560SOL    HW152648   5.281   9.258   9.558  1.0980  1.3947  1.2059
14560SOL    HW252649   5.268   9.240   9.708 -1.8674 -0.9665  0.7590
14561SOL     OW52650   6.948   7.494   3.794 -0.3414 -0.0413 -0.3527
14561SOL    HW152651   6.986   7.411   3.825  0.5354  0.6375  0.4354
14561SOL    HW252652   7.010   7.525   3.728  1.4730  1.8458  2.0148
14562SOL     OW52653   5.495   9.288   4.681  0.3533 -0.5694 -0.2840
14562SOL    HW152654   5.545   9.262   4.604  2.1533  1.6805  0.0382
14562SOL    HW252655   5.466   9.205   4.720  1.7406 -1.8448 -1.8284
14563SOL     OW52656   9.714   6.049  10.940  0.3655 -0.4337 -0.2911
14563SOL    HW152657   9.722   5.971  10.996  0.3703 -0.2452 -0.0297
14563SOL    HW252658   9.783   6.108  10.971 -0.8827  0.4847  0.8299
14564SOL     OW52659   0.205   1.974   9.424  0.3021  0.0421 -0.0593
14564SOL    HW152660   0.181   1.884   9.444  0.3112 -0.0727 -0.5393
14564SOL    HW252661   0.288   1.988   9.469  1.0503 -0.6698 -1.1485
14565SOL     OW52662   1.142   0.693   0.240 -0.2626 -0.1883 -0.4206
14565SOL    HW152663   1.105   0.725   0.322  0.3275 -0.4256 -0.0575
14565SOL    HW252664   1.083   0.622   0.213  1.0171 -2.0077  1.2503
14566SOL     OW52665   5.904  11.733   9.554 -0.1446  0.0961 -0.1236
14566SOL    HW152666   5.953  11.717   9.473  0.7600  0.6715  0.2878
14566SOL    HW252667   5.875  11.647   9.582  2.1490 -0.5301  0.5347
14567SOL     OW52668   4.816  10.853   2.003 -0.0745  0.1762  0.1530
14567SOL    HW152669   4.811  10.844   2.098  0.9918  0.0319  0.1981
14567SOL    HW252670   4.908  10.870   1.984  0.1357 -1.9138 -1.0285
14568SOL     OW52671   8.977   4.224   4.204  0.4228 -0.1257 -0.4197
14568SOL    HW152672   8.967   4.237   4.298  0.9978  0.7611 -0.4657
14568SOL    HW252673   9.031   4.146   4.196  0.5503 -0.0844 -0.0068
14569SOL     OW52674   5.099   1.055   5.278 -0.4571  0.4174 -0.2775
14569SOL    HW152675   5.139   1.099   5.203  0.1935 -0.5121 -0.4841
14569SOL    HW252676   5.146   1.089   5.354 -0.5116  0.6861 -0.3611
14570SOL     OW52677   6.022   1.445  11.879  0.0389 -0.4717 -0.1257
14570SOL    HW152678   5.960   1.373  11.882 -0.5843 -0.0367 -1.5686
14570SOL    HW252679   5.967   1.524  11.878  0.5398 -0.0911 -1.9957
14571SOL     OW52680   2.641  10.571   9.317  0.4025 -0.2332 -0.1551
14571SOL    HW152681   2.672  10.536   9.401  0.0841 -0.5696 -0.1755
14571SOL    HW252682   2.721  10.582   9.265  0.3814 -3.4772 -1.1303
14572SOL     OW52683   0.087  11.529   6.869  0.2528 -0.0352 -0.1028
14572SOL    HW152684   0.180  11.512   6.885  0.5480  1.0831 -0.5257
14572SOL    HW252685   0.052  11.444   6.840  0.9612 -0.6538  0.7850
14573SOL     OW52686   9.980   3.614   5.401 -0.3989 -0.7274 -0.3378
14573SOL    HW152687   9.989   3.665   5.321  0.2134 -1.7961 -0.9676
14573SOL    HW252688   9.970   3.680   5.470  0.4777  0.2624 -1.1145
14574SOL     OW52689   3.576  10.309   1.305  0.4643 -0.0852 -0.6430
14574SOL    HW152690   3.611  10.351   1.227 -0.0722  2.5947  0.4675
14574SOL    HW252691   3.486  10.341   1.312  0.2180 -0.9523  0.6142
14575SOL     OW52692   4.788   9.224   2.044  0.3776  0.1964 -0.0575
14575SOL    HW152693   4.832   9.168   2.108 -1.3027 -0.0657  0.9452
14575SOL    HW252694   4.703   9.243   2.084 -0.1528  1.2390 -1.5895
14576SOL     OW52695   1.566   5.573   7.785  0.3865  0.1853  0.1813
14576SOL    HW152696   1.535   5.515   7.855  2.9605 -0.7675  0.6618
14576SOL    HW252697   1.511   5.552   7.710 -0.8873 -0.4884  1.2668
14577SOL     OW52698  11.625   5.146   1.881 -0.3737 -0.2280 -0.1087
14577SOL    HW152699  11.701   5.121   1.829 -0.2544  1.7032 -0.9236
14577SOL    HW252700  11.566   5.189   1.819 -0.4579  1.6883  1.2214
14578SOL     OW52701  10.487   6.013   6.841  0.0743 -0.6432 -0.4405
14578SOL    HW152702  10.418   6.013   6.775 -0.9661 -0.2591  0.6203
14578SOL    HW252703  10.563   5.976   6.796 -0.9569 -1.5629 -1.4745
14579SOL     OW52704   0.912   5.660   5.388  0.0628 -0.3304  0.3998
14579SOL    HW152705   0.877   5.617   5.310 -0.2535 -1.7588  1.2833
14579SOL    HW252706   0.940   5.588   5.445  0.3781  0.6692  1.5646
14580SOL     OW52707  10.355   0.526  10.130 -0.1946  0.6557 -0.2155
14580SOL    HW152708  10.411   0.589  10.085 -0.7102  2.7589  1.9223
14580SOL    HW252709  10.312   0.576  10.199  1.3854 -2.4897  3.4027
14581SOL     OW52710   1.182  11.444   9.808 -0.1186  0.4792 -0.3097
14581SOL    HW152711   1.116  11.464   9.742 -0.0781 -0.3379 -0.6065
14581SOL    HW252712   1.228  11.367   9.775  0.1040  0.2370  0.5223
14582SOL     OW52713   8.527   5.873   1.334  0.4779 -0.2295 -0.4848
14582SOL    HW152714   8.455   5.858   1.396  2.5229 -1.5821  1.7653
14582SOL    HW252715   8.549   5.965   1.346  0.0009 -0.1485 -0.1791
14583SOL     OW52716   5.230   2.004   6.252 -0.8236 -0.2193 -0.0635
14583SOL    HW152717   5.259   1.913   6.241 -1.8389 -0.4140 -1.3393
14583SOL    HW252718   5.252   2.025   6.343  0.0447 -1.5123  0.0482
14584SOL     OW52719   1.860  10.219   1.486 -0.0691 -0.1816 -0.4333
14584SOL    HW152720   1.822  10.132   1.476 -1.1636  0.0574  1.2674
14584SOL    HW252721   1.805  10.275   1.431 -0.4772 -0.2697 -0.1144
14585SOL     OW52722   0.198   3.219   4.176 -0.1931  0.2996 -0.1640
14585SOL    HW152723   0.164   3.269   4.102 -0.4359 -1.5743 -1.4138
14585SOL    HW252724   0.144   3.246   4.251 -2.5375 -0.4178 -1.4824
14586SOL     OW52725   7.113   5.920   8.368 -0.0173 -0.1991 -0.3444
14586SOL    HW152726   7.129   5.949   8.278  0.0486 -2.4989 -1.1416
14586SOL    HW252727   7.187   5.954   8.418 -1.3693  3.4083 -0.5059
14587SOL     OW52728   7.793   1.573   4.549  0.1170 -0.1605  0.2535
14587SOL    HW152729   7.791   1.479   4.530  0.1206  0.0258 -0.7249
14587SOL    HW252730   7.731   1.584   4.622 -0.1603 -0.8658  0.1332
14588SOL     OW52731   7.236  10.938   5.202 -0.2053  0.3610 -0.4496
14588SOL    HW152732   7.150  10.942   5.159  0.0349  2.5902 -0.8542
14588SOL    HW252733   7.220  10.969   5.291  0.4260  2.6341 -1.0681
14589SOL     OW52734  12.223   6.624  12.083  0.0338  0.6851 -0.5312
14589SOL    HW152735  12.254   6.697  12.137  0.5001  0.2456 -0.1991
14589SOL    HW252736  12.133   6.609  12.112  0.0589  0.8896 -0.3476
14590SOL     OW52737  11.287   1.266   5.549 -0.1014  0.3482 -0.5818
14590SOL    HW152738  11.254   1.355   5.543  0.4897  0.6541  0.4114
14590SOL    HW252739  11.215   1.216   5.587 -0.0371  0.6429 -0.0706
14591SOL     OW52740   5.118  10.779   3.013  0.3196 -0.1590 -0.5560
14591SOL    HW152741   5.047  10.792   2.951 -0.5438 -0.1881  0.4041
14591SOL    HW252742   5.083  10.716   3.077  1.4217 -0.6514 -0.4097
14592SOL     OW52743   5.989   1.086   3.195 -0.5448 -0.3530  0.3556
14592SOL    HW152744   5.995   1.120   3.284  1.4146 -0.9314  0.4786
14592SOL    HW252745   6.004   0.992   3.204  0.3448 -0.3240 -0.6413
14593SOL     OW52746   7.467   2.663  10.752  0.3781 -0.0455 -0.0437
14593SOL    HW152747   7.426   2.683  10.836 -1.3005  1.6074 -1.1942
14593SOL    HW252748   7.461   2.568  10.745  2.0108 -0.4441  2.3609
14594SOL     OW52749   5.529   5.277   4.930  0.7364 -0.0389 -1.0161
14594SOL    HW152750   5.567   5.313   5.010  1.7964 -1.6114 -0.7554
14594SOL    HW252751   5.451   5.330   4.914  0.0188 -0.2249  1.5189
14595SOL     OW52752   0.010  10.857   9.397  0.1871  0.0368 -0.7521
14595SOL    HW152753  -0.022  10.945   9.376 -2.3804 -0.8618 -0.9955
14595SOL    HW252754   0.035  10.862   9.490 -0.6675  0.8667 -0.5485
14596SOL     OW52755   8.082   3.100  12.536  0.1520 -0.3386 -0.2554
14596SOL    HW152756   8.031   3.093  12.455 -0.2151  0.5737 -0.1127
14596SOL    HW252757   8.064   3.018  12.583 -2.5003  0.6149  0.5397
14597SOL     OW52758   2.515   6.339  11.168 -0.5535  0.1215  0.0556
14597SOL    HW152759   2.576   6.291  11.224 -1.1602 -1.9774 -0.9817
14597SOL    HW252760   2.483   6.411  11.224  1.0082 -0.1764  1.4050
14598SOL     OW52761  11.216   5.042   6.152  0.0832  0.0252  0.9887
14598SOL    HW152762  11.213   5.000   6.067  0.2042  2.1593 -0.1520
14598SOL    HW252763  11.310   5.048   6.172  0.1338  0.7085  0.5994
14599SOL     OW52764   5.582   1.844   0.964  0.4761 -0.4437 -0.0944
14599SOL    HW152765   5.511   1.779   0.965  0.2655 -0.2131  1.5740
14599SOL    HW252766   5.551   1.911   0.903  0.1201 -1.2554 -0.8384
14600SOL     OW52767   1.323   6.742   0.365  0.3033  0.0245 -0.1077
14600SOL    HW152768   1.311   6.704   0.452  0.3846 -0.4062 -0.2773
14600SOL    HW252769   1.257   6.810   0.358  0.7473  0.5290  0.5489
14601SOL     OW52770  10.363   7.710  10.727  0.3748 -0.1605  0.1302
14601SOL    HW152771  10.332   7.622  10.711  0.2722  0.1740 -1.7628
14601SOL    HW252772  10.447   7.698  10.772  0.2385 -1.1957  0.1301
14602SOL     OW52773  11.352   5.356   3.824  0.0639 -0.6345 -0.8583
14602SOL    HW152774  11.422   5.374   3.887 -0.5556  0.2785 -0.4151
14602SOL    HW252775  11.340   5.439   3.777 -0.9515 -0.6746 -0.6913
14603SOL     OW52776   3.954  12.345   4.761 -0.1283 -0.7028 -0.1715
14603SOL    HW152777   3.865  12.311   4.776 -0.3162 -0.2822 -0.3172
14603SOL    HW252778   3.996  12.342   4.847 -1.2730  1.9255  0.5634
14604SOL     OW52779   8.386   8.799   3.420 -0.0012 -0.4200  0.1882
14604SOL    HW152780   8.449   8.847   3.474 -0.9877 -0.6078  1.5824
14604SOL    HW252781   8.438   8.761   3.349  1.3584 -0.1764  1.0166
14605SOL     OW52782   8.205   7.871   1.763 -0.0326 -0.3634 -0.8102
14605SOL    HW152783   8.118   7.860   1.801  0.2619  2.4380  0.9207
14605SOL    HW252784   8.257   7.800   1.801 -0.9588 -0.5774  0.0903
14606SOL     OW52785   4.478   0.309   1.496  0.0357  0.4218 -0.3095
14606SOL    HW152786   4.448   0.296   1.406  2.9742 -0.9316 -1.2176
14606SOL    HW252787   4.521   0.394   1.494 -0.1408  0.5166 -0.0849
14607SOL     OW52788   1.820   0.557   9.129  0.0156  0.2769  0.5833
14607SOL    HW152789   1.861   0.571   9.044 -1.4250 -0.1488 -0.2130
14607SOL    HW252790   1.845   0.468   9.153 -0.7389 -0.1297 -0.0882
14608SOL     OW52791   3.030   7.163  10.032 -0.2278  0.4258  0.1100
14608SOL    HW152792   3.070   7.211  10.105 -0.3881  1.3617 -0.3978
14608SOL    HW252793   3.038   7.071  10.056 -0.3261  0.7211  1.3313
14609SOL     OW52794   9.362   3.383   5.234  0.6701  0.3514 -0.0234
14609SOL    HW152795   9.367   3.442   5.159 -0.4694  0.9240  0.3301
14609SOL    HW252796   9.273   3.347   5.230  1.1439 -0.8993  0.1138
14610SOL     OW52797   5.543   5.857   0.655 -0.2664  0.1826  0.0135
14610SOL    HW152798   5.588   5.928   0.702  3.0339  0.0432 -2.6158
14610SOL    HW252799   5.513   5.799   0.725  1.2773  1.7231  2.1158
14611SOL     OW52800  12.358   1.635   2.882  0.4712  0.0193 -0.4213
14611SOL    HW152801  12.426   1.654   2.947 -0.5838  0.4777  0.6079
14611SOL    HW252802  12.308   1.716   2.876  0.4310 -0.0888 -1.6800
14612SOL     OW52803  11.334   4.600   4.198  0.1770  0.3479 -0.1191
14612SOL    HW152804  11.429   4.590   4.202  0.1685  0.2184 -0.2324
14612SOL    HW252805  11.310   4.634   4.284  0.2202 -0.5057  0.2420
14613SOL     OW52806   9.237   8.082  10.666  0.6675 -0.3988 -0.4809
14613SOL    HW152807   9.317   8.123  10.699  0.8566 -0.0917 -1.2786
14613SOL    HW252808   9.261   7.990  10.653  0.8359 -0.3491 -0.5279
14614SOL     OW52809   3.648   5.792   4.156  0.2456  0.4890 -0.1879
14614SOL    HW152810   3.600   5.839   4.088 -0.0900  2.2828  1.2151
14614SOL    HW252811   3.589   5.791   4.231  0.5913 -1.4853  0.1259
14615SOL     OW52812   4.830  10.295   8.548  0.0149 -0.3012  0.2373
14615SOL    HW152813   4.809  10.318   8.457  1.9580  0.2078 -0.1403
14615SOL    HW252814   4.747  10.301   8.594 -0.7368  1.0930 -1.1870
14616SOL     OW52815  11.065   8.959   2.442 -0.0384 -0.1596 -0.6006
14616SOL    HW152816  11.102   8.890   2.388  0.7598  0.1330 -0.4382
14616SOL    HW252817  10.978   8.927   2.466  0.2678 -1.0354 -0.6387
14617SOL     OW52818   8.479  11.805  11.499  0.3936 -0.0103 -0.5199
14617SOL    HW152819   8.513  11.725  11.460 -1.6243 -0.9629 -0.4337
14617SOL    HW252820   8.419  11.775  11.567 -0.6455  1.5579 -0.6865
14618SOL     OW52821   8.467   8.195   9.478  0.1975  0.4816 -0.5780
14618SOL    HW152822   8.473   8.243   9.396  0.6115  2.1731  0.3825
14618SOL    HW252823   8.389   8.231   9.521  0.8126  0.6998  0.3970
14619SOL     OW52824   1.278   4.721   5.874 -0.0575  0.5771  0.4963
14619SOL    HW152825   1.258   4.705   5.966  1.3699  0.0995  0.7389
14619SOL    HW252826   1.333   4.799   5.873  3.4122 -1.6620  0.5253
14620SOL     OW52827  11.303   1.502  10.469  0.5086 -0.2318  0.1239
14620SOL    HW152828  11.316   1.437  10.400 -0.4130 -0.4905  0.1855
14620SOL    HW252829  11.308   1.586  10.423 -1.1077 -0.4171 -0.4695
14621SOL     OW52830  11.388   1.226   6.093 -0.5379  0.4191 -0.3074
14621SOL    HW152831  11.346   1.186   6.169  0.6436 -0.4062 -0.0496
14621SOL    HW252832  11.341   1.190   6.018 -0.6030 -0.1239 -0.0105
14622SOL     OW52833  11.175   2.831   3.346  0.1997  0.3677 -0.0056
14622SOL    HW152834  11.086   2.854   3.371 -0.0233  0.3173 -0.7397
14622SOL    HW252835  11.229   2.904   3.379 -0.5133  2.1344 -2.4611
14623SOL     OW52836   0.173   4.443   0.955 -0.4064  0.2664  0.3393
14623SOL    HW152837   0.214   4.386   0.891  0.1573 -0.6418  1.4802
14623SOL    HW252838   0.134   4.513   0.903 -0.9623 -1.0530 -1.0673
14624SOL     OW52839   2.493  10.644   2.133  0.6178  0.5089 -0.1126
14624SOL    HW152840   2.552  10.705   2.089 -0.5622 -0.3130 -3.0890
14624SOL    HW252841   2.497  10.565   2.079 -2.6441  0.2133 -0.0900
14625SOL     OW52842   4.374   2.741   7.611 -0.1301  0.0145  0.1927
14625SOL    HW152843   4.332   2.821   7.644  0.0552  0.0749  0.2851
14625SOL    HW252844   4.452   2.731   7.666  0.7067  0.6495 -0.8463
14626SOL     OW52845   5.892   7.752   0.509 -0.0242  0.0418 -0.3128
14626SOL    HW152846   5.796   7.756   0.505 -0.0558  0.9137  0.8322
14626SOL    HW252847   5.914   7.785   0.596  1.3469  0.4765 -0.7924
14627SOL     OW52848   5.091   5.418   4.364  0.7626 -0.2264 -0.2715
14627SOL    HW152849   5.168   5.367   4.339 -0.1723 -1.1912 -1.3192
14627SOL    HW252850   5.017   5.369   4.327 -0.5285 -0.2884  2.1714
14628SOL     OW52851  11.656   2.663  11.460 -0.1502 -0.0989  0.0604
14628SOL    HW152852  11.617   2.750  11.469 -1.6273 -0.8425  1.1627
14628SOL    HW252853  11.662   2.649  11.365 -0.1720  1.0719 -0.1289
14629SOL     OW52854  10.605  11.225   8.220 -0.3677 -0.0423 -0.3120
14629SOL    HW152855  10.699  11.216   8.204 -0.3776 -1.7953  0.4128
14629SOL    HW252856  10.581  11.307   8.175  1.3905  0.1809 -0.9309
14630SOL     OW52857   8.834   2.609   7.913 -0.4715  0.0271 -0.0249
14630SOL    HW152858   8.762   2.650   7.865  0.2583 -1.1925 -2.3119
14630SOL    HW252859   8.881   2.683   7.952 -2.3370  0.9025  0.6861
14631SOL     OW52860  10.968   8.566   8.402 -0.3011 -0.0506  0.3540
14631SOL    HW152861  11.054   8.595   8.432 -1.1417  0.9491  1.9688
14631SOL    HW252862  10.943   8.496   8.462 -0.5900 -0.3950 -0.1552
14632SOL     OW52863   0.209   4.382  11.316 -0.6854  0.5904 -0.1064
14632SOL    HW152864   0.169   4.458  11.274 -0.2466  0.7647 -0.2094
14632SOL    HW252865   0.209   4.402  11.409  1.3734  1.6801 -0.2706
14633SOL     OW52866   5.805   8.221   3.957 -0.2520 -0.1062  0.5488
14633SOL    HW152867   5.807   8.253   3.866 -0.3738 -0.4787  0.4137
14633SOL    HW252868   5.768   8.293   4.007 -0.1581  0.1129  0.3055
14634SOL     OW52869   9.332  11.983   7.972 -0.1758 -0.3330  0.1802
14634SOL    HW152870   9.305  11.973   8.063  0.8326  1.3413  0.7143
14634SOL    HW252871   9.426  11.967   7.974 -0.1021  0.0075 -0.5165
14635SOL     OW52872   4.808  11.529  12.383  1.2430  0.2732  0.1237
14635SOL    HW152873   4.801  11.488  12.469  0.1673  2.5606  1.2261
14635SOL    HW252874   4.878  11.593  12.393 -1.0602  2.9444  0.4808
14636SOL     OW52875  12.541   3.691  11.238  0.2809  0.1232 -0.3600
14636SOL    HW152876  12.481   3.646  11.297 -0.9619 -0.2895 -1.8858
14636SOL    HW252877  12.575   3.764  11.290 -1.4773  0.3188  0.5716
14637SOL     OW52878   5.632   9.955   2.607  0.0568  0.3639  0.7755
14637SOL    HW152879   5.613   9.907   2.526 -1.4224  1.4447  0.4376
14637SOL    HW252880   5.616  10.047   2.584  3.2779  1.1458  1.2666
14638SOL     OW52881   4.999   3.277  10.469  0.4447  0.7200 -0.1530
14638SOL    HW152882   5.028   3.344  10.408 -1.7159  1.4989 -0.4080
14638SOL    HW252883   4.962   3.208  10.413 -0.8581  1.0971  0.2126
14639SOL     OW52884   3.211   4.830   6.513  0.4291 -0.2860  0.7168
14639SOL    HW152885   3.253   4.916   6.500 -0.8524  0.2603 -0.0135
14639SOL    HW252886   3.118   4.850   6.517  0.2569 -1.2515  4.0890
14640SOL     OW52887  10.386   8.663   4.514  0.4743 -0.4112 -0.2054
14640SOL    HW152888  10.343   8.614   4.444  0.4607 -0.4999 -0.1352
14640SOL    HW252889  10.313   8.698   4.565  0.4581 -1.7413  0.7459
14641SOL     OW52890   8.576  12.299   0.699 -0.2743  0.6033  0.0569
14641SOL    HW152891   8.523  12.364   0.653  0.8492  0.1976 -1.9144
14641SOL    HW252892   8.662  12.340   0.709  0.1601 -0.1968 -0.3099
14642SOL     OW52893   6.624  10.747   9.091 -0.3784  0.6283  0.5540
14642SOL    HW152894   6.714  10.744   9.058 -0.3710  1.2686  0.5152
14642SOL    HW252895   6.632  10.728   9.185 -0.4006 -1.2069  0.2317
14643SOL     OW52896   4.635   7.823   0.937 -0.2925 -0.0548  0.2252
14643SOL    HW152897   4.576   7.898   0.940 -2.0215 -1.3574  0.5731
14643SOL    HW252898   4.581   7.751   0.903  1.2070 -1.2239  0.2034
14644SOL     OW52899   1.255   1.499   1.649 -0.2674 -0.3116  0.3216
14644SOL    HW152900   1.307   1.580   1.651  0.0350 -0.4956  0.0583
14644SOL    HW252901   1.285   1.450   1.726  2.5080 -1.9653 -1.6377
14645SOL     OW52902   9.867  10.514   1.342  0.5530 -0.4687 -0.6569
14645SOL    HW152903   9.942  10.464   1.373  0.9607  1.2022  1.2911
14645SOL    HW252904   9.792  10.476   1.389  0.6386 -0.2239 -0.3197
14646SOL     OW52905  11.315   1.928   6.774 -0.3874  0.2042  0.2326
14646SOL    HW152906  11.278   1.991   6.712 -0.6900 -0.7974 -0.6462
14646SOL    HW252907  11.240   1.902   6.828 -0.4167  0.0664  0.1251
14647SOL     OW52908   2.136   5.429   8.985  0.0268  0.1371 -0.0503
14647SOL    HW152909   2.116   5.418   9.078 -0.4810  0.8754 -0.0665
14647SOL    HW252910   2.231   5.435   8.981 -0.0163  2.7834  0.7613
14648SOL     OW52911  11.384  12.001   0.144  0.0435  0.4362  0.4173
14648SOL    HW152912  11.313  12.050   0.103  1.1866  1.5457 -0.3226
14648SOL    HW252913  11.403  12.050   0.225 -0.4670 -0.2496  0.9649
14649SOL     OW52914   7.775   3.000  12.093 -0.1791  0.0078  0.0448
14649SOL    HW152915   7.691   2.956  12.107  0.3473 -0.8329  0.5827
14649SOL    HW252916   7.828   2.938  12.043  1.0992 -0.6424  2.0940
14650SOL     OW52917   8.816   7.129   7.991 -0.4906 -0.2696  0.3938
14650SOL    HW152918   8.876   7.064   8.029 -0.0202  0.3206  0.6812
14650SOL    HW252919   8.729   7.101   8.018 -0.4511 -1.6843 -0.8274
14651SOL     OW52920   0.129   0.589   5.225 -0.2138  0.0009 -0.2594
14651SOL    HW152921   0.196   0.655   5.204 -0.1596  0.6214  1.6975
14651SOL    HW252922   0.168   0.507   5.195  0.3185  0.6499 -1.4638
14652SOL     OW52923   2.879   5.034   0.290  0.6985  0.2808 -0.7202
14652SOL    HW152924   2.958   5.086   0.301  0.4899  0.2586  1.0345
14652SOL    HW252925   2.837   5.070   0.211  1.4033  1.6505 -0.4942
14653SOL     OW52926   1.500   1.299  11.270 -0.1137 -0.4870 -0.0823
14653SOL    HW152927   1.509   1.372  11.332 -1.5785  0.9422 -1.4674
14653SOL    HW252928   1.587   1.289  11.232  0.1254  0.5087  0.1801
14654SOL     OW52929   1.970  11.855   6.767 -0.3092  0.7415  0.3005
14654SOL    HW152930   2.030  11.782   6.752  0.5333  1.2976  0.9147
14654SOL    HW252931   1.929  11.869   6.681 -0.6867 -0.6109  0.2336
14655SOL     OW52932   6.831   1.467   0.694 -0.1677 -0.0863  0.4771
14655SOL    HW152933   6.756   1.472   0.635  0.7962  0.8678 -0.7360
14655SOL    HW252934   6.833   1.552   0.738  0.5348  0.1526  0.0194
14656SOL     OW52935  12.357   6.483   1.935 -0.2885  0.3396 -0.1524
14656SOL    HW152936  12.272   6.469   1.978 -0.8804  1.5504 -0.8825
14656SOL    HW252937  12.350   6.571   1.897  0.9280  0.0531 -1.0749
14657SOL     OW52938   3.026   1.259  11.454 -0.1448  0.3012  0.3909
14657SOL    HW152939   2.985   1.245  11.540 -0.4308 -0.4380  0.1369
14657SOL    HW252940   3.069   1.176  11.434 -0.5191  0.2978 -0.4192
14658SOL     OW52941   2.715   6.183  11.292 -0.1297  0.3027 -0.1799
14658SOL    HW152942   2.761   6.122  11.350  0.3564  0.5990 -0.2457
14658SOL    HW252943   2.743   6.158  11.204 -0.4021  0.2316 -0.2451
14659SOL     OW52944   8.140  11.563   1.210  0.1102 -0.3993  0.3516
14659SOL    HW152945   8.147  11.468   1.202 -1.3926 -0.4795 -0.2426
14659SOL    HW252946   8.061  11.577   1.262 -0.1000  0.5386 -0.1914
14660SOL     OW52947   8.457   0.930   4.217 -0.1043  0.3054  0.0930
14660SOL    HW152948   8.537   0.979   4.197 -0.0140  0.0642 -0.1514
14660SOL    HW252949   8.399   0.948   4.142 -0.5585  1.0620  0.6144
14661SOL     OW52950   5.343   5.726   6.818  0.4272 -0.4878  0.1585
14661SOL    HW152951   5.332   5.654   6.756  2.5595 -0.1402 -0.7447
14661SOL    HW252952   5.273   5.787   6.796  0.6498 -0.7508 -1.4151
14662SOL     OW52953   3.367   4.539   0.750  0.0105 -0.1941  0.2220
14662SOL    HW152954   3.353   4.493   0.667  1.3787 -3.2310  1.4945
14662SOL    HW252955   3.459   4.563   0.749 -0.3982  1.4744  0.1306
14663SOL     OW52956   0.037   9.320   8.051  0.0732  0.0861 -0.2426
14663SOL    HW152957   0.027   9.368   7.969  0.7455 -0.3536 -0.5917
14663SOL    HW252958   0.078   9.238   8.025 -0.1039 -0.2352  0.4843
14664SOL     OW52959   3.713  12.555   1.507 -0.4286 -0.0655 -0.8546
14664SOL    HW152960   3.707  12.637   1.555 -0.0746  0.0976 -1.0816
14664SOL    HW252961   3.730  12.489   1.575 -2.2157 -0.1979 -0.4852
14665SOL     OW52962   3.743  12.309   5.331 -0.0627 -0.1787 -0.3036
14665SOL    HW152963   3.648  12.317   5.326 -0.3418 -2.0897  0.7813
14665SOL    HW252964   3.763  12.229   5.282  0.8972 -0.1742  0.0482
14666SOL     OW52965  11.338  12.490   2.399 -0.1745 -0.2345  0.5163
14666SOL    HW152966  11.380  12.436   2.466 -0.6236  1.5102  2.3097
14666SOL    HW252967  11.403  12.558   2.379 -0.4219 -0.1789 -0.1370
14667SOL     OW52968   9.577   7.521   8.077  0.2469 -0.1202 -0.4492
14667SOL    HW152969   9.557   7.588   8.143 -0.6963 -2.0086  1.2995
14667SOL    HW252970   9.491   7.485   8.054  0.8913 -2.9287  1.1491
14668SOL     OW52971   9.068   9.978   3.070 -0.2954  0.1577  0.0656
14668SOL    HW152972   9.005   9.987   2.997  0.0974  1.3051 -0.1438
14668SOL    HW252973   9.037  10.040   3.136 -0.8721 -1.1492  1.0749
14669SOL     OW52974  11.585   6.482   4.501 -0.2051  0.1407  1.4635
14669SOL    HW152975  11.673   6.514   4.519 -0.0422 -0.6909  2.2247
14669SOL    HW252976  11.580   6.476   4.405  0.0994  1.4369  1.3518
14670SOL     OW52977   4.914   6.548   5.045  0.5533 -0.0017  0.3670
14670SOL    HW152978   4.951   6.619   5.098  2.0788 -1.7549  1.7847
14670SOL    HW252979   4.975   6.539   4.972  0.2427  0.2691  0.0706
14671SOL     OW52980   5.199  11.869  10.736  0.4965 -0.9069  0.7542
14671SOL    HW152981   5.233  11.871  10.647 -0.2287  0.4584  0.4845
14671SOL    HW252982   5.165  11.780  10.747 -1.4698 -0.4696 -1.1468
14672SOL     OW52983   0.925   8.085   6.022 -0.3820  0.1898  0.2068
14672SOL    HW152984   0.831   8.082   6.036 -0.4764 -0.7708 -0.4856
14672SOL    HW252985   0.962   8.038   6.097 -0.5828 -0.9545 -0.3901
14673SOL     OW52986   5.677  10.296   6.715  0.0019 -0.7034 -0.4551
14673SOL    HW152987   5.721  10.316   6.797  0.4966  0.0541 -0.8997
14673SOL    HW252988   5.732  10.229   6.674  1.3300  0.9268 -1.4601
14674SOL     OW52989   1.353  12.594   6.625  0.0820 -0.4035  0.2896
14674SOL    HW152990   1.337  12.534   6.552  1.1909 -1.4668  0.8695
14674SOL    HW252991   1.434  12.639   6.601  0.8401 -1.2674  1.1464
14675SOL     OW52992   9.098   5.347   3.716  0.3085  0.0863 -0.5856
14675SOL    HW152993   9.008   5.359   3.746 -0.0095  0.2018 -1.5692
14675SOL    HW252994   9.152   5.375   3.791 -0.4282 -2.4237  1.0026
14676SOL     OW52995   3.399   9.027  10.142  0.4000  0.3391 -0.0027
14676SOL    HW152996   3.410   8.936  10.170 -0.8420 -0.0770 -0.8195
14676SOL    HW252997   3.474   9.073  10.180  1.0022 -1.0088  0.4799
14677SOL     OW52998   4.559  12.264   3.150  0.2880  0.2475  0.1991
14677SOL    HW152999   4.646  12.304   3.152  0.3091  0.2882 -0.8803
14677SOL    HW253000   4.537  12.250   3.242  1.1540  0.8426  0.5121
14678SOL     OW53001   3.582   9.025   3.298  0.2760 -0.0641 -0.1410
14678SOL    HW153002   3.514   8.966   3.266  1.6094 -1.0526 -1.2892
14678SOL    HW253003   3.543   9.068   3.374 -1.2737 -1.3197 -0.1783
14679SOL     OW53004  10.266  10.017   9.992 -0.1874  0.1246 -1.1486
14679SOL    HW153005  10.309  10.022  10.077 -0.4701 -0.3841 -0.9664
14679SOL    HW253006  10.297  10.093   9.944  0.0744  0.3451 -0.6338
14680SOL     OW53007   7.987   7.693   2.358  0.3795 -0.1037 -0.5858
14680SOL    HW153008   7.972   7.623   2.295 -0.5942 -0.3822 -0.0668
14680SOL    HW253009   7.911   7.689   2.416  0.4461  1.1986 -0.3818
14681SOL     OW53010   1.601   7.714  12.112  0.0789 -0.0866  0.3379
14681SOL    HW153011   1.536   7.729  12.044  0.5040 -1.3706 -0.3943
14681SOL    HW253012   1.619   7.620  12.108 -0.5592 -0.3898  2.8533
14682SOL     OW53013   1.981   3.735   4.622  0.2707  0.4528 -0.8652
14682SOL    HW153014   1.979   3.820   4.579  0.8738  1.8125  1.5951
14682SOL    HW253015   2.074   3.719   4.638  0.0513  0.0870  0.0881
14683SOL     OW53016  11.352   8.332   3.291  0.3986  0.2078 -0.0844
14683SOL    HW153017  11.369   8.241   3.316 -0.1681 -0.5991 -2.3946
14683SOL    HW253018  11.439   8.369   3.275  0.5584 -0.4519 -0.7827
14684SOL     OW53019   2.446  11.662   5.700 -0.2893  0.3898  0.4836
14684SOL    HW153020   2.479  11.623   5.780 -0.0762 -0.1220  0.1492
14684SOL    HW253021   2.357  11.691   5.722 -0.6600 -0.7756  0.5861
14685SOL     OW53022   4.659   1.404   3.859  0.2047 -0.1703 -0.5423
14685SOL    HW153023   4.682   1.454   3.781 -2.1618  0.4088 -0.9638
14685SOL    HW253024   4.733   1.346   3.874  1.4721  0.9344 -2.1698
14686SOL     OW53025   0.767   6.523   0.807  0.6171 -0.5563  0.1555
14686SOL    HW153026   0.756   6.519   0.712 -0.4615 -1.2067  0.2865
14686SOL    HW253027   0.733   6.609   0.832  1.6337 -0.0674 -0.1265
14687SOL     OW53028   0.553  10.659   9.044 -0.2939  0.6039  0.0012
14687SOL    HW153029   0.547  10.568   9.075 -0.5549  0.6782  0.1681
14687SOL    HW253030   0.560  10.651   8.949  0.6849  0.3694  0.0871
14688SOL     OW53031   8.142  10.698   5.020  0.0573  0.4776 -0.6127
14688SOL    HW153032   8.093  10.622   4.991  1.1780 -0.1847 -0.8409
14688SOL    HW253033   8.203  10.664   5.086 -0.8869  1.5623  0.8729
14689SOL     OW53034   4.694  10.387  11.832  0.0584  0.2563 -0.6401
14689SOL    HW153035   4.614  10.424  11.870  0.2192 -0.7142  0.6943
14689SOL    HW253036   4.765  10.435  11.873  0.1966  1.2707 -1.9880
14690SOL     OW53037  10.218   1.483   0.794  0.1825  0.2377  0.0665
14690SOL    HW153038  10.211   1.388   0.803 -1.8049  0.1892 -1.4095
14690SOL    HW253039  10.203   1.500   0.701  0.7570  1.9885  0.2533
14691SOL     OW53040  12.005   3.596   5.782  0.2489  0.1219  0.0859
14691SOL    HW153041  11.996   3.623   5.691  1.6406  1.2658  0.2607
14691SOL    HW253042  11.989   3.501   5.781  1.0783 -0.0267 -1.4809
14692SOL     OW53043   4.988   0.279   9.825 -0.1474 -0.1573 -0.2497
14692SOL    HW153044   5.034   0.312   9.903  1.8174 -0.3485 -1.2480
14692SOL    HW253045   4.941   0.202   9.856 -0.1768  0.3116  0.9428
14693SOL     OW53046  10.061   8.621  10.055  0.3692  0.1420 -0.3110
14693SOL    HW153047  10.082   8.529  10.072  3.2919  1.0688  2.2227
14693SOL    HW253048   9.977   8.635  10.098  1.4083 -0.7170  2.2112
14694SOL     OW53049   6.607  10.658  11.471 -0.1283 -0.1639 -0.0210
14694SOL    HW153050   6.668  10.648  11.544  1.0119 -0.3096 -0.9519
14694SOL    HW253051   6.543  10.589  11.483  0.8275 -1.0515  0.1089
14695SOL     OW53052   3.807  10.731   9.272  0.2941  0.1893  0.0164
14695SOL    HW153053   3.789  10.748   9.365  0.2647 -2.9946  0.6982
14695SOL    HW253054   3.730  10.763   9.226  0.0694  1.3276  1.1268
14696SOL     OW53055   1.070   0.425   1.883 -0.0621  0.5737 -0.2293
14696SOL    HW153056   1.043   0.419   1.791 -0.6153  0.6262 -0.0691
14696SOL    HW253057   1.121   0.346   1.898 -0.6289  0.1769 -0.3613
14697SOL     OW53058   9.660   7.052   6.149 -0.1516  0.3449  0.1980
14697SOL    HW153059   9.651   7.061   6.244 -0.4630  3.0312  0.0200
14697SOL    HW253060   9.584   7.101   6.114  0.6074  0.4354 -1.4107
14698SOL     OW53061   0.836   3.696   8.558 -0.2739 -0.3116  0.0626
14698SOL    HW153062   0.852   3.756   8.631  1.3071  1.1083 -1.3689
14698SOL    HW253063   0.760   3.644   8.586  0.5907 -0.2161  2.9181
14699SOL     OW53064  12.112   9.019  11.668 -0.0888  0.5648  0.4428
14699SOL    HW153065  12.166   9.096  11.650  1.3647 -0.6905 -0.8826
14699SOL    HW253066  12.151   8.982  11.748 -0.2366  0.7342  0.5933
14700SOL     OW53067   4.786  10.419   6.429  0.1252  0.9553 -0.0205
14700SOL    HW153068   4.717  10.484   6.413 -0.9286  0.0216  0.5530
14700SOL    HW253069   4.829  10.448   6.509  1.1232  2.1111 -0.9418
14701SOL     OW53070   6.899   3.129   4.565 -0.1297 -0.5778 -0.6099
14701SOL    HW153071   6.841   3.205   4.557  1.0521  0.3628 -0.7248
14701SOL    HW253072   6.987   3.168   4.572  0.4438 -1.9288 -0.0041
14702SOL     OW53073   0.560   1.589   8.990 -0.0401  0.3901  0.3417
14702SOL    HW153074   0.482   1.601   8.936  0.7288  0.2944 -0.8222
14702SOL    HW253075   0.539   1.633   9.072 -0.8306  1.4836 -0.4189
14703SOL     OW53076   6.646  11.828   3.059  0.3614 -0.0880  0.2116
14703SOL    HW153077   6.643  11.923   3.047  1.7512 -0.0195  0.1461
14703SOL    HW253078   6.717  11.815   3.123  0.8702 -1.1293 -0.5398
14704SOL     OW53079   2.479   6.290  10.369 -0.1237  0.2187 -0.4427
14704SOL    HW153080   2.456   6.333  10.451 -2.1403  0.4903 -1.1061
14704SOL    HW253081   2.458   6.354  10.301 -4.3584 -2.0133 -1.5513
14705SOL     OW53082   0.902   4.216   4.338 -0.5810  0.5232  0.3109
14705SOL    HW153083   0.969   4.187   4.275  0.2058 -0.0615  1.3814
14705SOL    HW253084   0.825   4.163   4.318  0.1078 -0.6615  0.7199
14706SOL     OW53085   5.422   9.836   1.304  0.2804  0.1190 -0.1637
14706SOL    HW153086   5.416   9.874   1.216 -0.1311 -0.5948 -0.4497
14706SOL    HW253087   5.487   9.890   1.349  0.0800  0.8406 -0.7255
14707SOL     OW53088   1.441  12.442   5.409  0.6483 -0.0521  0.0388
14707SOL    HW153089   1.513  12.410   5.463  1.6505  2.2875  0.1716
14707SOL    HW253090   1.475  12.442   5.320  0.2082 -0.5297 -0.1376
14708SOL     OW53091   9.918   0.335   3.514 -0.5100  0.4871 -0.0837
14708SOL    HW153092   9.857   0.303   3.447  1.0335 -0.9199 -0.8916
14708SOL    HW253093   9.907   0.274   3.587  0.3227 -0.1514 -0.4718
14709SOL     OW53094   3.480   2.495   0.153 -0.0578  0.2412  0.0223
14709SOL    HW153095   3.543   2.425   0.135  0.5673  0.6175  0.6605
14709SOL    HW253096   3.522   2.548   0.221 -0.1371  1.7404 -1.0414
14710SOL     OW53097   1.392  12.185  11.581 -0.5304  0.1040  0.5634
14710SOL    HW153098   1.476  12.155  11.617 -0.2604  0.1901  0.0215
14710SOL    HW253099   1.396  12.280  11.589 -0.8054  0.0817  1.0198
14711SOL     OW53100   5.305   1.755   6.190  0.8720 -0.0324 -0.5234
14711SOL    HW153101   5.263   1.701   6.257  0.7710  2.5369  1.6266
14711SOL    HW253102   5.362   1.694   6.142 -0.4041 -2.3056  0.6945
14712SOL     OW53103   6.995   9.673   5.667 -0.0812  0.2118 -0.3938
14712SOL    HW153104   7.032   9.716   5.589  0.3657 -0.1707 -0.3992
14712SOL    HW253105   7.021   9.582   5.657  0.1098  0.1910  0.2877
14713SOL     OW53106   7.314   0.227   8.728 -0.7533 -0.1793  0.5817
14713SOL    HW153107   7.289   0.186   8.645  0.3453  0.7832 -0.2595
14713SOL    HW253108   7.323   0.153   8.788 -1.1173 -0.9501 -0.2694
14714SOL     OW53109   9.445   9.021   6.710 -0.0667  0.3097 -0.3082
14714SOL    HW153110   9.523   8.968   6.722  0.3697  1.3362  1.9374
14714SOL    HW253111   9.468   9.107   6.747 -2.1385  0.7272  0.1517
14715SOL     OW53112   4.015   0.787   7.114  0.2949 -0.3186 -0.3669
14715SOL    HW153113   4.093   0.836   7.139  0.3980 -0.3420 -0.6393
14715SOL    HW253114   3.947   0.819   7.173  0.4616 -0.1527 -0.2628
14716SOL     OW53115   2.054   1.905   4.233  0.4132  0.5609  0.2556
14716SOL    HW153116   1.983   1.852   4.270 -1.3508  2.6544  0.0591
14716SOL    HW253117   2.130   1.886   4.289 -0.6172 -0.8053  1.2537
14717SOL     OW53118  11.535   9.529   6.422  0.0562 -0.2629  0.4480
14717SOL    HW153119  11.615   9.570   6.389 -0.1033 -0.4448 -0.1884
14717SOL    HW253120  11.530   9.445   6.376 -1.0649  0.2169 -0.3694
14718SOL     OW53121   2.176   3.396   1.764 -0.8326 -0.1058 -0.7106
14718SOL    HW153122   2.165   3.470   1.824 -1.6057 -0.2919 -0.6124
14718SOL    HW253123   2.260   3.412   1.722 -1.0053  0.8560 -0.7257
14719SOL     OW53124   3.886   9.542  11.217  0.1468 -0.2563  0.6640
14719SOL    HW153125   3.821   9.569  11.281 -0.6874 -0.7935  0.0574
14719SOL    HW253126   3.950   9.491  11.268  0.6369  1.0676  1.4307
14720SOL     OW53127   6.746   8.982  11.297 -0.4965  0.2266 -0.0173
14720SOL    HW153128   6.729   8.922  11.370  0.2298 -1.0029 -0.8195
14720SOL    HW253129   6.791   8.928  11.232  2.5034  2.2430  0.2227
14721SOL     OW53130   8.302   4.724   7.637  0.3429  0.5999 -0.1278
14721SOL    HW153131   8.277   4.756   7.724 -1.5904  1.8318 -1.0677
14721SOL    HW253132   8.326   4.802   7.588 -3.1216  0.7080 -2.0384
14722SOL     OW53133  10.213   7.393   7.129 -0.5986 -0.7123  0.4916
14722SOL    HW153134  10.289   7.343   7.157 -0.6975 -1.1086  0.0725
14722SOL    HW253135  10.139   7.353   7.175 -0.6637 -0.8867  0.2406
14723SOL     OW53136  12.088   4.683   2.254 -0.3960  0.4028  0.1338
14723SOL    HW153137  12.112   4.678   2.161 -0.9680  2.3570 -0.1729
14723SOL    HW253138  12.171   4.682   2.300 -0.1343 -2.5753 -0.1930
14724SOL     OW53139   3.208   5.691   6.341  0.1506  0.1417 -0.0621
14724SOL    HW153140   3.152   5.723   6.271  0.2744  0.3413 -0.0717
14724SOL    HW253141   3.160   5.618   6.380 -0.0090  0.1626 -0.2221
14725SOL     OW53142   3.859   1.499   5.374  0.2918 -0.5948 -0.3335
14725SOL    HW153143   3.843   1.407   5.352 -0.2423 -0.7084  0.4544
14725SOL    HW253144   3.778   1.544   5.349  0.9319 -0.1485 -1.6687
14726SOL     OW53145   3.745   9.598   7.910  0.2139 -0.0373  0.4358
14726SOL    HW153146   3.700   9.682   7.917  0.7225  0.3063 -0.2665
14726SOL    HW253147   3.681   9.539   7.871  0.5903  0.6524 -1.3303
14727SOL     OW53148   6.177  12.457   5.234 -0.4282 -0.6878 -0.6142
14727SOL    HW153149   6.238  12.390   5.206 -0.9286 -0.9391 -1.1271
14727SOL    HW253150   6.104  12.409   5.273 -0.4893 -0.4109 -0.3776
14728SOL     OW53151   6.548   3.874   4.321  0.1575  1.0544 -0.2940
14728SOL    HW153152   6.578   3.791   4.284 -0.7735  0.1313  0.9190
14728SOL    HW253153   6.627   3.916   4.353  0.7442  1.0243 -1.6492
14729SOL     OW53154   3.377   9.517   9.590  0.3867 -0.3790 -0.5135
14729SOL    HW153155   3.441   9.559   9.647  1.7417 -0.7996 -1.6773
14729SOL    HW253156   3.329   9.589   9.549  1.5899  0.0130 -1.2642
14730SOL     OW53157   7.991   9.789   4.155  0.2024 -0.1257 -0.3273
14730SOL    HW153158   8.042   9.840   4.093 -0.9928  1.1406 -0.3126
14730SOL    HW253159   7.935   9.734   4.100 -1.5081  1.6447 -0.4606
14731SOL     OW53160   3.412   8.529   1.208 -0.2651 -0.1248 -0.2612
14731SOL    HW153161   3.425   8.435   1.201 -1.4088 -0.5743  2.5242
14731SOL    HW253162   3.496   8.562   1.242  0.1726 -0.0710 -1.3385
14732SOL     OW53163   8.480  10.358   8.914  0.1552 -0.0611  0.2081
14732SOL    HW153164   8.484  10.400   8.828  0.5517 -1.1319 -0.3101
14732SOL    HW253165   8.403  10.397   8.955  0.1880  0.7601 -0.4677
14733SOL     OW53166   6.785   8.150  10.503  0.7806  0.2141 -0.1045
14733SOL    HW153167   6.692   8.172  10.504  0.9144  0.8857 -0.9340
14733SOL    HW253168   6.822   8.202  10.574  0.4665 -0.3123  0.4440
14734SOL     OW53169  11.927   0.616   8.602 -0.3849 -0.0096  0.2511
14734SOL    HW153170  11.883   0.696   8.573  0.7898  1.1313  1.4392
14734SOL    HW253171  11.856   0.556   8.625 -1.2991  0.4156 -1.3401
14735SOL     OW53172   6.591  11.109  11.743  0.4800 -0.2905  0.5553
14735SOL    HW153173   6.639  11.078  11.820  0.6574  1.0234  0.9891
14735SOL    HW253174   6.505  11.067  11.749  0.5600 -0.3419  1.3655
14736SOL     OW53175  10.780  10.071   4.300  0.3689 -0.0017  0.5101
14736SOL    HW153176  10.701  10.060   4.248 -1.2182  3.3811  1.9162
14736SOL    HW253177  10.851  10.048   4.240 -1.5450 -1.3460 -1.4017
14737SOL     OW53178   3.256   8.121   1.723  0.7215  0.0247  0.7941
14737SOL    HW153179   3.339   8.123   1.770  1.1200 -1.3912  0.1911
14737SOL    HW253180   3.253   8.035   1.682 -0.0189  0.8639 -1.0462
14738SOL     OW53181   1.823   7.343   3.330  0.6297 -0.4004 -0.0197
14738SOL    HW153182   1.736   7.371   3.304  0.4748  0.5175  1.3896
14738SOL    HW253183   1.824   7.352   3.426  2.3645 -0.0758 -0.0309
14739SOL     OW53184   8.057   1.828   9.191  0.1246 -0.0700 -0.2910
14739SOL    HW153185   8.071   1.893   9.260  0.1856  0.4338 -0.7706
14739SOL    HW253186   8.089   1.870   9.111  2.1919 -1.4796 -0.2990
14740SOL     OW53187  10.752   0.049   4.416  0.5234 -0.9100  0.0567
14740SOL    HW153188  10.745   0.064   4.322  0.6775  1.4017  0.3640
14740SOL    HW253189  10.804  -0.032   4.423  1.3282 -0.6254 -1.8277
14741SOL     OW53190  10.604   7.421   2.437 -0.6348 -0.2332 -0.4223
14741SOL    HW153191  10.688   7.381   2.415 -0.3661  0.4787 -0.6972
14741SOL    HW253192  10.607   7.432   2.532 -0.4885 -0.3709 -0.4107
14742SOL     OW53193   5.941   7.200   0.967  0.0258 -0.5738  0.1985
14742SOL    HW153194   5.939   7.284   0.920 -0.4768  0.3374  1.7676
14742SOL    HW253195   5.849   7.175   0.976  0.1692 -1.2526 -0.1601
14743SOL     OW53196   5.609   9.598   5.020  0.1244  0.5755 -0.2123
14743SOL    HW153197   5.610   9.554   5.105 -0.1323  0.6439 -0.1732
14743SOL    HW253198   5.540   9.664   5.028  1.0456  1.5590  0.0292
14744SOL     OW53199   2.783   9.078   9.574  0.6501 -0.5612  0.3909
14744SOL    HW153200   2.782   9.143   9.505 -2.1884 -0.7638  0.1383
14744SOL    HW253201   2.874   9.077   9.605  1.4774  1.1392 -1.7659
14745SOL     OW53202   2.066  11.863   7.323 -0.6410 -0.8700 -0.0796
14745SOL    HW153203   2.039  11.876   7.232 -1.1939 -1.2089  0.0286
14745SOL    HW253204   2.142  11.806   7.317  0.2164  0.2885 -0.4043
14746SOL     OW53205   5.283   0.560   1.552  0.0210  0.1579  0.3244
14746SOL    HW153206   5.378   0.559   1.535 -0.0667  0.5292 -0.2222
14746SOL    HW253207   5.266   0.476   1.594  0.7096  0.3937  1.0968
14747SOL     OW53208   1.046  10.907   6.829  0.6366  0.1452 -0.3278
14747SOL    HW153209   0.991  10.920   6.751  0.2689  1.2793  0.0980
14747SOL    HW253210   1.028  10.984   6.883  0.1326 -1.0884  1.3324
14748SOL     OW53211   4.229   3.049   7.597 -0.1327  0.1703 -0.2553
14748SOL    HW153212   4.310   3.050   7.547  0.8271 -2.5953  1.0512
14748SOL    HW253213   4.174   2.983   7.554  0.0147 -0.9657  1.1863
14749SOL     OW53214   1.319   0.174   2.744 -0.2179 -0.2794  0.3508
14749SOL    HW153215   1.312   0.131   2.659 -0.8593 -1.8031  1.1417
14749SOL    HW253216   1.280   0.113   2.806 -0.3444  1.0672  1.6738
14750SOL     OW53217  11.922  11.079   4.378  0.0112 -0.0785 -0.1849
14750SOL    HW153218  11.919  11.121   4.292  1.0389 -2.4678 -1.4781
14750SOL    HW253219  11.848  11.018   4.377  0.0432 -0.1476  0.6580
14751SOL     OW53220   4.567   7.714   3.045  0.0176 -0.3031 -0.2851
14751SOL    HW153221   4.502   7.769   3.090  0.8628  0.6358 -0.1567
14751SOL    HW253222   4.534   7.706   2.956  0.8343  2.1625 -0.9069
14752SOL     OW53223   3.227   8.849   0.589 -0.4913  0.8263 -0.2870
14752SOL    HW153224   3.207   8.932   0.546 -1.8173  0.2116 -0.9088
14752SOL    HW253225   3.142   8.816   0.619  0.1427  0.1998  0.9279
14753SOL     OW53226  12.511   5.200   9.594  0.6406 -0.3643 -0.1042
14753SOL    HW153227  12.486   5.210   9.686 -0.7074 -0.2358 -0.4661
14753SOL    HW253228  12.550   5.284   9.571  0.8482 -0.3429  0.2997
14754SOL     OW53229   8.712  10.381   2.047 -0.3030  0.4746 -0.3172
14754SOL    HW153230   8.801  10.413   2.035 -0.1362 -0.0408 -0.4804
14754SOL    HW253231   8.699  10.317   1.976 -0.9640  0.8870 -0.5807
14755SOL     OW53232   9.754   1.057   0.164 -0.6209  0.2938 -0.1253
14755SOL    HW153233   9.788   1.121   0.101 -0.6956  0.1976 -0.2645
14755SOL    HW253234   9.660   1.054   0.146 -0.3805 -1.1253 -1.2908
14756SOL     OW53235   1.648   3.394   2.167 -0.6016  0.5346  0.5481
14756SOL    HW153236   1.635   3.315   2.115  0.2977  1.5790 -1.3861
14756SOL    HW253237   1.742   3.402   2.177 -0.5643  2.0940 -0.5856
14757SOL     OW53238   3.939   8.665   8.084 -0.2763 -0.1641  0.0733
14757SOL    HW153239   3.855   8.650   8.128 -0.9023  0.5865 -0.8365
14757SOL    HW253240   3.982   8.579   8.085 -1.4157 -0.7580 -0.2065
14758SOL     OW53241   9.654   3.452   5.303  0.1405 -0.1483  0.4072
14758SOL    HW153242   9.678   3.499   5.384 -3.0422  0.6096  1.0597
14758SOL    HW253243   9.579   3.398   5.329 -0.2710 -0.7216 -1.8321
14759SOL     OW53244   6.780   3.686   6.983  0.7131  0.5799 -0.5671
14759SOL    HW153245   6.808   3.730   7.063  1.1132 -0.4104 -0.1509
14759SOL    HW253246   6.770   3.756   6.919  1.9472  1.2074 -0.0976
14760SOL     OW53247  10.446   3.647   2.443 -0.3234 -0.0900 -0.0633
14760SOL    HW153248  10.483   3.560   2.432 -0.3143 -0.0074 -0.6818
14760SOL    HW253249  10.482   3.677   2.527 -1.4293 -1.2177  0.8520
14761SOL     OW53250   5.791   7.949   4.243 -0.0749 -0.0371 -0.4077
14761SOL    HW153251   5.732   8.020   4.269  0.7673  1.4096 -2.1674
14761SOL    HW253252   5.837   7.926   4.324 -0.1926  1.6344  0.1839
14762SOL     OW53253   1.457   8.355   2.152  0.2022  0.0967 -0.3991
14762SOL    HW153254   1.474   8.417   2.080  4.1940 -0.7391 -0.4366
14762SOL    HW253255   1.532   8.366   2.211  0.6602 -3.9294  0.0738
14763SOL     OW53256   9.440   3.715   3.185 -0.2736  0.1031  0.1037
14763SOL    HW153257   9.351   3.682   3.200 -0.7685  0.8532 -1.0789
14763SOL    HW253258   9.478   3.654   3.122 -1.1406  1.5913 -1.9736
14764SOL     OW53259   8.154  10.385   8.736 -1.1170 -0.1388  0.8548
14764SOL    HW153260   8.228  10.337   8.700  0.1514  1.3480  1.3801
14764SOL    HW253261   8.191  10.438   8.807 -2.8286  0.0484  1.6681
14765SOL     OW53262   8.239  12.505  10.892  0.1947 -0.5872  0.6138
14765SOL    HW153263   8.316  12.513  10.948  0.3528  0.3384  0.2856
14765SOL    HW253264   8.203  12.419  10.913  0.7706 -0.6384  1.4659
14766SOL     OW53265   9.960  12.072   3.383  0.2046  0.5435 -0.0335
14766SOL    HW153266   9.924  12.159   3.404  0.6838  0.5997  0.5700
14766SOL    HW253267  10.036  12.090   3.328  1.0531  0.5759  1.1335
14767SOL     OW53268  10.792  10.356   9.303  0.0804 -0.0388 -0.5654
14767SOL    HW153269  10.862  10.416   9.329 -0.9458  1.1087 -0.3605
14767SOL    HW253270  10.771  10.308   9.383 -0.0527  0.3317 -0.3765
14768SOL     OW53271  11.709   3.096   4.768 -0.1362  0.2628 -0.5173
14768SOL    HW153272  11.685   3.016   4.816 -0.9521 -0.0435 -1.3922
14768SOL    HW253273  11.749   3.152   4.833  2.4488 -1.6737 -0.2853
14769SOL     OW53274   2.491   7.380   6.867 -0.3144 -0.2250 -0.0274
14769SOL    HW153275   2.483   7.407   6.776  0.9181  2.9371  0.6938
14769SOL    HW253276   2.483   7.284   6.864 -0.9411 -0.1902 -3.3243
14770SOL     OW53277   5.447   0.815   7.453  0.0198  0.1757 -0.0076
14770SOL    HW153278   5.505   0.807   7.377 -0.1913  0.9800 -0.2601
14770SOL    HW253279   5.407   0.728   7.461  0.0919  0.0585 -0.7763
14771SOL     OW53280   6.789   5.170   1.714  0.6749 -0.7422  0.0057
14771SOL    HW153281   6.718   5.139   1.659 -0.3836  0.9224  0.3486
14771SOL    HW253282   6.838   5.231   1.659 -1.3311  2.1874  1.2038
14772SOL     OW53283   0.021   5.983  11.857  0.0494  0.4397 -0.4227
14772SOL    HW153284  -0.035   5.989  11.779 -0.5459  0.6123  0.0140
14772SOL    HW253285  -0.040   5.966  11.929  0.5957  0.2955  0.0130
14773SOL     OW53286   6.340   4.359  11.798  0.2643  0.9576  0.5307
14773SOL    HW153287   6.367   4.338  11.888 -0.8669 -1.6542  0.3558
14773SOL    HW253288   6.247   4.337  11.795  0.4965 -0.0156 -1.5072
14774SOL     OW53289   9.468  11.513   2.992 -0.4675  0.2472 -0.1507
14774SOL    HW153290   9.519  11.434   2.975  0.6402  0.8588  0.2286
14774SOL    HW253291   9.531  11.584   2.984 -0.7110  0.8737  2.5373
14775SOL     OW53292   7.720   2.619   8.021 -0.2497 -0.4971  0.0524
14775SOL    HW153293   7.732   2.662   8.105 -0.9389 -1.1151  0.4728
14775SOL    HW253294   7.802   2.571   8.007  0.7117  1.2353 -0.6278
14776SOL     OW53295   0.939  11.794   6.783 -0.1700 -0.0216  0.1538
14776SOL    HW153296   1.021  11.758   6.818 -0.5471 -0.5581  0.4925
14776SOL    HW253297   0.942  11.887   6.805  0.4022 -0.0154  0.0629
14777SOL     OW53298   4.194   7.697   4.621 -0.0178 -0.0033 -0.1498
14777SOL    HW153299   4.118   7.657   4.663 -0.5685  0.0930 -1.0248
14777SOL    HW253300   4.188   7.790   4.645 -2.1449  0.7154 -2.9087
14778SOL     OW53301   2.246   0.081   5.504 -0.4936  0.2167  0.0851
14778SOL    HW153302   2.181   0.126   5.450  0.7116 -0.7265 -2.2849
14778SOL    HW253303   2.316   0.145   5.515 -0.1497 -0.0359 -0.6232
14779SOL     OW53304   3.980  10.530   0.816  1.0740 -0.7107 -0.2966
14779SOL    HW153305   3.986  10.533   0.911 -0.6020 -2.1991 -0.0775
14779SOL    HW253306   3.894  10.567   0.796  1.6233  0.0725 -1.2849
14780SOL     OW53307  11.355   9.413   6.169  0.2436 -0.1024  0.3057
14780SOL    HW153308  11.366   9.457   6.253  1.1591 -0.3391  0.3241
14780SOL    HW253309  11.263   9.426   6.146  0.1800  0.6488  0.9570
14781SOL     OW53310   5.452   4.053   7.309  0.6554 -0.5009 -0.1762
14781SOL    HW153311   5.406   4.049   7.225 -1.6075  3.2019  0.6518
14781SOL    HW253312   5.518   4.121   7.296 -0.3512  0.7936  1.2230
14782SOL     OW53313   8.220  10.635  11.718  0.1488 -0.0107  0.4545
14782SOL    HW153314   8.212  10.692  11.641  0.3863  0.4842  0.7952
14782SOL    HW253315   8.314  10.631  11.735  0.1177 -0.3362  0.5604
14783SOL     OW53316   2.201  12.289  11.409  0.3053  0.2799 -0.6075
14783SOL    HW153317   2.245  12.372  11.391  0.9621 -0.1074 -0.8405
14783SOL    HW253318   2.263  12.222  11.379 -0.1463 -0.2982 -0.2779
14784SOL     OW53319  11.435   2.316   9.499  0.3360 -0.3994  0.7117
14784SOL    HW153320  11.476   2.280   9.420 -0.5513 -1.1581  0.5734
14784SOL    HW253321  11.445   2.246   9.564  0.6750  0.0507  1.1476
14785SOL     OW53322   9.679   5.700   7.944  0.3741 -0.1037  0.0087
14785SOL    HW153323   9.621   5.653   7.884  2.1765 -2.1914 -0.2362
14785SOL    HW253324   9.696   5.637   8.014  2.8196  0.1666 -0.2726
14786SOL     OW53325  11.468   8.530   5.225  1.3105 -0.2796 -0.4408
14786SOL    HW153326  11.389   8.486   5.258  0.0933  0.4444 -2.2204
14786SOL    HW253327  11.513   8.560   5.303 -0.4721 -0.2481  0.6315
14787SOL     OW53328   2.069   7.578   9.338  0.2752  0.3579  0.1989
14787SOL    HW153329   1.994   7.518   9.337 -0.6268  1.4503  0.7725
14787SOL    HW253330   2.123   7.550   9.263 -1.0817  0.0429 -0.6931
14788SOL     OW53331   5.620   3.712   8.317 -0.9044 -0.1449 -0.0160
14788SOL    HW153332   5.637   3.618   8.308 -1.6753 -0.3419  0.4794
14788SOL    HW253333   5.701   3.748   8.353  0.7255 -0.0254 -3.4210
14789SOL     OW53334   5.216   8.605   4.761  0.4363  0.1712 -0.7969
14789SOL    HW153335   5.296   8.565   4.725  0.1517  0.7862 -2.1405
14789SOL    HW253336   5.164   8.530   4.790  1.3468 -0.2557 -0.1879
14790SOL     OW53337  12.448   1.325   5.240 -0.9346 -0.1644  0.4881
14790SOL    HW153338  12.413   1.409   5.269 -1.1871 -0.2395  0.4018
14790SOL    HW253339  12.527   1.313   5.293 -1.8762 -0.7238  1.8451
14791SOL     OW53340   5.956   9.203   9.710  0.1007 -0.5832 -0.0159
14791SOL    HW153341   5.864   9.187   9.727  0.2265 -0.4387  0.8452
14791SOL    HW253342   5.996   9.116   9.709 -0.0301 -0.6416 -0.3242
14792SOL     OW53343   6.374   0.981   2.877 -0.5506 -0.1747 -0.0666
14792SOL    HW153344   6.328   0.908   2.920  1.1474 -1.6549 -0.6271
14792SOL    HW253345   6.346   0.976   2.786 -1.4187  0.7265  0.1319
14793SOL     OW53346   1.004   3.098   8.716 -0.5047  0.1488 -0.1704
14793SOL    HW153347   1.054   3.020   8.739  1.6286  0.6473 -2.5379
14793SOL    HW253348   0.924   3.065   8.675  0.0309 -0.7945 -0.4778
14794SOL     OW53349   2.503   4.271  12.252 -0.1797  0.4666 -0.4499
14794SOL    HW153350   2.409   4.276  12.237 -0.3170 -0.5102  0.0162
14794SOL    HW253351   2.535   4.214  12.182  0.6649  3.6236 -2.8941
14795SOL     OW53352  12.548   4.761   9.288 -0.2338 -0.0724 -0.3474
14795SOL    HW153353  12.593   4.845   9.280  0.8945 -0.7088 -0.9253
14795SOL    HW253354  12.455   4.782   9.274  0.0846  1.0036 -0.9441
14796SOL     OW53355   1.825   6.114   3.834  0.1683 -0.2444 -0.0954
14796SOL    HW153356   1.774   6.177   3.886  0.0347 -1.2650  1.0451
14796SOL    HW253357   1.910   6.111   3.877  0.6204  0.1359 -0.9453
14797SOL     OW53358   7.631   2.193   6.159 -1.1399 -0.0317  0.3351
14797SOL    HW153359   7.711   2.180   6.211  1.1293  0.0447 -2.8827
14797SOL    HW253360   7.604   2.283   6.179  0.4971  0.4843  0.3722
14798SOL     OW53361   4.813   6.944  11.894 -0.5962 -0.1776 -0.3199
14798SOL    HW153362   4.741   6.896  11.853 -0.2740 -0.4069 -0.6190
14798SOL    HW253363   4.887   6.933  11.834 -0.4303  0.4256 -0.2391
14799SOL     OW53364  11.623   8.323   3.318  0.8423  0.2698  0.0960
14799SOL    HW153365  11.692   8.375   3.360  1.0359  1.5566 -1.6784
14799SOL    HW253366  11.654   8.310   3.228 -0.6361 -0.2522 -0.3786
14800SOL     OW53367  10.432   2.897   6.501 -0.6033 -0.4894  0.2863
14800SOL    HW153368  10.462   2.806   6.489  1.4921  0.2165 -0.2861
14800SOL    HW253369  10.442   2.913   6.594  1.6605 -0.0666  0.0352
14801SOL     OW53370  10.927   8.105  12.313 -0.2580 -0.2616 -0.2738
14801SOL    HW153371  10.834   8.112  12.292  0.2337 -0.5450 -2.8608
14801SOL    HW253372  10.971   8.160  12.248  1.3860 -0.0167  0.9895
14802SOL     OW53373   7.875   2.958  11.749  0.0104  0.0975  0.3493
14802SOL    HW153374   7.827   3.035  11.778 -2.3192 -1.1526  0.0449
14802SOL    HW253375   7.889   2.972  11.656  0.3167  0.4895  0.4511
14803SOL     OW53376   5.840   0.960   3.908 -0.1713  0.5670 -0.6539
14803SOL    HW153377   5.883   0.904   3.845  1.2591  0.3873  0.4150
14803SOL    HW253378   5.900   0.961   3.983 -2.2872 -0.1051  1.1397
14804SOL     OW53379   2.584   2.573   3.641  0.1618 -0.3802 -0.4069
14804SOL    HW153380   2.636   2.648   3.669  1.9875 -1.6710 -0.1896
14804SOL    HW253381   2.543   2.541   3.721  0.3481 -0.3336 -0.2931
14805SOL     OW53382   9.814   0.999   2.844 -0.4184 -0.5868  0.0785
14805SOL    HW153383   9.772   0.918   2.875  1.1678 -1.0775  1.1084
14805SOL    HW253384   9.831   1.048   2.924 -3.0599  1.7409 -0.6329
14806SOL     OW53385  10.342  12.091   5.657 -0.3191 -0.2125  0.2182
14806SOL    HW153386  10.264  12.036   5.651 -0.7372  0.3856  0.1393
14806SOL    HW253387  10.354  12.125   5.568 -0.7722  0.7861  0.5250
14807SOL     OW53388   5.721   7.098  10.764 -0.2097  0.4101  0.4046
14807SOL    HW153389   5.792   7.139  10.716 -1.1486 -1.3702 -2.7691
14807SOL    HW253390   5.672   7.171  10.802  1.3429  1.8197 -0.2187
14808SOL     OW53391   9.944  10.911   1.532 -0.1532 -0.1432  0.0321
14808SOL    HW153392   9.962  10.866   1.614  0.3457  0.8408  0.4821
14808SOL    HW253393  10.017  10.973   1.522  1.5892 -2.4150 -2.8047
14809SOL     OW53394   2.009  11.135   7.099  0.3424  0.6694 -0.2039
14809SOL    HW153395   2.028  11.080   7.175 -1.3948 -0.1261 -0.2933
14809SOL    HW253396   2.094  11.174   7.076  1.7045 -2.0126 -0.1729
14810SOL     OW53397  12.186   3.019   7.465 -0.2628  0.0762  0.3552
14810SOL    HW153398  12.137   2.943   7.498 -0.2284 -0.7505 -1.3656
14810SOL    HW253399  12.121   3.089   7.461 -1.3067 -0.8906 -1.4788
14811SOL     OW53400   2.264   0.938  11.167 -0.0520  0.3461 -0.0771
14811SOL    HW153401   2.308   1.010  11.123  1.2745 -0.3499  0.0758
14811SOL    HW253402   2.181   0.976  11.199 -0.5434  1.1406 -2.1733
14812SOL     OW53403  12.098  12.485   8.628 -0.0024 -0.0723 -0.3398
14812SOL    HW153404  12.084  12.399   8.669  2.0863  0.4364  1.6827
14812SOL    HW253405  12.021  12.536   8.654  0.3176 -0.3839  1.3511
14813SOL     OW53406   9.688   8.137  11.704 -0.4525  0.1886 -0.3364
14813SOL    HW153407   9.721   8.047  11.709 -1.6971 -0.2928 -0.4306
14813SOL    HW253408   9.683   8.166  11.795 -0.8245 -0.1394 -0.2483
14814SOL     OW53409   3.960   4.422  11.220 -0.3658 -0.1744  0.1849
14814SOL    HW153410   3.988   4.513  11.227  2.4463 -1.0152  1.0103
14814SOL    HW253411   3.978   4.398  11.129 -0.6123 -0.0690  0.1072
14815SOL     OW53412  10.656   8.122   7.007 -0.4989  0.0914  0.2932
14815SOL    HW153413  10.638   8.208   7.044 -3.2912  0.7959 -2.2575
14815SOL    HW253414  10.744   8.130   6.968  1.6528 -0.0914  4.5656
14816SOL     OW53415   9.749   7.434   6.239 -0.1493  0.1189  0.6154
14816SOL    HW153416   9.766   7.520   6.275 -0.7682  1.1201 -1.3105
14816SOL    HW253417   9.768   7.373   6.310  0.3356  1.8283  2.0092
14817SOL     OW53418   7.536  11.682   5.582  0.1882  0.7006 -0.1000
14817SOL    HW153419   7.469  11.669   5.514  1.2939 -1.2342 -0.9106
14817SOL    HW253420   7.617  11.695   5.532  1.0994 -1.1806  0.7963
14818SOL     OW53421  12.298   4.832   7.692 -0.3122 -0.6463 -0.2311
14818SOL    HW153422  12.216   4.821   7.741  0.2926 -0.4101  0.8700
14818SOL    HW253423  12.354   4.882   7.751  0.7572 -1.1187 -0.8290
14819SOL     OW53424   2.561   1.901   0.915  0.2712  0.6381 -0.0255
14819SOL    HW153425   2.555   1.811   0.882  1.2558 -0.0811  1.6775
14819SOL    HW253426   2.654   1.916   0.927  0.0103  1.3101  1.2590
14820SOL     OW53427   3.617   1.778   9.543  0.0897  0.3819 -0.1275
14820SOL    HW153428   3.562   1.833   9.487  1.5537  1.2993 -0.7068
14820SOL    HW253429   3.578   1.690   9.536 -1.3279  1.0011 -0.4469
14821SOL     OW53430  10.742   8.642   2.782  0.3687  0.7166  0.1036
14821SOL    HW153431  10.749   8.631   2.877  1.0980  3.6732  0.4863
14821SOL    HW253432  10.832   8.649   2.752  0.1504  3.8336 -0.1352
14822SOL     OW53433   3.790  10.361   9.920 -0.1064 -0.4980 -0.2770
14822SOL    HW153434   3.734  10.438   9.908 -0.3522 -0.4892  0.8385
14822SOL    HW253435   3.862  10.374   9.858 -0.7572  0.0393 -0.9429
14823SOL     OW53436   5.626   0.097   2.608 -0.1880  0.2665  0.0837
14823SOL    HW153437   5.602   0.178   2.564 -2.8539 -0.5984 -0.2431
14823SOL    HW253438   5.632   0.032   2.538 -0.1059 -0.2258  0.5346
14824SOL     OW53439   1.965   6.659   0.605 -0.0671  0.2738  0.1708
14824SOL    HW153440   1.939   6.647   0.513  1.3668  0.4948 -0.2979
14824SOL    HW253441   1.902   6.607   0.655  1.0098 -2.5713 -1.1888
14825SOL     OW53442   2.277   7.622   9.756 -0.3329 -0.4881  0.3189
14825SOL    HW153443   2.280   7.590   9.666  0.2220 -1.5529  0.6926
14825SOL    HW253444   2.259   7.544   9.809 -0.1227  0.0257  1.1712
14826SOL     OW53445   9.013   0.608   2.465  0.0085 -0.2032  1.0003
14826SOL    HW153446   9.074   0.552   2.416  1.2551  2.1204 -0.2560
14826SOL    HW253447   9.068   0.652   2.529 -0.1599  2.3257 -0.4905
14827SOL     OW53448   6.276  10.399   6.767 -0.1656 -0.4683  0.4629
14827SOL    HW153449   6.230  10.353   6.837 -2.3772  1.4860  0.4347
14827SOL    HW253450   6.223  10.478   6.753  0.8856 -0.2030 -2.5725
14828SOL     OW53451   2.351   4.994   3.573  0.5260  0.3364 -0.0153
14828SOL    HW153452   2.401   5.044   3.637  1.5554 -0.5249 -0.1188
14828SOL    HW253453   2.414   4.973   3.505  0.4705 -2.1065  0.5946
14829SOL     OW53454   8.845  12.402   9.529  0.1647  0.0037  0.8138
14829SOL    HW153455   8.811  12.491   9.543 -0.2610 -0.2957  1.7722
14829SOL    HW253456   8.857  12.396   9.434  1.3950  1.5146  0.8205
14830SOL     OW53457  10.550  11.783   7.286 -0.1674 -0.3274  0.1550
14830SOL    HW153458  10.469  11.752   7.326 -1.7363 -0.0859 -2.6324
14830SOL    HW253459  10.605  11.705   7.280 -1.4137 -1.1666 -0.6645
14831SOL     OW53460  10.337   8.540   8.110  0.0324 -0.2299 -0.6949
14831SOL    HW153461  10.347   8.447   8.132 -0.9843 -0.7498 -2.2725
14831SOL    HW253462  10.245   8.550   8.088 -0.1985  1.5080  0.8077
14832SOL     OW53463   6.834   1.826   9.972  0.0805  0.0885  0.2051
14832SOL    HW153464   6.841   1.764  10.045 -0.0922 -0.1694  0.0051
14832SOL    HW253465   6.901   1.797   9.910 -0.3948 -0.2687 -0.1567
14833SOL     OW53466   8.344   6.337   1.963  0.5756  0.3811 -0.2103
14833SOL    HW153467   8.259   6.333   2.007  0.8631  0.7848  0.3891
14833SOL    HW253468   8.361   6.247   1.935 -0.4333  0.4354 -1.0903
14834SOL     OW53469  11.908   0.744   1.945 -0.2030  0.7671  0.4743
14834SOL    HW153470  11.864   0.674   1.896  0.6068  0.1862  0.5438
14834SOL    HW253471  11.845   0.770   2.011 -0.0687 -0.8334  1.2964
14835SOL     OW53472   7.889  11.687   0.510  0.0986  0.0906 -0.4229
14835SOL    HW153473   7.875  11.722   0.421 -3.2767 -0.4298 -0.2029
14835SOL    HW253474   7.895  11.765   0.565  2.3135  0.4243 -1.0061
14836SOL     OW53475   9.194   1.403   3.062 -0.2162 -0.0958 -0.1394
14836SOL    HW153476   9.161   1.318   3.032  3.2585 -1.5854 -0.1062
14836SOL    HW253477   9.187   1.398   3.157 -1.4192  0.3231 -0.1893
14837SOL     OW53478   8.309   5.725   6.113 -0.0873 -0.2693  0.7226
14837SOL    HW153479   8.272   5.694   6.196 -1.0287  0.7367  0.7043
14837SOL    HW253480   8.386   5.671   6.100  0.9966  0.5678  3.0518
14838SOL     OW53481   8.068  11.026   6.381 -1.0665 -0.3150  0.2530
14838SOL    HW153482   8.097  10.975   6.304  0.3023  0.4638  0.2188
14838SOL    HW253483   7.973  11.020   6.379 -1.1331  0.4286 -2.0420
14839SOL     OW53484   7.809   7.351   6.032  0.5477 -0.5378  0.4711
14839SOL    HW153485   7.865   7.379   5.960 -0.1994 -1.4872 -0.5068
14839SOL    HW253486   7.720   7.353   5.996  0.1477 -0.9617  1.3870
14840SOL     OW53487   1.686   8.698   7.942  0.1148  0.4785 -0.3716
14840SOL    HW153488   1.673   8.607   7.969  3.2028  0.2417  0.7630
14840SOL    HW253489   1.612   8.746   7.979 -1.6489 -1.5296 -1.0881
14841SOL     OW53490   5.864  10.390   1.994  0.4383 -0.1114 -0.0789
14841SOL    HW153491   5.890  10.370   2.084  0.0169 -1.5243 -0.2459
14841SOL    HW253492   5.928  10.454   1.964  0.8949 -0.0197  1.0536
14842SOL     OW53493   2.584   5.501  10.348  0.3589 -0.1756  0.0218
14842SOL    HW153494   2.649   5.567  10.325  0.8125  0.1909  2.1406
14842SOL    HW253495   2.529   5.544  10.414  0.5931 -1.8486  1.3651
14843SOL     OW53496   5.805   0.066   0.749 -0.3947  0.4669  0.6511
14843SOL    HW153497   5.865   0.106   0.811 -1.7564  0.4365  2.0607
14843SOL    HW253498   5.843  -0.020   0.732  0.2398  0.6466  1.1083
14844SOL     OW53499   5.432   3.329   6.627  0.5962 -0.7567  0.2608
14844SOL    HW153500   5.339   3.332   6.608  0.8025 -0.0854 -0.7481
14844SOL    HW253501   5.445   3.248   6.676 -0.4446 -1.0650  0.0367
14845SOL     OW53502  10.490  11.032   2.307 -0.0812  0.3266  0.2368
14845SOL    HW153503  10.409  11.005   2.264  0.4557 -1.5867  0.3406
14845SOL    HW253504  10.557  10.973   2.271  0.9661  0.8116  1.3299
14846SOL     OW53505   4.060  11.330   0.605 -0.6667  0.3042 -0.3503
14846SOL    HW153506   3.994  11.389   0.642  0.8744  1.8426  0.0413
14846SOL    HW253507   4.009  11.254   0.574 -2.8041  2.0214 -1.3447
14847SOL     OW53508   8.760   0.832  10.533 -0.5385 -0.0082 -0.0272
14847SOL    HW153509   8.831   0.768  10.537 -2.0923 -1.7578  1.4239
14847SOL    HW253510   8.798   0.907  10.487  1.5923 -1.6590 -1.1569
14848SOL     OW53511   5.838   4.725  10.527  0.3881  0.3408 -0.6810
14848SOL    HW153512   5.887   4.651  10.490  0.5214 -0.4829  1.0590
14848SOL    HW253513   5.887   4.751  10.604 -1.4154  0.0630  0.6313
14849SOL     OW53514   8.134   2.196  12.348 -0.5785  0.7617 -0.2490
14849SOL    HW153515   8.109   2.265  12.410 -0.7017 -0.6668  1.3493
14849SOL    HW253516   8.095   2.116  12.383  0.4200 -0.3259 -1.4969
14850SOL     OW53517   4.975   0.732   6.096  0.4077 -0.4565  0.8078
14850SOL    HW153518   4.909   0.694   6.154 -0.0011 -0.4612  0.3459
14850SOL    HW253519   5.048   0.669   6.099 -0.9832 -2.3162 -1.4014
14851SOL     OW53520   2.713  10.166  12.446  0.3405 -0.0815  0.1440
14851SOL    HW153521   2.755  10.186  12.530  0.1206 -3.4064  1.2098
14851SOL    HW253522   2.621  10.189  12.459  0.2138 -1.0107  1.0555
14852SOL     OW53523  11.129   6.158   7.006 -0.2708  0.7499 -0.1895
14852SOL    HW153524  11.206   6.171   7.061 -0.6734  0.8690  0.3624
14852SOL    HW253525  11.060   6.210   7.048 -0.1822  2.2120 -1.7383
14853SOL     OW53526   4.795   0.875   9.190 -0.8062 -0.2942 -0.2628
14853SOL    HW153527   4.730   0.938   9.223 -1.2776  0.1020 -1.8226
14853SOL    HW253528   4.851   0.856   9.265 -1.5734  0.8412  0.6375
14854SOL     OW53529  11.317   9.935   7.571 -0.0378  0.5707 -0.0321
14854SOL    HW153530  11.369   9.980   7.505  1.3707  1.8818  1.8616
14854SOL    HW253531  11.281  10.005   7.626  0.5918 -0.4796  1.8219
14855SOL     OW53532   5.080   6.725   9.930  0.3504  0.0033 -0.3600
14855SOL    HW153533   5.169   6.749   9.953 -0.0566  0.0062  1.4120
14855SOL    HW253534   5.088   6.639   9.889  1.0950 -0.5375  0.8550
14856SOL     OW53535   0.466   5.363   0.618  0.6728  0.4681  0.4277
14856SOL    HW153536   0.393   5.325   0.569  0.1017 -1.0700  2.3517
14856SOL    HW253537   0.500   5.431   0.560 -2.8048  1.8836 -0.1918
14857SOL     OW53538   9.407  10.897  11.951 -0.4615  0.4437 -0.3413
14857SOL    HW153539   9.392  10.858  11.864  0.9786 -0.3882 -0.2477
14857SOL    HW253540   9.477  10.844  11.989  1.1028  2.6940  0.0905
14858SOL     OW53541   0.705   2.318   3.492 -0.0493  0.2100 -0.1381
14858SOL    HW153542   0.734   2.235   3.529 -1.5939 -0.3155 -0.0471
14858SOL    HW253543   0.610   2.312   3.491 -0.1337  1.1199 -2.1187
14859SOL     OW53544   3.162   4.697  10.783  0.6175  0.2771 -0.3450
14859SOL    HW153545   3.190   4.769  10.726  0.8819 -0.4940 -1.2251
14859SOL    HW253546   3.209   4.620  10.749  0.5413 -0.2643  0.7313
14860SOL     OW53547   5.011   1.790   6.742 -0.2595  0.1583 -0.2857
14860SOL    HW153548   4.970   1.794   6.656  0.4221  3.2428 -0.5944
14860SOL    HW253549   4.941   1.764   6.801 -0.9522 -1.1246 -1.6055
14861SOL     OW53550   5.242  12.263   2.797 -0.1287  0.2420 -0.3079
14861SOL    HW153551   5.154  12.228   2.785  0.7570 -2.2928  0.1571
14861SOL    HW253552   5.299  12.204   2.749  1.5760  0.3333  1.4613
14862SOL     OW53553   1.634   3.903   8.554 -0.2438  0.3743  0.3844
14862SOL    HW153554   1.546   3.875   8.577 -0.7077  1.7294  0.3237
14862SOL    HW253555   1.668   3.943   8.634  0.6466 -0.8654  0.6593
14863SOL     OW53556  11.576   5.538   1.937  0.0552  0.5349 -0.2139
14863SOL    HW153557  11.637   5.502   1.872 -2.1964 -0.5548 -1.8740
14863SOL    HW253558  11.516   5.592   1.885 -1.9143 -0.4857  0.9180
14864SOL     OW53559  11.591  12.069   2.780  0.0549 -0.5995  0.0916
14864SOL    HW153560  11.668  12.018   2.806  1.2058  0.6867 -0.6710
14864SOL    HW253561  11.606  12.156   2.816  0.5940  0.6064 -2.7652
14865SOL     OW53562   7.091   9.913   7.156 -0.0846  0.3464 -0.5594
14865SOL    HW153563   7.175   9.942   7.121  0.2451 -0.9955 -0.9575
14865SOL    HW253564   7.066   9.981   7.219  2.4809 -0.3618  1.3964
14866SOL     OW53565   8.416  10.683   9.957 -0.2965 -0.0148  0.6320
14866SOL    HW153566   8.403  10.718  10.046  3.6201  2.1390  0.5759
14866SOL    HW253567   8.452  10.596   9.971  0.9581  0.5819  1.2245
14867SOL     OW53568   0.418  12.574   7.329  0.2130  0.1469  0.1904
14867SOL    HW153569   0.513  12.567   7.328  0.2795 -0.7426  3.0282
14867SOL    HW253570   0.392  12.575   7.237  2.7484 -3.0846 -0.7294
14868SOL     OW53571   8.422   7.290   6.548  0.5632  0.3305 -0.0913
14868SOL    HW153572   8.340   7.246   6.526  0.1194  0.5934  0.9620
14868SOL    HW253573   8.418   7.374   6.501  1.0512 -0.3883 -1.4602
14869SOL     OW53574   6.812   9.416  12.209 -0.1900  0.2120 -0.2046
14869SOL    HW153575   6.840   9.360  12.137 -3.5727  1.7984 -3.0608
14869SOL    HW253576   6.770   9.355  12.271 -1.8182 -0.7800 -2.1578
14870SOL     OW53577  11.544   0.299   4.022  0.2398  0.6735 -0.3490
14870SOL    HW153578  11.554   0.388   4.055  2.3524  0.3867 -0.0332
14870SOL    HW253579  11.457   0.297   3.983 -1.1736  1.9549  2.4107
14871SOL     OW53580   1.603   4.519   9.029 -0.2823 -1.0570 -0.2721
14871SOL    HW153581   1.582   4.458   8.958  0.6890  0.7184 -2.2195
14871SOL    HW253582   1.561   4.601   9.002  0.7298 -0.1493  0.8385
14872SOL     OW53583  12.268  10.843   8.463 -0.8882  0.0920 -0.0347
14872SOL    HW153584  12.291  10.764   8.414  0.6183  0.3421  0.2319
14872SOL    HW253585  12.257  10.813   8.553  1.9571  0.4945  0.5151
14873SOL     OW53586   6.278   6.945   6.068 -0.6325 -0.4867 -0.5167
14873SOL    HW153587   6.205   6.961   6.009 -1.6227 -1.7854  0.2869
14873SOL    HW253588   6.244   6.969   6.155  0.6661  1.0485 -0.3996
14874SOL     OW53589  11.364   7.440  11.532  0.4792  0.3682  0.2181
14874SOL    HW153590  11.295   7.415  11.471  0.9783 -0.4307 -0.0301
14874SOL    HW253591  11.317   7.477  11.607 -0.2054  0.0561 -0.0449
14875SOL     OW53592   1.548   9.761   0.147 -0.4332 -0.6632  0.2481
14875SOL    HW153593   1.624   9.814   0.169 -1.1547  0.2341  0.6654
14875SOL    HW253594   1.559   9.680   0.197  0.2971 -0.5947  0.2059
14876SOL     OW53595   0.750   2.728   4.562  0.6368 -0.7260 -0.8593
14876SOL    HW153596   0.688   2.760   4.497 -0.5912 -1.6633 -0.1858
14876SOL    HW253597   0.824   2.789   4.556  0.7496 -0.9702 -3.3763
14877SOL     OW53598  11.577   4.757  10.460  0.5766 -0.0156  0.2473
14877SOL    HW153599  11.485   4.771  10.439  0.5470 -0.4777  0.0463
14877SOL    HW253600  11.599   4.674  10.418  1.1626  0.2321  0.0450
14878SOL     OW53601   9.923   1.019   7.995 -0.4734 -0.0098  0.1738
14878SOL    HW153602   9.933   1.047   7.904  1.4286 -0.7794  0.1088
14878SOL    HW253603   9.958   1.092   8.046  1.4246 -0.8436  0.1302
14879SOL     OW53604  11.826   5.401  11.402  0.3985 -0.2748 -0.0722
14879SOL    HW153605  11.758   5.466  11.420  0.7772  0.2210 -0.3656
14879SOL    HW253606  11.789   5.318  11.428 -0.5083 -0.0790 -0.7068
14880SOL     OW53607  12.011  12.500   3.788 -0.5437 -0.2183  0.2468
14880SOL    HW153608  11.943  12.433   3.799 -0.7734 -0.7193 -3.2556
14880SOL    HW253609  12.083  12.455   3.744  0.6583  1.1314  0.7468
14881SOL     OW53610   3.617   6.512   7.797 -0.2691  0.4262  0.1315
14881SOL    HW153611   3.570   6.435   7.828  0.9882 -0.4359 -0.0264
14881SOL    HW253612   3.690   6.477   7.746 -0.3753  1.7525 -1.0045
14882SOL     OW53613   0.255   0.852   1.424  0.0417 -0.2916 -0.2411
14882SOL    HW153614   0.235   0.946   1.427  0.6072 -0.1615  2.7740
14882SOL    HW253615   0.327   0.841   1.487  0.2378 -2.6949 -0.8014
14883SOL     OW53616   8.562   5.038   2.474  0.2069  0.3507  0.2705
14883SOL    HW153617   8.637   5.095   2.489  0.3237  0.3640 -0.3390
14883SOL    HW253618   8.546   4.997   2.559  0.1030  1.3051  0.7226
14884SOL     OW53619   8.084  11.278   3.316 -0.1211 -0.4069 -0.0003
14884SOL    HW153620   8.046  11.254   3.400  2.2813  1.0513  1.6561
14884SOL    HW253621   8.154  11.214   3.302 -0.5806 -0.7115 -0.9610
14885SOL     OW53622  11.593   0.530   4.551  0.0826 -0.5337  0.4127
14885SOL    HW153623  11.570   0.619   4.576  3.3942  0.5265  0.2200
14885SOL    HW253624  11.619   0.488   4.633 -1.0196 -1.2049  0.4338
14886SOL     OW53625   7.207   1.501  11.592  0.1083 -0.5709 -0.8758
14886SOL    HW153626   7.168   1.494  11.680 -0.2977  4.4967 -0.3778
14886SOL    HW253627   7.301   1.503  11.608  0.0259  0.7020 -0.4344
14887SOL     OW53628   6.322   3.029   0.793  0.0923 -0.2068 -0.0869
14887SOL    HW153629   6.239   2.989   0.768 -0.7107  2.2825 -1.7288
14887SOL    HW253630   6.298   3.115   0.829  1.9602  0.8943 -1.3069
14888SOL     OW53631   8.752   5.098   9.143  0.1877 -0.7873 -0.5276
14888SOL    HW153632   8.684   5.050   9.190 -0.5435 -0.0998 -0.8532
14888SOL    HW253633   8.712   5.120   9.059  0.6543  0.0240 -0.5479
14889SOL     OW53634   2.388   3.605   9.548  0.8049 -0.1187 -0.2677
14889SOL    HW153635   2.340   3.660   9.487  3.1256  1.4652 -0.7820
14889SOL    HW253636   2.391   3.655   9.629  1.5749 -0.1571 -0.2603
14890SOL     OW53637   6.248  11.740   2.885  0.3635 -0.5848  0.2049
14890SOL    HW153638   6.341  11.715   2.889  0.8278  0.9273 -0.5214
14890SOL    HW253639   6.221  11.716   2.797 -0.0559 -1.3851  0.5462
14891SOL     OW53640   3.216   8.579   4.981 -0.2081 -0.0042 -0.4695
14891SOL    HW153641   3.233   8.657   4.928 -0.6605  0.3227 -0.1408
14891SOL    HW253642   3.147   8.606   5.042  1.7499  0.2914  1.7292
14892SOL     OW53643  11.881   7.428   9.494  0.0497 -0.2726  0.2022
14892SOL    HW153644  11.892   7.432   9.399  0.6244  1.1767  0.3057
14892SOL    HW253645  11.933   7.501   9.527 -0.2244 -0.7024  1.6288
14893SOL     OW53646  12.135  10.847  10.076  0.6614 -0.0259 -0.2717
14893SOL    HW153647  12.171  10.759  10.064 -1.4019 -1.2452  1.8101
14893SOL    HW253648  12.198  10.892  10.132  2.2923  0.3151 -2.2349
14894SOL     OW53649   6.928   1.631   6.075 -0.1726  0.2109 -0.7006
14894SOL    HW153650   6.996   1.566   6.059  1.4421  1.7723 -0.5195
14894SOL    HW253651   6.919   1.677   5.991 -0.9220  0.1198 -0.6806
14895SOL     OW53652   5.137   9.793   6.420  0.2045 -0.2424 -0.2307
14895SOL    HW153653   5.212   9.821   6.368  1.5168 -0.7894  1.2879
14895SOL    HW253654   5.129   9.699   6.404  1.3387 -0.6524  1.3404
14896SOL     OW53655   9.318  10.443   8.879  0.0386 -0.0161  0.4485
14896SOL    HW153656   9.343  10.521   8.829  0.6349 -0.7915 -0.4883
14896SOL    HW253657   9.223  10.448   8.886 -0.1679 -0.3930 -1.6489
14897SOL     OW53658   7.409   9.735   0.762 -0.5765 -0.3061  0.1251
14897SOL    HW153659   7.466   9.789   0.817 -1.2522 -0.6274  1.1733
14897SOL    HW253660   7.365   9.798   0.704 -1.1331  0.2621  1.1280
14898SOL     OW53661  11.508   5.601   8.405  0.2647 -0.2848  0.5671
14898SOL    HW153662  11.521   5.679   8.351 -2.1373 -2.5687 -3.8659
14898SOL    HW253663  11.579   5.542   8.380 -0.0683 -0.8910  1.0154
14899SOL     OW53664   9.425   5.178   2.191  0.6920  0.3709 -0.1151
14899SOL    HW153665   9.341   5.206   2.228 -0.1320 -0.7096 -1.0987
14899SOL    HW253666   9.407   5.165   2.098  2.0094  0.3034 -0.3753
14900SOL     OW53667   6.378   0.569   4.487  0.4445 -0.4601  0.0816
14900SOL    HW153668   6.436   0.603   4.418  0.5346 -0.7076  0.0340
14900SOL    HW253669   6.357   0.646   4.540 -2.0049  0.3722 -1.9119
14901SOL     OW53670   5.628   1.067   0.151  0.7170  0.2281 -0.2844
14901SOL    HW153671   5.711   1.032   0.182  0.1921 -0.6024  0.2177
14901SOL    HW253672   5.615   1.026   0.066 -0.7869 -2.3818  1.0781
14902SOL     OW53673   5.809   7.588   3.513  0.4615  0.0793 -0.5408
14902SOL    HW153674   5.904   7.597   3.524  0.6338 -1.3579 -0.6762
14902SOL    HW253675   5.790   7.500   3.545 -0.5534 -0.3342 -2.1896
14903SOL     OW53676   9.760   2.552   8.077  0.1971  0.4199 -0.0292
14903SOL    HW153677   9.826   2.576   8.013 -1.0327  1.6392 -0.9141
14903SOL    HW253678   9.809   2.542   8.159  1.5823  0.3838 -0.8308
14904SOL     OW53679   8.638  10.987   8.775 -0.1814  0.1900  0.4881
14904SOL    HW153680   8.642  11.083   8.784  0.2411  0.0738  1.8458
14904SOL    HW253681   8.704  10.955   8.837  1.8321 -0.9240 -2.0754
14905SOL     OW53682   4.525   8.799   5.143 -0.7707 -0.0589 -0.1249
14905SOL    HW153683   4.450   8.746   5.114 -0.5718  0.1803 -1.1069
14905SOL    HW253684   4.601   8.753   5.108 -0.3242 -0.9911  1.9078
14906SOL     OW53685   9.229   6.973   1.851  0.0405  0.3831  0.2168
14906SOL    HW153686   9.319   6.953   1.825 -0.0574  1.1967 -0.8280
14906SOL    HW253687   9.186   6.888   1.855  0.4311  0.1086 -0.9858
14907SOL     OW53688  10.331   2.241   3.983  0.4250 -0.1641  0.4198
14907SOL    HW153689  10.349   2.271   3.894 -2.9090  1.0151 -0.0065
14907SOL    HW253690  10.329   2.145   3.977  1.2696 -0.1329 -0.5019
14908SOL     OW53691  12.274   2.586   7.425  0.7450  0.5220  0.2494
14908SOL    HW153692  12.302   2.511   7.373 -0.1794 -0.7302  1.4813
14908SOL    HW253693  12.335   2.590   7.498  0.6972  0.8926  0.2736
14909SOL     OW53694  12.066  10.323   9.331 -0.1645 -0.1494 -0.1938
14909SOL    HW153695  12.094  10.232   9.336  0.4756  0.0663  0.1403
14909SOL    HW253696  11.986  10.320   9.277 -0.7560 -1.0403  0.6881
14910SOL     OW53697   7.320   5.218   4.941 -0.0172 -0.0013 -0.0954
14910SOL    HW153698   7.226   5.200   4.933  0.0874 -0.4628 -0.3462
14910SOL    HW253699   7.352   5.150   5.001 -0.3440  1.8885  2.3839
14911SOL     OW53700   4.508   2.098   2.172 -0.4196  0.6015 -0.2265
14911SOL    HW153701   4.592   2.053   2.158 -1.1916 -1.3401  0.9258
14911SOL    HW253702   4.531   2.191   2.177  2.0311 -0.0032  2.2607
14912SOL     OW53703   7.086   6.438   5.756 -0.4635  0.3006  0.3251
14912SOL    HW153704   7.152   6.372   5.775  1.0397  1.6416 -0.0229
14912SOL    HW253705   7.066   6.426   5.663 -1.1541 -0.4738  0.5660
14913SOL     OW53706   0.718  10.427   9.340  0.5161  0.2750 -0.4311
14913SOL    HW153707   0.750  10.340   9.315  0.1175  0.4932 -1.7686
14913SOL    HW253708   0.645  10.444   9.281  0.3031  1.3331  0.1151
14914SOL     OW53709   9.101   0.258   4.711  0.6053 -0.4236 -0.6042
14914SOL    HW153710   9.171   0.193   4.704 -0.3308 -1.5552  0.2642
14914SOL    HW253711   9.069   0.250   4.801 -0.7732 -0.0484 -1.0410
14915SOL     OW53712   3.791   7.007   4.690 -0.1160 -0.2952  0.1144
14915SOL    HW153713   3.782   7.077   4.625  0.8480 -0.1379  0.1358
14915SOL    HW253714   3.877   7.022   4.730  0.7680 -2.3049 -0.8596
14916SOL     OW53715  10.503  10.519  10.394 -0.1665  0.1861  0.4123
14916SOL    HW153716  10.547  10.551  10.315  0.0425 -2.2286 -0.5367
14916SOL    HW253717  10.556  10.554  10.466  0.8750  0.7263 -0.5743
14917SOL     OW53718   4.920   0.481   1.385  0.4715  0.4828 -0.6747
14917SOL    HW153719   4.943   0.389   1.395  1.1380  0.8544  1.8946
14917SOL    HW253720   4.981   0.513   1.318  2.0395 -0.3713  0.2876
14918SOL     OW53721   0.986   9.681  11.329  0.3024 -0.0527 -0.5306
14918SOL    HW153722   1.063   9.700  11.274 -0.6791  0.4903 -1.7575
14918SOL    HW253723   0.919   9.651  11.268 -0.6295 -0.0533  0.4581
14919SOL     OW53724   3.913   7.536   8.341 -0.6683  0.0989 -0.2310
14919SOL    HW153725   3.972   7.465   8.317 -0.8148 -0.6922  1.5901
14919SOL    HW253726   3.952   7.614   8.302  1.0532 -0.5415  0.1353
14920SOL     OW53727   6.810   1.574   8.661  0.5215 -0.2549 -0.4756
14920SOL    HW153728   6.816   1.649   8.719 -0.4556 -0.4509 -0.0904
14920SOL    HW253729   6.900   1.548   8.643  0.8713  1.1365 -0.7854
14921SOL     OW53730   5.078   1.686   8.633  0.4604 -0.1899 -0.3475
14921SOL    HW153731   5.039   1.599   8.626  0.1626  0.0753 -3.2513
14921SOL    HW253732   5.082   1.718   8.543  3.3130  1.6158  0.2729
14922SOL     OW53733  12.568  11.051   3.912  0.4005  0.4188 -0.3122
14922SOL    HW153734  12.552  10.960   3.887 -0.3493  0.4691 -0.0281
14922SOL    HW253735  12.494  11.074   3.968  1.5635  0.5957  1.2155
14923SOL     OW53736   1.631   2.501   8.907 -0.6829 -0.6882 -0.1073
14923SOL    HW153737   1.625   2.453   8.824  0.8913  0.2556 -0.8156
14923SOL    HW253738   1.541   2.529   8.925 -0.8170  0.8152 -2.5678
14924SOL     OW53739  11.670   0.697   1.768  0.3594  0.3371 -0.2243
14924SOL    HW153740  11.627   0.669   1.687 -0.6775  0.3183  0.3214
14924SOL    HW253741  11.690   0.789   1.754 -1.2529  0.7672  0.0661
14925SOL     OW53742   1.352   1.661   7.472 -0.7156  0.4294 -0.0026
14925SOL    HW153743   1.424   1.637   7.531 -2.3078 -0.0469  1.8565
14925SOL    HW253744   1.320   1.577   7.438 -0.1072  0.6741 -1.2401
14926SOL     OW53745   6.070   6.327   2.019 -0.5600  0.2830 -0.6430
14926SOL    HW153746   6.152   6.363   2.052  0.3523 -0.9711 -1.4571
14926SOL    HW253747   6.080   6.232   2.028 -1.5635  0.0677 -1.5410
14927SOL     OW53748   5.680   3.633   0.620  0.5116 -0.1753  0.6099
14927SOL    HW153749   5.606   3.620   0.679 -0.7866  0.6713 -0.7737
14927SOL    HW253750   5.744   3.567   0.648  0.1328  0.4026  3.1648
14928SOL     OW53751  12.273   3.454   4.161 -0.6097 -0.2509 -0.4506
14928SOL    HW153752  12.311   3.480   4.077  0.4410 -0.3151 -0.0159
14928SOL    HW253753  12.227   3.532   4.191  1.9593  1.0003  0.5266
14929SOL     OW53754   0.882  12.089  11.990 -0.0482 -0.1509  0.0440
14929SOL    HW153755   0.966  12.042  11.989 -0.2053 -0.4233 -0.7212
14929SOL    HW253756   0.826  12.036  12.047  0.2652 -0.0130  0.4899
14930SOL     OW53757   9.008   9.331  10.279  0.5406 -0.3990  0.1451
14930SOL    HW153758   9.002   9.264  10.211 -0.5890  1.2011 -1.4038
14930SOL    HW253759   9.072   9.394  10.245 -1.0459  1.1281 -0.1205
14931SOL     OW53760   9.219   0.396   5.118  0.2046 -0.4213 -0.3590
14931SOL    HW153761   9.143   0.432   5.073 -0.3355 -0.8736  0.1633
14931SOL    HW253762   9.292   0.408   5.057 -0.6748 -1.9104 -1.8059
14932SOL     OW53763   8.792   4.218   2.167  0.5520  0.5369 -0.0718
14932SOL    HW153764   8.787   4.133   2.212 -2.4616 -0.1036 -1.3405
14932SOL    HW253765   8.782   4.283   2.236 -1.3572 -0.3418  0.5511
14933SOL     OW53766  11.681  12.547   7.326 -0.6175 -0.3619 -0.2360
14933SOL    HW153767  11.612  12.602   7.365 -0.3141 -0.3178  0.2587
14933SOL    HW253768  11.642  12.513   7.246 -1.2285 -0.3684  0.0547
14934SOL     OW53769   5.392  11.241  11.048  0.6575  0.2549 -0.1569
14934SOL    HW153770   5.308  11.253  11.093  1.5350  2.3392  1.0689
14934SOL    HW253771   5.456  11.228  11.118  1.6421  0.5554 -0.9707
14935SOL     OW53772   7.715   8.810   7.606  0.3821  0.1981  0.6187
14935SOL    HW153773   7.778   8.781   7.540  1.2760  0.8964  1.1351
14935SOL    HW253774   7.697   8.901   7.583 -1.2075 -0.2627 -0.0900
14936SOL     OW53775   5.175   6.490  10.305  0.6404 -0.4406 -0.2921
14936SOL    HW153776   5.256   6.440  10.309  0.4788 -0.8412 -1.5712
14936SOL    HW253777   5.120   6.441  10.244 -0.5260 -0.1097  0.4603
14937SOL     OW53778  10.784   3.731   2.641 -0.2274  0.1760  0.5098
14937SOL    HW153779  10.824   3.648   2.617 -0.2620  0.5106 -0.8365
14937SOL    HW253780  10.858   3.791   2.654 -0.2124  0.0331  1.0940
14938SOL     OW53781   9.697   0.224   5.568  0.0155 -0.2064  0.1832
14938SOL    HW153782   9.636   0.156   5.597  0.3797 -0.5691  0.1063
14938SOL    HW253783   9.641   0.294   5.536 -0.3628 -0.6888 -0.2296
14939SOL     OW53784   6.164   9.867   4.990  0.1965 -0.1809 -0.2166
14939SOL    HW153785   6.177   9.918   5.070  0.9957 -2.3550  1.1093
14939SOL    HW253786   6.201   9.781   5.010 -1.0980 -1.3067 -2.3538
14940SOL     OW53787   8.727  12.132   5.893  0.0146 -0.2675  0.3777
14940SOL    HW153788   8.701  12.068   5.828  2.1233 -0.7581 -0.0791
14940SOL    HW253789   8.656  12.196   5.895 -0.9300 -1.2211 -1.0452
14941SOL     OW53790   0.802   2.622   2.709  0.5568  0.4530 -0.0317
14941SOL    HW153791   0.773   2.597   2.621 -1.5974  0.4628  0.6295
14941SOL    HW253792   0.836   2.711   2.698  2.4319 -0.3361 -1.2260
14942SOL     OW53793   4.287   9.825  10.905 -0.0441 -0.3694  0.1524
14942SOL    HW153794   4.212   9.793  10.855 -0.0652 -1.1442  0.6753
14942SOL    HW253795   4.250   9.854  10.988  0.2596 -0.9631  0.5012
14943SOL     OW53796  12.131   5.609   3.039  0.3577  0.3345  0.2315
14943SOL    HW153797  12.133   5.513   3.042  1.8454  0.1369 -2.9861
14943SOL    HW253798  12.045   5.632   3.074 -0.3454 -2.2292  0.3803
14944SOL     OW53799   9.842  11.471   1.410 -0.4457  0.2719 -0.3491
14944SOL    HW153800   9.822  11.563   1.396 -1.7220  0.0222 -0.2788
14944SOL    HW253801   9.915  11.453   1.351  0.4473  1.5465  0.3312
14945SOL     OW53802   2.113   9.912  10.582 -0.0045 -0.1957  0.2692
14945SOL    HW153803   2.049   9.929  10.513  0.1111 -1.5768 -0.2211
14945SOL    HW253804   2.106   9.987  10.641 -1.4456  0.0935 -0.2347
14946SOL     OW53805  10.685   8.378   0.544  0.8959 -0.4411 -0.0311
14946SOL    HW153806  10.776   8.367   0.517  0.4164  0.5513 -2.2648
14946SOL    HW253807  10.658   8.462   0.505 -0.9683 -0.6884  0.6060
14947SOL     OW53808  10.344   1.232  10.429  0.1221 -0.6731 -0.6036
14947SOL    HW153809  10.262   1.233  10.478  0.4305  0.1022 -0.0726
14947SOL    HW253810  10.412   1.230  10.496  0.5596  0.7429 -0.9740
14948SOL     OW53811   7.452   6.446   0.085  0.0870  0.5564 -0.1939
14948SOL    HW153812   7.365   6.466   0.120 -0.0219  0.2586 -0.2913
14948SOL    HW253813   7.507   6.519   0.114 -0.2030  0.7632 -0.1619
14949SOL     OW53814   7.121  11.568   9.564  0.4826 -0.6260 -0.4504
14949SOL    HW153815   7.145  11.520   9.643 -1.1375 -0.3196  0.2817
14949SOL    HW253816   7.026  11.561   9.560  0.5016 -0.2972 -2.1752
14950SOL     OW53817   6.307   7.566   3.663  0.5414 -0.1672  0.3756
14950SOL    HW153818   6.267   7.653   3.666  1.4250  0.2312  2.2696
14950SOL    HW253819   6.400   7.583   3.648  0.3957 -0.9754 -1.9098
14951SOL     OW53820   1.017   5.499   0.459 -0.0203  0.2556 -0.1282
14951SOL    HW153821   0.949   5.552   0.502  1.0459  2.1804 -0.6706
14951SOL    HW253822   1.031   5.542   0.374 -0.1160 -1.8127 -1.2394
14952SOL     OW53823   3.946   4.606   8.608 -0.4112  0.4807  0.3503
14952SOL    HW153824   3.927   4.526   8.657  0.8209 -0.2235 -0.2713
14952SOL    HW253825   3.958   4.673   8.676 -1.8746  0.2661  0.8564
14953SOL     OW53826  11.718   2.608   4.038 -0.2575 -0.1039 -0.3181
14953SOL    HW153827  11.676   2.543   3.981  1.7498  0.3537 -2.4532
14953SOL    HW253828  11.717   2.568   4.125 -0.2055 -2.4518 -1.3382
14954SOL     OW53829  11.514   1.620   2.636 -0.1059  0.0838 -0.1530
14954SOL    HW153830  11.532   1.693   2.576 -0.7603 -0.2700 -0.7988
14954SOL    HW253831  11.473   1.660   2.712 -0.3891  0.4041 -0.4719
14955SOL     OW53832   1.522   3.231  11.021 -0.1329  0.2205  0.6312
14955SOL    HW153833   1.511   3.290  11.095 -1.3297 -0.0565  0.6951
14955SOL    HW253834   1.464   3.157  11.040 -1.4920  0.7495 -1.1863
14956SOL     OW53835   8.816  10.448  11.693  0.1697 -0.3712 -0.1486
14956SOL    HW153836   8.812  10.413  11.782 -2.1403 -0.1352 -0.1009
14956SOL    HW253837   8.772  10.382  11.640  0.3123  0.1326 -0.9027
14957SOL     OW53838   1.878  11.181   4.872 -0.3618  0.5183  0.2851
14957SOL    HW153839   1.879  11.194   4.778 -0.0945  0.9222  0.3451
14957SOL    HW253840   1.952  11.124   4.890  0.1947  1.2598  0.3703
14958SOL     OW53841   3.207   2.165   7.460  0.0098  0.9123  0.0283
14958SOL    HW153842   3.236   2.080   7.494 -0.1973  0.7727 -0.1455
14958SOL    HW253843   3.112   2.163   7.467  0.0612  1.8004  1.6447
14959SOL     OW53844  12.211   4.085  12.231  0.8526 -0.2797 -0.1912
14959SOL    HW153845  12.292   4.056  12.272  1.0018  1.3828  0.7630
14959SOL    HW253846  12.145   4.080  12.301 -0.2995 -3.0710 -1.3247
14960SOL     OW53847   7.392   8.347  10.353  0.4422  0.6482 -0.1920
14960SOL    HW153848   7.475   8.367  10.396 -0.3110  0.6703  1.2935
14960SOL    HW253849   7.374   8.423  10.298  1.2985  0.7254 -0.3702
14961SOL     OW53850  10.172   4.576   9.905  0.3860  0.0360  0.2921
14961SOL    HW153851  10.257   4.607   9.875  0.5842 -0.3491  0.4420
14961SOL    HW253852  10.152   4.631   9.980  1.1428 -0.7451  1.0977
14962SOL     OW53853   5.188  11.701   1.500  0.4415 -0.4151 -0.1475
14962SOL    HW153854   5.219  11.641   1.567  0.5992  0.1567  0.2970
14962SOL    HW253855   5.262  11.711   1.440  0.2899 -0.9501 -0.4241
14963SOL     OW53856   3.223  12.591  10.225  0.4459  0.2640  0.2737
14963SOL    HW153857   3.246  12.683  10.209  0.5879  0.2522  0.3962
14963SOL    HW253858   3.169  12.594  10.304  0.1907  0.2715  0.1000
14964SOL     OW53859   6.228  10.338   9.378 -0.2384  0.2639  0.0714
14964SOL    HW153860   6.203  10.420   9.337 -0.3363  0.5488  0.6841
14964SOL    HW253861   6.316  10.353   9.412  0.0447 -0.1350 -0.4657
14965SOL     OW53862   1.316   1.855   7.786 -0.1720 -0.0744  0.2338
14965SOL    HW153863   1.294   1.762   7.799  0.0134 -0.2052 -0.3577
14965SOL    HW253864   1.392   1.869   7.841  0.6743 -0.6512 -0.7501
14966SOL     OW53865   7.793   4.283   3.036  0.1893 -0.0031 -0.1071
14966SOL    HW153866   7.726   4.250   2.977  1.4233 -1.2526 -0.8765
14966SOL    HW253867   7.780   4.234   3.117  0.2732 -0.3737 -0.3148
14967SOL     OW53868   9.708   3.433   5.852 -0.2117 -0.0241 -0.1632
14967SOL    HW153869   9.732   3.518   5.888  1.1565 -0.4498 -0.0339
14967SOL    HW253870   9.791   3.388   5.837 -0.7731 -0.3913 -2.5978
14968SOL     OW53871   9.473  11.096   8.795 -0.0462  0.3229 -0.1119
14968SOL    HW153872   9.444  11.126   8.882 -0.9992 -0.1783 -0.2420
14968SOL    HW253873   9.501  11.005   8.810 -0.6273  0.0935 -0.4087
14969SOL     OW53874   3.106   6.211   1.292  0.4892 -0.2712 -0.1420
14969SOL    HW153875   3.051   6.228   1.368 -0.9499  0.3587 -1.2619
14969SOL    HW253876   3.094   6.117   1.274  0.7516 -0.3976  0.3371
14970SOL     OW53877   6.424   2.306  12.184 -0.0979  0.1437  0.1974
14970SOL    HW153878   6.499   2.300  12.243  0.0764 -0.8960 -0.1086
14970SOL    HW253879   6.384   2.219  12.187 -0.1607  0.1065 -1.1118
14971SOL     OW53880   1.452   2.846   8.108 -0.2372  0.3468  0.2621
14971SOL    HW153881   1.406   2.775   8.152  0.1902 -0.4324 -0.5010
14971SOL    HW253882   1.509   2.884   8.175  1.5757 -1.8290  0.0747
14972SOL     OW53883   7.121   1.093   4.340 -0.1920 -0.0070  0.3367
14972SOL    HW153884   7.085   1.038   4.410  2.0046 -1.1782  0.6512
14972SOL    HW253885   7.059   1.083   4.267 -1.1713 -0.8460  1.2510
14973SOL     OW53886   2.347  10.431   0.272 -0.3787 -0.0450  0.0416
14973SOL    HW153887   2.347  10.403   0.363 -0.3161 -2.3542 -0.6066
14973SOL    HW253888   2.292  10.509   0.271  0.8296  0.9373  2.2724
14974SOL     OW53889   3.504   2.269   8.198 -0.3765  0.6143 -0.2424
14974SOL    HW153890   3.495   2.203   8.266  1.8774 -0.1141 -0.5526
14974SOL    HW253891   3.447   2.239   8.127 -0.4501 -0.2382  0.1647
14975SOL     OW53892  11.326   2.964   5.152 -0.6421 -0.5916 -0.7865
14975SOL    HW153893  11.251   2.907   5.135 -0.5206 -0.3132 -2.4447
14975SOL    HW253894  11.308   3.044   5.103  0.9824 -0.7320 -1.6972
14976SOL     OW53895   2.079   9.213   9.628  0.0672 -0.2483 -0.6798
14976SOL    HW153896   2.138   9.256   9.690 -0.0011 -0.7197 -0.2803
14976SOL    HW253897   2.033   9.285   9.585 -0.8183  0.0727  0.7291
14977SOL     OW53898   9.029   7.571  10.817 -0.1398  0.0260  0.8571
14977SOL    HW153899   9.099   7.587  10.754  1.2838 -1.8353  1.8571
14977SOL    HW253900   8.953   7.617  10.781  1.5354  2.0427 -0.3275
14978SOL     OW53901   6.932   9.942   9.916  0.0171  0.7113  0.0563
14978SOL    HW153902   6.922  10.028   9.876  0.3097 -0.7361 -3.6103
14978SOL    HW253903   6.843   9.906   9.918 -0.0312  0.8772  1.0204
14979SOL     OW53904   7.383  12.282   4.371  0.2699  0.3325  0.3546
14979SOL    HW153905   7.415  12.275   4.461  1.4302  1.1312  0.0281
14979SOL    HW253906   7.460  12.264   4.317 -0.5829 -0.8780 -0.5076
14980SOL     OW53907   3.340   3.975  10.296  0.0319  0.6793 -0.2583
14980SOL    HW153908   3.404   3.909  10.271  0.2204  1.2580 -1.3742
14980SOL    HW253909   3.389   4.035  10.353  0.1525  0.4692 -0.1388
14981SOL     OW53910   5.204   8.079   5.474  0.1327  0.0172  0.5352
14981SOL    HW153911   5.162   8.163   5.461 -1.1633 -0.5658  0.7367
14981SOL    HW253912   5.217   8.044   5.386  2.3250  1.1583  0.3452
14982SOL     OW53913   1.857  10.933   9.297 -0.0505  0.3215  0.1096
14982SOL    HW153914   1.914  10.880   9.242 -1.6427 -0.0676 -1.2484
14982SOL    HW253915   1.872  11.023   9.268  1.2835  0.4523  1.1291
14983SOL     OW53916   3.545   1.594   3.954 -0.1296 -0.2742  0.7400
14983SOL    HW153917   3.589   1.679   3.948 -1.2238  0.2142 -2.0998
14983SOL    HW253918   3.614   1.530   3.936 -0.1752  0.4190 -2.5388
14984SOL     OW53919  12.472   1.653   6.727  0.3012  0.1930  0.3340
14984SOL    HW153920  12.388   1.697   6.741  1.0047  1.0935  2.1186
14984SOL    HW253921  12.474   1.634   6.634 -1.3266  1.3314  0.0173
14985SOL     OW53922   6.163  11.423   2.802 -0.1824 -0.0149  0.2820
14985SOL    HW153923   6.089  11.482   2.817 -0.4054 -0.3854  0.6458
14985SOL    HW253924   6.213  11.466   2.732 -1.4738 -0.4445 -0.9707
14986SOL     OW53925   7.814   8.820   2.039 -0.8234  0.1534 -0.2827
14986SOL    HW153926   7.883   8.869   2.083 -0.4322 -0.2421 -0.4561
14986SOL    HW253927   7.761   8.888   1.996 -1.4650  0.5792  1.1352
14987SOL     OW53928   2.223   1.166   0.180  0.4938 -0.0989 -0.0858
14987SOL    HW153929   2.300   1.116   0.210 -0.2707 -0.8569  0.6658
14987SOL    HW253930   2.260   1.243   0.137  1.6801  0.1115  1.2102
14988SOL     OW53931   7.812  11.455   6.757 -0.1565 -0.1404  0.5030
14988SOL    HW153932   7.747  11.435   6.824 -0.3731 -0.2712  0.2586
14988SOL    HW253933   7.894  11.468   6.805 -0.2269 -0.6118  0.7593
14989SOL     OW53934   9.192   1.052  10.748 -0.2212  0.0253 -0.3681
14989SOL    HW153935   9.132   1.127  10.751  0.7710  0.7953  2.1044
14989SOL    HW253936   9.254   1.074  10.679  1.6701  2.8925  2.0268
14990SOL     OW53937   2.554   7.139   2.184 -0.2139 -0.1922  0.3137
14990SOL    HW153938   2.625   7.075   2.183  0.3288  0.1795 -3.7797
14990SOL    HW253939   2.593   7.217   2.222  0.6591 -0.8148  0.7365
14991SOL     OW53940   6.882  11.664   4.453  0.5699 -0.0840  0.1754
14991SOL    HW153941   6.889  11.757   4.432 -0.8986 -0.3012 -1.4224
14991SOL    HW253942   6.933  11.655   4.533  0.3070  2.1998  0.6879
14992SOL     OW53943   1.241   7.791   5.390  0.2930 -0.3097  0.2276
14992SOL    HW153944   1.331   7.779   5.358  0.1615 -1.6983  0.2998
14992SOL    HW253945   1.219   7.707   5.430 -1.5923 -0.5423 -1.1495
14993SOL     OW53946   7.867  10.423   2.338  0.0997 -0.7948 -0.3983
14993SOL    HW153947   7.879  10.329   2.325  0.4920 -0.9061  0.6786
14993SOL    HW253948   7.955  10.457   2.352 -0.2022 -0.6093  1.2618
14994SOL     OW53949  11.179   8.662  12.199 -0.4312 -0.3483 -0.2699
14994SOL    HW153950  11.115   8.657  12.269  0.9055  1.2662  1.1683
14994SOL    HW253951  11.151   8.736  12.146  0.3308  0.5450  0.5279
14995SOL     OW53952   7.660   0.333  10.922  1.0052  0.0667 -0.0497
14995SOL    HW153953   7.567   0.345  10.903  1.0823  1.6693  0.4117
14995SOL    HW253954   7.677   0.240  10.906 -1.0643 -0.6450  1.4557
14996SOL     OW53955   4.414  11.318  12.407  0.9226 -0.1025  0.0935
14996SOL    HW153956   4.334  11.332  12.457  0.2327 -0.1797 -0.9590
14996SOL    HW253957   4.432  11.402  12.366  0.0301 -0.6652 -1.5591
14997SOL     OW53958   3.991   6.357   1.560  0.0489 -0.8870  0.4377
14997SOL    HW153959   3.950   6.362   1.473 -0.1337 -2.2304  0.4146
14997SOL    HW253960   4.081   6.384   1.545 -0.6138  1.4839  0.3618
14998SOL     OW53961   3.253   0.162   1.520  0.0972 -0.0487 -0.6001
14998SOL    HW153962   3.315   0.119   1.579  0.2172 -0.5253 -1.0575
14998SOL    HW253963   3.230   0.244   1.564  0.6214 -0.1279 -0.1639
14999SOL     OW53964   1.504   2.828   5.099  0.0854  0.2217 -0.4450
14999SOL    HW153965   1.459   2.870   5.026  0.3347 -0.1379 -0.8112
14999SOL    HW253966   1.436   2.812   5.164 -0.0286  1.0847 -0.3483
15000SOL     OW53967  12.362   7.545   2.795 -0.3229 -0.1862 -0.3480
15000SOL    HW153968  12.340   7.496   2.716  1.8881 -0.4848 -0.8350
15000SOL    HW253969  12.455   7.529   2.808 -0.7483 -0.7603  2.7650
15001SOL     OW53970   1.274   7.522   4.046  0.2372  0.0356  0.2423
15001SOL    HW153971   1.301   7.613   4.035  1.8859 -0.4627 -0.1006
15001SOL    HW253972   1.355   7.474   4.060 -0.5959 -1.3961  0.4153
15002SOL     OW53973   6.934   2.510   3.751  0.0578 -0.1571 -0.1870
15002SOL    HW153974   6.914   2.595   3.790 -2.0170 -1.6156  2.2462
15002SOL    HW253975   6.868   2.498   3.683 -0.3880 -0.2983  0.2662
15003SOL     OW53976   3.333   7.648   4.549  0.0199 -0.1542  0.1830
15003SOL    HW153977   3.333   7.553   4.540  0.0433 -0.1446  0.0782
15003SOL    HW253978   3.402   7.677   4.489 -0.5320 -0.0133 -0.3906
15004SOL     OW53979   0.897   6.211   4.088  0.8937 -0.2966  0.0684
15004SOL    HW153980   0.803   6.196   4.090  1.0177 -1.2174 -0.5088
15004SOL    HW253981   0.909   6.297   4.129 -0.3205  0.4462 -1.0618
15005SOL     OW53982   6.095   8.956   2.761  0.0983 -0.1344  0.1408
15005SOL    HW153983   6.140   9.039   2.748  1.3160 -0.1625  3.3522
15005SOL    HW253984   6.055   8.964   2.848 -0.2993 -2.6497  0.2611
15006SOL     OW53985   1.103  11.519   2.859 -0.0463  0.5697  0.1874
15006SOL    HW153986   1.060  11.604   2.849  2.4965  2.0099  0.4841
15006SOL    HW253987   1.054  11.474   2.927 -0.7134  2.3340  0.9212
15007SOL     OW53988   0.268   5.169   3.960  0.0726  0.6397  0.2313
15007SOL    HW153989   0.243   5.139   4.047  2.9943  2.2719  1.7703
15007SOL    HW253990   0.228   5.255   3.951  0.7688  1.0027  0.5155
15008SOL     OW53991   4.816   7.485  10.345 -0.4222 -0.2102  0.0804
15008SOL    HW153992   4.763   7.463  10.268 -0.6929 -1.2134  0.5330
15008SOL    HW253993   4.856   7.403  10.371 -1.1247 -0.1179  1.5939
15009SOL     OW53994  11.492   9.779   1.070 -0.3591 -0.1933  0.8808
15009SOL    HW153995  11.504   9.730   0.989  1.0278  1.5366 -0.0259
15009SOL    HW253996  11.580   9.780   1.110 -0.3918  1.3804  0.9536
15010SOL     OW53997   1.582   3.385  11.225 -0.0710  0.3492  0.1424
15010SOL    HW153998   1.624   3.339  11.297  0.4552  0.1967 -0.2526
15010SOL    HW253999   1.623   3.472  11.224 -0.3783  0.4984  0.2873
15011SOL     OW54000   9.880  12.218   6.974  0.1416 -0.1227 -0.1547
15011SOL    HW154001   9.839  12.301   7.001  0.7140  0.2941 -0.5298
15011SOL    HW254002   9.817  12.180   6.912  0.3016  0.5139 -0.7311
15012SOL     OW54003  12.107   2.188  11.596  0.2172 -0.4166  0.1132
15012SOL    HW154004  12.083   2.103  11.634  0.9989 -0.8076 -0.2318
15012SOL    HW254005  12.177   2.221  11.653 -1.0010  0.6414  1.0301
15013SOL     OW54006  10.056   9.448   2.637 -0.6933  0.1758 -0.0047
15013SOL    HW154007  10.130   9.472   2.692  0.6853  0.5728 -1.9364
15013SOL    HW254008  10.076   9.359   2.607 -0.8081  0.4041 -0.7887
15014SOL     OW54009   8.894   8.318   4.057  0.2035  0.1321  0.0095
15014SOL    HW154010   8.842   8.353   4.130 -0.2308  1.9764 -1.1320
15014SOL    HW254011   8.984   8.316   4.090 -0.2539 -1.2498  1.3381
15015SOL     OW54012   2.752   3.137   9.290 -0.6151  0.2385  0.7563
15015SOL    HW154013   2.845   3.152   9.271 -1.0271 -0.1187 -1.7787
15015SOL    HW254014   2.751   3.111   9.382  1.8234  0.0309  0.7940
15016SOL     OW54015  12.384   9.870   8.469  0.7374 -0.0925 -0.2878
15016SOL    HW154016  12.357   9.942   8.411  2.2899  2.5477  1.9907
15016SOL    HW254017  12.406   9.798   8.410  0.5568  1.8141 -2.8401
15017SOL     OW54018   3.095   5.360   2.649  0.3790 -0.3065 -0.0505
15017SOL    HW154019   3.025   5.395   2.704  0.4921  0.1798 -0.2182
15017SOL    HW254020   3.101   5.268   2.675 -1.1851 -0.6998 -0.9365
15018SOL     OW54021   5.551   5.571   8.205 -0.7857  0.7962 -0.7294
15018SOL    HW154022   5.610   5.592   8.278 -0.9625 -0.7568 -0.0999
15018SOL    HW254023   5.477   5.631   8.217 -0.9579  0.3572  0.5837
15019SOL     OW54024   2.540  12.366   6.919  0.0521 -0.3894 -0.2219
15019SOL    HW154025   2.460  12.356   6.867  0.1316 -0.2346 -0.3779
15019SOL    HW254026   2.579  12.279   6.919 -1.0033 -0.9060  1.3392
15020SOL     OW54027   9.586   8.155   0.754  0.3567  0.4089  0.3223
15020SOL    HW154028   9.503   8.108   0.755 -0.8039  2.3093  0.0645
15020SOL    HW254029   9.604   8.174   0.847  0.1723  0.5219  0.3352
15021SOL     OW54030  11.307   6.146   2.553  0.6787  0.6128  0.5848
15021SOL    HW154031  11.401   6.128   2.557  0.3400 -1.4681  0.4106
15021SOL    HW254032  11.296   6.197   2.472  1.7746  1.9933  1.2613
15022SOL     OW54033   4.908   3.770   7.067 -0.3285 -0.0680  0.1921
15022SOL    HW154034   4.864   3.794   7.149 -0.3238  0.1657  0.1285
15022SOL    HW254035   4.855   3.811   6.999  0.0118  0.2551  0.1200
15023SOL     OW54036   7.159   9.014  10.065 -0.4549  0.5605  0.0041
15023SOL    HW154037   7.227   9.046  10.125 -1.0904  0.2667  0.9040
15023SOL    HW254038   7.186   8.925  10.044 -1.3849 -0.1442  1.6660
15024SOL     OW54039   7.620   3.745   3.407  0.2072 -0.0412  0.1503
15024SOL    HW154040   7.615   3.659   3.364  0.0944  0.9287 -1.8919
15024SOL    HW254041   7.610   3.726   3.500 -0.7378 -2.1527 -0.3310
15025SOL     OW54042   3.617   2.867   8.533  0.7646  0.1810 -0.5671
15025SOL    HW154043   3.624   2.962   8.539 -0.4208  0.1909  1.7942
15025SOL    HW254044   3.575   2.851   8.448 -2.0551  2.0165  0.3554
15026SOL     OW54045   7.895  10.780   5.475  0.1582  0.1287 -0.0903
15026SOL    HW154046   7.891  10.875   5.470 -1.5629  0.0434 -1.0125
15026SOL    HW254047   7.805  10.752   5.492  0.8974 -1.2890  1.9405
15027SOL     OW54048   6.743   1.789   4.710  0.1141  0.0316 -0.4121
15027SOL    HW154049   6.798   1.815   4.636  0.4129 -1.7956 -0.8863
15027SOL    HW254050   6.750   1.693   4.713 -0.6996 -0.0213  1.3633
15028SOL     OW54051   8.464   0.433  12.271  0.3339  0.3528  0.0852
15028SOL    HW154052   8.432   0.506  12.324 -0.9256 -0.4776  0.5235
15028SOL    HW254053   8.442   0.457  12.181 -0.4504  0.3520  0.2673
15029SOL     OW54054   4.081   8.883   3.509 -0.6208 -0.9759 -0.3918
15029SOL    HW154055   4.013   8.950   3.507 -0.8695 -1.1086  1.5535
15029SOL    HW254056   4.103   8.873   3.601  1.4898 -1.5172 -0.8802
15030SOL     OW54057   8.473   4.517   7.399 -0.1330 -0.1460  0.6073
15030SOL    HW154058   8.378   4.519   7.385 -0.2980  0.0414  1.6332
15030SOL    HW254059   8.484   4.464   7.478  0.5631  0.3851  0.8787
15031SOL     OW54060   5.464   0.793   5.799  0.1911 -0.0912  0.4585
15031SOL    HW154061   5.514   0.835   5.869  0.8101  0.0503 -0.0608
15031SOL    HW254062   5.424   0.866   5.752  1.2424 -0.0508 -0.4267
15032SOL     OW54063  10.097   2.096   4.104  0.8608 -0.4810  0.3142
15032SOL    HW154064  10.144   2.117   4.023 -0.2835  0.4130 -0.1527
15032SOL    HW254065  10.021   2.045   4.074  0.2850  0.0893  0.7857
15033SOL     OW54066  10.176   7.399   5.876  0.0904 -0.0244  0.1727
15033SOL    HW154067  10.249   7.396   5.937 -0.2379 -3.5692  0.5976
15033SOL    HW254068  10.106   7.445   5.924  1.5127  2.2695  0.2196
15034SOL     OW54069   0.365   2.011   1.895 -0.1502 -0.0946 -0.0724
15034SOL    HW154070   0.437   2.059   1.935 -0.5185  0.3405  0.0718
15034SOL    HW254071   0.348   1.938   1.955 -0.8529  0.6840  0.6988
15035SOL     OW54072   1.300   3.852   9.911 -0.0636 -0.2663 -0.2270
15035SOL    HW154073   1.275   3.944   9.904  0.0027 -0.2954 -0.9340
15035SOL    HW254074   1.220   3.804   9.892 -0.4344 -0.3692  1.4717
15036SOL     OW54075   0.014   9.621   9.209  0.0874  0.6904 -0.2717
15036SOL    HW154076   0.086   9.567   9.177 -0.1176  0.1171  0.2035
15036SOL    HW254077  -0.026   9.657   9.130 -1.0201 -1.4773 -0.7868
15037SOL     OW54078   2.212   7.584   5.952  0.8881  0.1609  0.2766
15037SOL    HW154079   2.220   7.581   5.857  0.3435  0.6258  0.2092
15037SOL    HW254080   2.218   7.492   5.980 -0.6207 -0.1538 -0.3581
15038SOL     OW54081   8.002   1.224   3.887 -1.2706 -0.6121  0.2297
15038SOL    HW154082   8.062   1.265   3.950 -0.8494 -1.4904  0.4191
15038SOL    HW254083   7.991   1.135   3.919 -0.6952 -1.2140 -1.1822
15039SOL     OW54084  11.832   3.702   2.778 -0.5971 -0.0747 -0.2495
15039SOL    HW154085  11.873   3.616   2.787 -1.1880 -0.1561  2.5898
15039SOL    HW254086  11.744   3.684   2.745 -0.9787 -0.6817  1.0405
15040SOL     OW54087   4.592   4.608   4.292 -0.2685  0.0189  0.6636
15040SOL    HW154088   4.671   4.646   4.330  0.7532 -1.0301 -0.3330
15040SOL    HW254089   4.600   4.514   4.308 -0.2359 -0.3537 -1.3004
15041SOL     OW54090   4.888  10.837  11.268 -0.3353 -0.5152  0.2348
15041SOL    HW154091   4.921  10.774  11.331 -1.1150 -0.4338  0.7371
15041SOL    HW254092   4.958  10.903  11.262 -0.0658 -0.7551  0.6671
15042SOL     OW54093   6.441   3.911   9.569 -0.0058 -0.4438 -0.2747
15042SOL    HW154094   6.524   3.941   9.606 -0.4894 -0.4861  0.9151
15042SOL    HW254095   6.434   3.820   9.597  0.0836 -0.7963 -1.3657
15043SOL     OW54096  12.421   5.113   1.855  0.6006  0.1849 -0.1005
15043SOL    HW154097  12.386   5.126   1.943  0.8494 -1.1404  0.2260
15043SOL    HW254098  12.417   5.199   1.814 -3.5075  0.1152 -0.2988
15044SOL     OW54099   1.898   5.472   1.943  0.2316 -0.4159  0.2314
15044SOL    HW154100   1.942   5.505   2.021  0.4577  0.6479 -0.3205
15044SOL    HW254101   1.814   5.438   1.975  0.0469  0.5905  0.8636
15045SOL     OW54102  10.761  10.271  10.295 -0.8751  0.0558 -0.4362
15045SOL    HW154103  10.802  10.327  10.228  0.6906 -0.7379 -0.2058
15045SOL    HW254104  10.724  10.198  10.245  0.8599 -0.8714 -0.4444
15046SOL     OW54105   2.821  11.690   9.350 -0.3498  0.3644 -0.5192
15046SOL    HW154106   2.734  11.706   9.386  0.0940  0.2856  0.6181
15046SOL    HW254107   2.808  11.621   9.286 -1.1045  0.2634 -0.2714
15047SOL     OW54108   5.790  12.485   5.371 -0.3785  0.4200  0.3408
15047SOL    HW154109   5.751  12.554   5.317 -0.3072  0.6342  0.5607
15047SOL    HW254110   5.810  12.414   5.309 -0.3568  0.6373  0.0972
15048SOL     OW54111  11.357   2.385  10.151  0.2831  1.1092 -0.1807
15048SOL    HW154112  11.371   2.457  10.213  1.0929  1.0566 -0.3058
15048SOL    HW254113  11.366   2.306  10.204 -1.3168  1.0835  0.1110
15049SOL     OW54114   1.445  12.551   7.373  0.1004  0.1267 -0.0995
15049SOL    HW154115   1.407  12.573   7.287  0.7768  3.0245  0.2464
15049SOL    HW254116   1.428  12.628   7.427  1.4492 -0.8303  1.7998
15050SOL     OW54117   6.297   9.542   5.335 -0.1683  0.1605  0.3148
15050SOL    HW154118   6.369   9.483   5.310  0.4272 -0.0921  2.4485
15050SOL    HW254119   6.218   9.498   5.304  0.4995  0.0571 -1.3652
15051SOL     OW54120   7.567   0.603  12.106  0.1371 -0.0235  0.2227
15051SOL    HW154121   7.592   0.618  12.197  1.1802 -1.2199  0.1655
15051SOL    HW254122   7.626   0.659  12.056  0.6541 -0.5473  0.2299
15052SOL     OW54123  12.018   2.304  10.965  0.3038 -0.0130 -0.4625
15052SOL    HW154124  11.961   2.266  11.032  1.6429 -1.7898 -0.2491
15052SOL    HW254125  11.967   2.300  10.884  0.2221 -1.9556 -0.3545
15053SOL     OW54126   1.138  10.265   2.006 -0.0367 -0.0118 -0.0668
15053SOL    HW154127   1.109  10.339   1.953 -0.4695  0.7418  1.1781
15053SOL    HW254128   1.214  10.297   2.054 -0.4989 -0.2001  0.8228
15054SOL     OW54129  12.511   2.539   9.324  0.2431 -0.3313  0.0539
15054SOL    HW154130  12.567   2.462   9.322  0.4300 -0.1895 -0.1714
15054SOL    HW254131  12.570   2.611   9.346  0.3538 -0.0068 -1.2233
15055SOL     OW54132   9.999   3.644   7.000  0.0924  0.2424  0.2092
15055SOL    HW154133   9.915   3.673   6.965  0.0672  0.4084  0.4092
15055SOL    HW254134  10.061   3.655   6.928 -0.0238  0.2794  0.1158
15056SOL     OW54135   3.477   7.458   4.777  0.1507  0.4872 -0.3169
15056SOL    HW154136   3.461   7.429   4.867 -0.2610 -0.1915 -0.5940
15056SOL    HW254137   3.495   7.551   4.785  1.0425  0.2669  0.5670
15057SOL     OW54138   4.213   0.576   1.384  0.3596  0.4747  0.6743
15057SOL    HW154139   4.163   0.560   1.464  1.7388 -2.0304  1.1126
15057SOL    HW254140   4.233   0.489   1.350  1.6161  1.4572 -1.2732
15058SOL     OW54141   4.207   3.730   4.784  0.5397  0.0178 -0.0817
15058SOL    HW154142   4.177   3.649   4.742 -0.0961  0.8132 -1.2499
15058SOL    HW254143   4.126   3.776   4.806  0.8891  0.0932  1.0940
15059SOL     OW54144   0.603   6.923   9.898  0.2405 -0.2948 -0.2671
15059SOL    HW154145   0.509   6.939   9.910  0.0529 -1.1482 -0.5236
15059SOL    HW254146   0.628   6.982   9.827 -0.3647 -0.8689 -0.9872
15060SOL     OW54147  10.069   7.214   8.288 -0.1922 -0.3808 -0.0269
15060SOL    HW154148  10.094   7.140   8.232 -1.2341  0.1159 -1.1922
15060SOL    HW254149   9.979   7.196   8.314 -0.9697  1.1281 -1.4915
15061SOL     OW54150   7.950   4.958   5.600 -0.4251  0.2302 -0.1429
15061SOL    HW154151   7.888   4.968   5.528  0.8704  1.2141 -1.1646
15061SOL    HW254152   7.948   5.042   5.646  0.4385  0.4229 -0.4373
15062SOL     OW54153   0.441   8.000   1.671 -0.1980  0.1543  0.6875
15062SOL    HW154154   0.358   7.955   1.655  0.4805 -0.9526  0.1164
15062SOL    HW254155   0.462   8.041   1.587  1.0605 -1.7162  0.0300
15063SOL     OW54156   3.295   6.844   4.818 -0.1491  0.1042 -0.4058
15063SOL    HW154157   3.390   6.853   4.828 -0.2221  0.7634 -0.2437
15063SOL    HW254158   3.262   6.934   4.826 -0.7341 -0.0456 -1.0564
15064SOL     OW54159   5.688   3.794   0.398  0.0290  0.4358  0.2525
15064SOL    HW154160   5.644   3.758   0.320  1.2062 -0.2243 -0.1330
15064SOL    HW254161   5.662   3.734   0.468  1.4007 -0.8123 -0.2497
15065SOL     OW54162   2.684   6.044   3.447  0.1293  0.2269  0.6855
15065SOL    HW154163   2.626   6.100   3.498  0.2163 -0.8892  2.0973
15065SOL    HW254164   2.628   5.971   3.420  0.8863 -1.1165  2.4818
15066SOL     OW54165   0.665   8.326   4.635 -0.2752 -0.7576 -0.4327
15066SOL    HW154166   0.694   8.309   4.546  0.8443  0.2093 -0.2785
15066SOL    HW254167   0.577   8.290   4.639  0.0868 -1.8130 -1.5835
15067SOL     OW54168   1.950   8.021   1.798  0.2557  0.3052 -0.1219
15067SOL    HW154169   1.966   8.114   1.810 -0.9904  0.8090 -1.8924
15067SOL    HW254170   1.868   8.004   1.846  2.3337 -0.8055  3.3914
15068SOL     OW54171   8.441   9.127   1.642 -0.1049 -0.5063 -0.0299
15068SOL    HW154172   8.447   9.128   1.738 -0.9846  0.3074  0.0241
15068SOL    HW254173   8.496   9.199   1.613  1.2662 -1.5905 -0.2300
15069SOL     OW54174  11.383   4.816  12.392  0.1424 -0.0100  0.5858
15069SOL    HW154175  11.375   4.735  12.341  1.2728  0.4857 -0.4235
15069SOL    HW254176  11.298   4.859  12.383  0.0523 -0.3320 -0.1959
15070SOL     OW54177   0.604   2.954   7.636  0.0940 -0.2995  0.3825
15070SOL    HW154178   0.632   2.904   7.713  0.2356  1.3516  1.4656
15070SOL    HW254179   0.686   2.978   7.592  0.0421 -0.6928  0.0607
15071SOL     OW54180   4.815   9.642  10.973 -0.1920 -0.3417  0.0617
15071SOL    HW154181   4.892   9.588  10.987 -0.3527 -0.5746  0.0496
15071SOL    HW254182   4.826   9.716  11.033  1.2629  0.9461 -1.6494
15072SOL     OW54183   9.522   1.817   1.907 -0.3506  0.4473 -0.4117
15072SOL    HW154184   9.479   1.849   1.828 -2.1259  0.3260  0.4413
15072SOL    HW254185   9.453   1.821   1.974  0.9761  0.1308  1.0154
15073SOL     OW54186   3.239   6.811   9.300 -0.1312 -0.6799 -0.5660
15073SOL    HW154187   3.199   6.797   9.386  1.9216  1.6614  0.8938
15073SOL    HW254188   3.211   6.899   9.275 -0.2920 -1.1404 -2.0905
15074SOL     OW54189  12.471  12.437  10.555  0.3049  0.2227  0.1122
15074SOL    HW154190  12.486  12.513  10.499  0.5069 -1.0745 -1.7036
15074SOL    HW254191  12.558  12.398  10.566  0.0732 -0.2873  0.1788
15075SOL     OW54192   5.713   9.804   8.424 -0.0201  0.6284  0.2691
15075SOL    HW154193   5.715   9.814   8.519 -0.9100  0.4250  0.3233
15075SOL    HW254194   5.622   9.781   8.405  0.1795  0.5515 -0.6210
15076SOL     OW54195   1.483   2.917   2.861 -0.1877 -0.0073 -0.5182
15076SOL    HW154196   1.483   2.946   2.953  1.4571 -1.2302 -0.0813
15076SOL    HW254197   1.575   2.900   2.842 -0.6987 -1.4362 -1.8582
15077SOL     OW54198   4.149   9.335   9.003  0.3069 -0.3200  0.0944
15077SOL    HW154199   4.218   9.276   8.972 -0.5860 -1.6369  0.5039
15077SOL    HW254200   4.070   9.305   8.958  0.2351  2.1645 -1.5845
15078SOL     OW54201   4.645   0.514  11.811 -0.0240  0.2701  0.2331
15078SOL    HW154202   4.559   0.473  11.805  0.0487  0.2211 -0.5850
15078SOL    HW254203   4.629   0.599  11.852 -0.1150 -0.7238  2.3762
15079SOL     OW54204  12.084  10.833   9.041 -0.3448  0.3070  0.0500
15079SOL    HW154205  12.174  10.846   9.071  0.1166 -1.7834 -0.2727
15079SOL    HW254206  12.070  10.739   9.049 -1.4796  0.1614 -2.6844
15080SOL     OW54207   7.905   5.645   4.059 -0.0132 -0.7301  0.2496
15080SOL    HW154208   7.992   5.654   4.020  0.4088  0.0616  1.3270
15080SOL    HW254209   7.862   5.579   4.005  0.9742 -0.5691 -0.7812
15081SOL     OW54210   0.288   0.841   5.279 -0.1674 -0.1875  0.8711
15081SOL    HW154211   0.308   0.904   5.348  0.7552  1.0029 -0.4120
15081SOL    HW254212   0.371   0.797   5.261 -0.5556 -0.9821  0.9901
15082SOL     OW54213   2.096   2.082   5.558 -0.4087  0.7104  0.4431
15082SOL    HW154214   2.084   2.094   5.464 -0.4909  0.2436  0.3927
15082SOL    HW254215   2.176   2.131   5.579  0.4316 -0.3654 -0.1294
15083SOL     OW54216   0.571  10.735   0.301 -0.2781 -0.0755  0.0286
15083SOL    HW154217   0.525  10.675   0.243 -0.3120 -0.5274  0.5111
15083SOL    HW254218   0.657  10.694   0.314  0.7489  1.3277 -1.7960
15084SOL     OW54219   7.558   1.050   2.648  0.2900 -0.0063 -0.5870
15084SOL    HW154220   7.613   1.067   2.724 -0.1446  0.0265 -0.2742
15084SOL    HW254221   7.488   1.115   2.654 -1.2235 -1.6530  0.4568
15085SOL     OW54222   6.391   7.593   8.446 -0.1242  0.9668  0.0033
15085SOL    HW154223   6.373   7.590   8.540 -1.6767 -1.2521 -0.2877
15085SOL    HW254224   6.333   7.663   8.413 -1.1424  0.3521  0.4356
15086SOL     OW54225  12.503  10.974   8.412 -0.2155  0.4674  0.1274
15086SOL    HW154226  12.423  10.927   8.434 -1.0832  2.5270  1.7244
15086SOL    HW254227  12.573  10.924   8.454 -0.7203 -0.9533 -0.6811
15087SOL     OW54228   3.303   3.208   8.182 -0.5656 -0.8816  0.0243
15087SOL    HW154229   3.234   3.223   8.246 -1.7154 -1.0712 -1.1217
15087SOL    HW254230   3.383   3.240   8.224 -1.1419 -1.6838  1.8289
15088SOL     OW54231  10.759   1.525   0.875  0.0894  0.8438  0.1669
15088SOL    HW154232  10.744   1.466   0.949 -1.5505 -0.8633 -1.4201
15088SOL    HW254233  10.795   1.604   0.914 -0.0925 -0.2440  2.7027
15089SOL     OW54234   3.158   2.232   8.824  0.6281  0.3847 -0.3729
15089SOL    HW154235   3.195   2.155   8.868  1.6899  0.7843 -0.5356
15089SOL    HW254236   3.104   2.273   8.891  0.5194 -0.1860 -0.1012
15090SOL     OW54237   1.632  10.239   6.157 -0.4416 -0.2208  0.5278
15090SOL    HW154238   1.572  10.305   6.192  0.4994 -0.2809  2.3379
15090SOL    HW254239   1.717  10.260   6.196  1.4614  1.3393 -3.7963
15091SOL     OW54240  11.381   5.229   5.652  0.1806  0.2008  0.1609
15091SOL    HW154241  11.329   5.229   5.733  0.2226 -0.4718  0.1946
15091SOL    HW254242  11.330   5.176   5.591 -0.8706  2.3445 -0.9516
15092SOL     OW54243   0.961  11.011   3.660 -0.2978  0.0557 -0.0402
15092SOL    HW154244   0.909  11.090   3.651  0.5024  0.4894 -1.0691
15092SOL    HW254245   0.909  10.943   3.618 -0.2209  0.4002 -0.7068
15093SOL     OW54246   9.363   4.290   9.964  0.2944  0.0712 -0.1281
15093SOL    HW154247   9.339   4.198   9.950 -1.5698  0.8531 -3.0370
15093SOL    HW254248   9.454   4.296   9.935  1.1432 -1.1879  2.0868
15094SOL     OW54249   2.079   1.425   5.625  0.0089 -0.4782  0.0496
15094SOL    HW154250   2.142   1.400   5.557 -1.6612  0.9586 -2.1431
15094SOL    HW254251   2.126   1.490   5.678  1.4358 -1.8471  0.5514
15095SOL     OW54252   9.819   2.140   5.802 -0.1413  0.0910 -0.6548
15095SOL    HW154253   9.787   2.180   5.721  1.4819  0.6104 -1.0915
15095SOL    HW254254   9.793   2.048   5.796 -1.4463  0.4666 -0.9851
15096SOL     OW54255   1.878   2.469   6.270  0.5767 -0.2756 -0.2618
15096SOL    HW154256   1.794   2.429   6.293  0.8440 -0.9003 -0.3773
15096SOL    HW254257   1.944   2.405   6.296  0.9549 -0.3793 -1.4159
15097SOL     OW54258  12.432  11.048   5.693  0.3535 -0.3515 -0.0266
15097SOL    HW154259  12.388  11.070   5.775 -0.8996 -0.5904 -0.6168
15097SOL    HW254260  12.452  10.954   5.701  0.8584 -0.2247  0.2750
15098SOL     OW54261  10.316  10.018  11.536  0.3880 -0.6508 -0.3367
15098SOL    HW154262  10.259   9.943  11.552  1.2317 -0.8656  2.0231
15098SOL    HW254263  10.263  10.094  11.562  0.6409 -0.7227  0.4064
15099SOL     OW54264  10.974   9.269   1.085 -0.4219 -0.0361  0.0640
15099SOL    HW154265  10.910   9.206   1.117  0.7418 -1.0797  0.4268
15099SOL    HW254266  10.954   9.278   0.992  0.9995 -3.0931 -0.6861
15100SOL     OW54267   5.179   0.657   6.677  0.1905  0.7885  0.0639
15100SOL    HW154268   5.269   0.650   6.645  0.9793 -0.7997  2.3954
15100SOL    HW254269   5.128   0.676   6.599  2.2681 -0.4316 -1.7062
15101SOL     OW54270  11.151   4.617  11.626  0.6535  0.2757 -0.1463
15101SOL    HW154271  11.095   4.620  11.548  0.0799 -0.0798  0.2546
15101SOL    HW254272  11.218   4.683  11.608  0.1771  0.6296 -0.6756
15102SOL     OW54273   3.084  10.584  11.084 -0.4413 -0.2827  0.0990
15102SOL    HW154274   3.099  10.647  11.155  0.4568  2.5267 -2.3278
15102SOL    HW254275   2.994  10.555  11.096 -0.0564 -0.6046  2.8193
15103SOL     OW54276   7.428   1.207   9.068  0.1093  0.2408  0.0482
15103SOL    HW154277   7.456   1.215   9.159 -0.3199  0.9461  0.1227
15103SOL    HW254278   7.502   1.238   9.016  0.6074 -0.7911  0.1243
15104SOL     OW54279   0.561  12.208   2.314 -0.0889 -0.1566 -0.0975
15104SOL    HW154280   0.648  12.172   2.297  0.7195  1.3180  0.6958
15104SOL    HW254281   0.574  12.269   2.386 -1.6524  0.6587 -0.4524
15105SOL     OW54282   3.868  10.663   1.734 -0.3435  0.2884  0.0818
15105SOL    HW154283   3.934  10.638   1.670  0.0376  0.8190  0.2595
15105SOL    HW254284   3.846  10.754   1.713 -1.3113  0.0039 -0.2191
15106SOL     OW54285   2.375   1.806   1.460  0.1647 -0.0447  0.2251
15106SOL    HW154286   2.309   1.855   1.509 -0.3239  0.5742 -0.9906
15106SOL    HW254287   2.459   1.834   1.496 -0.1862  0.3101  0.7782
15107SOL     OW54288   6.066   6.399   0.280  0.1815 -0.3183  0.5884
15107SOL    HW154289   6.052   6.305   0.290 -0.3638 -0.1747  1.2747
15107SOL    HW254290   6.154   6.413   0.315 -0.4825 -0.3097  2.3998
15108SOL     OW54291   3.721  10.101   6.051 -0.1032  0.3201  0.0092
15108SOL    HW154292   3.731  10.006   6.060  0.5908  0.1074 -2.2945
15108SOL    HW254293   3.646  10.113   5.993 -0.8318  1.2536  1.0934
15109SOL     OW54294  12.567  11.340   6.163  0.1079  0.2163 -0.4449
15109SOL    HW154295  12.550  11.420   6.212  0.7249 -0.1617  0.4092
15109SOL    HW254296  12.535  11.359   6.075 -3.3471  0.0774  0.6243
15110SOL     OW54297   0.907   8.744   2.070 -0.3681 -0.3295 -0.2282
15110SOL    HW154298   0.904   8.799   2.147 -1.0345  0.6232 -0.9206
15110SOL    HW254299   0.928   8.656   2.103 -1.1825 -0.0453  1.0738
15111SOL     OW54300   3.470   1.871   2.436  0.1732 -0.5941  0.1083
15111SOL    HW154301   3.462   1.916   2.351 -3.3489 -0.6939  0.2276
15111SOL    HW254302   3.419   1.925   2.496  1.3561 -1.3373  1.8454
15112SOL     OW54303  10.498   2.909  10.391  0.2599  0.0205  0.0535
15112SOL    HW154304  10.543   2.854  10.455  0.3171 -1.0619 -0.8909
15112SOL    HW254305  10.438   2.963  10.444 -0.5961 -1.7051  0.9141
15113SOL     OW54306   5.399   9.007   3.353  0.4035  0.5417 -0.1068
15113SOL    HW154307   5.310   8.991   3.385 -0.4574  0.6583 -2.2368
15113SOL    HW254308   5.446   9.041   3.429 -1.0250 -0.6221  1.3883
15114SOL     OW54309   3.810   4.673   9.780 -0.1826  0.2417  0.3930
15114SOL    HW154310   3.846   4.664   9.692 -3.5047 -0.2224 -1.0631
15114SOL    HW254311   3.824   4.588   9.822 -0.5280 -0.2710 -0.5215
15115SOL     OW54312   9.322   2.241   7.099  0.3455 -0.0433 -0.3821
15115SOL    HW154313   9.380   2.273   7.168  1.3198 -1.6911 -0.3924
15115SOL    HW254314   9.276   2.167   7.139 -0.3860  0.0807 -0.9718
15116SOL     OW54315  11.719  10.869   2.018 -0.0223  0.1309  0.9165
15116SOL    HW154316  11.659  10.869   2.093  0.4196 -2.6077  1.3738
15116SOL    HW254317  11.774  10.946   2.032  0.2332 -0.4158  3.6239
15117SOL     OW54318   9.746   5.002   1.568  0.3938 -0.6091  0.4845
15117SOL    HW154319   9.724   4.952   1.489 -1.1245 -0.2878  0.6837
15117SOL    HW254320   9.767   5.089   1.535 -0.7245 -0.3372  0.4611
15118SOL     OW54321   5.644   7.485   1.481 -0.3776 -0.4222 -0.0093
15118SOL    HW154322   5.689   7.471   1.397  0.1295 -1.8029  0.4642
15118SOL    HW254323   5.607   7.573   1.474  1.2214  0.2178 -0.9649
15119SOL     OW54324   1.063   8.690  12.014 -0.2289 -0.2775 -0.0571
15119SOL    HW154325   1.148   8.728  11.994  1.6083 -3.7480  0.3411
15119SOL    HW254326   1.033   8.653  11.931 -0.5046 -0.5408  0.1579
15120SOL     OW54327   9.670   7.904   5.275  0.2155 -0.2350 -0.0087
15120SOL    HW154328   9.593   7.866   5.232 -0.8333  0.3948  1.2388
15120SOL    HW254329   9.720   7.944   5.204 -0.0714 -1.5121 -0.9795
15121SOL     OW54330   2.395   5.759   6.961  0.0492 -0.5905 -0.3798
15121SOL    HW154331   2.485   5.781   6.936 -0.1912 -0.3105 -1.0299
15121SOL    HW254332   2.353   5.844   6.975 -0.3219 -0.6933 -0.8448
15122SOL     OW54333  10.551   3.536   8.641  0.3855 -0.1986  0.2842
15122SOL    HW154334  10.489   3.495   8.580  0.8864 -0.8264  0.1869
15122SOL    HW254335  10.637   3.516   8.604  0.7413 -1.4093  1.6962
15123SOL     OW54336   3.660   7.136  12.209 -0.0505 -0.1274 -0.8355
15123SOL    HW154337   3.681   7.217  12.163 -0.5171 -0.7627 -2.2240
15123SOL    HW254338   3.600   7.163  12.279  1.6383  1.0303  0.2550
15124SOL     OW54339  10.986   2.331   6.386  0.3739 -0.4370 -0.6111
15124SOL    HW154340  10.991   2.278   6.306 -0.5556  0.5325 -1.3328
15124SOL    HW254341  10.967   2.419   6.355  0.9038  0.1370  0.6424
15125SOL     OW54342   8.916   6.014   8.696  0.9156  0.3322  0.0210
15125SOL    HW154343   8.826   6.026   8.667  0.6091  1.1253  1.2137
15125SOL    HW254344   8.970   6.056   8.629  0.4430 -0.6036 -0.9635
15126SOL     OW54345   8.071  10.329   7.605  0.0280 -0.4103 -0.1027
15126SOL    HW154346   8.102  10.280   7.530 -0.2739 -0.3454 -0.2726
15126SOL    HW254347   7.985  10.361   7.579 -0.5476 -1.2856  0.6660
15127SOL     OW54348   3.909   3.686   0.260  0.7891  0.1878 -0.2376
15127SOL    HW154349   3.936   3.763   0.310 -0.9406 -0.1851  1.4207
15127SOL    HW254350   3.816   3.701   0.242  0.4751 -1.3901 -0.0661
15128SOL     OW54351  10.724   5.324   7.207  0.3717  0.2114  0.0927
15128SOL    HW154352  10.755   5.401   7.256 -0.0371  0.9130 -0.7269
15128SOL    HW254353  10.724   5.254   7.272  0.5300  0.9518  0.9259
15129SOL     OW54354   2.090   9.995  11.040 -0.2722  0.2963  0.3459
15129SOL    HW154355   2.093   9.958  11.128 -2.4148  0.6820  0.6340
15129SOL    HW254356   2.174   9.971  11.001 -0.7014 -3.0970  1.2029
15130SOL     OW54357   5.738  11.381  11.860 -0.3643  0.2089 -0.4131
15130SOL    HW154358   5.819  11.407  11.816 -0.7043  1.3773 -0.3844
15130SOL    HW254359   5.670  11.390  11.794 -0.7273  0.9736  0.0471
15131SOL     OW54360   6.796   9.539  10.553 -0.2240  0.0976 -0.1849
15131SOL    HW154361   6.744   9.470  10.511  2.1137 -1.6162 -0.5075
15131SOL    HW254362   6.866   9.557  10.491  1.1735  0.2374  1.3654
15132SOL     OW54363   3.553   3.894   7.540  0.4009 -0.3291  0.4614
15132SOL    HW154364   3.486   3.915   7.604  0.2351 -2.3428  1.0186
15132SOL    HW254365   3.621   3.960   7.553 -1.2367  1.5186  0.1553
15133SOL     OW54366   7.341  11.767  11.219  0.3737  0.4022  0.0180
15133SOL    HW154367   7.322  11.698  11.155  1.8691 -0.3496  0.3502
15133SOL    HW254368   7.404  11.824  11.175 -1.2019  1.8910 -0.4334
15134SOL     OW54369   1.971   4.451   8.848  0.3076  0.1575  0.7712
15134SOL    HW154370   1.909   4.524   8.853  0.9526  0.6567  3.3269
15134SOL    HW254371   1.933   4.384   8.905  0.7204 -0.6998  0.0549
15135SOL     OW54372  12.269   1.250   3.128  0.0018  0.1178  0.2323
15135SOL    HW154373  12.327   1.286   3.195 -0.1288  0.4070  0.1890
15135SOL    HW254374  12.225   1.326   3.091 -1.8512 -0.2537  1.5662
15136SOL     OW54375  12.276   6.555   0.641  0.3376 -0.3839  0.8247
15136SOL    HW154376  12.270   6.461   0.623 -0.8578 -0.4040  1.2574
15136SOL    HW254377  12.344   6.586   0.581  0.7455 -1.5154  0.6702
15137SOL     OW54378   1.424   1.528   3.548  0.4150  0.5574  0.5099
15137SOL    HW154379   1.339   1.565   3.571  0.8554  1.9219 -0.0007
15137SOL    HW254380   1.403   1.444   3.506 -0.7558  1.3040 -0.4641
15138SOL     OW54381   7.050   4.924   5.724 -0.7208  0.1777  0.5258
15138SOL    HW154382   7.066   5.008   5.767 -0.7615  0.3840  0.1473
15138SOL    HW254383   7.137   4.892   5.700 -0.7257  0.2680  0.3842
15139SOL     OW54384  10.091   3.671   4.152  0.0708 -0.2628 -0.1683
15139SOL    HW154385  10.112   3.578   4.157 -0.8546 -0.5404 -1.2313
15139SOL    HW254386  10.176   3.714   4.142  0.4251 -1.0793 -0.7394
15140SOL     OW54387  10.270   0.483  11.971  0.2875 -0.4710 -0.1432
15140SOL    HW154388  10.178   0.509  11.970 -0.0010 -1.3122  1.0854
15140SOL    HW254389  10.314   0.544  11.912 -0.8332  0.7994  0.2902
15141SOL     OW54390   0.351   7.076   9.523  0.0327 -0.6402  0.6382
15141SOL    HW154391   0.315   7.139   9.460  0.1966 -1.7197 -0.5886
15141SOL    HW254392   0.281   7.064   9.587  0.1557  1.0771  1.1585
15142SOL     OW54393   1.492   2.726   7.302  0.7254 -0.2204  0.2931
15142SOL    HW154394   1.462   2.652   7.355  0.3072 -0.4262 -0.2257
15142SOL    HW254395   1.587   2.714   7.296  0.3858 -2.4880 -2.3588
15143SOL     OW54396   0.745   4.706   2.377 -0.0631  0.3101 -0.0955
15143SOL    HW154397   0.710   4.687   2.464 -0.5497 -0.4348 -0.4442
15143SOL    HW254398   0.780   4.622   2.346  0.2607  0.6060 -0.5495
15144SOL     OW54399   3.685   4.598   8.038 -0.0356  0.0684  0.4299
15144SOL    HW154400   3.612   4.621   7.980 -1.5832 -0.5852  2.0296
15144SOL    HW254401   3.687   4.502   8.037  1.2477  0.0841 -0.0900
15145SOL     OW54402   5.921   9.195   4.723 -0.4808 -0.3027  0.5504
15145SOL    HW154403   5.996   9.138   4.739 -0.2459  0.0010  0.5400
15145SOL    HW254404   5.846   9.136   4.721 -0.0704 -0.8226 -1.0306
15146SOL     OW54405  10.656   4.538   8.911  0.0578 -0.2836 -0.0598
15146SOL    HW154406  10.747   4.568   8.910  0.3140 -1.0559 -0.2313
15146SOL    HW254407  10.654   4.464   8.851 -0.4260 -1.0139  0.8244
15147SOL     OW54408   3.013  10.482  11.753  0.2395 -0.1241 -0.4386
15147SOL    HW154409   2.934  10.508  11.800  0.1812  0.2970 -0.7592
15147SOL    HW254410   3.011  10.534  11.673  0.9188  0.0138 -0.3792
15148SOL     OW54411   8.162   1.976   8.143 -0.5122  0.6870  0.1281
15148SOL    HW154412   8.090   1.944   8.198  1.7936 -3.4508  1.1433
15148SOL    HW254413   8.231   2.001   8.205  1.0954 -1.3702 -0.7221
15149SOL     OW54414   6.499   4.319   6.556  0.0284  0.0575 -0.3075
15149SOL    HW154415   6.550   4.270   6.621  0.8279 -1.2072 -1.8136
15149SOL    HW254416   6.560   4.334   6.484 -0.2942  3.0618 -0.0647
15150SOL     OW54417   5.940   1.258   2.854  0.0762 -0.0471  0.5392
15150SOL    HW154418   5.845   1.271   2.852 -0.2127 -1.8456  0.7995
15150SOL    HW254419   5.964   1.244   2.762 -0.1537 -1.0251  0.6201
15151SOL     OW54420   3.557   9.643   9.735  0.3098 -1.0170  0.9150
15151SOL    HW154421   3.619   9.716   9.735 -1.0355  0.1855 -0.2349
15151SOL    HW254422   3.497   9.662   9.807  0.2181 -1.2308  0.8950
15152SOL     OW54423  10.284   8.380   9.863 -0.3098 -0.3869 -0.2516
15152SOL    HW154424  10.374   8.405   9.885  0.3003  0.4136 -3.1250
15152SOL    HW254425  10.242   8.463   9.840 -1.8278 -0.7481  1.1059
15153SOL     OW54426   0.651   2.215  11.528 -0.3192  0.0113 -0.4164
15153SOL    HW154427   0.727   2.238  11.581  0.9049 -3.7300 -0.2841
15153SOL    HW254428   0.677   2.232  11.438  0.0360  0.3319 -0.2505
15154SOL     OW54429   1.435   0.044   7.099  0.5510 -0.2098  0.6474
15154SOL    HW154430   1.513   0.071   7.147  0.8924 -0.4248  0.2270
15154SOL    HW254431   1.419   0.115   7.037 -0.5306  0.5802  1.7934
15155SOL     OW54432  10.425  12.425  11.114 -0.0168 -0.2701  0.0966
15155SOL    HW154433  10.403  12.446  11.205 -0.8534  2.3074 -0.6290
15155SOL    HW254434  10.520  12.414  11.115 -0.1607 -1.7708  1.5093
15156SOL     OW54435  12.558   0.175   9.148  0.3648 -0.0236 -0.1606
15156SOL    HW154436  12.514   0.095   9.176  0.3243  0.0602  0.0166
15156SOL    HW254437  12.616   0.147   9.077 -0.6727  0.0187 -1.0542
15157SOL     OW54438   9.046   8.541   5.045 -0.0649  0.8695 -0.2872
15157SOL    HW154439   9.085   8.459   5.015  0.4455  0.8361  0.4665
15157SOL    HW254440   9.120   8.596   5.070 -0.3183  1.9670 -1.7344
15158SOL     OW54441   3.403   7.583   3.444 -0.3864 -0.0829  0.2619
15158SOL    HW154442   3.495   7.600   3.465 -0.6380  2.9980 -0.6254
15158SOL    HW254443   3.406   7.544   3.357  0.1002  0.1154  0.1853
15159SOL     OW54444   9.957  12.157   4.595  0.6376 -0.6903  0.6281
15159SOL    HW154445   9.880  12.161   4.652 -0.1815 -0.6569 -0.4516
15159SOL    HW254446   9.973  12.248   4.570  1.4024 -0.6216  1.2953
15160SOL     OW54447   1.449   1.969   4.491 -0.3614 -0.2613  0.5106
15160SOL    HW154448   1.497   1.892   4.460 -0.5891  0.4122 -1.6281
15160SOL    HW254449   1.513   2.040   4.488 -0.5117 -0.0884  1.2055
15161SOL     OW54450  11.538  12.169   4.802  0.5708 -0.6926 -0.0709
15161SOL    HW154451  11.548  12.077   4.827  1.0443 -0.6811 -0.2081
15161SOL    HW254452  11.574  12.174   4.713  1.1242 -0.2561  0.1685
15162SOL     OW54453   5.932   0.974   8.931 -0.5511  0.2342  0.2309
15162SOL    HW154454   5.888   0.903   8.884 -1.4774 -0.7800  2.4780
15162SOL    HW254455   5.991   0.929   8.992  0.0828  1.4596  0.5417
15163SOL     OW54456  10.610   8.883  11.114 -0.6702  0.2233  0.0582
15163SOL    HW154457  10.574   8.959  11.067 -1.5007  0.7995  1.5557
15163SOL    HW254458  10.701   8.908  11.133 -0.1442 -0.2444 -1.6529
15164SOL     OW54459   7.859   6.936   3.329 -0.5176 -0.3532 -0.5639
15164SOL    HW154460   7.940   6.898   3.363  0.2181  0.4697 -1.3234
15164SOL    HW254461   7.887   6.987   3.253 -1.6355  0.7113 -0.2841
15165SOL     OW54462  12.326   8.421   4.212 -0.1219 -0.2671 -0.1948
15165SOL    HW154463  12.317   8.327   4.196  0.0971 -0.0724 -1.6449
15165SOL    HW254464  12.421   8.437   4.207 -0.1781  0.0704 -0.1973
15166SOL     OW54465   5.283   4.587   3.049 -0.4515  0.0587 -0.2269
15166SOL    HW154466   5.301   4.623   2.962 -1.6360 -0.5400 -0.7539
15166SOL    HW254467   5.249   4.662   3.099  1.2789  0.6601  0.0880
15167SOL     OW54468   1.361   3.466   0.936  0.5945  0.3031 -0.2767
15167SOL    HW154469   1.407   3.384   0.923 -0.2622 -0.0882 -0.9004
15167SOL    HW254470   1.365   3.481   1.031  0.3037 -0.7156 -0.1003
15168SOL     OW54471   5.517   1.896  12.149 -0.8833 -0.0581 -0.2512
15168SOL    HW154472   5.432   1.939  12.161 -1.5259 -0.7375 -2.0192
15168SOL    HW254473   5.503   1.806  12.179 -1.0026 -0.3556 -1.1744
15169SOL     OW54474   1.298   6.869   0.728  0.0107 -0.1572 -0.2668
15169SOL    HW154475   1.262   6.879   0.640 -0.7262 -2.6327 -0.3201
15169SOL    HW254476   1.324   6.777   0.733  0.0857 -0.0632  2.0855
15170SOL     OW54477  10.104   6.933   3.606 -0.0648 -0.0017  0.8498
15170SOL    HW154478  10.180   6.978   3.572 -0.5381  0.7479  0.7652
15170SOL    HW254479  10.048   6.918   3.530  0.0689 -0.6916  0.8845
15171SOL     OW54480   7.748   8.943   0.399 -0.3375  0.8499  0.4079
15171SOL    HW154481   7.803   9.004   0.447  0.8567  0.4082 -0.3475
15171SOL    HW254482   7.793   8.931   0.315 -2.0375  1.1324 -0.5928
15172SOL     OW54483   0.627  10.472   2.371 -0.0699 -0.0880 -0.3035
15172SOL    HW154484   0.692  10.481   2.441 -1.2024  1.7442  0.5969
15172SOL    HW254485   0.679  10.453   2.293  1.4622  0.2767  0.5844
15173SOL     OW54486  12.398   1.286   4.834 -1.0577  0.1876  0.0946
15173SOL    HW154487  12.440   1.232   4.901  0.2096 -1.9930 -2.2798
15173SOL    HW254488  12.465   1.348   4.807 -1.2265  0.3841  0.1269
15174SOL     OW54489   5.245   2.527   9.047  1.0485 -0.0754 -0.1555
15174SOL    HW154490   5.288   2.604   9.083  1.8137 -0.5879  0.0484
15174SOL    HW254491   5.262   2.531   8.953  2.8891 -1.0606  0.0865
15175SOL     OW54492   9.544  12.183   3.798 -0.4751  0.0952 -0.3142
15175SOL    HW154493   9.517  12.105   3.749 -1.0418  1.0817 -1.6335
15175SOL    HW254494   9.507  12.170   3.886  0.3428 -1.5916 -0.1796
15176SOL     OW54495   8.850   8.665   1.722  0.4615  0.0002  0.2172
15176SOL    HW154496   8.916   8.734   1.713  0.2326  0.1048 -0.7060
15176SOL    HW254497   8.898   8.583   1.712  0.5552  0.0530  0.2353
15177SOL     OW54498   4.977   6.359  11.317  0.4111 -0.1150 -0.1609
15177SOL    HW154499   5.067   6.376  11.344  0.0504  0.2107  0.8911
15177SOL    HW254500   4.957   6.429  11.255  0.9271 -0.2657 -0.4951
15178SOL     OW54501  10.942   3.645  10.212  0.3346 -0.3094  0.1624
15178SOL    HW154502  10.917   3.735  10.188  1.5937  0.4250  1.4569
15178SOL    HW254503  11.037   3.643  10.201  0.4018 -1.2753  0.8468
15179SOL     OW54504   0.959   2.966  11.740 -0.3188  0.5631 -0.1976
15179SOL    HW154505   0.952   3.028  11.668  0.4452  2.1994  1.0605
15179SOL    HW254506   1.048   2.930  11.732  0.8525  2.8318  1.4281
15180SOL     OW54507   4.847   2.248   3.733  0.3527 -0.2019  0.0614
15180SOL    HW154508   4.878   2.337   3.749 -0.3689 -0.2729  2.1801
15180SOL    HW254509   4.897   2.194   3.795 -0.8395 -0.9163  0.4286
15181SOL     OW54510   8.467  10.954  11.617  0.3725  0.6212 -0.2015
15181SOL    HW154511   8.447  10.865  11.646  0.9669  0.3809 -0.5198
15181SOL    HW254512   8.520  10.942  11.538 -0.5383  1.2524 -0.9416
15182SOL     OW54513   4.129   4.858   9.550 -0.6033 -0.2321  0.4314
15182SOL    HW154514   4.063   4.910   9.504  0.5261  1.0615  0.1880
15182SOL    HW254515   4.210   4.908   9.539  0.6954 -2.4262 -0.3969
15183SOL     OW54516   1.407   0.280   1.851  0.1664 -0.2514  0.2107
15183SOL    HW154517   1.441   0.206   1.901  1.5928 -0.9344 -1.6443
15183SOL    HW254518   1.402   0.352   1.915  4.3720 -0.3330  0.9553
15184SOL     OW54519  11.744   7.476   6.256  0.6092  0.0377  0.2903
15184SOL    HW154520  11.748   7.382   6.235  1.3806 -0.1668  1.2670
15184SOL    HW254521  11.830   7.510   6.231 -0.0633  0.7382 -1.1256
15185SOL     OW54522  11.535   8.033   4.863 -0.1747 -0.1702  0.1095
15185SOL    HW154523  11.451   8.028   4.817 -0.4015  0.4488  0.4391
15185SOL    HW254524  11.578   7.950   4.845 -1.3297 -0.9498  0.8314
15186SOL     OW54525   9.752   3.525   7.943 -0.2422 -0.1095  0.6053
15186SOL    HW154526   9.826   3.486   7.990 -0.3585 -0.4073  0.5448
15186SOL    HW254527   9.687   3.544   8.011  0.7574  2.2466  0.9925
15187SOL     OW54528   6.538   3.783   4.579 -0.1762  0.1058 -0.5106
15187SOL    HW154529   6.503   3.811   4.494  0.4028  1.4213 -0.3482
15187SOL    HW254530   6.569   3.864   4.619  1.6377 -0.8046 -0.0006
15188SOL     OW54531   4.086   4.213   7.167 -0.4909 -0.0196 -0.7617
15188SOL    HW154532   4.136   4.139   7.134 -0.2178  0.4680 -1.4711
15188SOL    HW254533   4.128   4.290   7.129 -0.3635  0.5571  0.4891
15189SOL     OW54534   2.239   8.016   4.480  0.5355 -0.2200  0.4202
15189SOL    HW154535   2.243   8.055   4.392 -0.8948 -0.9449 -0.0011
15189SOL    HW254536   2.309   7.950   4.480 -0.3158 -1.1520 -0.6744
15190SOL     OW54537   3.652  12.139  12.129 -0.5042 -0.2915 -0.7971
15190SOL    HW154538   3.706  12.124  12.206 -1.4118 -1.3819 -0.3457
15190SOL    HW254539   3.712  12.177  12.065  1.0187 -2.1510 -0.5837
15191SOL     OW54540   2.673   2.828   7.504 -0.0745  0.1885 -0.3531
15191SOL    HW154541   2.751   2.865   7.546 -0.9268 -0.2575  1.7356
15191SOL    HW254542   2.610   2.819   7.574 -1.0536 -2.1476 -1.4212
15192SOL     OW54543   8.665  10.685   5.666 -0.9060  0.1314  0.1984
15192SOL    HW154544   8.759  10.682   5.648 -0.6282  0.7365  1.4322
15192SOL    HW254545   8.650  10.773   5.699 -1.6119 -0.4696  1.5479
15193SOL     OW54546   7.163   0.550  10.369 -0.1615 -0.1027  0.0484
15193SOL    HW154547   7.170   0.462  10.331 -1.1914  0.1769 -0.8295
15193SOL    HW254548   7.083   0.547  10.422 -0.3384  0.3816 -0.1897
15194SOL     OW54549   6.424  10.999  11.055  0.0438  0.0117 -0.4183
15194SOL    HW154550   6.367  10.922  11.060 -0.2728  0.1757 -1.3194
15194SOL    HW254551   6.483  10.989  11.129 -0.1740 -0.9586 -0.3549
15195SOL     OW54552   8.968   5.701  12.165 -0.7860 -0.4598 -0.2457
15195SOL    HW154553   8.880   5.737  12.171 -0.5462  0.3264 -1.1726
15195SOL    HW254554   8.977   5.675  12.073  0.2644  0.3204 -0.3772
15196SOL     OW54555  12.515   8.725  11.784 -0.4153  0.0260 -0.4484
15196SOL    HW154556  12.434   8.718  11.835 -0.9244 -0.1294 -1.2575
15196SOL    HW254557  12.525   8.638  11.744  0.6115 -0.2271  0.2997
15197SOL     OW54558   8.047   6.379   1.717  0.4317  0.4155 -0.0770
15197SOL    HW154559   7.967   6.378   1.665  0.0634  1.8625  0.4188
15197SOL    HW254560   8.046   6.296   1.764 -1.0357  0.6051  0.2788
15198SOL     OW54561   1.564   3.895   9.789  0.0439 -0.1308 -0.0548
15198SOL    HW154562   1.484   3.865   9.831  0.0844 -1.0592 -0.6154
15198SOL    HW254563   1.568   3.846   9.707  1.2197 -0.1593  0.0043
15199SOL     OW54564  10.009  11.198   5.384 -0.7165  0.0368 -0.5222
15199SOL    HW154565   9.947  11.256   5.338  1.3846  0.9030 -2.4404
15199SOL    HW254566  10.094  11.241   5.374  0.5020 -1.9810  0.5226
15200SOL     OW54567  10.512   2.285  11.625 -0.0357  0.1809 -0.4277
15200SOL    HW154568  10.596   2.238  11.621 -0.1349  0.0579 -1.2573
15200SOL    HW254569  10.446   2.216  11.626 -0.1171  0.2280  1.7958
15201SOL     OW54570   6.750   5.635  10.646 -0.0738  0.0645  0.5570
15201SOL    HW154571   6.698   5.556  10.633 -0.3959  0.4416 -0.5140
15201SOL    HW254572   6.712   5.699  10.587  1.3097  0.4865  0.0742
15202SOL     OW54573   1.384   3.265  11.538  0.1435 -0.0459  0.2084
15202SOL    HW154574   1.290   3.279  11.527  0.1080 -1.0557 -0.9554
15202SOL    HW254575   1.390   3.202  11.610 -0.0824 -0.0582  0.2183
15203SOL     OW54576   2.710   2.979  12.506 -0.2025 -0.4132 -0.3230
15203SOL    HW154577   2.771   2.912  12.475 -0.0764 -1.0379  1.2253
15203SOL    HW254578   2.632   2.967  12.451  0.1363 -1.2554 -0.6435
15204SOL     OW54579   0.731  10.705   3.635 -0.0939  0.3189 -0.2604
15204SOL    HW154580   0.641  10.674   3.625  0.1409 -0.1889 -0.8479
15204SOL    HW254581   0.754  10.682   3.725  0.3415 -1.9803 -0.8908
15205SOL     OW54582   8.737  11.638   2.974 -0.0633 -0.2168 -0.6771
15205SOL    HW154583   8.703  11.607   3.058 -0.1909  0.2677 -0.5447
15205SOL    HW254584   8.794  11.567   2.943  2.2941  0.7038  1.1971
15206SOL     OW54585   4.962  11.055   4.723  0.0806 -0.0838  0.0537
15206SOL    HW154586   5.047  11.014   4.736 -0.2993 -1.5798 -1.7622
15206SOL    HW254587   4.980  11.149   4.725  2.2660 -0.3293 -2.6572
15207SOL     OW54588  10.319   9.160   0.466  0.2424 -0.7550  0.2511
15207SOL    HW154589  10.307   9.149   0.372  0.4626 -0.0749  0.1360
15207SOL    HW254590  10.346   9.074   0.497  1.1102 -0.7595 -0.4693
15208SOL     OW54591   7.053  10.020   0.064  0.1804 -0.2732 -0.3274
15208SOL    HW154592   7.061  10.106   0.024  0.1555 -0.8115 -1.5278
15208SOL    HW254593   6.967   9.988   0.038  0.8365 -1.3377 -1.3103
15209SOL     OW54594   6.279   2.699   0.807 -0.1065 -0.7873 -0.0787
15209SOL    HW154595   6.374   2.687   0.818  0.0807  0.5524 -0.0565
15209SOL    HW254596   6.246   2.707   0.896 -0.3771 -2.0025 -0.0456
15210SOL     OW54597   8.780   6.686   8.171 -0.1992 -0.3222 -0.4792
15210SOL    HW154598   8.737   6.734   8.101  0.0358 -0.2420 -0.5686
15210SOL    HW254599   8.734   6.602   8.175 -1.2043  0.2370  0.2685
15211SOL     OW54600   9.910   2.734   4.697  0.5975 -0.2019 -0.2988
15211SOL    HW154601   9.868   2.687   4.769  1.5948 -1.2124 -0.3340
15211SOL    HW254602   9.969   2.669   4.658 -2.3702 -0.9191 -4.3129
15212SOL     OW54603  11.575   4.257   5.286  0.5576  0.7092 -0.3054
15212SOL    HW154604  11.539   4.328   5.340 -0.8431 -0.3964  0.2684
15212SOL    HW254605  11.660   4.239   5.325 -0.0925  0.4739  1.0810
15213SOL     OW54606   1.787   4.881   2.153 -0.6622  0.6526  0.2058
15213SOL    HW154607   1.848   4.903   2.224  0.8245 -0.1221 -0.7872
15213SOL    HW254608   1.832   4.910   2.073 -1.6065  0.0871 -0.5511
15214SOL     OW54609   7.882   4.759   2.387 -0.0748  0.0657 -0.3894
15214SOL    HW154610   7.947   4.733   2.453 -0.9088 -1.1637 -0.0248
15214SOL    HW254611   7.858   4.848   2.411  0.1175 -0.1358  0.5880
15215SOL     OW54612   9.370  10.355   9.610  0.1820  0.5103 -0.3143
15215SOL    HW154613   9.465  10.347   9.605  0.2027  0.0096  0.5647
15215SOL    HW254614   9.349  10.326   9.699 -0.7508  1.0204 -0.3586
15216SOL     OW54615   8.420   1.624   7.356 -0.3821 -0.1191  0.0444
15216SOL    HW154616   8.506   1.663   7.368  1.1661 -3.0651 -0.5585
15216SOL    HW254617   8.397   1.644   7.265  0.0029  0.1006 -0.0068
15217SOL     OW54618   9.903   2.209   7.174  0.3307  0.0452 -0.0649
15217SOL    HW154619   9.950   2.147   7.230  0.5880 -1.2797 -1.6483
15217SOL    HW254620   9.819   2.166   7.157  1.0045 -0.5721 -2.2218
15218SOL     OW54621  10.148   8.854   9.952 -0.6232 -0.1752 -0.1242
15218SOL    HW154622  10.102   8.799  10.016  0.4337  0.3678  1.1373
15218SOL    HW254623  10.226   8.885   9.998  0.4025 -0.1001 -1.8232
15219SOL     OW54624  10.413   0.814   2.817  0.0463 -0.7596 -0.0829
15219SOL    HW154625  10.393   0.905   2.837  1.9683 -0.1826 -0.6012
15219SOL    HW254626  10.505   0.814   2.790  0.2895 -2.9397  0.5069
15220SOL     OW54627   4.215   5.737   0.122  0.1131  0.2790  0.2473
15220SOL    HW154628   4.277   5.727   0.194 -1.3711 -0.9141  1.4120
15220SOL    HW254629   4.134   5.766   0.164 -0.6236  0.1083 -1.0193
15221SOL     OW54630  10.108   7.396   3.289  0.0655  0.2002 -0.3214
15221SOL    HW154631  10.090   7.355   3.374  1.0614 -4.1955 -1.9794
15221SOL    HW254632  10.196   7.368   3.267  0.7048  3.0783 -1.9584
15222SOL     OW54633   9.026   3.021   7.816  0.2515 -0.2355 -1.1341
15222SOL    HW154634   9.001   2.980   7.734 -0.8797 -0.1222 -0.8563
15222SOL    HW254635   9.121   3.031   7.810 -0.0202  1.7204 -3.3488
15223SOL     OW54636  10.771   0.800   2.292 -0.5267  0.0491 -0.2447
15223SOL    HW154637  10.715   0.834   2.222  1.0190  0.3780 -1.3826
15223SOL    HW254638  10.740   0.711   2.306 -1.8993  0.5033 -0.1952
15224SOL     OW54639   6.408   8.317   9.312 -0.2161  0.2632 -0.1021
15224SOL    HW154640   6.364   8.359   9.386 -2.8287 -0.1668 -1.2969
15224SOL    HW254641   6.419   8.226   9.339  1.9175  0.7918  0.9887
15225SOL     OW54642  11.203  10.811   9.805  0.3962  0.3519  0.0742
15225SOL    HW154643  11.123  10.853   9.838  1.7196  0.5983  3.3718
15225SOL    HW254644  11.274  10.866   9.838  2.0070  0.0527 -2.6341
15226SOL     OW54645  10.785   1.647   6.979  0.1664 -0.1583 -0.6265
15226SOL    HW154646  10.742   1.730   6.964  0.4663  0.1268  0.0395
15226SOL    HW254647  10.831   1.628   6.897  0.5084  0.5795 -0.6123
15227SOL     OW54648   7.007   6.503   8.175 -0.0866  0.6009  0.1828
15227SOL    HW154649   6.947   6.536   8.241 -0.0821  0.0275  0.4801
15227SOL    HW254650   6.986   6.554   8.096 -0.2596  1.1138  0.5518
15228SOL     OW54651  11.093   3.342  10.082  0.5122  0.0150  0.6279
15228SOL    HW154652  11.061   3.297  10.160  2.1547 -1.4976  0.5041
15228SOL    HW254653  11.174   3.295  10.060  0.5501  0.9840 -1.4608
15229SOL     OW54654   6.774   4.493  12.304 -0.1373 -0.3005  0.0304
15229SOL    HW154655   6.825   4.501  12.385  0.2163  0.3134 -0.2465
15229SOL    HW254656   6.839   4.470  12.238 -0.5548 -1.7203  0.0711
15230SOL     OW54657   3.899   0.024   4.619 -0.1672 -0.4088 -0.2840
15230SOL    HW154658   3.950   0.034   4.700  0.5887 -1.6878 -0.5871
15230SOL    HW254659   3.946  -0.043   4.569  0.5685  1.7380 -2.7120
15231SOL     OW54660   1.584   6.176  10.388 -0.2109 -0.6125  0.1258
15231SOL    HW154661   1.521   6.181  10.460 -0.1927  0.7047  0.0813
15231SOL    HW254662   1.670   6.177  10.430 -0.1636  1.4959  0.1006
15232SOL     OW54663   7.551   2.498   2.477 -0.8107 -0.4978 -0.0689
15232SOL    HW154664   7.589   2.579   2.511 -0.6842  0.4821 -2.3647
15232SOL    HW254665   7.476   2.481   2.534 -0.8494  1.2543  0.4480
15233SOL     OW54666   1.353  10.594  10.577 -0.1349  0.5148 -0.2738
15233SOL    HW154667   1.268  10.583  10.534 -0.3202 -1.7203  0.5475
15233SOL    HW254668   1.337  10.572  10.668  1.0868  1.3372  0.1598
15234SOL     OW54669   0.482   6.867  10.302  0.6988 -0.0280  0.0637
15234SOL    HW154670   0.564   6.887  10.347  0.9787 -1.2351  0.1337
15234SOL    HW254671   0.507   6.803  10.235 -0.3065 -1.0556  0.6348
15235SOL     OW54672   4.890   2.973   6.301  0.1050  0.3414 -0.2842
15235SOL    HW154673   4.971   3.003   6.259  0.8801  0.0889  0.9693
15235SOL    HW254674   4.886   2.880   6.282 -0.0167  0.3982 -0.5408
15236SOL     OW54675   1.846   1.586   1.356 -0.0680 -0.1277 -0.6071
15236SOL    HW154676   1.881   1.652   1.297 -0.7982  0.3861 -0.4683
15236SOL    HW254677   1.916   1.573   1.421 -1.0245  2.7641  1.1735
15237SOL     OW54678   6.435  12.201   9.496  0.3884 -0.5840  0.0407
15237SOL    HW154679   6.412  12.258   9.570 -2.0139 -1.7714  0.3221
15237SOL    HW254680   6.453  12.262   9.424 -3.0709  0.7006  0.0469
15238SOL     OW54681   3.510   8.326  10.233 -0.1742  0.0532  0.7103
15238SOL    HW154682   3.571   8.255  10.249  1.0037  0.6271 -0.9483
15238SOL    HW254683   3.427   8.282  10.213  0.3116 -0.8229  0.5876
15239SOL     OW54684   0.296   1.277   7.470 -0.1416 -0.6661  0.1701
15239SOL    HW154685   0.210   1.279   7.511 -0.3390  0.1001 -0.2577
15239SOL    HW254686   0.283   1.319   7.385  0.7098 -0.2988  0.2102
15240SOL     OW54687   9.098   3.417   6.834 -0.3054 -0.3529  0.5387
15240SOL    HW154688   9.119   3.500   6.877  1.2740  1.2446 -2.8982
15240SOL    HW254689   9.016   3.435   6.787  1.1013  0.1084 -1.9098
15241SOL     OW54690  11.406  12.187   5.077  0.5571  0.2911 -0.0432
15241SOL    HW154691  11.341  12.195   5.008 -2.0188 -1.4430  1.9562
15241SOL    HW254692  11.354  12.187   5.158  3.2405  0.5381  1.7893
15242SOL     OW54693  10.086  12.513   1.386  0.2068 -0.5375  0.5646
15242SOL    HW154694  10.034  12.443   1.425 -1.9720  1.6058  1.7809
15242SOL    HW254695  10.022  12.573   1.348  2.0649 -0.2083 -2.4089
15243SOL     OW54696   3.582   4.537  10.143 -0.4883 -0.1196  0.4153
15243SOL    HW154697   3.513   4.488  10.098 -1.0602  1.7740 -0.9207
15243SOL    HW254698   3.535   4.608  10.188  0.4557  0.3110  0.7407
15244SOL     OW54699   7.275  11.386   6.071  0.0629 -0.1761 -0.0286
15244SOL    HW154700   7.233  11.462   6.111  1.0061  0.5978 -0.4675
15244SOL    HW254701   7.237  11.311   6.117 -2.2340  0.4222 -0.8005
15245SOL     OW54702   1.329   0.436   7.609 -0.6609 -0.0019 -0.1043
15245SOL    HW154703   1.330   0.529   7.585  1.8192 -0.3813 -1.8108
15245SOL    HW254704   1.358   0.435   7.700 -3.5008  0.9900  0.9403
15246SOL     OW54705   2.863   9.225  11.566 -0.2795  0.2550  0.1599
15246SOL    HW154706   2.937   9.282  11.544 -0.1360 -0.5089 -1.4700
15246SOL    HW254707   2.810   9.222  11.487 -1.1555 -0.5770  0.7482
15247SOL     OW54708  10.209  11.645   9.287 -0.1581  0.1055  0.2539
15247SOL    HW154709  10.186  11.711   9.352  0.6087  0.9883 -0.3320
15247SOL    HW254710  10.162  11.672   9.208  0.5561  0.2588 -0.1293
15248SOL     OW54711   6.980   3.763   0.969  0.0784 -0.3125  0.2989
15248SOL    HW154712   6.915   3.701   1.004  0.2801 -0.7692 -0.1333
15248SOL    HW254713   6.954   3.847   1.007 -1.0333 -0.4030 -0.2094
15249SOL     OW54714   4.174   9.207  10.972 -0.5383  0.1268 -0.0932
15249SOL    HW154715   4.197   9.296  10.942 -0.7288  0.0444 -0.4874
15249SOL    HW254716   4.145   9.219  11.062 -0.3498  0.4369 -0.0717
15250SOL     OW54717  10.073  10.431   5.877 -0.3882  0.3783  0.3736
15250SOL    HW154718  10.141  10.489   5.843  0.9426 -1.0555  0.5043
15250SOL    HW254719  10.077  10.354   5.821 -0.6486 -0.5016  1.5281
15251SOL     OW54720   2.172   5.573   3.720 -0.6799  0.3071 -0.4354
15251SOL    HW154721   2.177   5.479   3.736 -1.2765  0.6002  1.8084
15251SOL    HW254722   2.237   5.612   3.779 -0.5950  1.3360 -1.1651
15252SOL     OW54723   3.136   1.555   5.316 -0.1342 -0.0456 -0.2822
15252SOL    HW154724   3.157   1.624   5.253 -1.0959  0.5653  0.0464
15252SOL    HW254725   3.169   1.475   5.275 -1.0113  0.2890 -1.7226
15253SOL     OW54726   3.104  10.407   2.373  0.2918  0.2091  0.2588
15253SOL    HW154727   3.151  10.471   2.426  0.5959 -0.5100  0.8693
15253SOL    HW254728   3.108  10.443   2.284 -2.3101  2.6794  0.9810
15254SOL     OW54729   2.791   6.483   3.957  0.1436  0.0372 -0.6927
15254SOL    HW154730   2.746   6.524   3.882  2.4890  0.0862 -2.1958
15254SOL    HW254731   2.816   6.396   3.925  1.7569  0.3019 -0.2220
15255SOL     OW54732   2.461   3.299   1.263  0.3485 -0.1574 -0.0492
15255SOL    HW154733   2.490   3.275   1.175  0.1755 -0.5029 -0.0152
15255SOL    HW254734   2.458   3.395   1.262 -0.2612 -0.1734 -0.6213
15256SOL     OW54735   2.588   5.195   9.397 -0.5087  0.1047 -0.1793
15256SOL    HW154736   2.549   5.229   9.477  1.1096  1.8265 -0.0618
15256SOL    HW254737   2.532   5.228   9.327 -0.4424  0.8063  0.0952
15257SOL     OW54738   1.772   4.052   8.162 -0.4024  0.1885 -0.6479
15257SOL    HW154739   1.780   3.967   8.206 -0.0585  0.6279  0.1759
15257SOL    HW254740   1.726   4.033   8.081 -0.4749 -0.7610 -0.4006
15258SOL     OW54741   5.421   8.880   6.868  0.2518  0.1491 -0.3096
15258SOL    HW154742   5.412   8.880   6.773 -1.3501 -0.0518 -0.1893
15258SOL    HW254743   5.367   8.954   6.897 -1.1485 -1.1599  0.5499
15259SOL     OW54744   0.691   9.364   3.473 -0.5876  0.2049  0.1211
15259SOL    HW154745   0.638   9.307   3.530  0.3562 -2.4781 -1.4696
15259SOL    HW254746   0.628   9.399   3.410 -0.7827 -2.0150 -1.0357
15260SOL     OW54747   5.470   1.262   9.402 -0.3089  0.0639  0.9448
15260SOL    HW154748   5.514   1.347   9.414 -0.2515  0.8521 -3.2094
15260SOL    HW254749   5.388   1.271   9.451 -0.9980  3.2223 -0.4874
15261SOL     OW54750   2.992   9.783   1.842  0.5500 -0.2146 -0.4412
15261SOL    HW154751   2.993   9.747   1.753 -2.0294  1.2744 -1.1752
15261SOL    HW254752   2.965   9.709   1.896  1.6079 -1.0015 -0.9525
15262SOL     OW54753  10.774   2.199  12.538 -0.1980  0.2585  0.5939
15262SOL    HW154754  10.820   2.261  12.595 -0.4901  0.2871  0.8005
15262SOL    HW254755  10.683   2.228  12.540 -0.3656 -0.2605  0.8061
15263SOL     OW54756   0.248  10.156  11.429  0.4100 -0.0453 -0.2652
15263SOL    HW154757   0.229  10.168  11.522  1.3905 -1.2588  0.1262
15263SOL    HW254758   0.299  10.075  11.425  1.6316  0.7336 -1.7027
15264SOL     OW54759  10.003   9.339   0.581 -0.7226  0.5013 -0.0041
15264SOL    HW154760  10.017   9.246   0.600 -1.4955  0.3976  0.0666
15264SOL    HW254761  10.017   9.346   0.486  0.3451  0.5121  0.1334
15265SOL     OW54762  10.703  10.780   2.386  0.5087 -0.0971  0.3661
15265SOL    HW154763  10.761  10.811   2.316  0.9237  0.2958  0.8746
15265SOL    HW254764  10.714  10.685   2.385 -0.5587 -0.2520 -1.0196
15266SOL     OW54765   7.674  12.257  12.270  0.4461  0.0288 -0.0415
15266SOL    HW154766   7.631  12.339  12.246  0.9127  0.3260  0.1267
15266SOL    HW254767   7.661  12.249  12.365 -0.2611 -0.4829 -0.1722
15267SOL     OW54768   9.357   8.081   6.516 -0.9974  0.7852  0.3935
15267SOL    HW154769   9.358   8.104   6.609 -0.1702  0.5299  0.4622
15267SOL    HW254770   9.415   8.146   6.475 -1.0829  0.6855  0.1139
15268SOL     OW54771   3.664   5.649   3.576  0.8096  0.1446  0.3902
15268SOL    HW154772   3.750   5.692   3.571  0.5455  0.7789  1.1532
15268SOL    HW254773   3.676   5.566   3.530  1.0190  1.5113 -2.1785
15269SOL     OW54774  10.786   1.566   6.322 -0.4146 -0.0638 -0.3375
15269SOL    HW154775  10.775   1.479   6.361 -0.3409  0.4538  0.8901
15269SOL    HW254776  10.770   1.627   6.394 -0.8703  0.9576 -1.2754
15270SOL     OW54777   2.632   7.443  12.300  0.2675  0.2349 -0.4669
15270SOL    HW154778   2.640   7.533  12.267 -0.7123 -0.0022 -1.3844
15270SOL    HW254779   2.556   7.444  12.357  0.8910  0.2165  0.3917
15271SOL     OW54780   6.943   7.192  10.044 -0.0233 -0.0999 -0.3122
15271SOL    HW154781   6.928   7.202   9.950  1.6406  1.3926 -0.4800
15271SOL    HW254782   6.866   7.231  10.085 -0.7421 -0.7231 -1.0370
15272SOL     OW54783   1.699   9.083   7.931 -0.0777  0.5609  0.3480
15272SOL    HW154784   1.639   9.131   7.875 -0.9801  0.2454  1.0131
15272SOL    HW254785   1.733   9.012   7.875  0.0611  1.0354 -0.1732
15273SOL     OW54786  11.168   1.451   1.452 -0.6167 -0.2217  0.4004
15273SOL    HW154787  11.132   1.397   1.523 -2.2773  0.5820  0.2352
15273SOL    HW254788  11.229   1.394   1.406 -0.5795 -1.2014  1.6252
15274SOL     OW54789   1.790   5.750   1.871 -0.9296 -0.0841  0.8652
15274SOL    HW154790   1.804   5.789   1.957  0.5175  1.3277  0.0226
15274SOL    HW254791   1.822   5.660   1.880  0.2506  0.3831  1.5170
15275SOL     OW54792   3.644   7.141   1.837 -0.2286 -0.0443  0.5631
15275SOL    HW154793   3.589   7.063   1.840 -0.7820  0.3435  0.6579
15275SOL    HW254794   3.669   7.157   1.928 -1.7007  0.9853  0.8216
15276SOL     OW54795   4.160   6.279   3.004 -0.2828 -0.2219  0.3597
15276SOL    HW154796   4.076   6.298   2.961 -0.2128 -1.4763 -0.3593
15276SOL    HW254797   4.224   6.328   2.953 -0.6523  1.5513  1.5039
15277SOL     OW54798   3.481   5.617   1.355  0.0703  0.2005  0.1312
15277SOL    HW154799   3.450   5.686   1.296  0.6946  0.7689  0.4645
15277SOL    HW254800   3.560   5.583   1.312 -0.9364 -1.2148 -0.6935
15278SOL     OW54801   0.366   5.551   7.405 -0.0135 -0.0759 -0.0270
15278SOL    HW154802   0.453   5.590   7.398  0.3211 -0.6894  0.5337
15278SOL    HW254803   0.375   5.488   7.476 -0.9283 -0.1284  0.0429
15279SOL     OW54804   3.722  11.895   2.391 -0.2654  0.0884 -0.5006
15279SOL    HW154805   3.663  11.908   2.465 -1.0875 -1.2992 -0.8718
15279SOL    HW254806   3.706  11.969   2.333 -1.6422 -0.2556 -0.5864
15280SOL     OW54807   0.619  12.408  10.944  0.4736  0.7114 -0.1389
15280SOL    HW154808   0.691  12.450  10.990 -0.1660  1.6285  0.0533
15280SOL    HW254809   0.660  12.339  10.891  1.3223  0.3131  1.0212
15281SOL     OW54810  11.301   2.507   1.252 -0.2150  0.6693 -0.0176
15281SOL    HW154811  11.375   2.502   1.190  0.5005 -2.2057  0.9018
15281SOL    HW254812  11.342   2.526   1.336 -0.9000  2.0277  0.0244
15282SOL     OW54813   5.991   9.669   4.169  0.0693 -0.0326  0.2372
15282SOL    HW154814   5.988   9.630   4.082  0.2093 -0.4341  0.4104
15282SOL    HW254815   6.076   9.644   4.204  1.0779  2.2295 -0.4584
15283SOL     OW54816   9.955   3.334  11.166 -0.3034 -0.1084  0.0334
15283SOL    HW154817  10.046   3.358  11.151 -0.7471  0.4693 -2.0345
15283SOL    HW254818   9.914   3.415  11.198 -0.5864  0.3872 -1.4844
15284SOL     OW54819  10.005   0.063   2.173 -0.1776  0.2256  0.3937
15284SOL    HW154820   9.922   0.103   2.147 -1.5773 -1.0532  2.6011
15284SOL    HW254821   9.997   0.048   2.267  2.7522  0.4093  0.7928
15285SOL     OW54822   8.459   2.121  11.275  0.1653  0.4264 -0.1628
15285SOL    HW154823   8.512   2.046  11.303 -0.2423  0.8462  1.9698
15285SOL    HW254824   8.469   2.184  11.346 -1.3127  1.4650 -0.8319
15286SOL     OW54825   2.143   0.133   9.871  0.3022 -0.2829  0.7100
15286SOL    HW154826   2.092   0.142   9.951 -2.1871 -4.1436 -0.1687
15286SOL    HW254827   2.142   0.039   9.852  2.7385  0.1782 -2.6396
15287SOL     OW54828   6.478   7.464   6.062  0.0404 -0.5646  0.1150
15287SOL    HW154829   6.433   7.444   5.980 -0.0904 -2.2649  0.5620
15287SOL    HW254830   6.552   7.403   6.064  0.8520  0.4101  0.6214
15288SOL     OW54831   1.672   6.698   4.426 -0.2273 -0.4762 -0.5028
15288SOL    HW154832   1.580   6.696   4.402  0.2322 -1.2146 -2.3299
15288SOL    HW254833   1.693   6.791   4.435 -0.9485 -0.2695 -0.9161
15289SOL     OW54834  10.878   2.699   0.233 -0.0826  0.3471  0.2630
15289SOL    HW154835  10.785   2.684   0.252  0.1718 -0.6792  0.7617
15289SOL    HW254836  10.884   2.793   0.216 -1.0483  0.6019  1.2284
15290SOL     OW54837   9.922  12.523   0.130  0.1749  0.1172  0.2697
15290SOL    HW154838   9.876  12.573   0.062  0.3593 -0.5523 -0.3573
15290SOL    HW254839  10.002  12.492   0.087 -0.0717 -0.9579  0.5569
15291SOL     OW54840   0.009  11.719  11.367 -0.0763 -0.8034 -0.0584
15291SOL    HW154841   0.062  11.658  11.316 -1.2153 -0.4577 -1.7335
15291SOL    HW254842  -0.081  11.701  11.340 -0.5894  0.3345  0.8166
15292SOL     OW54843   0.256   1.630   9.944 -0.4037 -0.5823 -0.3892
15292SOL    HW154844   0.192   1.657  10.011 -0.7167 -2.0095 -0.0696
15292SOL    HW254845   0.217   1.658   9.861 -0.0137  1.2120 -0.0031
15293SOL     OW54846   5.948   4.176   7.692 -0.3459 -0.5917  0.0961
15293SOL    HW154847   5.878   4.113   7.680 -0.0375 -0.7966 -0.7085
15293SOL    HW254848   5.966   4.210   7.604  1.0770 -1.1149  0.1477
15294SOL     OW54849  10.158  11.624   0.381  0.0484  0.0419 -0.0405
15294SOL    HW154850  10.094  11.632   0.451  1.1077  2.0853  0.7760
15294SOL    HW254851  10.133  11.693   0.318  1.3423  0.8284  0.2640
15295SOL     OW54852   1.383   8.744   5.357 -0.3809  0.2371 -0.2453
15295SOL    HW154853   1.371   8.678   5.288 -0.5859  0.6353 -0.5942
15295SOL    HW254854   1.419   8.820   5.312  0.3176  0.2059  0.2397
15296SOL     OW54855   5.572   0.508   1.516  0.2498  0.0224  0.0241
15296SOL    HW154856   5.651   0.512   1.570  0.5451 -0.4093 -0.3678
15296SOL    HW254857   5.594   0.447   1.445 -1.0246 -1.6070  0.9365
15297SOL     OW54858   8.507  11.426   8.931  0.0590  0.1069 -0.2200
15297SOL    HW154859   8.461  11.510   8.932  0.3614  0.3041 -1.4647
15297SOL    HW254860   8.598  11.448   8.916 -0.0332 -0.4799 -1.8497
15298SOL     OW54861   6.234   9.549   4.243 -0.2533  0.0663 -0.2508
15298SOL    HW154862   6.205   9.479   4.302 -0.7825  0.9939  0.6230
15298SOL    HW254863   6.299   9.507   4.187 -0.0581 -0.9642  0.6953
15299SOL     OW54864   3.268  10.040  11.102  0.5305  0.0393 -0.4369
15299SOL    HW154865   3.267  10.122  11.053  1.4646  0.6135  0.4435
15299SOL    HW254866   3.267   9.971  11.035  0.3397  0.7720 -1.2044
15300SOL     OW54867  10.965   0.236   1.933  0.2532  0.3037 -0.1376
15300SOL    HW154868  10.912   0.276   2.002  1.9618  0.7162  0.9867
15300SOL    HW254869  11.055   0.242   1.965  0.9927 -0.4413 -1.9504
15301SOL     OW54870   6.254  11.466  10.648  0.2002 -0.4092 -0.0996
15301SOL    HW154871   6.241  11.500  10.560 -1.1692  0.7555  0.5150
15301SOL    HW254872   6.346  11.486  10.668 -0.1965  1.8239 -0.2641
15302SOL     OW54873   6.789  12.006   3.500  0.0871 -0.1677  0.3468
15302SOL    HW154874   6.860  12.051   3.546 -0.1879  2.8706 -1.9034
15302SOL    HW254875   6.709  12.038   3.541 -0.0729 -0.3009  0.1414
15303SOL     OW54876   4.687   6.101   3.914 -0.5055  0.0321 -0.8725
15303SOL    HW154877   4.720   6.043   3.846 -1.2983  0.3129 -1.5152
15303SOL    HW254878   4.748   6.091   3.986  0.1803 -0.5063 -1.5137
15304SOL     OW54879   6.186  12.401   9.003  0.0921  0.4466  0.2061
15304SOL    HW154880   6.115  12.360   8.953  0.1640  0.1552  0.3390
15304SOL    HW254881   6.162  12.387   9.094  0.1059  0.7245  0.2528
15305SOL     OW54882   7.560   0.569   3.115  0.7625  0.7204  0.4545
15305SOL    HW154883   7.499   0.495   3.120  0.7949  0.6737  0.1807
15305SOL    HW254884   7.646   0.528   3.104  0.7132  0.8034 -0.3241
15306SOL     OW54885   9.504   8.809  12.008  0.3680 -0.0958 -0.1170
15306SOL    HW154886   9.419   8.788  11.971  0.9020 -2.8585  0.0047
15306SOL    HW254887   9.566   8.794  11.937  0.9185 -0.1058  0.3550
15307SOL     OW54888  10.582   7.929  12.572 -0.4754  0.2071 -0.7657
15307SOL    HW154889  10.540   7.876  12.505  0.8196 -0.7029 -0.8812
15307SOL    HW254890  10.656   7.970  12.528  1.0693 -1.2767  0.3160
15308SOL     OW54891   1.999  10.489  10.845 -0.6345  0.1086 -0.3128
15308SOL    HW154892   2.061  10.486  10.772  0.3529  0.0818  0.5021
15308SOL    HW254893   2.003  10.402  10.884 -0.0254  0.5597  0.6652
15309SOL     OW54894  12.220   9.360   6.411  0.3299 -0.7220 -0.4139
15309SOL    HW154895  12.284   9.410   6.361 -0.7415 -0.5365 -1.6549
15309SOL    HW254896  12.270   9.285   6.444  1.7306  0.6362  0.6843
15310SOL     OW54897   5.154   7.540  10.151 -0.3330 -0.8220 -0.0814
15310SOL    HW154898   5.083   7.602  10.135 -0.7602 -1.4338 -0.6387
15310SOL    HW254899   5.109   7.456  10.162  0.3486 -1.3445 -1.2067
15311SOL     OW54900   5.195   9.061   9.018 -0.5775  0.7260  0.1451
15311SOL    HW154901   5.156   9.124   8.957  0.6991  1.6204  0.2082
15311SOL    HW254902   5.175   9.096   9.105 -0.5540  0.6107  0.1972
15312SOL     OW54903   9.289   0.519   5.870  0.0386 -0.3689 -0.3891
15312SOL    HW154904   9.345   0.451   5.908  2.3923  1.0879 -1.0067
15312SOL    HW254905   9.307   0.516   5.776  1.1871  1.8115 -0.3195
15313SOL     OW54906   2.781  11.690   2.127 -0.2701  0.0225 -0.3326
15313SOL    HW154907   2.821  11.696   2.041 -0.6866 -1.4608 -0.6604
15313SOL    HW254908   2.714  11.623   2.118 -0.8443  0.3850  0.9534
15314SOL     OW54909  11.770   1.318   6.502 -0.5258  0.4205  0.0110
15314SOL    HW154910  11.713   1.389   6.531  0.4988  0.4117  2.2660
15314SOL    HW254911  11.818   1.292   6.581  0.1342 -1.8525 -1.0560
15315SOL     OW54912   2.478  10.146   9.415 -0.0879  0.7725 -0.7857
15315SOL    HW154913   2.566  10.165   9.446  0.4626  0.1961 -1.9303
15315SOL    HW254914   2.423  10.214   9.455  0.9906  1.5987 -0.6542
15316SOL     OW54915   1.035   6.505   3.979 -0.2783 -0.2325 -0.4947
15316SOL    HW154916   1.020   6.415   3.952  1.7438 -0.1031 -2.3545
15316SOL    HW254917   1.131   6.513   3.983 -0.4227  1.7299 -0.0163
15317SOL     OW54918  10.057   9.525   2.169 -0.2581  0.5529 -0.4400
15317SOL    HW154919  10.073   9.614   2.201 -2.8364  1.3992 -1.2974
15317SOL    HW254920  10.107   9.469   2.229 -1.1024  2.3630  2.1176
15318SOL     OW54921   1.851   6.495   8.783  0.1855 -0.3400  0.1978
15318SOL    HW154922   1.916   6.534   8.842  0.7790 -0.1573 -0.5587
15318SOL    HW254923   1.767   6.522   8.819  0.4457 -1.7720  2.0385
15319SOL     OW54924   6.581   7.610   5.298  0.4420 -0.5362  0.2046
15319SOL    HW154925   6.613   7.586   5.211  1.2976 -2.3950  0.9724
15319SOL    HW254926   6.536   7.531   5.330  0.7249 -0.1228  1.6941
15320SOL     OW54927   5.212   3.107   8.564  0.8811 -0.2124 -0.1724
15320SOL    HW154928   5.199   3.195   8.600  1.8543 -0.3360  0.4907
15320SOL    HW254929   5.277   3.119   8.495  0.1072 -0.2226 -0.9241
15321SOL     OW54930   3.957   6.284   6.986  0.2432 -0.8886 -0.2424
15321SOL    HW154931   3.935   6.191   6.978 -0.0595 -0.7924 -0.5443
15321SOL    HW254932   3.872   6.328   6.984  0.4785 -0.4844 -1.7732
15322SOL     OW54933   2.387   4.610   0.882 -0.1007  0.9230  0.4829
15322SOL    HW154934   2.482   4.620   0.892  0.1145  1.0653 -1.2691
15322SOL    HW254935   2.361   4.686   0.830 -1.5674  2.0403  2.6936
15323SOL     OW54936   3.572   3.031   4.530 -0.1361 -0.0664 -0.6632
15323SOL    HW154937   3.663   3.035   4.559  0.0018 -0.8405 -0.9941
15323SOL    HW254938   3.567   2.955   4.473 -0.7091  0.6931 -1.6689
15324SOL     OW54939   9.460   2.013   6.936  0.1023  0.5748 -0.3857
15324SOL    HW154940   9.539   2.068   6.934  1.1803 -0.9499 -2.0616
15324SOL    HW254941   9.483   1.941   6.994 -1.1461  1.5383  1.4228
15325SOL     OW54942  11.244   6.526   0.847 -0.8483  0.0377  0.2567
15325SOL    HW154943  11.330   6.487   0.835  0.0460  1.5231  1.4229
15325SOL    HW254944  11.185   6.471   0.796  0.7595 -1.0994 -0.4588
15326SOL     OW54945  12.240   9.126   7.331  0.2592 -0.2452 -0.2575
15326SOL    HW154946  12.290   9.207   7.337 -0.9099  0.4644  0.5626
15326SOL    HW254947  12.176   9.132   7.403 -1.1014 -1.0177 -1.3501
15327SOL     OW54948  11.134   7.773   7.139 -0.5890 -0.1809 -0.1542
15327SOL    HW154949  11.226   7.763   7.161 -0.6876 -1.8736 -0.3618
15327SOL    HW254950  11.129   7.755   7.045 -1.2235 -0.8191 -0.0063
15328SOL     OW54951   9.127   1.992   0.247 -0.1914 -0.5872  0.9969
15328SOL    HW154952   9.188   2.038   0.189 -2.7765  1.8467 -0.0519
15328SOL    HW254953   9.180   1.964   0.321  2.1490  1.6439  0.3153
15329SOL     OW54954   3.192   5.273   1.043  0.1531  0.3148 -0.2288
15329SOL    HW154955   3.146   5.243   1.121 -0.7448  2.3770  0.1023
15329SOL    HW254956   3.285   5.271   1.067 -0.1897  3.7867  2.1160
15330SOL     OW54957   6.352   2.099   0.675 -0.1921  0.4953  0.1687
15330SOL    HW154958   6.259   2.087   0.690 -0.4019  0.7175 -0.8804
15330SOL    HW254959   6.382   2.014   0.642 -0.0130  0.4041  0.5669
15331SOL     OW54960   8.485   0.790  10.645  0.0125 -0.5123  0.2658
15331SOL    HW154961   8.546   0.809  10.574 -3.8110  1.8707 -2.7995
15331SOL    HW254962   8.454   0.701  10.626  0.8638 -0.8914  0.5760
15332SOL     OW54963   4.748   3.860   3.774 -0.1632 -0.6912  0.0766
15332SOL    HW154964   4.749   3.851   3.679  0.3748  0.2542 -0.0266
15332SOL    HW254965   4.829   3.818   3.803  0.7403  0.8340 -0.1053
15333SOL     OW54966   0.807   3.553  11.364  0.2351  0.1874  0.3467
15333SOL    HW154967   0.751   3.622  11.402  1.3245  0.9609  0.5904
15333SOL    HW254968   0.888   3.598  11.342  0.8527 -0.9720  0.2116
15334SOL     OW54969   4.525   3.230   4.895 -0.0263  0.0745 -0.5847
15334SOL    HW154970   4.572   3.192   4.821 -1.6320  0.6775 -1.9682
15334SOL    HW254971   4.475   3.303   4.858  0.0023  1.1343  1.3108
15335SOL     OW54972   6.716   0.685   9.751 -0.4656  0.3587  0.1499
15335SOL    HW154973   6.798   0.690   9.800 -0.4465  2.7484 -0.0390
15335SOL    HW254974   6.700   0.774   9.720 -3.2350  0.0234  0.3256
15336SOL     OW54975   0.141   2.723   3.626  0.1698  0.2748  0.2787
15336SOL    HW154976   0.223   2.679   3.649 -0.1376  0.4432  1.7636
15336SOL    HW254977   0.157   2.815   3.644  0.3109  0.6196 -1.4073
15337SOL     OW54978   3.633   8.157   2.152 -0.5089  0.1172  0.7693
15337SOL    HW154979   3.621   8.096   2.225 -0.0841 -1.1802 -0.1980
15337SOL    HW254980   3.727   8.174   2.149 -0.3778 -0.6476 -0.0689
15338SOL     OW54981   3.342   0.247  10.918  0.7695  0.5612 -0.1178
15338SOL    HW154982   3.305   0.170  10.960  1.2154 -0.1299 -0.9574
15338SOL    HW254983   3.430   0.219  10.891  0.9421  1.3679 -0.4110
15339SOL     OW54984  11.502   5.412  10.966  0.0432  0.1683  0.3707
15339SOL    HW154985  11.555   5.480  10.925  2.0404 -0.6295  1.4794
15339SOL    HW254986  11.484   5.446  11.054 -1.4528  0.4720 -0.0144
15340SOL     OW54987   9.102   2.510   7.237  0.6936  0.2757  0.2306
15340SOL    HW154988   9.110   2.424   7.280  0.8620  0.3365  0.3205
15340SOL    HW254989   9.119   2.491   7.144 -0.4550  0.0094  0.0617
15341SOL     OW54990   1.245   5.766   0.624 -0.1133  0.1757 -0.0509
15341SOL    HW154991   1.263   5.686   0.674 -0.7623  0.2468  0.3020
15341SOL    HW254992   1.150   5.771   0.621 -0.1118 -0.0348 -1.6286
15342SOL     OW54993   0.125   6.010   5.946 -0.1131  0.1708 -0.2143
15342SOL    HW154994   0.182   6.069   5.897  0.1367  0.7171  0.7006
15342SOL    HW254995   0.041   6.056   5.951 -0.1053  0.1698 -0.0493
15343SOL     OW54996   1.698  11.976   3.877  0.1524 -0.1072 -0.1677
15343SOL    HW154997   1.687  11.922   3.798 -1.2382  0.7862 -0.6367
15343SOL    HW254998   1.713  12.064   3.843 -0.9491  0.3736  0.5509
15344SOL     OW54999  12.277   1.648   0.905  0.0853  0.0041 -0.3203
15344SOL    HW155000  12.322   1.601   0.975 -1.9288 -0.0969  0.9989
15344SOL    HW255001  12.186   1.617   0.911 -0.8720  2.5090 -0.7435
15345SOL     OW55002   8.177   6.138  10.179 -0.6117  0.2986  0.1492
15345SOL    HW155003   8.228   6.073  10.130 -0.0190 -1.9071  3.3981
15345SOL    HW255004   8.205   6.222  10.143  1.3188 -1.0465 -1.7907
15346SOL     OW55005   8.189  11.300   9.737  0.1264  0.0091  0.1535
15346SOL    HW155006   8.107  11.324   9.780  0.5242 -1.0572  1.6096
15346SOL    HW255007   8.258  11.326   9.799  0.8227 -0.1907 -0.5109
15347SOL     OW55008   8.507   4.733   9.383 -0.4131 -0.7333 -0.4554
15347SOL    HW155009   8.584   4.732   9.440  0.6937 -0.3805 -1.8715
15347SOL    HW255010   8.488   4.641   9.367 -0.8253 -0.8365  0.5854
15348SOL     OW55011   6.244   6.709   8.717  0.0006 -0.3417  0.1189
15348SOL    HW155012   6.192   6.732   8.794  1.0330  1.2102  0.3881
15348SOL    HW255013   6.182   6.714   8.644 -1.0050 -1.9045  0.8072
15349SOL     OW55014   8.451   7.100   8.127  0.1750  0.2151  0.2839
15349SOL    HW155015   8.536   7.114   8.169 -0.0991 -1.6930  1.5973
15349SOL    HW255016   8.472   7.090   8.034  1.0534  2.3446  0.1968
15350SOL     OW55017   2.086   9.932   2.234  0.2569  1.0072  0.2312
15350SOL    HW155018   2.062   9.966   2.321  0.3027  0.2551  0.5402
15350SOL    HW255019   2.073  10.007   2.176 -0.2941  1.3722  0.8038
15351SOL     OW55020   2.694   5.213   8.671 -0.2220 -0.1952 -0.1903
15351SOL    HW155021   2.657   5.179   8.753  2.5641 -0.4178  1.0753
15351SOL    HW255022   2.656   5.301   8.662 -1.3460 -0.5524  0.7753
15352SOL     OW55023   1.517   2.015   8.162 -0.2582 -0.3090 -0.2181
15352SOL    HW155024   1.523   2.110   8.161 -0.3225 -0.1473  2.9180
15352SOL    HW255025   1.424   1.996   8.152 -0.9296  0.3339  3.3648
15353SOL     OW55026   8.693   3.353   6.972 -0.5282  0.8320  0.4308
15353SOL    HW155027   8.649   3.284   6.922 -1.0208  0.8151  0.8766
15353SOL    HW255028   8.622   3.394   7.022  0.0423  0.4405  1.5911
15354SOL     OW55029   2.726   9.847   1.272 -0.0506  0.3744  0.7123
15354SOL    HW155030   2.705   9.818   1.360 -1.1667  1.1686  0.7169
15354SOL    HW255031   2.690   9.935   1.265 -0.4020  0.1491 -0.6869
15355SOL     OW55032   8.887   5.577   8.118  0.5335 -0.1709  0.1090
15355SOL    HW155033   8.928   5.543   8.039  0.4148 -0.1618  0.0430
15355SOL    HW255034   8.795   5.548   8.112  0.5198 -0.1567  0.2344
15356SOL     OW55035   3.330   9.995   4.180 -0.4094  0.3808 -0.1423
15356SOL    HW155036   3.409  10.049   4.177  0.2654 -0.3737  1.9516
15356SOL    HW255037   3.298   9.993   4.090  2.4306  0.0144 -1.2269
15357SOL     OW55038  11.268   6.802   8.201  0.3386  0.1822  0.4253
15357SOL    HW155039  11.189   6.834   8.158 -0.2470 -0.0014  1.3416
15357SOL    HW255040  11.330   6.875   8.195 -0.3132  0.7767  0.7623
15358SOL     OW55041   8.001  12.106  10.168 -0.4540  0.0419  0.3585
15358SOL    HW155042   7.934  12.058  10.119  0.2272 -0.2060 -0.3523
15358SOL    HW255043   8.061  12.139  10.101 -0.0552  0.5553  0.9567
15359SOL     OW55044   6.861   7.447   5.268  0.0417 -0.4537 -0.2468
15359SOL    HW155045   6.868   7.421   5.176  0.9798 -1.0405 -0.0223
15359SOL    HW255046   6.791   7.392   5.303  1.1441 -1.8344 -0.0955
15360SOL     OW55047   2.961   8.398   0.293  0.3555 -0.4299  0.2595
15360SOL    HW155048   2.900   8.424   0.223 -0.2462 -0.8410  0.6251
15360SOL    HW255049   3.039   8.369   0.246  0.5066  0.6608 -0.2020
15361SOL     OW55050   8.516   0.389   9.194  0.4153 -0.3670 -0.1317
15361SOL    HW155051   8.561   0.460   9.239  0.1325 -0.8901  1.0361
15361SOL    HW255052   8.586   0.334   9.158  0.6897 -0.4762  0.5488
15362SOL     OW55053   0.862   1.658   6.032  0.0321  0.1245 -0.1625
15362SOL    HW155054   0.874   1.752   6.049 -0.6886  0.2132 -0.1049
15362SOL    HW255055   0.840   1.621   6.117 -1.1569  0.1638 -0.4230
15363SOL     OW55056  11.048  10.736   7.879 -0.8514  0.4437 -0.1728
15363SOL    HW155057  11.086  10.707   7.962 -0.6065  0.2732 -0.3408
15363SOL    HW255058  11.121  10.778   7.833 -1.1675  1.1980  0.0016
15364SOL     OW55059   4.604   2.691   6.093 -0.0082 -0.3468 -0.0941
15364SOL    HW155060   4.555   2.773   6.097  2.4943  1.2532 -0.0126
15364SOL    HW255061   4.608   2.660   6.183 -0.6692 -0.3656 -0.0723
15365SOL     OW55062   4.597   0.581   1.952  0.1838 -0.4936  0.4710
15365SOL    HW155063   4.636   0.501   1.916  0.6580 -0.0877  0.0527
15365SOL    HW255064   4.566   0.629   1.875 -0.1559 -0.3078  0.7222
15366SOL     OW55065   4.094   0.822  10.623  0.1723 -0.3282 -0.1822
15366SOL    HW155066   4.073   0.915  10.631 -1.7323 -0.7359  0.0934
15366SOL    HW255067   4.186   0.815  10.649  0.3538  1.4726 -0.2571
15367SOL     OW55068   8.285   0.935   1.948 -0.0863  0.5196 -0.1810
15367SOL    HW155069   8.208   0.941   2.005 -0.6900 -0.6352 -0.8288
15367SOL    HW255070   8.253   0.960   1.861  0.5378  1.1006 -0.2501
15368SOL     OW55071   2.003  11.817  12.099  0.1772 -0.0027  0.1123
15368SOL    HW155072   1.981  11.837  12.190 -3.2930 -1.9703 -0.1229
15368SOL    HW255073   2.063  11.743  12.104 -0.8188 -0.7950  0.8643
15369SOL     OW55074  11.844   1.671   4.682 -0.1386 -0.4211  0.4011
15369SOL    HW155075  11.925   1.657   4.731 -0.1936 -0.1770  0.5624
15369SOL    HW255076  11.796   1.589   4.691 -0.4549 -0.1435  1.3354
15370SOL     OW55077   8.322   4.728   2.008  0.2619 -0.0223 -0.0722
15370SOL    HW155078   8.408   4.751   2.042 -0.0078 -1.0592  1.3989
15370SOL    HW255079   8.272   4.809   2.012  1.1155  0.5684 -0.8510
15371SOL     OW55080  12.009   3.379   8.478 -0.1338 -0.6138  0.2754
15371SOL    HW155081  12.078   3.379   8.544 -0.2341  0.1879  0.3993
15371SOL    HW255082  11.959   3.459   8.496 -0.6524 -0.8056 -0.2667
15372SOL     OW55083   8.814   1.009  12.510 -0.2923  0.1949  0.4288
15372SOL    HW155084   8.752   1.028  12.439 -0.4661 -1.4500  0.1017
15372SOL    HW255085   8.900   1.023  12.471 -0.4078  0.1887  0.1644
15373SOL     OW55086   0.602   6.636   1.394 -0.3036 -0.1113  0.3786
15373SOL    HW155087   0.563   6.587   1.467  1.3068 -1.6246  0.3008
15373SOL    HW255088   0.642   6.712   1.436 -1.2654  0.1914  0.7649
15374SOL     OW55089  11.813  10.996   3.230 -0.8447  0.1319  0.3977
15374SOL    HW155090  11.833  11.085   3.259  0.4827 -0.1946  0.5393
15374SOL    HW255091  11.898  10.954   3.221 -1.4405 -1.0392  0.0327
15375SOL     OW55092   0.830   1.148   1.458  0.2082 -0.0864 -0.3326
15375SOL    HW155093   0.830   1.120   1.366 -1.0528 -0.6954 -0.1718
15375SOL    HW255094   0.845   1.068   1.508 -0.1449  0.0606  0.0196
15376SOL     OW55095   1.422   3.628   6.673  0.7155 -0.0231  0.1806
15376SOL    HW155096   1.381   3.698   6.722 -1.7612 -0.5686 -0.9600
15376SOL    HW255097   1.393   3.548   6.717  0.8246 -0.4160 -0.4500
15377SOL     OW55098   7.729   4.174   3.614 -0.0330  0.1667  0.3212
15377SOL    HW155099   7.719   4.136   3.701  0.4843  0.7828  0.6626
15377SOL    HW255100   7.796   4.242   3.625  1.1126 -0.7039 -0.8500
15378SOL     OW55101   5.679   0.749   1.387  0.1572 -0.4345 -0.0974
15378SOL    HW155102   5.625   0.817   1.346  0.6796 -1.0429 -1.9125
15378SOL    HW255103   5.618   0.678   1.407  0.1670 -1.0896 -2.0734
15379SOL     OW55104   5.498  11.465   6.360  0.1260  0.1410  0.0558
15379SOL    HW155105   5.466  11.454   6.270  1.6575 -0.3697 -0.4590
15379SOL    HW255106   5.586  11.427   6.359  1.5091  3.0265  0.9354
15380SOL     OW55107   3.418   1.382   0.402  0.7261 -0.3754  0.1631
15380SOL    HW155108   3.482   1.451   0.384 -0.2164  0.7867  1.0917
15380SOL    HW255109   3.390   1.352   0.316 -0.6170  2.1181 -0.3615
15381SOL     OW55110   1.832   2.969   2.252  0.2347  0.1983 -0.3516
15381SOL    HW155111   1.834   3.064   2.241  0.0141  0.0990 -1.3655
15381SOL    HW255112   1.820   2.935   2.163  1.2409 -0.8081 -0.1263
15382SOL     OW55113   5.938   3.571   8.547  0.1385  0.1153  0.2879
15382SOL    HW155114   5.991   3.577   8.626 -0.2137 -1.4718  0.6797
15382SOL    HW255115   5.930   3.661   8.517  1.8326  0.5500  1.0095
15383SOL     OW55116   0.661   5.572   0.842 -0.0054 -0.2626 -0.1628
15383SOL    HW155117   0.635   5.655   0.882  0.4212  0.3014 -1.0272
15383SOL    HW255118   0.755   5.566   0.859 -0.2919 -1.3298  1.2212
15384SOL     OW55119   8.460   2.354   6.150  0.5915 -0.2855 -0.3989
15384SOL    HW155120   8.482   2.322   6.237  0.3038 -0.0538 -0.2372
15384SOL    HW255121   8.379   2.403   6.163  1.3581  1.0554 -0.5174
15385SOL     OW55122   6.246  10.004   0.536 -0.2682 -0.2813 -0.2656
15385SOL    HW155123   6.203  10.088   0.521 -1.9048 -0.6700  1.8492
15385SOL    HW255124   6.175   9.940   0.540  0.8668 -1.6290 -0.8675
15386SOL     OW55125   7.163   9.370  10.707 -0.0325 -0.3720  0.0301
15386SOL    HW155126   7.143   9.347  10.616 -0.2773 -0.1399  0.0240
15386SOL    HW255127   7.249   9.333  10.723 -1.0315 -2.6716  0.5088
15387SOL     OW55128   2.004   4.917   3.490 -0.2050 -0.2824 -0.6900
15387SOL    HW155129   1.993   4.995   3.436  2.2029 -0.7701 -2.0245
15387SOL    HW255130   2.023   4.847   3.427 -2.2604 -1.9893  0.4633
15388SOL     OW55131  10.576   7.605  10.866  0.4053 -0.1643 -0.5911
15388SOL    HW155132  10.573   7.519  10.906  2.6834 -1.0549 -2.1704
15388SOL    HW255133  10.603   7.664  10.937 -0.4285 -0.8428  0.3093
15389SOL     OW55134   9.947   2.803   8.974 -0.1992 -0.3041  0.3599
15389SOL    HW155135  10.025   2.747   8.971 -1.2286 -1.8680  1.3928
15389SOL    HW255136   9.982   2.892   8.977  1.5004 -0.8458 -1.3753
15390SOL     OW55137   5.014  10.575   5.308  0.2605  0.0418 -0.5479
15390SOL    HW155138   5.045  10.587   5.398 -1.7518  0.3015  0.1660
15390SOL    HW255139   5.090  10.540   5.261  1.3142 -0.2740  1.2761
15391SOL     OW55140  11.340  10.112   1.488  0.3949  0.2548 -0.8029
15391SOL    HW155141  11.430  10.142   1.491 -0.5685  3.4216  0.4828
15391SOL    HW255142  11.316  10.095   1.579 -0.4834  0.1599 -1.0358
15392SOL     OW55143   7.774   4.442   5.234  0.7622 -0.0516 -0.2296
15392SOL    HW155144   7.704   4.410   5.177 -0.0184  0.5022  0.4007
15392SOL    HW255145   7.764   4.537   5.235  0.0689 -0.0947  1.6701
15393SOL     OW55146   9.760   7.286  11.373 -0.0519 -0.1085  0.1138
15393SOL    HW155147   9.757   7.299  11.278 -0.1261  0.6551  0.2127
15393SOL    HW255148   9.826   7.218  11.387 -1.4103 -1.6322 -0.6195
15394SOL     OW55149  11.351   6.153   0.746 -0.5295  0.0878  0.3588
15394SOL    HW155150  11.341   6.123   0.656 -0.6843  2.9049 -0.6727
15394SOL    HW255151  11.440   6.129   0.770 -0.6280 -1.0612 -0.3640
15395SOL     OW55152   3.169   0.728  12.414  0.5558  0.5010 -0.0338
15395SOL    HW155153   3.213   0.741  12.330  0.1214  2.3169 -0.0225
15395SOL    HW255154   3.079   0.703  12.390  0.8826 -0.7211 -0.0676
15396SOL     OW55155   5.802   5.644   7.402 -0.2541  0.0416  0.3962
15396SOL    HW155156   5.792   5.730   7.361 -0.6198  0.3423  1.1099
15396SOL    HW255157   5.822   5.663   7.493 -1.1758 -0.6374  0.7447
15397SOL     OW55158   3.653   2.353   0.551  0.0262  0.0084  0.4014
15397SOL    HW155159   3.570   2.322   0.587 -1.3310  2.5848 -0.2479
15397SOL    HW255160   3.693   2.403   0.622  0.6872 -0.5609  0.4506
15398SOL     OW55161  10.454   2.606   2.886  0.3625  0.1816  0.3646
15398SOL    HW155162  10.431   2.623   2.977  0.9246 -1.5517  0.8713
15398SOL    HW255163  10.518   2.535   2.890 -1.0622 -1.3301 -1.4537
15399SOL     OW55164   9.991   0.274   1.794 -0.5043 -0.2707 -0.2055
15399SOL    HW155165   9.960   0.355   1.753 -1.0655  0.3721  1.3803
15399SOL    HW255166   9.931   0.207   1.763 -1.9821  0.5079  0.8498
15400SOL     OW55167  10.164  10.979  10.757 -0.0976  0.2473 -0.9583
15400SOL    HW155168  10.077  10.965  10.794  0.4770 -0.3407  0.1990
15400SOL    HW255169  10.213  11.024  10.825  1.4696 -2.3185 -0.2657
15401SOL     OW55170  10.148   7.048   0.636 -0.1386  0.1536 -0.2083
15401SOL    HW155171  10.080   7.054   0.569  0.1251 -1.9096 -0.7322
15401SOL    HW255172  10.216   6.992   0.597 -0.2950 -1.7353  1.9777
15402SOL     OW55173   8.063  11.436   4.630 -0.5221 -0.0519  0.4205
15402SOL    HW155174   8.106  11.520   4.615 -2.0661  0.4473 -1.6019
15402SOL    HW255175   8.107  11.400   4.707  1.4576  1.7345  0.2174
15403SOL     OW55176   9.320   9.984   5.273 -0.4215  0.3499 -0.3146
15403SOL    HW155177   9.317   9.996   5.178 -1.3208  1.8099 -0.1378
15403SOL    HW255178   9.232   9.953   5.296  0.2913 -1.6747 -0.1161
15404SOL     OW55179   5.580  11.442   4.919  0.4884  0.1020 -0.0597
15404SOL    HW155180   5.626  11.504   4.977  0.7574  0.4258 -0.6098
15404SOL    HW255181   5.623  11.453   4.834  0.2261 -0.5128 -0.2738
15405SOL     OW55182  11.835  12.130  10.799  0.1518 -0.2841 -0.2769
15405SOL    HW155183  11.930  12.141  10.804  0.1742 -0.2249 -0.8074
15405SOL    HW255184  11.800  12.218  10.810  0.1612 -0.2881 -0.2122
15406SOL     OW55185   9.635   8.172   2.680 -0.1286 -0.5098  0.1179
15406SOL    HW155186   9.600   8.107   2.741  1.5793 -1.5847  0.0156
15406SOL    HW255187   9.609   8.140   2.593 -0.8473 -0.0554  0.1588
15407SOL     OW55188   5.906   6.688  11.518  0.0571  0.5610 -0.7900
15407SOL    HW155189   6.000   6.681  11.532 -0.0588 -3.9930 -0.7237
15407SOL    HW255190   5.896   6.696  11.423  0.4551  2.0896 -0.7252
15408SOL     OW55191   1.847   3.167   3.683  0.2918  1.0032 -0.6214
15408SOL    HW155192   1.825   3.096   3.623  1.7408 -0.0252 -0.0076
15408SOL    HW255193   1.877   3.238   3.627  1.2936  0.1812 -1.1637
15409SOL     OW55194  11.739   7.377   2.586 -0.0366  0.3652 -0.3401
15409SOL    HW155195  11.803   7.425   2.639 -0.5497  0.3501  0.3018
15409SOL    HW255196  11.779   7.292   2.571 -1.2006 -0.8790  2.8055
15410SOL     OW55197   8.170   9.974   2.360  0.5017  0.2193  0.3702
15410SOL    HW155198   8.260  10.004   2.354  0.5501 -0.0803 -0.4597
15410SOL    HW255199   8.171   9.886   2.321 -0.9091  1.7969 -3.8008
15411SOL     OW55200   5.830  10.451   7.862  0.0237 -0.1478 -0.4293
15411SOL    HW155201   5.817  10.426   7.771  0.3322 -2.0800  0.0092
15411SOL    HW255202   5.924  10.437   7.877  0.2802  1.6070 -0.1936
15412SOL     OW55203   7.843   2.526   6.749 -0.0185  0.0477 -0.4885
15412SOL    HW155204   7.793   2.567   6.820 -2.1797  1.8359 -2.8610
15412SOL    HW255205   7.798   2.442   6.734 -0.1709  0.1078 -0.3706
15413SOL     OW55206   3.697   0.012  10.926 -0.1035 -0.5394 -0.8575
15413SOL    HW155207   3.756  -0.061  10.941 -1.4404 -1.3123  0.8834
15413SOL    HW255208   3.749   0.090  10.948  0.8449 -1.0401 -1.2565
15414SOL     OW55209   9.222   9.597   4.121  0.4239  0.2821  0.5230
15414SOL    HW155210   9.276   9.526   4.087 -0.2521  0.3403 -0.7392
15414SOL    HW255211   9.161   9.554   4.182  0.6743 -0.0620  0.5306
15415SOL     OW55212   9.792   2.819  11.727 -0.5102 -0.3442 -0.7069
15415SOL    HW155213   9.783   2.896  11.671 -1.0883  0.8401  0.9276
15415SOL    HW255214   9.722   2.761  11.701 -0.9866  0.3454 -0.9891
15416SOL     OW55215   3.343  12.240  11.531 -0.4871 -0.4218  0.5176
15416SOL    HW155216   3.290  12.164  11.511  0.6700 -2.1875  3.5299
15416SOL    HW255217   3.431  12.217  11.500 -0.3843  0.1840  0.3508
15417SOL     OW55218   4.820   1.871   1.964 -0.3466 -0.0070  0.2705
15417SOL    HW155219   4.909   1.840   1.981 -0.5720 -0.4516  0.6734
15417SOL    HW255220   4.829   1.930   1.889  0.1287 -0.9283 -0.4230
15418SOL     OW55221   2.396   3.235   3.996 -0.2864  0.2649  0.1134
15418SOL    HW155222   2.380   3.328   3.977 -1.9313  0.1413  0.7320
15418SOL    HW255223   2.438   3.235   4.082 -1.9965  0.3810  0.9785
15419SOL     OW55224   9.138   3.632   6.970  0.2683  0.1818  0.0831
15419SOL    HW155225   9.135   3.725   6.948 -0.0447 -0.0402 -0.8561
15419SOL    HW255226   9.188   3.629   7.051  0.5542  1.1417 -0.0364
15420SOL     OW55227   4.928  10.765   9.899  0.0161  0.2518  0.0319
15420SOL    HW155228   5.009  10.810   9.920  0.2285 -0.1389  0.0617
15420SOL    HW255229   4.948  10.672   9.913 -0.0308  0.0256 -1.2619
15421SOL     OW55230   8.299   5.090  10.109  0.4353 -0.1026 -0.0827
15421SOL    HW155231   8.237   5.159  10.133 -0.2701 -1.1192  1.1089
15421SOL    HW255232   8.385   5.133  10.111 -0.0667  0.9291 -0.1707
15422SOL     OW55233   1.606   0.255   2.849  0.3712  0.2800 -0.0360
15422SOL    HW155234   1.603   0.235   2.943  0.7304 -0.7431 -0.2337
15422SOL    HW255235   1.514   0.252   2.822  0.1184  1.9624  0.5461
15423SOL     OW55236   4.026   7.582   0.586  0.1016  0.0440 -0.9445
15423SOL    HW155237   4.043   7.676   0.595 -0.6210  0.2724 -1.8845
15423SOL    HW255238   4.058   7.545   0.668  1.3242  0.9747 -0.9557
15424SOL     OW55239   9.727   1.105  11.535 -0.5487 -0.0749  0.2796
15424SOL    HW155240   9.782   1.036  11.572 -0.5234  0.3080  0.9755
15424SOL    HW255241   9.688   1.065  11.458  0.4427 -0.4634 -0.0430
15425SOL     OW55242   8.614   6.916   1.592 -0.2613  0.0843  0.4043
15425SOL    HW155243   8.546   6.875   1.646 -0.3958  1.3807  1.2456
15425SOL    HW255244   8.620   6.860   1.515 -2.9411  0.4275 -0.1292
15426SOL     OW55245   7.793   9.662   1.277 -0.2407 -0.2184 -0.3909
15426SOL    HW155246   7.820   9.687   1.365  1.0919  2.4726 -1.4647
15426SOL    HW255247   7.866   9.610   1.243 -0.9073 -1.5616  0.1563
15427SOL     OW55248   9.250   5.440   0.581  0.0920 -0.0990 -0.4614
15427SOL    HW155249   9.175   5.421   0.525  0.7230  1.5139 -1.9441
15427SOL    HW255250   9.326   5.439   0.523  1.3892 -2.2736  1.1071
15428SOL     OW55251   9.134  11.047   5.510 -0.2292 -0.1296  0.4817
15428SOL    HW155252   9.137  11.088   5.424 -1.9865  0.8197  0.8270
15428SOL    HW255253   9.045  11.061   5.541  0.5213  0.2015  2.7658
15429SOL     OW55254   4.705  10.196   6.867 -0.0811 -0.3635  0.4571
15429SOL    HW155255   4.742  10.184   6.779 -1.6552  1.5386 -0.5514
15429SOL    HW255256   4.755  10.136   6.922  1.0230 -1.5834 -1.7106
15430SOL     OW55257   7.352   6.292   4.428  0.1766 -1.0262 -0.1005
15430SOL    HW155258   7.438   6.264   4.398  1.2318  1.5425  0.3692
15430SOL    HW255259   7.367   6.328   4.515 -1.5493 -1.2806  0.3459
15431SOL     OW55260  11.099   1.819   8.724  0.2846 -0.5068  0.2595
15431SOL    HW155261  11.157   1.844   8.796  1.7951 -1.5625 -0.5201
15431SOL    HW255262  11.128   1.731   8.699 -2.1441 -1.3696  0.2448
15432SOL     OW55263  10.039  11.429   7.450  0.3726  0.1806 -0.0737
15432SOL    HW155264   9.975  11.366   7.482 -1.7797  0.6714 -3.0070
15432SOL    HW255265  10.119  11.378   7.436 -0.0861 -0.9792  1.3053
15433SOL     OW55266   1.677   5.026  10.628 -0.0559  0.2447 -0.4450
15433SOL    HW155267   1.695   5.028  10.534  0.5534  1.6663 -0.3203
15433SOL    HW255268   1.602   5.085  10.638 -0.7869 -0.7173 -0.1592
15434SOL     OW55269   7.522  11.706   9.165 -0.1039 -0.0661 -0.1866
15434SOL    HW155270   7.604  11.660   9.181 -0.8344 -0.8494  1.5231
15434SOL    HW255271   7.466  11.642   9.122  0.5440  0.8553 -2.5569
15435SOL     OW55272   8.891   1.895  11.407 -0.7278  0.3918 -0.5148
15435SOL    HW155273   8.908   1.932  11.494  3.1891 -0.2970 -0.7984
15435SOL    HW255274   8.865   1.805  11.424  1.0954 -0.0860  0.0303
15436SOL     OW55275   6.941   4.860  12.506 -0.1164 -0.2952 -0.3429
15436SOL    HW155276   6.958   4.954  12.500 -1.3332  0.1059  1.7804
15436SOL    HW255277   7.014   4.826  12.556 -0.9432 -0.0179  1.1085
15437SOL     OW55278   0.476   5.760   3.767 -0.3540 -0.4351 -0.3554
15437SOL    HW155279   0.459   5.721   3.852 -0.6590  2.1126  0.8385
15437SOL    HW255280   0.553   5.815   3.780  0.5090 -1.1108 -2.1495
15438SOL     OW55281   5.382  11.534   8.678  0.1967 -0.4938 -0.3797
15438SOL    HW155282   5.409  11.553   8.588  1.5453  1.7446  0.3903
15438SOL    HW255283   5.455  11.485   8.716  0.3424 -0.0534 -0.0797
15439SOL     OW55284   3.483   4.546  11.129  0.2231  0.0021 -0.6096
15439SOL    HW155285   3.423   4.595  11.072  1.0577 -0.5347 -1.9973
15439SOL    HW255286   3.511   4.472  11.076  1.1876 -0.4214  0.4546
15440SOL     OW55287  10.355  11.119   4.248  0.5973  0.4757 -0.3872
15440SOL    HW155288  10.280  11.172   4.276  0.4724  0.5702 -0.8826
15440SOL    HW255289  10.421  11.183   4.222  1.5480  0.4332  1.7297
15441SOL     OW55290   3.506   2.118   6.433 -0.6222 -0.1524 -0.1013
15441SOL    HW155291   3.546   2.047   6.384  0.6452  0.0024  0.6720
15441SOL    HW255292   3.496   2.189   6.370 -0.7040 -0.5636 -0.5595
15442SOL     OW55293  12.371   8.458   9.127 -0.2037 -0.4118 -0.0392
15442SOL    HW155294  12.358   8.394   9.197 -1.1093  0.6768  0.8308
15442SOL    HW255295  12.462   8.486   9.136 -0.3083 -0.2958  0.6917
15443SOL     OW55296   3.243  10.803   0.017  0.4624  0.1730 -0.0050
15443SOL    HW155297   3.148  10.804   0.001  0.4784  3.5564 -0.7154
15443SOL    HW255298   3.272  10.720  -0.019 -2.0330 -0.1920 -1.4555
15444SOL     OW55299   7.352   1.755   3.204 -0.2484  0.2094  0.5589
15444SOL    HW155300   7.441   1.747   3.170 -1.0583 -0.5714 -1.5399
15444SOL    HW255301   7.347   1.691   3.275  0.5740 -0.5447 -0.0370
15445SOL     OW55302  10.594  12.566   2.926  0.2783  0.3680 -0.3745
15445SOL    HW155303  10.532  12.549   2.997  0.3729  0.4401 -0.2728
15445SOL    HW255304  10.599  12.661   2.921 -0.8695  0.3907 -1.4875
15446SOL     OW55305   8.468  11.214   2.011 -0.6697 -0.0378  0.3608
15446SOL    HW155306   8.522  11.151   1.963 -1.6382  0.0918 -0.9427
15446SOL    HW255307   8.518  11.296   2.009  0.1466 -0.4916  1.2244
15447SOL     OW55308   8.050   8.505  10.295  0.4268  0.7289  0.6460
15447SOL    HW155309   8.126   8.491  10.238  0.8523 -0.9902  1.5734
15447SOL    HW255310   7.994   8.564  10.246  1.0556 -0.2230 -1.3000
15448SOL     OW55311   2.577   9.276   8.432  0.2363  0.3239 -0.2207
15448SOL    HW155312   2.496   9.245   8.473  0.3081 -0.0766 -0.3765
15448SOL    HW255313   2.569   9.371   8.434  0.5467  0.3491  1.3558
15449SOL     OW55314  11.123   2.230   4.408  0.3699 -1.3836 -0.0221
15449SOL    HW155315  11.074   2.282   4.345  0.5098 -0.3171  0.7191
15449SOL    HW255316  11.108   2.139   4.381  1.8785 -0.9538 -2.6615
15450SOL     OW55317  11.398   6.225   6.800  0.3304  0.1902 -0.6146
15450SOL    HW155318  11.325   6.169   6.828 -1.1772  2.2418 -0.1323
15450SOL    HW255319  11.392   6.302   6.858  0.4446  2.1585 -3.0496
15451SOL     OW55320   0.356  10.418   9.965  0.2712  0.2156 -0.0467
15451SOL    HW155321   0.432  10.409  10.022  0.6825  0.1558 -0.6030
15451SOL    HW255322   0.368  10.503   9.923  0.3398 -0.0569 -0.5839
15452SOL     OW55323   5.018  11.095   8.383  0.4615 -0.8034 -0.3173
15452SOL    HW155324   5.020  11.009   8.424  2.3888  0.3571  2.2896
15452SOL    HW255325   5.109  11.127   8.389  0.0090  1.0613 -2.0629
15453SOL     OW55326  10.944   9.285   6.635 -0.5121 -0.1710 -0.0236
15453SOL    HW155327  10.904   9.198   6.642 -1.0957  0.0682 -0.2644
15453SOL    HW255328  10.876   9.339   6.594 -0.4544  0.5866  0.8339
15454SOL     OW55329   9.669   5.820   3.923 -0.1582  0.5348 -0.7874
15454SOL    HW155330   9.592   5.840   3.976 -0.6814 -0.1193 -1.2869
15454SOL    HW255331   9.739   5.872   3.962 -0.9191  1.3796 -0.5238
15455SOL     OW55332   1.873   5.173   3.907 -0.1861  0.0547 -0.3265
15455SOL    HW155333   1.947   5.222   3.942  0.1770 -0.6723 -0.0649
15455SOL    HW255334   1.838   5.125   3.982 -1.5548  1.1436 -0.2148
15456SOL     OW55335   5.171   1.734   7.841  0.2717  0.1033 -0.0806
15456SOL    HW155336   5.222   1.674   7.787  2.1761  1.5019  0.0607
15456SOL    HW255337   5.208   1.820   7.823 -0.8955  0.9617  1.3718
15457SOL     OW55338   1.062  12.098   3.522 -0.6370  0.4121 -0.1829
15457SOL    HW155339   1.041  12.025   3.580 -0.4452  0.7472  0.3173
15457SOL    HW255340   0.982  12.112   3.470 -0.4629 -0.5571 -0.7357
15458SOL     OW55341   8.071   1.774   6.683  0.2507 -0.2348  0.3850
15458SOL    HW155342   8.163   1.798   6.699  0.3704  0.1128 -0.7584
15458SOL    HW255343   8.064   1.685   6.718  1.4328 -0.8530 -0.8562
15459SOL     OW55344   4.948   4.679   8.935  0.3711  0.4347  0.2929
15459SOL    HW155345   4.973   4.714   8.849 -1.6278 -0.2846 -0.6323
15459SOL    HW255346   4.864   4.720   8.954  0.3682 -0.1090  1.4994
15460SOL     OW55347   8.308  11.259   4.088 -0.4549  0.0952 -0.8431
15460SOL    HW155348   8.294  11.264   4.183 -0.4373  2.1271 -0.8969
15460SOL    HW255349   8.226  11.224   4.053  0.1112 -2.2389  0.0089
15461SOL     OW55350  10.501  10.633   9.680  0.0760  0.1217 -0.3374
15461SOL    HW155351  10.536  10.661   9.765 -1.4198 -2.6365  1.3476
15461SOL    HW255352  10.542  10.548   9.664 -3.3704 -1.8657  0.3045
15462SOL     OW55353  11.967   0.604   7.875  0.5853 -0.0206  0.2771
15462SOL    HW155354  11.953   0.694   7.904  0.4759  0.1191 -0.1940
15462SOL    HW255355  12.004   0.613   7.787  0.0075 -0.4396 -0.0158
15463SOL     OW55356   8.486   8.692   4.129  0.0227 -0.4949 -0.7143
15463SOL    HW155357   8.439   8.628   4.076 -2.5463 -0.1900  1.0340
15463SOL    HW255358   8.458   8.777   4.094  0.4311 -0.3104 -0.5980
15464SOL     OW55359   9.863  11.503   9.077 -0.1135 -0.3870 -0.0286
15464SOL    HW155360   9.924  11.523   9.006  0.6063  0.1735  0.7251
15464SOL    HW255361   9.782  11.549   9.054  0.7286  1.4115  0.4467
15465SOL     OW55362   4.587   3.544   0.084  0.6872 -0.1224 -0.0744
15465SOL    HW155363   4.670   3.499   0.100  1.6905  1.5043 -0.5034
15465SOL    HW255364   4.586   3.560  -0.010  0.5394  1.0332  0.1072
15466SOL     OW55365   6.918  10.422   8.916  0.8239  0.1207 -0.3237
15466SOL    HW155366   6.975  10.359   8.961 -1.5296  0.0157  2.8039
15466SOL    HW255367   6.857  10.367   8.866 -2.1985 -0.4788  3.5794
15467SOL     OW55368   8.983   0.736   6.201 -0.5465  0.3950  0.3561
15467SOL    HW155369   8.975   0.813   6.257 -2.7236  0.9166 -0.5636
15467SOL    HW255370   8.960   0.766   6.114 -0.7754 -1.1475 -0.1591
15468SOL     OW55371  11.793   5.541  12.048  0.2401  0.2223  0.1377
15468SOL    HW155372  11.858   5.611  12.050  0.7322 -0.2356  0.4848
15468SOL    HW255373  11.826   5.480  11.982  1.2599 -1.0168  1.6967
15469SOL     OW55374   0.511   9.951   6.403 -0.0256  0.3496  0.5499
15469SOL    HW155375   0.514   9.895   6.480 -0.5826 -0.0771  0.2659
15469SOL    HW255376   0.473   9.896   6.334  0.6559  0.6508 -0.0931
15470SOL     OW55377   8.413  10.518   6.404  0.1978 -0.0558 -0.1272
15470SOL    HW155378   8.430  10.520   6.309  1.0687 -0.7844 -0.0097
15470SOL    HW255379   8.378  10.430   6.419  0.1395  0.0312  0.2377
15471SOL     OW55380   8.157   1.079   3.242 -0.2972 -0.2066 -0.3095
15471SOL    HW155381   8.176   1.044   3.329 -0.4264 -0.2139 -0.2840
15471SOL    HW255382   8.138   1.001   3.189  1.7388 -0.3872 -0.8526
15472SOL     OW55383   1.959  11.753  10.391  0.1504  0.3233 -0.0928
15472SOL    HW155384   1.894  11.823  10.390 -0.0300  0.1628  0.1885
15472SOL    HW255385   2.016  11.774  10.464 -1.0061 -0.7996  1.1913
15473SOL     OW55386  11.303  11.036  11.241  0.0751 -0.5332  0.1433
15473SOL    HW155387  11.319  11.090  11.318 -1.9974 -0.1076  0.3511
15473SOL    HW255388  11.342  11.086  11.169 -1.1046  0.9061  0.4442
15474SOL     OW55389   2.221   1.432  10.554 -0.3019  0.5812 -0.4151
15474SOL    HW155390   2.184   1.343  10.555  0.5290  0.2276 -0.3991
15474SOL    HW255391   2.306   1.423  10.597  2.2923  0.2275 -4.9759
15475SOL     OW55392   5.409   3.736   7.243  0.6430 -0.1165  0.4195
15475SOL    HW155393   5.360   3.695   7.314  0.1297  0.5902  0.4740
15475SOL    HW255394   5.497   3.748   7.278  0.2382  0.7675  1.1478
15476SOL     OW55395   4.751  10.673   8.166 -0.2063 -0.0898 -1.1260
15476SOL    HW155396   4.658  10.658   8.148 -0.6483  1.1124 -0.0680
15476SOL    HW255397   4.766  10.762   8.134  0.1135  0.3849  0.2936
15477SOL     OW55398   8.459   3.537   5.248 -0.1035  0.3493  0.5507
15477SOL    HW155399   8.416   3.457   5.277  1.3015 -0.3226  0.8132
15477SOL    HW255400   8.404   3.607   5.284 -1.5258 -0.4586  0.0488
15478SOL     OW55401  12.539   9.072  11.433  0.5973 -0.1676 -0.3024
15478SOL    HW155402  12.613   9.082  11.493  1.0244 -0.7687 -0.7214
15478SOL    HW255403  12.539   9.153  11.382  1.1038 -0.2615 -0.4522
15479SOL     OW55404   0.201   6.456   0.019  0.2289  0.0195 -0.6601
15479SOL    HW155405   0.258   6.381   0.036 -0.1715 -0.2685 -0.5845
15479SOL    HW255406   0.250   6.509  -0.043 -0.6933 -1.7609 -3.0651
15480SOL     OW55407   7.368   4.019   5.300 -0.2548 -0.4807 -0.1982
15480SOL    HW155408   7.306   3.954   5.334 -0.5749 -0.2159 -0.2719
15480SOL    HW255409   7.452   3.973   5.298 -0.7461 -1.3868 -1.6844
15481SOL     OW55410   4.583   8.032   3.253  0.1250  0.4184 -0.8058
15481SOL    HW155411   4.661   8.081   3.278 -1.0381  1.5021  0.9457
15481SOL    HW255412   4.586   7.953   3.307  0.4377  0.0383 -1.3737
15482SOL     OW55413   0.140   6.373   9.612 -0.1876  0.0883  0.2024
15482SOL    HW155414   0.165   6.323   9.534  1.1755  1.0986 -0.0637
15482SOL    HW255415   0.057   6.415   9.589  0.8304  1.4393 -1.2787
15483SOL     OW55416   8.902   6.013   7.485 -0.3618 -0.1354  0.2567
15483SOL    HW155417   8.831   5.979   7.539 -1.0325 -1.2512 -1.2645
15483SOL    HW255418   8.981   5.975   7.523 -0.8647 -1.2889  0.1914
15484SOL     OW55419   1.888   5.191   1.810  0.2695  0.1329  0.1781
15484SOL    HW155420   1.882   5.280   1.844 -1.5363  0.0620  0.1545
15484SOL    HW255421   1.898   5.202   1.716  0.7352  0.3154  0.2485
15485SOL     OW55422   6.814   2.660   5.961 -0.0277  0.3252 -0.8513
15485SOL    HW155423   6.763   2.612   6.026  0.7813  0.5764 -0.0019
15485SOL    HW255424   6.815   2.750   5.995 -1.6434  1.0305 -2.4795
15486SOL     OW55425   3.502  11.681   5.375 -0.0202 -0.0734  0.1273
15486SOL    HW155426   3.457  11.677   5.459  0.9756  0.6209  0.7116
15486SOL    HW255427   3.452  11.622   5.318 -1.9802  1.0813  0.5794
15487SOL     OW55428   3.416   9.171   7.654 -0.4709 -0.0202  0.7741
15487SOL    HW155429   3.494   9.139   7.699 -0.0071  0.1595  0.1206
15487SOL    HW255430   3.345   9.117   7.688 -0.2427  0.4918  2.1529
15488SOL     OW55431   4.288  10.882  10.417  0.1649 -0.1639  0.1798
15488SOL    HW155432   4.210  10.937  10.426  0.4305  0.1400  0.6492
15488SOL    HW255433   4.357  10.942  10.388  0.8174  0.0618  2.0965
15489SOL     OW55434   7.128   9.802  11.712 -0.2340 -0.1752 -0.3975
15489SOL    HW155435   7.140   9.839  11.799  1.2516 -0.3652 -0.4985
15489SOL    HW255436   7.176   9.861  11.654 -0.5644 -0.4740 -0.9849
15490SOL     OW55437   9.077   4.097  12.171 -0.1068 -0.0223 -0.3839
15490SOL    HW155438   9.166   4.131  12.170 -0.3060  0.6638  1.5663
15490SOL    HW255439   9.065   4.065  12.260 -1.7476 -0.3002 -0.6826
15491SOL     OW55440   0.768   4.093   7.770  0.3709  0.1850 -0.0314
15491SOL    HW155441   0.821   4.052   7.839 -0.0915 -0.1287  0.1423
15491SOL    HW255442   0.831   4.122   7.705  0.6920 -1.2059 -0.3741
15492SOL     OW55443   4.266   4.579   1.950  0.8196  0.0430  0.1945
15492SOL    HW155444   4.241   4.535   1.869  0.1734  0.9922 -0.1407
15492SOL    HW255445   4.338   4.637   1.926  0.3918  0.5935  0.2092
15493SOL     OW55446   8.159  10.814   0.374 -0.4326  0.3788 -0.1619
15493SOL    HW155447   8.076  10.782   0.339  0.4116 -1.2182 -0.7779
15493SOL    HW255448   8.225  10.780   0.314  0.7773  0.6118  0.9973
15494SOL     OW55449   7.867   0.774   2.402 -0.0148  0.0278  0.5249
15494SOL    HW155450   7.786   0.824   2.400 -2.4975 -3.6243  0.3683
15494SOL    HW255451   7.899   0.784   2.491 -2.0671 -0.4142  1.3706
15495SOL     OW55452   7.728   8.900   2.367  0.2610 -0.4052  0.1437
15495SOL    HW155453   7.665   8.829   2.364  0.0740 -0.2228 -0.4382
15495SOL    HW255454   7.780   8.883   2.446  0.3524 -1.2943 -0.0958
15496SOL     OW55455   6.744   7.823  10.042  0.2234 -0.1637 -0.1656
15496SOL    HW155456   6.665   7.852   9.997 -0.8259 -0.9091  1.1360
15496SOL    HW255457   6.795   7.778   9.975  0.1002  1.3024 -1.2900
15497SOL     OW55458   9.250   0.359  11.215 -0.0869  0.4741  0.2498
15497SOL    HW155459   9.292   0.443  11.194  0.7245  0.2785  1.0328
15497SOL    HW255460   9.278   0.300  11.146  1.5027  0.1774  1.0959
15498SOL     OW55461  12.169   8.996   6.117 -0.1027  0.3744 -0.5029
15498SOL    HW155462  12.250   8.948   6.103 -0.4528 -0.6385  0.7368
15498SOL    HW255463  12.188   9.085   6.088  1.8271  0.4398  0.8143
15499SOL     OW55464   4.301   7.894  11.635 -0.4983  0.1938  0.1963
15499SOL    HW155465   4.377   7.950  11.619 -1.3454  1.8364  1.5240
15499SOL    HW255466   4.311   7.864  11.725 -0.2539 -1.5566 -0.3815
15500SOL     OW55467  12.209   9.450   9.745 -0.6644  0.3958 -0.4250
15500SOL    HW155468  12.209   9.359   9.774 -2.0340  0.5429  0.1312
15500SOL    HW255469  12.294   9.484   9.773  0.4636 -1.0487 -1.8894
15501SOL     OW55470   8.374   9.451  12.255 -0.0332 -0.2524 -0.6586
15501SOL    HW155471   8.315   9.417  12.188  1.4616 -2.5293 -0.9206
15501SOL    HW255472   8.317   9.486  12.323 -1.6171 -0.8661 -1.6395
15502SOL     OW55473   1.895  11.317  12.011  0.0085  0.1692 -0.1040
15502SOL    HW155474   1.872  11.229  12.040  0.2712 -0.2200 -1.0279
15502SOL    HW255475   1.854  11.375  12.075 -0.1209 -0.6208  0.5519
15503SOL     OW55476   2.459   1.511   7.500 -0.0969  0.3690 -0.0998
15503SOL    HW155477   2.418   1.444   7.445 -1.2168  1.5515 -0.7850
15503SOL    HW255478   2.472   1.468   7.584  1.3635 -1.3896 -1.1549
15504SOL     OW55479   6.148   9.873  12.247 -0.1381  0.0628 -0.1986
15504SOL    HW155480   6.056   9.865  12.270 -0.8478 -0.6969 -2.9653
15504SOL    HW255481   6.156   9.962  12.211  0.5824  0.6496  1.3058
15505SOL     OW55482   9.947   6.219  10.979  0.4938  0.5480  0.8271
15505SOL    HW155483   9.909   6.221  11.067  0.7370  0.1649  0.9430
15505SOL    HW255484  10.032   6.261  10.989  1.0628 -0.6155  1.0487
15506SOL     OW55485   4.358   0.093  10.252 -0.6647 -0.1954 -0.3130
15506SOL    HW155486   4.268   0.121  10.267 -0.9830 -0.1927 -2.0032
15506SOL    HW255487   4.363   0.079  10.158  0.9524 -0.7606 -0.1723
15507SOL     OW55488  12.137   1.107  11.122  0.4614  0.3919 -0.1123
15507SOL    HW155489  12.189   1.160  11.183 -0.2348 -0.0114  0.8476
15507SOL    HW255490  12.049   1.143  11.127 -0.1788 -1.2302  1.0537
15508SOL     OW55491   2.805   9.842   3.322  0.2538 -0.4034  0.3427
15508SOL    HW155492   2.744   9.884   3.382  0.2778  1.9859 -1.2042
15508SOL    HW255493   2.751   9.812   3.250  0.3738 -2.3357  0.9781
15509SOL     OW55494   6.008   1.681   7.503  0.1351 -0.4881 -0.0959
15509SOL    HW155495   6.019   1.667   7.597  1.0277  0.5460 -0.0315
15509SOL    HW255496   6.077   1.628   7.463  1.7067  1.3598  0.0138
15510SOL     OW55497   5.147   1.305   0.439 -0.2072  0.1023  0.5932
15510SOL    HW155498   5.166   1.217   0.472 -1.4353 -0.5766 -0.4103
15510SOL    HW255499   5.060   1.297   0.400  0.5275  1.2042 -1.4233
15511SOL     OW55500   2.817  11.485   5.228 -0.2976  0.1873  0.2045
15511SOL    HW155501   2.861  11.432   5.294  1.4437  3.1129  1.5898
15511SOL    HW255502   2.855  11.456   5.145 -0.0225 -1.2428  0.7899
15512SOL     OW55503   3.792   1.692   9.893 -0.2872 -0.2113  0.0790
15512SOL    HW155504   3.730   1.620   9.884  0.8085 -1.0894 -0.7101
15512SOL    HW255505   3.816   1.693   9.985 -1.9541  0.5861  0.5479
15513SOL     OW55506   3.922   4.771   4.079 -0.1989 -0.0006  0.0966
15513SOL    HW155507   3.924   4.835   4.150 -0.9226  1.2225 -0.9607
15513SOL    HW255508   3.959   4.692   4.118  3.3966  1.7713  0.6501
15514SOL     OW55509   9.301   3.757   2.767 -0.2077  0.3912 -0.2506
15514SOL    HW155510   9.289   3.840   2.720  1.7043  0.1457 -1.2677
15514SOL    HW255511   9.395   3.753   2.784 -0.4809 -0.8918  1.1192
15515SOL     OW55512   5.664   8.037   3.638  0.2244  0.0516 -0.3916
15515SOL    HW155513   5.741   7.991   3.671 -0.3005 -0.0483  0.7539
15515SOL    HW255514   5.658   8.012   3.546  0.9369 -0.7888 -0.2219
15516SOL     OW55515   9.678   5.274  11.717 -0.1667  0.1428  0.3718
15516SOL    HW155516   9.605   5.306  11.768 -2.1857 -1.4939 -1.3009
15516SOL    HW255517   9.678   5.179  11.731  0.8365 -0.0320 -0.6219
15517SOL     OW55518   8.587  12.013  11.653 -0.4315  0.3917  0.1489
15517SOL    HW155519   8.575  11.991  11.745 -3.0509  0.0916 -0.1840
15517SOL    HW255520   8.558  11.936  11.605 -0.0195  0.8908 -0.9610
15518SOL     OW55521   0.224   2.575   5.097  0.2927  0.1593 -0.6580
15518SOL    HW155522   0.284   2.553   5.168 -1.1227  1.3947  1.0021
15518SOL    HW255523   0.281   2.607   5.027  1.8147 -2.2147 -0.6015
15519SOL     OW55524   7.600   2.955   6.821 -0.3676  0.4466 -0.3126
15519SOL    HW155525   7.564   2.872   6.852 -1.1189  1.1250  0.7165
15519SOL    HW255526   7.525   3.014   6.820  0.3290  1.3535 -0.1398
15520SOL     OW55527   0.855   8.910   3.652  0.2537  0.6818 -0.1973
15520SOL    HW155528   0.893   8.823   3.663  0.6529  0.8953  0.1220
15520SOL    HW255529   0.785   8.914   3.717 -0.2888  0.3127 -0.7442
15521SOL     OW55530   4.793   9.942   3.866 -0.0379  0.1325  0.1158
15521SOL    HW155531   4.798   9.977   3.776 -0.7395 -1.3330 -0.5228
15521SOL    HW255532   4.700   9.944   3.887  0.2060  1.2386  1.1511
15522SOL     OW55533   2.900   6.701   6.693  0.6615 -0.0420 -0.1762
15522SOL    HW155534   2.951   6.767   6.739 -0.5025  0.4152  0.5200
15522SOL    HW255535   2.846   6.751   6.632 -0.7483 -0.2252  0.8499
15523SOL     OW55536   8.734   9.501   5.617  0.2154 -0.0926 -0.8036
15523SOL    HW155537   8.775   9.500   5.704 -0.4061  1.6232 -0.4420
15523SOL    HW255538   8.776   9.430   5.570  0.0939 -1.5075  1.1093
15524SOL     OW55539   1.583   6.664   4.796  0.1095 -0.1908 -0.4067
15524SOL    HW155540   1.590   6.718   4.875  1.8657 -0.9090 -0.0484
15524SOL    HW255541   1.547   6.724   4.730  1.6150  1.3441  0.0845
15525SOL     OW55542   4.939   5.113   2.001  0.4611 -0.2834 -0.1454
15525SOL    HW155543   4.945   5.020   1.983 -4.8023 -0.5465 -2.2164
15525SOL    HW255544   4.960   5.156   1.918 -0.2463  0.1319 -0.1196
15526SOL     OW55545   1.847   4.261   8.993  0.4885  0.3857  0.1196
15526SOL    HW155546   1.756   4.241   9.014  0.5777  0.8024  0.9640
15526SOL    HW255547   1.898   4.210   9.056  0.7990  1.0026  0.3795
15527SOL     OW55548  11.010  11.837   6.526 -0.0346  0.5192  0.0884
15527SOL    HW155549  11.095  11.832   6.483  0.0139  0.2819  0.2132
15527SOL    HW255550  10.947  11.815   6.457 -0.0643  1.5589 -0.2352
15528SOL     OW55551   9.818   7.355  10.500 -0.3533  0.5875  0.0120
15528SOL    HW155552   9.737   7.362  10.550  0.1250 -1.4013  1.1903
15528SOL    HW255553   9.882   7.405  10.551 -0.3204  0.2109  0.3460
15529SOL     OW55554  11.362   1.951   4.173 -0.2724 -0.4662 -0.3551
15529SOL    HW155555  11.274   1.936   4.205  0.1919 -1.7820  0.4000
15529SOL    HW255556  11.397   1.863   4.158  1.0500  0.0167 -0.2391
15530SOL     OW55557   4.877   5.924   9.753 -0.1865 -0.0637  0.4579
15530SOL    HW155558   4.893   6.011   9.717 -1.0183  0.0690  0.3813
15530SOL    HW255559   4.828   5.940   9.834 -1.2737 -0.4911 -0.1027
15531SOL     OW55560   2.414   9.753   1.397  0.6365  0.1242  0.4535
15531SOL    HW155561   2.432   9.843   1.424  0.2017 -0.0113  1.2313
15531SOL    HW255562   2.464   9.699   1.458  1.0182 -0.1596 -0.1074
15532SOL     OW55563  11.460   9.275  11.795 -0.3087  0.5932  0.0624
15532SOL    HW155564  11.490   9.298  11.707 -2.8838 -1.1645 -1.4157
15532SOL    HW255565  11.526   9.214  11.828  0.1532  0.4688 -1.0578
15533SOL     OW55566   7.066  11.370   5.183 -0.5283 -0.1693  0.2710
15533SOL    HW155567   6.999  11.436   5.163  0.7604  1.6282  1.5710
15533SOL    HW255568   7.124  11.372   5.107 -0.0132  0.8623  0.6755
15534SOL     OW55569   6.204   2.552   4.869 -0.6078  0.6301  0.8560
15534SOL    HW155570   6.120   2.519   4.901 -0.6012  0.9620  1.2221
15534SOL    HW255571   6.251   2.473   4.840 -0.4870  0.2647  1.9660
15535SOL     OW55572   2.591   7.623   6.947 -0.1059 -0.3443  0.1249
15535SOL    HW155573   2.573   7.533   6.920 -0.7059 -0.0363 -0.5443
15535SOL    HW255574   2.658   7.615   7.015  0.0157 -1.2779 -0.0917
15536SOL     OW55575   1.174  12.271   6.997  0.1661 -0.3487  0.4277
15536SOL    HW155576   1.164  12.190   6.948 -3.4349 -0.6089  1.3428
15536SOL    HW255577   1.142  12.340   6.939 -2.6903 -0.4766  1.6819
15537SOL     OW55578   6.218   1.725   5.524  0.1800  0.5855  0.3120
15537SOL    HW155579   6.213   1.633   5.548  1.4377  0.2676 -0.5526
15537SOL    HW255580   6.196   1.727   5.430  1.0458  1.0292  0.1040
15538SOL     OW55581  11.216   4.799   5.183 -0.1534 -0.1622  0.0742
15538SOL    HW155582  11.216   4.719   5.129 -0.0280 -1.2053  1.5671
15538SOL    HW255583  11.301   4.798   5.227  0.0321  1.0544 -0.2253
15539SOL     OW55584   1.972  10.800   7.306 -0.2300 -0.3490 -0.7676
15539SOL    HW155585   2.005  10.755   7.383 -2.1029  0.1313  0.3812
15539SOL    HW255586   2.011  10.888   7.311 -1.3779  0.1261  0.4212
15540SOL     OW55587  12.194  10.228   8.867 -0.3318  0.2259 -0.6698
15540SOL    HW155588  12.239  10.157   8.914  1.9723  1.4522 -0.8776
15540SOL    HW255589  12.169  10.189   8.783  2.0101 -0.0987 -1.2988
15541SOL     OW55590   5.001  11.849   4.674  0.5441  0.0967  0.2702
15541SOL    HW155591   5.064  11.918   4.650  1.1533 -0.0316  1.4410
15541SOL    HW255592   4.941  11.845   4.599  1.1628  1.1169 -0.3116
15542SOL     OW55593   1.833   5.604   2.967 -0.0357 -0.1189  0.1281
15542SOL    HW155594   1.770   5.628   3.035 -0.9301  0.8737 -0.9957
15542SOL    HW255595   1.918   5.631   3.002 -0.6307  1.6665  0.3313
15543SOL     OW55596   1.803   9.031  11.482 -0.4613 -0.2558 -0.0396
15543SOL    HW155597   1.807   8.946  11.526 -2.2887 -0.3049  0.1049
15543SOL    HW255598   1.725   9.025  11.426  0.1498  0.8534 -1.0617
15544SOL     OW55599  10.386   7.722   8.230  0.0427  0.0458 -0.1387
15544SOL    HW155600  10.410   7.814   8.231  1.6768 -0.3469 -0.2770
15544SOL    HW255601  10.355   7.704   8.319  3.1745 -0.0623  1.0761
15545SOL     OW55602   3.967   0.759   4.052 -0.0780 -0.7197 -0.3368
15545SOL    HW155603   3.968   0.800   4.139  0.9455 -0.6375 -0.3711
15545SOL    HW255604   3.986   0.667   4.069  0.5356 -0.6281 -0.4971
15546SOL     OW55605   9.383  10.049   3.815 -0.2672 -0.5241 -0.0527
15546SOL    HW155606   9.298  10.094   3.810  0.1683  0.3093 -0.2398
15546SOL    HW255607   9.361   9.957   3.825 -1.2019 -0.4369 -1.1021
15547SOL     OW55608   8.984  10.725   9.366  0.1467  0.3183 -0.7047
15547SOL    HW155609   9.061  10.780   9.382  0.3410 -0.6836  2.7550
15547SOL    HW255610   8.928  10.740   9.442 -2.6559  0.1963 -2.6002
15548SOL     OW55611   5.170   9.247   1.471  0.3031  0.2586 -0.4673
15548SOL    HW155612   5.149   9.175   1.530 -0.1835  0.1294 -0.7870
15548SOL    HW255613   5.089   9.262   1.421  0.5391  0.7171 -0.7263
15549SOL     OW55614   1.629   7.377   3.141 -0.3743  0.1591  0.0556
15549SOL    HW155615   1.562   7.432   3.099 -1.1806 -0.5476  0.3750
15549SOL    HW255616   1.712   7.406   3.103 -1.0292 -0.1794 -1.7304
15550SOL     OW55617   8.850   9.887   4.039 -0.5108 -0.2209 -0.4556
15550SOL    HW155618   8.786   9.826   4.076 -0.0492 -0.5812 -0.2319
15550SOL    HW255619   8.821   9.973   4.068 -0.8906 -0.3820 -0.3530
15551SOL     OW55620   5.316  10.920   1.295  0.1273 -0.3092 -0.1161
15551SOL    HW155621   5.307  10.950   1.385  0.1912 -1.1003  0.1627
15551SOL    HW255622   5.233  10.944   1.253 -0.1679 -0.5266  0.3339
15552SOL     OW55623   2.241  12.490   4.788  0.2342  0.4280  0.4804
15552SOL    HW155624   2.296  12.549   4.839  0.8514  0.0659  0.2423
15552SOL    HW255625   2.293  12.470   4.710 -0.4799  0.5573 -0.0410
15553SOL     OW55626  11.691   4.589   6.747 -0.0180 -0.6015  0.0798
15553SOL    HW155627  11.646   4.591   6.663 -1.5185  1.8567  0.8281
15553SOL    HW255628  11.679   4.500   6.779 -1.4872 -0.9208 -1.2659
15554SOL     OW55629   0.208   9.885   3.397  0.2988  0.2340  0.3614
15554SOL    HW155630   0.292   9.930   3.389  1.4018 -1.5700  1.0721
15554SOL    HW255631   0.161   9.906   3.316  1.6564  0.8410 -0.2927
15555SOL     OW55632   6.580  11.868  10.867  0.3434  0.0025 -0.1808
15555SOL    HW155633   6.657  11.922  10.847  1.7060 -1.4581  0.8263
15555SOL    HW255634   6.599  11.832  10.954 -2.6030  1.4604  1.1990
15556SOL     OW55635   1.940   8.971   0.962  0.5266 -0.4060 -0.4012
15556SOL    HW155636   1.920   9.009   0.877  0.8348 -0.6388 -0.5798
15556SOL    HW255637   1.951   9.046   1.020  1.6549 -0.1979 -0.8630
15557SOL     OW55638   8.712   6.359   9.360  0.7359 -0.0470 -0.6218
15557SOL    HW155639   8.778   6.417   9.322  0.8398 -0.6825 -1.4307
15557SOL    HW255640   8.754   6.323   9.438 -0.1519  2.7681  1.3442
15558SOL     OW55641   0.030   0.324   5.085  0.3642  0.0325 -0.0876
15558SOL    HW155642   0.115   0.284   5.066  0.9636  0.5892  1.3182
15558SOL    HW255643   0.005   0.367   5.003  1.1579 -0.6196 -0.6909
15559SOL     OW55644  11.278   1.972   9.262  0.5237 -0.4165  0.7643
15559SOL    HW155645  11.242   1.971   9.351  0.3750 -1.9280  0.7147
15559SOL    HW255646  11.253   2.057   9.227 -0.4786 -0.2820  1.7463
15560SOL     OW55647   7.758  11.187   1.346  0.0483  0.3197 -0.0556
15560SOL    HW155648   7.678  11.143   1.377 -0.1510 -0.4428 -1.5662
15560SOL    HW255649   7.727  11.247   1.278  0.6767  0.6774 -0.0324
15561SOL     OW55650   9.234  11.603   9.075  0.1949 -0.3132  0.0669
15561SOL    HW155651   9.188  11.527   9.111  0.3195 -0.1194  0.6554
15561SOL    HW255652   9.307  11.566   9.026 -0.3579 -0.6096 -0.5452
15562SOL     OW55653   9.178  10.465   0.631  0.2151 -0.1125  0.5373
15562SOL    HW155654   9.183  10.397   0.564 -0.2350  0.4217 -0.0481
15562SOL    HW255655   9.268  10.472   0.664  1.0431  1.4205 -1.8347
15563SOL     OW55656   7.269   3.037   5.355 -0.2552 -0.2152  0.3191
15563SOL    HW155657   7.179   3.058   5.383  0.3957  0.5331  1.9965
15563SOL    HW255658   7.324   3.092   5.410  1.2284 -0.0174 -1.2941
15564SOL     OW55659   6.767   1.117  10.887  0.0521 -0.4105  0.3315
15564SOL    HW155660   6.724   1.058  10.826 -2.0698  0.2661  1.0545
15564SOL    HW255661   6.773   1.067  10.969 -1.1593  0.1042  0.7625
15565SOL     OW55662  10.763   5.781   7.899  0.0884  0.4649  0.8823
15565SOL    HW155663  10.845   5.758   7.943 -0.1367 -0.0502  1.0472
15565SOL    HW255664  10.701   5.798   7.970  0.0352  0.7844  0.7581
15566SOL     OW55665  10.026   5.346  11.526  0.0426  0.2528 -0.6090
15566SOL    HW155666   9.937   5.377  11.508  0.1536  0.1896 -1.3077
15566SOL    HW255667  10.080   5.425  11.522  0.5602 -0.1409 -3.9429
15567SOL     OW55668   3.688   9.634   1.551  0.1672 -0.1487  0.4417
15567SOL    HW155669   3.658   9.543   1.540  0.8356 -0.3195 -0.0958
15567SOL    HW255670   3.626   9.686   1.500 -0.4992 -0.2488  1.1432
15568SOL     OW55671   0.317   7.476   4.659  0.1918  0.3914 -0.4704
15568SOL    HW155672   0.299   7.560   4.702 -1.3456  0.0887 -0.4598
15568SOL    HW255673   0.260   7.476   4.582  0.8103 -0.2923 -0.9394
15569SOL     OW55674   2.907   3.747   8.570  0.2326  0.4781 -0.0878
15569SOL    HW155675   2.922   3.656   8.543  4.0524  1.0294 -0.3765
15569SOL    HW255676   2.823   3.745   8.616 -0.5297 -2.8789 -1.3478
15570SOL     OW55677   1.690   1.739   9.468 -0.2376 -0.0571 -0.6728
15570SOL    HW155678   1.760   1.751   9.532 -1.5947  1.1057  0.6744
15570SOL    HW255679   1.672   1.645   9.470 -0.3302 -0.0406  0.7912
15571SOL     OW55680  10.272   4.540   1.102 -0.1771  0.1782 -0.0305
15571SOL    HW155681  10.354   4.566   1.060 -0.8458  0.7705 -0.9941
15571SOL    HW255682  10.217   4.508   1.031 -0.0602 -2.2554  0.8738
15572SOL     OW55683  11.683   2.937   6.689  0.1015 -0.7345 -0.7250
15572SOL    HW155684  11.675   2.848   6.656  1.8360 -0.6940 -1.3641
15572SOL    HW255685  11.777   2.948   6.705 -0.3115  0.2344  1.4925
15573SOL     OW55686  10.094   6.650   7.113 -0.1356 -0.1213 -0.7563
15573SOL    HW155687  10.153   6.681   7.044 -0.9221  0.6363 -1.1137
15573SOL    HW255688  10.122   6.696   7.192 -0.0365 -0.0175 -0.8524
15574SOL     OW55689   2.102   0.652  10.184 -0.5049 -0.4217  0.3577
15574SOL    HW155690   2.108   0.615  10.272  0.1214 -0.8932  0.1209
15574SOL    HW255691   2.013   0.633  10.155 -0.5184 -0.8110  0.6531
15575SOL     OW55692   3.662   7.803  10.048 -0.2544 -0.4811 -0.6919
15575SOL    HW155693   3.601   7.876  10.059 -1.3790 -1.6197  1.2040
15575SOL    HW255694   3.725   7.814  10.120 -0.8245 -1.7100  0.0245
15576SOL     OW55695  10.605   0.137   8.459  0.1986  0.0846 -0.3126
15576SOL    HW155696  10.609   0.176   8.372 -0.5989 -2.2930 -1.5218
15576SOL    HW255697  10.545   0.063   8.449 -0.5737  0.2000  2.4840
15577SOL     OW55698   0.809   9.574   2.769 -0.3216 -0.2834 -1.0218
15577SOL    HW155699   0.846   9.659   2.792 -3.7560  1.4731 -1.3777
15577SOL    HW255700   0.783   9.536   2.853 -0.5398 -0.0875 -1.0002
15578SOL     OW55701   4.242  12.236  11.184 -0.0184 -0.4112  0.5499
15578SOL    HW155702   4.254  12.250  11.278  1.9902 -0.3729  0.3447
15578SOL    HW255703   4.282  12.151  11.166  0.7333  0.1088 -0.4207
15579SOL     OW55704  10.768   7.594  10.292  0.0976 -0.0942 -0.3749
15579SOL    HW155705  10.730   7.574  10.206 -0.6353 -0.7876  0.1083
15579SOL    HW255706  10.742   7.522  10.348  1.5816 -0.2526  0.1515
15580SOL     OW55707   3.569   2.245   1.271 -0.3202  0.0370  0.0921
15580SOL    HW155708   3.648   2.239   1.216 -1.0426 -1.3734 -0.8800
15580SOL    HW255709   3.498   2.219   1.212 -1.2015 -0.9914  1.5584
15581SOL     OW55710  10.105   9.569   8.375  0.3898  0.2554  0.8616
15581SOL    HW155711  10.152   9.620   8.442 -1.7815  0.8671  2.0183
15581SOL    HW255712  10.032   9.530   8.423 -1.1557  0.5920 -1.1247
15582SOL     OW55713  12.413   5.850   4.238 -0.3449  0.0930 -0.4231
15582SOL    HW155714  12.353   5.790   4.281 -0.4494 -0.3232 -1.1311
15582SOL    HW255715  12.496   5.840   4.284 -0.7879  0.6164  0.5165
15583SOL     OW55716   3.671   2.088  10.651  0.1162 -0.4598  0.8305
15583SOL    HW155717   3.643   2.024  10.585 -1.6106  0.0234  1.0597
15583SOL    HW255718   3.665   2.041  10.734  0.8948 -0.6191  0.8092
15584SOL     OW55719  11.766  11.089   4.998 -0.2217  0.0154 -0.1268
15584SOL    HW155720  11.796  11.000   5.016  0.8810  0.1634 -1.0947
15584SOL    HW255721  11.833  11.126   4.940  0.8549  2.4162  2.3643
15585SOL     OW55722   1.391   1.560   6.794 -0.2687 -0.2030 -0.4572
15585SOL    HW155723   1.315   1.517   6.833 -0.2435 -0.5243 -0.7564
15585SOL    HW255724   1.367   1.574   6.703  0.1393 -0.5678 -0.6246
15586SOL     OW55725   1.813   2.566  10.156  0.2492 -0.9931 -0.3930
15586SOL    HW155726   1.889   2.526  10.197  0.2039 -1.5734 -0.8718
15586SOL    HW255727   1.805   2.652  10.199  0.5667 -1.3373  0.3683
15587SOL     OW55728   5.317   9.004   9.420 -0.0435 -0.3628 -0.7850
15587SOL    HW155729   5.316   9.071   9.489  0.0880 -0.6266 -0.5217
15587SOL    HW255730   5.275   9.046   9.345  2.0412  0.8323 -1.3857
15588SOL     OW55731  11.682   0.223   1.822  0.2805 -0.2900  0.6336
15588SOL    HW155732  11.590   0.228   1.797  0.0142 -0.9879  1.4288
15588SOL    HW255733  11.681   0.207   1.916  1.2168 -0.2809  0.6576
15589SOL     OW55734   5.082   8.257  10.270 -0.1541 -0.1931 -0.6626
15589SOL    HW155735   5.032   8.329  10.307  1.3545  2.1444 -2.7975
15589SOL    HW255736   5.017   8.203  10.224 -1.0417  1.3689 -1.3190
15590SOL     OW55737   1.700  12.413  12.345 -0.7704 -0.2375 -0.8489
15590SOL    HW155738   1.768  12.383  12.284 -2.2373 -1.4381 -1.9869
15590SOL    HW255739   1.619  12.407  12.295 -1.9917 -0.8087  1.0801
15591SOL     OW55740   5.286  11.110   7.924 -0.0699 -0.0787  0.1683
15591SOL    HW155741   5.220  11.065   7.871 -1.2757 -0.8113  2.1646
15591SOL    HW255742   5.240  11.187   7.959  0.7839  0.5495 -0.0696
15592SOL     OW55743   3.427   3.307   0.822  0.1724 -0.5565  0.5511
15592SOL    HW155744   3.423   3.380   0.761  0.5630  0.2821  1.5115
15592SOL    HW255745   3.336   3.275   0.826 -0.0826  0.1283  0.4172
15593SOL     OW55746   3.842   7.584   6.860  0.3961  0.4148 -0.4211
15593SOL    HW155747   3.894   7.638   6.920  1.2681 -2.1110  1.2599
15593SOL    HW255748   3.907   7.531   6.813 -0.4348  0.6217 -1.8642
15594SOL     OW55749   4.664   2.806   6.633 -0.1878 -0.4120  0.4055
15594SOL    HW155750   4.626   2.832   6.717 -1.6331 -0.0691 -0.3352
15594SOL    HW255751   4.630   2.717   6.618  1.4764 -1.1900  0.9873
15595SOL     OW55752   7.474   2.440   7.379  0.8515 -0.1845  0.3618
15595SOL    HW155753   7.564   2.424   7.408  0.6084  0.0399  1.3022
15595SOL    HW255754   7.458   2.531   7.404 -0.6165 -1.0553  3.0313
15596SOL     OW55755  11.849   6.288   9.741  0.1444 -0.1857  0.0451
15596SOL    HW155756  11.770   6.309   9.691 -0.2016  0.4939  0.8422
15596SOL    HW255757  11.905   6.240   9.680 -1.8262 -2.7622  0.1168
15597SOL     OW55758   2.578   2.412  11.594 -0.1657 -0.0342 -0.2943
15597SOL    HW155759   2.602   2.333  11.643 -0.0758  0.1797  0.0138
15597SOL    HW255760   2.540   2.380  11.513 -0.3974 -0.3967 -0.0428
15598SOL     OW55761   4.841   0.168  12.441  0.3096 -0.0752 -0.3711
15598SOL    HW155762   4.763   0.118  12.462 -0.0977  1.2588  1.6494
15598SOL    HW255763   4.809   0.244  12.392  0.2712  0.5643  0.6127
15599SOL     OW55764   9.430   1.367   7.780  0.5428 -0.2308  0.3003
15599SOL    HW155765   9.510   1.414   7.803  0.4002  0.5727 -0.7507
15599SOL    HW255766   9.359   1.426   7.803  0.3057 -0.4368  0.1037
15600SOL     OW55767  10.339   0.404   1.627  0.3050 -0.0140  0.9657
15600SOL    HW155768  10.371   0.352   1.701  3.5682 -0.9405 -0.9192
15600SOL    HW255769  10.284   0.344   1.577  0.5962 -0.3433  1.0373
15601SOL     OW55770   1.769   2.322   6.016  0.7655 -0.5981 -0.3521
15601SOL    HW155771   1.685   2.278   6.032  0.0980  0.4768 -0.8147
15601SOL    HW255772   1.762   2.405   6.063  1.7898 -0.7165  0.0393
15602SOL     OW55773   7.232   4.688  10.004 -0.1302  0.1296 -0.2715
15602SOL    HW155774   7.325   4.711  10.011  0.0455 -0.0214 -1.7404
15602SOL    HW255775   7.191   4.733  10.078  0.6906  2.5484 -1.1633
15603SOL     OW55776   5.014   0.717  11.544  0.0985  0.2147 -0.0072
15603SOL    HW155777   5.063   0.698  11.624 -1.6178 -0.1047  1.0135
15603SOL    HW255778   4.962   0.794  11.567  0.2116  0.6296 -1.1108
15604SOL     OW55779   4.621  10.694   3.160 -0.0594  0.2453  0.7791
15604SOL    HW155780   4.589  10.625   3.218 -0.1145 -0.8918 -0.5606
15604SOL    HW255781   4.548  10.756   3.153  0.1185  0.6657  2.2761
15605SOL     OW55782   6.905   2.923   9.455  0.0488 -0.4983 -0.4357
15605SOL    HW155783   6.913   2.838   9.411  0.4259  0.1207 -1.5746
15605SOL    HW255784   6.973   2.920   9.523 -1.2820 -1.9055  0.9203
15606SOL     OW55785   9.142   7.309  10.615  0.0484  0.1632 -0.1788
15606SOL    HW155786   9.206   7.296  10.685 -0.2585  0.5993  0.1970
15606SOL    HW255787   9.057   7.309  10.661 -0.0359  3.0476 -0.1172
15607SOL     OW55788   4.902   2.423  11.524  0.4331 -0.8814 -0.8102
15607SOL    HW155789   4.979   2.394  11.574 -0.0839  0.0791  0.5859
15607SOL    HW255790   4.834   2.436  11.590 -0.0979  0.9904 -1.6829
15608SOL     OW55791  11.568   0.937   0.514  0.3992  0.1686 -0.1524
15608SOL    HW155792  11.608   0.936   0.427 -1.8219 -1.8444 -1.2889
15608SOL    HW255793  11.548   0.845   0.532 -0.8763  0.7430  1.6773
15609SOL     OW55794   1.858   4.675   8.539 -0.2295 -0.2476 -0.4071
15609SOL    HW155795   1.772   4.699   8.505 -1.7026 -2.0198  1.7393
15609SOL    HW255796   1.867   4.583   8.516  0.3888 -0.4786  0.7194
15610SOL     OW55797   7.359  12.425  10.234  0.3320 -0.1154 -0.0002
15610SOL    HW155798   7.412  12.505  10.225 -0.4258  0.7273  2.2047
15610SOL    HW255799   7.419  12.354  10.213  1.3726  0.9719 -0.8764
15611SOL     OW55800  10.491  10.836   8.273 -0.0633 -0.0899  0.2368
15611SOL    HW155801  10.581  10.818   8.300  0.3354  1.9768  0.4454
15611SOL    HW255802  10.495  10.841   8.178  0.0680  0.1217  0.2531
15612SOL     OW55803   6.697   6.859   5.154 -0.3424 -0.4881  0.2997
15612SOL    HW155804   6.643   6.828   5.226 -0.6906  0.5481  0.5037
15612SOL    HW255805   6.639   6.915   5.102  0.3304  0.0547  0.1129
15613SOL     OW55806   1.821   2.865   6.484  0.4223  0.5375 -0.0851
15613SOL    HW155807   1.806   2.955   6.455 -0.5195  0.5543  0.4339
15613SOL    HW255808   1.863   2.874   6.569 -1.7492  0.5305  1.0508
15614SOL     OW55809   9.823   8.075   1.962 -0.1927  0.7150  0.6919
15614SOL    HW155810   9.899   8.027   1.993  0.5586  2.5847  1.9631
15614SOL    HW255811   9.851   8.116   1.881 -0.6266 -0.4221 -0.0536
15615SOL     OW55812  10.344   2.885   8.834 -0.4251 -0.2507 -0.0472
15615SOL    HW155813  10.311   2.956   8.778 -1.0938 -0.1757  0.4181
15615SOL    HW255814  10.326   2.805   8.784 -0.9025 -0.1765 -0.0057
15616SOL     OW55815   2.382   1.817   9.693  0.1698  0.4816  0.0930
15616SOL    HW155816   2.321   1.886   9.721 -0.9617 -0.2834 -0.4055
15616SOL    HW255817   2.390   1.760   9.769 -1.1686 -0.3829 -0.3666
15617SOL     OW55818   1.059   7.689  11.927  0.6170  0.2666 -0.0331
15617SOL    HW155819   0.974   7.647  11.942  0.5295  0.6915  0.6977
15617SOL    HW255820   1.065   7.756  11.995  1.1400  0.8593 -0.6542
15618SOL     OW55821   4.266   3.707   0.083 -0.0207  0.4169  0.2011
15618SOL    HW155822   4.191   3.766   0.080 -0.0358  0.4942  1.5694
15618SOL    HW255823   4.342   3.763   0.069 -0.2066  0.3162 -1.3464
15619SOL     OW55824  10.292   4.448   7.516 -0.3525 -0.3595  0.5047
15619SOL    HW155825  10.268   4.521   7.575 -1.6301 -0.7002  0.4494
15619SOL    HW255826  10.237   4.375   7.545  2.7947 -2.2113  2.3183
15620SOL     OW55827   6.898   7.668   3.528 -0.2372  0.1695 -0.3824
15620SOL    HW155828   6.928   7.734   3.592 -0.1483 -0.9339  0.7604
15620SOL    HW255829   6.974   7.611   3.516 -0.2696  0.3410 -1.4727
15621SOL     OW55830   8.354  12.297   3.968 -0.4983 -0.2606  0.2829
15621SOL    HW155831   8.340  12.283   3.875 -0.2745 -0.0217  0.2120
15621SOL    HW255832   8.437  12.345   3.973 -0.0730 -1.0233  0.6526
15622SOL     OW55833   8.815   2.807   0.268 -0.2747  0.3496  0.1301
15622SOL    HW155834   8.789   2.806   0.360 -3.4330  0.2281 -0.6671
15622SOL    HW255835   8.799   2.718   0.237 -1.3004  0.9104 -1.0165
15623SOL     OW55836   0.669   7.973   8.432 -1.3758 -0.7902 -0.0920
15623SOL    HW155837   0.634   7.968   8.521  0.1201  2.7863  0.8936
15623SOL    HW255838   0.762   7.954   8.442 -0.5587  2.5070 -0.1836
15624SOL     OW55839   4.426   3.237   7.230  0.0516  0.1409 -0.0769
15624SOL    HW155840   4.397   3.323   7.199 -0.0754  0.5999  1.2440
15624SOL    HW255841   4.501   3.215   7.174  0.4671  1.3917 -0.0476
15625SOL     OW55842   6.185   8.190   0.481 -0.5944 -0.2146  0.0445
15625SOL    HW155843   6.104   8.156   0.519 -0.5328 -0.2004  0.1905
15625SOL    HW255844   6.242   8.206   0.556 -0.4230 -0.3108 -0.0630
15626SOL     OW55845   9.673   2.572   0.671  0.1625  0.2798  0.1664
15626SOL    HW155846   9.702   2.634   0.737  0.8769 -1.1706  1.2837
15626SOL    HW255847   9.689   2.486   0.710  0.0836 -0.6291 -1.6623
15627SOL     OW55848   4.276  11.901   3.685 -0.2526  0.0140 -0.6236
15627SOL    HW155849   4.232  11.833   3.735 -0.2014  0.2184 -0.2971
15627SOL    HW255850   4.220  11.915   3.609 -2.3376  2.2769  1.1616
15628SOL     OW55851   0.551   5.733   3.129  0.1162 -0.0305  0.1673
15628SOL    HW155852   0.484   5.667   3.147  0.9420 -1.0279 -0.3725
15628SOL    HW255853   0.501   5.807   3.092 -0.9995  0.2572  2.1026
15629SOL     OW55854   9.684  10.373   1.487  0.0467  0.2639  0.5105
15629SOL    HW155855   9.633  10.405   1.561  2.4747  1.6872  1.6946
15629SOL    HW255856   9.660  10.281   1.480 -0.9375  0.3105  2.4845
15630SOL     OW55857   0.447   1.840   8.695 -0.2056 -0.0510  0.4939
15630SOL    HW155858   0.379   1.778   8.721 -1.5789  0.4933 -1.5622
15630SOL    HW255859   0.460   1.824   8.602  2.2331  0.1665  0.7155
15631SOL     OW55860  10.777   7.609   0.276 -0.8731 -0.1332 -0.3174
15631SOL    HW155861  10.849   7.587   0.218 -2.2641 -0.7050 -1.9101
15631SOL    HW255862  10.755   7.699   0.254  0.3808  0.6407  1.3619
15632SOL     OW55863  10.517  12.254   7.230 -0.6054 -0.0119 -0.5895
15632SOL    HW155864  10.477  12.181   7.184 -1.5673 -1.5677  2.4542
15632SOL    HW255865  10.466  12.263   7.310  0.7733  2.6959  0.1144
15633SOL     OW55866   9.492  11.826   5.651 -0.4790 -0.0241  0.0911
15633SOL    HW155867   9.488  11.868   5.565  0.5149 -0.7575 -0.3313
15633SOL    HW255868   9.437  11.748   5.642  1.6546 -1.5312 -0.7518
15634SOL     OW55869   4.688   2.899   1.480 -0.0914  0.2193 -0.0832
15634SOL    HW155870   4.715   2.850   1.402 -0.2334  0.0592 -0.0332
15634SOL    HW255871   4.609   2.945   1.452  0.0932  0.4945 -0.1575
15635SOL     OW55872  10.799   6.790   8.934 -0.3634  0.6705  0.2905
15635SOL    HW155873  10.842   6.707   8.954  1.3661  1.6236  0.8466
15635SOL    HW255874  10.760   6.818   9.017  1.1464  1.5114  0.7627
15636SOL     OW55875   2.576   1.121   2.590 -0.0727  0.1018 -0.0185
15636SOL    HW155876   2.538   1.140   2.676  0.0208 -0.4404  0.1455
15636SOL    HW255877   2.505   1.083   2.539  0.5443 -2.1823  0.7200
15637SOL     OW55878   4.078   7.593   7.836  0.1107  0.5704  0.4170
15637SOL    HW155879   4.121   7.517   7.875  2.3611  0.0941 -2.6368
15637SOL    HW255880   3.988   7.564   7.820  1.1839 -2.0169 -1.6861
15638SOL     OW55881   9.748   0.594   4.385 -0.1616 -0.0610 -0.1662
15638SOL    HW155882   9.662   0.626   4.411 -1.2940 -1.5259 -1.8385
15638SOL    HW255883   9.809   0.642   4.440 -1.9609  1.9379  0.2260
15639SOL     OW55884   1.936   8.302   3.477 -0.4716 -0.0280  0.4107
15639SOL    HW155885   1.991   8.379   3.463  0.2880 -1.0603 -3.4258
15639SOL    HW255886   1.988   8.246   3.535  1.2352  0.2894 -0.7327
15640SOL     OW55887   9.425  12.476   3.082 -0.4142 -0.4843 -0.1393
15640SOL    HW155888   9.518  12.466   3.065 -0.2277  0.2183  0.4050
15640SOL    HW255889   9.405  12.566   3.054 -1.1789 -0.9971 -1.3155
15641SOL     OW55890  10.571   6.020   7.495 -0.0895  0.9250  0.1158
15641SOL    HW155891  10.544   5.951   7.555  1.0419 -1.1577 -1.6560
15641SOL    HW255892  10.492   6.074   7.484 -1.2741 -0.5725  0.8774
15642SOL     OW55893   6.289   5.971   7.382  0.2844 -0.0061 -0.0720
15642SOL    HW155894   6.213   6.025   7.405  1.4384  1.7548 -0.1883
15642SOL    HW255895   6.350   5.983   7.455  1.2040  0.1655 -0.8382
15643SOL     OW55896   7.349  12.228   5.534 -0.4881  0.3915 -0.3343
15643SOL    HW155897   7.387  12.281   5.464 -2.8313  0.9473 -1.2869
15643SOL    HW255898   7.255  12.227   5.515 -0.8519 -1.9059  1.1839
15644SOL     OW55899   8.354   1.120   7.608  0.4579 -0.0484  0.2945
15644SOL    HW155900   8.321   1.205   7.637 -1.2655  0.0124 -1.6512
15644SOL    HW255901   8.290   1.056   7.640 -0.1732 -0.2138 -1.2161
15645SOL     OW55902   1.643   4.961   1.335 -0.0610  0.3416  0.1350
15645SOL    HW155903   1.717   4.917   1.293  1.5175  1.4719  1.6074
15645SOL    HW255904   1.587   4.989   1.262  0.6168 -1.0558 -0.9744
15646SOL     OW55905  10.401   6.103  12.573  0.6462 -0.2477  0.2702
15646SOL    HW155906  10.413   6.107  12.668  0.6561  2.0354  0.2153
15646SOL    HW255907  10.485   6.071  12.540  1.8921  2.1881  0.8500
15647SOL     OW55908  10.817  11.398   0.170 -0.3887  0.7199  0.2291
15647SOL    HW155909  10.896  11.343   0.178 -1.2834 -0.6273  0.0674
15647SOL    HW255910  10.819  11.453   0.248 -0.6058 -1.0989  1.5896
15648SOL     OW55911   3.026   3.649   4.477  0.4593  0.3358 -0.4741
15648SOL    HW155912   2.994   3.583   4.416  0.4518  0.3531 -0.4891
15648SOL    HW255913   2.959   3.717   4.475 -0.2000 -0.2572  0.5451
15649SOL     OW55914   6.407   9.876   1.688  0.0701  0.3905 -0.2897
15649SOL    HW155915   6.316   9.893   1.710 -0.8672 -3.9013  0.1002
15649SOL    HW255916   6.448   9.855   1.772  1.2283  1.3181 -0.5915
15650SOL     OW55917  11.449   9.678   8.248 -0.1104 -0.6314 -0.0842
15650SOL    HW155918  11.449   9.638   8.161 -0.7207  1.3850 -1.0744
15650SOL    HW255919  11.498   9.616   8.303 -0.4720 -2.3831 -1.6271
15651SOL     OW55920   3.397   1.886   7.492  0.1391  0.0464  0.3925
15651SOL    HW155921   3.329   1.895   7.559 -1.4554 -3.3592 -0.5240
15651SOL    HW255922   3.354   1.914   7.411 -0.2691 -1.9849 -0.1653
15652SOL     OW55923   2.273   7.147  12.028  0.0411 -0.1337 -0.2074
15652SOL    HW155924   2.363   7.162  12.001 -0.0646  1.8580  0.4323
15652SOL    HW255925   2.274   7.059  12.066  1.5419 -0.4172 -0.8388
15653SOL     OW55926   5.852   9.816   2.719  0.6366  0.5748  0.2140
15653SOL    HW155927   5.772   9.844   2.673  0.6134 -0.6364 -0.5292
15653SOL    HW255928   5.831   9.828   2.812 -0.1573  0.9170  0.0042
15654SOL     OW55929   9.863  10.814  10.508 -0.6178  0.1571 -0.3194
15654SOL    HW155930   9.883  10.763  10.587  1.3873 -1.1358 -1.5847
15654SOL    HW255931   9.823  10.894  10.541 -0.5584 -0.6726  1.9568
15655SOL     OW55932   2.984   7.220   9.753  0.6246 -0.2055 -0.3076
15655SOL    HW155933   2.958   7.312   9.753 -0.0199 -0.3684  0.9500
15655SOL    HW255934   2.962   7.189   9.841 -0.2385 -1.8609 -1.0699
15656SOL     OW55935   6.462   5.567   1.392  0.0359  0.0377 -0.6966
15656SOL    HW155936   6.377   5.532   1.419 -0.3258 -0.0732 -1.8891
15656SOL    HW255937   6.466   5.654   1.429 -2.0922  1.3892 -3.2659
15657SOL     OW55938   9.522   4.453   8.726 -0.7001  0.0823  0.1701
15657SOL    HW155939   9.566   4.440   8.810 -0.0090  2.5355  0.2495
15657SOL    HW255940   9.429   4.460   8.749 -0.5795  0.1452  0.6514
15658SOL     OW55941   0.160  12.250   4.582  0.4715 -0.0861 -0.1314
15658SOL    HW155942   0.103  12.281   4.512  1.1399  0.9048 -0.2627
15658SOL    HW255943   0.231  12.314   4.584  0.8215 -0.4972  0.9890
15659SOL     OW55944   3.627   1.285   2.496  0.5727 -0.6076  0.3141
15659SOL    HW155945   3.580   1.325   2.570 -0.1035 -2.5616  0.9976
15659SOL    HW255946   3.692   1.351   2.471 -1.0567  1.2800  0.7707
15660SOL     OW55947   0.748   7.172   0.246  0.4006 -0.9711  0.3754
15660SOL    HW155948   0.758   7.267   0.257  1.6740 -1.2402  1.9584
15660SOL    HW255949   0.682   7.147   0.310 -0.0204 -1.1410 -0.1244
15661SOL     OW55950   5.808   1.618   0.927 -0.2533 -0.0068 -0.6093
15661SOL    HW155951   5.830   1.545   0.985 -0.1851  2.2740  2.4674
15661SOL    HW255952   5.718   1.602   0.899  0.0809 -1.6944 -0.7917
15662SOL     OW55953   5.552  10.436   1.645 -1.0753 -0.3668 -0.1194
15662SOL    HW155954   5.618  10.389   1.696  0.8785  2.8572  0.6609
15662SOL    HW255955   5.584  10.432   1.555 -0.4708  0.0927  0.0667
15663SOL     OW55956   8.895  11.329   4.715  0.0658  0.1642 -0.3027
15663SOL    HW155957   8.947  11.287   4.784  0.5616 -1.0541 -1.3745
15663SOL    HW255958   8.913  11.277   4.637 -0.6718  1.3666 -1.3051
15664SOL     OW55959   4.274  12.457   3.809 -0.3021 -0.3845  0.2060
15664SOL    HW155960   4.269  12.421   3.898 -3.5042  0.9209  0.6820
15664SOL    HW255961   4.244  12.547   3.818  2.3619  0.8460 -1.7905
15665SOL     OW55962   8.937   5.271  10.612  0.2660  0.4482  0.9025
15665SOL    HW155963   8.887   5.243  10.689 -0.0683  1.6869  1.1506
15665SOL    HW255964   9.010   5.322  10.648 -0.1648  1.4486  0.3921
15666SOL     OW55965  11.650   8.969   0.280 -0.2915 -0.1088  0.2709
15666SOL    HW155966  11.728   8.958   0.226  0.2097  1.4359  0.6364
15666SOL    HW255967  11.666   8.911   0.355  1.4628  1.6132  1.3194
15667SOL     OW55968   2.046   7.999   9.095  0.9257  0.1856 -0.0532
15667SOL    HW155969   2.019   7.922   9.146  0.6443  1.9036  2.6144
15667SOL    HW255970   1.980   8.065   9.115  2.1137  1.6768 -0.8306
15668SOL     OW55971  11.975   3.975   4.902 -0.1152  0.3334 -0.7044
15668SOL    HW155972  11.913   4.047   4.895 -2.2520 -1.2159  1.0383
15668SOL    HW255973  12.000   3.956   4.811 -1.8265  1.3156 -1.4329
15669SOL     OW55974   9.191   4.800  10.864 -0.0081  0.0548  0.9665
15669SOL    HW155975   9.136   4.800  10.786  0.3480 -1.2197  0.6930
15669SOL    HW255976   9.273   4.840  10.835  0.2872 -0.8266  0.5442
15670SOL     OW55977   2.526   2.588   7.640 -0.2039  0.4441 -0.4045
15670SOL    HW155978   2.504   2.543   7.721 -0.0028  0.4896 -0.3235
15670SOL    HW255979   2.540   2.517   7.577 -2.3783  0.4262 -0.9581
15671SOL     OW55980  10.793  11.110  12.131  0.5700  0.3189  0.2317
15671SOL    HW155981  10.763  11.080  12.217  0.8307  1.5800  0.7884
15671SOL    HW255982  10.734  11.182  12.110  0.9215  0.4368 -0.3580
15672SOL     OW55983  12.286   3.418   1.685  0.0664  0.5375  0.1281
15672SOL    HW155984  12.350   3.420   1.613 -1.0345 -0.1481 -0.8960
15672SOL    HW255985  12.316   3.487   1.745  0.6253  1.6029 -1.3192
15673SOL     OW55986   4.719   6.201   5.786 -0.3759 -0.5089 -0.1470
15673SOL    HW155987   4.802   6.214   5.741 -0.0153  0.2247  0.6893
15673SOL    HW255988   4.732   6.123   5.839  0.1132  0.1061  0.6708
15674SOL     OW55989   4.374   2.712  11.070 -0.4478  0.2703  0.3300
15674SOL    HW155990   4.428   2.668  11.135 -0.0126  0.6062  0.2002
15674SOL    HW255991   4.394   2.668  10.987  0.8916  1.4757 -0.0131
15675SOL     OW55992   9.408  11.587   3.488 -0.6378  0.3017  0.2296
15675SOL    HW155993   9.502  11.565   3.490 -0.6693 -0.3906 -2.1914
15675SOL    HW255994   9.369  11.517   3.436 -2.4555  0.8281  0.8179
15676SOL     OW55995  10.628   5.216   1.872  0.2706 -0.3977  0.0216
15676SOL    HW155996  10.622   5.307   1.900  2.4330 -0.1292 -0.2031
15676SOL    HW255997  10.668   5.220   1.785 -1.4052 -1.4949 -0.8620
15677SOL     OW55998   0.362   7.856   9.150 -0.5628 -0.3116 -0.1491
15677SOL    HW155999   0.453   7.871   9.176 -0.5935 -1.9873  1.1862
15677SOL    HW256000   0.356   7.761   9.141 -2.2872 -0.2799  0.2857
15678SOL     OW56001  11.869   7.300   3.909  0.0317 -0.3129 -0.1149
15678SOL    HW156002  11.819   7.373   3.875 -2.6122 -1.8028  0.2558
15678SOL    HW256003  11.856   7.229   3.846  1.3699 -0.8781  0.2032
15679SOL     OW56004   6.036   5.251   7.810  0.2775  0.1020  0.3240
15679SOL    HW156005   6.126   5.265   7.840  0.2143  0.8175  0.2109
15679SOL    HW256006   5.990   5.330   7.837  0.0946  0.5569 -1.2042
15680SOL     OW56007  11.008   0.992  12.063  0.1074 -0.2445 -0.8078
15680SOL    HW156008  11.055   1.073  12.041  0.5315 -0.5305 -0.9708
15680SOL    HW256009  10.921   1.004  12.026 -0.1727  0.5724  0.0675
15681SOL     OW56010   7.951   0.908   7.842  0.2209 -0.6970  0.1208
15681SOL    HW156011   7.916   0.819   7.841  0.1433 -0.6935  1.3782
15681SOL    HW256012   7.877   0.964   7.865  0.5286 -0.4270  0.4624
15682SOL     OW56013   9.099   5.566   2.018  0.3077  0.1983  0.4302
15682SOL    HW156014   9.021   5.514   2.040  0.1440  0.1318 -0.2878
15682SOL    HW256015   9.104   5.562   1.922  2.0438 -1.0531  0.5199
15683SOL     OW56016   5.469   4.861   2.599  0.1369 -0.7553  0.2606
15683SOL    HW156017   5.456   4.927   2.667  0.2997 -0.7388  0.2742
15683SOL    HW256018   5.477   4.911   2.518  4.2214 -0.4339  0.6838
15684SOL     OW56019   7.076   4.898   7.898 -0.0482 -0.0383  0.1934
15684SOL    HW156020   6.985   4.898   7.927 -0.2938 -0.9895 -0.5213
15684SOL    HW256021   7.123   4.944   7.967 -1.2821  1.9073 -0.1935
15685SOL     OW56022   9.402   3.123   8.412  0.3197  0.0403  0.1618
15685SOL    HW156023   9.325   3.168   8.447 -1.4404 -0.7923 -2.3817
15685SOL    HW256024   9.403   3.038   8.456 -0.8774 -0.3571 -0.5532
15686SOL     OW56025   2.950   8.909  12.222 -0.0957 -0.0269 -0.9307
15686SOL    HW156026   2.877   8.851  12.203 -0.4271  1.0048 -3.0438
15686SOL    HW256027   2.939   8.932  12.315 -1.7010 -0.8886 -0.8816
15687SOL     OW56028   5.422  12.008   1.419  0.2665 -0.1535  0.4396
15687SOL    HW156029   5.474  11.936   1.384 -1.1758 -1.1789  0.3470
15687SOL    HW256030   5.398  12.060   1.342 -0.9851 -1.1288  0.1493
15688SOL     OW56031  10.278  12.336  10.830 -0.0739 -0.1290 -0.8966
15688SOL    HW156032  10.341  12.405  10.807  0.5992 -1.6225 -3.9991
15688SOL    HW256033  10.211  12.342  10.762 -0.0925 -2.3923 -1.1308
15689SOL     OW56034   0.180  10.614   5.113  0.0514 -0.7814 -0.1744
15689SOL    HW156035   0.203  10.620   5.206 -3.1917  0.4365  0.6938
15689SOL    HW256036   0.168  10.705   5.085 -1.4840 -1.2312 -1.0697
15690SOL     OW56037   0.870   3.545   7.781  0.1738  0.4058  0.6820
15690SOL    HW156038   0.836   3.556   7.693  0.9404  3.0885  0.6272
15690SOL    HW256039   0.959   3.513   7.769 -0.2706 -0.8481  0.5902
15691SOL     OW56040   7.049   5.169   1.820 -0.5318  0.5753 -0.0839
15691SOL    HW156041   6.960   5.197   1.798 -1.9474 -1.3468  2.6686
15691SOL    HW256042   7.074   5.112   1.747 -1.0893  1.9093 -1.3858
15692SOL     OW56043   2.435   0.040  12.578 -0.1357 -0.2855 -0.0950
15692SOL    HW156044   2.424   0.108  12.645 -1.1737 -0.5484  0.0223
15692SOL    HW256045   2.446  -0.041  12.628 -2.3265 -0.7030 -0.1845
15693SOL     OW56046   9.871   4.293   3.592  0.6546  0.4219 -0.1717
15693SOL    HW156047   9.847   4.228   3.657 -0.3811  1.1023  0.1595
15693SOL    HW256048   9.943   4.253   3.543  1.1155 -0.3058  1.0488
15694SOL     OW56049   2.751   8.430   0.946 -0.1467 -0.4184  0.7477
15694SOL    HW156050   2.845   8.448   0.945 -0.2801  0.3187 -0.3290
15694SOL    HW256051   2.718   8.471   0.866 -1.3135 -1.0674  0.8713
15695SOL     OW56052   7.959   9.352   5.181  0.2446  0.2414 -0.1834
15695SOL    HW156053   7.887   9.385   5.128 -1.8107 -1.0499  1.6416
15695SOL    HW256054   8.036   9.360   5.125 -1.0322  2.9637 -1.7178
15696SOL     OW56055  11.548   4.803   4.290 -0.0189  0.3398 -0.0758
15696SOL    HW156056  11.518   4.856   4.216  0.2270  0.6309  0.0347
15696SOL    HW256057  11.636   4.835   4.309  1.1736 -1.7102 -1.5813
15697SOL     OW56058   0.411   1.534   4.157 -0.1773 -0.0105 -0.6210
15697SOL    HW156059   0.331   1.494   4.192  0.6840 -1.4592 -0.2090
15697SOL    HW256060   0.423   1.492   4.072 -0.2271  0.7378 -1.0067
15698SOL     OW56061  12.173  10.666  11.544 -0.5170  0.0269 -0.2067
15698SOL    HW156062  12.247  10.612  11.572 -0.6100 -0.0511 -0.1145
15698SOL    HW256063  12.115  10.607  11.497 -0.8071 -0.0424  0.2264
15699SOL     OW56064  11.087   0.589  10.077 -0.9253 -0.0830 -0.1870
15699SOL    HW156065  11.064   0.547   9.994  0.2169 -1.4234  0.1503
15699SOL    HW256066  11.007   0.581  10.129 -0.8345 -1.6375 -0.2312
15700SOL     OW56067   4.211   5.770   3.194 -0.1129 -0.5335 -0.4691
15700SOL    HW156068   4.293   5.819   3.193  0.7555 -1.6617  2.8524
15700SOL    HW256069   4.144   5.835   3.174  1.0826  1.8755  2.6060
15701SOL     OW56070   2.884  11.157   0.231  0.2050 -0.0526 -0.3488
15701SOL    HW156071   2.859  11.176   0.140 -0.1038  0.2053 -0.2076
15701SOL    HW256072   2.890  11.242   0.273 -1.4810 -0.2547  0.3594
15702SOL     OW56073   3.145   1.497   2.811 -0.4378 -0.1401  0.4098
15702SOL    HW156074   3.184   1.571   2.764 -1.7038  1.2991  1.5308
15702SOL    HW256075   3.081   1.461   2.750 -0.6282  0.4291  0.2652
15703SOL     OW56076   4.759   6.450   9.124 -0.1049 -0.2290  0.0009
15703SOL    HW156077   4.836   6.396   9.144  0.0746 -0.5071 -1.3664
15703SOL    HW256078   4.791   6.515   9.061 -0.6194  0.7072  0.6651
15704SOL     OW56079   8.360   0.030  10.318  0.3088 -0.4793  0.0034
15704SOL    HW156080   8.304   0.079  10.378  0.6550  0.8423 -0.7171
15704SOL    HW256081   8.304   0.009  10.243  0.2158 -1.0368  0.2224
15705SOL     OW56082   7.886  11.421   7.606  0.4488  0.1327 -0.0964
15705SOL    HW156083   7.874  11.369   7.526 -1.1091  0.2807  0.0163
15705SOL    HW256084   7.885  11.512   7.576 -1.2638  0.2426  0.1643
15706SOL     OW56085   1.978  10.082   2.022 -0.1263 -0.2355  0.2630
15706SOL    HW156086   2.042  10.075   1.951  1.0285 -0.6924  1.3023
15706SOL    HW256087   1.955  10.175   2.025 -0.6577 -0.3066 -1.0824
15707SOL     OW56088  11.941   9.755   2.700  0.2091  0.2640 -0.2751
15707SOL    HW156089  11.878   9.826   2.702 -1.3800 -1.0768 -0.8498
15707SOL    HW256090  11.928   9.709   2.783  1.0527  0.4724 -0.0145
15708SOL     OW56091   8.964  12.376  10.165 -0.5703 -0.1155 -0.2228
15708SOL    HW156092   9.053  12.396  10.136 -0.5857  0.5897  0.1798
15708SOL    HW256093   8.952  12.283  10.145  0.3560 -0.2888 -0.0086
15709SOL     OW56094   4.318   4.369   7.284  0.0785  0.2971  0.2905
15709SOL    HW156095   4.249   4.304   7.299  0.1760 -0.0188 -0.5923
15709SOL    HW256096   4.293   4.412   7.202  0.6125  0.6081  0.2874
15710SOL     OW56097   1.168   4.986   6.757  0.1851  0.7260 -0.3711
15710SOL    HW156098   1.225   4.915   6.727 -1.0047 -0.0611 -0.8579
15710SOL    HW256099   1.172   5.051   6.687 -0.0784  0.3375 -0.7524
15711SOL     OW56100   4.592   7.604   9.496 -0.5650 -0.0098 -0.0169
15711SOL    HW156101   4.558   7.525   9.453 -0.7898 -0.3528  0.7624
15711SOL    HW256102   4.515   7.657   9.514 -0.2461  1.3524 -2.3281
15712SOL     OW56103   0.170  11.536  11.247  0.1852  0.4637 -0.4761
15712SOL    HW156104   0.219  11.461  11.280 -1.1168  0.2808  1.1478
15712SOL    HW256105   0.126  11.503  11.168  0.6083 -0.1154 -0.4730
15713SOL     OW56106   8.010   1.221  12.325  0.5450  0.5705  0.5966
15713SOL    HW156107   8.103   1.203  12.337  0.6578 -0.0708 -0.9367
15713SOL    HW256108   7.968   1.185  12.403  1.4376 -0.6082  0.5621
15714SOL     OW56109   8.802   2.157  11.181  0.0538 -0.1891 -0.3298
15714SOL    HW156110   8.767   2.087  11.235 -0.9994  0.9102  0.4802
15714SOL    HW256111   8.801   2.122  11.092  1.5593 -1.9347  0.2739
15715SOL     OW56112  12.025  11.129   1.385 -0.3569  0.3292  0.5155
15715SOL    HW156113  12.031  11.143   1.291  0.0198 -0.8745  0.3459
15715SOL    HW256114  12.102  11.173   1.421  0.2858 -0.4288  0.1016
15716SOL     OW56115   8.577   4.433   2.917  0.2910 -0.1277 -0.4967
15716SOL    HW156116   8.622   4.460   2.837 -0.0989  1.6861 -0.1629
15716SOL    HW256117   8.536   4.350   2.894  2.1774 -0.8813 -1.3964
15717SOL     OW56118   3.916   5.801   3.652  0.5196  0.3526  0.5442
15717SOL    HW156119   3.910   5.893   3.627 -1.7281  0.5309  1.4940
15717SOL    HW256120   3.985   5.798   3.718  1.8171  1.0150 -0.7354
15718SOL     OW56121   9.025   4.984   7.965 -0.0137 -0.2246  0.3067
15718SOL    HW156122   9.003   5.013   8.054  0.9198 -0.6441  0.6984
15718SOL    HW256123   9.117   5.010   7.954  0.2201 -1.1783 -0.0928
15719SOL     OW56124   5.001   8.800   5.186  0.2048 -0.0990 -0.0187
15719SOL    HW156125   5.049   8.784   5.105 -2.0153 -2.0197 -1.0661
15719SOL    HW256126   4.954   8.882   5.170 -0.8238 -0.8433 -1.0762
15720SOL     OW56127   1.401  11.287   5.062 -0.9195 -0.0860  0.5977
15720SOL    HW156128   1.468  11.274   4.996  0.0591 -0.7365  1.6783
15720SOL    HW256129   1.413  11.377   5.093  1.8890 -1.1918  3.2681
15721SOL     OW56130   1.443   7.606   5.049  0.4683 -0.2112 -0.1077
15721SOL    HW156131   1.441   7.683   4.993  2.3260  0.6931  0.9897
15721SOL    HW256132   1.412   7.535   4.992 -0.8946  1.2370 -1.2590
15722SOL     OW56133   5.087   5.358   7.862 -0.1800 -0.2574 -0.1353
15722SOL    HW156134   5.101   5.274   7.907  1.5679 -0.4948 -1.0308
15722SOL    HW256135   5.016   5.400   7.911 -0.1575 -1.6526  1.1781
15723SOL     OW56136   7.700  10.436   9.958 -0.3266 -0.4596 -0.0817
15723SOL    HW156137   7.708  10.391  10.042 -1.2251 -1.5524 -0.5646
15723SOL    HW256138   7.721  10.370   9.892  0.0362  0.2958 -0.7420
15724SOL     OW56139   8.726   2.558   2.776 -0.1754  0.3767 -0.0366
15724SOL    HW156140   8.822   2.563   2.784 -0.1187 -1.4014  1.0609
15724SOL    HW256141   8.712   2.512   2.693 -0.1331  1.4423 -0.6528
15725SOL     OW56142   2.633   9.047   9.832  0.3687  0.5605 -0.5243
15725SOL    HW156143   2.601   9.137   9.844  0.1772  0.4947 -0.5377
15725SOL    HW256144   2.676   9.048   9.747 -0.2315  0.4722 -0.8371
15726SOL     OW56145   8.749   0.600   3.661  0.1510 -0.5957  0.1642
15726SOL    HW156146   8.831   0.554   3.678  0.3964  0.2449  1.3675
15726SOL    HW256147   8.719   0.629   3.747 -1.5398 -1.0766 -0.2111
15727SOL     OW56148  11.982  11.369   9.447 -0.5450  0.3036  0.1691
15727SOL    HW156149  11.889  11.346   9.445 -0.6756  0.6834 -2.3770
15727SOL    HW256150  12.020  11.312   9.513 -2.2704 -1.2840 -0.1351
15728SOL     OW56151  11.759   4.080   3.683  0.0402 -0.1882  0.1728
15728SOL    HW156152  11.841   4.060   3.727  1.0083 -0.7133 -1.7616
15728SOL    HW256153  11.770   4.170   3.651 -0.7454  0.2758  1.1613
15729SOL     OW56154   1.852  11.541   9.541  0.6904  0.0934  0.2008
15729SOL    HW156155   1.896  11.550   9.625 -0.4835  0.4222  0.8041
15729SOL    HW256156   1.759  11.534   9.563  0.4374 -0.7403 -1.0124
15730SOL     OW56157   7.662   6.667   8.514  0.5324 -0.4230 -0.4223
15730SOL    HW156158   7.587   6.632   8.466 -0.0470 -0.9455  0.8108
15730SOL    HW256159   7.731   6.603   8.499  0.3869 -0.5361 -0.6250
15731SOL     OW56160   6.404   7.553   1.091 -0.0769 -0.0430 -0.3724
15731SOL    HW156161   6.415   7.597   1.006 -0.0388  0.6104 -0.0352
15731SOL    HW256162   6.310   7.556   1.108  0.1582  2.4716  0.9606
15732SOL     OW56163   6.888   8.505   9.242 -0.1312  0.7419 -0.1864
15732SOL    HW156164   6.869   8.565   9.170 -0.4548  0.7360 -0.1079
15732SOL    HW256165   6.806   8.456   9.255 -0.3145  1.2521  0.6672
15733SOL     OW56166   2.939   6.489   8.855  0.0218 -0.9552  0.1736
15733SOL    HW156167   3.016   6.434   8.841  1.1273 -0.2009  2.7737
15733SOL    HW256168   2.865   6.432   8.832  1.2667 -2.2641 -0.7580
15734SOL     OW56169   3.549   1.011   1.354 -0.5778 -0.3630 -0.3283
15734SOL    HW156170   3.474   0.953   1.367 -0.0991 -1.1022 -0.8135
15734SOL    HW256171   3.572   1.041   1.442 -0.3027 -1.5900  0.0384
15735SOL     OW56172  10.429   9.305   2.964 -0.1945  0.4500 -0.1101
15735SOL    HW156173  10.443   9.277   3.054  1.3826  0.0643 -0.4510
15735SOL    HW256174  10.373   9.382   2.972  0.1909  0.6204  1.2259
15736SOL     OW56175   3.197  10.421   5.509  0.3847 -0.2563 -0.2577
15736SOL    HW156176   3.127  10.460   5.562  1.4966  0.1630  0.9245
15736SOL    HW256177   3.179  10.327   5.513 -0.9473 -0.0814 -1.1953
15737SOL     OW56178   3.778  12.233  11.911 -0.4913  0.8972 -0.1415
15737SOL    HW156179   3.857  12.263  11.867  0.1549 -1.5863 -0.8185
15737SOL    HW256180   3.739  12.170  11.851 -1.7899  0.4065  1.1482
15738SOL     OW56181   3.612   5.192   2.119 -0.0245 -0.1429 -0.0394
15738SOL    HW156182   3.573   5.279   2.119 -0.6510 -0.4163 -0.4053
15738SOL    HW256183   3.654   5.183   2.034 -1.7730 -0.9684 -0.8710
15739SOL     OW56184  10.279   8.829   8.507  0.6490 -0.6836  0.1506
15739SOL    HW156185  10.348   8.766   8.527 -0.1043 -1.4794  0.3121
15739SOL    HW256186  10.279   8.889   8.581  0.0447 -1.6931  0.9990
15740SOL     OW56187   9.810   5.845  10.665 -0.3013  0.2892 -0.5412
15740SOL    HW156188   9.795   5.809  10.577 -0.0040 -3.2928  0.6829
15740SOL    HW256189   9.728   5.888  10.688 -0.5018  0.9846 -2.3916
15741SOL     OW56190   4.493   5.260   0.123  0.2759  0.4499  0.0407
15741SOL    HW156191   4.548   5.334   0.102 -0.2601  1.0504  0.7021
15741SOL    HW256192   4.553   5.187   0.135  0.7586  0.6042 -1.2775
15742SOL     OW56193   4.175  10.462   8.134 -0.0700 -0.1854 -0.0172
15742SOL    HW156194   4.231  10.523   8.182 -0.1000 -1.4783  1.7734
15742SOL    HW256195   4.236  10.405   8.087  0.0709 -0.5336  0.5793
15743SOL     OW56196  12.572  12.146   0.654  0.1907 -0.0700 -0.3402
15743SOL    HW156197  12.648  12.203   0.668  0.1989 -0.2758  0.5447
15743SOL    HW256198  12.517  12.194   0.592  0.5922  0.5255 -0.2506
15744SOL     OW56199  11.488  12.374   0.018 -0.1046 -0.9685 -0.3330
15744SOL    HW156200  11.550  12.304   0.035 -0.7143 -1.3515  0.4031
15744SOL    HW256201  11.402  12.333   0.030 -0.4710 -0.1418 -0.0711
15745SOL     OW56202   3.899  11.436  12.048  0.0293 -0.1151  0.3732
15745SOL    HW156203   3.814  11.461  12.083 -0.0778 -0.4204  0.3390
15745SOL    HW256204   3.920  11.353  12.091  0.2517 -0.1036  0.2916
15746SOL     OW56205   1.096   8.415  10.593 -0.1257  0.2810 -0.2910
15746SOL    HW156206   1.093   8.434  10.687 -0.8384 -1.1531  0.0038
15746SOL    HW256207   1.168   8.469  10.560  2.0736 -1.2728  1.5919
15747SOL     OW56208  11.884   9.690   8.775  0.0835 -0.5060  0.0040
15747SOL    HW156209  11.957   9.727   8.824 -0.4004 -0.9120  1.0667
15747SOL    HW256210  11.807   9.735   8.809 -0.1656  0.0413 -1.2252
15748SOL     OW56211   6.920   3.741  10.335 -0.0706  0.1906 -0.0959
15748SOL    HW156212   6.927   3.713  10.426  0.5846 -0.0634 -0.2216
15748SOL    HW256213   6.892   3.663  10.288  1.6128 -0.2505 -0.4216
15749SOL     OW56214  10.890   3.285  10.561 -0.6572  0.0847  0.4071
15749SOL    HW156215  10.794   3.280  10.568 -0.4851 -2.7504  1.8534
15749SOL    HW256216  10.910   3.377  10.581 -2.9519  0.3520  1.8838
15750SOL     OW56217  10.062   0.328   7.633  0.0183  0.2243  0.2960
15750SOL    HW156218  10.055   0.325   7.729  2.0672 -0.5214  0.4703
15750SOL    HW256219  10.128   0.263   7.612 -0.0342  0.7301 -1.6088
15751SOL     OW56220  12.551  12.530   4.624 -0.0041  0.0617  0.5625
15751SOL    HW156221  12.555  12.600   4.560  0.7074  1.4070  2.0136
15751SOL    HW256222  12.597  12.457   4.583 -0.0094  0.7141 -0.6403
15752SOL     OW56223  12.491   7.198   3.728 -0.0166  0.0318  0.4673
15752SOL    HW156224  12.575   7.182   3.770  2.0276  4.7831 -1.1671
15752SOL    HW256225  12.512   7.221   3.638 -3.2176  0.3871 -0.3344
15753SOL     OW56226   9.482   3.716  11.861  0.6182 -0.2933  0.4251
15753SOL    HW156227   9.555   3.739  11.918  0.1433  1.1692  0.4622
15753SOL    HW256228   9.435   3.647  11.909  0.4162  0.6737  1.6656
15754SOL     OW56229   0.508  11.862   2.062 -0.1764 -0.5962 -0.8362
15754SOL    HW156230   0.502  11.784   2.116  0.0986  0.0874  0.1986
15754SOL    HW256231   0.539  11.830   1.977 -2.7162 -1.9774 -1.3319
15755SOL     OW56232   9.676   1.750   0.448 -0.4840 -0.2725  0.1701
15755SOL    HW156233   9.751   1.771   0.393 -1.1356 -0.5124 -0.8356
15755SOL    HW256234   9.625   1.830   0.451  0.1145  0.0994  1.4052
15756SOL     OW56235  10.863  11.875   9.064 -0.1021  0.7546  0.5751
15756SOL    HW156236  10.927  11.938   9.032 -0.2037  0.3866 -0.3698
15756SOL    HW256237  10.801  11.928   9.115  1.2092  1.0452  1.9447
15757SOL     OW56238   0.087   3.825  12.080 -0.4869  0.3791 -0.2972
15757SOL    HW156239   0.110   3.909  12.120  1.5229 -0.3407  0.1757
15757SOL    HW256240   0.140   3.821  12.001 -1.5502  0.0931 -1.0184
15758SOL     OW56241  12.346  12.050  10.646  0.6853 -0.3006  0.0458
15758SOL    HW156242  12.431  12.087  10.669  0.8949 -1.2706  0.8621
15758SOL    HW256243  12.283  12.115  10.676  1.0781 -0.2361  0.7386
15759SOL     OW56244   4.374   5.897   9.121  0.2357 -0.1537  0.1132
15759SOL    HW156245   4.362   5.870   9.212 -0.9192 -0.0299  0.0014
15759SOL    HW256246   4.421   5.824   9.080  1.7761  0.2546  1.0511
15760SOL     OW56247   4.856   4.870  11.346  0.3370  0.3625  0.2103
15760SOL    HW156248   4.912   4.831  11.414  0.8448  1.4144  0.4019
15760SOL    HW256249   4.906   4.944  11.313 -0.6646  0.9177 -0.0830
15761SOL     OW56250   3.616  11.546  10.842 -0.0483  0.1062  0.3017
15761SOL    HW156251   3.551  11.502  10.897  0.8432  0.4159  1.6577
15761SOL    HW256252   3.575  11.550  10.755 -1.5510 -0.2980  0.9526
15762SOL     OW56253   0.221   4.532   8.309 -0.7287  0.3942  0.5063
15762SOL    HW156254   0.312   4.556   8.291 -0.4206  0.8995  2.4941
15762SOL    HW256255   0.220   4.437   8.306 -0.9766  0.3754 -3.0320
15763SOL     OW56256   5.495  10.773   0.604 -0.3868 -0.7364 -0.2221
15763SOL    HW156257   5.434  10.803   0.537 -1.5142 -2.3475  0.0283
15763SOL    HW256258   5.451  10.699   0.645  0.5114 -0.1571  1.9306
15764SOL     OW56259   4.233  11.817   6.124  0.0097  0.5047 -0.5142
15764SOL    HW156260   4.242  11.892   6.066 -0.1760  0.6727 -0.3300
15764SOL    HW256261   4.288  11.838   6.199  0.2931  0.2624 -0.6543
15765SOL     OW56262   7.037   2.765   2.448 -0.4184  0.1851  0.2417
15765SOL    HW156263   6.985   2.800   2.376  2.0702 -0.0268 -1.7931
15765SOL    HW256264   7.065   2.842   2.498 -1.4376  0.4025  0.4962
15766SOL     OW56265   9.717   3.276   2.117  0.7865 -0.0160 -0.5673
15766SOL    HW156266   9.634   3.257   2.162  0.8994 -1.6000 -0.9744
15766SOL    HW256267   9.736   3.367   2.139 -0.6698  0.1362  0.1654
15767SOL     OW56268   4.145   4.411   1.756  0.2354  0.2066  0.3752
15767SOL    HW156269   4.086   4.460   1.699 -0.2878  0.8930  1.4896
15767SOL    HW256270   4.107   4.324   1.761 -0.4203  0.5074  0.6934
15768SOL     OW56271  11.744  11.530   5.894  0.6964  0.3077 -0.2308
15768SOL    HW156272  11.769  11.589   5.965  0.9913 -0.0771 -0.0064
15768SOL    HW256273  11.789  11.448   5.915  0.5941  0.1205 -0.7383
15769SOL     OW56274  11.625  11.974   5.414 -0.4112  0.2047  0.0195
15769SOL    HW156275  11.595  12.065   5.423 -0.6278  0.2777 -1.2563
15769SOL    HW256276  11.714  11.974   5.449 -0.9067  0.5962  1.3186
15770SOL     OW56277   3.633   2.109   2.286  0.5594 -0.3655 -0.1910
15770SOL    HW156278   3.719   2.105   2.244  0.6538 -0.6081  0.0270
15770SOL    HW256279   3.651   2.108   2.380  0.4034  1.3101 -0.1179
15771SOL     OW56280   0.557   9.206   5.912  0.2415 -0.1191  0.4354
15771SOL    HW156281   0.479   9.261   5.913 -1.6997 -2.5593 -2.0476
15771SOL    HW256282   0.555   9.159   5.995 -0.7956  0.0007  0.4891
15772SOL     OW56283   8.401   5.339   3.576 -0.6545  0.1309  0.0546
15772SOL    HW156284   8.479   5.343   3.632  1.4110  0.0011 -2.6034
15772SOL    HW256285   8.372   5.248   3.582  0.6303 -0.3293 -0.4496
15773SOL     OW56286   5.377   7.768   2.872  0.1085  0.6878 -0.8134
15773SOL    HW156287   5.378   7.674   2.888  0.6508  0.7070 -0.6865
15773SOL    HW256288   5.285   7.790   2.856  0.1488 -0.1186 -2.3666
15774SOL     OW56289   6.517   2.324   8.990  0.3144  0.2980 -0.3760
15774SOL    HW156290   6.427   2.334   8.959 -0.2770  3.1895  1.8284
15774SOL    HW256291   6.540   2.410   9.025  5.1100  0.6967 -3.5031
15775SOL     OW56292  10.021   9.323   7.355 -0.3165  0.2232 -0.0640
15775SOL    HW156293  10.081   9.397   7.345  0.0735 -0.1317 -0.4423
15775SOL    HW256294  10.017   9.284   7.267 -0.7612 -0.0138  0.0607
15776SOL     OW56295   3.340   3.128   4.429 -0.6305 -0.0266  0.3480
15776SOL    HW156296   3.315   3.059   4.367  0.8827  0.0509 -0.4120
15776SOL    HW256297   3.425   3.100   4.463 -0.7080  0.7227  1.2027
15777SOL     OW56298   3.282   5.570   4.129 -0.3755  0.0768 -0.1375
15777SOL    HW156299   3.266   5.587   4.222  1.6043  3.0874 -0.1899
15777SOL    HW256300   3.375   5.546   4.125 -0.4744 -0.1380 -1.3299
15778SOL     OW56301   7.389   3.615   1.955  0.9010  0.2135 -0.0561
15778SOL    HW156302   7.421   3.647   1.870  0.7704  4.0030  1.1568
15778SOL    HW256303   7.378   3.693   2.008 -1.9125 -1.7245  2.5611
15779SOL     OW56304  10.442   6.710  10.409  0.3450  0.2284  0.0558
15779SOL    HW156305  10.495   6.685  10.333  0.2406  0.4563 -0.0927
15779SOL    HW256306  10.506   6.724  10.479  0.4162 -0.3376  0.1114
15780SOL     OW56307   7.691   4.120   0.284 -0.1276 -0.0004 -0.1553
15780SOL    HW156308   7.689   4.093   0.376 -4.2542 -1.2608 -0.4286
15780SOL    HW256309   7.730   4.046   0.238 -1.9835 -1.2688  0.2103
15781SOL     OW56310  10.784  11.549   5.531 -0.1393  0.2017 -0.3133
15781SOL    HW156311  10.699  11.548   5.486 -0.0361  0.5257 -0.5278
15781SOL    HW256312  10.844  11.507   5.469 -0.0091  0.5903 -0.4551
15782SOL     OW56313   1.515   7.934   9.872 -0.4810 -0.6990 -0.0412
15782SOL    HW156314   1.490   7.898   9.957 -2.4969  0.2849 -0.1570
15782SOL    HW256315   1.610   7.945   9.877 -0.3721 -2.0313  1.5224
15783SOL     OW56316  10.388   4.708   0.349 -0.6152  0.0219 -0.1509
15783SOL    HW156317  10.296   4.699   0.327 -0.6118  0.6363 -0.4448
15783SOL    HW256318  10.395   4.796   0.387  0.0043  0.3405 -0.9713
15784SOL     OW56319   2.824   7.531   8.227  0.5428 -0.0051  0.3003
15784SOL    HW156320   2.810   7.446   8.270  0.8406  0.0887  0.5918
15784SOL    HW256321   2.835   7.509   8.135  0.8083 -0.3073  0.3989
15785SOL     OW56322   5.148   3.266  12.429 -0.2487  0.2421 -0.0232
15785SOL    HW156323   5.230   3.237  12.389  0.3867  1.2948  0.4783
15785SOL    HW256324   5.083   3.200  12.401  1.0339 -1.4256  0.7509
15786SOL     OW56325   8.626   4.900   7.667  0.2892  0.3683  0.1237
15786SOL    HW156326   8.590   4.971   7.720 -1.1224  0.2910 -0.6991
15786SOL    HW256327   8.660   4.944   7.588 -1.5108  0.0620 -0.8597
15787SOL     OW56328  11.826   4.536  12.126  0.2269 -0.5787  0.8046
15787SOL    HW156329  11.902   4.591  12.145  2.3139 -2.3347 -1.7334
15787SOL    HW256330  11.829   4.468  12.194  1.2956 -0.9038  0.4642
15788SOL     OW56331   0.430  12.297   0.178 -0.2586  0.1315  0.1318
15788SOL    HW156332   0.468  12.351   0.110  0.7625 -2.0526 -1.1334
15788SOL    HW256333   0.503  12.275   0.236 -0.7912  0.5995  1.0123
15789SOL     OW56334  10.527   4.458   3.263 -0.0391  0.1840  0.2811
15789SOL    HW156335  10.488   4.538   3.228 -0.9703  0.6673  2.3412
15789SOL    HW256336  10.521   4.466   3.358  0.7025 -1.9267  0.5754
15790SOL     OW56337   4.525  12.384   8.096  0.5895 -0.1070 -0.0919
15790SOL    HW156338   4.558  12.469   8.066 -0.6000 -0.1033 -1.4973
15790SOL    HW256339   4.452  12.364   8.037 -1.3766 -0.5256  2.3061
15791SOL     OW56340   1.718   6.699   8.501  0.3158  0.3445 -1.1177
15791SOL    HW156341   1.778   6.771   8.521 -1.9615  1.7563  1.2087
15791SOL    HW256342   1.639   6.719   8.551 -2.0538 -1.5369 -3.8031
15792SOL     OW56343   0.990   2.506   1.069  0.4911 -0.1427 -1.1029
15792SOL    HW156344   1.081   2.489   1.045  0.6214  0.6317 -1.1830
15792SOL    HW256345   0.991   2.513   1.164  0.6370  0.5237 -1.1494
15793SOL     OW56346   5.664  11.759   9.303  0.3563 -0.4118  0.0800
15793SOL    HW156347   5.707  11.715   9.377  0.2278  0.3263  0.6062
15793SOL    HW256348   5.580  11.713   9.293  1.1542 -1.7436 -0.8348
15794SOL     OW56349   2.187   6.183  10.290 -0.2607 -0.0875 -0.2904
15794SOL    HW156350   2.150   6.172  10.202 -0.6987 -1.2375  0.0132
15794SOL    HW256351   2.265   6.127  10.290 -0.9603 -1.1073  0.4261
15795SOL     OW56352   6.667  11.522   8.309 -0.1936 -0.1380  0.1390
15795SOL    HW156353   6.669  11.604   8.259  1.4066 -0.1393  0.1534
15795SOL    HW256354   6.625  11.459   8.250  2.4786 -0.3785 -1.6682
15796SOL     OW56355  10.301   9.555   0.290  0.2133  0.8348 -0.2031
15796SOL    HW156356  10.383   9.514   0.319 -0.7822 -1.4480 -0.4445
15796SOL    HW256357  10.328   9.614   0.219  1.5699 -0.5069 -0.8606
15797SOL     OW56358   6.514   9.398  12.043  0.8256  0.9955  0.1720
15797SOL    HW156359   6.489   9.373  12.132  0.8028  0.7104  0.0871
15797SOL    HW256360   6.435   9.386  11.992  0.9945  0.5787 -0.0010
15798SOL     OW56361   9.309   3.882   3.648  0.1056 -0.1060  0.6090
15798SOL    HW156362   9.224   3.925   3.658 -0.0816 -0.4313  0.4409
15798SOL    HW256363   9.288   3.792   3.626  0.5023  0.1566 -0.9393
15799SOL     OW56364   2.552   4.873  11.740  0.0278  0.5826  0.1141
15799SOL    HW156365   2.570   4.874  11.834  0.3783 -0.9645  0.0930
15799SOL    HW256366   2.485   4.805  11.729 -0.3185  1.0370 -0.7141
15800SOL     OW56367   3.768  11.743   9.868  0.4800  0.4172  0.4939
15800SOL    HW156368   3.724  11.741   9.783 -2.2603  1.0175  1.8128
15800SOL    HW256369   3.717  11.685   9.924  1.6497  0.7895  2.0281
15801SOL     OW56370  10.288   8.386  11.296 -0.2962 -0.6389 -0.2450
15801SOL    HW156371  10.212   8.387  11.238  0.4702  0.8749 -1.2714
15801SOL    HW256372  10.361   8.415  11.241  1.6226 -4.3469 -0.0248
15802SOL     OW56373   7.845  10.354   7.151  0.4304 -0.2666 -0.2973
15802SOL    HW156374   7.808  10.267   7.164 -0.4609 -0.0018 -0.9711
15802SOL    HW256375   7.907  10.343   7.079  1.2353 -0.5781  0.4207
15803SOL     OW56376   7.615   5.300   6.116  0.1300  0.3120 -0.1933
15803SOL    HW156377   7.674   5.376   6.108 -0.1830  0.6380  0.4933
15803SOL    HW256378   7.530   5.333   6.088  0.0349  0.1620 -0.0815
15804SOL     OW56379   7.718  12.247   3.441 -0.2609 -0.1265  0.0455
15804SOL    HW156380   7.626  12.270   3.427 -0.3176 -0.7172 -0.5842
15804SOL    HW256381   7.716  12.178   3.507 -0.2640 -0.1183  0.0544
15805SOL     OW56382  11.637   8.024   5.955 -0.1689 -0.1441 -0.5129
15805SOL    HW156383  11.674   8.035   6.043  0.1809  1.2817 -0.8138
15805SOL    HW256384  11.669   8.100   5.906  0.7224 -1.5784 -2.2754
15806SOL     OW56385  11.042   6.152   5.705  0.1794 -0.3045  0.3619
15806SOL    HW156386  11.014   6.234   5.664  1.1256 -0.5842 -0.9134
15806SOL    HW256387  10.962   6.116   5.744 -0.2638  1.1714  0.8960
15807SOL     OW56388   7.849  12.210   1.557  0.0842 -0.6619  0.6262
15807SOL    HW156389   7.914  12.280   1.550 -0.2968 -0.3243  0.4098
15807SOL    HW256390   7.774  12.242   1.507 -0.6568 -0.5805  1.7632
15808SOL     OW56391   9.928  12.063   1.556  0.0554 -0.1127 -0.4983
15808SOL    HW156392   9.934  12.016   1.473 -1.8736 -0.3329 -0.5566
15808SOL    HW256393   9.856  12.021   1.602 -0.2429  1.3377  0.4159
15809SOL     OW56394   1.530   9.617  10.007  0.1826  0.2844  0.6619
15809SOL    HW156395   1.460   9.599   9.944 -0.8943  3.6353  0.7393
15809SOL    HW256396   1.486   9.628  10.090  0.8927  1.5561  0.8880
15810SOL     OW56397   9.046   5.650   2.348  0.0568 -0.3031  0.2772
15810SOL    HW156398   8.988   5.703   2.401  0.5532  1.4742 -0.8855
15810SOL    HW256399   9.129   5.697   2.349  0.8931 -1.7042  0.1885
15811SOL     OW56400  10.210  11.208   8.642 -0.0219 -0.0967 -0.2350
15811SOL    HW156401  10.136  11.263   8.614 -1.0881 -1.8079 -0.9725
15811SOL    HW256402  10.265  11.202   8.564  0.3991  0.3794  0.0217
15812SOL     OW56403   5.916   2.013   4.275  0.1363 -0.4087  0.2307
15812SOL    HW156404   5.894   1.985   4.186 -0.3911  2.6730 -0.7314
15812SOL    HW256405   5.853   1.966   4.330 -0.9633 -0.7944 -1.2567
15813SOL     OW56406   5.381  12.149   2.584 -0.6161  0.0731 -0.0370
15813SOL    HW156407   5.313  12.143   2.518 -1.4453 -2.5463  0.9524
15813SOL    HW256408   5.383  12.063   2.627  2.2009  0.5470  1.0856
15814SOL     OW56409   3.252   3.915   2.392 -0.8038  0.2449 -0.1465
15814SOL    HW156410   3.318   3.955   2.334 -0.6635 -1.4289 -1.2028
15814SOL    HW256411   3.302   3.854   2.446 -1.4954 -1.5191 -1.4017
15815SOL     OW56412   8.897   7.932   8.537  0.3381 -0.0505  0.0443
15815SOL    HW156413   8.972   7.983   8.507 -0.1730  0.0339 -1.1843
15815SOL    HW256414   8.916   7.842   8.509  0.8651 -0.3986  1.4789
15816SOL     OW56415   5.180   2.085   9.282  0.6114 -0.2799 -0.7745
15816SOL    HW156416   5.200   2.163   9.230  2.5434 -0.3715 -0.2518
15816SOL    HW256417   5.240   2.018   9.249 -0.1608 -1.1915 -0.3744
15817SOL     OW56418  12.328   0.848   7.914  0.5078  0.1274 -0.3153
15817SOL    HW156419  12.302   0.787   7.983  1.4452  0.5615  0.4395
15817SOL    HW256420  12.269   0.923   7.925 -0.9750 -0.7732 -1.5474
15818SOL     OW56421   6.559   3.186   9.387  0.0921 -0.1355 -0.4500
15818SOL    HW156422   6.495   3.224   9.327  0.8522 -0.0944 -1.2601
15818SOL    HW256423   6.580   3.101   9.347 -0.6622 -0.8801  0.6785
15819SOL     OW56424  10.024  10.762  11.517  0.3280 -0.5329  0.7455
15819SOL    HW156425  10.098  10.706  11.497 -1.0903 -2.3658  0.3669
15819SOL    HW256426  10.016  10.758  11.613  0.3558 -0.8221  0.7358
15820SOL     OW56427  11.214   2.015   4.612 -0.1914 -0.1455 -0.5129
15820SOL    HW156428  11.281   1.947   4.610 -1.3319 -1.3164 -0.2532
15820SOL    HW256429  11.248   2.084   4.555  2.0739  0.1545  1.0986
15821SOL     OW56430   3.497   0.878   7.757 -0.2194  0.4169 -0.0992
15821SOL    HW156431   3.487   0.886   7.662 -1.0389 -1.4771 -0.2298
15821SOL    HW256432   3.413   0.842   7.787  0.7007 -0.9123  1.0537
15822SOL     OW56433   1.653   6.857   4.968 -0.0005  0.0035 -0.1838
15822SOL    HW156434   1.743   6.889   4.965  0.6638 -1.5917  0.9645
15822SOL    HW256435   1.605   6.925   5.015  0.5080  1.0384 -1.1115
15823SOL     OW56436   6.920   2.348   3.417 -0.1141  0.8942 -0.0905
15823SOL    HW156437   6.942   2.371   3.327 -0.1377 -2.4513 -1.0862
15823SOL    HW256438   6.858   2.415   3.445  0.4822  2.4545 -2.2733
15824SOL     OW56439   2.414   7.611  11.043 -0.0234 -0.0029  0.2605
15824SOL    HW156440   2.422   7.703  11.069  0.6954  0.6390 -1.9836
15824SOL    HW256441   2.504   7.582  11.029 -0.3115  0.0853 -2.4172
15825SOL     OW56442   1.010  12.139   7.722 -0.2332 -0.3497 -0.3290
15825SOL    HW156443   0.952  12.186   7.781  0.3743  0.8836 -0.6885
15825SOL    HW256444   0.965  12.055   7.707  0.2384 -1.3179  2.9170
15826SOL     OW56445   3.886  11.360  10.823 -0.5926 -0.4339  0.0298
15826SOL    HW156446   3.806  11.412  10.825 -0.4552 -0.2328  2.1380
15826SOL    HW256447   3.956  11.424  10.809 -0.6200 -0.3524  0.2673
15827SOL     OW56448  11.735   0.559   2.300 -0.1885  0.5695  0.7260
15827SOL    HW156449  11.685   0.501   2.357  2.8596 -0.3052  2.7701
15827SOL    HW256450  11.699   0.544   2.213 -1.7792 -1.8650  1.6880
15828SOL     OW56451  10.029   3.538   0.420 -0.2672 -0.3708 -0.3648
15828SOL    HW156452   9.957   3.485   0.456 -1.2122  1.0957  0.0089
15828SOL    HW256453  10.067   3.581   0.497  0.3159 -0.3141 -0.6827
15829SOL     OW56454  10.345  11.785   0.710 -0.4382 -0.4085  0.2649
15829SOL    HW156455  10.431  11.765   0.746 -0.8084  0.0128  1.4177
15829SOL    HW256456  10.363  11.821   0.623  0.6073  0.5166  0.8381
15830SOL     OW56457  12.163  12.018   2.114 -0.1049  0.0338  0.3673
15830SOL    HW156458  12.237  11.998   2.171  1.5438  0.5069 -1.4851
15830SOL    HW256459  12.170  11.954   2.043  0.0419  1.6328 -1.1213
15831SOL     OW56460   9.181   1.155  12.593  0.1866  0.3116 -0.6675
15831SOL    HW156461   9.194   1.220  12.524  0.4056  1.0928  0.0900
15831SOL    HW256462   9.229   1.189  12.668 -0.4650 -0.2606  0.0332
15832SOL     OW56463   9.906   0.492  12.240 -0.5313 -0.0782 -0.1061
15832SOL    HW156464   9.968   0.502  12.168  1.3080  0.5724  1.4793
15832SOL    HW256465   9.821   0.489  12.198  0.5647 -1.7515 -2.4660
15833SOL     OW56466  12.185   7.527   1.720  0.1438 -0.4788  0.2356
15833SOL    HW156467  12.202   7.508   1.628  0.1936 -1.5945  0.4625
15833SOL    HW256468  12.238   7.604   1.739 -0.4697  0.2436 -0.8649
15834SOL     OW56469   8.386   0.736   7.381 -0.6701  0.2254 -0.0515
15834SOL    HW156470   8.451   0.799   7.411  0.4231 -0.6239 -0.5445
15834SOL    HW256471   8.436   0.656   7.364 -1.9585 -0.6976  0.2716
15835SOL     OW56472   5.683   3.388   9.127  0.0317 -0.6522  0.4186
15835SOL    HW156473   5.632   3.452   9.078  1.5343 -0.0649 -0.4217
15835SOL    HW256474   5.706   3.433   9.208  1.3300  0.0021 -0.2952
15836SOL     OW56475  11.773  12.554   6.874 -0.0792  0.0127 -0.2710
15836SOL    HW156476  11.803  12.636   6.914  0.0732  0.4798 -1.3068
15836SOL    HW256477  11.846  12.525   6.820 -1.1477  0.7823 -2.2553
15837SOL     OW56478   0.241   3.779   4.178 -0.5468  0.4000  0.1233
15837SOL    HW156479   0.322   3.780   4.127 -0.6203  1.0516  0.0093
15837SOL    HW256480   0.203   3.693   4.160 -1.4502  1.2155 -2.3491
15838SOL     OW56481  10.597   3.991   6.413 -0.0484  0.0712  0.5669
15838SOL    HW156482  10.543   3.969   6.489  1.0817  0.7809  1.6264
15838SOL    HW256483  10.555   3.946   6.340 -3.0952  1.9789  0.9473
15839SOL     OW56484   9.474  11.364  10.862 -0.3964 -0.4142 -0.2685
15839SOL    HW156485   9.487  11.366  10.767  0.4034  1.1201 -0.1504
15839SOL    HW256486   9.392  11.412  10.875 -0.3172 -0.3127 -0.1524
15840SOL     OW56487   3.318   0.431   1.196 -0.4116  0.3029  0.2506
15840SOL    HW156488   3.229   0.454   1.225 -0.4538 -0.1644  0.4955
15840SOL    HW256489   3.369   0.426   1.277 -0.8138 -2.2761  0.4158
15841SOL     OW56490   2.553  11.516   5.910  0.2639  0.1630 -0.5160
15841SOL    HW156491   2.521  11.580   5.973 -0.3755 -0.5767 -0.0727
15841SOL    HW256492   2.648  11.524   5.913  0.2086  0.6825 -0.0432
15842SOL     OW56493  12.056   4.293   8.660  0.3782  0.4346  0.1311
15842SOL    HW156494  12.067   4.282   8.754 -3.4529 -3.0631  0.4940
15842SOL    HW256495  11.985   4.356   8.651  0.2550  0.2332 -0.3555
15843SOL     OW56496   4.002   9.469   2.041 -0.1762  0.1581  0.4208
15843SOL    HW156497   4.070   9.408   2.010 -0.1660 -0.0421  0.8263
15843SOL    HW256498   4.005   9.542   1.979 -2.0429 -1.4526 -1.7311
15844SOL     OW56499   8.152   1.917   2.777  0.0748  0.3851  0.6333
15844SOL    HW156500   8.101   1.840   2.805 -1.9959  0.9641 -1.2290
15844SOL    HW256501   8.227   1.880   2.731 -0.2496 -0.5550  0.8321
15845SOL     OW56502  10.308  12.585   1.624  0.0057  0.1572 -0.0517
15845SOL    HW156503  10.312  12.675   1.655  1.2039  0.2730 -0.5101
15845SOL    HW256504  10.239  12.586   1.558  0.3092  0.8494 -0.3746
15846SOL     OW56505   2.668   1.742   7.535  0.5540 -0.1338  0.5085
15846SOL    HW156506   2.658   1.652   7.566 -1.8776  0.2938  1.2226
15846SOL    HW256507   2.613   1.794   7.594 -0.3781  1.4024 -1.5735
15847SOL     OW56508   8.068   8.458   5.632 -0.1992 -0.3432  0.1210
15847SOL    HW156509   8.007   8.405   5.684 -3.0409  2.3141 -0.2100
15847SOL    HW256510   8.045   8.440   5.541 -0.2268  0.3743 -0.0224
15848SOL     OW56511   2.550   3.649   3.817 -0.3786 -0.3831  0.1080
15848SOL    HW156512   2.472   3.602   3.846  0.7091 -1.6111  1.1913
15848SOL    HW256513   2.593   3.677   3.898  0.4356  0.0562 -0.4550
15849SOL     OW56514  12.299   4.111   5.775 -0.1945 -0.1568  0.6611
15849SOL    HW156515  12.389   4.129   5.803  0.0347  0.4776 -0.4090
15849SOL    HW256516  12.263   4.198   5.756 -0.6412 -0.4814 -0.0245
15850SOL     OW56517   3.288   6.635   0.896  0.3688 -0.3007 -0.0576
15850SOL    HW156518   3.374   6.595   0.879  0.1442 -0.4127 -1.0109
15850SOL    HW256519   3.227   6.561   0.893 -0.1013  0.1017 -2.2220
15851SOL     OW56520  10.345  10.386   2.842  0.8866 -0.8832 -0.6989
15851SOL    HW156521  10.398  10.307   2.853  1.3258 -0.2544  2.7136
15851SOL    HW256522  10.261  10.354   2.809  1.7264 -2.4952 -1.3730
15852SOL     OW56523   8.503   0.915   5.487  0.5482  0.0859  0.4224
15852SOL    HW156524   8.572   0.853   5.462  1.3788  1.2591 -0.2341
15852SOL    HW256525   8.500   0.979   5.416 -0.6845  0.5095  0.8251
15853SOL     OW56526   1.683   5.998   2.807 -0.4645  0.3107 -0.0472
15853SOL    HW156527   1.684   6.092   2.791  0.4357  0.1491 -1.0145
15853SOL    HW256528   1.732   5.987   2.889 -0.5981  0.6710  0.0847
15854SOL     OW56529   9.081   8.544   2.455  0.4781  0.5916  0.0894
15854SOL    HW156530   8.992   8.558   2.487 -0.7527 -0.9176 -2.3594
15854SOL    HW256531   9.082   8.587   2.369  0.5466 -3.2133 -2.0004
15855SOL     OW56532  10.806   3.230   8.764  0.3081 -0.3419 -0.4317
15855SOL    HW156533  10.775   3.262   8.849  3.8775 -1.2232  1.3957
15855SOL    HW256534  10.797   3.135   8.769  1.6702 -0.4935 -0.4912
15856SOL     OW56535   6.511   0.420   4.234 -0.8707 -0.2866 -0.3846
15856SOL    HW156536   6.450   0.353   4.268 -1.4525 -1.0204 -2.6956
15856SOL    HW256537   6.597   0.381   4.244 -0.7223  0.5843  2.5281
15857SOL     OW56538  10.273   0.886  11.926 -0.6620 -0.0590 -0.0536
15857SOL    HW156539  10.261   0.806  11.875 -0.0507 -0.8597  1.0258
15857SOL    HW256540  10.199   0.942  11.900 -1.5662 -1.2855 -0.2345
15858SOL     OW56541   1.019   4.703   8.154 -0.1820  0.4818 -0.2798
15858SOL    HW156542   1.054   4.709   8.243  2.0095 -1.0440 -0.9743
15858SOL    HW256543   1.048   4.618   8.122 -0.4374  1.2227 -2.6564
15859SOL     OW56544  10.266   2.122   2.388  0.1095  0.0621 -0.0202
15859SOL    HW156545  10.279   2.137   2.481 -0.1080 -0.7715  0.1531
15859SOL    HW256546  10.227   2.203   2.355 -3.3447 -0.8907  1.3223
15860SOL     OW56547   2.803   2.639   5.690  0.0417 -0.1267  0.2140
15860SOL    HW156548   2.732   2.597   5.737  0.5829 -2.2371 -0.7393
15860SOL    HW256549   2.861   2.673   5.759 -0.1673 -1.4077  1.0542
15861SOL     OW56550  11.061   9.303   9.254  0.5391  0.2404  0.5156
15861SOL    HW156551  11.146   9.288   9.211  0.3114  1.6654 -0.4929
15861SOL    HW256552  11.062   9.395   9.277 -0.8126  0.3085  0.3466
15862SOL     OW56553   7.004   2.940   6.517  0.4222  0.6624  0.6417
15862SOL    HW156554   7.052   2.992   6.581 -0.1353  0.3883  1.2806
15862SOL    HW256555   6.915   2.935   6.551  0.7722 -1.9695  1.3934
15863SOL     OW56556   4.398   7.371   8.565 -0.4468  0.0556  0.6886
15863SOL    HW156557   4.311   7.348   8.599 -0.7963 -2.5261 -1.6050
15863SOL    HW256558   4.422   7.297   8.510  1.9735  1.9774 -1.0514
15864SOL     OW56559   2.121  12.425   1.868 -0.2481 -0.2830  0.2094
15864SOL    HW156560   2.100  12.371   1.945  0.8307 -0.1921  0.5864
15864SOL    HW256561   2.158  12.363   1.805 -2.2005 -0.5729 -0.7362
15865SOL     OW56562  10.482  11.619   8.906  0.2151 -0.0690  0.5823
15865SOL    HW156563  10.567  11.605   8.864  0.9839 -0.4555  2.1885
15865SOL    HW256564  10.498  11.688   8.971 -1.1161  1.0468 -0.2263
15866SOL     OW56565   1.867   2.412   9.026 -0.8279  0.2983 -0.0319
15866SOL    HW156566   1.911   2.401   8.942 -0.5847  1.0622 -0.0113
15866SOL    HW256567   1.781   2.447   9.004 -0.6041  0.9171  0.0559
15867SOL     OW56568   8.161  12.189   6.635  0.4672  0.4652 -0.2418
15867SOL    HW156569   8.169  12.174   6.729 -0.0505  1.2102 -0.0679
15867SOL    HW256570   8.194  12.278   6.622  1.2351  0.1024 -0.8828
15868SOL     OW56571   8.888   3.839   9.058 -0.0441 -0.0753 -0.2127
15868SOL    HW156572   8.980   3.833   9.085  0.0209 -1.7659 -0.6806
15868SOL    HW256573   8.859   3.924   9.091  2.0107  1.0577 -1.0781
15869SOL     OW56574   2.285   0.470   6.261  0.2790  0.2306  0.0443
15869SOL    HW156575   2.354   0.535   6.244 -1.3720  2.0518 -0.0556
15869SOL    HW256576   2.231   0.511   6.329 -0.6734 -1.1996  0.1785
15870SOL     OW56577  10.577   3.671   1.452 -0.0221 -0.4114 -0.5647
15870SOL    HW156578  10.634   3.670   1.376 -0.0598  1.2786 -0.6550
15870SOL    HW256579  10.489   3.679   1.416 -0.0212  0.6317 -0.3513
15871SOL     OW56580   9.360   4.023   5.218  0.2192 -0.2130 -0.1437
15871SOL    HW156581   9.318   4.102   5.252  1.0782  0.5073 -0.7122
15871SOL    HW256582   9.348   3.958   5.287  0.6476  0.7981  0.9203
15872SOL     OW56583   8.678  11.728   2.044 -0.0622  0.0562  0.0733
15872SOL    HW156584   8.768  11.738   2.011  0.5882  0.2430  1.8085
15872SOL    HW256585   8.627  11.791   1.992  1.2809  1.7830  0.7221
15873SOL     OW56586   0.015  11.417  11.494  1.0045 -0.0905  0.2447
15873SOL    HW156587   0.049  11.376  11.414  1.1839  0.5162  0.0101
15873SOL    HW256588  -0.003  11.507  11.469  0.0855 -0.1616  0.6120
15874SOL     OW56589   7.955  12.127  10.419 -0.1108 -0.6522 -0.0725
15874SOL    HW156590   7.894  12.199  10.403 -0.2641 -0.8460 -0.3784
15874SOL    HW256591   7.994  12.109  10.334 -2.1730 -2.7989 -0.6953
15875SOL     OW56592  10.488   3.914   6.192  0.1586  0.2790 -0.4110
15875SOL    HW156593  10.510   3.824   6.170  0.6998  0.0057  1.1501
15875SOL    HW256594  10.440   3.946   6.115 -1.2130 -1.7383 -0.4888
15876SOL     OW56595   0.254   5.971   4.348  0.0315  0.0445  0.3608
15876SOL    HW156596   0.238   6.039   4.414 -1.0009  1.6314 -1.4455
15876SOL    HW256597   0.186   5.906   4.365  0.6450 -0.2750  1.7191
15877SOL     OW56598   9.884   8.326  10.996 -0.4004  0.0961  0.0564
15877SOL    HW156599   9.819   8.329  11.066  0.5399 -0.3143  0.9737
15877SOL    HW256600   9.853   8.256  10.938  0.5841 -2.0142  1.9232
15878SOL     OW56601   4.529   7.965   5.408 -0.5472 -0.1452 -0.0716
15878SOL    HW156602   4.600   7.928   5.461 -1.4726  0.6052  1.7659
15878SOL    HW256603   4.563   7.964   5.319  1.3511 -0.8042  0.6097
15879SOL     OW56604   9.006  10.084   0.103  0.1279  0.1186 -0.2507
15879SOL    HW156605   9.005  10.071   0.198  0.1565 -2.7020 -0.5453
15879SOL    HW256606   8.916  10.064   0.076  0.2734  0.2957 -0.8755
15880SOL     OW56607   4.119  11.424   1.673 -0.5801 -0.4786 -0.1949
15880SOL    HW156608   4.181  11.431   1.602  0.8995 -0.2806  1.0654
15880SOL    HW256609   4.120  11.510   1.715 -0.9087 -0.7850  0.4665
15881SOL     OW56610   2.635   7.809   0.781 -0.0190 -0.2029  0.3126
15881SOL    HW156611   2.690   7.886   0.770 -0.3878  0.2373  1.4056
15881SOL    HW256612   2.640   7.789   0.874 -0.9206 -0.7489  0.2565
15882SOL     OW56613   7.458   3.965   4.413 -0.2109  0.0676  0.1600
15882SOL    HW156614   7.383   3.984   4.469 -0.0668 -0.2326  0.4608
15882SOL    HW256615   7.439   3.879   4.376  0.8533 -0.9038  1.7467
15883SOL     OW56616   6.996   7.962  10.618 -0.8754  0.5940 -0.2030
15883SOL    HW156617   6.994   8.058  10.618  1.6750  0.7310  0.7655
15883SOL    HW256618   7.051   7.940  10.542  1.9778  0.1959  1.8028
15884SOL     OW56619  10.553   9.959   2.196  0.0034  0.1317  0.5277
15884SOL    HW156620  10.595   9.991   2.276  1.0384 -1.4553  0.6694
15884SOL    HW256621  10.625   9.926   2.142 -0.5317  2.1811 -1.6040
15885SOL     OW56622   6.733  11.018   1.986 -0.2440  0.2321 -0.5542
15885SOL    HW156623   6.819  10.994   2.019 -0.1264  0.2245 -0.8601
15885SOL    HW256624   6.679  11.029   2.064  0.1828  0.8160 -0.3343
15886SOL     OW56625   0.045   9.394  10.871 -0.2608  0.0146 -0.6204
15886SOL    HW156626   0.027   9.328  10.805 -2.0930  0.5734 -0.7535
15886SOL    HW256627   0.128   9.368  10.911 -0.7517 -2.1378 -0.9152
15887SOL     OW56628  10.559  10.166   4.876  0.4051 -0.0448 -0.1571
15887SOL    HW156629  10.608  10.083   4.876  0.8493  0.1976 -1.5708
15887SOL    HW256630  10.509  10.164   4.795  0.1256  0.9035 -0.0073
15888SOL     OW56631   0.537  11.639   2.239 -0.0766  0.4536  0.2279
15888SOL    HW156632   0.580  11.600   2.315  1.2573  0.1832 -0.6446
15888SOL    HW256633   0.555  11.579   2.167 -1.0171  0.8953 -0.3963
15889SOL     OW56634   1.208   6.035  10.909  0.4538 -0.4486  0.5011
15889SOL    HW156635   1.207   5.954  10.857  0.2781 -0.1592  0.0424
15889SOL    HW256636   1.201   6.104  10.844  1.0919 -0.0414  0.8538
15890SOL     OW56637  10.841   1.487   5.481  0.0143  0.3040 -0.2788
15890SOL    HW156638  10.754   1.493   5.521 -0.3842 -0.8405 -0.9329
15890SOL    HW256639  10.854   1.572   5.439 -0.5674  0.6639  0.2494
15891SOL     OW56640   8.692   3.978  11.466  0.0950  0.4156 -0.1080
15891SOL    HW156641   8.755   3.989  11.537  1.6866 -0.2268 -1.3494
15891SOL    HW256642   8.745   3.978  11.387 -1.5511  0.4479 -1.2718
15892SOL     OW56643   0.357   6.683   8.313 -0.3421  0.1211  0.0902
15892SOL    HW156644   0.268   6.660   8.286 -0.7945  1.2147  0.5914
15892SOL    HW256645   0.406   6.689   8.231 -1.0587  0.8083 -0.3021
15893SOL     OW56646   9.679   3.164   8.099 -0.6535  0.2829  0.1485
15893SOL    HW156647   9.593   3.139   8.064 -1.4410  1.0117  1.4987
15893SOL    HW256648   9.665   3.250   8.137  0.5993  0.2428  0.7308
15894SOL     OW56649   9.408   4.146  12.209  0.0605 -0.1937  0.0554
15894SOL    HW156650   9.442   4.234  12.195  1.5277 -0.7870 -0.3487
15894SOL    HW256651   9.485   4.090  12.206 -1.0147 -1.6942 -1.4265
15895SOL     OW56652   0.248   5.666  11.712 -0.7657  0.7517  0.0742
15895SOL    HW156653   0.249   5.710  11.797 -1.5386  1.0882 -0.0812
15895SOL    HW256654   0.219   5.734  11.650  1.4963  1.0316 -0.7699
15896SOL     OW56655   1.165   3.126   4.439 -0.0979 -0.2427 -0.4340
15896SOL    HW156656   1.178   3.097   4.349  3.2236 -1.6560  0.3663
15896SOL    HW256657   1.218   3.206   4.446  0.9882 -1.0190  0.6160
15897SOL     OW56658   0.712  10.202  11.226  0.2611  0.1596  0.1218
15897SOL    HW156659   0.678  10.138  11.289  0.0502 -0.9274 -1.0609
15897SOL    HW256660   0.713  10.155  11.143  2.5146  0.8954 -0.3224
15898SOL     OW56661   6.526   3.241   7.182 -0.1390 -0.6915 -0.2892
15898SOL    HW156662   6.600   3.283   7.225 -0.7400  0.7390 -0.5986
15898SOL    HW256663   6.565   3.189   7.112  0.5136  1.5182 -1.6513
15899SOL     OW56664   6.087   7.226   9.332  0.1731  0.4586 -0.2069
15899SOL    HW156665   6.141   7.219   9.411 -0.7903 -1.1252  0.3722
15899SOL    HW256666   6.083   7.320   9.313  0.9784  0.8102  1.2200
15900SOL     OW56667   5.387   9.182   2.440 -0.5206  0.1160 -0.5774
15900SOL    HW156668   5.448   9.166   2.368  1.1612  0.3379  0.7284
15900SOL    HW256669   5.396   9.105   2.496  1.3436  1.6791  1.4584
15901SOL     OW56670   4.782   9.137   2.573  0.5038  0.5259 -0.3785
15901SOL    HW156671   4.801   9.075   2.643 -1.2137  2.5688  2.0432
15901SOL    HW256672   4.703   9.102   2.531 -0.7302  1.2171  1.2761
15902SOL     OW56673   3.647   4.828   9.145 -0.1633 -0.6907 -0.1996
15902SOL    HW156674   3.660   4.808   9.238  0.8709 -0.2805 -0.2385
15902SOL    HW256675   3.639   4.923   9.142 -0.0449 -0.6902 -0.5464
15903SOL     OW56676   2.328  12.014   6.281  0.0041  0.6003 -0.5576
15903SOL    HW156677   2.341  12.108   6.294  2.1450  0.3373 -0.4332
15903SOL    HW256678   2.362  11.996   6.194  0.7795 -0.2513 -0.0969
15904SOL     OW56679  10.387   7.677   2.557  0.2515  0.2044  0.4117
15904SOL    HW156680  10.478   7.682   2.586 -0.0800  0.6245  1.4559
15904SOL    HW256681  10.382   7.737   2.482  0.7323  0.5444  0.6479
15905SOL     OW56682   4.761   1.225  11.445  0.4172 -0.0983 -0.3180
15905SOL    HW156683   4.729   1.141  11.414  0.7411  0.1194 -1.2853
15905SOL    HW256684   4.690   1.259  11.499 -0.0698 -0.6064 -0.6274
15906SOL     OW56685   7.875   7.653   2.847  0.4991  0.2824  0.4310
15906SOL    HW156686   7.921   7.700   2.916  0.4198 -1.0999  1.4639
15906SOL    HW256687   7.862   7.718   2.778  0.8682  1.6114  1.5761
15907SOL     OW56688   3.971  11.328   8.601 -0.1304 -0.4282 -0.6239
15907SOL    HW156689   3.998  11.413   8.636  0.8919 -1.2972  0.8184
15907SOL    HW256690   4.013  11.323   8.515  1.6994 -0.3727  0.2203
15908SOL     OW56691   8.199   6.333   6.165  0.1543  0.2402  0.4627
15908SOL    HW156692   8.221   6.261   6.224 -2.1690 -0.4104  0.6314
15908SOL    HW256693   8.112   6.311   6.131  0.5300  1.6386 -1.6137
15909SOL     OW56694  10.153   9.012   5.861  0.1623  0.0790  0.3118
15909SOL    HW156695  10.173   9.079   5.796 -0.9057  0.5978  0.4983
15909SOL    HW256696  10.170   9.054   5.945  0.7290 -0.3110  0.3951
15910SOL     OW56697   3.817   8.404   6.546 -0.3075 -0.6143  0.4069
15910SOL    HW156698   3.892   8.345   6.546 -2.2113 -3.2620 -0.5242
15910SOL    HW256699   3.743   8.348   6.524 -2.4881  1.9727  0.6046
15911SOL     OW56700  11.922   8.478  11.846 -0.0461 -0.2724 -0.5557
15911SOL    HW156701  11.827   8.476  11.833  0.1807 -1.1794 -2.3479
15911SOL    HW256702  11.953   8.546  11.787  0.6290 -1.6268 -1.8159
15912SOL     OW56703  10.872  11.849  11.222 -0.0338  0.1603  0.1557
15912SOL    HW156704  10.884  11.885  11.310  1.5027 -0.9604  0.4446
15912SOL    HW256705  10.898  11.757  11.230  1.5802  0.3873 -1.7765
15913SOL     OW56706   4.446   5.206   2.314  0.4920  0.0699 -0.2102
15913SOL    HW156707   4.455   5.288   2.267  0.0997 -0.6921 -1.6649
15913SOL    HW256708   4.360   5.173   2.289  0.6069 -0.7481  0.4228
15914SOL     OW56709  10.514   8.154   3.376 -0.3098 -0.2139 -0.0633
15914SOL    HW156710  10.481   8.199   3.298  0.6245 -1.2628 -1.1007
15914SOL    HW256711  10.453   8.179   3.446 -3.1587 -1.8638 -1.8179
15915SOL     OW56712  12.573   1.164   6.924  0.0273  0.3861 -0.2863
15915SOL    HW156713  12.492   1.201   6.888 -0.8953  0.9817  2.2234
15915SOL    HW256714  12.600   1.227   6.991  1.9574 -0.3939 -0.2846
15916SOL     OW56715   1.254   6.371   7.714 -0.2854  0.4509 -0.0552
15916SOL    HW156716   1.262   6.459   7.678 -0.2660  0.2075 -0.6544
15916SOL    HW256717   1.323   6.321   7.672 -0.8749 -0.0791 -0.4226
15917SOL     OW56718   8.556  10.499  10.329 -0.0858  0.1951 -0.0949
15917SOL    HW156719   8.594  10.520  10.415  0.4553  4.4040 -1.1174
15917SOL    HW256720   8.631  10.487  10.272 -0.3338  1.4980 -0.7295
15918SOL     OW56721  12.558   2.345   0.244  0.4938 -0.5040  0.2278
15918SOL    HW156722  12.616   2.405   0.291  1.2916 -1.2995  0.3052
15918SOL    HW256723  12.574   2.260   0.285  0.1931 -0.9626 -0.5859
15919SOL     OW56724   0.958   6.310  10.532  0.5649  0.1102 -0.2364
15919SOL    HW156725   0.944   6.246  10.462 -0.6859 -1.7821  1.6178
15919SOL    HW256726   1.010   6.379  10.492  1.1477 -1.6058 -2.6166
15920SOL     OW56727   2.877  11.237   6.645  0.5343 -0.4410  0.3874
15920SOL    HW156728   2.795  11.225   6.692  2.7162  0.7445  5.0240
15920SOL    HW256729   2.899  11.329   6.656  2.7170 -0.7990 -0.2759
15921SOL     OW56730   2.895  12.477   8.730  0.0114  0.1736 -0.0976
15921SOL    HW156731   2.940  12.403   8.772  0.7890 -0.3420 -1.7580
15921SOL    HW256732   2.807  12.444   8.712 -0.1234  0.1831  0.4988
15922SOL     OW56733   7.721  11.042   4.075 -0.0764  0.0652 -0.0946
15922SOL    HW156734   7.742  11.090   3.995  1.1043  0.7015  0.5807
15922SOL    HW256735   7.715  10.951   4.047 -1.0035  0.4257 -1.1379
15923SOL     OW56736   1.931  11.134  11.434 -0.8292 -0.3954  0.0295
15923SOL    HW156737   1.926  11.192  11.510 -1.4353 -0.0369 -0.2745
15923SOL    HW256738   1.892  11.052  11.465  0.7273 -0.9342  0.6980
15924SOL     OW56739  12.265   7.806   5.812 -0.2735 -0.6944  0.1523
15924SOL    HW156740  12.260   7.732   5.750 -0.3979 -0.9534  0.4719
15924SOL    HW256741  12.301   7.878   5.760 -1.3316 -0.6186 -0.4953
15925SOL     OW56742   6.042   4.720  12.549 -0.4435  0.3160 -0.1522
15925SOL    HW156743   6.126   4.691  12.513 -0.8531  0.9159 -1.6844
15925SOL    HW256744   5.992   4.749  12.472 -2.0008  0.1007  0.7361
15926SOL     OW56745   4.820   9.937   8.642  0.1876 -0.0058  0.2275
15926SOL    HW156746   4.777   9.990   8.709  0.1111 -2.9126  2.7515
15926SOL    HW256747   4.914   9.951   8.655  0.2088 -1.2075  1.6712
15927SOL     OW56748   5.431   0.400   8.769  0.1782  0.8352 -0.6013
15927SOL    HW156749   5.372   0.433   8.836  0.4181 -0.6583  0.4010
15927SOL    HW256750   5.389   0.423   8.686 -0.7316  1.6460  0.0589
15928SOL     OW56751   6.322   8.794   3.333  0.2479  0.7210  0.2657
15928SOL    HW156752   6.366   8.718   3.372  1.8345  0.6481 -1.4859
15928SOL    HW256753   6.321   8.859   3.402  0.5279 -0.2883  1.2504
15929SOL     OW56754   3.305   8.191   5.580 -0.2382 -0.1732  0.1125
15929SOL    HW156755   3.384   8.245   5.572 -0.6160  0.1925 -1.6507
15929SOL    HW256756   3.234   8.254   5.594 -0.4861 -0.3150 -0.4793
15930SOL     OW56757  12.101   7.076   5.298 -0.1625 -0.2381 -0.1082
15930SOL    HW156758  12.023   7.127   5.320 -0.2004  0.4717 -1.7731
15930SOL    HW256759  12.067   6.996   5.257 -0.0401 -0.2493 -0.1897
15931SOL     OW56760   3.385  11.985   7.827 -0.6813 -0.0976 -0.2581
15931SOL    HW156761   3.291  12.004   7.824 -0.4515  1.0435 -0.6634
15931SOL    HW256762   3.425  12.067   7.857  0.3256 -0.0184 -1.6975
15932SOL     OW56763   0.116   0.006   6.430  0.2286  0.0469  0.2794
15932SOL    HW156764   0.189   0.058   6.399  0.6217 -0.5788  0.1315
15932SOL    HW256765   0.059  -0.005   6.354  0.7866 -0.8054 -0.0261
15933SOL     OW56766   8.907   8.259   9.816 -0.6556 -0.7737  0.0426
15933SOL    HW156767   8.999   8.237   9.803 -0.9674 -1.2602 -1.4672
15933SOL    HW256768   8.859   8.184   9.782 -1.6448  0.2005 -0.7952
15934SOL     OW56769  11.661   0.556   2.005 -0.5079  0.3485  0.1227
15934SOL    HW156770  11.652   0.470   1.964  0.6895 -0.1226  0.7611
15934SOL    HW256771  11.661   0.618   1.933  1.4770 -0.4475 -0.6301
15935SOL     OW56772   3.437  12.556  11.098 -0.3053  0.3037 -0.1516
15935SOL    HW156773   3.499  12.621  11.066 -1.6893  2.5518  1.4665
15935SOL    HW256774   3.491  12.480  11.120  1.3015  0.6387 -2.5536
15936SOL     OW56775   8.872   9.588   6.493 -0.2775  0.2046  0.2956
15936SOL    HW156776   8.936   9.592   6.422 -0.3235  2.6386  0.3054
15936SOL    HW256777   8.849   9.679   6.510  1.4321  0.0330  5.0077
15937SOL     OW56778   3.554   3.680  12.589 -0.2604 -0.3336 -0.8661
15937SOL    HW156779   3.599   3.710  12.668 -0.5246 -1.8191 -0.1086
15937SOL    HW256780   3.484   3.743  12.576 -0.6096 -0.4075  0.4785
15938SOL     OW56781   8.812   5.479   6.084  0.4984 -0.1367  0.1992
15938SOL    HW156782   8.842   5.459   6.173  0.7513 -1.7913 -0.2127
15938SOL    HW256783   8.857   5.560   6.062  0.7798  0.0664  1.4177
15939SOL     OW56784   9.471   6.165  11.162  0.1795  0.6997 -0.1379
15939SOL    HW156785   9.427   6.086  11.129  0.3333 -1.2019  3.7070
15939SOL    HW256786   9.400   6.222  11.188  0.0494  0.5978 -0.2630
15940SOL     OW56787   8.574   7.100   0.173 -0.1015 -0.6543 -0.5888
15940SOL    HW156788   8.641   7.040   0.139  0.1672 -0.3580 -0.5914
15940SOL    HW256789   8.492   7.051   0.165 -0.0035 -0.6951 -1.3910
15941SOL     OW56790   4.470   3.482   3.279  0.1948  0.3143  0.5955
15941SOL    HW156791   4.407   3.554   3.281  0.1917  0.3061  0.8427
15941SOL    HW256792   4.494   3.473   3.187 -1.5065 -0.8492  0.2088
15942SOL     OW56793   2.049   0.337   2.784  0.5190  0.1939 -0.0272
15942SOL    HW156794   2.038   0.410   2.722 -4.0900 -0.4333 -0.3359
15942SOL    HW256795   2.026   0.259   2.733 -1.1113 -0.6127  1.8164
15943SOL     OW56796   5.961   1.303   3.676 -0.8151 -0.6052  0.0931
15943SOL    HW156797   6.039   1.321   3.623 -1.5052 -0.2878 -0.8331
15943SOL    HW256798   5.996   1.265   3.757  0.5050  2.0303  0.8570
15944SOL     OW56799   9.728   4.368  12.323  0.7811  0.6910  0.0068
15944SOL    HW156800   9.694   4.322  12.247  0.8994  0.8210 -0.1262
15944SOL    HW256801   9.701   4.315  12.398 -0.6964  1.3691 -0.0043
15945SOL     OW56802   8.157   0.702   0.304  0.0055  0.1562 -0.3806
15945SOL    HW156803   8.221   0.770   0.281  0.1959  0.0802 -0.0825
15945SOL    HW256804   8.083   0.719   0.247  0.6433 -0.2971 -1.3743
15946SOL     OW56805  11.872   9.025   3.846 -0.2329  0.2432  0.5257
15946SOL    HW156806  11.832   8.990   3.767  0.5929  0.5756 -0.0529
15946SOL    HW256807  11.913   8.949   3.888  2.5190  0.5865 -1.2943
15947SOL     OW56808   3.871   0.952   3.451 -0.1378 -0.3644  0.3312
15947SOL    HW156809   3.787   0.943   3.406  0.5054 -2.3947 -0.5802
15947SOL    HW256810   3.875   0.876   3.509  1.7869 -1.3522 -0.9709
15948SOL     OW56811  11.282   8.960   8.117  0.2122 -0.0143  0.0868
15948SOL    HW156812  11.296   8.881   8.168 -1.1822 -0.4616 -0.1920
15948SOL    HW256813  11.214   9.007   8.164  1.4915  1.3865  0.6311
15949SOL     OW56814  12.522   5.246   3.598  0.2048  0.7511  0.0319
15949SOL    HW156815  12.432   5.278   3.610 -0.1919  0.0067 -0.8312
15949SOL    HW256816  12.553   5.289   3.519  0.5426  0.8655  0.2274
15950SOL     OW56817   9.722   1.838   3.859  0.3586  0.1514 -0.2083
15950SOL    HW156818   9.733   1.743   3.848 -2.3685 -0.6970  2.7865
15950SOL    HW256819   9.773   1.860   3.937 -0.3826  0.7638  0.1187
15951SOL     OW56820   9.799  12.350   8.611  0.2255  0.3828  0.1205
15951SOL    HW156821   9.737  12.370   8.681  1.8455  2.2393  1.1688
15951SOL    HW256822   9.866  12.297   8.654  0.0033 -0.5620 -0.6788
15952SOL     OW56823   4.645   5.029   7.064 -0.1824 -0.6074 -0.5515
15952SOL    HW156824   4.652   5.018   7.159 -2.0347 -2.3146 -0.5406
15952SOL    HW256825   4.735   5.034   7.033  0.4603 -0.5422  1.2425
15953SOL     OW56826  10.896   9.200  10.405  1.0607 -0.8122  0.1899
15953SOL    HW156827  10.909   9.122  10.351 -0.6065 -2.1175  1.5691
15953SOL    HW256828  10.904   9.169  10.495 -2.4931 -0.1182  0.9082
15954SOL     OW56829   1.549   6.286   6.026  0.2301 -0.1766  0.2032
15954SOL    HW156830   1.501   6.242   5.956  0.8115 -0.9679  0.2872
15954SOL    HW256831   1.612   6.342   5.981 -2.0932  2.5132  0.0399
15955SOL     OW56832  11.774  10.001   5.192 -0.3969 -0.0937  0.2416
15955SOL    HW156833  11.854  10.018   5.242  0.3927 -0.5765 -0.8080
15955SOL    HW256834  11.782  10.057   5.115 -0.3501 -1.2022 -0.5925
15956SOL     OW56835   2.152   8.414   6.886 -0.1309  0.0452 -0.2592
15956SOL    HW156836   2.206   8.368   6.822 -1.2234 -2.6959  0.6654
15956SOL    HW256837   2.126   8.347   6.948 -0.6128  2.2508  2.0785
15957SOL     OW56838   6.038   1.213   7.168  0.2652 -0.1675 -0.5274
15957SOL    HW156839   5.955   1.166   7.176 -1.0198  1.9069 -1.0095
15957SOL    HW256840   6.104   1.151   7.201 -1.9567 -0.2382  4.7529
15958SOL     OW56841  11.388   1.008   9.607  0.0723 -0.0109  0.5596
15958SOL    HW156842  11.350   0.936   9.658  1.6821  0.2220  2.1811
15958SOL    HW256843  11.385   0.977   9.517  0.7678 -2.1675  1.2146
15959SOL     OW56844   1.573   8.997   9.483 -0.2908 -0.2097  0.1333
15959SOL    HW156845   1.502   8.945   9.444  0.0705  0.2178 -1.1566
15959SOL    HW256846   1.607   8.942   9.553 -0.7621 -1.1605 -0.3572
15960SOL     OW56847   3.539   7.534   7.294 -0.1281 -0.6783  0.0769
15960SOL    HW156848   3.616   7.528   7.351  0.5738 -0.4028 -0.8272
15960SOL    HW256849   3.574   7.540   7.206 -1.2131 -2.2314 -0.5110
15961SOL     OW56850  10.684   0.752  11.798 -0.2800 -0.5393 -0.2945
15961SOL    HW156851  10.729   0.668  11.803  1.5222  0.4463  2.2835
15961SOL    HW256852  10.746   0.811  11.756 -0.9214 -0.1267 -0.6903
15962SOL     OW56853   8.572   1.382   6.395 -0.2190 -0.4098  1.0658
15962SOL    HW156854   8.534   1.369   6.308 -0.7876  0.7204  1.1222
15962SOL    HW256855   8.535   1.313   6.449 -3.3499  1.3934  1.4562
15963SOL     OW56856  10.423   7.342  12.442  0.1666 -0.2656 -0.2469
15963SOL    HW156857  10.452   7.291  12.517 -0.8985  0.3150  0.5881
15963SOL    HW256858  10.443   7.433  12.464 -1.4574  0.0675  0.0144
15964SOL     OW56859   9.967  10.068   4.443 -0.2177  0.2345 -0.3210
15964SOL    HW156860   9.986   9.974   4.433 -0.6177  0.2453 -1.3966
15964SOL    HW256861   9.886  10.081   4.393 -1.1271  0.8444  1.2690
15965SOL     OW56862   1.852  11.760   7.834 -0.8970  0.1229  0.3799
15965SOL    HW156863   1.856  11.767   7.739  2.1873 -0.3678  0.3618
15965SOL    HW256864   1.944  11.757   7.862 -1.5020  3.4245  3.6407
15966SOL     OW56865   7.409  11.744  11.486  0.2465  0.4730  0.4731
15966SOL    HW156866   7.359  11.748  11.404  1.1493  0.1390 -0.1144
15966SOL    HW256867   7.485  11.689  11.465  0.8696  0.9733  1.3288
15967SOL     OW56868   4.476   5.533  11.271 -0.4829 -0.8927  0.0358
15967SOL    HW156869   4.566   5.500  11.274 -0.9239 -2.0943  1.6335
15967SOL    HW256870   4.468   5.574  11.185  1.1291 -2.1125 -0.7509
15968SOL     OW56871  11.449   6.053  12.554 -0.0940  0.7125 -0.0515
15968SOL    HW156872  11.503   6.115  12.603  0.7075  0.3320 -0.4150
15968SOL    HW256873  11.446   5.975  12.609 -0.5934  0.8674  0.1383
15969SOL     OW56874   6.646   9.572   1.746 -0.7028  0.7130 -0.3401
15969SOL    HW156875   6.579   9.511   1.714 -0.4580  0.5847 -0.6091
15969SOL    HW256876   6.598   9.653   1.763 -1.5163 -0.2599  2.4446
15970SOL     OW56877   6.853   0.758  10.419  0.1607 -0.3004  1.1366
15970SOL    HW156878   6.918   0.697  10.384 -1.2239 -2.3831  2.0072
15970SOL    HW256879   6.859   0.835  10.362  0.8369 -1.9018 -1.1098
15971SOL     OW56880   5.451   4.640   1.093  0.2609  0.1594 -0.4847
15971SOL    HW156881   5.454   4.544   1.099  2.9452  0.2575  2.3792
15971SOL    HW256882   5.531   4.663   1.047  1.1316  1.0303  1.3528
15972SOL     OW56883   8.656   4.855   6.236 -0.3300 -0.9702 -0.0194
15972SOL    HW156884   8.592   4.799   6.192 -0.6349 -0.6500  0.0116
15972SOL    HW256885   8.741   4.821   6.209 -0.5074 -0.5039 -1.2386
15973SOL     OW56886   7.453   2.144   4.433  0.6618 -0.1545 -0.1101
15973SOL    HW156887   7.502   2.066   4.459 -0.4188 -0.8993 -0.2594
15973SOL    HW256888   7.398   2.114   4.360 -2.4230 -0.2381  2.0761
15974SOL     OW56889   9.871  10.201  11.022 -0.3037 -0.4091  0.8426
15974SOL    HW156890   9.937  10.203  10.954  1.0758  0.5544  2.1413
15974SOL    HW256891   9.807  10.137  10.992  0.2525 -0.0168 -1.3194
15975SOL     OW56892   9.719   2.193  12.335 -0.2334  0.0341 -0.2766
15975SOL    HW156893   9.810   2.214  12.316 -0.2879  0.1035 -0.4607
15975SOL    HW256894   9.721   2.101  12.362 -0.3462 -0.5203 -2.0429
15976SOL     OW56895  11.920   6.306   6.701  0.2955 -0.0974  0.5808
15976SOL    HW156896  11.829   6.322   6.679  0.1391 -1.2258  0.3733
15976SOL    HW256897  11.937   6.364   6.775 -1.0604 -1.0578  1.6782
15977SOL     OW56898   9.555   1.395   1.644 -0.2880 -0.3411  0.2480
15977SOL    HW156899   9.633   1.367   1.692  0.2492  0.3467 -0.2070
15977SOL    HW256900   9.484   1.387   1.707  0.0551 -1.4974  0.5103
15978SOL     OW56901   2.338   5.944  10.449  0.1683  0.4232 -0.1360
15978SOL    HW156902   2.277   5.958  10.521 -1.1103 -0.1500 -1.0723
15978SOL    HW256903   2.285   5.905  10.380  1.8792 -1.3610 -0.5164
15979SOL     OW56904   0.702   5.439   1.474  0.4778 -0.1039  0.1621
15979SOL    HW156905   0.695   5.343   1.473  1.1770 -0.1665  0.7250
15979SOL    HW256906   0.795   5.456   1.457  0.1889  0.5146 -0.9188
15980SOL     OW56907   6.272   1.075  11.780 -0.2842  0.0395  0.0647
15980SOL    HW156908   6.281   1.157  11.731 -2.1274  0.6158  0.6098
15980SOL    HW256909   6.358   1.061  11.819  0.8133  0.3227 -2.1204
15981SOL     OW56910   8.673   9.071  10.068 -0.0298 -0.4931  0.3024
15981SOL    HW156911   8.724   9.011  10.122  0.8501  0.8987  1.0774
15981SOL    HW256912   8.634   9.133  10.130 -2.9200 -1.6257 -0.2308
15982SOL     OW56913   3.314  11.426  10.940  0.1150 -0.7387 -0.2067
15982SOL    HW156914   3.284  11.408  11.029  2.1745  0.6872  0.8880
15982SOL    HW256915   3.337  11.340  10.904 -0.9896 -1.3600  0.5378
15983SOL     OW56916  10.750  12.092   6.926 -0.3155  0.4240 -0.2545
15983SOL    HW156917  10.655  12.089   6.927 -0.3654  0.0859  2.2357
15983SOL    HW256918  10.776  12.025   6.863 -1.6896  1.3774 -1.9030
15984SOL     OW56919   1.798   1.946   9.294  0.0613  0.0082 -0.0025
15984SOL    HW156920   1.763   2.032   9.316 -1.1945 -0.0872 -1.4700
15984SOL    HW256921   1.773   1.891   9.368  0.8566  0.8548  0.9416
15985SOL     OW56922   8.217   2.697   0.578 -0.1803 -0.2902  0.7090
15985SOL    HW156923   8.202   2.654   0.494 -0.5617 -0.8925  1.0780
15985SOL    HW256924   8.311   2.714   0.580 -0.4175  1.4299 -0.6410
15986SOL     OW56925   6.618   6.376   9.932  0.0617 -0.3879 -0.0016
15986SOL    HW156926   6.567   6.435   9.877  0.7966  0.1467 -0.1289
15986SOL    HW256927   6.681   6.335   9.872 -1.8289 -3.0013 -0.3639
15987SOL     OW56928   3.418   2.262   9.127 -0.1643  0.1579 -0.2550
15987SOL    HW156929   3.348   2.275   9.191  1.2072  0.5674  1.2252
15987SOL    HW256930   3.460   2.180   9.153  0.4544  0.3584 -0.5963
15988SOL     OW56931   8.453  12.594   4.136 -0.1277  0.0135  0.0721
15988SOL    HW156932   8.442  12.678   4.180  0.3912 -0.5880  1.4141
15988SOL    HW256933   8.539  12.598   4.096 -0.4024  0.3848 -0.4904
15989SOL     OW56934  10.808   9.482   5.338 -0.1863 -0.5134 -0.0333
15989SOL    HW156935  10.854   9.566   5.328  0.2887 -0.9810 -2.3679
15989SOL    HW256936  10.716   9.506   5.347 -0.0856  0.2936 -0.9026
15990SOL     OW56937   9.876   4.410   0.059  0.1381 -0.6824  0.1833
15990SOL    HW156938   9.894   4.478   0.124  1.5053 -0.7678 -0.0845
15990SOL    HW256939   9.844   4.458  -0.018 -0.3014 -0.4786  0.4887
15991SOL     OW56940   1.185   8.853   0.284  0.4904  0.1024  0.1019
15991SOL    HW156941   1.220   8.774   0.243  1.0212  0.2923  0.1788
15991SOL    HW256942   1.190   8.920   0.216  0.4104  0.1661  0.1585
15992SOL     OW56943   7.769   9.539   8.599 -0.1232  0.3786 -0.5648
15992SOL    HW156944   7.732   9.458   8.635  1.3905  0.2562  0.8678
15992SOL    HW256945   7.765   9.601   8.672  1.7115  0.5783 -0.5882
15993SOL     OW56946   1.883   4.179   2.182 -0.5427 -0.1649  0.2589
15993SOL    HW156947   1.854   4.265   2.154  0.9259  0.8288  1.6497
15993SOL    HW256948   1.812   4.147   2.238  0.6069  2.0119  3.2057
15994SOL     OW56949   1.584   0.626   8.434  0.2370  0.5570 -0.1074
15994SOL    HW156950   1.520   0.569   8.392  1.1955 -2.0230  1.7167
15994SOL    HW256951   1.640   0.656   8.362 -1.0557  0.2706 -1.2724
15995SOL     OW56952   5.495   8.101   0.151  0.3595  0.3801 -0.1396
15995SOL    HW156953   5.428   8.160   0.118  0.7150  1.0475  0.3203
15995SOL    HW256954   5.498   8.118   0.245  0.2281 -0.6160  0.0563
15996SOL     OW56955   1.977   5.543   7.423 -0.3390  0.2727 -0.2595
15996SOL    HW156956   1.965   5.448   7.429 -1.3762  0.4311  0.3431
15996SOL    HW256957   1.959   5.563   7.331 -1.1110  0.0071 -0.1763
15997SOL     OW56958   5.840   5.067   1.675  0.0718 -0.1720  0.0327
15997SOL    HW156959   5.750   5.045   1.698  0.1903 -2.1127 -1.1425
15997SOL    HW256960   5.849   5.036   1.585  2.1715 -0.7893  0.4196
15998SOL     OW56961  10.106  11.418   9.432  0.6314 -0.0981  0.6272
15998SOL    HW156962  10.059  11.368   9.365  1.9365  0.3109 -0.6425
15998SOL    HW256963  10.158  11.481   9.383  1.6874  0.1637  2.0221
15999SOL     OW56964  12.516   9.775   5.549 -0.4999  0.2540 -0.0862
15999SOL    HW156965  12.497   9.855   5.501 -0.0663  0.4470  0.0551
15999SOL    HW256966  12.466   9.784   5.631 -1.7627 -0.3747 -0.7663
16000SOL     OW56967   6.706   5.285   0.077  0.3521 -0.3024  0.4973
16000SOL    HW156968   6.696   5.230  -0.001  1.0441 -1.8625  1.4518
16000SOL    HW256969   6.616   5.307   0.103  0.1250  0.4391 -0.8443
16001SOL     OW56970   2.563   0.125  10.950  0.3474  0.1792  0.2332
16001SOL    HW156971   2.553   0.161  11.038 -2.0854 -0.6943  0.3831
16001SOL    HW256972   2.650   0.083  10.952  1.0760  1.6348  1.6223
16002SOL     OW56973   1.206  12.343   6.023  0.4307  0.1223 -0.8853
16002SOL    HW156974   1.230  12.288   5.948  2.1783 -1.6556  0.8466
16002SOL    HW256975   1.285  12.395   6.040 -0.3324  1.3215 -0.9192
16003SOL     OW56976   4.197   1.788   1.111  0.4862  0.1873 -0.0862
16003SOL    HW156977   4.121   1.736   1.138  2.4886 -1.9056  1.9449
16003SOL    HW256978   4.184   1.874   1.151 -0.7874 -0.1456  0.2462
16004SOL     OW56979   5.210   8.218   4.286 -0.3541 -0.1249 -0.0967
16004SOL    HW156980   5.249   8.287   4.232 -0.2862 -0.5539 -0.6075
16004SOL    HW256981   5.268   8.143   4.273 -0.3606 -0.2460  0.5454
16005SOL     OW56982  11.082   9.446   7.580 -0.1466 -0.2690  0.6921
16005SOL    HW156983  11.100   9.540   7.569  0.9607 -0.5159  0.2931
16005SOL    HW256984  11.004   9.431   7.527 -1.0146  0.6438  1.6713
16006SOL     OW56985   8.044  12.475   6.834  0.2832 -0.3993  0.4852
16006SOL    HW156986   8.104  12.484   6.909 -0.8355  1.1310  1.2547
16006SOL    HW256987   8.067  12.547   6.776 -0.4052 -0.1593  0.5021
16007SOL     OW56988   3.466   4.333  11.379  0.1859 -0.2149  0.1948
16007SOL    HW156989   3.455   4.394  11.306 -0.5590 -0.4074  0.1340
16007SOL    HW256990   3.551   4.293  11.364  0.4163  0.3727 -0.0965
16008SOL     OW56991   0.373   3.922   5.776 -0.0953 -0.1023  0.2544
16008SOL    HW156992   0.333   3.835   5.770 -0.1911  0.0286 -1.7777
16008SOL    HW256993   0.450   3.917   5.720  0.0607  1.0375  0.3461
16009SOL     OW56994   2.823   1.905   0.067 -0.4320 -0.1675  0.5382
16009SOL    HW156995   2.816   1.924  -0.026 -0.4097  1.6855  0.8776
16009SOL    HW256996   2.734   1.884   0.094 -0.4878 -0.4146  0.1696
16010SOL     OW56997   6.319   4.164  12.530 -0.5383 -0.3594  0.3256
16010SOL    HW156998   6.265   4.219  12.588 -0.7063 -0.3937  0.2027
16010SOL    HW256999   6.331   4.083  12.578 -1.3621 -0.7006 -0.0192
16011SOL     OW57000   9.231   0.007   2.441  0.3098 -0.1797 -0.0604
16011SOL    HW157001   9.307  -0.050   2.437 -0.2757 -1.0135  0.3612
16011SOL    HW257002   9.156  -0.050   2.423 -0.2903  0.4586  0.3176
16012SOL     OW57003   2.690   3.458   4.448 -0.0615 -0.0484  0.2934
16012SOL    HW157004   2.730   3.379   4.484 -0.1861 -0.2133  0.0771
16012SOL    HW257005   2.748   3.482   4.375 -0.4047 -0.3430 -0.0815
16013SOL     OW57006   2.852   5.905  11.724  0.1152  0.9614 -0.4253
16013SOL    HW157007   2.795   5.975  11.757  1.2715  2.6639 -1.8815
16013SOL    HW257008   2.941   5.939  11.733  0.7484 -0.5182 -0.7672
16014SOL     OW57009   9.686   1.863  10.567  0.4574  0.1686  0.2611
16014SOL    HW157010   9.719   1.873  10.477 -0.5160  2.9013  0.1053
16014SOL    HW257011   9.739   1.925  10.618  0.2689 -0.5799  1.3761
16015SOL     OW57012   6.393  11.285   7.641  0.0203  0.1604  0.4087
16015SOL    HW157013   6.416  11.377   7.636 -0.7414  0.3667  0.5081
16015SOL    HW257014   6.306  11.284   7.682 -0.4610 -0.5253 -0.5760
16016SOL     OW57015   6.607  12.072   4.082  0.2459  0.2352  0.2391
16016SOL    HW157016   6.666  12.050   4.010  0.2173  1.0603 -0.0533
16016SOL    HW257017   6.562  11.990   4.102 -0.1365  0.0931 -1.0540
16017SOL     OW57018   8.293  11.750   7.133 -0.3534 -0.0574 -0.0165
16017SOL    HW157019   8.310  11.722   7.223  0.7283 -1.1577 -0.5386
16017SOL    HW257020   8.254  11.673   7.091 -1.0833  0.5295 -0.4351
16018SOL     OW57021   1.449   8.404  11.418 -0.4864 -0.0927  0.1610
16018SOL    HW157022   1.465   8.497  11.432 -0.3077 -0.0647 -0.2157
16018SOL    HW257023   1.466   8.390  11.325  0.7591 -0.7649  0.4612
16019SOL     OW57024   1.431   6.317   8.604  0.4178 -0.1972 -0.0809
16019SOL    HW157025   1.523   6.343   8.597  0.4752 -0.5874 -0.8557
16019SOL    HW257026   1.384   6.399   8.620  0.8762  0.0298  0.1114
16020SOL     OW57027   9.534   9.082  11.796 -0.1073  0.1845  0.3904
16020SOL    HW157028   9.599   9.135  11.842 -0.9518  2.5582 -0.9805
16020SOL    HW257029   9.549   9.100  11.703 -1.9687 -0.0930 -0.0009
16021SOL     OW57030  12.267   1.415  10.893  0.2887 -0.1485 -1.1526
16021SOL    HW157031  12.314   1.444  10.815  2.0501  0.6511  0.1365
16021SOL    HW257032  12.336   1.393  10.956 -1.0686 -1.2505  0.0313
16022SOL     OW57033   2.643   1.473   9.550  0.1700 -0.5386  0.0836
16022SOL    HW157034   2.597   1.393   9.577  1.0057 -1.0823 -0.0386
16022SOL    HW257035   2.648   1.465   9.454  0.4620 -0.4572  0.0929
16023SOL     OW57036   7.903   0.261   3.283 -0.3094 -0.4466 -0.8750
16023SOL    HW157037   7.972   0.320   3.313  0.1166 -0.0374 -2.5471
16023SOL    HW257038   7.941   0.174   3.292 -0.2867 -0.3572 -0.0301
16024SOL     OW57039   9.750  12.312   0.554 -0.6240 -0.4126  0.6145
16024SOL    HW157040   9.823  12.356   0.510 -1.5896  0.8843  0.2472
16024SOL    HW257041   9.789  12.273   0.632  0.4936  0.0920  0.3317
16025SOL     OW57042  11.615  12.135   1.375 -0.2333  0.3026 -0.0154
16025SOL    HW157043  11.556  12.095   1.439 -0.1879 -0.6016 -0.5091
16025SOL    HW257044  11.576  12.113   1.290  0.1384  0.7899 -0.3177
16026SOL     OW57045   5.946   1.091   5.446 -0.3533  0.4570 -0.1300
16026SOL    HW157046   5.968   1.080   5.354  0.7226 -1.2358  0.2757
16026SOL    HW257047   5.995   1.021   5.491 -0.5351  1.4648  1.7616
16027SOL     OW57048   0.592   5.450   6.923  0.4842  0.2270 -0.0069
16027SOL    HW157049   0.609   5.500   7.003  0.8121  0.0114  0.0619
16027SOL    HW257050   0.622   5.507   6.852 -0.7748  0.8574 -0.0601
16028SOL     OW57051   1.913   3.166  12.137  0.0395 -0.6898 -0.1701
16028SOL    HW157052   1.897   3.080  12.098  1.3623 -0.8152 -0.4594
16028SOL    HW257053   1.917   3.149  12.231  0.3517 -0.9516 -0.2303
16029SOL     OW57054  11.540   7.592   9.918  0.7936 -0.4894 -0.1925
16029SOL    HW157055  11.530   7.505   9.956  0.1770 -0.8339 -1.1199
16029SOL    HW257056  11.453   7.614   9.886  1.4239 -0.5185 -2.0378
16030SOL     OW57057   4.719   4.755   6.293 -0.1971  0.1483 -0.1417
16030SOL    HW157058   4.650   4.733   6.356 -0.0444 -0.3832 -0.1533
16030SOL    HW257059   4.672   4.776   6.213 -0.4311  1.5510  0.3420
16031SOL     OW57060   6.140  11.080   6.999 -0.2188  0.5255 -0.1183
16031SOL    HW157061   6.183  11.141   6.940  1.7802 -1.4454 -0.8370
16031SOL    HW257062   6.057  11.059   6.955 -0.2938  1.6173 -0.5346
16032SOL     OW57063  10.311   3.302   5.886 -0.1724 -0.3341  0.9982
16032SOL    HW157064  10.234   3.357   5.877  0.2766  0.2337  0.5955
16032SOL    HW257065  10.348   3.326   5.972 -0.3063 -0.4295  1.0819
16033SOL     OW57066  11.109   8.955   9.203  0.1105 -0.3270  0.1738
16033SOL    HW157067  11.164   9.011   9.257 -0.3691  0.5974 -0.2883
16033SOL    HW257068  11.170   8.916   9.140 -0.0475  2.7701 -2.1081
16034SOL     OW57069  11.555   8.867   2.450  0.3931  0.0671 -0.0333
16034SOL    HW157070  11.563   8.774   2.427  0.6181  0.3148 -0.9983
16034SOL    HW257071  11.616   8.911   2.391 -0.5811  0.9513 -0.4000
16035SOL     OW57072  11.538   0.475   1.538 -0.1170 -0.4251  0.2705
16035SOL    HW157073  11.553   0.497   1.446  1.6602  1.3396  0.8825
16035SOL    HW257074  11.563   0.383   1.545  1.2184 -0.1831 -0.7595
16036SOL     OW57075   1.479   3.896   1.980 -0.2503 -0.3802 -0.1510
16036SOL    HW157076   1.551   3.923   1.923  0.9484 -2.9409 -0.0077
16036SOL    HW257077   1.453   3.810   1.946 -1.5538 -0.6275  1.3520
16037SOL     OW57078   8.456   4.521   2.368  0.6194  0.4234 -0.2362
16037SOL    HW157079   8.405   4.466   2.308 -1.5882 -0.2248  2.0355
16037SOL    HW257080   8.452   4.609   2.330 -0.5346 -0.0066 -1.1615
16038SOL     OW57081   9.898   0.886   8.775 -0.3653  0.3740 -0.0687
16038SOL    HW157082   9.925   0.838   8.697 -1.8096  0.9511 -0.9615
16038SOL    HW257083   9.963   0.956   8.783  0.5265 -0.4311  0.0205
16039SOL     OW57084   9.150  12.400   1.337 -0.1799  0.3700 -0.2679
16039SOL    HW157085   9.237  12.419   1.302 -0.7675  0.4177 -1.7965
16039SOL    HW257086   9.095  12.390   1.259 -1.4525 -0.0956  0.6597
16040SOL     OW57087  11.761   9.746  10.302 -0.4520  0.1795  0.0255
16040SOL    HW157088  11.816   9.738  10.224 -0.3439 -0.5393  0.1687
16040SOL    HW257089  11.822   9.737  10.375 -0.3618  2.0873  0.2277
16041SOL     OW57090   6.281   2.762   8.769 -0.0744 -0.0404 -0.1398
16041SOL    HW157091   6.199   2.765   8.720 -0.0760 -0.9302 -0.2121
16041SOL    HW257092   6.322   2.679   8.743  1.0208  0.5529 -0.3702
16042SOL     OW57093   0.507   3.067  10.353 -0.5236 -0.0237 -0.1748
16042SOL    HW157094   0.495   3.122  10.275 -1.0201  0.2766  0.1119
16042SOL    HW257095   0.524   3.130  10.423 -0.3403 -0.2815  0.0116
16043SOL     OW57096   5.014  10.132  12.087 -0.4498  0.2178 -0.3165
16043SOL    HW157097   4.999  10.041  12.115  0.8541  0.2886  0.6673
16043SOL    HW257098   4.977  10.185  12.158 -0.3942  0.4484 -0.4600
16044SOL     OW57099   5.423   1.756   3.280  0.3973  0.2423 -0.0145
16044SOL    HW157100   5.451   1.832   3.330 -1.1989  1.8658 -1.4636
16044SOL    HW257101   5.334   1.776   3.253  0.8901 -0.8725 -2.8056
16045SOL     OW57102   1.281   9.958  11.522 -0.0559  0.1761 -0.3964
16045SOL    HW157103   1.237   9.985  11.442 -2.3689 -0.0965  0.7094
16045SOL    HW257104   1.242   9.873  11.544  1.4877 -0.3899  0.3456
16046SOL     OW57105   2.500   5.835   3.395 -0.3254  0.2855  0.5181
16046SOL    HW157106   2.424   5.892   3.386  0.4417  0.9803 -2.8021
16046SOL    HW257107   2.465   5.753   3.429 -2.8057  0.2339 -1.8631
16047SOL     OW57108  12.521  11.866   0.272  0.1222 -0.2015 -0.7227
16047SOL    HW157109  12.569  11.881   0.354  1.9647 -0.9508 -1.6166
16047SOL    HW257110  12.436  11.834   0.300  0.4962  0.1622  0.9246
16048SOL     OW57111  10.773   1.058  11.935  0.0470  0.1085 -0.0381
16048SOL    HW157112  10.698   1.003  11.912  0.6345  0.4170 -3.2140
16048SOL    HW257113  10.739   1.148  11.928  0.0809  0.2251  1.1615
16049SOL     OW57114   9.557   5.501   1.301 -0.5624  0.6013 -0.0189
16049SOL    HW157115   9.583   5.531   1.214  1.0970  0.2112  0.3198
16049SOL    HW257116   9.624   5.536   1.359 -1.9984  1.4035  1.2222
16050SOL     OW57117   3.427   8.284  11.843 -0.0111 -0.3524 -0.3630
16050SOL    HW157118   3.498   8.335  11.882 -0.4425  0.6984 -0.9104
16050SOL    HW257119   3.423   8.204  11.895  0.9346  0.0070  0.2803
16051SOL     OW57120   0.377   4.727   8.498  0.3588 -0.1382 -0.1888
16051SOL    HW157121   0.381   4.665   8.425 -0.3258  1.1105 -1.3382
16051SOL    HW257122   0.441   4.695   8.561 -0.4107 -2.3578 -0.4458
16052SOL     OW57123   6.930   0.253   4.207  0.1244 -0.4397  0.0534
16052SOL    HW157124   6.865   0.220   4.145 -0.2011 -0.7170  0.5362
16052SOL    HW257125   6.936   0.185   4.274 -1.3009  0.8902  1.6190
16053SOL     OW57126   9.312   9.216   0.235 -0.2963 -0.1089 -0.1912
16053SOL    HW157127   9.218   9.199   0.240 -0.3760  0.5029  0.7292
16053SOL    HW257128   9.338   9.234   0.326  1.0063 -1.7680 -0.1838
16054SOL     OW57129   3.798   9.338   7.487  0.2315  0.1439 -0.0863
16054SOL    HW157130   3.866   9.325   7.422 -0.3808 -3.2302 -0.2416
16054SOL    HW257131   3.716   9.340   7.436 -0.1273 -0.9212  0.4188
16055SOL     OW57132  11.971   6.741  11.361 -0.1339 -0.3121 -0.0417
16055SOL    HW157133  12.015   6.750  11.445 -0.0569 -0.7662 -0.0316
16055SOL    HW257134  11.946   6.830  11.337  0.3254 -0.1157  0.2044
16056SOL     OW57135  11.714   0.922   3.261  0.9052  0.0350  0.1874
16056SOL    HW157136  11.620   0.934   3.271  0.7390  0.7272 -1.8480
16056SOL    HW257137  11.723   0.839   3.214  1.3009  0.0276  0.2703
16057SOL     OW57138   0.016   4.000   2.608 -0.3208  0.5576  0.1628
16057SOL    HW157139  -0.009   3.982   2.699  1.4336 -2.5888  0.1342
16057SOL    HW257140  -0.040   4.074   2.583 -3.4927 -0.7680  2.6117
16058SOL     OW57141   3.917   6.716   0.315  0.3771  0.0114 -0.2376
16058SOL    HW157142   3.887   6.799   0.352  2.2957  1.5885 -1.9905
16058SOL    HW257143   3.849   6.653   0.340 -0.2516  1.6552  2.7097
16059SOL     OW57144   1.827  11.940   5.044 -0.3662  0.0217 -0.4421
16059SOL    HW157145   1.750  11.919   4.992 -0.2797 -3.3308  0.5775
16059SOL    HW257146   1.840  12.034   5.031 -3.3102  0.2775 -2.3416
16060SOL     OW57147   4.206  10.823   8.876  0.5058 -0.0433 -0.4120
16060SOL    HW157148   4.270  10.888   8.905  0.9139 -1.0745  1.1364
16060SOL    HW257149   4.121  10.867   8.887  0.8382  0.6489 -0.5770
16061SOL     OW57150   6.502   2.857   7.230 -0.5463  0.1459 -0.4879
16061SOL    HW157151   6.529   2.806   7.307 -0.1370 -0.4133 -0.9956
16061SOL    HW257152   6.459   2.794   7.173 -0.3994  0.4504 -0.9415
16062SOL     OW57153  10.685  10.525  12.255  0.1944  0.0832 -0.7516
16062SOL    HW157154  10.594  10.497  12.266 -0.0933  0.2655 -2.5117
16062SOL    HW257155  10.736  10.448  12.281 -0.4125  0.1054  0.6355
16063SOL     OW57156   8.040  10.361   9.170 -0.1558  0.4473  0.2001
16063SOL    HW157157   8.041  10.370   9.266  0.1759 -0.0661  0.2505
16063SOL    HW257158   7.948  10.346   9.149 -0.4567  2.0359  0.2765
16064SOL     OW57159   7.677   7.425   4.222  0.5335  0.0698 -0.4270
16064SOL    HW157160   7.627   7.503   4.246  1.6688  0.6833  0.0346
16064SOL    HW257161   7.737   7.456   4.154  2.0848  0.0018  0.8801
16065SOL     OW57162  10.142   6.812   9.162 -0.0883 -0.3821  0.9774
16065SOL    HW157163  10.077   6.759   9.116 -1.0451 -0.6770  2.5936
16065SOL    HW257164  10.199   6.845   9.092 -0.8900 -1.5703 -0.3094
16066SOL     OW57165   1.894  10.701   8.494 -0.2434 -0.1430  0.3158
16066SOL    HW157166   1.877  10.792   8.520 -2.0000 -0.4914  0.5434
16066SOL    HW257167   1.883  10.701   8.399 -0.6307 -0.1803  0.3585
16067SOL     OW57168   0.692   2.020  12.186  0.0805  0.5764  0.5255
16067SOL    HW157169   0.695   1.928  12.159  0.8369  0.7629 -0.0255
16067SOL    HW257170   0.688   2.069  12.104 -0.3940  1.0422  0.8211
16068SOL     OW57171   3.186   0.929   4.676  0.2967 -0.5374 -0.0992
16068SOL    HW157172   3.169   0.839   4.650  1.8073 -0.6127 -0.9542
16068SOL    HW257173   3.231   0.968   4.601 -1.0634  1.1883 -0.0752
16069SOL     OW57174   9.355   6.932   0.401 -0.3585  0.0730  0.1339
16069SOL    HW157175   9.267   6.939   0.365 -0.4233  2.5938  0.6415
16069SOL    HW257176   9.409   6.985   0.343  0.9166 -1.6007 -0.2918
16070SOL     OW57177   4.633   8.392   2.300 -0.5028 -0.0872  0.3190
16070SOL    HW157178   4.725   8.366   2.292 -0.0475  0.5590  2.6956
16070SOL    HW257179   4.584   8.312   2.283  0.4740 -0.3849 -1.2335
16071SOL     OW57180   1.147  12.020   6.826 -0.3993 -0.9689 -0.1027
16071SOL    HW157181   1.219  11.994   6.769 -0.1940  2.9801 -1.9563
16071SOL    HW257182   1.076  12.043   6.766 -1.0890  0.9062  1.3393
16072SOL     OW57183   8.171   4.628   4.751 -0.2546  0.0779  0.1316
16072SOL    HW157184   8.231   4.667   4.688 -0.9675 -0.0265 -0.6159
16072SOL    HW257185   8.101   4.694   4.762 -1.8210 -1.2038 -1.6402
16073SOL     OW57186   8.345   5.222   2.870  0.4260 -0.1921  0.8480
16073SOL    HW157187   8.356   5.227   2.775 -0.0566 -0.6125  0.7657
16073SOL    HW257188   8.434   5.234   2.905  0.5083  0.6094  0.3755
16074SOL     OW57189   1.473   6.449   3.124  0.1832 -0.0434  0.2553
16074SOL    HW157190   1.465   6.510   3.051  2.5963 -2.3794 -2.1842
16074SOL    HW257191   1.415   6.376   3.100 -0.6422  0.0532  1.8126
16075SOL     OW57192  12.470   3.708   3.557 -0.3933 -0.2860  0.0538
16075SOL    HW157193  12.470   3.741   3.467 -0.7228 -1.3305 -0.3380
16075SOL    HW257194  12.393   3.652   3.562 -0.9230  0.4988  1.2748
16076SOL     OW57195  11.483   5.544   6.488  0.1000 -0.1123 -0.0529
16076SOL    HW157196  11.537   5.611   6.447 -0.3671 -1.1185 -2.4741
16076SOL    HW257197  11.519   5.461   6.456 -1.4538 -0.8801  0.1138
16077SOL     OW57198   3.607  10.160   3.521  0.2546 -0.0151 -0.3953
16077SOL    HW157199   3.527  10.165   3.574 -0.6829 -0.5928 -1.7273
16077SOL    HW257200   3.676  10.189   3.581 -0.9791  0.8214  0.6949
16078SOL     OW57201  10.330  11.771   7.464 -0.2923 -0.0301  0.1411
16078SOL    HW157202  10.241  11.773   7.430  0.3354 -3.7969 -2.2813
16078SOL    HW257203  10.340  11.683   7.501  1.9560  0.9014  2.0098
16079SOL     OW57204   8.465   1.178   1.361  0.3291 -0.2325 -0.0076
16079SOL    HW157205   8.493   1.218   1.443 -0.9379  0.6043  0.0478
16079SOL    HW257206   8.371   1.162   1.372  0.7681 -3.4194  0.0089
16080SOL     OW57207   1.045   9.837   3.497  0.2907 -0.2237 -0.2040
16080SOL    HW157208   0.977   9.801   3.554  0.8088 -0.8327  0.0437
16080SOL    HW257209   1.123   9.784   3.516  0.6784  0.0784 -0.9084
16081SOL     OW57210   5.275   5.870   3.066 -0.0492 -0.3355 -0.5706
16081SOL    HW157211   5.222   5.790   3.063  0.5441 -0.7288 -0.6659
16081SOL    HW257212   5.341   5.858   2.998  0.0248  0.2538 -0.6077
16082SOL     OW57213   2.472   3.697   7.675  0.0304  0.0105  0.2069
16082SOL    HW157214   2.465   3.763   7.606  0.4438  0.7346  0.8400
16082SOL    HW257215   2.495   3.616   7.629 -1.4390  0.0652 -0.6872
16083SOL     OW57216   6.313   4.149   9.642 -0.0954 -0.1904 -0.1534
16083SOL    HW157217   6.321   4.064   9.598  0.0774  0.8210 -2.1807
16083SOL    HW257218   6.218   4.163   9.648 -0.1206  0.0063 -0.9262
16084SOL     OW57219  10.951   6.157  10.346  0.6580  0.0254  0.0519
16084SOL    HW157220  10.962   6.153  10.251 -1.0845  0.3781 -0.1997
16084SOL    HW257221  10.880   6.096  10.365  0.6046  0.3748  1.0515
16085SOL     OW57222   4.159   8.561   3.039 -0.2020  0.8157 -0.5595
16085SOL    HW157223   4.163   8.484   2.984 -1.0048 -0.2953  0.8475
16085SOL    HW257224   4.199   8.631   2.987 -2.8406  0.4013 -3.4151
16086SOL     OW57225   5.098   7.296  10.514 -0.0945 -0.6838  0.6349
16086SOL    HW157226   5.174   7.240  10.531  0.0471 -0.7476 -0.1622
16086SOL    HW257227   5.121   7.381  10.553  0.7119 -0.4816 -0.2520
16087SOL     OW57228  12.100   6.721   4.884 -0.1624 -0.1308  0.2357
16087SOL    HW157229  12.143   6.788   4.831  1.7410 -0.1159  1.7166
16087SOL    HW257230  12.055   6.770   4.953  0.0441 -0.3075  0.4962
16088SOL     OW57231  12.133   1.477   2.968  0.5187  0.3153  0.2933
16088SOL    HW157232  12.217   1.512   2.937  0.7152  0.0241  0.4893
16088SOL    HW257233  12.077   1.554   2.977  0.1074  0.3086 -1.7942
16089SOL     OW57234   4.257  11.525   9.121 -0.5549 -0.6885 -0.0601
16089SOL    HW157235   4.323  11.561   9.181  0.0648 -0.0525 -1.0975
16089SOL    HW257236   4.186  11.590   9.121 -0.6986 -0.8433  0.2176
16090SOL     OW57237  10.990   3.350   8.288 -0.0637 -0.1331  0.6039
16090SOL    HW157238  11.051   3.333   8.216 -0.4547 -1.8415  0.6267
16090SOL    HW257239  10.976   3.445   8.286  0.1536 -0.0999 -1.3885
16091SOL     OW57240   9.787   7.332   7.272 -0.2747  0.4032 -0.4865
16091SOL    HW157241   9.692   7.338   7.262 -0.2847 -0.1957 -0.7778
16091SOL    HW257242   9.817   7.423   7.266 -1.0008  0.8361  1.5703
16092SOL     OW57243   4.537  11.229  11.947  0.3535  0.2500  0.2463
16092SOL    HW157244   4.601  11.158  11.945  1.3852  1.1619 -0.7086
16092SOL    HW257245   4.454  11.187  11.922  1.2105 -0.4121 -1.7559
16093SOL     OW57246   6.144   5.794   3.411 -0.1373  0.0368  0.5495
16093SOL    HW157247   6.088   5.719   3.434  1.4464 -1.4619 -0.2256
16093SOL    HW257248   6.215   5.791   3.475 -0.5674  1.5356  1.1413
16094SOL     OW57249   2.574   5.082   7.385 -0.1578 -0.8426  0.1468
16094SOL    HW157250   2.553   5.155   7.443  1.1098  0.0494 -0.4731
16094SOL    HW257251   2.527   5.103   7.303  1.4565  0.1492 -0.5765
16095SOL     OW57252   9.187   5.204   7.622 -0.6137  0.5302 -0.1859
16095SOL    HW157253   9.155   5.264   7.555  0.2523 -0.4604 -1.5362
16095SOL    HW257254   9.240   5.140   7.574  0.2498 -0.0628  1.4827
16096SOL     OW57255   6.594  11.649  12.049  0.0848 -0.1200 -0.0075
16096SOL    HW157256   6.518  11.626  12.102  0.9785 -0.8481  1.0007
16096SOL    HW257257   6.566  11.634  11.959 -1.4479  1.0880  0.2206
16097SOL     OW57258   9.100  11.765   0.261  0.3350 -0.0406 -0.2162
16097SOL    HW157259   9.083  11.718   0.180 -2.4450  2.5845 -1.3478
16097SOL    HW257260   9.013  11.784   0.296  1.4275  0.9756  2.1456
16098SOL     OW57261   8.971   7.477  11.052 -0.5915  0.2842 -0.1457
16098SOL    HW157262   9.002   7.521  10.972 -2.1548  0.8077 -0.4963
16098SOL    HW257263   9.044   7.485  11.113 -0.6613  3.1850 -0.2703
16099SOL     OW57264   1.653   3.233  11.436 -0.7569 -0.1963  0.2624
16099SOL    HW157265   1.660   3.149  11.391 -1.3414 -0.5988  0.9137
16099SOL    HW257266   1.562   3.239  11.462 -0.5623  0.3245  0.8480
16100SOL     OW57267   8.016   6.553   8.691 -0.1899 -0.2858 -0.4927
16100SOL    HW157268   7.936   6.510   8.660  0.3457 -0.0347 -2.3428
16100SOL    HW257269   7.989   6.599   8.770 -1.3638 -1.9282  0.1215
16101SOL     OW57270   1.763   8.335   0.771 -0.4775  0.2317 -0.3652
16101SOL    HW157271   1.684   8.281   0.772 -0.4468  0.1784  1.3369
16101SOL    HW257272   1.824   8.290   0.829  0.2332  1.1160 -0.4047
16102SOL     OW57273   1.589   3.659   0.931  0.2803  0.1228  0.2085
16102SOL    HW157274   1.613   3.664   0.839  0.4708 -0.0376  0.2480
16102SOL    HW257275   1.494   3.652   0.931  0.2829  0.0876  0.0224
16103SOL     OW57276   1.952   8.483   5.318  0.2931 -0.0453  0.5545
16103SOL    HW157277   1.960   8.472   5.412  1.8785 -0.4151  0.3890
16103SOL    HW257278   1.998   8.564   5.299 -0.9808  0.6334  0.2102
16104SOL     OW57279   8.354  12.569   2.785 -0.0236 -0.2346  0.1640
16104SOL    HW157280   8.439  12.530   2.761  0.1408  0.1141  0.1829
16104SOL    HW257281   8.302  12.494   2.813  0.0752 -0.5322 -0.4194
16105SOL     OW57282  12.088   6.405   2.032 -0.1709  0.2177 -0.0392
16105SOL    HW157283  11.993   6.414   2.036 -0.0538  2.5601 -0.9646
16105SOL    HW257284  12.111   6.353   2.109 -2.1386  0.0670  0.4885
16106SOL     OW57285   7.460   5.167   2.783 -0.2039  0.1833 -0.9366
16106SOL    HW157286   7.515   5.089   2.796  0.1246  0.6566  0.6835
16106SOL    HW257287   7.432   5.161   2.691 -1.6140 -2.7774 -0.4217
16107SOL     OW57288   8.650  11.947   8.560 -0.3507  0.1313  0.2804
16107SOL    HW157289   8.595  12.014   8.519  1.1012  0.3877 -1.3927
16107SOL    HW257290   8.649  11.874   8.498  0.1936 -0.3441  0.8177
16108SOL     OW57291  11.745   0.730  11.052  0.1817 -0.0143 -0.1812
16108SOL    HW157292  11.777   0.720  11.142 -0.0012 -0.0787 -0.1215
16108SOL    HW257293  11.702   0.816  11.052 -1.9110 -1.0093  0.4515
16109SOL     OW57294   9.145   6.614   6.144 -0.2506  0.3594  0.3117
16109SOL    HW157295   9.066   6.601   6.092 -0.0725  0.4459  0.0155
16109SOL    HW257296   9.139   6.548   6.213 -0.5128  0.2736  0.2104
16110SOL     OW57297   3.831   6.446  10.863  0.3859 -0.4404 -0.4518
16110SOL    HW157298   3.799   6.452  10.953 -0.7315 -2.4237 -0.6570
16110SOL    HW257299   3.915   6.401  10.870 -0.1846 -1.5349 -0.4565
16111SOL     OW57300   4.004  11.965   8.559 -0.1126 -0.1828 -0.7079
16111SOL    HW157301   4.008  11.939   8.467 -0.5405  2.0053 -1.4202
16111SOL    HW257302   3.911  11.981   8.575 -0.1315 -1.3032  0.3549
16112SOL     OW57303   4.680  10.666   1.180 -0.0001  0.0930 -0.0806
16112SOL    HW157304   4.714  10.733   1.240  0.1656 -2.0293  2.3354
16112SOL    HW257305   4.607  10.627   1.228 -0.7827 -0.7509 -1.9026
16113SOL     OW57306   2.583   0.000   7.644 -0.2507  0.8227 -0.1981
16113SOL    HW157307   2.594   0.073   7.583  0.3056  0.1555 -0.9012
16113SOL    HW257308   2.577   0.042   7.730  0.5279  1.6696 -0.5482
16114SOL     OW57309   8.768   0.311   6.306  0.0197 -0.0418  0.0322
16114SOL    HW157310   8.862   0.316   6.292  0.2111 -1.1427  0.7792
16114SOL    HW257311   8.742   0.399   6.334  0.9812  0.0322  0.7137
16115SOL     OW57312   2.493   5.893  11.634  0.0072  0.1391  0.4256
16115SOL    HW157313   2.562   5.841  11.592  0.3161  1.1668 -0.3819
16115SOL    HW257314   2.412   5.862  11.593 -0.7529 -4.1970  4.3541
16116SOL     OW57315   1.619  12.408   0.235 -0.4874 -0.2325 -0.3765
16116SOL    HW157316   1.594  12.375   0.148 -2.1427  1.1957 -0.5063
16116SOL    HW257317   1.578  12.494   0.240  2.0553  1.0270  0.6822
16117SOL     OW57318   8.626  11.595   0.759 -0.2473  0.6649  0.7136
16117SOL    HW157319   8.665  11.652   0.825 -0.1709  1.2330  0.1931
16117SOL    HW257320   8.556  11.549   0.805 -0.4315  1.3214  1.1116
16118SOL     OW57321  12.047   4.164   7.756  0.1608 -0.3484  0.1864
16118SOL    HW157322  12.024   4.102   7.824  1.0541  1.4696  2.2819
16118SOL    HW257323  12.108   4.225   7.798  1.2913  0.5181 -2.4354
16119SOL     OW57324   6.434   7.710  12.389 -0.0126  0.0833  0.3106
16119SOL    HW157325   6.352   7.672  12.360  0.0936 -0.6783  0.9852
16119SOL    HW257326   6.502   7.659  12.345  0.1464 -0.9901  1.7220
16120SOL     OW57327   2.748   2.335   4.563 -0.1193  0.4669  0.1789
16120SOL    HW157328   2.694   2.257   4.571 -1.9374  1.6335 -0.2644
16120SOL    HW257329   2.686   2.408   4.557  1.5022  1.9390  0.2790
16121SOL     OW57330   5.572   1.044   8.937 -0.2869 -0.0292 -0.0025
16121SOL    HW157331   5.645   0.995   8.974  0.3612  1.5989  0.9313
16121SOL    HW257332   5.497   1.022   8.993  0.0521  0.2104  0.5502
16122SOL     OW57333   9.538   5.743  12.511 -0.0003 -0.4903  0.3957
16122SOL    HW157334   9.599   5.812  12.484  0.3542 -1.5174 -1.6164
16122SOL    HW257335   9.564   5.723  12.601  0.7815  1.0320  0.5569
16123SOL     OW57336   3.993  12.282   2.896 -0.4877  0.3658 -0.5166
16123SOL    HW157337   3.965  12.260   2.807  0.3424  1.7931 -1.1530
16123SOL    HW257338   4.002  12.377   2.896  0.8791  0.2716  0.6855
16124SOL     OW57339   1.108   9.432   4.018 -0.2874 -0.0738 -0.1767
16124SOL    HW157340   1.064   9.347   4.012 -0.0229 -0.3351  1.3174
16124SOL    HW257341   1.199   9.414   3.993 -0.3903 -0.0820 -0.5531
16125SOL     OW57342   6.834   6.063  10.230 -0.6294  0.0107 -0.0227
16125SOL    HW157343   6.752   6.029  10.192  1.0420 -2.7781 -1.5199
16125SOL    HW257344   6.852   6.004  10.303  1.6603 -1.6826 -1.8127
16126SOL     OW57345  12.056  10.678  12.391 -0.0834  0.1807 -0.5584
16126SOL    HW157346  12.117  10.639  12.454  0.3121  1.0814 -0.3576
16126SOL    HW257347  11.970  10.653  12.423  0.1051  0.7478  0.4593
16127SOL     OW57348   4.446   7.402  10.400  0.1324  0.8140  0.5406
16127SOL    HW157349   4.360   7.443  10.406 -0.7708 -1.0376  1.1308
16127SOL    HW257350   4.481   7.432  10.316 -1.8875  0.1885 -0.5943
16128SOL     OW57351   2.770  12.369   2.762  0.6552 -0.5133 -0.1454
16128SOL    HW157352   2.728  12.285   2.782 -0.0742  0.0792  0.8493
16128SOL    HW257353   2.702  12.435   2.779  1.8964  0.4493  1.2563
16129SOL     OW57354   3.409  11.310   1.259 -0.1200  0.0866  0.1028
16129SOL    HW157355   3.391  11.259   1.180  3.6372  0.8359 -1.4981
16129SOL    HW257356   3.505  11.310   1.266 -0.1511  2.7128  2.8771
16130SOL     OW57357   8.778  10.435   9.367  0.0053  0.3119  0.0276
16130SOL    HW157358   8.715  10.402   9.303 -1.5637  0.6452  1.3316
16130SOL    HW257359   8.828  10.501   9.319 -2.6110  2.1609 -0.3507
16131SOL     OW57360  12.224   7.175   0.673 -0.0505 -0.2315 -0.2160
16131SOL    HW157361  12.271   7.256   0.655 -0.6728  0.5078  1.3344
16131SOL    HW257362  12.181   7.190   0.757 -1.8289 -1.4406 -0.8534
16132SOL     OW57363   8.729   9.142  12.051 -0.6503  0.2413  0.2544
16132SOL    HW157364   8.742   9.049  12.069 -1.1388  0.1377  0.0909
16132SOL    HW257365   8.802   9.185  12.095  0.8555 -0.3773 -1.5639
16133SOL     OW57366   5.810   4.346   6.297 -0.3485  0.1691  0.5376
16133SOL    HW157367   5.837   4.304   6.215 -2.0201 -1.4050  0.7289
16133SOL    HW257368   5.868   4.309   6.363  0.9337  1.3615  0.1339
16134SOL     OW57369   6.850   7.347   7.026 -0.6544 -0.7562  0.5090
16134SOL    HW157370   6.807   7.267   6.994  2.0656 -1.7596 -1.0172
16134SOL    HW257371   6.886   7.322   7.111  0.7268 -1.4333 -0.2392
16135SOL     OW57372   5.876   1.604   2.857 -0.2102  0.0376 -0.0494
16135SOL    HW157373   5.834   1.535   2.908  0.6070 -0.5632 -0.1809
16135SOL    HW257374   5.965   1.574   2.843  0.3974  1.4653  0.5158
16136SOL     OW57375   9.969   3.100  12.010  0.2234 -0.0024 -0.3063
16136SOL    HW157376  10.059   3.132  12.013  0.3554 -0.4239  0.5779
16136SOL    HW257377   9.953   3.067  12.098 -0.8495  0.2129 -0.4102
16137SOL     OW57378  11.706   2.901  11.859 -0.2827  0.0606 -0.5496
16137SOL    HW157379  11.740   2.990  11.866  0.9165 -0.1501 -2.8049
16137SOL    HW257380  11.619   2.911  11.820 -0.9181  0.2964  0.8425
16138SOL     OW57381   3.443  10.228   2.341 -0.4991 -0.7673  0.1627
16138SOL    HW157382   3.501  10.155   2.364  0.0626  0.0276  1.3565
16138SOL    HW257383   3.452  10.237   2.247  2.9638  0.6432  0.4916
16139SOL     OW57384  11.111  10.092   8.695 -0.1003  0.2065 -0.3921
16139SOL    HW157385  11.202  10.063   8.686 -0.1397 -0.7229  1.6375
16139SOL    HW257386  11.114  10.160   8.762 -1.1854 -1.9153  1.9969
16140SOL     OW57387   3.999  11.806  10.790 -0.0089  0.0223 -0.0763
16140SOL    HW157388   4.037  11.720  10.811  2.9464  1.1067 -0.4201
16140SOL    HW257389   3.989  11.804  10.694  2.3747  0.7993 -0.4125
16141SOL     OW57390  11.658   7.616   1.177  0.1394 -0.1394  0.0900
16141SOL    HW157391  11.605   7.652   1.248  0.7454  0.2967  0.3390
16141SOL    HW257392  11.653   7.681   1.107 -0.5701 -0.6343 -0.3273
16142SOL     OW57393  12.155   5.178   7.354  0.0118  0.1441 -0.0015
16142SOL    HW157394  12.238   5.215   7.387  0.8213  0.4331 -2.1908
16142SOL    HW257395  12.174   5.085   7.342 -1.1344 -0.5326  2.7858
16143SOL     OW57396  12.128  11.547   2.337 -0.3493 -0.3816 -0.1371
16143SOL    HW157397  12.184  11.597   2.278  1.6886  0.3531  2.2471
16143SOL    HW257398  12.061  11.610   2.364  1.3460  0.7541  1.7045
16144SOL     OW57399   5.305  10.682   7.109  0.4330  0.2786  0.3974
16144SOL    HW157400   5.236  10.737   7.072 -0.4344 -0.9246  0.1785
16144SOL    HW257401   5.272  10.658   7.195  0.2387 -0.8515  0.0285
16145SOL     OW57402   9.175   0.269   4.342 -0.3863  0.0636 -0.1403
16145SOL    HW157403   9.113   0.329   4.383  0.3403  1.0755 -0.4834
16145SOL    HW257404   9.186   0.303   4.253  1.0447  0.2341  0.0659
16146SOL     OW57405  10.064   8.226   9.285  0.2557  0.2004  0.1037
16146SOL    HW157406  10.137   8.199   9.230 -0.6321 -1.2814 -0.3811
16146SOL    HW257407  10.037   8.147   9.331 -0.5042  0.9107  0.9357
16147SOL     OW57408   3.016   8.790   4.148 -0.4780 -0.0204  0.4166
16147SOL    HW157409   2.957   8.770   4.220 -1.0965 -0.1453 -0.1157
16147SOL    HW257410   3.093   8.827   4.190 -1.6161  1.8011  1.0319
16148SOL     OW57411  10.295   7.458   0.121 -0.1841 -0.0991 -0.5844
16148SOL    HW157412  10.377   7.426   0.083 -0.7662 -0.9809 -1.1324
16148SOL    HW257413  10.290   7.414   0.206 -0.0767 -0.0314 -0.5434
16149SOL     OW57414   2.182   6.376   7.569 -0.0561  0.4660 -0.1661
16149SOL    HW157415   2.269   6.365   7.530  0.2722  3.0599 -0.3308
16149SOL    HW257416   2.199   6.395   7.661 -0.4436  0.9972 -0.2013
16150SOL     OW57417   2.041   7.827   9.730 -0.5438  0.1779 -0.0399
16150SOL    HW157418   2.127   7.788   9.712 -0.4348 -1.2151  2.9008
16150SOL    HW257419   2.055   7.921   9.722  1.1190 -0.0451 -0.1744
16151SOL     OW57420   4.266  12.279  10.875  0.3186  0.1756 -0.1300
16151SOL    HW157421   4.172  12.284  10.892  0.9077  0.2236  4.1914
16151SOL    HW257422   4.287  12.186  10.880  0.6128  0.2374 -0.1844
16152SOL     OW57423  12.536  12.452   0.095  0.1334  0.1999 -0.0033
16152SOL    HW157424  12.484  12.381   0.131 -1.2056  2.3302  2.6786
16152SOL    HW257425  12.624  12.417   0.089 -0.2252 -1.3555  2.4245
16153SOL     OW57426   3.517   1.196  10.598 -0.1210 -0.4406  0.0732
16153SOL    HW157427   3.510   1.249  10.678 -0.0740 -1.0771  0.5084
16153SOL    HW257428   3.496   1.107  10.627  0.0755 -0.7053 -0.5916
16154SOL     OW57429   7.143   3.733   7.777 -0.1605 -0.3240  0.1115
16154SOL    HW157430   7.060   3.781   7.769 -0.0535 -0.2534 -0.7523
16154SOL    HW257431   7.179   3.733   7.688 -0.2431 -2.1639  0.0346
16155SOL     OW57432   0.887   4.916  10.736 -0.5890  0.0996  0.0810
16155SOL    HW157433   0.889   4.828  10.700  3.8181 -0.4451  1.0493
16155SOL    HW257434   0.916   4.972  10.664 -0.6447  0.3532  0.2549
16156SOL     OW57435   3.419   8.095   9.094 -0.2494 -0.6810  0.2321
16156SOL    HW157436   3.359   8.141   9.152  1.5678  1.0169  0.8669
16156SOL    HW257437   3.407   8.136   9.009  0.2841 -0.0087  0.4640
16157SOL     OW57438   7.213  10.677   5.796 -0.0513 -0.5638 -0.4480
16157SOL    HW157439   7.285  10.616   5.813  2.4755  1.6789 -2.2976
16157SOL    HW257440   7.165  10.637   5.723  1.2299 -0.6861 -1.2667
16158SOL     OW57441   6.974   8.903   3.160 -0.0556 -1.0924 -0.3071
16158SOL    HW157442   6.938   8.991   3.171  0.5659 -0.8648 -0.0030
16158SOL    HW257443   6.907   8.845   3.196 -0.0649 -0.6716  0.3705
16159SOL     OW57444   3.371  10.977  12.443 -0.0556  0.2322 -0.0701
16159SOL    HW157445   3.327  10.932  12.515 -1.2544  1.6914  0.1549
16159SOL    HW257446   3.312  11.048  12.419  1.1827  0.9126 -1.2572
16160SOL     OW57447   2.318   4.996   1.969  0.0713 -0.0012 -0.4163
16160SOL    HW157448   2.339   5.024   2.058 -1.0849  1.6097 -0.6259
16160SOL    HW257449   2.363   5.059   1.913 -0.3952 -0.1451 -0.9518
16161SOL     OW57450  11.564  12.572   2.216  0.1982 -0.3048 -0.3021
16161SOL    HW157451  11.619  12.564   2.293 -2.7176  1.2766  2.1758
16161SOL    HW257452  11.614  12.628   2.156  2.4367 -1.3698  0.4785
16162SOL     OW57453   5.822  10.600   3.183 -0.8116 -0.2802  0.5565
16162SOL    HW157454   5.834  10.650   3.102 -1.2731  2.2778  1.9779
16162SOL    HW257455   5.900  10.544   3.188  0.8994  1.8918 -0.0611
16163SOL     OW57456   8.009  11.053   4.821  0.3370  0.2792  0.3869
16163SOL    HW157457   7.936  11.038   4.880 -0.6136 -0.0427 -0.8262
16163SOL    HW257458   8.080  10.999   4.856 -0.4419 -0.4941  0.8112
16164SOL     OW57459  12.068   4.684  12.100 -0.5188 -0.0118 -0.8239
16164SOL    HW157460  12.116   4.610  12.137 -2.1254 -1.2083 -1.0220
16164SOL    HW257461  12.115   4.762  12.132 -0.0048 -1.0513  1.1003
16165SOL     OW57462  12.002   7.224   7.888 -0.0134  0.3464  0.3560
16165SOL    HW157463  11.924   7.184   7.926 -0.3150  1.0966  0.5555
16165SOL    HW257464  11.972   7.259   7.804 -0.3172  2.0168  1.1160
16166SOL     OW57465  11.244   8.268   5.645  0.7684 -0.4896 -0.0712
16166SOL    HW157466  11.155   8.300   5.662  0.6710 -1.3132  1.1287
16166SOL    HW257467  11.232   8.188   5.595  0.8282 -0.6260  0.1315
16167SOL     OW57468   4.893   1.124   3.426  0.0415 -0.2903 -0.4620
16167SOL    HW157469   4.836   1.067   3.478  2.2430 -2.8427 -0.6222
16167SOL    HW257470   4.962   1.150   3.486  1.0058 -0.8263 -1.3003
16168SOL     OW57471  11.295   6.041  10.989  0.2251 -0.1029 -0.0097
16168SOL    HW157472  11.324   6.132  10.997  0.7232 -0.3663  1.5491
16168SOL    HW257473  11.210   6.040  11.033  0.2015 -0.3932 -0.0640
16169SOL     OW57474   8.175  10.215   0.595 -0.2329  0.4111 -0.0211
16169SOL    HW157475   8.120  10.145   0.632 -2.1286  2.1070  0.5692
16169SOL    HW257476   8.214  10.258   0.671 -0.0239  0.7227 -0.3006
16170SOL     OW57477   2.968   4.088  10.466 -0.5435 -0.0065  0.4612
16170SOL    HW157478   3.033   4.105  10.534 -0.0726  2.2828 -0.4532
16170SOL    HW257479   2.889   4.131  10.497 -0.7131 -0.1193  0.1924
16171SOL     OW57480  11.283   0.502   1.563 -0.1355  0.6827  0.4589
16171SOL    HW157481  11.376   0.501   1.540 -0.4677 -0.5077 -0.9574
16171SOL    HW257482  11.267   0.417   1.603 -0.9978  0.0352 -1.1440
16172SOL     OW57483   3.975   7.885   0.542  0.3305  0.4644 -0.0544
16172SOL    HW157484   3.915   7.849   0.477  0.0231 -1.7357  1.3366
16172SOL    HW257485   3.933   7.965   0.573 -0.4659  0.4796 -1.1450
16173SOL     OW57486   0.180   6.884   4.819 -0.1107 -0.0669 -0.1692
16173SOL    HW157487   0.086   6.887   4.798  0.2040  1.8808 -1.5829
16173SOL    HW257488   0.210   6.804   4.776 -1.3984 -1.7924  1.9192
16174SOL     OW57489   7.793   2.998   1.560 -0.3049 -0.0170  0.1782
16174SOL    HW157490   7.834   2.942   1.494  0.8589  0.0999  0.7788
16174SOL    HW257491   7.709   2.956   1.578 -0.5195 -0.1934 -1.1743
16175SOL     OW57492   4.325  11.129   8.910  0.3072 -0.8158  0.7271
16175SOL    HW157493   4.401  11.158   8.960  0.3599  0.1565  0.1068
16175SOL    HW257494   4.350  11.142   8.819  0.0177 -2.0661  0.4470
16176SOL     OW57495  12.365   1.422   8.356 -0.2550  0.1192  0.2362
16176SOL    HW157496  12.277   1.402   8.388 -0.3532 -1.6417 -0.9558
16176SOL    HW257497  12.420   1.423   8.435 -1.2174  0.5761  0.9187
16177SOL     OW57498   2.281  10.456  12.425 -0.2782 -0.0353  0.4920
16177SOL    HW157499   2.257  10.547  12.410 -1.0745  0.1554  2.5154
16177SOL    HW257500   2.198  10.410  12.431 -0.0185 -0.3524  2.2739
16178SOL     OW57501   0.725   5.745   7.033 -0.5223 -0.4395 -0.2993
16178SOL    HW157502   0.716   5.717   6.942  1.6137  0.9556 -1.0318
16178SOL    HW257503   0.773   5.674   7.076 -0.0683 -0.3910 -0.7101
16179SOL     OW57504   2.946   4.135   6.584 -0.8267  0.0756 -0.4332
16179SOL    HW157505   2.913   4.168   6.668  2.6065  0.5268  0.9277
16179SOL    HW257506   3.000   4.206   6.550  1.8360 -1.7922 -0.4517
16180SOL     OW57507  11.446  10.142  10.999  0.3067 -0.5747  0.2270
16180SOL    HW157508  11.440  10.047  10.988 -0.4395 -0.4430 -0.6799
16180SOL    HW257509  11.499  10.171  10.924  2.3823 -0.4658  1.6518
16181SOL     OW57510   8.369   9.160   5.029 -0.3908  0.0219 -0.4910
16181SOL    HW157511   8.313   9.233   5.055 -0.7643  0.0089 -1.2310
16181SOL    HW257512   8.337   9.086   5.081  0.3486  0.4944  0.6713
16182SOL     OW57513  11.542   5.152  10.385  0.3293  0.0925 -0.1639
16182SOL    HW157514  11.466   5.182  10.335  0.7146 -0.6956 -1.2618
16182SOL    HW257515  11.614   5.208  10.356  0.4929 -0.1807 -0.2934
16183SOL     OW57516   3.421   9.550   4.950  0.2280  0.3090  0.9441
16183SOL    HW157517   3.488   9.590   4.895 -0.2651 -1.0568 -0.7225
16183SOL    HW257518   3.366   9.624   4.978  0.8597  1.1148  0.1088
16184SOL     OW57519   5.211  10.570   4.535  0.1854 -0.7563  0.2629
16184SOL    HW157520   5.152  10.618   4.477 -0.7493  0.0376  1.7918
16184SOL    HW257521   5.188  10.601   4.623  1.9145 -1.5090  1.0227
16185SOL     OW57522   2.850   2.684   3.073  0.0026  0.0377 -0.1346
16185SOL    HW157523   2.755   2.675   3.061  0.3822 -1.2167 -3.1302
16185SOL    HW257524   2.882   2.594   3.074  1.1632  0.4230  1.4803
16186SOL     OW57525   2.358  11.776   3.534 -0.0073  0.3733  0.4606
16186SOL    HW157526   2.344  11.791   3.441 -1.7763  1.2421  0.8235
16186SOL    HW257527   2.273  11.794   3.574  0.6151 -0.3590  2.2027
16187SOL     OW57528   4.231   2.741  10.152  0.0204  0.5749 -0.2420
16187SOL    HW157529   4.163   2.689  10.195  0.7912 -2.2027 -2.1443
16187SOL    HW257530   4.306   2.736  10.211 -0.5924  1.5961  0.6846
16188SOL     OW57531   0.993   0.052   1.797 -0.5169 -0.2299  0.1477
16188SOL    HW157532   1.023  -0.027   1.841  1.1718  0.4191  0.2140
16188SOL    HW257533   0.928   0.090   1.857  2.2839  1.0609  2.6109
16189SOL     OW57534   7.835  10.422   0.702 -0.2804  0.2107 -0.5418
16189SOL    HW157535   7.868  10.451   0.788  1.8416 -2.6953 -0.2065
16189SOL    HW257536   7.896  10.460   0.639 -0.0462 -0.0670 -0.4839
16190SOL     OW57537   9.631  10.577   7.120  0.3135  0.6726 -0.8269
16190SOL    HW157538   9.536  10.570   7.112  0.2785  0.2871 -0.1929
16190SOL    HW257539   9.644  10.634   7.196  0.5993  1.7900 -1.6978
16191SOL     OW57540   5.591   5.029   3.677 -0.0362  0.7102 -0.1929
16191SOL    HW157541   5.671   5.073   3.648 -1.0093  3.4792  1.0153
16191SOL    HW257542   5.610   5.001   3.766 -0.5962  1.9459  0.3258
16192SOL     OW57543   8.083   6.780   0.080 -0.7958  0.9997 -0.5456
16192SOL    HW157544   8.086   6.857   0.135  1.1921  1.5017 -1.2716
16192SOL    HW257545   8.143   6.718   0.121 -0.4546  0.8082 -1.3147
16193SOL     OW57546   4.781   3.918   4.534 -0.3904  0.1651 -0.0694
16193SOL    HW157547   4.780   3.869   4.452  0.9230  0.3330 -0.2152
16193SOL    HW257548   4.869   3.956   4.538 -1.1052  1.8668  0.4124
16194SOL     OW57549   1.650  11.840   4.628 -0.3467 -0.4106  0.3014
16194SOL    HW157550   1.639  11.924   4.584  1.2339 -0.7516 -0.8388
16194SOL    HW257551   1.576  11.787   4.598 -0.1192 -0.1397 -0.7779
16195SOL     OW57552   8.363   1.458   4.405 -0.2772  0.2390  0.1574
16195SOL    HW157553   8.311   1.517   4.460 -1.5411  0.3130 -1.0669
16195SOL    HW257554   8.320   1.373   4.412  1.1245 -0.4189  1.3506
16196SOL     OW57555   8.191   1.218   6.248  0.3892 -0.1134  0.0581
16196SOL    HW157556   8.154   1.141   6.289  1.6041 -0.9155 -0.2993
16196SOL    HW257557   8.130   1.239   6.177 -1.4310  0.9629  1.8271
16197SOL     OW57558  11.108   1.162   1.103 -0.1097  0.5523  0.3146
16197SOL    HW157559  11.127   1.078   1.146  0.6792  1.0535  0.9727
16197SOL    HW257560  11.014   1.160   1.087 -0.6248  0.7248  2.9066
16198SOL     OW57561   0.721   0.838   6.994  1.2562 -0.0375  0.2033
16198SOL    HW157562   0.659   0.774   7.029  1.2127 -0.3430 -0.4098
16198SOL    HW257563   0.804   0.818   7.037  1.3878 -0.9084 -0.4318
16199SOL     OW57564  12.039   5.390   3.550  0.3020 -0.5628  0.0341
16199SOL    HW157565  12.062   5.468   3.601 -0.8967 -0.7827  0.9624
16199SOL    HW257566  11.980   5.422   3.483 -1.5024 -0.8682  1.4158
16200SOL     OW57567   8.191   0.834   4.779 -0.1868 -0.7429 -0.1154
16200SOL    HW157568   8.122   0.792   4.831 -1.3744  0.5988 -0.5517
16200SOL    HW257569   8.157   0.922   4.760  1.5044 -0.1573 -0.6372
16201SOL     OW57570   6.389   3.940   1.656 -0.4512 -1.1942  0.0425
16201SOL    HW157571   6.301   3.973   1.670 -1.3513 -2.6750 -1.6152
16201SOL    HW257572   6.391   3.915   1.563  2.4816  0.9132 -0.6463
16202SOL     OW57573   2.736  12.197   8.959  0.2691 -0.0019 -0.3306
16202SOL    HW157574   2.677  12.257   8.913  1.2404  2.1590  1.0630
16202SOL    HW257575   2.796  12.255   9.006  0.2692 -2.0662  2.4259
16203SOL     OW57576   0.894  11.414   5.847 -0.3550 -0.4084  0.0470
16203SOL    HW157577   0.972  11.470   5.846 -1.1397  0.7258 -0.1432
16203SOL    HW257578   0.927  11.326   5.830  1.1159 -0.2744  1.8423
16204SOL     OW57579   3.165  10.263   1.012 -0.1132  0.5610 -0.1256
16204SOL    HW157580   3.099  10.297   1.072  1.4682  0.8183  1.5378
16204SOL    HW257581   3.161  10.168   1.023 -1.0980  0.4666 -1.0630
16205SOL     OW57582  11.977  11.093   6.791 -0.4369 -0.2324  0.6354
16205SOL    HW157583  11.891  11.126   6.817 -0.0890  1.9171 -0.7109
16205SOL    HW257584  12.035  11.169   6.795  1.0108 -1.2159 -0.2527
16206SOL     OW57585   0.888   3.787   1.864 -0.0408  0.1211  0.1751
16206SOL    HW157586   0.814   3.848   1.856 -0.9949 -1.1762 -1.5717
16206SOL    HW257587   0.919   3.799   1.954 -1.7220  1.4425  0.6365
16207SOL     OW57588  10.331   1.247   0.594 -0.5260  0.4250  0.0770
16207SOL    HW157589  10.263   1.247   0.662 -0.1142  0.1199  0.4929
16207SOL    HW257590  10.303   1.316   0.533 -1.8575 -0.5064 -0.4103
16208SOL     OW57591   1.486   2.561   2.350 -0.1748 -0.0371 -0.2163
16208SOL    HW157592   1.566   2.579   2.301  1.3627 -1.9323  1.4158
16208SOL    HW257593   1.493   2.617   2.428 -0.8540  0.3829 -0.4524
16209SOL     OW57594   3.616  10.574   3.392 -0.1651 -0.3792  0.3371
16209SOL    HW157595   3.538  10.519   3.399  0.4091 -1.3258 -0.4572
16209SOL    HW257596   3.681  10.519   3.348  0.7696  0.5897  0.4453
16210SOL     OW57597   6.043   3.931  11.837  0.1267 -0.1525 -0.0817
16210SOL    HW157598   6.117   3.952  11.780  0.4067 -0.4030  0.1808
16210SOL    HW257599   5.966   3.965  11.791  0.4964  0.9054  0.0588
16211SOL     OW57600   5.358   8.367   4.082  0.5419 -0.7198 -0.7731
16211SOL    HW157601   5.287   8.333   4.027  0.0347  0.7854 -1.0777
16211SOL    HW257602   5.344   8.461   4.084  0.9677 -0.6499  1.3760
16212SOL     OW57603  12.269   9.774  10.909  0.0704 -0.2550 -0.0955
16212SOL    HW157604  12.287   9.866  10.889  0.0398  0.0944  1.3559
16212SOL    HW257605  12.353   9.730  10.894 -0.1174 -0.1644 -1.5825
16213SOL     OW57606  10.841   6.623   0.690  0.2766 -0.2610 -0.1284
16213SOL    HW157607  10.863   6.590   0.777  1.4678 -1.2528 -0.7556
16213SOL    HW257608  10.786   6.699   0.705 -0.1323 -0.8451  1.4705
16214SOL     OW57609   1.708  10.491   4.044 -0.2048  0.2475 -0.1033
16214SOL    HW157610   1.746  10.489   3.956  0.8579  0.8242  0.3226
16214SOL    HW257611   1.712  10.583   4.069  1.5078 -0.1912  1.3750
16215SOL     OW57612   3.177   1.478  11.424 -0.1218 -0.7402 -0.3786
16215SOL    HW157613   3.118   1.402  11.419  1.4853 -2.0331 -0.7241
16215SOL    HW257614   3.212   1.476  11.513 -1.0797  0.4413  0.0529
16216SOL     OW57615   0.736  11.032   6.866  0.5029 -0.2591  0.2497
16216SOL    HW157616   0.733  11.083   6.947  0.2536  1.0162 -0.5270
16216SOL    HW257617   0.765  10.945   6.893  0.0722  0.0356  1.7501
16217SOL     OW57618   9.780   1.495   0.541 -0.3220 -0.2419 -0.7826
16217SOL    HW157619   9.864   1.535   0.518  0.0739  1.6977  3.2593
16217SOL    HW257620   9.715   1.559   0.515  0.1366  2.0349  2.9246
16218SOL     OW57621   8.098   9.342  10.189  0.1347 -0.2099  0.2296
16218SOL    HW157622   8.073   9.364  10.279  2.2575 -0.5210  0.9575
16218SOL    HW257623   8.189   9.371  10.182  0.6994 -2.1071 -1.1294
16219SOL     OW57624   0.014   1.680   3.032 -0.8176  0.0194  0.0006
16219SOL    HW157625   0.032   1.773   3.048 -2.4607  0.2947  0.5540
16219SOL    HW257626   0.099   1.638   3.036 -0.0161  1.5207 -0.3677
16220SOL     OW57627  10.504   7.897   3.239  0.5288  0.4311  0.1074
16220SOL    HW157628  10.413   7.912   3.212  0.2951  0.4708  0.9090
16220SOL    HW257629  10.513   7.946   3.321  0.7393 -1.0576  1.0035
16221SOL     OW57630  12.311   3.315  11.824 -0.2385 -0.0209 -0.0727
16221SOL    HW157631  12.317   3.287  11.732  2.1384 -1.2468  0.3747
16221SOL    HW257632  12.360   3.397  11.827 -3.1227  1.8773 -0.4320
16222SOL     OW57633   3.756   7.731   7.242 -0.4097  0.8033  0.6030
16222SOL    HW157634   3.732   7.687   7.323  1.0426 -1.4502 -0.0836
16222SOL    HW257635   3.844   7.766   7.259  0.3680 -0.6196 -0.2618
16223SOL     OW57636   0.563   6.213  11.436 -0.4747 -0.1787 -0.1954
16223SOL    HW157637   0.547   6.218  11.342 -1.0161  0.5401 -0.0747
16223SOL    HW257638   0.496   6.153  11.469 -0.6875  0.0528 -0.1939
16224SOL     OW57639  11.890   2.993   4.327 -0.5270 -0.8004 -0.1072
16224SOL    HW157640  11.940   3.000   4.246 -2.4527 -1.4859 -1.4481
16224SOL    HW257641  11.846   2.908   4.321 -1.6332 -0.3530  1.1041
16225SOL     OW57642   0.900   5.521   1.860  0.0728 -0.4183 -0.9274
16225SOL    HW157643   0.870   5.554   1.775  1.2734 -0.6036 -1.4386
16225SOL    HW257644   0.867   5.431   1.863 -0.4868 -0.2175 -0.9273
16226SOL     OW57645   0.289  10.976   5.196  0.3983  0.6074 -0.1490
16226SOL    HW157646   0.227  10.946   5.262  1.3539  0.8919  0.9135
16226SOL    HW257647   0.362  10.914   5.202  0.3691  0.4639 -1.1510
16227SOL     OW57648   2.254   3.154   1.055  0.0303  0.3585 -0.6334
16227SOL    HW157649   2.242   3.081   1.116  0.1824  1.3208  0.5891
16227SOL    HW257650   2.347   3.173   1.059  0.1431  0.0942 -1.6074
16228SOL     OW57651   1.935   8.668   5.802 -0.2100  0.0501  0.0800
16228SOL    HW157652   1.883   8.589   5.817  0.0670 -0.0148  0.7171
16228SOL    HW257653   1.928   8.717   5.883  2.2027 -0.8229  0.8884
16229SOL     OW57654   9.738   0.936   4.434 -0.0601 -0.1713 -0.3241
16229SOL    HW157655   9.801   0.867   4.454  1.8898  1.1251 -1.6156
16229SOL    HW257656   9.735   0.938   4.338 -0.7549  0.9302 -0.2897
16230SOL     OW57657  11.773   6.930   3.507  0.6747 -0.2421 -0.6231
16230SOL    HW157658  11.719   6.959   3.434  0.8723 -1.9208 -1.4919
16230SOL    HW257659  11.719   6.947   3.585 -0.1658  0.1793 -1.2850
16231SOL     OW57660  10.576  10.271   6.261 -0.0364 -0.4860  0.2330
16231SOL    HW157661  10.638  10.312   6.322  0.1411 -0.8286  0.2860
16231SOL    HW257662  10.494  10.317   6.276  0.4184  0.6262 -0.5036
16232SOL     OW57663  10.942   2.014  12.442  0.6170  0.7043  0.3816
16232SOL    HW157664  10.966   2.056  12.360 -1.3941 -0.6365 -0.9666
16232SOL    HW257665  10.881   2.075  12.484  0.1078  0.5265 -0.0912
16233SOL     OW57666   2.579   5.481   6.372  0.2569  0.3745  0.2754
16233SOL    HW157667   2.576   5.576   6.367 -0.1542  0.3570  0.2052
16233SOL    HW257668   2.596   5.453   6.282  2.4016  0.4542  0.5907
16234SOL     OW57669   9.320   7.583  10.753  0.0011  0.0480 -0.2965
16234SOL    HW157670   9.303   7.489  10.757 -1.0954  0.2267 -0.3770
16234SOL    HW257671   9.356   7.605  10.839  1.2796 -0.6116 -0.6393
16235SOL     OW57672  11.108   1.533   8.424  0.4272 -0.1637  0.0783
16235SOL    HW157673  11.117   1.544   8.519  0.3198 -1.9955  0.3523
16235SOL    HW257674  11.164   1.458   8.404  0.9089  0.5769 -1.4215
16236SOL     OW57675   3.722  11.337   0.263 -0.3596  0.4927 -0.3059
16236SOL    HW157676   3.810  11.332   0.300 -0.5402  1.1590  0.2213
16236SOL    HW257677   3.689  11.247   0.268 -1.3472  0.8906  3.5709
16237SOL     OW57678   5.861   7.961  10.616 -0.2225 -0.7266 -0.1402
16237SOL    HW157679   5.879   8.030  10.553 -1.0577 -0.5344 -0.1783
16237SOL    HW257680   5.947   7.922  10.634  0.4558  1.1367  0.8471
16238SOL     OW57681   6.279   9.796   9.437  0.2203  0.2691 -0.5827
16238SOL    HW157682   6.230   9.715   9.453  1.5257 -0.1303  1.9386
16238SOL    HW257683   6.370   9.767   9.431  0.8388  1.5982  1.5255
16239SOL     OW57684   0.408  10.072   5.261 -0.6499  0.1892  0.2511
16239SOL    HW157685   0.352  10.008   5.218 -0.5684  0.3278 -0.0596
16239SOL    HW257686   0.445  10.124   5.190 -1.9402  1.6043  0.5757
16240SOL     OW57687   7.665   0.825   9.938 -0.9794 -0.2677 -0.1287
16240SOL    HW157688   7.588   0.786   9.980 -2.0687  0.2919 -1.5180
16240SOL    HW257689   7.694   0.759   9.875 -1.1187  0.0372 -0.5146
16241SOL     OW57690  10.901  11.602   7.692  0.1057 -0.2578  0.2027
16241SOL    HW157691  10.900  11.607   7.788 -0.8550  0.5732  0.1529
16241SOL    HW257692  10.945  11.519   7.674 -1.8038 -1.6121  1.4128
16242SOL     OW57693   5.861   1.734  12.130 -0.4600  0.1812 -0.2530
16242SOL    HW157694   5.952   1.765  12.121 -0.4345  0.2627  0.2856
16242SOL    HW257695   5.809   1.799  12.083 -0.1970 -0.1221 -0.9829
16243SOL     OW57696   2.082   8.311  12.558  0.1089  0.1824  0.3717
16243SOL    HW157697   2.102   8.405  12.564  0.7913  0.1350 -0.7600
16243SOL    HW257698   2.039   8.302  12.472 -1.5369 -0.2930  1.2054
16244SOL     OW57699   4.050   0.129   2.154  0.6672  0.1498  0.4462
16244SOL    HW157700   4.037   0.061   2.220  1.0331 -2.7133 -2.1714
16244SOL    HW257701   4.065   0.209   2.204 -1.8381 -1.2073  3.7470
16245SOL     OW57702  10.897   9.168   9.517  0.3892  0.0483  0.0384
16245SOL    HW157703  10.843   9.092   9.496 -0.2566  0.2083  1.0629
16245SOL    HW257704  10.936   9.194   9.433 -0.0425 -0.8993 -0.4669
16246SOL     OW57705   1.998   5.144   3.311 -0.0811  0.0855 -0.1481
16246SOL    HW157706   2.087   5.173   3.331 -0.6743  0.3334  2.4865
16246SOL    HW257707   1.958   5.219   3.268  0.6673  0.3669 -0.3773
16247SOL     OW57708   8.022  10.446   1.984  0.4169 -0.2312 -0.0798
16247SOL    HW157709   8.104  10.461   1.938 -0.2435  0.5375 -1.0569
16247SOL    HW257710   7.978  10.532   1.984 -0.6718 -0.7694 -0.1562
16248SOL     OW57711  11.870   6.714   0.116 -0.1557 -0.1135  0.6925
16248SOL    HW157712  11.870   6.792   0.171  1.7092 -0.1384  0.7901
16248SOL    HW257713  11.945   6.726   0.057  0.8792 -2.2747  1.4393
16249SOL     OW57714  11.633   8.626   8.340  0.1346 -0.2944 -0.6967
16249SOL    HW157715  11.630   8.721   8.341 -1.4153 -0.3196 -0.0939
16249SOL    HW257716  11.658   8.603   8.251  0.9025  0.6692 -0.7410
16250SOL     OW57717   5.514   3.342   1.107  0.5704 -0.4640  0.0647
16250SOL    HW157718   5.586   3.302   1.057  2.1004 -0.8387  2.4222
16250SOL    HW257719   5.557   3.402   1.168 -1.2091  0.0444  0.8958
16251SOL     OW57720   0.967   1.696  11.295 -0.0719  0.1214  0.5459
16251SOL    HW157721   0.957   1.780  11.338  1.2155 -0.3390  1.8282
16251SOL    HW257722   0.951   1.632  11.365 -2.3659 -0.7630 -0.6913
16252SOL     OW57723  10.294  10.113  10.765 -0.5814 -0.3269 -0.3874
16252SOL    HW157724  10.370  10.138  10.818 -1.2556  1.1649 -0.0541
16252SOL    HW257725  10.314  10.025  10.734  1.0289 -0.1876  0.1469
16253SOL     OW57726  12.136   3.926   5.451 -0.2965 -0.0399  0.2224
16253SOL    HW157727  12.114   3.989   5.382 -0.4371  1.6613  1.7617
16253SOL    HW257728  12.053   3.906   5.494 -0.4690 -2.3018 -0.9986
16254SOL     OW57729   3.278  12.167   2.126  0.1067 -0.1312 -0.4461
16254SOL    HW157730   3.263  12.258   2.103 -0.5062 -0.3159 -0.7874
16254SOL    HW257731   3.369  12.151   2.102  0.0991  0.2787 -0.7522
16255SOL     OW57732  12.498   5.960   2.196  0.4660 -0.1942  0.0097
16255SOL    HW157733  12.589   5.986   2.188  0.4266 -0.6213 -2.5518
16255SOL    HW257734  12.491   5.880   2.144 -1.3291 -0.2732  0.3064
16256SOL     OW57735   9.912   3.507   3.435  0.1812 -0.1035 -0.3593
16256SOL    HW157736   9.856   3.496   3.512  0.8981 -0.8955  0.0701
16256SOL    HW257737   9.999   3.523   3.471  0.7123 -1.4393 -0.9714
16257SOL     OW57738  11.791   9.712  11.349 -0.4364  0.5637  0.0963
16257SOL    HW157739  11.787   9.782  11.284 -3.9271  0.4152 -0.0323
16257SOL    HW257740  11.820   9.755  11.429  0.9617  1.3503 -0.7920
16258SOL     OW57741   9.903   1.866   7.145 -0.2517 -0.6926 -0.0929
16258SOL    HW157742   9.839   1.865   7.216 -0.1508  1.3604  0.0770
16258SOL    HW257743   9.850   1.857   7.066 -0.5881 -0.6381  0.1212
16259SOL     OW57744   8.921   7.407   3.296 -0.0227  0.3928  0.1263
16259SOL    HW157745   8.884   7.320   3.279 -1.9041  0.9041  1.3366
16259SOL    HW257746   8.875   7.465   3.235  1.0219  0.6098 -0.4803
16260SOL     OW57747   7.985   1.991   4.259 -0.2435 -0.5545 -0.5348
16260SOL    HW157748   7.891   2.005   4.246 -0.1979 -0.5824 -0.9340
16260SOL    HW257749   8.026   2.043   4.190  0.2569  2.6978  1.9746
16261SOL     OW57750   2.625   9.475   3.604  0.5022 -0.0525  0.0737
16261SOL    HW157751   2.649   9.410   3.538 -0.3159 -1.7750  1.3926
16261SOL    HW257752   2.564   9.429   3.662  1.2098  1.3639  2.0518
16262SOL     OW57753  11.450   5.548  10.528  0.3668  0.2883 -0.0632
16262SOL    HW157754  11.432   5.577  10.439 -1.1707  2.1368  0.7787
16262SOL    HW257755  11.542   5.524  10.527  0.0298 -1.2412 -2.5037
16263SOL     OW57756   7.064  12.216  10.218  0.0890  0.4566 -0.4254
16263SOL    HW157757   7.074  12.308  10.192 -1.2579  0.3816 -1.2594
16263SOL    HW257758   6.979  12.190  10.184 -0.7259 -0.3703  2.0252
16264SOL     OW57759   3.915  10.245  11.763  0.3034  0.3582  0.4170
16264SOL    HW157760   3.993  10.280  11.719 -0.3998  1.6399  0.1432
16264SOL    HW257761   3.950  10.196  11.838  1.3521  1.4920  0.6951
16265SOL     OW57762   1.335   5.647  10.495 -0.3308  0.2876  0.4713
16265SOL    HW157763   1.379   5.686  10.420  2.4572 -1.1607  1.2094
16265SOL    HW257764   1.246   5.683  10.492 -0.5964 -0.1937 -3.8276
16266SOL     OW57765   7.025   6.774   5.550 -0.1229  0.8526 -0.2414
16266SOL    HW157766   7.009   6.748   5.459  0.8222  1.4099 -0.5850
16266SOL    HW257767   7.076   6.854   5.543  1.3834  0.0309  0.7648
16267SOL     OW57768   2.929  10.658   5.016  0.0187  0.0468  0.3990
16267SOL    HW157769   2.845  10.633   4.980  0.9954 -2.0623 -0.5626
16267SOL    HW257770   2.925  10.754   5.021 -1.4393  0.1971 -2.1489
16268SOL     OW57771   7.425   4.541   2.781  0.0743 -0.7397 -0.0576
16268SOL    HW157772   7.414   4.545   2.687  2.0151 -1.0844 -0.3488
16268SOL    HW257773   7.336   4.540   2.816 -0.6744 -0.1298 -1.8392
16269SOL     OW57774   8.406   6.049   5.706  0.0101 -0.3095 -0.5888
16269SOL    HW157775   8.457   6.121   5.743 -0.2550  0.5064 -1.7674
16269SOL    HW257776   8.373   6.003   5.783  2.0560 -0.5617  0.2114
16270SOL     OW57777   5.891   5.686  12.496  0.1319 -0.1902 -0.5719
16270SOL    HW157778   5.901   5.638  12.414  0.0794 -0.0882 -0.6371
16270SOL    HW257779   5.976   5.676  12.539  0.2872  0.0855 -0.8148
16271SOL     OW57780   5.978   9.969   4.186 -0.4592  0.5564  0.4943
16271SOL    HW157781   6.026   9.954   4.267  1.6302  1.2720 -0.5270
16271SOL    HW257782   5.966   9.881   4.149 -1.9685  0.1676  1.8077
16272SOL     OW57783   0.444   6.362  10.363  0.1228 -0.5981 -0.1452
16272SOL    HW157784   0.524   6.415  10.356  1.1214 -1.7699  1.6711
16272SOL    HW257785   0.375   6.426  10.380  0.8608  0.3274 -0.4998
16273SOL     OW57786   2.357  12.352  10.700 -0.6893  0.3142 -0.1255
16273SOL    HW157787   2.350  12.435  10.747  1.0619  0.1571  0.4672
16273SOL    HW257788   2.416  12.298  10.753  0.5240 -0.2534 -1.9508
16274SOL     OW57789   3.797  11.947   1.196  0.3120 -0.0112  0.8763
16274SOL    HW157790   3.790  12.009   1.123 -0.2286  1.1026  1.8552
16274SOL    HW257791   3.786  12.000   1.274 -1.7629 -1.5705  1.7182
16275SOL     OW57792   9.134   8.457   5.545  0.4629  0.1273  0.4361
16275SOL    HW157793   9.143   8.366   5.573  1.3093  0.8628  2.8468
16275SOL    HW257794   9.099   8.502   5.622 -0.8666  1.6930 -1.0263
16276SOL     OW57795   1.909   8.439   4.201  0.1618  0.3959 -0.2250
16276SOL    HW157796   1.824   8.412   4.168  0.1407 -0.5790  0.5753
16276SOL    HW257797   1.970   8.423   4.128 -0.1110 -0.3275 -0.3022
16277SOL     OW57798   2.355   0.253   0.994 -0.0243 -0.4480 -0.0417
16277SOL    HW157799   2.366   0.260   0.900 -0.5624 -3.0663 -0.3699
16277SOL    HW257800   2.261   0.241   1.006 -0.1164  0.9458  0.9738
16278SOL     OW57801   3.796   4.386   8.769  0.5906  0.3241  0.0006
16278SOL    HW157802   3.779   4.361   8.678 -0.3527  0.0050  0.2506
16278SOL    HW257803   3.885   4.355   8.786  0.4942 -0.3092 -0.5824
16279SOL     OW57804  10.202   8.309   3.027  0.1986 -1.0844 -0.6140
16279SOL    HW157805  10.119   8.319   2.981 -0.3714  0.8204  0.6703
16279SOL    HW257806  10.248   8.239   2.981 -2.1933 -2.3527 -1.2325
16280SOL     OW57807   4.049   6.843   9.401  0.0025  0.1197 -0.1565
16280SOL    HW157808   4.026   6.893   9.322  1.5170 -0.4280 -0.9700
16280SOL    HW257809   4.137   6.811   9.385 -0.5113 -1.9225  0.8210
16281SOL     OW57810   0.148   3.107   1.926 -0.3339 -0.2973 -0.3782
16281SOL    HW157811   0.132   3.028   1.978  0.3971  0.7314  1.5276
16281SOL    HW257812   0.243   3.109   1.915 -0.4310 -0.1660 -1.2393
16282SOL     OW57813   5.451   7.204   2.516  0.1920  0.4944  0.9259
16282SOL    HW157814   5.356   7.208   2.529  0.0729  1.8205 -0.1164
16282SOL    HW257815   5.475   7.293   2.491  1.9319  0.5031  2.4133
16283SOL     OW57816  10.240  12.162   7.246  0.2013 -0.0203 -0.2113
16283SOL    HW157817  10.201  12.241   7.283 -0.4087 -0.6625  0.5452
16283SOL    HW257818  10.165  12.111   7.215  0.5010 -0.8011  0.3149
16284SOL     OW57819   3.881   2.905   0.082 -0.1966  0.3793  0.1084
16284SOL    HW157820   3.927   2.873   0.004 -0.3109 -0.0110  0.1993
16284SOL    HW257821   3.912   2.849   0.153  0.1882  0.9716  0.4211
16285SOL     OW57822   3.654   9.033   6.149 -0.0273  0.4722 -0.2399
16285SOL    HW157823   3.718   8.963   6.138 -0.1846  0.1695  0.6699
16285SOL    HW257824   3.634   9.033   6.243  0.8484  2.5346 -0.0096
16286SOL     OW57825   9.921   3.276   5.805  0.0072  0.2271 -0.4997
16286SOL    HW157826  10.001   3.324   5.782  1.3715 -3.0131 -3.6397
16286SOL    HW257827   9.953   3.192   5.839 -2.1642 -0.0820  1.0021
16287SOL     OW57828   9.905   1.254   6.088  0.1051 -0.5145  0.1579
16287SOL    HW157829   9.853   1.317   6.137  0.0763 -0.1702 -0.3055
16287SOL    HW257830   9.945   1.305   6.018 -1.2251 -1.2955 -1.2352
16288SOL     OW57831  10.085   4.352   6.021  0.2445  0.1242 -0.4094
16288SOL    HW157832  10.014   4.324   5.963  1.7315  0.4650 -2.5499
16288SOL    HW257833  10.117   4.434   5.982  1.3752  0.3147  0.8480
16289SOL     OW57834   3.727   8.015   6.010 -0.2332 -0.0506 -0.1947
16289SOL    HW157835   3.789   7.948   6.041 -1.9764 -1.3840  0.6192
16289SOL    HW257836   3.724   8.080   6.080  0.0505 -0.1259 -0.1129
16290SOL     OW57837   2.120   1.073   1.335 -0.2409 -0.4543 -0.2378
16290SOL    HW157838   2.165   1.011   1.278  1.6630 -0.8108  1.5569
16290SOL    HW257839   2.178   1.149   1.339 -1.2864  0.3707 -0.3032
16291SOL     OW57840   9.469   6.515   5.257 -0.4122 -0.3974  0.3322
16291SOL    HW157841   9.408   6.517   5.330 -0.4023 -0.4130  0.3411
16291SOL    HW257842   9.485   6.422   5.242 -2.4229 -0.5413 -1.3641
16292SOL     OW57843  11.476  12.309   7.794 -0.2104  0.3142 -0.1536
16292SOL    HW157844  11.566  12.323   7.825 -0.5425 -0.0647  1.0303
16292SOL    HW257845  11.463  12.376   7.727  1.3737 -0.4198 -1.2721
16293SOL     OW57846  10.315   6.237   8.140  0.1615  0.0305 -0.6911
16293SOL    HW157847  10.390   6.278   8.185 -0.5238  1.0417 -0.4377
16293SOL    HW257848  10.309   6.150   8.179  0.1887  0.5354  0.4935
16294SOL     OW57849   8.255   1.760  12.467 -0.2641  0.3187  0.2741
16294SOL    HW157850   8.182   1.789  12.412 -0.0104 -0.0082 -0.2420
16294SOL    HW257851   8.261   1.666  12.452  1.3463  0.5906 -1.0153
16295SOL     OW57852   2.249   6.255   5.983 -0.4995  0.6645 -0.0529
16295SOL    HW157853   2.166   6.213   6.005 -0.1168  0.0800  0.2952
16295SOL    HW257854   2.286   6.201   5.914  0.0332  0.3736  0.4537
16296SOL     OW57855   0.871  10.377   0.260 -0.0312 -0.1208 -0.0210
16296SOL    HW157856   0.959  10.416   0.259  0.5147 -1.1378 -3.3807
16296SOL    HW257857   0.861  10.338   0.173 -3.2170 -1.4658  0.8118
16297SOL     OW57858   6.995   1.009   6.357  0.0800 -0.6182  0.5284
16297SOL    HW157859   7.025   0.950   6.287  2.7354  0.1714  0.8855
16297SOL    HW257860   6.940   1.073   6.312  0.3164 -1.1477 -0.5466
16298SOL     OW57861   0.742  10.198   3.028  0.2209  0.5054 -0.1994
16298SOL    HW157862   0.806  10.196   3.099  0.3801 -2.8184 -0.2792
16298SOL    HW257863   0.662  10.161   3.067 -1.5022  3.7278 -0.3432
16299SOL     OW57864  10.590   9.151   6.680 -0.0820 -0.0208  0.5137
16299SOL    HW157865  10.597   9.228   6.624  0.1366  1.4556  2.4801
16299SOL    HW257866  10.666   9.097   6.657  0.1958  0.7270 -0.3409
16300SOL     OW57867  11.389   6.744   0.696  0.0824  0.1488 -0.3387
16300SOL    HW157868  11.384   6.699   0.611 -1.9774  0.0369 -0.2171
16300SOL    HW257869  11.313   6.711   0.744 -0.0203  1.8520  0.7263
16301SOL     OW57870  12.279   7.984   5.459 -0.0585  0.1033 -0.0788
16301SOL    HW157871  12.268   7.900   5.413  2.0204 -0.1711 -0.1829
16301SOL    HW257872  12.216   7.981   5.530 -1.2798 -0.7601 -1.1550
16302SOL     OW57873   3.917   4.055   6.777  0.4356  0.1840  0.1901
16302SOL    HW157874   3.973   3.989   6.817 -2.1868 -2.2670  0.1950
16302SOL    HW257875   3.861   4.085   6.849 -2.8665 -2.6829 -0.9043
16303SOL     OW57876   9.069  11.002   3.809  0.2456 -0.1095  0.5582
16303SOL    HW157877   9.147  11.052   3.834  0.8370 -0.5311 -0.4003
16303SOL    HW257878   9.035  11.048   3.733 -0.8571  0.4703  1.3674
16304SOL     OW57879   3.680   9.005  11.587  0.3418 -0.7007 -0.1914
16304SOL    HW157880   3.596   8.983  11.628  0.0409 -0.1695 -0.5083
16304SOL    HW257881   3.686   9.100  11.594  0.3719 -0.6219 -1.2113
16305SOL     OW57882  11.780   6.881   9.890  0.7368  0.0750  0.6108
16305SOL    HW157883  11.707   6.927   9.849 -0.9154 -0.3144  2.9115
16305SOL    HW257884  11.784   6.797   9.844 -0.7601 -0.1827  0.9068
16306SOL     OW57885  11.719   6.913   8.815  0.4322 -0.3148  0.3046
16306SOL    HW157886  11.755   6.979   8.756  0.3003  0.1414  0.7241
16306SOL    HW257887  11.634   6.948   8.841  0.5500 -0.4328  0.8770
16307SOL     OW57888   1.559  12.184   2.983  0.0355 -0.3929 -0.0387
16307SOL    HW157889   1.608  12.257   3.022  1.3767 -1.3287  0.1108
16307SOL    HW257890   1.559  12.117   3.051 -1.4161 -0.4571 -0.0783
16308SOL     OW57891  11.268   1.220   7.349 -0.4498  0.3755  0.1142
16308SOL    HW157892  11.310   1.293   7.394  0.4286  0.2724 -0.5050
16308SOL    HW257893  11.261   1.151   7.414 -1.0174  0.9101  0.6250
16309SOL     OW57894   5.764   1.232   1.432  0.1307 -0.0845  0.4604
16309SOL    HW157895   5.788   1.224   1.524 -0.5021 -0.8509  0.5721
16309SOL    HW257896   5.677   1.270   1.432  0.5075  0.8051  0.1335
16310SOL     OW57897   0.630   0.630  10.292 -0.6183  0.4612 -0.0615
16310SOL    HW157898   0.632   0.559  10.355 -1.1109  1.6409  1.3462
16310SOL    HW257899   0.720   0.664  10.291 -0.1200 -0.7851 -1.5184
16311SOL     OW57900   3.842  12.127  10.223  0.2138  0.3198 -0.2730
16311SOL    HW157901   3.783  12.052  10.230  0.6665  0.0665  1.0990
16311SOL    HW257902   3.805  12.180  10.152 -0.5832 -0.7751 -0.6948
16312SOL     OW57903   6.124  10.432   7.914  0.5402  0.9504 -0.0590
16312SOL    HW157904   6.181  10.358   7.895 -0.5277  0.2724 -0.7483
16312SOL    HW257905   6.097  10.419   8.005  1.1048  1.0228  0.1215
16313SOL     OW57906   5.480   4.133  11.253 -0.3096 -0.0757 -0.0612
16313SOL    HW157907   5.570   4.104  11.268 -0.5712 -0.6352  0.4826
16313SOL    HW257908   5.489   4.219  11.213  0.4699 -0.1782 -0.1282
16314SOL     OW57909   6.960   9.722   6.579  0.0939  0.0507  0.1457
16314SOL    HW157910   6.952   9.789   6.647 -1.2625 -1.2707  1.3529
16314SOL    HW257911   7.003   9.648   6.622  0.6489 -0.2447 -0.8843
16315SOL     OW57912  12.128   8.416  11.316  0.1365  0.7151 -0.1357
16315SOL    HW157913  12.163   8.505  11.323  0.0962  0.6965  0.3112
16315SOL    HW257914  12.100   8.394  11.405  1.3496 -0.2477  0.0258
16316SOL     OW57915   0.949   5.843   8.958 -0.5412 -0.5180  0.0080
16316SOL    HW157916   0.905   5.764   8.925 -1.5048 -0.7874  1.8056
16316SOL    HW257917   1.017   5.809   9.017 -1.0637 -0.0280  0.9133
16317SOL     OW57918   4.486   1.888   5.730 -0.4792  0.7374  0.4913
16317SOL    HW157919   4.446   1.974   5.748 -0.0911  0.8311  0.9402
16317SOL    HW257920   4.510   1.855   5.817 -0.9909 -0.0111  0.3573
16318SOL     OW57921  10.032   7.810   1.053 -0.6170  0.3469 -0.8019
16318SOL    HW157922  10.014   7.839   0.964 -2.3972 -0.6613 -0.8014
16318SOL    HW257923  10.052   7.717   1.046 -0.2717  0.3644 -0.1916
16319SOL     OW57924  12.378  10.137   3.427 -0.4663  0.2017 -0.2788
16319SOL    HW157925  12.360  10.129   3.333 -0.4590  3.4276 -0.6633
16319SOL    HW257926  12.310  10.084   3.469 -0.3601 -1.4570 -2.0429
16320SOL     OW57927   2.661   1.860   7.281  0.0416 -0.1491 -0.1137
16320SOL    HW157928   2.608   1.939   7.295 -0.8406 -0.5526 -1.0221
16320SOL    HW257929   2.661   1.816   7.366  0.1525  0.5931  0.2795
16321SOL     OW57930   4.498   8.771   5.903  0.0021  0.2731 -0.0254
16321SOL    HW157931   4.486   8.677   5.915  0.2266  0.1316 -0.8456
16321SOL    HW257932   4.543   8.779   5.819 -0.9467  1.1687 -0.4743
16322SOL     OW57933   7.053   9.759  11.024  0.6721  0.1561 -0.3885
16322SOL    HW157934   7.100   9.699  10.966  3.9524  2.2731 -0.2088
16322SOL    HW257935   7.055   9.843  10.978 -0.9877  0.8497  0.7181
16323SOL     OW57936   6.831   8.810   5.811 -0.5551 -0.0297 -0.1285
16323SOL    HW157937   6.821   8.883   5.872 -1.6047 -0.0232 -0.2842
16323SOL    HW257938   6.920   8.818   5.778 -0.5902  1.0649  0.0055
16324SOL     OW57939   8.766   1.088  11.674 -0.3698  0.3461  0.1108
16324SOL    HW157940   8.849   1.134  11.683 -0.4960  0.3366  1.3822
16324SOL    HW257941   8.760   1.068  11.580  0.8910  0.6418 -0.0438
16325SOL     OW57942   1.380   7.362   4.331 -0.0425  0.0053  0.3021
16325SOL    HW157943   1.465   7.399   4.354 -0.6535  1.3061  0.5835
16325SOL    HW257944   1.386   7.343   4.237  0.0902  1.5298 -0.0344
16326SOL     OW57945   4.112   1.510   6.450  0.3688 -0.2702 -0.8056
16326SOL    HW157946   4.140   1.488   6.362  1.8119 -0.4226 -0.3323
16326SOL    HW257947   4.066   1.431   6.481  0.3722 -0.4297 -1.2004
16327SOL     OW57948   9.221   7.061  10.251 -0.0690 -0.0584 -0.2659
16327SOL    HW157949   9.251   6.992  10.193 -0.6024  0.2108 -0.8823
16327SOL    HW257950   9.299   7.091  10.297  0.3863 -0.1801 -0.9557
16328SOL     OW57951  11.823   7.969   3.157 -0.2026  0.8442 -0.1994
16328SOL    HW157952  11.903   8.022   3.161  0.9754 -0.8181 -0.8445
16328SOL    HW257953  11.780   7.997   3.076 -0.8954  2.5216  0.6939
16329SOL     OW57954   6.926  11.269   8.005 -0.6076 -0.2871  0.0926
16329SOL    HW157955   6.877  11.204   8.056 -1.5325  0.7296  0.5312
16329SOL    HW257956   6.916  11.240   7.914 -0.4742 -1.1068  0.3305
16330SOL     OW57957  10.671   6.017   6.461  0.0111 -0.0410 -0.6483
16330SOL    HW157958  10.681   6.066   6.542 -0.0553 -0.3339 -0.4609
16330SOL    HW257959  10.713   6.071   6.395 -0.5964  0.5573 -0.5573
16331SOL     OW57960   7.378   1.302   5.499 -0.3810  0.0017 -0.3375
16331SOL    HW157961   7.352   1.394   5.504  0.1822  0.1379  0.2353
16331SOL    HW257962   7.457   1.302   5.444 -0.2927 -0.1135 -0.2123
16332SOL     OW57963   6.335   3.845   4.151  0.2458  0.3331  0.3843
16332SOL    HW157964   6.257   3.796   4.176  0.4603 -0.5135 -0.5324
16332SOL    HW257965   6.398   3.827   4.222 -0.7711  2.0572  1.7868
16333SOL     OW57966  12.286  11.477   6.111 -0.3110 -0.4078  0.0080
16333SOL    HW157967  12.308  11.435   6.194 -0.2015  0.8696  0.6474
16333SOL    HW257968  12.195  11.505   6.122 -0.7057 -1.3223 -0.7834
16334SOL     OW57969   1.851  11.626   3.613  0.1445  0.3066 -0.1419
16334SOL    HW157970   1.935  11.640   3.658  1.0653 -0.1842 -1.6426
16334SOL    HW257971   1.867  11.550   3.557 -1.1705  0.4931 -0.7858
16335SOL     OW57972   9.361   1.197   9.265 -0.2702  0.0887 -0.4221
16335SOL    HW157973   9.451   1.223   9.250 -0.5667  1.9960  0.7607
16335SOL    HW257974   9.367   1.120   9.322  0.6120  0.4026 -0.0839
16336SOL     OW57975   0.048  11.941   8.619  0.1155  1.0135  0.5461
16336SOL    HW157976   0.030  11.991   8.540  4.8037  0.0558 -1.4854
16336SOL    HW257977   0.011  11.855   8.602  0.1460  1.1310 -0.1407
16337SOL     OW57978  12.120   8.820   3.865  0.3556 -0.0270  0.4274
16337SOL    HW157979  12.210   8.850   3.859 -0.0090  0.9407 -0.8352
16337SOL    HW257980  12.087   8.825   3.775 -1.1869  0.4454  0.9778
16338SOL     OW57981  11.959   6.591   7.355 -0.0148  0.0894  0.0821
16338SOL    HW157982  12.023   6.580   7.425 -1.9813  1.2003  2.1731
16338SOL    HW257983  12.009   6.628   7.282  1.5123  2.1523  2.0491
16339SOL     OW57984  12.033   3.912   4.249  0.5684  0.0728 -0.2784
16339SOL    HW157985  12.057   4.003   4.265 -1.1263  0.3182  1.1584
16339SOL    HW257986  11.939   3.915   4.231  0.6171 -1.3278 -0.8596
16340SOL     OW57987   0.777   0.976  11.430  0.1643 -0.2177 -0.8401
16340SOL    HW157988   0.844   0.981  11.499 -0.9519  0.6884  0.2367
16340SOL    HW257989   0.772   1.066  11.397 -1.5995  0.1180  0.2160
16341SOL     OW57990   0.275   1.682  11.456  0.6882  0.5400  0.0123
16341SOL    HW157991   0.312   1.689  11.544 -0.5788 -0.1162  0.6080
16341SOL    HW257992   0.210   1.752  11.451  0.3929  0.2498 -0.2223
16342SOL     OW57993  10.864   3.744   5.577  0.1513 -0.1321 -0.2291
16342SOL    HW157994  10.900   3.739   5.489  0.4789 -0.8533 -0.0615
16342SOL    HW257995  10.915   3.812   5.621  0.2321 -0.0295 -0.4838
16343SOL     OW57996   9.766   0.891   9.226  0.0009 -0.0276 -0.5850
16343SOL    HW157997   9.853   0.901   9.264  1.6422 -1.5807 -3.5826
16343SOL    HW257998   9.775   0.923   9.136 -2.5878 -0.0950 -0.9528
16344SOL     OW57999   9.110   2.098   5.048  0.2322  0.5295  0.4960
16344SOL    HW158000   9.043   2.074   5.112 -0.6334 -1.6681 -1.0986
16344SOL    HW258001   9.168   2.021   5.044  0.8021  0.9927 -0.6598
16345SOL     OW58002   9.923   7.197   4.054 -0.3485 -0.3400 -0.2673
16345SOL    HW158003   9.875   7.230   3.977 -0.7729  1.4656  0.7030
16345SOL    HW258004   9.977   7.271   4.082  0.4150 -1.2348  0.6956
16346SOL     OW58005   1.723  11.915   6.913  0.0474 -0.0241 -0.0153
16346SOL    HW158006   1.722  11.819   6.909  4.4190 -0.2769 -0.1965
16346SOL    HW258007   1.672  11.943   6.837  1.7968 -2.4377 -2.2902
16347SOL     OW58008   6.885   7.204   9.380  0.6065  0.0675 -0.4220
16347SOL    HW158009   6.821   7.202   9.309  0.7488 -1.5844 -0.5289
16347SOL    HW258010   6.926   7.291   9.373 -0.8062  0.7109 -1.0595
16348SOL     OW58011   4.298  10.130   4.720 -0.1582  0.0724  0.1268
16348SOL    HW158012   4.389  10.128   4.749  0.1250 -3.4259 -0.5093
16348SOL    HW258013   4.259  10.204   4.766  2.3575  0.0488  2.5382
16349SOL     OW58014   0.147   5.600   5.179  0.0543 -0.1062 -0.4791
16349SOL    HW158015   0.104   5.615   5.263  2.3643 -1.3527  1.0500
16349SOL    HW258016   0.201   5.678   5.165  0.3515 -0.2761 -0.3113
16350SOL     OW58017   1.929   8.780  10.436  0.6612  0.1789  0.2552
16350SOL    HW158018   1.874   8.766  10.359  0.3599 -0.6539  0.6158
16350SOL    HW258019   2.017   8.793  10.400  0.7351 -1.3691 -0.1912
16351SOL     OW58020   5.806  10.714   0.505  0.0387  1.0393 -0.4465
16351SOL    HW158021   5.846  10.713   0.418  0.3266 -2.5454 -0.4143
16351SOL    HW258022   5.719  10.678   0.493 -0.4396  1.7610  0.6080
16352SOL     OW58023   4.618   8.874   0.890 -0.7029 -0.4886 -0.2800
16352SOL    HW158024   4.555   8.862   0.820 -2.7705 -1.1872  1.5764
16352SOL    HW258025   4.564   8.897   0.967  1.3068 -1.0645  1.3860
16353SOL     OW58026   6.478   1.144   8.347 -0.0931  0.2758  0.2646
16353SOL    HW158027   6.531   1.089   8.289 -1.7728 -0.5570 -0.5416
16353SOL    HW258028   6.482   1.231   8.306 -0.2501 -0.0247 -0.3956
16354SOL     OW58029   8.253   9.244   8.397  0.4995  0.0509 -0.4020
16354SOL    HW158030   8.244   9.305   8.470 -0.5334  1.8489 -1.9397
16354SOL    HW258031   8.347   9.244   8.378  0.5989  0.6514  0.0445
16355SOL     OW58032   4.333   7.072   4.226  0.2483  0.1098  0.0145
16355SOL    HW158033   4.376   7.038   4.148  0.4292  1.6525 -0.6000
16355SOL    HW258034   4.326   6.997   4.284 -1.2279 -1.4589 -2.0426
16356SOL     OW58035   1.509   6.737   3.367 -0.5789 -0.5056  0.3910
16356SOL    HW158036   1.434   6.767   3.315  0.1731  2.5649  0.8771
16356SOL    HW258037   1.495   6.776   3.453  1.4638 -0.0350  0.5472
16357SOL     OW58038   0.358   1.724   5.868 -0.2827  0.0297  0.2489
16357SOL    HW158039   0.362   1.629   5.882 -0.2299 -0.0197 -0.0979
16357SOL    HW258040   0.444   1.747   5.834 -0.7783 -0.0474 -1.1519
16358SOL     OW58041  11.585   5.194   8.333 -0.0785  0.0586  0.2808
16358SOL    HW158042  11.499   5.160   8.356  0.1987 -1.4498 -0.7719
16358SOL    HW258043  11.570   5.249   8.256 -0.1164 -0.1384  0.1471
16359SOL     OW58044   5.503   8.804   9.480  0.6327 -0.0858  0.1314
16359SOL    HW158045   5.473   8.727   9.431 -0.0012  0.2624 -0.0379
16359SOL    HW258046   5.424   8.856   9.493  0.9319  0.1788  0.8979
16360SOL     OW58047   7.294   7.763   5.767 -0.2161 -0.3517  0.0125
16360SOL    HW158048   7.243   7.708   5.826 -0.5521 -2.2376 -1.9295
16360SOL    HW258049   7.264   7.740   5.680  1.6744  0.8806 -1.0391
16361SOL     OW58050  10.593   4.585   0.214 -0.4939 -0.0086  0.0616
16361SOL    HW158051  10.528   4.626   0.270 -1.7690  0.8069 -1.9044
16361SOL    HW258052  10.578   4.623   0.128  0.2706 -2.3707 -1.2143
16362SOL     OW58053   6.305   3.895   0.054  0.2201 -0.3306 -0.2186
16362SOL    HW158054   6.330   3.829  -0.009  0.6938  0.4128 -0.8228
16362SOL    HW258055   6.211   3.881   0.068 -0.6532  1.3837 -3.4294
16363SOL     OW58056   3.338   9.350   7.968 -0.2706 -0.2247  0.2765
16363SOL    HW158057   3.393   9.422   7.938 -0.0942 -0.2000  0.6561
16363SOL    HW258058   3.396   9.273   7.965 -0.3248 -0.2674  0.3220
16364SOL     OW58059   2.090   9.550   9.425 -0.0805  0.2807  0.2588
16364SOL    HW158060   2.160   9.613   9.407 -1.2805  1.2551 -1.2975
16364SOL    HW258061   2.080   9.501   9.344  0.4777 -1.6391  1.2828
16365SOL     OW58062   0.342   9.749  12.169 -0.4436 -0.1529 -0.4975
16365SOL    HW158063   0.407   9.684  12.195 -0.2538 -0.1238 -0.8928
16365SOL    HW258064   0.259   9.702  12.174 -0.5616  0.1909  1.3337
16366SOL     OW58065  11.319   3.882   8.257  0.0463 -0.2850  0.3061
16366SOL    HW158066  11.320   3.786   8.258 -1.7529 -0.3423 -0.4807
16366SOL    HW258067  11.340   3.907   8.347  0.6782 -1.4041  0.4822
16367SOL     OW58068   3.142   8.168   3.158 -0.4170  0.1855  0.8781
16367SOL    HW158069   3.048   8.184   3.161 -0.3814  1.0485 -1.0758
16367SOL    HW258070   3.177   8.212   3.235 -1.6724 -0.9063  2.1257
16368SOL     OW58071   5.144  12.477   0.289  0.1438  0.3869  0.6254
16368SOL    HW158072   5.059  12.461   0.331  0.0234  0.4518  0.4072
16368SOL    HW258073   5.125  12.539   0.219  0.0209 -1.0393 -0.6643
16369SOL     OW58074  10.657   4.717   7.242 -0.2104  0.3892  0.2474
16369SOL    HW158075  10.569   4.707   7.278  0.0379  0.8633  1.0149
16369SOL    HW258076  10.685   4.628   7.222 -0.4823  0.1340  0.9530
16370SOL     OW58077   4.633   4.108  10.987  0.3112 -0.0084  0.2853
16370SOL    HW158078   4.576   4.073  10.919  0.3292  1.2582 -0.4167
16370SOL    HW258079   4.594   4.193  11.009  0.0801 -0.5521  2.1523
16371SOL     OW58080   6.916   0.811   8.230 -0.3050 -0.0613  0.1227
16371SOL    HW158081   6.946   0.729   8.269 -1.6794  0.3526  2.2597
16371SOL    HW258082   6.973   0.877   8.268 -0.9882  0.2401  0.6491
16372SOL     OW58083   9.939  10.516  12.461  0.7003 -0.1776 -0.1598
16372SOL    HW158084   9.930  10.607  12.432 -2.2401  0.1575  1.3855
16372SOL    HW258085   9.997  10.476  12.397  1.6668  2.6450 -1.1876
16373SOL     OW58086   4.367   9.178  11.321 -0.5726 -0.5742  0.4096
16373SOL    HW158087   4.389   9.239  11.392 -2.0097  1.8886 -1.1281
16373SOL    HW258088   4.296   9.125  11.356  1.0717 -1.8886  1.9766
16374SOL     OW58089  12.531   4.436   8.439 -0.1920 -0.2860 -0.1573
16374SOL    HW158090  12.529   4.509   8.501  0.5660  0.7908 -1.3469
16374SOL    HW258091  12.443   4.400   8.442 -0.9761  1.4705 -0.4321
16375SOL     OW58092  10.652   8.075   8.728 -0.1418  0.1107 -0.0120
16375SOL    HW158093  10.705   8.078   8.649 -0.6280 -0.9535 -0.3955
16375SOL    HW258094  10.652   8.165   8.760  1.3505  0.2566 -0.3480
16376SOL     OW58095   7.135  10.884   2.550 -0.1941  0.0494 -0.0877
16376SOL    HW158096   7.204  10.878   2.485 -0.3913  0.3106 -0.3213
16376SOL    HW258097   7.168  10.947   2.615 -0.5607  0.8264 -0.6361
16377SOL     OW58098   1.937   1.902   8.484 -0.1757 -0.3830 -0.1162
16377SOL    HW158099   1.936   1.806   8.486 -1.7280 -0.3881  1.5966
16377SOL    HW258100   1.854   1.925   8.442 -0.8973  0.1603  1.5213
16378SOL     OW58101   1.522  10.882  12.021  0.2396  0.3687  0.5848
16378SOL    HW158102   1.477  10.810  11.978 -0.1401  2.2294 -2.4448
16378SOL    HW258103   1.453  10.946  12.039  1.1020  1.8918 -1.1507
16379SOL     OW58104   0.474   1.589   5.597  0.4243 -0.3174 -0.4304
16379SOL    HW158105   0.490   1.536   5.519  0.9502  0.4596 -0.8642
16379SOL    HW258106   0.497   1.531   5.670  2.3875 -0.2510 -0.9359
16380SOL     OW58107   3.671  10.052   6.841 -0.3595  0.1525  0.3584
16380SOL    HW158108   3.627   9.998   6.776 -0.7644  1.6768 -0.6804
16380SOL    HW258109   3.762  10.054   6.813 -0.7763  1.9469 -1.0390
16381SOL     OW58110   5.319  12.130   7.415 -0.0940  0.2077 -0.5850
16381SOL    HW158111   5.238  12.181   7.418 -0.2378 -0.0123  2.9891
16381SOL    HW258112   5.368  12.168   7.342 -3.0859  0.7145 -2.5473
16382SOL     OW58113   6.008   6.279   6.780 -0.1379 -0.4118  0.2675
16382SOL    HW158114   6.013   6.195   6.734 -1.0448 -0.1162 -0.3977
16382SOL    HW258115   5.997   6.256   6.872  0.5735 -1.0125  0.2140
16383SOL     OW58116   0.448   2.087   4.708  0.2002 -0.7718 -0.3088
16383SOL    HW158117   0.401   2.111   4.788  0.9940 -0.1987  0.0031
16383SOL    HW258118   0.464   1.993   4.717  0.9851 -0.5670  0.5981
16384SOL     OW58119  10.653   5.833  11.951 -0.0130  0.2142 -0.8033
16384SOL    HW158120  10.738   5.866  11.922  0.9693 -1.7275 -0.2936
16384SOL    HW258121  10.623   5.778  11.879  0.1055 -0.6431 -0.2205
16385SOL     OW58122  11.610   2.420   3.115  0.7037  0.3986 -0.0549
16385SOL    HW158123  11.666   2.346   3.091 -1.1084 -1.5271  1.2849
16385SOL    HW258124  11.585   2.459   3.031  0.7299 -1.2920 -0.8923
16386SOL     OW58125  11.707   3.946   9.838 -0.0511  0.1588 -0.6441
16386SOL    HW158126  11.714   3.892   9.917 -0.1347  1.0389 -0.0225
16386SOL    HW258127  11.652   4.020   9.864  1.9368  1.7780 -0.7821
16387SOL     OW58128   0.916   3.001   9.038  0.5381  0.1933  0.1053
16387SOL    HW158129   0.920   3.087   8.996  1.0299  0.7127  1.1505
16387SOL    HW258130   0.997   2.957   9.012  1.1796  0.7854  1.0246
16388SOL     OW58131  10.447   5.348  10.973 -0.2061 -0.2265 -0.4785
16388SOL    HW158132  10.372   5.295  10.945 -0.4759 -0.2002  0.1776
16388SOL    HW258133  10.410   5.415  11.029  0.3475 -0.4430  0.1702
16389SOL     OW58134   5.510   7.060   4.708  0.2879 -0.4112 -0.5993
16389SOL    HW158135   5.418   7.032   4.716 -0.1872  0.9890 -0.7953
16389SOL    HW258136   5.520   7.079   4.614  1.0182 -1.2779 -0.7106
16390SOL     OW58137  10.000   2.023  10.402 -0.2945  0.0917  0.2793
16390SOL    HW158138  10.066   2.001  10.336  0.1273 -0.4481  0.8606
16390SOL    HW258139  10.044   2.008  10.486 -1.3337 -0.8896  0.6895
16391SOL     OW58140   9.452   4.171  10.627 -0.1706  0.2957 -0.1486
16391SOL    HW158141   9.427   4.260  10.606  0.5202  0.0526 -2.1873
16391SOL    HW258142   9.546   4.167  10.611  0.0933 -0.4219  1.3821
16392SOL     OW58143  11.960   6.255   3.660 -0.3570 -0.4054  0.6539
16392SOL    HW158144  12.027   6.199   3.699  0.6579  0.9456  0.9248
16392SOL    HW258145  12.003   6.340   3.649 -1.6777  0.1810 -0.2499
16393SOL     OW58146   1.872   1.071   6.982 -0.0028  0.3659  0.2339
16393SOL    HW158147   1.889   1.137   6.914  0.9212  0.6420  0.7195
16393SOL    HW258148   1.841   1.122   7.057  0.2911  0.2043  0.4659
16394SOL     OW58149   3.555   4.154   0.657  0.1141 -0.0225  0.1680
16394SOL    HW158150   3.594   4.183   0.739 -2.3941 -0.0348  1.4710
16394SOL    HW258151   3.462   4.173   0.667 -0.4457 -1.1239 -2.2184
16395SOL     OW58152   8.234   8.496   6.380  0.1709  0.0460 -0.5395
16395SOL    HW158153   8.140   8.513   6.377  0.3105  0.8410 -0.8437
16395SOL    HW258154   8.269   8.544   6.305  0.5988 -1.7740 -1.5341
16396SOL     OW58155   4.351  11.008  12.064  0.4589  0.3894  0.0712
16396SOL    HW158156   4.410  11.053  12.125 -0.2730  1.5483 -0.0501
16396SOL    HW258157   4.280  11.070  12.049 -0.4724 -0.7357 -0.2873
16397SOL     OW58158   0.723   1.081   6.864  0.1063  0.0733  0.3627
16397SOL    HW158159   0.799   1.122   6.907 -0.4052  0.5678  0.8085
16397SOL    HW258160   0.698   1.010   6.922  0.7191 -0.6153 -0.1918
16398SOL     OW58161  11.961  12.183   6.332 -0.2315 -0.3260  0.3857
16398SOL    HW158162  12.014  12.262   6.321 -2.0395  1.2830  2.2415
16398SOL    HW258163  11.925  12.191   6.420 -2.8894 -1.6922 -0.4783
16399SOL     OW58164  12.321   9.123   0.750  0.2130  0.1003 -0.0072
16399SOL    HW158165  12.243   9.075   0.725  0.8597 -0.7074 -0.5309
16399SOL    HW258166  12.308   9.143   0.843  0.1025 -1.4803  0.3527
16400SOL     OW58167   2.227   3.638   5.758 -0.1360 -0.0384  0.3082
16400SOL    HW158168   2.186   3.558   5.788 -0.7373 -0.0989 -0.6251
16400SOL    HW258169   2.286   3.610   5.688  1.0321  0.1289  1.1877
16401SOL     OW58170   1.761  12.556   7.715  0.0294 -0.2682 -0.5796
16401SOL    HW158171   1.681  12.590   7.754  0.9288  0.0034  1.1032
16401SOL    HW258172   1.807  12.634   7.683 -0.9284 -0.5154 -2.7910
16402SOL     OW58173   5.540   1.989   2.644  0.5245 -0.3290  0.0164
16402SOL    HW158174   5.571   1.899   2.653  0.5990 -0.1535  1.9747
16402SOL    HW258175   5.446   1.980   2.624  0.6835 -0.8212 -0.5510
16403SOL     OW58176   0.682   4.743   2.917  0.3553  0.3732 -0.0696
16403SOL    HW158177   0.707   4.663   2.963 -1.4063  0.7125  1.6348
16403SOL    HW258178   0.765   4.786   2.897  1.2868 -0.0656  2.4519
16404SOL     OW58179  12.583   0.615  10.618 -0.2156  0.0359  0.4425
16404SOL    HW158180  12.493   0.596  10.645  0.0502 -0.2130  1.1595
16404SOL    HW258181  12.573   0.683  10.551 -0.8679  1.2230  1.6737
16405SOL     OW58182   8.611   5.614   8.379  0.0657 -0.2109  0.4409
16405SOL    HW158183   8.664   5.538   8.356 -0.9633 -0.4632 -1.2466
16405SOL    HW258184   8.521   5.588   8.356 -0.8782  0.1259  3.3935
16406SOL     OW58185   8.607  11.742   2.679  0.2204  0.0364  0.0016
16406SOL    HW158186   8.545  11.672   2.698  0.5337 -0.5998 -1.2500
16406SOL    HW258187   8.693  11.704   2.697  0.3743  0.1665 -0.4339
16407SOL     OW58188   4.753   1.587   1.939  0.0170  0.2159  0.3360
16407SOL    HW158189   4.762   1.682   1.932 -0.5057  0.3140  0.9340
16407SOL    HW258190   4.743   1.571   2.033 -1.1343 -0.3163  0.1280
16408SOL     OW58191   4.292   6.722   9.307 -0.4469 -0.5502  0.3487
16408SOL    HW158192   4.278   6.746   9.216 -1.6161 -2.7741 -0.1305
16408SOL    HW258193   4.369   6.665   9.306 -0.4972 -0.6329  0.7297
16409SOL     OW58194   5.602   6.701   2.246  0.1346  0.4847  0.1643
16409SOL    HW158195   5.581   6.685   2.338 -2.8879  0.2838 -0.4512
16409SOL    HW258196   5.576   6.621   2.201  2.4636  0.2067 -0.8333
16410SOL     OW58197  10.602   2.190   9.169 -0.3263 -0.5630 -0.0774
16410SOL    HW158198  10.569   2.242   9.243  0.4090  0.3199 -0.3508
16410SOL    HW258199  10.587   2.246   9.093 -0.4408 -1.1815 -0.5167
16411SOL     OW58200   2.689   6.840   3.155 -0.8920  0.0558  0.1910
16411SOL    HW158201   2.615   6.781   3.169  0.7383 -2.0485  0.6812
16411SOL    HW258202   2.759   6.802   3.209  1.6004 -0.2765 -2.9834
16412SOL     OW58203   7.296  11.605   8.231  0.1196 -0.0455  0.2956
16412SOL    HW158204   7.247  11.612   8.313 -1.2917  0.7023 -0.5684
16412SOL    HW258205   7.255  11.532   8.185  2.0423 -1.6209  0.9358
16413SOL     OW58206   1.730  12.398  10.306  0.2244  0.5662  0.4646
16413SOL    HW158207   1.716  12.325  10.367 -1.7674  0.4083 -0.1274
16413SOL    HW258208   1.667  12.464  10.332 -0.1472  0.7967 -0.9460
16414SOL     OW58209   6.197   7.659   8.063  0.0309 -0.2124 -0.6501
16414SOL    HW158210   6.179   7.714   8.139  0.8558  1.6326 -1.6906
16414SOL    HW258211   6.194   7.570   8.096 -2.9133  0.3004  0.8322
16415SOL     OW58212   8.816   6.155  10.490  0.7498  0.7201  0.5183
16415SOL    HW158213   8.742   6.202  10.528 -1.0856 -0.6892 -1.1794
16415SOL    HW258214   8.808   6.066  10.525  1.4934  0.4801  0.0948
16416SOL     OW58215   6.075   5.038  11.264 -0.0438 -0.5263  0.0879
16416SOL    HW158216   6.022   5.117  11.251 -0.0768 -0.2904  1.4720
16416SOL    HW258217   6.135   5.037  11.190  0.8773  1.5565  0.7183
16417SOL     OW58218   9.052   6.100   7.234 -0.5279  0.8526  0.0135
16417SOL    HW158219   9.147   6.114   7.230 -0.2859 -0.5227  0.5939
16417SOL    HW258220   9.024   6.100   7.142 -0.4059  3.8132 -0.1172
16418SOL     OW58221  11.495   7.739   0.728 -0.2032  0.2295  0.2876
16418SOL    HW158222  11.487   7.679   0.654 -0.7674 -0.3236  0.7796
16418SOL    HW258223  11.491   7.682   0.805  1.0250  0.7271  0.7440
16419SOL     OW58224   1.054   7.241   1.906 -0.1260  0.7889  0.2796
16419SOL    HW158225   0.977   7.186   1.914 -0.6986  1.5559  0.0970
16419SOL    HW258226   1.037   7.297   1.830  1.3245 -0.1520 -0.8028
16420SOL     OW58227   3.607   1.184   4.140  0.4863  0.0544 -0.5761
16420SOL    HW158228   3.516   1.214   4.141  0.4359 -0.0992 -0.5797
16420SOL    HW258229   3.658   1.263   4.119  0.3004 -0.0019 -1.2562
16421SOL     OW58230   4.399   1.076  10.456 -0.3547 -0.0295  0.2907
16421SOL    HW158231   4.333   1.058  10.389 -1.3265 -0.7537  1.4146
16421SOL    HW258232   4.386   1.168  10.478  0.7585  0.5578 -1.3138
16422SOL     OW58233   9.373   7.318  10.450  0.1888  0.5597  0.4137
16422SOL    HW158234   9.426   7.376  10.503  0.8049 -2.3100  3.2676
16422SOL    HW258235   9.296   7.299  10.505  0.6586 -2.2515  0.2394
16423SOL     OW58236   0.173   3.519   7.605  0.3998 -0.3920 -0.1603
16423SOL    HW158237   0.153   3.470   7.685 -2.9441 -0.1514 -0.6978
16423SOL    HW258238   0.106   3.588   7.602  1.2801  0.4550 -2.4709
16424SOL     OW58239   2.474  12.394   2.952 -0.2059  0.1452 -0.1951
16424SOL    HW158240   2.544  12.459   2.962  0.3784 -0.4648 -0.2477
16424SOL    HW258241   2.428  12.395   3.036  0.9463 -0.6730  0.4782
16425SOL     OW58242  11.114  10.183   4.257 -0.3096  0.0637 -0.2099
16425SOL    HW158243  11.195  10.186   4.206  1.6407  2.5228  2.6296
16425SOL    HW258244  11.083  10.093   4.249  3.1160 -1.1919 -0.9251
16426SOL     OW58245   9.181   2.515   0.660  0.8148 -0.6623  0.0409
16426SOL    HW158246   9.108   2.455   0.673  0.0617 -0.0488 -1.1231
16426SOL    HW258247   9.251   2.460   0.625  0.1124 -0.8903 -1.0748
16427SOL     OW58248   4.690   2.428   7.825  0.0549 -0.3567  0.2885
16427SOL    HW158249   4.722   2.429   7.915  1.2426  1.4350 -0.1032
16427SOL    HW258250   4.707   2.338   7.795 -0.5771 -1.0483  1.8874
16428SOL     OW58251   3.033   0.693   5.065  0.1614 -0.4701 -0.6762
16428SOL    HW158252   2.946   0.671   5.031 -0.6814  2.5787 -0.7374
16428SOL    HW258253   3.081   0.725   4.988  0.7002 -0.3191 -0.2807
16429SOL     OW58254   0.465  12.139  12.080  0.3445 -0.0424 -0.3647
16429SOL    HW158255   0.398  12.093  12.030 -1.2018  3.1885 -1.5095
16429SOL    HW258256   0.425  12.154  12.166 -0.5003  1.8609 -1.0385
16430SOL     OW58257  11.066   1.335   8.741  0.1541 -0.0857  0.5721
16430SOL    HW158258  11.142   1.347   8.797  0.3492 -0.5983  0.4148
16430SOL    HW258259  11.021   1.258   8.776 -0.8508  0.7954  1.2890
16431SOL     OW58260  12.134   4.802   2.683 -0.0548  0.3622 -0.2158
16431SOL    HW158261  12.212   4.809   2.739  1.1518  0.3648 -1.8268
16431SOL    HW258262  12.090   4.723   2.714  1.1820 -0.2636  0.0379
16432SOL     OW58263   5.933   3.325   6.115  0.0740  0.1735 -0.0078
16432SOL    HW158264   5.954   3.336   6.022  1.8986 -0.5241  0.2725
16432SOL    HW258265   5.997   3.260   6.146 -0.1735  0.7629  1.8419
16433SOL     OW58266   1.176   3.798   4.407 -0.6771  0.2927 -0.2382
16433SOL    HW158267   1.110   3.855   4.446 -0.9181 -1.1948  1.7038
16433SOL    HW258268   1.136   3.768   4.325 -0.4175  3.0359 -1.4695
16434SOL     OW58269   6.152  12.091   9.839 -0.3303 -0.1798 -0.0556
16434SOL    HW158270   6.137  12.115   9.748 -0.2369  0.6064  0.1280
16434SOL    HW258271   6.200  12.166   9.876 -2.0169  0.3709  1.1279
16435SOL     OW58272   0.563   1.926   2.802  0.0924  0.1127 -0.6150
16435SOL    HW158273   0.597   2.012   2.780  0.4040 -0.0100 -0.6138
16435SOL    HW258274   0.469   1.940   2.816  0.3430  0.6952  0.6342
16436SOL     OW58275  11.532   0.402   5.995  0.7558  0.2298  0.0387
16436SOL    HW158276  11.600   0.383   6.060 -0.6584 -0.4748  1.3994
16436SOL    HW258277  11.571   0.379   5.911  1.5508 -2.1178  0.9583
16437SOL     OW58278   2.499  10.803  12.045 -0.9721  0.5735  0.4326
16437SOL    HW158279   2.521  10.787  11.953 -0.8658 -0.5435  0.6453
16437SOL    HW258280   2.459  10.722  12.076 -0.4171  0.7049  1.5590
16438SOL     OW58281   1.518   4.147  12.154 -0.4453  0.1635  0.0175
16438SOL    HW158282   1.455   4.100  12.100 -0.7023 -2.3449  2.2770
16438SOL    HW258283   1.597   4.093  12.153 -0.7577 -0.5243  2.7128
16439SOL     OW58284   3.637  11.796   4.424  0.8257 -0.2829  0.0370
16439SOL    HW158285   3.545  11.775   4.409  1.0521  0.0346 -2.0268
16439SOL    HW258286   3.684  11.746   4.358  2.0350  0.5645  0.2375
16440SOL     OW58287   1.322   5.325   3.235 -0.1840  0.1967 -0.7641
16440SOL    HW158288   1.284   5.412   3.234  1.4203  1.1891  3.5368
16440SOL    HW258289   1.252   5.268   3.202 -3.4975  2.4655  1.6433
16441SOL     OW58290   5.359   1.036  10.811 -0.1631 -0.0910 -0.0612
16441SOL    HW158291   5.338   0.971  10.878 -0.9846  0.0662 -0.1578
16441SOL    HW258292   5.443   1.006  10.775 -0.0240 -0.5221  0.5982
16442SOL     OW58293   6.825   8.619   4.783 -0.2640 -0.2852  0.1846
16442SOL    HW158294   6.820   8.627   4.878  0.0351 -0.0891  0.1872
16442SOL    HW258295   6.809   8.708   4.751 -0.5858 -0.3928  0.0410
16443SOL     OW58296   7.891   5.177   0.665 -0.2259 -0.2168 -0.5886
16443SOL    HW158297   7.929   5.130   0.739  0.7066  1.2891 -0.0662
16443SOL    HW258298   7.796   5.166   0.676 -0.1682  0.6808  1.3725
16444SOL     OW58299   1.699   8.334   3.257  0.1396 -0.6821 -0.5406
16444SOL    HW158300   1.656   8.273   3.317 -0.0918  0.3828  0.4089
16444SOL    HW258301   1.742   8.397   3.315 -1.1544  1.1254 -1.4770
16445SOL     OW58302   0.995  10.723   9.114  0.3445 -0.1282  0.5097
16445SOL    HW158303   0.944  10.689   9.188  3.3364 -1.0050  2.3763
16445SOL    HW258304   0.994  10.652   9.050 -0.7891 -0.0784  0.4434
16446SOL     OW58305   0.359   7.589   9.153  0.0197 -0.2863  0.0376
16446SOL    HW158306   0.294   7.520   9.141 -0.6050  0.2622  0.1719
16446SOL    HW258307   0.397   7.573   9.240 -0.7490  0.0354  0.4463
16447SOL     OW58308   5.281  11.742   3.981  0.3758  0.0619 -0.7329
16447SOL    HW158309   5.249  11.775   4.065  1.3368 -1.2351  0.1877
16447SOL    HW258310   5.270  11.815   3.920  0.1274  1.2059  0.6437
16448SOL     OW58311   0.786  10.531   1.522  0.4040  0.1016 -0.6247
16448SOL    HW158312   0.852  10.541   1.590 -0.6470 -0.0859  0.4611
16448SOL    HW258313   0.715  10.482   1.565 -0.4634  0.3550 -1.7290
16449SOL     OW58314   5.920   5.930   3.337 -0.0649  0.1441 -0.1477
16449SOL    HW158315   6.007   5.890   3.342 -0.0763 -0.1141 -1.5794
16449SOL    HW258316   5.868   5.881   3.401  0.1970 -1.4663 -1.1193
16450SOL     OW58317   7.299   8.368   3.604  0.0810  0.1034  0.1645
16450SOL    HW158318   7.381   8.326   3.628 -0.1293  1.1824  3.1108
16450SOL    HW258319   7.237   8.341   3.672 -0.9984  2.2842  0.1285
16451SOL     OW58320   6.982   0.004   1.001  0.3409  0.1200 -0.4030
16451SOL    HW158321   6.976   0.075   1.064 -1.1250  0.5949 -1.0259
16451SOL    HW258322   6.903   0.013   0.948  1.2421 -0.6130 -1.9321
16452SOL     OW58323   3.096   3.485   9.089  0.4700 -0.0052  0.4412
16452SOL    HW158324   3.111   3.467   8.997  0.3477  1.7752  0.0441
16452SOL    HW258325   3.005   3.460   9.104  0.4663 -0.2200  0.0790
16453SOL     OW58326   6.156   2.446   0.844  0.0943 -0.0052 -0.3712
16453SOL    HW158327   6.111   2.469   0.926 -1.2322 -0.6596 -0.8946
16453SOL    HW258328   6.178   2.530   0.805  1.1196  0.3263  0.8320
16454SOL     OW58329   8.358   6.843   1.659  0.7567  0.0947 -0.0615
16454SOL    HW158330   8.339   6.749   1.658  1.5745 -0.0850  0.1362
16454SOL    HW258331   8.307   6.879   1.586  0.7376 -0.5699 -0.3796
16455SOL     OW58332   5.983   3.947   4.277 -0.2934 -0.0463 -0.0080
16455SOL    HW158333   6.061   3.985   4.318 -1.0699  0.5001  1.0067
16455SOL    HW258334   6.011   3.859   4.250  0.6418  0.1009  0.4487
16456SOL     OW58335  12.378   9.365   7.350  0.1586 -0.1156 -0.3952
16456SOL    HW158336  12.364   9.458   7.335 -2.7427 -0.2304  0.9156
16456SOL    HW258337  12.372   9.355   7.445 -2.9782 -1.9556 -0.6352
16457SOL     OW58338   1.512   1.003   1.896  0.3819  0.3709  0.1119
16457SOL    HW158339   1.504   1.060   1.819 -0.2074  0.9567  0.5920
16457SOL    HW258340   1.500   0.915   1.862 -3.7965  0.7736 -0.0218
16458SOL     OW58341  10.565   7.081   1.453 -0.0626 -0.2276  0.2653
16458SOL    HW158342  10.512   7.160   1.463  0.4127 -0.0173  1.3170
16458SOL    HW258343  10.567   7.042   1.541  0.0072 -1.2213 -0.1548
16459SOL     OW58344  11.219  12.007   1.604 -0.3415  0.4566 -0.0919
16459SOL    HW158345  11.141  12.022   1.550 -0.4044  3.6200  0.6341
16459SOL    HW258346  11.197  12.047   1.689  1.5188  0.0579  0.6238
16460SOL     OW58347   1.434  10.676  11.072  0.5859 -0.1355  0.2195
16460SOL    HW158348   1.383  10.620  11.131  0.0573  0.5308  0.4106
16460SOL    HW258349   1.385  10.758  11.070 -0.1859 -0.5712 -2.2389
16461SOL     OW58350   8.155   9.304  12.128  0.3633 -0.2268  0.1925
16461SOL    HW158351   8.099   9.239  12.172  1.2598 -3.0471 -2.4680
16461SOL    HW258352   8.093   9.366  12.090 -0.6208 -0.2470  1.6723
16462SOL     OW58353   4.530   9.078   7.012  0.4309 -0.7752  0.4398
16462SOL    HW158354   4.453   9.076   7.068  0.6061 -0.2867  0.7082
16462SOL    HW258355   4.515   9.152   6.953 -0.6695 -2.4626 -1.5203
16463SOL     OW58356   4.358   9.517   2.274 -0.2968 -0.1289  0.8465
16463SOL    HW158357   4.268   9.549   2.267 -0.9860 -1.9806  0.5823
16463SOL    HW258358   4.365   9.485   2.364  0.2120  0.3210  0.9676
16464SOL     OW58359   9.637   8.073   6.601  0.3109  0.2906  0.2426
16464SOL    HW158360   9.635   8.079   6.506  0.3598 -0.1927  0.2091
16464SOL    HW258361   9.617   8.162   6.631 -0.1582  0.3438 -0.2109
16465SOL     OW58362   8.425   4.961   0.523 -0.1307 -0.1890 -0.2996
16465SOL    HW158363   8.341   4.923   0.497  0.3470 -1.6746  0.1686
16465SOL    HW258364   8.448   5.020   0.452  0.1948 -2.6078 -2.3367
16466SOL     OW58365  10.445   0.999   4.626  0.0046  0.6164 -0.1667
16466SOL    HW158366  10.435   0.909   4.658  0.8150 -0.2934 -2.2706
16466SOL    HW258367  10.539   1.017   4.635 -0.1253  1.1880  0.0672
16467SOL     OW58368  11.528  10.056   8.491  0.4426  0.1008 -0.0242
16467SOL    HW158369  11.491  10.108   8.563  0.0584  0.5395 -0.5343
16467SOL    HW258370  11.487   9.970   8.500 -2.2437  1.0633 -1.6857
16468SOL     OW58371   7.362   1.131   8.767 -0.2204 -0.4601 -0.3998
16468SOL    HW158372   7.389   1.081   8.844  1.3076  1.3157  0.2883
16468SOL    HW258373   7.394   1.079   8.693  2.2368 -0.1060  0.3194
16469SOL     OW58374   0.194   4.881  10.148  0.6071 -0.4758 -0.3742
16469SOL    HW158375   0.239   4.805  10.112  0.2673 -1.6723  1.5948
16469SOL    HW258376   0.260   4.924  10.203  0.0611 -0.9205  0.6686
16470SOL     OW58377  11.982   1.392   5.018 -0.4688 -0.2489 -0.5672
16470SOL    HW158378  11.978   1.467   4.959 -1.6355  0.7337  0.7013
16470SOL    HW258379  12.037   1.329   4.972  1.0091  1.5741 -1.4421
16471SOL     OW58380  10.014  12.585   9.899  0.6473 -0.3043  0.0734
16471SOL    HW158381  10.059  12.670   9.907  0.3099 -0.1660  0.5221
16471SOL    HW258382  10.075  12.531   9.848  1.5402 -0.2782  1.0753
16472SOL     OW58383   8.802   2.991   5.497  0.2207 -0.1143 -0.8446
16472SOL    HW158384   8.839   2.993   5.408  0.9445 -0.2845 -0.5507
16472SOL    HW258385   8.854   3.054   5.547 -0.5091  0.3498 -0.6533
16473SOL     OW58386   4.240   2.999   2.006 -0.0286 -0.2002  0.4108
16473SOL    HW158387   4.180   2.928   1.982 -0.4374 -0.2425  1.5250
16473SOL    HW258388   4.327   2.959   2.005 -0.3301 -0.9404  1.8216
16474SOL     OW58389   9.048   1.893   5.633 -0.1874  0.2777  0.5617
16474SOL    HW158390   8.955   1.902   5.656 -0.6933 -2.4666 -0.1317
16474SOL    HW258391   9.062   1.799   5.626  2.2020  0.6887 -1.2241
16475SOL     OW58392   5.335   5.895  12.564  0.4395  0.5678  0.4496
16475SOL    HW158393   5.392   5.952  12.615 -0.4791  0.7090  1.3570
16475SOL    HW258394   5.371   5.898  12.475  0.8901  1.9202  0.6499
16476SOL     OW58395   3.732   6.851  12.460  0.0188 -0.0436 -0.3973
16476SOL    HW158396   3.637   6.846  12.464 -0.0802  1.4470 -0.3536
16476SOL    HW258397   3.757   6.892  12.543  0.5732  0.9463 -1.0450
16477SOL     OW58398   0.584   4.298   2.439  0.0856 -0.0698 -0.0518
16477SOL    HW158399   0.678   4.314   2.429  0.6975 -2.0787  1.8224
16477SOL    HW258400   0.563   4.237   2.368  0.6146 -0.9739  0.5485
16478SOL     OW58401   8.999   6.243   8.375 -0.3375 -0.4786  0.6062
16478SOL    HW158402   8.978   6.309   8.441 -1.1219  0.2202 -0.3048
16478SOL    HW258403   9.087   6.266   8.344 -0.3812 -0.1990  0.6894
16479SOL     OW58404   2.324   5.253  10.356 -0.2420 -0.1902 -0.5166
16479SOL    HW158405   2.387   5.325  10.358 -2.0440  1.4695 -0.9859
16479SOL    HW258406   2.335   5.214  10.269  0.1061  0.1103 -0.6087
16480SOL     OW58407   8.152   0.747   6.137 -0.1856  0.2176  0.4942
16480SOL    HW158408   8.137   0.815   6.204 -2.6156  0.0658  0.2109
16480SOL    HW258409   8.239   0.712   6.157  0.6072  2.5077  1.4454
16481SOL     OW58410  11.870   6.719  10.964 -0.2925  0.2813 -0.3888
16481SOL    HW158411  11.795   6.684  10.915 -3.2879  2.7169  2.0977
16481SOL    HW258412  11.871   6.668  11.045  0.7028  0.3639 -0.3400
16482SOL     OW58413   7.556   7.124  10.993  0.2796  0.3902 -0.0625
16482SOL    HW158414   7.553   7.214  11.027  0.6635  0.7845 -1.0251
16482SOL    HW258415   7.465   7.094  10.997  0.0660  1.0017 -0.1947
16483SOL     OW58416   8.270   4.526   2.863 -0.4003 -0.4122 -0.2688
16483SOL    HW158417   8.354   4.505   2.906 -0.7355 -0.9027  0.1669
16483SOL    HW258418   8.245   4.610   2.901 -0.2505 -0.4064 -0.1784
16484SOL     OW58419   4.187   1.666  12.261  0.0723 -0.2426 -0.1293
16484SOL    HW158420   4.250   1.664  12.189 -1.1560  0.9318 -1.2939
16484SOL    HW258421   4.201   1.751  12.303  0.3896 -0.6848  0.6866
16485SOL     OW58422   4.735   0.262   9.684  0.6711  0.1128  0.1610
16485SOL    HW158423   4.752   0.170   9.666  1.5229  0.3098 -0.0610
16485SOL    HW258424   4.820   0.299   9.704  0.4068  0.9598 -0.2324
16486SOL     OW58425  12.162  11.188   6.107 -0.1968 -0.4687  0.6912
16486SOL    HW158426  12.077  11.202   6.150 -0.0708  0.2792  0.7013
16486SOL    HW258427  12.218  11.256   6.143  0.5932 -1.3495  1.1581
16487SOL     OW58428   4.120   9.497   6.630 -0.0901 -0.1049 -0.5641
16487SOL    HW158429   4.081   9.534   6.551 -1.0616 -1.9568 -1.0187
16487SOL    HW258430   4.055   9.513   6.698  1.0842  2.2013  0.1347
16488SOL     OW58431   0.416  11.042  11.328 -0.7041 -0.0816  0.1321
16488SOL    HW158432   0.511  11.030  11.333 -0.7710 -0.1448  2.3998
16488SOL    HW258433   0.388  10.984  11.258  0.6091 -2.5092  1.4734
16489SOL     OW58434  12.014   0.219   0.021  0.1415  0.1898  0.2872
16489SOL    HW158435  11.981   0.154   0.084 -0.9459  0.5372  0.1085
16489SOL    HW258436  11.999   0.178  -0.064  0.4803  0.2213  0.2153
16490SOL     OW58437  10.060   1.800   5.966  0.0666  0.5807 -0.1673
16490SOL    HW158438  10.105   1.763   6.041 -3.2000 -0.5962  1.4207
16490SOL    HW258439   9.978   1.834   6.002 -1.2316  0.8105 -3.0621
16491SOL     OW58440  11.401   0.782   7.142 -0.2053 -0.9321  0.3821
16491SOL    HW158441  11.378   0.756   7.231 -2.9618 -0.7670 -0.1847
16491SOL    HW258442  11.386   0.704   7.089  1.7097 -1.1189  0.0576
16492SOL     OW58443   5.570   3.856   3.497 -0.0281  0.0150  0.3983
16492SOL    HW158444   5.616   3.815   3.425 -0.0629  0.6723 -0.0065
16492SOL    HW258445   5.615   3.825   3.576  0.2412 -0.4144  0.0761
16493SOL     OW58446   8.953   0.634  10.454 -0.1486 -0.1832  0.2674
16493SOL    HW158447   9.014   0.597  10.519  2.1554  0.3680 -1.4385
16493SOL    HW258448   9.000   0.710  10.419 -2.8055  1.6347  0.4094
16494SOL     OW58449   1.540   1.150   9.573  0.0426 -0.1745 -0.0739
16494SOL    HW158450   1.519   1.086   9.505 -2.1348 -1.1238  1.4076
16494SOL    HW258451   1.456   1.179   9.607  0.9889 -0.4960  2.8955
16495SOL     OW58452  12.136   1.795  11.444  0.1348  0.4420 -0.4768
16495SOL    HW158453  12.142   1.755  11.531 -2.5382 -2.2961 -1.3787
16495SOL    HW258454  12.227   1.809  11.418  1.1392 -1.8815  1.3880
16496SOL     OW58455  10.403   9.553   1.936  0.2868  0.1879  0.3469
16496SOL    HW158456  10.454   9.558   2.017  2.5857 -0.4372 -0.9574
16496SOL    HW258457  10.414   9.462   1.907  0.4735  0.6933 -1.2267
16497SOL     OW58458   4.827   2.871   5.322  0.3988 -0.1802 -0.5852
16497SOL    HW158459   4.882   2.844   5.249  0.6253 -0.9301 -0.1422
16497SOL    HW258460   4.833   2.799   5.385 -1.6563 -0.6128 -0.8300
16498SOL     OW58461   2.505   1.069   0.611 -0.0887  0.0963  0.0747
16498SOL    HW158462   2.450   1.147   0.603  0.8694  0.6129 -2.3781
16498SOL    HW258463   2.502   1.047   0.704 -2.2894  1.6334  0.4486
16499SOL     OW58464   5.468   7.312   7.696  0.2310 -0.3960  0.2312
16499SOL    HW158465   5.381   7.304   7.656  0.5332  2.1827 -1.1777
16499SOL    HW258466   5.489   7.405   7.689  3.9511 -1.1749 -1.3807
16500SOL     OW58467  11.248   0.493   4.388  0.4185  0.2668 -0.3071
16500SOL    HW158468  11.301   0.572   4.390  1.1808 -0.2388  0.0599
16500SOL    HW258469  11.241   0.471   4.296  2.9048 -0.9765 -0.2829
16501SOL     OW58470  10.848   5.551   2.548 -0.3580 -0.3500  0.0217
16501SOL    HW158471  10.855   5.566   2.454 -0.1197 -1.6649 -0.1926
16501SOL    HW258472  10.781   5.483   2.557 -0.5834 -0.0305  0.8247
16502SOL     OW58473   2.389   1.352   8.667 -0.2855 -0.6379  0.1548
16502SOL    HW158474   2.384   1.304   8.750  2.1895  1.2967  1.5978
16502SOL    HW258475   2.454   1.305   8.615 -0.3958 -0.7671  0.1348
16503SOL     OW58476   8.761  11.608   0.237  0.1098  0.2628  0.2766
16503SOL    HW158477   8.723  11.696   0.233 -2.9111 -0.8158  2.0865
16503SOL    HW258478   8.767  11.589   0.331 -1.0582 -2.1103 -0.0564
16504SOL     OW58479   3.960   0.747   9.141 -0.5522 -0.9356  0.0751
16504SOL    HW158480   4.036   0.706   9.100 -0.0904 -0.3657  0.3478
16504SOL    HW258481   3.885   0.707   9.097 -0.1161 -1.8757  0.1471
16505SOL     OW58482   8.056   9.681   3.442 -0.5788  0.2486  0.0795
16505SOL    HW158483   8.062   9.774   3.420 -2.7731  0.5054  0.3500
16505SOL    HW258484   8.130   9.641   3.396  0.3347  2.0803 -0.1594
16506SOL     OW58485   1.997   6.546   5.390 -0.6478 -0.2212 -0.4575
16506SOL    HW158486   2.036   6.462   5.416  0.9039  0.6471  0.1274
16506SOL    HW258487   2.071   6.598   5.358 -1.3913  1.3069  0.2136
16507SOL     OW58488   3.306   3.169   8.513  0.6592 -0.2581 -0.4297
16507SOL    HW158489   3.216   3.186   8.539  0.2453  1.2519 -2.5084
16507SOL    HW258490   3.359   3.223   8.572 -0.0639  1.3467 -1.1781
16508SOL     OW58491   2.138   9.860  12.140  0.1972  0.2142 -0.0698
16508SOL    HW158492   2.086   9.903  12.208 -1.6996 -1.2207 -0.5417
16508SOL    HW258493   2.223   9.903  12.145 -0.7535  2.0911  1.3060
16509SOL     OW58494   4.750  11.998   0.016  1.0926 -0.5131  0.2242
16509SOL    HW158495   4.692  12.015   0.090  2.2195  1.9273  0.6389
16509SOL    HW258496   4.775  11.906   0.026 -0.4351 -0.8057  1.6505
16510SOL     OW58497   4.357  10.114   3.928 -0.5896  0.0082  0.9563
16510SOL    HW158498   4.275  10.070   3.903 -0.7551  1.1392 -0.5626
16510SOL    HW258499   4.425  10.050   3.908 -0.8293  0.3555 -1.1965
16511SOL     OW58500   7.030   2.163   6.377 -0.3013 -0.5065 -0.1313
16511SOL    HW158501   6.991   2.201   6.456 -0.0457 -1.4600  0.4672
16511SOL    HW258502   6.956   2.120   6.333 -0.3721 -0.2893 -0.2279
16512SOL     OW58503   3.368   4.517   8.795 -1.1386  0.1439 -0.2548
16512SOL    HW158504   3.317   4.530   8.715 -0.5886  1.0050 -0.4817
16512SOL    HW258505   3.355   4.599   8.844 -1.6388 -0.4536  0.6406
16513SOL     OW58506   7.019   2.417   6.043 -0.4839 -0.1316 -0.6862
16513SOL    HW158507   7.104   2.452   6.070 -0.0473 -0.5492 -1.4759
16513SOL    HW258508   6.957   2.455   6.105  0.2176  0.5378 -0.3707
16514SOL     OW58509   3.421   9.550   2.860  0.1380 -0.2185 -0.3634
16514SOL    HW158510   3.391   9.527   2.772 -3.1748 -0.7165  0.7490
16514SOL    HW258511   3.388   9.639   2.875 -0.1882 -0.4970  0.6932
16515SOL     OW58512   4.541   3.612  10.869  0.9226 -0.5698 -0.3188
16515SOL    HW158513   4.515   3.641  10.781 -1.3555 -3.8384 -0.9136
16515SOL    HW258514   4.618   3.557  10.854  2.2774  1.1154  0.1789
16516SOL     OW58515   8.239  10.573   7.830 -0.8297 -0.3367  0.0742
16516SOL    HW158516   8.244  10.621   7.748  1.4480 -0.9656 -0.2227
16516SOL    HW258517   8.274  10.486   7.809 -2.6087 -1.3897  1.1509
16517SOL     OW58518   4.348   1.658   6.391  0.1423 -0.1620  0.0063
16517SOL    HW158519   4.402   1.659   6.470 -1.1566  1.2882  0.9438
16517SOL    HW258520   4.270   1.609   6.416 -0.5665  0.8600 -0.1429
16518SOL     OW58521   1.368   8.010   1.052 -0.5315  0.0570  0.2519
16518SOL    HW158522   1.358   8.077   1.121 -0.8106 -0.6317  0.8964
16518SOL    HW258523   1.281   7.970   1.046 -1.0726  1.4047 -1.8905
16519SOL     OW58524   2.087   5.723   3.062  0.1786  0.1835 -0.3888
16519SOL    HW158525   2.089   5.750   2.970  1.4003  1.1438 -0.1127
16519SOL    HW258526   2.140   5.644   3.065 -0.6647 -0.4057 -0.6539
16520SOL     OW58527   8.032  12.500   9.801  0.1175  0.1938  0.3467
16520SOL    HW158528   8.066  12.587   9.824  2.6115 -0.3973 -0.8268
16520SOL    HW258529   8.020  12.456   9.885  1.8526  0.6357  0.8574
16521SOL     OW58530   9.126   4.479   4.932  0.2579  0.0550  0.3661
16521SOL    HW158531   9.166   4.558   4.894 -1.4936  0.4938 -0.6831
16521SOL    HW258532   9.072   4.443   4.861 -0.4289 -1.0481  1.4101
16522SOL     OW58533   0.482   4.568   8.245  0.7568  0.3898  0.2886
16522SOL    HW158534   0.526   4.553   8.162  2.3797  0.3198  1.1252
16522SOL    HW258535   0.505   4.492   8.299 -0.1909  0.4732  0.8448
16523SOL     OW58536   3.462   7.260   9.527 -0.0337 -0.2391 -0.1542
16523SOL    HW158537   3.448   7.351   9.554 -0.7598  0.6659 -3.1629
16523SOL    HW258538   3.385   7.240   9.474  0.0854 -2.6822  0.5112
16524SOL     OW58539   3.690   2.522  11.587 -0.5078  0.0771 -0.1501
16524SOL    HW158540   3.611   2.499  11.635 -0.2260  0.5478  0.5623
16524SOL    HW258541   3.750   2.556  11.654  1.4211 -2.9189 -0.1358
16525SOL     OW58542   0.648   4.824   1.495  0.0172  0.2426  0.3495
16525SOL    HW158543   0.732   4.866   1.478  0.1287 -0.7664 -2.0413
16525SOL    HW258544   0.583   4.882   1.454 -0.0905 -0.5347 -0.6222
16526SOL     OW58545   2.269  10.790   9.700  0.1648  0.2239 -0.4958
16526SOL    HW158546   2.180  10.759   9.684  1.0617 -0.9441 -4.1500
16526SOL    HW258547   2.320  10.710   9.712  0.7781  0.8826  1.7766
16527SOL     OW58548   2.208   6.262  11.790  0.0896  0.0205  0.6915
16527SOL    HW158549   2.302   6.252  11.774  0.5467  1.7324  1.9520
16527SOL    HW258550   2.202   6.291  11.881 -1.5650  1.0932  0.2929
16528SOL     OW58551   6.835  11.492   0.042  0.2449 -0.1083  0.0924
16528SOL    HW158552   6.785  11.434  -0.015  1.5494 -1.4373  0.2281
16528SOL    HW258553   6.780  11.504   0.119 -1.6999  1.9806 -1.4642
16529SOL     OW58554  10.402   4.800   0.819 -0.0401  0.3512 -0.2957
16529SOL    HW158555  10.448   4.722   0.849  0.5469  0.4291 -0.9755
16529SOL    HW258556  10.425   4.867   0.883  3.2378  1.1861 -2.1320
16530SOL     OW58557   5.858  11.207   0.798  0.8143 -0.3597 -0.3115
16530SOL    HW158558   5.803  11.260   0.740  1.5569  0.1733 -0.5489
16530SOL    HW258559   5.945  11.246   0.790  0.9228 -0.2397  1.2015
16531SOL     OW58560   9.442   6.377   6.829  0.2248  0.1376  0.0053
16531SOL    HW158561   9.503   6.422   6.886  1.2140 -0.0537 -0.8644
16531SOL    HW258562   9.421   6.440   6.760 -3.1304  1.3861  1.9273
16532SOL     OW58563   1.850  12.238   2.829 -0.4503  0.2498 -0.3768
16532SOL    HW158564   1.808  12.214   2.746  0.2164  0.1832 -0.7035
16532SOL    HW258565   1.781  12.278   2.881 -0.8673  0.3178 -0.9827
16533SOL     OW58566   4.702   7.286   3.165  0.2345 -0.3228  1.0550
16533SOL    HW158567   4.719   7.377   3.190  1.3893 -0.5884  1.2971
16533SOL    HW258568   4.727   7.281   3.073 -3.5355  0.5257 -0.1943
16534SOL     OW58569   9.715   3.633   9.390  0.6219 -0.3158 -0.4190
16534SOL    HW158570   9.722   3.711   9.335  0.0696 -1.7062 -2.5986
16534SOL    HW258571   9.650   3.656   9.456  0.4594  1.0746 -1.0257
16535SOL     OW58572   5.785   8.318   9.268 -0.6007  0.0767 -0.3755
16535SOL    HW158573   5.869   8.282   9.295 -1.4252 -1.5163  0.2351
16535SOL    HW258574   5.764   8.384   9.334 -0.1703 -0.0365 -0.1224
16536SOL     OW58575   6.847  10.586   4.592 -0.3613 -0.7148 -0.0207
16536SOL    HW158576   6.795  10.597   4.513 -2.6959  0.3237  1.5695
16536SOL    HW258577   6.919  10.649   4.583 -1.0606 -0.0305 -0.9333
16537SOL     OW58578  10.143   6.517   1.764  0.3722  0.5638  0.0300
16537SOL    HW158579  10.132   6.608   1.790 -1.4077  0.7971 -1.3398
16537SOL    HW258580  10.123   6.466   1.842  0.1766  1.3241  0.4769
16538SOL     OW58581   2.363   5.586   7.172 -0.2845  0.4603  0.0938
16538SOL    HW158582   2.365   5.622   7.084  0.6580  2.1564  0.7485
16538SOL    HW258583   2.296   5.518   7.169  0.4215 -0.2153 -2.1628
16539SOL     OW58584   2.024   7.603   3.220 -0.2550 -0.4185 -0.0356
16539SOL    HW158585   2.012   7.692   3.250 -2.7802 -0.4047 -0.8721
16539SOL    HW258586   2.080   7.562   3.286  1.2171  1.8302  0.1938
16540SOL     OW58587   9.164   7.531  12.336  0.1165 -0.0278 -0.1972
16540SOL    HW158588   9.117   7.590  12.277 -0.7612 -1.1286 -0.6302
16540SOL    HW258589   9.102   7.513  12.407  0.0774 -1.0363 -0.4734
16541SOL     OW58590   0.049   7.910  12.354 -0.2936  0.2524 -0.4857
16541SOL    HW158591  -0.031   7.860  12.337  0.0003 -0.6517  0.6704
16541SOL    HW258592   0.085   7.872  12.434 -0.7246  3.1058  1.2307
16542SOL     OW58593   6.401   5.748   0.473 -0.2828 -0.0712 -0.2367
16542SOL    HW158594   6.468   5.701   0.421 -1.1224 -0.3831 -1.0681
16542SOL    HW258595   6.432   5.741   0.563 -0.4324 -2.3825 -0.2929
16543SOL     OW58596   7.675  11.865   2.388  0.2468  0.5363  0.2421
16543SOL    HW158597   7.742  11.806   2.424 -1.2364 -1.7456 -0.4862
16543SOL    HW258598   7.709  11.953   2.405  1.8825 -0.4605  2.8102
16544SOL     OW58599   5.368   0.023  10.228  0.1382 -0.3168 -0.6220
16544SOL    HW158600   5.300   0.001  10.165 -0.8918  0.5398  0.1597
16544SOL    HW258601   5.389  -0.061  10.270 -0.4068 -0.5969 -0.8989
16545SOL     OW58602   7.785   1.798  12.077 -0.2671 -0.2974 -0.2014
16545SOL    HW158603   7.793   1.774  11.984  2.8449 -1.1369  0.1714
16545SOL    HW258604   7.864   1.850  12.094  1.2979 -3.2521  2.7505
16546SOL     OW58605   4.644   4.938  11.868  0.3728 -0.9314 -0.0232
16546SOL    HW158606   4.686   5.010  11.821 -0.2243  0.9306  2.1536
16546SOL    HW258607   4.558   4.931  11.827  0.5743 -0.6669 -0.5047
16547SOL     OW58608   2.300   3.546   1.477 -0.1635 -0.5207  0.2997
16547SOL    HW158609   2.353   3.508   1.547 -2.3383 -2.2156  1.1495
16547SOL    HW258610   2.353   3.537   1.399  1.2457 -1.0990  1.2895
16548SOL     OW58611   6.550   6.593   8.151 -0.6042 -0.8007  0.0749
16548SOL    HW158612   6.495   6.543   8.212  0.2956 -2.5354 -0.4810
16548SOL    HW258613   6.628   6.614   8.201 -1.3943  1.0284  0.6322
16549SOL     OW58614   6.800   7.904   8.897  0.1413 -0.0090 -0.1266
16549SOL    HW158615   6.707   7.891   8.916  0.1443 -1.3154 -0.8509
16549SOL    HW258616   6.803   7.984   8.845 -0.7189 -0.5097 -0.9818
16550SOL     OW58617  11.693   9.704   3.222  0.1026  0.4986 -0.5018
16550SOL    HW158618  11.682   9.639   3.290  1.8787 -1.0002 -1.5475
16550SOL    HW258619  11.605   9.724   3.193 -0.5256 -0.9189  0.3256
16551SOL     OW58620   2.316   7.338   4.940  0.2049 -1.0334 -0.0111
16551SOL    HW158621   2.356   7.302   4.861  0.2078  0.7449 -0.8691
16551SOL    HW258622   2.384   7.396   4.977  0.0355 -1.4936  1.0393
16552SOL     OW58623   3.266   1.282   2.954  0.2946  0.1394 -0.1927
16552SOL    HW158624   3.184   1.234   2.945  1.2217 -1.2321 -1.8664
16552SOL    HW258625   3.249   1.367   2.914 -0.3307 -0.1055 -0.4601
16553SOL     OW58626   2.859   7.782   2.531  0.0794 -0.1413  0.4119
16553SOL    HW158627   2.933   7.764   2.590  0.9073  0.3867 -0.4398
16553SOL    HW258628   2.874   7.727   2.455 -0.6966 -0.4130  0.4434
16554SOL     OW58629   4.281   9.925   7.990 -0.0066  0.0455  0.0738
16554SOL    HW158630   4.264   9.940   8.083  0.0369  0.0127  0.0866
16554SOL    HW258631   4.376   9.930   7.982 -0.0867  3.4743 -0.5067
16555SOL     OW58632   1.683   0.183   3.468 -0.8518  0.0198  0.1471
16555SOL    HW158633   1.650   0.103   3.509  0.1048 -0.4480  0.0477
16555SOL    HW258634   1.662   0.252   3.531 -0.4825 -0.5144  0.8814
16556SOL     OW58635   1.945   3.870   5.821 -0.1184 -0.5288 -0.4533
16556SOL    HW158636   1.926   3.837   5.909  0.3154 -3.3832 -1.3128
16556SOL    HW258637   1.877   3.832   5.766  1.0624 -0.9355 -1.6989
16557SOL     OW58638   4.987   7.663   9.816  0.2287 -0.5380 -0.1475
16557SOL    HW158639   5.071   7.680   9.772  0.1592 -1.3894 -0.6240
16557SOL    HW258640   4.936   7.613   9.752  0.3412 -2.3436  1.1057
16558SOL     OW58641   1.445   8.512   3.492  0.0398 -0.0403  0.7015
16558SOL    HW158642   1.360   8.530   3.531  0.2573  2.1537  0.2749
16558SOL    HW258643   1.427   8.503   3.398  0.1860 -0.1750  0.6868
16559SOL     OW58644  10.394   3.870   6.533  0.5745  0.1038  0.4972
16559SOL    HW158645  10.331   3.939   6.553  0.2717 -0.2404  0.7481
16559SOL    HW258646  10.340   3.794   6.510  0.9030 -0.0521  0.2326
16560SOL     OW58647  12.021   1.146  11.738 -0.1619  0.0492  0.0097
16560SOL    HW158648  12.047   1.236  11.717 -0.3341 -0.2367 -1.5069
16560SOL    HW258649  11.991   1.110  11.655  2.2643 -2.2368  0.0143
16561SOL     OW58650   0.969   5.286   3.436  0.3633 -0.5542  0.2637
16561SOL    HW158651   1.062   5.267   3.428  0.7033  1.4084 -1.3690
16561SOL    HW258652   0.956   5.364   3.381 -1.6366  1.0928  2.8219
16562SOL     OW58653   0.936   0.783   3.089 -0.3861 -0.9502  0.2582
16562SOL    HW158654   0.882   0.761   3.013 -0.7505 -1.2636  0.6084
16562SOL    HW258655   1.002   0.844   3.054 -2.3511  1.3278  0.2522
16563SOL     OW58656   9.662   3.723   1.112  0.4269  0.0252 -0.3020
16563SOL    HW158657   9.573   3.694   1.128  0.9004 -0.3985  1.8034
16563SOL    HW258658   9.657   3.771   1.029 -2.1108  1.6663  0.6967
16564SOL     OW58659   1.289   6.418   0.405  0.4428  0.5071 -0.1887
16564SOL    HW158660   1.247   6.413   0.319 -0.7176  1.4813  0.2893
16564SOL    HW258661   1.377   6.384   0.390  0.4105  1.0264 -1.8600
16565SOL     OW58662   1.337  12.254   1.352  0.2005 -0.4921 -0.4253
16565SOL    HW158663   1.298  12.327   1.304  1.6941  0.2590 -0.5577
16565SOL    HW258664   1.272  12.183   1.346 -0.2609  0.0443 -2.3093
16566SOL     OW58665   8.668   5.777   0.784 -0.2212  0.2886  0.0463
16566SOL    HW158666   8.642   5.816   0.868 -0.7407 -1.2354  0.6299
16566SOL    HW258667   8.666   5.850   0.722  1.7634  1.8311  1.6431
16567SOL     OW58668   5.608  11.129   6.705  0.2328  0.0894  0.7125
16567SOL    HW158669   5.621  11.052   6.760  1.0303 -0.2587  0.0630
16567SOL    HW258670   5.680  11.188   6.729  1.5968 -0.7448 -1.0647
16568SOL     OW58671   9.066   3.988   4.877  0.1834  0.6335  0.0744
16568SOL    HW158672   9.052   4.054   4.945  0.4513  1.4911 -0.6738
16568SOL    HW258673   8.998   4.006   4.812 -0.2865 -0.3950  0.2595
16569SOL     OW58674  10.214  11.818  12.147 -0.2365  0.7587 -0.3483
16569SOL    HW158675  10.219  11.816  12.242 -1.8895  2.0731 -0.1933
16569SOL    HW258676  10.195  11.909  12.125 -2.6981 -0.0095 -1.7320
16570SOL     OW58677   0.996   0.279   5.339 -0.2794 -0.0130 -0.2804
16570SOL    HW158678   1.042   0.316   5.263 -1.7768  1.7824 -0.3671
16570SOL    HW258679   0.904   0.282   5.315 -0.6202 -2.0531  0.5327
16571SOL     OW58680   7.463   6.031   5.732 -0.1835  0.3083 -0.4938
16571SOL    HW158681   7.508   5.953   5.699  0.7976  0.3514  0.6524
16571SOL    HW258682   7.523   6.103   5.712  0.2851  0.3726  1.0282
16572SOL     OW58683  12.420   9.075   9.255 -0.2986  0.7993  0.2545
16572SOL    HW158684  12.513   9.075   9.275 -0.4071 -2.2256  1.2767
16572SOL    HW258685  12.377   9.058   9.339 -1.4895 -1.0694 -0.6538
16573SOL     OW58686   7.931   2.262   1.237 -0.0022  0.4546 -0.2937
16573SOL    HW158687   8.014   2.255   1.190  0.8634 -0.5466  1.2948
16573SOL    HW258688   7.953   2.306   1.319 -0.7990 -0.7582  0.6189
16574SOL     OW58689  12.197   9.075   0.092 -0.0079  0.5386  0.2357
16574SOL    HW158690  12.235   8.988   0.081  0.5566  0.5875  1.5342
16574SOL    HW258691  12.225   9.123   0.014 -1.2552 -0.7317 -1.0364
16575SOL     OW58692   7.409   8.474   6.210 -0.3629  0.2860  0.0624
16575SOL    HW158693   7.370   8.524   6.139 -0.2943 -0.4681 -0.5096
16575SOL    HW258694   7.335   8.434   6.256 -0.4474  1.2002  0.7596
16576SOL     OW58695  11.616   8.514  10.811  0.0139  0.0913 -0.5085
16576SOL    HW158696  11.598   8.425  10.782  0.4763 -0.3946  0.6117
16576SOL    HW258697  11.711   8.516  10.823  0.3205  1.4390 -2.6942
16577SOL     OW58698   4.909  11.182   6.877 -0.1992  0.5110  0.4789
16577SOL    HW158699   4.965  11.180   6.955  0.2367 -1.5774  0.1809
16577SOL    HW258700   4.960  11.135   6.811 -1.5412  0.1874 -0.3458
16578SOL     OW58701   8.669   5.000   4.386 -0.2355  0.5817  0.1271
16578SOL    HW158702   8.627   4.942   4.322 -0.6210  0.4126  0.5249
16578SOL    HW258703   8.754   4.960   4.403 -1.4735 -1.3831  2.3431
16579SOL     OW58704   1.804   9.103   9.811 -0.0395 -0.4142  0.4294
16579SOL    HW158705   1.751   9.041   9.761 -0.4691  0.1713  0.1380
16579SOL    HW258706   1.892   9.067   9.808 -0.3603 -1.2349  0.6420
16580SOL     OW58707   0.806  11.719   2.631 -0.3389  0.0961 -0.5559
16580SOL    HW158708   0.855  11.754   2.706 -0.3285  1.5229 -1.2021
16580SOL    HW258709   0.716  11.714   2.663 -0.2088 -0.0361 -0.2006
16581SOL     OW58710   2.267   2.300   7.066 -0.8200 -0.1147  0.2747
16581SOL    HW158711   2.196   2.340   7.015  0.4928  0.5053 -1.1284
16581SOL    HW258712   2.281   2.362   7.138 -1.2256  0.1150  0.1629
16582SOL     OW58713  11.609   3.950   1.908 -0.5843 -0.1371  0.0234
16582SOL    HW158714  11.571   4.004   1.977  0.6189  1.5111 -0.5670
16582SOL    HW258715  11.533   3.920   1.857 -1.2521  1.2800  0.1485
16583SOL     OW58716   1.098   8.808   7.833 -0.4789  0.4537  0.6198
16583SOL    HW158717   1.096   8.902   7.816 -1.0087  0.3002 -0.2241
16583SOL    HW258718   1.073   8.768   7.750 -0.4371 -0.4301  1.0209
16584SOL     OW58719   3.263   0.682   2.686 -0.6752 -0.3082  0.6720
16584SOL    HW158720   3.190   0.743   2.696 -2.2529 -2.0312  0.0928
16584SOL    HW258721   3.335   0.736   2.654 -2.8159  0.8581 -2.7322
16585SOL     OW58722   5.987   5.172   3.894  0.1714 -0.5830  0.2864
16585SOL    HW158723   5.950   5.250   3.935  0.5733  0.0323 -0.5006
16585SOL    HW258724   6.004   5.198   3.804 -0.3787 -1.8048 -0.1945
16586SOL     OW58725  10.518   6.302  11.774 -0.2622  0.0078  0.0697
16586SOL    HW158726  10.575   6.262  11.839 -0.0272  1.0383  0.5189
16586SOL    HW258727  10.463   6.363  11.823 -0.7171  0.1262 -0.5679
16587SOL     OW58728   9.315   2.107   4.779 -0.5547  0.0990  0.3188
16587SOL    HW158729   9.310   2.154   4.696 -1.7156 -0.1565  0.2201
16587SOL    HW258730   9.228   2.068   4.789 -0.4032  0.0507  1.6093
16588SOL     OW58731   0.383   1.412  10.050  0.0303 -0.3257  0.3878
16588SOL    HW158732   0.311   1.431  10.109  0.8932  1.5065  0.9152
16588SOL    HW258733   0.374   1.476   9.979  0.0300 -1.3527 -0.5755
16589SOL     OW58734  12.105   4.124   3.195 -0.0024  0.2185 -0.6704
16589SOL    HW158735  12.045   4.190   3.230 -0.9761 -1.3178  0.7297
16589SOL    HW258736  12.099   4.134   3.100 -2.7615 -0.0420 -0.6141
16590SOL     OW58737   0.441   1.674   1.836  0.0456  1.1094  0.0452
16590SOL    HW158738   0.375   1.718   1.890  1.5636  2.5222  0.8113
16590SOL    HW258739   0.523   1.684   1.884  1.1525  0.9502 -1.7090
16591SOL     OW58740   1.712   8.028  10.368  0.1364  0.1673  0.2674
16591SOL    HW158741   1.697   8.077  10.287  1.4819  0.1219 -0.0332
16591SOL    HW258742   1.722   7.937  10.339  0.9674  0.1973  0.4167
16592SOL     OW58743   1.854  12.343   1.539  0.2571  0.7546  0.1866
16592SOL    HW158744   1.911  12.272   1.510  0.1074  1.3959 -1.8075
16592SOL    HW258745   1.844  12.328   1.633  0.9764 -1.3086 -0.0029
16593SOL     OW58746   9.288   5.405   7.788 -0.3790  0.1769  0.0815
16593SOL    HW158747   9.379   5.378   7.801  0.1760  1.6953 -0.4012
16593SOL    HW258748   9.246   5.330   7.746  1.1406  0.1218 -1.4355
16594SOL     OW58749   0.010   2.224  11.731 -0.0097 -0.3869 -0.3645
16594SOL    HW158750   0.024   2.287  11.802 -0.1293 -0.7518 -0.0128
16594SOL    HW258751   0.066   2.256  11.660  1.1355 -0.7461  0.3467
16595SOL     OW58752  10.690   1.596   9.865  0.5253  0.0685  0.3105
16595SOL    HW158753  10.759   1.595   9.932 -0.4860  0.7672  1.4017
16595SOL    HW258754  10.729   1.550   9.790  2.7633  1.8333  0.2826
16596SOL     OW58755   1.346   9.288   5.758 -0.1087 -0.0354 -0.5763
16596SOL    HW158756   1.377   9.360   5.812 -1.4347  0.9190 -1.0358
16596SOL    HW258757   1.403   9.290   5.681  0.2496  0.1271 -0.3080
16597SOL     OW58758  10.324  12.415   5.579 -0.2423  0.0701 -0.5637
16597SOL    HW158759  10.337  12.357   5.504 -0.0740 -2.6203  1.3982
16597SOL    HW258760  10.231  12.411   5.597 -0.1379 -0.0730 -0.0471
16598SOL     OW58761   6.263   1.444   6.871  0.4517  0.2434 -0.4310
16598SOL    HW158762   6.217   1.527   6.875 -1.7524 -0.9389  0.3509
16598SOL    HW258763   6.324   1.446   6.945 -0.2658  0.7831  0.1548
16599SOL     OW58764  12.307   6.995  10.323  0.2025 -0.5993  0.2478
16599SOL    HW158765  12.266   7.024  10.241  0.0950 -0.8489  0.2118
16599SOL    HW258766  12.304   6.900  10.319  0.9315 -0.6239  0.1760
16600SOL     OW58767   9.612   8.361  10.666  0.3115 -0.3768 -0.0437
16600SOL    HW158768   9.658   8.328  10.588  0.5281  0.1235 -0.1269
16600SOL    HW258769   9.676   8.417  10.710 -0.7415  1.6968 -1.0626
16601SOL     OW58770   0.138   2.844   2.954  0.0900 -0.1513 -0.0080
16601SOL    HW158771   0.177   2.864   3.039  0.9821  1.6617 -0.8003
16601SOL    HW258772   0.212   2.838   2.894 -0.4515 -2.2111 -0.5772
16602SOL     OW58773  11.338  10.549   5.825  0.1480 -0.0295  0.3473
16602SOL    HW158774  11.407  10.569   5.762 -0.2585 -0.9730 -0.4340
16602SOL    HW258775  11.259  10.539   5.772 -0.3317 -0.2101  1.0762
16603SOL     OW58776  12.019   9.773   3.129  0.1510  0.1495  0.0081
16603SOL    HW158777  12.105   9.800   3.096 -1.7311  1.7267 -4.2858
16603SOL    HW258778  11.973   9.854   3.146 -0.5678 -0.6746  2.3898
16604SOL     OW58779  10.112  10.087   3.012 -0.1148 -0.2353  0.1502
16604SOL    HW158780  10.032  10.048   2.977 -0.0291  0.8056 -1.3292
16604SOL    HW258781  10.091  10.180   3.021  0.4899 -0.1801  1.1090
16605SOL     OW58782  12.368   5.814  11.348  0.2451 -0.5304 -0.0652
16605SOL    HW158783  12.392   5.728  11.384 -0.6458 -0.5731  0.4657
16605SOL    HW258784  12.272   5.815  11.351  0.2498  0.6611  0.3887
16606SOL     OW58785   1.264   8.015   4.792  0.4556  0.0855 -0.5487
16606SOL    HW158786   1.231   8.105   4.793 -0.7109 -0.3276 -0.3107
16606SOL    HW258787   1.241   7.982   4.705  1.0361  0.0616 -0.6980
16607SOL     OW58788   6.571  12.167   9.772 -0.0683  0.1784 -0.5492
16607SOL    HW158789   6.610  12.247   9.739 -0.4368  0.3788 -0.5093
16607SOL    HW258790   6.489  12.195   9.813  0.4781 -0.0334  0.7283
16608SOL     OW58791   4.615   3.725   4.243 -0.6439 -0.0025  0.4853
16608SOL    HW158792   4.702   3.756   4.267 -1.1294  1.3731  0.5407
16608SOL    HW258793   4.559   3.755   4.314 -1.1777 -0.8758  0.4467
16609SOL     OW58794   8.084   6.026  11.955  0.2949  0.6811  0.1563
16609SOL    HW158795   8.087   6.121  11.967  0.7884  0.6035  0.7051
16609SOL    HW258796   8.145   5.992  12.021 -0.8473 -0.0999  0.8491
16610SOL     OW58797   5.756  11.947   9.863  0.2003  0.1947 -0.3129
16610SOL    HW158798   5.770  11.974   9.772  0.0785 -1.7553 -0.9481
16610SOL    HW258799   5.816  11.874   9.876  0.5003  0.6837  1.3283
16611SOL     OW58800   6.328   9.069   6.269 -0.2393  0.5091  0.8210
16611SOL    HW158801   6.279   9.106   6.343 -2.2269  1.0906 -0.6937
16611SOL    HW258802   6.326   9.138   6.202  0.7136 -0.3371 -0.1024
16612SOL     OW58803   5.195  12.013   4.941  0.0490  0.0575 -0.1113
16612SOL    HW158804   5.209  11.994   5.034 -0.7311 -0.6813 -0.1259
16612SOL    HW258805   5.232  12.100   4.928  2.6541 -0.9042  0.2690
16613SOL     OW58806   7.643   6.011   3.103 -0.5199  0.2351 -0.1891
16613SOL    HW158807   7.582   5.990   3.033  0.4832  0.8643 -1.2902
16613SOL    HW258808   7.608   5.966   3.180 -3.5884  2.3229 -0.1792
16614SOL     OW58809   9.079   6.004  10.096  0.3165 -0.8320  0.4215
16614SOL    HW158810   9.157   5.952  10.078 -1.6018 -3.5435 -0.7352
16614SOL    HW258811   9.062   5.992  10.189  1.1739 -0.3159  0.6551
16615SOL     OW58812   2.972   5.526   5.270 -0.2460 -0.2322  0.0223
16615SOL    HW158813   3.012   5.501   5.186  2.6063  3.5038 -0.0393
16615SOL    HW258814   2.938   5.615   5.254 -1.0662 -0.0514  2.4236
16616SOL     OW58815   3.136   1.795   4.339  0.5559  0.1545 -0.1652
16616SOL    HW158816   3.128   1.766   4.430  2.4142  0.7864  0.2352
16616SOL    HW258817   3.214   1.849   4.338  1.2854 -0.8406 -2.4065
16617SOL     OW58818   8.292   2.306   8.050  0.3623 -0.1280 -0.4283
16617SOL    HW158819   8.276   2.401   8.044 -0.0030 -0.0785  0.9997
16617SOL    HW258820   8.231   2.268   7.987 -1.0981  0.4719  0.5574
16618SOL     OW58821  11.395   1.433   5.843  0.4293  0.1666  0.3208
16618SOL    HW158822  11.489   1.450   5.840  0.9237 -1.1133  3.5996
16618SOL    HW258823  11.389   1.338   5.854 -1.2442  0.2592  0.4143
16619SOL     OW58824   6.305  11.879  10.810 -0.1310  0.8512  0.4309
16619SOL    HW158825   6.395  11.907  10.827  0.1972 -0.7638  1.6364
16619SOL    HW258826   6.312  11.785  10.790 -1.6187  0.4099  1.6879
16620SOL     OW58827   7.813   6.064  11.941  0.0260  0.0557  0.6811
16620SOL    HW158828   7.800   6.125  11.869 -2.4083  0.3484  1.3117
16620SOL    HW258829   7.904   6.034  11.930  1.0565  3.1126 -0.1115
16621SOL     OW58830   4.162   4.853   3.228  0.7428 -0.6336 -0.2457
16621SOL    HW158831   4.255   4.854   3.247  1.0673 -1.8581 -1.6076
16621SOL    HW258832   4.150   4.779   3.168 -1.0662 -0.3689 -0.2831
16622SOL     OW58833   5.804   3.406   2.834 -0.8369 -0.5667 -0.1203
16622SOL    HW158834   5.838   3.492   2.810 -0.9501 -0.6552 -0.5981
16622SOL    HW258835   5.881   3.355   2.859 -0.8733  0.0393  1.3688
16623SOL     OW58836   9.078   0.200  12.091  0.2798  0.6963  0.2097
16623SOL    HW158837   9.028   0.144  12.151 -0.1374  1.0831  0.2228
16623SOL    HW258838   9.169   0.178  12.109  0.1751  1.0462  1.2236
16624SOL     OW58839   0.540   9.355   7.118  0.1328 -0.3798 -0.2615
16624SOL    HW158840   0.557   9.449   7.115  3.2741 -0.8546 -2.9935
16624SOL    HW258841   0.612   9.319   7.169 -0.3225 -1.4625 -0.3590
16625SOL     OW58842   5.702  11.208   1.182  0.0371 -0.0095  0.7738
16625SOL    HW158843   5.687  11.192   1.275 -0.7136  2.2016  1.1000
16625SOL    HW258844   5.756  11.287   1.179  4.0833 -2.5344 -0.6513
16626SOL     OW58845   1.388   1.158  11.563 -0.3019  0.2004  0.0912
16626SOL    HW158846   1.460   1.162  11.626  1.1945 -0.1598 -1.5173
16626SOL    HW258847   1.394   1.240  11.514 -0.5709 -0.1056 -0.4678
16627SOL     OW58848   3.344  10.000   9.425  0.1419 -0.2736  0.3965
16627SOL    HW158849   3.301  10.081   9.451 -0.8250 -0.5302 -0.3662
16627SOL    HW258850   3.422   9.996   9.480  0.2282  1.1847  0.4138
16628SOL     OW58851   1.824  12.443   2.469  0.4473 -0.2057 -0.5291
16628SOL    HW158852   1.898  12.495   2.438 -0.8836  1.0717 -1.6545
16628SOL    HW258853   1.801  12.482   2.554  0.0245  0.4642 -0.9496
16629SOL     OW58854   7.711   8.833   9.518  0.1362 -0.3876  0.0927
16629SOL    HW158855   7.705   8.750   9.567 -0.5574  0.2397  1.1144
16629SOL    HW258856   7.628   8.838   9.470 -0.3528  0.2595  0.9692
16630SOL     OW58857  12.047  11.692  11.606  0.4350 -0.2181 -0.0102
16630SOL    HW158858  11.983  11.759  11.632  0.5140 -0.6209  1.2904
16630SOL    HW258859  11.995  11.625  11.562  0.0806 -0.1259  0.2581
16631SOL     OW58860  11.038  10.370   2.950 -0.0958  0.3196  0.1230
16631SOL    HW158861  11.090  10.289   2.948 -1.2068 -0.4014 -1.0606
16631SOL    HW258862  11.061  10.415   2.868  1.0288  1.5826  1.0802
16632SOL     OW58863   9.254   3.479   4.536 -0.3260  0.1812 -0.4569
16632SOL    HW158864   9.271   3.513   4.448  0.8675 -1.1696 -0.7796
16632SOL    HW258865   9.177   3.423   4.525 -0.8392  0.8600 -0.4016
16633SOL     OW58866  11.183   9.724   9.674 -0.6987  0.5039  0.0356
16633SOL    HW158867  11.128   9.658   9.716  0.8080  1.0846  3.2310
16633SOL    HW258868  11.123   9.772   9.617 -2.8571 -0.6364  1.2021
16634SOL     OW58869  10.181   3.505   2.656  0.0913  0.1425 -0.1336
16634SOL    HW158870  10.137   3.555   2.724  0.8655  0.0916  0.4135
16634SOL    HW258871  10.259   3.469   2.699  1.0514  0.8155 -1.2718
16635SOL     OW58872   8.787  10.096   3.702  0.3391 -0.2062 -0.1150
16635SOL    HW158873   8.739  10.124   3.779  0.2278 -2.4482  0.6849
16635SOL    HW258874   8.804  10.177   3.654 -0.3447  1.1385  1.7996
16636SOL     OW58875   0.964   7.625   4.843 -0.1178  0.1814  0.5186
16636SOL    HW158876   1.057   7.606   4.836  0.0580  1.4417 -1.3675
16636SOL    HW258877   0.960   7.719   4.859 -1.0648  0.0232  1.2951
16637SOL     OW58878   8.810   8.683   6.719  0.0370 -0.5085  0.0267
16637SOL    HW158879   8.867   8.631   6.662  0.5419 -0.3382  0.3683
16637SOL    HW258880   8.835   8.773   6.701  0.2071 -0.4532  0.5180
16638SOL     OW58881   0.669   7.548   1.487 -0.5335  0.1251  0.5957
16638SOL    HW158882   0.581   7.581   1.508 -1.1796 -1.8437  1.2521
16638SOL    HW258883   0.690   7.489   1.560  1.4753  0.7550  0.5921
16639SOL     OW58884  11.753  12.579   2.733 -0.0713  0.4902  0.1010
16639SOL    HW158885  11.669  12.552   2.771 -0.5114 -0.0403 -1.1667
16639SOL    HW258886  11.760  12.527   2.653  0.1940  2.3949 -1.1996
16640SOL     OW58887   3.634   1.063   4.951 -0.5364 -0.0085  0.1499
16640SOL    HW158888   3.540   1.042   4.951 -0.4604 -0.4530 -1.6591
16640SOL    HW258889   3.651   1.097   4.864  1.8756 -4.3430 -1.3893
16641SOL     OW58890   4.051   5.811   3.882 -0.1555 -0.0498 -0.1611
16641SOL    HW158891   4.133   5.857   3.900 -0.0884 -1.4635  4.3080
16641SOL    HW258892   4.073   5.718   3.889 -1.4737 -0.7059 -3.0146
16642SOL     OW58893   6.646   1.207   0.677 -0.7286  0.4370  0.4264
16642SOL    HW158894   6.565   1.206   0.728 -0.2606 -0.9347  1.1903
16642SOL    HW258895   6.716   1.217   0.742 -0.1879 -0.1646 -0.0453
16643SOL     OW58896   0.725  12.175   0.289 -0.2748 -0.0588 -0.1316
16643SOL    HW158897   0.786  12.220   0.231 -0.2296 -0.3219 -0.2898
16643SOL    HW258898   0.717  12.232   0.365 -1.0717  0.7584 -0.8082
16644SOL     OW58899   8.776   0.174   7.336  0.1420 -0.3701 -0.2122
16644SOL    HW158900   8.715   0.131   7.277 -1.5895  1.4211  0.1784
16644SOL    HW258901   8.820   0.240   7.282  0.1091 -0.1598  0.0132
16645SOL     OW58902  12.025   0.792   8.150  0.1978 -0.0917 -0.2460
16645SOL    HW158903  12.113   0.755   8.142  1.2495  2.2150 -0.2630
16645SOL    HW258904  11.995   0.802   8.059  1.0498  1.5181 -0.3853
16646SOL     OW58905   8.789   9.334   9.448 -0.2362  0.2314 -0.3000
16646SOL    HW158906   8.883   9.348   9.442 -0.4010  2.3113  0.9929
16646SOL    HW258907   8.752   9.421   9.465 -2.6518 -0.0748 -3.0748
16647SOL     OW58908   0.578   6.605   2.335  0.1851 -0.2959 -0.2241
16647SOL    HW158909   0.634   6.598   2.257 -0.9704 -1.3208 -0.9927
16647SOL    HW258910   0.571   6.699   2.351 -1.2163  0.1063 -2.6597
16648SOL     OW58911   1.214   2.652   9.894 -0.0473  0.0137 -0.3200
16648SOL    HW158912   1.159   2.692   9.827 -0.4227  0.7668  0.4191
16648SOL    HW258913   1.156   2.592   9.940  0.6042 -1.7246 -1.6595
16649SOL     OW58914   0.088   8.098   7.847 -0.5097  0.1752 -0.4153
16649SOL    HW158915   0.031   8.026   7.819 -1.1009 -0.1724  1.5448
16649SOL    HW258916   0.176   8.070   7.823 -0.6563 -1.5332  0.8509
16650SOL     OW58917  11.773   4.049   3.330  1.1215 -0.0555 -0.3374
16650SOL    HW158918  11.736   3.966   3.300 -0.3667  0.8445 -1.1052
16650SOL    HW258919  11.697   4.106   3.343  1.7949  0.2561  3.3413
16651SOL     OW58920   0.835   8.645   6.686 -0.2283 -0.2283  0.5743
16651SOL    HW158921   0.771   8.690   6.631 -0.1233 -0.2857  0.4041
16651SOL    HW258922   0.899   8.713   6.709  2.4125 -1.1186 -3.2775
16652SOL     OW58923  10.212  12.169  11.633 -0.1206  0.0486 -0.3159
16652SOL    HW158924  10.244  12.102  11.693 -0.1174  1.1912  1.0189
16652SOL    HW258925  10.244  12.251  11.670 -2.6793  1.0682 -0.1333
16653SOL     OW58926   3.402   1.156   2.771  0.1920 -0.4640 -0.3724
16653SOL    HW158927   3.351   1.190   2.845 -0.5218 -2.4016  0.0829
16653SOL    HW258928   3.493   1.179   2.793 -0.0039 -0.9895  1.1301
16654SOL     OW58929   3.254  12.177   9.922 -0.4621  0.0474  0.9086
16654SOL    HW158930   3.248  12.099   9.977  0.7091  0.3471  1.4844
16654SOL    HW258931   3.259  12.250   9.983 -0.9120  0.5304  0.3818
16655SOL     OW58932   8.198   4.288   3.829 -0.6580  0.1141  0.2113
16655SOL    HW158933   8.292   4.270   3.826 -0.7950 -0.5274 -0.2781
16655SOL    HW258934   8.180   4.335   3.748 -1.1373 -1.6648 -0.7636
16656SOL     OW58935   6.874  10.019   4.350  0.3443  0.1578  0.8082
16656SOL    HW158936   6.780  10.016   4.332  0.5021 -2.3828  0.0818
16656SOL    HW258937   6.880  10.061   4.436 -1.6857 -1.7536  1.9885
16657SOL     OW58938   2.536   3.655  12.442  0.0238 -0.0964 -0.3210
16657SOL    HW158939   2.580   3.572  12.463 -0.5590  0.5762  5.1971
16657SOL    HW258940   2.445   3.631  12.429  0.0098 -0.4821  0.4029
16658SOL     OW58941   2.314   3.054   8.584 -0.4298 -0.1399 -0.0625
16658SOL    HW158942   2.356   3.027   8.666  1.1599  0.2861 -0.6922
16658SOL    HW258943   2.245   2.989   8.570  2.3013 -3.1673 -0.7774
16659SOL     OW58944   9.531   0.758   9.643 -0.4423  0.2603  0.2476
16659SOL    HW158945   9.610   0.781   9.691 -0.3244  2.6299 -0.9357
16659SOL    HW258946   9.559   0.695   9.577  0.2689  0.3532  0.4608
16660SOL     OW58947   5.859   4.917   2.481 -0.2969 -0.1412  0.4279
16660SOL    HW158948   5.950   4.945   2.493  0.7779 -2.9920 -0.2722
16660SOL    HW258949   5.844   4.922   2.387 -1.0977  0.8275  0.5885
16661SOL     OW58950   0.796   2.332  11.293  0.3121  0.0196  0.3029
16661SOL    HW158951   0.838   2.392  11.231 -1.5062  1.7222  0.6218
16661SOL    HW258952   0.857   2.327  11.366  0.7502  1.0544  0.0268
16662SOL     OW58953   6.721   9.156  11.631 -0.0341 -0.2903 -0.2575
16662SOL    HW158954   6.629   9.162  11.603 -0.3810 -0.0994  0.8586
16662SOL    HW258955   6.748   9.247  11.642  0.6352 -0.3039 -1.5868
16663SOL     OW58956   9.205   4.393   5.793  0.0923  0.5874 -0.5734
16663SOL    HW158957   9.174   4.468   5.742 -1.9725 -0.4172 -0.9064
16663SOL    HW258958   9.150   4.393   5.872 -1.4707 -1.7049 -1.5379
16664SOL     OW58959  10.363   1.067   2.452 -0.4368 -0.3413 -0.3759
16664SOL    HW158960  10.295   1.128   2.482 -1.2983 -2.0013  1.2645
16664SOL    HW258961  10.329   1.032   2.369 -1.0870 -0.3758 -0.0975
16665SOL     OW58962   8.911   7.168   2.212 -0.0663 -0.0348  0.1012
16665SOL    HW158963   8.946   7.139   2.127 -1.9091 -0.6056 -0.5089
16665SOL    HW258964   8.987   7.201   2.259  1.0624 -0.0096 -1.6540
16666SOL     OW58965   4.079   7.743   1.656 -0.2284  0.1127 -0.4510
16666SOL    HW158966   4.087   7.822   1.708 -2.0836 -1.0198  1.7160
16666SOL    HW258967   3.986   7.722   1.656  0.0425 -1.4406 -1.9938
16667SOL     OW58968   1.599   4.097   3.220  0.0069  0.1832  0.4966
16667SOL    HW158969   1.687   4.099   3.257 -0.2804  1.7852  1.1875
16667SOL    HW258970   1.613   4.086   3.126  0.9590  0.7222  0.5621
16668SOL     OW58971   6.242   5.970   8.022 -0.0392 -0.1999  0.6287
16668SOL    HW158972   6.189   5.936   8.094  0.3535 -2.3567 -0.0377
16668SOL    HW258973   6.199   5.939   7.943  1.3133 -0.6947  0.0448
16669SOL     OW58974   7.627  10.608  10.410 -0.0045  0.1592  0.0405
16669SOL    HW158975   7.551  10.597  10.467  2.2444  1.7544  3.6534
16669SOL    HW258976   7.670  10.522  10.412  0.1126  0.2316  0.8565
16670SOL     OW58977   7.173   6.664   3.700  0.3735  0.0854  1.0090
16670SOL    HW158978   7.179   6.607   3.624 -0.8586  0.0051  0.9473
16670SOL    HW258979   7.254   6.650   3.748  0.4677 -1.0580  0.5353
16671SOL     OW58980   9.055   9.373   2.122  0.4225 -0.2893 -0.0075
16671SOL    HW158981   8.959   9.375   2.130  0.5342 -0.6619  2.0092
16671SOL    HW258982   9.073   9.410   2.035 -1.5404 -0.2331 -0.4343
16672SOL     OW58983   4.974   7.913   1.675 -0.0863  0.0389  0.5802
16672SOL    HW158984   4.947   7.837   1.624 -2.2946  1.0564  0.0840
16672SOL    HW258985   5.041   7.956   1.622 -2.5449  1.2607 -1.8043
16673SOL     OW58986  12.217   1.689   9.185  0.4241 -0.2287  0.4935
16673SOL    HW158987  12.290   1.749   9.200 -0.2097  0.6590  0.0961
16673SOL    HW258988  12.254   1.602   9.203  1.2491  0.2932  1.4491
16674SOL     OW58989   0.238  11.835  11.173  0.4979  0.4780 -0.3167
16674SOL    HW158990   0.325  11.811  11.206  1.4574  0.7512 -2.4959
16674SOL    HW258991   0.178  11.804  11.241  2.1806 -1.1037  0.5403
16675SOL     OW58992   8.861   7.930   4.768  0.6092 -0.0987  0.6180
16675SOL    HW158993   8.781   7.979   4.748 -0.8524 -3.4449 -2.7077
16675SOL    HW258994   8.932   7.994   4.755 -1.2783  2.4969  1.9677
16676SOL     OW58995  12.523   6.137   4.831 -0.3787  0.4929  0.4489
16676SOL    HW158996  12.473   6.171   4.906  0.6307  2.7026  0.1851
16676SOL    HW258997  12.490   6.186   4.756  1.2570  1.0926  0.0757
16677SOL     OW58998  12.489   0.883   7.424 -0.0955 -0.0900 -0.1854
16677SOL    HW158999  12.569   0.892   7.372 -0.0860  0.5273 -0.0703
16677SOL    HW259000  12.418   0.894   7.362 -0.0844  0.3681 -0.1211
16678SOL     OW59001  11.422   9.547   7.989  0.3051  0.4774 -0.1137
16678SOL    HW159002  11.360   9.547   7.916  0.0828 -0.9960  0.0490
16678SOL    HW259003  11.480   9.473   7.972 -0.8539 -1.0545  2.0943
16679SOL     OW59004   9.625   5.735   6.508  0.3083  0.2352 -0.2285
16679SOL    HW159005   9.685   5.784   6.451  1.2892 -0.4944  0.1490
16679SOL    HW259006   9.552   5.795   6.523 -0.0557  0.4248 -2.3440
16680SOL     OW59007   9.812   0.408   7.269 -0.0873  0.2626  0.0631
16680SOL    HW159008   9.811   0.428   7.363  0.1955 -1.2060  0.4011
16680SOL    HW259009   9.795   0.492   7.227  0.5432  1.0997  1.4049
16681SOL     OW59010   5.023   9.105   0.743  0.1750 -0.4497 -0.2338
16681SOL    HW159011   5.099   9.140   0.696 -0.1928  0.4681 -0.1689
16681SOL    HW259012   4.991   9.179   0.795 -1.1013 -0.6455 -0.7001
16682SOL     OW59013  11.260   8.438   7.322  0.1048 -0.0738 -0.1261
16682SOL    HW159014  11.344   8.411   7.283 -0.1224 -0.4688 -0.3561
16682SOL    HW259015  11.221   8.356   7.351 -0.6558 -0.0063 -0.9338
16683SOL     OW59016   2.210   0.340   6.641 -0.2532 -0.0659  0.3678
16683SOL    HW159017   2.155   0.272   6.679  0.6697 -0.4492  1.0588
16683SOL    HW259018   2.271   0.293   6.584  0.4643  0.1552  0.9403
16684SOL     OW59019  10.052   5.189  10.484 -0.6209  0.3527  0.0114
16684SOL    HW159020  10.001   5.238  10.420 -1.2631  0.4526  0.5832
16684SOL    HW259021  10.142   5.215  10.468 -0.9207  1.5142  0.1090
16685SOL     OW59022   0.036   3.413   7.818  0.3697  0.3509 -0.8082
16685SOL    HW159023   0.012   3.327   7.854 -0.8821  0.6170 -0.9648
16685SOL    HW259024   0.054   3.467   7.894  1.2568 -0.0611 -0.7102
16686SOL     OW59025   7.939   4.176  11.375  0.0738 -0.6179  0.1648
16686SOL    HW159026   7.859   4.128  11.356 -0.0105 -0.8427  1.0250
16686SOL    HW259027   7.941   4.182  11.471  1.1315 -0.7096  0.1607
16687SOL     OW59028   9.455   5.862   3.260 -0.6023  0.1557  0.1636
16687SOL    HW159029   9.542   5.825   3.273 -0.7166 -0.9984 -1.8573
16687SOL    HW259030   9.399   5.813   3.320  0.0327  0.5546  1.1094
16688SOL     OW59031   1.624  10.980  10.235  0.0658  0.3126  0.2685
16688SOL    HW159032   1.565  10.907  10.255  1.8694 -0.8081  1.7099
16688SOL    HW259033   1.603  11.046  10.301  1.6403 -0.8434  2.0084
16689SOL     OW59034  11.450   0.662   9.057  0.5858  0.5439 -0.5664
16689SOL    HW159035  11.378   0.640   8.998 -2.4384  4.2090  1.3211
16689SOL    HW259036  11.438   0.603   9.131 -0.2842  0.8884 -0.4204
16690SOL     OW59037   7.216   2.295   3.480  0.3794 -0.3690  0.2320
16690SOL    HW159038   7.125   2.307   3.452  0.2950 -2.0839 -0.3554
16690SOL    HW259039   7.221   2.338   3.566 -0.5944  0.9615 -0.3608
16691SOL     OW59040   1.626   6.930   3.889 -0.2161  0.3921 -0.2841
16691SOL    HW159041   1.684   7.002   3.862 -0.1408  0.4372 -0.0062
16691SOL    HW259042   1.680   6.852   3.878  0.8453  0.6310  2.4640
16692SOL     OW59043   9.081   4.705   7.684 -0.4660  0.0497  0.5217
16692SOL    HW159044   9.067   4.711   7.778  0.6765 -1.0117  0.7856
16692SOL    HW259045   9.176   4.694   7.674 -0.4922  0.7771 -0.7899
16693SOL     OW59046   4.111  11.633   7.112  0.1054 -0.8347 -0.7144
16693SOL    HW159047   4.027  11.672   7.136 -0.1606 -1.0714 -1.2420
16693SOL    HW259048   4.176  11.697   7.140 -0.0733 -1.6913  1.9981
16694SOL     OW59049   0.019   8.308   8.014  0.3961 -0.4670 -0.2273
16694SOL    HW159050  -0.061   8.341   7.973 -0.0990 -2.1394 -0.7044
16694SOL    HW259051   0.039   8.228   7.965  0.5995 -1.7658  1.8691
16695SOL     OW59052   8.438   5.568   0.819 -0.3893 -0.6585  0.5965
16695SOL    HW159053   8.515   5.575   0.876 -0.4027  0.7332  0.4590
16695SOL    HW259054   8.411   5.476   0.828  1.4292 -1.2532  0.4555
16696SOL     OW59055   0.387   3.456   0.196  0.0119  0.1223 -0.1916
16696SOL    HW159056   0.311   3.400   0.182 -1.5757  2.1812 -0.3051
16696SOL    HW259057   0.399   3.501   0.112 -0.3311  1.7802  0.6274
16697SOL     OW59058   2.909   2.420  11.847 -0.2841  0.2343 -0.1827
16697SOL    HW159059   2.929   2.486  11.913  2.3934  0.3566 -0.9837
16697SOL    HW259060   2.859   2.353  11.894 -1.2933  1.8205  1.1253
16698SOL     OW59061   3.018  12.001   1.286  0.5369  0.6293  0.2565
16698SOL    HW159062   3.053  11.913   1.299  0.0505  0.5621  1.2664
16698SOL    HW259063   2.934  11.987   1.242  0.9367  0.6638 -0.5214
16699SOL     OW59064   4.040   8.101  11.591 -0.2009 -0.0717 -0.1657
16699SOL    HW159065   4.088   8.167  11.642  0.9474 -1.5190  0.6948
16699SOL    HW259066   4.096   8.024  11.592 -1.8467 -1.3311 -0.4962
16700SOL     OW59067   7.071   1.178   3.956  0.6290 -0.0164 -0.4351
16700SOL    HW159068   7.044   1.255   3.905  3.4913  1.2938 -0.1660
16700SOL    HW259069   6.997   1.162   4.015 -0.4188  1.9857 -1.0863
16701SOL     OW59070   7.459   1.375   7.718  0.0037  0.6479 -0.1794
16701SOL    HW159071   7.507   1.296   7.693 -1.1491  0.1479 -0.8943
16701SOL    HW259072   7.518   1.447   7.696  1.1006 -0.0076  0.5665
16702SOL     OW59073  11.209   0.665   0.928 -0.4224  0.1842 -0.4396
16702SOL    HW159074  11.134   0.622   0.970 -1.1951 -0.0234 -1.9486
16702SOL    HW259075  11.276   0.596   0.924 -1.6161 -0.9586 -2.7466
16703SOL     OW59076   3.397   9.075  11.369 -0.0621  0.2880 -0.2617
16703SOL    HW159077   3.399   9.131  11.447  0.3550  0.8458 -0.6668
16703SOL    HW259078   3.480   9.028  11.371  0.2385  0.7934 -0.7206
16704SOL     OW59079   9.867   7.223  12.557 -0.0059 -0.7577 -0.4563
16704SOL    HW159080   9.916   7.299  12.589  0.2309 -1.3349  0.6035
16704SOL    HW259081   9.811   7.258  12.488  0.3099  0.3244 -0.1874
16705SOL     OW59082   3.589  11.385   0.039  0.1245 -0.1550  0.0116
16705SOL    HW159083   3.617  11.390   0.131  0.4672 -0.1916 -0.0882
16705SOL    HW259084   3.645  11.318   0.000  2.1379  1.9152 -0.9491
16706SOL     OW59085   4.477  10.035   6.826 -0.3115 -0.1555  0.4701
16706SOL    HW159086   4.443  10.089   6.755 -1.4159 -1.9161 -0.4162
16706SOL    HW259087   4.572  10.042   6.818 -0.3788 -1.0464 -1.8349
16707SOL     OW59088   6.557  10.964   9.396 -0.1096 -0.1575  0.4239
16707SOL    HW159089   6.637  10.920   9.368 -0.7951 -0.5331 -1.0562
16707SOL    HW259090   6.587  11.045   9.437  1.0506 -0.6590  0.6084
16708SOL     OW59091   2.189   0.414   4.391 -0.5794 -0.5835  0.2501
16708SOL    HW159092   2.171   0.381   4.303  0.9963 -0.3080 -0.2014
16708SOL    HW259093   2.208   0.507   4.379 -0.7510 -0.4543  0.9404
16709SOL     OW59094   2.060  11.214   7.778 -0.5134  0.3361  0.6502
16709SOL    HW159095   1.974  11.255   7.764 -0.7362 -0.0376  0.9142
16709SOL    HW259096   2.040  11.122   7.797 -0.0470  0.2190  0.5887
16710SOL     OW59097   3.915   6.945  10.284 -0.1841 -0.1715 -0.1566
16710SOL    HW159098   3.822   6.924  10.280 -0.4755  0.2747  2.4781
16710SOL    HW259099   3.925   7.023  10.230 -1.5842  0.4735  0.4944
16711SOL     OW59100  11.044  11.266   9.345 -0.0227 -0.2550 -0.4078
16711SOL    HW159101  11.109  11.327   9.311  0.5142  0.2485  1.4106
16711SOL    HW259102  11.082  11.233   9.426 -2.7302  1.4716  1.7506
16712SOL     OW59103   8.428   5.032   4.926  0.1186 -0.3641  0.0251
16712SOL    HW159104   8.415   4.954   4.978  0.7727 -0.9528 -0.6708
16712SOL    HW259105   8.506   5.013   4.873 -1.4162 -0.4593 -2.3570
16713SOL     OW59106   2.209  12.104   6.625 -0.4539  0.2223  0.8311
16713SOL    HW159107   2.242  12.165   6.559  0.9992 -0.4548  0.8911
16713SOL    HW259108   2.114  12.103   6.611 -0.1518 -0.3481 -1.6445
16714SOL     OW59109   1.041   3.080   0.379  0.1047  0.6572 -0.1756
16714SOL    HW159110   0.986   3.098   0.303  0.6661  2.7068 -0.1697
16714SOL    HW259111   1.099   3.009   0.351  0.6606  1.7270 -1.9040
16715SOL     OW59112   2.954   7.588   9.499  0.3904  0.4802 -0.4276
16715SOL    HW159113   2.949   7.682   9.486  0.5121  0.6670  0.7705
16715SOL    HW259114   2.864   7.558   9.492  0.2523  0.7995 -0.0466
16716SOL     OW59115   0.993   6.689   5.529  0.0638 -0.0132  0.0391
16716SOL    HW159116   0.942   6.758   5.486 -1.0338  0.4009  1.8851
16716SOL    HW259117   1.080   6.696   5.490 -0.4580  1.3450 -0.9718
16717SOL     OW59118  10.752   0.929   3.267  0.0371 -0.3098 -0.3983
16717SOL    HW159119  10.800   1.011   3.279  0.3497 -0.5266 -0.1562
16717SOL    HW259120  10.705   0.916   3.349  2.0724 -1.7244  0.5998
16718SOL     OW59121   8.660  10.327   1.115 -0.8211  0.2701  0.1138
16718SOL    HW159122   8.717  10.253   1.095  0.4250  1.3592 -0.4723
16718SOL    HW259123   8.573  10.298   1.088 -0.1855 -0.6087 -1.0736
16719SOL     OW59124   3.416   5.225   4.347 -0.2694 -0.2344  0.2080
16719SOL    HW159125   3.502   5.195   4.319 -0.3002 -0.7035  0.5979
16719SOL    HW259126   3.434   5.294   4.410 -0.2005  1.5543 -1.6660
16720SOL     OW59127   5.552   6.691   3.606  0.2727  0.4715  0.3751
16720SOL    HW159128   5.589   6.617   3.653 -0.9094  0.0371  0.6604
16720SOL    HW259129   5.581   6.768   3.655 -0.7270  0.0392  1.6937
16721SOL     OW59130   3.952   9.906   5.230  0.4197 -0.0863  0.2367
16721SOL    HW159131   3.947   9.949   5.145  2.2188 -1.8930 -0.8662
16721SOL    HW259132   4.003   9.966   5.284 -0.4327  0.9123 -0.0352
16722SOL     OW59133  12.357   8.157   6.672  0.2605 -0.7426  0.0722
16722SOL    HW159134  12.273   8.145   6.628 -0.2548 -0.2865  0.9069
16722SOL    HW259135  12.409   8.082   6.645 -0.9251 -1.8202  0.6855
16723SOL     OW59136   0.265   1.868   4.039 -0.0360 -0.6713  0.2540
16723SOL    HW159137   0.291   1.797   3.981  3.0504  0.2105  0.4064
16723SOL    HW259138   0.346   1.898   4.080 -1.7162  0.5667  2.9803
16724SOL     OW59139   9.472   3.173   2.200  0.3114  0.1123  0.0937
16724SOL    HW159140   9.399   3.216   2.245 -0.0127 -0.4889  0.1451
16724SOL    HW259141   9.466   3.081   2.226 -1.7738 -0.9795 -3.4972
16725SOL     OW59142   5.928   2.457   3.280  0.4332  0.3381 -0.6689
16725SOL    HW159143   5.970   2.529   3.327  0.3372 -1.0804  1.6989
16725SOL    HW259144   6.000   2.408   3.240  0.4834  1.8379 -2.5956
16726SOL     OW59145   1.026  11.318   7.625 -0.3830  0.4245 -0.3330
16726SOL    HW159146   1.103  11.282   7.668 -0.8550 -0.0408  0.1373
16726SOL    HW259147   0.954  11.297   7.684 -0.8296  1.1191 -0.6183
16727SOL     OW59148  12.431   1.713   5.524 -0.3768  0.2945  0.5036
16727SOL    HW159149  12.377   1.669   5.459 -0.1981  1.4885 -0.5020
16727SOL    HW259150  12.444   1.648   5.593  0.3633 -1.4312 -1.1597
16728SOL     OW59151   1.562   9.386   4.561 -0.5705  0.2633 -0.1971
16728SOL    HW159152   1.642   9.438   4.575  0.0886 -0.7900  0.0523
16728SOL    HW259153   1.506   9.409   4.635 -1.2592  2.3370 -1.2849
16729SOL     OW59154   6.792   3.649   0.256  0.6685 -0.3486  0.2051
16729SOL    HW159155   6.796   3.680   0.166  2.8656 -0.1682  0.3137
16729SOL    HW259156   6.834   3.562   0.254  1.9161  0.1940  1.2231
16730SOL     OW59157   4.345   2.032  10.659  0.0979  1.0115  0.4921
16730SOL    HW159158   4.407   2.104  10.649  0.4252  0.7487  0.6248
16730SOL    HW259159   4.395   1.954  10.638 -0.0793  0.7603  0.9775
16731SOL     OW59160   6.681   3.235   8.372  0.9688 -0.6573 -0.3128
16731SOL    HW159161   6.607   3.176   8.357 -0.1233  0.2570  1.1322
16731SOL    HW259162   6.758   3.184   8.349 -0.1348 -1.3107 -2.8921
16732SOL     OW59163   8.559   2.961   5.161 -0.0463 -0.0897 -0.0175
16732SOL    HW159164   8.631   2.933   5.217  1.9204  3.6837 -0.3225
16732SOL    HW259165   8.594   2.955   5.072  0.5513  2.9716 -0.0956
16733SOL     OW59166  11.494  10.817  11.486 -0.4238  0.1970 -0.1206
16733SOL    HW159167  11.522  10.730  11.514 -0.3076  0.7296  1.5316
16733SOL    HW259168  11.404  10.825  11.520 -0.9132  0.2539 -1.3725
16734SOL     OW59169   2.702   0.016  12.297 -0.1406  0.0780 -0.2394
16734SOL    HW159170   2.766  -0.032  12.245  0.4231  1.3756 -0.7620
16734SOL    HW259171   2.639   0.050  12.233 -0.0432  0.7816  0.0342
16735SOL     OW59172   4.242   9.632   3.630  0.6401  0.1924 -0.3320
16735SOL    HW159173   4.211   9.599   3.714  0.7101  1.7958  0.3619
16735SOL    HW259174   4.193   9.714   3.616  1.1900  0.3538 -1.4713
16736SOL     OW59175   8.914   7.158   7.280  0.3412  0.3722  0.4489
16736SOL    HW159176   8.878   7.069   7.279 -0.3959  0.6639  0.5836
16736SOL    HW259177   8.992   7.151   7.335  0.6300 -0.3175 -0.0261
16737SOL     OW59178   3.407   2.857   2.179  0.3115  0.3485 -0.2530
16737SOL    HW159179   3.433   2.881   2.090  1.1987 -1.2361 -0.4488
16737SOL    HW259180   3.348   2.782   2.167 -1.1107  1.3139  0.4205
16738SOL     OW59181   0.755  10.329   9.591 -0.3009  0.1354 -0.6629
16738SOL    HW159182   0.819  10.393   9.620 -1.1379  0.3603  0.7510
16738SOL    HW259183   0.738  10.352   9.499  0.8377  0.7180 -0.7393
16739SOL     OW59184   2.834   7.070  11.327 -0.5484 -0.0224 -0.3243
16739SOL    HW159185   2.929   7.065  11.333 -0.5773  0.7784  1.3968
16739SOL    HW259186   2.809   6.986  11.288  0.8396 -0.3497 -0.5777
16740SOL     OW59187   6.277  10.934   5.268 -0.0199 -0.6517  0.1435
16740SOL    HW159188   6.363  10.910   5.303  0.5122 -2.4616 -2.1281
16740SOL    HW259189   6.215  10.899   5.332  0.8742  0.1881  1.5355
16741SOL     OW59190   3.495   5.693   4.771 -0.0074  0.0754  0.1662
16741SOL    HW159191   3.492   5.708   4.677 -0.8620 -0.3885  0.1087
16741SOL    HW259192   3.526   5.775   4.808 -1.2067  0.8056 -0.3952
16742SOL     OW59193   3.826   7.205   8.935  0.3706 -0.2912 -0.3046
16742SOL    HW159194   3.857   7.215   9.025  2.0657 -2.0093 -0.6126
16742SOL    HW259195   3.743   7.159   8.944  0.2531  0.0304  0.3902
16743SOL     OW59196   5.822   1.212   8.962 -0.0159  0.5311 -0.0839
16743SOL    HW159197   5.730   1.196   8.944 -0.1767  0.2437  0.9272
16743SOL    HW259198   5.866   1.129   8.942 -0.2096  0.1776  0.8779
16744SOL     OW59199  10.352   2.902   2.415 -0.5091 -0.2251 -0.4112
16744SOL    HW159200  10.353   2.997   2.430  0.1674  0.1021 -2.2739
16744SOL    HW259201  10.344   2.893   2.320  0.6468 -2.0193 -0.3819
16745SOL     OW59202   2.178   6.718   9.903 -0.5284  0.0064  0.7845
16745SOL    HW159203   2.243   6.788   9.895 -0.6631 -0.0326 -1.3461
16745SOL    HW259204   2.228   6.638   9.913 -0.1383 -0.1092 -1.5388
16746SOL     OW59205   6.437   0.176  10.582  0.6193  0.2241  0.5164
16746SOL    HW159206   6.517   0.125  10.599 -0.6385 -2.2642 -0.5726
16746SOL    HW259207   6.446   0.204  10.491  0.8082  1.0773  0.7874
16747SOL     OW59208   7.266   2.111   8.777  0.0042  0.0083  0.5520
16747SOL    HW159209   7.345   2.147   8.738 -0.3567  0.3288  0.1020
16747SOL    HW259210   7.288   2.098   8.869  0.7562 -0.4286  0.3199
16748SOL     OW59211   8.561   7.796   8.794  0.3493  0.6063 -0.3219
16748SOL    HW159212   8.539   7.795   8.700 -0.3189 -0.3535 -0.1684
16748SOL    HW259213   8.577   7.704   8.816  0.1878  0.7853  0.5753
16749SOL     OW59214  12.584   3.871   6.088  0.0010 -0.3201  0.3000
16749SOL    HW159215  12.499   3.912   6.075  0.1423  0.0590  0.5495
16749SOL    HW259216  12.645   3.945   6.098  0.6042 -0.5296 -1.3819
16750SOL     OW59217   9.810   7.968   4.121  0.1155 -0.6637  0.0164
16750SOL    HW159218   9.856   7.998   4.200  0.1648  0.0410 -0.2802
16750SOL    HW259219   9.724   7.940   4.153 -0.3324  0.8213  0.1451
16751SOL     OW59220  10.211   4.190   7.909  0.2072  0.1105 -0.2547
16751SOL    HW159221  10.193   4.096   7.909  0.3330 -0.0169 -3.3216
16751SOL    HW259222  10.128   4.231   7.935 -0.3338 -0.8143 -0.4915
16752SOL     OW59223   3.605  10.743   5.877  0.2718 -0.0643 -0.0353
16752SOL    HW159224   3.521  10.788   5.874  0.5242  0.5792  1.4002
16752SOL    HW259225   3.600  10.689   5.956  1.2846  0.1657  0.1981
16753SOL     OW59226   9.436   3.731   0.099 -0.4987 -0.3342  0.2517
16753SOL    HW159227   9.502   3.716   0.166  0.0150 -1.2624 -0.4289
16753SOL    HW259228   9.485   3.733   0.017 -0.8186  2.9074  0.0114
16754SOL     OW59229  12.125  11.463   6.972 -0.0565  0.0701 -0.1905
16754SOL    HW159230  12.030  11.478   6.970 -0.1129 -0.2791 -1.9366
16754SOL    HW259231  12.161  11.532   6.917  0.8085  0.7484  1.2084
16755SOL     OW59232  11.973   7.998   0.366  0.3653  0.2197 -0.0037
16755SOL    HW159233  11.937   8.049   0.294  1.0167  3.5740  1.8265
16755SOL    HW259234  11.897   7.959   0.409 -0.2108 -0.0438 -1.2403
16756SOL     OW59235   6.994   3.289   5.650 -0.7235 -0.0911 -0.1874
16756SOL    HW159236   7.025   3.376   5.626 -0.3815 -0.5235 -1.3679
16756SOL    HW259237   7.016   3.234   5.576 -0.4700 -1.3111  0.7625
16757SOL     OW59238  11.342  11.808   5.830  0.6851 -0.1077 -0.4101
16757SOL    HW159239  11.411  11.789   5.893  0.0732 -0.3323  0.2025
16757SOL    HW259240  11.280  11.864   5.878  0.3605 -0.0385 -0.9009
16758SOL     OW59241  11.882   9.891   4.745  0.1231 -0.3247  0.6269
16758SOL    HW159242  11.824   9.964   4.763  1.7550  0.8955  1.1777
16758SOL    HW259243  11.955   9.930   4.697  0.9449 -1.6217  0.7708
16759SOL     OW59244   9.723   2.982   4.918  0.1217  0.4988  0.3238
16759SOL    HW159245   9.751   2.928   4.992  0.8503  1.4689  0.7874
16759SOL    HW259246   9.761   3.068   4.936 -1.8216  1.4518  0.1159
16760SOL     OW59247  11.568   9.085   5.864  0.1199  0.6019 -0.0609
16760SOL    HW159248  11.561   9.094   5.959 -1.6329  1.2481 -0.2084
16760SOL    HW259249  11.477   9.083   5.834  0.6072 -1.1156 -1.6087
16761SOL     OW59250   9.346   9.807   2.884 -0.4061 -0.3081 -0.1944
16761SOL    HW159251   9.263   9.772   2.917 -1.9916  1.8393 -1.6034
16761SOL    HW259252   9.324   9.895   2.852  2.3727  0.2365 -0.9154
16762SOL     OW59253   3.499   3.956   3.687  0.8040  0.4813  0.7151
16762SOL    HW159254   3.467   4.040   3.656 -0.2486  0.6230  2.0882
16762SOL    HW259255   3.460   3.892   3.626  0.8350  0.9091  0.2383
16763SOL     OW59256   0.544   9.856   9.077  0.3840 -0.5112  0.5756
16763SOL    HW159257   0.550   9.767   9.041  1.5104 -0.4747  0.6322
16763SOL    HW259258   0.459   9.858   9.121 -0.1143 -1.2175 -0.3154
16764SOL     OW59259   8.463  10.971  12.217 -0.3686 -0.3233 -0.5331
16764SOL    HW159260   8.463  11.062  12.245 -2.7637 -0.6080  0.6505
16764SOL    HW259261   8.399  10.967  12.146 -0.0232 -1.0283 -0.8172
16765SOL     OW59262   8.337   8.750   2.077 -0.4362 -0.1954 -0.0033
16765SOL    HW159263   8.265   8.687   2.087 -0.7933 -0.2045 -2.1527
16765SOL    HW259264   8.293   8.834   2.061  0.0304  0.7119  2.8229
16766SOL     OW59265   3.070   6.035   9.165  0.2274  0.2746  0.1046
16766SOL    HW159266   3.048   6.033   9.258  0.1249  1.0975  0.1007
16766SOL    HW259267   3.164   6.016   9.163  0.3744  0.9385  0.4349
16767SOL     OW59268   2.739  10.320   1.459  0.7949 -0.6878 -0.0306
16767SOL    HW159269   2.693  10.330   1.542 -1.0337  1.0288 -1.1482
16767SOL    HW259270   2.799  10.247   1.473  0.7689 -0.2736  2.8609
16768SOL     OW59271   5.018   4.488   9.146 -0.3279  0.4034 -0.0974
16768SOL    HW159272   5.109   4.461   9.157 -0.5976 -1.2093 -1.3554
16768SOL    HW259273   5.022   4.564   9.087  0.1837  0.0034 -0.5916
16769SOL     OW59274   2.019  10.234   7.890  0.8111 -0.0172  0.0308
16769SOL    HW159275   1.980  10.172   7.829  0.8347 -0.4627  0.4619
16769SOL    HW259276   1.980  10.319   7.867  0.0600 -0.3510  0.0476
16770SOL     OW59277   5.795   5.459   5.951 -0.1977  0.2004 -0.3876
16770SOL    HW159278   5.836   5.530   6.001 -0.8847 -0.3227  0.9708
16770SOL    HW259279   5.806   5.485   5.860  3.2122  0.0492 -0.1494
16771SOL     OW59280   4.871  11.181   1.689  0.4710  0.3069  0.0782
16771SOL    HW159281   4.784  11.156   1.658  1.3330  0.0860 -2.3199
16771SOL    HW259282   4.855  11.255   1.747 -1.2682  0.7610 -0.9124
16772SOL     OW59283   3.768   2.361   5.917 -0.0476  0.3847 -0.9922
16772SOL    HW159284   3.702   2.291   5.911  0.8571 -0.5544 -0.2679
16772SOL    HW259285   3.845   2.325   5.873  0.2664  1.1451 -1.0760
16773SOL     OW59286  11.795   0.418   9.810 -0.0023 -0.2419 -0.2389
16773SOL    HW159287  11.733   0.489   9.829 -0.3288  0.0460 -2.2219
16773SOL    HW259288  11.880   0.461   9.803  0.2347 -0.4421  1.0600
16774SOL     OW59289  10.700   2.127   3.990 -0.0096  0.2647 -0.1162
16774SOL    HW159290  10.673   2.091   4.075  0.0523 -2.6435 -1.2225
16774SOL    HW259291  10.778   2.076   3.966  0.2399  1.3269 -1.7262
16775SOL     OW59292  11.830   2.110   8.338 -0.0973 -0.3202  0.1631
16775SOL    HW159293  11.812   2.166   8.413 -0.3561  0.0086 -0.1379
16775SOL    HW259294  11.744   2.086   8.304  0.0139 -0.7497  0.1778
16776SOL     OW59295   7.723   5.698   2.311 -0.2881 -0.3709  0.4455
16776SOL    HW159296   7.669   5.728   2.385 -1.7187 -1.5082 -0.0958
16776SOL    HW259297   7.664   5.697   2.237  0.5835 -1.3311 -0.2595
16777SOL     OW59298   2.102   4.205   8.856 -0.2132  0.3099  0.5702
16777SOL    HW159299   2.065   4.189   8.769  2.7186  0.4450 -0.8071
16777SOL    HW259300   2.098   4.300   8.867 -2.3601  0.1646  1.5052
16778SOL     OW59301   3.472   5.785   3.418 -0.3495 -0.0813  0.3505
16778SOL    HW159302   3.518   5.723   3.474 -1.3795 -1.0231  0.1646
16778SOL    HW259303   3.419   5.731   3.360 -0.1902  0.9204 -0.7722
16779SOL     OW59304   1.288   0.711  10.488 -0.3069 -0.2844 -0.0700
16779SOL    HW159305   1.225   0.746  10.551 -0.8030 -0.6145 -0.3752
16779SOL    HW259306   1.329   0.638  10.533  1.6880  1.4375  1.0693
16780SOL     OW59307   7.389   6.519  10.664  0.0364 -0.0739  0.2418
16780SOL    HW159308   7.428   6.555  10.743 -1.8782 -0.4473  1.4344
16780SOL    HW259309   7.336   6.590  10.628  0.4401 -0.0841 -0.3821
16781SOL     OW59310   1.618   7.636   6.185  0.4762 -0.8558  0.1423
16781SOL    HW159311   1.533   7.675   6.204  0.2791 -0.9669 -0.4813
16781SOL    HW259312   1.636   7.660   6.094  0.9098 -1.1934  0.1332
16782SOL     OW59313   0.079   7.819   5.900  0.3182 -0.1502 -0.0896
16782SOL    HW159314   0.154   7.794   5.846 -0.5360 -2.2546 -0.3807
16782SOL    HW259315   0.017   7.747   5.891 -2.5428  2.2350 -1.2588
16783SOL     OW59316  10.136   0.242   8.168 -0.5221 -0.1710  0.2234
16783SOL    HW159317  10.227   0.271   8.179  0.0863 -1.5650 -0.7834
16783SOL    HW259318  10.091   0.273   8.246  1.0188 -0.1841  1.1543
16784SOL     OW59319   0.445  11.138   0.648  0.0692  0.5968  0.5815
16784SOL    HW159320   0.365  11.104   0.606  0.5023  0.6800 -0.3376
16784SOL    HW259321   0.516  11.110   0.590  0.6856  0.8017  1.2208
16785SOL     OW59322  11.373   0.023   3.997  0.1549 -0.6246 -0.0021
16785SOL    HW159323  11.384  -0.058   3.947  1.0957  0.8847 -2.4195
16785SOL    HW259324  11.461   0.041   4.032  0.0099 -0.4969  0.3005
16786SOL     OW59325   0.105   6.633   8.227  0.5457  0.0987  0.0085
16786SOL    HW159326   0.041   6.631   8.156  1.3766  1.4188 -0.8304
16786SOL    HW259327   0.063   6.586   8.299 -1.2721  0.7174 -0.5970
16787SOL     OW59328  11.320   7.177   4.408  0.0454  0.0816 -0.2974
16787SOL    HW159329  11.399   7.127   4.388  0.1101 -0.7681  1.7699
16787SOL    HW259330  11.277   7.127   4.478 -1.7222  1.1268 -0.5759
16788SOL     OW59331   7.021   0.419   2.729 -0.0569  0.4300  0.1799
16788SOL    HW159332   7.063   0.392   2.810  0.8492  2.7284  0.5787
16788SOL    HW259333   6.935   0.451   2.756  0.2923  1.3136  0.3113
16789SOL     OW59334   1.956   8.072   4.117 -0.4911 -0.3066 -0.2697
16789SOL    HW159335   2.030   8.016   4.095 -0.9110 -1.0113  0.0412
16789SOL    HW259336   1.990   8.134   4.182 -0.4164 -1.3235  0.6963
16790SOL     OW59337   5.196  10.531   6.212  0.2570 -0.7799  0.1320
16790SOL    HW159338   5.138  10.466   6.173  0.7769 -0.9387 -0.3966
16790SOL    HW259339   5.142  10.576   6.277  0.0002 -2.0117  0.8112
16791SOL     OW59340   9.657  12.492   0.793 -0.1507 -0.4609  0.0372
16791SOL    HW159341   9.662  12.540   0.711 -0.3675 -2.3450 -1.1448
16791SOL    HW259342   9.737  12.439   0.795 -0.5744 -1.1003  0.5682
16792SOL     OW59343   8.565   5.612   5.328 -0.5489  0.1523 -0.1722
16792SOL    HW159344   8.520   5.529   5.312 -2.1248  1.1924 -1.4499
16792SOL    HW259345   8.496   5.671   5.357  0.6944  0.8446  1.5443
16793SOL     OW59346   8.644   4.028   6.928  0.1648 -0.6956 -0.3193
16793SOL    HW159347   8.596   4.076   6.860  0.8661  1.9862  0.9773
16793SOL    HW259348   8.586   4.029   7.004  1.3913  0.8640  0.6555
16794SOL     OW59349   8.538   4.299   7.027  0.0509  0.0933 -0.1521
16794SOL    HW159350   8.565   4.382   7.066 -0.3973 -0.1214  0.6449
16794SOL    HW259351   8.610   4.274   6.970  1.7388 -0.6054  2.1259
16795SOL     OW59352   4.913   3.586   6.329 -0.6828  0.0080 -0.5903
16795SOL    HW159353   4.872   3.655   6.278  0.7578  0.8817 -0.6267
16795SOL    HW259354   5.005   3.589   6.304 -0.4017 -1.2333  0.1916
16796SOL     OW59355   3.862   6.319   8.149 -0.1096  0.3173 -0.0645
16796SOL    HW159356   3.955   6.302   8.159 -0.1895 -0.0675  0.0625
16796SOL    HW259357   3.827   6.237   8.113 -0.2181  0.8427 -1.1961
16797SOL     OW59358   6.716   0.852   2.859  0.5651 -0.2405  0.2631
16797SOL    HW159359   6.761   0.875   2.778 -0.5383 -0.7460 -0.5192
16797SOL    HW259360   6.655   0.924   2.875 -1.6536 -1.6582 -1.2528
16798SOL     OW59361   3.408   4.413   7.444 -0.4142 -0.3623  0.5153
16798SOL    HW159362   3.362   4.332   7.463 -2.0760  0.1669 -1.0177
16798SOL    HW259363   3.345   4.482   7.464  0.5823  0.5266  0.7009
16799SOL     OW59364   1.776   1.172   7.839 -0.2135 -0.7654 -0.1833
16799SOL    HW159365   1.697   1.132   7.802 -1.0578  0.4014  0.2853
16799SOL    HW259366   1.845   1.152   7.776 -1.3647  0.1874 -1.8123
16800SOL     OW59367   3.554  11.748  10.080  0.4458  0.3311 -0.9655
16800SOL    HW159368   3.549  11.657  10.050 -0.5933 -0.1841  0.6099
16800SOL    HW259369   3.481  11.756  10.142  1.8338  1.5913  0.5925
16801SOL     OW59370  10.714   6.733   1.652 -0.0377 -0.6416 -0.6793
16801SOL    HW159371  10.724   6.698   1.740 -1.5896  0.1459 -0.1509
16801SOL    HW259372  10.800   6.721   1.611  1.0643 -0.0011  1.3133
16802SOL     OW59373  12.186   2.424   1.684 -0.4637  0.1581 -0.3856
16802SOL    HW159374  12.253   2.390   1.626 -0.5179  0.7388 -0.7939
16802SOL    HW259375  12.103   2.407   1.638 -0.7419 -1.8059  0.7151
16803SOL     OW59376   6.292   7.012  10.249 -0.1603 -0.4860 -0.1048
16803SOL    HW159377   6.276   7.106  10.260 -0.0675 -0.5027  0.1849
16803SOL    HW259378   6.342   7.006  10.167  1.3466 -0.1115  0.7424
16804SOL     OW59379   4.951   3.600   5.794 -0.2457 -0.3904 -0.3697
16804SOL    HW159380   4.869   3.580   5.840 -0.7713  2.1240 -0.0226
16804SOL    HW259381   4.938   3.566   5.706 -2.2372  1.0051 -0.7010
16805SOL     OW59382   6.798   3.761   9.501 -0.0557  0.3451  0.3301
16805SOL    HW159383   6.816   3.818   9.426  0.1405  0.5764  0.5521
16805SOL    HW259384   6.732   3.699   9.468  1.4636 -0.8218 -0.6340
16806SOL     OW59385   1.254  11.545   1.244  0.3485 -0.8907 -0.1609
16806SOL    HW159386   1.336  11.494   1.237  1.0303 -0.0364  1.2404
16806SOL    HW259387   1.225  11.531   1.333 -0.6082 -0.5087 -0.4038
16807SOL     OW59388   3.066   8.598  11.412  0.1502  0.1455 -0.2234
16807SOL    HW159389   3.123   8.521  11.408 -0.4496 -0.8219  4.2715
16807SOL    HW259390   3.108   8.662  11.355  2.1546 -2.5742 -2.0890
16808SOL     OW59391   3.461  12.103  10.780  0.0523 -0.0842 -0.0518
16808SOL    HW159392   3.534  12.156  10.748 -0.9670  0.2932 -1.9190
16808SOL    HW259393   3.462  12.024  10.726  0.1309 -0.9284  1.1281
16809SOL     OW59394  11.732   1.956   0.508 -0.2204 -0.1556  0.2463
16809SOL    HW159395  11.764   1.878   0.554  0.2247  0.0908  0.3649
16809SOL    HW259396  11.702   1.924   0.423 -2.1563 -0.7998  1.1384
16810SOL     OW59397   7.531   8.330   3.974 -0.1467  0.1928 -0.0731
16810SOL    HW159398   7.531   8.333   3.879  1.7295  0.0044 -0.1208
16810SOL    HW259399   7.603   8.387   4.000 -1.4743  1.3275  1.3124
16811SOL     OW59400   7.440   9.397   4.681  0.5186  0.1801 -0.3212
16811SOL    HW159401   7.481   9.473   4.641 -0.2206  0.9846  0.4181
16811SOL    HW259402   7.374   9.369   4.617  0.1020  0.7797 -0.1570
16812SOL     OW59403   9.904   7.545   5.419  0.3538 -0.5385 -0.6149
16812SOL    HW159404   9.857   7.570   5.340  0.1541  1.4427  0.0676
16812SOL    HW259405   9.992   7.523   5.389  1.3369  3.3706 -1.2023
16813SOL     OW59406   6.686   6.961  10.584  0.7674 -0.6210 -0.1132
16813SOL    HW159407   6.692   7.002  10.497  1.8987  0.5854  0.5000
16813SOL    HW259408   6.605   6.995  10.621  0.3697 -1.0015 -0.6092
16814SOL     OW59409   6.320   7.389   4.760  0.4559  0.2939 -0.7437
16814SOL    HW159410   6.389   7.434   4.808  1.2307 -3.1911  1.8672
16814SOL    HW259411   6.363   7.355   4.681  1.4687 -0.7291  0.2082
16815SOL     OW59412   9.054   6.052   6.484 -0.2551 -0.1467 -0.0325
16815SOL    HW159413   8.979   6.074   6.429 -1.7486 -1.0964  1.5138
16815SOL    HW259414   9.079   5.964   6.456  1.7070  0.9347 -1.9676
16816SOL     OW59415   7.184   4.562   2.880 -0.0238 -0.5219 -0.1520
16816SOL    HW159416   7.115   4.627   2.894  0.5420 -0.4650  3.2691
16816SOL    HW259417   7.151   4.483   2.923  0.7803 -1.4239 -1.1494
16817SOL     OW59418   2.849   8.030   6.699  0.1608 -0.4442 -0.5682
16817SOL    HW159419   2.916   8.007   6.764 -1.5607 -1.4137  0.9508
16817SOL    HW259420   2.848   7.956   6.639  1.6825  0.4061 -1.7258
16818SOL     OW59421   8.236  11.288   5.821  0.4733 -0.2056  0.7123
16818SOL    HW159422   8.257  11.347   5.749 -2.1740 -1.2240 -1.0810
16818SOL    HW259423   8.170  11.335   5.872 -0.8823 -1.0983 -0.1323
16819SOL     OW59424   0.636   2.233   8.730  0.7124 -1.1414 -0.3060
16819SOL    HW159425   0.717   2.190   8.703  0.8414 -1.6283  0.8117
16819SOL    HW259426   0.653   2.263   8.820  0.6908  1.4418 -1.0706
16820SOL     OW59427   0.740   7.291   3.235  0.2994  0.5943 -0.3132
16820SOL    HW159428   0.791   7.286   3.154  1.2969  0.9018  0.2781
16820SOL    HW259429   0.794   7.343   3.294 -0.7904  1.0780  0.2856
16821SOL     OW59430  10.018   2.832   3.528 -0.0064 -0.2781  0.3020
16821SOL    HW159431   9.930   2.867   3.543 -0.0439  0.0609 -0.6028
16821SOL    HW259432  10.003   2.744   3.494 -0.0268 -0.0212 -0.3749
16822SOL     OW59433  11.556  11.904   8.836 -0.7103 -0.1401  0.3364
16822SOL    HW159434  11.548  11.841   8.907 -0.3113 -1.6029 -0.8606
16822SOL    HW259435  11.478  11.888   8.782 -0.2833 -0.0580 -0.3127
16823SOL     OW59436  11.112   9.676   0.283 -0.5579 -0.2509 -0.1221
16823SOL    HW159437  11.125   9.684   0.189  0.1663  0.5089  0.0344
16823SOL    HW259438  11.177   9.611   0.311 -1.9437 -1.8327 -0.3805
16824SOL     OW59439   6.038   8.305   9.596  0.1343 -0.1915 -0.1191
16824SOL    HW159440   5.968   8.369   9.580 -0.6906 -0.1398  3.0725
16824SOL    HW259441   6.117   8.346   9.560 -0.7449  1.6810 -0.0142
16825SOL     OW59442   1.263   7.071   1.721  0.5318  0.1641  0.0918
16825SOL    HW159443   1.192   7.123   1.758 -0.2496  0.9796 -2.3555
16825SOL    HW259444   1.271   6.995   1.779 -2.9591 -0.4124  0.0156
16826SOL     OW59445  11.536   8.625   7.460 -1.0395 -0.1473 -0.0082
16826SOL    HW159446  11.591   8.548   7.477 -1.7034 -0.7556 -0.5145
16826SOL    HW259447  11.571   8.662   7.379  0.7091  1.4447  1.3841
16827SOL     OW59448  11.914  10.864   3.835  0.3828 -0.0529 -0.0169
16827SOL    HW159449  11.907  10.848   3.929  0.0113 -1.9156 -0.3195
16827SOL    HW259450  11.834  10.826   3.798 -1.2164  3.6202 -0.8386
16828SOL     OW59451   1.453  10.137   6.865 -1.0955  0.2656 -0.1460
16828SOL    HW159452   1.482  10.129   6.774 -1.2790 -0.0015 -0.1835
16828SOL    HW259453   1.523  10.184   6.909 -1.1950  0.7794 -0.5205
16829SOL     OW59454   2.910   5.002   2.511  0.3992 -0.1693  0.2691
16829SOL    HW159455   2.942   5.007   2.421  1.7864 -2.3199  0.5700
16829SOL    HW259456   2.816   5.019   2.504  0.6891  1.0871 -1.3669
16830SOL     OW59457   5.457   3.032  10.842  0.1444  0.3353  0.0224
16830SOL    HW159458   5.552   3.026  10.846  0.0951 -0.8635 -0.0443
16830SOL    HW259459   5.433   3.095  10.909  1.0086  1.0273 -0.3016
16831SOL     OW59460   3.088   1.772   2.045 -0.2444 -0.2988 -0.3315
16831SOL    HW159461   3.181   1.757   2.064 -0.3426 -0.2018  0.2545
16831SOL    HW259462   3.049   1.793   2.130 -0.8959 -0.8047 -0.4905
16832SOL     OW59463   6.435   3.375   3.449 -0.3638 -0.8294  0.4561
16832SOL    HW159464   6.488   3.373   3.369 -1.1067 -0.9379 -0.0423
16832SOL    HW259465   6.400   3.464   3.453 -2.3455 -1.4807 -0.7144
16833SOL     OW59466   4.660  11.950   6.083  0.2056  0.0597  0.5102
16833SOL    HW159467   4.680  12.027   6.029 -0.6642 -1.1711 -1.7412
16833SOL    HW259468   4.742  11.901   6.086  0.6456  0.8233  1.5857
16834SOL     OW59469  10.235  11.191   1.899  0.2676  0.5849  0.0180
16834SOL    HW159470  10.313  11.212   1.848  0.7781  0.6031  0.7772
16834SOL    HW259471  10.224  11.266   1.958  0.0483  0.2993  0.3462
16835SOL     OW59472   3.869   9.583   4.021  0.2412  0.3420  0.0704
16835SOL    HW159473   3.780   9.582   4.057 -1.1742  1.2012 -3.0688
16835SOL    HW259474   3.911   9.658   4.064 -1.5148  1.6366 -0.3473
16836SOL     OW59475   0.590   0.903   0.618  0.6126 -0.5214 -0.4184
16836SOL    HW159476   0.519   0.871   0.674 -0.5661 -0.0554 -1.5847
16836SOL    HW259477   0.643   0.825   0.599  1.0255 -0.6950  1.2724
16837SOL     OW59478  11.166  10.712   0.197  0.2774  0.7782  0.2136
16837SOL    HW159479  11.238  10.656   0.168 -0.6238 -0.6505  0.6415
16837SOL    HW259480  11.116  10.730   0.118  0.2119  0.4382  0.1761
16838SOL     OW59481   9.505   4.523   2.271  0.3833 -0.3356 -0.0431
16838SOL    HW159482   9.519   4.605   2.320 -0.7612 -0.1818  0.0462
16838SOL    HW259483   9.442   4.546   2.203  1.8146 -0.5897 -1.5373
16839SOL     OW59484   7.244   8.758  11.179  0.2338  0.2686  0.4997
16839SOL    HW159485   7.296   8.679  11.194  1.1442  0.3932 -1.6328
16839SOL    HW259486   7.182   8.733  11.110 -0.8499  0.8593  1.2337
16840SOL     OW59487   2.512   5.944   1.512 -0.3985  0.0531 -0.5089
16840SOL    HW159488   2.602   5.973   1.497 -0.7106  0.6752 -1.2561
16840SOL    HW259489   2.460   6.024   1.507 -1.0479 -0.3652 -0.5428
16841SOL     OW59490   9.344   5.404   3.234  0.2398 -0.2762  0.4322
16841SOL    HW159491   9.439   5.405   3.239  0.2785  0.8055 -0.1050
16841SOL    HW259492   9.316   5.361   3.314  1.2016 -2.5180 -0.3572
16842SOL     OW59493   2.003   2.485   4.719  0.6274 -0.3764 -0.2974
16842SOL    HW159494   2.082   2.500   4.770  0.2802  2.3647 -0.4492
16842SOL    HW259495   1.968   2.572   4.702 -1.8600 -1.4595 -1.1606
16843SOL     OW59496   9.621  11.634  10.722 -0.1650 -0.2628  0.5963
16843SOL    HW159497   9.639  11.706  10.783  0.7603  0.6419 -0.6863
16843SOL    HW259498   9.676  11.562  10.753  0.3611  0.2156  0.7988
16844SOL     OW59499  12.500  10.348   9.920 -0.0694  0.1352  0.1620
16844SOL    HW159500  12.481  10.271   9.867 -0.4223 -0.4558  1.1291
16844SOL    HW259501  12.420  10.400   9.917 -0.5042 -0.4568  1.0345
16845SOL     OW59502  11.212   2.331   6.740  0.0794 -0.1060 -0.3697
16845SOL    HW159503  11.140   2.284   6.782  0.2962  0.0691  0.2038
16845SOL    HW259504  11.169   2.401   6.690 -0.0787  1.4708  1.8151
16846SOL     OW59505   1.063  10.476   4.978 -0.0265  0.3161 -0.2521
16846SOL    HW159506   1.021  10.399   5.015  1.0251 -0.0333  0.2572
16846SOL    HW259507   1.017  10.550   5.017 -0.7506 -0.0471 -0.4024
16847SOL     OW59508   8.328   2.588   3.851 -0.4997 -0.1100  0.2605
16847SOL    HW159509   8.241   2.548   3.854  0.2044 -1.8862 -0.8537
16847SOL    HW259510   8.330   2.636   3.769 -1.2331  2.1075  1.4524
16848SOL     OW59511   2.095   6.854   4.000  0.4974  0.3479  0.0625
16848SOL    HW159512   2.139   6.899   4.072 -0.1269 -0.9962  1.3270
16848SOL    HW259513   2.044   6.785   4.042 -1.0713  0.4524 -1.5458
16849SOL     OW59514   4.979  11.322   0.544  0.6696  0.0484  0.1478
16849SOL    HW159515   4.909  11.387   0.536 -0.4343 -0.8277  2.0491
16849SOL    HW259516   4.936  11.238   0.531  1.3583 -0.4983  1.2234
16850SOL     OW59517   2.710   4.216  12.556  0.1384 -0.1964  0.8027
16850SOL    HW159518   2.618   4.241  12.560 -0.4801 -2.2875  0.4860
16850SOL    HW259519   2.754   4.295  12.525 -1.2326  1.4805  2.8212
16851SOL     OW59520   7.033   8.173  11.334  0.0995 -0.4591 -0.3539
16851SOL    HW159521   7.016   8.253  11.384 -0.1520 -1.7571  1.7341
16851SOL    HW259522   7.125   8.181  11.307  0.4417  0.0069  0.8756
16852SOL     OW59523   8.763   1.718  11.176 -0.0114 -0.2864 -0.6492
16852SOL    HW159524   8.781   1.673  11.093 -0.2363 -0.6793 -0.4876
16852SOL    HW259525   8.785   1.654  11.243 -0.8933 -0.3697 -0.4266
16853SOL     OW59526  11.271   2.710  10.768 -0.8119  0.7375 -0.0865
16853SOL    HW159527  11.246   2.690  10.678 -1.0818 -0.2251  0.1940
16853SOL    HW259528  11.209   2.777  10.796 -1.9382 -0.3059 -0.0114
16854SOL     OW59529  11.142   5.915   3.125 -0.3652 -0.2901 -0.4858
16854SOL    HW159530  11.092   5.989   3.089 -0.5664 -0.2309 -0.0905
16854SOL    HW259531  11.229   5.951   3.141 -0.4805 -0.1210 -0.2346
16855SOL     OW59532   4.321   0.034   9.994 -0.0112 -0.0647  0.1307
16855SOL    HW159533   4.240  -0.016  10.003 -0.3423  0.0958 -1.5672
16855SOL    HW259534   4.293   0.125   9.988  0.4282  0.1445  1.0419
16856SOL     OW59535   9.231  10.204   2.620 -0.0044 -0.1119  0.3558
16856SOL    HW159536   9.260  10.127   2.570  0.2303 -0.6801  1.3430
16856SOL    HW259537   9.222  10.273   2.554  1.1634 -0.5937 -0.3412
16857SOL     OW59538   3.760   8.522   5.966 -0.1241 -0.3670  0.1789
16857SOL    HW159539   3.770   8.552   5.875 -1.2968 -0.8183 -0.1118
16857SOL    HW259540   3.763   8.603   6.018 -0.8226  0.0347 -0.3833
16858SOL     OW59541   4.834   3.279   1.488 -0.5350 -0.6677  0.3472
16858SOL    HW159542   4.855   3.191   1.456 -0.2628  0.3544 -2.6482
16858SOL    HW259543   4.756   3.304   1.438  0.1513  1.2455  0.1480
16859SOL     OW59544   6.694   0.260   0.822  0.1613 -0.3563  0.0050
16859SOL    HW159545   6.651   0.324   0.766  1.7818  0.0478 -0.8575
16859SOL    HW259546   6.716   0.187   0.764 -1.3922 -1.5981  0.9164
16860SOL     OW59547  10.594   2.303   0.631 -0.1202 -0.0564 -0.1776
16860SOL    HW159548  10.522   2.306   0.694  0.7937  0.1683  0.8899
16860SOL    HW259549  10.647   2.379   0.652  1.5277 -1.3089  0.4469
16861SOL     OW59550   3.180   8.787  11.239 -0.2577 -0.2987  0.3884
16861SOL    HW159551   3.170   8.864  11.295 -0.8184  0.6686 -0.9926
16861SOL    HW259552   3.273   8.785  11.217 -0.1969 -0.1721  0.6289
16862SOL     OW59553   2.175  10.434   3.039 -0.3223  0.8185  0.1465
16862SOL    HW159554   2.142  10.400   3.122  0.6540 -1.5281 -0.3461
16862SOL    HW259555   2.121  10.391   2.973 -0.7952  2.3228 -0.4920
16863SOL     OW59556   9.669  11.782   1.328 -0.3281  0.5278 -0.8216
16863SOL    HW159557   9.596  11.720   1.335  1.2240 -1.3727 -0.5531
16863SOL    HW259558   9.696  11.777   1.236  0.9318 -0.6003 -0.4162
16864SOL     OW59559   6.290   6.462   7.707 -0.1249 -0.2930 -0.1052
16864SOL    HW159560   6.198   6.474   7.683  0.2162  0.4107 -1.0828
16864SOL    HW259561   6.335   6.536   7.668  0.9689 -0.9956 -0.2021
16865SOL     OW59562  11.049   3.213   3.284 -0.4270 -0.1284 -0.3116
16865SOL    HW159563  11.122   3.269   3.257 -1.4897  1.2014 -0.4833
16865SOL    HW259564  10.994   3.207   3.206 -0.2459 -1.6000 -0.3592
16866SOL     OW59565  11.749   7.798   8.572 -0.2032  0.1146  0.1239
16866SOL    HW159566  11.655   7.801   8.559 -0.1189 -1.3383 -0.9737
16866SOL    HW259567  11.766   7.866   8.638 -1.8293  1.2834 -0.5954
16867SOL     OW59568   7.330   9.881   5.835  0.0893 -0.4052 -0.6527
16867SOL    HW159569   7.274   9.811   5.802 -0.2147 -0.9532  0.9179
16867SOL    HW259570   7.399   9.836   5.883 -1.2439  0.3050  2.1555
16868SOL     OW59571   0.617   7.717   0.596  0.1854  0.3551  0.4753
16868SOL    HW159572   0.615   7.667   0.515  0.3327 -0.3090  0.8712
16868SOL    HW259573   0.533   7.699   0.638  0.0115  0.8886  0.3562
16869SOL     OW59574   9.567   5.953   7.765 -0.0614  0.0308 -0.1538
16869SOL    HW159575   9.553   5.880   7.705  1.4523  0.0871 -0.6118
16869SOL    HW259576   9.588   6.027   7.708 -0.7502  0.6327  0.3491
16870SOL     OW59577   2.157   2.001   7.929 -0.0462 -0.2136  0.0716
16870SOL    HW159578   2.135   1.940   7.859 -0.7845 -0.6511  0.6566
16870SOL    HW259579   2.096   2.074   7.917  1.0750  0.5984 -0.8406
16871SOL     OW59580   7.437   8.904   9.219  0.5784  0.5031 -0.4526
16871SOL    HW159581   7.499   8.977   9.228 -0.7823  1.5340  1.1002
16871SOL    HW259582   7.493   8.826   9.220  1.9678  1.4455 -0.7532
16872SOL     OW59583   2.919   0.801   5.883  0.7779 -0.2893 -0.2199
16872SOL    HW159584   2.869   0.823   5.962  2.1941  0.2318  0.5570
16872SOL    HW259585   3.008   0.828   5.903  1.3604 -1.0979 -1.6272
16873SOL     OW59586   5.183   7.446   3.514  0.3628 -0.2544  0.3047
16873SOL    HW159587   5.146   7.525   3.475 -1.2920 -1.3623 -0.4468
16873SOL    HW259588   5.157   7.375   3.456  1.1980 -1.4673  1.3527
16874SOL     OW59589  11.930   8.686  11.691  0.0735 -0.3682 -0.1014
16874SOL    HW159590  11.846   8.721  11.722  0.6810  2.1488 -1.0744
16874SOL    HW259591  11.964   8.753  11.632  1.2047 -2.8427 -2.4890
16875SOL     OW59592  12.073  10.494   8.918  0.4131 -0.4447 -0.1822
16875SOL    HW159593  12.088  10.400   8.904  0.3524 -0.5453  0.4050
16875SOL    HW259594  12.155  10.527   8.953  0.7542 -0.0797 -1.2726
16876SOL     OW59595   0.118   8.549   0.256  0.1750 -0.4710 -0.1303
16876SOL    HW159596   0.129   8.540   0.161 -0.7520 -1.3781 -0.1601
16876SOL    HW259597   0.040   8.603   0.266  0.8502  0.4940  0.1338
16877SOL     OW59598   1.690  10.195   9.959 -0.3669 -0.0148 -0.3833
16877SOL    HW159599   1.725  10.278   9.926 -0.5390  0.3303  0.2834
16877SOL    HW259600   1.595  10.206   9.953 -0.3891 -0.2025 -0.3813
16878SOL     OW59601   5.236   8.361  11.407  0.6298  0.2144 -0.3187
16878SOL    HW159602   5.208   8.311  11.330 -0.7433 -0.7759  0.7749
16878SOL    HW259603   5.248   8.295  11.475 -2.4083  1.3503  1.5301
16879SOL     OW59604   6.210   7.342   6.091  0.3285  0.2719 -0.4478
16879SOL    HW159605   6.227   7.321   5.999  1.1247  0.1536 -0.2841
16879SOL    HW259606   6.283   7.398   6.117  0.4141 -0.1579  0.2685
16880SOL     OW59607   0.141   7.377  12.293 -0.1422  0.0467 -0.3097
16880SOL    HW159608   0.174   7.425  12.217 -1.9209  0.2488 -1.0132
16880SOL    HW259609   0.046   7.381  12.284 -0.6244  2.6924  3.5296
16881SOL     OW59610  11.312   1.157   8.855 -0.6524 -0.5143 -0.0151
16881SOL    HW159611  11.338   1.131   8.943  2.9891 -0.1413 -0.8011
16881SOL    HW259612  11.316   1.076   8.804  1.9565 -0.0556 -0.6839
16882SOL     OW59613   8.286   8.954  10.237 -0.0364  0.3856 -0.3410
16882SOL    HW159614   8.256   8.883  10.294  1.1830  0.0291 -0.1121
16882SOL    HW259615   8.373   8.976  10.270 -0.1794  1.6343 -0.7534
16883SOL     OW59616   6.063  10.284  12.213 -0.7178 -0.6666  0.6462
16883SOL    HW159617   6.057  10.359  12.154  0.0852  1.1288  2.7011
16883SOL    HW259618   6.131  10.229  12.174 -0.9090 -0.0663 -0.5975
16884SOL     OW59619   0.076  12.023   7.914  0.3949  0.1147  0.3630
16884SOL    HW159620   0.164  11.995   7.940  0.2998  0.4001  1.0067
16884SOL    HW259621   0.088  12.059   7.826  1.2318  1.6482  1.0695
16885SOL     OW59622   4.417   0.539   7.644 -0.0681  0.1195  0.0208
16885SOL    HW159623   4.382   0.544   7.733  0.5400  1.4427  0.2100
16885SOL    HW259624   4.457   0.452   7.639  0.4938  0.2799  1.2807
16886SOL     OW59625   7.659  10.555   0.951  0.1363  0.4353  0.0695
16886SOL    HW159626   7.586  10.494   0.959 -0.1150  0.4370 -1.6603
16886SOL    HW259627   7.618  10.641   0.957  0.2953  0.4395  1.1422
16887SOL     OW59628  11.607   3.702   0.490  0.2343 -0.7831  0.4917
16887SOL    HW159629  11.573   3.768   0.551 -1.1491 -2.4158  1.5723
16887SOL    HW259630  11.653   3.639   0.545  3.5141  0.3047 -0.7428
16888SOL     OW59631   2.736   8.248   4.669 -0.1476 -0.2032 -0.6786
16888SOL    HW159632   2.751   8.171   4.615  1.1852 -0.8381  0.5263
16888SOL    HW259633   2.677   8.217   4.739  0.7090 -0.2628  0.0363
16889SOL     OW59634   2.884   7.358   0.116  0.4406 -0.2786  0.3398
16889SOL    HW159635   2.840   7.438   0.145  0.3793 -0.3726  0.5071
16889SOL    HW259636   2.921   7.381   0.031 -0.0289 -0.2364  0.1481
16890SOL     OW59637   4.631  11.863   6.743 -0.1455  0.1337 -0.2512
16890SOL    HW159638   4.666  11.852   6.655 -3.4266  0.4711 -1.7481
16890SOL    HW259639   4.669  11.945   6.774  3.8202 -1.6528  0.2524
16891SOL     OW59640   7.979   8.687   3.263 -0.3590  0.1541 -0.0676
16891SOL    HW159641   8.027   8.618   3.218 -1.3358  0.1413 -1.1627
16891SOL    HW259642   8.046   8.742   3.302  0.5617  0.0915 -1.4768
16892SOL     OW59643   8.147   8.224  11.552 -0.4321 -0.4838 -0.2614
16892SOL    HW159644   8.196   8.306  11.558 -1.3426  0.3174 -2.5076
16892SOL    HW259645   8.208   8.162  11.513 -0.2532 -0.4132 -0.0982
16893SOL     OW59646   7.300   5.994   8.543  0.3129  0.0728  0.2776
16893SOL    HW159647   7.388   5.958   8.545  0.1452 -0.5043 -1.1851
16893SOL    HW259648   7.307   6.079   8.586  1.0345 -1.0446  2.4854
16894SOL     OW59649  12.006   2.764   2.660 -0.0687  0.0952 -0.5724
16894SOL    HW159650  11.930   2.745   2.605 -2.5408  0.1172  2.5679
16894SOL    HW259651  12.019   2.685   2.712  0.7206  0.8587  0.4295
16895SOL     OW59652   2.237   2.622   5.833  0.1143  0.4765 -0.2085
16895SOL    HW159653   2.190   2.581   5.760  0.1852 -0.3486  0.1947
16895SOL    HW259654   2.187   2.597   5.911  0.6405  0.4422  0.1259
16896SOL     OW59655  10.093   4.315  10.834 -0.7784  1.1121 -0.1309
16896SOL    HW159656  10.014   4.368  10.824 -0.9717  1.0907  1.1142
16896SOL    HW259657  10.062   4.225  10.825 -1.0964  1.0487  1.2810
16897SOL     OW59658   9.132   1.011   7.951  0.1860  0.2272 -0.0510
16897SOL    HW159659   9.057   0.953   7.936 -0.7253  0.9390  1.5186
16897SOL    HW259660   9.157   0.994   8.042  2.3242 -0.3947 -0.7039
16898SOL     OW59661   8.663  12.071   7.219  0.7827 -0.1433  0.1681
16898SOL    HW159662   8.591  12.102   7.163 -0.9747  1.7086  3.1644
16898SOL    HW259663   8.732  12.136   7.207 -0.3851  1.4451  1.5353
16899SOL     OW59664   0.603  12.372   4.680  0.0267 -0.5857 -0.2037
16899SOL    HW159665   0.691  12.407   4.677 -0.4324  0.5129 -1.8940
16899SOL    HW259666   0.575  12.384   4.771 -0.0960  3.5335 -0.6160
16900SOL     OW59667   4.120   2.797   1.716 -0.1634  0.1109  0.1791
16900SOL    HW159668   4.096   2.705   1.725 -1.2351  0.3346 -0.2793
16900SOL    HW259669   4.120   2.831   1.805 -0.6735 -0.1133  0.2649
16901SOL     OW59670   6.019  11.004   0.316  0.0711  0.7992 -0.2271
16901SOL    HW159671   5.989  11.008   0.407 -1.6635 -1.4136 -0.6379
16901SOL    HW259672   5.963  11.067   0.270  0.2738  1.1942  0.0639
16902SOL     OW59673   8.738   8.294   6.674 -0.5699  0.0647 -0.4276
16902SOL    HW159674   8.699   8.341   6.600  0.4690  0.8097 -0.5281
16902SOL    HW259675   8.698   8.207   6.671 -0.7417  0.1658 -1.7157
16903SOL     OW59676   3.033   7.123   7.956  0.5058 -0.5090  0.0450
16903SOL    HW159677   3.109   7.085   8.000  0.7586 -0.8152 -0.6328
16903SOL    HW259678   2.978   7.048   7.934  0.3315 -0.3515 -0.0588
16904SOL     OW59679   0.337   8.077   3.949 -1.0829 -0.1862 -0.0948
16904SOL    HW159680   0.254   8.119   3.971 -0.7914 -0.3693  1.4245
16904SOL    HW259681   0.396   8.150   3.932 -0.9671  0.0147  1.0919
16905SOL     OW59682   1.267   7.549   7.071  0.1253 -0.2836 -0.1411
16905SOL    HW159683   1.253   7.498   6.991 -2.7897 -1.9194  1.2377
16905SOL    HW259684   1.215   7.503   7.137  1.6880  1.5217  2.4979
16906SOL     OW59685   4.480   0.807   5.971 -0.5003  0.5084  0.0344
16906SOL    HW159686   4.408   0.863   6.002 -0.5691  0.4983 -0.1092
16906SOL    HW259687   4.540   0.868   5.927  0.8065  0.9584  2.2192
16907SOL     OW59688  11.110   3.455   5.014 -0.3557 -0.4637 -0.1210
16907SOL    HW159689  11.175   3.439   5.082 -0.1473  0.8321  0.0072
16907SOL    HW259690  11.028   3.466   5.062 -0.1599  0.7426 -0.0227
16908SOL     OW59691   5.528   6.799   4.462  0.2548 -0.4081 -0.1419
16908SOL    HW159692   5.609   6.802   4.511  0.6581 -0.4352 -0.7921
16908SOL    HW259693   5.502   6.707   4.462  0.3164 -0.4248 -0.0799
16909SOL     OW59694   8.232   3.351   1.341  0.2678  0.3200 -0.6627
16909SOL    HW159695   8.179   3.288   1.291  0.7461 -0.5528 -0.0922
16909SOL    HW259696   8.279   3.401   1.275 -2.0260  1.8421 -1.2518
16910SOL     OW59697   9.167   9.547   1.074 -0.0578 -0.6000 -0.0599
16910SOL    HW159698   9.259   9.538   1.096 -0.8716 -1.7810  3.7520
16910SOL    HW259699   9.136   9.457   1.064 -0.9994 -0.2798 -0.1308
16911SOL     OW59700   6.265  12.560  10.075 -0.2674 -0.0806  0.1931
16911SOL    HW159701   6.254  12.516   9.990 -0.0202  1.9736 -0.9780
16911SOL    HW259702   6.304  12.645  10.053 -0.4001  0.6052  2.3680
16912SOL     OW59703  12.503   1.429   0.862 -0.0801  0.1845  0.2229
16912SOL    HW159704  12.426   1.467   0.819  1.8197  2.5593 -1.3410
16912SOL    HW259705  12.531   1.359   0.803 -1.5889 -1.4563  1.3585
16913SOL     OW59706   0.558   8.900   9.761  0.4306 -0.5867  0.2818
16913SOL    HW159707   0.502   8.973   9.787  0.4012 -0.2929 -0.5597
16913SOL    HW259708   0.521   8.870   9.678  0.3677 -1.6486  0.6715
16914SOL     OW59709   6.338   9.151  10.533  0.1081 -0.4223  0.0392
16914SOL    HW159710   6.320   9.059  10.552  0.7605 -0.3702  0.9844
16914SOL    HW259711   6.402   9.149  10.462 -0.2733 -0.6898 -0.2954
16915SOL     OW59712   0.578  11.313   7.470  1.1329 -0.2453  0.3536
16915SOL    HW159713   0.610  11.365   7.396  0.9213 -0.0131  0.4236
16915SOL    HW259714   0.606  11.363   7.547  0.2877  0.1544  0.4147
16916SOL     OW59715   0.693   3.114   4.492  0.0381 -0.4159  0.8191
16916SOL    HW159716   0.668   3.071   4.574  2.3244  0.7099  2.2110
16916SOL    HW259717   0.777   3.074   4.469  0.2707  0.5086  0.0047
16917SOL     OW59718   1.609   0.821  10.598 -0.1308 -0.7968  0.1177
16917SOL    HW159719   1.556   0.760  10.648  0.5472 -1.3911  0.1283
16917SOL    HW259720   1.694   0.777  10.588  0.7061  0.5304  0.9769
16918SOL     OW59721   2.075   6.715   7.680 -0.7437 -0.1584  0.2824
16918SOL    HW159722   2.096   6.798   7.723 -1.7580 -0.2877  1.0791
16918SOL    HW259723   2.017   6.739   7.608 -0.0587 -0.0668 -0.2473
16919SOL     OW59724  10.565   3.705  10.150  0.3452  0.0214 -0.2505
16919SOL    HW159725  10.595   3.739  10.066  0.2994 -1.1979 -0.7894
16919SOL    HW259726  10.470   3.700  10.142  0.2365  0.9919  0.3168
16920SOL     OW59727   1.508   1.981   9.085  0.5571 -0.6591 -0.3066
16920SOL    HW159728   1.454   1.992   9.006 -0.5705  0.0754  0.5429
16920SOL    HW259729   1.501   2.065   9.131  2.2251 -0.6321 -0.0208
16921SOL     OW59730   3.600   9.382   0.376  0.0639 -0.1337  0.1881
16921SOL    HW159731   3.542   9.399   0.451  0.2594  0.5032  0.2090
16921SOL    HW259732   3.611   9.468   0.336 -1.2078 -0.6939 -1.4558
16922SOL     OW59733  11.422   6.819   7.887 -0.5519  0.3535 -0.5961
16922SOL    HW159734  11.480   6.887   7.855 -0.1958  1.2983  1.8139
16922SOL    HW259735  11.356   6.866   7.938 -0.5027 -1.0390  0.8399
16923SOL     OW59736   3.624   8.547   4.446 -0.0950  0.5844  0.8957
16923SOL    HW159737   3.676   8.479   4.404 -0.0128 -0.7125  2.9758
16923SOL    HW259738   3.534   8.514   4.442 -0.3377  1.2969  0.1959
16924SOL     OW59739   6.715   2.975   6.012  0.2840 -0.0612 -0.0044
16924SOL    HW159740   6.707   2.992   5.918  0.3370  0.3275  0.0619
16924SOL    HW259741   6.626   2.950   6.039  0.5655 -1.6941 -0.4502
16925SOL     OW59742   1.677   6.287   2.879 -0.3396 -0.0524  0.1231
16925SOL    HW159743   1.597   6.313   2.832  0.0322  0.5452 -0.1965
16925SOL    HW259744   1.646   6.260   2.965 -1.3195 -3.4279 -1.1416
16926SOL     OW59745   0.843   3.364  11.191 -0.1320 -0.0430  0.1207
16926SOL    HW159746   0.812   3.274  11.185  1.2441 -0.6315  1.2022
16926SOL    HW259747   0.817   3.393  11.279  0.5867  0.1172  0.2959
16927SOL     OW59748   3.108   1.654   7.750 -0.2096 -0.2210 -0.3259
16927SOL    HW159749   3.141   1.741   7.770 -1.1257  0.7342 -2.5965
16927SOL    HW259750   3.081   1.659   7.658  0.6447 -3.2045 -0.8391
16928SOL     OW59751   2.060   7.947   2.633  0.4796  0.2687  0.4330
16928SOL    HW159752   2.033   7.871   2.684  0.4353 -0.9311 -1.3057
16928SOL    HW259753   1.994   8.014   2.653 -0.6552 -0.8245  0.4520
16929SOL     OW59754   1.977   0.036  11.308 -0.0138 -0.1099  0.1166
16929SOL    HW159755   2.062   0.051  11.267  0.2994 -0.0457  0.7745
16929SOL    HW259756   1.926  -0.011  11.242  0.0304  1.1237 -0.8338
16930SOL     OW59757   9.776  10.857   5.047  0.0636  0.6462 -0.2480
16930SOL    HW159758   9.743  10.934   5.000 -0.0843  0.2802 -0.7485
16930SOL    HW259759   9.860  10.838   5.005  0.2881  0.7745  0.1411
16931SOL     OW59760   3.380  11.773   0.476 -0.0327 -0.2941  0.1578
16931SOL    HW159761   3.462  11.727   0.456 -0.0960 -0.2628 -0.1763
16931SOL    HW259762   3.323  11.706   0.514  0.5940 -0.0439  1.6290
16932SOL     OW59763   7.509  12.417   6.363  0.1105 -0.2212 -0.2244
16932SOL    HW159764   7.591  12.429   6.315 -0.0176  1.0109 -0.1688
16932SOL    HW259765   7.518  12.474   6.440 -0.8345  0.0116 -0.2766
16933SOL     OW59766   2.864   7.956   3.262 -0.0283 -0.0019 -0.4298
16933SOL    HW159767   2.851   8.044   3.225 -1.1107  0.2773  0.5564
16933SOL    HW259768   2.777   7.928   3.289  0.4292 -1.0508  0.0207
16934SOL     OW59769   3.824   9.829   3.010 -0.0743 -0.2717 -0.1542
16934SOL    HW159770   3.838   9.752   2.955 -0.6565  0.4268 -1.3387
16934SOL    HW259771   3.852   9.803   3.097  1.3127 -1.2906 -0.8713
16935SOL     OW59772   2.427   8.924   7.910  0.0908 -0.2350 -0.0139
16935SOL    HW159773   2.520   8.946   7.906  0.0293 -0.0500 -0.4334
16935SOL    HW259774   2.416   8.884   7.997  0.6891 -0.8896 -0.2318
16936SOL     OW59775   5.123   4.302  12.145 -0.0231  0.3190 -0.0042
16936SOL    HW159776   5.193   4.286  12.081 -1.4420  0.0720 -1.5552
16936SOL    HW259777   5.148   4.249  12.221  1.9967  1.0648 -0.0956
16937SOL     OW59778   8.597   3.570   5.854 -0.3581 -0.8526 -0.8479
16937SOL    HW159779   8.671   3.574   5.915 -0.5638  1.1745 -0.6751
16937SOL    HW259780   8.522   3.600   5.905 -0.7190 -0.0462 -1.8231
16938SOL     OW59781   3.988  11.031   7.089 -0.3489  0.5126 -0.8778
16938SOL    HW159782   3.905  10.983   7.083 -0.6565  0.7631  0.7698
16938SOL    HW259783   3.962  11.122   7.103  0.2200  0.8139 -1.7314
16939SOL     OW59784   4.113  12.059   6.937  0.7884  0.1416  0.0854
16939SOL    HW159785   4.040  12.051   6.999 -0.5140  0.8839 -1.2971
16939SOL    HW259786   4.108  12.150   6.906  0.2047 -0.6772 -2.4775
16940SOL     OW59787   9.554  10.310  11.305  0.5956 -0.2112 -0.4408
16940SOL    HW159788   9.611  10.377  11.268 -0.8582  0.9961 -0.5912
16940SOL    HW259789   9.487  10.296  11.238 -0.2100 -0.3943  0.3822
16941SOL     OW59790   1.162   3.177  11.207  0.0164  0.0978  0.3579
16941SOL    HW159791   1.237   3.136  11.248 -0.6043 -1.5895 -0.1301
16941SOL    HW259792   1.108   3.104  11.177 -1.3386  1.2742 -0.1644
16942SOL     OW59793   3.517   2.151  11.340 -0.4482  0.7657 -0.1192
16942SOL    HW159794   3.423   2.163  11.355 -0.7712  0.2834 -1.5603
16942SOL    HW259795   3.522   2.105  11.256  1.0845  0.7301 -0.0398
16943SOL     OW59796   9.941   9.022   1.849 -0.0401  0.1339 -0.1193
16943SOL    HW159797   9.977   9.038   1.936 -0.8735 -1.4200  0.5496
16943SOL    HW259798  10.018   9.015   1.792  0.4693  2.6311  0.1655
16944SOL     OW59799  10.203   2.599   4.632 -0.1067  0.4450  0.6049
16944SOL    HW159800  10.227   2.626   4.721 -1.9829 -0.5532  1.4712
16944SOL    HW259801  10.279   2.548   4.602  0.7888  1.2614  1.3834
16945SOL     OW59802   2.814   7.728   7.533  0.3694  0.4630  0.1310
16945SOL    HW159803   2.722   7.732   7.507 -0.0606  1.7351  1.6688
16945SOL    HW259804   2.854   7.666   7.473 -1.2171  0.8760 -1.4091
16946SOL     OW59805   4.375   1.798   1.740 -0.5894  0.6569 -0.1758
16946SOL    HW159806   4.317   1.724   1.720 -0.3723  0.7455 -1.1624
16946SOL    HW259807   4.331   1.874   1.702 -1.4082  1.2666  1.8566
16947SOL     OW59808   5.938   5.091   3.294  0.3341 -0.1123  0.0478
16947SOL    HW159809   5.878   5.019   3.271 -0.0879  0.2095  0.1274
16947SOL    HW259810   6.021   5.047   3.314 -0.5931 -0.8839  2.7442
16948SOL     OW59811   9.572   9.042  11.302 -0.2787 -0.4734 -0.0165
16948SOL    HW159812   9.505   9.073  11.241 -1.4047  0.1987  1.4786
16948SOL    HW259813   9.635   8.994  11.248 -0.1036  1.8205 -2.0057
16949SOL     OW59814   3.531  11.192   4.400 -0.1357  0.3552 -0.0498
16949SOL    HW159815   3.513  11.174   4.492  1.4633 -1.1200  0.0183
16949SOL    HW259816   3.567  11.281   4.399  1.7854 -0.3489  1.0674
16950SOL     OW59817   7.949   6.261   8.701 -0.0124 -0.0481 -0.8016
16950SOL    HW159818   7.892   6.238   8.775  0.9311 -0.7002 -0.2486
16950SOL    HW259819   7.967   6.177   8.658  2.0707 -0.1992  0.2033
16951SOL     OW59820   9.786   8.971   1.432  0.3777 -0.2944  0.3071
16951SOL    HW159821   9.860   9.011   1.386 -0.7576  2.9033  1.0165
16951SOL    HW259822   9.713   8.979   1.371 -0.2911  0.4285  1.1976
16952SOL     OW59823   9.259   6.741  10.638  0.3033  0.0278 -0.0699
16952SOL    HW159824   9.205   6.687  10.580 -0.4631  1.0371 -0.3346
16952SOL    HW259825   9.197   6.781  10.698  0.6191  1.8555 -0.8935
16953SOL     OW59826   9.163  11.028  11.076 -0.2098 -0.9288 -0.4388
16953SOL    HW159827   9.137  11.066  10.992 -0.1858 -0.8430 -0.4068
16953SOL    HW259828   9.095  10.963  11.094 -1.3864  0.4987  0.4886
16954SOL     OW59829   2.379  10.077   2.086  0.6132  0.2093 -0.4319
16954SOL    HW159830   2.324  10.088   2.008  1.1101  0.4440 -0.7575
16954SOL    HW259831   2.353   9.992   2.122  2.3752 -1.3605 -2.5306
16955SOL     OW59832   3.937   6.820   0.064 -0.6969 -0.1719  0.6902
16955SOL    HW159833   4.003   6.773   0.014  0.2890  0.0641  1.7369
16955SOL    HW259834   3.937   6.778   0.150 -0.9441  0.7119  1.1330
16956SOL     OW59835   9.333   8.373   5.278 -0.5520 -0.5290  0.1801
16956SOL    HW159836   9.338   8.283   5.245 -0.7413 -0.2799 -0.5686
16956SOL    HW259837   9.361   8.367   5.369  1.2087 -1.0555 -0.3634
16957SOL     OW59838   4.052  10.433   0.352  0.1237  0.8476 -0.8433
16957SOL    HW159839   3.963  10.435   0.317 -1.1000 -0.2534  1.9262
16957SOL    HW259840   4.054  10.503   0.418  0.8551  0.0290  0.0328
16958SOL     OW59841   1.849   8.347   7.825  0.3442  0.1060 -0.1427
16958SOL    HW159842   1.815   8.427   7.865 -0.6122  0.2353 -1.1861
16958SOL    HW259843   1.776   8.285   7.829  0.2573  0.0927 -1.5835
16959SOL     OW59844  10.026   3.903   8.452  0.1083 -0.0809  0.9867
16959SOL    HW159845   9.956   3.920   8.390  1.2505  0.2433 -0.2545
16959SOL    HW259846  10.004   3.958   8.528 -0.5756  0.6010  0.3179
16960SOL     OW59847   1.995   1.437   0.944  0.3558  0.2829  0.0585
16960SOL    HW159848   1.952   1.513   0.985  1.4925  1.0290 -0.1016
16960SOL    HW259849   1.994   1.370   1.011  0.9369  1.0340  0.8323
16961SOL     OW59850   7.690   0.852   8.993  0.3820 -0.0453 -0.1394
16961SOL    HW159851   7.635   0.776   8.972  2.9575 -2.7153  2.0172
16961SOL    HW259852   7.660   0.880   9.079 -0.7390  1.7234 -1.0325
16962SOL     OW59853   4.463   3.023  10.500 -0.1304 -0.2133  1.0645
16962SOL    HW159854   4.428   3.111  10.500 -0.0223 -0.1645  0.3145
16962SOL    HW259855   4.500   3.012  10.587  1.1407  1.0132  0.7203
16963SOL     OW59856   1.127   1.997   1.399 -0.0133  0.4121 -0.0874
16963SOL    HW159857   1.198   2.031   1.344  0.7077 -1.7203 -0.5712
16963SOL    HW259858   1.051   1.993   1.340  0.3718 -0.4677 -0.5473
16964SOL     OW59859   6.449   3.269  10.433 -0.0218 -0.1143  0.4509
16964SOL    HW159860   6.426   3.238  10.346 -1.0413  0.9629  0.3143
16964SOL    HW259861   6.488   3.355  10.418  0.0161 -0.0280  1.0360
16965SOL     OW59862  11.173   9.656   3.720  0.1791 -0.0269 -0.0899
16965SOL    HW159863  11.190   9.602   3.798 -0.7256 -0.4028 -0.1394
16965SOL    HW259864  11.216   9.609   3.649 -0.5606 -0.6833 -0.1241
16966SOL     OW59865   0.820   5.427  11.588  0.6150  0.3159 -0.0069
16966SOL    HW159866   0.762   5.398  11.658 -0.9677 -1.1170 -1.7814
16966SOL    HW259867   0.775   5.500  11.547  1.7945  1.5118  0.7684
16967SOL     OW59868   6.070   1.238   1.604 -0.2295 -0.3548  0.4461
16967SOL    HW159869   6.138   1.289   1.647  0.5262 -1.5835  0.7329
16967SOL    HW259870   6.116   1.164   1.564 -1.1239 -0.1519 -1.0755
16968SOL     OW59871  11.940   5.032  11.675  0.8648  0.0405 -0.0187
16968SOL    HW159872  11.862   4.982  11.697  0.8690 -0.8583 -1.8924
16968SOL    HW259873  11.997   4.969  11.631  2.0224  1.0439  0.0065
16969SOL     OW59874   4.801   7.679   2.720 -0.1000 -0.2827 -0.0292
16969SOL    HW159875   4.724   7.717   2.762  0.1795 -0.4632  0.6661
16969SOL    HW259876   4.855   7.647   2.793 -0.0474 -1.4701 -0.5634
16970SOL     OW59877   4.080  11.472   6.894 -0.2035  0.0523  0.0873
16970SOL    HW159878   4.133  11.392   6.898  0.1067  0.2168 -0.6494
16970SOL    HW259879   4.105  11.521   6.973 -0.1332 -0.4062  0.3557
16971SOL     OW59880   4.210  10.192   0.266 -0.7958  0.2162  0.0136
16971SOL    HW159881   4.290  10.232   0.298 -0.6108  0.5418 -0.8124
16971SOL    HW259882   4.140  10.248   0.300 -0.8211 -1.0061  2.1296
16972SOL     OW59883   0.936   3.737   2.458  0.2043 -0.6846 -0.1564
16972SOL    HW159884   1.014   3.790   2.441 -0.2634 -0.4182 -1.6491
16972SOL    HW259885   0.864   3.800   2.460 -0.0260 -0.9582  0.9579
16973SOL     OW59886   7.855   2.280   2.967  0.2885 -0.2405 -0.6403
16973SOL    HW159887   7.826   2.228   3.042 -0.9168  0.3295 -0.6828
16973SOL    HW259888   7.782   2.339   2.949  1.4088  1.1067 -0.9220
16974SOL     OW59889   8.697   4.924  10.796  0.2894  0.1133 -0.6452
16974SOL    HW159890   8.757   4.940  10.723  0.1927  0.3994 -0.6614
16974SOL    HW259891   8.689   5.008  10.840  0.6243 -0.1395 -0.0920
16975SOL     OW59892   6.888   2.138   8.047 -0.5143  0.1913  0.2501
16975SOL    HW159893   6.813   2.136   8.107 -0.2693 -0.0386  0.5542
16975SOL    HW259894   6.890   2.051   8.007  0.5422 -0.3653  1.4458
16976SOL     OW59895   2.558  10.244   5.074  0.6982 -0.0443  0.6039
16976SOL    HW159896   2.567  10.168   5.016 -0.4548 -1.1119  1.7373
16976SOL    HW259897   2.647  10.261   5.105  0.9737 -1.0184  0.3921
16977SOL     OW59898   2.162  10.333   2.657  0.1236  0.0731 -0.0048
16977SOL    HW159899   2.181  10.424   2.678 -2.1897  0.6387 -0.0760
16977SOL    HW259900   2.206  10.283   2.726 -1.0379  1.4554  1.8355
16978SOL     OW59901   1.332   4.562   2.924  0.2196  0.5733 -0.1120
16978SOL    HW159902   1.287   4.642   2.954 -0.3022  1.2768 -2.5214
16978SOL    HW259903   1.423   4.574   2.950 -0.1309  1.2910  0.8252
16979SOL     OW59904   1.038   8.820   2.980  0.4708  0.3761  0.4721
16979SOL    HW159905   1.096   8.819   2.903 -0.0232 -0.3709  0.1000
16979SOL    HW259906   1.093   8.855   3.050  0.8427  1.3684 -0.2824
16980SOL     OW59907   4.530   6.371   2.063 -0.4509  0.1041 -0.2360
16980SOL    HW159908   4.588   6.400   1.992  1.5043 -1.9988  0.3997
16980SOL    HW259909   4.443   6.368   2.023  0.7084 -1.8775 -2.8782
16981SOL     OW59910   8.940   8.726   8.381  0.0429 -0.0962  0.4097
16981SOL    HW159911   8.868   8.677   8.422 -0.9056 -0.6096 -1.7027
16981SOL    HW259912   8.951   8.684   8.295  1.3455  1.4198 -0.2134
16982SOL     OW59913  10.810  10.749   7.560 -0.3379 -0.1704  0.2246
16982SOL    HW159914  10.797  10.719   7.650 -2.5496  0.9282  0.3428
16982SOL    HW259915  10.847  10.674   7.514  1.0168 -0.6788  2.0753
16983SOL     OW59916   2.731   6.293   8.781 -0.5834 -0.2318  0.5165
16983SOL    HW159917   2.786   6.235   8.834 -0.5028 -0.7565 -0.1242
16983SOL    HW259918   2.669   6.235   8.738 -1.8706  0.3862  1.4676
16984SOL     OW59919   4.967   5.193   7.230 -0.1025 -0.6332 -0.1931
16984SOL    HW159920   5.030   5.261   7.255  0.1770 -0.7279 -0.6171
16984SOL    HW259921   4.926   5.167   7.312  0.4477 -0.5974  0.1014
16985SOL     OW59922   2.449   1.010   5.541 -0.7715 -0.7128 -0.3778
16985SOL    HW159923   2.436   0.978   5.631  0.3827 -1.8562 -0.5979
16985SOL    HW259924   2.460   0.931   5.489  4.0099 -0.1264 -0.6638
16986SOL     OW59925   3.898   5.285   4.684 -0.2711 -0.0369  0.5189
16986SOL    HW159926   3.853   5.200   4.688  0.4745 -0.5552 -1.2546
16986SOL    HW259927   3.870   5.323   4.601  1.0255  0.5258  0.3292
16987SOL     OW59928   6.725   6.816  10.805  0.5125  0.0083  0.5705
16987SOL    HW159929   6.818   6.809  10.781  0.8721  0.2218  1.8238
16987SOL    HW259930   6.683   6.848  10.725  1.4722 -0.3424 -0.1011
16988SOL     OW59931   1.834   5.155   3.642  0.4129  0.7315 -0.5926
16988SOL    HW159932   1.839   5.138   3.736  0.0184  0.0917 -0.6782
16988SOL    HW259933   1.849   5.069   3.602 -0.5425  0.7798 -1.0824
16989SOL     OW59934  10.907   1.358   5.755 -0.1122 -0.3243 -0.0042
16989SOL    HW159935  10.852   1.327   5.684  0.4124 -0.2051 -0.4703
16989SOL    HW259936  10.987   1.305   5.748  0.5783  0.7449 -0.4695
16990SOL     OW59937   1.487  11.595   4.581 -0.5107 -0.2676  0.0698
16990SOL    HW159938   1.400  11.557   4.591 -0.1224 -1.2220 -0.0490
16990SOL    HW259939   1.542  11.545   4.642 -0.1808  0.7944  0.6626
16991SOL     OW59940   7.301   7.198   0.996 -0.9001  0.4027  0.0739
16991SOL    HW159941   7.215   7.200   1.039 -0.3385 -0.2948  1.2717
16991SOL    HW259942   7.310   7.108   0.964  0.3500 -0.2541  2.0755
16992SOL     OW59943   4.288   7.335   4.378 -0.2289  0.1227  0.3037
16992SOL    HW159944   4.336   7.261   4.342 -0.0572  1.7421 -3.1573
16992SOL    HW259945   4.352   7.406   4.381 -1.5871  1.4971 -1.4824
16993SOL     OW59946  11.331  10.441   7.414  0.3137  0.1324  0.3350
16993SOL    HW159947  11.268  10.370   7.423 -1.4144  1.5653  0.1163
16993SOL    HW259948  11.373  10.447   7.500 -0.3570 -0.4086  0.7112
16994SOL     OW59949   2.961   1.239  10.042  0.3600 -0.1893  0.1554
16994SOL    HW159950   2.946   1.328  10.009 -1.3319 -0.1170  0.9843
16994SOL    HW259951   2.904   1.184   9.987  2.1687 -0.9500 -1.0360
16995SOL     OW59952   2.108  11.362   1.174 -0.6286 -0.3154  0.6192
16995SOL    HW159953   2.167  11.306   1.225 -1.5720 -1.3069  0.6549
16995SOL    HW259954   2.050  11.401   1.239  0.9076  1.8721  0.7629
16996SOL     OW59955   8.713   7.161   0.648 -0.1017 -0.4410  0.3294
16996SOL    HW159956   8.731   7.073   0.682 -1.9256 -1.0818 -0.2467
16996SOL    HW259957   8.734   7.156   0.555  2.6271  0.6443  0.7876
16997SOL     OW59958   2.810  10.909   2.409 -0.0779  0.7705 -0.1413
16997SOL    HW159959   2.815  10.971   2.336 -1.6878  2.0179  0.7514
16997SOL    HW259960   2.735  10.853   2.388  2.3632 -2.1733 -1.8102
16998SOL     OW59961  10.901   7.278   4.765 -0.2652  0.5830  0.3009
16998SOL    HW159962  10.925   7.205   4.707  1.1989  0.3669  1.1405
16998SOL    HW259963  10.950   7.353   4.730 -1.4119  1.0834 -0.2848
16999SOL     OW59964   5.768   1.552  12.306  0.3280 -1.2042  0.1415
16999SOL    HW159965   5.802   1.615  12.243 -2.0889 -0.5023 -0.5402
16999SOL    HW259966   5.681   1.529  12.274 -1.0600 -0.8036  3.2038
17000SOL     OW59967  12.577   4.399   7.342 -0.2936  0.2081  0.1895
17000SOL    HW159968  12.564   4.449   7.261 -2.8780  0.9094  0.9228
17000SOL    HW259969  12.634   4.453   7.395 -0.0214  0.5873 -0.4752
17001SOL     OW59970   2.596  12.459   4.925  0.1963 -0.4550  0.4322
17001SOL    HW159971   2.680  12.460   4.879  0.9520  1.6686  1.7234
17001SOL    HW259972   2.587  12.369   4.958  2.2640 -0.5632  0.8024
17002SOL     OW59973   8.918  11.345   5.266  0.1055  0.2475 -0.0472
17002SOL    HW159974   8.880  11.331   5.179  0.6104 -0.0443 -0.2239
17002SOL    HW259975   9.001  11.299   5.264  0.1968  0.3730  0.5419
17003SOL     OW59976  10.706   3.939   9.372  0.2186 -0.2433 -0.2795
17003SOL    HW159977  10.702   3.947   9.277  1.1470 -3.3559 -0.7074
17003SOL    HW259978  10.785   3.888   9.389  1.6541  2.5980  2.4584
17004SOL     OW59979   0.024   4.021  10.598  0.3720 -0.0481  0.1639
17004SOL    HW159980  -0.069   4.029  10.579  0.4351 -0.4634 -0.3444
17004SOL    HW259981   0.032   4.048  10.690  0.2414  3.2015 -0.6534
17005SOL     OW59982   7.148   4.768   0.960 -0.2541 -0.3905 -0.1567
17005SOL    HW159983   7.124   4.861   0.961 -1.1418 -0.6034 -0.0862
17005SOL    HW259984   7.142   4.742   0.868 -1.8958 -0.8069  0.0211
17006SOL     OW59985   1.048   1.844   4.982 -0.1828 -0.3237 -0.1092
17006SOL    HW159986   1.045   1.820   5.075  1.7274  0.0515  0.0987
17006SOL    HW259987   0.996   1.924   4.976 -0.6369 -0.5614  0.5686
17007SOL     OW59988   0.212   2.406  12.327  0.1273 -0.7789  0.6018
17007SOL    HW159989   0.129   2.358  12.334 -0.9393  0.5549 -1.5259
17007SOL    HW259990   0.235   2.399  12.234 -0.1487  2.8098  0.1514
17008SOL     OW59991  10.682   0.676  10.554 -0.0224  0.4004 -0.3103
17008SOL    HW159992  10.643   0.669  10.641  1.2767 -0.5764  0.2231
17008SOL    HW259993  10.744   0.603  10.550  0.2371  0.6764 -1.9059
17009SOL     OW59994   6.975   1.883   3.499 -0.3428  0.1310 -0.0701
17009SOL    HW159995   6.967   1.858   3.407  0.3738 -1.1367  0.1942
17009SOL    HW259996   7.065   1.915   3.508 -0.7219  1.2176 -0.0219
17010SOL     OW59997  11.063   7.229   0.368  0.1382 -0.0582  0.2008
17010SOL    HW159998  11.077   7.134   0.379  0.2768 -0.0182  0.3694
17010SOL    HW259999  11.048   7.240   0.274 -2.4494 -0.5888  0.4752
17011SOL     OW60000   4.171   1.342   1.000 -0.4687 -0.4542  0.4279
17011SOL    HW160001   4.112   1.378   0.934  1.3023 -0.6592 -1.3616
17011SOL    HW260002   4.198   1.257   0.966  1.8105  0.1510  0.5003
17012SOL     OW60003  11.325   2.927   8.157 -0.1505  0.5963  0.8760
17012SOL    HW160004  11.347   3.019   8.176  0.3058  0.7773 -0.4103
17012SOL    HW260005  11.390   2.900   8.092 -2.0144  0.2713 -0.9524
17013SOL     OW60006   0.657   0.805   1.363 -0.3363 -0.1053  0.1564
17013SOL    HW160007   0.613   0.723   1.384 -0.3189  0.4504  2.7405
17013SOL    HW260008   0.715   0.784   1.290 -0.8900 -2.1881  0.2556
17014SOL     OW60009   3.718  12.377   9.679 -0.9216 -0.0940 -0.1212
17014SOL    HW160010   3.641  12.320   9.682 -0.4318 -0.7328  0.9437
17014SOL    HW260011   3.773  12.346   9.751 -0.8317  2.0009  0.7873
17015SOL     OW60012   4.425   8.681  11.340  0.1422  0.2381  0.2422
17015SOL    HW160013   4.473   8.603  11.367 -1.1827 -0.3237  1.1064
17015SOL    HW260014   4.413   8.731  11.421 -1.9971 -0.3924  0.3767
17016SOL     OW60015   9.454   7.861   5.103 -0.2421  0.1058  0.5119
17016SOL    HW160016   9.489   7.882   5.016 -2.0590  1.1361 -0.0345
17016SOL    HW260017   9.397   7.786   5.087  2.2268 -2.1080  1.5362
17017SOL     OW60018   4.482   2.314  10.368 -0.1651 -0.7474  0.0963
17017SOL    HW160019   4.500   2.387  10.428 -0.2750  0.6046 -1.4720
17017SOL    HW260020   4.391   2.326  10.343 -0.5302 -2.1048  0.6651
17018SOL     OW60021   2.147   0.576  11.568 -0.2491 -0.3758  0.0099
17018SOL    HW160022   2.136   0.538  11.655 -0.4129  0.3821  0.3268
17018SOL    HW260023   2.195   0.658  11.584 -2.2997  0.9579 -0.3316
17019SOL     OW60024   0.263   7.157   2.615 -0.4092  0.0906 -0.0485
17019SOL    HW160025   0.200   7.117   2.674 -0.2278 -0.6061 -0.3138
17019SOL    HW260026   0.348   7.126   2.646 -0.1930  0.9495  0.2526
17020SOL     OW60027   3.711  11.623   2.831  0.0142  0.1039 -0.8497
17020SOL    HW160028   3.730  11.646   2.922  0.3324  0.6772 -1.0584
17020SOL    HW260029   3.665  11.539   2.837  0.2790 -0.0009 -0.1785
17021SOL     OW60030   2.538  10.752   2.398 -0.1597  0.1544 -0.0774
17021SOL    HW160031   2.502  10.719   2.315  0.2518 -0.1416 -0.1356
17021SOL    HW260032   2.529  10.679   2.459 -2.9173  1.1522  0.9068
17022SOL     OW60033  12.204   9.555   6.595 -0.0686  0.0251  0.8234
17022SOL    HW160034  12.215   9.630   6.537 -0.5259 -0.5412 -0.0196
17022SOL    HW260035  12.195   9.481   6.536  2.1454 -0.9860  1.6460
17023SOL     OW60036   1.003   8.553  11.795  0.0974 -0.3012 -0.2674
17023SOL    HW160037   0.937   8.542  11.727  0.5542 -0.2609 -0.7257
17023SOL    HW260038   1.085   8.524  11.754  0.0846 -2.0782  0.8676
17024SOL     OW60039   6.847   5.742   2.395  0.0541  0.0538 -0.0922
17024SOL    HW160040   6.841   5.817   2.453 -1.2145 -0.3632  0.3448
17024SOL    HW260041   6.821   5.667   2.449 -1.0800 -0.3511 -1.1453
17025SOL     OW60042  10.305   3.728   4.964 -0.5535  0.0405 -0.6559
17025SOL    HW160043  10.309   3.644   5.009  0.6946  0.3062 -0.2164
17025SOL    HW260044  10.319   3.793   5.033 -2.4600  0.6882 -0.8307
17026SOL     OW60045   1.550   7.498   2.268 -0.2954 -0.1074 -0.8245
17026SOL    HW160046   1.481   7.556   2.235  0.9504  1.9133 -0.0721
17026SOL    HW260047   1.631   7.546   2.252  0.7786 -1.5813  0.0305
17027SOL     OW60048   2.147   4.080  11.347 -0.3901  0.5522  0.6325
17027SOL    HW160049   2.167   4.092  11.440  0.1133  1.6717  0.4008
17027SOL    HW260050   2.085   4.150  11.327 -1.6838 -0.6175  0.4601
17028SOL     OW60051   3.095   1.027   3.397 -0.4333  0.0190  0.0857
17028SOL    HW160052   3.033   1.059   3.331 -1.0142 -2.3453 -0.6197
17028SOL    HW260053   3.040   0.995   3.468  0.0550 -0.4967  0.2390
17029SOL     OW60054   0.052  11.583   9.454  0.3883 -0.1460 -0.3264
17029SOL    HW160055   0.089  11.671   9.464 -1.0467  0.4110  0.3230
17029SOL    HW260056   0.009  11.586   9.368 -0.9325  0.3070  0.3202
17030SOL     OW60057  11.547   2.332   5.201 -0.3005  0.3980 -0.0278
17030SOL    HW160058  11.626   2.373   5.168 -0.2041  0.1400 -0.1222
17030SOL    HW260059  11.476   2.375   5.154 -0.2742  1.1956  0.6401
17031SOL     OW60060   3.588   2.131   5.615  0.2471 -0.6928  0.3586
17031SOL    HW160061   3.554   2.159   5.530 -0.8456  0.2611  1.0728
17031SOL    HW260062   3.580   2.209   5.671  0.6410 -1.3880  1.4207
17032SOL     OW60063   0.160   9.044   8.825 -0.1077  0.3775  0.4306
17032SOL    HW160064   0.079   9.096   8.826 -1.3253 -1.3169 -1.6783
17032SOL    HW260065   0.224   9.100   8.781 -1.0581  0.6006 -0.7402
17033SOL     OW60066   2.714   6.124  10.034 -0.2835 -0.4299 -0.7742
17033SOL    HW160067   2.740   6.214  10.053 -1.5454 -0.4972  1.6400
17033SOL    HW260068   2.795   6.074  10.039  0.0190  0.1666  0.9331
17034SOL     OW60069   9.393  12.128   2.281  0.3454 -0.1280 -0.1959
17034SOL    HW160070   9.317  12.130   2.340  1.0608 -0.1368  0.7577
17034SOL    HW260071   9.436  12.045   2.301  2.4819  1.3120  1.7884
17035SOL     OW60072   7.310   8.569   4.600  0.4493 -0.4876 -0.0371
17035SOL    HW160073   7.348   8.492   4.557  1.1096 -1.3740  1.9837
17035SOL    HW260074   7.233   8.535   4.645 -0.9472  0.6615 -1.4879
17036SOL     OW60075   2.159   0.155   7.923  0.1115 -0.1559  0.1005
17036SOL    HW160076   2.088   0.217   7.903  0.1140  0.0277  0.6470
17036SOL    HW260077   2.217   0.159   7.847 -2.0274 -2.6136 -1.8298
17037SOL     OW60078  12.490  10.281   7.722 -0.4715 -0.5130  0.4088
17037SOL    HW160079  12.509  10.187   7.716 -0.2517 -0.4390 -0.0890
17037SOL    HW260080  12.434  10.299   7.647  1.7967  0.3163 -1.1824
17038SOL     OW60081  10.357   8.340   8.307  0.0746 -0.0820  0.0156
17038SOL    HW160082  10.375   8.374   8.394  0.4792  0.7258 -0.3767
17038SOL    HW260083  10.264   8.316   8.309 -0.3817  1.5918  0.1259
17039SOL     OW60084   2.187   6.186   2.352  0.0346  0.1850  0.2729
17039SOL    HW160085   2.237   6.220   2.277 -1.3451 -1.9364 -1.7490
17039SOL    HW260086   2.176   6.093   2.334 -2.3382  0.0395  1.9545
17040SOL     OW60087   4.680   6.964   6.689  0.0901  0.2783  0.6902
17040SOL    HW160088   4.718   6.886   6.730  1.6744 -0.2528 -1.5806
17040SOL    HW260089   4.587   6.944   6.681  0.5104 -1.5387 -0.1022
17041SOL     OW60090  12.141   1.162   5.332 -0.1527 -0.1737  0.1060
17041SOL    HW160091  12.194   1.200   5.403 -0.1420 -0.7828  0.4315
17041SOL    HW260092  12.088   1.095   5.375 -2.1257  1.2523  0.0184
17042SOL     OW60093   2.248   9.479   8.861  0.2675  0.6482  0.1708
17042SOL    HW160094   2.186   9.551   8.864 -0.3740  0.1060  0.0804
17042SOL    HW260095   2.297   9.493   8.780  1.2417  1.8511  0.9235
17043SOL     OW60096   1.748   6.794   0.941 -0.4838  0.1691 -0.2363
17043SOL    HW160097   1.789   6.716   0.980 -2.4475  1.1701  4.4651
17043SOL    HW260098   1.658   6.768   0.925 -0.4313  0.6930 -1.4972
17044SOL     OW60099   7.000  10.947  12.385  0.3348  0.2110  0.3028
17044SOL    HW160100   6.965  10.964  12.298  2.9386 -0.5363 -0.9843
17044SOL    HW260101   7.030  11.032  12.416 -0.8446  0.5281  0.6534
17045SOL     OW60102   8.242   2.003   9.657 -0.5538 -0.8299  0.1927
17045SOL    HW160103   8.219   2.096   9.658  1.0459 -0.3957  1.3097
17045SOL    HW260104   8.323   2.000   9.606 -1.1112 -1.7791 -0.6715
17046SOL     OW60105   5.483   1.405   3.988  0.3491  0.3905 -0.3644
17046SOL    HW160106   5.532   1.481   3.956  1.9223 -0.0805  0.8461
17046SOL    HW260107   5.430   1.378   3.913  0.3245  2.2081 -1.0596
17047SOL     OW60108   7.303   9.128   6.141 -0.0080 -0.2146 -0.2358
17047SOL    HW160109   7.291   9.034   6.128 -0.3349  0.0120 -1.6670
17047SOL    HW260110   7.379   9.150   6.088 -0.4856  0.4860 -0.6446
17048SOL     OW60111   7.318   0.496   4.149  0.7275 -0.7050  0.1085
17048SOL    HW160112   7.281   0.408   4.142 -0.8728  0.0585 -1.9911
17048SOL    HW260113   7.362   0.511   4.065  1.9810  0.1119  0.8701
17049SOL     OW60114   3.241   3.831   6.112 -0.5637 -0.0066  0.6654
17049SOL    HW160115   3.181   3.770   6.156  0.4063 -0.4565  1.3990
17049SOL    HW260116   3.323   3.783   6.105  0.0981  1.0689  0.8788
17050SOL     OW60117   4.591  12.224   2.247  0.5786  0.9176 -0.0900
17050SOL    HW160118   4.509  12.175   2.256  0.3415  1.3373  0.0866
17050SOL    HW260119   4.654  12.161   2.213 -0.3833  1.1476 -2.4631
17051SOL     OW60120   5.188   7.262   0.618 -0.3982  0.6442  0.2272
17051SOL    HW160121   5.187   7.213   0.536  0.1263  0.9020  0.0609
17051SOL    HW260122   5.113   7.322   0.611 -0.6865  0.2805  0.1778
17052SOL     OW60123   2.184   1.236  10.304 -0.0215 -0.2286  0.1641
17052SOL    HW160124   2.090   1.232  10.288 -0.5056  1.2896  2.2543
17052SOL    HW260125   2.206   1.149  10.339 -0.5726 -0.6748 -0.5701
17053SOL     OW60126   0.531   4.786  10.792 -0.4244  0.1150 -0.4238
17053SOL    HW160127   0.612   4.760  10.837  1.0586  2.7807 -1.3147
17053SOL    HW260128   0.464   4.783  10.861  1.1079  0.9534  1.1928
17054SOL     OW60129  10.764  12.334  12.019  0.0265  0.3841  0.4113
17054SOL    HW160130  10.753  12.243  11.989  0.2444  0.1300  1.0842
17054SOL    HW260131  10.753  12.330  12.114 -2.8823  1.5329  0.2280
17055SOL     OW60132   1.679  10.033  11.263  0.2951  0.3588 -0.3782
17055SOL    HW160133   1.620   9.965  11.230  0.6780 -0.6889  0.9984
17055SOL    HW260134   1.626  10.082  11.326  0.3803  0.5544 -0.4579
17056SOL     OW60135   4.136   3.334   4.696  0.1665  0.8275 -0.3730
17056SOL    HW160136   4.074   3.405   4.710  0.4164  1.1583 -0.8715
17056SOL    HW260137   4.101   3.260   4.745 -1.5756  0.4602 -2.0675
17057SOL     OW60138   8.269   8.331  11.262  0.4628  0.5201  0.5777
17057SOL    HW160139   8.316   8.254  11.230  0.5217  0.0594  1.7251
17057SOL    HW260140   8.319   8.360  11.338  2.1253  3.4903 -1.4676
17058SOL     OW60141   2.347   2.489   1.114  0.0408 -0.6695 -0.5655
17058SOL    HW160142   2.320   2.571   1.072 -1.4544 -0.8487  0.0043
17058SOL    HW260143   2.335   2.423   1.046 -1.0184 -0.7481 -0.3189
17059SOL     OW60144   6.556   1.976   8.613 -0.1019  0.0904  0.1394
17059SOL    HW160145   6.472   1.937   8.593 -0.0481  0.7632 -1.5444
17059SOL    HW260146   6.554   2.062   8.570  0.8897  0.7343  1.2918
17060SOL     OW60147   0.975  10.615   9.844 -0.3668 -0.2292 -0.0697
17060SOL    HW160148   1.060  10.607   9.886 -0.4490  0.1550  0.1741
17060SOL    HW260149   0.976  10.550   9.774  0.7788  0.9457 -1.1843
17061SOL     OW60150   1.477   8.543   4.272  0.0503  0.3372  0.2614
17061SOL    HW160151   1.515   8.616   4.224 -1.3909  0.6356 -0.4702
17061SOL    HW260152   1.385   8.542   4.246  0.0877 -1.9202  0.0300
17062SOL     OW60153   9.658   2.229   3.545  0.3991  0.3990  0.1557
17062SOL    HW160154   9.693   2.179   3.619  0.9607  0.8502  0.1994
17062SOL    HW260155   9.703   2.193   3.469 -2.7229 -2.5588 -0.5051
17063SOL     OW60156   8.117   8.559   2.114  0.1789 -0.3916 -0.4166
17063SOL    HW160157   8.035   8.552   2.065  0.1144  1.6239 -0.6827
17063SOL    HW260158   8.101   8.508   2.194 -1.6486  0.5644 -0.0980
17064SOL     OW60159   8.464   6.437   8.515  0.2718 -0.5384  0.1739
17064SOL    HW160160   8.374   6.420   8.544  0.5977 -1.3360  0.7314
17064SOL    HW260161   8.519   6.413   8.589  0.9311  0.3169 -0.0270
17065SOL     OW60162   3.968   4.033   3.027 -0.6186  0.7625  0.1442
17065SOL    HW160163   3.876   4.009   3.034 -0.5635  0.1879 -0.8993
17065SOL    HW260164   3.996   4.048   3.117 -1.8125  1.2696  0.4468
17066SOL     OW60165  11.059   4.871   8.535  0.0241  0.2179 -0.2171
17066SOL    HW160166  11.070   4.776   8.545 -0.5009  0.1593 -0.1445
17066SOL    HW260167  11.088   4.890   8.446 -1.1124 -0.2201 -0.6989
17067SOL     OW60168   0.711  12.307   5.643 -0.1205 -0.0673 -0.0460
17067SOL    HW160169   0.638  12.311   5.705 -0.7999  2.9781 -0.8812
17067SOL    HW260170   0.772  12.375   5.674 -0.1835  1.0875 -2.2799
17068SOL     OW60171   8.144   9.707   5.228  0.4533  0.1012 -0.5311
17068SOL    HW160172   8.220   9.666   5.186  0.2217  0.4960 -1.3595
17068SOL    HW260173   8.114   9.642   5.291 -1.0576 -1.8796 -3.0832
17069SOL     OW60174  12.278   8.362   2.271  0.5650  0.0814  0.9745
17069SOL    HW160175  12.328   8.366   2.352 -0.7481  2.3000  1.7658
17069SOL    HW260176  12.303   8.441   2.223 -0.2784 -0.0808  0.2272
17070SOL     OW60177   4.119   6.047   1.096  0.0390  0.2860 -0.5904
17070SOL    HW160178   4.114   5.972   1.155 -0.9371  0.4643 -0.4372
17070SOL    HW260179   4.177   6.109   1.141 -0.0642  0.0957 -0.1941
17071SOL     OW60180   7.860   7.754  11.186 -0.0358  0.1190  0.0148
17071SOL    HW160181   7.780   7.715  11.152 -0.2317 -0.8664  1.5396
17071SOL    HW260182   7.879   7.706  11.267  1.8503  0.6220 -0.0717
17072SOL     OW60183   3.975   0.567   9.473  0.4605  0.4031 -0.6727
17072SOL    HW160184   4.054   0.603   9.434  0.1579  1.2504 -0.5461
17072SOL    HW260185   3.966   0.614   9.556  0.3512 -0.3800 -0.2337
17073SOL     OW60186   4.038   1.193   2.182 -0.0199 -1.0329  0.2552
17073SOL    HW160187   4.046   1.221   2.273 -0.9105  1.1661 -0.2670
17073SOL    HW260188   4.082   1.263   2.132 -0.5327 -1.6180 -1.0523
17074SOL     OW60189  11.815   7.185   1.569 -0.4640 -0.7130  0.1085
17074SOL    HW160190  11.802   7.097   1.534 -1.9720 -0.2533 -0.6016
17074SOL    HW260191  11.813   7.242   1.492 -0.1767  0.0023  0.6191
17075SOL     OW60192   8.256   1.417   3.652 -0.2386 -0.2134 -0.6254
17075SOL    HW160193   8.181   1.381   3.604 -0.2352  0.5621 -1.2332
17075SOL    HW260194   8.315   1.449   3.583  0.5008 -0.5088 -0.1432
17076SOL     OW60195   6.439   0.899   5.981  0.3308 -0.1742  0.2752
17076SOL    HW160196   6.496   0.975   5.995  1.9754 -1.0940 -1.1109
17076SOL    HW260197   6.365   0.933   5.930  1.4137  0.3772 -0.9682
17077SOL     OW60198   1.456   5.814   5.994  0.4643  0.2553 -0.1154
17077SOL    HW160199   1.441   5.883   6.058  0.9004  0.6305 -0.4129
17077SOL    HW260200   1.373   5.768   5.989 -0.1036  1.2843 -0.5358
17078SOL     OW60201   0.275   4.877   6.983  0.4868  0.0355  0.4089
17078SOL    HW160202   0.346   4.850   6.925 -0.4239  0.4653 -0.9546
17078SOL    HW260203   0.195   4.851   6.938 -0.2508 -0.7863  2.0814
17079SOL     OW60204   8.744   2.372   8.431  0.4020  0.6036 -0.1637
17079SOL    HW160205   8.750   2.291   8.482  1.0466 -0.9150 -2.4855
17079SOL    HW260206   8.745   2.442   8.497 -0.7025 -1.2411  1.9722
17080SOL     OW60207  11.776   9.430   2.793  0.3499 -0.1774  0.4414
17080SOL    HW160208  11.858   9.384   2.773 -0.4110 -1.0437 -0.8958
17080SOL    HW260209  11.802   9.504   2.847  2.1960  0.3261 -1.0419
17081SOL     OW60210   6.085   5.779   4.220 -0.6158  0.1844  0.3739
17081SOL    HW160211   6.079   5.837   4.295  1.3197  0.6822  0.2147
17081SOL    HW260212   6.090   5.691   4.258 -1.0595  0.3142  0.7413
17082SOL     OW60213   4.072   5.535   3.928  0.6214  0.2514  0.0567
17082SOL    HW160214   4.104   5.535   4.019  1.9721 -0.8706 -0.3907
17082SOL    HW260215   3.977   5.522   3.937  0.7577 -0.0934  1.3075
17083SOL     OW60216   8.287   0.340   9.028  0.0820  0.0465 -0.2684
17083SOL    HW160217   8.355   0.365   9.090 -0.7358 -0.0607  0.6848
17083SOL    HW260218   8.214   0.310   9.082 -1.9060  2.9633 -1.0841
17084SOL     OW60219   2.977   8.135   2.713 -0.5698 -0.1519  0.4780
17084SOL    HW160220   2.886   8.153   2.739  0.3210  2.0777  2.4354
17084SOL    HW260221   3.009   8.075   2.780 -0.6117 -0.9882 -0.2485
17085SOL     OW60222  10.522   8.282   1.129  0.1543  0.4801  0.0496
17085SOL    HW160223  10.459   8.268   1.058  1.2918 -0.4179 -0.8071
17085SOL    HW260224  10.474   8.336   1.193 -0.3245  3.0125 -2.2481
17086SOL     OW60225   2.772   6.398   2.719  0.9055  0.4545  0.3898
17086SOL    HW160226   2.818   6.431   2.797  0.1537  1.6927  0.3346
17086SOL    HW260227   2.830   6.331   2.684  1.9236  0.8719  1.2188
17087SOL     OW60228   9.170   8.731   3.396 -0.3215  0.4941 -0.7035
17087SOL    HW160229   9.197   8.647   3.360  0.4488  0.0417  0.8612
17087SOL    HW260230   9.220   8.796   3.346 -0.7519  0.0314 -1.7586
17088SOL     OW60231  12.203  11.557   0.197  0.4780  0.4132  0.8707
17088SOL    HW160232  12.157  11.568   0.113  0.2019 -0.0160  0.9583
17088SOL    HW260233  12.294  11.544   0.172  0.7349  2.2540  0.7415
17089SOL     OW60234  11.335   6.539   0.494  0.1928  0.3535 -0.1148
17089SOL    HW160235  11.421   6.502   0.513 -0.2538 -0.5033  0.2735
17089SOL    HW260236  11.289   6.469   0.448 -0.3749  0.7375 -0.1351
17090SOL     OW60237   9.409   7.235   5.744  0.1785 -0.5836 -0.1337
17090SOL    HW160238   9.493   7.196   5.771  1.8877  2.2009 -1.0244
17090SOL    HW260239   9.400   7.211   5.652  1.3078  1.0535 -0.7244
17091SOL     OW60240   3.118  12.491   2.487  0.9249 -0.5975 -0.3656
17091SOL    HW160241   3.104  12.534   2.403  0.3701  2.2003  1.0450
17091SOL    HW260242   3.060  12.415   2.486 -1.5458  1.1971 -1.2991
17092SOL     OW60243   6.111   4.673   3.256 -0.8125 -0.1474 -0.2302
17092SOL    HW160244   6.077   4.705   3.340  1.6089  0.7845  0.4790
17092SOL    HW260245   6.064   4.591   3.241 -2.8840  0.7649  0.9051
17093SOL     OW60246   1.703  12.045  10.765  0.1670  0.4453 -0.2032
17093SOL    HW160247   1.688  12.029  10.858 -0.5187 -2.3452 -0.6925
17093SOL    HW260248   1.616  12.039  10.725  0.5369  0.9581 -1.1199
17094SOL     OW60249  11.153  10.183   4.590  0.3804  0.1220  0.3395
17094SOL    HW160250  11.210  10.245   4.543  0.4397  0.4359  0.8201
17094SOL    HW260251  11.091  10.153   4.524  2.7505 -2.3617 -0.9938
17095SOL     OW60252   6.075   1.242   2.615 -0.0071  0.1573 -0.1773
17095SOL    HW160253   6.080   1.309   2.547 -1.3075 -0.2550 -0.7101
17095SOL    HW260254   6.038   1.166   2.571  0.1839 -0.4907  0.7383
17096SOL     OW60255   5.914  10.717   4.615  0.1184  0.6230  0.8185
17096SOL    HW160256   5.882  10.709   4.705 -0.0428 -0.4880  0.6753
17096SOL    HW260257   6.008  10.734   4.624  0.2880 -0.4281  1.1981
17097SOL     OW60258   3.813   4.064   6.117  0.2304 -0.1233 -0.2796
17097SOL    HW160259   3.836   3.997   6.181  0.4502 -0.8312 -1.0888
17097SOL    HW260260   3.784   4.016   6.040 -1.9051  0.7362 -0.0792
17098SOL     OW60261   7.571   6.951  12.433  0.2218  0.6651  0.1180
17098SOL    HW160262   7.564   6.945  12.529 -0.6523  0.4739  0.0464
17098SOL    HW260263   7.546   6.865  12.402  2.1274  0.1894 -0.2299
17099SOL     OW60264   0.259  10.024   2.310  0.8405 -0.0538 -0.3439
17099SOL    HW160265   0.190   9.996   2.251  0.8676 -1.6184  0.3095
17099SOL    HW260266   0.237  10.115   2.332 -1.0496 -0.5364 -0.0835
17100SOL     OW60267   3.017  10.529   0.606 -0.0851 -0.6507 -0.0113
17100SOL    HW160268   3.035  10.610   0.558 -0.4770 -0.6665 -0.1936
17100SOL    HW260269   2.948  10.487   0.555  0.5392 -1.3986 -0.2475
17101SOL     OW60270   9.879   6.537   8.356 -0.4187  0.1922  0.0232
17101SOL    HW160271   9.800   6.492   8.387 -0.4364  0.1330 -0.1055
17101SOL    HW260272   9.897   6.497   8.270  1.2647 -1.7068  1.1583
17102SOL     OW60273  11.714   8.849   1.514  0.3804 -0.5700  0.3755
17102SOL    HW160274  11.738   8.939   1.538 -0.2506  0.3550 -2.1218
17102SOL    HW260275  11.631   8.833   1.559 -0.8381  1.1298 -1.1079
17103SOL     OW60276   0.540   6.793   5.958  0.1000 -0.4986  0.1647
17103SOL    HW160277   0.488   6.864   5.994  0.7805  1.1658 -1.9140
17103SOL    HW260278   0.480   6.746   5.900  0.3996  0.3491 -0.8736
17104SOL     OW60279   1.916   5.825   4.291  0.2176 -0.8178  0.0727
17104SOL    HW160280   1.976   5.755   4.315 -0.1002 -0.8849  0.6798
17104SOL    HW260281   1.958   5.905   4.323  0.8982 -0.6311 -1.1917
17105SOL     OW60282   5.726   7.504   9.991  0.4900  0.1202 -0.3216
17105SOL    HW160283   5.651   7.445   9.997  0.4962  0.2433  1.5407
17105SOL    HW260284   5.783   7.477  10.063  0.7176  2.1083  0.3009
17106SOL     OW60285  12.271  12.552   5.552 -0.5237 -0.2628 -0.3895
17106SOL    HW160286  12.304  12.519   5.468  0.6173 -1.0694  0.3648
17106SOL    HW260287  12.349  12.580   5.599 -1.2898  1.8934 -0.2709
17107SOL     OW60288   2.016   3.858   1.581 -0.1992  0.0328 -0.5689
17107SOL    HW160289   2.016   3.930   1.517 -0.5608  1.5534  1.0449
17107SOL    HW260290   1.926   3.828   1.584  0.0066 -0.7301 -1.4557
17108SOL     OW60291  10.263   5.960   8.195 -0.1552 -0.0511 -0.3277
17108SOL    HW160292  10.237   5.921   8.112 -0.5885 -2.9239  1.0317
17108SOL    HW260293  10.190   5.942   8.254  0.4709  1.2016  0.8780
17109SOL     OW60294   4.591   4.646  11.902  0.2271  0.1063  0.6692
17109SOL    HW160295   4.614   4.738  11.914 -0.6279  0.1984  1.6820
17109SOL    HW260296   4.623   4.602  11.980 -0.1441 -0.3069  0.5951
17110SOL     OW60297  10.380   8.329  12.539 -0.3172  0.2207 -0.0326
17110SOL    HW160298  10.354   8.411  12.581  1.0632  0.1038  1.1084
17110SOL    HW260299  10.442   8.355  12.471 -0.3686  0.1642 -0.1029
17111SOL     OW60300   4.991   0.830   0.350  0.1869  0.9053 -0.1256
17111SOL    HW160301   4.921   0.833   0.284 -1.4948 -0.3562  1.4871
17111SOL    HW260302   4.952   0.870   0.428  1.6937  1.2292  0.4973
17112SOL     OW60303   3.782  11.645   2.567 -0.0245  0.0336 -0.3738
17112SOL    HW160304   3.751  11.676   2.652 -0.3782  2.6385 -1.3605
17112SOL    HW260305   3.705  11.651   2.510  0.7860  0.6432 -1.4283
17113SOL     OW60306   7.732   4.834   1.363  0.0830  0.2451  0.1600
17113SOL    HW160307   7.652   4.872   1.328 -0.4247 -0.6008  0.3699
17113SOL    HW260308   7.796   4.905   1.360 -1.1923  1.5561  1.8807
17114SOL     OW60309   1.549   6.296   4.264  0.2246 -0.7106  0.3414
17114SOL    HW160310   1.590   6.378   4.236  2.1478 -1.3273  1.1544
17114SOL    HW260311   1.506   6.263   4.186  3.3460 -1.1790 -1.3256
17115SOL     OW60312   5.629   4.995   1.261 -0.3394 -0.9533 -0.8794
17115SOL    HW160313   5.694   4.958   1.321 -0.4102 -0.5753 -0.5683
17115SOL    HW260314   5.564   5.036   1.318  0.6992  1.3034 -1.2186
17116SOL     OW60315   9.730   6.527  12.229  0.0588 -0.5774 -0.2510
17116SOL    HW160316   9.807   6.477  12.203  1.0186  0.5942  0.2230
17116SOL    HW260317   9.711   6.583  12.154 -0.1402 -0.6277 -0.2403
17117SOL     OW60318   1.481   2.761  12.579 -0.2637 -0.1166  0.2037
17117SOL    HW160319   1.428   2.821  12.527  0.2602  0.6694  0.5594
17117SOL    HW260320   1.504   2.690  12.519  3.3846  2.4984 -1.8424
17118SOL     OW60321   7.728   1.678   8.801  0.5421  0.4993 -0.2097
17118SOL    HW160322   7.774   1.607   8.757  0.5040  0.3490 -0.0095
17118SOL    HW260323   7.798   1.731   8.840  0.5566  0.3980 -0.0968
17119SOL     OW60324   6.998   8.150   7.500 -0.4256  0.3283 -0.5601
17119SOL    HW160325   6.943   8.198   7.562 -0.2982  1.0427 -0.9789
17119SOL    HW260326   7.086   8.186   7.514  0.0653 -1.1618  0.4609
17120SOL     OW60327   7.874   7.641  11.432  0.3345  0.0089  0.1290
17120SOL    HW160328   7.909   7.655  11.520 -0.6655 -0.9936  0.7167
17120SOL    HW260329   7.913   7.558  11.404  0.2694  0.0802 -0.1810
17121SOL     OW60330   8.435  10.171   6.047  0.1472  0.3572  0.3012
17121SOL    HW160331   8.486  10.094   6.022 -0.5088 -0.1153  0.3988
17121SOL    HW260332   8.347  10.154   6.012  0.1576  1.3616 -0.2429
17122SOL     OW60333   9.220   1.393  10.365 -0.0083  0.1370 -0.2933
17122SOL    HW160334   9.230   1.391  10.460 -0.0011 -0.7146 -0.3021
17122SOL    HW260335   9.190   1.305  10.343 -0.4868  0.4782 -1.0290
17123SOL     OW60336   3.998   3.960   8.258 -0.2844  0.1813 -0.2842
17123SOL    HW160337   3.919   3.968   8.312  0.4116 -1.3606  1.0390
17123SOL    HW260338   4.046   4.041   8.274 -0.0697 -0.2662  1.4810
17124SOL     OW60339  11.534   4.732   9.062 -0.7302 -0.3395 -0.5028
17124SOL    HW160340  11.542   4.714   9.155  0.0635  1.4592 -0.1843
17124SOL    HW260341  11.446   4.768   9.052 -0.3536  0.6844 -0.2107
17125SOL     OW60342   9.810   1.894   6.071  0.0197 -0.1452  0.3129
17125SOL    HW160343   9.795   1.931   5.984  0.2357 -0.3076  0.2057
17125SOL    HW260344   9.735   1.923   6.123  0.7395  1.4181  0.5434
17126SOL     OW60345   9.314   4.793   3.764 -0.1126 -0.4097 -0.3193
17126SOL    HW160346   9.344   4.874   3.806 -0.1114  1.3132 -3.3239
17126SOL    HW260347   9.220   4.791   3.780 -0.3219  0.8948 -1.1910
17127SOL     OW60348   1.081   9.314   3.712 -0.1379 -0.4550 -0.1659
17127SOL    HW160349   1.170   9.338   3.688  0.2584 -1.6995  0.0006
17127SOL    HW260350   1.084   9.219   3.726 -1.4201 -0.4758  0.1276
17128SOL     OW60351   3.817   4.688  10.831 -0.6941  0.8151 -0.0310
17128SOL    HW160352   3.888   4.644  10.784  0.2664  1.2959  0.9363
17128SOL    HW260353   3.803   4.770  10.783 -0.2371  0.9531  0.0672
17129SOL     OW60354   5.631   8.437   5.037 -0.0536  0.1935 -0.0879
17129SOL    HW160355   5.541   8.451   5.065 -0.7010  0.4661 -2.1812
17129SOL    HW260356   5.662   8.364   5.091 -1.0607  0.9257  1.5657
17130SOL     OW60357   6.720   2.667   6.539  0.1332  0.6207 -0.6985
17130SOL    HW160358   6.671   2.588   6.517 -2.9587  2.1862  0.0969
17130SOL    HW260359   6.774   2.642   6.614  0.6860 -1.1828 -1.6480
17131SOL     OW60360   1.411   1.883   2.567  0.1968 -0.3572 -0.2847
17131SOL    HW160361   1.424   1.827   2.491  0.0136 -1.0921  0.2225
17131SOL    HW260362   1.317   1.902   2.567 -0.2051 -2.1121  0.9511
17132SOL     OW60363  12.394  10.176   2.472  0.1563 -0.1418  0.5560
17132SOL    HW160364  12.413  10.090   2.436  2.2682  0.5070 -0.0155
17132SOL    HW260365  12.463  10.190   2.538  0.4555  1.4931 -0.0580
17133SOL     OW60366  12.012   2.490   3.021  0.4536 -0.3526 -0.2617
17133SOL    HW160367  12.073   2.426   3.057 -0.4634 -0.6745  0.7750
17133SOL    HW260368  12.007   2.468   2.928 -1.4201 -3.2161  0.3845
17134SOL     OW60369   8.146  10.559  11.135 -0.6415 -0.3333 -0.3578
17134SOL    HW160370   8.078  10.592  11.076 -1.6042  1.5968  1.6609
17134SOL    HW260371   8.179  10.638  11.179  0.6658 -1.5773  0.9824
17135SOL     OW60372   2.159   2.156   3.999 -0.4382 -0.4202 -0.0618
17135SOL    HW160373   2.213   2.139   4.077 -1.2004 -1.1412  0.3276
17135SOL    HW260374   2.100   2.226   4.026  0.3452  0.4445 -0.5232
17136SOL     OW60375   4.620   2.366  11.052 -0.0188  0.7127 -0.4469
17136SOL    HW160376   4.643   2.392  11.141 -1.0276 -0.2159  0.1085
17136SOL    HW260377   4.671   2.286  11.037  0.7523  1.2896 -1.0185
17137SOL     OW60378  11.151   2.454   2.073  0.0147  0.2128 -0.2346
17137SOL    HW160379  11.171   2.376   2.125 -1.8371  1.0208  1.8156
17137SOL    HW260380  11.102   2.421   1.998  0.0590 -0.6829  0.1189
17138SOL     OW60381   6.704   7.578   4.852  0.3448  0.1799  0.3530
17138SOL    HW160382   6.663   7.662   4.874 -1.4113 -0.7444  0.8286
17138SOL    HW260383   6.765   7.599   4.781  0.1756  1.9037  0.6830
17139SOL     OW60384   8.118  10.595   2.248  0.4594  0.5744  0.0683
17139SOL    HW160385   8.140  10.516   2.198 -0.0368 -1.1088  2.3058
17139SOL    HW260386   8.172  10.664   2.210  0.5848 -0.7114 -2.2785
17140SOL     OW60387   6.291   6.485   3.717 -0.6864  0.3451  0.2288
17140SOL    HW160388   6.228   6.419   3.747 -0.5595  1.0647  2.2140
17140SOL    HW260389   6.303   6.466   3.624 -1.9697 -1.3320  0.3588
17141SOL     OW60390   6.015   7.709  10.587 -0.1956  0.5043  0.1792
17141SOL    HW160391   5.983   7.667  10.667 -0.7398  1.8971  0.7281
17141SOL    HW260392   6.103   7.738  10.608 -0.5543  1.4008  0.5021
17142SOL     OW60393   1.566   5.744   0.281  0.0055  0.3618 -0.5800
17142SOL    HW160394   1.537   5.756   0.372  1.0476 -0.8649 -0.0417
17142SOL    HW260395   1.521   5.665   0.252  0.1515  0.3984 -0.9056
17143SOL     OW60396   3.976   7.212   2.929 -0.2164  0.1491 -0.4043
17143SOL    HW160397   4.017   7.238   2.846  0.0775 -2.4152 -1.1608
17143SOL    HW260398   3.914   7.144   2.904  0.3455 -1.1481  1.5281
17144SOL     OW60399   2.983   8.413   3.627 -0.0032  0.0238 -0.0145
17144SOL    HW160400   2.950   8.493   3.667  2.6405  1.7982 -1.1284
17144SOL    HW260401   3.013   8.440   3.540  0.7185 -2.2294 -0.5325
17145SOL     OW60402   5.197   0.971   3.910 -0.2215  0.2925  0.1501
17145SOL    HW160403   5.147   0.942   3.986 -3.2074  0.3293 -1.6590
17145SOL    HW260404   5.195   0.895   3.850  0.0722  1.0210 -0.8105
17146SOL     OW60405   9.631   4.260   8.242 -0.0496  0.3802  0.4331
17146SOL    HW160406   9.643   4.249   8.336  0.4726 -1.8634  0.1683
17146SOL    HW260407   9.551   4.311   8.233 -0.4923  0.0137  2.0953
17147SOL     OW60408  11.251  11.517   8.420 -0.3553 -0.1148  0.4299
17147SOL    HW160409  11.346  11.521   8.408 -0.3612  1.1266  0.6433
17147SOL    HW260410  11.217  11.592   8.370 -1.3205 -1.0728 -0.4205
17148SOL     OW60411  11.016   7.155   9.272  0.0298  0.4077 -0.1242
17148SOL    HW160412  11.080   7.173   9.203 -2.4648  1.0404 -2.4459
17148SOL    HW260413  11.017   7.233   9.326  0.9030  0.5796 -0.3644
17149SOL     OW60414   7.115   4.839  10.217 -0.5684  0.0861  0.3242
17149SOL    HW160415   7.188   4.810  10.272  1.4067  1.3041 -1.4905
17149SOL    HW260416   7.125   4.934  10.212  0.1444 -0.0400 -3.0508
17150SOL     OW60417   0.280   1.776   9.116 -0.3390  0.0047 -0.1907
17150SOL    HW160418   0.278   1.716   9.041  0.8047 -0.0221 -0.2099
17150SOL    HW260419   0.319   1.856   9.082 -0.1721  0.1256  0.2776
17151SOL     OW60420   6.668  12.426   2.836 -0.7708 -0.1214  0.0842
17151SOL    HW160421   6.752  12.467   2.856 -0.5390 -0.6703  0.2686
17151SOL    HW260422   6.622  12.490   2.782  0.8357 -0.8236 -2.3371
17152SOL     OW60423   7.305   7.721   5.466  0.3248 -0.2448  0.1637
17152SOL    HW160424   7.213   7.746   5.455 -0.1369 -1.3130  1.3640
17152SOL    HW260425   7.326   7.673   5.386  0.2030  0.9562 -0.6179
17153SOL     OW60426   2.990   0.901  10.251 -0.2770 -0.3048 -0.1506
17153SOL    HW160427   3.025   0.907  10.340  0.5040  1.7133 -0.5380
17153SOL    HW260428   2.925   0.971  10.245  0.4209  0.2831 -1.4403
17154SOL     OW60429   0.509   8.430   3.317 -0.2077 -0.8798 -0.0504
17154SOL    HW160430   0.512   8.378   3.236 -0.3788 -1.2878  0.2009
17154SOL    HW260431   0.560   8.379   3.380 -0.1939 -0.6336  0.1360
17155SOL     OW60432   8.908   0.038   1.211 -0.1938 -0.0531  0.1366
17155SOL    HW160433   8.886   0.020   1.302  2.0347  0.7845  0.9065
17155SOL    HW260434   8.948  -0.043   1.179  0.6681  0.2437  0.4643
17156SOL     OW60435   0.685   9.915  10.040  0.3514  0.0010  0.0529
17156SOL    HW160436   0.596   9.946  10.021  0.2116  0.1352  0.8921
17156SOL    HW260437   0.673   9.826  10.074  0.5561 -0.0576 -0.0249
17157SOL     OW60438   8.860  12.459   8.574 -0.0439  0.4346 -0.7149
17157SOL    HW160439   8.789  12.402   8.605 -0.3810  1.5150  0.5980
17157SOL    HW260440   8.938  12.425   8.616 -0.6094  2.3544  2.1438
17158SOL     OW60441   3.420   3.283   3.053 -0.4815  0.4464 -0.2244
17158SOL    HW160442   3.483   3.230   3.100  0.7253  2.1330  0.1716
17158SOL    HW260443   3.341   3.280   3.106  0.3055  0.8864  1.0283
17159SOL     OW60444   0.998   8.214   5.807  0.0670  0.1233  0.2564
17159SOL    HW160445   0.971   8.162   5.883 -0.5243 -0.9651 -0.6776
17159SOL    HW260446   1.052   8.155   5.755  0.9997  1.0599  0.1266
17160SOL     OW60447   7.646   1.570   7.664 -0.4508 -0.2221  0.8239
17160SOL    HW160448   7.701   1.641   7.696 -0.3496  1.1225 -2.0564
17160SOL    HW260449   7.556   1.602   7.674 -0.3908  0.5834 -0.8905
17161SOL     OW60450   1.604   2.644   9.391  0.5553  0.0255  0.1314
17161SOL    HW160451   1.553   2.724   9.378  0.7011  0.1506  0.3113
17161SOL    HW260452   1.695   2.672   9.379  0.6226 -0.0644  0.4131
17162SOL     OW60453   1.078   5.729  10.243  0.3444 -0.0080 -0.0823
17162SOL    HW160454   1.049   5.638  10.251 -0.4258  0.3101  1.0081
17162SOL    HW260455   1.134   5.730  10.166  0.3584 -1.4085 -0.1105
17163SOL     OW60456   5.484   9.888   9.443  0.0963 -0.1025  0.4152
17163SOL    HW160457   5.494   9.983   9.436  0.3067 -0.0864  0.9022
17163SOL    HW260458   5.389   9.874   9.449  0.0479  0.0509  0.0460
17164SOL     OW60459   8.047  10.086   3.768 -0.6028 -0.1792 -0.3179
17164SOL    HW160460   7.954  10.090   3.790 -0.4988  1.7056 -0.0528
17164SOL    HW260461   8.091  10.068   3.851 -0.6731 -0.3470 -0.3162
17165SOL     OW60462   5.118   9.672   5.323 -0.9747  0.2920 -0.0236
17165SOL    HW160463   5.116   9.722   5.404 -2.2786  1.3713 -0.6736
17165SOL    HW260464   5.026   9.650   5.306 -0.8906  1.0849 -1.7544
17166SOL     OW60465   4.172   5.833   8.008 -0.3882 -0.1919  0.2575
17166SOL    HW160466   4.108   5.889   7.964 -0.4252  0.4867  1.1624
17166SOL    HW260467   4.120   5.762   8.045 -0.4725 -0.2429  0.0450
17167SOL     OW60468  11.521   1.666   4.815 -0.5745  0.2747 -0.0984
17167SOL    HW160469  11.574   1.600   4.770 -0.7721 -0.0049  0.0752
17167SOL    HW260470  11.524   1.639   4.907  0.0886  1.0167  0.1083
17168SOL     OW60471  12.137  11.830   1.911 -0.6104 -0.7358  0.4012
17168SOL    HW160472  12.169  11.864   1.827  0.3586  2.4636  1.9036
17168SOL    HW260473  12.063  11.774   1.887 -1.6642  1.6023 -2.5202
17169SOL     OW60474   0.191   3.954   9.794  0.0878  0.3101 -0.7727
17169SOL    HW160475   0.206   3.999   9.877  0.1256  0.1195 -0.6740
17169SOL    HW260476   0.275   3.914   9.773  0.1824  0.6762 -1.0980
17170SOL     OW60477   4.688   8.449   6.271 -0.0978 -0.5521 -0.9519
17170SOL    HW160478   4.733   8.367   6.252 -0.1463 -0.4380 -1.5895
17170SOL    HW260479   4.652   8.437   6.359 -0.8293 -1.5371 -1.3567
17171SOL     OW60480   3.578   8.799  11.927  0.2540 -0.0562  0.1451
17171SOL    HW160481   3.513   8.811  11.996  2.6069  2.7055  2.1457
17171SOL    HW260482   3.541   8.843  11.850 -0.8283  0.1854  0.7877
17172SOL     OW60483   9.494   9.043   7.461 -0.1179  0.4709 -0.3395
17172SOL    HW160484   9.483   9.096   7.383 -2.1637  0.4478 -0.1091
17172SOL    HW260485   9.416   8.988   7.465  1.2480 -1.5793  0.2065
17173SOL     OW60486   4.202   1.345   3.641 -0.6284 -0.8721 -0.8699
17173SOL    HW160487   4.244   1.324   3.724 -0.4039  0.6255 -0.5827
17173SOL    HW260488   4.150   1.267   3.620  0.6460 -1.9410 -0.1989
17174SOL     OW60489   1.444   4.046   5.333 -0.2911  0.6293  0.0046
17174SOL    HW160490   1.538   4.044   5.312 -0.4874  0.7536 -0.9179
17174SOL    HW260491   1.407   4.110   5.272 -0.8605  1.1634  0.8811
17175SOL     OW60492   2.506   9.801   1.071  0.3162  0.3634  0.2736
17175SOL    HW160493   2.565   9.822   1.143  0.0878  0.4295  0.4416
17175SOL    HW260494   2.520   9.871   1.007  0.0361  0.6664  0.5446
17176SOL     OW60495   4.669   9.971   6.557 -0.0324 -0.0511  0.3630
17176SOL    HW160496   4.744  10.027   6.576  1.3149 -1.4246 -0.6733
17176SOL    HW260497   4.707   9.886   6.536 -1.8151 -0.5122 -1.2918
17177SOL     OW60498   8.431   9.861   3.184 -0.2231  0.3537 -0.1132
17177SOL    HW160499   8.410   9.951   3.159  1.6367  1.6402  2.4829
17177SOL    HW260500   8.526   9.854   3.171  0.1686 -0.1802  2.4664
17178SOL     OW60501   7.679  11.945  11.517 -1.0828  0.5438 -0.2440
17178SOL    HW160502   7.630  12.027  11.524  0.0503  1.2170 -0.0439
17178SOL    HW260503   7.752  11.966  11.459 -0.7992 -0.3421 -0.2181
17179SOL     OW60504   0.630   3.280   3.847  0.0311  0.3201  0.2018
17179SOL    HW160505   0.565   3.317   3.786  0.4342 -0.6340 -0.8328
17179SOL    HW260506   0.578   3.224   3.905 -0.3194  1.0322  0.5949
17180SOL     OW60507  10.712   0.216   4.642 -0.0631 -0.2736  0.2628
17180SOL    HW160508  10.621   0.202   4.668 -0.1799  0.1653  0.1097
17180SOL    HW260509  10.723   0.162   4.564  0.2115 -1.3913  1.0508
17181SOL     OW60510  11.594   8.883   3.044 -0.1257  0.3042 -0.3043
17181SOL    HW160511  11.533   8.954   3.067  0.3749  0.8457 -0.6018
17181SOL    HW260512  11.664   8.927   2.995  1.2227 -0.0674  1.2153
17182SOL     OW60513  10.058   3.513   1.255  0.6615  0.2191 -0.0579
17182SOL    HW160514  10.086   3.500   1.346 -2.3320  0.3010  1.0013
17182SOL    HW260515  10.112   3.452   1.204  2.0063 -0.2737  1.8500
17183SOL     OW60516   8.634   9.384   0.802 -0.5196 -0.2684  0.3762
17183SOL    HW160517   8.672   9.316   0.746  0.0517 -0.1135  0.5643
17183SOL    HW260518   8.540   9.373   0.793 -0.4916  0.6126 -1.7057
17184SOL     OW60519  11.763   8.185   4.961  0.7435 -0.2979  0.1378
17184SOL    HW160520  11.776   8.090   4.960  2.0075 -0.1363 -0.1496
17184SOL    HW260521  11.684   8.199   4.908  1.1006 -1.1111 -0.6231
17185SOL     OW60522  11.397   7.990   0.808 -0.1853 -0.5027  0.7311
17185SOL    HW160523  11.433   7.925   0.746  0.4649  0.9898 -0.5323
17185SOL    HW260524  11.349   7.938   0.871  0.9799 -2.3016  0.2362
17186SOL     OW60525   0.082   5.488   1.114 -0.4990 -0.4815  0.4642
17186SOL    HW160526   0.034   5.531   1.185  0.5431 -1.3184  1.7067
17186SOL    HW260527   0.159   5.450   1.156  0.4031 -0.5896 -1.2054
17187SOL     OW60528   4.348   9.232   0.666  0.3490 -0.6234 -0.2654
17187SOL    HW160529   4.270   9.283   0.686  1.0448  1.3648 -2.2032
17187SOL    HW260530   4.329   9.190   0.583  0.6201 -1.7445  0.2286
17188SOL     OW60531   7.354   4.464  11.873 -0.0319 -0.0461 -0.5029
17188SOL    HW160532   7.327   4.387  11.824 -1.4532 -0.4813  0.8571
17188SOL    HW260533   7.445   4.447  11.897 -0.8586 -2.3667  1.5293
17189SOL     OW60534  11.844   4.738   9.426 -0.5120  0.0256  0.5529
17189SOL    HW160535  11.853   4.800   9.498  0.7607  0.6158 -0.0982
17189SOL    HW260536  11.919   4.755   9.369  0.6374 -2.9592  0.9954
17190SOL     OW60537   0.339   2.510   7.976  0.5715 -0.6186 -0.1896
17190SOL    HW160538   0.265   2.482   8.029  0.4756  0.0713  0.0525
17190SOL    HW260539   0.416   2.486   8.029  0.5191 -1.1444 -0.3469
17191SOL     OW60540   4.955   3.638   4.811 -0.4444 -0.2193  0.1160
17191SOL    HW160541   4.919   3.608   4.728  0.5624 -0.9666 -0.0699
17191SOL    HW260542   5.043   3.599   4.815  0.1646  1.1526  0.7668
17192SOL     OW60543   5.022   9.437   1.706 -0.0714  0.3248 -0.7632
17192SOL    HW160544   5.056   9.352   1.735 -0.6572 -0.2673 -1.7305
17192SOL    HW260545   5.080   9.502   1.745  0.6220 -0.5460 -0.3284
17193SOL     OW60546   7.420   8.027   2.105  0.3954  0.0379  0.3996
17193SOL    HW160547   7.360   8.007   2.177 -0.8587 -0.2865 -0.6804
17193SOL    HW260548   7.448   8.117   2.121  0.3525 -0.1282  1.4370
17194SOL     OW60549   2.023   4.334  11.323  0.7465 -0.4959  0.3952
17194SOL    HW160550   1.937   4.366  11.351 -0.1080 -1.8981 -0.4731
17194SOL    HW260551   2.086   4.390  11.369 -0.6133 -0.0806  1.8432
17195SOL     OW60552   6.689  11.206   8.691 -0.7833 -0.0723 -0.1871
17195SOL    HW160553   6.683  11.247   8.604  0.8818  0.8160  0.0682
17195SOL    HW260554   6.684  11.280   8.752  0.9494 -0.3304  0.3347
17196SOL     OW60555   7.452   2.555   5.553  0.4466  0.0025 -0.4073
17196SOL    HW160556   7.420   2.645   5.552  1.2408  0.2979  0.2890
17196SOL    HW260557   7.410   2.516   5.630 -0.4938 -0.4579 -1.1322
17197SOL     OW60558   1.291   8.378   6.042  0.2852 -0.5276  0.2474
17197SOL    HW160559   1.231   8.409   5.974 -0.8276 -1.0849  0.9583
17197SOL    HW260560   1.259   8.418   6.123  0.8520 -0.8620  0.6461
17198SOL     OW60561   0.851   7.201  10.568  0.2099 -0.4700  0.0050
17198SOL    HW160562   0.796   7.254  10.626  0.1657  0.2557 -0.6906
17198SOL    HW260563   0.900   7.265  10.517 -1.9833 -0.9534 -2.9701
17199SOL     OW60564   0.713   8.986   2.113  0.3617  0.1536  0.0103
17199SOL    HW160565   0.696   8.941   2.030  2.2997 -0.9919  0.1786
17199SOL    HW260566   0.715   8.916   2.178 -2.0944  1.1351  1.2713
17200SOL     OW60567   7.312   2.944   7.442 -0.2191  0.1333 -0.3975
17200SOL    HW160568   7.240   2.883   7.428 -0.1859  0.1745 -0.7513
17200SOL    HW260569   7.273   3.030   7.430 -0.6527  0.2886  1.6976
17201SOL     OW60570   0.895   9.401  11.413  0.0261  0.0494 -0.6019
17201SOL    HW160571   0.951   9.411  11.336  0.1691  0.1945 -0.4790
17201SOL    HW260572   0.875   9.490  11.440 -0.9299  0.0081 -1.1268
17202SOL     OW60573  12.100   0.832  10.154 -0.5556  0.4307  0.7684
17202SOL    HW160574  12.100   0.801  10.245 -1.3884 -2.1394 -0.0209
17202SOL    HW260575  12.038   0.906  10.155 -2.0495 -0.7425  1.9810
17203SOL     OW60576   4.217   9.940   2.438 -0.1240  0.0409  0.1730
17203SOL    HW160577   4.189   9.870   2.497  1.1085  0.2403  1.0274
17203SOL    HW260578   4.164  10.015   2.465 -1.5274 -0.5423 -0.8152
17204SOL     OW60579  10.817  10.812  11.250 -0.4827 -0.2258 -0.5288
17204SOL    HW160580  10.873  10.765  11.188  0.4023 -1.1657  0.9320
17204SOL    HW260581  10.825  10.904  11.225  1.9087 -0.3052 -0.2523
17205SOL     OW60582   6.937  10.341   2.312  0.1520  0.0939  0.3022
17205SOL    HW160583   6.903  10.258   2.345  1.2873 -0.4691  0.1022
17205SOL    HW260584   6.859  10.393   2.294 -0.5551 -0.5247  1.4356
17206SOL     OW60585   7.743   9.311  11.589  0.0576  0.1840  0.2153
17206SOL    HW160586   7.671   9.278  11.642  1.2023 -2.1112  0.4590
17206SOL    HW260587   7.819   9.306  11.646  0.9212 -0.2155 -0.9391
17207SOL     OW60588   5.539   3.800   6.229  0.3186  0.3914  0.2361
17207SOL    HW160589   5.548   3.871   6.165 -1.2423  0.1283 -0.3203
17207SOL    HW260590   5.527   3.721   6.176 -1.3589  0.2194  0.8082
17208SOL     OW60591   6.592   5.951  12.383  0.2895 -0.5637 -0.4616
17208SOL    HW160592   6.674   5.994  12.356 -0.7124  1.0121 -1.1094
17208SOL    HW260593   6.546   5.933  12.301 -1.4761  1.5981 -0.0387
17209SOL     OW60594   9.168   5.441   4.553 -0.1034 -0.5407 -0.3908
17209SOL    HW160595   9.102   5.423   4.486 -1.5489 -1.1115  1.1360
17209SOL    HW260596   9.228   5.366   4.549 -1.3696 -1.6272  0.3189
17210SOL     OW60597   8.836   4.259   7.162 -0.8403 -0.2084  0.1103
17210SOL    HW160598   8.811   4.284   7.073 -0.0384  0.1266 -0.0255
17210SOL    HW260599   8.881   4.336   7.197 -0.5592 -0.5773  0.5688
17211SOL     OW60600   9.285   8.736   3.676 -0.0668 -0.3327 -0.1254
17211SOL    HW160601   9.242   8.818   3.650  1.5017  0.5056 -0.2138
17211SOL    HW260602   9.331   8.759   3.757  0.3281 -1.1537 -0.1134
17212SOL     OW60603   9.367   8.490  12.144  0.1125  0.3618 -0.3587
17212SOL    HW160604   9.319   8.411  12.169 -0.6826  1.2095  0.9206
17212SOL    HW260605   9.458   8.468  12.161 -0.0656 -0.3914 -0.3114
17213SOL     OW60606   9.388   6.990   9.540 -0.6511  0.0731  0.6666
17213SOL    HW160607   9.391   7.011   9.447 -2.6719 -0.0266  0.5348
17213SOL    HW260608   9.332   6.913   9.546 -0.3251 -0.0948  1.9401
17214SOL     OW60609   5.175   4.835   6.523 -0.0340  0.1470 -0.0212
17214SOL    HW160610   5.196   4.928   6.520 -0.4450  0.2506  0.1477
17214SOL    HW260611   5.108   4.823   6.456 -0.8889  0.2253  0.7926
17215SOL     OW60612   5.567   1.541   0.767  0.1299 -0.2267  0.4723
17215SOL    HW160613   5.481   1.561   0.729  1.0234 -0.6404 -1.9610
17215SOL    HW260614   5.556   1.453   0.803 -0.1945 -0.7879 -0.9111
17216SOL     OW60615   2.534  11.291  11.916 -0.3868  0.7282  1.1041
17216SOL    HW160616   2.585  11.218  11.882  1.1204  1.9068  0.6865
17216SOL    HW260617   2.591  11.367  11.903 -1.6899  1.8976  1.9872
17217SOL     OW60618   4.215   8.942   9.027 -0.4852 -0.6999 -0.0587
17217SOL    HW160619   4.137   8.897   8.996  1.5929 -2.8672 -2.7123
17217SOL    HW260620   4.221   9.021   8.972 -1.3397  0.0889  0.9407
17218SOL     OW60621   4.081  11.744   3.826 -0.1310 -0.3532  0.3085
17218SOL    HW160622   4.154  11.695   3.865 -0.0236  0.4452  1.1524
17218SOL    HW260623   4.052  11.690   3.753  1.7391 -0.3815 -0.4532
17219SOL     OW60624   4.713   5.886   1.899  0.4624  0.2487 -0.0328
17219SOL    HW160625   4.722   5.867   1.806 -1.4138  1.3428 -0.5053
17219SOL    HW260626   4.631   5.935   1.905  0.0550 -0.5944  2.3244
17220SOL     OW60627   1.551   0.300   3.672  0.3985  0.0170 -0.3008
17220SOL    HW160628   1.574   0.325   3.761  0.7806  0.0719 -0.4140
17220SOL    HW260629   1.455   0.307   3.669  0.4362  0.7013 -0.0951
17221SOL     OW60630   8.901   9.364  11.221 -0.3880 -0.0191 -0.5016
17221SOL    HW160631   8.901   9.280  11.268 -1.7392  0.0704 -0.2908
17221SOL    HW260632   8.844   9.421  11.273  0.2527  0.9360 -0.8177
17222SOL     OW60633   7.848   3.956   5.247  0.0211  0.7985 -0.0410
17222SOL    HW160634   7.912   4.006   5.196  1.9711 -1.5668 -0.1502
17222SOL    HW260635   7.850   3.868   5.207 -1.8934  0.1316  1.2002
17223SOL     OW60636   5.578   9.237  10.467  0.4045 -0.3086 -0.5369
17223SOL    HW160637   5.665   9.199  10.453 -0.5291 -2.3769 -1.0146
17223SOL    HW260638   5.546   9.193  10.546 -0.9912 -1.0790 -1.5057
17224SOL     OW60639   6.080   7.415   2.369  0.3686  0.1858  0.5247
17224SOL    HW160640   6.175   7.422   2.366  0.4577 -0.0862  1.9928
17224SOL    HW260641   6.062   7.323   2.351  0.3384  0.3271 -0.2127
17225SOL     OW60642   7.630  11.026   7.647 -0.1747 -0.2399 -0.0220
17225SOL    HW160643   7.620  11.063   7.735  1.8976  1.3894 -0.4044
17225SOL    HW260644   7.659  10.936   7.663  2.3535  0.6682  1.0703
17226SOL     OW60645  10.357   0.731   4.683 -0.0936 -0.1513 -0.2336
17226SOL    HW160646  10.339   0.750   4.591 -2.1976 -1.0968 -0.0877
17226SOL    HW260647  10.328   0.640   4.694  0.6478 -0.2301  1.2412
17227SOL     OW60648   7.731  11.924   5.795  0.7934 -0.0519  0.5532
17227SOL    HW160649   7.716  11.832   5.815  0.1217  0.3539  2.1014
17227SOL    HW260650   7.679  11.972   5.860  1.2672  1.4202 -0.0929
17228SOL     OW60651   9.111  12.095   3.600  0.1342  0.1441  0.4986
17228SOL    HW160652   9.042  12.061   3.543 -0.0757 -0.0238  0.8424
17228SOL    HW260653   9.132  12.021   3.657 -0.5016  0.6522  1.4213
17229SOL     OW60654   4.784   1.258   6.804  0.6053  0.1270 -0.0878
17229SOL    HW160655   4.811   1.339   6.848  0.6805  0.0006  0.1000
17229SOL    HW260656   4.866   1.218   6.776  0.4883  1.0654 -1.8968
17230SOL     OW60657   5.369   2.715   8.712 -0.3822 -0.1969 -0.5032
17230SOL    HW160658   5.355   2.642   8.652  1.2536 -1.1276  0.1818
17230SOL    HW260659   5.397   2.673   8.794  1.3909  1.1860 -0.3335
17231SOL     OW60660   1.104   5.735   6.831 -0.2015 -0.2516  0.2706
17231SOL    HW160661   1.188   5.777   6.847 -1.0856  2.1103 -0.8492
17231SOL    HW260662   1.081   5.761   6.742 -2.0344 -0.9922  0.4816
17232SOL     OW60663  12.221   0.166   6.319 -0.0211 -0.2967 -0.4612
17232SOL    HW160664  12.149   0.167   6.256  0.2386 -0.3984 -0.7610
17232SOL    HW260665  12.255   0.256   6.319  0.8059 -0.5867 -1.4298
17233SOL     OW60666   5.597   4.571   1.516 -0.1924 -0.5217  0.1018
17233SOL    HW160667   5.563   4.484   1.492 -1.1517  0.4181 -2.2520
17233SOL    HW260668   5.675   4.581   1.461 -0.5928  0.4402 -0.3014
17234SOL     OW60669   6.316   4.983   7.638  0.4287  0.8694 -0.0674
17234SOL    HW160670   6.392   5.014   7.687 -0.3077 -0.7196  2.2325
17234SOL    HW260671   6.241   5.021   7.684 -0.2389  0.9301 -1.1759
17235SOL     OW60672   7.208   3.980   4.636  0.0385 -0.3686  0.5514
17235SOL    HW160673   7.147   3.948   4.570  0.9628 -0.6456 -0.1828
17235SOL    HW260674   7.185   3.932   4.715 -0.8932 -0.2454  0.3701
17236SOL     OW60675  10.813   3.140   4.402 -0.0694  0.2580  0.0611
17236SOL    HW160676  10.896   3.091   4.397  0.7823  1.1322  3.3501
17236SOL    HW260677  10.820   3.205   4.332  2.3889  0.7230  0.6219
17237SOL     OW60678   7.106   5.161   5.273 -0.3055  0.0613 -0.2075
17237SOL    HW160679   7.081   5.150   5.364  1.9566 -1.4472  0.3443
17237SOL    HW260680   7.140   5.250   5.267 -0.2113  0.0759  0.5147
17238SOL     OW60681   0.672  11.363   2.151 -0.4903  0.0421 -0.4780
17238SOL    HW160682   0.749  11.393   2.199 -0.8699  1.2047 -0.5785
17238SOL    HW260683   0.625  11.308   2.214 -0.5684  0.8936  0.2271
17239SOL     OW60684   8.662  10.895  10.620 -0.4628  0.4706  0.2605
17239SOL    HW160685   8.727  10.848  10.567 -0.2631  0.0364  0.8877
17239SOL    HW260686   8.700  10.982  10.634 -0.0691  0.2519  0.5358
17240SOL     OW60687   1.960  12.385   6.785 -0.2461 -0.3188  0.5883
17240SOL    HW160688   1.947  12.447   6.713  0.2183 -0.1722  0.6239
17240SOL    HW260689   1.896  12.411   6.851 -0.9141 -0.6776  0.0844
17241SOL     OW60690   8.472   8.921  10.637  0.3305  0.1744  0.1289
17241SOL    HW160691   8.523   8.960  10.566 -1.4832  0.9500 -0.8189
17241SOL    HW260692   8.536   8.904  10.706  1.9693  0.4154 -1.2628
17242SOL     OW60693   1.521   9.035   8.838  0.0954  0.0002  0.4177
17242SOL    HW160694   1.558   9.015   8.924  0.1238 -1.5709  0.0604
17242SOL    HW260695   1.593   9.074   8.789  0.1559  0.6424  0.9954
17243SOL     OW60696   1.455  10.145  11.425 -0.1289 -0.3341 -0.2755
17243SOL    HW160697   1.447  10.072  11.486  0.6840 -0.4358 -0.2686
17243SOL    HW260698   1.367  10.159  11.391 -0.4123 -0.8855  0.2182
17244SOL     OW60699   3.164   5.618   3.894 -0.0703  0.5815  0.3597
17244SOL    HW160700   3.135   5.531   3.865  0.1271  0.8573 -0.7216
17244SOL    HW260701   3.202   5.603   3.981  2.4780 -0.9444 -0.8792
17245SOL     OW60702  10.890   5.619   8.102  0.0988 -0.5071  0.6498
17245SOL    HW160703  10.890   5.564   8.181  0.3281 -0.9779  0.3246
17245SOL    HW260704  10.971   5.597   8.057  0.8159  0.9897  1.1206
17246SOL     OW60705   2.846  11.442   7.357  0.2215 -0.3941  0.3738
17246SOL    HW160706   2.779  11.478   7.299  0.9753  1.2647  0.4727
17246SOL    HW260707   2.882  11.518   7.403  2.3160 -1.1667  0.1589
17247SOL     OW60708  11.129  10.088   0.287  0.4428 -0.8077 -0.1961
17247SOL    HW160709  11.129  10.117   0.196 -0.1372 -1.0343 -0.2723
17247SOL    HW260710  11.202  10.027   0.292  0.3549 -0.9515 -0.5674
17248SOL     OW60711   6.633   7.220   8.923  0.2714 -0.3837 -0.0725
17248SOL    HW160712   6.620   7.131   8.889 -2.2238  0.2293 -0.9939
17248SOL    HW260713   6.663   7.270   8.847  0.4345 -0.1968  0.1152
17249SOL     OW60714  10.266   7.239  10.895 -0.5146 -0.0196 -0.1028
17249SOL    HW160715  10.255   7.208  10.985  1.1702  0.8064  0.4272
17249SOL    HW260716  10.343   7.192  10.864 -0.7623  0.1214 -0.9330
17250SOL     OW60717   6.993   7.216   6.121 -0.0336 -0.2545  0.1841
17250SOL    HW160718   6.922   7.264   6.164 -0.4291  0.5045 -1.2467
17250SOL    HW260719   6.975   7.225   6.028  3.0590  1.7535 -0.3716
17251SOL     OW60720  12.155   0.244   4.808 -0.2916  0.5933 -0.3194
17251SOL    HW160721  12.217   0.313   4.785  1.9277 -0.7538  1.2055
17251SOL    HW260722  12.156   0.242   4.904 -1.5716 -0.4747 -0.2981
17252SOL     OW60723   9.968   3.152   1.247  0.7909 -0.4502  0.3066
17252SOL    HW160724  10.041   3.213   1.242  0.2817  0.2530  1.1912
17252SOL    HW260725   9.949   3.146   1.341 -1.2606  0.5508 -0.0041
17253SOL     OW60726   0.322  11.540   2.939 -0.2134 -0.4788  0.2059
17253SOL    HW160727   0.261  11.503   2.876 -0.1963  0.7021 -0.5226
17253SOL    HW260728   0.325  11.633   2.919  3.1228 -0.6942 -0.9221
17254SOL     OW60729  10.202  12.453   8.500 -0.0070 -0.4093 -0.0900
17254SOL    HW160730  10.166  12.519   8.442  1.2308  2.4480  2.1520
17254SOL    HW260731  10.292  12.440   8.470  0.8179  1.4915  1.3800
17255SOL     OW60732   3.260   6.199   5.646 -0.0694 -0.0676 -0.0877
17255SOL    HW160733   3.228   6.264   5.708  0.0083 -0.0053 -0.1132
17255SOL    HW260734   3.265   6.118   5.696  2.0839  0.4185  0.6083
17256SOL     OW60735   9.528   3.604   4.613 -0.0119  0.6101  0.0152
17256SOL    HW160736   9.618   3.629   4.633  0.3053  0.2267 -0.8740
17256SOL    HW260737   9.478   3.685   4.619  0.1216  0.5937  1.8898
17257SOL     OW60738   8.381   5.943   7.893  0.0239 -0.6780  0.2656
17257SOL    HW160739   8.383   5.960   7.987 -2.7212 -0.6868  0.3820
17257SOL    HW260740   8.373   5.848   7.885 -2.4741 -0.5017  0.1539
17258SOL     OW60741   2.849   4.964   3.017 -0.3430 -0.1076 -0.4305
17258SOL    HW160742   2.865   5.049   2.976 -1.8211 -0.8531 -2.7199
17258SOL    HW260743   2.794   4.985   3.093  1.2477  1.1629  0.4206
17259SOL     OW60744   8.273  11.443   3.669  0.2378  0.1266 -0.4952
17259SOL    HW160745   8.227  11.489   3.739  0.2201  1.5364 -1.3848
17259SOL    HW260746   8.366  11.457   3.687  0.2275  1.2046 -1.1649
17260SOL     OW60747   2.843   1.246  10.301 -0.0367  0.2399  0.1886
17260SOL    HW160748   2.881   1.244  10.213 -0.9985 -1.3115 -0.2548
17260SOL    HW260749   2.804   1.333  10.309 -3.0365 -0.6485 -2.4096
17261SOL     OW60750   0.244  11.405   5.914 -0.6361 -0.3725 -0.3879
17261SOL    HW160751   0.239  11.310   5.929  1.5691 -0.3921  0.6420
17261SOL    HW260752   0.281  11.439   5.996 -2.8176  1.6179 -0.1285
17262SOL     OW60753   4.677   5.010   8.991  0.4029  0.2922  0.0803
17262SOL    HW160754   4.753   5.040   9.041 -0.4745  1.0518  1.0114
17262SOL    HW260755   4.668   5.074   8.921 -0.4415  1.3014  1.0581
17263SOL     OW60756   4.442   9.139  10.339  0.1759  0.0190 -0.0490
17263SOL    HW160757   4.381   9.085  10.389  1.2166  0.5039  1.8250
17263SOL    HW260758   4.420   9.229  10.363  0.3802  0.2960 -0.8588
17264SOL     OW60759   7.488   1.908   4.569  1.1940  0.2558  0.8304
17264SOL    HW160760   7.507   1.858   4.490 -0.3869  3.1990 -1.6446
17264SOL    HW260761   7.416   1.861   4.611 -1.1639  0.8798 -2.1226
17265SOL     OW60762   7.508   7.883   3.419  0.3439 -0.3948  0.2710
17265SOL    HW160763   7.512   7.789   3.438  0.1397 -0.5584 -0.4408
17265SOL    HW260764   7.433   7.892   3.360 -0.5085  0.4206  1.4267
17266SOL     OW60765   6.269   2.511   2.034 -0.0389  0.3696 -0.2870
17266SOL    HW160766   6.262   2.521   1.939  1.3576  1.3617 -0.3270
17266SOL    HW260767   6.270   2.417   2.049  0.4792  0.1943 -1.3372
17267SOL     OW60768   2.464   2.242   6.516 -0.4635  0.1462 -0.0175
17267SOL    HW160769   2.395   2.205   6.571 -0.9721 -0.1589 -0.8486
17267SOL    HW260770   2.461   2.336   6.534 -1.2790  0.1668 -0.2402
17268SOL     OW60771  11.045   0.505  11.572  0.0942  0.8038  0.3123
17268SOL    HW160772  10.981   0.554  11.519  0.5070  0.7928 -0.2116
17268SOL    HW260773  11.063   0.426  11.520  1.1871  1.2216  0.0145
17269SOL     OW60774   7.108   6.348   2.548  0.6057  0.0924 -0.1732
17269SOL    HW160775   7.089   6.441   2.533 -0.3637 -0.2220 -0.9709
17269SOL    HW260776   7.062   6.302   2.478  2.2097 -0.9120 -0.6220
17270SOL     OW60777   8.332   9.859   0.472 -0.1201 -0.0955 -0.0383
17270SOL    HW160778   8.341   9.946   0.434  4.0628 -0.6900 -0.9527
17270SOL    HW260779   8.362   9.869   0.562 -0.3933 -0.4255  0.0903
17271SOL     OW60780   0.772   5.917   2.968 -0.3450 -0.1297  0.2559
17271SOL    HW160781   0.681   5.918   2.939 -0.0888 -0.2544 -0.5794
17271SOL    HW260782   0.785   6.003   3.007 -0.3381  0.5553 -1.1933
17272SOL     OW60783   3.740   6.064   9.240 -0.1271 -0.4191 -0.1098
17272SOL    HW160784   3.689   6.144   9.233  2.6806  1.5545  0.3209
17272SOL    HW260785   3.711   6.011   9.166 -0.9191  1.7105 -1.4112
17273SOL     OW60786   2.363   0.787   9.308 -0.3902  0.2229  0.5265
17273SOL    HW160787   2.277   0.811   9.343  0.3256  1.1352  1.7539
17273SOL    HW260788   2.375   0.845   9.232 -1.5456 -1.0930 -0.7120
17274SOL     OW60789   9.732   9.350   7.242  0.2186 -0.0672 -0.1745
17274SOL    HW160790   9.723   9.419   7.308 -0.1556  0.4759 -0.7774
17274SOL    HW260791   9.826   9.347   7.223  0.1107  1.1019 -0.9869
17275SOL     OW60792   1.042   7.072   5.555  0.5114 -0.1291  0.4467
17275SOL    HW160793   1.061   7.157   5.515 -0.5668  0.8715  1.9887
17275SOL    HW260794   0.964   7.041   5.509 -0.2589  0.6480  1.2060
17276SOL     OW60795   5.205   0.324   1.648  0.3529 -0.3480  0.0317
17276SOL    HW160796   5.268   0.262   1.685  0.4195 -0.2761  0.0395
17276SOL    HW260797   5.136   0.269   1.612  0.1587 -0.4103  0.4918
17277SOL     OW60798   4.128  11.661   7.719 -0.5164 -0.1996 -0.1047
17277SOL    HW160799   4.146  11.683   7.627  3.8090 -0.4533  0.4977
17277SOL    HW260800   4.130  11.745   7.764 -0.6767 -0.2825  0.0575
17278SOL     OW60801   2.935   4.947  10.810  0.9378 -0.0927  0.0645
17278SOL    HW160802   3.029   4.930  10.817  0.9314 -0.6187 -0.8656
17278SOL    HW260803   2.929   5.042  10.800  1.5743 -0.2075 -2.0258
17279SOL     OW60804   9.631  10.679  10.017  0.4474  0.2045  0.1095
17279SOL    HW160805   9.714  10.658   9.974  0.7882 -0.0025  0.8658
17279SOL    HW260806   9.624  10.774  10.009 -0.9101 -0.0191 -2.9823
17280SOL     OW60807   4.128   0.140   3.359  0.3662  0.0394 -0.0712
17280SOL    HW160808   4.205   0.149   3.415  1.0400 -1.1014 -0.7730
17280SOL    HW260809   4.087   0.058   3.387  0.1668 -0.0410 -0.5826
17281SOL     OW60810   2.086   9.045  11.482  0.5366 -0.8337  0.8611
17281SOL    HW160811   1.997   9.027  11.451  0.6879 -2.4565  1.2607
17281SOL    HW260812   2.109   9.128  11.442 -1.1180 -0.4310  0.6532
17282SOL     OW60813  10.641   8.419  11.325 -0.3384 -0.5097  0.5088
17282SOL    HW160814  10.577   8.354  11.352 -2.3920  1.2666  0.1693
17282SOL    HW260815  10.628   8.428  11.231  0.0374  0.2430  0.5192
17283SOL     OW60816   7.519   0.130   2.814  0.2019 -0.4016 -0.3129
17283SOL    HW160817   7.563   0.128   2.728  1.0872  1.2558  0.0433
17283SOL    HW260818   7.580   0.086   2.873  0.1297 -0.5182 -0.3258
17284SOL     OW60819   8.260   0.220   2.992 -0.0923  0.2210 -0.4718
17284SOL    HW160820   8.308   0.151   2.945 -2.4792 -3.8554  2.3952
17284SOL    HW260821   8.168   0.202   2.973 -0.8101  3.0904 -0.0531
17285SOL     OW60822   6.772   5.517  11.485  0.2356  0.1435  0.0019
17285SOL    HW160823   6.815   5.506  11.401 -1.3963  0.9026 -0.9775
17285SOL    HW260824   6.678   5.524  11.464 -0.0459  2.5117  1.6312
17286SOL     OW60825  12.347   7.410   4.060 -0.0155  0.0467 -0.3253
17286SOL    HW160826  12.311   7.493   4.092  0.0363  0.0451 -0.2620
17286SOL    HW260827  12.271   7.360   4.031 -0.2432 -0.6049  1.3001
17287SOL     OW60828  11.364   9.420   0.969 -0.2669 -0.6680  0.0048
17287SOL    HW160829  11.298   9.463   1.025 -1.3655 -1.4598 -0.6511
17287SOL    HW260830  11.402   9.353   1.025 -0.6669 -0.8121  0.1092
17288SOL     OW60831   3.930   3.030   4.064 -0.0170  0.5610 -0.3360
17288SOL    HW160832   3.943   3.098   3.998  0.7542 -0.3934 -1.1862
17288SOL    HW260833   3.989   3.055   4.135  1.2604  0.0789 -1.2060
17289SOL     OW60834  10.842   7.896   4.396  0.1551  0.5685 -0.4549
17289SOL    HW160835  10.827   7.927   4.485  0.0050 -1.1205  0.1537
17289SOL    HW260836  10.759   7.855   4.371  0.8856 -0.9888 -0.4627
17290SOL     OW60837   3.611   3.845   3.897 -0.4677 -0.5018 -0.1380
17290SOL    HW160838   3.553   3.891   3.837 -0.6156 -1.4891 -0.7776
17290SOL    HW260839   3.560   3.770   3.927 -0.6414  0.3155  1.7628
17291SOL     OW60840   6.061   9.195   4.083  0.4134  0.1308  0.0850
17291SOL    HW160841   5.985   9.137   4.082 -0.4982  1.2945 -0.6902
17291SOL    HW260842   6.061   9.234   4.171  0.6061 -0.4779  0.3599
17292SOL     OW60843   0.500   5.611   6.044 -0.0070 -0.2135  0.5386
17292SOL    HW160844   0.468   5.563   5.968 -0.0859 -1.4476  1.3113
17292SOL    HW260845   0.436   5.680   6.058 -0.2149 -0.2389 -0.2603
17293SOL     OW60846   8.156   9.568   9.401 -0.4571  0.6508  0.4813
17293SOL    HW160847   8.104   9.647   9.415 -0.9684  0.2098  1.1337
17293SOL    HW260848   8.242   9.589   9.438  0.1628  1.7050 -1.4205
17294SOL     OW60849   8.172   7.219   4.517 -0.4380  0.1775 -0.7113
17294SOL    HW160850   8.236   7.202   4.586 -2.2916  0.2105  1.1661
17294SOL    HW260851   8.117   7.140   4.516 -2.1454  1.2843 -0.0700
17295SOL     OW60852   9.773   3.522   8.381 -0.0315  0.0168 -0.0616
17295SOL    HW160853   9.738   3.434   8.393  1.8785 -0.6922  0.5076
17295SOL    HW260854   9.746   3.547   8.292 -1.4652 -0.6883  0.1400
17296SOL     OW60855   7.090  11.311  10.100 -0.7809 -0.3304 -0.4629
17296SOL    HW160856   7.035  11.311  10.178 -0.4791  2.3281 -0.1344
17296SOL    HW260857   7.059  11.387  10.049  2.3790  1.2120 -0.3411
17297SOL     OW60858   3.684   7.249   8.505 -0.2284 -0.0717 -0.0496
17297SOL    HW160859   3.675   7.298   8.423  0.4443  1.9062  0.9854
17297SOL    HW260860   3.761   7.194   8.492 -0.6336 -0.4267 -1.0267
17298SOL     OW60861   9.397   0.405   6.543  0.6168 -0.2739  0.6515
17298SOL    HW160862   9.447   0.482   6.516  0.6338  0.4473  2.5726
17298SOL    HW260863   9.463   0.344   6.576  0.5016 -0.6433  0.2018
17299SOL     OW60864  10.962   9.822   2.570  0.5673  0.1859  0.5409
17299SOL    HW160865  10.922   9.830   2.484  0.9908 -0.5942  0.2610
17299SOL    HW260866  11.019   9.745   2.563  0.4477 -0.0148  1.5715
17300SOL     OW60867   3.811   1.425  10.206 -0.4172 -0.6631 -0.0529
17300SOL    HW160868   3.749   1.415  10.278 -0.0952  0.4268  0.3915
17300SOL    HW260869   3.760   1.406  10.127 -0.8815 -1.4424  0.4229
17301SOL     OW60870   8.064   1.548   6.844  0.0464 -0.4705 -0.3779
17301SOL    HW160871   8.127   1.476   6.840 -0.5802 -1.1001  0.5848
17301SOL    HW260872   7.978   1.506   6.834 -0.4266 -0.0919  1.6607
17302SOL     OW60873   4.647   4.796  11.526 -0.2705 -0.1386  0.3497
17302SOL    HW160874   4.725   4.811  11.473  0.1786  0.1663  1.0750
17302SOL    HW260875   4.665   4.841  11.609 -0.7392 -1.0156  0.9542
17303SOL     OW60876   7.602  10.762   2.243 -0.7285  0.0419  0.5736
17303SOL    HW160877   7.674  10.713   2.205 -1.7628  0.3327 -1.9403
17303SOL    HW260878   7.525  10.707   2.228 -1.0894 -0.4172  3.4916
17304SOL     OW60879  10.139   1.282  10.603  0.2907 -0.1012  0.3480
17304SOL    HW160880  10.073   1.336  10.561  1.8845  0.7121 -1.2712
17304SOL    HW260881  10.114   1.281  10.696 -3.7803 -2.5411 -0.5352
17305SOL     OW60882  12.249   1.206   8.964 -0.3798  0.0682 -0.8661
17305SOL    HW160883  12.334   1.213   9.006 -0.9158 -0.3908  0.3520
17305SOL    HW260884  12.252   1.268   8.891  0.6730  0.6871 -0.3062
17306SOL     OW60885   0.636   7.516  11.539 -0.3282  0.3104  0.0490
17306SOL    HW160886   0.561   7.575  11.547 -2.3773 -2.1916  0.5729
17306SOL    HW260887   0.649   7.506  11.445 -0.5122  0.9056 -0.0431
17307SOL     OW60888   3.701  11.145   2.183 -0.1135  0.0429  0.0272
17307SOL    HW160889   3.724  11.136   2.090  1.2501  1.4668  0.1776
17307SOL    HW260890   3.674  11.057   2.210 -1.1336 -0.2716 -1.8457
17308SOL     OW60891   1.396   0.963   8.558  0.3052 -0.0818 -0.2714
17308SOL    HW160892   1.360   1.035   8.505  1.6770  1.2452  0.5156
17308SOL    HW260893   1.338   0.889   8.540 -1.3246  1.2820 -0.9125
17309SOL     OW60894   9.203  11.598   4.123  0.0936 -0.6212 -0.0253
17309SOL    HW160895   9.237  11.509   4.121  0.5143 -0.4635 -1.8245
17309SOL    HW260896   9.181  11.618   4.032  2.8791  2.1619 -0.2572
17310SOL     OW60897   3.356   2.965   0.510 -0.1753 -0.1296 -0.1855
17310SOL    HW160898   3.409   3.002   0.580 -0.7216  2.3254 -0.9424
17310SOL    HW260899   3.398   2.996   0.429 -2.2339  1.2219 -0.8155
17311SOL     OW60900   7.239   7.013   5.079 -0.5608  0.3860  0.5933
17311SOL    HW160901   7.265   6.943   5.020  0.1170 -0.4514  1.8467
17311SOL    HW260902   7.222   6.969   5.162 -0.0679  1.7086  1.4236
17312SOL     OW60903   0.347   2.855   8.610  0.0071  0.1027  0.0995
17312SOL    HW160904   0.382   2.881   8.695  2.5045 -1.2560 -0.4259
17312SOL    HW260905   0.259   2.895   8.607  0.5763  1.7448  2.4880
17313SOL     OW60906   9.561  10.338   6.801 -0.1852 -0.0180  0.4750
17313SOL    HW160907   9.498  10.356   6.731  1.4831 -1.2629 -1.4545
17313SOL    HW260908   9.575  10.243   6.797 -0.0968 -0.1441  2.6077
17314SOL     OW60909   7.356   6.395   3.024 -0.2051  0.1149 -0.0577
17314SOL    HW160910   7.314   6.463   2.971 -2.0605 -0.6191  0.3915
17314SOL    HW260911   7.324   6.312   2.987 -0.7760 -0.4279  1.5608
17315SOL     OW60912   3.980   2.158  10.694  0.3893 -0.9753  0.3204
17315SOL    HW160913   4.021   2.117  10.618 -0.7398 -2.7372  0.6002
17315SOL    HW260914   3.886   2.154  10.675  0.2056  0.7652  0.7555
17316SOL     OW60915   7.582   1.621   9.036 -0.0545  0.1233 -0.6338
17316SOL    HW160916   7.625   1.640   9.119  0.1688 -0.7257 -0.5480
17316SOL    HW260917   7.647   1.642   8.969 -0.6819  2.0950 -0.6897
17317SOL     OW60918   1.989   2.378   3.982 -0.1137  0.4541 -0.3557
17317SOL    HW160919   1.933   2.374   3.905  0.0232  0.2653 -0.4465
17317SOL    HW260920   2.049   2.451   3.964  0.0149  0.3160 -0.4968
17318SOL     OW60921   4.109   2.083   4.516  0.1512 -0.2057 -0.0867
17318SOL    HW160922   4.097   2.148   4.585 -1.5210 -0.6606  0.1022
17318SOL    HW260923   4.155   2.129   4.446 -1.7315  1.4499 -0.3105
17319SOL     OW60924   5.957   4.289   1.468 -0.5298 -0.1911  0.0062
17319SOL    HW160925   5.951   4.377   1.506  1.6373  0.0514 -0.0740
17319SOL    HW260926   6.038   4.254   1.503 -1.0779 -1.9627 -0.4291
17320SOL     OW60927   2.328   2.148   4.276  0.8814  0.0464  0.3701
17320SOL    HW160928   2.403   2.095   4.301  1.5206  0.5113 -0.5303
17320SOL    HW260929   2.339   2.229   4.327 -0.0237 -0.5834  1.6434
17321SOL     OW60930   2.523  11.153  10.686  0.3231 -0.5066 -0.3106
17321SOL    HW160931   2.591  11.112  10.739 -0.3537 -0.9330  0.2490
17321SOL    HW260932   2.487  11.082  10.632 -0.3952 -0.5201  0.1724
17322SOL     OW60933   4.645  12.174  11.278 -0.1153 -0.2451 -0.2173
17322SOL    HW160934   4.672  12.084  11.259  1.1859  0.2341 -0.7092
17322SOL    HW260935   4.608  12.170  11.366  0.2175 -1.2091 -0.1131
17323SOL     OW60936  11.850   8.081   7.364  0.1507 -0.4306  0.2049
17323SOL    HW160937  11.932   8.129   7.374  0.1867 -0.1711 -1.1178
17323SOL    HW260938  11.860   8.004   7.420  1.3870 -0.5004 -0.0714
17324SOL     OW60939   2.976   3.453   1.661  0.5049 -0.3624 -0.1679
17324SOL    HW160940   2.970   3.471   1.567  0.5467 -0.6233 -0.2209
17324SOL    HW260941   2.908   3.387   1.677  1.5226 -1.4725 -0.3065
17325SOL     OW60942   1.495   4.438   0.848 -0.1232  0.1239 -0.7403
17325SOL    HW160943   1.516   4.429   0.755  1.5679 -0.3238 -0.3524
17325SOL    HW260944   1.580   4.453   0.891 -0.3273 -3.1326  1.1279
17326SOL     OW60945   7.755   0.746  11.559  0.3372 -0.2063  0.3835
17326SOL    HW160946   7.785   0.706  11.640  1.2800 -0.7430 -0.2011
17326SOL    HW260947   7.795   0.692  11.490 -1.3094 -0.4265 -0.4511
17327SOL     OW60948   8.917   5.912   2.550 -0.1936 -0.4954 -0.1189
17327SOL    HW160949   8.850   5.846   2.569  0.3431 -0.7443  1.0112
17327SOL    HW260950   8.936   5.952   2.635  0.2039  0.4286 -0.6307
17328SOL     OW60951   2.751   9.592   0.259  0.2173  0.1257 -0.1199
17328SOL    HW160952   2.776   9.528   0.325 -2.7857 -1.2178 -0.1161
17328SOL    HW260953   2.768   9.677   0.299  1.3978 -0.6419  1.0806
17329SOL     OW60954   5.021   8.873   6.719  0.2053 -0.8069 -0.0282
17329SOL    HW160955   4.962   8.826   6.777 -0.9433 -0.4113 -0.8344
17329SOL    HW260956   5.017   8.964   6.750  0.8786 -0.8802  0.2905
17330SOL     OW60957   8.058   7.383   5.919 -0.0858 -0.2478  0.0844
17330SOL    HW160958   8.142   7.342   5.901  0.7324  1.5937 -0.5475
17330SOL    HW260959   8.026   7.411   5.833 -1.1655 -0.5651  0.3642
17331SOL     OW60960   2.814   7.499  12.066  0.6148 -0.1550  0.3729
17331SOL    HW160961   2.747   7.450  12.114  1.9461 -2.6789 -0.2229
17331SOL    HW260962   2.764   7.561  12.012 -1.0576  0.2204  2.2163
17332SOL     OW60963   7.213   9.419   7.716 -0.0068  0.1819  0.4845
17332SOL    HW160964   7.206   9.334   7.673  3.2112 -0.2709  0.6351
17332SOL    HW260965   7.227   9.481   7.644  2.4359 -0.1651  0.5879
17333SOL     OW60966   6.965   9.137   5.391  0.3017  0.4139 -0.3075
17333SOL    HW160967   7.056   9.163   5.378  1.5942 -2.2589  2.2305
17333SOL    HW260968   6.962   9.045   5.365 -0.7799 -0.4581  2.4983
17334SOL     OW60969   2.189   6.727   4.719  0.3073  0.0286 -0.2326
17334SOL    HW160970   2.228   6.705   4.634 -0.1716 -3.4652  0.2702
17334SOL    HW260971   2.105   6.768   4.698  0.5342 -0.0911 -1.4352
17335SOL     OW60972   6.844  12.227  12.448 -0.1113  0.1241  0.2688
17335SOL    HW160973   6.911  12.287  12.480  1.3130 -1.2352 -0.0362
17335SOL    HW260974   6.891  12.164  12.394 -1.3343 -1.8815  1.3684
17336SOL     OW60975  10.856   9.596   8.174  0.1592 -0.2725  0.6027
17336SOL    HW160976  10.876   9.689   8.187 -0.6491 -0.1336  0.9374
17336SOL    HW260977  10.941   9.553   8.175  0.7574  0.6846 -1.5880
17337SOL     OW60978   9.799   4.398   9.603  0.0469  0.4015 -0.1051
17337SOL    HW160979   9.820   4.414   9.695 -1.3221 -0.3853  0.3770
17337SOL    HW260980   9.857   4.326   9.578 -1.0670 -0.8752  0.8229
17338SOL     OW60981   7.780   3.445   4.271 -0.4678  0.2159  0.0256
17338SOL    HW160982   7.773   3.487   4.357 -0.3227  0.3461 -0.0251
17338SOL    HW260983   7.874   3.429   4.260 -0.4479  0.5341 -0.2671
17339SOL     OW60984   5.027   7.858   2.306 -0.6563 -0.0299 -0.1784
17339SOL    HW160985   4.979   7.835   2.386 -1.1832 -0.1907 -0.5349
17339SOL    HW260986   4.983   7.809   2.237 -1.1934  1.2860 -0.8068
17340SOL     OW60987   4.226   9.058   7.140  0.0036 -0.2966 -0.0482
17340SOL    HW160988   4.154   9.013   7.183 -0.0842  0.7047  0.8742
17340SOL    HW260989   4.186   9.098   7.063 -0.3713  0.0445  0.3229
17341SOL     OW60990  10.606   9.910  10.781  0.4966  0.0778 -0.0514
17341SOL    HW160991  10.672   9.979  10.767 -0.1068  1.1687  2.1641
17341SOL    HW260992  10.550   9.915  10.704  1.1986  1.2249 -0.5148
17342SOL     OW60993   7.294   4.701   1.180 -0.0952  0.5000 -0.2192
17342SOL    HW160994   7.291   4.608   1.202  0.1480  0.6415  0.4370
17342SOL    HW260995   7.233   4.711   1.107 -0.7831 -0.0208  0.2742
17343SOL     OW60996   7.072   0.510   5.053 -0.0505  0.3459  0.5186
17343SOL    HW160997   7.046   0.469   4.970 -0.8598 -0.8850  1.3331
17343SOL    HW260998   7.018   0.589   5.059  0.0981  0.5013 -0.1784
17344SOL     OW60999   9.743   8.507   6.392 -0.0669 -0.2013  0.1508
17344SOL    HW161000   9.682   8.568   6.350 -1.0804 -2.2542 -1.5037
17344SOL    HW261001   9.802   8.480   6.323 -0.4083 -2.0138  0.5128
17345SOL     OW61002   3.952   7.047   6.054  0.1327 -0.0986  0.1990
17345SOL    HW161003   3.894   6.970   6.054  0.6325 -0.4932  1.1003
17345SOL    HW261004   3.941   7.085   6.141  0.7213  0.2030  0.1445
17346SOL     OW61005   5.532  10.953   8.685  0.2791  0.0069  0.5233
17346SOL    HW161006   5.548  10.872   8.638  1.0427  0.0802  0.6407
17346SOL    HW261007   5.521  10.927   8.777  1.3378  0.0937  0.6950
17347SOL     OW61008   3.718   1.957   3.492  0.0781 -0.1678  0.1393
17347SOL    HW161009   3.656   2.028   3.510  0.0087 -0.3659  0.7010
17347SOL    HW261010   3.701   1.932   3.402  0.9664  1.3841 -0.5015
17348SOL     OW61011   5.351   8.750   9.041 -0.1174  0.0472 -0.0987
17348SOL    HW161012   5.400   8.827   9.013  0.3291  0.1654  0.9689
17348SOL    HW261013   5.261   8.766   9.010  0.5573 -0.4310 -2.5835
17349SOL     OW61014   8.392  10.081   8.018  0.1096 -0.5841 -0.0528
17349SOL    HW161015   8.465  10.109   8.074 -0.3149  1.1625 -0.3088
17349SOL    HW261016   8.385   9.987   8.034  0.8217 -0.3689  1.8633
17350SOL     OW61017   7.048   8.530   1.120  0.3154 -0.3925  0.0557
17350SOL    HW161018   7.114   8.589   1.084  1.6315 -1.5748  0.4583
17350SOL    HW261019   6.968   8.551   1.071  0.8299  1.4312 -0.0725
17351SOL     OW61020  11.122   6.386   4.670 -0.6449 -0.7101  0.1306
17351SOL    HW161021  11.084   6.314   4.721  0.0425 -0.8447  0.4689
17351SOL    HW261022  11.216   6.378   4.686 -0.4933 -0.2829 -0.5594
17352SOL     OW61023  10.491  10.775   8.007  0.0613 -0.5290  0.0259
17352SOL    HW161024  10.560  10.758   7.943  0.1770 -0.2794  0.0812
17352SOL    HW261025  10.410  10.757   7.961  0.1468 -0.3928 -0.1806
17353SOL     OW61026   7.146   8.021  12.414  0.2825 -0.4180  0.5253
17353SOL    HW161027   7.172   8.001  12.504  0.9199 -0.2101  0.3940
17353SOL    HW261028   7.146   7.937  12.369 -0.6276 -0.6057  0.8615
17354SOL     OW61029  12.150  10.806   0.576  0.0084 -0.0554  0.3379
17354SOL    HW161030  12.099  10.750   0.635  0.7706  0.7320  1.8083
17354SOL    HW261031  12.211  10.747   0.533 -0.8031 -0.7038  0.0470
17355SOL     OW61032   3.592   2.316   3.871  0.1289  0.0926  0.1684
17355SOL    HW161033   3.662   2.307   3.806  0.5902 -0.3508  0.7101
17355SOL    HW261034   3.637   2.310   3.956 -0.1951  2.5799  0.6000
17356SOL     OW61035   3.676   1.210   3.352 -0.3491  0.1427  0.2750
17356SOL    HW161036   3.618   1.275   3.393  1.3709  0.9884  1.4913
17356SOL    HW261037   3.718   1.257   3.280  1.3366  0.6393  1.5161
17357SOL     OW61038   5.988  10.396   0.065 -0.0790 -0.0575 -0.2053
17357SOL    HW161039   6.030  10.442  -0.007 -0.8144  1.8199  0.4850
17357SOL    HW261040   6.040  10.317   0.078  1.8586  1.0520 -0.8359
17358SOL     OW61041   6.340  10.796   8.738 -0.1345  0.1534 -0.5443
17358SOL    HW161042   6.294  10.843   8.807  0.4079 -0.9866  0.6377
17358SOL    HW261043   6.413  10.854   8.714 -0.2383  0.4910 -0.0589
17359SOL     OW61044   2.822   8.853   5.190  0.1075 -0.1827  0.0809
17359SOL    HW161045   2.813   8.938   5.233 -0.2076 -0.2373  0.1270
17359SOL    HW261046   2.785   8.790   5.252 -0.9431 -0.1891 -0.5141
17360SOL     OW61047   1.512  10.721   6.329  0.2469 -0.0748  0.0606
17360SOL    HW161048   1.515  10.676   6.414  1.9369 -0.6025 -0.2479
17360SOL    HW261049   1.544  10.809   6.348  1.4507 -0.4497 -0.1563
17361SOL     OW61050   7.352  11.921   3.622 -0.3613 -0.3182 -0.6337
17361SOL    HW161051   7.358  11.837   3.575  1.9519 -0.7376  0.2748
17361SOL    HW261052   7.338  11.896   3.713  0.6587  0.2587 -0.3078
17362SOL     OW61053   4.956   5.727   5.791 -0.2222 -0.0668  0.2966
17362SOL    HW161054   4.914   5.644   5.772  1.9252 -1.1104 -0.2453
17362SOL    HW261055   4.944   5.739   5.885 -2.2922  0.0686  0.0476
17363SOL     OW61056   8.409   7.508   4.741 -0.1267 -0.5165  0.3926
17363SOL    HW161057   8.441   7.588   4.697  1.6235 -1.7591 -0.7435
17363SOL    HW261058   8.481   7.446   4.732 -1.2714 -2.1063  1.6518
17364SOL     OW61059   7.943   1.970   6.448 -0.0739 -0.1134  0.2429
17364SOL    HW161060   8.011   1.940   6.386 -0.2531 -0.5839  0.2734
17364SOL    HW261061   7.886   1.895   6.459 -0.9326  0.4523 -0.2147
17365SOL     OW61062   0.213   1.499   9.256  0.1583 -0.3982 -0.7340
17365SOL    HW161063   0.150   1.519   9.187 -1.5940 -1.4764  0.4852
17365SOL    HW261064   0.242   1.410   9.237 -0.0752 -0.5749 -0.2744
17366SOL     OW61065   4.025   5.644   1.545 -0.3684 -0.5013 -0.5682
17366SOL    HW161066   4.009   5.679   1.632  2.2485 -1.5925  0.4696
17366SOL    HW261067   3.972   5.699   1.487  0.8101  2.8967  1.2795
17367SOL     OW61068   7.956   9.104   9.042  0.3338  0.0774  0.7006
17367SOL    HW161069   8.046   9.072   9.029  0.4628  0.6858  0.0022
17367SOL    HW261070   7.959   9.195   9.011 -0.8060 -0.2467 -0.4410
17368SOL     OW61071   1.318   0.632   5.238 -0.1168 -0.0577 -0.1910
17368SOL    HW161072   1.308   0.727   5.246 -2.4224 -0.0061 -2.4277
17368SOL    HW261073   1.402   0.620   5.195 -0.3340  1.0870 -0.9915
17369SOL     OW61074   1.716   3.085   0.945 -0.1743 -0.0034 -0.9126
17369SOL    HW161075   1.664   3.027   1.000 -0.8828  1.2477 -0.2179
17369SOL    HW261076   1.797   3.100   0.994 -0.3217  0.2079 -0.7335
17370SOL     OW61077   8.516  10.037   9.312 -0.4637 -0.1032  0.2543
17370SOL    HW161078   8.597  10.018   9.265 -1.1817 -0.5155 -0.8629
17370SOL    HW261079   8.459   9.963   9.292 -1.2567  0.3836  0.6787
17371SOL     OW61080   9.569   0.603   5.770 -0.5017 -0.0175 -0.2382
17371SOL    HW161081   9.600   0.655   5.696  1.5393 -1.2011 -0.2889
17371SOL    HW261082   9.502   0.545   5.733 -0.2776  0.1513 -0.9068
17372SOL     OW61083   9.754   4.799  10.319 -0.3719 -0.4896  0.2876
17372SOL    HW161084   9.737   4.859  10.246  0.6351  0.1308  0.5342
17372SOL    HW261085   9.691   4.728  10.308 -0.8287  0.0500 -0.6689
17373SOL     OW61086   6.827  10.640  10.051 -0.0738 -0.6273  0.0908
17373SOL    HW161087   6.750  10.627   9.997 -1.0219  0.9122  0.9749
17373SOL    HW261088   6.823  10.570  10.116 -0.7889 -0.5104  0.1833
17374SOL     OW61089   2.706   1.657  10.153 -0.1354  0.1089  0.1811
17374SOL    HW161090   2.735   1.612  10.073 -2.0423  0.7278 -0.9261
17374SOL    HW261091   2.675   1.742  10.123 -2.4425 -0.2638  1.2962
17375SOL     OW61092  11.578   4.592   3.149 -0.2430 -0.0288 -0.1309
17375SOL    HW161093  11.633   4.626   3.219 -0.8499  1.5349 -0.3798
17375SOL    HW261094  11.536   4.515   3.188  1.0898 -0.4741  0.4836
17376SOL     OW61095   4.502   8.607   2.189  0.0716 -0.0057 -0.0178
17376SOL    HW161096   4.559   8.530   2.185 -0.5708 -0.4749 -0.5961
17376SOL    HW261097   4.509   8.647   2.102  1.3015  1.2793  0.6460
17377SOL     OW61098  12.158   7.281   3.923  0.1755  0.0922  0.4456
17377SOL    HW161099  12.183   7.219   3.855  1.1041 -0.8653  1.6149
17377SOL    HW261100  12.067   7.303   3.902  0.4473 -0.1219 -1.1172
17378SOL     OW61101   8.649   5.833  11.503 -0.1961 -0.1881  0.0501
17378SOL    HW161102   8.659   5.745  11.539  1.7880 -0.2786 -0.5688
17378SOL    HW261103   8.626   5.888  11.578 -0.7186 -1.0976  0.5750
17379SOL     OW61104   1.002   7.046   9.174 -0.4557  0.5201  0.0209
17379SOL    HW161105   0.958   6.980   9.120  0.2704 -1.5885  1.8107
17379SOL    HW261106   0.947   7.052   9.252  2.1610 -2.2207  2.3398
17380SOL     OW61107   7.487   7.309   5.226 -0.5971  0.3086  0.2482
17380SOL    HW161108   7.509   7.226   5.184 -0.6478  0.7673 -0.7280
17380SOL    HW261109   7.572   7.346   5.253 -0.6096 -0.2523  1.0911
17381SOL     OW61110   7.138  11.079   6.741  0.3541 -0.4603 -0.4352
17381SOL    HW161111   7.059  11.064   6.792  0.0861 -0.1774 -0.7586
17381SOL    HW261112   7.168  11.166   6.766  0.8406 -0.7605  0.0443
17382SOL     OW61113   6.556  11.553   1.687  0.2487 -0.0914 -0.2266
17382SOL    HW161114   6.615  11.576   1.616 -0.7241  0.7441 -0.7931
17382SOL    HW261115   6.505  11.479   1.653  0.7406 -0.6130  0.1469
17383SOL     OW61116   2.244  12.034  11.931  0.7822 -0.2626  0.5267
17383SOL    HW161117   2.249  12.098  12.002  1.7313 -0.0352  0.2600
17383SOL    HW261118   2.151  12.015  11.923  0.4148  1.6156  0.1143
17384SOL     OW61119   1.747  11.674   2.170  0.0504  0.3346 -0.4795
17384SOL    HW161120   1.732  11.736   2.241 -1.8517  0.3092 -0.7963
17384SOL    HW261121   1.659  11.642   2.148  0.8461 -1.4935 -1.1942
17385SOL     OW61122   2.884   5.048   5.732 -0.5792  0.8163 -0.0439
17385SOL    HW161123   2.790   5.063   5.746 -0.9181  0.1366 -1.3901
17385SOL    HW261124   2.898   5.072   5.640  0.9898  2.7865  0.6345
17386SOL     OW61125   2.635   3.250   5.643  0.2533  0.4824 -0.1530
17386SOL    HW161126   2.666   3.311   5.576 -0.4121  0.8808 -0.1031
17386SOL    HW261127   2.682   3.168   5.624 -0.3936  0.3914 -1.5142
17387SOL     OW61128   0.644   9.241   1.357  0.3417 -0.3661  0.1061
17387SOL    HW161129   0.720   9.184   1.368 -0.2245 -1.3144 -0.7472
17387SOL    HW261130   0.638   9.256   1.263  0.4938  1.1527  0.3164
17388SOL     OW61131  10.578   6.151   4.273 -0.8834 -0.0885  0.1216
17388SOL    HW161132  10.666   6.174   4.304 -0.8983 -1.9802  1.7277
17388SOL    HW261133  10.588   6.067   4.230 -1.8166 -0.0076 -0.2813
17389SOL     OW61134  10.437   5.357   9.891  0.4492  0.3305  0.1915
17389SOL    HW161135  10.409   5.364   9.982  1.8182  0.4171  0.6296
17389SOL    HW261136  10.375   5.296   9.851  0.0032  0.0696  1.2503
17390SOL     OW61137   1.768   1.351   1.282  0.1800  0.3839 -0.3548
17390SOL    HW161138   1.795   1.439   1.306  1.0482 -0.0399  0.2678
17390SOL    HW261139   1.843   1.315   1.235  0.6300 -0.7083  1.1339
17391SOL     OW61140   4.513   3.070  10.130 -1.0279  0.4079  0.2040
17391SOL    HW161141   4.479   3.149  10.172  1.2858  1.1003  0.9547
17391SOL    HW261142   4.570   3.103  10.060 -1.2512 -0.6330 -0.4742
17392SOL     OW61143  12.403   3.462   8.806 -0.5667  0.1936 -0.0040
17392SOL    HW161144  12.416   3.388   8.865  0.3361  0.3417  0.0043
17392SOL    HW261145  12.490   3.500   8.796 -0.8751  0.7551 -0.6640
17393SOL     OW61146  11.917   8.487   4.865 -0.0420 -0.3146 -0.3662
17393SOL    HW161147  11.888   8.414   4.918  0.2558  1.6077  2.7097
17393SOL    HW261148  12.012   8.486   4.873 -0.0779  0.9632  0.6682
17394SOL     OW61149   6.200   9.199   2.752 -0.2876 -0.3110  0.6022
17394SOL    HW161150   6.169   9.287   2.730  0.9250  0.3636  1.4546
17394SOL    HW261151   6.284   9.214   2.795  1.4063 -2.0363 -1.8122
17395SOL     OW61152  11.927  12.331   0.749 -0.2058 -0.1247  0.1222
17395SOL    HW161153  11.930  12.347   0.655 -2.6470  0.4173  0.0660
17395SOL    HW261154  11.857  12.267   0.761  0.7786 -1.0150  1.5035
17396SOL     OW61155   5.706   2.098   9.765 -0.4696 -0.4207 -0.8913
17396SOL    HW161156   5.796   2.069   9.775 -0.1548  0.4813 -1.0271
17396SOL    HW261157   5.692   2.100   9.670 -0.9307 -1.4238 -0.8563
17397SOL     OW61158   2.870   1.646   3.903 -0.3631  0.5735 -0.0115
17397SOL    HW161159   2.879   1.587   3.828  0.3200  1.5078 -0.6941
17397SOL    HW261160   2.951   1.635   3.953 -0.0366  1.2217 -0.3775
17398SOL     OW61161   3.994   0.085   8.945  0.1374 -0.0633 -0.4756
17398SOL    HW161162   4.018  -0.008   8.950  0.0574 -0.0190  0.9689
17398SOL    HW261163   4.044   0.127   9.015 -1.6467  0.5790  0.4574
17399SOL     OW61164  12.145   8.568   4.008  0.2443 -0.5144  0.0570
17399SOL    HW161165  12.187   8.568   4.094  2.0524  0.2951 -0.7502
17399SOL    HW261166  12.158   8.657   3.975 -2.0105 -0.2878 -0.3501
17400SOL     OW61167   6.693   6.800   3.587 -0.5465 -0.0075  0.1307
17400SOL    HW161168   6.786   6.820   3.600 -0.3565 -1.0939  0.5043
17400SOL    HW261169   6.672   6.735   3.654 -1.4874 -0.0546 -0.1916
17401SOL     OW61170   5.451   2.770  10.539  0.3421  0.1425 -0.0927
17401SOL    HW161171   5.376   2.746  10.593  0.4010  0.8885  0.3354
17401SOL    HW261172   5.513   2.808  10.601 -0.0856  2.1499 -0.8261
17402SOL     OW61173   0.799   7.690   4.063 -0.6100 -0.4129  0.2631
17402SOL    HW161174   0.713   7.671   4.026 -0.9050 -0.6743  1.0687
17402SOL    HW261175   0.844   7.740   3.994 -2.0836  1.4169  0.5563
17403SOL     OW61176   9.004   0.130   0.742  0.5492  0.6511 -0.6050
17403SOL    HW161177   9.027   0.049   0.788 -2.2874 -1.0280 -1.8476
17403SOL    HW261178   8.986   0.193   0.811  1.4445 -0.1747  0.4212
17404SOL     OW61179   2.033   0.526   1.408 -0.0988 -0.1848 -0.6426
17404SOL    HW161180   2.096   0.582   1.454  0.9443  0.2523 -2.5131
17404SOL    HW261181   2.087   0.459   1.365 -0.8593  0.2330 -2.3298
17405SOL     OW61182   3.258  10.421   3.601  0.0285  0.0356 -0.1694
17405SOL    HW161183   3.174  10.465   3.616  0.1811  0.2217  0.1318
17405SOL    HW261184   3.323  10.481   3.635  0.1259 -1.2996  2.2489
17406SOL     OW61185   3.118   3.580   1.443 -0.4039 -0.0029  0.7592
17406SOL    HW161186   3.198   3.614   1.483 -0.7876 -0.0114  1.5485
17406SOL    HW261187   3.117   3.618   1.355  0.1937  0.4292  0.9337
17407SOL     OW61188   8.072   4.251   6.985  0.5146 -0.1303  0.3471
17407SOL    HW161189   8.060   4.250   6.890  4.3355 -1.1068 -0.3016
17407SOL    HW261190   8.054   4.342   7.010  0.9520  0.5488 -1.6052
17408SOL     OW61191  10.103  10.963  12.240  0.3935  0.0712  0.2239
17408SOL    HW161192  10.126  11.052  12.266  1.6137 -0.0849 -0.2799
17408SOL    HW261193  10.012  10.970  12.211  0.5260  1.1918  0.0190
17409SOL     OW61194   9.180   3.932   1.987 -0.2372  0.5233 -0.0694
17409SOL    HW161195   9.195   3.940   2.081 -3.9912  1.0950  0.6506
17409SOL    HW261196   9.141   4.016   1.962 -0.3971 -0.0618 -1.8779
17410SOL     OW61197   9.580  10.040   7.073 -0.1694 -0.2769  0.0922
17410SOL    HW161198   9.514  10.109   7.067 -0.0633  0.0734  2.1356
17410SOL    HW261199   9.655  10.082   7.115  0.1530 -1.4499  0.7484
17411SOL     OW61200   7.423  11.303  10.912 -0.4574  0.0635 -0.2072
17411SOL    HW161201   7.469  11.228  10.949 -2.0235 -1.5176 -1.3090
17411SOL    HW261202   7.457  11.312  10.823 -2.4664 -1.4265 -1.2085
17412SOL     OW61203   3.723   6.766  11.504 -0.5316 -0.2695 -0.5648
17412SOL    HW161204   3.773   6.689  11.476 -1.3336 -0.4752 -1.4819
17412SOL    HW261205   3.757   6.786  11.591 -0.2099 -1.5815 -0.3618
17413SOL     OW61206  10.065   4.865  11.694  0.2759  0.1831  0.2646
17413SOL    HW161207  10.030   4.949  11.663  0.2389 -0.4850 -1.5934
17413SOL    HW261208   9.998   4.801  11.670  1.2104 -0.6486 -0.1620
17414SOL     OW61209   4.095   3.128  10.685 -0.4221 -0.5421  0.5241
17414SOL    HW161210   4.102   3.051  10.628  0.2994 -0.7484  0.8785
17414SOL    HW261211   4.146   3.195  10.642  2.1295 -1.3889  2.0287
17415SOL     OW61212   7.499   4.503   3.872 -0.1585 -0.2854  0.3193
17415SOL    HW161213   7.564   4.538   3.933 -0.9053  1.6245  0.1002
17415SOL    HW261214   7.425   4.479   3.928  0.2442 -1.2518  0.4419
17416SOL     OW61215   3.500   0.255   6.354 -0.5156  0.0876  0.9145
17416SOL    HW161216   3.497   0.335   6.301  1.6824  0.8316  1.8098
17416SOL    HW261217   3.418   0.257   6.404 -1.3748  0.7621 -0.4608
17417SOL     OW61218   0.008   1.426   2.478 -0.0563 -0.1243  0.4408
17417SOL    HW161219  -0.045   1.413   2.400  0.1070  0.1376  0.2859
17417SOL    HW261220   0.089   1.466   2.446  0.4071 -0.8923  0.6238
17418SOL     OW61221  10.630   3.394   7.172  0.1140 -0.1078 -0.2754
17418SOL    HW161222  10.571   3.417   7.243  0.5290  2.4249 -0.6714
17418SOL    HW261223  10.712   3.440   7.193  0.3303  0.4845 -2.2169
17419SOL     OW61224   2.846   6.226   6.980  0.1472  0.1695  0.1353
17419SOL    HW161225   2.766   6.277   6.965 -0.8975 -0.8405  1.8256
17419SOL    HW261226   2.831   6.144   6.933  0.6627  0.3996 -0.4278
17420SOL     OW61227   8.370   7.807  10.790  0.6363  0.0386  0.2574
17420SOL    HW161228   8.440   7.856  10.834  1.6380 -1.6568  0.6290
17420SOL    HW261229   8.415   7.753  10.726 -0.4153 -0.5559  0.0057
17421SOL     OW61230   2.199   2.621   7.557  0.4721 -0.1954 -0.4530
17421SOL    HW161231   2.167   2.689   7.615 -1.1375 -0.9076 -0.4330
17421SOL    HW261232   2.292   2.614   7.576  0.2374  0.5086  1.0719
17422SOL     OW61233   4.200   1.528   5.672  0.3186  0.0739  0.1439
17422SOL    HW161234   4.127   1.546   5.612  0.2171  1.5772  0.6838
17422SOL    HW261235   4.277   1.560   5.626  0.4078  0.0937  0.3087
17423SOL     OW61236   0.938  11.088   2.181  0.9004  0.1265  0.6601
17423SOL    HW161237   0.859  11.071   2.232  0.9350 -0.2210  0.6047
17423SOL    HW261238   1.010  11.077   2.243  0.9087  0.3931  0.6988
17424SOL     OW61239   7.250  11.178   8.033  0.1236  0.1772 -0.1504
17424SOL    HW161240   7.217  11.209   7.949 -0.0738 -0.3740 -0.2803
17424SOL    HW261241   7.276  11.258   8.079 -0.3999  0.5358 -0.4627
17425SOL     OW61242   3.438   1.622   3.408  0.0552 -0.1795  0.1012
17425SOL    HW161243   3.382   1.700   3.405 -0.8094 -0.8068 -0.3744
17425SOL    HW261244   3.442   1.599   3.500  0.1353  0.2990  0.2212
17426SOL     OW61245   0.884   0.475   4.606  0.4158 -0.0829 -0.3302
17426SOL    HW161246   0.868   0.552   4.660 -3.8058 -0.2171 -1.0382
17426SOL    HW261247   0.875   0.506   4.516  0.8988 -0.9998 -0.7097
17427SOL     OW61248   8.880   9.584   9.244  0.6766  0.4967  0.3981
17427SOL    HW161249   8.971   9.580   9.272 -0.0540 -0.1170  3.0086
17427SOL    HW261250   8.872   9.669   9.201  2.6156  0.2456 -0.5682
17428SOL     OW61251   2.460   1.681   5.683 -0.2159 -0.0863  0.1815
17428SOL    HW161252   2.406   1.749   5.642  0.5799  0.4762  0.0596
17428SOL    HW261253   2.444   1.692   5.777 -0.7718 -0.3158  0.1207
17429SOL     OW61254   7.888   6.962  11.495 -0.6189  0.3845 -0.5376
17429SOL    HW161255   7.920   6.915  11.572 -1.4231  2.0989  0.9071
17429SOL    HW261256   7.802   6.924  11.478 -1.0639  0.9703  0.3323
17430SOL     OW61257   7.999   8.026   0.009 -0.5539 -0.1144  0.0480
17430SOL    HW161258   8.064   8.060   0.071  0.1105 -0.3805 -0.4846
17430SOL    HW261259   7.915   8.039   0.052 -0.0418 -1.0511  1.3609
17431SOL     OW61260   2.335   1.132   9.341  0.5557  0.0189  0.2346
17431SOL    HW161261   2.372   1.083   9.414  1.7033 -0.5389 -0.6955
17431SOL    HW261262   2.375   1.094   9.264 -0.8357  0.4222 -0.7287
17432SOL     OW61263   6.920   3.886  10.655 -0.0378 -0.5826 -0.4782
17432SOL    HW161264   7.013   3.871  10.640  0.0424 -0.7621  0.1517
17432SOL    HW261265   6.884   3.799  10.671  0.0754 -0.3541  1.2889
17433SOL     OW61266  10.072  10.676  10.725 -0.4504  0.0980  0.4059
17433SOL    HW161267  10.156  10.704  10.689 -0.0569 -2.5483 -1.0057
17433SOL    HW261268  10.060  10.730  10.803  3.3776 -0.5374  1.6502
17434SOL     OW61269   9.298   8.373  12.479  0.0301 -0.0040  0.3835
17434SOL    HW161270   9.261   8.285  12.487 -0.4366 -0.0273 -1.5962
17434SOL    HW261271   9.268   8.405  12.394 -1.3769  2.8242  1.7791
17435SOL     OW61272   1.618   7.038   5.359 -0.5071 -0.6497  0.1371
17435SOL    HW161273   1.701   7.076   5.330 -2.2182  1.2106 -2.8451
17435SOL    HW261274   1.588   7.095   5.429  0.2698 -0.7454  0.5488
17436SOL     OW61275   2.906   6.182   8.955 -0.1675  0.0429  0.0987
17436SOL    HW161276   2.942   6.123   9.022  0.0356  0.3178  0.2308
17436SOL    HW261277   2.983   6.227   8.919 -0.1845 -0.6826 -0.8784
17437SOL     OW61278   9.154   0.206   3.156 -0.3179  0.5572 -0.2005
17437SOL    HW161279   9.119   0.156   3.230  0.7015 -0.3022 -0.2823
17437SOL    HW261280   9.116   0.294   3.167 -0.5074  0.3303  1.1013
17438SOL     OW61281   0.405   8.427   4.902  0.0984  0.3223 -0.3685
17438SOL    HW161282   0.488   8.470   4.882  1.8169 -2.5719 -0.1064
17438SOL    HW261283   0.411   8.406   4.995 -1.0241  0.2478 -0.2999
17439SOL     OW61284   5.782   1.432   0.103 -0.5158 -0.7581  0.1182
17439SOL    HW161285   5.853   1.482   0.141 -0.3324 -1.6003  0.9237
17439SOL    HW261286   5.819   1.392   0.025 -0.8414  0.8284 -0.8902
17440SOL     OW61287  10.212   1.391   6.094 -0.1326 -0.1946 -0.1553
17440SOL    HW161288  10.285   1.451   6.112  1.2387 -2.4292  2.3972
17440SOL    HW261289  10.135   1.439   6.123  0.6718  1.1016 -0.0623
17441SOL     OW61290   0.115   8.623   2.333 -0.3440 -0.2767 -0.3502
17441SOL    HW161291   0.037   8.588   2.377 -0.1402  0.0952  0.3083
17441SOL    HW261292   0.093   8.618   2.239 -1.5502  0.7472 -0.1478
17442SOL     OW61293   7.100   9.953   2.446 -0.3945  0.9278 -0.1075
17442SOL    HW161294   7.158   9.880   2.463 -0.7347  0.9739  1.4185
17442SOL    HW261295   7.116  10.014   2.519 -3.2563  0.3378  1.1444
17443SOL     OW61296   3.592   6.338   7.134 -0.0164  0.2660  0.5547
17443SOL    HW161297   3.536   6.415   7.142 -1.9367 -0.9678 -0.3334
17443SOL    HW261298   3.643   6.353   7.055 -2.3568 -0.4911 -1.2062
17444SOL     OW61299   0.474   1.827   4.603  0.7536  0.0938 -0.5648
17444SOL    HW161300   0.397   1.805   4.551  0.3364 -1.5147  0.6298
17444SOL    HW261301   0.544   1.839   4.539 -0.4425  1.4916 -1.6652
17445SOL     OW61302   7.450  10.365   9.974 -0.2268  0.0254 -0.3870
17445SOL    HW161303   7.389  10.415   9.920 -0.7258  0.8705  0.8949
17445SOL    HW261304   7.533  10.414   9.967 -0.3523  0.2655 -0.2092
17446SOL     OW61305   1.524   8.151   1.440  0.0624  0.3144  0.5683
17446SOL    HW161306   1.574   8.197   1.372  0.7839 -0.9987  0.1710
17446SOL    HW261307   1.516   8.214   1.511  0.8487  1.1089 -0.0271
17447SOL     OW61308   6.976  12.254  11.161 -0.9586  0.2161  0.3778
17447SOL    HW161309   6.951  12.332  11.211 -1.2001 -0.4755  1.3714
17447SOL    HW261310   7.023  12.199  11.224 -0.0293 -0.0667 -0.5339
17448SOL     OW61311  12.359  10.837   9.107 -0.0295  0.1237  0.1484
17448SOL    HW161312  12.447  10.874   9.099 -0.0106  0.5775  1.9160
17448SOL    HW261313  12.373  10.742   9.101  0.8686  0.0794  2.0583
17449SOL     OW61314   8.450   8.289  10.394 -0.1045 -0.1537  0.6261
17449SOL    HW161315   8.428   8.382  10.386 -0.2559 -0.2262  0.1378
17449SOL    HW261316   8.372   8.249  10.433 -0.7808 -0.3697 -0.8761
17450SOL     OW61317   9.699   6.643   5.177  0.2879  0.2739 -0.1425
17450SOL    HW161318   9.751   6.672   5.251  1.0776 -1.3170 -0.0363
17450SOL    HW261319   9.617   6.612   5.215  0.6043 -0.3336  0.0544
17451SOL     OW61320  10.173   0.861   6.332 -0.1581  0.2217 -0.3721
17451SOL    HW161321  10.155   0.767   6.345 -1.0807  0.3021 -0.9333
17451SOL    HW261322  10.088   0.903   6.348 -0.4647  0.6794 -2.8648
17452SOL     OW61323   3.254   0.045   6.141 -0.4106  0.0265  0.2292
17452SOL    HW161324   3.331  -0.001   6.108 -0.5544 -0.5655  0.7054
17452SOL    HW261325   3.222   0.095   6.065  1.3370  1.5498  0.4081
17453SOL     OW61326   8.977   0.088   7.059 -0.4240  0.2894  0.4529
17453SOL    HW161327   8.910   0.152   7.082 -1.3775 -0.2609 -0.7194
17453SOL    HW261328   8.944   0.005   7.093  0.7029  0.3271  1.7644
17454SOL     OW61329   0.379   3.815   5.283  0.0542 -0.1998 -0.1654
17454SOL    HW161330   0.310   3.753   5.264  1.7638 -1.9411 -1.1023
17454SOL    HW261331   0.384   3.870   5.204 -0.6619  0.3562  0.1694
17455SOL     OW61332   3.307   1.931   3.604 -0.2071 -0.1047  0.2535
17455SOL    HW161333   3.258   1.896   3.529  0.8250  0.0486 -0.5093
17455SOL    HW261334   3.249   1.998   3.642 -1.2220 -0.9900  0.3134
17456SOL     OW61335   9.940  11.021   9.252  0.0766 -0.2846 -0.0303
17456SOL    HW161336   9.948  11.116   9.261  0.9428 -0.4478  1.2599
17456SOL    HW261337   9.867  11.008   9.192  0.2133  1.2030 -0.5463
17457SOL     OW61338   0.594   7.185  12.168  0.8378  0.2588 -0.1120
17457SOL    HW161339   0.503   7.175  12.193  0.6327 -0.1604 -0.9980
17457SOL    HW261340   0.613   7.278  12.183  0.5766  0.1418  1.0335
17458SOL     OW61341  11.199  12.520   8.982 -0.2821  0.2135  0.1503
17458SOL    HW161342  11.294  12.532   8.979 -0.1329 -0.5604  1.1854
17458SOL    HW261343  11.183  12.439   8.933 -0.2991 -0.1159  0.6840
17459SOL     OW61344  12.561   7.041   7.065 -0.0194 -0.8709 -0.1792
17459SOL    HW161345  12.468   7.026   7.086 -0.6468 -1.9939 -3.2587
17459SOL    HW261346  12.565   7.133   7.040 -0.2537 -0.7910  0.0629
17460SOL     OW61347   3.965  10.234   3.476 -0.2934  0.2024 -0.4960
17460SOL    HW161348   3.947  10.195   3.390 -0.6660  1.0662 -0.8276
17460SOL    HW261349   3.923  10.175   3.538  0.4144 -0.7105 -0.8570
17461SOL     OW61350  11.509   8.390   7.194  0.2020  0.1176  0.8859
17461SOL    HW161351  11.585   8.362   7.246 -0.5169 -0.6513  1.5401
17461SOL    HW261352  11.542   8.393   7.104  1.0788  0.0556  1.1903
17462SOL     OW61353   1.948   4.791   3.164  0.1581 -0.4558  0.1372
17462SOL    HW161354   1.907   4.757   3.085  1.0399 -1.2782  0.0132
17462SOL    HW261355   2.005   4.862   3.133  1.5759 -1.6805 -0.1893
17463SOL     OW61356   4.006   8.066   4.555 -0.1121 -0.5149 -0.0693
17463SOL    HW161357   3.927   8.016   4.574 -0.2143  0.0817  1.1742
17463SOL    HW261358   4.040   8.027   4.474 -0.8405 -1.7934  0.2056
17464SOL     OW61359   1.860  10.814   4.952 -0.2957  0.3078 -0.7407
17464SOL    HW161360   1.930  10.826   4.888  0.8551 -1.1983  0.1605
17464SOL    HW261361   1.783  10.854   4.912  0.8850  1.2942 -2.1113
17465SOL     OW61362   5.716   6.734  11.989  0.5147  0.4597  0.4493
17465SOL    HW161363   5.734   6.680  11.912  2.1440  2.2210 -0.4758
17465SOL    HW261364   5.685   6.671  12.055 -1.5315 -1.0321 -1.7493
17466SOL     OW61365   5.718  11.051  11.260  0.2114 -0.0574  0.0544
17466SOL    HW161366   5.705  11.000  11.339 -0.9794 -1.1846 -0.8352
17466SOL    HW261367   5.802  11.096  11.273 -0.7271  1.1231  2.6424
17467SOL     OW61368   1.120  11.994   9.875 -0.2451 -0.0628 -0.4769
17467SOL    HW161369   1.055  12.027   9.937  0.7497 -0.2475  0.7010
17467SOL    HW261370   1.203  12.030   9.905  0.6040 -2.0269 -0.2704
17468SOL     OW61371   0.792   1.696   8.335  0.0380 -0.0575  0.0952
17468SOL    HW161372   0.802   1.619   8.279  0.7890 -0.0653  0.2237
17468SOL    HW261373   0.738   1.756   8.284 -0.6434 -0.7109  0.0399
17469SOL     OW61374  10.118   0.567   5.941  0.1766  0.6220 -0.0824
17469SOL    HW161375  10.164   0.650   5.956 -0.6220  0.8891  1.0018
17469SOL    HW261376  10.026   0.592   5.940 -0.0391 -0.1841 -0.3200
17470SOL     OW61377   0.449   7.374   1.362  0.4171 -0.3356  0.3221
17470SOL    HW161378   0.480   7.462   1.383 -0.0174  0.4557 -2.1094
17470SOL    HW261379   0.382   7.356   1.429  2.3681  0.0125  2.4840
17471SOL     OW61380  10.833   8.192   5.350  0.1183  0.0307  0.2282
17471SOL    HW161381  10.775   8.253   5.396  1.9887  0.7879  1.7560
17471SOL    HW261382  10.777   8.118   5.326 -1.4630  0.7194  1.6058
17472SOL     OW61383  10.435   7.256   1.629  0.3324 -0.2769 -0.2643
17472SOL    HW161384  10.490   7.258   1.708  1.5190  0.3552 -1.0743
17472SOL    HW261385  10.354   7.214   1.657  1.0598 -0.8404  1.0851
17473SOL     OW61386   1.785   7.417   1.662 -0.0332 -0.1860 -0.0049
17473SOL    HW161387   1.873   7.387   1.684 -0.6552 -1.8550  0.3056
17473SOL    HW261388   1.743   7.341   1.621 -1.0915  0.8176 -0.8665
17474SOL     OW61389   4.468   7.366   2.774 -0.3546 -0.1913 -0.6712
17474SOL    HW161390   4.467   7.360   2.678 -2.3241 -1.6230 -0.6423
17474SOL    HW261391   4.473   7.275   2.803 -0.1138  0.2079  0.5767
17475SOL     OW61392  10.684   7.797  10.455  0.6054  0.0824 -0.2684
17475SOL    HW161393  10.738   7.750  10.392 -1.5241 -2.3381 -0.4567
17475SOL    HW261394  10.594   7.770  10.435 -0.3180  0.5589  2.6871
17476SOL     OW61395   7.886  12.054   8.777 -0.0789  0.2518  0.7421
17476SOL    HW161396   7.942  12.108   8.834  1.1584  0.0529 -0.2346
17476SOL    HW261397   7.802  12.099   8.776  0.6547  1.6861  0.6697
17477SOL     OW61398  10.054   1.722   8.326  0.2877 -0.3482  0.2840
17477SOL    HW161399  10.099   1.687   8.248  2.7689 -1.7870  2.1904
17477SOL    HW261400  10.080   1.814   8.329  2.0313 -0.8034  0.5344
17478SOL     OW61401  12.008  12.384  12.048  0.0067  0.0515 -0.2744
17478SOL    HW161402  11.937  12.352  11.993  0.4075 -1.5988  0.0883
17478SOL    HW261403  12.088  12.360  12.000  0.3417 -0.3734  0.4788
17479SOL     OW61404   1.693   6.305   0.689 -0.4785  0.0161  0.2263
17479SOL    HW161405   1.630   6.249   0.642 -0.9953  1.7410 -1.2816
17479SOL    HW261406   1.645   6.335   0.766 -0.8489 -0.2208  0.0931
17480SOL     OW61407   3.460  11.302   6.864  0.1830  0.2815 -0.0997
17480SOL    HW161408   3.427  11.218   6.895 -0.4953  0.6489  0.1815
17480SOL    HW261409   3.399  11.367   6.898  0.4741  0.8600 -0.6426
17481SOL     OW61410   8.258   2.561   9.781 -0.6158  0.4923  0.4190
17481SOL    HW161411   8.303   2.503   9.720 -0.5479  1.1029 -0.1176
17481SOL    HW261412   8.298   2.647   9.767 -1.8732  1.0270 -0.0006
17482SOL     OW61413  11.941   3.475   8.838  0.0637 -0.2394 -0.0833
17482SOL    HW161414  11.877   3.408   8.861  0.0643 -0.2797 -0.1962
17482SOL    HW261415  11.888   3.544   8.796  0.1505 -0.4633 -0.5651
17483SOL     OW61416   8.600  12.105  11.941  0.5088  0.3510 -0.0413
17483SOL    HW161417   8.607  12.187  11.892  0.8343  0.9774  1.0181
17483SOL    HW261418   8.524  12.117  11.998  0.2828 -0.2657 -0.1981
17484SOL     OW61419   6.709   1.331   3.698 -0.2676 -0.4595  0.4624
17484SOL    HW161420   6.648   1.285   3.640 -0.9684 -0.0806  0.8866
17484SOL    HW261421   6.662   1.340   3.781  0.8787 -1.3956  1.2608
17485SOL     OW61422  11.322   6.221   3.990  0.4280 -0.2897 -0.1467
17485SOL    HW161423  11.357   6.156   3.929  2.2457  0.3031  0.1986
17485SOL    HW261424  11.278   6.285   3.934 -0.9753 -1.5253 -0.5204
17486SOL     OW61425  10.998  10.587   2.226  0.5948  0.2318 -0.1927
17486SOL    HW161426  10.957  10.669   2.255 -0.8765 -1.0773  1.6729
17486SOL    HW261427  11.062  10.614   2.160 -1.7211  2.6150 -1.6526
17487SOL     OW61428   5.109   7.585  11.234 -0.0777  0.0795 -0.0764
17487SOL    HW161429   5.173   7.627  11.177 -0.1375  0.4489  0.1212
17487SOL    HW261430   5.125   7.624  11.320 -1.2929  1.0100 -0.2423
17488SOL     OW61431   7.639   6.495   3.018  0.1883 -0.6299  0.4500
17488SOL    HW161432   7.718   6.451   3.050  0.2412 -0.5369  0.4493
17488SOL    HW261433   7.617   6.449   2.937  0.0846 -0.8310  0.5920
17489SOL     OW61434   1.259  10.273   0.209 -0.3794 -0.2287  0.4556
17489SOL    HW161435   1.339  10.279   0.157 -0.6883 -1.4302 -0.2005
17489SOL    HW261436   1.264  10.186   0.249 -0.6720  0.2557  1.5779
17490SOL     OW61437   8.128   8.769  10.023 -0.0606 -0.2891 -0.1550
17490SOL    HW161438   8.182   8.840  10.059  1.2284 -1.4063  0.1851
17490SOL    HW261439   8.043   8.810  10.006  0.9927  1.6159 -1.0752
17491SOL     OW61440  11.697   2.285   7.151  0.3623 -0.0200 -0.1702
17491SOL    HW161441  11.788   2.255   7.140  0.8849  1.0341  0.9523
17491SOL    HW261442  11.644   2.207   7.137  1.5586 -1.0676  0.8901
17492SOL     OW61443   8.600  10.320   5.770  0.1135  0.3945  0.1987
17492SOL    HW161444   8.609  10.384   5.841 -1.5271  1.8666 -0.8260
17492SOL    HW261445   8.512  10.336   5.734  0.3565 -1.2411 -1.2747
17493SOL     OW61446   8.943   3.049   6.638 -0.1749 -0.3854  0.2772
17493SOL    HW161447   8.997   3.076   6.564 -1.0322  0.5786 -0.0151
17493SOL    HW261448   9.001   3.053   6.714  0.9256 -2.1072 -0.4136
17494SOL     OW61449   9.777   8.422   9.424  0.1079  0.4751 -0.5520
17494SOL    HW161450   9.850   8.392   9.479 -0.1902  0.5415 -0.1089
17494SOL    HW261451   9.806   8.507   9.391  0.3779  0.3382 -0.6706
17495SOL     OW61452   1.244   7.361   0.703 -0.1329 -0.7065  0.1785
17495SOL    HW161453   1.226   7.321   0.788  1.1945 -2.4377 -0.3026
17495SOL    HW261454   1.338   7.345   0.688 -0.2761 -0.2230 -1.5043
17496SOL     OW61455   0.004   4.950  11.221  0.1374 -0.3551  0.0862
17496SOL    HW161456  -0.020   4.968  11.312  0.8083 -2.1454  0.6713
17496SOL    HW261457   0.100   4.951  11.221  0.1580 -1.2149 -0.3847
17497SOL     OW61458   6.588   5.730   5.352  0.4644  0.0829  0.5429
17497SOL    HW161459   6.547   5.731   5.439  1.2100  1.2222  0.9001
17497SOL    HW261460   6.593   5.637   5.329  0.5388 -0.2547  1.8456
17498SOL     OW61461   7.694   2.267   2.375 -0.0869  0.5702 -0.0331
17498SOL    HW161462   7.651   2.236   2.454  0.0704  1.1948  0.3036
17498SOL    HW261463   7.667   2.358   2.367 -1.6289  0.0210 -1.7489
17499SOL     OW61464   3.970   6.756   2.187  0.0868 -0.1217  0.4235
17499SOL    HW161465   4.055   6.714   2.195 -0.0842 -0.7940 -1.0147
17499SOL    HW261466   3.947   6.780   2.276  1.6607 -0.1558  0.8754
17500SOL     OW61467   9.281   7.847   9.133  0.5139 -0.1045 -0.0544
17500SOL    HW161468   9.322   7.927   9.100  0.0100  0.1797 -0.0078
17500SOL    HW261469   9.187   7.865   9.128  0.4012  0.3816  2.6190
17501SOL     OW61470   0.840   0.762   7.686  0.1213 -0.2707 -0.3240
17501SOL    HW161471   0.924   0.722   7.710 -0.1734  0.6095  2.5433
17501SOL    HW261472   0.787   0.689   7.653  0.8059 -1.5775  1.3312
17502SOL     OW61473   6.744   8.994   0.990 -0.0756 -0.1935 -0.3349
17502SOL    HW161474   6.699   9.077   0.977 -1.5749 -0.6916  1.2737
17502SOL    HW261475   6.837   9.016   0.988 -0.4131  2.0551  2.8044
17503SOL     OW61476   9.453   4.616  11.619 -0.2585 -0.1361 -0.2609
17503SOL    HW161477   9.486   4.548  11.677  1.3189  0.7593 -0.0400
17503SOL    HW261478   9.376   4.577  11.576 -0.3927 -1.4277  1.0905
17504SOL     OW61479   8.226   5.885   9.647 -0.7891  0.2993 -0.5368
17504SOL    HW161480   8.181   5.885   9.562  0.7401 -0.6203 -1.3843
17504SOL    HW261481   8.316   5.909   9.627 -0.8705  2.4178  1.1702
17505SOL     OW61482  11.310   8.447  12.500 -0.0889 -0.2481  0.2006
17505SOL    HW161483  11.364   8.454  12.578  0.2836 -1.9504  0.1286
17505SOL    HW261484  11.364   8.485  12.430  0.2080 -0.1331  0.4916
17506SOL     OW61485   6.148   5.450  12.270 -0.1667  0.2621  0.3752
17506SOL    HW161486   6.130   5.540  12.297 -0.0500  0.8152 -1.3209
17506SOL    HW261487   6.062   5.415  12.246 -0.2811 -0.2557  1.4633
17507SOL     OW61488   7.734   2.023   6.772  0.1202  0.4692  0.2072
17507SOL    HW161489   7.794   2.043   6.844 -1.8122  2.3613  1.3912
17507SOL    HW261490   7.740   1.928   6.763 -0.8022 -0.1109  4.0673
17508SOL     OW61491  11.081   9.506  10.992 -0.1560  0.3371 -0.1898
17508SOL    HW161492  11.022   9.436  10.964 -1.2300  1.0317  0.2583
17508SOL    HW261493  11.160   9.460  11.023 -1.5999 -0.8673  2.0102
17509SOL     OW61494   8.227   4.325   6.190 -1.2399 -0.2851  0.9597
17509SOL    HW161495   8.155   4.265   6.209 -1.3119 -1.4121 -2.1875
17509SOL    HW261496   8.252   4.304   6.100  3.1050  0.0173  1.8884
17510SOL     OW61497  12.147   3.505   9.523  0.4521  0.3056 -0.7642
17510SOL    HW161498  12.210   3.538   9.459 -2.6349  1.8542 -3.2465
17510SOL    HW261499  12.126   3.581   9.577  1.2924 -0.4336  0.6798
17511SOL     OW61500   2.442   5.741   5.790 -0.8303  0.6617 -0.0835
17511SOL    HW161501   2.512   5.782   5.740 -1.3412  0.1942 -1.2167
17511SOL    HW261502   2.479   5.658   5.820 -1.8680 -1.2792 -3.6144
17512SOL     OW61503   4.115  12.071  11.689 -0.0971 -0.3769  0.8358
17512SOL    HW161504   4.143  11.980  11.699  2.3578  0.2434  0.2921
17512SOL    HW261505   4.165  12.120  11.755  0.6577  0.9015 -0.6154
17513SOL     OW61506   8.956  12.213   8.129 -0.1969  0.5153 -0.1822
17513SOL    HW161507   9.050  12.225   8.115  0.0715 -1.1112 -0.0500
17513SOL    HW261508   8.935  12.267   8.205  0.7864  0.3876  0.1974
17514SOL     OW61509   3.899  11.978   2.630  0.0093 -1.1269  0.3089
17514SOL    HW161510   3.902  11.923   2.551 -0.9728 -0.6039 -0.1098
17514SOL    HW261511   3.815  12.022   2.625  0.4999 -0.0785  0.9791
17515SOL     OW61512   5.840   7.764   1.529  0.3441  0.2245  0.3156
17515SOL    HW161513   5.871   7.747   1.618 -0.9828  1.5084  1.0814
17515SOL    HW261514   5.751   7.729   1.527  1.3481 -2.5579 -1.5413
17516SOL     OW61515   8.095   3.287  10.597  0.7666 -0.1475 -0.1082
17516SOL    HW161516   8.041   3.356  10.559  0.4224  0.2778  1.1163
17516SOL    HW261517   8.180   3.329  10.613  0.5458  0.0006  0.6699
17517SOL     OW61518   7.305   3.683   5.299  0.5965 -0.6145  0.0346
17517SOL    HW161519   7.247   3.733   5.356  3.0782 -0.2782  2.4687
17517SOL    HW261520   7.385   3.735   5.293  1.8069 -2.4398 -0.6467
17518SOL     OW61521  10.545   3.573  12.005 -0.8211 -0.4585 -0.2405
17518SOL    HW161522  10.455   3.592  12.031 -0.7822  2.1746 -1.7542
17518SOL    HW261523  10.598   3.610  12.075 -0.8621 -0.7375 -0.0581
17519SOL     OW61524   1.166   7.540   1.825  0.0634  0.1207 -0.3368
17519SOL    HW161525   1.257   7.545   1.794  0.6217  0.9519  1.3187
17519SOL    HW261526   1.123   7.481   1.763  1.6193  0.0414 -1.4063
17520SOL     OW61527   8.295   5.270   6.651 -0.3401  0.9351  0.4855
17520SOL    HW161528   8.265   5.186   6.616  2.0502 -0.0032  0.4685
17520SOL    HW261529   8.371   5.247   6.706  2.2426  3.2496 -1.8009
17521SOL     OW61530  11.875  11.967  11.791 -0.2045 -0.2209 -0.0771
17521SOL    HW161531  11.825  11.913  11.853 -1.4716 -0.7846 -1.5188
17521SOL    HW261532  11.967  11.948  11.811 -0.5409  0.0559  1.9840
17522SOL     OW61533   1.871   4.697   2.506 -0.4710 -0.1817 -0.5156
17522SOL    HW161534   1.915   4.648   2.436 -0.1608 -1.6625  0.6748
17522SOL    HW261535   1.811   4.756   2.460  1.0466  0.2028 -2.0877
17523SOL     OW61536  12.421   1.896  10.129 -0.2760 -0.3553  0.2644
17523SOL    HW161537  12.390   1.932  10.212 -0.9692 -0.6826  0.1537
17523SOL    HW261538  12.344   1.897  10.072  0.2274  0.0242 -0.4319
17524SOL     OW61539   7.722   6.226   7.387 -0.1041 -0.0558  0.6353
17524SOL    HW161540   7.639   6.179   7.382 -0.3217  0.3997 -0.2466
17524SOL    HW261541   7.747   6.240   7.296 -0.3746  2.0857  0.8325
17525SOL     OW61542   6.634   8.925   3.283  0.3463 -0.0754  0.7031
17525SOL    HW161543   6.664   8.836   3.298 -0.2412 -0.1479  1.5013
17525SOL    HW261544   6.548   8.929   3.325  0.9558  1.2550  1.9158
17526SOL     OW61545   3.445   6.835   5.300  0.7624  0.2238  0.1691
17526SOL    HW161546   3.364   6.856   5.347  0.5108  0.5044 -0.3811
17526SOL    HW261547   3.448   6.898   5.228  2.6634  1.7880  1.5054
17527SOL     OW61548   4.598   5.396   6.908  0.9800 -0.6742  0.3710
17527SOL    HW161549   4.682   5.367   6.872  0.1795 -0.0921 -2.1962
17527SOL    HW261550   4.538   5.324   6.889  0.3342  0.0386 -0.3686
17528SOL     OW61551  11.649  12.585   9.406 -0.1793  0.5222  0.4129
17528SOL    HW161552  11.686  12.592   9.318  2.1181 -1.0351  1.1577
17528SOL    HW261553  11.719  12.614   9.464 -0.5815 -1.2040  1.8504
17529SOL     OW61554  10.365   4.107   8.628 -0.4650  0.6767 -0.0271
17529SOL    HW161555  10.331   4.017   8.632 -0.6880  0.7943  0.9737
17529SOL    HW261556  10.452   4.098   8.589  0.1898 -0.1900  1.5116
17530SOL     OW61557   3.800   6.263   1.750 -0.2851 -0.2592  0.0986
17530SOL    HW161558   3.774   6.179   1.712  0.0987 -0.9309  1.2446
17530SOL    HW261559   3.864   6.299   1.689 -0.0423 -1.0723 -0.1384
17531SOL     OW61560  10.822  12.036   2.315 -0.4144  0.1214 -0.0379
17531SOL    HW161561  10.734  12.074   2.322 -0.8763 -0.5005 -1.8071
17531SOL    HW261562  10.811  11.945   2.342 -0.2476  0.1329  0.0670
17532SOL     OW61563   2.114   1.694   2.370  0.0369 -0.1961  0.0921
17532SOL    HW161564   2.117   1.789   2.362 -1.3313 -0.3144 -3.0933
17532SOL    HW261565   2.203   1.666   2.347  0.1414  0.2761 -0.1014
17533SOL     OW61566   8.820   1.285   4.915 -0.7855 -0.1914  0.0820
17533SOL    HW161567   8.753   1.218   4.930  0.5686 -2.0544 -1.6728
17533SOL    HW261568   8.820   1.298   4.821  1.7093 -0.6956 -0.0336
17534SOL     OW61569  11.335   4.127   8.993 -0.1022  0.2084 -0.3146
17534SOL    HW161570  11.314   4.033   8.993 -0.0741  0.1159 -2.9549
17534SOL    HW261571  11.249   4.170   8.990 -0.1009  0.2553  0.2207
17535SOL     OW61572   5.814   1.195   4.463  0.0080 -0.4132  0.1379
17535SOL    HW161573   5.836   1.163   4.375  0.4519  1.3291 -0.4232
17535SOL    HW261574   5.742   1.257   4.448  0.6721  0.5642  0.8747
17536SOL     OW61575   7.181  11.963   3.425 -0.8579  0.1237  0.2177
17536SOL    HW161576   7.237  11.944   3.500 -0.2450  2.0864  0.3128
17536SOL    HW261577   7.236  11.946   3.349  0.4787  3.3231  0.3110
17537SOL     OW61578   9.276   9.184  11.663  0.9130 -0.1026 -0.0353
17537SOL    HW161579   9.322   9.108  11.626  2.2680 -0.1924  1.6653
17537SOL    HW261580   9.200   9.146  11.708  1.0588 -0.3618 -0.0018
17538SOL     OW61581   7.267   4.677   1.742 -0.1434  0.0015  0.0322
17538SOL    HW161582   7.225   4.615   1.683 -0.0687 -0.8571  0.8440
17538SOL    HW261583   7.197   4.735   1.770 -0.8504 -1.4122  1.3653
17539SOL     OW61584   7.187   3.876   4.200 -0.5203  0.5994  0.2611
17539SOL    HW161585   7.173   3.859   4.107 -1.4113 -0.5850  0.5800
17539SOL    HW261586   7.260   3.938   4.203  0.1816 -0.1125 -1.1744
17540SOL     OW61587   0.778   8.113  11.818 -0.0991 -0.2355 -0.7516
17540SOL    HW161588   0.721   8.190  11.818 -0.5808 -0.5812 -0.1653
17540SOL    HW261589   0.728   8.046  11.772 -0.2335 -0.5886 -0.0983
17541SOL     OW61590   1.020  10.952   1.440 -0.1324  0.1651 -0.3551
17541SOL    HW161591   1.027  11.036   1.485  0.8483 -0.4538  0.7074
17541SOL    HW261592   1.034  10.887   1.509 -1.1397 -0.8808 -1.1100
17542SOL     OW61593   8.741  10.022   4.558  0.1827  0.2931 -0.5588
17542SOL    HW161594   8.741   9.944   4.502 -0.9076  1.7304 -2.7271
17542SOL    HW261595   8.653  10.026   4.593 -0.0054  0.9345 -1.0826
17543SOL     OW61596  10.695   7.740   4.867  0.0303 -0.8813  0.4638
17543SOL    HW161597  10.644   7.659   4.877 -1.1666 -0.5591 -2.1143
17543SOL    HW261598  10.630   7.810   4.872  0.8581 -0.1410  1.2154
17544SOL     OW61599   8.886   0.308   4.193  0.0374  0.6958  0.8746
17544SOL    HW161600   8.933   0.241   4.143 -0.0308  0.8177  0.6473
17544SOL    HW261601   8.818   0.260   4.240  0.4022  0.5111  1.2298
17545SOL     OW61602   6.118   3.004   6.756 -0.3386 -0.0243 -0.0517
17545SOL    HW161603   6.046   2.946   6.780 -0.3236  0.4350  1.1706
17545SOL    HW261604   6.142   2.977   6.668 -2.5580  0.3321 -0.8470
17546SOL     OW61605  11.080   7.712   3.304  0.1566  0.6947 -0.2972
17546SOL    HW161606  11.168   7.684   3.279  1.2695  1.6579  2.1780
17546SOL    HW261607  11.032   7.631   3.320  1.2542  0.1511  0.3312
17547SOL     OW61608   0.670   2.589   1.129  0.0586  0.2888  0.2107
17547SOL    HW161609   0.638   2.615   1.043 -2.7221 -1.7378  0.4988
17547SOL    HW261610   0.705   2.501   1.115  0.4055  0.2939  1.0204
17548SOL     OW61611   0.497   8.581   7.900  0.3751 -0.2221  0.5796
17548SOL    HW161612   0.570   8.520   7.911  1.6614  1.3699  1.1942
17548SOL    HW261613   0.534   8.657   7.856 -0.9089  0.6344  0.9069
17549SOL     OW61614   8.964   3.271   7.016  0.1196 -0.1180  0.1355
17549SOL    HW161615   9.019   3.312   6.950 -0.6336 -0.3941 -0.6886
17549SOL    HW261616   8.874   3.289   6.987 -0.2292 -0.3597  1.0137
17550SOL     OW61617   9.564   3.454   7.744 -0.0083 -0.1754  0.1253
17550SOL    HW161618   9.645   3.452   7.795  0.8208  1.4298 -1.0788
17550SOL    HW261619   9.558   3.543   7.710 -2.1732 -0.3162 -0.0210
17551SOL     OW61620   7.195   3.565   8.977  0.9414  0.1054 -0.6849
17551SOL    HW161621   7.115   3.555   9.029 -0.2950  2.1204 -2.0378
17551SOL    HW261622   7.210   3.479   8.939 -1.1157 -0.1337 -1.0710
17552SOL     OW61623   6.529   9.285   0.567 -0.2385 -0.4324  0.0622
17552SOL    HW161624   6.483   9.225   0.627 -1.4554 -1.3139 -1.6493
17552SOL    HW261625   6.557   9.229   0.495  0.6854  0.6839 -0.4676
17553SOL     OW61626  12.398   5.680   2.246  0.1972  0.1920 -0.2517
17553SOL    HW161627  12.396   5.732   2.327  0.3085  1.6818 -1.1595
17553SOL    HW261628  12.484   5.639   2.246  0.7254  1.2645 -0.2411
17554SOL     OW61629   1.151   0.066  10.830 -0.3296 -0.1317  0.0586
17554SOL    HW161630   1.168   0.009  10.905  1.1720  0.4526  0.1892
17554SOL    HW261631   1.208   0.142  10.844  0.2959 -0.1933 -1.8718
17555SOL     OW61632   1.289   0.345  11.115  0.8715  0.1126  0.5192
17555SOL    HW161633   1.241   0.428  11.115 -0.1983 -0.4627 -0.8718
17555SOL    HW261634   1.222   0.278  11.120  1.4760 -0.7251 -1.5420
17556SOL     OW61635  11.843   9.923   2.276  0.0602  0.4153  0.5032
17556SOL    HW161636  11.930   9.950   2.247 -0.1648  0.1229 -0.4676
17556SOL    HW261637  11.854   9.833   2.305  0.0124  0.2563  0.0344
17557SOL     OW61638   0.344  10.718   4.876  0.3800 -0.2765  0.3404
17557SOL    HW161639   0.316  10.661   4.948 -0.0957 -0.4659  0.0112
17557SOL    HW261640   0.433  10.743   4.898  1.4029 -2.8626 -0.5524
17558SOL     OW61641   0.520   7.869  10.208 -0.5031 -0.1808  0.2195
17558SOL    HW161642   0.498   7.869  10.301 -2.8858 -0.6216 -0.2849
17558SOL    HW261643   0.443   7.833  10.164  0.0444  1.1504 -2.0446
17559SOL     OW61644  11.812   7.881  12.558  0.4984  0.3081  0.1010
17559SOL    HW161645  11.818   7.897  12.652  0.5693 -0.4388  0.2306
17559SOL    HW261646  11.718   7.870  12.542  0.3485  1.7273 -0.1520
17560SOL     OW61647   7.666   6.982   0.715 -0.4680  0.0411 -0.0681
17560SOL    HW161648   7.619   7.059   0.748 -0.5999 -0.0612 -0.0152
17560SOL    HW261649   7.755   7.013   0.700 -0.1862 -0.1240  1.1816
17561SOL     OW61650   2.880   1.103   5.711 -0.0787  0.4008 -0.4422
17561SOL    HW161651   2.887   1.033   5.646  2.5943  1.5528 -1.5317
17561SOL    HW261652   2.947   1.082   5.776 -0.0880  1.2967 -0.1376
17562SOL     OW61653  10.567   1.040   7.866  0.4202 -0.3408 -0.1640
17562SOL    HW161654  10.511   1.037   7.944 -0.8415 -0.3827 -1.0470
17562SOL    HW261655  10.607   0.953   7.862  0.7363 -0.2430  0.5888
17563SOL     OW61656   3.377   3.145   9.685 -0.0503  1.0229 -0.2319
17563SOL    HW161657   3.386   3.050   9.682  0.1510  1.0498 -0.4473
17563SOL    HW261658   3.285   3.161   9.664  0.0684  0.9124 -0.8594
17564SOL     OW61659   5.877  10.459   3.460 -0.1589 -0.5749 -0.2927
17564SOL    HW161660   5.844  10.379   3.419  1.6547 -1.3064 -0.4424
17564SOL    HW261661   5.872  10.525   3.391  1.1751 -1.3495 -1.1926
17565SOL     OW61662   2.521   6.518  10.164  0.0429  0.2363  0.1157
17565SOL    HW161663   2.599   6.541  10.113  1.0667  0.8104  1.8482
17565SOL    HW261664   2.501   6.597  10.213 -0.8824 -0.3055  0.6277
17566SOL     OW61665   2.067  10.258   9.907  0.5891  0.8425 -0.3874
17566SOL    HW161666   2.043  10.168   9.888  3.5129  0.0287 -0.5837
17566SOL    HW261667   1.983  10.301   9.925 -0.9051 -1.8435 -0.3879
17567SOL     OW61668   9.629   1.729   8.863  0.3813  0.1807 -0.5191
17567SOL    HW161669   9.666   1.667   8.800 -0.3263 -0.0895 -0.6745
17567SOL    HW261670   9.567   1.781   8.811 -0.1995 -0.0364 -0.0478
17568SOL     OW61671   1.688   7.809   9.340 -0.3003 -0.0187 -0.3205
17568SOL    HW161672   1.624   7.759   9.289 -0.4656 -0.3171  0.1725
17568SOL    HW261673   1.634   7.866   9.396 -0.1180  1.1471 -1.2769
17569SOL     OW61674   0.863   7.878   7.875  0.4492 -0.3856  0.0099
17569SOL    HW161675   0.898   7.967   7.862  1.1589 -0.2479  2.2645
17569SOL    HW261676   0.869   7.836   7.790 -0.1190  1.7989 -1.1760
17570SOL     OW61677   9.246  10.000  10.093  0.1381  0.1305  0.0568
17570SOL    HW161678   9.196  10.008  10.174 -1.0696  1.6326 -0.8102
17570SOL    HW261679   9.199   9.934  10.042  0.1305  0.1578  0.0285
17571SOL     OW61680   2.923  11.667   7.470  0.4841 -0.4992 -0.0370
17571SOL    HW161681   2.862  11.677   7.543  0.9485  1.2405  0.1589
17571SOL    HW261682   2.986  11.739   7.482  1.0110 -0.6475 -1.7177
17572SOL     OW61683   7.426   6.683   3.100 -0.0297 -0.3048  0.5410
17572SOL    HW161684   7.359   6.705   3.036  0.0913  0.2840  0.6089
17572SOL    HW261685   7.434   6.761   3.155  1.7349  0.2336 -0.3670
17573SOL     OW61686   8.931   2.894   5.032  0.2491  0.4884  0.2004
17573SOL    HW161687   8.964   2.948   4.961 -0.2655 -0.1972 -0.5723
17573SOL    HW261688   8.941   2.804   5.001 -1.1651  0.2155  0.4411
17574SOL     OW61689   1.296   0.434   3.697  0.5410  0.4843  0.5040
17574SOL    HW161690   1.297   0.518   3.650 -1.3152  0.2200 -0.0851
17574SOL    HW261691   1.226   0.444   3.761  0.0315 -0.7374  0.1611
17575SOL     OW61692   4.250   7.718   0.263 -0.0923  0.6420 -0.3452
17575SOL    HW161693   4.261   7.787   0.328  1.9016  0.3140 -0.2785
17575SOL    HW261694   4.249   7.637   0.314 -1.8291  0.5508 -0.4742
17576SOL     OW61695   5.841   8.619  11.533 -0.7758  0.8948  0.6100
17576SOL    HW161696   5.899   8.673  11.479  1.1257  0.1106  1.7753
17576SOL    HW261697   5.832   8.538  11.483  0.1797  0.5453  0.9776
17577SOL     OW61698   9.865   2.902   9.686  0.0249 -0.4929  0.0375
17577SOL    HW161699   9.818   2.975   9.647 -0.8686 -1.4436 -0.7210
17577SOL    HW261700   9.798   2.835   9.700  0.7266 -0.9953  1.1741
17578SOL     OW61701   8.438   5.114   0.245  0.1216 -0.6266 -0.7385
17578SOL    HW161702   8.479   5.171   0.180 -0.4117 -0.5286 -0.9892
17578SOL    HW261703   8.344   5.122   0.229  0.0289 -1.4387 -0.6637
17579SOL     OW61704   3.956   3.061   5.557  0.2312  0.3745  1.0608
17579SOL    HW161705   4.032   3.117   5.542 -0.3793  0.6550 -1.4583
17579SOL    HW261706   3.970   2.986   5.500 -1.6780  0.7549  0.0068
17580SOL     OW61707   7.514  10.980   9.871  0.0996  0.2688  0.2969
17580SOL    HW161708   7.556  10.949   9.791  1.1909 -0.0080  0.9432
17580SOL    HW261709   7.432  11.019   9.842 -0.3231 -1.3290 -0.7682
17581SOL     OW61710   7.377   4.230   7.704 -0.1924 -0.5222 -0.2428
17581SOL    HW161711   7.424   4.290   7.761  2.6677 -1.8821 -0.9962
17581SOL    HW261712   7.334   4.169   7.764  0.1839 -0.1014  0.4698
17582SOL     OW61713   6.452  10.792   3.047  0.1558  0.1378 -0.3444
17582SOL    HW161714   6.442  10.883   3.075  0.6355 -0.3668  1.6034
17582SOL    HW261715   6.544  10.785   3.021  0.7257 -0.2729  1.6041
17583SOL     OW61716   4.520   9.195   9.423  0.1818  0.6346 -0.2608
17583SOL    HW161717   4.584   9.230   9.361  0.9696  0.1497  0.2521
17583SOL    HW261718   4.444   9.173   9.370  0.3874  1.3406 -0.8703
17584SOL     OW61719   6.166   8.488   6.056 -0.3386 -0.1323  0.5660
17584SOL    HW161720   6.092   8.544   6.080 -0.0187  0.8302 -0.5984
17584SOL    HW261721   6.235   8.549   6.029  0.4637 -1.0488  0.4830
17585SOL     OW61722   2.541   9.649   9.480 -0.0990  0.3642 -0.1724
17585SOL    HW161723   2.548   9.635   9.386 -2.5753 -1.1627 -0.2190
17585SOL    HW261724   2.629   9.675   9.507  1.2272 -1.3111 -2.5387
17586SOL     OW61725  12.556   2.089  10.826  1.1104  0.5978  0.0921
17586SOL    HW161726  12.610   2.163  10.854  3.5695 -1.6914  1.8932
17586SOL    HW261727  12.607   2.047  10.756  0.5059 -0.2409  0.1361
17587SOL     OW61728   3.929   2.142   0.419  0.1582 -0.5685  0.2251
17587SOL    HW161729   4.008   2.180   0.380 -0.1834 -0.5151 -0.4432
17587SOL    HW261730   3.862   2.154   0.352 -0.7927  0.7405  1.3605
17588SOL     OW61731   4.569   0.765   0.229 -0.0738  0.2082 -0.2033
17588SOL    HW161732   4.613   0.700   0.284 -0.1701 -0.5975 -1.0637
17588SOL    HW261733   4.484   0.726   0.210 -0.9645  1.4950  0.9541
17589SOL     OW61734  10.897   4.982   5.828 -0.0991  0.4674 -0.9150
17589SOL    HW161735  10.870   4.894   5.855 -1.6295  1.2794  0.3893
17589SOL    HW261736  10.936   5.020   5.906  2.0240  0.4575 -1.9031
17590SOL     OW61737  10.847   7.132  10.660  0.2594 -0.2146 -0.1386
17590SOL    HW161738  10.883   7.082  10.733  2.2901 -0.0517 -0.9713
17590SOL    HW261739  10.893   7.216  10.663  0.6264 -0.3383 -1.7962
17591SOL     OW61740   1.210   0.986   9.690 -0.0359  0.6506  0.0482
17591SOL    HW161741   1.298   0.960   9.715 -0.0527  0.8001  0.2653
17591SOL    HW261742   1.212   0.989   9.594  0.2003  0.6846  0.0534
17592SOL     OW61743   9.783   3.951  10.044 -0.1151 -0.2925  0.1220
17592SOL    HW161744   9.719   3.943  10.114  1.3980 -1.2546  1.4734
17592SOL    HW261745   9.790   4.045  10.027  0.4824  0.0934  2.2693
17593SOL     OW61746  11.042   8.193   4.230  0.1585 -0.2934 -0.2474
17593SOL    HW161747  11.047   8.100   4.252 -1.7538 -0.5433 -0.6565
17593SOL    HW261748  11.079   8.200   4.142 -1.3633 -1.0162 -0.9763
17594SOL     OW61749  11.661   2.351   9.165 -0.0903 -0.0771 -0.4686
17594SOL    HW161750  11.614   2.375   9.084 -0.9373  0.9250  0.2778
17594SOL    HW261751  11.628   2.264   9.186  0.3217 -0.4531 -1.3300
17595SOL     OW61752  10.610   8.106  12.338 -0.5873 -0.2019  0.0733
17595SOL    HW161753  10.593   8.198  12.361  0.7105  0.6525 -2.0058
17595SOL    HW261754  10.528   8.061  12.357 -1.1627  1.3099  1.4673
17596SOL     OW61755   1.389   1.136   6.505  0.0110 -0.0978 -0.3462
17596SOL    HW161756   1.306   1.158   6.547 -0.2537 -1.1705 -0.2770
17596SOL    HW261757   1.419   1.218   6.465 -1.5681  0.0799 -1.2276
17597SOL     OW61758   2.767   4.693   4.923 -0.1185  0.0547  0.1378
17597SOL    HW161759   2.787   4.682   4.830  3.4563  1.2912  0.6116
17597SOL    HW261760   2.679   4.731   4.924 -0.5591 -0.6283 -2.6534
17598SOL     OW61761   4.909   8.022  11.398  0.6209  0.1307 -0.0537
17598SOL    HW161762   4.952   8.072  11.329 -0.8373 -0.4723 -1.4429
17598SOL    HW261763   4.823   8.062  11.407  1.0700  0.7724  2.0918
17599SOL     OW61764   3.789   2.781   2.794 -0.2520 -0.0344  0.0760
17599SOL    HW161765   3.853   2.803   2.862 -0.0809  0.7202 -0.3237
17599SOL    HW261766   3.723   2.728   2.840  1.0865 -1.5787  0.3128
17600SOL     OW61767   1.304   4.129   9.953 -0.1664 -1.0164  0.4011
17600SOL    HW161768   1.271   4.165   9.871  0.6054  0.2644  0.6311
17600SOL    HW261769   1.238   4.153  10.018 -0.5035 -1.5503  0.2653
17601SOL     OW61770  10.937   3.279   6.582 -0.2355  0.7255  0.0408
17601SOL    HW161771  10.958   3.366   6.548  1.7162  0.2483 -0.1018
17601SOL    HW261772  11.015   3.226   6.562 -0.9039 -0.7530  1.1686
17602SOL     OW61773  11.751   5.904   2.283 -0.2241 -0.5420 -0.0815
17602SOL    HW161774  11.753   5.814   2.252  0.8440 -0.7889  0.6321
17602SOL    HW261775  11.843   5.927   2.296 -0.5662 -0.1463  1.9642
17603SOL     OW61776   7.408   1.163   3.815 -0.1909  0.1059  0.3574
17603SOL    HW161777   7.385   1.247   3.853 -0.3641  0.0406  0.3964
17603SOL    HW261778   7.334   1.106   3.836 -1.3805  0.6511 -2.0037
17604SOL     OW61779   4.633   1.805   0.922  0.3191  0.1955  0.3452
17604SOL    HW161780   4.583   1.832   0.845 -0.2492  2.5674  1.4659
17604SOL    HW261781   4.724   1.804   0.892 -0.1096 -3.2408 -1.4556
17605SOL     OW61782   9.050   7.219   6.811  0.0173 -0.1070 -0.1924
17605SOL    HW161783   8.988   7.198   6.880  1.8463 -1.4350  1.1437
17605SOL    HW261784   9.001   7.205   6.729 -1.8373  0.3667  0.7877
17606SOL     OW61785  10.915  10.498   9.767  0.0405 -0.0793 -0.1320
17606SOL    HW161786  10.981  10.495   9.698  0.5092 -1.2941  0.3395
17606SOL    HW261787  10.919  10.411   9.808 -1.4318  0.0312  0.3020
17607SOL     OW61788   0.426   4.750   4.874  0.3999  0.7395 -0.0949
17607SOL    HW161789   0.368   4.740   4.798 -0.2243  0.9989  0.3395
17607SOL    HW261790   0.418   4.842   4.898 -0.0191  0.4888  0.7649
17608SOL     OW61791   4.052   9.173   5.891 -0.3234  0.1373 -0.5257
17608SOL    HW161792   4.076   9.265   5.880  1.0940 -0.1380  0.1022
17608SOL    HW261793   4.084   9.150   5.978 -0.9727 -0.8735 -0.5343
17609SOL     OW61794   0.805   2.985   4.242 -0.3158 -0.0624 -0.3173
17609SOL    HW161795   0.821   2.935   4.162 -1.8440 -0.3690 -0.4624
17609SOL    HW261796   0.861   3.062   4.234  0.6803 -0.8351 -0.9583
17610SOL     OW61797  12.246   5.312   5.494  0.2174  0.8241 -0.4613
17610SOL    HW161798  12.296   5.237   5.530 -0.5153  0.2014 -0.7233
17610SOL    HW261799  12.226   5.365   5.571  0.3136  0.4950 -0.2026
17611SOL     OW61800   1.086   7.974   7.097  0.4789  0.3574  0.6512
17611SOL    HW161801   1.075   8.044   7.161  4.0692  0.7148  1.1035
17611SOL    HW261802   1.092   7.894   7.150  2.7905  0.5785  0.8438
17612SOL     OW61803   8.591   2.314   6.400  0.7079 -0.4228 -0.4194
17612SOL    HW161804   8.551   2.364   6.471  1.5397  0.6982 -0.7280
17612SOL    HW261805   8.566   2.223   6.419  0.6250 -0.1077  1.1138
17613SOL     OW61806   9.697   8.361   1.804  0.2646  0.0343 -0.2297
17613SOL    HW161807   9.633   8.322   1.863 -0.6162  1.1261 -0.4342
17613SOL    HW261808   9.705   8.298   1.732 -0.6907 -0.0443 -0.2776
17614SOL     OW61809  12.330   4.161   8.828  0.5938  0.2255  0.3341
17614SOL    HW161810  12.240   4.180   8.854  0.7433  0.5454  0.6439
17614SOL    HW261811  12.330   4.165   8.733  0.0887 -0.6805  0.2880
17615SOL     OW61812   8.646   3.377   1.962 -0.6870  0.1522  0.2927
17615SOL    HW161813   8.722   3.367   2.020  0.0709 -0.4830 -0.7652
17615SOL    HW261814   8.672   3.447   1.902 -1.4582  0.7984  0.7056
17616SOL     OW61815   0.525   2.761   8.157  0.4506  0.1350  0.0870
17616SOL    HW161816   0.496   2.676   8.191  1.1458 -0.6998 -1.3183
17616SOL    HW261817   0.567   2.804   8.231 -1.3926 -0.0046  1.2876
17617SOL     OW61818   2.480   4.865   8.830 -0.7428 -0.4138 -0.2719
17617SOL    HW161819   2.451   4.900   8.913  0.5789 -0.1614  0.1100
17617SOL    HW261820   2.444   4.776   8.827 -0.4429 -0.5813  0.7793
17618SOL     OW61821   6.042   0.156   8.410 -0.2603 -0.3171 -0.4552
17618SOL    HW161822   6.018   0.091   8.343  1.6586 -0.6292 -0.8919
17618SOL    HW261823   6.137   0.155   8.411 -0.1988  1.8597  0.1866
17619SOL     OW61824   1.330  10.992  11.140  0.3754 -0.0775  0.1149
17619SOL    HW161825   1.334  11.020  11.048  1.0981  0.4415  0.2928
17619SOL    HW261826   1.293  11.067  11.186  0.9199  0.0399  0.3761
17620SOL     OW61827   3.682  11.290   1.286  0.1349  0.0106  0.0310
17620SOL    HW161828   3.734  11.235   1.228 -0.9845 -0.2237 -0.7828
17620SOL    HW261829   3.736  11.367   1.302  1.2117 -0.7528  0.1906
17621SOL     OW61830  11.547   4.889   3.121 -0.2975  0.7113  0.3699
17621SOL    HW161831  11.597   4.954   3.072  0.6495  1.2729  2.0333
17621SOL    HW261832  11.567   4.806   3.077 -0.7118  1.3684 -1.1372
17622SOL     OW61833  10.257   0.210   6.660  0.0362  0.1087 -0.0761
17622SOL    HW161834  10.182   0.192   6.716  0.0080  1.1870  0.2583
17622SOL    HW261835  10.292   0.124   6.637 -0.1823 -0.3652  1.2754
17623SOL     OW61836   4.107   8.082   0.749  0.0931 -0.7118 -0.5749
17623SOL    HW161837   4.039   8.070   0.816 -0.0658 -0.3085 -0.6590
17623SOL    HW261838   4.159   8.002   0.752 -0.0893 -0.8145 -0.1680
17624SOL     OW61839   4.037   3.134   4.823 -0.2745 -0.3549 -0.5851
17624SOL    HW161840   4.096   3.120   4.897  0.3180 -1.2913 -1.2104
17624SOL    HW261841   3.975   3.062   4.828  1.6935 -2.3495 -2.7860
17625SOL     OW61842   2.101   9.363  11.063 -0.1877 -0.1958 -0.1388
17625SOL    HW161843   2.061   9.321  10.987 -0.4228  1.3729 -0.9315
17625SOL    HW261844   2.143   9.442  11.027 -0.7095  0.8386  1.4227
17626SOL     OW61845  12.387  11.575  12.438  0.8932  0.1539  0.0142
17626SOL    HW161846  12.351  11.636  12.503  0.3011  1.3592 -1.3828
17626SOL    HW261847  12.412  11.631  12.364  1.1209 -1.2239 -0.9886
17627SOL     OW61848   8.926   8.942   9.456 -0.3260  0.3702 -0.1784
17627SOL    HW161849   8.878   8.928   9.375 -0.3122  0.8185 -0.2627
17627SOL    HW261850   8.908   8.863   9.508  0.1686 -0.2139 -0.8571
17628SOL     OW61851   3.302   0.918   8.839  0.1468  0.2871  0.2130
17628SOL    HW161852   3.260   0.975   8.903 -0.1545  1.1821 -0.7610
17628SOL    HW261853   3.230   0.887   8.783 -0.0107 -2.5370  1.7722
17629SOL     OW61854  10.563   3.194   2.659  0.2620  0.7878 -0.5950
17629SOL    HW161855  10.519   3.109   2.664 -0.1736  1.0438 -0.1378
17629SOL    HW261856  10.654   3.174   2.681 -0.1161  0.6630  0.9581
17630SOL     OW61857   4.382   6.326   1.029 -0.9125 -0.4036  0.2529
17630SOL    HW161858   4.458   6.375   1.061 -1.1876  0.9031 -1.0320
17630SOL    HW261859   4.408   6.234   1.039  1.5487 -0.0300 -1.7005
17631SOL     OW61860   5.909   9.076  10.265  0.0040 -0.3570  0.2609
17631SOL    HW161861   5.901   9.109  10.355 -0.9178  0.1089  0.0142
17631SOL    HW261862   5.995   9.107  10.236  0.4314 -0.7371  1.0587
17632SOL     OW61863  11.649   2.290   6.239  0.1964 -0.2255  0.0194
17632SOL    HW161864  11.588   2.225   6.275  1.4442 -1.7768 -0.5779
17632SOL    HW261865  11.623   2.299   6.147  0.5583 -0.5354 -0.1157
17633SOL     OW61866   8.196   1.816  10.154  0.2525  0.4041 -0.6823
17633SOL    HW161867   8.131   1.771  10.209 -0.6203  2.7514  0.3482
17633SOL    HW261868   8.211   1.756  10.081  0.2499 -2.1377  1.2775
17634SOL     OW61869   4.929   1.685  12.150 -0.1608 -0.7564 -0.2701
17634SOL    HW161870   4.896   1.657  12.065  0.5006 -2.2163 -0.0750
17634SOL    HW261871   4.999   1.624  12.170  1.2295  0.9509  0.3150
17635SOL     OW61872   6.501   1.499   0.924  0.5877  0.1419 -0.0495
17635SOL    HW161873   6.483   1.406   0.928  0.3466  0.2219  1.2362
17635SOL    HW261874   6.470   1.533   1.008  3.5475  0.8556  0.8718
17636SOL     OW61875  10.615   5.445  10.166  0.6333 -0.1370  0.5191
17636SOL    HW161876  10.616   5.538  10.190  1.1237 -0.4044  1.6095
17636SOL    HW261877  10.522   5.424  10.159  0.5191  0.4595  0.1871
17637SOL     OW61878   5.688   2.328   8.242  0.7363  0.0335  0.0560
17637SOL    HW161879   5.697   2.423   8.227  1.3719 -0.0788 -0.3572
17637SOL    HW261880   5.716   2.289   8.159 -3.3567 -0.4399 -1.2911
17638SOL     OW61881   2.617   9.843  10.473  0.3636 -0.0605 -0.1525
17638SOL    HW161882   2.587   9.790  10.399 -0.1286  1.8338 -1.3823
17638SOL    HW261883   2.618   9.932  10.439  0.8529  0.7719  1.9342
17639SOL     OW61884   4.031   5.208   2.526  0.0691  0.1881  0.4674
17639SOL    HW161885   4.062   5.260   2.600  1.6665 -1.1411  0.7944
17639SOL    HW261886   3.942   5.240   2.510  0.2890  1.6399  1.8866
17640SOL     OW61887   8.953   1.403   1.189  0.0714  0.0336  0.0424
17640SOL    HW161888   8.888   1.387   1.120  0.2116 -3.2739  0.5212
17640SOL    HW261889   8.903   1.395   1.270  0.3595  1.5248  0.3846
17641SOL     OW61890   9.181   2.576   1.380 -0.0352  0.2250 -0.4080
17641SOL    HW161891   9.155   2.660   1.342  0.9239  0.9505  0.4720
17641SOL    HW261892   9.205   2.596   1.470  0.5253 -0.9398 -0.2725
17642SOL     OW61893   8.196   4.877   4.028  0.3890 -0.1187 -0.0635
17642SOL    HW161894   8.200   4.858   4.122 -1.1436 -0.6200 -0.0636
17642SOL    HW261895   8.275   4.836   3.992  0.3536 -1.0301  0.8355
17643SOL     OW61896   2.010  12.197  11.759 -0.2516  0.0577 -0.2721
17643SOL    HW161897   1.992  12.275  11.811  4.8773  0.7706  0.8935
17643SOL    HW261898   1.986  12.123  11.815  0.6200  0.8491  1.1836
17644SOL     OW61899   6.284   4.228   2.962 -0.0439  0.2145  0.1442
17644SOL    HW161900   6.261   4.318   2.985  0.1592 -0.0763  1.5972
17644SOL    HW261901   6.202   4.179   2.973  0.0537  0.0685  0.2139
17645SOL     OW61902  11.078   6.326  11.659  0.0745 -0.1689 -0.2355
17645SOL    HW161903  11.136   6.337  11.734 -0.0895  1.1283 -0.2735
17645SOL    HW261904  10.998   6.373  11.684  0.4997  1.4141 -1.7185
17646SOL     OW61905   4.377  10.058   5.483 -0.0051 -0.0364  0.1173
17646SOL    HW161906   4.404  10.014   5.563  0.7618  1.8122  0.9439
17646SOL    HW261907   4.447  10.122   5.466 -1.4452  1.4273 -0.5310
17647SOL     OW61908   7.224   1.349   8.840  0.5550  0.2106 -0.3479
17647SOL    HW161909   7.267   1.302   8.768  0.5501  0.2849 -0.4001
17647SOL    HW261910   7.271   1.322   8.918 -0.6261 -1.3365 -0.1224
17648SOL     OW61911   4.899   4.621  11.824 -0.2369 -0.2257 -0.2404
17648SOL    HW161912   4.885   4.712  11.852 -1.5659 -0.5044  0.0531
17648SOL    HW261913   4.895   4.626  11.728 -0.2459  0.0385 -0.2281
17649SOL     OW61914   9.693   8.374  11.213  0.1668  0.4567 -0.3561
17649SOL    HW161915   9.718   8.369  11.305  1.6398  1.0301 -0.7094
17649SOL    HW261916   9.677   8.466  11.196 -1.3714  0.2104 -0.3729
17650SOL     OW61917   6.542   9.187   5.588  0.4030 -0.1914  0.0129
17650SOL    HW161918   6.564   9.229   5.505 -2.4450  0.8062 -0.3546
17650SOL    HW261919   6.583   9.100   5.582  0.3936 -0.1117 -2.3921
17651SOL     OW61920   9.248  12.573   8.569  0.3545 -0.1388  0.4552
17651SOL    HW161921   9.181  12.542   8.630  0.2579  0.6081  0.7364
17651SOL    HW261922   9.229  12.666   8.558  1.9056  0.3154  1.2912
17652SOL     OW61923  10.897   0.497  11.817  0.2502 -0.4840 -0.3111
17652SOL    HW161924  10.901   0.570  11.879 -0.1322  2.0820 -3.0998
17652SOL    HW261925  10.964   0.518  11.752 -0.1485 -2.4694 -1.4230
17653SOL     OW61926   8.428   3.856  12.169  0.1738 -0.1857  0.5006
17653SOL    HW161927   8.503   3.800  12.189  0.8733  1.0571  1.5830
17653SOL    HW261928   8.413   3.905  12.250 -1.4648  0.0067  0.1226
17654SOL     OW61929   7.971   3.091  10.438  0.7651 -0.8323 -0.0100
17654SOL    HW161930   8.028   3.142  10.496  0.5906 -1.0672  0.3763
17654SOL    HW261931   8.031   3.039  10.384  0.9237 -1.1424  0.4513
17655SOL     OW61932   8.546   7.170   1.632  0.4148  0.1361 -0.5202
17655SOL    HW161933   8.599   7.092   1.644  0.4590  0.1777 -0.4419
17655SOL    HW261934   8.472   7.142   1.578 -0.8182 -0.5446  1.4034
17656SOL     OW61935   5.753  11.924  11.938 -0.7329 -0.0772  0.4961
17656SOL    HW161936   5.794  11.839  11.956  0.6988  0.6999  1.0391
17656SOL    HW261937   5.747  11.928  11.843 -3.1744 -1.8335  0.4787
17657SOL     OW61938   7.627   1.571  11.867  0.5917  0.1795  0.1581
17657SOL    HW161939   7.587   1.528  11.943  1.3901 -0.8091  0.0382
17657SOL    HW261940   7.622   1.664  11.887 -0.6406  0.0219  0.6962
17658SOL     OW61941   8.387   5.431   4.466  0.5702  0.6032  0.1842
17658SOL    HW161942   8.422   5.374   4.397  0.9118 -0.2347  1.0375
17658SOL    HW261943   8.429   5.400   4.546  0.0413  1.4582  0.8013
17659SOL     OW61944   8.198   1.018   8.051 -0.2035  0.0240 -0.1146
17659SOL    HW161945   8.103   1.009   8.058 -0.0386 -1.6997  0.2599
17659SOL    HW261946   8.210   1.089   7.988 -1.7275  0.3679 -0.0701
17660SOL     OW61947   5.805   1.511   5.487  0.3163 -0.1141  0.2350
17660SOL    HW161948   5.755   1.564   5.425 -1.0430  0.5419  1.8392
17660SOL    HW261949   5.795   1.556   5.571  1.3921 -1.4613  1.1227
17661SOL     OW61950   1.479   8.457   9.506  0.2360  0.3681 -0.0241
17661SOL    HW161951   1.476   8.378   9.452  2.4737 -0.1527  0.5263
17661SOL    HW261952   1.505   8.526   9.445 -1.2083  0.6076 -0.3976
17662SOL     OW61953  10.863   6.509   6.519 -0.0021  0.4312  0.2043
17662SOL    HW161954  10.882   6.460   6.599 -0.2456  1.4338  0.8895
17662SOL    HW261955  10.768   6.517   6.517  0.0993  3.1927  1.5808
17663SOL     OW61956   4.849   5.730   6.041 -0.2240  0.3435 -0.3189
17663SOL    HW161957   4.760   5.715   6.075 -0.0404 -0.5075 -0.1947
17663SOL    HW261958   4.900   5.754   6.118 -0.0493 -0.5223 -0.1520
17664SOL     OW61959   1.600   9.174   5.994 -0.4330 -0.7323  0.2521
17664SOL    HW161960   1.628   9.141   6.080  0.8457 -0.8561 -0.2007
17664SOL    HW261961   1.674   9.158   5.936 -2.0444 -2.7449 -1.4472
17665SOL     OW61962   1.007   4.215   7.671  0.1026 -0.0264  0.6924
17665SOL    HW161963   0.993   4.267   7.592 -1.7836 -1.0222  0.3128
17665SOL    HW261964   1.056   4.273   7.729  0.3736  1.2026 -0.7103
17666SOL     OW61965   3.266   1.420  10.879 -0.5054 -0.6625 -0.2054
17666SOL    HW161966   3.199   1.402  10.813  1.0236 -0.0906 -2.0303
17666SOL    HW261967   3.278   1.515  10.875 -0.5892 -0.5795  1.1468
17667SOL     OW61968  10.743   1.124  10.562 -0.2258 -0.2152 -0.4135
17667SOL    HW161969  10.684   1.170  10.502 -0.9187  1.5142  1.4425
17667SOL    HW261970  10.781   1.054  10.510 -0.4586  1.4211 -2.9521
17668SOL     OW61971   1.291   7.779   1.339  0.5117 -0.0322 -0.7864
17668SOL    HW161972   1.269   7.706   1.397 -1.0033 -0.7190 -2.1587
17668SOL    HW261973   1.218   7.841   1.350  0.5905  0.1711 -1.3795
17669SOL     OW61974  12.278   0.498  10.608 -0.3337 -0.3113  0.1623
17669SOL    HW161975  12.195   0.534  10.638 -0.5408 -0.1203 -0.6147
17669SOL    HW261976  12.297   0.427  10.670 -0.5442  0.3182  0.9646
17670SOL     OW61977   6.863   1.245   6.289  0.1084 -0.5912 -0.1176
17670SOL    HW161978   6.786   1.198   6.256 -0.5386  0.5839 -0.3210
17670SOL    HW261979   6.828   1.325   6.329  0.9569 -1.4109  2.4730
17671SOL     OW61980  10.877   3.879   7.597 -0.4674 -0.3943  1.0445
17671SOL    HW161981  10.891   3.791   7.561 -0.6857 -1.3634  3.1198
17671SOL    HW261982  10.890   3.867   7.692 -1.8547  1.5271  1.5260
17672SOL     OW61983   2.045   6.821   1.123 -0.2596  0.0870  0.5598
17672SOL    HW161984   2.007   6.909   1.125  0.0155  0.2466 -0.4340
17672SOL    HW261985   1.974   6.764   1.094  0.3967  0.5231 -2.2433
17673SOL     OW61986   4.206   6.335   5.916 -0.9498  0.4428  0.4706
17673SOL    HW161987   4.179   6.286   5.994  0.3629 -2.6468 -0.8527
17673SOL    HW261988   4.136   6.320   5.853 -0.8937  0.9398  0.2852
17674SOL     OW61989  11.643   7.167   1.953  0.1053  1.2172 -0.9001
17674SOL    HW161990  11.654   7.160   2.048  2.1015 -0.7715 -1.1968
17674SOL    HW261991  11.707   7.233   1.926 -1.2188  2.5913 -0.7998
17675SOL     OW61992   1.606  10.681   7.006 -0.1944 -0.1968 -0.2401
17675SOL    HW161993   1.662  10.726   7.070 -0.3768  0.9140 -0.8296
17675SOL    HW261994   1.636  10.590   7.007  0.0828 -0.1048  1.1143
17676SOL     OW61995   0.114   0.328  12.089 -0.2823  0.5149  0.5080
17676SOL    HW161996   0.207   0.341  12.111  0.3400 -1.5824 -0.6461
17676SOL    HW261997   0.086   0.254  12.143 -1.2060  0.9076  0.5872
17677SOL     OW61998   5.476   6.209   3.273 -0.1728  0.2310  0.5615
17677SOL    HW161999   5.462   6.295   3.313  0.5873  0.4805  0.3095
17677SOL    HW262000   5.571   6.202   3.264 -0.2743 -0.2624 -0.2330
17678SOL     OW62001  12.530   9.440   2.087  0.2098  0.3412  0.1544
17678SOL    HW162002  12.590   9.492   2.141  0.5544 -0.2179  0.3223
17678SOL    HW262003  12.446   9.485   2.095  0.2409  0.2418  1.2118
17679SOL     OW62004   1.119   4.594   4.237 -0.5934 -0.1189  0.3572
17679SOL    HW162005   1.125   4.568   4.145 -0.5215  1.9088 -0.2742
17679SOL    HW262006   1.122   4.690   4.234 -0.4775 -0.0202  2.4932
17680SOL     OW62007  12.460  11.768   4.252 -0.0864  0.2672 -0.1108
17680SOL    HW162008  12.364  11.773   4.258 -0.1116  2.4730 -1.1142
17680SOL    HW262009  12.478  11.771   4.158  0.9617 -2.7880 -0.1207
17681SOL     OW62010   8.800  10.580   7.237  0.3425 -0.3721  0.6905
17681SOL    HW162011   8.833  10.627   7.314  0.1183 -1.8824  1.7559
17681SOL    HW262012   8.856  10.503   7.230  0.7595  0.0543 -1.0657
17682SOL     OW62013   0.941   2.757   9.361 -0.6608 -0.1128  0.3269
17682SOL    HW162014   1.007   2.809   9.316 -0.7433 -0.5395 -0.3021
17682SOL    HW262015   0.989   2.709   9.428 -0.4536  0.1441  0.3604
17683SOL     OW62016   8.714   5.924   0.282  0.0915 -0.0400  0.0858
17683SOL    HW162017   8.732   5.861   0.352 -0.1264 -1.2900 -0.9252
17683SOL    HW262018   8.780   5.904   0.215 -0.4049  0.3655 -0.5314
17684SOL     OW62019   7.627   9.822   9.544  0.1974  0.3407  0.2164
17684SOL    HW162020   7.656   9.797   9.457 -1.8682  0.4662 -0.5542
17684SOL    HW262021   7.654   9.914   9.553 -2.2306  1.3419 -1.5973
17685SOL     OW62022   9.458   0.277  10.337 -0.4442  0.2133  0.0160
17685SOL    HW162023   9.451   0.276  10.433 -0.9547 -0.7999 -0.0220
17685SOL    HW262024   9.537   0.329  10.320 -0.9204  1.2901  0.9356
17686SOL     OW62025  11.680  11.168   3.610  0.3697 -0.0258 -0.2872
17686SOL    HW162026  11.658  11.171   3.517  0.3806  0.6426 -0.2762
17686SOL    HW262027  11.602  11.130   3.652 -0.6665  1.9492 -0.2983
17687SOL     OW62028   8.354   8.972   8.390  0.2729  0.3165 -0.0281
17687SOL    HW162029   8.306   9.052   8.409 -0.5378 -0.0287 -0.5532
17687SOL    HW262030   8.390   8.945   8.475 -2.1750 -0.4991  0.8493
17688SOL     OW62031  12.481  11.523   1.016  0.1465  0.4690  0.0571
17688SOL    HW162032  12.434  11.442   0.997 -0.3255  0.5534  0.7962
17688SOL    HW262033  12.546  11.530   0.947 -0.0613 -0.3413 -0.2359
17689SOL     OW62034   0.915   0.990   3.457  0.1975 -0.2514 -0.0625
17689SOL    HW162035   0.934   1.038   3.376  1.7317  1.0771  1.0209
17689SOL    HW262036   0.865   0.914   3.428 -0.8790  1.1224 -2.0458
17690SOL     OW62037   6.576   9.794  11.547  0.6019 -0.5755 -0.0757
17690SOL    HW162038   6.499   9.846  11.525  1.4454  1.7229  2.0510
17690SOL    HW262039   6.650   9.846  11.516  1.4890 -0.3221  2.2744
17691SOL     OW62040   4.728   9.442  10.056 -0.0868  0.2656 -0.3690
17691SOL    HW162041   4.802   9.503  10.056  0.6968 -0.6447 -1.0781
17691SOL    HW262042   4.744   9.383  10.129  0.6940 -0.8313 -1.3859
17692SOL     OW62043   3.202   7.547   9.388 -0.3768 -0.5502 -0.1214
17692SOL    HW162044   3.167   7.506   9.309 -2.3941 -0.8055  0.8422
17692SOL    HW262045   3.127   7.590   9.428  0.5121 -0.6661  1.8066
17693SOL     OW62046   4.042   6.984  11.444  0.7258  0.0591  0.3273
17693SOL    HW162047   4.001   6.975  11.530 -0.9305 -0.9466 -0.5159
17693SOL    HW262048   3.971   7.015  11.387  1.7343  0.5142 -0.7255
17694SOL     OW62049   8.799   6.517   2.874 -0.4269  0.5074 -0.4524
17694SOL    HW162050   8.785   6.440   2.819 -1.7416  1.7685 -1.9989
17694SOL    HW262051   8.876   6.496   2.927  0.3102 -1.1684 -2.0942
17695SOL     OW62052   8.828   5.261   0.785 -0.7249  0.3708 -0.2454
17695SOL    HW162053   8.816   5.203   0.710  0.6714  0.8617 -0.8800
17695SOL    HW262054   8.848   5.202   0.858  1.8914  0.0299 -1.1331
17696SOL     OW62055   3.046   2.151   0.155  0.5904  0.0252 -1.3023
17696SOL    HW162056   3.116   2.093   0.183 -0.0662 -0.4151 -0.5129
17696SOL    HW262057   3.022   2.119   0.068  0.5805 -0.5723 -1.0890
17697SOL     OW62058   8.211   3.557   2.187  0.1798 -0.2506  0.2929
17697SOL    HW162059   8.207   3.465   2.215 -0.4738  0.3571  2.3543
17697SOL    HW262060   8.270   3.556   2.111  2.0036 -2.0708  1.6175
17698SOL     OW62061   6.649  12.535   8.710 -0.1809 -0.8238 -0.0090
17698SOL    HW162062   6.634  12.476   8.783 -2.5311  0.8233  0.9840
17698SOL    HW262063   6.684  12.615   8.751 -1.5076  0.1124 -0.6263
17699SOL     OW62064   8.488   1.273  12.138 -0.0426  0.2697  0.1568
17699SOL    HW162065   8.422   1.340  12.156 -1.0841 -0.1507 -1.8346
17699SOL    HW262066   8.515   1.288  12.048  0.2435 -1.5220 -0.1089
17700SOL     OW62067   5.702   2.117  12.366 -0.5071 -0.1030 -0.4345
17700SOL    HW162068   5.654   2.135  12.286  1.6281 -1.0503 -2.0307
17700SOL    HW262069   5.712   2.021  12.366  0.3440 -0.0276  0.4577
17701SOL     OW62070   0.339   6.162   5.298  0.2228 -0.5210  0.1639
17701SOL    HW162071   0.418   6.159   5.244  0.0188 -0.2419 -0.1548
17701SOL    HW262072   0.370   6.190   5.384  0.3660  0.3620 -0.1649
17702SOL     OW62073   9.201  11.674   9.538  0.4990 -0.0381  0.0779
17702SOL    HW162074   9.200  11.743   9.604  1.5649  0.2551 -0.1853
17702SOL    HW262075   9.233  11.717   9.459  1.8082 -0.9513  0.0718
17703SOL     OW62076   4.685   9.097  10.198  0.2013  0.7067 -0.6297
17703SOL    HW162077   4.676   9.001  10.203  1.8487  0.5923  1.5858
17703SOL    HW262078   4.607   9.131  10.241  0.5181  0.2983  0.2835
17704SOL     OW62079   4.618  11.834   0.521 -0.5701  1.1449  0.3013
17704SOL    HW162080   4.678  11.791   0.460 -1.0860 -0.7190  1.0403
17704SOL    HW262081   4.578  11.762   0.570 -1.4247  2.4939  1.6709
17705SOL     OW62082   8.409   6.407  11.835 -0.1141  0.1565 -0.6024
17705SOL    HW162083   8.370   6.390  11.921  1.2487 -0.6341 -0.0915
17705SOL    HW262084   8.335   6.412  11.775 -1.0839  0.5089  0.5872
17706SOL     OW62085   7.932   4.845   7.895  0.4211 -0.1592  0.6935
17706SOL    HW162086   7.932   4.842   7.991 -0.8617 -0.5567  0.7044
17706SOL    HW262087   7.901   4.759   7.869 -1.8189  0.7756  0.0154
17707SOL     OW62088   5.324   0.814  11.008  0.4191 -0.0077  0.5524
17707SOL    HW162089   5.270   0.735  11.012  0.6723 -0.2505 -0.4329
17707SOL    HW262090   5.413   0.781  10.992  0.2580  0.4987 -1.7981
17708SOL     OW62091   1.377  10.535  10.849  0.5088 -0.7606 -0.1865
17708SOL    HW162092   1.425  10.588  10.913 -0.3755 -1.1880  0.8678
17708SOL    HW262093   1.432  10.457  10.839  0.7374 -0.6177 -0.0689
17709SOL     OW62094   3.735   8.958   8.301  0.7590  0.3639  0.1914
17709SOL    HW162095   3.753   9.028   8.238  0.8295  0.3807  0.2304
17709SOL    HW262096   3.811   8.899   8.293  0.6099  0.1928  0.0228
17710SOL     OW62097   7.668   4.696   2.799 -0.1857  0.3224 -0.0396
17710SOL    HW162098   7.739   4.639   2.830 -0.8733 -0.5314  0.0011
17710SOL    HW262099   7.595   4.636   2.783 -1.0207  1.2415  0.2748
17711SOL     OW62100   2.614   5.401  11.377 -0.0688 -0.2481 -0.3220
17711SOL    HW162101   2.560   5.426  11.301 -0.9212  0.2068  0.4172
17711SOL    HW262102   2.618   5.481  11.430  0.5246 -0.5687  0.1150
17712SOL     OW62103  10.370   7.652   9.713  0.3303  0.4374  0.0777
17712SOL    HW162104  10.323   7.612   9.787 -0.1400  0.1298 -0.3783
17712SOL    HW262105  10.462   7.630   9.728 -0.0873 -2.9721 -1.3951
17713SOL     OW62106   2.113   3.248   6.719  0.2495 -0.1756 -0.3577
17713SOL    HW162107   2.069   3.251   6.634  1.9072  0.4844 -1.2304
17713SOL    HW262108   2.041   3.247   6.783 -1.0318 -0.8795 -1.7464
17714SOL     OW62109  11.226  10.504   3.609 -0.0313 -0.5252 -0.1514
17714SOL    HW162110  11.137  10.502   3.644 -0.1655 -0.0777 -0.4560
17714SOL    HW262111  11.235  10.422   3.561  0.0736 -1.0403  0.7177
17715SOL     OW62112   8.289   3.881   1.992  0.9842 -0.1310  0.1860
17715SOL    HW162113   8.254   3.878   2.081  2.5342 -1.1904  0.8105
17715SOL    HW262114   8.294   3.974   1.970 -2.8532  0.0995 -0.2800
17716SOL     OW62115   1.529  12.248   4.211 -0.8726  0.6017  0.4903
17716SOL    HW162116   1.527  12.165   4.162 -0.5605  1.2483 -0.6722
17716SOL    HW262117   1.586  12.304   4.158 -0.1274  1.1812  1.8776
17717SOL     OW62118   8.393   3.436   8.889  0.4806  0.1001  0.4465
17717SOL    HW162119   8.394   3.362   8.829  0.0871  0.4158  0.0422
17717SOL    HW262120   8.466   3.420   8.949  1.6020  0.3313 -0.8119
17718SOL     OW62121   8.968   4.477   6.184  0.4639  0.1609 -0.0033
17718SOL    HW162122   9.016   4.395   6.173  2.4492  1.2517  0.0669
17718SOL    HW262123   8.875   4.452   6.180  0.9953 -2.1967  0.9235
17719SOL     OW62124   8.493   5.311  11.485 -0.5978 -0.1196 -0.9670
17719SOL    HW162125   8.451   5.289  11.402 -0.4770  2.4083 -1.7993
17719SOL    HW262126   8.425   5.358  11.534 -1.0847 -2.6800  0.9803
17720SOL     OW62127   9.386  11.117   0.165 -0.0176  0.2109 -0.0213
17720SOL    HW162128   9.437  11.100   0.244  0.3249  1.4264  0.0342
17720SOL    HW262129   9.365  11.030   0.131  3.3129 -0.4394 -0.8214
17721SOL     OW62130  11.893   3.745   8.750  0.1811  0.1753 -0.1922
17721SOL    HW162131  11.830   3.818   8.749 -2.1446 -1.7021 -0.2697
17721SOL    HW262132  11.975   3.785   8.779 -1.7878  2.2246  3.2902
17722SOL     OW62133  12.520   1.608   4.988 -0.1351 -0.2393  0.0457
17722SOL    HW162134  12.481   1.663   4.921 -1.5598 -0.1147  0.9284
17722SOL    HW262135  12.547   1.669   5.057 -2.1171 -0.5950  1.2253
17723SOL     OW62136   8.993  11.255   6.579  0.0263  0.3353  0.1767
17723SOL    HW162137   8.987  11.222   6.668  0.7021  1.8321  0.8122
17723SOL    HW262138   8.902  11.276   6.555 -0.2663 -0.8665  0.1616
17724SOL     OW62139  11.768  10.364   4.642 -0.2282  0.2059  0.1779
17724SOL    HW162140  11.834  10.404   4.585 -0.5272 -2.2579 -2.1204
17724SOL    HW262141  11.700  10.431   4.651  1.0874  1.6390 -0.0513
17725SOL     OW62142   0.311   4.709   8.847 -0.0887 -0.4563 -0.5955
17725SOL    HW162143   0.303   4.698   8.942  1.4627 -0.6774 -0.4569
17725SOL    HW262144   0.382   4.650   8.822  1.0311  1.1994 -1.5249
17726SOL     OW62145   5.859  11.872   1.526 -0.0590  0.0129  0.6747
17726SOL    HW162146   5.890  11.902   1.440 -1.4304 -1.1901 -0.2846
17726SOL    HW262147   5.869  11.776   1.522 -1.8652 -0.2117  1.1301
17727SOL     OW62148   1.795   1.793   9.888  0.2731  0.5222 -0.4672
17727SOL    HW162149   1.882   1.797   9.849  0.4116  1.2920 -0.0790
17727SOL    HW262150   1.735   1.803   9.814  0.5136  0.3848 -0.6810
17728SOL     OW62151  12.214  11.270   9.335  0.2490  0.4387 -0.3224
17728SOL    HW162152  12.137  11.326   9.349  0.6678  0.4532  2.4990
17728SOL    HW262153  12.276  11.298   9.403  0.5809 -3.2123  1.1212
17729SOL     OW62154   7.422   3.011   4.106 -0.0030  0.9386  0.2954
17729SOL    HW162155   7.481   3.078   4.141  0.3090 -0.5836  2.9108
17729SOL    HW262156   7.343   3.019   4.159 -0.7818  0.5960 -0.7913
17730SOL     OW62157   4.014   7.121   2.326 -0.3412 -0.4446  0.2538
17730SOL    HW162158   4.101   7.093   2.296 -2.1693 -4.0109 -2.5803
17730SOL    HW262159   3.974   7.040   2.358 -2.6203  1.1346  1.6130
17731SOL     OW62160   2.829   8.965   4.728  0.3810  0.5654 -0.0913
17731SOL    HW162161   2.841   8.881   4.774  1.8805  0.4248 -0.6929
17731SOL    HW262162   2.742   8.959   4.689  0.1130 -0.3440  0.6119
17732SOL     OW62163   5.257   5.106  11.601  0.0739  0.7763 -0.0095
17732SOL    HW162164   5.298   5.057  11.672  0.3858  3.6309  1.9603
17732SOL    HW262165   5.307   5.083  11.523 -0.1572 -2.3350  0.6064
17733SOL     OW62166  10.549  11.740   6.335 -0.3860 -0.2847  0.0335
17733SOL    HW162167  10.553  11.687   6.415 -0.1401 -1.0748 -0.4944
17733SOL    HW262168  10.573  11.680   6.265  1.0111  0.8037 -0.4598
17734SOL     OW62169   5.239   8.150   0.079  0.5320 -0.0562  0.0456
17734SOL    HW162170   5.207   8.061   0.090  0.8901 -0.4520 -1.6990
17734SOL    HW262171   5.185   8.186   0.009  0.2721  1.1789  0.8574
17735SOL     OW62172   1.960   8.822   2.516 -0.0810  0.5889  0.1606
17735SOL    HW162173   2.003   8.780   2.591  0.5172 -0.1406 -0.5842
17735SOL    HW262174   1.868   8.797   2.524  0.1544 -0.3377  0.0921
17736SOL     OW62175   6.813  11.146   3.925  0.2672 -0.0677 -0.2159
17736SOL    HW162176   6.813  11.075   3.861 -0.1325 -0.5156  0.2704
17736SOL    HW262177   6.736  11.198   3.903 -0.0682 -0.4220  0.1153
17737SOL     OW62178   2.336   2.228   5.158 -0.3186 -0.7577  0.0438
17737SOL    HW162179   2.360   2.218   5.250 -2.0044  0.2891  0.6495
17737SOL    HW262180   2.416   2.207   5.109  1.2130  0.6761  1.8084
17738SOL     OW62181  11.689   2.054   1.622  0.4035  0.0336 -0.3185
17738SOL    HW162182  11.625   2.088   1.685 -0.8506 -1.7556 -0.5432
17738SOL    HW262183  11.729   2.132   1.584 -2.2057  1.2970 -0.7089
17739SOL     OW62184   1.771   8.496   2.576  0.8792  0.4274  0.3540
17739SOL    HW162185   1.809   8.449   2.650 -0.9653 -1.4658  0.1971
17739SOL    HW262186   1.751   8.583   2.611  0.4556 -0.2839  1.9804
17740SOL     OW62187   9.750   1.612   9.126 -0.1592 -0.3785 -0.1141
17740SOL    HW162188   9.727   1.635   9.036  0.7921  1.0961 -0.0124
17740SOL    HW262189   9.845   1.596   9.122 -0.4598 -2.5457  0.2132
17741SOL     OW62190  10.093   4.199   3.459  0.1037 -0.1486 -0.0024
17741SOL    HW162191  10.145   4.270   3.498  1.9082 -1.6680  0.4951
17741SOL    HW262192  10.097   4.129   3.524  0.3126 -1.5273 -1.4482
17742SOL     OW62193   7.286   3.837  12.423  0.3541  0.2773  0.2368
17742SOL    HW162194   7.302   3.862  12.514 -1.5323 -0.7957  0.9208
17742SOL    HW262195   7.212   3.891  12.396  1.2314  0.9715 -0.8747
17743SOL     OW62196  10.189   4.460   4.236  0.5254  0.0016 -0.4061
17743SOL    HW162197  10.190   4.428   4.326 -1.0109  0.6806 -0.1316
17743SOL    HW262198  10.159   4.385   4.185 -0.6479  0.2160 -0.0686
17744SOL     OW62199   3.622  10.097   9.077  0.1737 -0.2189  0.4280
17744SOL    HW162200   3.681  10.162   9.116  0.0034 -0.5371  1.2138
17744SOL    HW262201   3.631  10.020   9.132 -1.4541 -0.0735  0.9350
17745SOL     OW62202   6.681   2.610  10.617 -0.3172 -0.1241  0.1228
17745SOL    HW162203   6.681   2.628  10.712 -0.8136  0.3101  0.0461
17745SOL    HW262204   6.769   2.577  10.599  0.9100  2.8021  0.1906
17746SOL     OW62205   8.853   2.920   2.999  0.5030  0.2348 -0.0333
17746SOL    HW162206   8.778   2.910   2.940  1.1614  0.0425 -0.8433
17746SOL    HW262207   8.870   2.832   3.032  0.7369  0.1855 -0.2910
17747SOL     OW62208   5.393   9.561   1.282 -0.0707  0.0076 -0.4567
17747SOL    HW162209   5.399   9.655   1.295 -2.1952  0.0592  0.6278
17747SOL    HW262210   5.317   9.550   1.224  0.3451 -1.0135 -0.8213
17748SOL     OW62211   0.928  10.910   9.901  0.3645  0.2121  0.6391
17748SOL    HW162212   0.970  10.825   9.889 -0.0642 -0.3100  2.4537
17748SOL    HW262213   0.924  10.921   9.996 -1.3897  1.3488  0.4802
17749SOL     OW62214  11.486   6.534   1.258 -0.0374 -0.1833  0.3547
17749SOL    HW162215  11.520   6.601   1.199 -2.0116  0.8264  0.3029
17749SOL    HW262216  11.552   6.529   1.328  1.8286 -0.6861 -1.3599
17750SOL     OW62217   8.756   5.579   6.721 -0.0066 -0.1182 -0.9645
17750SOL    HW162218   8.685   5.586   6.657  0.9588 -1.7045 -2.2801
17750SOL    HW262219   8.766   5.485   6.736  1.1081  0.1355  0.0234
17751SOL     OW62220   7.557   2.222   7.161  0.3573 -0.0157  0.8527
17751SOL    HW162221   7.527   2.183   7.079 -0.4887 -0.7555  1.4824
17751SOL    HW262222   7.613   2.155   7.200 -0.3109 -0.2271  1.4814
17752SOL     OW62223   3.622   7.570   7.031 -0.1630  0.0498 -0.2431
17752SOL    HW162224   3.642   7.657   7.066 -0.4093  1.0012 -2.2681
17752SOL    HW262225   3.695   7.550   6.973 -1.3262  0.1163 -1.8022
17753SOL     OW62226   0.103   4.278   3.043  0.4278  0.0559  0.9137
17753SOL    HW162227   0.087   4.370   3.064  0.6987  0.6181 -1.1069
17753SOL    HW262228   0.182   4.255   3.093  1.9629  1.7623 -0.5943
17754SOL     OW62229   4.885  10.008   5.916 -0.5841  0.4824  0.0414
17754SOL    HW162230   4.870   9.914   5.914  1.3759  0.0920  0.9170
17754SOL    HW262231   4.960  10.019   5.975  1.0264  2.3186 -2.1411
17755SOL     OW62232   9.357   6.784   6.520 -0.3390  0.1617  0.3990
17755SOL    HW162233   9.268   6.769   6.551  0.1601  1.1380  2.4248
17755SOL    HW262234   9.412   6.734   6.580  0.5063 -0.8301 -1.1175
17756SOL     OW62235  11.583   7.568  10.221  0.3999 -0.5702  0.8342
17756SOL    HW162236  11.653   7.532  10.167 -0.8096 -1.4119 -0.2388
17756SOL    HW262237  11.619   7.649  10.257  1.2799  0.0398 -1.2518
17757SOL     OW62238   5.301  10.546   1.669  0.1045 -0.6931  0.2472
17757SOL    HW162239   5.369  10.483   1.647  1.2070  0.3111  0.6757
17757SOL    HW262240   5.290  10.598   1.590  0.2183 -0.5148  0.3486
17758SOL     OW62241   6.080   3.871   3.000 -0.2387  0.6269 -0.0758
17758SOL    HW162242   6.008   3.823   3.041 -0.5825  0.2667 -1.0739
17758SOL    HW262243   6.115   3.810   2.935  2.0689  0.1308  1.4948
17759SOL     OW62244  10.670   2.853   4.042  0.5031  0.5037 -0.3841
17759SOL    HW162245  10.662   2.818   3.953  1.0294  1.8163 -0.9762
17759SOL    HW262246  10.614   2.930   4.043  0.8822  0.7815  0.2641
17760SOL     OW62247   2.153   2.605   3.907 -0.0805  0.4514  0.1323
17760SOL    HW162248   2.225   2.565   3.858 -0.8731 -1.1133  0.1957
17760SOL    HW262249   2.193   2.680   3.951  1.0392  0.8638 -1.4908
17761SOL     OW62250   3.469  10.368   2.870  0.4943 -0.2168 -0.3107
17761SOL    HW162251   3.448  10.401   2.783 -1.5075  0.4732  0.3747
17761SOL    HW262252   3.409  10.294   2.883  1.3638 -0.8557  0.1711
17762SOL     OW62253   9.049  11.853  11.995  0.2179  0.0783 -0.7396
17762SOL    HW162254   8.984  11.845  11.926  0.9318  0.2094 -1.4377
17762SOL    HW262255   9.100  11.772  11.989  0.2071  0.0350 -0.2881
17763SOL     OW62256   7.274   7.646   2.736  0.3785  0.1238 -0.3680
17763SOL    HW162257   7.265   7.721   2.677  0.8054  0.6471  0.2122
17763SOL    HW262258   7.361   7.611   2.718  1.3500  1.5301  1.3298
17764SOL     OW62259   0.968   3.580   4.751  0.6088  0.3640  0.3853
17764SOL    HW162260   0.971   3.663   4.800  0.2025  1.5541 -1.4923
17764SOL    HW262261   1.060   3.555   4.741  0.8344  1.3149 -0.1290
17765SOL     OW62262   6.787  10.784   4.094  0.1125  0.5891  0.1962
17765SOL    HW162263   6.695  10.796   4.069  0.5847  0.9091 -1.4897
17765SOL    HW262264   6.807  10.695   4.065  0.9745  1.3437 -1.7003
17766SOL     OW62265   0.542   0.891  10.253  0.6127  0.4624  0.0495
17766SOL    HW162266   0.567   0.799  10.258  2.0008  0.8566  0.8606
17766SOL    HW262267   0.511   0.913  10.340 -1.5234  0.3268 -0.6109
17767SOL     OW62268  10.299   1.161   6.224  0.0941  0.0624  0.9198
17767SOL    HW162269  10.290   1.252   6.197  0.6748 -0.0396  0.3635
17767SOL    HW262270  10.388   1.136   6.197 -0.2070 -0.7940  0.6654
17768SOL     OW62271   3.557   1.229  12.554 -0.0865 -0.6538 -0.4139
17768SOL    HW162272   3.620   1.256  12.488  0.7293  1.7569  1.2427
17768SOL    HW262273   3.568   1.134  12.561  0.7323 -0.7748 -2.7386
17769SOL     OW62274   4.138   2.206   0.795  0.0560 -0.1437  0.1050
17769SOL    HW162275   4.191   2.165   0.727 -0.4511 -0.8254  0.1178
17769SOL    HW262276   4.050   2.208   0.758 -0.3037 -0.9171  0.9226
17770SOL     OW62277   9.631  11.335   8.766 -0.1068 -0.1718 -0.3162
17770SOL    HW162278   9.578  11.379   8.833 -0.8087  2.7232 -2.5172
17770SOL    HW262279   9.584  11.254   8.747 -2.3428  1.0445 -0.3172
17771SOL     OW62280   5.788   1.721   2.251  0.1855  0.3001 -0.0282
17771SOL    HW162281   5.824   1.755   2.333 -0.0441  3.1057 -0.9622
17771SOL    HW262282   5.818   1.783   2.184 -0.6238 -1.2053 -1.8964
17772SOL     OW62283  11.681  12.520  12.402  0.2891 -0.2079  0.0226
17772SOL    HW162284  11.720  12.607  12.399  0.2316 -0.1945 -1.3034
17772SOL    HW262285  11.742  12.465  12.353 -0.4967 -0.5437 -0.6003
17773SOL     OW62286   5.161   1.689   6.448  0.0419  0.5124  0.0335
17773SOL    HW162287   5.228   1.710   6.514 -0.0260 -0.5352  0.4644
17773SOL    HW262288   5.153   1.594   6.452 -1.7940  0.6433  0.3085
17774SOL     OW62289  10.737   7.726   8.051  0.6648 -0.2354  0.2329
17774SOL    HW162290  10.809   7.721   8.114  0.1244  0.5453  0.9209
17774SOL    HW262291  10.747   7.812   8.010  0.1681 -0.1618  0.2704
17775SOL     OW62292   3.747  10.620   8.401 -0.7758 -0.3804 -0.2382
17775SOL    HW162293   3.687  10.654   8.468 -0.2265  0.6734 -0.2633
17775SOL    HW262294   3.778  10.537   8.437 -0.9700 -0.1244  0.5418
17776SOL     OW62295   1.237   2.649   1.499 -0.4764 -0.0466  0.2855
17776SOL    HW162296   1.164   2.650   1.560 -0.2693  1.7473  0.5575
17776SOL    HW262297   1.212   2.710   1.430  0.0743 -0.6645 -0.4886
17777SOL     OW62298   9.520  11.559   8.080  0.2836  0.0299 -0.8507
17777SOL    HW162299   9.469  11.486   8.046 -1.3133  0.6388  0.1377
17777SOL    HW262300   9.503  11.559   8.174  1.1515  0.9894 -0.6740
17778SOL     OW62301   4.745  10.650   2.597 -0.0537  0.0435 -0.3212
17778SOL    HW162302   4.649  10.646   2.598 -0.1200  1.2259 -0.7355
17778SOL    HW262303   4.772  10.575   2.544 -0.5925 -2.1537  2.2796
17779SOL     OW62304   4.320   0.632   0.236  0.3287  0.4815 -0.4227
17779SOL    HW162305   4.295   0.567   0.301 -0.5650  1.4275  0.2066
17779SOL    HW262306   4.251   0.630   0.171 -0.3779  1.6400  0.2449
17780SOL     OW62307   0.272   4.727   7.389  0.5153 -0.0451  0.8537
17780SOL    HW162308   0.209   4.730   7.317 -0.2102  0.4077  1.4855
17780SOL    HW262309   0.244   4.654   7.443  2.4577 -1.9271 -0.5190
17781SOL     OW62310   8.110   3.843   4.454 -0.0645  0.2079 -0.5422
17781SOL    HW162311   8.103   3.864   4.361 -0.8837  3.3188  0.1156
17781SOL    HW262312   8.066   3.915   4.499  0.8206 -0.8757  2.3184
17782SOL     OW62313   1.601   6.233   2.267  0.0791  0.3099 -0.3470
17782SOL    HW162314   1.660   6.285   2.322  1.7074  2.2371 -3.5883
17782SOL    HW262315   1.521   6.226   2.318  1.3858  2.0178  2.1768
17783SOL     OW62316   5.505   4.152   4.429 -0.0336  0.3411 -0.5857
17783SOL    HW162317   5.411   4.134   4.417 -0.0487  1.2121 -1.9631
17783SOL    HW262318   5.549   4.090   4.371  0.2799 -0.2520  0.2644
17784SOL     OW62319  11.412  12.258   2.535 -0.4366 -0.1897  0.1045
17784SOL    HW162320  11.352  12.187   2.559  0.7715 -0.8621  1.3192
17784SOL    HW262321  11.443  12.234   2.448 -0.2286 -1.0397  0.3965
17785SOL     OW62322   4.587   3.948   0.435 -0.3017  0.0189  0.0015
17785SOL    HW162323   4.627   3.897   0.364 -0.6764  1.0685 -1.0136
17785SOL    HW262324   4.616   3.905   0.515  1.1403 -0.4963 -0.7481
17786SOL     OW62325  12.304   0.908   7.644  0.3738  0.2832 -0.2964
17786SOL    HW162326  12.319   0.880   7.734 -2.5424 -0.3953  0.1105
17786SOL    HW262327  12.385   0.886   7.597  2.2357  1.3304  2.2404
17787SOL     OW62328   3.491   0.374   7.234 -0.1196  0.2302 -0.6658
17787SOL    HW162329   3.552   0.313   7.276  0.7347  0.3047 -1.7495
17787SOL    HW262330   3.539   0.457   7.231 -0.5921  0.4998 -0.7936
17788SOL     OW62331   9.101  11.932   6.119  0.1623 -0.2151  0.1259
17788SOL    HW162332   9.091  11.996   6.190 -1.0458  0.4217 -0.5826
17788SOL    HW262333   9.187  11.894   6.134 -0.0944 -0.1863  1.9934
17789SOL     OW62334  10.568   8.131  10.966 -0.2777  0.2391  0.0075
17789SOL    HW162335  10.625   8.094  11.034  0.6562  0.8694 -0.3999
17789SOL    HW262336  10.491   8.075  10.966 -0.1900  0.0648  1.4109
17790SOL     OW62337   1.788   1.660  10.691 -0.4982  0.2188  0.1138
17790SOL    HW162338   1.778   1.698  10.604 -0.7675  0.1340  0.1053
17790SOL    HW262339   1.816   1.733  10.746  0.2389  0.1474 -0.1588
17791SOL     OW62340   5.423   6.637   3.898  0.1922 -0.0250 -0.0295
17791SOL    HW162341   5.451   6.664   3.985  0.9809  0.3155 -0.3698
17791SOL    HW262342   5.504   6.636   3.846 -0.2006 -0.6225 -0.6522
17792SOL     OW62343  10.446   9.896   5.205 -0.2472  0.6972  0.1378
17792SOL    HW162344  10.533   9.861   5.224  0.8046  2.6874 -0.6732
17792SOL    HW262345  10.386   9.833   5.245  1.5243 -1.0054  0.3036
17793SOL     OW62346   9.066   3.220   3.158 -0.1538 -0.5403  0.6202
17793SOL    HW162347   8.991   3.272   3.129  0.6569  0.6792  0.6210
17793SOL    HW262348   9.077   3.244   3.250 -0.1058 -1.1452  0.7755
17794SOL     OW62349   5.701   6.995  11.336 -0.3527 -0.2912 -0.0417
17794SOL    HW162350   5.606   6.989  11.347 -0.4273  1.2629  0.4187
17794SOL    HW262351   5.713   7.050  11.258  0.1478  0.1274  0.3177
17795SOL     OW62352   5.392   9.755   1.998 -0.3542 -0.4119  0.8669
17795SOL    HW162353   5.411   9.848   2.014 -0.0955 -0.3559  0.2728
17795SOL    HW262354   5.381   9.718   2.085  1.9732 -0.3322  1.2703
17796SOL     OW62355   3.953   8.577  12.595  0.1992  0.2772  0.1934
17796SOL    HW162356   3.861   8.601  12.596  0.3198  0.7885 -0.7269
17796SOL    HW262357   3.960   8.510  12.527  0.5613  0.4721  0.0362
17797SOL     OW62358   0.168   0.744   7.465 -0.1880 -0.2124 -0.2962
17797SOL    HW162359   0.078   0.774   7.477  0.1329  0.5627  0.3191
17797SOL    HW262360   0.167   0.697   7.382 -0.9415  0.6809 -0.8172
17798SOL     OW62361   5.473   8.952   0.597  0.1111  0.0291 -0.0872
17798SOL    HW162362   5.483   8.949   0.692 -0.8806 -1.9915  0.0253
17798SOL    HW262363   5.538   8.889   0.565 -0.7560 -0.6379 -0.5782
17799SOL     OW62364   4.146   1.512  10.108  0.1496  0.3339 -0.0971
17799SOL    HW162365   4.166   1.586  10.165 -0.0028  0.3542 -0.0686
17799SOL    HW262366   4.175   1.435  10.158  0.5949  0.3944 -0.2594
17800SOL     OW62367  11.755   7.478   8.021 -0.6539  0.4940 -0.4403
17800SOL    HW162368  11.735   7.389   8.049 -0.9977  0.7102  0.0173
17800SOL    HW262369  11.725   7.482   7.930 -1.3681  0.3840 -0.2105
17801SOL     OW62370   0.290   1.134   1.244 -0.2318  0.0325 -0.3307
17801SOL    HW162371   0.278   1.168   1.155 -1.3836  1.2656  0.2739
17801SOL    HW262372   0.379   1.097   1.243 -0.1416  0.2079 -1.9171
17802SOL     OW62373   7.107   7.096   1.865  1.0462 -0.2816  0.4543
17802SOL    HW162374   7.133   7.049   1.944 -1.2507 -0.1662  1.3450
17802SOL    HW262375   7.012   7.085   1.861  0.3121  4.1604  0.7226
17803SOL     OW62376   4.669   2.656   4.296 -0.2138  0.1566 -0.3438
17803SOL    HW162377   4.580   2.674   4.264 -0.6274 -0.4913  0.4053
17803SOL    HW262378   4.656   2.616   4.382  0.8670  1.5713  0.5147
17804SOL     OW62379   4.263  10.179  11.145  0.0754 -0.0910  0.2260
17804SOL    HW162380   4.188  10.208  11.092  0.6751 -1.3102 -1.3935
17804SOL    HW262381   4.285  10.255  11.199 -2.2362  0.3349  0.6652
17805SOL     OW62382   7.913   9.183   8.587 -0.3358  0.4758 -0.2894
17805SOL    HW162383   7.852   9.171   8.660  0.7313  0.3126  0.6177
17805SOL    HW262384   7.998   9.156   8.623 -0.0485 -1.2656 -2.1158
17806SOL     OW62385   3.234   5.327   5.526  0.3024  0.2658 -0.0020
17806SOL    HW162386   3.241   5.388   5.452  0.4497  0.9907  0.5991
17806SOL    HW262387   3.140   5.310   5.533  0.1876  0.9306  0.2139
17807SOL     OW62388   6.784   8.900   4.196  0.1532  0.4394  0.4633
17807SOL    HW162389   6.811   8.899   4.104  0.3976 -2.1449  0.4821
17807SOL    HW262390   6.859   8.938   4.242 -0.2011  2.3233 -0.4108
17808SOL     OW62391   4.482   2.109   7.417 -0.3653 -0.3534  0.1352
17808SOL    HW162392   4.459   2.193   7.378  0.9355  0.1825  0.4726
17808SOL    HW262393   4.528   2.062   7.348 -0.7428 -0.6278  0.0706
17809SOL     OW62394   4.591  11.308   3.285 -0.0674 -0.5330 -0.0178
17809SOL    HW162395   4.637  11.292   3.203 -1.3086  0.6827 -1.0034
17809SOL    HW262396   4.619  11.396   3.311  0.1506 -0.8250  0.7633
17810SOL     OW62397   5.829   8.309   6.303 -0.2539 -0.3969  0.3156
17810SOL    HW162398   5.891   8.245   6.266 -1.1377 -2.1142  1.6773
17810SOL    HW262399   5.883   8.362   6.361  0.2134 -0.9514  0.4063
17811SOL     OW62400   6.874  11.043   7.422 -0.8056  0.5158  0.1172
17811SOL    HW162401   6.878  11.003   7.335  1.3141 -0.0421  0.4130
17811SOL    HW262402   6.887  11.137   7.405  0.8956  0.2619 -0.1084
17812SOL     OW62403   0.130   7.756   8.580 -0.0129 -0.5504  0.1031
17812SOL    HW162404   0.220   7.734   8.559  0.0643  1.0616 -1.4709
17812SOL    HW262405   0.086   7.764   8.496 -2.2780 -3.5275  0.8382
17813SOL     OW62406   9.928   0.199  12.241  0.1018 -0.3198  0.6096
17813SOL    HW162407   9.920   0.177  12.149 -1.9259 -3.0533  1.3340
17813SOL    HW262408   9.868   0.273  12.253 -2.9403 -2.5632  0.4013
17814SOL     OW62409   5.662   9.276   0.525  0.2283  0.1028  0.5271
17814SOL    HW162410   5.614   9.291   0.606 -0.5147  2.4234 -0.2800
17814SOL    HW262411   5.741   9.329   0.534  0.7042 -0.5445  0.1990
17815SOL     OW62412  11.514   6.834   2.430  0.3133  0.1513 -0.3300
17815SOL    HW162413  11.491   6.824   2.337 -0.3942 -0.8030 -0.0609
17815SOL    HW262414  11.557   6.752   2.453 -0.0918  0.1286  0.3538
17816SOL     OW62415   3.805   4.806   0.587 -0.6218 -0.5108 -0.1893
17816SOL    HW162416   3.786   4.799   0.493 -0.5087 -1.9068 -0.1244
17816SOL    HW262417   3.888   4.759   0.598  0.6640  1.7420  0.2413
17817SOL     OW62418   4.781  10.232   3.896 -0.1718  0.3852  0.4354
17817SOL    HW162419   4.696  10.223   3.852  0.1942 -0.5608 -0.1176
17817SOL    HW262420   4.808  10.322   3.878  0.2209 -0.1227 -1.7953
17818SOL     OW62421   6.176   4.029   2.092  0.7221 -0.2809  0.0365
17818SOL    HW162422   6.246   4.089   2.068  1.6801 -1.7157 -0.9158
17818SOL    HW262423   6.112   4.084   2.138  1.1438  1.6103 -1.5146
17819SOL     OW62424   9.128   4.567  12.180  0.1621 -0.0673 -0.1739
17819SOL    HW162425   9.043   4.610  12.175 -0.1258 -0.5200  0.6345
17819SOL    HW262426   9.112   4.478  12.147 -0.1120 -0.7369  1.6592
17820SOL     OW62427   9.854   6.692   6.569  0.1020 -0.3940 -0.4523
17820SOL    HW162428   9.820   6.756   6.632  0.6696 -0.5762  0.0594
17820SOL    HW262429   9.940   6.668   6.604  0.1666 -0.9639 -0.9768
17821SOL     OW62430   6.535  11.869   1.477  0.4308 -0.7561  0.0283
17821SOL    HW162431   6.580  11.785   1.482  2.4387  0.2860  0.2258
17821SOL    HW262432   6.575  11.922   1.545  0.2397  0.8415 -1.0543
17822SOL     OW62433  10.069   0.789   5.507 -0.4301 -0.5042  0.4319
17822SOL    HW162434  10.083   0.797   5.413  2.4754 -1.2099  0.7141
17822SOL    HW262435  10.047   0.696   5.520  1.2271 -0.8970  0.6070
17823SOL     OW62436  12.364   7.066   8.303  0.1276 -0.2517  0.1647
17823SOL    HW162437  12.378   7.056   8.209 -0.0520  1.8130 -0.1350
17823SOL    HW262438  12.407   6.990   8.342 -1.0168 -1.9258 -1.6427
17824SOL     OW62439  10.531  11.549   6.519 -0.1434  0.1080  0.0038
17824SOL    HW162440  10.459  11.507   6.564  1.0558  0.6283  2.5586
17824SOL    HW262441  10.593  11.477   6.502 -0.2238  0.0519 -0.0538
17825SOL     OW62442   0.976   0.599   7.862  0.4077 -0.2512  0.6805
17825SOL    HW162443   0.973   0.503   7.865 -2.2210 -0.2342  1.8010
17825SOL    HW262444   1.045   0.623   7.923 -0.5014 -1.4322  2.2399
17826SOL     OW62445   6.412   7.835  11.164 -0.2151 -0.5030  1.0642
17826SOL    HW162446   6.359   7.758  11.142 -1.3574  0.5182  0.1561
17826SOL    HW262447   6.483   7.834  11.100 -0.3423 -0.6796  0.9252
17827SOL     OW62448   2.375  10.822   3.663  0.2054  0.2940  0.3148
17827SOL    HW162449   2.303  10.771   3.700  0.6891  0.8652  2.1626
17827SOL    HW262450   2.416  10.763   3.599 -0.1065 -1.1134  1.3653
17828SOL     OW62451   6.328   5.925  12.240  0.3551  0.1459 -0.8138
17828SOL    HW162452   6.349   5.888  12.155 -3.4098  1.6777 -2.6286
17828SOL    HW262453   6.297   6.013  12.222 -0.7380  0.4967  2.1039
17829SOL     OW62454   0.779   6.618  10.898 -0.1020  0.2792  0.1080
17829SOL    HW162455   0.779   6.684  10.829  0.2593 -0.0179 -0.1790
17829SOL    HW262456   0.859   6.634  10.947  0.1987 -0.2091 -0.2196
17830SOL     OW62457   2.252   2.502   5.146 -0.0653  0.2046 -0.1316
17830SOL    HW162458   2.254   2.409   5.165  0.8919 -0.0994 -1.5301
17830SOL    HW262459   2.193   2.510   5.071 -0.8244  0.8473  0.5199
17831SOL     OW62460   0.411   2.019   7.418  0.0516  0.4576  0.6041
17831SOL    HW162461   0.488   2.056   7.461  0.9322  0.8793 -1.2195
17831SOL    HW262462   0.434   1.927   7.404  0.4136  0.6702 -0.2774
17832SOL     OW62463   8.613   0.798   8.866  0.1121  0.4762  0.4209
17832SOL    HW162464   8.626   0.852   8.944  1.8013  1.6087 -0.5709
17832SOL    HW262465   8.689   0.739   8.866 -0.0826  0.2257 -0.1678
17833SOL     OW62466   8.801   1.498   4.065  0.2070  0.6187  0.5865
17833SOL    HW162467   8.811   1.583   4.024 -0.0007 -0.1855 -1.2255
17833SOL    HW262468   8.716   1.503   4.110 -0.2495  1.0563 -0.3044
17834SOL     OW62469   8.033   4.412   0.590 -0.2647 -0.1941  0.6015
17834SOL    HW162470   8.093   4.341   0.615 -0.2121 -0.4383 -0.2015
17834SOL    HW262471   7.947   4.370   0.588  0.0869 -1.0112 -2.6818
17835SOL     OW62472   6.379  12.563   3.175  0.0734  0.2490 -0.4378
17835SOL    HW162473   6.426  12.488   3.210 -0.2708 -2.1218 -4.4427
17835SOL    HW262474   6.447  12.627   3.155  0.4710  0.7335  2.0758
17836SOL     OW62475   4.403   3.890   7.532 -0.1499  0.6996  0.5593
17836SOL    HW162476   4.362   3.940   7.603 -0.7384 -1.1512  1.5647
17836SOL    HW262477   4.476   3.844   7.573 -0.0870  0.1250 -0.1716
17837SOL     OW62478  10.635   2.831   5.360 -0.1233 -0.3684  0.1043
17837SOL    HW162479  10.682   2.876   5.291 -0.2471  0.7863  0.7466
17837SOL    HW262480  10.634   2.893   5.433  0.8769 -1.9201  1.5042
17838SOL     OW62481   6.627   2.512   9.891  0.7448 -0.0484  0.3832
17838SOL    HW162482   6.683   2.449   9.936  0.7562 -0.2914  0.0366
17838SOL    HW262483   6.657   2.511   9.801  1.6244  1.4499  0.6264
17839SOL     OW62484   3.440   0.003   5.773 -0.0098  0.2999 -0.0206
17839SOL    HW162485   3.375  -0.052   5.819  0.4243  0.4904  0.8480
17839SOL    HW262486   3.506  -0.059   5.743  0.4480  0.3150  0.9039
17840SOL     OW62487   5.267   7.352   1.730  0.5926  0.3037  0.2139
17840SOL    HW162488   5.351   7.329   1.690  0.2754 -0.9213  0.2232
17840SOL    HW262489   5.216   7.390   1.659  1.7275  2.7274  0.5796
17841SOL     OW62490   4.995   9.140   6.776 -0.1171  0.2290  0.3713
17841SOL    HW162491   4.901   9.148   6.758 -0.2530  3.0601  1.7065
17841SOL    HW262492   5.006   9.183   6.861  2.4215  0.1372  0.1541
17842SOL     OW62493   3.797  10.262   9.215  0.6620  0.2050 -0.0541
17842SOL    HW162494   3.770  10.352   9.231  0.0342  0.1885 -0.9181
17842SOL    HW262495   3.882  10.270   9.172 -0.1432  0.4847 -1.6710
17843SOL     OW62496   9.397  12.235   2.939  0.0291  0.5331 -0.0268
17843SOL    HW162497   9.310  12.246   2.901  0.0570  0.7498 -0.0265
17843SOL    HW262498   9.412  12.314   2.990 -0.2918 -0.0557  1.0102
17844SOL     OW62499   9.281  10.549  12.384 -0.0006 -0.0713  0.0226
17844SOL    HW162500   9.305  10.456  12.389  0.8454  0.1753  0.6546
17844SOL    HW262501   9.309  10.576  12.297 -1.0879 -0.6247 -0.5242
17845SOL     OW62502  11.592   2.866   4.904  0.2239  0.0311 -0.1746
17845SOL    HW162503  11.634   2.902   4.982 -0.4333  0.0974  0.1573
17845SOL    HW262504  11.543   2.791   4.936 -0.8393  0.6319 -0.3478
17846SOL     OW62505   2.119   0.994  10.944  0.6659 -0.3829 -0.4388
17846SOL    HW162506   2.188   1.005  10.879  0.4966 -0.8287 -0.6922
17846SOL    HW262507   2.156   0.936  11.010  0.0998 -1.6785 -1.2231
17847SOL     OW62508   2.651  11.468   3.943  0.5422 -0.4475 -0.4290
17847SOL    HW162509   2.682  11.380   3.923  0.7633 -0.4737  0.0015
17847SOL    HW262510   2.569  11.454   3.991  0.2072 -0.3962 -0.9776
17848SOL     OW62511   7.161  10.741  10.922 -0.5230  0.1311  0.0015
17848SOL    HW162512   7.238  10.686  10.930 -1.2796 -0.7216  2.1682
17848SOL    HW262513   7.155  10.787  11.005 -2.2366  0.3044 -0.1726
17849SOL     OW62514   8.786   4.293   6.873  0.1845  0.6336 -0.1141
17849SOL    HW162515   8.845   4.218   6.865  0.1184  0.5437  0.2218
17849SOL    HW262516   8.788   4.334   6.787  0.4406  0.4094 -0.2176
17850SOL     OW62517  10.769   3.478  10.345  0.5399 -0.2640  0.3521
17850SOL    HW162518  10.755   3.539  10.417  1.6052 -0.3180  0.6294
17850SOL    HW262519  10.816   3.531  10.279 -0.1971 -0.2825 -0.1958
17851SOL     OW62520   3.075   5.625   3.069 -0.1273 -0.0363  0.1511
17851SOL    HW162521   3.054   5.719   3.065  0.5262  0.0935 -0.3801
17851SOL    HW262522   3.163   5.619   3.033 -0.0716 -0.8317  0.4134
17852SOL     OW62523   3.941   6.863   2.445  0.0401 -0.0769  0.3267
17852SOL    HW162524   3.865   6.891   2.496  0.5297  1.9177  0.0487
17852SOL    HW262525   4.007   6.839   2.510  0.8121  2.8383  0.7748
17853SOL     OW62526   8.177   8.940   7.035  0.3286 -0.3437  0.1216
17853SOL    HW162527   8.265   8.904   7.047  0.4737 -0.5583 -1.3425
17853SOL    HW262528   8.173   8.960   6.941 -1.0821 -0.0718  0.2274
17854SOL     OW62529  11.905   0.273   8.985 -0.5791 -0.2473 -0.6296
17854SOL    HW162530  11.857   0.193   9.008  1.1637 -1.1971 -0.1062
17854SOL    HW262531  11.997   0.251   9.002 -0.1895  2.6186  1.7705
17855SOL     OW62532   5.503   9.702   9.133  0.7599  0.1696  0.5453
17855SOL    HW162533   5.540   9.751   9.206  1.4910  0.7266 -0.1769
17855SOL    HW262534   5.449   9.766   9.086 -0.5819 -0.4526  1.1824
17856SOL     OW62535   5.287  11.741   6.852 -0.2286  0.3064  1.3923
17856SOL    HW162536   5.235  11.798   6.796  0.1343  0.7008  1.4491
17856SOL    HW262537   5.298  11.661   6.801  0.6072  0.8880  0.6343
17857SOL     OW62538   7.168   2.217   6.787  0.0472  0.1863 -0.3374
17857SOL    HW162539   7.237   2.282   6.776 -0.0928  0.1821 -1.3744
17857SOL    HW262540   7.099   2.245   6.727 -1.3756  0.8422  1.5078
17858SOL     OW62541   9.585   2.381   8.574 -0.3813 -0.1692  0.0825
17858SOL    HW162542   9.520   2.379   8.503  0.8813 -0.8318 -1.1024
17858SOL    HW262543   9.606   2.290   8.590  1.4098  0.0626 -0.6926
17859SOL     OW62544   2.215   8.789   3.619 -0.4200 -0.9862 -0.7373
17859SOL    HW162545   2.218   8.860   3.555  1.3290 -0.3719 -0.0447
17859SOL    HW262546   2.220   8.709   3.566  1.2437 -0.4838 -1.4083
17860SOL     OW62547  10.709   9.780   0.438  0.1259 -0.7410  0.3157
17860SOL    HW162548  10.787   9.835   0.435  0.5502 -1.2227  1.6809
17860SOL    HW262549  10.672   9.797   0.525 -1.2818 -0.5405 -0.3027
17861SOL     OW62550   5.478   7.888   4.603 -0.0424  0.9181 -0.3285
17861SOL    HW162551   5.410   7.831   4.567  2.8857 -2.1408 -1.5334
17861SOL    HW262552   5.444   7.915   4.689 -1.9442 -2.1085  0.0082
17862SOL     OW62553  10.365   2.795   4.405 -0.0627  0.1431 -0.4378
17862SOL    HW162554  10.425   2.868   4.386 -1.4046  0.5187 -3.8404
17862SOL    HW262555  10.376   2.780   4.499  3.0288  2.2170 -0.3025
17863SOL     OW62556  10.448   5.668   6.314 -0.1266 -0.0209 -0.5838
17863SOL    HW162557  10.448   5.590   6.370 -0.5105 -0.3723 -1.0651
17863SOL    HW262558  10.364   5.666   6.270 -1.1476  1.9262  1.1006
17864SOL     OW62559   3.191   9.880   6.031 -0.4837 -0.3469 -0.6948
17864SOL    HW162560   3.189   9.822   5.955 -0.7585  0.4702 -1.3238
17864SOL    HW262561   3.132   9.952   6.009  1.8940  1.6384 -1.1571
17865SOL     OW62562   4.102   3.251   6.525 -0.2779 -0.2446  0.0117
17865SOL    HW162563   4.129   3.235   6.434 -0.1767 -0.1969  0.0339
17865SOL    HW262564   4.177   3.294   6.565 -0.9214  1.2717 -0.3284
17866SOL     OW62565   7.259  10.931  12.188 -0.5058  0.1927  0.8236
17866SOL    HW162566   7.168  10.903  12.180 -0.5676  0.3950  0.7957
17866SOL    HW262567   7.259  11.020  12.152  0.2911 -0.8814 -2.1182
17867SOL     OW62568   5.765   0.816   2.998  0.0076 -0.1712 -0.4693
17867SOL    HW162569   5.767   0.841   3.091  2.1609 -5.0375  1.1735
17867SOL    HW262570   5.676   0.784   2.984 -0.5116  1.1476 -0.3363
17868SOL     OW62571  11.336   0.375   7.581 -0.0700 -0.3365 -0.6591
17868SOL    HW162572  11.250   0.369   7.540 -0.2747  1.0201 -0.4993
17868SOL    HW262573  11.397   0.386   7.509 -0.2747  0.6786 -0.6957
17869SOL     OW62574  12.042   3.807   3.922 -0.2065  0.7823 -0.3798
17869SOL    HW162575  11.973   3.871   3.940 -0.3864  0.2555  0.8322
17869SOL    HW262576  12.124   3.855   3.936 -0.3344  0.9359 -0.1640
17870SOL     OW62577  12.307   2.834   1.803  0.0368  1.0129  0.3024
17870SOL    HW162578  12.341   2.749   1.775 -0.2941 -0.3663  3.7127
17870SOL    HW262579  12.216   2.834   1.773 -0.0909 -0.0624  0.6375
17871SOL     OW62580   8.739   4.482   2.332 -0.7640 -0.2647 -0.1038
17871SOL    HW162581   8.644   4.493   2.325 -0.5859  0.2630 -2.5364
17871SOL    HW262582   8.776   4.560   2.291  0.7427 -0.4387  0.8271
17872SOL     OW62583   6.344   8.369   9.052  0.3989 -0.2660 -0.1178
17872SOL    HW162584   6.252   8.386   9.071  0.6246  0.7917  0.0704
17872SOL    HW262585   6.382   8.344   9.136 -0.0799 -2.5712 -0.5130
17873SOL     OW62586   8.677   4.664   6.479 -0.1811  0.2026  0.1244
17873SOL    HW162587   8.613   4.718   6.433 -0.5794 -1.1454 -0.9847
17873SOL    HW262588   8.760   4.686   6.438 -0.4658 -0.6309 -0.9541
17874SOL     OW62589   4.906  10.857   5.325  0.1176  0.9797  0.1742
17874SOL    HW162590   4.874  10.946   5.311 -0.4277  0.7742  0.1114
17874SOL    HW262591   4.903  10.845   5.420 -1.1585  0.5332  0.0862
17875SOL     OW62592   4.027  11.326  10.537  0.4460 -0.5695 -0.5145
17875SOL    HW162593   4.114  11.287  10.548  2.0465  2.8770  0.2539
17875SOL    HW262594   3.982  11.305  10.619  1.5494 -0.2183  0.2145
17876SOL     OW62595  11.119  11.059  10.293 -0.3211  0.6711 -0.2210
17876SOL    HW162596  11.089  11.003  10.222 -0.1678  0.9840 -0.5383
17876SOL    HW262597  11.124  11.147  10.254  1.3073  0.5787 -0.2707
17877SOL     OW62598   3.552  12.472   3.317 -0.3582 -0.5178  0.4545
17877SOL    HW162599   3.640  12.441   3.299 -1.0907 -2.0721 -0.6165
17877SOL    HW262600   3.554  12.565   3.293  1.2309 -0.2693  1.4249
17878SOL     OW62601   2.401   5.541   3.054  0.3704 -0.9643 -0.1073
17878SOL    HW162602   2.415   5.448   3.036  1.3359 -0.7158 -0.7607
17878SOL    HW262603   2.342   5.570   2.985 -2.6136 -1.7346  1.9163
17879SOL     OW62604   9.138   3.708   9.489 -0.2555  0.1708 -0.2490
17879SOL    HW162605   9.213   3.648   9.495  0.1724  0.5366 -1.6395
17879SOL    HW262606   9.171   3.782   9.438 -0.8302  1.5389  1.2743
17880SOL     OW62607   1.508  10.295   4.813  0.4684 -0.0152  0.5678
17880SOL    HW162608   1.445  10.341   4.868  0.2808  0.8008 -0.2978
17880SOL    HW262609   1.579  10.358   4.802  0.2728  0.0308 -0.5148
17881SOL     OW62610   1.980   2.442   5.012 -0.0180  0.1300  0.1351
17881SOL    HW162611   1.954   2.354   4.985  1.5612 -0.5767  0.8006
17881SOL    HW262612   1.997   2.488   4.930 -2.4825  0.4188 -0.3093
17882SOL     OW62613   5.447   5.867   9.637 -0.2515  0.3370  0.1086
17882SOL    HW162614   5.504   5.895   9.566 -2.2194 -0.0614 -1.7306
17882SOL    HW262615   5.386   5.940   9.650  0.2460  0.5218  1.6214
17883SOL     OW62616  10.601   9.059   8.770  0.5396  0.1558  0.0091
17883SOL    HW162617  10.597   9.060   8.675  0.1500 -1.6180 -0.0256
17883SOL    HW262618  10.614   8.966   8.793 -1.3820  0.2449  1.7422
17884SOL     OW62619  11.380   2.596   7.674  0.5948 -0.4021 -0.0656
17884SOL    HW162620  11.424   2.603   7.589 -0.5323 -0.3729 -0.6565
17884SOL    HW262621  11.441   2.636   7.735  0.6959  1.1088 -1.1079
17885SOL     OW62622   2.319   9.748   1.684  0.5362  0.2210  0.0057
17885SOL    HW162623   2.237   9.762   1.732  1.8847  2.1745  1.9388
17885SOL    HW262624   2.300   9.779   1.596 -0.2997  2.6559  0.9411
17886SOL     OW62625   0.581   5.845   8.173  0.1188 -0.1561 -1.0467
17886SOL    HW162626   0.572   5.755   8.142 -0.1281  0.3476 -2.4909
17886SOL    HW262627   0.540   5.898   8.105  0.3409  1.0616 -0.2560
17887SOL     OW62628  10.692   0.008   2.054 -0.2461  0.1306  0.2450
17887SOL    HW162629  10.667   0.097   2.028  1.1602  0.2040 -1.0287
17887SOL    HW262630  10.620  -0.023   2.108 -1.1988  1.7038 -0.0680
17888SOL     OW62631   5.724   1.513   4.581  0.3516 -0.1617  0.0208
17888SOL    HW162632   5.774   1.566   4.519 -0.7454 -0.1950 -0.9288
17888SOL    HW262633   5.679   1.448   4.526  1.2911 -1.7910  1.1093
17889SOL     OW62634   5.314   9.696   4.100 -0.6420 -0.4048  0.2221
17889SOL    HW162635   5.319   9.791   4.083  0.4929 -0.3177  0.9539
17889SOL    HW262636   5.324   9.688   4.194 -0.5898 -1.2675  0.1504
17890SOL     OW62637   5.667   6.550   1.720  0.0458  0.0290 -0.3330
17890SOL    HW162638   5.728   6.482   1.749  0.0705 -0.6931 -1.9708
17890SOL    HW262639   5.582   6.523   1.754  0.1801 -0.4331 -0.3603
17891SOL     OW62640   9.895   8.717   1.513 -0.4643 -0.3302 -0.2049
17891SOL    HW162641   9.834   8.789   1.496 -2.6851 -1.8730  0.7805
17891SOL    HW262642   9.907   8.718   1.608  2.7577  1.1640 -0.4934
17892SOL     OW62643   8.748   0.504  10.339 -0.0481  0.4340 -0.2753
17892SOL    HW162644   8.712   0.451  10.411  0.1705 -1.1404 -1.2741
17892SOL    HW262645   8.815   0.558  10.381 -0.1170 -0.2504  0.7676
17893SOL     OW62646   7.039  10.561  10.417 -0.0898 -0.3122 -0.1689
17893SOL    HW162647   6.995  10.572  10.501  0.0055  1.1516 -0.2860
17893SOL    HW262648   7.072  10.648  10.395  2.7223 -1.2870 -0.1946
17894SOL     OW62649   3.045  11.932   4.510 -0.6802  0.5282 -0.7959
17894SOL    HW162650   3.037  11.843   4.475 -1.2946 -0.8868  2.5835
17894SOL    HW262651   3.137  11.940   4.534 -1.0386 -0.1225  0.9419
17895SOL     OW62652  12.550   8.427  11.758 -0.1674  0.3814  0.4215
17895SOL    HW162653  12.470   8.390  11.794  0.1339 -2.4895 -1.5238
17895SOL    HW262654  12.620   8.376  11.798  0.3217 -0.6804 -1.6268
17896SOL     OW62655   3.175  11.326  11.728 -0.0916 -0.0440  0.0669
17896SOL    HW162656   3.242  11.258  11.719 -0.5066 -0.9833  2.9415
17896SOL    HW262657   3.225  11.407  11.741  0.4745 -0.4107  0.2077
17897SOL     OW62658   8.088  11.555   8.725 -0.1078 -0.1538 -0.9923
17897SOL    HW162659   8.011  11.607   8.749 -0.1728 -0.7578  0.1684
17897SOL    HW262660   8.052  11.476   8.684 -0.1957 -0.8709  0.3782
17898SOL     OW62661   2.638   0.382   2.509  0.0773 -0.4828  0.0232
17898SOL    HW162662   2.667   0.354   2.422 -1.0526  0.4309 -0.6685
17898SOL    HW262663   2.558   0.431   2.493  1.1219  1.7826  1.3376
17899SOL     OW62664   6.677  11.892   7.558 -0.4865 -0.1946  0.2328
17899SOL    HW162665   6.754  11.864   7.509 -0.9736  0.3077 -0.8440
17899SOL    HW262666   6.604  11.848   7.516 -0.8279 -0.4455  1.0687
17900SOL     OW62667   8.845   1.887   0.362  0.5562  0.2430 -0.2738
17900SOL    HW162668   8.869   1.843   0.444 -0.0369 -0.9000 -0.6955
17900SOL    HW262669   8.901   1.965   0.360  0.5195  0.3537  1.2595
17901SOL     OW62670  12.015   1.711   3.007 -1.0545 -0.3559  0.0027
17901SOL    HW162671  12.058   1.776   3.063 -1.3940 -0.6800  0.6533
17901SOL    HW262672  11.995   1.758   2.926 -1.6777  0.4803  0.6248
17902SOL     OW62673   1.498   4.093  10.138 -0.3901  0.5763  0.3016
17902SOL    HW162674   1.432   4.067  10.203 -0.6606 -1.9533 -0.8774
17902SOL    HW262675   1.451   4.091  10.054  0.2865  2.4999 -0.1678
17903SOL     OW62676  10.889   1.028   6.757 -0.2445  0.1265  0.9724
17903SOL    HW162677  10.981   1.015   6.781 -0.4494  0.3867  1.9497
17903SOL    HW262678  10.890   1.103   6.697  0.3944 -1.1608 -0.7064
17904SOL     OW62679   5.979   6.084   8.889  0.1310  0.8935 -0.1609
17904SOL    HW162680   6.058   6.134   8.908 -0.3782  1.2912  1.0081
17904SOL    HW262681   6.011   6.002   8.851  1.0599  1.3881 -0.4694
17905SOL     OW62682   0.416  11.080  10.326  0.7577 -0.2716  0.1094
17905SOL    HW162683   0.359  11.079  10.402  0.2596 -0.6581 -0.2678
17905SOL    HW262684   0.442  11.172  10.317 -1.1384  0.2264 -0.7021
17906SOL     OW62685   3.120   0.763   6.269  0.0369  0.2619 -0.9791
17906SOL    HW162686   3.194   0.779   6.327 -0.3416  0.3733 -0.5265
17906SOL    HW262687   3.150   0.693   6.211  0.2634 -0.1383 -0.3828
17907SOL     OW62688   2.641   3.532  11.549 -0.3734  0.9208 -0.0433
17907SOL    HW162689   2.682   3.484  11.621 -2.3832 -0.2867  0.3643
17907SOL    HW262690   2.600   3.464  11.495 -2.8354  2.0777  0.2486
17908SOL     OW62691   4.459   4.606  11.186 -0.2427 -0.1063  0.0573
17908SOL    HW162692   4.401   4.553  11.132 -0.9931  0.3780  0.3821
17908SOL    HW262693   4.431   4.589  11.276 -0.2833  0.5830  0.1844
17909SOL     OW62694   3.810   6.494   8.953 -0.0098  0.5285 -0.0033
17909SOL    HW162695   3.825   6.415   8.902 -0.7305  0.2410  0.2207
17909SOL    HW262696   3.896   6.516   8.990  0.5439  0.7848 -1.3758
17910SOL     OW62697   3.708  11.970   3.119  0.0590  0.8678 -0.1644
17910SOL    HW162698   3.795  11.930   3.131  0.1690  1.0502 -0.3541
17910SOL    HW262699   3.687  12.006   3.206  0.1624  0.8026 -0.1112
17911SOL     OW62700   6.995   0.906   3.441  0.7412  0.0544  0.4314
17911SOL    HW162701   7.076   0.863   3.413  0.3137 -0.7428  0.3912
17911SOL    HW262702   6.995   0.990   3.395  1.3697 -0.0880  0.1588
17912SOL     OW62703   9.119   3.463   2.179  0.3720 -0.3190  0.0393
17912SOL    HW162704   9.179   3.406   2.227  1.1832  0.7492  0.3507
17912SOL    HW262705   9.110   3.423   2.093  0.2168 -1.3797  0.5384
17913SOL     OW62706  11.112  11.481   1.597 -0.1153  0.7723  0.5542
17913SOL    HW162707  11.198  11.475   1.553 -0.2183 -0.9048  0.5020
17913SOL    HW262708  11.049  11.473   1.525 -0.3208  1.6150  0.6374
17914SOL     OW62709  11.495  12.042   7.123  0.4824  0.2808  0.3282
17914SOL    HW162710  11.445  12.069   7.200 -0.7084  0.7318 -0.5732
17914SOL    HW262711  11.501  12.122   7.070  0.0577 -0.3476 -0.6941
17915SOL     OW62712   6.288   5.897   6.096 -0.2716 -0.8039 -0.2487
17915SOL    HW162713   6.276   5.990   6.080  0.3480 -0.8666 -1.1622
17915SOL    HW262714   6.215   5.872   6.152 -1.4450 -0.1358 -1.4326
17916SOL     OW62715   0.801   1.435   6.252 -0.1731  0.2333 -0.0966
17916SOL    HW162716   0.719   1.415   6.207 -0.0262  1.5897 -1.0128
17916SOL    HW262717   0.773   1.472   6.336 -0.4776 -0.4229  0.0944
17917SOL     OW62718   1.316   2.231   3.826  0.3752 -0.1917  0.3963
17917SOL    HW162719   1.305   2.247   3.733 -1.1613  0.6843  0.6837
17917SOL    HW262720   1.287   2.140   3.839 -0.4056  0.0188  0.1610
17918SOL     OW62721   4.297  12.114   3.271  0.2646 -0.3227 -0.5193
17918SOL    HW162722   4.209  12.116   3.233 -0.4008  1.9496  0.8914
17918SOL    HW262723   4.352  12.158   3.205  0.3777 -1.7110 -1.3869
17919SOL     OW62724  11.832   1.413   9.050 -0.5859  1.0688 -0.2029
17919SOL    HW162725  11.832   1.391   9.143  1.8862  1.8864  0.0660
17919SOL    HW262726  11.742   1.395   9.021 -0.8021 -1.5511  1.7300
17920SOL     OW62727   6.441   7.470   3.908 -0.1820 -0.4498 -0.3826
17920SOL    HW162728   6.361   7.510   3.874  0.1740  1.3915  0.8154
17920SOL    HW262729   6.496   7.458   3.831 -0.8619  0.0280 -0.9621
17921SOL     OW62730   6.143   2.190   4.158 -0.3794  0.5916 -0.2283
17921SOL    HW162731   6.212   2.235   4.109  0.7595 -1.4365 -0.5878
17921SOL    HW262732   6.086   2.152   4.091 -1.1697  1.2161  0.0700
17922SOL     OW62733   2.727   1.610   1.412  0.6731  0.0997 -0.4380
17922SOL    HW162734   2.782   1.641   1.484  0.1832 -1.6387  0.7497
17922SOL    HW262735   2.686   1.689   1.377  2.5801  1.2335 -0.2604
17923SOL     OW62736  10.086  11.033   2.791  0.0837 -1.1042  0.1518
17923SOL    HW162737  10.128  10.990   2.716  0.2733  0.9678 -0.9976
17923SOL    HW262738  10.008  10.980   2.809 -0.3610 -1.2310 -1.9832
17924SOL     OW62739   7.988   2.223  11.909  0.6964 -0.1594 -0.4527
17924SOL    HW162740   8.040   2.180  11.841  0.6765 -0.4153 -0.3084
17924SOL    HW262741   7.910   2.254  11.863 -0.0233 -1.6366 -0.2753
17925SOL     OW62742  11.561  11.471   6.834  0.5972 -0.3079  0.2077
17925SOL    HW162743  11.583  11.556   6.795 -0.3473  0.6969  1.7493
17925SOL    HW262744  11.490  11.491   6.895  1.7640 -1.8362  2.1504
17926SOL     OW62745   5.151   1.225   4.821  0.5590 -0.1900  0.4050
17926SOL    HW162746   5.197   1.270   4.891  0.2667  1.4564 -0.4045
17926SOL    HW262747   5.121   1.143   4.860  1.7610 -0.0319  1.7237
17927SOL     OW62748   7.801   5.188   0.265  0.1956 -0.8285  0.3530
17927SOL    HW162749   7.895   5.186   0.281  0.2925 -0.9297 -0.1950
17927SOL    HW262750   7.769   5.260   0.319  0.6763 -0.4256  0.1099
17928SOL     OW62751   2.449   8.140   3.435 -0.1770  0.4142 -0.1004
17928SOL    HW162752   2.526   8.148   3.492  0.9898  0.3887 -1.6124
17928SOL    HW262753   2.398   8.070   3.475 -0.5247  1.8411  2.1276
17929SOL     OW62754  12.291   8.036   3.839  0.7824 -0.2035  0.7273
17929SOL    HW162755  12.196   8.044   3.852  0.1691 -1.0863 -2.2625
17929SOL    HW262756  12.311   7.946   3.865  1.0264  0.2893  2.3034
17930SOL     OW62757   8.123   2.268   8.290  0.5764 -0.4345 -0.0561
17930SOL    HW162758   8.108   2.202   8.357  2.8422 -1.9047 -0.8651
17930SOL    HW262759   8.199   2.236   8.241 -0.7350  0.7040 -3.1400
17931SOL     OW62760   2.239   9.385   6.397 -0.5535 -0.4341  0.0371
17931SOL    HW162761   2.199   9.369   6.482  2.3097 -1.6907  1.2555
17931SOL    HW262762   2.224   9.478   6.380 -0.7435 -0.0426  2.1530
17932SOL     OW62763   1.789  11.561   2.782  0.0730  0.0755 -0.1190
17932SOL    HW162764   1.840  11.640   2.796  1.2681 -0.5053 -1.0805
17932SOL    HW262765   1.745  11.546   2.866  0.5472  1.2363  0.3506
17933SOL     OW62766  11.559  10.842   8.987 -0.1654  0.2676 -0.4181
17933SOL    HW162767  11.576  10.825   9.080 -0.2807  0.0093 -0.4425
17933SOL    HW262768  11.536  10.756   8.951 -1.8464  0.6533 -0.3303
17934SOL     OW62769   4.101   2.793  11.045 -0.1376  0.3096 -0.0276
17934SOL    HW162770   4.033   2.726  11.032 -0.2091  0.7324 -2.3818
17934SOL    HW262771   4.182   2.750  11.018 -0.2385  1.2205 -1.9014
17935SOL     OW62772   2.920   7.862  11.834  0.4870 -0.4994 -0.1099
17935SOL    HW162773   2.982   7.928  11.865 -0.2259  0.7889 -1.2988
17935SOL    HW262774   2.934   7.859  11.739 -1.5973  0.2304 -0.4973
17936SOL     OW62775   5.385   9.928   3.248  0.3036  0.0448  0.0499
17936SOL    HW162776   5.326   9.938   3.323  0.8866  0.9975  0.3944
17936SOL    HW262777   5.344   9.860   3.194  0.2159 -1.1594  1.5549
17937SOL     OW62778   9.588  10.013  11.411 -0.2292  0.5458 -0.1874
17937SOL    HW162779   9.537   9.969  11.343  0.7249 -0.5040 -0.2536
17937SOL    HW262780   9.581  10.106  11.391 -0.2188  0.2680 -1.5451
17938SOL     OW62781   5.086   2.399   2.611 -0.3510  0.2276 -1.0941
17938SOL    HW162782   5.067   2.340   2.683 -2.0436  2.5509  0.5025
17938SOL    HW262783   5.169   2.440   2.634  0.0739 -0.4114 -1.4609
17939SOL     OW62784  11.587  11.611  11.331 -0.5777  0.0676  0.7525
17939SOL    HW162785  11.646  11.535  11.325 -0.2574  0.1368  2.3942
17939SOL    HW262786  11.522  11.596  11.263  0.7104 -0.5740 -0.3850
17940SOL     OW62787   3.602   8.652   6.942 -0.1452 -0.4187  0.3607
17940SOL    HW162788   3.653   8.721   6.899  0.3108  0.1856  1.8143
17940SOL    HW262789   3.666   8.602   6.992 -0.3775 -2.3176 -1.1153
17941SOL     OW62790   0.962   8.088   9.152  0.3166  0.1112  0.1643
17941SOL    HW162791   1.010   8.012   9.121 -1.3084 -0.9415  0.0762
17941SOL    HW262792   0.973   8.086   9.247 -0.7584 -1.0356  0.2975
17942SOL     OW62793   1.772   7.413   9.136 -0.2023 -0.3878 -0.6215
17942SOL    HW162794   1.852   7.372   9.105  0.9881  0.4629  1.1674
17942SOL    HW262795   1.801   7.479   9.198 -2.2670  0.4755 -0.4852
17943SOL     OW62796   8.682   6.733  12.383  0.1662  0.2870  0.0732
17943SOL    HW162797   8.729   6.673  12.441 -1.3431 -0.5250  0.4876
17943SOL    HW262798   8.704   6.703  12.295 -0.2774 -0.6454  0.2715
17944SOL     OW62799  12.356   5.012  10.879  0.3775  0.2189 -0.4507
17944SOL    HW162800  12.304   5.078  10.832  0.2608 -1.2714 -2.5925
17944SOL    HW262801  12.431   5.060  10.913 -0.9998  1.9138  0.3649
17945SOL     OW62802   2.086   1.548   9.672 -0.5792  0.1113  0.1361
17945SOL    HW162803   2.074   1.456   9.697 -0.9803 -0.3563 -1.6706
17945SOL    HW262804   2.140   1.545   9.593 -1.9356  1.3271 -0.8778
17946SOL     OW62805  11.200  12.302   8.777  0.1281 -0.1351 -0.3857
17946SOL    HW162806  11.276  12.244   8.789  0.1889  0.2150  1.1542
17946SOL    HW262807  11.148  12.260   8.709  0.5631 -1.5977  0.1456
17947SOL     OW62808   2.628   7.329   7.165  0.0316  0.4619  0.6698
17947SOL    HW162809   2.669   7.304   7.082  1.4676  1.2142  1.1108
17947SOL    HW262810   2.664   7.267   7.228 -1.6535 -0.6003  0.6347
17948SOL     OW62811   2.778  10.499   1.901  0.4118 -0.4732 -0.0633
17948SOL    HW162812   2.819  10.584   1.890  0.5118 -0.6597 -1.3096
17948SOL    HW262813   2.829  10.456   1.969  1.7072 -0.3362 -0.9126
17949SOL     OW62814   4.253   4.745   8.782  0.1001  0.3150  0.0429
17949SOL    HW162815   4.166   4.727   8.816 -0.0953  0.8391 -0.1783
17949SOL    HW262816   4.238   4.778   8.693  0.6178 -1.5508 -0.7916
17950SOL     OW62817  10.235   3.414   8.877 -0.2182 -0.2740  0.4324
17950SOL    HW162818  10.326   3.400   8.902 -0.2179 -1.4133 -0.1578
17950SOL    HW262819  10.234   3.402   8.782 -1.2427 -1.7653  0.6139
17951SOL     OW62820   6.467   7.253   4.319  0.2445 -0.5748 -0.0641
17951SOL    HW162821   6.397   7.277   4.258 -0.1951  1.0771  1.0264
17951SOL    HW262822   6.467   7.157   4.319  0.3244 -0.6472 -2.6738
17952SOL     OW62823   9.515   1.814   7.117  0.0958  0.0163 -0.0230
17952SOL    HW162824   9.516   1.745   7.183 -1.0514  0.6944  0.7245
17952SOL    HW262825   9.590   1.793   7.061  1.0068 -0.6613  1.3807
17953SOL     OW62826   2.044   2.172   3.579  0.5845  0.1452  0.2483
17953SOL    HW162827   2.124   2.217   3.607  1.0052  0.0938 -0.8360
17953SOL    HW262828   1.977   2.204   3.639  1.5435 -0.3460  1.6265
17954SOL     OW62829   5.525   4.927   4.970  0.1480  0.2504 -0.5822
17954SOL    HW162830   5.576   4.847   4.971  0.7442  0.5929 -1.6962
17954SOL    HW262831   5.467   4.918   4.894  0.8047  1.2007 -1.2244
17955SOL     OW62832   5.218   5.535   6.631  0.3128 -0.3119  0.3126
17955SOL    HW162833   5.239   5.450   6.670  1.5735 -0.9354 -1.5559
17955SOL    HW262834   5.162   5.514   6.557 -0.0426  0.5838  0.3141
17956SOL     OW62835   5.311   1.256   3.821  0.6564  0.2762 -1.0012
17956SOL    HW162836   5.371   1.216   3.758 -1.4094 -1.3150 -2.0755
17956SOL    HW262837   5.275   1.181   3.869 -0.9174  1.1217 -0.8270
17957SOL     OW62838   1.313   0.298  10.838 -0.3885  0.0534  0.5360
17957SOL    HW162839   1.268   0.383  10.839  1.6642  1.2614 -1.2991
17957SOL    HW262840   1.382   0.307  10.904 -0.0072 -0.0773  0.1595
17958SOL     OW62841   9.208   5.628  10.086  0.8654 -0.5923 -0.2985
17958SOL    HW162842   9.149   5.576  10.031  0.6964  0.0283 -0.7207
17958SOL    HW262843   9.200   5.590  10.173 -0.3446 -0.3632 -0.2943
17959SOL     OW62844  12.002  12.180   9.377  0.1020  0.4123 -0.1971
17959SOL    HW162845  11.994  12.124   9.300 -3.3604 -0.6137  0.7427
17959SOL    HW262846  12.054  12.128   9.439  0.9492  0.3017 -0.9716
17960SOL     OW62847   1.354   4.781   6.689 -0.0775  0.1302 -0.3697
17960SOL    HW162848   1.408   4.836   6.633 -0.6521  2.3940  1.1928
17960SOL    HW262849   1.378   4.691   6.664  4.7425  0.9173  0.4809
17961SOL     OW62850   4.890   5.941   5.604  0.2275  0.0214  0.6316
17961SOL    HW162851   4.977   5.943   5.564 -0.2499 -2.0360 -0.6711
17961SOL    HW262852   4.907   5.945   5.698  1.4975  2.9436  0.3984
17962SOL     OW62853   9.736   6.485   3.198  0.1776 -0.0433  0.6658
17962SOL    HW162854   9.641   6.496   3.199  0.1783  1.2021 -2.2749
17962SOL    HW262855   9.750   6.392   3.182 -0.5382 -0.1559  0.6768
17963SOL     OW62856   7.032  11.503  11.584  0.2802  0.6115 -0.2229
17963SOL    HW162857   6.996  11.456  11.659  0.4954 -1.3091 -1.2418
17963SOL    HW262858   6.958  11.515  11.525 -0.2516  3.5622  0.8838
17964SOL     OW62859   2.688   1.181   9.286 -0.3750  0.0878 -0.3125
17964SOL    HW162860   2.665   1.267   9.249 -1.5232 -0.9105 -2.0212
17964SOL    HW262861   2.728   1.134   9.213  1.0218 -0.5762  0.8357
17965SOL     OW62862  11.738   6.175  10.920 -0.2584 -0.1177 -0.2650
17965SOL    HW162863  11.672   6.125  10.966 -0.3541 -0.4826 -0.7852
17965SOL    HW262864  11.705   6.182  10.830 -0.1189  0.6461 -0.2650
17966SOL     OW62865  10.286   1.002   8.467 -1.0739  0.0704 -0.0365
17966SOL    HW162866  10.376   1.022   8.443 -1.6454  3.0970 -0.0253
17966SOL    HW262867  10.292   0.971   8.558  0.0368 -1.0804 -0.4680
17967SOL     OW62868   6.304   0.872  10.208 -0.1466 -0.1002 -0.0421
17967SOL    HW162869   6.276   0.926  10.134  0.2436  0.9055  0.5246
17967SOL    HW262870   6.250   0.902  10.281  0.4765 -0.0805  0.4145
17968SOL     OW62871   3.269   7.443   4.128  0.1287 -0.9168 -0.7654
17968SOL    HW162872   3.337   7.509   4.138 -1.2749  0.3129  1.9189
17968SOL    HW262873   3.220   7.471   4.050 -0.9890  1.9066  0.7810
17969SOL     OW62874   9.540   4.096   4.032 -0.0722 -0.0589 -0.3524
17969SOL    HW162875   9.480   4.165   4.002 -1.9580 -0.3091  2.3995
17969SOL    HW262876   9.532   4.027   3.967 -2.8838 -0.0803 -0.1237
17970SOL     OW62877   8.158   1.878   4.422  0.0789 -0.2374  0.6609
17970SOL    HW162878   8.079   1.892   4.370  0.8548  0.2225 -0.4294
17970SOL    HW262879   8.136   1.804   4.479 -1.2526  0.1115  0.6528
17971SOL     OW62880  10.797   3.179   9.549 -0.1623  0.3046  0.5764
17971SOL    HW162881  10.738   3.187   9.624 -1.5331  1.5351 -0.5736
17971SOL    HW262882  10.744   3.139   9.480  0.3215  1.4370 -0.4929
17972SOL     OW62883   7.589  11.150  11.463  0.3843  0.0848 -0.6151
17972SOL    HW162884   7.536  11.160  11.542 -0.2893 -2.3789 -0.6711
17972SOL    HW262885   7.535  11.189  11.394  0.0609  0.4084 -0.1933
17973SOL     OW62886   6.869  11.419   1.329 -0.3001 -0.1968  0.3626
17973SOL    HW162887   6.900  11.439   1.418  0.8117 -0.4191  0.0464
17973SOL    HW262888   6.934  11.460   1.272 -0.3662 -1.0542 -0.3355
17974SOL     OW62889   7.398   5.951  10.273  0.8495  0.4023  0.2170
17974SOL    HW162890   7.317   5.966  10.225  0.8734  2.0258  0.6267
17974SOL    HW262891   7.378   5.979  10.363  1.8526  0.8791  0.3072
17975SOL     OW62892   3.751   1.744   9.025  0.5304  1.0930  0.1773
17975SOL    HW162893   3.803   1.821   9.003  1.1983  0.8441  0.8349
17975SOL    HW262894   3.671   1.779   9.064  1.1348  1.4564  1.1290
17976SOL     OW62895   7.715   2.029   4.220  0.4333  0.3677 -0.0994
17976SOL    HW162896   7.710   2.123   4.238  0.6656  0.4008 -0.2098
17976SOL    HW262897   7.623   2.002   4.209  0.3572  0.5494  0.0934
17977SOL     OW62898   5.706   3.056  12.507 -0.5985 -0.7301  0.6625
17977SOL    HW162899   5.800   3.074  12.512 -0.4171 -0.8048 -1.6377
17977SOL    HW262900   5.700   2.969  12.468 -1.6234 -0.1655 -0.4849
17978SOL     OW62901   2.249   4.653   3.534 -0.1074  0.0797 -0.3312
17978SOL    HW162902   2.243   4.723   3.599  1.0199  0.2691 -0.4203
17978SOL    HW262903   2.187   4.586   3.566  0.3843  0.1871  0.9218
17979SOL     OW62904  10.000   1.222   2.951 -0.1380  0.3274  0.1183
17979SOL    HW162905  10.034   1.133   2.940  1.2268  0.7812  0.4745
17979SOL    HW262906   9.991   1.232   3.045  0.4164  0.8215  0.1176
17980SOL     OW62907   4.634   8.573   0.237  0.1525  0.2324 -0.7218
17980SOL    HW162908   4.576   8.648   0.250 -1.3081 -1.2292  2.1125
17980SOL    HW262909   4.717   8.600   0.276 -0.1069  0.6395 -0.4481
17981SOL     OW62910  11.171   1.067   4.743  0.3077 -0.0643  0.1579
17981SOL    HW162911  11.178   1.013   4.822  0.6633  0.7895  0.7189
17981SOL    HW262912  11.183   1.005   4.671 -0.0739 -0.8675  0.7617
17982SOL     OW62913   9.475   1.225   0.738 -0.9688 -0.0994  0.5870
17982SOL    HW162914   9.423   1.224   0.658 -1.1213 -1.8130  0.6811
17982SOL    HW262915   9.414   1.202   0.808 -0.5673  0.1461  1.0278
17983SOL     OW62916   3.103  11.077   1.634 -0.2962 -0.3895 -0.1081
17983SOL    HW162917   3.053  11.009   1.589 -1.8316  1.2148 -0.9301
17983SOL    HW262918   3.090  11.059   1.727 -2.1975 -0.1880 -0.3069
17984SOL     OW62919   6.819   4.661   4.377 -0.0460  0.0554  0.5939
17984SOL    HW162920   6.909   4.691   4.384  0.1399 -0.2168 -0.5136
17984SOL    HW262921   6.813   4.621   4.290 -2.2168  3.3711 -0.9764
17985SOL     OW62922   9.418  10.185   8.754  0.5441  0.6746  0.4631
17985SOL    HW162923   9.513  10.177   8.754  0.5637  0.6748  1.7258
17985SOL    HW262924   9.400  10.268   8.797 -0.0010  1.6738 -1.5713
17986SOL     OW62925   3.157  11.641   8.276 -0.0113  0.2663  0.0752
17986SOL    HW162926   3.128  11.551   8.264  1.1095  0.1769 -2.6993
17986SOL    HW262927   3.251  11.634   8.292 -0.2099  0.8887  1.6810
17987SOL     OW62928   6.265   8.022   5.433 -0.0005 -0.2803 -0.4100
17987SOL    HW162929   6.237   8.041   5.344  0.0698  0.6524 -0.2405
17987SOL    HW262930   6.211   7.947   5.460 -1.1070  0.4003 -0.6879
17988SOL     OW62931  10.449   6.812   9.696  0.2398  0.0585  0.0015
17988SOL    HW162932  10.370   6.787   9.745  0.8587  0.0580  1.0366
17988SOL    HW262933  10.483   6.888   9.743  0.5099  0.4636 -0.8246
17989SOL     OW62934   2.197   4.927   8.605 -0.0282 -0.2953  0.2275
17989SOL    HW162935   2.110   4.966   8.607 -0.2680 -0.7483 -0.7350
17989SOL    HW262936   2.254   4.993   8.646 -0.5740  0.6836 -0.5454
17990SOL     OW62937   3.868   3.289   6.198 -0.8004 -0.0209  0.5950
17990SOL    HW162938   3.803   3.308   6.131 -0.8403 -0.2754  0.5605
17990SOL    HW262939   3.939   3.245   6.152  0.6216  2.5476  0.1191
17991SOL     OW62940   1.187   0.779   3.324  0.5538  0.2147  0.1567
17991SOL    HW162941   1.193   0.846   3.256  0.7227 -0.2679 -0.3065
17991SOL    HW262942   1.115   0.723   3.296  0.2041  0.3806  0.7093
17992SOL     OW62943   2.812  11.173   2.312 -0.7749 -0.5027  0.5435
17992SOL    HW162944   2.799  11.230   2.389 -1.8433 -0.7616  0.5694
17992SOL    HW262945   2.837  11.233   2.242 -1.7269 -0.0035  0.6131
17993SOL     OW62946   5.380  10.027   2.447  0.3446  0.1041  0.0243
17993SOL    HW162947   5.417  10.038   2.359  0.6594  2.0024  0.3625
17993SOL    HW262948   5.288  10.006   2.432  0.5490 -0.2955 -0.7474
17994SOL     OW62949   2.389  10.176   5.670  0.3151 -0.0250  0.1930
17994SOL    HW162950   2.297  10.156   5.650  0.6814  0.4305 -2.1526
17994SOL    HW262951   2.413  10.244   5.608  2.1756  0.0834  0.9782
17995SOL     OW62952   1.747   8.775   1.011  0.6760 -0.0593 -0.5918
17995SOL    HW162953   1.666   8.823   1.023  0.0220 -0.6297 -2.3283
17995SOL    HW262954   1.813   8.843   0.998 -0.0451  0.4297 -1.9414
17996SOL     OW62955   9.754   7.146  12.166  0.0905 -0.3115  0.0617
17996SOL    HW162956   9.838   7.137  12.120  0.1284  0.8397 -0.1470
17996SOL    HW262957   9.767   7.220  12.225 -0.9782  0.3652 -0.4979
17997SOL     OW62958   0.420   1.806  10.282 -0.2636  0.3182 -0.1553
17997SOL    HW162959   0.469   1.788  10.362  0.2510 -1.1972 -0.7607
17997SOL    HW262960   0.331   1.778  10.301  0.1757 -1.4776 -0.5444
17998SOL     OW62961   5.329   3.669  10.179 -0.6463  0.0655  0.6137
17998SOL    HW162962   5.261   3.734  10.192 -0.8573  0.0587 -0.3403
17998SOL    HW262963   5.311   3.601  10.244 -2.0381 -0.3145 -0.1324
17999SOL     OW62964   1.023   3.619   5.759 -0.2053  0.0360  0.0159
17999SOL    HW162965   1.106   3.573   5.765  0.5330  1.2932 -0.2355
17999SOL    HW262966   0.958   3.556   5.789  0.6547 -1.4461 -1.1252
18000SOL     OW62967   3.662   2.313  10.469  0.5853 -0.0451  0.3342
18000SOL    HW162968   3.649   2.237  10.525  1.1843  0.9193  1.8228
18000SOL    HW262969   3.630   2.387  10.520 -1.6564  0.5634 -1.7505
18001SOL     OW62970   6.567   3.773   1.006  0.1447 -0.0626 -0.5008
18001SOL    HW162971   6.520   3.774   0.922 -1.3705  0.9666  0.3204
18001SOL    HW262972   6.582   3.865   1.026 -0.5032 -0.2470  0.8901
18002SOL     OW62973   9.652   0.797   8.746  0.1183  0.2092 -0.1231
18002SOL    HW162974   9.652   0.755   8.660  1.5197 -2.0826  0.9204
18002SOL    HW262975   9.733   0.848   8.748 -0.4260  1.1188 -0.5084
18003SOL     OW62976   7.981   8.390   3.889 -0.2235 -0.0157 -0.4283
18003SOL    HW162977   7.934   8.442   3.953 -2.2049 -1.6969 -0.4128
18003SOL    HW262978   8.066   8.372   3.930  0.0055  2.0468  0.0805
18004SOL     OW62979   4.912   8.960   9.356  0.6338 -0.1829  0.6565
18004SOL    HW162980   4.862   9.013   9.417  0.7442  1.1176 -0.3345
18004SOL    HW262981   4.856   8.884   9.338 -0.1521  0.3091  1.0007
18005SOL     OW62982   8.128   3.447   6.778 -0.0645  0.1631  0.2428
18005SOL    HW162983   8.072   3.487   6.711  0.4302 -1.1307 -0.9760
18005SOL    HW262984   8.067   3.420   6.847 -0.7862 -0.0343 -0.4600
18006SOL     OW62985   9.883  11.977   3.661  0.4873 -0.6837  0.3535
18006SOL    HW162986   9.916  12.014   3.579  1.6818 -0.4657  0.9026
18006SOL    HW262987   9.903  12.045   3.726 -0.9870 -0.5941  0.7414
18007SOL     OW62988   0.708   7.346   7.077  0.3488  0.5648 -0.3019
18007SOL    HW162989   0.641   7.414   7.088 -0.3694 -0.2525  0.6185
18007SOL    HW262990   0.678   7.295   7.002 -0.0311  0.2500  0.0579
18008SOL     OW62991   6.891   8.585  10.562 -0.7432 -0.4916  0.4655
18008SOL    HW162992   6.939   8.548  10.488 -0.9551  2.2973 -1.1940
18008SOL    HW262993   6.804   8.545  10.557 -0.3838 -1.2202 -0.0569
18009SOL     OW62994  11.058   4.127   5.597  0.4761  0.8543  0.1765
18009SOL    HW162995  11.038   4.152   5.507  2.6842  1.2454 -0.2639
18009SOL    HW262996  11.057   4.031   5.596 -1.4361  0.8415  0.2493
18010SOL     OW62997   0.186   1.349   1.895 -0.0331  0.1574 -0.2866
18010SOL    HW162998   0.129   1.344   1.819  0.5405  1.0768 -0.7876
18010SOL    HW262999   0.245   1.274   1.886 -1.0832 -0.7640  0.2042
18011SOL     OW63000   0.448   3.772   4.928  0.7011 -0.1621  0.2716
18011SOL    HW163001   0.353   3.769   4.939  0.7139 -0.7725  0.2686
18011SOL    HW263002   0.463   3.850   4.876  0.2538  0.2777  0.7881
18012SOL     OW63003   3.325  10.343   7.909 -0.2945 -0.1340 -0.0299
18012SOL    HW163004   3.271  10.422   7.908  0.7679  0.6174 -0.2801
18012SOL    HW263005   3.301  10.299   7.991 -2.8331 -0.9844 -1.1494
18013SOL     OW63006  10.875   7.309   7.040 -0.1428 -0.0575  0.8263
18013SOL    HW163007  10.848   7.398   7.020  0.5778 -0.2988 -1.5216
18013SOL    HW263008  10.796   7.256   7.028 -0.0332 -0.0135 -0.1883
18014SOL     OW63009   7.676  12.508  11.837 -0.4567  0.5729  0.3496
18014SOL    HW163010   7.634  12.483  11.919 -0.2535  0.4102  0.4051
18014SOL    HW263011   7.635  12.592  11.813 -2.0550 -0.4051 -0.4982
18015SOL     OW63012   0.557   9.003   2.478 -0.1615  0.1477 -0.5480
18015SOL    HW163013   0.467   9.035   2.480 -0.2193 -0.0096  0.8714
18015SOL    HW263014   0.550   8.914   2.444 -0.5061  0.2361 -0.7133
18016SOL     OW63015  11.372   0.371   9.558 -0.5809 -0.0458  0.1521
18016SOL    HW163016  11.371   0.296   9.617 -0.9760  0.1470  0.3954
18016SOL    HW263017  11.449   0.357   9.503  0.1660  0.0725  1.1147
18017SOL     OW63018   9.718   8.886   3.846  0.1593  0.2309 -0.0901
18017SOL    HW163019   9.698   8.807   3.897 -1.9862 -0.8597 -2.3953
18017SOL    HW263020   9.791   8.861   3.790  0.2747  0.2878  0.0349
18018SOL     OW63021   9.124   3.518   1.010 -0.3893  0.2220 -0.3265
18018SOL    HW163022   9.085   3.541   1.094  0.6938 -1.5567  0.7412
18018SOL    HW263023   9.056   3.469   0.964  0.1323 -1.9978  1.1060
18019SOL     OW63024   2.338   0.132   1.562 -0.1652 -0.4109  1.0447
18019SOL    HW163025   2.270   0.199   1.555  0.6582  0.5659  2.0212
18019SOL    HW263026   2.298   0.054   1.525 -1.2518  0.5398  0.1354
18020SOL     OW63027   0.004   6.584   0.757 -0.2956 -0.1368 -0.2243
18020SOL    HW163028  -0.032   6.604   0.843 -1.0375  0.7519 -0.7256
18020SOL    HW263029  -0.023   6.657   0.702  0.8635 -0.2923 -1.0230
18021SOL     OW63030   9.375   7.739   5.547 -0.2857 -0.3778  0.8303
18021SOL    HW163031   9.436   7.719   5.475  0.4979  1.0223  1.0744
18021SOL    HW263032   9.376   7.660   5.601  0.6197 -0.7203  0.3408
18022SOL     OW63033   5.533   5.003  12.043 -0.0305  0.3882 -0.4557
18022SOL    HW163034   5.590   5.075  12.070  0.8263 -0.3567 -0.1901
18022SOL    HW263035   5.474   4.991  12.117  0.3175  0.3430 -0.1784
18023SOL     OW63036   3.407   6.561   3.796  0.6410 -0.2705 -0.2578
18023SOL    HW163037   3.338   6.494   3.785  0.4406  0.0200 -0.8157
18023SOL    HW263038   3.444   6.571   3.709  0.5425  0.4870 -0.2190
18024SOL     OW63039   8.727   6.468   4.705  0.5091  0.4898  0.2704
18024SOL    HW163040   8.782   6.394   4.732 -0.5203 -0.4447 -0.1186
18024SOL    HW263041   8.640   6.448   4.740 -0.9808 -0.9068 -3.6381
18025SOL     OW63042   6.413   1.924   4.564  0.7085  0.2153  0.3283
18025SOL    HW163043   6.436   1.846   4.514 -0.6872  0.6589 -1.1080
18025SOL    HW263044   6.481   1.988   4.543  1.0887 -0.1716  0.3892
18026SOL     OW63045   9.386   3.754   6.142  0.4410 -0.1781  0.4702
18026SOL    HW163046   9.377   3.672   6.190  0.5999  0.2695  1.2755
18026SOL    HW263047   9.297   3.788   6.135  0.0886 -1.3768 -1.6182
18027SOL     OW63048   1.931  11.348   3.775  0.1468  0.3605  0.1178
18027SOL    HW163049   1.850  11.340   3.724 -0.0529  0.2942  0.4420
18027SOL    HW263050   2.000  11.359   3.709  0.1158 -1.4026 -0.2607
18028SOL     OW63051   2.256   5.357   6.829 -0.6985 -0.2797 -0.5353
18028SOL    HW163052   2.231   5.282   6.884 -3.7752 -0.5460 -2.0570
18028SOL    HW263053   2.191   5.424   6.849  1.0094  1.4405 -0.4437
18029SOL     OW63054   0.972  10.678  11.952  0.2988  0.0488 -0.5442
18029SOL    HW163055   0.908  10.679  11.880  0.2504 -2.4537 -0.6394
18029SOL    HW263056   0.924  10.641  12.026  0.3694  2.5353  0.8410
18030SOL     OW63057  10.736  12.510   2.349 -0.0707 -0.3710 -0.2270
18030SOL    HW163058  10.808  12.551   2.301  1.5734 -2.1607  0.6174
18030SOL    HW263059  10.708  12.577   2.411  0.2187  0.6631 -1.1681
18031SOL     OW63060   4.600   5.852   1.443  0.2267  0.3910  0.5497
18031SOL    HW163061   4.626   5.796   1.516 -1.4355 -0.7360  0.3356
18031SOL    HW263062   4.679   5.859   1.389  0.5934 -1.4729  0.7672
18032SOL     OW63063   7.526   5.711   1.507 -0.3270 -0.1006 -0.0159
18032SOL    HW163064   7.596   5.679   1.564 -0.7521  1.1311  1.2605
18032SOL    HW263065   7.550   5.680   1.420  1.2129 -0.6484  0.5656
18033SOL     OW63066   9.706   2.191   5.562  0.0420 -0.4927  0.3895
18033SOL    HW163067   9.722   2.127   5.492 -0.2460 -0.8150  0.6119
18033SOL    HW263068   9.611   2.186   5.577 -0.6755  2.5805 -2.0825
18034SOL     OW63069  10.399   2.613   6.591 -0.1536  0.2043 -0.1205
18034SOL    HW163070  10.457   2.546   6.628 -0.5670  1.2117  2.5679
18034SOL    HW263071  10.369   2.576   6.508  2.7130 -1.2090 -0.6534
18035SOL     OW63072  12.417  10.571   0.314 -0.2379  0.1261 -0.1806
18035SOL    HW163073  12.388  10.480   0.313  0.4762 -0.1162  0.3723
18035SOL    HW263074  12.424  10.593   0.407 -0.2580  0.6989 -0.3100
18036SOL     OW63075   7.115   8.826   2.206  0.0459 -0.3689 -0.6303
18036SOL    HW163076   7.170   8.755   2.240  1.3030  0.6371 -0.4601
18036SOL    HW263077   7.166   8.864   2.135  0.1699  1.3732  0.3194
18037SOL     OW63078   0.423   8.453   7.510 -0.3165 -0.2659  0.1490
18037SOL    HW163079   0.373   8.461   7.591  0.3424  0.0970  0.5345
18037SOL    HW263080   0.507   8.417   7.537  0.3543  0.9867 -0.1932
18038SOL     OW63081   8.797   7.645   0.480  0.0349  0.0110  0.1877
18038SOL    HW163082   8.766   7.576   0.422 -0.2276 -0.1682  0.5401
18038SOL    HW263083   8.879   7.611   0.516  0.5308  0.3914 -0.5708
18039SOL     OW63084   1.506  10.435   6.750 -0.5490  0.6649  0.0207
18039SOL    HW163085   1.573  10.384   6.794 -0.3361  1.3065  0.4633
18039SOL    HW263086   1.439  10.449   6.816 -0.2036  1.6773  0.1868
18040SOL     OW63087   6.131   9.880   8.213  0.4226 -0.2971 -0.2614
18040SOL    HW163088   6.110   9.973   8.206  2.3308  0.3695  1.8323
18040SOL    HW263089   6.051   9.840   8.247  0.3367  1.0676  1.2876
18041SOL     OW63090   3.373   5.990  12.125 -0.1971  0.0115 -0.1722
18041SOL    HW163091   3.373   6.048  12.049 -1.3171 -0.6093 -0.6774
18041SOL    HW263092   3.397   5.905  12.090  1.3927  0.1342  0.5583
18042SOL     OW63093   2.485   6.463  12.014  0.1883 -0.4843  0.0776
18042SOL    HW163094   2.544   6.454  12.089  0.9405  0.6082 -0.3572
18042SOL    HW263095   2.514   6.543  11.970 -1.8802  0.3062  0.0621
18043SOL     OW63096   4.413  10.119   3.359  0.5102  0.7200  0.2034
18043SOL    HW163097   4.353  10.121   3.285  2.0487 -0.6320 -1.1417
18043SOL    HW263098   4.496  10.090   3.323  1.5952  1.0208  2.2891
18044SOL     OW63099   4.994   3.120   1.916  0.5570 -0.5323  0.5863
18044SOL    HW163100   5.067   3.068   1.948  1.9203 -0.2710 -1.8974
18044SOL    HW263101   4.939   3.058   1.868  0.8571 -0.1652 -0.2488
18045SOL     OW63102   6.325   3.211  10.184  0.4475 -0.3347 -0.1976
18045SOL    HW163103   6.249   3.263  10.210 -0.9891 -2.1866 -0.4784
18045SOL    HW263104   6.321   3.209  10.089  1.1774  0.0234 -0.2361
18046SOL     OW63105   9.399  10.145   6.329 -0.2227 -0.0172 -0.0352
18046SOL    HW163106   9.399  10.240   6.340 -0.0812 -0.3327  4.1048
18046SOL    HW263107   9.488  10.125   6.298 -0.2650  1.1343 -1.0009
18047SOL     OW63108   8.816  10.086   5.503  0.4107  0.4245 -0.4422
18047SOL    HW163109   8.819   9.992   5.519 -1.0906  0.1188 -1.6827
18047SOL    HW263110   8.725  10.110   5.517  0.5952  1.5262 -0.9926
18048SOL     OW63111  11.427   5.037   1.646  0.1866  0.0814  0.4966
18048SOL    HW163112  11.386   5.109   1.598  0.6948  0.0867  0.0599
18048SOL    HW263113  11.508   5.020   1.598  1.1235  0.6433  1.8372
18049SOL     OW63114   8.678   0.963   9.689  0.3554  0.7943 -0.3780
18049SOL    HW163115   8.686   0.991   9.598 -0.5002 -2.0650 -1.4454
18049SOL    HW263116   8.762   0.924   9.710 -0.6011 -2.0592 -1.3734
18050SOL     OW63117   8.416   1.499   5.967  0.2154 -0.1864  0.1588
18050SOL    HW163118   8.453   1.423   6.013  0.5391 -1.4638 -2.0838
18050SOL    HW263119   8.373   1.462   5.890 -0.6835  1.8194 -0.3705
18051SOL     OW63120   3.304   8.512   3.556 -0.0979  0.9792  0.6346
18051SOL    HW163121   3.308   8.425   3.596 -0.2231  1.8456  2.6531
18051SOL    HW263122   3.396   8.536   3.542 -0.0755  0.3715 -0.3104
18052SOL     OW63123   8.391  11.907   3.780 -0.2281 -0.2167 -0.7784
18052SOL    HW163124   8.462  11.890   3.719  0.2429 -0.7653 -0.0914
18052SOL    HW263125   8.312  11.908   3.725  0.2783  0.2638 -1.5243
18053SOL     OW63126  11.322   8.720   2.568 -0.5883 -0.0800  0.1701
18053SOL    HW163127  11.327   8.711   2.473 -1.0355  3.6533 -0.3429
18053SOL    HW263128  11.316   8.630   2.600  1.5707 -1.6035 -3.1489
18054SOL     OW63129   7.474   5.029   7.372 -0.2656 -0.3550 -0.5322
18054SOL    HW163130   7.450   5.026   7.280  1.7420  1.9355 -1.2381
18054SOL    HW263131   7.560   4.988   7.376 -0.3630 -0.4959  0.3701
18055SOL     OW63132  11.661  11.930   7.598 -0.0903 -0.2290  0.1972
18055SOL    HW163133  11.708  11.873   7.659 -0.0085 -0.0789  0.2730
18055SOL    HW263134  11.729  11.964   7.539 -0.1671 -0.3614  0.0303
18056SOL     OW63135   6.006  10.780   8.951  0.7071  0.5016  0.6009
18056SOL    HW163136   6.050  10.862   8.974 -1.9918  1.6543  2.2096
18056SOL    HW263137   5.982  10.790   8.859 -0.0447  1.8001  0.9169
18057SOL     OW63138  10.584  12.585   0.503 -0.3281  0.2086 -0.4380
18057SOL    HW163139  10.664  12.547   0.466 -0.4616  0.2353 -0.7495
18057SOL    HW263140  10.540  12.511   0.546  0.6850  0.4977  1.1941
18058SOL     OW63141   1.698   0.892   9.098  0.5211  0.6892 -0.3659
18058SOL    HW163142   1.606   0.884   9.071 -0.4029  1.1380  2.3902
18058SOL    HW263143   1.729   0.802   9.106 -0.8606  0.3564  2.1809
18059SOL     OW63144   9.068   5.091   3.453 -0.1877 -0.1972 -0.5805
18059SOL    HW163145   9.133   5.143   3.501 -2.1263  1.5511  0.3143
18059SOL    HW263146   9.048   5.018   3.512  1.6901 -1.3810 -1.3321
18060SOL     OW63147   2.150   1.535   1.810  0.4862  0.0290  0.2167
18060SOL    HW163148   2.214   1.600   1.841  1.3280 -0.3957 -0.6127
18060SOL    HW263149   2.072   1.553   1.863  1.4857  0.1125  1.7421
18061SOL     OW63150   1.164   5.664   2.316  0.8047 -0.2736  0.3998
18061SOL    HW163151   1.078   5.635   2.286  1.2975 -1.0909 -0.2397
18061SOL    HW263152   1.179   5.614   2.396  0.9410 -0.5748  0.1876
18062SOL     OW63153   5.052  10.609   0.798 -0.4660 -0.7069 -0.0534
18062SOL    HW163154   4.957  10.617   0.787 -0.2564  0.5840 -1.2763
18062SOL    HW263155   5.068  10.636   0.889 -1.3110 -1.5777  0.3744
18063SOL     OW63156  10.703  10.509   2.401 -0.3319 -0.0807 -0.5166
18063SOL    HW163157  10.773  10.462   2.448 -1.7076 -0.5345  1.1944
18063SOL    HW263158  10.678  10.450   2.330 -1.0443 -1.3440  0.7328
18064SOL     OW63159  10.984   9.336   4.681 -0.0373 -0.1286  0.1011
18064SOL    HW163160  11.050   9.358   4.614  1.3119  1.0996  1.7388
18064SOL    HW263161  10.973   9.242   4.674 -0.1134 -0.0179 -1.9796
18065SOL     OW63162   2.327   7.080   4.474 -0.3873  0.7117  0.1970
18065SOL    HW163163   2.246   7.082   4.424 -0.6846 -2.4084  0.3097
18065SOL    HW263164   2.390   7.038   4.415 -0.2575 -1.3523  1.6747
18066SOL     OW63165   3.988  10.198   2.952 -0.0101 -0.3327 -0.1326
18066SOL    HW163166   3.955  10.180   3.040 -0.5509  0.5794 -0.1431
18066SOL    HW263167   4.083  10.195   2.961 -0.0685 -1.0178  0.3117
18067SOL     OW63168   2.749   1.166  11.688 -0.2004  0.0977  0.0754
18067SOL    HW163169   2.667   1.136  11.727  1.1225  0.4899  3.5725
18067SOL    HW263170   2.729   1.253  11.652 -1.4324 -0.0691  0.3358
18068SOL     OW63171   3.713  12.507   6.615 -0.0848  0.1724 -0.2554
18068SOL    HW163172   3.798  12.474   6.586  0.5296  1.5195 -0.0621
18068SOL    HW263173   3.731  12.597   6.644 -1.2523 -0.0774  1.3779
18069SOL     OW63174  11.176   8.263   4.857 -0.6099  0.1229  0.0659
18069SOL    HW163175  11.088   8.227   4.870 -0.8745  0.4966 -0.6682
18069SOL    HW263176  11.214   8.207   4.789 -0.1451 -0.2486  0.6141
18070SOL     OW63177   1.722   9.025   2.594  0.5730 -0.8065 -0.0890
18070SOL    HW163178   1.726   9.081   2.517 -0.2657 -0.0365  0.3985
18070SOL    HW263179   1.643   8.972   2.581  0.5074 -0.7725  0.1654
18071SOL     OW63180   4.296   2.503  12.215 -0.5512 -0.0094 -0.2053
18071SOL    HW163181   4.342   2.554  12.282  0.0734 -0.4739 -0.2612
18071SOL    HW263182   4.366   2.475  12.155 -1.0347 -0.0162 -0.7723
18072SOL     OW63183   5.371   2.903   2.816  0.5716  0.5558  0.0490
18072SOL    HW163184   5.293   2.884   2.765  0.0256  1.0683  0.6726
18072SOL    HW263185   5.442   2.906   2.752  0.1102 -0.0428 -0.5050
18073SOL     OW63186   2.581  11.652  10.045  0.0114  0.2545  0.4002
18073SOL    HW163187   2.547  11.682  10.129 -2.4732  0.6503 -0.6462
18073SOL    HW263188   2.589  11.557  10.054  1.3206  0.4383  1.5390
18074SOL     OW63189   1.772   1.777   4.606  0.5904  0.2650 -0.0553
18074SOL    HW163190   1.764   1.807   4.516  0.1122 -1.6504 -0.6991
18074SOL    HW263191   1.866   1.778   4.624  0.8061 -0.7019 -1.0802
18075SOL     OW63192  11.305   3.662   1.216 -0.5984  0.4547 -0.0440
18075SOL    HW163193  11.299   3.576   1.258  1.3796 -0.1113 -0.7678
18075SOL    HW263194  11.290   3.725   1.286 -0.3077 -0.4848  0.8897
18076SOL     OW63195   7.216   6.484   2.132  0.9670 -0.1780  0.7363
18076SOL    HW163196   7.300   6.463   2.172  0.4305 -0.6006  1.6789
18076SOL    HW263197   7.179   6.399   2.107 -0.3386 -0.2931  2.7689
18077SOL     OW63198   4.363   9.838   9.407  0.0492  0.4312  0.2796
18077SOL    HW163199   4.455   9.837   9.435  0.4348  0.5505 -0.9602
18077SOL    HW263200   4.330   9.751   9.430  0.7597  0.0264 -0.1909
18078SOL     OW63201   6.869  12.553   5.261 -0.4676  0.2690 -0.0713
18078SOL    HW163202   6.834  12.563   5.172 -0.0839 -1.6350 -0.4689
18078SOL    HW263203   6.805  12.498   5.306  0.2638 -0.3283  0.2618
18079SOL     OW63204  11.935   7.436  10.914  0.1153 -0.1590 -0.2367
18079SOL    HW163205  12.025   7.423  10.944  0.2440 -0.5527 -0.7941
18079SOL    HW263206  11.942   7.501  10.844 -0.0796  0.0783 -0.0380
18080SOL     OW63207  10.165   7.315   2.600  0.2426 -0.5624  0.3371
18080SOL    HW163208  10.178   7.311   2.505  0.4986  1.2868  0.2675
18080SOL    HW263209  10.081   7.272   2.615  0.8191 -2.0884 -0.5421
18081SOL     OW63210   5.895   8.951   9.260 -0.1147  0.2277 -0.3982
18081SOL    HW163211   5.950   8.952   9.338  1.4527  0.0997 -1.4543
18081SOL    HW263212   5.809   8.980   9.291  0.0031 -1.4059  1.6681
18082SOL     OW63213   4.606  11.258   4.214 -0.0080  0.1224 -0.1773
18082SOL    HW163214   4.651  11.278   4.296 -1.0057  0.2428  0.3542
18082SOL    HW263215   4.597  11.163   4.214 -1.1297  0.2124  0.4780
18083SOL     OW63216   4.354   5.884   0.971 -0.0354 -0.3447 -0.5563
18083SOL    HW163217   4.414   5.937   1.023 -1.2499 -0.6297  1.2444
18083SOL    HW263218   4.293   5.946   0.933 -1.8440 -0.3637  2.0644
18084SOL     OW63219  11.369   3.757  10.474 -0.8171 -0.3454  0.4563
18084SOL    HW163220  11.309   3.831  10.471 -3.9189 -2.5919  0.8674
18084SOL    HW263221  11.336   3.697  10.407  2.2939 -0.9619 -0.6941
18085SOL     OW63222  12.061   6.619   7.767 -0.2624 -0.6461  0.4373
18085SOL    HW163223  12.089   6.611   7.676  1.7940 -0.0882  0.9791
18085SOL    HW263224  11.968   6.596   7.765  0.0735 -2.1186 -1.5624
18086SOL     OW63225   6.065   3.913   4.659 -0.2142 -0.1513 -0.0243
18086SOL    HW163226   6.048   3.879   4.747 -0.2772  1.2083  0.5186
18086SOL    HW263227   6.059   4.008   4.669  1.5801  0.1235 -1.1069
18087SOL     OW63228   4.029  12.043  12.086 -0.0419 -1.0375 -0.7082
18087SOL    HW163229   3.949  12.042  12.033  0.3380 -2.1372 -1.2729
18087SOL    HW263230   4.049  11.951  12.102  1.5515 -0.8122 -1.2430
18088SOL     OW63231  12.285  12.132   7.179 -0.1316 -0.2175 -0.1289
18088SOL    HW163232  12.349  12.065   7.201 -2.5494 -2.4320  0.7858
18088SOL    HW263233  12.256  12.167   7.264 -0.4065  0.4816 -0.4945
18089SOL     OW63234   1.586   1.521   5.811  0.0694  0.0226 -0.3043
18089SOL    HW163235   1.669   1.528   5.764  0.6374  3.8017  0.9189
18089SOL    HW263236   1.608   1.477   5.893  0.5676 -0.2357 -0.5782
18090SOL     OW63237   9.259   2.816   2.977 -0.2431 -0.2666  0.0683
18090SOL    HW163238   9.276   2.722   2.973 -0.4243 -0.2774 -2.8150
18090SOL    HW263239   9.183   2.824   3.035 -0.5672 -1.9743 -0.0545
18091SOL     OW63240  11.594   3.171   9.935 -0.4174  0.5984 -0.0417
18091SOL    HW163241  11.541   3.156   9.857  1.0125 -1.3454 -0.6972
18091SOL    HW263242  11.684   3.160   9.906  0.1839  0.5340  1.7346
18092SOL     OW63243   4.023  10.042  10.727 -0.8962 -0.1881 -0.3415
18092SOL    HW163244   3.989  10.120  10.684  1.5574  0.8120 -0.5987
18092SOL    HW263245   4.112  10.065  10.754  1.2712 -3.8586 -3.3705
18093SOL     OW63246   9.365   3.492   5.879 -0.8182  0.0309  0.3572
18093SOL    HW163247   9.381   3.553   5.806  0.6891 -0.4112  0.2910
18093SOL    HW263248   9.335   3.548   5.951 -0.8137  0.6721 -0.1282
18094SOL     OW63249   9.110   6.900   1.119 -0.5146 -0.1773  0.2419
18094SOL    HW163250   9.065   6.857   1.192 -0.4301 -0.3097  0.2151
18094SOL    HW263251   9.085   6.849   1.042 -1.1212  0.3432  0.0888
18095SOL     OW63252   8.325   6.110  11.757  0.1346 -0.1908  0.6114
18095SOL    HW163253   8.251   6.155  11.716  0.5378  1.0565  1.1899
18095SOL    HW263254   8.324   6.023  11.718 -1.9713 -0.4108  1.0293
18096SOL     OW63255  10.363   8.170   1.734 -0.3990  0.3947 -0.1435
18096SOL    HW163256  10.449   8.208   1.714  0.5309 -0.4987  1.8358
18096SOL    HW263257  10.354   8.098   1.672  0.2097  0.6268 -0.5061
18097SOL     OW63258  10.147   2.991   7.630  0.6542 -0.0725  0.1800
18097SOL    HW163259  10.091   2.974   7.707 -1.4108 -0.3265 -1.2872
18097SOL    HW263260  10.151   3.086   7.624 -0.8154 -0.0263 -0.4660
18098SOL     OW63261   3.401  11.948   3.332 -0.3404 -0.6284  0.7994
18098SOL    HW163262   3.334  11.929   3.398 -0.3443  0.9121  1.3030
18098SOL    HW263263   3.419  12.042   3.344  0.1302 -0.4620 -0.9732
18099SOL     OW63264   5.651   7.858   3.141  0.0777 -0.3409  0.0614
18099SOL    HW163265   5.690   7.785   3.190  0.5302  0.5323  1.0498
18099SOL    HW263266   5.703   7.864   3.062  0.3621 -0.7705  0.2088
18100SOL     OW63267   6.275   0.985   8.992 -0.5086 -0.3344  0.2256
18100SOL    HW163268   6.267   0.991   8.897  0.1610  1.2093  0.2342
18100SOL    HW263269   6.229   0.905   9.015  0.0160 -1.1854 -1.4833
18101SOL     OW63270   6.943   9.612   7.636  0.6753 -0.3135 -0.4385
18101SOL    HW163271   7.021   9.663   7.658 -0.4112  0.4352  2.0230
18101SOL    HW263272   6.916   9.645   7.550  1.6159  1.2593 -0.1673
18102SOL     OW63273   7.543   6.629  10.884 -0.3514 -0.2645  0.6125
18102SOL    HW163274   7.590   6.712  10.875  1.2525 -1.0572  1.3344
18102SOL    HW263275   7.607   6.569  10.921 -1.4294 -1.8948 -0.0530
18103SOL     OW63276   2.669   0.727  10.587  0.2416  0.3100  0.3580
18103SOL    HW163277   2.714   0.777  10.518 -0.4846  0.1644 -0.2292
18103SOL    HW263278   2.713   0.642  10.587 -1.8174 -0.9013 -2.2176
18104SOL     OW63279   3.514   7.002  11.994  0.0729 -0.6555 -0.1066
18104SOL    HW163280   3.519   7.082  11.941 -2.5597 -0.5331 -0.2561
18104SOL    HW263281   3.576   7.019  12.066 -0.5763  1.6551  0.0111
18105SOL     OW63282   7.762   6.638   6.497  0.5952 -0.3741 -0.1379
18105SOL    HW163283   7.845   6.686   6.506 -0.7362  1.8234  1.4099
18105SOL    HW263284   7.714   6.685   6.429 -0.6109  0.4212  1.1925
18106SOL     OW63285   6.349   5.653  11.875 -0.3834  0.0775  0.3110
18106SOL    HW163286   6.309   5.603  11.804 -1.3019 -0.1041  0.9482
18106SOL    HW263287   6.443   5.635  11.866 -0.2243  1.6543 -2.0837
18107SOL     OW63288   5.085   1.855   4.389 -0.1474 -0.2975  0.8555
18107SOL    HW163289   5.097   1.770   4.432 -1.8429 -1.1448 -0.2724
18107SOL    HW263290   4.996   1.881   4.411 -0.0180  0.6738  0.2800
18108SOL     OW63291   7.968   0.026   8.542 -0.0514 -0.3116  0.2962
18108SOL    HW163292   7.919   0.053   8.464 -1.3243 -1.2276  0.7389
18108SOL    HW263293   7.939   0.086   8.611  0.1073 -0.2954  0.3486
18109SOL     OW63294   8.172  12.585  11.165  0.2772  0.2263 -0.1723
18109SOL    HW163295   8.247  12.640  11.138  0.4669 -0.5469 -1.2841
18109SOL    HW263296   8.193  12.498  11.132 -0.7077 -0.2074  0.3072
18110SOL     OW63297  12.332   0.456   4.801  0.0634 -0.0573 -0.3113
18110SOL    HW163298  12.353   0.503   4.882 -1.7308  1.6474 -0.7470
18110SOL    HW263299  12.399   0.389   4.794  2.9551  2.5305  0.2844
18111SOL     OW63300   7.426   6.921  12.015  0.3205  1.0580  0.2477
18111SOL    HW163301   7.384   6.916  11.929  0.1146  3.3990  0.1542
18111SOL    HW263302   7.353   6.936  12.076  0.2173 -2.3907  1.1942
18112SOL     OW63303   7.952   8.644   0.728 -0.4392 -0.5962  0.3439
18112SOL    HW163304   8.032   8.658   0.679  0.5636 -0.2727  1.9966
18112SOL    HW263305   7.942   8.549   0.731 -1.0250 -0.6162 -1.2091
18113SOL     OW63306   7.570   5.907   6.352 -0.2952 -0.6723 -0.1729
18113SOL    HW163307   7.518   5.987   6.341 -0.5465 -0.8028  0.0534
18113SOL    HW263308   7.522   5.856   6.417  1.6624  0.5635  2.4419
18114SOL     OW63309   1.450  12.159   5.896  0.1500  0.7603  0.7264
18114SOL    HW163310   1.498  12.234   5.863  1.3726  0.5700  1.9829
18114SOL    HW263311   1.504  12.124   5.967  0.0573 -1.8137 -0.3405
18115SOL     OW63312   6.219  11.402  11.952  0.1062  0.5242 -0.0361
18115SOL    HW163313   6.169  11.385  12.031  2.0688 -1.5869  0.8603
18115SOL    HW263314   6.274  11.325  11.940 -0.1415  0.6972 -3.5488
18116SOL     OW63315  12.416   9.633   5.188  0.3701  0.2074 -0.3113
18116SOL    HW163316  12.353   9.698   5.158  0.6466  0.6505  0.0548
18116SOL    HW263317  12.492   9.646   5.132  0.0435 -0.5110 -0.9351
18117SOL     OW63318   4.979   0.730  11.249 -0.2326  0.4879  0.1876
18117SOL    HW163319   4.957   0.823  11.243  2.1154  1.1170  0.3878
18117SOL    HW263320   5.017   0.720  11.336  0.9288 -0.3158 -0.3881
18118SOL     OW63321   3.602   9.731   3.146 -0.0164 -0.5141  0.6040
18118SOL    HW163322   3.663   9.756   3.077 -2.8964  0.6956 -1.7163
18118SOL    HW263323   3.595   9.809   3.201  0.2737 -0.5645  0.7174
18119SOL     OW63324   6.883   2.516   5.521 -0.0135 -0.0218 -0.2079
18119SOL    HW163325   6.838   2.489   5.601 -0.0350 -1.1859 -0.6002
18119SOL    HW263326   6.817   2.566   5.472 -0.5394 -0.7903 -0.2883
18120SOL     OW63327   6.747   4.690   0.158 -0.4980 -0.1862 -0.0254
18120SOL    HW163328   6.755   4.726   0.247 -0.3497  0.5793 -0.3453
18120SOL    HW263329   6.692   4.753   0.112 -1.2974 -1.0213 -0.2464
18121SOL     OW63330   0.444   9.557   3.617  0.1644 -0.0602 -0.3057
18121SOL    HW163331   0.494   9.586   3.540  0.1259 -0.8148 -0.6201
18121SOL    HW263332   0.375   9.502   3.581 -1.2649  1.4270  0.0749
18122SOL     OW63333   5.466   7.408   7.117  0.6363 -0.5936 -0.2663
18122SOL    HW163334   5.427   7.471   7.056  2.5240 -2.1565 -3.3872
18122SOL    HW263335   5.462   7.451   7.202  0.6156  3.1475 -1.9408
18123SOL     OW63336   9.213   6.299   6.949 -0.4259 -0.0804 -0.6233
18123SOL    HW163337   9.299   6.340   6.947 -0.8295  0.7980 -0.1208
18123SOL    HW263338   9.193   6.281   6.857 -0.1726  0.6931 -0.8341
18124SOL     OW63339   0.060   2.823   6.490  0.4448  0.2252 -0.2161
18124SOL    HW163340   0.131   2.808   6.552 -0.1028  0.0913  0.3837
18124SOL    HW263341   0.057   2.918   6.480  1.2077  0.1946 -0.8414
18125SOL     OW63342  11.229   0.410   5.100  0.1679 -0.0454 -0.2552
18125SOL    HW163343  11.231   0.492   5.050  1.4979 -0.2344 -0.5511
18125SOL    HW263344  11.199   0.344   5.037 -0.3952  0.1147 -0.1599
18126SOL     OW63345   4.996   0.557   0.678 -0.0216 -0.4776  0.2701
18126SOL    HW163346   5.043   0.557   0.595  0.5985 -0.1035  0.6139
18126SOL    HW263347   4.985   0.464   0.699  0.1184 -0.5697 -0.0566
18127SOL     OW63348   5.778  11.556   8.749 -0.1167  0.1841  0.1259
18127SOL    HW163349   5.740  11.580   8.664 -0.2135 -1.4050 -0.3195
18127SOL    HW263350   5.705  11.519   8.798  0.1311  0.2884  0.5785
18128SOL     OW63351   3.292   4.197   0.701  0.3858  0.5341  0.3793
18128SOL    HW163352   3.295   4.104   0.720  0.6537  0.8327  1.9133
18128SOL    HW263353   3.224   4.232   0.760 -2.5089  0.7908 -2.7613
18129SOL     OW63354   9.372  10.791  11.717  0.2457 -0.6505 -0.4064
18129SOL    HW163355   9.384  10.714  11.661 -0.8045 -2.5236  1.8214
18129SOL    HW263356   9.281  10.816  11.704 -0.1699 -1.4549  0.8580
18130SOL     OW63357   0.581  11.253   4.821 -0.0258 -0.3607  0.1861
18130SOL    HW163358   0.552  11.329   4.871 -0.3195 -1.0391  1.0817
18130SOL    HW263359   0.639  11.288   4.754 -1.7199  0.8775 -0.6982
18131SOL     OW63360   7.137   5.064   6.197  0.0347  0.2271 -0.1351
18131SOL    HW163361   7.055   5.016   6.207  0.7142 -2.4041 -4.4822
18131SOL    HW263362   7.116   5.139   6.142  0.4140 -0.3378 -1.0856
18132SOL     OW63363   8.230   8.631   1.024  0.0020 -0.0385  0.2117
18132SOL    HW163364   8.236   8.718   0.985 -2.7639  0.7204  1.2751
18132SOL    HW263365   8.276   8.639   1.107  1.0454 -0.0697 -0.3419
18133SOL     OW63366   9.449   9.650   3.310  0.0581  0.5158  0.4513
18133SOL    HW163367   9.373   9.592   3.302 -0.7636  1.4280  1.3208
18133SOL    HW263368   9.461   9.684   3.221 -0.9167  0.7736  0.3976
18134SOL     OW63369   1.845   9.540   6.706 -0.1425 -0.3213 -0.2221
18134SOL    HW163370   1.934   9.568   6.687 -0.8859  1.2004 -1.7155
18134SOL    HW263371   1.808   9.611   6.758 -0.8669 -0.2868 -0.7606
18135SOL     OW63372   2.906  12.003   4.187  0.3292  0.7759 -0.0140
18135SOL    HW163373   2.974  12.044   4.133  0.4612  0.5362 -0.0301
18135SOL    HW263374   2.904  12.056   4.267  0.0671  1.1917 -0.2882
18136SOL     OW63375   6.895   1.861   7.991  0.1953  0.6135 -0.2516
18136SOL    HW163376   6.894   1.770   7.961 -0.2031  0.8643 -1.0183
18136SOL    HW263377   6.829   1.863   8.061 -0.9244  0.6457 -1.2794
18137SOL     OW63378   0.908   0.873   8.488  0.1398 -0.2079  0.9294
18137SOL    HW163379   0.866   0.932   8.550  0.0733  2.2757 -1.2964
18137SOL    HW263380   0.845   0.863   8.417  1.3431 -0.5066 -0.1373
18138SOL     OW63381   7.304   5.598   2.230 -0.4689 -0.1891  0.3253
18138SOL    HW163382   7.221   5.596   2.279 -0.5380  0.6361  0.2461
18138SOL    HW263383   7.287   5.657   2.157 -0.1545 -0.8913 -0.3261
18139SOL     OW63384  10.612   8.901  10.492 -0.2462 -0.0496 -0.6505
18139SOL    HW163385  10.621   8.811  10.460  2.5023  0.2132 -0.8768
18139SOL    HW263386  10.522   8.925  10.471 -0.9238 -2.5826 -0.9725
18140SOL     OW63387   2.970  10.899   1.443 -0.1135 -0.3912  0.2176
18140SOL    HW163388   3.056  10.858   1.428  0.8989  1.2045  1.4181
18140SOL    HW263389   2.951  10.943   1.360  0.7811  0.1890  0.3041
18141SOL     OW63390   9.379   3.902   7.174  0.2225 -0.0883 -0.4884
18141SOL    HW163391   9.424   3.986   7.185  0.0742 -0.2191  1.4271
18141SOL    HW263392   9.290   3.925   7.150 -0.4819  0.4827  2.2806
18142SOL     OW63393  10.037   1.039   4.425 -0.0726 -0.0585  0.1611
18142SOL    HW163394  10.020   0.946   4.436  0.5525 -0.1457  0.4647
18142SOL    HW263395  10.100   1.060   4.495 -0.6190  0.7068  0.4458
18143SOL     OW63396   0.312   3.028   2.808 -0.4366 -0.1919 -0.4615
18143SOL    HW163397   0.396   3.068   2.784 -0.1816 -1.0498 -1.0572
18143SOL    HW263398   0.261   3.030   2.728 -0.2045 -1.5673 -0.6585
18144SOL     OW63399   0.869   0.686   9.576  0.0424 -1.1135  0.2920
18144SOL    HW163400   0.875   0.591   9.587 -1.6790 -1.4099 -0.9841
18144SOL    HW263401   0.788   0.709   9.622  0.1238 -0.3644  0.0586
18145SOL     OW63402   8.841   1.780   3.205  0.0460 -0.3998 -0.1636
18145SOL    HW163403   8.903   1.750   3.138  1.2355 -1.0295  1.1746
18145SOL    HW263404   8.758   1.740   3.180  0.6433 -1.2703 -0.8385
18146SOL     OW63405   6.699   0.416  11.413 -0.0599 -0.2240 -0.3064
18146SOL    HW163406   6.619   0.459  11.444  0.2982 -0.4871  1.0530
18146SOL    HW263407   6.770   0.477  11.435  0.2454 -0.6027 -0.2221
18147SOL     OW63408   1.448   8.123   8.731 -0.0868 -0.0270  0.3382
18147SOL    HW163409   1.381   8.065   8.768 -1.5179  1.5899  0.3953
18147SOL    HW263410   1.425   8.210   8.763  2.6174  0.5090  1.1280
18148SOL     OW63411   0.120   3.034   8.302  0.3712 -0.2387  0.7287
18148SOL    HW163412   0.144   3.027   8.394  2.2567 -2.6535  0.1461
18148SOL    HW263413   0.192   3.082   8.262 -0.1625  0.2937  0.3929
18149SOL     OW63414   2.394   1.967   6.101  0.0865 -0.2313 -0.2636
18149SOL    HW163415   2.425   2.055   6.121  0.9753 -0.3749 -0.9118
18149SOL    HW263416   2.364   1.932   6.185  1.0965  0.1623  0.2807
18150SOL     OW63417  11.115   2.526   7.603  0.1733  0.2535 -0.2042
18150SOL    HW163418  11.066   2.555   7.680 -0.8064  3.5006 -1.8465
18150SOL    HW263419  11.207   2.535   7.628 -0.1195 -0.2014  1.0634
18151SOL     OW63420   5.456   2.015   1.336  0.2342  0.2148  0.3858
18151SOL    HW163421   5.438   2.077   1.265 -2.7071 -0.1351  0.7128
18151SOL    HW263422   5.466   2.071   1.413 -1.4780  0.3695  0.5191
18152SOL     OW63423   0.510   0.912   1.927  0.0855  0.3769  0.0401
18152SOL    HW163424   0.566   0.848   1.972  0.0528  0.7353  0.6104
18152SOL    HW263425   0.421   0.888   1.952 -0.3458 -1.9493 -3.1041
18153SOL     OW63426   2.803   5.310   5.014  0.1198 -0.5496 -0.1162
18153SOL    HW163427   2.866   5.368   5.056  0.9178 -0.7247 -1.0513
18153SOL    HW263428   2.792   5.238   5.076 -0.4760  0.3160  0.8166
18154SOL     OW63429   5.556  12.152  11.269  0.2272 -0.4821  0.3926
18154SOL    HW163430   5.611  12.224  11.239  0.9763 -0.8501  0.8389
18154SOL    HW263431   5.467  12.175  11.241  0.6460 -0.0138 -0.6009
18155SOL     OW63432   1.786   0.579  12.508 -0.2032  0.5319 -0.0247
18155SOL    HW163433   1.866   0.549  12.550 -0.1141  0.7517 -0.0373
18155SOL    HW263434   1.769   0.665  12.547 -0.1471  0.7148 -0.4053
18156SOL     OW63435   3.930   9.554   8.870  0.2218 -0.1130 -0.2301
18156SOL    HW163436   3.899   9.634   8.913 -0.2394  0.1793 -1.0844
18156SOL    HW263437   3.861   9.533   8.808  0.8168 -0.6082 -0.7270
18157SOL     OW63438   5.594  11.306   3.175 -0.0386 -0.2050  0.0364
18157SOL    HW163439   5.613  11.380   3.233 -0.3583  0.1299 -0.2756
18157SOL    HW263440   5.514  11.332   3.129  1.5013  0.6465 -2.3469
18158SOL     OW63441   8.437   8.970   7.658 -0.1565  0.2687  0.3454
18158SOL    HW163442   8.474   8.959   7.745 -0.3229 -1.4879  0.2355
18158SOL    HW263443   8.344   8.984   7.673 -0.5667 -2.0820  0.4619
18159SOL     OW63444   8.861   0.082  10.102  0.5569  0.2374  0.1202
18159SOL    HW163445   8.955   0.100  10.101  0.6361 -0.1360 -1.9739
18159SOL    HW263446   8.821   0.169  10.098  0.7295  0.5023  2.5568
18160SOL     OW63447   8.709   3.262   6.113  0.0361  0.1012  0.6682
18160SOL    HW163448   8.724   3.356   6.105 -1.9319  0.5060  1.2160
18160SOL    HW263449   8.725   3.228   6.024  1.2382  0.8463  0.5764
18161SOL     OW63450   9.589  11.573   2.546 -0.2109  0.4582  0.1305
18161SOL    HW163451   9.574  11.611   2.460  0.9007 -1.8871 -1.2123
18161SOL    HW263452   9.607  11.648   2.603 -1.1085  2.0848 -1.6100
18162SOL     OW63453   5.370  11.802  12.366  0.1503 -0.7926 -0.5232
18162SOL    HW163454   5.449  11.787  12.313  0.2506 -1.9853 -0.0708
18162SOL    HW263455   5.321  11.720  12.359 -0.0561 -0.8072  0.8588
18163SOL     OW63456   8.236   9.285   2.436  0.0185 -0.4231  0.2531
18163SOL    HW163457   8.272   9.226   2.370  0.4625  1.6383 -1.4721
18163SOL    HW263458   8.172   9.337   2.388  1.1213  1.8893  1.1639
18164SOL     OW63459   8.684   9.287  11.465 -0.1324 -0.2964 -0.1506
18164SOL    HW163460   8.659   9.196  11.481  0.1053 -0.2836  0.3272
18164SOL    HW263461   8.672   9.330  11.550  0.7170 -0.1067 -0.1189
18165SOL     OW63462  11.607  10.249   5.284  0.1085 -0.0122  0.5132
18165SOL    HW163463  11.524  10.217   5.321 -0.8690  0.6521 -0.9792
18165SOL    HW263464  11.661  10.171   5.276 -1.3368 -0.9498 -0.8308
18166SOL     OW63465   8.723   5.576  11.611  0.1943  0.6106  0.5881
18166SOL    HW163466   8.728   5.544  11.521 -1.4137 -1.4626  1.1325
18166SOL    HW263467   8.777   5.516  11.661  0.5903  1.3773  1.0996
18167SOL     OW63468  12.510  12.161   5.125  0.2052  0.2528 -0.2243
18167SOL    HW163469  12.600  12.136   5.145  0.6497  1.5484 -0.5086
18167SOL    HW263470  12.517  12.213   5.045 -0.2819  3.3474  1.5724
18168SOL     OW63471   8.111   4.372   8.350  0.0584 -0.4360  0.2444
18168SOL    HW163472   8.169   4.340   8.281 -1.5419  0.4764 -1.5849
18168SOL    HW263473   8.045   4.303   8.359 -1.5941  0.8244 -1.4988
18169SOL     OW63474   3.449  11.054   2.642  0.4033 -0.2081 -0.3069
18169SOL    HW163475   3.427  10.998   2.716 -1.0603 -0.2416 -0.7258
18169SOL    HW263476   3.526  11.014   2.603 -0.2245 -1.5818 -0.2157
18170SOL     OW63477   3.429   6.759   4.364 -0.3178  0.3143  0.2414
18170SOL    HW163478   3.445   6.827   4.429 -0.6764 -0.6138  1.3530
18170SOL    HW263479   3.512   6.711   4.359 -1.0418 -1.2535  2.0608
18171SOL     OW63480   5.558   2.021   4.709 -0.0702  0.0455 -0.2045
18171SOL    HW163481   5.652   2.030   4.722 -0.0742  0.4727 -0.4472
18171SOL    HW263482   5.540   2.070   4.629 -0.6004  0.5243  0.2036
18172SOL     OW63483   5.927   2.579  11.951 -0.5889  0.4089 -0.2153
18172SOL    HW163484   5.978   2.632  12.012  2.2259 -0.7519 -1.3789
18172SOL    HW263485   5.878   2.518  12.007  0.6587  0.4216  0.9374
18173SOL     OW63486   0.135   7.047  11.735 -0.4960 -0.2115 -0.1275
18173SOL    HW163487   0.158   7.090  11.653 -0.7732  1.6075  0.6864
18173SOL    HW263488   0.039   7.045  11.735 -0.6420  2.2702  1.2473
18174SOL     OW63489  11.883   8.392   8.956  0.1554 -0.4456  0.2475
18174SOL    HW163490  11.840   8.368   8.873 -1.4749 -0.8008  1.1570
18174SOL    HW263491  11.910   8.308   8.993  0.5521 -0.3140  0.2577
18175SOL     OW63492  11.311   9.431   7.730  0.4731  0.6335  0.2216
18175SOL    HW163493  11.260   9.387   7.798  0.5282 -0.2376 -0.2767
18175SOL    HW263494  11.245   9.458   7.665  0.4837  0.8919  0.3203
18176SOL     OW63495   0.276   4.473   6.408 -0.1784 -0.2634 -0.2402
18176SOL    HW163496   0.230   4.392   6.382 -0.2879 -0.5717  0.8533
18176SOL    HW263497   0.337   4.445   6.476  0.7864  0.3583 -0.8277
18177SOL     OW63498   2.401   1.606   4.958 -0.4221 -0.1672  0.0667
18177SOL    HW163499   2.489   1.597   4.993 -1.1963 -1.5816  1.8552
18177SOL    HW263500   2.413   1.620   4.865  1.6733 -0.4517  0.2487
18178SOL     OW63501   5.368   2.343   2.293  0.2904  0.4807 -0.3914
18178SOL    HW163502   5.426   2.379   2.225  1.6020  0.4618  0.6862
18178SOL    HW263503   5.281   2.345   2.253  1.1556 -0.5303 -2.4808
18179SOL     OW63504   3.008   9.769  11.050 -0.3424  0.1225 -0.1493
18179SOL    HW163505   3.015   9.833  11.121  0.7359  2.1658 -1.9795
18179SOL    HW263506   2.988   9.686  11.094  3.1649  0.6159  2.8776
18180SOL     OW63507   1.221   2.824   7.345 -0.4326  0.1134 -0.2652
18180SOL    HW163508   1.309   2.809   7.311  0.2513 -0.6066  1.6914
18180SOL    HW263509   1.222   2.915   7.374  0.4131 -0.4476  1.6482
18181SOL     OW63510   2.656   2.038   0.255 -0.4671 -0.6972  0.3891
18181SOL    HW163511   2.584   2.006   0.201  0.0416 -3.0578  0.9618
18181SOL    HW263512   2.725   2.061   0.193 -1.3140  0.5567 -0.1095
18182SOL     OW63513  10.771   0.830   4.483  0.1762  0.0225 -0.1238
18182SOL    HW163514  10.766   0.880   4.565  1.1583 -1.6593  1.0257
18182SOL    HW263515  10.689   0.781   4.480  0.1179  0.1235 -0.1655
18183SOL     OW63516   8.440  10.955   3.426  0.3470  0.3565 -0.1893
18183SOL    HW163517   8.399  11.040   3.441  0.7751  0.8529 -1.6922
18183SOL    HW263518   8.415  10.932   3.337 -1.1531 -1.9122  0.7297
18184SOL     OW63519   5.198   0.537  12.241  0.0080 -0.4308  0.2259
18184SOL    HW163520   5.247   0.616  12.259  0.1885 -0.0180 -1.8305
18184SOL    HW263521   5.215   0.480  12.316  0.0989  1.3406  1.6003
18185SOL     OW63522   0.099  10.880   4.973  0.2221 -0.2697  0.1077
18185SOL    HW163523   0.170  10.849   4.917  1.4031  0.3088  1.2224
18185SOL    HW263524   0.133  10.961   5.011 -0.6185 -0.5214  1.4643
18186SOL     OW63525   2.578   8.853   3.936  0.0337  0.7366 -0.2390
18186SOL    HW163526   2.493   8.892   3.914  0.3153  0.4279 -2.0058
18186SOL    HW263527   2.628   8.926   3.974 -0.7491  1.0965  0.1326
18187SOL     OW63528   0.971   7.889   3.880  0.0670 -0.0014 -0.3207
18187SOL    HW163529   1.060   7.887   3.845 -0.3666 -1.9928 -1.4507
18187SOL    HW263530   0.926   7.956   3.828  0.3919 -0.4083 -1.1410
18188SOL     OW63531  10.122   6.101  10.272 -0.1941 -0.9581 -0.6639
18188SOL    HW163532  10.114   6.194  10.289  0.6474 -1.0629  0.4280
18188SOL    HW263533  10.082   6.088  10.186 -2.2757  0.0487  0.0853
18189SOL     OW63534   1.755  10.400   2.270  0.0727 -0.2813 -0.4197
18189SOL    HW163535   1.810  10.393   2.348  1.2139  0.3313 -1.1495
18189SOL    HW263536   1.690  10.330   2.281 -0.9709  0.9264  1.9621
18190SOL     OW63537  12.273   4.390   3.100  0.0596  0.1128 -0.3168
18190SOL    HW163538  12.196   4.349   3.061  0.8528 -2.2090  0.4146
18190SOL    HW263539  12.344   4.371   3.039  0.6484 -0.6062  0.5683
18191SOL     OW63540  12.271   1.152   5.098  0.1868 -0.1367 -0.3718
18191SOL    HW163541  12.216   1.148   5.176 -1.2114  0.1222 -1.3181
18191SOL    HW263542  12.337   1.218   5.119 -1.6976  1.8583 -0.3175
18192SOL     OW63543   9.663   2.065   8.485  0.1556 -0.8781  0.3222
18192SOL    HW163544   9.734   2.002   8.480 -1.6534 -2.9392 -1.0075
18192SOL    HW263545   9.624   2.051   8.571 -1.3254 -2.9455 -0.6037
18193SOL     OW63546   1.075   3.211   7.967  0.1699  0.2016  0.5330
18193SOL    HW163547   1.105   3.298   7.941  0.4180  0.7454  2.4927
18193SOL    HW263548   1.026   3.179   7.891  3.5924  0.2489 -1.9460
18194SOL     OW63549   9.147   3.672   3.591  0.1390  0.0982  0.5325
18194SOL    HW163550   9.180   3.582   3.594  0.6415  0.3002  1.2858
18194SOL    HW263551   9.138   3.697   3.683 -1.9777  0.1050  0.3821
18195SOL     OW63552   0.229   5.730   8.395 -0.1352 -0.5074  0.6532
18195SOL    HW163553   0.184   5.719   8.479 -0.3991  0.9056  0.7069
18195SOL    HW263554   0.215   5.647   8.350 -0.6769 -0.9886  1.6704
18196SOL     OW63555   9.229   4.470   0.893  0.3987 -0.5932  0.3348
18196SOL    HW163556   9.227   4.496   0.801 -0.8428  2.3928  1.0832
18196SOL    HW263557   9.178   4.389   0.897  0.0048 -0.4681 -1.5065
18197SOL     OW63558  10.631   1.275   0.280 -0.2283  0.4191 -0.2601
18197SOL    HW163559  10.714   1.293   0.324 -0.7986  1.1896  0.5390
18197SOL    HW263560  10.630   1.180   0.268  0.4001  0.3044  0.4783
18198SOL     OW63561   9.336  11.646   0.349  0.0015  0.3000  0.4861
18198SOL    HW163562   9.273  11.695   0.297  0.3477 -0.1413 -0.3624
18198SOL    HW263563   9.311  11.554   0.338 -0.4061  0.2312  1.7498
18199SOL     OW63564   7.564  11.645   9.634 -0.0932  0.4226  0.7050
18199SOL    HW163565   7.627  11.610   9.571 -0.2883  0.6567  0.3765
18199SOL    HW263566   7.483  11.654   9.585 -0.4317 -0.0365  1.1705
18200SOL     OW63567   5.732  10.271   5.477  0.1595  0.4347  0.0690
18200SOL    HW163568   5.743  10.326   5.554  0.1766  0.7883 -0.1812
18200SOL    HW263569   5.805  10.296   5.419 -0.1831  0.5898 -0.3036
18201SOL     OW63570   4.502   4.924   1.129  0.1090  0.1546  0.1555
18201SOL    HW163571   4.537   5.013   1.137  0.3380 -0.0515  1.8228
18201SOL    HW263572   4.433   4.919   1.195 -0.4460 -0.6723 -0.4634
18202SOL     OW63573  12.171   3.688   4.262 -0.6413 -0.4649  0.0857
18202SOL    HW163574  12.135   3.661   4.346  0.0022 -1.3697  0.0770
18202SOL    HW263575  12.123   3.768   4.240 -1.2070 -0.5346  1.0374
18203SOL     OW63576   1.817  11.131   3.924 -0.1848  0.0644 -0.3742
18203SOL    HW163577   1.761  11.057   3.901 -0.5345  0.0791  0.3968
18203SOL    HW263578   1.806  11.193   3.852  1.5679 -1.4068 -1.9726
18204SOL     OW63579   3.934  11.465  11.782 -0.1580  0.3945 -0.4404
18204SOL    HW163580   3.957  11.557  11.769  0.6338  0.3034  0.2264
18204SOL    HW263581   3.911  11.459  11.875 -1.5207  0.1822 -0.7740
18205SOL     OW63582   0.340   3.986   4.633  0.4501  0.5455 -0.3361
18205SOL    HW163583   0.305   3.911   4.585  0.4590  0.5463 -0.3439
18205SOL    HW263584   0.265   4.044   4.644  0.2017  0.0726  0.5755
18206SOL     OW63585   6.465   9.758   0.401 -0.6133 -0.1339  0.5538
18206SOL    HW163586   6.378   9.765   0.362  0.0923  1.1403 -0.9303
18206SOL    HW263587   6.523   9.799   0.337  1.2726 -2.0320  0.9118
18207SOL     OW63588   7.576   8.863   2.709  0.2309 -0.0249  0.5283
18207SOL    HW163589   7.536   8.879   2.794  1.5411  0.2734  1.1076
18207SOL    HW263590   7.502   8.842   2.652 -0.7660  0.6878  1.5104
18208SOL     OW63591   0.946   7.689   8.577  0.4472  0.6261  0.5155
18208SOL    HW163592   1.040   7.694   8.596  0.3184  0.0404  1.3773
18208SOL    HW263593   0.908   7.758   8.630  0.5878  2.3157 -1.4661
18209SOL     OW63594   1.922   4.449   2.929 -0.1985  0.0925  0.3646
18209SOL    HW163595   1.933   4.391   3.004  2.4313  0.8982  0.7208
18209SOL    HW263596   1.935   4.392   2.853 -1.0198 -0.3835  0.5760
18210SOL     OW63597   5.866  10.338  10.038  0.6024 -0.0265  0.2360
18210SOL    HW163598   5.915  10.274  10.089  2.4891 -0.1124 -1.5709
18210SOL    HW263599   5.860  10.300   9.951 -0.7367  1.0239 -0.1696
18211SOL     OW63600   0.302   1.720   0.953 -0.1690  0.6956  0.1605
18211SOL    HW163601   0.238   1.649   0.952 -0.0904  0.6231  0.2324
18211SOL    HW263602   0.255   1.796   0.920 -0.1171  0.4912 -0.3841
18212SOL     OW63603   4.712   5.048   8.188  0.3540  0.2682 -0.2564
18212SOL    HW163604   4.617   5.038   8.180  0.2968 -0.0734  0.7721
18212SOL    HW263605   4.728   5.140   8.168 -0.5668  1.1440  2.5916
18213SOL     OW63606   6.117   0.925  10.432  0.2020 -1.0899  0.2451
18213SOL    HW163607   6.134   0.970  10.515  1.9454 -0.5835 -0.3490
18213SOL    HW263608   6.022   0.923  10.425  0.0566  0.4944  1.3737
18214SOL     OW63609  11.766   0.466   5.296 -0.2341 -0.0769 -0.0404
18214SOL    HW163610  11.773   0.388   5.350  0.0749 -0.1227 -0.1424
18214SOL    HW263611  11.774   0.434   5.206 -1.5546 -0.1004 -0.1692
18215SOL     OW63612   9.020  11.003   5.130 -0.0886  0.3194 -0.2124
18215SOL    HW163613   9.054  10.936   5.070  1.4646  0.9200 -0.0471
18215SOL    HW263614   8.928  11.013   5.105  0.2143 -0.3062 -1.6906
18216SOL     OW63615   5.600   3.867   1.488  0.2307 -0.1046 -0.4323
18216SOL    HW163616   5.659   3.821   1.547  0.6037  0.9643  0.0556
18216SOL    HW263617   5.513   3.851   1.525  0.3834 -0.1757 -0.0955
18217SOL     OW63618   4.417  11.154   2.124  0.0606 -0.0389  0.0222
18217SOL    HW163619   4.421  11.196   2.210  2.2871  2.3045 -1.1014
18217SOL    HW263620   4.324  11.155   2.102 -0.2460  2.2251  1.0951
18218SOL     OW63621   6.854   6.276   3.586  0.3098  0.0560 -0.6723
18218SOL    HW163622   6.827   6.363   3.615  1.7309 -0.4497  2.6841
18218SOL    HW263623   6.948   6.285   3.570  0.7333 -1.0459  0.9374
18219SOL     OW63624   5.798   7.201   9.737  0.2631  0.4256  0.3155
18219SOL    HW163625   5.849   7.135   9.692  1.3092 -0.0335  2.0957
18219SOL    HW263626   5.709   7.165   9.739  0.4813 -0.1578 -0.1492
18220SOL     OW63627   4.792   4.745   4.833 -0.0441 -0.2808 -0.0245
18220SOL    HW163628   4.869   4.739   4.889  0.6727  0.8145 -0.8347
18220SOL    HW263629   4.756   4.656   4.830  0.5399 -0.5804  1.2378
18221SOL     OW63630   2.334   1.307   0.600 -0.5001  0.1449  0.2258
18221SOL    HW163631   2.265   1.283   0.661 -1.8495  2.6094 -0.2199
18221SOL    HW263632   2.289   1.353   0.529  1.3323 -0.3263 -1.3301
18222SOL     OW63633   8.729   7.345   1.997  0.0726  0.1214 -0.4368
18222SOL    HW163634   8.647   7.295   2.003 -1.1401  1.9726 -0.8526
18222SOL    HW263635   8.790   7.298   2.054 -1.9108 -0.1283  1.6292
18223SOL     OW63636   3.163   3.214   7.739  0.2277  0.3177  0.1286
18223SOL    HW163637   3.196   3.169   7.816 -0.3683 -0.9294 -0.3177
18223SOL    HW263638   3.231   3.202   7.673  2.0279  3.6743  1.1145
18224SOL     OW63639   3.766  12.576   4.301  1.0207  0.2910 -0.4647
18224SOL    HW163640   3.822  12.618   4.236  1.5633  2.1550  1.1377
18224SOL    HW263641   3.822  12.513   4.345  1.2981  0.6830 -0.2549
18225SOL     OW63642   0.021   1.517   0.125 -0.1577  0.6545 -0.2733
18225SOL    HW163643   0.029   1.431   0.168 -2.3857  0.3639 -0.3542
18225SOL    HW263644  -0.062   1.513   0.078  0.2646  2.4650 -1.2540
18226SOL     OW63645   7.863   7.901   3.466  0.2669  0.0959 -0.1455
18226SOL    HW163646   7.941   7.867   3.509  0.1570  0.3451  0.2502
18226SOL    HW263647   7.798   7.910   3.536 -0.3832 -0.8849 -0.6012
18227SOL     OW63648   5.939   5.953  12.299  0.3824  0.0529 -0.2229
18227SOL    HW163649   5.844   5.937  12.296 -0.1538  2.6278  0.4477
18227SOL    HW263650   5.959   5.992  12.214  0.6330  0.4164 -0.0001
18228SOL     OW63651   0.051   7.381   2.785  0.1254 -0.2167  0.4187
18228SOL    HW163652   0.135   7.420   2.761 -0.1062  0.2675  0.3886
18228SOL    HW263653   0.060   7.288   2.763  0.0608  0.1376 -1.1740
18229SOL     OW63654  11.955   2.837   7.557 -0.1047  0.0428  0.2675
18229SOL    HW163655  11.905   2.855   7.637 -1.9605 -1.4033 -0.4816
18229SOL    HW263656  11.898   2.867   7.486 -0.4419 -2.5242 -0.6645
18230SOL     OW63657   4.746  10.553   8.842  0.3230  0.8387 -0.0388
18230SOL    HW163658   4.680  10.486   8.860 -0.8988  2.1047  0.3415
18230SOL    HW263659   4.745  10.609   8.919  1.7950  0.9433 -0.0754
18231SOL     OW63660   6.848  11.334   1.627  0.4819 -0.2112 -0.5357
18231SOL    HW163661   6.794  11.330   1.706  0.0720  0.2665 -0.7882
18231SOL    HW263662   6.796  11.290   1.560 -0.3032  1.5947 -1.1713
18232SOL     OW63663  10.623   1.083   6.490  0.6841  0.1558 -0.3014
18232SOL    HW163664  10.621   1.005   6.546  0.1771  2.0737  2.5512
18232SOL    HW263665  10.533   1.114   6.489  1.3260  2.3060  1.1810
18233SOL     OW63666   5.015   1.674   4.610  0.2666  0.8325 -0.3418
18233SOL    HW163667   5.035   1.584   4.583 -2.8139 -0.3493  0.8156
18233SOL    HW263668   5.088   1.699   4.665  0.4566 -1.6673  0.6859
18234SOL     OW63669  11.750   5.134   6.714 -0.1178 -0.1255 -0.2692
18234SOL    HW163670  11.665   5.174   6.699  0.0105 -0.3705 -1.7380
18234SOL    HW263671  11.814   5.200   6.688  0.1245 -0.4238 -0.4462
18235SOL     OW63672   1.191  11.910   7.798 -0.3018  0.2776 -0.1656
18235SOL    HW163673   1.131  11.927   7.871 -0.8515  0.5396 -0.6679
18235SOL    HW263674   1.213  11.998   7.765  0.8259  0.2205  0.3735
18236SOL     OW63675   9.487  11.553   3.995 -1.0564  0.4445  0.4600
18236SOL    HW163676   9.440  11.516   3.920  0.3388 -2.5173  0.9346
18236SOL    HW263677   9.577  11.523   3.985 -0.0362  2.8020  1.5989
18237SOL     OW63678   6.004   1.978   1.729 -0.5800 -0.6867  0.1932
18237SOL    HW163679   5.911   1.976   1.752  0.1503  1.0188  4.0639
18237SOL    HW263680   6.023   2.071   1.716  0.8423 -0.8497  0.9316
18238SOL     OW63681   9.944   6.708   8.971 -0.2517  0.2517  0.9262
18238SOL    HW163682   9.870   6.655   8.942 -0.2205  0.6079  0.1642
18238SOL    HW263683  10.020   6.665   8.930  0.0292 -0.3818  2.0707
18239SOL     OW63684   4.407   9.650   0.553  0.0277  0.0347 -0.5731
18239SOL    HW163685   4.493   9.675   0.520  0.0935 -0.9027 -1.1495
18239SOL    HW263686   4.383   9.572   0.503 -1.1437  0.2571 -0.3959
18240SOL     OW63687  10.788   1.968   8.930 -0.5014  0.0991  0.0918
18240SOL    HW163688  10.786   2.058   8.962 -0.2264  0.5541 -1.1265
18240SOL    HW263689  10.810   1.975   8.837  0.0213 -1.2488  0.0790
18241SOL     OW63690  11.436   8.428   6.500 -0.6729 -0.2080  0.4412
18241SOL    HW163691  11.451   8.416   6.594 -2.5986  0.0465  0.8170
18241SOL    HW263692  11.353   8.474   6.494 -1.3562 -1.5420 -1.4224
18242SOL     OW63693  11.251   3.574   0.162  0.4745 -0.3572  0.0829
18242SOL    HW163694  11.205   3.618   0.090 -1.5516  0.2538  1.6452
18242SOL    HW263695  11.278   3.646   0.220  1.5660 -0.8773  0.2451
18243SOL     OW63696   7.405   0.569   1.469 -0.1495 -0.0963  0.0533
18243SOL    HW163697   7.496   0.570   1.438  0.5363  0.6757  1.9335
18243SOL    HW263698   7.379   0.661   1.469 -0.9302 -0.3131 -0.4443
18244SOL     OW63699   8.215   5.701   1.549 -0.3359  0.0101  0.5694
18244SOL    HW163700   8.195   5.794   1.552  0.0190  0.1026  0.1348
18244SOL    HW263701   8.234   5.677   1.640 -2.2898 -0.0628  0.9927
18245SOL     OW63702   2.831  12.480   3.989 -0.9824  0.2647  0.1790
18245SOL    HW163703   2.767  12.515   4.050 -1.1775 -0.2592  0.2788
18245SOL    HW263704   2.915  12.491   4.033 -0.9921  0.9606  0.0446
18246SOL     OW63705   4.401   8.339   7.137 -0.1970 -0.0882 -0.2284
18246SOL    HW163706   4.402   8.435   7.127  0.5247 -0.2429 -2.2182
18246SOL    HW263707   4.371   8.308   7.051  1.7914 -1.7014 -0.4023
18247SOL     OW63708  10.196   4.697   7.630 -0.2471 -1.0249 -0.3814
18247SOL    HW163709  10.144   4.669   7.706 -0.7629  0.7569 -0.0148
18247SOL    HW263710  10.131   4.722   7.565  0.1148  0.5342 -0.1868
18248SOL     OW63711   3.218   7.009   7.592  0.2599  0.5131  0.9467
18248SOL    HW163712   3.151   7.073   7.616 -2.5290 -1.6435 -0.4517
18248SOL    HW263713   3.220   6.948   7.665 -1.4919 -0.9842 -0.1803
18249SOL     OW63714  11.190   3.812   0.617 -0.7218  0.4539  0.8574
18249SOL    HW163715  11.108   3.787   0.659 -3.1009  2.4138 -2.2159
18249SOL    HW263716  11.167   3.829   0.526  3.0044  1.6776 -0.0428
18250SOL     OW63717   0.750   1.667   8.034 -0.4791 -0.2034 -0.2285
18250SOL    HW163718   0.801   1.587   8.027 -3.1305 -2.3763  2.5763
18250SOL    HW263719   0.690   1.665   7.959 -0.6883 -0.9936 -0.0469
18251SOL     OW63720   0.387   2.518   7.106 -0.6920  0.7145  0.3877
18251SOL    HW163721   0.423   2.595   7.152  0.4393  0.8886 -0.7339
18251SOL    HW263722   0.463   2.478   7.065 -1.0503 -1.7373  1.9206
18252SOL     OW63723   4.217   2.347  10.288  0.0620  0.6630 -0.8929
18252SOL    HW163724   4.159   2.292  10.341 -1.1134  1.9047 -0.8328
18252SOL    HW263725   4.195   2.436  10.314  1.6403  1.2006 -1.2770
18253SOL     OW63726   7.579   7.563   6.897 -0.3111 -0.0359 -0.1077
18253SOL    HW163727   7.511   7.573   6.830  0.4130  1.8196 -0.6274
18253SOL    HW263728   7.549   7.489   6.950 -1.7669 -0.4821 -1.4450
18254SOL     OW63729   7.863  10.834   7.362 -0.4765  0.0503 -0.0556
18254SOL    HW163730   7.854  10.804   7.452  0.0176 -1.5172 -0.4949
18254SOL    HW263731   7.774  10.828   7.326 -0.4777 -0.3581  0.0154
18255SOL     OW63732   5.626   8.402   0.170  0.2258 -0.1395  0.2531
18255SOL    HW163733   5.543   8.407   0.123  0.3612 -1.1283 -0.1035
18255SOL    HW263734   5.691   8.440   0.111 -0.0136  0.9148  0.6541
18256SOL     OW63735  10.914   0.619   3.626 -0.7307  0.0572 -0.0416
18256SOL    HW163736  10.922   0.530   3.660 -1.4651 -0.3315 -0.8485
18256SOL    HW263737  10.979   0.624   3.556 -0.4133  0.3015  0.2608
18257SOL     OW63738   1.276   9.387   6.314 -0.0933  0.4913  0.2423
18257SOL    HW163739   1.366   9.412   6.336  0.5645 -0.9630 -0.6870
18257SOL    HW263740   1.260   9.427   6.229 -0.4010  0.9077  0.4944
18258SOL     OW63741  10.370   0.273   6.284 -0.2023  0.7014  0.7409
18258SOL    HW163742  10.275   0.258   6.276 -0.1108  0.2375  0.5067
18258SOL    HW263743  10.407   0.233   6.206  0.3445 -0.5568  1.6063
18259SOL     OW63744   7.166  10.731   4.242 -0.0057  0.3677  0.2548
18259SOL    HW163745   7.246  10.745   4.191  1.2522 -1.3614  1.6243
18259SOL    HW263746   7.128  10.651   4.206 -0.9237  0.9784 -0.1431
18260SOL     OW63747  10.312  10.677  10.980 -0.6611 -0.3305 -0.2020
18260SOL    HW163748  10.401  10.662  10.945 -0.9746 -0.5080 -0.9448
18260SOL    HW263749  10.262  10.601  10.951 -1.3234  0.2855 -0.7343
18261SOL     OW63750  12.303  10.088  10.012 -0.3824 -0.4067  0.2606
18261SOL    HW163751  12.384  10.043   9.987 -0.3652  0.7128 -1.8976
18261SOL    HW263752  12.264  10.116   9.929 -2.1125  0.6095  1.3478
18262SOL     OW63753   1.591   1.286   9.219 -0.3553 -0.5247 -0.0130
18262SOL    HW163754   1.596   1.191   9.205 -0.6038 -0.3863 -1.1934
18262SOL    HW263755   1.499   1.307   9.203  0.1293  0.2245 -2.1866
18263SOL     OW63756   3.273   3.194   5.826  0.3389  0.0608  0.2052
18263SOL    HW163757   3.212   3.245   5.772  0.0209 -0.1219  0.3916
18263SOL    HW263758   3.230   3.186   5.910 -0.6255 -2.3482 -0.4331
18264SOL     OW63759   1.913   2.414   5.494  0.2284  0.4349 -0.0582
18264SOL    HW163760   1.918   2.431   5.400 -1.3583  0.4143 -0.1796
18264SOL    HW263761   1.872   2.328   5.501 -0.5816  0.8510  0.6394
18265SOL     OW63762   6.605   6.659   2.066  0.0029  0.2941  0.0730
18265SOL    HW163763   6.542   6.601   2.022  1.0461 -1.8114  1.1943
18265SOL    HW263764   6.554   6.699   2.137 -0.7016  0.6867 -0.6337
18266SOL     OW63765   7.822   3.019   0.706  0.3899  0.4656  0.0956
18266SOL    HW163766   7.913   3.011   0.734  0.0913 -1.3611  0.6793
18266SOL    HW263767   7.813   2.954   0.636 -0.8000 -0.3895  1.0149
18267SOL     OW63768   2.792   9.252  11.857 -0.2854 -0.4016  0.2841
18267SOL    HW163769   2.817   9.191  11.788 -0.7128  0.3090 -0.5232
18267SOL    HW263770   2.874   9.273  11.902  0.3478  0.6082 -1.2613
18268SOL     OW63771   5.555  11.305   2.488  0.3565  0.2825 -0.8238
18268SOL    HW163772   5.557  11.393   2.524  1.4485 -0.0809  0.0544
18268SOL    HW263773   5.552  11.318   2.393 -1.7271  1.2531 -0.6752
18269SOL     OW63774   8.768   2.213   9.124  0.6043  0.0509  0.3319
18269SOL    HW163775   8.848   2.208   9.072 -0.0536 -0.5784 -0.6344
18269SOL    HW263776   8.743   2.306   9.120  0.7405  0.0648 -0.1874
18270SOL     OW63777   5.971   1.173   0.599  0.5302  0.7258 -0.8902
18270SOL    HW163778   5.952   1.091   0.645  0.0166  1.0930 -0.4279
18270SOL    HW263779   5.894   1.188   0.544  0.2667  1.3029 -0.3688
18271SOL     OW63780   0.706   1.778   7.558  0.9543 -0.3159 -0.4478
18271SOL    HW163781   0.624   1.743   7.523  0.3932 -0.0152  0.5184
18271SOL    HW263782   0.693   1.872   7.559 -0.1658 -0.3561  2.9992
18272SOL     OW63783   7.284   9.527   2.649  0.0867  0.1545  0.2246
18272SOL    HW163784   7.230   9.449   2.664  1.4627 -0.5022  2.2143
18272SOL    HW263785   7.286   9.536   2.553 -0.0441 -2.3207 -0.0952
18273SOL     OW63786   8.621   3.929   7.837 -0.3538  0.8847  0.0129
18273SOL    HW163787   8.661   4.016   7.833 -0.6973  1.2248  2.6050
18273SOL    HW263788   8.677   3.879   7.895 -2.0771  0.5306  1.4826
18274SOL     OW63789   9.413   1.669  11.641 -0.1811  0.4290 -0.1224
18274SOL    HW163790   9.463   1.750  11.646 -0.8155  0.7997  0.4110
18274SOL    HW263791   9.323   1.697  11.624 -0.7872 -0.0251  2.0670
18275SOL     OW63792  10.412   9.393   1.402 -0.4861  0.0758 -0.1492
18275SOL    HW163793  10.359   9.461   1.443 -1.0865 -0.3324 -0.2387
18275SOL    HW263794  10.470   9.363   1.472 -0.0391  0.8442 -0.1764
18276SOL     OW63795   0.366   5.176   2.532  0.3946  0.1972  0.7105
18276SOL    HW163796   0.442   5.138   2.576 -0.6912 -1.4871  1.1886
18276SOL    HW263797   0.388   5.172   2.439  1.4606  1.0525  0.8996
18277SOL     OW63798   7.135   4.353  12.392  0.6077 -0.1112  0.1052
18277SOL    HW163799   7.182   4.328  12.312  0.6615 -1.0410  0.4124
18277SOL    HW263800   7.094   4.437  12.371  0.7523 -0.2691 -0.8413
18278SOL     OW63801   4.164  11.223   4.413  0.2199 -0.1156 -0.0366
18278SOL    HW163802   4.245  11.248   4.457 -0.1173 -2.3643  2.0696
18278SOL    HW263803   4.185  11.142   4.367 -0.2663  0.5658 -1.5353
18279SOL     OW63804  12.154   9.436  11.217  0.3101 -0.2136  0.4576
18279SOL    HW163805  12.228   9.458  11.160 -2.2825  1.2610 -2.6428
18279SOL    HW263806  12.114   9.359  11.176 -0.1212 -0.7766  1.8703
18280SOL     OW63807  11.592   9.003   9.347  0.1962 -0.7837  0.0999
18280SOL    HW163808  11.622   8.934   9.405 -0.4706 -1.8908 -0.8276
18280SOL    HW263809  11.643   8.991   9.267 -0.2488 -0.4909 -0.2324
18281SOL     OW63810   9.581  11.813   6.112 -0.1563 -0.5674 -0.0844
18281SOL    HW163811   9.662  11.862   6.122  0.3839 -1.6774  1.3129
18281SOL    HW263812   9.538  11.853   6.037  1.2677  0.6080 -0.3179
18282SOL     OW63813   1.860   1.411  10.733  0.1559 -0.5218  0.0797
18282SOL    HW163814   1.815   1.495  10.726 -0.4539 -0.7841  0.7978
18282SOL    HW263815   1.865   1.392  10.826  1.0965 -0.8648 -0.0212
18283SOL     OW63816   9.395   5.053   1.371  0.3128  0.2690 -0.3362
18283SOL    HW163817   9.405   4.988   1.440 -1.4180 -0.5309 -0.7731
18283SOL    HW263818   9.414   5.137   1.414  0.5267 -0.3358  0.7805
18284SOL     OW63819   8.734   5.837   6.554  0.4546 -0.3339  0.2191
18284SOL    HW163820   8.766   5.791   6.632  0.1654 -1.0350 -0.0610
18284SOL    HW263821   8.798   5.815   6.486 -0.3062 -1.3074 -0.2116
18285SOL     OW63822   0.298   1.244   0.753 -0.2570 -0.0727 -0.9442
18285SOL    HW163823   0.217   1.259   0.704 -0.1652 -1.1136 -1.4367
18285SOL    HW263824   0.368   1.269   0.693 -0.0920 -2.4256 -1.8454
18286SOL     OW63825   2.965   9.391   3.190 -0.8542  0.3125  0.2639
18286SOL    HW163826   2.932   9.301   3.190 -0.1245  0.0296 -0.4599
18286SOL    HW263827   2.990   9.408   3.280 -4.2017  1.0313  1.1851
18287SOL     OW63828   3.586   2.810   3.599 -0.3117 -1.0589 -0.1849
18287SOL    HW163829   3.619   2.864   3.527 -2.2249  0.1885 -0.1839
18287SOL    HW263830   3.591   2.720   3.566  2.0738 -0.8633 -0.5255
18288SOL     OW63831   2.295  12.527   0.396 -0.2507 -0.2696 -0.4320
18288SOL    HW163832   2.343  12.445   0.385 -0.0813 -0.0834 -1.1639
18288SOL    HW263833   2.331  12.566   0.475 -0.9116 -1.2946  0.4005
18289SOL     OW63834   9.956  12.415   7.893  0.3588  0.0510 -0.2237
18289SOL    HW163835   9.987  12.330   7.925  0.1468  0.2960  0.6455
18289SOL    HW263836  10.005  12.480   7.942 -0.6963  0.4368  0.3586
18290SOL     OW63837   9.168   4.560  10.026 -0.3815  0.0363  0.0355
18290SOL    HW163838   9.083   4.555  10.068 -0.4508  1.0391  0.0344
18290SOL    HW263839   9.160   4.633   9.964 -0.3065 -1.4046 -1.7822
18291SOL     OW63840   8.444   4.455   8.368  0.1110 -0.4452  0.4092
18291SOL    HW163841   8.403   4.378   8.327 -2.0069  0.9486 -0.2068
18291SOL    HW263842   8.532   4.457   8.329 -0.7642 -0.9427 -1.7730
18292SOL     OW63843   8.559  12.565   2.213 -0.2893  0.3817  0.0948
18292SOL    HW163844   8.509  12.515   2.278  0.7148 -0.6300  0.1089
18292SOL    HW263845   8.551  12.514   2.132  0.6991  0.2103  0.0983
18293SOL     OW63846   8.217   2.824   9.599 -0.0058  0.1855 -0.6827
18293SOL    HW163847   8.231   2.887   9.669 -1.4288 -1.8448  1.6018
18293SOL    HW263848   8.137   2.852   9.555  0.4080  0.9831 -0.9359
18294SOL     OW63849   8.292   1.419  11.517  0.4002 -0.6889  0.0102
18294SOL    HW163850   8.322   1.495  11.467 -0.7347 -1.1014 -1.3766
18294SOL    HW263851   8.349   1.348  11.487 -1.6986 -1.4667 -2.6053
18295SOL     OW63852  11.246   5.584   1.262 -0.6323 -0.6825 -0.0279
18295SOL    HW163853  11.294   5.563   1.342 -1.0959  0.1133  0.4723
18295SOL    HW263854  11.300   5.651   1.219 -1.1738  0.0730  0.4399
18296SOL     OW63855   4.165  10.806  10.961 -0.2494  0.3743  0.0447
18296SOL    HW163856   4.167  10.712  10.980 -2.4936  0.1293 -0.6886
18296SOL    HW263857   4.243  10.841  11.005  0.6082 -1.8065  0.3705
18297SOL     OW63858   8.295  11.782  12.408 -0.1214  0.2464  0.5437
18297SOL    HW163859   8.242  11.709  12.442 -2.2271 -0.4969 -3.6013
18297SOL    HW263860   8.233  11.834  12.356  2.6404  0.9032 -2.4143
18298SOL     OW63861  11.155   0.918   9.270  0.4071 -0.0482  0.0028
18298SOL    HW163862  11.108   0.903   9.352 -0.8466  2.1346 -0.2131
18298SOL    HW263863  11.129   0.844   9.214 -1.3476  0.1114  0.5262
18299SOL     OW63864  11.225   4.792   9.300  0.1911  0.0061  0.3027
18299SOL    HW163865  11.283   4.831   9.234  0.1621  1.0877  0.8890
18299SOL    HW263866  11.169   4.732   9.250  1.1786 -0.3431 -0.4110
18300SOL     OW63867   7.926   2.086   6.961  0.1484 -0.5619 -0.3762
18300SOL    HW163868   7.923   2.145   7.036 -1.8233  0.4220 -1.1784
18300SOL    HW263869   7.888   2.004   6.994 -3.0253  0.6103 -0.8394
18301SOL     OW63870   4.896   4.114  11.657 -0.0132 -0.1476 -0.5720
18301SOL    HW163871   4.881   4.160  11.740 -4.7467  1.7609 -2.1032
18301SOL    HW263872   4.922   4.183  11.596 -1.5441 -0.5166 -1.6948
18302SOL     OW63873   9.182   6.366   9.388 -0.1330  0.0930  0.3180
18302SOL    HW163874   9.245   6.348   9.458  0.8165  2.6621  0.2439
18302SOL    HW263875   9.153   6.280   9.359  1.1735 -1.1067  2.3132
18303SOL     OW63876   9.767  11.470   8.249  0.2410 -0.0530 -0.0146
18303SOL    HW163877   9.743  11.486   8.157 -1.8270 -1.7105  0.1424
18303SOL    HW263878   9.748  11.553   8.293 -0.2345  0.2915 -0.8359
18304SOL     OW63879   8.359   5.001   5.697  0.3289  0.2787 -0.5360
18304SOL    HW163880   8.444   5.002   5.654 -0.2542 -0.5860 -1.7445
18304SOL    HW263881   8.301   5.048   5.637 -0.1066  0.6893  0.1883
18305SOL     OW63882   5.910   5.565   8.209  0.1680 -0.9132 -0.3445
18305SOL    HW163883   5.854   5.612   8.272 -1.9430 -2.4528 -0.9457
18305SOL    HW263884   5.955   5.499   8.262 -0.8530 -1.5640 -0.2538
18306SOL     OW63885   3.872   5.533   5.049  0.1939  0.6065 -0.3540
18306SOL    HW163886   3.806   5.530   4.980 -1.2744 -1.4798  1.0177
18306SOL    HW263887   3.952   5.498   5.008 -0.8086 -1.1738 -0.8761
18307SOL     OW63888   5.593   2.863   6.470 -0.3559 -0.5035  0.1010
18307SOL    HW163889   5.644   2.938   6.439 -0.2590 -0.3898  0.5308
18307SOL    HW263890   5.510   2.901   6.499  0.1908 -0.3697  1.5702
18308SOL     OW63891   9.358   5.302   7.419  0.3716 -0.3510 -0.5030
18308SOL    HW163892   9.342   5.364   7.348 -0.0865 -0.5487 -0.5764
18308SOL    HW263893   9.310   5.223   7.393 -1.1199  0.0902  0.7489
18309SOL     OW63894  12.100   5.579   8.621  0.2328  0.1923 -0.6127
18309SOL    HW163895  12.153   5.521   8.676 -0.7254  1.1359  1.4242
18309SOL    HW263896  12.106   5.664   8.663  0.2110  1.2155 -2.5659
18310SOL     OW63897   2.316   5.256   0.957  1.0193 -0.1826  0.5260
18310SOL    HW163898   2.285   5.196   0.889 -0.7622  0.1938  0.9572
18310SOL    HW263899   2.400   5.218   0.985  0.6872 -1.6152 -0.2727
18311SOL     OW63900   3.632   2.259  10.976  0.1536 -0.3969  0.7028
18311SOL    HW163901   3.638   2.164  10.975  2.5340 -0.3174  1.3453
18311SOL    HW263902   3.658   2.285  11.064  0.7552  0.8731  0.1902
18312SOL     OW63903  11.878   7.435   2.073 -0.1757 -0.0609 -0.0383
18312SOL    HW163904  11.900   7.392   1.990 -1.4766 -0.5447 -0.1503
18312SOL    HW263905  11.818   7.506   2.048  0.9105  1.0102  0.2946
18313SOL     OW63906   7.825  12.011  12.198 -0.2814  0.3185  0.3394
18313SOL    HW163907   7.908  12.056  12.180  1.4299 -1.9607  1.9239
18313SOL    HW263908   7.768  12.080  12.232  0.8033  2.0280 -1.0945
18314SOL     OW63909   8.195   8.069   4.023 -0.4536 -0.0529  0.7131
18314SOL    HW163910   8.170   8.140   3.964 -1.3060 -1.5385 -0.8029
18314SOL    HW263911   8.189   8.107   4.110 -4.8597  0.7368  0.3078
18315SOL     OW63912   0.861   6.949   1.229  0.1780  0.4094 -0.0864
18315SOL    HW163913   0.791   6.963   1.292 -0.1386 -1.9454  0.1644
18315SOL    HW263914   0.836   7.002   1.154 -1.8936 -0.3180  0.0156
18316SOL     OW63915   2.949   6.822   3.883  0.0883 -0.4660  0.3450
18316SOL    HW163916   3.020   6.762   3.902  0.5066  0.1022  0.5877
18316SOL    HW263917   2.971   6.902   3.929  0.3722  0.4413 -1.2822
18317SOL     OW63918   6.048  11.503   6.574  0.1357  0.6178 -0.8109
18317SOL    HW163919   6.045  11.595   6.599  0.0153  0.2763  0.4992
18317SOL    HW263920   5.958  11.472   6.585  0.3041  0.1870 -0.6258
18318SOL     OW63921   1.391   9.404   2.838  0.3508 -0.0200  0.4209
18318SOL    HW163922   1.394   9.462   2.914 -2.1830  1.2463 -0.3542
18318SOL    HW263923   1.330   9.334   2.864 -0.7887  0.5963 -0.5050
18319SOL     OW63924  10.384   1.161  11.031 -0.3381  0.0645 -0.0783
18319SOL    HW163925  10.453   1.197  10.975  0.0244 -0.7492 -0.1759
18319SOL    HW263926  10.315   1.135  10.970  0.2622 -1.2738 -0.2174
18320SOL     OW63927   3.122   5.296   6.926 -0.3337  0.1988 -0.1786
18320SOL    HW163928   3.170   5.378   6.914 -1.3327  1.2078  2.1759
18320SOL    HW263929   3.101   5.268   6.836  0.1486  2.4406 -1.0686
18321SOL     OW63930   4.958  10.920   8.805  0.6242 -0.2869  0.0123
18321SOL    HW163931   4.878  10.971   8.801  0.9608  0.5281  2.5423
18321SOL    HW263932   4.954  10.875   8.889  2.6047 -0.5960 -0.0159
18322SOL     OW63933   1.371   0.135   0.028 -0.1613 -0.7135 -0.1727
18322SOL    HW163934   1.427   0.134  -0.050  0.6389 -0.1235  0.3738
18322SOL    HW263935   1.424   0.092   0.096 -1.5746 -2.9398 -0.3985
18323SOL     OW63936   9.840  11.381  12.193  0.4462 -0.3758 -0.7185
18323SOL    HW163937   9.875  11.384  12.282 -1.1498  1.3840 -0.0818
18323SOL    HW263938   9.917  11.391  12.137  1.6637 -2.8601  0.3416
18324SOL     OW63939   9.718   3.921   8.374  0.3284  0.4417 -0.0671
18324SOL    HW163940   9.632   3.918   8.332 -0.2671 -1.0221  1.1680
18324SOL    HW263941   9.722   4.008   8.414 -1.1296  0.0943  0.9009
18325SOL     OW63942   9.835   7.345   2.230  0.6457  0.1328  0.0663
18325SOL    HW163943   9.744   7.350   2.198  0.5189  2.1855  0.6101
18325SOL    HW263944   9.843   7.255   2.263 -1.1579 -0.1318 -0.0672
18326SOL     OW63945   5.302   4.540   0.820 -0.1063 -0.0905 -0.1519
18326SOL    HW163946   5.225   4.483   0.816 -0.4806  0.2591  1.2592
18326SOL    HW263947   5.376   4.481   0.806 -0.5250 -0.8398  0.6291
18327SOL     OW63948   4.702   7.671   5.145 -0.1033 -0.6090  0.1453
18327SOL    HW163949   4.767   7.632   5.086  0.4210  0.0889  0.2452
18327SOL    HW263950   4.754   7.710   5.215 -0.6294 -0.0249  0.2192
18328SOL     OW63951   2.746   9.422   1.547 -0.1884 -0.3270 -0.3822
18328SOL    HW163952   2.769   9.338   1.588 -1.5418  0.0085  1.1692
18328SOL    HW263953   2.650   9.421   1.543 -0.2364  1.1925 -0.1840
18329SOL     OW63954   3.632   0.260  12.474 -0.1493  0.7799 -0.4429
18329SOL    HW163955   3.723   0.260  12.505 -0.9282 -2.9558  2.4905
18329SOL    HW263956   3.636   0.214  12.390  0.6220  0.5666 -0.3014
18330SOL     OW63957  10.317   9.472  11.882  0.3990  0.0910 -0.1649
18330SOL    HW163958  10.268   9.526  11.944  0.7125  0.1197  0.0621
18330SOL    HW263959  10.404   9.512  11.879 -0.1291  1.2316 -2.0481
18331SOL     OW63960   4.913   1.399   7.116 -0.4849 -0.1502 -0.5699
18331SOL    HW163961   4.944   1.309   7.105 -0.6429 -0.0231 -2.4378
18331SOL    HW263962   4.896   1.407   7.210  0.0412 -1.8912 -0.2798
18332SOL     OW63963   1.903   4.662  11.206  0.2134  0.0791  0.6791
18332SOL    HW163964   1.916   4.726  11.276  0.3644  0.4109  0.3542
18332SOL    HW263965   1.873   4.583  11.250 -2.3109  1.0610  0.8995
18333SOL     OW63966   6.562   1.666   3.125 -0.1754 -0.4703  0.6977
18333SOL    HW163967   6.602   1.610   3.192  0.3997 -1.4104 -0.4130
18333SOL    HW263968   6.521   1.737   3.175  1.0545 -0.6390  1.9904
18334SOL     OW63969   9.095   4.077   9.887 -0.1269  0.1196  0.2149
18334SOL    HW163970   9.144   4.076   9.970 -0.0372  1.2689  0.1890
18334SOL    HW263971   9.157   4.112   9.823 -0.7923  1.0945  0.0762
18335SOL     OW63972   6.737   0.093   0.605  0.2696  0.1654  0.1525
18335SOL    HW163973   6.828   0.109   0.630  0.4853  1.3651 -1.2661
18335SOL    HW263974   6.739   0.088   0.509 -1.0714 -0.4866  0.1333
18336SOL     OW63975   8.721   8.679   8.590 -0.1946  0.1702  0.3614
18336SOL    HW163976   8.705   8.591   8.555  0.4974 -0.7861  2.2834
18336SOL    HW263977   8.652   8.733   8.552 -0.0113 -0.9476 -1.6965
18337SOL     OW63978   3.256   1.297   1.653  0.5824  0.3228 -0.1749
18337SOL    HW163979   3.285   1.309   1.563  0.4647 -1.0688 -0.4262
18337SOL    HW263980   3.178   1.241   1.646  0.1500  0.7847  0.7446
18338SOL     OW63981  10.840  11.407   4.577  0.0084  0.0014  0.0297
18338SOL    HW163982  10.770  11.352   4.611 -0.8447  0.0401 -1.5852
18338SOL    HW263983  10.915  11.348   4.571 -1.2153 -1.4198 -2.8582
18339SOL     OW63984   7.621  10.477   8.661  0.8200  0.2405  0.1567
18339SOL    HW163985   7.599  10.518   8.577  2.0331  1.2511  0.2977
18339SOL    HW263986   7.704  10.518   8.686  1.1770 -1.0496  1.1847
18340SOL     OW63987   3.975   8.682   4.295  0.1100 -0.0356  0.0791
18340SOL    HW163988   3.991   8.768   4.336 -1.4827  0.2824  0.1214
18340SOL    HW263989   4.021   8.686   4.211  1.1918  0.3273  0.6744
18341SOL     OW63990  10.000   9.988   1.095  0.0038 -0.4212 -0.0951
18341SOL    HW163991  10.069   9.953   1.039  0.2402 -1.2716  0.7075
18341SOL    HW263992   9.925  10.000   1.037  0.1720 -1.4999 -0.5548
18342SOL     OW63993   9.950   6.571  11.899  0.2679  0.2631 -0.6333
18342SOL    HW163994   9.993   6.620  11.970 -0.6866  0.8655 -0.4555
18342SOL    HW263995   9.951   6.631  11.824 -1.6603  0.9313 -0.1774
18343SOL     OW63996   2.851   1.090   8.744 -0.4722  0.3239 -0.3964
18343SOL    HW163997   2.787   1.060   8.679 -0.8302 -0.9089  0.4856
18343SOL    HW263998   2.848   1.185   8.739 -0.8353  0.2496 -1.8507
18344SOL     OW63999   4.565   3.288   2.999 -0.2490 -0.5400  0.2268
18344SOL    HW164000   4.551   3.197   2.976 -2.4682 -0.5384  1.2877
18344SOL    HW264001   4.659   3.295   3.013  0.1425 -2.3149 -1.1708
18345SOL     OW64002   8.772   9.080   1.826  0.3000  0.0690  0.1447
18345SOL    HW164003   8.751   9.036   1.744 -1.1505 -1.1434  1.0938
18345SOL    HW264004   8.840   9.025   1.866  2.7203  1.8926 -1.1826
18346SOL     OW64005   6.507  10.601   7.570  0.1611  0.1431  0.0746
18346SOL    HW164006   6.518  10.696   7.569  1.5934  0.0148 -2.1995
18346SOL    HW264007   6.415  10.587   7.550  0.1336  1.0432 -0.4530
18347SOL     OW64008   6.306   5.308   7.856 -0.0382  0.7916 -0.1216
18347SOL    HW164009   6.353   5.361   7.920 -0.3537  0.0179  0.7687
18347SOL    HW264010   6.374   5.274   7.798  0.2540  1.4410 -0.1683
18348SOL     OW64011   7.903   6.143   4.121  0.2336 -0.3210  0.0016
18348SOL    HW164012   7.889   6.164   4.029  1.6902  1.0692  0.0442
18348SOL    HW264013   7.990   6.102   4.123  0.1898 -0.3905  0.7559
18349SOL     OW64014   8.062   8.892   4.982 -0.0307  0.1023  0.1371
18349SOL    HW164015   8.155   8.883   5.003 -0.1432  1.2322  1.2223
18349SOL    HW264016   8.056   8.870   4.889  1.3775  0.3869 -0.0394
18350SOL     OW64017  10.419  12.520  10.489  0.4763 -1.0148 -0.4354
18350SOL    HW164018  10.382  12.583  10.427 -0.9256 -1.0107  0.3535
18350SOL    HW264019  10.393  12.435  10.456  1.5356 -1.1535 -0.9680
18351SOL     OW64020   6.618   0.213   9.059  0.0821 -0.2498  0.2967
18351SOL    HW164021   6.677   0.242   9.129  0.3292  1.5884 -0.5865
18351SOL    HW264022   6.676   0.191   8.987 -0.2522  0.6495 -0.2636
18352SOL     OW64023   6.337   7.581   0.055  0.3126  0.1367 -0.6729
18352SOL    HW164024   6.356   7.512  -0.009  0.7461 -0.9032  0.5282
18352SOL    HW264025   6.246   7.606   0.036 -0.5674 -2.1792  0.0679
18353SOL     OW64026   2.496   0.804  12.360  0.0994 -0.6722  0.2065
18353SOL    HW164027   2.462   0.830  12.275 -0.0872  0.3296  0.5771
18353SOL    HW264028   2.505   0.709  12.354 -2.6274 -0.9947  0.0291
18354SOL     OW64029  10.610   6.794  10.639  0.3085 -0.1763  0.1992
18354SOL    HW164030  10.593   6.866  10.699  0.9745  0.0159  0.1539
18354SOL    HW264031  10.627   6.719  10.696  0.6084 -0.0702  0.2503
18355SOL     OW64032  12.277  12.441   4.692  0.4121  0.2694  0.0443
18355SOL    HW164033  12.324  12.513   4.650  2.7249 -0.9275  0.4775
18355SOL    HW264034  12.241  12.390   4.620 -1.3021  1.7972 -0.2720
18356SOL     OW64035   4.030   5.526   7.504 -0.1611  0.0127  0.7554
18356SOL    HW164036   4.053   5.439   7.470 -0.2332 -0.0729  0.9185
18356SOL    HW264037   3.973   5.507   7.579  0.8812  0.1610  1.6105
18357SOL     OW64038  10.529   4.311   2.825  0.4875  0.5692 -0.4086
18357SOL    HW164039  10.448   4.362   2.826  1.0598  1.5077 -0.8415
18357SOL    HW264040  10.500   4.220   2.820 -0.5506  0.8421  0.3757
18358SOL     OW64041   8.412   5.319   7.378 -0.3195 -0.0479 -0.6232
18358SOL    HW164042   8.469   5.310   7.302  1.1163  1.6345  0.1862
18358SOL    HW264043   8.471   5.327   7.453 -1.6700 -0.5438  0.5563
18359SOL     OW64044   2.613   8.744   7.283  0.6710 -0.2085  0.3371
18359SOL    HW164045   2.656   8.658   7.275  1.0189 -0.1443  1.3874
18359SOL    HW264046   2.531   8.735   7.235  0.4085 -1.3376  0.9646
18360SOL     OW64047   8.717   2.710   3.130  0.4859  0.0881 -0.6440
18360SOL    HW164048   8.699   2.621   3.158  0.0581 -0.2725 -1.9591
18360SOL    HW264049   8.725   2.761   3.211  0.4788 -1.0894  0.1099
18361SOL     OW64050   5.230  12.312   3.570 -0.0313 -0.6118  0.2288
18361SOL    HW164051   5.296  12.376   3.599  0.2632 -1.3599  1.2920
18361SOL    HW264052   5.274  12.227   3.580 -1.8373 -1.3296  3.1742
18362SOL     OW64053  11.086   1.691   5.524  0.0444  0.0809 -0.1033
18362SOL    HW164054  11.156   1.634   5.557 -0.5597 -0.2722  0.5727
18362SOL    HW264055  11.006   1.656   5.562 -0.4783  0.6660 -0.6413
18363SOL     OW64056   7.725   6.696   5.068 -0.9314  0.6012 -0.6079
18363SOL    HW164057   7.641   6.662   5.098 -0.9806  1.5571  0.4336
18363SOL    HW264058   7.713   6.713   4.975 -1.8113  0.4970 -0.5216
18364SOL     OW64059   0.213   1.668  10.974  0.1909  0.5755  0.4275
18364SOL    HW164060   0.268   1.711  10.908  1.6981 -0.7390  0.7802
18364SOL    HW264061   0.268   1.664  11.052 -0.2290 -1.1558  0.6755
18365SOL     OW64062  10.756  11.325   4.306  0.3275  0.3270 -0.2287
18365SOL    HW164063  10.823  11.272   4.263 -1.1908 -1.8994  0.0099
18365SOL    HW264064  10.792  11.345   4.392  0.4055 -1.5989  0.2344
18366SOL     OW64065   3.092   2.968   0.948  0.2149 -0.2912 -0.3311
18366SOL    HW164066   3.125   2.902   0.887  1.8275 -0.3061  0.4894
18366SOL    HW264067   3.047   2.918   1.015 -1.1704 -0.3081 -1.2508
18367SOL     OW64068   6.996   4.054  12.594 -0.3954 -0.3937  0.3205
18367SOL    HW164069   6.995   4.034  12.688 -1.7636 -0.4254  0.3247
18367SOL    HW264070   6.925   4.117  12.582  0.2672  0.2066 -0.5854
18368SOL     OW64071   6.877   2.930   1.010  0.0945  0.0981 -0.5254
18368SOL    HW164072   6.889   2.908   1.103 -0.8834  1.8151  0.0328
18368SOL    HW264073   6.966   2.938   0.976  0.4631 -0.6192  0.2400
18369SOL     OW64074   0.795   1.989   3.325 -0.1054  0.2106 -0.7693
18369SOL    HW164075   0.862   2.055   3.311  1.5539 -1.4670 -1.2141
18369SOL    HW264076   0.799   1.934   3.247 -2.5203  0.4351 -1.1244
18370SOL     OW64077   6.818   4.361   7.600  0.3035  0.5715  0.0554
18370SOL    HW164078   6.872   4.433   7.567  1.5771 -0.7538 -0.8482
18370SOL    HW264079   6.758   4.341   7.528 -1.9650  2.4343  1.2581
18371SOL     OW64080   8.888   9.781   4.774 -0.5717 -0.0589 -0.1287
18371SOL    HW164081   8.957   9.813   4.715 -0.2953 -0.2749  0.0746
18371SOL    HW264082   8.919   9.803   4.862 -1.0471  0.3800 -0.0674
18372SOL     OW64083  11.524   1.524   5.072 -0.1390 -0.2511  0.1944
18372SOL    HW164084  11.543   1.594   5.135  1.6750 -0.0355 -0.5365
18372SOL    HW264085  11.524   1.444   5.125 -2.5901  0.2658  1.0992
18373SOL     OW64086   0.561   1.149   5.591 -0.1677  0.0191  0.1320
18373SOL    HW164087   0.578   1.113   5.504 -1.1251 -1.5222  0.5346
18373SOL    HW264088   0.647   1.167   5.628  0.2915 -0.6487 -0.6038
18374SOL     OW64089   2.240  11.254   0.461  0.4543  0.6047  0.0591
18374SOL    HW164090   2.314  11.256   0.400 -0.1532 -0.8579 -0.7875
18374SOL    HW264091   2.271  11.199   0.534  0.4546  0.6192  0.0702
18375SOL     OW64092   8.480   8.761   1.155 -0.1224  0.1473  0.0690
18375SOL    HW164093   8.535   8.825   1.109  0.7732 -1.1252 -0.7029
18375SOL    HW264094   8.527   8.678   1.145 -0.2449 -0.3155  2.7401
18376SOL     OW64095   1.068   2.212   2.385  0.2253 -0.8303  0.3103
18376SOL    HW164096   1.066   2.305   2.408 -1.9750 -1.1488  1.7249
18376SOL    HW264097   0.998   2.202   2.321 -1.7068 -1.9637  2.4661
18377SOL     OW64098  10.995   7.503   0.134  0.2717 -0.0541 -0.1760
18377SOL    HW164099  10.971   7.414   0.107  1.0124  0.2344 -1.8764
18377SOL    HW264100  10.963   7.559   0.064  0.7491  0.9305  0.3695
18378SOL     OW64101   8.840  11.735  11.853  0.4006 -0.1890 -0.0634
18378SOL    HW164102   8.745  11.745  11.842  0.2864 -0.7214  0.3543
18378SOL    HW264103   8.868  11.687  11.776  0.4791  0.7201 -0.6189
18379SOL     OW64104   4.747  10.328   9.178 -0.2428  0.0719 -0.5461
18379SOL    HW164105   4.665  10.308   9.132 -0.8146  1.4298 -0.1706
18379SOL    HW264106   4.734  10.292   9.266 -0.0600 -0.4994 -0.7430
18380SOL     OW64107  10.504   0.002   5.473 -0.3543 -0.7897  0.1081
18380SOL    HW164108  10.477   0.088   5.507  0.8281  0.8045 -2.6313
18380SOL    HW264109  10.435  -0.058   5.501 -1.4214  1.0990  1.7955
18381SOL     OW64110   0.429   4.518   3.585 -0.5031  0.3189  0.9243
18381SOL    HW164111   0.347   4.472   3.602 -1.2145  0.2897 -1.9596
18381SOL    HW264112   0.403   4.608   3.566 -0.0395  0.1301 -0.8120
18382SOL     OW64113   4.868   1.551  11.223 -0.0403  0.4048 -0.0358
18382SOL    HW164114   4.817   1.521  11.147 -0.5285 -2.1081  1.1789
18382SOL    HW264115   4.957   1.559  11.190  0.1407 -2.5461 -0.5448
18383SOL     OW64116   1.524   4.195   6.501 -0.2322 -0.4156 -0.1517
18383SOL    HW164117   1.536   4.227   6.412 -0.8147 -0.4061 -0.2261
18383SOL    HW264118   1.523   4.274   6.555 -2.3623 -0.2243 -0.4090
18384SOL     OW64119   4.679   8.267  11.672 -0.4449  0.1843 -0.5649
18384SOL    HW164120   4.761   8.314  11.659  0.5603 -0.8888  1.3485
18384SOL    HW264121   4.701   8.198  11.735 -3.0556  0.5312  0.8679
18385SOL     OW64122   8.831   7.910   6.149 -0.5722 -0.0563  0.5306
18385SOL    HW164123   8.914   7.890   6.106 -0.6097  0.7776  0.0455
18385SOL    HW264124   8.853   7.978   6.212 -1.1522  1.3653 -0.7468
18386SOL     OW64125  11.812   7.251   5.903  0.0842  0.5305  0.2871
18386SOL    HW164126  11.789   7.258   5.811  2.0269 -0.9037 -0.3653
18386SOL    HW264127  11.731   7.274   5.950 -1.2808  0.1407 -1.7509
18387SOL     OW64128   9.396  11.965   1.913 -0.0420  0.2057  0.2002
18387SOL    HW164129   9.328  11.988   1.849  1.2077  0.9899 -0.8946
18387SOL    HW264130   9.456  12.040   1.913 -0.1903  0.4021  2.6076
18388SOL     OW64131   1.272   8.265  11.694  0.2428 -0.7766  0.4282
18388SOL    HW164132   1.261   8.207  11.618  1.3599 -1.9242  1.0917
18388SOL    HW264133   1.202   8.239  11.754 -0.1534 -0.4238  0.1176
18389SOL     OW64134   0.382   6.728   2.781 -0.1657  0.3009  0.0179
18389SOL    HW164135   0.472   6.720   2.752 -0.4840  0.5465 -1.0631
18389SOL    HW264136   0.348   6.805   2.736 -1.0885 -0.1340 -0.0715
18390SOL     OW64137  11.422  11.535  11.660  0.0448  0.2139  0.3646
18390SOL    HW164138  11.413  11.623  11.624  0.6318  1.3429  2.8142
18390SOL    HW264139  11.335  11.497  11.653 -0.1012  0.7578 -1.1949
18391SOL     OW64140   1.843   6.024   0.177  0.0661 -0.1627  0.0347
18391SOL    HW164141   1.748   6.028   0.192 -0.0265 -0.5021 -0.4425
18391SOL    HW264142   1.880   6.084   0.242 -0.4275 -0.5430  0.6744
18392SOL     OW64143   2.141   1.925   6.263  0.0247  0.1129  0.0808
18392SOL    HW164144   2.110   2.015   6.275 -0.1896  0.0796 -0.2063
18392SOL    HW264145   2.074   1.884   6.207 -1.0127 -0.8350  1.8981
18393SOL     OW64146   3.512   1.632   1.606  0.0137 -0.1630 -0.5836
18393SOL    HW164147   3.571   1.697   1.567 -0.8021 -0.3442 -2.2311
18393SOL    HW264148   3.428   1.647   1.563 -1.2798  0.3004  1.9388
18394SOL     OW64149   6.486   7.010   7.072  0.3432  0.3511 -0.0411
18394SOL    HW164150   6.405   7.051   7.104  0.8114  0.7691  0.6170
18394SOL    HW264151   6.456   6.947   7.006 -0.4912  0.7737 -0.0767
18395SOL     OW64152   0.483   8.544   4.025  0.4910  0.1160 -0.4768
18395SOL    HW164153   0.396   8.568   3.995 -0.1947 -0.5916  0.8806
18395SOL    HW264154   0.470   8.505   4.111  2.2081  0.5136  0.0163
18396SOL     OW64155   0.328   6.800   2.470 -0.2686  0.1975 -0.0369
18396SOL    HW164156   0.401   6.816   2.411 -0.8934  1.0231 -0.6216
18396SOL    HW264157   0.258   6.857   2.437 -1.3664 -0.9889  0.1524
18397SOL     OW64158   6.470  11.256   3.127  0.3262  0.2040  0.1635
18397SOL    HW164159   6.396  11.255   3.188 -0.4501 -0.3945 -0.7399
18397SOL    HW264160   6.434  11.294   3.047  0.6744 -1.0939 -0.6488
18398SOL     OW64161   8.837   6.187   4.146 -0.0620 -0.1601  0.1143
18398SOL    HW164162   8.910   6.243   4.121 -0.3007  0.2875  0.3881
18398SOL    HW264163   8.872   6.098   4.144  0.0920 -0.0801 -1.1450
18399SOL     OW64164   1.916   0.480   6.848 -0.5519 -0.4379  0.0835
18399SOL    HW164165   1.887   0.421   6.779 -0.6334  0.7639 -0.9340
18399SOL    HW264166   1.985   0.533   6.807 -0.4338  0.1257  0.9850
18400SOL     OW64167   1.257   2.263   4.807  0.9325 -0.0123 -0.7466
18400SOL    HW164168   1.180   2.311   4.837  1.6583  0.5261  0.3194
18400SOL    HW264169   1.269   2.195   4.874  0.0979 -1.5536 -2.0675
18401SOL     OW64170   9.966  12.468   4.955 -0.0527 -0.5772 -0.1115
18401SOL    HW164171   9.937  12.474   5.046  0.2884 -1.3422  0.0567
18401SOL    HW264172  10.061  12.476   4.959 -0.1354  4.6812 -0.8829
18402SOL     OW64173   9.464   5.975   4.074 -0.5565  0.3432  0.2938
18402SOL    HW164174   9.432   5.890   4.105  0.4014 -0.4052 -0.7051
18402SOL    HW264175   9.513   6.011   4.148  0.3412 -0.6854  0.2138
18403SOL     OW64176  10.596   5.160   7.882  0.0700 -0.7850 -0.2425
18403SOL    HW164177  10.534   5.232   7.896 -1.5677 -2.1690 -0.0213
18403SOL    HW264178  10.659   5.168   7.953  0.5222  1.0009 -0.7996
18404SOL     OW64179   9.959  10.457   7.876 -0.1105 -0.1207  0.1960
18404SOL    HW164180   9.919  10.414   7.801 -2.3913  2.7757 -0.4093
18404SOL    HW264181  10.028  10.513   7.839 -0.0187 -0.0402  0.4822
18405SOL     OW64182   5.855  12.058   9.625  0.3885  0.1954  0.1541
18405SOL    HW164183   5.937  12.033   9.582  0.5477  0.3560  0.3553
18405SOL    HW264184   5.805  12.102   9.557  0.4280  0.0033  0.0019
18406SOL     OW64185   4.720   4.047   2.673 -0.3048 -0.3708 -0.4415
18406SOL    HW164186   4.779   3.983   2.632 -0.9787 -0.2624 -1.6260
18406SOL    HW264187   4.641   3.998   2.694  0.3018 -0.6126  1.5319
18407SOL     OW64188   0.506  10.665   4.021 -0.2137 -0.1520  0.1496
18407SOL    HW164189   0.581  10.724   4.034  1.5327 -1.7386 -1.8956
18407SOL    HW264190   0.435  10.722   3.993  0.8232  1.2258  0.2061
18408SOL     OW64191  12.572  11.287   1.772  0.6693 -0.1656  0.3657
18408SOL    HW164192  12.577  11.349   1.699  1.0985  0.9310  1.3030
18408SOL    HW264193  12.493  11.312   1.820  0.7048 -0.5123  0.6129
18409SOL     OW64194   0.537  10.704   2.977  0.5194  0.1382  0.0565
18409SOL    HW164195   0.565  10.793   2.999  2.4607 -0.1239 -1.0566
18409SOL    HW264196   0.617  10.663   2.944 -0.1399 -2.2757  1.2808
18410SOL     OW64197   7.694   8.808  11.095 -0.5656  0.3301 -0.3032
18410SOL    HW164198   7.628   8.818  11.026 -0.4468 -0.8898 -0.6293
18410SOL    HW264199   7.723   8.897  11.115 -0.5578  0.7064 -1.8749
18411SOL     OW64200   4.497  10.013   5.745 -0.0157  0.2136 -0.3120
18411SOL    HW164201   4.531  10.037   5.831  0.4315  1.0814 -0.7176
18411SOL    HW264202   4.407  10.046   5.744 -0.6464 -1.3608  0.4573
18412SOL     OW64203  11.757   4.772   8.442  0.5095 -0.5140  0.0719
18412SOL    HW164204  11.674   4.816   8.463  0.6230  0.4483 -1.3399
18412SOL    HW264205  11.789   4.739   8.526 -0.0121  1.3657  1.0628
18413SOL     OW64206  10.631   6.261  10.870 -0.1867  0.1358  0.0222
18413SOL    HW164207  10.653   6.286  10.780 -1.7860 -0.5733 -0.6003
18413SOL    HW264208  10.589   6.176  10.862 -1.0442  0.4035  1.3696
18414SOL     OW64209   2.975   8.291   2.190  0.0188 -0.2196 -0.0147
18414SOL    HW164210   3.039   8.273   2.258  0.3995 -1.6224 -0.7122
18414SOL    HW264211   2.942   8.205   2.164 -1.8279  0.4358  0.0144
18415SOL     OW64212  10.548   0.556   1.492  0.0787  0.4044  0.1447
18415SOL    HW164213  10.635   0.534   1.525  0.2841  0.9795  0.0037
18415SOL    HW264214  10.488   0.509   1.550  0.4524  1.0161  1.0490
18416SOL     OW64215   7.248   0.290   2.633 -0.1008  0.6691 -0.0382
18416SOL    HW164216   7.210   0.223   2.577  2.0448 -1.1978  0.6110
18416SOL    HW264217   7.172   0.334   2.672 -1.6196 -1.7693 -0.0245
18417SOL     OW64218   8.278   1.693   3.725 -0.1502 -0.4577  0.0342
18417SOL    HW164219   8.301   1.708   3.816 -2.6449 -0.8954  0.8113
18417SOL    HW264220   8.318   1.609   3.703 -0.8026 -1.1048  1.2357
18418SOL     OW64221   8.271   2.963   5.187  0.1909  0.6433 -0.0801
18418SOL    HW164222   8.365   2.965   5.202 -0.0275  0.5301  1.5197
18418SOL    HW264223   8.256   2.887   5.131  0.9008 -0.3374  1.0272
18419SOL     OW64224   2.087   6.118  10.023  0.0234 -0.8941  0.1360
18419SOL    HW164225   2.127   6.183   9.966  0.4588 -0.7885  0.5606
18419SOL    HW264226   2.012   6.085   9.973 -0.0398 -0.2639 -0.1853
18420SOL     OW64227   8.145   9.549   2.967 -0.0020  0.3467 -0.1685
18420SOL    HW164228   8.165   9.576   2.877  0.3381 -0.0742 -0.2242
18420SOL    HW264229   8.050   9.558   2.974 -0.6601 -3.1864 -1.8270
18421SOL     OW64230   1.058  11.234  12.240 -0.2594 -0.0058 -0.3315
18421SOL    HW164231   0.989  11.172  12.262  0.0798  0.0111  0.8606
18421SOL    HW264232   1.102  11.252  12.323  1.3136 -0.1784 -1.0738
18422SOL     OW64233   7.382   1.283   6.246 -0.0842 -0.2338  0.0543
18422SOL    HW164234   7.360   1.190   6.239 -0.2002 -0.1501 -0.8007
18422SOL    HW264235   7.472   1.289   6.215 -0.2688  0.0172 -0.4410
18423SOL     OW64236   0.183   5.071   1.189 -0.0018  0.1032  0.1353
18423SOL    HW164237   0.265   5.114   1.165  0.0737 -0.4323 -0.5890
18423SOL    HW264238   0.197   4.978   1.167  0.1729 -0.4917  2.4731
18424SOL     OW64239   2.654   4.039   3.867 -0.3993 -0.5538  0.0939
18424SOL    HW164240   2.650   3.943   3.860  1.9871 -0.7666  0.6939
18424SOL    HW264241   2.743   4.061   3.839  0.1803  1.1431  2.8597
18425SOL     OW64242   3.149   6.329   8.824  0.2882  0.1460 -0.1913
18425SOL    HW164243   3.188   6.249   8.858 -2.8994 -1.7860 -0.6829
18425SOL    HW264244   3.155   6.320   8.729  1.6732  1.5166 -0.2722
18426SOL     OW64245   5.963  11.912   2.106  0.6524  0.2391 -0.4019
18426SOL    HW164246   6.032  11.866   2.155 -0.4444  0.5919  1.6024
18426SOL    HW264247   5.909  11.842   2.070  1.3787 -0.0293 -1.0118
18427SOL     OW64248   8.403  10.519   1.100  0.1926 -0.1857  0.2002
18427SOL    HW164249   8.452  10.475   1.168  1.5010  1.8002  0.6283
18427SOL    HW264250   8.470  10.551   1.039 -0.6910  0.9206 -0.2320
18428SOL     OW64251  11.455  11.911  11.123  0.7348  0.0467 -0.0290
18428SOL    HW164252  11.540  11.955  11.126 -0.2441  2.0198  1.0479
18428SOL    HW264253  11.454  11.865  11.039  1.4432  3.0536 -1.8321
18429SOL     OW64254   9.248  12.293   0.696  0.3344 -0.3756 -0.0346
18429SOL    HW164255   9.330  12.338   0.673 -0.7851  1.9978  0.3244
18429SOL    HW264256   9.221  12.252   0.614  0.4168  1.3171 -0.9639
18430SOL     OW64257   4.698   1.495  11.002 -0.4663 -0.1604 -0.0832
18430SOL    HW164258   4.709   1.526  10.912  1.0862 -0.9533 -0.2160
18430SOL    HW264259   4.674   1.403  10.993 -1.1458 -0.0300  0.3214
18431SOL     OW64260   0.843   5.830   6.310  0.3257 -0.2723 -0.0083
18431SOL    HW164261   0.880   5.746   6.282  0.0074 -0.2742 -0.4374
18431SOL    HW264262   0.874   5.893   6.246  0.0582 -0.1713 -0.0379
18432SOL     OW64263   0.189   3.311   6.630 -0.8174  0.2466  0.0498
18432SOL    HW164264   0.202   3.401   6.600  0.4948  0.2240  0.4835
18432SOL    HW264265   0.132   3.319   6.706 -1.3471  0.6329 -0.3840
18433SOL     OW64266   1.858  10.234   4.571  0.0799 -0.0980  0.2570
18433SOL    HW164267   1.772  10.239   4.529  0.2497 -0.4106 -0.1268
18433SOL    HW264268   1.876  10.141   4.580  0.0303 -0.0431  1.0731
18434SOL     OW64269   6.362   5.898   2.649 -0.4306  0.4013  0.9386
18434SOL    HW164270   6.360   5.867   2.559 -0.3418  0.1224  1.0327
18434SOL    HW264271   6.310   5.834   2.698  1.2988 -0.6754  1.4551
18435SOL     OW64272   4.152   7.276   8.968 -1.3820 -0.5638 -0.3321
18435SOL    HW164273   4.130   7.214   8.898 -0.0021  0.2896 -1.5955
18435SOL    HW264274   4.172   7.357   8.921 -0.2610  0.0005  1.0597
18436SOL     OW64275   4.723   9.837  12.136  0.2911 -0.2434  0.4185
18436SOL    HW164276   4.797   9.865  12.082 -0.1647 -0.5582 -0.3797
18436SOL    HW264277   4.714   9.906  12.202  0.7454  0.2322 -0.0051
18437SOL     OW64278  11.645  10.433  12.237  0.1625  0.1465 -0.4552
18437SOL    HW164279  11.590  10.364  12.202  0.0230 -0.4670  0.9132
18437SOL    HW264280  11.671  10.484  12.161 -0.6237 -0.7647 -1.3578
18438SOL     OW64281   7.068  11.239   8.405  0.2374 -0.0357  0.3592
18438SOL    HW164282   7.062  11.162   8.348 -0.7946  0.9179 -0.8814
18438SOL    HW264283   7.162  11.256   8.413  0.4895 -1.4965  0.7914
18439SOL     OW64284   4.063   8.095  10.439  0.2101  0.2618  0.6242
18439SOL    HW164285   4.088   8.005  10.461 -0.3773 -0.0624 -0.0129
18439SOL    HW264286   4.002   8.120  10.508 -2.2671 -1.0467 -0.9567
18440SOL     OW64287   7.745   0.177   3.837 -0.3883 -0.6482 -0.6168
18440SOL    HW164288   7.680   0.165   3.767 -0.6872 -0.4263 -0.3829
18440SOL    HW264289   7.820   0.125   3.809 -0.8863 -1.3909 -0.6054
18441SOL     OW64290  10.491  10.539   1.816  0.3465 -0.0747 -0.3996
18441SOL    HW164291  10.540  10.567   1.738 -1.3732  1.4516 -1.0326
18441SOL    HW264292  10.557  10.528   1.884  1.6785  0.7616 -1.5071
18442SOL     OW64293   5.727  12.182   9.418  0.2253 -0.1835 -0.4070
18442SOL    HW164294   5.778  12.194   9.337  2.5705 -0.0895  0.9969
18442SOL    HW264295   5.705  12.271   9.446 -0.7303 -0.2227 -0.9920
18443SOL     OW64296   4.392   3.230  11.628  0.0625 -0.2363  0.2220
18443SOL    HW164297   4.443   3.303  11.593 -2.1349  1.1123 -0.3517
18443SOL    HW264298   4.301   3.260  11.625 -0.6596 -1.8673  2.8281
18444SOL     OW64299  10.276   7.055   4.654  0.2145  0.1071 -0.2287
18444SOL    HW164300  10.325   7.085   4.577  1.2213 -0.1968  0.2674
18444SOL    HW264301  10.287   7.126   4.718  0.5308 -0.2234  0.0939
18445SOL     OW64302  10.991   4.664   2.628  0.5483  0.5486  0.6593
18445SOL    HW164303  10.941   4.745   2.619  1.8429  1.3614  0.5541
18445SOL    HW264304  11.071   4.690   2.674  0.3903 -0.9216  1.8263
18446SOL     OW64305   3.713  11.807  10.981 -0.3122 -0.3592  0.2300
18446SOL    HW164306   3.703  11.800  10.886 -1.3423  1.6373  0.1570
18446SOL    HW264307   3.679  11.724  11.015 -3.1522  0.2130 -0.9855
18447SOL     OW64308   4.359   8.423   3.209  0.0022  0.0862 -0.3598
18447SOL    HW164309   4.276   8.435   3.163  0.8212 -0.3854 -2.0560
18447SOL    HW264310   4.413   8.373   3.148  0.8600 -1.3793  1.5201
18448SOL     OW64311  12.002   8.387   1.988 -0.0746 -0.2022 -0.5184
18448SOL    HW164312  11.998   8.292   1.981  0.1185 -0.2038 -0.6282
18448SOL    HW264313  11.921   8.412   2.033  0.6484 -0.5571  1.0465
18449SOL     OW64314  11.499   6.389   7.822 -0.2655  0.0006 -0.0547
18449SOL    HW164315  11.533   6.433   7.744 -2.3966  1.8851 -0.0352
18449SOL    HW264316  11.536   6.438   7.895  1.0128 -1.2052  0.1446
18450SOL     OW64317   5.390   1.097  11.120 -0.2065  0.0452 -0.1548
18450SOL    HW164318   5.480   1.123  11.101  0.5111 -0.0622  2.6238
18450SOL    HW264319   5.383   1.008  11.085  0.9748 -0.1803  0.1504
18451SOL     OW64320   6.054  10.313   7.621  0.3308 -0.0091  0.0072
18451SOL    HW164321   5.976  10.270   7.657 -0.1808  0.9808  0.1239
18451SOL    HW264322   6.127  10.278   7.673 -0.1461 -0.2260  0.5405
18452SOL     OW64323   3.627   4.356   3.801  0.1671  0.2755  0.4064
18452SOL    HW164324   3.548   4.301   3.806 -0.2195  0.8245  0.3719
18452SOL    HW264325   3.596   4.445   3.816  0.6739  0.5889 -0.3453
18453SOL     OW64326  10.290   4.342   0.394  0.0021 -0.2030 -0.5802
18453SOL    HW164327  10.274   4.297   0.478  2.4438  1.1750  0.7509
18453SOL    HW264328  10.221   4.408   0.389  1.3962  1.6878  1.9858
18454SOL     OW64329  11.961   9.034   7.979 -0.2430 -0.1115  0.0341
18454SOL    HW164330  11.890   9.083   8.022 -0.3790 -0.1193 -0.1784
18454SOL    HW264331  11.916   8.982   7.912 -0.0355 -0.1209 -0.0971
18455SOL     OW64332  11.029   0.267   9.327 -0.3590 -0.5645 -0.2611
18455SOL    HW164333  11.049   0.235   9.239  0.1217 -2.0280  0.3537
18455SOL    HW264334  11.060   0.198   9.386 -2.4202 -0.5386  0.9766
18456SOL     OW64335   6.609   0.682   0.055  0.3874  0.7280  0.1678
18456SOL    HW164336   6.619   0.777   0.053  0.2010  0.7496 -2.0482
18456SOL    HW264337   6.514   0.668   0.056  0.4022  0.5801 -0.2259
18457SOL     OW64338  10.942   9.117   5.768  0.1364  0.0136  0.8104
18457SOL    HW164339  11.024   9.161   5.746  0.7436  0.0642  2.9254
18457SOL    HW264340  10.908   9.166   5.844 -1.7316 -0.1787  0.1575
18458SOL     OW64341   8.719   2.020   2.422  0.1988  0.2653  0.3852
18458SOL    HW164342   8.641   2.008   2.475 -0.3891 -1.9186 -0.8708
18458SOL    HW264343   8.708   2.105   2.380 -1.7799 -0.2264 -0.1659
18459SOL     OW64344  11.708   4.380   5.944  0.0247 -0.3639 -0.2029
18459SOL    HW164345  11.801   4.402   5.955  0.2299 -1.2606 -0.1114
18459SOL    HW264346  11.681   4.347   6.029  0.1417 -1.9561 -0.7504
18460SOL     OW64347   3.945   9.680   1.865 -0.3503 -0.2626  0.3127
18460SOL    HW164348   3.851   9.682   1.882 -0.0662  2.0236  2.0513
18460SOL    HW264349   3.977   9.764   1.896  2.5515 -1.6330  1.3660
18461SOL     OW64350   4.428   7.035   1.754  0.0873  0.7212 -0.0009
18461SOL    HW164351   4.376   7.003   1.679 -0.3913  1.8716 -0.1864
18461SOL    HW264352   4.482   7.104   1.717  1.1563  0.1083  0.3799
18462SOL     OW64353   5.443   2.910   5.730  0.6469  0.3427  0.6187
18462SOL    HW164354   5.379   2.840   5.727  1.1281 -0.1608  1.6191
18462SOL    HW264355   5.399   2.981   5.777 -0.1388  1.0575 -1.1282
18463SOL     OW64356   7.182   5.105   7.360 -0.7052 -0.0617  0.6167
18463SOL    HW164357   7.229   5.025   7.383  1.2007  0.9624  0.5010
18463SOL    HW264358   7.142   5.085   7.275 -0.6769 -1.0423  0.8168
18464SOL     OW64359   7.147   2.836   0.634 -0.1707 -0.3041  0.1790
18464SOL    HW164360   7.111   2.910   0.586  0.0764 -0.0705  0.3430
18464SOL    HW264361   7.237   2.863   0.654 -0.3495 -0.2826  0.9910
18465SOL     OW64362   7.417   4.003  11.589  0.0275 -0.4527  0.6059
18465SOL    HW164363   7.485   4.021  11.654 -0.4720 -0.4528  1.1351
18465SOL    HW264364   7.457   4.026  11.506  0.8160 -0.8291  0.8662
18466SOL     OW64365   9.119   2.005  11.338 -0.4829 -0.0017  0.0608
18466SOL    HW164366   9.084   2.090  11.309 -1.3363 -0.9603 -1.8760
18466SOL    HW264367   9.041   1.951  11.353  0.0731 -1.0997 -0.8688
18467SOL     OW64368   9.989   2.375   1.702  0.1964  0.2533  0.9653
18467SOL    HW164369  10.006   2.458   1.658  2.5162 -0.5567  0.2095
18467SOL    HW264370   9.905   2.389   1.746 -0.8315  2.0565 -1.3535
18468SOL     OW64371   1.221   7.778   8.552  0.0966 -0.0335 -0.8764
18468SOL    HW164372   1.224   7.874   8.545  0.3623  0.2334  1.8935
18468SOL    HW264373   1.272   7.758   8.630 -2.6957 -2.1687  0.5506
18469SOL     OW64374   9.743   7.292   3.267 -0.3710 -0.1638  0.0391
18469SOL    HW164375   9.783   7.379   3.270  0.8382 -0.6002 -1.6835
18469SOL    HW264376   9.769   7.251   3.349  0.4423  0.5384  0.1503
18470SOL     OW64377   9.391  12.463   3.358  0.2234 -0.2292  0.2379
18470SOL    HW164378   9.396  12.473   3.262 -2.8125  1.6250  0.1649
18470SOL    HW264379   9.367  12.372   3.371 -1.6286  0.0329 -0.9573
18471SOL     OW64380   2.331   5.243   1.464  0.2712  0.3617  0.1309
18471SOL    HW164381   2.401   5.247   1.399 -0.0389  3.1145 -0.1610
18471SOL    HW264382   2.254   5.277   1.418 -0.2613  1.1744  1.5627
18472SOL     OW64383   1.349   5.859   6.853 -0.0952  0.8302 -0.8400
18472SOL    HW164384   1.314   5.939   6.892  0.3232  0.1488  1.0340
18472SOL    HW264385   1.437   5.851   6.889 -0.1129 -0.4470 -1.0271
18473SOL     OW64386  12.431   5.973   5.577 -0.1744 -0.1157 -0.0971
18473SOL    HW164387  12.504   5.923   5.613 -0.3443 -0.8651 -0.7539
18473SOL    HW264388  12.467   6.016   5.500  0.3775  2.0694  1.3144
18474SOL     OW64389   4.234   8.286   8.955  0.2460  0.5825  0.1116
18474SOL    HW164390   4.313   8.302   8.903  0.6150 -0.1678  0.4382
18474SOL    HW264391   4.168   8.343   8.915  0.3720 -0.3624 -1.5422
18475SOL     OW64392  11.237   6.055   4.175  0.0476  0.1357  0.3465
18475SOL    HW164393  11.302   6.071   4.244 -0.4684  2.1238  0.4504
18475SOL    HW264394  11.266   6.108   4.101  0.3421 -1.6119 -0.8481
18476SOL     OW64395   3.292   2.477  10.328  0.1742 -0.1032 -0.2267
18476SOL    HW164396   3.303   2.451  10.419  1.5976  0.6583 -0.1550
18476SOL    HW264397   3.243   2.559  10.332  0.5489  0.1176 -0.1191
18477SOL     OW64398  11.463   6.755   2.186  0.0722  0.1592  0.3692
18477SOL    HW164399  11.463   6.818   2.114 -0.3526  0.2265  0.4239
18477SOL    HW264400  11.375   6.717   2.185  0.4101 -0.6459  0.1595
18478SOL     OW64401   5.951   3.857  11.137  0.2071  0.0816  0.5945
18478SOL    HW164402   5.955   3.859  11.041  0.6628 -0.2332  0.6019
18478SOL    HW264403   6.031   3.903  11.165 -0.4543  1.1244  0.8370
18479SOL     OW64404   9.511   2.085   8.730 -0.4230  0.1447 -0.2659
18479SOL    HW164405   9.473   2.028   8.796 -0.3361  0.3182 -0.0644
18479SOL    HW264406   9.559   2.152   8.780 -0.1089  0.1052 -0.5099
18480SOL     OW64407   6.028   6.658   9.804 -0.3405  0.1702  0.3252
18480SOL    HW164408   6.057   6.639   9.715  0.7441 -0.9344  0.8987
18480SOL    HW264409   5.933   6.666   9.796 -0.1469  1.7086 -1.2020
18481SOL     OW64410   9.602   8.107   9.738 -0.5422  0.0024  0.3110
18481SOL    HW164411   9.635   8.197   9.733 -0.4048 -0.0720 -0.1417
18481SOL    HW264412   9.619   8.080   9.829  3.1852 -0.9832 -0.5280
18482SOL     OW64413   6.609   0.787  11.287  0.0625 -0.0389  0.1254
18482SOL    HW164414   6.566   0.702  11.284 -0.6655  0.3489 -1.8142
18482SOL    HW264415   6.661   0.785  11.367 -1.0584 -1.7479  0.8686
18483SOL     OW64416   3.580   0.725   8.008 -0.0129  0.3504  0.7814
18483SOL    HW164417   3.513   0.676   8.056 -1.3181  1.6128  0.3244
18483SOL    HW264418   3.541   0.743   7.923  2.2744 -1.8635 -0.8930
18484SOL     OW64419   8.851   1.602  11.428  0.5384  0.3703 -0.1587
18484SOL    HW164420   8.944   1.603  11.449  0.0291 -1.3216  2.7620
18484SOL    HW264421   8.821   1.516  11.455 -2.1840  1.4418  0.5756
18485SOL     OW64422   3.627  10.901   9.925 -0.0547  0.0565 -0.0394
18485SOL    HW164423   3.661  10.982   9.962 -1.0640  0.2965  0.3851
18485SOL    HW264424   3.562  10.928   9.860 -0.7506 -0.4054  0.4487
18486SOL     OW64425   0.352   3.149  11.410  0.5073  0.2530  0.0640
18486SOL    HW164426   0.424   3.206  11.439  0.2386  1.0852 -0.8377
18486SOL    HW264427   0.393   3.064  11.396  1.0022  0.3099  1.0472
18487SOL     OW64428   9.407  11.887   5.908 -0.1984  0.2585  0.2116
18487SOL    HW164429   9.377  11.978   5.902  0.8667  0.6456  0.6501
18487SOL    HW264430   9.434  11.865   5.819 -1.1304  0.1196 -0.0502
18488SOL     OW64431   8.002   9.657  11.004 -0.1099  0.3696  0.3138
18488SOL    HW164432   8.067   9.725  11.025  1.7963 -1.6333  1.2708
18488SOL    HW264433   8.039   9.577  11.039 -3.7626 -0.7521  2.1087
18489SOL     OW64434   8.575   9.518   8.353 -0.0730  0.0301  0.4131
18489SOL    HW164435   8.513   9.587   8.329 -0.0660  0.1369  0.6900
18489SOL    HW264436   8.659   9.546   8.317 -0.3316 -0.4785 -0.6012
18490SOL     OW64437   6.977   7.944  11.160 -0.7417  0.3352  0.0924
18490SOL    HW164438   6.935   7.872  11.208  1.1076 -0.5855  0.4371
18490SOL    HW264439   6.989   8.013  11.225 -1.7409  0.6181 -0.0214
18491SOL     OW64440   6.953   2.259   4.628  0.0242  0.1057 -0.4725
18491SOL    HW164441   7.008   2.181   4.624  0.5033  0.4502 -0.7005
18491SOL    HW264442   6.955   2.285   4.720 -1.5054 -1.1089 -0.0684
18492SOL     OW64443   6.872   4.157   2.285  0.0405 -0.2776  0.3183
18492SOL    HW164444   6.828   4.234   2.250 -0.1849 -0.0769  1.0378
18492SOL    HW264445   6.803   4.106   2.327  0.2864 -0.5851  0.3569
18493SOL     OW64446   4.492  11.936   8.833 -0.7053 -0.3906 -0.0860
18493SOL    HW164447   4.409  11.954   8.877 -0.8523 -0.3523 -0.3753
18493SOL    HW264448   4.517  11.849   8.863  0.2046  0.4115  1.6342
18494SOL     OW64449   0.007   5.112   2.940 -0.4258 -0.4023 -0.5333
18494SOL    HW164450   0.076   5.054   2.911 -1.4612 -1.0751 -1.7513
18494SOL    HW264451   0.026   5.196   2.897 -0.1013 -0.4406 -0.4653
18495SOL     OW64452   4.794   8.444   0.852 -0.2166  0.1978  0.0101
18495SOL    HW164453   4.841   8.520   0.887  1.1156 -0.2187 -0.7690
18495SOL    HW264454   4.754   8.475   0.771  1.0561 -0.1033 -0.7696
18496SOL     OW64455   6.715   5.064   2.144 -0.2531 -0.3824  0.2160
18496SOL    HW164456   6.692   5.150   2.178  0.4621  0.3558 -1.0866
18496SOL    HW264457   6.808   5.069   2.125 -0.3744 -1.1498 -0.6944
18497SOL     OW64458   3.468   3.680  10.605  0.0818  0.3706  0.9477
18497SOL    HW164459   3.539   3.666  10.542  0.3434 -1.0756  1.5238
18497SOL    HW264460   3.509   3.726  10.678 -0.4970  3.2658 -0.4023
18498SOL     OW64461   9.459   6.468   3.089  0.2508  0.3214 -0.2192
18498SOL    HW164462   9.511   6.394   3.059  0.3515  0.7835 -1.2130
18498SOL    HW264463   9.400   6.488   3.016 -1.5171 -0.3428  0.9646
18499SOL     OW64464   0.691   0.274   4.803  0.1201 -0.0764 -0.2757
18499SOL    HW164465   0.763   0.329   4.773 -0.9468  0.5735 -1.8265
18499SOL    HW264466   0.692   0.199   4.743 -1.2165  0.5624 -1.1540
18500SOL     OW64467   9.007   3.370   4.569 -0.1445 -0.0808 -0.0468
18500SOL    HW164468   8.994   3.458   4.535  1.4076  0.3667  0.4557
18500SOL    HW264469   8.919   3.332   4.570 -1.0111  1.8186  0.7300
18501SOL     OW64470   8.301  10.307   7.749 -0.4158 -0.4548 -0.8444
18501SOL    HW164471   8.356  10.237   7.713 -1.0645 -1.7725  0.6124
18501SOL    HW264472   8.217  10.296   7.705 -0.2912 -0.0798 -1.1827
18502SOL     OW64473   3.251   1.773   9.961 -0.4319 -0.0007 -0.2214
18502SOL    HW164474   3.170   1.762  10.012 -1.4304  1.3894 -1.4342
18502SOL    HW264475   3.295   1.847  10.002  1.0728 -1.6655  1.3915
18503SOL     OW64476   9.230   9.249   9.585 -0.3523  0.4159  0.3371
18503SOL    HW164477   9.166   9.205   9.640 -0.8437  0.3359 -0.2875
18503SOL    HW264478   9.308   9.192   9.589 -1.2209 -0.9649 -1.0569
18504SOL     OW64479  11.822   4.682  11.557  0.0883  0.3352  0.1839
18504SOL    HW164480  11.903   4.733  11.556  0.0989  0.3124 -0.4867
18504SOL    HW264481  11.771   4.719  11.629  0.3262  0.9271  0.0531
18505SOL     OW64482   7.821   2.554   9.451  0.0419 -0.0268 -0.3479
18505SOL    HW164483   7.910   2.521   9.460 -0.1473 -0.1926  1.1058
18505SOL    HW264484   7.815   2.625   9.516 -0.8906 -0.0335 -0.4135
18506SOL     OW64485   6.085   5.280   8.249  0.4939  0.0727 -0.2238
18506SOL    HW164486   6.169   5.253   8.210  0.7823 -0.3432  0.6705
18506SOL    HW264487   6.092   5.255   8.341 -0.1485  1.1192  0.1271
18507SOL     OW64488   6.042  10.191   2.775  0.3778  0.1499  0.1362
18507SOL    HW164489   6.057  10.281   2.804 -1.0242  0.0384  1.3077
18507SOL    HW264490   6.013  10.145   2.853  1.5530 -1.4770 -0.3231
18508SOL     OW64491  12.428   4.889   8.615  0.6273 -0.5097  0.3273
18508SOL    HW164492  12.493   4.820   8.605  1.8519  0.7018 -0.3953
18508SOL    HW264493  12.385   4.870   8.698  1.1686 -1.9351  0.3058
18509SOL     OW64494   0.755  11.444   5.183 -0.0740  0.1124 -0.0182
18509SOL    HW164495   0.821  11.415   5.119  1.3470  0.1727  1.3662
18509SOL    HW264496   0.806  11.473   5.259 -1.6477  1.5939  0.5441
18510SOL     OW64497   0.384   2.573   7.715 -0.6021  0.2234 -0.1858
18510SOL    HW164498   0.339   2.502   7.670 -2.1596  0.4382  0.9712
18510SOL    HW264499   0.369   2.556   7.808 -1.6460  2.4550  0.1066
18511SOL     OW64500   1.064  10.183   1.117 -0.1998  0.8198 -0.1392
18511SOL    HW164501   1.027  10.151   1.199  1.3372 -1.6379 -0.3090
18511SOL    HW264502   1.010  10.259   1.095 -2.1384  0.1621  1.9192
18512SOL     OW64503   2.823   0.069   7.234  0.1172  0.2006  0.5527
18512SOL    HW164504   2.912   0.087   7.264 -0.3342  0.0861  2.0193
18512SOL    HW264505   2.767   0.101   7.305 -1.0246  0.4244 -0.4261
18513SOL     OW64506  12.181   3.348  12.097  0.3725  0.6727 -0.6360
18513SOL    HW164507  12.147   3.438  12.102 -1.0347  0.1342  0.3844
18513SOL    HW264508  12.180   3.327  12.003 -2.3635  0.6715 -0.6858
18514SOL     OW64509   8.457   6.409   4.755  0.4398  0.4007  0.3907
18514SOL    HW164510   8.449   6.497   4.718 -1.6913 -0.1320 -0.5844
18514SOL    HW264511   8.367   6.377   4.759  1.1191 -1.5577  1.2095
18515SOL     OW64512   0.137   7.820   6.481  0.0596 -0.4880 -0.5049
18515SOL    HW164513   0.114   7.824   6.388  0.8019 -2.5285 -0.8184
18515SOL    HW264514   0.095   7.741   6.514 -2.0105  1.2854  1.5117
18516SOL     OW64515   3.495   4.709   7.624 -0.1104 -0.6251  0.3183
18516SOL    HW164516   3.521   4.618   7.631 -0.4185 -0.7508 -0.1018
18516SOL    HW264517   3.448   4.714   7.540  1.1489  0.2117 -0.3664
18517SOL     OW64518   5.422   2.068  10.071  0.3596  0.5377  0.6875
18517SOL    HW164519   5.354   2.126  10.104  0.3465  1.1359 -0.3238
18517SOL    HW264520   5.388   1.980  10.083 -0.1165  0.7893  1.1916
18518SOL     OW64521   0.449   7.030   2.048  0.1687  0.2215 -0.0470
18518SOL    HW164522   0.377   7.089   2.071  0.0830 -0.5118  1.7118
18518SOL    HW264523   0.426   6.996   1.962  1.3760  4.4831 -2.3330
18519SOL     OW64524   4.287   1.253   6.302 -0.7405 -0.5666 -0.5890
18519SOL    HW164525   4.268   1.333   6.253 -2.1890  0.4806  1.5529
18519SOL    HW264526   4.343   1.283   6.375 -0.9201 -1.5666 -0.0292
18520SOL     OW64527   4.223   5.605   9.432  0.0633 -0.3046 -0.2321
18520SOL    HW164528   4.263   5.692   9.429 -2.3930  1.0446  2.2292
18520SOL    HW264529   4.212   5.587   9.525 -2.9698 -1.5627 -0.7372
18521SOL     OW64530   6.264  11.212   5.320 -0.5885 -0.1585  0.1981
18521SOL    HW164531   6.293  11.131   5.280 -2.5656 -0.4708 -0.7324
18521SOL    HW264532   6.339  11.243   5.370  0.5248 -2.0246 -0.2445
18522SOL     OW64533  11.430   8.266   1.580  0.5478 -0.0088 -0.0352
18522SOL    HW164534  11.388   8.214   1.512  0.1853 -1.0608  0.9565
18522SOL    HW264535  11.359   8.287   1.641  0.9058  0.7249  0.1357
18523SOL     OW64536   8.695   5.240   1.121  0.4316 -0.0054 -0.1431
18523SOL    HW164537   8.720   5.153   1.090  1.5187  0.2954 -0.1418
18523SOL    HW264538   8.718   5.240   1.214  0.9314  0.4595 -0.2624
18524SOL     OW64539   8.114   1.274   7.437  0.1436 -0.0989  0.8677
18524SOL    HW164540   8.026   1.302   7.463 -0.4830 -2.0633  1.0247
18524SOL    HW264541   8.107   1.178   7.429  0.8968 -0.0029 -4.2116
18525SOL     OW64542   9.930  10.496   9.206 -0.0293  0.4770 -0.5463
18525SOL    HW164543  10.002  10.537   9.157 -0.1766  1.9558  0.4089
18525SOL    HW264544   9.906  10.419   9.154  2.5728 -0.3764 -0.6485
18526SOL     OW64545   6.269  10.729   7.280  0.2145 -0.2224 -0.2362
18526SOL    HW164546   6.363  10.712   7.273  0.0922 -1.1154  0.2087
18526SOL    HW264547   6.261  10.823   7.265  1.2137 -0.0794  0.0559
18527SOL     OW64548   9.271  11.811   3.493 -0.3960 -0.3157  0.0689
18527SOL    HW164549   9.314  11.726   3.501 -0.1036 -0.0921  1.0017
18527SOL    HW264550   9.194  11.794   3.439 -0.5988 -1.2752  0.6368
18528SOL     OW64551   5.037   7.606   4.601 -0.4143 -0.2463  0.4568
18528SOL    HW164552   5.045   7.558   4.684 -1.5071 -3.1345 -0.9518
18528SOL    HW264553   4.943   7.608   4.583 -0.1834  0.0650 -0.8402
18529SOL     OW64554   1.120  12.484   6.426 -0.2045 -0.0545 -0.0549
18529SOL    HW164555   1.194  12.501   6.367  0.1563 -1.3289  0.0025
18529SOL    HW264556   1.051  12.452   6.368 -0.1811 -0.3612  0.0862
18530SOL     OW64557   6.370   7.248   7.634  0.1067  0.0770  0.0384
18530SOL    HW164558   6.288   7.256   7.683 -1.3124  0.6856 -2.2885
18530SOL    HW264559   6.430   7.309   7.678 -1.4261  1.3844  0.4243
18531SOL     OW64560  10.858   9.094   2.705  0.5428 -0.0515 -0.0660
18531SOL    HW164561  10.836   9.099   2.798  3.8593 -0.9093  0.9132
18531SOL    HW264562  10.872   9.000   2.690  0.9889  0.1872 -1.1708
18532SOL     OW64563   1.785  10.065   5.566 -0.5926  0.0762 -0.6571
18532SOL    HW164564   1.748  10.139   5.614 -0.8399 -1.0546  0.9776
18532SOL    HW264565   1.718   9.997   5.570  1.2902 -1.8250  1.8856
18533SOL     OW64566   4.833   2.807  10.758 -0.2886 -0.0346 -0.1264
18533SOL    HW164567   4.821   2.759  10.676  0.5963 -0.6526  0.0880
18533SOL    HW264568   4.847   2.898  10.731 -0.6133 -0.1262 -0.6213
18534SOL     OW64569   9.819   1.605   8.629 -0.1136  0.0503 -0.1736
18534SOL    HW164570   9.838   1.514   8.607 -1.0159 -0.0151 -0.7130
18534SOL    HW264571   9.891   1.631   8.686 -0.8214 -1.5613  1.5583
18535SOL     OW64572  10.929   3.700   8.812  0.2626 -0.4013  0.3107
18535SOL    HW164573  10.885   3.716   8.728  0.9753 -0.6536 -0.1182
18535SOL    HW264574  11.020   3.680   8.788  0.1017 -2.2088  0.9989
18536SOL     OW64575   8.068   6.935  10.337 -0.0268 -0.0148  0.0565
18536SOL    HW164576   8.129   6.868  10.306 -0.7016 -0.8264  0.4657
18536SOL    HW264577   8.107   7.017  10.308 -0.2462 -0.6742 -2.2930
18537SOL     OW64578   6.402   4.616   1.699  0.3761 -0.6882  0.1310
18537SOL    HW164579   6.480   4.664   1.727  0.2055 -0.0285 -0.4995
18537SOL    HW264580   6.346   4.612   1.776 -1.0678  3.0206 -0.5260
18538SOL     OW64581   5.793   0.305  12.593 -0.2408 -0.1109  0.5134
18538SOL    HW164582   5.723   0.241  12.577 -0.2208 -0.3134  1.2066
18538SOL    HW264583   5.870   0.252  12.615 -0.2257  0.1385  1.0945
18539SOL     OW64584  11.423   1.599  11.925 -0.0181  0.2484  0.5043
18539SOL    HW164585  11.379   1.682  11.905  0.3123  0.3420  0.1442
18539SOL    HW264586  11.382   1.569  12.006  0.2730  1.0748  0.9718
18540SOL     OW64587  10.060  11.302  11.052 -0.6131  0.5878  0.5744
18540SOL    HW164588  10.086  11.394  11.056  0.6930  0.2080  1.7021
18540SOL    HW264589  10.007  11.288  11.130 -1.8472  0.6622 -0.2332
18541SOL     OW64590   5.877   1.870   2.052 -0.1755  0.4714 -0.0248
18541SOL    HW164591   5.941   1.821   2.001 -0.9400 -0.0493 -0.5047
18541SOL    HW264592   5.801   1.878   1.994 -1.2421 -0.5344  1.1720
18542SOL     OW64593  12.455   5.387   5.940  0.5513  0.0753 -0.4823
18542SOL    HW164594  12.526   5.382   6.004 -0.2275 -0.7479  0.3430
18542SOL    HW264595  12.378   5.357   5.988 -0.4543  1.3664 -1.2342
18543SOL     OW64596   9.463   7.990  11.230 -0.2342 -0.1829  0.2292
18543SOL    HW164597   9.433   8.026  11.313 -1.3925 -3.6670  1.5098
18543SOL    HW264598   9.536   7.932  11.254  0.5357  0.0223 -1.4511
18544SOL     OW64599   7.919  10.351   4.022  0.2951 -0.6971  0.8074
18544SOL    HW164600   7.886  10.293   3.954  0.1606 -1.4538  1.5021
18544SOL    HW264601   8.015  10.349   4.012  0.3889 -2.2113  1.7375
18545SOL     OW64602   1.324   9.634   4.072  0.6826  0.1298 -0.0649
18545SOL    HW164603   1.245   9.588   4.100  1.0057 -0.9121 -0.8034
18545SOL    HW264604   1.387   9.620   4.143  0.4648  0.2857  0.1610
18546SOL     OW64605   1.839   3.694   5.158  0.4115 -0.2504 -0.1776
18546SOL    HW164606   1.895   3.692   5.080 -0.3140 -0.3464 -0.7101
18546SOL    HW264607   1.872   3.768   5.209 -0.3665  1.1418 -1.5659
18547SOL     OW64608   5.612   2.570  11.945 -0.6404  0.1820  0.6126
18547SOL    HW164609   5.671   2.496  11.933  1.6226  2.2344 -2.0888
18547SOL    HW264610   5.624   2.595  12.037  3.5222  0.9760  0.0579
18548SOL     OW64611   7.878   1.793  11.543 -0.0801 -0.3198  0.4445
18548SOL    HW164612   7.959   1.745  11.528  0.5939  1.0753 -0.6083
18548SOL    HW264613   7.826   1.778  11.464 -1.1106 -1.5789  1.2914
18549SOL     OW64614   2.521   9.448   8.111 -0.0500  0.0566 -0.2476
18549SOL    HW164615   2.484   9.536   8.097 -1.1720 -0.0377  1.8091
18549SOL    HW264616   2.450   9.389   8.086 -0.8674 -0.1533  2.3601
18550SOL     OW64617  12.465   1.872   6.265 -0.7701 -0.1497  0.4155
18550SOL    HW164618  12.531   1.886   6.333 -2.1470  0.4686  1.6982
18550SOL    HW264619  12.499   1.917   6.188  0.3162  0.0887  1.0150
18551SOL     OW64620  10.443   2.507   7.549 -0.2567 -0.3167 -0.2602
18551SOL    HW164621  10.444   2.483   7.456 -0.7080  1.3720 -0.7394
18551SOL    HW264622  10.355   2.484   7.578 -0.7780  0.9238 -0.7846
18552SOL     OW64623  12.471   7.128  10.012  0.1554 -0.3315 -0.0466
18552SOL    HW164624  12.480   7.071   9.936 -0.7478  0.4170 -0.7432
18552SOL    HW264625  12.376   7.141  10.021  0.2763 -0.0866  0.9607
18553SOL     OW64626   4.119   8.005   4.005  0.2755  0.1704 -0.0512
18553SOL    HW164627   4.213   8.001   3.987 -0.0446 -0.7000 -1.7089
18553SOL    HW264628   4.085   7.922   3.973 -1.1606  0.7404 -0.0655
18554SOL     OW64629  10.608   4.996  12.546 -0.1458  0.0397  0.4209
18554SOL    HW164630  10.700   5.018  12.529 -0.5001  1.0747 -0.2725
18554SOL    HW264631  10.563   5.019  12.465 -1.3282  1.5714  1.4589
18555SOL     OW64632   2.016   6.417   6.304  0.1232 -0.3473 -0.3169
18555SOL    HW164633   2.002   6.490   6.243 -0.3483 -0.8541 -0.8343
18555SOL    HW264634   2.053   6.458   6.382  0.0683  0.4171 -0.6753
18556SOL     OW64635  11.380   2.673   3.589  0.2869 -0.0203  0.5395
18556SOL    HW164636  11.471   2.642   3.592  0.3271  0.1207  0.8838
18556SOL    HW264637  11.388   2.767   3.575  0.1864 -0.0374  0.3604
18557SOL     OW64638  12.115   7.909   2.538 -0.6873  0.0609 -0.3663
18557SOL    HW164639  12.160   7.876   2.616  1.4005 -0.2148 -1.6251
18557SOL    HW264640  12.035   7.857   2.532 -0.5353 -0.3907  1.1688
18558SOL     OW64641   5.658  11.715   3.942 -0.4938  0.3338  0.1163
18558SOL    HW164642   5.597  11.784   3.915  0.4243  1.1002 -0.0774
18558SOL    HW264643   5.648  11.647   3.876 -1.9570 -0.0759  0.7202
18559SOL     OW64644   8.425   2.349   7.029 -0.3711 -0.2980 -0.6634
18559SOL    HW164645   8.519   2.339   7.038 -0.6768 -2.1928  1.1393
18559SOL    HW264646   8.400   2.286   6.961 -0.3741  0.2529 -1.1918
18560SOL     OW64647  11.144   9.058   3.630  0.3322  0.4615  0.6060
18560SOL    HW164648  11.117   8.980   3.680 -1.6976 -0.3393 -1.5378
18560SOL    HW264649  11.104   9.131   3.676 -1.4569 -0.2492  0.2657
18561SOL     OW64650   5.145  10.941   9.431 -0.4568 -0.2808 -0.0040
18561SOL    HW164651   5.091  10.893   9.494  0.5013  1.2019  2.0670
18561SOL    HW264652   5.235  10.921   9.457 -0.0446  1.5243  0.0622
18562SOL     OW64653   4.026   2.788  12.487 -0.0663 -0.1779 -0.0809
18562SOL    HW164654   4.075   2.734  12.550 -0.6232  0.9814  1.3991
18562SOL    HW264655   3.977   2.724  12.435  0.4025 -1.1844  0.6642
18563SOL     OW64656   2.551  12.435   8.900  0.1406  0.0224 -0.1689
18563SOL    HW164657   2.557  12.419   8.994  1.4453 -2.1909 -0.5571
18563SOL    HW264658   2.494  12.365   8.868 -0.7115  1.0524 -1.0021
18564SOL     OW64659   0.117   0.665  10.005 -0.1141  0.0796  0.3158
18564SOL    HW164660   0.060   0.734   9.972 -0.7696  0.0294  1.2825
18564SOL    HW264661   0.070   0.583   9.987  0.8272 -0.1692 -1.1582
18565SOL     OW64662   5.493   0.757   4.761  0.5550  0.6256  0.5588
18565SOL    HW164663   5.429   0.809   4.712 -0.5156  0.1527  1.4131
18565SOL    HW264664   5.496   0.797   4.848 -0.5657 -0.9144  1.3502
18566SOL     OW64665   2.285   2.963   7.448  0.1462 -0.5528  0.0872
18566SOL    HW164666   2.332   2.889   7.410  0.7185 -0.1230 -0.0667
18566SOL    HW264667   2.348   3.035   7.443  0.0240 -0.3513  1.3314
18567SOL     OW64668  10.407   9.167   3.516  0.2196  0.5085  0.0488
18567SOL    HW164669  10.353   9.246   3.523 -2.7318 -1.3143 -0.1711
18567SOL    HW264670  10.422   9.140   3.607 -2.1610 -0.6814  0.1711
18568SOL     OW64671   3.106   5.945   2.142  0.2569  0.4007 -0.4643
18568SOL    HW164672   3.077   5.870   2.091 -0.8669  0.1383  0.5183
18568SOL    HW264673   3.026   5.984   2.177  0.8819  1.4991 -0.1780
18569SOL     OW64674   3.150   3.247   4.228  0.2334 -0.9059 -0.0898
18569SOL    HW164675   3.242   3.267   4.246  0.0064  0.3671 -0.2406
18569SOL    HW264676   3.148   3.227   4.134 -0.1289  2.5919 -0.9669
18570SOL     OW64677   6.686   4.011   7.236  0.2041  0.1407  0.3002
18570SOL    HW164678   6.618   3.955   7.273  0.6157 -0.6413 -0.1142
18570SOL    HW264679   6.767   3.962   7.247  0.6020  0.7422  0.1175
18571SOL     OW64680   2.088  11.843   5.982  0.0267 -0.3881 -0.4285
18571SOL    HW164681   2.012  11.789   5.960 -0.6257  0.8251 -1.2709
18571SOL    HW264682   2.128  11.865   5.898 -0.5665  1.5899 -0.2497
18572SOL     OW64683  11.692   0.244  10.017  0.3653 -1.0150 -0.0939
18572SOL    HW164684  11.743   0.240  10.098  0.0111  1.4176  0.3490
18572SOL    HW264685  11.733   0.314   9.967 -2.2739  0.8820  0.1738
18573SOL     OW64686   5.929   5.680   6.091 -0.0061 -0.7650  0.1814
18573SOL    HW164687   6.021   5.669   6.115  0.5839  0.8612 -1.1920
18573SOL    HW264688   5.930   5.737   6.015 -2.1639 -0.8425  0.0245
18574SOL     OW64689  12.339   8.683  10.841 -0.3070 -0.1097  0.4202
18574SOL    HW164690  12.358   8.623  10.769  0.2990  0.4878  0.0791
18574SOL    HW264691  12.296   8.628  10.906 -0.7180 -0.6879 -0.3284
18575SOL     OW64692   2.774   0.394  10.656 -0.7577 -0.3691 -0.4546
18575SOL    HW164693   2.854   0.351  10.685 -0.5129  0.9758  1.0176
18575SOL    HW264694   2.804   0.460  10.593 -0.4299  1.2660  1.3152
18576SOL     OW64695   1.955   2.963  12.412 -0.4054 -0.0150 -0.2245
18576SOL    HW164696   1.930   2.874  12.386  0.9787 -0.5801  0.2675
18576SOL    HW264697   2.043   2.953  12.449  0.4364  1.7945 -1.6028
18577SOL     OW64698   7.034   3.895   2.556  0.3681 -0.7966  0.3085
18577SOL    HW164699   7.016   3.837   2.630 -0.3580 -0.4280  0.4283
18577SOL    HW264700   6.959   3.883   2.498  1.0809 -1.3282 -0.5389
18578SOL     OW64701   3.548   4.259   2.359 -0.0368  0.0370 -0.4612
18578SOL    HW164702   3.483   4.235   2.425  1.1986 -0.2150  0.6937
18578SOL    HW264703   3.565   4.352   2.375  0.1723  0.0071 -0.5015
18579SOL     OW64704   4.882   9.466   2.102 -0.1185  0.2478  0.4660
18579SOL    HW164705   4.818   9.505   2.162 -0.7776  0.4264 -0.3393
18579SOL    HW264706   4.862   9.373   2.103  1.3311 -0.1022  2.2393
18580SOL     OW64707  10.480  11.927   1.139  0.1022 -0.2294 -0.3395
18580SOL    HW164708  10.516  11.941   1.227 -2.6512 -1.7287  1.1805
18580SOL    HW264709  10.469  11.832   1.133 -4.6727  0.0428  0.0362
18581SOL     OW64710  11.002   8.763   4.994 -0.1572 -0.2106  0.4611
18581SOL    HW164711  10.970   8.768   4.904 -0.1813  0.1117  0.4887
18581SOL    HW264712  10.978   8.675   5.023  0.1140 -0.4278  0.0507
18582SOL     OW64713   0.546   4.352   9.753  0.0669 -0.2567 -0.1525
18582SOL    HW164714   0.626   4.394   9.723 -0.5023  0.3394 -0.8931
18582SOL    HW264715   0.548   4.265   9.713  0.8953 -0.6851  0.7860
18583SOL     OW64716  10.434   1.257   3.420 -0.2664  0.2009 -0.0982
18583SOL    HW164717  10.403   1.177   3.379  1.7461 -0.7652  0.1644
18583SOL    HW264718  10.451   1.233   3.511  4.0860 -0.3099 -0.8373
18584SOL     OW64719  11.315   4.133   8.674  0.2871  0.4117  0.1978
18584SOL    HW164720  11.333   4.137   8.768  0.9828 -2.2056  0.2747
18584SOL    HW264721  11.223   4.157   8.666  0.3717  1.2431  1.4751
18585SOL     OW64722   8.453   7.497   2.207 -0.2230  0.3252  0.5238
18585SOL    HW164723   8.486   7.450   2.284 -0.8508 -1.6096 -0.3229
18585SOL    HW264724   8.373   7.540   2.238 -1.2364 -1.5653  0.6834
18586SOL     OW64725   5.785   9.722   6.876  0.1589 -0.0625 -0.1726
18586SOL    HW164726   5.744   9.757   6.955  0.3279 -0.2187 -0.0169
18586SOL    HW264727   5.789   9.628   6.890 -0.0190 -0.1143 -0.4656
18587SOL     OW64728  12.090   4.863   5.438 -0.2637 -0.5175  0.1702
18587SOL    HW164729  12.096   4.944   5.488  0.9083  0.2946 -1.2012
18587SOL    HW264730  12.035   4.885   5.362 -1.1160 -1.4180  0.5028
18588SOL     OW64731   5.186   2.291   7.671  0.5711 -0.2917 -0.1053
18588SOL    HW164732   5.091   2.280   7.664  0.7841 -2.3198 -0.2799
18588SOL    HW264733   5.200   2.320   7.761 -0.1097 -1.5857  0.4397
18589SOL     OW64734   4.848  11.243  10.448 -0.0132 -0.1019  0.6435
18589SOL    HW164735   4.907  11.185  10.400  1.3011  1.8974 -0.2910
18589SOL    HW264736   4.903  11.280  10.517 -0.7650  0.2348  1.0694
18590SOL     OW64737   7.860  11.309   4.474  0.2658  0.0838 -0.0469
18590SOL    HW164738   7.775  11.295   4.516 -0.9338  2.3098 -1.5096
18590SOL    HW264739   7.916  11.342   4.544 -0.1318 -1.1715  0.8859
18591SOL     OW64740   9.284   0.341   3.456  0.1504 -0.5469  0.1041
18591SOL    HW164741   9.195   0.355   3.488  0.1908 -0.6390  0.2627
18591SOL    HW264742   9.280   0.361   3.363  0.5259  1.9264  0.5640
18592SOL     OW64743   0.055   9.605   3.070 -0.3839 -0.5708 -0.5255
18592SOL    HW164744   0.088   9.554   3.144 -0.1347  1.4928  0.8543
18592SOL    HW264745   0.037   9.539   3.003 -0.3608 -2.5062  1.2392
18593SOL     OW64746  11.611   7.018  10.973  0.0153 -0.2315 -0.3508
18593SOL    HW164747  11.671   7.089  10.950  0.5690 -0.8941 -1.0022
18593SOL    HW264748  11.616   7.012  11.068 -0.1965  0.7342 -0.2724
18594SOL     OW64749   7.908   4.409   7.977 -0.0423  0.0019 -0.6204
18594SOL    HW164750   7.965   4.452   8.041  0.2607 -0.2354 -0.7294
18594SOL    HW264751   7.820   4.420   8.013  0.2028 -0.9749  0.3384
18595SOL     OW64752   4.441   8.067   1.011 -0.1827 -0.1357  0.2027
18595SOL    HW164753   4.444   8.050   1.105  1.0576 -0.2924  0.1595
18595SOL    HW264754   4.521   8.117   0.993 -0.4397 -0.0438 -0.7562
18596SOL     OW64755  11.523   2.116   7.384 -0.5178  0.1575  0.0455
18596SOL    HW164756  11.433   2.147   7.369 -0.9344 -0.8562  0.3541
18596SOL    HW264757  11.535   2.046   7.320 -0.4371 -0.6221  0.8978
18597SOL     OW64758   2.165   7.979   1.479 -0.1775  0.5489  0.2432
18597SOL    HW164759   2.237   8.002   1.420 -0.7295  1.8213  0.0218
18597SOL    HW264760   2.208   7.964   1.563  0.3158  1.9699  0.2791
18598SOL     OW64761  12.431   0.924   3.172  0.1305 -0.1321 -0.0331
18598SOL    HW164762  12.459   1.001   3.123  1.6315 -0.0490  0.9047
18598SOL    HW264763  12.405   0.861   3.105  3.8592 -0.7221 -1.1140
18599SOL     OW64764   4.313   0.805   1.283  1.0914 -0.1486  0.6403
18599SOL    HW164765   4.235   0.842   1.242  1.8345  0.2841 -0.4191
18599SOL    HW264766   4.281   0.728   1.330  0.1802 -0.5754 -0.6251
18600SOL     OW64767   9.106   8.634   2.192 -0.2820 -0.6396  0.0348
18600SOL    HW164768   9.154   8.625   2.110  0.4447  3.3192 -0.1663
18600SOL    HW264769   9.015   8.645   2.165 -0.1470 -0.0798 -0.2022
18601SOL     OW64770   2.083   7.337   5.419 -0.1345  0.1107 -0.1928
18601SOL    HW164771   2.142   7.273   5.380  0.1504 -0.0631  0.5127
18601SOL    HW264772   2.081   7.315   5.512  0.9347  1.8831  0.2932
18602SOL     OW64773   6.381   0.490   2.106  0.1014  0.5438  0.1709
18602SOL    HW164774   6.318   0.467   2.175  0.1901 -0.8123 -0.1637
18602SOL    HW264775   6.465   0.495   2.152  0.1905 -0.5417  0.1659
18603SOL     OW64776   2.083   7.871  11.155 -0.1973 -0.7148  0.5444
18603SOL    HW164777   2.113   7.956  11.188 -0.6129 -0.7919  1.1348
18603SOL    HW264778   2.032   7.834  11.226 -1.5378 -0.6698 -0.3626
18604SOL     OW64779   0.251  12.169  11.235  0.3114 -0.4879  0.0865
18604SOL    HW164780   0.340  12.205  11.233 -0.4732  1.5875 -1.7523
18604SOL    HW264781   0.234  12.142  11.145 -0.4633 -2.2003  0.7088
18605SOL     OW64782   2.147   9.420   2.028  0.2424 -0.3052 -0.1942
18605SOL    HW164783   2.190   9.499   1.995  0.0365 -0.0856  0.0521
18605SOL    HW264784   2.189   9.404   2.113 -0.9075  0.5602  0.5753
18606SOL     OW64785   7.980   2.140   5.574  0.0885  0.2264  0.2005
18606SOL    HW164786   8.034   2.214   5.603 -0.8783  0.4447  1.5483
18606SOL    HW264787   7.898   2.150   5.622 -0.5166 -1.0633 -0.5074
18607SOL     OW64788   3.498  12.169   8.021  0.1348 -0.3162 -0.3882
18607SOL    HW164789   3.575  12.220   7.994 -0.3932  0.8008  0.1661
18607SOL    HW264790   3.527  12.122   8.099  0.2332  0.1375 -0.1508
18608SOL     OW64791  11.705   3.771   7.637 -0.6616 -0.1274  0.5740
18608SOL    HW164792  11.688   3.737   7.549 -1.1946  0.0229  0.6147
18608SOL    HW264793  11.618   3.788   7.673 -0.4910 -1.0117  1.4564
18609SOL     OW64794  10.821   8.554  10.171  0.2933  0.6186  0.4111
18609SOL    HW164795  10.910   8.558  10.136  0.1143  0.1306 -0.1267
18609SOL    HW264796  10.808   8.638  10.214  1.2004  0.4922  0.9582
18610SOL     OW64797  12.480  10.461  12.095  0.0310  0.0908 -0.6429
18610SOL    HW164798  12.467  10.521  12.169 -1.2057 -1.2147  0.2424
18610SOL    HW264799  12.450  10.512  12.019 -1.0217  0.6032  0.0893
18611SOL     OW64800   3.271   3.249  12.464  0.3744  0.4875  0.0460
18611SOL    HW164801   3.336   3.304  12.507 -0.2817  0.6548  0.8345
18611SOL    HW264802   3.204   3.235  12.530  1.2603 -2.6181  0.4551
18612SOL     OW64803   1.244   6.281   8.910  0.5066  0.7282  0.3630
18612SOL    HW164804   1.246   6.361   8.858  2.7146  1.2580  1.1567
18612SOL    HW264805   1.241   6.311   9.001 -0.4688 -0.1337  0.6364
18613SOL     OW64806   9.194   5.083  11.142  0.3156  0.7038  0.1126
18613SOL    HW164807   9.206   5.176  11.157  1.2046  0.3489  1.8909
18613SOL    HW264808   9.250   5.041  11.206 -1.5644 -1.0729  0.7118
18614SOL     OW64809   8.767   3.340   8.202 -0.2964 -0.2658 -0.3517
18614SOL    HW164810   8.769   3.270   8.267 -1.9324 -0.4199 -0.4496
18614SOL    HW264811   8.819   3.410   8.242 -0.6525 -0.6365  0.7990
18615SOL     OW64812   6.736   6.912   3.196 -0.2145 -0.2634  0.1390
18615SOL    HW164813   6.740   6.824   3.233  1.2483 -0.8128 -1.1874
18615SOL    HW264814   6.817   6.920   3.145 -0.0607  2.0405  0.6128
18616SOL     OW64815  10.919   2.763   4.157  0.0770  0.8861  0.3015
18616SOL    HW164816  10.974   2.842   4.161 -0.8928  1.5569  0.8113
18616SOL    HW264817  10.835   2.794   4.124  0.1129 -0.2117 -0.9014
18617SOL     OW64818   5.071   0.696   1.486  0.0302  0.2129 -0.5386
18617SOL    HW164819   5.142   0.645   1.525  0.1185  0.8075  0.1081
18617SOL    HW264820   5.021   0.633   1.434  0.4634 -0.4116 -0.2080
18618SOL     OW64821  10.831   0.198   6.660  0.4679 -0.4516 -0.0376
18618SOL    HW164822  10.838   0.219   6.753 -0.1978 -2.2005  0.4512
18618SOL    HW264823  10.922   0.193   6.630  0.6811  1.0159  0.2567
18619SOL     OW64824   6.207   0.263   3.893  0.0608 -0.7788 -0.0996
18619SOL    HW164825   6.254   0.196   3.942  0.4177 -0.3445  0.1603
18619SOL    HW264826   6.173   0.323   3.959  0.4981 -0.2172 -0.3677
18620SOL     OW64827   9.009   7.214   1.501 -0.1817  0.5774  0.6694
18620SOL    HW164828   8.976   7.152   1.436 -1.1361  2.3657 -0.6365
18620SOL    HW264829   9.104   7.202   1.499 -0.2695 -0.1104 -0.3442
18621SOL     OW64830   4.872   2.210  12.419 -0.9482  0.0514  0.4687
18621SOL    HW164831   4.930   2.219  12.494 -0.2313  0.6403 -0.1428
18621SOL    HW264832   4.910   2.140  12.366 -1.8440 -0.8505  0.9954
18622SOL     OW64833   4.036   7.947   3.126 -0.0465 -0.1625  0.3575
18622SOL    HW164834   4.017   8.040   3.115  0.0075 -0.1462  0.4002
18622SOL    HW264835   3.968   7.902   3.075  0.8435 -0.0638 -0.9531
18623SOL     OW64836   3.653   3.358   6.948  0.1278  0.5159  0.2924
18623SOL    HW164837   3.695   3.381   7.031 -0.5670  0.3971  0.6916
18623SOL    HW264838   3.677   3.429   6.888  0.9033  0.4304  0.5031
18624SOL     OW64839   6.946  12.102   8.977  0.3661  0.1880 -0.3779
18624SOL    HW164840   6.957  12.197   8.976 -0.9878  0.3962  0.9320
18624SOL    HW264841   6.888  12.085   9.051  3.4284 -1.9865  1.7663
18625SOL     OW64842   5.918   9.563   9.007  0.2011  0.4677  0.4022
18625SOL    HW164843   5.888   9.533   9.092 -1.0866  3.4796  1.1576
18625SOL    HW264844   5.842   9.556   8.950  0.7930 -0.6530 -0.2732
18626SOL     OW64845   8.985   6.641   8.953 -0.3855 -0.6326  0.2636
18626SOL    HW164846   8.960   6.553   8.980 -1.5655  0.3342  2.5836
18626SOL    HW264847   9.080   6.643   8.962 -0.3579 -1.6050  0.3026
18627SOL     OW64848   2.899   2.953   7.614 -0.2244 -0.2581  0.3944
18627SOL    HW164849   2.926   2.911   7.696 -3.6190  0.2286  1.9409
18627SOL    HW264850   2.894   3.046   7.636 -2.7868 -0.2913  0.2448
18628SOL     OW64851  12.055   8.185   5.815  0.2074 -0.5357  0.1493
18628SOL    HW164852  12.067   8.165   5.722 -1.1291  0.2015 -0.2139
18628SOL    HW264853  11.968   8.225   5.820 -0.4739 -2.0808  1.9613
18629SOL     OW64854  10.799   9.425   1.264 -0.4915 -0.4327  0.2432
18629SOL    HW164855  10.760   9.484   1.329 -2.4047 -1.7164  0.3360
18629SOL    HW264856  10.891   9.421   1.287 -0.6717  1.0664  1.3523
18630SOL     OW64857   9.847   5.227   0.398  0.0156  0.0530 -0.1971
18630SOL    HW164858   9.917   5.165   0.377  0.9399  0.8352  0.5399
18630SOL    HW264859   9.766   5.181   0.373  0.8307 -0.4622 -2.0462
18631SOL     OW64860   3.739   1.415  10.710  0.1693 -0.8293 -0.1712
18631SOL    HW164861   3.691   1.480  10.660  1.5164 -2.7531 -4.4186
18631SOL    HW264862   3.671   1.365  10.757 -1.2673  0.6156 -0.6524
18632SOL     OW64863   4.804   8.836   3.391  0.6277  0.4197 -0.4920
18632SOL    HW164864   4.791   8.909   3.331  0.1848 -0.0874 -1.0220
18632SOL    HW264865   4.799   8.758   3.336  2.2324  0.0098 -0.1267
18633SOL     OW64866  11.527   4.197   8.493  0.1893  0.2462 -0.0298
18633SOL    HW164867  11.456   4.138   8.517  0.7337 -0.3351  0.1772
18633SOL    HW264868  11.538   4.254   8.570 -0.3663  0.6557 -0.2478
18634SOL     OW64869   0.865   1.449   0.630  0.7285 -0.4285 -0.5133
18634SOL    HW164870   0.919   1.451   0.551  0.0567 -1.1333 -1.0102
18634SOL    HW264871   0.886   1.530   0.676  0.1774  0.6633 -2.0802
18635SOL     OW64872  10.246   6.225   4.904  0.6223 -0.3057 -0.1780
18635SOL    HW164873  10.229   6.320   4.908 -2.7914 -0.7821  0.1381
18635SOL    HW264874  10.325   6.217   4.852  0.5203  2.6950 -1.0167
18636SOL     OW64875   0.550  12.078   7.509 -0.3317  0.5270  0.3190
18636SOL    HW164876   0.534  12.043   7.421  1.4902 -3.0499  1.1972
18636SOL    HW264877   0.606  12.154   7.495  1.5553 -1.0934 -1.6692
18637SOL     OW64878   8.595  12.166   0.270 -0.3949 -0.2629 -0.2318
18637SOL    HW164879   8.506  12.163   0.305  0.2040 -0.4758  1.3589
18637SOL    HW264880   8.589  12.226   0.195 -1.4746  1.4129  1.1069
18638SOL     OW64881   5.574   9.426   5.237  0.4871 -0.4363 -0.0382
18638SOL    HW164882   5.641   9.403   5.302  0.2594 -1.6052 -0.1908
18638SOL    HW264883   5.559   9.344   5.189  0.4158  0.3325 -1.3483
18639SOL     OW64884  10.362  10.069   6.371  0.0394  0.1248  0.1345
18639SOL    HW164885  10.424  10.067   6.298  0.6234  1.1521  0.5792
18639SOL    HW264886  10.304  10.143   6.350  0.3591  0.5758  0.8182
18640SOL     OW64887   9.207   4.942  12.003  0.0918 -0.2541 -0.2884
18640SOL    HW164888   9.168   4.927  12.090 -0.1629 -0.8732 -0.5014
18640SOL    HW264889   9.139   4.915  11.941  0.4667 -0.3197 -0.6729
18641SOL     OW64890  11.869   0.993   7.274  0.0605  0.1008 -0.6821
18641SOL    HW164891  11.867   1.080   7.312  1.7387 -0.6544  1.3458
18641SOL    HW264892  11.952   0.955   7.304 -0.4307 -2.0552 -1.8148
18642SOL     OW64893  11.217   8.019   5.523 -0.4962 -0.5255 -0.6009
18642SOL    HW164894  11.231   8.024   5.429  1.2483 -0.1941 -0.3454
18642SOL    HW264895  11.192   7.928   5.540  1.6597 -1.2448 -1.0926
18643SOL     OW64896   9.219   7.937   8.050 -0.4801 -0.4861 -0.1672
18643SOL    HW164897   9.217   7.964   7.958 -0.4819  0.1865  0.0189
18643SOL    HW264898   9.312   7.935   8.071 -0.5049  0.3255  0.0742
18644SOL     OW64899  10.997   1.987   2.129  0.1923 -0.9429  0.2927
18644SOL    HW164900  10.984   1.897   2.101  3.2710 -0.3801 -3.9019
18644SOL    HW264901  10.958   2.040   2.060 -0.3786  1.0268  1.9946
18645SOL     OW64902   1.695   3.374   4.785  0.1483 -0.5221  0.5336
18645SOL    HW164903   1.724   3.285   4.805 -1.0898 -1.3852 -1.2629
18645SOL    HW264904   1.772   3.428   4.800  1.7583 -2.2805 -0.9342
18646SOL     OW64905   2.987   8.222   5.220 -0.0318  0.1347 -0.7316
18646SOL    HW164906   3.007   8.299   5.273 -0.1987  0.5726 -1.2892
18646SOL    HW264907   3.071   8.178   5.208  0.0697  0.2517 -0.4436
18647SOL     OW64908   3.183   9.409   1.843 -0.0129 -0.1371 -0.1130
18647SOL    HW164909   3.121   9.426   1.771 -0.9051 -1.3803  0.3144
18647SOL    HW264910   3.128   9.406   1.921  0.6804 -0.6209  0.3687
18648SOL     OW64911   9.513   6.807  11.413 -0.6647 -0.5092 -0.0057
18648SOL    HW164912   9.533   6.866  11.340 -0.3611  0.4713  0.8314
18648SOL    HW264913   9.418   6.812  11.423 -0.6909 -0.5363 -0.2536
18649SOL     OW64914   5.702   2.760   5.756 -0.2845 -0.6053 -0.3060
18649SOL    HW164915   5.655   2.677   5.764 -1.5857  0.1950  0.9088
18649SOL    HW264916   5.633   2.826   5.761  0.9521  0.6284  1.4924
18650SOL     OW64917  12.031   3.273   9.422 -0.4914 -0.0053 -0.7885
18650SOL    HW164918  11.963   3.270   9.490  1.0776 -1.3762  0.8135
18650SOL    HW264919  12.081   3.352   9.442  1.2321 -1.4674  1.0392
18651SOL     OW64920   8.437   4.477   6.828  0.2892  0.1670 -0.3050
18651SOL    HW164921   8.385   4.463   6.748  0.5741  0.0556 -0.4715
18651SOL    HW264922   8.446   4.390   6.866 -2.0543  0.5115  1.2547
18652SOL     OW64923   4.593   5.661   0.175  0.4708 -0.3980  0.0296
18652SOL    HW164924   4.532   5.726   0.210 -0.2885 -0.8942 -0.3408
18652SOL    HW264925   4.612   5.603   0.249 -0.2540 -0.7894 -0.0796
18653SOL     OW64926   8.772   6.296   3.863 -0.0653  0.0746  0.2043
18653SOL    HW164927   8.816   6.228   3.914 -0.6703 -1.4319 -1.1701
18653SOL    HW264928   8.679   6.274   3.868 -0.0827 -0.9758 -2.5309
18654SOL     OW64929   6.353  10.429  12.335  0.0869  0.4865  0.3514
18654SOL    HW164930   6.284  10.478  12.380 -2.1671 -1.0252 -1.2375
18654SOL    HW264931   6.349  10.342  12.373  2.6221  0.8479  1.6700
18655SOL     OW64932   8.347   1.376  10.579  0.1867  0.2799  0.3155
18655SOL    HW164933   8.367   1.283  10.568  2.0439  0.5823  0.8802
18655SOL    HW264934   8.354   1.412  10.491 -0.2791 -0.0570  0.1353
18656SOL     OW64935   1.516  11.462   9.057  0.4318  0.0674 -0.1309
18656SOL    HW164936   1.606  11.441   9.081  0.4634 -0.1578 -0.4396
18656SOL    HW264937   1.518  11.474   8.963 -0.0138 -0.7648 -0.2624
18657SOL     OW64938   3.570  12.321   1.065  0.2606 -0.0284 -0.1631
18657SOL    HW164939   3.555  12.412   1.089  1.0836  0.0711 -0.0019
18657SOL    HW264940   3.502  12.302   1.000 -0.4190  0.4474  0.4050
18658SOL     OW64941   9.550   7.424   2.011 -0.2429  0.7431  0.2668
18658SOL    HW164942   9.531   7.331   2.024  1.3313  0.6473  2.4444
18658SOL    HW264943   9.472   7.469   2.045 -1.1901  0.2705 -1.1758
18659SOL     OW64944  12.012   5.938   2.397  0.0672 -0.2221 -0.1727
18659SOL    HW164945  12.024   5.867   2.334  1.0471 -1.0329  0.8793
18659SOL    HW264946  12.099   5.953   2.434 -0.2661  1.0209  0.1781
18660SOL     OW64947  10.847   5.867   0.255  0.3835 -0.3376  0.1733
18660SOL    HW164948  10.754   5.846   0.262  0.5148 -1.4001 -0.9314
18660SOL    HW264949  10.855   5.955   0.291 -0.5754 -1.2592  2.8971
18661SOL     OW64950   5.830   5.555   6.567  0.2981 -0.2439 -0.1883
18661SOL    HW164951   5.832   5.481   6.507 -1.6546 -1.4481  1.0979
18661SOL    HW264952   5.844   5.632   6.512  0.2188 -1.4011 -1.8931
18662SOL     OW64953  12.146   0.262   5.086  0.2010 -0.2669  0.1102
18662SOL    HW164954  12.100   0.184   5.116  0.6857 -1.1340 -1.3034
18662SOL    HW264955  12.127   0.329   5.152 -0.3351 -1.5356  1.2726
18663SOL     OW64956   2.944   1.997   7.564  0.2636 -0.1305 -0.1627
18663SOL    HW164957   3.013   1.961   7.620  3.1210  1.3435 -2.4747
18663SOL    HW264958   2.948   1.944   7.484  0.9729  1.9167 -1.5597
18664SOL     OW64959   4.527   4.323   3.940 -0.1451 -0.4495 -0.0704
18664SOL    HW164960   4.526   4.233   3.905  1.0094 -0.3236 -0.4599
18664SOL    HW264961   4.615   4.335   3.973 -0.3489  0.4937  0.1522
18665SOL     OW64962   0.988   9.905   5.012  0.0068 -0.2599 -0.3394
18665SOL    HW164963   1.020   9.874   5.097  0.6637 -0.5145 -0.6693
18665SOL    HW264964   0.902   9.864   5.002  1.0973 -2.5992 -1.0514
18666SOL     OW64965   6.954   6.660   3.160  0.5034 -0.6263  0.4532
18666SOL    HW164966   6.872   6.641   3.205  0.9746  0.0968  1.6718
18666SOL    HW264967   7.008   6.582   3.173  0.9527 -0.1084  1.9544
18667SOL     OW64968   3.333   5.619   2.860  0.0737  0.4929  0.1136
18667SOL    HW164969   3.252   5.640   2.814  0.0812  1.4527  0.5174
18667SOL    HW264970   3.401   5.665   2.811  0.2406  0.5149  0.3637
18668SOL     OW64971   1.260   1.413  10.662 -0.4755 -0.4534  0.4326
18668SOL    HW164972   1.231   1.446  10.747  0.9658  0.4876  0.6062
18668SOL    HW264973   1.311   1.486  10.625  0.6368 -1.5763 -0.3192
18669SOL     OW64974  12.407   2.172   1.139  0.0047 -0.8024  0.1816
18669SOL    HW164975  12.434   2.172   1.047 -1.7207  1.2626 -0.3910
18669SOL    HW264976  12.484   2.203   1.186  0.0067  1.0373 -0.9381
18670SOL     OW64977  11.519   2.183   0.475  0.7966  0.3686  0.4520
18670SOL    HW164978  11.478   2.139   0.549  1.9274 -1.7707 -0.0945
18670SOL    HW264979  11.606   2.144   0.470  0.1213 -1.0736 -3.1477
18671SOL     OW64980  10.688   4.565   3.707  0.0597 -0.1953 -0.1256
18671SOL    HW164981  10.716   4.474   3.721  1.8105 -0.2167 -3.0800
18671SOL    HW264982  10.658   4.593   3.793 -3.4088 -4.4432  0.4304
18672SOL     OW64983  10.929   8.308   9.241 -0.5064  0.0570  0.0900
18672SOL    HW164984  10.899   8.286   9.329 -2.1393  0.2540 -0.3831
18672SOL    HW264985  10.891   8.240   9.185  1.0200 -0.4156 -0.4041
18673SOL     OW64986   5.086  10.021   2.927 -0.8525  0.2649 -0.4270
18673SOL    HW164987   5.016   9.984   2.873  1.4235 -1.3250 -2.4968
18673SOL    HW264988   5.112   9.948   2.984 -1.0300  0.9470  0.5541
18674SOL     OW64989   9.811   3.466   3.673 -0.4932  0.4626 -0.1877
18674SOL    HW164990   9.785   3.557   3.684 -0.7470  0.3927 -0.2123
18674SOL    HW264991   9.734   3.415   3.700 -0.4561  0.2598 -0.4615
18675SOL     OW64992   3.834   0.219   8.679  0.7813  0.2704 -0.8661
18675SOL    HW164993   3.873   0.270   8.608  0.9491  0.4604 -0.6352
18675SOL    HW264994   3.836   0.277   8.754  2.3611 -0.5823 -0.1990
18676SOL     OW64995   9.212   1.400   4.983  0.8080 -0.1902  0.0091
18676SOL    HW164996   9.165   1.462   5.038  1.3767  0.4027 -0.1686
18676SOL    HW264997   9.234   1.328   5.042  0.7420  0.0877  0.3753
18677SOL     OW64998   3.609   1.107   1.617  0.0760 -0.0107 -0.2562
18677SOL    HW164999   3.575   1.197   1.617 -0.1858 -0.0933 -1.3516
18677SOL    HW265000   3.703   1.117   1.625  0.2087  0.4735 -1.9489
18678SOL     OW65001   5.149   2.788   3.057 -0.1476  0.2494  0.0307
18678SOL    HW165002   5.183   2.802   2.969  0.2471  0.8082  0.2590
18678SOL    HW265003   5.146   2.876   3.095  0.2932 -0.0481  0.7825
18679SOL     OW65004   5.996   2.399   2.292  0.1275 -0.3729 -0.4038
18679SOL    HW165005   6.059   2.406   2.221  0.4694  0.1165 -0.0603
18679SOL    HW265006   5.945   2.481   2.288 -0.8504 -0.9855 -1.0071
18680SOL     OW65007   6.817   3.501   8.332 -0.3929 -0.3171 -0.8307
18680SOL    HW165008   6.871   3.448   8.275 -0.6272 -0.6334 -0.7617
18680SOL    HW265009   6.772   3.438   8.388  0.5451  0.0184  0.3490
18681SOL     OW65010   9.507   1.570   6.911 -0.5805  0.0826  0.0498
18681SOL    HW165011   9.418   1.589   6.942 -0.8993 -0.3603 -0.5804
18681SOL    HW265012   9.514   1.475   6.917 -0.2945  0.0815 -0.2981
18682SOL     OW65013   0.330  11.613   5.740  0.0283 -0.2392  0.4948
18682SOL    HW165014   0.249  11.664   5.741  0.5531  0.6086  0.2315
18682SOL    HW265015   0.309  11.534   5.791 -0.9621 -0.0342  0.4201
18683SOL     OW65016  12.330  10.653   4.376 -0.0466  0.4291 -0.1638
18683SOL    HW165017  12.245  10.686   4.403  0.3697  1.0994  0.3587
18683SOL    HW265018  12.387  10.730   4.376  0.4162  0.0972 -1.1050
18684SOL     OW65019  11.356   9.507   2.219 -0.2494 -0.4678  0.3546
18684SOL    HW165020  11.299   9.442   2.260  0.1681  0.2110  2.1166
18684SOL    HW265021  11.296   9.576   2.190 -0.4558 -0.3229  1.0948
18685SOL     OW65022  11.142   0.323   5.828 -0.0230 -0.3101 -0.2937
18685SOL    HW165023  11.190   0.357   5.903 -0.6607 -1.9450  0.9112
18685SOL    HW265024  11.164   0.382   5.756 -0.3552  2.0520  1.4434
18686SOL     OW65025   0.777   1.404  11.014 -0.1553 -0.2396  0.3873
18686SOL    HW165026   0.752   1.375  10.926  2.5641 -1.4667 -0.0745
18686SOL    HW265027   0.799   1.496  11.003 -2.3041  0.3497  0.4213
18687SOL     OW65028   9.906   8.928   9.254  0.0243  0.0741 -0.0401
18687SOL    HW165029   9.994   8.904   9.224  1.2143  0.4183  2.9076
18687SOL    HW265030   9.909   9.024   9.263 -1.1428  0.2550 -1.1724
18688SOL     OW65031   7.623   3.510   2.020 -0.1498  0.0709  0.1638
18688SOL    HW165032   7.606   3.442   2.085 -0.7182  1.3997  1.4752
18688SOL    HW265033   7.536   3.538   1.993  0.0857 -0.1633 -0.8560
18689SOL     OW65034   9.907  10.741   5.817 -0.0023 -0.0512  0.6366
18689SOL    HW165035   9.840  10.798   5.855  0.0783  0.2759  0.2827
18689SOL    HW265036   9.932  10.683   5.889 -1.3113 -0.7792  0.5405
18690SOL     OW65037  11.908  12.061   7.215  0.3829 -0.2060 -0.4230
18690SOL    HW165038  11.951  12.081   7.133  0.0537 -1.1731 -0.8487
18690SOL    HW265039  11.845  11.992   7.193  0.8987 -1.0956  0.7880
18691SOL     OW65040   5.153   5.241   1.033  0.0228 -0.1649  0.1224
18691SOL    HW165041   5.142   5.307   0.964 -1.4336  0.6644  1.1114
18691SOL    HW265042   5.214   5.178   0.995 -0.1960  0.6290 -1.6644
18692SOL     OW65043   4.806   2.072   1.027  0.3988 -0.4126 -0.4568
18692SOL    HW165044   4.850   2.024   0.957  1.1526  2.0174 -1.7830
18692SOL    HW265045   4.717   2.085   0.995  1.1075  1.8937 -1.7410
18693SOL     OW65046   2.798   8.735  10.175  0.3621 -0.7125 -0.1050
18693SOL    HW165047   2.735   8.663  10.178  1.6706 -1.9405 -0.6312
18693SOL    HW265048   2.796   8.774  10.262 -0.0789 -1.6617  0.3156
18694SOL     OW65049   1.894   5.865   4.569  0.5587 -0.5876 -0.0081
18694SOL    HW165050   1.806   5.894   4.593  0.3997 -1.9520  1.1699
18694SOL    HW265051   1.891   5.855   4.474 -0.4663 -0.3121 -0.0123
18695SOL     OW65052  10.680   4.151  10.853  0.0108  0.3497 -0.3117
18695SOL    HW165053  10.717   4.142  10.766 -0.7519  0.9272 -0.7162
18695SOL    HW265054  10.586   4.161  10.838 -0.4869 -2.0188  0.7282
18696SOL     OW65055   1.748   8.094  12.508 -0.3188 -0.0924 -0.4181
18696SOL    HW165056   1.775   8.016  12.458  1.7598 -1.2039  2.2153
18696SOL    HW265057   1.674   8.063  12.561  0.4373 -0.2871  0.5466
18697SOL     OW65058   8.818   2.899  10.538  0.2235 -0.0391 -0.1569
18697SOL    HW165059   8.785   2.939  10.458  0.3725  1.9109  0.6773
18697SOL    HW265060   8.745   2.902  10.599  0.5247 -0.1885  0.2184
18698SOL     OW65061  11.716   6.173   6.434  0.2897  0.8104  0.2363
18698SOL    HW165062  11.763   6.181   6.351  0.3212  0.4052  0.2127
18698SOL    HW265063  11.694   6.080   6.440 -0.3920  0.9683  0.3104
18699SOL     OW65064   3.968   8.898   6.393  0.7375  0.1088 -0.2773
18699SOL    HW165065   3.902   8.833   6.415  0.2063  0.3500 -1.0879
18699SOL    HW265066   4.009   8.921   6.476  0.2042 -0.4759  0.1528
18700SOL     OW65067  10.216   5.787  11.717 -0.2992  0.2734  0.6155
18700SOL    HW165068  10.211   5.738  11.635 -2.3430  1.0040  0.2463
18700SOL    HW265069  10.303   5.768  11.751  0.7081  0.1517 -1.8367
18701SOL     OW65070   4.962   4.418   8.552  0.5620  0.2683  0.8859
18701SOL    HW165071   5.002   4.495   8.512  2.5326  0.2200  2.6372
18701SOL    HW265072   4.932   4.365   8.477 -0.4513  2.4556 -0.3581
18702SOL     OW65073   6.040   3.962   1.671  0.5720  0.5457  0.6002
18702SOL    HW165074   6.067   3.992   1.584 -0.5558  0.1335  0.0814
18702SOL    HW265075   6.049   3.866   1.666 -2.8273  0.1593 -0.3300
18703SOL     OW65076   1.290   9.791   2.528 -0.3823  0.3918 -0.0897
18703SOL    HW165077   1.257   9.800   2.617  0.3955 -0.7396  0.3271
18703SOL    HW265078   1.220   9.744   2.481 -0.4012  0.1663  0.1617
18704SOL     OW65079   8.374   7.494   7.693 -0.2272 -0.0630  0.6811
18704SOL    HW165080   8.464   7.496   7.726  0.3875  0.0179 -0.8802
18704SOL    HW265081   8.380   7.538   7.607 -1.9083  0.6536  0.8963
18705SOL     OW65082   7.391  10.155   4.827  0.0931  0.1707 -0.4631
18705SOL    HW165083   7.345  10.214   4.767  0.2514  0.0579 -0.6939
18705SOL    HW265084   7.483  10.163   4.804  0.3143  1.1943  0.6991
18706SOL     OW65085   0.743   0.632   5.515 -0.2821 -0.1870 -0.3165
18706SOL    HW165086   0.820   0.656   5.463 -1.2841  1.2049 -1.2450
18706SOL    HW265087   0.737   0.701   5.582 -1.6675  0.7428 -1.3323
18707SOL     OW65088   7.851  11.313  10.730  0.3587 -0.0466 -0.6524
18707SOL    HW165089   7.804  11.277  10.655  0.8097 -1.0082 -0.4923
18707SOL    HW265090   7.784  11.359  10.781 -0.1111 -0.1014 -1.2138
18708SOL     OW65091   6.829   1.131  12.050 -0.3561 -0.0528  0.2989
18708SOL    HW165092   6.757   1.100  12.105  0.7044 -0.4334  1.5067
18708SOL    HW265093   6.857   1.213  12.090  0.2216 -0.1647  0.1448
18709SOL     OW65094   8.859   6.743   4.101 -0.0915  0.0850  0.2042
18709SOL    HW165095   8.920   6.815   4.085 -1.4624  1.4165  0.7133
18709SOL    HW265096   8.887   6.705   4.184  1.2655 -0.6695 -0.5697
18710SOL     OW65097   2.526   6.489   2.346  0.0286 -0.4174  0.5234
18710SOL    HW165098   2.478   6.568   2.320  1.8692  0.2423 -1.2321
18710SOL    HW265099   2.526   6.491   2.441 -1.4445  0.7542  0.5375
18711SOL     OW65100   9.272  11.808  10.760 -0.1420 -0.4965 -0.2355
18711SOL    HW165101   9.181  11.817  10.732 -0.1340 -1.7998 -0.7440
18711SOL    HW265102   9.270  11.741  10.828  0.1918  0.8838  1.2012
18712SOL     OW65103   1.477  11.243   1.453 -0.0260 -0.2963  0.3422
18712SOL    HW165104   1.516  11.265   1.537 -0.1256 -1.9873  0.8744
18712SOL    HW265105   1.521  11.162   1.427  0.6323  0.6582 -1.6772
18713SOL     OW65106   4.982   7.717   2.079 -0.1158 -0.3828  0.3879
18713SOL    HW165107   5.057   7.662   2.059 -0.0216  0.2955 -1.3031
18713SOL    HW265108   4.906   7.662   2.060 -0.0867 -0.9780  1.8420
18714SOL     OW65109   5.389   3.604  11.082  0.0603 -0.3864  0.0279
18714SOL    HW165110   5.375   3.557  11.000  1.0866 -0.5828 -0.0397
18714SOL    HW265111   5.469   3.655  11.067 -1.4649  2.1243 -0.2357
18715SOL     OW65112  12.021   9.990   0.046  0.0439 -0.6288  0.3318
18715SOL    HW165113  11.952   9.928   0.024 -1.7169  0.5102  2.3104
18715SOL    HW265114  12.006  10.064  -0.013 -0.7999 -0.1573  1.1198
18716SOL     OW65115   8.732   9.765   8.504  1.0507 -0.1644  0.3123
18716SOL    HW165116   8.792   9.818   8.557 -0.6716 -1.7641  4.2080
18716SOL    HW265117   8.648   9.770   8.550 -0.5841 -1.8880 -2.2345
18717SOL     OW65118   7.028   1.511  12.567  0.6319  0.0186  0.1825
18717SOL    HW165119   6.974   1.498  12.489  0.4116  0.1902  0.3064
18717SOL    HW265120   6.976   1.474  12.638  1.5536 -1.7135  0.0170
18718SOL     OW65121  12.489  11.443   2.075 -0.4770  0.1120 -0.2034
18718SOL    HW165122  12.466  11.535   2.087 -0.3724  0.1659 -0.4183
18718SOL    HW265123  12.405  11.398   2.067 -0.6560 -0.1479  2.2245
18719SOL     OW65124   2.608   0.757   4.388  0.3741 -0.3156  0.9035
18719SOL    HW165125   2.684   0.706   4.418  0.6419 -0.0901  0.6275
18719SOL    HW265126   2.639   0.847   4.387  0.2285 -0.2653  0.4069
18720SOL     OW65127   9.539   6.805  10.715 -0.6265 -0.1599  0.1638
18720SOL    HW165128   9.454   6.776  10.683  0.1505  0.1296 -2.3804
18720SOL    HW265129   9.580   6.726  10.749 -1.5013 -0.5008  0.4619
18721SOL     OW65130   7.819   3.022  11.072 -0.1342  0.0910 -0.2817
18721SOL    HW165131   7.823   2.936  11.032 -2.4511 -0.7715  1.1426
18721SOL    HW265132   7.910   3.053  11.073  0.5859 -1.7854 -1.8892
18722SOL     OW65133  12.188   8.269   3.315 -0.7236  0.4825  0.2262
18722SOL    HW165134  12.283   8.268   3.329 -0.3144  1.4327 -2.0341
18722SOL    HW265135  12.153   8.311   3.393  0.8065  0.9567  0.6966
18723SOL     OW65136   0.394   4.224   6.125  0.3235 -0.2379 -0.1058
18723SOL    HW165137   0.317   4.247   6.073 -0.2508 -0.9842  0.3938
18723SOL    HW265138   0.373   4.252   6.214  0.5700 -0.5728  0.0605
18724SOL     OW65139   0.184   3.078   7.437  0.0284  0.0160 -0.0919
18724SOL    HW165140   0.183   3.113   7.526 -0.4067  1.7393 -0.7471
18724SOL    HW265141   0.111   3.017   7.434  0.1782 -0.2216  0.7817
18725SOL     OW65142  12.586   0.945   2.253 -0.0248 -0.0332 -0.1195
18725SOL    HW165143  12.642   0.998   2.196  0.0785  0.1731  0.1717
18725SOL    HW265144  12.636   0.936   2.334 -1.1208  1.6041  0.7871
18726SOL     OW65145   2.097  12.077   1.091  0.1192  0.9648  0.1431
18726SOL    HW165146   2.057  11.996   1.121  0.0209  1.5697  1.7618
18726SOL    HW265147   2.188  12.072   1.121  1.0771  0.0586 -2.6011
18727SOL     OW65148   2.422   0.485  10.828 -0.5163  0.2489  0.7379
18727SOL    HW165149   2.400   0.543  10.754  0.0840 -0.4785 -0.0327
18727SOL    HW265150   2.409   0.397  10.794 -1.0956 -0.0870  1.7956
18728SOL     OW65151   9.616   4.892   8.684  0.0735 -0.1793  0.5595
18728SOL    HW165152   9.643   4.978   8.716 -0.3967 -0.4395  1.6921
18728SOL    HW265153   9.622   4.900   8.588  1.3099  0.6792  0.6847
18729SOL     OW65154  10.406   4.275   6.762 -0.2088 -0.2587 -0.8229
18729SOL    HW165155  10.312   4.258   6.762 -0.0240 -1.4868 -2.3775
18729SOL    HW265156  10.427   4.298   6.672  1.1120 -0.9088 -0.7121
18730SOL     OW65157  11.506   8.127  10.339 -0.4153  0.5133 -0.0944
18730SOL    HW165158  11.570   8.098  10.274  0.1673 -0.3551  0.8532
18730SOL    HW265159  11.505   8.058  10.405 -2.5669  0.3521 -0.2347
18731SOL     OW65160   7.362   6.343  10.440 -0.2172  0.4241 -0.3101
18731SOL    HW165161   7.450   6.322  10.410 -0.5174  0.6516 -1.4017
18731SOL    HW265162   7.371   6.426  10.487  0.4925 -0.6242  1.5053
18732SOL     OW65163   2.497   9.463  11.225 -0.2500 -0.3007 -0.1857
18732SOL    HW165164   2.575   9.460  11.169  0.0336 -1.9193  0.2515
18732SOL    HW265165   2.532   9.485  11.312 -0.3262 -0.6105 -0.0760
18733SOL     OW65166   1.412  11.566   5.076 -0.2772  0.6773 -0.3547
18733SOL    HW165167   1.506  11.565   5.095 -0.2153  1.9266 -0.5079
18733SOL    HW265168   1.381  11.650   5.111 -1.5546 -0.1447  0.6284
18734SOL     OW65169   4.559   3.584   2.929  0.3474  0.0630  0.3054
18734SOL    HW165170   4.562   3.490   2.947  1.3865  0.1116  0.4649
18734SOL    HW265171   4.625   3.598   2.861  0.1526  0.6667  0.2337
18735SOL     OW65172   0.824  10.714   6.964 -0.4441  0.1624 -0.1229
18735SOL    HW165173   0.854  10.697   6.875 -0.3844 -0.6700  0.0493
18735SOL    HW265174   0.865  10.645   7.017 -0.5930  0.5631  0.5217
18736SOL     OW65175   7.986   9.622   8.018  0.4956 -0.1762 -0.1153
18736SOL    HW165176   7.900   9.648   8.050  0.0889 -0.8435 -0.6188
18736SOL    HW265177   8.042   9.625   8.094 -0.6470 -2.6552  0.9404
18737SOL     OW65178   6.628   9.897   3.561  0.2030  0.2688 -0.1897
18737SOL    HW165179   6.549   9.943   3.534 -1.4033 -3.1151 -1.8745
18737SOL    HW265180   6.672   9.875   3.479  1.9058  0.4217  0.6475
18738SOL     OW65181   6.342   0.776  11.781  0.3435  0.2570  0.3311
18738SOL    HW165182   6.380   0.772  11.693  1.7765  1.7977  0.8132
18738SOL    HW265183   6.388   0.849  11.823 -0.9867  0.1615  2.0475
18739SOL     OW65184   7.891   9.329   2.475  0.7507 -0.5972 -0.0647
18739SOL    HW165185   7.932   9.390   2.414  0.7136  0.5387  1.0059
18739SOL    HW265186   7.964   9.285   2.518  0.8155 -0.0677  0.3723
18740SOL     OW65187   0.390   2.773   0.753  0.3451  0.2060  0.2716
18740SOL    HW165188   0.460   2.779   0.689 -0.7828 -1.3271 -1.2038
18740SOL    HW265189   0.319   2.826   0.716  0.0517  0.1714  0.7734
18741SOL     OW65190   1.925   7.174   4.399 -0.1737 -0.5822 -0.0197
18741SOL    HW165191   1.999   7.195   4.342 -0.4800  0.0045 -0.2089
18741SOL    HW265192   1.965   7.158   4.485  0.2410 -0.9881 -0.2827
18742SOL     OW65193   9.114   6.737  12.516  0.4174 -0.1979 -0.1219
18742SOL    HW165194   9.159   6.725  12.599  0.4718 -1.2505 -0.2865
18742SOL    HW265195   9.069   6.821  12.525 -2.5452 -1.8361  2.4230
18743SOL     OW65196   0.420   4.201   7.146  0.0092  0.3215  0.1081
18743SOL    HW165197   0.333   4.180   7.112  0.7186 -1.9552 -0.4690
18743SOL    HW265198   0.464   4.116   7.154  2.3052  1.4227  0.0227
18744SOL     OW65199  11.607   9.720   2.074  0.1214  0.0336 -0.3220
18744SOL    HW165200  11.653   9.637   2.081  0.3797  0.0797 -1.2670
18744SOL    HW265201  11.675   9.787   2.086 -0.3360  0.1669  2.0641
18745SOL     OW65202   8.703   1.100   2.454 -0.2239  0.0183 -0.8173
18745SOL    HW165203   8.770   1.057   2.403  2.2543  1.9363  0.5852
18745SOL    HW265204   8.732   1.191   2.459 -2.1391  0.6014  1.1335
18746SOL     OW65205   8.324   0.961   8.289  0.0444  0.6000 -0.2972
18746SOL    HW165206   8.401   1.014   8.308  0.1994  0.7493 -1.2766
18746SOL    HW265207   8.293   0.994   8.205 -0.9811  0.4139 -0.0014
18747SOL     OW65208  10.526   5.486   1.863  0.2239 -0.4968  0.1103
18747SOL    HW165209  10.483   5.501   1.947  0.3002 -0.7591  0.1992
18747SOL    HW265210  10.475   5.416   1.822  0.7602 -1.0494  0.3676
18748SOL     OW65211   5.101  11.990   0.007  0.1701  0.1556  0.2616
18748SOL    HW165212   5.182  12.010   0.054  0.5622 -1.0909  0.1526
18748SOL    HW265213   5.096  12.057  -0.061  2.8356 -1.5609 -1.8229
18749SOL     OW65214   8.583   9.939   7.234  0.0415  0.5962  0.0567
18749SOL    HW165215   8.500   9.986   7.220 -0.6418 -0.8888 -1.1582
18749SOL    HW265216   8.627   9.942   7.149  1.0959  1.0540  0.5958
18750SOL     OW65217   9.085   4.611   5.687  0.1421 -0.2803 -0.1039
18750SOL    HW165218   9.138   4.618   5.607  2.9517  0.9791  1.6826
18750SOL    HW265219   9.059   4.701   5.706 -1.0473 -0.6546  0.0846
18751SOL     OW65220   8.540   1.435   0.220 -0.2494  0.4682  0.8605
18751SOL    HW165221   8.511   1.524   0.241  2.6979  1.5025  1.0811
18751SOL    HW265222   8.631   1.432   0.250 -0.6895 -3.1833  2.3168
18752SOL     OW65223   9.666   6.605  10.888  0.0579  0.1241  0.0984
18752SOL    HW165224   9.679   6.544  10.960 -1.2574 -1.2589 -0.7657
18752SOL    HW265225   9.718   6.568  10.816 -1.5247 -0.5969 -0.7321
18753SOL     OW65226   7.011   0.493   1.709 -0.3301 -0.2858  0.1350
18753SOL    HW165227   6.965   0.510   1.791 -1.1895  3.1859 -0.8841
18753SOL    HW265228   6.947   0.514   1.641  0.2922 -3.2369 -1.5267
18754SOL     OW65229  10.115   6.097   6.998  0.4230 -0.4616 -0.1260
18754SOL    HW165230  10.096   6.061   7.085  1.5085 -1.9244 -0.4499
18754SOL    HW265231  10.116   6.021   6.940  1.4336  0.2581 -1.1072
18755SOL     OW65232   5.651   4.977   9.843 -0.3670  0.2610  0.1365
18755SOL    HW165233   5.657   4.881   9.842  1.4189  0.3440 -0.7859
18755SOL    HW265234   5.603   4.999   9.763  0.7429  0.1871 -0.5656
18756SOL     OW65235   1.608  10.782   1.965 -0.5349  0.1422  0.0376
18756SOL    HW165236   1.590  10.714   1.900 -0.0882 -1.0991  1.1789
18756SOL    HW265237   1.700  10.770   1.988 -0.8423  0.1458  1.3453
18757SOL     OW65238  10.375   8.888   5.657  0.3699 -0.1721 -0.5094
18757SOL    HW165239  10.294   8.843   5.683  1.1505 -2.1550 -1.3446
18757SOL    HW265240  10.420   8.903   5.740 -0.1777 -0.4038 -0.1582
18758SOL     OW65241   4.267   9.257   3.598  0.1485  0.4914  0.2927
18758SOL    HW165242   4.326   9.186   3.623  1.0495  0.1201 -2.4981
18758SOL    HW265243   4.202   9.261   3.669  2.4912 -0.2241  2.6447
18759SOL     OW65244   3.991   7.083   6.867  0.4425  0.0202 -0.0660
18759SOL    HW165245   3.907   7.038   6.877  0.5108 -0.1833 -0.4074
18759SOL    HW265246   3.966   7.173   6.846  0.3073 -0.1405 -0.6074
18760SOL     OW65247   5.102   3.590   8.779  0.1549  0.0576  0.2445
18760SOL    HW165248   5.136   3.506   8.811 -0.0155 -0.9532 -2.0100
18760SOL    HW265249   5.164   3.655   8.813  0.6379 -1.0234  1.5498
18761SOL     OW65250  12.592   0.019  10.902  0.0554 -0.0965  0.2973
18761SOL    HW165251  12.505  -0.014  10.882 -0.2288 -0.0860  1.4574
18761SOL    HW265252  12.639  -0.056  10.939  1.0109 -0.4802 -1.5630
18762SOL     OW65253   9.339  10.843   4.394  0.3620 -0.0766  0.5139
18762SOL    HW165254   9.257  10.860   4.348 -0.0733  0.9108  1.6180
18762SOL    HW265255   9.403  10.899   4.349 -0.0149  0.7148  0.9347
18763SOL     OW65256   6.021  12.005   5.182 -0.0043  0.2681  0.2477
18763SOL    HW165257   5.954  12.009   5.114 -1.2147 -1.0983  1.2892
18763SOL    HW265258   6.093  11.956   5.142 -1.0233 -1.2114  0.1611
18764SOL     OW65259   9.202   8.113   8.867  0.6440  0.0224  0.1174
18764SOL    HW165260   9.260   8.089   8.794 -0.7097  0.1377 -1.0454
18764SOL    HW265261   9.140   8.040   8.873  0.7383  0.0154  1.1806
18765SOL     OW65262   0.318   1.146   4.202 -0.0116 -0.3249 -0.1575
18765SOL    HW165263   0.261   1.090   4.255 -0.1825  0.3776  0.4071
18765SOL    HW265264   0.405   1.134   4.241 -0.4336  1.6426  1.5507
18766SOL     OW65265   5.893  10.863   2.411  0.4782 -0.2537  0.0540
18766SOL    HW165266   5.980  10.894   2.436  0.4627 -0.7318  0.7290
18766SOL    HW265267   5.834  10.933   2.437  0.4958 -0.6160  1.1230
18767SOL     OW65268   7.955   0.174  11.505  0.3861  0.1707  0.3692
18767SOL    HW165269   7.995   0.249  11.461  1.1257 -0.9295 -0.9159
18767SOL    HW265270   7.870   0.207  11.534  0.8355  1.6054  0.1790
18768SOL     OW65271   5.795   2.829   3.565  0.2786 -0.1080 -0.2345
18768SOL    HW165272   5.743   2.828   3.646  3.2033 -0.0326  1.7737
18768SOL    HW265273   5.793   2.920   3.536 -0.5394 -0.0725 -0.0916
18769SOL     OW65274   3.127  11.819  11.352  0.6428 -0.3832  0.5135
18769SOL    HW165275   3.111  11.841  11.444  1.4798  0.8883  0.4005
18769SOL    HW265276   3.222  11.806  11.348  0.8052  0.8946 -0.3933
18770SOL     OW65277   2.093   7.077   8.371  0.6368  0.2268 -0.2664
18770SOL    HW165278   2.111   6.988   8.341  2.2179  1.6494 -4.1767
18770SOL    HW265279   2.139   7.084   8.454  0.6318 -2.5171  0.0592
18771SOL     OW65280   8.429   1.259  11.343 -0.3780  0.0192  0.5638
18771SOL    HW165281   8.504   1.285  11.290 -0.2775 -1.4231 -0.0553
18771SOL    HW265282   8.354   1.266  11.283 -0.1994 -2.0848  0.0107
18772SOL     OW65283  12.121   0.502   6.108 -0.1348  0.0825  0.1792
18772SOL    HW165284  12.184   0.545   6.165  0.1959 -1.5728  1.1036
18772SOL    HW265285  12.126   0.410   6.131 -2.6046 -0.1730  0.0061
18773SOL     OW65286   6.801  12.240   8.086  0.0991 -0.1670  0.3603
18773SOL    HW165287   6.895  12.252   8.098  0.1755 -0.6995  0.2839
18773SOL    HW265288   6.762  12.321   8.120  0.5079 -0.3851  1.3593
18774SOL     OW65289   5.510   3.554   9.019  0.4627 -0.1099  1.2344
18774SOL    HW165290   5.500   3.636   8.971  0.1564 -0.3438  0.8914
18774SOL    HW265291   5.445   3.559   9.090 -0.9729 -0.8898  0.0355
18775SOL     OW65292   5.632   3.146   9.255 -0.1286  0.2001  0.4215
18775SOL    HW165293   5.680   3.211   9.203  0.3218  0.5529  1.2666
18775SOL    HW265294   5.700   3.099   9.303 -0.4423 -0.9445 -0.2004
18776SOL     OW65295   1.703   2.487   5.088  0.2541 -0.2142  0.0409
18776SOL    HW165296   1.772   2.482   5.154  0.9609  0.2826 -0.6455
18776SOL    HW265297   1.721   2.568   5.041 -2.2206  1.2277  1.3780
18777SOL     OW65298   6.992   8.888   5.246  0.1650  0.1590  0.2322
18777SOL    HW165299   7.077   8.843   5.243  0.2547  0.2151  1.4377
18777SOL    HW265300   6.928   8.818   5.254 -0.1244 -0.0321 -2.8868
18778SOL     OW65301   7.866   0.975  11.145 -0.0108  0.7328  0.2624
18778SOL    HW165302   7.948   0.929  11.165  2.2410  3.4846 -1.6475
18778SOL    HW265303   7.827   0.994  11.230  2.6681  1.4162  1.4495
18779SOL     OW65304   0.517  12.029   1.808  0.1618 -0.1935 -0.2507
18779SOL    HW165305   0.607  12.041   1.778  0.4022 -1.2124  0.0520
18779SOL    HW265306   0.514  12.073   1.893  0.2457  0.2416 -0.4711
18780SOL     OW65307   0.090   7.218  12.027 -0.2853  0.2376 -0.0151
18780SOL    HW165308   0.060   7.308  12.012 -1.1385 -0.1301 -0.6469
18780SOL    HW265309   0.012   7.172  12.060  0.7699  0.2914  2.8236
18781SOL     OW65310   1.452   5.943   4.405  0.4859  0.4003  0.2556
18781SOL    HW165311   1.411   6.025   4.433  1.6070  1.0383  0.0544
18781SOL    HW265312   1.475   5.957   4.313 -1.9690 -1.2107 -0.7155
18782SOL     OW65313   7.837   3.459   5.497  0.6475 -0.0125  0.0672
18782SOL    HW165314   7.879   3.447   5.412  3.2291  2.2642  0.8988
18782SOL    HW265315   7.907   3.483   5.557 -1.2535 -0.3177  2.6314
18783SOL     OW65316   3.426   8.287   2.261 -0.8149 -0.2866  0.6939
18783SOL    HW165317   3.394   8.354   2.201  0.9552 -0.5629 -0.6513
18783SOL    HW265318   3.503   8.250   2.217  0.1942 -0.9427  2.8702
18784SOL     OW65319   6.533   8.260   3.338  0.3232 -0.3454 -0.0981
18784SOL    HW165320   6.463   8.244   3.401  1.3855 -0.3775  1.0972
18784SOL    HW265321   6.493   8.239   3.253 -0.8753 -1.1150  0.6229
18785SOL     OW65322   0.965   2.043   7.347 -0.0300 -0.3441  0.2003
18785SOL    HW165323   0.970   2.095   7.428 -0.7407 -1.8636  1.2588
18785SOL    HW265324   1.013   1.963   7.367 -0.5969 -0.9313 -0.7502
18786SOL     OW65325   8.577  11.874   0.291 -0.1968 -0.4366 -0.0468
18786SOL    HW165326   8.593  11.843   0.380 -1.2126  0.7293  0.5685
18786SOL    HW265327   8.580  11.969   0.298  2.7285 -0.2930 -1.8522
18787SOL     OW65328  12.062   7.888  11.732 -0.4808 -0.4212  0.4979
18787SOL    HW165329  12.018   7.879  11.647  0.1940 -3.0521  0.3290
18787SOL    HW265330  12.010   7.834  11.792  0.3450 -0.4741  1.1914
18788SOL     OW65331  11.239   7.959   0.051 -0.7075 -0.0421 -0.0175
18788SOL    HW165332  11.218   8.029   0.113 -2.5956 -0.5513 -0.0439
18788SOL    HW265333  11.237   8.001  -0.035 -3.9027 -0.4609 -0.2415
18789SOL     OW65334   8.906  11.538  11.634  0.1350  0.1488 -0.3073
18789SOL    HW165335   8.930  11.583  11.553  1.0227 -0.0362 -0.1668
18789SOL    HW265336   8.817  11.508  11.619  0.2909  0.0978 -1.2322
18790SOL     OW65337   8.041   4.115   8.813  0.6657  0.0099  0.4417
18790SOL    HW165338   8.058   4.081   8.725  1.4613 -0.7150  0.8568
18790SOL    HW265339   8.082   4.201   8.814 -1.3887  1.0669 -0.6352
18791SOL     OW65340   4.716   4.329   1.548  0.5893  0.2551 -0.4189
18791SOL    HW165341   4.740   4.238   1.532  1.2812  0.1080  1.3140
18791SOL    HW265342   4.771   4.378   1.486  1.2782 -0.4161 -0.3581
18792SOL     OW65343   8.378   9.664   8.215  0.1536  0.0580 -0.0887
18792SOL    HW165344   8.362   9.579   8.175 -0.6879  0.3446 -0.3798
18792SOL    HW265345   8.293   9.694   8.246  0.8139 -0.2967  2.2857
18793SOL     OW65346   9.309   1.151   6.753 -0.7224  0.3368 -0.6815
18793SOL    HW165347   9.403   1.159   6.771 -1.1764  0.7657  1.8900
18793SOL    HW265348   9.301   1.071   6.700  1.2605  1.5703 -3.0333
18794SOL     OW65349   1.101   7.909   1.005 -0.2940 -0.0172 -0.4422
18794SOL    HW165350   1.077   7.968   0.934 -0.0293  2.0021  1.0621
18794SOL    HW265351   1.086   7.822   0.970 -1.8823  0.9554 -2.3444
18795SOL     OW65352  10.277   3.112   3.552  0.1327  0.0838  0.2313
18795SOL    HW165353  10.229   3.138   3.631  1.2700  2.0828  0.3307
18795SOL    HW265354  10.345   3.179   3.542  0.3807 -0.4312 -2.1491
18796SOL     OW65355   0.068   2.135   4.391  0.1246  0.1236  0.3248
18796SOL    HW165356   0.002   2.093   4.447 -0.3312 -0.7373 -0.8131
18796SOL    HW265357   0.145   2.079   4.401  0.3361  0.4838  0.7688
18797SOL     OW65358   7.074   0.283  12.333  0.6777  0.5728 -0.0249
18797SOL    HW165359   7.115   0.314  12.414 -1.5662  0.5983  1.1689
18797SOL    HW265360   7.068   0.188  12.343  0.1518  0.6014 -0.0404
18798SOL     OW65361   3.277   2.024   2.907  1.0207  0.0152 -0.1682
18798SOL    HW165362   3.309   2.058   2.824  1.3419 -0.9163 -0.4447
18798SOL    HW265363   3.212   1.957   2.883  0.2316  0.5717  0.3555
18799SOL     OW65364   3.449   6.269   4.588  0.0981 -0.1988 -0.2905
18799SOL    HW165365   3.426   6.262   4.495 -1.8742 -0.2002  0.1547
18799SOL    HW265366   3.501   6.350   4.593 -0.4504  0.2340 -1.2728
18800SOL     OW65367   2.922   1.482   9.590 -0.0071  0.3490 -0.4315
18800SOL    HW165368   2.846   1.423   9.590 -0.6839  1.2061  0.4338
18800SOL    HW265369   2.920   1.523   9.504 -0.9504  0.8994 -0.1541
18801SOL     OW65370   7.542   8.500   3.311 -0.6001  1.1139 -0.0636
18801SOL    HW165371   7.480   8.438   3.272 -0.1289 -1.1112  2.4203
18801SOL    HW265372   7.627   8.477   3.273 -0.2979 -0.4109  1.4002
18802SOL     OW65373  11.583   8.558   9.899  0.2983  0.3225  0.3160
18802SOL    HW165374  11.657   8.543   9.957  1.0463  0.0895 -0.6710
18802SOL    HW265375  11.616   8.538   9.812 -1.3162 -1.1897 -0.0215
18803SOL     OW65376   1.077  10.555   0.239 -0.2691  0.1335 -0.4971
18803SOL    HW165377   1.112  10.645   0.243 -1.3724  0.6210 -1.2587
18803SOL    HW265378   1.144  10.506   0.192 -0.5985  1.0824 -2.0343
18804SOL     OW65379  10.100  11.487   0.132  0.3569  0.1935  0.1233
18804SOL    HW165380  10.135  11.478   0.220 -0.1686 -0.6214  0.2656
18804SOL    HW265381  10.006  11.500   0.144  0.4323  1.1662 -0.2866
18805SOL     OW65382  12.522   6.746   7.229  0.4700 -0.0878  0.1721
18805SOL    HW165383  12.453   6.798   7.187  1.1525  0.1127 -0.7289
18805SOL    HW265384  12.522   6.777   7.320 -0.3095  0.2411  0.0734
18806SOL     OW65385   8.424   9.693   3.559 -0.2206  0.7374  0.6505
18806SOL    HW165386   8.503   9.747   3.567  0.2324 -0.1373  2.4811
18806SOL    HW265387   8.373   9.713   3.637 -2.0806  1.6443 -0.7467
18807SOL     OW65388   0.548   8.069   2.693  0.0610 -0.3200 -0.1119
18807SOL    HW165389   0.532   8.071   2.599  1.3251 -0.1086 -0.3494
18807SOL    HW265390   0.589   8.153   2.712  1.8344 -1.1968  0.1957
18808SOL     OW65391   6.332   0.332   2.979 -0.8393 -0.6078 -0.0562
18808SOL    HW165392   6.264   0.285   3.026 -2.0100 -0.2027 -1.2694
18808SOL    HW265393   6.357   0.403   3.038  0.0723 -1.9763  1.2740
18809SOL     OW65394   4.103   3.451   0.585  0.0037 -0.3823 -0.0703
18809SOL    HW165395   4.132   3.494   0.665  0.7016 -0.5422 -0.2278
18809SOL    HW265396   4.108   3.519   0.518 -1.7583  0.0943  0.2326
18810SOL     OW65397   8.811   9.912   7.415 -0.0724  0.3296  0.1149
18810SOL    HW165398   8.749   9.937   7.346 -0.2266  2.2616  0.8856
18810SOL    HW265399   8.770   9.942   7.496  0.5846 -0.9644  0.9507
18811SOL     OW65400   0.355   2.842   1.293 -0.8180 -0.2865  0.2005
18811SOL    HW165401   0.337   2.836   1.200  0.2478  0.4907 -0.0779
18811SOL    HW265402   0.381   2.754   1.318 -2.2266 -0.7761  0.0368
18812SOL     OW65403   3.483   2.351  12.161  0.0483  0.1391  0.3582
18812SOL    HW165404   3.491   2.271  12.213 -1.4574  0.5292  1.2492
18812SOL    HW265405   3.407   2.336  12.105  1.3548 -0.0828 -1.4833
18813SOL     OW65406   4.754  11.854   0.785 -0.0233  0.1398  0.1358
18813SOL    HW165407   4.718  11.849   0.697 -0.1313  0.3024  0.1699
18813SOL    HW265408   4.794  11.768   0.800  0.2900  0.2268 -0.1956
18814SOL     OW65409   8.452   5.110   7.769  0.1713  0.1723  0.3481
18814SOL    HW165410   8.398   5.189   7.778 -1.1652 -0.7174  0.4154
18814SOL    HW265411   8.396   5.039   7.802  1.1664 -0.8657 -0.1506
18815SOL     OW65412  11.838   5.410   2.364 -0.9433 -0.1524 -0.5272
18815SOL    HW165413  11.821   5.391   2.272  0.3216  0.4346 -0.9048
18815SOL    HW265414  11.894   5.339   2.394 -1.2998 -0.3092 -0.2235
18816SOL     OW65415   9.491   1.974   3.660 -0.0246 -0.3301 -0.1383
18816SOL    HW165416   9.542   1.928   3.726  0.3817 -0.0229 -0.2347
18816SOL    HW265417   9.460   2.053   3.704 -0.9595 -0.8132  0.1144
18817SOL     OW65418  10.769   5.605   1.990 -0.1819 -0.0277 -0.1196
18817SOL    HW165419  10.688   5.586   1.941  1.2882 -2.1107 -1.9829
18817SOL    HW265420  10.761   5.554   2.070 -0.9270  0.1701 -0.0614
18818SOL     OW65421   2.751   5.571   6.127 -0.0802 -0.3128  0.2020
18818SOL    HW165422   2.773   5.503   6.064 -0.0522  0.6734 -0.8972
18818SOL    HW265423   2.705   5.637   6.075 -1.2961 -0.0930  1.4921
18819SOL     OW65424   4.242  11.543   1.433 -0.5747 -0.1130 -0.2083
18819SOL    HW165425   4.166  11.593   1.405 -0.9716 -0.8457 -0.4637
18819SOL    HW265426   4.251  11.474   1.368 -0.9990 -1.3391  0.9853
18820SOL     OW65427   1.926  10.375   5.230 -0.0623  0.7894 -0.3410
18820SOL    HW165428   1.874  10.295   5.237  1.8429 -0.5426 -0.4897
18820SOL    HW265429   1.868  10.439   5.190 -2.1012 -0.0713  1.0992
18821SOL     OW65430   4.591   9.361   2.203  0.1026  0.5801  0.4958
18821SOL    HW165431   4.518   9.416   2.232 -0.5726 -0.3962  0.7047
18821SOL    HW265432   4.584   9.283   2.258  2.7580  1.4255  2.2301
18822SOL     OW65433   0.574  12.526   2.414 -0.7714  0.4334 -0.2473
18822SOL    HW165434   0.498  12.502   2.467 -0.3678  0.1738  0.2314
18822SOL    HW265435   0.631  12.574   2.475  0.2174 -0.8481 -0.1203
18823SOL     OW65436   8.304  10.912   6.936  0.3752  0.2233 -0.3657
18823SOL    HW165437   8.289  10.939   6.845 -0.7807  0.9801  0.0281
18823SOL    HW265438   8.265  10.825   6.942 -0.2123  0.4788 -0.4155
18824SOL     OW65439   8.442   2.721   4.181 -0.1265 -0.2007 -0.1930
18824SOL    HW165440   8.384   2.706   4.256  1.0785 -1.7203  0.5059
18824SOL    HW265441   8.519   2.763   4.219 -0.0074  0.1239 -0.7872
18825SOL     OW65442  11.876   0.563   7.114 -0.1803  0.3951 -0.2780
18825SOL    HW165443  11.832   0.642   7.147  2.1091  1.7449 -0.2359
18825SOL    HW265444  11.942   0.543   7.180 -0.6883 -1.6100 -0.3031
18826SOL     OW65445   1.476   1.098   3.499  0.3803 -0.5120  0.1725
18826SOL    HW165446   1.535   1.118   3.571 -2.3838  0.4975  2.3713
18826SOL    HW265447   1.479   1.176   3.443  0.2770  0.0356  0.9149
18827SOL     OW65448   4.498   4.982   4.665  0.2320  0.1098 -0.2889
18827SOL    HW165449   4.498   4.904   4.610 -0.4048  1.0659 -1.7235
18827SOL    HW265450   4.545   4.956   4.744  1.8226 -1.1259 -1.5663
18828SOL     OW65451   0.003   6.744  10.181  0.3417 -0.1095 -0.3738
18828SOL    HW165452   0.068   6.814  10.189  0.3049 -0.2106  1.0946
18828SOL    HW265453  -0.058   6.775  10.115  0.3993  1.1882  0.1621
18829SOL     OW65454  11.458   3.269   9.164 -0.2071  0.6267 -0.0248
18829SOL    HW165455  11.545   3.262   9.203 -0.2059  0.7201 -0.0110
18829SOL    HW265456  11.416   3.185   9.182 -0.3191  0.7824  0.4431
18830SOL     OW65457  12.391   5.461   4.037  0.2233  0.1047  0.5393
18830SOL    HW165458  12.420   5.378   3.998 -0.3664  0.0635  0.1898
18830SOL    HW265459  12.333   5.435   4.109  0.2894  0.2116  0.6325
18831SOL     OW65460   8.034   2.105   6.672 -0.5050 -0.4481  0.7567
18831SOL    HW165461   8.032   2.053   6.753 -2.5126  1.3730  1.9646
18831SOL    HW265462   8.004   2.044   6.604 -0.3869 -1.5621  1.6660
18832SOL     OW65463   6.390  11.670   2.181 -0.1199  0.4574 -0.0566
18832SOL    HW165464   6.404  11.575   2.183  0.4444  0.5357  0.0172
18832SOL    HW265465   6.414  11.695   2.092  3.2884  1.0140  0.8762
18833SOL     OW65466   8.364   3.465  10.045 -0.2863 -0.6143 -0.1061
18833SOL    HW165467   8.415   3.385  10.059 -0.7338 -0.5490  2.2633
18833SOL    HW265468   8.288   3.436   9.994 -1.4111 -2.1962  2.2388
18834SOL     OW65469  10.434   0.623   6.886  0.0584 -0.5833  0.1087
18834SOL    HW165470  10.443   0.531   6.862 -0.2331 -0.4822 -0.4232
18834SOL    HW265471  10.514   0.644   6.934 -0.1703 -1.2887  0.8137
18835SOL     OW65472  11.980   0.245   1.193  0.3635  0.5010  0.0062
18835SOL    HW165473  11.967   0.328   1.147 -1.6979 -0.0883 -0.5696
18835SOL    HW265474  11.892   0.212   1.208  1.1375 -1.7033  0.0284
18836SOL     OW65475   4.796   7.653   4.480  0.5425 -0.4327  0.4802
18836SOL    HW165476   4.848   7.733   4.471  0.3591 -0.3947 -0.3467
18836SOL    HW265477   4.724   7.664   4.418 -1.0219 -0.0666  2.2608
18837SOL     OW65478   6.746   7.290  11.722 -0.2084 -0.3911 -0.1999
18837SOL    HW165479   6.734   7.338  11.639  0.4463 -0.1484 -0.1662
18837SOL    HW265480   6.667   7.308  11.772  0.6069  1.9348  0.4186
18838SOL     OW65481   6.867   2.169   5.267 -0.3645 -0.6086 -0.4134
18838SOL    HW165482   6.777   2.201   5.270 -0.8021 -1.4455 -2.8410
18838SOL    HW265483   6.862   2.079   5.300  0.0127  0.0223  1.5178
18839SOL     OW65484   3.715   9.310   4.597  0.3813  0.5235  0.4730
18839SOL    HW165485   3.661   9.243   4.556  2.1521 -0.8611  0.3088
18839SOL    HW265486   3.690   9.307   4.690  0.7064 -0.6375  0.5319
18840SOL     OW65487  10.566   4.560   6.373  0.1929 -0.2697 -0.0840
18840SOL    HW165488  10.649   4.592   6.409  0.4743 -0.7131 -0.3296
18840SOL    HW265489  10.544   4.622   6.303  0.2995 -0.1310  0.0057
18841SOL     OW65490   8.016   5.979   9.883  0.2888 -0.0695 -0.5401
18841SOL    HW165491   8.068   5.902   9.907  1.4290  0.8821  0.1504
18841SOL    HW265492   8.081   6.044   9.855 -0.5792  0.9670 -0.2115
18842SOL     OW65493   4.600   8.483  11.399  0.4299 -0.2014  0.2582
18842SOL    HW165494   4.674   8.526  11.356  0.6160  1.6756  2.2635
18842SOL    HW265495   4.633   8.456  11.484 -1.1980  0.9543  1.3264
18843SOL     OW65496   8.913   2.890   2.702  0.3972  0.2480 -0.2876
18843SOL    HW165497   8.893   2.831   2.629 -0.1554  0.8997 -0.6727
18843SOL    HW265498   8.929   2.831   2.776  1.7336 -0.4608 -1.0944
18844SOL     OW65499   1.806   0.222   0.402 -0.1544 -0.6304 -0.0981
18844SOL    HW165500   1.826   0.129   0.389 -0.5799 -0.6104 -1.0027
18844SOL    HW265501   1.714   0.223   0.427 -0.2661 -0.4329 -0.5058
18845SOL     OW65502   4.097   8.581   6.258  0.2774 -0.7745 -0.2906
18845SOL    HW165503   4.046   8.501   6.253  0.9289 -1.1391 -1.6756
18845SOL    HW265504   4.188   8.553   6.252  0.6016 -0.0420  0.8509
18846SOL     OW65505   1.378   2.065   8.514  0.6590 -0.3814  0.2344
18846SOL    HW165506   1.355   1.973   8.526 -1.7468 -0.0823 -1.4633
18846SOL    HW265507   1.335   2.111   8.586  0.5902 -0.4064  0.2085
18847SOL     OW65508   0.605   0.322   0.261 -0.0305 -0.1095 -0.7010
18847SOL    HW165509   0.689   0.365   0.279 -0.3386 -0.0270  0.7054
18847SOL    HW265510   0.540   0.390   0.281 -0.5329 -1.1649  1.6677
18848SOL     OW65511  11.012   3.674  11.942  0.1062  0.1907 -0.1732
18848SOL    HW165512  10.952   3.622  11.995  0.1509 -0.1480 -0.4491
18848SOL    HW265513  11.089   3.618  11.930 -0.4650 -0.2952 -1.7592
18849SOL     OW65514   2.635  11.559  11.899  0.1840  0.2416  0.3231
18849SOL    HW165515   2.641  11.537  11.806 -0.0356  1.7305 -0.0769
18849SOL    HW265516   2.724  11.586  11.923  0.2975 -0.3865  0.6172
18850SOL     OW65517   4.136   8.588   5.787  0.3616  0.2970 -0.4812
18850SOL    HW165518   4.231   8.588   5.781  0.4180  0.0933  0.2640
18850SOL    HW265519   4.118   8.592   5.881 -0.3359 -2.4933 -0.4201
18851SOL     OW65520   4.319   9.100   9.262  0.0952 -0.2206 -0.2534
18851SOL    HW165521   4.282   9.078   9.177  0.5926 -0.5767 -0.3836
18851SOL    HW265522   4.332   9.015   9.305 -0.2443 -0.0386  0.2213
18852SOL     OW65523  10.286   3.071   7.234  0.8141  0.4761  0.4355
18852SOL    HW165524  10.274   2.991   7.285 -0.5282 -0.3234 -1.0618
18852SOL    HW265525  10.199   3.093   7.203  1.4930  1.2965 -0.9677
18853SOL     OW65526  10.366   5.639   8.587 -0.5199 -0.1783  0.3775
18853SOL    HW165527  10.407   5.646   8.674 -1.0950 -0.7669  0.7074
18853SOL    HW265528  10.357   5.730   8.558 -1.4219  0.1156  1.4778
18854SOL     OW65529   6.193   7.112  12.569  0.1127  0.3548  0.5823
18854SOL    HW165530   6.269   7.105  12.626 -0.8567 -1.3154  1.7497
18854SOL    HW265531   6.123   7.144  12.626 -1.1677 -2.4122  0.7054
18855SOL     OW65532   9.770   2.622  10.026 -0.5291  0.3932 -0.3584
18855SOL    HW165533   9.858   2.633  10.063  0.1012 -0.9825 -1.3424
18855SOL    HW265534   9.713   2.614  10.102  0.3935  0.0467  0.3136
18856SOL     OW65535  11.126   7.193   8.750 -0.5569 -0.0452  0.9208
18856SOL    HW165536  11.075   7.158   8.677  0.8903  0.2995 -0.3125
18856SOL    HW265537  11.062   7.236   8.806 -1.7274 -0.4417 -0.0765
18857SOL     OW65538   9.351  10.995   8.148 -0.1258  0.0844 -0.0207
18857SOL    HW165539   9.395  11.036   8.222 -0.1584  0.0670  0.0087
18857SOL    HW265540   9.259  11.023   8.156  0.2134  1.6862 -1.1566
18858SOL     OW65541   3.715   5.964   6.692  1.0677 -0.3387 -0.3904
18858SOL    HW165542   3.760   5.881   6.709  2.0621  0.4074  0.8018
18858SOL    HW265543   3.623   5.939   6.682  1.2364 -1.5179  0.6819
18859SOL     OW65544   5.840   8.718   4.788  0.5546 -0.2474  0.3988
18859SOL    HW165545   5.886   8.759   4.861  0.8666  0.2801 -0.0833
18859SOL    HW265546   5.845   8.624   4.806 -0.4284 -0.0820  1.6687
18860SOL     OW65547   8.492   8.142   9.797 -0.2032  0.2753  0.4916
18860SOL    HW165548   8.444   8.098   9.868  0.4180  0.3486  0.9646
18860SOL    HW265549   8.426   8.158   9.730 -0.7286 -0.1132  0.9071
18861SOL     OW65550   9.577   0.961  10.287 -0.1622  0.0557  0.8832
18861SOL    HW165551   9.536   0.974  10.372  1.4307 -1.5209  1.9755
18861SOL    HW265552   9.639   1.033  10.279 -1.5724  1.2240  0.2057
18862SOL     OW65553   9.137   2.064  12.227 -0.6640  0.5215 -0.2866
18862SOL    HW165554   9.145   2.039  12.135  0.2730 -0.7401  0.1061
18862SOL    HW265555   9.158   2.157  12.228  0.5055  0.2980 -1.2148
18863SOL     OW65556   9.450   4.380   4.339 -0.3692  0.0251 -1.3321
18863SOL    HW165557   9.431   4.400   4.248  0.3260  2.0505 -1.0886
18863SOL    HW265558   9.464   4.466   4.380 -0.5773 -0.8341  0.6559
18864SOL     OW65559   0.721  11.121   3.295 -0.5229 -0.2442  0.0570
18864SOL    HW165560   0.749  11.180   3.365  0.6153 -0.1210 -0.4780
18864SOL    HW265561   0.626  11.134   3.289 -0.2210  2.0322 -0.4813
18865SOL     OW65562   1.522   9.884   3.728 -0.1981 -0.2930 -0.2190
18865SOL    HW165563   1.462   9.946   3.770  0.0915  0.0250 -0.2722
18865SOL    HW265564   1.491   9.879   3.638  0.8645  1.1783 -0.7056
18866SOL     OW65565   6.050   8.932   8.733 -0.2033 -0.5004 -0.2388
18866SOL    HW165566   6.081   8.842   8.741  1.1728  0.0436  0.8514
18866SOL    HW265567   6.029   8.958   8.822  0.0559  0.4818 -0.4534
18867SOL     OW65568   2.405  10.712   1.172  0.2855 -0.3297 -0.2809
18867SOL    HW165569   2.465  10.656   1.222 -1.4211 -0.0144  2.3392
18867SOL    HW265570   2.340  10.651   1.137  1.8272 -0.6354 -2.8791
18868SOL     OW65571   4.744   2.471   3.439 -0.0287  0.1060  0.3781
18868SOL    HW165572   4.747   2.375   3.442  0.1603  0.0560 -0.8817
18868SOL    HW265573   4.692   2.490   3.361 -0.7267  1.0422  1.0493
18869SOL     OW65574  10.881   4.789   0.315  0.1805  0.7987 -0.4321
18869SOL    HW165575  10.969   4.827   0.321  0.9663 -0.9643 -0.1702
18869SOL    HW265576  10.878   4.749   0.228 -0.6099  1.3743 -0.6852
18870SOL     OW65577   8.427   2.626   7.053 -0.0044  0.1667 -0.2485
18870SOL    HW165578   8.418   2.531   7.054  1.6683 -0.0339  1.7133
18870SOL    HW265579   8.496   2.644   6.989 -0.7556  0.1492 -1.0872
18871SOL     OW65580   2.822   8.731   2.773  0.0393 -0.0505  0.8861
18871SOL    HW165581   2.904   8.767   2.739  1.3505 -3.5070  0.0037
18871SOL    HW265582   2.753   8.784   2.730  1.7345 -0.2939 -2.4717
18872SOL     OW65583   2.825   5.039   3.593 -0.4090 -0.1606 -0.2999
18872SOL    HW165584   2.825   5.110   3.528 -0.1451  1.4227  1.3536
18872SOL    HW265585   2.805   5.083   3.676  1.1468 -1.8143  1.0070
18873SOL     OW65586   9.627   0.394   6.754 -0.0347  0.0202  0.3465
18873SOL    HW165587   9.661   0.478   6.722  2.6354 -0.5561  1.4170
18873SOL    HW265588   9.649   0.332   6.684 -2.3973  0.2117 -0.6428
18874SOL     OW65589   5.613   3.530   5.318 -0.3908 -0.8225 -0.1198
18874SOL    HW165590   5.690   3.533   5.262  0.5485 -0.2453  1.1772
18874SOL    HW265591   5.557   3.463   5.278  1.0462 -1.6929 -0.7258
18875SOL     OW65592   9.219   5.543   5.217  0.3379 -0.7849  0.3993
18875SOL    HW165593   9.145   5.486   5.237 -0.6169 -0.2211 -1.3659
18875SOL    HW265594   9.181   5.630   5.206  1.6145 -0.0102  1.8534
18876SOL     OW65595   6.961  12.199  11.794 -0.1775  0.0054 -0.2503
18876SOL    HW165596   7.047  12.237  11.776 -0.0751 -1.0342 -2.2263
18876SOL    HW265597   6.925  12.179  11.708 -0.9195 -2.7857  0.5824
18877SOL     OW65598   0.648  10.181   0.561  0.0613 -0.0714 -0.1992
18877SOL    HW165599   0.590  10.132   0.619  0.4023  0.0999  0.2923
18877SOL    HW265600   0.599  10.261   0.542 -0.0983 -0.1764 -0.2352
18878SOL     OW65601   2.044   8.594   3.350 -0.1118 -0.2901 -0.3934
18878SOL    HW165602   2.131   8.568   3.379 -1.0273 -2.2991  0.7650
18878SOL    HW265603   2.058   8.676   3.302  2.3013 -0.2209  0.3012
18879SOL     OW65604   1.278  11.309   9.114 -0.2361  0.2148 -0.3857
18879SOL    HW165605   1.326  11.240   9.161 -2.3156  0.2766  2.0002
18879SOL    HW265606   1.346  11.371   9.087  1.4867 -1.8426 -1.0830
18880SOL     OW65607  10.554   7.519   4.915  0.3128  0.2690 -0.0306
18880SOL    HW165608  10.586   7.439   4.872 -0.3825  0.6261 -1.2686
18880SOL    HW265609  10.479   7.547   4.862  0.8167  1.9969  0.0836
18881SOL     OW65610   2.768   0.337   4.451 -0.3180 -0.3598  0.3471
18881SOL    HW165611   2.710   0.403   4.488 -2.2305 -1.0953 -1.1393
18881SOL    HW265612   2.782   0.365   4.360  0.7519 -0.8055  0.3563
18882SOL     OW65613   3.186   1.128  10.167  0.2205  0.4663  0.6132
18882SOL    HW165614   3.172   1.136  10.262  0.1882  0.0061  0.6451
18882SOL    HW265615   3.136   1.201  10.130  2.0626  2.0683  1.0977
18883SOL     OW65616   1.339   0.754   2.257 -0.1098 -0.4454 -0.3807
18883SOL    HW165617   1.273   0.808   2.301  1.2385  0.2986  0.8138
18883SOL    HW265618   1.288   0.687   2.210 -1.8135  1.5342 -1.5190
18884SOL     OW65619   9.725  12.098   1.872 -0.3501  0.1645  0.1807
18884SOL    HW165620   9.815  12.125   1.854 -0.2547 -0.7138 -0.7179
18884SOL    HW265621   9.671  12.156   1.817 -0.3820  0.9365  0.9891
18885SOL     OW65622   2.135   0.275   1.681  0.1829  0.4690  0.4112
18885SOL    HW165623   2.184   0.354   1.702 -0.3374  0.2333  2.8539
18885SOL    HW265624   2.043   0.301   1.684  0.0457  0.1737 -0.7396
18886SOL     OW65625   8.994   5.983   2.805  0.5255  0.3858  0.3284
18886SOL    HW165626   8.910   5.966   2.846 -0.4880 -1.6433 -2.2857
18886SOL    HW265627   9.044   5.902   2.817  1.3935  0.9019  0.2966
18887SOL     OW65628  10.968   5.632   0.955  0.0004 -0.4917 -0.0621
18887SOL    HW165629  10.921   5.629   0.871 -0.7402  1.1261  0.2561
18887SOL    HW265630  11.058   5.652   0.930 -0.0245 -0.9579 -0.5368
18888SOL     OW65631  11.341   9.475  10.588  0.2788  0.3986 -0.3346
18888SOL    HW165632  11.285   9.431  10.523  1.8547 -0.0318 -1.4600
18888SOL    HW265633  11.336   9.567  10.565  0.7872  0.2547 -1.0670
18889SOL     OW65634   0.233   6.106   8.968 -0.1631 -0.1270 -0.2686
18889SOL    HW165635   0.233   6.048   8.893 -0.0470 -0.0027 -0.3654
18889SOL    HW265636   0.200   6.190   8.934  2.7171  0.8458 -0.8840
18890SOL     OW65637  10.319   2.719   1.602  0.3621 -0.1484  0.5824
18890SOL    HW165638  10.304   2.796   1.656  1.1708  0.0296  0.5781
18890SOL    HW265639  10.412   2.699   1.615  0.7910  0.3841 -1.3389
18891SOL     OW65640  12.270  11.142   1.540 -0.2660 -0.1265 -0.7240
18891SOL    HW165641  12.366  11.143   1.534 -0.3338 -1.4319 -2.8102
18891SOL    HW265642  12.245  11.235   1.536  0.9186  0.3874  1.6300
18892SOL     OW65643   7.949   3.586   6.567 -0.6774 -0.4957  0.4341
18892SOL    HW165644   7.964   3.505   6.518 -0.9977 -1.1681  1.4098
18892SOL    HW265645   7.883   3.632   6.516  0.2016 -0.3903 -0.6356
18893SOL     OW65646   6.107   7.594  11.522 -0.1168 -0.4100  0.2076
18893SOL    HW165647   6.048   7.519  11.521 -1.5896  0.5851  2.2572
18893SOL    HW265648   6.190   7.562  11.488 -1.6787 -2.0095 -2.3785
18894SOL     OW65649   6.080  11.750   6.656  0.5064  0.1957  0.2431
18894SOL    HW165650   6.169  11.760   6.621  0.6164 -0.4152  0.3261
18894SOL    HW265651   6.053  11.838   6.680  1.5824  0.2469  1.3656
18895SOL     OW65652   4.849   0.971   0.530  0.4258 -0.0015 -0.0953
18895SOL    HW165653   4.779   1.030   0.500  0.6685  0.1156 -0.4431
18895SOL    HW265654   4.804   0.903   0.580  0.0605  0.0601 -0.3392
18896SOL     OW65655   5.119   9.540  12.092  0.3625 -0.1468 -0.0502
18896SOL    HW165656   5.172   9.561  12.015  0.5775  1.2228  0.4420
18896SOL    HW265657   5.032   9.523  12.058  0.7493 -0.8191 -0.7171
18897SOL     OW65658  11.532   1.911   2.250  0.3427  0.6937  0.4045
18897SOL    HW165659  11.437   1.913   2.236  0.2124  0.4601  1.2108
18897SOL    HW265660  11.564   1.993   2.213  0.0383  0.0986 -1.2830
18898SOL     OW65661   9.915   3.616   8.812 -0.0348 -0.1167 -0.1516
18898SOL    HW165662  10.006   3.637   8.831 -0.3208  0.1276  1.0053
18898SOL    HW265663   9.916   3.586   8.721  1.1749 -0.0011 -0.1914
18899SOL     OW65664   9.647   3.298  11.693 -0.3441  0.1381  0.8474
18899SOL    HW165665   9.742   3.299  11.681 -0.5457  1.6649 -1.0820
18899SOL    HW265666   9.635   3.304  11.788  1.4743  0.8639  1.0782
18900SOL     OW65667   7.875  11.469  10.114 -0.1627  0.1257  0.0802
18900SOL    HW165668   7.946  11.496  10.056 -1.4539  1.5171 -0.9222
18900SOL    HW265669   7.861  11.377  10.094  1.9724 -0.4503  0.9973
18901SOL     OW65670   6.010   0.174   1.774  0.7341  0.0000  0.1658
18901SOL    HW165671   6.050   0.113   1.836 -0.1756  0.0646  0.8309
18901SOL    HW265672   5.947   0.122   1.725  1.1655  0.0405 -0.4542
18902SOL     OW65673   1.860   5.806   0.926  0.0541  0.6121 -0.2714
18902SOL    HW165674   1.882   5.824   1.017 -0.3903  0.5011 -0.1406
18902SOL    HW265675   1.774   5.847   0.913 -0.0777  0.2628 -0.5171
18903SOL     OW65676   1.235   9.949   1.205  0.2024 -0.1944 -0.3552
18903SOL    HW165677   1.172   9.964   1.134 -0.2443 -2.6563 -0.5810
18903SOL    HW265678   1.206  10.005   1.276 -1.7285 -0.5753 -0.7812
18904SOL     OW65679   8.750   2.127   3.757 -0.3499  0.3476  0.5767
18904SOL    HW165680   8.715   2.187   3.691  0.3808 -0.6268 -0.7229
18904SOL    HW265681   8.711   2.043   3.736 -1.0884  0.2428  2.1804
18905SOL     OW65682   3.681   3.975   5.127  0.5134 -0.0683 -0.0422
18905SOL    HW165683   3.592   3.974   5.092  0.2439 -0.2195  0.6253
18905SOL    HW265684   3.734   3.929   5.062  0.1140  0.0758 -0.4712
18906SOL     OW65685   4.613   1.531  11.413 -0.7472 -0.2247 -0.1698
18906SOL    HW165686   4.619   1.609  11.359  1.6006 -0.3247 -0.1960
18906SOL    HW265687   4.698   1.488  11.401 -2.3148 -3.3687 -0.9989
18907SOL     OW65688   7.571  12.218   7.055 -0.0185 -0.0695 -0.1704
18907SOL    HW165689   7.641  12.238   6.993 -0.2870  0.3527 -0.3389
18907SOL    HW265690   7.602  12.255   7.138 -1.8579  4.0819 -1.0723
18908SOL     OW65691   8.227   1.001   6.660  0.4593 -0.0506  0.3340
18908SOL    HW165692   8.187   0.971   6.579  1.9858 -1.2041 -0.0404
18908SOL    HW265693   8.159   0.987   6.727 -1.6480  2.9487 -0.9557
18909SOL     OW65694   6.732   6.443   3.859  0.3605 -0.4177  0.3631
18909SOL    HW165695   6.704   6.358   3.824 -0.5534  0.2687 -0.6427
18909SOL    HW265696   6.742   6.428   3.953  2.8436 -2.3017 -0.1172
18910SOL     OW65697  10.098   6.856  11.860 -0.8607  0.2213 -0.4600
18910SOL    HW165698  10.089   6.820  11.948  0.2574 -0.2755 -0.5359
18910SOL    HW265699  10.144   6.788  11.811 -2.2255  0.1378 -1.6706
18911SOL     OW65700  11.238  11.029   4.595  0.3635 -0.5558 -0.2299
18911SOL    HW165701  11.143  11.043   4.604  0.5064  0.4040 -0.1190
18911SOL    HW265702  11.263  10.981   4.674 -0.3487 -2.6460 -1.1963
18912SOL     OW65703   6.768   7.330   6.298 -0.2696 -0.5104 -0.0104
18912SOL    HW165704   6.826   7.399   6.330 -0.6643 -0.1416 -0.0848
18912SOL    HW265705   6.702   7.321   6.367 -1.3926  0.6043 -0.9021
18913SOL     OW65706   9.202   8.019   3.888 -0.2296 -0.2016 -0.4744
18913SOL    HW165707   9.136   8.088   3.879 -0.4815 -0.2011  1.2098
18913SOL    HW265708   9.180   7.956   3.818 -2.0553 -0.2302  0.0759
18914SOL     OW65709   9.240   4.926   4.172 -0.4668 -0.2673 -0.3067
18914SOL    HW165710   9.175   4.942   4.103  1.2338  0.8344 -1.7645
18914SOL    HW265711   9.324   4.943   4.129  0.8302 -2.0402  1.3777
18915SOL     OW65712   9.392   9.437   3.961  0.3044  0.0088 -0.1075
18915SOL    HW165713   9.449   9.464   3.889  0.8849 -1.9537 -0.4542
18915SOL    HW265714   9.319   9.392   3.918  0.4501 -0.8240  0.4912
18916SOL     OW65715   6.993  10.228  10.123  0.5258 -0.0550 -0.1180
18916SOL    HW165716   6.939  10.220  10.201  0.0736  1.2942 -0.2570
18916SOL    HW265717   7.067  10.169  10.137 -0.4393 -1.1257  0.5473
18917SOL     OW65718   1.497  11.198  10.796 -0.4139 -0.4940 -0.1702
18917SOL    HW165719   1.584  11.219  10.831 -1.1182  0.5747  1.0613
18917SOL    HW265720   1.461  11.283  10.770 -0.1848 -1.1784 -2.9896
18918SOL     OW65721   2.673   3.100   0.590 -0.5836 -0.3325  0.0536
18918SOL    HW165722   2.722   3.103   0.509 -0.0189  1.0069  0.4218
18918SOL    HW265723   2.739   3.104   0.659 -1.1480  1.3459  0.5580
18919SOL     OW65724   4.204   4.172   2.264 -0.2179 -0.2184  0.3434
18919SOL    HW165725   4.281   4.207   2.219  0.0260 -0.4122  0.6057
18919SOL    HW265726   4.130   4.199   2.210  0.0121  0.2248  0.2504
18920SOL     OW65727  10.646  10.893   2.057 -0.3409 -0.1580 -0.2966
18920SOL    HW165728  10.618  10.982   2.037 -1.7952 -0.6328 -0.5377
18920SOL    HW265729  10.741  10.897   2.061 -0.3959  1.4300 -0.1444
18921SOL     OW65730   0.877   0.295   8.187 -0.0192 -0.0021 -0.3796
18921SOL    HW165731   0.892   0.210   8.146 -3.1685 -1.3262  0.9234
18921SOL    HW265732   0.900   0.282   8.279 -0.0357  0.7099 -0.2671
18922SOL     OW65733  11.825   6.101   5.502 -0.4377  0.2282  0.1283
18922SOL    HW165734  11.795   6.115   5.412 -0.0399 -2.4153 -0.5063
18922SOL    HW265735  11.746   6.079   5.551 -0.3520 -0.8931 -0.2035
18923SOL     OW65736  10.236   9.925   7.759 -0.0295 -1.0390 -0.1945
18923SOL    HW165737  10.319   9.876   7.752  0.9425  0.3377  1.0884
18923SOL    HW265738  10.231   9.951   7.851 -0.3929  1.4018 -0.8418
18924SOL     OW65739  10.811   3.532   9.730  0.0382  0.2459  0.3514
18924SOL    HW165740  10.828   3.516   9.823 -0.4991  2.1049  0.8179
18924SOL    HW265741  10.717   3.550   9.726  0.1203  0.5014 -0.5071
18925SOL     OW65742   6.424   6.752   6.382  0.5577 -0.2878 -0.4870
18925SOL    HW165743   6.493   6.745   6.316 -0.2407  0.0638 -1.3817
18925SOL    HW265744   6.356   6.804   6.340 -0.2926 -0.7000  0.3466
18926SOL     OW65745   8.035   8.994   9.791  0.3011  0.2316 -0.2531
18926SOL    HW165746   8.065   9.063   9.851  1.6567  0.1712 -0.8261
18926SOL    HW265747   7.945   9.020   9.768  1.0866  2.3688 -1.2226
18927SOL     OW65748  11.886   2.292   4.364  0.7310 -0.0427  0.3984
18927SOL    HW165749  11.849   2.212   4.400  1.1899  0.3321  1.7967
18927SOL    HW265750  11.974   2.298   4.403  1.2320  0.4425 -0.7528
18928SOL     OW65751   8.192  11.551   1.588  0.5307 -0.4838  0.0797
18928SOL    HW165752   8.257  11.556   1.658  1.2452 -0.1806 -0.5812
18928SOL    HW265753   8.234  11.496   1.522 -0.4323 -1.3684  0.1928
18929SOL     OW65754   0.379  10.113   0.655  0.0421  0.4573  0.5578
18929SOL    HW165755   0.315  10.157   0.598 -1.4141 -1.7471  0.3906
18929SOL    HW265756   0.386  10.171   0.731 -1.0221  1.4777 -0.0693
18930SOL     OW65757   7.217   9.712   3.062  0.2928 -0.1121 -0.2003
18930SOL    HW165758   7.294   9.738   3.012 -0.3201 -0.1227 -1.1781
18930SOL    HW265759   7.252   9.659   3.134  1.1449 -0.6768 -1.0069
18931SOL     OW65760   7.209   6.984   7.638 -0.2946  0.6425 -0.1254
18931SOL    HW165761   7.259   7.052   7.593 -1.2589  1.6383  0.2683
18931SOL    HW265762   7.135   7.030   7.678  0.0672 -0.3251  1.7828
18932SOL     OW65763   7.055   2.193   7.518 -0.6999 -0.0041  0.2157
18932SOL    HW165764   7.140   2.214   7.480 -0.3009 -1.2020  0.4150
18932SOL    HW265765   7.047   2.098   7.508 -0.9474 -0.2560  2.3589
18933SOL     OW65766   8.298  10.716   5.512  0.1320  0.4045 -0.6475
18933SOL    HW165767   8.351  10.666   5.573  1.3705  0.6344 -1.4905
18933SOL    HW265768   8.214  10.730   5.557  1.9348  3.1385  2.2664
18934SOL     OW65769   5.538   2.011   3.416 -1.0775  0.0911 -0.2841
18934SOL    HW165770   5.622   2.055   3.434  0.1529 -0.1978 -4.2088
18934SOL    HW265771   5.476   2.083   3.403 -0.1666  0.5874 -2.2073
18935SOL     OW65772   8.712  10.931   4.809 -0.1318  0.4567 -0.3444
18935SOL    HW165773   8.763  10.965   4.883  0.8624 -0.0353 -0.7780
18935SOL    HW265774   8.690  10.841   4.834 -1.1099  0.7782 -0.0103
18936SOL     OW65775  10.422  10.904   3.285  0.3815  0.0628 -0.2289
18936SOL    HW165776  10.513  10.885   3.262  0.4960  0.5090 -0.1437
18936SOL    HW265777  10.426  10.939   3.374 -0.0182 -1.2691  0.3355
18937SOL     OW65778   8.897   9.565   0.445  0.6143 -0.5397 -0.0048
18937SOL    HW165779   8.866   9.644   0.490  2.0840  0.0198  0.0757
18937SOL    HW265780   8.840   9.557   0.369  0.6203  0.7641 -0.1686
18938SOL     OW65781  11.598  10.195   1.453 -0.2797  0.4135  0.2395
18938SOL    HW165782  11.548  10.277   1.457 -0.1997  0.4757  0.0197
18938SOL    HW265783  11.650  10.194   1.533 -1.3440 -0.1192  0.9438
18939SOL     OW65784  12.040   5.819   5.298  0.3578  0.3390  0.2967
18939SOL    HW165785  12.018   5.909   5.276  3.0316  0.7944 -0.8107
18939SOL    HW265786  11.990   5.767   5.234  1.7803  1.2809 -1.6933
18940SOL     OW65787   7.974   1.965   1.749 -0.6436  0.0811 -0.0608
18940SOL    HW165788   7.956   2.059   1.753  2.3262  0.7500 -0.0786
18940SOL    HW265789   8.014   1.953   1.663 -1.5454 -1.3624 -0.3129
18941SOL     OW65790  11.843   3.987   5.830  0.5049  0.6445  0.2620
18941SOL    HW165791  11.799   4.036   5.899 -0.7587  0.0094 -0.0579
18941SOL    HW265792  11.905   3.931   5.877 -0.8161 -0.2826  0.9961
18942SOL     OW65793   9.450   3.480   0.600  0.3756  0.2454  0.4134
18942SOL    HW165794   9.468   3.386   0.611 -2.0151 -0.2686  0.3330
18942SOL    HW265795   9.388   3.501   0.669 -0.9751  1.1889 -1.0222
18943SOL     OW65796  10.967  10.764  12.597 -0.7969 -0.7791  0.0713
18943SOL    HW165797  10.887  10.774  12.648 -1.0739 -0.6180 -0.3828
18943SOL    HW265798  10.939  10.775  12.506  0.0170  1.0357 -0.0012
18944SOL     OW65799   4.044   0.521   0.209  0.5554 -0.0382 -0.1884
18944SOL    HW165800   3.980   0.460   0.171  0.7934  1.0088 -2.4453
18944SOL    HW265801   3.991   0.578   0.265 -0.3785  0.3065 -1.3890
18945SOL     OW65802  10.685   6.486  10.525  0.6525  0.6824 -0.3072
18945SOL    HW165803  10.730   6.412  10.565 -0.9644  0.3547  0.9979
18945SOL    HW265804  10.684   6.553  10.594 -1.9377  0.2081  0.2261
18946SOL     OW65805   9.860   1.832   0.766  0.0679 -0.2284  0.5760
18946SOL    HW165806   9.902   1.806   0.848  0.0838  0.2324  0.7144
18946SOL    HW265807   9.932   1.839   0.703  0.1771  0.3471  0.7590
18947SOL     OW65808   5.177   8.824   7.387 -0.4099  0.0055 -0.3295
18947SOL    HW165809   5.084   8.803   7.398 -0.4294 -0.3674 -1.1040
18947SOL    HW265810   5.207   8.762   7.320  0.4313  0.0348  0.0193
18948SOL     OW65811   6.217   5.724   0.968  0.5360  0.4380  0.7669
18948SOL    HW165812   6.209   5.791   1.036 -1.6622  0.5467  0.4583
18948SOL    HW265813   6.174   5.647   1.006 -0.3436  0.3744 -0.3342
18949SOL     OW65814  12.030   7.552   7.885 -0.2718  0.1911 -0.2823
18949SOL    HW165815  11.966   7.512   7.943  0.0704  0.0920  0.0281
18949SOL    HW265816  12.105   7.492   7.885  0.2818  0.8611  0.2576
18950SOL     OW65817   9.906   8.804  11.265 -0.4904 -0.3494 -0.3570
18950SOL    HW165818   9.905   8.746  11.189  3.2068  0.0520 -0.8713
18950SOL    HW265819   9.958   8.757  11.330  0.6746  1.4078  0.0383
18951SOL     OW65820   4.621  12.285  11.011  0.5073  0.0081 -0.6903
18951SOL    HW165821   4.599  12.223  11.081  0.8519 -0.5134 -1.0294
18951SOL    HW265822   4.561  12.358  11.023  0.0380 -0.4302 -0.3246
18952SOL     OW65823   4.360   9.443   4.413 -0.8335 -0.6924 -0.1077
18952SOL    HW165824   4.405   9.478   4.336 -0.2312 -0.7577  0.2085
18952SOL    HW265825   4.352   9.518   4.472  1.1655 -1.2087  0.9030
18953SOL     OW65826   7.556   2.008  10.653  0.3012 -0.2199 -0.0813
18953SOL    HW165827   7.556   1.937  10.589  1.4636  0.6767 -1.1220
18953SOL    HW265828   7.473   2.053  10.638 -0.0951 -0.8824  0.0602
18954SOL     OW65829   0.252   0.646   1.207  0.0207 -0.2542  0.0819
18954SOL    HW165830   0.271   0.563   1.250  0.2771  0.2397  0.9414
18954SOL    HW265831   0.249   0.710   1.278  1.2966  0.7206 -0.6933
18955SOL     OW65832  12.267   9.723   9.669  0.3004  0.2415  0.3456
18955SOL    HW165833  12.322   9.718   9.591 -2.5391  0.1997 -1.8196
18955SOL    HW265834  12.233   9.635   9.680  0.1541  0.4041  1.2277
18956SOL     OW65835  12.243   9.446   2.760 -0.5399 -0.6630  0.4857
18956SOL    HW165836  12.167   9.448   2.818 -0.3333  0.1161  0.7268
18956SOL    HW265837  12.242   9.530   2.715  0.9282 -0.1105  1.4396
18957SOL     OW65838   1.241  10.790   7.495  0.5147  0.1602  0.1959
18957SOL    HW165839   1.259  10.750   7.410  2.0552 -1.1616  1.0748
18957SOL    HW265840   1.174  10.855   7.478  2.4446  1.6231 -2.4688
18958SOL     OW65841  10.363   3.831   1.924  0.7077 -0.5247 -0.3492
18958SOL    HW165842  10.428   3.848   1.857  0.7604  0.2454 -0.1068
18958SOL    HW265843  10.321   3.916   1.940  2.3595 -0.0998  2.3365
18959SOL     OW65844   4.888   4.182  10.927  0.3006 -0.3173 -0.0471
18959SOL    HW165845   4.874   4.276  10.915 -0.3209 -0.4565 -0.4517
18959SOL    HW265846   4.803   4.148  10.956  0.2411 -0.9094 -0.8716
18960SOL     OW65847   1.764   7.982   7.888  0.1804  0.4976 -0.5174
18960SOL    HW165848   1.677   7.953   7.915  0.6752 -0.1858  0.4306
18960SOL    HW265849   1.751   8.023   7.802 -1.1489  0.9123 -0.1372
18961SOL     OW65850   6.358   2.860   4.252  0.0714 -0.4998 -0.7075
18961SOL    HW165851   6.354   2.819   4.339 -1.7773  0.8363 -0.1026
18961SOL    HW265852   6.285   2.823   4.204  0.3563 -0.3318 -1.2793
18962SOL     OW65853   6.250   8.200   2.840 -0.2128 -0.0852 -0.0392
18962SOL    HW165854   6.176   8.237   2.889  0.7832 -0.4162  1.7690
18962SOL    HW265855   6.242   8.105   2.853  1.3978 -0.0447  1.5249
18963SOL     OW65856   8.771   2.224  11.557 -0.0491 -0.4917 -0.0984
18963SOL    HW165857   8.804   2.284  11.624  0.5300 -0.7978 -0.0968
18963SOL    HW265858   8.832   2.150  11.560 -0.5016 -0.8834 -0.3942
18964SOL     OW65859   5.144  10.032  10.412 -0.0888 -0.5805 -0.1595
18964SOL    HW165860   5.098   9.968  10.466  0.5157 -0.8231  0.0756
18964SOL    HW265861   5.166  10.103  10.472 -1.8330  0.4507 -0.6641
18965SOL     OW65862   7.869   2.177  10.001 -0.4409 -0.1582 -0.0014
18965SOL    HW165863   7.778   2.196   9.976 -1.0744 -1.9594  0.7911
18965SOL    HW265864   7.898   2.112   9.937  0.5771  0.9232 -0.6883
18966SOL     OW65865   6.812   3.581   3.578  0.2922  0.3880 -0.4672
18966SOL    HW165866   6.795   3.534   3.659 -0.7778  0.8499 -0.4074
18966SOL    HW265867   6.786   3.672   3.597  0.3701  0.5767 -1.2077
18967SOL     OW65868   6.049  11.485   8.167 -0.1873 -0.4343  0.2660
18967SOL    HW165869   5.973  11.456   8.118  0.7983 -3.1565  0.1891
18967SOL    HW265870   6.016  11.552   8.227 -2.4003 -0.7891 -0.4908
18968SOL     OW65871   1.659   9.091   7.109  0.1797  0.3246 -0.7590
18968SOL    HW165872   1.598   9.028   7.148  0.9396  0.0424  0.0060
18968SOL    HW265873   1.706   9.040   7.044 -0.1486  0.4569 -1.1063
18969SOL     OW65874   5.677  10.815  10.160 -0.3694 -0.0959  0.2269
18969SOL    HW165875   5.729  10.769  10.227  0.3031  1.8826  1.1266
18969SOL    HW265876   5.732  10.814  10.082 -0.5010 -1.0721  0.1333
18970SOL     OW65877  10.058  12.542   5.381 -0.1454  0.2603 -0.0454
18970SOL    HW165878  10.036  12.517   5.471 -2.5358 -0.7172 -0.8240
18970SOL    HW265879  10.100  12.628   5.390  1.7669 -0.7668  2.1400
18971SOL     OW65880  12.230   9.221   2.585  0.2025  0.3643 -0.0002
18971SOL    HW165881  12.221   9.272   2.666  0.5942  0.3169  0.0742
18971SOL    HW265882  12.139   9.206   2.557  0.0768  0.8664  0.1222
18972SOL     OW65883   6.901   0.590   1.255 -0.4941  0.4588  0.2705
18972SOL    HW165884   6.966   0.657   1.236  0.2507 -0.5548 -0.9218
18972SOL    HW265885   6.817   0.631   1.235 -0.0436  0.9750 -0.6005
18973SOL     OW65886   5.990   6.109   7.774  0.4775 -0.2116 -0.3428
18973SOL    HW165887   5.913   6.109   7.716  1.2116 -0.3296 -1.3445
18973SOL    HW265888   6.024   6.020   7.769 -1.5338 -1.3468  3.2013
18974SOL     OW65889   5.221   7.360   6.402 -0.0933  0.6008 -0.4570
18974SOL    HW165890   5.310   7.359   6.438  0.0296  1.1367 -0.7379
18974SOL    HW265891   5.164   7.373   6.478 -0.0538 -1.1308 -0.0677
18975SOL     OW65892   3.988   2.555   0.826  0.4568 -0.4351  0.1825
18975SOL    HW165893   4.000   2.541   0.920  0.6579  1.0947  0.4119
18975SOL    HW265894   3.894   2.542   0.812 -0.2270  2.4825  1.2536
18976SOL     OW65895   3.905   4.690   7.597  0.8063 -0.4563 -0.2379
18976SOL    HW165896   3.946   4.766   7.638 -1.4492  0.5293  0.3576
18976SOL    HW265897   3.975   4.626   7.589  2.4039  1.0814  0.7779
18977SOL     OW65898   9.075  10.342   0.040 -0.4427 -0.0056  0.2883
18977SOL    HW165899   9.035  10.256   0.054 -0.6462  0.3233  1.9680
18977SOL    HW265900   9.157  10.323  -0.005 -0.4174 -1.1012  0.7599
18978SOL     OW65901   0.181   0.834   0.574 -0.0952  0.1468  0.0182
18978SOL    HW165902   0.210   0.889   0.501 -0.0757 -1.7001 -1.4321
18978SOL    HW265903   0.255   0.775   0.591 -0.6479 -0.3980  0.5844
18979SOL     OW65904  11.371   7.244   8.861 -0.3724  0.1821  0.2640
18979SOL    HW165905  11.307   7.249   8.790 -0.1405  0.9749  0.0973
18979SOL    HW265906  11.420   7.326   8.854  1.1240 -0.7012 -0.0322
18980SOL     OW65907  12.301   6.433   3.667 -0.2628 -0.0628 -0.1468
18980SOL    HW165908  12.227   6.492   3.653 -0.5216  0.1984  2.0378
18980SOL    HW265909  12.340   6.463   3.749  2.2357 -0.2649 -1.1886
18981SOL     OW65910   5.014   9.578   9.775  0.2571  0.2688  0.8461
18981SOL    HW165911   5.108   9.593   9.760  0.7400 -1.3664  1.9167
18981SOL    HW265912   4.999   9.489   9.741 -0.6854  0.1692  1.4912
18982SOL     OW65913   9.370   7.772   2.852  0.2609  0.0742  0.5943
18982SOL    HW165914   9.305   7.827   2.808  0.0415  0.1042  0.9548
18982SOL    HW265915   9.413   7.725   2.781 -1.3081 -1.2256  0.4376
18983SOL     OW65916   9.554   1.020   7.268 -0.1746  0.1002  0.1734
18983SOL    HW165917   9.548   1.065   7.184 -2.1568  0.3056  0.3884
18983SOL    HW265918   9.554   1.090   7.333 -0.0060 -0.1035  0.3957
18984SOL     OW65919   3.540   8.341   5.787 -0.3923  0.0064 -0.8036
18984SOL    HW165920   3.544   8.268   5.848 -0.2683  1.5615  1.1711
18984SOL    HW265921   3.629   8.352   5.755 -0.3216 -0.4129 -0.7499
18985SOL     OW65922   6.249   0.839   5.098 -0.3479  0.7313  0.8006
18985SOL    HW165923   6.220   0.769   5.157  0.8741 -1.4243 -0.9718
18985SOL    HW265924   6.342   0.849   5.117  0.5220 -1.2740 -1.7579
18986SOL     OW65925   0.375   0.939  12.217 -0.2929  0.0944  0.1541
18986SOL    HW165926   0.291   0.915  12.256  0.0380 -0.4833  0.5494
18986SOL    HW265927   0.440   0.909  12.281  0.2348 -0.0637 -0.4402
18987SOL     OW65928   5.545  11.058   8.952  0.2906 -0.2502 -0.2623
18987SOL    HW165929   5.462  11.016   8.975  0.2751 -0.1253 -0.0949
18987SOL    HW265930   5.522  11.149   8.932  0.2853 -0.3798 -0.8732
18988SOL     OW65931   3.686  11.257  10.995 -0.0925  0.1159  0.4372
18988SOL    HW165932   3.710  11.187  11.056  0.3578 -0.8990 -0.8721
18988SOL    HW265933   3.766  11.276  10.946 -0.5406  0.6556 -0.1058
18989SOL     OW65934   0.079   6.532  11.597  0.0464 -0.1195 -0.2245
18989SOL    HW165935   0.126   6.612  11.618  1.6776 -0.6618 -1.6017
18989SOL    HW265936  -0.006   6.542  11.641  0.3814  2.1256  0.0437
18990SOL     OW65937  11.596   7.693   4.390 -0.1383  0.2100  0.0235
18990SOL    HW165938  11.572   7.640   4.314  0.2958 -1.4436  0.9898
18990SOL    HW265939  11.551   7.776   4.376 -0.0167 -0.0156 -2.0623
18991SOL     OW65940   6.479   7.714   4.465  0.2477  0.8176  0.3712
18991SOL    HW165941   6.545   7.755   4.410 -0.4595  0.6508 -0.6358
18991SOL    HW265942   6.399   7.716   4.413 -1.1199  2.9278  2.3373
18992SOL     OW65943   6.133   1.305   0.845  0.5499 -0.3660 -0.3918
18992SOL    HW165944   6.098   1.394   0.845 -2.0877 -1.3336 -0.0362
18992SOL    HW265945   6.059   1.250   0.871  1.7958 -2.7877 -1.6896
18993SOL     OW65946   9.847   6.890   7.038  0.5793 -0.0841  0.4855
18993SOL    HW165947   9.795   6.829   7.090  2.9613 -1.5061  1.3279
18993SOL    HW265948   9.919   6.915   7.096  1.4288  0.9897 -0.9793
18994SOL     OW65949   6.338  10.251   4.313  0.2879  0.3990 -0.2421
18994SOL    HW165950   6.407  10.284   4.370  1.1528 -1.4202 -0.1754
18994SOL    HW265951   6.292  10.185   4.367  0.0735 -0.1660 -1.0976
18995SOL     OW65952   4.916   0.667   5.499 -0.5969 -0.5623 -0.0637
18995SOL    HW165953   4.979   0.722   5.453 -0.4384  0.5604  1.4451
18995SOL    HW265954   4.882   0.608   5.431 -0.3222  0.9735 -1.5951
18996SOL     OW65955   5.258   3.153   7.710 -0.5789 -0.5084 -0.1131
18996SOL    HW165956   5.207   3.230   7.685 -1.6856 -1.0508  0.3752
18996SOL    HW265957   5.286   3.115   7.627 -0.2279  0.2692 -0.3645
18997SOL     OW65958  12.420   5.536   7.334 -1.0803  0.1479  0.4016
18997SOL    HW165959  12.362   5.549   7.259 -2.8072  2.1334  1.9377
18997SOL    HW265960  12.489   5.601   7.322  0.3007 -1.4909 -0.8797
18998SOL     OW65961   8.326  10.916   4.170  0.0679  0.2569  0.6822
18998SOL    HW165962   8.283  10.867   4.241 -0.4722  0.6772  0.6476
18998SOL    HW265963   8.385  10.976   4.215  0.8488 -0.5199  0.7215
18999SOL     OW65964   0.043  11.449   5.727  0.2032  0.2789 -0.0133
18999SOL    HW165965   0.115  11.422   5.784 -2.0558 -1.2801  2.3535
18999SOL    HW265966  -0.033  11.456   5.786 -2.1355 -0.5902 -2.6838
19000SOL     OW65967   8.732   1.071   0.309 -0.1315  0.3270  0.0578
19000SOL    HW165968   8.807   1.089   0.365 -0.7984  2.7909  0.2770
19000SOL    HW265969   8.665   1.039   0.368  0.8622 -2.5269 -0.2302
19001SOL     OW65970   2.251  12.545  10.871 -0.1020 -0.4559  0.3393
19001SOL    HW165971   2.293  12.554  10.956 -1.9349  1.8396  1.1188
19001SOL    HW265972   2.176  12.488  10.887  0.1606 -0.9072 -0.0096
19002SOL     OW65973   6.703   5.162   6.893  0.0459  0.2703 -0.9453
19002SOL    HW165974   6.741   5.116   6.818 -0.2652 -0.1873 -0.8282
19002SOL    HW265975   6.741   5.118   6.969 -0.7264 -0.2202 -0.8260
19003SOL     OW65976  11.946   7.073   9.031  0.6224 -0.0559  0.7515
19003SOL    HW165977  11.954   7.034   8.943 -1.5257 -1.7192  1.1928
19003SOL    HW265978  12.031   7.113   9.047  0.8002  1.1477 -2.4517
19004SOL     OW65979   7.310   9.322   1.512 -0.6545  0.3266 -0.1683
19004SOL    HW165980   7.269   9.267   1.578 -0.8758  0.7405  0.0479
19004SOL    HW265981   7.301   9.274   1.430 -0.6095 -0.0738  0.0596
19005SOL     OW65982   1.526  11.176   2.468 -0.2378  0.2328  0.0089
19005SOL    HW165983   1.448  11.206   2.421  0.7464  1.0133 -1.2037
19005SOL    HW265984   1.519  11.080   2.467 -1.7106  0.2862  0.9215
19006SOL     OW65985   0.644   3.687   7.054 -0.9335  0.3615  0.0800
19006SOL    HW165986   0.633   3.779   7.027 -0.6858  0.6724  1.0028
19006SOL    HW265987   0.583   3.677   7.128 -1.4403 -0.4114 -0.4291
19007SOL     OW65988  11.510   8.776  11.460  0.0765 -0.0097  0.0239
19007SOL    HW165989  11.516   8.835  11.535 -0.0148 -0.9401  0.7750
19007SOL    HW265990  11.567   8.702  11.482 -2.2326 -1.7507  0.5531
19008SOL     OW65991   4.063   4.083   8.668 -0.1970  0.3704 -0.0592
19008SOL    HW165992   4.024   4.151   8.723 -1.0737  0.2155 -0.4603
19008SOL    HW265993   4.151   4.114   8.650 -0.5911  1.4225 -0.2555
19009SOL     OW65994   2.075   0.213   1.014  0.1785  1.0069 -0.7640
19009SOL    HW165995   2.063   0.223   0.920  1.2527  1.0194 -0.9187
19009SOL    HW265996   1.998   0.253   1.053 -1.5730 -1.2737 -1.6738
19010SOL     OW65997   3.848   4.137   4.880  0.3619  0.0382  0.5346
19010SOL    HW165998   3.865   4.070   4.946  1.1780  0.8346  1.1608
19010SOL    HW265999   3.934   4.156   4.842  0.0909  0.5118  0.1490
19011SOL     OW66000   0.165   1.102   9.971  0.5264 -0.0832 -0.1351
19011SOL    HW166001   0.202   1.045  10.039 -1.5873  0.8931  1.9474
19011SOL    HW266002   0.188   1.190   9.998 -2.0023  0.4553  0.4647
19012SOL     OW66003   8.271   4.223   0.039 -0.4905  0.4585  0.3716
19012SOL    HW166004   8.364   4.217   0.059 -0.2497  1.3881 -0.3702
19012SOL    HW266005   8.232   4.147   0.082  0.8947 -1.1181 -1.0377
19013SOL     OW66006   0.297   7.947   7.283 -0.1689  0.0990 -0.0491
19013SOL    HW166007   0.329   8.038   7.285 -1.1313  0.4576  2.3572
19013SOL    HW266008   0.217   7.951   7.232  0.4361  0.3513 -0.9981
19014SOL     OW66009   9.264   6.141   5.864  0.0109 -0.2612  0.3584
19014SOL    HW166010   9.275   6.190   5.783  1.0442 -1.4491 -0.2528
19014SOL    HW266011   9.352   6.109   5.885 -0.1861  0.1752  2.0726
19015SOL     OW66012   9.170  11.310   2.416 -0.2936  0.3044  0.6268
19015SOL    HW166013   9.076  11.310   2.394 -1.0771 -0.0555  3.5325
19015SOL    HW266014   9.183  11.391   2.466  0.9097  0.2634  0.4097
19016SOL     OW66015   6.308   8.364  12.489 -0.0935  0.4261  0.1941
19016SOL    HW166016   6.248   8.437  12.504  0.4012  0.6793  1.0539
19016SOL    HW266017   6.380   8.379  12.551  1.2374  0.5488 -1.3183
19017SOL     OW66018   8.720   2.069   5.095  0.1744  0.6797 -0.0615
19017SOL    HW166019   8.707   2.103   5.184 -1.4818  1.7789 -0.6671
19017SOL    HW266020   8.742   2.146   5.043 -0.7408  0.3701 -0.9386
19018SOL     OW66021   7.591   2.692   0.409 -0.6295 -0.6408  0.0413
19018SOL    HW166022   7.509   2.645   0.424 -0.0405 -1.9554 -0.6793
19018SOL    HW266023   7.648   2.664   0.481  0.4555 -2.8644 -1.5419
19019SOL     OW66024   3.573   0.290  11.739 -0.3214  0.3157  0.2079
19019SOL    HW166025   3.648   0.326  11.692 -0.5434  0.9054  0.2961
19019SOL    HW266026   3.545   0.216  11.686  1.2620 -0.8821  0.9479
19020SOL     OW66027   9.201  10.262  12.006  0.7480 -0.7529 -0.1518
19020SOL    HW166028   9.272  10.198  12.012  1.8105  0.4665  0.8450
19020SOL    HW266029   9.228  10.322  11.937  1.8514  1.0032  1.6959
19021SOL     OW66030   1.258   4.034   5.518  0.1759 -0.1550  0.2924
19021SOL    HW166031   1.266   3.939   5.526  2.9224  0.0050  0.3802
19021SOL    HW266032   1.329   4.059   5.458  0.1639  1.9237  1.0645
19022SOL     OW66033   5.061   5.841   3.434 -0.1657  0.1581  0.4199
19022SOL    HW166034   5.085   5.913   3.493  0.0479  0.1155  0.3855
19022SOL    HW266035   5.077   5.875   3.346  2.4020 -0.7888  0.4588
19023SOL     OW66036   3.724  11.877   5.367  0.1731 -0.3342 -0.4880
19023SOL    HW166037   3.765  11.872   5.454  1.4541  2.1435 -0.8446
19023SOL    HW266038   3.650  11.817   5.372  0.0318 -0.0872  2.4399
19024SOL     OW66039   9.149   9.755   8.500 -0.4621 -0.0762  0.2723
19024SOL    HW166040   9.160   9.794   8.414 -0.8853 -1.7047 -0.5449
19024SOL    HW266041   9.227   9.783   8.549  0.2214  0.1256 -0.9079
19025SOL     OW66042   8.206   9.305   7.122  0.0258 -0.3555  0.3330
19025SOL    HW166043   8.282   9.282   7.175  0.3260  0.3376  0.2161
19025SOL    HW266044   8.132   9.266   7.168  0.3553 -0.3194  0.9023
19026SOL     OW66045  10.854   7.341   5.023 -0.3991  0.5523 -0.3273
19026SOL    HW166046  10.815   7.255   5.040  0.6651 -0.0674 -0.9324
19026SOL    HW266047  10.867   7.344   4.928 -0.9954  1.6465 -0.3916
19027SOL     OW66048  11.960   3.345   5.714 -0.0117 -0.4243 -0.3614
19027SOL    HW166049  12.018   3.270   5.724  0.2202 -0.5367 -2.2415
19027SOL    HW266050  11.910   3.326   5.635 -0.5278  1.0352 -0.4088
19028SOL     OW66051  12.409   4.760   3.324  0.2155 -0.1977  0.2430
19028SOL    HW166052  12.464   4.778   3.247  0.4146 -1.2619  0.1181
19028SOL    HW266053  12.410   4.842   3.374 -0.4394  0.7315 -1.1912
19029SOL     OW66054  12.570  10.861   1.417  0.4473 -0.3836  0.1778
19029SOL    HW166055  12.636  10.890   1.354  3.6117 -2.1663  2.3829
19029SOL    HW266056  12.557  10.937   1.475  0.2276  0.1005 -0.4883
19030SOL     OW66057   1.852   0.764   6.758  0.4870  0.0816  0.8220
19030SOL    HW166058   1.796   0.688   6.739  2.0007 -0.6777 -0.9219
19030SOL    HW266059   1.891   0.744   6.844  0.3920 -0.8475  0.6653
19031SOL     OW66060  10.805   5.378   4.936  0.0546 -0.7003  0.2994
19031SOL    HW166061  10.886   5.382   4.884  0.7281 -1.0045  1.3067
19031SOL    HW266062  10.736   5.369   4.870  0.6602  1.2723 -0.6931
19032SOL     OW66063   8.539   9.697   7.090 -0.2652  0.1347 -0.3930
19032SOL    HW166064   8.561   9.718   7.181  0.4936 -1.1028 -0.2781
19032SOL    HW266065   8.601   9.748   7.037  1.0476 -1.1280 -0.1340
19033SOL     OW66066   8.267   3.811   3.504 -0.4615 -0.3522 -0.4583
19033SOL    HW166067   8.266   3.757   3.425  0.1202 -2.7825  1.0928
19033SOL    HW266068   8.360   3.817   3.527 -0.5891  0.6836 -0.1533
19034SOL     OW66069  11.928   3.613   6.607  0.1183  0.5844 -0.2710
19034SOL    HW166070  11.856   3.675   6.599  1.6478  2.4480 -0.4095
19034SOL    HW266071  12.002   3.656   6.563  1.3767 -1.1706 -0.0072
19035SOL     OW66072   2.057   5.999   9.693  0.2080  0.3349 -0.0909
19035SOL    HW166073   1.980   6.015   9.746 -1.4686  2.6854 -2.9195
19035SOL    HW266074   2.116   6.072   9.714 -0.1119  0.8099 -0.8021
19036SOL     OW66075   1.306   0.491   7.009  0.0767  0.5287  0.1649
19036SOL    HW166076   1.265   0.574   7.036 -0.9327 -0.4356  1.7343
19036SOL    HW266077   1.243   0.451   6.950 -0.8484 -0.4524  1.7361
19037SOL     OW66078   2.816  10.633  11.925  0.3737 -0.1975 -0.1729
19037SOL    HW166079   2.885  10.615  11.988  0.2596 -1.6603 -0.4278
19037SOL    HW266080   2.758  10.556  11.929  0.6013 -0.5640 -2.3228
19038SOL     OW66081   0.121  10.866   1.964 -0.0737  0.1875  0.4530
19038SOL    HW166082   0.178  10.850   2.039 -1.6434 -0.1177  1.6234
19038SOL    HW266083   0.152  10.804   1.897  3.1818  2.3614 -0.2989
19039SOL     OW66084   6.764   6.253   8.115 -0.1322  0.5523 -0.2433
19039SOL    HW166085   6.787   6.338   8.154  1.4608  0.2478 -0.4558
19039SOL    HW266086   6.780   6.189   8.185 -1.6515  0.4270  0.0260
19040SOL     OW66087   1.624   9.213  10.491 -0.3208 -0.7414 -0.0409
19040SOL    HW166088   1.621   9.152  10.417  0.9676 -1.0432  0.1284
19040SOL    HW266089   1.631   9.300  10.451 -0.8357 -0.8037 -0.2741
19041SOL     OW66090   1.525   5.746   1.811 -0.1925 -0.6185  0.2876
19041SOL    HW166091   1.621   5.752   1.808 -0.2144 -0.5610 -0.8992
19041SOL    HW266092   1.497   5.827   1.854  0.3354 -1.3207  2.0303
19042SOL     OW66093   9.154   0.532   6.225  0.0947 -0.5362 -0.3141
19042SOL    HW166094   9.083   0.587   6.192  0.5735 -0.0099 -0.4935
19042SOL    HW266095   9.150   0.544   6.320  0.7214  0.5086 -0.3952
19043SOL     OW66096   1.687  12.438   7.148  0.3301  0.2047 -0.0653
19043SOL    HW166097   1.593  12.426   7.139  0.3226 -1.0204  1.3044
19043SOL    HW266098   1.697  12.509   7.212  0.3370  0.2725 -0.1417
19044SOL     OW66099  10.903   6.956   3.227 -0.1215 -0.3184  0.3535
19044SOL    HW166100  10.830   6.911   3.270 -1.5803  0.0552 -1.5766
19044SOL    HW266101  10.961   6.886   3.198 -1.0294 -0.7992 -0.3251
19045SOL     OW66102   5.580   4.783  10.524  0.0789 -0.1464  0.1067
19045SOL    HW166103   5.675   4.777  10.530  0.1176  0.7206  0.5000
19045SOL    HW266104   5.550   4.785  10.614 -0.4324 -1.8979 -0.0040
19046SOL     OW66105  10.266  11.412  12.489  0.1491  0.3831  1.0475
19046SOL    HW166106  10.180  11.370  12.490  0.2235 -0.0511 -1.5813
19046SOL    HW266107  10.248  11.505  12.474  0.1155  0.6714  2.7029
19047SOL     OW66108   9.679  10.019  10.919  0.2895  0.5435 -0.0119
19047SOL    HW166109   9.598   9.981  10.952  0.8358  0.0267  0.7505
19047SOL    HW266110   9.653  10.062  10.837 -0.7080  0.2027  0.1108
19048SOL     OW66111   8.551   6.749   5.932  0.8010  0.3303  0.3519
19048SOL    HW166112   8.521   6.672   5.979 -0.1109 -0.4001 -1.3066
19048SOL    HW266113   8.489   6.818   5.957 -0.3331 -0.3253 -0.5388
19049SOL     OW66114   5.996  10.033   3.876  0.6013 -1.0660 -0.4069
19049SOL    HW166115   6.069  10.095   3.884 -0.3763  0.1676 -0.8584
19049SOL    HW266116   5.974  10.011   3.967  0.8180 -0.6011 -0.2404
19050SOL     OW66117  11.247   3.730   7.007 -0.1664 -0.1846 -0.0521
19050SOL    HW166118  11.297   3.696   6.933  0.7581  0.0014  0.4701
19050SOL    HW266119  11.160   3.692   6.997 -0.2916  0.4446 -1.6602
19051SOL     OW66120   6.329   2.729   3.726  0.7091 -0.0186 -0.5186
19051SOL    HW166121   6.398   2.746   3.663  0.0155  1.8017 -0.8413
19051SOL    HW266122   6.251   2.769   3.688 -0.7415 -2.5828 -0.4926
19052SOL     OW66123   7.545   3.796   5.243 -0.3077  0.4403 -0.0078
19052SOL    HW166124   7.572   3.749   5.164 -3.2017 -2.4427  0.5214
19052SOL    HW266125   7.613   3.776   5.307  0.2571 -0.1340 -0.7699
19053SOL     OW66126   5.916   1.302   6.902 -0.1418 -0.0906  0.8450
19053SOL    HW166127   5.897   1.368   6.969  1.8244  1.4714 -0.0495
19053SOL    HW266128   5.985   1.249   6.940 -0.0545 -0.1342  0.6233
19054SOL     OW66129  12.446   4.095  10.989  0.5053 -0.1253  0.4322
19054SOL    HW166130  12.528   4.050  10.967  0.8934  0.6245  0.3089
19054SOL    HW266131  12.409   4.121  10.904  0.1713 -0.3949  0.4915
19055SOL     OW66132   1.634   5.364   9.110  0.2626  0.3496  0.2936
19055SOL    HW166133   1.546   5.344   9.078  0.1957  0.8293  0.1824
19055SOL    HW266134   1.674   5.278   9.124 -1.5461 -0.0919  4.1642
19056SOL     OW66135  11.651   4.265   0.818 -0.2787 -0.4480  0.1618
19056SOL    HW166136  11.586   4.284   0.751  0.1527 -0.1085 -0.1599
19056SOL    HW266137  11.657   4.345   0.870 -2.5169 -1.4918  2.2672
19057SOL     OW66138   4.076   8.784  11.300 -0.2174  0.0104  0.3052
19057SOL    HW166139   3.994   8.819  11.334  0.9955  2.0626  1.3562
19057SOL    HW266140   4.088   8.701  11.347 -0.5555  0.8420  1.9445
19058SOL     OW66141   7.432   0.989   5.578 -0.2818  0.8774  0.1876
19058SOL    HW166142   7.425   1.048   5.502 -1.3749 -2.4573 -2.5755
19058SOL    HW266143   7.504   0.931   5.556 -2.2390 -1.8046  0.2925
19059SOL     OW66144   0.752   0.751  10.776 -0.2614  0.2462  0.2830
19059SOL    HW166145   0.807   0.810  10.723  0.8547 -1.8262 -1.0095
19059SOL    HW266146   0.686   0.719  10.714 -0.9856  0.2780  1.0252
19060SOL     OW66147   0.184  11.091  10.985 -0.1548  0.1777 -0.2908
19060SOL    HW166148   0.251  11.101  10.918  0.2525 -2.5756 -0.4104
19060SOL    HW266149   0.173  10.996  10.994 -3.7541  0.4925  0.0349
19061SOL     OW66150  12.178   1.704   4.070  0.3009 -0.3918 -0.1545
19061SOL    HW166151  12.151   1.652   3.994  1.1064 -0.0249 -0.7060
19061SOL    HW266152  12.174   1.795   4.040  0.6197 -0.2407  0.2446
19062SOL     OW66153   0.152   5.049   9.041 -0.1830  0.6721 -0.7600
19062SOL    HW166154   0.082   4.985   9.055  1.4569 -1.1203 -0.2651
19062SOL    HW266155   0.181   5.034   8.952 -0.1786  1.1681 -0.8458
19063SOL     OW66156   1.697   6.091   5.149  0.0251  0.2121  0.0881
19063SOL    HW166157   1.741   6.167   5.111 -1.4108  0.7729 -0.5162
19063SOL    HW266158   1.620   6.078   5.095  0.8518 -2.4874 -0.6153
19064SOL     OW66159   2.759   6.416   9.659  0.4408  0.2595  0.0012
19064SOL    HW166160   2.811   6.369   9.724  0.9707  1.2284  0.2870
19064SOL    HW266161   2.670   6.383   9.671  0.7727 -0.5575  0.2934
19065SOL     OW66162   4.701  11.237   3.030 -0.2018 -0.2562  0.1072
19065SOL    HW166163   4.631  11.210   2.970 -0.0382  0.4835 -0.4388
19065SOL    HW266164   4.761  11.288   2.975 -0.0041  0.3726  0.8945
19066SOL     OW66165   3.942   9.279  10.056  0.0069 -0.2350  0.6941
19066SOL    HW166166   3.851   9.249  10.061  0.0556 -1.0543 -1.9762
19066SOL    HW266167   3.935   9.371  10.029 -0.0177 -0.0050  1.4564
19067SOL     OW66168  11.700  10.532   5.304 -0.0734  0.0465  0.0534
19067SOL    HW166169  11.658  10.452   5.338  0.3275 -0.2264 -0.0838
19067SOL    HW266170  11.776  10.544   5.360  0.5826 -0.3939 -0.7228
19068SOL     OW66171   8.740   0.067   4.741 -0.1259  0.1555  0.3579
19068SOL    HW166172   8.746   0.118   4.660 -1.0743 -1.5506 -0.8626
19068SOL    HW266173   8.802   0.109   4.801  1.8752  0.4708 -1.7928
19069SOL     OW66174  12.285   4.200  11.194  0.2369  0.3472  0.0466
19069SOL    HW166175  12.365   4.245  11.164 -0.9209  2.2455 -0.4046
19069SOL    HW266176  12.299   4.188  11.288  1.5442 -0.4730 -0.2255
19070SOL     OW66177   8.840   5.386  11.752 -0.6198  0.6595 -0.4224
19070SOL    HW166178   8.852   5.397  11.846 -0.8515 -0.6255 -0.2316
19070SOL    HW266179   8.929   5.384  11.717 -0.4030 -1.6292  0.1257
19071SOL     OW66180   8.368   5.578   5.673  0.2173  0.0695 -0.0906
19071SOL    HW166181   8.307   5.649   5.655 -0.2061  0.8406  3.5524
19071SOL    HW266182   8.454   5.612   5.648 -0.3221  0.6362 -1.2409
19072SOL     OW66183   5.615   0.780   7.245  0.0232  0.1141  0.2276
19072SOL    HW166184   5.598   0.783   7.151 -1.2177  1.6827  0.4601
19072SOL    HW266185   5.698   0.732   7.253 -0.3440 -0.9253 -1.5668
19073SOL     OW66186   5.824   8.079   8.379  0.6421 -0.2142  0.5570
19073SOL    HW166187   5.870   8.163   8.389 -0.9111  0.6324  0.8890
19073SOL    HW266188   5.816   8.046   8.469 -2.0214  1.1481  0.9140
19074SOL     OW66189   0.007   6.835   7.513  0.1316 -0.1727 -0.1022
19074SOL    HW166190   0.041   6.905   7.568  2.0288  1.4873 -3.1191
19074SOL    HW266191   0.070   6.764   7.521 -0.5938 -0.7044  1.2077
19075SOL     OW66192   0.289   1.994   4.436  0.1475  0.6384 -0.0551
19075SOL    HW166193   0.373   2.038   4.451  1.4402 -2.0319  1.1619
19075SOL    HW266194   0.312   1.918   4.383 -1.3898 -0.5172  0.8751
19076SOL     OW66195   4.647  12.459  11.284 -0.0526 -0.2159  0.4736
19076SOL    HW166196   4.660  12.365  11.288  0.3034 -0.2561 -1.1060
19076SOL    HW266197   4.560  12.470  11.247 -0.8266  0.0969  2.2922
19077SOL     OW66198   6.126   2.008   6.368 -0.2474 -0.0441  0.1185
19077SOL    HW166199   6.086   2.091   6.340 -1.1227 -0.3960  0.2775
19077SOL    HW266200   6.116   2.008   6.463 -1.0134 -0.7008  0.0462
19078SOL     OW66201   7.546   5.877   3.328  0.2750  0.1205  0.0678
19078SOL    HW166202   7.501   5.811   3.277  2.0970 -0.5028 -0.8289
19078SOL    HW266203   7.586   5.829   3.400  2.3844  0.0136 -1.1012
19079SOL     OW66204  11.878   5.876   4.205 -0.7348  0.3050  0.2768
19079SOL    HW166205  11.849   5.940   4.140 -2.2941 -1.1655 -0.5670
19079SOL    HW266206  11.944   5.823   4.160 -1.1972 -0.1752  0.1470
19080SOL     OW66207   7.592  11.373   6.320 -0.7210  0.2278  0.3627
19080SOL    HW166208   7.577  11.426   6.242 -1.7439 -0.3417  0.1582
19080SOL    HW266209   7.533  11.298   6.311  0.6853 -0.9723  0.6306
19081SOL     OW66210  12.405   3.086   3.808 -0.2431 -1.0862 -0.1698
19081SOL    HW166211  12.487   3.069   3.761  0.2341  0.2163  0.1492
19081SOL    HW266212  12.425   3.160   3.865 -1.1087 -1.9328  1.3091
19082SOL     OW66213   8.083   8.458   2.387  0.1385 -0.1111 -0.4033
19082SOL    HW166214   8.038   8.377   2.365  0.9366 -1.2657  1.8694
19082SOL    HW266215   8.029   8.499   2.455 -0.2185  1.2656 -1.4668
19083SOL     OW66216   8.206   8.149   6.125 -0.0855 -0.2284 -0.1669
19083SOL    HW166217   8.260   8.222   6.157  1.4656 -0.6013 -1.7892
19083SOL    HW266218   8.250   8.119   6.046 -3.2843  0.1893 -2.3180
19084SOL     OW66219   9.055   9.699   7.569 -0.6541  0.2085 -0.0012
19084SOL    HW166220   9.046   9.732   7.658  1.8808 -0.4436  0.5572
19084SOL    HW266221   9.056   9.779   7.515 -1.4314  0.6497  0.6136
19085SOL     OW66222  11.870  10.958   7.051 -0.5493  0.9461  0.2015
19085SOL    HW166223  11.942  10.918   7.100  0.7979  1.8804 -0.9424
19085SOL    HW266224  11.802  10.890   7.047  1.8092 -1.4954 -2.1228
19086SOL     OW66225  11.313  11.170   8.308 -0.0172 -0.2828 -0.2144
19086SOL    HW166226  11.396  11.203   8.274 -0.1601  0.7108  0.3499
19086SOL    HW266227  11.317  11.188   8.402  0.1840 -2.5612  0.2845
19087SOL     OW66228   0.828   8.892   7.422 -0.6670  0.5650  0.2182
19087SOL    HW166229   0.869   8.977   7.441 -0.8310  0.3681  1.5644
19087SOL    HW266230   0.890   8.828   7.457 -0.3209  0.0920 -1.2163
19088SOL     OW66231   0.716   9.102  10.030 -0.2549 -0.5688  0.0709
19088SOL    HW166232   0.774   9.144   9.966  0.4666 -0.5987  0.6863
19088SOL    HW266233   0.764   9.025  10.059 -0.0638  0.0478  1.4727
19089SOL     OW66234   5.933   4.972   0.822  0.4911  0.2098 -0.1311
19089SOL    HW166235   5.866   4.953   0.887 -1.0454  0.6992 -1.5069
19089SOL    HW266236   5.885   5.003   0.746  2.2151 -0.5266 -1.5958
19090SOL     OW66237  11.282  12.224   1.116  0.0870  0.3241  0.1231
19090SOL    HW166238  11.284  12.319   1.108  0.1018  0.2902 -0.2839
19090SOL    HW266239  11.194  12.205   1.150  0.0063  0.4672 -0.0029
19091SOL     OW66240   7.342   5.024  11.511 -0.2090 -0.0747  0.3449
19091SOL    HW166241   7.339   4.946  11.565  3.1459 -0.2557  0.5158
19091SOL    HW266242   7.349   4.991  11.421  2.3999 -0.1348  0.4953
19092SOL     OW66243   3.988  10.370   6.038 -0.1644 -0.1632 -0.6176
19092SOL    HW166244   3.976  10.438   6.104  1.8610  0.4978 -0.8491
19092SOL    HW266245   3.930  10.397   5.966  0.0511  0.9231 -0.4121
19093SOL     OW66246  11.380   4.883   8.193  0.7331 -0.2419 -0.2381
19093SOL    HW166247  11.367   4.824   8.118  2.1914 -0.3994 -0.3898
19093SOL    HW266248  11.339   4.965   8.166 -0.0294 -0.7262 -0.6086
19094SOL     OW66249   0.523   2.290   9.601  0.1105  0.1198 -0.3658
19094SOL    HW166250   0.444   2.334   9.569 -0.2788 -0.3626 -0.0895
19094SOL    HW266251   0.500   2.197   9.602  0.7022 -0.0322 -0.3274
19095SOL     OW66252   5.474   5.088   9.095 -0.3633  0.1070  0.6311
19095SOL    HW166253   5.474   4.994   9.077  0.8754  0.1584  0.2584
19095SOL    HW266254   5.548   5.122   9.044 -0.4356  1.1882  1.2209
19096SOL     OW66255   5.727   0.658  10.595 -0.5054 -0.4891 -0.2186
19096SOL    HW166256   5.703   0.587  10.654 -1.8931 -0.3758 -0.6192
19096SOL    HW266257   5.656   0.661  10.531 -1.4155  2.3962  0.7857
19097SOL     OW66258  11.259  11.198   2.836  0.2262  0.0147 -1.2958
19097SOL    HW166259  11.311  11.270   2.799 -1.9145  1.4682 -1.6457
19097SOL    HW266260  11.185  11.189   2.776 -0.4300 -1.3559 -0.3283
19098SOL     OW66261   3.721   8.521   0.895  0.0903  0.1732  0.0324
19098SOL    HW166262   3.628   8.539   0.909  0.0854  0.4273 -0.3219
19098SOL    HW266263   3.761   8.534   0.981  0.1343  2.1664 -0.2469
19099SOL     OW66264  12.243  12.115   9.573 -0.1665 -0.2711  0.0299
19099SOL    HW166265  12.260  12.031   9.529 -1.8839 -1.0085  0.6760
19099SOL    HW266266  12.256  12.096   9.666 -0.1302  0.2980  0.1414
19100SOL     OW66267   8.945  11.463   4.366  0.0883  0.7695  0.5134
19100SOL    HW166268   8.876  11.431   4.424 -1.3434 -2.2713 -2.5718
19100SOL    HW266269   8.928  11.557   4.358  0.4240  1.4016  4.8246
19101SOL     OW66270   8.149   2.108   2.372  0.2137  0.3223  0.1880
19101SOL    HW166271   8.090   2.121   2.298 -1.3655  3.4007  1.8386
19101SOL    HW266272   8.118   2.028   2.414  0.6505 -1.0313 -1.9146
19102SOL     OW66273   5.490   0.040   0.942 -0.1548  0.7542  0.1918
19102SOL    HW166274   5.557   0.071   1.002  1.3942  0.9073 -1.5167
19102SOL    HW266275   5.500  -0.056   0.942 -0.9389  0.6618  1.0190
19103SOL     OW66276   0.358  12.331   5.141  0.2382  0.7706  0.2914
19103SOL    HW166277   0.414  12.343   5.065 -2.2536  1.2629 -1.6136
19103SOL    HW266278   0.391  12.393   5.206  1.5442  1.4056 -0.9218
19104SOL     OW66279  11.916   2.429   0.631  0.3932  0.2098  0.2388
19104SOL    HW166280  11.947   2.467   0.548  1.9088  0.0093  0.6720
19104SOL    HW266281  11.952   2.341   0.632 -1.3119 -0.5203  0.2278
19105SOL     OW66282   5.185  11.300   3.623  0.2649  0.0164  0.8457
19105SOL    HW166283   5.105  11.258   3.655 -0.4451  1.9579  1.8263
19105SOL    HW266284   5.166  11.394   3.628  1.7245  0.5015 -1.2974
19106SOL     OW66285  10.443   4.191   9.105  0.7206 -0.0205 -0.7476
19106SOL    HW166286  10.417   4.110   9.061 -0.0330  0.5690 -1.4433
19106SOL    HW266287  10.506   4.164   9.171 -0.1665 -1.2924 -0.3701
19107SOL     OW66288   8.970   0.010   3.439  0.2632 -0.2009  0.4023
19107SOL    HW166289   9.005  -0.079   3.432 -0.9805 -0.6167 -0.9699
19107SOL    HW266290   8.948   0.035   3.349 -2.3889  0.2221  1.0700
19108SOL     OW66291  10.985   7.545   2.099  0.3947 -0.2624 -0.0799
19108SOL    HW166292  10.999   7.475   2.163  1.5922 -1.4521 -1.5991
19108SOL    HW266293  10.892   7.538   2.078  0.4288 -1.1986  0.0202
19109SOL     OW66294   3.631   9.720   3.727 -0.6631 -0.0182 -0.3057
19109SOL    HW166295   3.595   9.807   3.746 -0.1383  0.0561  0.3692
19109SOL    HW266296   3.650   9.722   3.633  1.0754  1.2520  0.0349
19110SOL     OW66297   2.465   3.822   5.837 -0.3901  0.3696  0.2391
19110SOL    HW166298   2.446   3.729   5.826  1.3725  0.0265 -0.0780
19110SOL    HW266299   2.413   3.849   5.913  1.0067 -1.4723  1.9200
19111SOL     OW66300   9.238   0.498   2.273  0.1093 -0.3416 -0.7793
19111SOL    HW166301   9.201   0.564   2.214  0.1891  0.3069 -0.1076
19111SOL    HW266302   9.297   0.447   2.218  0.0427  0.1417 -1.3051
19112SOL     OW66303   2.299   1.197   1.123  0.1289  0.4593 -0.3123
19112SOL    HW166304   2.390   1.169   1.136  0.6925  2.6597  1.0294
19112SOL    HW266305   2.301   1.249   1.043  0.5883  2.3218  0.8380
19113SOL     OW66306   3.120  10.257   0.533  0.1575  0.2053 -0.0744
19113SOL    HW166307   3.174  10.213   0.599  2.4434  2.7488 -0.1022
19113SOL    HW266308   3.084  10.333   0.578 -0.1953  0.6934 -1.1511
19114SOL     OW66309   0.953   9.793   2.242  0.3115 -0.7693  0.4316
19114SOL    HW166310   1.012   9.820   2.172 -1.5556  0.6863 -0.6916
19114SOL    HW266311   1.005   9.735   2.297  3.1652  1.3771  0.2269
19115SOL     OW66312   3.190   5.067   7.268  0.1198  0.0477  0.0219
19115SOL    HW166313   3.148   5.031   7.189 -0.0910 -0.7290  0.4758
19115SOL    HW266314   3.156   5.156   7.275  2.1918  1.1466 -2.2793
19116SOL     OW66315   9.335   3.175  10.581  0.3426  0.5346 -0.1805
19116SOL    HW166316   9.294   3.117  10.645  0.8748  0.6055  0.2305
19116SOL    HW266317   9.429   3.161  10.592  0.4383  0.4615 -1.0309
19117SOL     OW66318   8.754   0.687   5.650  0.5794 -0.4296 -0.1980
19117SOL    HW166319   8.722   0.630   5.580 -0.3312  1.5999 -1.5356
19117SOL    HW266320   8.815   0.746   5.606 -0.5604  1.3538  0.4994
19118SOL     OW66321  12.001   0.117   2.074  0.4127  0.7111 -0.3101
19118SOL    HW166322  11.982   0.086   1.985 -0.2051  0.5359 -0.1280
19118SOL    HW266323  12.050   0.045   2.114  0.2840  0.5891 -0.3672
19119SOL     OW66324   4.145  12.500   8.566 -0.0747 -0.2702  0.1266
19119SOL    HW166325   4.076  12.476   8.504 -0.7386  2.4276 -0.2930
19119SOL    HW266326   4.219  12.443   8.543 -1.5181 -1.9129 -0.6584
19120SOL     OW66327   1.981   3.969   8.892  0.2584  0.3145  0.3079
19120SOL    HW166328   2.023   3.928   8.968 -0.0007 -0.0838  0.2409
19120SOL    HW266329   2.014   4.058   8.891 -1.5367  1.0867  2.2866
19121SOL     OW66330  10.011   1.284   9.038  0.1313 -0.1184 -0.0831
19121SOL    HW166331  10.061   1.241   8.968 -0.4682  0.5097 -0.9171
19121SOL    HW266332   9.920   1.282   9.007 -0.3910 -1.2191  1.3984
19122SOL     OW66333   6.943   4.208   8.533 -0.2828  0.2302 -0.0716
19122SOL    HW166334   6.876   4.261   8.489 -0.0049 -0.9899 -2.1276
19122SOL    HW266335   6.933   4.121   8.493  1.9592 -0.1961  0.2058
19123SOL     OW66336   8.655   6.023  10.050 -0.2414  0.0649 -0.0526
19123SOL    HW166337   8.696   6.080  10.115 -0.5984 -0.4234  0.6123
19123SOL    HW266338   8.729   5.982  10.005  0.0526  1.6313 -1.1117
19124SOL     OW66339   7.150   1.691   5.268 -0.0935 -0.1668 -0.0046
19124SOL    HW166340   7.184   1.653   5.349 -0.6321  0.6683  0.6290
19124SOL    HW266341   7.076   1.745   5.296  0.4886  1.1532 -0.8903
19125SOL     OW66342  10.451   0.382   1.164  0.4797 -0.9916  0.3495
19125SOL    HW166343  10.514   0.452   1.184  0.2849  0.0091 -2.1161
19125SOL    HW266344  10.505   0.305   1.145  0.8546 -0.7512  0.4350
19126SOL     OW66345   2.303   3.093  11.101  0.1244  0.2618  0.3141
19126SOL    HW166346   2.388   3.067  11.136 -1.6416 -1.0376  4.2170
19126SOL    HW266347   2.294   3.185  11.125  0.0737  0.1379  0.7867
19127SOL     OW66348  12.278   1.119   6.644 -0.5747  0.1148 -0.5156
19127SOL    HW166349  12.324   1.075   6.715 -2.2607  1.9203  1.8423
19127SOL    HW266350  12.332   1.195   6.623 -0.9481  0.5409  0.0689
19128SOL     OW66351   4.410   4.828  12.471 -0.0125 -0.4784 -0.2387
19128SOL    HW166352   4.454   4.798  12.392  1.5653  0.3354  0.2829
19128SOL    HW266353   4.414   4.753  12.531  0.8570 -0.3570 -0.1345
19129SOL     OW66354   6.769   6.963   0.728  0.1542  0.0759 -0.2627
19129SOL    HW166355   6.738   6.874   0.739  0.1135 -0.0352 -1.1984
19129SOL    HW266356   6.795   6.991   0.816 -1.2446 -0.3231  0.3125
19130SOL     OW66357   9.204   8.976   6.564 -0.1214  0.2854 -0.4507
19130SOL    HW166358   9.293   8.972   6.599 -0.1074  1.2837 -0.3403
19130SOL    HW266359   9.209   9.041   6.494 -0.6901  0.0919 -0.6777
19131SOL     OW66360   0.762   6.039   7.388  0.3098 -0.1880 -0.4876
19131SOL    HW166361   0.736   5.989   7.466 -1.7470  0.3036 -0.8068
19131SOL    HW266362   0.713   6.121   7.394  2.8249  1.4314 -0.5194
19132SOL     OW66363   9.470   6.204   5.157 -0.1586 -0.1232 -0.3849
19132SOL    HW166364   9.483   6.276   5.095  0.0055  0.0137 -0.1911
19132SOL    HW266365   9.555   6.194   5.200 -0.4879  0.3049  0.3806
19133SOL     OW66366   7.496   9.794  10.373  0.6120 -0.8535 -0.2301
19133SOL    HW166367   7.570   9.739  10.396 -1.0294 -1.5156  4.6761
19133SOL    HW266368   7.436   9.736  10.327  2.3629 -0.6935 -2.8872
19134SOL     OW66369  10.356   0.268  10.042 -0.1059  0.1301 -0.1544
19134SOL    HW166370  10.364   0.362  10.061  0.6918 -0.1055  0.7867
19134SOL    HW266371  10.264   0.257  10.016  0.3048  1.5131 -2.4844
19135SOL     OW66372   9.650   0.937  12.006  0.4073 -0.3781 -0.0210
19135SOL    HW166373   9.661   0.884  12.085 -2.1477 -1.4296 -0.2665
19135SOL    HW266374   9.653   0.873  11.934  1.7629  0.4455 -0.7308
19136SOL     OW66375   4.375  10.473  10.305 -0.0275 -0.1281 -0.0171
19136SOL    HW166376   4.332  10.524  10.374  0.2463 -0.8721  0.7213
19136SOL    HW266377   4.462  10.513  10.297 -0.2549  0.3165 -0.3405
19137SOL     OW66378   5.381   1.116   5.731  0.2640 -0.4710 -0.6992
19137SOL    HW166379   5.362   1.115   5.825  1.8888 -0.0849 -0.3522
19137SOL    HW266380   5.416   1.203   5.714 -0.5809 -0.3218 -1.8066
19138SOL     OW66381  11.749   0.191   0.415  0.6389  0.1923  0.6072
19138SOL    HW166382  11.700   0.109   0.414 -0.2928  0.7198  1.2767
19138SOL    HW266383  11.763   0.211   0.322 -0.5228  0.0694  0.3876
19139SOL     OW66384   8.409   9.163   2.607 -0.0616  0.2346 -0.3317
19139SOL    HW166385   8.502   9.175   2.584  0.0706  1.2929  0.6997
19139SOL    HW266386   8.362   9.222   2.547  0.0591  0.8142  0.1338
19140SOL     OW66387   9.672   3.875   9.267  0.2124  1.0738 -0.1435
19140SOL    HW166388   9.736   3.942   9.243  0.5990  0.8052  0.1094
19140SOL    HW266389   9.599   3.924   9.305  0.2255  1.3912 -0.5184
19141SOL     OW66390   2.699   7.171   7.373 -0.0498 -0.1762 -0.3173
19141SOL    HW166391   2.706   7.078   7.355  0.4719 -0.1591 -0.2130
19141SOL    HW266392   2.784   7.195   7.409 -0.1712  0.3457 -0.3720
19142SOL     OW66393  10.257   0.739  11.087 -0.3814  0.7067  0.7113
19142SOL    HW166394  10.341   0.786  11.083 -0.3103  0.8119  2.3896
19142SOL    HW266395  10.194   0.805  11.116 -0.6812  0.2461  1.1308
19143SOL     OW66396  10.097   3.449   0.904  0.0470 -0.4341 -0.0159
19143SOL    HW166397  10.121   3.380   0.843  1.1268 -0.0963  0.0161
19143SOL    HW266398  10.013   3.421   0.940 -0.0311 -1.2070 -0.7801
19144SOL     OW66399   9.865   2.360   6.012 -0.1619 -0.4900 -0.0903
19144SOL    HW166400   9.829   2.282   5.970  0.7028 -0.2390 -1.3882
19144SOL    HW266401   9.879   2.335   6.103 -0.3465 -1.6969 -0.3802
19145SOL     OW66402   7.899   5.701  10.410  0.0201 -0.2983  0.1092
19145SOL    HW166403   7.961   5.627  10.411  0.1287 -0.2120 -0.1137
19145SOL    HW266404   7.813   5.661  10.401  0.1130 -0.3778 -0.4379
19146SOL     OW66405   9.136  10.159   3.749  0.2147 -0.1407 -0.4795
19146SOL    HW166406   9.159  10.249   3.772 -2.6432  0.1707  1.7055
19146SOL    HW266407   9.051  10.167   3.704  0.6651 -1.6762 -1.7003
19147SOL     OW66408   3.349   2.930   3.283 -0.8043 -0.3843  0.3646
19147SOL    HW166409   3.314   2.960   3.199 -0.5906 -2.1255 -0.3916
19147SOL    HW266410   3.279   2.876   3.321 -0.7484  0.0653  1.1184
19148SOL     OW66411   5.221   9.420   8.997 -0.3994  0.0082  0.4103
19148SOL    HW166412   5.143   9.364   8.996  0.4141 -1.1735 -1.3031
19148SOL    HW266413   5.293   9.361   9.017  0.1077  1.0967  2.0410
19149SOL     OW66414   0.582   5.752  11.344  0.0059  0.0884  0.5746
19149SOL    HW166415   0.575   5.703  11.426  1.8262  0.2873  0.8887
19149SOL    HW266416   0.675   5.746  11.321 -0.2473  1.1086 -0.8164
19150SOL     OW66417   8.315   0.786  12.110 -0.1497  0.1770 -0.3845
19150SOL    HW166418   8.375   0.713  12.127 -0.8310 -0.0497  1.2275
19150SOL    HW266419   8.369   0.864  12.116  0.3464 -0.1111 -0.9192
19151SOL     OW66420   4.457   8.014  11.178  0.1267 -0.0541 -0.2119
19151SOL    HW166421   4.407   7.955  11.122 -0.8887 -0.2911  0.8936
19151SOL    HW266422   4.391   8.069  11.220  0.9364  0.7732  0.0048
19152SOL     OW66423   5.570   7.878   1.302 -0.1827 -0.0456  0.0644
19152SOL    HW166424   5.568   7.957   1.356 -0.6655 -0.6047  0.9041
19152SOL    HW266425   5.663   7.860   1.289 -0.0596  0.1898  0.5845
19153SOL     OW66426   0.733   7.573   2.511  0.1440 -0.3547  1.4344
19153SOL    HW166427   0.686   7.525   2.443  2.3181 -1.5720  0.7100
19153SOL    HW266428   0.691   7.546   2.593 -1.6366  0.1064  0.7183
19154SOL     OW66429   0.018   3.321   9.187 -0.0615 -0.6117  0.0128
19154SOL    HW166430   0.109   3.290   9.181  0.5923  1.2523 -0.6531
19154SOL    HW266431  -0.021   3.297   9.103  0.7291  1.0875 -0.8974
19155SOL     OW66432   9.636   5.625   8.325 -0.3727 -0.2066  0.3377
19155SOL    HW166433   9.642   5.590   8.414  3.7179  1.5300  0.9880
19155SOL    HW266434   9.571   5.695   8.332 -0.5843 -0.5119  1.8139
19156SOL     OW66435   8.296  12.350   8.181 -0.1225 -0.4261  0.6068
19156SOL    HW166436   8.346  12.420   8.224  0.7823 -0.9200  0.3898
19156SOL    HW266437   8.215  12.345   8.231  0.9589 -1.0847  2.3895
19157SOL     OW66438   5.420   6.051  10.734  0.1436  0.3221 -0.4338
19157SOL    HW166439   5.451   6.043  10.644 -0.7450  1.6210 -0.8975
19157SOL    HW266440   5.476   6.118  10.773  1.5684 -1.3360  0.5212
19158SOL     OW66441   0.716   4.894   7.129 -0.3468 -0.0935 -0.3714
19158SOL    HW166442   0.769   4.887   7.208  0.0147 -0.3092 -0.6295
19158SOL    HW266443   0.656   4.819   7.133  0.5583 -0.8714 -0.9487
19159SOL     OW66444  10.938  12.161   6.205 -0.1461 -0.3606  0.3641
19159SOL    HW166445  10.900  12.177   6.119  2.5915 -0.5870 -1.0096
19159SOL    HW266446  10.882  12.095   6.245 -1.0324 -0.8447 -1.5864
19160SOL     OW66447   5.447  10.077  10.963 -0.5755 -0.2119  0.1113
19160SOL    HW166448   5.383  10.056  11.031 -0.5293 -0.2187  0.1532
19160SOL    HW266449   5.528  10.038  10.993 -0.2655  0.8057  0.6492
19161SOL     OW66450   3.831   2.007   1.283 -0.4391 -0.1819 -0.0551
19161SOL    HW166451   3.756   1.952   1.304  1.1545 -2.1203  0.8670
19161SOL    HW266452   3.846   1.993   1.189  0.0606 -1.4933  0.2109
19162SOL     OW66453   4.785   8.143   5.009  0.0583  0.4199 -0.7613
19162SOL    HW166454   4.837   8.209   5.054 -1.1826  1.4854 -0.8399
19162SOL    HW266455   4.792   8.165   4.916  2.2136 -1.4811 -1.1441
19163SOL     OW66456   8.316   3.819   0.265 -0.2715 -0.5957  0.4195
19163SOL    HW166457   8.259   3.754   0.223  0.4789 -0.8346 -0.2618
19163SOL    HW266458   8.362   3.770   0.333  1.2473 -1.1451 -0.9243
19164SOL     OW66459  10.351  11.497   7.537  0.2252  0.6323  0.4763
19164SOL    HW166460  10.289  11.508   7.464  0.6759  0.4485  0.0589
19164SOL    HW266461  10.419  11.438   7.502  0.9415  1.2950  0.7328
19165SOL     OW66462   0.951   2.251   6.254 -0.2973 -0.5551 -0.5935
19165SOL    HW166463   0.890   2.225   6.185 -1.3708  0.9685 -0.2696
19165SOL    HW266464   0.896   2.291   6.321  0.6185 -2.6229  1.5281
19166SOL     OW66465   3.808  12.085   6.160 -0.6376  0.2148  0.6244
19166SOL    HW166466   3.823  12.010   6.217 -0.9434  0.7939  1.4972
19166SOL    HW266467   3.887  12.139   6.169 -0.1890 -0.2392 -0.4093
19167SOL     OW66468  11.774   9.704   7.889 -0.6574  0.3879  0.2399
19167SOL    HW166469  11.857   9.751   7.898 -1.0464  0.8586  1.6827
19167SOL    HW266470  11.724   9.730   7.967 -2.1823  0.1634 -0.6417
19168SOL     OW66471   1.640  11.591  10.416  0.2195  0.3460  0.3149
19168SOL    HW166472   1.609  11.662  10.360  1.6247  0.4030 -0.4489
19168SOL    HW266473   1.588  11.515  10.391  1.0432  0.2767 -1.3688
19169SOL     OW66474  11.470   7.996   6.307 -0.0955 -0.3705 -0.4224
19169SOL    HW166475  11.531   7.924   6.294  0.4656  0.1311 -0.6348
19169SOL    HW266476  11.446   8.023   6.218  1.5699  1.2491 -0.4299
19170SOL     OW66477  10.053   4.857   5.414  0.2578 -0.6272  0.2737
19170SOL    HW166478   9.975   4.867   5.358  0.4786 -0.3960  0.0008
19170SOL    HW266479  10.106   4.792   5.369  0.3781 -0.5325  0.2775
19171SOL     OW66480   0.762   7.427  10.293  0.3136  0.0219  0.7111
19171SOL    HW166481   0.673   7.392  10.286  0.7981 -1.1129  0.0333
19171SOL    HW266482   0.766   7.496  10.226  0.2215 -0.5464  0.1117
19172SOL     OW66483  11.846   6.049   6.712  0.6440  0.6166  0.0214
19172SOL    HW166484  11.934   6.053   6.676  2.1924  1.6973  3.4820
19172SOL    HW266485  11.805   6.132   6.685  1.6084  1.2369  0.4090
19173SOL     OW66486   3.021   3.171   6.776 -0.0587 -0.6613  0.1573
19173SOL    HW166487   3.041   3.129   6.693  1.3216 -1.5544  0.8988
19173SOL    HW266488   3.072   3.122   6.840 -0.7442  0.2909  1.4740
19174SOL     OW66489   0.426   1.274  10.400 -0.6099 -0.0226 -0.2161
19174SOL    HW166490   0.484   1.281  10.475 -0.7854  0.1997 -0.1011
19174SOL    HW266491   0.483   1.244  10.328 -0.6593 -1.3523  0.2726
19175SOL     OW66492   2.514   6.497   3.848 -0.3196  0.5037 -0.0433
19175SOL    HW166493   2.488   6.572   3.901  2.3268  0.7084  1.1160
19175SOL    HW266494   2.565   6.534   3.776  1.8336 -0.1454  1.0600
19176SOL     OW66495   8.435   4.400   6.354 -0.2264  0.2450 -0.5256
19176SOL    HW166496   8.479   4.484   6.341 -0.8720  0.4714 -1.3674
19176SOL    HW266497   8.381   4.389   6.275 -1.0036 -0.4229  0.0779
19177SOL     OW66498   9.340  12.501   3.629  0.4740  0.1664 -0.2223
19177SOL    HW166499   9.359  12.408   3.644  0.8335 -0.0422 -1.8270
19177SOL    HW266500   9.386  12.522   3.548 -0.0959  1.5973 -0.1928
19178SOL     OW66501   1.887   0.576   4.557 -0.4019  0.3239 -0.7800
19178SOL    HW166502   1.932   0.612   4.481  1.5925 -0.7637 -0.1617
19178SOL    HW266503   1.953   0.525   4.603 -1.0769  2.0656  2.4830
19179SOL     OW66504  10.947   7.587   0.720  0.1010 -0.4334  0.5706
19179SOL    HW166505  11.008   7.515   0.739  1.8929  0.4933 -1.2872
19179SOL    HW266506  10.987   7.634   0.647 -3.1091 -0.0017 -1.0831
19180SOL     OW66507   4.979   2.483   9.108 -0.3918  0.7113 -0.1892
19180SOL    HW166508   4.948   2.572   9.088 -0.6691  1.3999  2.8943
19180SOL    HW266509   5.072   2.484   9.085 -0.2487  2.0057  0.3780
19181SOL     OW66510  10.208   6.637  11.727  0.1188  0.5355 -0.5791
19181SOL    HW166511  10.263   6.583  11.672 -0.2221  0.7204 -1.1046
19181SOL    HW266512  10.123   6.638  11.684 -0.7369 -0.8961  0.9420
19182SOL     OW66513  11.966   9.103   7.059 -0.3180 -0.0984  0.3324
19182SOL    HW166514  12.000   9.128   6.973 -1.4809 -0.5427 -0.2741
19182SOL    HW266515  12.038   9.054   7.099 -0.1283 -0.7901 -0.8144
19183SOL     OW66516   9.746   7.827   9.102  0.3108 -0.1350  0.6406
19183SOL    HW166517   9.664   7.779   9.106 -0.5293  1.2861  1.4232
19183SOL    HW266518   9.754   7.854   9.010 -0.4292  0.2372  0.6789
19184SOL     OW66519   3.827   1.709   2.580 -0.3675 -0.6021 -0.0846
19184SOL    HW166520   3.734   1.710   2.603 -0.2866 -0.0638  0.2576
19184SOL    HW266521   3.869   1.763   2.648 -0.1711  1.4214 -1.7283
19185SOL     OW66522   3.741   7.664   5.000  0.5289  0.2802 -0.2671
19185SOL    HW166523   3.657   7.685   5.042  0.6085  0.4656 -0.1982
19185SOL    HW266524   3.798   7.638   5.073  0.6815  0.6494 -0.2526
19186SOL     OW66525   3.726  10.710  11.804 -0.2554 -0.3844  0.1107
19186SOL    HW166526   3.769  10.729  11.887  0.6241 -3.0728  0.3825
19186SOL    HW266527   3.640  10.675  11.829  0.6287 -2.7796  0.0980
19187SOL     OW66528  11.582   7.252   6.451 -0.2087  0.0965 -0.2803
19187SOL    HW166529  11.568   7.210   6.366  1.5731  1.0740 -1.1300
19187SOL    HW266530  11.672   7.230   6.474 -0.7712 -0.4762  1.5946
19188SOL     OW66531   2.579   6.265   2.850  0.1791 -0.4970  0.4535
19188SOL    HW166532   2.647   6.317   2.807 -1.0499  1.7095  1.0017
19188SOL    HW266533   2.626   6.193   2.892  1.8801 -0.3003 -1.0133
19189SOL     OW66534  12.530  12.548   6.165  0.5006 -0.0484 -0.3632
19189SOL    HW166535  12.455  12.498   6.199  0.5501  0.8440  1.1379
19189SOL    HW266536  12.588  12.481   6.129 -0.9319 -0.7797 -1.4513
19190SOL     OW66537   3.713  12.106   9.084  0.4653  0.0358  0.4166
19190SOL    HW166538   3.722  12.182   9.028 -0.2058 -0.2467 -0.0839
19190SOL    HW266539   3.636  12.123   9.138  0.8268  0.0942  0.9266
19191SOL     OW66540   9.131   9.282   4.536  0.2840 -0.3849  0.4466
19191SOL    HW166541   9.131   9.340   4.459  1.3011  0.4172  1.0351
19191SOL    HW266542   9.121   9.340   4.611  0.2024 -1.0775  0.9907
19192SOL     OW66543  11.093   6.022   1.035  0.6950  0.3983  0.7431
19192SOL    HW166544  11.084   5.989   1.125  0.5466 -1.5001  0.0767
19192SOL    HW266545  11.003   6.036   1.006  0.7402  0.9190  0.8437
19193SOL     OW66546  12.355   4.622  10.095  0.4620 -0.2639 -0.3996
19193SOL    HW166547  12.344   4.562  10.169  0.4068 -0.2472 -0.3937
19193SOL    HW266548  12.372   4.565  10.020 -1.4153 -0.4324 -0.7606
19194SOL     OW66549   0.595   3.609   7.389  0.6932  0.2944  0.4641
19194SOL    HW166550   0.674   3.566   7.422 -0.2890 -1.0395  1.2111
19194SOL    HW266551   0.524   3.553   7.421 -0.5487  1.5130 -0.1128
19195SOL     OW66552  11.576  10.493   7.268  0.4646  0.4155 -0.1918
19195SOL    HW166553  11.506  10.482   7.333  0.3270  1.0828 -0.2159
19195SOL    HW266554  11.531  10.501   7.185  0.5679  0.8176 -0.2113
19196SOL     OW66555   4.406   7.098   7.173 -0.0616 -0.0732 -0.0425
19196SOL    HW166556   4.405   7.179   7.122 -0.5026  0.4529  0.7901
19196SOL    HW266557   4.357   7.036   7.119 -0.7897  0.5658 -0.1301
19197SOL     OW66558   5.939  11.453  11.664 -0.1831 -0.2881 -0.2736
19197SOL    HW166559   5.893  11.405  11.596 -0.3763  0.1148 -0.4308
19197SOL    HW266560   6.027  11.466  11.628 -0.8403  1.6560 -1.3250
19198SOL     OW66561   9.609   6.408   7.068 -0.0025  0.1016  0.8829
19198SOL    HW166562   9.644   6.493   7.092 -0.6697  1.3317 -2.0165
19198SOL    HW266563   9.684   6.349   7.073  2.0466  2.0979 -2.4415
19199SOL     OW66564   3.483   9.524   8.839  0.8792 -0.4876 -0.1859
19199SOL    HW166565   3.516   9.592   8.897  1.1872 -0.4837 -0.3651
19199SOL    HW266566   3.502   9.442   8.884  0.2422 -0.4463  0.1660
19200SOL     OW66567  10.744   6.851  10.877  0.0160 -0.1120  0.4824
19200SOL    HW166568  10.705   6.867  10.963 -1.9750 -0.8555 -0.2067
19200SOL    HW266569  10.826   6.806  10.895 -0.9808 -1.4146  1.9927
19201SOL     OW66570   9.498   1.944  10.949 -0.3995  0.0410 -0.2299
19201SOL    HW166571   9.498   1.998  11.028  0.3566 -0.1178 -0.1156
19201SOL    HW266572   9.502   2.007  10.877  1.5341  0.1417 -0.0789
19202SOL     OW66573   8.646   2.556   4.987  0.0099  0.3282 -0.0473
19202SOL    HW166574   8.571   2.518   5.032  0.6081  0.0819  0.7889
19202SOL    HW266575   8.704   2.585   5.058 -0.3122  2.6144 -0.6414
19203SOL     OW66576   9.318   6.146   7.234 -0.0402 -0.0542 -0.0034
19203SOL    HW166577   9.356   6.231   7.256 -0.6606  0.4252 -0.6958
19203SOL    HW266578   9.337   6.136   7.140  0.5311 -0.9523  0.2008
19204SOL     OW66579  12.008   1.214   2.182 -0.6076 -0.5636  0.5824
19204SOL    HW166580  12.081   1.265   2.147 -0.3147 -0.3090  1.5534
19204SOL    HW266581  12.039   1.182   2.267 -0.5498 -2.8815 -0.2474
19205SOL     OW66582   0.522   5.437   7.649 -0.3596 -0.2571  0.0368
19205SOL    HW166583   0.575   5.483   7.584  1.2900 -0.9220  0.8415
19205SOL    HW266584   0.546   5.478   7.732 -1.1439 -0.5572  0.4174
19206SOL     OW66585   4.029   9.559   4.328  0.3702 -0.6148 -0.5977
19206SOL    HW166586   4.027   9.619   4.254 -0.7335 -1.0474 -0.9419
19206SOL    HW266587   4.028   9.616   4.405  1.8322 -0.1554 -0.8905
19207SOL     OW66588  11.031  12.225   4.524  0.1616 -0.0358 -0.5558
19207SOL    HW166589  11.115  12.245   4.565  0.3835 -1.7880 -0.0651
19207SOL    HW266590  11.019  12.131   4.539 -0.3931 -0.4903 -3.3377
19208SOL     OW66591   1.778   0.337   3.806  0.2462 -0.0506 -0.1263
19208SOL    HW166592   1.739   0.295   3.728  1.7335 -1.1560 -0.3136
19208SOL    HW266593   1.810   0.264   3.859 -2.0046  0.5776  2.3062
19209SOL     OW66594   0.107   5.176  11.434  0.1755  0.2641  0.4570
19209SOL    HW166595   0.013   5.178  11.448  0.2663 -1.5697  1.6807
19209SOL    HW266596   0.139   5.257  11.473 -0.6634 -0.2767  2.4070
19210SOL     OW66597   3.686  10.866   1.379 -0.4939 -0.1925 -0.2856
19210SOL    HW166598   3.768  10.913   1.364 -0.7957 -0.2023 -2.3734
19210SOL    HW266599   3.711  10.773   1.377 -0.3603 -0.1735  0.4887
19211SOL     OW66600   1.888  11.293   5.103 -0.2374  0.2665 -0.5473
19211SOL    HW166601   1.887  11.251   5.017 -1.4976  1.1653 -0.9913
19211SOL    HW266602   1.800  11.278   5.139 -0.2751  1.3463 -0.1443
19212SOL     OW66603   7.815   8.260  11.485  0.0540  0.2298 -0.2886
19212SOL    HW166604   7.884   8.195  11.498 -0.2008 -0.0581 -0.3642
19212SOL    HW266605   7.764   8.258  11.566 -1.6541 -1.7098 -1.2974
19213SOL     OW66606   9.944   7.466   6.047 -0.2273 -0.4943  0.3873
19213SOL    HW166607   9.860   7.436   6.080 -0.0987  0.5366  1.7175
19213SOL    HW266608  10.008   7.409   6.089 -0.1596 -0.2599  0.5995
19214SOL     OW66609   6.925   3.375   4.877  0.1856 -0.5925  0.3067
19214SOL    HW166610   6.867   3.445   4.907 -0.9407 -0.9241 -0.9783
19214SOL    HW266611   6.908   3.302   4.936  2.9465  0.7562  3.0679
19215SOL     OW66612   0.272  10.376   2.930  0.3290 -0.1930 -0.6070
19215SOL    HW166613   0.291  10.282   2.925 -1.1504 -0.6899  1.4597
19215SOL    HW266614   0.190  10.387   2.881  0.7254  0.1119 -1.2091
19216SOL     OW66615   8.581  12.556   0.884 -0.0819 -0.0506 -0.8066
19216SOL    HW166616   8.655  12.498   0.903 -1.0069 -1.5561 -1.6027
19216SOL    HW266617   8.603  12.595   0.799 -0.5601 -1.1674 -1.4666
19217SOL     OW66618   0.432  11.087  11.590 -0.0791  0.6880 -0.2434
19217SOL    HW166619   0.395  11.059  11.507 -1.7616 -0.3346  0.7934
19217SOL    HW266620   0.526  11.075  11.580 -0.3530 -0.5527 -1.5970
19218SOL     OW66621   1.222   5.656   7.570 -0.4087  0.0987  0.1361
19218SOL    HW166622   1.262   5.720   7.511  1.3468 -0.0017  1.1500
19218SOL    HW266623   1.155   5.613   7.516 -1.8664  2.9091 -0.5274
19219SOL     OW66624   6.040   7.084  11.004  0.0596  0.6879  0.2548
19219SOL    HW166625   6.055   7.045  10.918 -0.6037 -0.0387  0.4575
19219SOL    HW266626   6.077   7.172  10.997 -1.0371  1.0774 -1.1626
19220SOL     OW66627   1.561  10.624   5.468  0.2756  0.4007 -0.2579
19220SOL    HW166628   1.561  10.528   5.465  0.6409  0.4117 -0.9382
19220SOL    HW266629   1.617  10.646   5.542 -3.3136  0.0823  2.8357
19221SOL     OW66630   7.333   9.372   5.165  0.0666  0.3929 -0.0038
19221SOL    HW166631   7.368   9.452   5.127  0.2566  0.7309  0.8625
19221SOL    HW266632   7.310   9.318   5.090  0.9552  0.8145 -0.5950
19222SOL     OW66633   1.739   2.647   2.659 -1.0875  0.1255 -0.5935
19222SOL    HW166634   1.811   2.602   2.615 -0.6889 -0.9255  1.0518
19222SOL    HW266635   1.695   2.578   2.709 -0.2692  1.5478  2.2799
19223SOL     OW66636   1.793   9.741   2.738  0.1922  0.8152  0.1172
19223SOL    HW166637   1.773   9.660   2.691 -1.0158  1.1835 -0.0256
19223SOL    HW266638   1.842   9.794   2.674  2.9472 -0.5968  0.8826
19224SOL     OW66639   3.956  11.446   9.871  0.3686 -0.2993  0.3716
19224SOL    HW166640   3.918  11.428   9.957 -2.1595  0.4794 -0.4729
19224SOL    HW266641   3.888  11.496   9.825  1.3984 -1.1482 -2.2844
19225SOL     OW66642   1.674   5.336   3.836  0.2183 -0.4002 -0.0159
19225SOL    HW166643   1.754   5.284   3.827 -0.2211 -1.3826  1.4619
19225SOL    HW266644   1.701   5.411   3.889  0.7058  0.6266 -1.6304
19226SOL     OW66645  10.453   1.732   1.460 -0.2823 -0.0591 -0.2319
19226SOL    HW166646  10.399   1.747   1.538 -0.3140 -2.0403  0.1879
19226SOL    HW266647  10.445   1.812   1.409  1.4268  2.2140  2.7525
19227SOL     OW66648   6.318   4.397   0.485 -0.3067 -0.3541 -0.0036
19227SOL    HW166649   6.334   4.345   0.564  0.1423  0.1645  0.2567
19227SOL    HW266650   6.401   4.441   0.468 -0.5586 -0.0414 -0.4606
19228SOL     OW66651  11.939   1.700   7.648  0.1523 -0.0780  0.9379
19228SOL    HW166652  11.966   1.615   7.684  1.0539 -0.8926 -1.4229
19228SOL    HW266653  11.904   1.678   7.561  0.6088  1.9975  0.1904
19229SOL     OW66654   5.397  11.517   5.764 -0.3449 -0.0479 -0.0815
19229SOL    HW166655   5.333  11.586   5.783 -0.4610 -0.0926 -0.3093
19229SOL    HW266656   5.354  11.462   5.698 -0.6694 -0.9378  0.8519
19230SOL     OW66657   4.245   8.870   3.773  0.2831 -0.4828  0.1954
19230SOL    HW166658   4.307   8.805   3.805 -0.9001 -1.4561  0.6034
19230SOL    HW266659   4.217   8.917   3.852  0.6777  0.1350 -0.0220
19231SOL     OW66660   8.394   3.491   1.167  0.1425  0.5466  0.3516
19231SOL    HW166661   8.442   3.411   1.148 -0.6549 -0.5553  2.6306
19231SOL    HW266662   8.460   3.560   1.164  1.2153 -0.4595  0.1583
19232SOL     OW66663   3.337   3.192  10.502 -0.0172 -0.2377  0.2875
19232SOL    HW166664   3.333   3.287  10.493  0.4743 -0.2833 -0.4876
19232SOL    HW266665   3.304   3.158  10.418 -0.6331 -0.7622  0.7278
19233SOL     OW66666   0.684   5.398   6.078 -0.0918  0.2785  0.6169
19233SOL    HW166667   0.628   5.475   6.083  0.2393  0.4297  2.3447
19233SOL    HW266668   0.648   5.338   6.143  0.9678 -0.1531  0.8164
19234SOL     OW66669   4.643   0.633   6.083 -0.0965 -0.0617 -0.0274
19234SOL    HW166670   4.585   0.696   6.041 -0.4842 -0.6153 -0.3343
19234SOL    HW266671   4.711   0.616   6.018 -0.8610 -1.1458 -0.5731
19235SOL     OW66672  10.806   3.224  10.142  0.2006 -0.2163  0.6705
19235SOL    HW166673  10.802   3.293  10.208 -2.7061  1.3603 -0.9317
19235SOL    HW266674  10.755   3.152  10.179 -0.2325  0.1125  0.7164
19236SOL     OW66675   9.326   2.311   1.846  0.1532  0.6064 -0.3004
19236SOL    HW166676   9.357   2.330   1.935 -0.7327 -1.0927  0.4171
19236SOL    HW266677   9.401   2.270   1.803 -0.1919 -0.9466  0.5278
19237SOL     OW66678   4.664   1.718  11.213 -0.2981 -0.0810  0.2312
19237SOL    HW166679   4.607   1.714  11.135  0.2540  1.7140 -0.3299
19237SOL    HW266680   4.730   1.651  11.198 -1.3120 -1.0883  0.1104
19238SOL     OW66681   6.978   2.370  11.591  0.1719  0.2776 -0.6481
19238SOL    HW166682   6.998   2.337  11.678  0.2668  0.6597 -0.5247
19238SOL    HW266683   6.912   2.309  11.557  1.5141 -1.0166 -1.0713
19239SOL     OW66684   7.691  12.185   3.104 -0.0397 -0.8335 -0.2813
19239SOL    HW166685   7.690  12.272   3.144  2.7349  0.0317 -1.8773
19239SOL    HW266686   7.626  12.190   3.033  0.8846  0.3248 -1.0623
19240SOL     OW66687   1.888  12.423   8.081  0.0592  0.3016 -0.3597
19240SOL    HW166688   1.844  12.368   8.016 -2.5777  1.5242  0.2509
19240SOL    HW266689   1.851  12.396   8.165  0.4013  1.4742  0.1865
19241SOL     OW66690  12.399   0.538  10.329  0.0991  0.0531  0.1479
19241SOL    HW166691  12.365   0.519  10.416  0.5458 -1.5138 -0.0051
19241SOL    HW266692  12.336   0.499  10.269  1.3324 -1.5412 -0.1623
19242SOL     OW66693   3.879   4.827   4.546 -0.2668  0.3350 -0.1683
19242SOL    HW166694   3.924   4.859   4.624 -0.8603  0.6709  0.0405
19242SOL    HW266695   3.949   4.797   4.489  0.0945 -1.7831  1.2951
19243SOL     OW66696   6.066  10.899  11.861 -0.1102 -0.0207  0.0008
19243SOL    HW166697   6.027  10.985  11.878  0.5902  0.7793 -2.2227
19243SOL    HW266698   6.146  10.898  11.914 -0.5028  0.3598  0.6208
19244SOL     OW66699   9.041  11.338   5.761  0.8795  0.4236  0.4201
19244SOL    HW166700   9.126  11.295   5.755 -0.0782 -1.4888 -0.6691
19244SOL    HW266701   9.019  11.336   5.854  1.5778 -0.0273  0.5820
19245SOL     OW66702   0.242  12.310   0.470  0.3868 -0.1820  0.0067
19245SOL    HW166703   0.331  12.277   0.477 -0.3209 -2.0511  0.7996
19245SOL    HW266704   0.216  12.330   0.560 -0.3169 -0.5966 -0.0948
19246SOL     OW66705   8.963   7.541   5.148  0.3920 -1.0868  0.1323
19246SOL    HW166706   8.879   7.561   5.188 -0.0909 -3.1055  0.2220
19246SOL    HW266707   8.942   7.516   5.058  1.0336 -0.4625 -0.2024
19247SOL     OW66708  10.038   8.338   6.248  0.7268  0.5991 -0.1283
19247SOL    HW166709  10.111   8.342   6.310 -1.0874  1.0810  2.1220
19247SOL    HW266710  10.035   8.246   6.221  1.1122  0.1790  1.1499
19248SOL     OW66711   1.490   9.556  12.536 -0.2077 -0.3883  0.0172
19248SOL    HW166712   1.479   9.638  12.584  0.1897 -0.7876  0.8113
19248SOL    HW266713   1.579   9.561  12.501  1.0843 -1.8180  2.7778
19249SOL     OW66714  10.893  11.399   9.898  0.0144 -0.5996 -0.0339
19249SOL    HW166715  10.848  11.374   9.817  0.4411  0.1198 -0.5021
19249SOL    HW266716  10.959  11.463   9.870 -0.8241  0.8068  1.0931
19250SOL     OW66717   9.012   7.937   6.565 -0.0325  0.4043  0.2030
19250SOL    HW166718   9.026   8.030   6.583  2.7030 -0.3218  2.5937
19250SOL    HW266719   9.043   7.925   6.475  0.9783  1.5797  0.3752
19251SOL     OW66720   6.441   0.643   0.933 -0.4048  1.0178 -0.4004
19251SOL    HW166721   6.476   0.730   0.913 -1.8897  1.1322 -2.9772
19251SOL    HW266722   6.350   0.647   0.904 -1.1328 -0.7824  1.4154
19252SOL     OW66723   4.919  12.332  11.778 -0.2470  0.3921  0.0865
19252SOL    HW166724   4.892  12.423  11.790 -0.3955  0.5015 -0.9916
19252SOL    HW266725   5.014  12.335  11.773 -0.3256  0.8124 -2.2004
19253SOL     OW66726   1.601   0.672   5.962 -0.1139 -0.0745  0.2473
19253SOL    HW166727   1.586   0.589   6.006  0.1681 -0.5643 -0.5580
19253SOL    HW266728   1.514   0.701   5.934 -0.1567 -0.3560  0.0863
19254SOL     OW66729   0.792   0.891  10.112  0.1564 -0.1577 -0.3991
19254SOL    HW166730   0.700   0.896  10.137  0.0494 -0.3262 -0.7453
19254SOL    HW266731   0.819   0.802  10.137  0.0302 -0.3511 -0.9239
19255SOL     OW66732   0.190   2.504   6.565  0.2576 -0.0826 -0.1969
19255SOL    HW166733   0.276   2.511   6.607 -0.0873  1.2050  0.3431
19255SOL    HW266734   0.142   2.581   6.596 -1.7491 -1.7125  0.9650
19256SOL     OW66735   1.859   0.280   6.633 -0.4120  0.3874 -0.7711
19256SOL    HW166736   1.882   0.314   6.546  0.9210 -0.9868 -0.9967
19256SOL    HW266737   1.798   0.209   6.615  3.3144 -3.0573 -1.1033
19257SOL     OW66738   8.955   4.681   8.724 -0.0651 -0.2748 -0.5932
19257SOL    HW166739   9.000   4.672   8.808  1.3892  2.1529 -0.9895
19257SOL    HW266740   9.024   4.664   8.659 -0.4379  0.5970 -1.2384
19258SOL     OW66741   2.786   2.725   8.311 -0.4119  0.0435 -0.0105
19258SOL    HW166742   2.864   2.719   8.366  2.3073 -0.1251 -3.4822
19258SOL    HW266743   2.765   2.635   8.289  0.6426  0.1607 -1.7298
19259SOL     OW66744   9.363   1.353   0.176  0.3963 -1.1288 -0.2861
19259SOL    HW166745   9.423   1.428   0.171  0.8803 -1.4922  0.0295
19259SOL    HW266746   9.405   1.293   0.236  0.5494 -2.1516 -1.3776
19260SOL     OW66747  11.652   7.331   3.678 -0.2749 -0.4451 -0.1405
19260SOL    HW166748  11.702   7.250   3.670  0.9588  0.4312 -2.0542
19260SOL    HW266749  11.701   7.395   3.626 -2.6802  0.8235 -1.0097
19261SOL     OW66750   9.038   4.471   3.753 -0.1147  0.5225  0.0183
19261SOL    HW166751   9.021   4.447   3.844  0.5906 -2.6664 -0.5702
19261SOL    HW266752   9.131   4.492   3.751  0.2962 -1.1861 -0.2301
19262SOL     OW66753   4.571   4.489   0.482 -0.0370  0.4833  0.0364
19262SOL    HW166754   4.617   4.404   0.480  0.6679  0.6721  3.0043
19262SOL    HW266755   4.595   4.526   0.567 -3.9599  1.6152  0.8245
19263SOL     OW66756   1.175   0.006  11.137 -0.0650 -0.2898  0.0855
19263SOL    HW166757   1.154  -0.079  11.175  2.7812 -0.8823  0.5043
19263SOL    HW266758   1.211   0.057  11.210  1.1587  0.1576 -0.8016
19264SOL     OW66759   2.382   2.911   4.292 -0.6527 -0.0636 -0.0082
19264SOL    HW166760   2.381   2.817   4.307  2.3316 -0.3023 -0.5654
19264SOL    HW266761   2.460   2.941   4.340 -0.9516  1.9471 -0.7047
19265SOL     OW66762   3.752   9.525   2.470  0.2391  0.2867 -0.0837
19265SOL    HW166763   3.678   9.513   2.410 -0.5400  1.0557  0.6848
19265SOL    HW266764   3.827   9.542   2.414 -0.5673  1.4625 -0.8478
19266SOL     OW66765   8.438   7.668   1.472  0.9041 -0.4174  0.1519
19266SOL    HW166766   8.425   7.651   1.379 -1.2427  0.6517  0.1863
19266SOL    HW266767   8.382   7.604   1.516  0.5655  0.1842  0.6241
19267SOL     OW66768   8.386   1.483   8.186  0.1112 -0.3279 -1.3519
19267SOL    HW166769   8.415   1.400   8.149 -1.1995 -0.8403 -1.2871
19267SOL    HW266770   8.324   1.518   8.122 -2.6902 -1.5338  0.4925
19268SOL     OW66771   8.475  12.356   5.618 -0.0505  0.1897  0.0406
19268SOL    HW166772   8.464  12.445   5.650  1.8078  0.1419  0.9630
19268SOL    HW266773   8.505  12.366   5.528 -1.2002  0.4369 -0.3296
19269SOL     OW66774   3.441  10.558   3.731 -0.0400 -0.2633 -0.0654
19269SOL    HW166775   3.405  10.599   3.810  0.3083 -0.4330  0.1805
19269SOL    HW266776   3.535  10.558   3.744  0.1304  1.0140 -1.1207
19270SOL     OW66777   1.853   5.926   9.003 -0.3955  0.1977 -0.0492
19270SOL    HW166778   1.766   5.920   9.043 -0.0243  0.9698  0.9103
19270SOL    HW266779   1.861   6.017   8.975  1.7524  1.5103  3.9514
19271SOL     OW66780  11.781   7.548   3.987 -0.2655  0.0311  0.0376
19271SOL    HW166781  11.831   7.507   4.057 -0.0519  0.3646  0.0811
19271SOL    HW266782  11.839   7.615   3.951 -0.9103  0.8711  0.5170
19272SOL     OW66783   3.425   1.296   3.517 -0.8046  0.2388 -0.0473
19272SOL    HW166784   3.342   1.338   3.493 -1.0377  1.1888  2.1938
19272SOL    HW266785   3.472   1.362   3.568 -0.2065 -1.4443  1.7177
19273SOL     OW66786   1.558   0.130  12.364  0.2292 -0.0838  0.4640
19273SOL    HW166787   1.579   0.222  12.371 -0.5087  0.0849  0.5884
19273SOL    HW266788   1.640   0.087  12.340  0.6867  0.5315  0.9362
19274SOL     OW66789   6.739   8.924   4.717  0.8312 -0.6400  0.0826
19274SOL    HW166790   6.709   8.964   4.636 -0.8947  0.5334  1.2363
19274SOL    HW266791   6.804   8.985   4.751 -0.9232  0.6731  1.2346
19275SOL     OW66792   0.299   9.917   5.967  0.3106  0.1548  0.3803
19275SOL    HW166793   0.204   9.912   5.974  0.1846  0.3417 -1.0088
19275SOL    HW266794   0.316  10.007   5.939  0.7052 -0.5447 -1.7981
19276SOL     OW66795   0.619  10.566  12.493  0.2900  0.2738  0.0428
19276SOL    HW166796   0.706  10.543  12.459  0.5717  0.4740  0.6132
19276SOL    HW266797   0.585  10.484  12.529  0.9499  0.5294  1.3260
19277SOL     OW66798   7.630   5.844   7.745 -0.1919 -0.1403  0.6146
19277SOL    HW166799   7.577   5.888   7.812 -0.9398 -0.6539  0.3780
19277SOL    HW266800   7.720   5.853   7.776 -0.6335 -2.1608  2.8330
19278SOL     OW66801   5.472   1.596   2.506  0.2528 -0.3196  0.5603
19278SOL    HW166802   5.495   1.641   2.426  1.0517 -0.3433  0.7634
19278SOL    HW266803   5.519   1.512   2.501 -0.4547 -0.7265  0.6153
19279SOL     OW66804   9.577   8.433   4.898  0.2451 -0.6182 -0.4483
19279SOL    HW166805   9.534   8.466   4.820 -2.9424 -3.3729 -0.1128
19279SOL    HW266806   9.541   8.485   4.970  0.7002 -0.1825 -0.5367
19280SOL     OW66807   4.472   1.288  11.060  0.2696 -0.2051 -0.2917
19280SOL    HW166808   4.438   1.322  11.143  2.1883 -1.6658  1.1834
19280SOL    HW266809   4.397   1.242  11.021 -0.1056 -1.4600  1.7718
19281SOL     OW66810   8.306  10.718   7.601  0.1269 -0.9111 -0.1289
19281SOL    HW166811   8.292  10.734   7.508  0.6755  1.1954  0.0919
19281SOL    HW266812   8.392  10.677   7.605  2.2488  3.0089 -0.4036
19282SOL     OW66813   8.693   4.567   8.341 -0.8585 -0.4169  0.8731
19282SOL    HW166814   8.784   4.537   8.336 -1.3602 -2.0866  1.1471
19282SOL    HW266815   8.683   4.600   8.430 -0.5163 -0.1517  0.8169
19283SOL     OW66816   0.921   4.779  10.149  0.2922  0.7858 -0.3244
19283SOL    HW166817   0.839   4.735  10.124  1.3045 -1.9475  0.7656
19283SOL    HW266818   0.967   4.792  10.067 -0.7534  1.3759 -0.8397
19284SOL     OW66819  12.360   6.276   3.460 -0.0038 -0.1884  0.6276
19284SOL    HW166820  12.441   6.325   3.441 -0.4114 -0.7674 -3.4577
19284SOL    HW266821  12.315   6.330   3.525  1.8995  2.1821  0.1565
19285SOL     OW66822   1.069   4.717  11.690 -0.1761  0.0602  0.0779
19285SOL    HW166823   1.085   4.629  11.725 -2.3804 -1.4440 -2.3071
19285SOL    HW266824   0.989   4.745  11.735 -0.7818 -0.2073 -0.7921
19286SOL     OW66825   5.698   5.353   6.368 -0.3217 -0.0883 -0.5011
19286SOL    HW166826   5.680   5.275   6.421 -2.3889 -0.1178 -1.1591
19286SOL    HW266827   5.793   5.355   6.360 -0.1954 -2.7611 -0.7448
19287SOL     OW66828   0.390   4.792   5.514  0.1402 -0.3200  0.7767
19287SOL    HW166829   0.470   4.751   5.548 -0.0599 -1.1493  0.2839
19287SOL    HW266830   0.374   4.746   5.431  0.7337  1.7408 -0.5729
19288SOL     OW66831   6.369   8.905   6.053  0.9012  0.1873 -0.1545
19288SOL    HW166832   6.355   8.952   6.135  1.5618  0.2038 -0.0502
19288SOL    HW266833   6.439   8.953   6.008 -0.6961  1.2983 -1.6023
19289SOL     OW66834  11.067   9.379   4.209 -0.6610  0.2254  0.2002
19289SOL    HW166835  11.104   9.384   4.121 -1.7518  0.3029 -0.2685
19289SOL    HW266836  11.086   9.464   4.248  0.5121 -0.0768  0.3454
19290SOL     OW66837   1.235  12.133  11.377 -0.9668 -0.2013  0.3181
19290SOL    HW166838   1.285  12.133  11.459 -1.2555 -0.8137  0.4987
19290SOL    HW266839   1.211  12.041  11.364 -1.2796 -0.0426 -0.2385
19291SOL     OW66840  12.554   1.409  10.706  0.1019  0.1154 -0.1608
19291SOL    HW166841  12.621   1.362  10.658  1.1014 -0.3418  1.5995
19291SOL    HW266842  12.593   1.428  10.791 -1.1525  1.9520  0.0916
19292SOL     OW66843   0.156   4.060  11.240 -0.3667 -0.3359 -0.3509
19292SOL    HW166844   0.223   4.026  11.180  0.3879  0.7834 -0.1863
19292SOL    HW266845   0.139   4.149  11.209 -2.5103 -0.8950 -0.9588
19293SOL     OW66846  12.224   4.085  10.279 -0.6149  0.3575  0.3186
19293SOL    HW166847  12.295   4.046  10.330 -0.3800  0.2245 -0.0995
19293SOL    HW266848  12.238   4.051  10.190  0.2948  2.2668 -0.3240
19294SOL     OW66849   1.535   5.820   8.872  0.4250 -0.5043  0.7530
19294SOL    HW166850   1.546   5.833   8.966  2.3408 -0.3280  0.5277
19294SOL    HW266851   1.527   5.908   8.836  1.0421 -0.5072  0.6036
19295SOL     OW66852   8.438  10.423   8.340  0.4572  0.6212  0.0943
19295SOL    HW166853   8.389  10.341   8.335  1.0298  0.3209 -0.7542
19295SOL    HW266854   8.424  10.465   8.255  1.1581  0.8209  0.0696
19296SOL     OW66855   2.668  10.654   3.851 -0.1471 -0.3053  0.1787
19296SOL    HW166856   2.662  10.703   3.933  2.5115 -0.1995  0.4027
19296SOL    HW266857   2.661  10.720   3.782  0.1242 -0.0357  0.4061
19297SOL     OW66858   2.772   4.050   3.514 -0.1401  0.0598 -0.5670
19297SOL    HW166859   2.759   4.135   3.555  0.5594 -0.2498  0.3358
19297SOL    HW266860   2.737   3.987   3.577  0.4317 -0.3950 -0.6928
19298SOL     OW66861   7.615   5.977   1.474  0.2022  0.0230  1.0872
19298SOL    HW166862   7.602   5.884   1.495  1.0549 -0.4980 -0.5766
19298SOL    HW266863   7.705   5.982   1.442  0.2155  1.4693  1.2954
19299SOL     OW66864   5.968  10.550   4.204  0.0624 -0.1676 -0.1165
19299SOL    HW166865   5.949  10.635   4.163  2.8251 -0.3552 -1.9995
19299SOL    HW266866   5.930  10.486   4.144 -0.8514 -0.3357  0.6192
19300SOL     OW66867  11.119   2.881   7.733  0.3240 -0.5525 -0.1230
19300SOL    HW166868  11.103   2.819   7.804 -0.7086 -0.3192 -0.1370
19300SOL    HW266869  11.100   2.967   7.772  0.0496 -0.3972 -0.5907
19301SOL     OW66870  10.958   5.743   7.178 -0.3161  0.1701 -0.1911
19301SOL    HW166871  11.052   5.760   7.175 -0.0410 -1.0092  0.6821
19301SOL    HW266872  10.924   5.803   7.244  0.0189 -0.1313  0.2610
19302SOL     OW66873   4.231   1.198  12.293  0.1332  0.0312 -0.2727
19302SOL    HW166874   4.167   1.184  12.224 -0.1820 -0.0440  0.0326
19302SOL    HW266875   4.276   1.279  12.268 -0.2979  0.2581 -0.3270
19303SOL     OW66876   3.762   3.938  12.474  0.2722 -0.4868  0.2018
19303SOL    HW166877   3.690   3.931  12.536 -0.5727 -1.2472 -0.8255
19303SOL    HW266878   3.745   3.869  12.409 -0.1778  1.7302 -2.1785
19304SOL     OW66879  10.596  10.689  10.991  0.0952 -0.1216 -0.0159
19304SOL    HW166880  10.675  10.712  10.943 -2.0847  0.1963 -3.8333
19304SOL    HW266881  10.551  10.772  11.005 -0.6679 -0.5149 -0.0667
19305SOL     OW66882   2.731   2.686   2.202 -0.3433  0.7485 -0.3541
19305SOL    HW166883   2.742   2.633   2.123  0.6355  0.1669  0.1416
19305SOL    HW266884   2.642   2.719   2.197 -0.2696  0.7916 -1.7426
19306SOL     OW66885  12.096   4.731   7.833 -0.0698 -0.0529 -0.6947
19306SOL    HW166886  12.028   4.666   7.814  0.0909 -0.7136  0.8588
19306SOL    HW266887  12.061   4.782   7.906  0.9461 -0.1536 -0.1263
19307SOL     OW66888   6.360  10.798   3.668  0.6829  0.1119 -0.1005
19307SOL    HW166889   6.373  10.733   3.738  4.0217  0.3916 -0.2950
19307SOL    HW266890   6.385  10.881   3.708  1.0624  0.5176 -1.1552
19308SOL     OW66891  11.901   2.466   1.631 -0.3610 -0.3706  0.2505
19308SOL    HW166892  11.819   2.495   1.671 -0.5075  0.1121 -0.3977
19308SOL    HW266893  11.918   2.529   1.561  1.1343  0.1923  1.0591
19309SOL     OW66894   6.705  12.260   0.108 -0.3505 -0.3577 -0.0231
19309SOL    HW166895   6.777  12.307   0.151 -0.1975 -0.3648 -0.2659
19309SOL    HW266896   6.733  12.253   0.017 -0.9247  0.1563 -0.2420
19310SOL     OW66897   0.748   9.355   2.358 -0.0530 -0.6004 -0.4661
19310SOL    HW166898   0.749   9.429   2.418  0.2215  0.0142 -1.1967
19310SOL    HW266899   0.762   9.279   2.413 -2.0019 -0.2967  0.5188
19311SOL     OW66900   4.629   8.018   6.981  0.2717  0.1489 -0.6432
19311SOL    HW166901   4.648   8.042   7.072  0.8300  1.1427 -1.0051
19311SOL    HW266902   4.642   8.099   6.932 -1.7498  0.0860 -1.3755
19312SOL     OW66903   3.612  12.353   0.183  0.3880  0.4723 -0.1669
19312SOL    HW166904   3.644  12.378   0.269 -0.8018  0.8593  0.1872
19312SOL    HW266905   3.686  12.366   0.124  0.5387  2.5150  0.3991
19313SOL     OW66906   2.077   4.206   8.582  0.7230 -0.1651 -0.3234
19313SOL    HW166907   1.986   4.217   8.555  0.4096 -0.2667  0.6576
19313SOL    HW266908   2.123   4.184   8.501 -0.3585 -1.4385 -0.6438
19314SOL     OW66909   1.285   9.997   7.419 -0.1724  0.1555 -0.7977
19314SOL    HW166910   1.210  10.052   7.394 -0.8656 -0.5413 -0.3220
19314SOL    HW266911   1.258   9.909   7.394 -0.1745 -0.3214  0.8004
19315SOL     OW66912   6.646   9.598   4.020 -0.3262  0.7461 -0.0897
19315SOL    HW166913   6.649   9.673   3.960 -1.1075  1.9354  1.3018
19315SOL    HW266914   6.611   9.634   4.101  0.4219 -0.8985  1.0023
19316SOL     OW66915   7.563   9.165   0.569  0.4101  0.2648  0.0472
19316SOL    HW166916   7.639   9.146   0.624  1.1085 -0.0091 -0.9820
19316SOL    HW266917   7.517   9.082   0.563  0.6294  0.1632 -0.2242
19317SOL     OW66918   8.389   8.055  10.020 -0.0239  0.0168 -0.0655
19317SOL    HW166919   8.456   8.098  10.073  0.8816 -2.8361  1.3040
19317SOL    HW266920   8.327   8.020  10.084  0.2357 -2.1555 -0.9459
19318SOL     OW66921  10.897   7.434  10.731  0.6167  0.2517 -0.9438
19318SOL    HW166922  10.879   7.527  10.712 -0.7403 -0.0642 -1.2885
19318SOL    HW266923  10.966   7.411  10.669  1.2619  1.1299 -0.5817
19319SOL     OW66924   9.841   3.386   6.138  0.1111  0.0955  0.0875
19319SOL    HW166925   9.910   3.319   6.139 -0.4678 -0.5668 -1.1158
19319SOL    HW266926   9.762   3.339   6.112 -0.4437  1.1419 -0.1895
19320SOL     OW66927   3.141   1.903   9.277  0.0688  0.0279 -0.4002
19320SOL    HW166928   3.146   1.886   9.183 -0.0624  0.7862 -0.5442
19320SOL    HW266929   3.233   1.899   9.306 -0.0149 -1.9487 -0.2268
19321SOL     OW66930   7.551   6.319   8.426  0.2282 -0.0143 -0.1168
19321SOL    HW166931   7.486   6.249   8.427  1.2675 -1.0029 -0.5106
19321SOL    HW266932   7.507   6.392   8.383 -0.4150 -0.8776 -0.9525
19322SOL     OW66933   4.449  10.906   2.711  0.0377 -0.1237 -0.5886
19322SOL    HW166934   4.485  10.947   2.632  1.3964 -0.0040  0.0597
19322SOL    HW266935   4.439  10.978   2.773 -1.8280 -0.0787 -0.9067
19323SOL     OW66936   2.230   0.936  10.137  0.4585  0.1610 -0.4466
19323SOL    HW166937   2.170   0.861  10.140  2.0039 -1.1794 -1.3288
19323SOL    HW266938   2.233   0.967  10.227 -1.1273 -0.0532 -0.2754
19324SOL     OW66939   9.085   3.430   4.890 -0.1826 -0.6661 -0.3268
19324SOL    HW166940   9.151   3.416   4.822 -0.0796 -0.3176 -0.3002
19324SOL    HW266941   9.135   3.463   4.965 -0.4339 -0.0353 -0.4304
19325SOL     OW66942   0.522   3.940   7.789  0.2406 -0.1664 -0.1596
19325SOL    HW166943   0.490   3.899   7.708  0.8217 -0.8147 -0.0745
19325SOL    HW266944   0.608   3.974   7.766  1.0494 -1.6298  0.5405
19326SOL     OW66945   6.712   3.827   3.623  0.6322  0.2145  0.2802
19326SOL    HW166946   6.756   3.884   3.686 -0.5129  2.5152 -0.8740
19326SOL    HW266947   6.697   3.882   3.547 -0.1628 -1.7959 -1.1150
19327SOL     OW66948  12.214   9.318   7.777  0.1795 -0.1379 -0.1490
19327SOL    HW166949  12.191   9.385   7.712  1.3883 -1.3367 -1.9158
19327SOL    HW266950  12.183   9.236   7.739 -0.9636 -0.6859  1.8202
19328SOL     OW66951   0.922   4.551   6.494  0.0744  0.2536 -0.9717
19328SOL    HW166952   0.997   4.492   6.495  0.1855  0.3956 -0.3270
19328SOL    HW266953   0.924   4.593   6.580 -1.2435 -0.3865 -0.6024
19329SOL     OW66954   0.224   8.121   6.637  0.1314  0.3704  0.0196
19329SOL    HW166955   0.212   8.161   6.723  1.0727  0.8208 -0.0387
19329SOL    HW266956   0.299   8.062   6.649  0.1383  0.2817 -0.4450
19330SOL     OW66957   9.637   1.523   5.613  0.4123 -0.0518 -0.3472
19330SOL    HW166958   9.583   1.552   5.687  0.0989 -1.4182 -0.0066
19330SOL    HW266959   9.691   1.599   5.591 -1.5142  1.3342 -0.5983
19331SOL     OW66960   8.128   3.748   1.241  0.1323  0.0882  0.0713
19331SOL    HW166961   8.076   3.699   1.305  0.5210 -0.8305 -0.2981
19331SOL    HW266962   8.199   3.786   1.293 -0.6534  0.9803  0.5022
19332SOL     OW66963   9.055   3.676   0.634 -0.0189 -0.0785  0.0774
19332SOL    HW166964   9.119   3.652   0.567  0.0879  1.1545 -0.2885
19332SOL    HW266965   8.985   3.720   0.586 -1.1052 -1.3047  0.4927
19333SOL     OW66966   7.717   3.444   5.070 -0.3639  0.8068 -1.0408
19333SOL    HW166967   7.730   3.350   5.086  1.6243  1.3807  1.1423
19333SOL    HW266968   7.621   3.454   5.068 -0.6606 -1.4298 -2.8528
19334SOL     OW66969   2.717   9.433   1.068  0.1576 -0.6073 -0.2881
19334SOL    HW166970   2.784   9.373   1.036  1.5747 -0.3684  1.9918
19334SOL    HW266971   2.692   9.485   0.992  2.1898 -1.0832 -1.3522
19335SOL     OW66972  12.227  10.825   6.873  0.0372 -0.5332 -0.1649
19335SOL    HW166973  12.220  10.848   6.966  0.7413  0.2103 -0.2860
19335SOL    HW266974  12.136  10.815   6.844 -0.1699 -1.9534  0.8751
19336SOL     OW66975   6.535   5.480   9.672 -0.1353  0.4538 -0.0516
19336SOL    HW166976   6.490   5.449   9.594 -2.4315  0.5896  1.1077
19336SOL    HW266977   6.627   5.486   9.647 -0.7211  0.0363 -2.5620
19337SOL     OW66978   8.418   1.706   8.340  0.0843  0.1183 -0.1437
19337SOL    HW166979   8.419   1.624   8.291 -0.3298 -0.2043  0.3781
19337SOL    HW266980   8.476   1.764   8.290  0.7271 -0.6230 -0.2826
19338SOL     OW66981   5.932  10.455   6.926  0.8832  0.0678 -0.2797
19338SOL    HW166982   5.957  10.541   6.960 -0.2241  0.9728 -1.5927
19338SOL    HW266983   5.851  10.434   6.972  1.3473 -0.4579  0.3060
19339SOL     OW66984   8.162   6.657   4.705  0.1043  0.3354 -0.3224
19339SOL    HW166985   8.092   6.721   4.691 -0.8094 -0.7188 -0.6886
19339SOL    HW266986   8.219   6.667   4.629 -1.1339 -0.6469 -1.4195
19340SOL     OW66987   0.140   6.069   7.371 -0.1013  0.1818  0.2669
19340SOL    HW166988   0.210   6.006   7.356  1.1046  1.1200  1.6327
19340SOL    HW266989   0.147   6.131   7.299  0.0452 -0.0944  0.0424
19341SOL     OW66990   7.932   8.401   0.007  0.4308  0.6936  0.6181
19341SOL    HW166991   8.006   8.384  -0.051  1.3427  1.0120  1.6474
19341SOL    HW266992   7.863   8.435  -0.050  0.9754  0.1202 -0.4032
19342SOL     OW66993   3.647   3.587   0.446 -0.4030 -0.0531  0.0844
19342SOL    HW166994   3.665   3.570   0.539  0.7442 -0.9019 -0.2768
19342SOL    HW266995   3.722   3.551   0.400 -2.4571 -2.6853 -1.4516
19343SOL     OW66996   8.584   1.129   2.765  0.4845 -0.7733  0.0902
19343SOL    HW166997   8.567   1.179   2.685  1.3237 -1.4249 -0.5191
19343SOL    HW266998   8.499   1.092   2.788 -0.1997  1.0555  0.6698
19344SOL     OW66999   3.466   0.993   1.857 -0.2477 -0.0212  0.0939
19344SOL    HW167000   3.493   1.037   1.937 -1.0453 -0.0931  0.4193
19344SOL    HW267001   3.501   1.048   1.786  5.8236 -3.0231  0.2023
19345SOL     OW67002   1.130   3.706   6.786  0.5552  0.0391  0.0812
19345SOL    HW167003   1.047   3.743   6.755  1.1122 -1.5846 -3.8150
19345SOL    HW267004   1.104   3.626   6.833 -0.1305 -0.7537 -1.5757
19346SOL     OW67005   2.353   0.059   1.859 -0.4253  0.0018  0.5568
19346SOL    HW167006   2.291  -0.011   1.881  0.3943 -1.2386 -0.8742
19346SOL    HW267007   2.339   0.074   1.765  1.1608 -0.0445  0.2965
19347SOL     OW67008   4.625   9.585  10.673  0.1288  0.3203  0.3687
19347SOL    HW167009   4.577   9.503  10.663  3.3434 -1.5766 -1.0360
19347SOL    HW267010   4.575   9.648  10.621 -0.3645 -1.7674 -1.8657
19348SOL     OW67011   5.964   0.030   2.464  0.1948 -0.3647  0.0676
19348SOL    HW167012   5.977   0.111   2.415 -0.8541  1.4950  2.6522
19348SOL    HW267013   5.878  -0.001   2.438 -0.7275  1.0819  1.2366
19349SOL     OW67014   3.732   6.032   1.324  0.7767  0.0748  0.0097
19349SOL    HW167015   3.653   6.077   1.353  0.0143 -0.5491 -1.0295
19349SOL    HW267016   3.764   6.083   1.250 -0.2785 -1.1881 -1.3905
19350SOL     OW67017   7.343   5.952   1.335  0.0415 -0.1345 -0.4001
19350SOL    HW167018   7.438   5.947   1.335  0.0526 -0.1946  0.8786
19350SOL    HW267019   7.323   6.029   1.281  0.7829 -0.3340 -0.9840
19351SOL     OW67020   5.374   7.043   7.263 -0.7526  0.2079  0.0637
19351SOL    HW167021   5.348   7.130   7.232  1.9258  0.8615 -0.6023
19351SOL    HW267022   5.355   6.985   7.190 -0.2432  0.6700 -0.4407
19352SOL     OW67023   6.856   1.028   5.658 -0.1898 -0.4911 -0.3058
19352SOL    HW167024   6.912   1.084   5.605 -0.5504  0.2832  0.1287
19352SOL    HW267025   6.899   1.023   5.743  0.8394 -2.4169 -0.8631
19353SOL     OW67026  10.242   6.681  10.763  0.4776  0.0957 -0.1368
19353SOL    HW167027  10.184   6.608  10.740  0.5777  0.8735 -3.2721
19353SOL    HW267028  10.267   6.663  10.854 -1.3921 -2.4562 -0.0001
19354SOL     OW67029  12.192   4.523   6.193  0.6162  0.1143 -0.3701
19354SOL    HW167030  12.196   4.612   6.159  0.3736 -0.5904 -2.3586
19354SOL    HW267031  12.251   4.473   6.136  2.4560 -0.6422  2.0356
19355SOL     OW67032   3.555   5.787   8.057 -0.4442 -0.4084 -0.6039
19355SOL    HW167033   3.559   5.787   8.152  0.6971 -0.7078 -0.6379
19355SOL    HW267034   3.622   5.724   8.030 -1.2991 -0.9351 -1.5868
19356SOL     OW67035   2.084   0.422   9.882  0.0761  1.2018 -0.2675
19356SOL    HW167036   2.023   0.491   9.857 -1.8973 -0.0820  0.7612
19356SOL    HW267037   2.095   0.370   9.802  2.0748  2.9410 -1.2356
19357SOL     OW67038   9.484   4.063   5.848  0.3814 -0.7827 -0.4800
19357SOL    HW167039   9.395   4.096   5.857  0.7253  0.0608 -0.0120
19357SOL    HW267040   9.523   4.076   5.935  0.5718 -2.3422 -0.3061
19358SOL     OW67041   5.986   6.148   4.889 -0.3738  0.2527 -0.5297
19358SOL    HW167042   6.061   6.096   4.918  1.1673  2.9065  0.6229
19358SOL    HW267043   5.942   6.175   4.970 -1.2545  0.5812 -1.0977
19359SOL     OW67044  12.121   3.808   0.261  0.1593 -0.0241  0.0536
19359SOL    HW167045  12.133   3.797   0.355  1.0195  1.4334  0.1479
19359SOL    HW267046  12.210   3.823   0.227  0.0224 -1.6862 -1.1868
19360SOL     OW67047  10.895   9.313  10.960  0.1673 -0.1285  0.2602
19360SOL    HW167048  10.842   9.240  10.930 -0.4206  0.0197  0.8927
19360SOL    HW267049  10.836   9.389  10.957  1.9618  1.4388 -4.9091
19361SOL     OW67050   1.318   7.498  12.570 -0.2173 -0.3247  0.2089
19361SOL    HW167051   1.404   7.522  12.535  0.1603 -0.6158  0.9232
19361SOL    HW267052   1.337   7.436  12.640 -0.9913 -0.1110  0.6150
19362SOL     OW67053   7.493   9.527   4.416  1.0541  0.2585 -0.1222
19362SOL    HW167054   7.497   9.583   4.494  0.6564 -0.2782  0.2911
19362SOL    HW267055   7.464   9.586   4.347  2.6434  1.0345 -0.1651
19363SOL     OW67056   6.820  10.499   8.413 -0.1859  0.7006 -0.4189
19363SOL    HW167057   6.740  10.481   8.463 -0.1368  1.5987  0.0042
19363SOL    HW267058   6.789  10.538   8.331 -0.2086  0.4919 -0.5093
19364SOL     OW67059   4.092   0.719   5.450 -0.0773 -0.0379  0.3528
19364SOL    HW167060   4.101   0.645   5.511 -0.5195 -1.8213 -1.6502
19364SOL    HW267061   4.073   0.793   5.507  0.8294 -1.3294  2.5042
19365SOL     OW67062   6.682   5.031   5.510  0.3152 -0.8876  0.1354
19365SOL    HW167063   6.672   5.104   5.448  1.9101 -0.9934 -0.2973
19365SOL    HW267064   6.604   5.035   5.565 -2.0291 -1.7623 -2.8596
19366SOL     OW67065   2.252   2.555   2.154  0.3043 -0.9242 -0.0399
19366SOL    HW167066   2.197   2.577   2.079 -0.9119  0.3326  1.1585
19366SOL    HW267067   2.196   2.570   2.230  2.0402 -0.4372  1.1987
19367SOL     OW67068   6.250   2.116   7.720  0.6390  1.0809  0.5579
19367SOL    HW167069   6.200   2.141   7.798 -0.2877 -1.3982  0.8506
19367SOL    HW267070   6.189   2.129   7.648 -0.2778 -1.1617  0.8316
19368SOL     OW67071   4.515  10.936   8.825  0.7218  0.5477 -0.0026
19368SOL    HW167072   4.467  11.008   8.867 -0.9366  0.2289 -1.2622
19368SOL    HW267073   4.558  10.891   8.898 -0.9417  0.8160  1.2127
19369SOL     OW67074   7.497   3.044   7.671  0.2190 -0.8165  0.0814
19369SOL    HW167075   7.574   2.994   7.644 -0.1343 -0.3841 -1.9079
19369SOL    HW267076   7.428   2.978   7.682  0.0231 -0.9295 -1.5198
19370SOL     OW67077  11.305   1.847   1.942 -0.1520  0.4709 -0.0743
19370SOL    HW167078  11.361   1.919   1.969  0.8936 -0.2312 -0.2943
19370SOL    HW267079  11.243   1.886   1.881  1.0699  0.9869 -1.0122
19371SOL     OW67080   6.907   8.687  10.027 -0.3064  0.0999  0.1209
19371SOL    HW167081   6.815   8.707  10.009 -0.2129 -0.3466 -0.8997
19371SOL    HW267082   6.907   8.592  10.044  0.0584 -0.0077 -0.4897
19372SOL     OW67083   0.074  11.909   2.086  0.5260  0.4206  0.0549
19372SOL    HW167084   0.030  11.983   2.128 -0.0901  0.9240 -1.4138
19372SOL    HW267085   0.135  11.950   2.024  1.7694 -0.2985  0.7603
19373SOL     OW67086  12.098   1.903   0.629  0.3007 -0.0644  0.2459
19373SOL    HW167087  12.013   1.873   0.661 -0.3815  0.2333 -1.1958
19373SOL    HW267088  12.080   1.939   0.543  1.5968  1.7576  0.6793
19374SOL     OW67089   9.621   6.394   0.995 -0.3574  0.1400  0.0053
19374SOL    HW167090   9.641   6.356   1.080  2.1134  2.4526  0.5877
19374SOL    HW267091   9.571   6.473   1.015 -2.1327 -0.6949 -0.9228
19375SOL     OW67092   6.121   6.534   1.739 -0.2826 -0.5478  0.0795
19375SOL    HW167093   6.193   6.510   1.681 -0.5947 -1.9416  0.2393
19375SOL    HW267094   6.055   6.467   1.725 -1.4722  0.5729  0.1128
19376SOL     OW67095   0.129   7.312   7.196 -0.1618  0.2381 -0.3087
19376SOL    HW167096   0.078   7.385   7.162  0.4817  0.0079 -1.8311
19376SOL    HW267097   0.184   7.284   7.123  0.6558 -0.8433  0.6715
19377SOL     OW67098  10.575   0.179   6.464 -0.7325  0.4879  0.2319
19377SOL    HW167099  10.598   0.205   6.374 -1.9631 -1.4581 -0.7192
19377SOL    HW267100  10.484   0.207   6.474 -0.7856  0.1706  0.6615
19378SOL     OW67101   7.121   1.987   4.911  0.3143  0.3929  0.2040
19378SOL    HW167102   7.026   1.981   4.903  0.2352  0.9772  0.6591
19378SOL    HW267103   7.138   1.972   5.004  0.7375 -0.4824 -0.0026
19379SOL     OW67104   7.330   3.667   3.077  0.4868 -1.0267  0.0835
19379SOL    HW167105   7.373   3.737   3.128  1.4878 -1.0027 -0.7699
19379SOL    HW267106   7.309   3.601   3.143  1.7785 -1.0054  0.5670
19380SOL     OW67107   8.401  10.320   5.555 -0.4258 -0.0658  0.4128
19380SOL    HW167108   8.403  10.414   5.575 -1.5125 -0.3783  2.2237
19380SOL    HW267109   8.308  10.299   5.551 -0.1907 -0.9845 -0.4709
19381SOL     OW67110   4.504   0.378  10.266  0.1472  0.5699  0.0662
19381SOL    HW167111   4.469   0.289  10.264  1.4486  0.0150  0.8562
19381SOL    HW267112   4.536   0.393  10.177 -0.0450  0.2391 -0.0593
19382SOL     OW67113   5.029   0.853   4.698 -0.2776 -0.3924  0.0596
19382SOL    HW167114   4.934   0.848   4.700 -0.2960 -0.2759 -0.4830
19382SOL    HW267115   5.058   0.763   4.687 -0.3315 -0.4078  0.0435
19383SOL     OW67116   5.221   2.227  11.188  0.5168 -0.0541  0.0630
19383SOL    HW167117   5.285   2.297  11.204  0.4840 -0.0895  0.3464
19383SOL    HW267118   5.241   2.161  11.254 -1.1400  0.8345  1.5290
19384SOL     OW67119   8.426   2.542  12.177 -0.5964  0.4367 -0.4402
19384SOL    HW167120   8.442   2.630  12.211 -2.0321  0.4583  0.2562
19384SOL    HW267121   8.345   2.551  12.126 -1.7426 -0.8158  1.0883
19385SOL     OW67122   7.824   7.774   0.889  0.4699  0.0109  0.1552
19385SOL    HW167123   7.881   7.834   0.936  1.0221 -2.2536  2.6128
19385SOL    HW267124   7.738   7.785   0.929 -0.2208  1.3160 -1.5489
19386SOL     OW67125   0.892   9.259  10.707  0.3659 -0.0742  0.0145
19386SOL    HW167126   0.921   9.172  10.733 -0.5482  0.3005  2.5934
19386SOL    HW267127   0.866   9.301  10.789  0.0532  2.3668 -1.2410
19387SOL     OW67128   5.875   4.990   4.206 -0.0598 -0.0356 -0.4282
19387SOL    HW167129   5.790   5.018   4.238  0.3577  1.0606 -0.2172
19387SOL    HW267130   5.878   4.896   4.223 -0.7079  0.1437  0.7634
19388SOL     OW67131   7.654   6.412   6.969  0.4249 -0.3083  0.3586
19388SOL    HW167132   7.700   6.432   6.888 -1.3451  0.9924 -0.4024
19388SOL    HW267133   7.677   6.484   7.028  1.0621 -0.8131  0.7279
19389SOL     OW67134   8.115   5.849   2.361 -0.2880 -0.2845  1.0565
19389SOL    HW167135   8.050   5.909   2.397 -1.6034 -0.1477 -1.3530
19389SOL    HW267136   8.084   5.762   2.387 -0.9170 -0.1649  0.7252
19390SOL     OW67137   4.238   5.546   4.678  0.0009 -0.2166 -0.2547
19390SOL    HW167138   4.179   5.618   4.655 -0.9787 -0.2702  1.8527
19390SOL    HW267139   4.287   5.578   4.753  2.5306 -0.3025 -1.7663
19391SOL     OW67140   3.470  10.229   9.838  0.2070 -0.1560  0.0714
19391SOL    HW167141   3.503  10.249   9.925 -0.7007  1.7690  0.0383
19391SOL    HW267142   3.511  10.294   9.781  0.4418 -1.1050 -0.8583
19392SOL     OW67143  10.386   2.030   9.050 -0.0260 -0.0376 -0.2183
19392SOL    HW167144  10.474   1.995   9.057 -0.3535 -1.0521 -0.9681
19392SOL    HW267145  10.397   2.125   9.054  1.2463 -0.0880 -1.7091
19393SOL     OW67146   0.864   3.426   5.915 -0.2761  0.5614 -0.8776
19393SOL    HW167147   0.815   3.491   5.965  0.0300 -0.4294  0.7785
19393SOL    HW267148   0.804   3.353   5.905 -0.0363  0.4059 -1.2302
19394SOL     OW67149   7.637   2.021  10.089 -0.2197 -0.3151  0.1157
19394SOL    HW167150   7.722   2.017  10.133 -0.7278 -0.1364  1.1500
19394SOL    HW267151   7.574   2.001  10.158 -1.0505  0.0709 -0.5210
19395SOL     OW67152  10.233   9.661   3.492 -0.3814 -0.3998 -0.2398
19395SOL    HW167153  10.242   9.750   3.527  2.1697 -0.8531  0.4937
19395SOL    HW267154  10.297   9.657   3.421 -1.6611 -1.1907 -1.4065
19396SOL     OW67155   9.121   6.307   8.059 -0.5013 -0.2706 -0.0265
19396SOL    HW167156   9.137   6.216   8.081 -0.6224 -0.7587 -1.7452
19396SOL    HW267157   9.034   6.326   8.095 -0.5177 -0.8672  0.2468
19397SOL     OW67158   5.393   5.560   7.259  0.3151  0.1785 -0.2535
19397SOL    HW167159   5.442   5.595   7.185  0.9900 -0.2957 -0.0454
19397SOL    HW267160   5.409   5.622   7.330 -1.7895  1.6086 -0.9546
19398SOL     OW67161   4.761   0.029   1.234  0.0040 -0.4758  0.6232
19398SOL    HW167162   4.815   0.092   1.283  2.1744  0.2833 -2.3898
19398SOL    HW267163   4.773  -0.054   1.279 -0.5038  0.6633  2.9815
19399SOL     OW67164   5.833   6.518  11.182  0.1634  0.6182 -0.6084
19399SOL    HW167165   5.850   6.609  11.205  2.6845  0.7984 -2.7571
19399SOL    HW267166   5.807   6.520  11.090 -2.5008 -0.6849 -0.0183
19400SOL     OW67167  11.066  10.463   9.549 -0.5581  0.2586  0.7949
19400SOL    HW167168  11.080  10.369   9.536  0.6544  0.2628  1.8853
19400SOL    HW267169  11.128  10.505   9.489 -0.3111  0.3471  1.1107
19401SOL     OW67170   8.972   8.184   7.118 -0.3442  0.0954 -0.3654
19401SOL    HW167171   9.052   8.157   7.074  0.5951  2.6873 -0.4353
19401SOL    HW267172   8.912   8.207   7.047  0.1724  1.5757 -0.3580
19402SOL     OW67173  11.463  10.981   2.906  0.2792 -0.1233 -0.4838
19402SOL    HW167174  11.520  11.054   2.883  0.2628 -0.4108 -1.4668
19402SOL    HW267175  11.498  10.907   2.857 -0.9539 -0.2990 -1.1285
19403SOL     OW67176   7.431  10.850  12.376  0.4221 -0.1837 -0.1535
19403SOL    HW167177   7.377  10.796  12.433 -2.5228  0.8094 -1.7721
19403SOL    HW267178   7.370  10.884  12.311  2.7109  2.5409 -1.0748
19404SOL     OW67179   3.691   9.000   2.168  0.1712  0.1359 -0.3901
19404SOL    HW167180   3.776   9.041   2.155  0.3502 -0.2282 -0.3646
19404SOL    HW267181   3.632   9.048   2.110  0.2124  0.9555  0.2229
19405SOL     OW67182   5.236   3.543   5.784  0.4197 -0.3208 -0.1314
19405SOL    HW167183   5.141   3.554   5.770  0.6126  0.5831 -0.8757
19405SOL    HW267184   5.245   3.523   5.877 -0.5179 -0.6194 -0.0927
19406SOL     OW67185   5.226   4.857  10.209 -0.0979  0.0867 -0.5251
19406SOL    HW167186   5.320   4.849  10.193 -0.2528  0.4683 -1.7168
19406SOL    HW267187   5.208   4.794  10.278  1.4129  1.5642  1.3466
19407SOL     OW67188  12.171   7.730   9.121 -0.0623  0.4422  0.3949
19407SOL    HW167189  12.094   7.750   9.068  1.2259  2.0470 -0.9677
19407SOL    HW267190  12.224   7.673   9.066  0.8763  1.3958  0.2909
19408SOL     OW67191   9.933   5.853   8.261 -0.2683 -0.1515 -0.4697
19408SOL    HW167192   9.974   5.819   8.182  0.7316  0.6094 -0.3060
19408SOL    HW267193   9.938   5.781   8.324  0.8313 -0.0897 -0.4633
19409SOL     OW67194  10.564   9.869   4.504 -0.4439  0.6068 -0.5804
19409SOL    HW167195  10.498   9.938   4.503  0.6247  1.7123  0.6605
19409SOL    HW267196  10.530   9.802   4.444 -2.1572  1.5937 -0.7826
19410SOL     OW67197   8.632   5.004   2.757  0.6255 -0.9051  0.4359
19410SOL    HW167198   8.664   4.915   2.767 -0.1231 -1.4546 -1.6202
19410SOL    HW267199   8.537   4.996   2.758  0.4578 -0.6807 -3.1689
19411SOL     OW67200   5.746   0.181   4.504 -0.3630  0.0784 -0.2034
19411SOL    HW167201   5.783   0.239   4.437  2.7264 -1.8055 -0.3493
19411SOL    HW267202   5.770   0.222   4.587 -1.8091  1.0281 -0.2234
19412SOL     OW67203   2.295   8.221  10.277 -0.0531  0.8740  0.0364
19412SOL    HW167204   2.226   8.270  10.232 -0.3640  1.0416  0.6838
19412SOL    HW267205   2.316   8.149  10.218 -0.3891  1.1444 -0.4161
19413SOL     OW67206  10.577   1.718   9.020 -0.1420 -0.2908  0.3114
19413SOL    HW167207  10.669   1.699   9.040 -0.5449 -3.5538 -0.3081
19413SOL    HW267208  10.530   1.699   9.102 -0.4549 -0.5469  0.0734
19414SOL     OW67209   7.432   5.977   5.244  0.1938 -0.2907 -0.1193
19414SOL    HW167210   7.395   6.008   5.327  0.2035 -0.1257 -0.1767
19414SOL    HW267211   7.527   5.979   5.258  0.1846 -0.7516  0.0421
19415SOL     OW67212   4.542   1.247  12.156 -0.8377 -0.0773 -0.0987
19415SOL    HW167213   4.553   1.160  12.193 -1.0747  0.3214  0.9540
19415SOL    HW267214   4.565   1.238  12.063  0.2793 -1.0001  0.2503
19416SOL     OW67215   6.049   5.062   9.518 -0.1534  0.4207  0.3618
19416SOL    HW167216   6.051   4.971   9.546 -0.6150 -0.3396 -1.8540
19416SOL    HW267217   6.004   5.108   9.588 -0.8088 -1.2355  1.0816
19417SOL     OW67218  11.619   5.609   0.194 -0.1987 -0.3740  0.1909
19417SOL    HW167219  11.696   5.664   0.182  0.4530 -0.9176  1.6908
19417SOL    HW267220  11.652   5.520   0.196 -0.9793 -0.6800 -0.0264
19418SOL     OW67221   4.819   6.256   1.014 -0.3647  0.2925  0.1668
19418SOL    HW167222   4.854   6.191   0.953 -2.1016 -1.8686  1.2794
19418SOL    HW267223   4.773   6.319   0.959  0.8397  0.2535 -0.9308
19419SOL     OW67224   2.034  10.200   3.555  0.0528  0.2328  0.5882
19419SOL    HW167225   1.970  10.205   3.484  0.4559 -0.8021  0.1401
19419SOL    HW267226   1.981  10.192   3.634 -0.3895  0.9599  0.3805
19420SOL     OW67227  10.053   3.174   0.480  0.2594 -0.2000  0.4248
19420SOL    HW167228  10.035   3.089   0.521  0.8173 -0.8366 -0.6137
19420SOL    HW267229   9.981   3.230   0.509 -0.3553 -1.1447  0.7781
19421SOL     OW67230   0.776   7.986   2.905  0.2189  0.2487 -0.0219
19421SOL    HW167231   0.774   7.891   2.896  1.4219  0.1305  0.6943
19421SOL    HW267232   0.691   8.016   2.873  0.1152 -1.0054 -0.9756
19422SOL     OW67233   1.024   6.350   8.558 -0.0887 -0.1916 -0.2535
19422SOL    HW167234   0.950   6.334   8.616  0.8326 -1.1006  0.7018
19422SOL    HW267235   1.082   6.407   8.607  0.1387  0.0317 -0.7696
19423SOL     OW67236   7.546   2.080   2.215 -0.1602 -0.2082 -0.4718
19423SOL    HW167237   7.579   2.140   2.282  0.5011 -0.9499 -0.1263
19423SOL    HW267238   7.612   2.082   2.146  0.3328 -1.2371 -0.0447
19424SOL     OW67239   7.197  12.460   8.447 -0.1798  0.2983 -0.1789
19424SOL    HW167240   7.259  12.429   8.381  0.9182  0.7185  0.6348
19424SOL    HW267241   7.178  12.383   8.501  0.5625  0.4404  0.2906
19425SOL     OW67242   2.111   5.006  10.477  0.2757 -0.4931  0.3792
19425SOL    HW167243   2.023   5.002  10.440  0.3670 -1.5425  0.2293
19425SOL    HW267244   2.161   5.060  10.415 -0.7267  1.8839  1.5398
19426SOL     OW67245   7.768   3.577  11.521 -0.5283  0.3269 -0.1729
19426SOL    HW167246   7.839   3.619  11.571  0.8575 -2.1030  0.0644
19426SOL    HW267247   7.796   3.586  11.430  0.4224 -1.0746 -0.0530
19427SOL     OW67248   6.018   6.513   1.453  0.3288 -0.6038 -0.1652
19427SOL    HW167249   6.001   6.549   1.366  0.3171  1.0424  0.4762
19427SOL    HW267250   6.046   6.588   1.505  0.7048 -1.6233  1.1606
19428SOL     OW67251  12.362  10.161  12.187 -0.3225 -0.4402 -0.1743
19428SOL    HW167252  12.426  10.231  12.174  0.7905 -1.4740 -0.4658
19428SOL    HW267253  12.393  10.089  12.131 -0.9266 -1.4824  0.7730
19429SOL     OW67254   7.424   4.983   3.107  0.1506 -0.0673 -0.3049
19429SOL    HW167255   7.488   4.922   3.070  0.8895  0.8225 -0.5096
19429SOL    HW267256   7.409   4.951   3.196  1.8670  0.4465  0.2030
19430SOL     OW67257   0.054   6.622   3.043 -0.1809  0.7479 -0.1998
19430SOL    HW167258  -0.036   6.590   3.050  0.2020 -0.4707 -0.4788
19430SOL    HW267259   0.107   6.542   3.039  0.9827  1.4383  0.7995
19431SOL     OW67260   0.153   3.425   3.231 -0.6840 -0.1929 -0.3097
19431SOL    HW167261   0.063   3.395   3.241 -1.3037  1.8557  0.8950
19431SOL    HW267262   0.145   3.513   3.193  0.7578  0.2358  0.3086
19432SOL     OW67263   5.987   3.608   6.222  0.2002 -0.0619  0.6852
19432SOL    HW167264   5.993   3.515   6.199  1.9577  0.3779 -0.8711
19432SOL    HW267265   5.926   3.645   6.158  0.7863  0.1328  0.2239
19433SOL     OW67266   6.740   9.137   1.769 -0.3542 -0.0309  0.1828
19433SOL    HW167267   6.687   9.059   1.785 -1.2069  0.1802 -1.4186
19433SOL    HW267268   6.795   9.114   1.695  0.9019  0.2105  1.0000
19434SOL     OW67269   3.678   4.083   9.665  0.2351 -0.2474 -0.3319
19434SOL    HW167270   3.770   4.078   9.691 -0.1217  0.1754  1.0993
19434SOL    HW267271   3.674   4.157   9.604  0.7702  0.0391 -0.0239
19435SOL     OW67272   2.177   4.449   0.837  0.0847  0.2603  0.3157
19435SOL    HW167273   2.219   4.386   0.779 -1.1954  0.7823 -1.2733
19435SOL    HW267274   2.238   4.522   0.841 -0.0353  0.4418 -0.8372
19436SOL     OW67275   3.790   7.915   4.609  0.1555  0.0536 -0.1837
19436SOL    HW167276   3.722   7.948   4.667 -1.0958 -1.0129 -0.9924
19436SOL    HW267277   3.744   7.887   4.531  1.4643 -1.1591 -0.5681
19437SOL     OW67278   4.209   8.292   5.114 -0.5069  0.0942 -0.6464
19437SOL    HW167279   4.221   8.247   5.031  0.3968 -2.2962  0.7034
19437SOL    HW267280   4.297   8.296   5.153 -1.3129 -1.8835  1.6377
19438SOL     OW67281   8.033   4.029   2.791  0.4800  0.6808  0.0388
19438SOL    HW167282   8.129   4.036   2.799  0.3577  1.5841  0.9153
19438SOL    HW267283   8.012   4.079   2.712  0.7774 -0.0334 -0.5050
19439SOL     OW67284   9.214   9.956   7.717 -0.3725  0.0254 -0.2983
19439SOL    HW167285   9.265   9.998   7.787  2.1454 -2.0159 -0.7872
19439SOL    HW267286   9.169   9.884   7.761 -0.5493  0.0684 -0.4079
19440SOL     OW67287  11.970   8.672   1.771 -0.1374 -0.2647 -0.0646
19440SOL    HW167288  12.024   8.641   1.844 -0.6968 -1.2111 -0.0363
19440SOL    HW267289  11.922   8.746   1.807 -2.1705 -2.1346  1.3123
19441SOL     OW67290   4.071   2.682  12.174 -0.2930 -0.3163  0.3869
19441SOL    HW167291   4.159   2.648  12.191 -0.1658  0.4638  1.3873
19441SOL    HW267292   4.058   2.667  12.081  0.6783 -0.9503  0.3296
19442SOL     OW67293  11.840  10.307   9.185  0.2164  0.1280  0.7791
19442SOL    HW167294  11.810  10.381   9.132  1.2752  0.0618  0.0487
19442SOL    HW267295  11.760  10.261   9.210 -0.3099 -0.6618 -1.9686
19443SOL     OW67296   7.355   2.545   0.463 -0.4165  0.4326  0.5712
19443SOL    HW167297   7.301   2.585   0.394  0.9227  2.0991  0.4210
19443SOL    HW267298   7.291   2.510   0.525 -1.6687  1.1454 -0.2570
19444SOL     OW67299  10.414  10.249   8.271 -0.1212  1.0396  0.2438
19444SOL    HW167300  10.444  10.338   8.290 -2.5972  1.7360  1.3144
19444SOL    HW267301  10.324  10.248   8.302 -0.4265 -1.6113 -0.5556
19445SOL     OW67302   9.979   9.928  11.054  0.8697 -0.2114 -0.4061
19445SOL    HW167303   9.888   9.934  11.084  1.6323 -1.2259  2.4561
19445SOL    HW267304  10.005  10.019  11.040  0.6175  0.5252  3.0504
19446SOL     OW67305   0.526   1.603   3.274 -0.2242  0.0515 -0.1196
19446SOL    HW167306   0.462   1.659   3.230 -1.8771 -2.9006 -1.7502
19446SOL    HW267307   0.525   1.633   3.365 -1.5750  2.1218 -0.7503
19447SOL     OW67308   3.931   5.966   7.865  0.1335  0.4860  0.3281
19447SOL    HW167309   3.977   6.033   7.814  0.6741 -0.9859 -1.2250
19447SOL    HW267310   3.881   5.917   7.800 -0.5460 -0.3871  1.4762
19448SOL     OW67311   4.293   9.377   1.154 -0.7090 -0.2503 -0.1922
19448SOL    HW167312   4.311   9.302   1.211 -0.9829  0.7665  1.3055
19448SOL    HW267313   4.206   9.407   1.180  0.3493  2.0204  0.9914
19449SOL     OW67314   6.804   1.997   7.681  0.1171 -0.5432  0.2379
19449SOL    HW167315   6.712   1.988   7.657  0.4803 -0.7922 -1.2007
19449SOL    HW267316   6.803   2.030   7.771 -1.3760  0.1304  0.0101
19450SOL     OW67317  12.320   7.533   3.789 -0.7047 -0.2182 -0.2746
19450SOL    HW167318  12.344   7.497   3.704 -0.3287 -1.6386  0.3915
19450SOL    HW267319  12.341   7.463   3.851 -2.8668 -0.0170  0.7834
19451SOL     OW67320   8.990  11.131   4.558 -0.2548 -0.3055 -0.3708
19451SOL    HW167321   9.085  11.140   4.564 -0.4646  2.0765  1.0361
19451SOL    HW267322   8.970  11.050   4.605  1.0479 -0.6360 -0.3482
19452SOL     OW67323   4.170  10.214  12.088  0.2276  0.2321 -0.0398
19452SOL    HW167324   4.263  10.231  12.071 -0.1900  2.0666 -0.6769
19452SOL    HW267325   4.143  10.156  12.017  1.0302 -0.9563  0.5795
19453SOL     OW67326   9.489   9.758   4.062  0.1159 -0.2593  0.7788
19453SOL    HW167327   9.394   9.764   4.062  0.1582  1.3845 -0.9681
19453SOL    HW267328   9.509   9.695   3.993  0.2881  1.1903 -0.5587
19454SOL     OW67329   9.154   7.029   5.389  0.1645 -0.2808  0.0634
19454SOL    HW167330   9.216   6.981   5.444  1.7281 -0.3521 -1.6459
19454SOL    HW267331   9.133   6.968   5.318 -0.9297  0.1894 -0.0380
19455SOL     OW67332   9.240  12.237   8.226 -0.1331  0.2938 -0.3245
19455SOL    HW167333   9.236  12.180   8.302 -0.9407  0.6526 -0.0850
19455SOL    HW267334   9.255  12.324   8.262  0.8290  0.2862 -0.6710
19456SOL     OW67335   3.281   9.476   6.453  0.1705  0.1310 -0.5552
19456SOL    HW167336   3.228   9.416   6.400  1.5030  1.0919 -3.1474
19456SOL    HW267337   3.242   9.562   6.438 -0.2536  0.2755  1.1931
19457SOL     OW67338  11.446   0.392   8.497  0.1127 -0.1493  0.3656
19457SOL    HW167339  11.406   0.419   8.580 -1.3299 -1.0401 -0.0097
19457SOL    HW267340  11.482   0.473   8.460 -0.6179  0.5377  1.1230
19458SOL     OW67341   0.438   4.795   3.521  0.2543 -0.5020 -0.4494
19458SOL    HW167342   0.528   4.773   3.495  0.2005 -2.5785  0.8650
19458SOL    HW267343   0.449   4.857   3.593  0.6134 -0.5267 -0.4785
19459SOL     OW67344  11.381   3.182   8.253  0.3733 -0.3658 -0.4005
19459SOL    HW167345  11.316   3.188   8.323 -0.5065  0.1258 -1.2501
19459SOL    HW267346  11.461   3.216   8.293  0.8343 -3.2316  1.4502
19460SOL     OW67347   1.254   4.651   5.279  0.6146  0.1578  0.4610
19460SOL    HW167348   1.203   4.693   5.209 -3.2569 -1.9912  1.6694
19460SOL    HW267349   1.241   4.558   5.264  1.0399 -0.3821  3.0979
19461SOL     OW67350  11.924   6.729   8.603 -0.0328 -0.4783 -0.2105
19461SOL    HW167351  11.905   6.787   8.528 -0.8043 -1.7850 -1.0742
19461SOL    HW267352  11.852   6.666   8.602 -0.7369  0.1757  2.4012
19462SOL     OW67353  10.257  12.135  12.164 -0.4028  0.0085  0.4305
19462SOL    HW167354  10.189  12.163  12.225 -0.9742 -1.2694  0.4294
19462SOL    HW267355  10.232  12.175  12.081 -1.4705 -0.8457  0.3162
19463SOL     OW67356  10.774  11.767  12.572  0.3359  0.2501 -0.0813
19463SOL    HW167357  10.691  11.776  12.525  0.0931 -0.6650  0.1396
19463SOL    HW267358  10.828  11.712  12.515  1.1437  1.5765 -0.6430
19464SOL     OW67359   7.442   0.385   4.417  0.0396  0.6413  0.0658
19464SOL    HW167360   7.409   0.419   4.334  1.9643 -0.9586 -1.4450
19464SOL    HW267361   7.366   0.342   4.457 -0.6894  0.5673 -1.3289
19465SOL     OW67362   9.913   1.373   3.761 -0.0101  0.6169 -0.0079
19465SOL    HW167363   9.995   1.324   3.756  0.3741  1.1497  0.9469
19465SOL    HW267364   9.881   1.356   3.849 -1.1203  0.1282 -0.4858
19466SOL     OW67365   0.277   7.373   9.684 -0.7278  0.1101 -0.5056
19466SOL    HW167366   0.239   7.351   9.599 -0.6808 -2.6785  0.0856
19466SOL    HW267367   0.219   7.331   9.747  0.6719 -0.1312  0.6723
19467SOL     OW67368   3.458   9.888   8.363 -0.1526 -0.0086  0.0126
19467SOL    HW167369   3.511   9.895   8.284 -0.3918  5.7746 -0.1108
19467SOL    HW267370   3.367   9.892   8.332 -0.2534  1.9513  0.3851
19468SOL     OW67371   9.903  10.854   9.581 -0.1442 -0.1318  0.3853
19468SOL    HW167372   9.994  10.863   9.552 -1.1030  1.5514 -2.5369
19468SOL    HW267373   9.908  10.805   9.663  3.3005 -0.9271 -0.1660
19469SOL     OW67374   7.519  11.476  11.380  0.2371 -0.0775  0.6185
19469SOL    HW167375   7.433  11.497  11.416  0.4798 -0.1012  1.2313
19469SOL    HW267376   7.510  11.387  11.346  0.3957 -0.6438  1.9813
19470SOL     OW67377   7.313   4.721  10.389 -0.1350  0.2673 -0.2192
19470SOL    HW167378   7.389   4.756  10.342  0.7371 -0.7523  0.3924
19470SOL    HW267379   7.351   4.669  10.460 -1.3778 -1.4532 -0.7576
19471SOL     OW67380   6.419  10.642   3.881 -0.1229  0.2599 -0.1356
19471SOL    HW167381   6.460  10.704   3.942  0.3381 -1.3620  1.3029
19471SOL    HW267382   6.420  10.559   3.928 -2.3783 -0.4830 -1.2588
19472SOL     OW67383   8.424  10.189   1.093  0.0833  0.2627 -0.0410
19472SOL    HW167384   8.454  10.102   1.066 -1.2559 -0.2119 -0.0909
19472SOL    HW267385   8.351  10.208   1.034 -0.7032  0.6924  1.0380
19473SOL     OW67386   6.050  10.106   7.190 -1.0114  0.4583 -0.0216
19473SOL    HW167387   6.065  10.013   7.171  0.0461  0.5733  0.2170
19473SOL    HW267388   6.046  10.111   7.285  0.7484  0.8971  0.0673
19474SOL     OW67389  11.149   6.866   8.696  0.0587  0.1478  0.2164
19474SOL    HW167390  11.155   6.828   8.608  2.4598  1.5909 -0.3325
19474SOL    HW267391  11.059   6.899   8.701 -0.1468  0.0102 -1.6895
19475SOL     OW67392   4.277   1.204   0.709  0.3016  0.2513  0.4001
19475SOL    HW167393   4.337   1.278   0.719  0.8586 -0.2382  0.7005
19475SOL    HW267394   4.304   1.142   0.777 -0.0763 -0.2860  0.0607
19476SOL     OW67395   5.971   8.034   7.862  0.8252  0.0489  0.5659
19476SOL    HW167396   5.977   8.056   7.955  1.6188 -0.9672  0.7822
19476SOL    HW267397   6.027   7.956   7.853  0.5612 -0.0082 -0.7131
19477SOL     OW67398   7.645  10.179   0.915  0.3140 -0.0221 -0.0115
19477SOL    HW167399   7.573  10.238   0.937  1.7411  1.7682  0.0591
19477SOL    HW267400   7.658  10.191   0.821  0.1871 -0.7553 -0.1297
19478SOL     OW67401   6.943   0.335   0.171 -1.0275  0.5187 -0.3251
19478SOL    HW167402   6.873   0.350   0.108  0.4609  1.7055 -1.7784
19478SOL    HW267403   6.971   0.422   0.197 -0.2820  0.0573  0.4658
19479SOL     OW67404   7.376   8.810   1.096 -0.0787  0.3504  0.0094
19479SOL    HW167405   7.393   8.856   1.015 -1.5965  0.9605 -0.0068
19479SOL    HW267406   7.322   8.870   1.147  0.4852 -0.1950  1.2879
19480SOL     OW67407   3.711   5.616   3.240 -0.1275 -0.7614 -0.0207
19480SOL    HW167408   3.681   5.528   3.218  0.3245 -0.7115 -0.9056
19480SOL    HW267409   3.775   5.604   3.310 -2.0783 -0.8752  1.8384
19481SOL     OW67410   1.492  11.425   1.235 -0.2654  0.1550  0.3327
19481SOL    HW167411   1.502  11.378   1.318  1.3306 -1.0619 -0.4834
19481SOL    HW267412   1.519  11.361   1.169  0.5672  1.7820 -0.9561
19482SOL     OW67413   9.384   3.304   4.267 -0.0094  0.3503 -0.1928
19482SOL    HW167414   9.354   3.233   4.325  0.6395 -0.2391 -0.5571
19482SOL    HW267415   9.472   3.324   4.299  0.3015  0.1135 -0.8757
19483SOL     OW67416  12.112   2.684   0.054  0.5779  0.4836  0.2383
19483SOL    HW167417  12.024   2.718   0.036 -0.4316 -1.1983  1.5984
19483SOL    HW267418  12.137   2.638  -0.026 -0.1806  0.2614  0.1194
19484SOL     OW67419  11.766  12.490   4.538 -0.0125  0.2167 -0.7726
19484SOL    HW167420  11.798  12.570   4.496  0.8176  0.7848  0.8457
19484SOL    HW267421  11.677  12.480   4.505 -0.5577  2.4732 -0.1796
19485SOL     OW67422   7.745   5.524  11.909  0.4299 -0.0296  0.2681
19485SOL    HW167423   7.654   5.526  11.936 -0.3162 -0.7061 -1.9762
19485SOL    HW267424   7.767   5.614  11.887 -0.7875 -0.2843 -2.3180
19486SOL     OW67425   9.335   4.968   9.764  0.1888  0.0247 -0.4485
19486SOL    HW167426   9.360   4.956   9.856  1.3480 -1.0401 -0.8691
19486SOL    HW267427   9.367   5.055   9.742  0.4829  0.0352 -0.0006
19487SOL     OW67428   5.946   4.409   4.258 -0.6457  0.1975 -0.6575
19487SOL    HW167429   5.969   4.486   4.311 -1.3394 -0.4485  0.6521
19487SOL    HW267430   6.025   4.355   4.259 -0.2938  0.6984 -1.2228
19488SOL     OW67431   1.121   7.621   1.471  0.0972  0.1606 -0.2490
19488SOL    HW167432   1.098   7.542   1.421 -0.1221  0.9221 -1.3904
19488SOL    HW267433   1.043   7.640   1.524 -0.4199  0.4348 -1.0818
19489SOL     OW67434   1.117   0.153   7.900  0.4886  0.6005 -0.0387
19489SOL    HW167435   1.176   0.093   7.947 -1.3524 -1.4687 -0.2056
19489SOL    HW267436   1.102   0.111   7.816 -2.5914  0.0792  0.6602
19490SOL     OW67437  11.909   5.284   0.075  0.0739 -0.7129 -0.1505
19490SOL    HW167438  11.911   5.297  -0.020  0.0604 -0.2092 -0.0862
19490SOL    HW267439  12.000   5.272   0.099  0.5711  2.6707  0.2136
19491SOL     OW67440   8.984  10.765   2.897  0.2069 -0.3840 -0.4796
19491SOL    HW167441   8.894  10.746   2.869 -0.0987  2.0374 -1.4088
19491SOL    HW267442   9.004  10.697   2.960 -1.5538 -2.1639 -1.7008
19492SOL     OW67443   5.736   9.037   9.841  0.0513  0.2787  0.1364
19492SOL    HW167444   5.797   8.964   9.849  0.7417  0.6490 -1.3826
19492SOL    HW267445   5.726   9.070   9.931  1.7867 -0.0438  0.4862
19493SOL     OW67446   2.888   4.946   1.625 -0.1431  0.1671  0.2241
19493SOL    HW167447   2.910   4.861   1.664 -1.6008 -1.2826 -1.9094
19493SOL    HW267448   2.828   4.986   1.688  0.5793 -0.3451  1.2699
19494SOL     OW67449   6.170  10.569  12.480 -0.5997 -0.4358  0.1504
19494SOL    HW167450   6.110  10.583  12.406 -0.3708 -0.8261 -0.1145
19494SOL    HW267451   6.201  10.656  12.502  0.9809 -0.4910 -1.6142
19495SOL     OW67452   3.786   8.802   0.971  0.4299  0.1471 -1.1612
19495SOL    HW167453   3.700   8.762   0.983 -0.3138  1.4403 -1.9333
19495SOL    HW267454   3.834   8.780   1.051 -1.4509  1.4287  0.4182
19496SOL     OW67455   6.353   3.562   2.651  0.7959  0.3475 -0.2292
19496SOL    HW167456   6.388   3.502   2.718  0.9496 -0.6367 -1.1486
19496SOL    HW267457   6.405   3.642   2.660  1.8010 -0.2971 -0.1030
19497SOL     OW67458   2.627  11.406   2.694 -0.7183  0.2013 -0.7568
19497SOL    HW167459   2.610  11.317   2.726  0.8478 -0.3964 -1.4983
19497SOL    HW267460   2.539  11.444   2.682 -1.4180 -0.2557  2.1376
19498SOL     OW67461   5.831   9.535   2.913  0.7548  0.2577 -0.1983
19498SOL    HW167462   5.755   9.514   2.968  0.5186 -0.3640 -0.7388
19498SOL    HW267463   5.796   9.589   2.842  0.6306 -0.7420 -0.9291
19499SOL     OW67464   5.861   6.793  10.801  0.2661 -0.2788 -0.3372
19499SOL    HW167465   5.797   6.849  10.757 -0.4146 -0.8367 -0.0817
19499SOL    HW267466   5.880   6.838  10.883 -1.0716 -0.9081  0.3488
19500SOL     OW67467   4.110   1.272   8.740 -0.2143  0.1114 -0.4002
19500SOL    HW167468   4.121   1.180   8.764 -0.4288  0.3715  0.7301
19500SOL    HW267469   4.115   1.272   8.644  1.5293 -0.8347 -0.3507
19501SOL     OW67470   1.002   6.670  12.216 -0.1256 -0.6246  0.1367
19501SOL    HW167471   1.074   6.708  12.266  2.0215 -0.9777 -2.4684
19501SOL    HW267472   0.974   6.741  12.158 -0.0978 -1.2750 -0.6733
19502SOL     OW67473  10.550   5.470  10.588  0.0212 -0.4392  0.1767
19502SOL    HW167474  10.606   5.402  10.551 -0.7991 -0.4727 -1.0644
19502SOL    HW267475  10.573   5.473  10.681  0.8413 -1.6387  0.0243
19503SOL     OW67476   8.904   5.221   5.506 -0.0824  0.3371 -0.2262
19503SOL    HW167477   8.861   5.221   5.420  0.0667 -0.1568 -0.3036
19503SOL    HW267478   8.859   5.290   5.555  0.8368  1.6834 -1.1891
19504SOL     OW67479   1.670   0.476   4.384 -0.6242  0.0119 -0.4240
19504SOL    HW167480   1.736   0.523   4.435 -2.2299  1.0019  0.8686
19504SOL    HW267481   1.661   0.392   4.430  0.9792 -0.9001 -1.6854
19505SOL     OW67482   2.939   6.892   4.963 -0.0666 -0.7282  0.2356
19505SOL    HW167483   2.962   6.871   4.873  1.2789 -0.8993  0.5969
19505SOL    HW267484   2.910   6.984   4.960 -0.6960 -0.9468 -0.4653
19506SOL     OW67485   3.576  10.761   7.399 -0.0004  0.3921 -0.2439
19506SOL    HW167486   3.658  10.758   7.449 -0.7815  1.8086  1.2009
19506SOL    HW267487   3.598  10.811   7.320  0.8109 -0.3525 -0.5093
19507SOL     OW67488   0.895   8.155   7.817 -0.2570  0.5058  0.1077
19507SOL    HW167489   0.868   8.228   7.874  0.1430  0.2987  0.5728
19507SOL    HW267490   0.833   8.157   7.744 -0.3479  1.2099  0.2005
19508SOL     OW67491   5.817   1.350  11.464  0.3003  0.1715  0.2913
19508SOL    HW167492   5.762   1.402  11.522 -0.5517  0.9421 -1.1397
19508SOL    HW267493   5.824   1.265  11.508 -0.1839  0.7723  1.5744
19509SOL     OW67494   7.555  12.096   8.419 -0.0516 -0.3622 -0.4069
19509SOL    HW167495   7.564  12.069   8.328  0.1870 -0.2534 -0.4165
19509SOL    HW267496   7.601  12.028   8.469  1.9421  0.7887 -0.5354
19510SOL     OW67497   8.593  12.539   8.026  0.0153  0.6021 -0.2319
19510SOL    HW167498   8.615  12.563   7.936 -1.3661  0.0496 -0.7566
19510SOL    HW267499   8.647  12.596   8.080 -0.9989  2.7936 -1.4067
19511SOL     OW67500  10.730   8.681   9.023 -0.5151  0.1930  0.3836
19511SOL    HW167501  10.801   8.651   9.079 -0.8837 -1.5741 -0.0303
19511SOL    HW267502  10.653   8.685   9.080 -0.9485 -1.8567  0.0186
19512SOL     OW67503  10.741  12.484   5.088  0.0017  0.0196  0.2863
19512SOL    HW167504  10.829  12.485   5.126 -0.1826 -0.9705  0.7683
19512SOL    HW267505  10.690  12.431   5.148 -1.1217  1.1985  0.4106
19513SOL     OW67506   6.757  11.622   9.361 -0.1391  0.0794  0.1717
19513SOL    HW167507   6.779  11.706   9.319 -0.0567 -1.2348 -2.6202
19513SOL    HW267508   6.664  11.610   9.343 -0.0274 -0.6644  0.0774
19514SOL     OW67509   8.151   0.517   1.569 -0.0675  0.1813 -0.0135
19514SOL    HW167510   8.088   0.523   1.497 -2.6242 -0.2062  2.0594
19514SOL    HW267511   8.230   0.481   1.528 -1.4281 -0.1248 -2.5982
19515SOL     OW67512   0.749   8.462   7.862 -0.0254  0.0048  0.2413
19515SOL    HW167513   0.792   8.407   7.928 -1.7139 -0.0321  1.3541
19515SOL    HW267514   0.819   8.519   7.829  0.7306  0.5399  2.6172
19516SOL     OW67515  11.834  10.081  12.394  0.2186 -0.2659  0.2352
19516SOL    HW167516  11.912  10.086  12.338  0.9463 -0.9801  1.1499
19516SOL    HW267517  11.776  10.021  12.349 -0.3741  1.2418 -1.0959
19517SOL     OW67518   2.621  11.300   9.818  0.2785 -0.7647  0.0835
19517SOL    HW167519   2.562  11.251   9.761  0.5735 -2.3537  1.0938
19517SOL    HW267520   2.609  11.391   9.792 -0.6669 -1.3106 -1.5047
19518SOL     OW67521   2.754   9.628   0.608 -0.0077  0.6606 -0.1323
19518SOL    HW167522   2.673   9.653   0.563 -1.5758 -0.5532  1.8757
19518SOL    HW267523   2.771   9.699   0.669 -1.4566 -0.5469  1.7631
19519SOL     OW67524   5.479   3.158   6.002  0.0068  0.0299 -0.1968
19519SOL    HW167525   5.404   3.136   5.946 -0.5191  1.4936 -0.1058
19519SOL    HW267526   5.548   3.183   5.940 -0.5832  1.6762 -0.2543
19520SOL     OW67527   0.503   4.928   2.947 -0.7758 -0.5631 -0.4788
19520SOL    HW167528   0.542   4.989   2.883 -1.4921 -0.5650 -0.9286
19520SOL    HW267529   0.565   4.855   2.951 -0.0774  0.0279 -0.1963
19521SOL     OW67530   9.055   3.244   5.242 -0.7400  0.0032 -0.2272
19521SOL    HW167531   9.008   3.327   5.255 -2.0004 -0.8860  1.2486
19521SOL    HW267532   8.986   3.179   5.229  0.1915 -0.9616 -0.4597
19522SOL     OW67533   0.157   7.232   6.434 -0.7220  0.6278  0.3859
19522SOL    HW167534   0.159   7.240   6.338  0.3975  0.0398  0.3468
19522SOL    HW267535   0.235   7.279   6.463  0.2078 -1.1352  0.8476
19523SOL     OW67536   4.765   3.492   1.967  0.3935  0.2408  0.1626
19523SOL    HW167537   4.808   3.565   2.012  2.1765 -1.0416  0.6343
19523SOL    HW267538   4.775   3.512   1.874 -1.0487  1.6237  0.2521
19524SOL     OW67539   8.653   5.128   8.893 -0.1651  0.5029  0.1302
19524SOL    HW167540   8.701   5.070   8.834  1.4614  0.9721  0.9231
19524SOL    HW267541   8.675   5.216   8.861  0.8599  0.7663  1.4820
19525SOL     OW67542  11.261   2.610   7.953  0.5298  0.7648 -0.3781
19525SOL    HW167543  11.241   2.519   7.928  1.4945  0.2445  0.6363
19525SOL    HW267544  11.355   2.619   7.937  0.7589  1.0731  0.9507
19526SOL     OW67545   3.698   8.261   3.131 -0.0878 -0.1992 -0.5270
19526SOL    HW167546   3.657   8.184   3.170 -1.0056  1.0207  1.0427
19526SOL    HW267547   3.790   8.237   3.120  0.0736 -0.8778  1.7939
19527SOL     OW67548   9.990  10.742   1.742 -0.4217 -0.2681 -0.0642
19527SOL    HW167549   9.996  10.656   1.701 -2.4163 -0.2295 -0.5501
19527SOL    HW267550  10.064  10.745   1.803  1.0802 -1.3750 -1.7228
19528SOL     OW67551   6.878   0.315   1.921 -0.4675  0.2232 -0.4871
19528SOL    HW167552   6.944   0.260   1.881 -1.5375 -1.8126  0.3967
19528SOL    HW267553   6.804   0.313   1.860 -1.4105 -1.3811  0.6317
19529SOL     OW67554   6.887   9.741  11.601  0.6868  0.7054 -0.0352
19529SOL    HW167555   6.826   9.794  11.652 -0.5172 -1.7592  1.3214
19529SOL    HW267556   6.973   9.761  11.637 -0.0529 -0.4545  2.6996
19530SOL     OW67557   6.056   2.756  11.477 -0.6101  0.1280 -0.4199
19530SOL    HW167558   6.011   2.728  11.557  0.6888  0.1631  0.3436
19530SOL    HW267559   6.035   2.689  11.412  0.5307 -1.3922  0.7160
19531SOL     OW67560   0.206   8.427   9.724  0.2036 -0.3307  0.1757
19531SOL    HW167561   0.125   8.430   9.673  0.3859  0.5977 -0.0825
19531SOL    HW267562   0.271   8.391   9.664 -0.2857 -2.3729  0.8012
19532SOL     OW67563  11.037   9.351   1.454  0.4011 -0.0215  0.2182
19532SOL    HW167564  11.088   9.270   1.463 -0.3306 -0.5229 -0.1551
19532SOL    HW267565  11.061   9.402   1.532  2.3906  0.2832 -0.5152
19533SOL     OW67566  11.163   8.595   8.613 -0.0330 -0.2913 -0.2237
19533SOL    HW167567  11.124   8.580   8.700  1.2508 -1.0200  0.2535
19533SOL    HW267568  11.175   8.689   8.609 -0.5116 -0.2033  0.2133
19534SOL     OW67569   2.960   8.509  12.186  0.1189 -0.5156  0.3339
19534SOL    HW167570   2.993   8.515  12.096  0.3712 -1.6786  0.3344
19534SOL    HW267571   2.886   8.570  12.188 -0.8811 -1.6095 -1.1408
19535SOL     OW67572   7.074   1.448   3.222 -0.1841  0.2530  0.2886
19535SOL    HW167573   7.044   1.459   3.131  1.2611  0.0149 -0.2317
19535SOL    HW267574   7.072   1.354   3.236  1.2117  0.1542 -0.0784
19536SOL     OW67575   4.441   0.119   8.697 -0.1097  0.3922  0.5795
19536SOL    HW167576   4.493   0.190   8.735 -0.2305  0.0410  1.3995
19536SOL    HW267577   4.466   0.042   8.747  1.8598 -0.6920 -1.8179
19537SOL     OW67578   7.851   6.316   2.130  0.7884  0.1748 -0.5811
19537SOL    HW167579   7.893   6.298   2.214  1.1386  0.4596 -0.6915
19537SOL    HW267580   7.863   6.235   2.080 -1.3045 -0.8044  0.3751
19538SOL     OW67581   0.190   9.863   8.788  0.0719 -0.2344 -0.2765
19538SOL    HW167582   0.231   9.786   8.749  0.4788 -0.9088  1.3971
19538SOL    HW267583   0.186   9.926   8.717 -1.4823 -2.2141 -2.1060
19539SOL     OW67584   1.369  11.341   5.478 -0.2074 -0.0906 -0.1802
19539SOL    HW167585   1.320  11.366   5.400  0.9140  0.8390 -0.6036
19539SOL    HW267586   1.350  11.410   5.542 -1.6724 -1.1964  0.6519
19540SOL     OW67587   8.325   3.997   0.747  0.1540 -0.4930 -0.0553
19540SOL    HW167588   8.327   3.944   0.827 -0.8650 -0.7907 -0.2161
19540SOL    HW267589   8.382   3.951   0.685  1.6333  0.1763  0.7359
19541SOL     OW67590   6.505   1.880  11.184 -0.2784 -0.3142  0.1996
19541SOL    HW167591   6.526   1.900  11.093 -0.1597  1.9308  0.6743
19541SOL    HW267592   6.590   1.871  11.226 -0.3350 -1.1114  0.1604
19542SOL     OW67593   7.110   8.277   1.532  0.6745 -0.5542  0.2971
19542SOL    HW167594   7.175   8.292   1.601 -2.0104  0.8058  2.7453
19542SOL    HW267595   7.050   8.212   1.569 -1.6073  1.2014 -0.1085
19543SOL     OW67596   7.795   7.778   0.604  0.0675  0.2347 -0.1575
19543SOL    HW167597   7.791   7.772   0.700 -3.4242  0.0927 -0.1816
19543SOL    HW267598   7.788   7.872   0.586  2.2124  0.4119 -0.3402
19544SOL     OW67599   4.055   0.464  11.323 -0.2124 -0.4051  0.5900
19544SOL    HW167600   4.091   0.376  11.336 -0.0882 -0.2015  1.7125
19544SOL    HW267601   4.119   0.523  11.364 -1.6464 -0.0182  2.4137
19545SOL     OW67602   1.170   6.794   2.805 -0.1120  0.2270  0.0261
19545SOL    HW167603   1.225   6.832   2.736 -0.5866  1.0862  0.1079
19545SOL    HW267604   1.090   6.768   2.761  0.3378 -1.0179 -0.0904
19546SOL     OW67605  10.520   6.339   1.814 -0.3015 -0.1276  0.2007
19546SOL    HW167606  10.463   6.353   1.739  1.4412 -1.0249 -1.3966
19546SOL    HW267607  10.506   6.416   1.870 -1.6584  0.5741 -1.0371
19547SOL     OW67608   8.730   1.151   3.614 -0.3876 -0.2880  0.2819
19547SOL    HW167609   8.635   1.156   3.627 -0.2174 -0.3365  1.7350
19547SOL    HW267610   8.767   1.182   3.696  0.8488 -1.7835  0.3331
19548SOL     OW67611   5.421   8.216  12.309  0.5451 -0.4725 -0.5532
19548SOL    HW167612   5.410   8.288  12.247  2.2779 -0.8635 -1.3814
19548SOL    HW267613   5.395   8.138  12.260 -0.0038 -0.5656 -0.1171
19549SOL     OW67614  10.145   9.212  12.110  0.3866 -0.2389 -0.0345
19549SOL    HW167615  10.074   9.265  12.145  1.2740  0.7950  0.2224
19549SOL    HW267616  10.218   9.226  12.169  0.9686 -0.9215 -0.5623
19550SOL     OW67617   0.133   1.458   6.939 -0.3661 -0.3791 -0.4982
19550SOL    HW167618   0.124   1.512   6.860 -1.8405 -1.8511 -1.4018
19550SOL    HW267619   0.098   1.513   7.009 -0.2215  0.4857 -1.0887
19551SOL     OW67620  11.157  10.776   4.461 -0.1264  0.0273 -0.5173
19551SOL    HW167621  11.215  10.845   4.493  0.0553 -0.1930 -0.3654
19551SOL    HW267622  11.213  10.699   4.456 -0.2176 -0.0042 -1.1165
19552SOL     OW67623  12.495   0.693   9.388  0.7821  0.3986  0.0307
19552SOL    HW167624  12.468   0.737   9.468  1.7187 -0.5437  0.8975
19552SOL    HW267625  12.589   0.675   9.400  0.5526 -1.3932 -0.4652
19553SOL     OW67626   8.339   4.626   8.540 -0.0807  0.2808 -0.4312
19553SOL    HW167627   8.329   4.576   8.459 -1.8055 -0.7873  0.3958
19553SOL    HW267628   8.421   4.594   8.577 -1.5073 -2.6151  0.4603
19554SOL     OW67629   3.754   6.003   1.634  0.2293 -0.2228 -0.1042
19554SOL    HW167630   3.835   5.987   1.586 -0.2956 -1.1006 -0.7238
19554SOL    HW267631   3.684   5.975   1.574 -0.3912 -3.5453  1.9035
19555SOL     OW67632   6.426   5.641   3.260 -0.6245  0.1247  0.1987
19555SOL    HW167633   6.439   5.547   3.269 -0.5287  0.0896 -0.2722
19555SOL    HW267634   6.422   5.674   3.350  1.8932  0.0171  0.4225
19556SOL     OW67635   2.143   3.812   1.821  0.0417  0.4264  0.1451
19556SOL    HW167636   2.109   3.860   1.897  1.4353  0.4320  0.7940
19556SOL    HW267637   2.076   3.824   1.753 -0.0436  2.5512  0.5487
19557SOL     OW67638   1.980   8.564   4.425 -0.7391  0.6030 -0.4635
19557SOL    HW167639   1.940   8.506   4.361  1.2038  0.4902 -1.6603
19557SOL    HW267640   2.008   8.640   4.374 -0.7018  1.3084  0.5731
19558SOL     OW67641   0.651   6.351   4.906 -0.2792  0.2302 -0.2572
19558SOL    HW167642   0.612   6.331   4.991  1.3409 -0.9138  0.2738
19558SOL    HW267643   0.613   6.286   4.846  1.3155 -1.4394  0.4343
19559SOL     OW67644   4.017   3.594   3.234  0.2379  0.0248 -0.3703
19559SOL    HW167645   4.079   3.538   3.187  1.5557  0.0974  1.2009
19559SOL    HW267646   3.943   3.602   3.174  2.0625  0.6486 -2.7315
19560SOL     OW67647   0.271   7.038   7.274 -0.0513  0.3105  0.4510
19560SOL    HW167648   0.210   7.111   7.268  2.5210  2.6814  1.0465
19560SOL    HW267649   0.280   7.005   7.184 -0.6933  1.2382  0.0433
19561SOL     OW67650  11.473   7.915   8.515  0.5041 -0.1123  0.4837
19561SOL    HW167651  11.404   7.938   8.453  1.7955 -1.0981 -1.4244
19561SOL    HW267652  11.509   7.999   8.542  1.2516  0.3595 -1.7559
19562SOL     OW67653  10.608   8.230  10.703  0.4746 -0.1949  0.0536
19562SOL    HW167654  10.528   8.212  10.655  0.7100 -0.3166 -0.2908
19562SOL    HW267655  10.598   8.182  10.785  0.1397 -0.0995  0.0712
19563SOL     OW67656   0.991   4.378   0.904  0.1586  0.1370  0.1665
19563SOL    HW167657   1.043   4.414   0.832  0.7110  0.0853  0.5388
19563SOL    HW267658   1.030   4.293   0.923 -1.7361 -1.1775 -1.3599
19564SOL     OW67659   1.706   8.023   8.770  0.6656 -0.1314 -0.4040
19564SOL    HW167660   1.668   7.965   8.836  1.5161 -1.9793 -1.4732
19564SOL    HW267661   1.630   8.067   8.731  0.1444  1.1096  1.8248
19565SOL     OW67662   9.529  10.377  10.745 -0.2974 -0.1462  0.2552
19565SOL    HW167663   9.560  10.286  10.753  0.9610  0.1058 -1.3050
19565SOL    HW267664   9.531  10.394  10.651 -1.2745  1.2710  0.4653
19566SOL     OW67665   3.803  10.789   6.731  0.2409  0.5289 -0.3256
19566SOL    HW167666   3.851  10.741   6.664  0.8964 -1.0529  1.2091
19566SOL    HW267667   3.798  10.729   6.805 -2.2183  1.4569  0.3641
19567SOL     OW67668   8.505   5.978   6.616  0.1772  0.2316 -0.3698
19567SOL    HW167669   8.428   5.944   6.570  0.8616  0.3331 -1.6248
19567SOL    HW267670   8.579   5.938   6.571  0.9346  1.6753 -0.4503
19568SOL     OW67671  12.023   2.929   4.089 -0.2375  0.5441  0.4728
19568SOL    HW167672  11.965   2.898   4.020  0.1233 -0.2441  0.5160
19568SOL    HW267673  12.110   2.925   4.051 -0.1246  0.9134  0.6902
19569SOL     OW67674  10.740   6.194   9.862 -0.0860  0.1985 -0.2941
19569SOL    HW167675  10.776   6.226   9.779  0.9306  2.9765  1.0894
19569SOL    HW267676  10.647   6.213   9.856 -0.0410  0.2868 -0.8139
19570SOL     OW67677  12.557   0.993   0.634 -0.2507  0.0953 -0.5520
19570SOL    HW167678  12.647   0.963   0.620 -0.1686  0.1434 -0.1332
19570SOL    HW267679  12.518   0.927   0.692 -0.7301 -0.3470 -1.3436
19571SOL     OW67680   2.573   9.187  12.399 -0.3814 -0.1965 -0.3433
19571SOL    HW167681   2.644   9.226  12.347 -1.7898  2.6056 -0.3226
19571SOL    HW267682   2.530   9.261  12.441 -1.3475 -2.0868  2.2803
19572SOL     OW67683   8.503   1.890  12.444 -0.1266 -0.4797  0.2441
19572SOL    HW167684   8.417   1.866  12.410 -0.2692 -0.2359  0.4283
19572SOL    HW267685   8.486   1.966  12.500 -0.0123 -1.3313  1.4677
19573SOL     OW67686   7.863   9.247   0.456 -0.2584  0.9154  0.3747
19573SOL    HW167687   7.885   9.297   0.535 -1.7620  3.0927 -0.5034
19573SOL    HW267688   7.818   9.310   0.400 -0.8650 -1.0684 -1.4664
19574SOL     OW67689   0.699   7.594   7.947  0.0744 -0.0556 -0.5536
19574SOL    HW167690   0.780   7.630   7.910  0.4180 -0.3011 -0.0453
19574SOL    HW267691   0.660   7.666   7.996  0.2866 -0.1076 -0.3086
19575SOL     OW67692   9.240   1.438   5.746 -0.4235  0.0666 -0.3084
19575SOL    HW167693   9.254   1.467   5.836  2.6810  1.2819 -1.0429
19575SOL    HW267694   9.189   1.508   5.706  0.3687  0.7948 -0.0863
19576SOL     OW67695   6.861  10.280   3.185  0.5638 -0.0599  0.3745
19576SOL    HW167696   6.766  10.267   3.184  0.4884  0.4956 -0.2455
19576SOL    HW267697   6.893  10.222   3.254 -0.1568 -0.7349  0.1466
19577SOL     OW67698   4.271   8.213   6.921  0.2526 -0.3524 -0.7286
19577SOL    HW167699   4.223   8.131   6.932 -2.5840  1.2755  0.1538
19577SOL    HW267700   4.254   8.239   6.830  0.3800 -0.2852 -0.7344
19578SOL     OW67701   0.112   7.075   7.623 -0.1760  0.5620  0.4231
19578SOL    HW167702   0.146   7.111   7.705  0.6619 -0.7686  0.6827
19578SOL    HW267703   0.137   7.140   7.557  1.3292  0.4787  0.8701
19579SOL     OW67704  12.257   5.042   1.308 -0.5818  0.6575  0.0715
19579SOL    HW167705  12.271   5.113   1.245  2.6858 -0.2814 -0.3974
19579SOL    HW267706  12.261   4.962   1.256 -1.5610 -0.0106  0.9789
19580SOL     OW67707   6.877   1.926   5.835 -0.5224 -0.3076  1.0541
19580SOL    HW167708   6.851   1.837   5.816 -1.2021  0.2606 -0.8337
19580SOL    HW267709   6.794   1.975   5.842 -0.1180  0.5442  0.0933
19581SOL     OW67710   6.246   1.422   9.578 -0.0840 -0.1613 -0.1755
19581SOL    HW167711   6.237   1.406   9.484 -2.0969  0.5207 -0.1448
19581SOL    HW267712   6.311   1.492   9.585 -1.8431  1.6795 -1.2868
19582SOL     OW67713  11.073   1.414  12.299  0.5772 -0.0690  0.6203
19582SOL    HW167714  11.133   1.346  12.330 -1.7387 -2.9441 -0.7949
19582SOL    HW267715  10.999   1.411  12.359 -0.2463  0.1115 -0.3618
19583SOL     OW67716   7.447   4.351   0.588 -0.6455  0.0910  0.1472
19583SOL    HW167717   7.388   4.291   0.543 -1.2893  0.6770  0.2018
19583SOL    HW267718   7.485   4.405   0.518  0.3994 -0.7588  0.0274
19584SOL     OW67719   6.982   1.600   6.533 -0.2023 -0.3655 -0.5640
19584SOL    HW167720   6.959   1.561   6.617 -0.7724  1.3345  0.1012
19584SOL    HW267721   7.077   1.592   6.528  0.0254  0.8912  0.9816
19585SOL     OW67722   3.917   7.128   7.529 -0.1723  0.0909 -0.7004
19585SOL    HW167723   3.877   7.041   7.522 -1.7239  0.8005 -1.2146
19585SOL    HW267724   3.872   7.169   7.602 -0.9123  1.1577 -1.7086
19586SOL     OW67725   0.902   5.321   4.761 -0.4877 -0.2793  0.3275
19586SOL    HW167726   0.947   5.345   4.680 -0.1868 -0.4271  0.4499
19586SOL    HW267727   0.971   5.323   4.828 -0.7055 -0.3008  0.5528
19587SOL     OW67728   7.400   8.013   9.953 -0.5711 -0.6083 -0.0054
19587SOL    HW167729   7.320   8.063   9.940 -0.1362  0.2900  0.6510
19587SOL    HW267730   7.373   7.922   9.946 -1.9283 -0.3772  1.6744
19588SOL     OW67731   0.795   4.367   5.747 -0.7410 -0.3224 -0.4348
19588SOL    HW167732   0.865   4.306   5.721 -0.9497 -0.3869 -0.8384
19588SOL    HW267733   0.777   4.418   5.669  0.4481  1.2783  0.2854
19589SOL     OW67734  12.250  11.972   8.830 -0.0909  0.2150  0.2367
19589SOL    HW167735  12.198  11.924   8.765 -0.7986  2.1948 -0.7361
19589SOL    HW267736  12.338  11.936   8.821 -0.2042  0.3100 -1.7383
19590SOL     OW67737   4.408  11.601   2.677  0.2213 -0.1057 -0.3521
19590SOL    HW167738   4.402  11.507   2.694  0.2981  0.1593  1.3377
19590SOL    HW267739   4.320  11.635   2.694 -0.5366 -0.1769 -3.5318
19591SOL     OW67740   7.146  11.279   0.740 -0.1402  0.5091 -0.6878
19591SOL    HW167741   7.100  11.200   0.768  1.7311  0.1920  1.7682
19591SOL    HW267742   7.076  11.344   0.731 -1.7869 -1.3701 -3.1221
19592SOL     OW67743   9.171  10.844   7.289  0.0771 -0.1317 -0.4898
19592SOL    HW167744   9.182  10.846   7.194  3.1894  0.1455 -0.2346
19592SOL    HW267745   9.260  10.843   7.323 -0.9434  0.0443  2.4630
19593SOL     OW67746   0.511   6.660  10.552 -0.5805 -0.2219  0.4107
19593SOL    HW167747   0.435   6.602  10.553  0.5635 -1.7796  1.3893
19593SOL    HW267748   0.555   6.640  10.469 -0.2454 -0.6936  0.6976
19594SOL     OW67749  11.902   8.291   8.468 -0.9047 -0.3528  0.3575
19594SOL    HW167750  11.882   8.368   8.522 -2.2471 -0.7605  0.4674
19594SOL    HW267751  11.823   8.275   8.417 -0.3952 -1.2482 -0.1849
19595SOL     OW67752   9.425   8.118   5.220  0.1295  0.1095  0.9574
19595SOL    HW167753   9.432   8.036   5.170  2.1495  0.2102  0.9816
19595SOL    HW267754   9.509   8.125   5.266 -0.9914  0.9137  3.0224
19596SOL     OW67755   7.386  12.190   0.622  0.0483  0.0853  0.4366
19596SOL    HW167756   7.476  12.207   0.651  0.7815 -0.7814 -1.1918
19596SOL    HW267757   7.357  12.274   0.586  0.4397  0.2156  0.4126
19597SOL     OW67758  12.184  12.540   0.499  0.9837  0.4173 -0.0385
19597SOL    HW167759  12.166  12.616   0.443  1.5036  0.4214 -0.2065
19597SOL    HW267760  12.133  12.469   0.460  2.5556  0.0125 -1.4996
19598SOL     OW67761   6.033   7.377   1.499  0.5104  0.5067  0.3338
19598SOL    HW167762   6.037   7.372   1.404  0.4334  1.0175  0.3001
19598SOL    HW267763   6.124   7.380   1.527  0.5349  0.2376  0.2845
19599SOL     OW67764   9.695   0.108  10.587 -0.0814 -0.0453  0.3710
19599SOL    HW167765   9.640   0.087  10.662  1.8623 -0.9234  1.6341
19599SOL    HW267766   9.717   0.200  10.597 -1.2663  0.3184 -0.1547
19600SOL     OW67767   5.096   2.327   7.173  0.3395 -0.1506  0.7529
19600SOL    HW167768   5.154   2.336   7.098  0.5390  2.2157  1.1278
19600SOL    HW267769   5.128   2.250   7.220  0.9046 -0.9941 -0.9547
19601SOL     OW67770   6.285   8.871   8.087 -0.8834  0.3864  0.1472
19601SOL    HW167771   6.325   8.788   8.115 -3.2932 -0.4442  1.3931
19601SOL    HW267772   6.347   8.938   8.114  0.5695 -0.9316  0.2155
19602SOL     OW67773  11.918   0.714  12.169 -0.1688  0.3816  0.3248
19602SOL    HW167774  11.963   0.734  12.252 -1.7111  0.6412  1.1365
19602SOL    HW267775  11.931   0.792  12.115 -0.6930  0.9752  1.0362
19603SOL     OW67776   1.957   9.212  10.873 -0.4336  0.1206 -0.1508
19603SOL    HW167777   1.993   9.161  10.800 -1.6078 -0.2657 -0.4864
19603SOL    HW267778   1.886   9.157  10.906 -0.2695  0.5512  0.9326
19604SOL     OW67779   7.585   0.494   9.336 -0.4038 -0.5571 -0.3545
19604SOL    HW167780   7.514   0.474   9.275 -0.0615  0.7353 -1.2102
19604SOL    HW267781   7.561   0.578   9.375  1.2136  0.5477 -1.5999
19605SOL     OW67782   4.398   5.712   1.312  0.0784 -0.5580  0.1110
19605SOL    HW167783   4.461   5.774   1.348  0.5487 -0.2778 -1.1431
19605SOL    HW267784   4.452   5.646   1.269 -0.4813 -0.1816 -1.1931
19606SOL     OW67785   3.696  11.909  10.272  0.5837 -0.4062  0.7985
19606SOL    HW167786   3.717  11.849  10.344 -3.2379  0.3590  2.8173
19606SOL    HW267787   3.656  11.853  10.205  0.0048 -0.5881  1.2823
19607SOL     OW67788   2.330   9.464  10.907 -0.1783  0.2330  0.2094
19607SOL    HW167789   2.355   9.540  10.959  1.6008  0.1638 -0.4841
19607SOL    HW267790   2.362   9.484  10.819 -0.3250 -1.0125 -0.1428
19608SOL     OW67791   1.232  11.314   2.065 -0.0096 -0.3065 -0.2754
19608SOL    HW167792   1.247  11.406   2.088 -0.3504 -0.4117  0.3888
19608SOL    HW267793   1.269  11.265   2.139  0.0992 -0.7068 -0.5900
19609SOL     OW67794   6.366   9.131   0.383  0.3517  0.2437  0.0983
19609SOL    HW167795   6.308   9.144   0.459  1.1423 -1.6359  1.1100
19609SOL    HW267796   6.308   9.137   0.307 -0.5540  1.6757  0.8530
19610SOL     OW67797   3.973   7.362   6.093  0.0751 -0.2165  0.1399
19610SOL    HW167798   3.935   7.317   6.019 -1.0607 -2.3361  1.8993
19610SOL    HW267799   3.908   7.428   6.118  0.8523  1.1145 -1.2202
19611SOL     OW67800  10.789  12.369   4.484 -0.1167 -0.1530  0.3749
19611SOL    HW167801  10.876  12.329   4.481  0.1704  0.3899  1.2940
19611SOL    HW267802  10.732  12.304   4.442  0.4598 -1.2046  1.1751
19612SOL     OW67803   2.256   0.191  10.718  0.0250  0.6917  0.0740
19612SOL    HW167804   2.344   0.187  10.680 -0.3970 -0.1707 -0.8789
19612SOL    HW267805   2.254   0.119  10.781  0.1822  1.0817  0.5317
19613SOL     OW67806  10.776   4.656   4.533 -0.4938 -0.3351 -0.1793
19613SOL    HW167807  10.854   4.603   4.548 -0.2631  0.1572  0.3761
19613SOL    HW267808  10.782   4.727   4.597 -0.9113  0.2476 -0.7761
19614SOL     OW67809   8.496   3.707  11.108 -0.1029 -0.3885  0.2337
19614SOL    HW167810   8.568   3.696  11.170 -0.8121  0.3650  1.2434
19614SOL    HW267811   8.417   3.692  11.161 -0.7335  0.3165 -0.4764
19615SOL     OW67812   7.251   4.841  11.689  0.1773  0.0776  0.2915
19615SOL    HW167813   7.234   4.761  11.638  0.7085  0.5820 -0.6909
19615SOL    HW267814   7.302   4.810  11.764 -0.2077 -0.6052  0.2884
19616SOL     OW67815   3.509   1.702   0.785 -0.1313 -0.0905  0.0266
19616SOL    HW167816   3.480   1.779   0.735  0.2651  0.1542  0.1672
19616SOL    HW267817   3.573   1.659   0.729  0.4362  0.2760  0.3820
19617SOL     OW67818   1.971  11.088  12.513  0.1705 -0.0231 -0.3291
19617SOL    HW167819   1.919  11.021  12.557 -0.6374  1.2489  0.7207
19617SOL    HW267820   1.909  11.158  12.493  1.2243  1.0048 -0.1593
19618SOL     OW67821   4.968   6.775   4.683  0.3921 -0.0923  0.0589
19618SOL    HW167822   5.047   6.793   4.632 -0.4686 -0.0531 -1.3129
19618SOL    HW267823   4.937   6.690   4.650 -0.4118  0.1311  0.2226
19619SOL     OW67824   6.716   4.358   9.766 -0.3929 -0.2400  0.2022
19619SOL    HW167825   6.672   4.405   9.696 -1.3006  1.5981  1.8776
19619SOL    HW267826   6.809   4.372   9.750 -0.6062  2.9180  0.9664
19620SOL     OW67827   0.078   8.751   1.088  0.3539  0.4377  0.4269
19620SOL    HW167828   0.151   8.811   1.105  0.7158 -0.1504  1.0150
19620SOL    HW267829   0.013   8.805   1.044  0.7391  1.2247  0.7902
19621SOL     OW67830   7.079   5.749   7.752 -0.3189  0.3276 -0.1795
19621SOL    HW167831   7.009   5.705   7.799  1.3513 -0.7596  1.4249
19621SOL    HW267832   7.036   5.790   7.677 -2.5793 -0.5894  0.5450
19622SOL     OW67833   7.944   3.463   8.031  0.6046 -0.0744 -0.0973
19622SOL    HW167834   7.950   3.447   7.937 -0.3517 -2.4910  0.1643
19622SOL    HW267835   8.028   3.435   8.066  1.7294  2.7171 -0.3744
19623SOL     OW67836   3.240   4.177   4.921 -0.0949 -0.4812  0.2459
19623SOL    HW167837   3.153   4.199   4.953 -1.0336 -0.4915 -2.1129
19623SOL    HW267838   3.269   4.255   4.873  1.6143 -0.1497  1.6734
19624SOL     OW67839  10.350   4.338   3.629 -0.0952  0.3271 -0.6334
19624SOL    HW167840  10.347   4.377   3.717  1.4052 -0.6480 -0.0926
19624SOL    HW267841  10.364   4.412   3.570 -0.2459  0.9083  0.0474
19625SOL     OW67842   9.481   1.174   3.965 -0.0609  0.3857 -0.0282
19625SOL    HW167843   9.471   1.082   3.989 -0.4353  1.0643  2.8358
19625SOL    HW267844   9.566   1.179   3.921  0.6178 -1.1522  1.0114
19626SOL     OW67845   9.900   1.817   0.292  0.0876 -0.4819 -0.0464
19626SOL    HW167846   9.890   1.836   0.198  1.4855 -0.8412 -0.3031
19626SOL    HW267847   9.986   1.852   0.313 -0.8019  0.8860  1.4742
19627SOL     OW67848  11.067   5.548   7.915  0.0658 -0.5383 -0.0512
19627SOL    HW167849  11.093   5.456   7.912 -1.3062 -0.9332 -0.5283
19627SOL    HW267850  10.977   5.549   7.882 -0.0669  0.9329  0.2762
19628SOL     OW67851   4.132  11.653   7.431 -0.0881 -0.3195 -0.4752
19628SOL    HW167852   4.144  11.559   7.422 -1.4975 -0.4696 -1.0143
19628SOL    HW267853   4.163  11.690   7.348 -1.5198 -0.5302 -1.1277
19629SOL     OW67854  11.700   8.382   9.704 -0.1733 -0.1828 -0.3764
19629SOL    HW167855  11.716   8.310   9.764 -0.5161 -0.2182 -0.3255
19629SOL    HW267856  11.604   8.386   9.696 -0.1551  0.2574 -0.3865
19630SOL     OW67857   4.149   1.442   2.416  0.3723  0.4487  0.0421
19630SOL    HW167858   4.165   1.447   2.322  0.0641 -1.2367 -0.1205
19630SOL    HW267859   4.054   1.439   2.425  0.3967  0.6428  0.4141
19631SOL     OW67860   2.302   1.551   9.152  0.2479 -0.3514 -0.1504
19631SOL    HW167861   2.289   1.468   9.107  0.7732  0.2963 -1.5284
19631SOL    HW267862   2.302   1.617   9.083  2.8553  0.5054  0.5458
19632SOL     OW67863   0.264   3.743   2.429 -0.1257 -0.0316  0.0216
19632SOL    HW167864   0.256   3.648   2.420  0.1672  0.0670 -1.6544
19632SOL    HW267865   0.177   3.773   2.455 -0.2754 -0.7344  0.3288
19633SOL     OW67866   0.546  11.539  10.698 -0.0940 -0.5218  0.0376
19633SOL    HW167867   0.599  11.510  10.624 -0.8100  1.0149 -1.1071
19633SOL    HW267868   0.461  11.497  10.685 -0.4790  0.3957 -0.4851
19634SOL     OW67869   2.060   7.580   7.349 -1.1788 -0.2204 -0.2330
19634SOL    HW167870   2.077   7.625   7.432 -2.3316 -0.6097  0.2417
19634SOL    HW267871   2.026   7.494   7.375 -2.3244 -0.0462 -1.0793
19635SOL     OW67872   6.661   6.697   8.627  0.2844 -0.3953  0.0080
19635SOL    HW167873   6.573   6.661   8.630  0.2572 -0.2884  0.6567
19635SOL    HW267874   6.699   6.676   8.712  0.3846  0.8038  0.2833
19636SOL     OW67875   0.437   3.099   1.092 -0.7885 -0.1982  0.0645
19636SOL    HW167876   0.492   3.021   1.100 -1.5086 -0.5648  1.8082
19636SOL    HW267877   0.435   3.117   0.998 -0.2333 -1.9977 -0.3251
19637SOL     OW67878   1.811   9.732  12.165  0.2631 -1.1422 -0.5183
19637SOL    HW167879   1.812   9.642  12.132  0.4907 -1.8745  1.3406
19637SOL    HW267880   1.788   9.723  12.258  1.4726  0.6003  0.0032
19638SOL     OW67881   6.784   1.126   0.178  0.4703  0.2338 -0.0069
19638SOL    HW167882   6.741   1.124   0.264  0.5191  0.4412  0.0241
19638SOL    HW267883   6.876   1.110   0.197  0.4538  0.0999 -0.0399
19639SOL     OW67884   3.761   5.432   7.595 -0.1132 -0.0980  0.7772
19639SOL    HW167885   3.671   5.457   7.574 -0.1641  0.1007  1.2087
19639SOL    HW267886   3.760   5.336   7.598 -0.3430 -0.0909  0.9126
19640SOL     OW67887   9.897   0.645   2.358  0.4295 -0.0441 -0.1304
19640SOL    HW167888   9.891   0.622   2.266 -1.2414  1.2245 -0.3875
19640SOL    HW267889   9.960   0.717   2.361  2.9083 -2.0862  0.2063
19641SOL     OW67890  11.866   3.128   9.902  1.3958  0.1139 -0.4222
19641SOL    HW167891  11.920   3.170   9.835  0.3279 -1.1300 -2.1268
19641SOL    HW267892  11.888   3.035   9.897  2.1710  0.1136  1.8372
19642SOL     OW67893   8.726   1.225   1.680  0.0676 -0.0740 -0.1172
19642SOL    HW167894   8.730   1.320   1.691 -0.3163 -0.2596  2.1077
19642SOL    HW267895   8.633   1.206   1.668  0.1947 -0.1415 -1.0451
19643SOL     OW67896   1.473   2.782   2.519  0.5010  0.3295  0.4196
19643SOL    HW167897   1.557   2.803   2.559 -0.0382  1.7801  0.8542
19643SOL    HW267898   1.471   2.834   2.438 -0.7087  1.7697  1.3230
19644SOL     OW67899  10.608  12.477   3.564 -0.0338 -0.0014 -0.2328
19644SOL    HW167900  10.651  12.441   3.486 -0.0358  0.1396 -0.2990
19644SOL    HW267901  10.528  12.425   3.573  0.8052 -1.1841  0.6756
19645SOL     OW67902  11.905  10.910   6.150  0.4600  0.0290 -0.2576
19645SOL    HW167903  11.875  10.996   6.179 -1.9652 -0.3577 -1.4294
19645SOL    HW267904  11.905  10.916   6.055  1.4195 -0.9301 -0.3292
19646SOL     OW67905   6.609   5.573   2.910 -0.3293  0.2574  0.3416
19646SOL    HW167906   6.621   5.639   2.978  1.8036 -0.5941  0.8526
19646SOL    HW267907   6.691   5.573   2.861 -1.0353 -0.6432 -0.9150
19647SOL     OW67908   5.678  10.383  11.212  0.1032  0.0596 -0.1197
19647SOL    HW167909   5.654  10.475  11.204 -0.2087 -0.0041  0.0867
19647SOL    HW267910   5.595  10.337  11.227  0.4230 -0.0658  1.4698
19648SOL     OW67911   5.232   4.615   2.410 -0.3837  0.0675  0.3899
19648SOL    HW167912   5.165   4.615   2.341  2.0930  0.7600 -2.2117
19648SOL    HW267913   5.267   4.526   2.410 -1.5041 -0.4171  2.0546
19649SOL     OW67914   8.923   2.207   8.758 -0.6833 -0.2433  0.0030
19649SOL    HW167915   8.970   2.126   8.774  0.2847 -0.0396 -1.5754
19649SOL    HW267916   8.858   2.185   8.692  0.6751  0.5515 -1.6933
19650SOL     OW67917   9.728   4.207  12.551  0.2350 -0.0744  0.6041
19650SOL    HW167918   9.786   4.259  12.608  0.1614  0.9419 -0.2155
19650SOL    HW267919   9.785   4.139  12.514  0.2349 -0.8850  2.0310
19651SOL     OW67920  12.247   2.511   9.421 -0.0803  0.2595  0.7828
19651SOL    HW167921  12.242   2.516   9.517  1.2664  2.1615  0.7978
19651SOL    HW267922  12.336   2.537   9.400 -0.6087  0.7169 -1.0505
19652SOL     OW67923   1.679  11.827   8.075  0.2959 -0.1997 -0.0831
19652SOL    HW167924   1.717  11.777   8.003  0.6276  2.0204 -1.5625
19652SOL    HW267925   1.585  11.825   8.059  0.2493 -0.8241  0.2261
19653SOL     OW67926   0.764   1.567   6.830 -0.1747 -0.2218 -0.3920
19653SOL    HW167927   0.854   1.538   6.816  0.5935  1.1256  1.3495
19653SOL    HW267928   0.713   1.486   6.834  1.1442 -1.0870 -0.2349
19654SOL     OW67929   6.311   0.366   5.586 -0.3112 -0.3792 -0.3030
19654SOL    HW167930   6.400   0.387   5.614 -0.5473  0.9545 -0.4677
19654SOL    HW267931   6.316   0.366   5.490 -0.7960  1.2631 -0.3503
19655SOL     OW67932   1.724   1.640   2.624 -0.2079  0.1101 -0.4187
19655SOL    HW167933   1.730   1.720   2.676  0.0962 -0.2357  0.0785
19655SOL    HW267934   1.801   1.642   2.567  1.5691 -1.3742  1.7955
19656SOL     OW67935  12.562   5.921   8.975  0.1928  0.4512  0.3272
19656SOL    HW167936  12.605   5.838   8.992  0.7222  0.8962  1.2352
19656SOL    HW267937  12.614   5.960   8.904 -0.6593 -0.4053 -0.8129
19657SOL     OW67938   4.424   3.727  10.160  0.1463 -0.0681 -0.0252
19657SOL    HW167939   4.394   3.687  10.242  1.0233  1.0216  0.8750
19657SOL    HW267940   4.407   3.820  10.172  0.7355  0.1630 -0.8929
19658SOL     OW67941   8.951   2.854   0.800  0.4093 -0.0577  0.1012
19658SOL    HW167942   8.935   2.834   0.708 -0.9886  1.7649 -0.1063
19658SOL    HW267943   8.900   2.789   0.849  1.4474 -1.2576 -0.3722
19659SOL     OW67944   2.164   4.918   1.365  0.0230 -0.1208  0.1815
19659SOL    HW167945   2.144   4.852   1.432 -0.8699 -2.3396 -2.0862
19659SOL    HW267946   2.250   4.893   1.332  0.2798  0.6912  0.2405
19660SOL     OW67947   3.905  10.089   3.213  0.1574  0.1552 -0.1729
19660SOL    HW167948   3.819  10.117   3.182 -0.6394 -1.1490  0.7423
19660SOL    HW267949   3.894   9.996   3.234  2.1615 -0.3994 -1.2907
19661SOL     OW67950   9.578   0.013  11.280 -0.0873 -0.4512 -0.4244
19661SOL    HW167951   9.571   0.077  11.210 -1.6260 -0.1370 -0.0199
19661SOL    HW267952   9.604   0.064  11.357 -0.0569 -0.5282 -0.3830
19662SOL     OW67953  12.021   6.729   6.491 -0.3172  0.2797 -0.1620
19662SOL    HW167954  11.957   6.672   6.449  0.2577 -0.5348  0.0554
19662SOL    HW267955  12.106   6.697   6.460  0.0417  0.6384  0.4253
19663SOL     OW67956   6.507   3.790   2.412 -0.5294 -0.1227  0.2238
19663SOL    HW167957   6.418   3.800   2.381 -1.0591  0.3621  1.7826
19663SOL    HW267958   6.537   3.708   2.374 -1.9439 -0.7257  0.3420
19664SOL     OW67959   8.406   2.663   5.903  0.4490  0.3639  0.0652
19664SOL    HW167960   8.312   2.652   5.916  0.2915  1.1924 -0.3013
19664SOL    HW267961   8.435   2.712   5.979  0.8699 -1.1554  0.9234
19665SOL     OW67962   9.989   7.663   3.502  0.0413 -0.0158 -0.2241
19665SOL    HW167963   9.918   7.713   3.543 -1.0989 -1.8563  0.1558
19665SOL    HW267964  10.068   7.696   3.545 -1.0988 -2.2537  4.1976
19666SOL     OW67965  11.937   6.181  12.197 -0.3905  0.3076  0.4094
19666SOL    HW167966  11.846   6.194  12.169 -0.5922 -1.7194 -0.0677
19666SOL    HW267967  11.967   6.106  12.145  0.6479 -0.8452  2.5523
19667SOL     OW67968   5.201   0.676   6.369 -0.2930  0.5144  0.4316
19667SOL    HW167969   5.108   0.679   6.392 -0.2698  0.9598  0.4867
19667SOL    HW267970   5.213   0.591   6.327 -0.3289 -0.3117  2.0376
19668SOL     OW67971   7.631   1.018   9.464  0.5309  0.5408  0.2754
19668SOL    HW167972   7.673   0.940   9.429  0.8386  1.4907 -1.6167
19668SOL    HW267973   7.675   1.033   9.548  1.4827 -0.4761 -0.0207
19669SOL     OW67974   7.080   2.521  10.415 -0.4592 -0.2680 -0.3756
19669SOL    HW167975   7.165   2.486  10.441 -0.3856  0.3966  0.3281
19669SOL    HW267976   7.020   2.495  10.485 -0.9062 -0.9939 -1.0206
19670SOL     OW67977  12.129   1.732   4.356 -0.3411 -0.3064 -0.9296
19670SOL    HW167978  12.197   1.692   4.410 -0.2103 -0.2671 -1.0626
19670SOL    HW267979  12.167   1.734   4.268 -0.7790 -0.9076 -1.1392
19671SOL     OW67980   8.059   3.402   4.287 -0.6473  0.8151  0.0233
19671SOL    HW167981   8.118   3.374   4.217  0.2848  0.1459  1.0319
19671SOL    HW267982   8.116   3.446   4.350 -1.5310  1.7739  0.1841
19672SOL     OW67983   5.904   6.450   2.498  0.4286  0.2999 -0.3146
19672SOL    HW167984   5.865   6.465   2.584 -0.8607 -0.0621 -0.8123
19672SOL    HW267985   5.835   6.407   2.448  2.2616 -2.7877 -0.4827
19673SOL     OW67986  10.445  10.473   4.011 -0.4735 -0.1508 -0.3806
19673SOL    HW167987  10.407  10.560   4.022 -0.4094 -0.1383 -0.2640
19673SOL    HW267988  10.429  10.428   4.094  0.3537  0.0769 -0.0914
19674SOL     OW67989  10.413   2.335   4.276  0.0417 -0.8151 -0.4117
19674SOL    HW167990  10.454   2.368   4.195 -0.5138 -0.1144 -0.4153
19674SOL    HW267991  10.397   2.242   4.259 -2.2810 -0.1995 -2.0641
19675SOL     OW67992  12.498   8.236   5.897  0.3202 -0.5777  0.3786
19675SOL    HW167993  12.577   8.203   5.940 -0.1980  0.1350  1.9529
19675SOL    HW267994  12.486   8.323   5.933 -1.2162 -0.6923  0.2107
19676SOL     OW67995   3.119  10.919  11.589 -0.9768  0.0339  0.0562
19676SOL    HW167996   3.085  11.002  11.555  1.0136  0.5691 -0.7687
19676SOL    HW267997   3.050  10.887  11.647 -1.9646  2.0632  0.0875
19677SOL     OW67998  11.801   2.313   8.519  0.1575  0.5366 -0.2888
19677SOL    HW167999  11.824   2.392   8.569 -1.2196 -0.0495  1.3783
19677SOL    HW268000  11.706   2.309   8.524  0.2687 -2.1490  1.1968
19678SOL     OW68001   6.442   1.870   4.874  0.0559  0.3163 -0.3981
19678SOL    HW168002   6.536   1.852   4.867 -0.3539 -1.8685 -1.0221
19678SOL    HW268003   6.413   1.876   4.783 -1.0136 -3.0902 -0.4431
19679SOL     OW68004   0.596   5.542   1.959 -0.3806  0.2988  0.3045
19679SOL    HW168005   0.605   5.480   1.887 -1.7729 -0.4660  0.7678
19679SOL    HW268006   0.598   5.488   2.038 -0.5444  0.9555  0.7670
19680SOL     OW68007   6.944   1.280  11.325  0.2038 -0.9662 -0.1547
19680SOL    HW168008   6.916   1.268  11.415 -1.5607  0.1286 -0.5125
19680SOL    HW268009   7.030   1.323  11.332 -0.2454 -0.2018  1.0104
19681SOL     OW68010   4.970   9.487   7.362 -0.0488  0.9816  0.4324
19681SOL    HW168011   5.045   9.497   7.420 -0.2040 -0.5004  0.9328
19681SOL    HW268012   4.983   9.402   7.319 -1.9906  0.1114  1.4361
19682SOL     OW68013  11.919   7.796   1.480  0.0220  0.2517  0.2570
19682SOL    HW168014  11.911   7.890   1.491 -1.4642 -0.0474  2.2051
19682SOL    HW268015  11.838   7.760   1.516  1.6081 -1.9347  1.9524
19683SOL     OW68016   0.337   7.730  10.047 -0.2252 -0.2089  0.5484
19683SOL    HW168017   0.315   7.716   9.955  2.8012  0.3582 -0.3616
19683SOL    HW268018   0.386   7.653  10.073  1.1993  0.7492  0.8400
19684SOL     OW68019  11.207   3.090   0.424  0.8651  0.0299 -0.4295
19684SOL    HW168020  11.243   3.051   0.344  2.3276 -0.6670  0.5267
19684SOL    HW268021  11.220   3.184   0.413 -0.4718  0.1150 -1.7016
19685SOL     OW68022   0.253   6.450   5.925 -0.0402 -0.3982 -0.1588
19685SOL    HW168023   0.186   6.394   5.886 -2.4850  2.8477 -1.0597
19685SOL    HW268024   0.230   6.454   6.018 -0.5445 -0.0595 -0.2928
19686SOL     OW68025   3.502   6.164   2.905 -0.0589  0.3240 -0.1814
19686SOL    HW168026   3.534   6.248   2.938 -2.4748  0.0487  3.3489
19686SOL    HW268027   3.548   6.099   2.959 -1.9586 -0.2977  0.7681
19687SOL     OW68028  10.157   5.405   2.101 -0.0430  0.7729 -0.2154
19687SOL    HW168029  10.217   5.337   2.133 -0.6870  0.7236  0.9315
19687SOL    HW268030  10.077   5.392   2.151 -1.1327  0.6967 -1.8764
19688SOL     OW68031   4.775  10.592   5.586  0.8073  0.1108  0.6930
19688SOL    HW168032   4.796  10.551   5.502 -1.5421  0.6451 -0.2220
19688SOL    HW268033   4.741  10.520   5.639 -0.7233  0.3212  0.0390
19689SOL     OW68034   9.016  11.733   9.043  0.2293 -0.1630 -0.2018
19689SOL    HW168035   9.020  11.762   9.134 -0.3713 -2.1472  0.5168
19689SOL    HW268036   9.092  11.676   9.032 -0.2517 -0.7376 -0.6197
19690SOL     OW68037   5.385   5.062   1.860  0.1470  0.3310 -0.0792
19690SOL    HW168038   5.330   5.113   1.800 -0.6652 -1.1821 -0.6610
19690SOL    HW268039   5.457   5.030   1.805 -0.1698 -0.4010 -0.0706
19691SOL     OW68040   6.476   3.377   2.863 -0.2480  0.1438 -0.1319
19691SOL    HW168041   6.427   3.386   2.944  0.9501  1.2438  0.5169
19691SOL    HW268042   6.551   3.437   2.873  0.3835 -0.3142 -1.6980
19692SOL     OW68043   2.961   0.147  12.335  0.3217  0.0782  0.5998
19692SOL    HW168044   2.883   0.152  12.280  1.1046  3.1608 -0.4519
19692SOL    HW268045   3.033   0.176  12.278  1.4249  2.0001  2.7741
19693SOL     OW68046  11.563   5.270   4.469  0.9002  0.3624  0.2916
19693SOL    HW168047  11.554   5.233   4.380 -0.2187 -0.1484  0.5991
19693SOL    HW268048  11.552   5.195   4.527  0.8899  0.8151  0.8822
19694SOL     OW68049  10.387  10.960   9.500 -0.5746 -0.3659 -0.2088
19694SOL    HW168050  10.370  10.991   9.412  0.2468  0.0142 -0.2445
19694SOL    HW268051  10.482  10.964   9.509 -0.3948 -2.8388 -0.2122
19695SOL     OW68052   4.498   5.004   2.666 -0.4377 -0.2991 -0.1357
19695SOL    HW168053   4.422   5.049   2.631  0.8430  1.2979 -1.0225
19695SOL    HW268054   4.547   4.975   2.589  0.4956 -0.1307  0.3717
19696SOL     OW68055   2.084  11.088   2.785  0.4071  0.4689  0.3247
19696SOL    HW168056   2.019  11.144   2.827  1.4183  0.1107  2.5241
19696SOL    HW268057   2.160  11.144   2.772  0.8779  0.0247  1.0836
19697SOL     OW68058  11.739   8.225   3.589  0.1492  0.2460 -0.3046
19697SOL    HW168059  11.722   8.162   3.520 -1.8847 -0.2406  0.5519
19697SOL    HW268060  11.827   8.206   3.619 -0.1391 -1.7031 -0.5790
19698SOL     OW68061   9.912   7.051   6.054 -0.8199  0.3313  0.4453
19698SOL    HW168062   9.824   7.082   6.076 -0.2278  0.9637  2.0936
19698SOL    HW268063   9.947   7.018   6.137  0.1057 -0.9395 -0.4126
19699SOL     OW68064  11.729   0.315  10.911  0.3652 -0.1648 -0.3585
19699SOL    HW168065  11.705   0.273  10.994  0.8322 -0.2246 -0.2531
19699SOL    HW268066  11.758   0.243  10.856  0.0741 -0.1220 -0.5693
19700SOL     OW68067   0.873   2.966   8.360  0.1305  0.4019  0.3297
19700SOL    HW168068   0.957   2.956   8.315 -0.4877 -0.8529 -0.6024
19700SOL    HW268069   0.891   2.943   8.451  0.4989 -1.5248 -0.1785
19701SOL     OW68070   0.549   0.617   7.627 -0.7376 -0.3706 -0.3322
19701SOL    HW168071   0.562   0.534   7.582 -0.0408 -0.4783  0.0547
19701SOL    HW268072   0.496   0.594   7.704 -2.2036 -0.1364 -1.2288
19702SOL     OW68073   7.826   5.901   4.757 -0.1622 -0.2071 -0.8653
19702SOL    HW168074   7.753   5.912   4.697 -0.0540 -0.6084 -1.0672
19702SOL    HW268075   7.882   5.835   4.717 -0.0859 -0.4752 -0.3335
19703SOL     OW68076   0.576   6.987   5.375  0.4918 -0.1566  0.1606
19703SOL    HW168077   0.541   7.064   5.329  2.8665  0.4329 -0.8329
19703SOL    HW268078   0.589   6.922   5.306 -3.0299 -2.2134  1.2030
19704SOL     OW68079   3.037   1.790   5.198 -0.6955 -0.1475  0.2947
19704SOL    HW168080   2.966   1.739   5.157 -1.7384  0.5629  1.1701
19704SOL    HW268081   3.000   1.820   5.281  1.1137 -0.9048  1.4322
19705SOL     OW68082   7.731   8.945   3.398  0.8252 -0.2335 -0.2212
19705SOL    HW168083   7.756   8.856   3.422  1.8396  0.0268 -0.2508
19705SOL    HW268084   7.690   8.936   3.312  0.2881 -0.7518  0.0848
19706SOL     OW68085   6.060   1.553   0.858 -0.5527  0.2598 -0.8061
19706SOL    HW168086   5.970   1.584   0.863 -0.9943 -0.9832 -0.6065
19706SOL    HW268087   6.104   1.592   0.933 -0.9265  0.8611 -0.8986
19707SOL     OW68088   6.431   8.584   3.450 -0.4732  0.1561  0.4471
19707SOL    HW168089   6.461   8.604   3.538 -0.1786  0.4810  0.2745
19707SOL    HW268090   6.502   8.533   3.412 -0.9168 -0.6140  0.6456
19708SOL     OW68091  10.291   3.680  10.086 -0.3652  0.1188 -0.1484
19708SOL    HW168092  10.311   3.737  10.012 -2.4611  0.1521 -0.7294
19708SOL    HW268093  10.218   3.626  10.057 -1.4632  0.3487  1.9791
19709SOL     OW68094   6.758   8.322   8.389  0.3659  0.1010 -0.3028
19709SOL    HW168095   6.694   8.304   8.458  1.9593 -2.3822  0.6464
19709SOL    HW268096   6.778   8.237   8.351  1.2220  1.1341 -2.3366
19710SOL     OW68097   2.850   2.135   4.390  0.4467  0.3767  0.3621
19710SOL    HW168098   2.823   2.205   4.449  0.4329  0.3438  0.3947
19710SOL    HW268099   2.865   2.059   4.447  1.0235  0.5116  0.4038
19711SOL     OW68100   3.716   4.379  12.565 -0.0670 -0.0703 -0.3188
19711SOL    HW168101   3.649   4.340  12.509 -0.1121 -2.2750  1.1450
19711SOL    HW268102   3.711   4.329  12.647  1.0818  1.9606  1.0815
19712SOL     OW68103   1.293  11.591   3.606  0.7291 -0.2370 -0.3649
19712SOL    HW168104   1.229  11.521   3.618  0.1387  0.4565  0.7145
19712SOL    HW268105   1.375  11.555   3.639  0.2912 -0.2298  0.8000
19713SOL     OW68106   5.955  11.846  11.282 -0.1294  0.1720  0.2026
19713SOL    HW168107   6.022  11.809  11.224 -0.3597  1.8184 -1.2079
19713SOL    HW268108   5.894  11.890  11.223 -0.7453  1.3685  1.6698
19714SOL     OW68109   6.459  10.837   7.813 -0.2453 -0.5221 -0.4943
19714SOL    HW168110   6.424  10.902   7.751 -0.7234 -1.0853 -0.8174
19714SOL    HW268111   6.390  10.772   7.821 -0.6441  0.0579  1.4461
19715SOL     OW68112  10.194  10.989   4.851 -0.3370 -0.1386 -0.0795
19715SOL    HW168113  10.283  10.956   4.860 -0.3494 -0.5662 -1.3400
19715SOL    HW268114  10.173  11.024   4.938  0.3444 -1.7678  0.8075
19716SOL     OW68115   9.899   9.523   8.541  0.1489  0.0590  0.8841
19716SOL    HW168116   9.860   9.597   8.587  1.2859  1.0905  0.2705
19716SOL    HW268117   9.834   9.454   8.546 -0.5032  0.7541  2.4076
19717SOL     OW68118   8.887   0.223   4.931  0.5296  0.0915  0.2840
19717SOL    HW168119   8.856   0.294   4.875  0.7146 -0.1267 -0.0935
19717SOL    HW268120   8.869   0.253   5.020  0.9835  0.7894  0.1434
19718SOL     OW68121   8.609   5.540   8.069 -0.4660  0.3868 -0.1291
19718SOL    HW168122   8.585   5.513   8.158 -0.6637  2.4616  0.4939
19718SOL    HW268123   8.648   5.462   8.030 -2.6802 -1.3330  0.8769
19719SOL     OW68124   1.937   3.135   8.580 -0.6278 -0.2763 -0.8658
19719SOL    HW168125   2.003   3.205   8.576 -1.2986  0.3370 -1.3170
19719SOL    HW268126   1.928   3.106   8.490 -1.8396  0.4581 -0.9938
19720SOL     OW68127   5.922   3.988   6.402  0.0608  0.2284  0.0604
19720SOL    HW168128   5.975   3.912   6.427  1.1935  1.3601  1.2294
19720SOL    HW268129   5.927   3.990   6.306 -2.3115 -2.7550 -0.3112
19721SOL     OW68130   6.263   5.411  11.118  0.0843 -0.0824 -0.4150
19721SOL    HW168131   6.336   5.469  11.096  0.8200  0.3504  2.6200
19721SOL    HW268132   6.186   5.467  11.112  0.6404  0.9526  1.1917
19722SOL     OW68133   3.909   2.096   9.255 -0.1007 -0.0050  0.1649
19722SOL    HW168134   3.947   2.064   9.336  0.8352  0.7908  0.0625
19722SOL    HW268135   3.911   2.192   9.263 -0.5569  0.0720 -0.5310
19723SOL     OW68136   7.236   1.483   2.189  0.3894  0.0508  0.0384
19723SOL    HW168137   7.297   1.535   2.137  1.1796 -2.0856 -1.3442
19723SOL    HW268138   7.188   1.547   2.242  0.5722  2.2404 -2.2460
19724SOL     OW68139   9.922   6.184   1.807 -0.0410 -0.1765 -0.7996
19724SOL    HW168140   9.917   6.212   1.716 -1.2505 -2.2087 -1.4165
19724SOL    HW268141   9.846   6.224   1.849 -0.7633 -1.0404 -1.2512
19725SOL     OW68142  10.641  12.172   8.460  0.7070  0.4667  0.6396
19725SOL    HW168143  10.601  12.214   8.384  2.8850  1.6585  0.0731
19725SOL    HW268144  10.647  12.079   8.437  0.4641  0.6625 -0.2303
19726SOL     OW68145   0.028  11.134   7.012 -0.1373 -0.1719 -0.0220
19726SOL    HW168146   0.068  11.208   6.965  1.2400 -1.0036 -0.1994
19726SOL    HW268147  -0.049  11.112   6.959 -1.2634  1.8343  0.6430
19727SOL     OW68148   5.776   5.149  12.165  0.1039  0.1778 -0.4751
19727SOL    HW168149   5.797   5.234  12.126  2.5506  0.3364  0.9944
19727SOL    HW268150   5.854   5.096  12.151 -1.8045 -2.3281 -2.4379
19728SOL     OW68151   9.837  10.603   6.926  0.2100  0.2776 -0.3089
19728SOL    HW168152   9.750  10.601   6.964  0.4120 -0.6853  0.1364
19728SOL    HW268153   9.827  10.653   6.845 -0.3618  1.7824  0.6610
19729SOL     OW68154   1.792  12.544  11.870  0.3661  0.0888  0.1280
19729SOL    HW168155   1.773  12.450  11.869  0.7706  0.0081 -0.5807
19729SOL    HW268156   1.885  12.550  11.846  0.3513  0.6692  0.1992
19730SOL     OW68157   3.177   1.727   4.612  0.0920 -0.4079 -0.0641
19730SOL    HW168158   3.260   1.756   4.651  0.9859  0.6883 -2.5449
19730SOL    HW268159   3.111   1.745   4.679  1.6062  0.5800  1.2291
19731SOL     OW68160   8.979  12.370   2.069  0.1801 -0.1734  0.3791
19731SOL    HW168161   9.023  12.452   2.049 -0.7099  0.4462  0.8936
19731SOL    HW268162   9.050  12.307   2.081  0.8491  0.2442 -1.1103
19732SOL     OW68163   8.768   3.872   8.104 -0.1882 -0.2683  0.6239
19732SOL    HW168164   8.844   3.928   8.119  0.3286 -0.3917 -1.2426
19732SOL    HW268165   8.693   3.930   8.109  0.3315  0.6279 -1.2020
19733SOL     OW68166   0.965   2.952  12.038  0.2969 -0.7610 -0.4401
19733SOL    HW168167   0.972   2.918  11.949  0.5594 -3.0411  0.3866
19733SOL    HW268168   0.873   2.942  12.060 -0.5059  2.8698 -1.4956
19734SOL     OW68169   7.238  10.267   6.275  0.3221 -0.0583 -0.5282
19734SOL    HW168170   7.245  10.235   6.365 -1.9830 -2.1118 -0.9591
19734SOL    HW268171   7.318  10.237   6.232 -0.3662 -2.7330 -0.1124
19735SOL     OW68172   5.679   7.350   8.987  0.3344  0.0933 -0.2062
19735SOL    HW168173   5.768   7.378   8.964  0.7082  2.8268  3.5126
19735SOL    HW268174   5.627   7.430   8.984 -0.9760 -0.6121  1.6225
19736SOL     OW68175  11.999   2.526  11.808  0.0877 -0.5772  0.5359
19736SOL    HW168176  12.094   2.513  11.817  0.3827  0.3809 -0.8699
19736SOL    HW268177  11.987   2.557  11.718 -1.2263  2.1029  1.5136
19737SOL     OW68178   3.741   1.367   6.564 -0.0443 -0.0224 -0.3656
19737SOL    HW168179   3.648   1.361   6.585  0.1418 -1.2343  0.2291
19737SOL    HW268180   3.768   1.452   6.597 -1.0191  0.5069 -0.8850
19738SOL     OW68181   5.978  11.867   9.050  0.1342 -0.4243 -0.6062
19738SOL    HW168182   6.063  11.828   9.070 -0.1699 -1.6042 -1.5289
19738SOL    HW268183   5.984  11.894   8.959 -0.8375 -1.5725 -1.0388
19739SOL     OW68184   7.050   1.769  10.926 -0.0798 -0.2717  0.1902
19739SOL    HW168185   7.010   1.856  10.931  1.8787  0.6607  0.8936
19739SOL    HW268186   7.058   1.741  11.018  1.0769 -0.2995  0.0994
19740SOL     OW68187   0.595   9.777   5.530  0.2625  0.4187 -0.2709
19740SOL    HW168188   0.648   9.703   5.559 -0.7905 -0.0900  0.4187
19740SOL    HW268189   0.521   9.737   5.484 -0.8287  0.9774  0.9473
19741SOL     OW68190   0.427   0.942  10.015  0.0976  0.1203 -0.3905
19741SOL    HW168191   0.471   0.917  10.096  0.0960  1.6806  0.1229
19741SOL    HW268192   0.465   1.027   9.992 -2.3699  1.3925 -0.1001
19742SOL     OW68193   5.475  10.169   9.568  0.1971 -0.0436  0.8471
19742SOL    HW168194   5.435  10.256   9.572  0.2071 -0.0672  1.6071
19742SOL    HW268195   5.552  10.181   9.513 -1.1691 -0.1388 -1.2040
19743SOL     OW68196   1.163   7.008   6.844 -0.1659 -0.3116  0.2250
19743SOL    HW168197   1.090   7.064   6.869 -0.5071 -1.2320  1.4261
19743SOL    HW268198   1.133   6.919   6.866  2.3225 -0.5311  3.5622
19744SOL     OW68199   4.424   4.434   9.231 -1.0873  0.7031 -0.0754
19744SOL    HW168200   4.488   4.433   9.303 -0.0239  1.2142 -0.9825
19744SOL    HW268201   4.341   4.456   9.273 -0.5999  0.4186  1.0757
19745SOL     OW68202   2.149   6.343   5.470 -0.1352  0.0737  0.3960
19745SOL    HW168203   2.165   6.249   5.457 -0.1223  0.0391  0.6500
19745SOL    HW268204   2.184   6.361   5.557  0.1963  0.3933  0.2007
19746SOL     OW68205   1.759  12.448   9.312  0.0952  0.7356 -0.2915
19746SOL    HW168206   1.740  12.355   9.323  0.2524  0.7466  0.0844
19746SOL    HW268207   1.703  12.492   9.376 -1.3040  1.0382 -1.6744
19747SOL     OW68208  11.031   9.893   1.621 -0.2540  0.0044 -0.3846
19747SOL    HW168209  11.078   9.900   1.538 -0.8651  0.9808 -0.6540
19747SOL    HW268210  10.961   9.829   1.604 -1.1307  1.0994 -0.9913
19748SOL     OW68211  12.476  10.437   4.453 -0.2172  0.1623 -0.5996
19748SOL    HW168212  12.416  10.507   4.427 -1.8159 -0.0088  2.2383
19748SOL    HW268213  12.523  10.473   4.529  2.4170 -0.1914 -1.9535
19749SOL     OW68214   7.686   8.024  12.227 -0.5486 -0.1569  0.2013
19749SOL    HW168215   7.776   7.993  12.241 -0.8312 -1.1477 -0.0465
19749SOL    HW268216   7.669   8.084  12.299  0.7452  1.0594 -0.4465
19750SOL     OW68217   1.883  12.355   0.885  0.0160  0.3927  0.3406
19750SOL    HW168218   1.892  12.450   0.890 -0.0876  0.4049  0.3089
19750SOL    HW268219   1.826  12.341   0.809  0.1800  0.2960  0.2348
19751SOL     OW68220   6.511   7.494   5.031  0.2805 -0.1384 -0.8622
19751SOL    HW168221   6.446   7.563   5.020 -0.5280 -0.9013 -0.9348
19751SOL    HW268222   6.581   7.518   4.970  0.0406  0.6430 -0.8445
19752SOL     OW68223   0.972   3.708   7.999 -0.0161 -0.9637  0.3951
19752SOL    HW168224   0.926   3.675   8.076 -0.7346 -0.1123  0.3497
19752SOL    HW268225   0.942   3.652   7.927 -0.0590 -1.1733  0.5751
19753SOL     OW68226  11.435   0.864  12.280  0.5397 -0.4216 -0.3863
19753SOL    HW168227  11.356   0.810  12.279  0.3542 -0.2066 -2.2670
19753SOL    HW268228  11.507   0.801  12.286  0.2730 -0.5987  1.7644
19754SOL     OW68229   9.163  12.153  11.733  0.3055  0.0764  0.3355
19754SOL    HW168230   9.227  12.125  11.798 -0.2711 -0.4615  0.6844
19754SOL    HW268231   9.143  12.244  11.756  1.1953  0.3622  0.0075
19755SOL     OW68232   2.838   3.386   0.312  0.9077 -0.0189 -0.3940
19755SOL    HW168233   2.755   3.432   0.306  2.2741  2.4498 -1.9094
19755SOL    HW268234   2.835   3.321   0.242  0.3760  0.2813 -0.6532
19756SOL     OW68235   6.944  10.606   5.260  0.1143  0.2115  0.3369
19756SOL    HW168236   6.979  10.519   5.278  1.9046  0.6878 -0.6062
19756SOL    HW268237   6.890  10.627   5.337 -0.3752 -1.7104  0.5597
19757SOL     OW68238   2.460  10.908  10.564 -0.3532  0.1534  0.3504
19757SOL    HW168239   2.392  10.841  10.555  1.3700 -1.4522 -1.6634
19757SOL    HW268240   2.539  10.859  10.587  1.1714  1.2945 -2.0553
19758SOL     OW68241   5.122   6.921  10.499 -0.1224 -0.1314  0.0882
19758SOL    HW168242   5.194   6.982  10.517  1.3809 -0.8423 -2.8848
19758SOL    HW268243   5.162   6.834  10.511 -1.5067 -0.6125  1.6843
19759SOL     OW68244   9.841  11.276  11.214 -0.0841  0.0692  0.4919
19759SOL    HW168245   9.843  11.274  11.310  2.1535 -0.0143  0.4841
19759SOL    HW268246   9.759  11.321  11.193  0.0126  1.2852  2.4606
19760SOL     OW68247  11.235  10.494   1.312  0.6569 -0.3429 -0.1946
19760SOL    HW168248  11.221  10.460   1.224  2.3155  0.3522 -0.7709
19760SOL    HW268249  11.182  10.573   1.317  0.9887 -0.0739 -0.7919
19761SOL     OW68250   2.799   5.497   1.248 -0.5199  0.2510  0.3798
19761SOL    HW168251   2.779   5.518   1.339 -1.6575  0.0982  0.1805
19761SOL    HW268252   2.888   5.529   1.235  0.1821 -0.9338  1.9229
19762SOL     OW68253   6.282   1.220  10.870 -0.2918 -0.1171 -0.4603
19762SOL    HW168254   6.337   1.150  10.903 -1.6243 -1.1994 -0.4622
19762SOL    HW268255   6.224   1.242  10.942  0.4371  1.3663 -0.2886
19763SOL     OW68256   2.248  10.911  11.825 -0.0490  0.3785  0.0866
19763SOL    HW168257   2.270  10.833  11.877  2.2001  0.0610 -1.2396
19763SOL    HW268258   2.159  10.893  11.793 -0.6473 -0.3726  1.9813
19764SOL     OW68259   0.165  11.196   4.133 -0.0267 -0.3550 -0.3117
19764SOL    HW168260   0.113  11.122   4.104  1.4111 -1.9181  0.8956
19764SOL    HW268261   0.168  11.255   4.057 -2.8880 -0.4956 -0.6456
19765SOL     OW68262  10.466   1.995   2.167  0.2201 -0.1032 -0.1314
19765SOL    HW168263  10.458   2.062   2.099 -0.2876  0.1981  0.2176
19765SOL    HW268264  10.393   2.012   2.226  1.1606  0.2095  0.9825
19766SOL     OW68265   0.962   7.293  10.160 -0.2126  0.2881 -0.5247
19766SOL    HW168266   0.879   7.319  10.198 -0.2345 -0.2313 -0.2014
19766SOL    HW268267   0.948   7.297  10.065 -1.3577 -1.9601 -0.5313
19767SOL     OW68268   8.713   0.724   3.379 -1.0654  0.2962  0.1962
19767SOL    HW168269   8.740   0.646   3.330  0.2840  0.5445  0.5125
19767SOL    HW268270   8.762   0.719   3.461 -0.2806  1.9065 -0.1335
19768SOL     OW68271   2.849   9.717   1.075  0.0061  0.3990 -0.2534
19768SOL    HW168272   2.835   9.622   1.078  2.9409 -0.1130  0.6231
19768SOL    HW268273   2.813   9.749   1.158  1.8223 -0.4993  0.9506
19769SOL     OW68274   3.778   6.890   5.683  0.1793  0.2592 -0.9360
19769SOL    HW168275   3.851   6.946   5.656  0.7227 -0.3215 -0.7017
19769SOL    HW268276   3.723   6.883   5.605 -0.2555  1.6550 -0.7800
19770SOL     OW68277   3.480   0.619   3.039  0.4401  0.4363 -0.2240
19770SOL    HW168278   3.464   0.701   2.992 -0.4559 -0.2363 -1.1377
19770SOL    HW268279   3.396   0.573   3.035  0.8731 -0.4340  0.4717
19771SOL     OW68280   5.915   9.829   2.322  0.1738 -0.0014  0.6405
19771SOL    HW168281   5.909   9.737   2.345 -0.6553  0.1040  0.9010
19771SOL    HW268282   5.830   9.866   2.348  0.1068  0.6219 -0.3814
19772SOL     OW68283   4.805  11.580   3.731  0.0488  0.5719 -0.6686
19772SOL    HW168284   4.865  11.547   3.798  0.8203 -0.0376 -1.6344
19772SOL    HW268285   4.844  11.664   3.704 -0.6062  1.1331  0.0715
19773SOL     OW68286   8.484   8.822   5.795  0.0374  0.9120  1.0138
19773SOL    HW168287   8.459   8.777   5.876  0.9110 -0.0049  0.8014
19773SOL    HW268288   8.576   8.844   5.807  0.4898 -0.2041 -0.1286
19774SOL     OW68289   5.118   4.443   9.624 -0.6163 -0.2032  0.1009
19774SOL    HW168290   5.047   4.385   9.651 -0.5703 -0.1822  0.2718
19774SOL    HW268291   5.133   4.422   9.532 -0.9427 -0.1067  0.0220
19775SOL     OW68292   8.703   8.889   5.506  0.2650 -0.6427 -0.4411
19775SOL    HW168293   8.703   8.795   5.523 -0.4061 -0.9899 -2.1888
19775SOL    HW268294   8.781   8.904   5.454  1.8408  0.2685  1.9814
19776SOL     OW68295   9.598   0.047   7.915 -0.1594  0.1529 -0.3682
19776SOL    HW168296   9.536   0.097   7.862 -1.0261  0.9394  1.2958
19776SOL    HW268297   9.556   0.041   8.001  0.3046 -2.7442 -0.2570
19777SOL     OW68298  11.218   6.597   4.324  0.4981  0.4993  0.0834
19777SOL    HW168299  11.226   6.631   4.414  1.8461  0.7257 -0.0970
19777SOL    HW268300  11.251   6.507   4.330  0.9085  0.6243 -0.2369
19778SOL     OW68301   3.989   2.246   6.913 -0.6420 -0.5361  0.0019
19778SOL    HW168302   3.997   2.161   6.871 -0.9132 -0.1078 -0.9300
19778SOL    HW268303   3.914   2.287   6.871 -1.3298 -0.3462  1.3568
19779SOL     OW68304   5.608   1.016  10.607  0.1607  0.0353 -0.4442
19779SOL    HW168305   5.694   0.979  10.625 -0.1410 -0.0220  1.0633
19779SOL    HW268306   5.624   1.110  10.595  0.5405 -0.1155 -1.1514
19780SOL     OW68307   2.676   9.261   6.925 -0.3443 -0.1464  0.0705
19780SOL    HW168308   2.715   9.257   6.838 -0.6651 -0.4417 -0.0608
19780SOL    HW268309   2.583   9.244   6.911 -0.5441  0.6679  0.3723
19781SOL     OW68310  10.825   8.737   3.283 -0.0628 -0.1786  0.5429
19781SOL    HW168311  10.765   8.811   3.294 -0.0550 -0.0337 -0.3486
19781SOL    HW268312  10.782   8.665   3.330 -1.2422 -0.2299 -0.5497
19782SOL     OW68313   8.480  11.232   8.410 -0.6180  0.1407 -0.0371
19782SOL    HW168314   8.467  11.226   8.504 -1.9301 -1.4716 -0.2815
19782SOL    HW268315   8.451  11.148   8.376  1.4613  0.0107 -1.7288
19783SOL     OW68316  11.877  12.218   7.434  0.1093 -0.3054 -0.1895
19783SOL    HW168317  11.923  12.145   7.477 -0.5620 -1.0385 -0.7043
19783SOL    HW268318  11.861  12.187   7.345 -1.1494  0.0376 -0.0960
19784SOL     OW68319   9.956  10.059   9.744  0.2333  0.1996 -0.2706
19784SOL    HW168320   9.939  10.120   9.816 -1.0464  0.8063 -1.0361
19784SOL    HW268321   9.947  10.112   9.665 -2.0503 -1.1523 -1.0264
19785SOL     OW68322   1.342   0.883   7.923  0.3686 -0.0687  0.6437
19785SOL    HW168323   1.385   0.900   8.007  0.0035 -0.2607  0.8695
19785SOL    HW268324   1.295   0.800   7.936  1.7831 -1.0777 -0.3033
19786SOL     OW68325  10.231   4.528   9.531 -0.6527  0.2822  0.1661
19786SOL    HW168326  10.204   4.473   9.604 -1.4995 -0.3903 -0.6295
19786SOL    HW268327  10.312   4.488   9.500 -0.6483  0.1718  0.3169
19787SOL     OW68328  11.514   2.857  11.299  0.0029 -0.4450 -0.6751
19787SOL    HW168329  11.470   2.939  11.279 -0.4680 -0.7386 -0.8536
19787SOL    HW268330  11.468   2.791  11.247 -0.2433 -0.9737  0.1892
19788SOL     OW68331   7.567   8.949  10.114 -0.2622  0.0809 -0.2678
19788SOL    HW168332   7.491   9.006  10.127 -0.6111  0.1838 -2.4004
19788SOL    HW268333   7.641   9.009  10.107 -0.1536  0.0549  0.5278
19789SOL     OW68334  12.505   5.629   8.569 -0.0638  0.0660 -0.0723
19789SOL    HW168335  12.428   5.685   8.557 -1.0655 -0.6155  2.4833
19789SOL    HW268336  12.484   5.548   8.521 -0.1681  0.5125 -0.7965
19790SOL     OW68337   9.967   3.567   5.000  0.6544 -0.1997 -0.0742
19790SOL    HW168338   9.976   3.472   5.011  0.7620  0.0498  2.6096
19790SOL    HW268339  10.016   3.586   4.920  1.6288 -2.2623 -0.0444
19791SOL     OW68340   4.488   1.402   5.770 -0.0254  0.1505 -0.6300
19791SOL    HW168341   4.467   1.483   5.723  0.0363  0.0768 -0.7850
19791SOL    HW268342   4.414   1.344   5.754 -1.8091  1.3549  2.3246
19792SOL     OW68343   6.706   9.461   0.695  0.5659  0.8605 -0.3131
19792SOL    HW168344   6.640   9.398   0.665  0.6507  1.1880 -1.2385
19792SOL    HW268345   6.656   9.538   0.722  0.5574  1.1074 -1.0114
19793SOL     OW68346   9.441   2.629   0.952  0.0752 -0.8169 -0.4208
19793SOL    HW168347   9.496   2.693   0.998 -0.1720 -0.4114 -0.6961
19793SOL    HW268348   9.425   2.667   0.866 -1.1948 -0.6213 -0.1179
19794SOL     OW68349   2.712   9.617   6.099 -0.8632  0.0997  0.5640
19794SOL    HW168350   2.662   9.698   6.094 -0.2847  0.4172 -0.3122
19794SOL    HW268351   2.661   9.554   6.047 -0.1084  0.5647 -0.7708
19795SOL     OW68352  10.293   0.574   1.102 -0.5545 -0.2107  0.2989
19795SOL    HW168353  10.303   0.611   1.189  1.0994  0.9690 -0.3458
19795SOL    HW268354  10.358   0.504   1.098  1.2197  1.3880 -0.7717
19796SOL     OW68355   3.728   5.426   2.595  0.3524 -0.5914 -0.0722
19796SOL    HW168356   3.644   5.467   2.616  0.5650 -0.4996  0.6200
19796SOL    HW268357   3.736   5.354   2.657  0.3882 -1.1405 -0.7124
19797SOL     OW68358  10.474   1.661   2.469 -0.3345  0.1598  0.2402
19797SOL    HW168359  10.495   1.689   2.558 -0.1330 -1.3179  0.6897
19797SOL    HW268360  10.529   1.715   2.413  1.2048 -0.3759  1.1521
19798SOL     OW68361   4.877   1.486   8.679  0.2436 -0.1137  0.3677
19798SOL    HW168362   4.895   1.401   8.639 -0.5687  0.0938 -0.4516
19798SOL    HW268363   4.837   1.464   8.764  1.3992 -0.5467  0.8213
19799SOL     OW68364   6.683  11.201   9.977  0.0520 -0.7680  0.3221
19799SOL    HW168365   6.722  11.143  10.043 -0.0452 -2.7668 -1.2828
19799SOL    HW268366   6.592  11.211  10.006  0.1263 -1.2446  0.7407
19800SOL     OW68367   9.502  10.635   2.143  0.1603  0.2332 -0.0289
19800SOL    HW168368   9.567  10.699   2.116  0.0421  0.8811  1.1883
19800SOL    HW268369   9.548  10.551   2.140  0.2922  0.3197 -1.6967
19801SOL     OW68370   1.809   9.701   9.931 -0.2757  0.2143  0.3445
19801SOL    HW168371   1.794   9.783   9.978  0.2334  0.6505 -0.2393
19801SOL    HW268372   1.725   9.655   9.936 -0.7616  1.0569  0.1279
19802SOL     OW68373  11.760  11.434  12.202  0.6551 -0.0319 -0.4796
19802SOL    HW168374  11.756  11.349  12.158 -1.8294 -0.6209  0.6562
19802SOL    HW268375  11.792  11.494  12.136  2.3286 -1.7841 -1.3777
19803SOL     OW68376   0.500   3.467   1.574  0.7395 -0.3418 -0.1559
19803SOL    HW168377   0.517   3.549   1.528 -0.7517 -0.1761 -0.4775
19803SOL    HW268378   0.520   3.398   1.511 -0.6555 -0.1293 -0.8738
19804SOL     OW68379   9.491   9.195   5.476 -0.1998 -0.1724 -0.4230
19804SOL    HW168380   9.575   9.223   5.513 -0.3882  0.2585 -0.3118
19804SOL    HW268381   9.459   9.273   5.430 -2.6432  1.2318  3.1639
19805SOL     OW68382   8.632   7.868  10.535  0.5174 -0.1659  0.1479
19805SOL    HW168383   8.537   7.871  10.534  0.5163 -0.3173 -0.5510
19805SOL    HW268384   8.659   7.960  10.529  0.4092 -0.2468 -3.5058
19806SOL     OW68385   1.623   3.330   6.372  0.2780 -0.4344  0.6109
19806SOL    HW168386   1.586   3.255   6.419  0.7847 -0.8327  0.3878
19806SOL    HW268387   1.621   3.402   6.435  2.2390 -1.2995  1.7405
19807SOL     OW68388   7.991   4.263   1.680 -0.0359  0.2239 -0.5803
19807SOL    HW168389   8.068   4.232   1.727 -0.2153  0.5426 -0.0739
19807SOL    HW268390   7.919   4.211   1.714 -0.1495  0.3763 -0.5886
19808SOL     OW68391   5.918   0.797   2.600  0.2197 -0.1457 -0.5309
19808SOL    HW168392   5.931   0.763   2.689 -0.6703  0.6278 -0.0873
19808SOL    HW268393   5.838   0.848   2.606  0.8406  0.9726 -1.4800
19809SOL     OW68394  11.773   7.638   6.716  0.2929  0.4047 -0.0732
19809SOL    HW168395  11.789   7.598   6.630  0.1534 -0.5516  0.3386
19809SOL    HW268396  11.683   7.614   6.737  0.7890 -0.5638  0.9754
19810SOL     OW68397  11.559   9.380   9.515  0.3490  0.0385  0.6563
19810SOL    HW168398  11.555   9.292   9.477 -0.1061 -0.3315  1.5345
19810SOL    HW268399  11.470   9.415   9.504  0.6756  0.6353 -0.2299
19811SOL     OW68400   9.471   3.363   8.269 -0.4956 -0.0387  0.1551
19811SOL    HW168401   9.390   3.406   8.293 -1.6798 -1.7479 -0.5994
19811SOL    HW268402   9.467   3.278   8.311  0.5122 -0.4803 -0.5830
19812SOL     OW68403  10.496  12.363  10.056 -0.2126 -0.2726  0.2574
19812SOL    HW168404  10.591  12.353  10.046 -0.2191  0.5111 -0.6779
19812SOL    HW268405  10.482  12.458  10.056 -0.8160 -0.3154  2.2153
19813SOL     OW68406   2.662   2.152   9.293  0.1506 -0.5343  0.0714
19813SOL    HW168407   2.682   2.244   9.314 -1.1365 -0.5012  1.3639
19813SOL    HW268408   2.603   2.158   9.218  1.3962 -0.4161 -0.9259
19814SOL     OW68409   5.152  11.998   5.955 -0.3802 -0.0167  0.0507
19814SOL    HW168410   5.078  11.938   5.957 -0.9170  0.5575 -1.2630
19814SOL    HW268411   5.128  12.063   5.889  0.7853  0.8553  0.4571
19815SOL     OW68412   4.497   7.843   4.925 -0.2113 -0.1208  0.5326
19815SOL    HW168413   4.448   7.877   4.850  0.4974  0.6598  0.4110
19815SOL    HW268414   4.472   7.899   4.998  3.0076  2.6007 -0.2141
19816SOL     OW68415  10.511   1.498   2.890  0.2315 -0.0522  0.4504
19816SOL    HW168416  10.591   1.458   2.856  1.0394  0.9661  1.1221
19816SOL    HW268417  10.441   1.439   2.861  1.2543 -1.1947  0.2297
19817SOL     OW68418  11.137   9.039   4.667  0.2191  0.5724  0.0882
19817SOL    HW168419  11.212   8.979   4.670 -1.1122 -1.1312  1.0455
19817SOL    HW268420  11.113   9.041   4.575  1.7740  1.6256 -0.3360
19818SOL     OW68421   2.122   7.063   2.163 -0.0742  0.1975  0.2197
19818SOL    HW168422   2.095   7.056   2.071  0.1341  1.4693  0.0444
19818SOL    HW268423   2.198   7.006   2.170 -0.2243 -0.0803 -0.3480
19819SOL     OW68424  11.553   6.623   0.032 -0.1849 -0.1984  0.0663
19819SOL    HW168425  11.516   6.538   0.053 -1.0694 -0.0330 -0.7828
19819SOL    HW268426  11.595   6.651   0.114  0.1504 -1.4437  0.3415
19820SOL     OW68427   6.431   6.110   9.295 -1.0622  0.3167 -0.7578
19820SOL    HW168428   6.523   6.132   9.311 -0.6373 -1.4500 -0.5699
19820SOL    HW268429   6.428   6.089   9.201 -1.0932 -0.3594 -0.6119
19821SOL     OW68430   4.479   9.789  10.184  0.2212  0.4501  0.4047
19821SOL    HW168431   4.435   9.706  10.203  0.7648  0.3616  1.3821
19821SOL    HW268432   4.561   9.784  10.234  0.3414  1.5012  0.3392
19822SOL     OW68433   6.036   5.763   5.260 -0.9393  0.1395 -0.1684
19822SOL    HW168434   6.111   5.817   5.286 -0.0211 -1.0084 -0.3236
19822SOL    HW268435   5.980   5.761   5.337  0.3607 -0.9082  0.7900
19823SOL     OW68436   8.842   3.643   4.489  0.7672  0.1488 -0.0058
19823SOL    HW168437   8.931   3.660   4.521  0.8148  2.0668 -1.0860
19823SOL    HW268438   8.785   3.672   4.560  0.9485 -0.9962  0.6489
19824SOL     OW68439  12.026   2.011   9.182  0.1013 -0.1112  0.3659
19824SOL    HW168440  11.985   2.098   9.182  1.5336  0.6236  2.5490
19824SOL    HW268441  12.120   2.028   9.184  0.4088 -1.7039  1.2664
19825SOL     OW68442   3.741   3.798   8.006 -0.6345 -0.2919  0.0252
19825SOL    HW168443   3.686   3.875   8.024  0.4129  0.4728  0.0972
19825SOL    HW268444   3.698   3.726   8.052 -1.7531  0.2067 -0.2083
19826SOL     OW68445  10.679   9.534   9.108  0.7065  0.2309  0.0480
19826SOL    HW168446  10.642   9.621   9.124 -0.4481 -0.4775  1.4659
19826SOL    HW268447  10.682   9.493   9.194  1.8939 -0.9028 -0.4978
19827SOL     OW68448   3.641   7.165  10.683 -0.6027 -0.3394 -0.0640
19827SOL    HW168449   3.601   7.103  10.622 -3.5077 -0.7195  2.0487
19827SOL    HW268450   3.604   7.250  10.658 -1.6824 -0.4741  0.9878
19828SOL     OW68451   2.740   2.049  10.362 -0.1777 -0.0259  0.2068
19828SOL    HW168452   2.818   2.047  10.307 -0.7554  0.5510 -0.6717
19828SOL    HW268453   2.679   1.987  10.320 -0.3543 -0.1495  0.6350
19829SOL     OW68454   9.259  10.930   9.007  0.0547  0.8275  0.3112
19829SOL    HW168455   9.218  10.884   8.933  1.8821  0.5241 -0.5728
19829SOL    HW268456   9.311  10.862   9.050  3.5583  2.0499 -1.5586
19830SOL     OW68457  10.219   5.102   5.505  0.2536 -0.2264 -0.1976
19830SOL    HW168458  10.254   5.013   5.498  0.2080 -0.1313 -2.2575
19830SOL    HW268459  10.127   5.090   5.525  0.3603 -0.6180  0.0805
19831SOL     OW68460   0.192   9.724  10.516  0.0361  0.0967  0.0309
19831SOL    HW168461   0.241   9.655  10.471 -0.5387 -0.9945  1.0149
19831SOL    HW268462   0.238   9.736  10.599  0.1247  0.9096 -0.1273
19832SOL     OW68463   1.526   6.779   9.329  0.6316 -0.4124  0.2711
19832SOL    HW168464   1.508   6.694   9.289 -0.5332  0.2940 -0.7484
19832SOL    HW268465   1.540   6.838   9.255  1.0851  0.3723  0.9666
19833SOL     OW68466   5.980   7.435   3.229  0.4803 -0.1039 -0.3920
19833SOL    HW168467   5.904   7.400   3.275 -0.2302  0.6456 -0.9582
19833SOL    HW268468   6.012   7.362   3.175  0.5694 -0.6145  0.3423
19834SOL     OW68469   7.632   5.950   0.089 -0.2826  0.1344  0.1445
19834SOL    HW168470   7.659   5.969  -0.000 -0.1285 -0.8366 -0.0277
19834SOL    HW268471   7.663   6.024   0.140 -0.2305  0.6177 -0.5785
19835SOL     OW68472   1.933   2.545   5.258  0.4103 -0.4793  0.0082
19835SOL    HW168473   2.004   2.601   5.286  0.5467 -0.9023  0.5278
19835SOL    HW268474   1.960   2.512   5.173  0.1114  0.6116 -0.5295
19836SOL     OW68475   4.038   2.038   6.758  0.1419  0.3004 -0.3627
19836SOL    HW168476   4.125   2.040   6.717  0.4922  0.9575  0.3758
19836SOL    HW268477   4.040   1.959   6.812  0.3664  0.4305 -0.1767
19837SOL     OW68478   9.422   9.530   0.672  0.3115 -0.1989 -0.1332
19837SOL    HW168479   9.346   9.586   0.657  0.6157  0.3626  0.3945
19837SOL    HW268480   9.397   9.475   0.746 -0.1607 -1.0937 -0.9363
19838SOL     OW68481  11.821   4.924   6.376  0.0702 -0.2171 -0.5366
19838SOL    HW168482  11.822   4.915   6.472  0.1507  0.6143 -0.4531
19838SOL    HW268483  11.852   4.839   6.344  0.5872 -0.3184  0.1899
19839SOL     OW68484   1.454  11.909  12.130  0.4282  0.8017  0.1790
19839SOL    HW168485   1.400  11.983  12.158 -0.7245 -0.0237  0.2084
19839SOL    HW268486   1.544  11.941  12.138 -0.0089  1.9118  0.9855
19840SOL     OW68487   5.481  11.720   9.991  0.2096 -0.5470  0.6831
19840SOL    HW168488   5.502  11.794   9.934  0.3134  0.0613  1.4791
19840SOL    HW268489   5.529  11.646   9.954  0.4906 -0.0995  0.1441
19841SOL     OW68490   6.221   1.364   9.877 -0.3930  0.2692  0.1914
19841SOL    HW168491   6.129   1.379   9.857 -0.7959 -0.5478  1.3212
19841SOL    HW268492   6.269   1.408   9.806 -1.6687 -1.1268 -1.6151
19842SOL     OW68493   6.731  11.549   2.673  0.5193  0.2141 -0.3488
19842SOL    HW168494   6.807  11.520   2.624  0.2757 -2.5632  0.6983
19842SOL    HW268495   6.658  11.501   2.634 -0.1995  0.5613  0.5376
19843SOL     OW68496  11.183  11.594   8.708  0.8229 -0.7459 -0.1698
19843SOL    HW168497  11.105  11.639   8.738  1.0152 -0.1195 -0.5795
19843SOL    HW268498  11.196  11.626   8.618  1.8710 -0.3860  0.0898
19844SOL     OW68499  10.338   7.605   6.861 -0.0200  0.3038 -0.4371
19844SOL    HW168500  10.329   7.640   6.773  2.8582 -0.7694 -1.2536
19844SOL    HW268501  10.324   7.511   6.851  0.8306  0.1070  0.1523
19845SOL     OW68502   0.022   8.214   0.748 -0.7635  0.5560 -0.0462
19845SOL    HW168503   0.109   8.196   0.712 -1.0801  1.0446 -1.1216
19845SOL    HW268504   0.019   8.166   0.831  0.4316  0.3284 -0.1204
19846SOL     OW68505   0.276   4.976   0.263  0.3479 -0.2376 -0.2502
19846SOL    HW168506   0.218   5.014   0.198  0.5554  0.5503  0.0206
19846SOL    HW268507   0.302   5.049   0.319 -0.0564 -0.9520  0.9046
19847SOL     OW68508  11.360   9.536  10.854 -0.2071  0.0849 -0.0495
19847SOL    HW168509  11.325   9.515  10.767 -1.6830 -0.9797  0.7415
19847SOL    HW268510  11.371   9.631  10.854 -1.2268  0.2254 -1.0487
19848SOL     OW68511   5.311   4.032  11.057 -0.3713  0.0482 -0.3828
19848SOL    HW168512   5.371   4.060  11.125  0.8524 -0.5576 -1.1806
19848SOL    HW268513   5.234   4.087  11.068 -0.6463 -0.7211  2.1340
19849SOL     OW68514  10.034   2.116   3.685  0.3887  0.1075  0.4234
19849SOL    HW168515  10.069   2.036   3.725  0.2698  0.7439  1.8616
19849SOL    HW268516  10.107   2.178   3.686 -0.1676  0.7806  1.5551
19850SOL     OW68517   7.328  11.269   8.480  0.0644  0.2148  0.0235
19850SOL    HW168518   7.410  11.245   8.437 -0.0936 -0.2974 -0.0011
19850SOL    HW268519   7.349  11.267   8.573  0.0891  0.1226  0.0160
19851SOL     OW68520   9.561  12.073   0.807  0.6988  0.3226 -0.0291
19851SOL    HW168521   9.609  12.140   0.855 -0.3483  2.2990 -1.5289
19851SOL    HW268522   9.500  12.036   0.871  0.9767  1.1749  0.7457
19852SOL     OW68523   7.423   6.581   8.376  0.0120 -0.5778  0.3745
19852SOL    HW168524   7.435   6.576   8.281  1.1480 -0.0047  0.4772
19852SOL    HW268525   7.328   6.588   8.388 -0.0539  0.9031 -0.7897
19853SOL     OW68526   6.972   1.422   2.947  0.3630 -0.2577  0.4053
19853SOL    HW168527   6.917   1.345   2.958  2.1573 -1.9536 -1.4041
19853SOL    HW268528   6.968   1.441   2.853  2.3637 -0.1397  0.2867
19854SOL     OW68529   8.313   8.649   1.738  0.0609  0.1414  0.3696
19854SOL    HW168530   8.218   8.647   1.740  0.0008 -2.6362 -0.4627
19854SOL    HW268531   8.335   8.737   1.707 -2.3066  0.1916 -1.4556
19855SOL     OW68532   6.546   4.959   0.419  0.4082  0.3477  0.0830
19855SOL    HW168533   6.633   4.953   0.378  1.4884 -0.3344  2.3147
19855SOL    HW268534   6.553   5.034   0.478 -1.5507  2.1520 -1.8430
19856SOL     OW68535   9.168   2.238   9.725  0.3525  0.1196 -0.0778
19856SOL    HW168536   9.124   2.161   9.761 -0.1878 -0.2772 -1.4907
19856SOL    HW268537   9.100   2.305   9.722  0.0794 -0.1770 -1.2913
19857SOL     OW68538   9.605  11.572   0.225 -0.9110 -0.0070  0.1819
19857SOL    HW168539   9.537  11.633   0.253 -1.1892 -0.3996  0.3725
19857SOL    HW268540   9.652  11.549   0.305 -1.3491 -0.6936  0.2512
19858SOL     OW68541   5.595   0.129  12.477 -0.0119  0.1876 -0.1544
19858SOL    HW168542   5.505   0.114  12.506  0.2697  1.5689  1.5944
19858SOL    HW268543   5.588   0.198  12.411 -0.5711 -2.4312 -3.0729
19859SOL     OW68544   3.369   1.562   0.984  0.2813 -0.4594  0.1039
19859SOL    HW168545   3.298   1.520   0.936  0.0089  0.1722 -0.0557
19859SOL    HW268546   3.421   1.606   0.917 -0.5827  1.1478  0.4169
19860SOL     OW68547   0.710  10.059  10.979 -0.5044 -0.2890 -0.1085
19860SOL    HW168548   0.787  10.005  10.962  1.3108  1.4134  2.1554
19860SOL    HW268549   0.704  10.117  10.903  0.5444 -0.3309 -0.2336
19861SOL     OW68550   9.787   1.177   1.496 -0.5149  0.0740 -0.1201
19861SOL    HW168551   9.771   1.147   1.406  0.8388  0.1222 -0.4047
19861SOL    HW268552   9.766   1.102   1.551 -0.3680 -0.2998 -0.5681
19862SOL     OW68553   2.129  12.386   5.538 -0.1271  0.0892 -0.0135
19862SOL    HW168554   2.168  12.472   5.520 -0.2220  0.2637  0.5827
19862SOL    HW268555   2.140  12.374   5.632  2.6976 -1.9457 -0.4744
19863SOL     OW68556   5.653   2.142   0.597  0.4410  0.0290 -0.5331
19863SOL    HW168557   5.704   2.219   0.620  0.8502 -0.2331 -0.5533
19863SOL    HW268558   5.672   2.126   0.505  0.1963  0.0268 -0.5844
19864SOL     OW68559   3.782  11.481   1.674 -0.3893  0.0661  0.0587
19864SOL    HW168560   3.694  11.517   1.665 -0.1628  0.7141  0.3608
19864SOL    HW268561   3.840  11.558   1.669  0.1489 -0.3345  0.0105
19865SOL     OW68562  10.665  10.312   2.731  0.5502 -0.0647  0.6834
19865SOL    HW168563  10.660  10.216   2.735 -0.6696 -0.0310  0.5444
19865SOL    HW268564  10.740  10.330   2.675 -0.1256 -0.9904 -0.5978
19866SOL     OW68565   4.575   8.843  11.728 -0.0905 -0.2250 -0.0745
19866SOL    HW168566   4.598   8.933  11.706  0.4663 -0.7122 -1.5851
19866SOL    HW268567   4.652   8.792  11.703 -1.0474 -1.3219 -0.8707
19867SOL     OW68568   8.554  12.096   9.648  0.1021  0.4098 -0.1610
19867SOL    HW168569   8.573  12.071   9.558  0.4922  1.5260 -0.4076
19867SOL    HW268570   8.625  12.156   9.672 -0.0524  0.2170  0.8582
19868SOL     OW68571  10.455   3.474   8.139  0.5784 -0.4085  0.2785
19868SOL    HW168572  10.410   3.426   8.209 -0.4111  1.5344  1.0434
19868SOL    HW268573  10.540   3.431   8.132  0.4054 -1.1528  2.1574
19869SOL     OW68574   7.892   3.873   8.477  0.0181  0.0385  0.4618
19869SOL    HW168575   7.829   3.807   8.506  1.3755 -1.2903  0.5463
19869SOL    HW268576   7.975   3.846   8.518  2.1793 -2.1090 -4.4763
19870SOL     OW68577   2.680  11.476   3.032  0.2221  0.0701 -0.5684
19870SOL    HW168578   2.754  11.533   3.013  0.5958  0.0190  0.6769
19870SOL    HW268579   2.697  11.396   2.981  1.1259 -0.0146 -0.1476
19871SOL     OW68580  10.118   2.618   5.180 -0.0350 -0.8530  0.1510
19871SOL    HW168581  10.080   2.571   5.255  0.4165 -1.1102  0.2303
19871SOL    HW268582  10.206   2.642   5.210  0.0536 -0.7302 -0.2052
19872SOL     OW68583   2.724   4.445  12.356  0.0302 -0.2619  0.1865
19872SOL    HW168584   2.667   4.386  12.306 -0.0694 -0.1736  0.1976
19872SOL    HW268585   2.666   4.513  12.389 -0.0264 -0.7024  1.0173
19873SOL     OW68586  11.629   5.947   8.924  0.3532  0.7811 -0.1354
19873SOL    HW168587  11.616   5.860   8.888  2.1147  0.3676  0.1396
19873SOL    HW268588  11.548   5.965   8.972  0.2722 -1.0748  0.5184
19874SOL     OW68589   0.964   8.173  10.131  0.5243 -0.0735 -0.3339
19874SOL    HW168590   1.010   8.237  10.185  0.6140 -0.1543 -0.3137
19874SOL    HW268591   0.888   8.220  10.097 -0.8683 -0.6732  1.7646
19875SOL     OW68592   5.673   9.818   5.527  0.1081  0.9619 -0.2171
19875SOL    HW168593   5.649   9.897   5.575  0.1366  1.3106 -0.7593
19875SOL    HW268594   5.592   9.792   5.482 -0.2533 -0.0901  1.0056
19876SOL     OW68595   1.946  11.541   7.194  0.4549 -0.2482  0.0070
19876SOL    HW168596   2.028  11.544   7.143  0.3057  1.2329 -0.1767
19876SOL    HW268597   1.975  11.544   7.285  0.7373 -3.1714  0.0992
19877SOL     OW68598  11.982   7.880  11.482  0.2592 -0.2665 -0.1369
19877SOL    HW168599  11.920   7.810  11.499 -0.9156  0.7050 -0.2342
19877SOL    HW268600  12.020   7.859  11.397 -0.7890 -0.3020 -0.6086
19878SOL     OW68601   0.387   6.469   1.355  0.4331  0.1225 -0.3865
19878SOL    HW168602   0.385   6.510   1.442 -2.2107  1.0730 -0.8041
19878SOL    HW268603   0.425   6.536   1.298  1.7611 -0.3412 -0.0898
19879SOL     OW68604  10.299   2.211   7.624 -0.3298  0.1852  0.7057
19879SOL    HW168605  10.393   2.191   7.633 -0.2750 -0.8655 -1.4360
19879SOL    HW268606  10.282   2.202   7.530 -1.8442  3.9412  0.4669
19880SOL     OW68607   5.392   7.561   0.060 -0.1421 -0.7503 -0.4632
19880SOL    HW168608   5.392   7.646   0.017 -0.1688  0.0482  1.0257
19880SOL    HW268609   5.436   7.577   0.144  1.0385 -2.5130 -0.6896
19881SOL     OW68610   2.963  11.949   6.301  0.5810 -0.0745  0.1294
19881SOL    HW168611   2.873  11.953   6.270 -0.5216  0.9051  3.0384
19881SOL    HW268612   3.014  11.995   6.235 -1.1392 -0.1497 -1.3050
19882SOL     OW68613  11.747   2.689   1.949  0.1521 -0.5908  0.2207
19882SOL    HW168614  11.787   2.761   1.900 -1.2780  1.0169  1.2741
19882SOL    HW268615  11.735   2.725   2.037  0.1198 -2.4235  0.9968
19883SOL     OW68616   5.132   2.806  11.337 -0.0803  0.3422 -0.0967
19883SOL    HW168617   5.105   2.881  11.285  0.3340 -1.4106 -3.0480
19883SOL    HW268618   5.120   2.834  11.428 -1.1435  3.4670 -1.0870
19884SOL     OW68619  11.190  10.159   0.783 -0.2545 -0.4627  0.4256
19884SOL    HW168620  11.236  10.089   0.829  0.2124 -0.0454  0.6025
19884SOL    HW268621  11.229  10.161   0.695 -1.6910 -1.7910 -0.2931
19885SOL     OW68622   0.171   4.516   7.492  0.6176  0.0117 -0.1279
19885SOL    HW168623   0.217   4.435   7.471  1.3068  0.4836 -0.4687
19885SOL    HW268624   0.151   4.509   7.586  1.3863 -0.2008  0.0268
19886SOL     OW68625   0.602   7.987   4.195  0.2164 -0.0082  0.1395
19886SOL    HW168626   0.515   7.953   4.173  0.1291  1.0376 -1.2279
19886SOL    HW268627   0.631   8.033   4.116  1.3880  0.9307  1.0745
19887SOL     OW68628  10.339   5.601   7.808  0.5293  0.3705 -0.0552
19887SOL    HW168629  10.299   5.548   7.740  0.9187  0.0541 -0.0398
19887SOL    HW268630  10.379   5.538   7.869  1.4206  0.6808 -0.3031
19888SOL     OW68631  10.293   9.947   4.026  0.3642 -0.0683  0.0848
19888SOL    HW168632  10.313   9.863   3.984  0.9795  0.3280 -0.4432
19888SOL    HW268633  10.362  10.006   3.996 -1.0389  1.1070 -0.9814
19889SOL     OW68634  10.448   9.557   1.189  0.6055  0.0063  0.1772
19889SOL    HW168635  10.464   9.471   1.229  1.1724 -0.9378 -1.9381
19889SOL    HW268636  10.363   9.583   1.223  1.2060 -0.4967  2.2821
19890SOL     OW68637   9.367   8.547   4.191  0.5547 -0.7970  0.4894
19890SOL    HW168638   9.302   8.532   4.123  0.5269  0.7012  0.1528
19890SOL    HW268639   9.319   8.592   4.261  0.6266 -2.1451  1.4466
19891SOL     OW68640   4.349   0.418   4.949  0.0998  0.2078 -0.1340
19891SOL    HW168641   4.435   0.377   4.935  0.0288  0.6700 -2.4197
19891SOL    HW268642   4.293   0.347   4.981  0.9892 -0.4533 -0.0078
19892SOL     OW68643   5.952   2.102   8.279 -0.5699 -0.0235 -0.4971
19892SOL    HW168644   6.037   2.118   8.321  0.1063 -0.2366 -1.7599
19892SOL    HW268645   5.929   2.012   8.305 -1.9316  1.0242  2.3783
19893SOL     OW68646  10.549   9.307   7.842  0.6066 -0.3727 -0.1371
19893SOL    HW168647  10.542   9.213   7.861  1.1914 -0.0485  1.9686
19893SOL    HW268648  10.622   9.337   7.896  0.8962  1.1859 -1.3209
19894SOL     OW68649   1.121   7.971   1.676  0.2578  0.2602  0.2084
19894SOL    HW168650   1.098   7.883   1.644  1.2887  0.5514 -1.4783
19894SOL    HW268651   1.065   7.984   1.752 -1.1168 -1.2004 -0.4844
19895SOL     OW68652   5.626  10.416   5.048 -0.8375 -0.6836  0.3464
19895SOL    HW168653   5.641  10.488   4.986 -1.9030  1.0934  2.0541
19895SOL    HW268654   5.552  10.369   5.011 -1.7047  0.5794  0.4121
19896SOL     OW68655   2.160  11.546   0.483  0.0153 -0.3179 -0.4592
19896SOL    HW168656   2.253  11.567   0.492  0.0627 -0.5901 -0.2963
19896SOL    HW268657   2.158  11.452   0.466 -0.0374  0.1754 -3.7889
19897SOL     OW68658   2.827   7.442   6.674 -0.4153 -0.2724  0.2272
19897SOL    HW168659   2.815   7.407   6.762 -1.9000 -1.0286 -0.2381
19897SOL    HW268660   2.873   7.524   6.687 -0.5153 -0.4213  1.7001
19898SOL     OW68661   2.757  10.828   7.371  0.2098  0.2261  0.3706
19898SOL    HW168662   2.727  10.903   7.423 -0.1456  1.0232 -0.9401
19898SOL    HW268663   2.819  10.865   7.308 -0.9838 -0.3157 -1.1905
19899SOL     OW68664   3.469   2.762   7.614  0.5881  0.1036 -0.1990
19899SOL    HW168665   3.508   2.794   7.533  2.3469  0.0839  0.5844
19899SOL    HW268666   3.460   2.840   7.669 -4.1208  0.8363 -1.6130
19900SOL     OW68667   3.515   1.083   8.338 -0.8510 -0.9487 -0.5948
19900SOL    HW168668   3.493   1.110   8.249 -0.8309  1.4989  0.0806
19900SOL    HW268669   3.436   1.040   8.371 -0.9225 -1.6972 -1.6838
19901SOL     OW68670   1.250   9.167   6.649  0.2674 -0.1456 -0.0916
19901SOL    HW168671   1.161   9.185   6.619  0.1638 -0.1332  0.2163
19901SOL    HW268672   1.290   9.253   6.661  0.3337 -0.1520 -0.2621
19902SOL     OW68673   8.996   1.676   3.004  0.2724  0.0083  0.3233
19902SOL    HW168674   9.035   1.594   2.973  2.4615  1.5555 -1.3556
19902SOL    HW268675   8.942   1.705   2.931  1.0043  0.9487  0.1397
19903SOL     OW68676   0.202  11.175   3.122 -0.4603  0.1623  0.1996
19903SOL    HW168677   0.136  11.133   3.176  0.6245 -0.7936  0.8098
19903SOL    HW268678   0.199  11.127   3.039 -0.9010  0.4808  0.0269
19904SOL     OW68679   7.322   5.841   1.034 -0.5391 -0.3924  0.4117
19904SOL    HW168680   7.320   5.852   1.129  1.4162 -1.0374  0.5750
19904SOL    HW268681   7.347   5.749   1.022 -0.1055 -0.1347 -0.7153
19905SOL     OW68682  10.874   7.864   0.165 -0.1479  0.2324 -0.5486
19905SOL    HW168683  10.861   7.906   0.250 -3.4802 -1.2512 -0.1554
19905SOL    HW268684  10.851   7.931   0.101 -1.2132  0.3160 -0.0987
19906SOL     OW68685   4.950   3.435   2.408  0.4143 -0.3058  0.2380
19906SOL    HW168686   4.868   3.394   2.379  0.1851  1.0012 -1.0680
19906SOL    HW268687   5.019   3.380   2.369  0.1310  1.7276 -3.6420
19907SOL     OW68688   8.512   9.690  10.150 -0.3991  0.2303 -0.8012
19907SOL    HW168689   8.550   9.737  10.076 -2.0584  0.4932 -1.5332
19907SOL    HW268690   8.450   9.751  10.188  0.4514  0.0996  0.8486
19908SOL     OW68691  10.984   5.291   3.337 -0.6148  0.3418 -0.3386
19908SOL    HW168692  10.891   5.277   3.320 -0.9717  1.8745  0.1562
19908SOL    HW268693  10.992   5.289   3.432 -0.2214  0.6185 -0.3619
19909SOL     OW68694   9.088   6.004   0.704  0.6418 -0.0934  0.7107
19909SOL    HW168695   9.125   5.996   0.792 -0.2793 -0.5684  1.0754
19909SOL    HW268696   9.056   5.916   0.683 -1.4535  0.5399  0.9717
19910SOL     OW68697   0.194  10.477   0.894 -0.5532  0.2639  0.2529
19910SOL    HW168698   0.136  10.404   0.913  2.4121 -2.4488 -0.2896
19910SOL    HW268699   0.200  10.525   0.977 -2.8055  0.1306  0.5377
19911SOL     OW68700   2.169  11.883   5.741 -0.2041  0.3562  0.3103
19911SOL    HW168701   2.080  11.905   5.715 -1.4476  0.6988  4.2016
19911SOL    HW268702   2.217  11.965   5.735 -0.5887  0.5459 -0.2409
19912SOL     OW68703   7.099   4.741   7.680  0.5387 -0.5556 -0.4303
19912SOL    HW168704   7.127   4.666   7.732  0.1888 -0.8230 -0.6200
19912SOL    HW268705   7.084   4.811   7.743 -1.0668 -1.2235 -0.0136
19913SOL     OW68706   4.606   3.201   9.085 -0.0896 -0.2132  0.2858
19913SOL    HW168707   4.675   3.261   9.056  0.8421 -0.7400  1.3286
19913SOL    HW268708   4.640   3.114   9.065 -0.7119 -0.4616  0.2874
19914SOL     OW68709   3.669   7.681   9.073  0.0695  0.1506  0.1079
19914SOL    HW168710   3.675   7.773   9.099 -0.7239  0.1881  0.1797
19914SOL    HW268711   3.679   7.682   8.978  1.9927  0.1072  0.2584
19915SOL     OW68712   4.450   4.529   1.315  0.5535  0.4569  0.3025
19915SOL    HW168713   4.487   4.615   1.335 -0.9221  0.7328  2.1312
19915SOL    HW268714   4.491   4.470   1.378  0.1955  0.1690  0.2692
19916SOL     OW68715   9.194   7.282   1.791 -0.2569  0.1861 -0.6775
19916SOL    HW168716   9.130   7.351   1.807 -0.2504 -0.2696  1.5862
19916SOL    HW268717   9.145   7.215   1.743 -0.3719  1.5157 -2.5255
19917SOL     OW68718   3.490   7.366   9.174 -0.0539  0.2537 -0.2337
19917SOL    HW168719   3.574   7.405   9.196 -0.2362 -0.1596  1.2951
19917SOL    HW268720   3.450   7.346   9.258 -1.6549  0.3701 -0.9360
19918SOL     OW68721   5.960  10.299   2.496  0.4762  0.6576 -0.4701
19918SOL    HW168722   5.867  10.303   2.516  0.0887  0.0231 -1.9785
19918SOL    HW268723   5.998  10.244   2.564 -0.2978  0.6575 -0.0271
19919SOL     OW68724   5.475   3.419   3.965  0.2340 -0.9388 -0.1293
19919SOL    HW168725   5.439   3.339   4.003 -2.1012 -0.0438 -0.2441
19919SOL    HW268726   5.569   3.410   3.973 -0.0441 -2.1033  3.1760
19920SOL     OW68727   1.155   1.244   2.524 -0.0489  0.0216  0.2468
19920SOL    HW168728   1.172   1.160   2.482  1.5985  1.3834 -2.0387
19920SOL    HW268729   1.078   1.278   2.479  0.5658  0.6383 -0.3687
19921SOL     OW68730   9.632   0.211   6.540 -0.3379  0.7424 -0.0902
19921SOL    HW168731   9.727   0.204   6.546 -0.3756 -0.2206 -0.3396
19921SOL    HW268732   9.615   0.222   6.447 -0.4172  2.1556  0.0794
19922SOL     OW68733   2.933   7.745   6.647 -0.2173  0.0055  0.5742
19922SOL    HW168734   2.991   7.679   6.610 -0.2859  0.0836  0.3192
19922SOL    HW268735   2.955   7.749   6.740 -0.3524 -0.5192  0.6296
19923SOL     OW68736   6.370   4.661   3.664  0.1223  0.7965 -0.1475
19923SOL    HW168737   6.336   4.592   3.606  0.2629  0.9530 -0.4193
19923SOL    HW268738   6.402   4.614   3.741 -0.1590  0.5947 -0.1543
19924SOL     OW68739   4.449   1.517   4.749  0.7402 -0.0953  0.4239
19924SOL    HW168740   4.386   1.566   4.696  0.7658 -0.0489  0.4364
19924SOL    HW268741   4.400   1.440   4.780 -0.0097  1.0829  2.3153
19925SOL     OW68742   5.892  10.337  11.589 -0.6538  0.3254 -0.4441
19925SOL    HW168743   5.935  10.422  11.596  1.4547 -0.7576  0.9582
19925SOL    HW268744   5.809  10.348  11.635 -0.5035  1.6540 -0.4492
19926SOL     OW68745   9.939   5.230  12.280 -0.9208  0.3593  0.0645
19926SOL    HW168746   9.919   5.286  12.205 -0.0177 -1.0472 -1.2833
19926SOL    HW268747  10.022   5.265  12.314 -1.5510  1.2719  0.7320
19927SOL     OW68748   3.820   1.419   2.155 -0.0966 -1.0984  0.2149
19927SOL    HW168749   3.857   1.334   2.132  0.0893 -0.2169 -3.4208
19927SOL    HW268750   3.766   1.443   2.080 -1.4613  1.3095  1.8109
19928SOL     OW68751   1.474   7.000   9.160  0.1859  0.2604  0.5789
19928SOL    HW168752   1.382   7.023   9.147 -0.1758 -1.6524 -0.7242
19928SOL    HW268753   1.508   6.985   9.072  1.3160 -0.5697  1.1259
19929SOL     OW68754   3.643   6.829  10.297 -0.0251  0.8209  0.1089
19929SOL    HW168755   3.581   6.883  10.248 -0.9507  0.4492  0.8309
19929SOL    HW268756   3.588   6.766  10.344  0.9150  0.3914  0.6672
19930SOL     OW68757   2.353  11.736   9.153  0.6457 -0.2625  0.3387
19930SOL    HW168758   2.364  11.796   9.226  1.5262  1.8475 -1.4272
19930SOL    HW268759   2.434  11.743   9.103 -0.4256 -0.6103 -1.5662
19931SOL     OW68760  11.958   6.469  10.383  0.1265  0.1794  0.1928
19931SOL    HW168761  11.960   6.443  10.291 -0.6728 -2.1906  0.7774
19931SOL    HW268762  11.920   6.557  10.383  1.8021  0.9747 -1.8409
19932SOL     OW68763   3.254  12.378  11.237 -0.4356  0.6453  0.5486
19932SOL    HW168764   3.310  12.425  11.176  1.1431 -0.8029  0.8065
19932SOL    HW268765   3.314  12.325  11.289 -2.0463 -1.0585  0.7833
19933SOL     OW68766  11.580   7.019   9.778  0.4493  1.0990 -0.0659
19933SOL    HW168767  11.503   7.048   9.827  0.8733  0.3562  1.0811
19933SOL    HW268768  11.641   7.093   9.784 -0.1727  1.7204 -1.0458
19934SOL     OW68769   2.131   4.724   6.215 -0.1159  0.1492 -0.1405
19934SOL    HW168770   2.048   4.707   6.171  0.0021  1.9439 -1.1493
19934SOL    HW268771   2.115   4.700   6.306 -1.8259  0.6588 -0.2678
19935SOL     OW68772  10.338  12.492   1.224 -0.7523  0.9171 -0.0003
19935SOL    HW168773  10.338  12.585   1.201 -0.7298  0.7989 -0.4986
19935SOL    HW268774  10.251  12.477   1.261 -1.1366  0.9158 -0.8720
19936SOL     OW68775  11.324  10.357   2.549 -0.1696  0.3714 -0.4617
19936SOL    HW168776  11.361  10.273   2.575  0.6277  1.1641  1.0860
19936SOL    HW268777  11.235  10.337   2.521 -0.0656 -0.9463  0.1006
19937SOL     OW68778   4.680   5.527   0.752  0.2202 -0.1711  0.0113
19937SOL    HW168779   4.597   5.569   0.773 -0.9942 -2.7704  0.8106
19937SOL    HW268780   4.668   5.493   0.663  0.2319 -0.9603  0.3072
19938SOL     OW68781   3.733  10.141  12.311 -0.0772 -0.1431 -0.4508
19938SOL    HW168782   3.818  10.141  12.355  0.2204  1.2318 -0.9926
19938SOL    HW268783   3.709  10.048  12.305  0.9239 -0.4876  0.5619
19939SOL     OW68784   0.895   7.796   5.131 -0.0835  0.0612  0.0207
19939SOL    HW168785   0.948   7.859   5.179  0.7031  0.5585 -1.4354
19939SOL    HW268786   0.902   7.823   5.039  0.2628 -2.0946 -0.6573
19940SOL     OW68787   5.844   1.943  10.127  0.3786  0.1498 -0.1866
19940SOL    HW168788   5.762   1.944  10.078  0.1704  0.3646  0.1673
19940SOL    HW268789   5.904   1.891  10.073 -0.1780 -0.5463 -0.1505
19941SOL     OW68790   7.002   4.898   4.738  0.2378  0.7046 -0.2206
19941SOL    HW168791   6.917   4.859   4.717 -0.3595  0.4685  2.2893
19941SOL    HW268792   7.046   4.833   4.792  0.4004  2.2800  1.6882
19942SOL     OW68793   3.322   2.576   5.628 -0.2324 -0.6548 -0.3176
19942SOL    HW168794   3.338   2.628   5.549  0.0314 -0.2552 -0.0076
19942SOL    HW268795   3.229   2.555   5.625 -0.5749  0.6858  0.0453
19943SOL     OW68796   6.457   6.939   2.827  0.4125 -0.2919  0.1590
19943SOL    HW168797   6.512   6.947   2.749  1.7496 -0.7153  1.0151
19943SOL    HW268798   6.448   6.844   2.840  2.1238 -0.2870  1.7702
19944SOL     OW68799   7.630   7.086  12.019  0.2868  0.1390  0.0073
19944SOL    HW168800   7.617   7.170  11.976  0.7077 -0.7755 -2.0413
19944SOL    HW268801   7.544   7.044  12.016 -0.0392  0.6463  1.4598
19945SOL     OW68802  11.552   3.025   2.793  0.2421 -0.3726  0.9986
19945SOL    HW168803  11.573   2.932   2.784  1.3806  0.0877 -2.2795
19945SOL    HW268804  11.457   3.028   2.806  0.0450 -1.9403  0.1000
19946SOL     OW68805   9.007  10.469   8.087 -0.3419 -0.3344  0.8722
19946SOL    HW168806   9.010  10.528   8.162 -0.0776  1.3261 -0.3827
19946SOL    HW268807   8.918  10.479   8.052 -0.1197 -0.2374  0.3199
19947SOL     OW68808   9.411   9.900   3.467 -0.3653  0.1099 -0.4495
19947SOL    HW168809   9.463   9.930   3.393 -1.4557  1.6675 -0.6319
19947SOL    HW268810   9.380   9.814   3.441 -1.1355  0.8283 -2.0549
19948SOL     OW68811   8.600   7.130   2.298 -0.2436  0.0923  0.5680
19948SOL    HW168812   8.601   7.225   2.304 -0.3236  0.0618  1.1680
19948SOL    HW268813   8.680   7.108   2.250  0.3957  0.4021  1.4575
19949SOL     OW68814  10.166   8.449   0.726  0.4669  0.1221  0.0878
19949SOL    HW168815  10.233   8.395   0.685  1.0984  0.5234  0.5745
19949SOL    HW268816  10.178   8.435   0.820  0.7593  1.2180  0.2357
19950SOL     OW68817   7.135   8.153   8.714 -0.5689 -0.5633  0.2953
19950SOL    HW168818   7.050   8.129   8.751 -1.6277  0.1561 -1.5565
19950SOL    HW268819   7.149   8.089   8.644 -0.4967  0.4562 -0.6367
19951SOL     OW68820   3.798  11.329   2.423  0.4707  0.2492  0.1880
19951SOL    HW168821   3.720  11.277   2.439  1.2970 -1.1892 -0.2989
19951SOL    HW268822   3.783  11.411   2.472 -0.8689 -0.4211  0.9450
19952SOL     OW68823  12.189   5.662   6.486  0.7247  0.2958 -0.2522
19952SOL    HW168824  12.210   5.669   6.579  1.2859 -1.4309 -0.2307
19952SOL    HW268825  12.248   5.724   6.443  1.1547  0.3732  0.4460
19953SOL     OW68826   5.898   6.696   6.546 -0.2861 -0.2628  0.0957
19953SOL    HW168827   5.892   6.660   6.635  1.9706  2.4465  1.4818
19953SOL    HW268828   5.984   6.669   6.515 -0.9879 -1.0491 -1.2800
19954SOL     OW68829   6.289  11.454   3.035  0.1691  0.1708  0.7094
19954SOL    HW168830   6.341  11.532   3.015  2.5885 -1.7341 -0.8557
19954SOL    HW268831   6.248  11.431   2.952  0.1763 -0.7182  0.9502
19955SOL     OW68832   0.494   1.415   3.041  0.1204 -0.0411  0.0285
19955SOL    HW168833   0.529   1.327   3.025  0.3419 -1.1656  5.1418
19955SOL    HW268834   0.538   1.444   3.120 -1.6601  3.7972 -0.1724
19956SOL     OW68835  10.860   2.909   3.132  0.1819 -0.2340  0.0989
19956SOL    HW168836  10.853   2.969   3.058 -1.8543  0.1349  0.5211
19956SOL    HW268837  10.836   2.824   3.097  1.4763 -0.5107 -0.1454
19957SOL     OW68838   5.200   2.199   2.490  0.3133 -0.4756  0.2490
19957SOL    HW168839   5.151   2.278   2.513  0.6428 -0.8604  2.4527
19957SOL    HW268840   5.273   2.230   2.437 -0.6600  0.4301 -0.6239
19958SOL     OW68841   1.027   3.087   5.194  0.2053 -0.4141  0.3360
19958SOL    HW168842   1.021   3.177   5.163 -0.9010 -0.4113  0.5216
19958SOL    HW268843   1.117   3.061   5.176  0.9491  1.1763  1.5281
19959SOL     OW68844   1.366   8.191   0.132  0.1971  0.1814  0.0590
19959SOL    HW168845   1.342   8.151   0.048 -2.6221  2.0165 -0.1696
19959SOL    HW268846   1.378   8.117   0.192 -0.7474 -1.1135 -1.2723
19960SOL     OW68847  11.217   3.686  10.196 -0.2595  0.4905  0.4579
19960SOL    HW168848  11.294   3.742  10.200 -0.0300  0.1191  1.3074
19960SOL    HW268849  11.233   3.628  10.121  1.0761 -0.7056  1.6176
19961SOL     OW68850  10.441  12.186  10.257 -0.7013 -0.4662  0.1714
19961SOL    HW168851  10.466  12.250  10.191 -0.1298  0.7286  1.4812
19961SOL    HW268852  10.383  12.234  10.316 -2.7810 -2.0232 -0.4615
19962SOL     OW68853   1.989   0.904   7.561 -0.1352 -0.0917 -0.3256
19962SOL    HW168854   1.935   0.864   7.630 -0.1257 -0.1336 -0.3424
19962SOL    HW268855   2.075   0.865   7.573  0.3581  1.2460  0.7986
19963SOL     OW68856   7.977  12.440  12.584 -0.0267 -0.3574  0.5408
19963SOL    HW168857   7.954  12.451  12.492 -0.6978 -0.1359  0.7276
19963SOL    HW268858   8.034  12.515  12.604 -1.2433  0.5575  0.7325
19964SOL     OW68859   2.810   5.104   5.198  0.2128 -0.1076  0.7478
19964SOL    HW168860   2.835   5.122   5.288 -0.9374 -1.1458  1.2945
19964SOL    HW268861   2.717   5.082   5.202  0.3779 -1.2083 -0.5336
19965SOL     OW68862   4.601   2.475   5.643  0.3015 -0.2274 -0.2391
19965SOL    HW168863   4.519   2.524   5.645 -1.2268 -2.6257 -0.5746
19965SOL    HW268864   4.658   2.523   5.703 -2.2264  0.0658  2.1474
19966SOL     OW68865   9.561   9.238   4.130  0.3024 -0.3050  0.5359
19966SOL    HW168866   9.494   9.293   4.090  0.2715 -0.6287  0.1502
19966SOL    HW268867   9.582   9.283   4.212 -0.3750 -0.1974  0.6552
19967SOL     OW68868   6.450   6.394   2.416 -0.0964 -0.1891  0.6050
19967SOL    HW168869   6.469   6.312   2.460  1.3128  0.2496  0.8890
19967SOL    HW268870   6.405   6.448   2.482 -3.8007 -1.6834 -0.4463
19968SOL     OW68871   3.294  11.964   4.607  0.4224 -0.0694 -0.8639
19968SOL    HW168872   3.286  12.059   4.616  0.9965 -0.0277 -0.7471
19968SOL    HW268873   3.342  11.936   4.685  0.7480 -0.3789 -1.1692
19969SOL     OW68874  10.982   0.834   5.082 -0.5284 -0.0717  0.0771
19969SOL    HW168875  11.044   0.875   5.021  0.5885  1.5190  2.1354
19969SOL    HW268876  10.990   0.740   5.065  3.3301 -0.0681  0.8879
19970SOL     OW68877   2.198  10.161   7.609 -0.1559 -0.2523 -0.0045
19970SOL    HW168878   2.264  10.108   7.654  0.2549 -0.6296 -1.0121
19970SOL    HW268879   2.115  10.136   7.650  0.2377 -0.2844  0.8032
19971SOL     OW68880   6.355   8.037  10.982  0.5870 -0.0315  0.2905
19971SOL    HW168881   6.366   7.979  11.057 -1.9495 -0.1886  0.6517
19971SOL    HW268882   6.321   7.981  10.913  0.4818  0.5683 -0.1527
19972SOL     OW68883   1.232   2.309   9.393  0.1114 -0.1631 -0.3323
19972SOL    HW168884   1.238   2.403   9.375  2.2219 -0.5939 -2.4783
19972SOL    HW268885   1.208   2.303   9.485 -1.4565  2.4419 -0.4861
19973SOL     OW68886   7.005   8.610   6.199  0.4282 -0.3811  0.2553
19973SOL    HW168887   7.055   8.692   6.201  0.5293 -0.4054 -0.7111
19973SOL    HW268888   7.046   8.555   6.265  1.2487 -0.1418 -0.0407
19974SOL     OW68889  11.761   8.096   1.736 -0.4141 -0.1883  0.6311
19974SOL    HW168890  11.738   8.080   1.645  1.0230  1.1781 -0.0103
19974SOL    HW268891  11.839   8.043   1.751 -0.6735 -0.4496  1.0955
19975SOL     OW68892   9.953   6.179   2.690 -0.3671  0.6508  0.0919
19975SOL    HW168893   9.933   6.230   2.611 -2.4072  0.0135  0.1413
19975SOL    HW268894  10.006   6.238   2.744  1.2599  1.0063 -1.8239
19976SOL     OW68895   3.582   6.098   2.139  0.1845  0.6954 -0.2463
19976SOL    HW168896   3.607   6.022   2.086 -1.5097  0.0615 -0.2077
19976SOL    HW268897   3.604   6.074   2.229 -1.8588 -0.5098 -0.0043
19977SOL     OW68898  10.913  11.120   3.677 -0.1586  0.1403 -0.0598
19977SOL    HW168899  10.833  11.077   3.709 -0.6272  0.9830 -0.0887
19977SOL    HW268900  10.928  11.080   3.591 -0.4454 -0.1545  0.0220
19978SOL     OW68901   1.858  10.172   3.771 -0.4635  0.0442  0.0436
19978SOL    HW168902   1.842  10.263   3.744 -1.1590 -0.0699  0.0481
19978SOL    HW268903   1.781  10.149   3.822 -0.7651 -0.8798 -0.8047
19979SOL     OW68904   0.013  11.011   0.785  0.2571  0.0777  0.0531
19979SOL    HW168905   0.107  11.005   0.800  0.4115  1.5829 -0.1524
19979SOL    HW268906   0.003  11.081   0.721 -0.9419 -0.7883 -0.7462
19980SOL     OW68907   6.950   5.220   9.558  0.1288  0.3330 -0.1073
19980SOL    HW168908   6.967   5.126   9.552  0.2732  0.0811  2.9167
19980SOL    HW268909   6.862   5.230   9.521  0.2760 -0.9027 -0.8638
19981SOL     OW68910   2.566   2.615   0.079  0.3912  0.2484 -0.3864
19981SOL    HW168911   2.588   2.689   0.135  1.1747  0.3504 -0.8133
19981SOL    HW268912   2.600   2.539   0.126  0.7439  0.2996 -0.5526
19982SOL     OW68913   2.543   6.184   3.639 -0.0424  0.0756 -0.2053
19982SOL    HW168914   2.545   6.273   3.605  1.6780  0.4561  0.7779
19982SOL    HW268915   2.499   6.191   3.723 -0.6429 -0.1500 -0.4994
19983SOL     OW68916  10.388   0.144   3.809  1.2935  0.5537  0.3985
19983SOL    HW168917  10.370   0.238   3.802  1.2642  0.6111  1.1782
19983SOL    HW268918  10.382   0.112   3.719 -0.3159  1.0107  0.3160
19984SOL     OW68919  10.928   9.384   0.717  0.2027 -0.1184 -0.7289
19984SOL    HW168920  11.007   9.331   0.724  0.5301  0.5691  1.6898
19984SOL    HW268921  10.894   9.365   0.629  2.1530 -1.6480 -1.2261
19985SOL     OW68922   6.806   3.840   2.428  0.3806  0.1052  0.2832
19985SOL    HW168923   6.784   3.846   2.335  0.5550 -0.6578  0.1851
19985SOL    HW268924   6.724   3.856   2.474  0.1146 -0.3727 -0.0262
19986SOL     OW68925  11.514  10.853   4.646  0.2544  0.5966  0.1449
19986SOL    HW168926  11.448  10.861   4.715  0.0704  0.4918 -0.0157
19986SOL    HW268927  11.467  10.873   4.565  0.2890  0.0111 -0.0307
19987SOL     OW68928   7.349   9.803   1.576  0.2827  0.4017 -0.6613
19987SOL    HW168929   7.282   9.815   1.509 -1.4615  0.3053  0.9522
19987SOL    HW268930   7.331   9.717   1.614 -1.6897  2.0859  2.7829
19988SOL     OW68931   8.428   2.007   6.003  0.1723  0.5443 -0.4578
19988SOL    HW168932   8.515   2.003   6.043 -0.4200  1.7982  1.0305
19988SOL    HW268933   8.394   1.918   6.011  0.7109  0.3996  0.3683
19989SOL     OW68934   8.896   4.460   1.550  0.9454 -0.4518 -0.1580
19989SOL    HW168935   8.975   4.458   1.603  1.7266  2.4446 -1.0383
19989SOL    HW268936   8.835   4.515   1.599  0.5852 -0.2046 -0.8661
19990SOL     OW68937   7.032  11.746  10.314  0.3548  0.4591  0.1883
19990SOL    HW168938   6.982  11.786  10.243  1.8894 -1.0774 -1.8890
19990SOL    HW268939   7.123  11.770  10.296  0.8705 -0.6625  1.1533
19991SOL     OW68940   5.838   6.535   5.567 -0.2118 -0.3093  0.5684
19991SOL    HW168941   5.763   6.576   5.525 -0.4434 -1.6835 -0.4366
19991SOL    HW268942   5.907   6.537   5.501 -0.3679 -1.8777  0.3183
19992SOL     OW68943   4.469   3.199   3.776  0.5353  0.5137 -0.5027
19992SOL    HW168944   4.504   3.214   3.864  1.1533  1.8513 -0.9402
19992SOL    HW268945   4.465   3.104   3.767  2.4339  0.3207  0.2190
19993SOL     OW68946   0.810   9.549  11.137 -0.0789  0.2309 -0.1534
19993SOL    HW168947   0.736   9.587  11.184 -0.9591  0.0302 -1.3445
19993SOL    HW268948   0.815   9.599  11.056  0.0588 -0.8311 -0.8168
19994SOL     OW68949   4.867   2.940   4.567 -0.5547 -0.2319  0.5516
19994SOL    HW168950   4.881   2.995   4.490 -1.1749  3.1108  2.5947
19994SOL    HW268951   4.773   2.921   4.567 -1.0302  1.7602  1.5317
19995SOL     OW68952  12.460   0.820   8.319  0.0584  0.3879  0.0644
19995SOL    HW168953  12.378   0.829   8.368  0.9978  1.1687  1.5556
19995SOL    HW268954  12.504   0.905   8.330  1.1918 -0.1052 -0.4987
19996SOL     OW68955   4.210   2.296   3.868 -0.3151 -0.1962  1.2165
19996SOL    HW168956   4.191   2.299   3.774 -1.2576 -0.1171  1.3951
19996SOL    HW268957   4.240   2.385   3.888  1.4917 -0.6547  0.6946
19997SOL     OW68958   8.242   3.241   0.521  0.2979 -0.8106 -0.2461
19997SOL    HW168959   8.157   3.279   0.543  0.2562 -1.8707  1.6614
19997SOL    HW268960   8.222   3.149   0.503  0.9641 -0.9293 -0.3697
19998SOL     OW68961   5.249  10.859   8.463 -0.1855 -0.0030 -0.0129
19998SOL    HW168962   5.293  10.774   8.466 -1.4634 -0.6975  0.0837
19998SOL    HW268963   5.160  10.840   8.495 -0.1899  1.5687  1.0096
19999SOL     OW68964   7.034   8.442   8.633 -0.0473  0.0858 -0.3060
19999SOL    HW168965   6.951   8.479   8.661  0.5267 -0.6628  2.6882
19999SOL    HW268966   7.052   8.371   8.695  2.7045  0.0548 -0.9786
20000SOL     OW68967   5.385   9.316   7.720  0.8066 -0.6235 -0.3087
20000SOL    HW168968   5.465   9.368   7.722  0.5517 -0.0149 -2.7058
20000SOL    HW268969   5.324   9.369   7.669 -0.7006 -1.6542  0.3768
20001SOL     OW68970  10.687   6.799   9.527  0.0254  0.0717  0.3728
20001SOL    HW168971  10.760   6.817   9.587 -1.2565  3.4566  1.1592
20001SOL    HW268972  10.610   6.793   9.584 -0.8614  0.7668 -0.6942
20002SOL     OW68973  11.312   4.220  10.393  0.2724 -0.3140  0.0009
20002SOL    HW168974  11.271   4.290  10.444 -0.8457 -1.5363  0.8353
20002SOL    HW268975  11.387   4.193  10.446  0.4011 -0.0982 -0.0713
20003SOL     OW68976   7.295   4.501   7.527 -0.5093  0.8203  0.6623
20003SOL    HW168977   7.303   4.471   7.618  0.1795 -0.7140  0.1281
20003SOL    HW268978   7.375   4.550   7.511 -0.1155  0.1460  0.5518
20004SOL     OW68979   5.639   9.336  11.028  0.6225  0.3012 -0.2822
20004SOL    HW168980   5.596   9.253  11.007  0.1209  0.8639 -1.5650
20004SOL    HW268981   5.656   9.331  11.122 -2.2697  0.0267  0.3358
20005SOL     OW68982   5.101   8.237   8.712 -0.5300  0.2483  0.0820
20005SOL    HW168983   5.136   8.325   8.723  0.2363  0.2572 -1.9381
20005SOL    HW268984   5.006   8.248   8.709 -0.4360  1.0142 -0.1365
20006SOL     OW68985  10.553  11.603   5.286 -0.4442 -0.0340  0.2408
20006SOL    HW168986  10.520  11.637   5.369 -0.0508 -1.2501  0.9151
20006SOL    HW268987  10.477  11.567   5.242 -0.3500 -1.1140  0.9420
20007SOL     OW68988   8.584   8.010   4.493  0.2454 -0.0266  0.5671
20007SOL    HW168989   8.621   8.034   4.577  0.7027  0.2035  0.3001
20007SOL    HW268990   8.504   8.063   4.485  0.7949  0.7833  0.3581
20008SOL     OW68991   4.510  11.696   7.823 -0.4151 -0.3117  0.0605
20008SOL    HW168992   4.445  11.659   7.883 -0.3709  0.4434  0.5901
20008SOL    HW268993   4.461  11.715   7.743 -0.7302 -0.2497  0.2666
20009SOL     OW68994  10.865  10.003   9.112  0.0300 -0.1502  0.0492
20009SOL    HW168995  10.774   9.973   9.119  0.3145 -1.3548 -1.0267
20009SOL    HW268996  10.859  10.091   9.075 -0.7652  0.5994  1.8484
20010SOL     OW68997   3.981  11.180   4.899 -0.3716  0.2437 -0.1734
20010SOL    HW168998   4.022  11.152   4.817  1.3725  0.8943  0.4440
20010SOL    HW268999   3.888  11.188   4.877  0.0779  0.6366 -2.1545
20011SOL     OW69000   2.999   2.902   3.618 -0.6856  0.5745 -0.5412
20011SOL    HW169001   3.045   2.985   3.633  0.3252  0.0127 -0.4122
20011SOL    HW269002   3.052   2.857   3.552 -1.5541  0.2757 -1.0436
20012SOL     OW69003   8.525   8.236  11.272 -0.1440  0.7552 -0.3699
20012SOL    HW169004   8.595   8.172  11.285 -1.0412 -0.4909 -1.4435
20012SOL    HW269005   8.570   8.319  11.260  1.0168  0.7979  3.0787
20013SOL     OW69006   7.285  11.385   5.791  0.0184  0.2879 -0.3068
20013SOL    HW169007   7.300  11.364   5.883 -1.2027  0.8032  0.0239
20013SOL    HW269008   7.369  11.366   5.749  0.6801  0.2972  0.9458
20014SOL     OW69009  10.975   7.559   7.824 -0.4840 -0.4484 -0.3483
20014SOL    HW169010  10.915   7.615   7.872  1.8248  1.4932  0.4665
20014SOL    HW269011  10.948   7.567   7.732 -0.9197  1.0706 -0.1083
20015SOL     OW69012   1.506   4.215  11.698  0.0579 -0.1484  0.3810
20015SOL    HW169013   1.410   4.218  11.699 -0.0575 -0.9295 -1.9418
20015SOL    HW269014   1.526   4.122  11.689  1.0829 -0.0174  1.1631
20016SOL     OW69015   9.546   4.194   5.015  0.1772  0.3754 -0.5574
20016SOL    HW169016   9.460   4.156   5.036  0.5813 -0.6445 -0.7000
20016SOL    HW269017   9.594   4.193   5.098 -0.0384  1.2217 -0.4119
20017SOL     OW69018   6.521   1.427   0.224 -0.1868 -0.1306  0.3416
20017SOL    HW169019   6.594   1.488   0.232 -1.3599  1.4384 -0.4929
20017SOL    HW269020   6.448   1.480   0.194 -1.1444 -2.0454 -0.9059
20018SOL     OW69021   2.818   5.096   6.018 -0.5516  0.0265  0.3741
20018SOL    HW169022   2.895   5.102   5.961 -1.5316  1.1523 -0.9015
20018SOL    HW269023   2.842   5.145   6.096 -0.8256  2.7161 -1.1005
20019SOL     OW69024  10.803   3.068   2.465 -0.2086 -0.3159  0.4700
20019SOL    HW169025  10.816   3.004   2.536  0.3343 -0.0614  0.6009
20019SOL    HW269026  10.779   3.014   2.389 -0.0108 -0.6542  0.6449
20020SOL     OW69027  12.020  11.576   6.031  0.3221  0.6245  0.1794
20020SOL    HW169028  11.933  11.573   6.071  0.8811  0.8478  1.4773
20020SOL    HW269029  12.038  11.670   6.022 -0.2883  0.5894 -1.7759
20021SOL     OW69030  11.392  11.418   2.734  0.6120  0.3622  0.2416
20021SOL    HW169031  11.447  11.483   2.777  1.2460 -0.1124  0.1577
20021SOL    HW269032  11.385  11.449   2.644  1.1782  0.1538  0.1205
20022SOL     OW69033   8.680   4.537   3.591 -0.3987 -0.4348 -0.0531
20022SOL    HW169034   8.646   4.482   3.521 -1.0320 -0.2117  0.0755
20022SOL    HW269035   8.735   4.602   3.547 -1.4190  0.1900 -0.4287
20023SOL     OW69036   7.140  10.284  10.567  0.1548 -0.0699  0.0069
20023SOL    HW169037   7.234  10.272  10.554  0.5428  2.8178 -0.4646
20023SOL    HW269038   7.127  10.270  10.661  0.4305 -3.4998 -0.3448
20024SOL     OW69039  11.185   5.852   8.259 -0.1278  0.0721 -0.0359
20024SOL    HW169040  11.091   5.866   8.262  0.1329  1.9328  0.2628
20024SOL    HW269041  11.218   5.921   8.202  1.0907 -0.3960  0.0642
20025SOL     OW69042  10.658   0.380   5.942 -0.7292  0.2081  0.3907
20025SOL    HW169043  10.702   0.410   6.022 -0.2906 -0.8097  0.5475
20025SOL    HW269044  10.565   0.395   5.960 -0.6971 -0.5948  1.3850
20026SOL     OW69045  11.780   5.824   8.181  0.9611 -0.5421 -0.0089
20026SOL    HW169046  11.804   5.912   8.152  0.6113 -0.5574 -0.3472
20026SOL    HW269047  11.786   5.827   8.276 -0.8949  0.3824  0.1025
20027SOL     OW69048   2.405   0.202  12.352 -0.5499 -0.2462 -0.5744
20027SOL    HW169049   2.365   0.116  12.359 -1.0177  0.0176  0.0381
20027SOL    HW269050   2.469   0.205  12.423 -1.9596  0.6560  0.7124
20028SOL     OW69051   0.576   4.686   3.894 -0.0642  0.3839 -0.0813
20028SOL    HW169052   0.497   4.633   3.898  0.7514 -0.8842 -0.0108
20028SOL    HW269053   0.616   4.665   3.810 -0.4471  2.0215 -0.7123
20029SOL     OW69054   5.134   8.297   3.912  0.0041 -0.4343 -1.0382
20029SOL    HW169055   5.081   8.221   3.935 -1.6925  1.0308  0.1279
20029SOL    HW269056   5.071   8.360   3.876  1.3296  0.5153 -1.7721
20030SOL     OW69057   1.633   7.398  11.513  0.3346  0.1152  0.4158
20030SOL    HW169058   1.662   7.488  11.529  0.0685  0.3609 -0.4296
20030SOL    HW269059   1.547   7.393  11.553 -1.0164  1.1974 -2.0955
20031SOL     OW69060   0.794  10.702  11.759 -0.4438  0.0249 -0.7142
20031SOL    HW169061   0.736  10.765  11.802 -0.1893 -1.4953  2.1648
20031SOL    HW269062   0.741  10.663  11.690 -1.5033  1.4457 -0.7443
20032SOL     OW69063   0.172   9.095   5.700  0.3294 -0.2175 -0.2887
20032SOL    HW169064   0.167   9.021   5.760 -1.8221  0.4636  0.4881
20032SOL    HW269065   0.249   9.078   5.646  0.8737 -2.1275  0.9945
20033SOL     OW69066  12.041   5.715   9.079  0.0732 -0.1965 -0.0882
20033SOL    HW169067  12.000   5.675   9.156 -0.1128 -0.7715 -0.4785
20033SOL    HW269068  12.122   5.754   9.113 -0.0329 -0.3942  0.4105
20034SOL     OW69069  10.283   6.519   7.586 -0.2858  0.1168 -0.3255
20034SOL    HW169070  10.267   6.449   7.649 -1.0299  0.3006 -0.2911
20034SOL    HW269071  10.377   6.533   7.588 -0.2201 -0.3697  0.2185
20035SOL     OW69072   3.849   1.216   1.315 -0.1979  0.0727 -0.2647
20035SOL    HW169073   3.772   1.267   1.293 -0.0936 -0.0616 -0.9583
20035SOL    HW269074   3.842   1.137   1.263  0.6483  0.2761 -0.7101
20036SOL     OW69075   1.731   5.853   5.534  0.5497  0.1223  0.3058
20036SOL    HW169076   1.648   5.823   5.571  0.6494  1.5932  1.8726
20036SOL    HW269077   1.789   5.864   5.610  1.5887  0.8879 -0.5559
20037SOL     OW69078  12.142   8.050  10.159 -0.1792 -0.1896  0.1041
20037SOL    HW169079  12.229   8.035  10.197 -0.6928 -1.9910  0.6703
20037SOL    HW269080  12.153   8.030  10.066 -0.2174 -1.5470  0.3727
20038SOL     OW69081   1.767   3.190   9.693 -0.0842 -0.2664  0.2579
20038SOL    HW169082   1.862   3.187   9.680  0.1998  1.0660  1.6833
20038SOL    HW269083   1.755   3.163   9.784 -1.0187  0.1046  0.2524
20039SOL     OW69084  10.171  11.843   0.234  0.2069  0.1544  0.6834
20039SOL    HW169085  10.262  11.869   0.219 -0.3514  0.6886 -2.5684
20039SOL    HW269086  10.124  11.926   0.244  0.0892 -0.1296  3.2704
20040SOL     OW69087  10.466   6.703   6.778  0.1694  0.5805 -0.3914
20040SOL    HW169088  10.502   6.623   6.739 -0.2681  0.2320 -0.0973
20040SOL    HW269089  10.542   6.759   6.794  0.6078 -0.2183  0.4035
20041SOL     OW69090   0.174   4.097   6.042 -0.1678 -0.5066  0.2444
20041SOL    HW169091   0.235   4.072   6.111 -0.6735 -1.5174  0.3425
20041SOL    HW269092   0.226   4.095   5.962 -0.0870 -1.4485  0.3137
20042SOL     OW69093  11.892  10.311   9.585  0.5423 -0.0657  0.3154
20042SOL    HW169094  11.953  10.335   9.515 -0.2632 -0.9603 -0.7405
20042SOL    HW269095  11.849  10.393   9.609  1.9780  0.5374  0.9279
20043SOL     OW69096   6.261   0.125  12.590  0.4317 -0.6166  0.4618
20043SOL    HW169097   6.349   0.104  12.558 -0.3188 -0.8940 -1.5645
20043SOL    HW269098   6.220   0.039  12.605  0.8847 -0.5126  2.7281
20044SOL     OW69099   7.980   7.500   3.854 -0.1424 -0.1236 -0.3003
20044SOL    HW169100   8.025   7.416   3.861  1.0543  0.4359 -1.0766
20044SOL    HW269101   7.889   7.476   3.836  0.0681 -1.2548  0.0626
20045SOL     OW69102   2.896   1.766   1.586 -0.3174 -0.6700  0.2412
20045SOL    HW169103   2.892   1.854   1.549  1.1155 -1.5664 -2.2421
20045SOL    HW269104   2.965   1.771   1.653 -1.2796  0.3943  1.1970
20046SOL     OW69105   1.115   4.006  11.149 -0.0087 -0.5800  0.6350
20046SOL    HW169106   1.133   3.999  11.243 -0.0916 -1.5839  0.5814
20046SOL    HW269107   1.140   3.921  11.113 -0.8667 -0.5293 -0.1109
20047SOL     OW69108  12.526   4.060   3.059 -0.2263  0.1170  0.2515
20047SOL    HW169109  12.463   4.082   3.128 -0.9543 -1.4646  0.1429
20047SOL    HW269110  12.557   4.145   3.026 -2.3970  0.9615  0.2295
20048SOL     OW69111   1.516   4.963   6.553 -0.2392  0.3379 -0.0446
20048SOL    HW169112   1.531   4.972   6.459  2.3583 -2.1765 -0.0257
20048SOL    HW269113   1.592   5.003   6.593 -0.6903  0.2328  0.9348
20049SOL     OW69114   4.576   6.714   5.374  0.6610 -0.2205  0.4207
20049SOL    HW169115   4.630   6.651   5.325 -0.9289 -0.4263 -1.1809
20049SOL    HW269116   4.507   6.661   5.414  0.9844  0.1729  1.5392
20050SOL     OW69117   8.818   0.113   6.534 -0.4761 -0.4742  0.1767
20050SOL    HW169118   8.740   0.086   6.487 -0.0978 -1.8715  0.3120
20050SOL    HW269119   8.878   0.144   6.466 -0.9672  0.1911  0.0343
20051SOL     OW69120   0.583   4.674   9.499 -0.1305 -0.1149 -0.6947
20051SOL    HW169121   0.566   4.750   9.555  1.1723  0.5981 -1.2091
20051SOL    HW269122   0.497   4.645   9.470 -0.7856 -0.0004  1.0233
20052SOL     OW69123   5.353   5.653   3.407  0.3591  0.2460  0.2075
20052SOL    HW169124   5.360   5.747   3.393  2.6239  0.0730 -0.2092
20052SOL    HW269125   5.260   5.634   3.397 -0.0591  2.3451 -0.3007
20053SOL     OW69126   3.152   1.594   4.894 -0.3624 -0.2739  0.9678
20053SOL    HW169127   3.129   1.685   4.914 -0.0417  0.4659 -1.7167
20053SOL    HW269128   3.102   1.573   4.816  1.6272 -1.4935 -0.0526
20054SOL     OW69129   1.482   2.881   5.890 -1.0788 -0.0680  0.1939
20054SOL    HW169130   1.549   2.888   5.822  0.7097  0.2789  1.9070
20054SOL    HW269131   1.420   2.952   5.871 -0.5874  0.0698 -0.9961
20055SOL     OW69132   9.906   5.762   6.116  0.1035  0.1723 -0.0924
20055SOL    HW169133   9.982   5.776   6.060 -0.2517 -1.2169 -0.9833
20055SOL    HW269134   9.862   5.685   6.078 -1.7148  0.9000  0.4121
20056SOL     OW69135   1.584   0.746   4.880  0.4224 -0.7446  0.8796
20056SOL    HW169136   1.667   0.704   4.903  0.2683 -1.0576  0.8598
20056SOL    HW269137   1.520   0.675   4.880  0.4228 -0.7607 -0.5736
20057SOL     OW69138   5.101   1.751  10.769  1.4010  0.1077  0.1465
20057SOL    HW169139   5.021   1.741  10.821  2.2632 -0.1639  1.4703
20057SOL    HW269140   5.082   1.707  10.686 -0.7059  2.2462 -0.5974
20058SOL     OW69141   0.149   7.222   2.097  0.4563  0.5754  0.6181
20058SOL    HW169142   0.111   7.135   2.105 -1.6985  1.2191 -1.5526
20058SOL    HW269143   0.074   7.282   2.102  1.7416  2.2492  0.8293
20059SOL     OW69144   8.981   1.040  10.178  0.2689  0.7029 -0.2818
20059SOL    HW169145   8.928   0.960  10.176  1.6790 -0.2615 -1.7990
20059SOL    HW269146   8.919   1.110  10.155 -0.4799 -0.3258 -1.5626
20060SOL     OW69147   0.919   0.054  12.078 -0.6929  0.6273  0.0446
20060SOL    HW169148   0.852   0.010  12.129 -0.7322  0.2796 -0.2997
20060SOL    HW269149   1.001   0.037  12.125 -0.7138  0.2190 -0.0630
20061SOL     OW69150   7.370  11.777   2.420  0.3123  0.4189 -0.2246
20061SOL    HW169151   7.462  11.803   2.426  0.3074  0.5269 -0.6261
20061SOL    HW269152   7.371  11.681   2.423  0.6202  0.3084 -2.4487
20062SOL     OW69153   3.723   6.863   8.746 -0.5297  0.0837  0.3758
20062SOL    HW169154   3.748   6.901   8.662  1.0934  0.1416  0.8456
20062SOL    HW269155   3.641   6.907   8.769 -0.9255  0.1493 -1.1102
20063SOL     OW69156   1.576   5.023   6.294 -0.1214 -0.5430  0.2795
20063SOL    HW169157   1.633   5.086   6.249  0.4150 -0.6199  0.8358
20063SOL    HW269158   1.600   4.938   6.255 -0.9840 -0.3967 -0.6118
20064SOL     OW69159   0.158   2.177  10.073  1.0580  1.0131  0.6338
20064SOL    HW169160   0.105   2.170   9.994 -0.3623  2.1517  1.4363
20064SOL    HW269161   0.248   2.185  10.041  0.7950 -0.9420 -0.7595
20065SOL     OW69162  11.916   2.563   8.647 -0.6130 -0.4115 -0.0426
20065SOL    HW169163  11.895   2.512   8.725  0.6778  0.6859  1.0655
20065SOL    HW269164  11.871   2.646   8.660  1.4526  0.6768  0.7450
20066SOL     OW69165   4.698   6.901   2.654  0.0431 -0.3772 -0.2841
20066SOL    HW169166   4.789   6.879   2.635  0.2770 -1.7018  2.0147
20066SOL    HW269167   4.660   6.820   2.689 -2.0645  0.1123 -1.2843
20067SOL     OW69168   8.342   2.232   6.792  0.2349 -0.0103 -0.4713
20067SOL    HW169169   8.252   2.218   6.762 -0.2703  0.0916  0.9339
20067SOL    HW269170   8.385   2.277   6.719 -0.7679 -0.2828 -1.2580
20068SOL     OW69171   9.456   7.214   6.347 -0.0863  0.2700 -0.0270
20068SOL    HW169172   9.409   7.272   6.287 -0.7314 -0.4935 -0.2741
20068SOL    HW269173   9.387   7.165   6.392  0.4665 -1.6758 -1.1832
20069SOL     OW69174   9.311   1.394  12.501  0.3381  0.2432  0.0874
20069SOL    HW169175   9.366   1.317  12.489  2.8522  1.7967  0.8136
20069SOL    HW269176   9.318   1.414  12.595 -0.7420  1.0269  0.0211
20070SOL     OW69177  10.317   1.543   5.304  0.2528  0.3640  0.5629
20070SOL    HW169178  10.333   1.449   5.310  1.0972  0.3999 -0.5968
20070SOL    HW269179  10.403   1.582   5.318  0.0237  0.9271  0.4203
20071SOL     OW69180   6.351  11.448   3.493  0.3958  0.2820 -0.0982
20071SOL    HW169181   6.348  11.367   3.442 -1.8977 -0.7250  1.4805
20071SOL    HW269182   6.260  11.462   3.521  1.2066  1.8685  1.9874
20072SOL     OW69183  10.001   7.621   6.474  0.5199  0.4808 -0.0184
20072SOL    HW169184   9.989   7.694   6.536  3.5796  1.3912 -0.3189
20072SOL    HW269185  10.016   7.664   6.390  1.9799 -0.4635 -0.2716
20073SOL     OW69186   1.452  10.365   6.342  0.0150  0.0055  0.1705
20073SOL    HW169187   1.386  10.375   6.411  0.0232  0.5788  0.0976
20073SOL    HW269188   1.402  10.364   6.261 -0.0174 -0.9324  0.1899
20074SOL     OW69189  11.607   7.734  10.677  0.4612 -0.5571  0.5462
20074SOL    HW169190  11.684   7.782  10.708 -0.1986 -0.5040  2.2465
20074SOL    HW269191  11.533   7.791  10.700 -0.1095 -0.5412 -1.1792
20075SOL     OW69192  11.549   3.246   3.019 -0.0656 -0.1176 -0.5289
20075SOL    HW169193  11.641   3.260   3.038 -0.1619 -0.5280  0.2994
20075SOL    HW269194  11.546   3.233   2.924  0.6217  0.6126 -0.6630
20076SOL     OW69195   1.227   9.471  11.842 -0.4154  0.1720 -0.0565
20076SOL    HW169196   1.256   9.483  11.932  0.0705  0.0146 -0.1878
20076SOL    HW269197   1.219   9.376  11.832  0.5929  0.1219 -0.4965
20077SOL     OW69198   5.312   0.441   0.280  0.4818 -0.7883 -0.4262
20077SOL    HW169199   5.329   0.500   0.207 -1.8201  0.3457 -0.1386
20077SOL    HW269200   5.380   0.461   0.344 -0.9483  2.5861  0.2099
20078SOL     OW69201   2.223   5.288  11.266  0.1256  0.4667  0.8109
20078SOL    HW169202   2.195   5.203  11.301  0.2636  0.4433  0.8622
20078SOL    HW269203   2.185   5.291  11.177 -0.7792  0.8047  1.1907
20079SOL     OW69204  11.970  10.488   6.033  0.1483  0.1885  0.5051
20079SOL    HW169205  11.904  10.551   6.003  1.1236  1.9832  1.9079
20079SOL    HW269206  12.021  10.467   5.955  0.2208  1.7117  0.1126
20080SOL     OW69207   4.480   5.154   6.881  0.0314  0.6076  0.4998
20080SOL    HW169208   4.468   5.081   6.820  1.8653  0.9178 -0.3081
20080SOL    HW269209   4.521   5.114   6.958 -0.3268  0.5518  0.6614
20081SOL     OW69210   5.782  10.079   8.464  0.6337  0.4633  0.0735
20081SOL    HW169211   5.784  10.146   8.396  0.0523  1.4662  1.0018
20081SOL    HW269212   5.716  10.017   8.433  0.6713  0.6845 -0.4742
20082SOL     OW69213   0.764   0.562  11.884  0.2936 -0.1997  0.0556
20082SOL    HW169214   0.688   0.509  11.905  0.5525 -0.6134 -0.0548
20082SOL    HW269215   0.731   0.628  11.823 -0.7890  1.8464  2.6214
20083SOL     OW69216   1.664   7.180   0.759  0.3823  0.0914  0.0592
20083SOL    HW169217   1.732   7.244   0.780 -0.8145  1.0948  1.0517
20083SOL    HW269218   1.682   7.106   0.817  1.2570 -0.1346 -0.4757
20084SOL     OW69219   2.779   0.679   2.844 -0.2683  0.0567  0.4113
20084SOL    HW169220   2.771   0.593   2.803  1.9769 -0.2417  0.4901
20084SOL    HW269221   2.785   0.661   2.937 -1.9282  0.4939  0.6341
20085SOL     OW69222   8.999   6.012  11.894  0.3346  0.2822 -0.0776
20085SOL    HW169223   9.025   6.030  11.984 -1.2365  1.4288  0.1807
20085SOL    HW269224   9.032   6.088  11.844  1.9157 -0.7254 -0.6616
20086SOL     OW69225   6.087   3.107   0.502 -0.5922  0.2951  0.5548
20086SOL    HW169226   5.999   3.082   0.476 -1.3418 -0.5967  3.5495
20086SOL    HW269227   6.124   3.026   0.539  1.7134  0.5137 -1.0378
20087SOL     OW69228   5.754   0.250  11.305 -0.1834  0.3073 -0.7954
20087SOL    HW169229   5.666   0.280  11.328  0.1635  1.0266 -0.3498
20087SOL    HW269230   5.803   0.257  11.387 -0.2960 -2.4112 -0.4254
20088SOL     OW69231   3.864   5.253   1.095  0.0650  0.1964 -0.4746
20088SOL    HW169232   3.903   5.169   1.071 -0.9309 -0.3157 -0.3205
20088SOL    HW269233   3.834   5.290   1.012  1.2696  0.8122 -0.6592
20089SOL     OW69234   3.710  10.089   9.980 -0.5150  0.3760  0.0878
20089SOL    HW169235   3.747  10.177   9.986  2.0432 -0.6027 -0.0981
20089SOL    HW269236   3.618  10.100  10.004  0.1072  2.8217  1.7137
20090SOL     OW69237   9.750   6.568   7.944  0.4444 -0.5818 -0.0677
20090SOL    HW169238   9.664   6.543   7.910 -0.5463  1.9120  0.4143
20090SOL    HW269239   9.778   6.492   7.995 -1.7837 -1.2116  0.3386
20091SOL     OW69240   5.276   1.074  11.365 -0.3469  0.4247 -0.1148
20091SOL    HW169241   5.220   1.151  11.362 -0.1425  0.6179  0.7417
20091SOL    HW269242   5.323   1.075  11.281 -1.3614  0.4453 -0.6959
20092SOL     OW69243   5.372   7.662   5.933  0.0979 -0.0403 -0.8410
20092SOL    HW169244   5.380   7.726   5.862  2.7121  0.8730  0.1617
20092SOL    HW269245   5.457   7.619   5.936  0.0357 -0.1485  1.6209
20093SOL     OW69246  12.141  11.060   2.442 -0.2482 -0.0204 -0.4289
20093SOL    HW169247  12.178  11.072   2.530 -0.2982  0.9158 -0.5219
20093SOL    HW269248  12.067  11.001   2.455  2.4332 -3.7309 -0.5457
20094SOL     OW69249  11.812   1.380   0.429 -0.0411 -0.1677 -0.0962
20094SOL    HW169250  11.766   1.315   0.374 -0.5936  1.2133 -1.3453
20094SOL    HW269251  11.783   1.360   0.518 -0.6491 -1.2753 -0.5135
20095SOL     OW69252   6.016  10.064   0.287 -0.1483 -0.1358 -0.0110
20095SOL    HW169253   5.969   9.993   0.244 -0.9651  1.5175 -2.0145
20095SOL    HW269254   5.948  10.117   0.328  0.1225  0.9893 -0.9415
20096SOL     OW69255   2.584   2.093   4.386  0.3269 -0.4802 -0.5019
20096SOL    HW169256   2.559   2.005   4.358  0.5887 -0.3715 -1.0790
20096SOL    HW269257   2.678   2.097   4.373  0.0318  0.6823 -2.8194
20097SOL     OW69258   0.777   2.356   9.623  0.3763 -0.1015  0.0161
20097SOL    HW169259   0.685   2.334   9.610  0.7887 -1.6814 -0.5030
20097SOL    HW269260   0.820   2.331   9.541  1.1525  1.4103 -0.0723
20098SOL     OW69261  11.986  10.039   9.090  0.3780  0.0268 -0.2961
20098SOL    HW169262  11.966  10.057   9.182 -1.4484  0.3837 -0.7180
20098SOL    HW269263  11.985  10.125   9.048 -1.9396 -0.3540 -1.1681
20099SOL     OW69264  11.933   2.841   4.793  0.6190  0.1252 -0.6561
20099SOL    HW169265  11.863   2.814   4.734 -0.4799  1.2897  0.0687
20099SOL    HW269266  12.004   2.869   4.735  0.3138 -0.6036 -1.4021
20100SOL     OW69267   4.488   6.074   1.782 -0.1603  0.3458 -0.7832
20100SOL    HW169268   4.487   6.135   1.856 -0.0190  0.1627 -0.6316
20100SOL    HW269269   4.409   6.096   1.732 -0.7794 -0.1781 -0.0627
20101SOL     OW69270  10.922  10.294  11.473 -0.2823 -0.1300 -0.6371
20101SOL    HW169271  10.902  10.208  11.437 -1.8646  0.0320 -0.2381
20101SOL    HW269272  10.884  10.356  11.411  0.5313  0.2767 -0.7380
20102SOL     OW69273   2.040   3.930   2.057  0.5173 -0.0687 -0.5105
20102SOL    HW169274   1.995   4.008   2.090 -0.3203 -0.2017 -1.2968
20102SOL    HW269275   2.102   3.907   2.126 -1.6480 -0.7709  1.3380
20103SOL     OW69276   5.510   3.069   6.710 -0.1909  0.0291  0.6660
20103SOL    HW169277   5.489   3.039   6.799 -0.2435  2.2269  1.4418
20103SOL    HW269278   5.605   3.059   6.704 -0.1739 -0.0229  0.9968
20104SOL     OW69279  11.856   7.529   7.668 -0.0228 -0.2639 -0.3047
20104SOL    HW169280  11.929   7.528   7.730  0.6283  1.9560 -0.9465
20104SOL    HW269281  11.843   7.437   7.645  0.7390 -0.9929  1.8951
20105SOL     OW69282   4.890   9.546  11.889 -0.1185  0.2025  0.2096
20105SOL    HW169283   4.865   9.510  11.804 -1.1211  3.4807 -1.0156
20105SOL    HW269284   4.812   9.533  11.944 -0.0718 -0.3922  0.1482
20106SOL     OW69285   3.916   8.699   3.377  0.2220 -0.3085 -0.2324
20106SOL    HW169286   3.897   8.656   3.461  2.0497  1.2567  1.0950
20106SOL    HW269287   3.949   8.786   3.402  0.8564  0.2082 -2.5884
20107SOL     OW69288  10.864   2.760  10.880  0.0257  0.0928  0.2444
20107SOL    HW169289  10.784   2.781  10.928  0.0826 -1.0393  0.8734
20107SOL    HW269290  10.842   2.682  10.829  0.6488 -0.0988  0.2555
20108SOL     OW69291  11.310   0.051   9.481 -0.1974 -0.1061 -0.1326
20108SOL    HW169292  11.250   0.072   9.553  1.5583 -1.9204  1.9831
20108SOL    HW269293  11.396   0.047   9.522  1.6210  2.9133 -3.1501
20109SOL     OW69294   6.080   6.536   2.302 -0.0398 -0.1714  0.0941
20109SOL    HW169295   6.032   6.502   2.377 -0.0836  0.0776  0.1796
20109SOL    HW269296   6.012   6.560   2.239  0.0046 -0.5770 -0.1118
20110SOL     OW69297   0.110   2.701  10.789 -0.1359 -0.2462  0.0865
20110SOL    HW169298   0.146   2.773  10.841  0.2266 -0.3211 -0.0615
20110SOL    HW269299   0.043   2.663  10.846  0.7903 -0.8266  0.8380
20111SOL     OW69300   3.178   3.624   3.860 -0.6167  0.6828 -0.0028
20111SOL    HW169301   3.131   3.544   3.835 -0.1038  0.9487 -2.0314
20111SOL    HW269302   3.265   3.614   3.821 -0.1469  1.7095  0.7348
20112SOL     OW69303   6.964   9.172   2.576 -0.2533 -0.4553  0.2493
20112SOL    HW169304   6.873   9.198   2.559 -0.7482 -0.9093  2.0203
20112SOL    HW269305   6.957   9.100   2.639  1.2269 -2.4472 -1.7006
20113SOL     OW69306   6.823  12.090   0.612 -0.0879  0.4886  0.7195
20113SOL    HW169307   6.888  12.052   0.552 -0.6493 -0.7569  0.8650
20113SOL    HW269308   6.765  12.141   0.555 -0.0821  0.0559  0.3127
20114SOL     OW69309   3.924   9.145   4.013  0.1425  0.2549  0.2895
20114SOL    HW169310   3.877   9.196   4.079 -1.5282  0.1484 -0.7438
20114SOL    HW269311   3.856   9.092   3.971  1.0476  0.6346 -1.7747
20115SOL     OW69312  11.592   4.555   7.745  0.3863 -0.3411 -0.3646
20115SOL    HW169313  11.542   4.635   7.757  0.4722 -0.3984  0.4334
20115SOL    HW269314  11.526   4.486   7.739  0.3558 -0.4481  0.9377
20116SOL     OW69315  10.508   2.577  11.566  0.2232 -0.4719 -0.4288
20116SOL    HW169316  10.575   2.567  11.633 -0.7024 -0.1992  0.5700
20116SOL    HW269317  10.471   2.489  11.556  1.7663 -0.9864 -2.1555
20117SOL     OW69318   3.936   5.243   2.839 -0.1016  0.1264 -0.0973
20117SOL    HW169319   4.030   5.256   2.829  0.2429 -1.1236  1.2306
20117SOL    HW269320   3.906   5.320   2.887  0.8095 -0.8816  2.1881
20118SOL     OW69321  12.494   9.870   4.821  0.8313  0.0834 -0.5145
20118SOL    HW169322  12.418   9.834   4.777 -0.0472  0.0021  1.0259
20118SOL    HW269323  12.551   9.900   4.750 -0.3706 -0.3665 -1.6930
20119SOL     OW69324   2.701  11.366   4.437  0.2134 -0.5004 -0.5810
20119SOL    HW169325   2.733  11.443   4.484 -0.8372  0.2758 -1.0869
20119SOL    HW269326   2.738  11.375   4.349 -0.6680 -0.0613 -0.9136
20120SOL     OW69327   6.882   2.637   9.434 -0.3129 -0.0765  0.3791
20120SOL    HW169328   6.824   2.585   9.491  0.0698 -1.3226 -0.3291
20120SOL    HW269329   6.928   2.572   9.382  1.7739  0.8797  0.9433
20121SOL     OW69330   7.900   5.620  12.491  0.0765 -0.0027  0.0413
20121SOL    HW169331   7.965   5.575  12.437 -0.2871 -0.8780  0.3178
20121SOL    HW269332   7.842   5.663  12.428  0.7680  0.5806 -0.2123
20122SOL     OW69333  10.715   9.391  11.707 -0.1509  0.0639 -0.3751
20122SOL    HW169334  10.680   9.347  11.630 -0.2671 -1.1721  0.3681
20122SOL    HW269335  10.777   9.455  11.672 -0.3030 -0.3891 -1.4948
20123SOL     OW69336   4.682  10.422  12.184 -0.0192  0.1044  0.0647
20123SOL    HW169337   4.734  10.374  12.248 -1.4443 -0.2890  0.9744
20123SOL    HW269338   4.685  10.513  12.215 -2.3139 -0.3460  1.9511
20124SOL     OW69339   9.762   0.737   5.045  0.5481 -0.0042 -0.1667
20124SOL    HW169340   9.800   0.715   5.130 -1.2782 -2.6360  0.1103
20124SOL    HW269341   9.699   0.807   5.064 -0.6521 -1.3149  0.9459
20125SOL     OW69342   8.852  11.757   1.620  0.0470 -0.4491 -0.0417
20125SOL    HW169343   8.764  11.740   1.654  0.5088  0.8141  1.9271
20125SOL    HW269344   8.850  11.849   1.593  1.0317 -0.0776  1.0545
20126SOL     OW69345   9.419   2.486   3.244 -0.4152 -0.4249 -0.1772
20126SOL    HW169346   9.390   2.447   3.327  0.4385 -0.9612 -0.1195
20126SOL    HW269347   9.486   2.549   3.268  0.0766 -0.8234 -0.4773
20127SOL     OW69348   8.411   2.097   1.594 -0.2308 -0.2252  0.1629
20127SOL    HW169349   8.391   2.008   1.623  0.3636  0.0048  1.3755
20127SOL    HW269350   8.453   2.086   1.509 -0.0238 -1.1261  0.3684
20128SOL     OW69351   3.779   8.008   8.653 -0.1626 -0.5494  0.4246
20128SOL    HW169352   3.764   8.000   8.559 -0.8197 -1.5047  0.5999
20128SOL    HW269353   3.805   8.099   8.665  0.5428 -0.5721 -0.7574
20129SOL     OW69354   6.116   5.071  11.793 -0.1289 -0.0514  0.2471
20129SOL    HW169355   6.146   5.076  11.703  0.9603  3.6492  0.6489
20129SOL    HW269356   6.109   5.162  11.821 -1.4997 -1.0288  3.5781
20130SOL     OW69357   4.854   5.102  11.151  0.2500 -0.2688  0.9037
20130SOL    HW169358   4.860   5.189  11.191  0.4203  0.1191  0.0586
20130SOL    HW269359   4.945   5.073  11.144  0.3542  0.3328 -0.5962
20131SOL     OW69360   9.002   2.550  11.947 -0.3548  0.0778 -0.2919
20131SOL    HW169361   8.983   2.639  11.918 -0.2789 -0.3188 -1.6117
20131SOL    HW269362   9.097   2.548  11.958 -0.4118  0.3071  0.2819
20132SOL     OW69363   1.097   3.424   5.462  0.0262 -0.4512 -0.5713
20132SOL    HW169364   1.076   3.488   5.395  2.4194  2.0682  0.8761
20132SOL    HW269365   1.040   3.447   5.536  0.6900 -0.1194 -0.1485
20133SOL     OW69366   7.948   0.758   8.241  0.0735  0.3833  0.4170
20133SOL    HW169367   8.035   0.717   8.237 -1.2177 -2.6680  0.7909
20133SOL    HW269368   7.930   0.766   8.334  0.0296  1.2741  0.3386
20134SOL     OW69369   3.421   9.132   2.579 -0.2949 -0.2284 -0.0912
20134SOL    HW169370   3.469   9.111   2.499  0.4868  0.6801  0.1295
20134SOL    HW269371   3.457   9.216   2.608 -1.5624  0.1611  0.4361
20135SOL     OW69372   5.820   9.780   9.695  0.0975 -0.1660  0.7258
20135SOL    HW169373   5.861   9.860   9.662 -2.7537  1.2210  0.1535
20135SOL    HW269374   5.892   9.730   9.733  2.4130  1.5056 -1.1196
20136SOL     OW69375  12.016   5.916   4.675  0.1032  0.0658  0.3707
20136SOL    HW169376  12.045   5.878   4.759 -4.0068  1.1263  2.5185
20136SOL    HW269377  12.048   6.006   4.677 -0.4534  0.2595  1.1346
20137SOL     OW69378   2.109   5.548   4.955  0.1606  0.1290  0.5981
20137SOL    HW169379   2.193   5.561   4.999  1.5196  1.5715 -2.1307
20137SOL    HW269380   2.091   5.631   4.912 -2.0666 -0.5470  0.0797
20138SOL     OW69381  10.550  10.344   7.026 -0.1290  0.1042  0.2953
20138SOL    HW169382  10.497  10.276   7.067  0.6491  0.2181  1.5310
20138SOL    HW269383  10.543  10.326   6.932 -0.8076 -1.0215  0.5417
20139SOL     OW69384   2.165   0.378   6.989 -0.8779 -0.1637  0.2268
20139SOL    HW169385   2.072   0.398   6.992 -0.5261  1.6049  0.0265
20139SOL    HW269386   2.190   0.391   6.897 -0.5043 -1.0466  0.1872
20140SOL     OW69387   2.977   0.207   3.032  0.2813  0.2253  0.2642
20140SOL    HW169388   3.002   0.125   2.990  3.1403  1.0068  0.2453
20140SOL    HW269389   2.941   0.260   2.960 -2.3038 -1.1468  0.4079
20141SOL     OW69390   3.611   4.786   7.001  0.2430 -0.5575 -0.1080
20141SOL    HW169391   3.541   4.845   6.975 -0.3882  0.2640  2.9831
20141SOL    HW269392   3.567   4.713   7.045  1.2221 -0.0890  1.7820
20142SOL     OW69393  10.244   8.642   5.435 -0.3602 -0.5298 -0.4484
20142SOL    HW169394  10.258   8.595   5.518 -0.7398  0.0683 -0.0355
20142SOL    HW269395  10.314   8.707   5.432  0.4653 -1.4293 -1.2615
20143SOL     OW69396  10.441  11.224  10.558 -0.0993  0.7657 -0.0214
20143SOL    HW169397  10.432  11.235  10.653 -0.7805  1.1109 -0.1216
20143SOL    HW269398  10.353  11.239  10.523 -0.5290 -2.2168 -0.4689
20144SOL     OW69399   8.087   6.539   9.327 -0.4837  0.3904  0.0529
20144SOL    HW169400   8.042   6.457   9.308  0.4638  0.2248 -1.6509
20144SOL    HW269401   8.075   6.592   9.248  1.1297  0.8659  0.0915
20145SOL     OW69402   1.233  11.287   4.039  0.1263 -0.0926 -0.7356
20145SOL    HW169403   1.297  11.308   4.108  1.5880 -0.0851 -2.0302
20145SOL    HW269404   1.167  11.234   4.083  0.2916  1.0400  0.9661
20146SOL     OW69405  10.971   2.415   1.567 -0.2930 -0.1990 -0.2624
20146SOL    HW169406  11.016   2.410   1.483 -0.1082 -0.0738 -0.1715
20146SOL    HW269407  10.879   2.398   1.546 -0.9468  3.4554 -1.0981
20147SOL     OW69408   7.555   4.066   0.019 -0.4659 -0.3458 -0.0257
20147SOL    HW169409   7.505   3.986   0.036 -0.8208 -0.3749 -1.1751
20147SOL    HW269410   7.489   4.134   0.007 -0.2178 -0.2534 -0.9062
20148SOL     OW69411  12.252   9.034   8.296  0.1148  0.4025 -0.1363
20148SOL    HW169412  12.316   8.971   8.328 -0.8019 -0.6619 -0.3164
20148SOL    HW269413  12.203   8.987   8.228  0.8323  2.0236 -1.8740
20149SOL     OW69414   4.760  10.919   0.735  0.2770 -0.5721 -0.3414
20149SOL    HW169415   4.720  10.975   0.668 -0.2625  0.3734  0.7262
20149SOL    HW269416   4.844  10.961   0.754 -0.1849 -0.0306  0.5555
20150SOL     OW69417   0.341   5.233  10.424 -0.3134 -0.3025 -0.1543
20150SOL    HW169418   0.275   5.245  10.491  0.3877 -2.1563  0.9490
20150SOL    HW269419   0.292   5.234  10.341 -0.9734  3.8530  0.0859
20151SOL     OW69420   2.831  11.933   5.488  0.3648 -0.2618  0.2623
20151SOL    HW169421   2.811  11.855   5.435 -0.2095 -0.3219  0.5590
20151SOL    HW269422   2.866  11.897   5.569  1.4385 -0.1653 -0.1432
20152SOL     OW69423   9.437   2.126   0.865 -0.0405 -0.2155  0.0807
20152SOL    HW169424   9.473   2.209   0.896  1.3402 -0.8129  0.1640
20152SOL    HW269425   9.394   2.088   0.941  0.0993  0.0229  0.2771
20153SOL     OW69426   5.579   9.647   9.760  0.5090 -0.0777 -0.4848
20153SOL    HW169427   5.586   9.623   9.853 -2.6992  2.1935  0.5026
20153SOL    HW269428   5.651   9.708   9.746  0.0995  0.8031  1.0171
20154SOL     OW69429   8.128   9.271   7.513 -0.0087 -0.1489  0.2328
20154SOL    HW169430   8.144   9.365   7.507  1.2709 -0.3811 -0.2671
20154SOL    HW269431   8.038   9.260   7.481 -0.2331  0.9100  0.4713
20155SOL     OW69432  10.925   6.695   5.887 -0.2804  0.7647 -0.1408
20155SOL    HW169433  10.933   6.610   5.932  0.4046 -0.4230 -2.3569
20155SOL    HW269434  11.006   6.740   5.907  1.0969 -0.7356 -1.9847
20156SOL     OW69435   9.133  11.338   8.869 -0.3812 -0.0289 -0.4309
20156SOL    HW169436   9.153  11.325   8.962  0.7168 -0.2568 -0.6930
20156SOL    HW269437   9.068  11.270   8.849 -2.1071  1.2237  0.6171
20157SOL     OW69438  10.932   3.924   5.824  0.4380 -0.0182 -0.3299
20157SOL    HW169439  10.930   3.864   5.898  0.9840 -0.1900 -0.4473
20157SOL    HW269440  11.017   3.907   5.782  0.0246 -0.1221 -1.1528
20158SOL     OW69441   5.707  11.779   5.921  0.3298 -0.0898  0.2007
20158SOL    HW169442   5.684  11.871   5.939  1.3366 -0.0839  1.6294
20158SOL    HW269443   5.790  11.766   5.967  0.2658 -1.6934 -0.0894
20159SOL     OW69444   1.079   4.372   0.613 -0.3028 -0.0735  0.2760
20159SOL    HW169445   1.064   4.465   0.600 -0.9306 -0.2474 -0.3601
20159SOL    HW269446   1.163   4.354   0.571  0.1174  0.3142  0.9452
20160SOL     OW69447   0.600   8.686   9.909  0.3333  0.0710 -0.0672
20160SOL    HW169448   0.650   8.713   9.986 -1.5349  0.1367  1.1837
20160SOL    HW269449   0.584   8.768   9.861  0.2255  0.2422  0.2612
20161SOL     OW69450  12.157  10.811   4.709 -0.1647 -0.5586  0.0288
20161SOL    HW169451  12.205  10.879   4.660 -0.1872 -2.0393 -2.2109
20161SOL    HW269452  12.169  10.834   4.801 -2.1473  3.8830 -0.5516
20162SOL     OW69453   4.379   3.104   9.385  0.3665 -0.6093 -0.1158
20162SOL    HW169454   4.382   3.167   9.313  0.3926 -0.9927 -0.4550
20162SOL    HW269455   4.288   3.076   9.389  0.1235  0.2673  0.7574
20163SOL     OW69456   9.696   9.995   3.481  0.6883 -0.4008  0.3469
20163SOL    HW169457   9.642   9.981   3.403 -0.5887  0.8426  0.9589
20163SOL    HW269458   9.755   9.919   3.484  0.0453 -0.9992 -1.2279
20164SOL     OW69459   8.088   3.020   2.208  0.3660 -0.6138  0.1523
20164SOL    HW169460   8.076   3.111   2.180 -1.6960 -1.1651 -1.0073
20164SOL    HW269461   8.164   2.990   2.158 -0.0168 -0.0276 -0.8166
20165SOL     OW69462   8.609   3.970  10.736  0.0002  0.4991 -0.0651
20165SOL    HW169463   8.597   3.885  10.778  1.5220  0.8557  1.1513
20165SOL    HW269464   8.664   3.953  10.660 -1.3478  0.1252 -1.0028
20166SOL     OW69465   6.198   9.329   4.407 -0.0003 -0.4790 -0.0209
20166SOL    HW169466   6.265   9.357   4.470 -1.1648  1.4481  0.4452
20166SOL    HW269467   6.117   9.368   4.439 -1.0456 -1.3275 -1.5150
20167SOL     OW69468   6.383  12.230   8.756 -0.2635  0.2518  0.0562
20167SOL    HW169469   6.298  12.190   8.737  0.5182  0.0372 -3.9626
20167SOL    HW269470   6.384  12.309   8.702  0.8616  2.1910  2.6993
20168SOL     OW69471   6.198   3.501   0.041 -0.1039  0.0837  0.4688
20168SOL    HW169472   6.190   3.412   0.008 -2.0920  0.1915  0.5282
20168SOL    HW269473   6.260   3.494   0.114 -1.4874 -1.5868  1.5523
20169SOL     OW69474   7.623   4.059  11.793  0.0765 -0.4852  0.2176
20169SOL    HW169475   7.590   4.065  11.882 -2.4046  0.4145 -0.6912
20169SOL    HW269476   7.649   3.967  11.783  0.3885 -0.5997  1.8350
20170SOL     OW69477   4.828   8.561   5.184 -0.1696 -0.0080 -0.1498
20170SOL    HW169478   4.733   8.555   5.174 -0.0307  0.2027 -2.0644
20170SOL    HW269479   4.852   8.637   5.131  1.1288 -0.4692 -0.2442
20171SOL     OW69480   9.026   9.443   6.848  0.6835 -0.1105  0.5552
20171SOL    HW169481   8.945   9.437   6.898  0.8804 -0.2590  0.8582
20171SOL    HW269482   9.037   9.356   6.809  1.4647 -0.5641  1.7198
20172SOL     OW69483   1.764   6.681  11.327 -0.1552  0.3614 -0.2440
20172SOL    HW169484   1.670   6.669  11.330 -0.0747 -0.6544 -1.1131
20172SOL    HW269485   1.777   6.776  11.334 -1.0618  0.3438  2.8729
20173SOL     OW69486  12.139   3.062  12.512 -0.7643 -0.1647  0.1660
20173SOL    HW169487  12.230   3.089  12.524 -0.3334 -1.2898 -0.3979
20173SOL    HW269488  12.095   3.141  12.481  0.4911 -0.1136 -1.6626
20174SOL     OW69489   3.560   8.425   8.339  0.0235 -0.1621 -0.0976
20174SOL    HW169490   3.551   8.330   8.349  0.9353 -0.3870 -1.2169
20174SOL    HW269491   3.642   8.446   8.385 -1.0414  0.3704  1.6335
20175SOL     OW69492   2.861  10.515   5.293  0.0322 -0.0673 -0.2377
20175SOL    HW169493   2.788  10.563   5.252  0.4142  0.1105 -0.7235
20175SOL    HW269494   2.937  10.572   5.279  0.4551 -0.7213 -0.6417
20176SOL     OW69495   0.321   7.861   4.154 -0.7905  1.1667  0.2706
20176SOL    HW169496   0.248   7.907   4.196 -1.1688  1.6050 -0.8227
20176SOL    HW269497   0.322   7.895   4.064 -0.5418 -0.3576 -0.3273
20177SOL     OW69498   9.085   0.689   3.241  0.0481  0.2647  0.7162
20177SOL    HW169499   9.074   0.784   3.236  0.8789  0.3384 -0.0747
20177SOL    HW269500   9.001   0.654   3.213  0.6342  0.7857 -2.0015
20178SOL     OW69501   6.194   8.543   5.710 -0.0407 -0.3003 -0.0493
20178SOL    HW169502   6.168   8.634   5.696 -1.1550 -0.6581 -0.4460
20178SOL    HW269503   6.280   8.548   5.752  1.5272  0.9452 -3.0366
20179SOL     OW69504   9.252   0.311   7.960  0.0823 -0.3372 -0.3320
20179SOL    HW169505   9.218   0.222   7.951 -1.0058  0.0656 -0.3955
20179SOL    HW269506   9.237   0.351   7.875  1.1039 -0.2608 -0.4863
20180SOL     OW69507   1.285  10.893   7.126 -0.2118 -0.3503 -0.1063
20180SOL    HW169508   1.245  10.968   7.170 -0.3291  0.3923 -1.4142
20180SOL    HW269509   1.376  10.918   7.115 -0.4440  0.0103 -1.3479
20181SOL     OW69510   0.821   9.742   2.993  0.0503 -0.5260 -0.4415
20181SOL    HW169511   0.766   9.820   3.001 -0.4926 -1.0327  0.9066
20181SOL    HW269512   0.840   9.715   3.083  1.7015 -0.9461 -0.8630
20182SOL     OW69513   7.976   5.452   4.664  0.2723 -0.4275 -0.6263
20182SOL    HW169514   8.016   5.431   4.749 -0.5296 -0.1773 -0.1837
20182SOL    HW269515   7.994   5.375   4.610  0.1946 -0.8770 -0.0217
20183SOL     OW69516  11.461  11.364   9.035  0.3938  0.4851  0.6219
20183SOL    HW169517  11.441  11.334   9.124  1.0812 -1.3143  0.2156
20183SOL    HW269518  11.556  11.378   9.035  0.4112  0.3874  0.1595
20184SOL     OW69519   9.048   2.667   5.375  0.3798  0.4932  0.9596
20184SOL    HW169520   9.101   2.735   5.416 -0.6068  2.7828 -1.2785
20184SOL    HW269521   8.959   2.687   5.401  0.1334 -0.4204  0.8586
20185SOL     OW69522   8.832  10.268   8.855 -0.4156  0.0753 -0.3462
20185SOL    HW169523   8.862  10.276   8.765  1.3944 -0.0279  0.1936
20185SOL    HW269524   8.745  10.307   8.856 -1.5765 -2.1722 -2.6399
20186SOL     OW69525   2.133   7.512   8.801 -0.5704  0.6653 -0.1034
20186SOL    HW169526   2.055   7.568   8.806 -1.2643 -0.2963  0.0282
20186SOL    HW269527   2.117   7.454   8.727  0.4028  0.9998 -0.5974
20187SOL     OW69528   1.306   0.134   9.679  0.2786  0.2626  0.0223
20187SOL    HW169529   1.308   0.039   9.663  0.4030  0.0549  1.1806
20187SOL    HW269530   1.395   0.154   9.708  0.1002  0.6373  0.3074
20188SOL     OW69531   1.871   7.155  11.680 -0.7427 -0.2914  0.3512
20188SOL    HW169532   1.923   7.231  11.654 -0.1846 -0.9845 -0.5957
20188SOL    HW269533   1.935   7.084  11.691 -1.4662 -1.1704 -0.8880
20189SOL     OW69534   9.708   8.179   5.430  0.5309  0.1971  0.4828
20189SOL    HW169535   9.739   8.176   5.340  0.8428  1.9701  0.4873
20189SOL    HW269536   9.705   8.087   5.458  1.3496 -0.3151 -1.0041
20190SOL     OW69537   5.937   6.487   8.751 -0.1754 -0.1904  0.2265
20190SOL    HW169538   5.954   6.577   8.778 -0.2680 -0.2049  0.3319
20190SOL    HW269539   5.850   6.468   8.785 -0.4923 -0.0436 -0.4888
20191SOL     OW69540   7.250   9.191   5.354  0.1978 -0.3186 -0.6285
20191SOL    HW169541   7.291   9.112   5.320  3.1070  0.7446  0.1198
20191SOL    HW269542   7.285   9.261   5.300 -0.3130  0.7036  0.3331
20192SOL     OW69543   4.481   4.550   3.797  0.0088  0.0874  0.1594
20192SOL    HW169544   4.488   4.608   3.873  2.6055 -0.3703  0.3641
20192SOL    HW269545   4.486   4.462   3.834  0.3883 -0.1540 -0.4519
20193SOL     OW69546   6.306   3.536   1.401  0.4155 -0.0654  0.0739
20193SOL    HW169547   6.384   3.590   1.385  0.9122 -0.6184  0.5598
20193SOL    HW269548   6.293   3.541   1.496 -2.0930  2.6471 -0.2790
20194SOL     OW69549   4.412   1.716   2.044  0.1366  0.4574  0.2303
20194SOL    HW169550   4.413   1.621   2.048  0.2502  0.4514  0.0769
20194SOL    HW269551   4.405   1.736   1.950  0.4213  0.6038  0.2395
20195SOL     OW69552   5.766   0.724  12.461 -0.4712  0.3244  0.0210
20195SOL    HW169553   5.770   0.674  12.542  1.5788  1.3887  0.6392
20195SOL    HW269554   5.846   0.701  12.414 -0.6765  1.2005 -0.7867
20196SOL     OW69555   2.818   4.071   7.025 -0.3312 -0.0990 -0.1397
20196SOL    HW169556   2.890   4.017   7.058  0.8262  0.3932 -1.7648
20196SOL    HW269557   2.767   4.092   7.103  0.1036 -2.1517  0.7823
20197SOL     OW69558   8.913   0.643  11.692  0.0167  0.4012 -0.3387
20197SOL    HW169559   8.953   0.720  11.652 -0.3047  0.6773 -0.1231
20197SOL    HW269560   8.863   0.676  11.766 -0.8675  0.0983 -0.7829
20198SOL     OW69561   5.467   7.102   1.371 -0.1401  0.3933  0.1853
20198SOL    HW169562   5.500   7.183   1.409  0.8363 -0.3575  1.0054
20198SOL    HW269563   5.476   7.037   1.441 -1.7466 -0.2450 -0.1385
20199SOL     OW69564   3.696  11.205   4.813  0.1265  0.4524  0.1179
20199SOL    HW169565   3.619  11.168   4.770 -0.4094  0.9373  0.6466
20199SOL    HW269566   3.682  11.188   4.906  0.1629  1.4418  0.3097
20200SOL     OW69567   5.408   8.474   8.996  0.3697 -0.2311  0.3001
20200SOL    HW169568   5.406   8.565   9.027  2.2860  0.7310 -2.0410
20200SOL    HW269569   5.494   8.442   9.024  0.3193 -0.8041 -0.1993
20201SOL     OW69570   8.394  10.841   1.209 -0.3137  0.4909 -0.0067
20201SOL    HW169571   8.382  10.845   1.304 -0.6545  0.8555 -0.0577
20201SOL    HW269572   8.417  10.750   1.191 -1.2863  0.1638  0.3168
20202SOL     OW69573  12.117   5.353  12.279  0.0328  0.7144 -0.3027
20202SOL    HW169574  12.079   5.329  12.195  0.0909  1.1614 -0.4582
20202SOL    HW269575  12.042   5.353  12.340  0.2379 -1.2478  0.0194
20203SOL     OW69576  10.340   2.950   6.795  0.0330  0.8170  0.3953
20203SOL    HW169577  10.375   2.891   6.861 -1.0711  0.1024  0.3665
20203SOL    HW269578  10.284   2.895   6.740 -0.7924  1.8150  0.1895
20204SOL     OW69579   1.907   2.737   3.941  0.4026  0.2952 -0.0146
20204SOL    HW169580   1.864   2.810   3.897 -1.2806 -1.7863 -2.0896
20204SOL    HW269581   1.973   2.707   3.878  0.1592 -0.7756  0.2225
20205SOL     OW69582   3.370  10.695  10.695  0.3797 -0.4711  0.2262
20205SOL    HW169583   3.383  10.624  10.758 -1.3138 -1.6701 -0.7148
20205SOL    HW269584   3.362  10.651  10.610  2.7089  1.1008 -0.9375
20206SOL     OW69585   1.533  10.848   1.201 -0.4391  0.2124  0.2738
20206SOL    HW169586   1.511  10.936   1.171 -2.3084 -0.2865  0.0617
20206SOL    HW269587   1.507  10.846   1.293 -0.7437 -0.2042  0.1860
20207SOL     OW69588   2.434   1.901  10.336 -0.3681  0.6172  0.2518
20207SOL    HW169589   2.416   1.911  10.430 -1.0354  0.3151  0.1648
20207SOL    HW269590   2.349   1.877  10.298 -0.2554  1.4311 -0.5355
20208SOL     OW69591   4.472  12.404   9.250  0.3065 -0.4586  0.6702
20208SOL    HW169592   4.493  12.368   9.164  1.8807 -0.6597  1.1047
20208SOL    HW269593   4.397  12.353   9.279 -0.0850 -0.5665 -0.4610
20209SOL     OW69594  11.446   7.961   2.151  0.4606 -0.2277 -0.5592
20209SOL    HW169595  11.470   7.965   2.058  0.3171  0.7626 -0.5606
20209SOL    HW269596  11.455   8.051   2.182  0.3353 -0.5214  0.3484
20210SOL     OW69597  10.120   7.997   5.681 -0.0547 -0.2051  0.6219
20210SOL    HW169598  10.089   8.041   5.602  0.9114 -0.9832 -0.2078
20210SOL    HW269599  10.160   8.067   5.733 -0.0692  0.1935  0.1072
20211SOL     OW69600  11.131   5.047   4.106  0.4873 -0.1766  0.2249
20211SOL    HW169601  11.119   5.112   4.037 -0.5728 -0.0099  0.5471
20211SOL    HW269602  11.066   4.980   4.086  0.5776 -0.4131  0.7306
20212SOL     OW69603   0.199   9.604   3.949  0.3859  0.0432  0.1483
20212SOL    HW169604   0.177   9.532   3.890 -0.5045 -1.6563  2.3668
20212SOL    HW269605   0.114   9.634   3.983  0.8358  1.2300  0.2683
20213SOL     OW69606   5.957   1.642   4.872 -0.4133 -1.0010  0.2936
20213SOL    HW169607   6.035   1.659   4.925 -0.3483  1.7947 -0.5508
20213SOL    HW269608   5.988   1.650   4.781 -1.9440  2.3052 -0.0841
20214SOL     OW69609   5.002   2.154   4.381  0.5081  0.1186  0.1286
20214SOL    HW169610   5.029   2.071   4.342  0.0225  0.3615 -0.7380
20214SOL    HW269611   4.931   2.131   4.440 -0.1652  0.0101 -0.7104
20215SOL     OW69612   9.657  10.335   0.423  0.4066  0.2795  0.2223
20215SOL    HW169613   9.698  10.339   0.337 -3.2061 -0.4531 -1.7460
20215SOL    HW269614   9.621  10.247   0.428  0.9027  0.1540  2.7504
20216SOL     OW69615  11.340  11.557   9.748  0.0464  0.2792 -0.1099
20216SOL    HW169616  11.343  11.648   9.719 -0.0451  0.5848  0.8204
20216SOL    HW269617  11.376  11.559   9.837 -0.7745 -0.4573  0.2483
20217SOL     OW69618   0.373   0.751   8.884  0.4944 -0.3618  0.0414
20217SOL    HW169619   0.339   0.753   8.974  0.1400 -1.5421 -0.0458
20217SOL    HW269620   0.352   0.837   8.848  1.7556  0.5937  1.4820
20218SOL     OW69621   4.085   1.214   5.523 -0.0427  0.3018 -0.1532
20218SOL    HW169622   4.094   1.288   5.583 -2.0736  0.5058 -0.0253
20218SOL    HW269623   3.998   1.226   5.484  0.6082 -0.6712 -1.9921
20219SOL     OW69624   8.068   9.105   1.209  0.0305 -0.3739 -0.2513
20219SOL    HW169625   8.152   9.100   1.163  0.2900 -2.4500  0.3367
20219SOL    HW269626   8.088   9.148   1.292  0.9050 -2.3304  0.5997
20220SOL     OW69627  10.009   3.297   4.104 -0.0021 -0.1251 -0.5891
20220SOL    HW169628   9.975   3.227   4.049 -0.5661  1.0258 -1.7598
20220SOL    HW269629  10.088   3.327   4.059  0.4105 -0.2099  0.0657
20221SOL     OW69630   4.002   0.518  12.115 -1.1264  0.6042  0.3134
20221SOL    HW169631   3.951   0.436  12.115 -0.2321  0.0271  0.9518
20221SOL    HW269632   4.000   0.547  12.206 -0.7926  0.8817  0.2343
20222SOL     OW69633   2.734   4.981   4.052 -0.5107 -0.1629  0.1652
20222SOL    HW169634   2.797   4.920   4.012 -0.3089  0.3656 -0.3424
20222SOL    HW269635   2.764   4.990   4.143  1.4551  1.6708 -0.5552
20223SOL     OW69636   4.763   5.417   3.659  0.3636 -0.0088  0.0528
20223SOL    HW169637   4.764   5.510   3.634 -0.6442 -0.8413 -3.7932
20223SOL    HW269638   4.851   5.386   3.641  0.5887  0.0955  0.9488
20224SOL     OW69639   7.728   7.912   4.572  0.2289 -0.4758 -0.0622
20224SOL    HW169640   7.665   7.976   4.539 -0.6829 -2.7837 -3.3059
20224SOL    HW269641   7.674   7.844   4.613  0.9731 -0.5621  0.8217
20225SOL     OW69642   7.507   7.656  12.112  0.0736  0.4510 -0.5348
20225SOL    HW169643   7.513   7.732  12.169 -0.4660  0.2076 -0.1412
20225SOL    HW269644   7.561   7.589  12.155  0.5669  0.6127 -0.8927
20226SOL     OW69645   4.886   4.852  11.984 -0.1763  0.2721 -0.0702
20226SOL    HW169646   4.802   4.890  11.957  0.1002  1.6192  0.8052
20226SOL    HW269647   4.951   4.897  11.931 -0.0229 -1.5131 -1.4958
20227SOL     OW69648   3.323   4.178   3.935 -0.3173  0.5219 -0.0757
20227SOL    HW169649   3.289   4.104   3.885  1.5407 -0.2711 -0.2654
20227SOL    HW269650   3.283   4.168   4.022 -2.0207  0.7678 -0.7967
20228SOL     OW69651  11.208   4.887   4.501 -0.1833 -0.2383 -0.0613
20228SOL    HW169652  11.288   4.845   4.532 -0.2292  0.2388  0.7361
20228SOL    HW269653  11.140   4.855   4.559 -0.6204 -0.7737 -0.8421
20229SOL     OW69654  11.040  11.605   4.012  0.1354  0.3096  0.3636
20229SOL    HW169655  10.979  11.532   4.003  0.5745  0.1956 -2.8694
20229SOL    HW269656  10.985  11.681   4.028 -0.7632 -0.0208 -1.0640
20230SOL     OW69657   4.164   7.869   2.479  0.3185 -0.2484  0.3313
20230SOL    HW169658   4.126   7.808   2.542  1.2536 -1.2664 -0.0459
20230SOL    HW269659   4.258   7.852   2.484  0.6719  1.6081  0.6509
20231SOL     OW69660  11.935   6.849  11.670  0.0562 -0.2894 -0.3240
20231SOL    HW169661  11.969   6.938  11.659  0.0835 -0.4532 -1.6962
20231SOL    HW269662  12.010   6.798  11.702  0.4477 -0.1363 -0.9880
20232SOL     OW69663   0.403  12.022  11.463 -0.2042  0.8056  0.1752
20232SOL    HW169664   0.387  12.096  11.522 -0.9462  2.0286 -1.4736
20232SOL    HW269665   0.473  12.052  11.405  2.0628 -1.1822  1.6706
20233SOL     OW69666   5.656   2.624  11.605 -0.1487 -0.7538  0.4047
20233SOL    HW169667   5.605   2.618  11.685  0.6030 -0.8278  0.8867
20233SOL    HW269668   5.647   2.538  11.564 -0.3426 -0.7948  0.5357
20234SOL     OW69669  11.892   1.417  12.361 -0.1809  0.2528  0.1919
20234SOL    HW169670  11.850   1.497  12.331  0.8000  0.5515 -0.4499
20234SOL    HW269671  11.920   1.373  12.281 -1.3175 -1.0916  0.5049
20235SOL     OW69672   1.937   0.744   8.448  0.6228 -0.1399 -0.2002
20235SOL    HW169673   1.933   0.653   8.420 -0.1376 -1.5351  3.8411
20235SOL    HW269674   1.846   0.769   8.461  0.5845  2.2500 -3.6788
20236SOL     OW69675  12.137  10.975  10.769  0.1251 -0.1860 -0.0063
20236SOL    HW169676  12.222  10.933  10.755  1.0782  1.6548 -0.1259
20236SOL    HW269677  12.121  10.968  10.863 -0.0743 -1.3832 -0.1192
20237SOL     OW69678  10.880  11.873   1.801  0.0364 -0.8850 -0.7031
20237SOL    HW169679  10.913  11.896   1.888 -1.0824 -0.6194 -0.3295
20237SOL    HW269680  10.948  11.818   1.763  1.5475  0.7600 -0.5323
20238SOL     OW69681  10.102   1.757   6.472  0.3214 -0.8519 -0.0799
20238SOL    HW169682  10.133   1.712   6.551  0.2388 -1.8364 -0.5869
20238SOL    HW269683  10.009   1.770   6.487  0.3812 -0.6873  0.1481
20239SOL     OW69684   6.340   5.509   5.969 -0.2313 -0.2778  0.3505
20239SOL    HW169685   6.273   5.571   5.940 -0.1393 -0.5153 -0.3836
20239SOL    HW269686   6.291   5.443   6.019 -0.2589  0.6579  1.6214
20240SOL     OW69687   3.065   0.195   0.212  0.6492  0.6551  0.2898
20240SOL    HW169688   3.093   0.209   0.122 -0.0544  2.6300  0.3300
20240SOL    HW269689   3.137   0.145   0.252  1.3756  0.5295 -1.1223
20241SOL     OW69690   0.674  12.476   8.179  0.6442  0.8079 -0.0092
20241SOL    HW169691   0.601  12.521   8.222  0.2606 -0.6266  0.9288
20241SOL    HW269692   0.689  12.399   8.234  2.3045  0.6228 -0.6806
20242SOL     OW69693   2.226   3.680   4.198  0.2521  0.1425 -0.1142
20242SOL    HW169694   2.319   3.672   4.176  0.3744 -0.3568  0.5389
20242SOL    HW269695   2.210   3.775   4.197  0.6932  0.2196 -0.5150
20243SOL     OW69696  10.382   3.343   2.793  0.1102 -0.1886 -1.1855
20243SOL    HW169697  10.447   3.289   2.748  0.6509  0.0961 -0.7506
20243SOL    HW269698  10.310   3.282   2.812  0.0926 -0.4259 -1.9728
20244SOL     OW69699   0.104  11.717   7.943 -0.4690  0.0022 -0.4462
20244SOL    HW169700   0.027  11.686   7.896 -1.1880  1.3362 -0.1914
20244SOL    HW269701   0.084  11.807   7.966  2.1034  1.2279 -2.4745
20245SOL     OW69702   7.844   2.405  12.211 -0.0591 -0.0850 -0.1261
20245SOL    HW169703   7.939   2.399  12.212  0.0963  1.6507  1.4184
20245SOL    HW269704   7.826   2.499  12.218 -1.9039 -0.2646 -1.6043
20246SOL     OW69705   5.034   5.130   3.347 -0.0055  0.2621 -0.1169
20246SOL    HW169706   5.082   5.072   3.406  1.1010  0.7638 -0.5012
20246SOL    HW269707   5.090   5.138   3.270  0.4220  2.7249  0.3839
20247SOL     OW69708   8.771   7.658  11.070 -0.2107 -0.0226  0.6772
20247SOL    HW169709   8.826   7.580  11.064 -1.9347 -1.1340 -2.5419
20247SOL    HW269710   8.833   7.731  11.064  1.0868 -1.2055 -3.3228
20248SOL     OW69711   5.166   0.239  10.843 -0.5580  0.0945  0.3495
20248SOL    HW169712   5.105   0.273  10.908 -0.7833  1.3723 -0.4949
20248SOL    HW269713   5.111   0.203  10.773 -0.3332  0.2602  0.0850
20249SOL     OW69714   2.137   7.960   7.446 -0.0927 -0.1813  0.2551
20249SOL    HW169715   2.125   7.878   7.493 -0.5993  0.3125  0.9997
20249SOL    HW269716   2.055   7.974   7.399  0.3507 -0.5901 -0.6770
20250SOL     OW69717  10.701   3.038   1.103  0.4528  0.4076 -0.3426
20250SOL    HW169718  10.664   3.126   1.104  1.2317  0.7394 -0.3268
20250SOL    HW269719  10.649   2.990   1.168 -0.1608  0.7691 -0.5588
20251SOL     OW69720   7.642   5.039   0.592 -0.1614 -0.2600 -0.0530
20251SOL    HW169721   7.653   4.994   0.675  2.7904  1.5907  0.7141
20251SOL    HW269722   7.715   5.009   0.538  1.0495  2.3112 -0.0228
20252SOL     OW69723   7.008   7.781   8.206  0.0206  0.7384 -0.0492
20252SOL    HW169724   7.103   7.789   8.221  0.0488 -0.2393  0.3516
20252SOL    HW269725   6.974   7.869   8.225  0.8330  1.0842 -0.1343
20253SOL     OW69726  11.894  10.662  11.610  0.5376 -0.1923 -0.0613
20253SOL    HW169727  11.989  10.655  11.620  0.3826  0.8810  3.4915
20253SOL    HW269728  11.880  10.743  11.562  1.4029 -0.1430 -0.2323
20254SOL     OW69729  12.097  10.088   6.224  0.4054  0.0013 -0.3389
20254SOL    HW169730  12.058  10.127   6.302  0.0069 -0.8294 -0.1063
20254SOL    HW269731  12.181  10.133   6.214  1.1028 -0.7982  1.3876
20255SOL     OW69732   6.860   6.602   7.183 -0.5215  0.6414  0.3759
20255SOL    HW169733   6.881   6.516   7.220  0.2519 -0.0823 -1.5721
20255SOL    HW269734   6.929   6.660   7.215  1.5850 -0.5280 -1.7543
20256SOL     OW69735   4.644   0.905  11.485  0.3332  0.4865  0.2874
20256SOL    HW169736   4.652   0.819  11.444  0.3256  0.2670  0.7445
20256SOL    HW269737   4.550   0.915  11.501  0.2556  0.8511 -0.3316
20257SOL     OW69738   8.202   3.882   5.532 -0.2581  0.5902 -0.0741
20257SOL    HW169739   8.261   3.939   5.483 -0.3226  2.2971  1.7079
20257SOL    HW269740   8.254   3.852   5.606 -0.7021 -0.4445 -0.1705
20258SOL     OW69741   0.570   8.099   0.359  0.6953 -0.0603 -0.9418
20258SOL    HW169742   0.497   8.154   0.386  1.5310  1.6016 -1.8966
20258SOL    HW269743   0.596   8.052   0.438 -1.9277 -1.3874 -0.7742
20259SOL     OW69744   3.557   8.270   4.860 -0.5193  0.1528 -0.2001
20259SOL    HW169745   3.487   8.318   4.816 -1.2292  0.9236  1.6672
20259SOL    HW269746   3.611   8.338   4.900 -0.3082 -0.5222  0.6916
20260SOL     OW69747   6.531  11.843   7.881  0.7525 -0.4493  0.2533
20260SOL    HW169748   6.543  11.814   7.972 -1.5550 -0.5198  0.5980
20260SOL    HW269749   6.562  11.933   7.881 -0.9849  0.2147  1.6587
20261SOL     OW69750  11.116   5.247   3.871  0.9654 -0.5876  0.2509
20261SOL    HW169751  11.211   5.259   3.872  0.8626  0.5244 -0.5983
20261SOL    HW269752  11.090   5.273   3.783  0.0327 -2.3447 -0.0219
20262SOL     OW69753   7.856  10.663   6.529  0.6713  0.2434 -0.4764
20262SOL    HW169754   7.778  10.649   6.477  1.0530 -0.9919 -0.7569
20262SOL    HW269755   7.835  10.627   6.615  0.7142  0.4995 -0.3556
20263SOL     OW69756   7.550   8.025   8.785  0.4348  0.1500 -0.1413
20263SOL    HW169757   7.527   7.973   8.863  1.8837  0.0238  0.2170
20263SOL    HW269758   7.488   8.099   8.788  0.1499 -0.1030  0.8620
20264SOL     OW69759  10.166   7.893   5.324  0.4648 -0.4872 -0.3947
20264SOL    HW169760  10.120   7.951   5.385  0.9103 -1.1337  0.5857
20264SOL    HW269761  10.212   7.953   5.265  1.2820  0.1983  0.8742
20265SOL     OW69762   9.172  11.301   7.611 -0.1634  0.6481  0.6111
20265SOL    HW169763   9.097  11.298   7.552  1.3944  0.1268 -1.4592
20265SOL    HW269764   9.203  11.391   7.607  0.2716  0.4885  0.1288
20266SOL     OW69765   0.620   1.717   2.220  0.7730 -0.0851  0.2444
20266SOL    HW169766   0.641   1.803   2.258  1.1604 -0.3870  0.7142
20266SOL    HW269767   0.528   1.726   2.193  0.7090  0.3725  0.5861
20267SOL     OW69768  10.273   9.027  10.138  0.0581  0.8618 -0.1638
20267SOL    HW169769  10.253   9.102  10.194  1.1101  1.7127 -0.8820
20267SOL    HW269770  10.288   8.955  10.198 -1.8951  0.9691  0.5135
20268SOL     OW69771   9.487   5.738   9.569  0.0941  0.1872  0.0726
20268SOL    HW169772   9.552   5.780   9.626  0.9499 -0.5419 -0.3448
20268SOL    HW269773   9.522   5.750   9.481 -1.2769  1.4066 -0.3476
20269SOL     OW69774   9.032   9.387   7.151 -0.4729 -0.0440 -0.3504
20269SOL    HW169775   9.030   9.416   7.242  0.1216 -0.0467 -0.3309
20269SOL    HW269776   9.125   9.370   7.134 -0.4484  0.9903 -1.2868
20270SOL     OW69777   6.734   4.559   4.676  0.4578 -0.2431  0.2852
20270SOL    HW169778   6.714   4.613   4.753  0.6195 -0.8232  0.7381
20270SOL    HW269779   6.715   4.616   4.602  0.0120  0.2242  0.7500
20271SOL     OW69780   1.686   4.747   3.980 -0.5515  0.3075  0.3193
20271SOL    HW169781   1.638   4.683   4.034 -0.2401 -1.5980 -1.5345
20271SOL    HW269782   1.627   4.766   3.907 -0.3642  1.6971  0.4977
20272SOL     OW69783   9.326  10.136   7.936  0.0114 -0.3274  0.0441
20272SOL    HW169784   9.342  10.130   8.031 -1.9144 -0.9752  0.3659
20272SOL    HW269785   9.369  10.218   7.910  0.5076 -0.0920  1.4883
20273SOL     OW69786   8.410   0.032   5.982 -0.5865  0.2637  0.2906
20273SOL    HW169787   8.369   0.048   6.067 -0.5506 -1.1913  0.6178
20273SOL    HW269788   8.499   0.066   5.991 -0.3594 -0.4979  1.1018
20274SOL     OW69789   0.853   4.435   4.914  0.3129 -0.0231  0.2017
20274SOL    HW169790   0.767   4.395   4.906  0.0712  0.2638  1.2527
20274SOL    HW269791   0.914   4.361   4.922  0.0504 -0.2156  0.4351
20275SOL     OW69792  12.101   5.357  10.332 -0.7951  0.2047  0.0576
20275SOL    HW169793  12.101   5.282  10.271  1.9250  1.2038 -1.3259
20275SOL    HW269794  12.151   5.326  10.408  1.3781  0.8619 -1.0145
20276SOL     OW69795   0.722   2.027  12.509 -0.0434  0.0747  0.5140
20276SOL    HW169796   0.801   1.975  12.494 -0.7814 -0.8995 -0.0788
20276SOL    HW269797   0.686   2.042  12.422 -0.3011  0.8572  0.7490
20277SOL     OW69798   9.777   5.191   9.074  0.1018 -0.1099 -0.2503
20277SOL    HW169799   9.812   5.266   9.121  0.6425 -2.1550  2.9694
20277SOL    HW269800   9.684   5.189   9.099 -0.4170  0.5888 -2.0008
20278SOL     OW69801   3.463   5.689   2.163  0.2953  0.2026 -0.6645
20278SOL    HW169802   3.542   5.701   2.215  0.7103 -0.9609 -0.9961
20278SOL    HW269803   3.452   5.594   2.157 -0.8129  0.3422 -1.0916
20279SOL     OW69804   7.865   8.342   8.222 -0.0431  0.2416  0.0993
20279SOL    HW169805   7.938   8.280   8.221  0.1609  0.4702 -1.2913
20279SOL    HW269806   7.787   8.288   8.227  0.1811 -0.0390  0.6911
20280SOL     OW69807  10.736   4.681  11.204  0.0874  0.0558  0.0085
20280SOL    HW169808  10.711   4.736  11.278  2.0856  0.6407  0.3300
20280SOL    HW269809  10.697   4.595  11.223  0.6026  0.1679  1.7980
20281SOL     OW69810   9.888   4.301   4.736 -0.3088  0.5565  0.2457
20281SOL    HW169811   9.806   4.350   4.729  0.2478  1.3083 -1.4541
20281SOL    HW269812   9.925   4.302   4.648 -0.3665 -3.1972 -0.0056
20282SOL     OW69813   5.374  11.592  12.054 -0.4100  0.4225  0.5476
20282SOL    HW169814   5.463  11.614  12.026  0.2124 -0.9438  1.3273
20282SOL    HW269815   5.317  11.632  11.988  0.8067  0.8579 -0.2711
20283SOL     OW69816   4.438  10.848  11.091  0.5796 -0.1290  0.1847
20283SOL    HW169817   4.462  10.940  11.083 -0.5967  0.2336  0.6232
20283SOL    HW269818   4.480  10.819  11.172  0.3222  0.2416  0.4536
20284SOL     OW69819  11.805   6.451   4.230 -0.2024 -0.2176 -0.1382
20284SOL    HW169820  11.809   6.399   4.149  0.4566  0.8773 -0.8224
20284SOL    HW269821  11.721   6.497   4.225  0.3961  0.8351 -0.8385
20285SOL     OW69822   0.021   4.036   7.300  0.3840 -0.1779 -0.6201
20285SOL    HW169823   0.100   4.027   7.353  0.2150 -1.1814 -0.5264
20285SOL    HW269824   0.021   3.960   7.243 -0.9864 -0.6968  0.0305
20286SOL     OW69825   4.882  10.303   1.980 -0.0848  0.4493  0.1010
20286SOL    HW169826   4.965  10.332   1.942 -0.2732 -0.3531 -0.9660
20286SOL    HW269827   4.882  10.208   1.966  0.4387 -0.1246  3.3105
20287SOL     OW69828   4.647   5.043   0.150 -0.2496  0.2700  0.0714
20287SOL    HW169829   4.668   4.987   0.075  1.1473  1.2385 -0.3110
20287SOL    HW269830   4.711   5.020   0.216 -0.5367  0.4585  0.4162
20288SOL     OW69831   9.702   5.955  12.459  0.0558  0.0352  0.0214
20288SOL    HW169832   9.658   6.031  12.497  1.9483  0.5412  1.3647
20288SOL    HW269833   9.725   5.983  12.370 -0.8130  0.3670 -0.1065
20289SOL     OW69834   8.955   9.729   2.538  0.2361  0.0483 -0.0723
20289SOL    HW169835   8.969   9.787   2.462  0.1412  0.0816 -0.0652
20289SOL    HW269836   8.870   9.756   2.573  1.2056  1.4883  1.3298
20290SOL     OW69837   6.846   4.896   3.591 -0.4431 -0.8414 -0.5258
20290SOL    HW169838   6.782   4.834   3.558 -3.1858  0.9423  0.9519
20290SOL    HW269839   6.812   4.921   3.677  1.3236  1.5357 -0.4106
20291SOL     OW69840  10.344  10.495   7.324  0.5357  0.4010 -0.3271
20291SOL    HW169841  10.260  10.489   7.278  0.6245  1.1313 -0.6083
20291SOL    HW269842  10.403  10.439   7.274  0.4119  0.5084 -0.5972
20292SOL     OW69843   9.875   5.347   5.433 -0.0755  0.1261  0.1437
20292SOL    HW169844   9.816   5.422   5.433 -2.0751 -1.3571  0.5472
20292SOL    HW269845   9.960   5.382   5.461 -1.4215  1.8817  2.3014
20293SOL     OW69846   2.480  10.499   0.726  0.0173 -0.3617 -0.3831
20293SOL    HW169847   2.407  10.451   0.687  0.0653  0.7357 -1.9435
20293SOL    HW269848   2.551  10.435   0.730 -0.4792 -0.9399 -0.6091
20294SOL     OW69849   7.430   3.353   8.462 -0.0039  0.4839 -0.9806
20294SOL    HW169850   7.415   3.446   8.444  1.1647  0.8293 -0.3123
20294SOL    HW269851   7.433   3.347   8.558 -0.3279 -0.2950 -1.0094
20295SOL     OW69852   6.711   5.018   2.957 -0.0695  0.3067  0.5064
20295SOL    HW169853   6.804   4.994   2.965  0.1168 -0.1867 -2.0529
20295SOL    HW269854   6.710   5.114   2.962  0.6055  0.3219  0.4485
20296SOL     OW69855   4.829   6.549   9.547  0.2538 -0.2407  0.2702
20296SOL    HW169856   4.921   6.528   9.532 -0.0574 -0.9543 -0.7287
20296SOL    HW269857   4.790   6.465   9.574 -0.0817  0.0906  0.8372
20297SOL     OW69858   0.930  12.225   4.717 -0.4391  0.1382  0.3149
20297SOL    HW169859   0.905  12.315   4.698  0.8909  0.0850 -2.2307
20297SOL    HW269860   1.004  12.232   4.777 -1.2421  0.6501  1.2642
20298SOL     OW69861   3.384   1.043  11.404 -1.1934 -0.1690  0.4399
20298SOL    HW169862   3.302   0.999  11.384 -1.0264  0.0083 -0.6441
20298SOL    HW269863   3.421   1.067  11.319  0.1392 -0.5466  0.8839
20299SOL     OW69864   5.520   7.744   5.670 -0.4130  0.4368  0.3654
20299SOL    HW169865   5.606   7.705   5.684  0.4211  1.3186 -1.8239
20299SOL    HW269866   5.477   7.685   5.608 -1.8434 -0.5293  2.1752
20300SOL     OW69867   0.315  11.323   2.489 -0.2046  0.2312  0.5084
20300SOL    HW169868   0.228  11.288   2.471 -0.6337  2.0248 -1.2150
20300SOL    HW269869   0.330  11.305   2.581 -1.8244 -1.3130  0.5098
20301SOL     OW69870   4.490  10.669   7.386  0.1649 -0.1692 -0.3104
20301SOL    HW169871   4.568  10.629   7.424 -0.4829 -0.2911  0.9438
20301SOL    HW269872   4.524  10.738   7.329  1.2669 -2.0899 -2.0695
20302SOL     OW69873  10.374  11.324   5.015 -0.2623  0.3053  0.0097
20302SOL    HW169874  10.464  11.357   5.007 -0.3408  0.3851 -0.5440
20302SOL    HW269875  10.384  11.238   5.058 -0.0969  1.2311  1.9354
20303SOL     OW69876   9.567   9.815   1.262  0.6176 -0.1061  0.0454
20303SOL    HW169877   9.516   9.742   1.227 -2.7019  2.1791 -0.3681
20303SOL    HW269878   9.546   9.817   1.355  1.4753 -0.2431  0.2475
20304SOL     OW69879   4.640   7.093  12.255 -0.2785  0.0248 -0.2661
20304SOL    HW169880   4.563   7.110  12.201 -0.5033  1.1079  0.3810
20304SOL    HW269881   4.608   7.090  12.345  0.1392 -1.5120 -0.1225
20305SOL     OW69882  12.388  10.699  12.269 -0.2814 -0.3451  0.6824
20305SOL    HW169883  12.342  10.731  12.347  1.9886 -0.5203  2.1833
20305SOL    HW269884  12.389  10.773  12.209 -0.2584  0.4622  1.6638
20306SOL     OW69885   6.702   2.496   0.117 -0.3422  0.0017  0.1099
20306SOL    HW169886   6.666   2.580   0.089 -0.4911 -0.1817 -0.2629
20306SOL    HW269887   6.785   2.518   0.160 -0.6590  0.3832  0.5319
20307SOL     OW69888   6.514  10.415  12.068  0.5348  0.1286 -0.5457
20307SOL    HW169889   6.503  10.322  12.089  2.4819 -0.4301 -1.7565
20307SOL    HW269890   6.607  10.432  12.082  0.5700  1.4267 -2.0962
20308SOL     OW69891   1.510   0.927  11.168  0.3362 -0.5143  0.4419
20308SOL    HW169892   1.523   0.924  11.073  2.0505 -0.9268  0.6524
20308SOL    HW269893   1.592   0.963  11.202 -0.2617 -0.3471  1.7718
20309SOL     OW69894   4.550   1.175   3.269  0.0962  0.0015  0.0013
20309SOL    HW169895   4.538   1.080   3.278 -0.9686  0.1473  0.2068
20309SOL    HW269896   4.519   1.210   3.352 -3.7885  0.8794 -1.6416
20310SOL     OW69897   8.445  11.065  10.474 -0.1974 -0.5318 -0.1372
20310SOL    HW169898   8.441  10.991  10.533  0.4396 -0.0648  0.5077
20310SOL    HW269899   8.464  11.027  10.388  0.0166 -1.1186  0.1663
20311SOL     OW69900   0.904  10.900   3.182 -0.1809  0.2204  0.6554
20311SOL    HW169901   0.841  10.969   3.203 -0.2339  0.6157 -0.6725
20311SOL    HW269902   0.868  10.821   3.223 -1.1160  0.6112  0.6178
20312SOL     OW69903   7.366   0.750  10.457  0.5899  0.2807 -0.4348
20312SOL    HW169904   7.323   0.822  10.503  0.3382  1.5256 -2.4837
20312SOL    HW269905   7.294   0.690  10.434  0.3738  0.7735 -1.0914
20313SOL     OW69906  12.469   9.955  11.310  0.2553  0.1183  0.8557
20313SOL    HW169907  12.501   9.869  11.337 -0.4487  0.0305  1.4351
20313SOL    HW269908  12.384   9.963  11.352 -0.1817  0.6390 -0.1004
20314SOL     OW69909   2.257  11.629   8.792  0.1900  0.0714  0.1648
20314SOL    HW169910   2.208  11.555   8.827 -0.6404  1.4887  2.2049
20314SOL    HW269911   2.343  11.593   8.769 -0.3875 -1.6100  0.5070
20315SOL     OW69912  10.381   8.368  10.457  0.2115  0.1384  0.4775
20315SOL    HW169913  10.395   8.443  10.514 -0.3528 -0.6997  1.7688
20315SOL    HW269914  10.289   8.344  10.471 -0.5119  1.0089 -2.1824
20316SOL     OW69915   3.921   2.163   5.544  0.5612 -0.3372  0.2169
20316SOL    HW169916   3.992   2.099   5.542  0.4713 -0.4126 -1.6748
20316SOL    HW269917   3.842   2.110   5.555  0.6774 -0.3258  1.2624
20317SOL     OW69918   3.176   5.831  11.343  0.0996  0.3274 -0.2308
20317SOL    HW169919   3.163   5.895  11.273 -0.1443  1.3421  0.7250
20317SOL    HW269920   3.087   5.807  11.370  0.1822  1.0210  0.6913
20318SOL     OW69921   2.174  10.822   8.228  0.1451 -0.3284  0.0595
20318SOL    HW169922   2.247  10.773   8.192 -0.5176 -0.7321 -0.7468
20318SOL    HW269923   2.213  10.873   8.300  1.5817  0.8777 -1.5097
20319SOL     OW69924   2.068   4.877  11.969  0.1682  0.0764  0.3436
20319SOL    HW169925   2.042   4.840  12.054 -2.5142  0.0532 -0.4268
20319SOL    HW269926   2.114   4.806  11.925 -0.4941 -0.6788  0.8567
20320SOL     OW69927   3.832  10.357   7.298  0.2310  0.7977 -0.2694
20320SOL    HW169928   3.802  10.298   7.366  0.6951 -0.0928 -0.8200
20320SOL    HW269929   3.915  10.392   7.331  0.8975 -0.2977 -0.7260
20321SOL     OW69930   7.134   5.725   2.041 -0.2782 -0.1165  0.0911
20321SOL    HW169931   7.129   5.798   1.980  0.6368 -0.1554 -0.0368
20321SOL    HW269932   7.153   5.649   1.986 -0.6593 -0.3642  0.2909
20322SOL     OW69933   8.129   9.514   5.416  0.0986  0.0224 -0.3130
20322SOL    HW169934   8.065   9.459   5.462  0.6575 -1.2982 -1.0522
20322SOL    HW269935   8.214   9.486   5.451  0.4520 -0.2252 -1.3423
20323SOL     OW69936   7.808   1.840  11.285 -0.4016 -0.0217  0.0858
20323SOL    HW169937   7.768   1.807  11.204 -3.3812  2.5436  0.2989
20323SOL    HW269938   7.870   1.907  11.255 -0.3335 -0.1831 -0.1384
20324SOL     OW69939  10.512   4.410   4.833  0.1120 -0.2977  0.3506
20324SOL    HW169940  10.534   4.493   4.876 -1.9238  0.2493  0.4301
20324SOL    HW269941  10.517   4.430   4.740 -3.0157  0.7794  0.3136
20325SOL     OW69942   7.885  11.977   5.583 -0.7090 -0.2013  0.5395
20325SOL    HW169943   7.974  11.950   5.607 -1.0194 -3.1150 -1.0536
20325SOL    HW269944   7.829  11.937   5.649 -0.9521  0.5029  0.7707
20326SOL     OW69945   9.801   0.417   7.548  0.1308 -0.1745 -0.3030
20326SOL    HW169946   9.742   0.418   7.623 -0.4695  1.0581 -0.7635
20326SOL    HW269947   9.880   0.374   7.580 -0.7988 -1.3358  0.4893
20327SOL     OW69948   2.843   9.174   2.406  0.1251  0.1490  0.1729
20327SOL    HW169949   2.886   9.162   2.491 -0.5895 -1.7825  0.3267
20327SOL    HW269950   2.782   9.100   2.401 -0.9099  1.0767 -1.3858
20328SOL     OW69951   3.278  12.572   5.388  0.0738  0.3498 -0.2754
20328SOL    HW169952   3.188  12.599   5.410  0.3900  0.9403  0.3104
20328SOL    HW269953   3.329  12.653   5.392  0.4616  0.1912 -1.6009
20329SOL     OW69954   6.046   2.439   4.216  0.1982 -0.1850 -0.6415
20329SOL    HW169955   5.952   2.435   4.196 -0.0824 -0.9721  0.6772
20329SOL    HW269956   6.077   2.349   4.206  0.0703 -0.6170  1.9989
20330SOL     OW69957   6.393  10.053   1.409 -0.1212 -0.0538  0.0690
20330SOL    HW169958   6.469  10.084   1.360 -1.0324  0.6122 -0.9773
20330SOL    HW269959   6.394   9.958   1.397  0.8131 -0.1068  0.4872
20331SOL     OW69960   5.126  10.977   6.738  0.2382  0.5831 -0.4080
20331SOL    HW169961   5.045  10.927   6.731  0.0770  0.9757 -1.6297
20331SOL    HW269962   5.156  10.963   6.827  0.5021 -2.1745 -0.8452
20332SOL     OW69963   8.788   7.605  11.745  0.4886  0.4815  0.0774
20332SOL    HW169964   8.762   7.560  11.664 -0.0696 -1.1526  1.1134
20332SOL    HW269965   8.727   7.678  11.753 -2.7427 -2.0900  1.4076
20333SOL     OW69966   4.548   9.125   0.118  0.2638  0.8014  0.1608
20333SOL    HW169967   4.538   9.032   0.134  0.6815  0.7126 -0.0765
20333SOL    HW269968   4.603   9.157   0.190  0.2311  0.8374  0.1700
20334SOL     OW69969   3.992   0.361   7.606 -0.1141  0.1895 -0.1693
20334SOL    HW169970   4.017   0.342   7.696 -0.1289 -0.8794 -0.3840
20334SOL    HW269971   3.985   0.275   7.563  0.1647  0.6900 -1.2633
20335SOL     OW69972   6.766   9.477   9.693  0.0585  0.7523  0.6032
20335SOL    HW169973   6.809   9.393   9.677 -3.0280 -0.7115 -1.0844
20335SOL    HW269974   6.837   9.541   9.695  2.3098 -1.4965 -1.1464
20336SOL     OW69975  11.257   5.431   5.152 -0.2945  0.2850 -0.2477
20336SOL    HW169976  11.285   5.479   5.230  1.0882 -1.3987  0.3524
20336SOL    HW269977  11.283   5.341   5.169 -2.7386 -0.7214 -1.3558
20337SOL     OW69978  10.415   4.061   5.978 -0.9187 -0.2562  0.0135
20337SOL    HW169979  10.498   4.109   5.978  0.0928 -1.8303 -2.1656
20337SOL    HW269980  10.384   4.066   5.887 -3.3683  0.4329  0.7920
20338SOL     OW69981  10.403   9.978   1.957 -0.0408 -0.2121 -0.0705
20338SOL    HW169982  10.428  10.056   1.907 -2.0162  0.3151 -0.3124
20338SOL    HW269983  10.455   9.984   2.037 -0.0453  1.2984 -0.1493
20339SOL     OW69984  11.248   8.388   1.320  0.9857 -0.1540  0.2664
20339SOL    HW169985  11.207   8.365   1.236  1.0427 -0.4325  0.3125
20339SOL    HW269986  11.302   8.464   1.301 -0.1556  0.7050  0.3680
20340SOL     OW69987  10.562   4.748   3.553  0.1826  0.1416 -0.2662
20340SOL    HW169988  10.614   4.684   3.602  0.9203 -0.1091 -1.3228
20340SOL    HW269989  10.577   4.831   3.598 -0.1174 -0.2751  0.6280
20341SOL     OW69990   6.598   7.346   8.200 -0.6366 -0.4448  0.0588
20341SOL    HW169991   6.552   7.418   8.157 -0.0478 -0.3259 -0.3891
20341SOL    HW269992   6.657   7.312   8.133 -2.0766 -2.4560 -0.2964
20342SOL     OW69993   6.426   4.254  12.044 -0.1588 -0.2197  0.3095
20342SOL    HW169994   6.425   4.300  12.128  1.9220 -0.7025  0.6478
20342SOL    HW269995   6.423   4.162  12.067 -0.0580 -0.3442 -0.1641
20343SOL     OW69996  10.411   6.164   2.026 -0.4531 -0.3091 -0.4608
20343SOL    HW169997  10.462   6.207   1.957 -0.8006 -0.4986 -0.8428
20343SOL    HW269998  10.324   6.204   2.019  0.1041  1.3278  1.3714
20344SOL     OW69999   6.400  10.689   6.137 -0.5345 -0.6097 -0.5801
20344SOL    HW170000   6.393  10.594   6.146 -0.9766 -0.6857 -1.6844
20344SOL    HW270001   6.478  10.703   6.084 -1.2522 -0.4207 -1.6021
20345SOL     OW70002  11.985   0.011   2.873 -0.1705  0.4347 -0.1320
20345SOL    HW170003  11.904   0.002   2.822 -0.4134 -0.8845  0.4542
20345SOL    HW270004  12.047   0.052   2.812 -1.4697  2.2039 -0.3498
20346SOL     OW70005   2.188   4.202   2.645  0.2577  0.6696 -0.1615
20346SOL    HW170006   2.109   4.165   2.684  0.0404  0.1721 -1.0512
20346SOL    HW270007   2.251   4.130   2.647  0.0749  0.4679 -1.2062
20347SOL     OW70008  10.437   6.360   0.234  0.2768  0.2707  0.2123
20347SOL    HW170009  10.444   6.264   0.232 -0.3847  0.1904 -2.6376
20347SOL    HW270010  10.370   6.377   0.300  0.4479 -1.2261  0.8157
20348SOL     OW70011   7.947  11.845   0.021  0.1127  0.4342 -0.0985
20348SOL    HW170012   7.908  11.932   0.008 -0.3304  0.2164 -0.2625
20348SOL    HW270013   7.886  11.801   0.081 -1.6875 -1.0557 -2.8103
20349SOL     OW70014   1.829   9.243   3.193 -0.6582 -0.8547  0.3886
20349SOL    HW170015   1.775   9.248   3.114 -0.9721  0.8536  0.6813
20349SOL    HW270016   1.768   9.259   3.264  0.1486  0.8057  0.7506
20350SOL     OW70017   2.895   7.729   2.264 -0.0864 -0.0922 -0.6461
20350SOL    HW170018   2.990   7.717   2.258  0.0220  0.5331 -0.2221
20350SOL    HW270019   2.868   7.755   2.176  0.3284  1.0218 -0.4552
20351SOL     OW70020   1.408   9.517   1.649  0.4937 -0.7317 -0.1650
20351SOL    HW170021   1.382   9.472   1.730  0.1484  0.4340  0.3931
20351SOL    HW270022   1.340   9.493   1.586 -0.0615 -0.4652  0.3195
20352SOL     OW70023   7.751   3.691   7.869  0.2975  0.3884  0.2818
20352SOL    HW170024   7.813   3.623   7.842  0.2841  0.1544  0.8321
20352SOL    HW270025   7.682   3.643   7.915 -1.1843  0.4206 -1.7653
20353SOL     OW70026  12.550  10.951  10.620 -0.9257 -0.2422  0.7613
20353SOL    HW170027  12.532  10.956  10.713  0.7444  0.5555  1.0753
20353SOL    HW270028  12.625  10.892  10.613 -0.6115  0.2297 -0.0023
20354SOL     OW70029   1.702  12.372   6.554 -0.1835  0.4757  0.0210
20354SOL    HW170030   1.696  12.467   6.552 -0.5107  0.4435 -0.4865
20354SOL    HW270031   1.628  12.341   6.502 -0.1920 -0.0605  0.3391
20355SOL     OW70032   4.420  11.907   3.406 -0.2061  0.2377  0.4182
20355SOL    HW170033   4.390  11.993   3.378  2.3175  1.3597  0.9340
20355SOL    HW270034   4.459  11.921   3.492  0.5211 -1.3522  0.3977
20356SOL     OW70035   2.065   6.944  11.832 -0.1622 -0.3125  0.2748
20356SOL    HW170036   2.073   7.028  11.878 -1.0416 -0.9354  1.6380
20356SOL    HW270037   2.137   6.891  11.866  0.1404 -0.2415 -0.2631
20357SOL     OW70038   9.405  12.508   7.756  0.4496  0.2274 -0.1825
20357SOL    HW170039   9.484  12.464   7.788  2.1904  2.7658 -0.7014
20357SOL    HW270040   9.342  12.500   7.828  1.4655 -1.0615  0.6110
20358SOL     OW70041   8.848   5.726   9.504 -0.0547  0.5038 -0.3810
20358SOL    HW170042   8.782   5.671   9.463  0.5081 -0.1394 -0.4513
20358SOL    HW270043   8.931   5.698   9.464  0.9319 -2.0011  2.9256
20359SOL     OW70044   0.640   0.621  12.180 -0.3543  0.5025 -0.2082
20359SOL    HW170045   0.562   0.600  12.232  1.8345  0.6605  3.4267
20359SOL    HW270046   0.615   0.699  12.130 -2.9672 -0.3625 -0.3930
20360SOL     OW70047  11.325   6.783  11.089 -0.1402  0.1809 -0.0718
20360SOL    HW170048  11.338   6.846  11.018  1.0692  0.3772  0.3023
20360SOL    HW270049  11.236   6.750  11.076 -0.0632  0.4778 -1.4614
20361SOL     OW70050   0.797   8.352   5.318 -0.1281  0.0473  0.2097
20361SOL    HW170051   0.742   8.275   5.308  0.5388 -0.3463 -0.6159
20361SOL    HW270052   0.817   8.356   5.411  0.2593 -1.0886  0.1910
20362SOL     OW70053   7.221   8.479   5.195 -0.2397 -0.0306 -0.0057
20362SOL    HW170054   7.311   8.463   5.165  1.1727  0.1525  3.5999
20362SOL    HW270055   7.183   8.392   5.203 -0.1052 -0.1620 -0.7091
20363SOL     OW70056   6.412   4.468   3.464 -0.0185 -0.0234 -0.4592
20363SOL    HW170057   6.445   4.459   3.374 -0.7720 -3.4270 -0.5217
20363SOL    HW270058   6.491   4.469   3.518  0.4800  2.7306 -1.0767
20364SOL     OW70059  11.756   7.473   1.647 -0.3916  0.0398  0.0266
20364SOL    HW170060  11.766   7.421   1.726 -0.6895 -0.2513 -0.1249
20364SOL    HW270061  11.662   7.483   1.636 -0.3278  1.5101  0.6364
20365SOL     OW70062   0.988   2.120   8.463  0.6512  0.1748 -0.3016
20365SOL    HW170063   1.054   2.165   8.409 -0.0840  1.6441 -0.0132
20365SOL    HW270064   1.003   2.027   8.445  2.5290  0.4822 -0.5583
20366SOL     OW70065   9.147  11.899   3.767 -0.3771  0.2044 -0.0632
20366SOL    HW170066   9.130  11.911   3.861  1.0297  0.6178  0.1631
20366SOL    HW270067   9.144  11.804   3.755 -0.3472  0.1322  0.4411
20367SOL     OW70068   9.359   1.102   7.738  0.0871  0.1962 -0.4804
20367SOL    HW170069   9.322   1.061   7.816  0.9333  0.1419 -0.0978
20367SOL    HW270070   9.407   1.178   7.771  1.2381 -0.3549 -0.8238
20368SOL     OW70071   6.341   9.569  10.521 -0.1549  0.1175  0.4643
20368SOL    HW170072   6.337   9.488  10.470 -1.4589  0.6203 -0.2713
20368SOL    HW270073   6.329   9.541  10.612 -2.7430 -0.3501  0.0400
20369SOL     OW70074   2.324   3.563   5.251 -0.4080 -0.3008 -0.1415
20369SOL    HW170075   2.375   3.644   5.253 -0.3995 -0.3252  1.0980
20369SOL    HW270076   2.384   3.498   5.213 -0.0321  0.0148 -0.0916
20370SOL     OW70077   0.280   2.246   6.765 -0.0666  0.1168 -0.3601
20370SOL    HW170078   0.320   2.329   6.741 -1.3375  1.4193  1.7539
20370SOL    HW270079   0.233   2.218   6.686 -1.1148  2.3503 -0.5911
20371SOL     OW70080   9.001   8.494   3.693  0.2496 -0.1771  0.0025
20371SOL    HW170081   8.960   8.579   3.713 -1.0916 -0.8197  0.0703
20371SOL    HW270082   8.939   8.451   3.634  0.8390 -1.1755  0.1019
20372SOL     OW70083  12.156   9.049   7.756  1.0475 -0.0835  0.4715
20372SOL    HW170084  12.177   8.956   7.745 -2.0371 -0.7633 -0.7164
20372SOL    HW270085  12.087   9.051   7.822 -1.1519  0.9212 -1.7054
20373SOL     OW70086   6.499  10.400  10.309  0.1060  0.3901  0.2767
20373SOL    HW170087   6.507  10.409  10.214 -4.3107 -0.9736 -0.4409
20373SOL    HW270088   6.508  10.307  10.325  1.1438  0.6435  1.3455
20374SOL     OW70089   4.424  11.149   1.828 -0.1103 -0.5482 -0.4972
20374SOL    HW170090   4.458  11.065   1.858  0.2810 -0.4298 -0.6030
20374SOL    HW270091   4.427  11.205   1.905 -0.4240 -0.6464 -0.4128
20375SOL     OW70092   1.231   9.651   0.671 -0.4011  0.3227  0.3666
20375SOL    HW170093   1.143   9.688   0.665 -0.6295  0.0807  1.8149
20375SOL    HW270094   1.224   9.584   0.739  0.8300  0.0765  0.2750
20376SOL     OW70095   3.736   3.972   5.891  0.3819  0.0539 -0.3691
20376SOL    HW170096   3.641   3.973   5.896  0.3952  1.2414 -0.1232
20376SOL    HW270097   3.755   3.957   5.798 -0.0275 -0.8443 -0.3174
20377SOL     OW70098   6.324   6.478   0.394 -0.1167 -0.1340  0.5349
20377SOL    HW170099   6.403   6.424   0.400 -0.3021 -0.4405  0.3175
20377SOL    HW270100   6.348   6.549   0.335 -0.1755 -0.5512 -0.0034
20378SOL     OW70101   9.344   1.498   8.442  0.6162 -0.1796  0.2007
20378SOL    HW170102   9.308   1.580   8.408  1.5946 -0.0264 -0.4953
20378SOL    HW270103   9.422   1.482   8.388  0.3408 -1.6532  0.2104
20379SOL     OW70104  11.943   1.507  10.270  0.6224 -0.8513  0.6905
20379SOL    HW170105  11.949   1.599  10.245  0.3420 -0.9162  0.3824
20379SOL    HW270106  12.013   1.464  10.221  0.1115 -0.9685  0.0497
20380SOL     OW70107   8.545   5.092   5.223 -0.1375  1.0627 -0.2818
20380SOL    HW170108   8.480   5.047   5.277  0.3283  0.2421 -0.3803
20380SOL    HW270109   8.561   5.032   5.150  1.6574  0.6318  0.4113
20381SOL     OW70110   9.531   7.662   7.662 -0.0146 -0.3460 -0.7102
20381SOL    HW170111   9.612   7.613   7.678 -0.6370 -1.3457 -0.5702
20381SOL    HW270112   9.552   7.718   7.588  1.2985  0.5704  0.2949
20382SOL     OW70113  11.115   5.470   0.210  0.2315  0.4798 -0.4703
20382SOL    HW170114  11.077   5.408   0.271  1.7745  0.7895  0.8914
20382SOL    HW270115  11.082   5.556   0.238  0.0123  0.5091 -0.8147
20383SOL     OW70116   9.462   0.591   7.486 -0.4000 -0.1513 -0.1841
20383SOL    HW170117   9.478   0.506   7.443  0.2441  0.0447 -0.3346
20383SOL    HW270118   9.450   0.652   7.413 -0.8000 -0.0957 -0.0745
20384SOL     OW70119   5.724   5.856   2.313  0.0336  0.0889  0.0548
20384SOL    HW170120   5.630   5.859   2.300 -0.0066  3.2724  0.3028
20384SOL    HW270121   5.757   5.936   2.271  2.6201 -0.8445  0.0865
20385SOL     OW70122  11.504   3.422   7.311  0.8350 -0.6388 -0.0237
20385SOL    HW170123  11.461   3.435   7.227  0.4237 -0.0126  0.2694
20385SOL    HW270124  11.438   3.380   7.366  0.8575 -0.4068  0.1875
20386SOL     OW70125   2.091  11.383   8.175 -0.0412  0.1018 -0.2712
20386SOL    HW170126   2.000  11.359   8.161 -0.4986  0.0592  2.4179
20386SOL    HW270127   2.137  11.347   8.098 -2.2004 -0.1220 -1.5285
20387SOL     OW70128   8.509   3.111   1.966  0.2428  0.1428  0.3710
20387SOL    HW170129   8.574   3.041   1.958  0.8635  0.4026  2.4691
20387SOL    HW270130   8.560   3.192   1.961  0.2427  0.3415  2.6970
20388SOL     OW70131   8.173   4.211  12.104 -0.0519  0.4506  0.5864
20388SOL    HW170132   8.178   4.250  12.191  1.7793  1.4325  0.0958
20388SOL    HW270133   8.261   4.222  12.067 -0.2097 -1.7236 -0.6457
20389SOL     OW70134   6.851   2.933   4.987 -0.3861  0.3113  0.3679
20389SOL    HW170135   6.932   2.929   5.037 -0.0304 -1.7431 -0.2926
20389SOL    HW270136   6.878   2.927   4.896 -1.2809 -1.5208  0.1673
20390SOL     OW70137  11.897   0.479   0.583  0.2078 -0.4984 -0.1122
20390SOL    HW170138  11.948   0.523   0.651 -0.2790 -0.2111  0.0761
20390SOL    HW270139  11.815   0.455   0.627 -0.1277 -0.2706 -0.6153
20391SOL     OW70140   8.889   3.226   2.893  0.7706  0.5844 -0.2379
20391SOL    HW170141   8.919   3.239   2.802 -1.6850 -0.4902 -1.2973
20391SOL    HW270142   8.896   3.132   2.907 -0.0687  0.5836  0.2120
20392SOL     OW70143   4.690   9.431   0.596  0.0928  0.0972 -0.2546
20392SOL    HW170144   4.649   9.363   0.650  0.1513  0.6135  0.4677
20392SOL    HW270145   4.772   9.393   0.567  0.4895  0.1151  0.7841
20393SOL     OW70146  10.333  11.226   0.682  0.1348  0.0662  0.3962
20393SOL    HW170147  10.272  11.261   0.617 -0.4915 -1.1467  0.3059
20393SOL    HW270148  10.419  11.252   0.651 -0.0658 -1.3079 -1.4740
20394SOL     OW70149   5.561   1.455   7.084  0.5243 -0.2013 -0.2785
20394SOL    HW170150   5.559   1.362   7.108 -0.7494  0.2032  1.4104
20394SOL    HW270151   5.651   1.482   7.101  0.7796 -0.9942 -0.2908
20395SOL     OW70152   1.858   1.832   8.129  0.5019  0.0084  0.0811
20395SOL    HW170153   1.917   1.784   8.070  1.0799  1.3226 -0.4526
20395SOL    HW270154   1.887   1.923   8.123  0.0072  0.3043  1.7521
20396SOL     OW70155  10.835  12.362   0.723 -0.4268 -0.0132  0.0396
20396SOL    HW170156  10.904  12.371   0.658  0.2130 -0.7951  0.6018
20396SOL    HW270157  10.839  12.443   0.775 -0.1244  0.0644 -0.1071
20397SOL     OW70158  11.713   4.079   6.053  0.2436 -0.0854 -0.4433
20397SOL    HW170159  11.738   4.037   6.136 -0.0356  0.0719 -0.2791
20397SOL    HW270160  11.620   4.059   6.044  0.1453  0.3738 -0.4396
20398SOL     OW70161   8.259   3.887   1.039 -0.0979  0.3805  0.2023
20398SOL    HW170162   8.345   3.881   1.083  0.3227  2.0844 -0.3296
20398SOL    HW270163   8.201   3.835   1.095  1.2576 -0.7952  0.5950
20399SOL     OW70164  11.880   5.691   5.101 -0.0929  0.6556  0.8866
20399SOL    HW170165  11.788   5.703   5.127 -0.0849  2.0119  0.3490
20399SOL    HW270166  11.892   5.596   5.103 -1.4582  0.4576  1.1588
20400SOL     OW70167   1.095  10.546   6.733 -0.0821  0.1497  0.6418
20400SOL    HW170168   1.176  10.557   6.684 -1.1717  1.2613 -1.0181
20400SOL    HW270169   1.110  10.590   6.816  0.3710  2.1455 -0.4452
20401SOL     OW70170   2.777  10.029  10.316 -0.1801 -0.4673  0.5642
20401SOL    HW170171   2.812   9.947  10.282  0.7965  0.4219 -0.6691
20401SOL    HW270172   2.719  10.060  10.246 -0.9042 -0.3217  1.2201
20402SOL     OW70173   8.882   9.296  12.248 -0.2505 -0.3963  0.0326
20402SOL    HW170174   8.889   9.299  12.344  1.1026  0.4885 -0.0608
20402SOL    HW270175   8.840   9.379  12.225  1.4836  0.4468 -0.2488
20403SOL     OW70176   7.545   8.063   7.531 -0.5395 -0.6332  0.6166
20403SOL    HW170177   7.602   8.060   7.454 -0.0518  1.1568  0.8673
20403SOL    HW270178   7.528   7.971   7.551  2.5998 -1.2840  0.7729
20404SOL     OW70179   0.152  11.029   0.409 -0.1249 -0.3013  0.0226
20404SOL    HW170180   0.113  11.086   0.474 -0.1292  0.2527 -0.4552
20404SOL    HW270181   0.079  10.999   0.355 -0.0023  0.0564 -0.3489
20405SOL     OW70182   7.068   3.169  11.034 -0.1981  0.2394  0.3201
20405SOL    HW170183   7.071   3.236  11.101 -2.1739 -0.1021  0.8200
20405SOL    HW270184   7.157   3.164  11.000  0.0527  2.9230  0.4222
20406SOL     OW70185   4.586  11.194   8.152 -0.1734  0.2080 -0.2907
20406SOL    HW170186   4.568  11.119   8.095 -3.9001 -0.4931  1.4852
20406SOL    HW270187   4.622  11.155   8.232  0.6859  0.6717 -0.4461
20407SOL     OW70188   1.887   6.613   1.332 -0.1443 -0.1035  0.5189
20407SOL    HW170189   1.945   6.682   1.366 -0.8643  0.1221  1.3316
20407SOL    HW270190   1.799   6.652   1.336 -0.3585 -0.4340 -0.7201
20408SOL     OW70191  11.909   4.905   3.832  0.5394  0.0929 -0.6466
20408SOL    HW170192  11.963   4.869   3.762  1.7515  0.5111  0.0521
20408SOL    HW270193  11.847   4.962   3.787  1.1748  0.2112 -1.3979
20409SOL     OW70194   7.615   7.488  10.163 -0.2190  1.0370  0.2035
20409SOL    HW170195   7.662   7.451  10.238 -0.4149  0.7640  0.1927
20409SOL    HW270196   7.532   7.517  10.199 -0.0415  1.5206  0.2233
20410SOL     OW70197   9.806   0.525   2.796  0.6325 -0.5334  0.3476
20410SOL    HW170198   9.845   0.458   2.852  0.6826 -0.7173  0.0915
20410SOL    HW270199   9.879   0.584   2.776  0.5818 -0.3832  0.5963
20411SOL     OW70200   8.398   3.905  10.327  0.5165 -0.2428  0.2323
20411SOL    HW170201   8.327   3.855  10.285  1.0422 -1.6280  0.9315
20411SOL    HW270202   8.353   3.957  10.395  0.0676 -0.4783  0.1229
20412SOL     OW70203   1.848   4.009   3.219 -0.2836 -0.2071 -0.4228
20412SOL    HW170204   1.873   3.930   3.172 -1.6068  0.1699 -1.8320
20412SOL    HW270205   1.836   3.980   3.310  1.7595 -1.0646 -0.3742
20413SOL     OW70206   3.449   8.820  11.144  0.1887  0.2704  0.2330
20413SOL    HW170207   3.490   8.817  11.231  0.2010 -2.2894  0.2060
20413SOL    HW270208   3.523   8.823  11.083  0.2150  0.5241  0.2764
20414SOL     OW70209   6.489   6.011   3.325 -0.2721  0.0761  0.7528
20414SOL    HW170210   6.500   5.938   3.385 -0.4989 -0.3681  0.2707
20414SOL    HW270211   6.576   6.051   3.319  0.6545 -1.9347 -1.1963
20415SOL     OW70212   9.515   1.298  10.585  0.0584 -0.2783 -0.1291
20415SOL    HW170213   9.578   1.369  10.592 -1.2703  0.7920  2.4458
20415SOL    HW270214   9.432   1.336  10.615 -0.9016 -2.6440  0.4898
20416SOL     OW70215   9.782   3.514   0.752  0.6329  0.1612  0.0540
20416SOL    HW170216   9.713   3.468   0.801  0.1702  1.0893  0.2924
20416SOL    HW270217   9.808   3.587   0.808  0.7231  0.7213 -0.6946
20417SOL     OW70218   9.066   0.091  11.839 -0.0570 -0.0626 -1.0298
20417SOL    HW170219   9.064   0.144  11.759 -0.3453  0.3168 -0.7782
20417SOL    HW270220   9.090   0.153  11.908 -0.6333 -0.2046 -0.6931
20418SOL     OW70221   6.549   6.807   6.845  0.1979 -0.1185  0.4059
20418SOL    HW170222   6.634   6.850   6.842  0.7090 -1.0685 -2.3606
20418SOL    HW270223   6.561   6.734   6.906  0.8029  0.7514  1.3583
20419SOL     OW70224   4.604   0.150   6.823  0.5597  0.0289 -0.4372
20419SOL    HW170225   4.604   0.157   6.918  1.8255  0.3140 -0.4430
20419SOL    HW270226   4.587   0.239   6.792 -0.0782 -0.1058 -0.4815
20420SOL     OW70227   8.915   0.617   0.903 -0.3043  0.4552 -0.1981
20420SOL    HW170228   8.883   0.530   0.880 -0.1103  0.3186  0.0428
20420SOL    HW270229   9.010   0.606   0.909 -0.1887  0.8821 -1.0234
20421SOL     OW70230   0.920   7.480   5.707 -0.4905  0.2492 -0.5785
20421SOL    HW170231   0.846   7.420   5.699  0.0694 -0.9580  2.0362
20421SOL    HW270232   0.966   7.450   5.786  2.0189  1.7912 -1.3549
20422SOL     OW70233   9.279   7.564   1.339  0.0664  0.8383  0.4969
20422SOL    HW170234   9.250   7.622   1.268  0.6506  1.7267  0.9681
20422SOL    HW270235   9.202   7.553   1.394 -0.4237  0.0570 -0.3151
20423SOL     OW70236   2.990   0.038  10.059 -0.2824  0.5949  0.2242
20423SOL    HW170237   3.055  -0.026  10.086 -0.5340  0.0348 -0.4694
20423SOL    HW270238   2.922   0.034  10.126 -0.6237 -0.3599 -0.1743
20424SOL     OW70239   5.552  11.965   4.249 -0.3357 -0.0208  0.0310
20424SOL    HW170240   5.631  11.910   4.252  0.2537  0.7778 -0.4121
20424SOL    HW270241   5.523  11.959   4.158  0.2265  1.0564 -0.2391
20425SOL     OW70242  10.321   0.190   7.548 -0.2924  0.7348 -0.6126
20425SOL    HW170243  10.384   0.182   7.620 -1.3755 -1.3430  0.1970
20425SOL    HW270244  10.359   0.139   7.477 -0.7663 -0.0598 -0.3116
20426SOL     OW70245   3.215  10.241   9.520 -0.0184  0.5091 -0.1582
20426SOL    HW170246   3.217  10.213   9.611  0.6304  0.3906 -0.1991
20426SOL    HW270247   3.227  10.336   9.524  1.7862  0.3306 -0.1667
20427SOL     OW70248   6.531   5.167   6.483 -0.0272 -0.1503 -0.5843
20427SOL    HW170249   6.562   5.183   6.394  0.8926  1.4416 -0.0180
20427SOL    HW270250   6.608   5.137   6.531  0.4103  2.4046  0.4788
20428SOL     OW70251   6.485  11.459   6.186  0.1837  0.5979  0.2097
20428SOL    HW170252   6.429  11.416   6.122  0.2421 -0.2439  0.7082
20428SOL    HW270253   6.571  11.418   6.173  0.3726  0.9524  0.3287
20429SOL     OW70254   8.777   9.582  10.475 -0.4443  0.2479  0.0931
20429SOL    HW170255   8.761   9.633  10.554  0.2129 -1.2475  1.2489
20429SOL    HW270256   8.780   9.491  10.506 -0.0340 -0.3664 -1.6372
20430SOL     OW70257   4.184   7.541  10.157  0.3208 -0.3861 -0.3403
20430SOL    HW170258   4.250   7.510  10.096 -1.2591 -1.7118 -1.4463
20430SOL    HW270259   4.101   7.531  10.111 -0.6470  1.7846  0.7759
20431SOL     OW70260   8.676  11.647   2.307 -0.3865  0.4989 -0.1057
20431SOL    HW170261   8.767  11.644   2.335  0.8821  1.1185 -3.6166
20431SOL    HW270262   8.678  11.694   2.223 -3.9204  0.3874 -0.4179
20432SOL     OW70263   6.778   7.131  10.359  0.5387  0.2495  0.1517
20432SOL    HW170264   6.837   7.080  10.304  1.4202  0.1599  1.1469
20432SOL    HW270265   6.732   7.189  10.298  2.3139  0.9710 -0.5648
20433SOL     OW70266   0.109   3.810   0.577 -0.2253  0.6074 -0.2478
20433SOL    HW170267   0.190   3.849   0.610 -0.0170 -1.4492  1.8499
20433SOL    HW270268   0.040   3.845   0.633 -0.1913 -0.9907  0.8403
20434SOL     OW70269   9.743  10.628   9.415 -0.3728 -0.2990 -0.2046
20434SOL    HW170270   9.802  10.582   9.356 -0.2767 -1.1663  0.5425
20434SOL    HW270271   9.787  10.710   9.434  0.0350 -0.4277 -0.5849
20435SOL     OW70272  12.267   9.696  10.240  0.7098  0.3296 -0.1602
20435SOL    HW170273  12.207   9.768  10.259 -1.2650 -1.7146  2.0232
20435SOL    HW270274  12.352   9.726  10.272 -0.3590  1.1835  2.0711
20436SOL     OW70275   1.704   6.723  10.503  0.4204  0.0891 -0.3662
20436SOL    HW170276   1.727   6.649  10.448  0.2092  0.5402 -1.0750
20436SOL    HW270277   1.784   6.743  10.551  0.3340 -0.9145  0.2274
20437SOL     OW70278   5.226  10.574   8.591 -0.0983  0.0274 -0.0095
20437SOL    HW170279   5.290  10.619   8.646 -1.3159  1.1350  0.5768
20437SOL    HW270280   5.174  10.522   8.652 -0.5946  0.1825 -0.2911
20438SOL     OW70281   5.162   0.251   4.301 -0.1563 -0.1947  0.1000
20438SOL    HW170282   5.223   0.318   4.332 -0.4106  0.6455 -1.1340
20438SOL    HW270283   5.177   0.247   4.207 -2.6466  0.7343 -0.4059
20439SOL     OW70284   6.244   1.195   2.976  0.2726 -0.1537  0.2707
20439SOL    HW170285   6.287   1.137   2.913  0.3845 -0.7448  0.8803
20439SOL    HW270286   6.306   1.267   2.986 -0.4264  0.7590 -1.4527
20440SOL     OW70287   3.710  10.595   0.727 -0.2119  0.5503  0.1448
20440SOL    HW170288   3.622  10.604   0.764 -0.5219  0.3232 -0.5245
20440SOL    HW270289   3.705  10.637   0.641  0.0970 -0.2016 -0.2561
20441SOL     OW70290   1.637   9.466  10.382  0.7752  0.2106 -0.0272
20441SOL    HW170291   1.564   9.522  10.354  0.9738  1.7741  2.3292
20441SOL    HW270292   1.715   9.512  10.352  0.8935 -1.1852 -2.0573
20442SOL     OW70293   9.274   1.993   6.752 -0.3142 -0.0520  0.1722
20442SOL    HW170294   9.318   1.990   6.837  0.5010  0.2174 -0.2247
20442SOL    HW270295   9.274   2.086   6.729  1.5677 -0.3257 -1.1618
20443SOL     OW70296  12.420   6.357   2.369  0.0016  0.1805 -0.0820
20443SOL    HW170297  12.478   6.423   2.407  1.3242  0.1058 -1.8490
20443SOL    HW270298  12.368   6.404   2.304 -0.6264 -0.1168  0.1929
20444SOL     OW70299   5.392   3.543   7.978 -0.6136 -0.0902 -0.3952
20444SOL    HW170300   5.401   3.480   8.050 -1.1358  0.8908  0.5687
20444SOL    HW270301   5.391   3.490   7.899  0.5787 -1.1581  0.2769
20445SOL     OW70302  11.464   7.750   7.610  0.2977 -0.7159 -0.8815
20445SOL    HW170303  11.445   7.780   7.521  0.5235 -0.7230 -0.9309
20445SOL    HW270304  11.382   7.765   7.658  0.3321 -0.2415 -0.9654
20446SOL     OW70305   5.151   7.741   7.074  0.5228 -0.0060 -0.0786
20446SOL    HW170306   5.130   7.787   6.993  0.5531 -2.4205 -1.5514
20446SOL    HW270307   5.243   7.716   7.064  0.5634 -0.2256  0.7644
20447SOL     OW70308   9.390   5.701   7.418 -0.4789  0.4351 -0.2383
20447SOL    HW170309   9.349   5.786   7.428  0.0383  0.4529  2.7068
20447SOL    HW270310   9.420   5.678   7.506  2.5043 -1.2378 -1.5236
20448SOL     OW70311   7.468   3.093   1.293 -0.2029  0.4171 -0.3615
20448SOL    HW170312   7.484   3.005   1.327 -2.4405  0.0045 -0.2581
20448SOL    HW270313   7.454   3.080   1.199 -0.5686  0.6564 -0.3390
20449SOL     OW70314   1.126   3.325  11.448 -0.5112  0.5242  0.3954
20449SOL    HW170315   1.074   3.253  11.483  0.4607 -0.6575 -0.4855
20449SOL    HW270316   1.129   3.308  11.354  0.1976  1.4158  0.2437
20450SOL     OW70317  10.248  12.425  12.320  0.2487  0.1337  0.1269
20450SOL    HW170318  10.323  12.399  12.266  0.5378  0.7058  0.2434
20450SOL    HW270319  10.172  12.399  12.268  0.5130  1.6017 -1.0520
20451SOL     OW70320   2.317   6.339   4.750  0.0163 -0.7667 -0.4773
20451SOL    HW170321   2.250   6.401   4.720  0.6877  0.9423  1.3160
20451SOL    HW270322   2.268   6.272   4.798 -0.4937  0.4802  0.8488
20452SOL     OW70323   0.229  12.354   4.153  0.3668 -0.7608  0.2199
20452SOL    HW170324   0.188  12.281   4.199  0.7535 -1.3231 -0.3136
20452SOL    HW270325   0.155  12.403   4.117  0.1049 -2.8298 -2.3699
20453SOL     OW70326   5.058   5.889  11.249 -0.0492 -0.0320  0.5053
20453SOL    HW170327   5.129   5.928  11.198 -1.8696  0.4803 -1.8447
20453SOL    HW270328   5.051   5.800  11.216  0.0527 -0.3575  1.3519
20454SOL     OW70329  12.041   8.686   9.822 -0.4315  0.4199  0.6063
20454SOL    HW170330  12.022   8.719   9.734  0.1993 -1.7000 -0.4148
20454SOL    HW270331  12.083   8.759   9.867 -1.0477  1.6594 -0.7359
20455SOL     OW70332   3.175   3.354   2.070  0.9436 -0.7793 -0.1738
20455SOL    HW170333   3.129   3.353   2.154  1.3475 -2.8969  0.0902
20455SOL    HW270334   3.217   3.440   2.067 -0.7681  0.1486  0.8042
20456SOL     OW70335   7.738   9.688   8.124 -0.0087 -0.1079 -0.8583
20456SOL    HW170336   7.651   9.686   8.085 -0.6491  1.4311  0.3680
20456SOL    HW270337   7.756   9.781   8.137  0.7848 -0.4775  1.1120
20457SOL     OW70338   3.315  10.144   2.796  0.0834  0.5230  0.0927
20457SOL    HW170339   3.360  10.068   2.760 -1.5570 -0.1107 -0.7276
20457SOL    HW270340   3.329  10.213   2.731 -0.7070  0.1188 -0.5226
20458SOL     OW70341   7.950   3.884  11.526 -0.3239 -0.2662  0.0405
20458SOL    HW170342   7.919   3.965  11.566 -0.0357 -0.3107  0.3578
20458SOL    HW270343   7.944   3.818  11.595  0.3470 -0.3027  0.0750
20459SOL     OW70344   3.659   7.715   5.931  0.3840  0.2695  0.1728
20459SOL    HW170345   3.684   7.806   5.918 -0.4366  0.3198 -1.2324
20459SOL    HW270346   3.701   7.668   5.860  1.0417 -0.5122  1.0552
20460SOL     OW70347   2.945   6.389   2.984 -0.8064  0.3113 -0.0667
20460SOL    HW170348   3.013   6.322   2.994  0.2350  1.2280 -0.7627
20460SOL    HW270349   2.894   6.383   3.065  0.5999  0.1367  0.8517
20461SOL     OW70350  12.358   3.463   7.766 -1.1533 -0.0531 -0.3940
20461SOL    HW170351  12.445   3.424   7.773 -0.8215  0.6645 -0.3905
20461SOL    HW270352  12.341   3.499   7.853 -1.1904  0.3386 -0.5603
20462SOL     OW70353   9.342   3.210   7.549 -0.2051  0.1426 -0.0945
20462SOL    HW170354   9.295   3.289   7.577 -0.4602 -0.0678  0.0720
20462SOL    HW270355   9.401   3.241   7.480 -1.3537  0.2217 -1.0741
20463SOL     OW70356   8.080   1.296   8.215 -0.2018 -0.0921 -0.4428
20463SOL    HW170357   8.072   1.209   8.177 -0.4704 -0.4719  0.4668
20463SOL    HW270358   8.173   1.316   8.209 -0.4681  0.8248 -3.3463
20464SOL     OW70359   5.785   6.171  10.554  0.2239  0.5157 -0.1564
20464SOL    HW170360   5.795   6.261  10.584  0.8160  0.4503 -0.1554
20464SOL    HW270361   5.738   6.179  10.470 -1.8688  0.6671  0.9717
20465SOL     OW70362  10.325  10.103  12.554 -0.3746  0.1310  0.2904
20465SOL    HW170363  10.365  10.058  12.629  1.1105  0.5451 -0.2240
20465SOL    HW270364  10.310  10.192  12.585 -2.0605 -0.3029  0.8628
20466SOL     OW70365   3.949   4.168   7.421  0.2657 -0.2817 -0.2709
20466SOL    HW170366   4.028   4.127   7.387  1.3751  1.2712  0.3155
20466SOL    HW270367   3.925   4.233   7.355  0.3624  0.2683  0.2171
20467SOL     OW70368   6.910   7.115   5.608  0.1899 -1.1782 -0.1708
20467SOL    HW170369   6.829   7.128   5.658 -0.1382  0.0192 -0.9808
20467SOL    HW270370   6.881   7.089   5.521  0.7469 -2.6138  0.0408
20468SOL     OW70371   2.361   5.540   4.333 -0.0565 -0.0922  0.4427
20468SOL    HW170372   2.322   5.464   4.377 -0.9767 -0.1932 -0.5163
20468SOL    HW270373   2.401   5.503   4.254 -1.2354  0.5071 -0.4633
20469SOL     OW70374  12.205   4.103  11.690 -0.5693 -0.5108 -0.4353
20469SOL    HW170375  12.117   4.127  11.720 -0.9628 -2.1911 -0.1347
20469SOL    HW270376  12.243   4.055  11.764  0.0491 -1.0572 -1.0902
20470SOL     OW70377   3.765   7.544   7.443 -0.5321  0.4416 -0.2257
20470SOL    HW170378   3.826   7.475   7.414  0.1101  0.7474  0.3800
20470SOL    HW270379   3.754   7.528   7.536 -1.4912  0.3150 -0.3539
20471SOL     OW70380   2.796   6.749   4.749  0.2078  0.0487 -0.2225
20471SOL    HW170381   2.781   6.714   4.661  0.4997  1.0267 -0.6709
20471SOL    HW270382   2.861   6.690   4.787  0.2642 -0.2347 -0.7437
20472SOL     OW70383   7.836   2.073   9.530  0.1651  0.2218 -0.1871
20472SOL    HW170384   7.758   2.063   9.584  0.8328 -0.6550  0.6490
20472SOL    HW270385   7.827   2.160   9.490 -1.4497 -0.0590 -0.4928
20473SOL     OW70386  10.553   5.249  12.357 -0.1476 -0.1783  0.0384
20473SOL    HW170387  10.525   5.159  12.340 -0.7417  0.2419 -1.4480
20473SOL    HW270388  10.610   5.270  12.282 -1.2333  1.1630 -0.4403
20474SOL     OW70389   2.445   9.700   5.056 -0.4809  0.0953  0.0548
20474SOL    HW170390   2.408   9.756   5.125 -0.2051 -0.6217  0.8113
20474SOL    HW270391   2.372   9.683   4.997 -1.1213 -0.4755  0.9754
20475SOL     OW70392  11.267   9.952   6.450 -0.2448  0.0469 -0.1799
20475SOL    HW170393  11.315   9.870   6.459 -2.2451 -1.0947  0.7882
20475SOL    HW270394  11.178   9.925   6.429 -0.5992  2.0670 -1.6070
20476SOL     OW70395   9.318   5.326   8.094 -0.0178  0.2334  0.2800
20476SOL    HW170396   9.274   5.354   8.014 -0.6162 -1.0040  0.1531
20476SOL    HW270397   9.260   5.355   8.164 -1.4049 -1.8850  0.0936
20477SOL     OW70398  11.372   9.898   2.631  0.4326 -0.4197  0.1270
20477SOL    HW170399  11.287   9.900   2.587 -0.8124  1.1988  2.3445
20477SOL    HW270400  11.357   9.844   2.709  1.5101 -0.3647  0.3836
20478SOL     OW70401   3.111   0.218  12.547  0.0952  0.3150  0.0713
20478SOL    HW170402   3.042   0.175  12.496  0.2305  1.2237 -0.9098
20478SOL    HW270403   3.188   0.163  12.534  0.1198  0.5206 -0.6855
20479SOL     OW70404   6.984   5.787   0.321  0.2793  0.0355  0.2119
20479SOL    HW170405   7.067   5.756   0.285  1.1994  0.8031  1.5467
20479SOL    HW270406   6.918   5.727   0.286  1.0261  0.8247 -2.7985
20480SOL     OW70407   0.767  11.824   6.571  0.2306  0.1768 -0.7232
20480SOL    HW170408   0.819  11.785   6.640  0.6720  1.5023 -0.2718
20480SOL    HW270409   0.822  11.895   6.536 -0.6237  0.5671 -1.3323
20481SOL     OW70410   3.982   9.915   7.140  0.7070 -0.0063  0.1422
20481SOL    HW170411   3.957   9.912   7.048 -0.5261 -2.2701  0.4993
20481SOL    HW270412   3.906   9.882   7.187  0.7377  2.4533  2.1601
20482SOL     OW70413   2.885   2.040  10.039 -0.5429  0.3189  0.3121
20482SOL    HW170414   2.802   1.995  10.023  0.5965 -1.8129  0.0085
20482SOL    HW270415   2.908   2.017  10.129 -0.2526  0.8573  0.3811
20483SOL     OW70416  11.842   4.880   0.471  0.0969  0.0682 -0.2879
20483SOL    HW170417  11.882   4.795   0.456  0.8728  0.3699  0.0033
20483SOL    HW270418  11.866   4.902   0.561 -1.9301 -0.3664  0.4185
20484SOL     OW70419  12.567   7.899   1.442 -0.6161  0.3854 -0.1925
20484SOL    HW170420  12.608   7.872   1.360 -2.7429  1.7795 -1.8190
20484SOL    HW270421  12.493   7.840   1.452 -0.5943  0.4741  0.5199
20485SOL     OW70422   4.341  11.751  10.115  0.5231 -0.9790  0.4180
20485SOL    HW170423   4.405  11.689  10.149  0.9890 -0.1599  1.0642
20485SOL    HW270424   4.266  11.697  10.089  0.8362 -1.7836  1.1638
20486SOL     OW70425   0.506   3.897   0.265 -0.4339  0.4483  0.5362
20486SOL    HW170426   0.454   3.957   0.320 -0.0637  0.6798  0.6368
20486SOL    HW270427   0.505   3.938   0.178  0.1338  0.8038  0.6903
20487SOL     OW70428  12.464   8.725  10.473 -0.1990 -0.6142 -1.0518
20487SOL    HW170429  12.537   8.676  10.511  1.0474 -1.3751 -4.1193
20487SOL    HW270430  12.506   8.790  10.416 -1.8866 -0.4662 -2.2007
20488SOL     OW70431   7.099   9.793   3.727 -0.3797  0.0310  0.4249
20488SOL    HW170432   7.155   9.748   3.790  0.8718  0.9984  0.0362
20488SOL    HW270433   7.043   9.724   3.691 -0.9393 -0.5850  2.3804
20489SOL     OW70434   9.876   6.612   3.431  0.4972 -0.1378 -0.3177
20489SOL    HW170435   9.815   6.616   3.357 -0.5391  2.6949  0.5831
20489SOL    HW270436   9.927   6.693   3.425 -0.3413  0.7310  2.5914
20490SOL     OW70437   2.210   3.791   5.976 -0.5714 -0.6033 -0.1954
20490SOL    HW170438   2.118   3.778   5.998 -1.0050  2.0105 -0.1281
20490SOL    HW270439   2.222   3.743   5.894 -1.8163 -1.4918  0.1158
20491SOL     OW70440   5.079   8.009   2.653  0.0298 -0.1809  0.7595
20491SOL    HW170441   5.023   8.066   2.706 -0.2116  0.4130 -0.1176
20491SOL    HW270442   5.107   8.064   2.580 -0.1507 -1.1566 -0.0644
20492SOL     OW70443   9.866   2.544  11.945  0.2629  0.5123 -0.1430
20492SOL    HW170444   9.937   2.483  11.964  1.2758  1.6878 -0.0387
20492SOL    HW270445   9.909   2.620  11.905 -1.0651  0.8001 -1.0959
20493SOL     OW70446  10.176   8.054  11.492  0.1365 -0.0426 -0.5595
20493SOL    HW170447  10.115   8.009  11.550 -0.3487  0.5779 -0.5735
20493SOL    HW270448  10.168   8.009  11.408  0.6485 -0.7767 -0.2173
20494SOL     OW70449   0.970   5.571   8.867  0.2668  0.4307 -0.0968
20494SOL    HW170450   0.878   5.548   8.876  0.3507  0.5207  1.0835
20494SOL    HW270451   1.017   5.489   8.881  0.3347 -0.4484 -4.0729
20495SOL     OW70452   7.876   1.877   5.822 -0.2971  0.1151 -0.3297
20495SOL    HW170453   7.797   1.825   5.834 -1.4597  1.9412  0.2906
20495SOL    HW270454   7.852   1.942   5.756  0.5373  0.9668  0.1788
20496SOL     OW70455   8.036   1.013   7.360  0.8401  0.0104  0.6523
20496SOL    HW170456   7.980   0.976   7.292 -1.7014  1.0860  2.0323
20496SOL    HW270457   8.059   0.939   7.415 -1.0199 -0.2031  1.2174
20497SOL     OW70458   9.034   1.500  11.021 -0.2442 -0.5864 -0.2304
20497SOL    HW170459   9.036   1.558  10.945 -1.7334 -1.5196 -1.0287
20497SOL    HW270460   9.078   1.550  11.090  2.9617 -0.4454 -2.1502
20498SOL     OW70461   2.715   7.088   6.948 -0.5602 -1.1606  0.5965
20498SOL    HW170462   2.621   7.080   6.930 -0.5479 -1.7317  0.7693
20498SOL    HW270463   2.757   7.064   6.865 -0.5564 -1.1717  0.6016
20499SOL     OW70464  10.845   9.547  12.435 -0.0703 -0.2367  0.3752
20499SOL    HW170465  10.830   9.487  12.363 -2.0363  1.3773 -0.6615
20499SOL    HW270466  10.938   9.569  12.430 -0.3991  0.8123 -2.5120
20500SOL     OW70467  10.484   1.323   2.177 -0.6270  0.0897  0.0255
20500SOL    HW170468  10.438   1.239   2.167 -1.1109  0.4911 -1.2859
20500SOL    HW270469  10.568   1.309   2.133  0.6728 -0.7061  2.5841
20501SOL     OW70470   5.958   4.554   4.503  0.7620 -0.3493 -0.4321
20501SOL    HW170471   5.881   4.539   4.448  1.1378 -2.0311 -0.5476
20501SOL    HW270472   5.925   4.609   4.575  0.3383  2.1967 -2.4282
20502SOL     OW70473   8.386   6.039  10.640  0.7600  0.3540 -0.1560
20502SOL    HW170474   8.407   6.103  10.572  2.9353  1.3471  1.3263
20502SOL    HW270475   8.464   6.036  10.695 -0.3699 -1.4735  1.4916
20503SOL     OW70476   6.517   6.628   3.051 -0.6298 -0.1216  0.1237
20503SOL    HW170477   6.514   6.598   2.960 -0.8794  0.2924 -0.0070
20503SOL    HW270478   6.599   6.594   3.086 -0.0476  0.5693 -0.5499
20504SOL     OW70479   5.613  10.589   5.647  0.5002  0.1967  0.1092
20504SOL    HW170480   5.636  10.556   5.734  2.5426 -0.9141 -0.7892
20504SOL    HW270481   5.548  10.528   5.615 -0.6845  0.9245  1.0228
20505SOL     OW70482   3.902  10.310  10.658 -0.5213 -0.4016 -0.2632
20505SOL    HW170483   3.899  10.405  10.668 -2.0607 -0.4427 -0.2297
20505SOL    HW270484   3.897  10.276  10.747 -0.1308 -0.5264 -0.2868
20506SOL     OW70485   6.468  12.471   2.634 -0.3359 -0.1051  0.4465
20506SOL    HW170486   6.404  12.415   2.679 -0.6142  1.2138  1.7843
20506SOL    HW270487   6.422  12.554   2.621 -0.1264 -0.3238 -2.0452
20507SOL     OW70488   4.149   3.909   8.862 -0.0112 -0.2923  0.2414
20507SOL    HW170489   4.159   3.936   8.770 -1.2048 -2.6257 -0.6765
20507SOL    HW270490   4.078   3.963   8.895  1.2096  1.3993  0.1879
20508SOL     OW70491   2.539   7.163  11.936  0.0425  0.2410 -0.0402
20508SOL    HW170492   2.514   7.255  11.938  0.6776  0.5148 -2.0891
20508SOL    HW270493   2.579   7.151  11.850  0.9255 -1.7131  0.5796
20509SOL     OW70494   7.645   6.959   8.460 -0.2605  0.4387  0.3396
20509SOL    HW170495   7.660   6.865   8.454  0.7102  0.6039 -0.0532
20509SOL    HW270496   7.552   6.968   8.481 -0.8783 -0.5737 -1.6563
20510SOL     OW70497   0.245   7.070   6.701  0.1477 -0.6105  0.0759
20510SOL    HW170498   0.171   7.009   6.703 -0.2753 -0.2981 -2.6812
20510SOL    HW270499   0.319   7.016   6.675  0.0442 -0.2180 -1.0643
20511SOL     OW70500   2.472   6.849   0.248 -0.1353 -0.0805  0.3062
20511SOL    HW170501   2.400   6.910   0.232 -1.0570 -1.5775 -1.5607
20511SOL    HW270502   2.537   6.901   0.296 -0.5069  2.6076 -1.8891
20512SOL     OW70503   7.097  12.490   1.329 -0.2763  0.0076  0.1996
20512SOL    HW170504   7.149  12.422   1.285 -1.1195 -0.4224 -0.1653
20512SOL    HW270505   7.116  12.570   1.281  0.7708  0.0431  0.6636
20513SOL     OW70506   2.270   4.522   7.375 -0.4816  0.4245  0.4923
20513SOL    HW170507   2.308   4.563   7.297 -0.6505 -0.2448  0.0468
20513SOL    HW270508   2.342   4.522   7.438  0.6105 -1.6350 -0.6400
20514SOL     OW70509   2.595  11.812   0.771  0.8629 -0.2258 -0.1492
20514SOL    HW170510   2.545  11.747   0.821  1.0924  0.6964  1.3368
20514SOL    HW270511   2.686  11.796   0.795  1.2045 -1.0483 -1.8442
20515SOL     OW70512   8.471   9.295   7.652 -0.0764  0.2185 -0.4334
20515SOL    HW170513   8.383   9.321   7.680 -0.5228  0.0369 -1.6019
20515SOL    HW270514   8.526   9.370   7.673 -0.8686  1.0908 -1.3799
20516SOL     OW70515   0.361   8.672   0.367  0.2249  0.4282 -0.1791
20516SOL    HW170516   0.292   8.623   0.323  0.7423 -1.0525  0.5959
20516SOL    HW270517   0.432   8.609   0.379  1.8783  1.9814 -1.2193
20517SOL     OW70518   5.148  10.337  12.280  0.4374 -0.0370 -0.1972
20517SOL    HW170519   5.230  10.373  12.315  0.6133  0.7954 -1.4084
20517SOL    HW270520   5.093  10.413  12.264 -0.4292 -0.5622  0.1878
20518SOL     OW70521   4.366   6.053   0.132  0.3032 -0.8041  0.2915
20518SOL    HW170522   4.306   6.109   0.182 -0.0170 -0.2438 -0.6988
20518SOL    HW270523   4.389   5.983   0.193  0.2656  0.0955  1.3731
20519SOL     OW70524   8.105  11.828   8.250 -0.3479  0.4423  0.0640
20519SOL    HW170525   8.090  11.846   8.343  1.0623  0.3809  0.3230
20519SOL    HW270526   8.145  11.908   8.216  1.4255 -0.3695  0.1022
20520SOL     OW70527   3.474   6.783   6.412  0.1369  0.3587 -0.6474
20520SOL    HW170528   3.390   6.739   6.419  0.5539 -0.1411  2.6080
20520SOL    HW270529   3.461   6.868   6.455  1.3687  0.0834  0.3202
20521SOL     OW70530  10.702   7.973  11.264  0.7544 -0.4004  0.1770
20521SOL    HW170531  10.779   7.993  11.318 -0.3484  2.6043  0.8407
20521SOL    HW270532  10.628   7.999  11.318 -0.6017 -0.6333 -1.4990
20522SOL     OW70533   8.978   2.160  10.575  0.0623  0.3225  0.0725
20522SOL    HW170534   8.980   2.121  10.488  0.4873  0.7524 -0.1183
20522SOL    HW270535   8.902   2.219  10.573  0.5934  1.0084 -0.3163
20523SOL     OW70536   2.607   5.567   2.708  0.0839 -0.3421 -0.1948
20523SOL    HW170537   2.518   5.601   2.702 -0.5560 -2.1871 -2.4728
20523SOL    HW270538   2.659   5.623   2.651  0.2401  0.2856  0.5575
20524SOL     OW70539   9.962   5.267   8.177 -0.5861 -0.0309 -0.4686
20524SOL    HW170540   9.909   5.226   8.108  0.1666 -0.8953 -0.5558
20524SOL    HW270541   9.919   5.241   8.258  0.5091 -2.0632 -0.4491
20525SOL     OW70542   3.280   4.386   0.511  0.5862  0.0764  0.7206
20525SOL    HW170543   3.291   4.312   0.570 -2.1283 -0.7380  0.3631
20525SOL    HW270544   3.248   4.347   0.430 -2.9971  1.6532  1.1806
20526SOL     OW70545   2.461  11.368   7.626  0.4710 -0.5059 -0.3848
20526SOL    HW170546   2.475  11.437   7.691  2.1149  0.1399 -1.3654
20526SOL    HW270547   2.452  11.288   7.678 -1.7585  0.4101  0.7952
20527SOL     OW70548   1.574  12.161   2.346  0.1619  0.2507  0.0403
20527SOL    HW170549   1.507  12.107   2.305 -0.3783 -0.5722  1.9050
20527SOL    HW270550   1.538  12.250   2.344  0.0218  0.1834 -0.9424
20528SOL     OW70551   5.516   4.733  10.786  0.3617 -0.1685 -0.0532
20528SOL    HW170552   5.551   4.816  10.820 -1.2507  1.1317 -1.4267
20528SOL    HW270553   5.431   4.724  10.829  0.2143 -0.7427 -0.4652
20529SOL     OW70554  11.243   5.557  10.149  0.1363 -0.7023  0.0980
20529SOL    HW170555  11.327   5.583  10.186 -0.2143 -0.0684  0.4848
20529SOL    HW270556  11.187   5.544  10.226 -0.5679  0.4964 -0.1793
20530SOL     OW70557   2.093   5.040  11.171  0.2760 -0.2302 -0.9487
20530SOL    HW170558   2.106   5.016  11.079 -1.1457  1.1699 -1.5582
20530SOL    HW270559   2.010   5.087  11.172 -0.1447 -0.9036  1.2048
20531SOL     OW70560   9.826   9.086  10.146  0.0663  0.2250  0.5164
20531SOL    HW170561   9.762   9.150  10.177 -1.2010 -0.5500 -0.4139
20531SOL    HW270562   9.845   9.032  10.222 -2.2745 -1.0504  0.2973
20532SOL     OW70563  10.204  11.794   5.067 -0.2045  0.3871 -0.3802
20532SOL    HW170564  10.250  11.858   5.013 -0.5146 -0.1161 -1.2747
20532SOL    HW270565  10.123  11.777   5.019  1.0567 -2.7443 -1.7481
20533SOL     OW70566   7.787   2.085  11.570  0.0427 -0.0543  0.7676
20533SOL    HW170567   7.737   2.005  11.584  1.3402 -1.4776 -1.9269
20533SOL    HW270568   7.733   2.136  11.509  0.2794  0.0224  0.6210
20534SOL     OW70569   1.772   4.103  12.397 -0.3758  0.6199 -0.4292
20534SOL    HW170570   1.779   4.037  12.328 -1.4193 -0.4529  0.4495
20534SOL    HW270571   1.682   4.097  12.427 -0.0819  1.4452  0.6759
20535SOL     OW70572   9.768   1.724   1.710  0.2682  0.0783 -0.5257
20535SOL    HW170573   9.808   1.658   1.767  0.4665  0.2159 -0.5033
20535SOL    HW270574   9.702   1.767   1.765 -0.4901 -0.7030 -0.8092
20536SOL     OW70575   0.938   5.886   7.730 -0.1214 -0.1263 -0.2113
20536SOL    HW170576   1.029   5.908   7.715  0.0021 -1.2285 -1.2676
20536SOL    HW270577   0.939   5.823   7.802 -0.1574  0.5896  0.4309
20537SOL     OW70578   1.671   8.229   2.501 -0.1319 -0.5682  0.1345
20537SOL    HW170579   1.760   8.240   2.466  0.5721 -0.3236  1.9076
20537SOL    HW270580   1.652   8.313   2.543 -1.7199 -0.1869 -1.2454
20538SOL     OW70581   5.407   8.249   6.011  0.3003 -0.1877  0.4867
20538SOL    HW170582   5.385   8.164   6.051 -0.7084  0.4322  1.3005
20538SOL    HW270583   5.367   8.246   5.925  1.1261 -0.9196  0.1156
20539SOL     OW70584   9.318  11.630   5.682 -1.1368  0.2515  0.3428
20539SOL    HW170585   9.374  11.553   5.689  0.7196  1.5341  0.2043
20539SOL    HW270586   9.252  11.606   5.617 -0.1519 -0.9682 -0.2383
20540SOL     OW70587  11.505  10.251   1.059 -0.0103 -0.0402  0.0731
20540SOL    HW170588  11.537  10.226   0.973 -1.0419 -0.2168 -0.2729
20540SOL    HW270589  11.529  10.178   1.116  0.0932 -0.2218 -0.2027
20541SOL     OW70590   0.878   1.313   4.424 -0.2258 -0.0226  0.1632
20541SOL    HW170591   0.836   1.397   4.444 -0.1601  0.4386 -1.4488
20541SOL    HW270592   0.969   1.336   4.406  0.5202 -0.8623  2.4739
20542SOL     OW70593  11.423   0.055   8.614  0.0106  0.0752  0.1869
20542SOL    HW170594  11.474   0.096   8.684 -1.2194  3.0088 -0.4766
20542SOL    HW270595  11.483   0.048   8.540  0.8934 -1.6739  0.9984
20543SOL     OW70596   4.290  11.807   1.835 -0.6320 -0.3383 -0.0307
20543SOL    HW170597   4.243  11.866   1.776 -0.1529  0.4158  0.3301
20543SOL    HW270598   4.381  11.835   1.830 -0.1367 -1.9912 -0.9600
20544SOL     OW70599  11.974   9.283   3.310 -0.0302  0.3554  0.3116
20544SOL    HW170600  11.961   9.371   3.275  1.2456  0.1556 -0.7348
20544SOL    HW270601  12.004   9.297   3.400  0.7333  1.0163 -0.0394
20545SOL     OW70602   4.602  10.632   0.651  0.3419 -0.1956 -0.4291
20545SOL    HW170603   4.663  10.626   0.578  0.8528 -1.7683  0.0822
20545SOL    HW270604   4.626  10.713   0.696 -1.4883  2.1463 -3.2302
20546SOL     OW70605   8.959   0.018  12.242 -0.1029 -0.0928  0.2268
20546SOL    HW170606   8.947   0.049  12.331  1.1490 -1.3484  0.8736
20546SOL    HW270607   8.889  -0.047  12.229  0.0911 -0.3617  0.5204
20547SOL     OW70608   5.939  10.499   1.588 -0.3870 -0.5360 -0.0115
20547SOL    HW170609   5.945  10.542   1.503 -0.5333 -0.6139 -0.0613
20547SOL    HW270610   5.949  10.405   1.569 -1.7338 -0.6739 -0.1018
20548SOL     OW70611   8.425   9.804   4.347 -0.1488  0.2577  0.6016
20548SOL    HW170612   8.389   9.880   4.301 -1.3728 -0.9147 -0.4835
20548SOL    HW270613   8.418   9.827   4.440 -2.8857  0.5126  0.4103
20549SOL     OW70614   4.704  11.782   5.827  0.0412  0.0496  0.6007
20549SOL    HW170615   4.656  11.757   5.748  1.8252 -0.3055 -0.4436
20549SOL    HW270616   4.648  11.756   5.900 -1.0949 -0.8094 -0.5450
20550SOL     OW70617   7.240   8.650   3.587  0.0652  0.3062  0.5389
20550SOL    HW170618   7.327   8.644   3.547  0.4607 -0.0654  1.4298
20550SOL    HW270619   7.237   8.577   3.649 -1.5512 -0.7558 -0.7158
20551SOL     OW70620   8.889   1.987  11.656 -0.9156 -0.1382 -0.9786
20551SOL    HW170621   8.831   1.940  11.717  1.0426 -1.5807 -0.1164
20551SOL    HW270622   8.960   2.020  11.711 -0.5758  1.0770 -2.0861
20552SOL     OW70623  11.184   5.752   9.919  0.0848 -0.6338  0.0550
20552SOL    HW170624  11.245   5.702   9.974  0.3468 -0.1998  0.1572
20552SOL    HW270625  11.157   5.826   9.973  3.0669  1.8480 -1.5364
20553SOL     OW70626  11.813   4.876   6.647 -0.4146  0.1621 -0.0566
20553SOL    HW170627  11.768   4.806   6.694  0.5638 -0.4184  0.0508
20553SOL    HW270628  11.801   4.954   6.701 -0.2416 -0.2552  0.5978
20554SOL     OW70629  11.927  11.906  10.266 -0.0718 -0.5357 -0.2980
20554SOL    HW170630  11.949  11.934  10.355  0.4005 -1.7727 -0.0109
20554SOL    HW270631  11.994  11.946  10.210 -0.9706  1.1172 -0.2678
20555SOL     OW70632  10.353   7.933   4.357 -0.5817  0.6145 -0.0455
20555SOL    HW170633  10.321   8.013   4.316  0.7355  1.1583 -0.0805
20555SOL    HW270634  10.443   7.924   4.325 -0.6094 -0.7380  0.1741
20556SOL     OW70635   1.237   4.952   2.179  0.7404  0.2904  0.2161
20556SOL    HW170636   1.228   4.857   2.176  0.1272  0.3577 -0.1639
20556SOL    HW270637   1.311   4.971   2.122  2.5854 -0.1558  2.2968
20557SOL     OW70638   2.596  11.455   6.732  0.2172 -0.2692 -0.1538
20557SOL    HW170639   2.612  11.367   6.768 -0.4322 -1.0294 -1.6460
20557SOL    HW270640   2.676  11.477   6.686  0.5076  0.0909  0.5027
20558SOL     OW70641  11.564   9.243   3.925  0.0984 -0.0691 -0.0003
20558SOL    HW170642  11.469   9.233   3.926 -0.1840  2.0938  0.0422
20558SOL    HW270643  11.589   9.232   3.834 -0.5656  1.7557 -0.4538
20559SOL     OW70644   2.190   4.552  11.374 -0.3778  0.8323 -0.0092
20559SOL    HW170645   2.151   4.619  11.430  0.6285  1.4288  0.0052
20559SOL    HW270646   2.212   4.598  11.294 -0.2356  0.3720 -0.2379
20560SOL     OW70647   3.705   3.625   2.007 -0.2468 -0.0351  0.4593
20560SOL    HW170648   3.693   3.576   2.088 -0.9461  1.4241  1.2796
20560SOL    HW270649   3.792   3.664   2.015 -0.5751  0.6383  0.8204
20561SOL     OW70650  11.035  12.084   8.960 -0.6327  0.0017  0.9894
20561SOL    HW170651  11.079  12.148   9.016  0.9401  0.0308 -0.2353
20561SOL    HW270652  11.096  12.011   8.953 -1.1978 -0.3947  0.0328
20562SOL     OW70653   6.090   4.121   0.648 -0.5687  0.5348  0.6593
20562SOL    HW170654   6.008   4.085   0.681 -1.2737  1.7877  0.3383
20562SOL    HW270655   6.158   4.066   0.687 -1.5279 -0.1582  1.4019
20563SOL     OW70656   3.485   7.049   5.124  0.0413  0.1475  0.7225
20563SOL    HW170657   3.399   7.087   5.106 -0.2518 -1.0542 -0.6458
20563SOL    HW270658   3.547   7.114   5.091 -0.4291 -0.1588 -0.8947
20564SOL     OW70659  10.965   8.419  11.814 -0.5469  0.3108  0.0507
20564SOL    HW170660  11.037   8.434  11.875  1.1808 -0.6781 -1.6339
20564SOL    HW270661  10.894   8.384  11.868  1.5005 -2.2096  1.2805
20565SOL     OW70662   1.739  11.338  11.765  0.1762 -0.3733 -0.8004
20565SOL    HW170663   1.805  11.346  11.834 -0.5407  1.9993 -0.3144
20565SOL    HW270664   1.694  11.256  11.785 -2.5505  1.8988  3.9957
20566SOL     OW70665  10.493   8.587   0.956  0.2203  0.0100  0.2616
20566SOL    HW170666  10.479   8.553   1.045  1.9710 -0.5274  0.3556
20566SOL    HW270667  10.530   8.514   0.908 -1.0077  0.2037 -1.0381
20567SOL     OW70668   9.757   9.770  10.776 -0.0199  0.2095 -0.2527
20567SOL    HW170669   9.847   9.791  10.753  0.4267  0.3762  1.5420
20567SOL    HW270670   9.729   9.841  10.833 -0.9475 -0.3546  0.0227
20568SOL     OW70671  11.391  10.032   9.577  0.1920  0.1012 -0.2812
20568SOL    HW170672  11.374   9.941   9.599 -1.1614  0.3413 -0.2877
20568SOL    HW270673  11.431  10.069   9.656 -0.3133 -0.2164  0.1260
20569SOL     OW70674   9.854   2.836   0.357  0.5048 -0.5440 -0.6286
20569SOL    HW170675   9.908   2.878   0.291 -1.1402  0.1474 -1.6095
20569SOL    HW270676   9.817   2.759   0.314  0.3146 -0.7256 -0.1533
20570SOL     OW70677   0.471   3.888   3.476 -0.3263 -0.8806  0.3687
20570SOL    HW170678   0.523   3.885   3.395 -1.6433 -2.8983 -0.4734
20570SOL    HW270679   0.534   3.909   3.544  0.8346  0.9604 -1.1419
20571SOL     OW70680   9.429   1.674   2.324 -0.1494 -0.0226  0.0757
20571SOL    HW170681   9.438   1.630   2.409 -0.8525  0.8271  0.6075
20571SOL    HW270682   9.405   1.604   2.264 -2.5625 -0.2530  1.1602
20572SOL     OW70683   5.441   9.340   1.726 -0.4179  0.2353  0.5586
20572SOL    HW170684   5.447   9.247   1.749 -2.6697 -0.2743 -0.6273
20572SOL    HW270685   5.490   9.347   1.644  0.2709  0.2534  0.9603
20573SOL     OW70686   6.086   4.272   2.558 -0.3579  0.5621  0.4195
20573SOL    HW170687   6.110   4.363   2.575 -0.8773  0.8467 -0.2971
20573SOL    HW270688   6.001   4.261   2.599 -0.4469  0.5037  0.2228
20574SOL     OW70689  10.464   4.793  10.953  0.4145 -0.6459 -0.0468
20574SOL    HW170690  10.451   4.756  10.865 -2.0083 -2.0850  0.8221
20574SOL    HW270691  10.378   4.827  10.977  1.3105  0.7139  1.3757
20575SOL     OW70692   6.939   4.030  10.996  0.3481 -0.4075 -0.5961
20575SOL    HW170693   6.890   4.090  10.940 -0.7116  0.1808  0.8857
20575SOL    HW270694   7.031   4.052  10.980 -0.0066  1.6813 -0.0716
20576SOL     OW70695  11.228   6.054   6.275 -0.0656  0.2324 -0.1322
20576SOL    HW170696  11.314   6.077   6.311 -0.0073  1.0963 -0.7846
20576SOL    HW270697  11.248   6.013   6.190 -0.2563 -0.5505  0.1973
20577SOL     OW70698   6.987  10.641   0.895  0.0386 -0.1949  0.2791
20577SOL    HW170699   6.979  10.685   0.980 -0.4388  1.6381 -0.6847
20577SOL    HW270700   6.904  10.594   0.885  0.2314 -0.7102  0.9520
20578SOL     OW70701   6.156   9.447   7.052 -0.2744  0.2384 -0.1210
20578SOL    HW170702   6.133   9.377   6.991  0.4519  0.2907 -0.4710
20578SOL    HW270703   6.219   9.501   7.003 -0.9942  1.2686  0.0562
20579SOL     OW70704   3.878   1.282   2.690  0.5018 -0.3920 -0.1180
20579SOL    HW170705   3.968   1.249   2.694  1.5696  2.0286 -1.7510
20579SOL    HW270706   3.860   1.294   2.597 -0.9131  0.6735  0.2404
20580SOL     OW70707   3.696   4.648   3.956  0.1014  0.1441  0.4007
20580SOL    HW170708   3.621   4.663   4.014 -0.9115 -2.6871 -0.0197
20580SOL    HW270709   3.770   4.637   4.016 -0.1660  1.0617  0.9237
20581SOL     OW70710   9.921  11.305   0.725 -0.5556 -0.5061  0.1975
20581SOL    HW170711   9.955  11.236   0.668 -0.2957  0.4615 -0.8713
20581SOL    HW270712   9.898  11.261   0.806  0.7882 -1.6390  0.0038
20582SOL     OW70713  11.706   3.207   7.743 -0.5974 -0.3041  0.2338
20582SOL    HW170714  11.700   3.147   7.668  1.5018  0.3919 -0.5532
20582SOL    HW270715  11.714   3.294   7.703  0.8513  0.0524  1.2335
20583SOL     OW70716  10.700   1.682  10.367 -0.1876  0.7586 -0.0258
20583SOL    HW170717  10.789   1.657  10.391  0.2291  1.9033 -0.3343
20583SOL    HW270718  10.674   1.745  10.433 -1.1339 -0.2468  0.5956
20584SOL     OW70719   5.192   4.850  12.072  0.0770  0.2616 -0.1472
20584SOL    HW170720   5.126   4.834  12.004  0.0096 -0.4383  0.0831
20584SOL    HW270721   5.202   4.766  12.116  0.2076  0.6842  0.6344
20585SOL     OW70722   6.013   8.453   2.231  0.3338 -0.0990  0.1364
20585SOL    HW170723   5.972   8.415   2.153 -0.9036 -0.6566  1.0284
20585SOL    HW270724   6.094   8.403   2.242 -0.0462 -0.7893 -0.1453
20586SOL     OW70725   0.750   1.473   3.916  0.2288  0.0106 -0.5973
20586SOL    HW170726   0.679   1.469   3.852  0.4537  1.3277 -0.9694
20586SOL    HW270727   0.800   1.551   3.891  1.0238 -0.1346  0.4642
20587SOL     OW70728  12.261  12.142  12.515 -0.5540  0.4319 -0.3761
20587SOL    HW170729  12.228  12.231  12.525  1.3461  1.0862  0.4014
20587SOL    HW270730  12.261  12.106  12.603  0.0540  0.1875 -0.4687
20588SOL     OW70731  11.632   2.551   7.157 -0.2827  0.0796 -0.1127
20588SOL    HW170732  11.658   2.460   7.173 -0.0800  0.1396 -0.1083
20588SOL    HW270733  11.608   2.584   7.244  0.9903  0.4591  0.1167
20589SOL     OW70734   1.564   3.878   5.603  0.1755  0.2834  0.2485
20589SOL    HW170735   1.582   3.968   5.578  0.5129  0.6637  1.7997
20589SOL    HW270736   1.641   3.829   5.574  0.7763  0.7968  0.9700
20590SOL     OW70737   6.809   3.389   6.281 -0.1678  0.3855  0.4065
20590SOL    HW170738   6.816   3.293   6.283 -0.8373  0.1887 -2.1593
20590SOL    HW270739   6.718   3.405   6.255 -0.3972  1.7867  1.9663
20591SOL     OW70740   4.347   4.325   4.143  0.3953  0.3958 -0.6884
20591SOL    HW170741   4.387   4.239   4.134 -1.4989 -0.5210 -0.7415
20591SOL    HW270742   4.402   4.383   4.091  1.3333 -0.8957 -1.1716
20592SOL     OW70743   6.393   0.148  12.281  0.0739 -0.0114 -0.4342
20592SOL    HW170744   6.416   0.141  12.188 -0.1718 -0.8608 -0.4384
20592SOL    HW270745   6.301   0.173  12.280 -0.0018 -0.2852 -0.4238
20593SOL     OW70746  11.533   9.060   4.438  0.6904 -0.6134 -0.2262
20593SOL    HW170747  11.563   8.972   4.417  0.7043 -0.7369  0.3071
20593SOL    HW270748  11.524   9.061   4.533 -1.0573 -0.6125 -0.3481
20594SOL     OW70749   5.607   9.518   1.122 -0.5518 -0.4239 -0.4571
20594SOL    HW170750   5.555   9.538   1.201  0.7706  1.5422 -0.0234
20594SOL    HW270751   5.695   9.503   1.155  0.7763  3.4406 -1.6518
20595SOL     OW70752   3.091   7.972  12.233  0.5126  0.5272  0.2110
20595SOL    HW170753   3.092   8.016  12.318  1.5705  0.0543  0.4770
20595SOL    HW270754   3.132   8.034  12.173  0.9369  0.3747  0.3351
20596SOL     OW70755   9.214  11.697   4.424  0.8558  0.5594 -0.3354
20596SOL    HW170756   9.157  11.652   4.487  1.8980 -0.1122  0.1422
20596SOL    HW270757   9.188  11.662   4.339 -0.5135  1.4157 -0.3114
20597SOL     OW70758   8.023   4.424   0.299  0.2132 -0.0045 -0.1614
20597SOL    HW170759   8.011   4.428   0.394  2.7194  0.9978  0.1953
20597SOL    HW270760   8.018   4.516   0.271  5.2000  0.5710 -0.0181
20598SOL     OW70761   7.401  10.771   9.038 -0.4122 -0.4273 -0.5120
20598SOL    HW170762   7.352  10.799   9.115  0.4199 -0.4726  0.0415
20598SOL    HW270763   7.352  10.695   9.005  0.3446 -1.7245  1.1956
20599SOL     OW70764   1.554  11.534   3.689  0.1617  0.7267 -0.3242
20599SOL    HW170765   1.608  11.563   3.763  1.4861 -1.9592 -0.1087
20599SOL    HW270766   1.612  11.475   3.639 -1.0497  1.5728 -2.9197
20600SOL     OW70767   6.338   0.913   9.759 -0.0875  0.3674 -0.5113
20600SOL    HW170768   6.324   0.825   9.793  1.4755 -0.4470 -1.7946
20600SOL    HW270769   6.292   0.970   9.819  0.5139 -1.1634  1.5164
20601SOL     OW70770  12.341  10.908   8.047 -0.2231  0.3667 -0.2968
20601SOL    HW170771  12.404  10.981   8.042  1.0374 -0.3186  3.0412
20601SOL    HW270772  12.272  10.940   8.105 -1.5169  0.0791 -1.6332
20602SOL     OW70773   3.521   3.402   1.069 -0.2012  0.1254  0.5712
20602SOL    HW170774   3.512   3.394   0.974  0.4662  0.4467  0.4734
20602SOL    HW270775   3.615   3.403   1.084 -0.2835  1.2059  1.1315
20603SOL     OW70776   6.531   0.859   5.164 -0.1254 -0.2034  0.2502
20603SOL    HW170777   6.533   0.909   5.083 -1.1765  0.7632  0.7873
20603SOL    HW270778   6.615   0.877   5.206 -0.3416  0.8486  0.2615
20604SOL     OW70779   6.008   0.208   6.736  0.3522 -0.3364  0.4338
20604SOL    HW170780   5.960   0.142   6.785  1.4780 -2.1869 -0.8267
20604SOL    HW270781   6.098   0.200   6.767  1.0172 -1.2719 -1.5432
20605SOL     OW70782  10.297   8.846   3.715  0.0629 -0.0358 -0.5901
20605SOL    HW170783  10.344   8.922   3.751 -0.3806  0.2254 -0.5571
20605SOL    HW270784  10.296   8.862   3.620 -1.3393  0.7646 -0.4592
20606SOL     OW70785   1.806  10.178   0.788 -0.4732  0.1315  0.2029
20606SOL    HW170786   1.732  10.232   0.813 -0.0737  1.1506 -0.7117
20606SOL    HW270787   1.882  10.236   0.793  0.3077 -0.9118  1.2244
20607SOL     OW70788   0.451   1.454   7.644  0.2798 -0.2890  0.4299
20607SOL    HW170789   0.408   1.406   7.573 -0.9258  0.3425  0.6920
20607SOL    HW270790   0.475   1.386   7.707 -0.2240 -0.6901  0.2021
20608SOL     OW70791   7.795   2.572   7.179  0.4135 -0.0840  0.4245
20608SOL    HW170792   7.751   2.560   7.263  0.9333 -1.1945  0.5522
20608SOL    HW270793   7.870   2.513   7.182 -0.3809 -1.2751 -1.4065
20609SOL     OW70794   5.149  11.941   6.717  0.0121 -0.0900  0.1683
20609SOL    HW170795   5.223  12.001   6.724  0.9260 -0.9177 -1.6311
20609SOL    HW270796   5.081  11.991   6.671  0.4499 -0.1414 -0.5471
20610SOL     OW70797  10.182   3.675   0.603 -0.4060  0.5100  0.4687
20610SOL    HW170798  10.254   3.615   0.625  0.1342  1.9390  2.8554
20610SOL    HW270799  10.215   3.724   0.528  0.1662 -0.4164  0.0847
20611SOL     OW70800   0.765   0.846   9.058  0.1378 -0.4976 -0.0091
20611SOL    HW170801   0.766   0.784   8.985 -0.3826  1.0911 -1.4335
20611SOL    HW270802   0.684   0.826   9.104 -1.1529  0.4274 -1.7258
20612SOL     OW70803   0.033   7.547   5.134  0.2833  0.0805 -0.3470
20612SOL    HW170804   0.112   7.505   5.101  0.9941  0.8930  0.2826
20612SOL    HW270805   0.056   7.639   5.140 -0.8523  0.3925 -0.5356
20613SOL     OW70806   8.531   9.025   0.247  0.1949  0.3957  0.1666
20613SOL    HW170807   8.489   8.998   0.329  3.0134 -0.4976  1.4347
20613SOL    HW270808   8.461   9.020   0.182 -1.2355 -2.9161  1.7270
20614SOL     OW70809   6.993  11.860   3.758  0.3655 -0.4886 -0.0322
20614SOL    HW170810   6.971  11.792   3.694  1.7304  1.8165 -3.2212
20614SOL    HW270811   7.073  11.829   3.799  0.3327 -1.3126 -0.5644
20615SOL     OW70812   3.700   4.251  11.306  0.0835  0.1277  0.6019
20615SOL    HW170813   3.703   4.278  11.214  0.0722  2.0294  1.1308
20615SOL    HW270814   3.777   4.195  11.316  1.7430  2.1873  0.0895
20616SOL     OW70815   0.302   3.274   2.219 -0.5436  0.4568 -0.1129
20616SOL    HW170816   0.313   3.339   2.149 -0.1703  0.3512 -0.1529
20616SOL    HW270817   0.361   3.203   2.196 -0.5825  0.3225  0.1937
20617SOL     OW70818   9.482   3.844   7.434  0.7729 -0.1246 -0.3243
20617SOL    HW170819   9.427   3.842   7.356  0.0368 -0.6386  0.1905
20617SOL    HW270820   9.459   3.926   7.478  1.7828  0.5645 -1.0484
20618SOL     OW70821   9.925   9.728   7.386  0.2697  0.5785 -0.4435
20618SOL    HW170822  10.003   9.675   7.366 -0.6431 -2.3908  2.8870
20618SOL    HW270823   9.945   9.769   7.470 -1.8888 -0.8015  0.8333
20619SOL     OW70824   3.210   8.692   1.561 -0.0877  0.5996 -0.0658
20619SOL    HW170825   3.220   8.605   1.523 -1.7402 -0.1094  0.9841
20619SOL    HW270826   3.283   8.700   1.623 -0.1783 -0.2489  0.1640
20620SOL     OW70827   5.513   2.351   5.942 -0.1814  0.0067  0.3722
20620SOL    HW170828   5.453   2.306   5.882  0.6848 -0.6134 -0.0442
20620SOL    HW270829   5.537   2.284   6.006 -0.6133  0.4947  1.0632
20621SOL     OW70830  10.467  11.229   1.765 -0.0517 -0.2423  0.4825
20621SOL    HW170831  10.501  11.177   1.692  0.2924  0.4344  0.1566
20621SOL    HW270832  10.476  11.320   1.736 -1.7221 -0.0127  0.5629
20622SOL     OW70833   0.828   3.024   7.453  0.0991 -0.0271  0.4580
20622SOL    HW170834   0.886   3.097   7.478 -0.4491  0.0929  1.4047
20622SOL    HW270835   0.820   3.033   7.358 -0.5051  1.5799  0.6264
20623SOL     OW70836   4.496   0.474   7.077  1.0551  0.4648  0.4245
20623SOL    HW170837   4.538   0.445   6.996  1.6221  0.6966  0.6306
20623SOL    HW270838   4.530   0.562   7.093 -0.4529  1.1715 -0.0466
20624SOL     OW70839   5.192   3.866  10.686  0.4654  0.4453  0.2233
20624SOL    HW170840   5.133   3.796  10.713 -1.3737  1.6542 -0.4850
20624SOL    HW270841   5.256   3.822  10.629 -0.9601 -0.6011 -0.6462
20625SOL     OW70842  10.738   7.433   0.633  0.5033 -0.6777 -0.4038
20625SOL    HW170843  10.698   7.433   0.720 -0.9691  0.7570 -1.0202
20625SOL    HW270844  10.808   7.499   0.639 -1.2757  1.3950 -0.9257
20626SOL     OW70845   5.873   8.741   4.109 -0.0661 -0.2433  0.5488
20626SOL    HW170846   5.788   8.751   4.066  0.2748  1.0080  0.1270
20626SOL    HW270847   5.855   8.756   4.201 -0.4026 -0.5640  0.5379
20627SOL     OW70848   7.928   2.086   0.311 -0.1619  0.1612 -0.0604
20627SOL    HW170849   7.889   2.001   0.332 -0.9628  0.3311 -0.8335
20627SOL    HW270850   8.010   2.064   0.267  0.9527 -0.1992  2.0742
20628SOL     OW70851   5.598   1.723   5.558  0.8228 -0.3557  0.0243
20628SOL    HW170852   5.540   1.798   5.570  0.9409 -0.1136 -0.8305
20628SOL    HW270853   5.652   1.720   5.637 -0.8629 -1.0496  1.2107
20629SOL     OW70854   3.593  11.068   6.144  0.7262 -0.6654  0.1705
20629SOL    HW170855   3.663  11.008   6.171  1.0695 -0.2635  0.1878
20629SOL    HW270856   3.513  11.016   6.151  1.0330 -1.1700  0.0400
20630SOL     OW70857  11.877   1.767   6.213 -1.0719  0.8833  0.1173
20630SOL    HW170858  11.838   1.712   6.145 -0.0761 -0.5745  0.6720
20630SOL    HW270859  11.930   1.831   6.165 -0.4087 -0.1036 -0.4916
20631SOL     OW70860   4.737   0.525   3.476 -0.3281 -0.0308  0.7618
20631SOL    HW170861   4.766   0.596   3.419 -1.8832  0.6675  0.8097
20631SOL    HW270862   4.779   0.543   3.560  0.4820 -0.0295  0.3697
20632SOL     OW70863   2.034  11.445   1.788 -0.5349  0.4911  0.4164
20632SOL    HW170864   1.989  11.385   1.730 -1.7980  0.1808  1.6543
20632SOL    HW270865   1.975  11.455   1.863  0.5349  1.7194  1.1478
20633SOL     OW70866   6.401   4.944  10.773  0.1916  0.0503  0.3130
20633SOL    HW170867   6.475   4.977  10.825  0.9803 -0.4705 -0.4615
20633SOL    HW270868   6.402   4.995  10.693 -0.6038  0.3712  0.4894
20634SOL     OW70869   4.363   9.151   4.160 -0.0960 -0.2570 -0.1837
20634SOL    HW170870   4.437   9.110   4.206 -1.0781 -1.2698  0.5734
20634SOL    HW270871   4.353   9.237   4.201 -0.3490 -0.7697  0.8668
20635SOL     OW70872   6.907   3.175   8.562 -0.2965 -0.6722  0.1767
20635SOL    HW170873   6.986   3.126   8.538  0.7143  0.6529  0.7046
20635SOL    HW270874   6.837   3.109   8.561  0.5667 -1.6278 -1.5453
20636SOL     OW70875  10.080   4.111   5.586 -0.4745  0.7040 -0.0405
20636SOL    HW170876  10.119   4.169   5.652 -1.4330  0.7784  0.4786
20636SOL    HW270877   9.990   4.142   5.577 -0.4879  0.3936 -1.0534
20637SOL     OW70878   8.781  11.986  10.789  1.0728 -0.0474  0.3497
20637SOL    HW170879   8.781  12.026  10.876  0.8084 -1.2585  0.9289
20637SOL    HW270880   8.692  11.954  10.778  1.3564 -0.7534  0.0471
20638SOL     OW70881   9.646   9.276  10.224 -0.0004 -0.0261 -0.0403
20638SOL    HW170882   9.563   9.318  10.200 -0.0623  0.1268  0.4379
20638SOL    HW270883   9.641   9.265  10.319  0.2919 -0.5308 -0.0814
20639SOL     OW70884   1.804  12.155   9.868 -0.3328  0.1266 -0.2262
20639SOL    HW170885   1.888  12.164   9.825 -0.2286 -0.4465 -0.1492
20639SOL    HW270886   1.745  12.121   9.801 -0.1903 -0.6882  0.0508
20640SOL     OW70887   6.094   7.073  12.150  0.3710  0.4739 -0.0344
20640SOL    HW170888   6.020   7.077  12.212  0.7905 -0.5765  0.5678
20640SOL    HW270889   6.078   6.995  12.099  1.4811 -0.2494  0.6721
20641SOL     OW70890   8.674   2.629   5.386  0.5071 -0.4658  0.2737
20641SOL    HW170891   8.733   2.591   5.322  2.6717  4.5450 -1.2161
20641SOL    HW270892   8.731   2.657   5.458 -0.4991  1.4864  0.3766
20642SOL     OW70893   4.752  10.442   5.835  0.0952 -0.3853 -0.0609
20642SOL    HW170894   4.675  10.441   5.892  0.3687 -0.3233  0.3138
20642SOL    HW270895   4.737  10.371   5.773 -0.3619 -0.2373 -0.1244
20643SOL     OW70896  11.064  11.668   8.195 -0.0355 -0.3408 -0.2125
20643SOL    HW170897  11.156  11.688   8.210  0.0599 -0.5240 -0.5324
20643SOL    HW270898  11.030  11.745   8.149  0.1563 -0.5966 -0.8008
20644SOL     OW70899  12.511   5.213   9.901 -0.1210  0.3473  0.3351
20644SOL    HW170900  12.511   5.297   9.947  0.8675  0.8228 -0.4905
20644SOL    HW270901  12.602   5.200   9.874 -0.8759  1.0021 -3.0523
20645SOL     OW70902   6.010   2.630   6.070 -0.0269 -0.0147 -0.0297
20645SOL    HW170903   6.032   2.564   6.004  1.7027  2.5338 -2.2186
20645SOL    HW270904   5.954   2.692   6.023 -0.8385  0.6003  1.6831
20646SOL     OW70905   0.146   5.841  11.544 -0.1238 -0.2100  0.2875
20646SOL    HW170906   0.071   5.899  11.560  0.6427  0.5702  1.1913
20646SOL    HW270907   0.151   5.836  11.448 -0.5030  0.8389  0.1891
20647SOL     OW70908   3.515   7.370   5.752 -0.5756  0.1507  0.0820
20647SOL    HW170909   3.557   7.454   5.772 -0.3198  0.2061 -0.6396
20647SOL    HW270910   3.443   7.392   5.693  0.6984 -0.2904 -1.7560
20648SOL     OW70911  10.308   6.165   0.903  0.4826 -0.3901 -0.5109
20648SOL    HW170912  10.395   6.195   0.929  0.3147  1.1900 -1.6216
20648SOL    HW270913  10.258   6.165   0.985  1.0199  0.5440 -0.1637
20649SOL     OW70914   6.009   1.381   3.155  0.2654  0.0609  0.4686
20649SOL    HW170915   5.999   1.475   3.170 -0.1801 -0.0705  1.0268
20649SOL    HW270916   6.059   1.351   3.231  1.5135  0.0447 -0.3214
20650SOL     OW70917   0.534   9.615   0.079  0.3745 -0.1515 -0.1829
20650SOL    HW170918   0.483   9.539   0.107  0.9133 -0.0800  1.0890
20650SOL    HW270919   0.472   9.670   0.032 -0.1696 -1.0862 -0.6001
20651SOL     OW70920   0.005   8.103   3.827 -0.0026  0.0628  0.1692
20651SOL    HW170921  -0.032   8.117   3.739  0.7828 -0.0252 -0.1852
20651SOL    HW270922  -0.011   8.010   3.845 -0.8372  0.2525  0.4449
20652SOL     OW70923   9.079   5.219   5.822 -0.3937 -0.1073 -0.8164
20652SOL    HW170924   9.015   5.271   5.871 -0.5811 -0.6607 -0.4754
20652SOL    HW270925   9.041   5.131   5.818 -0.7870  0.0921 -2.6552
20653SOL     OW70926   9.696  11.371   6.701  0.0336  0.6703  0.5280
20653SOL    HW170927   9.620  11.328   6.739 -0.0823 -1.1289 -1.5382
20653SOL    HW270928   9.660  11.442   6.648 -0.5629 -1.5904 -2.3369
20654SOL     OW70929  11.676   0.415   0.732 -0.0514  0.7001  0.2360
20654SOL    HW170930  11.659   0.429   0.825 -1.4270 -1.5301  0.3948
20654SOL    HW270931  11.671   0.320   0.720 -0.2333  0.9287 -2.1737
20655SOL     OW70932   4.888   3.062  10.699 -0.2155 -0.1685  0.1511
20655SOL    HW170933   4.930   3.144  10.673 -1.3040  0.7906  1.2733
20655SOL    HW270934   4.850   3.081  10.785 -0.3985 -1.8948  0.4924
20656SOL     OW70935   2.789  11.423   9.263  0.6016 -0.1238 -0.2181
20656SOL    HW170936   2.786  11.414   9.168  1.1653 -0.1724 -0.2396
20656SOL    HW270937   2.859  11.363   9.290  0.2952 -0.2801  0.2505
20657SOL     OW70938   0.084   3.600   8.063  0.4993 -0.2595 -0.3841
20657SOL    HW170939   0.134   3.676   8.034  0.0231  0.0041 -0.5343
20657SOL    HW270940   0.009   3.637   8.110 -0.1133 -0.6052 -1.0598
20658SOL     OW70941   6.149   9.643   0.959 -0.3022 -0.6736  0.1195
20658SOL    HW170942   6.128   9.647   1.052 -1.1088  0.3703 -0.0877
20658SOL    HW270943   6.080   9.694   0.917  0.9503  0.2495 -0.9015
20659SOL     OW70944  10.936   9.040  10.198  0.4545 -0.2386 -0.0863
20659SOL    HW170945  10.939   8.958  10.149  1.2209 -0.2319 -0.0691
20659SOL    HW270946  11.028   9.057  10.223  0.0677 -0.3675  1.5607
20660SOL     OW70947   8.151   9.146   6.070  0.2878  0.4846 -0.1681
20660SOL    HW170948   8.186   9.232   6.092  0.2612  0.1882  1.0698
20660SOL    HW270949   8.165   9.139   5.975  0.3490  1.8127 -0.2793
20661SOL     OW70950   7.464   1.929   4.127 -0.0234  0.4016 -0.7757
20661SOL    HW170951   7.416   1.883   4.059 -1.2251  3.3243 -2.1024
20661SOL    HW270952   7.422   2.015   4.132  2.3154  1.5727  1.1600
20662SOL     OW70953   2.004   3.189   0.847  0.0102  0.7833 -0.3151
20662SOL    HW170954   2.071   3.253   0.872  0.5243  0.8916 -1.8194
20662SOL    HW270955   2.037   3.152   0.765 -1.6938  0.7251 -1.0172
20663SOL     OW70956   4.728   6.092   0.582  0.2950  0.1280 -0.6744
20663SOL    HW170957   4.670   6.157   0.623 -0.6325 -0.7780 -0.4931
20663SOL    HW270958   4.698   6.008   0.617  2.3608 -0.3175  0.1747
20664SOL     OW70959   7.071  12.179   3.335 -0.0748 -0.0044 -0.2006
20664SOL    HW170960   7.112  12.098   3.366 -0.5854 -1.0128 -2.0165
20664SOL    HW270961   7.141  12.244   3.339  1.0802 -1.1487 -1.0520
20665SOL     OW70962   0.002   9.307   0.200 -0.1133 -0.2112  0.3625
20665SOL    HW170963  -0.032   9.329   0.287 -0.1284 -0.0919  0.3253
20665SOL    HW270964  -0.044   9.226   0.176 -1.0749  0.4605 -0.1060
20666SOL     OW70965   2.626   0.421   9.102  0.5673  0.3631  0.2023
20666SOL    HW170966   2.652   0.351   9.043 -0.3625  0.3777 -0.2359
20666SOL    HW270967   2.584   0.375   9.175  1.6372  0.3503  0.8320
20667SOL     OW70968  12.286   1.536   5.383  0.6351  0.1308  0.2726
20667SOL    HW170969  12.272   1.464   5.445 -1.3284 -0.0852 -0.3572
20667SOL    HW270970  12.210   1.534   5.326  0.6042  2.5929  0.1034
20668SOL     OW70971   4.211   5.765  11.017  0.4764 -0.3291  0.3324
20668SOL    HW170972   4.262   5.826  11.069  0.0354  0.8580 -0.5709
20668SOL    HW270973   4.226   5.792  10.926 -0.4678 -0.9785 -0.0375
20669SOL     OW70974   9.161   4.120   9.259  0.4559 -0.0591  0.4559
20669SOL    HW170975   9.114   4.073   9.328  0.3188  1.1691  1.2342
20669SOL    HW270976   9.244   4.146   9.300  1.3577 -1.2669 -0.5650
20670SOL     OW70977   3.551   1.456   2.691  0.1387  0.0776 -0.2435
20670SOL    HW170978   3.623   1.518   2.683  0.7833 -0.6692 -0.3450
20670SOL    HW270979   3.569   1.409   2.773 -0.9245  0.7492  0.3946
20671SOL     OW70980   3.857   9.375   0.489  0.1932  0.2995 -0.0587
20671SOL    HW170981   3.817   9.293   0.518 -0.5742  0.9001  0.6420
20671SOL    HW270982   3.807   9.400   0.411 -0.8968  1.0799  0.8505
20672SOL     OW70983  11.078   7.025   0.614  0.2624  0.0990  0.4265
20672SOL    HW170984  11.010   7.088   0.637  0.2929  0.0847  0.5582
20672SOL    HW270985  11.031   6.948   0.582  0.0875 -0.9215  2.9447
20673SOL     OW70986   8.666   8.903   1.013  0.3859 -0.0469  0.7558
20673SOL    HW170987   8.753   8.940   1.028  0.7112 -0.2869 -0.4582
20673SOL    HW270988   8.621   8.969   0.960  0.3747 -0.6121  0.0474
20674SOL     OW70989   9.193   7.020  10.983 -0.0469 -0.0280 -0.5008
20674SOL    HW170990   9.137   7.018  10.905  0.6066  1.0222 -1.0190
20674SOL    HW270991   9.229   6.932  10.989  0.7071  0.1573 -2.0011
20675SOL     OW70992   4.820   9.433  11.667  0.3512  0.2215  0.1423
20675SOL    HW170993   4.868   9.414  11.586  1.4282  0.2121  0.7719
20675SOL    HW270994   4.728   9.429  11.641  0.6702  2.1190 -1.5358
20676SOL     OW70995   4.225  11.965  10.812 -0.0025 -0.3680  0.3678
20676SOL    HW170996   4.144  11.918  10.833 -0.8026  0.1024 -1.4488
20676SOL    HW270997   4.290  11.930  10.874 -1.2554 -1.7292  0.9845
20677SOL     OW70998   0.012   0.313  10.310  0.1258  0.3485 -1.0233
20677SOL    HW170999   0.101   0.341  10.288  0.5827 -0.0018  0.3026
20677SOL    HW271000  -0.044   0.379  10.270  0.9809  0.6475 -1.7713
20678SOL     OW71001   1.484  11.047   0.596 -0.1080  0.1495 -0.1217
20678SOL    HW171002   1.516  11.115   0.655 -0.4203  1.9042 -1.8708
20678SOL    HW271003   1.394  11.030   0.625  0.2454 -0.1505  0.8368
20679SOL     OW71004   0.141  10.725   6.943  0.1244 -0.0042  0.1740
20679SOL    HW171005   0.130  10.794   7.009 -1.3840  1.3605 -1.3901
20679SOL    HW271006   0.056  10.720   6.900  0.1877 -2.9010  0.1950
20680SOL     OW71007   1.703   3.959   0.036 -0.6269  0.4086  0.3367
20680SOL    HW171008   1.659   3.875   0.045 -0.9456  0.4158 -1.0162
20680SOL    HW271009   1.636   4.018   0.003  0.3799  0.3834 -1.9216
20681SOL     OW71010  11.426   9.052   2.623  0.4359  0.4995  0.0741
20681SOL    HW171011  11.429   8.996   2.545 -1.4393 -0.4821  0.6536
20681SOL    HW271012  11.474   9.002   2.690  0.5612  0.5542  0.0256
20682SOL     OW71013  12.508   0.214   5.861 -0.0200 -0.6516  0.1229
20682SOL    HW171014  12.453   0.276   5.812 -2.0784 -2.8529 -0.5634
20682SOL    HW271015  12.540   0.154   5.795  0.5994 -1.2686  0.9708
20683SOL     OW71016  11.039   2.604   6.076 -0.0458  0.1325  0.0734
20683SOL    HW171017  10.999   2.681   6.034  0.6517 -0.4838 -1.8504
20683SOL    HW271018  10.981   2.583   6.149 -1.3860  1.2563 -0.6255
20684SOL     OW71019   3.303   9.149   3.936  0.8200 -0.1146  0.0751
20684SOL    HW171020   3.270   9.066   3.902  0.3216  0.0312  0.2029
20684SOL    HW271021   3.385   9.163   3.889  0.6124 -0.3851 -0.3735
20685SOL     OW71022   2.486  10.371   4.712 -0.5261  0.6851  0.6123
20685SOL    HW171023   2.452  10.283   4.723  1.4661 -0.0324  1.5558
20685SOL    HW271024   2.481  10.410   4.800  0.7646  0.6426  0.7230
20686SOL     OW71025   8.000   6.710   5.420 -0.3107 -0.4404  0.2504
20686SOL    HW171026   8.089   6.706   5.384 -0.0915 -1.5986  0.8662
20686SOL    HW271027   7.948   6.654   5.362 -1.4136  2.6700 -2.0317
20687SOL     OW71028   8.825  10.741   9.673 -0.4642  0.5327 -0.2210
20687SOL    HW171029   8.741  10.721   9.632 -1.0697  0.1103  1.1874
20687SOL    HW271030   8.816  10.831   9.703 -0.9036  0.0726  1.0715
20688SOL     OW71031  11.124   2.493   9.749 -0.3090  0.9033  0.1989
20688SOL    HW171032  11.045   2.522   9.794 -0.8952  0.6852 -0.6655
20688SOL    HW271033  11.110   2.517   9.657 -0.3334 -1.0500 -0.3507
20689SOL     OW71034   5.680   1.853  12.408 -0.3704  0.1533 -0.3972
20689SOL    HW171035   5.706   1.781  12.350 -2.1906  1.2093 -2.6623
20689SOL    HW271036   5.586   1.842  12.420 -0.1345  0.1794  2.2194
20690SOL     OW71037   1.392   5.683  10.776  0.0164 -0.1092 -0.0294
20690SOL    HW171038   1.408   5.771  10.743  1.6128  0.1304  1.2595
20690SOL    HW271039   1.309   5.656  10.735  0.1424  1.4850 -1.4064
20691SOL     OW71040   9.471   9.364  11.724  0.1096 -0.0891  0.5519
20691SOL    HW171041   9.439   9.388  11.811 -0.8838  0.6548  0.0027
20691SOL    HW271042   9.427   9.281  11.704 -1.1437  0.6833  0.0025
20692SOL     OW71043   1.894   1.081  10.685  0.0655 -0.1004 -0.5577
20692SOL    HW171044   1.889   0.987  10.702  1.0579 -0.4908 -2.2631
20692SOL    HW271045   1.804   1.106  10.665 -0.6270 -0.1835  2.0922
20693SOL     OW71046   7.528  12.190  10.161 -0.5843  0.0245  0.2818
20693SOL    HW171047   7.498  12.131  10.092  1.3166  0.2554 -0.8092
20693SOL    HW271048   7.618  12.212  10.137 -0.0912  0.6973  2.4628
20694SOL     OW71049   1.669   6.399   4.491 -0.2469 -0.2210 -0.1160
20694SOL    HW171050   1.644   6.490   4.507  1.6701  0.5819 -1.3701
20694SOL    HW271051   1.620   6.374   4.412 -2.7766 -1.2122  1.6543
20695SOL     OW71052   0.976   1.615  10.071 -0.5438  0.1726 -1.4855
20695SOL    HW171053   0.971   1.666  10.151  2.2620 -1.3106 -0.2198
20695SOL    HW271054   0.944   1.674  10.002 -1.4209  2.0694  0.4458
20696SOL     OW71055   6.861  10.563   3.874 -0.6740 -0.1947 -0.1077
20696SOL    HW171056   6.946  10.551   3.832  0.3835 -0.8525  2.0520
20696SOL    HW271057   6.826  10.474   3.884 -1.3526  0.0268 -0.4438
20697SOL     OW71058   0.129   3.962   8.868 -0.1642 -0.4126 -0.0207
20697SOL    HW171059   0.112   4.045   8.823  0.5474  1.1891  2.4702
20697SOL    HW271060   0.223   3.963   8.887 -0.7494  0.4834  3.8807
20698SOL     OW71061   9.405   0.745   5.284  0.2383  0.4965 -0.0200
20698SOL    HW171062   9.371   0.772   5.198  1.7501  1.3249 -0.3871
20698SOL    HW271063   9.421   0.828   5.330  0.6314  0.0874  0.5866
20699SOL     OW71064   0.938   4.716   4.888 -0.4241 -0.4968  0.5187
20699SOL    HW171065   0.914   4.633   4.930  0.2441 -0.9175  0.0922
20699SOL    HW271066   0.980   4.690   4.806  1.4235  0.1841  1.1970
20700SOL     OW71067   3.951   0.525   6.950 -0.5260  0.3599 -0.3585
20700SOL    HW171068   4.034   0.534   6.998 -0.8162  2.0532 -0.1032
20700SOL    HW271069   3.924   0.616   6.934 -1.1715 -0.1676 -2.4626
20701SOL     OW71070  11.779   1.935  11.606 -0.2898 -0.0137  0.2362
20701SOL    HW171071  11.690   1.969  11.597 -0.4424 -0.6913 -0.9702
20701SOL    HW271072  11.792   1.880  11.529  1.7598  1.3881 -0.4999
20702SOL     OW71073   4.974  10.309  10.934 -0.7602 -0.2179 -0.3035
20702SOL    HW171074   4.993  10.216  10.943  0.3977 -0.2275 -2.3626
20702SOL    HW271075   4.893  10.312  10.882 -2.1626 -0.0453  1.7558
20703SOL     OW71076   8.672   5.726   5.610  0.0972 -0.5178 -0.0451
20703SOL    HW171077   8.731   5.778   5.664 -1.2202  1.1421 -0.0970
20703SOL    HW271078   8.628   5.791   5.554 -2.4073 -1.5082  0.6254
20704SOL     OW71079   4.271  10.900   9.147 -0.1538  0.0789 -0.5481
20704SOL    HW171080   4.270  10.805   9.158 -0.2415  0.1321 -0.0827
20704SOL    HW271081   4.179  10.922   9.131 -0.3061  0.2115  0.4771
20705SOL     OW71082   3.414  11.918   4.144  0.3036 -0.1790 -0.2851
20705SOL    HW171083   3.504  11.887   4.133  0.4202 -0.6800  1.7564
20705SOL    HW271084   3.385  11.879   4.226 -1.3408  1.0359 -0.2432
20706SOL     OW71085   7.260   0.312   7.645  0.1020 -0.5186  0.4745
20706SOL    HW171086   7.315   0.362   7.706 -1.7702  1.6286  0.5227
20706SOL    HW271087   7.208   0.254   7.702  0.3944 -0.6258  0.6402
20707SOL     OW71088   8.235  11.638   3.848  0.1610  0.6607  0.1359
20707SOL    HW171089   8.150  11.681   3.850  0.2985  0.9210  1.6129
20707SOL    HW271090   8.275  11.660   3.932  1.7970  0.7568 -0.6294
20708SOL     OW71091  10.649  12.477   8.949 -0.3116 -0.0847  0.2724
20708SOL    HW171092  10.744  12.493   8.946 -0.4707  1.3509  1.4679
20708SOL    HW271093  10.610  12.563   8.929 -1.3636 -0.6741 -0.2688
20709SOL     OW71094  11.917  12.039   8.122 -0.6791  0.4587  0.3754
20709SOL    HW171095  11.863  12.074   8.052 -0.3186  0.4211  0.0764
20709SOL    HW271096  11.965  12.115   8.156 -0.3625  0.3698  0.1391
20710SOL     OW71097   2.262   9.476   5.592  0.4579  0.7346  0.2945
20710SOL    HW171098   2.326   9.536   5.630  0.7111  0.4554  0.3128
20710SOL    HW271099   2.304   9.443   5.513  0.0207  1.1454 -0.1101
20711SOL     OW71100  10.396   5.379   0.171  0.2700  0.0449  0.1444
20711SOL    HW171101  10.309   5.341   0.186 -0.4017  1.3448 -0.3404
20711SOL    HW271102  10.427   5.403   0.258  0.0743 -0.2530  0.3013
20712SOL     OW71103   0.556  11.676  11.008  0.2707  0.2270  0.3714
20712SOL    HW171104   0.476  11.692  10.958  0.8479 -2.3221 -1.6202
20712SOL    HW271105   0.625  11.718  10.956  0.7492 -1.5905 -0.5540
20713SOL     OW71106   9.238   8.739   5.049  0.5733 -0.2393  0.3550
20713SOL    HW171107   9.294   8.815   5.068 -0.4721  0.8100 -0.6215
20713SOL    HW271108   9.189   8.763   4.971 -2.2247 -0.5398  1.8488
20714SOL     OW71109  10.778   9.089   1.049  0.0177  0.1001  0.2423
20714SOL    HW171110  10.727   9.021   1.093  0.1649  0.7013  1.3857
20714SOL    HW271111  10.815   9.045   0.972  0.3758 -1.2260  1.1270
20715SOL     OW71112   8.545   3.920   5.982  0.0967 -0.5042 -0.0578
20715SOL    HW171113   8.568   3.987   5.918 -0.1463 -0.0962  0.2749
20715SOL    HW271114   8.459   3.947   6.016  1.1411  0.5145  2.0095
20716SOL     OW71115   9.477   8.196   7.148 -0.5518 -0.3539 -0.3010
20716SOL    HW171116   9.501   8.207   7.055 -1.1940  0.2052 -0.4071
20716SOL    HW271117   9.515   8.112   7.172 -1.4294 -1.0973 -1.4177
20717SOL     OW71118   5.095   1.663   5.040  0.2212 -0.6136  0.1040
20717SOL    HW171119   5.120   1.704   4.957 -2.1250  1.7960  0.4704
20717SOL    HW271120   5.046   1.585   5.015  0.0619 -0.2431 -0.7631
20718SOL     OW71121   9.222  11.518  12.081  0.4870 -0.5338 -0.3602
20718SOL    HW171122   9.160  11.556  12.018 -0.6457  2.2673  2.1593
20718SOL    HW271123   9.308  11.548  12.051  0.2848 -1.3948 -1.9017
20719SOL     OW71124   9.953  10.655   8.743  0.1367 -0.3069  0.0750
20719SOL    HW171125   9.942  10.745   8.713  1.1699 -0.8319 -2.0727
20719SOL    HW271126   9.897  10.603   8.685 -0.3275 -1.0942  1.1823
20720SOL     OW71127  11.594  10.310   7.522 -0.3199 -0.9291 -0.0529
20720SOL    HW171128  11.641  10.309   7.439 -2.0778  1.1390 -1.1775
20720SOL    HW271129  11.549  10.225   7.524  0.6341 -1.4732 -0.6266
20721SOL     OW71130   8.040   6.338   7.267 -0.0823  0.8166  0.4112
20721SOL    HW171131   8.124   6.298   7.243 -0.1633  0.6395  0.4204
20721SOL    HW271132   7.975   6.290   7.215 -0.0355  1.9719 -0.7933
20722SOL     OW71133   8.540   1.913   2.671 -0.0549 -0.7730  0.1847
20722SOL    HW171134   8.583   1.904   2.756 -2.4964 -0.9689  1.5145
20722SOL    HW271135   8.543   2.007   2.652  1.6425 -0.8846 -0.1859
20723SOL     OW71136  11.209   1.914   8.280  0.6343  0.5423  0.3293
20723SOL    HW171137  11.188   2.005   8.298 -0.2376  1.0198 -2.6077
20723SOL    HW271138  11.125   1.869   8.281  0.8029  0.2062 -0.4290
20724SOL     OW71139   8.539  11.907   2.904 -0.0533  0.1869 -0.3020
20724SOL    HW171140   8.599  11.858   2.847 -1.1042 -1.0928 -0.3591
20724SOL    HW271141   8.481  11.840   2.940 -1.6357  1.4139 -0.4818
20725SOL     OW71142   7.334   7.240   5.468 -0.0023  0.2746  0.2004
20725SOL    HW171143   7.267   7.173   5.466 -1.5727  1.6629  1.9461
20725SOL    HW271144   7.368   7.244   5.379  2.0415 -4.5252  0.4625
20726SOL     OW71145   9.785  11.914   1.106  0.1197  0.2421 -0.1577
20726SOL    HW171146   9.850  11.925   1.036 -0.2878  0.5960 -0.4951
20726SOL    HW271147   9.731  11.841   1.077  1.3476 -1.1293  0.9143
20727SOL     OW71148   3.017  10.718   1.134  0.5537  0.0845 -0.2863
20727SOL    HW171149   2.992  10.649   1.072 -0.3576 -1.9235  2.1286
20727SOL    HW271150   2.933  10.750   1.168  0.9610  2.4408 -1.2882
20728SOL     OW71151   8.266   6.708   0.292 -0.0946 -0.4361 -0.6210
20728SOL    HW171152   8.201   6.707   0.362 -0.0151  0.6284 -0.5266
20728SOL    HW271153   8.275   6.616   0.266  0.5107 -0.9737  1.3539
20729SOL     OW71154  12.507   5.172   0.002 -0.5960  0.2334 -0.0709
20729SOL    HW171155  12.483   5.203  -0.085 -2.0215  0.3675  0.3437
20729SOL    HW271156  12.554   5.246   0.042  2.6109 -0.7708 -1.6526
20730SOL     OW71157   7.203   7.255   3.483  0.0012  0.4179  0.2238
20730SOL    HW171158   7.144   7.187   3.453  0.0907  0.2575  0.4045
20730SOL    HW271159   7.232   7.225   3.570 -1.2107  1.4507  1.0179
20731SOL     OW71160   8.137   5.096   4.591  0.0196  0.0340 -0.4677
20731SOL    HW171161   8.052   5.060   4.568  0.4820 -0.6035 -1.1934
20731SOL    HW271162   8.149   5.169   4.530  0.3563 -0.3903 -0.9070
20732SOL     OW71163  11.530  12.009   6.557 -0.1859 -0.0306  0.0677
20732SOL    HW171164  11.500  12.074   6.494  0.3728 -0.8526 -1.0883
20732SOL    HW271165  11.617  11.984   6.526 -0.0135 -0.6531  1.0094
20733SOL     OW71166   9.427   6.689   4.966 -0.7174 -0.1578 -0.1225
20733SOL    HW171167   9.480   6.639   5.029 -2.5118  0.1793  1.7457
20733SOL    HW271168   9.446   6.781   4.987  0.2572  0.0022 -1.5347
20734SOL     OW71169  10.913   4.491   0.987  0.0971  0.4940 -0.0087
20734SOL    HW171170  10.909   4.404   1.027  0.9843  0.7985  0.7632
20734SOL    HW271171  10.985   4.484   0.924  0.7957  0.9234  0.7227
20735SOL     OW71172   6.692   1.253   2.645  1.0060 -0.0033 -0.3203
20735SOL    HW171173   6.624   1.320   2.637 -0.0819 -1.0191  0.0080
20735SOL    HW271174   6.755   1.273   2.576 -0.5556 -0.0659 -1.8218
20736SOL     OW71175   5.969   3.824   3.691 -0.2833  0.1665 -0.3796
20736SOL    HW171176   6.049   3.827   3.744  0.4941  0.3392 -1.5233
20736SOL    HW271177   5.898   3.816   3.755  0.5199  1.5616  0.7537
20737SOL     OW71178   7.901  10.898   6.662 -0.3951  0.3938 -0.0505
20737SOL    HW171179   7.946  10.968   6.614 -2.6326  1.1032 -1.2723
20737SOL    HW271180   7.909  10.821   6.607 -0.0463  0.3143  0.1073
20738SOL     OW71181   5.019   2.228   0.845  0.2962 -0.0605 -0.3595
20738SOL    HW171182   5.086   2.211   0.912  0.9012  1.4649 -0.5265
20738SOL    HW271183   4.937   2.233   0.894  0.7611  1.2575  0.3481
20739SOL     OW71184   4.905   9.998   5.314 -0.3134 -0.4508  0.0162
20739SOL    HW171185   4.886   9.972   5.224  0.5803 -1.4831  0.1046
20739SOL    HW271186   4.984  10.051   5.307  0.0335 -0.9326  0.2328
20740SOL     OW71187   0.347  11.586   8.758  0.5256 -0.1007 -0.3133
20740SOL    HW171188   0.346  11.500   8.799  3.7255 -0.4106 -0.5763
20740SOL    HW271189   0.357  11.568   8.664  1.3780  0.5086 -0.3560
20741SOL     OW71190   2.828  12.369   3.179 -0.2173 -0.4492 -0.0319
20741SOL    HW171191   2.759  12.303   3.194  0.7854 -1.5237  0.0116
20741SOL    HW271192   2.844  12.405   3.266 -0.5326 -0.3876  0.0041
20742SOL     OW71193   0.865   6.894  10.240 -0.0554  0.2268  0.0837
20742SOL    HW171194   0.874   6.853  10.154 -1.1008 -1.3115  0.6511
20742SOL    HW271195   0.940   6.952  10.248  0.6093 -0.3909 -1.4456
20743SOL     OW71196   5.553   0.480   2.733 -0.0874 -0.2387 -0.3541
20743SOL    HW171197   5.558   0.440   2.646 -0.7743 -0.2605 -0.3838
20743SOL    HW271198   5.531   0.407   2.791 -0.0242 -0.1467 -0.2136
20744SOL     OW71199   8.959  11.211   3.599  0.0606 -0.2907  0.2095
20744SOL    HW171200   8.992  11.296   3.569 -1.8933  1.4209  2.5479
20744SOL    HW271201   8.864  11.220   3.595 -0.1823 -2.1569  1.1295
20745SOL     OW71202   3.139  11.015   8.374 -0.1757 -0.8542 -0.2504
20745SOL    HW171203   3.145  10.987   8.282 -0.0369 -0.7021 -0.2884
20745SOL    HW271204   3.217  10.979   8.416  1.1242  1.1875 -0.7618
20746SOL     OW71205  11.618   8.504   1.284 -0.4287  0.8177 -0.3503
20746SOL    HW171206  11.639   8.473   1.196  2.5122 -0.2262  0.5866
20746SOL    HW271207  11.668   8.585   1.293 -0.4274  0.7329  0.4597
20747SOL     OW71208   9.562   9.629  11.645 -0.0760  0.4643 -0.7983
20747SOL    HW171209   9.530   9.542  11.669  1.9588  0.1384  1.1605
20747SOL    HW271210   9.621   9.613  11.571  1.4328 -0.1320  0.4629
20748SOL     OW71211   7.251  10.623   6.127  0.0215  0.1313  0.1641
20748SOL    HW171212   7.203  10.541   6.139 -0.1922  0.4247  1.5440
20748SOL    HW271213   7.215  10.661   6.048 -1.3050 -0.1615  0.6051
20749SOL     OW71214   1.557   4.710  10.731  0.3468 -0.1939 -0.4839
20749SOL    HW171215   1.496   4.746  10.795  0.4890 -0.8103  0.0055
20749SOL    HW271216   1.562   4.777  10.663 -0.6783 -0.0181 -0.4100
20750SOL     OW71217  12.439  10.483   3.668  0.6165 -0.2489 -0.2759
20750SOL    HW171218  12.449  10.517   3.578  1.0084 -0.0972 -0.1807
20750SOL    HW271219  12.474  10.394   3.664 -0.7525 -0.7951 -0.6102
20751SOL     OW71220   5.683   7.582  11.557  0.0880 -0.5289 -0.0914
20751SOL    HW171221   5.609   7.596  11.497 -1.3888 -1.1493  1.4868
20751SOL    HW271222   5.744   7.652  11.536 -2.4633  2.1817  0.7458
20752SOL     OW71223   2.732  10.259   6.915  1.1271  0.1919 -0.0348
20752SOL    HW171224   2.786  10.284   6.990  0.0854 -1.4445  1.3456
20752SOL    HW271225   2.700  10.342   6.881 -0.6446  1.0059  3.1461
20753SOL     OW71226  10.871   9.395   7.818  0.1460 -0.4948 -0.0612
20753SOL    HW171227  10.940   9.367   7.877  0.1373  1.5999  1.0585
20753SOL    HW271228  10.910   9.467   7.768 -0.5181 -0.8272 -1.0975
20754SOL     OW71229   6.414   7.582   6.295 -0.4178 -0.0290 -0.2284
20754SOL    HW171230   6.490   7.598   6.352 -0.4909 -1.3190  0.2527
20754SOL    HW271231   6.452   7.553   6.212 -0.2635  2.7626 -1.2454
20755SOL     OW71232   1.843   5.141   5.034 -1.0768  0.7208 -0.2602
20755SOL    HW171233   1.868   5.050   5.051 -0.7240  0.5208 -1.6935
20755SOL    HW271234   1.921   5.181   4.995 -1.7628  1.1373 -1.2603
20756SOL     OW71235  11.030   7.479  12.199 -0.1489  0.0112  0.2332
20756SOL    HW171236  11.066   7.432  12.275 -2.0766 -1.7755  0.1173
20756SOL    HW271237  10.942   7.505  12.227 -0.6806 -0.1874 -1.1904
20757SOL     OW71238   8.253  10.258   4.856  0.2398  0.1157  0.0615
20757SOL    HW171239   8.273  10.182   4.800  2.0356  1.2396 -0.9291
20757SOL    HW271240   8.297  10.240   4.938 -1.1779 -0.8694  0.6491
20758SOL     OW71241   7.713   1.446   0.368 -0.0133  0.4526  0.4112
20758SOL    HW171242   7.710   1.479   0.278 -0.0561 -2.3112 -0.7148
20758SOL    HW271243   7.653   1.502   0.417 -2.7272 -0.0476 -2.0725
20759SOL     OW71244   9.993   5.048   3.364  0.3420 -0.1085  0.0647
20759SOL    HW171245   9.954   4.965   3.391 -2.7063  1.1349 -0.0982
20759SOL    HW271246  10.005   5.039   3.270 -1.8191  0.2239 -0.2959
20760SOL     OW71247  10.129  10.809   6.476 -0.3007 -0.1032 -0.0369
20760SOL    HW171248  10.034  10.809   6.484 -0.2666  0.9221  0.5409
20760SOL    HW271249  10.146  10.856   6.395 -0.2815  0.2824  0.1849
20761SOL     OW71250  10.492   4.404  10.943 -0.5362  0.4737 -0.1257
20761SOL    HW171251  10.466   4.429  10.854 -0.3537 -0.9795 -0.6109
20761SOL    HW271252  10.573   4.452  10.958  0.1045 -0.2282 -1.2371
20762SOL     OW71253  11.195  11.418  12.012 -0.0391 -0.4344  0.2241
20762SOL    HW171254  11.135  11.493  12.016 -0.3972 -0.5530 -1.8612
20762SOL    HW271255  11.148  11.347  12.056 -0.5805 -0.0042  0.3530
20763SOL     OW71256   5.014   4.244   4.877 -0.2850 -0.6424 -0.3706
20763SOL    HW171257   4.946   4.247   4.945  0.3702 -1.3058  0.3402
20763SOL    HW271258   5.084   4.299   4.911 -0.6655  0.4802 -1.3497
20764SOL     OW71259  12.000  12.481   6.695  0.0449 -0.4848  0.0803
20764SOL    HW171260  12.068  12.427   6.733 -0.2375 -0.0527  1.2388
20764SOL    HW271261  12.044  12.564   6.676 -0.1067 -0.2670  0.6611
20765SOL     OW71262   2.214   6.816  10.252  0.0018  0.0996  0.1988
20765SOL    HW171263   2.172   6.733  10.227  0.8129  0.2630 -1.9135
20765SOL    HW271264   2.297   6.790  10.291  0.0401 -0.0971 -0.0129
20766SOL     OW71265  11.398   8.178   5.068  0.0238  0.3330  0.3593
20766SOL    HW171266  11.471   8.159   5.008 -0.9535 -0.4211 -0.6381
20766SOL    HW271267  11.329   8.213   5.011 -0.5886  0.5349  1.2067
20767SOL     OW71268  12.204   6.201   6.699  0.4172  0.3625 -0.1331
20767SOL    HW171269  12.238   6.266   6.760 -1.9046  0.4235  1.2333
20767SOL    HW271270  12.111   6.223   6.692 -0.1531 -2.0223 -0.6432
20768SOL     OW71271  12.298  11.319   6.352 -0.3110 -0.4903 -0.0876
20768SOL    HW171272  12.212  11.352   6.379 -0.5514 -0.1517 -1.2354
20768SOL    HW271273  12.333  11.277   6.431 -2.7011 -3.1432 -0.2689
20769SOL     OW71274   9.731   1.525   1.486 -0.1021 -0.1529  0.1445
20769SOL    HW171275   9.721   1.609   1.530 -1.0144 -0.5719  0.7645
20769SOL    HW271276   9.673   1.466   1.533 -0.5122 -0.8090 -1.1240
20770SOL     OW71277   9.162  11.977  11.227 -0.0046 -0.0698 -0.2250
20770SOL    HW171278   9.150  11.976  11.132  1.6065  1.0551 -0.4748
20770SOL    HW271279   9.139  12.066  11.254  2.5764  0.6236 -0.0604
20771SOL     OW71280  10.475   0.706   3.096 -0.6833 -0.8764  0.0119
20771SOL    HW171281  10.439   0.701   3.184 -1.2650 -1.0419 -0.2257
20771SOL    HW271282  10.495   0.799   3.083 -0.1143 -0.9290  0.4976
20772SOL     OW71283   8.435   9.664   5.481 -0.3104  0.7339 -0.1156
20772SOL    HW171284   8.471   9.579   5.456  1.3192  2.2074 -3.5114
20772SOL    HW271285   8.407   9.653   5.572  1.5888 -2.8343  0.2176
20773SOL     OW71286   0.121  11.643   0.970  0.5460  0.2941  0.3891
20773SOL    HW171287   0.063  11.695   1.026  1.1615  0.0253  1.3058
20773SOL    HW271288   0.203  11.639   1.020  0.5519 -1.4480  0.2776
20774SOL     OW71289   8.416   2.120   5.004 -0.0511  0.1781  0.1296
20774SOL    HW171290   8.339   2.082   4.963 -0.9144  1.9045  0.0489
20774SOL    HW271291   8.477   2.047   5.013 -1.6435 -1.2227  0.1101
20775SOL     OW71292   9.775   5.812  10.398 -0.6996 -0.3752 -0.2442
20775SOL    HW171293   9.855   5.834  10.350  0.6331  0.4069  2.1403
20775SOL    HW271294   9.709   5.874  10.367  0.4291  0.8405 -0.2861
20776SOL     OW71295   7.294  10.300   0.247  0.1796  0.3633 -0.6939
20776SOL    HW171296   7.242  10.312   0.327 -0.9240 -0.4025 -1.2802
20776SOL    HW271297   7.276  10.378   0.195 -1.0199 -0.2580 -1.2330
20777SOL     OW71298  12.238   9.671   5.390 -0.3186  0.0154 -0.1878
20777SOL    HW171299  12.258   9.638   5.478  0.2329 -0.6757 -0.5567
20777SOL    HW271300  12.320   9.662   5.342  0.0033  2.4581 -0.1847
20778SOL     OW71301   0.865   7.419   3.699  0.5830  0.2623 -0.4938
20778SOL    HW171302   0.813   7.498   3.712 -2.0704 -1.3045 -0.6318
20778SOL    HW271303   0.905   7.431   3.613  2.1745  2.3567  0.4428
20779SOL     OW71304   5.350  11.102   3.252  0.2408 -0.0056  0.1045
20779SOL    HW171305   5.305  11.046   3.315  0.8628  0.1272  0.6788
20779SOL    HW271306   5.349  11.051   3.171 -1.4874  0.2609 -0.0825
20780SOL     OW71307   1.530  11.595   9.521 -0.9080  0.0666 -0.4947
20780SOL    HW171308   1.436  11.581   9.525 -1.1396  1.5584 -0.3897
20780SOL    HW271309   1.541  11.682   9.482  0.4576 -0.4825 -1.4482
20781SOL     OW71310   0.702   1.087   2.685 -0.0251  0.2589 -0.4328
20781SOL    HW171311   0.677   1.179   2.691  0.3659  0.2733  1.3030
20781SOL    HW271312   0.796   1.087   2.700  0.4034 -0.2362 -2.6842
20782SOL     OW71313   9.681  12.104   4.280  0.0331  0.2553  0.8970
20782SOL    HW171314   9.613  12.036   4.282  0.4791 -0.2038  0.6181
20782SOL    HW271315   9.639  12.181   4.319 -0.7017  0.0246  0.5785
20783SOL     OW71316   7.893   4.751   8.145  0.2961 -0.8586 -0.0178
20783SOL    HW171317   7.811   4.799   8.159  1.6010  1.8361 -0.8930
20783SOL    HW271318   7.891   4.681   8.210 -1.4541  0.8056  1.8735
20784SOL     OW71319   9.950   6.346   1.084 -0.4607 -0.0569 -0.5358
20784SOL    HW171320   9.970   6.337   0.991 -0.0359  0.3773 -0.4874
20784SOL    HW271321   9.910   6.432   1.091  0.4332  0.3367 -0.1638
20785SOL     OW71322   7.224   8.008   9.644 -0.2478  0.0144 -0.4066
20785SOL    HW171323   7.152   7.998   9.706  0.6505 -0.6155  0.5792
20785SOL    HW271324   7.273   8.084   9.676  0.8770 -1.0075  0.3679
20786SOL     OW71325   7.802   3.255   4.802  0.5898  0.3908  0.0883
20786SOL    HW171326   7.776   3.335   4.849  1.1283  0.6768 -0.1014
20786SOL    HW271327   7.875   3.282   4.747 -0.3545  0.1785 -1.3318
20787SOL     OW71328   7.921   4.809   6.395  1.1646  0.0511 -0.0060
20787SOL    HW171329   7.874   4.819   6.312  1.7748 -1.5343 -0.5965
20787SOL    HW271330   7.941   4.715   6.399 -0.7858 -0.3494  3.0097
20788SOL     OW71331  12.017  12.400   9.048  0.3081 -0.2856  0.4145
20788SOL    HW171332  11.952  12.460   9.084  1.5635 -0.4028  3.1073
20788SOL    HW271333  12.086  12.456   9.014 -0.0651 -0.2033 -0.2356
20789SOL     OW71334   6.885   3.628   9.939  0.2854 -0.0526 -0.2162
20789SOL    HW171335   6.803   3.674   9.926  0.0157 -0.5690 -0.3604
20789SOL    HW271336   6.909   3.597   9.852  0.4347 -0.2342 -0.1109
20790SOL     OW71337   0.964   5.082   5.148  0.0212  0.6239 -0.3946
20790SOL    HW171338   0.876   5.046   5.159 -0.0761  1.1036  0.5461
20790SOL    HW271339   0.951   5.176   5.135  0.3918  0.7424  0.0327
20791SOL     OW71340   7.574  11.723   0.830  0.1050  0.2731  0.3218
20791SOL    HW171341   7.649  11.667   0.813 -1.7876 -3.2513  2.2904
20791SOL    HW271342   7.525  11.724   0.747  1.0565  0.5222 -0.2463
20792SOL     OW71343   6.821   4.294   1.078  0.2099 -0.1270 -0.2920
20792SOL    HW171344   6.793   4.309   1.168 -1.8142 -1.0544 -0.7072
20792SOL    HW271345   6.844   4.201   1.074  0.2084 -0.1130 -0.7414
20793SOL     OW71346   1.277  12.164  10.749  0.7440 -0.2526  0.3074
20793SOL    HW171347   1.258  12.204  10.834  0.0921  0.5304 -0.1930
20793SOL    HW271348   1.246  12.228  10.685  2.8734  0.0156 -0.5613
20794SOL     OW71349   3.027   1.895   3.903 -0.0826 -0.3600 -0.2964
20794SOL    HW171350   2.992   1.945   3.977 -1.4319  0.0156 -1.1474
20794SOL    HW271351   2.961   1.827   3.887 -0.4006  0.2660 -1.8428
20795SOL     OW71352   0.224   0.236   4.135  0.2470 -0.8262  0.3346
20795SOL    HW171353   0.297   0.186   4.097  1.0753  0.5102  0.1031
20795SOL    HW271354   0.188   0.177   4.201 -0.9765 -3.0743 -2.1311
20796SOL     OW71355  10.398  12.555   2.180 -0.6400 -0.0912 -0.1830
20796SOL    HW171356  10.363  12.537   2.093  0.0234 -0.4945 -0.3776
20796SOL    HW271357  10.336  12.617   2.219 -1.4985 -0.7181 -0.5381
20797SOL     OW71358   9.546   3.761   9.656 -0.2592  0.2120 -0.1096
20797SOL    HW171359   9.530   3.849   9.690  0.0288  0.3749 -0.3827
20797SOL    HW271360   9.593   3.716   9.726  0.9359  0.7615 -0.5420
20798SOL     OW71361   7.515  11.308   7.114  0.3207 -0.0671  0.0095
20798SOL    HW171362   7.567  11.379   7.077 -1.6293  0.8262 -1.1841
20798SOL    HW271363   7.474  11.346   7.191  1.0492 -0.6369  0.6978
20799SOL     OW71364   0.742   8.158  11.440  0.0023  0.4397 -0.3302
20799SOL    HW171365   0.820   8.115  11.476 -1.1285 -0.3231  1.3180
20799SOL    HW271366   0.762   8.170  11.347  2.3509  0.8840  0.1573
20800SOL     OW71367  11.183   6.850  11.379 -0.4806  0.3241  0.7470
20800SOL    HW171368  11.245   6.781  11.355 -1.8162 -1.4995  2.1836
20800SOL    HW271369  11.235   6.930  11.382  1.5396 -0.9252  0.7605
20801SOL     OW71370   8.346  10.926  11.026  0.3047  0.0118 -0.3978
20801SOL    HW171371   8.421  10.985  11.035  0.5577 -0.5116  1.2494
20801SOL    HW271372   8.319  10.908  11.115 -1.1662 -0.6263 -0.9420
20802SOL     OW71373   2.275   0.895   8.115 -0.0043  0.2608  0.2586
20802SOL    HW171374   2.190   0.930   8.089  0.3206  1.3465  0.6232
20802SOL    HW271375   2.256   0.841   8.192 -0.4542 -0.0661 -0.0767
20803SOL     OW71376   5.130  11.599  11.956  0.5412 -0.4932 -0.1122
20803SOL    HW171377   5.061  11.564  11.900  0.4239 -1.5719  0.6728
20803SOL    HW271378   5.119  11.694  11.951 -0.8564 -0.6364 -0.1816
20804SOL     OW71379  10.868   3.761   7.857 -0.0022 -0.3315  0.2536
20804SOL    HW171380  10.790   3.706   7.850 -1.1040  1.1637  0.2427
20804SOL    HW271381  10.842   3.830   7.919  0.4950  1.4798 -1.4692
20805SOL     OW71382   5.416  11.862   3.036 -0.2073  0.0583 -0.4862
20805SOL    HW171383   5.381  11.774   3.041 -3.0573  1.1538  1.9541
20805SOL    HW271384   5.499  11.858   3.084  0.0727 -1.4029 -1.0592
20806SOL     OW71385   9.995  11.743   1.765  0.3323 -0.1038 -0.3235
20806SOL    HW171386   9.908  11.747   1.726  0.0180  1.0665  0.4399
20806SOL    HW271387  10.028  11.656   1.741 -1.5828 -1.1309  0.5162
20807SOL     OW71388   6.260   4.370   1.296 -0.0530 -0.0091 -0.3535
20807SOL    HW171389   6.328   4.404   1.354  1.1295 -0.8043 -1.2396
20807SOL    HW271390   6.219   4.299   1.346  0.4777 -0.2250 -0.2271
20808SOL     OW71391   9.351   8.165   9.625  0.4017  0.0048 -0.5533
20808SOL    HW171392   9.440   8.162   9.659 -0.4329  0.4124  1.8754
20808SOL    HW271393   9.359   8.137   9.534  2.8770 -0.7351 -0.1787
20809SOL     OW71394  10.029   7.462   0.080 -0.1192 -0.3191 -0.1277
20809SOL    HW171395  10.011   7.554   0.100  0.3480 -0.3282  0.3533
20809SOL    HW271396  10.122   7.452   0.097 -0.1995 -0.9221 -0.0373
20810SOL     OW71397   7.292   1.029   6.330 -0.5647  0.1700 -0.4363
20810SOL    HW171398   7.305   0.945   6.286 -1.6306 -1.6580  2.4204
20810SOL    HW271399   7.203   1.025   6.364 -0.6886  2.5448 -0.3186
20811SOL     OW71400   5.895  12.522   7.896  0.8614 -0.4739  0.5664
20811SOL    HW171401   5.931  12.446   7.942 -0.2490 -0.7583  0.9947
20811SOL    HW271402   5.936  12.597   7.938  1.4720 -0.8064  0.5802
20812SOL     OW71403   4.990  10.467   8.738  0.2718  0.6030 -0.6510
20812SOL    HW171404   4.960  10.409   8.668 -0.7279 -0.5469  0.6747
20812SOL    HW271405   4.910  10.497   8.781  0.7572  3.0693 -1.3253
20813SOL     OW71406   8.641   4.594   5.292  0.0006 -0.0526  0.7567
20813SOL    HW171407   8.714   4.549   5.248  1.7134  1.0984  2.2811
20813SOL    HW271408   8.574   4.602   5.225  0.9324 -1.8860 -0.4888
20814SOL     OW71409   2.463   4.308   3.532  0.1829 -0.8102  0.1390
20814SOL    HW171410   2.385   4.268   3.493  1.0199 -1.7131 -0.6347
20814SOL    HW271411   2.470   4.393   3.489 -0.9373 -0.2629  0.9576
20815SOL     OW71412   9.419   9.843   8.524 -0.4568 -0.3565 -0.0310
20815SOL    HW171413   9.413   9.857   8.619  0.0914  1.2288 -0.2073
20815SOL    HW271414   9.451   9.753   8.515 -1.6318 -0.9421  1.2549
20816SOL     OW71415   5.418   4.501   8.241 -0.5099  0.3376  0.5629
20816SOL    HW171416   5.475   4.495   8.317  0.6505 -0.9552 -0.3564
20816SOL    HW271417   5.405   4.595   8.228  1.0109  0.6532  1.1085
20817SOL     OW71418   9.182   4.578   5.441 -0.8167 -0.1027  0.3952
20817SOL    HW171419   9.267   4.615   5.416 -0.2818 -0.2285  1.9205
20817SOL    HW271420   9.139   4.560   5.357  1.5094 -2.0211 -0.5283
20818SOL     OW71421   4.181   4.313   0.534 -0.4456  0.0058 -0.3111
20818SOL    HW171422   4.229   4.362   0.467 -0.2174  0.1008 -0.0776
20818SOL    HW271423   4.110   4.271   0.486  0.5794 -1.1254 -0.8836
20819SOL     OW71424  11.641  10.856   9.294  0.1413  0.1167 -0.2480
20819SOL    HW171425  11.684  10.772   9.275 -0.4677 -0.8745  2.3485
20819SOL    HW271426  11.550  10.832   9.313  0.1218  1.2367  1.2230
20820SOL     OW71427   4.417   9.038   3.640 -0.2081  0.3211 -0.1300
20820SOL    HW171428   4.358   8.981   3.689 -1.8378  0.8110 -1.4240
20820SOL    HW271429   4.505   9.007   3.663 -0.9975 -1.7421  0.3253
20821SOL     OW71430   0.254   3.938   6.330 -0.0521  0.0214  0.8087
20821SOL    HW171431   0.243   3.920   6.423  2.3571  0.7939  1.3181
20821SOL    HW271432   0.276   3.854   6.290 -1.1064 -0.3126  0.9087
20822SOL     OW71433  12.329   6.939   0.586  0.1925  0.3984  0.1299
20822SOL    HW171434  12.263   6.880   0.624  0.3985  0.0786 -0.0036
20822SOL    HW271435  12.301   7.026   0.612 -0.3580  0.2761 -0.0245
20823SOL     OW71436  11.761  10.189   1.715  0.1766 -0.5010 -0.1711
20823SOL    HW171437  11.770  10.270   1.764 -0.1542 -0.7381  0.2864
20823SOL    HW271438  11.682  10.148   1.749  0.9564 -1.5710  0.4331
20824SOL     OW71439   0.618   6.128   9.096 -0.0570  0.5260 -0.2497
20824SOL    HW171440   0.596   6.088   9.012 -1.9933 -1.4218  1.0631
20824SOL    HW271441   0.549   6.191   9.113  0.0735  0.5888  0.0681
20825SOL     OW71442   7.946   9.008   2.888  0.0388  0.1877 -0.4079
20825SOL    HW171443   7.912   9.040   2.804 -0.0261  0.6074 -0.2219
20825SOL    HW271444   7.928   8.914   2.886 -3.6828  0.6978  0.8246
20826SOL     OW71445   5.846   7.243   6.783 -0.2107 -0.1172 -0.2811
20826SOL    HW171446   5.785   7.247   6.856 -0.9655  1.2183 -0.9467
20826SOL    HW271447   5.899   7.165   6.800  0.0113  0.4609  1.9517
20827SOL     OW71448  11.353   8.389   4.571  0.3637 -0.0437 -0.0270
20827SOL    HW171449  11.422   8.408   4.634 -0.7520 -1.2500  1.6386
20827SOL    HW271450  11.273   8.383   4.624 -0.8183  0.0906 -1.7239
20828SOL     OW71451   2.351   9.670   8.043  0.2343  0.5961 -0.2534
20828SOL    HW171452   2.305   9.752   8.027  0.8466  1.2523  1.1280
20828SOL    HW271453   2.299   9.603   7.999 -0.5252  1.6620 -1.0066
20829SOL     OW71454   7.145   8.704   4.848  0.0584  0.5373  0.2470
20829SOL    HW171455   7.216   8.679   4.907  2.0161  1.9512 -1.3524
20829SOL    HW271456   7.116   8.622   4.808  2.6181  0.1348 -0.9502
20830SOL     OW71457   5.375   0.098   1.761 -0.4692 -0.2231 -0.3972
20830SOL    HW171458   5.386   0.026   1.823  1.5202 -0.5567 -1.0613
20830SOL    HW271459   5.442   0.162   1.786 -1.1698  0.7014 -0.8026
20831SOL     OW71460   7.773   2.671   1.698  0.0352  0.2455 -0.3312
20831SOL    HW171461   7.718   2.646   1.624  0.3064 -1.8433  0.1052
20831SOL    HW271462   7.713   2.671   1.773  0.1251  0.5015 -0.2602
20832SOL     OW71463   6.241  12.585  10.874  0.5420 -0.2409 -0.1287
20832SOL    HW171464   6.226  12.576  10.969  1.5003  2.0170  0.2920
20832SOL    HW271465   6.286  12.504  10.849 -0.6971 -1.3648  1.0978
20833SOL     OW71466   6.946   1.927  11.182 -0.1982  0.1224 -0.0786
20833SOL    HW171467   6.934   2.009  11.134  0.4557  0.7929  0.8381
20833SOL    HW271468   6.859   1.904  11.214 -0.1597  1.3696  1.0264
20834SOL     OW71469   1.189   7.738  11.229  0.3873  0.0884  0.3167
20834SOL    HW171470   1.131   7.668  11.199 -1.5010  1.0941  1.4612
20834SOL    HW271471   1.234   7.767  11.149 -0.7094 -0.7027 -0.6210
20835SOL     OW71472  11.330   2.662   2.037 -0.8129  0.2390  0.2710
20835SOL    HW171473  11.261   2.597   2.056 -1.4485  1.3408  1.9663
20835SOL    HW271474  11.317   2.683   1.945 -1.2161 -1.3010 -0.0661
20836SOL     OW71475  11.308   8.828   1.793 -0.2408  0.6610  0.5072
20836SOL    HW171476  11.341   8.739   1.802  0.8248  0.7684 -1.8231
20836SOL    HW271477  11.223   8.819   1.752 -0.9639  0.6669  1.9343
20837SOL     OW71478   0.320   5.576   5.840 -1.0351  0.2420 -0.2840
20837SOL    HW171479   0.226   5.595   5.845 -1.5201 -2.0155  0.4858
20837SOL    HW271480   0.328   5.486   5.872  1.5714  0.8045  0.8935
20838SOL     OW71481  10.209   8.390   8.635  0.0540  0.1849 -0.8069
20838SOL    HW171482  10.251   8.303   8.636 -0.8346 -0.2623 -1.4126
20838SOL    HW271483  10.278   8.450   8.663  0.5231 -0.7872  0.2173
20839SOL     OW71484   7.218   3.574  12.386 -0.6293  0.1411  0.4509
20839SOL    HW171485   7.261   3.659  12.395  0.0145  0.0859 -1.4770
20839SOL    HW271486   7.127   3.591  12.409 -0.3987  1.2290  0.6422
20840SOL     OW71487   6.727   1.914  11.336 -0.2486  0.6390 -0.0090
20840SOL    HW171488   6.683   1.999  11.330 -1.6804 -0.0058  0.8566
20840SOL    HW271489   6.767   1.914  11.423 -0.9761  0.1040  0.3303
20841SOL     OW71490   1.169   1.861   6.552 -0.0597  0.2924 -0.2534
20841SOL    HW171491   1.103   1.922   6.520 -2.7761 -2.1255  0.2804
20841SOL    HW271492   1.185   1.888   6.642 -0.5107  0.7774 -0.3137
20842SOL     OW71493   0.116   4.122   9.169  0.0305 -0.6559 -0.5245
20842SOL    HW171494   0.155   4.037   9.148  1.3518  0.1812 -1.6973
20842SOL    HW271495   0.115   4.169   9.085 -1.0194  0.3620  0.0240
20843SOL     OW71496   8.373  12.052   0.393 -0.1547 -0.7478 -0.5203
20843SOL    HW171497   8.374  12.024   0.485  0.1642  1.7076  0.2930
20843SOL    HW271498   8.338  11.977   0.346 -2.4504 -1.3346  1.8750
20844SOL     OW71499  10.749   5.971  10.430  0.4020  0.0674  0.2769
20844SOL    HW171500  10.753   5.961  10.525  1.1801 -0.4746  0.1962
20844SOL    HW271501  10.718   5.886  10.398 -0.8959  0.5780  0.0981
20845SOL     OW71502   7.522  11.281  11.868 -0.2513  0.4269 -0.0796
20845SOL    HW171503   7.465  11.220  11.822  1.5315 -0.1444 -1.6607
20845SOL    HW271504   7.523  11.359  11.813  1.3293  0.0151 -0.6788
20846SOL     OW71505   6.963   9.665   2.983  0.1658  0.0757 -0.2967
20846SOL    HW171506   6.952   9.711   2.900  1.7185  0.2976 -0.4019
20846SOL    HW271507   7.051   9.688   3.012  0.9738 -2.7106 -0.2946
20847SOL     OW71508   4.903   0.066   7.443 -0.2561  0.2837 -0.0704
20847SOL    HW171509   4.833   0.032   7.387 -1.3248  0.9245  0.8510
20847SOL    HW271510   4.972   0.092   7.382 -1.1862  0.4978 -1.0540
20848SOL     OW71511   7.633   8.935  12.197  0.4621  0.3121  0.4166
20848SOL    HW171512   7.726   8.955  12.190  0.6042 -0.3610  0.2728
20848SOL    HW271513   7.620   8.860  12.138 -0.6772  1.9550 -1.5531
20849SOL     OW71514  10.195  10.727   9.659  0.0355  0.4256  0.2186
20849SOL    HW171515  10.260  10.660   9.681 -0.3065  0.0759  0.1878
20849SOL    HW271516  10.244  10.793   9.609  0.3624  0.1594  0.1840
20850SOL     OW71517   7.859   1.803   5.330  0.1498  0.3660  0.5584
20850SOL    HW171518   7.776   1.848   5.311 -0.3001 -0.3838  0.6861
20850SOL    HW271519   7.871   1.742   5.257 -0.6927 -1.2798  1.7128
20851SOL     OW71520  11.443   4.034   5.300  0.1361 -0.1919  0.5751
20851SOL    HW171521  11.382   4.045   5.227  0.5956 -0.3397  0.1578
20851SOL    HW271522  11.478   4.122   5.314 -2.0346  0.4428  2.5194
20852SOL     OW71523   9.784   1.230   2.699  0.0334 -0.3376 -0.1662
20852SOL    HW171524   9.747   1.295   2.759  2.6328 -0.1807  1.4443
20852SOL    HW271525   9.795   1.152   2.754 -0.6352 -1.3053 -1.3752
20853SOL     OW71526   9.178   3.391   7.627  0.0743 -0.8711 -0.2496
20853SOL    HW171527   9.097   3.346   7.601  0.8756 -2.7897  0.3882
20853SOL    HW271528   9.153   3.443   7.703 -0.4418 -1.9472  0.3376
20854SOL     OW71529   8.886   1.499   8.436 -0.1534 -0.0445 -0.9725
20854SOL    HW171530   8.792   1.510   8.424 -0.7669 -1.1261  1.9253
20854SOL    HW271531   8.907   1.417   8.393 -0.8291 -0.4554 -0.5329
20855SOL     OW71532   2.399   9.549   4.251  0.1913 -1.2178  0.2549
20855SOL    HW171533   2.481   9.563   4.299 -0.1676 -0.8109  0.7671
20855SOL    HW271534   2.386   9.455   4.252 -0.1617 -1.1729  1.5849
20856SOL     OW71535  12.510   1.214   1.482 -0.2820 -0.2223  0.0014
20856SOL    HW171536  12.473   1.230   1.395 -0.2762  0.6862  0.1569
20856SOL    HW271537  12.472   1.131   1.509 -0.5060 -0.3740 -0.7495
20857SOL     OW71538   1.727  12.156   7.405 -0.2429 -0.7913  0.3826
20857SOL    HW171539   1.652  12.153   7.346  0.9426 -1.2350 -1.1565
20857SOL    HW271540   1.699  12.215   7.476 -1.6547 -0.1305 -0.6712
20858SOL     OW71541   5.889   4.836   1.145  0.0809  0.5239  0.1047
20858SOL    HW171542   5.872   4.751   1.103 -1.7838  0.5167  0.7968
20858SOL    HW271543   5.856   4.901   1.083 -1.6368  0.5571  0.9753
20859SOL     OW71544   8.560  10.136   6.819  0.1143 -0.1740 -0.1484
20859SOL    HW171545   8.629  10.141   6.753  0.2316  0.3332  0.0074
20859SOL    HW271546   8.484  10.176   6.778  0.5059  1.2127  0.4119
20860SOL     OW71547  12.226   1.451   4.231 -0.4743 -0.2750  0.2228
20860SOL    HW171548  12.274   1.401   4.166  0.9787  1.6872 -0.3086
20860SOL    HW271549  12.232   1.542   4.201 -2.1025  0.3734  1.6786
20861SOL     OW71550   1.091  12.345   0.567 -0.3174 -0.0532  0.3847
20861SOL    HW171551   1.139  12.427   0.556  0.6080 -0.4592  1.2378
20861SOL    HW271552   1.014  12.369   0.618 -0.6540  0.4798 -0.3614
20862SOL     OW71553  11.566   9.909   5.385 -0.1858  0.9595 -0.3265
20862SOL    HW171554  11.502   9.845   5.415  0.2632  0.6044 -0.1091
20862SOL    HW271555  11.515   9.986   5.361 -0.7328  0.5210 -0.5786
20863SOL     OW71556   1.679   3.769   0.710 -0.2938 -0.3571  1.0854
20863SOL    HW171557   1.650   3.846   0.759 -1.0550 -0.7178  1.2210
20863SOL    HW271558   1.643   3.782   0.622  1.2047  0.3684  0.5507
20864SOL     OW71559   6.269   8.018   6.049  0.3137 -0.3913 -0.4144
20864SOL    HW171560   6.277   7.932   6.090 -4.1645 -0.4523  0.8491
20864SOL    HW271561   6.299   8.080   6.116 -2.7217 -0.7525  1.4434
20865SOL     OW71562   5.584   4.318   1.415  0.1232 -0.2646 -0.9030
20865SOL    HW171563   5.501   4.285   1.382 -0.2705 -0.2970  0.0856
20865SOL    HW271564   5.617   4.250   1.473 -0.4567  0.7956  0.7622
20866SOL     OW71565   0.711   3.192   6.240  0.2249  0.2811 -0.3628
20866SOL    HW171566   0.788   3.242   6.269  1.1910 -1.2497 -0.1598
20866SOL    HW271567   0.666   3.169   6.321 -0.3630  1.0199 -0.4719
20867SOL     OW71568   9.517   6.705   3.973 -0.2628 -0.1796 -0.3965
20867SOL    HW171569   9.514   6.715   3.878 -0.6872 -1.2231 -0.4980
20867SOL    HW271570   9.554   6.618   3.987 -0.5851 -0.1959  0.3923
20868SOL     OW71571   0.468  11.558   3.247 -0.4055  0.4842  0.0906
20868SOL    HW171572   0.441  11.595   3.163 -0.9421 -1.6921 -0.7607
20868SOL    HW271573   0.388  11.520   3.283  0.2092 -0.2460  0.7038
20869SOL     OW71574   1.773   6.787   2.073 -0.5143 -0.0872 -0.0638
20869SOL    HW171575   1.714   6.854   2.038 -0.8217  0.3157  1.1941
20869SOL    HW271576   1.857   6.806   2.032 -1.0830 -0.2702 -1.3758
20870SOL     OW71577  11.126   4.070   4.275 -0.2852 -0.1082 -0.4611
20870SOL    HW171578  11.048   4.066   4.331 -0.2346  0.3242 -0.3611
20870SOL    HW271579  11.119   4.154   4.230  1.0946  0.8037  0.9639
20871SOL     OW71580   2.026   7.355   7.548  0.2296 -0.4281  0.0628
20871SOL    HW171581   1.932   7.359   7.530  0.2169 -0.0873  0.1967
20871SOL    HW271582   2.061   7.297   7.480 -0.1944 -1.2141  0.5013
20872SOL     OW71583   2.164   7.517   3.463  0.5401  0.4079  0.2548
20872SOL    HW171584   2.256   7.509   3.437  0.6587  0.7530  0.5586
20872SOL    HW271585   2.152   7.610   3.481  0.5085  0.1649  1.6011
20873SOL     OW71586   2.123   0.681   8.972  0.3547 -0.1100 -0.4918
20873SOL    HW171587   2.163   0.595   8.982  0.0942 -0.4521 -2.1031
20873SOL    HW271588   2.150   0.710   8.885 -2.1742  0.0149 -1.3281
20874SOL     OW71589   1.731   2.031   2.305 -0.4973  0.7517 -0.4326
20874SOL    HW171590   1.693   2.084   2.375  1.0544  1.6311 -0.1986
20874SOL    HW271591   1.661   2.023   2.241 -2.1248 -0.4523  1.3596
20875SOL     OW71592   4.579   9.824   4.209  0.0561 -0.1968  0.1154
20875SOL    HW171593   4.664   9.831   4.165  0.7526 -1.4166  1.2351
20875SOL    HW271594   4.579   9.738   4.250 -1.5555 -0.0448  0.5161
20876SOL     OW71595   9.016   1.548   2.594 -0.2624 -0.5833  0.2559
20876SOL    HW171596   9.025   1.489   2.669  0.1105  0.2586  0.8874
20876SOL    HW271597   8.995   1.633   2.633 -2.0443 -0.5391 -0.6910
20877SOL     OW71598   5.618   0.547  12.288 -0.1717 -0.0380  0.0812
20877SOL    HW171599   5.673   0.617  12.323 -0.2801  0.6725 -1.1195
20877SOL    HW271600   5.530   0.567  12.322 -0.2410  0.5326 -0.4268
20878SOL     OW71601   0.483  11.831   0.507 -0.1989 -0.0225  0.2764
20878SOL    HW171602   0.467  11.900   0.441  4.1403  0.3158 -0.7381
20878SOL    HW271603   0.471  11.875   0.591 -0.1311  1.2221 -0.3382
20879SOL     OW71604  11.301  10.958   3.338 -0.0167 -0.1559  0.6491
20879SOL    HW171605  11.268  10.879   3.381 -1.1641  0.2339  0.5088
20879SOL    HW271606  11.301  10.937   3.245 -0.5543  0.0892  0.5919
20880SOL     OW71607   2.255   9.537   8.449  0.0434 -0.1656  0.0557
20880SOL    HW171608   2.314   9.600   8.408 -1.1509  0.1647 -1.2713
20880SOL    HW271609   2.209   9.497   8.375  0.4605 -2.3112  0.8901
20881SOL     OW71610  10.797   6.249  10.636  0.4076  0.2911 -0.6673
20881SOL    HW171611  10.864   6.213  10.694 -0.5688  0.7198  0.7835
20881SOL    HW271612  10.787   6.183  10.567  1.7517 -0.1325 -0.4759
20882SOL     OW71613  10.931   8.128   6.105 -0.3046 -0.2864  0.6031
20882SOL    HW171614  10.848   8.082   6.116  0.4467 -1.8308 -0.0099
20882SOL    HW271615  10.964   8.100   6.020 -0.4228  2.4332 -0.4502
20883SOL     OW71616   1.846  11.404   8.933  0.3861 -0.3958 -0.5853
20883SOL    HW171617   1.911  11.472   8.951  0.0453  0.0949 -1.1872
20883SOL    HW271618   1.897  11.324   8.927  0.7270 -0.3031  0.7329
20884SOL     OW71619  10.576   4.903  11.795  0.0578 -0.5707  0.1040
20884SOL    HW171620  10.536   4.857  11.869 -0.7669 -0.0394 -0.0062
20884SOL    HW271621  10.527   4.874  11.719 -1.5917  1.6904  0.2148
20885SOL     OW71622  11.444   4.565   0.452  0.1947  0.2959  0.0306
20885SOL    HW171623  11.478   4.654   0.465 -1.7070  1.0648  0.1321
20885SOL    HW271624  11.353   4.578   0.425  0.3452 -1.6018 -1.6008
20886SOL     OW71625   4.276   0.794   7.509 -0.2850  0.3437  0.7093
20886SOL    HW171626   4.191   0.753   7.528 -0.0529 -1.3581 -1.4591
20886SOL    HW271627   4.338   0.721   7.508  0.4064  0.8573 -1.9315
20887SOL     OW71628   2.167   0.554   9.383  0.1231 -0.1556 -0.1602
20887SOL    HW171629   2.242   0.601   9.346  1.8770 -0.3354  2.8642
20887SOL    HW271630   2.197   0.464   9.392 -0.5413 -0.2928  0.8450
20888SOL     OW71631   7.117   2.018   6.961 -0.1390 -1.1012 -0.0463
20888SOL    HW171632   7.128   1.939   6.908 -1.1453 -0.7295 -0.8391
20888SOL    HW271633   7.115   2.089   6.897 -2.3790 -0.7282  0.3666
20889SOL     OW71634  10.432   4.532  12.496  0.1095  0.1381  0.3298
20889SOL    HW171635  10.454   4.458  12.552 -0.8387 -0.5214 -0.1340
20889SOL    HW271636  10.499   4.597  12.514  0.3138 -0.3946  1.5779
20890SOL     OW71637   6.477   5.880   4.019  0.2513  0.3902  0.0077
20890SOL    HW171638   6.443   5.934   4.090  0.0589  1.8426 -1.1110
20890SOL    HW271639   6.459   5.790   4.044 -0.5180  0.9173  1.4111
20891SOL     OW71640   3.792   4.120   2.402  0.0618  0.6811  0.0988
20891SOL    HW171641   3.752   4.054   2.344  1.5813 -0.2489  0.0486
20891SOL    HW271642   3.745   4.201   2.381 -0.5767  0.0151 -1.2256
20892SOL     OW71643   2.750   6.474   5.046  0.8238  0.2584 -0.0406
20892SOL    HW171644   2.668   6.426   5.032  0.2712  1.3448 -0.6560
20892SOL    HW271645   2.812   6.435   4.985  0.8127 -0.6476  0.5081
20893SOL     OW71646  12.447   2.891   0.777  0.2011 -0.2011 -0.1840
20893SOL    HW171647  12.496   2.833   0.836 -0.0544  0.3843  0.6297
20893SOL    HW271648  12.356   2.866   0.790  0.0109  0.8748  0.7729
20894SOL     OW71649   1.672   3.528   9.823 -0.1933  0.1185  0.8028
20894SOL    HW171650   1.669   3.614   9.780 -0.5476  0.2265  1.0470
20894SOL    HW271651   1.764   3.519   9.850  0.0027  0.1087  0.1473
20895SOL     OW71652   6.550   8.223  11.914  0.3114 -0.0363  0.6979
20895SOL    HW171653   6.539   8.130  11.892 -0.3256  0.3581 -0.7311
20895SOL    HW271654   6.532   8.270  11.833 -0.7390  1.4407  1.7255
20896SOL     OW71655   7.513   3.287   7.396  0.3066 -0.0304 -0.4722
20896SOL    HW171656   7.566   3.215   7.430 -0.9987 -0.1280  1.4609
20896SOL    HW271657   7.545   3.365   7.442 -2.9979 -0.4786  3.1335
20897SOL     OW71658  10.855   3.386   7.685 -0.0230  0.6144  0.7121
20897SOL    HW171659  10.802   3.398   7.764 -2.4270 -0.4242 -0.6054
20897SOL    HW271660  10.842   3.294   7.661  1.2705  0.7077 -0.4699
20898SOL     OW71661   6.899   6.948   9.508 -0.4060  0.9142  0.2660
20898SOL    HW171662   6.888   6.886   9.436  2.0671  0.4591  0.1771
20898SOL    HW271663   6.877   7.033   9.470  1.1890  0.7243 -1.1929
20899SOL     OW71664   5.842   5.980   0.743 -0.1693 -0.0930 -0.3060
20899SOL    HW171665   5.897   6.055   0.720  0.6621 -0.2235  1.1140
20899SOL    HW271666   5.867   5.959   0.833 -1.7600 -0.8806 -0.0121
20900SOL     OW71667  11.020  10.197   2.438 -0.5028  0.1953 -0.0194
20900SOL    HW171668  11.098  10.142   2.428 -0.2555  0.4717  0.3647
20900SOL    HW271669  11.006  10.234   2.351  0.4504  1.0072  0.1512
20901SOL     OW71670   8.792   6.188   5.775 -0.1018  0.4141  0.1654
20901SOL    HW171671   8.885   6.167   5.785  0.4770  2.2723 -0.8713
20901SOL    HW271672   8.771   6.163   5.685 -0.3986  0.7083  0.1508
20902SOL     OW71673   1.176   7.525  10.673  0.3967 -0.0675 -0.1289
20902SOL    HW171674   1.169   7.436  10.708  0.8177 -0.9105 -2.0519
20902SOL    HW271675   1.111   7.528  10.602 -1.4179  2.0217  1.4870
20903SOL     OW71676   8.748   5.584   2.286 -0.2256  0.0945  0.3134
20903SOL    HW171677   8.840   5.578   2.262 -0.3355 -1.7151  0.2403
20903SOL    HW271678   8.704   5.611   2.206 -0.0340 -1.4683 -0.3558
20904SOL     OW71679   0.830   6.876   5.412  0.2567 -0.2540 -0.8667
20904SOL    HW171680   0.821   6.831   5.328  0.0929 -0.3940 -0.7749
20904SOL    HW271681   0.740   6.901   5.435  0.3017 -0.2170 -0.7320
20905SOL     OW71682   8.719  10.649  11.319 -0.3458  0.6695  0.4002
20905SOL    HW171683   8.699  10.629  11.411  0.4304  1.7840  0.8344
20905SOL    HW271684   8.714  10.565  11.275  0.2144 -0.0592  1.6541
20906SOL     OW71685  11.564  10.510   4.745 -0.2659 -0.5850 -0.4231
20906SOL    HW171686  11.600  10.510   4.834 -2.7820 -0.0618  0.7056
20906SOL    HW271687  11.595  10.591   4.706 -0.7970  0.2188  0.7676
20907SOL     OW71688  11.813   9.200  11.560 -0.9163 -0.0968 -0.3028
20907SOL    HW171689  11.822   9.112  11.598 -1.4550  0.2668  0.6816
20907SOL    HW271690  11.867   9.256  11.616  0.6101  0.0003 -1.7621
20908SOL     OW71691   3.333  11.138  11.054  0.4239 -0.5783  1.0364
20908SOL    HW171692   3.259  11.082  11.031  0.7309 -0.6062  0.0932
20908SOL    HW271693   3.396  11.079  11.096  1.4867 -1.3429 -1.4803
20909SOL     OW71694   3.247   3.016   2.958 -0.5444 -0.2326 -0.4907
20909SOL    HW171695   3.181   2.952   2.931  0.3016 -0.7873 -1.2699
20909SOL    HW271696   3.320   3.003   2.898  1.9721 -2.3988  2.7349
20910SOL     OW71697   8.628   1.079   5.223  0.3190 -0.4192 -0.5648
20910SOL    HW171698   8.543   1.066   5.180  1.0535  0.7947 -2.5097
20910SOL    HW271699   8.689   1.027   5.171  1.4222  1.9665 -1.7985
20911SOL     OW71700   8.252   4.637   6.970 -0.6306 -0.2311  0.0150
20911SOL    HW171701   8.307   4.560   6.957 -1.4657 -0.4975 -2.3457
20911SOL    HW271702   8.281   4.699   6.904 -1.9717  0.2950 -0.1091
20912SOL     OW71703   2.019   6.734   3.441  0.1835  0.0466 -0.5984
20912SOL    HW171704   2.068   6.799   3.491 -0.9923 -0.8742  1.8866
20912SOL    HW271705   1.965   6.786   3.381  0.3185  1.2885  0.3185
20913SOL     OW71706   3.232   6.280   1.563  0.3094  0.1533  0.6377
20913SOL    HW171707   3.194   6.289   1.475  2.2921 -0.1886 -0.3095
20913SOL    HW271708   3.215   6.364   1.606 -0.3342  0.4691 -0.2076
20914SOL     OW71709   2.950   3.890   9.685 -0.1693 -0.1744 -0.2937
20914SOL    HW171710   2.957   3.886   9.589  0.5287  0.3008 -0.2733
20914SOL    HW271711   2.857   3.902   9.702 -0.2786 -0.0993 -0.9228
20915SOL     OW71712  11.444  11.848  10.829  0.3248 -0.0932  0.4950
20915SOL    HW171713  11.507  11.914  10.859  1.4761 -0.0604 -1.8006
20915SOL    HW271714  11.488  11.804  10.756 -1.4130 -1.7082  0.3464
20916SOL     OW71715   6.985   9.764   4.441  0.1499 -0.1091 -0.0215
20916SOL    HW171716   6.949   9.851   4.422  1.0002 -0.0649 -1.5523
20916SOL    HW271717   6.975   9.715   4.360  0.3992 -1.1947  0.5854
20917SOL     OW71718  11.173   1.207  11.962  0.2864  0.2744 -0.1800
20917SOL    HW171719  11.219   1.144  11.906  0.1895  1.3405 -1.4956
20917SOL    HW271720  11.177   1.290  11.914 -1.5014  0.7939  0.4791
20918SOL     OW71721  12.522   0.415   5.652 -0.4321  0.1128 -0.3636
20918SOL    HW171722  12.604   0.408   5.603  0.0070 -2.4154  0.5530
20918SOL    HW271723  12.454   0.399   5.586 -0.1511  1.2429 -0.9493
20919SOL     OW71724   3.095   3.709   7.308  0.3618  0.1593 -0.1402
20919SOL    HW171725   3.125   3.732   7.396 -1.4718  1.4783  0.1966
20919SOL    HW271726   3.175   3.681   7.262  1.0392 -2.9265  2.5608
20920SOL     OW71727   1.768   8.944   6.669 -0.2978  0.3792 -0.8706
20920SOL    HW171728   1.765   8.866   6.614  1.8146 -0.0735 -0.4273
20920SOL    HW271729   1.777   9.016   6.608 -1.4944  0.2330 -1.2466
20921SOL     OW71730   3.744  11.607  12.560 -0.2964  0.7494 -0.2980
20921SOL    HW171731   3.682  11.535  12.573 -0.8891  1.0213 -1.5142
20921SOL    HW271732   3.689  11.685  12.553  0.2609  1.1546 -0.2132
20922SOL     OW71733   2.628   7.655   4.297 -0.0149  0.2340  0.2874
20922SOL    HW171734   2.639   7.716   4.225 -0.8489 -2.1923 -2.0588
20922SOL    HW271735   2.717   7.641   4.331  0.4708  0.9746 -0.6568
20923SOL     OW71736   9.522   7.556   4.617  0.4474  0.2697 -0.1242
20923SOL    HW171737   9.437   7.535   4.654  1.4404  0.7597  2.7165
20923SOL    HW271738   9.503   7.605   4.538 -1.9007  0.6319  0.5968
20924SOL     OW71739   5.205  11.803   0.228  0.5654  0.5328  0.0387
20924SOL    HW171740   5.229  11.849   0.309  0.7259 -2.7828  2.0724
20924SOL    HW271741   5.113  11.824   0.215  0.4351  0.8292  1.3191
20925SOL     OW71742   0.536   7.465   5.893 -0.1120 -0.0217  0.3361
20925SOL    HW171743   0.493   7.395   5.942  1.2618 -0.7535  0.5323
20925SOL    HW271744   0.486   7.543   5.915 -3.2656 -1.2144 -1.8118
20926SOL     OW71745   9.141   6.208  10.991  0.1489  0.1385 -0.0724
20926SOL    HW171746   9.110   6.126  11.030  2.7065  0.0590  2.1019
20926SOL    HW271747   9.144   6.190  10.897 -2.1612 -1.1863  0.0259
20927SOL     OW71748   7.123   2.800  10.567  0.0820 -0.8315  0.0761
20927SOL    HW171749   7.092   2.851  10.492  0.5017  0.5172  0.7869
20927SOL    HW271750   7.210   2.770  10.540  0.9737  1.1069  0.6283
20928SOL     OW71751   1.724   5.500  10.389 -0.8775 -0.2736 -0.1585
20928SOL    HW171752   1.714   5.504  10.484  1.9552  0.9097  0.1990
20928SOL    HW271753   1.755   5.411  10.372  0.4707  0.0658  0.3334
20929SOL     OW71754  10.103  11.015   2.347  0.6651  0.2475 -0.1942
20929SOL    HW171755  10.019  11.000   2.304  0.8414  1.1715 -0.8939
20929SOL    HW271756  10.095  10.969   2.431 -0.5058  0.2489 -0.2801
20930SOL     OW71757   3.431   7.865   4.382 -0.3665  0.4455  0.3833
20930SOL    HW171758   3.502   7.812   4.418  0.2431  0.5831 -0.5746
20930SOL    HW271759   3.421   7.835   4.292 -1.7580  0.2062  0.5825
20931SOL     OW71760   4.808  11.677   4.445 -0.5134 -0.5878 -0.7853
20931SOL    HW171761   4.877  11.640   4.500  2.1101 -0.6903 -3.8643
20931SOL    HW271762   4.826  11.771   4.443 -0.4587 -0.6041 -1.5560
20932SOL     OW71763   6.309   2.377   0.244  0.2132 -0.0211 -0.1855
20932SOL    HW171764   6.216   2.396   0.231 -0.0395 -0.5545  0.7037
20932SOL    HW271765   6.311   2.316   0.318  1.3290  0.8110  0.5208
20933SOL     OW71766  11.542   9.892   4.777  0.7391 -0.3401  0.1603
20933SOL    HW171767  11.571   9.825   4.716  1.1897  1.6459 -1.9081
20933SOL    HW271768  11.450   9.907   4.755  0.2689 -1.1271  1.4744
20934SOL     OW71769   1.200   9.755   0.363  0.1966  0.0893  0.0478
20934SOL    HW171770   1.214   9.662   0.346 -0.1899  0.1148 -0.4205
20934SOL    HW271771   1.137   9.783   0.297  1.8781  1.1728 -1.1772
20935SOL     OW71772   1.800   5.551   2.695 -0.0104  0.0896  0.0345
20935SOL    HW171773   1.839   5.546   2.782  3.0924 -0.4971 -1.2826
20935SOL    HW271774   1.800   5.644   2.674  1.5985  0.0521 -0.2656
20936SOL     OW71775   9.103  12.479   0.844 -0.7622  0.1563 -0.3345
20936SOL    HW171776   9.129  12.407   0.787  1.5491  1.3890 -0.9659
20936SOL    HW271777   9.185  12.518   0.872 -1.8692  0.6471  2.5550
20937SOL     OW71778  10.299   5.102   9.761 -0.4941 -0.3287 -0.3895
20937SOL    HW171779  10.348   5.036   9.809 -0.9349 -1.7501 -1.8186
20937SOL    HW271780  10.347   5.111   9.678  0.2378  2.0390  0.1907
20938SOL     OW71781  11.040   1.304   6.384  0.3728  0.3526  0.2734
20938SOL    HW171782  11.109   1.323   6.321  1.7852 -0.1656  1.5804
20938SOL    HW271783  11.076   1.233   6.438 -0.2567  1.5181  2.3636
20939SOL     OW71784   3.200   3.155   0.780 -0.4162  0.2104 -0.3100
20939SOL    HW171785   3.194   3.102   0.701  0.7408  0.6354 -0.7024
20939SOL    HW271786   3.173   3.096   0.851 -1.8123 -0.0610 -1.0444
20940SOL     OW71787   4.516  11.333   5.177  0.7250  0.3430  0.3972
20940SOL    HW171788   4.571  11.297   5.108  0.4322 -0.9629  0.8194
20940SOL    HW271789   4.493  11.258   5.231 -0.1127  1.1357  1.1771
20941SOL     OW71790   7.668  12.319   7.299 -0.0493  0.2049  0.6380
20941SOL    HW171791   7.702  12.247   7.353 -1.1569 -0.7605  0.0848
20941SOL    HW271792   7.589  12.349   7.344 -0.6523 -0.2135 -0.1081
20942SOL     OW71793   4.227   8.762   2.837  0.6244 -0.0761  0.3636
20942SOL    HW171794   4.269   8.792   2.756  0.3966  0.4612  0.4419
20942SOL    HW271795   4.256   8.825   2.903 -3.2480  2.7149 -0.2520
20943SOL     OW71796   0.012   1.943   2.768 -0.1604  0.3392 -0.6640
20943SOL    HW171797   0.084   1.979   2.818  0.6040 -0.9249 -0.8046
20943SOL    HW271798   0.051   1.873   2.715 -1.2938  0.3236 -1.5371
20944SOL     OW71799  11.216   6.902   8.946 -0.0155 -0.4950  0.7782
20944SOL    HW171800  11.310   6.922   8.945  0.4276 -2.4253  0.8727
20944SOL    HW271801  11.196   6.876   8.856 -0.4574 -0.1443  0.7704
20945SOL     OW71802  12.449   1.240   6.150  0.2085  0.1729 -0.0168
20945SOL    HW171803  12.447   1.213   6.242  1.1604  0.3677  0.0653
20945SOL    HW271804  12.382   1.185   6.109 -0.4681  0.3185  0.8457
20946SOL     OW71805   7.741   9.736   3.537  0.0011  0.4744 -0.7309
20946SOL    HW171806   7.816   9.791   3.517  0.1707  0.4614 -0.1449
20946SOL    HW271807   7.772   9.646   3.524 -0.4056  0.5230 -2.1251
20947SOL     OW71808  12.058  11.407   5.557  0.3662 -0.1057  0.0865
20947SOL    HW171809  12.092  11.493   5.530  0.5898 -0.2267 -0.0283
20947SOL    HW271810  12.084  11.398   5.648 -0.9738  0.5907  0.5600
20948SOL     OW71811   7.286   5.158   4.074  0.1909  0.0300 -0.3952
20948SOL    HW171812   7.214   5.219   4.064  2.2568  2.7588  0.2257
20948SOL    HW271813   7.285   5.134   4.167 -0.7299 -1.1169 -0.6751
20949SOL     OW71814   1.204   3.330  11.827 -0.3533 -0.1877  0.6584
20949SOL    HW171815   1.193   3.401  11.764 -1.2730 -2.1914 -1.5818
20949SOL    HW271816   1.294   3.340  11.858  0.2908  0.6361 -1.2946
20950SOL     OW71817   5.966   9.823   0.179  0.4155  0.3416 -0.4011
20950SOL    HW171818   5.990   9.878   0.104  2.5664  0.1093  0.0436
20950SOL    HW271819   6.045   9.773   0.198 -0.3778 -0.2969  1.4409
20951SOL     OW71820   0.590   9.472   0.537  0.6594  0.3158 -0.0529
20951SOL    HW171821   0.663   9.515   0.492  1.1897  1.5324  1.9017
20951SOL    HW271822   0.569   9.529   0.610 -0.3002 -1.5066  1.1591
20952SOL     OW71823   3.742   7.812   3.806 -0.2084 -0.1371  0.0179
20952SOL    HW171824   3.697   7.728   3.811  0.2500 -0.3314  1.0466
20952SOL    HW271825   3.673   7.875   3.788 -0.8305 -0.4861  1.1452
20953SOL     OW71826   0.709   0.076   0.271  0.1524 -0.1522 -0.6930
20953SOL    HW171827   0.657   0.156   0.271 -0.6515 -0.5817  1.8527
20953SOL    HW271828   0.796   0.104   0.299 -0.2412 -0.1615  0.6376
20954SOL     OW71829   0.019   4.610   2.539 -0.2230  0.0080  0.7252
20954SOL    HW171830  -0.024   4.657   2.610  0.4842  0.1424  1.0691
20954SOL    HW271831   0.029   4.676   2.470  1.5776  0.6530  1.5370
20955SOL     OW71832  11.339  10.114  10.490 -0.4143  0.1538 -0.2013
20955SOL    HW171833  11.403  10.092  10.422 -0.0359  0.2195  0.1267
20955SOL    HW271834  11.359  10.205  10.513 -0.9488  0.3319 -0.4424
20956SOL     OW71835   8.822  12.142  11.357  0.6879  0.1280 -0.2509
20956SOL    HW171836   8.730  12.147  11.383  1.1633  1.1848  1.4165
20956SOL    HW271837   8.862  12.083  11.421  1.4530  0.8894 -0.0087
20957SOL     OW71838   3.287   5.363  12.154  0.3760 -0.2934 -0.0275
20957SOL    HW171839   3.281   5.305  12.230 -0.8511  0.4301  0.4564
20957SOL    HW271840   3.368   5.411  12.166 -0.0403  0.1502  1.0864
20958SOL     OW71841   2.010   1.531   2.565 -0.1359  0.0417 -0.0895
20958SOL    HW171842   2.064   1.455   2.545  0.6742  0.5344  0.1505
20958SOL    HW271843   2.044   1.600   2.508  1.2939  1.0901  1.8750
20959SOL     OW71844   4.926   5.353  11.265 -0.4207  0.1863 -0.6205
20959SOL    HW171845   4.993   5.292  11.296 -1.4288 -1.1873 -1.0399
20959SOL    HW271846   4.976   5.424  11.224  0.7896 -0.3298 -0.0997
20960SOL     OW71847  12.232   9.151  11.945 -0.3788 -0.4453  0.5087
20960SOL    HW171848  12.302   9.215  11.929  0.7659 -1.8711 -0.4469
20960SOL    HW271849  12.151   9.201  11.932  0.4804  0.7879 -0.3548
20961SOL     OW71850   6.163   2.413   5.417 -0.6389  0.2770  0.3871
20961SOL    HW171851   6.153   2.384   5.508  1.9923  0.9082  0.9633
20961SOL    HW271852   6.109   2.491   5.410  0.0889  0.9350  1.8017
20962SOL     OW71853  10.788   1.270  11.627 -0.0730 -0.3880 -0.5788
20962SOL    HW171854  10.754   1.304  11.710 -1.2021  0.5910 -1.4162
20962SOL    HW271855  10.785   1.345  11.567  3.1506 -0.3479 -0.8599
20963SOL     OW71856   5.204   8.522  11.688  0.4929 -0.2901  0.3189
20963SOL    HW171857   5.290   8.483  11.673  1.1178  0.9508  0.5591
20963SOL    HW271858   5.186   8.571  11.608  1.6356  2.3275  1.5383
20964SOL     OW71859   6.318   1.048   6.378 -0.0569  0.0926  0.0141
20964SOL    HW171860   6.413   1.057   6.380 -0.0241 -0.3826  1.5276
20964SOL    HW271861   6.290   1.063   6.468 -1.4895  0.8249 -0.5167
20965SOL     OW71862   3.838   5.178   0.416  0.2244  0.6030  0.4990
20965SOL    HW171863   3.889   5.130   0.482  0.3986 -1.1524 -0.8574
20965SOL    HW271864   3.902   5.236   0.374  0.8520 -0.5914 -0.2571
20966SOL     OW71865   8.170   6.320   2.825 -0.3068  0.0094  0.0146
20966SOL    HW171866   8.161   6.376   2.902  1.3940 -0.9386  0.9895
20966SOL    HW271867   8.245   6.357   2.777 -0.8116  0.0851 -0.7284
20967SOL     OW71868  11.013  12.078   7.123 -0.1708 -0.5864  0.1290
20967SOL    HW171869  10.989  12.036   7.206 -0.3070 -0.7621  0.0012
20967SOL    HW271870  11.057  12.009   7.074  1.1843 -0.1032  0.6096
20968SOL     OW71871   5.417   3.872   3.962  0.1144 -1.1306  0.7850
20968SOL    HW171872   5.454   3.818   3.892  0.5082  1.6155 -1.3250
20968SOL    HW271873   5.477   3.861   4.036  1.9066 -1.2263 -0.6125
20969SOL     OW71874  12.368   7.849   7.009 -0.1638  0.0145 -0.2553
20969SOL    HW171875  12.343   7.765   6.972 -0.6991  0.7336 -1.5840
20969SOL    HW271876  12.285   7.894   7.026  0.1295  0.9840 -1.2753
20970SOL     OW71877   0.931   1.145   4.922  0.5307  0.5698  0.5631
20970SOL    HW171878   1.016   1.136   4.879  0.1561 -0.2202 -0.0208
20970SOL    HW271879   0.867   1.130   4.853 -0.0894  0.6875  1.1022
20971SOL     OW71880  11.462  10.415   8.481 -0.0436  0.6498 -0.6732
20971SOL    HW171881  11.488  10.340   8.534 -2.5234  1.7064  2.2843
20971SOL    HW271882  11.374  10.393   8.450  0.3781  1.1408 -2.3037
20972SOL     OW71883  12.240   1.908   1.866  0.3601 -0.1523  0.3335
20972SOL    HW171884  12.147   1.899   1.847 -0.2883  0.9878  2.5631
20972SOL    HW271885  12.284   1.858   1.797 -1.6699  2.0947 -2.8754
20973SOL     OW71886   8.306   9.449   0.764 -0.3204 -0.9450 -0.2791
20973SOL    HW171887   8.275   9.359   0.774 -1.2969 -0.4720  1.2272
20973SOL    HW271888   8.321   9.459   0.670 -1.1467 -2.3703 -0.5899
20974SOL     OW71889   6.421  12.455   2.091  0.6959  0.0626 -0.5110
20974SOL    HW171890   6.417  12.456   1.996 -0.3273  0.2368 -0.4743
20974SOL    HW271891   6.458  12.369   2.112  0.7363 -0.0570 -1.0529
20975SOL     OW71892   3.444   7.906  11.178 -0.2997 -0.2992  0.3588
20975SOL    HW171893   3.364   7.953  11.152  0.1926 -0.2075 -1.0683
20975SOL    HW271894   3.472   7.950  11.258  0.0421  1.8104 -0.8221
20976SOL     OW71895  10.104  12.169   8.326 -0.5114  0.3468 -0.0517
20976SOL    HW171896  10.137  12.199   8.410 -0.0599 -1.3171  0.4141
20976SOL    HW271897  10.014  12.143   8.342 -0.3955 -0.0632 -0.0391
20977SOL     OW71898   1.189   7.405   4.766 -0.0664 -0.1986 -0.0548
20977SOL    HW171899   1.098   7.378   4.761 -0.3716  0.5161  1.2345
20977SOL    HW271900   1.223   7.391   4.677 -1.3820 -0.5832 -0.5223
20978SOL     OW71901  11.926   9.849   0.666  0.0741 -0.2772 -0.1699
20978SOL    HW171902  12.020   9.864   0.672  0.1451 -0.4115 -0.9206
20978SOL    HW271903  11.888   9.936   0.654  0.0806 -0.1996  0.3510
20979SOL     OW71904   0.910   5.152   4.366 -0.1532 -0.2981 -0.1676
20979SOL    HW171905   0.936   5.192   4.284 -0.6304  0.0392 -0.1608
20979SOL    HW271906   0.859   5.220   4.411 -0.1863 -0.5935  0.2538
20980SOL     OW71907   0.150  11.357   9.275 -0.4460 -0.3590 -0.2623
20980SOL    HW171908   0.128  11.406   9.354 -0.4464  0.3601 -0.6979
20980SOL    HW271909   0.230  11.310   9.298 -2.5794 -3.4718  1.5364
20981SOL     OW71910   4.151   9.905   3.592 -0.2826 -0.3102  0.0738
20981SOL    HW171911   4.220   9.926   3.529 -1.4050 -2.0807 -1.8872
20981SOL    HW271912   4.159   9.972   3.660  0.9810  1.7464 -1.9548
20982SOL     OW71913   0.110   5.914  10.505 -0.2346 -0.3463 -0.3880
20982SOL    HW171914   0.157   5.890  10.425  0.8357 -0.8107  0.3652
20982SOL    HW271915   0.018   5.915  10.479  0.1739  0.6561 -1.9097
20983SOL     OW71916   3.091   1.336   6.190  0.3790  0.4277  0.3785
20983SOL    HW171917   3.037   1.258   6.174  0.7914  0.2681 -0.3050
20983SOL    HW271918   3.127   1.357   6.104 -1.5264  2.7608  0.0535
20984SOL     OW71919   8.754   2.354   6.731  0.4890 -0.3535 -0.2797
20984SOL    HW171920   8.732   2.261   6.723 -1.3548 -0.1476  1.5168
20984SOL    HW271921   8.729   2.377   6.821  0.8909  1.8931 -0.6801
20985SOL     OW71922  10.392   4.748  11.935 -0.1695  0.0456  0.0157
20985SOL    HW171923  10.334   4.716  11.866  0.8336  0.4565 -1.0595
20985SOL    HW271924  10.427   4.668  11.975 -0.7587 -0.2016  0.0401
20986SOL     OW71925   4.892  12.468   2.124  0.2797  0.1950  0.1777
20986SOL    HW171926   4.888  12.404   2.053 -1.4128 -0.6452  0.9668
20986SOL    HW271927   4.839  12.542   2.093  0.7672  0.4625 -0.0228
20987SOL     OW71928   6.020   0.474   5.475 -0.2620 -0.0425 -0.3983
20987SOL    HW171929   6.049   0.520   5.553  0.2905 -0.1395 -0.5401
20987SOL    HW271930   6.064   0.519   5.403  0.9169 -1.2570 -0.4847
20988SOL     OW71931   5.655  10.389   7.018 -0.4783 -0.1055 -0.0683
20988SOL    HW171932   5.577  10.445   7.030 -0.5475 -0.4848  1.5185
20988SOL    HW271933   5.620  10.303   6.996 -0.3967  0.2569 -1.7365
20989SOL     OW71934  10.137   1.218   6.667  0.0716 -0.1645  0.1118
20989SOL    HW171935  10.140   1.266   6.584 -0.7253 -1.1640 -0.5267
20989SOL    HW271936  10.210   1.157   6.663  1.4577  1.3321  1.1862
20990SOL     OW71937   9.168   8.936   5.833  0.4925  0.3403 -0.0692
20990SOL    HW171938   9.245   8.971   5.789  0.9157 -1.8792 -1.1921
20990SOL    HW271939   9.196   8.921   5.923  2.1177 -2.4223 -0.9451
20991SOL     OW71940   3.711   2.475   1.336 -0.5325 -0.0588  0.6115
20991SOL    HW171941   3.652   2.531   1.286  1.2277  1.4628  0.1480
20991SOL    HW271942   3.683   2.386   1.315 -0.9158  0.5528 -1.7523
20992SOL     OW71943   2.601   4.796   0.405  0.7111 -0.2209  0.2633
20992SOL    HW171944   2.583   4.705   0.381 -1.2115  0.0876  0.3198
20992SOL    HW271945   2.581   4.847   0.326 -1.8704  0.4289  1.2100
20993SOL     OW71946   4.468   2.780   3.140 -0.4904  0.1179  0.0472
20993SOL    HW171947   4.463   2.840   3.214  1.6666  0.4221  0.0039
20993SOL    HW271948   4.517   2.705   3.172  0.3200  0.1714 -1.0012
20994SOL     OW71949  11.246   5.865   7.709 -0.2041 -0.0676 -0.1196
20994SOL    HW171950  11.231   5.780   7.668  0.8168 -0.7179  0.8058
20994SOL    HW271951  11.176   5.873   7.774 -1.5042  0.7296 -1.5453
20995SOL     OW71952   4.522   0.943   3.843  0.6658  0.0324  0.2674
20995SOL    HW171953   4.557   0.963   3.930  0.2264  0.9929  0.2318
20995SOL    HW271954   4.490   0.853   3.850 -0.3762  0.4612  1.4515
20996SOL     OW71955   1.799   4.247   8.588 -0.4991 -0.2622 -0.2075
20996SOL    HW171956   1.777   4.177   8.650 -0.3666  0.9436  1.2640
20996SOL    HW271957   1.715   4.285   8.565 -0.5664 -0.8527 -0.9652
20997SOL     OW71958   2.387  12.268   0.066 -0.1284  0.5868  0.2459
20997SOL    HW171959   2.442  12.341   0.095 -0.1076  0.2853  0.9898
20997SOL    HW271960   2.322  12.258   0.135 -0.5256  0.3154 -0.1628
20998SOL     OW71961  10.063  10.229   8.744  0.0908 -0.3105 -0.3021
20998SOL    HW171962  10.110  10.289   8.686  0.1306 -0.9258 -0.9203
20998SOL    HW271963  10.090  10.255   8.832 -0.5818  1.1350 -0.5055
20999SOL     OW71964  11.067  10.857  10.103 -0.2203  0.0664  0.3364
20999SOL    HW171965  10.977  10.835  10.079  0.0535  0.5967 -1.2690
20999SOL    HW271966  11.112  10.772  10.107 -0.1986 -0.0443 -1.4546
21000SOL     OW71967   8.331   7.145   9.258 -0.1889 -0.8743 -0.5299
21000SOL    HW171968   8.321   7.051   9.242 -0.8705 -0.5165 -2.4119
21000SOL    HW271969   8.425   7.159   9.259 -0.0856 -1.5196 -0.6235
21001SOL     OW71970   6.274   0.292   1.948  0.1537 -0.7241 -0.4911
21001SOL    HW171971   6.223   0.250   2.016  0.1659  0.8689  0.5565
21001SOL    HW271972   6.314   0.368   1.991  2.3712 -1.1842 -1.5863
21002SOL     OW71973   4.363   0.801   8.504  0.1423 -0.6216  0.3187
21002SOL    HW171974   4.280   0.841   8.479 -0.1261 -0.4739  1.3649
21002SOL    HW271975   4.413   0.796   8.423 -0.7582 -0.4081 -0.2702
21003SOL     OW71976   9.204   8.533   3.963  0.1629 -0.2156  0.2327
21003SOL    HW171977   9.253   8.613   3.945 -0.7377  0.3498  0.1950
21003SOL    HW271978   9.123   8.544   3.913 -1.0441 -0.0226  2.1203
21004SOL     OW71979  11.347   8.893   6.140 -0.1460  0.0360 -0.1244
21004SOL    HW171980  11.355   8.981   6.103  2.4219  0.2155  0.6259
21004SOL    HW271981  11.387   8.901   6.227 -1.6760 -1.4558  0.7627
21005SOL     OW71982   3.485   6.513   0.444 -0.3852 -0.2525 -0.0892
21005SOL    HW171983   3.526   6.599   0.457  0.5636 -0.2118 -2.7550
21005SOL    HW271984   3.537   6.454   0.499  0.9236  0.4171 -0.5473
21006SOL     OW71985   5.676  10.928  11.504 -0.3167  0.3113  0.2159
21006SOL    HW171986   5.766  10.943  11.531  0.0143  0.1999 -0.8025
21006SOL    HW271987   5.660  10.836  11.525 -0.3249  0.4296  0.7440
21007SOL     OW71988   3.634   2.586   4.728  0.6568  0.0537  0.1037
21007SOL    HW171989   3.647   2.653   4.795  0.7119  0.1082  0.0392
21007SOL    HW271990   3.556   2.614   4.680 -1.0326 -1.3921  1.8467
21008SOL     OW71991   9.978   1.628   4.063  0.5054  0.1966  0.3284
21008SOL    HW171992   9.912   1.664   4.123 -0.1692 -1.6103  0.7266
21008SOL    HW271993  10.049   1.599   4.121  0.0967 -1.0389  0.2405
21009SOL     OW71994  10.849   3.875  10.433  0.0034  0.0704  0.5743
21009SOL    HW171995  10.917   3.839  10.490 -2.2619 -0.1796  3.3203
21009SOL    HW271996  10.787   3.804  10.422 -0.6355  0.7733 -0.5574
21010SOL     OW71997   7.863   8.843   9.137 -0.1519 -0.0754  0.3485
21010SOL    HW171998   7.856   8.936   9.113  1.8472 -0.3796 -1.8040
21010SOL    HW271999   7.952   8.834   9.169  0.1688 -1.4955 -0.8462
21011SOL     OW72000   9.727  12.149  10.708  0.0720  0.1711  0.3219
21011SOL    HW172001   9.703  12.199  10.786 -0.2010  1.2990 -0.4547
21011SOL    HW272002   9.677  12.190  10.637  0.7816 -0.4295 -0.5534
21012SOL     OW72003   4.850   7.762   8.051 -0.5374  0.0586  0.3022
21012SOL    HW172004   4.813   7.705   8.118 -0.4460 -1.1890 -0.6470
21012SOL    HW272005   4.774   7.801   8.008 -0.6533 -0.1821  0.2818
21013SOL     OW72006  11.349   5.227   6.901  0.0410  0.5282 -0.1781
21013SOL    HW172007  11.257   5.200   6.901 -0.3946  1.8964  0.9610
21013SOL    HW272008  11.365   5.255   6.991  1.4226  0.8215 -0.5042
21014SOL     OW72009  11.679   1.872   2.786 -0.2970 -0.4303  0.0804
21014SOL    HW172010  11.647   1.883   2.697  1.8715  0.0227 -0.7189
21014SOL    HW272011  11.644   1.948   2.834 -0.8762 -0.2830 -0.5675
21015SOL     OW72012   0.884   6.316   0.559 -0.2609  0.5576  0.1216
21015SOL    HW172013   0.889   6.320   0.464  1.5866  0.1685  0.1684
21015SOL    HW272014   0.799   6.275   0.578 -0.0406 -0.6600 -1.3865
21016SOL     OW72015   9.952   4.564  11.926 -0.0037  0.0493 -0.3709
21016SOL    HW172016   9.899   4.492  11.959  1.0871 -0.4531  0.3107
21016SOL    HW272017   9.984   4.608  12.004  0.0574  0.7481 -0.7841
21017SOL     OW72018  11.249   1.433   2.312 -0.2770  0.4162  0.1976
21017SOL    HW172019  11.308   1.404   2.382 -1.0360 -1.5597  0.0933
21017SOL    HW272020  11.304   1.488   2.257  0.9983  0.0654  1.0509
21018SOL     OW72021   3.540   1.848   8.054 -0.0938  0.2164  0.2127
21018SOL    HW172022   3.446   1.846   8.068  0.1618 -3.6675  2.9330
21018SOL    HW272023   3.552   1.818   7.964 -1.4088  1.1655 -0.3082
21019SOL     OW72024  11.500   5.871   8.335  0.2550  0.0115  0.3311
21019SOL    HW172025  11.408   5.898   8.331  0.7874  1.9723  0.4503
21019SOL    HW272026  11.549   5.950   8.314  1.9392 -0.9998  0.2784
21020SOL     OW72027  11.450   7.699   9.074  0.5742  0.2576 -0.2027
21020SOL    HW172028  11.406   7.753   9.140 -0.4535 -0.3910 -0.3335
21020SOL    HW272029  11.442   7.610   9.107  0.0011 -0.0853 -1.2048
21021SOL     OW72030   5.731   7.577   9.454 -0.2125  0.5920  0.4884
21021SOL    HW172031   5.760   7.543   9.539 -2.1132  0.9715  1.3647
21021SOL    HW272032   5.726   7.500   9.397  1.3638  0.3744  0.6170
21022SOL     OW72033   4.594   1.612  10.473  0.0446 -0.0331 -0.8823
21022SOL    HW172034   4.544   1.694  10.467  0.2216  0.2576  1.0709
21022SOL    HW272035   4.625   1.596  10.383  1.4135  2.9410 -1.0557
21023SOL     OW72036   2.601  10.386   7.325  0.2481  0.1991  0.3586
21023SOL    HW172037   2.691  10.418   7.329  0.0580  0.5955  2.9350
21023SOL    HW272038   2.569  10.392   7.415 -2.3917  0.1192 -0.4840
21024SOL     OW72039  12.474  11.641   9.677 -0.2532 -0.6010  0.6776
21024SOL    HW172040  12.556  11.641   9.627  0.1862  1.6538  1.2901
21024SOL    HW272041  12.502  11.661   9.767 -1.4275 -0.3559  0.9955
21025SOL     OW72042  11.609   1.793  11.103  0.2364  0.2872 -0.2640
21025SOL    HW172043  11.608   1.811  11.009  0.2276 -0.5903 -0.4404
21025SOL    HW272044  11.599   1.698  11.110  3.0031 -0.0501  0.5073
21026SOL     OW72045   1.876  11.605   4.582 -0.2096  0.2148  0.2657
21026SOL    HW172046   1.799  11.603   4.640  0.2865  0.8743  0.9744
21026SOL    HW272047   1.945  11.645   4.636  0.8007 -0.9056 -0.1561
21027SOL     OW72048  11.445   9.651   9.952  0.1316 -0.6177 -0.4307
21027SOL    HW172049  11.450   9.566   9.996  2.1106 -0.6736 -0.6515
21027SOL    HW272050  11.520   9.651   9.893 -0.1602  1.0631 -0.8433
21028SOL     OW72051   4.981  11.047  10.278  0.2828  0.2256 -0.4531
21028SOL    HW172052   5.052  11.087  10.229  0.8777 -0.7222 -0.4004
21028SOL    HW272053   4.969  10.961  10.237 -1.1048  0.5207 -0.7082
21029SOL     OW72054   5.228  10.774   0.664  0.1608 -0.4639 -0.0086
21029SOL    HW172055   5.160  10.712   0.690  0.2925 -1.4995 -1.9035
21029SOL    HW272056   5.238  10.832   0.739 -0.2084 -2.5261  1.7424
21030SOL     OW72057   0.465  10.907  12.212  0.4772 -0.4232 -0.6773
21030SOL    HW172058   0.435  10.829  12.258 -0.8841  0.8467  0.6894
21030SOL    HW272059   0.386  10.943  12.171  0.4583  1.7221  1.0539
21031SOL     OW72060   1.583   9.427   9.678 -0.2528 -0.0650 -0.6215
21031SOL    HW172061   1.664   9.451   9.722 -0.7543  0.5995 -0.0424
21031SOL    HW272062   1.516   9.482   9.719 -0.5768  1.3896 -2.9016
21032SOL     OW72063  11.353   4.649   0.699 -0.2870 -0.6650 -0.1518
21032SOL    HW172064  11.413   4.684   0.764 -0.3662 -0.6787 -0.0710
21032SOL    HW272065  11.410   4.611   0.632 -0.1955 -0.1579 -0.3687
21033SOL     OW72066   5.724   5.744   1.137 -0.2780  0.3754  0.1858
21033SOL    HW172067   5.748   5.703   1.220  0.2944 -0.2780 -0.2902
21033SOL    HW272068   5.677   5.675   1.089 -0.6554  0.7645 -0.0015
21034SOL     OW72069  11.129   9.336   1.753 -0.2211  0.2802 -0.8096
21034SOL    HW172070  11.165   9.249   1.767 -0.5745  0.1719 -0.5355
21034SOL    HW272071  11.040   9.331   1.790  0.2441  1.1610  0.5303
21035SOL     OW72072  11.423   2.160   2.547 -0.0926  0.2189 -0.5210
21035SOL    HW172073  11.386   2.129   2.464 -1.8778 -1.1563  0.6908
21035SOL    HW272074  11.353   2.213   2.586 -0.8169 -2.1020  1.6472
21036SOL     OW72075   7.808   9.200  11.102 -0.7778  0.3498  0.2640
21036SOL    HW172076   7.808   9.266  11.172  0.2677  2.7340 -1.8311
21036SOL    HW272077   7.878   9.139  11.127 -0.5903  1.0002  1.4039
21037SOL     OW72078   1.371  11.781   4.838 -0.4462  0.1112  0.0292
21037SOL    HW172079   1.395  11.689   4.845  0.4485  0.3011 -0.3797
21037SOL    HW272080   1.285  11.780   4.796 -0.3659 -0.5320 -0.1323
21038SOL     OW72081   1.740   8.682  12.192  0.4228 -0.1811  0.3115
21038SOL    HW172082   1.718   8.774  12.175 -0.8572 -0.8061 -1.8045
21038SOL    HW272083   1.759   8.645  12.106  1.9847 -1.6730  1.2444
21039SOL     OW72084  12.382   4.964   3.564 -0.1553 -0.2748 -0.4006
21039SOL    HW172085  12.477   4.974   3.553 -0.1016 -0.1038  0.1451
21039SOL    HW272086  12.345   5.046   3.531  0.0475  0.4864  1.1272
21040SOL     OW72087   2.157   6.012   5.440  0.5228  0.2032  0.5515
21040SOL    HW172088   2.101   5.952   5.489  2.0698 -1.7447  0.0414
21040SOL    HW272089   2.246   5.984   5.461  1.2742 -0.4548 -2.9657
21041SOL     OW72090  11.970   4.185  10.390 -0.5584 -0.7232 -0.4635
21041SOL    HW172091  11.918   4.112  10.356 -0.8009 -0.8410  0.1493
21041SOL    HW272092  12.055   4.177  10.346 -0.9389 -0.7272 -1.2214
21042SOL     OW72093   2.894   6.660   2.921 -0.2979 -0.5259  0.8656
21042SOL    HW172094   2.798   6.658   2.922 -0.3505  1.0373  1.6187
21042SOL    HW272095   2.920   6.568   2.936 -1.6359 -1.2867 -1.1120
21043SOL     OW72096   5.802   6.136   3.769 -0.4848  0.0631 -0.9888
21043SOL    HW172097   5.855   6.215   3.764 -0.4965  0.3133  1.7986
21043SOL    HW272098   5.829   6.093   3.850 -2.6580 -1.2002 -0.8534
21044SOL     OW72099   3.113  11.963   0.678  0.1344 -0.7603  0.2474
21044SOL    HW172100   3.094  11.970   0.772 -2.9533 -1.1347 -0.2374
21044SOL    HW272101   3.092  12.050   0.643  1.6424 -0.5051 -0.1112
21045SOL     OW72102  10.402  10.207   4.589 -0.3650 -0.3550 -0.5382
21045SOL    HW172103  10.477  10.257   4.556 -0.5017 -0.1169 -0.4906
21045SOL    HW272104  10.329  10.235   4.533 -0.9869  1.3481  1.0465
21046SOL     OW72105   8.571   8.677  10.470  0.2728 -0.2711  0.2979
21046SOL    HW172106   8.559   8.772  10.470  0.0881 -0.2599  1.8010
21046SOL    HW272107   8.496   8.644  10.420 -0.2902  0.3321  0.7106
21047SOL     OW72108   8.980   5.722   4.385 -0.0912 -0.7771 -0.4737
21047SOL    HW172109   9.026   5.657   4.332  1.2868  0.7456 -1.2239
21047SOL    HW272110   9.001   5.698   4.475  1.1324 -0.8811 -0.7613
21048SOL     OW72111   8.162   5.706   8.114 -0.3841 -0.4314  0.4828
21048SOL    HW172112   8.177   5.775   8.050  0.4442 -0.0343  1.0856
21048SOL    HW272113   8.093   5.652   8.075  0.2494 -0.3311 -0.8170
21049SOL     OW72114  10.598   8.211   2.333 -0.3066 -0.4718 -0.4063
21049SOL    HW172115  10.654   8.133   2.334  0.4061  0.0151 -0.8789
21049SOL    HW272116  10.526   8.188   2.274  0.6971 -0.2662 -1.7773
21050SOL     OW72117   8.295   3.422   0.341 -0.6623  0.4204  0.1959
21050SOL    HW172118   8.287   3.392   0.431 -0.4663  1.9967  0.7766
21050SOL    HW272119   8.213   3.396   0.299 -0.1318 -1.6878  0.3736
21051SOL     OW72120   1.439   4.573  10.307 -0.1800 -0.5867  0.0647
21051SOL    HW172121   1.411   4.630  10.235  1.1890  0.6562  0.4683
21051SOL    HW272122   1.499   4.627  10.359  0.1297 -1.9801  1.2352
21052SOL     OW72123   2.409   5.511   7.511  0.5689  0.1822  0.5111
21052SOL    HW172124   2.439   5.562   7.436  0.7826 -2.6688 -1.5107
21052SOL    HW272125   2.319   5.540   7.526  1.1382  2.0962  0.4056
21053SOL     OW72126   6.300   2.223  10.997 -0.2490  0.1343 -0.2718
21053SOL    HW172127   6.315   2.174  11.078 -0.4388 -0.5152 -0.6251
21053SOL    HW272128   6.252   2.162  10.941 -0.9724  0.9094 -0.5135
21054SOL     OW72129   3.838   5.426   8.819  0.9246  0.3972 -0.1711
21054SOL    HW172130   3.927   5.429   8.854  1.4230  1.4575 -1.4385
21054SOL    HW272131   3.791   5.496   8.867  0.6603 -0.3625  0.7143
21055SOL     OW72132  10.544   5.836   5.736 -0.3400  0.1135 -0.3927
21055SOL    HW172133  10.542   5.896   5.661 -0.8551 -1.0464 -1.3489
21055SOL    HW272134  10.582   5.756   5.701  0.9612  0.0632  1.0336
21056SOL     OW72135   8.528   8.140   6.908 -0.0502 -0.1287  0.1697
21056SOL    HW172136   8.494   8.157   6.820  1.7757  1.0183 -0.3672
21056SOL    HW272137   8.550   8.047   6.908 -0.4371 -0.2245 -0.4352
21057SOL     OW72138   7.841   7.362   7.748 -0.6280  0.4474 -0.4140
21057SOL    HW172139   7.907   7.420   7.710  1.3655 -0.6347  1.2035
21057SOL    HW272140   7.808   7.410   7.824  1.6059 -0.6880  1.4097
21058SOL     OW72141  10.678   3.164   0.046  0.5897  0.5071  0.1883
21058SOL    HW172142  10.757   3.186  -0.003  0.0732  1.2140 -0.3372
21058SOL    HW272143  10.677   3.226   0.119 -0.2502  1.4995 -0.6393
21059SOL     OW72144   4.417   2.407   4.667 -0.0764 -0.1294  0.4618
21059SOL    HW172145   4.327   2.430   4.644  0.6588  2.9609  0.1273
21059SOL    HW272146   4.414   2.384   4.760 -0.9251  2.5356  1.1796
21060SOL     OW72147  12.402  10.473   7.145  0.0568  0.4730  0.2790
21060SOL    HW172148  12.446  10.551   7.179  0.8338  0.2219 -0.1098
21060SOL    HW272149  12.436  10.401   7.199 -1.0983  0.4585  1.0241
21061SOL     OW72150  10.690   6.333   2.457 -0.2634  0.3879  0.5757
21061SOL    HW172151  10.604   6.343   2.496 -0.5990 -0.4536  0.0930
21061SOL    HW272152  10.688   6.387   2.379 -0.0433  1.0572  1.0284
21062SOL     OW72153   0.252   4.143   0.948 -0.3558  0.0938  0.4614
21062SOL    HW172154   0.335   4.104   0.972 -1.2589 -1.5231  1.1022
21062SOL    HW272155   0.266   4.180   0.861  1.2114  0.4863  0.8593
21063SOL     OW72156   8.699   1.062   4.637 -0.0657  0.8817 -0.0848
21063SOL    HW172157   8.716   1.008   4.560 -0.1213 -1.5943  1.4957
21063SOL    HW272158   8.604   1.058   4.648  0.0085  0.5680  0.5020
21064SOL     OW72159   4.469   7.827  12.236  0.3911  0.0959 -0.5167
21064SOL    HW172160   4.451   7.749  12.184  0.8186  0.2170 -0.8472
21064SOL    HW272161   4.501   7.891  12.173 -1.5329  1.0968 -0.5282
21065SOL     OW72162   4.599   0.678   1.628 -0.1983 -0.1077  0.4282
21065SOL    HW172163   4.583   0.699   1.535  0.1454 -0.1788  0.3544
21065SOL    HW272164   4.525   0.719   1.674 -0.6900 -0.5634  0.0653
21066SOL     OW72165   7.361   2.212   2.018  0.0843 -0.4320  0.0746
21066SOL    HW172166   7.397   2.149   2.080  0.6488 -1.4516 -1.2348
21066SOL    HW272167   7.308   2.270   2.071 -0.6306 -2.1356  1.3250
21067SOL     OW72168   4.947   8.730   6.078  0.0028 -0.6222  0.0501
21067SOL    HW172169   4.881   8.799   6.085 -0.4863 -1.0456 -0.3058
21067SOL    HW272170   5.027   8.770   6.111 -0.8192 -0.6885  2.2769
21068SOL     OW72171   1.892   9.896   0.668 -0.3872  0.1443  0.5560
21068SOL    HW172172   1.980   9.896   0.629 -0.0943 -3.6882  0.7895
21068SOL    HW272173   1.904   9.933   0.755  0.9034  0.1627  0.3889
21069SOL     OW72174  10.630   4.069   1.716 -0.0645  0.6877  0.1486
21069SOL    HW172175  10.612   4.162   1.709 -0.3651  0.5364 -1.2899
21069SOL    HW272176  10.582   4.029   1.644 -0.8557 -0.7189  1.3959
21070SOL     OW72177   2.015   6.598   2.693  0.1128 -0.8033  0.6379
21070SOL    HW172178   1.958   6.648   2.752  0.2426 -1.8888  1.7221
21070SOL    HW272179   1.967   6.518   2.674  0.0736 -0.4619 -0.7678
21071SOL     OW72180   8.979  10.133  11.791  0.3375  0.3084  0.1466
21071SOL    HW172181   8.970  10.212  11.846  1.4169  0.2372  0.4538
21071SOL    HW272182   8.889  10.109  11.769 -0.2173 -0.1402  2.5696
21072SOL     OW72183   2.201   3.892   8.099  0.3700 -0.1748 -0.1209
21072SOL    HW172184   2.239   3.858   8.018  2.0409  1.6002 -0.1541
21072SOL    HW272185   2.112   3.856   8.101 -0.0069  0.3361 -3.1250
21073SOL     OW72186   6.335   9.260   9.060 -0.4268 -0.2285 -0.0771
21073SOL    HW172187   6.349   9.322   9.132 -0.3504  1.2035 -1.2904
21073SOL    HW272188   6.383   9.298   8.987 -2.0653 -0.6684 -1.4245
21074SOL     OW72189   3.987   8.509   4.855 -0.5787 -0.3810 -0.1502
21074SOL    HW172190   4.031   8.589   4.828 -0.5118 -0.1420  0.6313
21074SOL    HW272191   4.002   8.447   4.784  1.0175 -0.2982  0.0908
21075SOL     OW72192  11.529  12.164   9.066  0.0839  0.4891  0.0311
21075SOL    HW172193  11.552  12.193   9.154 -1.8427  0.4432  0.5950
21075SOL    HW272194  11.472  12.088   9.080  0.0737  0.2304 -1.2705
21076SOL     OW72195   6.856  10.204   9.847 -0.3600 -0.0950 -0.2721
21076SOL    HW172196   6.917  10.234   9.915  0.2185  1.2932 -1.3641
21076SOL    HW272197   6.771  10.205   9.890 -0.0659  1.1930  0.3251
21077SOL     OW72198   7.753   0.096   4.565  0.3941 -0.1125 -0.0433
21077SOL    HW172199   7.754   0.157   4.639 -0.7076 -0.2704  0.1309
21077SOL    HW272200   7.800   0.142   4.495  0.5912  0.4522  0.4484
21078SOL     OW72201   2.954  12.031   3.236 -0.0135 -0.2154 -0.0201
21078SOL    HW172202   3.008  12.065   3.165 -0.1671  0.5447  0.2195
21078SOL    HW272203   2.865  12.029   3.200 -0.7426  3.5136  1.1822
21079SOL     OW72204   2.391   8.951  11.935  0.3008 -0.4816  0.5362
21079SOL    HW172205   2.403   8.879  11.996  0.1870  0.1388  1.3084
21079SOL    HW272206   2.457   9.015  11.960  1.1405 -0.7737 -0.8550
21080SOL     OW72207  11.067   3.994   9.964  0.3509 -0.3071  0.0272
21080SOL    HW172208  11.008   4.001  10.039  0.6223  1.6415  0.1187
21080SOL    HW272209  11.034   3.919   9.915 -0.2343 -1.2290  1.7342
21081SOL     OW72210   5.382   0.793   1.361 -0.3377 -0.1342 -0.5151
21081SOL    HW172211   5.363   0.699   1.369  1.0144 -0.6594 -2.6608
21081SOL    HW272212   5.301   0.836   1.388 -0.9756 -1.9059  0.5709
21082SOL     OW72213   9.651   0.766   2.880 -0.1123 -0.1690  0.3671
21082SOL    HW172214   9.687   0.678   2.869  0.9254  0.2873 -0.0206
21082SOL    HW272215   9.574   0.768   2.822 -0.5251 -1.0147  0.8761
21083SOL     OW72216   7.284   1.006  11.071 -0.1397 -0.6393  0.1314
21083SOL    HW172217   7.212   1.049  11.118 -0.2457 -0.1520 -0.4533
21083SOL    HW272218   7.241   0.936  11.021 -0.6080  1.0335 -1.9742
21084SOL     OW72219   5.610  11.897   2.519 -0.4186  0.2539 -0.2790
21084SOL    HW172220   5.575  11.927   2.435 -0.1232 -1.4483 -1.0535
21084SOL    HW272221   5.600  11.972   2.577 -0.6918  1.4566 -1.8130
21085SOL     OW72222  12.270   5.394   3.713  0.1742  0.1570  0.3221
21085SOL    HW172223  12.250   5.482   3.746 -1.9858  0.1152 -0.7251
21085SOL    HW272224  12.226   5.335   3.774 -1.7292 -0.0022 -1.1202
21086SOL     OW72225   8.993   9.095  10.155 -0.1226 -0.5671  0.1308
21086SOL    HW172226   8.948   9.019  10.192  0.6061 -0.6602  0.8717
21086SOL    HW272227   9.069   9.058  10.110 -1.1906 -0.4870 -1.8318
21087SOL     OW72228   7.704   1.814   3.520  0.2611 -0.1334 -0.5814
21087SOL    HW172229   7.759   1.745   3.557 -0.0763 -0.9253 -1.5096
21087SOL    HW272230   7.614   1.782   3.532 -0.0233  1.0733  0.7787
21088SOL     OW72231   1.510   7.016   8.665 -0.0530 -0.2791 -0.0151
21088SOL    HW172232   1.420   7.049   8.669 -0.2223 -0.7590  0.1799
21088SOL    HW272233   1.523   6.994   8.573  0.0720  0.3546 -0.1531
21089SOL     OW72234   1.485   5.768   4.603 -0.4888 -0.3936 -0.5779
21089SOL    HW172235   1.567   5.730   4.572 -0.5364  0.3540 -1.6581
21089SOL    HW272236   1.469   5.842   4.545 -0.3138  1.4159  1.5289
21090SOL     OW72237   2.610   1.516  12.068 -0.0301 -0.6067  0.1589
21090SOL    HW172238   2.526   1.530  12.112  0.3877  1.3399  0.4275
21090SOL    HW272239   2.586   1.477  11.984 -1.3354  0.9162 -0.2405
21091SOL     OW72240   9.594   9.444   2.108 -0.6675  0.1184 -0.1581
21091SOL    HW172241   9.589   9.534   2.141 -1.1565 -0.1955  0.6488
21091SOL    HW272242   9.688   9.425   2.106 -0.6024  0.3464  0.5109
21092SOL     OW72243   1.781   2.667   9.090  0.0365 -0.2531  0.1544
21092SOL    HW172244   1.819   2.593   9.137  1.1375 -0.1030 -0.4530
21092SOL    HW272245   1.704   2.631   9.047  0.4743 -1.0245 -0.0110
21093SOL     OW72246   6.917  12.552   3.165 -0.6679 -0.3945  0.0137
21093SOL    HW172247   6.919  12.580   3.257 -2.0352  2.6357 -0.7353
21093SOL    HW272248   7.009  12.549   3.139 -0.2697 -1.0209  1.3738
21094SOL     OW72249   4.076   7.061   4.118 -0.2667 -0.5867  0.3574
21094SOL    HW172250   4.170   7.080   4.117 -0.5812  1.1945  0.5159
21094SOL    HW272251   4.071   6.966   4.112  1.5367 -0.7140  0.1018
21095SOL     OW72252   4.125   9.586   5.600  0.4170  0.1310 -0.2937
21095SOL    HW172253   4.097   9.584   5.508  0.0622 -2.3332 -0.2074
21095SOL    HW272254   4.220   9.597   5.595  0.5087 -0.8549 -1.0176
21096SOL     OW72255  12.106   6.808   0.019 -0.0798  0.2821  0.4499
21096SOL    HW172256  12.162   6.869  -0.030  0.1115 -0.2925 -0.0707
21096SOL    HW272257  12.126   6.825   0.111 -1.7334  2.6240  0.4550
21097SOL     OW72258   9.002  11.819   3.355  0.2402 -0.2799  0.0152
21097SOL    HW172259   8.954  11.880   3.412  0.8425 -0.5777  0.8576
21097SOL    HW272260   8.960  11.734   3.371  0.8544 -0.4871  0.5304
21098SOL     OW72261   3.005   6.417  11.920  0.3217  0.0939 -0.3497
21098SOL    HW172262   2.981   6.509  11.912 -0.2145  0.0877  0.9273
21098SOL    HW272263   2.950   6.384  11.992  1.6620 -0.8165  0.2960
21099SOL     OW72264  11.363   7.726   2.273  0.1427  0.1802  0.2740
21099SOL    HW172265  11.330   7.687   2.192  1.2261  1.1282 -0.6774
21099SOL    HW272266  11.405   7.807   2.244  1.1792  0.1863  1.7083
21100SOL     OW72267   1.837   6.905   0.016  0.1546 -0.0146 -0.2186
21100SOL    HW172268   1.800   6.954   0.090 -0.8430  0.4821 -1.0238
21100SOL    HW272269   1.842   6.969  -0.055  0.3540 -0.6862 -0.8215
21101SOL     OW72270   7.186   9.000   1.551 -0.4138  0.0832  0.2140
21101SOL    HW172271   7.240   8.946   1.609 -1.2118 -1.5528 -0.4957
21101SOL    HW272272   7.143   9.063   1.609 -0.2233 -0.6860  1.2207
21102SOL     OW72273   9.063  12.406   8.727  0.1567 -0.1560 -0.1149
21102SOL    HW172274   9.154  12.386   8.749  0.7675  2.1550 -0.3317
21102SOL    HW272275   9.014  12.381   8.805  0.8248 -2.1735 -0.2774
21103SOL     OW72276  10.902  10.984   3.426  0.4725 -0.1559  0.6073
21103SOL    HW172277  10.812  11.015   3.412  0.4325 -1.1480 -1.6115
21103SOL    HW272278  10.915  10.916   3.360  2.4933 -0.8418  1.6367
21104SOL     OW72279  12.440   6.609   6.081  0.1322  0.5737  0.2711
21104SOL    HW172280  12.383   6.685   6.091  0.3038  0.7358  0.0471
21104SOL    HW272281  12.384   6.534   6.097 -0.6618  0.6268 -1.8918
21105SOL     OW72282   8.029   8.324   1.614 -0.3538  0.0073 -0.0785
21105SOL    HW172283   8.119   8.321   1.583 -0.3872 -1.0716 -0.1017
21105SOL    HW272284   7.985   8.253   1.568 -1.5162  1.2385 -0.9308
21106SOL     OW72285   4.958   8.141   4.187  0.4036  0.0256  0.3747
21106SOL    HW172286   4.937   8.060   4.234 -0.3249  0.5226  0.9293
21106SOL    HW272287   5.052   8.152   4.198  0.4042 -0.4183  0.8275
21107SOL     OW72288   5.138  11.953   0.493 -0.2985  0.3460  0.0692
21107SOL    HW172289   5.200  12.021   0.519  1.4506  0.1829 -3.1311
21107SOL    HW272290   5.063  12.002   0.459 -0.4603  0.6201  0.8233
21108SOL     OW72291  10.677   8.567  11.589  0.0206  0.2073  0.4552
21108SOL    HW172292  10.661   8.521  11.671 -2.9256  0.3506  0.0532
21108SOL    HW272293  10.656   8.504  11.520  0.3479  0.7644 -0.1720
21109SOL     OW72294   0.253  10.176   1.365  0.3413  0.3614  0.1510
21109SOL    HW172295   0.196  10.237   1.411 -0.6665 -1.4066  1.3751
21109SOL    HW272296   0.208  10.091   1.372  2.3592 -0.8041 -0.2323
21110SOL     OW72297   2.696   5.993   4.070  0.0861 -0.1246 -0.1316
21110SOL    HW172298   2.639   6.045   4.013  0.5173 -0.0502 -0.4974
21110SOL    HW272299   2.635   5.945   4.127 -0.3173  0.8121  0.2502
21111SOL     OW72300   4.971  10.047   8.950 -0.1996  0.3265  0.0565
21111SOL    HW172301   4.984   9.952   8.947 -0.5490  0.2298  1.1717
21111SOL    HW272302   5.050  10.080   8.994 -0.3449  0.4940  0.1900
21112SOL     OW72303   9.877   6.458   4.632  0.0001  0.7017 -0.2420
21112SOL    HW172304   9.915   6.503   4.556  0.1579  1.5488  0.3314
21112SOL    HW272305   9.792   6.500   4.645  0.5672  1.5620  0.9085
21113SOL     OW72306   1.295   5.613  11.519  0.0367 -0.5829 -0.1061
21113SOL    HW172307   1.354   5.636  11.590  1.0180 -1.6289 -0.5420
21113SOL    HW272308   1.296   5.688  11.461  0.7427 -0.4813  0.0290
21114SOL     OW72309   1.419   7.345   4.926  0.0526 -0.0721  0.5009
21114SOL    HW172310   1.331   7.363   4.893  0.9424  2.5024 -0.7810
21114SOL    HW272311   1.461   7.295   4.856 -0.2915 -1.1201  1.0240
21115SOL     OW72312   0.327   5.833   5.471 -0.5165  0.0068 -0.3606
21115SOL    HW172313   0.238   5.798   5.460 -0.0723 -1.0449 -0.7840
21115SOL    HW272314   0.363   5.835   5.383  0.4276 -1.1464 -0.0326
21116SOL     OW72315   0.596   9.122   0.304 -0.1047 -0.4391 -0.5428
21116SOL    HW172316   0.528   9.062   0.274  1.0071 -0.9245 -2.2213
21116SOL    HW272317   0.576   9.205   0.260  0.7865 -0.7919 -1.6545
21117SOL     OW72318   1.892   4.717   8.860 -0.1920 -0.4847  0.6234
21117SOL    HW172319   1.891   4.737   8.766 -0.2710 -2.4391  0.1605
21117SOL    HW272320   1.973   4.758   8.892  0.9068 -1.5041 -0.7353
21118SOL     OW72321   7.878  11.071   8.405  0.3905  0.2883  0.6679
21118SOL    HW172322   7.786  11.049   8.392  0.7229 -0.5207 -0.3896
21118SOL    HW272323   7.925  10.988   8.398  1.4712  0.9824 -1.5132
21119SOL     OW72324   1.781   1.873   2.744  0.1648 -0.1751  0.2628
21119SOL    HW172325   1.774   1.964   2.715 -3.8624 -0.4234 -0.0946
21119SOL    HW272326   1.765   1.878   2.839 -0.0429 -0.4866  0.2451
21120SOL     OW72327   3.999   3.045  10.969 -0.0727 -0.3890 -0.3914
21120SOL    HW172328   4.056   2.972  10.995  0.7290 -0.1537 -1.4069
21120SOL    HW272329   4.017   3.057  10.875  1.0299  2.1406  0.0730
21121SOL     OW72330   1.689   9.155   3.768 -0.3417 -0.0165  0.2324
21121SOL    HW172331   1.630   9.081   3.780 -0.1371 -0.7225 -2.5366
21121SOL    HW272332   1.775   9.115   3.754 -0.1965  0.7271 -1.1170
21122SOL     OW72333   5.812   6.110   1.472 -0.2000 -0.1990  0.5153
21122SOL    HW172334   5.737   6.099   1.414  0.2455  1.7584 -0.5310
21122SOL    HW272335   5.813   6.204   1.491  2.6071  0.0637 -0.4348
21123SOL     OW72336  12.157   0.731  11.233  0.2414 -0.3760 -0.2391
21123SOL    HW172337  12.238   0.752  11.186  0.3249  0.6330  0.3319
21123SOL    HW272338  12.102   0.689  11.167 -0.1291  2.1070 -1.6352
21124SOL     OW72339   1.859  10.227   6.311  0.1872  0.2987  0.4111
21124SOL    HW172340   1.847  10.143   6.355 -0.1130 -0.0208 -0.2772
21124SOL    HW272341   1.856  10.292   6.382  1.5764 -0.3472  1.0840
21125SOL     OW72342   9.252   6.671   7.873 -0.6181 -0.5935 -0.3985
21125SOL    HW172343   9.343   6.675   7.842  0.2195 -1.7415  1.6571
21125SOL    HW272344   9.215   6.756   7.851  0.2329 -0.8679 -3.2698
21126SOL     OW72345  11.457  10.117  10.171  0.1044 -0.0021 -0.3686
21126SOL    HW172346  11.530  10.062  10.144  1.0863  0.9205  0.3435
21126SOL    HW272347  11.419  10.148  10.089  0.8780 -0.0169 -0.7370
21127SOL     OW72348   4.606   0.514   4.202 -0.1835 -0.0944  0.2522
21127SOL    HW172349   4.527   0.524   4.256  1.8047  0.0164  3.4036
21127SOL    HW272350   4.582   0.448   4.137 -3.2893  1.0024  0.1156
21128SOL     OW72351   5.480   1.083   3.656 -0.3168  0.1918 -0.3328
21128SOL    HW172352   5.477   0.992   3.628  1.1097  0.0879 -0.2351
21128SOL    HW272353   5.572   1.099   3.675 -0.7141  1.3019  0.8377
21129SOL     OW72354   4.134   0.292   9.077 -0.2744  0.4773 -0.1734
21129SOL    HW172355   4.157   0.382   9.054  0.5590  0.0926 -0.9118
21129SOL    HW272356   4.065   0.301   9.143  0.1389  1.6571  0.1245
21130SOL     OW72357   5.999  11.834  11.616  0.1548 -0.5474 -0.0887
21130SOL    HW172358   6.046  11.819  11.534  1.6945  1.6518  0.3234
21130SOL    HW272359   6.038  11.773  11.678  0.6144 -0.5789 -0.4057
21131SOL     OW72360  11.357  10.277   2.287 -0.3957  0.5493  0.0031
21131SOL    HW172361  11.432  10.252   2.233  1.6475 -1.0990  3.3050
21131SOL    HW272362  11.363  10.372   2.294  0.8408  0.5341 -0.5127
21132SOL     OW72363   0.796  10.135   7.335 -0.1049 -0.0070  0.0558
21132SOL    HW172364   0.709  10.145   7.296  0.2484  0.7478 -0.5735
21132SOL    HW272365   0.846  10.086   7.271  0.4371  1.1070 -0.4030
21133SOL     OW72366   9.317   5.612   6.621  0.2089 -0.1345 -0.5532
21133SOL    HW172367   9.227   5.599   6.652  0.3065 -0.0391 -0.2214
21133SOL    HW272368   9.368   5.623   6.702  0.6040 -0.7303 -0.7108
21134SOL     OW72369   7.840   4.315   3.934  0.1610 -0.4737  0.4085
21134SOL    HW172370   7.885   4.285   4.012 -1.1371 -1.2430  0.8958
21134SOL    HW272371   7.799   4.237   3.897 -1.4958  0.2899  0.5017
21135SOL     OW72372   4.347   2.326   6.889 -0.6661 -0.1101  0.3478
21135SOL    HW172373   4.267   2.312   6.838  0.5371  2.3056 -2.5124
21135SOL    HW272374   4.331   2.405   6.939  0.5190  1.7158 -1.9498
21136SOL     OW72375   8.091   1.300   1.909 -0.2923  0.3368 -0.2987
21136SOL    HW172376   8.068   1.211   1.932 -1.7121  0.5621 -0.7376
21136SOL    HW272377   8.052   1.354   1.977 -0.0185  0.6684 -0.3984
21137SOL     OW72378   9.294   5.584   5.983 -0.0087 -0.1326 -0.0683
21137SOL    HW172379   9.205   5.601   5.953  0.9253  2.5759 -1.5912
21137SOL    HW272380   9.348   5.592   5.905  1.8993  1.2953  1.3069
21138SOL     OW72381  10.541   5.413   7.537  0.1881 -0.7156 -0.2614
21138SOL    HW172382  10.543   5.318   7.521  1.8535 -0.5955 -1.0373
21138SOL    HW272383  10.461   5.443   7.495 -0.5089 -1.8045  0.2343
21139SOL     OW72384   8.838   0.249   8.483  0.3739  0.3441  0.0822
21139SOL    HW172385   8.842   0.180   8.417 -0.4896  1.3051 -1.0200
21139SOL    HW272386   8.775   0.312   8.447  0.7289  1.4275  1.3190
21140SOL     OW72387   8.837   6.895   3.546  0.2257 -0.3460 -0.2492
21140SOL    HW172388   8.848   6.875   3.638  0.3823 -0.8589 -0.3742
21140SOL    HW272389   8.924   6.920   3.515  0.1885 -0.2444 -0.2715
21141SOL     OW72390   9.048   9.037   8.072 -0.5791 -0.3331  0.5469
21141SOL    HW172391   9.082   9.032   8.162  0.5058 -1.7000  0.1058
21141SOL    HW272392   9.048   8.946   8.042  1.3676  0.2926 -1.6387
21142SOL     OW72393   1.297   7.532   2.124 -0.6484 -0.5123 -0.2043
21142SOL    HW172394   1.366   7.550   2.060 -0.2157 -0.0521  0.3903
21142SOL    HW272395   1.234   7.604   2.112 -0.6217 -0.4860 -0.1866
21143SOL     OW72396   2.139   6.003   1.540 -1.0080  0.4945  0.0066
21143SOL    HW172397   2.174   5.929   1.490  0.5225  2.5659 -2.2137
21143SOL    HW272398   2.199   6.014   1.614  0.0337  0.7908 -0.8565
21144SOL     OW72399   3.946   8.795  11.053  0.1543  0.0264  0.1540
21144SOL    HW172400   3.997   8.824  11.129  1.1683  0.6987 -0.7559
21144SOL    HW272401   4.008   8.798  10.980 -1.2937  1.3448 -1.0886
21145SOL     OW72402   7.180   7.293   4.647  0.1410  0.4083 -0.2719
21145SOL    HW172403   7.133   7.375   4.633 -0.7620 -0.2593 -1.3468
21145SOL    HW272404   7.215   7.300   4.736  1.0446  2.4087 -0.7318
21146SOL     OW72405  10.431  11.610   7.807  0.1566 -0.3048  0.0434
21146SOL    HW172406  10.478  11.632   7.726 -0.8668  1.8961 -0.0327
21146SOL    HW272407  10.403  11.519   7.795  2.1002 -0.8231 -1.0056
21147SOL     OW72408   0.341   1.462   5.930 -0.0743  0.1027 -0.1727
21147SOL    HW172409   0.342   1.372   5.900  1.4314  0.5195 -1.5322
21147SOL    HW272410   0.279   1.463   6.003 -0.6815 -1.8488 -0.6158
21148SOL     OW72411   9.005   2.955  12.273  0.4390  0.2415 -0.1867
21148SOL    HW172412   9.010   3.041  12.316  0.2505 -0.6255  1.6958
21148SOL    HW272413   9.090   2.945  12.230  1.5636  0.3077  1.8516
21149SOL     OW72414   8.803   7.361   4.832  0.4336 -0.2045  0.0760
21149SOL    HW172415   8.796   7.451   4.863  1.1829 -0.7947  2.1938
21149SOL    HW272416   8.857   7.366   4.753  1.2792  1.1210  0.7031
21150SOL     OW72417  10.400   1.112   1.404  0.1194  0.3788 -0.5575
21150SOL    HW172418  10.373   1.040   1.462 -2.0844  1.0637 -0.6524
21150SOL    HW272419  10.420   1.069   1.321  1.0642 -0.3571  0.0288
21151SOL     OW72420   4.995  11.337   9.961  0.0419 -0.0738 -0.6112
21151SOL    HW172421   4.957  11.368  10.043  0.9587 -0.0367 -0.1983
21151SOL    HW272422   5.006  11.416   9.908 -2.0092 -0.2599 -1.4168
21152SOL     OW72423   7.430   2.471   7.721 -0.3322  0.8282  0.0830
21152SOL    HW172424   7.353   2.472   7.664  0.8958  2.0711 -1.6688
21152SOL    HW272425   7.439   2.379   7.747 -2.0197  0.5515 -0.1997
21153SOL     OW72426  10.787  12.162   5.939 -0.0424  0.0450 -0.4823
21153SOL    HW172427  10.837  12.094   5.892 -0.0372 -0.1197 -0.2403
21153SOL    HW272428  10.821  12.244   5.904  0.4303 -0.0655 -0.2940
21154SOL     OW72429  10.849   3.222   7.178 -0.4470 -0.1101 -0.8393
21154SOL    HW172430  10.769   3.270   7.156 -0.7945 -0.6889 -0.8562
21154SOL    HW272431  10.837   3.136   7.139 -0.4950 -0.7192  0.4657
21155SOL     OW72432   8.701   3.456   8.538 -0.1434 -0.4021  0.4142
21155SOL    HW172433   8.783   3.459   8.586 -0.1048  0.2966  0.3217
21155SOL    HW272434   8.714   3.390   8.470  0.5096  0.0391  0.1031
21156SOL     OW72435   4.675   5.960   9.128  0.0666  0.7302 -0.6583
21156SOL    HW172436   4.724   5.893   9.081  0.3299  0.6416 -0.2610
21156SOL    HW272437   4.615   5.996   9.063  0.3814  0.5641 -1.0417
21157SOL     OW72438   2.025   6.347   4.773  0.1060  0.9837 -0.0862
21157SOL    HW172439   2.062   6.413   4.831  0.4493  1.5359 -0.9191
21157SOL    HW272440   1.943   6.385   4.741 -0.7042  0.1825  0.9534
21158SOL     OW72441   7.709   8.798   1.626 -0.3711  0.5331 -0.0319
21158SOL    HW172442   7.760   8.785   1.546  0.8073 -3.0721  1.0990
21158SOL    HW272443   7.623   8.763   1.605 -0.0457 -0.4640  0.2497
21159SOL     OW72444   2.776   3.168   6.951 -0.3240  0.1860 -0.0540
21159SOL    HW172445   2.840   3.177   6.881 -0.0325  1.7476  0.3874
21159SOL    HW272446   2.758   3.257   6.979 -0.5013 -0.4078  1.8186
21160SOL     OW72447   8.755   3.020   4.431  0.7001 -0.3940  0.2358
21160SOL    HW172448   8.807   3.091   4.469 -1.2968 -0.1144  2.6736
21160SOL    HW272449   8.673   3.061   4.406 -0.0851 -1.6159  0.7054
21161SOL     OW72450   7.236   1.656   1.619  0.2448 -0.3036  0.1681
21161SOL    HW172451   7.299   1.728   1.614  0.0558 -0.1827 -2.9729
21161SOL    HW272452   7.151   1.700   1.621  0.1702 -0.4261 -0.1913
21162SOL     OW72453   9.601  11.697  11.757 -0.5336 -0.2292 -0.4588
21162SOL    HW172454   9.681  11.744  11.784 -0.5136  0.1684 -1.1751
21162SOL    HW272455   9.633  11.620  11.711 -0.5638 -0.2420 -0.4585
21163SOL     OW72456   3.048   8.729   2.424 -0.2336  0.3588  0.0953
21163SOL    HW172457   3.058   8.744   2.518 -0.3313 -0.8066  0.3124
21163SOL    HW272458   3.101   8.796   2.382  1.3342 -0.2675  1.0219
21164SOL     OW72459   4.867  12.311   1.888 -0.0509  0.6442  0.1756
21164SOL    HW172460   4.883  12.375   1.819  0.4852 -0.2920 -0.5946
21164SOL    HW272461   4.877  12.226   1.845 -0.8271  0.0356  1.1562
21165SOL     OW72462   3.113   9.968   6.671  0.0351 -0.1675  0.3928
21165SOL    HW172463   3.135  10.053   6.633  0.6463 -0.6041 -0.2518
21165SOL    HW272464   3.113   9.982   6.766  0.0168  0.5750  0.2830
21166SOL     OW72465  10.308   0.201   1.784  0.1646  0.2648 -0.6920
21166SOL    HW172466  10.304   0.128   1.845  3.3907  2.0699  2.0276
21166SOL    HW272467  10.231   0.254   1.805  1.6224  1.3088  2.7333
21167SOL     OW72468   1.815   3.792   0.979 -0.1641  0.0841 -0.5828
21167SOL    HW172469   1.730   3.749   0.985  0.3903 -1.1883 -1.2364
21167SOL    HW272470   1.830   3.804   0.885  0.6875 -0.4306 -0.5330
21168SOL     OW72471   6.356   8.188  11.466 -0.0325 -0.2216  0.1972
21168SOL    HW172472   6.266   8.184  11.498 -0.7990  0.1795 -1.7878
21168SOL    HW272473   6.386   8.098  11.466 -1.5993 -0.8320 -2.1275
21169SOL     OW72474   7.109   4.368   3.359 -0.0534  0.3395  0.6432
21169SOL    HW172475   7.022   4.364   3.398  0.7374  0.3447  2.5530
21169SOL    HW272476   7.159   4.300   3.405  0.8248 -0.0432 -0.7926
21170SOL     OW72477   2.338   2.915   3.601 -0.5768 -0.5229  0.4512
21170SOL    HW172478   2.407   2.919   3.666  0.7454 -0.4060 -0.8999
21170SOL    HW272479   2.384   2.918   3.517 -2.2939  1.0326 -0.5089
21171SOL     OW72480  10.231   9.015   3.171  0.0701  0.3121 -0.0811
21171SOL    HW172481  10.272   8.934   3.140 -0.6098 -0.9564  2.1149
21171SOL    HW272482  10.142   9.011   3.138 -0.4219 -0.6501  1.2654
21172SOL     OW72483   8.239   0.623   1.072 -0.5198 -0.1661 -0.3874
21172SOL    HW172484   8.264   0.705   1.030 -0.6184  0.6274  1.0536
21172SOL    HW272485   8.322   0.578   1.089 -0.3485  0.3762  0.2512
21173SOL     OW72486   4.526   4.747   8.684 -0.3710 -0.2014 -0.3458
21173SOL    HW172487   4.456   4.728   8.747  0.1112  0.6550  0.4625
21173SOL    HW272488   4.539   4.841   8.689  1.7575 -0.4891  0.5270
21174SOL     OW72489  10.824  11.588   5.825  0.0827  0.3442  0.4868
21174SOL    HW172490  10.916  11.612   5.821  0.3384 -0.7179 -0.8695
21174SOL    HW272491  10.792  11.598   5.736 -0.2410 -2.4168  0.2072
21175SOL     OW72492   5.241   4.035   2.388 -0.4378 -0.1607 -0.1191
21175SOL    HW172493   5.316   3.975   2.376  0.8733  1.3560  0.1261
21175SOL    HW272494   5.199   4.004   2.468  1.1852  0.1701  0.9167
21176SOL     OW72495   6.533  10.820   0.033  0.7140  0.2729 -0.4276
21176SOL    HW172496   6.582  10.773  -0.035 -0.9176  1.2657 -2.3814
21176SOL    HW272497   6.600  10.846   0.097  2.1023 -1.8733 -0.9085
21177SOL     OW72498   1.128   5.670   1.831  0.0009  0.1651  0.7533
21177SOL    HW172499   1.056   5.609   1.847  1.4004 -1.6549  0.4400
21177SOL    HW272500   1.185   5.661   1.907  2.1375 -1.8579 -0.9279
21178SOL     OW72501   1.276  10.808   2.564  0.5637 -0.6910 -0.4144
21178SOL    HW172502   1.247  10.838   2.650 -0.3776  1.7599 -1.5049
21178SOL    HW272503   1.195  10.778   2.521  0.8479 -0.8238 -0.8569
21179SOL     OW72504   4.818  11.797   2.123  0.1400 -0.5056  0.2603
21179SOL    HW172505   4.858  11.794   2.210 -1.7856 -0.9987  1.1777
21179SOL    HW272506   4.857  11.722   2.077 -0.2667 -1.4363  1.3830
21180SOL     OW72507  11.592   5.367  11.714  0.2229  0.0621  0.3065
21180SOL    HW172508  11.509   5.403  11.681  0.2744  0.1171  0.2346
21180SOL    HW272509  11.624   5.312  11.642  1.0718  1.3526 -0.3525
21181SOL     OW72510   6.698   6.179   9.348  0.2796 -0.6315  0.6182
21181SOL    HW172511   6.781   6.163   9.304  0.3501  0.1607  0.4512
21181SOL    HW272512   6.699   6.272   9.369  0.2089 -0.9614  2.2255
21182SOL     OW72513  12.511   7.787   2.058  1.2958 -0.3702 -0.2762
21182SOL    HW172514  12.451   7.782   2.132 -0.1296 -0.5264 -1.3965
21182SOL    HW272515  12.531   7.880   2.050 -0.2359 -0.0622 -0.9469
21183SOL     OW72516   0.534  10.019   3.133 -0.5821  1.0266 -0.0429
21183SOL    HW172517   0.506   9.960   3.063 -2.6203  1.0215  0.6883
21183SOL    HW272518   0.586   9.964   3.192 -3.4894 -0.5373  1.3066
21184SOL     OW72519   3.568   6.489  10.223  0.2519 -0.1626  0.4213
21184SOL    HW172520   3.527   6.546  10.289 -0.0804 -0.2247  0.2719
21184SOL    HW272521   3.657   6.522  10.214 -0.3318  1.2071 -0.6529
21185SOL     OW72522   3.111   6.159   7.012 -0.1099 -0.9946 -0.0631
21185SOL    HW172523   3.125   6.190   7.101  1.4019  0.3978 -0.7369
21185SOL    HW272524   3.033   6.205   6.982 -0.6375 -1.4864  0.5320
21186SOL     OW72525   1.534   7.680  10.040 -0.3517 -0.0541  0.3250
21186SOL    HW172526   1.517   7.592  10.006 -0.1789  0.1813 -0.3822
21186SOL    HW272527   1.527   7.670  10.135 -1.9807 -0.4935  0.2027
21187SOL     OW72528   9.967   1.581  10.621 -0.0659  0.5222  0.5517
21187SOL    HW172529  10.063   1.587  10.621 -0.1244  1.9790 -0.7410
21187SOL    HW272530   9.940   1.638  10.694  0.0495 -0.4183  1.3493
21188SOL     OW72531   9.792   1.736   5.568 -0.3755  0.1310 -0.0325
21188SOL    HW172532   9.832   1.774   5.490 -1.8006 -0.0782 -0.9158
21188SOL    HW272533   9.855   1.750   5.638  0.6872  0.8435 -1.1095
21189SOL     OW72534   2.031   6.357   3.711  0.6424  0.4571  0.3937
21189SOL    HW172535   2.069   6.269   3.705  1.7854  0.9646 -0.1117
21189SOL    HW272536   2.102   6.411   3.744 -0.0100  1.2300  0.5565
21190SOL     OW72537   6.515   4.183   9.103 -0.3713  0.2084  0.2533
21190SOL    HW172538   6.548   4.162   9.190  1.9928 -1.4416 -0.8975
21190SOL    HW272539   6.594   4.194   9.050 -1.6965 -0.2674 -1.9540
21191SOL     OW72540   0.406   3.754  11.585  0.8257 -0.3611  0.4383
21191SOL    HW172541   0.365   3.839  11.573  0.3813 -0.4937  1.0071
21191SOL    HW272542   0.336   3.697  11.617  0.4073 -1.6554 -2.4777
21192SOL     OW72543  12.586  10.952   9.024  0.2885 -0.0317 -0.1955
21192SOL    HW172544  12.584  11.001   9.106  0.2565  0.4234 -0.4597
21192SOL    HW272545  12.679  10.940   9.006  0.2909 -0.4455  0.0880
21193SOL     OW72546   3.173  10.989   7.784  0.3882  0.4372  0.0325
21193SOL    HW172547   3.158  10.895   7.779  0.9425  0.3584 -0.3203
21193SOL    HW272548   3.205  11.003   7.874 -1.1711  0.5300  0.5950
21194SOL     OW72549   2.043   8.980   9.788  0.3890  0.5870 -0.7280
21194SOL    HW172550   2.085   8.987   9.874 -0.0935  1.0556 -0.5218
21194SOL    HW272551   2.086   9.048   9.735  1.2560 -0.2310 -1.1163
21195SOL     OW72552   3.462   1.055   3.316  0.7624  0.0881  0.5358
21195SOL    HW172553   3.380   1.104   3.322  0.8504  0.1909  0.8771
21195SOL    HW272554   3.529   1.120   3.296  0.5041 -0.2114 -1.6122
21196SOL     OW72555   4.452   3.846   4.421  0.2720  0.3695  0.5400
21196SOL    HW172556   4.357   3.848   4.419  0.2681  1.5718 -1.8638
21196SOL    HW272557   4.475   3.868   4.511 -1.7000 -0.2619  1.2466
21197SOL     OW72558   0.347   2.837   4.172 -0.5011  0.1305  0.4254
21197SOL    HW172559   0.329   2.861   4.262  0.8842  0.5372  0.6089
21197SOL    HW272560   0.261   2.839   4.129 -1.0993  0.4193  1.6024
21198SOL     OW72561   0.186   0.166   8.356 -0.0244 -0.4656 -0.5227
21198SOL    HW172562   0.218   0.089   8.308 -0.6335 -1.2572  0.2902
21198SOL    HW272563   0.170   0.133   8.444  0.6969  0.8537  0.1377
21199SOL     OW72564   6.076   5.878   8.208 -0.1840 -0.8146  0.6129
21199SOL    HW172565   6.102   5.788   8.230  0.0694 -0.7796  0.4489
21199SOL    HW272566   6.011   5.900   8.275 -0.1217 -1.0579  0.7570
21200SOL     OW72567   3.990   0.984   2.962 -0.8575  0.3156  0.3503
21200SOL    HW172568   4.002   0.951   3.051 -0.1170 -1.1215 -0.2547
21200SOL    HW272569   4.061   1.047   2.950 -0.2189 -0.3756  0.3895
21201SOL     OW72570   4.322   5.336  10.561 -0.1259 -0.1329 -0.4057
21201SOL    HW172571   4.360   5.416  10.524 -0.9954  1.3233  1.6515
21201SOL    HW272572   4.241   5.323  10.511 -1.3038  1.8113  0.8630
21202SOL     OW72573  10.309   1.498  10.366  0.3784  0.0751  0.5146
21202SOL    HW172574  10.340   1.413  10.398 -0.4692  0.0069  1.1864
21202SOL    HW272575  10.367   1.518  10.293  1.0675 -0.7316  0.8172
21203SOL     OW72576   7.044   4.831   5.407 -0.1609 -0.5884 -0.2126
21203SOL    HW172577   7.112   4.825   5.474 -0.7731 -0.6847  0.4105
21203SOL    HW272578   7.084   4.794   5.329  0.2348 -1.3956  0.3632
21204SOL     OW72579   9.665  10.965  10.243  0.0548  0.1231 -0.5878
21204SOL    HW172580   9.697  11.055  10.252  3.0332 -1.0072  2.0130
21204SOL    HW272581   9.697  10.936  10.158  0.3402  1.0426 -0.8033
21205SOL     OW72582   2.945   4.662   5.127  0.2791 -0.4357 -0.3905
21205SOL    HW172583   3.006   4.600   5.088  0.3567 -0.4414 -0.2560
21205SOL    HW272584   2.890   4.690   5.053  0.4233 -0.4520 -0.5041
21206SOL     OW72585  10.730  10.967   4.615 -0.1800 -0.0557  0.1734
21206SOL    HW172586  10.646  10.945   4.574 -0.7261  0.9706  0.6932
21206SOL    HW272587  10.794  10.960   4.545 -1.0711  1.5552 -0.8721
21207SOL     OW72588   9.911  11.699   4.021 -0.0261 -0.4578  0.4815
21207SOL    HW172589   9.835  11.712   4.077  0.4300  0.4570  0.8913
21207SOL    HW272590   9.879  11.716   3.932  0.2573  2.4341  0.8664
21208SOL     OW72591  10.824  11.572   0.858  0.5410 -0.1771 -0.1412
21208SOL    HW172592  10.894  11.616   0.811  1.4030 -0.6906  0.6184
21208SOL    HW272593  10.869  11.507   0.913 -0.4355  0.1934  1.1634
21209SOL     OW72594   1.536   3.506   3.074  0.5384  0.0335  0.2272
21209SOL    HW172595   1.520   3.427   3.022 -1.4452  0.3462  0.2857
21209SOL    HW272596   1.518   3.480   3.164  0.0596  0.4723  0.2678
21210SOL     OW72597   3.270   8.969   0.210 -0.2065  0.4925  0.1973
21210SOL    HW172598   3.237   8.987   0.298  0.8043  0.8419  0.5145
21210SOL    HW272599   3.213   8.898   0.177 -0.4079  0.1615  1.2348
21211SOL     OW72600   3.151   6.032   2.464 -0.2394  0.0667 -0.3626
21211SOL    HW172601   3.184   5.942   2.462 -1.2837 -0.4047  1.1863
21211SOL    HW272602   3.199   6.077   2.395  0.6693 -1.5552 -0.8460
21212SOL     OW72603   3.743   7.240  12.517 -0.0072 -0.2134 -0.2262
21212SOL    HW172604   3.668   7.254  12.461  0.6203 -0.7899 -1.2426
21212SOL    HW272605   3.797   7.318  12.506  0.0228 -0.2398 -0.2658
21213SOL     OW72606   5.050   8.705   8.235 -0.2184 -0.1698  0.5190
21213SOL    HW172607   5.046   8.792   8.276  0.1495 -0.2259  0.6732
21213SOL    HW272608   4.961   8.690   8.203 -0.0843  0.6442 -0.2819
21214SOL     OW72609   2.567   9.541   1.251  0.1216 -0.3105 -1.1298
21214SOL    HW172610   2.633   9.508   1.190  0.6211  0.4680 -1.0278
21214SOL    HW272611   2.594   9.631   1.268 -2.8767  1.3196 -3.8308
21215SOL     OW72612  11.037   5.889   4.092 -0.5464  0.4161 -0.4720
21215SOL    HW172613  10.970   5.950   4.125  1.1559  1.2506  1.7095
21215SOL    HW272614  11.119   5.936   4.102  0.6049 -1.3678 -1.0467
21216SOL     OW72615   5.120   6.501   9.781 -0.1759 -0.3456 -0.2412
21216SOL    HW172616   5.198   6.450   9.805 -0.6994 -0.8125  0.5073
21216SOL    HW272617   5.117   6.496   9.685  0.2227 -1.0805 -0.2279
21217SOL     OW72618   6.633   2.785   1.916 -0.0282  0.4085 -0.2697
21217SOL    HW172619   6.631   2.881   1.922 -0.5511  0.4457 -0.8643
21217SOL    HW272620   6.572   2.756   1.984 -0.5978  0.5439 -0.7111
21218SOL     OW72621   0.096   0.758  10.369 -0.1674 -0.4478  0.0675
21218SOL    HW172622   0.133   0.673  10.349  0.2480  0.2270 -2.2984
21218SOL    HW272623   0.002   0.747  10.356  0.0067 -0.2644 -1.5795
21219SOL     OW72624   6.309  10.934   3.312  0.0184 -0.1213  0.4356
21219SOL    HW172625   6.240  10.962   3.251  0.4275 -1.9399 -0.9432
21219SOL    HW272626   6.261  10.893   3.384 -0.4099 -1.8450 -0.7616
21220SOL     OW72627   2.976   7.046   1.841 -0.6182 -0.3316 -0.2198
21220SOL    HW172628   2.951   7.125   1.890 -0.4309 -0.4581  0.0874
21220SOL    HW272629   2.993   7.077   1.752 -1.8732 -0.2425 -0.4443
21221SOL     OW72630  11.738   9.246   1.061  0.5776  0.3677 -0.0741
21221SOL    HW172631  11.753   9.265   0.968 -1.4595  0.0518 -0.5303
21221SOL    HW272632  11.817   9.276   1.105  0.7968  2.4110 -1.6806
21222SOL     OW72633   1.934   2.491  12.468 -0.8953 -0.0008 -0.1345
21222SOL    HW172634   2.018   2.482  12.512 -0.3097  0.1520 -1.1872
21222SOL    HW272635   1.914   2.404  12.434 -1.2021 -0.0523  0.1686
21223SOL     OW72636   1.636  10.332  10.917  0.1220 -0.1301 -0.2820
21223SOL    HW172637   1.615  10.241  10.941  0.8549  0.2088  1.8264
21223SOL    HW272638   1.620  10.382  10.997  2.3836  1.1715 -0.5757
21224SOL     OW72639   4.426  10.259   9.423 -0.1809  1.0306 -0.3248
21224SOL    HW172640   4.477  10.208   9.486  0.9616  1.4816 -0.8590
21224SOL    HW272641   4.435  10.212   9.340 -2.0969  0.1625 -0.0790
21225SOL     OW72642   2.745   6.568  10.014  0.3277 -0.0649  0.1680
21225SOL    HW172643   2.791   6.487   9.994 -1.3842 -0.5248 -2.2974
21225SOL    HW272644   2.804   6.638   9.986  0.4486 -0.5705 -0.8606
21226SOL     OW72645  10.754   8.329   3.003 -0.2350 -0.5777 -0.3241
21226SOL    HW172646  10.739   8.242   3.038  2.0076 -0.2740  1.7001
21226SOL    HW272647  10.824   8.317   2.939  1.5467 -0.1269  1.4137
21227SOL     OW72648   4.020   0.451   3.488  0.2372 -0.2642 -0.0316
21227SOL    HW172649   4.024   0.427   3.395  3.4405 -0.1568 -0.0485
21227SOL    HW272650   4.112   0.451   3.516 -0.5778  0.4822  2.9572
21228SOL     OW72651   0.208   0.123   3.258 -0.2075 -0.4340  0.1884
21228SOL    HW172652   0.123   0.146   3.296 -0.2399 -1.0098  0.4756
21228SOL    HW272653   0.247   0.207   3.234 -1.5585 -0.2215 -1.4945
21229SOL     OW72654   6.306   5.126   9.407 -0.1528  0.0420  0.2400
21229SOL    HW172655   6.294   5.105   9.314 -1.4345  2.2138 -0.1554
21229SOL    HW272656   6.221   5.109   9.447 -0.2581  1.1829  0.5412
21230SOL     OW72657  11.677   8.335   6.010  0.0477 -0.1694  0.7021
21230SOL    HW172658  11.634   8.342   6.095 -0.4154 -0.4075  0.4913
21230SOL    HW272659  11.605   8.330   5.947  0.3637 -1.3981  0.4143
21231SOL     OW72660   4.264  11.402  11.037  0.0437 -0.0861 -0.2371
21231SOL    HW172661   4.205  11.369  11.105 -1.3336  1.4292 -0.6397
21231SOL    HW272662   4.295  11.323  10.993 -0.9106 -0.9882  0.6234
21232SOL     OW72663   6.920  11.760   5.481 -0.7746  0.1731 -0.9175
21232SOL    HW172664   6.860  11.812   5.534 -0.5846 -0.7582  0.2500
21232SOL    HW272665   6.910  11.671   5.514  3.2883  0.3260  1.4039
21233SOL     OW72666   3.364   3.344   5.531  0.1302  0.2635 -0.0459
21233SOL    HW172667   3.412   3.419   5.566 -0.8107 -0.1369  2.2569
21233SOL    HW272668   3.280   3.345   5.577 -0.5487 -1.2796 -1.1578
21234SOL     OW72669  11.858   2.120  11.107 -0.0375 -0.4628 -0.0652
21234SOL    HW172670  11.888   2.153  11.192 -0.7165  0.7548 -0.2875
21234SOL    HW272671  11.765   2.102  11.121 -0.0628 -0.6248 -0.4530
21235SOL     OW72672   6.690  12.568  11.286 -0.2881  0.1507  0.4708
21235SOL    HW172673   6.783  12.592  11.291 -0.4728  0.8321  0.7339
21235SOL    HW272674   6.643  12.649  11.305 -0.9219 -0.7185  3.0797
21236SOL     OW72675   0.646   9.784  10.711 -0.1798 -0.9239 -0.8224
21236SOL    HW172676   0.576   9.756  10.771  0.3014  1.2557  0.9066
21236SOL    HW272677   0.604   9.848  10.653  0.0375 -0.7220 -0.7598
21237SOL     OW72678   5.869  10.744   7.848  0.0151  0.2507 -0.7376
21237SOL    HW172679   5.775  10.732   7.861  0.0311 -1.5981 -1.9315
21237SOL    HW272680   5.890  10.686   7.775  1.6089  2.6015 -2.3140
21238SOL     OW72681   1.151   2.654   5.845 -0.3426  0.3868  0.0710
21238SOL    HW172682   1.152   2.709   5.766  0.8939  1.4755  0.8035
21238SOL    HW272683   1.196   2.574   5.819  2.1408  1.6342  0.2125
21239SOL     OW72684   0.222   1.223   9.167 -0.1786 -0.1648  0.1236
21239SOL    HW172685   0.206   1.137   9.205 -0.3072 -0.1129  0.1915
21239SOL    HW272686   0.158   1.231   9.096 -0.3746 -0.0042  0.3156
21240SOL     OW72687  11.968   1.434   9.934  0.0262 -0.1359  0.5386
21240SOL    HW172688  12.022   1.450  10.012 -0.5847  0.7351  0.7964
21240SOL    HW272689  11.893   1.384   9.968 -1.0777  1.6555  0.8414
21241SOL     OW72690  10.168   8.424   5.657 -0.0601 -0.2465  0.1556
21241SOL    HW172691  10.201   8.338   5.683  2.6341  0.1470 -1.5907
21241SOL    HW272692  10.243   8.483   5.666 -0.4065  0.9395 -3.2017
21242SOL     OW72693   8.432   6.420   5.469  0.6013 -0.0836  0.1015
21242SOL    HW172694   8.441   6.492   5.532 -0.2328 -0.3668  0.5660
21242SOL    HW272695   8.467   6.344   5.516 -0.7556 -0.4565  0.5428
21243SOL     OW72696  12.253  12.390   6.789 -0.0441  0.6467  0.2857
21243SOL    HW172697  12.223  12.440   6.865 -0.5201  1.8150 -0.6346
21243SOL    HW272698  12.348  12.382   6.800 -0.1440  0.5914  1.1160
21244SOL     OW72699   9.062   6.243   0.322  0.3086  0.9318  0.3825
21244SOL    HW172700   9.148   6.231   0.362 -0.4207  4.1615  3.5138
21244SOL    HW272701   9.005   6.184   0.371  0.4635 -0.0613 -0.6161
21245SOL     OW72702   9.089   8.083   4.662  0.2618  0.1430 -0.0523
21245SOL    HW172703   9.160   8.091   4.598  0.6358 -0.1647  0.3209
21245SOL    HW272704   9.103   8.155   4.723  0.8589 -0.5215  0.6077
21246SOL     OW72705   8.216  10.499   4.719 -0.0516 -0.2694 -0.7067
21246SOL    HW172706   8.234  10.413   4.756 -0.1097  0.3820  0.9078
21246SOL    HW272707   8.123  10.496   4.696  0.1993 -0.9864 -1.7082
21247SOL     OW72708   0.288   7.659   7.263 -0.2653  0.5887  0.0280
21247SOL    HW172709   0.299   7.755   7.259 -1.5410  0.7284 -0.3573
21247SOL    HW272710   0.263   7.634   7.175  0.6330 -0.1946 -0.0151
21248SOL     OW72711   9.385   8.997   2.878 -0.2314  0.0850 -0.0455
21248SOL    HW172712   9.390   8.971   2.786 -0.2204 -1.1173  0.2757
21248SOL    HW272713   9.296   9.029   2.889 -0.6936 -1.0927 -0.1702
21249SOL     OW72714   8.375   3.349   3.696  0.2594 -0.8381  0.0389
21249SOL    HW172715   8.340   3.325   3.610 -1.4511  1.7154 -0.0894
21249SOL    HW272716   8.304   3.397   3.739  1.9525  0.2137  1.8314
21250SOL     OW72717   4.994  11.802   4.954  0.0526 -0.1720 -0.2050
21250SOL    HW172718   4.970  11.810   4.862 -0.3351 -0.9549 -0.1825
21250SOL    HW272719   5.001  11.892   4.986  1.6621  0.1551 -1.3542
21251SOL     OW72720   8.747   3.951  11.105 -0.0808  0.0983 -0.0557
21251SOL    HW172721   8.833   3.957  11.146 -0.6479  0.3225  1.1424
21251SOL    HW272722   8.746   4.022  11.040 -0.1929  1.6907  1.5807
21252SOL     OW72723   7.408   9.535   2.880  0.0535  0.3158 -0.3595
21252SOL    HW172724   7.350   9.546   2.805 -1.4759 -0.1677  0.6896
21252SOL    HW272725   7.389   9.447   2.913  0.7547  0.4744  0.5238
21253SOL     OW72726   2.814   7.476   3.328  0.0512  0.2421 -0.0324
21253SOL    HW172727   2.857   7.397   3.297 -1.4916 -0.2654 -1.0007
21253SOL    HW272728   2.764   7.508   3.253 -0.4916  1.3356  0.7520
21254SOL     OW72729   3.095   4.529   2.823 -0.6054  0.5365 -0.4292
21254SOL    HW172730   3.058   4.611   2.856 -2.5412 -0.7766  0.8514
21254SOL    HW272731   3.140   4.491   2.898  3.1695  1.8361 -1.8100
21255SOL     OW72732   7.014   9.451   9.407 -0.3052  0.1607  0.1557
21255SOL    HW172733   6.972   9.537   9.400  0.7508  0.6233 -0.7404
21255SOL    HW272734   7.022   9.421   9.316  1.9463  0.4204  0.2300
21256SOL     OW72735  11.927   3.289   2.719 -0.0126 -0.0118  0.4262
21256SOL    HW172736  11.982   3.212   2.734  2.6108  1.4311 -0.8868
21256SOL    HW272737  11.947   3.348   2.792 -1.4000 -0.2259  1.0050
21257SOL     OW72738  11.864   7.157   3.664  0.3633 -0.5124 -0.4807
21257SOL    HW172739  11.881   7.065   3.640 -0.9036 -0.2721 -2.5920
21257SOL    HW272740  11.904   7.207   3.594 -0.9430  0.4259 -0.5906
21258SOL     OW72741   8.991   4.146   7.377  0.0416 -0.1363 -0.1969
21258SOL    HW172742   8.951   4.069   7.418 -1.2089 -0.6523 -2.2324
21258SOL    HW272743   8.918   4.207   7.365  0.3997  0.0954 -1.3487
21259SOL     OW72744   0.165   3.058   3.289 -0.4115  0.1610  0.0443
21259SOL    HW172745   0.177   3.083   3.197 -1.3223  0.6412  0.0464
21259SOL    HW272746   0.194   3.134   3.339  0.6097 -0.3039  0.1868
21260SOL     OW72747   8.458   4.342   9.525  0.1933  0.3999 -0.1672
21260SOL    HW172748   8.456   4.247   9.510  0.2879  0.2418  0.7500
21260SOL    HW272749   8.520   4.375   9.460 -0.8665  0.0339 -1.4299
21261SOL     OW72750   5.167   7.786   1.408  0.3146 -0.2766 -0.1162
21261SOL    HW172751   5.082   7.748   1.428 -0.8017  1.1163 -1.9213
21261SOL    HW272752   5.149   7.857   1.346  2.8705 -0.5207 -1.3072
21262SOL     OW72753   8.204   6.437   0.151  0.0259 -0.4536  0.0224
21262SOL    HW172754   8.180   6.394   0.070 -0.6037  1.5963 -0.9588
21262SOL    HW272755   8.300   6.438   0.151  0.0322 -1.0618 -0.3635
21263SOL     OW72756   7.458   2.261   4.929 -0.1271 -0.0689  0.0967
21263SOL    HW172757   7.448   2.206   5.006 -1.0080  0.1303  0.1453
21263SOL    HW272758   7.508   2.208   4.867 -0.9577 -0.9364  0.1377
21264SOL     OW72759   6.863   3.087   9.193 -0.6189  0.0061 -0.2419
21264SOL    HW172760   6.899   3.025   9.256 -1.0795 -1.7411 -1.6071
21264SOL    HW272761   6.929   3.090   9.123 -1.4503 -0.4523 -1.0706
21265SOL     OW72762  10.765   5.508   0.289 -0.4068  0.0017  0.2828
21265SOL    HW172763  10.766   5.585   0.232  1.9217 -0.8949 -1.0189
21265SOL    HW272764  10.713   5.444   0.241 -0.2541 -0.0503  0.1868
21266SOL     OW72765   0.240  10.268   4.081  0.4702  0.0870  0.4341
21266SOL    HW172766   0.199  10.182   4.094  0.3829  0.3232  1.9715
21266SOL    HW272767   0.322  10.263   4.130  1.7961  0.0035 -1.6921
21267SOL     OW72768  12.552   0.731   4.816 -0.1617 -0.1409  0.5018
21267SOL    HW172769  12.491   0.769   4.879 -0.0348 -0.6017  0.9150
21267SOL    HW272770  12.522   0.762   4.731  0.8797  2.1898  0.9172
21268SOL     OW72771   9.444   9.868  10.914  0.1518  0.5815 -0.7189
21268SOL    HW172772   9.415   9.792  10.864 -3.5319  1.4191 -0.1140
21268SOL    HW272773   9.370   9.928  10.911  1.8222  2.9279  1.3064
21269SOL     OW72774   5.846  10.388   4.016 -0.0771 -0.0333 -0.2488
21269SOL    HW172775   5.879  10.430   3.937 -0.4629  0.4249 -0.1708
21269SOL    HW272776   5.888  10.302   4.017  2.4375  1.1123  0.7260
21270SOL     OW72777   4.389   2.490   2.496  0.3688  0.2335 -0.0905
21270SOL    HW172778   4.341   2.563   2.534  0.1209  1.1057 -1.9459
21270SOL    HW272779   4.462   2.531   2.450 -0.7178 -0.4732 -2.6010
21271SOL     OW72780  11.905   7.246   7.620 -0.1385 -0.3717 -0.2306
21271SOL    HW172781  11.992   7.217   7.593  0.2448 -0.1634  0.7245
21271SOL    HW272782  11.846   7.177   7.589  0.2472 -0.0702 -1.6816
21272SOL     OW72783  12.412   8.981  12.335 -0.4348  0.2998 -1.2960
21272SOL    HW172784  12.416   8.968  12.240 -1.9124  1.8271 -1.6175
21272SOL    HW272785  12.319   8.976  12.355 -0.4368  2.7764 -0.3982
21273SOL     OW72786   4.358  10.883  12.361 -0.6025 -0.7710  0.1064
21273SOL    HW172787   4.319  10.889  12.448 -2.5620  0.4248 -0.7618
21273SOL    HW272788   4.413  10.962  12.354 -1.4494 -0.1887 -0.1568
21274SOL     OW72789  12.163   0.589   5.603  0.1544  0.1976  0.0388
21274SOL    HW172790  12.242   0.601   5.550  0.1339  2.0661  0.3870
21274SOL    HW272791  12.191   0.606   5.693 -0.6912  1.1425  0.1333
21275SOL     OW72792   2.464   6.237   3.916 -0.8166 -0.1017 -0.9240
21275SOL    HW172793   2.509   6.317   3.888  0.7715 -1.2128 -1.6608
21275SOL    HW272794   2.417   6.263   3.996  1.4836  1.0439  0.1396
21276SOL     OW72795  10.328   5.370   0.509 -0.0943  0.0502 -0.3241
21276SOL    HW172796  10.265   5.433   0.476 -1.2697 -0.7936  0.2289
21276SOL    HW272797  10.309   5.289   0.461  2.1559  0.3314 -1.8994
21277SOL     OW72798  12.089   1.040   5.628 -0.1326  0.1205  0.0542
21277SOL    HW172799  12.039   1.036   5.546 -0.3137 -1.2646  0.2014
21277SOL    HW272800  12.023   1.038   5.697  0.0317 -3.4728  0.2939
21278SOL     OW72801   1.153   6.518   3.374 -0.2041  0.1053 -0.4157
21278SOL    HW172802   1.156   6.518   3.278  1.4496  0.6331 -0.3914
21278SOL    HW272803   1.244   6.523   3.401 -0.7068  1.2775  1.1922
21279SOL     OW72804   7.525   5.346   2.045 -0.6335  0.2600  0.0254
21279SOL    HW172805   7.535   5.418   1.983  2.7834  0.3173  0.4759
21279SOL    HW272806   7.561   5.270   2.000 -1.7684 -0.6343  0.5504
21280SOL     OW72807   3.270   7.224  11.186  0.1523 -0.2319  0.2683
21280SOL    HW172808   3.354   7.245  11.226 -0.4783  1.3379  0.8723
21280SOL    HW272809   3.277   7.257  11.096  0.5720 -1.1679 -0.0544
21281SOL     OW72810   7.516  10.037  12.270  0.5700 -0.6507 -0.3697
21281SOL    HW172811   7.597  10.053  12.318  0.6131 -1.5257 -0.1319
21281SOL    HW272812   7.529   9.951  12.229  0.4238 -0.0547 -1.7368
21282SOL     OW72813  12.420   8.848   2.215  1.1107 -0.0351  0.2732
21282SOL    HW172814  12.513   8.858   2.193  1.2104 -1.7352 -0.2727
21282SOL    HW272815  12.402   8.755   2.200 -0.9344  0.4463 -0.6332
21283SOL     OW72816   1.190   1.948   9.140 -0.2305 -0.2427 -0.7800
21283SOL    HW172817   1.137   1.869   9.136 -0.1598 -0.3438  0.1825
21283SOL    HW272818   1.255   1.931   9.208  0.0298  0.4933 -0.8283
21284SOL     OW72819  10.051   3.056   9.024  0.2702 -0.4029  0.3852
21284SOL    HW172820  10.106   3.125   9.061  0.6379  0.4633 -1.6737
21284SOL    HW272821   9.968   3.065   9.071 -0.5731  3.1276 -1.3865
21285SOL     OW72822  11.526   7.510   0.913  0.4683 -0.4287  0.1999
21285SOL    HW172823  11.561   7.465   0.990 -1.0155 -1.4105  0.3587
21285SOL    HW272824  11.531   7.444   0.844 -0.0869 -0.2447 -0.0205
21286SOL     OW72825   0.254   5.970   2.211  0.6114  0.8335 -0.1073
21286SOL    HW172826   0.240   6.049   2.159  0.0749  1.3572  0.8078
21286SOL    HW272827   0.294   6.001   2.292 -1.0020  0.3843  0.9053
21287SOL     OW72828   1.542   6.571   9.800 -0.1334  0.7435 -0.4751
21287SOL    HW172829   1.584   6.601   9.881  0.3634 -0.4286 -0.2902
21287SOL    HW272830   1.448   6.577   9.819 -0.0278 -0.5340  0.5885
21288SOL     OW72831   0.639   5.755   2.633 -0.1402  0.0172  0.0121
21288SOL    HW172832   0.563   5.735   2.688  0.2514  1.6271  1.1963
21288SOL    HW272833   0.711   5.706   2.674  0.1072  1.0491  0.8550
21289SOL     OW72834   1.046   4.947   3.220 -0.2962 -0.3604  0.0843
21289SOL    HW172835   1.068   4.938   3.312 -0.6396  0.9566  0.3134
21289SOL    HW272836   1.091   5.026   3.192 -2.5738  0.9792 -0.0714
21290SOL     OW72837   4.369   6.280   0.413  0.7511  0.3408  0.2502
21290SOL    HW172838   4.460   6.298   0.439  1.2535 -0.5155 -0.8219
21290SOL    HW272839   4.337   6.218   0.479  1.3378 -0.2546 -0.0128
21291SOL     OW72840   6.424   1.639   4.547  0.3078  0.6351  0.1810
21291SOL    HW172841   6.490   1.581   4.586  0.3118  1.6273  1.7571
21291SOL    HW272842   6.349   1.582   4.532  0.7734 -0.0619  0.4029
21292SOL     OW72843  11.757   3.293   5.513 -0.2081 -0.0413  0.6196
21292SOL    HW172844  11.734   3.202   5.492 -0.9583  0.6358 -1.7802
21292SOL    HW272845  11.674   3.333   5.538  0.0526  0.0857  1.2899
21293SOL     OW72846   8.037  10.419   2.812  0.3524 -0.3542 -0.0032
21293SOL    HW172847   8.039  10.472   2.892  1.5216 -0.3423 -0.0226
21293SOL    HW272848   8.093  10.344   2.831  0.7140 -0.3072 -0.8355
21294SOL     OW72849   6.780  10.859   0.691 -0.3235  0.6926 -0.3696
21294SOL    HW172850   6.729  10.820   0.620  0.5151 -0.1845 -0.4959
21294SOL    HW272851   6.765  10.802   0.766  1.0050  0.0200 -0.5902
21295SOL     OW72852   0.235   0.494   7.674 -0.1434  0.0388 -0.2510
21295SOL    HW172853   0.202   0.579   7.646 -0.2054  0.2741  0.5021
21295SOL    HW272854   0.281   0.512   7.756 -1.4405 -0.8653  0.7231
21296SOL     OW72855   4.023   8.137   5.288 -0.5026 -0.5231 -0.0654
21296SOL    HW172856   4.101   8.146   5.234  0.0344  0.8431  0.8669
21296SOL    HW272857   3.950   8.151   5.228  0.1146  3.0280 -0.2027
21297SOL     OW72858  10.752   2.052   7.802 -0.2758 -0.3322 -0.2004
21297SOL    HW172859  10.844   2.027   7.793 -0.1221  0.2538 -0.2826
21297SOL    HW272860  10.732   2.035   7.894 -0.5013 -1.8133 -0.4958
21298SOL     OW72861   1.728   7.248   0.155  0.0938 -0.2114  0.1287
21298SOL    HW172862   1.790   7.307   0.199 -1.0766 -0.1779  1.8323
21298SOL    HW272863   1.720   7.173   0.215 -1.9293  0.0533  0.2591
21299SOL     OW72864   6.614   3.754  10.064  0.3879 -0.2106  0.1618
21299SOL    HW172865   6.574   3.668  10.050 -1.9537  0.6785  0.8872
21299SOL    HW272866   6.620   3.792   9.976  1.4868 -1.1080 -0.1690
21300SOL     OW72867   7.676  10.148   5.523  0.1774  0.1049 -0.0791
21300SOL    HW172868   7.587  10.116   5.531  0.0674 -0.2927 -2.3631
21300SOL    HW272869   7.674  10.206   5.446  1.5621  1.3202  0.7399
21301SOL     OW72870   7.841   0.931  12.197  0.6774 -0.4454 -0.5922
21301SOL    HW172871   7.760   0.960  12.154  0.5462  0.1759  0.0633
21301SOL    HW272872   7.833   0.836  12.201 -1.0486 -0.2928  1.4158
21302SOL     OW72873   7.363   3.301   5.936 -0.1664  0.3646 -0.2112
21302SOL    HW172874   7.435   3.238   5.945  0.0449  0.5265 -0.7518
21302SOL    HW272875   7.381   3.347   5.854 -0.8784  0.4182 -0.3472
21303SOL     OW72876   3.544   9.949   3.315 -0.0357  0.0332  0.0920
21303SOL    HW172877   3.575  10.021   3.370 -0.8913 -0.9687  1.9804
21303SOL    HW272878   3.449   9.962   3.312 -0.0280 -0.0803 -0.9809
21304SOL     OW72879   3.686   0.188   9.128 -0.2519 -0.4477  0.1634
21304SOL    HW172880   3.598   0.194   9.091 -0.5607  1.7154  1.1200
21304SOL    HW272881   3.697   0.095   9.148 -1.9528 -0.8989 -0.8208
21305SOL     OW72882  11.303   9.184   4.033  0.0633 -0.0601  0.0907
21305SOL    HW172883  11.339   9.187   4.121 -1.7024  0.2819  0.8509
21305SOL    HW272884  11.260   9.269   4.021  0.2169 -0.1244 -1.0742
21306SOL     OW72885  10.958   1.613   6.775 -0.0876  0.6892 -0.5460
21306SOL    HW172886  10.984   1.523   6.794 -0.1164  0.8177  0.1494
21306SOL    HW272887  10.996   1.665   6.846 -1.2533  1.0275 -0.1281
21307SOL     OW72888   9.747   5.579  10.065 -0.1117 -0.3225 -0.5810
21307SOL    HW172889   9.835   5.609  10.045 -0.0734 -0.6310 -0.8946
21307SOL    HW272890   9.759   5.490  10.098 -0.3707 -0.7081 -1.4917
21308SOL     OW72891   4.481   7.366   6.240 -0.1171  1.3558  0.4359
21308SOL    HW172892   4.392   7.372   6.206 -0.4726  1.8264  1.3925
21308SOL    HW272893   4.530   7.434   6.193 -0.1762  0.8860 -0.3182
21309SOL     OW72894   2.406  10.999   6.013 -0.2912 -0.5995  0.2298
21309SOL    HW172895   2.413  10.995   5.917 -1.5800 -0.0138  0.0887
21309SOL    HW272896   2.432  11.088   6.035  0.9056 -1.0025  0.5414
21310SOL     OW72897   8.598   8.911   7.288  0.0126 -0.3467  0.4919
21310SOL    HW172898   8.662   8.958   7.341  0.4316  1.6686 -1.6232
21310SOL    HW272899   8.649   8.869   7.220 -0.7696  0.4349 -0.6182
21311SOL     OW72900   1.058   3.718   1.288  0.0661 -0.3067 -0.4713
21311SOL    HW172901   0.971   3.679   1.296  0.6281 -1.6307 -0.5537
21311SOL    HW272902   1.118   3.643   1.281  1.2842  0.5654  0.2193
21312SOL     OW72903   1.256   6.196   5.400 -0.2775  0.4238 -0.1635
21312SOL    HW172904   1.191   6.247   5.448  1.2569  1.6062  0.7431
21312SOL    HW272905   1.204   6.134   5.349 -2.1082  1.3204  0.5033
21313SOL     OW72906   0.368   3.186   6.839 -0.5399 -0.2351  0.1157
21313SOL    HW172907   0.298   3.216   6.781 -0.7409 -0.4136  0.2659
21313SOL    HW272908   0.374   3.254   6.906  0.6324  0.6847 -0.8672
21314SOL     OW72909   9.403   2.890  11.511 -0.5397 -0.3868  0.0510
21314SOL    HW172910   9.312   2.902  11.539  0.2117 -0.8618  3.0418
21314SOL    HW272911   9.451   2.874  11.592  2.1128 -0.9501 -1.5174
21315SOL     OW72912   9.484   2.017   0.618 -0.4448  0.3016  0.6055
21315SOL    HW172913   9.571   2.055   0.618 -0.7809  1.0999  0.6213
21315SOL    HW272914   9.463   2.005   0.711 -1.1959  2.1877  0.7489
21316SOL     OW72915   1.961   1.159   5.924  0.1923  0.8040  0.3210
21316SOL    HW172916   1.962   1.252   5.901 -0.4006  0.7856  0.2121
21316SOL    HW272917   1.872   1.130   5.904  0.5815  0.0299 -0.3576
21317SOL     OW72918  11.487   5.336   8.594  0.1037  0.4236 -0.2925
21317SOL    HW172919  11.413   5.393   8.572 -1.3243 -1.5668 -0.9893
21317SOL    HW272920  11.561   5.374   8.548 -0.5227  2.2868  0.1320
21318SOL     OW72921   2.085  10.758   9.250  0.0603  0.1687  0.0818
21318SOL    HW172922   2.069  10.677   9.202 -0.6944  0.9213 -0.9682
21318SOL    HW272923   2.152  10.735   9.314  0.0279 -1.2212 -0.3607
21319SOL     OW72924   4.457   2.918   3.443  0.3300  0.6976 -0.3395
21319SOL    HW172925   4.445   2.824   3.455  0.1503  0.7313 -0.2605
21319SOL    HW272926   4.369   2.954   3.441  0.3980  0.8655 -0.3669
21320SOL     OW72927  11.762   7.897   5.600  0.0898  0.3578 -0.0780
21320SOL    HW172928  11.709   7.977   5.598 -0.0726  0.2434 -0.3837
21320SOL    HW272929  11.706   7.830   5.559  0.2921  0.1286  0.0185
21321SOL     OW72930  12.356  10.066   0.892  0.0154  0.0684 -0.4051
21321SOL    HW172931  12.432  10.013   0.867  0.0089 -0.8485  1.3337
21321SOL    HW272932  12.389  10.125   0.960 -0.9477 -0.8763  0.9424
21322SOL     OW72933   6.329   7.523   9.270  0.4809  0.2506 -0.4696
21322SOL    HW172934   6.363   7.525   9.181  1.6364  0.6082 -0.0401
21322SOL    HW272935   6.269   7.597   9.275  0.4342  0.2440 -0.9379
21323SOL     OW72936   1.658  10.485   9.138 -0.5648  0.7424 -0.3197
21323SOL    HW172937   1.699  10.527   9.062  0.1576 -0.7839 -0.8014
21323SOL    HW272938   1.679  10.542   9.211  0.9876  0.8842 -0.8400
21324SOL     OW72939   0.958   8.186   2.586  0.3370  0.3124  0.0655
21324SOL    HW172940   1.037   8.213   2.633  2.7451 -0.7969 -2.9858
21324SOL    HW272941   0.911   8.268   2.570  1.8157  1.2793  0.4236
21325SOL     OW72942   2.663   2.465   1.327  0.2852 -0.2686 -0.0967
21325SOL    HW172943   2.648   2.540   1.269 -1.9691 -0.1262  0.5861
21325SOL    HW272944   2.681   2.392   1.267 -1.7219 -0.0602 -1.0451
21326SOL     OW72945  12.314   5.616   5.132  0.2960  0.3684  0.0218
21326SOL    HW172946  12.361   5.688   5.174  1.1913 -2.1314  3.8506
21326SOL    HW272947  12.377   5.579   5.071  2.0709 -0.5052  2.2222
21327SOL     OW72948   7.950  11.171   3.528  0.1261  0.2808 -0.0237
21327SOL    HW172949   7.997  11.146   3.608  0.3883  0.4916 -0.1087
21327SOL    HW272950   7.895  11.244   3.556  0.9462  1.0052 -0.2449
21328SOL     OW72951   1.347   6.184   7.937 -0.7187 -0.1248 -0.1076
21328SOL    HW172952   1.302   6.197   8.021 -0.3058 -1.5239  0.3575
21328SOL    HW272953   1.320   6.258   7.884 -3.5246 -0.8277  0.1777
21329SOL     OW72954   4.078  11.634   8.608 -0.1191  0.1748  0.2150
21329SOL    HW172955   4.148  11.601   8.664  0.1867 -0.9501 -0.8114
21329SOL    HW272956   4.108  11.720   8.580  0.5134  0.0050  0.3606
21330SOL     OW72957   0.644   8.050  12.284  0.7429  0.1049 -0.0814
21330SOL    HW172958   0.709   8.021  12.219 -0.5161  0.8549 -1.7624
21330SOL    HW272959   0.696   8.093  12.352  2.0814 -0.1722 -0.8823
21331SOL     OW72960   3.485  10.925   1.611  0.4494 -0.2528 -0.2610
21331SOL    HW172961   3.537  10.915   1.531 -0.4385  0.9741 -1.0289
21331SOL    HW272962   3.514  11.008   1.647  0.1816 -0.3587  0.1987
21332SOL     OW72963   9.060  11.688   0.703  0.6091  0.4279  0.3040
21332SOL    HW172964   9.046  11.748   0.777  1.7817  0.3283  0.6323
21332SOL    HW272965   9.108  11.614   0.741 -2.5351 -1.7813  0.3683
21333SOL     OW72966   5.852   8.533   5.428  0.4991 -0.7730  0.3057
21333SOL    HW172967   5.865   8.619   5.388  0.7748 -1.1425 -0.4109
21333SOL    HW272968   5.834   8.553   5.520 -0.6073  0.1102 -0.0711
21334SOL     OW72969   7.468   6.667   3.690 -0.1098 -0.3003  0.2916
21334SOL    HW172970   7.486   6.629   3.604 -1.1185 -0.3306  0.0830
21334SOL    HW272971   7.508   6.754   3.687  0.2886 -0.4924 -0.0234
21335SOL     OW72972   9.781   8.206   3.466 -0.5192 -0.0551  0.1645
21335SOL    HW172973   9.711   8.269   3.448 -0.0629 -0.0808 -1.9608
21335SOL    HW272974   9.736   8.127   3.494 -1.1200  1.0605  2.6898
21336SOL     OW72975   2.629   3.060   3.977  0.0808 -0.5726  0.4325
21336SOL    HW172976   2.540   3.072   3.944 -0.5734  0.4919  2.4209
21336SOL    HW272977   2.634   2.967   4.001 -0.1178 -0.8736 -0.6463
21337SOL     OW72978  12.178   9.419   5.086  0.6131 -0.2616  0.0071
21337SOL    HW172979  12.263   9.445   5.122  0.4577  0.6269 -0.2279
21337SOL    HW272980  12.191   9.329   5.055  0.7587 -1.0652  2.2208
21338SOL     OW72981   9.813   7.522   7.699 -0.3455  0.0792  0.0632
21338SOL    HW172982   9.837   7.558   7.784 -1.0738  0.7185  0.0072
21338SOL    HW272983   9.844   7.432   7.702  0.0606  0.2358  0.8263
21339SOL     OW72984   7.558   3.049   2.609 -0.4585 -0.0849 -0.6814
21339SOL    HW172985   7.534   3.027   2.519 -0.1702 -0.2261 -0.7264
21339SOL    HW272986   7.645   3.087   2.602  0.2341 -1.5307 -0.3030
21340SOL     OW72987   8.863   7.480   2.342  0.1852  0.3194  0.4666
21340SOL    HW172988   8.768   7.471   2.329  0.4719 -1.0377 -1.0468
21340SOL    HW272989   8.877   7.573   2.356 -1.2543  0.7066 -0.4443
21341SOL     OW72990   7.593   6.269   5.624 -0.0148  0.1759  0.4103
21341SOL    HW172991   7.621   6.356   5.598 -1.7922  0.4633 -0.7455
21341SOL    HW272992   7.667   6.212   5.602  0.3641  1.0999 -0.8456
21342SOL     OW72993   4.685  10.915   4.133 -0.0084  0.2140 -0.1056
21342SOL    HW172994   4.647  10.936   4.218  1.2366 -0.1834  0.5716
21342SOL    HW272995   4.652  10.828   4.112 -1.0647  0.6959 -0.4840
21343SOL     OW72996   7.163  12.245   2.372  0.4101  0.8158 -0.2455
21343SOL    HW172997   7.254  12.219   2.359  0.3691  1.2470 -1.4881
21343SOL    HW272998   7.153  12.326   2.322 -0.9906  0.0853 -1.2105
21344SOL     OW72999   1.902   6.307   5.191  0.0895  0.0638 -0.1460
21344SOL    HW173000   1.963   6.274   5.125  0.1319  0.1702 -0.1597
21344SOL    HW273001   1.890   6.399   5.169 -0.2172 -0.0028 -0.2525
21345SOL     OW73002   4.448   0.512   9.908  0.7389 -0.1450  0.2433
21345SOL    HW173003   4.458   0.504   9.813 -0.4776 -0.0110  0.0907
21345SOL    HW273004   4.491   0.435   9.943  1.3999 -0.0803 -0.3989
21346SOL     OW73005   0.470   8.450   0.672 -0.7806 -0.0412  0.1273
21346SOL    HW173006   0.459   8.376   0.731 -0.2332  1.1612  1.8150
21346SOL    HW273007   0.563   8.447   0.648 -1.1074 -0.8123 -1.1040
21347SOL     OW73008   2.796   8.984  11.681  0.2091 -0.8725 -0.1775
21347SOL    HW173009   2.804   8.922  11.609 -0.1589 -0.2691 -0.7531
21347SOL    HW273010   2.812   9.070  11.641 -2.0625 -0.3000  0.0067
21348SOL     OW73011   9.179   8.671   1.939 -1.1755  0.0568 -0.0235
21348SOL    HW173012   9.197   8.752   1.890  0.3352  0.0134  0.4200
21348SOL    HW273013   9.160   8.606   1.871  1.9670 -0.2781 -0.7716
21349SOL     OW73014   6.693   8.048  11.327 -0.0947 -0.5639  0.0838
21349SOL    HW173015   6.735   7.964  11.310  0.1198 -0.5513  0.5333
21349SOL    HW273016   6.669   8.081  11.241  1.4636 -0.2278 -0.2556
21350SOL     OW73017   7.843  12.324   8.554 -0.2770  0.4368 -0.1943
21350SOL    HW173018   7.847  12.236   8.592 -1.8515 -0.1167 -1.1956
21350SOL    HW273019   7.897  12.378   8.612  0.2145 -1.0544  0.7966
21351SOL     OW73020   6.485   9.711   2.792  0.2633  0.3438 -0.1223
21351SOL    HW173021   6.556   9.673   2.740 -0.4841 -0.4754 -0.5628
21351SOL    HW273022   6.420   9.738   2.727 -0.2180  0.2714  0.3279
21352SOL     OW73023  12.144   8.279   8.760  0.1203  0.2411  0.5259
21352SOL    HW173024  12.149   8.195   8.715  0.2298  0.5261 -0.0059
21352SOL    HW273025  12.180   8.262   8.847 -0.4256 -0.4018  0.6416
21353SOL     OW73026   9.046  12.125   6.283  0.1655  0.0922 -0.5193
21353SOL    HW173027   9.085  12.194   6.335 -0.2036  0.0945 -0.2387
21353SOL    HW273028   8.958  12.157   6.262  0.3310  0.1177 -1.1959
21354SOL     OW73029   1.339   5.371   2.432  0.0493  0.6311  0.0784
21354SOL    HW173030   1.305   5.284   2.412 -1.6794  1.0360  1.0085
21354SOL    HW273031   1.318   5.384   2.525  1.1978  1.6462  0.2175
21355SOL     OW73032   9.094   0.126   2.873  0.1409  0.2197  0.0143
21355SOL    HW173033   9.039   0.203   2.857 -0.0512  0.2753  0.8844
21355SOL    HW273034   9.135   0.143   2.958  2.3521  0.6675 -1.0719
21356SOL     OW73035   8.919   9.411   1.236  0.2637  0.2328  0.2746
21356SOL    HW173036   8.824   9.399   1.239  0.3026 -0.1920 -0.1034
21356SOL    HW273037   8.937   9.472   1.308 -0.3984  1.0421 -0.2162
21357SOL     OW73038   6.634  11.442  11.052  0.6318 -0.0054  0.3930
21357SOL    HW173039   6.664  11.533  11.049  0.1182  0.1613 -1.6583
21357SOL    HW273040   6.565  11.441  11.117  0.8324  1.0205  0.6328
21358SOL     OW73041   2.099   7.505   4.900  0.1028  0.0070  0.3627
21358SOL    HW173042   2.177   7.452   4.915 -0.4236 -0.3213  2.3862
21358SOL    HW273043   2.078   7.493   4.808  1.8130 -0.7483  0.0366
21359SOL     OW73044   5.439  10.589  10.002 -0.4702 -0.1188 -0.2555
21359SOL    HW173045   5.446  10.501   9.965 -0.2976 -0.2686  0.1376
21359SOL    HW273046   5.525  10.607  10.038 -0.5559  0.1456 -0.1801
21360SOL     OW73047   6.362   6.219   7.606 -0.0561  0.3179  0.2712
21360SOL    HW173048   6.281   6.177   7.578 -0.9251  1.4202  0.9986
21360SOL    HW273049   6.334   6.306   7.636  1.3089  0.4961  1.1147
21361SOL     OW73050   7.112   8.235   5.231 -0.2934 -0.6464 -0.5984
21361SOL    HW173051   7.121   8.186   5.313 -1.6363  0.6834  0.3993
21361SOL    HW273052   7.019   8.228   5.209 -0.7182  1.9913  0.0021
21362SOL     OW73053   3.709   8.245   3.563 -0.0528  0.5620  0.1749
21362SOL    HW173054   3.689   8.226   3.471 -0.1064 -1.3177  0.5284
21362SOL    HW273055   3.645   8.194   3.612 -2.1135  3.9496  1.3365
21363SOL     OW73056  12.580   3.984  11.670  0.3090  0.8171  0.1341
21363SOL    HW173057  12.626   3.966  11.588  1.5324  1.9377  0.5475
21363SOL    HW273058  12.559   4.077  11.665 -1.2096  0.5107  0.3323
21364SOL     OW73059  11.309  12.583   8.160  0.7948  0.4334  0.6734
21364SOL    HW173060  11.375  12.562   8.094  0.0406 -0.7953  0.2739
21364SOL    HW273061  11.325  12.675   8.183  0.4103  1.2587 -2.0146
21365SOL     OW73062   5.815   4.071   4.813  0.3246 -0.2444 -0.1502
21365SOL    HW173063   5.828   4.034   4.901  0.7265 -1.4702 -0.6975
21365SOL    HW273064   5.881   4.139   4.805 -1.2722  1.6090  1.3830
21366SOL     OW73065   7.014   3.095   3.580  1.1520  0.4932  0.1536
21366SOL    HW173066   6.964   3.145   3.645  0.7887 -1.0792  1.1500
21366SOL    HW273067   7.070   3.037   3.632  1.5335 -0.1563 -0.9467
21367SOL     OW73068  11.068   5.783   9.203 -0.1490  0.5413  0.1123
21367SOL    HW173069  11.022   5.843   9.144 -0.4222 -0.8434 -1.1414
21367SOL    HW273070  11.153   5.770   9.162 -0.1320 -0.0023  0.3229
21368SOL     OW73071   5.673   7.183   1.003 -0.6967  0.2353 -0.4903
21368SOL    HW173072   5.649   7.253   1.064 -2.2701 -2.2308  1.9212
21368SOL    HW273073   5.596   7.173   0.947 -0.8571 -0.2378 -0.1813
21369SOL     OW73074   2.417   8.515   7.854 -0.6474 -0.1031  0.3393
21369SOL    HW173075   2.427   8.447   7.788  0.0636  0.9100 -0.6485
21369SOL    HW273076   2.367   8.584   7.810  2.5748  2.0248 -0.3779
21370SOL     OW73077   5.841   6.614   7.041 -0.1250  0.1434  0.1990
21370SOL    HW173078   5.747   6.622   7.057 -0.3818  0.0182 -1.1240
21370SOL    HW273079   5.866   6.533   7.085 -1.1268 -1.0726 -1.3540
21371SOL     OW73080   9.624  10.333   9.268 -0.1829 -0.3985  0.2100
21371SOL    HW173081   9.578  10.334   9.185 -0.1947 -0.2499  0.2186
21371SOL    HW273082   9.711  10.298   9.248 -0.5963 -1.5471  0.3538
21372SOL     OW73083  10.911   3.427   1.208  0.0451 -0.0568 -0.1721
21372SOL    HW173084  11.006   3.426   1.221 -0.0219  0.2533  0.3919
21372SOL    HW273085  10.895   3.362   1.140  0.6721 -0.0462 -0.3356
21373SOL     OW73086   6.564   5.103   7.403  0.0460  0.2920  0.6387
21373SOL    HW173087   6.596   5.054   7.479 -2.0412 -1.7164  0.3282
21373SOL    HW273088   6.470   5.114   7.419 -0.2368  0.8144 -1.1488
21374SOL     OW73089   2.726   0.896  10.978  0.2582 -0.0694 -0.0392
21374SOL    HW173090   2.652   0.841  10.953 -0.2201  0.7328 -0.4180
21374SOL    HW273091   2.800   0.859  10.931 -0.1992  0.0543 -0.8634
21375SOL     OW73092  12.301  11.348   4.611  0.1241  0.3583  0.2980
21375SOL    HW173093  12.221  11.316   4.569  0.1552  0.0909  0.4387
21375SOL    HW273094  12.276  11.432   4.650 -0.0076  0.4189  0.0829
21376SOL     OW73095   8.324   4.093   2.720 -0.3258  0.2346 -0.0084
21376SOL    HW173096   8.365   4.022   2.671  0.9613 -0.3665  1.8777
21376SOL    HW273097   8.309   4.161   2.654 -0.6581 -1.3519 -1.6555
21377SOL     OW73098   0.885   7.134   0.765  0.3641  0.5252  0.2238
21377SOL    HW173099   0.931   7.155   0.684 -0.6306  1.3107 -0.1486
21377SOL    HW273100   0.913   7.044   0.785  1.4688  0.7126 -0.3808
21378SOL     OW73101   5.422   4.771  11.319 -0.2356 -0.5887  0.5920
21378SOL    HW173102   5.328   4.752  11.308 -0.3052 -0.4043  0.8564
21378SOL    HW273103   5.428   4.811  11.406  0.3982 -2.6351  1.5620
21379SOL     OW73104   2.693   9.801  10.010 -0.2737  0.0172  0.2874
21379SOL    HW173105   2.764   9.751   9.970 -0.1857  0.3718 -0.0088
21379SOL    HW273106   2.616   9.781   9.956 -0.0284  0.9605 -0.4446
21380SOL     OW73107   6.970   3.183   0.789  0.1332  0.2015  0.1853
21380SOL    HW173108   7.050   3.234   0.799 -0.1259  0.4758  0.9519
21380SOL    HW273109   6.993   3.113   0.728  1.2155 -0.2533  1.0938
21381SOL     OW73110   9.636  11.646   2.007  0.1180 -0.2159 -0.0400
21381SOL    HW173111   9.669  11.731   2.034 -0.8823  0.2091 -0.0860
21381SOL    HW273112   9.683  11.626   1.926  2.1949 -0.9099  1.2571
21382SOL     OW73113   2.659  11.183   5.678 -0.0137 -0.0624  0.2964
21382SOL    HW173114   2.667  11.173   5.583  1.6664 -0.7913  0.4604
21382SOL    HW273115   2.572  11.151   5.699  0.0004 -0.9355 -0.8930
21383SOL     OW73116   9.606  12.221  11.144  0.7884  0.2289 -0.0042
21383SOL    HW173117   9.629  12.128  11.147  1.1438  0.3355  0.8167
21383SOL    HW273118   9.516  12.224  11.178 -0.2140 -0.0816 -2.3784
21384SOL     OW73119   7.716   9.327   9.085 -0.8696 -0.1392 -0.0753
21384SOL    HW173120   7.703   9.235   9.107 -1.0682 -0.2634 -0.6775
21384SOL    HW273121   7.628   9.361   9.071 -0.7633 -0.0452 -0.5525
21385SOL     OW73122  10.259   9.551   6.990 -0.2630 -0.0927 -0.1124
21385SOL    HW173123  10.242   9.457   6.977  0.4134 -0.0762 -1.2787
21385SOL    HW273124  10.354   9.557   6.999 -0.4341  0.2960  1.8704
21386SOL     OW73125   1.270   6.440   1.623  0.3744  0.2764  0.0945
21386SOL    HW173126   1.340   6.477   1.569  1.2084 -0.6925  0.4906
21386SOL    HW273127   1.257   6.352   1.588 -0.3819  0.3120  0.2768
21387SOL     OW73128   4.418  10.284   8.430  0.0076 -0.2219  0.5593
21387SOL    HW173129   4.332  10.308   8.464  0.3479  2.2391 -0.1756
21387SOL    HW273130   4.477  10.291   8.505 -0.0046  0.7487  0.4880
21388SOL     OW73131   7.559   0.865   7.600  0.2136  0.1808 -0.2893
21388SOL    HW173132   7.484   0.808   7.585  0.1355  0.3299 -0.4641
21388SOL    HW273133   7.606   0.824   7.673 -1.5234  1.5327  1.7083
21389SOL     OW73134   3.987   7.131   3.604  0.3712  0.3113 -0.1525
21389SOL    HW173135   4.067   7.079   3.608 -0.3411 -0.7488  1.2690
21389SOL    HW273136   3.920   7.068   3.577  0.0488  1.2751 -1.7423
21390SOL     OW73137  10.869   6.322   6.728  0.0599  0.5690  0.8461
21390SOL    HW173138  10.783   6.300   6.693  0.9380  0.1125 -1.1645
21390SOL    HW273139  10.890   6.249   6.786  0.6887 -1.4389 -1.6990
21391SOL     OW73140   1.976   8.772  11.941 -0.0631  0.3910  0.3067
21391SOL    HW173141   1.982   8.867  11.933 -2.1370  0.4827 -1.0122
21391SOL    HW273142   1.896   8.749  11.893  0.5831 -2.0624  0.2738
21392SOL     OW73143   0.109   5.699   9.070 -0.4790  0.3597 -0.0616
21392SOL    HW173144   0.089   5.653   8.988  0.6933  0.1984 -0.2697
21392SOL    HW273145   0.075   5.640   9.138  0.2329 -0.4229 -0.3614
21393SOL     OW73146  10.929   3.347  11.137 -0.1364  0.0754  0.0544
21393SOL    HW173147  10.889   3.402  11.070 -1.2125 -0.7469 -0.0020
21393SOL    HW273148  10.891   3.260  11.123 -1.2904  0.1184  2.4387
21394SOL     OW73149   1.920   9.323   8.920  0.2333  0.2501  0.0144
21394SOL    HW173150   1.847   9.384   8.929 -0.1887 -0.4655  2.0072
21394SOL    HW273151   1.998   9.376   8.934 -0.0157  0.6784 -0.2118
21395SOL     OW73152   7.835  12.155   9.437 -0.6682 -0.3783 -0.6232
21395SOL    HW173153   7.809  12.078   9.488 -1.1544 -1.4201 -2.3498
21395SOL    HW273154   7.787  12.228   9.476  0.0798 -0.8571  1.2800
21396SOL     OW73155   1.079   8.430   9.422 -0.5273 -0.3403  0.8042
21396SOL    HW173156   1.123   8.481   9.490  0.4310  2.2573 -1.5346
21396SOL    HW273157   1.138   8.357   9.404  0.2986  0.1965  1.2642
21397SOL     OW73158  12.032  10.478  11.411  0.5866 -0.1523  0.7178
21397SOL    HW173159  11.975  10.424  11.356  2.3904 -2.0584  0.6352
21397SOL    HW273160  12.080  10.416  11.465  3.4056  1.2510  0.0156
21398SOL     OW73161   1.839   8.146   4.868  0.1314 -0.2777  0.0811
21398SOL    HW173162   1.865   8.096   4.945 -0.7652  0.9113  1.1812
21398SOL    HW273163   1.915   8.142   4.810  0.1239 -2.8334  0.1417
21399SOL     OW73164   3.505   1.660   1.880  0.1154  0.1558 -0.4629
21399SOL    HW173165   3.539   1.747   1.900 -1.0821  0.6489 -0.5262
21399SOL    HW273166   3.507   1.654   1.785 -0.0261  0.2109 -0.4698
21400SOL     OW73167   0.771   3.311  10.551 -0.0332  0.1172  0.2397
21400SOL    HW173168   0.839   3.250  10.521 -0.2816 -0.5653  1.0199
21400SOL    HW273169   0.755   3.286  10.642 -2.1689 -0.5484 -0.2380
21401SOL     OW73170   1.886  11.864   2.638 -0.3888  0.3248  0.3316
21401SOL    HW173171   1.950  11.867   2.709  0.3862  1.7005 -0.3892
21401SOL    HW273172   1.876  11.955   2.610 -1.9223  0.0135 -0.2409
21402SOL     OW73173   8.100   1.773   1.088  0.2568  0.4803 -0.1820
21402SOL    HW173174   8.033   1.758   1.022  0.5561 -0.0339 -0.3721
21402SOL    HW273175   8.134   1.686   1.108  0.2551  0.6434  0.5577
21403SOL     OW73176   1.669   2.537   4.006  0.3075  0.1160  0.0176
21403SOL    HW173177   1.598   2.472   4.013 -0.2822  0.6803 -0.6588
21403SOL    HW273178   1.744   2.494   4.048  0.1662 -1.3463 -1.1247
21404SOL     OW73179   0.158   7.039   9.716 -0.2269 -0.6091 -0.0014
21404SOL    HW173180   0.124   7.122   9.747  0.5259 -0.3474  0.1546
21404SOL    HW273181   0.097   7.011   9.648 -2.6871 -1.8321  2.5356
21405SOL     OW73182   5.193  12.264   5.138  0.4338  0.3461  0.3197
21405SOL    HW173183   5.101  12.250   5.116 -0.3795  1.2379  2.7330
21405SOL    HW273184   5.198  12.245   5.232  2.2462  2.2657  0.6918
21406SOL     OW73185  10.047   8.733  11.984 -0.1269 -0.1787 -0.4380
21406SOL    HW173186   9.997   8.790  12.042  2.5458  0.8563  1.0410
21406SOL    HW273187  10.085   8.793  11.919 -0.4596 -0.8629 -1.2688
21407SOL     OW73188   7.031  11.855   0.845  0.1388  0.0360 -0.6858
21407SOL    HW173189   7.038  11.925   0.910  0.8720 -1.0177  0.4162
21407SOL    HW273190   7.073  11.890   0.767  1.6972  0.3775  0.2691
21408SOL     OW73191   3.702   1.182   4.701  0.0111 -0.4811  0.3947
21408SOL    HW173192   3.635   1.251   4.701  0.5524  0.0636  1.1777
21408SOL    HW273193   3.686   1.133   4.620 -0.3899  0.5632 -0.1792
21409SOL     OW73194   5.369  10.982   7.663  0.2368 -0.4165 -0.7404
21409SOL    HW173195   5.451  10.989   7.614  0.9229 -1.0240  0.2727
21409SOL    HW273196   5.388  11.024   7.747  0.5839 -3.3141  0.7469
21410SOL     OW73197  10.595   2.767   1.639  0.1411  0.1144 -0.0617
21410SOL    HW173198  10.681   2.741   1.606  0.8066  2.3165 -0.1893
21410SOL    HW273199  10.594   2.738   1.730  1.0502  0.1587 -0.0325
21411SOL     OW73200   1.799  12.570  10.555  0.2996 -0.0674  0.0206
21411SOL    HW173201   1.708  12.548  10.533 -0.7616  2.8878  0.9786
21411SOL    HW273202   1.843  12.486  10.561 -1.9444 -1.5395 -2.1522
21412SOL     OW73203   9.778  10.278   0.186 -0.8294 -0.3301 -0.6601
21412SOL    HW173204   9.855  10.239   0.227 -0.0959  0.7948 -0.9447
21412SOL    HW273205   9.747  10.210   0.126  1.0637 -0.1203 -1.9621
21413SOL     OW73206   0.540   1.203   9.978 -0.0280 -0.4643  0.3762
21413SOL    HW173207   0.488   1.273  10.018  0.2555  0.6056 -1.0087
21413SOL    HW273208   0.627   1.242   9.969  0.2144 -1.1150 -0.1334
21414SOL     OW73209   2.792   0.635   4.932  0.1113  0.0409 -0.4235
21414SOL    HW173210   2.832   0.560   4.888 -0.2424 -0.5925  0.3087
21414SOL    HW273211   2.739   0.677   4.864  0.9905  0.1386 -1.0652
21415SOL     OW73212   0.373   1.589   8.154  0.7045  0.4031  0.1364
21415SOL    HW173213   0.277   1.583   8.151  0.6670  0.6614  0.8879
21415SOL    HW273214   0.398   1.603   8.062 -0.1646  3.1676  0.2370
21416SOL     OW73215   3.452   2.501   6.553  0.2860 -0.5659 -0.4162
21416SOL    HW173216   3.469   2.457   6.470  1.4524 -2.8044  0.9035
21416SOL    HW273217   3.539   2.520   6.588 -0.1822  0.3518  0.2764
21417SOL     OW73218   4.239   1.106   0.418 -0.2316  0.0756  0.2743
21417SOL    HW173219   4.146   1.120   0.430 -0.3539  0.2623 -0.8158
21417SOL    HW273220   4.277   1.120   0.505 -1.3673 -1.4084  1.0549
21418SOL     OW73221   4.247   7.400   6.104  0.1051  0.1295  0.2808
21418SOL    HW173222   4.166   7.353   6.125  0.8551 -0.8588  1.0892
21418SOL    HW273223   4.220   7.471   6.045 -1.0003 -1.5517 -1.3162
21419SOL     OW73224   7.399   5.743   6.529 -0.3116  0.2688  0.3556
21419SOL    HW173225   7.353   5.692   6.463  0.0169 -0.2201  0.5035
21419SOL    HW273226   7.426   5.679   6.595 -0.7463  0.7638  1.0319
21420SOL     OW73227  10.160  11.146  12.007  0.4193 -0.4460  0.2400
21420SOL    HW173228  10.214  11.079  12.050  0.9112 -0.1371  0.1099
21420SOL    HW273229  10.200  11.155  11.920  1.2630  1.0726  0.7620
21421SOL     OW73230   7.805  12.550   7.232  0.3313  0.0790 -0.1739
21421SOL    HW173231   7.770  12.567   7.145  0.4725 -0.3798 -0.3218
21421SOL    HW273232   7.760  12.470   7.261  2.1783 -1.2761 -0.8902
21422SOL     OW73233   1.062  11.556   8.371 -0.4768  0.1842 -0.2628
21422SOL    HW173234   1.044  11.500   8.295  1.1342  2.3738 -2.4423
21422SOL    HW273235   1.147  11.527   8.403 -0.2607  0.5053 -0.5416
21423SOL     OW73236  11.920   7.996  12.316  0.0294  0.3893  0.1946
21423SOL    HW173237  12.009   7.987  12.350  1.0159  1.9002 -1.7375
21423SOL    HW273238  11.867   7.939  12.372  2.0187  0.1955  2.0479
21424SOL     OW73239   4.872   7.634   1.259 -0.4110  0.1611 -0.2872
21424SOL    HW173240   4.959   7.598   1.241 -0.7444  0.6770 -3.8058
21424SOL    HW273241   4.871   7.718   1.213 -3.1323 -0.4430 -1.5836
21425SOL     OW73242   6.223   7.058   6.336 -0.0484 -0.1406  0.3792
21425SOL    HW173243   6.174   7.008   6.401  0.4075 -0.0321  0.8125
21425SOL    HW273244   6.158   7.080   6.269  0.3286 -4.3842 -1.7522
21426SOL     OW73245  10.229   7.639  11.038 -0.0977 -0.9391 -0.4373
21426SOL    HW173246  10.236   7.553  11.081  1.2895 -0.4138  0.4583
21426SOL    HW273247  10.314   7.679  11.052 -1.2806  1.3376  0.7838
21427SOL     OW73248   3.407   1.843   3.070  0.2114 -0.0566  0.7877
21427SOL    HW173249   3.368   1.919   3.026  0.3760 -0.6250 -0.3639
21427SOL    HW273250   3.483   1.820   3.016 -0.6374 -1.9087  0.2937
21428SOL     OW73251  12.177   2.867  12.274 -0.0010 -0.2684  0.2300
21428SOL    HW173252  12.152   2.915  12.353  0.4537 -2.1947  1.6382
21428SOL    HW273253  12.168   2.930  12.203 -2.3664  0.9972  1.5343
21429SOL     OW73254   4.409  11.276   4.514  0.4286 -0.3584 -0.2410
21429SOL    HW173255   4.471  11.309   4.449  1.5508 -1.3883  0.2708
21429SOL    HW273256   4.460  11.269   4.595 -0.8799  0.7229  0.7478
21430SOL     OW73257   3.690  11.482   7.280  0.0224  0.0518 -0.0790
21430SOL    HW173258   3.606  11.450   7.246 -0.0713  1.3878 -1.1801
21430SOL    HW273259   3.668  11.517   7.367 -0.7133  0.9689 -0.6094
21431SOL     OW73260   4.853  11.322   0.245 -0.0894  0.2643 -0.0022
21431SOL    HW173261   4.825  11.370   0.324  0.4755 -0.5676  0.7200
21431SOL    HW273262   4.949  11.326   0.247 -0.0054 -1.3391  0.3722
21432SOL     OW73263   7.676   8.507   4.531  0.3449 -0.0607 -0.7350
21432SOL    HW173264   7.623   8.583   4.556 -2.7463 -1.9217 -1.1343
21432SOL    HW273265   7.764   8.528   4.563 -0.5219  3.2914 -0.1276
21433SOL     OW73266  11.577   1.031   4.326 -0.0556 -0.3898 -0.7966
21433SOL    HW173267  11.631   1.095   4.372  0.3563 -0.9322 -0.5006
21433SOL    HW273268  11.491   1.040   4.366  0.0092 -0.0547 -0.7286
21434SOL     OW73269   5.071   1.773   2.028 -0.1374 -0.1588 -0.2980
21434SOL    HW173270   5.116   1.812   2.102  0.3092  1.1082 -1.1992
21434SOL    HW273271   5.140   1.758   1.963 -0.2364 -2.7268  0.0567
21435SOL     OW73272   0.452   4.025   1.926 -0.3428  0.3527  0.2670
21435SOL    HW173273   0.431   3.932   1.924 -0.4861  0.3518  1.3178
21435SOL    HW273274   0.373   4.067   1.960 -0.7425  1.0173 -1.3912
21436SOL     OW73275   2.573   9.785   2.479 -0.0918  0.2778 -0.6605
21436SOL    HW173276   2.667   9.790   2.493 -0.0717 -1.9156  0.3830
21436SOL    HW273277   2.549   9.696   2.505 -2.7603  1.3762  1.0640
21437SOL     OW73278  11.963  11.760   6.692  0.3902 -0.2934 -0.3223
21437SOL    HW173279  12.036  11.758   6.754  0.4628  0.9497 -0.3474
21437SOL    HW273280  11.954  11.853   6.669  0.0856 -0.6757 -1.8278
21438SOL     OW73281   9.757   5.657   2.760 -0.7846  0.1812 -0.6451
21438SOL    HW173282   9.711   5.737   2.735  0.5299  0.3388 -2.8582
21438SOL    HW273283   9.744   5.597   2.687  0.2555 -0.7545 -0.1096
21439SOL     OW73284   2.729  11.664   2.406  0.2056  0.0751  0.4409
21439SOL    HW173285   2.791  11.612   2.457  0.3505 -0.7488 -0.5300
21439SOL    HW273286   2.772  11.676   2.321 -0.6236  0.1677  0.0211
21440SOL     OW73287  10.164   5.515   0.342  0.1441  0.1748 -0.1059
21440SOL    HW173288  10.176   5.608   0.320  2.5227 -0.0932 -0.1263
21440SOL    HW273289  10.105   5.516   0.418 -1.5951  1.5425 -1.3924
21441SOL     OW73290   3.850   3.998   8.485  0.3345  0.6629  0.2399
21441SOL    HW173291   3.767   3.986   8.530 -0.5443  1.2333 -1.1505
21441SOL    HW273292   3.913   4.015   8.554 -0.4480 -1.0250  1.4357
21442SOL     OW73293   9.046   9.855   1.504  0.3324 -0.1015  0.6967
21442SOL    HW173294   9.003   9.797   1.566 -0.2089 -0.1986  0.2412
21442SOL    HW273295   9.025   9.818   1.418 -2.7944  2.5025  0.1433
21443SOL     OW73296   3.516   0.496   0.378  0.1332 -0.0269 -0.1278
21443SOL    HW173297   3.431   0.521   0.341  0.8438  0.9619 -1.1373
21443SOL    HW273298   3.538   0.569   0.437  0.5893  0.0444 -0.3854
21444SOL     OW73299   7.502   9.488   4.089 -0.3869  0.1314  0.2392
21444SOL    HW173300   7.536   9.404   4.059 -0.4524 -0.0732  0.7276
21444SOL    HW273301   7.555   9.554   4.045  1.0326 -0.1755  1.4067
21445SOL     OW73302  10.307   6.195   4.345 -0.2259 -0.1450 -0.1616
21445SOL    HW173303  10.306   6.158   4.433  1.5019  2.9765  1.3406
21445SOL    HW273304  10.400   6.201   4.323 -0.6082 -0.3654 -2.0390
21446SOL     OW73305  11.408   3.353   8.894  0.0864  0.1011 -0.1289
21446SOL    HW173306  11.458   3.433   8.884  0.5138 -0.3133 -1.6041
21446SOL    HW273307  11.427   3.323   8.983  1.6950  0.4611 -0.3316
21447SOL     OW73308   2.084   8.859   1.681 -0.0819  0.0543 -0.3935
21447SOL    HW173309   2.132   8.904   1.750  0.1901  0.4780 -0.8593
21447SOL    HW273310   2.148   8.844   1.612 -0.4743  0.0898 -0.7733
21448SOL     OW73311   1.365   4.709   1.304  0.1977  0.5304 -0.5566
21448SOL    HW173312   1.453   4.698   1.267  0.8437  0.8239  0.8185
21448SOL    HW273313   1.380   4.747   1.391 -1.2723  0.2153 -0.1295
21449SOL     OW73314   8.114   7.206   3.606  0.5806 -0.3344 -0.0350
21449SOL    HW173315   8.068   7.225   3.525  1.1723 -2.4816 -0.9527
21449SOL    HW273316   8.063   7.135   3.646  0.9043 -0.0406  0.9233
21450SOL     OW73317   0.285   1.373   3.634 -0.0339  0.7903  0.6415
21450SOL    HW173318   0.232   1.294   3.650  0.2293  0.6594  0.8699
21450SOL    HW273319   0.223   1.435   3.597 -0.2767  0.5222  0.5879
21451SOL     OW73320  12.264   9.553   5.632  0.5999  0.0045  0.1210
21451SOL    HW173321  12.314   9.573   5.711 -0.8370 -0.0565  1.0927
21451SOL    HW273322  12.263   9.457   5.628  0.8128  0.0103 -0.0577
21452SOL     OW73323   4.068   9.755   0.006  0.2414 -0.5308  0.2698
21452SOL    HW173324   3.974   9.745   0.021 -0.4602  1.2454 -2.1648
21452SOL    HW273325   4.088   9.843   0.039 -0.0492  0.9348 -3.0522
21453SOL     OW73326   0.018  11.166   2.707  0.2387 -0.1769  0.1028
21453SOL    HW173327  -0.027  11.147   2.789 -0.2221  0.0179 -0.1038
21453SOL    HW273328   0.090  11.102   2.704  0.6173  0.1919  0.9371
21454SOL     OW73329   6.095   2.092   0.685  0.2931 -0.1419 -0.3935
21454SOL    HW173330   6.025   2.120   0.745  0.9423  1.3404 -0.2711
21454SOL    HW273331   6.049   2.052   0.611 -0.7625  1.3760 -0.6161
21455SOL     OW73332   9.642   1.215  11.864  0.0976 -0.3806  0.0575
21455SOL    HW173333   9.610   1.127  11.882  0.0130 -0.1537  1.0563
21455SOL    HW273334   9.730   1.218  11.903 -0.0312  0.0755  0.3254
21456SOL     OW73335   2.902  11.278   3.656  0.3034 -0.2641 -0.0429
21456SOL    HW173336   2.881  11.363   3.695  1.5912  0.7615 -1.4372
21456SOL    HW273337   2.928  11.223   3.729 -0.2172  0.6384  0.8529
21457SOL     OW73338  10.797   3.109   2.817 -0.3249  0.2209  0.2946
21457SOL    HW173339  10.889   3.136   2.818 -0.4027  0.8814 -2.4487
21457SOL    HW273340  10.798   3.021   2.779 -0.7772 -0.1733  1.1639
21458SOL     OW73341   6.001   1.780   6.225  0.1175 -0.2017  0.1519
21458SOL    HW173342   6.082   1.728   6.227 -0.9542 -1.9992 -0.7681
21458SOL    HW273343   6.026   1.864   6.263  1.7716 -1.6105  2.4612
21459SOL     OW73344   8.353  10.969   8.632  0.3336  0.7086 -0.8320
21459SOL    HW173345   8.324  11.057   8.658  0.6263  0.7376 -0.6060
21459SOL    HW273346   8.438  10.958   8.674 -0.8760 -0.7533  1.4673
21460SOL     OW73347   9.104   4.120   3.745 -0.4142 -0.2702  0.0180
21460SOL    HW173348   9.051   4.040   3.749 -1.4886  0.2071 -2.6470
21460SOL    HW273349   9.040   4.190   3.732  0.6705  0.7129 -0.1050
21461SOL     OW73350  11.669   9.430   5.911 -0.1013 -0.1923  0.4842
21461SOL    HW173351  11.762   9.429   5.889 -0.3132  0.4619 -0.4896
21461SOL    HW273352  11.661   9.496   5.980 -0.2803  2.2603 -1.7071
21462SOL     OW73353   5.988   8.271   0.782  0.0274 -0.1478  0.2829
21462SOL    HW173354   5.964   8.218   0.706  2.1712  2.0016 -2.1192
21462SOL    HW273355   6.009   8.207   0.850 -4.9499 -2.1767  0.3290
21463SOL     OW73356   3.166   0.496   8.234  0.2568 -0.1012 -0.1554
21463SOL    HW173357   3.255   0.518   8.208  1.1609 -0.7657  2.1523
21463SOL    HW273358   3.169   0.404   8.258 -2.2045 -1.5847 -4.3778
21464SOL     OW73359   8.346   0.544   2.187 -0.6272 -0.7260  0.2076
21464SOL    HW173360   8.266   0.540   2.238 -0.9770  0.6463 -0.1992
21464SOL    HW273361   8.416   0.542   2.253 -1.0806  3.7645  1.1082
21465SOL     OW73362   5.632  11.521  12.488 -0.0600  0.4455 -0.4878
21465SOL    HW173363   5.644  11.465  12.412  0.4677  0.2802 -0.2914
21465SOL    HW273364   5.539  11.544  12.488 -0.4347 -1.0042 -0.1682
21466SOL     OW73365  10.977   3.381   3.519  0.2114 -0.4342  0.5743
21466SOL    HW173366  10.923   3.449   3.479  1.3522  0.0772 -0.1339
21466SOL    HW273367  10.998   3.322   3.447  0.0253 -1.0060  0.9892
21467SOL     OW73368   3.792   9.521   1.020  0.6091 -0.2969 -0.0629
21467SOL    HW173369   3.763   9.541   0.932 -0.5037 -0.1048  0.3338
21467SOL    HW273370   3.774   9.601   1.070  1.1939 -0.4106  0.3501
21468SOL     OW73371   0.787   3.976   0.216  0.2520  0.3022 -0.1801
21468SOL    HW173372   0.809   4.014   0.301 -1.2112 -0.2933  0.4902
21468SOL    HW273373   0.697   3.948   0.225 -0.4879  1.6735 -2.4472
21469SOL     OW73374   9.703  12.520   9.190  0.1944 -0.5013  0.1097
21469SOL    HW173375   9.693  12.494   9.281 -2.2535  1.8401  0.6539
21469SOL    HW273376   9.744  12.607   9.193 -0.1850 -0.2616 -0.9650
21470SOL     OW73377   4.446   1.628   5.177  0.2542  0.1024  0.0263
21470SOL    HW173378   4.523   1.653   5.125  0.0909 -0.2720 -0.4071
21470SOL    HW273379   4.423   1.707   5.224  0.7173  0.3099 -0.0826
21471SOL     OW73380   7.885   6.677   1.719  0.3145 -0.5957 -0.2931
21471SOL    HW173381   7.894   6.601   1.777  0.6963  0.1920  0.7069
21471SOL    HW273382   7.956   6.735   1.745  0.7471 -0.3926 -1.8529
21472SOL     OW73383  11.561   4.432   4.698 -0.6694  0.0265  0.0557
21472SOL    HW173384  11.592   4.453   4.609 -0.8710  0.2721  0.0432
21472SOL    HW273385  11.625   4.473   4.756 -1.1891  0.8833  0.0340
21473SOL     OW73386   7.637   6.410   2.677  0.5767  0.0741  0.2522
21473SOL    HW173387   7.545   6.386   2.684  1.0471 -1.7171  0.9082
21473SOL    HW273388   7.653   6.420   2.583 -0.0521 -0.6872  0.0511
21474SOL     OW73389  11.710  10.588  12.016 -0.4663 -0.1959 -0.2220
21474SOL    HW173390  11.793  10.567  11.974 -0.6504 -1.0183 -0.1915
21474SOL    HW273391  11.703  10.683  12.011  0.7454 -0.0651  0.2821
21475SOL     OW73392   1.113   9.082   0.120 -0.0597 -0.4974  0.1360
21475SOL    HW173393   1.045   9.130   0.166 -0.1966 -0.1711 -0.3955
21475SOL    HW273394   1.068   9.007   0.080  0.3879 -1.8857  2.1116
21476SOL     OW73395   2.586   1.722   5.233  0.0154 -0.0189 -0.4309
21476SOL    HW173396   2.637   1.802   5.227 -1.5618  1.1579  1.0176
21476SOL    HW273397   2.495   1.750   5.227 -0.6541 -1.4487  1.8046
21477SOL     OW73398   9.844   8.567  10.207 -0.0779  0.2082  0.4486
21477SOL    HW173399   9.802   8.585  10.291  1.0069 -0.7103  1.2168
21477SOL    HW273400   9.829   8.473  10.192 -1.2490  0.5773 -0.9751
21478SOL     OW73401  11.763   4.199   8.306 -0.4599  0.1164  0.4881
21478SOL    HW173402  11.680   4.187   8.352 -0.9062 -0.6548 -0.4540
21478SOL    HW273403  11.805   4.113   8.310  1.0528  0.9055  2.3197
21479SOL     OW73404   0.304  10.068  10.218 -0.7646 -0.2232 -0.7572
21479SOL    HW173405   0.237  10.092  10.282  0.4360 -0.8171  0.7816
21479SOL    HW273406   0.269   9.990  10.175 -0.6550 -1.1794  0.7897
21480SOL     OW73407   8.007  12.298  11.493  0.4398  0.4157  0.5004
21480SOL    HW173408   7.974  12.375  11.539 -0.0995  2.1021 -2.4297
21480SOL    HW273409   7.931  12.264  11.445  1.0204 -1.0642  0.5808
21481SOL     OW73410   8.691   8.919   3.553 -0.3974 -0.4913 -0.3456
21481SOL    HW173411   8.674   9.012   3.544  0.5940 -0.3440 -0.8206
21481SOL    HW273412   8.710   8.907   3.646  3.7926  0.6164 -0.8313
21482SOL     OW73413   7.391   3.353   6.552 -0.2843  0.2151 -0.1069
21482SOL    HW173414   7.331   3.427   6.546 -1.5021 -0.7160  0.2509
21482SOL    HW273415   7.351   3.294   6.616  0.1227 -1.2392 -1.1312
21483SOL     OW73416   3.507   0.226  12.202  0.1927  0.5755  0.0276
21483SOL    HW173417   3.461   0.170  12.265  2.0529 -1.1022 -0.0326
21483SOL    HW273418   3.507   0.176  12.120  2.1838  0.4668  0.0573
21484SOL     OW73419   9.218  12.432   0.204  0.1184  0.1663 -0.5746
21484SOL    HW173420   9.262  12.473   0.129  1.6661  0.6172  0.5292
21484SOL    HW273421   9.180  12.351   0.169  1.8413 -0.2345 -1.6067
21485SOL     OW73422  11.395   6.990   8.592 -0.2560  0.1261  0.2046
21485SOL    HW173423  11.310   7.012   8.631 -0.1000  1.9672 -0.4027
21485SOL    HW273424  11.400   7.043   8.513  0.9197 -0.9479 -0.4931
21486SOL     OW73425   5.070   9.228   7.544 -0.5749 -0.1612  0.7281
21486SOL    HW173426   5.142   9.164   7.539  0.0302  0.3939  1.9274
21486SOL    HW273427   5.114   9.313   7.543 -1.4682  0.3988 -2.9716
21487SOL     OW73428   9.723   5.301   4.926 -0.5030  0.0614  0.6753
21487SOL    HW173429   9.669   5.223   4.914  0.2648 -0.1984 -1.4900
21487SOL    HW273430   9.768   5.287   5.010  0.6104 -2.4791 -0.2446
21488SOL     OW73431   3.087  11.151   3.491  0.4655 -0.1422 -0.6605
21488SOL    HW173432   3.011  11.174   3.544  0.4388  0.1532 -0.8247
21488SOL    HW273433   3.157  11.207   3.524  1.1182 -1.6844  0.7430
21489SOL     OW73434   2.887   6.470   5.826 -0.2373  0.5185  0.3062
21489SOL    HW173435   2.903   6.561   5.850 -0.8383  0.5990  0.4145
21489SOL    HW273436   2.831   6.474   5.749  0.3752  0.2421 -0.1602
21490SOL     OW73437  11.125   9.033   1.099 -0.3038  0.0488 -0.1518
21490SOL    HW173438  11.062   8.974   1.140 -0.6812  0.5746  0.0441
21490SOL    HW273439  11.073   9.110   1.075  0.0203 -0.0195 -1.1257
21491SOL     OW73440   1.477   6.221  11.928  0.4451 -0.1202  0.1127
21491SOL    HW173441   1.437   6.141  11.964 -0.4494  1.0320  1.8269
21491SOL    HW273442   1.405   6.283  11.922  1.1765  0.6576 -0.9550
21492SOL     OW73443   2.540  10.744   0.858  0.3107 -0.2280  0.0971
21492SOL    HW173444   2.460  10.761   0.908 -0.4986 -0.1795 -1.1835
21492SOL    HW273445   2.523  10.662   0.813  0.6037  0.2569 -0.9227
21493SOL     OW73446  11.347   5.033   1.350  0.2202 -0.0149  0.6464
21493SOL    HW173447  11.432   5.016   1.392  0.7820  1.9617  0.3895
21493SOL    HW273448  11.322   5.120   1.381 -1.1764 -0.0864 -0.2057
21494SOL     OW73449   4.245   2.743   5.071 -0.0528  0.0274  0.3603
21494SOL    HW173450   4.155   2.772   5.054 -0.2947 -0.2322  1.1547
21494SOL    HW273451   4.236   2.663   5.122  0.5890  1.5109  3.0135
21495SOL     OW73452   4.556  10.665   9.918 -0.4647 -0.0380  0.0378
21495SOL    HW173453   4.535  10.724   9.990  0.0023  1.2014 -0.8049
21495SOL    HW273454   4.507  10.700   9.843  1.4952  0.6340 -1.0078
21496SOL     OW73455   7.875   9.742   1.515 -0.7328 -0.3132 -0.3768
21496SOL    HW173456   7.878   9.684   1.591 -1.2007 -0.6966 -0.6402
21496SOL    HW273457   7.896   9.829   1.549  1.8040 -0.8937 -0.2484
21497SOL     OW73458   6.888   3.609   1.735 -0.4522  0.1145 -0.1126
21497SOL    HW173459   6.946   3.683   1.752  1.4929 -1.8686  2.7603
21497SOL    HW273460   6.925   3.566   1.658  0.4272  0.2651  0.2193
21498SOL     OW73461   9.319   0.254   8.388 -0.2515 -0.0678  0.0147
21498SOL    HW173462   9.413   0.270   8.380  0.0646 -1.6682  0.3165
21498SOL    HW273463   9.302   0.253   8.482 -0.4240 -0.5928 -0.0209
21499SOL     OW73464  11.304   2.319   9.872  0.3351 -0.5429 -0.1538
21499SOL    HW173465  11.241   2.377   9.831 -0.3781 -1.4785 -0.4248
21499SOL    HW273466  11.317   2.355   9.960 -1.3399 -0.8749  0.2565
21500SOL     OW73467   3.157   5.811   1.773  0.4167 -0.5436 -0.1184
21500SOL    HW173468   3.223   5.788   1.839  0.6631  0.5795  0.0589
21500SOL    HW273469   3.162   5.907   1.768 -1.4118 -0.3959  0.1342
21501SOL     OW73470   4.045   4.349  10.243  0.3499 -0.5422  0.7599
21501SOL    HW173471   4.098   4.395  10.308  2.2306 -1.6702  0.1260
21501SOL    HW273472   4.061   4.397  10.162 -2.0084  0.8751  1.0501
21502SOL     OW73473  10.604   5.086   6.414  0.0987 -0.2926 -0.3968
21502SOL    HW173474  10.617   4.993   6.432 -1.9999 -0.1689  2.3695
21502SOL    HW273475  10.509   5.098   6.416  0.2496  1.7471 -1.8802
21503SOL     OW73476  11.957   7.677   5.496 -0.0921  0.2087  0.1845
21503SOL    HW173477  11.948   7.722   5.412 -1.2681  1.3978  0.9106
21503SOL    HW273478  11.970   7.747   5.560 -0.8187 -0.5411  1.1995
21504SOL     OW73479   0.271  10.479  12.494  0.1738 -0.5319  0.2867
21504SOL    HW173480   0.214  10.417  12.448 -1.2640  2.4901 -2.3832
21504SOL    HW273481   0.226  10.495  12.577 -1.0095 -0.8581 -0.2708
21505SOL     OW73482   4.011  11.810   2.024  0.2696  0.4404 -0.1961
21505SOL    HW173483   4.011  11.717   2.001 -0.0856  0.6993 -1.3112
21505SOL    HW273484   3.964  11.852   1.952  0.8407  1.5388  0.0579
21506SOL     OW73485   3.725   9.904   9.244 -0.3386  0.1438  0.4123
21506SOL    HW173486   3.721   9.830   9.304 -0.8883 -1.6395 -1.6679
21506SOL    HW273487   3.815   9.935   9.249  0.3794 -1.7601  0.1664
21507SOL     OW73488   9.764   0.987   8.422 -0.2252  0.3995  0.6238
21507SOL    HW173489   9.702   0.934   8.372 -0.5369  1.0618  0.3021
21507SOL    HW273490   9.813   0.923   8.474 -0.8336 -0.1769  0.5097
21508SOL     OW73491   6.903   9.280  10.785 -0.1175 -0.4271 -0.0384
21508SOL    HW173492   6.902   9.297  10.880  1.3356  0.9295 -0.2298
21508SOL    HW273493   6.971   9.338  10.751  0.3012 -1.8533 -1.7583
21509SOL     OW73494   6.428   2.377   5.770  0.1985 -0.0631 -0.1298
21509SOL    HW173495   6.420   2.454   5.715 -1.0847  1.3683  1.9290
21509SOL    HW273496   6.339   2.358   5.799  0.8766 -0.3226  1.9658
21510SOL     OW73497   1.386   9.698   1.915  0.0357 -0.4665 -0.6590
21510SOL    HW173498   1.386   9.605   1.890 -0.3905 -0.6089 -0.1458
21510SOL    HW273499   1.378   9.697   2.010  0.6336  0.0923 -0.6012
21511SOL     OW73500   9.601   0.534   1.134 -0.2888  0.2541 -0.1907
21511SOL    HW173501   9.689   0.500   1.150 -0.6392 -1.1643 -1.0542
21511SOL    HW273502   9.605   0.567   1.044  0.3054  3.5536  0.9111
21512SOL     OW73503   8.223   5.649   4.185  0.5153  0.5117  0.0477
21512SOL    HW173504   8.188   5.722   4.134  1.1358  1.2011  0.5932
21512SOL    HW273505   8.305   5.682   4.222  1.2638 -0.7509 -0.4192
21513SOL     OW73506   5.739   9.421  12.285 -0.2340  0.2776  0.7916
21513SOL    HW173507   5.656   9.399  12.327  0.8926 -0.7590  2.5827
21513SOL    HW273508   5.806   9.398  12.349  1.4860  0.6167 -0.7839
21514SOL     OW73509   7.639   4.390  11.995 -0.1873  0.1689 -0.4251
21514SOL    HW173510   7.596   4.421  12.075 -0.1308  0.9148 -0.6739
21514SOL    HW273511   7.730   4.375  12.021 -0.2096  0.2442 -0.3001
21515SOL     OW73512   1.250  10.936   5.600  0.3410  0.2865 -0.4887
21515SOL    HW173513   1.303  10.875   5.651  0.9946  0.3959 -1.0196
21515SOL    HW273514   1.307  11.011   5.584 -0.8336  1.6302  1.2006
21516SOL     OW73515   2.571  11.870   3.705 -0.3261 -0.6710  0.5662
21516SOL    HW173516   2.500  11.831   3.653  1.6955 -0.8508 -2.2997
21516SOL    HW273517   2.651  11.839   3.662  1.4877  0.7373  2.7316
21517SOL     OW73518   1.722  10.063   0.563  0.0803  0.2840 -0.5170
21517SOL    HW173519   1.782   9.997   0.596 -1.2635 -0.4682  0.5194
21517SOL    HW273520   1.739  10.141   0.616  0.5769  0.2805 -0.6694
21518SOL     OW73521   4.556   0.139  12.158  0.4427  0.3048 -0.3102
21518SOL    HW173522   4.553   0.224  12.114  1.8315 -0.7695 -2.6792
21518SOL    HW273523   4.638   0.100  12.128 -0.4739 -2.1504  0.1474
21519SOL     OW73524   0.915   2.334  11.540  0.3578 -0.0445  0.6109
21519SOL    HW173525   0.982   2.390  11.580 -0.0288  1.9920 -1.4001
21519SOL    HW273526   0.950   2.246  11.547  1.3949  0.4754  3.1501
21520SOL     OW73527   8.521   3.122   7.964 -0.1208 -0.5087 -0.0652
21520SOL    HW173528   8.444   3.108   7.909 -2.2349  1.5196  2.0998
21520SOL    HW273529   8.592   3.077   7.919 -2.6185 -2.7936 -2.0137
21521SOL     OW73530   8.284   5.528   6.762  0.2290 -0.0871 -0.1093
21521SOL    HW173531   8.299   5.452   6.706 -1.7764 -0.0944 -0.6943
21521SOL    HW273532   8.287   5.493   6.851  0.2711 -0.6730 -0.3365
21522SOL     OW73533   6.505   4.752   0.981 -0.1708 -0.0270  0.4262
21522SOL    HW173534   6.581   4.694   0.991  0.6065  1.0029  0.7518
21522SOL    HW273535   6.522   4.799   0.899 -1.4307 -1.1387 -0.5165
21523SOL     OW73536  10.384   1.952   0.499 -0.3908  0.3703 -0.4496
21523SOL    HW173537  10.471   1.974   0.468 -0.1223 -0.2119 -0.1110
21523SOL    HW273538  10.398   1.892   0.572 -1.1085 -0.5935 -1.0794
21524SOL     OW73539  10.420   3.341   8.456 -0.1643 -1.2356 -0.4053
21524SOL    HW173540  10.505   3.369   8.422 -0.8304  0.1945 -0.9679
21524SOL    HW273541  10.369   3.321   8.378 -0.4855 -1.7065 -0.0815
21525SOL     OW73542   0.946   8.372   6.358  0.2918  0.3200 -0.1744
21525SOL    HW173543   0.884   8.416   6.417 -1.1362 -0.8533 -0.7334
21525SOL    HW273544   0.985   8.303   6.412 -0.6951 -0.4742 -0.4362
21526SOL     OW73545   2.247   5.167   0.480  0.3331  0.6383  0.0935
21526SOL    HW173546   2.326   5.139   0.527 -0.8510 -0.9482  1.2162
21526SOL    HW273547   2.280   5.198   0.396  2.1187 -0.4311  0.3402
21527SOL     OW73548   4.208   7.970   7.255  0.4211 -0.3023  0.3789
21527SOL    HW173549   4.191   8.064   7.244  0.9251 -0.2688 -0.2250
21527SOL    HW273550   4.286   7.954   7.202  1.6799 -0.6263  2.2373
21528SOL     OW73551  11.243   3.272   7.441  0.0147  0.3967 -0.0175
21528SOL    HW173552  11.248   3.180   7.413 -0.4475  0.4593 -0.3215
21528SOL    HW273553  11.301   3.277   7.517  0.3395 -0.0594 -0.2309
21529SOL     OW73554   0.343   9.849   9.705  0.4489  0.2454 -0.7082
21529SOL    HW173555   0.403   9.913   9.743  1.0607 -0.4687 -0.4597
21529SOL    HW273556   0.304   9.895   9.630 -0.0723  1.3447  0.2006
21530SOL     OW73557   5.938   2.578   5.289  0.4192  0.2301  0.1543
21530SOL    HW173558   5.964   2.662   5.251  0.9969 -0.4946 -1.1163
21530SOL    HW273559   5.866   2.599   5.348  1.1350  1.7332  0.5416
21531SOL     OW73560  11.022  10.064   2.714  0.1723 -0.3166 -0.6307
21531SOL    HW173561  11.017   9.976   2.677 -2.8379 -1.2192  1.5532
21531SOL    HW273562  10.954  10.114   2.668  0.0337  0.0752 -0.0145
21532SOL     OW73563   7.026   2.357   9.022  0.4947  0.7667  0.1058
21532SOL    HW173564   7.072   2.363   8.939 -0.6433  1.6187 -0.4886
21532SOL    HW273565   7.020   2.263   9.040 -0.1494  0.5071 -1.3118
21533SOL     OW73566   0.111   6.360   8.879  0.1340 -0.2632 -0.1504
21533SOL    HW173567   0.140   6.375   8.789  0.3544  0.1281 -0.0161
21533SOL    HW273568   0.132   6.441   8.925 -0.1298 -0.3989  0.2174
21534SOL     OW73569   6.776   8.885   6.515 -0.4613 -0.6696  0.0310
21534SOL    HW173570   6.835   8.954   6.487  0.9137 -2.2142 -1.1255
21534SOL    HW273571   6.690   8.910   6.481 -0.7982  2.0698  2.5216
21535SOL     OW73572   6.159   5.079   0.220  0.0857  0.2604 -0.1031
21535SOL    HW173573   6.183   5.086   0.312  1.8908 -0.9769 -0.4213
21535SOL    HW273574   6.187   5.162   0.181  1.0138  0.0770  0.1459
21536SOL     OW73575  12.582   7.237   8.383  0.7390 -0.6982 -0.2055
21536SOL    HW173576  12.527   7.195   8.316  0.3174 -1.0560  0.3646
21536SOL    HW273577  12.544   7.324   8.394  0.4384 -0.8548  0.0033
21537SOL     OW73578   1.342   7.202  11.159  0.4179 -0.0512 -0.8077
21537SOL    HW173579   1.367   7.286  11.122  1.0550  0.5164  0.8090
21537SOL    HW273580   1.285   7.225  11.233 -1.0099 -1.1396 -1.5055
21538SOL     OW73581   9.456   5.235  11.323 -0.8521 -0.0288  0.4285
21538SOL    HW173582   9.495   5.294  11.259  2.6991 -1.2129  1.3065
21538SOL    HW273583   9.427   5.292  11.394 -1.7491  0.9769 -0.6947
21539SOL     OW73584   0.310   7.823   3.162  0.1967  0.3227  0.3556
21539SOL    HW173585   0.219   7.848   3.150  0.0813  0.8167  2.0108
21539SOL    HW273586   0.323   7.750   3.102 -1.3165  0.1564  0.1947
21540SOL     OW73587   3.102  12.172   4.066 -0.5555 -0.6038 -0.1865
21540SOL    HW173588   3.035  12.221   4.018  0.2373 -1.1278 -1.9137
21540SOL    HW273589   3.149  12.238   4.116 -2.2678 -0.2094  1.0040
21541SOL     OW73590   7.315  11.236   9.041 -0.0558 -0.2559 -0.4641
21541SOL    HW173591   7.220  11.227   9.048 -0.1132 -0.5227 -1.3684
21541SOL    HW273592   7.342  11.163   8.985  0.4976  0.5995 -1.3601
21542SOL     OW73593   5.922  11.579   0.129 -0.0788  0.0363 -0.1035
21542SOL    HW173594   5.878  11.552   0.209  0.7982 -1.6713 -0.1451
21542SOL    HW273595   5.928  11.674   0.135  1.8184 -0.1386  2.8682
21543SOL     OW73596   9.621   4.192   8.699  0.3534 -0.1255 -0.2433
21543SOL    HW173597   9.571   4.273   8.689  1.0494  0.3657  0.0809
21543SOL    HW273598   9.563   4.123   8.670 -0.2043  0.5137 -0.6648
21544SOL     OW73599  11.369  12.594   9.868 -0.1301  0.3876 -0.2226
21544SOL    HW173600  11.423  12.593   9.790 -2.5924  2.0198 -2.1046
21544SOL    HW273601  11.293  12.541   9.845 -0.9961  1.0430  0.9979
21545SOL     OW73602   4.357   0.071   7.252 -0.0072  0.1940  0.3149
21545SOL    HW173603   4.316  -0.015   7.250 -0.3042  0.3454 -0.9057
21545SOL    HW273604   4.284   0.131   7.270 -0.1778  0.3747 -0.9189
21546SOL     OW73605  10.378   6.613   9.975 -0.3310  0.5066  0.2442
21546SOL    HW173606  10.324   6.665   9.915 -0.0244  0.6348  0.0753
21546SOL    HW273607  10.435   6.562   9.917 -0.7611 -0.1717  0.3998
21547SOL     OW73608   4.226   5.949  10.161  0.2493  0.0688  0.1747
21547SOL    HW173609   4.287   5.885  10.126 -0.6829 -0.0006 -1.4423
21547SOL    HW273610   4.208   5.920  10.251 -0.1564 -1.9512 -0.5190
21548SOL     OW73611   9.208   4.630   2.123  0.1096 -0.4719 -0.1336
21548SOL    HW173612   9.265   4.650   2.050 -0.4909 -1.9318 -1.0440
21548SOL    HW273613   9.123   4.667   2.099  0.1573 -0.0463  0.3186
21549SOL     OW73614   3.670   1.498   8.331 -0.3834 -0.5802 -0.1283
21549SOL    HW173615   3.625   1.475   8.249 -0.2169 -0.1315 -0.3501
21549SOL    HW273616   3.649   1.427   8.391  0.7596 -1.7117 -1.0315
21550SOL     OW73617   4.747   6.392   2.235 -0.3666  1.1648  0.3516
21550SOL    HW173618   4.780   6.478   2.210  0.3051  1.1907  1.2353
21550SOL    HW273619   4.670   6.378   2.181  0.3758  1.6785 -0.8672
21551SOL     OW73620   4.824   6.674   0.140 -0.4639 -0.4427  0.0822
21551SOL    HW173621   4.848   6.751   0.192  3.3223 -1.2469 -0.1978
21551SOL    HW273622   4.790   6.612   0.204  1.9576 -0.5808  1.3691
21552SOL     OW73623  11.645   0.417   2.532  0.0116  0.2087 -0.4157
21552SOL    HW173624  11.655   0.369   2.613 -0.5683  0.9074  0.0810
21552SOL    HW273625  11.706   0.375   2.471  1.5688  0.6300  0.8002
21553SOL     OW73626   8.983   1.939  10.734 -0.2365 -0.1971  0.4708
21553SOL    HW173627   9.078   1.933  10.722 -0.3073  0.4930 -0.5178
21553SOL    HW273628   8.958   2.019  10.689 -1.3135 -0.4372  0.6192
21554SOL     OW73629   9.543   4.037   9.716 -0.0835  0.0563 -0.4054
21554SOL    HW173630   9.610   3.997   9.770 -1.3975  0.8133  1.9472
21554SOL    HW273631   9.552   4.131   9.732 -2.9461  0.1092  1.7410
21555SOL     OW73632   2.930   0.150   8.752 -0.0091 -0.0197 -0.5351
21555SOL    HW173633   2.983   0.171   8.829 -0.4584  1.1428 -0.5214
21555SOL    HW273634   2.924   0.054   8.753 -0.5355 -0.0135  1.2475
21556SOL     OW73635   7.017  10.022  10.915 -0.3405  0.0956  0.7372
21556SOL    HW173636   7.079  10.093  10.901  0.4275 -0.7016 -0.0874
21556SOL    HW273637   6.990   9.996  10.827  0.4837 -1.5444  0.9284
21557SOL     OW73638   3.973   3.219   3.780 -0.1757  0.2997 -0.0005
21557SOL    HW173639   3.951   3.298   3.829  0.2520  0.0879  0.5455
21557SOL    HW273640   3.915   3.220   3.704 -0.9602  0.5457  0.5972
21558SOL     OW73641  12.425   5.260   1.252 -0.2742 -0.1879  0.0128
21558SOL    HW173642  12.349   5.267   1.193  0.0542  1.3930 -0.2854
21558SOL    HW273643  12.487   5.205   1.205 -0.8513 -0.6703 -0.1892
21559SOL     OW73644  12.591   8.076   9.934  0.3016 -0.2832  0.7823
21559SOL    HW173645  12.655   8.024   9.886  0.3383  0.1006  0.4072
21559SOL    HW273646  12.625   8.165   9.930  1.0245 -0.4101  2.6853
21560SOL     OW73647   8.669  12.363   9.749  0.2497 -0.2399 -0.0542
21560SOL    HW173648   8.730  12.377   9.677  0.7284  1.1927  0.5827
21560SOL    HW273649   8.723  12.324   9.818 -0.3810 -2.3608 -0.7093
21561SOL     OW73650   0.331   3.353   7.073  0.1781 -0.2684  0.0007
21561SOL    HW173651   0.269   3.283   7.095 -0.6319  0.4727  0.1377
21561SOL    HW273652   0.401   3.344   7.138  0.3726 -1.2924 -0.3283
21562SOL     OW73653   2.086   6.944   5.344 -0.0742  0.3175 -0.1193
21562SOL    HW173654   2.118   6.928   5.256  0.8361  2.4041 -0.2175
21562SOL    HW273655   2.014   6.881   5.355  0.2715 -0.4846 -2.0393
21563SOL     OW73656   1.263   4.990  10.317 -0.0499 -0.0637  0.3453
21563SOL    HW173657   1.349   5.015  10.284 -0.2308 -1.0579 -0.9767
21563SOL    HW273658   1.206   5.065  10.298  0.2894  0.1663  0.2461
21564SOL     OW73659  11.320   6.732  11.905 -0.0648  0.1814  0.0207
21564SOL    HW173660  11.295   6.656  11.957  1.4369  2.1862  4.1752
21564SOL    HW273661  11.380   6.697  11.838 -1.7218 -2.5462 -0.1826
21565SOL     OW73662   4.011   3.192  12.562 -0.2854 -0.8831  0.5315
21565SOL    HW173663   4.021   3.269  12.505  1.0695 -0.2224  1.5771
21565SOL    HW273664   3.918   3.190  12.583 -0.6207 -0.5025 -0.8296
21566SOL     OW73665   6.894   4.953   6.242  0.2873 -0.0472 -0.0337
21566SOL    HW173666   6.863   5.043   6.239 -1.4478 -0.6338 -0.4675
21566SOL    HW273667   6.857   4.912   6.164 -1.0130 -1.7493  1.4005
21567SOL     OW73668  11.809   4.180  10.614  0.1766  0.3681  0.1028
21567SOL    HW173669  11.864   4.115  10.657  0.2130  1.0057  1.0490
21567SOL    HW273670  11.845   4.188  10.526  0.7249 -0.2332  0.2697
21568SOL     OW73671   5.375   4.545  12.296  0.0044  0.0652 -0.6207
21568SOL    HW173672   5.446   4.485  12.273 -1.1608 -0.9870 -1.6232
21568SOL    HW273673   5.315   4.541  12.221 -1.2658  0.6713  0.3269
21569SOL     OW73674   4.863   0.395   8.714 -0.2156 -0.1264 -0.9126
21569SOL    HW173675   4.915   0.324   8.676  0.6294  1.2363 -2.4320
21569SOL    HW273676   4.928   0.458   8.745 -0.9522  0.5818 -0.7808
21570SOL     OW73677   9.310   9.693  11.413  0.2209 -0.0825  0.1894
21570SOL    HW173678   9.394   9.647  11.413  0.6092  0.6000 -0.2243
21570SOL    HW273679   9.273   9.674  11.326 -0.2603 -0.7361  0.5306
21571SOL     OW73680   2.190   3.467   7.721  0.2307  0.8690  0.0137
21571SOL    HW173681   2.269   3.425   7.687  0.3981  0.9802  0.2660
21571SOL    HW273682   2.120   3.439   7.661  0.4055  0.5236 -0.0301
21572SOL     OW73683  11.975   5.152   4.430 -0.0316 -0.0689 -0.2532
21572SOL    HW173684  12.011   5.229   4.474  0.9680 -0.6098 -0.0814
21572SOL    HW273685  11.912   5.186   4.367 -0.4140  0.8103  0.5886
21573SOL     OW73686   5.398   8.854   1.388  0.0965  0.2808 -0.3507
21573SOL    HW173687   5.366   8.791   1.323  1.2924 -0.8097  0.0901
21573SOL    HW273688   5.356   8.826   1.470 -0.2573  0.7631 -0.3627
21574SOL     OW73689   5.803  11.061   4.766  0.3742  0.3188  0.5175
21574SOL    HW173690   5.891  11.057   4.803  1.1355 -3.0364 -1.2603
21574SOL    HW273691   5.817  11.076   4.672 -1.0504  0.9786  0.3761
21575SOL     OW73692   7.011   3.442   8.638 -0.4831 -0.2949  0.0788
21575SOL    HW173693   7.106   3.435   8.650 -0.6220 -1.9611  0.3873
21575SOL    HW273694   6.984   3.357   8.605 -1.9109  0.0709  0.2324
21576SOL     OW73695  12.545  10.061   8.152  0.4193  0.2368 -0.8102
21576SOL    HW173696  12.495   9.994   8.106  0.7591 -0.2170 -0.5267
21576SOL    HW273697  12.592  10.108   8.083  0.5840 -0.1541 -0.9688
21577SOL     OW73698   4.029   4.379  10.963  0.2054  0.4592 -0.8133
21577SOL    HW173699   4.042   4.332  10.880 -0.3470  0.6235 -1.0011
21577SOL    HW273700   4.058   4.469  10.945  2.6933 -0.1208 -0.0191
21578SOL     OW73701   8.256  10.799  12.401 -0.2809  0.2438 -0.0168
21578SOL    HW173702   8.251  10.854  12.322  0.1150  0.3346  0.0175
21578SOL    HW273703   8.339  10.825  12.442  0.7514 -1.5487 -0.8617
21579SOL     OW73704   0.130   0.519   2.938 -0.1230  0.2901 -0.3518
21579SOL    HW173705   0.148   0.435   2.897  2.3921 -0.5297  2.1153
21579SOL    HW273706   0.199   0.577   2.905 -1.4471  1.2841 -1.5198
21580SOL     OW73707   7.849   7.634   1.244 -0.0635 -0.7363 -0.4855
21580SOL    HW173708   7.917   7.633   1.312  0.7979 -1.1885 -1.3288
21580SOL    HW273709   7.824   7.726   1.238  2.3716 -0.0826 -1.9465
21581SOL     OW73710   1.706   6.034   2.120  0.2605  0.2139 -0.3864
21581SOL    HW173711   1.678   6.099   2.186 -0.6113 -0.5972  0.0702
21581SOL    HW273712   1.631   5.975   2.112  1.3159 -1.1953 -0.2172
21582SOL     OW73713   4.482   4.018   3.657 -0.3266  0.3648 -0.8214
21582SOL    HW173714   4.410   4.082   3.650  0.8441  1.9871  1.0053
21582SOL    HW273715   4.519   4.014   3.569 -2.1235  0.1013 -1.6095
21583SOL     OW73716   4.213   0.875   2.711 -0.1490 -0.0199  0.1338
21583SOL    HW173717   4.270   0.909   2.781  0.7301 -2.0682  0.5176
21583SOL    HW273718   4.166   0.802   2.753  1.4148 -2.2030 -1.6666
21584SOL     OW73719   5.401   7.218   2.068  0.5476 -0.1485  0.4083
21584SOL    HW173720   5.495   7.203   2.078  0.3699 -1.7114  0.0444
21584SOL    HW273721   5.376   7.163   1.994 -0.3580  1.6283 -0.6705
21585SOL     OW73722   0.862  10.868   8.425 -0.0321  0.2570  0.2646
21585SOL    HW173723   0.847  10.885   8.332  1.4198  2.6543  0.3511
21585SOL    HW273724   0.789  10.910   8.469  0.8878  1.9967  0.2536
21586SOL     OW73725   8.158   2.258   9.413 -0.2635  0.2892 -0.1999
21586SOL    HW173726   8.230   2.303   9.368 -0.5354  0.3594 -0.5607
21586SOL    HW273727   8.192   2.245   9.502 -0.4516  1.9107  0.1520
21587SOL     OW73728   0.468   1.937   0.562  0.2388 -0.5677  0.3066
21587SOL    HW173729   0.492   1.856   0.608  0.1567  0.1869  1.7348
21587SOL    HW273730   0.390   1.968   0.608  1.2150  1.1819  0.8717
21588SOL     OW73731  11.670   9.485   6.788  0.3173  0.2252 -0.3931
21588SOL    HW173732  11.646   9.574   6.811  1.4236 -0.0726  2.2628
21588SOL    HW273733  11.757   9.493   6.748 -0.0397  0.4195 -1.1376
21589SOL     OW73734   5.882   1.271   9.893 -0.1853 -0.7347  0.0475
21589SOL    HW173735   5.890   1.262   9.798 -0.3266 -0.8849  0.0497
21589SOL    HW273736   5.789   1.254   9.911 -0.1841 -0.5833  0.1989
21590SOL     OW73737   3.288   2.656   3.913 -0.6993 -0.5624 -0.6522
21590SOL    HW173738   3.223   2.725   3.898 -0.3690 -0.1397 -0.2017
21590SOL    HW273739   3.372   2.700   3.904 -0.4841 -0.8043  0.0797
21591SOL     OW73740   0.593   1.320   3.295 -0.3355 -0.1484 -0.0020
21591SOL    HW173741   0.595   1.411   3.326 -0.5927 -0.2857  0.4289
21591SOL    HW273742   0.500   1.299   3.289 -0.2967 -0.0385 -1.1490
21592SOL     OW73743   3.229  12.281   8.108 -0.1556 -0.2268 -0.2773
21592SOL    HW173744   3.214  12.285   8.202 -0.9449  0.2961 -0.4096
21592SOL    HW273745   3.310  12.232   8.098  0.5260  0.6383  0.7362
21593SOL     OW73746   4.928  11.127  11.891 -0.3556  0.5795  0.2982
21593SOL    HW173747   4.882  11.167  11.818  0.6063 -0.4385 -0.9111
21593SOL    HW273748   4.863  11.071  11.933 -0.1607 -1.3097 -1.7573
21594SOL     OW73749   5.403   1.708   4.941  0.2525  0.0650  0.4693
21594SOL    HW173750   5.445   1.640   4.994 -0.4563  0.0586  1.0474
21594SOL    HW273751   5.440   1.697   4.854 -0.0908 -1.3023  0.4646
21595SOL     OW73752   7.466   7.904   0.632  0.4021 -0.1269 -0.5758
21595SOL    HW173753   7.475   7.819   0.588 -0.1874  0.1419 -1.2452
21595SOL    HW273754   7.556   7.934   0.644  0.7291 -1.8095  1.6570
21596SOL     OW73755  10.085   6.721  12.100 -0.4907  0.6523 -0.3547
21596SOL    HW173756  10.066   6.774  12.178  0.9281  1.3718 -0.4855
21596SOL    HW273757  10.104   6.634  12.135 -0.6735  0.7622  0.0251
21597SOL     OW73758   4.185  10.617   5.995 -0.0773  0.1525  0.0589
21597SOL    HW173759   4.258  10.568   5.957  0.1858 -0.1984  0.9772
21597SOL    HW273760   4.121  10.549   6.016  0.6452  0.0472  2.1434
21598SOL     OW73761  12.303  10.349   5.461 -0.0770  1.1003  0.1955
21598SOL    HW173762  12.249  10.290   5.409 -1.2015  1.6785  0.6666
21598SOL    HW273763  12.390  10.344   5.421  0.5430 -2.6597  1.6032
21599SOL     OW73764   0.036   6.326   0.378  0.1826 -0.0869  0.1346
21599SOL    HW173765  -0.016   6.290   0.450  0.6682 -1.2515 -0.0741
21599SOL    HW273766   0.081   6.401   0.417  1.2056 -1.2751  1.3486
21600SOL     OW73767   9.226   7.308   8.457  0.2442 -0.0522  0.3235
21600SOL    HW173768   9.283   7.383   8.474 -0.2284  0.2398  0.6335
21600SOL    HW273769   9.151   7.320   8.515 -0.3047 -0.2538 -0.3180
21601SOL     OW73770   4.585   6.719   4.467  0.2642 -0.0254 -0.4858
21601SOL    HW173771   4.595   6.804   4.511 -1.6358  0.6468 -1.2307
21601SOL    HW273772   4.646   6.722   4.394  1.9643 -0.3258  0.8493
21602SOL     OW73773   7.342   7.390   1.661 -0.1564  0.3248 -0.0787
21602SOL    HW173774   7.274   7.324   1.677 -2.4980  1.7796 -2.8909
21602SOL    HW273775   7.322   7.460   1.723  0.2936 -0.2228  0.6989
21603SOL     OW73776   6.200   5.051  11.522 -0.3908 -0.0430 -0.0151
21603SOL    HW173777   6.150   5.049  11.441 -1.1965 -0.7161  0.4874
21603SOL    HW273778   6.268   5.117  11.507 -0.3623 -0.3506 -1.3262
21604SOL     OW73779   6.370   7.505  11.453  0.6579  0.3057 -0.1526
21604SOL    HW173780   6.441   7.564  11.427  1.4133 -0.4832  0.0763
21604SOL    HW273781   6.409   7.448  11.518 -0.1912 -0.1638 -0.0428
21605SOL     OW73782   8.462  11.721   9.034 -0.2504  0.5171  0.5371
21605SOL    HW173783   8.539  11.773   9.060  0.3109  1.0109 -1.8958
21605SOL    HW273784   8.396  11.786   9.011 -0.6381  0.1075  0.4856
21606SOL     OW73785  12.566   5.158   5.145 -0.3218  0.6013  0.0891
21606SOL    HW173786  12.533   5.161   5.055 -1.3000  3.0322  0.4706
21606SOL    HW273787  12.487   5.155   5.199  0.2264  0.7347  0.9116
21607SOL     OW73788   0.089   7.046   2.769  0.2460 -0.0867  0.3460
21607SOL    HW173789  -0.000   7.059   2.737  0.7086 -2.3545 -2.2348
21607SOL    HW273790   0.094   6.953   2.791  2.4971 -0.5764 -1.7692
21608SOL     OW73791   7.772  12.063   2.571 -0.3239  0.2402 -0.0879
21608SOL    HW173792   7.727  12.148   2.567 -1.0198 -0.0782  0.6638
21608SOL    HW273793   7.758  12.033   2.660  1.0655 -0.0706  0.0432
21609SOL     OW73794   2.145  10.332   5.551 -0.6127  0.0655  0.2592
21609SOL    HW173795   2.110  10.350   5.638 -1.2239 -2.2331  0.5701
21609SOL    HW273796   2.067  10.316   5.497 -0.2317  1.2593 -0.6901
21610SOL     OW73797   0.480  12.343   5.825 -0.5488 -0.1469  0.6168
21610SOL    HW173798   0.407  12.359   5.765  0.1322 -0.1457 -0.2262
21610SOL    HW273799   0.446  12.368   5.911 -1.3339  0.4559  0.1443
21611SOL     OW73800   1.277   6.095   7.232 -0.1943  0.2068  0.1093
21611SOL    HW173801   1.202   6.111   7.289 -0.1193  0.7873  0.0497
21611SOL    HW273802   1.319   6.181   7.222  0.1198  0.0064 -0.3582
21612SOL     OW73803   4.396   3.859   1.262  0.4002 -0.2728  0.3495
21612SOL    HW173804   4.410   3.827   1.351 -0.0839  0.1201  0.5710
21612SOL    HW273805   4.316   3.814   1.233  0.4723 -0.2848  0.1641
21613SOL     OW73806   1.129  10.915   6.305 -0.7075  0.6138  0.0787
21613SOL    HW173807   1.147  10.824   6.283 -1.1564  0.6317 -0.3810
21613SOL    HW273808   1.180  10.966   6.241 -0.8889  0.6779 -0.0168
21614SOL     OW73809   8.753   8.637   5.586 -0.2275 -0.1360 -0.2569
21614SOL    HW173810   8.710   8.562   5.545 -1.7927  0.5255  0.1107
21614SOL    HW273811   8.816   8.599   5.647 -0.4532 -1.1365 -0.6341
21615SOL     OW73812   0.525   2.101   9.338 -0.0968 -0.3520 -0.6165
21615SOL    HW173813   0.512   2.077   9.429  3.9465  1.2769  0.5954
21615SOL    HW273814   0.606   2.056   9.313  0.8128  1.9696 -2.2040
21616SOL     OW73815  10.936  11.845   1.019  0.4643  0.2986 -0.1838
21616SOL    HW173816  10.924  11.847   0.924 -0.0114  0.7007 -0.1158
21616SOL    HW273817  11.012  11.789   1.032  0.5945  0.3251 -0.8097
21617SOL     OW73818   6.968   9.864  11.333 -0.0836 -1.0156 -0.7067
21617SOL    HW173819   6.952   9.771  11.352 -1.6142 -0.6867 -0.3166
21617SOL    HW273820   7.057   9.880  11.365  1.1570 -2.8952 -2.8624
21618SOL     OW73821   1.549   5.345   4.298 -0.3203 -0.3545  1.0688
21618SOL    HW173822   1.514   5.407   4.234  0.5604 -0.1388  0.7808
21618SOL    HW273823   1.533   5.386   4.383 -1.4420 -0.6165  1.0019
21619SOL     OW73824   3.675   7.264   5.204  0.0763 -0.0731 -0.5364
21619SOL    HW173825   3.599   7.263   5.261 -1.6304 -0.4469 -2.6760
21619SOL    HW273826   3.734   7.328   5.244 -0.8315 -0.5766  1.7818
21620SOL     OW73827  10.577   4.478   6.940  0.3658  0.1558  0.2974
21620SOL    HW173828  10.532   4.397   6.916  3.0532 -2.1702  2.4608
21620SOL    HW273829  10.608   4.514   6.857 -0.3157 -1.3658 -0.6525
21621SOL     OW73830   2.062   4.697  12.158  0.2928 -0.4034 -0.0936
21621SOL    HW173831   2.142   4.645  12.160  0.9515  0.5899  0.7259
21621SOL    HW273832   2.017   4.676  12.241  0.1599 -0.2857 -0.1358
21622SOL     OW73833   9.596   1.684  10.920  0.4748  0.4979 -0.0275
21622SOL    HW173834   9.537   1.725  10.983 -0.6074 -0.0900 -0.6180
21622SOL    HW273835   9.639   1.757  10.876 -1.0988  1.0364 -0.7694
21623SOL     OW73836   2.109   2.359   9.651 -0.5659  0.0849  0.0889
21623SOL    HW173837   2.057   2.289   9.689 -1.8095 -0.1957 -1.9638
21623SOL    HW273838   2.050   2.435   9.649 -1.0491 -0.2621 -2.3454
21624SOL     OW73839   5.088   4.355   1.334 -0.0858 -0.2337 -0.8589
21624SOL    HW173840   5.074   4.441   1.297  1.5767  0.3211 -0.3090
21624SOL    HW273841   5.064   4.364   1.427 -0.7720 -0.6184 -0.9944
21625SOL     OW73842   1.104   5.684   1.545  0.2110 -0.3436 -0.0449
21625SOL    HW173843   1.089   5.777   1.566 -0.6302  0.0689 -2.2161
21625SOL    HW273844   1.135   5.646   1.627  2.0105  2.1571  0.5741
21626SOL     OW73845   2.972   7.681   6.316  0.2873  0.1477  0.3785
21626SOL    HW173846   2.930   7.595   6.320  0.5550 -0.0883 -1.2560
21626SOL    HW273847   2.913   7.738   6.366 -0.2781 -0.8287  0.8597
21627SOL     OW73848   2.207   9.407   9.780  0.6092  0.0188 -0.4262
21627SOL    HW173849   2.289   9.401   9.730  1.5425 -1.1390  1.1557
21627SOL    HW273850   2.178   9.497   9.766  3.5596  1.3530  1.0078
21628SOL     OW73851   3.275   0.521   6.630  0.0645 -0.2883 -0.2667
21628SOL    HW173852   3.298   0.459   6.562  1.6388 -0.1463  0.1000
21628SOL    HW273853   3.294   0.607   6.592  1.1011 -0.2159  0.3851
21629SOL     OW73854   1.226  10.829   9.216 -0.0316  0.1278  0.0275
21629SOL    HW173855   1.146  10.788   9.183 -1.1198  0.9204  1.5593
21629SOL    HW273856   1.203  10.921   9.228  1.1115  0.3687  0.5079
21630SOL     OW73857   6.557   3.510   6.233 -0.1237 -0.0676  0.2730
21630SOL    HW173858   6.470   3.472   6.246 -0.2273  0.3072  0.6920
21630SOL    HW273859   6.541   3.590   6.182 -0.2713  1.0731  2.0018
21631SOL     OW73860  10.680   3.119   8.991  0.0069 -0.2475  0.0222
21631SOL    HW173861  10.674   3.192   9.053 -0.7974 -0.4128  0.1628
21631SOL    HW273862  10.590   3.087   8.984  0.2812 -0.9613 -0.3598
21632SOL     OW73863   6.075   7.497   4.515  0.6346  0.3628 -0.5632
21632SOL    HW173864   5.998   7.468   4.467 -0.0635 -0.4729  0.9878
21632SOL    HW273865   6.122   7.416   4.536  2.7392  0.9153 -2.6577
21633SOL     OW73866  11.490  12.198   0.870  0.0353  0.0633 -0.1126
21633SOL    HW173867  11.443  12.254   0.932  0.6869 -0.5641  0.9772
21633SOL    HW273868  11.539  12.259   0.816 -1.0857  0.6623 -0.4923
21634SOL     OW73869   7.298   4.957   0.755 -0.6689  0.1942 -0.4719
21634SOL    HW173870   7.349   4.964   0.674  0.8168 -0.3333  0.3746
21634SOL    HW273871   7.242   5.035   0.754  1.3896  1.7561 -0.6579
21635SOL     OW73872   5.803   0.203   2.782  0.2089 -0.0175 -0.3429
21635SOL    HW173873   5.773   0.175   2.696  1.3655 -0.7843 -0.5251
21635SOL    HW273874   5.770   0.137   2.843  0.8711 -0.4597 -0.4486
21636SOL     OW73875  12.384   0.726   9.635  0.3035  0.5220 -0.5756
21636SOL    HW173876  12.422   0.639   9.649  0.9477  0.6334 -1.4857
21636SOL    HW273877  12.448   0.786   9.674 -0.9769  0.5285  1.6123
21637SOL     OW73878  11.138   0.805  10.273 -0.0115 -0.2547 -0.3476
21637SOL    HW173879  11.132   0.711  10.292  0.7745 -0.2249  0.0825
21637SOL    HW273880  11.062   0.843  10.318  0.6974 -0.4471  1.0771
21638SOL     OW73881   3.230  11.723   3.763  0.3522  0.0783  0.1880
21638SOL    HW173882   3.150  11.756   3.804  0.2132 -0.1281  0.0822
21638SOL    HW273883   3.296  11.728   3.832  0.0130 -0.6999  0.5768
21639SOL     OW73884   0.738   7.225   6.336 -0.2045  0.5012  0.3540
21639SOL    HW173885   0.809   7.163   6.323  1.2475  2.3021 -0.8451
21639SOL    HW273886   0.766   7.304   6.289 -2.0628  1.9795  1.5720
21640SOL     OW73887   3.920   0.382   8.019 -0.0521  0.2852  0.6015
21640SOL    HW173888   3.952   0.418   8.102 -0.5683  3.2755 -0.3666
21640SOL    HW273889   3.831   0.417   8.011 -1.4123 -2.9028  0.3911
21641SOL     OW73890   7.897  10.591  12.203  0.2516 -0.0476 -0.2414
21641SOL    HW173891   7.847  10.667  12.174 -1.1238 -0.9088 -0.1826
21641SOL    HW273892   7.898  10.532  12.128  1.9122  0.2908 -0.5250
21642SOL     OW73893   0.700   3.292  10.810 -0.4180 -0.0030 -0.8077
21642SOL    HW173894   0.765   3.303  10.880 -0.2170 -0.8570 -0.8572
21642SOL    HW273895   0.639   3.365  10.824 -1.1999 -0.9683  1.1570
21643SOL     OW73896   6.016   9.259   6.098  0.7660  0.3458 -0.0989
21643SOL    HW173897   6.097   9.212   6.080  0.3447 -0.8300  0.9497
21643SOL    HW273898   5.959   9.195   6.141 -0.4794  1.3303 -0.2023
21644SOL     OW73899  10.342   8.402   8.979 -0.4444  0.5844 -0.2436
21644SOL    HW173900  10.331   8.394   8.884 -0.6562  1.0055 -0.2580
21644SOL    HW273901  10.333   8.312   9.012 -1.7642  0.6071 -0.4862
21645SOL     OW73902   9.879  10.114  10.565  0.5775 -0.0345  0.3548
21645SOL    HW173903   9.943  10.043  10.560 -0.7929 -1.2927  0.2057
21645SOL    HW273904   9.856  10.132  10.474 -0.8462 -1.0806  0.4772
21646SOL     OW73905   9.188   0.675   3.499 -0.1122 -0.3140  0.1391
21646SOL    HW173906   9.166   0.700   3.409 -1.5888  1.4853  0.9299
21646SOL    HW273907   9.122   0.609   3.522  0.7175 -1.3231 -0.3095
21647SOL     OW73908   4.458   2.941   2.702  0.0811 -0.2480 -0.2775
21647SOL    HW173909   4.369   2.960   2.673 -0.1862 -2.6836 -1.3112
21647SOL    HW273910   4.501   2.905   2.624  2.1603  1.3225  0.0642
21648SOL     OW73911   2.091   6.143   0.832 -0.0289 -0.0190  0.2055
21648SOL    HW173912   2.150   6.071   0.810 -0.3011 -1.3637  3.3090
21648SOL    HW273913   2.003   6.106   0.823 -0.3039  0.8689 -0.9558
21649SOL     OW73914   2.549   9.300   4.469 -0.7366 -0.0418 -0.0264
21649SOL    HW173915   2.489   9.278   4.397 -0.7597 -1.7206  0.4559
21649SOL    HW273916   2.505   9.269   4.548  0.2846 -0.3179  0.4537
21650SOL     OW73917   3.098   8.043  11.889  0.0529 -0.5664 -0.5446
21650SOL    HW173918   3.137   8.117  11.841 -0.7613 -0.2841 -0.8064
21650SOL    HW273919   3.114   8.063  11.981  0.3665 -0.3626 -0.6434
21651SOL     OW73920   6.524   0.057   3.962 -0.1062  0.5679  0.1289
21651SOL    HW173921   6.478  -0.004   4.020 -0.2814  1.1167  0.5789
21651SOL    HW273922   6.479   0.050   3.879 -1.5410  1.6725  0.7714
21652SOL     OW73923   9.082   7.783   5.931  0.0665 -0.1037  0.0252
21652SOL    HW173924   9.157   7.730   5.956 -0.6981 -0.8660  0.7896
21652SOL    HW273925   9.096   7.867   5.974 -0.6552 -1.0125  2.1645
21653SOL     OW73926   1.963   0.504  10.822  0.1897  0.3920 -0.3080
21653SOL    HW173927   2.009   0.588  10.817  1.4762 -0.3500 -1.3259
21653SOL    HW273928   1.997   0.453  10.748  0.0640 -1.3380  0.7761
21654SOL     OW73929  11.346   0.331   6.291 -0.0502  0.5877 -0.5453
21654SOL    HW173930  11.279   0.361   6.352  0.3061  2.4533 -1.0114
21654SOL    HW273931  11.318   0.364   6.205  0.6013 -0.0690 -1.0318
21655SOL     OW73932  10.282  10.091   2.431 -0.5693 -0.3141 -0.2785
21655SOL    HW173933  10.196  10.133   2.436 -0.3714  0.4772 -2.3974
21655SOL    HW273934  10.337  10.143   2.490 -0.8541  1.0951 -1.1977
21656SOL     OW73935   8.922   9.278   1.688  0.0642  0.1007  0.2016
21656SOL    HW173936   8.869   9.220   1.743 -1.8130 -1.4423 -2.9763
21656SOL    HW273937   9.006   9.233   1.682 -0.1619 -0.4198  0.6930
21657SOL     OW73938   0.257   9.281   1.260 -0.0576  0.4081 -0.4430
21657SOL    HW173939   0.339   9.299   1.215  0.0776 -0.1804 -0.4484
21657SOL    HW273940   0.283   9.247   1.346 -0.2324 -1.4157 -1.0626
21658SOL     OW73941   3.232   7.474  10.534  0.2035 -0.2780 -0.1160
21658SOL    HW173942   3.188   7.502  10.454  1.3119 -0.6667 -0.8916
21658SOL    HW273943   3.326   7.480  10.513  0.5014 -2.2286  0.4928
21659SOL     OW73944  10.233   2.915   1.776  0.0613 -0.2779  0.4320
21659SOL    HW173945  10.152   2.911   1.725  1.2375  0.1590 -1.5815
21659SOL    HW273946  10.226   2.995   1.828 -0.3656  0.3301 -0.5378
21660SOL     OW73947   6.799   4.920   8.410 -0.0897 -0.4049  0.4241
21660SOL    HW173948   6.882   4.910   8.365 -0.5889 -0.5058 -0.5094
21660SOL    HW273949   6.822   4.932   8.502  1.1064  2.4464 -0.1687
21661SOL     OW73950   5.239   5.723   1.345 -0.9074 -0.3433 -0.3806
21661SOL    HW173951   5.275   5.647   1.299  0.0708  0.1889 -0.5120
21661SOL    HW273952   5.288   5.726   1.428 -0.2842  0.6719 -0.7680
21662SOL     OW73953   3.311   7.851  11.424  0.2852  0.1805  0.4352
21662SOL    HW173954   3.370   7.859  11.498  1.1064 -0.5346 -0.1191
21662SOL    HW273955   3.357   7.794  11.362  0.1138  1.6017 -1.0926
21663SOL     OW73956   4.924  11.060   0.410 -0.0870  0.1942 -0.3170
21663SOL    HW173957   5.010  11.022   0.425  0.0970 -0.2945 -2.2789
21663SOL    HW273958   4.938  11.128   0.345 -0.8596  1.7852  1.0948
21664SOL     OW73959   4.013   1.348  10.557 -0.1846  0.0498 -0.4085
21664SOL    HW173960   3.924   1.328  10.585 -0.0626 -0.4677 -0.3784
21664SOL    HW273961   4.067   1.279  10.597 -0.0730 -1.0756 -2.3966
21665SOL     OW73962   8.850  11.875   0.050 -0.0388  0.0424  0.2286
21665SOL    HW173963   8.815  11.964   0.045 -0.0152 -0.0194 -2.2428
21665SOL    HW273964   8.918  11.872  -0.018 -0.1018 -1.8756  0.1911
21666SOL     OW73965  11.301   1.809   3.566 -0.1012  0.3144 -0.5391
21666SOL    HW173966  11.335   1.770   3.647  0.7682  2.4438  0.2233
21666SOL    HW273967  11.360   1.778   3.498 -0.3076 -0.8064 -0.2193
21667SOL     OW73968   3.084   7.919   9.681 -0.6330 -0.0381  0.6896
21667SOL    HW173969   3.036   7.865   9.745 -1.1554 -0.2862  0.0980
21667SOL    HW273970   3.033   7.912   9.601  0.2985 -0.1529  0.0941
21668SOL     OW73971   6.157   4.029   2.415  0.1257  0.0889  0.0132
21668SOL    HW173972   6.076   3.980   2.403  0.8255 -0.8575 -1.0537
21668SOL    HW273973   6.133   4.121   2.400 -0.1330 -0.4459 -4.1499
21669SOL     OW73974  11.946  10.564   5.700  0.2884  0.6084 -0.1020
21669SOL    HW173975  11.974  10.576   5.610  0.9295  2.0628  0.2541
21669SOL    HW273976  12.018  10.518   5.742  0.7135  1.3776  0.0313
21670SOL     OW73977   4.834   0.823   0.117  0.3253 -0.0652 -0.0294
21670SOL    HW173978   4.743   0.793   0.124  0.1339 -0.5437 -3.0953
21670SOL    HW273979   4.827   0.914   0.090  0.7977  0.1820  0.6602
21671SOL     OW73980   3.862   6.899   1.311 -0.2329  0.3244  0.6138
21671SOL    HW173981   3.860   6.864   1.400  0.1421  0.5479  0.7125
21671SOL    HW273982   3.881   6.992   1.323  0.0582  0.3054  0.2841
21672SOL     OW73983   3.021   7.631   6.868 -0.2136  0.3486 -0.6548
21672SOL    HW173984   3.037   7.607   6.959  1.4911  1.5054 -0.6037
21672SOL    HW273985   3.074   7.570   6.817 -0.2675  0.4294 -0.8091
21673SOL     OW73986   4.922   1.792   5.222 -0.4411  0.5810 -0.2740
21673SOL    HW173987   4.968   1.876   5.229  0.3498  0.2638 -1.3290
21673SOL    HW273988   4.979   1.738   5.167 -0.4857 -0.9898  1.1592
21674SOL     OW73989   2.678   3.129   3.328 -0.0959 -0.2552  0.0025
21674SOL    HW173990   2.720   3.212   3.348 -1.4894  1.2844 -2.8555
21674SOL    HW273991   2.749   3.073   3.295  0.7094  0.0526  1.1703
21675SOL     OW73992   9.033  10.662   7.795  0.2281  0.3762  0.6477
21675SOL    HW173993   8.982  10.662   7.876  0.4815  0.5250  0.8094
21675SOL    HW273994   9.119  10.695   7.821  0.0563  1.2463  0.1614
21676SOL     OW73995  10.109   7.373   7.606  0.2875  0.3017 -0.3872
21676SOL    HW173996  10.081   7.362   7.696  1.5701  0.4385  0.0562
21676SOL    HW273997  10.077   7.295   7.561  0.2525 -0.1167  0.3503
21677SOL     OW73998   8.809   8.647   6.257 -0.3635 -0.7474  0.0124
21677SOL    HW173999   8.717   8.638   6.283 -1.0196  1.5146 -1.1695
21677SOL    HW274000   8.843   8.716   6.314  0.1556 -0.5158 -0.5678
21678SOL     OW74001   1.514   2.141   0.928 -0.0561  0.2119  0.0098
21678SOL    HW174002   1.440   2.192   0.960 -0.3675  0.2474 -0.7353
21678SOL    HW274003   1.474   2.063   0.889  0.2051  0.7903 -1.4581
21679SOL     OW74004   2.335   4.133   6.453  0.2706 -0.2254  0.3954
21679SOL    HW174005   2.294   4.047   6.454  0.6148 -0.4982 -2.1828
21679SOL    HW274006   2.276   4.188   6.505 -1.4556 -1.3870 -0.2453
21680SOL     OW74007   8.004   2.324   2.475  0.3921 -0.0472 -0.4716
21680SOL    HW174008   7.934   2.268   2.443 -0.5622  0.8389  0.0116
21680SOL    HW274009   8.079   2.304   2.418 -0.5203 -0.3192 -1.6060
21681SOL     OW74010  11.189   0.188  10.986  0.6363  0.0594 -0.1714
21681SOL    HW174011  11.136   0.219  10.912  1.5808  1.6184 -0.2373
21681SOL    HW274012  11.137   0.118  11.025 -0.9405  0.7710 -0.9128
21682SOL     OW74013   6.711   5.097  12.227  0.3163  0.1320 -0.4752
21682SOL    HW174014   6.699   5.142  12.311  0.4416  0.2716 -0.5325
21682SOL    HW274015   6.735   5.008  12.251  0.8807  0.3105 -0.3612
21683SOL     OW74016   7.712   9.771   0.471 -0.4230  0.5358 -0.4121
21683SOL    HW174017   7.652   9.719   0.418 -0.0083  1.4772 -1.8706
21683SOL    HW274018   7.661   9.847   0.498 -0.8442 -0.2701  1.1991
21684SOL     OW74019   6.286   7.333   4.097 -0.1862  0.0479 -0.1213
21684SOL    HW174020   6.233   7.254   4.091  0.9740 -0.6403 -2.0800
21684SOL    HW274021   6.320   7.347   4.008  1.0604  1.7470  0.5522
21685SOL     OW74022   5.043  12.226   9.065  0.5346 -0.1689 -0.5649
21685SOL    HW174023   5.124  12.184   9.093  1.3005  0.9755 -0.9871
21685SOL    HW274024   5.059  12.253   8.975  0.3781  1.6891 -0.0845
21686SOL     OW74025  12.215   6.765   0.282  0.0172 -0.1798  0.2699
21686SOL    HW174026  12.144   6.770   0.345  0.8638  0.4128  1.2084
21686SOL    HW274027  12.284   6.715   0.327  0.2267 -0.6898 -0.5949
21687SOL     OW74028   9.419   5.244   5.560 -0.4179 -0.1033  0.4835
21687SOL    HW174029   9.442   5.265   5.470  1.8076  0.4846  1.1260
21687SOL    HW274030   9.323   5.251   5.562 -0.5524 -0.4396 -1.8689
21688SOL     OW74031   5.682   4.693   0.965  0.4380 -0.5147 -0.1753
21688SOL    HW174032   5.678   4.687   0.870  0.1202  1.5523 -0.3442
21688SOL    HW274033   5.752   4.632   0.990  1.3381 -0.2308 -1.8448
21689SOL     OW74034  11.534   4.993  11.958 -0.1416  0.2631 -0.2200
21689SOL    HW174035  11.582   4.926  12.008  0.6093  1.0266  0.1042
21689SOL    HW274036  11.442   4.967  11.967  0.2015 -1.5235 -1.2888
21690SOL     OW74037   9.317   9.767   3.783 -0.2472 -0.4382 -0.7398
21690SOL    HW174038   9.256   9.794   3.713  0.8562  0.1678 -1.4993
21690SOL    HW274039   9.400   9.751   3.738 -0.0526 -2.1449  0.1551
21691SOL     OW74040   6.721   8.017   4.107 -0.2477 -1.0064 -0.1029
21691SOL    HW174041   6.748   8.095   4.058 -0.5854  0.7903  2.4211
21691SOL    HW274042   6.803   7.973   4.128 -0.0711 -1.5935 -1.8123
21692SOL     OW74043  11.495   9.041  10.661 -0.1033  0.2686  0.9161
21692SOL    HW174044  11.443   9.058  10.740 -1.3110  0.9900 -0.0125
21692SOL    HW274045  11.547   9.120  10.648 -1.2925  0.9183 -0.0398
21693SOL     OW74046  10.096   8.326   0.311 -0.1501  0.2749  0.9921
21693SOL    HW174047  10.052   8.331   0.395 -0.0446  0.1017  1.0571
21693SOL    HW274048  10.160   8.397   0.313 -0.3986  0.5032  0.9117
21694SOL     OW74049   3.054   3.591   8.029 -0.2654  0.9040  0.3922
21694SOL    HW174050   3.144   3.621   8.033 -0.0922  0.6507 -1.0315
21694SOL    HW274051   3.049   3.540   7.948 -1.3987 -0.0478  1.0218
21695SOL     OW74052   7.579   4.303   8.792  0.1288  1.1839 -0.3812
21695SOL    HW174053   7.560   4.221   8.746  0.3884  0.9693 -0.1053
21695SOL    HW274054   7.549   4.371   8.731  1.4301  0.9354 -1.3446
21696SOL     OW74055  11.432   8.272   7.857  0.1616  0.2901  0.0448
21696SOL    HW174056  11.423   8.204   7.790 -0.6299  1.3957 -1.0155
21696SOL    HW274057  11.445   8.223   7.939 -1.0712 -1.1664 -0.5654
21697SOL     OW74058  12.197   0.021   9.543  0.2068 -0.2440 -0.3833
21697SOL    HW174059  12.152  -0.031   9.477  0.2667 -0.2732 -0.4017
21697SOL    HW274060  12.136   0.091   9.565  0.0781 -0.3948 -0.2671
21698SOL     OW74061   0.328   0.367   3.218  0.4377 -0.2686 -0.5523
21698SOL    HW174062   0.276   0.435   3.262  0.9961  0.9522 -1.6841
21698SOL    HW274063   0.382   0.416   3.155  0.5129 -1.8126 -1.7460
21699SOL     OW74064  12.354   4.998   6.007 -0.1397 -0.2685 -0.0642
21699SOL    HW174065  12.406   5.003   6.087 -0.6156  2.3500  0.1618
21699SOL    HW274066  12.419   4.983   5.938  0.9148  2.1682  0.3020
21700SOL     OW74067  11.989   9.389   6.259  0.7383 -0.1862 -1.6240
21700SOL    HW174068  12.069   9.367   6.308 -0.6760 -0.4106  0.6958
21700SOL    HW274069  11.990   9.328   6.185  0.5882 -3.2700  0.7208
21701SOL     OW74070   9.517  11.479   6.151 -0.5473  0.1856  0.3349
21701SOL    HW174071   9.613  11.484   6.156 -0.5885  0.9541  0.4764
21701SOL    HW274072   9.487  11.562   6.188 -1.2587  0.0978 -0.0349
21702SOL     OW74073   1.926   2.052   8.705  0.1895  0.4506 -0.2695
21702SOL    HW174074   1.833   2.037   8.722 -0.5684  2.6334 -1.9462
21702SOL    HW274075   1.941   2.010   8.620  0.5440  0.7420 -0.3486
21703SOL     OW74076   1.821   0.022  11.553  0.4374 -0.5047  0.2620
21703SOL    HW174077   1.742  -0.012  11.511  0.4930 -0.8211  0.4075
21703SOL    HW274078   1.890   0.013  11.487  0.0739  1.0657 -0.3587
21704SOL     OW74079   1.953   9.128   6.315  0.6718  0.1115 -0.7714
21704SOL    HW174080   1.925   9.205   6.365  0.3175  0.3222 -1.2844
21704SOL    HW274081   2.009   9.079   6.376 -1.5921 -0.8513  0.6584
21705SOL     OW74082  10.311   0.858   4.374 -0.1730 -0.1020 -0.1533
21705SOL    HW174083  10.380   0.834   4.312 -1.1624  4.5333 -3.6124
21705SOL    HW274084  10.231   0.854   4.322 -1.4408  1.6024  1.5439
21706SOL     OW74085   6.664  12.488   7.793  0.4634 -0.1980 -0.0059
21706SOL    HW174086   6.569  12.478   7.799  0.6446 -1.2798  2.0246
21706SOL    HW274087   6.698  12.401   7.816  1.9479 -0.7335 -3.5987
21707SOL     OW74088   5.464  11.186   6.132  0.0905 -0.4410  0.8259
21707SOL    HW174089   5.450  11.279   6.115 -0.9549 -0.3714  1.9434
21707SOL    HW274090   5.434  11.143   6.052 -0.4229  0.1227  0.7052
21708SOL     OW74091   5.594  11.801   7.616 -0.4100  0.0491  0.2097
21708SOL    HW174092   5.632  11.714   7.622  1.0451  0.5240 -1.5354
21708SOL    HW274093   5.502  11.786   7.592  0.2506 -0.9953 -1.8315
21709SOL     OW74094  10.313   3.842   3.613  0.6410  0.0717  0.1815
21709SOL    HW174095  10.310   3.936   3.630  0.9597  0.2538 -0.7097
21709SOL    HW274096  10.400   3.815   3.644  0.7397  0.1663 -0.0107
21710SOL     OW74097   3.424   6.416   6.879 -0.1293 -0.0351  0.3606
21710SOL    HW174098   3.424   6.324   6.905  1.9971 -0.2977 -0.3583
21710SOL    HW274099   3.346   6.426   6.825 -0.6705 -1.2740  0.8865
21711SOL     OW74100   3.731   3.348  10.431 -0.2884  0.2875  0.1938
21711SOL    HW174101   3.739   3.313  10.520  1.2456  1.7503  0.7092
21711SOL    HW274102   3.820   3.342  10.396 -0.6772  0.6303 -0.8673
21712SOL     OW74103   1.947  12.143  10.514  0.0661 -0.0520 -0.6407
21712SOL    HW174104   2.007  12.208  10.550 -0.1695  0.3474 -0.9661
21712SOL    HW274105   1.872  12.144  10.573 -1.1792  1.9857 -2.1658
21713SOL     OW74106   4.682   3.802   7.745  0.8336 -0.4076  0.1758
21713SOL    HW174107   4.713   3.712   7.744 -0.2896 -0.8124 -0.4417
21713SOL    HW274108   4.706   3.835   7.831 -0.9950 -2.1516  1.4649
21714SOL     OW74109   0.271   6.480   6.427 -0.1074 -1.0425  0.1477
21714SOL    HW174110   0.187   6.511   6.462  0.7935  0.6186  0.9378
21714SOL    HW274111   0.289   6.399   6.475 -1.7706 -2.0551 -0.8386
21715SOL     OW74112   9.765   4.856  11.996 -0.0701 -0.2311  0.6769
21715SOL    HW174113   9.738   4.847  11.905 -0.9467  2.2041  0.6195
21715SOL    HW274114   9.722   4.784  12.042 -2.3175  0.4168 -0.3162
21716SOL     OW74115  12.470   1.118   4.319  0.1807 -0.3676 -0.1646
21716SOL    HW174116  12.434   1.165   4.244 -0.8120  2.7592  2.0674
21716SOL    HW274117  12.395   1.106   4.378  1.3626 -0.4706  1.3867
21717SOL     OW74118   8.847   2.152  12.057 -0.7097 -0.3170  0.2721
21717SOL    HW174119   8.858   2.109  12.142 -1.2338  0.0311  0.5198
21717SOL    HW274120   8.920   2.120  12.004 -0.2653 -0.3858  0.9184
21718SOL     OW74121   4.593  11.685  11.873 -0.0944 -0.2018  0.1958
21718SOL    HW174122   4.684  11.665  11.849  0.0724  1.9948 -1.4436
21718SOL    HW274123   4.598  11.773  11.910 -1.6395  0.4288 -0.9752
21719SOL     OW74124   1.236  11.318  12.507 -0.2416 -0.4057 -0.0161
21719SOL    HW174125   1.327  11.338  12.527 -0.3730  0.1796  0.0135
21719SOL    HW274126   1.186  11.391  12.545 -0.4724  1.0845 -2.8849
21720SOL     OW74127  11.825  10.101   0.691  0.0070 -0.0567  0.2018
21720SOL    HW174128  11.749  10.105   0.749 -0.4564  1.4096 -0.4704
21720SOL    HW274129  11.810  10.170   0.627  1.6496 -0.1152 -0.2855
21721SOL     OW74130   7.706   6.484   0.956 -0.5852  0.3996 -0.1858
21721SOL    HW174131   7.753   6.403   0.975  0.2373  0.4833 -1.6659
21721SOL    HW274132   7.637   6.488   1.022 -0.0727 -1.0288  0.4850
21722SOL     OW74133   9.803  11.465   2.269 -0.0791  0.2140 -0.0122
21722SOL    HW174134   9.708  11.478   2.259  0.1671  0.6012 -2.4637
21722SOL    HW274135   9.834  11.546   2.309 -0.8785 -0.4369  2.1124
21723SOL     OW74136   6.297   4.041   0.925  0.5867  0.4399  0.0872
21723SOL    HW174137   6.337   4.076   1.004  0.9534 -0.5351  0.3357
21723SOL    HW274138   6.216   3.999   0.954  0.5912  0.3032 -0.0924
21724SOL     OW74139   6.315  11.465   0.526  0.8049 -0.1827 -0.3426
21724SOL    HW174140   6.281  11.378   0.506 -1.0981  0.8323 -1.9181
21724SOL    HW274141   6.403  11.467   0.488  1.2477 -1.6819  0.5367
21725SOL     OW74142   0.465   3.002   2.252  0.6884 -0.2345  0.1398
21725SOL    HW174143   0.465   2.948   2.331 -0.8866 -1.5427 -0.6977
21725SOL    HW274144   0.444   2.941   2.182 -4.2101  1.7983 -0.5262
21726SOL     OW74145   6.636   2.630   4.385  0.2181 -0.0184 -0.1852
21726SOL    HW174146   6.706   2.598   4.327  1.9353  1.8984  0.6950
21726SOL    HW274147   6.645   2.725   4.383 -0.0039  0.1615  2.7585
21727SOL     OW74148   5.040   8.588  12.190 -0.4470 -0.2364 -0.1481
21727SOL    HW174149   5.004   8.606  12.277  1.7879  1.3303  0.5255
21727SOL    HW274150   4.991   8.647  12.132  1.1417  2.1898  0.8188
21728SOL     OW74151   8.480  10.371   5.154  0.2604  0.2756  0.4137
21728SOL    HW174152   8.559  10.380   5.207  0.2998  1.2260  0.2195
21728SOL    HW274153   8.510  10.332   5.072  0.9588  2.5789 -0.5287
21729SOL     OW74154   3.417   7.197   3.126  0.5338  0.3273 -0.2076
21729SOL    HW174155   3.469   7.274   3.152 -1.1484  1.3028  0.4565
21729SOL    HW274156   3.326   7.222   3.146 -0.1750 -1.4080 -1.0760
21730SOL     OW74157   0.328   6.222  12.502  0.1383  0.2253 -0.0141
21730SOL    HW174158   0.414   6.213  12.459  0.7270  1.5240  0.8314
21730SOL    HW274159   0.328   6.156  12.570 -0.2597 -0.9472 -1.1084
21731SOL     OW74160  11.354   0.685   8.223  0.1382  0.0918  0.1670
21731SOL    HW174161  11.420   0.660   8.287  0.1080 -0.9689 -0.1982
21731SOL    HW274162  11.318   0.767   8.257  2.7802  1.6303 -0.4627
21732SOL     OW74163   2.134   3.985   1.075  0.6229 -0.1108  0.2831
21732SOL    HW174164   2.074   3.954   1.143  0.6554 -0.1435  0.2974
21732SOL    HW274165   2.123   3.922   1.003 -0.5405  0.8004 -0.3566
21733SOL     OW74166   0.219   8.488   9.989  0.2511  0.2621  0.2597
21733SOL    HW174167   0.197   8.442   9.909  0.1176 -0.0261  0.4610
21733SOL    HW274168   0.159   8.452  10.055 -1.7578  2.6016 -0.1449
21734SOL     OW74169   2.209   2.526  10.170  0.1407  0.5054 -0.0559
21734SOL    HW174170   2.119   2.516  10.200  0.5429  0.5914  1.2240
21734SOL    HW274171   2.262   2.487  10.239  1.1324  1.1339 -0.4444
21735SOL     OW74172   1.778   9.675   2.386 -0.5284 -0.1069 -0.5560
21735SOL    HW174173   1.805   9.673   2.295  1.7170 -1.6176  0.0623
21735SOL    HW274174   1.845   9.726   2.431 -0.7913 -0.6305  0.4754
21736SOL     OW74175   8.214   2.714   5.039  0.4830  0.1756  0.2615
21736SOL    HW174176   8.224   2.663   4.959  1.8015  0.0885  0.4670
21736SOL    HW274177   8.148   2.667   5.090  1.8497 -1.4913  0.5695
21737SOL     OW74178  11.982   5.642  12.440 -0.1312  0.5871  0.2868
21737SOL    HW174179  11.948   5.673  12.524 -0.1058 -2.3897  1.5245
21737SOL    HW274180  11.909   5.593  12.401  0.1153  1.2685 -1.1163
21738SOL     OW74181   5.981   6.530   0.062 -0.2279  0.8457  0.1800
21738SOL    HW174182   5.987   6.451   0.010  1.5271  0.7360  0.4743
21738SOL    HW274183   6.023   6.507   0.145 -0.5671  1.7963  0.6287
21739SOL     OW74184   4.386   4.459   8.279  0.1081 -0.8992 -0.4578
21739SOL    HW174185   4.330   4.435   8.205 -0.8147  1.5046 -0.6359
21739SOL    HW274186   4.364   4.551   8.297  0.9058 -1.1571  2.2796
21740SOL     OW74187   8.115   5.734  10.196  0.1333  0.1825 -0.2118
21740SOL    HW174188   8.088   5.736  10.105 -0.4143  0.5584 -0.0422
21740SOL    HW274189   8.045   5.778  10.244  0.6893  0.5124  0.3232
21741SOL     OW74190   9.163   5.278   5.550 -0.5706 -0.7014  0.3478
21741SOL    HW174191   9.080   5.286   5.502 -0.9740  3.3616  1.3592
21741SOL    HW274192   9.136   5.269   5.641 -0.4031  5.1770  1.3826
21742SOL     OW74193   4.103  10.030  11.876 -0.8379  0.3696  0.2282
21742SOL    HW174194   4.025  10.002  11.923 -1.4613 -0.8643 -1.4668
21742SOL    HW274195   4.163   9.956  11.880 -0.4927  0.6256 -0.0418
21743SOL     OW74196   1.213   5.605   3.319  0.1325  0.1155 -0.2797
21743SOL    HW174197   1.212   5.694   3.285  0.4565  0.1877 -0.1112
21743SOL    HW274198   1.278   5.607   3.389  0.0530 -0.2236 -0.1917
21744SOL     OW74199   1.730   5.251   7.725  0.2532 -0.3684  0.1116
21744SOL    HW174200   1.702   5.170   7.766  0.0186  0.2514  1.2085
21744SOL    HW274201   1.650   5.303   7.716  0.4132 -0.2143 -0.5073
21745SOL     OW74202   7.599   1.213   2.298 -0.2623  0.2609 -0.0319
21745SOL    HW174203   7.519   1.227   2.349 -1.4465 -1.0552 -1.4516
21745SOL    HW274204   7.626   1.124   2.318 -0.0872  0.1299 -0.8160
21746SOL     OW74205   9.931   0.667   7.420 -0.3540 -0.0854 -0.2720
21746SOL    HW174206   9.893   0.590   7.464  0.4185 -0.1125  0.3782
21746SOL    HW274207   9.877   0.679   7.342 -2.4924  0.6287  1.2346
21747SOL     OW74208   1.690  12.176   4.729 -0.2619 -0.3806 -0.4922
21747SOL    HW174209   1.732  12.252   4.690  1.4756 -1.1628 -0.2518
21747SOL    HW274210   1.599  12.182   4.702 -0.5286  2.5302  0.7122
21748SOL     OW74211   4.192   2.561  12.590 -0.5236  0.3811  0.3422
21748SOL    HW174212   4.152   2.514  12.664 -0.6511  0.6356  0.4360
21748SOL    HW274213   4.247   2.496  12.547  1.4129  0.8075  2.0268
21749SOL     OW74214   3.491   2.363   6.302 -0.9424  0.4116  0.0495
21749SOL    HW174215   3.403   2.398   6.290 -1.2857 -0.4072  0.0875
21749SOL    HW274216   3.535   2.377   6.218 -1.1618  0.6731 -0.0215
21750SOL     OW74217   7.216   0.974   3.875  0.2172 -0.6275 -0.2722
21750SOL    HW174218   7.178   0.913   3.938 -2.9412  0.7869 -0.5923
21750SOL    HW274219   7.169   1.057   3.890  2.7733  1.1438 -1.2979
21751SOL     OW74220   2.192   2.925   0.401  0.0452  0.0212 -0.3286
21751SOL    HW174221   2.139   2.984   0.347 -0.1845  0.0022 -0.1277
21751SOL    HW274222   2.222   2.857   0.341 -1.9422 -1.1831 -0.0398
21752SOL     OW74223   0.244  11.121  12.342  0.1415  0.0905  0.0959
21752SOL    HW174224   0.204  11.168  12.270 -1.4257  2.3120  2.2529
21752SOL    HW274225   0.209  11.032  12.335  0.3190  0.1431 -2.0166
21753SOL     OW74226   2.869   7.063   3.295  0.2340 -0.1747 -0.4476
21753SOL    HW174227   2.860   6.970   3.277 -0.9046  0.2179 -2.2140
21753SOL    HW274228   2.782   7.099   3.278  0.3890  1.0785  1.2074
21754SOL     OW74229   9.838  10.710   6.445 -0.2474  0.1142  0.0325
21754SOL    HW174230   9.792  10.643   6.395  1.9937 -0.2703 -1.6915
21754SOL    HW274231   9.772  10.776   6.464 -1.5714 -0.5097 -2.0862
21755SOL     OW74232   2.406   8.597   2.710 -0.0661 -0.1325 -0.1005
21755SOL    HW174233   2.352   8.608   2.789 -0.7913  0.3350 -0.6405
21755SOL    HW274234   2.374   8.665   2.651  0.0612 -0.8608 -1.0208
21756SOL     OW74235   7.317  10.387   1.672 -0.0934 -0.4054 -0.2150
21756SOL    HW174236   7.372  10.464   1.656  1.0489 -1.1615 -0.0328
21756SOL    HW274237   7.303  10.387   1.767 -0.7078 -0.0166 -0.3043
21757SOL     OW74238   3.915   1.523   5.889 -0.3587 -0.6445  0.0156
21757SOL    HW174239   3.849   1.530   5.820 -1.3765  2.7436  1.1266
21757SOL    HW274240   3.870   1.480   5.962 -1.0600  0.5822  0.3456
21758SOL     OW74241   7.322   7.995   3.607 -0.4097 -0.2100 -0.1491
21758SOL    HW174242   7.388   8.028   3.546  0.5632 -0.4905  0.7247
21758SOL    HW274243   7.242   8.042   3.583  0.4842  1.4023 -0.1617
21759SOL     OW74244   8.083   1.875   1.543  0.5689 -0.3577  0.3510
21759SOL    HW174245   8.157   1.852   1.486  0.6051 -2.1396  1.0382
21759SOL    HW274246   8.014   1.814   1.518 -0.7275  1.3121 -0.3034
21760SOL     OW74247   0.228   3.573  11.697 -0.0383  0.1549 -0.4771
21760SOL    HW174248   0.287   3.507  11.733 -1.5779 -0.3282  1.3234
21760SOL    HW274249   0.158   3.524  11.654 -1.0270  0.5559  0.5945
21761SOL     OW74250   4.019  10.480   1.414 -0.2187  0.4767  0.4309
21761SOL    HW174251   4.041  10.387   1.420  2.1405  1.0258  1.4227
21761SOL    HW274252   4.059  10.508   1.332 -0.6871  0.6833  0.2714
21762SOL     OW74253   3.352   6.385   1.197 -0.5838  0.2875 -0.6073
21762SOL    HW174254   3.320   6.371   1.108 -0.1465 -1.4129 -0.5322
21762SOL    HW274255   3.281   6.355   1.253 -0.2003 -0.2687 -0.4089
21763SOL     OW74256  12.459  11.779   5.977 -0.0699  0.1066  0.6987
21763SOL    HW174257  12.427  11.703   5.930  0.2535 -0.3595  1.2185
21763SOL    HW274258  12.437  11.853   5.921  1.2308 -0.5169 -0.7003
21764SOL     OW74259  10.340   2.777   8.026  0.1889 -0.3867 -0.1077
21764SOL    HW174260  10.357   2.683   8.020  0.3082 -0.4466  0.9341
21764SOL    HW274261  10.425   2.816   8.047  0.1986 -0.0043 -0.8129
21765SOL     OW74262   9.928   6.320   3.438 -0.2976 -0.4049  0.0721
21765SOL    HW174263  10.021   6.300   3.447 -0.5589 -1.9386 -0.3568
21765SOL    HW274264   9.920   6.411   3.468  1.4575  0.0280 -0.6420
21766SOL     OW74265   4.963  11.047  10.693 -0.2756  0.0468  0.1481
21766SOL    HW174266   4.952  10.952  10.685 -1.6270  0.3184 -2.2339
21766SOL    HW274267   4.904  11.072  10.764 -1.2042 -0.7437 -0.3171
21767SOL     OW74268   3.333   6.873   2.900  0.0121  0.1848 -0.6170
21767SOL    HW174269   3.363   6.860   2.990 -0.2667 -0.6828 -0.6468
21767SOL    HW274270   3.238   6.879   2.907  0.0502  1.0973 -0.7469
21768SOL     OW74271   7.186  11.142  11.026 -0.0030 -0.4993 -0.1434
21768SOL    HW174272   7.233  11.202  10.968  1.7093 -0.3896  1.2395
21768SOL    HW274273   7.096  11.142  10.994  0.2208  1.8449 -0.9519
21769SOL     OW74274   3.619   8.761   8.937  0.0128 -0.1436  0.4966
21769SOL    HW174275   3.644   8.701   8.867  1.5784 -0.1643  1.0315
21769SOL    HW274276   3.558   8.822   8.896 -0.2686 -1.0628 -0.4857
21770SOL     OW74277   2.835  12.187   4.404 -0.2656  0.2296  0.4405
21770SOL    HW174278   2.818  12.279   4.425 -0.1411  0.3621 -0.0140
21770SOL    HW274279   2.874  12.150   4.483  0.4881  0.7893  0.3395
21771SOL     OW74280   5.016   9.465  10.111 -0.4474  0.0694 -0.6287
21771SOL    HW174281   4.987   9.388  10.160 -0.7424  0.7646  0.3368
21771SOL    HW274282   4.997   9.538  10.170 -1.9224  1.0726 -2.2701
21772SOL     OW74283   2.084   8.858   0.543 -0.2231  0.2736 -0.0467
21772SOL    HW174284   2.108   8.779   0.495 -0.1051  0.2365  0.0727
21772SOL    HW274285   1.991   8.847   0.564 -0.7869  1.1302 -1.8976
21773SOL     OW74286   9.311   9.457  10.249 -0.0298 -0.3081  0.6015
21773SOL    HW174287   9.335   9.396  10.179 -0.7185 -0.0780  0.1582
21773SOL    HW274288   9.385   9.517  10.254 -0.2668  0.0924 -0.4106
21774SOL     OW74289  11.340   3.997   9.847  0.0268  0.7517 -0.0918
21774SOL    HW174290  11.253   4.025   9.875 -0.0311 -0.7977  1.4475
21774SOL    HW274291  11.390   4.079   9.840 -0.3999  1.4024  3.1688
21775SOL     OW74292   9.126   5.966   5.488  0.2028 -0.3064  0.0064
21775SOL    HW174293   9.166   6.039   5.534 -2.3771  1.1183  0.1989
21775SOL    HW274294   9.153   5.977   5.397  0.0785  0.7621  0.0870
21776SOL     OW74295   7.339   1.571   6.247  0.4203  0.4003 -0.4199
21776SOL    HW174296   7.407   1.630   6.215  1.3882  0.1371  1.0596
21776SOL    HW274297   7.372   1.484   6.227  0.9859  0.2357  1.1150
21777SOL     OW74298  10.014  11.171   3.458  0.0870 -0.4751  0.4871
21777SOL    HW174299  10.058  11.100   3.505  0.3716 -0.1188  0.7596
21777SOL    HW274300  10.049  11.251   3.497 -0.2273 -0.1843  0.1743
21778SOL     OW74301   2.632   9.237   7.829  0.2442 -0.0231  0.0231
21778SOL    HW174302   2.615   9.165   7.769 -1.0941  1.9277 -2.1198
21778SOL    HW274303   2.546   9.278   7.843  1.2845  2.8909 -1.2844
21779SOL     OW74304   0.083   3.962   3.625 -0.0483  0.1806  0.4429
21779SOL    HW174305   0.134   3.950   3.705 -0.4621 -1.5084  0.4996
21779SOL    HW274306   0.117   3.896   3.565 -1.0894  0.0727 -0.0544
21780SOL     OW74307   3.857   2.026   3.066  0.3599 -0.8273  0.1716
21780SOL    HW174308   3.798   2.040   2.992  0.0008 -2.8768  0.0219
21780SOL    HW274309   3.908   2.107   3.071 -1.7573  0.6288 -0.3120
21781SOL     OW74310   9.854   2.492   6.664  0.1183  0.2416  0.0755
21781SOL    HW174311   9.806   2.416   6.631  1.0158  0.1172 -0.9951
21781SOL    HW274312   9.943   2.460   6.677 -0.2223  0.2021  2.9827
21782SOL     OW74313   5.184   2.140   6.029  0.4874 -0.0457 -0.2600
21782SOL    HW174314   5.149   2.215   6.077 -3.0030 -1.1737 -0.8281
21782SOL    HW274315   5.216   2.081   6.096 -1.6049 -0.3059  0.5667
21783SOL     OW74316   6.081   0.639   5.264 -0.4939 -1.0706  0.3815
21783SOL    HW174317   6.014   0.706   5.276  0.9449  0.4238  0.5392
21783SOL    HW274318   6.059   0.596   5.181 -1.0517  0.1106 -0.0997
21784SOL     OW74319  10.175   9.616  11.431 -0.5843  0.0153 -0.2428
21784SOL    HW174320  10.080   9.611  11.417 -0.7020  0.8393  0.1584
21784SOL    HW274321  10.186   9.694  11.486  0.2342 -0.6576  0.5813
21785SOL     OW74322  12.393   5.795   0.879 -0.0877  0.3089 -0.4169
21785SOL    HW174323  12.420   5.734   0.812 -0.6561 -0.1508 -0.2362
21785SOL    HW274324  12.464   5.859   0.885  1.0327 -0.9578  0.1703
21786SOL     OW74325   3.795   5.275   8.380 -0.4720  0.3249 -0.1079
21786SOL    HW174326   3.722   5.213   8.381 -1.0880  0.9452 -2.3345
21786SOL    HW274327   3.759   5.354   8.421 -0.9186  0.4849 -0.7996
21787SOL     OW74328   1.331   6.793   9.554 -0.3550  0.3018  0.2219
21787SOL    HW174329   1.397   6.820   9.489  0.5794  0.0211  1.0205
21787SOL    HW274330   1.324   6.698   9.542  0.9425  0.0133  1.5028
21788SOL     OW74331   2.425   1.276   5.097  0.0533 -0.1329 -0.0805
21788SOL    HW174332   2.489   1.230   5.151  0.4162  0.2049 -0.2109
21788SOL    HW274333   2.392   1.346   5.153 -2.3479 -1.9842  1.0019
21789SOL     OW74334  12.323   5.932   1.610  0.5366  0.3627 -0.5857
21789SOL    HW174335  12.273   6.009   1.583  0.5497  1.2786  1.7571
21789SOL    HW274336  12.258   5.863   1.620 -0.1334  1.2014  1.2059
21790SOL     OW74337  10.020   7.226  10.372 -0.1078  0.1910  0.0028
21790SOL    HW174338   9.945   7.276  10.404  0.4322  0.2815  1.1624
21790SOL    HW274339  10.055   7.279  10.300 -0.7216  0.5040 -0.0714
21791SOL     OW74340  11.954   1.395   7.816 -0.0881 -0.2102 -0.3851
21791SOL    HW174341  11.990   1.351   7.740  1.4718 -0.7778  0.6380
21791SOL    HW274342  12.014   1.375   7.887  0.0760  2.6153  0.4134
21792SOL     OW74343   8.997  10.058   1.094  0.6559  0.1208 -0.7041
21792SOL    HW174344   9.052  10.018   1.027  0.7038  0.1049 -0.6548
21792SOL    HW274345   9.024  10.150   1.097 -0.3596  0.4791 -1.7527
21793SOL     OW74346   9.193   6.339  11.208  0.3688  0.0518 -0.0738
21793SOL    HW174347   9.173   6.292  11.127  0.5937  1.5094 -0.9940
21793SOL    HW274348   9.170   6.430  11.190  1.7265  0.6475  1.0284
21794SOL     OW74349   0.017  10.215   3.544  0.3954  0.5127 -0.5989
21794SOL    HW174350   0.078  10.256   3.483  0.3729  0.8488 -0.3982
21794SOL    HW274351  -0.066  10.209   3.496  0.5990 -0.0031 -0.8941
21795SOL     OW74352  11.318   1.056   9.111 -0.5266  0.2536  0.4871
21795SOL    HW174353  11.261   1.011   9.174 -0.7057  0.0829  0.2028
21795SOL    HW274354  11.387   1.094   9.165 -1.4347  1.3023  0.9524
21796SOL     OW74355   0.610   4.334   9.149  0.9100 -0.0918 -0.3782
21796SOL    HW174356   0.685   4.319   9.091 -0.5059 -2.2726 -1.7844
21796SOL    HW274357   0.543   4.373   9.092 -0.2316 -1.5050 -0.0688
21797SOL     OW74358   7.744   5.487  11.090 -0.6251  0.1278  0.0013
21797SOL    HW174359   7.677   5.474  11.157  0.1159 -0.0009  0.7304
21797SOL    HW274360   7.799   5.558  11.125 -0.5460  0.4289 -0.7191
21798SOL     OW74361   8.960   6.015  11.145 -0.0444 -0.1187  0.7022
21798SOL    HW174362   8.912   6.006  11.063 -1.6902  0.1769  1.5915
21798SOL    HW274363   8.893   6.009  11.213  1.4593 -2.1389  2.1318
21799SOL     OW74364  11.773   5.839  11.319  0.1096 -0.0967 -0.2445
21799SOL    HW174365  11.684   5.807  11.307  0.7592 -1.7426 -0.9277
21799SOL    HW274366  11.794   5.883  11.237  0.7585 -1.8804 -1.0804
21800SOL     OW74367   6.128  11.955  10.257  0.3444  0.2390  0.2994
21800SOL    HW174368   6.083  11.935  10.339 -0.2613  0.1116 -0.0588
21800SOL    HW274369   6.119  11.875  10.205  0.1815  0.5312 -0.1299
21801SOL     OW74370   8.207  11.428   6.660 -0.1076 -0.1274  0.2093
21801SOL    HW174371   8.122  11.406   6.697 -0.2759 -0.1490 -0.1772
21801SOL    HW274372   8.220  11.520   6.684 -0.8200  0.2529 -0.7716
21802SOL     OW74373  10.083   2.450   5.439  0.0617  0.1269 -0.0523
21802SOL    HW174374  10.151   2.392   5.406 -0.2716  0.5101 -1.5062
21802SOL    HW274375  10.093   2.448   5.534  0.6777 -1.5261 -0.1293
21803SOL     OW74376  11.961   3.652   7.675  0.4722 -0.2068 -0.1155
21803SOL    HW174377  11.920   3.600   7.745 -1.8087 -0.8389 -1.7883
21803SOL    HW274378  11.889   3.701   7.636  1.2584 -1.1878 -3.1053
21804SOL     OW74379   9.492  10.753   0.437 -0.6109  0.1578 -0.6339
21804SOL    HW174380   9.464  10.814   0.505 -3.4008 -1.0628 -0.5618
21804SOL    HW274381   9.416  10.746   0.379  1.0866 -0.1402 -2.9717
21805SOL     OW74382   5.410   8.424  12.149 -0.1797 -0.1350  0.2556
21805SOL    HW174383   5.318   8.450  12.156 -0.1186 -0.0867  1.0097
21805SOL    HW274384   5.458   8.507  12.149 -0.1044 -0.1783  0.4546
21806SOL     OW74385  10.848  11.497   8.243 -0.9616 -0.6289  0.6007
21806SOL    HW174386  10.898  11.418   8.263  0.2216  0.3310  1.5408
21806SOL    HW274387  10.913  11.565   8.231 -1.9921  1.0631  3.5730
21807SOL     OW74388   7.895   4.673   4.965  0.2216 -0.3229  0.5886
21807SOL    HW174389   7.927   4.726   4.892 -0.1886 -0.6441  0.1639
21807SOL    HW274390   7.838   4.732   5.015 -1.2287 -0.6654 -0.5775
21808SOL     OW74391   2.930  11.084  11.843 -0.0289  1.4938 -0.0049
21808SOL    HW174392   2.987  11.010  11.824  0.1437  2.0706 -1.9029
21808SOL    HW274393   2.879  11.055  11.919  1.2004  0.1051  0.3498
21809SOL     OW74394   5.702   1.097  12.271  0.1394  0.0393  0.0088
21809SOL    HW174395   5.783   1.138  12.242 -1.2259  1.7853 -1.6062
21809SOL    HW274396   5.674   1.042  12.198 -2.1335  2.6433 -1.2562
21810SOL     OW74397   8.310   7.670   3.747  0.0065  0.9426 -0.1529
21810SOL    HW174398   8.393   7.668   3.698 -0.3496  0.9372 -0.7729
21810SOL    HW274399   8.331   7.717   3.827  0.8367  0.1304  0.1281
21811SOL     OW74400   1.505   3.191   1.782  0.0404  0.1731  0.0326
21811SOL    HW174401   1.428   3.135   1.792  0.9905 -1.1891  0.0260
21811SOL    HW274402   1.475   3.264   1.729 -1.1293 -0.5897 -0.3883
21812SOL     OW74403   9.619   2.415   7.553  0.1714  0.3747  0.1157
21812SOL    HW174404   9.677   2.483   7.589 -0.8728  0.8367  0.9879
21812SOL    HW274405   9.538   2.425   7.602 -0.5265 -0.5089 -0.8286
21813SOL     OW74406   5.359  12.106   4.436 -0.2600  0.6014 -0.0047
21813SOL    HW174407   5.372  12.041   4.368 -0.5992 -0.9027  1.3073
21813SOL    HW274408   5.279  12.079   4.480  0.7934  0.5572  2.0105
21814SOL     OW74409   3.988   9.580   7.760  0.2615  0.3040  0.1594
21814SOL    HW174410   4.054   9.512   7.774  0.9213  0.6231 -1.1743
21814SOL    HW274411   3.910   9.548   7.804  1.3190 -0.0356  1.8857
21815SOL     OW74412   6.983   1.875   1.327  0.1125 -0.0276 -0.1484
21815SOL    HW174413   6.941   1.808   1.274 -0.1708  1.1958 -1.5252
21815SOL    HW274414   6.912   1.910   1.381  0.1392 -0.4234  0.1479
21816SOL     OW74415   9.907   6.111   1.189  0.6966  0.0618  0.1287
21816SOL    HW174416   9.817   6.080   1.181  0.9547 -0.8286  0.5470
21816SOL    HW274417   9.905   6.201   1.156 -0.8284  0.8716  2.2126
21817SOL     OW74418   1.779   6.923  10.773 -0.0565 -0.0717  0.3524
21817SOL    HW174419   1.792   6.873  10.853  0.5274 -1.1012 -0.3677
21817SOL    HW274420   1.849   6.894  10.714 -1.5684 -0.7214 -1.2015
21818SOL     OW74421   1.826   3.426   0.888  0.3961  0.5766 -0.0936
21818SOL    HW174422   1.851   3.479   0.813 -0.1781 -0.3378 -0.9577
21818SOL    HW274423   1.885   3.350   0.886 -0.4036 -0.0565 -0.3551
21819SOL     OW74424  10.308   7.901   9.927  0.1055 -0.2361 -0.0474
21819SOL    HW174425  10.346   7.890   9.840 -0.8736  1.4221 -0.7486
21819SOL    HW274426  10.365   7.851   9.985  0.8701 -1.2682 -1.6062
21820SOL     OW74427  12.303   5.154   3.405 -0.3152 -0.5217 -0.1735
21820SOL    HW174428  12.338   5.123   3.321 -0.0235 -1.1083  0.1598
21820SOL    HW274429  12.286   5.247   3.390  0.1740 -0.5143 -0.7391
21821SOL     OW74430   1.463   8.007   1.817 -0.6131 -0.3532  0.2530
21821SOL    HW174431   1.404   8.044   1.883 -1.6083 -0.5937 -0.4895
21821SOL    HW274432   1.495   8.083   1.768  0.8538 -0.0745  1.5580
21822SOL     OW74433   4.791   5.179   2.390  0.1523 -0.0015  0.3074
21822SOL    HW174434   4.734   5.145   2.321  1.1111  1.0798 -1.0782
21822SOL    HW274435   4.856   5.111   2.404  0.5958  0.2048 -0.6640
21823SOL     OW74436   1.356  12.218   9.567  0.0307  0.1013  0.0260
21823SOL    HW174437   1.420  12.148   9.572  0.6231  0.6921  1.0863
21823SOL    HW274438   1.272  12.175   9.584  0.1700 -0.6039 -0.9530
21824SOL     OW74439  11.181   4.866   1.002  0.1715  0.1114 -0.2036
21824SOL    HW174440  11.185   4.854   0.907 -2.3092  0.3438 -0.4018
21824SOL    HW274441  11.265   4.906   1.025  0.8275  0.0246 -2.2863
21825SOL     OW74442  12.238   0.414   9.687  0.3833  0.1641  0.2439
21825SOL    HW174443  12.243   0.323   9.716  1.3188 -0.3710 -1.4819
21825SOL    HW274444  12.323   0.451   9.712  1.4323 -0.4577 -2.1490
21826SOL     OW74445   0.646   4.670   5.045 -0.1572  0.3469  0.5488
21826SOL    HW174446   0.575   4.679   4.981  0.5150  0.4686 -0.1904
21826SOL    HW274447   0.724   4.653   4.993  0.3967  0.3700  1.3438
21827SOL     OW74448   4.794  11.656   1.749  0.3143 -0.4441  0.0189
21827SOL    HW174449   4.863  11.602   1.788  2.1527  0.6449 -1.5364
21827SOL    HW274450   4.723  11.654   1.813  2.5239 -0.0275  2.6600
21828SOL     OW74451  10.691   1.560  11.012  0.2166 -0.5370 -0.1207
21828SOL    HW174452  10.756   1.495  11.039 -0.5504 -1.3802 -0.2228
21828SOL    HW274453  10.634   1.512  10.951 -0.3805  0.2342 -0.1844
21829SOL     OW74454   6.089   3.674  11.950 -0.6210  0.6763  0.3280
21829SOL    HW174455   6.184   3.662  11.944 -1.0127 -2.4701 -1.8909
21829SOL    HW274456   6.073   3.759  11.910  1.1725  0.7360 -0.3542
21830SOL     OW74457   2.297   3.201   2.900 -0.3409  0.0410  0.0603
21830SOL    HW174458   2.322   3.282   2.855  1.0352 -0.6629 -0.5093
21830SOL    HW274459   2.376   3.176   2.949 -0.6289 -1.1259 -0.0571
21831SOL     OW74460  11.280   2.629   5.538  0.1349 -0.6458 -0.0058
21831SOL    HW174461  11.261   2.647   5.630  0.8827 -0.3792  0.1015
21831SOL    HW274462  11.280   2.715   5.495 -0.2533 -0.7720 -0.2694
21832SOL     OW74463  12.132   7.676   9.736 -0.3087  0.3103  0.3971
21832SOL    HW174464  12.127   7.681   9.641 -1.4220 -0.3526  0.4086
21832SOL    HW274465  12.194   7.605   9.753 -0.5564  0.0359  0.1631
21833SOL     OW74466   0.566   0.704   6.347  0.6764  0.9178  0.4289
21833SOL    HW174467   0.647   0.688   6.395  0.6498 -0.5458  0.0363
21833SOL    HW274468   0.589   0.688   6.255 -0.6609 -2.6076  0.5349
21834SOL     OW74469  11.220   9.058   5.037 -0.3489 -0.4721 -0.7957
21834SOL    HW174470  11.184   9.013   5.114 -0.6064 -0.5314 -0.9502
21834SOL    HW274471  11.297   9.104   5.070 -0.3887 -0.5973 -0.5263
21835SOL     OW74472  11.134   3.897   3.051  0.2058  0.0603  0.0388
21835SOL    HW174473  11.095   3.964   3.109 -0.3241 -0.2664  0.0655
21835SOL    HW274474  11.189   3.947   2.990  0.3851  0.4548  0.5127
21836SOL     OW74475   5.160   7.769   3.367 -0.1705 -0.1155 -0.6732
21836SOL    HW174476   5.236   7.756   3.310 -1.1739  0.7024 -2.2392
21836SOL    HW274477   5.182   7.846   3.419  1.2773 -1.5784  1.0221
21837SOL     OW74478   1.380   8.661   7.370 -0.4509  0.4141  0.5412
21837SOL    HW174479   1.400   8.568   7.382 -0.1856  0.5406  1.1302
21837SOL    HW274480   1.302   8.662   7.314  1.3479 -0.0885 -2.2008
21838SOL     OW74481   5.337   5.053   1.013 -0.2092  0.2460  0.2777
21838SOL    HW174482   5.422   5.045   0.970 -0.6292  0.3192 -0.5744
21838SOL    HW274483   5.306   4.963   1.024 -0.5012  0.2632 -0.3837
21839SOL     OW74484   8.642   8.949   3.830  0.0232  0.0848 -0.6091
21839SOL    HW174485   8.711   8.949   3.896 -0.6043  0.2247  0.0450
21839SOL    HW274486   8.612   8.859   3.827 -1.2432  0.4375  0.6656
21840SOL     OW74487   5.241  10.338   4.665 -0.1100  0.5819  0.2773
21840SOL    HW174488   5.175  10.347   4.734  0.3776  2.2559  0.5812
21840SOL    HW274489   5.228  10.415   4.610  0.5297  0.0718 -0.6021
21841SOL     OW74490   8.751   7.613   4.890 -0.1546  0.0046 -0.1686
21841SOL    HW174491   8.705   7.644   4.812 -0.7336 -1.0435 -0.2541
21841SOL    HW274492   8.767   7.692   4.941 -0.3202  0.6261 -1.0555
21842SOL     OW74493   8.894   2.830   2.098 -0.2929  0.2082  0.3503
21842SOL    HW174494   8.833   2.833   2.025 -0.1446 -0.3510  0.1974
21842SOL    HW274495   8.860   2.893   2.161 -0.8512  0.1273  0.1325
21843SOL     OW74496   7.541   6.758   9.890  0.3437 -0.0018  0.3090
21843SOL    HW174497   7.536   6.783   9.798 -0.8512 -0.0600  0.3460
21843SOL    HW274498   7.498   6.672   9.894  0.4040 -0.0125  0.9196
21844SOL     OW74499   5.631   3.746   6.817  0.1612 -0.2301  0.1868
21844SOL    HW174500   5.585   3.770   6.897 -3.6235 -1.2304 -1.4992
21844SOL    HW274501   5.622   3.823   6.761 -1.2175 -1.0801 -0.8193
21845SOL     OW74502   8.274   9.555   4.282 -0.4309  0.2568  1.2840
21845SOL    HW174503   8.186   9.567   4.319 -0.2371  1.0426  1.5008
21845SOL    HW274504   8.313   9.642   4.283 -0.5280  0.3885 -1.0982
21846SOL     OW74505   0.453  12.486   4.934  0.0333  0.2256  0.0967
21846SOL    HW174506   0.495  12.563   4.972  1.1195  0.1923 -0.9839
21846SOL    HW274507   0.375  12.520   4.890 -0.0883  0.5492  0.5576
21847SOL     OW74508   1.536   3.392   9.641  0.3760 -0.2447 -0.0646
21847SOL    HW174509   1.589   3.314   9.627 -2.2352 -2.4922  1.4893
21847SOL    HW274510   1.588   3.447   9.698  1.8367 -1.3788 -0.2488
21848SOL     OW74511   3.099   5.621   9.389  0.4438 -0.6562 -0.1373
21848SOL    HW174512   3.014   5.587   9.359  0.5822 -0.2866 -0.9792
21848SOL    HW274513   3.161   5.595   9.321  0.5815  1.0922 -0.7263
21849SOL     OW74514   3.675   9.690   9.441  0.7160 -0.1256  0.3127
21849SOL    HW174515   3.754   9.637   9.453 -0.9335 -2.4468  2.0568
21849SOL    HW274516   3.613   9.654   9.505 -2.2971  0.4887 -2.0325
21850SOL     OW74517   9.139   8.034   8.455 -0.3201  0.1391  0.1636
21850SOL    HW174518   9.139   8.112   8.510  1.6735  0.3185  0.0185
21850SOL    HW274519   9.179   8.064   8.373  2.9600 -1.4804  0.9838
21851SOL     OW74520   1.055   7.939  11.341 -0.2637  0.1283  0.6301
21851SOL    HW174521   0.991   7.904  11.403 -2.5767  0.4446 -1.4210
21851SOL    HW274522   1.094   7.862  11.300  0.6455 -0.0659  1.8126
21852SOL     OW74523  11.852   5.080   8.263 -0.5277  0.0095 -0.3924
21852SOL    HW174524  11.858   5.099   8.169 -0.8090 -0.2874 -0.4746
21852SOL    HW274525  11.773   5.126   8.292 -1.7399 -1.6876 -0.7802
21853SOL     OW74526   7.375   0.337   0.690 -0.2813 -0.7432 -0.5039
21853SOL    HW174527   7.467   0.317   0.673  0.2399  0.2004  1.0058
21853SOL    HW274528   7.368   0.431   0.676 -0.6868 -0.5795  0.6820
21854SOL     OW74529   5.150   2.123   8.914 -0.3784 -0.1133  0.2471
21854SOL    HW174530   5.151   2.207   8.959 -0.6926 -0.0285  0.1010
21854SOL    HW274531   5.105   2.140   8.831 -1.1471 -0.5773  0.5469
21855SOL     OW74532   5.135   5.829   9.679  0.0089 -0.1296  0.1367
21855SOL    HW174533   5.042   5.852   9.687 -0.3597 -1.6887  0.6442
21855SOL    HW274534   5.181   5.905   9.716 -1.1341  0.0203  1.3493
21856SOL     OW74535   2.290   8.246   1.658 -0.6021  0.5468 -0.1918
21856SOL    HW174536   2.334   8.189   1.722  0.1490 -0.7813 -1.8257
21856SOL    HW274537   2.361   8.287   1.609 -1.1659  1.6795 -0.0896
21857SOL     OW74538  10.531   5.921   3.688  0.9585 -0.2822 -0.1599
21857SOL    HW174539  10.596   5.964   3.632  1.3333  0.6388  0.9542
21857SOL    HW274540  10.550   5.953   3.776 -0.4915 -0.6407  0.3073
21858SOL     OW74541   4.225   5.984   4.543 -0.1866 -0.0946  0.0264
21858SOL    HW174542   4.169   5.911   4.571 -1.2466  0.9281  0.6382
21858SOL    HW274543   4.256   5.958   4.456  1.4643 -2.3830  1.1998
21859SOL     OW74544   4.160  10.864   5.898  0.6407 -0.5624  0.3290
21859SOL    HW174545   4.210  10.783   5.906  0.7721 -0.6071 -0.7464
21859SOL    HW274546   4.069  10.837   5.899  0.6851 -0.7319 -0.0573
21860SOL     OW74547   7.142   3.514   5.582  0.2057 -0.2811 -0.3758
21860SOL    HW174548   7.157   3.530   5.675 -1.0270 -1.3418  0.0292
21860SOL    HW274549   7.148   3.601   5.542 -3.1848  0.8937  1.2925
21861SOL     OW74550   8.009  12.559   9.144 -0.4090 -1.1011  0.2369
21861SOL    HW174551   8.048  12.472   9.142 -0.1605 -0.9795 -0.4673
21861SOL    HW274552   8.016  12.591   9.054 -2.6280 -1.2871 -0.0659
21862SOL     OW74553   6.702  10.740   7.874 -0.0136  0.4233 -0.0921
21862SOL    HW174554   6.761  10.757   7.801 -0.2309  1.7496  0.0175
21862SOL    HW274555   6.616  10.731   7.833 -0.2487  1.8411  0.0127
21863SOL     OW74556   4.990   9.849   1.909 -0.2156 -0.0612 -0.0737
21863SOL    HW174557   5.075   9.894   1.907 -1.1984  1.8336 -1.6154
21863SOL    HW274558   4.981   9.810   1.822 -0.9030 -0.3385  0.1141
21864SOL     OW74559   7.830  10.795  10.444 -0.1661  0.3985  0.0829
21864SOL    HW174560   7.886  10.794  10.367  1.4955  1.6119  1.2062
21864SOL    HW274561   7.761  10.731  10.424  0.7591 -0.0552 -1.9633
21865SOL     OW74562   0.113  12.342  10.738 -0.0179 -0.1831 -0.0116
21865SOL    HW174563   0.086  12.373  10.824  1.3716  1.1419 -0.0055
21865SOL    HW274564   0.205  12.367  10.732 -0.2025  0.1613 -2.0639
21866SOL     OW74565   7.317   4.249   4.705  0.1094 -0.0449 -0.1685
21866SOL    HW174566   7.380   4.248   4.777 -2.0454  2.0148  1.9223
21866SOL    HW274567   7.284   4.159   4.700  2.4239 -0.9471 -0.7231
21867SOL     OW74568   2.829  10.523   7.997  0.3808 -0.1981 -0.1224
21867SOL    HW174569   2.860  10.453   8.054 -0.3367 -0.2004  0.2724
21867SOL    HW274570   2.864  10.502   7.911  0.6773 -0.7082  0.1242
21868SOL     OW74571   5.257   3.845   0.520 -0.3058 -0.2690  0.0801
21868SOL    HW174572   5.284   3.756   0.496 -0.2390 -0.3822  0.5645
21868SOL    HW274573   5.283   3.854   0.611  0.2766  0.4791 -0.1479
21869SOL     OW74574   7.117  10.580   2.205 -0.0414  0.1997  0.0864
21869SOL    HW174575   7.044  10.521   2.223 -2.0909  2.5787  0.1080
21869SOL    HW274576   7.109  10.601   2.112 -1.2708  2.6764  0.6476
21870SOL     OW74577   6.683   0.429   8.681 -0.0913  0.4183 -0.2734
21870SOL    HW174578   6.606   0.396   8.635 -0.7308  1.6143 -0.1189
21870SOL    HW274579   6.725   0.489   8.619 -0.5588  1.4944  0.4156
21871SOL     OW74580   6.017   6.871   2.136 -0.7512  0.0809  0.4542
21871SOL    HW174581   5.945   6.817   2.103  0.3931 -1.6362  0.5983
21871SOL    HW274582   6.029   6.841   2.227  0.2518  0.2048  0.3722
21872SOL     OW74583   0.755  12.518   4.951  0.4473  0.1613  0.1904
21872SOL    HW174584   0.680  12.578   4.955  1.9430  2.1134  3.0628
21872SOL    HW274585   0.735  12.450   5.015  0.4617 -0.2115 -0.1973
21873SOL     OW74586   1.798   1.691   5.048 -0.3833  0.2853 -0.6466
21873SOL    HW174587   1.812   1.742   5.128 -1.8407 -0.2953  0.0104
21873SOL    HW274588   1.769   1.755   4.983  1.9572  0.9711 -1.1214
21874SOL     OW74589   0.951   5.107   1.364  0.0812  0.2091 -0.1553
21874SOL    HW174590   1.030   5.147   1.402  0.3366 -1.2203  0.9044
21874SOL    HW274591   0.971   5.014   1.359 -1.3334 -0.1071 -0.4283
21875SOL     OW74592  10.833   0.859   2.579 -0.0476 -0.9014  0.2003
21875SOL    HW174593  10.794   0.875   2.493 -1.2650 -0.1023  0.8758
21875SOL    HW274594  10.762   0.876   2.641  1.1725 -0.1320  1.4402
21876SOL     OW74595   6.059   0.775   3.519 -0.0712 -0.0611 -0.7516
21876SOL    HW174596   6.011   0.822   3.451  0.6986 -0.4142 -1.5563
21876SOL    HW274597   6.068   0.686   3.485 -0.4976 -0.5079  0.2449
21877SOL     OW74598   5.297   2.716   1.757  0.4987  0.0391  0.3693
21877SOL    HW174599   5.308   2.695   1.664  1.8089  1.7459  0.0674
21877SOL    HW274600   5.207   2.691   1.777 -1.0058  2.5800 -2.2677
21878SOL     OW74601   8.514   3.984   8.153  0.4825  0.1516  0.4100
21878SOL    HW174602   8.477   4.071   8.139  2.3858  0.5283 -3.8387
21878SOL    HW274603   8.446   3.923   8.125  0.3416  0.4660  0.0698
21879SOL     OW74604   9.790   4.910   9.097 -0.0782 -0.0518  0.4509
21879SOL    HW174605   9.869   4.857   9.113 -0.5767 -0.0559  3.3425
21879SOL    HW274606   9.823   4.999   9.084  0.3955  0.1965  3.0098
21880SOL     OW74607  11.391  12.163   9.854  0.4198 -0.9528  0.0060
21880SOL    HW174608  11.302  12.197   9.861  1.1295  1.1849 -0.6044
21880SOL    HW274609  11.405  12.151   9.760  0.7521 -1.3759  0.1054
21881SOL     OW74610   3.798   5.151  11.009 -0.1428 -0.1414  0.1075
21881SOL    HW174611   3.840   5.230  10.976  0.7037 -0.5180  0.2424
21881SOL    HW274612   3.807   5.088  10.938  0.3204 -0.4894  0.4665
21882SOL     OW74613  10.542  10.833   1.788 -0.3138  0.4570 -0.1808
21882SOL    HW174614  10.595  10.877   1.855 -1.9750  2.7459 -0.2139
21882SOL    HW274615  10.605  10.804   1.723  1.4219 -2.2538  2.4572
21883SOL     OW74616  12.117   1.949  10.814  0.2211  0.2220 -0.1023
21883SOL    HW174617  12.097   1.951  10.908 -0.9674  0.1591 -0.3442
21883SOL    HW274618  12.151   2.037  10.795 -4.4375  2.1708 -0.6118
21884SOL     OW74619   5.284  10.692   7.939 -0.0891 -0.5664 -0.2176
21884SOL    HW174620   5.204  10.694   7.886  1.0531 -0.7475 -2.0355
21884SOL    HW274621   5.286  10.605   7.977 -1.2593 -0.2166  0.7154
21885SOL     OW74622   7.697   8.600   2.404  0.3411 -0.1844  0.3707
21885SOL    HW174623   7.617   8.548   2.416  0.5928 -0.7208 -0.2094
21885SOL    HW274624   7.763   8.553   2.454  0.5805 -0.4658 -0.1939
21886SOL     OW74625  12.288  12.400  10.754 -0.6429 -0.0691  0.0373
21886SOL    HW174626  12.346  12.399  10.677  0.1248 -1.1976  0.6069
21886SOL    HW274627  12.345  12.378  10.827 -1.6388 -0.3805  0.7372
21887SOL     OW74628   2.976   4.032   5.470  0.1412 -0.0474  0.1804
21887SOL    HW174629   3.007   4.116   5.436 -1.4900  0.6722  0.4020
21887SOL    HW274630   2.980   4.042   5.565  1.1988 -0.7333  0.2326
21888SOL     OW74631  10.684   6.192   2.149 -0.1872 -0.6531 -0.0644
21888SOL    HW174632  10.591   6.199   2.131  0.0356 -0.0380 -1.0623
21888SOL    HW274633  10.714   6.283   2.157  1.0458 -0.5382 -3.8798
21889SOL     OW74634   6.247   2.400   8.948 -0.2358 -0.5637  0.2505
21889SOL    HW174635   6.260   2.443   8.863 -0.9904 -2.8610 -1.1279
21889SOL    HW274636   6.162   2.430   8.978  0.0318  0.2601  0.1955
21890SOL     OW74637   6.458   5.300   2.016 -0.0776  0.0893  0.0656
21890SOL    HW174638   6.442   5.219   1.968  0.4885  0.0345 -0.0402
21890SOL    HW274639   6.520   5.348   1.961  0.5105  0.0672  0.6977
21891SOL     OW74640   5.817   1.624   6.018 -0.7867  0.3105  0.6446
21891SOL    HW174641   5.867   1.685   6.072 -0.5071 -0.3142  1.1110
21891SOL    HW274642   5.840   1.538   6.052 -0.8093 -0.0887 -0.3038
21892SOL     OW74643   9.791   1.359  10.655 -0.5378 -0.7034 -0.4844
21892SOL    HW174644   9.779   1.393  10.744 -2.6206 -1.5165 -0.4020
21892SOL    HW274645   9.821   1.435  10.605 -1.6789  0.4005  0.4279
21893SOL     OW74646   2.069   6.675   6.816  0.2342  0.1821 -0.0451
21893SOL    HW174647   2.119   6.650   6.894  0.4997 -0.8013 -0.5192
21893SOL    HW274648   1.977   6.665   6.842  0.3253 -0.4299  0.0585
21894SOL     OW74649   3.471   9.426   0.625  0.0428  0.1074  0.2225
21894SOL    HW174650   3.539   9.387   0.680  0.9550  0.4303 -0.6461
21894SOL    HW274651   3.435   9.497   0.678  2.7545  2.1890 -0.5015
21895SOL     OW74652   0.984   7.760  10.838 -0.4289  0.2727  0.1726
21895SOL    HW174653   0.963   7.806  10.919 -0.5322 -2.2269  1.6565
21895SOL    HW274654   0.899   7.745  10.797 -0.6524 -0.8937  1.0310
21896SOL     OW74655   4.760   0.729   4.878  0.5390  0.0457  0.8392
21896SOL    HW174656   4.686   0.749   4.935 -0.0718  2.4324 -0.6075
21896SOL    HW274657   4.837   0.749   4.930  0.0666  0.2619  1.4697
21897SOL     OW74658   9.338   4.996  10.301  0.2250 -0.2110  0.6177
21897SOL    HW174659   9.266   4.939  10.327  0.6883 -0.7758  0.6626
21897SOL    HW274660   9.301   5.084  10.305 -0.5559 -0.5243  0.3178
21898SOL     OW74661   1.601   7.466  12.532  0.1497  0.4084 -0.3550
21898SOL    HW174662   1.669   7.484  12.596 -0.8933 -0.1784  0.9630
21898SOL    HW274663   1.630   7.510  12.452  0.9065  2.1584  0.8443
21899SOL     OW74664  10.068  12.233   8.696 -0.4741  0.2652  0.2939
21899SOL    HW174665  10.115  12.232   8.779  0.0898 -0.7501 -0.0324
21899SOL    HW274666  10.098  12.313   8.653  0.2852  0.0798  0.4694
21900SOL     OW74667  10.089   2.460   2.948 -0.1216 -0.0506  0.3583
21900SOL    HW174668  10.066   2.392   2.885  0.1070 -0.4963  0.7487
21900SOL    HW274669  10.150   2.417   3.009  0.8457  0.7714  0.0115
21901SOL     OW74670   2.749  11.248   0.658  0.1587  0.2801  0.4858
21901SOL    HW174671   2.672  11.191   0.648  0.7041 -0.3243 -0.3791
21901SOL    HW274672   2.821  11.187   0.673  0.4357  0.8644  1.6211
21902SOL     OW74673   6.022   4.700  10.772 -0.8459  0.7303 -0.0215
21902SOL    HW174674   6.048   4.786  10.804 -0.8393  0.4604  0.7425
21902SOL    HW274675   6.095   4.670  10.718 -0.6817  1.0463  0.0260
21903SOL     OW74676   6.282   6.027   4.745 -0.0446 -0.4021  0.5298
21903SOL    HW174677   6.240   6.039   4.830  1.0358 -3.3887  1.6478
21903SOL    HW274678   6.369   5.994   4.766  1.0367  0.8092 -1.7579
21904SOL     OW74679   8.394   6.127   2.966  0.1468 -0.2319 -0.0717
21904SOL    HW174680   8.313   6.095   2.925 -0.3458 -2.2078  2.2163
21904SOL    HW274681   8.452   6.146   2.892 -1.8161 -0.3304 -1.7414
21905SOL     OW74682   6.859  10.066  11.144 -0.5293  0.3434  0.0564
21905SOL    HW174683   6.906  10.047  11.063 -1.0925 -0.8493 -0.0090
21905SOL    HW274684   6.891  10.001  11.207 -1.7509 -0.2314  0.1246
21906SOL     OW74685   9.989   9.831   7.636 -0.1240  0.0886 -0.0129
21906SOL    HW174686  10.077   9.839   7.674  0.2834 -0.8444 -0.7137
21906SOL    HW274687   9.962   9.921   7.620 -0.4143  0.5615  2.6458
21907SOL     OW74688   5.262   1.979   2.897 -0.4320  0.3696  0.0864
21907SOL    HW174689   5.341   1.943   2.937 -0.4424  1.3874  1.0878
21907SOL    HW274690   5.287   2.001   2.808  0.4850  0.8415  0.4510
21908SOL     OW74691  10.246   6.774   6.911  0.6535 -0.2901 -0.2950
21908SOL    HW174692  10.332   6.779   6.870  1.4674 -0.6082  1.2926
21908SOL    HW274693  10.218   6.865   6.920  1.2055 -0.1386 -0.0726
21909SOL     OW74694   0.893  10.688   8.713 -0.0942  0.2362 -0.3494
21909SOL    HW174695   0.902  10.622   8.781 -1.8178  0.6159  0.2865
21909SOL    HW274696   0.936  10.765   8.748  0.5165 -0.0668 -0.4222
21910SOL     OW74697  11.455  11.625   3.846  0.3003  0.3369  0.0802
21910SOL    HW174698  11.409  11.631   3.930 -1.2354  0.3432 -0.7438
21910SOL    HW274699  11.431  11.705   3.799 -0.5520 -0.6449 -1.2006
21911SOL     OW74700   7.808   7.607   4.759  0.2758  0.3158  0.0220
21911SOL    HW174701   7.820   7.575   4.848 -0.5117 -1.7232 -0.5604
21911SOL    HW274702   7.714   7.611   4.747  0.3788  0.5885 -0.7249
21912SOL     OW74703   2.808   1.948   1.015  0.0015  0.0415  0.0148
21912SOL    HW174704   2.892   1.903   1.005  1.3194  2.0605  1.2219
21912SOL    HW274705   2.830   2.041   1.003 -2.4136  0.5000 -1.4495
21913SOL     OW74706   9.249  11.894   4.124  0.1010 -0.5548 -0.0130
21913SOL    HW174707   9.230  11.801   4.119  0.4754 -0.6357  0.0411
21913SOL    HW274708   9.169  11.934   4.156 -0.1308 -0.8320 -0.2452
21914SOL     OW74709   1.698   5.319  10.764  0.3016 -0.3636 -0.1376
21914SOL    HW174710   1.771   5.304  10.705 -0.7522  1.1932 -1.9366
21914SOL    HW274711   1.655   5.397  10.730 -0.5844  0.4050  2.5123
21915SOL     OW74712   7.870   7.858   7.079 -0.0916 -0.1885  0.2101
21915SOL    HW174713   7.824   7.932   7.120 -0.0992 -1.5299  2.8250
21915SOL    HW274714   7.807   7.822   7.017 -0.2389  1.7055 -0.8089
21916SOL     OW74715   8.393   5.288   8.153 -0.3542 -0.0990  0.4825
21916SOL    HW174716   8.306   5.305   8.117 -0.2488 -1.5174 -0.4920
21916SOL    HW274717   8.396   5.193   8.166  0.9470 -0.0360  0.7654
21917SOL     OW74718   8.251   8.439   4.716 -0.6214 -0.2497 -0.4842
21917SOL    HW174719   8.196   8.366   4.746 -0.5795  0.0266  0.2891
21917SOL    HW274720   8.341   8.410   4.733 -0.5147 -0.6727 -1.6883
21918SOL     OW74721   2.834  10.539  11.053  0.7493 -0.4691  0.1432
21918SOL    HW174722   2.758  10.528  10.995  1.4012 -1.3367 -0.5774
21918SOL    HW274723   2.801  10.514  11.140  0.2479 -1.0151 -0.1914
21919SOL     OW74724   9.096   7.889   6.989 -0.3341 -0.2490 -0.0297
21919SOL    HW174725   9.073   7.976   6.956 -0.6950 -0.4880 -0.4174
21919SOL    HW274726   9.012   7.846   7.004 -0.1705 -0.2765  0.8595
21920SOL     OW74727   0.780   3.353   2.139 -0.1437  0.0196 -0.4676
21920SOL    HW174728   0.725   3.292   2.090 -0.5025  1.6844 -2.2441
21920SOL    HW274729   0.756   3.337   2.230  0.8122 -3.4551 -0.6597
21921SOL     OW74730   2.508  11.545  11.049  0.0981 -0.4770 -0.0417
21921SOL    HW174731   2.427  11.593  11.031 -0.2029 -0.9658  0.0023
21921SOL    HW274732   2.488  11.454  11.028  0.6320 -0.6065 -0.0139
21922SOL     OW74733   4.220   7.753   3.360  0.2623  0.0754  0.0345
21922SOL    HW174734   4.219   7.765   3.265  2.4212  0.5401  0.0140
21922SOL    HW274735   4.229   7.842   3.395  0.3932 -0.1668  0.6288
21923SOL     OW74736  10.960   4.342   4.336  0.1552 -0.0776 -0.3721
21923SOL    HW174737  10.975   4.407   4.405  0.5637  2.1273 -2.3905
21923SOL    HW274738  11.045   4.336   4.291 -0.3047 -0.8582 -1.1559
21924SOL     OW74739   0.997   3.424   1.016 -0.4234  0.0174 -0.3694
21924SOL    HW174740   1.031   3.356   0.958 -0.3220  0.5552 -0.9491
21924SOL    HW274741   1.050   3.416   1.096  1.1602  0.8992 -1.2845
21925SOL     OW74742   4.975  11.813   9.412 -0.0188 -0.1110  0.1306
21925SOL    HW174743   4.938  11.897   9.384 -3.4288 -1.4334  0.2560
21925SOL    HW274744   4.917  11.782   9.481  2.5489 -1.5313  1.8441
21926SOL     OW74745  11.710   0.006  10.862  0.3931 -0.5180 -0.0617
21926SOL    HW174746  11.642   0.016  10.796  1.3762 -0.2437 -1.0559
21926SOL    HW274747  11.669  -0.045  10.931 -1.2446  0.7856 -0.0118
21927SOL     OW74748   8.762   4.455   7.599 -0.2698 -0.4373 -0.0483
21927SOL    HW174749   8.752   4.526   7.662  0.2589 -0.3953 -0.0099
21927SOL    HW274750   8.672   4.432   7.574 -0.4345  0.7875 -0.6600
21928SOL     OW74751   4.697   3.568  10.439 -0.0255 -0.0108 -0.5908
21928SOL    HW174752   4.627   3.588  10.502  0.6135  0.6934 -0.0890
21928SOL    HW274753   4.732   3.653  10.414  1.2569 -0.3721 -0.1362
21929SOL     OW74754   2.793   0.014   1.490  0.1954 -0.4343 -0.1397
21929SOL    HW174755   2.830  -0.022   1.410  0.1200 -0.5822 -0.1081
21929SOL    HW274756   2.715  -0.039   1.507 -0.4745  0.3815 -0.6281
21930SOL     OW74757  11.557  10.472  11.355 -0.1163 -0.5021  0.4013
21930SOL    HW174758  11.633  10.414  11.348  0.1928  0.0206 -1.0303
21930SOL    HW274759  11.569  10.518  11.438  1.4324 -0.0398 -0.0442
21931SOL     OW74760   2.980   3.814   3.940 -0.2502  0.0207  0.4512
21931SOL    HW174761   3.018   3.775   3.861  0.7403  0.7902  0.5201
21931SOL    HW274762   2.994   3.749   4.009 -0.9346 -0.5677  0.0384
21932SOL     OW74763  10.219   0.214   1.432 -0.0252 -0.2874  0.1605
21932SOL    HW174764  10.124   0.209   1.419  0.0855 -0.6570 -0.5882
21932SOL    HW274765  10.256   0.193   1.346  0.7230  1.3956  0.0322
21933SOL     OW74766   7.253   7.506  12.040  0.2905  0.2541 -0.1326
21933SOL    HW174767   7.244   7.510  11.945  0.7537  0.8042 -0.1583
21933SOL    HW274768   7.316   7.575  12.061  0.4887 -0.1256  0.5379
21934SOL     OW74769  10.155   3.517   0.190  0.4806  0.0668  0.6443
21934SOL    HW174770  10.131   3.521   0.282  1.8507  2.9746  0.9779
21934SOL    HW274771  10.079   3.553   0.144  1.0737  1.9118  1.0159
21935SOL     OW74772   6.248   6.909   9.575 -0.1624  0.2443 -0.0859
21935SOL    HW174773   6.202   6.825   9.567 -0.3609  0.3235  0.1824
21935SOL    HW274774   6.277   6.929   9.486 -0.2055 -0.0576 -0.1708
21936SOL     OW74775   0.246   4.451   7.762 -0.2090 -0.2350 -0.1212
21936SOL    HW174776   0.295   4.528   7.791 -1.2796  0.2593  0.4130
21936SOL    HW274777   0.311   4.380   7.765  0.7685  0.6057 -0.5325
21937SOL     OW74778   8.608   0.332  12.525 -0.0308  0.5802 -0.4524
21937SOL    HW174779   8.581   0.411  12.572  0.7024  0.7602 -0.3155
21937SOL    HW274780   8.607   0.263  12.592 -0.4620  0.5162 -0.5228
21938SOL     OW74781   5.514   6.637   9.341 -0.3606  0.0987 -0.4763
21938SOL    HW174782   5.583   6.571   9.335  0.2685  0.4406  1.9766
21938SOL    HW274783   5.559   6.720   9.329 -0.7842  0.2175 -1.3306
21939SOL     OW74784   9.795   6.082   8.159  0.7128  0.2138 -0.1000
21939SOL    HW174785   9.843   6.014   8.206 -0.0890  0.6155  1.3492
21939SOL    HW274786   9.723   6.036   8.116  2.6708 -0.5400 -2.9715
21940SOL     OW74787   9.741   5.851   6.751 -0.1156  0.0843 -0.2129
21940SOL    HW174788   9.744   5.863   6.657  1.4363 -2.2034 -0.5076
21940SOL    HW274789   9.827   5.877   6.782 -0.1012 -0.6205  0.3665
21941SOL     OW74790   6.279   2.965   1.717  0.3508 -0.1012 -0.2760
21941SOL    HW174791   6.374   2.968   1.707  0.2495  0.9236 -1.0283
21941SOL    HW274792   6.259   2.871   1.720  1.2148 -0.3854 -1.9357
21942SOL     OW74793   9.038   9.552   3.840 -0.1689 -0.3448  0.7345
21942SOL    HW174794   9.097   9.519   3.772 -3.3424 -1.1577 -1.8981
21942SOL    HW274795   9.054   9.646   3.843 -2.2280  0.3953 -3.8947
21943SOL     OW74796   4.936   3.430   6.056 -0.0641  0.0457 -0.0754
21943SOL    HW174797   5.031   3.423   6.049  0.0099  0.9148 -0.0831
21943SOL    HW274798   4.902   3.375   5.985  0.4560  0.5753 -0.7444
21944SOL     OW74799   2.718   8.915   7.895  0.1247  0.0219  0.3207
21944SOL    HW174800   2.681   8.827   7.906 -0.2812  0.0506 -0.6518
21944SOL    HW274801   2.776   8.927   7.970 -1.3208 -0.3018  1.5400
21945SOL     OW74802   9.545   9.711   5.925  0.1329 -0.0609  0.3170
21945SOL    HW174803   9.599   9.635   5.945 -1.2352 -0.7016  1.8098
21945SOL    HW274804   9.590   9.784   5.966 -0.0191 -0.5530  1.3925
21946SOL     OW74805   7.558   4.100   3.429  0.5464  0.1850  0.0949
21946SOL    HW174806   7.631   4.126   3.485  0.7970  1.7916 -0.9272
21946SOL    HW274807   7.511   4.181   3.411  0.7661 -0.1690 -2.4045
21947SOL     OW74808   8.579   8.569   6.928 -0.2244 -0.1882 -0.7464
21947SOL    HW174809   8.642   8.498   6.924  1.0087  0.7216  1.1489
21947SOL    HW274810   8.556   8.576   7.021 -1.6475  0.7718 -1.1275
21948SOL     OW74811  10.099   2.066   1.023 -0.0941 -1.0134  0.3306
21948SOL    HW174812  10.005   2.081   1.011  0.0992 -0.4484 -0.5350
21948SOL    HW274813  10.118   2.105   1.108 -0.3536  0.2850 -0.1880
21949SOL     OW74814  11.668   0.832   1.041  0.1722 -0.5968 -0.4566
21949SOL    HW174815  11.598   0.814   0.979 -0.1452 -3.7648  0.6372
21949SOL    HW274816  11.623   0.863   1.120  0.2687  0.0214 -0.6393
21950SOL     OW74817   1.682   8.134  10.108 -0.2259  0.0271 -0.4964
21950SOL    HW174818   1.615   8.155  10.044 -1.2217 -1.0341  0.1523
21950SOL    HW274819   1.758   8.107  10.057 -0.6621  0.1934 -1.2357
21951SOL     OW74820  12.498  12.086   8.446  0.2243  0.4295 -0.3394
21951SOL    HW174821  12.511  12.179   8.428 -0.2632  0.4094 -0.8153
21951SOL    HW274822  12.414  12.083   8.492  0.6455  0.3047  0.4432
21952SOL     OW74823   3.547  11.266   3.516  0.2703 -0.5907  0.0191
21952SOL    HW174824   3.459  11.276   3.553  0.2602  0.8169 -0.3458
21952SOL    HW274825   3.600  11.236   3.589 -0.3589 -0.7557  0.4213
21953SOL     OW74826   2.180  11.380   4.550 -0.3053 -0.1158  0.2578
21953SOL    HW174827   2.165  11.467   4.588  0.1117 -0.3548  1.0091
21953SOL    HW274828   2.251  11.392   4.487  1.1404 -0.2347  1.7863
21954SOL     OW74829  10.590   8.905   0.775  0.5833 -0.0347  0.1824
21954SOL    HW174830  10.512   8.916   0.828 -0.2333 -0.6997 -0.8379
21954SOL    HW274831  10.653   8.968   0.810 -0.3124  0.3241  1.1807
21955SOL     OW74832  11.351   3.872  11.123  0.4706 -0.0212 -0.2653
21955SOL    HW174833  11.407   3.872  11.201 -0.1719 -0.3037  0.2051
21955SOL    HW274834  11.393   3.811  11.063  0.0935 -1.0746  0.5145
21956SOL     OW74835  12.058  10.872   3.186 -0.2485  0.0846  0.0141
21956SOL    HW174836  12.101  10.801   3.233 -1.3334 -0.1085  0.7739
21956SOL    HW274837  12.103  10.951   3.216  0.1778 -0.1822  0.0839
21957SOL     OW74838   6.192   8.089   8.446 -0.1271  0.2360 -0.2910
21957SOL    HW174839   6.191   8.180   8.476 -1.0502  0.7339 -1.7320
21957SOL    HW274840   6.225   8.094   8.356 -2.2813 -0.5532 -1.1959
21958SOL     OW74841   6.316  10.435  11.253 -0.2215 -0.4322  0.5090
21958SOL    HW174842   6.303  10.363  11.314  0.3530 -0.1937  0.9151
21958SOL    HW274843   6.401  10.417  11.212  1.0180  1.1626  2.2257
21959SOL     OW74844  10.121   4.620   5.932 -0.0504 -0.4618 -0.2440
21959SOL    HW174845  10.094   4.672   5.856 -0.1120  0.3902  0.3493
21959SOL    HW274846  10.197   4.666   5.967  0.7355 -1.5213 -0.4885
21960SOL     OW74847  12.050  11.413   3.540 -0.0067  0.0040 -0.0535
21960SOL    HW174848  12.058  11.398   3.635 -0.3142  1.2784  0.2029
21960SOL    HW274849  11.968  11.371   3.516  0.0417 -0.2781  0.2674
21961SOL     OW74850   0.315   1.631   8.868  0.6557  0.0228  0.3803
21961SOL    HW174851   0.325   1.547   8.822 -0.2979 -0.0772  0.3282
21961SOL    HW274852   0.221   1.648   8.866  0.6706  0.3805  1.6601
21962SOL     OW74853   3.137   4.579   3.165  0.1195 -0.7495 -0.4293
21962SOL    HW174854   3.059   4.571   3.110 -0.1921  0.9841 -0.3102
21962SOL    HW274855   3.184   4.655   3.130  2.1518 -2.1534 -0.9261
21963SOL     OW74856   9.432   8.649  11.454  0.1921  0.0448 -0.0144
21963SOL    HW174857   9.525   8.673  11.461  0.0726  0.4467  0.1917
21963SOL    HW274858   9.397   8.659  11.542 -0.1875  0.4710 -0.2129
21964SOL     OW74859   2.570   0.578   0.591 -0.3177  0.2576  0.4386
21964SOL    HW174860   2.615   0.520   0.528 -2.1303  0.2764 -0.9740
21964SOL    HW274861   2.574   0.665   0.551 -2.9586 -0.0014 -0.6431
21965SOL     OW74862   3.970   0.401   2.046  0.1337 -0.0794  0.1100
21965SOL    HW174863   4.015   0.356   1.974  3.0516  2.1923  0.3197
21965SOL    HW274864   4.032   0.398   2.119 -1.7557 -0.2113  1.8056
21966SOL     OW74865  10.454   3.780  10.962 -0.3604  0.2029 -0.2740
21966SOL    HW174866  10.391   3.726  11.010 -1.7568  1.3102 -0.7831
21966SOL    HW274867  10.484   3.844  11.026 -1.8614  1.3828 -0.7124
21967SOL     OW74868   1.064  10.980  10.282 -0.1610  0.3706 -0.0287
21967SOL    HW174869   1.028  11.020  10.362  0.9937  0.4456  0.4684
21967SOL    HW274870   1.098  11.054  10.232  2.6853  0.0386  1.2443
21968SOL     OW74871   5.006   6.404   1.959 -0.0521 -0.3223  0.5057
21968SOL    HW174872   5.009   6.332   1.897  0.5232  1.6783 -1.9666
21968SOL    HW274873   4.912   6.419   1.974 -0.1756 -1.3971  0.8754
21969SOL     OW74874   0.218   0.731   4.960  0.3005 -0.0828  0.1139
21969SOL    HW174875   0.257   0.650   4.928  1.2440 -0.0367  1.1095
21969SOL    HW274876   0.143   0.745   4.903  0.2095 -1.5763 -0.1781
21970SOL     OW74877  12.394   2.912   4.372 -0.2548 -0.2183  0.3115
21970SOL    HW174878  12.442   2.994   4.379 -1.1577  0.2260  1.5860
21970SOL    HW274879  12.449   2.857   4.316  1.6262  0.3568  1.4962
21971SOL     OW74880   1.613   1.107   7.624  0.2622  0.4259 -0.2395
21971SOL    HW174881   1.630   1.023   7.580 -0.6232  0.3794 -0.5195
21971SOL    HW274882   1.621   1.172   7.554 -2.8680  0.1963 -0.9554
21972SOL     OW74883   4.014   6.132   4.463 -0.0309  0.0683 -0.9198
21972SOL    HW174884   4.095   6.083   4.480  1.5337  2.6395 -0.5392
21972SOL    HW274885   4.042   6.210   4.417 -2.4992  0.4726 -1.8680
21973SOL     OW74886   3.938   2.013  12.121  0.6639  0.4492 -0.0572
21973SOL    HW174887   3.991   1.951  12.171  0.7536  0.9358  0.4540
21973SOL    HW274888   3.990   2.030  12.042 -0.7729 -2.6061 -1.8566
21974SOL     OW74889   5.513  10.279   7.290  0.1125 -0.0528  0.0177
21974SOL    HW174890   5.539  10.199   7.246  0.0146 -0.9006  1.4408
21974SOL    HW274891   5.496  10.341   7.219  2.9925 -0.3693 -1.0576
21975SOL     OW74892   3.618  11.201   0.526 -0.0761 -1.0310  0.0921
21975SOL    HW174893   3.610  11.251   0.607 -0.0032 -0.2640 -0.3583
21975SOL    HW274894   3.532  11.159   0.515  0.2820 -2.0956  1.1545
21976SOL     OW74895  10.323   9.919   0.380  0.3001  0.2259 -0.0374
21976SOL    HW174896  10.256   9.950   0.441  0.9180 -0.4095  1.0066
21976SOL    HW274897  10.362   9.843   0.425  1.0933  0.0364 -1.0250
21977SOL     OW74898   0.848   8.567   9.471 -0.2189  0.0800 -0.3922
21977SOL    HW174899   0.927   8.515   9.464 -0.3079  0.0110 -0.9554
21977SOL    HW274900   0.803   8.533   9.549 -0.4926 -0.9924 -0.9937
21978SOL     OW74901  10.501   5.593   3.387 -0.2918  0.6364 -0.4622
21978SOL    HW174902  10.534   5.529   3.325 -2.2355 -1.2078  0.2925
21978SOL    HW274903  10.425   5.632   3.345 -1.9716 -1.0310  0.8427
21979SOL     OW74904   2.023   7.365  11.770  0.3102 -0.3388 -0.2860
21979SOL    HW174905   2.006   7.313  11.848  1.3572  1.2302  1.0614
21979SOL    HW274906   2.019   7.456  11.800 -0.0679  0.3475 -2.2434
21980SOL     OW74907   9.400   3.279  11.541 -0.1359 -0.1389  0.2396
21980SOL    HW174908   9.336   3.284  11.612 -0.8591 -1.5083 -0.2803
21980SOL    HW274909   9.484   3.292  11.584 -0.6006 -0.4118  1.2757
21981SOL     OW74910  10.021  11.197   3.017 -0.1230 -0.2594  0.3759
21981SOL    HW174911  10.055  11.153   2.939  0.3157  0.1073  0.3586
21981SOL    HW274912  10.013  11.289   2.991  1.3743  0.1384  1.1858
21982SOL     OW74913   7.977   1.990   5.185  0.0848  0.2153  0.4095
21982SOL    HW174914   8.049   1.950   5.136 -1.1124 -1.3067 -0.1745
21982SOL    HW274915   7.955   1.924   5.252 -2.6186 -0.6879 -1.2282
21983SOL     OW74916   6.711   8.760   1.164 -0.0827 -0.0791 -0.3498
21983SOL    HW174917   6.736   8.833   1.107  1.2338 -0.3169 -0.0973
21983SOL    HW274918   6.644   8.797   1.222 -0.7478  0.4234 -1.4042
21984SOL     OW74919   2.992   3.329   0.517  0.5236  0.0795  0.1299
21984SOL    HW174920   2.927   3.337   0.448 -2.0694  0.5319  2.4444
21984SOL    HW274921   3.017   3.237   0.516  1.1954  0.2324 -1.8599
21985SOL     OW74922  12.092  11.246   9.696 -0.1401 -0.0851  0.2908
21985SOL    HW174923  12.131  11.331   9.717  1.1403 -0.1488 -1.5172
21985SOL    HW274924  12.145  11.183   9.743 -0.6524  0.0627  1.0787
21986SOL     OW74925   0.763   2.432   7.885  0.4120  0.1467 -0.1947
21986SOL    HW174926   0.768   2.343   7.850  0.2497  0.0966 -0.0921
21986SOL    HW274927   0.852   2.466   7.877  1.1462 -0.9993  2.3289
21987SOL     OW74928   6.152   9.945   1.761 -0.2499 -0.2353  0.2099
21987SOL    HW174929   6.087   9.900   1.707 -0.9602 -0.3961  1.1628
21987SOL    HW274930   6.126   9.924   1.851 -0.0732  1.3465  0.6521
21988SOL     OW74931  11.868  10.155   1.373 -0.2399  0.3960 -0.0568
21988SOL    HW174932  11.777  10.153   1.400 -0.1308  1.9866  0.5566
21988SOL    HW274933  11.896  10.063   1.373 -1.7576 -0.0845 -0.0365
21989SOL     OW74934   4.159  10.563  11.780  0.6370 -0.5254  0.1174
21989SOL    HW174935   4.065  10.571  11.793  0.2843  2.9598 -3.1322
21989SOL    HW274936   4.196  10.643  11.817  2.3260 -1.5739  0.8487
21990SOL     OW74937  10.283   3.614   3.405 -0.5172 -0.0787 -0.4288
21990SOL    HW174938  10.250   3.560   3.477 -0.9827 -0.1944 -0.7283
21990SOL    HW274939  10.307   3.697   3.446  0.5230 -0.6166  0.0979
21991SOL     OW74940   8.380  10.329  12.268 -0.7401 -0.5716  0.1328
21991SOL    HW174941   8.437  10.381  12.325 -0.5870 -1.0810  0.4519
21991SOL    HW274942   8.309  10.388  12.245 -0.3843 -0.1113  0.2072
21992SOL     OW74943  12.440   9.689   1.034 -0.6503 -0.3277 -0.6962
21992SOL    HW174944  12.451   9.702   0.939 -1.1609 -0.4716 -0.7789
21992SOL    HW274945  12.412   9.598   1.042  0.1264 -0.5385 -0.3440
21993SOL     OW74946   8.444   4.959   6.589 -0.1339  0.4438 -0.1505
21993SOL    HW174947   8.376   5.002   6.538 -0.1499 -0.3869 -0.8431
21993SOL    HW274948   8.522   4.964   6.533 -0.4704 -1.6732 -0.9070
21994SOL     OW74949   8.464   1.208   3.701 -0.1440  0.0901 -0.5963
21994SOL    HW174950   8.396   1.276   3.697 -0.4615 -0.2671 -1.6091
21994SOL    HW274951   8.422   1.130   3.664  0.6498 -0.2743 -0.7392
21995SOL     OW74952  11.802  10.785  10.387  1.0578 -0.5171 -0.5723
21995SOL    HW174953  11.869  10.760  10.451  1.3710 -0.6638 -0.9484
21995SOL    HW274954  11.807  10.880  10.384  1.2329 -0.5252 -0.5750
21996SOL     OW74955   7.255   3.297   7.932  0.0370  0.6040  0.0179
21996SOL    HW174956   7.333   3.333   7.888 -0.9330  3.2031  0.2648
21996SOL    HW274957   7.189   3.366   7.923 -1.5165 -0.5719  1.8584
21997SOL     OW74958   0.475   5.066  10.077  0.1337  0.0163 -0.0274
21997SOL    HW174959   0.451   5.034  10.164 -0.9872 -1.3101 -0.7747
21997SOL    HW274960   0.568   5.044  10.069  0.1964 -0.0494  0.7511
21998SOL     OW74961   4.937   1.982   2.710  0.4183  0.0059  0.1562
21998SOL    HW174962   4.914   1.910   2.651  0.0663  0.2601 -0.0182
21998SOL    HW274963   4.930   1.944   2.798  0.0022 -0.1098  0.0746
21999SOL     OW74964   5.157  10.157  11.694  0.2961  0.0652 -0.4140
21999SOL    HW174965   5.088  10.144  11.759  0.8845 -0.0043  0.2028
21999SOL    HW274966   5.163  10.252  11.684 -1.2028  0.0505 -1.9081
22000SOL     OW74967  12.063   4.487   9.068  1.1019 -0.0436 -0.6707
22000SOL    HW174968  12.108   4.572   9.059  1.1585  0.0470  0.3462
22000SOL    HW274969  11.990   4.505   9.127  0.1402 -0.3539 -1.7565
22001SOL     OW74970   8.730   3.568   2.730  0.6496  0.0161 -0.2085
22001SOL    HW174971   8.709   3.615   2.649  1.8672  0.7691 -0.1110
22001SOL    HW274972   8.819   3.596   2.752  0.5732 -0.6497  1.0601
22002SOL     OW74973  10.376   2.006   0.158  0.0445  0.0679  0.4724
22002SOL    HW174974  10.436   1.931   0.163 -0.5336 -0.3342  1.9109
22002SOL    HW274975  10.430   2.076   0.122  1.3197 -0.3629  1.4511
22003SOL     OW74976   8.383   6.429  12.156 -0.3459  0.3460 -0.5341
22003SOL    HW174977   8.346   6.458  12.239  1.8186 -0.4603  0.8186
22003SOL    HW274978   8.477   6.426  12.172  0.0763 -0.5598 -2.7993
22004SOL     OW74979   6.158  11.256   0.414 -0.2855  0.3542 -0.1961
22004SOL    HW174980   6.066  11.281   0.410 -0.2876  0.2833 -0.6220
22004SOL    HW274981   6.158  11.171   0.458 -0.3296  0.8092  0.7066
22005SOL     OW74982   2.213  12.143   6.927 -0.1701 -0.2296  0.3415
22005SOL    HW174983   2.228  12.112   6.838 -1.2512 -1.0133  0.4153
22005SOL    HW274984   2.192  12.064   6.977  1.8957 -0.0148  1.6585
22006SOL     OW74985   5.735   8.956   0.296  0.3008  0.5188  0.1116
22006SOL    HW174986   5.707   8.897   0.366  1.1849  1.2591  1.1298
22006SOL    HW274987   5.657   8.969   0.243  0.1974 -1.9698 -0.4694
22007SOL     OW74988   9.443   0.148   5.658 -0.0556  0.0797 -0.1313
22007SOL    HW174989   9.428   0.099   5.739  1.2279  0.5064  0.3745
22007SOL    HW274990   9.405   0.092   5.590  0.3265 -1.0780  0.5688
22008SOL     OW74991   6.683   8.041   7.733 -0.1158 -0.3140 -0.0132
22008SOL    HW174992   6.763   8.089   7.711 -0.6891  0.6899  0.0290
22008SOL    HW274993   6.637   8.097   7.795 -1.2974 -0.4377 -0.7384
22009SOL     OW74994   9.652   4.940   6.389  0.3145  0.0701 -0.4013
22009SOL    HW174995   9.743   4.943   6.419 -0.5397  0.8649  2.3895
22009SOL    HW274996   9.626   4.849   6.400  1.1110 -0.4788 -2.5660
22010SOL     OW74997  10.327   1.943  11.294  0.4271 -0.6471 -0.4663
22010SOL    HW174998  10.387   1.955  11.220  1.0965 -1.6897 -0.1196
22010SOL    HW274999  10.282   1.860  11.276 -0.5214 -0.1513 -0.4442
22011SOL     OW75000  10.487  11.480   7.123  0.3641  0.0099  0.9168
22011SOL    HW175001  10.556  11.423   7.088 -0.6631 -0.5550 -0.2659
22011SOL    HW275002  10.493  11.469   7.218  0.7911 -1.3622  0.7538
22012SOL     OW75003   5.986   6.346   6.245 -0.0356  0.0547 -0.1101
22012SOL    HW175004   6.080   6.331   6.246 -0.1233 -0.6087 -1.2848
22012SOL    HW275005   5.964   6.356   6.153 -0.8442  2.0442  0.2468
22013SOL     OW75006   2.017   2.574   3.581  0.0420  0.1627 -0.2848
22013SOL    HW175007   2.103   2.588   3.619 -0.2377  1.6842 -0.1503
22013SOL    HW275008   2.033   2.564   3.487  0.4614 -0.8588 -0.1214
22014SOL     OW75009   3.649   1.515  12.187  0.1335  0.0947  0.0407
22014SOL    HW175010   3.593   1.438  12.178  0.4778 -0.2610  0.8707
22014SOL    HW275011   3.601   1.585  12.142 -0.2081 -0.5850 -0.6661
22015SOL     OW75012   3.347  10.831   9.369  0.0711  0.6379  0.2560
22015SOL    HW175013   3.271  10.848   9.424  0.9915  1.8074  1.2135
22015SOL    HW275014   3.379  10.745   9.398 -0.0852  0.7607  0.8012
22016SOL     OW75015   9.241   7.537   2.952  0.3901  0.0107 -0.1970
22016SOL    HW175016   9.307   7.596   2.917  0.6013 -1.0045 -1.5853
22016SOL    HW275017   9.158   7.568   2.915  0.4914 -0.5029 -0.8680
22017SOL     OW75018   5.814  10.886  12.141 -0.4745  0.0060  0.1591
22017SOL    HW175019   5.746  10.819  12.154 -0.6111 -0.1590 -1.2368
22017SOL    HW275020   5.803  10.914  12.050  1.3848 -0.1025 -0.1495
22018SOL     OW75021   2.845   2.782  10.073  0.1824 -0.0548 -0.0935
22018SOL    HW175022   2.928   2.735  10.071 -0.3918 -1.0908 -0.0916
22018SOL    HW275023   2.827   2.803   9.982  0.5848  0.4486 -0.0645
22019SOL     OW75024   8.271   2.532   6.229  0.4412  0.3126 -0.0033
22019SOL    HW175025   8.238   2.507   6.315  1.0690 -0.6870 -0.0274
22019SOL    HW275026   8.195   2.567   6.183 -0.2861 -0.6950  0.3916
22020SOL     OW75027   8.903   8.279   8.325 -0.3218  0.0214 -0.8964
22020SOL    HW175028   8.961   8.227   8.268 -0.6817 -0.6356 -0.6730
22020SOL    HW275029   8.956   8.296   8.403 -1.1600 -2.6292  0.3624
22021SOL     OW75030  12.342   6.231   4.376 -0.1542 -0.1068 -0.3519
22021SOL    HW175031  12.371   6.222   4.285  0.0817 -0.5022 -0.2403
22021SOL    HW275032  12.252   6.262   4.370  0.5827  2.1309 -0.6997
22022SOL     OW75033   9.680   1.408   2.149 -0.1245 -0.0040 -0.1059
22022SOL    HW175034   9.587   1.385   2.154  0.2748 -1.4209  2.5268
22022SOL    HW275035   9.680   1.504   2.158 -1.2958 -0.1350  2.0777
22023SOL     OW75036   9.806   5.327   1.208  0.2560  0.0117 -0.2070
22023SOL    HW175037   9.851   5.410   1.223  1.1525 -0.5513  0.2705
22023SOL    HW275038   9.818   5.278   1.289 -0.0229 -0.6999 -0.5915
22024SOL     OW75039   0.362   9.682   8.013  0.2848 -0.1292 -0.2466
22024SOL    HW175040   0.381   9.680   7.919 -0.7242 -0.7504 -0.4504
22024SOL    HW275041   0.269   9.703   8.018  0.3518 -0.0048  0.6256
22025SOL     OW75042   1.756  12.011   8.264  0.3426  0.3679 -0.4829
22025SOL    HW175043   1.745  11.985   8.172  1.8679  1.1873 -0.9328
22025SOL    HW275044   1.709  12.094   8.272  1.1919  0.9011 -0.8590
22026SOL     OW75045  11.187  11.430  11.715  0.5771  0.0990  0.0464
22026SOL    HW175046  11.202  11.391  11.800 -1.2835  0.0065  0.3798
22026SOL    HW275047  11.099  11.467  11.720  1.6827  3.2088 -0.6877
22027SOL     OW75048   2.560   1.940   3.451 -0.4435  0.5056 -0.5084
22027SOL    HW175049   2.495   1.927   3.519 -0.0770  0.6381 -0.1276
22027SOL    HW275050   2.511   1.935   3.369 -1.0709  1.4184 -0.2069
22028SOL     OW75051   0.821   0.599  10.058 -0.2759 -0.7984 -0.7101
22028SOL    HW175052   0.751   0.595   9.992 -0.0285 -0.0649 -1.0325
22028SOL    HW275053   0.900   0.573  10.010 -0.1090 -0.3470 -0.6813
22029SOL     OW75054  11.243   9.036  10.294  0.2795 -1.1157  0.5868
22029SOL    HW175055  11.272   9.024  10.204 -0.6901  1.2195 -0.0958
22029SOL    HW275056  11.323   9.039  10.345  0.8501 -2.2325 -0.2027
22030SOL     OW75057   9.901   8.951  11.585  0.0729 -0.2329 -0.5912
22030SOL    HW175058   9.839   9.003  11.635  0.7506 -1.8159  2.0808
22030SOL    HW275059   9.975   9.011  11.569  0.1972  0.1085  1.0794
22031SOL     OW75060   4.068   9.298  10.302 -0.5052 -0.0998 -0.1907
22031SOL    HW175061   4.010   9.271  10.230 -0.1675 -1.7963  0.1180
22031SOL    HW275062   4.045   9.389  10.319 -2.8873 -0.6233 -0.2577
22032SOL     OW75063  11.838   8.891   3.367 -0.0898  0.4204 -0.6168
22032SOL    HW175064  11.759   8.842   3.346 -0.0525  0.2025 -0.2552
22032SOL    HW275065  11.895   8.877   3.292  0.2978 -0.8909 -0.1081
22033SOL     OW75066   2.284   6.448   1.859  0.0295 -0.4189  0.3647
22033SOL    HW175067   2.207   6.408   1.819  0.2426 -1.3883  0.8766
22033SOL    HW275068   2.357   6.419   1.803 -0.0204  0.9779 -0.4638
22034SOL     OW75069  10.262   9.789   1.067 -0.2047  0.7826  0.3650
22034SOL    HW175070  10.202   9.716   1.084  1.4285 -0.6841  0.1768
22034SOL    HW275071  10.299   9.810   1.153 -0.1027  0.8600  0.3026
22035SOL     OW75072   6.943   8.479  10.811  0.3004 -0.2904 -0.0381
22035SOL    HW175073   6.934   8.544  10.741 -0.9448 -0.6084 -0.2080
22035SOL    HW275074   6.867   8.494  10.867  1.0430 -0.3387  1.0140
22036SOL     OW75075   3.877   1.857   1.648  0.5227 -0.2104  0.2307
22036SOL    HW175076   3.907   1.776   1.607 -0.7209 -1.5385  1.8065
22036SOL    HW275077   3.791   1.874   1.608 -0.3782 -1.1312  1.6692
22037SOL     OW75078   1.449   9.834   7.172 -0.2649  0.2395 -0.1200
22037SOL    HW175079   1.447   9.888   7.092 -1.7087 -0.2613 -0.4400
22037SOL    HW275080   1.488   9.751   7.143  1.3738  0.8406  0.2375
22038SOL     OW75081   0.993   6.054   6.199  0.2263  0.1602  0.2333
22038SOL    HW175082   0.987   6.140   6.239 -0.0214  0.6737 -0.8671
22038SOL    HW275083   0.946   6.063   6.116  2.6299 -0.2184 -1.2603
22039SOL     OW75084  11.464   9.168   8.650  0.2161 -0.0949 -0.1000
22039SOL    HW175085  11.394   9.175   8.585  0.6162  0.0995 -0.5158
22039SOL    HW275086  11.544   9.179   8.599  0.5091  0.7386  0.5182
22040SOL     OW75087   1.123   0.055   7.127  0.8512 -0.8427  0.0357
22040SOL    HW175088   1.215   0.030   7.124  0.8364 -0.8764 -0.1791
22040SOL    HW275089   1.076  -0.028   7.131  0.7548 -0.9215 -1.8577
22041SOL     OW75090   7.591   1.855   5.959 -0.2195 -0.1345 -0.3602
22041SOL    HW175091   7.650   1.890   6.026 -1.6891  2.0483 -0.0962
22041SOL    HW275092   7.514   1.827   6.008 -0.3749 -0.7215 -0.9299
22042SOL     OW75093   6.612   2.812   4.922 -0.2745  0.1329 -0.0425
22042SOL    HW175094   6.686   2.866   4.949 -0.7598  0.9935 -0.3998
22042SOL    HW275095   6.649   2.724   4.914  0.7720  0.5841 -0.4508
22043SOL     OW75096   6.760   9.624   2.631  0.4294 -0.5828 -0.5121
22043SOL    HW175097   6.850   9.656   2.643  0.7615 -0.5287 -2.7556
22043SOL    HW275098   6.758   9.592   2.541 -1.5475 -1.5172 -0.1822
22044SOL     OW75099  11.628   2.940   8.092  0.0590 -0.1806 -0.0500
22044SOL    HW175100  11.644   2.867   8.151 -0.8141 -0.3379 -0.0018
22044SOL    HW275101  11.695   3.005   8.115 -0.5140 -0.0805  1.3808
22045SOL     OW75102   5.650   2.104   0.289  0.1337  0.0189 -0.3153
22045SOL    HW175103   5.566   2.060   0.301 -0.1869  0.6034 -0.3780
22045SOL    HW275104   5.631   2.197   0.304  0.6268  0.2365 -0.9778
22046SOL     OW75105   2.047   5.402   2.638 -0.0444 -0.2761 -0.5824
22046SOL    HW175106   1.969   5.434   2.593 -0.9374 -2.5463 -0.7727
22046SOL    HW275107   2.120   5.443   2.592 -1.0265 -0.4147 -2.3400
22047SOL     OW75108  12.581   2.685   6.275  0.6601  0.3989  0.1990
22047SOL    HW175109  12.532   2.608   6.300 -1.4738  1.8144  0.6167
22047SOL    HW275110  12.602   2.729   6.357  0.9937  0.7678 -0.0765
22048SOL     OW75111  12.066  11.239   1.882  0.3001 -0.2198 -0.0555
22048SOL    HW175112  12.010  11.250   1.805 -0.9170 -2.6373  0.3823
22048SOL    HW275113  12.038  11.308   1.942 -2.0109 -1.0818 -0.0221
22049SOL     OW75114   5.585   7.632  11.038  0.2792  0.9104 -0.0618
22049SOL    HW175115   5.580   7.554  10.983 -2.9041  1.4251 -0.7263
22049SOL    HW275116   5.624   7.699  10.982 -1.5530  1.0310 -1.2806
22050SOL     OW75117   3.688   5.516   1.226  0.1011  0.5913  0.5544
22050SOL    HW175118   3.763   5.560   1.186  0.3920 -0.4027 -0.0398
22050SOL    HW275119   3.720   5.428   1.246 -0.2546  0.8449  2.3737
22051SOL     OW75120   1.210   5.499   4.264 -0.0285  0.5469  0.0033
22051SOL    HW175121   1.298   5.507   4.228 -0.4429  1.2389 -0.8814
22051SOL    HW275122   1.152   5.493   4.188 -0.7009 -0.5812  0.5724
22052SOL     OW75123   5.390   2.092   3.713 -0.2076 -0.6991 -0.2252
22052SOL    HW175124   5.480   2.118   3.691  0.1764 -1.3688  0.5011
22052SOL    HW275125   5.338   2.170   3.697  0.1444 -0.9002 -2.7817
22053SOL     OW75126  10.002   4.239   4.075 -0.6380 -0.4013 -0.1433
22053SOL    HW175127   9.949   4.160   4.066 -2.2221  0.6587 -0.5336
22053SOL    HW275128   9.951   4.295   4.133 -0.1989  0.8621 -0.9376
22054SOL     OW75129  11.655   6.436   9.577  0.0153 -0.4021 -0.5944
22054SOL    HW175130  11.699   6.414   9.495  1.7424 -0.1423  0.2136
22054SOL    HW275131  11.563   6.447   9.553  0.6146  0.6134 -2.6701
22055SOL     OW75132   2.536   3.925   0.669  0.1227  0.3340 -0.0093
22055SOL    HW175133   2.491   3.847   0.637 -0.3788  0.2068  0.9742
22055SOL    HW275134   2.563   3.902   0.758  0.8992  0.9145 -0.0797
22056SOL     OW75135  11.551   4.522   1.195 -0.5120 -0.5076 -0.4936
22056SOL    HW175136  11.486   4.482   1.136 -1.2942 -0.8305  0.5642
22056SOL    HW275137  11.612   4.451   1.215 -2.1018 -1.3722  1.6716
22057SOL     OW75138   3.420   8.870   7.162 -0.2550  0.1669 -0.6451
22057SOL    HW175139   3.501   8.821   7.175  1.7141  3.5859  1.5375
22057SOL    HW275140   3.370   8.856   7.242 -0.5173  0.2865 -0.7857
22058SOL     OW75141   3.174   2.508   4.466 -0.2501 -0.0297 -0.4711
22058SOL    HW175142   3.166   2.526   4.559  0.9193  0.4877 -0.4545
22058SOL    HW275143   3.175   2.412   4.460 -0.7894 -0.0692 -0.0091
22059SOL     OW75144   4.271   2.886   4.700 -0.3679 -0.5080  0.2494
22059SOL    HW175145   4.232   2.861   4.616  0.0292  1.6529 -0.6274
22059SOL    HW275146   4.237   2.974   4.717  2.5918  0.7258  0.3582
22060SOL     OW75147   0.395   8.325   4.543  0.0267 -0.7545  0.0313
22060SOL    HW175148   0.377   8.242   4.587  1.4833 -0.6337  0.9245
22060SOL    HW275149   0.341   8.389   4.590 -0.7446 -1.0963 -0.3634
22061SOL     OW75150   8.330   2.748   4.475  0.5059 -1.0556  0.5797
22061SOL    HW175151   8.395   2.818   4.485 -0.7229  0.5120 -1.5326
22061SOL    HW275152   8.249   2.785   4.509 -0.6236 -0.5674 -2.3171
22062SOL     OW75153   0.889   7.177   1.492  0.0165  0.2059 -0.3207
22062SOL    HW175154   0.809   7.193   1.442  0.9418  1.7268 -1.4004
22062SOL    HW275155   0.956   7.227   1.447  1.8387 -1.8571 -0.0543
22063SOL     OW75156   1.424  10.217   4.139 -0.0019 -0.3034 -0.1051
22063SOL    HW175157   1.439  10.128   4.107  1.0577  0.1053 -0.8068
22063SOL    HW275158   1.359  10.207   4.208 -0.3985 -1.5392 -0.6266
22064SOL     OW75159   0.921  11.654   5.338 -0.1601 -0.1491  0.0405
22064SOL    HW175160   0.833  11.689   5.325 -0.0440 -0.0453 -0.4742
22064SOL    HW275161   0.933  11.656   5.433 -1.8661 -3.0110  0.4336
22065SOL     OW75162   8.840   2.575   4.640 -0.5524 -0.0646  0.0254
22065SOL    HW175163   8.920   2.613   4.602  0.4809 -0.1945  1.9869
22065SOL    HW275164   8.863   2.484   4.659 -1.0981 -0.0483  0.7871
22066SOL     OW75165   9.151   4.611   9.221  0.3833  0.2747 -0.3448
22066SOL    HW175166   9.228   4.665   9.236 -0.3492  1.6079 -1.2011
22066SOL    HW275167   9.125   4.580   9.308  2.7254 -1.4823 -0.1582
22067SOL     OW75168   9.510   8.996   1.995  0.1585  0.8060  0.1696
22067SOL    HW175169   9.461   9.047   1.930  0.5215 -0.2131 -0.9554
22067SOL    HW275170   9.600   9.026   1.986  0.3049  0.2758 -0.2158
22068SOL     OW75171   1.284   3.182   1.068 -0.2969  0.5814  0.5749
22068SOL    HW175172   1.359   3.136   1.030  0.3484  1.0872  1.2102
22068SOL    HW275173   1.230   3.207   0.993 -0.1019 -0.2495  0.1485
22069SOL     OW75174  11.673  11.307   5.172 -0.4621 -0.2335  0.2487
22069SOL    HW175175  11.732  11.339   5.240 -1.5526  1.4352  0.4744
22069SOL    HW275176  11.716  11.229   5.137  0.6085 -0.5673  2.1639
22070SOL     OW75177   3.115  11.474   2.887 -0.2220 -0.1322  0.4820
22070SOL    HW175178   3.063  11.433   2.818 -1.1022 -0.3721  1.2531
22070SOL    HW275179   3.106  11.568   2.872  0.4877 -0.1938 -0.3596
22071SOL     OW75180   2.999   4.338   9.571  0.6012  0.2506  0.3243
22071SOL    HW175181   3.055   4.267   9.603 -1.3593 -1.6164 -0.1396
22071SOL    HW275182   3.031   4.416   9.617  1.2029 -1.3717  2.8994
22072SOL     OW75183   5.411  11.642   8.150 -0.1476  0.6667 -0.2779
22072SOL    HW175184   5.428  11.680   8.236  0.3624  1.4697 -0.7307
22072SOL    HW275185   5.368  11.558   8.170 -0.4250  1.0308  0.7423
22073SOL     OW75186   9.293  11.657   1.680 -0.0047 -0.5862 -0.5224
22073SOL    HW175187   9.213  11.688   1.722  0.1023 -1.4007  0.3245
22073SOL    HW275188   9.265  11.625   1.595 -0.3028  0.6829 -0.9074
22074SOL     OW75189   7.178  12.475   0.199 -0.0945 -0.2702 -0.3836
22074SOL    HW175190   7.266  12.439   0.197  0.4365  1.0030 -1.4712
22074SOL    HW275191   7.175  12.529   0.278  0.7143  1.0756 -1.2365
22075SOL     OW75192   0.774  12.105   0.878  0.5396  0.1662 -0.1582
22075SOL    HW175193   0.801  12.019   0.848 -0.8927  0.0573 -1.2520
22075SOL    HW275194   0.838  12.165   0.842 -0.6492 -0.0519 -2.8648
22076SOL     OW75195   7.636  11.022  12.259 -0.0659 -0.7417  0.2576
22076SOL    HW175196   7.628  11.001  12.165 -0.5352  0.8987 -0.0966
22076SOL    HW275197   7.569  10.967  12.300 -2.4150  1.0641 -0.8406
22077SOL     OW75198  10.088   8.017   2.086  0.2136  0.4813 -0.1160
22077SOL    HW175199  10.106   8.096   2.136 -0.4806  0.1995  0.5943
22077SOL    HW275200  10.170   7.968   2.087 -0.0925 -0.0462  1.7235
22078SOL     OW75201   9.367   2.979   6.000  0.1904  0.2149 -0.3894
22078SOL    HW175202   9.349   3.070   6.027 -1.3085 -0.2029  0.1164
22078SOL    HW275203   9.344   2.977   5.907  2.1663  0.8192 -0.9478
22079SOL     OW75204   2.318  10.607  12.172 -0.0646 -0.2938  0.0547
22079SOL    HW175205   2.350  10.524  12.207  0.5917 -0.1381 -0.1528
22079SOL    HW275206   2.324  10.597  12.077 -2.1172 -0.8263 -0.0547
22080SOL     OW75207   7.105   6.282   3.502 -0.5665  0.2068  0.1703
22080SOL    HW175208   7.135   6.326   3.422 -1.2681  1.2853  0.4676
22080SOL    HW275209   7.138   6.193   3.494  0.2564  0.5699 -0.8369
22081SOL     OW75210   5.838   5.769   1.965 -0.4252  0.5127 -0.0409
22081SOL    HW175211   5.754   5.731   1.990 -0.3232 -0.5360 -1.2349
22081SOL    HW275212   5.889   5.768   2.045 -1.2029  0.2386  0.4656
22082SOL     OW75213   6.252   8.563   4.004  0.2766 -0.1168  0.0255
22082SOL    HW175214   6.194   8.510   4.059  0.9469  0.9649  1.8866
22082SOL    HW275215   6.340   8.537   4.030  0.6217  1.6225  0.7718
22083SOL     OW75216   9.843   9.738   2.417 -0.2905 -0.8961  0.0358
22083SOL    HW175217   9.801   9.753   2.332  2.2876 -0.3731 -1.2284
22083SOL    HW275218   9.919   9.684   2.397  0.3774 -0.7790  2.0445
22084SOL     OW75219  11.596   8.847   0.556  0.5404  0.5967 -0.0130
22084SOL    HW175220  11.604   8.753   0.538 -0.2402  0.1155  1.8601
22084SOL    HW275221  11.665   8.864   0.621 -1.1654  0.5970  1.9122
22085SOL     OW75222  10.659   6.872   3.436 -0.0742 -0.3747  0.4316
22085SOL    HW175223  10.566   6.850   3.435 -0.7724  2.0529 -2.3745
22085SOL    HW275224  10.666   6.942   3.501 -0.7018  0.9122 -0.8321
22086SOL     OW75225   0.300  10.568   9.626  0.1700  0.1362  0.2705
22086SOL    HW175226   0.383  10.521   9.623 -0.2325 -0.6069  0.6935
22086SOL    HW275227   0.307  10.625   9.702  1.1492  1.7340 -0.9343
22087SOL     OW75228   6.984   0.316   1.181 -0.3114  0.4244 -0.0701
22087SOL    HW175229   7.015   0.309   1.271  0.8469 -1.6559 -0.5520
22087SOL    HW275230   6.954   0.406   1.172  2.7069  1.7221  1.4357
22088SOL     OW75231   1.905   5.658   3.265  0.0174 -0.4143 -0.2953
22088SOL    HW175232   1.954   5.647   3.347 -0.0182 -0.4224 -0.2751
22088SOL    HW275233   1.967   5.700   3.206 -0.1818  0.2385 -0.0425
22089SOL     OW75234   4.305   8.727   2.510 -0.0914 -0.0968  0.2511
22089SOL    HW175235   4.247   8.714   2.435 -0.6631 -0.9498  0.8337
22089SOL    HW275236   4.338   8.816   2.498 -1.0647  0.1971 -0.3984
22090SOL     OW75237   5.959   1.923   5.108 -0.1375 -0.1647 -0.3574
22090SOL    HW175238   5.897   1.934   5.036  1.4622 -0.5503 -1.8657
22090SOL    HW275239   6.011   1.846   5.084 -0.1328 -0.8577  1.6775
22091SOL     OW75240  11.990  10.649   3.510  0.0144  0.1402 -0.0576
22091SOL    HW175241  11.970  10.582   3.444  0.2939  2.2616 -2.4118
22091SOL    HW275242  11.907  10.695   3.523  0.1444  0.2159  0.5312
22092SOL     OW75243   2.565   8.699  10.491  0.2896  0.6286 -0.5781
22092SOL    HW175244   2.494   8.675  10.432 -0.1803  1.8327 -0.5410
22092SOL    HW275245   2.523   8.752  10.559  0.9994  0.1869  0.2388
22093SOL     OW75246   4.484   4.873   9.568 -0.0860  0.3206 -0.1809
22093SOL    HW175247   4.542   4.926   9.512  1.1125 -0.3051  0.4178
22093SOL    HW275248   4.470   4.927   9.645  1.4608 -0.3326  0.6068
22094SOL     OW75249   0.228  10.514   6.779 -0.0525  0.3305  0.4048
22094SOL    HW175250   0.209  10.601   6.816  2.5188  1.9529 -1.6995
22094SOL    HW275251   0.313  10.491   6.816  0.1104 -0.4422 -0.4187
22095SOL     OW75252   5.183   9.927   0.657 -0.1495  0.3104 -0.0361
22095SOL    HW175253   5.096   9.941   0.694 -0.4030 -1.4197  0.0825
22095SOL    HW275254   5.174   9.950   0.564 -0.6411  0.4170  0.0385
22096SOL     OW75255   4.092   9.676  10.116  0.2829 -0.3670 -0.3266
22096SOL    HW175256   4.003   9.651  10.091  1.3342 -2.9411 -1.8531
22096SOL    HW275257   4.103   9.763  10.079 -1.7333  0.2303  0.3193
22097SOL     OW75258   3.227   1.355   8.515 -0.5597 -0.1154 -0.3265
22097SOL    HW175259   3.151   1.411   8.502 -1.0018 -0.7879 -0.7191
22097SOL    HW275260   3.259   1.337   8.426  0.8110  1.1398 -0.1294
22098SOL     OW75261  10.581   7.016   4.542  0.2059 -0.5009  0.8283
22098SOL    HW175262  10.609   6.928   4.564  2.6398  0.1426  0.5706
22098SOL    HW275263  10.583   7.064   4.625  0.4409 -0.3127  0.7166
22099SOL     OW75264   0.949   2.235   7.556 -0.3889  0.6175 -0.3368
22099SOL    HW175265   0.894   2.231   7.634  0.6281 -1.9135  0.3391
22099SOL    HW275266   1.030   2.277   7.585 -0.3128  0.4098 -0.2539
22100SOL     OW75267   9.820  11.467   0.068 -0.2975  0.2700 -0.3994
22100SOL    HW175268   9.779  11.382   0.079 -0.9764  0.4722 -1.2473
22100SOL    HW275269   9.769  11.526   0.123  1.1552 -0.1202  1.4839
22101SOL     OW75270   7.377   4.639   3.422 -0.1288 -0.0954 -0.1745
22101SOL    HW175271   7.414   4.563   3.376  1.3862  0.2809  0.3798
22101SOL    HW275272   7.429   4.647   3.501 -1.0772  0.8017  0.3812
22102SOL     OW75273   1.640   8.906   5.773 -0.4685  0.0290  0.1807
22102SOL    HW175274   1.658   8.812   5.768  1.1977  0.3357 -0.1242
22102SOL    HW275275   1.560   8.917   5.722 -0.9007 -1.2638  0.5252
22103SOL     OW75276  12.141  10.053   7.245 -0.1269 -0.6991  0.2247
22103SOL    HW175277  12.169  10.066   7.154  3.1557 -1.2571  1.0142
22103SOL    HW275278  12.045  10.055   7.241 -0.1216  1.8188 -2.8413
22104SOL     OW75279   0.245   6.942   4.475 -0.2304 -0.2774 -0.1263
22104SOL    HW175280   0.222   6.900   4.558 -1.3545 -0.2274 -0.4071
22104SOL    HW275281   0.250   6.870   4.412  2.4876 -0.5983  0.3011
22105SOL     OW75282   8.516   7.782  11.873 -0.0086  0.4533  0.0401
22105SOL    HW175283   8.440   7.819  11.918 -1.1164  0.3018 -1.6079
22105SOL    HW275284   8.581   7.769  11.942 -2.0045 -0.8567  1.7825
22106SOL     OW75285   9.072   3.123   1.386 -0.4103 -0.3243  0.3565
22106SOL    HW175286   9.019   3.200   1.406 -1.2935 -0.4559 -1.3608
22106SOL    HW275287   9.159   3.145   1.418 -0.6110  1.4512 -0.2266
22107SOL     OW75288   0.008   6.809  12.260 -0.5074 -0.0697  0.2633
22107SOL    HW175289   0.069   6.831  12.191 -0.5149 -0.4722  0.1243
22107SOL    HW275290   0.042   6.853  12.338  1.2141 -2.0498  0.7246
22108SOL     OW75291  10.719   9.996   9.392  0.1145  0.1502 -0.4020
22108SOL    HW175292  10.660  10.053   9.342 -0.0596  0.8862  0.6157
22108SOL    HW275293  10.775  10.056   9.441  0.7993 -0.5547 -0.2997
22109SOL     OW75294   4.355  11.748   0.260 -0.0938  0.2196  0.2939
22109SOL    HW175295   4.300  11.818   0.297  0.5996  0.7424  0.3478
22109SOL    HW275296   4.303  11.668   0.272  0.0570  0.3712  2.3099
22110SOL     OW75297   2.008   6.589   4.456 -0.2645  0.2315  0.1728
22110SOL    HW175298   1.964   6.631   4.530 -0.2189  1.7272 -0.6255
22110SOL    HW275299   2.100   6.615   4.466  0.1570 -1.3543  0.7819
22111SOL     OW75300   0.930   4.139   5.049 -0.1145  0.1320  0.4438
22111SOL    HW175301   0.899   4.180   5.130  0.0617 -2.4506  1.9223
22111SOL    HW275302   1.003   4.085   5.077 -0.6366 -1.5452 -1.2853
22112SOL     OW75303   3.578   9.603  11.591  0.2309  0.5016  0.3639
22112SOL    HW175304   3.511   9.666  11.563  0.6910  1.3864  1.1584
22112SOL    HW275305   3.608   9.638  11.675  3.1886  1.3230 -0.9098
22113SOL     OW75306   2.099  10.063   8.105 -0.2681  0.2870 -0.0614
22113SOL    HW175307   2.130  10.110   8.182 -3.4278  1.3795  0.6611
22113SOL    HW275308   2.060  10.130   8.049  0.5381 -0.7081 -1.9290
22114SOL     OW75309   5.541   6.616   2.500  0.5266  0.2918  0.0565
22114SOL    HW175310   5.499   6.616   2.586 -0.5759  1.1913 -0.4460
22114SOL    HW275311   5.564   6.525   2.484 -3.8941 -0.9072 -0.8355
22115SOL     OW75312   9.676   9.965   2.920  0.1364  0.2661 -0.5306
22115SOL    HW175313   9.617  10.038   2.941 -1.3133 -0.2808 -2.3552
22115SOL    HW275314   9.658   9.946   2.828 -0.3591 -3.0886  0.1045
22116SOL     OW75315   3.922   0.073  12.282  0.3107  0.1928 -0.4519
22116SOL    HW175316   3.858   0.009  12.250 -0.8225  0.5641  0.9757
22116SOL    HW275317   3.949   0.039  12.367  2.9600 -0.5636 -1.4662
22117SOL     OW75318   0.716  11.853   9.725 -0.3166 -0.7544 -0.1641
22117SOL    HW175319   0.801  11.823   9.759 -0.7850 -2.5876 -0.4771
22117SOL    HW275320   0.726  11.947   9.715  1.5003 -0.8513  0.3335
22118SOL     OW75321   5.520   3.730   9.558  0.0374 -0.0725 -0.6695
22118SOL    HW175322   5.531   3.824   9.548 -0.0338  0.0812  0.5556
22118SOL    HW275323   5.565   3.692   9.482  2.4372  0.8351  0.1961
22119SOL     OW75324  11.500  11.312  10.013  0.3042 -0.1219 -0.4664
22119SOL    HW175325  11.474  11.269  10.095 -1.5742  0.9015 -0.4615
22119SOL    HW275326  11.472  11.403  10.024  4.1354  1.2132 -0.4676
22120SOL     OW75327  10.043   5.510   1.196 -0.7935 -0.3876 -0.0320
22120SOL    HW175328  10.121   5.524   1.251 -0.7452 -0.8929  0.0329
22120SOL    HW275329  10.073   5.451   1.127 -1.0277 -0.2889 -0.2182
22121SOL     OW75330   1.653   5.527   1.502 -0.1328 -0.1556 -0.3046
22121SOL    HW175331   1.729   5.475   1.528 -0.4964 -0.5442 -0.0004
22121SOL    HW275332   1.578   5.468   1.514 -0.6166  0.5912  0.5278
22122SOL     OW75333   3.322  11.441   2.543 -0.6870 -0.3841  0.0637
22122SOL    HW175334   3.374  11.466   2.619  0.6428  1.3291 -1.3177
22122SOL    HW275335   3.283  11.523   2.513  1.8569 -0.1486 -3.2187
22123SOL     OW75336   4.267  11.962   0.732 -0.2564  0.4873 -0.6790
22123SOL    HW175337   4.198  11.906   0.697 -0.0692  1.3277 -2.5263
22123SOL    HW275338   4.230  11.998   0.813 -2.3832  1.5471 -2.0114
22124SOL     OW75339   0.579   2.602   6.343  0.2305 -0.2600  0.2816
22124SOL    HW175340   0.624   2.680   6.312  0.5240  0.0451  1.4306
22124SOL    HW275341   0.647   2.536   6.351 -0.0526 -0.7218 -0.8983
22125SOL     OW75342  12.537   5.042   9.399  0.0330 -0.1584  0.0683
22125SOL    HW175343  12.529   5.095   9.479 -0.3111 -0.8241  0.4815
22125SOL    HW275344  12.630   5.023   9.392 -0.0492 -0.8976  0.8414
22126SOL     OW75345  12.423  12.583   3.504 -0.1898 -0.5850  0.0433
22126SOL    HW175346  12.336  12.614   3.479 -0.8156  0.6919  3.3027
22126SOL    HW275347  12.483  12.645   3.464 -1.1595  1.7812  1.9394
22127SOL     OW75348   7.051   9.697   8.642  0.2441  0.3841 -0.4167
22127SOL    HW175349   7.071   9.617   8.594 -1.0082  0.0255 -0.3653
22127SOL    HW275350   7.128   9.753   8.628  1.4639 -1.0744  0.1247
22128SOL     OW75351   5.099   7.737   6.379  0.0213 -0.7612  0.3931
22128SOL    HW175352   5.050   7.817   6.363 -2.1655 -2.1830 -0.5209
22128SOL    HW275353   5.152   7.724   6.301 -0.2263 -0.6100  0.2006
22129SOL     OW75354   7.770   6.224   9.827  0.3943  0.0594  0.4397
22129SOL    HW175355   7.851   6.218   9.777 -1.0639  2.7100 -2.6211
22129SOL    HW275356   7.787   6.293   9.892  0.4595  1.0442 -0.5983
22130SOL     OW75357   0.806   5.444   3.872  0.6707  0.6303  0.1593
22130SOL    HW175358   0.711   5.426   3.871  0.7420 -0.1743  2.0793
22130SOL    HW275359   0.843   5.378   3.814  0.1020  0.6220 -0.2078
22131SOL     OW75360   5.647  10.054   9.225 -0.1009 -0.4480  0.4501
22131SOL    HW175361   5.721   9.997   9.205 -0.3802 -0.5836 -0.2235
22131SOL    HW275362   5.674  10.101   9.304  0.1560 -1.4559  0.9728
22132SOL     OW75363   9.561   1.506   6.612 -0.3163  0.8573 -0.2987
22132SOL    HW175364   9.542   1.600   6.619 -0.7550  0.9741 -2.3246
22132SOL    HW275365   9.652   1.503   6.582 -0.3972  0.6600 -0.5281
22133SOL     OW75366   6.560  10.104  10.745  0.2184 -0.2928 -0.5645
22133SOL    HW175367   6.565  10.169  10.815  0.4232 -0.7357 -0.1661
22133SOL    HW275368   6.618  10.138  10.676  0.7932 -0.3491 -0.1158
22134SOL     OW75369   2.206   0.212  10.369 -0.6890  0.0881 -0.0256
22134SOL    HW175370   2.178   0.124  10.395 -1.1004  0.7798  2.0904
22134SOL    HW275371   2.301   0.212  10.380 -0.7673  0.1077  0.7082
22135SOL     OW75372   4.823   5.834   0.798 -0.7869 -0.0989  0.0876
22135SOL    HW175373   4.798   5.801   0.884 -0.5772 -4.2103 -1.2143
22135SOL    HW275374   4.742   5.832   0.747 -0.8266  1.9379 -0.0231
22136SOL     OW75375   7.907   2.899   2.952  1.0046 -0.0814 -0.0247
22136SOL    HW175376   7.963   2.959   2.903  1.1736 -0.6428 -0.5343
22136SOL    HW275377   7.854   2.857   2.885  0.6230 -0.2246  0.3676
22137SOL     OW75378   6.223   0.023   3.484 -0.1386 -0.3875 -0.4126
22137SOL    HW175379   6.165   0.096   3.507 -0.3274  0.0350 -2.0926
22137SOL    HW275380   6.297   0.064   3.440  1.3601 -0.9483  1.4865
22138SOL     OW75381   8.489   6.466   1.099  0.5336  0.5052  0.0898
22138SOL    HW175382   8.577   6.493   1.074  0.1083  0.9026 -1.0265
22138SOL    HW275383   8.443   6.548   1.119  0.7081  0.2368  1.7465
22139SOL     OW75384   1.918  12.345   1.180  1.0395 -0.0855  0.1587
22139SOL    HW175385   1.897  12.315   1.092 -0.0455  1.0786  0.0001
22139SOL    HW275386   1.896  12.270   1.236 -1.4361  0.2651 -0.2453
22140SOL     OW75387  10.154   3.716   8.881  0.1225  0.2338  0.2629
22140SOL    HW175388  10.206   3.641   8.853  2.2571  1.5558  0.4035
22140SOL    HW275389  10.188   3.736   8.968 -0.6239  1.1798  0.3480
22141SOL     OW75390  11.136   0.486  12.093  0.5887 -0.6910  0.3740
22141SOL    HW175391  11.043   0.469  12.101  0.3310 -0.8087 -2.0750
22141SOL    HW275392  11.178   0.407  12.127 -0.3936 -2.8701 -2.9742
22142SOL     OW75393   8.050   5.372   0.078 -0.0788  0.1271 -0.2682
22142SOL    HW175394   8.098   5.413   0.005 -0.9289  0.2843 -0.7451
22142SOL    HW275395   7.963   5.354   0.043 -0.8520  1.1719  1.0069
22143SOL     OW75396   5.868  12.268   3.298 -0.1122 -0.0564  0.0619
22143SOL    HW175397   5.931  12.300   3.362 -0.3449 -1.8113  1.2568
22143SOL    HW275398   5.887  12.174   3.291  0.6756  0.2069 -3.3555
22144SOL     OW75399   0.097   6.048   1.076 -0.1245 -0.3850 -0.0636
22144SOL    HW175400   0.157   6.121   1.059 -2.3527  1.3828 -0.7791
22144SOL    HW275401   0.116   6.022   1.166  0.5778  1.2424  0.2913
22145SOL     OW75402   6.162   6.708  11.621 -0.8255 -0.0837  0.0466
22145SOL    HW175403   6.256   6.692  11.632 -0.4936  1.2909 -0.6565
22145SOL    HW275404   6.155   6.801  11.602 -2.2207 -0.4057 -1.2203
22146SOL     OW75405   3.638  10.512   9.190 -0.0720 -0.2467 -0.2640
22146SOL    HW175406   3.676  10.581   9.244  0.5749 -1.7510  1.3015
22146SOL    HW275407   3.556  10.550   9.156 -0.2949  0.9079  1.4410
22147SOL     OW75408   0.538   6.127   4.630 -0.0608  0.1587  0.0067
22147SOL    HW175409   0.574   6.038   4.630  0.9670  0.5256  1.9606
22147SOL    HW275410   0.468   6.125   4.695  0.9456  1.1083  1.1597
22148SOL     OW75411   0.233   8.025   4.369 -0.0122 -0.4392 -0.2990
22148SOL    HW175412   0.166   7.957   4.383  0.3546 -0.5128  1.2290
22148SOL    HW275413   0.258   8.052   4.457  0.5550  1.0060 -0.8807
22149SOL     OW75414  10.466   2.182   8.545 -0.3060  0.1594 -0.1357
22149SOL    HW175415  10.511   2.101   8.521  0.1527  0.0948  0.8934
22149SOL    HW275416  10.373   2.162   8.535 -0.1529 -0.0038 -1.3609
22150SOL     OW75417  11.636  11.766   8.264  0.0319  0.3703 -0.0651
22150SOL    HW175418  11.645  11.861   8.276 -1.2544  0.2948  1.9244
22150SOL    HW275419  11.541  11.751   8.264  0.2291 -0.9561 -0.0491
22151SOL     OW75420   6.074   2.581   6.499  0.2821 -0.3532 -0.0664
22151SOL    HW175421   6.008   2.608   6.436 -0.4805  0.9486  1.2415
22151SOL    HW275422   6.024   2.553   6.576  1.2036 -1.4108  0.1819
22152SOL     OW75423   0.312   9.667   0.733 -0.4422  0.4722 -0.2829
22152SOL    HW175424   0.393   9.713   0.752  0.2917 -1.3213  1.2367
22152SOL    HW275425   0.338   9.576   0.721 -2.1293 -0.0169 -0.5150
22153SOL     OW75426  12.389   6.069   3.011 -0.0196  0.1290  0.1492
22153SOL    HW175427  12.417   5.992   3.060  0.2742  0.4637  0.5186
22153SOL    HW275428  12.419   6.054   2.922 -0.8587 -0.6429 -0.0108
22154SOL     OW75429   4.160   2.969   2.705 -0.5122  0.1930  0.9832
22154SOL    HW175430   4.077   2.922   2.716 -0.7145  0.5566  1.0053
22154SOL    HW275431   4.139   3.060   2.722 -0.3176  0.4358  0.0081
22155SOL     OW75432   8.454   4.465   9.270 -0.7827 -0.4768  0.4005
22155SOL    HW175433   8.495   4.391   9.226  0.0647  1.5855 -2.5996
22155SOL    HW275434   8.368   4.433   9.297  0.2086 -3.0012  0.8211
22156SOL     OW75435   4.029   8.489   8.378 -0.1668  0.0876 -0.0056
22156SOL    HW175436   4.120   8.505   8.406 -0.3647  1.8855 -0.2363
22156SOL    HW275437   4.038   8.452   8.291  0.3515  0.2286 -0.0201
22157SOL     OW75438  11.134   0.783  12.522 -0.1934  0.1337  0.3938
22157SOL    HW175439  11.111   0.865  12.478 -0.9849  0.8962  2.1224
22157SOL    HW275440  11.189   0.737  12.459  1.5329  2.6431 -0.1215
22158SOL     OW75441   9.667  10.261  10.077 -0.1096  0.1896  0.3573
22158SOL    HW175442   9.650  10.233   9.987 -0.3727  1.4327 -0.0031
22158SOL    HW275443   9.597  10.324  10.096  0.5555  0.7320  1.0524
22159SOL     OW75444   2.698   5.590   9.114  0.5347  0.3750  0.2664
22159SOL    HW175445   2.721   5.522   9.051  0.2656 -0.0970  0.6650
22159SOL    HW275446   2.615   5.625   9.082  0.3536  0.0757  0.4056
22160SOL     OW75447   3.669   9.991  10.706 -0.1663 -0.1629  0.6935
22160SOL    HW175448   3.745   9.967  10.653  0.5951 -1.7312  2.3648
22160SOL    HW275449   3.636  10.072  10.667  0.7484 -0.8627 -1.6871
22161SOL     OW75450   9.404   7.225   9.646  0.0491 -0.2327  0.0502
22161SOL    HW175451   9.457   7.252   9.572 -0.8306  2.1124  0.1910
22161SOL    HW275452   9.373   7.137   9.624  3.7281 -1.6269 -0.1069
22162SOL     OW75453   0.440   4.223   7.841 -0.2927  0.3595  0.1611
22162SOL    HW175454   0.465   4.131   7.837 -0.5250  0.2390  1.3076
22162SOL    HW275455   0.485   4.263   7.766 -2.0012 -1.0800 -1.7699
22163SOL     OW75456   3.565   2.799   8.805  0.1034 -0.1612  0.1812
22163SOL    HW175457   3.619   2.782   8.728  0.7437  1.2386  0.2992
22163SOL    HW275458   3.568   2.894   8.817 -1.9350 -0.0883  0.5384
22164SOL     OW75459  11.172  10.906  10.764 -0.2406 -0.0311  0.3813
22164SOL    HW175460  11.144  10.890  10.854  0.4790 -1.3645  0.4039
22164SOL    HW275461  11.226  10.830  10.743 -0.4738  0.2191 -1.2089
22165SOL     OW75462   5.839   5.018  10.656 -0.3605 -0.3751  0.0820
22165SOL    HW175463   5.893   4.991  10.730 -1.7242 -0.1658  1.1818
22165SOL    HW275464   5.902   5.053  10.592  1.0456 -2.4766  0.2272
22166SOL     OW75465  12.123   8.295  11.631  0.0592  0.4717  0.3359
22166SOL    HW175466  12.156   8.241  11.702 -1.1271 -0.9944 -0.1656
22166SOL    HW275467  12.155   8.383  11.650 -0.0297  0.0772  2.5308
22167SOL     OW75468  10.553  12.439   5.763 -0.7989  0.2231  0.0433
22167SOL    HW175469  10.484  12.456   5.700 -2.2048  0.1459  1.4922
22167SOL    HW275470  10.576  12.525   5.798 -0.1141  0.2530 -0.4562
22168SOL     OW75471   7.286   3.841   8.551  0.3447 -0.3401 -0.0827
22168SOL    HW175472   7.340   3.888   8.615 -0.1911 -0.0861  0.1970
22168SOL    HW275473   7.215   3.804   8.603 -1.3535  1.7016 -0.7623
22169SOL     OW75474   5.524   1.935   3.873  0.2216 -0.0021  0.7770
22169SOL    HW175475   5.581   1.974   3.806  0.3130 -1.5883 -0.1017
22169SOL    HW275476   5.444   1.988   3.870  1.2062  1.5804  1.2826
22170SOL     OW75477   0.351  11.624  12.488 -0.8006 -0.6619  0.4645
22170SOL    HW175478   0.310  11.585  12.411 -1.9208  1.7855 -0.2930
22170SOL    HW275479   0.278  11.654  12.541 -0.0338  0.7647  0.7659
22171SOL     OW75480  12.293   5.184   6.756  0.3733 -0.0862  0.1774
22171SOL    HW175481  12.286   5.090   6.739  0.5103  0.1957 -1.6922
22171SOL    HW275482  12.205   5.211   6.782  0.3455 -0.7389  0.7572
22172SOL     OW75483  11.206   8.394   0.551  0.3030 -0.5192  0.5782
22172SOL    HW175484  11.274   8.380   0.485 -2.1432 -0.0437 -2.2398
22172SOL    HW275485  11.167   8.308   0.564 -1.7359 -0.0798 -1.7245
22173SOL     OW75486  10.870   3.259   4.165 -0.1820 -0.2263  0.2491
22173SOL    HW175487  10.821   3.199   4.109 -1.9932  1.8507 -0.5700
22173SOL    HW275488  10.944   3.287   4.111 -1.3028  0.9080 -0.7747
22174SOL     OW75489   6.383   1.290  11.134  0.1090  0.9272 -0.6724
22174SOL    HW175490   6.463   1.249  11.167  0.0109  0.9469 -0.4014
22174SOL    HW275491   6.313   1.232  11.165  0.1777 -1.0674 -3.8255
22175SOL     OW75492  10.991   1.205   5.381 -0.3230  0.0565 -0.6987
22175SOL    HW175493  10.998   1.261   5.304 -1.5306  0.0689 -0.8111
22175SOL    HW275494  11.042   1.127   5.359 -1.4531 -0.3689 -1.9095
22176SOL     OW75495   4.424   5.802   5.008  0.3838  0.2818 -0.0763
22176SOL    HW175496   4.432   5.715   4.970  0.5818  0.3608 -0.2179
22176SOL    HW275497   4.513   5.836   5.009  0.4656  0.0454  1.0297
22177SOL     OW75498   4.458   2.523  10.868 -0.2567  0.0175  0.3632
22177SOL    HW175499   4.547   2.518  10.903  0.6404  0.5287 -1.6626
22177SOL    HW275500   4.413   2.448  10.906  1.3931 -0.9024  0.5929
22178SOL     OW75501   1.281   2.808   5.273  0.0713  0.2228 -0.0537
22178SOL    HW175502   1.210   2.759   5.231 -0.0770 -0.0370  0.4989
22178SOL    HW275503   1.236   2.880   5.318  0.3289  1.2477 -1.3445
22179SOL     OW75504   2.776   5.371   0.203  0.2357  0.3326  0.2972
22179SOL    HW175505   2.763   5.294   0.148 -0.8174 -0.2489  1.2944
22179SOL    HW275506   2.829   5.340   0.276  2.0933  1.2298 -0.6227
22180SOL     OW75507   6.567   6.411   3.420 -0.1602 -0.2522 -0.2438
22180SOL    HW175508   6.613   6.330   3.398 -0.4968 -0.5201  0.0265
22180SOL    HW275509   6.474   6.390   3.405 -0.2100  0.2314 -0.6317
22181SOL     OW75510   3.401   7.815  12.106  0.3453  0.2189 -0.3677
22181SOL    HW175511   3.387   7.722  12.093  0.6231  0.0728  0.3276
22181SOL    HW275512   3.381   7.830  12.198 -0.3962  0.9801 -0.6370
22182SOL     OW75513   3.968   4.626   6.564 -0.1101  0.0178  0.1229
22182SOL    HW175514   3.877   4.649   6.586 -0.4793 -2.1006  1.0810
22182SOL    HW275515   4.017   4.650   6.643 -0.1295 -0.4103  0.2658
22183SOL     OW75516   6.316   4.573   2.826 -0.5102 -0.3126 -0.6527
22183SOL    HW175517   6.353   4.590   2.913 -1.3072 -2.4549  0.1803
22183SOL    HW275518   6.388   4.532   2.777 -0.4573 -0.3246 -0.5645
22184SOL     OW75519   2.290   5.875   4.122  0.2547  0.3789 -0.6770
22184SOL    HW175520   2.253   5.865   4.210  2.7027  4.4209  1.1006
22184SOL    HW275521   2.253   5.957   4.090 -1.0934 -1.3074 -3.8752
22185SOL     OW75522  10.191   7.142  11.460 -0.1716 -0.0395 -0.0236
22185SOL    HW175523  10.099   7.119  11.453  0.0486 -0.9629  0.0558
22185SOL    HW275524  10.193   7.211  11.527 -0.6077 -1.2387  1.2730
22186SOL     OW75525   6.240   7.733   4.664  0.3539 -0.6146  0.4182
22186SOL    HW175526   6.306   7.753   4.597 -2.7482  2.8147 -2.0092
22186SOL    HW275527   6.206   7.647   4.639  1.8992 -1.1567  0.0471
22187SOL     OW75528   1.160   8.109   1.440 -0.0793 -0.0632 -0.7858
22187SOL    HW175529   1.134   8.030   1.392 -1.9162  0.2699 -0.4206
22187SOL    HW275530   1.150   8.085   1.532 -0.0602  0.4056 -0.6629
22188SOL     OW75531   9.564  10.578   1.663  0.6347 -0.2829 -0.2059
22188SOL    HW175532   9.604  10.665   1.669  1.0865 -0.4804 -0.3195
22188SOL    HW275533   9.481  10.593   1.619  0.4449  0.1758  0.2889
22189SOL     OW75534   7.378   9.058  11.635 -0.5034  0.2175  0.2476
22189SOL    HW175535   7.399   9.085  11.545 -0.7215  2.6125  0.8483
22189SOL    HW275536   7.371   8.963  11.630  0.2047  0.2134 -2.1199
22190SOL     OW75537   5.832   6.243   2.828 -0.0574  0.4429 -0.6952
22190SOL    HW175538   5.833   6.161   2.778 -0.6462  0.9753 -1.6175
22190SOL    HW275539   5.925   6.268   2.833 -0.0125  0.6484 -2.0279
22191SOL     OW75540  11.600   4.993   8.592 -0.0166  0.4531 -0.3425
22191SOL    HW175541  11.588   5.077   8.549  0.2280  0.4721 -0.3703
22191SOL    HW275542  11.532   4.937   8.553 -0.1251  0.6114 -0.3825
22192SOL     OW75543   1.906   9.693   4.785 -0.1623  0.3063 -0.1112
22192SOL    HW175544   1.981   9.638   4.763  2.4967  3.5157  0.1159
22192SOL    HW275545   1.888   9.672   4.877  0.5961 -0.3313 -0.0936
22193SOL     OW75546   2.340  10.755   6.529  0.0643  0.6704  0.4791
22193SOL    HW175547   2.395  10.678   6.516  0.4644  1.0925 -0.4576
22193SOL    HW275548   2.252  10.720   6.544  0.1877  0.0345 -0.2055
22194SOL     OW75549   1.593   3.728   5.274  0.3473 -0.1397 -0.4396
22194SOL    HW175550   1.628   3.799   5.328  1.5462 -0.3819 -0.8774
22194SOL    HW275551   1.665   3.703   5.216 -0.4196 -0.9430 -1.0842
22195SOL     OW75552  12.354   5.094   9.135 -0.0137  0.0408  0.2341
22195SOL    HW175553  12.260   5.108   9.131 -0.0701  0.1108  1.4238
22195SOL    HW275554  12.373   5.086   9.229  1.0701 -0.5941 -0.0258
22196SOL     OW75555   5.845   9.842  12.490 -0.2950  0.6125  0.2608
22196SOL    HW175556   5.828   9.765  12.544 -2.8972  1.2831  0.5163
22196SOL    HW275557   5.826   9.813  12.401  1.4525  0.2454 -0.0400
22197SOL     OW75558   9.609  10.057   6.723  0.1811 -0.0960 -0.3505
22197SOL    HW175559   9.642  10.049   6.634  0.4796  0.0974 -0.2603
22197SOL    HW275560   9.648   9.983   6.770  0.1461 -0.1117 -0.3458
22198SOL     OW75561  11.655   8.538  11.454 -0.2353 -0.0702 -0.0154
22198SOL    HW175562  11.653   8.445  11.478 -1.1269 -0.4237 -1.3891
22198SOL    HW275563  11.691   8.540  11.365 -1.9572  0.7162 -0.7315
22199SOL     OW75564   2.824   4.391   4.901 -0.0708  0.0817 -0.2149
22199SOL    HW175565   2.737   4.352   4.911 -0.2552  0.7604  1.1413
22199SOL    HW275566   2.811   4.483   4.925  0.8892  0.3517 -0.6859
22200SOL     OW75567   9.987  10.703   7.319  0.3010  0.1289 -0.0956
22200SOL    HW175568  10.045  10.777   7.333 -0.6059  0.9017 -0.2941
22200SOL    HW275569   9.906  10.728   7.364 -0.1194 -0.6157 -0.4210
22201SOL     OW75570   5.431   9.377  10.269 -0.3029 -0.7480  0.2412
22201SOL    HW175571   5.390   9.294  10.293  0.2587 -0.3873  2.6950
22201SOL    HW275572   5.523   9.367  10.293  0.0524  0.1557 -0.6291
22202SOL     OW75573   6.190   1.002  12.244 -0.0609  0.4743 -0.5400
22202SOL    HW175574   6.238   0.958  12.314 -0.4917  0.4117 -0.2817
22202SOL    HW275575   6.108   0.954  12.237  0.9495 -1.1246 -2.7866
22203SOL     OW75576   3.241   3.690  12.310 -0.6518 -0.3354 -0.0666
22203SOL    HW175577   3.199   3.751  12.250  0.1572  0.0339 -0.2753
22203SOL    HW275578   3.253   3.740  12.391 -0.7579 -0.4837  0.0404
22204SOL     OW75579  10.420   8.807   2.088  0.1901 -0.1970  0.0036
22204SOL    HW175580  10.344   8.752   2.069  0.3019  0.0780 -1.4069
22204SOL    HW275581  10.478   8.751   2.140 -1.3183 -0.1272  1.8541
22205SOL     OW75582   0.746  11.422   9.380 -0.6487  0.5569  0.4865
22205SOL    HW175583   0.705  11.505   9.405  0.0912  1.0384  0.1370
22205SOL    HW275584   0.694  11.391   9.306 -0.4993  1.0788  0.1547
22206SOL     OW75585   5.605   2.991   2.706  0.4794  0.8497 -0.0153
22206SOL    HW175586   5.607   3.066   2.647  1.9733 -0.4250 -1.7117
22206SOL    HW275587   5.671   3.010   2.773  2.6995  0.0707 -1.8507
22207SOL     OW75588  10.943   6.639   4.290 -0.6675 -0.3006 -0.9551
22207SOL    HW175589  10.950   6.719   4.341 -1.0041 -0.5271 -0.5448
22207SOL    HW275590  11.034   6.614   4.273 -0.5542 -0.0618 -0.7181
22208SOL     OW75591  11.041   0.054   4.794  0.4696 -0.3935 -0.2382
22208SOL    HW175592  10.960   0.006   4.811  0.9855 -0.7824  1.2981
22208SOL    HW275593  11.044   0.063   4.698 -2.5907  1.7930 -0.2845
22209SOL     OW75594   3.373   4.248   8.713 -0.4254 -0.7845  0.4880
22209SOL    HW175595   3.454   4.257   8.762 -0.8115 -1.3428  1.2449
22209SOL    HW275596   3.310   4.302   8.760 -0.7738 -1.2492  0.5601
22210SOL     OW75597   7.295   1.815   3.940 -0.7528  0.0956  0.1675
22210SOL    HW175598   7.250   1.815   3.856 -3.0211  1.4667  1.2786
22210SOL    HW275599   7.256   1.741   3.988  0.4908 -0.6488  0.0703
22211SOL     OW75600   7.982   8.082   4.485 -0.4164 -0.0201 -0.4748
22211SOL    HW175601   7.915   8.019   4.512  0.5217 -0.6936  0.3597
22211SOL    HW275602   8.051   8.028   4.448  0.3889  0.5223  0.2161
22212SOL     OW75603   8.000  10.032   0.682 -0.1000  0.5035  0.2162
22212SOL    HW175604   8.006   9.971   0.608 -0.3505 -0.3978  0.9171
22212SOL    HW275605   7.959   9.981   0.751 -0.1858  1.4432  0.8726
22213SOL     OW75606   3.917   8.756   8.365  0.5669  0.3692  0.1948
22213SOL    HW175607   3.831   8.720   8.344  0.4666  1.3587 -1.2605
22213SOL    HW275608   3.975   8.680   8.367  0.1847 -0.0418 -1.8011
22214SOL     OW75609  10.826   8.476   4.835  0.1633 -0.4499 -0.2568
22214SOL    HW175610  10.857   8.424   4.760 -0.4418 -1.1733 -0.0156
22214SOL    HW275611  10.806   8.562   4.798 -0.0576 -0.7797 -0.9144
22215SOL     OW75612   6.304   5.012   6.953 -0.1035 -0.4196  0.0669
22215SOL    HW175613   6.244   5.081   6.981 -0.1737 -0.0777 -0.9020
22215SOL    HW275614   6.341   5.043   6.871  0.6576 -1.0755  0.1390
22216SOL     OW75615  10.832   7.284   2.332  0.4120 -0.0110  0.1993
22216SOL    HW175616  10.919   7.278   2.292 -0.4586  1.3686 -2.0880
22216SOL    HW275617  10.800   7.193   2.334  1.7005 -0.4765  0.6751
22217SOL     OW75618  10.628   0.498   6.285  0.0908  0.3946 -0.5659
22217SOL    HW175619  10.567   0.514   6.358  1.6916 -0.0743  0.9496
22217SOL    HW275620  10.612   0.407   6.260  0.7882 -0.0444  0.4966
22218SOL     OW75621   0.127  12.340   1.613 -0.2780 -0.7858 -0.2577
22218SOL    HW175622   0.217  12.325   1.586 -0.4225 -0.2630 -1.0647
22218SOL    HW275623   0.131  12.420   1.665 -0.1904 -1.0942  0.2148
22219SOL     OW75624   6.303   5.299  11.988  0.0834  0.1171  0.6143
22219SOL    HW175625   6.237   5.310  11.919  0.4526  0.9471  0.3856
22219SOL    HW275626   6.360   5.230  11.955 -1.4449 -1.6335  1.4351
22220SOL     OW75627   3.964   5.265   3.176 -0.1539  0.0937  0.4338
22220SOL    HW175628   3.924   5.341   3.132 -1.1009 -0.6075  0.0472
22220SOL    HW275629   3.961   5.288   3.269  0.1911  0.8159  0.2773
22221SOL     OW75630  10.665   0.633   1.850 -0.5646  0.2679  0.8085
22221SOL    HW175631  10.725   0.649   1.778  0.3106  1.8276  1.8416
22221SOL    HW275632  10.578   0.643   1.811 -0.2527 -2.1271 -0.7248
22222SOL     OW75633   9.277   1.293   7.057  0.0391 -0.2464  0.3494
22222SOL    HW175634   9.218   1.342   7.000  1.4346  0.9160 -0.1455
22222SOL    HW275635   9.266   1.333   7.143 -1.4030 -1.4205  0.7704
22223SOL     OW75636   1.381   0.151   1.298 -0.0495 -0.7304 -0.6240
22223SOL    HW175637   1.476   0.165   1.292 -0.3315  1.1375 -1.0690
22223SOL    HW275638   1.361   0.159   1.391  0.3198 -1.9858 -0.4115
22224SOL     OW75639   3.612  10.872   0.444 -0.7197 -0.2989 -0.7305
22224SOL    HW175640   3.704  10.855   0.466 -0.9887 -1.8277 -0.6414
22224SOL    HW275641   3.567  10.791   0.469 -2.6819  1.5579  2.3915
22225SOL     OW75642   7.604   0.252   5.695  0.4536  0.0670 -0.0180
22225SOL    HW175643   7.660   0.283   5.625  1.0626  0.5116  0.6545
22225SOL    HW275644   7.592   0.158   5.677  1.7502 -0.1248  0.0552
22226SOL     OW75645   3.074   7.027   5.209  0.1500 -0.3169 -0.2559
22226SOL    HW175646   2.987   7.032   5.170 -0.5728  0.2015  1.3716
22226SOL    HW275647   3.076   6.943   5.254  1.7281 -1.8941 -2.9526
22227SOL     OW75648   9.190   9.283   5.327 -0.6802 -0.1611 -0.1509
22227SOL    HW175649   9.154   9.218   5.387 -2.2190  1.4507  0.7811
22227SOL    HW275650   9.242   9.341   5.383  1.4325 -1.0095 -1.1018
22228SOL     OW75651   0.953  11.948   7.250 -0.1142 -0.4527  0.2848
22228SOL    HW175652   1.028  11.920   7.197  0.5499  3.3641 -1.0706
22228SOL    HW275653   0.989  11.958   7.338  0.0051 -2.0075  0.4497
22229SOL     OW75654   1.141   7.946  10.273 -0.1426  0.2039 -0.3754
22229SOL    HW175655   1.082   7.997  10.328  0.5868  0.6487 -0.0004
22229SOL    HW275656   1.173   8.008  10.208  2.2306  0.7726  1.2141
22230SOL     OW75657   3.829   4.750   2.288  0.0537  0.0049 -0.3114
22230SOL    HW175658   3.789   4.827   2.328  2.7572  0.3531  2.0749
22230SOL    HW275659   3.867   4.783   2.206  1.1541  1.2950  0.6593
22231SOL     OW75660   5.450   3.389   8.226  0.2223  0.0303 -0.8913
22231SOL    HW175661   5.520   3.405   8.290  0.9009 -0.1469 -1.5703
22231SOL    HW275662   5.484   3.319   8.170  0.3827  1.3390 -2.5095
22232SOL     OW75663   3.451   3.310   3.655  0.0904 -0.3816  0.0683
22232SOL    HW175664   3.411   3.227   3.626 -3.0604  1.4398 -1.3240
22232SOL    HW275665   3.532   3.316   3.605 -1.8624 -0.5954 -3.4288
22233SOL     OW75666   8.902   6.572  12.490 -0.0678 -0.4020  0.0359
22233SOL    HW175667   8.958   6.648  12.504  0.2601 -0.3442 -1.4207
22233SOL    HW275668   8.913   6.519  12.569 -1.2476  1.5963  1.6605
22234SOL     OW75669   1.103   7.173   6.207 -0.0851 -0.5419  0.2905
22234SOL    HW175670   1.089   7.224   6.127 -0.0471  0.7355  1.0705
22234SOL    HW275671   1.028   7.115   6.213  0.4693 -1.4714 -1.2626
22235SOL     OW75672  11.612  10.665  10.600 -0.0035 -0.3295  0.2056
22235SOL    HW175673  11.644  10.739  10.652  0.2204 -0.0326 -0.3378
22235SOL    HW275674  11.642  10.685  10.511  0.0685 -1.0833  0.0583
22236SOL     OW75675   6.160   1.126   5.644 -0.3112  0.1243  0.0838
22236SOL    HW175676   6.098   1.173   5.701  0.9100  0.3805  1.2636
22236SOL    HW275677   6.165   1.179   5.565 -1.7814 -0.0445 -0.1481
22237SOL     OW75678   0.316   7.647   9.785 -0.4141  0.2801  0.8010
22237SOL    HW175679   0.322   7.556   9.758  0.1048  0.5775 -0.1492
22237SOL    HW275680   0.222   7.666   9.787 -0.4961  0.1810 -0.6705
22238SOL     OW75681   4.842  11.506   1.102 -0.0352  0.3078  0.2229
22238SOL    HW175682   4.881  11.454   1.031 -0.7204 -1.8934  1.3709
22238SOL    HW275683   4.914  11.561   1.133  0.5996  0.4245 -1.3649
22239SOL     OW75684   1.260   4.764   1.954  0.3171 -0.4854  0.1882
22239SOL    HW175685   1.248   4.712   1.875 -0.0753 -0.8808  0.5038
22239SOL    HW275686   1.335   4.820   1.935 -0.2900  0.0187 -0.7675
22240SOL     OW75687   9.073   3.576   2.719  0.4307 -0.1199 -0.5184
22240SOL    HW175688   9.134   3.641   2.755  1.3567 -0.7646 -0.8693
22240SOL    HW275689   9.090   3.497   2.770 -0.6164 -0.1387 -0.1651
22241SOL     OW75690   6.057  10.693   8.649 -0.1698 -0.1879  0.0085
22241SOL    HW175691   6.148  10.674   8.670  0.0750  1.3153  0.4359
22241SOL    HW275692   6.046  10.662   8.559  0.4699 -1.2774  0.2951
22242SOL     OW75693   8.308   9.059   0.084  0.5458  0.1581 -0.4020
22242SOL    HW175694   8.267   9.084   0.167 -0.2322 -2.0549 -0.0358
22242SOL    HW275695   8.280   9.127   0.022 -1.4903  0.1986  0.4643
22243SOL     OW75696   4.903  10.641   6.119 -0.3640  0.4429  0.3015
22243SOL    HW175697   4.916  10.587   6.041 -1.1088  0.7883 -0.0783
22243SOL    HW275698   4.810  10.662   6.117 -0.1784  1.3169  0.7222
22244SOL     OW75699  11.285   7.385   0.093  0.9299 -0.0908  0.1899
22244SOL    HW175700  11.196   7.398   0.125  0.8706 -0.9305  0.3956
22244SOL    HW275701  11.300   7.291   0.102  2.1818  0.1664  1.0780
22245SOL     OW75702   8.076   0.268   9.198 -0.1522 -0.1412  0.3762
22245SOL    HW175703   8.072   0.192   9.256  0.6977 -0.7216 -0.3083
22245SOL    HW275704   8.059   0.343   9.255  1.7570 -0.5905  1.6110
22246SOL     OW75705   7.239  10.705   5.035 -0.7037  0.1616  0.2686
22246SOL    HW175706   7.249  10.761   5.111  1.2696  0.5675 -0.2252
22246SOL    HW275707   7.311  10.730   4.977  0.1329 -2.6547 -0.0905
22247SOL     OW75708   9.964  11.598  11.483 -0.1086  0.3763  0.0399
22247SOL    HW175709   9.882  11.600  11.434 -0.4832  1.3048  0.6751
22247SOL    HW275710   9.968  11.510  11.520 -1.4007  0.6549  0.9196
22248SOL     OW75711   9.145  10.773   5.577 -0.2562 -0.4150  0.1354
22248SOL    HW175712   9.157  10.867   5.564  2.2075 -0.3240  2.3285
22248SOL    HW275713   9.127  10.763   5.670 -1.9030 -2.0547 -0.2998
22249SOL     OW75714   9.593   4.756   7.195  0.4230  0.2421 -0.2965
22249SOL    HW175715   9.506   4.778   7.162  0.5747 -0.3173 -1.1090
22249SOL    HW275716   9.576   4.710   7.278  0.0392  1.6536  0.4383
22250SOL     OW75717  12.065   3.258   0.169  0.0386  0.1951 -0.5102
22250SOL    HW175718  12.029   3.272   0.082  0.9840  0.2323 -0.9080
22250SOL    HW275719  12.159   3.244   0.154  0.4716  1.6576  0.6153
22251SOL     OW75720   1.717   2.969   4.489  0.2632  0.3759 -0.0415
22251SOL    HW175721   1.713   2.899   4.554  0.2799  0.5540  0.1546
22251SOL    HW275722   1.638   2.958   4.437 -0.6971  1.3037  1.1328
22252SOL     OW75723   8.579   5.324   3.025  0.5043  0.3446 -0.0916
22252SOL    HW175724   8.634   5.258   3.067 -0.3575 -0.6039 -0.4276
22252SOL    HW275725   8.526   5.359   3.097 -1.8247 -2.1157 -0.4686
22253SOL     OW75726   9.409   4.707   0.825 -0.1122  0.5091  0.0829
22253SOL    HW175727   9.483   4.668   0.778 -1.3104 -1.5511 -0.2268
22253SOL    HW275728   9.360   4.754   0.759  0.0564  0.5156 -0.0382
22254SOL     OW75729  10.352   4.438  10.694 -0.3307 -0.1896 -0.0299
22254SOL    HW175730  10.382   4.351  10.670  0.2810  0.5049 -1.9981
22254SOL    HW275731  10.258   4.428  10.709 -0.2334 -1.2167 -0.0729
22255SOL     OW75732   2.835   2.136   9.028 -0.5069 -0.2590 -0.1694
22255SOL    HW175733   2.888   2.215   9.033 -0.0249 -0.4714 -1.4440
22255SOL    HW275734   2.745   2.167   9.024 -0.3682  0.1893  0.1058
22256SOL     OW75735   2.395   3.416   2.792  0.0060  0.4809 -0.0863
22256SOL    HW175736   2.328   3.413   2.724  0.9568 -0.4656 -1.0394
22256SOL    HW275737   2.452   3.489   2.765  0.6515 -0.1958 -0.6020
22257SOL     OW75738   6.570   9.206   1.997  0.6514 -0.0502  0.4355
22257SOL    HW175739   6.623   9.186   1.920  1.2026 -1.2856  1.0903
22257SOL    HW275740   6.584   9.130   2.055 -0.2119  0.5716  1.4891
22258SOL     OW75741   9.536   8.541   1.651 -0.3109 -0.2497  0.4643
22258SOL    HW175742   9.560   8.501   1.734  2.4214 -0.9861 -0.5711
22258SOL    HW275743   9.492   8.472   1.602  1.4921 -1.0650 -0.0842
22259SOL     OW75744   7.841   8.363   3.671  0.0029 -0.1112 -0.5686
22259SOL    HW175745   7.878   8.341   3.757 -2.4682  2.3818  1.3148
22259SOL    HW275746   7.878   8.448   3.650 -0.3483 -0.1541 -1.3944
22260SOL     OW75747  10.299   1.755   3.299 -0.3111 -0.0148  0.2713
22260SOL    HW175748  10.237   1.826   3.282  0.4568  0.3707 -1.0802
22260SOL    HW275749  10.364   1.793   3.359 -0.8762 -0.1455  0.9777
22261SOL     OW75750  12.179  10.079   9.360 -0.7915  0.0806  0.7485
22261SOL    HW175751  12.133  10.049   9.438 -0.5737 -1.5831  0.2705
22261SOL    HW275752  12.224  10.001   9.327  0.2440  1.0665 -0.2605
22262SOL     OW75753   5.733   8.324   0.424 -0.2067  0.6572  0.4366
22262SOL    HW175754   5.686   8.246   0.453  1.3797  0.2288  2.0858
22262SOL    HW275755   5.697   8.344   0.338 -0.3057 -2.1928 -0.2609
22263SOL     OW75756   0.184  11.429   5.484  0.9014  0.1291  0.7848
22263SOL    HW175757   0.131  11.439   5.563 -2.2032 -2.4966 -0.7601
22263SOL    HW275758   0.174  11.512   5.438 -0.9029  0.1456  1.1379
22264SOL     OW75759  10.198  10.512   9.124  0.5824  0.2464 -0.8359
22264SOL    HW175760  10.179  10.572   9.052  0.1530  0.1032 -0.8425
22264SOL    HW275761  10.289  10.530   9.147  0.3814  1.0883 -0.6604
22265SOL     OW75762  12.525   2.843  10.537  0.1681 -0.5579 -0.3669
22265SOL    HW175763  12.540   2.920  10.592 -0.8228 -0.0594 -0.7629
22265SOL    HW275764  12.601   2.840  10.478  0.4493 -0.1696 -0.0298
22266SOL     OW75765   4.652   8.900  12.579 -0.6695  0.5261  0.3502
22266SOL    HW175766   4.734   8.934  12.615 -0.7363  1.8825 -0.7130
22266SOL    HW275767   4.655   8.922  12.486 -2.0177  0.1454  0.1876
22267SOL     OW75768   9.065   9.712   0.840 -0.2528  0.3376 -0.1829
22267SOL    HW175769   9.116   9.640   0.876  1.7931  3.0882  2.9908
22267SOL    HW275770   8.984   9.711   0.891 -1.1316 -0.7965 -1.5233
22268SOL     OW75771   9.001   7.394  11.535  0.6575 -0.5292 -0.5070
22268SOL    HW175772   8.942   7.352  11.598 -0.4705  1.0129 -0.4491
22268SOL    HW275773   8.944   7.454  11.487  2.1426  0.8623 -0.6127
22269SOL     OW75774   9.294   2.276  12.486  0.1720  0.6238  0.4867
22269SOL    HW175775   9.205   2.306  12.471 -0.1235 -0.6424 -0.3983
22269SOL    HW275776   9.334   2.275  12.399  1.2922  1.8187  0.9380
22270SOL     OW75777   2.319   3.135   7.126  0.2623 -0.3457 -0.0391
22270SOL    HW175778   2.322   3.223   7.088  0.8097 -1.1194 -1.9189
22270SOL    HW275779   2.410   3.116   7.148  0.3058 -0.7775 -0.5465
22271SOL     OW75780  10.374   2.224   2.627  0.8080 -0.3124 -0.6244
22271SOL    HW175781  10.419   2.191   2.705  0.0189 -0.4124 -0.2093
22271SOL    HW275782  10.290   2.256   2.659 -0.0024 -1.4021 -1.6123
22272SOL     OW75783   6.683  10.359   6.469 -0.0389  0.2976 -0.3600
22272SOL    HW175784   6.671  10.388   6.559  0.2936  0.9872 -0.5291
22272SOL    HW275785   6.758  10.300   6.471 -0.2099  0.0897 -0.1402
22273SOL     OW75786   0.564   5.472   2.859  0.0466 -0.0362  0.3497
22273SOL    HW175787   0.616   5.536   2.910 -1.6773 -0.3840  2.7019
22273SOL    HW275788   0.475   5.508   2.859 -0.5719 -1.5095  0.0466
22274SOL     OW75789  12.303  11.246   7.711 -0.6871  0.1202 -0.4610
22274SOL    HW175790  12.386  11.211   7.745 -0.8592  0.6991  0.6286
22274SOL    HW275791  12.328  11.328   7.669 -0.4876 -0.5479 -1.6931
22275SOL     OW75792   7.030   0.824   5.096  0.1514 -0.2392 -0.0099
22275SOL    HW175793   7.120   0.851   5.074  0.3094 -0.5917  0.1990
22275SOL    HW275794   6.985   0.822   5.011 -0.0177  1.2143  0.0259
22276SOL     OW75795   7.602   8.423   5.563 -0.4892 -0.4886  0.2188
22276SOL    HW175796   7.580   8.422   5.470  0.6876  2.2393 -0.1861
22276SOL    HW275797   7.673   8.359   5.572 -0.6751 -0.8433 -0.7383
22277SOL     OW75798   1.447   6.066   1.704  0.0860 -0.1257 -0.6819
22277SOL    HW175799   1.352   6.060   1.719 -0.0669  1.2349 -1.0094
22277SOL    HW275800   1.458   6.037   1.613 -0.3129  1.7390 -1.3706
22278SOL     OW75801  12.296   5.664   4.469 -0.1225 -0.5373 -0.1097
22278SOL    HW175802  12.376   5.612   4.460  0.1372 -0.4354  1.4248
22278SOL    HW275803  12.306   5.709   4.553 -1.8564 -0.6127  0.1635
22279SOL     OW75804   6.895   9.015  10.850 -0.4463 -0.3264 -0.1252
22279SOL    HW175805   6.881   9.109  10.860  2.8462  0.1199  1.9548
22279SOL    HW275806   6.944   9.006  10.768  0.1386 -0.0847  0.1953
22280SOL     OW75807   0.960   6.104  10.311 -0.2004 -0.4439 -0.3701
22280SOL    HW175808   0.877   6.080  10.269 -0.0032  0.9728 -1.6328
22280SOL    HW275809   1.022   6.115  10.239  1.7760 -3.6727  0.6384
22281SOL     OW75810   5.678   3.817   0.046 -0.2345  0.4169 -0.7949
22281SOL    HW175811   5.719   3.902   0.060  1.4725 -0.5327  0.2463
22281SOL    HW275812   5.737   3.771  -0.014 -1.2636  0.0339 -1.5422
22282SOL     OW75813   5.385   2.419  11.259 -0.4177  0.0694  0.3817
22282SOL    HW175814   5.396   2.507  11.223  1.7369 -0.3166 -0.0518
22282SOL    HW275815   5.363   2.433  11.351  1.3905  1.1214  0.7163
22283SOL     OW75816  10.974  10.297   5.908  0.1116 -0.3749 -0.4781
22283SOL    HW175817  11.056  10.250   5.896  0.4159 -0.4320  1.5346
22283SOL    HW275818  10.917  10.235   5.953 -0.2326  0.4214  0.2197
22284SOL     OW75819   2.548   9.049   2.243  0.0111 -0.5352  0.1814
22284SOL    HW175820   2.457   9.035   2.268 -0.2442 -0.3887 -0.6323
22284SOL    HW275821   2.551   9.028   2.149  0.3911  1.2759 -0.2506
22285SOL     OW75822   6.240  10.866   2.830 -0.0194  0.5488  0.6607
22285SOL    HW175823   6.275  10.944   2.787 -0.8775 -0.6081 -2.3606
22285SOL    HW275824   6.302  10.796   2.808 -0.9978 -0.2769  0.4518
22286SOL     OW75825   0.428  11.131   4.202 -0.1120  0.0947  0.7855
22286SOL    HW175826   0.338  11.160   4.186 -0.5105 -2.1789 -1.7114
22286SOL    HW275827   0.420  11.064   4.270 -0.4635 -0.7068 -0.0254
22287SOL     OW75828   4.157   2.504   4.614  0.3950  0.0813 -0.3588
22287SOL    HW175829   4.072   2.490   4.572  1.0061 -1.6629 -1.1122
22287SOL    HW275830   4.191   2.583   4.573 -0.5339  0.3784 -0.5897
22288SOL     OW75831   4.018   7.949   8.835 -0.3878 -0.8486 -0.1713
22288SOL    HW175832   3.990   7.931   8.745  0.5804 -1.6709 -0.3374
22288SOL    HW275833   3.939   7.938   8.888 -0.5730 -2.3105 -0.7084
22289SOL     OW75834   5.593   9.200   6.486 -0.2101  0.1759  0.9304
22289SOL    HW175835   5.509   9.155   6.476  0.6602 -1.2689 -0.3723
22289SOL    HW275836   5.617   9.187   6.577 -0.1421 -1.7681  0.6621
22290SOL     OW75837  11.056   8.545   1.527 -0.3206  0.2629 -0.1442
22290SOL    HW175838  11.096   8.478   1.471 -1.0691  0.5041 -0.9879
22290SOL    HW275839  11.107   8.624   1.509 -0.2439  0.2229 -0.1028
22291SOL     OW75840   3.992   9.649   4.574 -0.2811  0.6411  0.1214
22291SOL    HW175841   3.901   9.620   4.574  0.1703 -0.8585 -0.9464
22291SOL    HW275842   4.036   9.590   4.635 -0.2151  2.1543  1.6144
22292SOL     OW75843   9.283   6.186   0.439  0.5726  0.3944  0.1490
22292SOL    HW175844   9.305   6.196   0.531 -1.5664  0.1203  0.7398
22292SOL    HW275845   9.363   6.152   0.398  0.7737 -2.1525  2.4054
22293SOL     OW75846   9.620   4.851   2.637 -0.3609  0.0588 -0.0863
22293SOL    HW175847   9.578   4.860   2.723 -2.0720 -0.4361 -0.8223
22293SOL    HW275848   9.641   4.940   2.611 -0.2107  0.2502  0.6511
22294SOL     OW75849  11.833   4.819   2.690  0.0730 -0.2373 -0.5029
22294SOL    HW175850  11.781   4.857   2.619  0.7711  0.7958 -0.4782
22294SOL    HW275851  11.907   4.879   2.700  1.8483 -2.1956 -1.2319
22295SOL     OW75852   9.645   1.217  11.148  0.5198  0.5544 -0.0956
22295SOL    HW175853   9.585   1.291  11.140 -0.4011 -0.2214 -0.4347
22295SOL    HW275854   9.732   1.256  11.137  0.0483  1.5709 -0.3440
22296SOL     OW75855   9.514  10.766   1.347 -0.3380  0.1408 -0.9440
22296SOL    HW175856   9.546  10.829   1.283  1.5091  0.2417  0.0126
22296SOL    HW275857   9.586  10.756   1.409 -0.4411 -3.0968 -1.1907
22297SOL     OW75858   7.978   6.350  10.877 -1.2539  0.4365 -0.0002
22297SOL    HW175859   8.025   6.376  10.798 -0.2046 -0.3019  0.3636
22297SOL    HW275860   7.983   6.427  10.934  1.9239 -0.4228  1.1135
22298SOL     OW75861   0.616   4.032   0.679  0.6553 -0.4213  0.2307
22298SOL    HW175862   0.690   4.025   0.739  0.7868 -0.5360  0.0554
22298SOL    HW275863   0.619   3.951   0.628 -0.6181 -1.2549  1.3986
22299SOL     OW75864   9.518   3.169   9.022  0.3056 -0.2024  0.3717
22299SOL    HW175865   9.482   3.156   9.109 -0.2661 -1.1200  0.0170
22299SOL    HW275866   9.612   3.152   9.032  0.4266  0.7799  1.0140
22300SOL     OW75867   1.923   0.062   5.338  0.2105 -0.2181 -0.1968
22300SOL    HW175868   1.886  -0.024   5.316 -1.1957  0.3715 -0.2696
22300SOL    HW275869   1.875   0.123   5.283  0.8385  0.6724  0.2270
22301SOL     OW75870   3.543   4.888   3.800 -0.4335  0.5030  1.2125
22301SOL    HW175871   3.598   4.963   3.774 -0.6960 -0.0284 -1.1143
22301SOL    HW275872   3.569   4.870   3.890 -0.6914  3.6816  2.0639
22302SOL     OW75873   6.695   4.827   3.384  0.0775 -0.0335 -0.4102
22302SOL    HW175874   6.697   4.914   3.343 -0.9536  0.0881 -0.2344
22302SOL    HW275875   6.777   4.786   3.357  1.9656  1.9995  1.7664
22303SOL     OW75876   6.761  10.421  11.098  0.2144  0.1094 -0.2548
22303SOL    HW175877   6.834  10.435  11.037  0.3381  0.2952 -0.0663
22303SOL    HW275878   6.775  10.485  11.168  0.4010 -0.4979  0.2766
22304SOL     OW75879  11.205  12.546   1.993  0.1120 -0.1400  0.2270
22304SOL    HW175880  11.199  12.493   2.072  0.1862  0.3671  0.5796
22304SOL    HW275881  11.142  12.507   1.932 -0.1430 -0.3614  0.6319
22305SOL     OW75882  11.939   1.176   6.015  0.2339 -0.3252 -0.0754
22305SOL    HW175883  11.891   1.145   5.938 -2.2615 -0.4205  1.4049
22305SOL    HW275884  11.960   1.267   5.995 -1.1259 -0.0924 -0.5730
22306SOL     OW75885   7.556   3.194  11.108  0.2177 -0.2250  0.2298
22306SOL    HW175886   7.645   3.163  11.121  0.0327 -0.6934  0.3637
22306SOL    HW275887   7.541   3.257  11.179  0.3040 -0.4341  0.4320
22307SOL     OW75888   1.156  11.470   4.437 -0.3633  0.0358  0.1319
22307SOL    HW175889   1.137  11.384   4.475 -0.4413 -0.2993 -0.6535
22307SOL    HW275890   1.153  11.530   4.511  0.7878 -0.7970  0.8987
22308SOL     OW75891   3.238  11.178   6.281  0.4092 -0.1332 -0.0233
22308SOL    HW175892   3.282  11.131   6.210 -1.2977 -0.8079 -0.6832
22308SOL    HW275893   3.223  11.266   6.246  0.6599 -0.0955 -0.0347
22309SOL     OW75894  12.396   4.890   2.170 -0.1177 -0.2388  0.5466
22309SOL    HW175895  12.448   4.961   2.207  2.0236 -1.3932 -0.1172
22309SOL    HW275896  12.373   4.836   2.246  1.6675 -0.9592  0.6096
22310SOL     OW75897   6.372   6.792   9.053  0.0870 -0.7948 -0.8491
22310SOL    HW175898   6.340   6.854   8.988 -0.4377  0.9673  0.9746
22310SOL    HW275899   6.320   6.811   9.131  2.4648 -0.9864  0.8755
22311SOL     OW75900   7.146   2.363   8.779  0.0514  0.2971  0.0725
22311SOL    HW175901   7.123   2.419   8.704 -1.5465  0.5728  0.7385
22311SOL    HW275902   7.156   2.276   8.741  0.8232  0.6992 -0.6984
22312SOL     OW75903   0.069   7.807   4.378  0.1693 -0.2832 -0.1011
22312SOL    HW175904   0.085   7.714   4.363 -0.7333 -0.5896  0.7149
22312SOL    HW275905  -0.019   7.810   4.415  0.0533  0.9336 -0.4520
22313SOL     OW75906   0.590   6.199   3.564  0.1129  0.0057  0.1821
22313SOL    HW175907   0.563   6.185   3.654  0.1554 -0.0143  0.1916
22313SOL    HW275908   0.642   6.280   3.566  0.7119 -0.3762  0.2921
22314SOL     OW75909   2.200   4.775   1.879  0.1168 -0.0286 -0.4175
22314SOL    HW175910   2.140   4.800   1.808 -0.3213  1.0049  0.2921
22314SOL    HW275911   2.255   4.852   1.892  1.7397 -1.0242 -1.1616
22315SOL     OW75912   1.105   3.723   9.094  0.6308  0.0216 -0.1432
22315SOL    HW175913   1.098   3.743   9.187 -1.7056  0.0568 -0.2799
22315SOL    HW275914   1.063   3.797   9.050  0.2014 -0.7951 -1.1323
22316SOL     OW75915   2.606   6.834   7.028  0.4736 -0.4318 -0.1451
22316SOL    HW175916   2.634   6.763   7.086  0.9089  0.6463  1.0098
22316SOL    HW275917   2.688   6.872   6.997  0.4029  1.8779  2.1764
22317SOL     OW75918   5.807   0.561   9.446  0.3095  0.2423  0.0314
22317SOL    HW175919   5.786   0.654   9.435 -0.7798  0.1292  0.9559
22317SOL    HW275920   5.795   0.545   9.540  0.8258 -0.7602 -0.0578
22318SOL     OW75921   1.975   9.028   3.268 -0.5683 -0.5871 -0.0248
22318SOL    HW175922   1.915   9.100   3.246 -0.6673 -0.8291 -0.5718
22318SOL    HW275923   2.009   8.999   3.183 -1.6310 -2.1388  0.0371
22319SOL     OW75924   9.324  12.544   0.421 -0.6083 -0.0399  0.1542
22319SOL    HW175925   9.354  12.467   0.469 -0.7962  0.4095  1.0126
22319SOL    HW275926   9.264  12.509   0.354  0.0967 -0.7237 -0.1275
22320SOL     OW75927   3.608  11.467   4.420  0.4511  0.1750  0.1696
22320SOL    HW175928   3.659  11.487   4.341  0.9263 -1.0912  0.1321
22320SOL    HW275929   3.670  11.425   4.479 -0.0322  0.6323  1.0292
22321SOL     OW75930   2.299   6.370   6.275 -0.3888 -0.0096 -0.0959
22321SOL    HW175931   2.325   6.357   6.184  0.0837  0.2393  0.0025
22321SOL    HW275932   2.203   6.363   6.273 -0.3416 -0.6562 -0.5012
22322SOL     OW75933   7.164  10.715   9.493 -0.1777 -0.2902 -0.8810
22322SOL    HW175934   7.203  10.794   9.458 -2.0720  0.8074 -0.6777
22322SOL    HW275935   7.154  10.732   9.587 -0.9091 -0.6197 -0.8884
22323SOL     OW75936   3.339  10.408   1.205 -0.1120  0.0872 -0.1236
22323SOL    HW175937   3.336  10.502   1.221  1.3928 -0.1513  1.8690
22323SOL    HW275938   3.294  10.397   1.121 -1.0854  2.4601  0.0056
22324SOL     OW75939   5.762   9.846   3.417 -0.0880 -0.0308 -0.1892
22324SOL    HW175940   5.806   9.885   3.493  0.6420  0.3555 -0.8039
22324SOL    HW275941   5.704   9.915   3.385 -1.1784 -0.5382  0.6197
22325SOL     OW75942   1.296   9.770   7.701  0.5987  0.1517  0.0689
22325SOL    HW175943   1.322   9.775   7.609  0.6501  1.2624  0.1332
22325SOL    HW275944   1.206   9.737   7.699  1.1645 -1.5007 -0.2708
22326SOL     OW75945   5.680   4.763   5.755  0.5793 -0.2380 -0.2589
22326SOL    HW175946   5.618   4.824   5.794  0.3359  0.3280 -1.5051
22326SOL    HW275947   5.628   4.686   5.732  0.5836 -0.2669 -0.1741
22327SOL     OW75948   4.872   3.993   1.799  0.3569  0.2687  0.0638
22327SOL    HW175949   4.960   3.967   1.824 -0.1447 -0.6464  0.9600
22327SOL    HW275950   4.815   3.942   1.857 -0.7700  0.3868 -0.9137
22328SOL     OW75951   6.902   8.881  11.883  0.2668 -0.3732  0.2889
22328SOL    HW175952   6.810   8.860  11.901  0.6787 -2.1945  0.4133
22328SOL    HW275953   6.912   8.971  11.914 -1.4470 -0.1597  0.3378
22329SOL     OW75954  10.893  10.748  10.365 -0.0796 -0.2729 -0.1099
22329SOL    HW175955  10.863  10.837  10.345  1.7047  0.2167 -0.7474
22329SOL    HW275956  10.916  10.751  10.457 -0.3707 -0.1795 -0.0398
22330SOL     OW75957   4.488   9.205   5.588 -0.5773 -0.4171  0.5545
22330SOL    HW175958   4.451   9.164   5.666 -1.3289 -1.5592 -0.3797
22330SOL    HW275959   4.417   9.203   5.524  0.0146  0.5496 -0.1555
22331SOL     OW75960   0.428   9.363   2.873  0.4074 -0.8117 -0.0582
22331SOL    HW175961   0.352   9.306   2.858  0.4573 -0.6213 -1.0777
22331SOL    HW275962   0.501   9.302   2.885  0.5011 -0.9750 -1.3672
22332SOL     OW75963   8.126  11.294   2.840  0.7966 -0.1394  0.0824
22332SOL    HW175964   8.044  11.306   2.791  1.1847  0.7129 -0.3811
22332SOL    HW275965   8.100  11.295   2.932  0.2251 -0.3953 -0.0713
22333SOL     OW75966   0.009  10.123   8.762  0.4063 -0.0814  0.1597
22333SOL    HW175967   0.003  10.177   8.683  0.2066  0.3209  0.4409
22333SOL    HW275968   0.100  10.094   8.765  1.0199  1.7507  0.9652
22334SOL     OW75969   3.044   6.107   7.554  0.2839 -0.0633  0.4412
22334SOL    HW175970   3.094   6.164   7.613 -0.4675  0.4284  0.6073
22334SOL    HW275971   3.061   6.142   7.467  0.0011  0.2889  0.5233
22335SOL     OW75972   7.632   3.945   5.021  0.3665  0.8149  0.2233
22335SOL    HW175973   7.664   3.896   5.096 -0.5762 -1.1470 -0.6033
22335SOL    HW275974   7.706   4.000   4.994  1.6067 -0.4803  0.9035
22336SOL     OW75975   3.451   5.223   3.942 -0.6961  0.3265  0.3235
22336SOL    HW175976   3.490   5.144   3.905 -2.6955 -0.7887  0.4594
22336SOL    HW275977   3.400   5.261   3.871 -1.3794  0.3597  0.8152
22337SOL     OW75978   1.452   6.959   7.073  0.3213  0.3109 -0.1898
22337SOL    HW175979   1.429   6.899   7.002  1.7058 -1.5037  0.8152
22337SOL    HW275980   1.541   6.988   7.052  1.2029 -1.1461  1.3172
22338SOL     OW75981   8.867   1.024   5.693  0.3186 -0.0516 -0.2314
22338SOL    HW175982   8.934   0.955   5.699 -0.6288 -1.0353 -0.6076
22338SOL    HW275983   8.839   1.022   5.602  0.8797  1.4506 -0.4625
22339SOL     OW75984   0.321   2.007   3.664 -0.0732 -0.4471 -0.0224
22339SOL    HW175985   0.316   2.000   3.569  0.4625 -1.0626 -0.0099
22339SOL    HW275986   0.237   2.045   3.689 -0.0066  0.2467 -0.7837
22340SOL     OW75987   1.722   9.655  12.424 -0.8247  1.0646 -0.0974
22340SOL    HW175988   1.791   9.608  12.471 -0.9086  1.4372  0.4046
22340SOL    HW275989   1.729   9.745  12.456 -0.2495  1.5575 -1.5179
22341SOL     OW75990  11.315  12.401   0.606  0.4229 -0.0879  0.9924
22341SOL    HW175991  11.390  12.349   0.636  1.0784  1.3906  2.0343
22341SOL    HW275992  11.348  12.451   0.532 -0.2939 -1.3376 -0.2104
22342SOL     OW75993   7.345   0.725   0.232 -0.4653  0.0498 -0.1014
22342SOL    HW175994   7.416   0.788   0.228  0.0575 -0.5042  0.1989
22342SOL    HW275995   7.265   0.777   0.221 -0.0332  0.7138 -0.1482
22343SOL     OW75996   0.157  12.515   1.810 -0.0913  0.3730  0.2774
22343SOL    HW175997   0.125  12.569   1.883 -0.5990  0.2800  0.1242
22343SOL    HW275998   0.208  12.445   1.853 -0.4936  0.2448  0.5543
22344SOL     OW75999   3.297   6.439  10.785 -0.2765  0.3069  0.0070
22344SOL    HW176000   3.208   6.419  10.813  0.3169 -2.7027  0.1560
22344SOL    HW276001   3.351   6.425  10.863  0.4089  1.5443 -0.2179
22345SOL     OW76002   4.182   4.285   2.769  0.7726 -0.1885  0.2629
22345SOL    HW176003   4.228   4.326   2.696  1.2870  0.1943  0.7885
22345SOL    HW276004   4.142   4.206   2.732  2.7939 -1.1609 -0.0055
22346SOL     OW76005   9.214   1.690   4.395  0.0479 -0.1513 -0.2956
22346SOL    HW176006   9.157   1.749   4.346  1.1411 -0.5805 -2.1725
22346SOL    HW276007   9.295   1.687   4.344  1.0042 -1.1754  1.1982
22347SOL     OW76008   8.788   0.809   6.825  0.5581 -0.3261  0.3212
22347SOL    HW176009   8.877   0.822   6.857  0.1639  0.1137  1.2560
22347SOL    HW276010   8.772   0.882   6.766  0.4682  0.1390  0.9206
22348SOL     OW76011  12.091   9.992  10.528 -0.1235 -0.4089  0.1854
22348SOL    HW176012  12.162   9.939  10.493  0.0159  1.1940 -2.2366
22348SOL    HW276013  12.134  10.072  10.559 -0.8312  0.6133 -1.3814
22349SOL     OW76014   9.987  11.337   7.929  0.4675  0.4939 -0.0063
22349SOL    HW176015   9.897  11.336   7.960  0.5659  2.0124  0.4130
22349SOL    HW276016  10.024  11.417   7.965  2.5340 -0.9523  1.3467
22350SOL     OW76017   4.671   3.393   1.269  0.1103  0.2791 -0.2727
22350SOL    HW176018   4.705   3.478   1.296  1.0362 -0.2695  0.3226
22350SOL    HW276019   4.595   3.414   1.215  0.5615  1.4908 -0.4647
22351SOL     OW76020   9.576   1.646   7.338 -0.2352 -0.1887  0.1828
22351SOL    HW176021   9.663   1.608   7.323  1.2043  2.0345  2.0882
22351SOL    HW276022   9.548   1.610   7.422 -0.0930  0.7586  0.6567
22352SOL     OW76023  10.078   5.694   7.726 -0.7689  0.1011  1.0126
22352SOL    HW176024  10.144   5.679   7.794 -1.2960  0.5239  1.6412
22352SOL    HW276025  10.126   5.735   7.654 -0.5467  1.5643  1.9535
22353SOL     OW76026  10.145   1.082   5.829 -0.6082 -0.3130 -0.3162
22353SOL    HW176027  10.121   1.055   5.918 -0.9730  0.9489 -0.0129
22353SOL    HW276028  10.186   1.168   5.840 -0.3075 -0.3182 -1.3321
22354SOL     OW76029   5.197   7.102   1.358 -0.0751  0.8483  0.1092
22354SOL    HW176030   5.181   7.175   1.298  0.4232  0.1356 -0.9044
22354SOL    HW276031   5.292   7.094   1.362 -0.1192  0.5013  0.5282
22355SOL     OW76032   7.982  10.016  10.957 -0.0158 -0.4969  0.1938
22355SOL    HW176033   8.002   9.955  11.028 -1.1905 -1.2586 -0.1085
22355SOL    HW276034   7.938  10.089  11.001  0.5101 -0.3080  0.4219
22356SOL     OW76035   4.391  11.250   3.716 -0.5279 -0.4671  0.0392
22356SOL    HW176036   4.343  11.288   3.790 -0.3786 -1.1322  0.4791
22356SOL    HW276037   4.482  11.245   3.746 -0.0683  1.1386 -0.9206
22357SOL     OW76038   5.163   6.536   8.703 -0.0444  0.6027  0.1333
22357SOL    HW176039   5.254   6.506   8.695  0.0599  0.4116  1.6588
22357SOL    HW276040   5.140   6.567   8.616  1.6065  0.9823 -0.2054
22358SOL     OW76041   7.922   3.543   2.520 -0.2060 -0.6404  0.5660
22358SOL    HW176042   7.948   3.457   2.489  0.2296 -1.3957  2.8409
22358SOL    HW276043   7.879   3.527   2.604  1.3103  1.4239  1.8586
22359SOL     OW76044   0.967   0.821   0.409  0.2051  0.0095 -0.1153
22359SOL    HW176045   0.876   0.801   0.430  0.0960  1.0274  0.4397
22359SOL    HW276046   0.993   0.885   0.475  1.0741  0.3391 -0.7688
22360SOL     OW76047   2.787   1.828   4.968 -0.8177  0.3081  0.1958
22360SOL    HW176048   2.714   1.767   4.974 -0.4197 -0.1437  0.5523
22360SOL    HW276049   2.791   1.871   5.053 -0.3207 -0.0812  0.3757
22361SOL     OW76050   0.748  10.053   7.883 -0.1739  0.5941 -0.0536
22361SOL    HW176051   0.668  10.039   7.832  0.2808  0.6154 -0.7816
22361SOL    HW276052   0.790  10.128   7.842  2.0464 -1.5575 -2.0347
22362SOL     OW76053   0.657   6.595   6.432 -0.1276 -0.3199 -0.1415
22362SOL    HW176054   0.575   6.639   6.412 -0.5785 -0.7728  0.6161
22362SOL    HW276055   0.639   6.502   6.416 -0.4201 -0.6688  1.9138
22363SOL     OW76056   0.088   5.412   6.172  0.0553  0.2590  0.2672
22363SOL    HW176057   0.154   5.467   6.213 -2.0001  4.0858 -1.0301
22363SOL    HW276058   0.017   5.407   6.236  0.8902 -2.5858  1.0842
22364SOL     OW76059   7.766   9.306   6.616 -0.1689  0.3897  0.2196
22364SOL    HW176060   7.767   9.356   6.698  0.9123  1.6210 -0.5152
22364SOL    HW276061   7.685   9.334   6.573 -1.4143 -1.2233  1.3933
22365SOL     OW76062   4.405   6.150  11.766  0.1283 -0.2651  0.2916
22365SOL    HW176063   4.431   6.072  11.717  1.1207  0.6854 -0.7447
22365SOL    HW276064   4.360   6.205  11.701  0.5529  0.5652  0.6892
22366SOL     OW76065  12.198  10.568   6.963 -0.1534  0.2489  0.2858
22366SOL    HW176066  12.277  10.518   6.983  0.0025 -0.0543 -1.0073
22366SOL    HW276067  12.230  10.652   6.930 -0.4106  0.9474  1.7327
22367SOL     OW76068  11.404  10.762   6.896 -0.3370  0.1770  0.2946
22367SOL    HW176069  11.322  10.800   6.927 -0.3225 -1.9105  3.2738
22367SOL    HW276070  11.378  10.682   6.851  0.0061 -0.7962  1.7493
22368SOL     OW76071   4.846  12.014  10.369  0.3024 -0.1642 -0.0238
22368SOL    HW176072   4.812  12.087  10.316  1.1936  0.3141  0.0434
22368SOL    HW276073   4.768  11.975  10.409 -0.2731  0.1872 -0.7783
22369SOL     OW76074   0.951   1.940   2.872  0.2947 -0.1315 -0.3688
22369SOL    HW176075   0.991   1.893   2.946  0.2564  0.8702  0.2973
22369SOL    HW276076   1.021   1.997   2.840 -0.0242  0.2388 -0.4060
22370SOL     OW76077   7.171   2.340   2.151 -0.0759  0.1356 -0.1765
22370SOL    HW176078   7.155   2.412   2.211  0.7439 -0.0695  0.3013
22370SOL    HW276079   7.085   2.320   2.114 -0.5601  0.4007  0.7719
22371SOL     OW76080   6.197   2.054   2.335 -0.3552  0.0396 -0.1425
22371SOL    HW176081   6.172   2.044   2.243  1.6896 -1.7754 -0.5770
22371SOL    HW276082   6.215   1.966   2.365  0.7708  0.7731  1.4722
22372SOL     OW76083   0.309   5.813   6.035  0.0698  0.0536 -0.1204
22372SOL    HW176084   0.295   5.903   6.065  2.6131  0.4571  0.1448
22372SOL    HW276085   0.257   5.806   5.955 -1.4260  1.2179  0.7029
22373SOL     OW76086   1.842   8.163   9.118 -0.5843  0.1749 -0.6194
22373SOL    HW176087   1.795   8.246   9.109 -0.6404  0.3354  0.8482
22373SOL    HW276088   1.813   8.129   9.202  1.1322 -0.2392 -0.1589
22374SOL     OW76089   2.970   6.627   5.097  0.6124  0.1945  0.8723
22374SOL    HW176090   2.889   6.582   5.075  0.8213 -0.4476  1.3812
22374SOL    HW276091   2.945   6.719   5.105  0.3403  0.2978 -0.9562
22375SOL     OW76092  10.771   0.505  11.181 -1.0028 -0.3090  0.1681
22375SOL    HW176093  10.823   0.471  11.253 -2.6125 -2.4103  0.4384
22375SOL    HW276094  10.687   0.528  11.220 -1.2675  0.3213 -0.7279
22376SOL     OW76095  12.179  11.697   4.256 -0.0923  0.5663 -0.2395
22376SOL    HW176096  12.204  11.700   4.348  1.4048 -0.7854 -0.5434
22376SOL    HW276097  12.086  11.679   4.256 -0.2400  1.2275  0.9932
22377SOL     OW76098  10.231   9.450   5.344  0.1253 -0.2370  0.6123
22377SOL    HW176099  10.254   9.361   5.371  0.3867 -0.1468  0.6842
22377SOL    HW276100  10.182   9.438   5.263  1.2714 -0.3715 -0.0818
22378SOL     OW76101   3.487   3.776   0.818 -0.3042 -0.5359 -0.6773
22378SOL    HW176102   3.558   3.835   0.794  0.5636 -2.2195 -2.4742
22378SOL    HW276103   3.421   3.787   0.749  0.3685 -2.3998 -1.6960
22379SOL     OW76104   2.013   2.311   1.988 -0.2289  0.1189 -0.1792
22379SOL    HW176105   1.929   2.279   1.955 -1.8814  1.4560  2.3951
22379SOL    HW276106   2.053   2.235   2.029 -1.5917  0.0612  1.1238
22380SOL     OW76107   1.455   9.776  11.788 -0.0751  0.1039  0.1360
22380SOL    HW176108   1.415   9.712  11.728  1.4415 -1.3793  0.6373
22380SOL    HW276109   1.494   9.842  11.731 -0.8931  0.1286 -0.4148
22381SOL     OW76110  12.070   9.446   2.977  0.0117  0.1621 -0.5261
22381SOL    HW176111  12.008   9.471   3.045 -0.3968 -0.8347 -0.5150
22381SOL    HW276112  12.142   9.404   3.024 -1.2759 -2.6020 -0.7660
22382SOL     OW76113   2.521   9.331   9.864  0.2145  0.4193  0.1478
22382SOL    HW176114   2.495   9.359   9.951  0.3727 -0.3596  0.4514
22382SOL    HW276115   2.615   9.352   9.859  0.0437  1.1592 -0.1223
22383SOL     OW76116   0.410   7.518   7.885 -0.4502 -0.0021  0.0675
22383SOL    HW176117   0.385   7.608   7.904  0.6755  0.0860  1.3053
22383SOL    HW276118   0.505   7.515   7.901  0.0077 -0.8159 -2.4053
22384SOL     OW76119   8.630   0.116   6.098 -0.5375  0.3859 -0.3152
22384SOL    HW176120   8.678   0.035   6.115  0.1396  0.6534 -0.9144
22384SOL    HW276121   8.665   0.179   6.161  0.7168  0.8876 -1.4657
22385SOL     OW76122  10.849   9.457   1.799 -0.0891 -0.0157 -0.0064
22385SOL    HW176123  10.825   9.404   1.723 -0.3267 -0.0448  0.0866
22385SOL    HW276124  10.849   9.396   1.873 -0.0188  0.0439  0.0431
22386SOL     OW76125   8.639   6.268   6.411  0.3521  0.0836  0.6135
22386SOL    HW176126   8.608   6.358   6.419  1.2329  0.4396  0.1004
22386SOL    HW276127   8.563   6.214   6.436 -0.7808  0.9164 -0.9014
22387SOL     OW76128   6.014   6.377   3.292  0.2020 -0.1660 -0.0180
22387SOL    HW176129   5.988   6.467   3.310  2.0747  0.2317  0.8783
22387SOL    HW276130   6.089   6.384   3.233 -0.6299 -1.2210 -1.2714
22388SOL     OW76131   7.906   4.733   0.286 -0.1860  0.4806  0.2144
22388SOL    HW176132   7.987   4.765   0.247  0.0793  0.7681  0.9958
22388SOL    HW276133   7.887   4.795   0.356 -2.0533  1.5020 -1.0883
22389SOL     OW76134   7.282   6.678   0.123 -0.0757  0.1085  0.8217
22389SOL    HW176135   7.296   6.689   0.218 -0.3862  0.6077  0.8161
22389SOL    HW276136   7.187   6.677   0.113 -0.0459 -0.7239  0.5937
22390SOL     OW76137   2.327  11.196   2.780 -0.5965  0.4268 -0.0281
22390SOL    HW176138   2.419  11.170   2.773 -0.1045  2.2246 -0.4631
22390SOL    HW276139   2.326  11.289   2.759 -2.2600  0.8685  1.7513
22391SOL     OW76140   3.327   9.042   8.247 -0.0044  0.0165  0.0543
22391SOL    HW176141   3.232   9.028   8.241 -0.0637 -0.0979  0.9801
22391SOL    HW276142   3.336   9.104   8.320  0.6539 -0.2796  0.2258
22392SOL     OW76143  12.407   4.398   9.045 -0.4335  0.1660  0.4124
22392SOL    HW176144  12.340   4.463   9.067 -1.5836 -1.6845  2.9858
22392SOL    HW276145  12.369   4.348   8.973 -0.7823  0.6331  0.2695
22393SOL     OW76146   4.889   5.152   0.871 -0.2311 -0.2408  0.0474
22393SOL    HW176147   4.843   5.100   0.937 -0.1844  0.5185  0.6985
22393SOL    HW276148   4.924   5.227   0.920  0.3503  0.0069 -0.7257
22394SOL     OW76149  10.436   1.285   5.335  0.4096 -0.2067  0.0138
22394SOL    HW176150  10.423   1.193   5.357 -1.6797 -0.6689 -2.6313
22394SOL    HW276151  10.530   1.295   5.324  0.7102 -1.8783  0.8008
22395SOL     OW76152  11.137  11.719   3.134 -0.0132  0.0181  0.0777
22395SOL    HW176153  11.204  11.675   3.081 -0.7694 -0.4799 -0.4811
22395SOL    HW276154  11.077  11.649   3.159 -1.5162  0.7757 -1.2401
22396SOL     OW76155   4.948   9.228   3.870  0.1220  0.2221  0.2038
22396SOL    HW176156   4.954   9.241   3.965  2.7476  2.4272 -0.1445
22396SOL    HW276157   4.874   9.281   3.843  0.2788  0.7965  0.8723
22397SOL     OW76158   8.723   3.594   1.800  0.0417 -0.1038  0.1636
22397SOL    HW176159   8.637   3.637   1.795  0.0387 -0.2642 -1.8591
22397SOL    HW276160   8.772   3.647   1.863 -1.0619  0.8588  0.2506
22398SOL     OW76161   3.504  11.688   9.090 -0.1952 -0.2366  0.2436
22398SOL    HW176162   3.475  11.632   9.161 -1.5074  0.1181  0.0090
22398SOL    HW276163   3.494  11.634   9.011 -1.8805  0.4165 -0.0365
22399SOL     OW76164   4.057   4.123   4.520  0.2194  0.5044 -0.3601
22399SOL    HW176165   4.112   4.178   4.464  0.6385  0.5921  0.1316
22399SOL    HW276166   4.103   4.122   4.605 -1.9689  2.9774  1.0005
22400SOL     OW76167  12.579  11.926  10.109  0.4616  0.1489 -0.5544
22400SOL    HW176168  12.604  11.985  10.038 -1.9141 -0.7452 -2.2779
22400SOL    HW276169  12.489  11.951  10.130  0.7197 -0.3865  1.3851
22401SOL     OW76170   2.949   2.469  11.066  0.6250  0.4104 -0.4045
22401SOL    HW176171   2.978   2.393  11.015 -0.4401 -0.5013  0.2995
22401SOL    HW276172   2.881   2.510  11.011  0.7756  0.5018 -0.5220
22402SOL     OW76173   3.310   9.743   5.706  0.1192  0.2218  0.3292
22402SOL    HW176174   3.241   9.800   5.672  1.3801  0.2214 -2.4703
22402SOL    HW276175   3.388   9.798   5.706  0.8631 -0.8120 -0.1075
22403SOL     OW76176   4.550   7.302   8.781 -0.3813  0.3285 -0.1099
22403SOL    HW176177   4.492   7.227   8.796 -1.9806  1.6874  0.8628
22403SOL    HW276178   4.505   7.354   8.714 -0.0685  1.1609  0.3104
22404SOL     OW76179   5.849   3.154   1.940 -0.0021  0.3745 -0.0299
22404SOL    HW176180   5.806   3.089   1.995  0.6812 -0.4331 -0.4207
22404SOL    HW276181   5.939   3.157   1.973 -0.0412  1.1906  0.0326
22405SOL     OW76182   6.998   7.692   8.615 -0.3055 -0.1142 -0.2232
22405SOL    HW176183   6.974   7.600   8.609  2.3222 -0.7857 -3.1135
22405SOL    HW276184   6.943   7.735   8.550  0.5478 -0.2292 -1.0433
22406SOL     OW76185   5.537   2.733   7.079 -0.2880 -0.3032 -0.3102
22406SOL    HW176186   5.552   2.735   7.174 -0.0062  1.0827 -0.3560
22406SOL    HW276187   5.616   2.691   7.044 -0.9570 -2.0190  0.1280
22407SOL     OW76188   1.262   5.761  10.040  0.3833  0.2971 -0.3206
22407SOL    HW176189   1.291   5.851  10.026  0.3666  0.1906 -1.1057
22407SOL    HW276190   1.336   5.707  10.010  0.3307  0.0489 -0.0057
22408SOL     OW76191   6.746   2.546   3.552 -0.4364  0.3928 -0.0559
22408SOL    HW176192   6.691   2.512   3.623  1.0821 -1.0894  0.4915
22408SOL    HW276193   6.689   2.549   3.476 -1.5119 -0.1680  0.7109
22409SOL     OW76194   9.524   5.362   8.275 -0.9558  0.1726  0.1444
22409SOL    HW176195   9.469   5.349   8.198 -2.4238 -0.2924  1.2388
22409SOL    HW276196   9.539   5.457   8.278 -0.0997  0.1199 -1.1913
22410SOL     OW76197   0.981   8.286   0.836  0.1438  0.0349  0.1756
22410SOL    HW176198   0.994   8.349   0.907 -0.9990  0.3690  0.0985
22410SOL    HW276199   0.887   8.272   0.833  0.2154 -0.2776 -1.0204
22411SOL     OW76200   0.356   8.655   1.738 -0.3018 -0.0231  0.4088
22411SOL    HW176201   0.280   8.681   1.687 -0.9582 -0.6968  1.0202
22411SOL    HW276202   0.359   8.717   1.811 -0.2089  0.0726  0.3224
22412SOL     OW76203   7.217  10.890  11.161  0.3290  0.0304 -0.2607
22412SOL    HW176204   7.218  10.983  11.140  0.2627  0.1913  0.4415
22412SOL    HW276205   7.200  10.886  11.255 -2.1049 -0.7641 -0.6790
22413SOL     OW76206   9.975   6.886   5.016  0.0878  0.0339  0.0517
22413SOL    HW176207   9.939   6.975   5.006 -1.6211 -0.5845  0.3921
22413SOL    HW276208   9.923   6.833   4.955  0.6479 -0.8491  0.3415
22414SOL     OW76209   5.576   7.455   7.362 -0.0508 -0.3205  0.0542
22414SOL    HW176210   5.653   7.419   7.408  0.5109 -0.0478 -0.6610
22414SOL    HW276211   5.502   7.412   7.404  0.5425 -1.4153  0.0316
22415SOL     OW76212   8.193  10.515   4.416  0.3268  0.0131  0.6720
22415SOL    HW176213   8.115  10.512   4.473  0.9196 -1.1020  1.4732
22415SOL    HW276214   8.265  10.535   4.476  0.5855  1.8772 -0.1940
22416SOL     OW76215   1.666  11.573   7.211  0.0186  0.1093 -0.0665
22416SOL    HW176216   1.649  11.540   7.299 -0.8147  1.0222  0.1254
22416SOL    HW276217   1.761  11.565   7.200  0.1233 -0.0284  0.9053
22417SOL     OW76218   6.624   8.310   8.609  0.1829 -0.6151  0.1977
22417SOL    HW176219   6.560   8.259   8.560 -1.3955  0.6797  0.8325
22417SOL    HW276220   6.594   8.306   8.700  0.3215  0.9885  0.3330
22418SOL     OW76221   4.373   3.325   6.529 -0.5828 -0.4843 -0.3558
22418SOL    HW176222   4.460   3.359   6.551 -0.8696 -0.0432  0.0996
22418SOL    HW276223   4.391   3.247   6.476  0.0986 -1.0012  0.6197
22419SOL     OW76224   2.491   9.061   1.706 -0.3953 -0.3446 -0.3595
22419SOL    HW176225   2.398   9.057   1.729  0.1422 -2.5359  1.7164
22419SOL    HW276226   2.497   9.014   1.623 -1.2141  0.6436 -1.0141
22420SOL     OW76227   5.613   6.354   5.490 -0.1107  0.1855 -0.2447
22420SOL    HW176228   5.690   6.406   5.516  0.9419 -0.6586 -1.5561
22420SOL    HW276229   5.539   6.401   5.529  0.9081  1.9485 -0.2984
22421SOL     OW76230   7.052   9.955  10.355  0.2021 -0.2187  0.6381
22421SOL    HW176231   7.006  10.036  10.375 -1.0591 -0.7518  0.0256
22421SOL    HW276232   7.124   9.981  10.296 -1.2650  0.2688 -1.0294
22422SOL     OW76233   7.747   5.476   2.469  0.1902  0.4592  0.6226
22422SOL    HW176234   7.757   5.560   2.423 -1.7258  0.8009  0.7526
22422SOL    HW276235   7.667   5.439   2.434  0.0467 -0.4691  1.8795
22423SOL     OW76236   7.844   7.606   1.714  0.0934 -0.7426 -0.0450
22423SOL    HW176237   7.759   7.632   1.750 -0.3924 -0.4518 -1.3522
22423SOL    HW276238   7.828   7.522   1.672  1.0440 -1.9248  1.7779
22424SOL     OW76239  11.144   0.812   6.368  0.5260  0.2901  0.6922
22424SOL    HW176240  11.126   0.734   6.421 -0.3075 -0.0941 -0.1248
22424SOL    HW276241  11.060   0.831   6.326  0.6931  1.7069  0.9700
22425SOL     OW76242   2.330  12.524   9.590  0.1753 -0.5517  0.1988
22425SOL    HW176243   2.245  12.530   9.547  0.6029  0.0298 -0.5781
22425SOL    HW276244   2.310  12.490   9.678 -0.9182  0.1891  0.2486
22426SOL     OW76245   4.845   7.471   2.532 -0.0049  0.0881 -0.4142
22426SOL    HW176246   4.854   7.524   2.611  1.2074  1.2548 -1.2785
22426SOL    HW276247   4.930   7.479   2.488 -1.2853  1.2622 -2.9011
22427SOL     OW76248   1.161  11.868   8.624 -0.1328 -0.0355  0.1620
22427SOL    HW176249   1.249  11.879   8.588 -0.5471  0.6179 -0.6850
22427SOL    HW276250   1.105  11.922   8.569 -1.4210 -2.0763 -0.6605
22428SOL     OW76251  11.672  10.093   6.076  0.3028 -0.3572  0.0007
22428SOL    HW176252  11.720  10.010   6.072 -0.4509 -0.7471 -3.0429
22428SOL    HW276253  11.739  10.159   6.091  1.0828 -1.3401  1.0848
22429SOL     OW76254   8.276   9.758   3.785 -0.1942 -0.6602 -0.1736
22429SOL    HW176255   8.268   9.668   3.816 -1.5428 -0.0904  1.2688
22429SOL    HW276256   8.197   9.772   3.732 -0.5614 -0.0130  0.5230
22430SOL     OW76257   0.227   0.173   1.536  0.0596  0.5350 -0.7190
22430SOL    HW176258   0.192   0.229   1.467 -2.8732 -0.9401 -0.5743
22430SOL    HW276259   0.225   0.085   1.499  0.8744  0.0333  0.3831
22431SOL     OW76260   2.233   4.590  10.824  0.2279  0.0633  0.3308
22431SOL    HW176261   2.148   4.580  10.867 -1.4583 -1.1676 -2.9988
22431SOL    HW276262   2.227   4.673  10.776  0.7774 -0.1866 -0.1870
22432SOL     OW76263   1.023  10.242   2.387  0.2996 -0.1013 -0.5862
22432SOL    HW176264   1.043  10.183   2.459 -1.0395  1.2680  0.9838
22432SOL    HW276265   0.948  10.203   2.344  0.3489 -0.3034 -0.4881
22433SOL     OW76266   1.096   8.252   7.460 -0.9646 -0.1417  0.1064
22433SOL    HW176267   1.152   8.257   7.382  0.0695 -1.2560  0.7489
22433SOL    HW276268   1.105   8.162   7.490 -2.1656 -0.0061  0.9483
22434SOL     OW76269   5.320  10.654   8.287  0.0405  0.5252  0.2864
22434SOL    HW176270   5.273  10.731   8.255 -0.0304  0.3945  0.0690
22434SOL    HW276271   5.302  10.586   8.221  0.8915  0.6026 -0.0405
22435SOL     OW76272   5.831   6.478   2.038  0.4772 -0.2758  0.0110
22435SOL    HW176273   5.905   6.419   2.037  0.4936 -0.2609 -1.0680
22435SOL    HW276274   5.766   6.437   1.981 -0.1907 -0.0872  0.6110
22436SOL     OW76275   7.630   1.589   6.182  0.2713  0.1700 -0.0006
22436SOL    HW176276   7.686   1.540   6.122  0.3597  0.5857 -0.2625
22436SOL    HW276277   7.687   1.612   6.255  0.3549  0.3047 -0.1086
22437SOL     OW76278   2.798   3.067  12.170 -0.7492  0.3210 -0.0147
22437SOL    HW176279   2.838   3.140  12.122  0.6854 -0.3004  0.1621
22437SOL    HW276280   2.706   3.092  12.179 -1.1755  0.3951 -3.2338
22438SOL     OW76281   3.413   1.756   7.801 -0.8095 -0.8102 -0.5876
22438SOL    HW176282   3.365   1.829   7.761 -2.3913 -1.3133  0.2966
22438SOL    HW276283   3.347   1.688   7.814  0.3924 -1.9697 -0.3264
22439SOL     OW76284  11.963   6.083   4.365  0.4146 -0.1017 -0.3231
22439SOL    HW176285  11.913   6.015   4.320 -0.4232  0.5664 -0.4207
22439SOL    HW276286  12.017   6.035   4.428 -2.1593 -0.7222  1.5736
22440SOL     OW76287   7.514   2.900  11.114 -0.8082 -0.2462  0.4308
22440SOL    HW176288   7.539   2.993  11.111 -1.1318 -0.1307  1.2286
22440SOL    HW276289   7.587   2.856  11.157 -1.1743 -0.1746  1.1416
22441SOL     OW76290  10.610  11.674   7.605 -0.1918  0.0936 -0.6023
22441SOL    HW176291  10.605  11.744   7.540 -1.3383 -1.0104 -1.7451
22441SOL    HW276292  10.704  11.657   7.613  0.0434  1.1011 -1.0255
22442SOL     OW76293   0.139   4.478   2.751 -0.2547 -0.2300 -0.4669
22442SOL    HW176294   0.197   4.410   2.718 -3.1123 -2.3546 -1.4875
22442SOL    HW276295   0.090   4.507   2.675 -1.6462  0.3289  0.6012
22443SOL     OW76296   1.543   8.032  11.685 -0.3784 -0.3989 -0.1197
22443SOL    HW176297   1.483   7.966  11.719 -0.3090  0.9301  2.9349
22443SOL    HW276298   1.486   8.095  11.640 -0.7764 -1.0898 -0.5963
22444SOL     OW76299   1.931   6.787   4.684  0.5854 -0.5844 -0.4880
22444SOL    HW176300   1.886   6.706   4.709 -1.3338 -0.7463 -3.8553
22444SOL    HW276301   1.882   6.855   4.730  1.6425 -1.1702  1.6479
22445SOL     OW76302   7.947   5.748   6.625 -0.6153 -0.0303  0.0321
22445SOL    HW176303   7.974   5.720   6.538  0.4291 -1.6134  0.8141
22445SOL    HW276304   8.028   5.769   6.670 -0.8036 -2.2864  1.5921
22446SOL     OW76305   5.608   0.208   6.844 -0.0626 -0.1363  0.1942
22446SOL    HW176306   5.624   0.128   6.794 -0.3565 -0.0281 -0.0761
22446SOL    HW276307   5.555   0.180   6.918  0.0739 -0.2372  0.2553
22447SOL     OW76308   3.012   2.353   2.493 -0.0343  0.5520 -0.0210
22447SOL    HW176309   3.070   2.380   2.422  1.0778  0.6172  0.8827
22447SOL    HW276310   2.943   2.303   2.450  0.3533  1.0051 -1.1995
22448SOL     OW76311   7.798   8.329   1.333  0.1351 -0.4592 -0.7516
22448SOL    HW176312   7.708   8.356   1.352  0.2118 -0.4100 -0.4575
22448SOL    HW276313   7.845   8.411   1.317  0.5628 -0.3434  0.9860
22449SOL     OW76314   5.270   6.160   4.594 -0.1212  0.6896 -0.4269
22449SOL    HW176315   5.342   6.175   4.655 -0.9165  1.1863  0.4334
22449SOL    HW276316   5.233   6.075   4.619  0.0338  0.5326 -0.7274
22450SOL     OW76317   0.410   0.033   4.059  0.3777 -0.3034  0.2835
22450SOL    HW176318   0.423  -0.033   4.126  0.0266  0.2557  0.9146
22450SOL    HW276319   0.494   0.078   4.052  0.9057 -1.3995 -0.8118
22451SOL     OW76320   5.679  12.009  12.522  0.4679 -0.1469  0.5441
22451SOL    HW176321   5.587  12.019  12.547  0.6441  1.4613  0.6323
22451SOL    HW276322   5.687  11.917  12.496 -1.4399 -0.0266 -0.5968
22452SOL     OW76323   4.452   7.169   5.309  0.2734 -0.7496  0.4043
22452SOL    HW176324   4.502   7.250   5.300  0.3033 -0.6668  1.2774
22452SOL    HW276325   4.475   7.136   5.396  0.4876 -1.8545 -0.0612
22453SOL     OW76326   6.787   0.562   0.602  0.7592  0.4680 -0.3830
22453SOL    HW176327   6.754   0.472   0.598  1.3918  0.2423 -0.6813
22453SOL    HW276328   6.775   0.587   0.694 -2.2348  1.1918 -0.8708
22454SOL     OW76329   2.881   5.511   2.435  0.4841 -0.3102  1.0662
22454SOL    HW176330   2.925   5.454   2.372  0.7216  1.5556 -0.5335
22454SOL    HW276331   2.951   5.555   2.482  0.5767  2.7308 -1.5453
22455SOL     OW76332   6.778   5.804   3.475 -0.0633 -0.1085  0.2234
22455SOL    HW176333   6.794   5.734   3.411 -0.3592 -0.4504  0.5265
22455SOL    HW276334   6.683   5.809   3.482 -0.0639  0.6523 -0.1531
22456SOL     OW76335   9.731  10.260  11.791  0.5738 -0.2793  0.1272
22456SOL    HW176336   9.655  10.213  11.826  0.6974 -0.6831 -0.1354
22456SOL    HW276337   9.696  10.309  11.716 -0.1413  2.2563  1.9778
22457SOL     OW76338  10.069  10.419  11.845 -0.3381 -0.4329 -0.1055
22457SOL    HW176339  10.104  10.504  11.820  1.2887 -1.5206 -1.8057
22457SOL    HW276340  10.034  10.432  11.933  3.3854  1.0804  1.3532
22458SOL     OW76341   5.655   4.129   1.594  0.3698 -0.2881  0.8550
22458SOL    HW176342   5.592   4.142   1.665 -0.1573 -0.1830  0.3767
22458SOL    HW276343   5.625   4.050   1.549  1.0971 -0.7498  1.1558
22459SOL     OW76344  10.760  11.717   4.269 -0.4748  0.3265  0.7328
22459SOL    HW176345  10.795  11.806   4.264  0.8982 -0.1190  1.7742
22459SOL    HW276346  10.816  11.673   4.333 -1.1017 -1.3040  0.2099
22460SOL     OW76347  11.008   9.678   6.889 -0.4663  0.3261  0.5849
22460SOL    HW176348  11.021   9.773   6.884 -2.4633  0.5723 -1.7993
22460SOL    HW276349  10.934   9.667   6.948 -1.2081  0.4239 -0.2958
22461SOL     OW76350   8.257   7.438   5.475 -0.0364  0.4121 -0.1243
22461SOL    HW176351   8.291   7.350   5.491  1.5473  0.8056 -1.0541
22461SOL    HW276352   8.231   7.437   5.382 -0.6612  0.7363  0.0403
22462SOL     OW76353   0.527   9.496   2.237 -0.0054  0.0826 -0.5437
22462SOL    HW176354   0.519   9.435   2.164 -1.9094 -1.5155  0.8818
22462SOL    HW276355   0.602   9.465   2.287  0.4045  0.2917 -1.0288
22463SOL     OW76356  11.626   0.299  11.186 -0.1987  0.6804  0.7892
22463SOL    HW176357  11.661   0.285  11.274 -1.7106 -0.4252  1.2602
22463SOL    HW276358  11.537   0.262  11.190 -0.5220  1.2003 -1.0163
22464SOL     OW76359   2.206   7.171   9.654  0.0434  0.2953  0.0756
22464SOL    HW176360   2.251   7.186   9.571  1.0036 -0.6632  0.3996
22464SOL    HW276361   2.210   7.076   9.666 -2.4417  0.1287 -0.0662
22465SOL     OW76362   7.065   1.604   8.908  0.1265 -0.1693 -0.1456
22465SOL    HW176363   7.082   1.578   8.818  1.8947  0.2804  0.0197
22465SOL    HW276364   7.115   1.542   8.961 -0.6523 -0.2427  0.5247
22466SOL     OW76365   0.071   0.967  10.780  0.6111 -0.3340  0.4669
22466SOL    HW176366   0.045   0.978  10.688 -0.6925  0.9323  0.9550
22466SOL    HW276367   0.095   0.875  10.787 -0.8761 -0.8632 -0.7735
22467SOL     OW76368   1.417   7.582   3.276 -0.3962  0.2066  0.0209
22467SOL    HW176369   1.503   7.589   3.317 -0.1684 -0.8971 -0.2282
22467SOL    HW276370   1.428   7.624   3.190 -0.3184  0.7025  0.2666
22468SOL     OW76371   2.892   6.320  10.157 -0.0047  0.8103  0.0800
22468SOL    HW176372   2.887   6.309  10.253  2.2640 -3.5801 -0.0101
22468SOL    HW276373   2.950   6.395  10.145  2.2104 -0.3418  2.3758
22469SOL     OW76374  10.483  11.538   9.288 -0.0051  0.0214  0.0516
22469SOL    HW176375  10.412  11.597   9.313 -0.7499 -0.1307 -1.5367
22469SOL    HW276376  10.529  11.585   9.218 -0.3713 -1.0771 -0.9712
22470SOL     OW76377  10.763   8.239   1.807 -0.2372  0.1046  0.3244
22470SOL    HW176378  10.680   8.268   1.769  0.1177  0.6033 -0.0827
22470SOL    HW276379  10.816   8.318   1.812  0.6196 -0.3933 -0.4804
22471SOL     OW76380   2.750   8.723  12.159 -0.3534  0.4885  0.1470
22471SOL    HW176381   2.745   8.758  12.070  0.2923 -1.2028 -0.5985
22471SOL    HW276382   2.660   8.727  12.191 -0.8232  0.0203 -1.0483
22472SOL     OW76383   6.705   7.330   5.637 -0.7227 -0.6540 -0.0817
22472SOL    HW176384   6.687   7.297   5.549  1.6291  0.0372 -0.9100
22472SOL    HW276385   6.717   7.424   5.626 -2.2741 -0.2362  1.3567
22473SOL     OW76386  10.501   8.260   0.179 -0.2485 -0.5709  0.2144
22473SOL    HW176387  10.591   8.292   0.174  0.0344 -1.1761  1.1091
22473SOL    HW276388  10.464   8.278   0.093  0.1826  1.2540  0.3648
22474SOL     OW76389   1.422   4.883   1.501  0.1494 -0.0416  0.0521
22474SOL    HW176390   1.371   4.961   1.523 -0.0331  0.0495 -0.6809
22474SOL    HW276391   1.504   4.918   1.466 -0.7316 -0.1329 -2.2156
22475SOL     OW76392   3.753  12.055   0.957 -0.0856  0.0419 -0.5704
22475SOL    HW176393   3.783  12.070   0.868 -0.3501  2.1151 -0.3856
22475SOL    HW276394   3.667  12.098   0.960  0.1394  0.4494  0.7906
22476SOL     OW76395   2.931   3.943   3.325  0.3099 -0.3534  0.1268
22476SOL    HW176396   2.863   3.966   3.389  0.8803  0.6025  0.4104
22476SOL    HW276397   2.908   3.993   3.247  0.6072 -0.1466  0.1732
22477SOL     OW76398   9.642   2.048   2.138 -0.2818  0.5515 -0.0982
22477SOL    HW176399   9.618   2.022   2.227  1.4826  0.4972  0.3928
22477SOL    HW276400   9.559   2.070   2.097 -1.0789  1.2144  1.7643
22478SOL     OW76401   0.253   2.919  10.895  0.3982  0.0012 -0.3833
22478SOL    HW176402   0.185   2.979  10.926  1.1369  1.1403 -0.8905
22478SOL    HW276403   0.290   2.962  10.819  1.2206 -0.9321 -0.5309
22479SOL     OW76404  11.363   6.251  11.347 -0.5726  0.5268 -0.0786
22479SOL    HW176405  11.351   6.306  11.425  1.1377  1.3231 -0.3266
22479SOL    HW276406  11.353   6.311  11.274  1.0617  0.5248 -0.3609
22480SOL     OW76407   5.792  12.145  12.110  0.3910  0.7009 -0.2956
22480SOL    HW176408   5.777  12.068  12.056 -0.8884  0.9167 -0.2724
22480SOL    HW276409   5.871  12.185  12.074  2.7414 -2.0460  1.3537
22481SOL     OW76410  10.445   8.120   0.385  0.6810  0.6820  0.6312
22481SOL    HW176411  10.481   8.031   0.375 -0.4194  0.3861 -1.2717
22481SOL    HW276412  10.468   8.164   0.303 -1.0336  1.3058  0.4570
22482SOL     OW76413   7.772   3.314   9.051 -0.1533 -0.1013 -0.3307
22482SOL    HW176414   7.729   3.254   8.990 -0.1342  0.9178 -1.3702
22482SOL    HW276415   7.725   3.396   9.042 -1.4161 -0.4025  2.4832
22483SOL     OW76416  10.744   5.355  12.198 -0.4865  0.3134  0.0870
22483SOL    HW176417  10.793   5.435  12.215 -0.3822  0.3463 -0.3557
22483SOL    HW276418  10.802   5.302  12.143 -1.5269  1.0185 -1.8030
22484SOL     OW76419   1.247   5.855   6.249 -0.1003  0.3123  0.3978
22484SOL    HW176420   1.171   5.897   6.289  0.1224 -0.7568  2.0242
22484SOL    HW276421   1.304   5.928   6.223 -1.0013  1.0785  0.5249
22485SOL     OW76422   9.302   1.902   2.934  0.2442 -0.1559  0.3004
22485SOL    HW176423   9.369   1.967   2.955  1.5844 -1.7969  1.3292
22485SOL    HW276424   9.349   1.831   2.890 -1.3770  0.0246 -1.9269
22486SOL     OW76425   2.776   6.305  10.409 -0.2823 -0.6438  0.1376
22486SOL    HW176426   2.698   6.341  10.366  0.3316  0.8302  0.1958
22486SOL    HW276427   2.756   6.212  10.421 -1.1347 -0.7650 -1.8327
22487SOL     OW76428   8.020   6.896   4.915  0.2494  0.1887 -0.7114
22487SOL    HW176429   8.019   6.802   4.930 -1.9850  0.5711  2.5815
22487SOL    HW276430   8.010   6.906   4.821  0.3195 -2.8534 -1.1198
22488SOL     OW76431  12.091  11.833   7.029  0.2464  0.0788 -0.2503
22488SOL    HW176432  12.000  11.831   6.999 -0.3904  1.3384  1.4242
22488SOL    HW276433  12.117  11.925   7.019  0.3458  0.3472  1.8563
22489SOL     OW76434   1.125   8.345   7.853  0.1339  0.2711 -0.3593
22489SOL    HW176435   1.213   8.370   7.824 -0.4314  0.5674 -1.8729
22489SOL    HW276436   1.123   8.371   7.946  2.2962 -1.5221  0.2968
22490SOL     OW76437   4.134   2.070  10.486 -0.3118  0.2339  0.2057
22490SOL    HW176438   4.216   2.057  10.534 -0.5588  1.3603  0.9708
22490SOL    HW276439   4.146   2.020  10.405  1.6256  1.3038 -0.2406
22491SOL     OW76440   6.373   5.162   6.715 -0.6273  0.5904  0.3281
22491SOL    HW176441   6.317   5.239   6.712  1.2310  1.9944  0.1883
22491SOL    HW276442   6.440   5.178   6.650  0.4109 -0.6791  1.0266
22492SOL     OW76443  10.887   7.793  12.347 -0.6411  0.0025 -0.2748
22492SOL    HW176444  10.965   7.788  12.291  0.4095  0.9231  1.0365
22492SOL    HW276445  10.881   7.886  12.370 -1.4261 -0.2521  0.5931
22493SOL     OW76446   0.331   0.795   6.407  0.9072  0.4937  0.3317
22493SOL    HW176447   0.419   0.761   6.394  1.7790  2.3425  1.0719
22493SOL    HW276448   0.283   0.723   6.448  1.8347 -0.7956 -0.7933
22494SOL     OW76449   9.637   8.372  11.964 -0.0133 -0.2707 -0.2357
22494SOL    HW176450   9.649   8.367  12.059  0.2307 -2.0743 -0.3223
22494SOL    HW276451   9.571   8.306  11.945 -1.4491  1.3435 -1.1523
22495SOL     OW76452   6.632  10.902   4.758 -0.2731  0.3259  0.0335
22495SOL    HW176453   6.620  10.882   4.851  0.4511 -1.1924 -0.1793
22495SOL    HW276454   6.684  10.983   4.758 -0.7603  0.6560  0.9353
22496SOL     OW76455  10.304  10.805   4.580  0.2085  0.0719  0.6441
22496SOL    HW176456  10.288  10.831   4.671  0.7295  0.7573  0.5466
22496SOL    HW276457  10.358  10.875   4.544  1.3932 -0.9695  0.2866
22497SOL     OW76458   8.429   7.997   2.831 -0.9188  0.2017  0.1132
22497SOL    HW176459   8.513   7.952   2.846 -0.2910  0.9445 -1.0187
22497SOL    HW276460   8.411   7.984   2.738  0.0445  3.4394 -0.6437
22498SOL     OW76461   9.887  10.396   5.340  0.7023  0.2483  0.0149
22498SOL    HW176462   9.843  10.326   5.389  0.7053 -0.9129 -1.5817
22498SOL    HW276463   9.816  10.455   5.314  0.7295  1.0495  1.5878
22499SOL     OW76464   7.834   1.246  11.040  0.3308  0.6584 -0.0525
22499SOL    HW176465   7.800   1.165  11.080 -0.1047  0.8497 -0.0272
22499SOL    HW276466   7.794   1.316  11.091 -0.2074  0.9061 -0.7976
22500SOL     OW76467   3.976   7.418  12.108 -0.2481  0.3183  0.1998
22500SOL    HW176468   3.958   7.326  12.089  0.6908  0.1203  0.1903
22500SOL    HW276469   4.067   7.430  12.079 -0.4556  1.3199 -0.0615
22501SOL     OW76470   2.028  11.777   8.728 -0.7585 -0.3523  0.5085
22501SOL    HW176471   2.097  11.722   8.767 -0.8507 -2.5604 -2.1893
22501SOL    HW276472   2.076  11.842   8.676 -0.6937 -0.5106  0.3714
22502SOL     OW76473   7.953   8.521   6.366  0.4527  0.1033 -0.7354
22502SOL    HW176474   7.888   8.492   6.303 -0.0260 -3.1148  1.0004
22502SOL    HW276475   7.909   8.587   6.419 -0.3960  0.0661 -1.3870
22503SOL     OW76476   4.505   2.212   5.420  0.1130 -0.1620 -0.3328
22503SOL    HW176477   4.410   2.214   5.411  0.0266  0.2177  0.4873
22503SOL    HW276478   4.526   2.121   5.441 -0.4516  0.2863  2.6992
22504SOL     OW76479   7.587  11.597  10.761  0.1374 -0.2804  0.3156
22504SOL    HW176480   7.648  11.568  10.828  0.5374 -0.8351 -0.2665
22504SOL    HW276481   7.556  11.515  10.721  0.9701  0.0717 -1.0976
22505SOL     OW76482  10.013   5.342   7.457 -0.0637  0.2567  0.0628
22505SOL    HW176483  10.009   5.437   7.447  0.9886  0.2227 -0.8008
22505SOL    HW276484  10.097   5.317   7.420  0.5996 -0.8111  2.1566
22506SOL     OW76485   2.578   8.894   9.432 -0.1337 -0.1730 -0.1279
22506SOL    HW176486   2.558   8.830   9.501 -1.3228  1.4960  1.1520
22506SOL    HW276487   2.643   8.952   9.472  0.7172 -0.3855 -1.1727
22507SOL     OW76488   8.337  12.143  12.031 -0.2403 -0.8121 -0.5068
22507SOL    HW176489   8.298  12.229  12.018  0.9916 -0.3519 -1.3348
22507SOL    HW276490   8.323  12.124  12.124  0.5691  0.8606 -0.0040
22508SOL     OW76491  11.372  10.211   6.466  0.0728  0.3631  0.1937
22508SOL    HW176492  11.386  10.217   6.561  0.5658 -0.1156  0.1541
22508SOL    HW276493  11.328  10.127   6.453 -0.8613  0.8587  0.0895
22509SOL     OW76494  10.029  10.212  10.812  0.0102 -0.3422  0.1220
22509SOL    HW176495  10.118  10.185  10.790  0.5873  0.6482  1.1094
22509SOL    HW276496   9.985  10.221  10.728  1.5383  1.3732 -0.5720
22510SOL     OW76497   4.250   5.343   3.048  0.1988 -0.3081  0.1497
22510SOL    HW176498   4.168   5.344   3.097  0.3972 -0.0327  0.4764
22510SOL    HW276499   4.227   5.303   2.964 -0.6632  1.3149 -0.4371
22511SOL     OW76500   5.526  10.029   8.342  0.4408 -0.4961 -0.7321
22511SOL    HW176501   5.473  10.079   8.279  1.0819  0.5772 -0.4489
22511SOL    HW276502   5.475  10.030   8.423 -0.7667 -2.5631 -1.3855
22512SOL     OW76503   7.921   6.595   7.954 -0.0443  0.3036 -0.0395
22512SOL    HW176504   7.968   6.547   7.886 -0.9086  0.2112 -0.5918
22512SOL    HW276505   7.977   6.670   7.974  0.4200  0.0977 -0.5471
22513SOL     OW76506   8.176   0.423  12.031 -0.2869 -0.0642  0.2728
22513SOL    HW176507   8.157   0.509  11.996  0.9706 -0.2366 -0.8964
22513SOL    HW276508   8.210   0.373  11.957  2.3516 -0.4881  1.6328
22514SOL     OW76509   0.064   4.325   8.982  0.2585 -0.0037  0.3007
22514SOL    HW176510  -0.025   4.328   9.017 -0.1170  1.5077 -0.6900
22514SOL    HW276511   0.087   4.416   8.967  2.0922 -0.3476  0.7627
22515SOL     OW76512  11.172   1.213   4.323 -0.2248 -0.5116  0.6721
22515SOL    HW176513  11.207   1.177   4.241 -1.0931  0.1501 -0.0104
22515SOL    HW276514  11.229   1.177   4.391  0.9897 -0.4597 -0.2836
22516SOL     OW76515   5.396   6.125   5.594 -0.3356 -0.1409  0.3797
22516SOL    HW176516   5.376   6.174   5.515  0.4780  0.7815  0.7197
22516SOL    HW276517   5.462   6.061   5.567 -0.9142 -0.6157  0.0739
22517SOL     OW76518   0.866   4.336   6.823  0.0371  0.0488 -0.0783
22517SOL    HW176519   0.782   4.308   6.860 -0.3840  3.2111  1.8192
22517SOL    HW276520   0.930   4.273   6.857 -1.4610 -2.4185 -1.5652
22518SOL     OW76521   4.132   9.472   8.725 -0.6243  0.3495 -0.4018
22518SOL    HW176522   4.059   9.505   8.778 -0.9025  0.1738 -0.6711
22518SOL    HW276523   4.202   9.458   8.788 -0.2508  2.1079 -0.3604
22519SOL     OW76524   8.553   1.538   9.875  0.2945 -0.4486  0.1913
22519SOL    HW176525   8.564   1.618   9.927 -0.5546 -0.4389  0.3667
22519SOL    HW276526   8.641   1.502   9.868  0.8317  0.9308 -0.5968
22520SOL     OW76527   6.536   8.072   9.433 -0.1835  0.2176  0.3465
22520SOL    HW176528   6.610   8.035   9.480 -0.6202 -1.5813 -0.3157
22520SOL    HW276529   6.464   8.071   9.496 -0.2512 -0.2970  0.2648
22521SOL     OW76530   0.451   5.765   9.697  0.4008  0.0382  0.2037
22521SOL    HW176531   0.471   5.827   9.767  1.5667  0.9411 -0.8765
22521SOL    HW276532   0.356   5.763   9.693  0.3236  0.2053  1.5926
22522SOL     OW76533   6.630  12.486   6.859 -0.5003 -0.3771 -0.4765
22522SOL    HW176534   6.678  12.432   6.796 -1.0491  0.5000 -1.6821
22522SOL    HW276535   6.570  12.424   6.901  0.1945 -1.0660 -0.4655
22523SOL     OW76536   7.223   9.733  10.536  0.1687 -0.1576 -0.2011
22523SOL    HW176537   7.133   9.746  10.507 -0.0476 -0.0076  0.5027
22523SOL    HW276538   7.254   9.820  10.559  0.4109 -0.2418 -0.2023
22524SOL     OW76539   9.091   9.781   7.881 -1.0603 -0.3423 -0.0805
22524SOL    HW176540   9.100   9.685   7.884  0.5319 -0.1980  0.4397
22524SOL    HW276541   9.050   9.803   7.965 -0.7422 -0.5137  0.1243
22525SOL     OW76542   3.211   2.447   4.793 -0.0319 -0.6194 -0.3676
22525SOL    HW176543   3.195   2.416   4.881  0.7409 -0.2985 -0.1091
22525SOL    HW276544   3.124   2.450   4.753 -0.5744  0.5409  0.8183
22526SOL     OW76545  11.276  10.427   9.159 -0.0592 -0.6878  0.0989
22526SOL    HW176546  11.281  10.484   9.235  0.9245 -0.3587 -0.1922
22526SOL    HW276547  11.183  10.419   9.140 -0.2113  1.9748 -0.7090
22527SOL     OW76548   9.023   2.098   4.789 -0.6294 -0.2334 -0.2101
22527SOL    HW176549   9.038   2.130   4.878  1.9893  0.4323 -0.7768
22527SOL    HW276550   9.022   2.003   4.797  2.2580 -0.3116  0.3110
22528SOL     OW76551   4.597   7.343   1.974  0.1362  0.2988  0.3947
22528SOL    HW176552   4.678   7.395   1.974  0.6793 -0.5152  0.7407
22528SOL    HW276553   4.576   7.332   1.881  0.8752 -0.1329  0.2651
22529SOL     OW76554   9.968   4.499   5.331  0.3296 -0.6028  0.1969
22529SOL    HW176555   9.991   4.408   5.315 -1.7148 -1.1299  0.0775
22529SOL    HW276556   9.956   4.504   5.426  1.3263 -0.2034  0.3211
22530SOL     OW76557  10.848   0.495  10.192 -0.0959 -0.3254  0.3351
22530SOL    HW176558  10.773   0.445  10.161 -1.9523  2.3915  0.0974
22530SOL    HW276559  10.824   0.525  10.279  2.0753 -1.8780  1.5796
22531SOL     OW76560   7.437  12.019   2.822  0.0300 -0.5560  0.1439
22531SOL    HW176561   7.400  12.045   2.737 -1.4451  0.0478  0.9334
22531SOL    HW276562   7.362  11.987   2.872  0.8024 -0.5171  1.3660
22532SOL     OW76563  10.561  11.042   7.346 -0.6239  0.4656  0.4501
22532SOL    HW176564  10.534  10.957   7.380 -1.0224  0.3550 -0.1288
22532SOL    HW276565  10.579  11.094   7.424  1.8042 -0.7888  0.8486
22533SOL     OW76566   1.954   8.141   3.222  0.2435 -0.3273 -0.1066
22533SOL    HW176567   1.871   8.152   3.175 -0.4596 -0.9731  0.9309
22533SOL    HW276568   1.947   8.201   3.296  0.9988  0.0992 -0.3736
22534SOL     OW76569   2.788   9.792   7.356  0.3352  0.2641 -0.1416
22534SOL    HW176570   2.785   9.702   7.387 -0.8001  0.0313 -0.8683
22534SOL    HW276571   2.879   9.820   7.370  0.7730 -1.0817 -0.1817
22535SOL     OW76572   5.779   5.867   7.609  0.3452 -0.3078  0.2830
22535SOL    HW176573   5.798   5.957   7.583  0.1441 -0.8509 -1.9233
22535SOL    HW276574   5.860   5.837   7.652  2.0882 -0.3832 -2.7653
22536SOL     OW76575   5.999   4.915   1.857 -0.0524  0.6168 -0.4454
22536SOL    HW176576   6.019   4.981   1.923 -2.2868 -0.0276  0.9771
22536SOL    HW276577   5.922   4.949   1.811  0.1080  0.0070 -1.1955
22537SOL     OW76578   6.614   3.944   2.909 -0.6772 -0.0320 -0.3899
22537SOL    HW176579   6.659   3.860   2.900  1.1754  0.9879 -1.3292
22537SOL    HW276580   6.600   3.974   2.819  0.4252  1.5014 -0.0949
22538SOL     OW76581   2.053   1.522   6.596 -0.5113  0.2138  0.0625
22538SOL    HW176582   2.115   1.450   6.609 -1.1075 -0.2307  0.5688
22538SOL    HW276583   1.999   1.520   6.675  0.5776  2.3717  0.9230
22539SOL     OW76584   1.140   3.799  10.846 -0.2326  0.0488  0.2108
22539SOL    HW176585   1.192   3.807  10.926  0.1788 -0.7669  0.0397
22539SOL    HW276586   1.160   3.879  10.797  2.0145 -0.8711 -0.5017
22540SOL     OW76587  12.136   1.374  10.146  0.4283 -0.1626  0.2314
22540SOL    HW176588  12.151   1.288  10.106  0.0934  0.6860 -1.8384
22540SOL    HW276589  12.215   1.391  10.197  2.1481 -0.1331 -2.3146
22541SOL     OW76590   3.200   1.942   0.282  0.1057 -0.1593 -0.6909
22541SOL    HW176591   3.134   1.972   0.343 -2.8487 -1.6284 -2.9019
22541SOL    HW276592   3.251   1.877   0.331 -2.2196 -1.3756  0.2686
22542SOL     OW76593   7.705   0.293  11.578 -0.5712 -0.2152 -0.3945
22542SOL    HW176594   7.697   0.385  11.603 -1.8614 -0.6046  0.7868
22542SOL    HW276595   7.621   0.272  11.538 -0.3426 -0.9064 -0.5263
22543SOL     OW76596   9.173   0.099  10.369  0.5280 -0.2373  0.1163
22543SOL    HW176597   9.255   0.060  10.399  0.0750 -0.1343  1.5609
22543SOL    HW276598   9.105   0.051  10.416 -0.1539  0.7782  0.2078
22544SOL     OW76599   0.231   7.104   0.399  0.5637  0.0305 -0.1394
22544SOL    HW176600   0.200   7.056   0.476 -0.0801  1.0200  0.2301
22544SOL    HW276601   0.182   7.067   0.326 -1.2733  1.3073  0.3822
22545SOL     OW76602   7.891   6.485   2.768  0.6555 -0.2097  0.0432
22545SOL    HW176603   7.934   6.405   2.739  1.0896  0.5702 -1.5830
22545SOL    HW276604   7.797   6.467   2.757  0.7276 -0.6871  0.2008
22546SOL     OW76605  11.776   4.704   1.682  0.3588 -0.2772  0.2694
22546SOL    HW176606  11.860   4.658   1.683 -0.5061 -2.0945 -1.9178
22546SOL    HW276607  11.782   4.762   1.606 -0.6506 -1.1075 -0.4723
22547SOL     OW76608   2.721   2.961   8.809  0.0653  0.2711 -0.0778
22547SOL    HW176609   2.678   2.952   8.893 -0.9631  0.3020 -0.5866
22547SOL    HW276610   2.761   2.875   8.793  2.6077  1.0019  1.6382
22548SOL     OW76611  12.512   0.043  10.381 -0.1642  0.2559  0.1437
22548SOL    HW176612  12.426   0.035  10.340 -0.6337  0.6029  1.0530
22548SOL    HW276613  12.545   0.128  10.350 -0.7048  0.7201  0.8147
22549SOL     OW76614   8.108   9.384  11.404 -0.2822  0.1413 -0.0053
22549SOL    HW176615   8.185   9.438  11.424  1.1973 -1.4381 -1.1462
22549SOL    HW276616   8.047   9.401  11.476  2.0116 -0.1684  2.1498
22550SOL     OW76617   5.247   3.571   3.861  0.1429  0.0496 -0.3736
22550SOL    HW176618   5.221   3.496   3.807 -0.2509  0.3463 -0.6001
22550SOL    HW276619   5.308   3.534   3.925 -2.8870 -1.3335  2.0278
22551SOL     OW76620  10.366   2.197   6.055  0.1746  0.2289 -0.4725
22551SOL    HW176621  10.403   2.169   6.138  0.1158  2.3633  0.3409
22551SOL    HW276622  10.410   2.280   6.036 -0.8939  0.5332 -1.7910
22552SOL     OW76623   5.175   6.968   9.537 -0.1101  0.7989 -0.4332
22552SOL    HW176624   5.227   6.894   9.505  1.2235  1.5832 -0.1668
22552SOL    HW276625   5.088   6.931   9.553  1.1100 -1.3973  2.1379
22553SOL     OW76626   5.556  11.752  11.142  0.0576 -0.0710 -0.2328
22553SOL    HW176627   5.534  11.660  11.156  0.5720 -0.0368  0.9365
22553SOL    HW276628   5.487  11.785  11.084  0.6120 -1.4966 -1.7695
22554SOL     OW76629   4.777   5.879   4.435  0.6327 -0.2394 -0.3945
22554SOL    HW176630   4.781   5.795   4.482 -1.3790  0.0885  0.4531
22554SOL    HW276631   4.852   5.928   4.468 -0.2991 -0.3105  2.0063
22555SOL     OW76632  11.696   1.713   9.958  0.3240 -0.0510  0.2501
22555SOL    HW176633  11.662   1.630   9.925 -1.5441 -0.7200  3.4727
22555SOL    HW276634  11.791   1.701   9.959  0.1756 -1.5577 -0.7716
22556SOL     OW76635   1.453   3.384   3.292 -0.2147  0.0493  0.4944
22556SOL    HW176636   1.393   3.423   3.356  1.0324  0.5624  1.3809
22556SOL    HW276637   1.473   3.297   3.326  0.9387  0.5561  1.1569
22557SOL     OW76638   8.111   3.896  10.997  0.1857  0.2940  0.5942
22557SOL    HW176639   8.079   3.986  10.992  1.1928  0.7565  1.9013
22557SOL    HW276640   8.033   3.843  11.016 -0.6620  0.6518 -1.5015
22558SOL     OW76641  10.858   0.613   6.193 -0.5072  0.7975  0.0375
22558SOL    HW176642  10.868   0.542   6.128  0.6548 -1.4944  2.5320
22558SOL    HW276643  10.778   0.589   6.241  0.3531  0.6456  1.4477
22559SOL     OW76644   3.337  10.725  11.612  0.0634  0.0612  0.1236
22559SOL    HW176645   3.354  10.704  11.704 -0.2656 -0.3064  0.1065
22559SOL    HW276646   3.269  10.792  11.615 -0.1961 -0.1966  0.1498
22560SOL     OW76647   8.197   1.612  10.735 -0.3451 -0.1859  0.0557
22560SOL    HW176648   8.107   1.594  10.760 -0.6993  0.3561 -0.7704
22560SOL    HW276649   8.226   1.533  10.690 -1.1225  0.3639 -1.5123
22561SOL     OW76650   1.293   0.242  11.885 -0.6192  0.3848  0.4513
22561SOL    HW176651   1.277   0.327  11.844 -1.7985  0.3674  0.8635
22561SOL    HW276652   1.255   0.249  11.972  0.8478  0.0249  1.1539
22562SOL     OW76653   4.695   3.038   2.051 -0.1300  0.0491 -0.1935
22562SOL    HW176654   4.653   3.122   2.031  0.1577  0.3429  0.3892
22562SOL    HW276655   4.752   3.022   1.976  0.5710  0.8931  0.1345
22563SOL     OW76656   9.505  10.775   6.887  0.4870  0.0932 -0.2594
22563SOL    HW176657   9.463  10.707   6.833  1.4534 -0.0781 -0.8094
22563SOL    HW276658   9.431  10.825   6.923 -0.2175 -0.7284 -0.5160
22564SOL     OW76659   9.329   6.737   0.900  0.0879  0.3184 -0.0513
22564SOL    HW176660   9.247   6.703   0.936  0.7456 -0.3334  0.8754
22564SOL    HW276661   9.305   6.820   0.859 -0.7448  1.0577  1.8241
22565SOL     OW76662   0.416   1.867   0.287 -0.1510 -0.0747 -0.1011
22565SOL    HW176663   0.429   1.875   0.382  1.7803 -0.2222 -0.3141
22565SOL    HW276664   0.380   1.779   0.276  1.1155 -0.6734  0.3855
22566SOL     OW76665   3.767  12.205  12.408  0.0000 -0.4522  0.3621
22566SOL    HW176666   3.843  12.228  12.355 -1.2034  0.9583 -0.8344
22566SOL    HW276667   3.782  12.113  12.432  1.6823 -0.4405 -0.4758
22567SOL     OW76668   8.595   6.306   8.720  0.0196  0.1075  0.4882
22567SOL    HW176669   8.599   6.295   8.815  2.6672  2.3263  0.7401
22567SOL    HW276670   8.606   6.217   8.685 -1.0024 -0.7378  2.2047
22568SOL     OW76671   5.645   7.898  10.320  0.2879  0.0922  0.0029
22568SOL    HW176672   5.719   7.844  10.349 -0.4015 -0.5329  0.6696
22568SOL    HW276673   5.616   7.857  10.239  1.7135  1.3576 -1.1862
22569SOL     OW76674   0.892  10.082  10.113  0.0581 -0.3349  0.3759
22569SOL    HW176675   0.817  10.023  10.105  0.9035 -1.2350 -1.6744
22569SOL    HW276676   0.916  10.077  10.206 -2.7339  0.4722  1.2393
22570SOL     OW76677   9.030   0.295   6.828 -0.7192  0.0996 -0.8460
22570SOL    HW176678   9.070   0.252   6.903 -0.8287  1.6377  0.1165
22570SOL    HW276679   9.086   0.271   6.754  0.2940 -0.1439 -0.0167
22571SOL     OW76680   8.692   2.584  12.321  0.2220 -0.0091 -0.7831
22571SOL    HW176681   8.756   2.546  12.260  0.2054  1.5345 -1.8022
22571SOL    HW276682   8.609   2.541  12.298  0.7581 -1.7140  0.2727
22572SOL     OW76683  12.567   5.174  11.814 -0.4240  0.1222  0.2797
22572SOL    HW176684  12.515   5.100  11.782 -0.4176  0.3442 -0.2585
22572SOL    HW276685  12.651   5.165  11.769 -0.9096  1.2665 -0.9381
22573SOL     OW76686   7.730  10.518   2.129 -0.7081  0.5228 -0.0201
22573SOL    HW176687   7.798  10.566   2.083 -0.8703  0.7804  0.0099
22573SOL    HW276688   7.770  10.497   2.214 -2.0366  4.3298  1.7499
22574SOL     OW76689  10.783   0.572   4.301 -0.2797 -0.2389 -0.1967
22574SOL    HW176690  10.748   0.638   4.362  0.1307  0.1601 -0.3871
22574SOL    HW276691  10.821   0.505   4.357 -1.1614 -0.5865  0.0156
22575SOL     OW76692   9.608   5.099   6.127 -0.0482 -0.5575  0.1787
22575SOL    HW176693   9.677   5.062   6.073  0.8352  1.3373 -0.0865
22575SOL    HW276694   9.615   5.053   6.211  0.6246 -1.3481 -0.3020
22576SOL     OW76695  11.610   7.018  12.308 -0.0817  0.0055 -1.1110
22576SOL    HW176696  11.556   6.951  12.266  0.0599 -0.5430 -0.4462
22576SOL    HW276697  11.697   6.979  12.312  0.0622  0.3406 -0.9585
22577SOL     OW76698  10.726  11.809   9.414 -0.2396  0.0148 -0.1216
22577SOL    HW176699  10.673  11.801   9.335 -0.1988 -0.9454 -0.0661
22577SOL    HW276700  10.664  11.841   9.480 -0.3413  0.5410 -0.4682
22578SOL     OW76701  10.795   6.670  11.538 -0.2639 -0.0355  0.0842
22578SOL    HW176702  10.835   6.748  11.499  1.9707 -1.2107 -0.1449
22578SOL    HW276703  10.774   6.697  11.627 -0.0874  1.0219 -0.1790
22579SOL     OW76704   1.939   2.770   5.611 -0.2674  0.0791 -0.0515
22579SOL    HW176705   1.992   2.696   5.582  1.7250  0.2837  2.6585
22579SOL    HW276706   1.999   2.822   5.666 -1.9404  3.0433 -0.8443
22580SOL     OW76707  10.331   8.289   0.573  0.6001 -0.2557  0.5261
22580SOL    HW176708  10.379   8.239   0.506 -1.8711 -0.0357 -1.5834
22580SOL    HW276709  10.259   8.231   0.598  0.9104  0.0875  2.2874
22581SOL     OW76710   1.530   1.619   0.923 -0.0038 -0.2366 -0.2294
22581SOL    HW176711   1.502   1.539   0.968 -0.9478 -0.0270 -0.4123
22581SOL    HW276712   1.569   1.672   0.992 -1.8925  0.2937  0.5088
22582SOL     OW76713   9.628   0.707   9.004 -0.6641 -0.4992 -0.1345
22582SOL    HW176714   9.533   0.699   9.007 -0.7832  0.6963 -0.0088
22582SOL    HW276715   9.645   0.757   8.924 -0.2524  0.4423  0.5194
22583SOL     OW76716   6.370   7.691   4.914  0.1319 -0.4116  0.0209
22583SOL    HW176717   6.316   7.721   4.841  0.8035  0.0253 -0.3083
22583SOL    HW276718   6.453   7.738   4.904  0.2011 -0.2546  1.1224
22584SOL     OW76719   7.062  10.127   0.561  0.0415 -0.6846  0.3517
22584SOL    HW176720   7.071  10.218   0.533 -2.3458 -0.3695  0.4022
22584SOL    HW276721   7.122  10.079   0.506  3.2450  1.1349  1.9512
22585SOL     OW76722   0.709   9.572   4.271  0.1483 -0.1155 -0.3022
22585SOL    HW176723   0.796   9.578   4.232  0.1237  0.8513 -0.2292
22585SOL    HW276724   0.701   9.480   4.298  1.0151 -0.2851 -0.5897
22586SOL     OW76725  11.747   1.639   6.020  0.2384 -0.3818  0.0440
22586SOL    HW176726  11.731   1.545   6.021  0.6748 -0.4794 -1.0142
22586SOL    HW276727  11.744   1.663   5.928  0.6602  0.5475  0.2577
22587SOL     OW76728   7.182   9.245   4.505 -0.2496 -0.2194  0.9419
22587SOL    HW176729   7.155   9.324   4.459 -0.7533 -2.4212 -3.0249
22587SOL    HW276730   7.195   9.180   4.436 -0.4933 -3.8230  3.9470
22588SOL     OW76731   9.198   9.234   7.966 -0.3493  0.0960  0.1842
22588SOL    HW176732   9.280   9.186   7.958 -0.4497  0.0450 -0.6580
22588SOL    HW276733   9.130   9.166   7.965 -0.5547  0.2620 -2.0815
22589SOL     OW76734   3.162   4.460   7.778 -0.0545  0.4619 -0.5662
22589SOL    HW176735   3.184   4.538   7.830 -1.0251  0.6931 -0.4845
22589SOL    HW276736   3.183   4.387   7.836 -1.0913  0.7179  0.1632
22590SOL     OW76737   7.932   1.571   5.190 -0.0601 -0.0157  0.3978
22590SOL    HW176738   7.858   1.543   5.244  0.2213 -0.1467  0.7143
22590SOL    HW276739   7.907   1.544   5.101  0.5395 -2.0481  0.7765
22591SOL     OW76740   1.754   1.647   8.789 -0.2033 -0.2566  0.5620
22591SOL    HW176741   1.664   1.665   8.765  0.0407 -0.3244 -0.4452
22591SOL    HW276742   1.775   1.713   8.855 -1.1249 -0.5380  1.1591
22592SOL     OW76743   0.568   8.365  11.441 -0.2725 -0.5922 -0.0726
22592SOL    HW176744   0.535   8.363  11.351  0.9807  0.2004 -0.5723
22592SOL    HW276745   0.631   8.293  11.445  2.8654  1.8549 -1.1877
22593SOL     OW76746   7.155   1.738   8.156  0.1977 -0.0654 -0.0138
22593SOL    HW176747   7.164   1.688   8.075  1.3803 -0.1485  0.1595
22593SOL    HW276748   7.126   1.825   8.127  1.7033  0.2516 -0.6523
22594SOL     OW76749   8.753   8.435   3.593 -0.1998  0.2982 -0.2439
22594SOL    HW176750   8.749   8.373   3.665  0.9952  1.3897  0.8133
22594SOL    HW276751   8.667   8.476   3.592 -0.6704 -0.6586 -0.3249
22595SOL     OW76752  11.976   9.115   5.789 -0.6744 -0.4130  0.2038
22595SOL    HW176753  11.917   9.111   5.713 -0.4933 -1.5170  0.1115
22595SOL    HW276754  12.001   9.024   5.804 -1.0835 -0.2693  1.8861
22596SOL     OW76755  12.459   2.095   2.312 -0.4841 -0.2729  0.0105
22596SOL    HW176756  12.414   2.095   2.227 -1.0105  0.3283  0.2845
22596SOL    HW276757  12.476   2.002   2.329 -1.9385 -0.5530  0.0561
22597SOL     OW76758   4.992   6.602   6.911  0.1777  0.4117 -0.8246
22597SOL    HW176759   5.084   6.592   6.935  0.0805  1.2175 -0.0835
22597SOL    HW276760   4.975   6.530   6.849  0.1409 -2.5780  2.3442
22598SOL     OW76761  10.512   1.870   3.476 -0.5249  0.0432  0.5219
22598SOL    HW176762  10.603   1.851   3.495 -0.1381  1.3061  0.0447
22598SOL    HW276763  10.499   1.960   3.506 -1.9466 -0.4984  1.6617
22599SOL     OW76764   9.603   3.309   0.374  0.0910  0.7663 -0.0493
22599SOL    HW176765   9.564   3.221   0.374 -2.3253  1.7450 -0.7091
22599SOL    HW276766   9.560   3.354   0.301  2.8566  1.8945 -1.1074
22600SOL     OW76767   8.531   8.533  12.103 -0.2125  0.0874  0.6486
22600SOL    HW176768   8.581   8.452  12.113  0.9538  0.6350 -0.4186
22600SOL    HW276769   8.580   8.583  12.037 -1.8292  0.9342  0.0472
22601SOL     OW76770   4.599  10.130  11.251 -0.4383 -0.5623 -0.0194
22601SOL    HW176771   4.547  10.055  11.277  0.1578 -0.7463  0.6966
22601SOL    HW276772   4.690  10.102  11.265 -0.1738 -0.0098 -0.5676
22602SOL     OW76773   9.127   8.700   4.352  0.3531  0.2586 -0.2064
22602SOL    HW176774   9.179   8.705   4.431 -0.5548  1.6094  0.3462
22602SOL    HW276775   9.073   8.621   4.363 -0.3723  0.8887  0.9294
22603SOL     OW76776   2.047   9.420   8.195  0.1280  0.1590 -0.5218
22603SOL    HW176777   2.013   9.352   8.138 -1.6954  0.3243  0.3032
22603SOL    HW276778   1.992   9.496   8.178  0.0441  0.4463  0.8564
22604SOL     OW76779   5.521   5.009   3.409  0.4502  0.6076  0.2328
22604SOL    HW176780   5.437   4.966   3.419  0.2835  0.3011 -2.0763
22604SOL    HW276781   5.546   5.034   3.499 -1.0269 -1.2346  1.2303
22605SOL     OW76782   0.200   3.002   3.618  0.2337 -0.2170  0.1586
22605SOL    HW176783   0.295   2.993   3.624  0.0562 -1.8990  0.8392
22605SOL    HW276784   0.186   3.053   3.538  1.7054  0.3544  0.2342
22606SOL     OW76785  11.251   8.511  10.994 -0.1072  0.2313  0.9503
22606SOL    HW176786  11.221   8.513  11.085  0.3053  0.4993  1.0861
22606SOL    HW276787  11.346   8.501  11.001 -0.1992 -1.1423  0.5234
22607SOL     OW76788   9.333   2.851   8.829  0.2243  0.1152  0.2300
22607SOL    HW176789   9.331   2.877   8.921 -0.4889  0.4542  0.1197
22607SOL    HW276790   9.323   2.755   8.831  0.5114  0.0885  0.5166
22608SOL     OW76791  10.758   0.416  10.913 -0.0895 -0.3254  0.0771
22608SOL    HW176792  10.783   0.445  11.001  0.7744  0.5724 -0.4415
22608SOL    HW276793  10.697   0.482  10.882 -0.9354 -1.0088  0.2454
22609SOL     OW76794  11.674   6.959   5.845  0.0651  0.1566 -0.5214
22609SOL    HW176795  11.687   6.967   5.939  0.2115 -1.3847 -0.3852
22609SOL    HW276796  11.760   6.940   5.810 -0.1613 -0.2893 -0.8422
22610SOL     OW76797   3.640   3.121   2.544  0.3264  0.3286  0.0151
22610SOL    HW176798   3.698   3.177   2.594 -1.7426  1.6312  1.0711
22610SOL    HW276799   3.611   3.175   2.471  2.0743 -1.0416 -1.8292
22611SOL     OW76800   9.373   8.752   3.958 -0.1129  0.3541  0.4889
22611SOL    HW176801   9.340   8.838   3.985 -1.9182  0.3360 -1.3368
22611SOL    HW276802   9.467   8.764   3.945 -0.6356  2.7249 -1.8446
22612SOL     OW76803  11.770   4.026   9.142  1.0096  0.0026  0.2353
22612SOL    HW176804  11.861   4.037   9.116  1.0750 -1.6141 -0.3704
22612SOL    HW276805  11.721   4.029   9.059  0.5722  0.3354  0.5000
22613SOL     OW76806   9.396  11.070  11.609 -0.7566  0.8477 -0.4267
22613SOL    HW176807   9.310  11.085  11.569 -1.8258  0.4003  1.5820
22613SOL    HW276808   9.377  11.056  11.702  1.2211 -1.8709 -0.3315
22614SOL     OW76809  11.728   3.825  11.033 -0.1579 -0.7311  0.3140
22614SOL    HW176810  11.704   3.819  10.940 -0.1483  0.3504  0.2219
22614SOL    HW276811  11.747   3.918  11.046  1.7783 -1.1755  0.9443
22615SOL     OW76812   1.799   9.056  11.103 -0.1822 -0.5702 -0.1106
22615SOL    HW176813   1.801   9.123  11.171  1.3013 -0.1643 -0.5191
22615SOL    HW276814   1.861   8.990  11.133 -1.1013 -1.4374 -0.0597
22616SOL     OW76815   0.224   2.469   3.229 -0.4097 -0.5450 -0.5052
22616SOL    HW176816   0.156   2.434   3.170  0.9823 -1.2415 -1.7711
22616SOL    HW276817   0.225   2.563   3.211 -1.3078 -0.4547 -0.1580
22617SOL     OW76818   6.988   3.149   2.031  0.0935  0.0140 -0.0484
22617SOL    HW176819   7.032   3.131   2.114  0.8139  1.1493 -0.1761
22617SOL    HW276820   6.909   3.196   2.056 -1.5696 -2.7017  0.2500
22618SOL     OW76821   0.983   5.180   6.868 -0.2478  0.3754  0.1496
22618SOL    HW176822   1.023   5.102   6.830  0.3225  0.9115 -0.3858
22618SOL    HW276823   0.900   5.150   6.905 -0.5445 -0.2821 -0.9991
22619SOL     OW76824   7.886   5.313   4.072 -0.1994  0.6885  0.1558
22619SOL    HW176825   7.931   5.232   4.049 -0.5336  0.4199  0.4475
22619SOL    HW276826   7.863   5.352   3.987 -0.1967  0.3942  0.0202
22620SOL     OW76827   0.354   8.982   0.288  0.3844 -0.5966 -0.2773
22620SOL    HW176828   0.356   8.892   0.321  1.1264 -0.5171 -0.0896
22620SOL    HW276829   0.277   9.020   0.330  1.5641 -0.3573  1.8090
22621SOL     OW76830   3.923  10.256   0.733  0.0359 -0.2650  0.1662
22621SOL    HW176831   3.900  10.282   0.822  0.0991 -0.1018  0.1356
22621SOL    HW276832   3.839  10.250   0.687  0.0528  0.3148  0.0580
22622SOL     OW76833   6.148   4.378   7.728  0.7204  0.4039  0.7593
22622SOL    HW176834   6.185   4.416   7.807  2.8916 -2.0872  1.0576
22622SOL    HW276835   6.085   4.313   7.760  0.8395  0.1141  0.4108
22623SOL     OW76836   0.123   6.222   3.231 -0.2091 -0.8427  0.0463
22623SOL    HW176837   0.052   6.263   3.182  1.6094  1.5498 -0.7843
22623SOL    HW276838   0.114   6.256   3.319  1.0973  1.2531 -0.5645
22624SOL     OW76839   0.245  11.633   7.141  0.5006 -0.1175 -0.3018
22624SOL    HW176840   0.214  11.567   7.202 -2.7128  0.6455 -0.9288
22624SOL    HW276841   0.260  11.585   7.059  2.5198 -0.7286  0.3653
22625SOL     OW76842   9.580   3.053  10.316 -0.2067  0.2668  0.1685
22625SOL    HW176843   9.632   3.062  10.236  0.9597  0.9122  0.9874
22625SOL    HW276844   9.522   3.130  10.316 -0.6082 -0.0271 -0.3232
22626SOL     OW76845   3.308   7.595   1.444 -0.5821 -0.4669  0.7595
22626SOL    HW176846   3.367   7.573   1.372 -1.7852 -1.2475 -0.0291
22626SOL    HW276847   3.355   7.566   1.523 -0.0301 -1.3395  0.1329
22627SOL     OW76848   9.307   3.021   7.759  0.0459  0.3121 -0.3157
22627SOL    HW176849   9.293   2.939   7.712  0.8206  1.0397 -1.9051
22627SOL    HW276850   9.325   3.085   7.690  0.6568  1.5666  0.9567
22628SOL     OW76851   1.701   3.056   1.400 -0.3058 -0.2838  0.9966
22628SOL    HW176852   1.672   3.118   1.467 -0.9674 -0.1734  0.6103
22628SOL    HW276853   1.786   3.089   1.372  0.0531 -0.4105  1.8828
22629SOL     OW76854  10.352   0.296   0.752 -0.5343 -0.1021  0.1399
22629SOL    HW176855  10.426   0.269   0.698  0.0746 -1.2973  1.5008
22629SOL    HW276856  10.324   0.216   0.797 -1.8481  0.5867  0.6239
22630SOL     OW76857   9.815   5.937   9.202  0.2088  0.2969 -0.1234
22630SOL    HW176858   9.848   6.019   9.239  1.3660  0.4052 -1.2996
22630SOL    HW276859   9.889   5.903   9.152 -1.1836  0.0253 -2.0854
22631SOL     OW76860   1.256  10.897   7.828 -0.2594  0.0785 -0.2696
22631SOL    HW176861   1.306  10.886   7.748 -0.4350 -0.5704 -0.2958
22631SOL    HW276862   1.218  10.811   7.845 -1.0172  0.4490 -0.0175
22632SOL     OW76863   1.108   0.438   0.982  0.3302 -0.4963  0.1878
22632SOL    HW176864   1.084   0.484   1.063  0.4395 -1.9338  1.0812
22632SOL    HW276865   1.052   0.478   0.915  0.2242  0.7223  0.9623
22633SOL     OW76866  11.412   1.401   3.671  0.0823 -0.4225  0.4248
22633SOL    HW176867  11.436   1.473   3.729 -1.0562 -0.0249  0.4383
22633SOL    HW276868  11.492   1.350   3.660  0.8070  0.6179  0.7469
22634SOL     OW76869   3.481   9.111  12.299 -0.5440  0.1055 -1.0743
22634SOL    HW176870   3.502   9.022  12.329  3.0407  1.1618  0.0604
22634SOL    HW276871   3.388   9.122  12.320 -0.3088 -2.2462  1.8202
22635SOL     OW76872   8.766   8.851   0.452  0.1533 -0.1195  0.6003
22635SOL    HW176873   8.813   8.924   0.411  1.7018 -1.0587  0.6266
22635SOL    HW276874   8.685   8.844   0.401  0.4626  0.9335 -0.0827
22636SOL     OW76875   1.525   8.888   4.964  0.7269 -0.5192 -0.2487
22636SOL    HW176876   1.573   8.812   4.930  1.4400  0.0595 -0.5702
22636SOL    HW276877   1.531   8.953   4.894 -0.8517 -0.5554 -0.4396
22637SOL     OW76878   7.321   5.857  11.591 -0.3544 -0.2663 -0.5494
22637SOL    HW176879   7.258   5.918  11.553  1.5175  1.1912 -1.4896
22637SOL    HW276880   7.333   5.789  11.524  0.0089  0.1497 -0.9090
22638SOL     OW76881  11.651   3.608   9.091 -0.1825 -0.6974  0.2708
22638SOL    HW176882  11.575   3.646   9.136 -0.2452  0.1021 -0.4776
22638SOL    HW276883  11.694   3.554   9.157 -1.5385 -1.3677  0.6460
22639SOL     OW76884   5.292   3.995  10.333 -0.3298  0.2373 -0.6380
22639SOL    HW176885   5.327   3.974  10.246 -0.2263 -3.6074  0.1605
22639SOL    HW276886   5.203   3.961  10.332 -0.3340  0.1391  0.7210
22640SOL     OW76887   2.387   4.101   8.096 -0.2801 -0.1911  0.2243
22640SOL    HW176888   2.341   4.182   8.073  0.4683  0.3118  0.4436
22640SOL    HW276889   2.319   4.034   8.096 -0.9795  0.5002  0.3730
22641SOL     OW76890   7.978   7.565   7.649 -0.7615 -0.5361  0.0421
22641SOL    HW176891   7.920   7.641   7.647  0.3670  0.3557 -0.1504
22641SOL    HW276892   8.054   7.592   7.597 -0.2479 -1.7192  0.1572
22642SOL     OW76893   1.459   3.306   5.395 -0.0524 -0.2142  0.5101
22642SOL    HW176894   1.438   3.316   5.302  0.6252  1.3579  0.5028
22642SOL    HW276895   1.552   3.284   5.397  0.2671  1.0771  0.8414
22643SOL     OW76896   6.907   2.627   4.241  0.1822  0.3118  0.3026
22643SOL    HW176897   6.998   2.656   4.231  0.8287 -2.1528 -1.7929
22643SOL    HW276898   6.908   2.572   4.319  0.5057  0.1441  0.1805
22644SOL     OW76899   4.499   3.305   0.635 -0.9072 -0.1122 -0.2939
22644SOL    HW176900   4.517   3.263   0.719  0.3798 -0.3208 -0.6634
22644SOL    HW276901   4.419   3.262   0.604  0.9013 -3.1280 -1.1473
22645SOL     OW76902   0.491   7.622   1.084 -0.9390  0.3669  0.2440
22645SOL    HW176903   0.535   7.674   1.017 -0.5766  0.2616  0.4024
22645SOL    HW276904   0.561   7.584   1.136 -0.9804 -3.1271 -1.9287
22646SOL     OW76905   5.191   7.072   8.339  0.4602 -0.1760 -0.2240
22646SOL    HW176906   5.272   7.064   8.390 -0.4734  2.2866  1.8770
22646SOL    HW276907   5.121   7.048   8.401 -0.5917  0.9759 -0.9156
22647SOL     OW76908   1.537   0.343   4.681 -0.2246  0.4533  0.0545
22647SOL    HW176909   1.631   0.323   4.676 -0.3565 -0.0552 -0.4866
22647SOL    HW276910   1.515   0.332   4.774  0.2351  0.5154  0.1741
22648SOL     OW76911   0.435   3.702   6.584  0.2638 -0.3709  0.4023
22648SOL    HW176912   0.446   3.788   6.623  2.2507  0.1605 -1.1636
22648SOL    HW276913   0.501   3.647   6.627  0.7100 -0.4426 -0.3581
22649SOL     OW76914   9.592  10.267  12.380 -0.4432  0.6797 -0.1340
22649SOL    HW176915   9.618  10.213  12.456  0.2972  0.5111 -0.4951
22649SOL    HW276916   9.603  10.357  12.410 -1.2906  0.6293  0.3409
22650SOL     OW76917   8.278  11.859   0.241  0.3896  0.3888 -0.3012
22650SOL    HW176918   8.236  11.916   0.177  1.7580  0.8936 -0.7878
22650SOL    HW276919   8.357  11.829   0.198  1.5069  0.9797  1.2397
22651SOL     OW76920   2.421   3.893   8.327 -0.1211 -0.2406 -0.6762
22651SOL    HW176921   2.341   3.938   8.357  0.3439  1.5108 -1.9158
22651SOL    HW276922   2.480   3.964   8.302  2.0044 -1.4727  0.5259
22652SOL     OW76923  11.712   9.556   9.365  0.1075 -0.2833  0.2207
22652SOL    HW176924  11.788   9.508   9.400 -1.5237 -2.0378  1.5824
22652SOL    HW276925  11.637   9.500   9.386 -1.8770  2.5676  1.3220
22653SOL     OW76926   4.313   0.530   5.569  0.1378 -0.9298  0.5978
22653SOL    HW176927   4.353   0.494   5.490 -0.9383 -1.4953  0.2860
22653SOL    HW276928   4.385   0.572   5.615  0.9565 -1.3521 -0.2520
22654SOL     OW76929   8.495   0.537   3.206 -0.5626  0.4198  0.7102
22654SOL    HW176930   8.588   0.537   3.183 -0.7124 -0.4103  0.0336
22654SOL    HW276931   8.494   0.542   3.301  0.1516  1.3736  0.6819
22655SOL     OW76932   7.265   6.049  12.069 -0.5177  0.0757 -0.5969
22655SOL    HW176933   7.179   6.048  12.027 -0.3758  1.3086 -0.9336
22655SOL    HW276934   7.247   6.081  12.158 -0.8554 -2.7385  0.4586
22656SOL     OW76935   1.874   8.420   5.874 -0.0872 -0.2299 -0.1296
22656SOL    HW176936   1.953   8.386   5.916 -0.4753 -1.2405 -0.1877
22656SOL    HW276937   1.843   8.348   5.820 -0.0684  0.7653 -1.5184
22657SOL     OW76938   3.968   2.171   3.912 -0.5737  0.0342  0.1926
22657SOL    HW176939   4.052   2.211   3.933 -0.5646 -0.7325  1.7291
22657SOL    HW276940   3.987   2.078   3.903 -1.5285 -0.4288  2.3858
22658SOL     OW76941   8.148   8.842   1.538 -0.3563  0.0777  0.0606
22658SOL    HW176942   8.117   8.778   1.602  0.1980 -0.4484 -0.1870
22658SOL    HW276943   8.174   8.789   1.462  3.2980  0.1750  1.0431
22659SOL     OW76944   3.094   7.324   3.319 -0.0260 -0.3055 -0.4630
22659SOL    HW176945   3.140   7.365   3.246  0.0902  1.3838  0.5152
22659SOL    HW276946   3.101   7.387   3.390 -3.1581 -0.2945 -0.0246
22660SOL     OW76947   9.854   7.633   0.577 -0.0863 -0.4038 -0.4166
22660SOL    HW176948   9.889   7.683   0.503  0.7120  0.0824  0.2828
22660SOL    HW276949   9.903   7.664   0.653 -0.1386 -1.6652  0.1604
22661SOL     OW76950  11.945   8.980   1.043  0.1274 -0.9889  0.4094
22661SOL    HW176951  11.958   9.004   1.135 -0.1482  0.9904 -0.0336
22661SOL    HW276952  11.896   9.053   1.006  0.0427 -1.8638 -1.2766
22662SOL     OW76953   2.213   2.550  12.155 -0.6628 -0.2700 -0.2961
22662SOL    HW176954   2.266   2.532  12.233 -1.1090  0.4345  0.1828
22662SOL    HW276955   2.124   2.525  12.181 -1.2717  2.2582  0.3219
22663SOL     OW76956   3.415   3.741   7.324 -0.0029 -0.5653  0.1476
22663SOL    HW176957   3.435   3.652   7.354 -1.3276 -0.4771  1.3984
22663SOL    HW276958   3.437   3.797   7.398  0.3871  0.1012 -0.4707
22664SOL     OW76959   8.960   4.363   8.733  0.5484  0.0787  0.2414
22664SOL    HW176960   8.974   4.425   8.804  2.7098 -0.6245  0.5290
22664SOL    HW276961   8.902   4.296   8.769  0.2142  0.6332  0.7450
22665SOL     OW76962   3.001   8.553   7.636  0.1785  0.1392  0.5540
22665SOL    HW176963   2.943   8.627   7.616  0.0328 -0.0903  0.1144
22665SOL    HW276964   3.007   8.505   7.553 -0.7848 -1.0820  1.1538
22666SOL     OW76965   9.078   0.920  12.503 -0.4906 -0.6795  0.0604
22666SOL    HW176966   9.132   0.915  12.425  1.4424 -3.3107  1.4214
22666SOL    HW276967   9.112   0.995  12.551 -0.6694  0.0174 -0.8788
22667SOL     OW76968   2.871   3.452   5.232 -0.2306 -0.3494 -0.5881
22667SOL    HW176969   2.840   3.469   5.143  0.3250 -1.4307 -1.0030
22667SOL    HW276970   2.904   3.362   5.230  1.4573  0.1968  0.2215
22668SOL     OW76971  11.538   9.840   3.480  0.0302  0.4907 -0.3447
22668SOL    HW176972  11.483   9.802   3.411 -1.7443  1.2760  0.5715
22668SOL    HW276973  11.624   9.801   3.466 -1.0437 -1.8006 -1.0814
22669SOL     OW76974   7.567   7.522   8.963 -0.0477 -0.4448  0.4649
22669SOL    HW176975   7.564   7.443   8.908  0.0487 -1.1296  1.4089
22669SOL    HW276976   7.545   7.594   8.903 -1.3946 -1.3189 -0.1524
22670SOL     OW76977   2.093   4.751  11.528 -0.2896 -0.2311  0.0450
22670SOL    HW176978   2.135   4.837  11.537  0.3790 -0.4231 -1.0739
22670SOL    HW276979   1.999   4.770  11.524 -0.3441  0.2294  2.3145
22671SOL     OW76980   9.020   7.587   6.761  0.0007  0.5074  0.0361
22671SOL    HW176981   9.038   7.519   6.826 -0.6327 -0.2349 -0.5338
22671SOL    HW276982   9.097   7.644   6.763  1.4369 -1.2971 -0.7741
22672SOL     OW76983   6.003   7.462   3.940  0.0585  0.1011 -0.0643
22672SOL    HW176984   5.966   7.396   3.998 -1.5036 -0.1836 -1.3379
22672SOL    HW276985   6.044   7.412   3.870 -0.5689  0.4538 -0.6967
22673SOL     OW76986   0.511  11.939   1.543  0.3249  0.2458 -0.4903
22673SOL    HW176987   0.477  11.979   1.623  1.0001 -0.6996  0.2950
22673SOL    HW276988   0.605  11.961   1.544  1.0013 -2.3435  0.6385
22674SOL     OW76989  11.409   9.283   6.707  0.0197 -0.2249 -0.0578
22674SOL    HW176990  11.336   9.293   6.646  1.2204  0.9238 -1.3804
22674SOL    HW276991  11.459   9.364   6.697  1.5737 -1.0643  0.6834
22675SOL     OW76992   6.242   2.894   7.695 -0.0289  0.1916  0.1350
22675SOL    HW176993   6.186   2.831   7.741  1.7775 -1.5498  0.1124
22675SOL    HW276994   6.238   2.866   7.603 -0.4520  1.1391 -0.1495
22676SOL     OW76995  11.838   4.468   8.852 -0.0185  0.4135  0.3685
22676SOL    HW176996  11.850   4.541   8.912 -1.8079  0.7324  0.3916
22676SOL    HW276997  11.804   4.397   8.906 -2.0061  0.8215 -0.2714
22677SOL     OW76998   9.763   9.083   8.318 -0.0139  0.1510  0.1015
22677SOL    HW176999   9.821   9.009   8.297  0.1240  0.0542  0.7810
22677SOL    HW277000   9.821   9.147   8.359 -0.5251 -0.3497  1.7005
22678SOL     OW77001   9.123   9.688   3.554  0.2232  0.0152  0.0144
22678SOL    HW177002   9.069   9.651   3.483 -0.8606 -0.2594  0.9555
22678SOL    HW277003   9.068   9.757   3.592  1.2750  0.9785 -0.1616
22679SOL     OW77004   3.446   4.116  12.004 -0.2166  0.0927 -0.1043
22679SOL    HW177005   3.524   4.064  12.026 -0.1983  0.3483  0.4664
22679SOL    HW277006   3.481   4.199  11.971 -0.2437  0.2965  0.3737
22680SOL     OW77007   1.615   3.895  10.715  0.0260  0.3799  0.5710
22680SOL    HW177008   1.602   3.806  10.749 -1.2928  0.0671 -0.6575
22680SOL    HW277009   1.555   3.949  10.767 -1.5844 -0.0111 -0.7911
22681SOL     OW77010   0.673  10.958   0.562  0.2862 -0.0533 -0.3751
22681SOL    HW177011   0.588  10.922   0.536  0.0444 -0.7581  1.2547
22681SOL    HW277012   0.727  10.881   0.580  0.4267  0.3692  1.1273
22682SOL     OW77013   3.391   2.873   2.736 -0.2457  0.5868 -0.3660
22682SOL    HW177014   3.327   2.806   2.714 -2.4792  2.8648 -1.2674
22682SOL    HW277015   3.445   2.834   2.805 -2.4340 -1.5374  0.2569
22683SOL     OW77016   6.292   3.038   7.173 -0.3077 -0.4266  0.4488
22683SOL    HW177017   6.385   3.020   7.186  0.2841  1.9138 -0.1236
22683SOL    HW277018   6.280   3.035   7.079 -0.7331 -0.3689  0.5022
22684SOL     OW77019   7.458   1.189   9.345 -0.3109 -0.2784 -0.0848
22684SOL    HW177020   7.504   1.134   9.408 -0.1552  0.0559  0.0982
22684SOL    HW277021   7.367   1.188   9.374 -0.4362 -0.9751 -0.4719
22685SOL     OW77022   0.980   3.262   7.576 -0.5980  0.1579 -0.0921
22685SOL    HW177023   0.942   3.235   7.659  0.9625 -0.5824  0.4256
22685SOL    HW277024   1.041   3.332   7.600  1.1013 -1.1774 -0.3327
22686SOL     OW77025   6.525  10.548   8.736  0.1301 -0.1217  0.2371
22686SOL    HW177026   6.501  10.639   8.752  0.3423 -0.1025  0.4501
22686SOL    HW277027   6.441  10.504   8.720 -0.0763 -0.0917  1.1760
22687SOL     OW77028   7.432   3.755   7.270 -0.1401  0.6104  0.8734
22687SOL    HW177029   7.402   3.665   7.258 -0.2494  0.7444  0.0853
22687SOL    HW277030   7.527   3.750   7.269 -0.1474  0.5310  0.6361
22688SOL     OW77031   0.377  11.404   3.489  0.1516  0.5161  0.5534
22688SOL    HW177032   0.420  11.320   3.507  1.7471  1.0892 -0.3461
22688SOL    HW277033   0.436  11.469   3.527 -0.8028  1.2663  0.7847
22689SOL     OW77034  11.206   9.657   5.292 -0.4124 -0.0696  0.2685
22689SOL    HW177035  11.264   9.692   5.359 -1.1799  0.8777  0.4631
22689SOL    HW277036  11.257   9.663   5.211  0.6341 -1.5126  0.7777
22690SOL     OW77037   6.351   4.591   3.108 -0.0016 -0.2205  0.7739
22690SOL    HW177038   6.279   4.587   3.170 -1.3870  1.1930 -0.6495
22690SOL    HW277039   6.425   4.551   3.154 -0.9134  0.8589  3.3527
22691SOL     OW77040   5.734   6.805   4.685 -0.1943 -0.4249  0.9285
22691SOL    HW177041   5.758   6.873   4.748  0.4185 -0.3098  0.5784
22691SOL    HW277042   5.796   6.734   4.701  1.3459  0.4097 -0.8917
22692SOL     OW77043   3.015   2.276   6.469 -0.6494  0.0591 -0.1122
22692SOL    HW177044   3.047   2.240   6.386 -0.9796 -0.2011 -0.1297
22692SOL    HW277045   2.923   2.249   6.472 -0.6861  0.2255  0.2547
22693SOL     OW77046  11.431   4.648   9.582 -0.0856  0.6030 -0.1901
22693SOL    HW177047  11.502   4.612   9.636 -0.2347 -0.5567 -0.7313
22693SOL    HW277048  11.387   4.711   9.638  1.2693  1.2212  0.2148
22694SOL     OW77049   3.071   3.112  11.903  0.0468 -0.1353  0.0016
22694SOL    HW177050   3.084   3.188  11.960  0.0149 -1.1954  1.4795
22694SOL    HW277051   3.132   3.046  11.938  1.2036 -0.3183 -2.1990
22695SOL     OW77052   3.484   1.656   4.224 -0.0543  0.0213  0.4635
22695SOL    HW177053   3.487   1.617   4.137 -0.2434  1.9855 -0.4694
22695SOL    HW277054   3.557   1.615   4.271  0.3274 -0.7452 -0.7645
22696SOL     OW77055   8.372   6.660   6.566 -0.1107  0.2937 -0.2605
22696SOL    HW177056   8.367   6.714   6.645  0.9076  2.0233 -1.3152
22696SOL    HW277057   8.356   6.721   6.494 -1.3690 -1.3012 -1.4100
22697SOL     OW77058  11.826   3.633   2.250 -0.2444  0.1301 -0.1511
22697SOL    HW177059  11.806   3.540   2.244 -0.9176  0.2029  0.7984
22697SOL    HW277060  11.885   3.640   2.326 -1.1791  0.6195  0.5457
22698SOL     OW77061   5.376  11.842   4.693  0.0232 -1.0376  0.1305
22698SOL    HW177062   5.443  11.869   4.755  0.5220 -0.9320 -0.4467
22698SOL    HW277063   5.312  11.914   4.694  0.2105 -0.8722  0.2550
22699SOL     OW77064   7.760  10.857  11.150 -0.1212  0.3376 -0.1492
22699SOL    HW177065   7.678  10.852  11.199  0.2342 -0.0203  0.4198
22699SOL    HW277066   7.740  10.818  11.065 -1.1142  2.2156 -0.8250
22700SOL     OW77067   3.438   0.108  11.590  0.6203  0.0189 -0.3509
22700SOL    HW177068   3.485   0.025  11.602  1.2678 -0.0140 -2.5506
22700SOL    HW277069   3.417   0.109  11.496 -0.5207  1.7587 -0.1084
22701SOL     OW77070  11.196   2.065   6.565 -0.1547  0.2890 -0.7799
22701SOL    HW177071  11.104   2.085   6.548 -0.8215 -3.5317 -2.7579
22701SOL    HW277072  11.230   2.035   6.481  2.1266 -0.8961  0.4809
22702SOL     OW77073   7.700   9.239  10.874 -0.6488  0.4263 -0.0984
22702SOL    HW177074   7.746   9.197  10.946  0.2027  0.2419 -0.7296
22702SOL    HW277075   7.636   9.297  10.916 -3.2602 -2.8542  0.8459
22703SOL     OW77076   6.751   4.122   0.146  0.4383  0.7720 -0.1965
22703SOL    HW177077   6.723   4.199   0.193  0.1564  1.4889 -1.4820
22703SOL    HW277078   6.672   4.068   0.137  0.4470  0.7318 -0.0188
22704SOL     OW77079   6.817   5.945   9.914 -0.2780 -0.2434  0.0393
22704SOL    HW177080   6.763   5.968   9.989  0.7101 -0.3124  0.7953
22704SOL    HW277081   6.843   5.854   9.930  0.5407 -0.0266  0.0044
22705SOL     OW77082   5.448   3.605   6.607  0.0819 -0.3014 -0.1370
22705SOL    HW177083   5.451   3.510   6.615 -1.0646 -0.2362  1.5318
22705SOL    HW277084   5.527   3.627   6.558  0.0386 -2.1497 -1.1335
22706SOL     OW77085   4.743   1.571   0.537 -0.2681 -1.0952  0.0050
22706SOL    HW177086   4.752   1.529   0.623 -0.8457 -0.2928  0.4772
22706SOL    HW277087   4.743   1.499   0.475  0.0520 -1.6979  0.6908
22707SOL     OW77088  10.534   8.395   0.758 -0.2099  0.1635 -0.0354
22707SOL    HW177089  10.461   8.400   0.695  1.5815 -1.9189 -2.5193
22707SOL    HW277090  10.607   8.360   0.707  1.8004 -0.4167  2.9758
22708SOL     OW77091   0.526   7.078   6.306  0.2297  0.2130  0.1846
22708SOL    HW177092   0.497   7.131   6.231 -0.0803 -1.7331 -1.1510
22708SOL    HW277093   0.618   7.101   6.317 -0.3270  2.3637  0.8742
22709SOL     OW77094  10.826  10.517   0.925  0.3260 -0.4334 -0.0229
22709SOL    HW177095  10.769  10.583   0.885  1.0449  0.7505  0.8377
22709SOL    HW277096  10.893  10.500   0.860 -0.1121 -0.6512 -0.4237
22710SOL     OW77097  11.357  10.159   5.392  0.3423 -0.4567  0.2418
22710SOL    HW177098  11.282  10.160   5.333 -0.6067 -0.5814  1.4014
22710SOL    HW277099  11.320  10.175   5.479  1.6429 -0.6600  0.8690
22711SOL     OW77100   3.164  12.534   3.615  0.3679  0.2253 -0.1010
22711SOL    HW177101   3.069  12.550   3.616  0.2577  0.1202 -2.5247
22711SOL    HW277102   3.202  12.621   3.631 -0.1363  0.3165  0.6352
22712SOL     OW77103   9.046   7.020  12.550  0.5822  0.2395  0.2809
22712SOL    HW177104   8.998   7.009  12.468  3.4012 -2.1557 -1.2456
22712SOL    HW277105   9.105   7.093  12.534  0.6642  0.2075  0.4368
22713SOL     OW77106   7.667   2.588   1.176  0.1849 -0.3867  0.2476
22713SOL    HW177107   7.598   2.552   1.119 -0.4184 -0.6115  1.0992
22713SOL    HW277108   7.748   2.552   1.140 -0.1489 -0.2394 -0.6842
22714SOL     OW77109  10.760  12.296  10.575 -0.1438 -0.0286  0.5092
22714SOL    HW177110  10.784  12.289  10.667  0.0406  0.5245  0.5036
22714SOL    HW277111  10.727  12.385  10.565 -0.4939 -0.1996  0.1172
22715SOL     OW77112  10.141   6.066   4.676 -0.7547 -0.3375 -0.2309
22715SOL    HW177113  10.152   6.089   4.768 -2.5385  1.9445 -0.4897
22715SOL    HW277114  10.230   6.066   4.641 -0.1404  0.0208  1.2287
22716SOL     OW77115   5.948   5.756   2.204  0.1314  0.3723 -0.1904
22716SOL    HW177116   5.875   5.774   2.263  0.8756 -0.1315  0.9427
22716SOL    HW277117   6.025   5.753   2.262  1.0501  0.8814 -1.3416
22717SOL     OW77118   4.993   6.363   6.782 -0.4238 -0.5924  0.4079
22717SOL    HW177119   5.002   6.275   6.819 -0.6778 -1.1488 -0.8081
22717SOL    HW277120   4.908   6.362   6.738 -0.8041  0.5456  1.0975
22718SOL     OW77121   2.641   5.656   6.670 -0.0718  0.4623  0.1726
22718SOL    HW177122   2.653   5.585   6.733 -2.0573 -0.6431 -0.5865
22718SOL    HW277123   2.707   5.640   6.603  0.2366 -0.0007  0.5778
22719SOL     OW77124   0.670  11.669  12.067 -0.1276  0.2816 -0.4881
22719SOL    HW177125   0.715  11.649  11.985 -0.2148 -1.3997 -0.1450
22719SOL    HW277126   0.694  11.760  12.085 -0.5702  0.8977 -2.6701
22720SOL     OW77127   3.446  11.896  11.626 -0.4745  0.1163  0.0284
22720SOL    HW177128   3.382  11.921  11.693 -0.6898  0.3200 -0.2524
22720SOL    HW277129   3.530  11.900  11.671 -0.6690 -0.2618  0.4293
22721SOL     OW77130   8.359   0.971   1.049 -0.1933 -0.0266  0.3996
22721SOL    HW177131   8.415   0.937   0.979 -0.8934 -2.3940  0.8954
22721SOL    HW277132   8.388   0.925   1.128 -1.4025  0.3175  1.0798
22722SOL     OW77133  11.241   1.583   8.710  0.0498 -0.0882 -0.2333
22722SOL    HW177134  11.284   1.506   8.672  0.9234 -0.9206  2.2863
22722SOL    HW277135  11.225   1.560   8.801  0.6609  2.8351  0.7261
22723SOL     OW77136   8.175   8.716   4.750 -0.2372 -0.2152 -0.1260
22723SOL    HW177137   8.234   8.707   4.824  0.5091  1.0878 -0.5420
22723SOL    HW277138   8.143   8.627   4.734  3.2972 -1.4276 -1.2647
22724SOL     OW77139  12.461   5.082   2.578 -0.2810 -0.4816 -0.1324
22724SOL    HW177140  12.548   5.056   2.608 -0.7163 -2.7722 -0.6569
22724SOL    HW277141  12.438   5.157   2.633  1.1428 -1.1495  1.4782
22725SOL     OW77142  10.513   0.994   3.095 -0.3350  0.2309  0.1475
22725SOL    HW177143  10.510   1.077   3.047 -1.6230  1.0626  1.5835
22725SOL    HW277144  10.595   0.998   3.145  0.6053 -0.2874 -1.2842
22726SOL     OW77145   9.433   1.352  11.999 -0.2354  0.3585  0.3000
22726SOL    HW177146   9.524   1.335  11.972 -0.7988  1.2674 -2.5870
22726SOL    HW277147   9.391   1.385  11.919 -3.2388 -0.4386  1.4355
22727SOL     OW77148   1.912   2.065   1.116  0.0523 -0.1555 -0.6072
22727SOL    HW177149   1.859   2.029   1.045  1.1448 -0.8188 -1.1110
22727SOL    HW277150   1.888   2.157   1.119 -0.2596 -0.1881 -1.6260
22728SOL     OW77151   6.555  10.825  12.361  0.1213 -0.0479  0.3225
22728SOL    HW177152   6.609  10.904  12.354  1.4213 -0.7395  2.0143
22728SOL    HW277153   6.467  10.856  12.340  0.6562  1.7671  0.5257
22729SOL     OW77154   6.091   2.810   5.780  0.9427 -0.0602 -0.2860
22729SOL    HW177155   6.104   2.814   5.685  0.0509 -2.6393 -0.5889
22729SOL    HW277156   6.044   2.890   5.801  1.1987  0.5853 -2.0025
22730SOL     OW77157   2.804   6.401  11.688 -0.5959  0.2806 -0.7125
22730SOL    HW177158   2.735   6.420  11.625  0.7573 -0.1747 -2.4117
22730SOL    HW277159   2.829   6.486  11.723 -1.3454  0.5456 -0.7979
22731SOL     OW77160  10.921  10.226   8.499 -0.0214  0.3405 -0.2384
22731SOL    HW177161  10.918  10.131   8.507  1.2296  0.1826 -1.3083
22731SOL    HW277162  10.834  10.255   8.529 -1.2233 -1.2989 -1.8845
22732SOL     OW77163   1.055   6.212  12.026  0.2810 -0.5496  0.7259
22732SOL    HW177164   1.108   6.272  11.973 -2.5120  0.5157 -1.1358
22732SOL    HW277165   1.045   6.257  12.110 -0.9706  1.2438 -0.3190
22733SOL     OW77166   2.215   7.966  10.117  0.5731 -0.4475  0.4392
22733SOL    HW177167   2.228   8.012  10.034  1.5494  1.5101  1.5797
22733SOL    HW277168   2.236   7.875  10.098 -1.5613 -0.5392 -1.9700
22734SOL     OW77169  10.592   4.315   8.747  0.1833 -0.1624 -0.0209
22734SOL    HW177170  10.517   4.294   8.691 -0.6594  0.0456  0.9912
22734SOL    HW277171  10.597   4.242   8.809 -1.1062  1.2253  1.8322
22735SOL     OW77172   4.505   5.855  10.458  0.0949  0.2319  0.5091
22735SOL    HW177173   4.436   5.904  10.503 -0.7729 -0.8658  0.4092
22735SOL    HW277174   4.462   5.820  10.380  1.2734  1.1122 -0.5695
22736SOL     OW77175   7.392  11.406   7.366 -0.4307  0.1440 -0.4943
22736SOL    HW177176   7.353  11.322   7.341  1.8322 -1.2353  0.3453
22736SOL    HW277177   7.392  11.404   7.462  1.1396  0.3388 -0.4751
22737SOL     OW77178   1.847   2.444   9.724  0.1172  0.3278 -0.3144
22737SOL    HW177179   1.844   2.531   9.764  0.1782  1.0805 -1.8370
22737SOL    HW277180   1.759   2.409   9.736  0.0629  0.6528  0.2231
22738SOL     OW77181   3.138   8.138   4.521 -0.0181  0.8133 -0.2140
22738SOL    HW177182   3.067   8.088   4.561 -0.1375 -2.0325 -3.4978
22738SOL    HW277183   3.095   8.213   4.481 -0.4650  1.4537  1.3930
22739SOL     OW77184   9.827   7.593  12.370 -0.2315 -0.6076 -0.0202
22739SOL    HW177185   9.790   7.666  12.319  0.7011  0.5849  0.9512
22739SOL    HW277186   9.915   7.623  12.394  0.1497 -2.0480  0.4410
22740SOL     OW77187   2.725  10.643   0.567  0.2376  0.7290 -0.3419
22740SOL    HW177188   2.761  10.731   0.559 -2.0471  1.6223 -1.6566
22740SOL    HW277189   2.676  10.645   0.650  1.1171  0.2911  0.2071
22741SOL     OW77190   0.463   7.440   0.683  0.1892 -0.8436 -0.1775
22741SOL    HW177191   0.455   7.433   0.588 -0.2384  0.4931 -0.2562
22741SOL    HW277192   0.549   7.403   0.703  1.4362  1.2498 -1.3870
22742SOL     OW77193   0.727  10.551   4.265 -0.3945 -0.0531 -0.3622
22742SOL    HW177194   0.712  10.507   4.349  1.4622  1.9017  1.1270
22742SOL    HW277195   0.665  10.624   4.265 -0.8723 -0.4519 -1.0489
22743SOL     OW77196   0.729   8.626  10.292 -0.0036 -0.0520  0.3303
22743SOL    HW177197   0.706   8.626  10.385 -2.2704  0.4902 -0.1810
22743SOL    HW277198   0.646   8.619  10.246  0.9534  0.8377 -1.6866
22744SOL     OW77199  11.431   5.655   0.619 -0.1397  0.2797  0.1327
22744SOL    HW177200  11.515   5.650   0.665  0.2234  0.1250 -0.5461
22744SOL    HW277201  11.417   5.567   0.586 -0.1500  0.5142 -0.4977
22745SOL     OW77202   2.428   8.129   9.742  0.3733  0.2308  0.3199
22745SOL    HW177203   2.358   8.149   9.804  0.6292 -0.1205  0.7322
22745SOL    HW277204   2.492   8.198   9.755  1.0990 -0.6098  1.4999
22746SOL     OW77205   0.505  12.595   5.547  0.6336  0.0282 -0.1515
22746SOL    HW177206   0.474  12.634   5.628 -1.6040 -0.4877 -0.7068
22746SOL    HW277207   0.563  12.523   5.575  0.0800  0.0091  0.9774
22747SOL     OW77208   3.460   0.425   6.166 -0.1161  0.3722  0.2071
22747SOL    HW177209   3.366   0.410   6.179 -0.1313  0.5234  0.2792
22747SOL    HW277210   3.466   0.467   6.081 -0.1180  0.3990  0.2199
22748SOL     OW77211   8.477   5.376   3.266  0.0468  0.1268  0.0769
22748SOL    HW177212   8.475   5.343   3.356  1.6806 -0.4900 -0.0775
22748SOL    HW277213   8.456   5.469   3.274  1.3321  0.3497  1.2560
22749SOL     OW77214   4.211   6.174   5.512  0.3477 -0.3557  0.4431
22749SOL    HW177215   4.271   6.100   5.522 -1.4836 -1.8282  1.1881
22749SOL    HW277216   4.139   6.139   5.461  1.6017  2.3408 -3.6140
22750SOL     OW77217  12.572   5.477   6.978 -0.6569  0.6093  0.4980
22750SOL    HW177218  12.549   5.395   7.023  0.6223  0.6322  1.2269
22750SOL    HW277219  12.502   5.489   6.914 -0.9077 -1.0180  0.4284
22751SOL     OW77220   9.717   8.269   7.369 -0.6994  0.2391  0.7088
22751SOL    HW177221   9.741   8.297   7.281  1.5899 -0.2612  1.1053
22751SOL    HW277222   9.700   8.350   7.416 -1.3002  0.5429 -0.0040
22752SOL     OW77223   8.282   0.603  11.829 -0.3511  0.5956 -0.2437
22752SOL    HW177224   8.318   0.548  11.760 -1.2295 -1.0143  0.5213
22752SOL    HW277225   8.229   0.668  11.783  0.5107  0.6796 -1.1551
22753SOL     OW77226   9.037   6.367   5.743  0.0498  0.0711 -0.1265
22753SOL    HW177227   9.002   6.444   5.788 -0.6203 -0.6356  0.5759
22753SOL    HW277228   8.996   6.370   5.656 -0.2938  0.2818  0.0398
22754SOL     OW77229   0.997   2.104   4.283 -0.0782 -0.1545 -0.2129
22754SOL    HW177230   1.079   2.102   4.234 -0.4660  0.7443 -0.9134
22754SOL    HW277231   1.015   2.158   4.360 -0.4345  1.3878 -1.1787
22755SOL     OW77232   5.025   7.539   1.770 -0.4038 -0.3536 -0.4019
22755SOL    HW177233   5.005   7.495   1.687  1.7004 -1.0607 -0.6051
22755SOL    HW277234   4.940   7.556   1.810 -1.4539 -0.2637 -2.5596
22756SOL     OW77235   6.760   4.681   7.666 -0.0988  0.4066  0.5402
22756SOL    HW177236   6.838   4.639   7.629  0.4608  0.4655  1.6324
22756SOL    HW277237   6.776   4.775   7.656 -0.1104  0.4158  0.6077
22757SOL     OW77238  12.174  10.168  11.261  0.6583  0.5335 -0.6281
22757SOL    HW177239  12.081  10.163  11.282  0.2973  0.4527 -2.0946
22757SOL    HW277240  12.201  10.077  11.249  1.1604  0.5016  0.6947
22758SOL     OW77241   6.194   1.731   5.004 -0.0671  0.4531  0.2255
22758SOL    HW177242   6.248   1.805   4.977  0.4438  0.3783  1.0231
22758SOL    HW277243   6.256   1.661   5.021 -0.4538  0.2029  0.6263
22759SOL     OW77244   6.220   9.070   8.532 -0.0754  0.1042  0.2357
22759SOL    HW177245   6.190   9.137   8.471  1.0363 -1.3744 -2.0908
22759SOL    HW277246   6.149   9.061   8.595 -1.7045  1.1041 -1.3658
22760SOL     OW77247  10.867   5.321   9.465  0.5877 -0.3429 -0.5898
22760SOL    HW177248  10.862   5.415   9.448  1.7502 -0.0648  0.4685
22760SOL    HW277249  10.865   5.314   9.561  1.6707 -1.2880 -0.6141
22761SOL     OW77250   7.014   2.115   6.003  0.0540  1.0375 -0.7388
22761SOL    HW177251   7.083   2.143   6.063  1.3720  1.4656 -2.3680
22761SOL    HW277252   6.946   2.182   6.010 -0.4796  0.3491  1.2548
22762SOL     OW77253   3.575   5.186   0.340  0.0474 -0.3611 -0.5067
22762SOL    HW177254   3.580   5.093   0.320  0.5731 -0.5433  0.3774
22762SOL    HW277255   3.660   5.206   0.380 -0.5340  0.1806  0.5187
22763SOL     OW77256  11.650   2.777   2.843 -0.0170  0.6494 -0.1418
22763SOL    HW177257  11.641   2.704   2.782 -0.0865  0.5971 -0.0689
22763SOL    HW277258  11.716   2.748   2.906 -2.4097 -0.7637  1.9238
22764SOL     OW77259   4.237  10.517   4.371 -0.5379 -0.1277 -0.4941
22764SOL    HW177260   4.257  10.586   4.308 -0.5298  0.9761  0.6817
22764SOL    HW277261   4.277  10.438   4.334 -0.9758  0.3775 -2.0995
22765SOL     OW77262   2.529  10.055   8.655 -0.3282 -0.2144 -0.9596
22765SOL    HW177263   2.597  10.101   8.605  0.1112  0.1412 -0.0529
22765SOL    HW277264   2.543  10.083   8.746 -0.2522 -1.9128 -0.4240
22766SOL     OW77265   3.369  10.883   9.698 -0.2853  0.2095 -0.1095
22766SOL    HW177266   3.285  10.875   9.744 -0.6018  0.3173 -0.6580
22766SOL    HW277267   3.381  10.977   9.686 -0.3535  0.1657 -0.5191
22767SOL     OW77268   0.545   5.875  10.417  0.3877  0.1463 -0.1536
22767SOL    HW177269   0.587   5.856  10.334 -1.7340 -1.3622 -0.9785
22767SOL    HW277270   0.569   5.965  10.437  1.2347  0.4252 -2.2182
22768SOL     OW77271   7.323   3.097  10.644 -0.1714  0.4612 -0.7274
22768SOL    HW177272   7.336   3.006  10.618 -0.8669 -0.2381  1.1995
22768SOL    HW277273   7.399   3.143  10.608 -0.0470 -0.7696 -2.1273
22769SOL     OW77274   4.348  12.184   1.303 -0.9103  0.2191 -0.1774
22769SOL    HW177275   4.369  12.111   1.361 -0.1095  0.6663  0.1144
22769SOL    HW277276   4.256  12.205   1.323 -0.0609  1.8107  2.6223
22770SOL     OW77277   5.158  12.429   3.240  0.6517 -0.2368  0.0437
22770SOL    HW177278   5.098  12.361   3.210 -0.7042  0.5755  0.7790
22770SOL    HW277279   5.124  12.454   3.326  1.3866  1.0416 -0.0103
22771SOL     OW77280   2.344   2.959   9.348  0.2783  0.0645  0.2089
22771SOL    HW177281   2.292   3.018   9.294  0.8379 -1.4577 -2.1143
22771SOL    HW277282   2.313   2.872   9.326  3.2709 -0.8693 -0.7624
22772SOL     OW77283   6.648   7.270   9.559  0.0513 -0.2907  0.0984
22772SOL    HW177284   6.575   7.281   9.498  1.6698  1.6170 -1.6494
22772SOL    HW277285   6.693   7.191   9.528 -0.3966 -0.6142  0.2524
22773SOL     OW77286  12.117   7.687   2.305  0.2720  0.1377  0.0320
22773SOL    HW177287  12.168   7.609   2.324 -1.1250 -0.0776  3.4623
22773SOL    HW277288  12.163   7.758   2.349  0.0178  0.7784 -0.6923
22774SOL     OW77289  10.645   7.640   9.097 -0.1796  0.2259  0.4812
22774SOL    HW177290  10.664   7.560   9.146  0.4221  0.5519  0.7953
22774SOL    HW277291  10.608   7.609   9.014 -0.6546 -0.3491  0.9036
22775SOL     OW77292   0.067  10.433   8.197  0.0265  0.7998  0.0389
22775SOL    HW177293   0.146  10.427   8.251 -0.3543 -0.2445  0.5188
22775SOL    HW277294   0.011  10.362   8.229 -0.3570  0.3625 -1.4954
22776SOL     OW77295  12.512   0.313   8.409  0.2283 -0.0801 -0.0432
22776SOL    HW177296  12.496   0.264   8.328  0.7090  0.8076 -0.6863
22776SOL    HW277297  12.568   0.385   8.383  0.8481 -0.0886  1.1929
22777SOL     OW77298   5.359   3.908   0.766 -0.0476 -0.2905  0.6415
22777SOL    HW177299   5.353   3.953   0.851 -1.7026  2.1207 -0.6313
22777SOL    HW277300   5.422   3.960   0.717 -0.4383 -0.5889 -0.1826
22778SOL     OW77301   5.506   6.274   3.838  0.4998  0.0119  0.3979
22778SOL    HW177302   5.567   6.202   3.825  0.7462  0.1769  0.6178
22778SOL    HW277303   5.454   6.248   3.914  0.9156  0.2763  0.7824
22779SOL     OW77304  12.454  12.015  11.839 -0.8819 -0.5078 -0.2055
22779SOL    HW177305  12.517  11.945  11.822 -1.2778 -0.4015 -2.4282
22779SOL    HW277306  12.508  12.092  11.858 -0.4069 -0.9194  0.1487
22780SOL     OW77307   5.026  12.472   6.325 -0.0878  0.0670  0.1216
22780SOL    HW177308   5.093  12.457   6.392  0.8519 -1.0502 -1.0104
22780SOL    HW277309   4.989  12.385   6.309  0.7892  0.0038 -1.8765
22781SOL     OW77310   3.562   8.037   2.971 -0.3708 -0.5613  0.2945
22781SOL    HW177311   3.540   8.130   2.971  1.4735 -0.0724  1.5015
22781SOL    HW277312   3.620   8.026   2.895 -2.5002 -1.3033 -1.3279
22782SOL     OW77313  11.981  10.965   1.678 -0.6257 -0.6393 -0.1736
22782SOL    HW177314  12.038  11.041   1.665  0.3709 -0.9991  1.8258
22782SOL    HW277315  11.892  11.002   1.676 -0.2438  0.2686 -1.1106
22783SOL     OW77316   7.782   1.112   7.563 -0.3746 -0.1149 -0.6214
22783SOL    HW177317   7.695   1.104   7.601  0.1245 -1.8086  0.2829
22783SOL    HW277318   7.812   1.021   7.551  0.5490  0.3893 -2.6415
22784SOL     OW77319   4.495  10.518   9.519 -0.3217 -0.2492  0.0765
22784SOL    HW177320   4.483  10.430   9.483  0.3749 -0.2121 -0.2831
22784SOL    HW277321   4.569  10.553   9.469 -1.2851  0.9518 -0.5479
22785SOL     OW77322  11.115   5.675   7.570  0.4617  0.4591  0.0304
22785SOL    HW177323  11.083   5.589   7.543 -0.4875  1.7162 -3.3156
22785SOL    HW277324  11.160   5.710   7.493  1.6075  2.6637  1.5613
22786SOL     OW77325   5.796  11.373   2.704  0.2684  0.1603  0.3116
22786SOL    HW177326   5.798  11.403   2.795 -0.6435  0.0598  0.3770
22786SOL    HW277327   5.747  11.290   2.708  1.1483 -0.3961 -0.1240
22787SOL     OW77328   1.872   1.605   6.276  0.0669 -0.0624 -0.1545
22787SOL    HW177329   1.966   1.617   6.284 -0.0823  0.0544  2.1751
22787SOL    HW277330   1.857   1.517   6.311 -0.6464 -0.2847 -0.9916
22788SOL     OW77331   2.304   0.027   8.342 -0.6920 -0.3916 -0.1424
22788SOL    HW177332   2.227   0.018   8.286 -0.9088 -2.8043  0.4542
22788SOL    HW277333   2.372   0.059   8.283 -1.7887  0.5188 -0.9688
22789SOL     OW77334   0.457   5.266   9.441  0.5501  0.1834  0.5761
22789SOL    HW177335   0.433   5.257   9.348  0.8781  0.4884  0.4613
22789SOL    HW277336   0.424   5.352   9.465  0.2876  0.0210  0.7998
22790SOL     OW77337   9.171  10.599   0.041  0.2973 -0.8589 -0.2672
22790SOL    HW177338   9.202  10.596  -0.049 -0.0530  0.4280 -0.4532
22790SOL    HW277339   9.112  10.524   0.049  1.8339 -2.1455 -0.4986
22791SOL     OW77340   1.176   8.326  10.265  0.4195 -0.0762 -0.3730
22791SOL    HW177341   1.218   8.289  10.343  0.0544  0.1734 -0.0490
22791SOL    HW277342   1.187   8.421  10.276  0.2440 -0.0348 -0.5562
22792SOL     OW77343  11.643   3.874   5.353  0.0677  0.6547  0.2034
22792SOL    HW177344  11.711   3.877   5.285 -1.1606 -2.2982 -1.3889
22792SOL    HW277345  11.571   3.926   5.317 -0.1532  0.0240 -0.3089
22793SOL     OW77346   1.548  10.618   3.742  0.3963 -0.5313 -0.1300
22793SOL    HW177347   1.505  10.633   3.826 -0.9434  0.6643 -0.9837
22793SOL    HW277348   1.642  10.614   3.763 -0.0116 -2.8046  1.7394
22794SOL     OW77349   7.549   3.017   2.996 -0.2290  0.6144 -0.7232
22794SOL    HW177350   7.618   3.080   3.015  0.5692 -0.4083 -0.1598
22794SOL    HW277351   7.480   3.069   2.954 -0.2755  2.1716  1.1258
22795SOL     OW77352   4.420   5.009   9.777  0.1744  0.1271  0.0298
22795SOL    HW177353   4.431   5.099   9.806 -1.2157  0.4765 -0.4477
22795SOL    HW277354   4.451   4.956   9.850 -1.0810  0.9854  1.2294
22796SOL     OW77355   0.927   9.992  10.389  0.0729 -0.0660 -0.1836
22796SOL    HW177356   1.016  10.001  10.423 -0.1137  0.4191  0.1900
22796SOL    HW277357   0.890   9.918  10.438 -0.1672  0.5791  0.6308
22797SOL     OW77358  11.196  11.294   4.934 -0.7237  0.5905 -0.3421
22797SOL    HW177359  11.209  11.305   4.839 -0.4313  1.2010 -0.2344
22797SOL    HW277360  11.268  11.343   4.973 -1.9306  1.9577  0.2394
22798SOL     OW77361  11.382   4.066   2.078 -0.5083  0.2104  0.1916
22798SOL    HW177362  11.336   3.982   2.077 -1.6714  0.8068  1.2772
22798SOL    HW277363  11.316   4.130   2.104  1.1135  0.9134  3.1227
22799SOL     OW77364   5.195  11.746   5.658 -0.7876 -0.0920  0.4711
22799SOL    HW177365   5.130  11.791   5.713 -1.1630  1.9659 -1.5255
22799SOL    HW277366   5.150  11.732   5.575  0.3142 -1.6126  0.0918
22800SOL     OW77367   7.704   2.189  12.121 -0.5365  0.2719  0.3935
22800SOL    HW177368   7.766   2.252  12.159  0.4429  0.1690 -0.9640
22800SOL    HW277369   7.718   2.196  12.027  0.6389 -2.9602  0.2132
22801SOL     OW77370   4.204   2.031   3.139  0.4261  0.0185  0.0993
22801SOL    HW177371   4.279   1.972   3.134 -0.0819 -0.6244  0.0148
22801SOL    HW277372   4.141   1.986   3.195 -0.3567  0.0266 -0.7444
22802SOL     OW77373   3.458   3.506   7.576  0.7416 -0.6635 -0.3149
22802SOL    HW177374   3.507   3.561   7.636 -0.4860 -0.0407  0.1654
22802SOL    HW277375   3.494   3.418   7.588  0.9426 -0.4278  0.8775
22803SOL     OW77376   9.313  10.883   9.450  0.4062 -0.4560 -0.5682
22803SOL    HW177377   9.320  10.798   9.407 -0.3859 -0.8255  0.0082
22803SOL    HW277378   9.359  10.872   9.533  2.0410  0.2917 -1.3377
22804SOL     OW77379  10.937  10.920   9.371 -0.3590 -0.7222  0.2788
22804SOL    HW177380  10.917  10.828   9.385 -1.3436 -0.7147 -0.8629
22804SOL    HW277381  10.903  10.939   9.284  0.6483  0.5022  0.1192
22805SOL     OW77382   2.886   1.883   3.102 -0.5355  0.5190  0.4566
22805SOL    HW177383   2.889   1.968   3.146 -1.4450  1.0270 -0.4244
22805SOL    HW277384   2.823   1.832   3.154 -0.4774  0.6076  0.6133
22806SOL     OW77385   4.711   6.692   6.255 -0.3400  0.1794 -0.5762
22806SOL    HW177386   4.765   6.693   6.334 -0.0720 -0.1074 -0.7543
22806SOL    HW277387   4.765   6.736   6.189 -1.6028  2.9078  0.0624
22807SOL     OW77388   2.206   4.364  12.356  0.2614 -0.4884  0.4627
22807SOL    HW177389   2.146   4.292  12.334  1.0865 -1.2881  0.7735
22807SOL    HW277390   2.173   4.398  12.439  0.0092 -0.6724  0.4403
22808SOL     OW77391   8.006   1.439   2.163  0.5837  0.2844 -0.5748
22808SOL    HW177392   8.096   1.463   2.187 -0.0333  0.7558  1.4270
22808SOL    HW277393   7.957   1.521   2.173 -0.4373 -0.4270  0.3328
22809SOL     OW77394   3.227  11.750  12.086 -0.8703  0.5819  0.0996
22809SOL    HW177395   3.311  11.713  12.114  0.2126  2.5403 -0.3586
22809SOL    HW277396   3.161  11.696  12.130  0.5778 -1.6656 -0.3505
22810SOL     OW77397   1.941  12.016  11.944 -0.5546  0.1144  0.0399
22810SOL    HW177398   1.969  11.960  12.017  1.0026  1.6722  0.7211
22810SOL    HW277399   1.930  12.103  11.983  0.3609  1.0008 -1.5409
22811SOL     OW77400   0.695  11.769   3.517  0.1979  0.2906  0.1028
22811SOL    HW177401   0.771  11.805   3.564  0.2629  0.0747  0.1605
22811SOL    HW277402   0.719  11.777   3.424 -0.7361  2.5955 -0.0255
22812SOL     OW77403  11.682   7.900  10.276 -0.2464 -0.4929 -0.4930
22812SOL    HW177404  11.717   7.824  10.323 -0.6473 -0.1969  0.3047
22812SOL    HW277405  11.752   7.965  10.283 -0.3768 -0.3869 -0.1357
22813SOL     OW77406  11.035   5.231  10.143  0.4843 -0.5928 -0.4702
22813SOL    HW177407  11.043   5.137  10.131  2.9019 -0.2025 -2.8248
22813SOL    HW277408  11.038   5.267  10.055  0.6768  1.7454  0.4251
22814SOL     OW77409   8.823   0.265  10.708  0.6708 -0.3930 -0.1070
22814SOL    HW177410   8.918   0.269  10.718  1.1164 -1.2394 -3.0322
22814SOL    HW277411   8.799   0.346  10.662 -0.6399  1.4982  3.5192
22815SOL     OW77412   5.450   0.324   0.537  0.0406 -0.0469 -0.8181
22815SOL    HW177413   5.356   0.327   0.554  0.3461 -2.0425  1.8461
22815SOL    HW277414   5.485   0.264   0.603  3.3101  1.1901 -1.2191
22816SOL     OW77415   4.672   1.956   3.281  0.1054  0.5133 -0.4662
22816SOL    HW177416   4.755   1.926   3.244 -0.4597 -0.0662 -1.3024
22816SOL    HW277417   4.670   2.050   3.262  0.5768  0.5351 -0.4227
22817SOL     OW77418   1.160   0.107   6.132 -0.2689  0.2427 -0.5070
22817SOL    HW177419   1.218   0.053   6.186 -1.6957  0.1190  0.9892
22817SOL    HW277420   1.118   0.044   6.073  1.2007  0.3584 -1.7164
22818SOL     OW77421   0.383   9.048   6.860  0.2375 -0.5680  0.0025
22818SOL    HW177422   0.322   9.121   6.847  0.1440 -0.5580  0.4674
22818SOL    HW277423   0.331   8.983   6.908  0.6623 -0.4519  0.6358
22819SOL     OW77424   7.935   2.764   1.914 -0.2872  0.3233 -0.3114
22819SOL    HW177425   7.918   2.719   1.831 -0.8128 -0.1490  0.0421
22819SOL    HW277426   7.875   2.723   1.976  0.7269  0.0422  0.5169
22820SOL     OW77427   4.297   2.036  10.943  0.3687 -0.1051  0.2905
22820SOL    HW177428   4.224   1.974  10.945 -0.8488  1.3120  0.9186
22820SOL    HW277429   4.314   2.049  10.850  0.4067 -1.0876  0.1454
22821SOL     OW77430   3.641   9.621  11.317  0.2787  0.5866  0.1849
22821SOL    HW177431   3.599   9.705  11.298 -1.6607  0.0315  1.7132
22821SOL    HW277432   3.621   9.605  11.409 -1.6974 -2.7669 -0.6645
22822SOL     OW77433   0.882   2.514   4.305 -0.1924 -0.1239 -0.0899
22822SOL    HW177434   0.847   2.440   4.257 -0.7181 -0.3535  0.6260
22822SOL    HW277435   0.806   2.555   4.346 -0.2221  2.0088 -2.0216
22823SOL     OW77436   5.083   3.932   2.181 -0.3360  0.0091  0.2579
22823SOL    HW177437   5.144   3.973   2.242  0.6057 -0.6845 -0.1924
22823SOL    HW277438   5.085   3.988   2.104  0.0016 -0.1900  0.1174
22824SOL     OW77439   9.623   4.612   1.588 -0.2137  0.4830  0.0349
22824SOL    HW177440   9.534   4.595   1.556 -0.0325  0.6074 -0.5562
22824SOL    HW277441   9.643   4.700   1.557 -0.0337  0.6123  0.5125
22825SOL     OW77442  10.304   4.409   7.063 -0.5379 -0.1610 -0.2469
22825SOL    HW177443  10.262   4.385   6.980  0.5947  0.1980 -0.9365
22825SOL    HW277444  10.241   4.468   7.105 -1.0018 -0.1177 -0.9738
22826SOL     OW77445   6.796   1.324  11.112 -0.4350 -0.5345  0.4230
22826SOL    HW177446   6.739   1.247  11.121 -0.0339 -0.7485  1.2530
22826SOL    HW277447   6.832   1.337  11.199 -0.3268  0.4758  0.2370
22827SOL     OW77448   8.694   5.643   9.990 -0.5008  0.3552 -0.4006
22827SOL    HW177449   8.771   5.654  10.047 -1.4730  0.9123  0.8577
22827SOL    HW277450   8.722   5.676   9.905  0.5115  0.9849  0.1570
22828SOL     OW77451  11.759  12.417   8.309  0.0839 -0.0157 -0.3147
22828SOL    HW177452  11.729  12.484   8.371 -0.0281  1.1937 -1.6061
22828SOL    HW277453  11.817  12.360   8.360  0.6785  1.4400  0.7033
22829SOL     OW77454   5.545   2.394   9.321 -0.3107  0.3860  0.4816
22829SOL    HW177455   5.627   2.377   9.274  0.6912  0.5194  2.0988
22829SOL    HW277456   5.539   2.323   9.385 -0.7225  1.1583  1.3197
22830SOL     OW77457   4.317   9.547   7.593  0.1313  0.0575  0.6445
22830SOL    HW177458   4.310   9.641   7.608  1.1823  0.3764 -0.7529
22830SOL    HW277459   4.346   9.511   7.677 -1.1070  0.8413  1.4379
22831SOL     OW77460   5.411   9.048  11.806  1.0541 -0.1083 -0.5469
22831SOL    HW177461   5.507   9.044  11.808  1.0735 -1.3483 -2.0737
22831SOL    HW277462   5.388   9.043  11.713 -0.4654  2.3561 -0.3920
22832SOL     OW77463   0.110  12.195   8.765 -0.1197 -0.5555 -0.4449
22832SOL    HW177464   0.059  12.127   8.723  1.5368 -1.6284 -0.8412
22832SOL    HW277465   0.105  12.174   8.859 -2.7221  1.0608 -0.1555
22833SOL     OW77466   1.327   0.603   5.991 -0.3053  0.3763  0.2665
22833SOL    HW177467   1.264   0.530   5.989 -0.3188  0.3735  0.6414
22833SOL    HW277468   1.387   0.580   6.062  0.5783  0.0037 -0.5860
22834SOL     OW77469   7.613   7.749  10.502 -0.0274  0.0234 -0.5432
22834SOL    HW177470   7.556   7.802  10.558  0.3228  0.4237 -0.5618
22834SOL    HW277471   7.598   7.659  10.530 -1.3517  0.0329 -1.1595
22835SOL     OW77472  10.799  10.274   0.664 -0.5849  0.1324 -0.1707
22835SOL    HW177473  10.715  10.284   0.709 -0.8475 -2.4623  0.1045
22835SOL    HW277474  10.848  10.214   0.720  0.4483 -0.3873 -1.5832
22836SOL     OW77475   3.516   2.391  10.787  0.0781  0.2184  0.6928
22836SOL    HW177476   3.574   2.351  10.853  0.6462 -0.6074 -0.2730
22836SOL    HW277477   3.436   2.339  10.792  0.8871 -1.2772 -0.6990
22837SOL     OW77478   4.856   8.482   3.863 -0.3643  0.2010 -0.2621
22837SOL    HW177479   4.798   8.526   3.801 -1.0289 -0.0091  0.1865
22837SOL    HW277480   4.933   8.538   3.870 -1.4699  1.6575  0.8048
22838SOL     OW77481  11.398   6.287   8.303 -0.8891  0.6835  0.2436
22838SOL    HW177482  11.468   6.225   8.282 -0.4669  0.8062  1.2339
22838SOL    HW277483  11.341   6.286   8.225 -2.0960 -2.5623  0.9723
22839SOL     OW77484   1.680   0.858   8.591  0.3968 -0.1719 -0.3894
22839SOL    HW177485   1.642   0.945   8.584 -1.5468 -1.0285 -1.0213
22839SOL    HW277486   1.617   0.800   8.549  0.5721 -2.1916  1.9246
22840SOL     OW77487   6.546   3.540   0.651  0.2329 -0.3058  0.4491
22840SOL    HW177488   6.518   3.451   0.627 -0.8118  0.0667  0.2444
22840SOL    HW277489   6.641   3.532   0.665  0.0484 -1.6277  1.1888
22841SOL     OW77490   9.464   1.853   5.731  0.1356  0.0211 -0.0224
22841SOL    HW177491   9.388   1.906   5.757  0.4048  0.5639 -0.3196
22841SOL    HW277492   9.463   1.856   5.635 -1.2553 -2.5391 -0.1710
22842SOL     OW77493   0.569   0.162   9.515 -0.6627 -0.0262  0.1993
22842SOL    HW177494   0.485   0.151   9.559 -0.9457  1.2344  0.0324
22842SOL    HW277495   0.549   0.152   9.422 -0.3619 -1.0863  0.2379
22843SOL     OW77496   7.722   0.716   2.661  0.4881 -0.1343  0.0517
22843SOL    HW177497   7.695   0.727   2.752 -0.7680  1.4769 -0.4489
22843SOL    HW277498   7.801   0.770   2.653 -0.9410  2.0460 -0.3885
22844SOL     OW77499   2.334  12.209   0.738 -0.6864  0.2871  0.2089
22844SOL    HW177500   2.342  12.119   0.704  0.7405  0.6119 -0.3790
22844SOL    HW277501   2.241  12.217   0.762 -0.7969 -1.4127  0.4897
22845SOL     OW77502   7.596   8.737   5.855 -0.1613  0.2366  0.4811
22845SOL    HW177503   7.658   8.671   5.887 -0.0417  0.7991  1.4550
22845SOL    HW277504   7.651   8.809   5.825 -0.3139  1.3497  2.6933
22846SOL     OW77505   0.400   2.971   5.174  0.0654 -0.4462 -0.3443
22846SOL    HW177506   0.343   2.930   5.239  0.9155 -2.5375 -0.8344
22846SOL    HW277507   0.388   2.919   5.095 -0.2246  1.4662 -1.6178
22847SOL     OW77508   8.839   2.011  10.942 -0.2561 -0.0576 -0.2631
22847SOL    HW177509   8.751   1.988  10.911 -1.0991  0.7017  1.4390
22847SOL    HW277510   8.898   1.971  10.878 -1.8060 -1.5615 -0.8317
22848SOL     OW77511   3.013   0.403   7.708 -0.0508 -0.2579 -0.0624
22848SOL    HW177512   2.951   0.330   7.717 -1.1260  0.3307 -2.0215
22848SOL    HW277513   3.066   0.381   7.632 -0.8974  1.2778 -1.1680
22849SOL     OW77514   6.974   9.677   9.639 -0.2634 -0.1186 -0.0965
22849SOL    HW177515   7.065   9.648   9.647 -0.9258 -1.9671  1.9678
22849SOL    HW277516   6.957   9.677   9.545  1.2483 -1.9462 -0.4478
22850SOL     OW77517   8.272   0.625   9.236 -0.6054 -0.5453 -0.1891
22850SOL    HW177518   8.228   0.546   9.270  1.8167 -1.6682  0.5355
22850SOL    HW277519   8.309   0.666   9.314 -2.5349  1.8957 -0.4274
22851SOL     OW77520   0.930   9.335   4.585 -0.0182  0.5149 -0.4652
22851SOL    HW177521   1.012   9.352   4.631  0.0103 -1.9958  0.6207
22851SOL    HW277522   0.953   9.339   4.492  1.4234 -0.3091 -0.1793
22852SOL     OW77523   5.460   3.827   4.554 -0.5589 -0.0305  0.0322
22852SOL    HW177524   5.495   3.739   4.566 -3.2567 -1.0093  1.6997
22852SOL    HW277525   5.533   3.886   4.573  0.3727 -1.8832  2.6541
22853SOL     OW77526   8.733   9.824   3.090 -0.3320  0.5439 -0.2825
22853SOL    HW177527   8.774   9.746   3.051 -0.3882  0.1007  0.5329
22853SOL    HW277528   8.759   9.896   3.032  0.8938  0.1393 -0.2677
22854SOL     OW77529  10.456  11.108   8.409 -0.2382  0.7549  0.2692
22854SOL    HW177530  10.533  11.141   8.364 -1.1566  1.4131 -0.8660
22854SOL    HW277531  10.437  11.025   8.366  0.0748  0.3819  0.8371
22855SOL     OW77532   3.690   7.154   7.335 -0.3390  0.0522  0.3021
22855SOL    HW177533   3.601   7.123   7.321  0.2730 -1.5653 -0.2599
22855SOL    HW277534   3.736   7.078   7.373  0.9760  0.6111 -0.1140
22856SOL     OW77535   0.272   9.842  10.777  0.5395  0.2019 -0.3173
22856SOL    HW177536   0.306   9.926  10.808 -0.1182 -0.3177  1.9535
22856SOL    HW277537   0.177   9.852  10.778  0.4671  0.0860 -2.1027
22857SOL     OW77538  11.202   5.905   7.133  0.2730  0.0837  0.0860
22857SOL    HW177539  11.273   5.970   7.137  0.6911 -0.2903 -0.9222
22857SOL    HW277540  11.127   5.953   7.098  0.1154  0.3914  0.8144
22858SOL     OW77541  10.791  11.227   6.759  0.1458 -0.0326 -0.8620
22858SOL    HW177542  10.727  11.191   6.696  0.5765 -0.3022 -1.1498
22858SOL    HW277543  10.853  11.155   6.772 -0.4417 -0.3095  0.5803
22859SOL     OW77544   7.449   2.501  12.387  0.5201 -0.5401 -0.7070
22859SOL    HW177545   7.418   2.539  12.304 -1.8465 -0.2315  0.2459
22859SOL    HW277546   7.450   2.407  12.371  1.9784 -0.4007 -1.6532
22860SOL     OW77547   4.846   9.498   8.284 -0.2110  0.1785 -0.1853
22860SOL    HW177548   4.861   9.412   8.245 -3.9100  0.5376 -2.9623
22860SOL    HW277549   4.795   9.479   8.363  0.0888 -0.2092 -0.0816
22861SOL     OW77550   8.822  12.302   3.385  0.2500  0.0750  0.1230
22861SOL    HW177551   8.776  12.386   3.389 -0.5721 -0.2143 -1.7704
22861SOL    HW277552   8.915  12.325   3.383  0.0371  0.9493 -0.2190
22862SOL     OW77553   2.024   3.236  12.582  0.2978 -0.1631  0.2880
22862SOL    HW177554   1.995   3.177  12.513 -0.3185  2.0337 -1.4786
22862SOL    HW277555   2.115   3.257  12.560 -0.1164  1.0987 -0.3524
22863SOL     OW77556   1.833   1.036   5.246 -0.0352 -0.3323 -0.3179
22863SOL    HW177557   1.793   1.118   5.274  0.4351  0.7083 -2.4668
22863SOL    HW277558   1.761   0.986   5.207 -0.5337 -1.4559  1.8710
22864SOL     OW77559   1.531   8.253   3.499  0.3053  0.1121  0.0634
22864SOL    HW177560   1.501   8.342   3.481 -0.6281 -0.3505 -0.7465
22864SOL    HW277561   1.452   8.206   3.526  0.7124 -0.5879  0.0505
22865SOL     OW77562   4.598   9.638   2.920  0.4562 -0.3896 -0.3031
22865SOL    HW177563   4.572   9.642   2.828  0.4368  2.2332 -0.2524
22865SOL    HW277564   4.519   9.609   2.966 -0.1967  0.3655 -0.9163
22866SOL     OW77565  10.642  10.194  11.907  0.0201 -0.1419 -0.0976
22866SOL    HW177566  10.631  10.270  11.850 -1.5560 -0.0587  0.2799
22866SOL    HW277567  10.715  10.146  11.868  0.3947  1.0318 -0.9162
22867SOL     OW77568  11.324  12.099   0.653  0.0741 -0.1832  0.5973
22867SOL    HW177569  11.259  12.031   0.670  1.9821 -1.6789  2.3735
22867SOL    HW277570  11.367  12.113   0.737  2.9443 -0.2791 -0.7235
22868SOL     OW77571   0.450  10.093   0.346  0.2022  0.1017  0.2282
22868SOL    HW177572   0.513  10.058   0.283  0.4424  0.4909  0.2479
22868SOL    HW277573   0.504  10.129   0.416 -0.0236  0.9664 -0.0318
22869SOL     OW77574   8.287   3.148   7.816 -0.0850  0.1252  0.6949
22869SOL    HW177575   8.231   3.216   7.854 -1.2016 -0.4092  0.0748
22869SOL    HW277576   8.225   3.086   7.776  0.9529 -0.6145  0.1881
22870SOL     OW77577   0.799   4.281  11.292  0.8028  0.6476 -0.0761
22870SOL    HW177578   0.724   4.241  11.249 -0.5283  2.7915  0.1058
22870SOL    HW277579   0.867   4.283  11.225  0.3284 -0.2497 -0.6005
22871SOL     OW77580   0.470   6.325   1.785 -0.5894  0.2014  0.1088
22871SOL    HW177581   0.461   6.246   1.732  0.5693 -0.7095  1.1997
22871SOL    HW277582   0.392   6.326   1.840 -0.0980 -0.8448  0.8748
22872SOL     OW77583  10.374   8.410   1.306 -0.1914  0.4914 -0.3293
22872SOL    HW177584  10.393   8.466   1.382 -0.7958  0.5298 -0.2020
22872SOL    HW277585  10.301   8.453   1.262 -0.1569  0.2091 -0.6640
22873SOL     OW77586   9.431   0.076   1.461 -0.0537  0.0902  0.1247
22873SOL    HW177587   9.481   0.126   1.397  0.2054 -2.0708 -1.5155
22873SOL    HW277588   9.416  -0.009   1.417 -2.8975 -0.2659  1.5682
22874SOL     OW77589   4.014   0.054  11.189  0.4400 -0.0520 -0.2591
22874SOL    HW177590   4.052   0.007  11.114 -0.2527  0.1733 -0.7645
22874SOL    HW277591   4.090   0.083  11.240  0.9007 -0.8473 -0.4786
22875SOL     OW77592  10.842   0.348   6.433 -0.2590 -0.1744  0.1996
22875SOL    HW177593  10.763   0.367   6.382 -0.3675  0.9767  0.7564
22875SOL    HW277594  10.808   0.326   6.520  0.0415  1.0768  0.6542
22876SOL     OW77595   7.451   6.951   4.329 -0.3176 -0.2555 -0.4514
22876SOL    HW177596   7.457   6.881   4.264 -1.5360 -2.2175  1.3993
22876SOL    HW277597   7.359   6.978   4.326 -0.5700 -0.8867  0.8967
22877SOL     OW77598  12.528   4.455   0.116  0.4158 -0.0048  0.0420
22877SOL    HW177599  12.487   4.377   0.155 -3.1325  1.0452 -1.1827
22877SOL    HW277600  12.574   4.422   0.039 -0.7143 -0.9611 -0.2514
22878SOL     OW77601  12.146   7.644   4.096 -0.7235 -0.5233 -0.0544
22878SOL    HW177602  12.128   7.713   4.159  1.4168 -1.0236  1.2009
22878SOL    HW277603  12.091   7.571   4.124  1.5337 -1.3871  2.5100
22879SOL     OW77604   9.661  12.494   3.448 -0.0430 -0.1483  0.2250
22879SOL    HW177605   9.579  12.491   3.398 -0.1722 -0.1096  0.4322
22879SOL    HW277606   9.722  12.440   3.397 -0.2289 -0.2661  0.1266
22880SOL     OW77607   1.156   2.442   1.752  0.4610  0.1852  0.5847
22880SOL    HW177608   1.158   2.453   1.848  0.2916 -0.4385  0.6651
22880SOL    HW277609   1.102   2.514   1.721 -1.0998 -0.6715  1.1424
22881SOL     OW77610   4.606   1.818   8.098  0.1643  0.5093  0.2412
22881SOL    HW177611   4.535   1.807   8.161 -0.1857 -0.6225 -0.3329
22881SOL    HW277612   4.594   1.906   8.063  0.1798  1.0421  1.5162
22882SOL     OW77613   5.651   2.270   4.429 -0.0273 -0.2024 -0.9413
22882SOL    HW177614   5.628   2.184   4.393 -0.9179 -0.9778  1.2857
22882SOL    HW277615   5.747   2.270   4.434 -0.0210 -1.0515 -1.0300
22883SOL     OW77616   3.849   4.632   1.874  0.6602  0.7177 -0.1403
22883SOL    HW177617   3.904   4.580   1.932  0.4951  0.9435  0.2237
22883SOL    HW277618   3.790   4.569   1.833 -0.1124  0.7151  0.9366
22884SOL     OW77619  12.011   9.698  11.873  0.4532 -0.4123  0.5547
22884SOL    HW177620  11.949   9.698  11.945  0.1537 -0.3642  0.2983
22884SOL    HW277621  12.068   9.774  11.890  0.7035 -0.6952  1.0074
22885SOL     OW77622  10.248   3.050   8.332  0.3526  0.1257 -0.2365
22885SOL    HW177623  10.288   3.047   8.419  1.4419  0.9322 -0.6867
22885SOL    HW277624  10.163   3.007   8.343  1.8360 -2.8810  0.4734
22886SOL     OW77625   1.640   3.638  11.261  0.0032  0.5650 -0.1175
22886SOL    HW177626   1.649   3.707  11.195  1.7811 -0.1864 -0.7160
22886SOL    HW277627   1.681   3.674  11.339  1.4001  0.0452 -0.5781
22887SOL     OW77628   6.364   3.837   9.316 -0.2856  0.1914 -0.2919
22887SOL    HW177629   6.275   3.805   9.305 -0.0752 -1.2213  1.4461
22887SOL    HW277630   6.373   3.850   9.411  1.0030  1.3954 -0.5489
22888SOL     OW77631   4.806  11.391   4.733 -0.2767 -0.1145  0.6333
22888SOL    HW177632   4.729  11.431   4.772 -0.3797 -0.9122  1.2937
22888SOL    HW277633   4.861  11.464   4.705  0.0774  0.5341  2.8358
22889SOL     OW77634   7.255   8.478  11.364  0.1443 -0.5175  0.1885
22889SOL    HW177635   7.290   8.469  11.276  0.3627 -0.4370  0.2668
22889SOL    HW277636   7.330   8.504  11.418  0.0312 -0.6448  0.4126
22890SOL     OW77637   5.224   7.543   0.765  0.2690 -0.1115  0.4518
22890SOL    HW177638   5.144   7.587   0.738  0.4991  0.9093  1.3643
22890SOL    HW277639   5.194   7.469   0.819 -0.1039 -0.8710 -0.7706
22891SOL     OW77640   9.216  12.586  11.046  0.3264 -0.2778 -0.0260
22891SOL    HW177641   9.252  12.518  11.104  0.4955  0.3325  0.6066
22891SOL    HW277642   9.273  12.662  11.060  0.2508 -0.0575 -0.8605
22892SOL     OW77643   6.239  11.812   5.227 -0.7823 -0.2645 -0.2701
22892SOL    HW177644   6.280  11.731   5.259  0.7003  0.4338 -0.3710
22892SOL    HW277645   6.286  11.882   5.271 -0.8458  0.6137 -1.5677
22893SOL     OW77646   9.642  10.919   7.072  0.0702 -0.2579 -0.4203
22893SOL    HW177647   9.588  10.874   7.007  0.2873 -0.8047 -0.2214
22893SOL    HW277648   9.732  10.905   7.043  0.2269 -1.3489  0.5200
22894SOL     OW77649  11.681   3.355  10.873 -0.3073  0.0504  0.0132
22894SOL    HW177650  11.740   3.425  10.902 -1.0378  0.3676  0.7680
22894SOL    HW277651  11.739   3.286  10.841  0.5071  0.0807  1.3413
22895SOL     OW77652   6.152   2.297   9.697 -0.0381  0.2516 -0.5382
22895SOL    HW177653   6.103   2.304   9.615  0.4800  1.6929 -0.7645
22895SOL    HW277654   6.105   2.353   9.758 -0.3342 -0.6979  0.1219
22896SOL     OW77655  11.783  11.016   7.488  0.5797 -0.0620  0.1793
22896SOL    HW177656  11.811  11.092   7.436 -0.2186  0.2059  0.1136
22896SOL    HW277657  11.845  10.947   7.467  1.3468  0.5896  0.2697
22897SOL     OW77658   0.442   3.194   7.802 -0.1356  0.0551  0.1510
22897SOL    HW177659   0.519   3.224   7.755 -0.7655  1.0454 -0.2712
22897SOL    HW277660   0.476   3.129   7.864  0.7678 -0.9468 -1.3321
22898SOL     OW77661   0.641   2.060   7.555 -0.0283  0.4886  0.8535
22898SOL    HW177662   0.733   2.068   7.527 -0.5352 -0.5766 -1.3197
22898SOL    HW277663   0.613   2.150   7.569  0.4390  1.1469 -1.8211
22899SOL     OW77664   5.699  11.789   2.775 -0.3711  0.0456 -0.0817
22899SOL    HW177665   5.605  11.792   2.757 -0.0324  0.5479 -1.8967
22899SOL    HW277666   5.738  11.851   2.714  1.0712  0.6175  1.3361
22900SOL     OW77667   4.266   7.827   4.228 -0.2168 -0.2528 -0.4340
22900SOL    HW177668   4.229   7.778   4.155 -2.0142 -1.9442  1.5111
22900SOL    HW277669   4.192   7.845   4.285  1.1288  1.0351  0.9966
22901SOL     OW77670   2.835  11.361   0.412 -0.6216  0.3926 -0.3994
22901SOL    HW177671   2.886  11.423   0.464  0.4753 -0.8795  0.1144
22901SOL    HW277672   2.782  11.314   0.476 -1.9476  1.2105 -0.8565
22902SOL     OW77673   6.437   8.918   3.572  0.4907 -0.0533 -0.1473
22902SOL    HW177674   6.521   8.929   3.616 -0.3649 -1.9156  2.1556
22902SOL    HW277675   6.387   8.996   3.596  1.7739  1.5813 -2.3638
22903SOL     OW77676   4.276   7.810   5.662  0.0000 -0.1049  0.2050
22903SOL    HW177677   4.274   7.844   5.572  0.1461 -1.1713 -0.2160
22903SOL    HW277678   4.194   7.840   5.701 -0.5682 -0.5287 -0.6316
22904SOL     OW77679   3.218  11.515   7.783  0.2631  0.3417  0.1930
22904SOL    HW177680   3.215  11.455   7.709 -0.4657  1.1974 -0.4863
22904SOL    HW277681   3.143  11.491   7.837  2.3686 -2.2481  2.2970
22905SOL     OW77682   9.299   4.103   8.217 -0.3602  0.1206  0.0780
22905SOL    HW177683   9.266   4.167   8.280 -2.6047 -0.3259 -0.5611
22905SOL    HW277684   9.311   4.153   8.136  1.4065  0.4470  0.4999
22906SOL     OW77685  10.006   6.057   2.963  0.5044 -0.3816  0.6217
22906SOL    HW177686  10.015   5.984   3.025 -1.5098 -1.5924 -0.3884
22906SOL    HW277687   9.911   6.064   2.948  0.8525  0.3183 -1.7480
22907SOL     OW77688  10.075   8.459   1.570 -0.0322  0.5990  0.7137
22907SOL    HW177689  10.024   8.506   1.635  0.4857 -1.8617  3.0652
22907SOL    HW277690  10.165   8.486   1.585 -0.0090  0.7037  0.3966
22908SOL     OW77691   6.106   6.128   8.499 -0.5689 -0.4761 -0.0698
22908SOL    HW177692   6.040   6.058   8.494  1.9388 -2.9566 -0.8433
22908SOL    HW277693   6.082   6.188   8.428 -2.1865 -1.0641 -0.0694
22909SOL     OW77694   2.559   2.136   5.053  0.4280 -0.1367 -0.6458
22909SOL    HW177695   2.640   2.117   5.101  0.5704  1.1304 -0.3605
22909SOL    HW277696   2.588   2.152   4.963  1.0316  3.7254  0.0679
22910SOL     OW77697   6.703  10.664   4.367  0.3467  0.4945 -0.2148
22910SOL    HW177698   6.736  10.727   4.303 -1.9455 -0.7639 -2.8814
22910SOL    HW277699   6.630  10.709   4.410 -0.9495 -0.0256 -1.7455
22911SOL     OW77700   4.004   8.180  11.282 -0.0453  0.4215  0.1903
22911SOL    HW177701   4.003   8.177  11.378  0.0937 -0.1439  0.1823
22911SOL    HW277702   3.935   8.118  11.256  0.6495 -0.2563 -0.0721
22912SOL     OW77703   8.161   2.279   9.685 -0.3016 -0.1928  0.9337
22912SOL    HW177704   8.217   2.288   9.762  0.7796  1.7429 -0.0290
22912SOL    HW277705   8.077   2.316   9.712 -0.5411 -1.2802  1.7527
22913SOL     OW77706   5.763   9.153   5.395  0.1948  0.2357  0.1091
22913SOL    HW177707   5.722   9.069   5.415  0.6501 -0.7131 -2.5178
22913SOL    HW277708   5.711   9.218   5.442 -2.5042 -1.1676 -0.7641
22914SOL     OW77709  11.753   9.241   3.092 -0.1884  0.1121  0.7209
22914SOL    HW177710  11.799   9.295   3.157 -1.9519  0.5524  1.6866
22914SOL    HW277711  11.818   9.177   3.064  0.4357 -0.7516  3.6929
22915SOL     OW77712   6.664   9.940   4.125  0.4830 -0.7410 -0.1827
22915SOL    HW177713   6.591   9.887   4.156  0.2658 -0.2054  0.2343
22915SOL    HW277714   6.629  10.029   4.122  1.2413 -0.4149  0.4109
22916SOL     OW77715  10.092   0.188   0.571 -0.6654  0.3414  0.1636
22916SOL    HW177716  10.163   0.178   0.509 -1.0332 -0.0410 -0.2040
22916SOL    HW277717  10.099   0.279   0.602  1.2973 -0.2921  1.7856
22917SOL     OW77718   5.117   3.863   4.919  0.4726 -0.8024  0.1575
22917SOL    HW177719   5.050   3.797   4.935  0.9076 -1.4144 -0.5160
22917SOL    HW277720   5.197   3.824   4.953  0.4709  0.0176  1.1642
22918SOL     OW77721   6.107   0.813   6.764  0.0439  0.2577 -0.2472
22918SOL    HW177722   6.120   0.720   6.742  1.3567  0.6473 -1.2769
22918SOL    HW277723   6.036   0.841   6.706  0.0283  0.0358 -0.3392
22919SOL     OW77724   5.115   2.776   2.771  0.1407 -0.0775 -0.2541
22919SOL    HW177725   5.096   2.782   2.677 -0.0695  2.7860 -0.1343
22919SOL    HW277726   5.177   2.705   2.779 -0.6530 -1.1001 -2.4170
22920SOL     OW77727   5.220   6.450   4.566  0.2538  0.0623 -0.7055
22920SOL    HW177728   5.192   6.412   4.649  1.0468  0.0974 -0.4120
22920SOL    HW277729   5.230   6.374   4.508  0.3517 -0.0295 -0.5701
22921SOL     OW77730   5.031   8.951  10.110 -0.0609  0.1716 -0.2165
22921SOL    HW177731   5.084   9.012  10.058  1.7956  1.5212  2.9560
22921SOL    HW277732   4.978   9.008  10.166 -0.0312 -1.1280  1.1908
22922SOL     OW77733   1.978   7.080   1.163  0.1552 -0.1861  0.1418
22922SOL    HW177734   1.938   7.116   1.242  0.7488 -2.2095  1.4278
22922SOL    HW277735   2.049   7.141   1.142 -1.3283  1.5363 -0.1469
22923SOL     OW77736  10.587   5.595  11.382 -0.1697  0.0961 -0.2826
22923SOL    HW177737  10.621   5.640  11.458 -0.0845 -0.7000  0.1570
22923SOL    HW277738  10.658   5.598  11.318 -0.5934  1.6572 -0.7274
22924SOL     OW77739   7.504  12.166  11.564 -0.4893 -0.2383 -0.0625
22924SOL    HW177740   7.474  12.257  11.558 -0.3440 -0.2637 -1.4037
22924SOL    HW277741   7.501  12.147  11.658 -0.7397  1.0740  0.2273
22925SOL     OW77742  12.412   9.452   2.510 -0.4170 -0.2645 -0.2131
22925SOL    HW177743  12.361   9.373   2.530 -1.1005  0.7944  2.9015
22925SOL    HW277744  12.348   9.513   2.474 -0.7221  0.0107  0.7509
22926SOL     OW77745   5.425   8.754   2.759  0.4351 -0.0156  0.0524
22926SOL    HW177746   5.389   8.784   2.843 -1.9064  0.9751 -1.2068
22926SOL    HW277747   5.473   8.829   2.725  1.1394 -0.3238  0.3366
22927SOL     OW77748   8.745  12.280   5.177 -0.1159  0.1803  0.1541
22927SOL    HW177749   8.707  12.277   5.265 -0.4358  2.2118  0.1225
22927SOL    HW277750   8.670  12.285   5.118  0.1266 -0.0609 -0.1850
22928SOL     OW77751   0.575   4.231   6.519  0.2934 -0.4266  0.0908
22928SOL    HW177752   0.565   4.326   6.521 -0.1309 -0.4784  0.8231
22928SOL    HW277753   0.597   4.211   6.428  2.1993  0.5480  0.2824
22929SOL     OW77754   5.925   8.811   5.391 -0.1720  1.7325 -0.7381
22929SOL    HW177755   5.838   8.850   5.396 -0.3195  1.2896  0.3112
22929SOL    HW277756   5.949   8.819   5.299 -1.5806  1.2965 -1.1767
22930SOL     OW77757   6.149   1.500  12.146  0.4608 -0.4912  0.2613
22930SOL    HW177758   6.065   1.478  12.187 -0.0020  0.8339  0.0519
22930SOL    HW277759   6.135   1.485  12.053  0.1922  0.4796  0.1349
22931SOL     OW77760   0.133  11.227   6.355  0.3916 -0.6095  0.0276
22931SOL    HW177761   0.098  11.146   6.393  0.4661 -1.1584 -1.0107
22931SOL    HW277762   0.057  11.268   6.313  0.9033 -1.8481 -2.3109
22932SOL     OW77763   3.483   9.622   9.207  0.3422  0.1827 -0.8262
22932SOL    HW177764   3.538   9.671   9.268  0.7822 -0.3305 -0.8084
22932SOL    HW277765   3.500   9.530   9.228  1.3044 -0.0261 -2.4414
22933SOL     OW77766   9.543   3.310   5.696 -0.7429 -0.4881 -0.0416
22933SOL    HW177767   9.465   3.264   5.726 -1.0973 -1.2533 -2.0019
22933SOL    HW277768   9.594   3.325   5.775 -2.2335 -1.1941  1.0913
22934SOL     OW77769   5.317   7.854   2.329 -0.1118  0.0874 -0.1229
22934SOL    HW177770   5.238   7.858   2.275 -0.7479  1.8039  0.8617
22934SOL    HW277771   5.284   7.852   2.419  0.9679  0.3184  0.2855
22935SOL     OW77772   6.547   6.872   5.385 -0.1645 -0.2644  0.4788
22935SOL    HW177773   6.468   6.829   5.417 -0.1864 -0.1871  0.5305
22935SOL    HW277774   6.516   6.955   5.349 -0.1558 -0.4067  0.1384
22936SOL     OW77775   9.152  10.380   8.423  0.0796  0.4552  0.0833
22936SOL    HW177776   9.241  10.415   8.430  0.0897  1.3834 -3.0145
22936SOL    HW277777   9.102  10.451   8.382 -1.6984 -0.6333  0.2699
22937SOL     OW77778   3.727  11.167   3.330 -0.3647 -0.0002  0.2926
22937SOL    HW177779   3.644  11.186   3.372  0.8894  3.3015  1.6079
22937SOL    HW277780   3.742  11.241   3.271  1.8964 -0.2164  0.5147
22938SOL     OW77781   4.005   4.958   0.893 -0.1928 -0.0455 -0.0270
22938SOL    HW177782   3.917   4.934   0.921  0.3333  0.0293  1.8417
22938SOL    HW277783   4.058   4.879   0.905  0.3182  0.3562  0.4778
22939SOL     OW77784  11.947  12.024   2.682  0.1314 -0.0296 -0.2299
22939SOL    HW177785  11.900  12.055   2.759 -0.3622  0.1497 -0.5953
22939SOL    HW277786  11.914  12.078   2.610  0.2705 -0.4821 -0.6408
22940SOL     OW77787   6.247   2.051   9.708  0.1439 -0.2320 -0.1727
22940SOL    HW177788   6.287   2.028   9.791  1.9897  0.9675 -0.6636
22940SOL    HW277789   6.230   2.145   9.715 -1.6218 -0.5015 -0.4102
22941SOL     OW77790   3.952   4.756  12.527  0.1816 -0.3759 -0.0786
22941SOL    HW177791   3.996   4.814  12.588  0.8188 -1.2921  0.3472
22941SOL    HW277792   3.906   4.815  12.466  1.2299  0.5711  0.0274
22942SOL     OW77793   7.249   0.803   4.493  0.3674  0.2204  0.2225
22942SOL    HW177794   7.162   0.835   4.515  0.1784  0.9600 -1.4916
22942SOL    HW277795   7.235   0.713   4.464  0.3512 -0.0576  1.0605
22943SOL     OW77796   1.897   9.790   2.990  0.1020 -0.6172  0.5613
22943SOL    HW177797   1.873   9.754   2.904  2.2890 -0.7551 -0.0554
22943SOL    HW277798   1.948   9.720   3.031  1.3757  0.4404  0.8282
22944SOL     OW77799   3.541  10.427  10.341 -0.2413  0.1961  0.5874
22944SOL    HW177800   3.574  10.455  10.256 -1.1316  0.6870  0.3927
22944SOL    HW277801   3.619  10.405  10.392  0.3384  0.7118 -0.0710
22945SOL     OW77802   0.716  11.079   1.142  0.0361  0.1903  0.6507
22945SOL    HW177803   0.751  11.059   1.229  0.5169  3.3482  1.3306
22945SOL    HW277804   0.622  11.062   1.149  0.2227 -0.5403  1.4802
22946SOL     OW77805  12.549   1.380   8.163 -0.1245 -0.1055 -0.0895
22946SOL    HW177806  12.471   1.411   8.209 -0.3180  0.3067 -0.7025
22946SOL    HW277807  12.516   1.317   8.099  0.1131 -0.3829  0.0543
22947SOL     OW77808  10.947  10.510   3.328 -0.4383 -0.4934  0.4446
22947SOL    HW177809  10.866  10.508   3.380  0.2591  0.0112  1.5741
22947SOL    HW277810  10.931  10.579   3.264 -0.8669 -0.3150  0.7337
22948SOL     OW77811   2.942   4.922  11.426  0.6519 -0.4820  0.1591
22948SOL    HW177812   3.003   4.981  11.382  0.9664 -0.6449  0.3793
22948SOL    HW277813   2.941   4.843  11.372  0.2705 -0.3013 -0.1069
22949SOL     OW77814   1.909   5.978   2.418  0.1937  0.0194  0.5962
22949SOL    HW177815   1.897   6.073   2.413  0.6871  0.3982  4.0694
22949SOL    HW277816   1.990   5.962   2.369  0.6547  1.5589  0.7857
22950SOL     OW77817   6.408   2.143   2.796  0.1141  0.4854  0.1611
22950SOL    HW177818   6.349   2.069   2.810 -0.2264  1.0421  1.9994
22950SOL    HW277819   6.491   2.115   2.836  0.5131  0.4436 -0.6834
22951SOL     OW77820   5.933   2.310   2.742  0.1074 -0.3660 -0.0964
22951SOL    HW177821   6.019   2.343   2.768 -0.0339  1.7633 -2.0322
22951SOL    HW277822   5.949   2.266   2.659 -0.3623 -2.0155  0.6450
22952SOL     OW77823  10.508   7.981   8.235  0.1522  0.1654 -0.5291
22952SOL    HW177824  10.536   7.974   8.326 -1.6283  1.7967  0.2077
22952SOL    HW277825  10.567   8.046   8.196  0.6847 -0.2691 -0.4532
22953SOL     OW77826   0.047  11.850  12.489 -0.2460  0.2620 -0.2441
22953SOL    HW177827   0.031  11.840  12.395 -1.4247  0.7451 -0.1149
22953SOL    HW277828   0.003  11.932  12.512 -0.7155 -0.2785  0.8820
22954SOL     OW77829  12.525   6.016   1.831 -0.1318 -0.6039 -0.2592
22954SOL    HW177830  12.473   5.976   1.761  1.0065 -2.0512 -0.3291
22954SOL    HW277831  12.568   5.942   1.874  2.5538  0.5681 -0.7706
22955SOL     OW77832   5.424   7.528   5.546  0.2377  0.0454 -0.0027
22955SOL    HW177833   5.450   7.440   5.521 -1.7727 -0.0489 -2.0038
22955SOL    HW277834   5.361   7.515   5.617 -0.8687 -0.2069 -1.0180
22956SOL     OW77835   2.059   1.619  12.478  0.3216  0.0134  0.3580
22956SOL    HW177836   2.108   1.583  12.552  0.6540 -0.2705  0.0033
22956SOL    HW277837   2.062   1.550  12.412  0.7034  0.5679 -0.2190
22957SOL     OW77838   7.753   2.966   3.721  0.0865 -0.1832 -0.0153
22957SOL    HW177839   7.709   2.982   3.638 -0.2484 -0.6815  0.0598
22957SOL    HW277840   7.729   3.040   3.776  1.6772  1.0399 -0.8895
22958SOL     OW77841   3.527   8.846  12.467  0.3911  0.1471  0.0713
22958SOL    HW177842   3.516   8.866  12.560 -0.7971  0.5670 -0.1360
22958SOL    HW277843   3.441   8.814  12.440  0.0170  2.1842 -1.3864
22959SOL     OW77844   4.158  11.195   1.879 -1.4066 -0.7971  0.3367
22959SOL    HW177845   4.246  11.167   1.854 -0.0797  1.1509  2.3822
22959SOL    HW277846   4.144  11.277   1.831 -1.6652 -0.5833  0.7610
22960SOL     OW77847   5.087   4.203   9.424 -0.0987  0.0683  0.0601
22960SOL    HW177848   5.124   4.176   9.340  2.2841  0.4914  0.9034
22960SOL    HW277849   5.121   4.140   9.487 -1.4025  0.0799  0.8187
22961SOL     OW77850   5.128   8.936  10.945 -0.3119  0.1822 -0.0566
22961SOL    HW177851   5.128   9.031  10.960  3.9653  0.1735  1.3350
22961SOL    HW277852   5.060   8.903  11.004 -1.2836  2.2412  0.0889
22962SOL     OW77853   6.123   0.839  12.580  0.1166  0.2789  0.0626
22962SOL    HW177854   6.060   0.768  12.571 -1.4906  1.4745  1.3735
22962SOL    HW277855   6.073   0.919  12.566  1.6717  1.2331 -0.3818
22963SOL     OW77856   7.785   6.453  10.705 -0.4821  0.5743 -0.4642
22963SOL    HW177857   7.744   6.450  10.792 -1.6580 -0.6044 -1.0382
22963SOL    HW277858   7.792   6.362  10.678  0.8907  0.8612 -1.1772
22964SOL     OW77859   5.320   2.516   7.090 -0.0844 -0.2250 -0.0289
22964SOL    HW177860   5.385   2.449   7.071  1.6663  1.1512  0.8401
22964SOL    HW277861   5.364   2.599   7.074 -1.3946  0.7780  1.2403
22965SOL     OW77862   1.794   8.777   7.139 -0.3415  0.7038 -0.0251
22965SOL    HW177863   1.701   8.767   7.159 -0.2370 -0.9195 -0.1888
22965SOL    HW277864   1.797   8.803   7.047 -0.6386  1.4592  0.1708
22966SOL     OW77865  11.725   3.954   8.765  0.0437  0.3090  0.0013
22966SOL    HW177866  11.665   4.019   8.801  1.8218  2.0232  0.0521
22966SOL    HW277867  11.812   3.993   8.776  1.1307 -1.7868 -0.6386
22967SOL     OW77868   9.891   9.101   5.542 -0.3762 -0.7393 -0.0760
22967SOL    HW177869   9.970   9.098   5.488 -1.2792  0.4146 -1.5408
22967SOL    HW277870   9.831   9.039   5.500 -1.0744  0.1348 -0.4045
22968SOL     OW77871   6.379   7.284   2.623 -0.7565 -0.3638  0.3656
22968SOL    HW177872   6.378   7.330   2.540 -0.6872 -0.8950  0.0620
22968SOL    HW277873   6.434   7.337   2.680 -1.1850  0.2493  0.2235
22969SOL     OW77874   0.908   9.570   8.639 -0.3223  0.0098 -0.3014
22969SOL    HW177875   0.974   9.566   8.570  0.6808 -1.4653  0.7007
22969SOL    HW277876   0.842   9.505   8.614  0.0348 -0.5163  0.1035
22970SOL     OW77877   5.546   5.149   7.788 -0.0820 -0.6440  0.2557
22970SOL    HW177878   5.631   5.169   7.825  0.2935 -1.5389 -0.1050
22970SOL    HW277879   5.535   5.212   7.717  0.0538 -0.2054  0.6217
22971SOL     OW77880   0.112   9.272   7.636  0.1208  0.1050 -0.1079
22971SOL    HW177881   0.185   9.334   7.647  1.5658 -0.9382 -2.8493
22971SOL    HW277882   0.127   9.233   7.550 -2.4474 -1.8600  0.2286
22972SOL     OW77883  10.915   5.097   8.955  0.0454  0.0521 -0.4758
22972SOL    HW177884  10.838   5.153   8.943 -0.3422 -0.3967 -0.1218
22972SOL    HW277885  10.883   5.009   8.940  0.3795 -0.1864  0.1775
22973SOL     OW77886   2.585   6.551   6.637 -0.4499 -0.7798 -0.7095
22973SOL    HW177887   2.668   6.565   6.592 -1.1361 -0.8425 -2.0378
22973SOL    HW277888   2.565   6.635   6.678  0.4297 -0.8687 -0.0750
22974SOL     OW77889   9.103  11.866   4.780 -0.3663  0.2497  0.2337
22974SOL    HW177890   9.027  11.819   4.814 -0.0609 -0.2718  0.1951
22974SOL    HW277891   9.071  11.956   4.766 -1.2381 -0.1834 -0.6687
22975SOL     OW77892   9.821   6.550   9.918 -0.1571 -0.1333 -0.0652
22975SOL    HW177893   9.796   6.641   9.934  1.1629  0.3973 -0.8440
22975SOL    HW277894   9.832   6.512  10.006  2.9084  1.5463  0.4220
22976SOL     OW77895  11.224   1.923   3.115  0.3508  0.0545  0.2655
22976SOL    HW177896  11.130   1.930   3.098  0.0636  0.7515  1.9088
22976SOL    HW277897  11.247   1.835   3.086 -0.7907 -0.0918 -0.2449
22977SOL     OW77898   9.577   0.664   7.691 -0.2684  0.4628 -0.5791
22977SOL    HW177899   9.604   0.585   7.737 -1.6699  1.1595  1.5939
22977SOL    HW277900   9.532   0.632   7.613  0.4193 -0.8202 -0.4771
22978SOL     OW77901   2.340  10.123  11.247 -0.9496 -0.5240  0.3834
22978SOL    HW177902   2.401  10.122  11.321  0.1999 -1.7199 -0.5337
22978SOL    HW277903   2.292  10.041  11.254 -0.6198 -0.7915 -0.3469
22979SOL     OW77904   2.670  12.018   1.569  0.0523 -0.0492  1.1897
22979SOL    HW177905   2.748  11.971   1.600  0.3704 -0.8603 -0.6822
22979SOL    HW277906   2.690  12.110   1.583 -0.4862 -0.3309  4.7596
22980SOL     OW77907  10.819   4.541   8.035 -0.1368  0.3206 -0.1553
22980SOL    HW177908  10.756   4.523   8.105 -0.1309 -1.1810 -0.5074
22980SOL    HW277909  10.844   4.633   8.049 -2.1936  0.9025  0.1578
22981SOL     OW77910  12.554   1.469   4.330 -0.2606 -0.3039  0.2932
22981SOL    HW177911  12.509   1.484   4.413 -1.4551  0.7294 -0.5103
22981SOL    HW277912  12.506   1.396   4.290  0.3863 -0.8769  0.5300
22982SOL     OW77913   4.011  12.586   0.730  0.2256  0.3037 -0.2442
22982SOL    HW177914   4.033  12.637   0.808 -0.5985 -0.0200  0.2168
22982SOL    HW277915   3.927  12.544   0.752 -0.1530  0.4263 -1.4130
22983SOL     OW77916   5.842  12.564  11.322 -0.2264 -0.2656  0.2017
22983SOL    HW177917   5.841  12.658  11.303  0.3096  0.1212  1.8983
22983SOL    HW277918   5.890  12.557  11.404 -1.1192 -1.9460  0.6224
22984SOL     OW77919   6.458   3.750   0.767  0.4304 -0.8464 -0.1324
22984SOL    HW177920   6.373   3.774   0.731  0.0088  0.7866  1.8254
22984SOL    HW277921   6.487   3.677   0.712 -1.3576 -0.2322 -2.0215
22985SOL     OW77922   7.805   0.100   6.627 -0.1912 -0.4442  0.3504
22985SOL    HW177923   7.752   0.164   6.675 -0.9658  0.2026 -1.2903
22985SOL    HW277924   7.750   0.022   6.623 -0.7230 -0.0300 -0.6791
22986SOL     OW77925   0.737   4.519   3.099  0.4639  0.0035  0.0356
22986SOL    HW177926   0.802   4.572   3.145  1.2801  1.1361 -2.2708
22986SOL    HW277927   0.789   4.459   3.045 -0.4232 -0.5985 -0.1712
22987SOL     OW77928  10.910   9.731   3.666  0.0114 -0.6070 -0.0810
22987SOL    HW177929  10.923   9.820   3.632 -0.5870 -1.2936 -2.2820
22987SOL    HW277930  10.996   9.704   3.697  0.6608  0.0175 -1.2702
22988SOL     OW77931   0.600  12.301   3.785  0.1235 -0.5417 -0.0308
22988SOL    HW177932   0.571  12.391   3.797  0.9900 -0.1748 -0.6320
22988SOL    HW277933   0.614  12.269   3.874  1.0299  0.3302  0.1564
22989SOL     OW77934   5.986   6.276   7.989  0.1438 -0.5625  0.2289
22989SOL    HW177935   5.997   6.207   7.924  0.1133 -1.1569  0.8453
22989SOL    HW277936   6.049   6.343   7.964  1.0891 -1.3819  0.3608
22990SOL     OW77937   3.137   7.157   0.686  0.1604  0.6566  0.1889
22990SOL    HW177938   3.193   7.085   0.713 -0.1179  0.2944 -0.1957
22990SOL    HW277939   3.197   7.229   0.666  0.6852 -0.4614 -2.5957
22991SOL     OW77940   0.393  10.169   9.687  0.1740  0.3675 -0.2077
22991SOL    HW177941   0.451  10.147   9.615  0.6110 -1.6295  0.6759
22991SOL    HW277942   0.450  10.208   9.754  0.3270 -0.5592  0.2174
22992SOL     OW77943   4.307  11.789   3.170  0.3877  0.3259  0.5782
22992SOL    HW177944   4.326  11.830   3.254 -0.3052 -0.1882  0.9899
22992SOL    HW277945   4.362  11.711   3.169  0.3587  0.3063  0.5675
22993SOL     OW77946   2.507  11.577   7.799  0.6835  0.1174 -0.0795
22993SOL    HW177947   2.451  11.560   7.874 -0.2127 -0.1846 -0.8093
22993SOL    HW277948   2.496  11.671   7.782 -0.9304 -0.2567 -1.2551
22994SOL     OW77949   6.310  11.665   5.005  0.1874 -0.0162  0.1621
22994SOL    HW177950   6.302  11.617   5.088 -1.6061 -0.7717 -0.4083
22994SOL    HW277951   6.250  11.739   5.015 -0.4618 -0.4292 -0.6882
22995SOL     OW77952   9.014   9.346   3.158 -0.1745  0.0651  0.1618
22995SOL    HW177953   8.978   9.259   3.175 -0.6776 -0.1047 -1.5959
22995SOL    HW277954   8.945   9.406   3.184 -0.7163 -0.1652 -0.7068
22996SOL     OW77955   8.155  11.152   0.368  0.2837  0.8293 -0.6111
22996SOL    HW177956   8.076  11.103   0.344  1.3077 -1.2749  0.1031
22996SOL    HW277957   8.181  11.195   0.287 -0.5119 -0.0390 -1.3571
22997SOL     OW77958   2.952   0.261   1.469 -0.3914  0.2030  0.1589
22997SOL    HW177959   3.031   0.215   1.497 -0.0506  1.4140  1.2728
22997SOL    HW277960   2.889   0.191   1.452  0.1920 -0.7051  1.5077
22998SOL     OW77961  11.411   8.069   9.639  0.2787  0.0338 -0.2640
22998SOL    HW177962  11.358   8.114   9.573 -0.0589 -0.6986 -0.5005
22998SOL    HW277963  11.500   8.073   9.604 -0.0658 -1.5050 -1.4610
22999SOL     OW77964   5.050   5.322   5.305 -0.5881 -0.2612 -0.0680
22999SOL    HW177965   5.070   5.273   5.226  1.5986  0.3974  0.0190
22999SOL    HW277966   4.955   5.331   5.305 -0.8279 -2.3887 -1.3179
23000SOL     OW77967   1.850   7.453   1.275  1.2110  0.1577 -0.1849
23000SOL    HW177968   1.891   7.500   1.203 -1.0176  0.2072 -1.4996
23000SOL    HW277969   1.808   7.521   1.328 -1.5805 -0.1518 -1.8074
23001SOL     OW77970   6.573   8.354   1.339 -0.5952 -0.1903  0.1923
23001SOL    HW177971   6.633   8.332   1.411 -2.0298 -0.7048  1.2895
23001SOL    HW277972   6.628   8.353   1.261  1.0514  0.5157  1.2784
23002SOL     OW77973   1.768   1.297   1.816 -0.2295  0.1909  0.2981
23002SOL    HW177974   1.730   1.266   1.734  0.0546 -0.5408  0.4379
23002SOL    HW277975   1.810   1.380   1.792 -1.9298  1.0472  0.1643
23003SOL     OW77976   9.491  12.356  11.840 -0.0967 -0.6586 -0.7446
23003SOL    HW177977   9.509  12.415  11.767  2.5624 -0.4751 -0.0297
23003SOL    HW277978   9.397  12.368  11.858 -0.3541  0.8479 -2.7154
23004SOL     OW77979   3.197   6.554   5.246 -0.5027 -0.3314  0.0566
23004SOL    HW177980   3.276   6.587   5.204 -0.3501 -0.4452  0.2572
23004SOL    HW277981   3.125   6.592   5.195 -0.3288  0.3400  0.3045
23005SOL     OW77982   0.823  10.032   2.255 -0.6625 -0.1352 -0.3437
23005SOL    HW177983   0.739  10.009   2.295  0.0675  0.5518  1.7047
23005SOL    HW277984   0.877   9.953   2.264 -0.9085 -0.4013 -1.1722
23006SOL     OW77985  11.761   2.978   3.225 -0.5279  0.2208 -0.2386
23006SOL    HW177986  11.716   2.969   3.309 -0.0400 -1.0283 -0.0869
23006SOL    HW277987  11.812   3.059   3.234  1.7062 -1.2343  1.7769
23007SOL     OW77988   0.888   8.142  11.218  0.6612 -0.5851 -0.5597
23007SOL    HW177989   0.970   8.162  11.263  0.2556 -0.0522 -0.0221
23007SOL    HW277990   0.871   8.219  11.164  0.3735 -0.5641 -0.4425
23008SOL     OW77991  11.009   2.540  12.489 -0.0336 -0.8322 -0.0485
23008SOL    HW177992  10.916   2.560  12.488  0.0429 -0.4676 -0.3148
23008SOL    HW277993  11.033   2.534  12.396  0.9177  2.5551 -0.1390
23009SOL     OW77994   8.667   6.415   4.216 -0.1800  0.2474 -0.7444
23009SOL    HW177995   8.734   6.476   4.246 -0.6528  0.3994  0.0186
23009SOL    HW277996   8.715   6.335   4.194  0.0962 -0.2019  1.3358
23010SOL     OW77997   5.027  10.461   5.884  0.0131  0.5328 -0.7232
23010SOL    HW177998   4.934  10.480   5.869 -0.2767 -0.2545 -0.0358
23010SOL    HW277999   5.072  10.503   5.812 -0.9852 -0.0365 -1.7157
23011SOL     OW78000   6.664   0.041  10.957  0.1178 -0.1863  0.3739
23011SOL    HW178001   6.579   0.084  10.956 -0.7055 -1.6543 -1.8258
23011SOL    HW278002   6.645  -0.049  10.983  1.1569 -0.2800  0.8529
23012SOL     OW78003   6.642  12.340   6.112  0.0973 -0.3099 -0.0869
23012SOL    HW178004   6.618  12.345   6.019 -3.0786 -1.4420  0.5513
23012SOL    HW278005   6.619  12.426   6.147 -2.8858 -1.2065  0.4022
23013SOL     OW78006   6.845   4.239   1.360  0.0491  0.0373  0.8315
23013SOL    HW178007   6.810   4.154   1.389  0.8804 -0.2300  1.0695
23013SOL    HW278008   6.829   4.298   1.434 -3.3439  0.9373 -0.4248
23014SOL     OW78009   5.192   6.711   4.546  0.2788 -0.0748  0.2503
23014SOL    HW178010   5.282   6.741   4.530  0.1540 -0.4317 -1.2537
23014SOL    HW278011   5.196   6.616   4.535 -0.1386 -0.1828  0.9626
23015SOL     OW78012  11.730   3.674   3.755 -0.1944 -0.1824 -0.1449
23015SOL    HW178013  11.666   3.691   3.824 -1.5244 -2.8325 -0.5540
23015SOL    HW278014  11.681   3.690   3.674 -0.2675 -1.7977 -0.4563
23016SOL     OW78015   8.767   4.768   5.079 -0.2214 -0.5628 -0.1446
23016SOL    HW178016   8.857   4.800   5.090 -0.1845 -0.6807 -0.1042
23016SOL    HW278017   8.735   4.758   5.168 -0.2546 -0.5775 -0.1585
23017SOL     OW78018   5.510   6.864   7.774  0.6963 -0.3590  0.0431
23017SOL    HW178019   5.495   6.770   7.784 -0.4256 -0.0565  1.5669
23017SOL    HW278020   5.452   6.891   7.704 -0.3464 -0.5174  0.8266
23018SOL     OW78021   9.010   0.656   3.812 -0.6948 -0.3525 -0.1433
23018SOL    HW178022   9.017   0.669   3.906 -0.0575 -0.1019 -0.2187
23018SOL    HW278023   9.090   0.608   3.789 -0.7017 -0.1531 -0.5972
23019SOL     OW78024  10.871   0.513   2.158 -0.0608  0.3495 -0.0832
23019SOL    HW178025  10.924   0.523   2.079 -0.7389  0.3275 -0.5446
23019SOL    HW278026  10.926   0.549   2.228 -0.1783  2.1072 -0.8375
23020SOL     OW78027   8.085  10.040  12.345  0.0503 -0.2434 -0.2483
23020SOL    HW178028   8.145  10.037  12.271  0.4176  1.7465 -0.0730
23020SOL    HW278029   8.142  10.050  12.422 -0.3700 -1.5182  0.2675
23021SOL     OW78030  11.480   3.099   7.283  0.1983  0.0773 -0.1721
23021SOL    HW178031  11.436   3.157   7.221  0.3033 -1.5776 -1.9004
23021SOL    HW278032  11.572   3.121   7.276  0.1368  0.3711 -0.0679
23022SOL     OW78033   9.273   4.625   2.467  0.2672 -0.0274 -0.5198
23022SOL    HW178034   9.353   4.610   2.417  0.4907  0.1122 -0.2061
23022SOL    HW278035   9.280   4.716   2.496 -1.1841  0.8528 -2.6297
23023SOL     OW78036   0.222   1.087   3.373  0.1090 -0.1012  0.1408
23023SOL    HW178037   0.263   1.172   3.360  0.0868  0.0776  1.1828
23023SOL    HW278038   0.141   1.106   3.420 -0.9384 -0.5053 -1.4079
23024SOL     OW78039  12.431   7.069  12.051  0.0178  0.0128  0.0688
23024SOL    HW178040  12.389   7.102  11.972 -0.7426 -0.4362  0.2720
23024SOL    HW278041  12.403   6.978  12.057  1.5835 -0.5019 -0.1427
23025SOL     OW78042   9.815   7.062   8.423  0.0603 -0.1146 -0.1871
23025SOL    HW178043   9.890   7.002   8.424 -0.3577 -0.6499 -0.0699
23025SOL    HW278044   9.814   7.101   8.510 -1.3337 -2.0975  0.7772
23026SOL     OW78045   1.639  11.118   8.382  0.0475 -0.6922  0.2920
23026SOL    HW178046   1.608  11.208   8.371  0.7681 -0.6003 -1.2118
23026SOL    HW278047   1.708  11.109   8.317 -2.1690 -3.3373 -1.9385
23027SOL     OW78048   2.186   1.596   0.790 -0.1085  0.1407 -0.2413
23027SOL    HW178049   2.160   1.602   0.699  2.7727 -1.3062 -1.2727
23027SOL    HW278050   2.171   1.505   0.813  0.7639  0.1023  0.1988
23028SOL     OW78051   3.550   8.580   9.657  0.1115 -0.1562  0.1578
23028SOL    HW178052   3.531   8.658   9.710 -0.1781 -0.6017  0.7260
23028SOL    HW278053   3.602   8.524   9.715  0.0787 -0.5070 -0.1498
23029SOL     OW78054   6.170   8.492   1.178 -0.5301  0.7708 -0.1939
23029SOL    HW178055   6.224   8.564   1.145  0.9381 -0.3318 -0.2713
23029SOL    HW278056   6.093   8.536   1.216  0.4955  2.4017  0.1079
23030SOL     OW78057  10.240   3.441  11.824  0.1549  0.5587  0.1067
23030SOL    HW178058  10.255   3.490  11.905  0.2463  3.3975 -1.5294
23030SOL    HW278059  10.271   3.498  11.754 -0.5627 -1.4976 -2.0331
23031SOL     OW78060   3.968   8.900  12.477  0.0126 -0.0140  0.0523
23031SOL    HW178061   3.916   8.964  12.428 -0.5639 -0.2686  0.3285
23031SOL    HW278062   3.906   8.860  12.538  0.5528 -0.2516  0.4551
23032SOL     OW78063   3.085   8.235   0.691 -0.5620 -0.6553  0.1445
23032SOL    HW178064   3.082   8.257   0.784 -1.3918  1.6593 -0.3511
23032SOL    HW278065   3.177   8.246   0.666 -0.1754 -2.1086  0.8155
23033SOL     OW78066   1.143   3.284   5.939  0.1167  0.0086  0.4106
23033SOL    HW178067   1.087   3.349   5.981  0.0430  1.4114 -1.6816
23033SOL    HW278068   1.187   3.332   5.869  0.9702 -1.9517 -0.4823
23034SOL     OW78069   0.683   6.647   4.237 -0.0820  0.0729 -0.0464
23034SOL    HW178070   0.609   6.707   4.231  0.5099  0.8612  0.4098
23034SOL    HW278071   0.645   6.561   4.216 -1.2629  0.3587  0.7935
23035SOL     OW78072   5.515   1.846   7.252 -0.0843  1.1058  0.2069
23035SOL    HW178073   5.553   1.879   7.170 -0.3464  1.1226  0.0926
23035SOL    HW278074   5.548   1.757   7.260 -0.7243  0.8128 -0.3445
23036SOL     OW78075   2.991  11.000   1.179 -0.0258  1.0128 -0.0244
23036SOL    HW178076   2.928  11.023   1.111 -1.4526 -0.8109  0.5903
23036SOL    HW278077   3.051  10.939   1.136 -1.3626 -0.7205  0.4520
23037SOL     OW78078   7.823  11.575   3.205  0.0480  0.2333  0.4435
23037SOL    HW178079   7.795  11.498   3.156 -2.3700  1.8982 -1.0770
23037SOL    HW278080   7.912  11.592   3.175 -0.0311 -0.9688 -0.5434
23038SOL     OW78081   3.144   5.548   7.032  0.1344 -0.2470  0.5376
23038SOL    HW178082   3.226   5.516   6.995 -1.1026  0.0423 -2.8843
23038SOL    HW278083   3.170   5.619   7.090  2.3316  0.4697 -1.1683
23039SOL     OW78084   5.714  11.517  12.115 -0.0157  0.2844 -0.1282
23039SOL    HW178085   5.684  11.457  12.183 -0.2552  0.4464 -0.0892
23039SOL    HW278086   5.723  11.463  12.037 -1.0197  0.3565 -0.2984
23040SOL     OW78087   2.268   4.245   6.128  0.1813  0.0160 -0.4492
23040SOL    HW178088   2.261   4.160   6.169  0.4893  0.5556  0.7491
23040SOL    HW278089   2.242   4.307   6.196  1.2324  0.9686 -0.8809
23041SOL     OW78090   6.263   2.711   9.481  0.1368 -0.3171 -0.3729
23041SOL    HW178091   6.315   2.766   9.423  0.3535  0.3674  0.4550
23041SOL    HW278092   6.176   2.751   9.482 -0.0794 -0.7547 -0.7885
23042SOL     OW78093   0.909   4.928   7.365 -0.3406 -0.4883  0.5877
23042SOL    HW178094   0.832   4.916   7.420  0.7334  0.3402  2.3499
23042SOL    HW278095   0.972   4.864   7.398 -0.0148 -0.6793 -0.3687
23043SOL     OW78096   1.166  11.523   1.528  0.3847 -0.3048 -0.0408
23043SOL    HW178097   1.191  11.616   1.523 -0.8641  0.1102  1.0617
23043SOL    HW278098   1.215  11.490   1.603 -1.7427  0.3591  1.7379
23044SOL     OW78099  11.682   2.718  10.871  0.1560  0.4081 -0.5862
23044SOL    HW178100  11.705   2.721  10.964 -1.6858  0.0051 -0.0848
23044SOL    HW278101  11.679   2.625  10.850 -0.0893  0.4781 -0.8657
23045SOL     OW78102   0.459   0.234   3.420 -0.5571 -0.0646 -0.0485
23045SOL    HW178103   0.429   0.262   3.333  0.3747  0.9163 -0.0738
23045SOL    HW278104   0.534   0.177   3.402  0.3150  1.0113  0.1342
23046SOL     OW78105   2.002   6.982   6.822  0.0431 -0.1915  0.7060
23046SOL    HW178106   2.022   6.926   6.896  2.8950  1.9699  1.7450
23046SOL    HW278107   1.957   7.057   6.860  1.0475  0.6924  0.2002
23047SOL     OW78108   5.145   3.422   3.300  0.0401  0.0324 -0.6604
23047SOL    HW178109   5.205   3.387   3.233  1.3296 -1.1785  1.0443
23047SOL    HW278110   5.106   3.344   3.340  0.6366  0.6132  1.1506
23048SOL     OW78111   2.362   3.793   3.117 -0.4386  0.3624 -0.1351
23048SOL    HW178112   2.282   3.816   3.071 -0.8794  0.3024  0.5895
23048SOL    HW278113   2.428   3.853   3.083 -0.9707  0.9327 -0.1635
23049SOL     OW78114   4.164   3.876   4.060 -0.3528  0.2246  0.2779
23049SOL    HW178115   4.243   3.921   4.092 -1.8984  3.3586  0.1419
23049SOL    HW278116   4.093   3.915   4.111 -2.2651  0.9934 -2.7264
23050SOL     OW78117   9.013  12.049   5.198 -0.7685 -0.4857  0.3358
23050SOL    HW178118   9.091  12.105   5.195 -2.1885  1.6338  0.6188
23050SOL    HW278119   8.981  12.058   5.288 -1.2615 -1.4485  0.2716
23051SOL     OW78120   8.415   3.746   7.824  0.5708  0.3449 -0.0021
23051SOL    HW178121   8.487   3.809   7.827 -0.5888  1.8089 -1.1484
23051SOL    HW278122   8.443   3.682   7.759  0.6130  1.2396 -0.8935
23052SOL     OW78123   8.212   1.657   9.935  0.0307 -0.1873 -0.2148
23052SOL    HW178124   8.229   1.564   9.920  0.7645  0.0657 -1.0878
23052SOL    HW278125   8.177   1.689   9.851 -0.4812  0.2707  0.1612
23053SOL     OW78126   3.795   1.882  11.806 -0.2629  0.2952  0.7182
23053SOL    HW178127   3.884   1.917  11.807  0.4482 -1.4157  1.3814
23053SOL    HW278128   3.782   1.854  11.715  0.0959  0.0288  0.7478
23054SOL     OW78129   1.982   1.270   4.304  0.2553 -0.8306 -0.2832
23054SOL    HW178130   1.935   1.325   4.367 -0.6088 -1.0382 -0.7212
23054SOL    HW278131   1.991   1.185   4.348  1.1889 -0.4787  0.2196
23055SOL     OW78132   3.396   4.969   7.410 -0.1051  0.0104 -0.4016
23055SOL    HW178133   3.406   4.887   7.362 -1.0553 -0.7613  0.6886
23055SOL    HW278134   3.306   4.997   7.391 -1.4578 -1.6213  2.8077
23056SOL     OW78135   7.708   6.744  11.211  0.1980  0.4251 -0.5867
23056SOL    HW178136   7.742   6.831  11.190  1.3566  0.0077 -0.4654
23056SOL    HW278137   7.613   6.755  11.206  0.2747  1.9474  0.3936
23057SOL     OW78138   6.101   4.704  10.211  0.4420 -0.4520 -0.2904
23057SOL    HW178139   6.063   4.644  10.147 -1.1137 -1.9565  1.8609
23057SOL    HW278140   6.072   4.791  10.183  0.1272 -1.0139 -1.7930
23058SOL     OW78141   4.683   9.557   9.007 -0.6060  0.2341  0.6806
23058SOL    HW178142   4.605   9.586   9.055 -0.1108  2.5168  0.1950
23058SOL    HW278143   4.756   9.574   9.066 -0.2576  0.2707  0.2430
23059SOL     OW78144  12.023   8.855  11.489 -0.6251 -0.4000 -0.6389
23059SOL    HW178145  12.084   8.834  11.418 -1.1692  0.4188 -1.3732
23059SOL    HW278146  12.072   8.917  11.544 -1.0498  0.9301 -1.6945
23060SOL     OW78147  12.372   4.677   1.857 -0.6181 -0.1633 -0.0131
23060SOL    HW178148  12.374   4.660   1.763 -0.8741 -0.8624  0.1025
23060SOL    HW278149  12.438   4.745   1.871  0.7281 -1.3387 -0.4500
23061SOL     OW78150  12.221   2.397   6.655  0.5033  0.4102 -0.1632
23061SOL    HW178151  12.202   2.415   6.747 -1.5418  0.9725 -0.6559
23061SOL    HW278152  12.306   2.438   6.640  1.3513 -0.5271  1.6874
23062SOL     OW78153   4.517   4.479   2.432 -0.1264  0.4285 -0.4733
23062SOL    HW178154   4.566   4.397   2.417 -1.7585 -0.5780 -0.5069
23062SOL    HW278155   4.553   4.540   2.367  1.5583 -0.0314 -0.0443
23063SOL     OW78156   7.968   7.156   1.384 -0.4761  0.9874  0.4550
23063SOL    HW178157   7.926   7.138   1.300 -0.6248  0.8010  0.5694
23063SOL    HW278158   8.021   7.078   1.401  0.7888  1.6556 -0.2132
23064SOL     OW78159   3.924   5.634   9.846  0.1636  0.2643 -0.4121
23064SOL    HW178160   3.941   5.632   9.941  1.4583  0.1275 -0.6366
23064SOL    HW278161   3.881   5.550   9.828 -1.1213  0.7504  0.2188
23065SOL     OW78162   3.823  10.336   6.659 -0.5948 -0.3091 -1.0125
23065SOL    HW178163   3.836  10.260   6.715  0.4982  2.0400  2.1902
23065SOL    HW278164   3.911  10.360   6.630 -0.3275  1.8634  1.2423
23066SOL     OW78165  10.081  10.186  10.283 -0.3896 -0.4755  0.0711
23066SOL    HW178166  10.143  10.219  10.349 -0.5573  0.4915 -0.2437
23066SOL    HW278167  10.057  10.263  10.232  0.1722 -1.2940 -1.5005
23067SOL     OW78168  11.785   8.233  10.507  0.5123 -0.2428 -1.0239
23067SOL    HW178169  11.703   8.238  10.557 -0.1260  0.1676 -2.0820
23067SOL    HW278170  11.764   8.272  10.422  1.2026 -2.1277 -2.1205
23068SOL     OW78171  11.975   1.821   5.577 -0.2966 -0.3051 -0.2536
23068SOL    HW178172  12.041   1.873   5.529 -0.5163  0.3990  0.1954
23068SOL    HW278173  11.903   1.882   5.590 -0.2510 -0.5002  0.9542
23069SOL     OW78174   2.625   2.891   2.453  0.0087 -0.3649  0.2375
23069SOL    HW178175   2.561   2.929   2.513  0.0734  0.6917 -0.3290
23069SOL    HW278176   2.592   2.803   2.435 -0.5664 -0.3101  0.9961
23070SOL     OW78177   7.324   1.169   7.527  0.0547  0.5537  0.2417
23070SOL    HW178178   7.314   1.264   7.520 -0.4785  0.5172  0.4090
23070SOL    HW278179   7.400   1.157   7.583  0.3722  0.8806 -0.1124
23071SOL     OW78180   2.590   6.316   0.897  0.5515  0.3099  0.0063
23071SOL    HW178181   2.645   6.331   0.820  2.5167  0.5695  1.3978
23071SOL    HW278182   2.522   6.256   0.867  3.1437 -2.2139 -1.1751
23072SOL     OW78183   7.078   3.287   5.156 -0.1470  0.4965 -0.1167
23072SOL    HW178184   7.090   3.224   5.085  2.2518 -0.3920  0.9637
23072SOL    HW278185   6.998   3.259   5.200  0.2541 -1.1358 -0.3631
23073SOL     OW78186  11.025  12.230   2.328 -0.5055  0.8540 -0.3805
23073SOL    HW178187  10.994  12.304   2.379 -0.4886 -0.4226  1.6120
23073SOL    HW278188  10.961  12.161   2.345  1.2947 -0.6457  0.6812
23074SOL     OW78189   5.629  11.824   1.130  0.1574  0.2797 -0.2363
23074SOL    HW178190   5.552  11.855   1.081 -0.8221  0.4286  1.3099
23074SOL    HW278191   5.598  11.745   1.174  1.2152 -0.2290 -0.3846
23075SOL     OW78192   8.860   2.328   6.348  0.1311 -0.5085  0.3572
23075SOL    HW178193   8.770   2.296   6.358  0.2341 -0.4869  1.5488
23075SOL    HW278194   8.855   2.420   6.374  0.6296 -0.7029  1.1684
23076SOL     OW78195   0.987   7.617  11.510 -0.1695 -0.0974  0.1575
23076SOL    HW178196   0.924   7.689  11.504 -0.8159 -0.7436 -1.4348
23076SOL    HW278197   0.958   7.555  11.444  0.9486 -1.3851  0.8345
23077SOL     OW78198   9.706   1.617   5.998  0.2226  0.0269 -0.6769
23077SOL    HW178199   9.628   1.608   5.943 -1.8013  1.8716  1.6515
23077SOL    HW278200   9.742   1.703   5.975  1.2200 -0.5497 -1.3008
23078SOL     OW78201   6.830   3.582   5.909 -0.4965 -0.1807  0.5990
23078SOL    HW178202   6.902   3.534   5.950  0.7470  0.5453 -0.6340
23078SOL    HW278203   6.848   3.576   5.815 -2.3070 -0.3435  0.2355
23079SOL     OW78204  12.244   0.401   8.227 -1.1182  0.1968  0.3091
23079SOL    HW178205  12.294   0.400   8.309 -1.6181  0.8732  0.6401
23079SOL    HW278206  12.158   0.368   8.252 -0.1681 -3.5458 -0.7723
23080SOL     OW78207   7.537   1.145   7.044  0.1970  0.4927  0.0509
23080SOL    HW178208   7.531   1.154   7.139 -1.8982  1.4913 -0.1050
23080SOL    HW278209   7.477   1.073   7.023  1.1442 -0.1632 -0.4833
23081SOL     OW78210  10.578  10.220   7.709 -0.4925 -0.5388 -0.0702
23081SOL    HW178211  10.640  10.150   7.731  1.4483  0.4011 -2.0560
23081SOL    HW278212  10.553  10.258   7.793 -0.0824 -2.3548  0.9273
23082SOL     OW78213   0.057   5.609   2.323  0.0315 -0.3146 -0.0051
23082SOL    HW178214   0.066   5.666   2.400  3.9508 -1.4818  0.6118
23082SOL    HW278215   0.106   5.655   2.254 -1.4829 -0.3949 -1.1837
23083SOL     OW78216   1.611   2.723  12.037  0.9082 -0.2623 -0.2364
23083SOL    HW178217   1.549   2.662  12.078 -0.5097  2.0981  1.3409
23083SOL    HW278218   1.640   2.677  11.958 -1.0846 -2.4321  0.1686
23084SOL     OW78219   4.744   5.165   2.759  0.6519  0.2016 -0.0024
23084SOL    HW178220   4.784   5.237   2.710 -1.6929  2.1009  0.6804
23084SOL    HW278221   4.661   5.149   2.714  0.6615 -1.4307  0.4841
23085SOL     OW78222   2.422   1.206   3.053 -0.3530 -0.0077  0.4439
23085SOL    HW178223   2.467   1.122   3.056 -0.0244  0.1829  1.1384
23085SOL    HW278224   2.339   1.187   3.010 -0.3936 -0.7492  0.8295
23086SOL     OW78225   0.814   6.380   3.663 -0.0474 -0.0517 -0.3775
23086SOL    HW178226   0.879   6.328   3.709 -0.3708 -0.9880 -0.9511
23086SOL    HW278227   0.749   6.402   3.730  1.3074  1.7083  0.4160
23087SOL     OW78228   1.172   8.080   7.764 -0.0456 -0.1049  0.0413
23087SOL    HW178229   1.097   8.130   7.797 -0.5219 -0.1998 -0.8661
23087SOL    HW278230   1.138   8.036   7.687  1.3587  1.0670 -1.2961
23088SOL     OW78231   6.395   5.829   0.777  0.0281 -0.0844 -0.1122
23088SOL    HW178232   6.471   5.835   0.834  0.3405  2.0908 -0.6412
23088SOL    HW278233   6.339   5.764   0.818  1.8613 -1.2779  0.6419
23089SOL     OW78234   5.720   0.759   4.570 -0.0600  0.0461  0.0191
23089SOL    HW178235   5.632   0.736   4.601 -0.8894 -0.1129 -2.2467
23089SOL    HW278236   5.744   0.835   4.622 -1.4761  0.0030  0.7943
23090SOL     OW78237   1.027   3.562  12.583 -0.6341 -0.4206  0.1871
23090SOL    HW178238   1.117   3.556  12.616 -0.2146  0.6803 -0.6935
23090SOL    HW278239   1.028   3.512  12.502 -0.6454  0.1298 -0.1555
23091SOL     OW78240   5.665   8.450   9.030 -0.5880 -0.4465 -0.2376
23091SOL    HW178241   5.725   8.394   9.079 -0.5427 -0.8587 -0.7568
23091SOL    HW278242   5.721   8.517   8.992 -0.1646 -1.7400 -2.0600
23092SOL     OW78243   1.519   6.242  10.141 -0.2407 -0.0245 -0.2734
23092SOL    HW178244   1.541   6.225  10.233 -0.3877 -0.7349 -0.3700
23092SOL    HW278245   1.444   6.301  10.146  1.3764  2.1448  0.0570
23093SOL     OW78246   0.723  11.216   8.542 -0.0484 -0.5272 -0.0213
23093SOL    HW178247   0.729  11.205   8.637 -0.6456 -0.7236 -0.0046
23093SOL    HW278248   0.668  11.144   8.512 -1.5689  0.6836 -0.2607
23094SOL     OW78249   6.773   6.009   2.255  0.6776  0.2697 -0.0189
23094SOL    HW178250   6.761   5.985   2.347 -0.0568  0.2486 -0.1183
23094SOL    HW278251   6.710   6.079   2.239  0.5042 -0.0100 -0.6117
23095SOL     OW78252   1.713  12.252   3.825  0.4207  0.0954  0.5869
23095SOL    HW178253   1.696  12.255   3.919  1.7363  0.5145  0.8415
23095SOL    HW278254   1.788  12.311   3.813  0.4655 -0.1973 -0.6775
23096SOL     OW78255   2.689   7.746   6.555 -0.2886 -0.4518 -0.3160
23096SOL    HW178256   2.688   7.651   6.572 -0.0175 -0.2622  0.8427
23096SOL    HW278257   2.780   7.772   6.571 -0.8194  0.3761  1.7638
23097SOL     OW78258   1.712   3.284  12.422  0.3243 -0.0817 -0.0030
23097SOL    HW178259   1.639   3.283  12.485 -0.3798 -0.2838 -0.8036
23097SOL    HW278260   1.782   3.332  12.468 -0.4833  0.5675  0.5969
23098SOL     OW78261   3.789   2.493   9.615 -0.1221 -0.0671 -0.0236
23098SOL    HW178262   3.767   2.415   9.666 -1.5463 -0.2584 -0.8643
23098SOL    HW278263   3.810   2.559   9.680 -0.2883 -0.7644  0.7565
23099SOL     OW78264   6.744  10.480   6.197  0.2560  0.7707  0.2715
23099SOL    HW178265   6.736  10.463   6.291  0.9733  1.6031  0.4910
23099SOL    HW278266   6.810  10.417   6.167 -3.5941 -3.3151 -0.7845
23100SOL     OW78267  11.332   8.801   8.386 -0.0097 -0.3872  0.2181
23100SOL    HW178268  11.250   8.839   8.420 -0.1027 -0.8560  0.5305
23100SOL    HW278269  11.304   8.738   8.320  0.1523  0.1811 -0.4062
23101SOL     OW78270   6.870   9.466   1.084 -0.1513  0.1163 -0.1844
23101SOL    HW178271   6.844   9.493   1.172  0.5370 -0.3679  0.1758
23101SOL    HW278272   6.944   9.407   1.098  1.1731  1.4583 -1.1544
23102SOL     OW78273   6.863   4.291  10.874  0.0682  0.8834  0.0271
23102SOL    HW178274   6.810   4.216  10.845 -1.1566  1.8706 -0.3496
23102SOL    HW278275   6.895   4.330  10.794  1.4795  0.2602  0.2535
23103SOL     OW78276  12.219   6.679  10.052  0.6569  0.1001 -0.3698
23103SOL    HW178277  12.204   6.585  10.056 -2.9073  0.5487 -0.0129
23103SOL    HW278278  12.232   6.706  10.143 -2.2329  0.3221  0.0869
23104SOL     OW78279   2.753  11.758   9.698  0.0836 -0.2134 -0.7144
23104SOL    HW178280   2.829  11.711   9.665  0.3730 -0.0818 -0.2343
23104SOL    HW278281   2.779  11.850   9.697 -0.0032 -0.1844 -0.3820
23105SOL     OW78282   1.076   9.679   2.912  0.4238 -0.4621 -0.0269
23105SOL    HW178283   0.983   9.694   2.926  0.0925 -1.9653 -0.4134
23105SOL    HW278284   1.112   9.665   2.999 -0.2536 -2.5452 -0.0296
23106SOL     OW78285  10.983   6.124  10.780 -0.0374 -0.4213 -0.5831
23106SOL    HW178286  11.048   6.193  10.794 -0.8975  0.7576 -2.0363
23106SOL    HW278287  11.032   6.042  10.789  1.2643  0.3908  0.0293
23107SOL     OW78288   3.054   3.699   6.867  0.5607  0.1140  0.4816
23107SOL    HW178289   3.146   3.684   6.843  0.4039  0.0220 -0.0666
23107SOL    HW278290   3.006   3.690   6.785 -0.0083 -0.4175  0.8653
23108SOL     OW78291   4.109   0.840   3.678  0.0149 -0.6572 -0.6355
23108SOL    HW178292   4.084   0.926   3.646  1.9133 -0.1593 -0.8961
23108SOL    HW278293   4.138   0.855   3.768  2.7214 -0.4738 -1.4249
23109SOL     OW78294   4.409   5.591   3.267  0.3307 -0.0957  0.1339
23109SOL    HW178295   4.422   5.565   3.176  0.2354 -1.1669  0.4145
23109SOL    HW278296   4.322   5.631   3.268  0.5017  0.3002 -0.3191
23110SOL     OW78297  11.712   8.873   8.325 -0.1136  0.4961 -0.1290
23110SOL    HW178298  11.772   8.815   8.278 -2.5979 -0.5654 -2.2769
23110SOL    HW278299  11.768   8.937   8.367  2.7430 -2.5094  1.1019
23111SOL     OW78300   6.748   8.719   3.714  0.1565 -0.0707 -0.0356
23111SOL    HW178301   6.805   8.669   3.656 -0.2174 -1.2492  0.5642
23111SOL    HW278302   6.660   8.686   3.695 -0.1459  0.6241  0.1318
23112SOL     OW78303   3.191   7.794   0.246  0.4684 -0.5430 -0.2713
23112SOL    HW178304   3.109   7.842   0.233  0.9382  0.1851 -0.5527
23112SOL    HW278305   3.220   7.820   0.333  0.9245 -0.0020 -0.5798
23113SOL     OW78306   3.808  11.134   9.643 -0.1073  0.0844  0.2019
23113SOL    HW178307   3.893  11.090   9.642  0.4092  1.0810 -1.0327
23113SOL    HW278308   3.798  11.163   9.734  0.1398 -1.3902  0.7284
23114SOL     OW78309   2.266   2.818   4.034  0.5906 -0.4077 -0.2236
23114SOL    HW178310   2.246   2.901   3.991  0.5130 -0.1923  0.2181
23114SOL    HW278311   2.304   2.843   4.119 -1.0828 -0.8017  0.6898
23115SOL     OW78312  12.202   8.497  11.007 -0.1194  0.3084 -0.0761
23115SOL    HW178313  12.130   8.438  10.983 -0.4193  0.0033  1.4638
23115SOL    HW278314  12.214   8.482  11.101 -0.0239  2.5242  0.3093
23116SOL     OW78315   0.012   8.988   0.921 -0.1592  0.0971 -0.2094
23116SOL    HW178316   0.074   9.060   0.924 -1.9675  1.7096  0.6198
23116SOL    HW278317   0.002   8.968   0.828  0.7848  0.5197 -0.4095
23117SOL     OW78318  12.278   4.927   6.945 -0.0713  0.3002  0.2934
23117SOL    HW178319  12.271   4.939   6.850  0.8496  1.5602  0.3569
23117SOL    HW278320  12.244   4.839   6.960  0.8369 -0.3837 -1.3459
23118SOL     OW78321   7.354   3.818   2.135  0.2758  0.5119  0.4219
23118SOL    HW178322   7.264   3.819   2.168  0.2240 -2.1661  0.5696
23118SOL    HW278323   7.408   3.831   2.212  0.0461 -0.1182  0.6937
23119SOL     OW78324  11.367   0.641   1.240 -0.1369 -0.6712 -0.3155
23119SOL    HW178325  11.453   0.682   1.255 -0.3638  0.2335 -1.3748
23119SOL    HW278326  11.387   0.557   1.199  0.2902 -1.2332  0.9684
23120SOL     OW78327   0.293   6.463   3.459 -0.2870 -0.3243  0.0055
23120SOL    HW178328   0.334   6.529   3.515 -0.2878 -0.4105  0.1072
23120SOL    HW278329   0.356   6.448   3.389 -0.7758  0.6383 -0.6616
23121SOL     OW78330  11.420   3.660   8.021 -0.3041  0.2851 -0.4752
23121SOL    HW178331  11.515   3.662   8.012 -0.3290  1.7081 -0.6603
23121SOL    HW278332  11.389   3.732   7.966 -1.5693 -0.8021 -1.2338
23122SOL     OW78333   2.674   1.143   5.435 -0.0929  0.2033 -0.0881
23122SOL    HW178334   2.730   1.178   5.505  1.0112 -0.5269 -0.5679
23122SOL    HW278335   2.601   1.102   5.481 -0.0757  0.8853  0.5750
23123SOL     OW78336   9.197  10.408   3.885  0.6622 -0.4754  0.3467
23123SOL    HW178337   9.252  10.408   3.807 -0.0772 -0.1206 -0.1887
23123SOL    HW278338   9.258  10.415   3.958  1.3631 -0.8155 -0.1998
23124SOL     OW78339   2.969   6.795   7.613 -0.7118  0.0669 -0.0088
23124SOL    HW178340   3.002   6.808   7.524 -2.0263  0.2243 -0.4846
23124SOL    HW278341   2.885   6.751   7.602 -0.2487 -1.2041  1.2242
23125SOL     OW78342   5.172   6.014  10.094 -0.0066  0.0477 -0.0502
23125SOL    HW178343   5.137   5.925  10.097 -1.7653  0.6937 -0.4137
23125SOL    HW278344   5.224   6.022  10.175 -1.5670 -0.6228  1.0651
23126SOL     OW78345  11.931   3.893   0.095  0.0186  0.1373 -0.3778
23126SOL    HW178346  12.010   3.870   0.143  0.5097  0.9328 -0.7871
23126SOL    HW278347  11.860   3.852   0.145  0.6708 -0.5301  0.0290
23127SOL     OW78348   2.783   0.377   8.762 -0.0941  0.3234  0.1597
23127SOL    HW178349   2.815   0.294   8.798  0.5914  0.7136  0.4854
23127SOL    HW278350   2.688   0.373   8.771 -0.1550 -0.8868 -0.8634
23128SOL     OW78351   3.443  11.537  10.617 -0.3160 -0.0529  0.1258
23128SOL    HW178352   3.386  11.463  10.638 -0.1280 -0.4242 -0.6401
23128SOL    HW278353   3.466  11.524  10.524 -0.5683  1.1497 -0.1177
23129SOL     OW78354   2.662   8.594   3.071  0.2324 -0.1890 -0.1440
23129SOL    HW178355   2.568   8.578   3.067 -0.2882  1.4389  2.5354
23129SOL    HW278356   2.701   8.531   3.010 -2.5420 -1.0466 -1.1685
23130SOL     OW78357   9.327   4.795   9.557  0.6380 -0.1341  0.1574
23130SOL    HW178358   9.330   4.853   9.633 -1.6898 -0.2413  0.4239
23130SOL    HW278359   9.418   4.777   9.537  1.3842  1.9466  1.3414
23131SOL     OW78360   6.748   4.598   1.267  0.4070  0.0684  0.0434
23131SOL    HW178361   6.743   4.576   1.360 -1.6527  1.5295  0.3372
23131SOL    HW278362   6.792   4.683   1.265  0.6094 -0.0407 -0.3641
23132SOL     OW78363  12.125   6.463   4.742  0.1627  0.1569  0.2101
23132SOL    HW178364  12.092   6.549   4.767 -1.2903 -0.5075  0.7111
23132SOL    HW278365  12.214   6.479   4.712  0.7474  1.5157  2.4279
23133SOL     OW78366  10.648   4.748   7.670  0.5248  0.2776 -0.2273
23133SOL    HW178367  10.613   4.733   7.582  2.6261 -0.3183 -1.0011
23133SOL    HW278368  10.602   4.827   7.700 -0.3409  0.4211 -1.7820
23134SOL     OW78369   6.825   9.435  11.362  0.0724  0.3006  0.3241
23134SOL    HW178370   6.884   9.500  11.326  2.2326 -0.0493  2.9666
23134SOL    HW278371   6.876   9.354  11.362 -0.2329  0.0400  2.9243
23135SOL     OW78372  12.176  10.454   6.543 -0.2634  0.1415  0.7027
23135SOL    HW178373  12.205  10.536   6.504  0.1342  1.9251  4.3425
23135SOL    HW278374  12.083  10.466   6.559 -0.7943 -1.2287 -1.0396
23136SOL     OW78375   8.942  10.501   6.334 -0.5579  0.5563  0.2950
23136SOL    HW178376   8.948  10.443   6.258  0.7013  0.0307  0.7744
23136SOL    HW278377   8.861  10.474   6.378  0.0928 -0.9945  0.6015
23137SOL     OW78378   4.720   0.580   8.936 -0.2765 -0.3379  0.1100
23137SOL    HW178379   4.813   0.600   8.925 -0.7610  1.8442 -0.5718
23137SOL    HW278380   4.704   0.590   9.030  0.6465 -3.3203  0.6770
23138SOL     OW78381  10.890   8.854   5.875  0.2009 -0.2913 -0.3571
23138SOL    HW178382  10.889   8.938   5.829 -1.5684 -0.2006 -0.2372
23138SOL    HW278383  10.875   8.789   5.806 -1.4686 -0.2349 -0.0797
23139SOL     OW78384   2.026   9.997   2.847 -0.3357 -0.3541  0.3717
23139SOL    HW178385   2.006   9.945   2.924 -0.0909  0.1169  0.7554
23139SOL    HW278386   1.964  10.070   2.849  0.1232  0.0357  0.4990
23140SOL     OW78387   1.412  10.141   5.111 -0.1771 -0.1287  0.6300
23140SOL    HW178388   1.328  10.109   5.080  0.1795  0.4522 -1.0011
23140SOL    HW278389   1.476  10.078   5.077  0.1889  0.3156  0.4802
23141SOL     OW78390   9.815   6.173   8.472  0.1616 -0.5473  0.1280
23141SOL    HW178391   9.765   6.236   8.419  0.2101 -0.1645  0.5274
23141SOL    HW278392   9.865   6.228   8.533 -1.5610 -1.0389  2.0683
23142SOL     OW78393   4.978   4.693   1.614 -0.0987 -0.3030 -0.2242
23142SOL    HW178394   5.038   4.729   1.549  0.9141 -0.0548  0.8178
23142SOL    HW278395   4.909   4.759   1.620  0.5603  0.3858  0.0045
23143SOL     OW78396   6.255   9.356   7.284 -0.3272 -0.4969 -0.5594
23143SOL    HW178397   6.250   9.439   7.333 -1.6089 -0.1578 -1.2251
23143SOL    HW278398   6.215   9.376   7.199 -0.8351 -1.8512 -0.6582
23144SOL     OW78399  10.690   4.799   1.287  0.0914  0.2723 -0.2471
23144SOL    HW178400  10.691   4.882   1.238  0.0363  1.3011  1.4086
23144SOL    HW278401  10.782   4.775   1.297  0.1424  0.5267 -0.0996
23145SOL     OW78402   1.167   8.188   9.483  0.2589 -0.1141  0.1550
23145SOL    HW178403   1.093   8.133   9.460  1.4688 -2.4127  1.3846
23145SOL    HW278404   1.143   8.227   9.567 -0.8830  1.9245 -1.0334
23146SOL     OW78405   2.328  12.151   7.954  0.0380 -0.0576 -0.0657
23146SOL    HW178406   2.238  12.147   7.923  0.1074 -1.2082 -0.1699
23146SOL    HW278407   2.336  12.237   7.994 -0.9089  0.3177 -0.6485
23147SOL     OW78408   5.802   0.592   8.358 -0.1247  0.1732  0.2536
23147SOL    HW178409   5.729   0.546   8.399  1.0313 -2.0716 -0.0777
23147SOL    HW278410   5.872   0.527   8.354  1.5483  1.9392 -0.4210
23148SOL     OW78411   2.762   3.362   7.815 -0.6916  0.0584  0.1617
23148SOL    HW178412   2.802   3.302   7.752 -1.2827  0.3275 -0.4845
23148SOL    HW278413   2.811   3.444   7.806  0.0177 -0.2618  0.9372
23149SOL     OW78414   7.167   8.000  11.822 -0.3226 -0.0195  0.3007
23149SOL    HW178415   7.217   8.036  11.748  0.6550  0.3344  1.1083
23149SOL    HW278416   7.086   8.050  11.823  0.5553  1.4768  0.7434
23150SOL     OW78417   3.281   4.678  11.389  0.0872  0.1499  0.2783
23150SOL    HW178418   3.200   4.670  11.338 -0.0082  0.1528  0.4292
23150SOL    HW278419   3.338   4.731  11.333 -0.6127  1.6013  0.8737
23151SOL     OW78420  11.946  11.418   1.437 -0.2875  0.0409  0.1668
23151SOL    HW178421  11.912  11.429   1.348 -0.3945 -0.1976  0.1795
23151SOL    HW278422  11.935  11.505   1.477  1.2377  0.6037 -0.5604
23152SOL     OW78423   3.647   7.980   2.330 -0.1125  0.4117 -0.2641
23152SOL    HW178424   3.594   7.902   2.345  0.0999  0.2393 -0.4028
23152SOL    HW278425   3.735   7.955   2.359  0.4156 -0.0884 -2.1724
23153SOL     OW78426  11.285   9.269  11.113  0.1741  0.2414 -0.1650
23153SOL    HW178427  11.236   9.196  11.150 -1.7372  1.3888 -0.3381
23153SOL    HW278428  11.298   9.330  11.186 -1.3758  1.3349 -0.7541
23154SOL     OW78429  10.506  12.057   3.523 -0.4869 -0.4737 -0.0358
23154SOL    HW178430  10.523  12.014   3.440 -1.9196 -0.8211 -0.1829
23154SOL    HW278431  10.451  11.995   3.571  1.1156 -0.7165  1.5899
23155SOL     OW78432   9.285   1.344   3.875 -0.6404  0.0101  0.4790
23155SOL    HW178433   9.293   1.438   3.891 -1.0661  0.6833 -2.7671
23155SOL    HW278434   9.356   1.305   3.927  1.1080  2.3515 -0.0154
23156SOL     OW78435  11.190   2.607   7.306 -0.4335  0.1221 -0.5977
23156SOL    HW178436  11.213   2.698   7.326 -0.9998  0.8813 -3.0376
23156SOL    HW278437  11.147   2.575   7.386 -0.4490  2.0731  0.2307
23157SOL     OW78438   4.004   0.981   1.568  0.1760  0.4717  0.1054
23157SOL    HW178439   4.037   1.070   1.555  0.6867  0.0827 -1.5429
23157SOL    HW278440   4.034   0.956   1.655  0.9298  1.5423  0.1650
23158SOL     OW78441  10.698   9.145   2.279  0.5576  0.3734 -0.6490
23158SOL    HW178442  10.774   9.189   2.316  0.0987  0.8735 -0.2739
23158SOL    HW278443  10.641   9.130   2.355 -1.2121  3.0058 -1.3300
23159SOL     OW78444   0.935   0.190   0.349  0.1348 -0.7040 -1.1776
23159SOL    HW178445   0.989   0.115   0.324 -0.0333 -0.8557 -1.0849
23159SOL    HW278446   0.952   0.202   0.442 -1.3621 -1.8882 -0.7152
23160SOL     OW78447   2.899  12.290  11.005 -0.2387  0.7862 -0.4780
23160SOL    HW178448   2.949  12.352  10.952  0.3902  0.6007 -0.1124
23160SOL    HW278449   2.925  12.310  11.095 -1.6943  1.4627 -0.1687
23161SOL     OW78450   3.313   7.946   4.698  0.0929  0.5622  0.2385
23161SOL    HW178451   3.314   7.850   4.694 -2.1067  0.4683  0.7896
23161SOL    HW278452   3.261   7.973   4.623 -1.7498  1.1323  1.6570
23162SOL     OW78453   9.827   0.567   1.447  0.0686  0.0331 -0.6209
23162SOL    HW178454   9.733   0.569   1.463 -0.2854 -1.4600 -2.2376
23162SOL    HW278455   9.842   0.484   1.402  1.8246  1.1905 -2.3272
23163SOL     OW78456   0.410  10.310  11.216 -0.1628 -0.4724  0.3996
23163SOL    HW178457   0.405  10.219  11.246  0.9717 -0.3990  0.8352
23163SOL    HW278458   0.503  10.328  11.210 -0.3783  0.4208 -0.4587
23164SOL     OW78459  12.291   5.656   3.880 -0.0122 -0.2095  0.0666
23164SOL    HW178460  12.351   5.654   3.806 -0.2173 -2.1878 -0.0776
23164SOL    HW278461  12.330   5.598   3.945 -0.8218 -0.0397  0.7283
23165SOL     OW78462   4.656   7.415   0.507 -0.0615 -0.4942 -0.0656
23165SOL    HW178463   4.593   7.471   0.552  0.8890 -0.3592  1.1303
23165SOL    HW278464   4.669   7.458   0.422 -0.1257  0.5415  0.4297
23166SOL     OW78465  11.775   7.961   6.164 -0.0503 -0.4716 -0.1193
23166SOL    HW178466  11.814   8.011   6.235 -1.4691 -0.7426  0.9193
23166SOL    HW278467  11.762   7.873   6.201 -1.3869 -0.4516 -0.4773
23167SOL     OW78468   9.257   7.213   6.523 -0.3059  0.0082 -0.0223
23167SOL    HW178469   9.322   7.200   6.592  1.0714  1.4499 -0.9879
23167SOL    HW278470   9.185   7.259   6.566  0.1048  0.0310  0.6548
23168SOL     OW78471  12.284   4.711  11.869  0.1364 -0.0701 -0.2725
23168SOL    HW178472  12.196   4.691  11.900  1.5563 -1.5374  3.4023
23168SOL    HW278473  12.281   4.803  11.845 -1.8504  0.6390  2.2701
23169SOL     OW78474   0.002   5.385   1.419  0.5062 -0.5864 -0.5025
23169SOL    HW178475  -0.046   5.467   1.422  0.4852 -0.6245  0.8192
23169SOL    HW278476  -0.050   5.328   1.362 -0.4640 -0.2935  0.0783
23170SOL     OW78477  12.416   4.302   2.825  0.5822  0.1982 -0.4268
23170SOL    HW178478  12.466   4.344   2.756  2.3921 -2.8403 -1.1397
23170SOL    HW278479  12.341   4.263   2.780  0.4711  0.2000 -0.2454
23171SOL     OW78480  10.250  11.713  12.583 -0.0163 -0.6919  0.3698
23171SOL    HW178481  10.295  11.731  12.666  3.8794 -0.6053 -1.5391
23171SOL    HW278482  10.185  11.646  12.605  1.9699 -1.8736  3.2388
23172SOL     OW78483   2.009   0.442   5.021  0.3831  0.0384 -0.0804
23172SOL    HW178484   1.971   0.355   5.035  2.6018 -0.8690  0.9664
23172SOL    HW278485   2.067   0.430   4.946  2.7259 -0.2187  1.6437
23173SOL     OW78486  11.792   4.926   4.334  0.2081 -0.1374  0.2567
23173SOL    HW178487  11.751   4.995   4.283 -1.7673 -0.2397  1.5942
23173SOL    HW278488  11.859   4.971   4.386  0.0875  0.4727 -0.1068
23174SOL     OW78489   0.498  11.536   4.210 -1.0412 -0.0178  0.0879
23174SOL    HW178490   0.438  11.556   4.282 -0.0573  0.9584  0.6647
23174SOL    HW278491   0.457  11.576   4.133 -0.9360  1.0480  0.5637
23175SOL     OW78492   3.870   1.616  11.119  0.5328 -0.3246  0.2670
23175SOL    HW178493   3.777   1.609  11.100  0.4644 -0.2764  0.5719
23175SOL    HW278494   3.911   1.546  11.068  0.3711 -0.1270 -0.1323
23176SOL     OW78495   9.654  10.394   2.137 -0.7108  0.0408  0.3699
23176SOL    HW178496   9.709  10.370   2.211 -1.1676  1.0076  1.0416
23176SOL    HW278497   9.664  10.322   2.075  0.7707 -0.1221  0.7705
23177SOL     OW78498   2.220   9.483   3.952  0.0823 -0.0677  0.1148
23177SOL    HW178499   2.163   9.509   4.024  0.8762  1.6237  0.1825
23177SOL    HW278500   2.162   9.480   3.875 -0.5709 -0.9301  0.6189
23178SOL     OW78501   1.982   2.031   7.178 -0.2135  0.4547 -0.5286
23178SOL    HW178502   2.017   1.956   7.131 -2.4368 -1.1791  0.2347
23178SOL    HW278503   2.026   2.029   7.263 -0.2856 -0.0390 -0.4978
23179SOL     OW78504  11.080   7.652   4.602 -0.6328 -0.3949  0.0317
23179SOL    HW178505  11.137   7.582   4.634 -1.1328 -0.6335  0.4214
23179SOL    HW278506  11.081   7.642   4.507 -1.7002 -1.7372  0.1332
23180SOL     OW78507   6.081   7.077   5.396  0.2457 -0.1114  0.6320
23180SOL    HW178508   5.987   7.055   5.395 -0.1940  1.6508  0.3543
23180SOL    HW278509   6.099   7.111   5.309  1.5203 -1.6871  0.2195
23181SOL     OW78510   3.093   9.407   5.289  1.3378  0.4376 -0.4849
23181SOL    HW178511   3.030   9.458   5.239  1.4400  0.1258 -0.9404
23181SOL    HW278512   3.120   9.337   5.229  3.1238  1.3348 -0.7843
23182SOL     OW78513   4.767   8.234   4.435  0.0710  0.3872 -0.2435
23182SOL    HW178514   4.725   8.240   4.521 -1.0373 -0.0202 -0.7430
23182SOL    HW278515   4.786   8.141   4.424 -0.6077  0.3043 -0.8064
23183SOL     OW78516   3.940   4.926   4.802  0.1663 -0.6354  0.5453
23183SOL    HW178517   3.854   4.951   4.836  0.3239  0.7255  0.0127
23183SOL    HW278518   3.948   4.833   4.822 -1.1124 -0.6098  1.2706
23184SOL     OW78519  10.884  10.683   9.498  0.5799  0.2960  0.4341
23184SOL    HW178520  10.961  10.627   9.506  1.8510  1.7598 -0.7644
23184SOL    HW278521  10.823  10.651   9.564  1.4503 -2.1064  0.1494
23185SOL     OW78522   7.454   4.165   2.451 -0.4535  1.0375 -0.2311
23185SOL    HW178523   7.372   4.136   2.491 -0.5770  0.4857 -0.8714
23185SOL    HW278524   7.504   4.202   2.524 -0.2791 -0.8282  0.6538
23186SOL     OW78525   2.052   7.650   0.795 -0.2854  0.3214  0.0073
23186SOL    HW178526   2.123   7.590   0.770 -0.6211 -0.7411  1.4709
23186SOL    HW278527   2.054   7.718   0.729  1.1912 -0.4431 -0.7855
23187SOL     OW78528   2.917  10.395   4.972 -0.1923  0.2425 -0.1274
23187SOL    HW178529   3.001  10.355   4.991  0.3741  1.0435 -0.8785
23187SOL    HW278530   2.918  10.478   5.020 -1.2050 -0.4255  1.1236
23188SOL     OW78531  10.026   1.626   0.502 -0.1074  0.5874  0.5040
23188SOL    HW178532  10.024   1.693   0.569  0.8768  1.1387  0.0058
23188SOL    HW278533  10.036   1.674   0.420  1.7797 -0.1875  0.2307
23189SOL     OW78534   9.982  12.284   9.553  0.7182  0.2121  0.0311
23189SOL    HW178535   9.948  12.240   9.631  1.4532 -0.3143  0.0648
23189SOL    HW278536   9.908  12.285   9.491  0.7363 -1.2324 -0.0310
23190SOL     OW78537  11.833   3.531   6.164 -0.2296 -0.4723 -0.3480
23190SOL    HW178538  11.923   3.559   6.177 -0.9066  1.6322  0.1441
23190SOL    HW278539  11.805   3.501   6.250 -0.5532  0.6669 -0.0393
23191SOL     OW78540   9.910   3.732   2.181  0.7316 -0.0933  0.7011
23191SOL    HW178541   9.903   3.794   2.108 -0.5045 -2.0991 -0.9675
23191SOL    HW278542  10.002   3.707   2.183  1.1357  1.3341  1.0475
23192SOL     OW78543  11.851   9.842  11.591 -0.2684 -0.3987 -0.1592
23192SOL    HW178544  11.898   9.802  11.664 -0.1247 -0.8569 -0.5008
23192SOL    HW278545  11.830   9.931  11.622  0.9003 -0.1560 -0.0416
23193SOL     OW78546  12.103   7.733   4.945 -0.2811 -0.6614 -0.2292
23193SOL    HW178547  12.061   7.664   4.894 -0.3536  0.8861 -2.4338
23193SOL    HW278548  12.115   7.805   4.883  0.7373  0.9432  1.6832
23194SOL     OW78549   7.136  11.031   8.233  0.2476  0.1374 -0.0817
23194SOL    HW178550   7.187  11.076   8.165 -0.0192  1.6611  0.6728
23194SOL    HW278551   7.201  10.982   8.284  0.4585 -0.9530 -1.3490
23195SOL     OW78552   7.531   0.404   5.408 -0.4456 -0.3329 -0.5947
23195SOL    HW178553   7.442   0.410   5.443  0.2244 -0.7332  1.3017
23195SOL    HW278554   7.528   0.332   5.346 -1.5275 -0.0761 -0.8591
23196SOL     OW78555   6.667   5.885   1.425  0.1474 -0.0419  0.2173
23196SOL    HW178556   6.637   5.972   1.452 -0.6824 -0.3269  0.2301
23196SOL    HW278557   6.604   5.825   1.465  0.3809 -0.6157 -0.2747
23197SOL     OW78558   3.611   4.569   6.255 -0.5643 -0.2355 -0.3264
23197SOL    HW178559   3.703   4.568   6.281 -0.3590 -0.4047 -1.0158
23197SOL    HW278560   3.579   4.655   6.280 -0.5465 -0.5920  0.9867
23198SOL     OW78561   0.700   9.965   4.914 -0.1043  0.3705 -0.8889
23198SOL    HW178562   0.712   9.936   4.824 -1.4753  0.2288 -1.0574
23198SOL    HW278563   0.648  10.045   4.907 -1.8821 -0.6481 -0.2013
23199SOL     OW78564   4.198  11.171   6.959  0.2767  0.3259 -0.2884
23199SOL    HW178565   4.240  11.117   6.892  1.3366 -0.8570  1.2650
23199SOL    HW278566   4.129  11.116   6.996 -0.1793  0.8986 -0.2655
23200SOL     OW78567  10.247   4.359  11.807 -0.1378 -0.2757 -0.1099
23200SOL    HW178568  10.337   4.360  11.774 -0.2312 -0.6511 -0.3849
23200SOL    HW278569  10.213   4.274  11.781 -0.6612 -0.0281 -0.2524
23201SOL     OW78570   9.428  12.501   1.254 -0.4153  0.1468  0.4252
23201SOL    HW178571   9.509  12.502   1.203  0.2037  2.8674  1.2834
23201SOL    HW278572   9.376  12.573   1.216 -1.1089  0.4115  1.8318
23202SOL     OW78573   8.763   9.645   9.501 -0.1783  0.3024 -0.3046
23202SOL    HW178574   8.747   9.738   9.514 -0.7496  0.3283 -1.1429
23202SOL    HW278575   8.745   9.630   9.408  0.4919 -0.5253 -0.3139
23203SOL     OW78576   2.495   8.421   1.559  0.4579  0.2849 -0.5750
23203SOL    HW178577   2.517   8.500   1.609 -1.2327  0.0581  0.6191
23203SOL    HW278578   2.567   8.360   1.577 -0.4691 -0.1059  2.4139
23204SOL     OW78579   5.743   7.116   7.117  0.5210 -0.2669  0.3229
23204SOL    HW178580   5.726   7.136   7.209  1.5150  1.1510  0.2286
23204SOL    HW278581   5.793   7.035   7.119  0.8411 -0.0555  1.0490
23205SOL     OW78582  11.982   9.780   9.399 -0.1669  0.0646 -0.5397
23205SOL    HW178583  12.077   9.769   9.397  0.1342  2.2702 -1.1914
23205SOL    HW278584  11.952   9.750   9.313 -0.1241 -0.8781 -0.2403
23206SOL     OW78585   0.632   3.834   8.322 -0.2707 -0.3462  0.1023
23206SOL    HW178586   0.690   3.772   8.277 -0.4089  0.0072 -0.5723
23206SOL    HW278587   0.597   3.785   8.396 -0.4566 -1.1108 -0.4810
23207SOL     OW78588   1.983   8.847   1.304 -0.3272  0.3392 -0.1981
23207SOL    HW178589   2.075   8.832   1.284 -0.2212  1.9649 -1.1173
23207SOL    HW278590   1.936   8.814   1.227 -0.6272 -1.4021  0.6860
23208SOL     OW78591   1.262   2.041   8.112 -0.0282 -0.4721  0.5461
23208SOL    HW178592   1.176   1.999   8.104  0.9237 -2.3169 -0.5527
23208SOL    HW278593   1.277   2.083   8.028  2.1907 -4.4449 -1.3212
23209SOL     OW78594   9.100   6.762   4.331  0.4971  0.4109 -0.4078
23209SOL    HW178595   9.130   6.763   4.422 -0.5487 -0.0651 -0.0432
23209SOL    HW278596   9.108   6.853   4.302 -1.2580  1.0319  0.8825
23210SOL     OW78597   1.210  12.354   7.827 -0.1779  0.0636  0.0564
23210SOL    HW178598   1.116  12.339   7.812 -0.1892 -2.1055  1.8185
23210SOL    HW278599   1.250  12.341   7.741 -1.1740 -2.5258 -0.1172
23211SOL     OW78600  10.241   0.407   1.971 -0.0911  0.0468  0.2337
23211SOL    HW178601  10.280   0.466   2.034 -0.3936  0.3149  0.1688
23211SOL    HW278602  10.147   0.425   1.974  0.0137  1.0756 -1.3050
23212SOL     OW78603   8.481   7.475  11.468 -0.3422  0.4363 -0.1099
23212SOL    HW178604   8.443   7.391  11.444 -0.2968  0.2668  0.4060
23212SOL    HW278605   8.491   7.471  11.563 -1.0629  1.3175  0.0198
23213SOL     OW78606   9.628  10.407  11.557  0.4156 -0.7727 -0.4125
23213SOL    HW178607   9.683  10.478  11.525 -0.0134 -0.9455 -1.5953
23213SOL    HW278608   9.572  10.385  11.482 -2.0838  0.1763  1.0434
23214SOL     OW78609   3.112   4.308   6.388 -0.9522  0.4817  0.1785
23214SOL    HW178610   3.097   4.396   6.354 -1.0509  0.0415 -0.9663
23214SOL    HW278611   3.105   4.251   6.311  2.5946 -0.2200  0.2300
23215SOL     OW78612   4.098   4.277  11.978 -0.0802  0.1715  0.4805
23215SOL    HW178613   4.182   4.246  12.012 -0.2073 -0.0121  0.6334
23215SOL    HW278614   4.120   4.353  11.924  0.3716 -0.8432 -0.8235
23216SOL     OW78615   7.010  10.069   4.116 -0.1353 -0.3249 -0.5532
23216SOL    HW178616   7.055   9.986   4.133 -1.3134 -1.2175 -1.5848
23216SOL    HW278617   6.951  10.079   4.190  1.0071  0.3421  0.2964
23217SOL     OW78618   3.908  12.446   5.754  0.6623 -0.2633  0.0315
23217SOL    HW178619   3.854  12.481   5.684 -1.0637  0.2141  1.5105
23217SOL    HW278620   3.989  12.495   5.750  0.2075  0.4216 -1.0252
23218SOL     OW78621   9.399   3.030   0.167 -0.0958 -0.0538 -0.0027
23218SOL    HW178622   9.414   2.944   0.127  2.0116  0.7047 -1.0170
23218SOL    HW278623   9.321   3.064   0.124 -0.2883 -0.9977 -0.4201
23219SOL     OW78624   0.579  11.146   5.271 -0.1441 -0.2023 -0.2938
23219SOL    HW178625   0.627  11.223   5.241 -0.2786 -0.4782 -1.2555
23219SOL    HW278626   0.489  11.161   5.242  0.0076 -1.1216 -1.2871
23220SOL     OW78627   7.015   6.454   0.439  0.1636 -0.3497  0.2020
23220SOL    HW178628   7.080   6.507   0.486  0.2419 -1.5684  1.5172
23220SOL    HW278629   6.935   6.506   0.442  1.1282  1.5228 -2.0582
23221SOL     OW78630   7.784   1.342   3.475 -0.1153 -0.7412 -0.2324
23221SOL    HW178631   7.698   1.383   3.474 -0.2119 -0.9485 -0.2497
23221SOL    HW278632   7.809   1.336   3.383  0.5237  0.6074 -0.1771
23222SOL     OW78633   7.096  11.752   0.334  0.4352 -0.4722  0.0185
23222SOL    HW178634   7.025  11.815   0.321  0.4461 -0.0956  1.6138
23222SOL    HW278635   7.113  11.716   0.247 -0.6360  0.5884 -0.6464
23223SOL     OW78636  10.808   0.459   3.388 -0.3306 -1.1808  0.7586
23223SOL    HW178637  10.831   0.539   3.340 -1.5573 -2.6238 -2.5994
23223SOL    HW278638  10.892   0.418   3.409  0.2727 -0.3318  0.0759
23224SOL     OW78639   3.460   8.579   6.524  0.1428 -0.0813 -0.2087
23224SOL    HW178640   3.456   8.483   6.526 -3.2059 -0.2278 -3.6363
23224SOL    HW278641   3.429   8.606   6.611 -0.7827 -2.1404  0.1537
23225SOL     OW78642   2.270   2.710  11.918  0.3202 -0.3291 -0.0335
23225SOL    HW178643   2.251   2.668  12.002  0.1366  0.2090  0.1981
23225SOL    HW278644   2.358   2.681  11.895  0.3099 -0.5997  0.2688
23226SOL     OW78645  12.506   9.346   5.071 -1.0662 -0.0329  0.6819
23226SOL    HW178646  12.586   9.304   5.102 -0.8790  0.3284  0.6825
23226SOL    HW278647  12.516   9.438   5.092 -1.1645  0.1359  0.0228
23227SOL     OW78648   9.950   8.396   0.528 -0.7186 -0.2955  0.1450
23227SOL    HW178649  10.024   8.437   0.573  1.0082 -0.7885 -2.0504
23227SOL    HW278650   9.883   8.386   0.595 -0.1267  3.3211  1.4937
23228SOL     OW78651   1.858   9.666   8.200  0.2906  0.7467 -0.1034
23228SOL    HW178652   1.832   9.664   8.292 -1.4982  2.1278 -0.5216
23228SOL    HW278653   1.780   9.694   8.154  2.1730  4.2527 -1.5884
23229SOL     OW78654  11.940   7.808   0.824 -0.0847  0.1637 -0.2446
23229SOL    HW178655  12.017   7.863   0.811  1.6729 -2.1157 -0.1247
23229SOL    HW278656  11.949   7.774   0.913 -0.8704 -0.6594 -0.4604
23230SOL     OW78657   8.248   0.114   4.906 -0.3021 -0.2197  0.5093
23230SOL    HW178658   8.180   0.047   4.908 -0.0097 -0.5270  0.1902
23230SOL    HW278659   8.268   0.126   4.813 -0.6210  0.5855  0.5358
23231SOL     OW78660   2.318   9.642  11.331  0.1990 -0.5808 -0.0399
23231SOL    HW178661   2.364   9.585  11.270 -1.8964 -0.0082 -2.2781
23231SOL    HW278662   2.275   9.582  11.392  0.3239 -1.2533 -0.6009
23232SOL     OW78663   5.170   3.117   3.391 -0.2900  0.6575  0.3161
23232SOL    HW178664   5.082   3.134   3.424 -0.2738 -0.6223  1.0965
23232SOL    HW278665   5.195   3.034   3.431  1.1849  0.8772 -0.0820
23233SOL     OW78666   5.702   1.199   2.227  0.3699  0.2300 -0.4858
23233SOL    HW178667   5.697   1.103   2.235 -1.6728  0.2983 -0.4159
23233SOL    HW278668   5.748   1.214   2.145 -4.5659 -1.0456 -3.9565
23234SOL     OW78669   6.647   3.466   8.989 -0.0569  0.1465  0.0308
23234SOL    HW178670   6.599   3.540   9.027  0.5944 -0.1328  1.4931
23234SOL    HW278671   6.584   3.395   8.985 -0.4780  0.5526 -0.6399
23235SOL     OW78672   1.257   7.182  10.086  0.5042  0.2854  0.0612
23235SOL    HW178673   1.263   7.192   9.991 -0.1063 -0.1016 -0.0214
23235SOL    HW278674   1.348   7.185  10.116  0.9618 -2.2802 -0.8081
23236SOL     OW78675   9.830   2.788   3.301  0.2143  0.8974 -0.5899
23236SOL    HW178676   9.895   2.720   3.320 -0.3572  0.4198 -0.2992
23236SOL    HW278677   9.787   2.803   3.385  2.3912  3.8811  0.1828
23237SOL     OW78678   2.113   3.179  11.699  0.5862  0.0367 -0.5374
23237SOL    HW178679   2.031   3.140  11.669  0.9757 -1.9687  0.8086
23237SOL    HW278680   2.172   3.169  11.624  0.9878 -3.1310  0.0573
23238SOL     OW78681   7.597   1.504  11.396 -0.3318 -0.0300 -0.5500
23238SOL    HW178682   7.551   1.420  11.399 -0.8368  0.2085 -1.3760
23238SOL    HW278683   7.630   1.510  11.307  0.8877  0.0418 -0.1114
23239SOL     OW78684   1.403   1.309   3.339 -0.8485 -0.0990  0.1226
23239SOL    HW178685   1.311   1.334   3.350 -0.8450 -0.1615  0.3034
23239SOL    HW278686   1.426   1.339   3.251 -0.3566  2.1223  0.9193
23240SOL     OW78687   1.137   6.875   7.432 -0.0048  0.4004 -0.0055
23240SOL    HW178688   1.172   6.958   7.461 -1.1233  1.1927 -0.8253
23240SOL    HW278689   1.161   6.869   7.339 -1.1778  0.5319 -0.3410
23241SOL     OW78690   8.583   0.232  12.093 -0.0888 -0.5380 -0.2236
23241SOL    HW178691   8.626   0.293  12.033  0.0319  0.0953  0.4943
23241SOL    HW278692   8.523   0.182  12.038  0.6760 -0.5968 -1.0275
23242SOL     OW78693   2.020   2.965  11.297  0.1636  0.2921 -0.6426
23242SOL    HW178694   2.033   2.882  11.251  1.4267 -0.7636  1.4678
23242SOL    HW278695   2.108   2.999  11.311 -0.2256  0.9440  0.3288
23243SOL     OW78696   9.172   3.156   6.461 -0.0794 -0.1245  0.1615
23243SOL    HW178697   9.263   3.170   6.489 -0.0807  1.2741 -0.4797
23243SOL    HW278698   9.179   3.097   6.386  0.1606 -1.2122  0.9968
23244SOL     OW78699  12.186  11.822   7.382  0.4754  0.5765  0.2481
23244SOL    HW178700  12.215  11.825   7.291  1.4102  1.8705  0.5518
23244SOL    HW278701  12.091  11.813   7.376  0.5658  0.1683 -0.8488
23245SOL     OW78702   4.371   6.773  11.006  0.1480  0.1823 -0.0847
23245SOL    HW178703   4.442   6.733  11.056  0.4772 -1.2084 -1.5720
23245SOL    HW278704   4.414   6.812  10.930 -0.5413  0.3133 -0.4183
23246SOL     OW78705   6.241   2.488   8.701 -0.0898 -0.1658  0.0730
23246SOL    HW178706   6.306   2.482   8.630 -0.4034 -0.0076 -0.2318
23246SOL    HW278707   6.159   2.461   8.660 -0.7299  2.0845 -0.2515
23247SOL     OW78708  10.114   8.708   6.478  0.0107  0.2704  0.2442
23247SOL    HW178709  10.199   8.670   6.455  0.5063  0.5512  1.5515
23247SOL    HW278710  10.133   8.798   6.501 -0.6956  0.4210  0.2591
23248SOL     OW78711   8.656  12.184   6.479  0.0349  0.2702 -0.0239
23248SOL    HW178712   8.637  12.095   6.449 -0.4233  0.2810  0.2122
23248SOL    HW278713   8.627  12.185   6.571  0.7857  0.4289  0.2207
23249SOL     OW78714   2.944   6.260   1.487 -0.3385 -0.0849 -0.5085
23249SOL    HW178715   2.904   6.192   1.541  0.5141 -0.9990 -0.9796
23249SOL    HW278716   2.876   6.326   1.475 -1.0272 -0.6194  0.3719
23250SOL     OW78717   9.671   7.533   8.650  0.1265  0.3391 -0.3455
23250SOL    HW178718   9.634   7.486   8.574  2.5815  0.6235 -1.8306
23250SOL    HW278719   9.636   7.621   8.642 -1.4272 -0.1911  0.2118
23251SOL     OW78720   2.882   1.744   2.250  0.0675 -0.2226  0.2807
23251SOL    HW178721   2.826   1.710   2.320 -0.1325  1.1611  0.8389
23251SOL    HW278722   2.823   1.794   2.194  0.6117  0.7128  0.5117
23252SOL     OW78723   6.746   7.317   0.404  0.2482  0.4745  0.3446
23252SOL    HW178724   6.687   7.266   0.458 -0.4424  0.0782 -0.7676
23252SOL    HW278725   6.788   7.378   0.466 -0.0962 -0.3331  1.4070
23253SOL     OW78726   7.819  11.764   6.997 -0.0082 -0.1553 -0.3293
23253SOL    HW178727   7.798  11.822   6.924  0.8465 -0.8292 -1.1424
23253SOL    HW278728   7.816  11.820   7.075  1.5311  1.1606 -1.1660
23254SOL     OW78729   9.049   8.903   3.629 -0.1596  0.3420 -0.6859
23254SOL    HW178730   9.010   8.834   3.683  0.8748 -0.6868 -1.2141
23254SOL    HW278731   9.079   8.858   3.550  0.1588  1.4764 -1.2344
23255SOL     OW78732   0.618   8.174   8.822 -0.2102 -0.1837 -0.7714
23255SOL    HW178733   0.526   8.174   8.850  0.0212  0.0984  0.0181
23255SOL    HW278734   0.663   8.225   8.889  0.6184 -0.8046 -0.8454
23256SOL     OW78735  10.000   8.565  11.139 -0.0219  0.4021 -0.2818
23256SOL    HW178736   9.952   8.508  11.078  0.5277 -0.0868 -0.2678
23256SOL    HW278737  10.092   8.553  11.114  0.1267  0.9560  0.0085
23257SOL     OW78738   9.079  12.245  11.279  0.3724 -0.1663 -0.0702
23257SOL    HW178739   9.065  12.322  11.224  0.0251 -0.7643 -0.8419
23257SOL    HW278740   8.999  12.193  11.269  0.1740 -0.1681  1.2354
23258SOL     OW78741   4.215  11.959   5.582  0.0719 -0.1352  0.0346
23258SOL    HW178742   4.133  12.000   5.554  0.2753  0.2819  0.0492
23258SOL    HW278743   4.283  12.019   5.552  0.3684 -0.4131  0.1456
23259SOL     OW78744   6.951   5.803   6.356  0.1422  0.1437 -0.2267
23259SOL    HW178745   6.940   5.736   6.289 -0.7165 -0.7255  0.7576
23259SOL    HW278746   6.865   5.808   6.399  0.8192  0.3051  1.1458
23260SOL     OW78747   5.668   8.843   8.967 -0.1207 -0.2609  0.1030
23260SOL    HW178748   5.626   8.790   8.899 -2.0765  1.9484 -0.5106
23260SOL    HW278749   5.760   8.815   8.965 -0.5735 -1.8498 -1.8806
23261SOL     OW78750   3.841   0.761   4.621  0.2191 -0.6338  0.6352
23261SOL    HW178751   3.755   0.778   4.660  0.0397 -1.5744  0.6896
23261SOL    HW278752   3.904   0.782   4.690  0.2162  2.3148 -0.1383
23262SOL     OW78753   5.861   3.561   4.287 -0.0365 -0.6194 -0.4055
23262SOL    HW178754   5.871   3.470   4.314 -0.0787 -0.1574  1.3166
23262SOL    HW278755   5.919   3.610   4.347 -1.0230  0.6064 -0.4141
23263SOL     OW78756   3.681   8.928   9.345  0.0628  0.2511 -1.0923
23263SOL    HW178757   3.593   8.938   9.383  1.3037  2.5757  1.5596
23263SOL    HW278758   3.673   8.962   9.256 -1.7380  0.3750 -0.9186
23264SOL     OW78759   1.826   4.214   6.949  0.2266  0.5766  0.8313
23264SOL    HW178760   1.847   4.307   6.959  1.3236  0.4290  0.1139
23264SOL    HW278761   1.814   4.202   6.855  1.5869 -0.2869  0.7337
23265SOL     OW78762  10.462   3.334   3.594  0.2135  0.1157 -0.3176
23265SOL    HW178763  10.531   3.323   3.659 -0.3803  1.0872  0.5129
23265SOL    HW278764  10.487   3.413   3.546  0.4180 -0.3465 -0.9723
23266SOL     OW78765  10.328   7.531   1.622  0.3439  0.0800 -0.0174
23266SOL    HW178766  10.371   7.583   1.690  0.3889  0.1282 -0.0825
23266SOL    HW278767  10.368   7.445   1.627  0.3339  0.0780  0.0302
23267SOL     OW78768   3.539   8.054   3.752  0.4050  0.0422 -0.2865
23267SOL    HW178769   3.504   7.993   3.817  1.9570 -3.2015 -2.1915
23267SOL    HW278770   3.552   8.136   3.799 -0.7154 -1.4243  2.8207
23268SOL     OW78771   6.970   3.775  11.334 -0.3922  0.1246 -0.3834
23268SOL    HW178772   6.965   3.822  11.417 -0.2217 -1.5779  0.6332
23268SOL    HW278773   6.895   3.715  11.336 -0.5285  0.2186 -1.5826
23269SOL     OW78774  10.851   2.688  11.530  0.6049 -0.8026 -0.5435
23269SOL    HW178775  10.803   2.640  11.598  1.7841 -2.7198 -1.0033
23269SOL    HW278776  10.915   2.740  11.579  0.5786 -1.1696 -0.1064
23270SOL     OW78777   2.080   0.719   1.868  0.1855  0.6157 -0.3706
23270SOL    HW178778   2.028   0.797   1.848  0.3606  0.8398  0.0146
23270SOL    HW278779   2.135   0.746   1.942 -1.7199 -0.7100  1.6527
23271SOL     OW78780  10.682   2.147  10.449  0.4577 -0.5408  0.2128
23271SOL    HW178781  10.624   2.089  10.498  1.0047 -0.8731  0.4834
23271SOL    HW278782  10.764   2.098  10.442  0.5891 -0.2359 -0.4851
23272SOL     OW78783   4.254   2.367   9.637 -0.2502  0.1291  0.2824
23272SOL    HW178784   4.166   2.366   9.674 -0.5348 -1.3546 -0.3689
23272SOL    HW278785   4.260   2.452   9.593 -1.7512 -0.1261 -0.5181
23273SOL     OW78786   1.445   5.495   1.858 -0.2933  0.1765  0.3214
23273SOL    HW178787   1.481   5.578   1.829 -0.7874 -0.1502 -1.3086
23273SOL    HW278788   1.382   5.518   1.927 -2.9778  1.5370 -2.3827
23274SOL     OW78789   6.349   3.691   1.917 -0.1495  0.0890  0.0701
23274SOL    HW178790   6.398   3.772   1.915  0.3182 -0.1354  1.3000
23274SOL    HW278791   6.257   3.718   1.916 -0.0819  0.8487  3.1444
23275SOL     OW78792  10.545   6.694   2.685 -0.5377  0.1625  0.4309
23275SOL    HW178793  10.482   6.711   2.755 -1.0386  0.8460 -0.1735
23275SOL    HW278794  10.495   6.705   2.604  0.8096  2.8644 -0.1593
23276SOL     OW78795   4.291  10.009   0.497  0.2547 -0.6603 -0.2622
23276SOL    HW178796   4.334   9.951   0.434  0.5066 -0.3208 -0.4023
23276SOL    HW278797   4.228  10.059   0.446  0.7411 -0.0952 -0.3267
23277SOL     OW78798   9.430   0.176   1.708 -0.5644 -0.4204  0.2111
23277SOL    HW178799   9.380   0.257   1.700 -2.5775 -1.2549  2.7623
23277SOL    HW278800   9.453   0.153   1.618 -0.9037  2.3501 -0.6725
23278SOL     OW78801   8.398   9.810   4.633  0.2003  0.4614 -0.7417
23278SOL    HW178802   8.486   9.825   4.666  1.4660 -2.1215 -2.6416
23278SOL    HW278803   8.354   9.760   4.703  0.4921  1.0248 -0.1464
23279SOL     OW78804   0.446   0.059   6.794 -0.0414  0.1715  0.2730
23279SOL    HW178805   0.454   0.116   6.871 -0.7245  0.1062  0.3951
23279SOL    HW278806   0.535   0.056   6.758  0.3557 -0.0022  1.2085
23280SOL     OW78807   4.127   5.196  10.880 -0.1001  0.1221 -0.0133
23280SOL    HW178808   4.121   5.109  10.918 -1.0350  0.3845  0.4674
23280SOL    HW278809   4.221   5.209  10.864 -0.0228 -1.2306 -0.7370
23281SOL     OW78810   6.553   0.196   7.416 -0.5624 -0.0973 -0.3250
23281SOL    HW178811   6.485   0.162   7.357 -1.3712  0.1350  0.4619
23281SOL    HW278812   6.598   0.263   7.364  0.0169 -1.2196 -1.3410
23282SOL     OW78813   6.541   6.069   7.249  0.4333  0.2589 -0.1864
23282SOL    HW178814   6.460   6.024   7.273  1.2925 -0.7139  1.0569
23282SOL    HW278815   6.580   6.014   7.181  0.2680  0.4796 -0.4594
23283SOL     OW78816  11.086  12.514  10.718  0.1738  0.5137 -0.0578
23283SOL    HW178817  11.089  12.432  10.668  2.2592 -0.4842  1.5308
23283SOL    HW278818  11.178  12.540  10.725 -0.1750  1.3343  2.0392
23284SOL     OW78819   9.130   7.320   8.187  0.5475  0.3065 -0.5336
23284SOL    HW178820   9.105   7.264   8.261 -1.8764  1.5724 -0.2630
23284SOL    HW278821   9.131   7.408   8.223  2.5090  0.6579 -1.3453
23285SOL     OW78822   4.197   3.688  10.795 -0.4778  0.1767 -0.4038
23285SOL    HW178823   4.138   3.616  10.772 -1.2953  0.4479  0.7681
23285SOL    HW278824   4.196   3.745  10.718 -0.1408 -0.8354 -1.1897
23286SOL     OW78825   4.500  10.758  12.106  0.1378 -0.0775  0.0791
23286SOL    HW178826   4.435  10.814  12.147 -0.6888 -0.9929  0.0659
23286SOL    HW278827   4.553  10.817  12.053 -1.1923  0.6012 -0.5505
23287SOL     OW78828   8.194   1.390   9.873 -0.3671  0.2512 -0.1051
23287SOL    HW178829   8.140   1.381   9.794  0.5209 -0.4561 -0.6554
23287SOL    HW278830   8.277   1.347   9.850 -0.7870 -1.8252  1.9171
23288SOL     OW78831   2.177   2.987   6.629 -0.3066  0.1825  0.2517
23288SOL    HW178832   2.164   3.041   6.550 -1.4442 -1.0557 -0.4557
23288SOL    HW278833   2.192   3.050   6.699  0.1923  1.3441 -0.8626
23289SOL     OW78834  10.955   0.777  10.844 -0.0671  0.0250  0.1622
23289SOL    HW178835  10.940   0.871  10.836 -0.0785  0.1082  1.0183
23289SOL    HW278836  10.981   0.765  10.935 -0.9998 -0.9273  0.3276
23290SOL     OW78837  11.092  11.693  10.505 -0.0740  0.5435 -0.1748
23290SOL    HW178838  11.052  11.663  10.587  0.6582 -1.7149 -0.5773
23290SOL    HW278839  11.182  11.715  10.529 -0.3736  1.7241 -0.0498
23291SOL     OW78840   0.417   6.556   3.706 -0.2442 -0.0119 -0.4402
23291SOL    HW178841   0.371   6.638   3.725  0.1564  0.2677 -0.6640
23291SOL    HW278842   0.363   6.488   3.747 -2.0202  0.0535 -2.4805
23292SOL     OW78843   5.120   6.016  11.962 -0.0225 -0.3087  0.9013
23292SOL    HW178844   5.145   6.034  11.872 -2.0738  1.9434  0.6691
23292SOL    HW278845   5.066   6.091  11.987 -1.0157 -1.7305  3.4084
23293SOL     OW78846  11.407   3.863  10.132 -0.0630 -0.3496  0.0472
23293SOL    HW178847  11.453   3.854  10.048 -0.6142 -0.8073 -0.2147
23293SOL    HW278848  11.371   3.951  10.130 -0.4342 -0.5053 -0.3913
23294SOL     OW78849   0.236   4.298   0.710 -0.4971 -0.1036 -0.3324
23294SOL    HW178850   0.183   4.246   0.648 -0.4176 -0.8464  0.2064
23294SOL    HW278851   0.326   4.280   0.684 -0.4806  0.6159 -0.8107
23295SOL     OW78852  11.118   0.111   2.948  0.2595  0.1880 -1.1465
23295SOL    HW178853  11.041   0.152   2.987  0.7143  0.7104 -0.7836
23295SOL    HW278854  11.091   0.090   2.859 -0.4913 -0.1740 -0.8405
23296SOL     OW78855   9.514   1.641   3.080 -0.3226 -0.2492 -0.1305
23296SOL    HW178856   9.501   1.665   2.989  0.2931 -0.4520 -0.2821
23296SOL    HW278857   9.441   1.680   3.127 -1.7464 -1.7911 -0.9855
23297SOL     OW78858   3.079   2.200   4.282 -0.0372 -0.7040  0.3720
23297SOL    HW178859   3.062   2.218   4.190  0.5655  0.1644  0.4194
23297SOL    HW278860   2.994   2.173   4.317 -0.1017 -1.8579 -0.6040
23298SOL     OW78861   6.678   1.549   3.475  0.4216  0.3206  0.2379
23298SOL    HW178862   6.726   1.501   3.407  0.3597  1.6861 -0.8195
23298SOL    HW278863   6.719   1.523   3.557  0.5453 -1.3360 -0.3133
23299SOL     OW78864   6.660  11.886   8.980 -0.5878 -0.0371 -0.5098
23299SOL    HW178865   6.583  11.833   8.960 -0.8996  0.5101 -0.7699
23299SOL    HW278866   6.716  11.875   8.903  0.8717 -2.6397  0.7682
23300SOL     OW78867   4.363   8.086  11.828  0.2554 -0.1110  0.4892
23300SOL    HW178868   4.438   8.091  11.768  1.2807  1.1009  1.7878
23300SOL    HW278869   4.378   8.005  11.878  0.2462 -0.2982  0.1932
23301SOL     OW78870   6.200   1.361   0.006 -0.0126  0.6869  0.6041
23301SOL    HW178871   6.132   1.396  -0.052  1.8581  2.5373 -0.6688
23301SOL    HW278872   6.254   1.305  -0.051 -0.1920 -0.3988  1.4740
23302SOL     OW78873   4.740  10.592   0.420  0.0305 -0.2368  0.8995
23302SOL    HW178874   4.776  10.643   0.348 -0.3936 -0.9651  0.1468
23302SOL    HW278875   4.645  10.606   0.415  0.1309  1.2992  2.5799
23303SOL     OW78876   8.560   8.396   5.786 -0.1048  0.1113  0.5144
23303SOL    HW178877   8.519   8.478   5.815 -1.1371 -0.9831  2.4070
23303SOL    HW278878   8.488   8.333   5.788  0.6636 -0.8624 -0.9521
23304SOL     OW78879   2.478   6.078   6.117  0.3401 -0.3004  0.0174
23304SOL    HW178880   2.534   6.125   6.055  0.2073 -0.7703 -0.4580
23304SOL    HW278881   2.393   6.071   6.073  0.3809 -1.0572  0.0448
23305SOL     OW78882  12.340   8.652   9.404 -0.2721 -0.5315 -0.4948
23305SOL    HW178883  12.411   8.608   9.450  0.5282  0.7481 -0.4815
23305SOL    HW278884  12.378   8.678   9.320 -1.1979 -1.2519 -1.1609
23306SOL     OW78885   6.760   1.210  12.378 -0.1173 -0.2526  0.6869
23306SOL    HW178886   6.706   1.263  12.437 -0.9165  1.2524 -1.2906
23306SOL    HW278887   6.801   1.274  12.320  1.2413 -1.6337  0.0700
23307SOL     OW78888   0.732   0.093  10.505 -0.1119  0.4972  0.2296
23307SOL    HW178889   0.803   0.036  10.476  0.0382  0.5797  0.4302
23307SOL    HW278890   0.726   0.077  10.600  0.0897  0.9877  0.3288
23308SOL     OW78891   8.674   2.761   1.210  0.2371  0.3423 -0.3280
23308SOL    HW178892   8.649   2.840   1.161 -0.8631  1.5350  1.9952
23308SOL    HW278893   8.604   2.699   1.192  0.2696  0.4548 -0.8868
23309SOL     OW78894   7.230   3.054   9.336  0.7066  0.8570  0.2084
23309SOL    HW178895   7.321   3.027   9.334 -0.0537 -2.1020  0.2324
23309SOL    HW278896   7.197   3.037   9.248 -0.3378 -0.3693  0.7939
23310SOL     OW78897   7.651  11.223   7.447 -0.1785 -0.3075 -0.4436
23310SOL    HW178898   7.668  11.174   7.527  0.7255 -0.7517 -0.8840
23310SOL    HW278899   7.557  11.244   7.451  0.1834  1.1784  1.5217
23311SOL     OW78900   5.595   2.387   7.598 -0.7053 -0.1211  0.1426
23311SOL    HW178901   5.528   2.400   7.531 -2.0180 -0.0564  1.4018
23311SOL    HW278902   5.651   2.318   7.563 -2.6440 -1.6606 -0.1241
23312SOL     OW78903   4.566   2.983  10.765  0.0114  0.1127  0.6498
23312SOL    HW178904   4.492   2.961  10.821  0.1783  0.1365  0.8827
23312SOL    HW278905   4.631   3.021  10.825 -0.2057  1.0876  0.2745
23313SOL     OW78906   8.860  10.335   1.491  0.7175  0.5756 -0.6049
23313SOL    HW178907   8.907  10.257   1.463  1.6639  1.2765 -0.9874
23313SOL    HW278908   8.880  10.401   1.425  1.5552  1.7386  0.7645
23314SOL     OW78909   1.293   6.605   0.597 -0.0123 -0.4530 -0.0625
23314SOL    HW178910   1.290   6.528   0.540 -0.7366 -1.8646  1.7796
23314SOL    HW278911   1.291   6.569   0.686  2.4468  1.5744  0.9339
23315SOL     OW78912   6.442   3.985   8.752 -0.0366  0.0759  0.0010
23315SOL    HW178913   6.417   3.981   8.844  0.5515  0.2440  0.1711
23315SOL    HW278914   6.391   4.058   8.716 -2.6106 -1.8531 -0.5632
23316SOL     OW78915   5.325   2.172   8.095 -0.2941 -0.3200 -0.2992
23316SOL    HW178916   5.232   2.190   8.078  0.2011  0.6591 -2.2322
23316SOL    HW278917   5.371   2.213   8.022  1.5319 -2.5273 -0.4946
23317SOL     OW78918   1.348   3.570   1.188 -0.4109 -0.5077 -0.2719
23317SOL    HW178919   1.404   3.571   1.265 -0.0341  2.2946 -0.4539
23317SOL    HW278920   1.365   3.654   1.145 -2.9956 -0.5750 -1.6494
23318SOL     OW78921   2.452   2.732  12.449  0.6391  0.1960  0.4553
23318SOL    HW178922   2.502   2.712  12.528  1.5286 -0.7520 -0.3291
23318SOL    HW278923   2.420   2.647  12.419 -0.0736  0.6045  0.0283
23319SOL     OW78924   0.691   6.947   4.142  0.2790  0.2863 -0.2653
23319SOL    HW178925   0.736   6.863   4.141  1.3352  0.7998  0.9601
23319SOL    HW278926   0.714   6.988   4.058 -0.4995 -0.7515 -1.0034
23320SOL     OW78927  10.381   6.903  11.808 -0.0986  0.1908  0.2445
23320SOL    HW178928  10.415   6.889  11.897  2.4775  1.5218 -0.4310
23320SOL    HW278929  10.286   6.895  11.817  0.1985 -2.3729  2.5934
23321SOL     OW78930   0.570   2.509   4.553 -0.3809  0.3141 -0.0558
23321SOL    HW178931   0.559   2.511   4.458  0.2727  0.1962 -0.1363
23321SOL    HW278932   0.591   2.600   4.577 -1.2706  0.4964  0.0728
23322SOL     OW78933   3.903   9.806   3.564  0.4881 -0.7030 -0.5382
23322SOL    HW178934   3.984   9.854   3.581 -1.2208  1.6146  1.6558
23322SOL    HW278935   3.851   9.815   3.643 -1.1958 -3.8389 -1.0955
23323SOL     OW78936   6.631   0.859   3.855  0.3417 -0.2362 -0.2370
23323SOL    HW178937   6.686   0.842   3.779  1.0160  1.1323 -0.0732
23323SOL    HW278938   6.664   0.800   3.922  0.7256 -0.3758 -0.5437
23324SOL     OW78939   8.249   1.198   1.547  0.1224 -0.5653 -0.2572
23324SOL    HW178940   8.244   1.111   1.587  1.9080 -0.7681 -0.4286
23324SOL    HW278941   8.180   1.197   1.481 -1.4033 -1.0146  1.2578
23325SOL     OW78942   6.467  10.805   0.705  0.2638 -0.0935  0.3089
23325SOL    HW178943   6.386  10.807   0.653  0.7512  2.5251 -0.5028
23325SOL    HW278944   6.439  10.829   0.793 -0.1411 -1.6928  0.6589
23326SOL     OW78945   5.201   4.334   2.388 -0.2299 -0.5969  0.0407
23326SOL    HW178946   5.234   4.354   2.476 -0.8377  0.5185  0.0372
23326SOL    HW278947   5.209   4.239   2.380 -0.1664 -0.7110  1.2939
23327SOL     OW78948   2.011   9.579   6.987  0.2645  0.7398 -0.7063
23327SOL    HW178949   1.982   9.594   7.077  0.0687 -0.1610 -0.6000
23327SOL    HW278950   2.045   9.663   6.958  1.0415  0.8625  0.4647
23328SOL     OW78951   8.863   5.119   6.927 -0.1529 -0.4048 -0.1076
23328SOL    HW178952   8.790   5.063   6.954 -0.0419  0.5907  2.4631
23328SOL    HW278953   8.921   5.060   6.879 -2.4828 -1.2607 -2.0753
23329SOL     OW78954  10.403  12.290   3.567  0.7574 -0.1995  0.5979
23329SOL    HW178955  10.352  12.289   3.648  0.0888 -1.6011  0.2005
23329SOL    HW278956  10.445  12.204   3.564  0.2231 -0.4472 -0.8397
23330SOL     OW78957   4.057  12.259   6.214  0.1981  0.1597  0.0849
23330SOL    HW178958   3.988  12.325   6.222  0.1886  0.2513 -0.6597
23330SOL    HW278959   4.062  12.219   6.300  0.3936  1.3226  0.6432
23331SOL     OW78960   7.283   9.642   3.859  0.1315  0.1679  0.0835
23331SOL    HW178961   7.261   9.551   3.842  0.5438  0.0931 -0.0508
23331SOL    HW278962   7.312   9.644   3.950 -0.7856  0.3347  0.3828
23332SOL     OW78963   3.233   4.029   4.344 -0.4210  0.5327 -0.5556
23332SOL    HW178964   3.198   3.976   4.272 -1.5190  0.8110 -0.2402
23332SOL    HW278965   3.253   3.966   4.413 -0.4284  0.3870 -0.6860
23333SOL     OW78966   4.975   9.262   9.679 -0.2897  0.1839 -0.5486
23333SOL    HW178967   4.882   9.253   9.700 -0.4409  2.7409  0.2108
23333SOL    HW278968   5.020   9.242   9.761 -0.3480  1.2122 -0.2463
23334SOL     OW78969  10.514   3.884   6.900  0.3868 -0.1125  0.4060
23334SOL    HW178970  10.438   3.906   6.846  1.4005  1.1732 -0.5468
23334SOL    HW278971  10.496   3.925   6.985 -0.7004 -1.1915  0.7250
23335SOL     OW78972   8.191  12.342  10.293 -0.1413  0.7374  0.0652
23335SOL    HW178973   8.168  12.253  10.266  0.3729  0.3565  0.8449
23335SOL    HW278974   8.282  12.335  10.322 -0.5616  1.1631  1.6062
23336SOL     OW78975   6.590   4.217   5.473  0.5578 -0.2679  0.2498
23336SOL    HW178976   6.520   4.172   5.426  0.2217  0.7156 -0.2220
23336SOL    HW278977   6.611   4.160   5.547 -0.6267 -0.6474  0.3053
23337SOL     OW78978   0.337   3.095  11.748  0.5217 -0.3564 -0.3246
23337SOL    HW178979   0.262   3.037  11.764  0.9790 -1.4719 -1.9996
23337SOL    HW278980   0.330   3.162  11.817 -0.7828 -1.6284  0.8573
23338SOL     OW78981   4.499   0.811  10.425  0.4015 -0.1141 -0.4732
23338SOL    HW178982   4.473   0.902  10.414  0.2236 -0.1458 -0.3186
23338SOL    HW278983   4.417   0.764  10.441  0.3460 -0.4883 -1.7220
23339SOL     OW78984   5.414   4.016   9.287  0.3090  0.0973 -0.1279
23339SOL    HW178985   5.348   4.073   9.248  0.4352 -0.9172 -1.9366
23339SOL    HW278986   5.497   4.052   9.257  0.4013 -0.8000 -1.0104
23340SOL     OW78987   8.930   6.504   6.952 -0.0658  0.0118  0.2502
23340SOL    HW178988   9.000   6.472   6.895  0.1612  0.1801  0.4330
23340SOL    HW278989   8.967   6.582   6.994 -0.9161  1.0638 -0.8793
23341SOL     OW78990   5.343   4.659   9.713  1.0838 -0.1681 -0.3881
23341SOL    HW178991   5.296   4.661   9.796 -0.3873  2.4691 -1.1581
23341SOL    HW278992   5.293   4.599   9.658 -0.6698  1.5118 -0.7341
23342SOL     OW78993   4.973   7.171   3.607  0.2670 -0.6537  0.3466
23342SOL    HW178994   4.945   7.151   3.697 -0.1486 -0.6069  0.2260
23342SOL    HW278995   4.905   7.227   3.572 -0.0297 -1.3971 -0.3005
23343SOL     OW78996   2.389   6.574  11.291 -0.3985  0.4765 -0.3917
23343SOL    HW178997   2.408   6.543  11.379  1.2786 -1.4945 -1.3747
23343SOL    HW278998   2.314   6.522  11.262  0.6129 -0.7048 -0.9878
23344SOL     OW78999   9.604   0.097   2.405  0.0267  0.1001 -0.0451
23344SOL    HW179000   9.564   0.011   2.417  1.1343 -0.4759 -0.3283
23344SOL    HW279001   9.582   0.145   2.485 -1.4757 -0.0734 -0.3250
23345SOL     OW79002   6.989   6.136   1.767 -0.2566  0.6495 -0.3732
23345SOL    HW179003   6.906   6.126   1.814  0.8156  2.0605  2.0194
23345SOL    HW279004   6.964   6.163   1.679 -2.3905  3.2472  0.8711
23346SOL     OW79005   3.422  10.626   0.506  0.2867 -0.2765  0.2249
23346SOL    HW179006   3.348  10.663   0.457  0.1237  0.6167  1.1185
23346SOL    HW279007   3.386  10.609   0.593  1.1471  0.2049  0.6806
23347SOL     OW79008   7.495   4.282  12.344 -0.6142 -0.0259  0.3796
23347SOL    HW179009   7.577   4.309  12.385 -0.3425 -0.6367  0.2556
23347SOL    HW279010   7.428   4.303  12.408 -0.2833 -0.1621  0.7761
23348SOL     OW79011  11.553   5.938   5.376  0.3809 -0.3136 -0.0604
23348SOL    HW179012  11.588   5.932   5.465 -1.1445 -2.6719  0.4546
23348SOL    HW279013  11.560   5.849   5.342 -0.1039  0.3187 -1.9197
23349SOL     OW79014   6.145   5.392  11.366 -0.0786 -0.1234 -0.2028
23349SOL    HW179015   6.164   5.475  11.410  0.5262 -0.6451  0.5486
23349SOL    HW279016   6.223   5.372  11.315  0.9310 -1.5481  1.7491
23350SOL     OW79017   3.884   5.478   2.954  0.1648 -0.5138  0.2641
23350SOL    HW179018   3.805   5.533   2.952 -0.1089 -0.8567  1.2235
23350SOL    HW279019   3.938   5.516   3.023  0.1103 -1.2592  0.7240
23351SOL     OW79020   9.177  10.100  11.610  0.0427 -0.2205 -0.3140
23351SOL    HW179021   9.169  10.005  11.598  0.8975 -0.0535 -2.6806
23351SOL    HW279022   9.112  10.121  11.677 -0.6319 -2.3748 -0.2106
23352SOL     OW79023  11.655  11.810   4.482  0.8351 -0.1175 -0.1792
23352SOL    HW179024  11.596  11.767   4.544  0.7610  0.6233  0.2757
23352SOL    HW279025  11.609  11.805   4.398  0.6841 -0.6345 -0.0709
23353SOL     OW79026  10.088   2.076   8.948 -0.5502  0.0611  0.4529
23353SOL    HW179027  10.047   2.092   8.863  0.5533  0.7913  0.0324
23353SOL    HW279028  10.136   1.994   8.936 -3.1312 -1.7442  1.4553
23354SOL     OW79029   0.508   5.364   4.919  0.4588  0.1086 -0.1723
23354SOL    HW179030   0.583   5.421   4.935  0.3898  0.1470  0.0273
23354SOL    HW279031   0.433   5.423   4.915  0.1947 -0.0715  1.4086
23355SOL     OW79032   5.428   0.042  12.191 -0.1013 -0.2925  0.3471
23355SOL    HW179033   5.416   0.121  12.244 -0.1574 -0.0554 -0.0140
23355SOL    HW279034   5.522   0.037  12.176 -0.2946  1.9177 -2.8917
23356SOL     OW79035   5.571   9.160   4.446  0.3049 -0.1978  0.1847
23356SOL    HW179036   5.635   9.125   4.384 -0.4494 -0.8211 -0.2581
23356SOL    HW279037   5.486   9.128   4.414 -0.5913  2.8475 -0.8589
23357SOL     OW79038   0.117   6.740   0.166 -0.3465 -0.2842 -0.0370
23357SOL    HW179039   0.092   6.651   0.142  0.5944 -0.1268 -1.6696
23357SOL    HW279040   0.192   6.729   0.224 -0.5711 -0.5522  0.2091
23358SOL     OW79041   7.672  10.491   0.279 -0.3447 -0.4827 -0.2068
23358SOL    HW179042   7.673  10.586   0.267  2.9462 -0.2948  0.6344
23358SOL    HW279043   7.648  10.457   0.193  0.9937  1.0880 -1.2619
23359SOL     OW79044   5.861   2.033   6.987 -0.1356 -0.5690 -0.7634
23359SOL    HW179045   5.898   1.944   6.997 -0.3802 -0.6921 -0.9636
23359SOL    HW279046   5.832   2.056   7.075 -0.1668 -0.7280 -0.7313
23360SOL     OW79047   5.601   7.059  12.484 -0.0800 -0.4372  0.5355
23360SOL    HW179048   5.580   7.151  12.499 -0.3497  0.1261 -2.5638
23360SOL    HW279049   5.516   7.017  12.469  0.0686 -1.1257  1.5595
23361SOL     OW79050   2.268   2.919   7.727  0.1073 -0.5967 -0.5596
23361SOL    HW179051   2.273   2.917   7.631  0.1906 -1.9760 -0.5365
23361SOL    HW279052   2.357   2.899   7.756 -0.4431 -2.6904 -0.2036
23362SOL     OW79053   5.778  11.636   0.964 -0.2221  0.6731  0.3731
23362SOL    HW179054   5.721  11.605   0.893  1.0640  1.4082 -1.0592
23362SOL    HW279055   5.718  11.674   1.028 -1.4479 -0.2216 -0.1906
23363SOL     OW79056   2.904   6.273   5.516 -0.0588  0.1483  0.3659
23363SOL    HW179057   2.869   6.334   5.451 -1.0490  0.6279  1.3145
23363SOL    HW279058   2.976   6.321   5.557 -0.5316  0.5173  0.7819
23364SOL     OW79059   8.941  10.486   3.888 -0.7966  0.5150  0.2226
23364SOL    HW179060   9.029  10.448   3.884 -0.0186  2.0067  2.1068
23364SOL    HW279061   8.903  10.465   3.802  1.1774 -0.6174 -0.4477
23365SOL     OW79062  11.526   6.997   3.410 -0.1896  0.0756 -0.0233
23365SOL    HW179063  11.487   7.078   3.380 -0.1647 -0.2574 -0.9674
23365SOL    HW279064  11.455   6.933   3.405 -0.1549 -0.0112  0.5192
23366SOL     OW79065   7.969  10.671  10.977  0.4787  0.1830 -0.3744
23366SOL    HW179066   7.910  10.702  10.909  0.8698 -0.2730 -0.9356
23366SOL    HW279067   8.006  10.750  11.015  0.9654  0.4290 -1.3355
23367SOL     OW79068   1.541   6.340   0.356  0.5449  0.1994 -0.3630
23367SOL    HW179069   1.562   6.248   0.341  0.5956  0.2845 -0.8259
23367SOL    HW279070   1.625   6.380   0.379  0.6667  0.2800 -0.9262
23368SOL     OW79071  11.302   9.415  12.292  0.3968 -0.5737  0.4167
23368SOL    HW179072  11.324   9.396  12.383  3.1327  0.3856  0.0668
23368SOL    HW279073  11.374   9.471  12.262  0.6691 -2.4456 -2.8937
23369SOL     OW79074   4.702  11.456   7.577  0.2566  0.2965 -0.0073
23369SOL    HW179075   4.744  11.488   7.497 -0.7611  0.1024 -0.6318
23369SOL    HW279076   4.608  11.461   7.559  0.0361 -1.5334  0.4578
23370SOL     OW79077   5.177   4.138   3.732 -0.3370  0.3651 -0.1902
23370SOL    HW179078   5.110   4.141   3.664 -0.3713 -1.2117 -0.2845
23370SOL    HW279079   5.238   4.071   3.701  0.0020  0.1035  1.0125
23371SOL     OW79080  12.250   2.548   9.680 -0.1365  0.0775  0.1452
23371SOL    HW179081  12.244   2.586   9.768  0.1061  0.6858 -0.0963
23371SOL    HW279082  12.256   2.454   9.695  0.6816  0.2244  0.8182
23372SOL     OW79083  11.052   5.153   4.759 -0.0534 -0.3231  0.2060
23372SOL    HW179084  10.988   5.219   4.734 -1.0166 -1.0667  0.6602
23372SOL    HW279085  11.111   5.199   4.820  0.3991  0.5995 -0.8962
23373SOL     OW79086  10.670   5.647   1.696 -0.3731  0.3869  0.5585
23373SOL    HW179087  10.671   5.735   1.734 -0.5732 -0.1533  1.8501
23373SOL    HW279088  10.603   5.600   1.745  0.3785 -0.7646  0.5168
23374SOL     OW79089   9.681   1.253   4.428  0.2883 -0.0765  0.2517
23374SOL    HW179090   9.601   1.200   4.431  1.7149 -2.4715 -0.9569
23374SOL    HW279091   9.664   1.319   4.361 -1.6039  1.2397  1.9185
23375SOL     OW79092   3.096   8.998  12.005 -0.3329  0.2943  0.3210
23375SOL    HW179093   3.030   8.985  12.073 -1.1791  0.0740 -0.5206
23375SOL    HW279094   3.106   9.093  11.999 -0.5671  0.3287  0.4604
23376SOL     OW79095   3.654   6.334  11.880 -0.2992 -0.0239 -0.8427
23376SOL    HW179096   3.601   6.362  11.955 -0.8786 -1.4059 -0.6937
23376SOL    HW279097   3.700   6.413  11.852 -3.4865  1.6529 -1.8537
23377SOL     OW79098   4.443   7.101   0.421  0.5477 -0.3645  0.1641
23377SOL    HW179099   4.511   7.167   0.410 -0.1768  0.4453  0.3961
23377SOL    HW279100   4.483   7.033   0.475  0.5761  1.0499  2.0286
23378SOL     OW79101   0.315  11.628   4.051 -0.1346 -0.0939  0.2980
23378SOL    HW179102   0.287  11.654   3.963  1.4250  0.1054 -0.1690
23378SOL    HW279103   0.233  11.617   4.100 -0.9849  1.3839 -0.7161
23379SOL     OW79104   5.568   2.729   3.309  1.1132 -0.2446  0.1093
23379SOL    HW179105   5.522   2.723   3.226  2.5500  2.2746 -1.0087
23379SOL    HW279106   5.644   2.672   3.299  0.4098 -1.2573  0.3934
23380SOL     OW79107   1.770   7.365   5.389 -0.3150 -0.0113  0.2653
23380SOL    HW179108   1.830   7.293   5.368  0.0149 -0.1750  1.7168
23380SOL    HW279109   1.683   7.330   5.371 -0.0979 -0.4306  0.0116
23381SOL     OW79110   1.354   5.768   9.395  0.1974  0.1423 -0.4510
23381SOL    HW179111   1.399   5.789   9.477  1.5686  2.2042 -1.6459
23381SOL    HW279112   1.352   5.672   9.393  1.1670  0.0275  1.4310
23382SOL     OW79113  10.002  10.445   0.116  0.7281 -0.2743 -0.1365
23382SOL    HW179114   9.970  10.449   0.026 -0.2028 -3.2572 -0.0194
23382SOL    HW279115   9.932  10.401   0.164  2.0561 -0.5458  1.6236
23383SOL     OW79116   5.428   7.075   9.486  0.4591  0.3316  0.1289
23383SOL    HW179117   5.399   7.160   9.453 -0.6850  0.2216  0.7858
23383SOL    HW279118   5.367   7.013   9.446 -0.6152  0.1414  1.9422
23384SOL     OW79119   2.171   8.179   2.249 -0.1458 -0.6312 -0.0695
23384SOL    HW179120   2.192   8.190   2.157  1.4528 -1.4817  0.1536
23384SOL    HW279121   2.251   8.203   2.295 -0.2732 -2.0515  0.9773
23385SOL     OW79122   9.015   7.307   2.796  0.1332 -0.1318 -0.5159
23385SOL    HW179123   9.014   7.400   2.820  0.1878  0.0347 -1.1533
23385SOL    HW279124   8.979   7.304   2.707  0.3538 -0.6964 -0.5906
23386SOL     OW79125   9.143   3.361   2.919 -0.3134 -0.0627  0.0940
23386SOL    HW179126   9.102   3.325   2.997 -0.7179  0.3351  0.0655
23386SOL    HW279127   9.097   3.319   2.846  1.1914 -1.7511  0.0346
23387SOL     OW79128   6.461   9.766  11.785 -0.0066 -0.0689 -0.1971
23387SOL    HW179129   6.536   9.735  11.836 -0.3976  0.9264  1.0495
23387SOL    HW279130   6.489   9.759  11.694  1.0177 -1.1500  0.1719
23388SOL     OW79131   2.005   5.997   6.710  0.8817  0.2868 -0.1368
23388SOL    HW179132   2.018   6.079   6.663 -2.5509  1.1601  0.1416
23388SOL    HW279133   1.949   5.944   6.652  1.5069 -1.1090  0.4802
23389SOL     OW79134   6.209   6.571   2.841  0.1893 -0.1537  0.0395
23389SOL    HW179135   6.162   6.640   2.794  0.3940 -0.5502 -0.7742
23389SOL    HW279136   6.302   6.593   2.829  0.2577 -0.6141 -0.3124
23390SOL     OW79137   0.291   6.403  11.683 -1.0042  0.2344 -0.5682
23390SOL    HW179138   0.216   6.439  11.637 -2.0758 -1.8199 -0.5840
23390SOL    HW279139   0.271   6.309  11.691  1.1672 -0.2278  0.1987
23391SOL     OW79140  11.505   0.485   3.378  0.3414  0.5316 -0.0774
23391SOL    HW179141  11.587   0.516   3.416  0.4487 -0.5311  0.6141
23391SOL    HW279142  11.440   0.496   3.448 -0.1870  1.6838 -0.7361
23392SOL     OW79143   8.710   8.346   1.789  0.0593 -0.2768  0.2462
23392SOL    HW179144   8.639   8.410   1.787 -1.0903 -1.4747  0.8259
23392SOL    HW279145   8.753   8.361   1.873 -0.7317 -0.7772  0.7553
23393SOL     OW79146   3.337   2.602   7.270 -0.0586 -0.0805 -0.1075
23393SOL    HW179147   3.364   2.553   7.348  1.1563  0.0951 -0.4106
23393SOL    HW279148   3.405   2.668   7.258 -1.0259  0.8891 -0.4387
23394SOL     OW79149   3.637   0.871  10.902  0.0176 -0.2762  0.5604
23394SOL    HW179150   3.612   0.919  10.982  0.3822 -1.7658  1.6002
23394SOL    HW279151   3.582   0.909  10.834 -0.5634  0.7948  1.5800
23395SOL     OW79152  10.644   7.116   4.798 -0.4226  0.5960  0.0393
23395SOL    HW179153  10.582   7.157   4.858 -1.5487  1.0336 -1.3578
23395SOL    HW279154  10.707   7.185   4.778 -0.2751  0.5680  0.3975
23396SOL     OW79155   1.148   8.726   4.076 -0.3164  0.5170 -0.0787
23396SOL    HW179156   1.138   8.783   4.151 -0.6582  0.8542 -0.3744
23396SOL    HW279157   1.106   8.644   4.102  1.0999  0.0107  0.7393
23397SOL     OW79158   9.779   2.989  11.269 -0.7555  0.2972 -0.2679
23397SOL    HW179159   9.707   3.029  11.318  0.5474  1.9138  0.4339
23397SOL    HW279160   9.776   3.033  11.184  0.7327  2.0660  0.5341
23398SOL     OW79161   3.222   0.031   1.273  0.0149 -0.0342  0.4601
23398SOL    HW179162   3.310  -0.003   1.288  0.8749  1.9806  0.3826
23398SOL    HW279163   3.198   0.072   1.357 -1.2006 -1.2356  0.7294
23399SOL     OW79164   2.346   8.902   9.057  0.2049  0.0046 -0.2924
23399SOL    HW179165   2.311   8.820   9.022 -0.5331 -0.0392  0.5199
23399SOL    HW279166   2.386   8.945   8.981 -0.7039 -0.4260 -1.0397
23400SOL     OW79167   8.916   5.675  10.117  0.1728  0.0324 -0.3705
23400SOL    HW179168   8.960   5.591  10.131 -0.5648 -0.2174  0.6259
23400SOL    HW279169   8.976   5.739  10.155 -0.3160 -0.3128  1.0674
23401SOL     OW79170   3.683   1.600   5.768  0.1419 -0.4377  0.2828
23401SOL    HW179171   3.661   1.654   5.843 -1.7711  1.7552 -1.6965
23401SOL    HW279172   3.618   1.530   5.768 -1.2378  0.7996 -0.4618
23402SOL     OW79173   2.120   4.853   8.937  0.1123 -0.1099  0.5820
23402SOL    HW179174   2.147   4.934   8.894 -0.4690 -0.1853  0.0559
23402SOL    HW279175   2.161   4.857   9.023  0.3747  0.5771  0.4357
23403SOL     OW79176   5.581   8.665   1.673 -0.0921  0.2312  0.1005
23403SOL    HW179177   5.493   8.701   1.668  0.1500  0.7317 -0.8952
23403SOL    HW279178   5.570   8.571   1.657 -0.2374  0.6160 -2.5875
23404SOL     OW79179   8.618   2.924   0.985 -0.1692 -0.0777 -0.1053
23404SOL    HW179180   8.643   2.847   0.933 -0.7856 -0.6549  0.4310
23404SOL    HW279181   8.555   2.971   0.930 -1.8916 -1.4272  0.6425
23405SOL     OW79182  11.417   2.622  11.913  0.3296 -0.5939 -0.5623
23405SOL    HW179183  11.461   2.585  11.836  1.7177 -0.9491  0.3521
23405SOL    HW279184  11.420   2.716  11.900 -0.0763 -0.6772 -1.2731
23406SOL     OW79185  10.917   3.536   9.214  1.0575 -0.0629 -0.1305
23406SOL    HW179186  10.860   3.493   9.278  1.8289  0.2261  0.7782
23406SOL    HW279187  11.000   3.547   9.260  0.9799  2.1398 -0.4292
23407SOL     OW79188   9.056   9.542   9.836  0.4212 -0.2036  1.2007
23407SOL    HW179189   9.069   9.448   9.826 -1.0988 -0.2501 -1.1721
23407SOL    HW279190   9.021   9.553   9.924 -1.0383 -2.1205  0.9171
23408SOL     OW79191  10.687   9.915   4.880 -0.3581 -0.2384 -0.1426
23408SOL    HW179192  10.711   9.871   4.962  1.1049 -1.0430 -0.9522
23408SOL    HW279193  10.611   9.868   4.848  0.0986 -1.0252 -0.0849
23409SOL     OW79194  11.379   0.762   1.871  0.0029  0.5414 -0.2259
23409SOL    HW179195  11.319   0.815   1.923  0.4390 -0.4795  1.4002
23409SOL    HW279196  11.466   0.786   1.902  0.3828  0.9302 -1.5128
23410SOL     OW79197  11.207  11.902   3.863  0.2708  0.7815 -0.3849
23410SOL    HW179198  11.267  11.933   3.931  1.1139 -0.3971 -0.5474
23410SOL    HW279199  11.259  11.906   3.783 -0.8881  2.6962 -1.1102
23411SOL     OW79200   7.364  12.247   3.706  0.6911  0.2692  0.6802
23411SOL    HW179201   7.313  12.325   3.682  1.6060  1.5033  2.4962
23411SOL    HW279202   7.334  12.180   3.645 -3.2190  0.8357  1.6461
23412SOL     OW79203   2.627   7.246   0.063  0.2880 -0.4457  0.5927
23412SOL    HW179204   2.555   7.274   0.119 -0.8470  0.6626 -1.2972
23412SOL    HW279205   2.695   7.311   0.078 -0.3649  0.3899  0.0537
23413SOL     OW79206   8.218   6.951   8.125  0.2804 -0.5184 -0.1824
23413SOL    HW179207   8.143   6.975   8.072  0.2190 -2.2412 -0.9190
23413SOL    HW279208   8.278   7.026   8.117 -1.6296  1.2354  1.0704
23414SOL     OW79209   7.508   2.551  10.393 -0.1085  0.3209 -0.0504
23414SOL    HW179210   7.600   2.537  10.416 -0.4374  1.0609  1.9686
23414SOL    HW279211   7.494   2.497  10.315  2.0570  0.3259 -0.5012
23415SOL     OW79212   6.894   8.307  12.244 -0.0138 -0.5949 -0.1516
23415SOL    HW179213   6.889   8.214  12.223  1.1581 -0.4075 -1.3770
23415SOL    HW279214   6.811   8.343  12.212  0.0231 -1.0323 -0.7585
23416SOL     OW79215   3.163   8.316   0.131 -0.1308 -0.3065  0.2123
23416SOL    HW179216   3.163   8.312   0.035  0.7253  1.0840  0.1307
23416SOL    HW279217   3.254   8.302   0.155  0.1530  1.9883  0.6514
23417SOL     OW79218  11.383  12.301  11.563  0.1226  0.2897  0.0647
23417SOL    HW179219  11.403  12.280  11.654 -0.3613  2.1217  0.6273
23417SOL    HW279220  11.311  12.364  11.567  2.0236  2.7555 -1.3879
23418SOL     OW79221   8.186  10.074   0.015 -0.2309 -0.0794  0.2467
23418SOL    HW179222   8.150  10.028   0.091 -0.6337  0.5079  0.4229
23418SOL    HW279223   8.124  10.145  -0.001  0.1297  0.1180 -0.3108
23419SOL     OW79224   2.580  10.829   5.506 -0.2958 -0.3142 -0.1599
23419SOL    HW179225   2.613  10.739   5.505  1.9785  0.4521 -1.1556
23419SOL    HW279226   2.569  10.851   5.413  1.2722  1.1094 -0.0442
23420SOL     OW79227   3.670   3.343   3.475 -0.3386  0.3127  0.4680
23420SOL    HW179228   3.694   3.250   3.472  0.0400  0.4319 -2.2184
23420SOL    HW279229   3.753   3.388   3.489 -0.2860  0.3069  0.1847
23421SOL     OW79230   9.228   6.227   2.527 -0.5327 -0.0888  0.5554
23421SOL    HW179231   9.316   6.239   2.561 -0.7295  2.3209  0.3944
23421SOL    HW279232   9.170   6.257   2.597 -1.1129  0.6771 -0.2348
23422SOL     OW79233   9.486   8.670   9.152 -0.7787 -0.5561 -0.0158
23422SOL    HW179234   9.408   8.668   9.096  0.4131  0.2842 -1.7708
23422SOL    HW279235   9.559   8.655   9.093  0.3421 -3.9169  1.9168
23423SOL     OW79236   4.831   9.032   3.190 -0.2993 -0.2578 -0.1606
23423SOL    HW179237   4.840   9.117   3.233 -0.8238  0.2556 -1.0366
23423SOL    HW279238   4.892   9.035   3.117  0.0845 -0.8566  0.1293
23424SOL     OW79239   4.943   9.532   7.028  0.2535 -0.2057  0.1612
23424SOL    HW179240   4.979   9.602   6.974 -1.2997  0.3157 -0.2538
23424SOL    HW279241   4.889   9.576   7.093  1.2264 -0.8955  1.4928
23425SOL     OW79242   1.402  10.363  10.422  0.6849 -0.4687  0.4646
23425SOL    HW179243   1.425  10.280  10.464  0.6503  0.1114  1.6736
23425SOL    HW279244   1.407  10.427  10.492 -1.0947  0.2779 -0.0443
23426SOL     OW79245   5.086   0.448   9.633  0.6053 -0.1417 -0.0870
23426SOL    HW179246   5.141   0.516   9.672 -0.3833  0.3829  0.4257
23426SOL    HW279247   5.070   0.386   9.704 -1.7413  1.1492  0.6396
23427SOL     OW79248  10.836   0.539   4.040 -0.3693 -0.4938 -0.0276
23427SOL    HW179249  10.832   0.566   4.132 -1.0157  0.9836 -0.4757
23427SOL    HW279250  10.906   0.592   4.003  1.1986 -2.4170 -0.0010
23428SOL     OW79251   2.716   8.168   2.681 -0.1706  0.2294  0.1365
23428SOL    HW179252   2.691   8.154   2.590 -0.8431  1.9145  0.0320
23428SOL    HW279253   2.667   8.102   2.730 -0.0414 -0.4850 -0.6633
23429SOL     OW79254   5.443  11.022   8.369 -0.2293 -0.3273 -0.1086
23429SOL    HW179255   5.397  11.101   8.340 -0.5258 -0.5061 -0.1211
23429SOL    HW279256   5.376  10.968   8.410 -0.4449 -1.4760 -1.8933
23430SOL     OW79257   0.487   3.071   1.800 -0.2263  0.3486 -0.0817
23430SOL    HW179258   0.511   2.999   1.742  0.2846  0.0516  0.4868
23430SOL    HW279259   0.483   3.148   1.743 -2.1409 -0.3400 -0.9700
23431SOL     OW79260   5.098  11.989  10.478 -0.5842 -0.0424  0.2378
23431SOL    HW179261   5.011  12.019  10.451 -0.4269  0.9065  0.7237
23431SOL    HW279262   5.125  11.927  10.411 -2.0376 -1.1037  0.5887
23432SOL     OW79263  12.468  12.298  10.194  0.1713  0.1106  0.0801
23432SOL    HW179264  12.456  12.232  10.126 -1.2138  0.9581 -0.5548
23432SOL    HW279265  12.408  12.271  10.264 -0.0091  0.3947  0.0386
23433SOL     OW79266   5.301   8.329   1.025  0.3367 -0.0689  0.4543
23433SOL    HW179267   5.234   8.304   0.962  0.1776 -0.7596  0.8926
23433SOL    HW279268   5.265   8.406   1.068  0.3415  0.2654 -0.1196
23434SOL     OW79269   4.324   6.704  10.694  0.0730  0.3333  0.6551
23434SOL    HW179270   4.418   6.715  10.707  0.0350  0.4412  0.8451
23434SOL    HW279271   4.299   6.777  10.638  0.1644  0.1007  0.3050
23435SOL     OW79272   7.923  10.643   5.807 -0.1111  0.6487  0.2495
23435SOL    HW179273   7.925  10.712   5.874 -1.1921  0.4578  0.4989
23435SOL    HW279274   7.838  10.654   5.765 -0.5233 -0.8512  0.6309
23436SOL     OW79275   7.318   0.840   8.323 -0.4622  0.3310 -0.1498
23436SOL    HW179276   7.360   0.777   8.381 -0.1348 -0.2175 -0.9744
23436SOL    HW279277   7.387   0.868   8.263 -0.9041  0.5462 -0.5643
23437SOL     OW79278  10.138   1.909   7.503  0.3560 -1.0653 -0.0885
23437SOL    HW179279  10.121   1.927   7.596  1.1776  0.3985 -0.1940
23437SOL    HW279280  10.058   1.937   7.459 -0.4211 -2.6516  0.2255
23438SOL     OW79281  11.972   0.000   0.216 -0.3488  0.1991 -0.3480
23438SOL    HW179282  11.923  -0.053   0.279 -1.1828 -0.2327 -1.3219
23438SOL    HW279283  12.029  -0.062   0.171  1.4514  0.7573  1.0451
23439SOL     OW79284   1.343   1.680  11.715 -0.5831 -1.2105 -0.3701
23439SOL    HW179285   1.302   1.721  11.638 -0.0646  0.0124 -0.0106
23439SOL    HW279286   1.269   1.642  11.764 -1.1349 -0.2572 -0.4471
23440SOL     OW79287  11.203  10.139   5.922  0.5266  0.1208  0.2634
23440SOL    HW179288  11.296  10.159   5.918  0.3759  0.9694  0.7290
23440SOL    HW279289  11.196  10.071   5.989  0.8306 -0.1148  0.0599
23441SOL     OW79290  11.470   5.110   6.256  0.0744  0.6831  0.1249
23441SOL    HW179291  11.555   5.078   6.223  1.1849  1.2637  2.2688
23441SOL    HW279292  11.488   5.199   6.287 -0.9073  0.2357  2.1218
23442SOL     OW79293   0.507   8.288   8.005 -0.2319  0.1237  0.1436
23442SOL    HW179294   0.598   8.298   8.032 -0.1561 -0.7890  0.2275
23442SOL    HW279295   0.456   8.326   8.078  0.0409 -0.3973  0.6087
23443SOL     OW79296  10.247   9.126   0.813  0.2559  0.0761 -0.8586
23443SOL    HW179297  10.261   9.036   0.843  1.0060  0.3026 -0.5121
23443SOL    HW279298  10.285   9.181   0.881 -0.1659  0.6624 -1.0838
23444SOL     OW79299   2.297   4.736  11.894 -0.0364 -0.0030 -0.2321
23444SOL    HW179300   2.380   4.744  11.941 -0.0236 -0.5651 -0.1547
23444SOL    HW279301   2.321   4.718  11.804 -0.0706 -0.7015 -0.1090
23445SOL     OW79302   6.427   8.173  10.093 -0.2287  1.1183  0.4762
23445SOL    HW179303   6.425   8.231  10.169  0.9281  1.7644  0.0365
23445SOL    HW279304   6.376   8.096  10.120  0.6779  1.0588  2.1258
23446SOL     OW79305   3.362  11.172  11.428 -0.2911 -0.3904  0.3531
23446SOL    HW179306   3.355  11.217  11.344  0.4828 -0.6498  0.1410
23446SOL    HW279307   3.452  11.140  11.431 -0.2075 -0.0956  1.4284
23447SOL     OW79308   5.870  11.213  10.521 -0.1202 -0.2621 -0.1185
23447SOL    HW179309   5.842  11.261  10.443 -2.1433 -0.4613  0.4285
23447SOL    HW279310   5.790  11.175  10.556  0.8418 -0.7463  1.7002
23448SOL     OW79311  12.251  10.986   5.512  0.0444  0.1830  0.0119
23448SOL    HW179312  12.229  10.900   5.546 -0.2114  0.7857  1.4335
23448SOL    HW279313  12.325  11.015   5.565 -1.2208  1.7044  1.0293
23449SOL     OW79314   8.187   6.119   1.243 -0.1561  0.7290 -0.2217
23449SOL    HW179315   8.139   6.057   1.188 -0.2189  1.0615 -0.5477
23449SOL    HW279316   8.254   6.156   1.184  1.5615 -0.8752  0.6105
23450SOL     OW79317   5.473  12.027  12.010 -0.1864 -0.1549  0.2454
23450SOL    HW179318   5.466  12.058  12.100  0.9641 -0.4319  0.4367
23450SOL    HW279319   5.528  11.948  12.015  0.1416 -0.0072 -0.7327
23451SOL     OW79320   8.994  11.998   2.336  0.1159 -0.4994  0.0439
23451SOL    HW179321   8.909  12.010   2.379 -0.1906 -0.1400 -0.6343
23451SOL    HW279322   8.975  12.012   2.243  1.1239  0.7179 -0.0020
23452SOL     OW79323   7.978   3.519   6.091  0.2029  0.1870  0.2131
23452SOL    HW179324   8.064   3.503   6.131  2.0475  3.9551 -1.6489
23452SOL    HW279325   7.976   3.464   6.013  0.4157 -0.7193  0.8360
23453SOL     OW79326   2.795   7.591   0.047 -0.3163  0.4586 -0.3979
23453SOL    HW179327   2.853   7.555  -0.020  0.2872 -1.9369  1.2783
23453SOL    HW279328   2.721   7.627  -0.002  0.5426 -0.2991 -2.3718
23454SOL     OW79329   8.634   9.439   9.133 -0.0693 -0.5072 -0.1327
23454SOL    HW179330   8.687   9.471   9.206 -0.6614  2.0904 -0.7287
23454SOL    HW279331   8.558   9.399   9.175  0.6233 -1.0150  0.6771
23455SOL     OW79332   0.221   3.300  11.029  0.7040  0.2066 -0.3561
23455SOL    HW179333   0.170   3.226  10.995  0.0774  0.0009  0.9621
23455SOL    HW279334   0.227   3.361  10.956 -1.0186  0.0111 -0.6914
23456SOL     OW79335  11.595   9.464  11.648  0.0426 -0.3161  0.2523
23456SOL    HW179336  11.598   9.420  11.563 -1.5823  0.2240 -0.1264
23456SOL    HW279337  11.565   9.553  11.627 -0.3365 -0.1699  1.3776
23457SOL     OW79338   3.999   6.503   2.631  0.0464 -0.0344 -0.0304
23457SOL    HW179339   4.086   6.471   2.654 -0.3674 -1.3164 -0.2070
23457SOL    HW279340   3.942   6.468   2.699 -0.4460  0.2020 -0.3199
23458SOL     OW79341  12.212   7.982   0.222  0.0615 -0.6453 -0.2969
23458SOL    HW179342  12.136   7.980   0.279  1.3072  0.4656  1.5348
23458SOL    HW279343  12.253   7.896   0.233  0.2559 -0.4643  0.4894
23459SOL     OW79344  12.094  11.561   3.134 -0.0898  0.1442 -0.0639
23459SOL    HW179345  12.002  11.541   3.146  0.0007 -0.3912 -0.2113
23459SOL    HW279346  12.095  11.651   3.100 -0.3622  1.5604  3.3310
23460SOL     OW79347   0.358   4.411   2.558  0.0835  0.3670 -0.1737
23460SOL    HW179348   0.332   4.470   2.487 -0.1232 -0.9780 -1.2608
23460SOL    HW279349   0.453   4.400   2.546  0.1944  0.7768  0.2805
23461SOL     OW79350   5.368   1.274   2.839 -0.1626 -0.0618 -0.2940
23461SOL    HW179351   5.328   1.361   2.835 -1.2032 -0.4134  1.2819
23461SOL    HW279352   5.332   1.227   2.764 -0.6355  0.4585 -0.4005
23462SOL     OW79353   9.958   8.330  11.769  0.0122 -0.1996 -0.1269
23462SOL    HW179354   9.994   8.373  11.691  1.8591  0.1864  0.8915
23462SOL    HW279355   9.869   8.365  11.776 -0.4401 -0.7210 -2.3883
23463SOL     OW79356   4.428   6.097   2.417 -0.5244 -0.4047 -0.6280
23463SOL    HW179357   4.385   6.094   2.331 -1.6144  1.1116 -0.1871
23463SOL    HW279358   4.356   6.102   2.479  0.0500  4.5336  0.0585
23464SOL     OW79359   6.668  11.582   4.940 -0.3018 -0.8697  0.3441
23464SOL    HW179360   6.613  11.659   4.949  1.2595  0.2901  0.3836
23464SOL    HW279361   6.663  11.559   4.847 -0.7092 -0.6594  0.3149
23465SOL     OW79362   0.821   0.349  10.810  0.0601  0.6884  0.0213
23465SOL    HW179363   0.845   0.259  10.832  0.7259  1.0703  0.9213
23465SOL    HW279364   0.725   0.346  10.801  0.1207 -0.2062 -0.4922
23466SOL     OW79365   9.721   1.898   5.795  0.2994  0.5759 -0.1692
23466SOL    HW179366   9.747   1.856   5.713  0.8725  1.1127 -0.2684
23466SOL    HW279367   9.635   1.861   5.814 -0.5880  1.6215 -1.8526
23467SOL     OW79368   1.657  11.069   7.408 -0.5994 -0.3445 -0.6813
23467SOL    HW179369   1.623  11.126   7.338 -0.7901 -1.1474 -1.2572
23467SOL    HW279370   1.748  11.096   7.419 -1.0328  0.9347 -0.0441
23468SOL     OW79371  10.619  10.286   0.252  0.6283 -0.0992 -0.6114
23468SOL    HW179372  10.551  10.238   0.299  0.8757 -0.8155 -0.9666
23468SOL    HW279373  10.700  10.260   0.295  0.7931 -0.2224 -0.9917
23469SOL     OW79374  11.676  10.489   5.034 -0.4194  0.1387 -0.0424
23469SOL    HW179375  11.691  10.492   5.129  0.1939  1.5916 -0.1590
23469SOL    HW279376  11.764  10.486   4.996 -0.6543 -0.0618 -0.5801
23470SOL     OW79377   3.275   1.224   3.213 -0.1708 -0.4228 -0.2354
23470SOL    HW179378   3.191   1.266   3.233  0.1482 -0.1537  0.5785
23470SOL    HW279379   3.279   1.223   3.118 -1.2804 -0.8040 -0.2976
23471SOL     OW79380  12.218   3.219  11.218 -0.4737  0.5105  0.1888
23471SOL    HW179381  12.188   3.177  11.137  0.8317  1.2213 -0.7042
23471SOL    HW279382  12.163   3.182  11.287 -2.9671  1.2863 -1.2491
23472SOL     OW79383   4.476   7.037   4.798 -0.2677  0.5151  0.7295
23472SOL    HW179384   4.404   7.013   4.857  0.0615  0.0741  0.9532
23472SOL    HW279385   4.555   7.020   4.849  0.0126  0.3435  0.2358
23473SOL     OW79386   1.649   6.608   8.238  0.0630 -0.1117  0.1934
23473SOL    HW179387   1.656   6.620   8.333 -0.3314  0.2387  0.1807
23473SOL    HW279388   1.739   6.601   8.208  0.3972  2.8759  0.1942
23474SOL     OW79389   6.986   0.379   4.808 -0.3981 -0.5037  0.0815
23474SOL    HW179390   7.040   0.302   4.788  1.0887  0.7938 -1.1126
23474SOL    HW279391   6.933   0.392   4.729  1.7873  1.6090 -1.1578
23475SOL     OW79392   4.998   1.435   5.443 -0.0362  0.5264 -0.5981
23475SOL    HW179393   4.922   1.395   5.401 -1.1915 -0.1881  1.9836
23475SOL    HW279394   4.962   1.500   5.502  1.2464 -0.3474  1.2586
23476SOL     OW79395   8.479  10.856   6.199 -0.5324 -0.1441  0.3273
23476SOL    HW179396   8.539  10.805   6.145  0.0651 -0.3812  1.1834
23476SOL    HW279397   8.528  10.937   6.218 -0.8075  0.0138  0.3585
23477SOL     OW79398   8.759   1.961   9.596 -0.5498  0.0941 -0.4275
23477SOL    HW179399   8.846   1.922   9.592 -0.1464  0.8183  0.7446
23477SOL    HW279400   8.704   1.901   9.546  0.6473 -0.2650 -1.3824
23478SOL     OW79401   7.957   4.238   4.159 -0.4694 -1.3491  0.1800
23478SOL    HW179402   7.889   4.284   4.208  0.0577 -2.3983  1.9877
23478SOL    HW279403   8.037   4.253   4.210  1.2663  1.6144 -2.9272
23479SOL     OW79404   7.382   2.635   4.691  0.2027 -0.1449  0.1014
23479SOL    HW179405   7.456   2.595   4.644 -0.1501 -1.6721  0.7872
23479SOL    HW279406   7.372   2.581   4.770 -0.4875  1.1597  0.9317
23480SOL     OW79407  12.319   2.857  11.765  0.4967 -0.8126 -0.7285
23480SOL    HW179408  12.228   2.827  11.766  0.6224 -1.1903  0.0944
23480SOL    HW279409  12.354   2.823  11.683 -0.0591 -0.7967 -0.9778
23481SOL     OW79410   6.610   0.699   6.667 -0.0809 -0.2591 -0.3254
23481SOL    HW179411   6.521   0.733   6.682  0.9462  1.5085  2.7800
23481SOL    HW279412   6.651   0.702   6.754  3.5503  0.5993 -1.8961
23482SOL     OW79413   0.070   1.850  11.446  0.6720 -0.3614  0.1865
23482SOL    HW179414  -0.020   1.842  11.414  1.1234 -3.3731 -0.6638
23482SOL    HW279415   0.112   1.911  11.385  0.0769 -1.6972 -1.6357
23483SOL     OW79416   6.681   9.222   0.003 -0.3114  0.4453  0.2519
23483SOL    HW179417   6.643   9.174   0.077  0.8358  0.3767  0.8232
23483SOL    HW279418   6.663   9.314   0.022 -2.9234  0.2759 -1.0776
23484SOL     OW79419   4.022   9.833   0.345 -0.0623  0.2269  0.2495
23484SOL    HW179420   4.116   9.830   0.330 -0.0588 -1.7630  0.4282
23484SOL    HW279421   4.010   9.800   0.434 -0.9838 -0.4204 -0.0940
23485SOL     OW79422  11.703  12.348  11.511  0.2256  0.1588 -0.4348
23485SOL    HW179423  11.624  12.355  11.564  0.6229  2.2549 -0.0449
23485SOL    HW279424  11.726  12.255  11.514 -1.5547 -0.2876  0.3969
23486SOL     OW79425   7.170   0.132   8.504  0.0996  0.0118 -0.4245
23486SOL    HW179426   7.159   0.042   8.472  0.3211 -0.5106  0.8980
23486SOL    HW279427   7.110   0.184   8.451 -1.1173 -1.1578 -0.2383
23487SOL     OW79428   6.389   5.631   5.089 -0.2052 -0.1765  0.7865
23487SOL    HW179429   6.296   5.608   5.081 -0.1935 -1.2373  3.0098
23487SOL    HW279430   6.388   5.722   5.119 -0.3775  0.9693 -2.3613
23488SOL     OW79431   7.101   6.172   5.208 -0.3792  0.6330 -0.0989
23488SOL    HW179432   7.161   6.211   5.271  0.2221  1.6241 -1.2535
23488SOL    HW279433   7.022   6.227   5.214 -0.7167  0.0865  0.5301
23489SOL     OW79434   5.772   5.602   1.691 -0.5993 -0.7969  0.3667
23489SOL    HW179435   5.767   5.688   1.650 -1.4753 -1.6643 -1.4513
23489SOL    HW279436   5.831   5.615   1.766 -0.5846  1.3232  0.0514
23490SOL     OW79437   0.396   3.674  12.198  1.0532  0.0650 -0.5776
23490SOL    HW179438   0.350   3.753  12.227  0.6676 -0.4745  0.3282
23490SOL    HW279439   0.401   3.683  12.103 -1.5367 -0.1612 -0.8206
23491SOL     OW79440   3.558   6.395   6.579 -0.0496 -0.1209  0.0370
23491SOL    HW179441   3.489   6.388   6.645  0.7360  1.3993  1.0968
23491SOL    HW279442   3.513   6.423   6.500 -0.5722  2.3142  1.0873
23492SOL     OW79443   7.582   6.206   0.894 -0.2848 -0.7560  0.3603
23492SOL    HW179444   7.624   6.258   0.962  0.8739 -0.5878 -0.4551
23492SOL    HW279445   7.628   6.122   0.897 -1.8174 -1.6103  1.3470
23493SOL     OW79446   3.565   0.128   3.224  0.3096 -0.0007 -0.0887
23493SOL    HW179447   3.543   0.172   3.142 -0.1411 -0.3253 -0.1460
23493SOL    HW279448   3.626   0.188   3.268  1.1173 -0.1466 -0.9835
23494SOL     OW79449   8.555  10.243   3.807  0.2274  0.7857  0.3248
23494SOL    HW179450   8.547  10.250   3.903 -1.8635  2.5732  0.1040
23494SOL    HW279451   8.550  10.334   3.776  3.3738  0.5106 -1.4331
23495SOL     OW79452   8.678   0.031   5.630 -0.1704  0.1382  0.3253
23495SOL    HW179453   8.644   0.063   5.546  0.6974  0.5846  0.1313
23495SOL    HW279454   8.761   0.076   5.641  0.4116 -1.0089  0.7371
23496SOL     OW79455   1.541   0.977  10.902  0.1075  0.3611 -0.2835
23496SOL    HW179456   1.637   0.986  10.899  0.0252  0.9985 -1.1479
23496SOL    HW279457   1.521   0.912  10.835 -0.1522  1.0083 -0.8396
23497SOL     OW79458   6.177   6.189   3.704 -0.5757  0.4187  0.7006
23497SOL    HW179459   6.180   6.113   3.762  2.0314  1.6637  2.3453
23497SOL    HW279460   6.114   6.249   3.746 -2.7031 -0.7460 -0.6452
23498SOL     OW79461   6.066   2.883   9.818  0.2721 -0.1825  0.4598
23498SOL    HW179462   5.977   2.852   9.830  0.1644  0.0400  0.2340
23498SOL    HW279463   6.059   2.979   9.813  0.6573 -0.0715  1.6713
23499SOL     OW79464  12.041   9.561  11.433 -0.4566  0.2326  0.0122
23499SOL    HW179465  12.104   9.504  11.388  0.6931  0.9332  0.6968
23499SOL    HW279466  11.957   9.539  11.393  0.2613 -0.4834 -1.1723
23500SOL     OW79467  11.537   9.782   6.543 -0.2624 -0.7946  0.0850
23500SOL    HW179468  11.533   9.686   6.536  1.0372 -0.8401 -0.3271
23500SOL    HW279469  11.631   9.802   6.544 -0.4976  0.4199  1.0767
23501SOL     OW79470   3.740   3.876   0.798 -0.4525  0.2836 -0.7039
23501SOL    HW179471   3.813   3.923   0.758  0.9214 -0.3286  0.9609
23501SOL    HW279472   3.756   3.882   0.892 -1.7325 -1.1449 -0.3496
23502SOL     OW79473   4.728   2.298  12.203  0.5670  0.5090 -0.3662
23502SOL    HW179474   4.673   2.221  12.192 -0.7973  1.3667  0.1611
23502SOL    HW279475   4.761   2.292  12.293 -0.4783  1.1075  0.0699
23503SOL     OW79476   1.774  11.918   1.643  0.0693 -0.7482 -0.4503
23503SOL    HW179477   1.774  11.866   1.723  0.2285 -1.0410 -0.6417
23503SOL    HW279478   1.864  11.912   1.610  0.1377 -0.1935 -0.3699
23504SOL     OW79479   9.772  10.799  12.526 -1.1832 -0.1162  0.5232
23504SOL    HW179480   9.812  10.787  12.440  0.1726  2.1687  0.7697
23504SOL    HW279481   9.683  10.829  12.507 -0.2204  2.5369 -0.1942
23505SOL     OW79482   3.676  10.222   8.440 -0.9690  0.3407 -0.5451
23505SOL    HW179483   3.702  10.138   8.403  1.1886  0.4454  0.5963
23505SOL    HW279484   3.611  10.256   8.378  0.6917 -0.5744 -2.9438
23506SOL     OW79485   3.769   3.417  12.430  0.2303  0.5440 -0.2779
23506SOL    HW179486   3.715   3.477  12.481  0.7900 -0.6237  1.8144
23506SOL    HW279487   3.724   3.333  12.438  1.3320 -0.0447 -0.1234
23507SOL     OW79488  12.216  12.133   6.665 -0.0864  0.1409  0.2137
23507SOL    HW179489  12.224  12.228   6.671 -0.4882  0.2666 -0.8613
23507SOL    HW279490  12.200  12.104   6.755  2.1277  0.8500  0.8913
23508SOL     OW79491   0.260   7.613  10.762  0.5445  0.3856  0.1757
23508SOL    HW179492   0.324   7.627  10.832  0.0976 -0.3095  0.7414
23508SOL    HW279493   0.207   7.540  10.793  0.2787  0.1318 -0.8575
23509SOL     OW79494   5.481  10.297  10.000 -0.6862  0.1473  0.2612
23509SOL    HW179495   5.418  10.301  10.072 -1.4015 -0.1562 -0.3358
23509SOL    HW279496   5.479  10.206   9.971 -0.6999  0.3486 -0.3929
23510SOL     OW79497   0.191   4.278  11.043 -0.2648  0.5038 -0.0193
23510SOL    HW179498   0.269   4.288  10.990 -0.6332  0.5679 -0.5549
23510SOL    HW279499   0.219   4.301  11.132  0.5169 -0.2430 -0.0567
23511SOL     OW79500  10.419   3.743   7.352 -0.2552  0.0227  0.2973
23511SOL    HW179501  10.500   3.727   7.400  0.2747 -0.0510 -0.5822
23511SOL    HW279502  10.379   3.818   7.395  0.1030 -0.1549  0.9541
23512SOL     OW79503   9.598  10.163   1.698 -0.0542  0.4731  0.4059
23512SOL    HW179504   9.632  10.149   1.610  0.3731 -0.1109  0.6587
23512SOL    HW279505   9.525  10.224   1.686 -0.6466 -0.3869 -0.4722
23513SOL     OW79506   3.298   8.270   3.364  0.8683  0.4858  0.2702
23513SOL    HW179507   3.307   8.258   3.459  1.3481  0.9272  0.2878
23513SOL    HW279508   3.212   8.310   3.353  0.8711  0.5704  0.5390
23514SOL     OW79509   7.130   7.369  11.143  0.1386  0.0927  0.2666
23514SOL    HW179510   7.177   7.310  11.085  0.3322 -0.7107  1.2049
23514SOL    HW279511   7.198   7.408  11.198 -0.1080  0.2934  0.4323
23515SOL     OW79512   8.345   9.749   2.259 -0.1251  0.2160 -0.0113
23515SOL    HW179513   8.325   9.694   2.183 -1.2821 -0.7638  0.9425
23515SOL    HW279514   8.413   9.701   2.306  1.4500  1.4006 -0.9900
23516SOL     OW79515   4.192   8.349   2.869 -0.1572  0.5379  0.0260
23516SOL    HW179516   4.128   8.362   2.800 -0.7951 -0.3740  0.4233
23516SOL    HW279517   4.265   8.305   2.826 -0.9544 -0.9171  0.0945
23517SOL     OW79518   0.479   8.886   2.759 -0.5727 -0.5261  0.0837
23517SOL    HW179519   0.397   8.926   2.728 -0.4998 -0.4271  0.0206
23517SOL    HW279520   0.548   8.935   2.715 -0.4897 -0.8916 -0.1954
23518SOL     OW79521   4.189   0.156   8.657  0.0372  0.0929 -0.0449
23518SOL    HW179522   4.158   0.067   8.640  0.5710 -0.0115 -0.5040
23518SOL    HW279523   4.282   0.146   8.677  0.0321  0.5176  0.2041
23519SOL     OW79524   2.109  10.469   1.689 -0.6002  0.2091  0.0502
23519SOL    HW179525   2.193  10.505   1.660  0.5659 -0.2891  2.5782
23519SOL    HW279526   2.107  10.382   1.651  0.3712 -0.0352  0.5197
23520SOL     OW79527  12.341   5.595   7.768  0.1506  0.3822 -0.1564
23520SOL    HW179528  12.431   5.623   7.753  0.0508  0.3626 -0.7934
23520SOL    HW279529  12.305   5.662   7.827  0.8352 -0.0874  0.8306
23521SOL     OW79530   0.298  11.339   4.955 -0.0345  0.5544  0.1727
23521SOL    HW179531   0.298  11.246   4.934  1.6783  0.8482 -1.4195
23521SOL    HW279532   0.326  11.344   5.046  3.8832 -0.4091 -0.8079
23522SOL     OW79533  10.764   5.999   9.572 -0.3789 -0.1567  0.3460
23522SOL    HW179534  10.808   5.954   9.644  0.6650 -1.1336 -0.8314
23522SOL    HW279535  10.834   6.047   9.527 -0.5331 -1.3476 -1.2847
23523SOL     OW79536   1.107   2.931   0.925 -0.1613 -0.1769 -0.2279
23523SOL    HW179537   1.051   2.860   0.894  0.1216 -0.2756 -0.5118
23523SOL    HW279538   1.136   2.976   0.846 -0.1152  0.0857 -0.0633
23524SOL     OW79539  11.326   1.347   1.179  0.0761 -0.4907 -0.3209
23524SOL    HW179540  11.318   1.293   1.258 -0.5567 -1.3092 -0.9241
23524SOL    HW279541  11.382   1.420   1.205 -0.4960 -0.5061  1.0066
23525SOL     OW79542   2.643   3.732   5.138  0.0277  0.4727 -0.1231
23525SOL    HW179543   2.586   3.740   5.214 -0.8405 -1.6931 -0.4876
23525SOL    HW279544   2.718   3.788   5.159 -0.1820 -0.0303  2.3112
23526SOL     OW79545  10.163   9.340  11.438  0.0766  0.4005  0.3847
23526SOL    HW179546  10.207   9.424  11.452 -1.3140  1.4566 -1.1864
23526SOL    HW279547  10.082   9.363  11.392 -0.3800 -1.7944 -0.0035
23527SOL     OW79548  10.087   2.341  11.329  0.4413 -0.1815  0.2883
23527SOL    HW179549  10.088   2.281  11.404 -0.1723  0.0391  0.4745
23527SOL    HW279550  10.004   2.387  11.336  1.5820  1.9021  1.0849
23528SOL     OW79551   5.751  11.144   3.577  0.5207 -0.4898  0.3798
23528SOL    HW179552   5.760  11.069   3.637  0.1101 -0.5455  0.3730
23528SOL    HW279553   5.664  11.134   3.540  1.7586 -2.0470 -2.4001
23529SOL     OW79554   2.266  10.485  10.995 -0.3254  0.0461  0.2112
23529SOL    HW179555   2.176  10.499  10.965  0.0815  1.5308 -0.4266
23529SOL    HW279556   2.295  10.572  11.024  1.2312 -0.1879 -0.5593
23530SOL     OW79557   2.082   2.969   5.894  0.2756  0.7267  0.7718
23530SOL    HW179558   2.013   2.917   5.936 -0.1585  0.7253  0.0626
23530SOL    HW279559   2.037   3.046   5.860  0.6008  0.6765  0.2156
23531SOL     OW79560   9.828   0.131   7.324 -0.6586 -0.2207  0.2374
23531SOL    HW179561   9.807   0.083   7.243 -0.1106  0.2106 -0.1691
23531SOL    HW279562   9.814   0.223   7.302  1.0710  0.0428  0.1096
23532SOL     OW79563  10.980   1.917   6.075 -0.1131  0.4500  0.6002
23532SOL    HW179564  10.979   1.888   6.167 -2.2287 -0.4840  0.3439
23532SOL    HW279565  11.055   1.872   6.037  0.7751  0.8192  1.8508
23533SOL     OW79566   3.942   6.924   7.863 -0.3870 -0.3260 -0.3886
23533SOL    HW179567   4.021   6.908   7.914 -0.0522 -0.9946 -1.1004
23533SOL    HW279568   3.880   6.961   7.926  0.5789  0.4953  0.1149
23534SOL     OW79569   0.493  10.578   3.629 -0.2410 -0.3309 -0.1379
23534SOL    HW179570   0.450  10.639   3.687 -1.1328 -3.2314  2.5362
23534SOL    HW279571   0.422  10.534   3.582  0.1265 -1.2664  0.1418
23535SOL     OW79572   5.619   3.675   8.030  0.0076 -0.0204 -0.0495
23535SOL    HW179573   5.548   3.627   7.987 -0.6663  0.3986  0.5917
23535SOL    HW279574   5.614   3.648   8.121 -0.1006  0.9356  0.2365
23536SOL     OW79575   5.777  12.298   8.634  0.7166  0.3562 -0.4965
23536SOL    HW179576   5.780  12.378   8.687  1.6611  0.4789 -0.7120
23536SOL    HW279577   5.787  12.227   8.698  0.2255  0.4249 -0.3409
23537SOL     OW79578   8.678   6.446   6.712  0.2124 -0.6797 -0.6112
23537SOL    HW179579   8.706   6.501   6.784  2.1850 -0.4393 -1.4961
23537SOL    HW279580   8.648   6.365   6.754 -0.6640  0.2262  0.5637
23538SOL     OW79581  11.880   5.108   9.360 -0.4778 -0.3942  0.4993
23538SOL    HW179582  11.908   5.054   9.434 -1.3689  0.4158  1.4616
23538SOL    HW279583  11.829   5.049   9.305 -0.3002 -0.8608  0.8291
23539SOL     OW79584   0.533   3.343  10.419 -0.1030  0.5290  0.6160
23539SOL    HW179585   0.513   3.437  10.425  0.7497  0.7261  0.5824
23539SOL    HW279586   0.614   3.333  10.469  1.6172  0.3987 -2.0067
23540SOL     OW79587   1.530   5.698   3.119 -0.2995 -0.1814 -0.0118
23540SOL    HW179588   1.577   5.780   3.108  1.1293 -1.2927 -4.1851
23540SOL    HW279589   1.564   5.661   3.200  2.0199  1.5922 -0.0822
23541SOL     OW79590  11.559   0.327   4.386 -0.1238 -0.7881 -0.6754
23541SOL    HW179591  11.567   0.391   4.456  2.0431  1.3406 -2.6687
23541SOL    HW279592  11.510   0.372   4.317 -0.3952 -2.0459 -1.3488
23542SOL     OW79593   5.406   4.004   5.897  0.4471  0.0532 -0.6428
23542SOL    HW179594   5.386   4.087   5.854  0.1254  0.5543  0.4553
23542SOL    HW279595   5.336   3.945   5.868 -0.9502  0.9437  0.7259
23543SOL     OW79596   6.109   0.812   7.049  0.7657  0.2551 -0.0997
23543SOL    HW179597   6.019   0.787   7.069  0.8117  0.6884  0.6616
23543SOL    HW279598   6.105   0.843   6.958 -0.0334  1.1331  0.2170
23544SOL     OW79599   6.849   2.009   8.921  0.1240  0.5891 -0.0170
23544SOL    HW179600   6.840   1.962   8.838 -1.4973 -1.2998  1.1337
23544SOL    HW279601   6.832   2.100   8.898 -0.4123  0.1052 -1.7491
23545SOL     OW79602   2.407   3.710   0.540  0.7818 -0.6578  0.0754
23545SOL    HW179603   2.394   3.785   0.482  0.8303 -0.1790  0.6772
23545SOL    HW279604   2.319   3.687   0.571  0.7195 -1.1146 -0.4335
23546SOL     OW79605   6.017  12.596  10.721  0.2603  0.2258  0.4518
23546SOL    HW179606   6.077  12.589  10.796  0.7159  1.1774  0.2037
23546SOL    HW279607   6.075  12.610  10.646 -0.2277 -0.0497  0.0224
23547SOL     OW79608   0.365   3.341   4.484  0.7390 -0.1493 -0.6726
23547SOL    HW179609   0.417   3.393   4.545 -0.1454  2.4700 -1.9836
23547SOL    HW279610   0.279   3.334   4.526  0.6385  0.1308 -0.8282
23548SOL     OW79611  11.528   8.406   3.634  0.0699  0.2480  0.3908
23548SOL    HW179612  11.597   8.342   3.617 -1.6036 -1.8895  1.2023
23548SOL    HW279613  11.463   8.392   3.565 -1.4131 -0.6153  1.8732
23549SOL     OW79614   5.941  11.216  11.265  0.0461  0.5526 -0.2247
23549SOL    HW179615   6.011  11.271  11.298  1.7636 -1.0100 -1.0635
23549SOL    HW279616   5.923  11.250  11.177  1.0927 -0.1661 -0.7357
23550SOL     OW79617   6.112  12.189   7.071  0.0667  0.4887  0.2274
23550SOL    HW179618   6.152  12.241   7.002 -2.0712  1.3754 -0.4399
23550SOL    HW279619   6.055  12.128   7.024 -0.3836  0.1781  1.1532
23551SOL     OW79620   1.078   0.852   1.197 -0.5934  0.0543  0.2679
23551SOL    HW179621   0.995   0.900   1.198 -0.4307  0.3468  1.2779
23551SOL    HW279622   1.053   0.760   1.196 -0.9083  0.1213 -1.4812
23552SOL     OW79623   1.459   3.332  11.933  0.1114 -0.1469  0.6325
23552SOL    HW179624   1.485   3.402  11.874  1.0287 -0.1134  1.0615
23552SOL    HW279625   1.533   3.321  11.992  0.4119 -2.1268 -0.0130
23553SOL     OW79626   9.128   7.560   9.905 -0.2795  0.1522 -0.0494
23553SOL    HW179627   9.111   7.496   9.975 -0.4324  0.2772  0.0253
23553SOL    HW279628   9.190   7.515   9.847 -0.7407 -0.2362 -0.2422
23554SOL     OW79629   4.136   5.052   3.530  0.1692 -0.0709  0.2143
23554SOL    HW179630   4.227   5.083   3.520  0.0889  0.5613  1.3275
23554SOL    HW279631   4.083   5.128   3.507 -0.0897 -0.4176 -0.3557
23555SOL     OW79632   1.428   5.393  11.382  0.4601 -0.1946  0.0043
23555SOL    HW179633   1.405   5.306  11.415 -0.2086  0.0682  0.2656
23555SOL    HW279634   1.366   5.452  11.426 -0.5378  0.1535 -1.7919
23556SOL     OW79635   8.774   3.618   6.576 -0.1474  0.9497  0.1275
23556SOL    HW179636   8.842   3.631   6.510 -2.4330  2.0443 -2.2193
23556SOL    HW279637   8.820   3.584   6.652  2.9155  1.2091 -1.4535
23557SOL     OW79638   9.865   5.903   5.271  0.1022 -0.0170  0.5013
23557SOL    HW179639   9.880   5.814   5.239 -1.3636 -0.7178  1.6267
23557SOL    HW279640   9.791   5.894   5.331 -2.5485  2.5173 -2.0824
23558SOL     OW79641   0.355   9.694   8.683 -0.1108  0.1660 -0.5614
23558SOL    HW179642   0.381   9.691   8.775  1.3361  1.1958 -0.9004
23558SOL    HW279643   0.338   9.603   8.660 -1.6455  0.0195  1.0128
23559SOL     OW79644  11.706   6.823   1.609 -0.7377 -0.2938 -0.3504
23559SOL    HW179645  11.634   6.785   1.659  0.3408 -2.5142 -0.3488
23559SOL    HW279646  11.664   6.882   1.547 -2.3892 -0.1687  0.8088
23560SOL     OW79647  10.043   4.399   2.785  0.1311 -0.3199  0.3355
23560SOL    HW179648   9.965   4.434   2.741 -0.5160 -1.4305  0.5741
23560SOL    HW279649  10.045   4.307   2.760  2.8465  0.1972 -1.7945
23561SOL     OW79650  11.705   4.880  11.704 -0.3842  0.2847  0.3034
23561SOL    HW179651  11.637   4.934  11.664 -0.7867  0.0733  0.7022
23561SOL    HW279652  11.659   4.826  11.767 -0.0221 -0.7133 -0.2615
23562SOL     OW79653   5.426   8.320   8.063 -0.0994  0.6361  0.6628
23562SOL    HW179654   5.394   8.399   8.107  3.3433  1.9469  1.1833
23562SOL    HW279655   5.467   8.269   8.134 -1.0350 -0.9517  0.0973
23563SOL     OW79656   6.872   9.439   6.438  0.3151  0.0109  0.3083
23563SOL    HW179657   6.805   9.502   6.461  0.5573  0.5319 -0.3795
23563SOL    HW279658   6.939   9.449   6.506  0.0138 -0.0293  0.6107
23564SOL     OW79659   9.307   4.033   1.626 -0.7981 -0.4870 -0.5418
23564SOL    HW179660   9.221   4.068   1.604 -0.3082  0.7834 -0.5462
23564SOL    HW279661   9.338   3.992   1.545 -1.6160 -1.4655 -0.3816
23565SOL     OW79662   7.396   1.272  12.457 -0.1464 -1.0463 -0.1277
23565SOL    HW179663   7.474   1.314  12.421 -0.5001 -0.3146 -0.0730
23565SOL    HW279664   7.407   1.179  12.436  0.8471 -0.9927  0.0914
23566SOL     OW79665   5.248   2.501   4.949 -0.2204 -0.2063  0.2802
23566SOL    HW179666   5.276   2.410   4.959 -2.0293 -0.9921 -1.0118
23566SOL    HW279667   5.323   2.545   4.909 -0.2601 -1.8805 -1.8518
23567SOL     OW79668   9.883  12.596  11.533  0.3462 -0.0293 -0.1491
23567SOL    HW179669   9.857  12.505  11.518 -0.9874  0.4803 -1.1332
23567SOL    HW279670   9.802  12.640  11.557  1.4179  0.3992  3.1836
23568SOL     OW79671   6.564   0.741   3.539 -0.1306  0.4713 -0.5491
23568SOL    HW179672   6.575   0.796   3.616 -1.4293 -0.0902  0.0623
23568SOL    HW279673   6.623   0.667   3.554 -0.4781  0.2971 -0.0240
23569SOL     OW79674   6.606   8.821   4.379 -0.3642 -0.6103 -0.3297
23569SOL    HW179675   6.680   8.831   4.320  0.0587  1.6295  0.4616
23569SOL    HW279676   6.638   8.853   4.464 -1.5939 -1.6693  0.5822
23570SOL     OW79677   6.166   3.857   3.854 -0.7225  0.0286  0.4911
23570SOL    HW179678   6.118   3.916   3.913  0.0272  0.4239  0.7315
23570SOL    HW279679   6.258   3.867   3.882 -0.4130 -0.1142 -0.4593
23571SOL     OW79680  11.196   1.210   9.527 -0.3425  0.1581 -0.1265
23571SOL    HW179681  11.272   1.202   9.585 -1.6572  1.9042  1.9979
23571SOL    HW279682  11.199   1.301   9.496 -1.5352  0.2403 -0.0379
23572SOL     OW79683  11.243  10.078  12.079 -0.0560 -0.1793  1.1564
23572SOL    HW179684  11.309  10.016  12.049 -0.4424 -0.3695  0.6860
23572SOL    HW279685  11.210  10.041  12.160 -0.0852 -0.4426  1.0249
23573SOL     OW79686   6.206  11.086   3.912  0.3524  0.1625  0.1276
23573SOL    HW179687   6.120  11.066   3.874 -0.2680 -0.6821  1.9126
23573SOL    HW279688   6.268  11.050   3.848 -0.6587 -1.6336  0.0752
23574SOL     OW79689   4.939   3.344  12.152 -0.0406 -0.4688  0.6498
23574SOL    HW179690   4.855   3.301  12.166 -0.4435  0.0572 -0.0889
23574SOL    HW279691   4.921   3.437  12.167  0.1928 -0.2464 -0.3475
23575SOL     OW79692   7.303   7.710  11.053 -0.3014 -0.3386  0.9054
23575SOL    HW179693   7.330   7.627  11.014 -2.1068 -0.7463  0.4006
23575SOL    HW279694   7.210   7.697  11.073 -0.9427  1.9239 -0.2415
23576SOL     OW79695  12.547  10.745   9.938 -0.5436  0.2188 -0.3471
23576SOL    HW179696  12.566  10.765  10.030  2.3064  0.5580 -0.9160
23576SOL    HW279697  12.522  10.829   9.900  0.2853  0.4848 -0.3116
23577SOL     OW79698   3.904   3.413   0.267  0.1703 -0.9697 -0.6194
23577SOL    HW179699   3.996   3.397   0.246  0.4430  0.6162 -0.7494
23577SOL    HW279700   3.894   3.508   0.261 -1.1400 -0.9797  0.7845
23578SOL     OW79701   7.597   3.697   6.699 -0.3895 -0.2150  0.4662
23578SOL    HW179702   7.554   3.666   6.778  1.7044  2.0560  2.6712
23578SOL    HW279703   7.635   3.619   6.659 -2.1302 -1.5128  1.2293
23579SOL     OW79704   9.998   1.368  10.323  0.0062  0.1329 -0.2783
23579SOL    HW179705   9.934   1.398  10.259  0.5093  0.7252 -0.5091
23579SOL    HW279706  10.057   1.311  10.273  0.0300  0.0869 -0.1985
23580SOL     OW79707  12.456   2.310   6.801  0.3402 -0.1344 -0.3164
23580SOL    HW179708  12.503   2.389   6.827  0.1102 -0.0162 -0.2553
23580SOL    HW279709  12.479   2.298   6.709  2.1838 -1.2822  0.2400
23581SOL     OW79710   9.072   1.456   9.102 -0.0618 -0.4887  0.0002
23581SOL    HW179711   9.109   1.531   9.054 -1.3309 -0.0374 -0.3018
23581SOL    HW279712   8.979   1.456   9.079  0.0244 -2.6237 -0.6177
23582SOL     OW79713  10.419   3.777   9.342  0.2673  0.7113 -0.1251
23582SOL    HW179714  10.349   3.842   9.333 -0.7820 -0.5053 -1.1647
23582SOL    HW279715  10.455   3.768   9.254 -0.5955 -1.1242 -0.3408
23583SOL     OW79716   8.904  11.591   5.733 -0.3502 -0.4148 -0.0553
23583SOL    HW179717   8.946  11.506   5.747 -0.6367 -0.4607  0.5589
23583SOL    HW279718   8.951  11.651   5.789 -0.4430 -0.2593 -0.1426
23584SOL     OW79719   8.200   7.576  10.859  0.3984  0.6063 -0.1240
23584SOL    HW179720   8.159   7.534  10.935  0.7006  2.4068  1.0853
23584SOL    HW279721   8.281   7.613  10.893  1.6325 -0.3550 -1.8334
23585SOL     OW79722   7.694   8.575   0.317  0.8292 -0.3723 -0.0150
23585SOL    HW179723   7.693   8.647   0.254  0.3002 -1.0902 -0.8387
23585SOL    HW279724   7.690   8.619   0.403 -1.2101  0.5714 -0.5234
23586SOL     OW79725   8.455   0.200   2.092 -0.3778  0.0532  0.1802
23586SOL    HW179726   8.492   0.281   2.128 -0.9169  0.3539  0.0684
23586SOL    HW279727   8.470   0.134   2.160 -0.1838  0.3112  0.3885
23587SOL     OW79728   6.472   8.033   9.143  0.0099 -0.0542 -0.1227
23587SOL    HW179729   6.387   8.077   9.142 -0.2273 -0.4871  0.4839
23587SOL    HW279730   6.495   8.025   9.235  0.9238  0.4446 -0.2916
23588SOL     OW79731   4.850  11.555   7.369  0.0436  0.3105  0.1722
23588SOL    HW179732   4.877  11.635   7.414 -1.0856  1.4084 -1.0123
23588SOL    HW279733   4.875  11.569   7.278  2.1845 -1.8213  0.3277
23589SOL     OW79734   9.598   1.064   8.625  0.6341  0.1507  0.3996
23589SOL    HW179735   9.526   1.005   8.600  1.1740 -1.0530  1.5624
23589SOL    HW279736   9.673   1.029   8.577  0.5607  1.1400 -0.4667
23590SOL     OW79737   2.078  11.250   6.188 -0.2458  0.4041 -0.3747
23590SOL    HW179738   2.142  11.259   6.117  0.7515  0.9041  0.5526
23590SOL    HW279739   2.059  11.156   6.192  1.5621  0.0230  0.2495
23591SOL     OW79740   1.626  10.218   3.930 -0.4555 -0.3326  0.0807
23591SOL    HW179741   1.612  10.147   3.993 -2.0202  0.2615  0.4721
23591SOL    HW279742   1.589  10.295   3.974  0.6032  0.5861 -0.6061
23592SOL     OW79743   3.136   3.962   6.373  0.5272 -0.5152 -0.4387
23592SOL    HW179744   3.120   4.018   6.450  2.1681  1.0867 -1.1833
23592SOL    HW279745   3.120   4.020   6.299  0.9036 -1.4653 -1.2740
23593SOL     OW79746  10.390   1.056   8.069 -0.1807  0.5371 -0.2171
23593SOL    HW179747  10.356   1.142   8.094 -0.3415  0.2144  0.7240
23593SOL    HW279748  10.329   0.994   8.108  0.6290 -0.0228  0.1807
23594SOL     OW79749   1.537   2.704   0.943 -0.4665  0.3626 -0.0343
23594SOL    HW179750   1.587   2.624   0.929 -0.6767 -0.0389  1.3570
23594SOL    HW279751   1.491   2.718   0.861  1.3779  0.3707 -1.1315
23595SOL     OW79752  10.783   4.940   8.505 -0.2994 -0.2524  0.2243
23595SOL    HW179753  10.879   4.945   8.506 -0.1133  0.6345 -3.9966
23595SOL    HW279754  10.755   5.024   8.471 -2.4983 -1.0708 -0.1300
23596SOL     OW79755   7.219   1.803   4.669 -0.5255  0.4186  0.8148
23596SOL    HW179756   7.230   1.834   4.580 -1.3392 -2.6614 -0.4930
23596SOL    HW279757   7.182   1.877   4.716  2.6894  3.1519 -0.5253
23597SOL     OW79758  10.504  11.268   9.215  0.1605 -0.1061  0.0771
23597SOL    HW179759  10.597  11.256   9.238  0.1802  0.2937  0.2276
23597SOL    HW279760  10.484  11.357   9.245 -0.6017 -0.6250  1.1553
23598SOL     OW79761   3.200   2.360   6.109 -0.4633  0.0364 -0.3298
23598SOL    HW179762   3.141   2.434   6.125 -1.2039 -0.0866 -2.1671
23598SOL    HW279763   3.275   2.400   6.065 -0.4827 -0.1647 -0.5507
23599SOL     OW79764  11.893  11.840  10.894 -0.3560  0.1808  0.3958
23599SOL    HW179765  11.857  11.870  10.811 -2.2070  0.1417  1.1372
23599SOL    HW279766  11.986  11.861  10.889 -0.3189 -0.2779 -1.8749
23600SOL     OW79767  10.532   5.148   7.393 -0.2474  1.0592  0.4480
23600SOL    HW179768  10.547   5.111   7.480 -2.1933 -0.0299  0.3828
23600SOL    HW279769  10.512   5.073   7.338  1.5173  1.6629 -1.1378
23601SOL     OW79770   3.429   6.967   9.509 -0.0550 -0.9220 -0.0375
23601SOL    HW179771   3.424   7.056   9.474  2.2891 -0.5609  0.3981
23601SOL    HW279772   3.361   6.919   9.462 -1.3664  1.0790 -0.2821
23602SOL     OW79773   4.621   9.984  11.620  0.3127  0.2317 -0.2510
23602SOL    HW179774   4.610  10.030  11.703 -0.2903  0.5300 -0.4936
23602SOL    HW279775   4.700  10.023  11.581  2.7490 -2.2512  1.7199
23603SOL     OW79776   2.321   3.475   3.859  0.0198 -0.6627 -0.2151
23603SOL    HW179777   2.245   3.470   3.801  0.1459 -2.1931 -0.2864
23603SOL    HW279778   2.301   3.548   3.918 -0.1097  0.9149 -2.1349
23604SOL     OW79779   4.069  11.371  11.566 -0.4538  0.1695  0.3791
23604SOL    HW179780   4.141  11.427  11.594 -0.2093  0.2911 -0.4711
23604SOL    HW279781   3.998  11.390  11.628 -0.2159  1.0541  0.3883
23605SOL     OW79782   8.705   0.056   9.405  0.0680 -0.2075 -0.2434
23605SOL    HW179783   8.793   0.091   9.395 -0.8236  2.0518 -1.0469
23605SOL    HW279784   8.673   0.097   9.486 -0.6109 -0.0725 -0.5741
23606SOL     OW79785   1.290   0.460   2.595 -0.6716  0.2984  0.3312
23606SOL    HW179786   1.244   0.537   2.630 -1.0967 -1.0151  2.8887
23606SOL    HW279787   1.253   0.386   2.643  1.2173 -1.2952 -0.5370
23607SOL     OW79788   4.649  11.547   8.245  0.0687  0.0442  0.0381
23607SOL    HW179789   4.621  11.513   8.160 -1.7433 -0.2342  0.6816
23607SOL    HW279790   4.630  11.641   8.240 -1.4084 -0.1973  0.5890
23608SOL     OW79791   0.265   8.434   6.505 -0.2774 -0.3441  0.0365
23608SOL    HW179792   0.304   8.474   6.582  0.4173  0.0288 -0.4934
23608SOL    HW279793   0.242   8.345   6.532 -0.3586 -0.1071  0.7621
23609SOL     OW79794   8.172   9.463   5.849 -0.0479 -0.6761  0.1322
23609SOL    HW179795   8.091   9.413   5.858 -0.1367 -0.3078  1.7148
23609SOL    HW279796   8.229   9.429   5.918  0.2832  0.6340  0.5316
23610SOL     OW79797   0.857   8.384   6.685 -0.1652  0.3028 -0.4355
23610SOL    HW179798   0.819   8.462   6.727 -1.6469 -1.3425  1.5223
23610SOL    HW279799   0.927   8.418   6.630 -2.4361  3.2724 -1.7984
23611SOL     OW79800   9.811   1.960   1.231 -0.3790 -0.1381 -0.0183
23611SOL    HW179801   9.847   1.961   1.320  0.2807  1.9969 -0.2679
23611SOL    HW279802   9.840   1.876   1.195 -0.4109 -0.9170  1.6640
23612SOL     OW79803   2.423   1.353  12.212  0.5756 -0.4473 -0.0640
23612SOL    HW179804   2.352   1.372  12.151  0.5358 -0.1059  0.0895
23612SOL    HW279805   2.438   1.435  12.259  0.3495 -0.8114  0.6584
23613SOL     OW79806   8.031  12.414   1.471 -0.0308  0.3736 -0.1049
23613SOL    HW179807   8.109  12.432   1.524  0.5859  0.6583 -1.0834
23613SOL    HW279808   8.048  12.460   1.388 -0.0719 -1.6907 -1.3165
23614SOL     OW79809   0.436  10.458   6.978 -0.0177  0.4495  0.6191
23614SOL    HW179810   0.444  10.362   6.979  2.0450  0.5510 -0.1763
23614SOL    HW279811   0.480  10.484   6.896 -3.3613  1.9267 -0.8844
23615SOL     OW79812   8.693   1.231   6.764 -0.3174  0.2437 -0.7131
23615SOL    HW179813   8.751   1.274   6.827  0.6627  0.3359 -1.6404
23615SOL    HW279814   8.606   1.234   6.805  0.4351 -0.5814  1.0704
23616SOL     OW79815  12.314   7.818   2.738  0.4485 -0.0444  0.0269
23616SOL    HW179816  12.337   7.731   2.772 -1.1776 -0.0155  1.3070
23616SOL    HW279817  12.395   7.850   2.699  1.1771 -1.9984 -0.2034
23617SOL     OW79818   4.034  12.240   5.322 -0.3524 -0.2043 -0.8760
23617SOL    HW179819   4.034  12.309   5.389  0.2965  1.1656 -2.2413
23617SOL    HW279820   4.125  12.234   5.294 -0.5820 -0.9214 -1.4872
23618SOL     OW79821  10.330   6.413   1.586 -0.2158  0.0320  0.2817
23618SOL    HW179822  10.270   6.358   1.536  2.2041 -0.2596 -2.5766
23618SOL    HW279823  10.274   6.482   1.623 -2.1908  1.0010 -3.8883
23619SOL     OW79824   7.177   2.200   4.313  0.0452  0.5550  0.2729
23619SOL    HW179825   7.230   2.278   4.296 -0.1312  0.4381 -0.9184
23619SOL    HW279826   7.166   2.160   4.227 -1.2467  0.1049  0.6267
23620SOL     OW79827   1.369  11.615   9.938 -0.2682 -0.3575  0.0472
23620SOL    HW179828   1.295  11.562   9.910 -0.9090 -0.5018  1.8947
23620SOL    HW279829   1.350  11.637  10.029  1.4352  0.5402  0.2291
23621SOL     OW79830   6.414   7.338   7.917  0.2321  0.0231  0.0649
23621SOL    HW179831   6.332   7.315   7.959  0.6892 -1.2972  0.2555
23621SOL    HW279832   6.454   7.402   7.976  0.6244 -1.4070  1.4018
23622SOL     OW79833   4.646   7.843   7.905 -0.5130  0.0151  0.1230
23622SOL    HW179834   4.577   7.846   7.839  1.4699 -0.7156 -2.0953
23622SOL    HW279835   4.625   7.915   7.965 -1.3869  1.9744 -2.3800
23623SOL     OW79836  10.889   6.547   1.511 -0.3541 -0.3183 -0.1502
23623SOL    HW179837  10.796   6.571   1.504 -0.7817 -1.1429  1.9600
23623SOL    HW279838  10.890   6.452   1.498 -0.0800 -0.5772  1.5301
23624SOL     OW79839  10.269   1.913   2.855  0.1375 -0.1373 -0.3492
23624SOL    HW179840  10.256   1.855   2.930  1.9041  1.9977  1.7804
23624SOL    HW279841  10.212   1.988   2.873  0.4476  0.3417 -1.2754
23625SOL     OW79842   6.013   2.305   1.751  0.3932  0.2051 -0.3782
23625SOL    HW179843   6.090   2.337   1.704  0.6320  1.2035  0.6378
23625SOL    HW279844   5.939   2.330   1.696  0.7776 -0.7982 -1.3828
23626SOL     OW79845   9.564   9.952   1.852 -0.1410  0.1855 -0.1417
23626SOL    HW179846   9.571  10.017   1.782  0.1272  0.7276  0.3782
23626SOL    HW279847   9.653   9.945   1.887  0.2202 -1.6882 -1.2511
23627SOL     OW79848   1.303  11.701   8.951 -0.2905  0.1274  0.5657
23627SOL    HW179849   1.359  11.779   8.945 -1.7850  1.1910 -0.0892
23627SOL    HW279850   1.243  11.720   9.022 -1.4044  0.0860 -0.3353
23628SOL     OW79851   9.202   4.636   6.422  0.2925  1.3363 -0.1236
23628SOL    HW179852   9.141   4.660   6.492 -0.9063 -2.2188  0.2464
23628SOL    HW279853   9.275   4.593   6.468  1.8583  3.1150 -0.7972
23629SOL     OW79854   7.979   7.082   6.378 -0.3433 -0.1990  0.3350
23629SOL    HW179855   7.960   7.028   6.301 -1.0097 -0.1989  0.4997
23629SOL    HW279856   7.914   7.152   6.376 -0.6253 -0.4283  1.1186
23630SOL     OW79857   0.779   3.867   9.060 -0.0187 -0.0998  1.1080
23630SOL    HW179858   0.712   3.799   9.069 -1.6689  1.5691  2.1811
23630SOL    HW279859   0.730   3.949   9.053  1.9134  1.1395  1.1926
23631SOL     OW79860   3.332   4.331   4.714 -0.6206  0.2647 -0.2182
23631SOL    HW179861   3.347   4.348   4.621  2.8490  0.9882  0.3317
23631SOL    HW279862   3.343   4.416   4.756  0.8565 -0.5306  1.1012
23632SOL     OW79863   7.531   1.849  11.892 -0.1541  0.0862 -0.2830
23632SOL    HW179864   7.558   1.862  11.983  0.9006  1.5481 -0.7533
23632SOL    HW279865   7.521   1.938  11.857  1.0463 -0.3993 -2.0208
23633SOL     OW79866   4.290   4.010  10.260 -0.1361  0.1000 -0.4227
23633SOL    HW179867   4.195   4.001  10.264 -0.1840 -0.4814 -2.1104
23633SOL    HW279868   4.319   4.002  10.351 -1.7505  1.1346  0.2247
23634SOL     OW79869  11.228  12.596  12.087 -0.4657 -0.0442  0.1233
23634SOL    HW179870  11.242  12.638  12.002 -0.5495 -1.0470 -0.4055
23634SOL    HW279871  11.170  12.523  12.068  0.0875 -0.7092  0.9164
23635SOL     OW79872   0.202   3.562   6.505 -0.1275 -0.3088 -0.3428
23635SOL    HW179873   0.282   3.603   6.538  0.5133 -2.4000  0.8590
23635SOL    HW279874   0.134   3.627   6.520  1.0340  0.7940  0.3316
23636SOL     OW79875   7.452   5.201  11.060 -0.4525  0.4170 -0.5428
23636SOL    HW179876   7.481   5.272  11.117  0.1019 -0.3603  0.1796
23636SOL    HW279877   7.493   5.122  11.097  0.2333 -0.0720 -2.2378
23637SOL     OW79878   9.414  10.028  12.065 -0.3965  0.5742 -0.5296
23637SOL    HW179879   9.392   9.998  12.153 -2.8550 -0.5701 -1.4508
23637SOL    HW279880   9.490  10.085  12.077 -0.0844 -0.3119  2.1870
23638SOL     OW79881   1.497   8.258  10.749 -0.2771 -0.1260  0.9595
23638SOL    HW179882   1.587   8.239  10.776  0.6216  1.8518 -0.4159
23638SOL    HW279883   1.490   8.353  10.756 -1.5672 -0.0315 -0.9085
23639SOL     OW79884  10.491   3.329  11.074  0.0223 -0.1421  0.3527
23639SOL    HW179885  10.540   3.298  10.998 -1.3987 -0.5088 -0.4647
23639SOL    HW279886  10.539   3.406  11.104  1.9620 -1.3842  0.5903
23640SOL     OW79887  11.462   1.020   6.634 -0.3693 -0.5135 -0.9566
23640SOL    HW179888  11.408   0.946   6.659  0.4290 -0.0420  2.6744
23640SOL    HW279889  11.460   1.079   6.710  1.5397  1.7053 -2.4623
23641SOL     OW79890   6.668   2.426  10.934  0.1440  0.1475 -0.1011
23641SOL    HW179891   6.686   2.512  10.896  1.8515 -0.4588 -0.7581
23641SOL    HW279892   6.754   2.386  10.945 -0.6404 -1.7701 -0.4668
23642SOL     OW79893   1.816   6.637   0.381  0.1897 -0.2603 -0.4673
23642SOL    HW179894   1.761   6.715   0.380  0.7515  0.1593  0.1554
23642SOL    HW279895   1.789   6.587   0.304  0.5405  1.0520 -1.4821
23643SOL     OW79896  10.616   3.691   3.649  0.2896 -0.3440 -0.0347
23643SOL    HW179897  10.696   3.735   3.676  0.2650 -0.2524 -0.1119
23643SOL    HW279898  10.619   3.692   3.553 -1.6170  3.0702 -0.2330
23644SOL     OW79899   6.942  12.541  12.020  0.0093 -0.0858  0.3354
23644SOL    HW179900   6.985  12.596  11.955 -0.6288  0.1445  0.0938
23644SOL    HW279901   6.887  12.482  11.969 -0.8454  0.3977  0.6601
23645SOL     OW79902   3.265  12.220   4.687  0.0369  0.5339  0.4689
23645SOL    HW179903   3.315  12.295   4.718  0.6615 -1.1141  4.0959
23645SOL    HW279904   3.247  12.169   4.767 -1.6746 -2.3670 -1.5619
23646SOL     OW79905   9.442  11.521   8.352  0.2583 -0.3132 -0.3367
23646SOL    HW179906   9.412  11.448   8.406  2.3474  0.3363  1.8924
23646SOL    HW279907   9.401  11.598   8.390  0.6124  0.0190 -0.6180
23647SOL     OW79908   0.316   7.111   5.302  0.2715 -0.6299 -0.6798
23647SOL    HW179909   0.259   7.113   5.225 -1.5213 -0.9909  0.5798
23647SOL    HW279910   0.360   7.196   5.301  1.9202 -1.3897 -3.2110
23648SOL     OW79911   4.848   9.838   5.046 -0.4301 -0.2996  0.4646
23648SOL    HW179912   4.756   9.825   5.071 -0.5443  1.7783  1.3705
23648SOL    HW279913   4.897   9.784   5.107 -0.9974  0.0486  1.2571
23649SOL     OW79914   4.521   8.633   8.464  0.8341 -0.6499  0.1967
23649SOL    HW179915   4.476   8.717   8.467  0.3256 -0.7025 -2.7100
23649SOL    HW279916   4.614   8.655   8.460  0.6956 -0.1947 -0.7048
23650SOL     OW79917  11.396   3.527   9.664 -0.4533 -0.1014 -0.4323
23650SOL    HW179918  11.430   3.610   9.630  0.7114  0.8639  2.7765
23650SOL    HW279919  11.430   3.461   9.604  1.0937  1.4838 -1.3992
23651SOL     OW79920  10.203   9.495  12.199  0.0842  0.4182 -0.0351
23651SOL    HW179921  10.208   9.581  12.241 -2.2788  0.9098 -0.6364
23651SOL    HW279922  10.260   9.440  12.252  0.8470  2.0918  0.9842
23652SOL     OW79923   9.429   9.719   2.500 -0.1829  0.0594 -0.4840
23652SOL    HW179924   9.418   9.701   2.407 -0.5857 -0.2944 -0.3685
23652SOL    HW279925   9.344   9.698   2.539  0.3896 -1.1246  0.1768
23653SOL     OW79926   5.622   8.072  11.316  0.0499 -0.1335 -0.0724
23653SOL    HW179927   5.541   8.035  11.351  0.5838 -0.4219  0.8860
23653SOL    HW279928   5.686   8.002  11.325  0.4561  0.1544 -0.6714
23654SOL     OW79929   7.838  11.180  11.039 -0.1594  0.2323  0.4621
23654SOL    HW179930   7.848  11.174  11.134 -0.7464  0.5945  0.5529
23654SOL    HW279931   7.928  11.183  11.006  0.1047  2.6588  1.1893
23655SOL     OW79932   6.707  12.431   1.100  0.4629 -0.3064  0.0644
23655SOL    HW179933   6.764  12.401   1.170  0.0793 -1.6219 -0.1600
23655SOL    HW279934   6.732  12.523   1.086  1.8999 -0.6015  0.5577
23656SOL     OW79935   2.862   5.936   2.377  0.0713 -0.1625 -0.1314
23656SOL    HW179936   2.818   6.008   2.331 -0.3319 -0.1304  0.2955
23656SOL    HW279937   2.829   5.857   2.335 -0.9439 -0.1679  0.6435
23657SOL     OW79938   8.342   7.374   1.316  0.5004 -0.3838 -0.3605
23657SOL    HW179939   8.387   7.291   1.331  0.0332 -0.5205  0.3445
23657SOL    HW279940   8.256   7.349   1.282  0.0927 -0.2323  0.5176
23658SOL     OW79941   3.787  10.280  10.395  0.2620 -0.1809  0.0571
23658SOL    HW179942   3.711  10.226  10.418  0.8288 -0.6953  0.7478
23658SOL    HW279943   3.839  10.284  10.475  0.6044  0.7856 -0.1987
23659SOL     OW79944   3.361   8.687   2.575 -0.2296 -0.3374  0.2492
23659SOL    HW179945   3.374   8.676   2.481 -1.6503 -1.3921  0.1451
23659SOL    HW279946   3.446   8.663   2.613  0.2798 -0.1579 -0.7423
23660SOL     OW79947   9.268   4.143   7.369  0.5552 -0.5722  0.1563
23660SOL    HW179948   9.283   4.062   7.418 -0.8230 -0.7521  0.3236
23660SOL    HW279949   9.179   4.134   7.334 -0.0090  1.2535  0.9875
23661SOL     OW79950   5.833   8.799  10.139  0.3735 -0.0450  0.6324
23661SOL    HW179951   5.872   8.839  10.061  0.8332  0.3239  1.0411
23661SOL    HW279952   5.908   8.779  10.195 -0.0476  1.3513  1.7597
23662SOL     OW79953  10.593   9.061   7.496 -0.3723  0.2771  0.0090
23662SOL    HW179954  10.621   8.979   7.455 -1.3626  0.3219 -0.7853
23662SOL    HW279955  10.675   9.106   7.516  0.1635 -0.0779 -1.2716
23663SOL     OW79956   0.541   6.437   5.160  0.0347 -0.0870 -0.5712
23663SOL    HW179957   0.454   6.475   5.147  0.1029 -0.2512 -1.5804
23663SOL    HW279958   0.574   6.478   5.240 -1.4761 -0.9615  0.5514
23664SOL     OW79959   9.197  12.192   2.067  0.0353  0.4311 -0.5525
23664SOL    HW179960   9.269  12.160   2.122 -1.3343  0.7344  1.5423
23664SOL    HW279961   9.134  12.120   2.066 -0.3630  0.7810 -0.9925
23665SOL     OW79962   5.212  10.138   2.051  0.1067  0.0491  0.0018
23665SOL    HW179963   5.196  10.218   2.000  1.2935  0.4943  0.2987
23665SOL    HW279964   5.155  10.148   2.128  1.7775  1.6731  1.1149
23666SOL     OW79965   4.503   4.420  12.308  0.0771 -0.0653  0.2294
23666SOL    HW179966   4.541   4.501  12.275 -0.0792  0.4406  1.2535
23666SOL    HW279967   4.436   4.448  12.370 -2.0475 -0.9382 -1.5534
23667SOL     OW79968   7.286   2.891   6.154  0.7897 -0.0133  0.1574
23667SOL    HW179969   7.329   2.976   6.164  0.1300  0.1730  1.7923
23667SOL    HW279970   7.193   2.910   6.154  0.6021 -0.7838  1.5308
23668SOL     OW79971   4.985   0.858   9.409  0.4320  0.0748  0.3981
23668SOL    HW179972   5.012   0.948   9.395 -1.0248  0.7416  1.5835
23668SOL    HW279973   4.906   0.864   9.462  0.7929 -1.9244  1.2867
23669SOL     OW79974  10.181   5.480   9.411  0.3214  0.6179  0.2685
23669SOL    HW179975  10.255   5.540   9.423  0.8945 -0.0923  0.3569
23669SOL    HW279976  10.171   5.437   9.495  0.7249 -0.3139 -0.1502
23670SOL     OW79977   8.404   8.978   8.669  0.1897 -0.2461  0.2359
23670SOL    HW179978   8.449   9.063   8.672  0.0478 -0.0617 -1.7294
23670SOL    HW279979   8.433   8.933   8.748  0.8008  1.3648  0.9812
23671SOL     OW79980   1.814   4.421   3.359  0.0792  0.0255  0.2124
23671SOL    HW179981   1.831   4.385   3.272  3.1261  0.6932  0.4085
23671SOL    HW279982   1.792   4.513   3.343 -2.0274 -0.4448  0.0689
23672SOL     OW79983  11.518   8.283   9.210 -0.0473  0.8948 -0.0630
23672SOL    HW179984  11.571   8.357   9.241 -0.4711  2.0465 -1.9283
23672SOL    HW279985  11.457   8.322   9.147  0.3469 -1.1709 -1.8339
23673SOL     OW79986   8.865   0.993   9.104  0.4671 -0.2278  0.1598
23673SOL    HW179987   8.864   1.019   9.196 -1.5738 -0.5640  0.2828
23673SOL    HW279988   8.882   0.899   9.105  0.5825 -0.2059  0.1955
23674SOL     OW79989   3.616   8.011  11.431  0.5099  0.1300  0.0781
23674SOL    HW179990   3.676   8.000  11.505 -1.7532 -0.2036  1.9696
23674SOL    HW279991   3.552   8.076  11.460  0.2639  0.9766 -2.1143
23675SOL     OW79992   5.725   7.311   7.518  0.2344 -0.1781 -0.0527
23675SOL    HW179993   5.710   7.278   7.606  1.1960 -0.1481  0.1328
23675SOL    HW279994   5.703   7.238   7.461  0.6067 -0.5522  0.2730
23676SOL     OW79995   7.182  10.413   5.407  0.1040 -0.0975  0.4058
23676SOL    HW179996   7.108  10.437   5.463  0.8385  0.7100  1.0519
23676SOL    HW279997   7.179  10.317   5.404 -2.2247 -0.0620 -1.3085
23677SOL     OW79998   0.245   7.146   3.761  0.1518 -0.6255  0.0339
23677SOL    HW179999   0.275   7.115   3.676  2.2796 -0.3478  0.6163
23677SOL    HW280000   0.260   7.240   3.759 -0.2532 -0.5469  0.5443
23678SOL     OW80001   7.734  10.124  10.607  0.1265 -0.3587  0.0502
23678SOL    HW180002   7.658  10.090  10.560  0.5150 -1.4444  0.1828
23678SOL    HW280003   7.758  10.054  10.668  1.3431 -0.1167 -0.1254
23679SOL     OW80004   4.288   6.056   9.834  1.0586 -0.3560 -0.6570
23679SOL    HW180005   4.251   5.972   9.805 -0.0044 -1.0899  2.3769
23679SOL    HW280006   4.213   6.104   9.869  1.8556  1.4046 -1.2436
23680SOL     OW80007   6.224   6.476   1.166 -0.3818  0.4958 -0.1924
23680SOL    HW180008   6.151   6.416   1.180 -0.3497  0.3240 -0.7363
23680SOL    HW280009   6.183   6.562   1.154 -0.4026  0.6814  1.0649
23681SOL     OW80010  10.200   3.182   6.460  0.1299 -0.0322 -0.3777
23681SOL    HW180011  10.247   3.243   6.517 -2.3021  0.6213  1.0701
23681SOL    HW280012  10.257   3.171   6.384  1.8478  1.9229  0.5339
23682SOL     OW80013  12.181  11.122   7.302  0.1382  0.4806  0.0086
23682SOL    HW180014  12.230  11.204   7.306  1.6098 -0.3343 -0.5440
23682SOL    HW280015  12.093  11.148   7.276  0.7503  1.8234 -0.8302
23683SOL     OW80016   5.469   4.787   1.567 -0.3706 -0.1186  0.1848
23683SOL    HW180017   5.497   4.696   1.556 -0.3905 -0.0996 -0.0255
23683SOL    HW280018   5.433   4.812   1.482 -0.3186  0.1028  0.2259
23684SOL     OW80019  11.650   0.439  11.966 -0.5026  0.4152  0.4317
23684SOL    HW180020  11.657   0.499  12.041  1.2669 -1.1055  1.5608
23684SOL    HW280021  11.598   0.366  12.000 -0.4537  0.1278 -0.1114
23685SOL     OW80022   8.468   2.105   1.330 -0.0453 -0.3275 -0.4272
23685SOL    HW180023   8.409   2.175   1.357 -0.5843 -0.6814 -0.6654
23685SOL    HW280024   8.465   2.106   1.234  1.1618  0.3364 -0.4785
23686SOL     OW80025   0.660   0.563   9.832 -0.0505  0.2989 -0.7279
23686SOL    HW180026   0.647   0.516   9.749  0.2586 -0.8805 -0.1317
23686SOL    HW280027   0.572   0.592   9.856 -0.4286 -0.8745 -0.6127
23687SOL     OW80028   2.054   0.382   4.638  0.7290  0.4038 -0.3242
23687SOL    HW180029   2.134   0.390   4.587  0.5951  0.2640 -0.5582
23687SOL    HW280030   2.079   0.328   4.713  0.6462 -0.3963 -0.8536
23688SOL     OW80031   4.833   2.239   9.094  0.2756  0.6386 -0.3500
23688SOL    HW180032   4.894   2.311   9.110 -1.7574  1.9869  1.8989
23688SOL    HW280033   4.767   2.247   9.162  0.1556 -3.7033  0.3447
23689SOL     OW80034  12.276  11.790   0.342  0.2435 -0.1870  0.3639
23689SOL    HW180035  12.245  11.704   0.314  1.1950 -1.1340  2.0473
23689SOL    HW280036  12.215  11.817   0.411 -0.9808  1.2635 -1.1963
23690SOL     OW80037   7.315   8.948   8.941 -0.2925  0.6565  0.2973
23690SOL    HW180038   7.351   9.023   8.894 -0.8057  0.9040  0.2963
23690SOL    HW280039   7.365   8.945   9.023  1.4396 -0.4894 -0.7313
23691SOL     OW80040   1.898  11.391  10.034 -0.2825 -0.2784 -0.4241
23691SOL    HW180041   1.803  11.383  10.031 -0.3172  0.5002 -2.2186
23691SOL    HW280042   1.915  11.444  10.112 -1.2803 -0.6951  0.0966
23692SOL     OW80043   6.850   7.023   5.373  0.2727  0.4495  0.1349
23692SOL    HW180044   6.844   6.947   5.430  0.2401  1.3453  1.3691
23692SOL    HW280045   6.827   6.990   5.286  0.6198 -1.0077  0.5725
23693SOL     OW80046   7.587   2.807   4.588 -0.4390  0.2220 -1.0803
23693SOL    HW180047   7.674   2.841   4.607  0.7061 -3.2176  0.6847
23693SOL    HW280048   7.549   2.790   4.674 -0.6360 -3.1867 -1.6890
23694SOL     OW80049   4.298   4.413  10.743  0.5438 -0.3155  0.6962
23694SOL    HW180050   4.339   4.410  10.657 -0.9338 -1.4995 -0.0231
23694SOL    HW280051   4.287   4.321  10.767  0.4993 -0.0008  1.9406
23695SOL     OW80052   6.869  12.360  10.718  0.4279 -0.3959  0.3419
23695SOL    HW180053   6.908  12.437  10.678  0.0474 -0.0766  0.5754
23695SOL    HW280054   6.903  12.286  10.668 -0.8931  0.0387 -1.2925
23696SOL     OW80055   9.557   1.182   3.054  0.5403 -0.1999  0.1117
23696SOL    HW180056   9.640   1.135   3.067 -0.3123 -1.6050  0.7393
23696SOL    HW280057   9.513   1.176   3.139  0.7686  2.6020  0.5159
23697SOL     OW80058   5.812   7.117  11.531 -0.1241 -0.1468 -0.2148
23697SOL    HW180059   5.768   7.073  11.459  0.7482 -1.0914 -0.1998
23697SOL    HW280060   5.905   7.097  11.518  0.6577  3.4285 -1.4047
23698SOL     OW80061   1.368   8.228   3.732 -0.1385 -0.0093  0.1487
23698SOL    HW180062   1.442   8.279   3.766 -1.6724  2.2228  0.3605
23698SOL    HW280063   1.302   8.234   3.801 -1.4083  0.1517 -1.0465
23699SOL     OW80064   0.177   1.723  10.604 -0.6285 -0.2561 -0.3174
23699SOL    HW180065   0.171   1.652  10.668  0.5576  1.0012  1.2536
23699SOL    HW280066   0.207   1.680  10.524  1.9385 -1.2930  1.1102
23700SOL     OW80067  12.348   2.649   0.234 -0.0682 -0.0998 -0.1494
23700SOL    HW180068  12.267   2.598   0.221  0.5902 -0.8527 -1.5205
23700SOL    HW280069  12.414   2.602   0.184  1.1525  0.7268  0.6391
23701SOL     OW80070  11.933   2.099   5.213  0.1162  0.1144  0.0103
23701SOL    HW180071  11.886   2.106   5.130  0.9814  0.8941 -0.4355
23701SOL    HW280072  12.026   2.094   5.188  0.3081 -1.1146  0.8785
23702SOL     OW80073   3.252   5.970   1.097 -0.2282 -0.3647  0.4165
23702SOL    HW180074   3.297   5.968   1.181 -1.1308  0.5823  0.9526
23702SOL    HW280075   3.301   6.033   1.045  1.1446 -1.9394 -0.2922
23703SOL     OW80076  11.351   2.812   8.946 -0.0599  0.0794 -0.3778
23703SOL    HW180077  11.286   2.869   8.905 -0.8588 -0.9723 -0.6204
23703SOL    HW280078  11.302   2.734   8.972  1.2242 -1.1099 -1.3050
23704SOL     OW80079   2.777   9.783   9.630  0.2888  0.9012 -0.0461
23704SOL    HW180080   2.822   9.730   9.697 -0.2438 -0.2811 -0.5970
23704SOL    HW280081   2.840   9.852   9.608  2.2480 -1.2028 -1.4213
23705SOL     OW80082   5.418   3.561   8.615  0.3506 -0.9421  0.0352
23705SOL    HW180083   5.381   3.642   8.578  0.4665 -0.6957  0.4572
23705SOL    HW280084   5.510   3.582   8.632 -0.0863 -0.5000  2.0373
23706SOL     OW80085   8.288   9.994   7.390 -0.3180  0.4423  0.4409
23706SOL    HW180086   8.330  10.011   7.306 -2.3664 -1.1367 -1.0105
23706SOL    HW280087   8.201  10.034   7.383 -0.0278  1.5514  2.4091
23707SOL     OW80088   8.575   4.504   2.642 -0.1682 -0.0589 -0.0309
23707SOL    HW180089   8.670   4.495   2.628  0.0116  1.1319  0.3901
23707SOL    HW280090   8.538   4.492   2.554  0.3957 -0.0948 -0.2736
23708SOL     OW80091   6.815   1.321   7.366 -0.5453  0.2430  0.7350
23708SOL    HW180092   6.868   1.342   7.442 -1.1395 -1.3635  1.6264
23708SOL    HW280093   6.845   1.235   7.338  0.4781  1.2623 -1.6099
23709SOL     OW80094   7.277   9.438   7.993  0.0836  0.6391 -0.0395
23709SOL    HW180095   7.348   9.502   7.984 -1.6129  2.4678 -1.3746
23709SOL    HW280096   7.231   9.442   7.909 -1.4356 -0.6794  0.6853
23710SOL     OW80097   1.002   6.767  11.591  0.2296  0.4369 -0.7443
23710SOL    HW180098   0.948   6.838  11.627  0.6041 -0.0777  0.9381
23710SOL    HW280099   1.026   6.796  11.504  1.1222  2.8089  0.2230
23711SOL     OW80100   3.003   9.835   0.147 -0.0251 -0.1161 -0.3407
23711SOL    HW180101   3.024   9.775   0.075 -1.5200 -1.0497 -0.0415
23711SOL    HW280102   2.971   9.914   0.103 -1.3966 -0.8551 -0.7446
23712SOL     OW80103   3.236   0.127  11.783 -0.4079 -0.3401  0.1216
23712SOL    HW180104   3.315   0.097  11.738  0.8824 -0.1362  2.0869
23712SOL    HW280105   3.176   0.052  11.779 -0.8192  0.0389 -2.7611
23713SOL     OW80106   2.006   7.452   6.343  0.2464 -0.2548 -0.3122
23713SOL    HW180107   2.079   7.448   6.280  0.1573  1.1800 -0.5509
23713SOL    HW280108   1.967   7.538   6.328  0.5487  0.3711  2.0762
23714SOL     OW80109   6.556   2.735   0.083 -0.0722 -0.2652 -0.1333
23714SOL    HW180110   6.513   2.709   0.165  0.6302 -1.7023 -0.1897
23714SOL    HW280111   6.484   2.742   0.019 -0.7735  1.8797  0.7747
23715SOL     OW80112   6.283   2.716   0.139 -0.1653 -0.2109 -0.3247
23715SOL    HW180113   6.319   2.633   0.171  0.8492  0.5180  0.4657
23715SOL    HW280114   6.188   2.703   0.141 -0.0268 -1.9118 -1.7403
23716SOL     OW80115   9.019   9.288   2.820  0.2380  0.5118  0.1168
23716SOL    HW180116   8.938   9.310   2.865 -0.8122 -0.3451 -1.2658
23716SOL    HW280117   9.085   9.345   2.859 -0.6537  0.0286  2.4776
23717SOL     OW80118   3.340  10.029  11.834 -0.4314  0.6256  0.4602
23717SOL    HW180119   3.309  10.078  11.910 -0.6087  0.5342  0.4486
23717SOL    HW280120   3.369  10.096  11.772  0.2880  0.6815  0.8522
23718SOL     OW80121   9.737   5.159   8.799  0.0403 -0.7448  0.6630
23718SOL    HW180122   9.747   5.178   8.892 -0.2249  1.9800  0.1988
23718SOL    HW280123   9.821   5.120   8.773  0.0536 -1.7033  2.0272
23719SOL     OW80124   0.723  11.786   5.082  0.6823 -0.2903 -0.0969
23719SOL    HW180125   0.678  11.714   5.039 -0.5771 -0.1841  0.9683
23719SOL    HW280126   0.701  11.776   5.175 -2.2453  3.1906 -0.1780
23720SOL     OW80127   5.572   8.625  10.987 -0.6062 -0.0869  0.0635
23720SOL    HW180128   5.558   8.716  10.962  0.4987  0.8469  2.5432
23720SOL    HW280129   5.584   8.627  11.082 -2.2092 -3.0511  0.4600
23721SOL     OW80130   5.412  10.785   3.632  0.1662 -0.0952  0.1752
23721SOL    HW180131   5.432  10.849   3.563 -1.7552  1.0698  0.6311
23721SOL    HW280132   5.333  10.819   3.674  0.7026 -1.3065  2.3068
23722SOL     OW80133   3.275   5.269  11.901  0.6295  0.2455  0.4378
23722SOL    HW180134   3.321   5.286  11.983  0.5268 -1.5950  0.8985
23722SOL    HW280135   3.343   5.272  11.834  1.2508 -1.3083  0.9756
23723SOL     OW80136   6.844  11.588   5.171  0.4700  0.2263  0.5674
23723SOL    HW180137   6.782  11.604   5.100 -0.1195  0.4255  1.1174
23723SOL    HW280138   6.889  11.672   5.182  0.3410  0.2861  0.6376
23724SOL     OW80139   2.163   1.156   5.740 -0.2958  0.1714  0.0378
23724SOL    HW180140   2.104   1.170   5.666  0.4442 -1.0868 -0.8443
23724SOL    HW280141   2.106   1.130   5.812 -0.9881  0.9271 -0.2201
23725SOL     OW80142   1.320   6.191   4.372  0.1310 -0.0585  0.7649
23725SOL    HW180143   1.332   6.212   4.464  1.3478 -0.5995  0.7484
23725SOL    HW280144   1.402   6.218   4.330 -0.9479  1.5547 -0.4408
23726SOL     OW80145   3.941  11.725   6.878  0.2734 -0.0518 -0.4274
23726SOL    HW180146   3.978  11.638   6.889 -2.5835 -1.1064  2.0130
23726SOL    HW280147   3.868  11.728   6.939 -1.3637  3.1469 -2.3062
23727SOL     OW80148  11.391  12.471   1.053 -0.3158 -0.1994  0.4491
23727SOL    HW180149  11.423  12.556   1.022 -0.3127 -0.3990 -0.0955
23727SOL    HW280150  11.458  12.442   1.115  0.6075 -0.6496 -0.7404
23728SOL     OW80151   9.696  10.749   7.352 -0.4922  0.7263 -0.1895
23728SOL    HW180152   9.683  10.777   7.443 -1.3886  1.8222 -0.6336
23728SOL    HW280153   9.662  10.821   7.300  1.4805  0.8292 -1.4254
23729SOL     OW80154   4.693   5.042  10.897  0.2426 -0.4690  0.1642
23729SOL    HW180155   4.624   4.981  10.873  0.2334 -0.2635 -0.3600
23729SOL    HW280156   4.679   5.060  10.990 -1.1882  0.5351 -0.2136
23730SOL     OW80157   5.779   2.817   2.447 -0.4741 -0.4137  0.0884
23730SOL    HW180158   5.828   2.774   2.377  0.8502  1.2602 -0.0820
23730SOL    HW280159   5.773   2.751   2.516  0.6744 -1.1720 -0.5066
23731SOL     OW80160   2.559   7.219   6.180 -1.1054 -0.1104 -0.0965
23731SOL    HW180161   2.643   7.226   6.225 -1.3040  0.0189  0.2621
23731SOL    HW280162   2.494   7.231   6.249 -1.4621  3.0447 -0.8231
23732SOL     OW80163   2.387   1.503   5.204 -0.2443 -0.3274 -0.2182
23732SOL    HW180164   2.377   1.529   5.112  1.6096 -1.5038 -0.8072
23732SOL    HW280165   2.479   1.517   5.223  0.0826 -2.9430  0.4866
23733SOL     OW80166   4.553   3.907  10.817 -0.4858 -0.1848 -0.3178
23733SOL    HW180167   4.493   3.854  10.869  0.7159 -1.1891  0.0881
23733SOL    HW280168   4.506   3.923  10.735 -0.2740 -3.3570 -1.1764
23734SOL     OW80169   4.091   3.116   1.020  0.5847  0.3321  0.0306
23734SOL    HW180170   4.090   3.081   1.109  1.2453 -1.1844 -0.5334
23734SOL    HW280171   4.007   3.160   1.010 -0.1291 -0.8075  0.8934
23735SOL     OW80172   3.430   0.163  10.097  0.0122 -0.2273  0.1698
23735SOL    HW180173   3.493   0.234  10.106 -0.9324  0.5483  0.8197
23735SOL    HW280174   3.480   0.093  10.055 -0.1111  2.2789 -4.8827
23736SOL     OW80175   4.711   6.033   8.310 -0.8416  0.2115 -0.2333
23736SOL    HW180176   4.690   5.940   8.310  1.3959 -0.3463 -0.0277
23736SOL    HW280177   4.805   6.037   8.295 -0.8141  2.4330  0.1068
23737SOL     OW80178   2.595   9.617   1.735 -0.2862 -0.1127  0.4160
23737SOL    HW180179   2.514   9.646   1.694  0.1886 -0.9781 -1.2304
23737SOL    HW280180   2.579   9.525   1.757  0.1581 -0.2118  0.3268
23738SOL     OW80181   2.705   0.223   3.510 -0.0948 -0.1179  0.0732
23738SOL    HW180182   2.635   0.260   3.565 -1.0849  0.0767 -1.2619
23738SOL    HW280183   2.663   0.149   3.465  0.7632 -0.4301 -0.2238
23739SOL     OW80184   6.914   0.159   9.298 -0.1890  0.3422 -0.2327
23739SOL    HW180185   6.919   0.235   9.240  0.7002  0.6156  0.1965
23739SOL    HW280186   6.890   0.087   9.239 -1.9275  1.0950 -0.4940
23740SOL     OW80187   2.767   0.358   6.661 -0.3588 -0.7854 -0.3325
23740SOL    HW180188   2.803   0.292   6.602 -0.0157 -1.5899  0.7313
23740SOL    HW280189   2.840   0.383   6.717 -0.5816  0.2384 -0.4746
23741SOL     OW80190   9.920   6.791   5.287 -0.5876 -0.2914  0.4745
23741SOL    HW180191  10.016   6.787   5.296 -0.5771  0.6564  0.9414
23741SOL    HW280192   9.905   6.797   5.193 -0.2385 -1.4152  0.3381
23742SOL     OW80193   4.459   6.428  12.376 -0.9185 -0.1815  0.2613
23742SOL    HW180194   4.553   6.423  12.389 -0.8974  1.1614  0.7143
23742SOL    HW280195   4.428   6.489  12.443 -1.8885  0.6555 -0.9079
23743SOL     OW80196  12.081  11.151  12.305  0.0920 -0.0878 -0.3543
23743SOL    HW180197  12.163  11.197  12.326  0.8355 -1.4515 -0.1390
23743SOL    HW280198  12.025  11.167  12.381  1.0349 -1.0709  0.5898
23744SOL     OW80199   0.917   1.750  10.350 -0.2849 -0.1129  0.2087
23744SOL    HW180200   0.872   1.831  10.374  1.4519  1.3988 -1.3910
23744SOL    HW280201   1.001   1.754  10.396 -0.2960 -1.1808  0.3578
23745SOL     OW80202   5.461  10.040   2.178 -0.1138 -0.1734  0.1789
23745SOL    HW180203   5.533  10.097   2.150 -0.2791 -0.8232 -1.6944
23745SOL    HW280204   5.383  10.079   2.140 -0.3756 -1.0239 -0.1849
23746SOL     OW80205   9.765   0.229   0.746 -0.1082  0.0015 -0.2827
23746SOL    HW180206   9.836   0.285   0.713 -0.3539  0.7229  0.3784
23746SOL    HW280207   9.689   0.287   0.750  0.0772  0.1826  2.2217
23747SOL     OW80208   3.015   8.975   0.992  0.7756 -0.2246  0.0324
23747SOL    HW180209   2.979   8.900   1.039 -1.6483  1.1117  0.5181
23747SOL    HW280210   3.002   8.954   0.900 -0.5574 -0.1372  0.1825
23748SOL     OW80211   4.172   1.570  10.559 -0.3194  0.2543  0.0270
23748SOL    HW180212   4.101   1.506  10.556  0.0380 -0.1241 -0.7560
23748SOL    HW280213   4.176   1.605  10.469  0.9039 -0.2038 -0.1111
23749SOL     OW80214  10.184   6.750   7.355 -0.0852  0.7031  0.0940
23749SOL    HW180215  10.169   6.754   7.449  1.9243 -2.5452  0.7070
23749SOL    HW280216  10.261   6.805   7.341  1.3323 -0.9719  0.9215
23750SOL     OW80217  10.914   4.565  10.745  0.2853 -0.3202 -0.0350
23750SOL    HW180218  10.938   4.657  10.749 -0.7124  0.1729 -2.9943
23750SOL    HW280219  10.844   4.556  10.810 -1.7143  1.8232 -1.7066
23751SOL     OW80220   6.102   7.179   2.992  0.0163  0.1711  0.6925
23751SOL    HW180221   6.148   7.158   2.911 -0.3601 -0.6211  0.6783
23751SOL    HW280222   6.009   7.177   2.969 -0.1809 -1.5662  1.4550
23752SOL     OW80223   1.931  10.556   8.247  0.0459 -0.4056 -0.1457
23752SOL    HW180224   1.952  10.463   8.253  1.0489 -0.2035 -0.3978
23752SOL    HW280225   1.838  10.561   8.271 -0.2024 -1.5479 -0.7879
23753SOL     OW80226  10.093   1.737  12.363 -0.5203  0.1208  0.1175
23753SOL    HW180227  10.071   1.701  12.449  2.1885 -2.4761 -0.1018
23753SOL    HW280228  10.179   1.778  12.377  1.1039 -2.3816 -1.6668
23754SOL     OW80229   5.347   9.430   3.145 -0.1837 -0.2781 -0.1808
23754SOL    HW180230   5.253   9.444   3.155 -0.2376  0.0324 -1.1124
23754SOL    HW280231   5.387   9.496   3.203 -0.5273  0.2986 -0.5850
23755SOL     OW80232   3.432  10.979   4.232 -0.1108 -1.1297 -0.7444
23755SOL    HW180233   3.489  11.040   4.278 -1.1371 -0.0439 -0.8672
23755SOL    HW280234   3.470  10.973   4.144 -0.6989  0.3518 -1.1322
23756SOL     OW80235  10.505   4.341   6.202 -0.0695 -0.3789 -0.6424
23756SOL    HW180236  10.596   4.311   6.205  0.0640  0.0589 -0.0872
23756SOL    HW280237  10.509   4.430   6.237 -0.8297 -0.6516  0.1430
23757SOL     OW80238   2.163  11.007   5.019  0.5099  0.1386  0.0485
23757SOL    HW180239   2.238  11.065   5.030  1.7178 -1.7165  2.6335
23757SOL    HW280240   2.193  10.938   4.960 -0.5016  1.3345 -1.9739
23758SOL     OW80241   5.671  10.029   5.757 -0.3680  0.3897 -0.6980
23758SOL    HW180242   5.727  10.102   5.731  0.4487  0.1970  0.4635
23758SOL    HW280243   5.614  10.066   5.825 -1.7384  0.6023 -1.9092
23759SOL     OW80244   3.172   3.967  12.175  0.6890  0.1390 -0.3295
23759SOL    HW180245   3.087   3.931  12.200  0.8236 -0.3056 -0.5103
23759SOL    HW280246   3.153   4.024  12.101  0.2423  1.6656  0.8956
23760SOL     OW80247   4.385   6.223  10.332  0.0496 -0.5878  0.0383
23760SOL    HW180248   4.366   6.140  10.376  0.5000 -0.4175  0.5696
23760SOL    HW280249   4.441   6.270  10.394 -1.3533  0.7186  0.3492
23761SOL     OW80250  10.763   9.074   4.358 -0.2750 -0.0737 -0.4360
23761SOL    HW180251  10.818   9.130   4.414  0.4274 -0.3361 -0.8478
23761SOL    HW280252  10.707   9.136   4.311 -0.7178  0.1649  0.3847
23762SOL     OW80253   5.874   0.539  12.169 -0.5996  0.1095  0.1775
23762SOL    HW180254   5.916   0.454  12.162 -0.7855  0.1341 -1.7972
23762SOL    HW280255   5.789   0.521  12.209  0.3837 -0.2248  2.2180
23763SOL     OW80256   1.684   8.609   3.912 -0.1332  0.7136 -0.3698
23763SOL    HW180257   1.735   8.632   3.991 -0.5245  0.7859 -0.1353
23763SOL    HW280258   1.733   8.649   3.840  0.7345 -0.1302 -0.2706
23764SOL     OW80259   1.950   3.806   0.357  0.4508 -0.1944  0.2364
23764SOL    HW180260   2.038   3.801   0.321  0.3097  0.5576 -0.2455
23764SOL    HW280261   1.962   3.832   0.448  0.7245  0.0496  0.1307
23765SOL     OW80262  10.377   9.742   0.578  0.0447  0.2217  0.1369
23765SOL    HW180263  10.440   9.679   0.612 -0.3491 -0.3895 -0.2340
23765SOL    HW280264  10.378   9.814   0.641  1.4862  0.4623 -0.1357
23766SOL     OW80265   6.924   2.335   2.009 -0.1767  0.0191  0.1410
23766SOL    HW180266   6.872   2.292   1.942  0.9211 -2.7494  0.8887
23766SOL    HW280267   6.863   2.351   2.081 -1.4804  3.4893 -1.5455
23767SOL     OW80268   1.539   7.179  10.871  0.2262  0.1337 -0.1501
23767SOL    HW180269   1.578   7.103  10.829  0.0210 -1.2803  2.0528
23767SOL    HW280270   1.462   7.199  10.819  0.2270 -1.2376 -0.7193
23768SOL     OW80271   8.285   2.644  11.967  0.8388 -0.0516  0.3057
23768SOL    HW180272   8.348   2.627  11.898  0.1358 -1.2248 -0.0821
23768SOL    HW280273   8.215   2.694  11.924  1.2257  0.7853  0.6123
23769SOL     OW80274   6.454   4.011   0.438 -1.0029  0.3145 -0.0729
23769SOL    HW180275   6.503   4.086   0.403 -1.0809 -0.4980 -2.0662
23769SOL    HW280276   6.380   4.001   0.379 -1.7234 -0.5504  0.9387
23770SOL     OW80277  11.831   8.467   3.431  0.0197  0.6735 -0.4200
23770SOL    HW180278  11.791   8.467   3.517 -0.3516  1.9961 -0.5843
23770SOL    HW280279  11.925   8.457   3.448 -0.2147 -1.1426  0.0161
23771SOL     OW80280   0.104   1.551   0.999  0.1659 -0.3637  0.3913
23771SOL    HW180281   0.060   1.502   0.930 -0.5598  1.9421 -0.9089
23771SOL    HW280282   0.035   1.605   1.038  1.3144  1.4974 -0.0029
23772SOL     OW80283   5.428   5.537   3.849  0.3166 -0.5695 -0.1849
23772SOL    HW180284   5.350   5.566   3.802  0.8612  0.0012 -0.7550
23772SOL    HW280285   5.444   5.606   3.914  1.4340  0.2909 -1.3345
23773SOL     OW80286   5.439   0.433   9.354 -0.1204 -0.1947 -0.5396
23773SOL    HW180287   5.475   0.345   9.351 -0.1277 -0.1875 -0.8634
23773SOL    HW280288   5.344   0.420   9.366  0.1752 -0.1962  2.5399
23774SOL     OW80289   1.955   7.829  11.397 -0.3627 -0.5672 -0.2191
23774SOL    HW180290   1.879   7.879  11.425  0.3569  0.0259  0.7318
23774SOL    HW280291   1.996   7.800  11.478  1.1444  0.2092 -0.6659
23775SOL     OW80292   3.525   4.801   1.109 -0.1890  0.5250 -0.2251
23775SOL    HW180293   3.431   4.795   1.091 -0.3993  0.6679  0.7356
23775SOL    HW280294   3.529   4.830   1.200  0.7829 -2.0187  0.6019
23776SOL     OW80295   2.356  11.193   5.089  0.4796 -0.0951  0.0803
23776SOL    HW180296   2.338  11.201   5.183  0.8155 -0.0362  0.1403
23776SOL    HW280297   2.440  11.236   5.077  0.2931  0.1722 -0.3006
23777SOL     OW80298   8.807   8.455   8.884  0.2199 -0.1356  0.3486
23777SOL    HW180299   8.867   8.384   8.904 -0.0355  0.0261  1.8249
23777SOL    HW280300   8.856   8.512   8.825  0.6564 -1.1971 -0.3314
23778SOL     OW80301   8.866   3.302   7.304  0.2501 -1.2826  0.5186
23778SOL    HW180302   8.860   3.343   7.218  0.7061 -3.1583 -0.4564
23778SOL    HW280303   8.776   3.301   7.337 -0.2473 -2.2079 -0.7783
23779SOL     OW80304   1.042   6.611   2.354  0.3829  0.1248  0.0906
23779SOL    HW180305   1.025   6.529   2.308  0.6685  0.1105  0.0077
23779SOL    HW280306   1.132   6.633   2.330  1.3795 -1.0669  2.4447
23780SOL     OW80307   8.924   0.700  12.575  0.5283 -0.2977 -0.4692
23780SOL    HW180308   8.951   0.786  12.542  1.0268 -0.4115 -0.3674
23780SOL    HW280309   8.982   0.684  12.650 -2.3890  1.2166  2.3740
23781SOL     OW80310   5.785   8.489   9.950 -0.3131  0.4210  0.2441
23781SOL    HW180311   5.706   8.531   9.985 -0.5114  0.0882  0.2104
23781SOL    HW280312   5.841   8.475  10.026 -1.0926 -1.0481  0.5865
23782SOL     OW80313   6.129   8.430   0.368 -0.5589 -0.3013 -0.1206
23782SOL    HW180314   6.074   8.489   0.420  0.9043  0.2239  0.8665
23782SOL    HW280315   6.120   8.345   0.410  0.8880  0.1910  1.2517
23783SOL     OW80316   7.394  12.064   6.640  0.0659 -0.3180 -0.0716
23783SOL    HW180317   7.384  12.121   6.715 -2.2265 -0.0027 -0.5277
23783SOL    HW280318   7.333  12.098   6.575  0.3963 -1.8479 -1.2696
23784SOL     OW80319   8.984   8.046   3.242 -0.1070  0.0548 -0.1180
23784SOL    HW180320   8.973   8.037   3.337  0.8739 -0.3689 -0.0420
23784SOL    HW280321   8.900   8.017   3.206 -0.2124 -0.5203  0.5750
23785SOL     OW80322   6.908  11.921   4.384 -0.5047  0.3031  0.5679
23785SOL    HW180323   6.822  11.947   4.417 -0.3848  0.1667  0.9943
23785SOL    HW280324   6.945  12.001   4.347 -0.9169  0.3070  0.1506
23786SOL     OW80325   1.367   6.811   8.439  0.0241 -0.0065 -0.2249
23786SOL    HW180326   1.323   6.865   8.506  1.2239  1.8366 -0.8289
23786SOL    HW280327   1.442   6.773   8.485  0.3178  0.5054 -0.2670
23787SOL     OW80328   9.421   7.690   2.580 -0.0756  0.2107  0.0498
23787SOL    HW180329   9.399   7.597   2.567  0.2931 -0.0288  1.1118
23787SOL    HW280330   9.473   7.713   2.503  1.7935 -1.1039  0.8666
23788SOL     OW80331  12.524   9.647  10.848  0.1216 -0.4125 -0.0110
23788SOL    HW180332  12.526   9.675  10.940  1.0734  1.1095 -0.4647
23788SOL    HW280333  12.583   9.572  10.845  1.8065  0.8358  0.2624
23789SOL     OW80334   0.034   4.156  10.275  0.3293 -0.0525 -0.1293
23789SOL    HW180335   0.018   4.127  10.365 -0.3337  0.2171 -0.1537
23789SOL    HW280336  -0.000   4.246  10.273  3.0479  1.0852  0.1746
23790SOL     OW80337  10.922   0.395   6.053 -0.1714  0.2690 -0.4501
23790SOL    HW180338  10.936   0.310   6.094 -0.1720  1.0056  1.1425
23790SOL    HW280339  10.969   0.390   5.970  2.9552 -0.0778  1.2024
23791SOL     OW80340   4.566  11.992  11.940 -0.5663 -0.1920  0.3069
23791SOL    HW180341   4.522  12.003  12.024  0.2339  1.2771  0.5786
23791SOL    HW280342   4.634  12.060  11.940 -1.8602  1.2898 -2.3394
23792SOL     OW80343   5.902   3.410   5.854  0.0824 -0.2064 -0.1505
23792SOL    HW180344   5.827   3.393   5.797  0.4984 -1.3799 -0.3685
23792SOL    HW280345   5.890   3.501   5.882 -1.5132 -0.4199 -0.0364
23793SOL     OW80346   1.596   2.516  11.172  0.1416 -0.1646  0.0410
23793SOL    HW180347   1.572   2.558  11.255 -3.7095 -0.1221 -0.8812
23793SOL    HW280348   1.592   2.423  11.191 -2.2299 -0.2015 -0.2952
23794SOL     OW80349   4.003  11.482   3.719  0.1723  0.4066  0.3314
23794SOL    HW180350   3.990  11.505   3.627 -1.1362 -0.1402  0.3657
23794SOL    HW280351   4.050  11.398   3.717 -1.0452 -0.2853  0.1348
23795SOL     OW80352   6.474   9.594   1.373 -0.5839  0.1089  0.0730
23795SOL    HW180353   6.529   9.669   1.350  1.5505 -0.4758  2.7329
23795SOL    HW280354   6.386   9.630   1.381 -0.1869  1.6410 -1.7099
23796SOL     OW80355   7.174   2.693   4.504 -0.2035  0.0974  0.1380
23796SOL    HW180356   7.119   2.615   4.511  0.2006 -0.1460  0.6517
23796SOL    HW280357   7.246   2.677   4.565 -0.8565  1.4888  1.2976
23797SOL     OW80358  12.066   7.343   6.705  0.3144  0.4552  0.4528
23797SOL    HW180359  12.007   7.380   6.771  1.0845  1.3510  0.6603
23797SOL    HW280360  12.132   7.296   6.756  2.1541  2.9207  0.5297
23798SOL     OW80361   1.165   9.023   5.062  0.0037  0.4480 -0.1596
23798SOL    HW180362   1.219   9.008   4.985 -0.3969  0.4307 -0.4428
23798SOL    HW280363   1.106   8.947   5.066 -2.3811  2.0532 -1.8982
23799SOL     OW80364   3.616  10.889  12.275 -0.1242  0.0049 -0.5158
23799SOL    HW180365   3.572  10.957  12.326  0.7737  0.2541 -0.0624
23799SOL    HW280366   3.688  10.934  12.232  1.0200 -0.8134  0.4782
23800SOL     OW80367   5.091   0.391   6.011 -0.1015 -0.4904  0.0899
23800SOL    HW180368   5.136   0.343   5.941  0.9279 -0.2157  0.5467
23800SOL    HW280369   4.999   0.393   5.983  0.1975 -0.8673 -0.9826
23801SOL     OW80370   0.863   9.668   5.247 -0.6276 -1.1785 -0.2356
23801SOL    HW180371   0.786   9.707   5.204 -0.2877 -1.0158 -0.7004
23801SOL    HW280372   0.830   9.640   5.332 -0.8678  0.2277  0.1629
23802SOL     OW80373   9.008   1.745  11.864 -0.1587  0.2164 -0.5592
23802SOL    HW180374   8.921   1.769  11.831 -0.1141  0.0658 -0.7858
23802SOL    HW280375   8.991   1.672  11.923 -0.1145 -0.2541 -1.1211
23803SOL     OW80376   2.727   8.284   1.685  0.1095  0.6322  0.4318
23803SOL    HW180377   2.815   8.252   1.706 -0.4017 -1.5845 -0.5476
23803SOL    HW280378   2.721   8.367   1.731  2.2033  0.1718  1.6942
23804SOL     OW80379   6.216   1.321   8.637  0.2678 -0.2923  0.0460
23804SOL    HW180380   6.285   1.385   8.624  0.1933  0.0399  1.1802
23804SOL    HW280381   6.224   1.295   8.729 -0.1000 -1.4470 -0.2341
23805SOL     OW80382   5.452   7.195   9.234 -0.2836 -0.2767  0.3013
23805SOL    HW180383   5.545   7.207   9.212 -0.4681  0.7643  0.0506
23805SOL    HW280384   5.428   7.113   9.191 -0.0340  0.5509 -1.4863
23806SOL     OW80385   6.484  10.439   6.082 -0.2348 -0.2681  0.4226
23806SOL    HW180386   6.560  10.445   6.139  0.3995  2.3224 -0.5807
23806SOL    HW280387   6.413  10.408   6.139  1.3395 -1.9959  1.5373
23807SOL     OW80388   8.485   6.416   9.148  0.2085 -0.0484  0.4319
23807SOL    HW180389   8.451   6.366   9.223  1.6705 -1.5266  0.1647
23807SOL    HW280390   8.572   6.442   9.176  0.9036 -0.9036 -0.8551
23808SOL     OW80391   2.815   0.535   3.136  0.2591 -0.6441  0.3982
23808SOL    HW180392   2.890   0.489   3.172  0.2476 -0.8456  0.1643
23808SOL    HW280393   2.750   0.467   3.120 -1.1267 -0.1562  3.3717
23809SOL     OW80394   7.517   3.361   0.636  0.2532 -0.0012 -0.6125
23809SOL    HW180395   7.461   3.414   0.692 -1.1853 -1.4957 -0.5769
23809SOL    HW280396   7.494   3.388   0.546  2.5207  2.3551 -0.6157
23810SOL     OW80397   3.595  12.322   1.837  0.4480  0.1591  0.3979
23810SOL    HW180398   3.508  12.291   1.861  1.2486 -2.3364  0.4711
23810SOL    HW280399   3.621  12.380   1.908 -0.2366 -1.0355  1.6763
23811SOL     OW80400   7.971   9.046   4.662  0.2037  0.4003 -0.4696
23811SOL    HW180401   7.920   9.073   4.585 -0.9132 -1.1150 -0.3078
23811SOL    HW280402   7.935   8.960   4.685  2.4305 -0.4401  0.0579
23812SOL     OW80403   4.520   6.341   9.046 -0.1598 -0.1877  0.0857
23812SOL    HW180404   4.500   6.283   9.119 -0.4661 -1.5063 -1.0101
23812SOL    HW280405   4.613   6.362   9.057 -0.0456 -0.8962  0.4815
23813SOL     OW80406   7.648  10.909   6.535 -0.6225 -0.3352 -0.4758
23813SOL    HW180407   7.584  10.978   6.552  0.1013  0.2964 -0.2348
23813SOL    HW280408   7.704  10.909   6.613  1.4767  1.1702 -1.8748
23814SOL     OW80409   6.602  10.109   1.075  0.0652  0.7001 -0.2489
23814SOL    HW180410   6.612  10.019   1.043  0.6338  0.5000  0.4876
23814SOL    HW280411   6.688  10.148   1.063 -0.1147  1.0726 -0.3267
23815SOL     OW80412  11.203   6.358   0.351  0.0024  0.1871  0.0114
23815SOL    HW180413  11.125   6.307   0.370  0.9449 -1.1883  0.3731
23815SOL    HW280414  11.202   6.368   0.256 -0.7110  0.3627  0.0325
23816SOL     OW80415   8.016   8.359  10.577 -0.4109  0.0438 -0.7549
23816SOL    HW180416   8.044   8.434  10.630 -0.6376 -0.0137 -0.5525
23816SOL    HW280417   8.002   8.396  10.489  0.2298  0.0870 -0.8493
23817SOL     OW80418   5.233   7.890  12.421 -0.3271 -0.1232  0.1544
23817SOL    HW180419   5.274   7.928  12.343 -0.0670 -2.1259 -0.7279
23817SOL    HW280420   5.139   7.895  12.404 -0.2945  0.0267  0.0116
23818SOL     OW80421   0.729   3.905   5.803 -0.4954 -0.8129 -0.1402
23818SOL    HW180422   0.752   3.896   5.895  0.2972  1.1116 -0.1179
23818SOL    HW280423   0.643   3.862   5.796 -2.2359  1.9313  2.2619
23819SOL     OW80424  12.021   9.932   6.699 -0.4186  0.2308 -0.1233
23819SOL    HW180425  12.034   9.893   6.785  0.5869 -0.2647 -0.4788
23819SOL    HW280426  12.094   9.993   6.690  0.5522 -1.0488 -1.3454
23820SOL     OW80427   7.160   9.006  11.298  0.7172 -0.0028 -0.1984
23820SOL    HW180428   7.184   8.925  11.252 -0.1405 -1.4376  1.7368
23820SOL    HW280429   7.231   9.021  11.359  0.4723  0.2306  0.0319
23821SOL     OW80430   9.244   7.714   2.305  0.1868 -0.8384 -0.2560
23821SOL    HW180431   9.190   7.782   2.264  1.6110 -0.3162 -1.3670
23821SOL    HW280432   9.300   7.682   2.234  1.8112 -0.8732  0.9776
23822SOL     OW80433   9.717   4.773  11.743 -0.1665 -0.5560 -0.3333
23822SOL    HW180434   9.636   4.727  11.766 -0.4604 -1.1618 -2.3822
23822SOL    HW280435   9.757   4.720  11.674  1.3297  0.4091 -0.2615
23823SOL     OW80436   3.351  12.221   5.729  0.1927 -0.2435 -0.0813
23823SOL    HW180437   3.423  12.268   5.687 -0.3990 -0.2043 -1.0652
23823SOL    HW280438   3.328  12.152   5.668  0.3583 -1.1869  0.8946
23824SOL     OW80439   8.801   8.713   0.015 -0.5138 -0.0829 -0.4333
23824SOL    HW180440   8.895   8.707   0.002 -0.3352 -1.7093  1.1740
23824SOL    HW280441   8.763   8.703  -0.072  0.7955  2.2617 -1.3434
23825SOL     OW80442   5.799   0.547  11.663  0.8559  0.5281  0.0797
23825SOL    HW180443   5.738   0.619  11.649 -2.1123 -2.0137 -1.0665
23825SOL    HW280444   5.793   0.528  11.757 -0.6264 -0.0651 -0.1194
23826SOL     OW80445   4.729   9.808   0.672 -0.0019 -0.4225 -0.1748
23826SOL    HW180446   4.638   9.836   0.680  0.0711 -0.5182  1.5033
23826SOL    HW280447   4.727   9.740   0.605 -0.9614  0.3517 -0.9610
23827SOL     OW80448   3.675   1.877   5.268  0.2579  0.4294 -0.1085
23827SOL    HW180449   3.691   1.858   5.361 -0.8247  1.2922  0.2743
23827SOL    HW280450   3.749   1.931   5.242 -0.7213  2.4144  1.0023
23828SOL     OW80451   0.001  11.611   1.234  0.0371 -0.3873  0.1847
23828SOL    HW180452  -0.061  11.573   1.171 -0.5392 -0.9791  1.0843
23828SOL    HW280453   0.082  11.562   1.220 -0.4750 -1.4433  0.7989
23829SOL     OW80454   2.997   8.368   4.696  0.1221  0.1248 -0.1150
23829SOL    HW180455   2.910   8.329   4.694  1.1301 -2.3265  0.5914
23829SOL    HW280456   3.017   8.377   4.790  0.4841  1.1169 -0.2674
23830SOL     OW80457   0.126   2.047   4.959  0.2778  0.3826  0.7872
23830SOL    HW180458   0.186   1.985   5.001  2.3075  1.3875 -0.4273
23830SOL    HW280459   0.181   2.124   4.942 -1.1755  1.0638 -1.1222
23831SOL     OW80460   5.896   1.970   6.012 -0.6182 -0.2698  0.8412
23831SOL    HW180461   5.897   1.907   6.084 -2.0485 -2.1240 -0.6553
23831SOL    HW280462   5.848   2.045   6.047  0.3852 -0.3142  2.3987
23832SOL     OW80463  11.381   7.978  12.154  0.3438 -0.2909 -0.0680
23832SOL    HW180464  11.350   8.023  12.076  0.2633 -0.2983 -0.0416
23832SOL    HW280465  11.333   7.895  12.154  0.3448 -0.2917 -0.0131
23833SOL     OW80466   9.515   5.610  10.251 -0.1257 -0.4365 -0.2044
23833SOL    HW180467   9.588   5.628  10.310 -0.0085 -4.5184  1.2162
23833SOL    HW280468   9.541   5.647  10.167  1.8655  1.3935  1.1254
23834SOL     OW80469  10.288   1.273   4.333 -0.1405 -0.0761  0.4134
23834SOL    HW180470  10.364   1.215   4.334  0.0017  0.0567 -0.7447
23834SOL    HW280471  10.231   1.236   4.265 -0.6197  0.4296  0.5360
23835SOL     OW80472   9.882   1.272   7.396  0.0666 -0.1542 -0.2272
23835SOL    HW180473   9.958   1.265   7.453  1.3063  1.3130 -1.5970
23835SOL    HW280474   9.877   1.188   7.352 -0.0631 -0.8008  0.9757
23836SOL     OW80475   6.968   2.352  11.094 -1.1938 -0.0301  0.3712
23836SOL    HW180476   7.013   2.336  11.177  1.1422 -0.4666 -0.9012
23836SOL    HW280477   7.016   2.423  11.054 -1.2223 -0.9314 -1.3431
23837SOL     OW80478   1.075   7.596   9.147 -0.1870  0.2277  0.1109
23837SOL    HW180479   1.025   7.593   9.065 -0.5391 -0.7105  0.3595
23837SOL    HW280480   1.070   7.508   9.182  0.9527  0.3238  0.5649
23838SOL     OW80481   0.019   8.409   4.220 -0.0242  0.2452 -0.2985
23838SOL    HW180482   0.017   8.438   4.311 -0.6188 -0.1506 -0.1817
23838SOL    HW280483   0.092   8.347   4.216 -0.9641 -0.9502  0.2908
23839SOL     OW80484   4.599   0.223   5.290  0.2758 -0.6021 -0.1758
23839SOL    HW180485   4.650   0.300   5.265  0.3790 -0.8918 -0.8987
23839SOL    HW280486   4.664   0.156   5.310  0.1888 -0.4492  0.6486
23840SOL     OW80487   6.083   3.988   1.216 -0.7575 -0.6559 -0.1520
23840SOL    HW180488   5.997   3.989   1.256 -1.2699 -0.1714 -1.2106
23840SOL    HW280489   6.090   3.903   1.174 -0.7166 -0.6950 -0.0665
23841SOL     OW80490  10.857   9.766   4.422 -0.3000  0.1681  0.2195
23841SOL    HW180491  10.820   9.765   4.510  1.7487 -0.7384  1.1349
23841SOL    HW280492  10.839   9.855   4.389  1.6106  1.6411  2.8039
23842SOL     OW80493  10.718   8.183   9.433  0.0104  0.1747  0.2122
23842SOL    HW180494  10.666   8.173   9.513 -1.3229  0.7607 -0.5421
23842SOL    HW280495  10.805   8.152   9.457 -0.0165  1.4613  2.2383
23843SOL     OW80496  12.186   9.910  11.391  0.0215  0.4005  0.0025
23843SOL    HW180497  12.121   9.884  11.457 -1.6902  0.4939 -1.5616
23843SOL    HW280498  12.169   9.852  11.317  1.6663  0.5400 -0.5185
23844SOL     OW80499   9.729   6.224   3.117 -0.5295  0.5647  0.2209
23844SOL    HW180500   9.672   6.181   3.054  2.4642 -1.4572 -1.3994
23844SOL    HW280501   9.764   6.153   3.171  0.8888  1.5681  0.7050
23845SOL     OW80502   7.250   6.065   2.277  0.7471  0.7652  0.4802
23845SOL    HW180503   7.195   5.988   2.293 -0.9395  1.8371  0.0597
23845SOL    HW280504   7.258   6.069   2.182 -0.2614  1.7881  0.4079
23846SOL     OW80505   8.355  10.914   1.487  0.6199 -0.1572 -0.5254
23846SOL    HW180506   8.330  10.981   1.552  2.2782  1.1937 -1.2161
23846SOL    HW280507   8.391  10.843   1.539  2.0817  0.9767  0.0974
23847SOL     OW80508  11.327   8.850  10.604  0.0076 -0.3680  0.1622
23847SOL    HW180509  11.371   8.927  10.641 -0.8672  0.1117  0.2246
23847SOL    HW280510  11.388   8.778  10.620  0.5162  0.1825  0.7573
23848SOL     OW80511   1.605   6.767   2.807  0.0673 -0.0034 -0.2138
23848SOL    HW180512   1.692   6.772   2.848  0.2125 -2.0382 -0.1358
23848SOL    HW280513   1.597   6.847   2.756  1.4513  0.8305  0.8154
23849SOL     OW80514   6.603  10.292  11.391  0.0434 -0.6389  0.2518
23849SOL    HW180515   6.559  10.332  11.465 -0.0845 -0.9507  0.3466
23849SOL    HW280516   6.690  10.331  11.390 -0.6695  1.0138 -0.7645
23850SOL     OW80517  10.636   1.581  10.703  0.5644  0.0920 -0.0241
23850SOL    HW180518  10.584   1.524  10.759 -0.9684  0.3844 -1.0770
23850SOL    HW280519  10.710   1.527  10.674 -1.3052 -1.7310 -1.6994
23851SOL     OW80520   0.963   6.320   7.046 -0.2132 -0.3646 -0.5208
23851SOL    HW180521   0.883   6.373   7.050  0.1325  0.1682 -0.5347
23851SOL    HW280522   1.003   6.330   7.132 -0.3172 -0.8756 -0.4142
23852SOL     OW80523   7.982   1.028   1.990 -0.3259  0.4420  0.4238
23852SOL    HW180524   7.927   0.959   2.027  0.6430  0.5555  2.1838
23852SOL    HW280525   7.945   1.110   2.024  0.4796  0.5592  1.0567
23853SOL     OW80526   1.951   9.667   6.332 -0.0705 -0.4040 -0.3182
23853SOL    HW180527   2.045   9.653   6.326  0.1536  0.3983  1.0547
23853SOL    HW280528   1.941   9.754   6.370 -1.3370 -1.2303  1.3994
23854SOL     OW80529   1.487   1.734   8.707 -0.2465 -0.3513  0.7472
23854SOL    HW180530   1.436   1.763   8.631 -0.5310  1.9391  1.7314
23854SOL    HW280531   1.456   1.789   8.778  3.1615  0.7449  1.5458
23855SOL     OW80532   1.050   6.780   8.650 -0.0615  0.7364 -0.7135
23855SOL    HW180533   1.113   6.726   8.698  0.5140  0.8419 -1.3254
23855SOL    HW280534   1.024   6.724   8.576 -2.2127 -0.0942  0.5637
23856SOL     OW80535  11.649   8.514  12.022  0.1826 -0.6328  0.4303
23856SOL    HW180536  11.641   8.506  11.927 -1.9463  0.3265  0.4685
23856SOL    HW280537  11.631   8.426  12.056 -1.0230 -0.5667  0.0017
23857SOL     OW80538   1.705   5.288   2.915  0.2525  0.0750 -0.0923
23857SOL    HW180539   1.665   5.302   3.000  1.3135  0.3311  0.3803
23857SOL    HW280540   1.744   5.373   2.892 -0.6925  0.2303 -1.1949
23858SOL     OW80541   3.311   7.698   2.524  0.6349 -0.1486 -0.1821
23858SOL    HW180542   3.306   7.793   2.509  0.2242 -0.1523 -0.0895
23858SOL    HW280543   3.356   7.689   2.608 -1.8713  0.1008  1.2945
23859SOL     OW80544   0.971   1.931   3.804  0.0894  0.4669 -0.4967
23859SOL    HW180545   0.947   1.980   3.725  0.9960 -0.3025 -1.2852
23859SOL    HW280546   1.058   1.964   3.826 -0.0068  0.4095 -0.0313
23860SOL     OW80547   8.539  10.475   6.956 -0.2135  0.4786  0.4053
23860SOL    HW180548   8.618  10.423   6.971 -0.5530  0.5706  2.8445
23860SOL    HW280549   8.538  10.490   6.861  1.5654 -1.2772  0.0431
23861SOL     OW80550   1.978  11.809   9.354 -0.2119 -0.4436 -0.2019
23861SOL    HW180551   2.055  11.752   9.354  0.5410  0.5570 -0.2694
23861SOL    HW280552   1.941  11.798   9.442  0.9759  0.3302  0.4269
23862SOL     OW80553   7.119   3.789   0.574 -0.1473  0.3289  0.1107
23862SOL    HW180554   7.152   3.749   0.493 -0.9322  1.3135 -0.7240
23862SOL    HW280555   7.037   3.831   0.549 -0.6159  0.3125  1.5213
23863SOL     OW80556   5.302   0.972   0.778  0.3843  0.2798 -0.6826
23863SOL    HW180557   5.236   1.005   0.717  2.7728  2.3054 -2.3837
23863SOL    HW280558   5.336   1.050   0.821  0.9949 -0.8097  0.9068
23864SOL     OW80559   2.350   4.635   8.792  0.7440  0.2148 -0.0848
23864SOL    HW180560   2.269   4.643   8.743  2.0847  0.5953 -2.4212
23864SOL    HW280561   2.395   4.560   8.751  1.3568 -0.3415  1.5160
23865SOL     OW80562   4.015  12.468  10.989  0.1931 -0.0551 -0.3822
23865SOL    HW180563   3.998  12.388  10.939 -0.5631  0.8567 -1.6480
23865SOL    HW280564   4.089  12.509  10.945  1.4204 -0.6417  1.0305
23866SOL     OW80565   6.214  11.850   7.021  0.4391  0.0510 -0.5073
23866SOL    HW180566   6.275  11.776   7.031  0.1320  0.0633  2.3752
23866SOL    HW280567   6.130  11.809   6.999  1.2379  0.0051 -4.0567
23867SOL     OW80568   4.841   5.941   0.317 -0.3164 -0.0159 -0.0065
23867SOL    HW180569   4.803   5.857   0.291  0.6255 -0.8057  1.0319
23867SOL    HW280570   4.786   5.971   0.389  0.0830 -0.3780  0.4553
23868SOL     OW80571   9.326   7.322  11.295  0.0858  0.2215  0.0047
23868SOL    HW180572   9.275   7.266  11.236  0.0484  0.6054 -0.3369
23868SOL    HW280573   9.388   7.263  11.337  1.8043  0.3070 -2.2658
23869SOL     OW80574   2.297   2.221   3.762 -0.2845  0.5547  0.1480
23869SOL    HW180575   2.364   2.161   3.731 -0.6315  0.8730 -1.3132
23869SOL    HW280576   2.242   2.168   3.820  0.8043  0.1135  0.7952
23870SOL     OW80577   6.589   5.774  11.210 -0.0162 -0.0572  0.4550
23870SOL    HW180578   6.637   5.838  11.157  0.9388 -1.7321 -0.7799
23870SOL    HW280579   6.497   5.800  11.201  0.3309  1.0230 -0.1470
23871SOL     OW80580   7.134  10.062   8.893  0.4690 -0.7487  0.1887
23871SOL    HW180581   7.143  10.060   8.798 -0.8475 -0.6534  0.0502
23871SOL    HW280582   7.172  10.146   8.919  1.0819 -0.8929 -0.2069
23872SOL     OW80583   4.353   2.596   1.516 -0.1063 -0.2982  0.1847
23872SOL    HW180584   4.395   2.525   1.469 -1.0290 -0.0055 -1.1262
23872SOL    HW280585   4.407   2.609   1.594  2.3434  0.1886 -1.5064
23873SOL     OW80586   7.501   4.916   4.833  0.1358  0.0266 -0.0830
23873SOL    HW180587   7.449   4.836   4.842 -1.7330  1.3058  0.9266
23873SOL    HW280588   7.481   4.948   4.745  0.3392 -0.2232 -0.2228
23874SOL     OW80589   5.787   0.346   4.903  0.3411  0.1360  0.1790
23874SOL    HW180590   5.786   0.258   4.866  0.1150  0.0505  0.3903
23874SOL    HW280591   5.780   0.404   4.826 -2.6675 -0.0629  0.1897
23875SOL     OW80592   1.838   3.627   0.188 -0.4690  0.8560  0.0132
23875SOL    HW180593   1.849   3.699   0.249 -0.7825  1.8479 -1.0634
23875SOL    HW280594   1.755   3.646   0.143 -1.6804 -1.2908  1.1582
23876SOL     OW80595   1.420  12.009   3.521  0.1959 -0.5867 -0.2174
23876SOL    HW180596   1.396  11.992   3.612  0.6861 -0.6931 -0.1026
23876SOL    HW280597   1.368  12.085   3.496 -1.3738 -1.6967 -0.4584
23877SOL     OW80598   2.648   7.592   3.980 -0.2360  0.5293 -0.2085
23877SOL    HW180599   2.649   7.546   3.896 -2.3247 -2.3115  1.1382
23877SOL    HW280600   2.727   7.561   4.025 -0.2207  0.3855 -0.3343
23878SOL     OW80601   6.220  11.196  10.438  0.3893  0.5921  0.0553
23878SOL    HW180602   6.201  11.255  10.365 -1.5635 -1.7850 -1.4857
23878SOL    HW280603   6.134  11.175  10.475  0.5172 -3.7891 -1.5881
23879SOL     OW80604   9.362   3.489   8.562 -1.0278 -0.0830  0.2559
23879SOL    HW180605   9.330   3.458   8.478 -3.0925  0.5185  0.7576
23879SOL    HW280606   9.304   3.563   8.584  1.1978  1.5790  0.9228
23880SOL     OW80607   3.896   2.489   4.321  0.4725  0.2591  0.1609
23880SOL    HW180608   3.872   2.474   4.412  2.0505  1.2305  0.7572
23880SOL    HW280609   3.991   2.497   4.321  0.6417 -0.8681 -1.7526
23881SOL     OW80610   8.251  10.480   1.870 -0.4541 -0.2456 -0.7803
23881SOL    HW180611   8.346  10.475   1.859 -0.3310  2.2200 -1.5332
23881SOL    HW280612   8.215  10.446   1.788 -0.1004  1.1687 -1.5523
23882SOL     OW80613   8.974   1.895   1.539 -0.2892  0.2857 -0.3145
23882SOL    HW180614   9.059   1.939   1.541 -0.3028  0.2760  0.8056
23882SOL    HW280615   8.979   1.838   1.461  1.1021 -0.4331  0.2574
23883SOL     OW80616  11.239   0.661  12.258  0.2455  0.2035 -0.2076
23883SOL    HW180617  11.186   0.629  12.185 -1.5961  1.7938  0.3548
23883SOL    HW280618  11.273   0.581  12.299 -2.6387 -1.0425  0.0360
23884SOL     OW80619   8.303   5.835   6.505  0.4474  0.4595 -0.3120
23884SOL    HW180620   8.260   5.826   6.590 -0.3745  0.8509 -0.6813
23884SOL    HW280621   8.256   5.775   6.447  1.6870 -0.6068 -0.2506
23885SOL     OW80622   0.697   1.908   0.211  0.1675 -0.0593  0.4017
23885SOL    HW180623   0.705   1.895   0.116  1.2129 -0.8623  0.5829
23885SOL    HW280624   0.603   1.903   0.228 -0.0295  0.0739 -0.5873
23886SOL     OW80625  11.736   2.630   7.649  0.6910 -0.5322  0.4696
23886SOL    HW180626  11.756   2.703   7.709  2.1190 -0.7940  0.3337
23886SOL    HW280627  11.791   2.558   7.679  0.3644 -1.1117 -0.2924
23887SOL     OW80628   1.709  11.895   5.763  0.5432 -0.3579  0.0579
23887SOL    HW180629   1.647  11.947   5.712 -0.3963 -0.6170  0.9139
23887SOL    HW280630   1.760  11.848   5.697  2.2874  2.5347 -0.8313
23888SOL     OW80631   1.474   6.523   5.590 -0.0632  0.1136  0.0227
23888SOL    HW180632   1.547   6.502   5.532 -0.0739  1.5533 -0.5592
23888SOL    HW280633   1.407   6.558   5.532 -0.9338 -0.4752  0.6489
23889SOL     OW80634   9.862   6.183  12.318  0.4808  0.0134 -0.2457
23889SOL    HW180635   9.920   6.221  12.384  0.0343  0.8095 -0.3014
23889SOL    HW280636   9.918   6.166  12.243  1.1592 -1.5895  0.5623
23890SOL     OW80637   1.411   2.883   9.641 -0.0273  0.4515 -0.0037
23890SOL    HW180638   1.502   2.906   9.622 -0.3363 -0.1028 -2.3912
23890SOL    HW280639   1.413   2.789   9.660 -0.1789  0.2719 -0.8330
23891SOL     OW80640   7.297   2.841   7.752  0.1556 -0.1152 -0.0775
23891SOL    HW180641   7.347   2.783   7.809 -0.6650 -2.1830 -1.3582
23891SOL    HW280642   7.283   2.790   7.672  0.3435  2.2649 -1.7482
23892SOL     OW80643   6.164   9.626   4.607 -0.2250 -0.7701  0.2082
23892SOL    HW180644   6.102   9.566   4.567 -0.4647  0.3158 -1.1438
23892SOL    HW280645   6.227   9.570   4.653 -0.9505 -1.9773 -0.2333
23893SOL     OW80646   1.715   7.682   1.379  0.2129 -0.0233 -0.4881
23893SOL    HW180647   1.777   7.693   1.450  0.0145  0.1559 -0.3415
23893SOL    HW280648   1.680   7.770   1.363 -0.4821 -0.2226 -0.1261
23894SOL     OW80649   4.150   0.968   2.084  0.2904 -0.1516 -0.0285
23894SOL    HW180650   4.108   1.052   2.102  2.5321  1.2479 -0.8767
23894SOL    HW280651   4.157   0.926   2.170 -0.9417  0.4399  0.3904
23895SOL     OW80652   0.470   1.661   9.249  0.2475 -0.4612  0.1856
23895SOL    HW180653   0.501   1.727   9.311  0.4532 -0.8329  0.4832
23895SOL    HW280654   0.378   1.682   9.236  0.7029  0.8697 -0.9847
23896SOL     OW80655   6.512   2.167   1.578 -0.0470 -0.0876 -0.4412
23896SOL    HW180656   6.465   2.179   1.661 -2.0384 -3.7806 -0.8340
23896SOL    HW280657   6.544   2.077   1.581 -1.1769 -0.7698 -4.0824
23897SOL     OW80658   9.066   6.026   2.051 -1.0390  0.3496 -0.7561
23897SOL    HW180659   9.077   6.108   2.099  1.9510 -0.0523 -0.5477
23897SOL    HW280660   8.999   5.979   2.101 -0.0042  1.0846  1.4991
23898SOL     OW80661   3.008  10.306   7.484 -0.6574  0.5121  0.8581
23898SOL    HW180662   3.101  10.281   7.490 -0.3105  1.8935  1.6217
23898SOL    HW280663   2.961  10.225   7.504  0.3776 -0.1769  0.6127
23899SOL     OW80664  11.814  12.188  11.937  0.5202 -0.0261 -0.4731
23899SOL    HW180665  11.837  12.121  11.872  0.0416  0.1781 -0.8624
23899SOL    HW280666  11.825  12.145  12.021  1.8400 -0.0912 -0.6451
23900SOL     OW80667   7.608   9.093   9.311  0.2702  0.0806 -0.4847
23900SOL    HW180668   7.680   9.078   9.372  1.3017 -0.2288 -1.7199
23900SOL    HW280669   7.587   9.185   9.320  1.6102  0.4493 -0.8967
23901SOL     OW80670  10.169   4.861  11.011 -0.0014 -0.6319 -0.0876
23901SOL    HW180671  10.078   4.834  11.026 -0.1785 -0.3661 -0.6582
23901SOL    HW280672  10.183   4.847  10.918  0.2242  0.2872 -0.1980
23902SOL     OW80673  12.579   0.146   9.948 -0.1543 -0.8093 -0.5292
23902SOL    HW180674  12.573   0.086  10.022 -1.9670  0.0826  0.1160
23902SOL    HW280675  12.541   0.097   9.875 -1.2943 -0.6148 -0.0900
23903SOL     OW80676   8.823   2.365  11.329  0.3682  0.3138 -0.3487
23903SOL    HW180677   8.821   2.287  11.274 -2.0233  0.5645 -0.7347
23903SOL    HW280678   8.790   2.335  11.414 -2.4389  1.1777 -1.0331
23904SOL     OW80679   9.697   0.469   0.488  0.1775 -0.4556 -0.3283
23904SOL    HW180680   9.689   0.398   0.424 -0.7688  0.3779 -1.1733
23904SOL    HW280681   9.717   0.547   0.435 -1.1267  0.3483  0.3103
23905SOL     OW80682   9.192   9.435   6.544  0.0280 -0.3340 -0.0350
23905SOL    HW180683   9.157   9.470   6.462 -0.7634 -1.4359 -0.1925
23905SOL    HW280684   9.218   9.512   6.594  0.0199  0.3792 -1.0972
23906SOL     OW80685   5.983   6.945   5.673 -0.1187  0.1955  0.1322
23906SOL    HW180686   5.974   7.039   5.689  2.1363  0.4251  0.2825
23906SOL    HW280687   6.035   6.939   5.593 -1.1182 -0.9610 -0.4700
23907SOL     OW80688  12.029  11.900   8.617  0.7275 -0.0522  0.1295
23907SOL    HW180689  11.946  11.872   8.656  0.1206  1.1033 -0.3019
23907SOL    HW280690  12.054  11.827   8.560  0.9782 -1.2126  1.6649
23908SOL     OW80691  11.503   5.880   4.216  0.2327 -0.5773  0.3409
23908SOL    HW180692  11.456   5.844   4.140  0.3237  2.1002 -1.0925
23908SOL    HW280693  11.434   5.913   4.273  0.1898 -2.1605  1.2715
23909SOL     OW80694   4.886   3.619  11.440 -0.4303  0.3773  0.0506
23909SOL    HW180695   4.835   3.668  11.505 -0.9313 -2.3706  1.8766
23909SOL    HW280696   4.977   3.632  11.468 -0.4514  1.2319 -0.2374
23910SOL     OW80697   9.756   8.584   8.199 -0.7095  0.1473  0.1290
23910SOL    HW180698   9.851   8.586   8.189 -0.6442  0.3927  0.7743
23910SOL    HW280699   9.731   8.675   8.210 -1.2554  0.3060 -1.9889
23911SOL     OW80700   4.182   8.018   4.752 -0.1450 -0.7451  0.2712
23911SOL    HW180701   4.108   8.031   4.692  0.5001  1.0072 -0.2242
23911SOL    HW280702   4.142   8.004   4.837 -1.0794  0.5795  0.0807
23912SOL     OW80703  11.284  10.857   5.333 -0.4975 -0.4164  0.3812
23912SOL    HW180704  11.204  10.852   5.280 -0.1114 -1.6901 -0.1153
23912SOL    HW280705  11.342  10.791   5.295  0.1257 -0.7372  1.8308
23913SOL     OW80706  12.298   8.894   5.686  0.3839 -0.3913  0.3314
23913SOL    HW180707  12.296   8.942   5.603 -2.4897  1.9621  1.5979
23913SOL    HW280708  12.225   8.833   5.681  0.9549 -1.1241  0.6909
23914SOL     OW80709   5.189   9.447   0.313 -0.1682 -0.5560 -0.0784
23914SOL    HW180710   5.127   9.442   0.240 -2.4613 -4.5646  1.7893
23914SOL    HW280711   5.158   9.521   0.365 -0.3601  0.4678 -1.5811
23915SOL     OW80712   1.539   5.142   5.986 -0.4010  0.2696 -0.2282
23915SOL    HW180713   1.571   5.098   5.907 -0.8962  0.8342 -0.7558
23915SOL    HW280714   1.612   5.137   6.047 -0.5145 -1.4632 -0.1884
23916SOL     OW80715   7.688  11.838   4.946 -0.2217 -0.1270 -0.1794
23916SOL    HW180716   7.627  11.908   4.923  0.8889  0.4567 -1.4920
23916SOL    HW280717   7.679  11.828   5.041 -0.7919  1.4319 -0.0484
23917SOL     OW80718   4.650   5.603   5.368  0.5629 -0.0745  0.5356
23917SOL    HW180719   4.667   5.646   5.285  1.2145  0.4659  0.9359
23917SOL    HW280720   4.557   5.580   5.366  0.5110  0.2028 -0.2080
23918SOL     OW80721   8.874   0.973   4.863 -0.0357 -0.4638 -0.4879
23918SOL    HW180722   8.819   1.014   4.797  0.8440  3.3379  0.8617
23918SOL    HW280723   8.949   1.032   4.872  2.2968 -3.3321  0.5813
23919SOL     OW80724   5.908   8.371   1.364  0.1740 -0.0286 -0.2565
23919SOL    HW180725   5.878   8.461   1.353  1.4946  0.3688 -0.8316
23919SOL    HW280726   5.970   8.375   1.437  0.9236 -0.2832 -0.8623
23920SOL     OW80727  10.743   9.676   8.540  0.1507 -0.0628  0.2932
23920SOL    HW180728  10.798   9.704   8.466  0.1241 -0.5999  0.0643
23920SOL    HW280729  10.669   9.737   8.539  0.2770  0.0887  0.0290
23921SOL     OW80730   8.662   9.248  10.333  0.1590  0.2956  0.1015
23921SOL    HW180731   8.658   9.298  10.415  0.2674 -0.4228  0.5497
23921SOL    HW280732   8.749   9.206  10.335 -0.1960 -0.4538  0.0570
23922SOL     OW80733   3.802   7.530   5.767  0.0438 -0.3958  0.1391
23922SOL    HW180734   3.894   7.557   5.774 -0.0819 -0.2261  1.3071
23922SOL    HW280735   3.802   7.437   5.788  0.0479 -0.6142 -0.7560
23923SOL     OW80736  11.093   6.335   0.713 -0.3249  0.1999  0.3100
23923SOL    HW180737  11.074   6.244   0.690  1.0087  0.3944 -1.8613
23923SOL    HW280738  11.059   6.386   0.639  0.8650  1.2541  0.4564
23924SOL     OW80739   5.568   9.521  10.541 -0.5571 -0.1284 -0.0988
23924SOL    HW180740   5.550   9.437  10.500 -1.0831  0.4603 -1.1081
23924SOL    HW280741   5.562   9.503  10.635 -1.0205 -1.1355 -0.3024
23925SOL     OW80742   5.426   8.609   9.282  0.6866 -0.2441  0.2746
23925SOL    HW180743   5.432   8.667   9.207  2.4552 -0.2388  0.3984
23925SOL    HW280744   5.336   8.620   9.313 -0.3032 -0.7435 -2.1909
23926SOL     OW80745   9.473   5.817   1.941 -0.4656  0.7922  0.0394
23926SOL    HW180746   9.517   5.732   1.934  0.5419  1.3920 -1.6677
23926SOL    HW280747   9.543   5.878   1.966 -0.6525  1.4777 -1.0260
23927SOL     OW80748   9.544   9.013   3.684  0.4372 -0.5937  0.1871
23927SOL    HW180749   9.612   8.978   3.741  1.7284 -1.3304 -1.6819
23927SOL    HW280750   9.522   8.940   3.626 -1.4064 -0.1217  0.2291
23928SOL     OW80751  12.119   0.932   9.808 -0.3836 -0.4006  0.1048
23928SOL    HW180752  12.079   1.015   9.780  0.7134 -0.3327 -1.4154
23928SOL    HW280753  12.137   0.886   9.726  2.6914 -0.3761  0.6547
23929SOL     OW80754   6.136   2.868   0.664  0.5098 -0.0440  0.3129
23929SOL    HW180755   6.183   2.812   0.726  0.8188 -1.0000 -0.7603
23929SOL    HW280756   6.147   2.826   0.579 -1.4017  0.2695 -0.1485
23930SOL     OW80757   7.819   4.486   9.256 -0.7916  0.2139 -0.9259
23930SOL    HW180758   7.863   4.538   9.189  0.6363 -0.1935 -0.3448
23930SOL    HW280759   7.866   4.402   9.255 -1.4440 -0.1708 -0.1527
23931SOL     OW80760  11.787   9.625   4.820  0.2682 -0.3542  0.1052
23931SOL    HW180761  11.788   9.714   4.783 -0.5456 -0.6493 -0.6558
23931SOL    HW280762  11.777   9.568   4.744  0.7759 -1.0981  0.5978
23932SOL     OW80763   8.726   3.881   0.404 -0.1898  0.2323  0.4171
23932SOL    HW180764   8.782   3.918   0.335 -1.5796  1.0974 -0.2978
23932SOL    HW280765   8.715   3.789   0.379  1.1643 -0.0409  0.7589
23933SOL     OW80766   4.781   7.608  12.398  0.1781  0.2380 -0.2466
23933SOL    HW180767   4.825   7.640  12.477  0.0861  2.6059 -1.0626
23933SOL    HW280768   4.778   7.685  12.341 -1.4777 -0.9176 -1.7891
23934SOL     OW80769   3.582   0.597   6.336 -0.2520 -0.3186  0.6488
23934SOL    HW180770   3.533   0.529   6.289 -1.2099  1.4510 -1.0615
23934SOL    HW280771   3.517   0.638   6.393  0.3517 -0.8925  1.7735
23935SOL     OW80772   9.230   8.359   0.336 -0.3960 -0.0300  0.4559
23935SOL    HW180773   9.201   8.288   0.278 -1.8896 -0.8136  2.0730
23935SOL    HW280774   9.215   8.325   0.424  1.5550  1.2307  1.3470
23936SOL     OW80775   3.765   1.328   0.598 -0.7703 -0.5543  0.2830
23936SOL    HW180776   3.860   1.330   0.586 -0.2901 -1.2490  3.1398
23936SOL    HW280777   3.749   1.247   0.647 -2.7963 -0.2957  0.1260
23937SOL     OW80778   7.539  12.070   6.322  0.2298  0.2759  0.8265
23937SOL    HW180779   7.563  12.161   6.304 -0.4547  0.1701 -0.7707
23937SOL    HW280780   7.443  12.071   6.323  0.2309 -0.2648  1.7362
23938SOL     OW80781   5.792   9.842   2.997 -0.4063  0.6500  0.3378
23938SOL    HW180782   5.698   9.858   2.986 -0.8635 -2.2012 -0.7401
23938SOL    HW280783   5.798   9.775   3.065  0.6419 -0.7533 -1.0631
23939SOL     OW80784   6.241  10.190   0.187  0.4235 -0.1246  0.0424
23939SOL    HW180785   6.160  10.144   0.211  0.6738 -0.9103 -0.5835
23939SOL    HW280786   6.265  10.153   0.102  2.1372 -0.8525  0.8114
23940SOL     OW80787   0.473  10.016   7.817  0.2220 -0.0908 -0.9283
23940SOL    HW180788   0.410  10.034   7.887  0.8361 -1.0870 -0.0946
23940SOL    HW280789   0.427  10.039   7.737 -0.1224  2.1505 -0.1611
23941SOL     OW80790  10.388   1.228  11.304 -0.4601 -0.3175  0.0078
23941SOL    HW180791  10.372   1.199  11.214  1.2913  1.0466 -0.8172
23941SOL    HW280792  10.480   1.256  11.304 -0.7727  0.8984  1.8833
23942SOL     OW80793   9.162  10.225   6.978  0.2523 -0.5988 -0.1007
23942SOL    HW180794   9.197  10.223   7.068  1.1476  2.7365 -0.2410
23942SOL    HW280795   9.223  10.172   6.928  2.1654  0.7691  0.6333
23943SOL     OW80796   7.912  11.092  11.550 -0.1364 -0.2218 -0.5977
23943SOL    HW180797   7.966  11.169  11.534  0.4169 -0.6863 -1.0118
23943SOL    HW280798   7.869  11.074  11.467 -3.3267  1.8855  0.4139
23944SOL     OW80799   5.061   2.387   3.491  0.6753 -0.0574  0.7694
23944SOL    HW180800   5.067   2.477   3.459 -0.1821  0.3987  1.8469
23944SOL    HW280801   4.978   2.354   3.456  1.5748 -0.8959 -0.6923
23945SOL     OW80802   4.852   8.740   0.353  0.4085  0.5214 -0.4397
23945SOL    HW180803   4.808   8.803   0.410 -0.3601 -0.0795 -0.3642
23945SOL    HW280804   4.918   8.698   0.409  0.1495  0.4508 -0.1894
23946SOL     OW80805   8.320   1.464  12.171 -0.3383  0.1204  0.1108
23946SOL    HW180806   8.265   1.470  12.249 -0.0216  2.6848  0.2290
23946SOL    HW280807   8.257   1.458  12.098 -0.6884 -0.1813  0.4343
23947SOL     OW80808  12.537   3.209   3.119  0.0552 -0.4017 -0.0024
23947SOL    HW180809  12.624   3.244   3.099  0.3362 -1.0996 -0.0183
23947SOL    HW280810  12.551   3.115   3.131 -0.6335 -0.4594  0.3811
23948SOL     OW80811   0.318   1.332   1.554  0.9278  0.0469 -0.3389
23948SOL    HW180812   0.400   1.298   1.518  0.1011  1.1607 -3.5386
23948SOL    HW280813   0.263   1.255   1.564  1.8837 -0.5461  0.6257
23949SOL     OW80814   2.866   4.367   6.158  0.4100  0.2124  0.4533
23949SOL    HW180815   2.916   4.285   6.159 -0.3154 -0.2472  0.3658
23949SOL    HW280816   2.930   4.435   6.179  0.8600 -0.4697  1.3370
23950SOL     OW80817   3.466   1.034  11.661 -0.0777 -0.2553 -0.2192
23950SOL    HW180818   3.446   1.024  11.568 -1.0180  1.4738 -0.2503
23950SOL    HW280819   3.383   1.020  11.705  0.5344 -1.9361  0.4807
23951SOL     OW80820  10.503   9.656   6.641 -0.3156  0.0198 -0.0620
23951SOL    HW180821  10.410   9.677   6.630 -0.2147  0.2759 -0.4697
23951SOL    HW280822  10.549   9.726   6.594  0.0738 -0.2472 -0.0878
23952SOL     OW80823  10.321   6.073  12.290 -0.2795  0.2157  0.1537
23952SOL    HW180824  10.351   6.013  12.222  0.1481 -0.7568  1.1682
23952SOL    HW280825  10.274   6.017  12.353 -1.7278  1.2701  0.0689
23953SOL     OW80826  11.659   3.445   4.087 -0.5744  0.0241  0.1130
23953SOL    HW180827  11.670   3.460   4.181 -1.7921 -1.5548  0.5471
23953SOL    HW280828  11.737   3.485   4.048  0.2290  0.2538  1.8209
23954SOL     OW80829   4.398   2.492   3.957  0.7163 -0.6779  0.5322
23954SOL    HW180830   4.425   2.410   4.000  0.1464 -0.4638  1.3159
23954SOL    HW280831   4.386   2.554   4.029  0.4685 -0.0972 -0.0022
23955SOL     OW80832   0.627   6.107   7.735 -0.1168  0.1726 -0.2020
23955SOL    HW180833   0.636   6.017   7.702  0.5952  1.1825 -3.0188
23955SOL    HW280834   0.713   6.129   7.769 -0.3919 -0.3017  0.8387
23956SOL     OW80835   2.563   0.108   8.936  0.0592  0.0530  0.6651
23956SOL    HW180836   2.657   0.112   8.957  0.2820 -0.3301 -0.2048
23956SOL    HW280837   2.551   0.020   8.899 -1.1777 -0.9317  3.1774
23957SOL     OW80838   7.512   1.256   2.978  0.1168  0.5220 -0.4906
23957SOL    HW180839   7.494   1.308   2.900 -1.6609 -0.5993 -0.9072
23957SOL    HW280840   7.466   1.301   3.049 -0.6961  0.0269 -0.6846
23958SOL     OW80841   2.939   9.139   2.019  1.0541 -0.7806  0.2597
23958SOL    HW180842   2.932   9.063   2.077  1.1706 -1.9731 -1.2420
23958SOL    HW280843   2.879   9.203   2.058 -1.3686 -2.7045 -0.0251
23959SOL     OW80844   3.539   7.316   8.719  0.2795 -0.2600 -0.2083
23959SOL    HW180845   3.553   7.235   8.768  1.0406  0.2310  0.4160
23959SOL    HW280846   3.595   7.306   8.641 -0.2018 -0.6419 -0.5099
23960SOL     OW80847  10.138   9.871   9.775  0.6824  0.4621 -0.1479
23960SOL    HW180848  10.059   9.922   9.760 -0.2927 -1.3303 -1.3838
23960SOL    HW280849  10.185   9.920   9.842 -1.5494  1.4964  0.7650
23961SOL     OW80850   7.899   3.189  10.062  0.0585  0.2232  0.2304
23961SOL    HW180851   7.923   3.113  10.010  2.7361  1.2175 -0.1047
23961SOL    HW280852   7.840   3.154  10.129 -0.3648 -1.7608 -1.0850
23962SOL     OW80853   4.041   1.196   4.916 -0.1559 -0.0732  0.0156
23962SOL    HW180854   4.051   1.102   4.934 -2.2295 -0.3439 -0.0280
23962SOL    HW280855   4.050   1.238   5.002 -0.0698 -0.4069  0.1727
23963SOL     OW80856   4.386   7.894   9.419 -0.2629  0.3079 -0.2285
23963SOL    HW180857   4.452   7.877   9.486 -1.2890 -0.4810  0.6145
23963SOL    HW280858   4.436   7.922   9.342  1.2208 -2.0644 -0.2123
23964SOL     OW80859   0.524   0.367   5.649 -0.0772 -0.8902  0.1494
23964SOL    HW180860   0.619   0.365   5.661 -0.1124  0.2934  0.7533
23964SOL    HW280861   0.492   0.291   5.698  0.1925  1.2123  4.0110
23965SOL     OW80862   1.295   2.852  10.617  0.0007 -0.3349  0.1483
23965SOL    HW180863   1.389   2.863  10.630 -0.2600  0.8829  1.2264
23965SOL    HW280864   1.286   2.829  10.524  1.3128  0.2203 -0.1357
23966SOL     OW80865   5.201   9.641   5.786 -0.3324 -0.0858  0.0957
23966SOL    HW180866   5.263   9.600   5.725 -0.2015 -0.9218  0.7780
23966SOL    HW280867   5.123   9.656   5.733  0.8001  2.0580 -1.1001
23967SOL     OW80868   0.389   1.977   5.341  1.0462  0.0175  0.3430
23967SOL    HW180869   0.441   2.054   5.318 -0.3744  0.9610  0.1525
23967SOL    HW280870   0.318   2.011   5.396 -0.7635 -0.7788 -1.3481
23968SOL     OW80871   5.560   9.048   8.472  0.1119 -0.0201 -0.4920
23968SOL    HW180872   5.590   9.087   8.555 -0.9486 -0.0089 -0.0893
23968SOL    HW280873   5.551   8.955   8.491  1.6124 -0.3258 -1.1436
23969SOL     OW80874   8.157   5.176   7.875  0.3742  0.4151 -0.0294
23969SOL    HW180875   8.155   5.224   7.958  1.8169  1.3007 -0.4655
23969SOL    HW280876   8.201   5.235   7.815  2.0900 -1.4071 -0.6458
23970SOL     OW80877  10.587   5.274   6.168 -0.0181 -0.4502 -0.4111
23970SOL    HW180878  10.528   5.211   6.209  0.9681 -1.9990 -1.2927
23970SOL    HW280879  10.607   5.237   6.083 -0.1116  1.5350 -1.3519
23971SOL     OW80880   9.199   2.006  11.600  1.0783  0.1879 -0.0877
23971SOL    HW180881   9.207   2.031  11.508  1.3602  1.2996  0.2260
23971SOL    HW280882   9.281   2.036  11.641  1.2893 -0.9779  0.3777
23972SOL     OW80883   3.283   0.670   4.298  0.1208 -0.0448  0.0265
23972SOL    HW180884   3.378   0.679   4.300  0.1673 -0.1188 -1.3423
23972SOL    HW280885   3.264   0.630   4.213 -1.0829 -0.6912  0.5742
23973SOL     OW80886   9.017  10.479   5.348 -0.3562 -0.3661  0.3228
23973SOL    HW180887   9.061  10.401   5.313  0.0480 -0.5835  1.2777
23973SOL    HW280888   8.933  10.482   5.302  0.6006  0.0201 -1.4987
23974SOL     OW80889  10.678  10.647  10.200 -0.0619  0.5525 -0.3979
23974SOL    HW180890  10.650  10.731  10.164 -1.4659  0.0703 -0.4976
23974SOL    HW280891  10.719  10.669  10.284 -0.2857  1.3442 -0.4915
23975SOL     OW80892   2.877   5.991   3.849 -0.7130  0.1693 -0.4440
23975SOL    HW180893   2.813   5.982   3.920 -0.7729  1.7220 -0.2682
23975SOL    HW280894   2.961   5.998   3.894 -0.7702  1.3375 -0.4922
23976SOL     OW80895   5.357   0.475  10.717 -0.3203 -0.0770 -0.0783
23976SOL    HW180896   5.430   0.519  10.762 -0.1329  1.0195 -1.3645
23976SOL    HW280897   5.348   0.392  10.762  0.4760  0.5614  1.3499
23977SOL     OW80898   3.230   6.044   7.957  0.2973 -0.0074 -0.4771
23977SOL    HW180899   3.316   6.045   7.998 -1.0764 -1.7791  2.8444
23977SOL    HW280900   3.184   6.119   7.996 -0.3437 -0.4131 -0.4360
23978SOL     OW80901  11.505   3.285   4.852 -0.6008 -0.0125 -0.0540
23978SOL    HW180902  11.501   3.379   4.834 -0.3848  0.0797  0.3816
23978SOL    HW280903  11.563   3.251   4.784  0.4481  0.3830  0.6153
23979SOL     OW80904   2.888   6.750   8.864 -0.3558  0.4097 -0.0325
23979SOL    HW180905   2.890   6.655   8.869  1.1317  0.4629  1.9139
23979SOL    HW280906   2.797   6.772   8.843 -0.4293 -1.4358 -1.8852
23980SOL     OW80907  12.499   4.687  11.655  0.0946 -0.1720 -0.3872
23980SOL    HW180908  12.456   4.741  11.722  0.4184  0.3702 -0.6031
23980SOL    HW280909  12.509   4.746  11.581  1.5258 -0.1642 -0.2151
23981SOL     OW80910   8.655   7.564  12.022 -0.0259  0.0295 -0.4722
23981SOL    HW180911   8.580   7.505  12.013  0.1014 -0.4139  1.0935
23981SOL    HW280912   8.688   7.548  12.111  0.2118  2.1957 -0.1089
23982SOL     OW80913   6.614   8.612   0.091  0.5664 -0.2362  0.3824
23982SOL    HW180914   6.554   8.538   0.088  0.0701  0.0158  2.4917
23982SOL    HW280915   6.700   8.574   0.074  0.3599 -1.3636  1.7111
23983SOL     OW80916   3.715  12.020  11.704 -0.1253  0.5574  0.1787
23983SOL    HW180917   3.643  12.050  11.648  0.7717  0.9005 -0.8099
23983SOL    HW280918   3.793  12.027  11.649  0.9552  1.8796  1.7659
23984SOL     OW80919   6.939   4.985   0.696 -0.0611 -0.5687  0.1676
23984SOL    HW180920   6.907   5.062   0.744  2.8544  1.1567 -0.4020
23984SOL    HW280921   6.962   5.018   0.610  0.3224 -2.3292 -0.4462
23985SOL     OW80922   7.559   2.880   4.328  0.3139 -0.0699  0.5381
23985SOL    HW180923   7.491   2.825   4.289  0.0931  0.5179  0.0737
23985SOL    HW280924   7.563   2.852   4.420 -0.1396 -0.5135  0.4291
23986SOL     OW80925   6.331   8.269   5.892  0.3633 -0.5332  0.1691
23986SOL    HW180926   6.345   8.351   5.939 -0.9977 -0.4538  0.4506
23986SOL    HW280927   6.367   8.202   5.949  2.8423 -0.0576 -0.6934
23987SOL     OW80928  10.574  11.566   5.916  0.2384  0.1815 -0.4196
23987SOL    HW180929  10.669  11.556   5.906  0.1589 -0.7170 -0.3597
23987SOL    HW280930  10.539  11.479   5.900 -0.3973 -0.0189  1.8164
23988SOL     OW80931   0.989   3.239  12.002  0.1854 -0.3818  0.1169
23988SOL    HW180932   0.974   3.145  12.004  1.0610 -0.5246  0.1168
23988SOL    HW280933   1.065   3.251  11.945 -1.9085  0.6198 -2.7421
23989SOL     OW80934   6.575   6.665   4.259  0.0730 -0.2047 -0.8433
23989SOL    HW180935   6.519   6.602   4.214  2.7669 -1.9512 -1.9806
23989SOL    HW280936   6.650   6.614   4.289  0.8333  1.9119  1.1230
23990SOL     OW80937  10.244   6.498  12.212  0.7100 -0.0641 -0.2650
23990SOL    HW180938  10.208   6.413  12.239  0.0172  0.0190 -0.9004
23990SOL    HW280939  10.307   6.520  12.281  1.8353 -1.6819 -0.7203
23991SOL     OW80940   7.307   8.512  12.479 -0.1941 -0.4320  0.3099
23991SOL    HW180941   7.338   8.557  12.401  0.4264 -1.4356 -0.0397
23991SOL    HW280942   7.260   8.436  12.446  1.0218 -1.4816  0.9062
23992SOL     OW80943   8.375   5.257  11.240 -0.0551  0.0430 -0.7521
23992SOL    HW180944   8.307   5.285  11.179  1.2245  1.4006 -1.6263
23992SOL    HW280945   8.456   5.295  11.205  1.1504 -1.4323  0.2943
23993SOL     OW80946  11.065   3.531   9.635  0.4731  0.0202  0.4768
23993SOL    HW180947  10.970   3.534   9.650  0.3089  1.3068 -0.6327
23993SOL    HW280948  11.103   3.536   9.723 -0.4733 -1.5735  1.0055
23994SOL     OW80949  11.179   2.035  11.084 -0.4538 -0.6628 -0.4433
23994SOL    HW180950  11.138   2.081  11.011 -0.7754 -0.2285  0.0006
23994SOL    HW280951  11.132   1.951  11.089  0.8211 -1.5125 -1.9044
23995SOL     OW80952   3.540   2.137   4.642  0.0435 -0.1002 -0.0425
23995SOL    HW180953   3.496   2.144   4.558  1.3896  0.6665 -0.7280
23995SOL    HW280954   3.512   2.214   4.691  0.0589  0.0103 -0.2061
23996SOL     OW80955   3.859  11.103   4.379 -0.0991  0.1018  0.2165
23996SOL    HW180956   3.832  11.011   4.384 -1.2562  0.3466 -1.0475
23996SOL    HW280957   3.861  11.123   4.286 -1.1852  1.7221  0.4923
23997SOL     OW80958   6.553  12.121   8.042 -0.0217  0.1549  0.9482
23997SOL    HW180959   6.644  12.150   8.051  0.0823  0.1011  0.1356
23997SOL    HW280960   6.502  12.202   8.047  0.1172  0.2564  0.7307
23998SOL     OW80961  11.868   2.967  10.579  0.5083  0.1730  0.1455
23998SOL    HW180962  11.841   2.878  10.601 -0.2163  0.2750 -0.2962
23998SOL    HW280963  11.960   2.959  10.553  0.5903 -0.3609  0.5791
23999SOL     OW80964   8.526   4.256   1.147 -0.3083 -0.0577 -0.1942
23999SOL    HW180965   8.462   4.289   1.210 -0.3629 -0.7889  0.1444
23999SOL    HW280966   8.475   4.209   1.082 -0.0918 -0.9363  0.2633
24000SOL     OW80967  12.540   9.222   5.526 -0.0441 -0.2267 -0.2455
24000SOL    HW180968  12.633   9.212   5.545 -0.1944 -0.0986  0.5872
24000SOL    HW280969  12.528   9.316   5.511 -0.0133 -0.2664 -0.5355
24001SOL     OW80970   8.778   3.263   5.092  0.2458  0.4581 -0.4492
24001SOL    HW180971   8.785   3.351   5.127  1.0242  0.7637 -1.3233
24001SOL    HW280972   8.843   3.259   5.022 -0.3279 -0.5438 -0.9680
24002SOL     OW80973  11.283   1.217   1.431  0.2171  0.5810 -0.3075
24002SOL    HW180974  11.224   1.145   1.452  0.2577  0.5108 -0.4316
24002SOL    HW280975  11.356   1.206   1.492 -0.2068  1.0588  0.3000
24003SOL     OW80976   7.995   4.954  12.587 -0.2772  0.3674  0.2258
24003SOL    HW180977   8.053   4.958  12.512 -0.4986 -0.8554 -0.0233
24003SOL    HW280978   8.041   5.002  12.656  0.4159  0.5489 -0.3617
24004SOL     OW80979   2.273   5.923   9.957 -0.1905 -0.0978  0.2386
24004SOL    HW180980   2.199   5.862   9.964 -0.3532  0.1038  0.2751
24004SOL    HW280981   2.240   6.005   9.993 -0.3425  0.3344 -0.8325
24005SOL     OW80982   9.298   0.412  11.831 -0.3046 -0.6353 -0.4018
24005SOL    HW180983   9.390   0.426  11.811  0.5644 -3.5018  0.9482
24005SOL    HW280984   9.257   0.396  11.746  0.8869 -1.2890 -0.8779
24006SOL     OW80985   5.320   1.924   4.602 -0.2453 -0.2449  0.5391
24006SOL    HW180986   5.338   1.912   4.509  0.7673 -0.4381  0.7468
24006SOL    HW280987   5.406   1.936   4.642 -0.4612 -2.0708  1.7147
24007SOL     OW80988   9.344   3.453   1.423 -0.1309 -0.2828 -0.0745
24007SOL    HW180989   9.332   3.382   1.360  1.1209  0.0167 -0.6746
24007SOL    HW280990   9.425   3.432   1.468  1.1728  1.5765 -1.4120
24008SOL     OW80991   1.906   2.281   0.137 -0.1260  0.1641 -0.1165
24008SOL    HW180992   1.978   2.342   0.123 -0.7104  1.2944  1.5463
24008SOL    HW280993   1.895   2.237   0.053  0.2456  2.4255 -1.4082
24009SOL     OW80994   2.900  12.244   8.160 -0.2207 -0.7132  0.2557
24009SOL    HW180995   2.844  12.267   8.086  1.2976  0.4415 -0.6025
24009SOL    HW280996   2.884  12.151   8.175 -1.8937 -0.5422 -0.3307
24010SOL     OW80997   7.250   6.362   3.740 -0.3645  0.0380 -0.7271
24010SOL    HW180998   7.200   6.319   3.809  0.4735  0.5380  0.2134
24010SOL    HW280999   7.189   6.369   3.667 -0.7268 -2.1740 -0.7137
24011SOL     OW81000   0.168   8.876  12.268 -0.7579 -0.0265  0.5713
24011SOL    HW181001   0.220   8.949  12.234 -1.3929  2.0115  3.5146
24011SOL    HW281002   0.231   8.805  12.282  0.7284  1.3850  1.3490
24012SOL     OW81003  12.028   2.396   9.963  0.0680  0.1482 -0.3588
24012SOL    HW181004  12.027   2.300   9.967  0.3820  0.1701  0.3835
24012SOL    HW281005  12.117   2.418   9.937  0.3898  0.2746  0.8152
24013SOL     OW81006  10.297   8.146  12.033 -0.2381 -0.7472 -0.7457
24013SOL    HW181007  10.368   8.183  11.979  0.6113 -1.6505 -0.2876
24013SOL    HW281008  10.221   8.145  11.975 -0.5709  2.4543 -0.5470
24014SOL     OW81009   5.185   1.791   4.802  0.3993 -0.5902  0.3090
24014SOL    HW181010   5.261   1.781   4.859 -0.4554  0.8441  1.8106
24014SOL    HW281011   5.219   1.830   4.722  1.1108  1.3442  1.4867
24015SOL     OW81012   3.531   0.918   9.771  0.1560 -0.2169 -0.3889
24015SOL    HW181013   3.454   0.972   9.752 -2.1175 -3.1129 -0.0259
24015SOL    HW281014   3.515   0.884   9.859  3.8228  2.0781  1.4088
24016SOL     OW81015   7.941   8.008  11.251 -0.5265 -0.2824 -0.1952
24016SOL    HW181016   8.030   7.998  11.285 -0.9139 -1.5819  0.5267
24016SOL    HW281017   7.919   7.922  11.216 -1.4112  0.0902 -0.5850
24017SOL     OW81018   5.889  12.030   6.995  0.3174 -0.1238 -0.4300
24017SOL    HW181019   5.864  11.938   7.004  1.0721 -0.3159 -0.2466
24017SOL    HW281020   5.818  12.069   6.944 -0.2278 -0.7067 -0.1305
24018SOL     OW81021   5.749   0.706   6.680 -0.2390 -0.1442  0.5454
24018SOL    HW181022   5.773   0.672   6.593  1.3310  1.4141  0.3189
24018SOL    HW281023   5.748   0.630   6.737 -1.5769 -1.2486 -0.8636
24019SOL     OW81024   5.970   3.564   8.199  0.3633 -0.0973 -0.3706
24019SOL    HW181025   5.985   3.482   8.151  1.0847  0.2117 -0.6867
24019SOL    HW281026   6.055   3.585   8.238  0.2783  0.6937 -0.5933
24020SOL     OW81027  11.583   9.173  11.350  0.0186 -0.1323  0.3355
24020SOL    HW181028  11.509   9.225  11.380 -2.2931 -3.0051  0.0558
24020SOL    HW281029  11.660   9.224  11.375 -2.0023  2.8754  0.8896
24021SOL     OW81030   5.602  11.017   0.683  0.1251  0.3437 -0.2580
24021SOL    HW181031   5.543  11.076   0.728  0.8708  0.8488  0.0871
24021SOL    HW281032   5.557  10.932   0.683  0.6916 -0.0701  2.7688
24022SOL     OW81033   4.923  12.141  12.417  0.4638 -0.8022 -0.3417
24022SOL    HW181034   4.970  12.064  12.384  0.5051 -1.2506  0.7430
24022SOL    HW281035   4.851  12.105  12.469 -0.3631 -0.1081 -0.9526
24023SOL     OW81036  11.526   2.199   8.938 -0.3077 -0.3048  0.1478
24023SOL    HW181037  11.510   2.236   8.851  2.7214  0.8926 -0.0123
24023SOL    HW281038  11.537   2.105   8.922 -0.3368 -0.1788 -0.6749
24024SOL     OW81039  11.679   7.758   1.584 -0.1423 -0.5259  0.7129
24024SOL    HW181040  11.647   7.845   1.562  0.4842 -0.6713 -0.8955
24024SOL    HW281041  11.627   7.732   1.661 -2.0049  0.2898 -0.2132
24025SOL     OW81042   5.124   8.897  11.919  0.0333 -0.2997  0.5707
24025SOL    HW181043   5.184   8.823  11.923  1.1911  0.6376  1.3782
24025SOL    HW281044   5.168   8.961  11.864 -1.0357 -0.2607 -0.2736
24026SOL     OW81045   2.910  11.829   6.538  0.2559 -0.1728  0.1925
24026SOL    HW181046   2.993  11.837   6.584  0.2571  2.5917 -0.1402
24026SOL    HW281047   2.924  11.875   6.455 -1.5961  0.4356  0.1713
24027SOL     OW81048   6.276   8.686  11.697 -0.2620  0.6714 -0.5052
24027SOL    HW181049   6.187   8.711  11.722 -0.3933 -0.1915 -0.0597
24027SOL    HW281050   6.304   8.624  11.765  0.2318  0.0221 -1.2787
24028SOL     OW81051   9.880  10.011   0.654 -0.5544  0.2652 -0.7184
24028SOL    HW181052   9.847  10.098   0.676 -1.3206  0.2236 -1.6257
24028SOL    HW281053   9.826   9.983   0.579 -0.9059 -1.3354  0.0791
24029SOL     OW81054   6.309   5.193   8.161 -0.3863 -0.3460  0.3650
24029SOL    HW181055   6.379   5.257   8.153 -1.4068  0.6513 -1.1991
24029SOL    HW281056   6.351   5.109   8.145  0.6889  0.0732  0.8759
24030SOL     OW81057   8.783   3.458   4.050 -0.2938  0.1630  0.1746
24030SOL    HW181058   8.845   3.523   4.083  0.1994 -0.2079  0.0035
24030SOL    HW281059   8.730   3.434   4.126  0.1848  0.0386  0.4759
24031SOL     OW81060   2.344   1.911   3.953 -0.1906 -0.4294  0.1818
24031SOL    HW181061   2.300   1.989   3.986 -0.0762 -1.0296  1.8876
24031SOL    HW281062   2.301   1.838   3.999  0.1912 -1.3173 -0.8153
24032SOL     OW81063   0.148  10.487   4.251  0.5629  0.1734  0.5442
24032SOL    HW181064   0.062  10.479   4.293 -0.6025  4.1707 -0.6148
24032SOL    HW281065   0.149  10.417   4.185 -1.1975 -0.8207  1.4924
24033SOL     OW81066   7.317   2.516   0.050  0.0150 -0.6435  0.4146
24033SOL    HW181067   7.323   2.542  -0.042 -1.7226 -0.7679  0.2359
24033SOL    HW281068   7.390   2.456   0.063  1.6762  1.1264 -0.2554
24034SOL     OW81069   6.251   5.987   5.458 -0.4528  0.1850  0.1301
24034SOL    HW181070   6.323   5.970   5.519 -1.9782  1.2349  2.3445
24034SOL    HW281071   6.295   6.010   5.376  1.6919 -2.0492  0.5191
24035SOL     OW81072   6.590   9.890   5.742  0.3785  0.4755  0.1663
24035SOL    HW181073   6.539   9.855   5.669 -0.3881 -1.7142  1.6393
24035SOL    HW281074   6.646   9.817   5.770  0.7792  1.2935  1.6496
24036SOL     OW81075   2.413  10.127   9.116  0.3796 -0.2384  0.3272
24036SOL    HW181076   2.342  10.063   9.122 -0.4453  0.6699  0.5102
24036SOL    HW281077   2.443  10.138   9.206  0.5152 -0.3467  0.2973
24037SOL     OW81078   3.082   5.248   7.784 -0.0622  0.0570  0.4752
24037SOL    HW181079   3.029   5.173   7.755  1.4404 -0.4841 -1.0185
24037SOL    HW281080   3.156   5.250   7.724  1.9433  0.4566  2.8250
24038SOL     OW81081   1.773  11.367   5.942  0.3166  0.5735 -0.2753
24038SOL    HW181082   1.714  11.388   5.870 -0.6554  0.9687  0.5952
24038SOL    HW281083   1.714  11.356   6.017  1.2485 -0.3943  0.3317
24039SOL     OW81084   8.448   6.369   9.617  0.0124 -0.3175  0.1791
24039SOL    HW181085   8.467   6.301   9.683 -0.4539 -0.4287  0.2019
24039SOL    HW281086   8.528   6.422   9.614  0.2972 -0.7312  0.3283
24040SOL     OW81087   0.585   9.760   8.129 -0.2653 -0.4264  0.4812
24040SOL    HW181088   0.634   9.679   8.112 -0.0683  0.1809 -2.5138
24040SOL    HW281089   0.498   9.744   8.093 -0.5638  0.3211  0.8468
24041SOL     OW81090   7.129  12.054   5.235  0.0746 -0.1883  0.3544
24041SOL    HW181091   7.201  11.999   5.267  1.2914 -0.3377 -2.3338
24041SOL    HW281092   7.163  12.143   5.240  0.0399 -0.1585  0.0553
24042SOL     OW81093   5.413   3.920  10.084 -0.1442  0.3124  0.0046
24042SOL    HW181094   5.349   3.930  10.014  0.8157 -0.8137 -1.1042
24042SOL    HW281095   5.438   3.828  10.079  2.6723  1.0188 -0.6630
24043SOL     OW81096   8.834  12.525  10.469 -0.0360 -0.1819 -0.0615
24043SOL    HW181097   8.786  12.464  10.524  0.2024 -1.6189 -1.3747
24043SOL    HW281098   8.912  12.549  10.520 -0.4416 -0.4986  0.7085
24044SOL     OW81099  11.349   4.499   2.067  0.4395 -0.4727 -0.3327
24044SOL    HW181100  11.443   4.487   2.057  0.4493  0.2330 -1.2143
24044SOL    HW281101  11.337   4.594   2.065 -0.3356 -0.5744 -0.6355
24045SOL     OW81102   0.297   0.158   6.282 -0.2497 -0.1975  0.0565
24045SOL    HW181103   0.354   0.216   6.331  1.3299 -0.7739 -1.0130
24045SOL    HW281104   0.290   0.198   6.195 -1.6711 -0.0362  0.2125
24046SOL     OW81105   1.677   3.556   2.439  0.5869 -0.2117  0.5659
24046SOL    HW181106   1.744   3.603   2.489 -0.9897  1.9205  0.7870
24046SOL    HW281107   1.680   3.595   2.352 -0.7419  0.3043  0.7397
24047SOL     OW81108   8.024   6.847   2.271  0.1642  0.3360  0.4858
24047SOL    HW181109   7.984   6.895   2.199  0.5288  0.4989  0.3907
24047SOL    HW281110   7.998   6.896   2.349 -1.3573 -0.5873  0.6130
24048SOL     OW81111  10.512  11.658   6.884  0.0728  0.9965 -0.4964
24048SOL    HW181112  10.505  11.655   6.979 -0.0139  1.1140 -0.4988
24048SOL    HW281113  10.483  11.572   6.854  0.4205  0.8412 -0.3972
24049SOL     OW81114  11.034   2.652  12.211 -0.1416  0.2580  0.1884
24049SOL    HW181115  11.079   2.613  12.136 -0.6217 -0.5821  0.3213
24049SOL    HW281116  10.966   2.706  12.173 -0.5816 -0.4103  0.0130
24050SOL     OW81117   0.951   6.750   4.790 -0.8697  0.0792  0.7048
24050SOL    HW181118   0.860   6.751   4.819 -1.4862  0.9975 -1.0979
24050SOL    HW281119   0.962   6.833   4.743  0.4155 -0.7434 -0.5078
24051SOL     OW81120   3.089   5.545   7.922  0.0192  0.3341 -0.4251
24051SOL    HW181121   3.147   5.622   7.923  0.1370  0.2809 -1.5152
24051SOL    HW281122   3.028   5.560   7.994  0.2469  1.2907 -0.4124
24052SOL     OW81123  12.046   5.894  10.309  0.1021  0.0823  0.8229
24052SOL    HW181124  11.991   5.944  10.249  0.4848  0.0754  0.4631
24052SOL    HW281125  12.040   5.942  10.392  0.2699  0.5933  0.5466
24053SOL     OW81126   6.196  12.203  10.983  0.0058  0.4257 -0.3613
24053SOL    HW181127   6.147  12.170  10.908  1.9027 -3.1257 -0.2770
24053SOL    HW281128   6.146  12.174  11.059  1.5457 -2.4420 -0.2923
24054SOL     OW81129   9.389  10.929   0.615  0.5902  0.0296  0.2083
24054SOL    HW181130   9.426  11.015   0.595  0.5881 -0.1193 -0.4563
24054SOL    HW281131   9.296  10.945   0.629  0.6611  0.1958  0.5098
24055SOL     OW81132   4.314  11.158   7.389 -0.6862 -0.3683  0.0701
24055SOL    HW181133   4.354  11.221   7.449 -1.8886  0.8418 -0.3520
24055SOL    HW281134   4.243  11.206   7.348 -1.3648 -1.8878 -0.6051
24056SOL     OW81135   5.487   7.935   8.047 -0.3222  0.0534 -0.1234
24056SOL    HW181136   5.507   8.007   8.108  0.8974  1.4865 -2.0748
24056SOL    HW281137   5.558   7.872   8.060  0.8656  1.1229 -1.1065
24057SOL     OW81138   8.992  10.699   6.523 -0.0630  0.3512  0.1206
24057SOL    HW181139   8.971  10.786   6.489 -0.0980  0.0791 -0.5807
24057SOL    HW281140   8.959  10.639   6.456 -0.5083 -0.2213  0.8494
24058SOL     OW81141  10.829  10.786   7.202  0.3875  0.1510 -0.1834
24058SOL    HW181142  10.782  10.869   7.195  0.6757  0.2197 -1.4298
24058SOL    HW281143  10.788  10.728   7.138  0.7557 -0.3969  0.0618
24059SOL     OW81144   8.332   9.113   2.266 -0.7153  0.1864  0.5151
24059SOL    HW181145   8.406   9.059   2.294 -0.1609  0.6786  0.0078
24059SOL    HW281146   8.276   9.053   2.216 -1.0278 -0.3582  1.4820
24060SOL     OW81147   9.066   0.837   5.014 -0.2872 -0.2599  0.3512
24060SOL    HW181148   9.008   0.896   4.966 -0.6732 -1.5447 -0.8341
24060SOL    HW281149   9.011   0.762   5.036  0.0826 -0.0360  2.1996
24061SOL     OW81150   7.938   4.745   1.735 -0.6986 -0.4634 -0.2975
24061SOL    HW181151   7.857   4.736   1.685 -1.3082 -0.4609  0.6480
24061SOL    HW281152   7.910   4.784   1.818  0.5651  1.5136 -0.7207
24062SOL     OW81153   6.037  10.233  10.294 -0.0325  0.2383  0.2700
24062SOL    HW181154   6.031  10.323  10.327 -2.2555  0.8085 -1.4698
24062SOL    HW281155   5.977  10.183  10.350 -0.1467  0.2226  0.1360
24063SOL     OW81156   2.150   1.500   0.139 -0.3671  0.0884  0.1671
24063SOL    HW181157   2.220   1.455   0.090 -0.3016  0.4193 -0.0431
24063SOL    HW281158   2.182   1.502   0.229  0.0694  0.5803  0.0055
24064SOL     OW81159   1.277   4.535   0.163  0.0199  0.3332  0.0117
24064SOL    HW181160   1.245   4.598   0.099 -0.7964  0.3884  0.4634
24064SOL    HW281161   1.204   4.523   0.224  0.4176 -0.5024  0.3396
24065SOL     OW81162   3.363   8.571  10.986  0.1954 -0.5489 -0.2885
24065SOL    HW181163   3.337   8.602  10.899  0.7157  2.0146  0.3890
24065SOL    HW281164   3.372   8.650  11.038  0.6679 -1.9653  1.9228
24066SOL     OW81165   9.727   1.902   9.245 -0.0533 -0.0397 -0.0239
24066SOL    HW181166   9.773   1.824   9.216  1.5700  0.7338  0.3682
24066SOL    HW281167   9.777   1.933   9.320 -2.0821  0.0237  1.3946
24067SOL     OW81168  12.400   3.574   5.407 -0.0501 -0.1759 -0.0773
24067SOL    HW181169  12.444   3.587   5.491  1.5633 -0.6767 -0.7963
24067SOL    HW281170  12.438   3.493   5.372  0.5201  0.8318 -1.9816
24068SOL     OW81171   0.520   3.279   7.257  0.0718 -0.1775 -0.3131
24068SOL    HW181172   0.611   3.308   7.263 -0.1240  0.1222  1.4913
24068SOL    HW281173   0.495   3.259   7.347 -1.7558  0.0417 -0.7474
24069SOL     OW81174  10.262  10.401   9.416  0.3242 -0.3144 -0.0462
24069SOL    HW181175  10.297  10.462   9.351 -0.0534  0.1976  0.2190
24069SOL    HW281176  10.186  10.447   9.454  1.0794 -0.2037  1.4091
24070SOL     OW81177   8.299  11.042   9.129  0.3416  0.3688 -0.3443
24070SOL    HW181178   8.284  11.007   9.217  0.8625 -1.6193 -0.9890
24070SOL    HW281179   8.343  11.126   9.143 -1.5341  1.1734  1.3097
24071SOL     OW81180   5.856   0.162  10.942 -0.4706 -0.2265 -0.3045
24071SOL    HW181181   5.841   0.227  11.011 -1.4136 -1.5023  0.7491
24071SOL    HW281182   5.892   0.086  10.988  2.9687  0.2800 -1.8140
24072SOL     OW81183   3.855   2.316   4.949 -0.5742  0.0768 -0.6223
24072SOL    HW181184   3.928   2.376   4.938  0.0113 -0.4281  0.3901
24072SOL    HW281185   3.865   2.253   4.877 -0.5962  0.5754 -1.0694
24073SOL     OW81186   1.123   9.904   7.155  0.0538  0.4498 -0.0394
24073SOL    HW181187   1.112   9.979   7.213  1.6720  0.2389  0.5901
24073SOL    HW281188   1.148   9.832   7.213  1.6716  0.2226 -0.9522
24074SOL     OW81189  12.357   8.013   4.936  0.2387 -0.0964  0.4700
24074SOL    HW181190  12.339   8.074   4.865  0.4459  0.5250  0.9373
24074SOL    HW281191  12.422   8.058   4.990  0.4597 -0.7700  0.7786
24075SOL     OW81192   1.985  12.100   5.752 -0.1417  0.3818  0.0141
24075SOL    HW181193   2.043  12.170   5.782  0.8004  0.1318 -1.1430
24075SOL    HW281194   1.910  12.104   5.811  0.1977  1.9277  0.3793
24076SOL     OW81195  11.513   4.634   1.513  0.0651 -0.3896  0.0314
24076SOL    HW181196  11.561   4.661   1.591  1.0131 -1.2032 -0.2487
24076SOL    HW281197  11.564   4.670   1.440 -0.8662  0.4461 -0.2235
24077SOL     OW81198   1.466   6.904   9.769  0.2117  0.0050 -0.2604
24077SOL    HW181199   1.449   6.882   9.861  0.0487 -0.7961 -0.4751
24077SOL    HW281200   1.384   6.885   9.724  0.7319 -1.0247 -0.8082
24078SOL     OW81201   7.039   4.820   4.347  0.4065  0.0659  0.0021
24078SOL    HW181202   7.032   4.905   4.390 -1.2968  0.8881 -1.7769
24078SOL    HW281203   7.075   4.839   4.260 -2.4258 -0.5895 -1.4118
24079SOL     OW81204   7.376   4.376  10.715  0.0162 -0.3649  0.4576
24079SOL    HW181205   7.396   4.317  10.787 -0.0348 -1.2019 -0.1974
24079SOL    HW281206   7.311   4.329  10.663 -1.1825  0.8964  0.7314
24080SOL     OW81207   4.537   2.560   6.641  0.1821 -0.1284 -0.2071
24080SOL    HW181208   4.448   2.546   6.609  0.1366 -3.3111  0.8881
24080SOL    HW281209   4.577   2.473   6.639  3.3512  1.1861 -0.7510
24081SOL     OW81210   2.017   9.836   3.547 -0.0762 -0.2674 -0.2716
24081SOL    HW181211   2.111   9.828   3.562 -0.1870 -0.8015  0.1701
24081SOL    HW281212   2.005   9.927   3.520  0.5513 -0.1629 -0.2247
24082SOL     OW81213  11.904   3.638   1.824 -0.1696 -0.4421 -0.2862
24082SOL    HW181214  11.962   3.714   1.821 -0.2559 -0.3011  1.1244
24082SOL    HW281215  11.934   3.586   1.899 -0.4694 -1.5145 -0.8800
24083SOL     OW81216   3.644   6.846   7.855  0.3170  0.6730 -0.2159
24083SOL    HW181217   3.739   6.839   7.864  0.2547  0.3020  0.1293
24083SOL    HW281218   3.630   6.851   7.760  0.5443 -1.1753 -0.3715
24084SOL     OW81219   7.553   4.032  12.064  0.7628  0.0455 -0.0475
24084SOL    HW181220   7.524   4.000  12.149  1.5171 -0.3424  0.0720
24084SOL    HW281221   7.631   4.084  12.084  1.4613 -0.7710 -0.5818
24085SOL     OW81222  10.238   6.620   3.258  0.0009  0.1036  0.1423
24085SOL    HW181223  10.189   6.675   3.319 -1.2992 -3.0768  2.2290
24085SOL    HW281224  10.172   6.563   3.218  1.3319 -0.5106 -1.3144
24086SOL     OW81225   9.656   5.135   8.195 -0.3811 -0.2227 -0.0222
24086SOL    HW181226   9.652   5.231   8.201 -0.0252 -0.1590 -0.6700
24086SOL    HW281227   9.659   5.105   8.285 -0.0301  0.4038  0.1781
24087SOL     OW81228   0.452   3.447  11.789 -0.0106 -0.2004  0.8950
24087SOL    HW181229   0.436   3.367  11.838 -2.0565 -0.6362 -0.3637
24087SOL    HW281230   0.518   3.424  11.724  0.3003 -0.5243  1.3279
24088SOL     OW81231   2.789  10.215   9.886 -0.7397 -0.1085 -0.4365
24088SOL    HW181232   2.827  10.169   9.961 -0.9508 -0.2116 -0.3912
24088SOL    HW281233   2.697  10.189   9.887 -0.4316 -1.3523 -1.6702
24089SOL     OW81234   9.356  11.902   7.517 -0.3637  0.4007 -0.3856
24089SOL    HW181235   9.280  11.929   7.465 -1.4339 -0.6963  0.5525
24089SOL    HW281236   9.319  11.865   7.596  1.2146  1.3768  0.8753
24090SOL     OW81237   0.257  10.363   3.810 -0.0419 -0.5402  0.9041
24090SOL    HW181238   0.267  10.278   3.767  0.0389 -0.1106  0.0573
24090SOL    HW281239   0.239  10.341   3.902 -0.0427 -1.4675  0.6952
24091SOL     OW81240  12.322   0.209   6.991  0.2544 -0.0820  0.3572
24091SOL    HW181241  12.412   0.177   7.003 -0.5052 -1.6838  2.2436
24091SOL    HW281242  12.314   0.281   7.053  0.0058 -0.4046  0.6950
24092SOL     OW81243  11.522   4.344   9.261 -0.3036  0.0267 -0.0977
24092SOL    HW181244  11.547   4.365   9.171 -0.0703  0.7034  0.1251
24092SOL    HW281245  11.444   4.397   9.278  0.4835  1.0043  0.5781
24093SOL     OW81246  12.188   5.201  10.697 -0.3420 -0.5922  0.8097
24093SOL    HW181247  12.250   5.157  10.639 -1.4113  0.0524 -0.8744
24093SOL    HW281248  12.236   5.277  10.729  0.1669 -0.7905  0.5321
24094SOL     OW81249   0.098   3.811  10.449 -0.3122 -0.0883 -0.1647
24094SOL    HW181250   0.086   3.872  10.522 -0.0375  0.1181 -0.2892
24094SOL    HW281251   0.076   3.725  10.485  0.1841 -0.0398  0.2660
24095SOL     OW81252   2.023   1.821   5.548  0.0542 -0.4394 -0.2637
24095SOL    HW181253   2.101   1.772   5.521 -0.0362 -1.0237  0.4976
24095SOL    HW281254   2.052   1.912   5.550  0.1477 -0.4016 -1.9605
24096SOL     OW81255   3.864  11.142   5.292  0.4681 -0.2124  0.0930
24096SOL    HW181256   3.823  11.102   5.369  0.3802  0.3020  0.3132
24096SOL    HW281257   3.958  11.131   5.306  0.5354  1.4042  1.1213
24097SOL     OW81258   2.511   6.763   1.063  0.3294  0.3271 -0.6254
24097SOL    HW181259   2.446   6.801   1.122 -0.2767 -1.1540 -0.2778
24097SOL    HW281260   2.488   6.670   1.060  1.7933 -0.0353 -1.3506
24098SOL     OW81261   3.926   6.781   7.616 -0.0823  0.4302 -0.1759
24098SOL    HW181262   4.003   6.724   7.606 -0.2486  0.3001 -0.7322
24098SOL    HW281263   3.947   6.835   7.693 -0.0723 -0.6092  0.5723
24099SOL     OW81264   2.077   0.760   1.061  0.1806 -0.4019  0.4685
24099SOL    HW181265   2.134   0.800   1.126  3.0447  0.5508 -2.3567
24099SOL    HW281266   2.106   0.669   1.055 -1.9555 -1.3103  2.2927
24100SOL     OW81267   0.921   0.546  12.352 -0.0003  0.2785 -0.1342
24100SOL    HW181268   0.944   0.453  12.348  0.2843  0.3950 -2.0778
24100SOL    HW281269   0.899   0.569  12.262 -2.8623  1.4248  0.7421
24101SOL     OW81270  12.507   5.477   0.856 -0.5141 -0.0703 -0.1756
24101SOL    HW181271  12.538   5.530   0.930  1.9106 -0.6046 -0.7033
24101SOL    HW281272  12.579   5.481   0.793 -1.6257 -1.4039 -1.5883
24102SOL     OW81273   4.241  11.204   6.478  0.5208 -0.2877 -0.0795
24102SOL    HW181274   4.296  11.128   6.497 -0.3225 -0.8044  0.3304
24102SOL    HW281275   4.288  11.278   6.518  0.4540 -0.8600  1.0821
24103SOL     OW81276  11.733   1.585  10.446  0.6203  0.4021  0.4972
24103SOL    HW181277  11.747   1.660  10.388  1.2738  0.1993  0.3856
24103SOL    HW281278  11.767   1.510  10.398 -0.8539 -0.1293  0.2378
24104SOL     OW81279   5.134   7.866   0.950  0.4111  0.2725 -0.1299
24104SOL    HW181280   5.224   7.854   0.921  0.3114 -1.6598  0.2068
24104SOL    HW281281   5.137   7.856   1.045 -0.0496  0.9660 -0.0357
24105SOL     OW81282   0.633   4.645   7.676  0.3357 -0.0773 -0.0191
24105SOL    HW181283   0.602   4.695   7.751  0.0238  0.4665 -0.4972
24105SOL    HW281284   0.685   4.574   7.714  1.2985  0.9469  0.6540
24106SOL     OW81285   0.463   7.988   6.714  0.9088 -0.2901 -0.0816
24106SOL    HW181286   0.458   7.987   6.810  3.0772 -0.0139  0.0953
24106SOL    HW281287   0.556   7.971   6.695  0.0133 -3.8981 -2.2345
24107SOL     OW81288   1.157   2.156  10.373 -0.0480 -0.5224  0.5873
24107SOL    HW181289   1.063   2.176  10.378  0.0402 -0.3982  2.5221
24107SOL    HW281290   1.170   2.126  10.283 -1.3186  2.4124 -0.7031
24108SOL     OW81291  11.007   7.467   9.329 -0.2243 -0.0712  0.1743
24108SOL    HW181292  10.931   7.522   9.347 -0.7739 -1.6896  3.4250
24108SOL    HW281293  11.043   7.446   9.415  3.3701 -0.1960 -1.1802
24109SOL     OW81294   5.059  12.103   4.256 -0.0344  0.3199  0.2105
24109SOL    HW181295   5.073  12.195   4.279  0.9157  0.9092 -2.3490
24109SOL    HW281296   5.056  12.102   4.161 -0.5659 -2.2639  0.1676
24110SOL     OW81297   8.167  11.692   7.522 -0.0098  0.7299 -0.3191
24110SOL    HW181298   8.222  11.718   7.448 -0.6004  1.2039 -0.6010
24110SOL    HW281299   8.202  11.607   7.549  1.9176  1.7425  0.5785
24111SOL     OW81300  11.514   7.664  11.463  0.1459 -0.1797 -0.0368
24111SOL    HW181301  11.438   7.712  11.428 -0.1784 -2.2625 -2.5369
24111SOL    HW281302  11.475   7.592  11.513  0.4952 -0.4358 -0.1328
24112SOL     OW81303   2.450  10.072   5.410 -0.4206  0.1561  0.2222
24112SOL    HW181304   2.471  10.143   5.349 -0.1640  0.4467  0.6367
24112SOL    HW281305   2.534  10.029   5.426 -0.5648 -0.1955  0.0284
24113SOL     OW81306   1.091  12.441  11.684 -0.9060  0.4615 -0.0969
24113SOL    HW181307   1.023  12.413  11.746  0.5563  1.4305  2.0761
24113SOL    HW281308   1.171  12.399  11.717 -0.0298  1.2333 -1.1918
24114SOL     OW81309   3.267  12.137  12.452  0.5587 -0.2226  0.3817
24114SOL    HW181310   3.350  12.185  12.460 -0.3123  1.4550 -0.1333
24114SOL    HW281311   3.222  12.178  12.378 -0.9023 -0.8352  0.8831
24115SOL     OW81312   3.804   7.728   2.195  0.4972 -0.1089  0.0885
24115SOL    HW181313   3.836   7.810   2.233  2.4604 -0.7832  0.0212
24115SOL    HW281314   3.737   7.755   2.132  0.2872  1.3402  0.8873
24116SOL     OW81315  12.110  11.315   6.732  0.0385  0.1204 -0.4786
24116SOL    HW181316  12.146  11.329   6.820 -0.1612 -0.0164 -0.3727
24116SOL    HW281317  12.186  11.310   6.675  0.3269 -2.1052  0.0110
24117SOL     OW81318   6.768   4.262   8.975 -0.0281  0.3981  0.0618
24117SOL    HW181319   6.744   4.225   8.890 -1.4200 -0.3357  0.7329
24117SOL    HW281320   6.855   4.299   8.962 -0.2500  0.3636 -1.6951
24118SOL     OW81321  11.299   5.134   8.381  0.7408  0.4852  0.6036
24118SOL    HW181322  11.296   5.218   8.425  0.5746  1.4970 -1.2300
24118SOL    HW281323  11.208   5.116   8.357  0.8981  0.2819  0.1325
24119SOL     OW81324   6.228   5.000   2.829 -0.2460 -0.0759  0.4764
24119SOL    HW181325   6.312   4.955   2.842 -0.4455 -0.7050 -0.3591
24119SOL    HW281326   6.168   4.955   2.889 -0.1648 -0.1158  0.5285
24120SOL     OW81327   4.348   9.686   4.553  0.2555 -0.0102  0.1294
24120SOL    HW181328   4.260   9.699   4.520 -0.4558 -1.6503  1.2563
24120SOL    HW281329   4.346   9.718   4.643  0.9748  0.4225  0.0071
24121SOL     OW81330   9.519   9.758   3.083  0.5304  0.1337 -0.2727
24121SOL    HW181331   9.444   9.760   3.024  0.0275  0.2417  0.3584
24121SOL    HW281332   9.594   9.780   3.028 -0.0812  1.3275 -0.6585
24122SOL     OW81333   7.716   5.494   0.052  0.0629  0.0648 -0.5869
24122SOL    HW181334   7.789   5.537   0.008  0.3035 -1.0014 -1.2663
24122SOL    HW281335   7.740   5.401   0.054 -0.1669  0.0034  1.3691
24123SOL     OW81336  10.288  11.040   7.522 -0.2134 -0.2193 -0.2898
24123SOL    HW181337  10.236  10.985   7.581 -1.4779  1.6036  0.4031
24123SOL    HW281338  10.378  11.027   7.550 -0.7753  0.5584  2.0891
24124SOL     OW81339   5.179   2.976  12.528 -0.4340  0.6984 -0.4953
24124SOL    HW181340   5.203   2.966  12.621  1.0599 -0.9085 -1.0031
24124SOL    HW281341   5.085   2.961  12.527 -0.3483 -0.1469  0.6819
24125SOL     OW81342   1.581   0.110   2.016  0.1959  0.1301  0.6463
24125SOL    HW181343   1.603   0.017   2.024  0.9632  0.3788  1.4911
24125SOL    HW281344   1.666   0.155   2.017 -0.1753  0.8535  0.3528
24126SOL     OW81345   1.579   2.540   7.510 -0.3055  0.1239 -0.3854
24126SOL    HW181346   1.591   2.476   7.580 -0.2529  0.0238 -0.4862
24126SOL    HW281347   1.620   2.620   7.543 -1.6900  0.5535  0.3808
24127SOL     OW81348   4.599  11.912   3.601  0.2082 -0.2928  0.1955
24127SOL    HW181349   4.644  11.841   3.647  1.7334  0.3316 -0.3020
24127SOL    HW281350   4.563  11.967   3.671  1.0844 -0.2566  0.6272
24128SOL     OW81351   4.094   7.291   2.683 -0.2481 -0.1190  0.1623
24128SOL    HW181352   4.144   7.366   2.651  1.1281 -0.8397  0.5744
24128SOL    HW281353   4.159   7.221   2.695 -1.1650 -0.7639  1.7281
24129SOL     OW81354   4.487  10.049   3.618  0.2837  0.1030  0.5782
24129SOL    HW181355   4.478  10.077   3.527  1.3057  0.7366  0.6552
24129SOL    HW281356   4.499  10.130   3.667 -0.6005 -0.2104  1.3308
24130SOL     OW81357   6.408   2.646   7.091 -0.0655  0.1017 -0.0570
24130SOL    HW181358   6.406   2.565   7.142 -1.5400  1.1442  1.6522
24130SOL    HW281359   6.323   2.648   7.047  0.8220 -0.3114 -1.9004
24131SOL     OW81360   8.078   8.949   5.769 -0.1268 -0.1535 -0.4825
24131SOL    HW181361   8.079   8.907   5.683  1.6548 -1.0406 -0.0667
24131SOL    HW281362   8.128   9.029   5.757 -0.4311  0.0453 -0.4239
24132SOL     OW81363  10.050   3.072   6.790  0.0094  0.0124 -0.1418
24132SOL    HW181364  10.142   3.054   6.805  0.1116 -2.7346 -3.1459
24132SOL    HW281365  10.047   3.165   6.767  2.3430 -0.2405 -1.7798
24133SOL     OW81366   6.290   2.743   6.634  0.3672  0.4363 -0.1870
24133SOL    HW181367   6.255   2.667   6.680  0.7786  0.6967  0.5757
24133SOL    HW281368   6.217   2.775   6.581  0.9736 -2.3394 -3.0509
24134SOL     OW81369   5.901   1.556  11.274  0.0020  0.1253 -0.6334
24134SOL    HW181370   5.858   1.616  11.335  1.8717  0.4707  0.4259
24134SOL    HW281371   5.883   1.468  11.310 -1.4002  0.1113 -1.2998
24135SOL     OW81372  11.225   7.381   7.054 -0.0327 -0.3141 -0.0944
24135SOL    HW181373  11.139   7.418   7.034 -0.0850  0.3785  1.2791
24135SOL    HW281374  11.277   7.455   7.085  0.9859 -0.7752 -0.6257
24136SOL     OW81375   4.654   7.063  11.109 -0.2611  0.1824  0.2217
24136SOL    HW181376   4.737   7.072  11.154 -0.8772 -0.4647  1.5488
24136SOL    HW281377   4.665   6.987  11.052 -0.0220 -0.0609  0.5892
24137SOL     OW81378   3.784   6.492   0.400 -0.3297  0.0467 -0.6050
24137SOL    HW181379   3.759   6.500   0.492 -1.0901 -2.9848 -0.4605
24137SOL    HW281380   3.829   6.408   0.395 -0.9338 -0.1911 -3.1141
24138SOL     OW81381   2.251   2.746   8.898 -0.2293 -0.0556  0.0183
24138SOL    HW181382   2.210   2.672   8.943 -0.6652 -0.7181 -1.3988
24138SOL    HW281383   2.182   2.780   8.841  0.2842  0.7973 -0.1121
24139SOL     OW81384   2.141  12.594   5.168  0.3735  0.1109  0.2667
24139SOL    HW181385   2.077  12.629   5.231  0.7607  0.7570  0.3058
24139SOL    HW281386   2.224  12.635   5.193  0.4156  0.9131 -1.0669
24140SOL     OW81387   5.202   2.755   4.114 -0.0207 -0.3529  0.3567
24140SOL    HW181388   5.252   2.703   4.051 -1.3103  1.7961 -2.6691
24140SOL    HW281389   5.125   2.702   4.133  0.1901 -0.8830 -0.2014
24141SOL     OW81390   2.478  10.298  10.478 -0.4481 -0.0696 -0.5255
24141SOL    HW181391   2.450  10.241  10.406  1.9764 -1.0919 -0.7864
24141SOL    HW281392   2.443  10.257  10.556 -1.1567 -0.2857 -0.9498
24142SOL     OW81393   7.655   3.368  10.073 -0.5687  0.1394 -0.8556
24142SOL    HW181394   7.683   3.452  10.037  0.1712  0.4093  0.3049
24142SOL    HW281395   7.732   3.333  10.117 -0.7992 -1.2752 -1.5162
24143SOL     OW81396   6.358  10.751   5.759  0.2860  0.0354  0.8867
24143SOL    HW181397   6.401  10.810   5.821 -1.3995  2.1762  0.1356
24143SOL    HW281398   6.409  10.759   5.678  0.4162 -0.0417  0.9604
24144SOL     OW81399  10.550   8.351   4.343  0.4508  0.2102  0.3794
24144SOL    HW181400  10.643   8.335   4.327  0.1608 -1.8981  0.5895
24144SOL    HW281401  10.543   8.357   4.438  0.0043 -2.6406  0.6015
24145SOL     OW81402   4.372   7.315  10.955  0.0318 -0.2788 -0.2351
24145SOL    HW181403   4.383   7.285  11.046 -0.8476  0.6539  0.1942
24145SOL    HW281404   4.415   7.248  10.903  2.9589  0.4485  1.0001
24146SOL     OW81405  11.057   5.466   3.133 -0.5438  0.3697  0.0436
24146SOL    HW181406  11.112   5.528   3.182  1.9150 -1.9771  0.4749
24146SOL    HW281407  11.029   5.402   3.198 -0.5754 -0.5843 -0.8754
24147SOL     OW81408  12.059   0.625  10.731  0.2771  0.6440  0.3574
24147SOL    HW181409  12.117   0.692  10.765 -0.7241  1.5127  0.3984
24147SOL    HW281410  11.971   0.652  10.758 -0.2654 -0.0603 -0.6064
24148SOL     OW81411   8.508   5.301   0.064  0.5120  0.1821 -0.1274
24148SOL    HW181412   8.476   5.270  -0.020 -0.4357  0.9906 -0.0832
24148SOL    HW281413   8.457   5.380   0.081  0.1404 -0.3884  1.5753
24149SOL     OW81414   9.608   0.095   7.139  0.0717 -0.1698 -0.7292
24149SOL    HW181415   9.625   0.047   7.058 -0.0455 -0.2575 -0.7026
24149SOL    HW281416   9.601   0.186   7.113  0.0283 -0.1989 -0.8186
24150SOL     OW81417   4.197   7.045   5.267  0.0174 -0.0563  0.8040
24150SOL    HW181418   4.279   7.092   5.284  0.3286 -0.3489  0.1445
24150SOL    HW281419   4.199   6.970   5.326  0.4146 -0.2752  0.5205
24151SOL     OW81420   1.042   1.991   9.673 -0.7726  0.3307  0.3531
24151SOL    HW181421   0.949   1.979   9.694 -1.0976 -0.9578 -1.5727
24151SOL    HW281422   1.079   1.903   9.677  0.5661  0.9124  1.7764
24152SOL     OW81423   6.495   7.144   2.992  0.6583  0.1144 -0.2051
24152SOL    HW181424   6.524   7.062   2.951  0.3900  0.4444 -1.0706
24152SOL    HW281425   6.501   7.127   3.086  1.2034 -0.6874 -0.3773
24153SOL     OW81426   6.835   9.042   8.833  0.6866 -0.0803 -0.1164
24153SOL    HW181427   6.777   9.118   8.841 -0.2206 -0.7791  0.1397
24153SOL    HW281428   6.785   8.979   8.781 -0.0281 -1.8203  2.4485
24154SOL     OW81429  10.495   1.274   7.470  0.2133 -0.8133 -0.8324
24154SOL    HW181430  10.404   1.280   7.442 -0.1456  1.2071  0.5443
24154SOL    HW281431  10.542   1.335   7.414  0.5620 -1.1992 -0.9645
24155SOL     OW81432   6.355   7.069   5.235  0.4070 -0.7914 -0.1210
24155SOL    HW181433   6.342   7.130   5.161  2.3407  0.0023  0.1298
24155SOL    HW281434   6.298   6.994   5.214 -0.4348  0.1670 -1.5116
24156SOL     OW81435   3.186  10.112  12.063 -0.0983  0.3890  0.7897
24156SOL    HW181436   3.129  10.177  12.104  0.2145  0.9376  0.3704
24156SOL    HW281437   3.132  10.073  11.994 -0.6864 -0.6699  1.8233
24157SOL     OW81438   6.749   3.444  12.150  0.1482  0.0862  0.2567
24157SOL    HW181439   6.818   3.509  12.138 -0.5059  0.5943 -0.8542
24157SOL    HW281440   6.698   3.448  12.069 -1.6850  0.3192  1.3762
24158SOL     OW81441   6.927   3.896   7.770  0.3115 -0.0222  0.3680
24158SOL    HW181442   6.853   3.836   7.761  0.4470 -0.0052 -0.9968
24158SOL    HW281443   6.888   3.978   7.799 -0.1750 -0.0947 -0.0709
24159SOL     OW81444   6.423  11.575   7.611  0.3117  0.1488 -0.6189
24159SOL    HW181445   6.459  11.629   7.541  0.0571  0.0291 -0.8440
24159SOL    HW281446   6.364  11.633   7.659  0.6299  0.2817 -0.3893
24160SOL     OW81447   2.458   2.258   3.017  0.1007 -0.3143 -0.1049
24160SOL    HW181448   2.395   2.251   2.945 -1.2209 -0.5707  1.0447
24160SOL    HW281449   2.406   2.284   3.093  1.5024  0.1731  0.7263
24161SOL     OW81450   1.426   8.047  12.025 -0.3911 -0.2397 -0.7768
24161SOL    HW181451   1.503   8.053  12.081  0.2339 -1.5577 -1.4519
24161SOL    HW281452   1.399   7.955  12.032 -1.3647 -0.0070 -1.2635
24162SOL     OW81453   1.076   0.606   2.762 -0.1328 -0.1442  0.5255
24162SOL    HW181454   1.067   0.533   2.824  0.6450 -1.0685 -0.4122
24162SOL    HW281455   1.006   0.593   2.698  1.7049 -1.7835 -1.2803
24163SOL     OW81456   9.744  12.489   2.247  0.2239  0.7046 -0.6124
24163SOL    HW181457   9.744  12.573   2.294  1.3424 -0.0564  0.8069
24163SOL    HW281458   9.651  12.468   2.238 -0.0483  1.2194  0.6835
24164SOL     OW81459   3.098   4.056  10.206 -0.2568 -0.7642 -0.0803
24164SOL    HW181460   3.184   4.029  10.238  0.5306  0.6138 -0.8817
24164SOL    HW281461   3.047   4.074  10.285  0.6078 -0.4404  0.4200
24165SOL     OW81462   8.617   0.272  11.619  0.2435  0.0623 -0.0327
24165SOL    HW181463   8.667   0.328  11.559 -0.1974  0.2363 -0.2385
24165SOL    HW281464   8.582   0.203  11.563 -0.7301  0.5984 -0.1024
24166SOL     OW81465   1.500   2.797   6.928 -0.5999 -0.2884  0.2311
24166SOL    HW181466   1.475   2.797   6.835  0.6423  0.7269 -0.1291
24166SOL    HW281467   1.553   2.718   6.938 -3.4622 -2.2663  0.9195
24167SOL     OW81468   7.769   0.775   0.005  0.4830  0.4796  0.5158
24167SOL    HW181469   7.805   0.766   0.093  2.6476 -1.3010 -0.4618
24167SOL    HW281470   7.835   0.736  -0.052 -1.1512  0.9789 -1.8519
24168SOL     OW81471   1.251   6.886   1.910 -0.1403  0.1941 -0.1461
24168SOL    HW181472   1.211   6.927   1.987  2.1620  0.2562  1.1119
24168SOL    HW281473   1.298   6.810   1.944  0.3730 -0.1826 -1.5955
24169SOL     OW81474   0.031   8.457   4.493 -0.3628 -0.5004  0.5006
24169SOL    HW181475  -0.018   8.534   4.523  0.6324 -0.2096  1.4557
24169SOL    HW281476   0.114   8.462   4.540  0.6860 -0.8634 -1.2235
24170SOL     OW81477  12.575   1.156  12.138 -0.3445  0.6696 -0.0743
24170SOL    HW181478  12.670   1.145  12.146 -0.4424 -0.2280 -0.1159
24170SOL    HW281479  12.554   1.123  12.051 -0.8633 -0.3862  0.4337
24171SOL     OW81480  11.715   9.073   6.407 -0.0548  0.2584  0.1456
24171SOL    HW181481  11.728   9.059   6.501  0.9061  0.9399  0.1294
24171SOL    HW281482  11.770   9.006   6.366  0.0800  0.4196  0.0655
24172SOL     OW81483   9.499   8.550   5.553 -0.1892 -0.3525 -0.0958
24172SOL    HW181484   9.533   8.634   5.585  0.6937  0.0444 -1.9327
24172SOL    HW281485   9.427   8.574   5.494  0.1035 -0.8632 -0.6747
24173SOL     OW81486   0.803   1.208   1.865 -0.2935 -0.1274 -0.2316
24173SOL    HW181487   0.848   1.292   1.873 -0.1810 -0.2590  0.5711
24173SOL    HW281488   0.862   1.153   1.814  0.2768 -0.1640  0.4538
24174SOL     OW81489   4.407  11.284   0.397  0.4252  0.2358  0.2363
24174SOL    HW181490   4.498  11.260   0.380  0.7041  1.1627  0.3660
24174SOL    HW281491   4.378  11.224   0.465  0.6707 -0.6199 -0.3966
24175SOL     OW81492   8.446   3.259   0.977  0.1654  0.3284 -0.3967
24175SOL    HW181493   8.357   3.286   1.000  0.1182 -0.4961  0.4729
24175SOL    HW281494   8.438   3.165   0.957  1.0274 -0.0375  0.8537
24176SOL     OW81495  11.444   7.837   3.186  0.3710 -0.1850  0.2681
24176SOL    HW181496  11.536   7.815   3.202  0.9534  1.3346 -0.7682
24176SOL    HW281497  11.401   7.752   3.173  2.1314 -0.8702 -1.7268
24177SOL     OW81498   8.693   6.531  11.568  0.1949  0.4750 -0.2148
24177SOL    HW181499   8.711   6.473  11.641  0.5162 -0.0529 -0.7039
24177SOL    HW281500   8.613   6.578  11.593  0.2121  0.1822  0.3950
24178SOL     OW81501   7.643  10.454   5.916  0.7369 -0.0210  0.1988
24178SOL    HW181502   7.628  10.543   5.884 -1.6422 -0.7245 -0.9149
24178SOL    HW281503   7.686  10.409   5.843 -2.2867 -0.9194 -1.1981
24179SOL     OW81504   7.481   1.326  10.009  0.0067 -0.8341  0.0899
24179SOL    HW181505   7.552   1.267  10.033 -0.7333 -1.6828  0.2415
24179SOL    HW281506   7.443   1.352  10.093 -0.3339 -0.9679 -0.0249
24180SOL     OW81507   2.417   5.773   0.628  0.4767 -0.5711 -0.0321
24180SOL    HW181508   2.458   5.785   0.714  3.2712 -1.7057 -1.0768
24180SOL    HW281509   2.434   5.681   0.606 -0.2228 -0.3191 -1.7685
24181SOL     OW81510  10.526   8.877   4.333  0.1649  0.0186  0.0514
24181SOL    HW181511  10.468   8.816   4.288  0.1200  1.4018 -1.9192
24181SOL    HW281512  10.468   8.929   4.389 -0.2867  0.2709 -0.6257
24182SOL     OW81513   7.531   7.658   1.805  0.0198 -0.0409  0.6673
24182SOL    HW181514   7.560   7.748   1.819  1.2497  0.0039 -1.6238
24182SOL    HW281515   7.437   7.665   1.788  0.4409  1.1571 -1.5716
24183SOL     OW81516  10.520   9.263   0.794  0.2160  0.0840  0.0579
24183SOL    HW181517  10.596   9.269   0.851 -1.4895 -0.5322  2.5778
24183SOL    HW281518  10.445   9.272   0.853 -1.8049 -4.5627 -1.3293
24184SOL     OW81519   1.024   4.038   0.091 -0.2569  0.0312  0.4573
24184SOL    HW181520   0.996   4.128   0.106  2.0120  0.5221  2.5276
24184SOL    HW281521   0.948   3.985   0.117 -2.0601  1.2598 -1.9324
24185SOL     OW81522   5.576  11.934   8.440 -0.4579 -0.0891  0.7257
24185SOL    HW181523   5.534  11.983   8.511  0.2125 -1.3704  2.0796
24185SOL    HW281524   5.514  11.940   8.367 -0.9178  1.7462  1.2133
24186SOL     OW81525   6.364   8.629  12.310 -0.4137 -0.2361 -0.1697
24186SOL    HW181526   6.299   8.655  12.376 -1.0750 -0.9927 -0.5042
24186SOL    HW281527   6.441   8.603  12.360  0.2385  2.1376  0.2034
24187SOL     OW81528   5.220  12.073   3.161  0.1234 -0.0350  0.3865
24187SOL    HW181529   5.305  12.091   3.200  0.9229 -1.2696 -0.7358
24187SOL    HW281530   5.240  12.035   3.076 -1.5518 -0.5321  0.1841
24188SOL     OW81531   1.195   4.938   7.029 -0.0010 -0.0894  0.0211
24188SOL    HW181532   1.170   5.009   7.087 -1.0985  0.4508 -1.0714
24188SOL    HW281533   1.198   4.977   6.942  0.5918 -1.1105 -0.4411
24189SOL     OW81534   0.134   0.827  11.868 -0.2518  0.1745  0.2365
24189SOL    HW181535   0.228   0.842  11.882 -0.2374 -0.1126  0.4629
24189SOL    HW281536   0.111   0.759  11.932 -0.4923 -0.1589 -0.2007
24190SOL     OW81537   7.882   2.251   3.885 -0.3743  0.1465 -0.0703
24190SOL    HW181538   7.841   2.177   3.929 -1.5990  1.0648  0.3799
24190SOL    HW281539   7.812   2.292   3.834 -0.4243  2.5024  1.7144
24191SOL     OW81540   9.571  11.310   4.377 -0.2026  0.0245 -0.3343
24191SOL    HW181541   9.498  11.317   4.439 -0.4008  1.1022 -0.6691
24191SOL    HW281542   9.644  11.280   4.430 -1.0123 -1.6312 -0.0957
24192SOL     OW81543   8.834   0.098  12.479  0.5208  0.0403  0.0351
24192SOL    HW181544   8.858   0.033  12.545 -0.1972  1.2624  1.5498
24192SOL    HW281545   8.879   0.178  12.505  1.3399  0.2295 -1.7726
24193SOL     OW81546  10.487   6.007   4.867  0.0026 -0.0388  0.0272
24193SOL    HW181547  10.449   5.938   4.921 -1.5853  1.7857  1.3889
24193SOL    HW281548  10.534   5.960   4.798 -1.5239 -2.4678  0.4987
24194SOL     OW81549   7.408   2.614   3.494  0.4522  0.1523 -0.0721
24194SOL    HW181550   7.391   2.708   3.508  1.1731  0.6723 -2.2042
24194SOL    HW281551   7.355   2.570   3.560 -1.7748  1.9920 -0.4642
24195SOL     OW81552  11.049   4.528   6.361  0.1258 -0.3990 -0.0200
24195SOL    HW181553  11.044   4.455   6.423  0.2851 -0.2764  0.1372
24195SOL    HW281554  10.968   4.578   6.376 -0.6889 -1.3315 -1.1215
24196SOL     OW81555   0.529   6.097   0.944 -0.2071  0.2927 -0.4026
24196SOL    HW181556   0.523   6.171   0.885 -0.6417 -0.8453 -1.8443
24196SOL    HW281557   0.448   6.101   0.995 -1.2112 -0.3027 -1.8783
24197SOL     OW81558   2.738   3.478   5.798  0.2942 -0.0376  0.1753
24197SOL    HW181559   2.709   3.479   5.889 -1.3431  0.0117 -0.3171
24197SOL    HW281560   2.734   3.386   5.772 -1.6908  0.1889 -0.5362
24198SOL     OW81561   1.918  10.271  11.540 -0.2792 -0.1979 -1.1598
24198SOL    HW181562   1.826  10.252  11.559 -0.5999  1.4296 -0.9513
24198SOL    HW281563   1.967  10.219  11.603 -1.1102 -0.1066 -0.4191
24199SOL     OW81564  12.138   3.199   1.588 -0.3503  0.1012  0.0364
24199SOL    HW181565  12.167   3.279   1.631 -0.1450 -0.6998  1.4493
24199SOL    HW281566  12.067   3.166   1.644 -0.8323 -0.4056 -0.8433
24200SOL     OW81567   1.211   7.484   0.399  0.5237  0.0463 -0.5358
24200SOL    HW181568   1.250   7.498   0.486  0.4836  0.2455 -0.5494
24200SOL    HW281569   1.193   7.390   0.396 -0.7347  0.2486  0.2114
24201SOL     OW81570   6.134   9.732   6.911  0.0973  0.0128 -0.0038
24201SOL    HW181571   6.194   9.718   6.838  0.3399  0.5853  0.0785
24201SOL    HW281572   6.065   9.666   6.900  0.1903  0.0301 -0.6874
24202SOL     OW81573   6.122   9.741   0.469 -0.1322 -0.0559 -0.4432
24202SOL    HW181574   6.129   9.654   0.507  0.9574 -0.1345 -0.7703
24202SOL    HW281575   6.160   9.731   0.381 -1.3024  0.4333 -1.0181
24203SOL     OW81576   4.766   5.270  10.773 -0.2086  0.2503  0.6271
24203SOL    HW181577   4.718   5.201  10.818  0.2300 -0.0115  0.6973
24203SOL    HW281578   4.754   5.250  10.680  2.6293 -1.8777  0.6040
24204SOL     OW81579   3.852   0.239   7.189  0.1475 -0.6877 -0.7643
24204SOL    HW181580   3.928   0.294   7.206 -0.0061 -0.6079 -0.3283
24204SOL    HW281581   3.797   0.293   7.131  0.6316 -0.9313 -1.4708
24205SOL     OW81582   6.880  10.618   9.699  0.1393  0.1229 -0.4887
24205SOL    HW181583   6.922  10.660   9.774  0.5651  0.5461 -0.9542
24205SOL    HW281584   6.883  10.684   9.630  3.1019 -1.4476 -2.0501
24206SOL     OW81585   7.180   1.160   0.705 -0.4660 -0.3261  0.0391
24206SOL    HW181586   7.253   1.134   0.649 -0.5384  1.5913 -1.0405
24206SOL    HW281587   7.152   1.245   0.670 -1.8208  0.0047  1.7727
24207SOL     OW81588  11.599   0.491   4.822  0.2130 -0.5390 -0.8388
24207SOL    HW181589  11.599   0.449   4.908 -2.9992 -0.7606 -0.8301
24207SOL    HW281590  11.679   0.544   4.821  1.3628 -2.0717  1.4546
24208SOL     OW81591  11.198   6.669   2.775 -0.2015 -0.8752 -0.2044
24208SOL    HW181592  11.131   6.601   2.768 -0.4209 -0.5547 -1.3134
24208SOL    HW281593  11.195   6.715   2.691 -0.8462  1.2674  0.9286
24209SOL     OW81594   0.944   6.598   0.461 -0.1791  0.0899 -0.5448
24209SOL    HW181595   0.931   6.518   0.512 -0.4356 -0.2891 -1.1935
24209SOL    HW281596   0.996   6.571   0.386  0.1956  0.6468 -0.4953
24210SOL     OW81597   2.767   4.080  11.751 -0.2847 -0.1022 -0.2539
24210SOL    HW181598   2.689   4.120  11.790 -0.6033 -0.6263 -0.3467
24210SOL    HW281599   2.805   4.030  11.823  1.5211  2.2997  0.6218
24211SOL     OW81600   4.930   8.730   2.219 -0.1833 -0.5930 -0.2294
24211SOL    HW181601   5.011   8.725   2.168 -0.4477 -1.3035 -0.5982
24211SOL    HW281602   4.925   8.646   2.264 -1.9322 -1.6154 -2.1354
24212SOL     OW81603   3.002   4.661   1.304  0.1058  0.2943 -0.6119
24212SOL    HW181604   2.929   4.606   1.276  0.5276 -1.4147  1.3649
24212SOL    HW281605   2.960   4.739   1.341 -0.9337 -1.2015  1.6650
24213SOL     OW81606   0.414  11.582   4.469 -0.0275  0.1138 -0.6875
24213SOL    HW181607   0.380  11.671   4.459 -0.0601  0.1012 -0.6868
24213SOL    HW281608   0.382  11.553   4.554  1.4192  0.7425  0.1106
24214SOL     OW81609   9.905   8.016  11.218 -0.0965  0.2463 -0.3295
24214SOL    HW181610   9.843   7.963  11.268 -0.8998  3.4620  2.4616
24214SOL    HW281611   9.858   8.099  11.202  2.0668  1.2819 -1.8273
24215SOL     OW81612   9.465   1.560   2.549  0.4313  0.7473 -0.6673
24215SOL    HW181613   9.552   1.532   2.520 -0.0105  0.0435 -1.3749
24215SOL    HW281614   9.424   1.479   2.581  0.1973  1.1593  0.0983
24216SOL     OW81615  11.602  12.055   4.276  0.3677 -0.7980 -0.0312
24216SOL    HW181616  11.626  12.107   4.200 -1.3384  0.6832  0.3459
24216SOL    HW281617  11.598  11.965   4.245  1.7376 -0.5035 -1.1420
24217SOL     OW81618  11.470   6.430  10.593  0.1433 -0.3662  0.3478
24217SOL    HW181619  11.396   6.435  10.533 -0.3441 -2.8121  0.6289
24217SOL    HW281620  11.446   6.485  10.667 -0.9487 -0.3171 -0.0293
24218SOL     OW81621   2.453   2.179   7.898  0.1694 -0.2966  0.2892
24218SOL    HW181622   2.538   2.172   7.942  0.8603 -0.9307 -1.0789
24218SOL    HW281623   2.437   2.273   7.892 -0.3956 -0.1761  2.6463
24219SOL     OW81624   1.266   6.169   1.112  0.2041 -0.3231  0.3723
24219SOL    HW181625   1.353   6.148   1.078 -0.7291  0.2826 -2.7324
24219SOL    HW281626   1.210   6.099   1.078 -0.8085  0.3009  0.7235
24220SOL     OW81627   3.612  10.539  10.111  0.6495  0.2282 -0.0763
24220SOL    HW181628   3.635  10.612  10.169  1.6710 -0.9952  1.1094
24220SOL    HW281629   3.684  10.537  10.048  0.6902  0.1563 -0.0274
24221SOL     OW81630   2.965   4.476   4.023 -0.4895 -0.2681 -0.3013
24221SOL    HW181631   2.995   4.409   4.083 -1.8117 -0.1362  0.5422
24221SOL    HW281632   2.942   4.428   3.943  0.0699 -0.5983 -0.2700
24222SOL     OW81633   2.240   0.736   6.063 -0.1797 -0.2648  0.4975
24222SOL    HW181634   2.218   0.738   6.156 -1.1592  0.2351  0.2734
24222SOL    HW281635   2.175   0.793   6.022 -0.1689 -0.9947 -0.5739
24223SOL     OW81636  11.998   5.652   3.434  0.0447 -0.0403  0.7969
24223SOL    HW181637  11.940   5.636   3.360 -0.6324  0.2725  1.2414
24223SOL    HW281638  12.047   5.731   3.409 -1.8034  1.4415  1.5751
24224SOL     OW81639   6.535   8.722  10.545  0.0643  0.4858 -0.0131
24224SOL    HW181640   6.598   8.790  10.521 -1.3105  2.0996  0.7554
24224SOL    HW281641   6.528   8.728  10.640  0.1594 -0.9912  0.1115
24225SOL     OW81642  11.395   5.975  10.623 -0.2892 -0.2850 -0.7198
24225SOL    HW181643  11.348   6.015  10.696 -1.0770  1.7023 -2.2312
24225SOL    HW281644  11.460   5.919  10.665 -1.4992 -0.1686  1.4738
24226SOL     OW81645   0.816   4.222   3.720  0.0048 -0.0876 -0.1303
24226SOL    HW181646   0.790   4.314   3.727  0.5589  0.0747 -0.1763
24226SOL    HW281647   0.856   4.215   3.634  3.6456  0.5936  1.3249
24227SOL     OW81648   6.667  11.854   6.145  0.4706 -0.4837  0.4118
24227SOL    HW181649   6.603  11.916   6.111  1.2730  0.7623  1.0920
24227SOL    HW281650   6.617  11.795   6.200 -0.0598  0.6711  1.1892
24228SOL     OW81651  11.636   2.421   3.817 -0.0389  0.1001  0.0830
24228SOL    HW181652  11.670   2.334   3.838  0.0254  0.2428  0.5829
24228SOL    HW281653  11.541   2.411   3.819 -0.0314  0.0306  0.0914
24229SOL     OW81654   5.058   2.682   1.334 -0.1524 -0.1630 -0.0437
24229SOL    HW181655   5.078   2.756   1.390 -0.6535  0.0447 -0.1270
24229SOL    HW281656   4.973   2.651   1.365 -0.6378  0.2228 -0.9465
24230SOL     OW81657   4.899   4.319   0.354 -0.0462  0.2700  0.3528
24230SOL    HW181658   4.812   4.286   0.377  0.2371 -0.4294  0.4496
24230SOL    HW281659   4.916   4.282   0.267  0.7096 -0.7279  0.8967
24231SOL     OW81660   7.065   6.349   6.105  0.2845 -0.3760  0.0389
24231SOL    HW181661   7.043   6.257   6.088  0.7802 -0.6330  0.7392
24231SOL    HW281662   6.999   6.378   6.167 -0.6440  0.1345 -1.1382
24232SOL     OW81663   4.918   6.700   4.061  0.0745  0.3447 -0.3439
24232SOL    HW181664   5.010   6.685   4.082 -0.0657  1.0331  0.8787
24232SOL    HW281665   4.918   6.724   3.969  0.9217 -1.3220 -0.8074
24233SOL     OW81666  11.369   3.661   2.229  0.5448 -0.7570  0.2802
24233SOL    HW181667  11.448   3.647   2.178  0.1241 -2.0554 -0.0473
24233SOL    HW281668  11.313   3.714   2.172  0.9267 -0.3427  0.2803
24234SOL     OW81669  10.112   8.412  10.240 -0.5321  0.2571  0.3082
24234SOL    HW181670  10.035   8.368  10.205  0.3686 -1.3881  0.2960
24234SOL    HW281671  10.183   8.348  10.232  1.1662  2.1394 -0.9296
24235SOL     OW81672   9.442   8.092   7.477  0.3149  0.0631  0.0855
24235SOL    HW181673   9.505   8.127   7.539  0.5437 -2.3945  1.3788
24235SOL    HW281674   9.495   8.048   7.410  0.0154 -0.0108 -0.1067
24236SOL     OW81675  10.672   5.833   5.991  0.6707 -0.2426  0.0991
24236SOL    HW181676  10.650   5.855   5.901  1.3211  0.1941  0.0454
24236SOL    HW281677  10.643   5.742   6.001 -0.2008 -0.0092 -0.2785
24237SOL     OW81678  10.730   2.825   9.351 -0.4056  0.2422 -0.5496
24237SOL    HW181679  10.705   2.733   9.337  1.3325 -0.2742 -0.4330
24237SOL    HW281680  10.754   2.856   9.264 -1.8414  0.8885 -0.7451
24238SOL     OW81681   0.301  10.187  11.986  0.2495  0.4589  0.1937
24238SOL    HW181682   0.215  10.218  12.012  0.4000  1.1345 -0.1121
24238SOL    HW281683   0.319  10.115  12.047  0.3821  1.6736  1.6490
24239SOL     OW81684   1.687   4.672   6.226 -0.5739  0.0445  0.0002
24239SOL    HW181685   1.597   4.671   6.258 -0.8214 -0.9999 -0.6874
24239SOL    HW281686   1.680   4.702   6.136  0.2543  4.2591  1.1595
24240SOL     OW81687  10.097   1.618   7.378  0.0418  0.1527 -0.4702
24240SOL    HW181688  10.153   1.563   7.434 -1.2915  0.7503  1.5731
24240SOL    HW281689  10.123   1.707   7.399 -0.1124  0.3851 -1.2538
24241SOL     OW81690   8.608   4.283  11.405 -0.2468  0.5491 -0.4314
24241SOL    HW181691   8.613   4.332  11.487  0.1758 -0.6085  0.2557
24241SOL    HW281692   8.695   4.292  11.367  0.0078 -0.1203 -0.0249
24242SOL     OW81693   7.173   2.927   5.736  0.2006  0.1242 -0.5211
24242SOL    HW181694   7.112   2.857   5.714  0.2393 -0.4963  1.1806
24242SOL    HW281695   7.118   2.996   5.773  0.3309  0.3413 -0.7316
24243SOL     OW81696   9.445   9.082   7.952  0.0200  0.3238  0.6668
24243SOL    HW181697   9.462   9.098   7.859  0.3211  0.7247  0.7832
24243SOL    HW281698   9.468   8.991   7.966  1.2343  0.6018  0.6131
24244SOL     OW81699  10.669   9.315  10.492  0.3573  0.1126  0.1633
24244SOL    HW181700  10.748   9.287  10.446 -0.2097 -2.1814  0.4437
24244SOL    HW281701  10.600   9.311  10.425 -0.0063 -0.7046  0.5700
24245SOL     OW81702  12.133   7.138   0.052 -0.1320  0.0039 -0.2374
24245SOL    HW181703  12.048   7.180   0.045 -1.0529 -1.9665 -1.8423
24245SOL    HW281704  12.145   7.123   0.146 -1.5722  0.2977  0.0119
24246SOL     OW81705   6.713   7.269   1.071 -0.1451 -0.1118 -0.5084
24246SOL    HW181706   6.779   7.241   1.134 -0.0922 -0.9575 -0.9224
24246SOL    HW281707   6.763   7.286   0.991 -0.3618 -0.2565 -0.6756
24247SOL     OW81708   4.578  12.570   5.979 -0.2704  0.3814  0.0232
24247SOL    HW181709   4.670  12.563   6.005  1.1194  0.9324 -3.9257
24247SOL    HW281710   4.560  12.664   5.978 -0.1593  0.4055 -1.1364
24248SOL     OW81711   1.223   9.236  10.780  0.2010 -0.0759 -0.4684
24248SOL    HW181712   1.139   9.282  10.772 -0.3846 -1.0624 -0.1658
24248SOL    HW281713   1.252   9.222  10.690  0.1893  0.5195 -0.5695
24249SOL     OW81714   3.674   9.970  11.079  0.2002 -0.3435  0.0869
24249SOL    HW181715   3.752  10.020  11.104  0.9780 -1.1269 -0.7000
24249SOL    HW281716   3.610  10.037  11.055  1.2318  0.3034 -0.9791
24250SOL     OW81717   9.014   2.723   9.748  0.4673 -0.2552  0.0493
24250SOL    HW181718   9.081   2.757   9.807 -0.7692  0.7260  0.9390
24250SOL    HW281719   8.932   2.737   9.795 -0.3287 -1.9002 -0.7959
24251SOL     OW81720   7.681   6.275   3.847 -0.0377 -0.3640  0.4148
24251SOL    HW181721   7.737   6.202   3.820 -0.9120 -1.4589  1.4343
24251SOL    HW281722   7.631   6.297   3.768  0.6558 -0.4372 -0.0629
24252SOL     OW81723   9.506  11.141   8.350  0.4424  0.0058  0.8894
24252SOL    HW181724   9.577  11.195   8.313  1.2474 -1.8736 -0.4598
24252SOL    HW281725   9.551  11.065   8.386 -0.8957 -1.9273 -1.2417
24253SOL     OW81726   6.028   6.361   9.721  0.3027 -0.9109  0.5527
24253SOL    HW181727   6.110   6.391   9.760  0.8799 -2.3837  0.5482
24253SOL    HW281728   6.040   6.374   9.627  0.3847 -0.7599  0.5845
24254SOL     OW81729   1.652   4.318   1.911 -0.1742  0.1416  0.0411
24254SOL    HW181730   1.666   4.357   1.825  1.4250 -1.9544 -0.7290
24254SOL    HW281731   1.629   4.227   1.893 -5.5618  0.8208  1.7031
24255SOL     OW81732  10.077   4.710   4.253  0.0784 -0.3673 -0.0505
24255SOL    HW181733  10.144   4.774   4.226 -0.8048 -0.2869 -2.3440
24255SOL    HW281734  10.110   4.626   4.221 -1.6676 -0.0736 -3.1119
24256SOL     OW81735   1.633   9.269   3.385 -0.0993  1.1322 -0.1827
24256SOL    HW181736   1.603   9.346   3.337 -2.0102 -0.3563 -1.5384
24256SOL    HW281737   1.567   9.255   3.453 -0.9441 -0.4114 -1.2430
24257SOL     OW81738   3.402   6.664   5.584 -0.5209  0.3623  0.5068
24257SOL    HW181739   3.378   6.718   5.508 -3.9007  0.4301  1.4609
24257SOL    HW281740   3.396   6.574   5.553  1.8633  0.3600 -0.1946
24258SOL     OW81741   9.521  10.319   8.370 -0.7540  0.2107 -0.3148
24258SOL    HW181742   9.541  10.334   8.462 -0.5016  1.5152 -0.5540
24258SOL    HW281743   9.532  10.225   8.358  2.1781  0.3578  0.3199
24259SOL     OW81744   2.480   3.581   1.265 -0.2943  0.2187 -0.0398
24259SOL    HW181745   2.574   3.597   1.262 -0.1472 -0.7669 -1.6883
24259SOL    HW281746   2.443   3.644   1.204 -0.7209  0.6186  0.6236
24260SOL     OW81747   0.453  12.026  11.013  0.3836  0.5357  0.2716
24260SOL    HW181748   0.453  11.930  11.012  0.0332  0.5396 -0.5032
24260SOL    HW281749   0.476  12.049  11.103  1.5989 -0.2679  0.1904
24261SOL     OW81750   0.451  10.220   6.305 -0.3284  0.0083  0.4007
24261SOL    HW181751   0.370  10.169   6.305 -0.8809  0.8598  1.4369
24261SOL    HW281752   0.520  10.155   6.318 -1.0329 -0.4981  1.8216
24262SOL     OW81753   0.315  11.482   4.684 -0.1776  1.1322  0.2768
24262SOL    HW181754   0.223  11.504   4.694 -1.0601 -2.3510  1.1787
24262SOL    HW281755   0.334  11.421   4.755  1.7396 -1.1241 -1.9401
24263SOL     OW81756  10.730  10.562   1.678 -0.6435 -0.0979 -0.3215
24263SOL    HW181757  10.751  10.587   1.588  0.4056  2.7444  0.5935
24263SOL    HW281758  10.809  10.584   1.728 -1.8243  0.0832  1.5685
24264SOL     OW81759   4.242   7.534  10.519  0.0961 -0.2005  0.0461
24264SOL    HW181760   4.203   7.621  10.526  0.2675 -0.0980 -0.2651
24264SOL    HW281761   4.254   7.506  10.610 -0.7460 -0.2572  0.1541
24265SOL     OW81762   9.127   1.579  11.380  0.2857 -0.2424  0.1015
24265SOL    HW181763   9.115   1.618  11.294 -0.2961  0.1429  0.3570
24265SOL    HW281764   9.133   1.653  11.440  0.7110 -0.5076  0.3993
24266SOL     OW81765   5.596   1.896  11.209 -0.0703 -0.8120  0.1641
24266SOL    HW181766   5.510   1.870  11.242 -0.7786  1.6060  0.3995
24266SOL    HW281767   5.578   1.954  11.135  1.3034  0.2957  0.6410
24267SOL     OW81768   4.092  11.862  12.313  0.4369 -0.3193  0.4210
24267SOL    HW181769   4.011  11.815  12.295  0.6639 -0.3542 -0.5459
24267SOL    HW281770   4.157  11.823  12.255  0.9865  0.1843  0.6796
24268SOL     OW81771   1.291   3.935  11.382  0.1111 -0.1023 -0.2295
24268SOL    HW181772   1.376   3.946  11.340 -0.3343  2.2922 -0.6789
24268SOL    HW281773   1.303   3.863  11.443  3.1866  1.6557  1.4759
24269SOL     OW81774   4.163   0.101   3.927 -0.5788  0.1994 -0.2782
24269SOL    HW181775   4.228   0.095   3.997 -0.7236  1.3410 -0.0325
24269SOL    HW281776   4.079   0.085   3.970 -0.4292 -2.2872 -0.7660
24270SOL     OW81777  10.160   0.568   7.661 -0.2722 -0.4270  0.6487
24270SOL    HW181778  10.144   0.509   7.734 -2.5418 -0.5924  0.1118
24270SOL    HW281779  10.125   0.521   7.585  1.3788  0.0344 -0.4439
24271SOL     OW81780   2.504   5.410   4.097  0.4867  0.0801  0.7803
24271SOL    HW181781   2.598   5.426   4.093  0.8345 -1.0287  3.0017
24271SOL    HW281782   2.496   5.315   4.103 -0.7613  0.1824  1.0196
24272SOL     OW81783   0.793  10.239  10.433 -0.4418 -0.2990  0.2446
24272SOL    HW181784   0.824  10.153  10.407  0.6829  0.3407 -0.6017
24272SOL    HW281785   0.755  10.277  10.354  0.2477  0.4818  0.2771
24273SOL     OW81786   3.598   5.109   8.406 -0.5314  0.1303  0.4128
24273SOL    HW181787   3.544   5.118   8.484 -0.0061  2.8340  0.5717
24273SOL    HW281788   3.635   5.022   8.412 -0.9552  0.0618  2.8894
24274SOL     OW81789   5.204  11.043   9.066  0.1327 -0.3101 -0.5005
24274SOL    HW181790   5.241  11.121   9.108  1.3519 -0.8475 -0.5301
24274SOL    HW281791   5.220  10.972   9.128  1.1004 -0.9421 -1.4298
24275SOL     OW81792  10.607   6.792   1.015 -0.4640 -0.5337  0.2126
24275SOL    HW181793  10.573   6.855   1.078  1.8505  2.4389 -1.2470
24275SOL    HW281794  10.696   6.773   1.045  0.6872  0.9311 -1.9481
24276SOL     OW81795   2.639   3.256  10.963  0.2194  0.4566  0.0285
24276SOL    HW181796   2.608   3.177  10.919  1.4010 -0.5082  0.8475
24276SOL    HW281797   2.570   3.278  11.025 -0.2908  0.2901 -0.4726
24277SOL     OW81798  10.392   7.162  11.884  0.0599 -0.0786  0.2947
24277SOL    HW181799  10.421   7.080  11.845  1.5463  0.0765  1.0177
24277SOL    HW281800  10.420   7.157  11.975  0.1445  1.2240  0.3542
24278SOL     OW81801  12.117   0.910   1.946  0.0885 -0.0693 -0.4395
24278SOL    HW181802  12.049   0.844   1.936 -0.2375  0.0531  0.7865
24278SOL    HW281803  12.078   0.990   1.912 -0.4400  0.0274  0.3748
24279SOL     OW81804   6.387   8.616  11.252  0.1833 -0.1152  0.6581
24279SOL    HW181805   6.353   8.702  11.279 -0.6750  0.2587 -1.4196
24279SOL    HW281806   6.469   8.637  11.206  0.0797 -0.4331  0.3301
24280SOL     OW81807   0.940   3.279   8.933  0.2845  0.3442 -0.7361
24280SOL    HW181808   0.876   3.342   8.902 -0.1975  1.4211  2.1957
24280SOL    HW281809   0.966   3.231   8.854 -0.6777  2.9399 -2.7671
24281SOL     OW81810  12.416   2.101   8.928 -0.5574  0.5951 -0.3180
24281SOL    HW181811  12.509   2.080   8.925 -0.7631 -0.5155  0.3859
24281SOL    HW281812  12.412   2.196   8.913  0.5965  0.5114 -1.2978
24282SOL     OW81813  11.887   1.270   4.768 -0.3011  0.2621 -0.4871
24282SOL    HW181814  11.856   1.182   4.748 -1.3279  0.1042  1.6082
24282SOL    HW281815  11.981   1.259   4.784 -0.3863 -0.4070 -0.4263
24283SOL     OW81816   3.649   6.215   9.938 -0.2072  0.0752  0.1744
24283SOL    HW181817   3.688   6.276  10.001  1.7535 -0.6680 -0.2480
24283SOL    HW281818   3.706   6.137   9.942  1.4742  0.8067 -4.1014
24284SOL     OW81819   5.998   5.309   3.627 -0.2629  0.2367  0.0964
24284SOL    HW181820   5.965   5.383   3.678  0.2948 -0.0469  0.9002
24284SOL    HW281821   6.036   5.348   3.549 -1.9686  0.6131 -0.6014
24285SOL     OW81822   5.002   4.890   1.071  0.3311  0.4844 -0.0470
24285SOL    HW181823   4.931   4.858   1.015  0.3978  1.9712 -1.0340
24285SOL    HW281824   5.082   4.863   1.026  0.3828  0.9723 -0.2546
24286SOL     OW81825   0.886   8.835   8.274 -0.0616 -0.2374  0.3247
24286SOL    HW181826   0.950   8.902   8.247 -0.9007  0.4128 -0.1032
24286SOL    HW281827   0.849   8.803   8.192  0.7178 -1.6320  0.5011
24287SOL     OW81828   6.712   0.646   6.184 -0.0062 -0.1887  0.6579
24287SOL    HW181829   6.797   0.602   6.184 -0.0394 -0.2542  0.7846
24287SOL    HW281830   6.733   0.738   6.204  0.4589  0.6823 -3.0365
24288SOL     OW81831  11.956  11.128  11.309  0.6719 -0.2979 -0.4244
24288SOL    HW181832  11.909  11.162  11.386  1.6306  1.7919 -0.6694
24288SOL    HW281833  11.889  11.083  11.258 -0.5285  0.4200  0.4522
24289SOL     OW81834   0.727   2.301   9.976 -0.1212  0.5010 -0.6010
24289SOL    HW181835   0.719   2.272  10.067  0.3942 -0.0248 -0.7116
24289SOL    HW281836   0.742   2.395   9.982 -0.7851  0.5857 -0.1769
24290SOL     OW81837   6.993  12.059   7.497 -0.1831  0.3457  0.0745
24290SOL    HW181838   6.936  12.098   7.563  0.6074  0.6950  0.5708
24290SOL    HW281839   7.069  12.117   7.494  0.4565 -0.4855 -0.0620
24291SOL     OW81840   7.409   9.093   7.840  0.1882  0.0177 -0.0216
24291SOL    HW181841   7.326   9.102   7.887  0.9375  2.9492  0.9334
24291SOL    HW281842   7.385   9.054   7.756 -2.1394  0.7814  0.2273
24292SOL     OW81843   1.292   6.682   5.433  0.3599  0.0892 -0.1460
24292SOL    HW181844   1.349   6.756   5.452 -0.1957 -0.0852  2.6111
24292SOL    HW281845   1.261   6.698   5.344  3.3595  1.0160 -1.1484
24293SOL     OW81846   7.898   3.932   7.332  0.5126  0.6057  0.0942
24293SOL    HW181847   7.972   3.905   7.387  0.2869 -0.4513 -0.1036
24293SOL    HW281848   7.921   4.020   7.303  2.4325 -0.2318 -1.1911
24294SOL     OW81849   6.826   3.183   1.458  0.2519 -0.2582  0.0223
24294SOL    HW181850   6.764   3.137   1.402 -1.1274  0.7079  0.7245
24294SOL    HW281851   6.812   3.146   1.545  0.2411  0.3737  0.2949
24295SOL     OW81852  11.086  10.257   6.240 -0.0455  0.6472 -0.2673
24295SOL    HW181853  11.105  10.278   6.331  2.2592  0.2811 -0.5784
24295SOL    HW281854  11.172  10.262   6.196 -0.4483 -2.4998 -1.7180
24296SOL     OW81855   8.648   5.327   5.859 -0.0129 -0.4850  0.2012
24296SOL    HW181856   8.588   5.370   5.919  1.4099  2.0546 -0.0744
24296SOL    HW281857   8.646   5.235   5.886 -3.2711 -0.3702  0.7568
24297SOL     OW81858  11.200   9.713   7.477 -0.0272 -0.1831  0.5307
24297SOL    HW181859  11.249   9.789   7.507  0.5612 -0.4976  0.3825
24297SOL    HW281860  11.177   9.734   7.387  1.0070 -0.5951  0.1581
24298SOL     OW81861  12.009  11.724   0.901 -0.2091 -0.1867  0.4153
24298SOL    HW181862  12.098  11.697   0.923 -0.2443 -1.6769 -1.0804
24298SOL    HW281863  12.015  11.818   0.887  1.2848 -0.3589 -0.2913
24299SOL     OW81864  11.240   1.390   2.773 -0.0040  0.1443  0.4432
24299SOL    HW181865  11.256   1.470   2.722  1.2004 -0.0212  0.5538
24299SOL    HW281866  11.326   1.352   2.787 -0.4523 -0.5426  1.4476
24300SOL     OW81867   3.534  10.555  11.560  1.2405 -0.1600 -0.4632
24300SOL    HW181868   3.464  10.620  11.562 -1.0739 -2.4970  0.5018
24300SOL    HW281869   3.531  10.515  11.647  2.7540 -1.3997 -0.9415
24301SOL     OW81870   9.947   2.716   0.591  0.5820 -0.5160  0.3183
24301SOL    HW181871   9.890   2.746   0.521  0.1139 -3.1071 -0.5206
24301SOL    HW281872   9.904   2.744   0.671 -0.5637 -0.2824 -0.3586
24302SOL     OW81873   3.329   1.856  11.832 -0.2233  0.0206  0.4655
24302SOL    HW181874   3.395   1.903  11.781 -2.5802  1.8715 -1.1098
24302SOL    HW281875   3.306   1.916  11.902 -1.7538  0.3510 -0.2945
24303SOL     OW81876   5.717   9.779   9.417  0.3499  0.0687  0.2725
24303SOL    HW181877   5.629   9.812   9.437 -0.6430 -2.6648  0.9475
24303SOL    HW281878   5.757   9.763   9.502  0.5680 -0.8960  0.0020
24304SOL     OW81879   8.141   2.257  10.660 -0.1100  0.0399 -0.3448
24304SOL    HW181880   8.150   2.295  10.572 -1.8901  3.5127  0.7740
24304SOL    HW281881   8.225   2.277  10.703  0.5946 -1.2781 -1.0328
24305SOL     OW81882   2.835   4.392   1.869  0.1186  0.4866  0.3142
24305SOL    HW181883   2.761   4.442   1.901  0.1362  0.4205  0.4617
24305SOL    HW281884   2.810   4.365   1.780 -0.4767 -0.4201  0.7377
24306SOL     OW81885  11.615   0.615  12.591  0.2541  0.1525 -0.6129
24306SOL    HW181886  11.653   0.665  12.664  1.0231  0.9055 -1.5035
24306SOL    HW281887  11.689   0.565  12.556  0.4309  1.5004 -2.2599
24307SOL     OW81888   5.733   3.482   8.277  0.0904  0.6464  0.8374
24307SOL    HW181889   5.771   3.398   8.300 -0.3732 -0.4226 -1.9092
24307SOL    HW281890   5.807   3.534   8.244  0.0129  0.4582  0.3617
24308SOL     OW81891   6.549   9.865   8.752 -0.1978 -0.1674 -0.3024
24308SOL    HW181892   6.473   9.847   8.808 -0.3493  0.1542 -0.4000
24308SOL    HW281893   6.527   9.826   8.668  0.2814 -1.1714  0.0221
24309SOL     OW81894  11.052  11.354   8.361 -0.2545  0.5787  0.4037
24309SOL    HW181895  11.133  11.405   8.362 -0.2635  0.8166 -2.2411
24309SOL    HW281896  11.078  11.267   8.390  0.5063  1.1829  1.5741
24310SOL     OW81897   6.424   1.923   6.892 -0.0725 -0.3777 -0.1592
24310SOL    HW181898   6.512   1.960   6.878  0.2867 -1.0296  0.3227
24310SOL    HW281899   6.381   1.987   6.950  1.4433 -1.8577  2.8570
24311SOL     OW81900   7.226   2.853   4.776 -0.0889 -0.2163  0.5119
24311SOL    HW181901   7.215   2.824   4.867 -0.9620 -2.1846 -0.1458
24311SOL    HW281902   7.292   2.794   4.740 -2.2097 -1.8290 -1.0053
24312SOL     OW81903  11.562   7.143   2.417 -0.2632  0.4059 -0.4993
24312SOL    HW181904  11.540   7.052   2.435 -0.7595  0.6253  0.0369
24312SOL    HW281905  11.607   7.173   2.497 -2.6390  1.4437  0.5510
24313SOL     OW81906   7.652   9.632  12.000  0.5223 -0.2532 -0.5361
24313SOL    HW181907   7.636   9.540  11.977 -1.2910 -0.5175  1.4827
24313SOL    HW281908   7.587   9.680  11.949 -0.5085 -0.4144  0.5834
24314SOL     OW81909   7.539   0.416   5.102 -0.3127 -0.1227  0.2766
24314SOL    HW181910   7.608   0.474   5.071 -1.1001  0.5018 -0.3606
24314SOL    HW281911   7.498   0.464   5.174  1.2429 -1.3932  2.0955
24315SOL     OW81912  12.313   6.194   8.297  0.5183 -0.1873  0.4061
24315SOL    HW181913  12.253   6.176   8.370  0.2868 -1.5686 -0.0920
24315SOL    HW281914  12.292   6.127   8.232  0.1080  1.5475 -1.3205
24316SOL     OW81915   1.868   4.457   6.257 -0.1452 -0.2565  0.4027
24316SOL    HW181916   1.807   4.530   6.268 -1.4701 -1.2478 -0.1164
24316SOL    HW281917   1.901   4.468   6.168 -0.6924 -0.5351  0.1603
24317SOL     OW81918   0.326   2.628   6.019  0.1476 -0.1111  0.0486
24317SOL    HW181919   0.395   2.562   6.022  0.4023  0.1751  1.3848
24317SOL    HW281920   0.372   2.711   6.028 -0.3010  0.1462  0.0003
24318SOL     OW81921  10.160  11.241   8.233 -0.0603  0.5484 -0.2164
24318SOL    HW181922  10.107  11.176   8.188 -0.6171  0.9350 -0.1214
24318SOL    HW281923  10.106  11.320   8.235  0.6904  1.0845 -0.5231
24319SOL     OW81924   5.716   3.432   9.765  0.0315 -0.3356  0.2396
24319SOL    HW181925   5.769   3.367   9.718  1.6114 -1.3068  3.1052
24319SOL    HW281926   5.738   3.418   9.857 -1.4854  2.6654  1.1721
24320SOL     OW81927  11.094   7.385   2.304  0.0515  0.1639  0.0477
24320SOL    HW181928  11.138   7.426   2.378 -0.8335 -0.1000  0.7374
24320SOL    HW281929  11.164   7.344   2.254  0.8509  1.7125 -0.1611
24321SOL     OW81930   2.907  12.468  12.208 -0.5491  0.2267 -0.1458
24321SOL    HW181931   2.968  12.520  12.155  0.2126 -0.6649 -0.1798
24321SOL    HW281932   2.918  12.379  12.175 -0.2529 -0.3007  1.3319
24322SOL     OW81933  12.593  11.383   3.704 -0.3183 -0.3163 -0.0429
24322SOL    HW181934  12.575  11.473   3.730  1.9773  0.1220  0.1974
24322SOL    HW281935  12.649  11.348   3.774  2.8187 -0.3362 -2.3320
24323SOL     OW81936   2.876   3.193   0.746 -0.2453  0.3332  0.1657
24323SOL    HW181937   2.938   3.150   0.805 -0.9497  0.4549  1.0130
24323SOL    HW281938   2.924   3.267   0.710  0.1111  0.4113  0.7991
24324SOL     OW81939   0.229  11.817   4.517  0.7855  0.1504 -0.0042
24324SOL    HW181940   0.167  11.756   4.477  0.8152 -0.5811  1.0371
24324SOL    HW281941   0.174  11.892   4.542  0.3502 -0.4002  0.7175
24325SOL     OW81942   0.210   6.546  10.998  0.5697  0.0814 -0.0801
24325SOL    HW181943   0.173   6.460  10.979 -0.2984  0.7858 -1.8796
24325SOL    HW281944   0.287   6.552  10.941  1.6447 -0.1353  1.2997
24326SOL     OW81945   4.316   4.156  10.815 -0.6633 -0.0099  0.5837
24326SOL    HW181946   4.349   4.124  10.732  0.2509  0.7946  0.6163
24326SOL    HW281947   4.266   4.083  10.852 -2.5654  0.1734 -1.4435
24327SOL     OW81948  12.326   5.320   4.646 -0.1405 -0.3028  0.2341
24327SOL    HW181949  12.378   5.343   4.569  1.6826 -0.6540  1.3086
24327SOL    HW281950  12.386   5.330   4.720 -1.5095 -1.0699  1.5145
24328SOL     OW81951   5.338   3.341   3.113 -0.3235  0.1346  0.2638
24328SOL    HW181952   5.368   3.260   3.071 -0.8753 -1.0856  2.0804
24328SOL    HW281953   5.401   3.407   3.085  0.0113 -0.8598 -1.4601
24329SOL     OW81954   1.908   0.977   1.805  0.0034  0.7044 -0.2524
24329SOL    HW181955   1.922   1.069   1.783  1.2932  0.0124 -2.7081
24329SOL    HW281956   1.822   0.957   1.770 -0.4325  1.0252  0.5997
24330SOL     OW81957   3.007   2.557   4.252 -0.1147 -0.5450 -0.1995
24330SOL    HW181958   3.024   2.548   4.346 -1.3372  0.2503  0.1218
24330SOL    HW281959   3.064   2.492   4.211  2.5249  0.9064  0.8741
24331SOL     OW81960   0.456   3.768   7.566  0.2614 -0.0316 -0.3414
24331SOL    HW181961   0.406   3.699   7.609  0.3670 -0.0927 -0.3170
24331SOL    HW281962   0.484   3.730   7.483 -1.4937  0.6828 -1.3101
24332SOL     OW81963   7.963   7.951   1.080  0.2860  0.3097  0.1552
24332SOL    HW181964   7.939   7.938   1.171 -1.6265 -0.3255 -0.3965
24332SOL    HW281965   8.002   8.039   1.078 -2.4926  1.6827  1.1144
24333SOL     OW81966  11.255   3.533  11.968 -0.5039  0.2305  0.1183
24333SOL    HW181967  11.313   3.563  11.898 -0.6439  2.5051  0.9079
24333SOL    HW281968  11.290   3.573  12.048 -3.3142  2.0658  0.5864
24334SOL     OW81969  11.622  10.825   6.472  0.3671  0.0170  0.0831
24334SOL    HW181970  11.688  10.826   6.542  0.4693  1.7005  0.0056
24334SOL    HW281971  11.650  10.755   6.414  1.6336  0.1517  0.4937
24335SOL     OW81972   5.868   2.346  11.148 -0.2400 -0.2549 -0.0861
24335SOL    HW181973   5.788   2.295  11.134  0.0104 -0.6320 -0.1412
24335SOL    HW281974   5.906   2.311  11.229  0.0712 -0.3354 -0.2666
24336SOL     OW81975   8.457   9.563   3.113 -0.0722  0.6856 -0.1369
24336SOL    HW181976   8.465   9.500   3.042  0.8886  1.4472 -0.7150
24336SOL    HW281977   8.443   9.647   3.070 -1.6142  0.8546  0.6335
24337SOL     OW81978   9.216   5.694   9.522 -0.0696 -0.3542 -0.3420
24337SOL    HW181979   9.309   5.700   9.543 -0.2377  0.4845  0.2352
24337SOL    HW281980   9.202   5.764   9.458  0.1120 -1.8585 -2.1143
24338SOL     OW81981   1.497  11.273   0.814  0.4189 -0.3979  0.4060
24338SOL    HW181982   1.495  11.334   0.740  0.2121 -1.6031 -0.6165
24338SOL    HW281983   1.413  11.227   0.809  1.6727 -2.7260 -0.5822
24339SOL     OW81984   0.765   7.540   2.898  0.5359 -0.3010  0.5473
24339SOL    HW181985   0.723   7.612   2.851  0.6087 -0.2413  0.5744
24339SOL    HW281986   0.855   7.538   2.866 -0.6956 -3.8920 -3.7424
24340SOL     OW81987   0.595  10.840  11.887  0.0869 -0.5279  0.0100
24340SOL    HW181988   0.578  10.775  11.956 -0.9185 -1.4488 -1.0620
24340SOL    HW281989   0.508  10.870  11.860  0.4667 -0.0796 -0.7481
24341SOL     OW81990   6.748  10.492   0.403 -0.1821 -0.5217 -0.1760
24341SOL    HW181991   6.705  10.574   0.426  1.0829 -0.1966  1.2017
24341SOL    HW281992   6.841  10.513   0.399  0.2714 -2.0413  1.1129
24342SOL     OW81993   6.714   6.951   0.016 -0.2662  0.2036 -0.3209
24342SOL    HW181994   6.664   6.998  -0.050  0.4682  0.2273 -0.8761
24342SOL    HW281995   6.670   6.970   0.099  0.3115  2.2871 -0.4557
24343SOL     OW81996   7.258   1.274   5.888  0.5808 -0.1180  0.3719
24343SOL    HW181997   7.349   1.304   5.893  1.6411 -3.1090  0.8987
24343SOL    HW281998   7.259   1.206   5.820 -0.7537 -1.6639  1.8047
24344SOL     OW81999   5.437   7.532   8.799 -0.2604  0.2140 -0.1779
24344SOL    HW182000   5.512   7.554   8.853 -0.2434 -1.2870  0.4478
24344SOL    HW282001   5.394   7.460   8.844 -1.5746  0.4460 -0.9861
24345SOL     OW82002  12.508   0.739   1.734  0.0241 -0.9060  0.1679
24345SOL    HW182003  12.462   0.677   1.791 -0.9942  0.6443  1.1025
24345SOL    HW282004  12.467   0.824   1.752  1.1286  0.0023 -1.3294
24346SOL     OW82005  12.481  12.408   9.854  0.0222  0.1694 -0.1896
24346SOL    HW182006  12.517  12.461   9.782 -0.4329  0.5060 -0.1804
24346SOL    HW282007  12.453  12.472   9.919 -1.8430  0.0352 -0.7809
24347SOL     OW82008   5.915   7.805   5.945  0.3517  0.0671  0.3962
24347SOL    HW182009   5.953   7.748   6.012  1.4304 -0.5294 -0.6756
24347SOL    HW282010   5.883   7.882   5.993  1.1733 -0.3024  1.5666
24348SOL     OW82011  12.006   9.401   7.362 -0.0908 -0.6673 -0.0867
24348SOL    HW182012  11.918   9.414   7.397  0.5220  1.2424  0.8908
24348SOL    HW282013  12.044   9.332   7.416 -0.1676  0.2293  1.1406
24349SOL     OW82014   0.054   5.757   2.534  1.1623 -0.1327  0.3524
24349SOL    HW182015   0.057   5.707   2.615 -0.6721  0.2886  0.7097
24349SOL    HW282016   0.078   5.846   2.559  1.8406 -0.2624  0.1871
24350SOL     OW82017   6.057   8.611  11.889 -0.1700 -0.9616 -0.0339
24350SOL    HW182018   6.107   8.530  11.902  0.1724 -0.7164  0.1994
24350SOL    HW282019   5.966   8.583  11.884 -0.0062 -1.4219 -0.5333
24351SOL     OW82020   5.330   6.232   5.359  0.3157  0.3669  0.1352
24351SOL    HW182021   5.304   6.324   5.352  1.4819  0.7691  0.8384
24351SOL    HW282022   5.257   6.184   5.321 -0.3483  1.5785 -0.1811
24352SOL     OW82023  10.688   2.993   9.910 -0.5050 -0.5049 -0.0008
24352SOL    HW182024  10.627   3.058   9.944  0.0026 -0.0294  0.0071
24352SOL    HW282025  10.773   3.036   9.911 -0.0630 -1.3659  0.5403
24353SOL     OW82026  10.118   7.477  11.935  0.2134  0.3507  0.5724
24353SOL    HW182027  10.055   7.513  11.873  0.9795  0.3839 -0.2041
24353SOL    HW282028  10.065   7.438  12.004 -0.6524  0.4470 -0.0304
24354SOL     OW82029   8.439   6.404   7.643  0.0093 -0.2387  0.4615
24354SOL    HW182030   8.508   6.380   7.581 -0.4734 -1.5364  0.3889
24354SOL    HW282031   8.428   6.326   7.698 -0.4980  0.4193  1.3017
24355SOL     OW82032   6.608   0.695   5.858 -0.1991 -0.1352 -0.5217
24355SOL    HW182033   6.698   0.688   5.889 -0.1171 -0.4288 -0.8175
24355SOL    HW282034   6.568   0.761   5.915  0.1453 -0.1493 -0.2606
24356SOL     OW82035  12.010   9.825   7.967 -0.4485 -0.0950  0.2575
24356SOL    HW182036  12.056   9.760   8.021  0.2884  0.8994  0.8839
24356SOL    HW282037  11.981   9.891   8.030 -0.7698  0.4134 -0.4150
24357SOL     OW82038   6.611  10.875   2.426  0.6681 -0.3138 -0.2081
24357SOL    HW182039   6.651  10.798   2.386  0.7304 -1.0125  1.1194
24357SOL    HW282040   6.666  10.892   2.504  0.1078  0.5077  0.0222
24358SOL     OW82041  10.022  11.670   2.104 -0.5762 -0.2698  0.2364
24358SOL    HW182042   9.984  11.691   2.189 -0.7229  0.5627 -0.0266
24358SOL    HW282043   9.954  11.692   2.041  0.4283  1.6294 -0.2663
24359SOL     OW82044  11.963  12.136   2.241  0.6958 -0.4951  0.4419
24359SOL    HW182045  11.883  12.140   2.189  0.6065 -0.4165  0.5846
24359SOL    HW282046  12.027  12.096   2.182  0.7321  0.0548  0.0917
24360SOL     OW82047   3.741   4.929   9.777  0.0352  1.0373 -0.0962
24360SOL    HW182048   3.706   4.947   9.690 -0.7390 -3.1306 -0.8877
24360SOL    HW282049   3.740   4.833   9.783  1.6496  1.0927  3.8921
24361SOL     OW82050   9.643   6.312   7.377  0.1925 -0.0301  0.1692
24361SOL    HW182051   9.684   6.273   7.300  0.9641  1.2418 -0.0887
24361SOL    HW282052   9.713   6.361   7.420  0.0258 -1.4993  2.2500
24362SOL     OW82053   7.516   6.736   4.160  0.5087 -0.5189 -0.5491
24362SOL    HW182054   7.498   6.675   4.088  1.2453 -0.8689 -0.4450
24362SOL    HW282055   7.586   6.694   4.209 -0.2490 -0.4794  0.6090
24363SOL     OW82056   4.720   2.332   1.342  0.2432 -0.0412  0.1158
24363SOL    HW182057   4.730   2.348   1.248 -1.3677 -0.3055 -0.1267
24363SOL    HW282058   4.781   2.260   1.361  0.6989  0.1253 -0.6853
24364SOL     OW82059  12.539  12.173  11.097 -0.2780 -0.1376  0.1200
24364SOL    HW182060  12.598  12.140  11.029 -1.3206  0.2452 -1.0123
24364SOL    HW282061  12.564  12.125  11.176  0.8871 -0.6871 -0.5564
24365SOL     OW82062   1.143  11.286   8.615 -0.4737  0.9673 -0.1257
24365SOL    HW182063   1.088  11.302   8.691 -0.5080  2.2357 -0.4068
24365SOL    HW282064   1.083  11.286   8.541 -0.7271 -1.9982 -0.0708
24366SOL     OW82065   5.988   8.174  12.285  0.6673  0.3152 -0.0796
24366SOL    HW182066   6.013   8.248  12.230 -1.1182 -1.1531 -3.0478
24366SOL    HW282067   5.893   8.166  12.276  0.5414 -1.1992  1.7144
24367SOL     OW82068   1.489   1.939  11.501 -0.2130 -0.2642 -0.3490
24367SOL    HW182069   1.413   1.968  11.451 -0.9920  0.3471  1.1098
24367SOL    HW282070   1.523   1.865  11.452 -1.7393 -0.5469 -1.0545
24368SOL     OW82071   5.895   8.684  10.803  0.0986  0.4144  0.1710
24368SOL    HW182072   5.869   8.775  10.815  1.2455  1.0778 -1.8924
24368SOL    HW282073   5.962   8.669  10.870 -0.8720  0.6967  1.2478
24369SOL     OW82074   4.550  10.987   4.348  0.0585  0.7174  0.4821
24369SOL    HW182075   4.604  10.963   4.423 -1.3497  0.4334  1.4496
24369SOL    HW282076   4.460  10.969   4.377 -0.4576 -0.8136 -1.7651
24370SOL     OW82077  11.613   4.692   6.208 -0.2167  0.0368 -0.9403
24370SOL    HW182078  11.699   4.733   6.199  0.0150  0.1292  1.2037
24370SOL    HW282079  11.590   4.666   6.119  1.9121  0.2281 -1.6167
24371SOL     OW82080  11.278   6.687   1.898 -0.1745  0.4488 -0.7224
24371SOL    HW182081  11.368   6.656   1.909  0.4712  2.3497 -0.2678
24371SOL    HW282082  11.240   6.628   1.834  0.8335 -1.4800  0.3592
24372SOL     OW82083  10.874   3.247  11.445  0.3991  0.0945 -0.2032
24372SOL    HW182084  10.786   3.259  11.407 -0.1254 -1.8844  0.2930
24372SOL    HW282085  10.870   3.295  11.528  1.0009  3.0047 -1.7259
24373SOL     OW82086  11.242   8.068   4.434  0.1499 -0.4650  0.4687
24373SOL    HW182087  11.195   8.000   4.385 -0.3609 -0.2056  0.5848
24373SOL    HW282088  11.320   8.086   4.382 -0.3362 -0.2642 -0.2044
24374SOL     OW82089   9.191   0.662   0.918  0.0503 -0.5050  0.1254
24374SOL    HW182090   9.179   0.694   1.007  2.2814  0.0706  0.2728
24374SOL    HW282091   9.171   0.737   0.862  3.0584  0.5902  0.3800
24375SOL     OW82092   7.575   5.239  10.518  0.3584 -0.5572 -0.0231
24375SOL    HW182093   7.540   5.324  10.544 -0.9345 -1.7857  2.5436
24375SOL    HW282094   7.647   5.223  10.579  1.0180 -1.0381 -0.9064
24376SOL     OW82095   4.784   2.254   8.213 -0.5588 -0.0502  0.0075
24376SOL    HW182096   4.793   2.348   8.225  0.1826 -0.1773  0.4785
24376SOL    HW282097   4.689   2.238   8.221 -0.4844  0.3409  2.4455
24377SOL     OW82098   2.388   4.790  12.260  0.4316  0.1509  0.3156
24377SOL    HW182099   2.343   4.709  12.237  0.0169  0.3695  0.3569
24377SOL    HW282100   2.326   4.838  12.314  0.9402  0.1890  0.8801
24378SOL     OW82101   2.529   3.124   7.400 -0.0830  0.0297  0.5812
24378SOL    HW182102   2.596   3.063   7.368 -0.9343 -0.7335  0.2070
24378SOL    HW282103   2.548   3.206   7.355  0.3134 -0.3075  0.1189
24379SOL     OW82104  10.824   6.935   9.729  0.1464 -0.2397  0.2474
24379SOL    HW182105  10.858   6.850   9.756  0.7496  0.2626  1.1407
24379SOL    HW282106  10.842   6.993   9.804 -0.6312  0.5717 -0.1743
24380SOL     OW82107   0.285   0.402   9.689 -0.7978  0.6411  0.2988
24380SOL    HW182108   0.282   0.330   9.752  1.0354  1.3690  1.2711
24380SOL    HW282109   0.373   0.439   9.698 -1.4331  2.5373 -0.6970
24381SOL     OW82110   1.042   5.448   6.779 -0.0717  0.1611 -0.2030
24381SOL    HW182111   1.027   5.506   6.854  3.2627 -1.1443  1.6908
24381SOL    HW282112   1.026   5.360   6.813 -1.9230 -0.3200 -2.1163
24382SOL     OW82113   7.568  11.096  11.027 -0.3431 -0.2334 -0.4681
24382SOL    HW182114   7.572  11.019  10.971 -1.8951 -0.8349  0.1900
24382SOL    HW282115   7.659  11.121  11.040  0.2769 -2.6367  0.2239
24383SOL     OW82116   0.576   1.335   0.571 -0.0506 -0.6827  0.1359
24383SOL    HW182117   0.544   1.424   0.560 -0.0737 -0.6817  0.2081
24383SOL    HW282118   0.526   1.283   0.508  1.1320 -0.3741 -1.1073
24384SOL     OW82119  10.748   2.332   7.472 -0.0900 -0.4792 -0.1003
24384SOL    HW182120  10.713   2.315   7.384 -0.9674  1.9120 -0.2914
24384SOL    HW282121  10.838   2.361   7.456  0.0040 -0.7770 -0.1266
24385SOL     OW82122   0.135  11.147   5.413 -0.1092  1.0464 -0.1581
24385SOL    HW182123   0.130  11.232   5.458  1.3165  1.8882 -1.4705
24385SOL    HW282124   0.171  11.087   5.478 -1.1411  1.4137  0.7970
24386SOL     OW82125   9.542   2.063  11.186 -0.2869 -0.0597 -0.2892
24386SOL    HW182126   9.595   2.025  11.256  1.8813 -0.2638 -1.8985
24386SOL    HW282127   9.560   2.157  11.192 -1.6626  0.1734  0.5891
24387SOL     OW82128   5.924   9.496   1.953  0.5244 -0.0698  0.3459
24387SOL    HW182129   5.909   9.403   1.967  0.8753 -0.1888 -0.0579
24387SOL    HW282130   5.928   9.506   1.858 -0.9690  0.5917  0.3395
24388SOL     OW82131   7.109   1.442   7.294  0.1900 -0.3321 -0.2765
24388SOL    HW182132   7.192   1.421   7.336 -1.1196 -0.0146  2.7296
24388SOL    HW282133   7.066   1.357   7.283  0.0813 -0.3343  0.1289
24389SOL     OW82134  10.412   1.092   3.681 -0.2726 -0.1992 -0.6008
24389SOL    HW182135  10.414   1.145   3.761  1.8377 -0.3609 -0.4989
24389SOL    HW282136  10.324   1.054   3.680 -0.9883  1.2907  0.6406
24390SOL     OW82137   0.954   9.551   6.274 -0.0111  1.0593 -0.0528
24390SOL    HW182138   0.867   9.551   6.315  0.5131  1.7174  1.0839
24390SOL    HW282139   0.949   9.481   6.209 -0.9146  0.0719  1.0296
24391SOL     OW82140   9.129  12.327   5.529  0.1930  0.6375  0.5042
24391SOL    HW182141   9.084  12.317   5.445  0.3981  1.8492  0.2324
24391SOL    HW282142   9.170  12.242   5.544 -0.2383  0.2528 -0.3909
24392SOL     OW82143   5.950   5.826   4.831  0.4835 -0.0001 -0.0518
24392SOL    HW182144   5.960   5.740   4.791 -0.3038 -0.9620  1.7318
24392SOL    HW282145   6.020   5.831   4.896  0.2538  0.5381  0.1629
24393SOL     OW82146   9.578   6.764   8.777 -0.2102 -0.3016 -0.2366
24393SOL    HW182147   9.532   6.842   8.807  0.8465  0.3128 -0.1930
24393SOL    HW282148   9.636   6.795   8.707  0.7976 -0.9032  0.3110
24394SOL     OW82149   1.748   3.438   2.729  0.3715 -0.5735  0.2554
24394SOL    HW182150   1.656   3.465   2.727  0.4646 -0.3061 -1.0470
24394SOL    HW282151   1.797   3.521   2.726  0.6723 -0.6771  1.6734
24395SOL     OW82152   1.111   5.394   5.844  0.4176 -0.4750 -0.1360
24395SOL    HW182153   1.065   5.321   5.802 -1.4675  0.7988 -0.4038
24395SOL    HW282154   1.182   5.353   5.894  0.0032 -2.3836 -1.0388
24396SOL     OW82155   4.963   6.239   0.564 -0.3537 -0.0915  0.3724
24396SOL    HW182156   4.886   6.188   0.591 -0.6254  0.4178  0.5806
24396SOL    HW282157   5.003   6.188   0.494 -0.5797 -0.6257  0.6287
24397SOL     OW82158   4.584   5.181   5.480 -0.0183 -0.3248  0.5107
24397SOL    HW182159   4.511   5.195   5.419  1.1037  1.3142 -0.5326
24397SOL    HW282160   4.603   5.088   5.473 -1.7569 -0.7160  0.5181
24398SOL     OW82161   1.918   4.029   0.207 -0.5601  0.0419  0.7532
24398SOL    HW182162   1.858   4.005   0.137  1.9796 -0.3660 -1.4416
24398SOL    HW282163   1.919   3.953   0.265 -0.6354 -0.7813 -0.2985
24399SOL     OW82164   0.715   7.483   1.212  0.2302  0.1474 -0.5737
24399SOL    HW182165   0.705   7.507   1.304  0.5782 -0.8640 -0.2547
24399SOL    HW282166   0.701   7.388   1.211 -0.9339  0.3086 -1.7504
24400SOL     OW82167   6.184   7.624  11.990  0.0500 -0.0050 -0.3276
24400SOL    HW182168   6.255   7.561  11.996  0.3783  0.4625  1.5026
24400SOL    HW282169   6.224   7.708  12.016 -1.0398  0.3447  0.3110
24401SOL     OW82170   9.559   0.239   1.270 -0.1584  0.3165  0.3634
24401SOL    HW182171   9.606   0.312   1.309  0.5688  0.1307 -0.1453
24401SOL    HW282172   9.604   0.222   1.187 -0.0057 -1.0004  0.6838
24402SOL     OW82173   4.991   4.813   8.677 -0.2371 -0.0939 -0.2185
24402SOL    HW182174   5.041   4.881   8.722 -0.0218  0.4325 -1.2215
24402SOL    HW282175   5.057   4.758   8.635 -0.4501  0.5917 -1.5300
24403SOL     OW82176   6.744   5.982   4.325  0.0864 -0.1922 -0.1614
24403SOL    HW182177   6.783   5.897   4.304 -0.7147 -0.7595  0.5375
24403SOL    HW282178   6.788   6.009   4.406  2.2994  1.4049 -1.7895
24404SOL     OW82179   1.390   2.308  11.452 -0.3157  0.2093  0.5014
24404SOL    HW182180   1.380   2.385  11.508  1.2995  2.0169 -1.5344
24404SOL    HW282181   1.315   2.311  11.393  0.6441  1.2826 -0.7081
24405SOL     OW82182  11.330   5.291  10.523  0.4599  0.3347 -0.8090
24405SOL    HW182183  11.367   5.378  10.509 -1.6457  1.5665  0.6543
24405SOL    HW282184  11.241   5.297  10.488 -0.8268 -0.1404  2.0872
24406SOL     OW82185   8.057   3.673   4.105 -0.5364  0.3860  0.1335
24406SOL    HW182186   7.980   3.703   4.058 -0.0845  0.1912 -0.7517
24406SOL    HW282187   8.045   3.578   4.114  0.0530  0.2001 -0.8905
24407SOL     OW82188  10.394   6.992   2.167 -0.4419 -0.0132  0.2434
24407SOL    HW182189  10.453   6.988   2.242 -0.2375  3.2459  0.3932
24407SOL    HW282190  10.452   6.998   2.091 -0.5526  1.4171  0.2498
24408SOL     OW82191   1.536   7.628   6.489  0.2027  0.0860 -0.1002
24408SOL    HW182192   1.586   7.549   6.469 -2.2970 -2.1771  1.7676
24408SOL    HW282193   1.471   7.633   6.420 -0.1422  0.0200  0.2170
24409SOL     OW82194   8.602   3.307  11.965  0.1525 -0.2340 -0.2672
24409SOL    HW182195   8.551   3.234  11.930  0.7017  0.0458 -1.7240
24409SOL    HW282196   8.567   3.384  11.920  0.9052  0.1392 -0.2253
24410SOL     OW82197  10.801  12.151  10.867  0.6937 -0.2002 -0.3174
24410SOL    HW182198  10.779  12.237  10.903 -0.2823 -0.0940 -1.1143
24410SOL    HW282199  10.838  12.103  10.940 -0.1613  0.3888  0.5281
24411SOL     OW82200   4.688   0.651   7.619  0.0209  0.0038  0.1917
24411SOL    HW182201   4.726   0.603   7.545 -0.2840  1.3890 -0.9167
24411SOL    HW282202   4.594   0.655   7.598 -0.1084  0.1670  0.8010
24412SOL     OW82203   1.432   2.211   9.203  0.4291 -0.5366  0.1900
24412SOL    HW182204   1.358   2.227   9.263  1.4854  1.3990  1.0592
24412SOL    HW282205   1.461   2.298   9.177  1.1808 -1.3086 -1.7383
24413SOL     OW82206   1.359   3.697  10.677 -0.2807 -0.0475  0.5373
24413SOL    HW182207   1.348   3.792  10.673  1.2740  0.1445  0.1088
24413SOL    HW282208   1.411   3.683  10.756 -0.9346 -0.6012  0.8767
24414SOL     OW82209   2.612   3.490   0.543  0.3003 -0.1020 -0.2289
24414SOL    HW182210   2.548   3.557   0.567 -1.5285 -1.8037 -0.0800
24414SOL    HW282211   2.606   3.484   0.448  3.5287  2.7419 -0.8292
24415SOL     OW82212  10.809   3.085   3.940 -0.3055 -0.4330  0.4875
24415SOL    HW182213  10.815   3.134   3.858  1.0888 -1.3884 -0.0089
24415SOL    HW282214  10.724   3.041   3.935 -0.7409  0.4160  0.0928
24416SOL     OW82215   6.308  12.066   2.835 -0.2703  0.8149 -0.3128
24416SOL    HW182216   6.395  12.105   2.833 -0.1877  0.7741  1.3072
24416SOL    HW282217   6.312  11.997   2.769  0.6718  1.2886 -0.7844
24417SOL     OW82218   5.602   5.333   0.398 -0.0790 -0.2932 -0.0133
24417SOL    HW182219   5.600   5.426   0.420  0.3386 -0.4627  0.7785
24417SOL    HW282220   5.695   5.312   0.388 -0.2135 -0.4093 -1.1943
24418SOL     OW82221   6.007   9.656   3.386  0.4758 -0.1189 -0.0024
24418SOL    HW182222   6.009   9.572   3.341 -0.9569 -0.8119  1.1422
24418SOL    HW282223   5.920   9.691   3.369  1.3444  1.5805 -1.1828
24419SOL     OW82224   8.570   7.774   6.599 -0.2217 -0.1268  0.3883
24419SOL    HW182225   8.611   7.688   6.598 -1.9253 -0.9815 -0.3909
24419SOL    HW282226   8.554   7.791   6.692  2.4187  0.5732  0.8050
24420SOL     OW82227  10.231   5.847   7.960 -0.1173  0.6222 -0.8519
24420SOL    HW182228  10.139   5.821   7.971 -0.6835  2.1424 -1.5790
24420SOL    HW282229  10.271   5.775   7.911  0.0302 -1.7275  2.4250
24421SOL     OW82230   1.517   1.236   4.094  0.0488  0.6617 -0.1973
24421SOL    HW182231   1.601   1.210   4.131  0.1134  0.6695 -0.3355
24421SOL    HW282232   1.516   1.331   4.103  1.3411  1.0184 -2.7858
24422SOL     OW82233   2.768  10.536   3.400  0.0396  0.5184  0.1372
24422SOL    HW182234   2.762  10.510   3.492 -2.2967  1.4386  0.3301
24422SOL    HW282235   2.683  10.576   3.382 -0.5154 -1.8065 -3.1148
24423SOL     OW82236  11.086   7.788   3.571 -0.1210  0.2292  0.0918
24423SOL    HW182237  11.114   7.752   3.487 -0.0614 -1.4153  0.7676
24423SOL    HW282238  10.995   7.812   3.558 -0.1039  0.0150 -0.4464
24424SOL     OW82239   1.980   3.901   9.460  0.1774  0.5429  0.2261
24424SOL    HW182240   1.892   3.867   9.450  0.1948 -0.2993  2.5463
24424SOL    HW282241   1.973   3.969   9.527  1.1199  1.2014 -0.3107
24425SOL     OW82242   1.318   4.132   6.930 -0.1169 -0.3305 -0.3813
24425SOL    HW182243   1.368   4.051   6.920  1.9721  0.8956 -0.3673
24425SOL    HW282244   1.370   4.198   6.886 -0.6101  1.4391  1.5529
24426SOL     OW82245   5.256   5.372  11.648  0.3510 -0.6799  0.0117
24426SOL    HW182246   5.208   5.290  11.634  1.3426 -1.2097 -0.3900
24426SOL    HW282247   5.188   5.439  11.648 -0.7246 -1.6592  2.3564
24427SOL     OW82248   2.971   0.830   8.097 -0.1865 -0.7669  0.1105
24427SOL    HW182249   2.900   0.886   8.127 -0.1188 -0.6632  0.0742
24427SOL    HW282250   2.931   0.771   8.034 -0.1414 -0.4026 -0.2624
24428SOL     OW82251   0.421   9.490  11.875 -0.1573 -0.3312 -0.0131
24428SOL    HW182252   0.486   9.475  11.806  2.3594  2.5296  1.4936
24428SOL    HW282253   0.450   9.437  11.949 -2.4817 -2.8762 -0.7391
24429SOL     OW82254   6.280   4.529   0.197 -0.2764  0.6188  0.1504
24429SOL    HW182255   6.338   4.599   0.226 -2.2513  1.4998  2.1992
24429SOL    HW282256   6.340   4.461   0.165  1.7462  3.7722 -3.7421
24430SOL     OW82257   3.378  11.652   6.641 -0.0622  0.0467 -0.4915
24430SOL    HW182258   3.405  11.737   6.608 -1.8446  0.4587 -0.9901
24430SOL    HW282259   3.437  11.634   6.713  0.6701  1.4696 -0.7057
24431SOL     OW82260   0.431  11.185   3.308  0.1956 -0.2406  0.5983
24431SOL    HW182261   0.393  11.270   3.331  1.1067  0.0370  1.1400
24431SOL    HW282262   0.369  11.146   3.247 -0.5484  0.5430  0.8437
24432SOL     OW82263   1.411   1.424   3.095 -0.2680 -0.2274  0.5468
24432SOL    HW182264   1.412   1.513   3.130  1.1245  0.2436 -0.6176
24432SOL    HW282265   1.342   1.426   3.028 -1.5720 -0.5915  1.8289
24433SOL     OW82266  10.126  10.813   9.367 -0.6671  0.5422  0.2553
24433SOL    HW182267  10.060  10.872   9.332  0.2245  1.2820 -0.2161
24433SOL    HW282268  10.206  10.835   9.320 -0.5594 -1.9048 -0.8828
24434SOL     OW82269   6.029   6.251  12.482 -0.4298 -1.0367 -0.3503
24434SOL    HW182270   6.115   6.265  12.522 -1.4001  0.5769  1.3536
24434SOL    HW282271   6.046   6.195  12.406  2.0947 -0.8149 -0.0261
24435SOL     OW82272   3.645   0.603   7.102  0.5723  0.1890 -0.3557
24435SOL    HW182273   3.605   0.630   7.019 -0.4409  2.1748  0.7120
24435SOL    HW282274   3.737   0.628   7.094  0.4907  0.3258 -0.9041
24436SOL     OW82275   3.765   0.684   9.766 -0.2430  0.2227  0.6530
24436SOL    HW182276   3.686   0.739   9.768  0.1552  0.7842  1.1004
24436SOL    HW282277   3.731   0.595   9.756 -0.9146  0.5027  0.3574
24437SOL     OW82278  10.001   4.121  10.576  0.5008  0.1932  0.4281
24437SOL    HW182279  10.025   4.097  10.666  0.3852 -0.5607  0.2653
24437SOL    HW282280  10.036   4.209  10.565 -0.5158  0.7799  1.6155
24438SOL     OW82281   5.435  10.385   8.373 -0.2419  0.5503  0.1481
24438SOL    HW182282   5.444  10.465   8.425 -0.8299  2.0570 -1.9213
24438SOL    HW282283   5.368  10.407   8.308 -0.2827 -1.5863 -0.6025
24439SOL     OW82284   8.447  11.105  11.852  0.2644 -0.0613  0.7823
24439SOL    HW182285   8.521  11.091  11.912  0.3582 -3.2769  0.0925
24439SOL    HW282286   8.461  11.042  11.781 -1.5009  1.4597 -1.0386
24440SOL     OW82287   2.515   1.293   2.785 -0.4113  0.4108 -0.4203
24440SOL    HW182288   2.481   1.234   2.853  2.8406 -1.3139 -0.1162
24440SOL    HW282289   2.438   1.315   2.733 -2.1488 -2.5578  0.6257
24441SOL     OW82290   4.091   0.175   0.530 -0.4990  0.1421 -0.2590
24441SOL    HW182291   4.064   0.095   0.574 -2.5378  0.6024 -0.5914
24441SOL    HW282292   4.049   0.172   0.444  1.0319  0.6487 -1.0758
24442SOL     OW82293  11.171   4.502   5.628  0.2512  0.1616  0.2198
24442SOL    HW182294  11.178   4.515   5.533  0.5750  2.0815  0.4662
24442SOL    HW282295  11.090   4.451   5.639 -0.8779  1.6072 -0.9855
24443SOL     OW82296   7.602   7.787   2.733 -0.1628  0.6360  0.3817
24443SOL    HW182297   7.573   7.696   2.741 -0.2713  0.6362 -0.0211
24443SOL    HW282298   7.528   7.838   2.766 -0.9744  0.6744 -1.4212
24444SOL     OW82299   0.651  10.006   5.990  0.1685  0.2731  0.2410
24444SOL    HW182300   0.689   9.961   5.915  1.4749  0.5662  0.6868
24444SOL    HW282301   0.630   9.936   6.052 -1.1291  0.0119 -0.4649
24445SOL     OW82302   8.984   3.932   2.642  0.0368  0.2595 -0.3282
24445SOL    HW182303   8.906   3.949   2.588  0.2816  0.9517 -0.4712
24445SOL    HW282304   8.949   3.900   2.725 -0.4963  2.0851  0.1917
24446SOL     OW82305   4.651   1.816   1.461 -0.2014 -0.1464 -0.3837
24446SOL    HW182306   4.604   1.734   1.445  0.5179 -0.1966 -2.5344
24446SOL    HW282307   4.717   1.794   1.526 -0.5856 -1.0412 -0.2834
24447SOL     OW82308   7.854   6.311  12.552  0.4310 -0.0028 -0.1169
24447SOL    HW182309   7.760   6.296  12.549  0.5190 -0.5181 -0.6939
24447SOL    HW282310   7.891   6.225  12.571  0.8320 -0.0520 -1.0433
24448SOL     OW82311  11.501   0.004   5.790  0.0662 -0.4243  0.3725
24448SOL    HW182312  11.588  -0.034   5.801  1.7190  1.3100 -4.1875
24448SOL    HW282313  11.514   0.098   5.803 -1.8441 -0.3408  2.2470
24449SOL     OW82314  10.277   1.350   5.827 -0.2008  0.2163 -0.4730
24449SOL    HW182315  10.270   1.365   5.921 -2.1377  2.2939 -0.8518
24449SOL    HW282316  10.322   1.428   5.794  1.9101 -1.2173 -1.1492
24450SOL     OW82317   5.819  10.647  11.358  0.0025  0.0506 -0.1208
24450SOL    HW182318   5.733  10.606  11.350 -1.1951  1.8622  2.1729
24450SOL    HW282319   5.819  10.715  11.291 -0.6779  0.5170  0.3370
24451SOL     OW82320   6.088   9.438   2.684  0.3496  0.1347  0.6728
24451SOL    HW182321   6.050   9.494   2.617 -0.2607 -0.7290  0.2781
24451SOL    HW282322   6.096   9.495   2.761 -0.0378  0.8216  0.2188
24452SOL     OW82323   2.870  10.119  10.562  0.4753 -0.1210 -0.1152
24452SOL    HW182324   2.860  10.059  10.488 -0.0240  1.0659 -1.0523
24452SOL    HW282325   2.792  10.174  10.559  0.9194  0.5809  0.7004
24453SOL     OW82326   1.195  10.719   4.630  0.6164  0.4814  0.5285
24453SOL    HW182327   1.249  10.640   4.632  0.1463 -0.0067 -2.1909
24453SOL    HW282328   1.106  10.687   4.641  0.5364  0.8566  1.0504
24454SOL     OW82329   6.648   6.176   3.764 -0.4301 -0.0506  0.0161
24454SOL    HW182330   6.633   6.082   3.752 -0.4593  0.0642 -0.8809
24454SOL    HW282331   6.693   6.204   3.685 -1.0922  0.8343 -0.0631
24455SOL     OW82332   6.639   5.780  12.142 -0.3826 -0.5832  0.7199
24455SOL    HW182333   6.717   5.733  12.171 -0.8139 -0.8677  1.4494
24455SOL    HW282334   6.672   5.846  12.081  0.4344 -0.6596  1.0684
24456SOL     OW82335   7.366   1.764  12.557  0.0053 -1.3211  0.2626
24456SOL    HW182336   7.322   1.684  12.585  0.8664 -0.9056  3.1821
24456SOL    HW282337   7.303   1.808  12.501 -0.8334 -3.5821 -0.6902
24457SOL     OW82338  11.488   8.879   8.620 -0.2338  0.0994 -0.6775
24457SOL    HW182339  11.477   8.970   8.649 -1.0353 -0.4488  0.8897
24457SOL    HW282340  11.439   8.873   8.538 -1.3947  0.7388 -0.0518
24458SOL     OW82341   8.485  12.508   8.283  0.0925  0.1163 -0.0027
24458SOL    HW182342   8.502  12.561   8.205  0.4008 -0.2986 -0.2262
24458SOL    HW282343   8.497  12.568   8.357 -1.4112  0.8332 -0.3027
24459SOL     OW82344   3.018   6.462   1.951 -0.7618 -0.5091 -0.0758
24459SOL    HW182345   2.952   6.520   1.988  0.1347 -0.5772  1.7386
24459SOL    HW282346   3.084   6.520   1.914  0.0531 -0.3081  1.5929
24460SOL     OW82347  11.940   5.367   6.698 -0.7335  0.6569 -0.2490
24460SOL    HW182348  11.857   5.406   6.727 -0.4310  0.1667  1.3495
24460SOL    HW282349  11.974   5.323   6.775  0.4229 -0.2155 -1.2240
24461SOL     OW82350   4.662   7.224   5.607  0.4508  0.0449  0.2874
24461SOL    HW182351   4.717   7.177   5.670  1.8265 -0.0512 -0.9277
24461SOL    HW282352   4.724   7.278   5.558 -0.9057  2.0331  0.6504
24462SOL     OW82353   4.264   2.569   6.558 -0.2680  0.1713 -0.4059
24462SOL    HW182354   4.209   2.647   6.552  0.6371  0.9128  0.4193
24462SOL    HW282355   4.226   2.517   6.629 -1.6475 -0.8184 -1.8166
24463SOL     OW82356   6.021   7.877   2.646  0.0717  0.5246 -0.4163
24463SOL    HW182357   6.072   7.848   2.570  1.3984  0.5583  0.4248
24463SOL    HW282358   6.075   7.853   2.722 -1.3831  0.1683  0.5448
24464SOL     OW82359   8.058   9.839   6.159  0.5830 -0.1679 -0.3146
24464SOL    HW182360   8.049   9.930   6.188  0.0407 -0.4724  0.5189
24464SOL    HW282361   8.140   9.837   6.110  2.5590 -0.0055  2.7204
24465SOL     OW82362   1.560   1.853   9.703 -0.2096  0.1566 -0.0443
24465SOL    HW182363   1.471   1.832   9.729 -0.4339  3.0538  2.0756
24465SOL    HW282364   1.573   1.806   9.621 -3.0083 -1.7814  0.4706
24466SOL     OW82365   1.982  10.586   2.808 -0.6673  0.2779  0.4707
24466SOL    HW182366   1.986  10.498   2.844  0.6432  0.5474  1.0753
24466SOL    HW282367   2.070  10.621   2.822 -0.8623  1.3136 -0.7069
24467SOL     OW82368  10.372   2.388  10.088 -0.5807 -0.1846  0.4054
24467SOL    HW182369  10.409   2.363  10.173  1.3208 -1.7178 -0.7780
24467SOL    HW282370  10.287   2.343  10.085 -0.9749  0.4254  1.7366
24468SOL     OW82371   0.740   1.396   9.970  0.4947 -0.0333 -0.0194
24468SOL    HW182372   0.708   1.479   9.932 -1.4279 -1.4913 -1.8521
24468SOL    HW282373   0.784   1.353   9.897  1.1344 -0.8096  0.8156
24469SOL     OW82374   9.008   2.165   5.962  0.4122  0.1643 -0.1368
24469SOL    HW182375   9.062   2.159   6.040  0.6068  0.3866 -0.2537
24469SOL    HW282376   9.069   2.186   5.891  0.3197 -0.6042 -0.4515
24470SOL     OW82377  10.749   1.888   5.571  0.3875 -0.2199  0.2983
24470SOL    HW182378  10.756   1.844   5.656 -0.1940 -2.3522 -0.6867
24470SOL    HW282379  10.772   1.820   5.507 -1.4973  0.5981 -1.3569
24471SOL     OW82380  12.356   5.959   0.469 -0.0381  0.0623  0.2367
24471SOL    HW182381  12.364   6.041   0.517  1.3705  0.6955 -1.0073
24471SOL    HW282382  12.266   5.958   0.436  0.2719  1.7063 -0.7480
24472SOL     OW82383   8.209   4.265   4.269  0.3832  0.4161  0.3309
24472SOL    HW182384   8.206   4.323   4.346 -0.0651 -0.9693  1.4070
24472SOL    HW282385   8.302   4.259   4.247  0.2947  3.7291 -1.6022
24473SOL     OW82386   7.299   8.109   5.045  0.2933 -0.5986  0.0488
24473SOL    HW182387   7.252   8.160   5.110  0.6100  0.1719 -0.3015
24473SOL    HW282388   7.361   8.171   5.006  0.5790 -1.2111 -0.5082
24474SOL     OW82389   0.774   1.872   2.671  0.1757  0.5055  0.6861
24474SOL    HW182390   0.686   1.864   2.707  1.2467 -0.5504  3.3617
24474SOL    HW282391   0.828   1.899   2.746  1.8320  3.4696 -1.3493
24475SOL     OW82392   6.533  11.006   1.748 -0.0922  0.4727 -0.0898
24475SOL    HW182393   6.594  11.052   1.806  2.4386 -0.1909 -2.0863
24475SOL    HW282394   6.512  11.070   1.680  0.6763 -0.1816 -0.9615
24476SOL     OW82395  10.722   7.258   8.422 -0.8656 -0.2647 -0.9541
24476SOL    HW182396  10.783   7.184   8.423  0.5807  0.8767 -0.3234
24476SOL    HW282397  10.665   7.241   8.348 -0.2353 -1.7533 -1.1347
24477SOL     OW82398   8.854   7.611   9.812 -0.1195  0.1734 -0.3452
24477SOL    HW182399   8.947   7.600   9.829 -0.2041 -0.1985 -0.1206
24477SOL    HW282400   8.835   7.701   9.840 -0.4262 -0.6522  2.3673
24478SOL     OW82401   2.685  11.312   1.401 -0.1752 -0.0779 -0.3067
24478SOL    HW182402   2.624  11.244   1.430  1.2053 -0.8314  0.9219
24478SOL    HW282403   2.770  11.285   1.435  0.5066  2.0126 -0.2053
24479SOL     OW82404   0.953   6.331   6.207  0.4204 -0.2712  0.2123
24479SOL    HW182405   0.891   6.400   6.229  0.7229 -0.0120  0.2659
24479SOL    HW282406   1.022   6.376   6.157 -0.4107 -0.8938 -1.5753
24480SOL     OW82407   3.214   0.680  10.814 -0.0353  0.0583  0.1603
24480SOL    HW182408   3.219   0.755  10.873 -0.4394  0.4383 -0.2830
24480SOL    HW282409   3.227   0.604  10.871  3.2639  0.5547  0.2220
24481SOL     OW82410  10.159   5.788   0.950  0.2708  0.4985 -0.4208
24481SOL    HW182411  10.230   5.836   0.993 -1.7313  1.8203  1.6879
24481SOL    HW282412  10.151   5.829   0.864  2.0138  0.3325 -0.6925
24482SOL     OW82413   8.159   2.620   5.574 -0.3577 -0.1140 -0.2987
24482SOL    HW182414   8.172   2.708   5.538 -0.5711  0.6582  1.4101
24482SOL    HW282415   8.200   2.562   5.510  0.7503  1.3103 -0.9447
24483SOL     OW82416   8.101   1.039   6.006  0.1134  0.3930  0.5068
24483SOL    HW182417   8.135   1.107   5.949  0.9028  0.7357  1.3546
24483SOL    HW282418   8.164   0.966   5.997 -0.5877 -0.1406 -0.2042
24484SOL     OW82419  10.185  12.398   6.140 -0.0646  0.2451  0.1289
24484SOL    HW182420  10.192  12.419   6.047  1.2075  0.4059  0.2514
24484SOL    HW282421  10.213  12.307   6.147  5.5793  1.6462  0.9753
24485SOL     OW82422   5.451   2.483   3.626 -0.0267  0.0356  0.3485
24485SOL    HW182423   5.385   2.417   3.648 -0.5400  0.0606 -0.9985
24485SOL    HW282424   5.533   2.433   3.617 -0.0647 -0.1514  0.9693
24486SOL     OW82425   0.167   5.205   3.179  0.4490  0.1091 -0.1608
24486SOL    HW182426   0.076   5.227   3.157  0.9106  0.9679 -1.3777
24486SOL    HW282427   0.167   5.111   3.191 -0.7963  0.2132  0.8851
24487SOL     OW82428   0.302   7.568   6.293 -0.0944  0.0958  0.0834
24487SOL    HW182429   0.282   7.648   6.244 -1.0756  0.3532  0.8564
24487SOL    HW282430   0.219   7.521   6.297  0.6476 -1.3945 -1.0723
24488SOL     OW82431   8.401   3.197   5.890  0.3773 -0.3514 -0.8158
24488SOL    HW182432   8.386   3.285   5.924 -0.1803 -0.7199 -0.0735
24488SOL    HW282433   8.341   3.141   5.940 -2.2215 -0.6551 -3.9243
24489SOL     OW82434  10.193   1.717   9.073  0.3493  0.4222 -0.3720
24489SOL    HW182435  10.234   1.693   8.989  0.3415  1.4171 -0.6790
24489SOL    HW282436  10.264   1.712   9.136  0.7545  1.2602 -0.7429
24490SOL     OW82437   9.486   7.777   1.801  0.1640 -0.0314 -0.2345
24490SOL    HW182438   9.568   7.727   1.801  0.7894  0.9540 -0.3794
24490SOL    HW282439   9.430   7.731   1.738  0.5284 -0.8324  0.0142
24491SOL     OW82440   3.983   2.162   7.714 -0.5070 -0.3417 -0.0465
24491SOL    HW182441   3.933   2.224   7.661  2.9412  3.9474  1.1647
24491SOL    HW282442   3.952   2.176   7.803  0.7317  0.1742  0.3182
24492SOL     OW82443   6.438   5.499   8.020  0.4383 -0.1312 -0.1798
24492SOL    HW182444   6.458   5.537   7.934 -1.3369  1.2680 -0.0395
24492SOL    HW282445   6.352   5.534   8.042  0.7544 -0.6295  2.0987
24493SOL     OW82446  10.815  11.910   5.849  0.0690  0.3961  0.1846
24493SOL    HW182447  10.866  11.888   5.771 -1.1143  0.0980 -0.5309
24493SOL    HW282448  10.725  11.886   5.826 -0.5021  1.5298  1.1667
24494SOL     OW82449   6.027  11.312  12.124  1.0438 -0.1985 -0.2686
24494SOL    HW182450   5.994  11.388  12.171 -0.2811 -0.9412  0.0514
24494SOL    HW282451   6.000  11.237  12.177  0.5250 -0.9935 -1.6067
24495SOL     OW82452   9.979  12.448   1.085  0.4239 -0.3195  0.3144
24495SOL    HW182453   9.935  12.523   1.124  2.8103  1.7221 -0.6601
24495SOL    HW282454   9.963  12.376   1.146 -2.8170  0.6324  0.7625
24496SOL     OW82455  10.454   0.319   2.334  0.1029  0.1920  0.0070
24496SOL    HW182456  10.400   0.397   2.350  0.4061  0.4393 -0.1512
24496SOL    HW282457  10.499   0.338   2.252  0.9126  0.2694  0.4573
24497SOL     OW82458  11.041   5.962   7.829 -0.0491  0.2594 -0.5741
24497SOL    HW182459  11.002   5.960   7.916 -0.7286  2.0406 -0.7865
24497SOL    HW282460  10.982   5.911   7.774  0.1903 -0.5641 -0.0882
24498SOL     OW82461   3.904   6.637   5.858 -0.0486  0.0489  0.0628
24498SOL    HW182462   3.912   6.564   5.796 -0.6189 -0.9283  1.0987
24498SOL    HW282463   3.895   6.714   5.803 -0.1195 -0.7409 -1.0708
24499SOL     OW82464  11.280   5.159   2.478 -0.3413 -0.0835 -0.2475
24499SOL    HW182465  11.227   5.086   2.447  0.0312  0.4905 -2.4174
24499SOL    HW282466  11.345   5.119   2.535 -1.5512 -1.1124  0.4659
24500SOL     OW82467   5.092   9.033   1.615  0.5025  0.4793  0.0215
24500SOL    HW182468   5.134   8.951   1.640  0.6169  0.4017 -0.4144
24500SOL    HW282469   5.039   9.057   1.691 -0.5604 -0.6715 -0.3200
24501SOL     OW82470   8.285   2.281   6.353  0.5845  0.3607 -0.1418
24501SOL    HW182471   8.202   2.262   6.396  0.4560  0.1344 -0.4886
24501SOL    HW282472   8.339   2.203   6.368  1.1715  0.9701  1.1104
24502SOL     OW82473  11.502   7.063   9.140 -0.2894 -0.2296  0.5648
24502SOL    HW182474  11.487   7.038   9.049 -1.5318 -0.3794  0.7889
24502SOL    HW282475  11.589   7.103   9.140 -0.9678  1.3931 -1.0330
24503SOL     OW82476   3.218   7.474   2.467 -0.2186  0.0700 -0.0671
24503SOL    HW182477   3.127   7.499   2.452  0.2365  2.0372  0.0911
24503SOL    HW282478   3.260   7.555   2.497  1.1962 -1.2308  1.6600
24504SOL     OW82479   5.287   0.815  12.248  0.5435 -0.5439 -0.3740
24504SOL    HW182480   5.220   0.860  12.298  2.4726  0.9614  0.9833
24504SOL    HW282481   5.271   0.842  12.157 -0.2523  0.3558  0.0157
24505SOL     OW82482   8.547   1.099   5.947 -0.3514 -0.1361  0.1308
24505SOL    HW182483   8.489   1.029   5.977  2.1312 -2.5852 -0.3555
24505SOL    HW282484   8.555   1.085   5.853 -1.6070  2.3534 -0.4368
24506SOL     OW82485  10.717   1.114   1.551  0.2925 -0.1993  0.1971
24506SOL    HW182486  10.788   1.094   1.613  2.0381  0.9885 -1.3155
24506SOL    HW282487  10.739   1.064   1.472 -0.0399  0.8946 -0.6077
24507SOL     OW82488   2.303   8.229   1.077  0.2067  0.3224  0.8268
24507SOL    HW182489   2.337   8.279   1.002  1.5948 -1.0074  0.5071
24507SOL    HW282490   2.373   8.234   1.142 -0.2185 -0.0399  1.3132
24508SOL     OW82491   6.786   1.878   8.709  0.2072 -0.0447  0.0772
24508SOL    HW182492   6.866   1.896   8.661  0.7320 -1.5001  0.3584
24508SOL    HW282493   6.717   1.925   8.661  1.4893  3.1851  1.1238
24509SOL     OW82494  12.200   4.145   7.193  0.3978 -0.6894  0.3167
24509SOL    HW182495  12.193   4.050   7.206 -0.4378 -0.4855  1.4771
24509SOL    HW282496  12.282   4.169   7.236  0.2529 -0.7853  0.6497
24510SOL     OW82497   0.498   6.890   6.494 -0.2514 -0.0860  0.3183
24510SOL    HW182498   0.510   6.964   6.436 -0.2604  0.0780  0.5237
24510SOL    HW282499   0.453   6.824   6.441 -0.6387  0.2187  0.2638
24511SOL     OW82500  10.715  11.244  10.347 -0.0732 -0.0273 -0.5195
24511SOL    HW182501  10.666  11.203  10.418  1.3464 -1.1641 -0.1340
24511SOL    HW282502  10.701  11.338  10.359 -4.7054 -0.2332 -2.3565
24512SOL     OW82503  11.231   2.621   0.490  0.1150  0.0586  0.1643
24512SOL    HW182504  11.213   2.527   0.498  0.8503 -0.0698  0.3711
24512SOL    HW282505  11.187   2.660   0.565  0.7679 -0.2652  0.7337
24513SOL     OW82506   7.646   9.636  11.144  0.1691  0.1163  0.1268
24513SOL    HW182507   7.653   9.706  11.079  1.4023 -0.9523 -0.9480
24513SOL    HW282508   7.563   9.653  11.188  0.7098  2.5788  0.3237
24514SOL     OW82509   9.347   1.516   8.721 -0.2621 -0.2932 -0.1379
24514SOL    HW182510   9.310   1.484   8.638 -0.5369 -2.4794  0.7575
24514SOL    HW282511   9.427   1.464   8.733 -0.9995 -1.0838  1.6532
24515SOL     OW82512  10.130   7.873   7.222 -0.1184 -0.3437 -0.2442
24515SOL    HW182513  10.199   7.939   7.225 -2.9568  2.8941 -0.5693
24515SOL    HW282514  10.093   7.879   7.134 -1.7487 -0.9369  0.3512
24516SOL     OW82515   4.671   9.019   3.917 -0.1630 -0.1848 -0.1876
24516SOL    HW182516   4.608   9.090   3.927 -0.6613 -0.7317  0.7597
24516SOL    HW282517   4.685   9.011   3.823  0.1816  1.3979 -0.2821
24517SOL     OW82518  10.448   7.560   7.495  0.0556 -0.2188 -0.0483
24517SOL    HW182519  10.514   7.629   7.489 -0.0179 -0.0968  0.4685
24517SOL    HW282520  10.402   7.563   7.411 -0.7346  1.1789  0.3962
24518SOL     OW82521   4.710  11.185   2.293  0.1244 -0.2192  0.4630
24518SOL    HW182522   4.655  11.137   2.231 -0.8532  0.8769  0.4329
24518SOL    HW282523   4.788  11.208   2.244 -0.2308 -0.1663 -0.0907
24519SOL     OW82524   7.143  12.137   6.547 -0.7093  0.3306 -0.6051
24519SOL    HW182525   7.061  12.117   6.593 -0.9178  0.6507 -0.8294
24519SOL    HW282526   7.143  12.233   6.540  0.0451  0.3911  0.0554
24520SOL     OW82527   2.316   9.714   4.728  0.0726 -0.0315 -0.1340
24520SOL    HW182528   2.279   9.678   4.808  3.6269 -0.5522  1.4463
24520SOL    HW282529   2.397   9.666   4.715  0.3827  1.0939 -3.2489
24521SOL     OW82530   6.743   9.539   2.325 -0.2382 -0.2015 -0.2063
24521SOL    HW182531   6.806   9.467   2.328 -2.0106 -1.8023  1.3699
24521SOL    HW282532   6.700   9.529   2.240 -0.4121 -0.9702 -0.0355
24522SOL     OW82533   3.930  11.584  10.424 -0.1634 -0.1499  0.3537
24522SOL    HW182534   3.941  11.491  10.448 -0.9379 -0.1777  0.6241
24522SOL    HW282535   4.009  11.604  10.373 -0.9379 -1.5406 -1.5147
24523SOL     OW82536   0.262   0.620  10.538 -0.2767  0.4788 -0.1428
24523SOL    HW182537   0.224   0.693  10.490 -1.5479 -0.3949 -0.5256
24523SOL    HW282538   0.191   0.588  10.594  1.0147  1.1527  2.0021
24524SOL     OW82539   9.076   2.716   4.596 -0.8429 -0.5008  0.1164
24524SOL    HW182540   9.162   2.674   4.587  0.5651  2.2416 -0.3709
24524SOL    HW282541   9.080   2.759   4.682 -1.0736  0.8972 -0.5389
24525SOL     OW82542  10.596   5.050   4.227 -0.3139 -0.2654  0.6779
24525SOL    HW182543  10.678   5.078   4.267  0.2323 -1.8431  0.7190
24525SOL    HW282544  10.622   4.994   4.154 -1.3128 -2.9054  2.2116
24526SOL     OW82545  10.653   7.476   1.549 -0.4335  0.6098 -0.2688
24526SOL    HW182546  10.652   7.430   1.634 -1.0208  1.0820 -0.0159
24526SOL    HW282547  10.740   7.515   1.546 -0.3838  0.5400  0.0895
24527SOL     OW82548  11.909   1.465   5.531  0.6345 -0.6479  0.2560
24527SOL    HW182549  11.833   1.408   5.519 -0.2507  0.2650  1.2927
24527SOL    HW282550  11.964   1.449   5.454 -0.7514 -1.1016 -0.6802
24528SOL     OW82551   7.582  11.916  11.142 -0.0550 -0.2094  0.0179
24528SOL    HW182552   7.594  11.949  11.053  0.3912 -0.5435 -0.0462
24528SOL    HW282553   7.598  11.822  11.136  1.5244 -0.0248  0.7246
24529SOL     OW82554   3.746  12.304   7.987  0.3240 -0.3763  0.2993
24529SOL    HW182555   3.746  12.383   8.041  0.0996  0.6802 -1.1924
24529SOL    HW282556   3.837  12.273   7.990  0.6546  0.5302  0.0797
24530SOL     OW82557  10.855   2.490  11.971  0.0665  0.1766  0.1581
24530SOL    HW182558  10.853   2.430  12.045  0.1563  0.4934  0.4168
24530SOL    HW282559  10.948   2.506  11.955  0.0540  2.3567  1.8099
24531SOL     OW82560  10.498  10.049   3.460 -0.4986 -0.4543 -0.0249
24531SOL    HW182561  10.471  10.136   3.490 -1.1479 -0.3312 -0.9333
24531SOL    HW282562  10.518  10.060   3.367 -0.8886 -1.3353 -0.2258
24532SOL     OW82563   2.835   5.984  10.724  0.6976  0.1326 -0.3988
24532SOL    HW182564   2.824   5.891  10.746 -0.8099  0.3564 -0.1666
24532SOL    HW282565   2.844   6.028  10.809  0.8163  0.2821 -0.4887
24533SOL     OW82566   9.871  12.595   6.969 -0.3081 -0.4074  0.5017
24533SOL    HW182567   9.824  12.609   6.887  0.7549  0.2876 -0.0089
24533SOL    HW282568   9.811  12.544   7.023 -1.4470  0.0441 -0.3127
24534SOL     OW82569   5.821  11.143   5.178 -0.0443  0.2453 -0.5894
24534SOL    HW182570   5.845  11.065   5.228 -0.6487  0.9013  0.7733
24534SOL    HW282571   5.901  11.168   5.132  1.3795  1.1838  2.1919
24535SOL     OW82572   4.090   6.405   7.482  0.5419  0.1731 -0.2024
24535SOL    HW182573   4.104   6.479   7.423 -0.0339  0.5081  0.0726
24535SOL    HW282574   4.004   6.371   7.458  1.3014 -1.1833 -1.1491
24536SOL     OW82575   7.808   6.513   5.648 -0.2351  0.1418  0.1236
24536SOL    HW182576   7.881   6.488   5.704  0.4069  1.1601 -0.2407
24536SOL    HW282577   7.846   6.529   5.562 -1.1174 -0.7616 -0.4651
24537SOL     OW82578   7.869   0.464   4.160 -0.2535 -0.0773  0.8062
24537SOL    HW182579   7.797   0.418   4.203 -0.4725 -0.1120  0.4034
24537SOL    HW282580   7.845   0.466   4.068  0.4599 -0.4599  0.6013
24538SOL     OW82581   0.724   5.520   5.693  0.3042 -0.2913  0.6653
24538SOL    HW182582   0.665   5.489   5.625  0.1816  0.1731  0.5554
24538SOL    HW282583   0.812   5.508   5.656  0.2406 -0.1264  0.4573
24539SOL     OW82584   5.149   2.150  11.629  0.4892 -0.3302  0.5521
24539SOL    HW182585   5.085   2.149  11.700  1.1813 -0.7927  1.1931
24539SOL    HW282586   5.228   2.112  11.668  0.7298 -1.0787 -0.6078
24540SOL     OW82587   7.453   6.159   6.374  0.1892 -0.2094  0.4039
24540SOL    HW182588   7.507   6.223   6.419 -0.8310  1.7315 -0.9887
24540SOL    HW282589   7.363   6.188   6.390 -0.5028 -2.8130  1.8852
24541SOL     OW82590   4.463  12.289   1.767  0.2564 -0.3835  1.1253
24541SOL    HW182591   4.510  12.267   1.687 -1.5381 -1.7862  0.3898
24541SOL    HW282592   4.519  12.354   1.810  1.8564 -0.4902 -0.6411
24542SOL     OW82593   8.315   9.522   1.046  0.2023 -0.2769 -0.2682
24542SOL    HW182594   8.335   9.615   1.040  2.3002 -0.6243  0.2661
24542SOL    HW282595   8.315   9.492   0.955  1.4846 -0.0696 -0.3678
24543SOL     OW82596   3.724   0.231   5.518  0.4379 -0.1448  0.4771
24543SOL    HW182597   3.815   0.229   5.489  0.2555 -0.1747 -0.1066
24543SOL    HW282598   3.700   0.324   5.515  0.2902 -0.1933  0.1175
24544SOL     OW82599   1.084  10.395   4.009 -0.1876  0.1786 -0.4708
24544SOL    HW182600   1.123  10.440   4.084  0.6783  0.2725 -0.9600
24544SOL    HW282601   0.992  10.421   4.010 -0.0707  0.5922  0.2464
24545SOL     OW82602  11.185   6.509   9.775 -0.2086  0.4803 -0.0512
24545SOL    HW182603  11.099   6.503   9.816 -0.4432  1.8243 -0.3139
24545SOL    HW282604  11.247   6.501   9.848 -0.5737  0.6595  0.2810
24546SOL     OW82605   0.876   1.007   9.646  0.2230 -0.5678 -0.1016
24546SOL    HW182606   0.823   0.935   9.679 -0.6319  0.0055 -0.1983
24546SOL    HW282607   0.961   0.997   9.690 -0.2993 -0.8935  0.8492
24547SOL     OW82608   5.378  11.505  11.233  0.0614 -0.0027  0.3039
24547SOL    HW182609   5.410  11.415  11.239 -0.5810 -0.1919  1.0597
24547SOL    HW282610   5.369  11.522  11.139  0.0182 -0.7924  0.1646
24548SOL     OW82611   2.014   0.558   0.758  0.0485 -0.3359  0.1474
24548SOL    HW182612   2.109   0.566   0.753  0.2141 -2.2381 -0.3124
24548SOL    HW282613   1.988   0.522   0.674 -0.9444 -0.9303  0.6909
24549SOL     OW82614   8.428   2.712  10.337  0.4143 -0.4008  0.3196
24549SOL    HW182615   8.471   2.643  10.288 -1.5404 -1.3603 -0.1482
24549SOL    HW282616   8.447   2.692  10.429  0.7560 -0.9348  0.1358
24550SOL     OW82617   4.466   3.144  11.379 -0.4300  0.2118  0.0718
24550SOL    HW182618   4.401   3.160  11.310 -0.0206  2.5445  0.1424
24550SOL    HW282619   4.415   3.133  11.459 -0.8269 -0.6714 -0.2923
24551SOL     OW82620   7.360  12.018   2.130 -0.0847  0.0371 -0.0599
24551SOL    HW182621   7.363  11.928   2.164 -0.8604 -0.0883 -0.2941
24551SOL    HW282622   7.411  12.015   2.049  1.6926  0.3125  0.9838
24552SOL     OW82623  10.323  11.328   9.870 -0.4540  0.3089  0.4305
24552SOL    HW182624  10.312  11.234   9.861 -0.5779  0.4236 -0.9145
24552SOL    HW282625  10.388  11.339   9.939  1.9829 -0.9046 -1.5091
24553SOL     OW82626  11.273   3.261   5.733 -0.3089 -0.0393 -0.1737
24553SOL    HW182627  11.215   3.286   5.660  0.6894 -0.5786 -1.1737
24553SOL    HW282628  11.361   3.268   5.697  0.2726  0.7185  1.3188
24554SOL     OW82629   7.579   5.519   2.783  0.4409  0.1482  0.3741
24554SOL    HW182630   7.550   5.511   2.693 -0.9722  0.9398  0.7324
24554SOL    HW282631   7.628   5.601   2.785 -0.2501  0.5646  0.4945
24555SOL     OW82632  12.059   3.855   1.720  0.4599 -0.4800  0.4466
24555SOL    HW182633  12.084   3.776   1.671 -0.5958 -1.8983  2.0723
24555SOL    HW282634  12.059   3.925   1.654  0.3089 -2.0543 -1.3076
24556SOL     OW82635  10.161   5.976   1.395 -0.5161 -0.0826 -0.0521
24556SOL    HW182636  10.231   5.920   1.429  0.4036  0.8794 -0.2918
24556SOL    HW282637  10.136   6.031   1.470 -1.5397 -0.9020  0.2326
24557SOL     OW82638   9.206   9.561   0.320 -0.5813 -0.2195  0.3044
24557SOL    HW182639   9.130   9.531   0.270  0.1269 -1.1891 -0.2267
24557SOL    HW282640   9.246   9.480   0.353 -0.6666  0.3577  1.9270
24558SOL     OW82641   0.709  12.057   5.119 -0.3934  0.7359 -0.3574
24558SOL    HW182642   0.742  12.027   5.204 -0.6696  0.6418 -0.2803
24558SOL    HW282643   0.694  11.976   5.069 -0.7509  0.7613 -0.2965
24559SOL     OW82644   8.426   1.228   8.366 -0.1171 -0.2264 -0.2133
24559SOL    HW182645   8.514   1.252   8.396 -0.0785  0.5114 -0.8721
24559SOL    HW282646   8.436   1.218   8.271 -0.9233  0.6788 -0.3966
24560SOL     OW82647   1.032  11.932   0.089 -0.6817  0.2730  0.3404
24560SOL    HW182648   1.063  11.878   0.161  0.8478 -0.8907 -1.0951
24560SOL    HW282649   1.107  11.988   0.066 -0.9032  0.1580 -0.7326
24561SOL     OW82650   9.179  12.578   9.817  0.2707 -0.2419  0.0904
24561SOL    HW182651   9.125  12.655   9.837  0.2223  0.3852 -2.0947
24561SOL    HW282652   9.265  12.600   9.851 -0.0187  0.2813  0.5115
24562SOL     OW82653   8.661   1.754  10.132 -0.8656 -0.1858  0.1759
24562SOL    HW182654   8.579   1.770  10.178 -1.1731 -0.0508 -0.4122
24562SOL    HW282655   8.650   1.797  10.048  0.1847  0.6911  0.4562
24563SOL     OW82656  10.163   7.368   6.851 -0.0199 -0.0057 -0.0866
24563SOL    HW182657  10.080   7.415   6.857  0.2701  0.5271 -0.2274
24563SOL    HW282658  10.206   7.384   6.934 -0.6158 -1.3668  0.5217
24564SOL     OW82659   9.004   2.936   4.442  0.3893 -0.3243 -0.6856
24564SOL    HW182660   8.910   2.956   4.449  0.6402  0.6883  0.0293
24564SOL    HW282661   9.013   2.848   4.479 -0.1869 -0.1549 -0.1302
24565SOL     OW82662   7.118  10.038   5.699  0.3798 -0.1134 -0.0393
24565SOL    HW182663   7.192  10.002   5.747 -0.2221 -0.5518  0.5745
24565SOL    HW282664   7.044  10.030   5.759 -0.7391 -2.1236 -1.5468
24566SOL     OW82665   2.256   6.180   3.675  0.5431  0.4244  0.3023
24566SOL    HW182666   2.344   6.163   3.640 -0.4457 -2.4936 -1.0964
24566SOL    HW282667   2.258   6.142   3.763  0.2139 -1.4353 -0.4410
24567SOL     OW82668  11.749   6.135   4.863  0.1147 -0.0948 -0.5360
24567SOL    HW182669  11.823   6.122   4.804  0.2657  0.8121 -0.5608
24567SOL    HW282670  11.716   6.222   4.841 -1.3325 -0.7142 -0.9273
24568SOL     OW82671   7.986  11.757   3.799 -0.1409  0.7871 -0.0398
24568SOL    HW182672   7.927  11.747   3.725 -0.5202 -0.0834  0.3646
24568SOL    HW282673   7.930  11.782   3.872 -0.0434 -0.0864  0.3572
24569SOL     OW82674   0.333   2.122   9.126 -0.2367  0.4994  0.2705
24569SOL    HW182675   0.397   2.064   9.084 -0.7892 -1.4005  1.8716
24569SOL    HW282676   0.371   2.139   9.213 -0.2747  2.2781 -0.0368
24570SOL     OW82677   1.145  10.696   3.269  0.3440 -0.0013  0.0439
24570SOL    HW182678   1.233  10.710   3.235 -0.2090  0.8579 -1.1480
24570SOL    HW282679   1.088  10.713   3.193 -0.8926  0.6381  1.0757
24571SOL     OW82680  12.304   5.667   0.414  0.0504  0.6194 -0.4007
24571SOL    HW182681  12.329   5.669   0.322 -1.1315 -0.6027 -0.7831
24571SOL    HW282682  12.311   5.758   0.443 -1.1896  1.3255 -2.1647
24572SOL     OW82683   1.893   2.963   3.028  0.2427 -0.1801  0.0098
24572SOL    HW182684   1.978   2.967   2.984  0.1541  0.1176 -0.1371
24572SOL    HW282685   1.831   2.946   2.958  0.1625 -0.2493  0.0977
24573SOL     OW82686   9.401   0.624   6.137  0.3723  0.0104 -0.2578
24573SOL    HW182687   9.332   0.566   6.170  1.7116 -1.4426  0.0945
24573SOL    HW282688   9.417   0.592   6.048  1.8300 -0.8787  0.2958
24574SOL     OW82689   8.533   9.606  10.907 -0.0381  0.3270 -0.3170
24574SOL    HW182690   8.453   9.636  10.864  0.3497  0.6540 -0.8387
24574SOL    HW282691   8.533   9.648  10.992 -0.6295 -0.0155 -0.1479
24575SOL     OW82692  11.566   6.109   7.865  0.1724  0.1878  0.2639
24575SOL    HW182693  11.526   6.194   7.845 -1.5819 -0.5495  0.4515
24575SOL    HW282694  11.630   6.096   7.795 -0.0773  1.3341 -0.1976
24576SOL     OW82695  11.156   4.785   0.524  0.0941  0.1372 -0.4133
24576SOL    HW182696  11.118   4.705   0.487 -1.5856 -0.2010  1.8310
24576SOL    HW282697  11.230   4.753   0.576  1.0577  0.3871 -1.5630
24577SOL     OW82698   1.081   3.625   8.851 -0.3489 -0.0145  0.2658
24577SOL    HW182699   1.117   3.650   8.936  1.6752  0.1278 -0.5649
24577SOL    HW282700   1.048   3.707   8.814  1.2909  0.4874 -0.1848
24578SOL     OW82701  12.552  10.797   6.173 -0.8227 -0.0693  0.2314
24578SOL    HW182702  12.532  10.883   6.210  0.9457  0.4553  0.0577
24578SOL    HW282703  12.647  10.798   6.160 -0.2528 -3.0974  2.8811
24579SOL     OW82704   9.710   4.982   0.339  0.1639  0.2076 -0.1483
24579SOL    HW182705   9.651   5.039   0.388 -0.8857 -1.6229  0.8317
24579SOL    HW282706   9.681   4.893   0.360  1.7573 -0.7191 -1.5636
24580SOL     OW82707   1.946   3.283   5.526 -0.4518  0.3175 -0.3155
24580SOL    HW182708   1.899   3.217   5.474  1.5011  0.0204 -1.8214
24580SOL    HW282709   1.887   3.358   5.528 -2.7260 -1.3624  1.4059
24581SOL     OW82710   6.146   4.993   2.545 -0.1297  0.2129 -0.2099
24581SOL    HW182711   6.208   4.934   2.504 -0.3649 -0.7784  0.8115
24581SOL    HW282712   6.184   5.012   2.631  0.1127  1.8483 -0.6518
24582SOL     OW82713  11.965   7.611   9.949  0.8477 -0.5051  0.0855
24582SOL    HW182714  12.042   7.620   9.892 -0.5336 -0.2414 -1.8287
24582SOL    HW282715  11.925   7.697   9.950 -0.4064 -1.0585 -0.4399
24583SOL     OW82716   4.405   8.071   0.019 -0.1891 -0.1899  0.2778
24583SOL    HW182717   4.470   8.135   0.047  0.8899 -1.9855  2.0993
24583SOL    HW282718   4.321   8.115   0.030  0.5678  1.3476  0.1666
24584SOL     OW82719   5.719   2.604   5.058 -0.0932  0.2295 -0.0199
24584SOL    HW182720   5.742   2.524   5.107  0.6744  0.0430 -0.6538
24584SOL    HW282721   5.680   2.662   5.123  1.2026  0.1168  0.8993
24585SOL     OW82722   8.605   0.269   5.022 -0.6301  0.6602 -0.4056
24585SOL    HW182723   8.598   0.287   4.929 -1.4145  0.6586 -0.3460
24585SOL    HW282724   8.516   0.253   5.051 -0.1118 -2.7372 -0.3365
24586SOL     OW82725   5.462   1.240  11.975 -0.0190  0.2687 -0.0836
24586SOL    HW182726   5.430   1.152  11.993 -1.4492  0.6840 -0.4841
24586SOL    HW282727   5.512   1.231  11.894  0.0629 -0.2177  0.0192
24587SOL     OW82728   4.295   9.720   3.993 -0.5194 -0.3244 -0.1049
24587SOL    HW182729   4.258   9.806   4.009 -0.3681 -0.4493  1.0075
24587SOL    HW282730   4.220   9.665   3.969 -0.5990  0.1295 -0.9254
24588SOL     OW82731   8.366   8.258   6.347  0.8789 -0.5774 -0.0497
24588SOL    HW182732   8.328   8.346   6.357 -0.2347 -1.2617  2.4725
24588SOL    HW282733   8.297   8.198   6.374  2.4228 -2.0926  0.7648
24589SOL     OW82734   2.037   6.387   1.090  0.4225  0.4832  0.9268
24589SOL    HW182735   2.069   6.303   1.057 -1.0634  0.1112  0.3323
24589SOL    HW282736   2.035   6.376   1.185  2.8620  0.8576  1.0753
24590SOL     OW82737   3.949   6.474   3.984  0.0386 -0.3464  0.3316
24590SOL    HW182738   3.866   6.496   3.943 -0.3884 -0.0204  1.3344
24590SOL    HW282739   4.012   6.475   3.912 -0.4036  1.7410 -0.0987
24591SOL     OW82740   4.545   4.193   7.592 -0.1698 -0.3542 -0.5038
24591SOL    HW182741   4.458   4.234   7.590 -0.0485 -0.1044 -0.6661
24591SOL    HW282742   4.544   4.138   7.670 -0.6191 -0.6675 -0.7252
24592SOL     OW82743  10.374  12.475   6.359  0.1712  0.2860  0.0110
24592SOL    HW182744  10.307  12.533   6.324 -0.4580  0.9254  2.1155
24592SOL    HW282745  10.368  12.396   6.304 -0.6498  1.2435 -1.3321
24593SOL     OW82746   0.764  11.770   7.304 -0.1055 -0.4599 -0.9563
24593SOL    HW182747   0.806  11.847   7.266  1.2628 -0.3388  0.6461
24593SOL    HW282748   0.675  11.771   7.271 -0.8216  3.0787  0.6746
24594SOL     OW82749   2.045   6.286   3.434  0.0007  0.1977  0.3156
24594SOL    HW182750   2.039   6.328   3.520  1.8411 -0.0445  0.5948
24594SOL    HW282751   2.035   6.193   3.452 -1.6514  0.2757 -0.0169
24595SOL     OW82752   5.762   1.110   6.095  0.7034 -0.3974 -0.1817
24595SOL    HW182753   5.856   1.113   6.076  0.7039  1.2959 -0.0872
24595SOL    HW282754   5.756   1.133   6.188  0.0970  1.9470 -0.7335
24596SOL     OW82755   8.661   9.495   1.345  0.2070  0.2741  0.3499
24596SOL    HW182756   8.567   9.485   1.333 -0.1610 -0.7967  3.1486
24596SOL    HW282757   8.671   9.582   1.385  0.2839  0.0785  0.7667
24597SOL     OW82758  11.913  10.403   7.386 -0.5531 -0.2691 -0.0397
24597SOL    HW182759  12.002  10.401   7.352 -0.5667 -1.0108 -0.0511
24597SOL    HW282760  11.867  10.335   7.337 -1.6735  1.4216 -1.4802
24598SOL     OW82761   8.912   6.612   5.251  0.2390  0.2167  0.0130
24598SOL    HW182762   8.988   6.622   5.309  0.2191 -0.6849  0.2079
24598SOL    HW282763   8.837   6.607   5.311  0.0790  0.5278 -0.1563
24599SOL     OW82764  12.017   6.870   4.209  0.7822 -0.6789 -0.0698
24599SOL    HW182765  12.039   6.917   4.289  0.2454  0.5085 -0.5949
24599SOL    HW282766  12.073   6.909   4.142 -1.4524  1.0725 -1.0406
24600SOL     OW82767   0.193   6.876   8.771 -0.0110 -0.1455  0.2342
24600SOL    HW182768   0.284   6.876   8.743 -0.0486 -0.3201  0.1053
24600SOL    HW282769   0.146   6.919   8.699  0.2002  1.6277  1.1169
24601SOL     OW82770   1.084  12.243  12.101  0.2456  0.6980 -0.3195
24601SOL    HW182771   0.995  12.217  12.077  0.4362  0.4760 -0.7949
24601SOL    HW282772   1.115  12.295  12.027  0.8490 -0.0132 -0.5722
24602SOL     OW82773   7.800  10.321   6.442 -1.3276 -0.1198 -0.0136
24602SOL    HW182774   7.853  10.312   6.521 -1.7707  0.3613  0.3458
24602SOL    HW282775   7.782  10.231   6.415 -0.0983 -0.2997 -0.3088
24603SOL     OW82776  12.054   7.628   9.473  0.7289  0.1081  0.1899
24603SOL    HW182777  12.093   7.575   9.403 -0.8025 -1.2712  0.3340
24603SOL    HW282778  11.997   7.689   9.427  0.3256 -0.2703  0.1852
24604SOL     OW82779   3.881   1.823   5.703  0.1615 -0.2651  0.6115
24604SOL    HW182780   3.924   1.755   5.651  1.4889  1.4760 -0.7066
24604SOL    HW282781   3.870   1.784   5.790 -0.8441 -2.7831 -0.5539
24605SOL     OW82782   5.998   9.150  11.513 -0.6678  0.3838 -0.3266
24605SOL    HW182783   5.988   9.137  11.418 -2.2729 -0.9363 -0.0228
24605SOL    HW282784   6.088   9.122  11.532 -0.7453 -0.5832 -1.2799
24606SOL     OW82785   2.952   5.523   2.832  0.2987  0.2328 -0.3282
24606SOL    HW182786   2.989   5.567   2.909 -1.1814  0.6450  0.1881
24606SOL    HW282787   2.857   5.532   2.843  0.0575  0.8962 -2.5503
24607SOL     OW82788   3.688   1.368   3.877  0.2454  0.0308 -0.5450
24607SOL    HW182789   3.718   1.392   3.789  0.5380  0.0694 -0.4371
24607SOL    HW282790   3.694   1.273   3.879 -0.1819 -0.0030 -0.7131
24608SOL     OW82791  10.417  10.083  10.211 -0.3813  0.0617 -0.3137
24608SOL    HW182792  10.411  10.177  10.197 -1.1196 -0.0305 -0.6617
24608SOL    HW282793  10.416  10.073  10.306  0.7506  0.4591 -0.2417
24609SOL     OW82794   6.648   1.588  12.159  0.0950  0.5752  0.0035
24609SOL    HW182795   6.735   1.553  12.178  0.2025  1.6379  1.6073
24609SOL    HW282796   6.592   1.557  12.230 -0.1982  2.1023  0.4894
24610SOL     OW82797   8.888   3.252   4.852 -0.5461 -0.2841  0.3842
24610SOL    HW182798   8.937   3.170   4.854 -2.0115 -1.2069  0.2951
24610SOL    HW282799   8.955   3.320   4.857  0.8696 -1.4388 -1.3960
24611SOL     OW82800   0.388   8.810   2.249 -0.8013 -0.7496 -0.7180
24611SOL    HW182801   0.434   8.760   2.317 -1.8429 -0.1651  0.4544
24611SOL    HW282802   0.368   8.746   2.181  0.2689 -1.3445 -0.4996
24612SOL     OW82803   6.414   3.270   1.416  0.1909 -0.2470 -0.5660
24612SOL    HW182804   6.353   3.195   1.413  0.8316 -0.7399 -1.4711
24612SOL    HW282805   6.358   3.346   1.399 -0.4830 -0.4942  0.4288
24613SOL     OW82806  11.628  10.928   5.985  0.2323 -0.7235  0.1891
24613SOL    HW182807  11.701  10.867   5.972  0.6525 -0.0357 -0.8959
24613SOL    HW282808  11.550  10.872   5.986  0.6685 -1.3503  0.0145
24614SOL     OW82809  10.296   4.470   2.857  0.3277 -0.1506  0.2713
24614SOL    HW182810  10.283   4.519   2.938 -0.4191  1.4750 -0.7544
24614SOL    HW282811  10.217   4.416   2.848  0.5125 -0.4976  0.7258
24615SOL     OW82812   2.584   5.490   5.785 -0.0630 -0.1600 -0.1830
24615SOL    HW182813   2.504   5.461   5.829  0.0336 -0.5711 -0.2764
24615SOL    HW282814   2.654   5.438   5.824  0.0994 -0.1188 -0.4155
24616SOL     OW82815   0.616   2.177   2.684 -0.3934  0.0262  0.2913
24616SOL    HW182816   0.647   2.255   2.729 -0.8775 -0.3325  1.2743
24616SOL    HW282817   0.596   2.207   2.595  0.7224  0.7132  0.2500
24617SOL     OW82818   6.148   4.593   7.331 -0.2126 -0.0352 -0.6266
24617SOL    HW182819   6.236   4.557   7.321 -0.0615  0.2344 -0.3001
24617SOL    HW282820   6.155   4.653   7.406 -0.9763 -0.9642  0.2226
24618SOL     OW82821   0.408   5.751   7.012  0.3702  0.4305 -0.1393
24618SOL    HW182822   0.410   5.766   7.106 -0.3925  0.1480 -0.0687
24618SOL    HW282823   0.346   5.678   7.000 -0.5431  1.2955 -0.9418
24619SOL     OW82824   0.117   9.530   1.234  0.2722  0.0730  0.0151
24619SOL    HW182825   0.097   9.529   1.140 -0.5490 -0.6152  0.1884
24619SOL    HW282826   0.138   9.439   1.254 -0.7843 -0.0174  0.7527
24620SOL     OW82827   3.520   7.034  11.101 -0.0703 -0.6316 -0.2879
24620SOL    HW182828   3.596   7.074  11.059  0.0974 -0.4112  0.2124
24620SOL    HW282829   3.479   6.981  11.032  0.8248 -1.1622 -0.4271
24621SOL     OW82830   4.690   3.585   5.463  0.3029  0.3128 -0.1037
24621SOL    HW182831   4.691   3.502   5.511  0.3351  0.3621 -0.0182
24621SOL    HW282832   4.649   3.565   5.380  1.0704  0.0190 -0.4259
24622SOL     OW82833   8.277   8.948   5.168  0.1109  0.6159 -0.1362
24622SOL    HW182834   8.201   9.001   5.190  0.0400  0.2126  0.6399
24622SOL    HW282835   8.312   8.920   5.253  2.0533  2.0507 -0.3902
24623SOL     OW82836   6.834  12.364   9.969 -0.3526  0.0717  0.4785
24623SOL    HW182837   6.844  12.288  10.027 -1.7212 -0.6523 -0.1967
24623SOL    HW282838   6.865  12.334   9.884 -2.3060 -0.2461 -0.1557
24624SOL     OW82839   2.768   7.342   3.020  0.6793  0.4038 -0.1252
24624SOL    HW182840   2.757   7.258   3.065  1.0367  1.3757  1.9093
24624SOL    HW282841   2.684   7.359   2.978  0.2336 -0.4344  0.4143
24625SOL     OW82842   1.143   0.215   3.955  0.0089  0.2207  0.2480
24625SOL    HW182843   1.064   0.269   3.951  1.3129  2.2500 -0.3208
24625SOL    HW282844   1.155   0.183   3.865 -0.3131 -0.3279  0.3985
24626SOL     OW82845   6.047   0.243   1.213  0.0602 -0.2220 -0.4444
24626SOL    HW182846   6.137   0.259   1.240 -0.2480  0.5244  0.1699
24626SOL    HW282847   5.996   0.256   1.292 -0.7058  0.4497 -1.0358
24627SOL     OW82848  10.443   9.236  11.912  0.1359 -0.1828 -0.5948
24627SOL    HW182849  10.395   9.156  11.931  0.9837 -0.5400  0.0938
24627SOL    HW282850  10.384   9.306  11.940 -0.5011 -0.5628 -0.9599
24628SOL     OW82851   9.090  10.973   8.283 -0.4941  0.1526 -0.4748
24628SOL    HW182852   9.066  11.053   8.330  1.1083  1.0407 -1.0964
24628SOL    HW282853   9.010  10.947   8.237 -1.7649 -0.0916  1.7401
24629SOL     OW82854   7.224  11.113   5.805  0.1384 -0.0515 -0.1518
24629SOL    HW182855   7.177  11.105   5.888 -0.4498 -1.4071 -0.5874
24629SOL    HW282856   7.219  11.206   5.784 -2.2096 -0.1028 -0.0839
24630SOL     OW82857   9.997  10.061   3.348  0.4434  0.0766  0.0913
24630SOL    HW182858   9.987   9.972   3.380  3.1031 -0.2978  0.0604
24630SOL    HW282859  10.053  10.053   3.271  0.1403  1.7198 -0.3506
24631SOL     OW82860   3.252  12.454   5.899  0.0420 -0.9500  0.4061
24631SOL    HW182861   3.184  12.409   5.949 -2.0754  0.9377 -0.6143
24631SOL    HW282862   3.310  12.384   5.868 -1.3802 -2.6219  1.3649
24632SOL     OW82863  12.271   8.032   1.333 -0.0565 -0.1157  0.4576
24632SOL    HW182864  12.180   8.052   1.355 -0.1329 -1.3381  1.3471
24632SOL    HW282865  12.265   7.966   1.263  0.1245 -0.7327  1.0135
24633SOL     OW82866   1.788   8.593   1.890 -0.7189  0.1321 -0.0938
24633SOL    HW182867   1.723   8.527   1.913 -1.0116  0.4385 -0.0438
24633SOL    HW282868   1.786   8.655   1.962 -1.5269  1.0129 -0.8513
24634SOL     OW82869   9.627   9.292  12.113  0.6599  0.1998  0.1892
24634SOL    HW182870   9.619   9.372  12.165 -1.6576  1.4584 -1.8885
24634SOL    HW282871   9.705   9.307  12.058  1.8444 -0.2230  1.6854
24635SOL     OW82872  10.535   0.991   9.968  0.1926 -0.6067  0.0586
24635SOL    HW182873  10.516   1.007   9.875  0.8508 -1.9299 -0.3292
24635SOL    HW282874  10.455   1.017  10.013  0.2670  1.1743 -0.7369
24636SOL     OW82875   6.975  10.041   1.369  0.7464  0.0425  0.6477
24636SOL    HW182876   6.966   9.998   1.454  1.0069  0.6741  0.9979
24636SOL    HW282877   6.969  10.134   1.388 -2.4951  0.1782 -0.4338
24637SOL     OW82878   6.504   1.133   4.108 -0.1426 -0.0506 -0.7843
24637SOL    HW182879   6.469   1.051   4.141  1.0950 -0.3882 -0.2453
24637SOL    HW282880   6.592   1.110   4.076  0.8182  1.3284  0.7477
24638SOL     OW82881   1.215   3.785   3.464 -0.5870 -0.5466  0.2062
24638SOL    HW182882   1.241   3.816   3.550  0.3153 -0.7856  0.0260
24638SOL    HW282883   1.257   3.846   3.403  0.8434 -1.8260 -0.1352
24639SOL     OW82884  11.550   7.858   6.859 -0.1888 -0.3955  0.2318
24639SOL    HW182885  11.484   7.910   6.813  0.6048  0.4441  0.0178
24639SOL    HW282886  11.501   7.810   6.926 -0.9564  0.4862  0.3097
24640SOL     OW82887  11.092   7.578   1.701  0.1271 -0.2434 -0.0354
24640SOL    HW182888  11.113   7.636   1.775  0.9866 -0.2125 -0.2932
24640SOL    HW282889  11.063   7.497   1.743  0.1373 -0.0625  0.3348
24641SOL     OW82890  10.069   7.122   5.843  0.0033 -0.1935  0.0665
24641SOL    HW182891   9.995   7.104   5.901 -0.6850 -0.1239 -0.7656
24641SOL    HW282892  10.112   7.198   5.881 -0.0595 -0.5265  0.8262
24642SOL     OW82893   6.639   7.188   3.267 -0.0765  0.0966  0.1834
24642SOL    HW182894   6.718   7.211   3.219  0.2513  0.1032  0.7217
24642SOL    HW282895   6.647   7.093   3.281 -0.9465 -0.2175 -1.1643
24643SOL     OW82896   3.688   8.736   6.367 -0.3789 -0.3746 -0.4944
24643SOL    HW182897   3.627   8.673   6.405  0.1943 -0.6595 -0.0333
24643SOL    HW282898   3.638   8.818   6.363 -0.8849 -0.6732 -0.4052
24644SOL     OW82899   1.494   0.303   4.166  0.4081  0.0520  0.3093
24644SOL    HW182900   1.558   0.313   4.237  0.0243  1.1222  0.5219
24644SOL    HW282901   1.519   0.221   4.123  1.8318  0.3673  0.4741
24645SOL     OW82902   5.730  10.471   0.046  0.2310  0.1478  0.4023
24645SOL    HW182903   5.749  10.564   0.048 -0.4212  0.2798  0.9751
24645SOL    HW282904   5.813  10.430   0.022  1.4215  0.6422  3.2478
24646SOL     OW82905   4.604   6.267   7.062 -0.4412  0.5605 -1.2033
24646SOL    HW182906   4.678   6.209   7.042 -1.0103 -0.1541 -1.2958
24646SOL    HW282907   4.530   6.228   7.015 -0.9615  1.0431 -0.8006
24647SOL     OW82908   2.003   9.548   2.585  0.8958 -0.2965  0.4372
24647SOL    HW182909   2.080   9.581   2.632  0.9687  0.0473  0.0884
24647SOL    HW282910   2.038   9.512   2.504  0.4771  2.5286 -1.1352
24648SOL     OW82911   5.000   9.552  12.462  0.7067 -0.9621 -0.0197
24648SOL    HW182912   5.092   9.577  12.454  0.8764 -1.8760 -1.0634
24648SOL    HW282913   4.988   9.480  12.400 -0.6316 -1.0940  0.3462
24649SOL     OW82914   8.352   6.657   1.366 -0.5474 -0.1183  0.3604
24649SOL    HW182915   8.312   6.572   1.383 -0.8095 -0.1117 -0.1881
24649SOL    HW282916   8.297   6.719   1.413 -0.9561 -0.1541 -0.0526
24650SOL     OW82917   9.910   5.145   1.924 -0.2205  0.1771  0.0340
24650SOL    HW182918   9.910   5.202   2.001 -2.1082  0.8432 -0.4063
24650SOL    HW282919   9.922   5.057   1.960 -2.2686  0.3252  1.2936
24651SOL     OW82920  10.584  12.316   0.673  0.2582  0.1690 -0.3504
24651SOL    HW182921  10.677  12.313   0.697  0.6841  1.7530 -1.6821
24651SOL    HW282922  10.579  12.265   0.592  0.0016  0.2842 -0.4070
24652SOL     OW82923   9.869   4.253  11.217 -0.5536 -0.0533 -0.1112
24652SOL    HW182924   9.853   4.185  11.152 -0.6223 -1.7701  1.6021
24652SOL    HW282925   9.883   4.205  11.299 -1.5925  2.0418  1.3791
24653SOL     OW82926   8.194   9.037   8.978  0.5252  0.3832  0.3440
24653SOL    HW182927   8.240   9.120   8.988  4.0028 -1.1406 -1.2805
24653SOL    HW282928   8.240   8.976   9.036  0.6492 -1.2681 -1.3805
24654SOL     OW82929  11.900   6.013   0.943 -0.1144  0.4218  0.0285
24654SOL    HW182930  11.888   6.018   1.038 -0.0595 -0.2633  0.0805
24654SOL    HW282931  11.992   5.989   0.931 -0.3296 -0.3525 -0.1584
24655SOL     OW82932   8.262   9.095  11.018  0.1639  0.2053  0.4033
24655SOL    HW182933   8.292   9.168  10.963  0.2258  0.1065  0.3038
24655SOL    HW282934   8.327   9.090  11.088  0.2534  0.1391  0.3172
24656SOL     OW82935   6.740   3.781  12.594  0.3787  0.0479  0.0206
24656SOL    HW182936   6.692   3.855  12.632  0.2495  0.3336 -0.6777
24656SOL    HW282937   6.776   3.816  12.513  1.2420 -0.3528  0.2253
24657SOL     OW82938   8.318   8.490  10.596 -0.1579  0.2404 -0.0082
24657SOL    HW182939   8.239   8.523  10.638 -0.3780  0.8551 -0.8897
24657SOL    HW282940   8.352   8.565  10.547  1.3612  0.1897  0.9085
24658SOL     OW82941   4.580  11.568   0.640  0.5765 -0.9903 -0.4744
24658SOL    HW182942   4.493  11.535   0.615  1.4443 -3.2776 -0.6851
24658SOL    HW282943   4.575  11.577   0.735 -0.5519  1.0646 -0.6728
24659SOL     OW82944   1.424   9.899   1.442 -0.1433 -0.0523 -0.0599
24659SOL    HW182945   1.438   9.993   1.459 -0.3766 -0.2240  1.2162
24659SOL    HW282946   1.349   9.876   1.496  0.4335 -1.1518  0.3049
24660SOL     OW82947   3.961   2.501   6.266 -0.0948  0.0705  0.0615
24660SOL    HW182948   4.004   2.581   6.236 -1.8191  1.3370  0.8185
24660SOL    HW282949   3.976   2.500   6.360 -0.0486 -0.5450  0.0525
24661SOL     OW82950   7.502   4.200   7.456  0.2907 -0.3189 -0.0189
24661SOL    HW182951   7.458   4.166   7.379 -1.1913 -0.0021  0.6624
24661SOL    HW282952   7.435   4.203   7.524  1.0764  1.2262  0.7494
24662SOL     OW82953   4.760   8.914  11.495  0.6468  0.1684 -0.2772
24662SOL    HW182954   4.829   8.965  11.452  1.0182 -0.6423 -0.6554
24662SOL    HW282955   4.679   8.959  11.471  0.6469 -1.1890 -3.3474
24663SOL     OW82956   2.561   2.322   0.557  0.0614 -0.7458 -0.3713
24663SOL    HW182957   2.490   2.371   0.516  0.3188 -0.2670 -0.2529
24663SOL    HW282958   2.554   2.234   0.519  0.1387 -0.3813 -1.2550
24664SOL     OW82959   2.267  11.834  10.996 -0.0247  0.1092  0.5528
24664SOL    HW182960   2.278  11.885  10.915  1.9511  0.7707  1.1698
24664SOL    HW282961   2.267  11.900  11.066  0.6756 -0.6026  1.2376
24665SOL     OW82962   3.887   7.580   2.446  0.2042 -0.3343  0.2259
24665SOL    HW182963   3.868   7.628   2.366 -0.6616 -1.7097 -0.4232
24665SOL    HW282964   3.962   7.525   2.423 -0.3771 -1.1193  0.1871
24666SOL     OW82965   3.099   6.699  10.524 -1.0632 -0.0418 -0.1284
24666SOL    HW182966   3.156   6.622  10.515 -1.6315 -0.3201 -1.7216
24666SOL    HW282967   3.011   6.665  10.508 -1.2591  1.0178 -1.4191
24667SOL     OW82968  11.426   5.100   3.815  0.9452  0.3057 -0.2935
24667SOL    HW182969  11.433   5.051   3.732  0.0020 -1.2193  0.4803
24667SOL    HW282970  11.387   5.183   3.790  0.8857 -0.0438 -1.4261
24668SOL     OW82971   5.119   9.266   8.379 -0.2773 -0.0988  0.0665
24668SOL    HW182972   5.114   9.345   8.432 -0.8550  0.6868 -1.1062
24668SOL    HW282973   5.212   9.258   8.358 -0.2190  0.3209  0.1472
24669SOL     OW82974  11.695   9.310   6.267 -0.8805  0.1390 -0.0994
24669SOL    HW182975  11.785   9.343   6.261 -0.8117 -0.0351 -0.0364
24669SOL    HW282976  11.702   9.233   6.324 -1.2748  0.9048  1.0099
24670SOL     OW82977   5.151   7.907   4.278 -0.1751  0.5760  0.5150
24670SOL    HW182978   5.077   7.948   4.324 -0.1948  0.5200  0.5335
24670SOL    HW282979   5.112   7.833   4.232 -0.7040  2.2967 -1.9922
24671SOL     OW82980  12.144   3.351   6.876 -0.1898  0.2719  0.1078
24671SOL    HW182981  12.152   3.331   6.969 -0.5931  1.5275  0.4290
24671SOL    HW282982  12.052   3.374   6.864 -0.3190 -0.6137 -0.7659
24672SOL     OW82983   9.762  12.239  10.168  0.3777  0.2991  0.0091
24672SOL    HW182984   9.812  12.277  10.241  2.6028 -1.6796 -0.3325
24672SOL    HW282985   9.819  12.250  10.092  0.3486 -2.0314 -0.4213
24673SOL     OW82986   1.232   9.497  10.484  0.5835  0.2675 -0.2345
24673SOL    HW182987   1.151   9.492  10.433  0.4183 -0.5558  0.0849
24673SOL    HW282988   1.263   9.406  10.489  0.3298  0.2317  1.5118
24674SOL     OW82989   2.907   4.043  11.997 -0.0191 -0.5047 -0.2687
24674SOL    HW182990   2.893   3.981  12.068 -0.5896 -0.0049  0.0691
24674SOL    HW282991   3.002   4.054  11.993 -0.0073 -0.0295  0.8681
24675SOL     OW82992   7.740   7.910   5.908 -0.7073 -0.3307  0.0689
24675SOL    HW182993   7.660   7.870   5.940 -1.1768 -0.0285 -0.7171
24675SOL    HW282994   7.712   7.973   5.842  0.2042 -0.5499 -0.5594
24676SOL     OW82995   4.235   3.212   0.553 -0.4246 -0.0237 -0.3967
24676SOL    HW182996   4.184   3.292   0.541 -0.0225  0.0374 -1.9812
24676SOL    HW282997   4.174   3.141   0.534 -0.4239 -0.0234 -0.4005
24677SOL     OW82998   0.978  11.239  11.571  0.0267  0.1419 -0.1542
24677SOL    HW182999   0.907  11.181  11.543 -0.3526  0.9273 -0.8235
24677SOL    HW283000   0.946  11.327  11.555  1.4371  0.5089 -1.1904
24678SOL     OW83001  12.093   0.445   3.571 -0.4574 -0.3653 -0.1421
24678SOL    HW183002  12.108   0.363   3.618 -0.3025 -0.2125  0.0771
24678SOL    HW283003  12.153   0.507   3.612 -0.1063 -0.3047 -0.7455
24679SOL     OW83004   1.838   2.051   4.046 -0.2468 -0.0538  0.7580
24679SOL    HW183005   1.796   1.966   4.030 -1.4117  0.9417 -2.1258
24679SOL    HW283006   1.929   2.029   4.066 -0.8903 -2.0170  1.8430
24680SOL     OW83007   3.942   2.848  10.405  0.3161 -0.7203  0.3970
24680SOL    HW183008   4.022   2.861  10.456 -0.4106  1.1542  1.1332
24680SOL    HW283009   3.934   2.928  10.353 -1.2667 -0.7414  0.5837
24681SOL     OW83010   8.420   0.332   6.369 -0.4525 -0.7424  1.0056
24681SOL    HW183011   8.505   0.313   6.329 -0.5979  1.2727 -0.4432
24681SOL    HW283012   8.439   0.399   6.435 -1.0036  0.5542 -0.1018
24682SOL     OW83013   5.228   9.799  11.008 -0.3881  0.0726 -0.0820
24682SOL    HW183014   5.284   9.762  11.076 -0.3208  0.5732  0.1456
24682SOL    HW283015   5.270   9.773  10.925 -0.3654 -0.3770  0.0678
24683SOL     OW83016   0.398   0.632   9.446  0.1677 -0.2098  0.7336
24683SOL    HW183017   0.430   0.639   9.356 -1.2270 -0.6480  0.1852
24683SOL    HW283018   0.421   0.716   9.487  3.3827 -0.9992  0.8851
24684SOL     OW83019   3.676   9.286   5.779  0.8464  0.3181  0.4361
24684SOL    HW183020   3.690   9.268   5.686  0.2805  0.5728  0.2994
24684SOL    HW283021   3.662   9.200   5.818 -0.4765  0.3213  0.0160
24685SOL     OW83022   5.403  10.221   3.494  0.3912 -0.7622 -0.9018
24685SOL    HW183023   5.416  10.201   3.587  1.3468 -1.6082 -1.2071
24685SOL    HW283024   5.354  10.303   3.494  1.1547 -0.2827  0.3480
24686SOL     OW83025  10.113   9.745   8.049 -0.3361  0.1393 -0.5493
24686SOL    HW183026  10.047   9.687   8.087 -2.3495  0.4320 -3.3179
24686SOL    HW283027  10.144   9.698   7.971  1.4841  0.7808 -0.2584
24687SOL     OW83028   9.222   0.524   9.312  0.4744 -0.2892 -0.6308
24687SOL    HW183029   9.228   0.567   9.398 -2.0988  0.5116 -0.7535
24687SOL    HW283030   9.220   0.596   9.250  1.3567 -0.8327 -1.3053
24688SOL     OW83031   8.147   6.924   4.422  0.3338  0.0749 -0.3050
24688SOL    HW183032   8.129   6.890   4.334  1.0202 -0.3260 -0.2985
24688SOL    HW283033   8.241   6.909   4.435 -0.0090 -1.1804  1.0300
24689SOL     OW83034   2.942   9.660   9.890 -0.3639 -0.0209 -0.3980
24689SOL    HW183035   2.982   9.664   9.976 -1.2191 -1.3442  0.0972
24689SOL    HW283036   3.014   9.640   9.830 -0.0121 -0.6736  0.2391
24690SOL     OW83037   9.887   9.818   3.425 -0.4307 -0.2079  0.6210
24690SOL    HW183038   9.852   9.752   3.366  0.4299 -0.8541  0.8042
24690SOL    HW283039   9.967   9.778   3.461  0.3650  1.1056  0.3864
24691SOL     OW83040   6.346  12.097   2.442  0.2343 -0.1457  0.4073
24691SOL    HW183041   6.312  12.183   2.466  0.9578  0.9196 -2.0417
24691SOL    HW283042   6.401  12.114   2.365  1.6426 -2.5971  0.7829
24692SOL     OW83043   0.322   5.658   3.287 -0.0301  0.2768 -0.3495
24692SOL    HW183044   0.231   5.685   3.300  0.2497  1.7026 -1.0914
24692SOL    HW283045   0.318   5.563   3.279 -1.0701 -0.0563  2.6880
24693SOL     OW83046   6.796   0.556   1.999 -0.2717  0.3090  0.1619
24693SOL    HW183047   6.741   0.590   1.928 -2.4105  0.9994  2.0301
24693SOL    HW283048   6.809   0.464   1.977 -1.2502  0.3986 -0.9249
24694SOL     OW83049   0.403   8.722  11.643 -0.0507  0.4364  0.2705
24694SOL    HW183050   0.491   8.747  11.670 -0.9631  2.6303  1.4764
24694SOL    HW283051   0.403   8.626  11.647  2.1624  0.3961  0.5632
24695SOL     OW83052   4.138   1.965   3.514  0.8036 -0.1611 -0.0884
24695SOL    HW183053   4.087   1.945   3.435  1.5476 -0.5938 -0.4715
24695SOL    HW283054   4.228   1.974   3.482  1.0031  0.4099  0.6050
24696SOL     OW83055   1.791   1.339  10.463 -0.1731 -0.2382  0.0518
24696SOL    HW183056   1.859   1.370  10.524 -0.7805  0.4942  0.3676
24696SOL    HW283057   1.738   1.278  10.514 -1.4872  1.3731  0.6933
24697SOL     OW83058   0.487   3.429   1.233  0.4034 -0.0200  0.4748
24697SOL    HW183059   0.540   3.365   1.280 -1.0211 -1.5201  0.1203
24697SOL    HW283060   0.399   3.419   1.269 -0.1054  0.8874 -0.4494
24698SOL     OW83061   9.208  10.081   5.048  0.2174 -0.5236 -0.4773
24698SOL    HW183062   9.284  10.117   5.002  0.3973 -0.9005 -0.4715
24698SOL    HW283063   9.159  10.159   5.076  2.1692 -0.1131  2.2407
24699SOL     OW83064  11.551   2.953   7.837 -0.2278 -0.2921  0.0863
24699SOL    HW183065  11.507   3.033   7.809  2.6213  1.2337 -0.4013
24699SOL    HW283066  11.574   2.969   7.929 -2.6404 -2.0492  1.0850
24700SOL     OW83067   1.245  11.469   0.519  0.0975  0.2490 -0.0398
24700SOL    HW183068   1.175  11.404   0.510 -0.5541  1.1252 -1.7217
24700SOL    HW283069   1.284  11.474   0.432 -0.0457  2.2776 -0.0221
24701SOL     OW83070   3.931   4.274   5.143 -0.1328 -0.8564  0.6083
24701SOL    HW183071   3.933   4.193   5.093  2.3200 -0.1289 -0.6133
24701SOL    HW283072   3.927   4.246   5.234  0.2318 -2.3309  0.1971
24702SOL     OW83073   9.544   3.400   0.883 -0.0529  0.3340  0.0852
24702SOL    HW183074   9.473   3.382   0.945  0.0076  2.4576  0.8470
24702SOL    HW283075   9.568   3.314   0.849 -1.7403 -0.6322  1.1883
24703SOL     OW83076   8.684  10.755   6.052  0.3196 -0.6369 -0.5363
24703SOL    HW183077   8.756  10.784   6.108 -0.5167 -0.5385  0.5401
24703SOL    HW283078   8.667  10.830   5.994  0.8334 -0.5178 -0.5333
24704SOL     OW83079   8.986  11.539   8.419  0.4489 -0.0939  0.0218
24704SOL    HW183080   9.079  11.535   8.440  0.5743 -0.0091 -0.4934
24704SOL    HW283081   8.945  11.582   8.495  0.4023 -2.5746  1.5151
24705SOL     OW83082   2.585   4.534   0.324  1.0019  0.3969 -0.0926
24705SOL    HW183083   2.546   4.473   0.386 -1.8621  1.6138 -0.5538
24705SOL    HW283084   2.518   4.547   0.257  2.5324  2.0365 -1.4140
24706SOL     OW83085   3.873   1.436   7.124  0.4288  0.2610  0.3458
24706SOL    HW183086   3.827   1.480   7.196 -0.7824  0.7457 -0.6624
24706SOL    HW283087   3.828   1.468   7.046  1.5105 -0.4872 -0.6032
24707SOL     OW83088   3.200   9.325   4.816  0.9234  0.3331 -0.4648
24707SOL    HW183089   3.242   9.343   4.900 -1.0781  1.2663  0.4038
24707SOL    HW283090   3.227   9.235   4.795  0.9784 -0.1600  1.4872
24708SOL     OW83091   8.569   3.106   6.735 -0.2424  0.1317  0.1194
24708SOL    HW183092   8.581   3.196   6.705 -0.8241  0.4450  0.8205
24708SOL    HW283093   8.518   3.064   6.665 -0.4062  0.4774  0.0323
24709SOL     OW83094  11.444  11.854   2.397  0.4289  0.0972 -0.0777
24709SOL    HW183095  11.376  11.912   2.363 -0.0638 -0.8110 -0.6956
24709SOL    HW283096  11.470  11.802   2.322  0.3020 -1.0152  0.6267
24710SOL     OW83097  11.918   8.451   1.616 -0.3300  0.2427  0.4330
24710SOL    HW183098  11.941   8.533   1.660  0.7231 -0.5396  1.3742
24710SOL    HW283099  11.823   8.457   1.604 -0.4285  1.1070  1.5098
24711SOL     OW83100   9.477   8.495   3.840 -0.0406 -0.2816  0.0311
24711SOL    HW183101   9.457   8.441   3.764 -1.1749 -0.0877  0.1790
24711SOL    HW283102   9.395   8.500   3.888  0.5546 -0.0522  1.0538
24712SOL     OW83103   1.466   2.521   5.275 -0.0632  0.0482 -0.3647
24712SOL    HW183104   1.533   2.514   5.207 -0.5786 -1.3593 -0.7706
24712SOL    HW283105   1.486   2.603   5.321  1.0887  0.3485 -1.3570
24713SOL     OW83106   5.868   0.693   7.166  0.1117 -0.4460 -0.0983
24713SOL    HW183107   5.854   0.621   7.105  0.4158 -0.6742  0.0932
24713SOL    HW283108   5.935   0.660   7.226  0.8438  0.2952 -0.4954
24714SOL     OW83109   0.124   2.813  12.194 -0.4091  0.2170 -0.1316
24714SOL    HW183110   0.096   2.903  12.211 -1.0586 -0.2552  1.5097
24714SOL    HW283111   0.186   2.794  12.264  0.0393 -0.4847 -0.7079
24715SOL     OW83112   9.003   1.615   6.745 -0.7321  0.6228  0.1117
24715SOL    HW183113   8.939   1.592   6.812  0.8529 -1.1734  1.0731
24715SOL    HW283114   9.068   1.668   6.791  1.3336 -2.1086  0.5621
24716SOL     OW83115   7.856   4.385  10.952  0.0635  0.1358  0.3391
24716SOL    HW183116   7.800   4.355  11.024  1.5235  0.6318  1.7163
24716SOL    HW283117   7.934   4.332  10.958  0.5765  0.7900 -0.3382
24717SOL     OW83118  12.074   6.597  10.794  0.7114  0.1273 -0.2485
24717SOL    HW183119  12.109   6.585  10.882  0.0646 -1.1496 -0.1343
24717SOL    HW283120  11.983   6.623  10.808  0.3766 -0.8596 -0.5193
24718SOL     OW83121   2.013   2.231   5.268  0.0976 -0.0535 -0.0104
24718SOL    HW183122   2.106   2.236   5.250  0.2468 -1.6280  0.2454
24718SOL    HW283123   1.971   2.251   5.184  0.6778 -0.3715 -0.3796
24719SOL     OW83124   8.757  12.278   1.415  0.4361  0.4619  0.3746
24719SOL    HW183125   8.715  12.309   1.495  2.0469  0.1313  1.3883
24719SOL    HW283126   8.837  12.330   1.409  0.6041  0.0987 -0.7323
24720SOL     OW83127   7.578  10.638   5.165  0.2479  0.0278 -1.2540
24720SOL    HW183128   7.671  10.621   5.149 -0.2270 -2.7995 -1.5300
24720SOL    HW283129   7.577  10.708   5.229  2.5273  1.2074 -2.3897
24721SOL     OW83130   0.188   3.857   8.012  0.2912  0.3838 -0.2897
24721SOL    HW183131   0.237   3.936   8.037  1.9152 -0.5145 -0.5138
24721SOL    HW283132   0.209   3.844   7.920 -1.8391  0.9654 -0.9176
24722SOL     OW83133   8.752   6.357   5.060  0.4111 -0.5862 -0.0318
24722SOL    HW183134   8.832   6.408   5.043  0.3663 -0.2622  0.6969
24722SOL    HW283135   8.683   6.406   5.017  0.5509 -0.6787 -0.3650
24723SOL     OW83136   6.673   3.694   5.457 -0.0995 -0.3197 -0.5387
24723SOL    HW183137   6.663   3.784   5.426 -1.3113  0.3307  1.5125
24723SOL    HW283138   6.585   3.658   5.457  0.4310 -1.7123 -1.7753
24724SOL     OW83139   0.808   0.471   1.076 -0.6131  0.1167 -0.5647
24724SOL    HW183140   0.850   0.527   1.142 -1.2463 -0.1077  0.0402
24724SOL    HW283141   0.825   0.515   0.993  0.2048  0.4047 -0.2628
24725SOL     OW83142  10.327   2.440   6.918 -0.0950  0.0404  0.6605
24725SOL    HW183143  10.405   2.386   6.926  0.2718  0.1287 -1.6239
24725SOL    HW283144  10.258   2.391   6.963  0.6683 -1.3909  0.3140
24726SOL     OW83145   5.144   9.342   9.899  0.0148 -0.3106 -0.1953
24726SOL    HW183146   5.219   9.386   9.940  1.0902 -2.9160  0.8341
24726SOL    HW283147   5.067   9.385   9.938  0.9990  0.3977  1.0449
24727SOL     OW83148  11.109   7.149   3.177  0.0783  0.0761  0.5317
24727SOL    HW183149  11.118   7.184   3.088  1.4352  0.0376  0.6435
24727SOL    HW283150  11.018   7.117   3.180 -0.5740  1.7420 -0.2177
24728SOL     OW83151   6.282   8.628   6.363  0.4519 -0.0624 -0.9215
24728SOL    HW183152   6.218   8.678   6.313 -0.1059 -2.3036 -2.6337
24728SOL    HW283153   6.351   8.607   6.299  0.7897 -1.2066 -0.2195
24729SOL     OW83154   8.556   4.884   0.898 -0.2417 -0.4950  0.0120
24729SOL    HW183155   8.463   4.890   0.922 -0.5796 -0.5503 -1.2254
24729SOL    HW283156   8.571   4.959   0.841  0.2613 -0.9473 -0.4657
24730SOL     OW83157   1.535   6.902   5.762  0.1919 -0.0784 -0.2358
24730SOL    HW183158   1.446   6.932   5.746 -0.2608 -1.8600 -1.3988
24730SOL    HW283159   1.525   6.827   5.821  1.0152  0.2667  0.3674
24731SOL     OW83160   4.301   3.805  11.445  0.4599 -0.2567 -0.0376
24731SOL    HW183161   4.282   3.858  11.522 -2.8077 -1.6787  0.2887
24731SOL    HW283162   4.352   3.731  11.479  1.2645  0.4126  0.2528
24732SOL     OW83163   4.614  12.126   1.091  0.3530 -0.1522  0.2985
24732SOL    HW183164   4.531  12.126   1.044 -0.3029 -0.9910  1.4123
24732SOL    HW283165   4.617  12.211   1.135  0.2130 -0.0217  0.0579
24733SOL     OW83166   4.423   7.813   1.769  0.6489  0.1183  0.1447
24733SOL    HW183167   4.509   7.816   1.811  0.5718  0.2659  0.2962
24733SOL    HW283168   4.405   7.720   1.757  0.5379  0.0609  0.7257
24734SOL     OW83169   8.684  11.480   3.173 -0.1422 -0.1384 -0.0605
24734SOL    HW183170   8.727  11.398   3.149 -2.7994 -1.5353 -0.4412
24734SOL    HW283171   8.620  11.456   3.240 -0.3643  1.8051  0.5074
24735SOL     OW83172   7.890  11.841   8.092  0.3362  0.2357  0.7979
24735SOL    HW183173   7.876  11.766   8.035 -2.2848  1.5397 -0.4853
24735SOL    HW283174   7.966  11.818   8.145 -0.0525 -3.0794  0.1336
24736SOL     OW83175   6.575   9.601   5.192  0.2821 -0.0079 -0.5172
24736SOL    HW183176   6.495   9.653   5.180  1.0155  0.7846 -2.4338
24736SOL    HW283177   6.645   9.657   5.158  1.7816 -0.4593  1.6267
24737SOL     OW83178   1.922   6.801  10.013 -0.2984  0.5820  0.3029
24737SOL    HW183179   1.938   6.895  10.010 -0.0394  0.5227 -0.4597
24737SOL    HW283180   2.004   6.762   9.982 -1.3285  0.2107 -2.1926
24738SOL     OW83181   8.704   9.366   6.716  0.5406  0.2802  0.4778
24738SOL    HW183182   8.649   9.393   6.789 -0.1554 -0.6663  0.3176
24738SOL    HW283183   8.756   9.444   6.695  1.3932  0.3286  2.5379
24739SOL     OW83184   3.765   2.100   8.626  0.7979 -0.1160 -0.0390
24739SOL    HW183185   3.714   2.023   8.652 -0.3475  0.3954 -0.6957
24739SOL    HW283186   3.752   2.162   8.698  0.7677 -0.1094 -0.0505
24740SOL     OW83187   1.980  12.419   3.831  0.4847 -0.1549 -0.1270
24740SOL    HW183188   2.056  12.416   3.889 -0.1246  1.5596  0.8261
24740SOL    HW283189   2.003  12.362   3.758  3.0360  0.9787 -0.2954
24741SOL     OW83190  10.882   0.852   6.978  0.2972  0.2385  0.2876
24741SOL    HW183191  10.961   0.845   6.924 -0.9688 -0.5583 -1.5624
24741SOL    HW283192  10.903   0.803   7.057  1.7677  0.3121 -0.0312
24742SOL     OW83193   4.961   4.689   5.060  0.1260 -0.2563  0.1507
24742SOL    HW183194   4.985   4.742   5.136 -0.3835 -0.5120  0.4940
24742SOL    HW283195   5.027   4.619   5.058 -1.0327 -1.4736  1.6215
24743SOL     OW83196   7.629   2.128  10.890 -0.8464  0.0892  0.0112
24743SOL    HW183197   7.597   2.089  10.809 -1.2397 -0.3393  0.3745
24743SOL    HW283198   7.595   2.073  10.959  1.1140 -0.7230  0.4102
24744SOL     OW83199   9.143   9.077   4.889 -0.1324 -0.2364  0.3191
24744SOL    HW183200   9.147   9.152   4.949 -1.2196  0.7214 -0.7530
24744SOL    HW283201   9.218   9.089   4.831  1.0029 -1.2391  1.5105
24745SOL     OW83202   4.107   3.088   6.037  0.4129 -0.0117  0.1418
24745SOL    HW183203   4.131   3.086   6.130 -1.0875  1.1676  0.6040
24745SOL    HW283204   4.147   3.009   6.000  1.0409 -0.5115  1.7732
24746SOL     OW83205   0.271   6.374   5.111  0.3320  0.0629 -0.2015
24746SOL    HW183206   0.221   6.329   5.043 -0.2704 -0.9181  0.8654
24746SOL    HW283207   0.270   6.314   5.185  0.2569  1.4596  0.9643
24747SOL     OW83208  10.062   8.106  11.889  0.1740 -0.2941 -0.0872
24747SOL    HW183209  10.001   8.094  11.962  1.4623  0.3418  1.1251
24747SOL    HW283210  10.030   8.185  11.845 -0.8895 -0.9477 -0.5159
24748SOL     OW83211   8.849   0.942   3.978 -0.2742 -0.1915 -0.0747
24748SOL    HW183212   8.919   0.959   3.915 -0.0021 -0.7158  0.0834
24748SOL    HW283213   8.793   0.878   3.935 -1.2016  0.9426 -0.5963
24749SOL     OW83214  10.005   9.266  10.224  0.7911 -0.3973  0.4742
24749SOL    HW183215   9.932   9.218  10.185 -0.3429  0.6667  1.2022
24749SOL    HW283216  10.003   9.243  10.317 -0.3728  1.6672  1.0334
24750SOL     OW83217   1.155   4.566   2.482  0.4171  0.1236  0.0040
24750SOL    HW183218   1.156   4.513   2.403  0.0356 -1.7751  1.1984
24750SOL    HW283219   1.227   4.531   2.536  0.3018  0.9735  0.7385
24751SOL     OW83220   0.554  11.972   9.259  0.8789 -0.2672 -0.2697
24751SOL    HW183221   0.460  11.965   9.247  1.0407  1.1987 -3.4514
24751SOL    HW283222   0.583  12.033   9.191  4.0005  0.2555  1.3123
24752SOL     OW83223   8.086   3.560  11.500 -0.2861  0.4438 -0.1166
24752SOL    HW183224   8.129   3.480  11.529 -2.4989 -0.1074  1.9511
24752SOL    HW283225   8.069   3.547  11.407 -0.4799 -1.4468  0.1568
24753SOL     OW83226   6.471   6.003   0.316 -0.0549  0.5427  0.1743
24753SOL    HW183227   6.419   5.941   0.366 -1.3685  1.1906 -0.3551
24753SOL    HW283228   6.561   5.969   0.322 -0.6877 -1.2067  0.1586
24754SOL     OW83229   0.948   8.695   2.543 -0.5611  0.4049  0.4246
24754SOL    HW183230   0.899   8.738   2.474  1.7602 -0.0930 -1.6834
24754SOL    HW283231   0.948   8.758   2.615 -0.2380  2.4689 -1.2783
24755SOL     OW83232  10.530   1.387   4.708  0.0805 -0.0690 -0.5093
24755SOL    HW183233  10.446   1.355   4.675  0.4770 -1.0213 -0.6179
24755SOL    HW283234  10.579   1.413   4.630  0.7902 -1.7637 -0.6647
24756SOL     OW83235   8.831   7.833   6.763 -0.4907 -0.1123  0.2481
24756SOL    HW183236   8.834   7.740   6.782 -0.3927 -0.1792 -0.0756
24756SOL    HW283237   8.908   7.848   6.707 -0.3172  0.2254  0.5725
24757SOL     OW83238   2.442  11.130   7.751 -0.0263  0.1336 -0.9092
24757SOL    HW183239   2.418  11.068   7.819  1.0029  0.4713 -0.2139
24757SOL    HW283240   2.529  11.161   7.776 -0.6826  2.1919 -0.9947
24758SOL     OW83241   6.637  12.596   4.326  0.3731  0.1092 -0.1187
24758SOL    HW183242   6.660  12.570   4.236 -0.0219  0.5409 -0.3428
24758SOL    HW283243   6.615  12.513   4.369 -0.0863 -0.0261 -0.6051
24759SOL     OW83244  10.684   8.216   4.897 -0.2386  0.7025  0.0798
24759SOL    HW183245  10.730   8.298   4.876 -0.4566  0.5600 -1.0290
24759SOL    HW283246  10.627   8.239   4.970  0.4937  1.2631  0.4941
24760SOL     OW83247   2.017  10.523  11.623 -0.2104  0.7237 -0.0679
24760SOL    HW183248   2.008  10.434  11.589  2.8647  0.4513 -0.4428
24760SOL    HW283249   1.942  10.534  11.680 -0.4489 -2.2984  0.3704
24761SOL     OW83250   5.770   3.309   0.176  0.6067  0.5354  0.2049
24761SOL    HW183251   5.836   3.356   0.124  0.5193  1.0363  0.5412
24761SOL    HW283252   5.711   3.272   0.111  0.3598  1.3632 -0.0518
24762SOL     OW83253   8.462   7.424   1.775 -0.5742 -0.0157 -0.3352
24762SOL    HW183254   8.550   7.440   1.742 -1.0930  1.6711 -1.0385
24762SOL    HW283255   8.414   7.387   1.700 -0.7944  0.3348 -0.3733
24763SOL     OW83256   3.486   7.830   6.160 -0.5709 -0.5113 -0.8750
24763SOL    HW183257   3.543   7.776   6.106  0.1772 -1.5428  0.8701
24763SOL    HW283258   3.406   7.777   6.170  0.3521 -1.6086  1.2474
24764SOL     OW83259   4.780   2.244   5.956  0.3050  0.8078 -0.6372
24764SOL    HW183260   4.725   2.308   6.002 -1.4971 -0.0454 -1.5111
24764SOL    HW283261   4.731   2.221   5.878  1.1065 -1.3076 -0.6029
24765SOL     OW83262   6.826   1.729   9.001  0.0749 -0.9075 -0.0944
24765SOL    HW183263   6.908   1.694   8.966  0.1776 -1.1652  0.4073
24765SOL    HW283264   6.830   1.823   8.979  0.9878 -0.7122  0.8459
24766SOL     OW83265   4.499   9.698   6.484  0.2013 -0.6288 -0.2148
24766SOL    HW183266   4.594   9.695   6.467 -0.0274 -0.8763 -1.6023
24766SOL    HW283267   4.466   9.761   6.420 -0.7252 -1.4073 -0.5220
24767SOL     OW83268   4.474   7.826  12.497 -0.3928  0.7268 -0.3788
24767SOL    HW183269   4.430   7.903  12.536  0.8870  0.9885  0.6198
24767SOL    HW283270   4.464   7.838  12.403  0.1708  2.3933 -0.2650
24768SOL     OW83271   7.399   1.742   5.613  0.4827 -0.5018 -0.2811
24768SOL    HW183272   7.365   1.824   5.576 -0.3701 -1.8328 -2.6529
24768SOL    HW283273   7.321   1.692   5.636  0.9369  0.4483  4.1584
24769SOL     OW83274   5.890   9.976  12.083 -0.0836 -0.3901 -0.3640
24769SOL    HW183275   5.831   9.959  12.157 -1.1237 -1.8031 -1.4710
24769SOL    HW283276   5.836  10.025  12.021  0.7772  0.7638 -0.2266
24770SOL     OW83277  10.497   7.436   5.790  0.5684 -0.1354 -0.2557
24770SOL    HW183278  10.441   7.454   5.866 -0.9814  0.2540 -1.4501
24770SOL    HW283279  10.586   7.449   5.823 -0.0511 -0.2001  1.5497
24771SOL     OW83280   3.030   3.783   3.669 -0.1810 -0.0557 -0.3146
24771SOL    HW183281   3.063   3.769   3.581  1.2045 -0.8506  0.3086
24771SOL    HW283282   2.935   3.789   3.658 -0.0265 -0.0393 -1.8606
24772SOL     OW83283   4.616   5.857   7.658 -0.3353 -0.1756  0.1508
24772SOL    HW183284   4.618   5.934   7.715 -1.3718 -0.1772  0.2166
24772SOL    HW283285   4.539   5.807   7.687  0.1853 -1.1231 -0.0425
24773SOL     OW83286   8.548   1.536   4.189 -0.0279 -0.2316 -0.1608
24773SOL    HW183287   8.546   1.443   4.165  1.7347 -0.1667 -0.6511
24773SOL    HW283288   8.503   1.539   4.274  3.0872 -2.1615  1.7436
24774SOL     OW83289  11.299   0.937   5.661  0.2799 -0.0957  0.0544
24774SOL    HW183290  11.255   0.878   5.722 -0.4583  0.5725  0.1864
24774SOL    HW283291  11.308   0.887   5.580 -3.1608  0.5496 -0.8952
24775SOL     OW83292  10.926   4.139   7.515 -0.3525  0.8179 -0.1850
24775SOL    HW183293  10.934   4.044   7.523 -0.1807  0.6010 -2.3492
24775SOL    HW283294  10.833   4.153   7.495 -0.0480  0.9088 -1.6419
24776SOL     OW83295   6.175  10.233   1.819  0.5991 -0.2155  1.0682
24776SOL    HW183296   6.157  10.275   1.735 -1.7704  0.1450  1.6809
24776SOL    HW283297   6.162  10.139   1.802  3.3161 -0.5429  0.3315
24777SOL     OW83298   4.424   0.900   7.001 -0.0269 -0.0958 -0.4521
24777SOL    HW183299   4.354   0.884   7.064  0.0698  0.8589 -0.0916
24777SOL    HW283300   4.387   0.873   6.917 -0.3748 -0.7862 -0.0893
24778SOL     OW83301  12.387   6.835   0.990 -0.4128 -0.1414  0.5337
24778SOL    HW183302  12.302   6.810   0.953 -0.2430 -0.0047  0.0384
24778SOL    HW283303  12.427   6.752   1.015 -0.6800 -0.2091  0.7354
24779SOL     OW83304   5.948   0.648   2.834  0.3057 -0.2538 -0.1108
24779SOL    HW183305   6.033   0.660   2.876  0.3827  2.4626 -0.8083
24779SOL    HW283306   5.887   0.697   2.889 -0.3875 -0.2953 -0.8306
24780SOL     OW83307  10.127   0.939   1.331  0.3105 -0.7279  0.2962
24780SOL    HW183308  10.070   0.977   1.264  0.2319  1.4810  1.4941
24780SOL    HW283309  10.068   0.919   1.404  0.4495 -2.7400 -0.0988
24781SOL     OW83310   1.671   7.628   1.820 -0.1065 -0.0925 -0.3381
24781SOL    HW183311   1.625   7.699   1.774 -1.0531 -1.0749 -0.9648
24781SOL    HW283312   1.717   7.581   1.751 -0.2178 -0.6197 -0.0562
24782SOL     OW83313   1.857  10.335   9.589 -0.2451 -0.5138  0.4939
24782SOL    HW183314   1.844  10.248   9.551  0.3412 -1.1659  1.6956
24782SOL    HW283315   1.885  10.390   9.516 -0.5887 -1.3439 -0.2784
24783SOL     OW83316  12.321   1.731   3.693 -0.0207 -0.2196 -0.6791
24783SOL    HW183317  12.364   1.658   3.648  0.1643  1.0285 -2.7106
24783SOL    HW283318  12.374   1.747   3.770  1.2572 -0.8162 -1.4063
24784SOL     OW83319  10.587   3.623   5.426  0.1362  0.3159  0.3692
24784SOL    HW183320  10.653   3.676   5.470  1.7233 -0.9713 -0.3218
24784SOL    HW283321  10.586   3.541   5.475 -0.3656  0.0301 -0.1106
24785SOL     OW83322  11.855  10.498   6.510 -0.0747  0.3630  0.0891
24785SOL    HW183323  11.780  10.485   6.452  0.3422 -0.0177 -0.3709
24785SOL    HW283324  11.854  10.422   6.568 -1.7377  1.7300  2.0338
24786SOL     OW83325   6.297   4.864   1.478  0.3475 -0.1995  0.4602
24786SOL    HW183326   6.211   4.823   1.470  0.7439 -1.1898  1.0918
24786SOL    HW283327   6.348   4.826   1.406 -0.1637  1.5830 -0.9239
24787SOL     OW83328   8.413   2.871   7.183 -0.3526  0.1299 -0.7206
24787SOL    HW183329   8.417   2.780   7.155 -4.1276 -0.0317 -1.3093
24787SOL    HW283330   8.407   2.868   7.278 -1.3469 -0.3671 -0.7836
24788SOL     OW83331   2.578   7.063  11.653 -0.0324  0.2010 -0.1882
24788SOL    HW183332   2.647   7.016  11.699 -1.3596 -1.2617  0.4012
24788SOL    HW283333   2.588   7.037  11.562  0.6872  0.6622 -0.2506
24789SOL     OW83334   4.552  11.231   8.983  0.3990  0.4234  0.5472
24789SOL    HW183335   4.539  11.217   9.077 -0.0206  1.6221  0.6852
24789SOL    HW283336   4.647  11.226   8.971  0.7220  2.7926  1.5108
24790SOL     OW83337  11.808   8.011   6.798  0.4453  0.2404  0.2995
24790SOL    HW183338  11.876   8.064   6.840  0.8527  1.1362 -1.3661
24790SOL    HW283339  11.731   8.068   6.798  0.6131  0.4845 -0.6360
24791SOL     OW83340   1.716  12.215   9.442 -0.6964 -0.3102  0.1402
24791SOL    HW183341   1.637  12.207   9.390  0.0990  0.0331 -1.1565
24791SOL    HW283342   1.706  12.150   9.511 -2.9253  0.9920  1.1347
24792SOL     OW83343   2.433   3.458   0.981 -0.3345  0.3689  0.1122
24792SOL    HW183344   2.491   3.528   1.013 -0.8980  0.0543  1.9391
24792SOL    HW283345   2.489   3.404   0.926  0.9878  0.3914  1.3726
24793SOL     OW83346   4.969   8.678   1.586  0.4709  0.3091  0.5202
24793SOL    HW183347   4.904   8.742   1.556  0.6151 -0.2657 -1.1102
24793SOL    HW283348   5.051   8.726   1.587  0.4130  0.4177  0.2546
24794SOL     OW83349   6.555   6.737   1.288  0.1169 -0.5498  0.2003
24794SOL    HW183350   6.648   6.746   1.266  0.8548 -0.6047  2.9482
24794SOL    HW283351   6.553   6.668   1.355 -2.1081 -1.5440 -0.7791
24795SOL     OW83352   1.325   2.204   8.733  0.2111  0.0689  0.4304
24795SOL    HW183353   1.279   2.219   8.816 -0.9608 -2.7189  0.3979
24795SOL    HW283354   1.369   2.287   8.715 -1.5842  1.6053  2.5166
24796SOL     OW83355   5.693   7.675  12.020  0.3284  0.6925 -0.1070
24796SOL    HW183356   5.758   7.660  11.951 -0.3314  0.7549 -0.7498
24796SOL    HW283357   5.705   7.601  12.080 -0.0077 -0.1163 -1.0091
24797SOL     OW83358   1.853   4.836  11.440 -0.5829  0.4449  0.2378
24797SOL    HW183359   1.761   4.810  11.436 -0.6692  0.5737  1.1924
24797SOL    HW283360   1.851   4.929  11.460 -0.2515  0.2211  1.3922
24798SOL     OW83361   4.613   6.163   3.279 -0.3463  0.3539  0.4332
24798SOL    HW183362   4.558   6.138   3.354 -0.3143  0.7070  0.5748
24798SOL    HW283363   4.551   6.177   3.207 -0.4890  1.2361  0.7212
24799SOL     OW83364  12.574   9.497   5.512 -0.1097  0.0483  0.2924
24799SOL    HW183365  12.559   9.590   5.532  0.6095 -0.1546  1.9198
24799SOL    HW283366  12.653   9.474   5.561 -0.3770 -1.4752  0.0629
24800SOL     OW83367  11.959   2.477   9.702 -0.7022 -0.0109  0.2421
24800SOL    HW183368  12.043   2.430   9.698  0.4124  1.8705  0.2553
24800SOL    HW283369  11.941   2.485   9.796  0.0716  1.1582  0.3093
24801SOL     OW83370   0.669   3.802  11.075 -0.4021  0.0342  0.3489
24801SOL    HW183371   0.736   3.856  11.119 -1.2549  0.0128  1.7463
24801SOL    HW283372   0.719   3.736  11.028  0.5800 -0.4228  1.9466
24802SOL     OW83373   0.913  11.683   9.368  0.2744 -0.5389 -0.2595
24802SOL    HW183374   0.890  11.750   9.303 -1.0887 -1.1091 -0.3878
24802SOL    HW283375   0.950  11.611   9.317 -0.1909 -0.7202 -0.3487
24803SOL     OW83376   0.806   6.119   5.999  0.5810  0.4288  0.0625
24803SOL    HW183377   0.754   6.096   5.922  0.8428  1.5515 -0.4679
24803SOL    HW283378   0.842   6.205   5.978  0.7685  0.6845  1.3942
24804SOL     OW83379   4.941  11.642   4.087 -0.2833  0.0360  0.2624
24804SOL    HW183380   5.001  11.571   4.112 -0.7958 -0.2841  0.6311
24804SOL    HW283381   4.979  11.720   4.127 -0.7762 -0.3749  1.6117
24805SOL     OW83382  10.001   7.974   4.341 -0.3613  0.7955  0.0959
24805SOL    HW183383  10.046   8.040   4.393  3.4272 -1.2963 -0.1415
24805SOL    HW283384   9.930   7.944   4.397  0.3212  2.2685  1.8734
24806SOL     OW83385  12.272   2.964   5.036 -0.1375 -0.1653  0.6437
24806SOL    HW183386  12.245   2.953   5.127  0.9333  2.7215  1.4094
24806SOL    HW283387  12.323   2.885   5.017 -0.9023 -1.1223  2.3012
24807SOL     OW83388   4.777  11.368   7.096  0.3973  0.3212 -0.3677
24807SOL    HW183389   4.731  11.302   7.045  2.1144  0.1821 -1.8400
24807SOL    HW283390   4.708  11.417   7.141 -0.9980 -1.4064 -0.5464
24808SOL     OW83391   5.672   9.809   7.115  0.6336  0.3060  0.2042
24808SOL    HW183392   5.706   9.880   7.168 -0.2793  1.9167 -1.2713
24808SOL    HW283393   5.596   9.777   7.163  3.2260 -2.4590  2.8681
24809SOL     OW83394   8.357   6.286   2.425 -0.6672 -0.4287  0.1993
24809SOL    HW183395   8.326   6.362   2.375 -0.2419  0.4025  1.1609
24809SOL    HW283396   8.292   6.274   2.495  0.2383  0.2564  1.1899
24810SOL     OW83397  12.171   7.005   5.772  0.2847 -0.1797 -0.3580
24810SOL    HW183398  12.241   7.067   5.789  1.2502 -1.2470 -0.3345
24810SOL    HW283399  12.216   6.925   5.743 -0.8768 -1.1265  0.3781
24811SOL     OW83400   1.419   3.435   4.810  0.1475 -0.3887  0.1460
24811SOL    HW183401   1.515   3.440   4.806  0.0966  0.6070 -0.0928
24811SOL    HW283402   1.400   3.434   4.904  0.3483  1.0082  0.2319
24812SOL     OW83403   5.964   8.967   0.465 -0.2152  0.0888 -0.2895
24812SOL    HW183404   5.892   8.970   0.401 -0.5546  0.3558  0.1024
24812SOL    HW283405   5.921   8.946   0.548 -0.0823  1.8528  0.2765
24813SOL     OW83406   7.722   7.664   9.662  0.5375  0.7010  0.1869
24813SOL    HW183407   7.630   7.671   9.634  1.0901 -1.0045 -2.5337
24813SOL    HW283408   7.719   7.604   9.737 -0.5455  0.0044 -0.3711
24814SOL     OW83409   8.204   8.162  10.466 -0.2058  0.1344  0.0288
24814SOL    HW183410   8.137   8.212  10.513 -1.3288 -0.2907 -1.0482
24814SOL    HW283411   8.200   8.075  10.505 -2.0528 -0.5934 -1.6164
24815SOL     OW83412   6.985   3.132   2.595 -0.1327 -0.4185 -0.2441
24815SOL    HW183413   6.964   3.074   2.668 -1.9637  0.4037 -0.0648
24815SOL    HW283414   6.922   3.108   2.527 -0.1217  0.5555 -0.6078
24816SOL     OW83415   6.677   6.794   9.322 -0.0214 -0.3607 -0.1102
24816SOL    HW183416   6.622   6.759   9.252  0.1273 -1.7981  0.4467
24816SOL    HW283417   6.694   6.719   9.379  0.3673  0.6314  1.1373
24817SOL     OW83418  12.346  10.673   8.701  0.0927  1.1447 -0.7086
24817SOL    HW183419  12.409  10.602   8.704 -1.4115 -0.2185  0.0038
24817SOL    HW283420  12.399  10.753   8.702  1.7832  0.0872  1.4852
24818SOL     OW83421   8.592  10.867   3.016  0.0131 -0.7195 -0.1822
24818SOL    HW183422   8.684  10.884   3.036 -0.3999  0.7985  0.6050
24818SOL    HW283423   8.579  10.775   3.037  0.2643  0.0679  4.2992
24819SOL     OW83424   4.102   0.920   8.418 -0.3555  0.3392  0.6119
24819SOL    HW183425   4.138   0.919   8.329  0.2850 -0.0512  0.8697
24819SOL    HW283426   4.017   0.964   8.409 -0.1018  0.6908 -0.1137
24820SOL     OW83427  11.008   3.441   5.947 -0.7023 -0.2406  0.0769
24820SOL    HW183428  10.929   3.491   5.928 -0.1722  0.0477 -1.5242
24820SOL    HW283429  11.029   3.396   5.865  0.3424 -0.9437  0.7062
24821SOL     OW83430   1.854   5.831   2.632 -0.0524  0.0659 -0.2686
24821SOL    HW183431   1.795   5.883   2.687 -0.9509  0.4226 -1.5225
24821SOL    HW283432   1.872   5.887   2.556  0.7261 -0.6174 -0.6032
24822SOL     OW83433   0.893   3.172   1.227 -0.1779  0.6241  0.1954
24822SOL    HW183434   0.873   3.112   1.155 -1.4376  1.1016  0.1249
24822SOL    HW283435   0.907   3.257   1.184 -0.7736  0.8768  0.4894
24823SOL     OW83436   6.016  11.831  10.495 -0.5463 -0.3466  0.2466
24823SOL    HW183437   6.030  11.746  10.452 -0.6998  0.2385 -1.0244
24823SOL    HW283438   6.024  11.812  10.588  0.0865 -1.6335 -0.0374
24824SOL     OW83439  11.142  11.698   2.286 -0.5142 -0.4188  0.0090
24824SOL    HW183440  11.204  11.652   2.230 -1.0918 -2.1531  0.7141
24824SOL    HW283441  11.170  11.790   2.283  1.4127 -0.9735 -0.5315
24825SOL     OW83442   9.592  10.729   3.826 -0.6967  0.0867  0.6160
24825SOL    HW183443   9.577  10.650   3.879 -2.4790 -1.0413 -1.4163
24825SOL    HW283444   9.509  10.777   3.831 -1.1097 -0.3242 -1.5238
24826SOL     OW83445   3.655   0.865   5.845  0.1959  0.0807  0.5809
24826SOL    HW183446   3.731   0.819   5.809  0.0624 -0.3252  0.8119
24826SOL    HW283447   3.657   0.846   5.938 -0.0043  0.3401  0.6397
24827SOL     OW83448   3.571   3.018  11.006  0.6798 -0.3649  0.0752
24827SOL    HW183449   3.583   3.105  10.967  0.3148 -0.0808  0.5822
24827SOL    HW283450   3.622   2.959  10.950 -1.1908 -0.2522 -1.8488
24828SOL     OW83451  12.537   0.414   9.969 -0.7262 -0.3830 -0.7430
24828SOL    HW183452  12.461   0.439  10.021  0.8639 -1.0700  2.0876
24828SOL    HW283453  12.546   0.320   9.983  0.1827 -0.4565 -1.6906
24829SOL     OW83454  11.889   5.526  11.714 -0.7463  0.7564  0.2778
24829SOL    HW183455  11.932   5.479  11.785  0.1556  0.6188 -0.3559
24829SOL    HW283456  11.815   5.470  11.689  0.3782 -0.4003 -0.5478
24830SOL     OW83457   3.557   6.646   3.269 -0.5287  0.1669  0.2561
24830SOL    HW183458   3.600   6.562   3.255 -1.1761 -0.0647 -0.4239
24830SOL    HW283459   3.616   6.710   3.229 -0.4255 -0.0558  0.0471
24831SOL     OW83460   6.006   5.597   4.712 -0.3371  0.3549 -0.3337
24831SOL    HW183461   5.970   5.510   4.697 -2.8252  1.4056 -1.1352
24831SOL    HW283462   6.087   5.600   4.661  1.2685 -2.2729  1.7913
24832SOL     OW83463   3.851   2.850   5.183  0.6144  0.5055 -0.6280
24832SOL    HW183464   3.787   2.794   5.141  0.7041 -0.6414  0.7090
24832SOL    HW283465   3.810   2.876   5.266  1.0804  1.3982 -0.6607
24833SOL     OW83466   8.748   1.824  11.828 -0.0417  0.1716  0.6502
24833SOL    HW183467   8.727   1.731  11.826  1.7497 -0.2714  0.5384
24833SOL    HW283468   8.730   1.851  11.918  0.7835 -0.6461  1.0733
24834SOL     OW83469   6.009   9.474   9.726 -0.3266 -0.6106  0.8021
24834SOL    HW183470   5.987   9.388   9.689 -1.5740 -0.3817  0.9603
24834SOL    HW283471   6.026   9.457   9.819 -1.7302 -0.5342  1.0878
24835SOL     OW83472   8.345   0.232   8.344  0.6887  0.0943  0.1634
24835SOL    HW183473   8.318   0.273   8.262  1.1683  1.8661  0.8569
24835SOL    HW283474   8.313   0.142   8.337 -1.5024  0.8929 -0.8835
24836SOL     OW83475   1.765   2.542   2.189  0.1474 -0.1620 -0.3247
24836SOL    HW183476   1.722   2.593   2.120  0.4373 -0.2549 -0.5805
24836SOL    HW283477   1.746   2.451   2.167  1.0548 -0.2387 -0.8471
24837SOL     OW83478   5.531   8.093   4.822  0.6222  0.3919 -0.0982
24837SOL    HW183479   5.560   8.003   4.838 -1.5059 -0.6367 -1.4395
24837SOL    HW283480   5.452   8.102   4.876 -0.5437  0.5487 -1.7463
24838SOL     OW83481   9.322   6.891  10.058 -0.1423 -0.3119 -0.2303
24838SOL    HW183482   9.271   6.870   9.980 -0.6631 -0.1014  0.0502
24838SOL    HW283483   9.374   6.967  10.032 -1.0310  0.3635 -0.0790
24839SOL     OW83484   2.929  12.192  11.576 -0.1974 -0.1176 -0.1695
24839SOL    HW183485   2.972  12.222  11.656  1.7385 -2.7953 -0.0599
24839SOL    HW283486   2.941  12.264  11.514 -0.8878  1.6131  1.6069
24840SOL     OW83487   8.805   9.440  12.514  0.4889 -0.6607 -0.5329
24840SOL    HW183488   8.893   9.433  12.551  0.7261  0.8676 -0.7269
24840SOL    HW283489   8.765   9.355  12.529  1.4184 -0.8542  1.0508
24841SOL     OW83490   7.505   9.662   9.260 -0.1254 -0.0414 -0.1379
24841SOL    HW183491   7.492   9.591   9.197 -1.8987  0.0922  0.0186
24841SOL    HW283492   7.426   9.716   9.252  0.9273  1.6081  0.1549
24842SOL     OW83493   4.943  11.871   0.179 -0.2103 -0.6150 -0.2705
24842SOL    HW183494   4.963  11.939   0.243  1.4050 -2.1828  1.0086
24842SOL    HW283495   4.970  11.908   0.095  1.6953 -0.0247  0.5410
24843SOL     OW83496   4.779   7.393   4.106 -0.2088  0.3838 -0.4484
24843SOL    HW183497   4.758   7.462   4.169 -1.1595  0.4153 -0.7861
24843SOL    HW283498   4.873   7.404   4.089  0.1253  0.2393  1.1067
24844SOL     OW83499   0.696   0.898  11.002 -0.3703 -0.2409  0.3062
24844SOL    HW183500   0.696   0.878  10.908 -0.5113  0.3565  0.1702
24844SOL    HW283501   0.776   0.947  11.016 -0.2497 -0.5042  0.5404
24845SOL     OW83502   4.165   0.712   1.653  0.4087 -0.5890 -0.3310
24845SOL    HW183503   4.095   0.746   1.708  1.9126  3.0755 -0.3690
24845SOL    HW283504   4.221   0.663   1.713  1.2976  2.1877  1.3014
24846SOL     OW83505   4.807   4.324   2.981  0.4405 -0.3785  0.7616
24846SOL    HW183506   4.815   4.320   2.886 -0.0566  2.0206  0.5553
24846SOL    HW283507   4.718   4.294   2.999  0.3185 -0.2285  0.4118
24847SOL     OW83508  10.723   5.857  11.147  0.0796  0.3413 -0.4297
24847SOL    HW183509  10.812   5.834  11.120  0.5739  0.4024  1.0757
24847SOL    HW283510  10.705   5.939  11.102  1.4420  1.1944  0.5036
24848SOL     OW83511   0.473   8.341  10.022 -0.1625 -0.0686 -0.2852
24848SOL    HW183512   0.432   8.414  10.068  0.6407  0.3798 -0.2693
24848SOL    HW283513   0.491   8.276  10.090  2.6031  1.2820  0.4252
24849SOL     OW83514   1.544  10.107   7.332 -0.1009 -0.3958  0.2510
24849SOL    HW183515   1.541  10.168   7.259 -1.7211 -1.9827 -1.0932
24849SOL    HW283516   1.453  10.081   7.345  0.5968 -3.2359  0.1051
24850SOL     OW83517   8.932   2.712   1.140  0.0786  0.4178 -0.4358
24850SOL    HW183518   8.968   2.764   1.212 -0.4700 -1.0189  0.9495
24850SOL    HW283519   8.837   2.719   1.152 -0.0717  1.2804 -1.9004
24851SOL     OW83520   1.487  10.262   2.271 -0.2877 -0.2144  0.4899
24851SOL    HW183521   1.505  10.176   2.232 -0.0786  0.2159 -0.3875
24851SOL    HW283522   1.456  10.315   2.198  1.2327  0.9572  0.6529
24852SOL     OW83523   5.779  11.223   1.951 -0.1011  0.0621 -0.1328
24852SOL    HW183524   5.825  11.237   2.034 -0.9799  1.9673  0.0796
24852SOL    HW283525   5.827  11.151   1.909  1.1772 -0.0483  1.4086
24853SOL     OW83526   7.915   1.658   1.529  0.5641  0.0478  0.0392
24853SOL    HW183527   7.847   1.694   1.471 -0.7053 -0.2556  1.2853
24853SOL    HW283528   7.867   1.600   1.588  2.0234 -0.6682  0.5466
24854SOL     OW83529  11.585   5.030   9.519 -0.2083  0.2125 -0.5901
24854SOL    HW183530  11.639   4.966   9.566  0.6265  0.6578 -0.9173
24854SOL    HW283531  11.516   5.053   9.581 -0.1470 -0.5270 -0.2386
24855SOL     OW83532  10.803   1.396   2.927 -0.1732 -0.7623  0.5860
24855SOL    HW183533  10.848   1.437   2.853 -2.9104  0.0856 -0.7510
24855SOL    HW283534  10.846   1.311   2.937  1.0241 -0.4375 -1.2403
24856SOL     OW83535   7.376  10.859   5.571  0.3843  0.0707 -0.0526
24856SOL    HW183536   7.299  10.915   5.570 -0.0480 -0.4916 -2.4453
24856SOL    HW283537   7.353  10.787   5.630  0.2495  1.3885  1.5654
24857SOL     OW83538   9.829  11.510   2.714 -0.2089 -0.5448 -0.0163
24857SOL    HW183539   9.916  11.534   2.682 -0.4544 -0.3040 -0.5272
24857SOL    HW283540   9.773  11.517   2.636 -0.7144 -0.5154  0.3487
24858SOL     OW83541   7.112   4.745   9.752  0.4391  0.4074 -0.2525
24858SOL    HW183542   7.156   4.672   9.709  0.1214  0.3580 -0.4990
24858SOL    HW283543   7.139   4.739   9.844  0.1775 -0.2008 -0.2077
24859SOL     OW83544   0.067   0.947   7.217  0.0928 -0.1496  0.2906
24859SOL    HW183545   0.016   0.931   7.138 -1.2001  1.4919  0.7319
24859SOL    HW283546   0.158   0.945   7.188 -0.3649  0.7975 -1.3256
24860SOL     OW83547  11.520   0.405   8.166  0.1886  0.1925  0.3185
24860SOL    HW183548  11.613   0.384   8.171  0.5503  1.1019 -1.5905
24860SOL    HW283549  11.516   0.499   8.188 -0.2661  0.1667  0.3524
24861SOL     OW83550  12.432   6.798   9.935 -0.1179 -0.0318  0.0212
24861SOL    HW183551  12.358   6.746   9.967  0.3069 -1.4838 -1.2783
24861SOL    HW283552  12.395   6.854   9.868 -0.1988 -0.1259 -0.0128
24862SOL     OW83553   5.473   6.284   8.057 -0.5388 -0.3521 -0.2303
24862SOL    HW183554   5.560   6.268   8.020 -0.4784  0.1498 -0.3043
24862SOL    HW283555   5.480   6.258   8.148 -0.6056 -1.3218 -0.4876
24863SOL     OW83556   2.229   0.986  10.430  0.5715  0.9849 -0.4757
24863SOL    HW183557   2.246   0.896  10.457  2.8856  1.5798  0.3192
24863SOL    HW283558   2.190   1.027  10.507 -1.2900  0.5051 -1.1153
24864SOL     OW83559   5.276   4.599   6.936  0.0463  0.2175 -0.0482
24864SOL    HW183560   5.335   4.675   6.940  2.4755 -1.5915  0.3386
24864SOL    HW283561   5.236   4.605   6.850  1.5774  0.9732 -0.7519
24865SOL     OW83562   8.015   3.606   3.061 -0.0220 -0.1255 -0.0446
24865SOL    HW183563   7.996   3.632   2.971 -0.0983  1.0291  0.2838
24865SOL    HW283564   7.972   3.673   3.115 -0.2114 -0.9497  0.8585
24866SOL     OW83565   8.815   1.877   6.765 -0.5648 -0.0140 -0.3351
24866SOL    HW183566   8.885   1.909   6.822 -1.4797  1.8644 -0.1752
24866SOL    HW283567   8.759   1.824   6.822  0.3835 -1.0288 -0.3277
24867SOL     OW83568   3.798   0.147   6.031 -0.4631 -0.1899  0.5355
24867SOL    HW183569   3.801   0.210   5.959 -1.1979 -0.4311  0.2823
24867SOL    HW283570   3.886   0.147   6.067 -0.5405  1.2409  0.7712
24868SOL     OW83571   5.039   7.929   8.147 -0.1467  0.0443 -0.0049
24868SOL    HW183572   5.080   7.957   8.065  0.9020 -2.5421 -0.4562
24868SOL    HW283573   4.984   7.855   8.122 -0.4082 -0.3095  1.5356
24869SOL     OW83574   1.241   3.743   4.815  0.0687 -0.5812 -0.2555
24869SOL    HW183575   1.310   3.769   4.876 -0.7247 -0.5895  0.6741
24869SOL    HW283576   1.226   3.821   4.761  0.5609 -0.4691 -0.2365
24870SOL     OW83577  12.202  10.064   3.698  0.0743 -0.2871  0.4811
24870SOL    HW183578  12.123  10.055   3.752  0.0932  2.3904  1.0910
24870SOL    HW283579  12.274  10.055   3.759  0.3443 -2.8249 -0.0929
24871SOL     OW83580   6.895   7.988   0.029  0.3042 -0.2869 -0.1749
24871SOL    HW183581   6.932   8.045  -0.039 -0.1760  1.2013  0.7830
24871SOL    HW283582   6.807   7.968  -0.002  0.1219  0.3080 -0.0515
24872SOL     OW83583   5.977   1.613   0.213 -0.1671  0.4425  0.1155
24872SOL    HW183584   5.935   1.685   0.167  0.4333  0.0929 -1.0163
24872SOL    HW283585   6.067   1.611   0.180 -0.1097 -0.6800  0.2685
24873SOL     OW83586   4.881  10.446   4.289  0.5365 -0.2301 -0.2498
24873SOL    HW183587   4.910  10.360   4.260  0.6280 -0.0784 -0.6057
24873SOL    HW283588   4.900  10.504   4.216  0.3879  0.0767 -0.0475
24874SOL     OW83589   6.432   6.092   1.138 -0.3537  0.0189  0.2942
24874SOL    HW183590   6.416   6.180   1.173 -0.4718  0.3150 -0.4734
24874SOL    HW283591   6.369   6.084   1.066 -0.4164 -0.7381  0.4283
24875SOL     OW83592   0.568   5.418  11.901  0.3055 -0.1717  0.1492
24875SOL    HW183593   0.649   5.367  11.902  0.0258 -0.6138  0.4203
24875SOL    HW283594   0.523   5.391  11.821  0.6475  0.4349 -0.2583
24876SOL     OW83595   1.948   4.097   5.082 -0.4528 -0.0963 -0.3663
24876SOL    HW183596   1.917   4.152   5.154 -2.2572 -0.8315 -0.5381
24876SOL    HW283597   1.917   4.141   5.003 -0.3648 -0.4370 -0.5955
24877SOL     OW83598   3.830   8.367   0.690 -0.2935  0.5290 -0.0667
24877SOL    HW183599   3.795   8.409   0.769  1.5829  0.3167  0.9489
24877SOL    HW283600   3.809   8.428   0.619 -2.2857  0.5805  0.5214
24878SOL     OW83601  12.096   4.097   6.013  0.4424  0.4783  0.3400
24878SOL    HW183602  12.105   4.142   5.929 -0.5134 -0.0561 -0.0546
24878SOL    HW283603  12.066   4.010   5.990  1.6622 -0.1836  1.1446
24879SOL     OW83604   5.637   9.790  10.733 -0.4141  0.0259  0.2207
24879SOL    HW183605   5.592   9.709  10.758  0.4432 -0.3324  0.6672
24879SOL    HW283606   5.567   9.854  10.720 -1.0395 -0.5031  0.9212
24880SOL     OW83607   2.770   3.295   1.841 -0.1480 -0.6440  0.1948
24880SOL    HW183608   2.738   3.385   1.833  1.8211 -0.0388 -2.0327
24880SOL    HW283609   2.806   3.290   1.930 -0.8699  0.5312  0.5806
24881SOL     OW83610   3.878   2.323   3.127  0.2851  0.7796 -0.1459
24881SOL    HW183611   3.948   2.303   3.189  0.9793 -2.0189 -1.6276
24881SOL    HW283612   3.920   2.378   3.061  0.9824 -0.3438 -0.6792
24882SOL     OW83613  11.940   4.074   3.933 -0.0405 -0.6158  0.2368
24882SOL    HW183614  12.013   4.076   3.871 -0.8844 -1.5337 -0.8163
24882SOL    HW283615  11.975   4.116   4.012  1.4972 -0.6820 -0.3729
24883SOL     OW83616   1.654   1.146   0.979 -0.0819  0.2543  0.2780
24883SOL    HW183617   1.710   1.069   0.991  0.1239  0.1578 -1.1849
24883SOL    HW283618   1.616   1.161   1.066 -0.1897 -1.5425  0.5848
24884SOL     OW83619  10.772   9.772   7.316  0.3637  0.0311 -0.6338
24884SOL    HW183620  10.855   9.816   7.296 -0.1540  0.5659 -1.6713
24884SOL    HW283621  10.706   9.839   7.301 -0.2951 -0.5104 -0.1831
24885SOL     OW83622  10.569  12.152   3.086  0.1683 -0.1943  0.1828
24885SOL    HW183623  10.608  12.240   3.084  1.3736 -0.6855 -2.6498
24885SOL    HW283624  10.482  12.164   3.050  0.7588 -0.2668 -1.3548
24886SOL     OW83625   2.249   3.392   6.975  0.6366 -0.2255 -0.7108
24886SOL    HW183626   2.183   3.439   7.024  2.6680  0.2678  1.7672
24886SOL    HW283627   2.208   3.372   6.891 -2.1014  1.2520  0.1810
24887SOL     OW83628   5.292   8.834  11.152  0.3746  0.5163  0.1178
24887SOL    HW183629   5.276   8.879  11.069 -0.5128  0.1486  0.0783
24887SOL    HW283630   5.361   8.886  11.194  0.3979  1.0660 -0.5700
24888SOL     OW83631   0.985   0.474  10.643  0.0117  0.3728 -0.3917
24888SOL    HW183632   0.978   0.387  10.605 -1.8799  0.2390  0.1663
24888SOL    HW283633   0.923   0.474  10.716 -0.3169  2.3000 -0.6128
24889SOL     OW83634   0.099   0.662   1.535 -0.9006 -0.5975  0.5420
24889SOL    HW183635   0.062   0.685   1.621  2.0103 -0.5018  1.8762
24889SOL    HW283636   0.149   0.739   1.509 -0.7321 -1.0931 -0.6736
24890SOL     OW83637  11.570   7.560   2.332  0.1102 -0.2778  0.1540
24890SOL    HW183638  11.605   7.580   2.418  2.0793  1.2133 -0.9334
24890SOL    HW283639  11.519   7.637   2.308  3.5205  1.5426 -1.9164
24891SOL     OW83640  11.325   9.205   4.293  0.1209  0.6585 -0.3434
24891SOL    HW183641  11.242   9.157   4.284  0.0258 -0.0362  2.8775
24891SOL    HW283642  11.383   9.142   4.336  0.6486  2.6994  2.1431
24892SOL     OW83643   2.340   7.715   1.237  0.0962  0.0386 -0.0197
24892SOL    HW183644   2.334   7.800   1.281 -1.2979 -0.1486  0.1860
24892SOL    HW283645   2.327   7.734   1.144 -1.1858 -0.0320  0.1243
24893SOL     OW83646   7.217   3.561  11.587  0.2088 -0.5137 -0.2913
24893SOL    HW183647   7.249   3.605  11.666 -1.0770 -1.2515  0.6765
24893SOL    HW283648   7.286   3.575  11.523  0.1006  2.4636  0.0954
24894SOL     OW83649   4.539   7.726   4.334 -0.1452  0.1026  0.0712
24894SOL    HW183650   4.581   7.812   4.326 -1.0912  0.5933  0.2795
24894SOL    HW283651   4.457   7.735   4.285 -0.8343 -0.2864  1.1325
24895SOL     OW83652   3.021   2.055   2.641  0.1554 -0.5142  0.7895
24895SOL    HW183653   2.940   2.005   2.654  1.5253 -2.9477  0.5734
24895SOL    HW283654   3.058   2.020   2.560 -0.4978  3.4505 -1.4884
24896SOL     OW83655   5.443   9.562   4.573  0.3529  0.0991  0.3285
24896SOL    HW183656   5.455   9.468   4.587  1.9807  0.1969 -0.1897
24896SOL    HW283657   5.364   9.584   4.623 -1.6292 -2.0128 -1.5962
24897SOL     OW83658   0.771   2.447   1.798  0.0581  0.3720  0.1935
24897SOL    HW183659   0.853   2.451   1.847 -0.7485  0.7156  1.5689
24897SOL    HW283660   0.726   2.528   1.821 -1.2388 -0.4090  0.4925
24898SOL     OW83661  11.006   4.190   8.611 -0.2431  0.0420 -0.0614
24898SOL    HW183662  10.941   4.129   8.577 -0.7625 -0.3378  1.5083
24898SOL    HW283663  11.076   4.190   8.546 -1.5791  0.1031 -1.5634
24899SOL     OW83664   4.404   7.113  12.152  0.2300 -0.0150  0.6167
24899SOL    HW183665   4.342   7.120  12.079  0.3928 -1.4120  0.3100
24899SOL    HW283666   4.353   7.137  12.229 -0.2595  0.3767  0.1744
24900SOL     OW83667   0.537   6.991   9.308 -0.4641  0.2143 -0.3022
24900SOL    HW183668   0.519   7.076   9.268  0.1389  0.7453  0.5245
24900SOL    HW283669   0.498   6.996   9.395 -0.8194 -0.5287 -0.4068
24901SOL     OW83670   6.209  10.805   0.582 -0.4328 -0.6577 -0.3168
24901SOL    HW183671   6.180  10.713   0.576 -2.5371  0.0536 -3.2729
24901SOL    HW283672   6.160  10.840   0.656 -0.0163 -1.7322  0.5104
24902SOL     OW83673   1.676   5.491   5.348  0.3037 -0.1659 -0.0847
24902SOL    HW183674   1.667   5.396   5.336 -1.9562  0.2050 -2.0046
24902SOL    HW283675   1.593   5.518   5.387  0.9366  1.0233  0.4597
24903SOL     OW83676   3.885   8.326   5.427  0.3053  0.5439  0.2238
24903SOL    HW183677   3.821   8.339   5.357 -1.5957  0.0467  1.7900
24903SOL    HW283678   3.939   8.252   5.397 -0.9518 -0.1510 -0.3758
24904SOL     OW83679   4.084   5.843   9.071 -0.0842 -0.2116  0.2999
24904SOL    HW183680   4.178   5.848   9.052 -0.2254  1.5292 -0.0563
24904SOL    HW283681   4.080   5.791   9.152  1.1542 -0.5696  0.1612
24905SOL     OW83682   5.560  11.163  12.582 -0.3436 -1.1065  0.0376
24905SOL    HW183683   5.591  11.230  12.644  1.0490 -0.2354 -1.5153
24905SOL    HW283684   5.468  11.149  12.606 -2.1187  4.3868 -1.9894
24906SOL     OW83685   7.163   5.242   2.535 -0.0101 -0.9460 -0.2236
24906SOL    HW183686   7.255   5.266   2.523  0.0215 -1.2749 -0.6311
24906SOL    HW283687   7.138   5.285   2.617 -0.6998  2.7676 -2.1680
24907SOL     OW83688  10.914   0.330   4.948 -0.0814 -0.0182  0.1137
24907SOL    HW183689  10.830   0.289   4.968 -0.3621  0.2161 -0.5566
24907SOL    HW283690  10.977   0.258   4.951 -0.4902 -0.4105 -0.5442
24908SOL     OW83691  11.721  12.077  11.566 -0.6597  0.5172  0.0270
24908SOL    HW183692  11.705  11.995  11.520  1.4212  0.2548 -0.3450
24908SOL    HW283693  11.754  12.051  11.652 -1.3977  1.0010  0.4755
24909SOL     OW83694   9.453  12.017  10.404  0.8342  0.4846  0.4716
24909SOL    HW183695   9.476  12.052  10.318  0.2986  0.2870  0.2438
24909SOL    HW283696   9.534  11.979  10.438  0.9703  0.2713 -0.0897
24910SOL     OW83697  11.085   3.059   2.347 -0.2920 -0.4243 -0.6644
24910SOL    HW183698  11.019   3.098   2.405 -0.4223 -0.8168 -0.5472
24910SOL    HW283699  11.059   2.967   2.339 -0.7535 -0.2072 -1.9950
24911SOL     OW83700   2.015   4.176   8.187 -0.0994 -0.1799  0.2116
24911SOL    HW183701   2.045   4.199   8.099 -0.3763  0.0998  0.1882
24911SOL    HW283702   1.929   4.135   8.174 -0.1600 -0.1015  0.3529
24912SOL     OW83703  12.594   9.493   0.449 -0.1016  0.0522 -0.3240
24912SOL    HW183704  12.543   9.568   0.419 -0.8426 -0.9452 -1.6545
24912SOL    HW283705  12.538   9.451   0.514  0.3888  0.7213  0.5550
24913SOL     OW83706   5.085   5.324   8.215 -0.1016  1.2134  0.0497
24913SOL    HW183707   5.006   5.373   8.238  0.1292  1.1424  1.0241
24913SOL    HW283708   5.080   5.314   8.119 -2.1043 -0.2056  0.2356
24914SOL     OW83709   2.893   9.532   5.107 -0.3524  0.6438  0.1838
24914SOL    HW183710   2.798   9.523   5.114 -0.4082 -1.7402 -2.3092
24914SOL    HW283711   2.918   9.473   5.037  3.1317  0.5042  1.3564
24915SOL     OW83712   4.561   5.018   8.659 -0.2947 -0.0587 -0.0595
24915SOL    HW183713   4.593   5.090   8.712  0.8230 -1.2263  0.9194
24915SOL    HW283714   4.627   5.006   8.592 -1.5723  1.2335 -1.6345
24916SOL     OW83715   1.512   2.320   4.032  0.1961 -0.0425  0.1057
24916SOL    HW183716   1.459   2.279   3.964 -0.5356 -0.0197  0.6568
24916SOL    HW283717   1.533   2.249   4.093  0.9267 -0.0817 -0.1795
24917SOL     OW83718   6.067   8.706  10.605  0.4201 -0.2702 -0.3739
24917SOL    HW183719   6.116   8.635  10.646 -0.6506 -1.7034 -1.4712
24917SOL    HW283720   5.984   8.708  10.653  0.8941  1.1398  0.4824
24918SOL     OW83721   4.462   8.673   3.836 -0.0493 -0.0654  0.4581
24918SOL    HW183722   4.548   8.692   3.875 -0.8154 -0.1820  2.3012
24918SOL    HW283723   4.459   8.578   3.831 -0.5575 -0.1344  1.6531
24919SOL     OW83724   5.181   9.010   2.258 -0.1959  0.1694  0.0502
24919SOL    HW183725   5.190   9.103   2.276 -0.9793  0.1363  0.6973
24919SOL    HW283726   5.107   8.982   2.313  3.0711 -1.8915  3.9755
24920SOL     OW83727   0.940   3.098   0.135 -0.0783  0.5153  0.5180
24920SOL    HW183728   0.972   3.177   0.090  0.9339  0.1066  0.4887
24920SOL    HW283729   0.895   3.048   0.068 -0.1340  0.7514  0.3784
24921SOL     OW83730   2.243   7.372   2.020 -0.2597  0.5803  0.6963
24921SOL    HW183731   2.237   7.463   1.991 -1.1174  0.4663  0.4997
24921SOL    HW283732   2.214   7.373   2.111 -0.5253  0.4601  0.6125
24922SOL     OW83733   4.089   2.609  10.347  0.2055  0.1266 -0.6113
24922SOL    HW183734   4.020   2.547  10.371  0.9245 -0.7904 -0.8531
24922SOL    HW283735   4.069   2.687  10.398 -0.4232 -0.4803  0.1117
24923SOL     OW83736   1.970   5.507   4.425 -0.2277 -0.1696 -0.2796
24923SOL    HW183737   2.026   5.495   4.502  0.6565  1.9205 -0.5233
24923SOL    HW283738   1.924   5.424   4.415  1.0080 -1.1109  1.4072
24924SOL     OW83739   1.780   6.148   8.177  0.1910 -0.0113 -0.1409
24924SOL    HW183740   1.685   6.157   8.178 -0.2208 -3.2484  0.6043
24924SOL    HW283741   1.807   6.188   8.094 -1.7319  1.2562 -0.2153
24925SOL     OW83742  10.274  11.458  11.319 -0.2120  0.4342 -0.6832
24925SOL    HW183743  10.190  11.479  11.278 -0.1935  2.2076  0.0903
24925SOL    HW283744  10.340  11.484  11.255 -0.1951 -1.2536 -1.4237
24926SOL     OW83745  11.208  10.140   2.912  0.5323  0.1606  0.6183
24926SOL    HW183746  11.143  10.108   2.850  1.9553  0.6474 -1.2171
24926SOL    HW283747  11.216  10.070   2.977 -2.0997  0.2806  1.2119
24927SOL     OW83748   4.146   3.035  12.400 -0.4225  0.0876  0.1115
24927SOL    HW183749   4.101   2.951  12.391  1.4659 -0.9345 -0.1492
24927SOL    HW283750   4.098   3.080  12.470 -2.7309 -0.3002 -1.1013
24928SOL     OW83751   8.394   4.321   1.369 -0.1864  0.2526 -0.3745
24928SOL    HW183752   8.303   4.317   1.398  0.1627 -0.3085  0.7249
24928SOL    HW283753   8.443   4.347   1.448  0.5158  1.4338 -1.1603
24929SOL     OW83754   3.117  10.517   8.625  0.2057  0.2767 -0.5216
24929SOL    HW183755   3.113  10.563   8.541  1.1274  1.8768  0.2836
24929SOL    HW283756   3.208  10.521   8.651  0.0308 -0.7071  0.3178
24930SOL     OW83757   4.809   5.600  12.413 -0.0641  0.0888 -0.1028
24930SOL    HW183758   4.895   5.641  12.426 -0.3740  0.9161 -0.5970
24930SOL    HW283759   4.808   5.578  12.320  0.0883 -1.0381  0.1528
24931SOL     OW83760   9.849   9.393   3.904  0.1211  0.3617 -0.2402
24931SOL    HW183761   9.847   9.298   3.898  1.2378  0.3656 -1.0451
24931SOL    HW283762   9.829   9.412   3.996  2.2044 -0.7739  0.5169
24932SOL     OW83763   6.710   6.284   7.220  0.0370  0.4151 -0.0539
24932SOL    HW183764   6.680   6.323   7.138 -1.1380 -0.4051 -0.0383
24932SOL    HW283765   6.648   6.212   7.237  0.7234  0.0737  1.1428
24933SOL     OW83766   3.578   9.991   0.199  0.6024  0.7939  0.0270
24933SOL    HW183767   3.667   9.971   0.227  0.1953 -0.5972  0.4160
24933SOL    HW283768   3.568  10.085   0.216  1.5971  0.7251  1.1083
24934SOL     OW83769   1.837   5.877   1.458 -0.1044  0.5994 -0.5123
24934SOL    HW183770   1.744   5.878   1.478  0.3432  0.5816  1.7697
24934SOL    HW283771   1.872   5.955   1.501  1.5754 -1.5438  2.2958
24935SOL     OW83772   2.823  12.201   5.591  0.3156  0.1319 -0.7187
24935SOL    HW183773   2.907  12.191   5.637 -0.7570 -0.1624  1.3193
24935SOL    HW283774   2.810  12.117   5.547 -0.0478 -0.8122  1.0750
24936SOL     OW83775   6.809   2.337  10.562  0.3037 -0.4278 -0.0526
24936SOL    HW183776   6.851   2.257  10.529  2.0465  0.6421 -0.5937
24936SOL    HW283777   6.769   2.376  10.484 -0.5742 -0.7635  0.2177
24937SOL     OW83778   2.152   0.237   4.882 -0.1579 -0.3847  0.2379
24937SOL    HW183779   2.131   0.166   4.943 -0.1600 -0.5708  0.0231
24937SOL    HW283780   2.235   0.210   4.842 -0.4409 -0.5458 -0.2579
24938SOL     OW83781   0.627  11.608   6.947 -0.1672  0.4726 -0.5306
24938SOL    HW183782   0.631  11.521   6.986  2.6256  0.8714  0.2421
24938SOL    HW283783   0.624  11.591   6.853  2.8444 -0.5668 -0.5494
24939SOL     OW83784   5.108   1.182   8.101 -0.0230  0.2208 -0.0254
24939SOL    HW183785   5.052   1.151   8.029 -0.8902 -0.5220  0.9354
24939SOL    HW283786   5.092   1.276   8.105  0.2920  0.3315 -1.0069
24940SOL     OW83787   8.466   2.372   8.276 -0.8292  0.1484  0.3042
24940SOL    HW183788   8.404   2.347   8.207 -0.8863  1.4967 -0.1656
24940SOL    HW283789   8.413   2.378   8.355 -1.2630  1.0064 -0.0366
24941SOL     OW83790   9.242   2.862   5.468 -0.4437 -0.1247  0.1004
24941SOL    HW183791   9.304   2.825   5.531 -0.5571 -0.8268 -0.1873
24941SOL    HW283792   9.255   2.956   5.474  0.7678 -0.2620 -0.0570
24942SOL     OW83793   2.873   9.017  10.688 -0.5152 -0.3794 -0.5510
24942SOL    HW183794   2.915   9.076  10.626  0.6624  0.2158  0.7700
24942SOL    HW283795   2.905   8.930  10.664  0.1148 -0.1294 -0.6232
24943SOL     OW83796   0.573   9.983   1.931 -0.5792  0.0586  0.2137
24943SOL    HW183797   0.664   9.958   1.946 -0.9337 -1.3723  0.0827
24943SOL    HW283798   0.523   9.937   1.998 -0.9312  3.8433  2.9156
24944SOL     OW83799   3.662   8.598  12.186 -0.1759  0.2362  0.1799
24944SOL    HW183800   3.570   8.587  12.160  0.2128 -0.9978 -0.7304
24944SOL    HW283801   3.685   8.686  12.154 -0.8284  0.2530 -0.2647
24945SOL     OW83802  11.921   6.499   0.442  0.3525  0.0929 -0.5125
24945SOL    HW183803  11.994   6.442   0.415 -1.2628 -1.8397 -1.0586
24945SOL    HW283804  11.904   6.474   0.533 -1.0163 -1.1049 -1.0619
24946SOL     OW83805  10.037   1.373   7.143  0.0876 -0.3147  0.1672
24946SOL    HW183806  10.037   1.295   7.088 -1.0694 -0.4262  0.2897
24946SOL    HW283807   9.953   1.369   7.190  0.0334  0.9658  0.2198
24947SOL     OW83808  10.160   4.057   8.907 -0.3701 -0.2547  0.0253
24947SOL    HW183809  10.195   4.146   8.907  1.9814 -1.1138 -0.7579
24947SOL    HW283810  10.088   4.059   8.845 -0.2383  1.0545 -0.1095
24948SOL     OW83811   3.017  12.543   9.402 -0.3259 -0.2738 -0.3914
24948SOL    HW183812   2.979  12.571   9.486 -0.3327 -0.3815 -0.3587
24948SOL    HW283813   2.990  12.452   9.393 -0.0035 -0.3749 -0.3297
24949SOL     OW83814   3.205   6.601   1.819 -0.3836  0.2254 -0.3304
24949SOL    HW183815   3.181   6.591   1.726  0.1524  2.6515 -0.7947
24949SOL    HW283816   3.300   6.597   1.820 -0.4037 -0.4705  0.2606
24950SOL     OW83817   3.047   5.500   6.424 -0.0719 -0.1412  0.4076
24950SOL    HW183818   3.008   5.415   6.445  1.2440 -0.2560  2.6420
24950SOL    HW283819   2.972   5.559   6.413 -0.9567 -1.2524  0.3606
24951SOL     OW83820   9.128   1.754  11.589  0.3237 -0.9278 -0.7485
24951SOL    HW183821   9.153   1.846  11.593  1.2206 -1.1728 -0.6224
24951SOL    HW283822   9.111   1.730  11.680  1.6391 -1.2963 -0.5805
24952SOL     OW83823   7.104   4.509   7.847 -0.2631  0.2108  0.2427
24952SOL    HW183824   7.071   4.420   7.840 -0.8653  0.5324 -1.1085
24952SOL    HW283825   7.026   4.564   7.849  0.1266  0.7798  0.0498
24953SOL     OW83826   3.664   5.954   9.002  0.3505 -0.1846 -0.7082
24953SOL    HW183827   3.747   5.967   8.956 -0.3920 -0.7653 -2.2759
24953SOL    HW283828   3.597   5.959   8.934 -0.9421  0.3600  0.5292
24954SOL     OW83829   0.990  11.485   9.559 -0.0947  0.2780  0.3605
24954SOL    HW183830   0.935  11.549   9.512 -0.3682  0.1883  0.5535
24954SOL    HW283831   0.957  11.400   9.531  0.1553  0.2213  0.2364
24955SOL     OW83832  10.686  11.777  10.005  0.6433  0.1093 -0.0343
24955SOL    HW183833  10.693  11.870  10.028 -0.4279  0.3969 -0.7736
24955SOL    HW283834  10.739  11.768   9.926 -1.3050  0.7127 -1.4955
24956SOL     OW83835   3.743   7.814   3.087 -0.9938 -0.3995  0.4203
24956SOL    HW183836   3.699   7.863   3.018 -0.8311  0.9880  1.2646
24956SOL    HW283837   3.684   7.819   3.162 -0.1401  0.1454  1.0843
24957SOL     OW83838   7.225   4.587  11.549 -0.1892  1.0696  0.1427
24957SOL    HW183839   7.131   4.572  11.539  0.1708  0.3881 -3.0221
24957SOL    HW283840   7.266   4.502  11.536  0.9528  1.6003  0.0833
24958SOL     OW83841   8.566   3.727   4.040  0.4401  0.0175 -0.0880
24958SOL    HW183842   8.473   3.749   4.048 -0.2241 -2.8669  1.6142
24958SOL    HW283843   8.566   3.633   4.019  2.9900  0.1482 -0.9572
24959SOL     OW83844  10.920   0.804   1.081 -0.0718  0.0427 -0.5261
24959SOL    HW183845  10.865   0.820   1.004 -1.1111 -0.4037  0.0900
24959SOL    HW283846  10.883   0.725   1.120 -0.0669  0.7055  0.8682
24960SOL     OW83847   0.841   4.858   1.994  0.3323  0.3978  0.1226
24960SOL    HW183848   0.902   4.790   2.021  0.6630  1.2004  1.4651
24960SOL    HW283849   0.798   4.885   2.075 -0.4148  1.1914 -0.5222
24961SOL     OW83850   9.474   8.369   0.227  0.1745  0.6654  0.0405
24961SOL    HW183851   9.395   8.345   0.276  0.6380 -1.3967 -0.1116
24961SOL    HW283852   9.484   8.299   0.163  2.0322  0.9656 -0.0609
24962SOL     OW83853   9.513  12.370   2.205 -0.6279  0.4603  0.6063
24962SOL    HW183854   9.460  12.413   2.138 -0.1814  0.3818  0.1960
24962SOL    HW283855   9.475  12.282   2.212 -1.3318  0.8008  1.2122
24963SOL     OW83856   5.279   5.081   9.904 -0.3756 -0.1377  0.2371
24963SOL    HW183857   5.218   5.064   9.833 -1.1814 -0.8114  1.0746
24963SOL    HW283858   5.346   5.138   9.865 -0.8486 -0.4214 -1.0234
24964SOL     OW83859  10.458   6.165   7.070 -0.2924 -0.0275 -0.1512
24964SOL    HW183860  10.406   6.105   7.123  0.1612 -0.4464 -0.1657
24964SOL    HW283861  10.487   6.112   6.996 -0.5769  0.4410 -0.5966
24965SOL     OW83862   3.296   5.534   1.840 -0.0932  0.2623 -0.2689
24965SOL    HW183863   3.258   5.474   1.776  0.7986  0.0342 -0.5973
24965SOL    HW283864   3.356   5.589   1.788  0.1076  0.5442  0.2531
24966SOL     OW83865   1.288  12.064   4.710 -0.1274 -0.2148  0.8553
24966SOL    HW183866   1.349  11.999   4.744 -0.6377 -0.4468  1.3443
24966SOL    HW283867   1.266  12.032   4.622  3.0400  1.6175 -0.7965
24967SOL     OW83868  12.524   9.112  10.410 -0.6279 -0.0215  0.7806
24967SOL    HW183869  12.589   9.181  10.424 -1.1110  0.3238  1.4154
24967SOL    HW283870  12.475   9.140  10.333 -0.2308 -0.1284  0.4840
24968SOL     OW83871   0.236   5.328   1.997  0.0279 -0.2789 -0.0639
24968SOL    HW183872   0.238   5.420   1.970  1.2954  0.4484  2.2761
24968SOL    HW283873   0.221   5.331   2.091 -0.4355 -2.5239 -0.0232
24969SOL     OW83874   4.075   0.533   0.639  0.7166 -0.0394 -0.2378
24969SOL    HW183875   4.022   0.567   0.567 -0.8824 -1.1143  0.3616
24969SOL    HW283876   4.054   0.589   0.713 -0.7401 -1.2857  0.3579
24970SOL     OW83877   4.332   4.405   7.713  0.1546  0.4035 -0.1937
24970SOL    HW183878   4.303   4.493   7.690 -3.1430  0.2174  2.5539
24970SOL    HW283879   4.259   4.348   7.687  1.2895 -1.2466  0.0549
24971SOL     OW83880   7.279   9.976   6.963  0.0700  0.0794 -0.0611
24971SOL    HW183881   7.352   9.922   6.932 -1.6271 -1.3013 -1.9342
24971SOL    HW283882   7.316  10.064   6.973  2.5805 -1.0433  1.6744
24972SOL     OW83883   5.176   9.524  10.625 -0.0332  0.1839 -0.1321
24972SOL    HW183884   5.088   9.538  10.661  0.5546 -0.8263  1.8193
24972SOL    HW283885   5.231   9.588  10.670  0.4658 -0.0605 -0.3854
24973SOL     OW83886   3.398   8.059   6.342  0.2938  0.2629  0.1408
24973SOL    HW183887   3.431   8.045   6.253  0.5644 -2.1887  0.5532
24973SOL    HW283888   3.309   8.091   6.330  0.1122 -0.6112 -1.0217
24974SOL     OW83889   7.712   6.839   9.195 -0.3722  0.1510  0.1329
24974SOL    HW183890   7.652   6.845   9.120 -1.0756  0.1324  0.6825
24974SOL    HW283891   7.798   6.861   9.158 -0.8207  0.8809 -0.5356
24975SOL     OW83892   8.497   5.434   1.666  0.1772 -0.4246 -0.5800
24975SOL    HW183893   8.489   5.448   1.761  0.4507 -0.7401 -0.5041
24975SOL    HW283894   8.498   5.339   1.657  0.7923 -0.3950 -0.8407
24976SOL     OW83895   7.311   4.237  12.551  0.7838 -0.0449  0.1925
24976SOL    HW183896   7.267   4.257  12.469  0.2638 -0.7789  0.2836
24976SOL    HW283897   7.242   4.243  12.618  0.6811 -1.7194  0.2670
24977SOL     OW83898   4.250   1.333   3.958  0.0714 -0.2709 -0.2119
24977SOL    HW183899   4.276   1.401   4.020  0.0499 -1.9323  1.7287
24977SOL    HW283900   4.331   1.306   3.915 -0.1201  2.0087 -2.2472
24978SOL     OW83901   5.863   2.760   3.301 -0.1923  0.5265  0.0928
24978SOL    HW183902   5.832   2.792   3.385  1.0041  1.3961  0.2212
24978SOL    HW283903   5.954   2.734   3.317 -0.5008 -1.0079 -0.5070
24979SOL     OW83904  12.443   9.011  12.015  1.1050  0.2514 -0.2245
24979SOL    HW183905  12.502   9.038  11.945  1.5010  1.2545  0.4790
24979SOL    HW283906  12.356   9.031  11.981  1.2074 -0.4073 -0.9075
24980SOL     OW83907   5.407   2.102   9.763  0.0229 -0.0960  0.3885
24980SOL    HW183908   5.374   2.137   9.846  1.2388  1.6122  0.2031
24980SOL    HW283909   5.502   2.105   9.772  0.1735 -0.2073 -0.9511
24981SOL     OW83910   7.974   8.231   7.269  0.5510 -0.2655  0.0756
24981SOL    HW183911   7.954   8.304   7.211  1.3138 -0.6627 -0.7028
24981SOL    HW283912   7.891   8.183   7.276  0.1316  0.4807  0.3393
24982SOL     OW83913   4.695   4.760   8.914  0.0716  0.2702  0.0821
24982SOL    HW183914   4.680   4.853   8.931  2.1634  0.5081  0.9307
24982SOL    HW283915   4.686   4.751   8.819 -0.8906  1.1858  0.0755
24983SOL     OW83916   7.475  11.838  12.267  0.6914  0.1015  0.1177
24983SOL    HW183917   7.498  11.745  12.258  1.1668  0.0779  1.3487
24983SOL    HW283918   7.486  11.856  12.360 -3.0919  0.4546  0.6420
24984SOL     OW83919   3.068   2.887   6.888  0.7718 -0.0101  0.0843
24984SOL    HW183920   3.132   2.882   6.817  2.4143  1.1213  1.4076
24984SOL    HW283921   3.096   2.819   6.949  1.5476  1.3195  1.2719
24985SOL     OW83922   2.596   0.383  11.347  0.0542 -0.4554  0.3069
24985SOL    HW183923   2.629   0.354  11.432 -0.9373 -0.7120  0.6228
24985SOL    HW283924   2.593   0.304  11.294  0.2999 -0.3642  0.1533
24986SOL     OW83925   2.568  11.728   9.463 -0.1415  0.3204  0.2773
24986SOL    HW183926   2.590  11.752   9.553 -3.3708 -0.7673  1.4780
24986SOL    HW283927   2.509  11.798   9.434  1.1446  0.8574 -1.2101
24987SOL     OW83928  12.237   2.384   5.131  0.3763 -0.1219 -0.0850
24987SOL    HW183929  12.267   2.473   5.152  1.9254 -0.3733 -1.1026
24987SOL    HW283930  12.209   2.390   5.040  0.9527 -0.7764 -0.3119
24988SOL     OW83931   0.921   8.091   3.345 -0.5480 -0.3570  0.3137
24988SOL    HW183932   0.913   8.131   3.431  1.6339 -0.0732  0.4470
24988SOL    HW283933   0.954   8.002   3.363 -1.3849 -0.7839 -0.1849
24989SOL     OW83934  11.333   7.096   8.026  0.1325  0.2118  0.1153
24989SOL    HW183935  11.261   7.135   8.076 -0.2860 -0.5216  0.0906
24989SOL    HW283936  11.397   7.070   8.092  0.7789  1.6291  0.0893
24990SOL     OW83937  12.208  11.425   1.538  1.0812  0.0054 -0.3028
24990SOL    HW183938  12.113  11.416   1.523  0.9642 -0.7785  0.7928
24990SOL    HW283939  12.240  11.467   1.459  0.1274 -1.5994 -1.6102
24991SOL     OW83940   6.188   8.187   3.930 -0.3668  0.1500  0.0154
24991SOL    HW183941   6.170   8.235   4.011  2.4754  0.7386  0.4100
24991SOL    HW283942   6.147   8.240   3.861  2.2646  3.1453  0.4739
24992SOL     OW83943   7.807  10.126   2.388  0.3582  0.1166 -0.1839
24992SOL    HW183944   7.749  10.161   2.455  1.0346 -0.4548  0.7115
24992SOL    HW283945   7.852  10.054   2.430  0.6243 -0.4067 -1.3298
24993SOL     OW83946   1.591   5.994   4.169  0.2542  0.2409 -0.3320
24993SOL    HW183947   1.557   5.996   4.080  0.2675  0.9775 -0.3310
24993SOL    HW283948   1.678   6.033   4.163  0.1716  0.4898  0.0348
24994SOL     OW83949   9.324   2.385   2.123  0.0967 -0.5610  1.1276
24994SOL    HW183950   9.315   2.413   2.214  2.5909  0.4961  1.1347
24994SOL    HW283951   9.367   2.299   2.128  0.6695 -0.2922  0.9735
24995SOL     OW83952   0.315   2.933   4.408  0.7829  0.3668  0.4899
24995SOL    HW183953   0.270   2.900   4.486 -0.5387  0.1163 -0.3480
24995SOL    HW283954   0.284   3.023   4.399 -0.3200 -0.1019 -0.6245
24996SOL     OW83955   7.615   0.319   1.013 -0.1713 -0.0823 -0.1132
24996SOL    HW183956   7.620   0.317   0.917 -0.7306 -0.9687 -0.1415
24996SOL    HW283957   7.652   0.235   1.040  0.0065  0.1747  0.4572
24997SOL     OW83958   7.790   3.687   5.122  1.0625 -0.1611  0.4076
24997SOL    HW183959   7.757   3.601   5.094 -1.7169 -0.4023  3.7828
24997SOL    HW283960   7.878   3.668   5.156  1.3512 -1.2001 -0.8050
24998SOL     OW83961   7.837   9.615  11.304  0.2198 -0.7888  0.0098
24998SOL    HW183962   7.922   9.609  11.262  0.4070 -3.1586  0.5907
24998SOL    HW283963   7.774   9.620  11.232  0.8146  1.6567 -0.4196
24999SOL     OW83964   6.555   4.151   7.029  0.3206 -0.2585  0.0155
24999SOL    HW183965   6.616   4.095   7.077 -0.4833 -0.2740  1.0508
24999SOL    HW283966   6.508   4.199   7.097  1.1465  1.8774 -0.8294
25000SOL     OW83967   9.698   8.849   0.177  0.3945 -0.3046 -0.4368
25000SOL    HW183968   9.748   8.909   0.122 -0.3724  1.0001  0.2309
25000SOL    HW283969   9.755   8.833   0.252  0.9986 -1.2306 -1.0635
25001SOL     OW83970   6.370   3.658  12.009 -0.0803  0.1892  0.5512
25001SOL    HW183971   6.395   3.637  11.919 -2.4535  0.5638 -0.2857
25001SOL    HW283972   6.371   3.574  12.055  1.2396  0.0063  0.2098
25002SOL     OW83973   7.832   5.475   3.831  0.3692 -0.0977 -0.0581
25002SOL    HW183974   7.857   5.497   3.742  1.5352 -0.2293  0.2181
25002SOL    HW283975   7.775   5.398   3.822 -2.1104  1.7207 -0.8774
25003SOL     OW83976  11.960   5.885   2.945  0.1275  0.1461 -0.0487
25003SOL    HW183977  11.991   5.794   2.946  0.8744  0.3399  2.7933
25003SOL    HW283978  11.957   5.908   2.852 -0.3916 -2.8528 -0.9039
25004SOL     OW83979   3.822   9.915  10.188 -0.1417  0.1163 -0.4520
25004SOL    HW183980   3.893   9.973  10.213  0.5984 -0.4108 -1.2358
25004SOL    HW283981   3.776   9.962  10.119 -0.5249  0.4362  0.0193
25005SOL     OW83982   0.910   1.837  12.458  0.5457 -0.0160  0.1897
25005SOL    HW183983   0.938   1.753  12.495 -0.9638 -1.3136 -1.4331
25005SOL    HW283984   0.835   1.815  12.402  2.0926  1.8927 -2.9122
25006SOL     OW83985  12.183   9.976   5.730 -0.7220 -0.3810 -0.0306
25006SOL    HW183986  12.092  10.004   5.738 -0.3924  0.6150  0.4544
25006SOL    HW283987  12.232  10.058   5.724  0.0884 -0.9179 -0.9755
25007SOL     OW83988  11.718   8.160   8.276  0.2492 -0.2390  0.2435
25007SOL    HW183989  11.649   8.102   8.244 -1.2474  1.3074  0.5389
25007SOL    HW283990  11.798   8.126   8.236 -1.1717  0.2329 -3.4122
25008SOL     OW83991   6.174  10.542   8.424  0.0781  0.1322 -0.3694
25008SOL    HW183992   6.254  10.586   8.397  0.9925 -0.8257  0.6754
25008SOL    HW283993   6.107  10.574   8.363  0.9271  2.0472 -0.3819
25009SOL     OW83994  11.525   3.167  10.201 -0.3203 -0.6978  0.8110
25009SOL    HW183995  11.588   3.139  10.267  1.5653  2.7238  0.6671
25009SOL    HW283996  11.574   3.164  10.119 -0.3170  1.7352  0.6508
25010SOL     OW83997   3.460   0.706   1.808 -0.0154 -0.2849 -0.2220
25010SOL    HW183998   3.401   0.661   1.868  1.0037 -0.5375  0.6284
25010SOL    HW283999   3.480   0.789   1.851  0.3270 -0.2442 -0.4555
25011SOL     OW84000   4.298   7.581   8.409  0.0905  0.0972  0.2421
25011SOL    HW184001   4.253   7.619   8.485  0.6147  0.1423  0.5371
25011SOL    HW284002   4.336   7.500   8.443  1.4026  0.7416  0.3685
25012SOL     OW84003   4.254   9.591   9.428 -0.0825 -0.0488  0.0354
25012SOL    HW184004   4.263   9.512   9.376 -2.3040 -1.5518  1.7428
25012SOL    HW284005   4.251   9.560   9.519  2.6169  2.3537  1.0987
25013SOL     OW84006   4.280   0.933   3.144 -0.4368 -0.2004 -0.4139
25013SOL    HW184007   4.243   0.846   3.162 -1.9124  0.8771  2.4377
25013SOL    HW284008   4.317   0.960   3.228 -0.2065  2.0094 -1.1787
25014SOL     OW84009   1.098   2.522   2.749  0.0671 -0.0856 -0.1693
25014SOL    HW184010   1.114   2.590   2.815  0.8827 -1.0156  0.6208
25014SOL    HW284011   1.003   2.514   2.745  0.0166 -0.6645  1.5977
25015SOL     OW84012   0.920   7.714   1.645 -0.0492  0.0187  0.2887
25015SOL    HW184013   0.929   7.702   1.740 -1.7937 -1.7566  0.3121
25015SOL    HW284014   0.837   7.761   1.636  0.0732  0.1059 -0.3792
25016SOL     OW84015   8.373   2.965   6.547 -0.1466  0.2092 -0.0428
25016SOL    HW184016   8.374   2.911   6.468 -0.4458  3.5700 -2.5467
25016SOL    HW284017   8.288   2.948   6.586 -0.6907 -0.3086 -1.3897
25017SOL     OW84018   7.282   1.875  10.519 -0.2014 -0.2889  0.6651
25017SOL    HW184019   7.323   1.799  10.478  0.0851 -0.3802  1.0992
25017SOL    HW284020   7.277   1.851  10.612 -1.8513 -0.5457  0.5439
25018SOL     OW84021   4.744   9.708   6.220  0.7841 -0.1602  0.0298
25018SOL    HW184022   4.773   9.795   6.191 -0.0496  0.5237  1.1575
25018SOL    HW284023   4.739   9.715   6.315  0.7266 -1.4658  0.1354
25019SOL     OW84024  12.368  12.445   6.349 -0.5037 -0.2195 -0.4892
25019SOL    HW184025  12.343  12.523   6.400 -0.3046 -1.2957  1.3515
25019SOL    HW284026  12.384  12.378   6.415  2.2879 -1.0194 -1.8497
25020SOL     OW84027  11.362   0.717   4.377  0.1486 -0.4585  0.2328
25020SOL    HW184028  11.349   0.789   4.314 -0.1231  0.2709  1.1029
25020SOL    HW284029  11.405   0.758   4.451 -1.7496 -0.7655  1.5681
25021SOL     OW84030   1.375   8.404   2.723 -0.7909  0.5480  0.3122
25021SOL    HW184031   1.354   8.417   2.631 -2.3111 -0.2530  0.5149
25021SOL    HW284032   1.350   8.313   2.741  1.0533  0.1510  1.1239
25022SOL     OW84033   0.298   5.996   9.249 -0.3417  0.5105  0.7685
25022SOL    HW184034   0.209   6.017   9.220 -0.4587 -0.0534  0.7209
25022SOL    HW284035   0.353   6.023   9.175 -0.2610  2.7472  1.5690
25023SOL     OW84036   8.958   7.850  11.079 -0.1746  0.0158 -0.3885
25023SOL    HW184037   8.921   7.938  11.088 -0.4626  0.2444 -2.8625
25023SOL    HW284038   9.052   7.862  11.091 -0.4556  0.1256  2.0753
25024SOL     OW84039   3.724   5.992   1.887  0.1175 -0.0424  0.7241
25024SOL    HW184040   3.745   5.998   1.794 -0.9140  2.3599  0.5596
25024SOL    HW284041   3.654   5.926   1.892  0.0626 -0.0656 -0.2257
25025SOL     OW84042   7.405  10.107   5.109 -0.1184  0.6121 -0.4633
25025SOL    HW184043   7.479  10.151   5.151  0.6479 -0.0189 -1.1166
25025SOL    HW284044   7.383  10.165   5.035  0.7219  0.0571 -1.1686
25026SOL     OW84045   8.366   7.126   1.394 -0.5378 -0.1851  0.0428
25026SOL    HW184046   8.295   7.064   1.411 -0.9187 -0.3538 -1.9430
25026SOL    HW284047   8.433   7.074   1.349 -0.7158  0.7386 -1.3404
25027SOL     OW84048   2.911   8.920   2.180  0.2204  0.2473 -0.3350
25027SOL    HW184049   2.857   8.940   2.257 -0.0312 -0.9331 -0.1823
25027SOL    HW284050   3.001   8.927   2.212  0.1201 -1.2363  0.3792
25028SOL     OW84051   5.560  12.527   9.942 -0.4386  0.1922 -0.1124
25028SOL    HW184052   5.603  12.581  10.009  1.6769 -0.5110 -0.8318
25028SOL    HW284053   5.481  12.494   9.985  0.0904  0.9668  1.5320
25029SOL     OW84054   9.184  10.099   8.688 -0.4741  0.5364 -0.1004
25029SOL    HW184055   9.268  10.141   8.710 -0.3166  0.2833 -0.2083
25029SOL    HW284056   9.170  10.036   8.759  0.0757 -0.3401 -0.7471
25030SOL     OW84057   3.246  10.399   6.893 -0.1240 -0.5205 -0.1367
25030SOL    HW184058   3.264  10.346   6.971 -1.8402 -0.4727  0.3477
25030SOL    HW284059   3.156  10.429   6.906  0.2474  1.1622 -1.1862
25031SOL     OW84060   2.323  10.525   4.036 -0.0880 -0.2959 -0.4033
25031SOL    HW184061   2.372  10.600   4.067  0.1788 -0.6354  0.0056
25031SOL    HW284062   2.349  10.515   3.944 -0.3801  0.3070 -0.5539
25032SOL     OW84063   6.171   0.422  12.115  0.3599 -0.2185 -0.0918
25032SOL    HW184064   6.247   0.449  12.063  0.5250 -0.1766  0.1668
25032SOL    HW284065   6.178   0.473  12.196  0.5136 -0.8139  0.2802
25033SOL     OW84066   7.041   2.504   0.012  0.1537 -0.4430  0.9216
25033SOL    HW184067   7.021   2.420   0.053 -1.1522 -1.5378 -1.7136
25033SOL    HW284068   7.133   2.496  -0.014  0.7377 -0.0680  2.7455
25034SOL     OW84069   1.010  10.541   5.752  0.0764 -0.0071 -0.9378
25034SOL    HW184070   0.994  10.627   5.790 -1.3799 -1.5782  2.4788
25034SOL    HW284071   1.067  10.558   5.677 -0.8559  3.9481 -0.9816
25035SOL     OW84072   3.904   7.185   0.891 -0.3397  0.1543 -0.0931
25035SOL    HW184073   3.958   7.246   0.841  2.0761  0.3172  2.4657
25035SOL    HW284074   3.860   7.240   0.956  0.9048 -0.5742  1.4431
25036SOL     OW84075   1.845   6.189   8.944 -0.1535 -0.4635 -0.3361
25036SOL    HW184076   1.899   6.255   8.987 -0.1644 -0.3813 -0.4478
25036SOL    HW284077   1.765   6.235   8.919  0.0440 -0.3981 -0.8541
25037SOL     OW84078   9.469   3.301   7.283  0.0491  0.1986  0.3801
25037SOL    HW184079   9.437   3.211   7.277 -1.0425  0.4231  2.1657
25037SOL    HW284080   9.563   3.294   7.270 -0.0751 -1.1518  0.0882
25038SOL     OW84081  10.536   1.946  10.172  0.5347 -0.3293 -0.0547
25038SOL    HW184082  10.522   1.899  10.254  1.0200  0.7943  0.7027
25038SOL    HW284083  10.450   1.985  10.152 -0.1674 -2.3634 -1.2742
25039SOL     OW84084   9.372   0.481   6.923  0.1131 -0.4088  0.0803
25039SOL    HW184085   9.446   0.447   6.872  0.4784 -0.3247  0.5509
25039SOL    HW284086   9.313   0.406   6.932  0.2442 -0.5346 -0.1043
25040SOL     OW84087   2.971   8.169   0.456  0.3629 -0.2566 -0.1273
25040SOL    HW184088   3.004   8.201   0.540 -2.0529  1.2970  0.3421
25040SOL    HW284089   2.967   8.247   0.401  1.6739 -1.2189 -1.6393
25041SOL     OW84090   4.430  10.691   1.977 -0.2987  0.5222 -0.4715
25041SOL    HW184091   4.472  10.641   2.047  0.7108  0.6951 -0.9293
25041SOL    HW284092   4.357  10.637   1.948 -0.1032 -0.0139  0.0297
25042SOL     OW84093   5.040  11.191   6.566 -0.2322 -0.2275 -0.0891
25042SOL    HW184094   5.103  11.123   6.589 -1.8388 -1.5048  0.6930
25042SOL    HW284095   5.083  11.239   6.494  1.5749 -1.0803  0.3468
25043SOL     OW84096   9.640   8.458   5.309 -0.3199 -0.6070 -0.3802
25043SOL    HW184097   9.689   8.540   5.305 -1.9348  0.5010  1.1274
25043SOL    HW284098   9.570   8.468   5.245 -0.9690 -0.4959  0.3438
25044SOL     OW84099   2.349   0.360   4.668  1.1552 -0.6050  0.1354
25044SOL    HW184100   2.407   0.351   4.744  2.8546  0.6967 -0.9361
25044SOL    HW284101   2.399   0.325   4.595 -0.2479 -1.3401 -0.5167
25045SOL     OW84102   6.221   1.193   3.670  0.1162  0.0114 -0.5157
25045SOL    HW184103   6.215   1.197   3.575  0.7821 -1.0756 -0.6294
25045SOL    HW284104   6.284   1.123   3.687 -0.5392 -0.3123  0.7396
25046SOL     OW84105   7.520   0.111   1.764  0.4212  0.0540  0.4555
25046SOL    HW184106   7.593   0.113   1.826 -0.9432  0.8399  2.1295
25046SOL    HW284107   7.509   0.202   1.736 -0.2779  0.0537  0.6999
25047SOL     OW84108   8.949   8.144   5.088  0.4017 -0.2818  0.1088
25047SOL    HW184109   8.979   8.057   5.064  1.1440  0.3975 -1.5768
25047SOL    HW284110   8.860   8.130   5.121  0.4831 -1.6657 -0.1862
25048SOL     OW84111  11.170   3.878   9.626 -0.0455  0.0449  0.3296
25048SOL    HW184112  11.194   3.961   9.586  1.5116 -0.9132 -0.8339
25048SOL    HW284113  11.245   3.857   9.683 -0.5314 -0.4624  0.7906
25049SOL     OW84114   2.228  11.041  10.672  0.2755 -0.7808  0.5369
25049SOL    HW184115   2.289  11.021  10.600 -0.9798  2.9121 -1.8534
25049SOL    HW284116   2.146  11.000  10.645 -0.9452  2.6975 -1.8448
25050SOL     OW84117   5.338   8.503   1.520 -0.2721  0.0932 -0.5231
25050SOL    HW184118   5.298   8.588   1.537  1.1338  0.5745  0.5340
25050SOL    HW284119   5.275   8.440   1.556 -0.7782  0.7516 -0.2260
25051SOL     OW84120   9.715   0.720  10.262  0.1978  0.1454 -0.8006
25051SOL    HW184121   9.660   0.798  10.272  0.7777  0.4193  0.4897
25051SOL    HW284122   9.733   0.715  10.168 -1.5806  0.3450 -1.1987
25052SOL     OW84123   4.981   0.804   6.481  0.2740  0.2819 -0.2937
25052SOL    HW184124   4.900   0.789   6.432  0.5217 -0.6303 -0.4404
25052SOL    HW284125   5.011   0.890   6.451 -0.4279  0.4525 -0.5334
25053SOL     OW84126  10.571   0.108   9.231  0.2072 -0.2639 -0.2814
25053SOL    HW184127  10.648   0.073   9.277 -0.5713  0.6227  1.7898
25053SOL    HW284128  10.502   0.109   9.297 -1.5892 -0.9292 -2.0727
25054SOL     OW84129   6.517  11.041   6.117  0.3110  0.4578  0.6853
25054SOL    HW184130   6.542  10.979   6.049  2.0799  0.8274  0.9608
25054SOL    HW284131   6.504  10.987   6.195 -1.0302  0.1193  0.2539
25055SOL     OW84132   7.933   8.853   6.668  0.4148 -0.1797  0.2564
25055SOL    HW184133   8.022   8.855   6.705  0.6810  0.4776 -0.3936
25055SOL    HW284134   7.897   8.939   6.687 -0.0337 -0.3983  0.3940
25056SOL     OW84135   6.072   8.186   1.263  0.1467  1.0152 -0.2080
25056SOL    HW184136   6.165   8.196   1.285  0.1570  1.5423 -0.4986
25056SOL    HW284137   6.028   8.254   1.314 -0.4348 -0.9876  2.1721
25057SOL     OW84138   7.249   3.780   1.106 -0.3642 -0.4252 -0.0310
25057SOL    HW184139   7.264   3.690   1.135 -1.2113 -0.0197  1.8251
25057SOL    HW284140   7.160   3.779   1.070 -0.5346 -0.2577  0.3769
25058SOL     OW84141  12.515   9.170   8.741  0.0604 -0.2304 -0.7181
25058SOL    HW184142  12.523   9.170   8.646 -0.5428 -3.9006 -0.9013
25058SOL    HW284143  12.442   9.111   8.760 -0.0823  0.6443  2.0625
25059SOL     OW84144   4.547  10.580   5.369 -0.4251  0.2693  0.1650
25059SOL    HW184145   4.557  10.674   5.382 -0.8553  0.4308 -0.5952
25059SOL    HW284146   4.627  10.554   5.321 -0.5967  0.3678 -0.1793
25060SOL     OW84147  11.903   9.915   6.182  0.2271  0.2033  0.6822
25060SOL    HW184148  11.971   9.980   6.201  0.9018 -0.2515 -0.1166
25060SOL    HW284149  11.950   9.842   6.142 -0.8132  0.1554 -0.5128
25061SOL     OW84150   2.032   9.381  10.004 -0.2263 -0.1594 -0.0242
25061SOL    HW184151   2.104   9.378   9.941  1.1052 -2.3750  1.4535
25061SOL    HW284152   1.953   9.375   9.950  0.6826  1.4270 -1.6405
25062SOL     OW84153   3.643   3.138   8.528  0.8950  0.4911 -0.5103
25062SOL    HW184154   3.599   3.212   8.486  0.6348 -0.3661 -1.8017
25062SOL    HW284155   3.600   3.129   8.613  0.8508  1.7288 -0.3840
25063SOL     OW84156  12.060   8.706   5.039 -0.1324 -0.2131 -0.4403
25063SOL    HW184157  12.060   8.667   4.951  0.3112 -0.7180 -0.2189
25063SOL    HW284158  12.042   8.799   5.024  0.5943 -0.1768 -1.1130
25064SOL     OW84159   4.901   1.779   3.357  0.2521  0.2927  0.0562
25064SOL    HW184160   4.985   1.749   3.393  0.4899 -0.2989 -0.9682
25064SOL    HW284161   4.882   1.718   3.287 -0.8508  0.6714  0.0165
25065SOL     OW84162  12.488   2.426  11.250 -0.8048  0.2882 -0.4542
25065SOL    HW184163  12.452   2.368  11.316  1.0619 -1.1758 -0.6333
25065SOL    HW284164  12.513   2.505  11.297 -1.0322 -0.0738  0.2796
25066SOL     OW84165   5.312  11.083   9.782 -0.4819  1.0022  0.0672
25066SOL    HW184166   5.274  11.048   9.863  0.4476 -0.4108 -0.0730
25066SOL    HW284167   5.401  11.109   9.807 -0.4694  1.3374 -0.3156
25067SOL     OW84168   7.259   2.563   6.948  0.2015  0.3124  0.1166
25067SOL    HW184169   7.269   2.497   7.017  0.5676 -0.3009 -0.5143
25067SOL    HW284170   7.295   2.522   6.869 -1.7189  0.3460 -0.8457
25068SOL     OW84171   7.364   9.677   5.607  1.0052  0.1208 -0.1959
25068SOL    HW184172   7.382   9.603   5.665 -0.8930 -0.1439  0.1233
25068SOL    HW284173   7.432   9.673   5.541  0.6309 -2.2869 -0.5288
25069SOL     OW84174   6.152   1.652   2.174  0.1966 -0.0262 -0.2433
25069SOL    HW184175   6.108   1.573   2.143  0.5627  0.2481 -1.5000
25069SOL    HW284176   6.130   1.719   2.110  0.4754  0.7261  0.4230
25070SOL     OW84177   2.323   5.724   4.847 -0.2024 -0.3579  0.1176
25070SOL    HW184178   2.336   5.661   4.775  0.0019  0.1177 -0.2692
25070SOL    HW284179   2.365   5.683   4.922  3.0780  0.7742 -0.9192
25071SOL     OW84180   2.348   1.317   9.791 -0.2139 -0.5734 -0.6946
25071SOL    HW184181   2.356   1.306   9.697  0.6284 -0.1659 -0.6863
25071SOL    HW284182   2.256   1.335   9.806 -0.1993  0.3173 -1.5563
25072SOL     OW84183   9.766   4.337   3.078  0.0725  0.5352  0.4496
25072SOL    HW184184   9.828   4.408   3.064  0.1368  0.2915 -0.5944
25072SOL    HW284185   9.765   4.323   3.172  0.5206  1.5055  0.6007
25073SOL     OW84186   8.517  12.236   3.440 -0.2387 -0.2726  0.5483
25073SOL    HW184187   8.592  12.221   3.382 -1.0178 -0.0015 -0.5705
25073SOL    HW284188   8.462  12.158   3.429 -0.6182 -0.0106  0.5539
25074SOL     OW84189   1.606   8.766   3.550 -0.3521  0.7643  0.1972
25074SOL    HW184190   1.568   8.678   3.556  1.1400  0.1743  2.0082
25074SOL    HW284191   1.541   8.817   3.502 -1.6421 -1.1084 -0.1647
25075SOL     OW84192  11.535   4.169   1.264 -0.0309 -0.4178 -0.2672
25075SOL    HW184193  11.443   4.162   1.289  0.2770  0.9638  1.4059
25075SOL    HW284194  11.563   4.254   1.298  2.4972 -1.7907  1.4622
25076SOL     OW84195  11.281   9.853   9.898 -0.0267  0.3820 -0.5736
25076SOL    HW184196  11.347   9.791   9.927  0.1246  0.8708  0.1697
25076SOL    HW284197  11.227   9.805   9.836  0.2536 -0.4081 -0.2107
25077SOL     OW84198   9.130   7.897   5.017  0.1508  0.3215 -0.3506
25077SOL    HW184199   9.118   7.810   4.978 -0.6366  0.4502 -0.4001
25077SOL    HW284200   9.160   7.880   5.106 -0.4927 -0.0091 -0.1965
25078SOL     OW84201   4.661   2.635   0.463 -0.2969 -0.2676 -0.3986
25078SOL    HW184202   4.689   2.580   0.389  0.1874 -1.6217  0.7430
25078SOL    HW284203   4.739   2.685   0.486  0.0718 -1.1199  0.2645
25079SOL     OW84204   1.258  12.200   6.571  0.3498  0.3241 -0.7017
25079SOL    HW184205   1.231  12.119   6.528  0.1065  0.2967 -0.4935
25079SOL    HW284206   1.189  12.263   6.549 -0.4060 -0.0105  0.6628
25080SOL     OW84207   8.279   3.784   4.011  0.0826 -0.4011 -0.1189
25080SOL    HW184208   8.202   3.753   4.058 -0.9843  0.9510 -0.9188
25080SOL    HW284209   8.253   3.784   3.919  1.8071 -2.0763 -0.6724
25081SOL     OW84210   6.814   0.637   2.559 -0.0323  0.2597  0.4645
25081SOL    HW184211   6.748   0.603   2.498  1.4283 -1.6465 -0.1498
25081SOL    HW284212   6.799   0.587   2.640  2.3646 -2.4241 -0.5588
25082SOL     OW84213   0.194   8.590   5.761  0.3536 -0.3286 -0.1251
25082SOL    HW184214   0.123   8.641   5.723 -0.9230  0.6419  3.2140
25082SOL    HW284215   0.189   8.505   5.718 -1.3553  0.4315 -1.5450
25083SOL     OW84216   9.494   2.140   9.240  1.2299 -0.0475 -0.5013
25083SOL    HW184217   9.586   2.144   9.265  1.0009 -0.3515  0.4731
25083SOL    HW284218   9.469   2.049   9.258  0.2362  0.5174  1.2300
25084SOL     OW84219   6.942   6.256  10.070 -0.1495  0.1068 -0.9013
25084SOL    HW184220   6.869   6.212  10.113  0.0978  0.9748  0.4760
25084SOL    HW284221   7.001   6.279  10.142  0.6014  1.0430 -1.7947
25085SOL     OW84222   5.139  10.051  10.953  1.0345  0.1131 -0.8415
25085SOL    HW184223   5.150   9.956  10.958 -3.0778 -0.4810  0.0250
25085SOL    HW284224   5.162  10.083  11.040 -1.4751 -0.7469  0.2275
25086SOL     OW84225   7.988  11.183  10.293  0.1632 -0.4236 -0.4328
25086SOL    HW184226   8.065  11.193  10.237  1.1658  0.1707  0.9921
25086SOL    HW284227   7.915  11.172  10.232  1.3698 -1.0383 -1.8234
25087SOL     OW84228   7.751   1.226   3.760 -0.3078  0.3889  0.1031
25087SOL    HW184229   7.826   1.266   3.804  0.6345 -1.7879  0.6032
25087SOL    HW284230   7.692   1.202   3.831  0.0042 -0.7647 -0.0127
25088SOL     OW84231  12.219   2.592   8.097 -0.2769  0.3049 -0.2722
25088SOL    HW184232  12.237   2.501   8.120  0.9403  0.4946 -0.4189
25088SOL    HW284233  12.267   2.643   8.162 -2.8415  0.8857  1.2751
25089SOL     OW84234   6.908   1.789   6.341  0.7897 -0.5795 -0.1015
25089SOL    HW184235   6.944   1.713   6.388 -2.0456 -2.1504 -0.2635
25089SOL    HW284236   6.955   1.789   6.257  1.2517 -1.8146  0.1246
25090SOL     OW84237   4.858   3.549   8.023  0.2731 -0.2025 -0.8423
25090SOL    HW184238   4.835   3.617   8.086  0.2039  1.3218 -2.4515
25090SOL    HW284239   4.952   3.558   8.011  0.0962  0.4242 -1.9222
25091SOL     OW84240   4.127   3.621   1.579  0.2817  0.5080 -0.0406
25091SOL    HW184241   4.102   3.589   1.666  0.0606  1.2928  0.1863
25091SOL    HW284242   4.122   3.716   1.586  1.0246  0.6059 -0.6881
25092SOL     OW84243  11.988  11.263   7.837  0.0220  0.1402 -0.9643
25092SOL    HW184244  11.983  11.349   7.794  0.7964  0.8680  0.3298
25092SOL    HW284245  12.064  11.270   7.896  2.1407 -2.4988 -3.0966
25093SOL     OW84246   4.662  11.044   3.891 -0.0320 -0.0085 -0.0733
25093SOL    HW184247   4.704  11.006   3.814  2.2312  1.5226  0.3111
25093SOL    HW284248   4.707  11.005   3.966 -0.7268  0.1311  0.4321
25094SOL     OW84249   2.410   3.764  11.541  0.0180  0.3888 -0.0537
25094SOL    HW184250   2.399   3.670  11.553 -0.6476  0.3173 -1.0835
25094SOL    HW284251   2.343   3.804  11.597 -1.0013  0.1625 -1.0577
25095SOL     OW84252   8.265  11.854   3.159 -0.4157  0.1392  0.0785
25095SOL    HW184253   8.345  11.811   3.127  0.1787  0.5106  1.0345
25095SOL    HW284254   8.243  11.917   3.090 -1.1327 -1.4565 -1.2025
25096SOL     OW84255   5.366   3.244   9.154 -0.0393 -0.3493 -1.0875
25096SOL    HW184256   5.360   3.339   9.142 -0.3409 -0.2465 -0.1695
25096SOL    HW284257   5.452   3.229   9.192 -0.1059 -0.4187 -0.9637
25097SOL     OW84258   2.579   9.480   4.988 -0.1096  0.1118  0.2713
25097SOL    HW184259   2.543   9.566   5.010 -1.6507 -0.2466 -0.6246
25097SOL    HW284260   2.552   9.466   4.897  0.9212 -0.9321  0.1024
25098SOL     OW84261  11.036  11.406   7.927  0.1513  0.3451 -0.5252
25098SOL    HW184262  10.999  11.342   7.865  0.7317 -0.2275 -0.2901
25098SOL    HW284263  11.080  11.352   7.993  1.7912  1.0125 -1.0308
25099SOL     OW84264   7.238   5.926  10.520  0.6149  0.4883 -0.0760
25099SOL    HW184265   7.242   5.996  10.585  1.7831  1.1340 -0.8154
25099SOL    HW284266   7.255   5.846  10.571  1.3826  0.9678  0.4421
25100SOL     OW84267   6.880   5.683  12.230 -0.0750  0.0217 -0.5359
25100SOL    HW184268   6.876   5.670  12.325 -1.8385 -1.9586 -0.8061
25100SOL    HW284269   6.971   5.663  12.207  0.4051  0.6562  0.7324
25101SOL     OW84270   9.446   4.757  11.902  0.1896 -0.0420 -0.1130
25101SOL    HW184271   9.420   4.847  11.921  2.4780  0.7663 -0.5279
25101SOL    HW284272   9.375   4.723  11.848 -0.9975  1.3110  0.5228
25102SOL     OW84273   3.544   5.557  11.540 -0.3483 -0.0185 -0.1019
25102SOL    HW184274   3.587   5.639  11.563 -0.7274  0.1490  0.0203
25102SOL    HW284275   3.560   5.547  11.446 -0.1689  0.1178 -0.0863
25103SOL     OW84276  11.270  10.463   3.312  0.7789  0.0899 -0.0942
25103SOL    HW184277  11.194  10.519   3.330  0.0158 -0.9498  0.0334
25103SOL    HW284278  11.284  10.471   3.218  0.2970  0.0208 -0.1734
25104SOL     OW84279   2.620   2.201   1.673  0.3180  0.2427 -0.1321
25104SOL    HW184280   2.696   2.255   1.653  0.4332  0.6115  1.1880
25104SOL    HW284281   2.545   2.257   1.655  0.3817  0.2006 -0.5348
25105SOL     OW84282   9.193  12.153   0.925 -0.3115  0.1063  0.3114
25105SOL    HW184283   9.193  12.194   0.839 -1.9765  1.1551  0.7455
25105SOL    HW284284   9.105  12.171   0.960  0.7921  1.0718  2.8450
25106SOL     OW84285   7.592   4.233   2.855  0.2820  0.3443  0.6795
25106SOL    HW184286   7.527   4.164   2.866  1.0993 -0.9367 -1.6611
25106SOL    HW284287   7.543   4.307   2.821 -0.6893  1.2043  3.6800
25107SOL     OW84288  11.283   1.942  10.594  0.1869  0.5513  0.0738
25107SOL    HW184289  11.357   1.884  10.573  0.2077  0.6870 -0.2304
25107SOL    HW284290  11.258   1.917  10.683 -1.1296 -1.3553 -0.7641
25108SOL     OW84291   3.975   9.867   6.853 -0.0756 -0.0146  0.2450
25108SOL    HW184292   4.061   9.900   6.824 -0.5081  1.4333  0.5186
25108SOL    HW284293   3.922   9.866   6.774  0.0401 -0.4501  0.1676
25109SOL     OW84294   9.063   5.118   2.708  0.2116  0.1879  0.5933
25109SOL    HW184295   8.995   5.082   2.652  1.1075 -0.7766  0.0920
25109SOL    HW284296   9.102   5.042   2.751  1.4149  0.6373  0.3522
25110SOL     OW84297  10.811   4.343   6.530 -0.3806  0.0911 -0.1256
25110SOL    HW184298  10.904   4.347   6.553 -0.1902 -0.0614 -0.8384
25110SOL    HW284299  10.771   4.411   6.584  0.2574  0.6183 -0.2839
25111SOL     OW84300  12.022   5.916  12.347  0.1310 -0.0420  0.4996
25111SOL    HW184301  12.000   5.827  12.375 -0.1092  0.2844  1.3875
25111SOL    HW284302  11.945   5.948  12.301  0.5517 -0.6082 -0.6264
25112SOL     OW84303  11.401   4.396  11.540  0.4403  0.0394 -0.2825
25112SOL    HW184304  11.343   4.319  11.539 -0.2800  0.5006  1.4787
25112SOL    HW284305  11.397   4.427  11.631  0.5802  2.2774 -0.9918
25113SOL     OW84306  12.485   7.408  10.038  0.1377 -0.2384 -0.0672
25113SOL    HW184307  12.460   7.444  10.123 -0.8830 -1.6027  0.2459
25113SOL    HW284308  12.484   7.313  10.051 -0.4892 -0.4937 -1.7138
25114SOL     OW84309   3.963   3.181   3.301 -0.5926  0.4087 -0.5036
25114SOL    HW184310   3.952   3.274   3.321  0.2633  0.3355  0.3809
25114SOL    HW284311   3.926   3.136   3.376 -0.2369  0.0513 -0.5427
25115SOL     OW84312   0.091   7.527   4.427 -0.1144 -0.0958 -0.2255
25115SOL    HW184313   0.142   7.448   4.446  0.3490  0.5436  1.3446
25115SOL    HW284314   0.010   7.516   4.478 -0.2651  0.2067 -0.3972
25116SOL     OW84315  12.033   0.060   9.235 -0.0828 -0.2395  0.2217
25116SOL    HW184316  12.039  -0.005   9.305  1.1035 -0.4896 -0.1057
25116SOL    HW284317  11.952   0.038   9.189 -0.7776 -0.1995  1.3669
25117SOL     OW84318   2.457   6.220   6.461  0.3310 -0.5998  0.0979
25117SOL    HW184319   2.553   6.230   6.459  0.2642 -0.0202 -0.3171
25117SOL    HW284320   2.425   6.285   6.399 -0.2572 -1.9313 -1.0452
25118SOL     OW84321   7.710   3.274   7.996  0.0296 -0.1213 -0.3240
25118SOL    HW184322   7.799   3.309   8.003  0.5896 -1.6796  1.3661
25118SOL    HW284323   7.670   3.297   8.080 -0.5188 -1.0280 -0.3294
25119SOL     OW84324   7.902   8.918   0.174  0.1832 -0.2543 -0.1064
25119SOL    HW184325   7.948   8.986   0.124  0.4209 -0.7512 -0.5788
25119SOL    HW284326   7.915   8.838   0.123  0.0713 -0.6966  0.5417
25120SOL     OW84327  12.306   8.550   8.884  0.2203 -0.2210 -0.1761
25120SOL    HW184328  12.323   8.470   8.835  0.0879 -0.5127  0.2396
25120SOL    HW284329  12.352   8.537   8.967 -0.1409 -0.0472  0.0549
25121SOL     OW84330   1.848   9.275  10.198 -0.3326  0.3765  0.0802
25121SOL    HW184331   1.906   9.292  10.124 -0.5584  0.6120 -0.0467
25121SOL    HW284332   1.817   9.362  10.225 -1.4593  0.1919 -0.5386
25122SOL     OW84333   4.052  12.329   6.880 -0.3935 -0.2509 -0.2900
25122SOL    HW184334   4.100  12.391   6.826  0.4270 -1.3533 -0.8751
25122SOL    HW284335   4.037  12.375   6.962 -0.5987  1.0242 -1.0154
25123SOL     OW84336   7.957  10.363  11.632 -0.7473 -0.5103  0.6752
25123SOL    HW184337   7.988  10.445  11.595 -0.7189 -0.8821 -0.1479
25123SOL    HW284338   7.903  10.324  11.563 -0.4061 -1.3837  0.8857
25124SOL     OW84339   9.761   9.922  12.406 -0.0173  0.0947  0.1486
25124SOL    HW184340   9.798   9.834  12.399  0.0970  0.0778  0.8661
25124SOL    HW284341   9.826   9.979  12.364  0.0439 -0.1311 -0.0639
25125SOL     OW84342   2.594   5.471   5.315  0.2954 -0.0813  0.4583
25125SOL    HW184343   2.539   5.465   5.393 -0.9141 -1.5538 -0.4522
25125SOL    HW284344   2.618   5.563   5.309  0.0142  0.1442  2.2788
25126SOL     OW84345   2.806   7.006   5.816  0.1232 -0.6802  0.1232
25126SOL    HW184346   2.716   7.035   5.827  0.0102 -1.4032  1.4723
25126SOL    HW284347   2.859   7.077   5.852  0.2449  0.5583 -2.3262
25127SOL     OW84348   5.284  12.101   2.255 -0.1514  0.1010 -0.0031
25127SOL    HW184349   5.224  12.062   2.192 -1.0746  1.2358  0.1567
25127SOL    HW284350   5.306  12.186   2.218 -0.9037  0.8912  1.3131
25128SOL     OW84351   3.033  10.234   3.969  0.3453 -0.4047  0.3908
25128SOL    HW184352   2.964  10.294   3.941  1.2690 -0.0391 -1.2591
25128SOL    HW284353   3.052  10.261   4.059 -0.9449  0.1458  0.5296
25129SOL     OW84354   6.155   3.547   1.154 -0.3627 -0.0903  0.2940
25129SOL    HW184355   6.084   3.490   1.183  0.8081 -1.4937  0.4860
25129SOL    HW284356   6.222   3.537   1.221 -0.1704  1.6851  0.4350
25130SOL     OW84357   5.767   2.839   1.828 -0.0447  0.8352  0.1472
25130SOL    HW184358   5.783   2.876   1.915 -0.6759  2.4171 -0.3817
25130SOL    HW284359   5.793   2.747   1.836  2.2317  1.5024  1.3389
25131SOL     OW84360   7.417   2.637  11.408  0.1966  0.3482 -0.0221
25131SOL    HW184361   7.335   2.598  11.438  0.7105 -2.5791 -2.0596
25131SOL    HW284362   7.481   2.614  11.475  0.1388 -0.9265 -0.3854
25132SOL     OW84363  11.459   4.620   2.755 -0.1625 -0.4008  0.0182
25132SOL    HW184364  11.524   4.686   2.778  0.6067 -1.5396  1.3594
25132SOL    HW284365  11.405   4.612   2.834 -2.5009  1.0988 -1.3539
25133SOL     OW84366  11.963   8.568   5.231  0.0594 -0.0559  0.2658
25133SOL    HW184367  11.988   8.617   5.152 -0.7681  0.9551  0.6021
25133SOL    HW284368  11.887   8.516   5.204  0.3687 -0.4450  0.1468
25134SOL     OW84369   4.627   1.759   9.954 -0.0143  0.9388 -0.0141
25134SOL    HW184370   4.538   1.748   9.987  0.0737 -1.1207 -0.3608
25134SOL    HW284371   4.683   1.751  10.032 -0.1139  4.0173  0.5236
25135SOL     OW84372   8.569   1.733   0.241 -0.8627  0.2194 -0.2387
25135SOL    HW184373   8.540   1.780   0.319 -1.2147  0.6071 -0.5941
25135SOL    HW284374   8.624   1.796   0.194  1.0988 -0.6928  0.7065
25136SOL     OW84375   3.696   0.926   2.987  0.1196  0.5015 -0.0774
25136SOL    HW184376   3.695   1.021   2.974 -0.4511  0.3765 -1.0117
25136SOL    HW284377   3.787   0.902   2.970  0.2645  0.8837  0.1409
25137SOL     OW84378   1.782  10.871   4.563  0.0125  0.0762  0.1171
25137SOL    HW184379   1.719  10.941   4.577  0.5922  0.4600  0.8646
25137SOL    HW284380   1.850  10.885   4.629 -0.0032 -1.3553  0.4796
25138SOL     OW84381   3.345   9.871   2.272  0.2963  0.1636 -0.4364
25138SOL    HW184382   3.255   9.900   2.289 -0.0517 -1.0728 -0.0116
25138SOL    HW284383   3.359   9.888   2.178  0.9294  3.6718  0.1649
25139SOL     OW84384   3.121  10.006   4.379  0.4667 -0.2302  0.4432
25139SOL    HW184385   3.126  10.099   4.403 -0.4264  0.0869 -0.4932
25139SOL    HW284386   3.187   9.996   4.310  2.1017 -0.8333  2.0121
25140SOL     OW84387   0.870  10.623  11.112 -0.1320  0.2728  0.2523
25140SOL    HW184388   0.901  10.541  11.153 -0.6201  0.1183  0.3130
25140SOL    HW284389   0.950  10.667  11.085  0.1446 -0.1756  0.3215
25141SOL     OW84390   1.189   0.703   4.613  0.1550 -0.1526  0.0885
25141SOL    HW184391   1.278   0.672   4.598  0.0969  0.5423 -2.0433
25141SOL    HW284392   1.138   0.624   4.626  1.1047 -0.5446  1.8209
25142SOL     OW84393   2.903   2.200   7.078  0.2531  0.4804  0.3824
25142SOL    HW184394   2.848   2.126   7.105 -2.1118  1.0879 -2.1760
25142SOL    HW284395   2.862   2.277   7.119 -0.2034  0.8216 -0.6710
25143SOL     OW84396  10.456   9.225  11.642 -0.8328  0.1649  0.1988
25143SOL    HW184397  10.424   9.305  11.601 -0.0477  0.6368  0.5007
25143SOL    HW284398  10.472   9.249  11.733  2.1266  0.4897 -0.3122
25144SOL     OW84399   5.353  10.728   5.594 -0.1645 -0.0295  0.8045
25144SOL    HW184400   5.358  10.770   5.508 -0.4180  0.6933  1.1358
25144SOL    HW284401   5.404  10.648   5.584  1.0111  0.7348  0.3716
25145SOL     OW84402   0.344   8.893   0.858  0.1325  0.5640  0.0281
25145SOL    HW184403   0.327   8.905   0.765 -0.2826  1.4606  0.2063
25145SOL    HW284404   0.423   8.944   0.875 -0.8570  2.0026  0.5220
25146SOL     OW84405   0.037  11.974   8.229 -0.1795 -0.4445  0.3755
25146SOL    HW184406   0.067  12.041   8.168  3.1422 -1.1808  1.0059
25146SOL    HW284407   0.001  12.023   8.303  0.1159  0.5879 -0.1529
25147SOL     OW84408  11.875   9.744  10.052  0.2775  0.1175  0.1459
25147SOL    HW184409  11.836   9.664  10.018  0.8183 -0.5322  1.0451
25147SOL    HW284410  11.962   9.748  10.012  0.5203 -0.1124  0.6499
25148SOL     OW84411   1.844   1.733   0.191 -0.1451 -0.7265 -0.0185
25148SOL    HW184412   1.815   1.692   0.272  0.8071 -0.9890  0.2008
25148SOL    HW284413   1.763   1.754   0.144 -0.7015 -0.6566  0.9495
25149SOL     OW84414   1.036   2.838   6.041 -0.4041  0.3273 -0.5878
25149SOL    HW184415   1.098   2.875   6.103  0.7748 -1.0443 -0.9144
25149SOL    HW284416   1.090   2.791   5.978 -1.7948 -1.7782 -0.3012
25150SOL     OW84417   8.451   3.176   1.565  0.2723 -0.0840 -0.6808
25150SOL    HW184418   8.358   3.159   1.579 -0.0361  1.7571 -0.3171
25150SOL    HW284419   8.477   3.112   1.498 -0.5502 -2.5209  1.1557
25151SOL     OW84420   3.500  12.490   6.453  0.3356  0.1715 -0.1872
25151SOL    HW184421   3.572  12.473   6.513 -0.3485  0.6603  0.7948
25151SOL    HW284422   3.542  12.528   6.375  1.1451  0.2572  0.2829
25152SOL     OW84423   3.464  10.933   8.233 -0.2801 -0.2090  0.9440
25152SOL    HW184424   3.442  10.841   8.223 -1.6510  0.2776 -1.5738
25152SOL    HW284425   3.457  10.950   8.326  1.8725 -3.0247  1.7506
25153SOL     OW84426   6.942  11.337   0.442 -0.1237  0.6567 -0.3124
25153SOL    HW184427   6.877  11.271   0.420  0.8356 -0.1709 -0.7481
25153SOL    HW284428   6.927  11.355   0.534 -0.2158 -0.4112 -0.0994
25154SOL     OW84429   7.682   8.531   6.262 -0.4451 -0.6312  0.3648
25154SOL    HW184430   7.595   8.495   6.248 -0.2851 -0.5588 -0.8680
25154SOL    HW284431   7.687   8.606   6.203 -0.2331  0.5492  1.8136
25155SOL     OW84432   6.914   7.041   5.052 -0.1392  0.0980  0.2269
25155SOL    HW184433   6.909   6.962   4.998 -0.8091 -0.7875  1.5260
25155SOL    HW284434   6.998   7.034   5.097  0.1427  0.5182 -0.2321
25156SOL     OW84435   7.522  10.034   2.276  0.2055 -0.1321  0.4322
25156SOL    HW184436   7.481   9.954   2.308  2.1970 -0.3597  2.7346
25156SOL    HW284437   7.616  10.015   2.280  0.6695  1.7007 -0.7653
25157SOL     OW84438   1.572   5.087   5.068 -0.0037 -0.5536  0.4939
25157SOL    HW184439   1.557   4.995   5.045  0.1908 -0.6277  0.6598
25157SOL    HW284440   1.666   5.099   5.055 -0.1403 -0.1890 -0.2101
25158SOL     OW84441   7.945   6.592   2.272 -0.2210  0.4621 -0.2599
25158SOL    HW184442   7.976   6.679   2.298  1.5253 -0.1369 -0.2401
25158SOL    HW284443   7.952   6.591   2.177  2.2192 -0.4837 -0.1309
25159SOL     OW84444   2.251   1.665   7.088  0.3609  0.2004  0.3969
25159SOL    HW184445   2.247   1.570   7.079 -0.0156 -0.0842  2.8643
25159SOL    HW284446   2.192   1.697   7.020 -0.2047 -1.3813  0.0828
25160SOL     OW84447   1.048   9.100   3.351  0.4572  0.1380 -0.6666
25160SOL    HW184448   1.098   9.181   3.345  1.3135 -0.3080  0.0486
25160SOL    HW284449   0.959   9.127   3.373  0.4242  0.9399 -1.7203
25161SOL     OW84450  10.836  10.860   9.943 -0.4306  0.1902 -0.1487
25161SOL    HW184451  10.801  10.937   9.988 -0.2940 -0.3094  0.8532
25161SOL    HW284452  10.881  10.895   9.866 -0.2112  1.1295  0.3922
25162SOL     OW84453   6.660   6.882   4.049 -0.3790 -0.0721  0.2774
25162SOL    HW184454   6.648   6.811   4.111 -2.3953 -0.0336 -0.0149
25162SOL    HW284455   6.582   6.880   3.993  1.1807  0.1231 -2.0531
25163SOL     OW84456   5.149   0.656   9.274 -0.0902  0.1210  0.1324
25163SOL    HW184457   5.097   0.706   9.337 -1.2516 -0.9305  0.0473
25163SOL    HW284458   5.208   0.604   9.328  1.0766  1.4628  0.2241
25164SOL     OW84459   8.499  12.169   4.753  0.2024  0.2902 -0.4957
25164SOL    HW184460   8.476  12.245   4.699 -0.7885 -0.6119 -1.3814
25164SOL    HW284461   8.419  12.117   4.756  1.0806 -1.1100 -0.5490
25165SOL     OW84462   6.158   9.434   4.907 -0.4980  0.4794  0.0274
25165SOL    HW184463   6.201   9.350   4.891 -0.3536  0.9241 -2.2570
25165SOL    HW284464   6.067   9.411   4.927 -0.3762 -0.2419 -0.2154
25166SOL     OW84465   7.999   9.259   6.473  0.1743 -0.2216  0.2810
25166SOL    HW184466   8.062   9.321   6.510 -1.1444  2.2289 -1.3166
25166SOL    HW284467   7.920   9.270   6.526 -1.1049  1.9444 -1.8426
25167SOL     OW84468   0.222  10.000   8.544  0.3868  0.0177 -0.0549
25167SOL    HW184469   0.286  10.045   8.489  0.5645 -1.5570 -1.2057
25167SOL    HW284470   0.192   9.926   8.490  0.8083 -1.7936  2.0555
25168SOL     OW84471   2.592  11.953   5.678  0.5827  0.2633  0.1504
25168SOL    HW184472   2.565  11.965   5.587  0.0585  1.0640  0.4044
25168SOL    HW284473   2.625  11.863   5.681 -0.3442 -0.1206 -0.5943
25169SOL     OW84474   9.373  12.299  10.838 -0.0896  0.1980 -0.3023
25169SOL    HW184475   9.386  12.209  10.808 -1.1290  0.7152 -2.4599
25169SOL    HW284476   9.295  12.294  10.894  0.5535 -0.4112  0.5689
25170SOL     OW84477   6.237   6.453   5.070 -0.0811  0.2694  0.1854
25170SOL    HW184478   6.311   6.429   5.014 -0.1159  1.3594 -0.3565
25170SOL    HW284479   6.164   6.465   5.010 -0.4063  0.3475  0.5904
25171SOL     OW84480   0.624  11.504  12.516  0.7717  0.4362 -0.3237
25171SOL    HW184481   0.571  11.583  12.504 -0.4696 -0.3028  0.0901
25171SOL    HW284482   0.572  11.434  12.476  0.6454 -0.5874  1.4922
25172SOL     OW84483   8.116   1.502   1.205  0.5540  0.6351 -0.1681
25172SOL    HW184484   8.106   1.434   1.138  1.9737 -0.0299  0.2611
25172SOL    HW284485   8.041   1.490   1.263 -0.2882  0.7394 -1.1949
25173SOL     OW84486   9.738   8.511   7.702 -0.0138  0.3775  0.1304
25173SOL    HW184487   9.683   8.534   7.627 -0.9012  1.0013  0.9469
25173SOL    HW284488   9.676   8.501   7.774  0.8003 -0.4620  0.7349
25174SOL     OW84489   6.358  10.443   1.910  0.1476  0.2107  0.4971
25174SOL    HW184490   6.323  10.362   1.874  2.0744  0.0237 -1.0683
25174SOL    HW284491   6.297  10.511   1.880  0.6223 -0.1988 -1.5192
25175SOL     OW84492   0.902   6.746   7.427  0.2389  0.1056 -0.3638
25175SOL    HW184493   0.905   6.685   7.500  1.3033  2.7720  2.0153
25175SOL    HW284494   0.994   6.769   7.411 -0.1857  2.5921  0.3042
25176SOL     OW84495   3.188   4.911   4.554 -0.4435  0.1647  0.3460
25176SOL    HW184496   3.160   4.874   4.470 -1.1729  0.5162  0.4286
25176SOL    HW284497   3.114   4.965   4.582 -0.9997 -1.4216  2.1260
25177SOL     OW84498   7.111  12.329   5.340  0.4163 -0.0189 -0.3472
25177SOL    HW184499   7.151  12.395   5.397 -0.1926  0.2124 -0.1803
25177SOL    HW284500   7.130  12.360   5.251 -1.6951  1.5792 -0.3161
25178SOL     OW84501   9.721   3.301   1.200 -0.4358 -0.2547  0.2968
25178SOL    HW184502   9.718   3.394   1.225 -0.2814 -0.2801  0.4082
25178SOL    HW284503   9.776   3.260   1.267 -0.2161 -0.3645  0.0491
25179SOL     OW84504  10.667   6.440   3.057 -0.4991 -0.4283 -0.8906
25179SOL    HW184505  10.590   6.414   3.108  0.6259 -2.9848 -0.3026
25179SOL    HW284506  10.634   6.450   2.967 -1.7883  0.1138 -0.3781
25180SOL     OW84507   2.744  10.074   6.278 -0.1663 -0.0795 -0.1558
25180SOL    HW184508   2.819  10.072   6.338  0.9528  0.0623 -1.5139
25180SOL    HW284509   2.766  10.143   6.215 -1.3461 -0.1822 -0.6947
25181SOL     OW84510   3.066   2.099   0.468  0.0409  0.1897  0.6056
25181SOL    HW184511   2.995   2.035   0.472 -0.9458  0.7073 -3.6377
25181SOL    HW284512   3.084   2.121   0.559 -1.9227 -3.5067  2.0860
25182SOL     OW84513   8.176   9.442  12.576 -0.0627 -0.5167  0.2155
25182SOL    HW184514   8.191   9.374  12.511 -1.0832 -1.2280  0.7074
25182SOL    HW284515   8.154   9.395  12.656  0.0596  0.3743  0.7915
25183SOL     OW84516   8.660  11.207   1.766  0.4393 -0.0612 -0.2857
25183SOL    HW184517   8.650  11.116   1.796  0.0444  0.1850  0.3412
25183SOL    HW284518   8.717  11.248   1.830 -0.4683  0.4888  0.1921
25184SOL     OW84519   6.544   4.470   9.918 -0.8006 -0.5922 -0.2891
25184SOL    HW184520   6.623   4.423   9.892  0.1325  1.5767 -1.7149
25184SOL    HW284521   6.491   4.474   9.838 -1.5734 -0.5519  0.2137
25185SOL     OW84522   6.933   5.430   5.559  0.2145 -0.0926 -0.1967
25185SOL    HW184523   6.884   5.417   5.477  0.2325  0.3018 -0.2735
25185SOL    HW284524   6.866   5.440   5.626  0.1997 -1.5778  0.0359
25186SOL     OW84525   7.428   4.044   1.363 -0.0684 -0.2985 -0.1005
25186SOL    HW184526   7.477   3.969   1.397  0.8288 -0.1615 -1.0382
25186SOL    HW284527   7.384   4.010   1.285 -2.4989 -0.7428  1.3798
25187SOL     OW84528   1.615   3.307   0.383  0.2435 -0.1217  0.4888
25187SOL    HW184529   1.540   3.249   0.376  0.7691 -0.7062 -0.4184
25187SOL    HW284530   1.578   3.391   0.411 -0.4026 -1.1392  2.9598
25188SOL     OW84531   8.251   8.821  10.788  0.1104  0.0295  0.0664
25188SOL    HW184532   8.330   8.862  10.752  0.5184 -1.3088 -0.6066
25188SOL    HW284533   8.264   8.823  10.883  0.9620 -0.1818 -0.0358
25189SOL     OW84534   8.332   2.735   3.601 -0.0425 -0.2574 -0.1887
25189SOL    HW184535   8.405   2.796   3.614  0.1091 -0.3143 -0.7515
25189SOL    HW284536   8.348   2.697   3.515 -1.8530  1.2597 -1.2628
25190SOL     OW84537   3.904   1.611  12.091 -0.1959  0.8591  0.5758
25190SOL    HW184538   3.823   1.566  12.114 -0.3483  0.8555  0.0358
25190SOL    HW284539   3.935   1.648  12.174 -1.1642  1.5322  0.6481
25191SOL     OW84540   3.478   7.019   7.290 -0.1059  0.5837 -0.3101
25191SOL    HW184541   3.418   6.970   7.347 -0.2001 -1.0855 -1.7621
25191SOL    HW284542   3.426   7.093   7.259 -0.5205  0.6807  0.5731
25192SOL     OW84543   7.332   0.930   7.047 -0.1469  0.3174  0.3482
25192SOL    HW184544   7.247   0.956   7.010 -0.8094 -1.7534  0.2673
25192SOL    HW284545   7.316   0.922   7.141 -0.3962 -1.1653  0.2077
25193SOL     OW84546   6.395   2.572   1.251 -0.6078  0.3649 -0.0789
25193SOL    HW184547   6.374   2.550   1.341  1.0359  0.2191  0.3045
25193SOL    HW284548   6.437   2.659   1.257  1.2293 -0.4455 -0.4231
25194SOL     OW84549   7.433   1.210  11.389  0.1123 -0.0828  0.3874
25194SOL    HW184550   7.448   1.165  11.306  0.6033  0.8402 -0.0400
25194SOL    HW284551   7.491   1.166  11.451  1.0668  0.3638 -0.1696
25195SOL     OW84552   0.020   5.363  10.114 -0.1813  0.4592 -0.0674
25195SOL    HW184553  -0.048   5.320  10.166 -0.7668  1.7836  0.3060
25195SOL    HW284554   0.097   5.305  10.122 -1.0827 -0.7843 -0.0576
25196SOL     OW84555   8.213   7.114   6.511  0.3048  0.1990  0.1808
25196SOL    HW184556   8.137   7.112   6.452 -0.3242  1.8247  0.8799
25196SOL    HW284557   8.175   7.120   6.599  1.2301  1.7668  0.4964
25197SOL     OW84558   3.601  10.392  10.738  0.5579 -0.1274 -0.4754
25197SOL    HW184559   3.671  10.445  10.699  0.7897  0.3344  0.5432
25197SOL    HW284560   3.589  10.428  10.825 -0.1325 -0.9778 -0.2027
25198SOL     OW84561   1.823   6.928   4.191 -0.1254  1.3768 -0.3506
25198SOL    HW184562   1.858   6.848   4.152 -0.3121  1.5205 -0.8259
25198SOL    HW284563   1.846   6.997   4.128  0.7165  1.8226  0.4279
25199SOL     OW84564   7.260   5.640   0.306 -0.1663  0.1423  0.0859
25199SOL    HW184565   7.276   5.698   0.232  0.7213 -0.4706 -0.2134
25199SOL    HW284566   7.337   5.583   0.310 -0.6321 -0.4631  0.8929
25200SOL     OW84567   4.226  11.495   2.997 -0.3020 -0.6574  0.0841
25200SOL    HW184568   4.193  11.485   3.086 -0.3463  1.2722  0.3332
25200SOL    HW284569   4.301  11.554   3.006  0.4077 -1.3370 -1.0354
25201SOL     OW84570   9.125   9.116   4.247 -0.1174 -0.1305  0.0106
25201SOL    HW184571   9.195   9.100   4.310 -1.0233  0.2490  1.1343
25201SOL    HW284572   9.050   9.140   4.300 -0.9494  0.0448 -1.2159
25202SOL     OW84573   3.550   6.888   2.199  0.1427  0.6563 -0.0484
25202SOL    HW184574   3.596   6.805   2.215  0.7824  0.8387 -0.8941
25202SOL    HW284575   3.520   6.916   2.286 -0.4437 -0.6577  0.2031
25203SOL     OW84576   8.126   2.633   5.849  0.0509 -0.4477  0.4725
25203SOL    HW184577   8.086   2.550   5.823  1.0375 -0.7356 -0.2099
25203SOL    HW284578   8.162   2.669   5.767 -1.1625  1.1248  0.5800
25204SOL     OW84579  12.344   0.907   9.920  0.4460  0.3823  0.1069
25204SOL    HW184580  12.368   0.821   9.887  0.6088  0.2550  0.5531
25204SOL    HW284581  12.256   0.922   9.884  0.6736  0.3134 -0.5011
25205SOL     OW84582   6.316   9.285   1.918  0.1139 -0.1307  0.1920
25205SOL    HW184583   6.390   9.234   1.952 -0.2231 -0.4045  0.5299
25205SOL    HW284584   6.254   9.219   1.888 -0.9071  0.0145  1.8435
25206SOL     OW84585   7.118   4.233   2.335 -0.0461 -0.2855 -0.1473
25206SOL    HW184586   7.023   4.221   2.326 -0.0878  0.5816 -1.0927
25206SOL    HW284587   7.153   4.219   2.247  0.2817  2.6093 -0.5845
25207SOL     OW84588   0.676   8.733   5.563  0.8138  0.2063  0.0303
25207SOL    HW184589   0.643   8.812   5.606 -0.2393  0.6576 -1.5261
25207SOL    HW284590   0.621   8.662   5.597 -0.9811  0.7591 -1.5096
25208SOL     OW84591   4.359   2.599   0.527  0.3098 -0.0166  0.2136
25208SOL    HW184592   4.445   2.629   0.496  0.0867  0.5058  0.0953
25208SOL    HW284593   4.313   2.680   0.551 -1.4228  0.0660 -2.9205
25209SOL     OW84594  10.835   5.966   2.167  0.3271  0.1622 -0.3362
25209SOL    HW184595  10.833   5.929   2.078  1.0947  2.0245 -1.1879
25209SOL    HW284596  10.782   6.046   2.160  1.6795  1.1522  0.4721
25210SOL     OW84597   2.134   0.289   9.642 -0.0572 -0.0454 -0.3345
25210SOL    HW184598   2.088   0.229   9.583 -0.3423 -0.2792  0.1145
25210SOL    HW284599   2.169   0.232   9.711 -0.3647  0.3052  0.1161
25211SOL     OW84600   7.869   6.985   1.116  0.0945  0.8013 -0.1264
25211SOL    HW184601   7.842   6.920   1.051 -0.8696  0.5525  0.5004
25211SOL    HW284602   7.964   6.985   1.112  0.1286 -0.7968 -0.0086
25212SOL     OW84603   2.705  10.603   5.768 -0.2092 -0.1735 -0.3099
25212SOL    HW184604   2.706  10.592   5.673 -0.6094 -0.3565 -0.2934
25212SOL    HW284605   2.677  10.694   5.781  0.9916  0.2284 -0.3897
25213SOL     OW84606   1.554   2.666   0.256 -0.1204 -0.6320 -0.6923
25213SOL    HW184607   1.605   2.591   0.224  0.3992  0.2395 -2.0143
25213SOL    HW284608   1.536   2.645   0.347  3.7919 -0.4360  0.3174
25214SOL     OW84609   2.766   4.752  11.621 -0.4273  0.1752 -0.0010
25214SOL    HW184610   2.690   4.793  11.660  0.5279  2.7992 -0.6978
25214SOL    HW284611   2.794   4.812  11.552  1.7494 -1.1243 -0.3747
25215SOL     OW84612   4.778   9.708   6.509 -0.9419 -0.1846  0.4377
25215SOL    HW184613   4.850   9.655   6.476 -1.2565 -0.4719  0.2080
25215SOL    HW284614   4.793   9.711   6.604 -1.1114 -0.9808  0.4987
25216SOL     OW84615  10.963   6.844   2.937  0.2611 -0.3262 -0.3274
25216SOL    HW184616  10.890   6.828   2.997  0.0205  0.0611 -0.5101
25216SOL    HW284617  11.015   6.764   2.939  0.4770 -0.1747  0.7039
25217SOL     OW84618   0.102   9.332   3.143  0.8841  0.0622  0.0245
25217SOL    HW184619   0.099   9.336   3.238  0.8663  0.5627  0.0050
25217SOL    HW284620   0.104   9.238   3.123 -0.5951 -0.0838  0.4716
25218SOL     OW84621   7.858   6.509   6.255 -0.0152  0.3226  0.0159
25218SOL    HW184622   7.900   6.453   6.191 -1.7834 -0.7808 -0.2271
25218SOL    HW284623   7.767   6.517   6.226 -0.2855  1.7720  1.0824
25219SOL     OW84624   5.200  11.360   0.723 -0.2828 -0.1928  0.6242
25219SOL    HW184625   5.255  11.417   0.670 -0.2479  1.1687  2.0579
25219SOL    HW284626   5.126  11.338   0.666  0.0351  0.7536 -0.1786
25220SOL     OW84627   1.528   6.929   4.628 -0.1307  0.5303  0.1494
25220SOL    HW184628   1.444   6.924   4.582  0.4846 -0.0788 -0.9345
25220SOL    HW284629   1.592   6.948   4.560  0.8271 -0.5484  0.7117
25221SOL     OW84630  10.970   3.891  12.221  0.3877  0.2558  0.3136
25221SOL    HW184631  10.900   3.920  12.162 -0.3693  0.5065  1.3002
25221SOL    HW284632  11.050   3.898  12.169  0.1484  3.2732  0.1705
25222SOL     OW84633   3.253   7.379   8.195 -0.3453  0.4686 -0.6587
25222SOL    HW184634   3.240   7.471   8.172 -0.7846  0.4860 -0.3455
25222SOL    HW284635   3.342   7.359   8.163  0.4102  1.4528  0.7099
25223SOL     OW84636   6.009  12.195  10.259  0.3390 -0.1805  0.1245
25223SOL    HW184637   6.055  12.112  10.247 -0.8691 -0.8524  0.0217
25223SOL    HW284638   5.971  12.214  10.173 -0.1015  0.0497  0.3661
25224SOL     OW84639   7.282  11.804   3.865  0.0225 -0.2703  0.4748
25224SOL    HW184640   7.240  11.848   3.939 -2.3482 -0.1640 -0.8260
25224SOL    HW284641   7.249  11.714   3.869  1.2032 -0.7125  0.4863
25225SOL     OW84642   4.451  10.511   1.529  0.4115  0.1819 -0.2168
25225SOL    HW184643   4.411  10.569   1.594  0.0571  0.6346 -0.8342
25225SOL    HW284644   4.442  10.558   1.446  2.4364  0.4043 -0.3486
25226SOL     OW84645  10.958   5.073  11.418 -0.0803 -0.3625 -0.3666
25226SOL    HW184646  10.891   5.090  11.352 -0.6989  0.7843  0.5076
25226SOL    HW284647  11.038   5.055  11.368 -0.7408 -0.4149 -1.4196
25227SOL     OW84648   4.708   2.304   5.101  0.2141 -0.1161 -0.4406
25227SOL    HW184649   4.752   2.354   5.170  2.4665  0.3193 -2.0981
25227SOL    HW284650   4.756   2.222   5.096 -0.0748 -0.2454 -1.2857
25228SOL     OW84651  10.360   8.276   3.571  0.3834  0.4385 -0.0402
25228SOL    HW184652  10.283   8.220   3.557  0.1963  0.8729 -0.8211
25228SOL    HW284653  10.324   8.364   3.578  0.7873  0.6053 -0.0569
25229SOL     OW84654   8.339   6.697   1.094 -0.1530  0.2872 -0.3517
25229SOL    HW184655   8.369   6.782   1.061 -1.8101  0.3047 -1.9563
25229SOL    HW284656   8.337   6.708   1.189  0.1759  1.8673 -0.4989
25230SOL     OW84657  10.937  10.991   6.207  0.2735  0.0038 -0.0327
25230SOL    HW184658  10.899  10.988   6.294 -0.4153 -0.7301 -0.3431
25230SOL    HW284659  11.022  11.033   6.219 -0.1659  0.6824  0.8495
25231SOL     OW84660   2.720   9.258   0.490 -0.3464 -0.2629 -0.2999
25231SOL    HW184661   2.787   9.313   0.531 -0.1959 -0.6414 -0.0339
25231SOL    HW284662   2.660   9.237   0.561  0.2056 -1.3654 -0.1450
25232SOL     OW84663   8.400   8.719  11.602 -0.3372  0.3802 -0.0783
25232SOL    HW184664   8.372   8.644  11.653 -0.0561  0.0286 -0.4343
25232SOL    HW284665   8.479   8.689  11.556 -0.7898  0.5670 -1.0004
25233SOL     OW84666   9.224   1.725   6.855 -0.5044 -0.2290  0.2209
25233SOL    HW184667   9.248   1.804   6.806  1.1979 -0.7309  0.1697
25233SOL    HW284668   9.224   1.753   6.947  0.1764 -0.1843  0.2095
25234SOL     OW84669   9.549   1.048   5.660 -0.3442  0.0558  0.0656
25234SOL    HW184670   9.609   1.121   5.640  1.0505 -1.0195  0.1945
25234SOL    HW284671   9.513   1.070   5.745 -0.8394  1.1540 -0.3973
25235SOL     OW84672   2.059   6.864   1.400 -0.1302 -0.1878  0.2900
25235SOL    HW184673   2.062   6.847   1.306 -0.5458  1.7197 -0.0993
25235SOL    HW284674   2.117   6.939   1.413 -0.7433  0.1127  1.4195
25236SOL     OW84675  10.012  12.510   0.641 -0.0109 -0.4575 -0.1155
25236SOL    HW184676  10.035  12.603   0.636  0.2045 -0.3388  2.0501
25236SOL    HW284677  10.077  12.466   0.586  1.6642  0.4445  1.0325
25237SOL     OW84678  11.211   1.982  11.695 -0.0150  0.4001 -0.3328
25237SOL    HW184679  11.157   1.928  11.637  0.6494 -0.6146 -0.0406
25237SOL    HW284680  11.225   1.927  11.772  2.8044 -0.0668 -1.0735
25238SOL     OW84681   0.366   0.863  11.005  0.3487 -0.2975 -0.1730
25238SOL    HW184682   0.378   0.796  10.937  0.9014  1.1686 -1.6082
25238SOL    HW284683   0.453   0.873  11.044  0.3833 -0.1214 -0.2889
25239SOL     OW84684   5.308   6.737   9.474  0.1492 -0.6944 -0.4539
25239SOL    HW184685   5.363   6.681   9.419 -1.8074 -0.4899 -2.7235
25239SOL    HW284686   5.233   6.683   9.496  1.0750 -0.9519  2.5990
25240SOL     OW84687   1.603   3.166   2.030  0.2312  0.5595 -0.2935
25240SOL    HW184688   1.537   3.103   2.059  0.2874  0.7668  0.2843
25240SOL    HW284689   1.597   3.164   1.934  0.9337 -1.0825 -0.3321
25241SOL     OW84690  10.955   6.341   7.545 -0.6528  0.0575 -0.3380
25241SOL    HW184691  10.982   6.297   7.626 -2.0504  0.6798  0.4932
25241SOL    HW284692  11.001   6.293   7.476  2.6987  1.1720  0.9540
25242SOL     OW84693   7.082   7.238   8.774  0.0891  0.5857 -0.6003
25242SOL    HW184694   7.038   7.303   8.720  0.3385  1.4793  0.2530
25242SOL    HW284695   7.170   7.231   8.738 -0.3255 -0.2635 -1.5060
25243SOL     OW84696  11.864   6.440   2.408  0.5632 -0.1792  0.2129
25243SOL    HW184697  11.840   6.416   2.318  0.3244 -0.5245  0.3645
25243SOL    HW284698  11.916   6.366   2.439  0.1039 -0.3512  0.5739
25244SOL     OW84699   8.009   8.435   0.438 -0.8240 -0.2117  0.3494
25244SOL    HW184700   7.950   8.376   0.390  1.2465 -0.7638 -1.6951
25244SOL    HW284701   8.004   8.518   0.390  2.1446 -1.1013 -1.7803
25245SOL     OW84702   3.830   0.217   0.663 -0.0550  0.5779  0.0168
25245SOL    HW184703   3.778   0.194   0.587 -2.3659 -2.1953  2.1771
25245SOL    HW284704   3.915   0.174   0.648 -0.6185 -0.2759 -0.8382
25246SOL     OW84705   0.332   1.102  12.008 -0.0460 -0.2512  0.1496
25246SOL    HW184706   0.330   1.021  12.059 -2.2227  0.0745  0.7141
25246SOL    HW284707   0.418   1.140  12.026  0.5765 -1.8695  0.7758
25247SOL     OW84708  12.485   4.215   0.214 -0.0814  0.0550  0.4165
25247SOL    HW184709  12.448   4.177   0.134  0.8062  1.7513 -0.8549
25247SOL    HW284710  12.435   4.173   0.285 -2.5958  0.2562 -1.0903
25248SOL     OW84711   6.661  11.842   2.030  0.1951  0.5146 -0.1951
25248SOL    HW184712   6.699  11.786   2.097 -0.9057  0.4583  0.4140
25248SOL    HW284713   6.586  11.792   1.997  0.3977  0.7810 -1.0773
25249SOL     OW84714   0.739   7.859   9.923 -0.1489  0.0624 -0.3507
25249SOL    HW184715   0.695   7.776   9.937 -2.8059  1.2796 -0.9167
25249SOL    HW284716   0.806   7.863   9.992 -1.0189 -1.8091  0.6633
25250SOL     OW84717  12.519   9.800   2.014  0.0811 -0.2561  0.3523
25250SOL    HW184718  12.486   9.874   1.962 -0.6813 -2.1546 -2.0556
25250SOL    HW284719  12.614   9.802   2.000 -0.0334 -0.2590 -0.5066
25251SOL     OW84720  10.613   9.923   7.140  0.2988 -0.4571 -0.1089
25251SOL    HW184721  10.520   9.902   7.147  0.5830 -1.3496  1.1758
25251SOL    HW284722  10.614  10.015   7.112 -0.9652 -0.1248  0.8520
25252SOL     OW84723   1.906   7.869   1.564  0.5578  0.1676 -0.1371
25252SOL    HW184724   1.812   7.880   1.577  0.4550 -0.1013 -0.5965
25252SOL    HW284725   1.947   7.926   1.629  0.0789  1.3657 -0.8513
25253SOL     OW84726   0.042  12.017   4.642 -0.1573 -0.1258  0.1694
25253SOL    HW184727   0.084  12.101   4.620  0.0042 -0.0830  0.6259
25253SOL    HW284728   0.082  11.992   4.725 -1.0464 -0.0834  0.6234
25254SOL     OW84729   7.296  10.238   4.051  0.2250 -0.3376 -0.6198
25254SOL    HW184730   7.292  10.324   4.093  0.4967 -0.7461  0.2691
25254SOL    HW284731   7.214  10.232   4.002  0.2933  0.5071 -0.8521
25255SOL     OW84732   0.341   5.580   1.903 -0.0242  0.3338 -0.0691
25255SOL    HW184733   0.433   5.591   1.928 -0.0092 -0.4113  0.2263
25255SOL    HW284734   0.341   5.576   1.808  0.5650 -2.1064 -0.0324
25256SOL     OW84735   9.529   8.231   8.139 -0.2827 -0.2561 -0.7839
25256SOL    HW184736   9.499   8.266   8.223  2.3676  0.9951 -0.2545
25256SOL    HW284737   9.624   8.242   8.141 -0.0863 -0.6494 -3.7728
25257SOL     OW84738   8.029   8.606   9.367 -0.3613  0.5935  0.6196
25257SOL    HW184739   8.036   8.683   9.423  1.1022  0.5678  0.5142
25257SOL    HW284740   8.113   8.601   9.322 -0.6480 -0.7171  0.1706
25258SOL     OW84741   2.641   5.255   6.533 -0.0594 -0.0547 -0.5990
25258SOL    HW184742   2.610   5.293   6.451  3.1261 -0.3910 -2.1008
25258SOL    HW284743   2.693   5.325   6.573 -1.1794 -0.0641  0.9502
25259SOL     OW84744   1.025   5.697   0.254 -0.2363  0.5829 -0.3424
25259SOL    HW184745   1.046   5.790   0.252  0.2486  0.4696 -0.9612
25259SOL    HW284746   0.952   5.688   0.192 -0.9541  0.6967  0.4643
25260SOL     OW84747  10.468  12.472  12.151  0.0872 -0.1685  0.2670
25260SOL    HW184748  10.512  12.399  12.108  0.1135 -0.3458  0.5874
25260SOL    HW284749  10.528  12.546  12.141 -1.7264  1.0211 -3.8297
25261SOL     OW84750   0.563   4.223   0.872 -0.2071  0.4387 -0.4256
25261SOL    HW184751   0.598   4.302   0.830 -0.0653 -0.2550 -1.6594
25261SOL    HW284752   0.614   4.151   0.834 -1.2470 -0.3646 -0.3397
25262SOL     OW84753  10.696   5.346   5.333 -0.1300  0.5609  0.3263
25262SOL    HW184754  10.776   5.328   5.383  0.2450  0.0232 -0.4488
25262SOL    HW284755  10.627   5.300   5.381  0.6293 -2.2151 -1.0026
25263SOL     OW84756   7.637   2.630   6.098 -0.9974  0.4456  0.2348
25263SOL    HW184757   7.680   2.585   6.025  2.0605 -0.3343  2.3089
25263SOL    HW284758   7.626   2.720   6.067  1.8031  0.5737 -0.7012
25264SOL     OW84759   2.607   1.686   8.158 -0.2528  0.3677  0.2415
25264SOL    HW184760   2.627   1.724   8.243 -0.0000  1.9573 -0.4957
25264SOL    HW284761   2.534   1.739   8.125  0.7459  0.8863 -1.2287
25265SOL     OW84762   2.328  11.677   5.452 -0.3973 -0.1658 -0.7102
25265SOL    HW184763   2.384  11.654   5.526  0.3267  0.2461 -1.1207
25265SOL    HW284764   2.358  11.764   5.425 -0.7893 -0.2237 -1.3547
25266SOL     OW84765   8.857   9.299  10.954 -0.6215 -0.0522  0.9098
25266SOL    HW184766   8.854   9.297  11.049 -2.8008  0.6074  0.9082
25266SOL    HW284767   8.767   9.317  10.927 -0.2175 -0.9833 -1.3097
25267SOL     OW84768  12.371   6.066   3.784 -0.2268 -0.4507 -0.1113
25267SOL    HW184769  12.375   6.022   3.869 -0.1607  2.3599  1.4584
25267SOL    HW284770  12.462   6.081   3.760 -0.2550 -0.9199 -0.5466
25268SOL     OW84771   9.101   8.450   1.769  0.4283 -0.1737 -0.3199
25268SOL    HW184772   9.132   8.393   1.699 -0.3462 -1.6128  0.4652
25268SOL    HW284773   9.094   8.393   1.845  1.1011  1.3155  0.9256
25269SOL     OW84774  10.182   2.786   4.147 -0.5655  0.4550 -0.3773
25269SOL    HW184775  10.226   2.776   4.231 -1.2188  1.1460  0.0645
25269SOL    HW284776  10.151   2.698   4.126 -0.7796  0.3482  0.3345
25270SOL     OW84777  10.530   8.656   5.185  0.2496 -0.2788 -0.1329
25270SOL    HW184778  10.462   8.723   5.186 -0.1360 -0.6640 -0.4709
25270SOL    HW284779  10.608   8.702   5.154 -0.1618 -0.1269 -0.9537
25271SOL     OW84780  10.405   3.971   1.226 -0.1616  0.0610  0.3619
25271SOL    HW184781  10.348   4.013   1.161  0.0020  2.2190  1.5121
25271SOL    HW284782  10.488   3.961   1.181 -0.3799  0.4400 -0.1387
25272SOL     OW84783   4.315   0.023   6.310  0.3720 -0.1432 -0.0472
25272SOL    HW184784   4.263   0.102   6.298  1.6962  0.9073  0.8369
25272SOL    HW284785   4.293  -0.007   6.398 -0.0787 -0.7384 -0.3549
25273SOL     OW84786   3.482   5.590  10.777  0.5305  0.3079  0.5608
25273SOL    HW184787   3.562   5.633  10.749  0.7297  0.2875  1.0827
25273SOL    HW284788   3.457   5.533  10.704  0.4098  1.1023 -0.0328
25274SOL     OW84789   2.898   6.931   7.837  0.5014 -0.3645 -0.3334
25274SOL    HW184790   2.903   6.891   7.750 -0.0284 -0.8065 -0.1691
25274SOL    HW284791   2.843   6.871   7.888 -1.3669  1.2156 -0.4155
25275SOL     OW84792   1.329   9.748   2.179  0.6240 -0.0876 -0.3654
25275SOL    HW184793   1.312   9.665   2.224  1.6179 -1.6816 -2.7568
25275SOL    HW284794   1.245   9.770   2.138  0.0946  0.6634  1.0331
25276SOL     OW84795   0.608   4.902   0.605  0.4162  0.2286 -0.4274
25276SOL    HW184796   0.568   4.861   0.528 -0.3810  1.8711 -0.9467
25276SOL    HW284797   0.534   4.924   0.661  1.0335 -1.6661  1.2542
25277SOL     OW84798  12.210   8.096   2.212 -0.8254  0.6963 -0.2184
25277SOL    HW184799  12.304   8.084   2.194 -0.6398  1.4888  0.1841
25277SOL    HW284800  12.199   8.191   2.217 -1.7798  0.6328 -0.9195
25278SOL     OW84801   6.402   6.697   7.614  0.0609  0.2587 -0.2613
25278SOL    HW184802   6.387   6.791   7.627 -0.5976  0.0689  0.4243
25278SOL    HW284803   6.487   6.692   7.571  0.3406  1.1491  0.1708
25279SOL     OW84804   4.482   5.517  10.406 -0.4583 -0.4692 -0.2463
25279SOL    HW184805   4.552   5.557  10.354 -1.6440  1.9009 -0.1316
25279SOL    HW284806   4.406   5.572  10.391 -1.3075 -0.6659  2.6851
25280SOL     OW84807   9.176   9.194   1.594  0.0731  0.0196  0.1631
25280SOL    HW184808   9.143   9.121   1.541  0.8689  0.1117 -0.4658
25280SOL    HW284809   9.258   9.219   1.553 -0.9677  2.3740 -0.6478
25281SOL     OW84810   0.138   9.565   9.543  0.1296 -0.1105  0.5233
25281SOL    HW184811   0.109   9.548   9.632 -0.4843 -1.5008  0.0819
25281SOL    HW284812   0.139   9.479   9.501 -1.0087  0.6660 -1.2282
25282SOL     OW84813   4.421   8.037   4.296 -0.1122 -0.0856 -0.7922
25282SOL    HW184814   4.487   8.008   4.233 -1.2793  0.4258 -2.3197
25282SOL    HW284815   4.346   7.979   4.281 -0.1647 -0.4374  0.6727
25283SOL     OW84816   1.226   2.433  11.261 -0.3362 -0.3092  0.1563
25283SOL    HW184817   1.271   2.456  11.180 -0.2025 -1.1546 -0.0241
25283SOL    HW284818   1.189   2.515  11.293  2.5022  0.7385  1.0512
25284SOL     OW84819  10.569   2.084   8.230  0.2124  0.1811  0.6248
25284SOL    HW184820  10.571   2.066   8.324 -0.5374 -1.6873  0.3189
25284SOL    HW284821  10.651   2.047   8.196  0.4261  0.7449  0.5002
25285SOL     OW84822   7.127   0.756  10.950  0.7554 -0.4195  0.5329
25285SOL    HW184823   7.053   0.775  10.892  0.1823  0.1374  1.4448
25285SOL    HW284824   7.089   0.713  11.026  1.4019 -0.4052  0.8782
25286SOL     OW84825   8.337   2.178   1.856 -0.2800  0.1138 -0.6355
25286SOL    HW184826   8.300   2.091   1.869  0.3445 -0.0459  0.1514
25286SOL    HW284827   8.369   2.178   1.766  0.3344 -0.7116 -0.4231
25287SOL     OW84828   4.675  10.075   1.062 -0.9424 -0.0917 -0.6118
25287SOL    HW184829   4.641  10.085   1.151 -0.7956 -0.7333 -0.4811
25287SOL    HW284830   4.740  10.006   1.069  2.4721  2.8525 -0.2822
25288SOL     OW84831   5.936   2.264   4.404  0.6558 -0.3278 -0.4066
25288SOL    HW184832   5.950   2.194   4.341 -0.5596 -1.8702  0.9423
25288SOL    HW284833   5.978   2.233   4.484 -2.7518 -1.1891  1.2269
25289SOL     OW84834   1.217   0.090   5.724 -0.1856 -0.9273 -0.2756
25289SOL    HW184835   1.192   0.024   5.790  0.3609  0.0654  0.9707
25289SOL    HW284836   1.159   0.164   5.741 -1.4553 -1.3719 -2.2918
25290SOL     OW84837   9.891   1.166  12.570  0.2736  0.2857  0.7990
25290SOL    HW184838   9.858   1.092  12.519 -2.4463  2.2579 -0.5606
25290SOL    HW284839   9.980   1.180  12.537  0.2553 -1.3593 -0.0366
25291SOL     OW84840   5.933   7.451   8.356  0.3633  0.1229  0.0670
25291SOL    HW184841   5.923   7.397   8.434  2.6202 -0.6910 -0.1526
25291SOL    HW284842   5.845   7.454   8.318 -0.3653 -1.1209  1.5525
25292SOL     OW84843   8.988  11.276  11.545 -0.7636  1.0271  0.5232
25292SOL    HW184844   8.908  11.226  11.565 -1.0753  1.8626  1.4552
25292SOL    HW284845   8.958  11.366  11.539 -0.0397  1.2304 -0.1578
25293SOL     OW84846   2.848   4.817   5.335 -0.4773 -0.4358 -0.1849
25293SOL    HW184847   2.904   4.770   5.273 -0.0665 -2.5122  1.6603
25293SOL    HW284848   2.763   4.774   5.326 -0.5532 -0.3925  0.3215
25294SOL     OW84849  11.182   0.175   7.028  0.1470  0.5856 -0.4603
25294SOL    HW184850  11.211   0.249   6.974  2.3894  1.5641  1.9154
25294SOL    HW284851  11.087   0.188   7.036  0.1470  1.9022 -1.9109
25295SOL     OW84852  10.642   6.012   1.505 -0.5921 -0.1977  0.4142
25295SOL    HW184853  10.640   5.977   1.594  0.5216 -1.0492  0.1181
25295SOL    HW284854  10.681   6.099   1.515 -1.6918  0.2673  0.9074
25296SOL     OW84855   0.381   7.814  10.446 -0.1267 -0.2051  0.4060
25296SOL    HW184856   0.405   7.751  10.514 -0.0182  1.0400  1.5641
25296SOL    HW284857   0.287   7.802  10.434 -0.2201 -0.1725  1.0658
25297SOL     OW84858  12.083   7.260   3.203  0.3878  0.3923 -0.0519
25297SOL    HW184859  12.049   7.229   3.120  2.1463 -0.5928 -0.4601
25297SOL    HW284860  12.086   7.355   3.195 -1.6030  0.4716 -0.2087
25298SOL     OW84861  12.356   4.336   1.922 -0.0276 -0.3060 -0.6048
25298SOL    HW184862  12.358   4.399   1.994  0.7142 -0.9882 -0.0128
25298SOL    HW284863  12.445   4.335   1.888 -0.2308 -0.4386 -1.1426
25299SOL     OW84864   7.949   2.810  10.685 -0.1545  0.8183 -0.2514
25299SOL    HW184865   7.897   2.852  10.617 -1.0211  1.2713  0.6489
25299SOL    HW284866   7.959   2.719  10.656 -0.9295  0.8830 -0.7498
25300SOL     OW84867   7.256  10.127   8.628  0.2489  0.2941 -0.0658
25300SOL    HW184868   7.276  10.034   8.617 -2.9241 -0.5960  0.4315
25300SOL    HW284869   7.311  10.172   8.564  0.7424 -2.1116 -1.4466
25301SOL     OW84870  12.263   5.327   4.268 -0.5974  0.4925  0.4290
25301SOL    HW184871  12.323   5.372   4.327 -1.2542  0.7900  0.8882
25301SOL    HW284872  12.288   5.235   4.274  1.0971  0.8136 -0.9213
25302SOL     OW84873   3.316   1.117  12.447 -0.6941  0.6323  0.2811
25302SOL    HW184874   3.363   1.040  12.416 -1.7911  0.0792 -0.0509
25302SOL    HW284875   3.384   1.183  12.460  0.0740  0.1493 -1.0865
25303SOL     OW84876   4.853   1.921   0.788 -0.3968  0.0672  0.1152
25303SOL    HW184877   4.911   1.887   0.720  0.4297  0.7127  0.4815
25303SOL    HW284878   4.797   1.985   0.743 -1.0617 -0.7978 -0.3058
25304SOL     OW84879   6.178   9.551   3.568  0.3600 -0.0500  0.3081
25304SOL    HW184880   6.212   9.613   3.632 -0.4462 -1.0097  1.7410
25304SOL    HW284881   6.128   9.604   3.506 -1.6332  0.6351  2.3744
25305SOL     OW84882   3.499   6.881   1.920 -0.6628 -0.1640 -0.3209
25305SOL    HW184883   3.406   6.861   1.919 -1.3499  2.5982 -2.4024
25305SOL    HW284884   3.519   6.899   2.012 -1.7557 -2.2476  0.3795
25306SOL     OW84885  12.269   8.659   4.398  0.2322 -0.0248 -0.3865
25306SOL    HW184886  12.356   8.689   4.373  0.7829 -0.0719  1.3373
25306SOL    HW284887  12.251   8.586   4.340  0.9053  0.6200 -1.4376
25307SOL     OW84888   4.108   9.562   3.864 -0.4517  0.2736 -0.0177
25307SOL    HW184889   4.034   9.572   3.924  0.2602 -0.1293  0.9478
25307SOL    HW284890   4.110   9.468   3.845 -0.6469  0.3931 -0.6471
25308SOL     OW84891   6.758  12.317   4.896 -0.2061 -0.0764  0.2136
25308SOL    HW184892   6.792  12.288   4.980 -0.2240  0.2464  0.3340
25308SOL    HW284893   6.686  12.377   4.918  1.8463  2.6303  0.0511
25309SOL     OW84894   6.403   3.108   4.731  0.4017  0.3170  0.0873
25309SOL    HW184895   6.312   3.080   4.741  0.1925  0.8683 -0.1861
25309SOL    HW284896   6.444   3.088   4.815 -0.2474  1.0149  0.5919
25310SOL     OW84897   9.207   0.655   6.794 -0.1246 -0.1902 -0.1657
25310SOL    HW184898   9.221   0.730   6.852  0.6546  0.7052 -1.4637
25310SOL    HW284899   9.278   0.594   6.816  0.8690  0.6527 -0.9283
25311SOL     OW84900   1.748  10.691   9.309  0.2297 -0.1952 -0.6832
25311SOL    HW184901   1.772  10.783   9.319  0.0943 -0.0423 -1.6575
25311SOL    HW284902   1.664  10.683   9.354 -0.4186  0.4827 -1.7398
25312SOL     OW84903   3.296  10.663   2.955 -0.5724 -0.1238  0.2200
25312SOL    HW184904   3.237  10.588   2.950 -0.0656 -0.8007  2.8329
25312SOL    HW284905   3.246  10.731   3.001  0.6670 -0.8330  2.7977
25313SOL     OW84906  12.307   0.161   7.589  0.1086 -0.5072 -0.1726
25313SOL    HW184907  12.235   0.102   7.614  0.3127 -0.2298  1.1478
25313SOL    HW284908  12.382   0.102   7.579  0.2358 -0.5375  0.8176
25314SOL     OW84909   5.718   4.667  12.207  0.5184 -0.1208 -0.4878
25314SOL    HW184910   5.707   4.700  12.117  0.5524  0.1299 -0.4016
25314SOL    HW284911   5.665   4.587  12.209  1.2620 -0.6395 -1.0053
25315SOL     OW84912   4.314   5.121   3.893  0.1752  0.2744 -0.1669
25315SOL    HW184913   4.219   5.136   3.896  0.1805  0.1984  1.0872
25315SOL    HW284914   4.348   5.192   3.840 -0.3536  1.8011  1.4223
25316SOL     OW84915   8.945   4.959   6.056  0.4246 -0.1696 -0.2003
25316SOL    HW184916   9.036   4.943   6.032  0.7037 -0.1431  0.8121
25316SOL    HW284917   8.945   5.044   6.098 -0.2894  0.4130 -1.3271
25317SOL     OW84918   2.574   3.496   0.269  0.0646  0.4141  0.4191
25317SOL    HW184919   2.498   3.465   0.220 -0.2184  1.4054  0.2049
25317SOL    HW284920   2.573   3.591   0.258  1.0260  0.4936  0.8691
25318SOL     OW84921   2.037  11.474  12.402 -0.3940 -0.2129  0.4691
25318SOL    HW184922   2.000  11.539  12.462 -1.9504 -0.7325  0.1179
25318SOL    HW284923   2.102  11.522  12.351 -0.2625  0.6340  1.4099
25319SOL     OW84924  11.938   4.623   5.590 -0.3902  0.4035 -0.5580
25319SOL    HW184925  12.008   4.684   5.570 -1.1114  2.2539  2.0689
25319SOL    HW284926  11.981   4.552   5.638 -0.0432  0.6548 -0.4916
25320SOL     OW84927   4.239   7.575   4.025 -0.4992 -0.1012 -0.6879
25320SOL    HW184928   4.276   7.506   3.970 -1.0620  0.6411 -2.0438
25320SOL    HW284929   4.214   7.530   4.106  1.4482 -0.9963 -0.5246
25321SOL     OW84930  11.004   9.015   7.720 -0.1193 -0.2215 -0.1381
25321SOL    HW184931  11.061   9.041   7.647  0.4459 -1.1372 -0.0382
25321SOL    HW284932  11.021   8.922   7.732  1.2036  0.2377  2.3528
25322SOL     OW84933   6.313   9.023   1.352 -0.4947 -0.5787 -0.0896
25322SOL    HW184934   6.306   9.043   1.258 -0.6427 -0.0730  0.0214
25322SOL    HW284935   6.376   8.951   1.357  0.0030 -0.1853 -0.5290
25323SOL     OW84936   6.318   2.790   4.543  0.2188 -0.0289  0.0109
25323SOL    HW184937   6.244   2.793   4.603  0.5817  0.8465  0.4282
25323SOL    HW284938   6.366   2.710   4.567 -1.1348 -1.2042 -0.9631
25324SOL     OW84939   2.322   3.422   9.781  0.1350 -0.2912  0.3141
25324SOL    HW184940   2.308   3.436   9.688  1.0104 -0.9584  0.0641
25324SOL    HW284941   2.332   3.510   9.817  2.7008 -0.0453 -0.7349
25325SOL     OW84942   9.493   8.795   1.547  0.3293 -0.7730 -0.6150
25325SOL    HW184943   9.511   8.701   1.550  2.9958 -0.3180  0.7336
25325SOL    HW284944   9.580   8.836   1.552 -0.8136  1.7734 -0.1963
25326SOL     OW84945   4.990   6.781   9.633 -0.0776  0.7232  0.2041
25326SOL    HW184946   4.955   6.695   9.609 -1.9205  1.6116 -0.5105
25326SOL    HW284947   5.053   6.763   9.703 -1.7029 -1.0532  1.3110
25327SOL     OW84948   1.835   4.285  12.114  0.0356  0.0716  0.1909
25327SOL    HW184949   1.778   4.315  12.185 -0.3196  2.1370 -0.8818
25327SOL    HW284950   1.781   4.294  12.035  0.7255 -1.3103 -0.4657
25328SOL     OW84951   7.387   6.442  11.051 -0.1142 -0.2444 -0.2015
25328SOL    HW184952   7.409   6.519  11.000  2.5188 -1.2368 -0.7055
25328SOL    HW284953   7.429   6.456  11.136 -0.4728 -0.6865  0.0574
25329SOL     OW84954   2.979   6.947   6.484 -0.3349 -0.4968  0.2444
25329SOL    HW184955   2.962   7.024   6.537 -0.1003  0.3792 -0.9178
25329SOL    HW284956   2.893   6.915   6.459 -0.5362 -1.9110  2.4592
25330SOL     OW84957  10.994   6.777   0.547  0.1059  0.1346 -0.2902
25330SOL    HW184958  10.968   6.724   0.472 -1.9301  0.9352 -0.2301
25330SOL    HW284959  10.954   6.733   0.622 -0.4806  0.9955 -0.0799
25331SOL     OW84960   2.353  10.986   7.991  0.0222 -0.1754 -0.3863
25331SOL    HW184961   2.305  10.904   8.000 -0.0199 -0.1445 -0.3285
25331SOL    HW284962   2.390  11.002   8.077  1.0058 -0.7300 -0.6875
25332SOL     OW84963   9.868   1.387  11.167 -0.3926 -0.1051 -0.0676
25332SOL    HW184964   9.893   1.331  11.241  0.4157 -0.2163 -0.4098
25332SOL    HW284965   9.878   1.476  11.200 -1.1402 -0.1516  0.3040
25333SOL     OW84966   7.215   2.391   0.641  0.0129  0.1273  0.4418
25333SOL    HW184967   7.158   2.332   0.591 -1.0989  2.9814 -1.9494
25333SOL    HW284968   7.237   2.342   0.721 -1.7807 -2.9719 -0.8150
25334SOL     OW84969   9.620   3.144   1.885 -0.3156  0.6710 -0.1220
25334SOL    HW184970   9.636   3.177   1.973  0.2737  0.0072  0.0258
25334SOL    HW284971   9.552   3.077   1.895  0.1088  0.2405 -0.0961
25335SOL     OW84972  12.395   2.237   4.710  0.6282  0.3891  0.3075
25335SOL    HW184973  12.434   2.296   4.774  0.1805  0.3379  0.6283
25335SOL    HW284974  12.399   2.285   4.627  1.8020  0.2009  0.2347
25336SOL     OW84975   7.784  11.516  11.418 -0.1838  0.2006  0.1381
25336SOL    HW184976   7.807  11.501  11.510 -0.9085 -1.5586  0.0771
25336SOL    HW284977   7.690  11.500  11.414 -0.0432 -0.4054 -1.0342
25337SOL     OW84978  12.332   5.469   9.452 -0.1099 -0.5862 -0.5067
25337SOL    HW184979  12.274   5.476   9.377 -1.1840  0.7282  0.4010
25337SOL    HW284980  12.322   5.379   9.483 -3.4981  0.1543  0.9892
25338SOL     OW84981   9.096   6.446   6.697 -0.2056 -0.3882 -0.3856
25338SOL    HW184982   9.111   6.359   6.733 -2.6096 -0.2175  1.2113
25338SOL    HW284983   9.038   6.432   6.622  2.0329 -0.3832 -2.2616
25339SOL     OW84984   9.374   6.150   7.882 -0.4313  0.2104 -0.0479
25339SOL    HW184985   9.302   6.092   7.906  1.1258 -0.4671  3.5766
25339SOL    HW284986   9.417   6.107   7.808 -1.4641 -1.3500  0.2366
25340SOL     OW84987   9.652   9.982   3.746 -0.1070  0.1264 -0.4041
25340SOL    HW184988   9.562  10.013   3.754 -0.0871  0.1504 -0.2627
25340SOL    HW284989   9.676  10.001   3.656  0.4074  1.9147  0.0647
25341SOL     OW84990   5.021   4.050   5.609 -0.1683  0.0081  0.2894
25341SOL    HW184991   4.931   4.023   5.593 -0.6284  2.6067 -2.3933
25341SOL    HW284992   5.072   3.970   5.603 -1.8675 -0.9995 -2.6398
25342SOL     OW84993   1.279   6.252   9.911 -0.2273  0.4849 -0.4028
25342SOL    HW184994   1.345   6.251   9.842 -1.4907  0.1909 -1.6712
25342SOL    HW284995   1.310   6.317   9.974  0.5366  1.4243 -1.7043
25343SOL     OW84996   1.074   5.309  11.493 -0.2646  0.1840  0.9613
25343SOL    HW184997   1.075   5.268  11.579 -1.8111  0.8613  1.3351
25343SOL    HW284998   1.141   5.262  11.443 -0.1464 -0.9837  2.1653
25344SOL     OW84999   6.352   2.619  11.259 -0.0339  0.4357  0.5708
25344SOL    HW185000   6.276   2.629  11.200  0.3155  0.3394  0.0989
25344SOL    HW285001   6.397   2.541  11.226 -0.4233 -0.2650  1.6358
25345SOL     OW85002  10.636  10.710   0.795  0.0123  0.2753 -0.3308
25345SOL    HW185003  10.599  10.776   0.737 -1.4849 -1.0790 -0.9655
25345SOL    HW285004  10.561  10.661   0.829  1.0474 -0.9209  0.3652
25346SOL     OW85005   1.642   2.593   8.427  0.0487 -0.3087  0.2112
25346SOL    HW185006   1.693   2.585   8.346 -1.4705  0.2723 -0.8393
25346SOL    HW285007   1.582   2.518   8.425  0.7861 -0.9515  1.4023
25347SOL     OW85008   7.375   9.815  12.055  0.1427  0.0953  0.0844
25347SOL    HW185009   7.280   9.810  12.068  0.1177  0.2881 -0.0157
25347SOL    HW285010   7.386   9.859  11.971  0.3206 -0.0783  0.0155
25348SOL     OW85011  10.756   1.846  10.060  0.0798  0.2898 -0.3306
25348SOL    HW185012  10.788   1.767  10.104 -0.5434 -0.2877 -0.8863
25348SOL    HW285013  10.676   1.869  10.108  1.0459  1.4831  0.7870
25349SOL     OW85014  10.846   4.919   7.639  0.6636 -0.1219 -0.0783
25349SOL    HW185015  10.778   4.983   7.614 -0.6891 -1.2056  0.6662
25349SOL    HW285016  10.801   4.834   7.633  1.2751 -0.7180  2.6004
25350SOL     OW85017   7.131   3.875   6.659  0.1816 -0.1112 -0.1044
25350SOL    HW185018   7.177   3.916   6.733  1.8458  1.9718 -2.1572
25350SOL    HW285019   7.041   3.864   6.691  0.3729  2.4156  1.6637
25351SOL     OW85020   4.649   3.167   0.086  0.0773  0.1348 -0.5352
25351SOL    HW185021   4.606   3.240   0.130 -1.6230 -0.8154 -0.5442
25351SOL    HW285022   4.689   3.206   0.008  0.3889  1.2728  0.1698
25352SOL     OW85023   3.575   2.224   0.059  0.0129 -0.4560  0.3860
25352SOL    HW185024   3.614   2.217   0.146  0.4985  0.2757  0.2358
25352SOL    HW285025   3.481   2.211   0.074  0.1123 -0.5256  0.9900
25353SOL     OW85026   7.000   3.709  11.828  0.4429  0.1321 -0.5836
25353SOL    HW185027   7.079   3.657  11.816  0.5906  0.2380 -0.0829
25353SOL    HW285028   6.975   3.696  11.919 -0.4900 -0.4116 -0.8991
25354SOL     OW85029   8.362   8.989  12.305 -0.0935 -0.1716  0.0716
25354SOL    HW185030   8.352   8.906  12.260 -0.9282  1.3036 -2.6651
25354SOL    HW285031   8.457   8.997  12.320  0.1355 -1.0006 -0.8805
25355SOL     OW85032   6.218  10.421   0.330 -0.2945  0.1564 -0.1017
25355SOL    HW185033   6.133  10.461   0.316 -0.4856 -0.3438 -0.4120
25355SOL    HW285034   6.213  10.338   0.282 -0.5993 -1.1350  2.0584
25356SOL     OW85035  10.000  12.562   3.967 -0.7164 -0.4089  0.3726
25356SOL    HW185036   9.983  12.647   4.007  2.6264  0.3714  0.4266
25356SOL    HW285037  10.065  12.521   4.025  0.0871 -1.6387 -1.3062
25357SOL     OW85038   8.339  11.712   1.314  0.3697 -0.0287 -0.0286
25357SOL    HW185039   8.262  11.660   1.291  0.7406  0.0711 -1.6807
25357SOL    HW285040   8.412  11.651   1.304  0.6111  0.2128  0.2550
25358SOL     OW85041   9.347   7.258   6.761 -0.0812  0.1722 -0.6594
25358SOL    HW185042   9.329   7.349   6.737  0.6297  0.7501  0.8862
25358SOL    HW285043   9.282   7.237   6.828 -0.4750 -0.6083 -1.2605
25359SOL     OW85044   0.753  11.614  11.604  0.1096  0.2979 -0.0258
25359SOL    HW185045   0.744  11.706  11.629  0.0784  0.2732  0.0511
25359SOL    HW285046   0.848  11.600  11.599  0.1302  0.8822 -2.0200
25360SOL     OW85047   9.540   6.471  10.433  0.3343 -0.0768 -0.2686
25360SOL    HW185048   9.517   6.457  10.525  2.2092 -0.4398  0.1745
25360SOL    HW285049   9.564   6.563  10.428  1.8836 -0.4497  0.0036
25361SOL     OW85050   9.802   7.349   4.759 -0.1661 -0.7797  0.0826
25361SOL    HW185051   9.856   7.275   4.732 -0.1324  0.3000 -3.3551
25361SOL    HW285052   9.715   7.311   4.772 -0.0978 -1.5254 -1.3927
25362SOL     OW85053   0.717   2.808   6.213  0.1152  0.3788  0.2408
25362SOL    HW185054   0.632   2.822   6.171 -0.5615 -4.2145 -0.4355
25362SOL    HW285055   0.773   2.877   6.176 -2.6507  2.0527 -1.1960
25363SOL     OW85056   6.696   0.834   5.587 -0.1028  0.3802  0.4843
25363SOL    HW185057   6.661   0.795   5.668 -0.7113  0.1672  0.1222
25363SOL    HW285058   6.759   0.900   5.618 -0.0201  0.0139  1.1260
25364SOL     OW85059   7.538   9.369  12.208 -0.0669 -0.7286 -0.3649
25364SOL    HW185060   7.496   9.311  12.271 -1.2166  1.8649  1.4665
25364SOL    HW285061   7.508   9.457  12.233  2.5030  0.8053 -2.1666
25365SOL     OW85062   2.442   6.251   5.449  0.3135  0.0651  0.0790
25365SOL    HW185063   2.534   6.232   5.470  0.3145  0.1237  0.1286
25365SOL    HW285064   2.424   6.199   5.371  0.5462  0.4507 -0.2380
25366SOL     OW85065   9.973   4.331   9.058  0.0216 -0.1626  0.1439
25366SOL    HW185066  10.039   4.336   8.988  0.5099  0.3290  0.6239
25366SOL    HW285067   9.919   4.256   9.035 -1.3031  1.3339 -2.0401
25367SOL     OW85068  11.498  11.715   4.659 -0.2156 -0.0253  0.3605
25367SOL    HW185069  11.433  11.769   4.705  0.7516  1.2506  0.2961
25367SOL    HW285070  11.510  11.639   4.715 -1.3257  0.0064  0.6625
25368SOL     OW85071  12.099   1.544   1.787 -0.1305 -0.0555  0.4957
25368SOL    HW185072  12.009   1.510   1.785 -0.9511  1.9893 -0.7349
25368SOL    HW285073  12.128   1.541   1.696  0.8032 -0.0767  0.7841
25369SOL     OW85074   0.181   4.917   2.885  0.6613 -0.3439 -0.0219
25369SOL    HW185075   0.139   4.834   2.905 -0.3678  0.1271 -0.2058
25369SOL    HW285076   0.262   4.916   2.937  1.1678 -1.8822 -0.7838
25370SOL     OW85077  11.642  10.533   4.088  1.0585 -0.3052 -0.3053
25370SOL    HW185078  11.684  10.562   4.169  2.4564  0.0278 -1.1290
25370SOL    HW285079  11.655  10.438   4.087  1.6696 -0.2237 -0.4777
25371SOL     OW85080   7.776   1.749   9.734  0.2301  0.3120 -0.7613
25371SOL    HW185081   7.721   1.783   9.804  2.0401  1.9798 -0.0522
25371SOL    HW285082   7.801   1.661   9.763  0.5842  0.8017  0.4697
25372SOL     OW85083  11.796   5.457  12.316 -0.8360  0.3281  0.1311
25372SOL    HW185084  11.773   5.364  12.313 -0.0860 -0.0097  2.4683
25372SOL    HW285085  11.768   5.492  12.232 -0.6422 -2.1250 -1.0336
25373SOL     OW85086   8.123   2.553   4.065 -0.2942  0.1372  0.3020
25373SOL    HW185087   8.156   2.643   4.069  0.5219 -0.1839  1.6284
25373SOL    HW285088   8.029   2.563   4.052 -0.0300  1.1393 -1.0211
25374SOL     OW85089  10.308  11.253   1.339 -0.6348  0.6245  0.1759
25374SOL    HW185090  10.360  11.176   1.315 -1.0163  0.3675  0.1697
25374SOL    HW285091  10.373  11.319   1.363 -0.1496  1.2777 -2.6082
25375SOL     OW85092   2.954   2.468   4.720  0.1156  0.1612  0.5171
25375SOL    HW185093   2.876   2.430   4.679  0.3256 -1.6385  1.6575
25375SOL    HW285094   2.920   2.539   4.775 -0.8454 -1.0122  1.4954
25376SOL     OW85095   0.314   2.458   2.450 -0.4637 -0.1190  0.2168
25376SOL    HW185096   0.302   2.385   2.390  0.5100 -0.1753  0.0720
25376SOL    HW285097   0.234   2.510   2.441  0.4553  1.0349 -2.7503
25377SOL     OW85098   8.867   5.002   2.155 -0.3963 -0.0799  0.0009
25377SOL    HW185099   8.930   5.056   2.201 -0.2826 -0.6150  0.4808
25377SOL    HW285100   8.784   5.048   2.165 -0.3867 -0.2257  0.7984
25378SOL     OW85101   0.146  10.607   5.391 -0.8953 -0.3998  0.0897
25378SOL    HW185102   0.111  10.696   5.393 -1.0711 -0.4762  0.8087
25378SOL    HW285103   0.109  10.565   5.469  0.3513 -0.6670  0.5594
25379SOL     OW85104  11.337   2.429   7.131  0.2264  0.0389  0.3446
25379SOL    HW185105  11.424   2.469   7.130  0.5207 -0.4279  2.5305
25379SOL    HW285106  11.288   2.480   7.195 -0.8740 -0.2269 -0.2575
25380SOL     OW85107   6.299   4.011   8.440  0.1438  0.3412 -0.3240
25380SOL    HW185108   6.323   4.103   8.442 -0.1213  0.4029  0.2127
25380SOL    HW285109   6.368   3.969   8.389  0.3912  0.7998 -0.3712
25381SOL     OW85110  12.596   6.416   3.417 -0.0367 -0.1810 -0.2167
25381SOL    HW185111  12.601   6.510   3.432 -0.8890 -0.1388 -0.1263
25381SOL    HW285112  12.664   6.379   3.473 -0.1383  0.3332  0.2557
25382SOL     OW85113   1.466   3.427   2.501 -0.2645  0.1186  0.1428
25382SOL    HW185114   1.544   3.468   2.462  0.3126 -0.5706  0.5560
25382SOL    HW285115   1.393   3.480   2.469  0.5650  2.7748  2.2577
25383SOL     OW85116   9.107   3.091   3.660  0.4224 -0.0479 -0.2076
25383SOL    HW185117   9.123   3.179   3.696 -0.7757 -0.3037  1.0321
25383SOL    HW285118   9.023   3.100   3.613  1.6976  0.1501 -2.6308
25384SOL     OW85119   2.708   9.906  12.487  0.1758 -0.0365  0.1395
25384SOL    HW185120   2.668   9.867  12.564 -1.7108  0.6215 -0.4291
25384SOL    HW285121   2.742   9.990  12.517 -0.2743  0.0790  0.3329
25385SOL     OW85122   6.530  11.288   4.569 -0.5118  0.3212 -0.4967
25385SOL    HW185123   6.549  11.253   4.482 -0.4249  1.1261 -0.8135
25385SOL    HW285124   6.436  11.306   4.568 -0.4462  0.6703 -0.5567
25386SOL     OW85125  10.586   0.944   3.518  0.0263 -0.1369 -0.3400
25386SOL    HW185126  10.651   0.931   3.587  0.6925  0.3823 -0.8547
25386SOL    HW285127  10.520   1.001   3.558  2.0964  3.0408 -1.0769
25387SOL     OW85128  10.274  10.483   3.770 -0.5599  0.2560 -0.0797
25387SOL    HW185129  10.191  10.530   3.782  1.0525  3.1140  0.9552
25387SOL    HW285130  10.298  10.456   3.859 -0.6037 -1.0812 -0.4519
25388SOL     OW85131   6.333   3.071  12.157 -0.1184  0.9248 -0.2440
25388SOL    HW185132   6.310   3.147  12.210 -1.1906  0.1601  0.4277
25388SOL    HW285133   6.285   2.998  12.196  1.2406 -0.2090 -0.5852
25389SOL     OW85134   5.971  10.965   7.546 -0.2984  0.1249  0.3121
25389SOL    HW185135   5.990  11.018   7.624 -0.4359 -0.0326  0.4543
25389SOL    HW285136   5.879  10.985   7.526 -0.1354  0.5042 -0.0751
25390SOL     OW85137   2.880   9.488   8.786  0.2273 -0.2255  0.2959
25390SOL    HW185138   2.902   9.448   8.702 -1.4518  2.0976 -1.3993
25390SOL    HW285139   2.794   9.452   8.807 -0.8469  1.5494 -0.7472
25391SOL     OW85140   5.385   7.325  11.167  0.5052  0.5455 -0.2060
25391SOL    HW185141   5.440   7.324  11.245 -0.2016 -1.5382  0.3076
25391SOL    HW285142   5.447   7.315  11.094  0.9339 -0.3140  0.2702
25392SOL     OW85143   3.641   9.779   1.106 -0.4034 -0.3048 -0.5599
25392SOL    HW185144   3.569   9.750   1.163 -1.7457 -2.0000 -2.9201
25392SOL    HW285145   3.600   9.839   1.044  0.5190 -0.1902 -1.0775
25393SOL     OW85146   2.847  11.414   2.494  0.0398 -0.0293  0.1847
25393SOL    HW185147   2.929  11.375   2.524 -0.4227 -0.8704  0.3955
25393SOL    HW285148   2.784  11.396   2.564 -0.7217 -0.8396 -0.6664
25394SOL     OW85149   5.074   8.858   3.724 -0.1412  0.2303 -0.3207
25394SOL    HW185150   5.096   8.774   3.685  0.9871  0.8551 -1.1030
25394SOL    HW285151   5.018   8.836   3.799 -0.4002 -1.1516 -0.8876
25395SOL     OW85152   3.156   0.425   4.970 -0.2331 -0.7989  0.2483
25395SOL    HW185153   3.208   0.502   4.995 -0.7025 -0.0397 -1.0426
25395SOL    HW285154   3.072   0.437   5.013 -0.6007 -0.1397 -0.6313
25396SOL     OW85155   4.149  10.554   8.893  0.5639 -0.2677 -0.1391
25396SOL    HW185156   4.192  10.630   8.930  0.3864 -0.1884 -0.0956
25396SOL    HW285157   4.091  10.590   8.825 -1.6038 -0.0637  1.6844
25397SOL     OW85158   9.188   9.682   3.077 -0.2958 -0.2099  0.1208
25397SOL    HW185159   9.135   9.761   3.088 -1.4199 -0.6697 -1.5460
25397SOL    HW285160   9.212   9.656   3.166 -0.0368  1.8949  0.7108
25398SOL     OW85161   6.315  11.798   6.529  0.1414 -0.3994 -0.1672
25398SOL    HW185162   6.388  11.749   6.492  0.7297 -1.0226  1.7240
25398SOL    HW285163   6.313  11.880   6.479  2.1960 -0.3285 -0.1803
25399SOL     OW85164  12.033   7.462   3.677  0.0965 -0.5589  0.0899
25399SOL    HW185165  12.033   7.523   3.751 -0.8812 -2.8049  2.0737
25399SOL    HW285166  12.122   7.425   3.677  0.1075 -0.5320  0.0959
25400SOL     OW85167   3.261   9.547   6.757 -0.4869 -0.4995 -0.4194
25400SOL    HW185168   3.245   9.557   6.663  0.6042 -2.9936 -0.9650
25400SOL    HW285169   3.179   9.510   6.791 -1.0580  0.8553 -0.2382
25401SOL     OW85170   9.104  12.340   1.647 -0.3337  0.1376 -0.6508
25401SOL    HW185171   9.118  12.372   1.558 -3.1698  2.0556 -0.5336
25401SOL    HW285172   9.049  12.407   1.688  0.8090 -0.7305  2.5598
25402SOL     OW85173   2.192   9.253   7.520  0.0750  0.0215 -0.1229
25402SOL    HW185174   2.254   9.224   7.453  0.9021  1.0538  0.1677
25402SOL    HW285175   2.207   9.194   7.594  0.6195  0.1753 -0.1052
25403SOL     OW85176   0.132  10.310   0.462 -0.3034  0.2007  0.0370
25403SOL    HW185177   0.068  10.261   0.411 -0.2863  0.9276 -0.6940
25403SOL    HW285178   0.095  10.313   0.550 -0.8590 -0.1183 -0.1800
25404SOL     OW85179  10.428   0.381   4.933 -0.1467 -0.0733  0.3511
25404SOL    HW185180  10.472   0.466   4.944 -0.7757  0.1787  0.9981
25404SOL    HW285181  10.485   0.318   4.977  0.1760  0.0557  0.1229
25405SOL     OW85182   0.391   8.655  11.317  0.2319 -0.7596  0.4165
25405SOL    HW185183   0.375   8.624  11.406  0.9963 -3.4590 -0.3097
25405SOL    HW285184   0.424   8.579  11.270  4.2313  1.6089 -1.0915
25406SOL     OW85185   3.703  10.491   8.162  0.6172  0.5032  0.2910
25406SOL    HW185186   3.711  10.559   8.229  1.0281  0.7078  0.0420
25406SOL    HW285187   3.779  10.434   8.176  0.9442  0.7888 -0.2579
25407SOL     OW85188   4.974   0.284   0.072 -0.0300 -0.2132  0.1263
25407SOL    HW185189   5.042   0.237   0.121  0.7949  1.0287  0.2228
25407SOL    HW285190   4.967   0.236  -0.011  0.6877 -0.6012  0.2798
25408SOL     OW85191   0.230   4.388  10.466  0.2249  0.1495 -0.4746
25408SOL    HW185192   0.268   4.411  10.381 -0.6934  0.3296 -0.8506
25408SOL    HW285193   0.249   4.464  10.521 -0.3896  0.6540 -0.9303
25409SOL     OW85194   8.949   6.054  12.249  0.3075 -0.6306 -0.2408
25409SOL    HW185195   8.935   6.128  12.308 -0.1241 -1.1448  0.3046
25409SOL    HW285196   9.042   6.033  12.258 -0.0017 -1.4985  1.2115
25410SOL     OW85197   3.321   6.537   4.122 -0.4153  0.1299 -0.3599
25410SOL    HW185198   3.346   6.629   4.125  0.1229 -0.0235  0.0081
25410SOL    HW285199   3.261   6.530   4.047 -0.7358  0.8413 -0.1698
25411SOL     OW85200   2.635   0.906   9.771 -0.0193 -0.8362 -0.3632
25411SOL    HW185201   2.650   0.843   9.701  0.1169 -0.1728 -0.9341
25411SOL    HW285202   2.565   0.866   9.824 -0.7156 -0.9444 -1.3519
25412SOL     OW85203   7.783   3.734  10.716  0.0561 -0.4603 -0.6871
25412SOL    HW185204   7.706   3.784  10.688  0.2191  0.8288  0.9847
25412SOL    HW285205   7.784   3.744  10.812  0.6604 -2.9025 -0.3630
25413SOL     OW85206   5.327   0.713   6.889  0.1147 -0.3202 -0.2786
25413SOL    HW185207   5.303   0.802   6.866 -1.0182 -0.5225  0.0810
25413SOL    HW285208   5.301   0.660   6.813  0.6911 -0.3710 -0.4502
25414SOL     OW85209   9.305   2.718  11.192  0.8261  0.0960 -0.0672
25414SOL    HW185210   9.299   2.681  11.104  1.4916 -0.7251  0.2233
25414SOL    HW285211   9.315   2.642  11.250 -2.9647  0.2809  1.1247
25415SOL     OW85212   6.660  11.543   5.407 -0.1897  0.1133 -0.0302
25415SOL    HW185213   6.740  11.529   5.355  0.4848 -1.2699  1.2795
25415SOL    HW285214   6.689  11.533   5.498 -1.3130  2.5194  0.6609
25416SOL     OW85215  11.301   9.007   1.506 -0.3002 -0.0030 -0.5547
25416SOL    HW185216  11.287   9.018   1.600  1.2854  0.8162 -0.3905
25416SOL    HW285217  11.395   9.020   1.494 -0.7087  1.5885 -2.4676
25417SOL     OW85218   3.954  10.010   2.745 -0.6388 -0.0100 -0.0889
25417SOL    HW185219   3.898  10.085   2.763  1.3283  1.7897 -1.0985
25417SOL    HW285220   4.004   9.997   2.826  1.3313  1.9202 -0.9177
25418SOL     OW85221   7.191   0.547   3.093 -0.3854 -0.2833 -0.7409
25418SOL    HW185222   7.272   0.568   3.046  0.3637 -0.9813  0.1878
25418SOL    HW285223   7.139   0.497   3.030 -0.0479  0.0602 -1.3078
25419SOL     OW85224   0.068   0.232  12.392  0.0093 -0.6552  0.4379
25419SOL    HW185225   0.142   0.273  12.437  0.3698  1.3433 -1.7638
25419SOL    HW285226  -0.002   0.229  12.458  1.1643  0.0498  1.7523
25420SOL     OW85227  11.681   5.209  12.246  0.0258 -0.0802 -0.0975
25420SOL    HW185228  11.598   5.163  12.259 -0.3794  0.5579 -0.3668
25420SOL    HW285229  11.694   5.209  12.151  1.0458 -1.3914  0.0098
25421SOL     OW85230   0.598   3.397   6.593 -0.0813 -0.5085 -0.1020
25421SOL    HW185231   0.636   3.313   6.566  1.6075  0.3556 -0.5641
25421SOL    HW285232   0.565   3.381   6.681  0.8440 -1.4999  0.0872
25422SOL     OW85233   7.344   0.895  11.612 -0.1307  0.2580 -0.9469
25422SOL    HW185234   7.273   0.959  11.605 -0.1818  0.3781  0.4124
25422SOL    HW285235   7.423   0.944  11.592 -0.2964  0.4451 -1.1425
25423SOL     OW85236   4.328   5.017  11.285  0.3871  0.1559  0.4692
25423SOL    HW185237   4.369   5.007  11.371 -0.5623 -0.3916  0.8689
25423SOL    HW285238   4.367   5.098  11.250 -3.4623  4.0267  3.9410
25424SOL     OW85239   9.678   6.854   0.418  0.7177 -0.2835 -0.1668
25424SOL    HW185240   9.599   6.887   0.461 -1.7568 -2.6114 -2.4898
25424SOL    HW285241   9.707   6.781   0.472 -1.0897 -1.8305 -1.1711
25425SOL     OW85242   1.905   4.014  11.994  0.3905  0.0953  0.2310
25425SOL    HW185243   1.833   3.973  12.042 -0.2230  0.2170 -0.5625
25425SOL    HW285244   1.896   4.107  12.012  0.6184  0.0718  0.4785
25426SOL     OW85245  10.361   6.485  11.930 -0.0462 -0.1633 -0.5985
25426SOL    HW185246  10.292   6.534  11.885 -1.2231 -0.4920  0.7850
25426SOL    HW285247  10.336   6.488  12.023  0.7818 -1.8933 -0.2863
25427SOL     OW85248   3.961   3.538  11.287  0.3166 -0.3612  0.1052
25427SOL    HW185249   4.010   3.457  11.303 -0.6436 -0.7695  1.0754
25427SOL    HW285250   4.028   3.602  11.263  1.1893 -1.2016  0.2504
25428SOL     OW85251   8.572   5.793   6.308 -0.1196 -0.3787 -0.4706
25428SOL    HW185252   8.492   5.844   6.294  0.9155  1.3058 -0.5276
25428SOL    HW285253   8.614   5.835   6.383  1.1985 -0.5761 -1.0688
25429SOL     OW85254   1.338   1.919  11.097  0.3644 -0.0796  0.1688
25429SOL    HW185255   1.283   1.942  11.022  1.8664 -0.9707 -1.2632
25429SOL    HW285256   1.286   1.853  11.144 -0.8581  0.9369  0.3078
25430SOL     OW85257   8.286   7.090   8.923  0.4378 -0.0766 -0.0892
25430SOL    HW185258   8.233   7.051   8.993 -1.6552  0.8673 -1.0746
25430SOL    HW285259   8.320   7.015   8.874 -0.6658 -0.7132  0.0858
25431SOL     OW85260   4.706  10.240   7.173 -0.2154 -0.1375  0.6230
25431SOL    HW185261   4.624  10.196   7.149  0.4538 -0.7445 -0.6202
25431SOL    HW285262   4.753  10.175   7.227  0.1463 -0.4113 -0.0154
25432SOL     OW85263   7.328  10.860   2.872 -0.0629 -0.1402  0.1177
25432SOL    HW185264   7.307  10.877   2.964  2.7780  0.0725  0.8224
25432SOL    HW285265   7.421  10.837   2.872  0.2639  0.7316 -2.8070
25433SOL     OW85266   2.790   0.495  11.810  0.0083  0.4230  0.0615
25433SOL    HW185267   2.773   0.456  11.724  4.1700 -0.4691 -0.5773
25433SOL    HW285268   2.781   0.589  11.796 -0.7729  0.2116 -0.9683
25434SOL     OW85269   5.658   3.368   5.528 -0.1566 -0.1269 -0.3773
25434SOL    HW185270   5.722   3.338   5.464 -0.3734  1.4714 -1.3761
25434SOL    HW285271   5.605   3.433   5.482 -1.0538  0.2397  1.0938
25435SOL     OW85272   7.270   3.544   4.853 -0.1272 -0.1513  0.4406
25435SOL    HW185273   7.318   3.529   4.935 -0.8773 -1.0918  0.7172
25435SOL    HW285274   7.305   3.479   4.792  1.5818  1.5741 -0.5240
25436SOL     OW85275   7.329   4.283  11.676 -0.0316 -0.3628  0.5038
25436SOL    HW185276   7.387   4.315  11.607 -0.9499 -0.2886 -0.2497
25436SOL    HW285277   7.271   4.220  11.632 -0.5445 -0.4063  1.2281
25437SOL     OW85278   6.534   6.370   9.001  0.3268  0.0952  0.0130
25437SOL    HW185279   6.540   6.325   8.917 -0.8987 -1.5175  0.7310
25437SOL    HW285280   6.624   6.374   9.033  0.7252  0.1757 -1.0723
25438SOL     OW85281   9.141   0.965   3.702  0.0079 -0.1096  0.2255
25438SOL    HW185282   9.063   0.922   3.668  0.7155 -1.5189  0.2773
25438SOL    HW285283   9.159   0.919   3.784 -0.1498  1.4429  1.1682
25439SOL     OW85284   6.667   7.224   5.341  0.6766  0.0043 -0.1078
25439SOL    HW185285   6.723   7.156   5.377  0.5253 -0.5292 -0.8709
25439SOL    HW285286   6.627   7.185   5.264  0.1161  0.7528 -0.2119
25440SOL     OW85287   3.421   8.658   0.489  0.4658 -0.1428 -0.0493
25440SOL    HW185288   3.372   8.576   0.487 -0.0041  0.1137  0.8532
25440SOL    HW285289   3.365   8.719   0.537  1.4042  0.3206  0.4831
25441SOL     OW85290   6.229   3.150   5.171  0.7734 -0.9427  0.4244
25441SOL    HW185291   6.280   3.229   5.155  1.8068 -1.2494  2.0245
25441SOL    HW285292   6.279   3.080   5.128  0.4087 -0.8885 -0.0949
25442SOL     OW85293   9.658  11.368   5.549 -0.4498 -0.2471  0.1481
25442SOL    HW185294   9.654  11.280   5.513 -1.6914 -0.2230  0.1900
25442SOL    HW285295   9.739  11.369   5.601  0.3432 -0.8862 -1.0258
25443SOL     OW85296   5.847   7.437   1.675 -0.2703 -0.1324  0.1722
25443SOL    HW185297   5.779   7.474   1.619 -0.4993 -1.5032 -0.5030
25443SOL    HW285298   5.912   7.403   1.613  2.3741  3.3234  0.7511
25444SOL     OW85299   0.875  11.216  10.734  0.2278  0.1832 -0.3299
25444SOL    HW185300   0.860  11.305  10.768 -0.3712 -0.1019  0.1575
25444SOL    HW285301   0.788  11.181  10.718  0.4379 -0.5607  0.1060
25445SOL     OW85302  11.648   1.153   7.457  0.0426  0.0789 -0.1854
25445SOL    HW185303  11.699   1.233   7.471 -0.9161  0.6940 -0.1137
25445SOL    HW285304  11.559   1.177   7.483 -0.7526 -0.3130 -2.3678
25446SOL     OW85305   1.191   1.964   1.029 -0.2972 -0.3002  0.6876
25446SOL    HW185306   1.229   2.026   1.091  1.3705 -1.0568  0.4891
25446SOL    HW285307   1.224   1.991   0.944 -2.4797  0.6560  0.0803
25447SOL     OW85308   9.920  10.419  11.207 -0.6116  0.0385 -0.3756
25447SOL    HW185309   9.945  10.377  11.289  0.7526  2.3121  0.4483
25447SOL    HW285310   9.894  10.346  11.150 -1.4951 -1.6127  1.9846
25448SOL     OW85311   2.030   9.480   4.634 -0.2261 -0.0456 -0.4672
25448SOL    HW185312   2.126   9.470   4.634 -0.3535 -1.5815  0.0144
25448SOL    HW285313   1.997   9.391   4.637 -1.7058  0.4470 -1.3349
25449SOL     OW85314   9.994   3.256   4.658  0.0596  0.2730 -0.2425
25449SOL    HW185315   9.969   3.286   4.571 -0.7353  0.6511  0.1021
25449SOL    HW285316  10.016   3.164   4.647 -0.4420  0.2113 -0.7690
25450SOL     OW85317   0.526   4.227  11.461  0.4178  0.0697  0.5861
25450SOL    HW185318   0.558   4.199  11.376  0.1419 -1.2621  0.8987
25450SOL    HW285319   0.527   4.322  11.457 -1.4317  0.0803 -1.6181
25451SOL     OW85320  12.351   6.969   2.805 -0.5830  0.0702  0.0215
25451SOL    HW185321  12.311   7.004   2.885  1.2341  0.9574  0.6078
25451SOL    HW285322  12.407   7.040   2.773 -2.1958  0.2243 -2.8178
25452SOL     OW85323   9.336   1.274   5.542  0.2033  0.0822  0.2133
25452SOL    HW185324   9.423   1.304   5.516 -0.2599 -0.3268 -2.0916
25452SOL    HW285325   9.305   1.338   5.606  0.5848  2.6687 -2.0139
25453SOL     OW85326   2.291   1.466  12.002  0.2329 -0.4251 -0.3018
25453SOL    HW185327   2.280   1.549  11.957 -1.4965 -0.1161  0.6151
25453SOL    HW285328   2.293   1.401  11.932  2.7834  0.4177 -1.1099
25454SOL     OW85329   0.075  11.042   1.731  0.4379  0.0984 -0.4984
25454SOL    HW185330   0.038  11.122   1.767 -0.6115  0.5657 -2.4441
25454SOL    HW285331   0.064  10.977   1.800 -1.3433  0.9627  0.0970
25455SOL     OW85332   0.789   9.907   4.640 -0.2439  0.2728  0.4979
25455SOL    HW185333   0.816   9.927   4.551  1.3176 -2.5193  0.2330
25455SOL    HW285334   0.716   9.847   4.630 -0.6294  0.6231  1.1359
25456SOL     OW85335  10.212  10.185   2.109  0.7960  0.7679  0.6298
25456SOL    HW185336  10.247  10.117   2.052  1.7412  0.8823  1.0484
25456SOL    HW285337  10.209  10.145   2.196 -2.0445  0.0939  0.2996
25457SOL     OW85338   2.265   3.264  11.442  0.2317  0.1165 -0.1976
25457SOL    HW185339   2.291   3.295  11.355 -0.0953  1.5801  0.1969
25457SOL    HW285340   2.301   3.330  11.502 -2.2984  0.9484  0.5307
25458SOL     OW85341   5.202   8.194  11.190 -0.2687  0.1301  0.0434
25458SOL    HW185342   5.109   8.212  11.200 -0.2776  0.8246 -1.1330
25458SOL    HW285343   5.219   8.206  11.096  0.9406 -0.2766  0.1959
25459SOL     OW85344   8.078   5.876  11.715  0.2378  0.0446 -0.7029
25459SOL    HW185345   8.089   5.937  11.788  0.2039 -1.7282  0.8554
25459SOL    HW285346   8.050   5.931  11.641 -0.2571  1.8253  0.7531
25460SOL     OW85347   9.073   4.107   1.089 -0.0525  0.2765  0.2440
25460SOL    HW185348   9.062   4.012   1.096  0.4031  0.1049 -1.0913
25460SOL    HW285349   8.990   4.143   1.120 -2.0534 -0.7444 -3.3632
25461SOL     OW85350   9.076   5.316   8.190 -0.6853  0.2430  0.6119
25461SOL    HW185351   9.090   5.382   8.258 -2.0746 -0.5461  1.7208
25461SOL    HW285352   9.058   5.235   8.238  2.6247 -1.4489 -0.6591
25462SOL     OW85353   5.078   4.868  11.790 -0.6294  0.6175  0.3626
25462SOL    HW185354   5.169   4.897  11.782 -0.1693 -0.0061  2.5340
25462SOL    HW285355   5.058   4.829  11.705  1.7953 -0.9915  0.4297
25463SOL     OW85356   0.010  10.223  11.345  0.2565 -0.1081 -0.1328
25463SOL    HW185357   0.102  10.205  11.359 -0.1768 -2.4871  0.0773
25463SOL    HW285358  -0.034  10.140  11.364 -1.9458  1.0097 -0.0394
25464SOL     OW85359   1.583   1.627  12.198  0.6311  0.9178 -0.5036
25464SOL    HW185360   1.574   1.558  12.263  2.8346  1.0341 -0.0003
25464SOL    HW285361   1.584   1.582  12.114 -0.0218  0.5640 -0.3307
25465SOL     OW85362   0.282   9.309  12.108 -0.2511 -0.1807 -0.4468
25465SOL    HW185363   0.279   9.238  12.173 -0.5011 -0.6091 -0.9260
25465SOL    HW285364   0.371   9.304  12.072  0.3441  0.8800  0.7531
25466SOL     OW85365   5.703  10.169   3.051 -0.2779 -0.2037  0.4043
25466SOL    HW185366   5.649  10.218   2.989  0.4652  0.9512  0.6347
25466SOL    HW285367   5.654  10.089   3.069 -1.3220  0.2622 -0.3267
25467SOL     OW85368  11.864   3.687  11.711  0.0223 -0.3325  0.0612
25467SOL    HW185369  11.818   3.636  11.644 -0.0863  0.9695 -0.8860
25467SOL    HW285370  11.940   3.633  11.735 -1.1911 -1.8805  0.6327
25468SOL     OW85371   5.259   1.832  10.111 -0.2739 -0.9519  0.7599
25468SOL    HW185372   5.234   1.752  10.066 -0.1929 -0.6185  0.1199
25468SOL    HW285373   5.204   1.834  10.190 -1.1542 -1.0098  0.1531
25469SOL     OW85374   5.135   6.770   0.392 -0.0925 -0.3843  0.2430
25469SOL    HW185375   5.213   6.752   0.445  0.4081 -0.3923 -0.4878
25469SOL    HW285376   5.119   6.688   0.346 -1.9947 -1.2034  2.2065
25470SOL     OW85377   8.002   9.369  11.685 -0.8226  0.3766  0.4300
25470SOL    HW185378   8.097   9.380  11.682 -0.5979 -1.3853 -0.5987
25470SOL    HW285379   7.974   9.413  11.765  0.9805  0.1774  1.1959
25471SOL     OW85380  11.650  11.118   5.477 -0.4299  0.0600 -0.4700
25471SOL    HW185381  11.643  11.107   5.572 -1.0482 -0.0108 -0.5230
25471SOL    HW285382  11.698  11.200   5.466 -0.0085 -0.1330 -0.0958
25472SOL     OW85383  11.315  11.046   3.936  0.3912  0.0931 -0.3735
25472SOL    HW185384  11.328  11.021   4.028 -1.1317 -1.5211 -0.5540
25472SOL    HW285385  11.223  11.074   3.932  0.4076  0.0124 -1.4374
25473SOL     OW85386   5.197   1.629  11.181 -0.3071 -0.5136 -0.1398
25473SOL    HW185387   5.256   1.687  11.132  0.3601 -0.7100  0.4015
25473SOL    HW285388   5.199   1.547  11.133  2.0381 -1.4051  1.3039
25474SOL     OW85389  11.158   4.599   3.575  0.8678  0.1417 -0.0725
25474SOL    HW185390  11.222   4.661   3.611  0.1934  0.5418  0.4658
25474SOL    HW285391  11.090   4.655   3.536 -0.5465 -0.1761  1.7816
25475SOL     OW85392   5.982  10.296  10.627  1.0356 -0.0009  0.6627
25475SOL    HW185393   6.001  10.258  10.712  1.0651 -0.4683  0.4509
25475SOL    HW285394   5.917  10.237  10.588  1.4756 -0.1321  0.1111
25476SOL     OW85395   2.749   4.846   6.336  0.2119  0.2042 -0.1657
25476SOL    HW185396   2.678   4.784   6.320  0.5607 -0.3088  0.2552
25476SOL    HW285397   2.718   4.928   6.295  0.4104 -0.6230 -2.0957
25477SOL     OW85398  10.319   5.822   0.061  0.3037  0.3492  0.0726
25477SOL    HW185399  10.280   5.815   0.148  0.6223  0.4834  0.2297
25477SOL    HW285400  10.314   5.915   0.039  0.7058  0.3984  0.1774
25478SOL     OW85401   9.320   5.915   0.190  1.2690 -0.2047  0.2196
25478SOL    HW185402   9.321   5.893   0.283 -1.0296  1.5418  0.7454
25478SOL    HW285403   9.394   5.867   0.153  1.1496 -2.3944  2.5919
25479SOL     OW85404   1.614   6.925  11.876  0.7880 -0.0363 -0.0358
25479SOL    HW185405   1.569   6.856  11.925  0.5506 -0.6224 -1.0491
25479SOL    HW285406   1.660   6.878  11.807 -0.8801  0.9401 -1.9040
25480SOL     OW85407   9.219  11.033   2.718 -0.2833  0.5198  0.2831
25480SOL    HW185408   9.184  10.946   2.701  1.3832 -0.3638  1.1512
25480SOL    HW285409   9.279  11.049   2.645  0.2182  0.4822  0.6830
25481SOL     OW85410   1.619   8.241   0.507  0.0976  0.2974 -0.0542
25481SOL    HW185411   1.627   8.336   0.513  0.9660  0.1959  0.5818
25481SOL    HW285412   1.707   8.211   0.483 -0.2290 -0.3315 -0.5162
25482SOL     OW85413   3.073  10.458   2.673  0.9857  0.4424 -0.0971
25482SOL    HW185414   3.121  10.537   2.647 -0.9061  1.8852  0.5668
25482SOL    HW285415   3.053  10.473   2.766 -0.5109 -0.2291 -0.3009
25483SOL     OW85416   8.672   6.096   8.117 -0.4414  0.3679 -0.4422
25483SOL    HW185417   8.619   6.017   8.106 -0.7523  0.5440 -0.2418
25483SOL    HW285418   8.619   6.166   8.077 -0.6107  0.6384  0.2375
25484SOL     OW85419   8.530   9.543   9.622  0.1743 -0.2438  0.1159
25484SOL    HW185420   8.468   9.615   9.608  0.3748 -0.0921  0.0156
25484SOL    HW285421   8.615   9.578   9.596 -0.2228 -1.7662 -4.0733
25485SOL     OW85422   6.753   6.321   4.090 -0.3753  0.4323  0.1358
25485SOL    HW185423   6.691   6.257   4.055  0.4194 -0.4448  0.3001
25485SOL    HW285424   6.819   6.269   4.133  1.8682  1.1538 -2.1753
25486SOL     OW85425   5.590   2.252   4.972  0.3488  0.1235 -0.2044
25486SOL    HW185426   5.654   2.183   4.992 -0.5292 -0.4964  0.5134
25486SOL    HW285427   5.642   2.321   4.931  1.2773 -0.8841 -0.7763
25487SOL     OW85428   8.653   0.710   4.817  0.0829 -0.0619  0.1065
25487SOL    HW185429   8.739   0.730   4.778  0.6282 -2.4270 -0.0664
25487SOL    HW285430   8.593   0.773   4.777  1.5312  0.8606 -0.6913
25488SOL     OW85431  10.418   4.403   5.936  0.4481 -0.0874 -0.3343
25488SOL    HW185432  10.419   4.385   6.030 -0.6699 -0.7625 -0.4308
25488SOL    HW285433  10.490   4.464   5.922  0.0494  0.7457  1.0985
25489SOL     OW85434  11.672   3.681   7.994  0.3711 -0.0478 -0.2533
25489SOL    HW185435  11.733   3.655   8.063 -0.3592 -0.9469  0.0807
25489SOL    HW285436  11.718   3.661   7.912 -0.0729 -2.3233 -0.0212
25490SOL     OW85437   4.127   5.708   7.690  0.1177  0.5874  0.4436
25490SOL    HW185438   4.042   5.693   7.732 -0.4943 -0.5586 -1.0881
25490SOL    HW285439   4.134   5.638   7.624  0.4037  2.9324 -2.2209
25491SOL     OW85440   0.254  11.884   1.495  0.0395 -0.0738  0.3151
25491SOL    HW185441   0.202  11.948   1.543 -0.3643 -0.8153  0.8960
25491SOL    HW285442   0.344  11.912   1.507 -0.2306  2.1518 -2.0220
25492SOL     OW85443   4.092   8.092   6.238  0.0708  0.1595  0.5653
25492SOL    HW185444   4.054   8.177   6.214 -0.0313 -0.4432 -1.6977
25492SOL    HW285445   4.017   8.037   6.259 -0.3657 -0.5832 -2.3966
25493SOL     OW85446   4.218   3.940  11.679  0.0840 -0.1211 -0.0929
25493SOL    HW185447   4.234   3.915  11.770  0.9279  0.2255 -0.1389
25493SOL    HW285448   4.289   4.000  11.658 -1.9554  2.5424  0.0734
25494SOL     OW85449   8.631   5.292   7.174 -0.1475 -0.3986 -0.3360
25494SOL    HW185450   8.669   5.320   7.091 -0.7947 -0.2738 -0.5974
25494SOL    HW285451   8.545   5.257   7.150 -0.3406 -0.3494  0.2819
25495SOL     OW85452  12.078   1.600  10.996 -0.0318 -0.2772  0.1405
25495SOL    HW185453  12.018   1.564  11.061  1.2959 -0.7747  1.1524
25495SOL    HW285454  12.131   1.525  10.967  1.0039  0.3574  0.3100
25496SOL     OW85455   0.811  11.625   0.068 -0.2276 -0.1795 -0.5460
25496SOL    HW185456   0.785  11.717   0.067 -0.5810 -0.2796 -1.6651
25496SOL    HW285457   0.744  11.580   0.015 -0.0002 -1.0673 -0.1095
25497SOL     OW85458   8.935  11.051   2.809 -0.2856 -0.2310 -0.1323
25497SOL    HW185459   8.941  10.968   2.857  0.2268 -0.6115 -0.8224
25497SOL    HW285460   9.020  11.060   2.766 -1.5616 -1.3801 -3.2667
25498SOL     OW85461   8.076   9.769   6.776  0.1797 -0.0040 -0.6505
25498SOL    HW185462   8.069   9.781   6.681 -1.0082 -1.5541 -0.8123
25498SOL    HW285463   8.169   9.771   6.794  0.7094 -3.0306 -2.4104
25499SOL     OW85464   1.552  12.587   2.338 -0.2453  0.5521 -0.0206
25499SOL    HW185465   1.593  12.562   2.421 -1.1030 -1.9994 -0.2632
25499SOL    HW285466   1.604  12.661   2.307  1.1767  0.4660  1.9524
25500SOL     OW85467   9.384   1.719   9.078  0.2834 -0.4465 -0.2801
25500SOL    HW185468   9.461   1.674   9.043 -1.1474 -0.8317 -3.2411
25500SOL    HW285469   9.342   1.653   9.133  1.2077 -0.7669  0.0691
25501SOL     OW85470   8.089   9.894   8.457 -0.3792 -0.1108 -0.1704
25501SOL    HW185471   8.058   9.981   8.483 -1.3394 -1.3466  3.2587
25501SOL    HW285472   8.170   9.881   8.506 -0.4184 -1.2734 -0.3844
25502SOL     OW85473   4.828   5.455   1.277 -0.4983  0.4697 -0.8908
25502SOL    HW185474   4.858   5.370   1.246  2.0961  0.0938  2.1375
25502SOL    HW285475   4.877   5.518   1.226  0.0698  0.0402 -0.8849
25503SOL     OW85476   4.301   7.669   5.898  0.0222 -0.9671 -0.1071
25503SOL    HW185477   4.315   7.713   5.814  0.5387 -0.7466  0.0924
25503SOL    HW285478   4.294   7.740   5.962  1.7250 -1.1712  0.3471
25504SOL     OW85479   5.570   8.350   1.548  0.5547 -0.1170 -0.4027
25504SOL    HW185480   5.499   8.394   1.502  0.7313  1.3542  0.6636
25504SOL    HW285481   5.526   8.296   1.614  0.4118  0.9079  0.3568
25505SOL     OW85482  10.148   1.614   1.209  0.7006  0.0625 -0.0075
25505SOL    HW185483  10.091   1.629   1.134  0.6500 -3.2601 -0.7588
25505SOL    HW285484  10.089   1.603   1.284  0.2890 -2.7124 -0.6644
25506SOL     OW85485   0.760  12.304   0.554 -0.8497  0.3243  0.1333
25506SOL    HW185486   0.776  12.351   0.636 -1.1461  0.4792  0.1061
25506SOL    HW285487   0.832  12.242   0.547  0.4371  1.8138 -0.5977
25507SOL     OW85488   3.221  10.604   7.155 -0.4416  0.0461  0.0657
25507SOL    HW185489   3.177  10.600   7.240 -2.1281  0.5136 -0.7473
25507SOL    HW285490   3.280  10.529   7.155 -2.8949 -2.0098  0.3318
25508SOL     OW85491   7.689   4.826   9.756  0.1319  0.2452 -0.0275
25508SOL    HW185492   7.656   4.876   9.830  1.1719 -0.2787  0.8127
25508SOL    HW285493   7.732   4.750   9.795 -0.9870 -1.0902 -1.2390
25509SOL     OW85494   2.590   4.569   7.953 -0.8753  0.1470 -0.1866
25509SOL    HW185495   2.597   4.664   7.941  0.8420  0.3332  1.6548
25509SOL    HW285496   2.497   4.553   7.967 -1.0443  1.7493  0.7294
25510SOL     OW85497   2.963   7.206   5.931 -0.1794  0.1158  0.0604
25510SOL    HW185498   3.025   7.217   6.003 -0.0238 -1.9645  0.2961
25510SOL    HW285499   2.978   7.282   5.875  1.6981  0.3181  0.7705
25511SOL     OW85500   2.599  10.403   8.401  0.1027 -0.0143 -0.0877
25511SOL    HW185501   2.651  10.483   8.406  0.3378 -0.1144 -0.8008
25511SOL    HW285502   2.661  10.333   8.424 -0.1286  0.0153  0.6397
25512SOL     OW85503  10.030  10.409   7.482  0.8185  0.1386 -0.3488
25512SOL    HW185504  10.054  10.497   7.510  2.0807 -0.3686  0.2240
25512SOL    HW285505  10.081  10.351   7.538  0.1024 -0.9611 -0.8046
25513SOL     OW85506   6.438   3.436   6.684  0.4379  0.3290 -0.2110
25513SOL    HW185507   6.360   3.420   6.737  1.1082  1.1900  1.0843
25513SOL    HW285508   6.510   3.435   6.746  1.3072  0.9557 -1.1787
25514SOL     OW85509   0.922   3.916  10.103  0.4314  0.2315  0.5114
25514SOL    HW185510   0.840   3.925  10.152 -0.2860  1.6832 -0.8779
25514SOL    HW285511   0.979   3.984  10.137 -0.1137  1.3292 -0.6739
25515SOL     OW85512   1.900   3.271  10.457 -0.2082  0.3065  0.2124
25515SOL    HW185513   1.990   3.303  10.450  0.1686  0.0506  2.8060
25515SOL    HW285514   1.859   3.297  10.374  2.1148  0.7858 -0.8771
25516SOL     OW85515   9.103   8.967   1.491  0.9668 -0.4090 -0.1573
25516SOL    HW185516   9.023   8.944   1.444  1.5658 -2.5805 -0.2644
25516SOL    HW285517   9.172   8.962   1.426  1.6004 -1.9260  0.5730
25517SOL     OW85518   4.282   0.410   3.567  0.0302  0.2387 -0.2708
25517SOL    HW185519   4.335   0.431   3.644  0.1113 -1.2755  0.1014
25517SOL    HW285520   4.304   0.320   3.546  0.3204  0.7356 -2.3488
25518SOL     OW85521   6.977   4.831   2.097  0.3597  0.0316 -0.0015
25518SOL    HW185522   7.043   4.766   2.122 -0.4097 -0.8115 -0.1444
25518SOL    HW285523   6.956   4.877   2.179 -0.0415 -0.7812  0.3625
25519SOL     OW85524  10.588   6.981   5.719 -0.0311 -0.2108 -0.3780
25519SOL    HW185525  10.509   6.985   5.772  0.1978 -2.0344  0.1983
25519SOL    HW285526  10.572   6.909   5.657  0.7624  0.0955 -0.9635
25520SOL     OW85527  12.328   9.908   0.402  0.0323  0.1767  0.2841
25520SOL    HW185528  12.257   9.941   0.347 -0.9386 -0.7334  0.9423
25520SOL    HW285529  12.314   9.813   0.405  0.2826  0.1581  1.7571
25521SOL     OW85530   2.007  11.171   4.128  0.6453 -0.3520 -0.7465
25521SOL    HW185531   1.936  11.168   4.064  0.3992  1.3300 -0.5857
25521SOL    HW285532   1.970  11.131   4.207 -0.3326  1.0411 -0.4785
25522SOL     OW85533  12.458   9.315  12.196  0.4175 -0.0563  0.0779
25522SOL    HW185534  12.439   9.388  12.138  1.2564  1.0669  1.1667
25522SOL    HW285535  12.454   9.238  12.140 -0.3878  0.8220 -1.1178
25523SOL     OW85536   5.637  10.250   4.741 -0.0226 -0.2611  0.0815
25523SOL    HW185537   5.603  10.173   4.696  0.8040 -1.0455  0.7846
25523SOL    HW285538   5.600  10.246   4.829  0.8534 -0.4221  0.4463
25524SOL     OW85539   4.979   6.039   8.247  0.0777  0.6130 -0.0130
25524SOL    HW185540   5.069   6.011   8.229  0.3932  1.7902 -0.3856
25524SOL    HW285541   4.937   6.043   8.161 -0.7553 -1.1886  0.2604
25525SOL     OW85542   9.092   1.053   6.262  0.2547 -0.7299  0.0528
25525SOL    HW185543   9.005   1.085   6.240  0.2387 -0.5896  0.3114
25525SOL    HW285544   9.080   1.010   6.347  0.3079 -1.2810 -0.2124
25526SOL     OW85545   8.890   5.942  10.861  0.4699  0.3764  0.3504
25526SOL    HW185546   8.979   5.959  10.830  0.7790 -0.2134  0.9073
25526SOL    HW285547   8.884   5.847  10.867 -0.4754  0.3634 -0.4722
25527SOL     OW85548  11.763   8.584   7.805  0.9387 -0.0161  0.3160
25527SOL    HW185549  11.758   8.545   7.717 -0.2782 -0.2069  0.4468
25527SOL    HW285550  11.673   8.580   7.837  1.4658 -0.4300  1.7906
25528SOL     OW85551   5.554   9.407   9.628  0.5097  0.3503 -0.3319
25528SOL    HW185552   5.573   9.490   9.672  0.2199  0.0525  0.3798
25528SOL    HW285553   5.509   9.432   9.548 -1.0284  0.8296  0.6400
25529SOL     OW85554   4.944   2.963   9.644  0.0027  0.1211 -0.0205
25529SOL    HW185555   4.929   2.869   9.639  0.1611  0.1282 -0.8060
25529SOL    HW285556   4.963   2.989   9.554  0.1932  0.8662  0.2262
25530SOL     OW85557   2.116   4.704   8.124 -0.6991 -0.5148  0.6931
25530SOL    HW185558   2.128   4.726   8.217 -0.8581 -0.1924  0.6373
25530SOL    HW285559   2.037   4.650   8.123 -0.5262 -0.7729  0.7812
25531SOL     OW85560   9.138   9.862   4.016 -0.1731 -0.3939  0.0789
25531SOL    HW185561   9.161   9.770   4.010 -1.0869 -0.6690  0.6472
25531SOL    HW285562   9.047   9.863   4.044  0.3170  0.6887  1.8401
25532SOL     OW85563  11.606   1.816   5.091  0.2167  0.4594 -0.2511
25532SOL    HW185564  11.598   1.902   5.132  0.2663  0.8610 -1.0761
25532SOL    HW285565  11.698   1.807   5.068  0.0255  0.6349 -1.1186
25533SOL     OW85566  12.368   7.001   3.258 -0.6632 -0.0513  0.3058
25533SOL    HW185567  12.346   6.915   3.295  2.2528 -1.2544 -0.4326
25533SOL    HW285568  12.306   7.013   3.187 -1.9100 -0.9575  1.1966
25534SOL     OW85569   0.441  10.983   8.743 -0.0737  0.2687 -0.4026
25534SOL    HW185570   0.409  10.896   8.768  0.8581  0.0966  0.2568
25534SOL    HW285571   0.419  11.038   8.818 -0.2837  0.5087 -0.6404
25535SOL     OW85572  10.083   4.994   9.552  0.3026 -0.4939  0.3154
25535SOL    HW185573  10.131   4.955   9.625  2.9213  0.0727 -0.9776
25535SOL    HW285574  10.128   4.963   9.474 -0.7787  0.9813 -0.9621
25536SOL     OW85575   9.892  10.029   1.371 -0.6335 -0.7062 -0.1207
25536SOL    HW185576   9.897   9.934   1.357  1.2988 -0.3588 -2.3057
25536SOL    HW285577   9.929  10.067   1.292 -1.0997  1.8994  0.8269
25537SOL     OW85578   9.391  12.127   4.028 -0.2665 -0.0202 -0.1373
25537SOL    HW185579   9.370  12.173   4.109  0.4047  2.2438 -1.1469
25537SOL    HW285580   9.338  12.047   4.031 -0.9379  0.4396  2.0858
25538SOL     OW85581   7.491   5.286   4.324 -0.1271  0.4883  0.0612
25538SOL    HW185582   7.548   5.217   4.290 -0.3985  0.4866 -0.3889
25538SOL    HW285583   7.403   5.247   4.323  0.1066 -0.3883  2.9543
25539SOL     OW85584   7.214   4.594   5.602  0.2221  0.0177 -0.0209
25539SOL    HW185585   7.193   4.683   5.575 -1.9837 -0.0168  1.3489
25539SOL    HW285586   7.212   4.596   5.697  1.5389 -1.2199  0.0684
25540SOL     OW85587  12.291  10.454   4.863 -0.0896  0.0218  0.2635
25540SOL    HW185588  12.324  10.370   4.833  0.6224  0.7889 -1.2004
25540SOL    HW285589  12.369  10.499   4.897 -0.1735  0.6526 -0.3522
25541SOL     OW85590   0.165   3.840   5.568  0.2231 -0.1417  0.3646
25541SOL    HW185591   0.260   3.841   5.573  0.1638 -0.6203  2.0806
25541SOL    HW285592   0.136   3.833   5.659 -1.4012 -3.2548 -0.2625
25542SOL     OW85593   5.167   7.290   9.887 -0.5480 -0.1243 -0.7460
25542SOL    HW185594   5.202   7.201   9.877  0.2302 -0.0131  0.7253
25542SOL    HW285595   5.243   7.347   9.876 -1.0402  0.3743 -1.6468
25543SOL     OW85596   8.536   5.086   0.729 -0.0358 -0.4808 -0.0508
25543SOL    HW185597   8.479   5.040   0.667 -1.5922  1.6947 -0.3637
25543SOL    HW285598   8.607   5.121   0.674 -0.2437 -0.3517 -0.2384
25544SOL     OW85599   5.402  12.214  11.625 -0.0452 -0.0099  1.1011
25544SOL    HW185600   5.364  12.183  11.543  0.2924  0.8935  0.5907
25544SOL    HW285601   5.438  12.135  11.666  1.8738 -0.1994 -0.7273
25545SOL     OW85602   6.248   1.122   6.633  0.4738  0.1070  0.3555
25545SOL    HW185603   6.218   1.107   6.723  0.9777 -0.2105  0.4724
25545SOL    HW285604   6.307   1.197   6.640 -0.6377  1.0282  0.0532
25546SOL     OW85605   1.247   3.221   5.581  0.0592 -0.1694  0.7625
25546SOL    HW185606   1.319   3.230   5.519  0.8306 -2.9698  1.1067
25546SOL    HW285607   1.188   3.294   5.561  0.9472 -0.1756 -2.3116
25547SOL     OW85608   9.273  10.788   7.039 -0.0951 -0.0289 -0.1867
25547SOL    HW185609   9.219  10.783   6.960  1.0416  1.1004 -1.0662
25547SOL    HW285610   9.310  10.700   7.048  0.5357  0.0800 -1.4993
25548SOL     OW85611   0.257  12.358   9.136 -0.0689 -0.3936 -0.4104
25548SOL    HW185612   0.296  12.271   9.135 -0.6985 -0.6765 -0.7651
25548SOL    HW285613   0.307  12.408   9.072  0.9378 -0.1994  0.4991
25549SOL     OW85614  10.630   1.392   3.687 -0.3306  0.3694 -0.7273
25549SOL    HW185615  10.703   1.445   3.719 -1.0474  1.8788 -1.4926
25549SOL    HW285616  10.669   1.332   3.624  0.2794  1.0743 -1.0315
25550SOL     OW85617   3.142   8.231   1.350 -0.0173 -0.0811 -0.2547
25550SOL    HW185618   3.230   8.254   1.321  0.0477 -0.5137 -0.4077
25550SOL    HW285619   3.125   8.145   1.310  0.3250 -1.0200  1.5516
25551SOL     OW85620   2.856   3.912   1.270 -0.2412 -0.6754 -0.2378
25551SOL    HW185621   2.824   3.983   1.326 -0.0118 -0.7829  0.0299
25551SOL    HW285622   2.802   3.918   1.191  0.7223  0.6870 -0.8238
25552SOL     OW85623   3.109   0.326   7.457  0.3830  0.0449 -0.5495
25552SOL    HW185624   3.117   0.234   7.428  1.1396  0.7747 -2.9310
25552SOL    HW285625   3.028   0.357   7.415 -1.9690 -0.4263  3.2131
25553SOL     OW85626   9.712   2.962   7.848 -0.5007 -0.1908  0.1178
25553SOL    HW185627   9.689   3.016   7.773  2.4249  0.3895 -0.4940
25553SOL    HW285628   9.669   2.878   7.832 -1.1407  0.4004 -1.4238
25554SOL     OW85629  12.035   2.063  11.353  0.1397  0.0242 -0.3596
25554SOL    HW185630  12.060   1.973  11.375 -0.6168  0.0358  0.6090
25554SOL    HW285631  12.099   2.117  11.400 -0.2357  0.0091  0.1774
25555SOL     OW85632  11.803   9.420   8.790  0.4021  0.5329 -0.4520
25555SOL    HW185633  11.837   9.504   8.760  0.2774  0.5172 -0.6385
25555SOL    HW285634  11.776   9.436   8.880 -1.3378  1.1891 -1.0428
25556SOL     OW85635  10.772   8.481   5.737 -0.5426 -0.1135  0.0722
25556SOL    HW185636  10.707   8.431   5.688 -0.3038 -0.7422  0.3829
25556SOL    HW285637  10.727   8.562   5.760 -1.6166 -1.0141  1.2749
25557SOL     OW85638   9.699   4.417  10.741 -0.2259 -0.3130  0.0952
25557SOL    HW185639   9.768   4.415  10.809 -1.5490 -2.4839  1.4758
25557SOL    HW285640   9.624   4.458  10.785 -0.6903 -0.5087 -0.5080
25558SOL     OW85641   6.176   7.538   9.841  0.1531 -0.2182 -0.4364
25558SOL    HW185642   6.209   7.605   9.780  0.6637 -0.4850 -0.4584
25558SOL    HW285643   6.146   7.467   9.785 -2.9541  1.0561 -0.5755
25559SOL     OW85644   6.890  10.067   0.777  0.0022  0.2737 -0.1364
25559SOL    HW185645   6.959  10.120   0.738  0.3114 -0.0135  0.0226
25559SOL    HW285646   6.906   9.978   0.745 -0.7000  0.3207 -0.6601
25560SOL     OW85647   6.687  11.791  11.608  0.8096 -0.1182  0.2139
25560SOL    HW185648   6.658  11.865  11.661 -1.6720 -0.3165 -0.7239
25560SOL    HW285649   6.778  11.810  11.587  0.4343  2.3253  0.5578
25561SOL     OW85650   1.803  11.210   7.901 -0.2815  0.0679  0.3432
25561SOL    HW185651   1.763  11.124   7.884 -0.5402  0.3097 -0.3066
25561SOL    HW285652   1.806  11.252   7.815  0.5277  0.4228  0.5378
25562SOL     OW85653  11.322  11.260  10.938 -0.1671 -0.1153  0.1972
25562SOL    HW185654  11.383  11.332  10.952 -0.7297  0.3596  0.2087
25562SOL    HW285655  11.272  11.284  10.861 -2.6573  1.1397  2.0579
25563SOL     OW85656   5.299   0.770  10.582  0.2449 -0.6623  0.0856
25563SOL    HW185657   5.233   0.706  10.609 -0.5489  0.5980  1.2782
25563SOL    HW285658   5.259   0.818  10.510  0.1681 -0.4158  0.2908
25564SOL     OW85659   2.795  12.463   8.397  0.2790 -0.2119  0.0695
25564SOL    HW185660   2.794  12.388   8.338 -0.2895 -0.2264  0.0960
25564SOL    HW285661   2.886  12.468   8.427  0.9138  0.5820 -1.8073
25565SOL     OW85662  11.230   7.237   9.741 -0.4214  0.4493  0.7031
25565SOL    HW185663  11.216   7.143   9.727  0.8893  0.3938 -0.4329
25565SOL    HW285664  11.144   7.270   9.768 -1.1620 -0.8960  0.0975
25566SOL     OW85665   5.617  11.619  11.523  0.3430 -0.2514  0.6625
25566SOL    HW185666   5.669  11.587  11.449 -0.4889 -0.0871 -0.0072
25566SOL    HW285667   5.577  11.700  11.491 -1.3646 -1.0479  0.6939
25567SOL     OW85668   1.161   5.691   8.709  0.1700 -0.0995 -0.3500
25567SOL    HW185669   1.101   5.665   8.779  0.6321  2.9149  1.3415
25567SOL    HW285670   1.245   5.651   8.733  0.0623  0.0067  0.2090
25568SOL     OW85671   0.848   9.620   0.921 -0.0435  0.3089 -0.0757
25568SOL    HW185672   0.899   9.551   0.879  0.0129  0.4571 -0.2490
25568SOL    HW285673   0.910   9.692   0.933 -0.3328  0.6774 -0.7446
25569SOL     OW85674   7.320   5.179   6.546  0.0117 -0.1218  0.0181
25569SOL    HW185675   7.370   5.171   6.464  1.7888  1.8706  0.8336
25569SOL    HW285676   7.277   5.264   6.539  1.8847  1.0943  1.9488
25570SOL     OW85677   8.745   7.734   4.175 -1.0360  0.2145 -0.2965
25570SOL    HW185678   8.782   7.646   4.178  1.5414  1.2572  1.3641
25570SOL    HW285679   8.691   7.734   4.096  0.1226 -2.3498 -1.2064
25571SOL     OW85680   0.292   1.928  10.833 -0.6551  0.3099  0.1977
25571SOL    HW185681   0.246   1.868  10.774  2.0127 -0.7305 -0.9976
25571SOL    HW285682   0.309   2.005  10.780 -0.3704  0.3612  0.3597
25572SOL     OW85683   1.015   1.858  12.068 -0.0199 -0.2408 -0.7727
25572SOL    HW185684   1.041   1.807  12.144  0.0966  1.4217  0.3577
25572SOL    HW285685   1.091   1.912  12.048 -0.0975 -0.5567 -2.0125
25573SOL     OW85686  11.162   4.613   7.932 -0.2956 -0.1371  0.7067
25573SOL    HW185687  11.111   4.686   7.898 -0.4019  1.1413  3.3666
25573SOL    HW285688  11.167   4.629   8.026  4.4437 -0.5079  0.7540
25574SOL     OW85689   1.615   9.401   6.780 -0.1886  0.6413 -0.0681
25574SOL    HW185690   1.704   9.432   6.764 -0.7760  2.3362 -0.2469
25574SOL    HW285691   1.563   9.440   6.710 -1.5646  2.1643  1.7078
25575SOL     OW85692   6.285   6.340   3.477  0.1169 -0.0697 -0.3967
25575SOL    HW185693   6.258   6.302   3.393  0.8613  0.6012 -0.9412
25575SOL    HW285694   6.231   6.293   3.542 -0.1806 -0.8729 -1.1997
25576SOL     OW85695   7.597   9.360   1.906 -0.2932 -0.0033  0.3757
25576SOL    HW185696   7.556   9.424   1.847 -0.6755 -0.4783  0.1149
25576SOL    HW285697   7.563   9.382   1.992 -0.0322  0.4566  0.3679
25577SOL     OW85698   1.847   4.064  11.578  0.0064  0.1641 -0.3786
25577SOL    HW185699   1.796   4.121  11.635  1.6185  0.6454  0.6270
25577SOL    HW285700   1.869   3.989  11.632 -0.1195 -0.3182 -0.9836
25578SOL     OW85701   0.844   9.648   5.587  0.1191 -0.0840 -0.1304
25578SOL    HW185702   0.933   9.643   5.552 -0.2034 -1.5167 -0.8305
25578SOL    HW285703   0.850   9.606   5.673  0.1951  0.2231  0.0172
25579SOL     OW85704  11.807  10.410  10.604  0.4700  0.2347 -0.3186
25579SOL    HW185705  11.726  10.447  10.639  0.3178 -0.2271 -0.1637
25579SOL    HW285706  11.861  10.485  10.581 -0.1262  0.5462 -0.7010
25580SOL     OW85707   2.648   0.473   2.250  0.6081 -0.2312 -0.0518
25580SOL    HW185708   2.675   0.554   2.293 -0.0447  0.0985 -0.2456
25580SOL    HW285709   2.700   0.471   2.170  1.2763 -0.4637  0.3848
25581SOL     OW85710   8.498   8.912   2.366  0.3639 -0.1245 -0.2732
25581SOL    HW185711   8.466   8.842   2.310  2.5954 -2.0221  0.6652
25581SOL    HW285712   8.490   8.878   2.455 -0.3175  1.6305  0.3917
25582SOL     OW85713   6.198   8.635   2.140  0.2649  1.2592  0.2128
25582SOL    HW185714   6.131   8.577   2.176  1.4054 -1.6518 -1.9271
25582SOL    HW285715   6.152   8.717   2.121 -2.6937 -0.5373 -1.0073
25583SOL     OW85716   5.709   0.927   8.600  0.2408  0.0300  0.4802
25583SOL    HW185717   5.653   0.851   8.617 -0.1217  0.2065  0.0835
25583SOL    HW285718   5.791   0.890   8.566 -0.4882 -0.1163 -1.1700
25584SOL     OW85719  10.087   2.664   6.144 -0.1237  0.0561 -0.4917
25584SOL    HW185720  10.000   2.695   6.118 -0.3014 -1.3402 -1.6720
25584SOL    HW285721  10.141   2.677   6.067  0.3652 -0.4516 -0.2384
25585SOL     OW85722   8.266   7.908   9.170 -0.1421  0.5032  0.1999
25585SOL    HW185723   8.317   7.841   9.216 -1.3121 -0.1024  0.6511
25585SOL    HW285724   8.318   7.988   9.180 -0.4825  0.4997  2.9471
25586SOL     OW85725   4.343   9.534   0.311  0.1719 -0.6604 -0.7265
25586SOL    HW185726   4.279   9.476   0.269  0.1249 -1.1323 -0.0334
25586SOL    HW285727   4.422   9.482   0.317 -0.0537 -0.8928  0.4749
25587SOL     OW85728   0.917   3.062   1.826 -0.2809  0.2699 -0.1687
25587SOL    HW185729   0.849   3.107   1.875  0.5673  0.2973  1.0132
25587SOL    HW285730   0.990   3.124   1.822 -0.4718  0.4270 -1.8392
25588SOL     OW85731   8.935  10.039   2.041 -0.0607  0.4953 -0.2731
25588SOL    HW185732   9.000  10.058   1.973 -0.8879  1.2012 -0.8987
25588SOL    HW285733   8.861  10.001   1.994 -0.2171 -0.0339  0.3872
25589SOL     OW85734   2.969   3.886   0.055  0.0676 -0.6022 -0.4252
25589SOL    HW185735   2.925   3.951   0.110 -0.1804 -0.9372 -0.2268
25589SOL    HW285736   2.907   3.867  -0.014 -0.7511 -2.1880  0.6720
25590SOL     OW85737   8.587   1.562   1.451  0.0110  0.1181  0.2576
25590SOL    HW185738   8.496   1.563   1.421 -0.2932 -2.5169  0.7897
25590SOL    HW285739   8.601   1.472   1.482  2.7508  0.4884  0.3862
25591SOL     OW85740   2.068   1.103  11.303 -0.3657 -0.0747  0.6397
25591SOL    HW185741   1.992   1.151  11.336  0.5072  1.0261  1.0889
25591SOL    HW285742   2.102   1.056  11.379 -0.2985 -0.1690  0.5519
25592SOL     OW85743   3.521   7.930   6.577  0.2101  0.0672 -0.1576
25592SOL    HW185744   3.436   7.925   6.621  0.9729 -1.4603  1.2797
25592SOL    HW285745   3.502   7.963   6.490 -1.4095  3.2456  1.2345
25593SOL     OW85746   1.674  11.123   2.895  0.1807 -0.3626 -0.6190
25593SOL    HW185747   1.621  11.190   2.853  2.1726  1.5598 -0.2389
25593SOL    HW285748   1.683  11.152   2.985  1.3814 -0.9315 -0.5326
25594SOL     OW85749   8.005   9.339   8.889 -0.5230  0.5576 -0.0495
25594SOL    HW185750   8.011   9.428   8.924  2.4681  0.4565 -0.0319
25594SOL    HW285751   8.031   9.348   8.797 -0.6993 -0.2343 -0.1841
25595SOL     OW85752  12.507  11.269   5.271 -0.5585 -0.1307  0.5014
25595SOL    HW185753  12.445  11.259   5.344 -0.8211 -0.2087  0.2686
25595SOL    HW285754  12.587  11.227   5.302 -0.7528 -0.3978  0.6436
25596SOL     OW85755  10.860  10.558   9.085  0.0925 -0.6508  0.0881
25596SOL    HW185756  10.881  10.610   9.007  0.5570 -0.1174  0.5570
25596SOL    HW285757  10.901  10.473   9.070 -0.9842 -1.0227 -0.8528
25597SOL     OW85758   6.285   7.299  11.717 -0.6403 -0.1436 -0.3741
25597SOL    HW185759   6.208   7.332  11.764 -0.6484 -0.2196 -0.3340
25597SOL    HW285760   6.249   7.246  11.646 -0.6406  0.4399 -0.8192
25598SOL     OW85761   6.252   7.190   8.586  0.0891  0.3783 -0.0998
25598SOL    HW185762   6.190   7.117   8.590 -2.1727  2.2001  2.1578
25598SOL    HW285763   6.280   7.194   8.495 -2.2278 -1.3122 -0.9700
25599SOL     OW85764   6.432   1.836   0.563  0.1851  0.2651  0.3867
25599SOL    HW185765   6.366   1.772   0.535  1.0673 -0.7987  0.6967
25599SOL    HW285766   6.515   1.789   0.559  0.8201  1.3024  0.9269
25600SOL     OW85767  10.521   2.261   6.939 -0.2938  0.3585  0.1806
25600SOL    HW185768  10.579   2.189   6.913 -0.4181  0.9042 -1.7876
25600SOL    HW285769  10.436   2.220   6.954 -0.3264  0.0531 -0.7882
25601SOL     OW85770   5.911   2.287   7.750 -0.2215 -0.0800  0.0061
25601SOL    HW185771   5.837   2.327   7.794 -0.5871 -0.4634 -0.2561
25601SOL    HW285772   5.967   2.255   7.821 -0.1508  0.4690  0.2087
25602SOL     OW85773   3.350   2.325   8.593  0.1899  0.0650  0.0108
25602SOL    HW185774   3.318   2.260   8.530  2.3093 -2.2565  1.1593
25602SOL    HW285775   3.423   2.367   8.548  0.2562  0.0352  0.0918
25603SOL     OW85776   2.768   0.837   6.955 -0.2112 -0.0450 -0.1564
25603SOL    HW185777   2.684   0.814   6.996 -0.8078 -1.6854 -2.1189
25603SOL    HW285778   2.771   0.932   6.957 -1.1931 -0.0017  1.6665
25604SOL     OW85779   1.299  11.378   0.211 -0.5760 -0.1073  0.0234
25604SOL    HW185780   1.337  11.290   0.209  0.8465  0.2905  3.0075
25604SOL    HW285781   1.206  11.363   0.230 -0.1371 -1.0277  1.6892
25605SOL     OW85782   1.191  11.930   7.102 -0.2193  0.0179 -0.0325
25605SOL    HW185783   1.183  11.992   7.029 -0.3295  1.4213  1.1467
25605SOL    HW285784   1.277  11.890   7.090  0.3535  1.2643 -0.1555
25606SOL     OW85785   5.336   3.023   6.496  0.0324  0.1303 -0.2391
25606SOL    HW185786   5.247   3.004   6.526 -0.1225  2.7389  1.3138
25606SOL    HW285787   5.385   3.040   6.577  2.0273 -1.4021 -1.0544
25607SOL     OW85788   9.428   9.694  12.186  0.4170 -0.4148  0.5390
25607SOL    HW185789   9.425   9.789  12.171  1.6476 -0.4144  0.1652
25607SOL    HW285790   9.429   9.656  12.098  0.1866 -0.7708  0.6875
25608SOL     OW85791   7.565  11.031   4.868 -0.3047 -0.2990 -0.0353
25608SOL    HW185792   7.503  11.013   4.797  1.0111 -1.4077 -0.9682
25608SOL    HW285793   7.601  10.945   4.889  1.2254  0.3743  0.1766
25609SOL     OW85794   5.181  12.039   4.676  0.9528  1.0115  0.0908
25609SOL    HW185795   5.141  12.124   4.660  0.9672  0.7875 -1.2157
25609SOL    HW285796   5.163  12.022   4.769 -1.7612  1.0623 -0.3284
25610SOL     OW85797   9.578   6.899   3.063 -0.4809 -0.0063 -0.1441
25610SOL    HW185798   9.521   6.936   3.130 -1.5541 -0.8352 -0.5762
25610SOL    HW285799   9.666   6.904   3.101 -1.1164 -0.9526  1.5516
25611SOL     OW85800   1.307  11.985   9.238 -0.3154  0.1488  0.6243
25611SOL    HW185801   1.288  12.028   9.154  1.8908 -2.3126 -1.3319
25611SOL    HW285802   1.258  11.903   9.235  0.4024 -0.3191  1.3713
25612SOL     OW85803  12.582   7.265   0.849  0.2925  0.0283  0.3060
25612SOL    HW185804  12.499   7.228   0.880 -0.0305 -0.5456 -1.1630
25612SOL    HW285805  12.592   7.230   0.760  0.8947  2.0316 -0.4581
25613SOL     OW85806  10.100   6.239   7.724 -0.2880  0.4353  0.0711
25613SOL    HW185807  10.098   6.184   7.802 -0.9447  1.3779  0.7530
25613SOL    HW285808  10.058   6.321   7.751  0.6659  1.2880 -0.8994
25614SOL     OW85809   4.477  12.352   2.857 -0.4144  0.0837  0.9516
25614SOL    HW185810   4.412  12.288   2.828  0.5127  0.0586 -1.2324
25614SOL    HW285811   4.497  12.327   2.947 -1.7420 -1.2843  0.9052
25615SOL     OW85812   8.254  11.990   4.724  0.0957 -0.5385  0.1184
25615SOL    HW185813   8.178  12.011   4.670 -0.9381  2.9934  2.5571
25615SOL    HW285814   8.223  11.921   4.783 -1.3128  0.7474  0.9792
25616SOL     OW85815   3.629   2.296  10.186  0.4191 -0.1594 -0.2318
25616SOL    HW185816   3.626   2.313  10.280 -0.8023 -1.7826  0.0496
25616SOL    HW285817   3.538   2.299  10.158  0.8592  1.7958 -1.6979
25617SOL     OW85818   9.573   6.447   5.810  0.5936  0.1456  0.2620
25617SOL    HW185819   9.583   6.537   5.777  1.1910  0.6549  1.7395
25617SOL    HW285820   9.483   6.444   5.843 -0.0165 -0.3739 -1.3313
25618SOL     OW85821   7.532  11.860  12.586 -0.4261  0.1588 -0.2374
25618SOL    HW185822   7.532  11.953  12.562 -0.8363  0.3345  0.4288
25618SOL    HW285823   7.441  11.841  12.608 -0.7254 -0.8767 -2.1407
25619SOL     OW85824   8.582  10.741  12.325 -0.2407 -0.3457 -0.1945
25619SOL    HW185825   8.668  10.763  12.360 -0.5167 -0.2315  0.4395
25619SOL    HW285826   8.541  10.825  12.305 -1.3252 -0.1834  2.3054
25620SOL     OW85827  11.817   7.852   8.291 -0.4964 -0.0420 -0.1588
25620SOL    HW185828  11.879   7.811   8.351 -0.9055 -1.3261 -0.5901
25620SOL    HW285829  11.742   7.875   8.346 -0.1173  0.4824  0.1518
25621SOL     OW85830   8.397   5.417   1.169  0.1644  0.5101  0.7480
25621SOL    HW185831   8.383   5.436   1.262  0.5742 -0.2544  0.9684
25621SOL    HW285832   8.487   5.446   1.152  0.3409 -0.0244  0.7671
25622SOL     OW85833  11.769   1.695   5.425  0.1934 -0.1350  0.6272
25622SOL    HW185834  11.828   1.770   5.427  0.4101 -0.2850 -0.0323
25622SOL    HW285835  11.820   1.623   5.462  0.5229 -0.3284 -0.1866
25623SOL     OW85836   9.257   1.514   9.509 -0.3083  0.6800  0.5340
25623SOL    HW185837   9.166   1.543   9.506 -0.3807  0.5824  1.5348
25623SOL    HW285838   9.284   1.528   9.600  0.8284  1.1701  0.1419
25624SOL     OW85839   2.997   9.852   1.391  0.1046 -0.5668 -0.2712
25624SOL    HW185840   2.911   9.828   1.357  0.2358 -1.6034  0.0829
25624SOL    HW285841   3.028   9.773   1.435  1.7030 -0.5714 -1.3191
25625SOL     OW85842  10.180   8.726   0.412  0.1474  0.7051  0.4646
25625SOL    HW185843  10.229   8.644   0.404 -1.4863 -0.3225  0.4268
25625SOL    HW285844  10.194   8.754   0.502  2.1657  1.3789 -0.0121
25626SOL     OW85845   8.576   7.944   6.099  0.1194 -0.2658 -0.0540
25626SOL    HW185846   8.566   8.036   6.076 -0.9452 -0.3265  0.1376
25626SOL    HW285847   8.668   7.936   6.124  0.2703  0.7000 -0.2590
25627SOL     OW85848   3.465  10.234  10.133 -0.0614  0.4613 -0.0299
25627SOL    HW185849   3.492  10.293  10.204 -0.3451 -0.6305  1.0097
25627SOL    HW285850   3.408  10.170  10.175 -0.0408 -0.3570 -1.2036
25628SOL     OW85851   6.444   7.590   1.357  0.0822 -0.6072 -0.3250
25628SOL    HW185852   6.489   7.675   1.362 -1.5545  0.2896 -0.2623
25628SOL    HW285853   6.415   7.583   1.266  0.6066 -1.3427 -0.4493
25629SOL     OW85854   3.834  12.331   3.313 -0.2917  0.1399  0.3794
25629SOL    HW185855   3.792  12.245   3.322  0.1892 -0.0815  0.5828
25629SOL    HW285856   3.868  12.350   3.400 -0.0871  0.3740  0.2498
25630SOL     OW85857   6.079   8.373   3.742 -0.1960 -0.1991  0.0147
25630SOL    HW185858   5.987   8.357   3.719 -0.5569  1.1084  0.4507
25630SOL    HW285859   6.117   8.410   3.663 -0.5499  1.0337  0.3968
25631SOL     OW85860   5.895   2.796  10.317 -0.3663  0.4054  0.1911
25631SOL    HW185861   5.868   2.797  10.409  1.4160  0.2380  0.7551
25631SOL    HW285862   5.944   2.878  10.305  0.4789 -0.1380 -0.2386
25632SOL     OW85863  11.365   9.773   5.488 -0.2268  0.2795  0.0464
25632SOL    HW185864  11.351   9.826   5.567  0.8908  1.3036 -0.4062
25632SOL    HW285865  11.411   9.696   5.519 -2.3731 -0.7738  0.8032
25633SOL     OW85866   8.031   9.686   7.765  0.5553  0.4002  0.5563
25633SOL    HW185867   8.075   9.607   7.734 -0.8687  0.0324 -0.6601
25633SOL    HW285868   8.020   9.672   7.859  2.5889  0.3293  0.8264
25634SOL     OW85869   7.579   0.507  11.138  0.5116  0.4523 -0.2277
25634SOL    HW185870   7.638   0.578  11.163  2.5427 -0.9497 -0.7262
25634SOL    HW285871   7.627   0.460  11.070 -1.7490 -0.0763 -1.5463
25635SOL     OW85872  12.403   5.301  12.036  0.3976  0.1003  0.4777
25635SOL    HW185873  12.496   5.322  12.035  0.5095 -0.3499  1.0713
25635SOL    HW285874  12.399   5.209  12.010 -0.0231  0.5645 -1.2422
25636SOL     OW85875  10.693   3.853   9.694  0.1959 -0.0578  0.5136
25636SOL    HW185876  10.783   3.847   9.664 -0.0342  0.8149 -0.4211
25636SOL    HW285877  10.650   3.776   9.657  0.7337 -0.9676  1.7095
25637SOL     OW85878   9.792   0.709   8.030  0.3655 -0.1079 -0.3915
25637SOL    HW185879   9.828   0.657   7.958  0.3076 -1.6469  0.6504
25637SOL    HW285880   9.868   0.751   8.069  0.6510 -0.7921 -0.1921
25638SOL     OW85881   4.069   6.550  12.042  0.0087 -0.1848 -0.0307
25638SOL    HW185882   4.126   6.610  12.090  1.7213 -1.6190 -0.1828
25638SOL    HW285883   4.127   6.506  11.980 -0.9252 -2.7833  0.8074
25639SOL     OW85884  10.698   2.813   4.897  0.1332 -0.2085 -0.7983
25639SOL    HW185885  10.626   2.853   4.848 -0.1609 -0.2348 -0.3935
25639SOL    HW285886  10.702   2.863   4.979  0.1665 -0.6071 -0.5536
25640SOL     OW85887   9.795   8.814   4.332 -0.4139  0.0910  0.1490
25640SOL    HW185888   9.735   8.756   4.285 -1.6935  1.1724  0.4084
25640SOL    HW285889   9.802   8.892   4.276  0.9089 -0.0782  0.0344
25641SOL     OW85890   0.684   2.940   9.128 -0.1391 -0.4889  0.7011
25641SOL    HW185891   0.766   2.963   9.083 -0.8942  0.5125 -0.2438
25641SOL    HW285892   0.639   2.881   9.068 -0.9469  0.4829  0.3144
25642SOL     OW85893   8.661   1.656   8.888  0.1142  0.2553 -0.0798
25642SOL    HW185894   8.660   1.561   8.888  2.9730  0.1287  0.7327
25642SOL    HW285895   8.695   1.681   8.802  1.1002  0.4229  0.3416
25643SOL     OW85896   9.067   0.022   2.014  0.1143  0.0219  0.1531
25643SOL    HW185897   9.161   0.024   2.029 -0.0846  1.4057  1.4683
25643SOL    HW285898   9.035   0.104   2.052 -1.8497 -1.2487  1.4111
25644SOL     OW85899   7.748   2.868   8.970 -0.0012  1.1488 -0.1800
25644SOL    HW185900   7.764   2.918   9.050  0.0796 -0.9438  1.1914
25644SOL    HW285901   7.666   2.822   8.986  0.8587 -0.6228 -0.5403
25645SOL     OW85902   7.080   8.681  11.877  0.0731  0.1416 -0.0537
25645SOL    HW185903   7.040   8.768  11.868  0.6907  0.2054 -4.3846
25645SOL    HW285904   7.174   8.698  11.870  0.2378 -0.8401 -0.2549
25646SOL     OW85905   7.957   1.233   7.802 -0.2563  0.2905 -0.0243
25646SOL    HW185906   7.943   1.191   7.717 -0.1009 -1.2612  0.6902
25646SOL    HW285907   7.872   1.228   7.846 -0.8969  2.8450 -0.7676
25647SOL     OW85908   6.681   4.070   9.744 -0.2049  0.3378  0.3580
25647SOL    HW185909   6.765   4.036   9.714 -1.6178 -1.1921 -2.2362
25647SOL    HW285910   6.686   4.165   9.729  1.4228  0.4435  1.3828
25648SOL     OW85911   1.508   7.996   2.974  0.0371 -0.6265  0.0522
25648SOL    HW185912   1.516   8.019   3.067  0.7989 -1.8995  0.3293
25648SOL    HW285913   1.428   8.040   2.945  1.2616  2.1213  0.5448
25649SOL     OW85914   5.421   6.452   8.686  0.4984  0.1689 -0.4579
25649SOL    HW185915   5.493   6.515   8.687 -0.2245  1.0146 -0.4834
25649SOL    HW285916   5.460   6.372   8.652  1.3114  0.7562 -0.9589
25650SOL     OW85917   1.444   5.493   0.354  0.1014 -0.0713 -0.2297
25650SOL    HW185918   1.455   5.491   0.449 -0.1037 -0.9580 -0.2190
25650SOL    HW285919   1.516   5.439   0.321  0.7078  0.9607 -0.6359
25651SOL     OW85920   4.585  11.644   6.418 -0.2121 -0.1172  0.3142
25651SOL    HW185921   4.566  11.679   6.505  0.6793  0.3158  0.3439
25651SOL    HW285922   4.607  11.553   6.433 -0.0018 -0.0274  0.5487
25652SOL     OW85923  12.278  11.498  10.094 -0.7948 -0.0489  0.6506
25652SOL    HW185924  12.217  11.572  10.094 -0.9212 -0.1462  1.1284
25652SOL    HW285925  12.275  11.465  10.184  0.0838  0.0333  0.7107
25653SOL     OW85926   6.213  10.821  11.038  0.3332 -0.2569  0.5164
25653SOL    HW185927   6.130  10.864  11.022  0.7125  0.4666  0.4384
25653SOL    HW285928   6.224  10.760  10.965  0.3146  0.3318  0.0170
25654SOL     OW85929   9.448   1.870   9.302 -0.2254  0.5578 -0.4522
25654SOL    HW185930   9.544   1.874   9.306 -0.2854  1.8599  0.4113
25654SOL    HW285931   9.429   1.811   9.230  1.2405  2.4053 -2.4626
25655SOL     OW85932   3.099   4.461  10.476  0.0315  0.6776 -0.2573
25655SOL    HW185933   3.147   4.395  10.526  1.5319  1.2091 -0.9246
25655SOL    HW285934   3.048   4.509  10.542  0.7728  0.3721  0.5625
25656SOL     OW85935   0.512  12.157   4.272 -0.6700  0.1783  0.6375
25656SOL    HW185936   0.548  12.160   4.360 -0.5314 -0.7327  0.6177
25656SOL    HW285937   0.486  12.066   4.259 -1.0000  0.3709 -0.1369
25657SOL     OW85938   4.176   0.621  11.745  0.5224  0.5418  0.4065
25657SOL    HW185939   4.178   0.608  11.651  0.5052  2.3017  0.1295
25657SOL    HW285940   4.183   0.716  11.757 -1.8473  0.6188  2.0694
25658SOL     OW85941   8.782   0.456   4.810 -0.5806 -0.4141  0.3582
25658SOL    HW185942   8.706   0.403   4.786 -0.1464 -0.2518 -1.5378
25658SOL    HW285943   8.766   0.541   4.770 -0.0251  0.0489  1.0915
25659SOL     OW85944   3.599  11.998   7.549  0.1213 -0.3551  0.8166
25659SOL    HW185945   3.570  12.088   7.559 -0.7153 -0.5270  0.0794
25659SOL    HW285946   3.621  11.970   7.638 -0.5135  0.2783  1.1845
25660SOL     OW85947  11.915  11.802   0.334 -0.2042  0.3948  0.1451
25660SOL    HW185948  11.895  11.892   0.358 -0.0483  0.0646  1.5734
25660SOL    HW285949  11.908  11.753   0.415  0.5890 -0.7428 -0.4450
25661SOL     OW85950   2.734  12.565   9.294  0.0011  0.6571  0.4312
25661SOL    HW185951   2.640  12.546   9.288  0.3597 -1.3778  0.7309
25661SOL    HW285952   2.755  12.553   9.387  0.4188  2.0157  0.5483
25662SOL     OW85953   2.909   6.311  12.176 -0.1997  0.3439  0.1250
25662SOL    HW185954   3.002   6.286  12.180 -0.0920  0.3916 -1.3767
25662SOL    HW285955   2.863   6.237  12.216  0.3958 -0.3847 -0.4960
25663SOL     OW85956  11.773   0.295   0.166  0.1793  0.1745  0.4608
25663SOL    HW185957  11.791   0.385   0.192  1.6454 -0.2042  0.8196
25663SOL    HW285958  11.842   0.273   0.104  0.9433 -1.2938  1.7782
25664SOL     OW85959   5.701  11.600   4.188  0.1411  0.3379 -0.1485
25664SOL    HW185960   5.691  11.621   4.096 -1.5787 -0.6865 -0.2264
25664SOL    HW285961   5.625  11.640   4.231 -0.3986 -1.2666  0.4434
25665SOL     OW85962   8.949   6.553  10.632 -0.1986  0.3883  0.0665
25665SOL    HW185963   8.919   6.563  10.722  1.7615  1.5705  0.6508
25665SOL    HW285964   8.976   6.461  10.626 -0.6666  0.2164  0.5731
25666SOL     OW85965   2.709   9.804   6.692 -0.1798  0.9533  0.6373
25666SOL    HW185966   2.651   9.835   6.622 -0.3225 -0.3900  0.1288
25666SOL    HW285967   2.794   9.794   6.651 -0.6816 -1.7546  0.0430
25667SOL     OW85968   1.352   4.661   7.000 -0.1036  0.1339 -0.1948
25667SOL    HW185969   1.310   4.575   7.011  0.0854  0.0759  0.0961
25667SOL    HW285970   1.282   4.718   6.968 -0.4669  0.0870  0.4927
25668SOL     OW85971  10.446   5.533   2.128  0.6724  0.1083 -0.1704
25668SOL    HW185972  10.359   5.572   2.137  1.0773  0.8525  0.8019
25668SOL    HW285973  10.448   5.465   2.196  0.6322 -0.3305 -0.6076
25669SOL     OW85974   0.806   7.759   5.641  0.5442 -0.0963  0.0120
25669SOL    HW185975   0.721   7.760   5.596  0.6059  1.1798 -0.1068
25669SOL    HW285976   0.826   7.666   5.652 -0.7897 -0.4180 -0.1069
25670SOL     OW85977   9.282  10.798   7.854  0.0062 -0.3479  0.1160
25670SOL    HW185978   9.331  10.879   7.862  0.1343 -0.4555  0.4322
25670SOL    HW285979   9.318  10.756   7.775  1.3531 -1.0423  1.0590
25671SOL     OW85980   4.741   1.548   5.223  0.1365  0.2083 -0.0192
25671SOL    HW185981   4.774   1.467   5.183 -2.2239 -1.1766  0.6886
25671SOL    HW285982   4.775   1.618   5.166  0.6316 -1.3948 -1.7929
25672SOL     OW85983  12.281   4.186   0.037 -0.2945  0.5242  0.2845
25672SOL    HW185984  12.211   4.121   0.032 -0.5142  0.8071 -0.5106
25672SOL    HW285985  12.238   4.267   0.065 -0.9299  1.5038 -3.0287
25673SOL     OW85986   6.370   1.641  11.387  0.1780 -0.1888  0.2559
25673SOL    HW185987   6.453   1.598  11.408  0.4565  1.4586  2.9034
25673SOL    HW285988   6.327   1.655  11.472 -2.2306  0.2005 -0.9204
25674SOL     OW85989   7.795   9.335  11.324  0.1472  0.2907  0.3702
25674SOL    HW185990   7.808   9.344  11.418  0.6453  1.4930  0.2073
25674SOL    HW285991   7.757   9.418  11.297  1.0562  0.4009 -0.6594
25675SOL     OW85992   7.459  10.687   3.658 -0.3877 -0.1997 -0.6712
25675SOL    HW185993   7.402  10.669   3.583 -0.2723  2.7828 -1.6031
25675SOL    HW285994   7.487  10.601   3.688 -3.7452 -1.7216 -1.4336
25676SOL     OW85995   3.628   2.865   5.341 -0.6940  0.1048 -0.6728
25676SOL    HW185996   3.618   2.817   5.423  0.0418  1.6623  0.3920
25676SOL    HW285997   3.546   2.913   5.331 -1.4796 -1.4026 -1.8008
25677SOL     OW85998  11.872  10.298  10.862  0.4078 -0.2634 -0.1399
25677SOL    HW185999  11.818  10.374  10.883  1.6729  0.4466  0.6779
25677SOL    HW286000  11.868  10.291  10.767 -1.0064 -0.1751 -0.1137
25678SOL     OW86001   9.541   8.257   1.048  0.7795 -0.0221 -0.0154
25678SOL    HW186002   9.577   8.341   1.019  1.8432 -1.2055 -2.3828
25678SOL    HW286003   9.448   8.275   1.062  1.1373  1.7200  0.4039
25679SOL     OW86004   8.567   7.590   3.360  0.4754 -0.4524  0.5112
25679SOL    HW186005   8.537   7.666   3.311  2.1021  1.1673  1.9190
25679SOL    HW286006   8.654   7.571   3.326  0.6884 -0.7420  1.1829
25680SOL     OW86007   3.672   0.054   0.458  0.5674  0.0354 -0.6913
25680SOL    HW186008   3.591   0.106   0.450  0.2014 -0.7443 -2.3340
25680SOL    HW286009   3.643  -0.027   0.502  1.0384  0.9117  1.3665
25681SOL     OW86010   4.266  10.835   6.754  0.0376 -1.1030  0.0397
25681SOL    HW186011   4.210  10.791   6.690  0.0321  1.3056 -1.7605
25681SOL    HW286012   4.209  10.903   6.792  1.2445  0.3125 -0.6192
25682SOL     OW86013   9.433   8.869   0.098  0.1941 -0.1142  0.5276
25682SOL    HW186014   9.522   8.873   0.133  0.5068 -0.5770 -0.1875
25682SOL    HW286015   9.435   8.796   0.036 -1.0627 -1.0399  1.5349
25683SOL     OW86016  10.928   1.363   8.501  0.0651  0.2834  0.1571
25683SOL    HW186017  10.949   1.448   8.465  1.5928 -0.4287 -0.7279
25683SOL    HW286018  10.974   1.360   8.585  1.2948 -0.2084 -0.5041
25684SOL     OW86019   8.789   8.144   6.324  0.0679 -0.2808 -0.0157
25684SOL    HW186020   8.876   8.177   6.346 -0.0948  0.8820 -1.0136
25684SOL    HW286021   8.731   8.219   6.336 -0.3005 -0.1167 -2.4133
25685SOL     OW86022   2.576   3.784   7.972  0.1781 -0.1991  0.0588
25685SOL    HW186023   2.534   3.720   7.914  0.7611  1.4103 -2.3185
25685SOL    HW286024   2.666   3.753   7.980 -0.2441 -1.1774  1.3369
25686SOL     OW86025   1.027   3.292   4.831  0.4910 -0.6646 -0.1491
25686SOL    HW186026   1.065   3.356   4.771  1.5642 -1.0373  0.1089
25686SOL    HW286027   1.082   3.214   4.820  0.6698 -0.7625  1.2471
25687SOL     OW86028   4.232   0.183   8.137 -0.1234  0.4280 -0.1844
25687SOL    HW186029   4.286   0.219   8.067 -0.6259  0.8872 -0.3414
25687SOL    HW286030   4.154   0.239   8.139 -0.2245  0.2753  0.5771
25688SOL     OW86031   5.735  11.958  11.155 -0.1413  0.1296  0.2232
25688SOL    HW186032   5.672  11.887  11.144 -0.5151  0.5081 -0.1356
25688SOL    HW286033   5.681  12.037  11.162  0.3047  0.5384 -0.7831
25689SOL     OW86034   5.326   4.876   2.928  0.0869 -0.2166  0.4628
25689SOL    HW186035   5.263   4.933   2.883 -1.5119 -1.8387  0.5423
25689SOL    HW286036   5.308   4.888   3.021  0.2663 -0.2852  0.5076
25690SOL     OW86037   2.246   2.724   1.057 -0.0437 -0.3474  0.6622
25690SOL    HW186038   2.223   2.703   0.967 -1.3742  0.6631  0.7411
25690SOL    HW286039   2.199   2.805   1.076  0.4565 -0.3728  2.1718
25691SOL     OW86040  10.386   0.858   6.624 -0.2565 -0.6146  0.4672
25691SOL    HW186041  10.481   0.847   6.633 -0.4140 -2.8049  0.0219
25691SOL    HW286042  10.352   0.769   6.618 -2.3371  0.1291  0.3256
25692SOL     OW86043   3.032   7.500   3.516  0.6949  0.3631  0.0590
25692SOL    HW186044   3.024   7.451   3.597  2.8213  0.2935  0.3039
25692SOL    HW286045   2.943   7.509   3.483 -0.0134 -1.2373  1.4258
25693SOL     OW86046   7.952  10.628   3.682  0.4627 -0.5783  0.1266
25693SOL    HW186047   8.037  10.583   3.680  0.2900 -0.9207  0.4246
25693SOL    HW286048   7.955  10.685   3.605  1.7259  0.8569  1.1850
25694SOL     OW86049   1.165   3.905   5.783  0.3994  0.6097  0.0129
25694SOL    HW186050   1.092   3.847   5.761 -0.0878  1.4826 -0.7204
25694SOL    HW286051   1.207   3.924   5.699  1.1903  0.5080  0.3695
25695SOL     OW86052  10.912  10.664   1.908  0.1615  0.0578 -0.4845
25695SOL    HW186053  10.888  10.750   1.875 -0.1845 -0.0642 -0.5533
25695SOL    HW286054  10.998  10.677   1.949  0.4376  0.2808 -1.1265
25696SOL     OW86055   1.952  11.892   4.004 -0.0997  0.4419 -0.0718
25696SOL    HW186056   1.878  11.933   3.958  0.7951 -0.7581 -2.7518
25696SOL    HW286057   1.922  11.804   4.024  1.3017 -0.9537 -3.4600
25697SOL     OW86058   5.547   4.409   0.756 -0.2222 -0.3893  0.6410
25697SOL    HW186059   5.567   4.338   0.817  1.1551 -0.7482 -0.1762
25697SOL    HW286060   5.624   4.414   0.700 -1.4909 -0.1391 -1.1533
25698SOL     OW86061   1.336  11.137   2.241 -0.2338  0.7261 -0.6101
25698SOL    HW186062   1.383  11.066   2.199 -0.8324 -0.5913  0.8452
25698SOL    HW286063   1.257  11.096   2.277 -0.8503  2.2214 -0.1739
25699SOL     OW86064   8.219  10.594   4.153 -0.1296  0.1506  0.9318
25699SOL    HW186065   8.314  10.603   4.145 -0.1646 -0.1567  0.0385
25699SOL    HW286066   8.205  10.561   4.242  0.8333 -2.8099  0.0675
25700SOL     OW86067   3.183   9.483   4.303 -0.1451  0.1042  0.0603
25700SOL    HW186068   3.209   9.573   4.322  0.3365 -0.2719  1.3223
25700SOL    HW286069   3.229   9.461   4.222 -0.0970  0.9175 -0.1383
25701SOL     OW86070   9.906   0.524   9.404  0.4875 -0.0420 -0.1068
25701SOL    HW186071   9.861   0.513   9.320  1.4429 -1.6657 -0.4531
25701SOL    HW286072   9.954   0.606   9.396  1.4902 -0.7437 -1.6217
25702SOL     OW86073  11.696   4.175   3.989  0.5864 -0.0334 -1.1837
25702SOL    HW186074  11.610   4.132   3.982 -0.5590  1.0743  3.1053
25702SOL    HW286075  11.759   4.104   3.977 -1.0659 -1.6056 -1.0317
25703SOL     OW86076  11.143   5.067   5.067 -0.8540  0.0126  0.3692
25703SOL    HW186077  11.164   4.981   5.103 -0.7596  0.8181  2.3549
25703SOL    HW286078  11.208   5.080   4.998  0.4189 -0.6717  1.3938
25704SOL     OW86079  12.322  10.595  11.887 -0.2824  0.7432 -0.0498
25704SOL    HW186080  12.368  10.671  11.852  3.1984 -1.1093  0.0204
25704SOL    HW286081  12.285  10.551  11.811  0.9365  0.6004 -0.5903
25705SOL     OW86082   2.364  10.284  12.068 -0.0806  0.1947 -0.1005
25705SOL    HW186083   2.429  10.328  12.122  0.0710  0.6128 -0.6110
25705SOL    HW286084   2.280  10.317  12.100  0.0769  2.5084 -1.8045
25706SOL     OW86085   2.910   5.734   6.784  0.3238  0.5550  0.2358
25706SOL    HW186086   2.988   5.788   6.789 -0.5643  1.8968  0.0342
25706SOL    HW286087   2.854   5.777   6.719  0.1169 -1.3305 -0.9085
25707SOL     OW86088   3.669   1.038   5.621 -0.1000  0.0297 -0.3291
25707SOL    HW186089   3.640   1.010   5.707  0.6276  1.6746  0.4977
25707SOL    HW286090   3.594   1.083   5.583 -0.9745 -2.1103 -1.2945
25708SOL     OW86091   7.218   8.502   3.064 -0.3378 -0.0692 -0.5392
25708SOL    HW186092   7.245   8.486   3.154 -0.4148  1.8488 -0.1352
25708SOL    HW286093   7.230   8.596   3.051 -1.9968  0.0145 -1.9615
25709SOL     OW86094  11.878   4.981   8.780  0.6416  0.2134  0.0235
25709SOL    HW186095  11.929   5.012   8.706  1.9224 -0.8949  0.4021
25709SOL    HW286096  11.787   5.002   8.758  1.2617  2.5100 -0.5202
25710SOL     OW86097  12.575   3.305   4.798 -0.3730 -0.2157  0.1877
25710SOL    HW186098  12.646   3.268   4.746 -0.3893  3.2317 -2.6471
25710SOL    HW286099  12.610   3.310   4.887  2.0028 -0.7671 -0.6514
25711SOL     OW86100   1.203   5.629   5.600  0.0387  0.0552  0.8961
25711SOL    HW186101   1.263   5.577   5.547 -0.6356 -0.2494  0.4127
25711SOL    HW286102   1.163   5.691   5.538 -1.7547 -1.1949  0.7316
25712SOL     OW86103   4.648   5.187   6.337  0.1909 -0.3132 -0.6156
25712SOL    HW186104   4.584   5.163   6.270 -0.2773 -0.2930 -0.1794
25712SOL    HW286105   4.698   5.259   6.298 -0.3526 -0.0217 -0.7804
25713SOL     OW86106   9.269   5.596   8.162 -0.1668 -0.2242 -0.4594
25713SOL    HW186107   9.235   5.592   8.251  1.3814 -0.3394  0.1668
25713SOL    HW286108   9.233   5.677   8.126  0.2801  0.5539  0.7601
25714SOL     OW86109   6.298   9.625   7.353  0.4578 -0.1337  0.2507
25714SOL    HW186110   6.290   9.693   7.420  1.2407 -1.5815  1.8970
25714SOL    HW286111   6.386   9.638   7.316  0.2509  0.3028 -0.0984
25715SOL     OW86112  10.859   5.454   6.785  0.1761 -0.4519  0.9393
25715SOL    HW186113  10.831   5.488   6.699  0.9605 -0.5369  0.6482
25715SOL    HW286114  10.954   5.455   6.782  0.2493 -2.6373  0.9367
25716SOL     OW86115   9.984   6.457   2.046 -0.2758 -0.0372  0.1060
25716SOL    HW186116   9.917   6.454   2.114 -1.2885  0.4118 -0.8488
25716SOL    HW286117   9.963   6.534   1.994  0.5162 -0.3363 -0.6909
25717SOL     OW86118   0.174   1.263  11.133 -0.8860  0.4547 -0.0353
25717SOL    HW186119   0.197   1.232  11.046  2.2196  1.3214  0.3662
25717SOL    HW286120   0.186   1.187  11.190 -0.6258  0.4908 -0.0434
25718SOL     OW86121   2.175  11.183   0.071 -0.4500  0.1345  0.5493
25718SOL    HW186122   2.125  11.169   0.151 -2.5336  3.3478 -0.0106
25718SOL    HW286123   2.119  11.151   0.001  0.9257 -1.6917  0.1833
25719SOL     OW86124   1.647   1.159  10.604  0.4431  0.1630  0.3905
25719SOL    HW186125   1.589   1.083  10.611 -0.7479  0.8374 -1.3965
25719SOL    HW286126   1.614   1.220  10.670  0.8360 -0.4994  1.2151
25720SOL     OW86127   3.835   0.345  11.612 -0.1475 -0.0217  0.1680
25720SOL    HW186128   3.864   0.297  11.534 -1.2174 -0.8508  0.2486
25720SOL    HW286129   3.883   0.305  11.684  3.4797  2.9561 -0.2839
25721SOL     OW86130   9.667   5.451  12.278 -0.0540  0.7080 -0.1094
25721SOL    HW186131   9.759   5.463  12.301 -0.4143  0.6237  1.4775
25721SOL    HW286132   9.639   5.376  12.329 -1.6849  2.3295  1.5192
25722SOL     OW86133   0.880   1.687   0.256  0.1641  0.0792  0.3767
25722SOL    HW186134   0.828   1.626   0.308  1.4404 -0.5094  0.9898
25722SOL    HW286135   0.826   1.766   0.253 -0.5555 -0.3418  1.4105
25723SOL     OW86136   1.840  11.353   0.826 -0.3072 -0.4612 -0.4548
25723SOL    HW186137   1.758  11.337   0.871 -1.2318  2.0066 -1.1066
25723SOL    HW286138   1.826  11.320   0.738 -0.9813  0.7343 -0.8245
25724SOL     OW86139   8.342   1.702   7.070  0.0134  0.3494 -0.4293
25724SOL    HW186140   8.371   1.793   7.064  0.4342  0.3556  1.0764
25724SOL    HW286141   8.365   1.664   6.986  2.8614  0.8226  0.0045
25725SOL     OW86142   8.107  10.575   2.557  0.5386  0.1282 -0.4978
25725SOL    HW186143   8.166  10.524   2.502  2.6982  0.6704  1.1940
25725SOL    HW286144   8.063  10.510   2.612  2.0760 -0.0856  0.5289
25726SOL     OW86145   2.151   7.238   7.342  0.5637 -0.1307  0.1111
25726SOL    HW186146   2.125   7.185   7.267  0.8010  0.6868 -0.5606
25726SOL    HW286147   2.238   7.270   7.320 -0.0306  1.4604 -0.0091
25727SOL     OW86148   0.384   0.067  12.084 -0.1711  0.2120  0.1436
25727SOL    HW186149   0.330  -0.012  12.087  0.7664 -0.5549 -1.6430
25727SOL    HW286150   0.395   0.091  12.176  0.1892 -2.2256  0.8269
25728SOL     OW86151   5.969   2.860   5.201  0.8553 -0.1195  0.0088
25728SOL    HW186152   5.952   2.915   5.124  3.1303  0.1818 -0.3425
25728SOL    HW286153   5.983   2.923   5.272  0.5557 -0.3450  0.2696
25729SOL     OW86154   5.928  10.979   6.831  0.4176  0.2077  0.0371
25729SOL    HW186155   5.848  10.973   6.882 -0.7402 -1.6645 -1.8248
25729SOL    HW286156   5.928  11.069   6.797 -0.2281  0.6056  1.0578
25730SOL     OW86157   0.883   5.202   0.934 -0.3571  0.5587 -0.7665
25730SOL    HW186158   0.967   5.156   0.940 -1.0239 -0.5156  1.0334
25730SOL    HW286159   0.869   5.238   1.022 -1.4968  1.2702 -1.2137
25731SOL     OW86160   9.133   7.927   3.556  0.8185 -0.3618  0.6524
25731SOL    HW186161   9.115   7.893   3.469  1.0336 -1.3134  0.9586
25731SOL    HW286162   9.228   7.939   3.558  0.6824  0.9122  0.3337
25732SOL     OW86163   8.613  12.538   3.521 -0.4527  0.3395 -0.4663
25732SOL    HW186164   8.564  12.618   3.540 -0.8585 -0.3540  1.6524
25732SOL    HW286165   8.545  12.472   3.504 -0.1180  0.4665 -2.4728
25733SOL     OW86166   8.134   7.311   5.119 -0.5616  0.4052  0.0973
25733SOL    HW186167   8.169   7.355   5.042  0.2350 -0.6865 -0.1937
25733SOL    HW286168   8.212   7.284   5.168 -1.0204 -0.6201  0.2887
25734SOL     OW86169   7.229   1.171   2.824  0.5616 -0.5706  0.1734
25734SOL    HW186170   7.135   1.173   2.843  0.4500  3.5149  0.0780
25734SOL    HW286171   7.235   1.194   2.731  1.5808  2.3424  0.8507
25735SOL     OW86172  11.912   7.481   1.440  0.1958  0.3200  0.0837
25735SOL    HW186173  11.970   7.555   1.460  1.0635 -0.4518  0.4856
25735SOL    HW286174  11.855   7.474   1.517  1.3058 -0.5344  0.8594
25736SOL     OW86175   8.125  12.283   9.416  0.6351  0.0432 -0.0870
25736SOL    HW186176   8.060  12.324   9.472 -0.9618 -0.9330 -1.1482
25736SOL    HW286177   8.089  12.197   9.395  1.3507  0.1836 -2.2073
25737SOL     OW86178  10.775   2.993   6.420  0.3117 -0.0771 -0.3705
25737SOL    HW186179  10.769   3.056   6.492 -0.9557 -0.9422  0.3189
25737SOL    HW286180  10.744   2.910   6.458  0.7155 -0.8253 -1.6032
25738SOL     OW86181   5.376   9.633   0.589  0.1751 -0.2154  0.0861
25738SOL    HW186182   5.282   9.620   0.575 -0.1092  0.0519  1.5411
25738SOL    HW286183   5.394   9.719   0.551 -0.4376  0.2477  0.7945
25739SOL     OW86184   4.167  12.520   6.699 -0.1599  0.5041 -0.0701
25739SOL    HW186185   4.254  12.532   6.739  0.4319  0.3329 -1.2776
25739SOL    HW286186   4.144  12.607   6.666 -0.9789  0.8156  1.2540
25740SOL     OW86187  10.615   5.673   6.570 -0.7732 -0.0751 -0.3141
25740SOL    HW186188  10.572   5.603   6.618  1.7800  1.1979  4.4154
25740SOL    HW286189  10.695   5.634   6.536 -0.8567 -0.1701 -0.4011
25741SOL     OW86190   6.883   6.515   4.580  0.3277  0.2561  0.0790
25741SOL    HW186191   6.862   6.526   4.487  1.5050  0.3148 -0.1936
25741SOL    HW286192   6.928   6.431   4.585  1.9349  1.0780  0.2727
25742SOL     OW86193   8.974   0.098   8.670  0.4979  0.2084  0.0076
25742SOL    HW186194   8.918   0.022   8.684  0.6433 -0.2507 -1.6752
25742SOL    HW286195   8.932   0.146   8.599  2.6541 -0.6564 -1.9945
25743SOL     OW86196   4.498   8.649   7.196  0.0222  0.1835 -0.2052
25743SOL    HW186197   4.551   8.655   7.275 -0.7138 -2.5503  0.6243
25743SOL    HW286198   4.533   8.717   7.138  1.2663  1.5902  2.0386
25744SOL     OW86199   9.966   6.607  10.689  0.1373  0.2485 -0.1143
25744SOL    HW186200   9.909   6.648  10.624  0.1913 -0.0873 -0.3730
25744SOL    HW286201   9.913   6.536  10.726 -0.2929  1.1100  0.9841
25745SOL     OW86202  12.263   4.890   6.693  0.1459 -0.0143  0.5979
25745SOL    HW186203  12.197   4.844   6.641  0.8717  0.4354 -0.7459
25745SOL    HW286204  12.346   4.868   6.653  0.7273  0.4258  1.5185
25746SOL     OW86205   2.143   3.388   0.468  0.4655 -0.0034 -0.3581
25746SOL    HW186206   2.183   3.474   0.478 -0.4134  0.4558 -0.6981
25746SOL    HW286207   2.098   3.392   0.384  1.6610 -1.3202 -1.1167
25747SOL     OW86208   8.396  12.344   9.363 -0.1138  0.2580 -0.4259
25747SOL    HW186209   8.432  12.382   9.443 -1.7938  0.9479  0.0316
25747SOL    HW286210   8.305  12.326   9.383 -0.1153 -1.2711 -1.6148
25748SOL     OW86211   3.809   7.492   4.462  0.1910 -0.1308 -0.3164
25748SOL    HW186212   3.740   7.433   4.494  0.1552  0.7615  1.3968
25748SOL    HW286213   3.849   7.445   4.389 -1.2713 -1.3037 -0.4123
25749SOL     OW86214   7.647   8.092  10.473  0.2143  0.0464 -0.0380
25749SOL    HW186215   7.587   8.023  10.504 -0.0311  0.3546  0.1836
25749SOL    HW286216   7.616   8.112  10.384 -0.6518  0.8986  0.4302
25750SOL     OW86217   5.887   6.956   0.710 -0.0532  0.0047  0.0803
25750SOL    HW186218   5.954   7.018   0.738 -0.0589  0.4503 -0.8456
25750SOL    HW286219   5.936   6.887   0.664  0.0737 -1.2705  2.0189
25751SOL     OW86220   3.757  10.489   4.167  0.1555 -0.3255  0.1923
25751SOL    HW186221   3.696  10.428   4.211 -1.9378  0.5097 -1.3657
25751SOL    HW286222   3.712  10.573   4.170  3.0673  1.3294  2.4408
25752SOL     OW86223   7.295   4.557   5.044  0.5008  0.0352 -0.1254
25752SOL    HW186224   7.279   4.465   5.025 -2.2589 -0.4585  3.5004
25752SOL    HW286225   7.350   4.556   5.121 -0.6480  1.3305  0.7574
25753SOL     OW86226   1.358   2.374  10.475 -0.0515  0.2819 -0.4316
25753SOL    HW186227   1.426   2.320  10.434  0.3059  1.6524 -1.7464
25753SOL    HW286228   1.284   2.369  10.414 -0.3376  0.5346 -0.1082
25754SOL     OW86229   5.222  12.487  10.937 -0.2658 -0.1088  0.5888
25754SOL    HW186230   5.164  12.549  10.893 -0.2244  0.0442  0.7519
25754SOL    HW286231   5.204  12.500  11.030  0.3943  0.2828  0.6594
25755SOL     OW86232   8.876  10.044   5.061  0.2074  0.0656 -0.2511
25755SOL    HW186233   8.954  10.094   5.083 -0.6675  0.7931  1.3341
25755SOL    HW286234   8.863  10.059   4.967  0.0771  2.6807  0.1343
25756SOL     OW86235   4.234  12.103   4.168  0.3711  0.3147 -0.5557
25756SOL    HW186236   4.252  12.024   4.118  0.7116  1.0182 -1.5830
25756SOL    HW286237   4.319  12.127   4.207  0.1925 -0.0125  0.0437
25757SOL     OW86238   5.069   7.535   6.089 -0.1869 -0.0802 -0.2245
25757SOL    HW186239   5.115   7.608   6.047 -0.9855  0.5729  0.0041
25757SOL    HW286240   5.110   7.526   6.175 -1.7028  1.7779  0.7697
25758SOL     OW86241   0.666   1.269   4.075 -0.1376  0.6188  0.4891
25758SOL    HW186242   0.712   1.342   4.034  0.5938 -0.4209 -0.6204
25758SOL    HW286243   0.684   1.194   4.018 -0.2499 -0.5931  1.9731
25759SOL     OW86244   6.414   2.112   1.302 -0.3876 -0.7141  0.5211
25759SOL    HW186245   6.401   2.134   1.394  0.2669 -1.9081  0.9193
25759SOL    HW286246   6.474   2.180   1.270 -0.5509 -0.3396  0.9919
25760SOL     OW86247  11.237  11.154   7.130  0.0341 -0.1874  0.5290
25760SOL    HW186248  11.331  11.164   7.115 -0.1986  1.5458 -0.0657
25760SOL    HW286249  11.223  11.060   7.137  1.9942 -0.4380  1.9105
25761SOL     OW86250  12.106   0.783  10.439 -0.5579  0.4816  0.0704
25761SOL    HW186251  12.096   0.690  10.461 -0.8049  0.5336  0.1833
25761SOL    HW286252  12.174   0.814  10.500 -0.1757  0.2829 -0.2474
25762SOL     OW86253  10.066   7.610   1.884 -1.0758  0.6446  0.0860
25762SOL    HW186254  10.090   7.697   1.851 -0.0973  0.4902  0.3506
25762SOL    HW286255  10.045   7.624   1.976 -0.0564  0.4701  0.3534
25763SOL     OW86256   6.413   1.785  12.012  0.1391  0.6966  0.4166
25763SOL    HW186257   6.469   1.708  12.003 -0.4871 -0.0262  2.3196
25763SOL    HW286258   6.469   1.850  12.056  0.3127  0.9286 -0.1444
25764SOL     OW86259   4.859   0.538   8.007  0.5798 -0.4431 -0.5971
25764SOL    HW186260   4.935   0.506   8.055  0.3365 -1.1467 -0.6724
25764SOL    HW286261   4.894   0.566   7.923  0.7568 -0.7719 -0.6350
25765SOL     OW86262   2.121  10.602   6.617 -0.4014 -0.4328 -0.0575
25765SOL    HW186263   2.046  10.661   6.626 -0.9934 -1.1523 -0.1660
25765SOL    HW286264   2.102  10.551   6.539  0.3528 -0.4209 -0.2577
25766SOL     OW86265   5.163   9.532   6.758 -0.2399  0.3817 -0.6255
25766SOL    HW186266   5.079   9.513   6.717  0.1207  0.3814 -1.3869
25766SOL    HW286267   5.173   9.627   6.751 -0.7761  0.5532  0.6761
25767SOL     OW86268   5.049   2.936   5.694  0.6464 -0.0902  0.0589
25767SOL    HW186269   4.961   2.905   5.717  0.6564 -0.4667 -0.3883
25767SOL    HW286270   5.107   2.866   5.725  0.7762  0.0691  0.1781
25768SOL     OW86271   1.538   4.373   8.552 -0.2579 -0.2103 -0.1033
25768SOL    HW186272   1.467   4.377   8.488  0.5624  0.1756 -1.0109
25768SOL    HW286273   1.596   4.446   8.528 -0.4098  0.5390  1.6672
25769SOL     OW86274   4.563   5.951   6.077  0.4676  0.2822  0.4124
25769SOL    HW186275   4.647   5.968   6.033  0.6072 -0.6365  0.3042
25769SOL    HW286276   4.561   5.856   6.088 -0.7853  0.2349 -0.0501
25770SOL     OW86277   3.510   6.194   1.419  0.4170  0.0909 -0.5223
25770SOL    HW186278   3.513   6.234   1.505  0.5797  0.5231 -0.7253
25770SOL    HW286279   3.454   6.252   1.367 -0.8149 -0.8781 -0.3507
25771SOL     OW86280   9.722   3.132   5.301 -0.1240 -0.0906 -0.2541
25771SOL    HW186281   9.704   3.182   5.221 -0.6519 -2.2745 -1.6139
25771SOL    HW286282   9.641   3.140   5.353 -0.3020  0.2422 -0.5769
25772SOL     OW86283   7.074  11.533   1.197  0.0764 -0.2604  0.0510
25772SOL    HW186284   7.162  11.567   1.206  0.3037 -1.0370  0.9216
25772SOL    HW286285   7.020  11.610   1.179  0.5446  0.6222  2.1064
25773SOL     OW86286   0.021   6.095  10.244  0.5291  0.0825 -0.1625
25773SOL    HW186287   0.007   6.152  10.320  1.7448 -1.3908  1.2261
25773SOL    HW286288   0.109   6.117  10.213  0.7140 -0.5146 -0.0720
25774SOL     OW86289   9.962   8.875   2.378  0.3213  0.0385 -0.6414
25774SOL    HW186290  10.001   8.961   2.366 -0.6468  0.7100  0.7233
25774SOL    HW286291   9.998   8.822   2.307  2.9374  0.8491 -0.0317
25775SOL     OW86292   6.530   7.699   9.663 -0.2324 -0.4210 -0.6046
25775SOL    HW186293   6.539   7.613   9.704 -1.5507  0.1839  1.0419
25775SOL    HW286294   6.440   7.725   9.681  0.1861  1.3786 -0.9419
25776SOL     OW86295   2.884  12.584   3.683 -0.0984 -0.5920 -0.3152
25776SOL    HW186296   2.852  12.574   3.772  1.0127 -0.7131  0.0821
25776SOL    HW286297   2.825  12.648   3.643 -0.8933 -0.8947  0.3460
25777SOL     OW86298   1.335   7.788   7.179 -0.3110 -0.4137  0.3476
25777SOL    HW186299   1.327   7.745   7.264  1.7636  0.0440  0.8211
25777SOL    HW286300   1.305   7.722   7.116  0.8260 -1.8079  1.2180
25778SOL     OW86301   4.707  10.579   9.352 -0.2676 -0.4173  0.2316
25778SOL    HW186302   4.722  10.487   9.330 -0.4219  0.3433 -4.0350
25778SOL    HW286303   4.786  10.606   9.398 -0.2705 -2.6546  1.6969
25779SOL     OW86304   9.522  11.340   7.683  0.0946  0.2906  0.1976
25779SOL    HW186305   9.474  11.384   7.613  0.3528  1.0438  0.4863
25779SOL    HW286306   9.598  11.302   7.639  0.0176  0.3716 -0.0076
25780SOL     OW86307  10.927   5.166   7.804  0.1670  0.1743  0.1081
25780SOL    HW186308  10.909   5.214   7.723  1.2627 -0.4315 -0.5215
25780SOL    HW286309  10.841   5.153   7.844 -0.2311  1.9949 -0.0686
25781SOL     OW86310   5.536   9.192   5.136 -0.7841 -0.0721 -0.7422
25781SOL    HW186311   5.554   9.133   5.063  0.1210  0.4849 -0.9865
25781SOL    HW286312   5.507   9.135   5.207  1.5888 -1.0286 -0.4534
25782SOL     OW86313  10.021   7.702   6.217 -0.1420 -0.2155  0.6780
25782SOL    HW186314  10.012   7.630   6.154 -1.3362 -1.0725  1.7856
25782SOL    HW286315   9.932   7.735   6.229  0.0552 -0.1058  1.9634
25783SOL     OW86316   5.237   9.130  12.319  0.1298  0.1803 -0.3524
25783SOL    HW186317   5.296   9.119  12.244 -0.4840 -1.2188 -0.6648
25783SOL    HW286318   5.286   9.186  12.380  1.6608 -0.7051 -0.7134
25784SOL     OW86319   4.395   9.853   7.240 -0.0824 -0.1470  0.1312
25784SOL    HW186320   4.333   9.795   7.196 -0.4667  0.9722 -0.8702
25784SOL    HW286321   4.348   9.885   7.317 -0.4081 -0.0078 -0.1266
25785SOL     OW86322  12.218  10.118   8.389 -0.1205  0.0301 -0.4420
25785SOL    HW186323  12.171  10.167   8.322  0.7844 -0.7922 -1.7377
25785SOL    HW286324  12.150  10.071   8.437 -1.1905  3.5086  1.7978
25786SOL     OW86325   5.342   2.796   8.281 -0.1376 -0.6626 -0.2952
25786SOL    HW186326   5.387   2.869   8.323  1.4831 -1.3374 -0.7755
25786SOL    HW286327   5.388   2.718   8.313 -1.9814 -1.5047  0.3982
25787SOL     OW86328   0.181   0.807   7.864  0.5864 -0.4378 -0.2849
25787SOL    HW186329   0.250   0.785   7.801 -0.6352  0.3957 -1.9729
25787SOL    HW286330   0.210   0.890   7.903  1.2277 -0.8277  0.0827
25788SOL     OW86331   3.128  10.897  10.096 -0.2090  0.2838 -0.2053
25788SOL    HW186332   3.122  10.948  10.015  0.3861 -1.0582 -1.1202
25788SOL    HW286333   3.213  10.853  10.091  0.1460  0.7224  1.4904
25789SOL     OW86334  10.654   0.235   0.189  0.3564  0.4588  0.2025
25789SOL    HW186335  10.704   0.214   0.267 -2.7979  0.8586  2.5141
25789SOL    HW286336  10.667   0.330   0.177  0.3703  0.5101  0.6243
25790SOL     OW86337  10.329   6.164   8.454  0.4435 -0.1748 -0.3965
25790SOL    HW186338  10.245   6.152   8.410  0.4239  0.1385 -0.4453
25790SOL    HW286339  10.332   6.257   8.476  0.2680 -0.4025  0.6318
25791SOL     OW86340   8.983   1.199   0.440  0.1354 -0.1807  0.2116
25791SOL    HW186341   9.013   1.132   0.379  2.0618  0.6649  0.1405
25791SOL    HW286342   8.989   1.281   0.391 -1.1313  0.1902  0.6407
25792SOL     OW86343   8.088   2.396   2.888  0.2037  0.2046 -0.1150
25792SOL    HW186344   8.006   2.360   2.921  0.3940 -0.1417 -0.0242
25792SOL    HW286345   8.120   2.331   2.825 -0.6445  1.2780 -1.7401
25793SOL     OW86346   6.814   3.257   5.247 -0.4193 -0.0480 -0.3635
25793SOL    HW186347   6.786   3.346   5.269 -0.4382  0.1147 -1.0257
25793SOL    HW286348   6.772   3.238   5.164  0.1384 -0.4140 -0.5708
25794SOL     OW86349   0.509   8.329   3.627  0.6290  0.4974 -0.1925
25794SOL    HW186350   0.598   8.359   3.606  1.1778 -1.4841 -0.8544
25794SOL    HW286351   0.453   8.402   3.601  1.9913  1.4799 -0.5018
25795SOL     OW86352   6.765  10.005   8.818 -0.1538 -0.3092 -0.1902
25795SOL    HW186353   6.728  10.092   8.830 -1.2378 -0.6926 -0.6461
25795SOL    HW286354   6.691   9.950   8.794  0.9526 -0.7116 -3.1019
25796SOL     OW86355   4.404   2.057   6.970 -0.0334 -0.3442 -0.1559
25796SOL    HW186356   4.378   2.149   6.958 -0.4328 -0.5674 -1.0564
25796SOL    HW286357   4.430   2.027   6.883  1.2844 -0.7452  0.3485
25797SOL     OW86358   0.903   3.371   0.372  0.0808 -0.0919  0.0897
25797SOL    HW186359   0.918   3.394   0.464  1.0926  0.0398 -0.0946
25797SOL    HW286360   0.896   3.455   0.327  0.8504 -0.1517 -0.1437
25798SOL     OW86361   2.951  10.511   7.651  0.3351 -0.3827 -0.1683
25798SOL    HW186362   2.986  10.454   7.583 -0.7695 -2.2123  0.7357
25798SOL    HW286363   2.856  10.510   7.638  0.0152 -1.4429  1.8471
25799SOL     OW86364   1.900   2.761   4.681  0.0144  0.2814 -0.2467
25799SOL    HW186365   1.814   2.745   4.642 -0.4120  1.2725  0.2469
25799SOL    HW286366   1.930   2.843   4.642 -0.2955  1.1440  1.2331
25800SOL     OW86367   0.240  12.323   2.973  0.1853 -0.0093 -0.3678
25800SOL    HW186368   0.205  12.353   2.889  2.2682 -1.0591 -1.7078
25800SOL    HW286369   0.334  12.314   2.957  0.5681 -0.7123  1.9602
25801SOL     OW86370   2.640  10.959   0.731  0.3356 -0.4180  0.5982
25801SOL    HW186371   2.613  10.898   0.800  0.0723 -1.8575 -0.7154
25801SOL    HW286372   2.724  10.925   0.701  0.9415  0.7932  0.8693
25802SOL     OW86373   8.327   6.539   0.587 -0.1359  0.4726 -0.3559
25802SOL    HW186374   8.298   6.496   0.668  0.0319 -1.4289 -1.2495
25802SOL    HW286375   8.371   6.619   0.617  0.6431 -0.5726  1.5122
25803SOL     OW86376   2.399   2.481  12.334 -0.1620 -0.1617 -0.0102
25803SOL    HW186377   2.449   2.467  12.253 -0.5861 -0.1229 -0.2829
25803SOL    HW286378   2.454   2.444  12.403 -0.1518 -0.9113 -0.4143
25804SOL     OW86379   4.251   3.655  12.140  0.0044  0.0834  0.0554
25804SOL    HW186380   4.336   3.618  12.161  1.0387  3.1201  1.8722
25804SOL    HW286381   4.208   3.588  12.087  2.9881 -2.0820  0.1187
25805SOL     OW86382   3.878   9.219   1.339  0.4778 -0.3350 -0.2384
25805SOL    HW186383   3.907   9.304   1.372  0.2873 -0.4291  0.1732
25805SOL    HW286384   3.849   9.237   1.249  1.6801 -0.2181 -0.6290
25806SOL     OW86385   4.441  11.955   9.182 -0.8274  0.2034  0.2420
25806SOL    HW186386   4.398  11.999   9.109 -0.0045  1.1532  0.2956
25806SOL    HW286387   4.532  11.985   9.178 -0.5369 -0.5154  1.0580
25807SOL     OW86388   5.280   9.574   9.233 -0.0894  0.4558  0.2362
25807SOL    HW186389   5.231   9.558   9.152  0.1898 -0.7441  0.2908
25807SOL    HW286390   5.371   9.583   9.205 -0.1187  1.0287  0.3149
25808SOL     OW86391  10.842   9.352   7.123  0.2067  0.0989  0.3484
25808SOL    HW186392  10.782   9.348   7.049 -0.5700  0.8472  0.9136
25808SOL    HW286393  10.916   9.405   7.092  1.2275 -1.8454 -0.7588
25809SOL     OW86394   0.661  12.530   1.434  0.3888 -0.9861 -0.1287
25809SOL    HW186395   0.697  12.618   1.442 -0.0016 -0.7871 -0.4788
25809SOL    HW286396   0.651  12.517   1.339 -0.5538 -0.9811 -0.0438
25810SOL     OW86397   3.132   8.475   5.292 -0.1508  0.0219  0.0421
25810SOL    HW186398   3.062   8.529   5.255 -2.0710 -1.1303  1.8164
25810SOL    HW286399   3.172   8.530   5.360  1.2465  0.9410 -1.4331
25811SOL     OW86400   1.696   9.521   1.741  0.2492  0.1928  0.4238
25811SOL    HW186401   1.655   9.581   1.679 -0.9614 -1.4145 -0.4096
25811SOL    HW286402   1.702   9.571   1.822 -1.8468  1.0727  0.1067
25812SOL     OW86403   5.811   9.591  10.260  0.0304 -0.8524  0.0998
25812SOL    HW186404   5.805   9.623  10.350  1.7158  1.1726 -0.4464
25812SOL    HW286405   5.891   9.539  10.258 -1.0648 -2.6436  0.1987
25813SOL     OW86406  10.605  10.516   5.438  0.0530 -0.3791 -0.0010
25813SOL    HW186407  10.665  10.505   5.364 -1.2812 -0.6697 -1.0744
25813SOL    HW286408  10.543  10.584   5.410 -0.3790 -0.3687  0.9208
25814SOL     OW86409   9.524   5.558   5.032 -0.7294 -0.6111 -0.0061
25814SOL    HW186410   9.450   5.538   4.975 -0.5036 -0.9012 -0.2029
25814SOL    HW286411   9.600   5.521   4.986 -0.5598 -0.9482  0.5369
25815SOL     OW86412   6.377   3.074   5.483 -0.3505 -0.0201  0.1774
25815SOL    HW186413   6.457   3.090   5.433 -0.1687 -2.8830 -0.6558
25815SOL    HW286414   6.322   3.151   5.468  0.8075  0.4055 -2.2224
25816SOL     OW86415  11.056   9.653   3.417 -0.2654  0.3126 -0.4991
25816SOL    HW186416  11.139   9.611   3.440 -0.4964  0.3142  0.3743
25816SOL    HW286417  11.009   9.658   3.500 -2.4065 -2.3741 -1.4179
25817SOL     OW86418   8.692   3.727   4.714 -0.0933  0.0340  0.0193
25817SOL    HW186419   8.758   3.677   4.762  1.4947  0.6687 -1.4143
25817SOL    HW286420   8.673   3.802   4.770  2.6660  1.4520 -0.7472
25818SOL     OW86421   3.029  10.772  10.885 -0.0149 -1.1501  0.2730
25818SOL    HW186422   3.041  10.679  10.905 -1.1166 -1.2180  0.7118
25818SOL    HW286423   2.945  10.776  10.839  0.0131 -0.3665  0.2722
25819SOL     OW86424   0.420   5.469  10.259 -0.1453 -0.1377 -0.0502
25819SOL    HW186425   0.410   5.441  10.168 -2.4854  1.0505 -0.2500
25819SOL    HW286426   0.480   5.405  10.298  0.2717 -1.1418 -2.2026
25820SOL     OW86427   9.832   2.106   1.004 -0.0127 -0.2453  0.2578
25820SOL    HW186428   9.786   2.038   1.054 -1.1153 -0.6400 -1.1944
25820SOL    HW286429   9.762   2.156   0.962  0.8144 -0.7437 -1.8826
25821SOL     OW86430  10.823   7.871   2.451  0.4091 -0.0238 -0.6652
25821SOL    HW186431  10.758   7.861   2.521  0.7844  0.5006 -0.2338
25821SOL    HW286432  10.811   7.961   2.421  0.8990  0.0552 -0.6237
25822SOL     OW86433   2.815   7.020   2.132 -0.4753 -0.0699  0.1589
25822SOL    HW186434   2.863   6.944   2.099 -0.2439 -1.0912  2.6229
25822SOL    HW286435   2.878   7.065   2.189 -1.0234  1.2528 -0.2464
25823SOL     OW86436   7.229   7.589   0.515 -0.2111  0.4639 -0.2871
25823SOL    HW186437   7.312   7.636   0.521 -0.7193  1.4168 -0.6057
25823SOL    HW286438   7.236   7.536   0.436 -0.0267  0.7763 -0.4781
25824SOL     OW86439  12.363   6.492   7.256 -0.0013 -0.0748  0.5051
25824SOL    HW186440  12.457   6.487   7.273  0.2061  1.9300  0.1493
25824SOL    HW286441  12.338   6.581   7.278 -1.5094 -0.0790 -0.9174
25825SOL     OW86442   0.275   8.031  11.784  0.0903  0.0117 -0.0292
25825SOL    HW186443   0.228   7.949  11.768  0.0716 -0.2856  1.4699
25825SOL    HW286444   0.270   8.077  11.700  0.8587 -1.8797 -1.1897
25826SOL     OW86445   9.780  12.204  12.165 -0.0851  0.2005 -0.5741
25826SOL    HW186446   9.787  12.162  12.079  0.7416 -1.7543  0.4022
25826SOL    HW286447   9.716  12.274  12.151  0.9254  0.7448 -3.0684
25827SOL     OW86448   2.509   4.559   3.467  0.0171  0.0965 -0.2370
25827SOL    HW186449   2.560   4.596   3.539 -0.3734  2.3670 -1.0440
25827SOL    HW286450   2.423   4.602   3.473 -0.3683 -0.4482 -1.4423
25828SOL     OW86451   2.793  10.509   1.089 -0.2687 -0.1386  0.3235
25828SOL    HW186452   2.797  10.566   1.012  1.6648 -0.6713 -0.0331
25828SOL    HW286453   2.740  10.558   1.152 -0.5998  1.0049 -0.7866
25829SOL     OW86454   7.039  11.994   0.126  0.2995  0.1556  0.2513
25829SOL    HW186455   7.076  12.045   0.198 -0.9421 -0.8548  1.6738
25829SOL    HW286456   6.957  11.959   0.161  0.2090 -1.3066 -1.2812
25830SOL     OW86457   9.564   2.013   1.508  0.4247  0.0028  0.2002
25830SOL    HW186458   9.543   1.933   1.459  0.9021  0.7764 -1.3266
25830SOL    HW286459   9.604   2.071   1.444 -1.0777  1.9944  0.9504
25831SOL     OW86460  11.334   8.817   7.583 -0.8202 -0.1101  0.3472
25831SOL    HW186461  11.308   8.874   7.511 -1.8358  0.5308  1.1932
25831SOL    HW286462  11.406   8.765   7.547  0.0414  1.5711 -0.5036
25832SOL     OW86463   2.373   5.239   5.408  0.1146  0.2283  0.5266
25832SOL    HW186464   2.354   5.161   5.461  3.1461 -0.1726  1.2386
25832SOL    HW286465   2.398   5.306   5.472  0.5643  0.7957 -0.2286
25833SOL     OW86466  12.245  10.927  12.173 -0.3342 -0.3442 -0.2468
25833SOL    HW186467  12.201  10.991  12.229  1.7543  0.0316  1.0799
25833SOL    HW286468  12.278  10.979  12.099  0.5393 -0.0060  0.3537
25834SOL     OW86469  10.206  10.190   3.716 -1.2625  0.8430  0.0490
25834SOL    HW186470  10.190  10.265   3.773 -1.0113  2.2159 -1.6037
25834SOL    HW286471  10.211  10.227   3.628 -0.3104 -1.0098 -0.7439
25835SOL     OW86472  10.634   8.976   8.263 -0.0534  0.2541 -0.1155
25835SOL    HW186473  10.560   9.038   8.267 -0.5322 -0.1230 -2.0273
25835SOL    HW286474  10.598   8.895   8.298  0.1571  0.6485  1.0719
25836SOL     OW86475   0.161   5.397  11.603  0.9324  0.0493 -0.6765
25836SOL    HW186476   0.221   5.471  11.608  0.7433  0.1504  0.1368
25836SOL    HW286477   0.077   5.432  11.630  0.5602 -0.1644 -1.5349
25837SOL     OW86478  11.471   1.536   1.376 -0.0922  0.1846  0.4342
25837SOL    HW186479  11.545   1.475   1.381 -0.4076 -0.2504 -0.1006
25837SOL    HW286480  11.437   1.540   1.465  0.6777  0.5239  0.7213
25838SOL     OW86481   6.289   5.614   1.749 -0.2713 -0.2650  0.1461
25838SOL    HW186482   6.230   5.607   1.824 -0.5712  0.1012 -0.0522
25838SOL    HW286483   6.231   5.617   1.673  0.0696 -1.8988 -0.2132
25839SOL     OW86484   9.748   7.739   6.316 -0.4806  0.3043 -0.7099
25839SOL    HW186485   9.654   7.719   6.310 -0.2306 -0.8390 -0.9275
25839SOL    HW286486   9.758   7.782   6.400 -1.1333  0.0239 -0.4815
25840SOL     OW86487   5.476   9.964   0.918  0.1311  0.1554 -0.6302
25840SOL    HW186488   5.382   9.947   0.927  0.6036 -2.0955  1.0159
25840SOL    HW286489   5.517   9.879   0.935  2.4856  1.0278 -1.5300
25841SOL     OW86490   6.054   1.243  11.074 -0.7356  0.0399  0.3881
25841SOL    HW186491   6.097   1.262  11.158  2.0072  0.7013 -1.0742
25841SOL    HW286492   6.032   1.150  11.080  1.7842 -0.5884  0.9227
25842SOL     OW86493   5.906   8.888   6.421  0.3652  0.5547  0.1950
25842SOL    HW186494   5.848   8.813   6.407  0.9616 -0.1547  1.3154
25842SOL    HW286495   5.882   8.920   6.508  0.3090  1.4990 -0.1596
25843SOL     OW86496   3.447   8.084   5.061 -1.1808 -0.2016 -0.7098
25843SOL    HW186497   3.382   8.142   5.101  1.5306  1.6399  1.3616
25843SOL    HW286498   3.491   8.138   4.996  0.2999 -0.4031  0.0896
25844SOL     OW86499   4.940   7.019   8.119 -0.2128  0.3995 -0.0122
25844SOL    HW186500   4.923   6.925   8.122  0.8618  0.1592 -0.9165
25844SOL    HW286501   4.931   7.047   8.210 -3.0107 -0.0782 -0.0396
25845SOL     OW86502   6.137   7.935   7.035  0.2572  0.0771  0.1334
25845SOL    HW186503   6.114   7.992   7.109 -0.7310  1.1192 -0.9454
25845SOL    HW286504   6.165   7.996   6.966 -1.0232 -0.7149 -1.1222
25846SOL     OW86505   1.349  12.293   7.576 -0.6397 -0.5104 -0.2145
25846SOL    HW186506   1.373  12.223   7.517  1.7131 -0.1607  0.2498
25846SOL    HW286507   1.430  12.341   7.593 -1.7219  0.9657  1.2605
25847SOL     OW86508  12.037  10.905  11.907 -0.6013 -0.0412 -0.0934
25847SOL    HW186509  12.029  10.998  11.927  2.6515  0.3737 -0.1529
25847SOL    HW286510  12.023  10.861  11.991  2.3588  0.9406  1.0626
25848SOL     OW86511   7.494   2.952   1.610  0.5811  1.2087  0.1965
25848SOL    HW186512   7.419   2.967   1.552 -1.1141 -0.7003  1.7607
25848SOL    HW286513   7.470   2.995   1.692 -0.4340 -2.0628  1.8026
25849SOL     OW86514  11.652  10.582   2.233  0.1437 -0.3372  0.3419
25849SOL    HW186515  11.658  10.495   2.273  0.4088 -0.1271  0.7542
25849SOL    HW286516  11.734  10.592   2.185  0.3098 -0.1246  0.6714
25850SOL     OW86517   2.202  10.701  11.267  0.5771 -0.3420  0.7812
25850SOL    HW186518   2.169  10.790  11.261  0.4814 -0.4231  0.0506
25850SOL    HW286519   2.293  10.706  11.239 -0.1810 -0.8995 -2.1241
25851SOL     OW86520   0.729   1.965   2.328  0.1417  0.1361 -0.4086
25851SOL    HW186521   0.774   1.944   2.246 -1.4109 -2.3107 -0.7414
25851SOL    HW286522   0.785   1.928   2.396 -0.4150 -1.3158 -0.6959
25852SOL     OW86523   2.680  12.591   4.175  0.3243 -0.1969 -0.0244
25852SOL    HW186524   2.628  12.667   4.149 -0.1547 -0.7554 -0.7725
25852SOL    HW286525   2.616  12.520   4.183  0.9522 -0.9155 -1.0398
25853SOL     OW86526   9.780  10.185   3.201 -0.6859 -0.3810  0.5449
25853SOL    HW186527   9.811  10.135   3.277 -0.4448 -0.0169  0.6875
25853SOL    HW286528   9.858  10.196   3.147 -0.4918  0.8073  1.0534
25854SOL     OW86529   3.374   0.686   2.379 -0.0900 -0.1840  0.2665
25854SOL    HW186530   3.420   0.681   2.463 -1.1675 -1.1020  0.8315
25854SOL    HW286531   3.423   0.751   2.328  1.6984 -0.9769  0.9021
25855SOL     OW86532   4.894   6.382   3.149 -0.3747  0.0097 -0.1279
25855SOL    HW186533   4.817   6.432   3.176  0.9483  0.9861  2.0823
25855SOL    HW286534   4.906   6.317   3.218 -0.3205 -1.4412 -1.4481
25856SOL     OW86535   5.109   2.706   8.418 -0.0292  0.2519 -0.5754
25856SOL    HW186536   5.182   2.759   8.385  0.1150 -0.1135 -0.8556
25856SOL    HW286537   5.050   2.769   8.459 -0.4720  0.7976 -1.9914
25857SOL     OW86538   1.079  10.725   2.338 -0.3510  0.0756  0.5187
25857SOL    HW186539   0.994  10.717   2.381 -0.3538 -2.3643  0.2025
25857SOL    HW286540   1.095  10.639   2.299  2.8209  0.0148  1.6184
25858SOL     OW86541   6.072   4.470   2.938 -0.0161 -0.7071  0.1105
25858SOL    HW186542   6.058   4.467   2.843 -1.3538 -0.1923  0.2719
25858SOL    HW286543   6.138   4.539   2.950 -0.9969  0.3499 -0.3496
25859SOL     OW86544   2.123   3.040   4.247  0.0864 -0.1957 -0.8040
25859SOL    HW186545   2.142   3.109   4.310 -0.2766  0.5323 -1.4764
25859SOL    HW286546   2.195   2.977   4.258  1.1532  0.9335 -1.0866
25860SOL     OW86547   6.028   5.235  12.059 -0.3682 -0.8305  0.9768
25860SOL    HW186548   6.044   5.143  12.080 -0.2789 -1.5992 -1.8980
25860SOL    HW286549   6.099   5.282  12.102  0.7300 -2.3679  0.9526
25861SOL     OW86550   6.735   8.468  11.514  0.0038 -0.0853 -0.0032
25861SOL    HW186551   6.784   8.496  11.437  0.7603  1.4273  0.9738
25861SOL    HW286552   6.668   8.536  11.525  0.3099  0.0518  1.0344
25862SOL     OW86553   0.817   9.843   2.578 -0.4295 -0.4538  0.3486
25862SOL    HW186554   0.911   9.828   2.590 -0.7378 -2.3429  0.6658
25862SOL    HW286555   0.808   9.939   2.578  1.4740 -0.2396  0.3619
25863SOL     OW86556   0.243   6.143   1.773  0.1725  0.2909  0.5164
25863SOL    HW186557   0.219   6.149   1.681 -0.5837  1.2995  0.7689
25863SOL    HW286558   0.191   6.069   1.806 -1.1984  1.2472  0.6031
25864SOL     OW86559   0.079   9.712   6.177  0.0125  0.5333  0.0848
25864SOL    HW186560  -0.004   9.748   6.146 -0.3737  0.5890  1.1514
25864SOL    HW286561   0.075   9.619   6.155  0.2077  0.7567 -0.9705
25865SOL     OW86562   5.785   6.200  12.183 -0.4635 -0.1680 -0.1572
25865SOL    HW186563   5.728   6.196  12.107 -0.8041  3.3155 -0.2728
25865SOL    HW286564   5.870   6.227  12.148 -0.6508  1.5961  0.6018
25866SOL     OW86565  10.923   3.009   6.851 -0.2354  0.3930  0.1366
25866SOL    HW186566  10.877   3.088   6.822  1.0784  0.1002 -3.2630
25866SOL    HW286567  10.856   2.941   6.852 -0.8061  0.9480  0.1242
25867SOL     OW86568  10.186   0.696   3.224 -0.1052 -0.3484  0.0650
25867SOL    HW186569  10.206   0.669   3.134 -0.2516 -1.0113  0.2299
25867SOL    HW286570  10.199   0.791   3.224  1.9633 -0.5999 -0.1104
25868SOL     OW86571   7.906   6.810   6.810  0.4687  0.1371 -0.3390
25868SOL    HW186572   7.891   6.783   6.901  0.4337  1.9973  0.2366
25868SOL    HW286573   7.986   6.764   6.785  0.8460  0.0936  0.8605
25869SOL     OW86574  11.482   1.105   3.832 -0.3860  0.0936  0.5317
25869SOL    HW186575  11.546   1.162   3.789 -0.8794  0.8406  0.7823
25869SOL    HW286576  11.531   1.066   3.905  0.0071  0.0318  0.2431
25870SOL     OW86577   8.595   2.019  11.719  0.5570 -0.1177  0.1762
25870SOL    HW186578   8.599   1.927  11.744 -0.3999  0.0261  0.9327
25870SOL    HW286579   8.672   2.033  11.664  1.2956 -1.1012  0.9372
25871SOL     OW86580   9.877   1.365   8.602 -0.0516  0.3743  0.0854
25871SOL    HW186581   9.971   1.363   8.617 -0.3123 -1.9837  2.1111
25871SOL    HW286582   9.865   1.324   8.517  0.7083 -0.3000  0.2943
25872SOL     OW86583   0.276   3.426  12.126 -0.1985 -0.0247 -0.2484
25872SOL    HW186584   0.184   3.419  12.098  0.0443  0.5516 -1.2645
25872SOL    HW286585   0.282   3.513  12.166  0.2372  0.5984 -1.6065
25873SOL     OW86586   5.789  12.359  10.106  0.5590  0.2192 -0.1565
25873SOL    HW186587   5.823  12.285  10.056  0.0776  0.7165 -1.2746
25873SOL    HW286588   5.818  12.436  10.056 -0.6751  0.7083 -0.1610
25874SOL     OW86589  11.511   1.095   4.764  0.2852  0.1894 -0.3384
25874SOL    HW186590  11.465   1.070   4.844 -0.2928 -0.2367 -0.7932
25874SOL    HW286591  11.600   1.062   4.776  0.6358  1.4913  0.7787
25875SOL     OW86592  10.026  10.138   6.693  0.1642 -0.1581  0.5551
25875SOL    HW186593   9.934  10.146   6.667 -0.4863  0.4560  2.7572
25875SOL    HW286594  10.073  10.198   6.635 -1.1626  1.1619  0.7715
25876SOL     OW86595  10.449   2.264  10.336  0.2738 -0.6435 -0.2365
25876SOL    HW186596  10.399   2.272  10.418  0.1988  1.3496 -0.4312
25876SOL    HW286597  10.535   2.233  10.364  0.2959  0.1357  0.6523
25877SOL     OW86598   3.156   5.246   9.183  0.1079 -0.0731 -0.5394
25877SOL    HW186599   3.097   5.274   9.253  0.6742  0.1061 -0.1371
25877SOL    HW286600   3.107   5.177   9.138 -0.0902 -0.4904  0.2958
25878SOL     OW86601  10.460   4.711   7.467  0.4287  0.1585 -0.0723
25878SOL    HW186602  10.392   4.762   7.422  0.1316 -2.3122 -2.7078
25878SOL    HW286603  10.414   4.633   7.499  1.5387 -0.3132  0.4362
25879SOL     OW86604  11.618   5.358   8.841  0.9726 -0.0318  0.0122
25879SOL    HW186605  11.700   5.349   8.791  0.8483 -0.3420 -0.1383
25879SOL    HW286606  11.549   5.338   8.778  0.9030 -2.6933  0.8167
25880SOL     OW86607   7.524  12.410  12.058  0.2782  0.9337  0.2696
25880SOL    HW186608   7.532  12.431  12.151 -0.3103  1.3013  0.2378
25880SOL    HW286609   7.431  12.395  12.044  0.3106  1.2897 -0.3512
25881SOL     OW86610   4.946   1.709   8.919 -0.6257  0.6250 -0.3055
25881SOL    HW186611   4.997   1.703   8.838 -0.8220  1.1516 -0.4719
25881SOL    HW286612   4.927   1.803   8.928  0.7964  0.8098  1.2025
25882SOL     OW86613   7.127   6.734   7.205 -0.6778 -0.6212  0.1724
25882SOL    HW186614   7.210   6.775   7.231 -1.1688 -0.5584  1.7060
25882SOL    HW286615   7.143   6.704   7.115  0.3740  1.0573 -0.2394
25883SOL     OW86616   2.491   8.831  12.454 -0.3651 -0.1581  0.4132
25883SOL    HW186617   2.465   8.908  12.403  0.1465 -0.0639  0.2967
25883SOL    HW286618   2.525   8.867  12.536 -0.6742 -0.2870  0.5996
25884SOL     OW86619   1.568   1.782   2.974 -0.5351  0.3164  0.0213
25884SOL    HW186620   1.512   1.736   2.911 -0.3278  0.0484  0.0331
25884SOL    HW286621   1.603   1.713   3.030  0.2118  0.4296 -0.2973
25885SOL     OW86622   7.720   0.178  11.258 -0.1949 -0.4767 -0.0240
25885SOL    HW186623   7.647   0.231  11.227 -0.2859 -0.1721  0.7029
25885SOL    HW286624   7.790   0.240  11.276  0.3472 -0.7911 -0.9647
25886SOL     OW86625   9.132   8.983   0.305  0.1169  0.2778 -0.0487
25886SOL    HW186626   9.061   9.043   0.282 -0.8315 -0.4599  0.8193
25886SOL    HW286627   9.149   8.934   0.224  1.1494  1.9094 -0.8643
25887SOL     OW86628  10.052   1.719   8.796  0.9719  0.5087 -0.4174
25887SOL    HW186629  10.125   1.780   8.793  0.3994  1.2231 -0.1862
25887SOL    HW286630   9.991   1.758   8.859 -0.2692  0.6839 -1.6798
25888SOL     OW86631   3.215   3.617   8.605 -0.3869  1.0007  0.4323
25888SOL    HW186632   3.294   3.590   8.558 -0.1218  3.4819 -0.7543
25888SOL    HW286633   3.173   3.681   8.547 -2.2831  1.1401  1.8421
25889SOL     OW86634   1.650  11.660   3.929  0.6597  0.0443 -0.3062
25889SOL    HW186635   1.620  11.629   4.015 -2.1747 -2.6608 -2.0762
25889SOL    HW286636   1.599  11.740   3.914 -0.9179 -0.9505 -0.5139
25890SOL     OW86637   2.110   4.767   8.400 -0.7025 -0.1042 -0.4043
25890SOL    HW186638   2.181   4.799   8.456 -0.7527  0.4780 -0.6661
25890SOL    HW286639   2.043   4.736   8.462 -0.7833  0.5909 -0.1390
25891SOL     OW86640   9.858   5.231   8.433 -0.1641 -0.6505  0.3054
25891SOL    HW186641   9.815   5.279   8.505 -0.5006 -0.2207 -0.1734
25891SOL    HW286642   9.945   5.211   8.467  0.4834  1.4831  0.0582
25892SOL     OW86643   7.828   5.361   0.885 -0.1692  0.2400 -0.4279
25892SOL    HW186644   7.909   5.315   0.865 -0.1971  0.6238 -1.5269
25892SOL    HW286645   7.851   5.423   0.955  0.4282  0.1830 -0.5748
25893SOL     OW86646   6.188   0.402   8.813  0.2566 -1.3826 -0.4920
25893SOL    HW186647   6.159   0.443   8.731 -0.6510  0.3432  0.6390
25893SOL    HW286648   6.109   0.396   8.866  1.2721  0.0761  1.2888
25894SOL     OW86649  11.346  12.200   3.698  0.4428 -0.1477 -0.6115
25894SOL    HW186650  11.253  12.181   3.686  0.2627 -0.0821  0.6195
25894SOL    HW286651  11.349  12.293   3.721  0.8688 -0.0159 -1.1748
25895SOL     OW86652   7.689   3.921   2.818  0.5183 -0.4727  0.4820
25895SOL    HW186653   7.690   4.016   2.811  0.5879 -0.3385  2.0053
25895SOL    HW286654   7.717   3.890   2.731  3.5800  0.9547  0.8070
25896SOL     OW86655   2.082   9.656   9.771 -0.3638  0.5183  0.0440
25896SOL    HW186656   2.101   9.701   9.689 -1.5107  1.1485  0.1184
25896SOL    HW286657   1.988   9.664   9.783 -0.3469 -0.3615  0.9691
25897SOL     OW86658   9.499   1.044   4.500 -0.1645 -0.4983 -0.4477
25897SOL    HW186659   9.582   1.002   4.476 -0.3430 -2.0437  1.4040
25897SOL    HW286660   9.433   0.996   4.449 -0.3577 -2.6248  1.6002
25898SOL     OW86661   6.890   1.696   7.053  0.5459 -0.6004 -0.1530
25898SOL    HW186662   6.824   1.764   7.038  0.8989 -0.3628 -0.6564
25898SOL    HW286663   6.974   1.741   7.041  0.7908 -0.9893  0.0962
25899SOL     OW86664   4.824   6.186   8.966  0.1096  0.1110  0.1531
25899SOL    HW186665   4.881   6.126   9.015  0.1857 -0.4033 -0.5541
25899SOL    HW286666   4.735   6.158   8.989  0.1420 -0.4362 -0.3502
25900SOL     OW86667   7.654  10.248   2.602  0.1290  0.5221 -0.6976
25900SOL    HW186668   7.575  10.296   2.578 -0.8665  0.5388  2.2707
25900SOL    HW286669   7.706  10.311   2.653  0.8364 -0.2597 -0.4293
25901SOL     OW86670   1.049   9.184   0.419  0.8443  0.1601  0.2939
25901SOL    HW186671   0.975   9.125   0.426  0.7075  0.3883  0.8384
25901SOL    HW286672   1.124   9.127   0.399  0.9417 -0.3771  1.9628
25902SOL     OW86673   3.060  10.043   2.744  0.4832  0.4103 -0.3279
25902SOL    HW186674   3.132  10.102   2.766  0.4842  0.5829 -0.7788
25902SOL    HW286675   3.089   9.957   2.776  0.2937  0.7242  0.7127
25903SOL     OW86676   3.694   0.623   1.487 -0.1063  0.4228 -0.1832
25903SOL    HW186677   3.620   0.660   1.438 -0.1617  2.1243  1.0836
25903SOL    HW286678   3.767   0.680   1.464  0.8826 -1.2750 -1.4625
25904SOL     OW86679   6.718   8.029   6.071 -0.6444 -0.6969 -0.1723
25904SOL    HW186680   6.739   8.121   6.088  0.9692 -0.9804 -0.5120
25904SOL    HW286681   6.676   8.030   5.984 -0.0953 -0.3443 -0.4371
25905SOL     OW86682   3.241   0.302  11.543 -0.5323  0.4295  0.4102
25905SOL    HW186683   3.331   0.319  11.517 -0.3853 -0.9220 -0.0334
25905SOL    HW286684   3.247   0.239  11.615 -1.1302 -0.7440 -0.5206
25906SOL     OW86685  10.955   8.221   5.071 -0.4668 -0.0265 -0.2332
25906SOL    HW186686  10.892   8.174   5.016  0.4970 -2.2187  0.4250
25906SOL    HW286687  10.952   8.176   5.155 -0.0244  1.6157  0.7117
25907SOL     OW86688   6.707   3.444   3.797  1.0246 -0.1328 -0.5008
25907SOL    HW186689   6.757   3.481   3.869  0.4157 -0.3927  0.0677
25907SOL    HW286690   6.621   3.425   3.835  0.5595  0.1087 -1.3957
25908SOL     OW86691   6.499  11.273  11.541 -0.6750  0.0111  0.1162
25908SOL    HW186692   6.420  11.323  11.563 -1.2416 -0.8363  0.0843
25908SOL    HW286693   6.529  11.238  11.625 -0.5558  0.0308  0.0805
25909SOL     OW86694  12.085  11.869   1.174 -0.2230 -0.2260 -0.5569
25909SOL    HW186695  12.113  11.795   1.120 -1.5667 -0.5603 -0.8431
25909SOL    HW286696  11.989  11.867   1.169 -0.2943  2.1815 -1.4474
25910SOL     OW86697   0.841   6.029   5.315 -0.4981  0.4249  0.0142
25910SOL    HW186698   0.780   5.960   5.288  0.3524 -0.2000 -0.3623
25910SOL    HW286699   0.888   5.992   5.389 -0.6000  0.9205  0.3326
25911SOL     OW86700   8.484   5.899   9.487 -0.2551 -0.2863  0.6309
25911SOL    HW186701   8.553   5.905   9.553 -1.2982 -1.6543  1.9329
25911SOL    HW286702   8.490   5.809   9.455 -0.6741 -0.0616 -0.1032
25912SOL     OW86703  10.131   0.426   4.976  0.6007  0.1158 -0.1191
25912SOL    HW186704  10.152   0.516   5.000  2.7948 -0.0679 -1.1291
25912SOL    HW286705  10.214   0.387   4.950 -0.1703 -2.4062  0.7918
25913SOL     OW86706  11.472  12.571   9.051 -0.4362 -0.1698  0.1850
25913SOL    HW186707  11.564  12.546   9.054 -0.5790 -0.6576  0.8588
25913SOL    HW286708  11.465  12.642   9.115 -0.7208 -0.8444  0.9227
25914SOL     OW86709   1.745   4.704   3.319 -0.3111  0.1068  0.8807
25914SOL    HW186710   1.659   4.722   3.282 -0.3831  0.4098  1.1849
25914SOL    HW286711   1.807   4.743   3.257 -0.3264 -1.1613  0.0400
25915SOL     OW86712   4.322   7.417   9.970 -0.4507 -0.2128  0.0803
25915SOL    HW186713   4.276   7.335   9.955  0.1375 -0.8790  1.6747
25915SOL    HW286714   4.295   7.474   9.897 -0.9554 -1.7605 -0.9954
25916SOL     OW86715   4.319  10.633  12.464 -0.4562 -0.0483  0.5932
25916SOL    HW186716   4.327  10.704  12.400 -0.9499 -0.3645  0.1769
25916SOL    HW286717   4.304  10.555  12.411 -0.8034 -0.3232  1.0949
25917SOL     OW86718   9.204   9.604   6.986  0.9438 -0.3211  0.9481
25917SOL    HW186719   9.150   9.669   7.029 -0.6698  0.6783 -2.2400
25917SOL    HW286720   9.142   9.547   6.940  2.4176  0.1799 -1.9490
25918SOL     OW86721   1.778  10.310   2.684  0.0481  0.0931 -0.0413
25918SOL    HW186722   1.703  10.253   2.670 -1.4127  1.6456  1.0797
25918SOL    HW286723   1.820  10.316   2.598 -0.3236 -1.8199 -0.3980
25919SOL     OW86724   2.310   2.341   4.524  0.1173  1.0329  0.0372
25919SOL    HW186725   2.259   2.260   4.521  0.0666  1.0642  0.0527
25919SOL    HW286726   2.390   2.317   4.569  0.8801  0.5594 -1.4844
25920SOL     OW86727  11.537   6.171   7.417  0.0310  0.5933  0.4366
25920SOL    HW186728  11.628   6.188   7.440  0.2812 -1.5202  1.2939
25920SOL    HW286729  11.489   6.179   7.500  0.1112 -2.0517  0.8186
25921SOL     OW86730   3.171   4.004  11.661  0.0191 -0.2125  0.1418
25921SOL    HW186731   3.173   4.096  11.689  1.4306  0.4928 -2.0472
25921SOL    HW286732   3.104   4.001  11.593 -0.1345 -0.8789  0.3110
25922SOL     OW86733   0.180  12.018   1.856  0.1996  0.2123  0.7797
25922SOL    HW186734   0.158  12.051   1.769 -0.9905  2.1652  1.7293
25922SOL    HW286735   0.275  12.032   1.863 -0.0215  2.1609  0.5579
25923SOL     OW86736  10.255  12.593  10.990 -0.1478 -0.0441  0.3774
25923SOL    HW186737  10.331  12.551  11.029 -0.2153 -0.3325  0.2055
25923SOL    HW286738  10.190  12.523  10.983 -0.6658  0.3500  1.1515
25924SOL     OW86739   3.984   3.425   1.808  0.0425  0.5206 -0.7131
25924SOL    HW186740   4.016   3.468   1.887  0.9128 -1.0738 -0.1513
25924SOL    HW286741   3.891   3.447   1.803  0.4476  2.4180 -0.4636
25925SOL     OW86742   3.959   7.573   5.143  0.6978 -0.0794 -0.4127
25925SOL    HW186743   3.925   7.558   5.232 -1.5612 -0.1327 -1.2059
25925SOL    HW286744   4.053   7.586   5.155  0.7554 -1.8876  1.7817
25926SOL     OW86745   5.664   0.783  11.536  0.2167  0.0430 -0.3468
25926SOL    HW186746   5.568   0.775  11.537  0.0943  1.3390  1.1464
25926SOL    HW286747   5.683   0.829  11.454 -0.4724  0.1706 -0.4438
25927SOL     OW86748   0.313   1.516  11.227  0.0537  0.0846  0.7348
25927SOL    HW186749   0.266   1.434  11.234  1.7807 -1.1733 -1.2524
25927SOL    HW286750   0.283   1.568  11.302 -1.1672 -2.2826  1.9726
25928SOL     OW86751   8.310   9.491   3.860  0.4561 -0.0121  0.0354
25928SOL    HW186752   8.299   9.447   3.776 -1.5845 -0.6381  0.5658
25928SOL    HW286753   8.402   9.478   3.883  0.9484 -0.1649 -1.8836
25929SOL     OW86754   4.039  10.952  12.033 -0.4187  0.0756  0.0741
25929SOL    HW186755   4.007  10.869  11.999 -0.2659  0.4585 -1.0408
25929SOL    HW286756   4.040  11.011  11.958 -0.6248  1.1237  0.8590
25930SOL     OW86757   7.241   9.277   6.589  0.2879  0.4022  0.4135
25930SOL    HW186758   7.318   9.278   6.646 -0.5136 -0.9653  1.5993
25930SOL    HW286759   7.276   9.263   6.501  1.3817 -1.2745  1.0573
25931SOL     OW86760   1.373   2.769   0.725 -0.2167  0.3048 -0.2105
25931SOL    HW186761   1.319   2.707   0.677 -0.9521  0.6075  0.2134
25931SOL    HW286762   1.314   2.840   0.750  0.1422  0.1850  1.0780
25932SOL     OW86763   9.446   9.514   6.974  1.1527 -0.0225 -0.2884
25932SOL    HW186764   9.487   9.580   7.030 -0.0004 -1.2851  2.2602
25932SOL    HW286765   9.352   9.533   6.980  0.8938 -1.1351 -0.4556
25933SOL     OW86766   0.578   2.375   8.086  0.3140 -0.2758  0.3769
25933SOL    HW186767   0.622   2.388   8.002 -0.8894 -3.7041 -0.9228
25933SOL    HW286768   0.645   2.397   8.151  1.9236  0.5515 -1.4631
25934SOL     OW86769   5.880   5.874   9.885  0.2651 -0.5249 -0.4200
25934SOL    HW186770   5.855   5.920   9.965 -0.7393 -0.0071 -1.0054
25934SOL    HW286771   5.893   5.944   9.820  0.1225 -0.9864 -0.9558
25935SOL     OW86772   4.304   2.931   7.172 -0.3296 -0.3110 -0.1795
25935SOL    HW186773   4.365   2.883   7.227  0.1274  1.5245  0.9813
25935SOL    HW286774   4.358   2.971   7.104 -0.2036  1.2663  0.8146
25936SOL     OW86775   9.266   6.219  10.534 -0.4006 -0.3817  0.0065
25936SOL    HW186776   9.322   6.269  10.594 -0.6417 -1.8766  1.5455
25936SOL    HW286777   9.313   6.137  10.520 -0.9563 -0.5638 -0.8377
25937SOL     OW86778   8.161   9.026   0.378 -0.3029 -0.2708  0.0322
25937SOL    HW186779   8.164   8.998   0.470 -2.3510  0.9703  0.5559
25937SOL    HW286780   8.120   8.953   0.332 -0.0773 -0.5408  0.2518
25938SOL     OW86781   4.082  11.680   6.424 -0.1605  0.1114 -0.7662
25938SOL    HW186782   4.099  11.646   6.337 -1.4449 -0.0533 -0.9732
25938SOL    HW286783   4.167  11.678   6.468  0.1830 -1.4514 -1.4300
25939SOL     OW86784   3.683   4.577  11.349 -0.2962  0.0083 -0.0336
25939SOL    HW186785   3.615   4.559  11.284  0.6838 -1.9497 -0.5704
25939SOL    HW286786   3.751   4.512  11.333  2.2210  2.4684 -0.1350
25940SOL     OW86787   1.426   6.462   5.121 -0.5280  0.2492 -0.7706
25940SOL    HW186788   1.357   6.396   5.115  0.3122 -0.6978 -0.1207
25940SOL    HW286789   1.384   6.543   5.090 -1.5973 -0.5457 -1.4562
25941SOL     OW86790   2.705   1.620   2.934 -0.5882 -0.1087  0.0264
25941SOL    HW186791   2.648   1.674   2.987  1.7843  1.6266  1.0032
25941SOL    HW286792   2.666   1.620   2.847 -2.1537  0.7942  0.7059
25942SOL     OW86793   8.150   1.025   2.535 -0.1076 -0.0106  0.0080
25942SOL    HW186794   8.063   1.041   2.498 -0.2220 -0.0717  0.2480
25942SOL    HW286795   8.185   1.112   2.554  0.1116  0.0403 -0.6079
25943SOL     OW86796   9.700  12.547   9.466 -0.3985  0.1747 -0.6894
25943SOL    HW186797   9.758  12.604   9.516  0.0898  0.2165 -1.2816
25943SOL    HW286798   9.612  12.568   9.497 -0.0944  0.0239  0.3156
25944SOL     OW86799   6.020  11.292   5.411  0.5228  0.4819 -0.0640
25944SOL    HW186800   5.952  11.330   5.356  1.3978  3.5783  0.7560
25944SOL    HW286801   6.089  11.265   5.350  0.2021  0.9948 -0.6609
25945SOL     OW86802   4.718   9.843   9.305  0.1013  0.4347 -0.0777
25945SOL    HW186803   4.679   9.797   9.379  0.1982  0.9764  0.3127
25945SOL    HW286804   4.753   9.773   9.250  1.4237  0.0622  1.1608
25946SOL     OW86805  10.208   5.636   4.736 -0.5688 -0.5394  0.1145
25946SOL    HW186806  10.301   5.638   4.711 -0.7237 -0.0142 -0.4157
25946SOL    HW286807  10.163   5.602   4.659 -0.5593 -3.2723  1.2015
25947SOL     OW86808   5.095   4.527   5.881 -0.1203  0.0148 -0.0811
25947SOL    HW186809   5.102   4.437   5.849 -1.3914  0.5084 -1.8976
25947SOL    HW286810   5.045   4.519   5.962  1.2212 -1.0504  0.6837
25948SOL     OW86811   7.626   3.637   4.138  0.1996 -0.3415 -0.4257
25948SOL    HW186812   7.573   3.681   4.203 -2.4537 -2.3389 -1.0764
25948SOL    HW286813   7.688   3.584   4.188  2.1082  2.3744  0.3378
25949SOL     OW86814   6.067   1.337   0.250 -0.7538 -0.2059 -0.6669
25949SOL    HW186815   6.117   1.414   0.279 -2.4181  0.1514  1.4586
25949SOL    HW286816   6.119   1.302   0.178  0.4921  2.4208 -1.1843
25950SOL     OW86817   4.092   2.463   0.600  0.0313 -0.3155  0.0627
25950SOL    HW186818   4.059   2.466   0.690 -0.1507  0.1600 -0.0126
25950SOL    HW286819   4.187   2.476   0.608  0.1742 -1.4569  0.2660
25951SOL     OW86820   2.533   4.320   1.511 -0.2016 -0.3497 -0.2832
25951SOL    HW186821   2.466   4.278   1.455 -1.1386 -0.1322  0.6420
25951SOL    HW286822   2.487   4.393   1.552  1.3986  1.7025 -1.8907
25952SOL     OW86823   1.172   7.596   6.697 -0.3846  0.1172 -0.3119
25952SOL    HW186824   1.187   7.529   6.765  0.5535 -1.5433 -2.0629
25952SOL    HW286825   1.115   7.553   6.634 -1.8257  1.8835 -0.2929
25953SOL     OW86826   8.578   1.901   1.920 -0.0668  0.1207 -0.6489
25953SOL    HW186827   8.536   1.883   1.836  0.0827  2.3411 -1.2538
25953SOL    HW286828   8.640   1.972   1.901  1.9213 -1.1055  0.8065
25954SOL     OW86829   0.655   6.921  12.122  0.0773  0.0569  0.2692
25954SOL    HW186830   0.674   7.009  12.155  3.7362 -0.5000  0.0316
25954SOL    HW286831   0.638   6.869  12.201  0.8384  0.3951  0.6699
25955SOL     OW86832   2.776  11.875  10.856  0.3016  0.0241  0.1836
25955SOL    HW186833   2.856  11.860  10.907 -0.1929  0.1545  1.0142
25955SOL    HW286834   2.708  11.887  10.921 -0.2216  0.9244 -0.5073
25956SOL     OW86835   6.436  10.567   1.476  0.2237  0.1649 -0.6383
25956SOL    HW186836   6.361  10.627   1.474  0.8950  0.9945 -1.8371
25956SOL    HW286837   6.456  10.557   1.569 -0.7001  0.7681 -0.3572
25957SOL     OW86838   6.895   8.847   0.614 -0.1582  0.0433 -0.6492
25957SOL    HW186839   6.839   8.784   0.660  1.1782 -0.9692 -0.3575
25957SOL    HW286840   6.947   8.888   0.684 -1.9778  2.5814 -0.6379
25958SOL     OW86841   2.273   2.705   1.860 -0.0698 -0.6075 -0.0517
25958SOL    HW186842   2.180   2.724   1.874 -0.4617 -3.2283  1.7437
25958SOL    HW286843   2.276   2.666   1.773  0.0013  2.6835 -1.6393
25959SOL     OW86844   5.920   9.727   8.275  0.2576 -0.5680  0.1726
25959SOL    HW186845   5.848   9.766   8.325  0.8459  1.2958 -0.3272
25959SOL    HW286846   5.886   9.644   8.243 -1.8839  0.5305 -0.5507
25960SOL     OW86847   1.439  11.760  11.710  0.5999  0.6318  0.5353
25960SOL    HW186848   1.389  11.690  11.751  0.4860  0.5102  0.1975
25960SOL    HW286849   1.526  11.722  11.694  0.0173 -0.0676 -1.3059
25961SOL     OW86850   2.279   0.597   0.693  0.0196  0.7901  0.5121
25961SOL    HW186851   2.364   0.629   0.663 -0.0879  1.0619  0.4915
25961SOL    HW286852   2.255   0.529   0.631 -0.2988  1.4878 -0.1464
25962SOL     OW86853   1.131   4.581   1.166 -0.0215  0.1436 -0.3316
25962SOL    HW186854   1.191   4.639   1.212 -0.3064  1.1405 -1.1635
25962SOL    HW286855   1.187   4.522   1.116  0.3500 -2.0631  2.4576
25963SOL     OW86856   8.157   5.035   4.877  0.2100 -0.1762 -0.4680
25963SOL    HW186857   8.134   5.075   4.793 -0.5037  2.3718  0.8161
25963SOL    HW286858   8.252   5.042   4.882  0.3977 -1.4850 -1.5265
25964SOL     OW86859   2.281  11.021  11.546 -0.1177 -0.2445  0.5984
25964SOL    HW186860   2.292  11.007  11.640  0.6833 -0.9977  0.4058
25964SOL    HW286861   2.368  11.047  11.516 -0.1569 -0.8826 -0.0770
25965SOL     OW86862   7.462   2.024   3.161 -0.0497 -0.2147  0.0233
25965SOL    HW186863   7.508   2.035   3.078 -0.8820  0.7363 -0.3386
25965SOL    HW286864   7.405   1.948   3.147 -0.2478 -0.0083 -0.3103
25966SOL     OW86865   7.981  11.771  12.229  0.3157  0.1938  0.0751
25966SOL    HW186866   7.955  11.848  12.279 -0.5891 -0.9581  1.4567
25966SOL    HW286867   7.920  11.767  12.156  0.6444  1.0139 -0.2511
25967SOL     OW86868   8.273   2.551   0.989 -0.5401  0.0773  0.0336
25967SOL    HW186869   8.230   2.466   0.995  0.2331 -0.3328 -0.0534
25967SOL    HW286870   8.258   2.580   0.899  1.2940 -1.1450 -0.7256
25968SOL     OW86871   7.935  11.299   2.661  0.0817 -0.3944 -0.4078
25968SOL    HW186872   7.929  11.311   2.566  2.6752 -1.0946 -0.7252
25968SOL    HW286873   7.911  11.207   2.675  3.0391 -1.3362 -0.8925
25969SOL     OW86874  10.653   8.507   9.354 -0.2465  0.2330  0.4911
25969SOL    HW186875  10.716   8.517   9.425 -0.4505  3.0479  0.4015
25969SOL    HW286876  10.703   8.523   9.274 -0.5887  0.0117  0.2277
25970SOL     OW86877   6.461   7.383   9.786  0.0211 -0.3554 -0.2815
25970SOL    HW186878   6.396   7.453   9.773  0.1787  0.0193  0.8243
25970SOL    HW286879   6.412   7.302   9.772 -0.9469 -0.1169  1.3278
25971SOL     OW86880  12.015   2.342   4.689  0.1919 -0.2301  0.1765
25971SOL    HW186881  12.059   2.335   4.603 -0.8490 -0.3686 -0.3614
25971SOL    HW286882  11.938   2.396   4.672  0.0045 -0.2114  1.0506
25972SOL     OW86883   1.760   9.433   2.136  0.3735 -0.6036 -0.1311
25972SOL    HW186884   1.810   9.514   2.138  0.4041 -0.5583 -1.4840
25972SOL    HW286885   1.767   9.397   2.224  0.6780  0.6686  0.3729
25973SOL     OW86886   8.344   8.727   6.252  0.3586 -0.3278  0.3082
25973SOL    HW186887   8.394   8.804   6.281  0.0248  0.5997 -1.4679
25973SOL    HW286888   8.299   8.756   6.173  1.0644 -2.6645 -1.0347
25974SOL     OW86889   3.739  10.703   2.771 -0.1077 -0.2354  0.1182
25974SOL    HW186890   3.784  10.753   2.703 -0.9102  0.4181  0.0507
25974SOL    HW286891   3.660  10.670   2.728 -1.8712  2.2016  1.3283
25975SOL     OW86892   9.809   6.744  11.145 -0.2336 -0.9398  0.1523
25975SOL    HW186893   9.868   6.724  11.072  3.0849  1.0214  2.0388
25975SOL    HW286894   9.752   6.813  11.111  0.4331 -0.9053 -0.9542
25976SOL     OW86895   6.600   1.687   0.723  0.2300 -0.1681 -0.7051
25976SOL    HW186896   6.594   1.626   0.650  0.4579 -1.7278  0.5318
25976SOL    HW286897   6.557   1.642   0.796 -4.0970  3.0729 -0.8361
25977SOL     OW86898   5.356  10.423   9.612 -0.1189  0.3767  0.2010
25977SOL    HW186899   5.263  10.400   9.609  0.0244 -0.1362 -0.7557
25977SOL    HW286900   5.358  10.507   9.657 -0.9811  0.0905  0.8117
25978SOL     OW86901   1.768   4.112   5.540  0.2777 -0.1388 -0.5918
25978SOL    HW186902   1.857   4.121   5.575  0.7988 -0.5604 -1.7437
25978SOL    HW286903   1.719   4.183   5.581  0.6385 -1.0508  1.5462
25979SOL     OW86904   3.132   1.603   6.173 -0.0315 -0.2423  0.3272
25979SOL    HW186905   3.113   1.511   6.192  0.8151 -0.3433  0.7221
25979SOL    HW286906   3.071   1.626   6.102  0.5549 -1.4464 -0.6013
25980SOL     OW86907   8.456   0.953  10.868  0.4256  0.6646 -0.2333
25980SOL    HW186908   8.401   0.892  10.917 -2.0901  1.8458 -1.3935
25980SOL    HW286909   8.472   0.910  10.785 -1.9046  1.6782 -1.3161
25981SOL     OW86910   5.293   2.145  11.842  0.4346  0.3289 -0.2576
25981SOL    HW186911   5.305   2.240  11.835  1.2590  0.2355 -0.2574
25981SOL    HW286912   5.257   2.133  11.930  2.0376  0.5278  0.4789
25982SOL     OW86913   6.096   7.946   3.988 -0.8883 -0.4928 -0.0801
25982SOL    HW186914   6.001   7.948   3.995 -0.9465  0.4760 -0.9150
25982SOL    HW286915   6.120   8.033   3.955  0.2011 -1.0551 -0.8229
25983SOL     OW86916   3.196  11.029   2.506  0.1595 -0.6004 -0.0786
25983SOL    HW186917   3.162  10.944   2.534 -1.5011  0.5194  1.5224
25983SOL    HW286918   3.283  11.034   2.546  1.4271 -2.5457 -2.3273
25984SOL     OW86919   8.282   8.478   7.183  0.3139 -0.1545  0.2864
25984SOL    HW186920   8.367   8.518   7.168  0.3425 -0.6072 -0.8597
25984SOL    HW286921   8.285   8.396   7.133 -0.8097 -0.1452  0.1811
25985SOL     OW86922   1.613   8.032   7.383 -0.0293 -0.7545 -0.1782
25985SOL    HW186923   1.543   7.980   7.421 -0.1798 -0.6540 -0.3171
25985SOL    HW286924   1.575   8.071   7.304 -1.1602  2.6137  1.8335
25986SOL     OW86925   5.765   3.521   6.341  0.0441 -0.0915 -0.3708
25986SOL    HW186926   5.789   3.477   6.260  1.8471  1.0009 -0.4996
25986SOL    HW286927   5.842   3.511   6.397 -0.8614 -0.1235  0.9036
25987SOL     OW86928   1.961   2.154   5.991  0.3005  0.2898  0.0532
25987SOL    HW186929   1.921   2.079   6.034  0.4923 -0.2633 -0.7270
25987SOL    HW286930   1.894   2.223   5.995 -0.6170 -0.5251 -0.9625
25988SOL     OW86931   1.989   1.653  12.094  0.0213  0.3770 -0.1999
25988SOL    HW186932   1.942   1.680  12.173 -2.8621  0.1417 -1.6980
25988SOL    HW286933   2.032   1.571  12.119  0.1964  0.9389  1.4530
25989SOL     OW86934   4.534  12.147  10.148  0.0114  0.1871 -0.2799
25989SOL    HW186935   4.455  12.195  10.127  0.1530  1.0371  0.9969
25989SOL    HW286936   4.547  12.088  10.074 -2.1711 -0.4568 -0.2179
25990SOL     OW86937  12.101   5.292   6.263  0.3286 -0.1707  0.3291
25990SOL    HW186938  12.026   5.235   6.245  0.5623  0.4066 -3.0225
25990SOL    HW286939  12.064   5.365   6.312 -0.6626 -1.3664  1.4560
25991SOL     OW86940   0.496  11.143   8.165 -0.4378 -0.2610  0.5965
25991SOL    HW186941   0.502  11.052   8.138  1.6277  0.2536 -0.8599
25991SOL    HW286942   0.470  11.190   8.086 -2.2877  0.3700  1.5257
25992SOL     OW86943   7.051   2.776   1.193  0.2451  0.0756  0.4275
25992SOL    HW186944   7.022   2.693   1.154  0.5149  0.1928 -0.0351
25992SOL    HW286945   7.134   2.794   1.149 -0.6082  1.4401 -0.6974
25993SOL     OW86946   6.770   5.309   8.516  0.5875  0.2078 -0.1725
25993SOL    HW186947   6.771   5.232   8.574 -0.7593 -0.9542 -1.5946
25993SOL    HW286948   6.861   5.338   8.513  0.8655 -0.3246  1.6762
25994SOL     OW86949   2.814  10.244   3.146  0.1829  0.5112 -0.1563
25994SOL    HW186950   2.776  10.276   3.228  1.1796  0.0599  0.5020
25994SOL    HW286951   2.901  10.284   3.143 -0.3325  1.6330 -1.6930
25995SOL     OW86952   8.773   8.993   0.080 -0.1962  0.3805 -0.0120
25995SOL    HW186953   8.690   9.015   0.122  0.3202 -0.7078  1.7274
25995SOL    HW286954   8.777   8.897   0.086  0.0791  0.2058 -2.3340
25996SOL     OW86955   3.495   6.392  10.980  0.1710  0.0123 -0.3753
25996SOL    HW186956   3.541   6.309  10.968  0.3079 -0.1830  1.3005
25996SOL    HW286957   3.561   6.452  11.015 -0.1636  0.5523 -0.6456
25997SOL     OW86958   9.689   9.595   0.623 -0.6418 -0.1716  0.2906
25997SOL    HW186959   9.596   9.577   0.630 -0.7232  0.6288  1.4514
25997SOL    HW286960   9.702   9.623   0.532 -0.9078 -3.5774 -0.9324
25998SOL     OW86961   4.730   4.636   5.658 -0.3675  0.0010  0.0648
25998SOL    HW186962   4.797   4.695   5.693  1.0991 -0.7580 -1.2903
25998SOL    HW286963   4.728   4.563   5.719 -0.8754  0.5931  0.7734
25999SOL     OW86964   6.015  11.231   2.915 -0.1329 -0.5791  0.0543
25999SOL    HW186965   5.990  11.184   2.835 -2.5032  1.0084 -0.2502
25999SOL    HW286966   6.088  11.286   2.888  1.0988 -2.2331 -0.1797
26000SOL     OW86967   7.814   8.143   1.554  0.3894 -0.2744 -0.1047
26000SOL    HW186968   7.761   8.193   1.616  1.2800  0.5051  0.0549
26000SOL    HW286969   7.818   8.197   1.476  1.2168 -0.1625  0.0048
26001SOL     OW86970   9.009   8.875  10.388  0.6541 -0.1558  0.1121
26001SOL    HW186971   9.083   8.935  10.387  0.5933 -0.0823  0.0824
26001SOL    HW286972   9.021   8.824  10.468  0.9965 -0.4659 -0.1333
26002SOL     OW86973   9.389   8.881   6.116  0.4655  0.1894  0.5250
26002SOL    HW186974   9.396   8.848   6.206  2.0898 -0.4961  0.1754
26002SOL    HW286975   9.450   8.955   6.114  2.9092 -1.7194 -0.8114
26003SOL     OW86976   3.026   0.910   7.219 -0.2186 -0.3363  0.1279
26003SOL    HW186977   2.977   0.852   7.160  0.8149 -1.8253  0.6549
26003SOL    HW286978   3.115   0.873   7.220  0.1146  0.4302  1.5736
26004SOL     OW86979   0.513  10.655  11.316  0.4545 -0.8577  0.7842
26004SOL    HW186980   0.426  10.615  11.318  0.6792 -1.3529  1.1993
26004SOL    HW286981   0.558  10.610  11.244  0.3104 -0.4715  0.4508
26005SOL     OW86982   7.246  10.453  12.193  0.0873  0.0080  0.4738
26005SOL    HW186983   7.214  10.489  12.111  0.5991 -0.1409  0.2004
26005SOL    HW286984   7.247  10.527  12.253 -1.2004 -0.0785  0.6372
26006SOL     OW86985   3.597   8.017   4.758  0.1156  0.1793 -0.2440
26006SOL    HW186986   3.622   8.088   4.816 -0.7245  0.7156 -0.5290
26006SOL    HW286987   3.502   8.027   4.746 -0.0204 -1.0077 -0.2526
26007SOL     OW86988   3.043   5.178  10.186 -0.7028 -0.3168  0.2277
26007SOL    HW186989   2.957   5.174  10.144  0.0698 -0.2987 -1.4464
26007SOL    HW286990   3.027   5.218  10.271 -2.0210  2.1025 -1.0378
26008SOL     OW86991  11.294  11.268   8.573  0.2936 -0.1725  0.0569
26008SOL    HW186992  11.321  11.255   8.664  0.2900  0.4494  0.1520
26008SOL    HW286993  11.293  11.363   8.561 -0.6475 -0.2146 -0.3065
26009SOL     OW86994   2.404   3.757   1.858  0.0049  0.2148 -0.6263
26009SOL    HW186995   2.322   3.790   1.820  0.4187  0.8582 -0.9846
26009SOL    HW286996   2.415   3.670   1.819 -1.0876 -0.3613  0.3022
26010SOL     OW86997   4.162   0.004   9.673 -0.3546 -0.1820 -0.1208
26010SOL    HW186998   4.119  -0.072   9.634  0.8365 -1.5873  1.1593
26010SOL    HW286999   4.241   0.016   9.619 -1.0123  0.7704 -0.8967
26011SOL     OW87000  12.246   2.663   0.774 -0.1872  0.3395  0.0537
26011SOL    HW187001  12.172   2.657   0.834  0.7223 -0.8932  1.0811
26011SOL    HW287002  12.210   2.635   0.689 -0.7015 -1.1383  0.7272
26012SOL     OW87003   0.641   3.781   3.762 -1.0439  0.6033  0.1533
26012SOL    HW187004   0.649   3.869   3.725 -3.7360  0.1855 -1.6260
26012SOL    HW287005   0.728   3.764   3.800  0.9106  2.3662 -3.0844
26013SOL     OW87006   1.685   4.415   4.747  0.2499  0.3203 -0.4417
26013SOL    HW187007   1.618   4.438   4.811  1.4462  2.0368  0.2701
26013SOL    HW287008   1.637   4.407   4.665 -0.7492  2.6716 -0.1826
26014SOL     OW87009   4.895   1.154   9.240 -0.1361 -0.3270 -0.2357
26014SOL    HW187010   4.944   1.157   9.322 -0.2676  0.7168 -0.1871
26014SOL    HW287011   4.804   1.140   9.268 -0.0980 -0.5847 -0.2374
26015SOL     OW87012  10.022  11.160   1.746  0.1869  0.0489  0.5178
26015SOL    HW187013  10.071  11.141   1.826  1.5475  0.2348 -0.2367
26015SOL    HW287014  10.084  11.143   1.676 -0.3526  1.7028 -0.4247
26016SOL     OW87015   5.130   1.958   9.656  0.8785 -0.0084  0.1268
26016SOL    HW187016   5.121   2.050   9.682 -0.3562  0.2879 -1.2321
26016SOL    HW287017   5.225   1.944   9.651  1.0880  1.2003  0.3057
26017SOL     OW87018   3.019   6.014  10.027 -0.5562 -0.1375  0.5561
26017SOL    HW187019   3.028   5.931  10.073 -0.8555  0.0338  0.9269
26017SOL    HW287020   3.052   6.080  10.088 -1.6879  0.1819  0.8631
26018SOL     OW87021  11.042   9.189   5.305 -0.1204  0.2974 -0.8515
26018SOL    HW187022  10.967   9.236   5.267 -0.0457  1.4843  0.4083
26018SOL    HW287023  11.115   9.249   5.297 -0.0245  0.4545  0.8111
26019SOL     OW87024  10.887   8.518  10.840  0.2073  0.2611 -0.1888
26019SOL    HW187025  10.942   8.564  10.778 -1.3177  1.1144 -0.9452
26019SOL    HW287026  10.803   8.564  10.838 -1.5585 -2.6875 -1.2651
26020SOL     OW87027   5.679   3.942   9.814 -0.3205  0.1008  0.1315
26020SOL    HW187028   5.721   3.856   9.822 -0.3714  0.0680  0.0399
26020SOL    HW287029   5.594   3.924   9.773  0.6013  0.4422 -2.0907
26021SOL     OW87030   2.209   4.443  11.747 -0.3038  0.2814  0.2552
26021SOL    HW187031   2.243   4.530  11.723 -0.1995 -0.3761 -2.3700
26021SOL    HW287032   2.118   4.445  11.719  0.1988 -1.0199 -1.6756
26022SOL     OW87033   9.375  10.286   1.554  0.3091  0.1639  0.2037
26022SOL    HW187034   9.362  10.288   1.459 -0.5228  0.6263  0.3083
26022SOL    HW287035   9.326  10.362   1.585 -1.3462 -1.2547  1.2168
26023SOL     OW87036   8.663   8.814  11.206  0.1759 -0.4227 -0.2282
26023SOL    HW187037   8.620   8.762  11.139  0.6207 -1.6666  0.4227
26023SOL    HW287038   8.756   8.792  11.197  0.5107  1.0007 -0.5595
26024SOL     OW87039   7.504   7.409   5.902 -0.1226 -0.2653  0.0154
26024SOL    HW187040   7.538   7.320   5.891  0.1149 -0.2929  0.9011
26024SOL    HW287041   7.452   7.425   5.823  1.1438 -0.5806 -0.9184
26025SOL     OW87042   9.338   4.417  11.868 -0.0535 -0.2028  0.4211
26025SOL    HW187043   9.381   4.425  11.952 -2.1060  0.3119  1.5005
26025SOL    HW287044   9.283   4.495  11.862 -1.1414 -1.0117 -0.6717
26026SOL     OW87045   2.369   7.192   6.457  0.1060  0.1207 -0.5384
26026SOL    HW187046   2.414   7.112   6.482  0.9112  1.2070  1.7553
26026SOL    HW287047   2.285   7.187   6.503  0.7336  1.1867  0.7805
26027SOL     OW87048   5.920   1.873   0.924  0.7414  0.1958 -1.0359
26027SOL    HW187049   5.878   1.787   0.924 -0.3189  0.7048 -0.3234
26027SOL    HW287050   5.888   1.916   0.845  0.1543  0.4694 -0.6508
26028SOL     OW87051   5.403  10.797  10.309 -0.1645 -0.1423 -0.2953
26028SOL    HW187052   5.464  10.729  10.338 -1.7408 -2.3261 -1.6847
26028SOL    HW287053   5.455  10.854  10.253  0.9891 -0.8524  0.0210
26029SOL     OW87054   8.567   7.298  10.774  0.7496 -0.0099 -0.5915
26029SOL    HW187055   8.521   7.283  10.691 -1.6747 -1.7634  0.9210
26029SOL    HW287056   8.575   7.393  10.779 -1.7653  0.3467 -1.5352
26030SOL     OW87057  11.013   0.034   3.881  0.1581  0.0006  0.5344
26030SOL    HW187058  10.964  -0.022   3.942 -1.2091  0.5823 -0.0072
26030SOL    HW287059  11.002   0.123   3.915 -0.2959  0.2874 -0.3522
26031SOL     OW87060   6.942   5.730  10.280  0.3143 -0.5513  0.0644
26031SOL    HW187061   6.997   5.693  10.348 -0.8175  0.2726  1.4924
26031SOL    HW287062   6.926   5.820  10.309 -1.0257 -0.5000 -0.7524
26032SOL     OW87063   2.285   5.655   1.836 -0.3557 -0.5974 -0.0163
26032SOL    HW187064   2.356   5.690   1.782 -0.5907 -1.3885 -0.8669
26032SOL    HW287065   2.206   5.696   1.801 -0.4815 -0.9172 -0.1134
26033SOL     OW87066   5.418   0.234  10.915  0.2612 -0.1692  0.1715
26033SOL    HW187067   5.324   0.221  10.908  0.2562 -0.1714  0.2383
26033SOL    HW287068   5.445   0.173  10.985  0.2937 -0.0854  0.2318
26034SOL     OW87069   6.807   2.304  12.512 -0.1188 -0.1379  0.0612
26034SOL    HW187070   6.766   2.341  12.591  1.9025 -2.2982  2.3332
26034SOL    HW287071   6.885   2.358  12.499 -0.1936 -0.0828 -0.1558
26035SOL     OW87072   0.409   9.288   7.808 -0.1491 -0.2390  0.1299
26035SOL    HW187073   0.377   9.245   7.887 -0.3880 -0.1958  0.0609
26035SOL    HW287074   0.504   9.284   7.814 -0.0845  1.7575  1.5417
26036SOL     OW87075   4.297   1.960   2.064  0.2302 -0.1529 -0.5829
26036SOL    HW187076   4.350   1.883   2.044  0.6343  0.5753 -2.4882
26036SOL    HW287077   4.361   2.027   2.089  0.0885  0.2190 -1.1900
26037SOL     OW87078   5.797   1.417   9.180  0.1125  0.4168 -0.3561
26037SOL    HW187079   5.888   1.427   9.206  0.0240  1.5076 -0.3972
26037SOL    HW287080   5.797   1.346   9.117  0.9178  0.3306 -0.2631
26038SOL     OW87081  10.315   7.982  11.026 -0.0054 -0.1711  0.4591
26038SOL    HW187082  10.368   7.907  11.055  0.4955 -0.1013 -0.2421
26038SOL    HW287083  10.260   7.946  10.957  0.5637  0.2066 -0.1982
26039SOL     OW87084  10.556   0.743   1.011  0.1854  0.4142  0.1160
26039SOL    HW187085  10.546   0.709   1.100 -0.1947  1.9679  0.6979
26039SOL    HW287086  10.621   0.686   0.971 -0.5892 -1.1239  0.9512
26040SOL     OW87087   1.975   3.438   2.491  0.5877 -0.0667  0.1181
26040SOL    HW187088   2.015   3.467   2.573 -0.9780  1.9798  0.2456
26040SOL    HW287089   1.923   3.362   2.515  0.9600 -0.1087  0.8151
26041SOL     OW87090   2.805  10.713   0.103 -0.2080  0.5770  0.0339
26041SOL    HW187091   2.758  10.636   0.072 -1.1325  1.5522 -1.0572
26041SOL    HW287092   2.743  10.758   0.160 -0.8844  2.1613 -1.8503
26042SOL     OW87093  11.599   3.583   8.816 -0.2487 -0.2716 -0.5102
26042SOL    HW187094  11.647   3.662   8.793 -0.1605 -0.2427 -0.2221
26042SOL    HW287095  11.601   3.580   8.911 -0.7044 -0.3410 -0.5017
26043SOL     OW87096   0.377  12.064   5.738  0.1361 -0.2908  0.1929
26043SOL    HW187097   0.395  12.063   5.644 -0.5716  0.0260  0.0463
26043SOL    HW287098   0.405  12.151   5.766  0.5916 -0.4802  0.3280
26044SOL     OW87099   5.437   9.814  12.478 -0.1613 -0.7161  0.2135
26044SOL    HW187100   5.496   9.838  12.549 -0.0526 -0.9194  0.1908
26044SOL    HW287101   5.370   9.882  12.479 -0.8443 -1.3807  1.3061
26045SOL     OW87102  11.365   3.168   7.838 -0.2329 -0.2123 -0.2120
26045SOL    HW187103  11.379   3.230   7.909 -0.3414 -0.6483  0.1980
26045SOL    HW287104  11.391   3.215   7.759 -1.6560  0.8426 -0.0887
26046SOL     OW87105   1.875  11.708   6.323  0.0094  0.7197  0.6859
26046SOL    HW187106   1.945  11.654   6.287  0.0992  1.5298 -0.4175
26046SOL    HW287107   1.798  11.651   6.323  0.7311 -0.3239  2.3388
26047SOL     OW87108   8.863   3.532   6.829 -0.2653  0.6870  0.0172
26047SOL    HW187109   8.774   3.496   6.833 -0.8037  2.0262  0.4654
26047SOL    HW287110   8.872   3.584   6.909  1.1755  0.0491  0.3151
26048SOL     OW87111  10.278   8.662   9.805  0.3686  0.2631 -0.1936
26048SOL    HW187112  10.230   8.716   9.868 -0.8301 -1.2180  0.2096
26048SOL    HW287113  10.362   8.707   9.794 -0.5307  2.1102  0.2281
26049SOL     OW87114   7.946   0.190   1.613 -0.0051 -0.6800 -0.0810
26049SOL    HW187115   7.866   0.242   1.621 -0.2950 -1.2782  1.1825
26049SOL    HW287116   7.915   0.102   1.591  0.1737 -1.2241  1.6781
26050SOL     OW87117   7.333   2.385   4.499 -0.6103 -0.2661 -0.0961
26050SOL    HW187118   7.253   2.397   4.551  1.9660  0.4948  4.2240
26050SOL    HW287119   7.364   2.298   4.523  0.1533 -0.3487 -1.3166
26051SOL     OW87120  10.103   1.826   6.781 -0.0750 -0.1185 -0.2922
26051SOL    HW187121  10.113   1.731   6.769 -1.7072 -0.3628 -0.0706
26051SOL    HW287122  10.010   1.842   6.763  0.3345  1.5726 -1.0638
26052SOL     OW87123   6.640   4.676   4.927  0.6827  0.1805  0.3422
26052SOL    HW187124   6.606   4.640   5.009 -0.2098  1.8793  0.7620
26052SOL    HW287125   6.562   4.707   4.881  1.4616  2.9222  0.7150
26053SOL     OW87126  11.613   4.404   8.705 -0.0238  0.0293  0.2487
26053SOL    HW187127  11.555   4.416   8.780 -2.3244 -2.2647 -1.0205
26053SOL    HW287128  11.700   4.428   8.738 -1.6413  4.3070  2.0215
26054SOL     OW87129   3.879   1.084   6.180 -0.6509 -0.1266  0.5968
26054SOL    HW187130   3.789   1.099   6.207 -0.6545 -0.8244  1.0045
26054SOL    HW287131   3.890   0.989   6.185 -0.3740 -0.2085 -0.9844
26055SOL     OW87132   5.941  12.079   4.481  0.9246  0.4085 -0.3789
26055SOL    HW187133   6.013  12.020   4.503  2.2747  1.7387 -1.0242
26055SOL    HW287134   5.978  12.137   4.414 -0.4848  1.6892 -0.0953
26056SOL     OW87135   0.901  11.803  10.648 -0.4240 -0.4813  0.4888
26056SOL    HW187136   0.902  11.753  10.730  0.4263 -1.7083 -0.2514
26056SOL    HW287137   0.986  11.847  10.646  0.9176 -2.9174 -1.1564
26057SOL     OW87138   7.420  11.703   3.489  0.0127  0.4791  0.4554
26057SOL    HW187139   7.375  11.675   3.409 -0.0107 -1.3413  1.0553
26057SOL    HW287140   7.511  11.715   3.463 -0.2079  0.9783 -0.0814
26058SOL     OW87141   7.968   6.799  11.731  0.5904 -0.0531  0.3629
26058SOL    HW187142   7.914   6.746  11.790 -1.7786  1.8137  0.0393
26058SOL    HW287143   7.949   6.889  11.757  3.4655  0.7313  0.0485
26059SOL     OW87144   4.456   6.444   4.059 -0.4655 -0.2148  0.0193
26059SOL    HW187145   4.412   6.528   4.071  0.5013  0.1435  1.1653
26059SOL    HW287146   4.524   6.462   3.994 -0.1137 -0.0516  0.4303
26060SOL     OW87147   7.588   4.801   1.972  0.4297 -0.0019  0.1419
26060SOL    HW187148   7.630   4.852   1.902  1.3828 -0.6988  0.1784
26060SOL    HW287149   7.593   4.711   1.941 -0.1953 -0.1980  0.5946
26061SOL     OW87150  10.332   4.814   6.400  0.5169 -0.4811 -0.1209
26061SOL    HW187151  10.341   4.865   6.319  1.3803  1.7352  1.2800
26061SOL    HW287152  10.245   4.776   6.395 -0.7090  2.1826 -0.7245
26062SOL     OW87153  12.014   8.757   0.880 -0.2182  0.6288 -0.2316
26062SOL    HW187154  11.979   8.804   0.956  0.7064 -0.5363  0.9653
26062SOL    HW287155  12.106   8.783   0.877 -0.3683  1.0670 -1.2935
26063SOL     OW87156  12.016   5.390   1.028  0.0316  0.3875  0.1954
26063SOL    HW187157  12.007   5.430   0.942  1.1790  2.9273  1.1581
26063SOL    HW287158  11.945   5.326   1.032  1.2307 -1.4718 -3.4172
26064SOL     OW87159   1.494   2.635   4.806  0.1416 -0.2731 -0.2587
26064SOL    HW187160   1.572   2.643   4.862 -0.2444  0.4557  0.1948
26064SOL    HW287161   1.421   2.656   4.864 -0.3701 -0.5984 -0.7710
26065SOL     OW87162   2.914   8.201   1.476  0.6582  0.1696 -0.1038
26065SOL    HW187163   2.996   8.218   1.429  0.1869  2.4385 -0.2443
26065SOL    HW287164   2.925   8.245   1.560 -0.9122  1.8209 -0.6933
26066SOL     OW87165   7.373   2.257  11.100 -0.6891 -0.1213 -0.4289
26066SOL    HW187166   7.423   2.339  11.102 -1.5181  0.3799  1.3678
26066SOL    HW287167   7.375   2.226  11.190 -2.4882 -0.7824 -0.5904
26067SOL     OW87168   4.201   4.743   7.010 -0.1191  0.2066  0.4368
26067SOL    HW187169   4.160   4.745   6.924  0.5937  1.5556  0.0976
26067SOL    HW287170   4.289   4.776   6.995  1.1595 -2.5948  1.1493
26068SOL     OW87171  12.469  11.529   0.170  0.1139  0.4354 -0.7916
26068SOL    HW187172  12.551  11.489   0.141  0.7604  1.1002  0.0486
26068SOL    HW287173  12.487  11.623   0.168 -0.7707  0.6050 -0.9771
26069SOL     OW87174   0.867  12.155   7.096 -0.2635 -0.0717 -0.8947
26069SOL    HW187175   0.782  12.182   7.128  0.8849  0.5411  1.8613
26069SOL    HW287176   0.880  12.067   7.133  1.0338  0.5931  0.3153
26070SOL     OW87177  11.800   1.958   5.397  0.2477 -0.7582  0.2007
26070SOL    HW187178  11.721   1.977   5.346  0.8788 -2.4326 -1.5327
26070SOL    HW287179  11.865   2.020   5.364  0.7195 -1.9908 -1.2727
26071SOL     OW87180   9.223   5.775   1.235  0.7106 -0.1942  0.7004
26071SOL    HW187181   9.213   5.688   1.198 -0.1417 -0.3032  1.1600
26071SOL    HW287182   9.318   5.786   1.247  0.8649 -0.7881  0.0245
26072SOL     OW87183   2.763   2.750   3.380  0.2305 -0.6318 -0.4882
26072SOL    HW187184   2.805   2.721   3.299  1.1366 -1.0757  0.1235
26072SOL    HW287185   2.830   2.737   3.447  0.0477  1.2014  0.1059
26073SOL     OW87186   4.670   8.996   0.463  0.0000  0.0604 -0.2099
26073SOL    HW187187   4.637   9.049   0.535 -0.8201  0.4858 -0.8730
26073SOL    HW287188   4.723   9.058   0.411 -1.2441  0.3424 -1.1756
26074SOL     OW87189   7.991   5.718   4.635  0.0864 -0.3101 -0.8342
26074SOL    HW187190   7.993   5.622   4.631 -2.1719 -0.3801 -1.8631
26074SOL    HW287191   8.062   5.745   4.576 -0.6681 -1.3985 -2.3299
26075SOL     OW87192   7.796   6.731   3.933  0.1225 -0.3263 -0.3938
26075SOL    HW187193   7.742   6.652   3.946 -0.0825 -0.4858 -2.0264
26075SOL    HW287194   7.767   6.766   3.849  0.1877  1.5404  0.3056
26076SOL     OW87195   2.018   7.846  11.668  0.3330 -0.0893  0.0402
26076SOL    HW187196   2.058   7.780  11.724  0.8712  0.0010 -0.2358
26076SOL    HW287197   2.081   7.918  11.666 -0.3913  0.5926  0.6169
26077SOL     OW87198   8.891   2.166   1.545 -0.0879  0.0865 -0.1638
26077SOL    HW187199   8.913   2.074   1.529  0.4447  0.1226  0.3258
26077SOL    HW287200   8.948   2.215   1.487 -0.1779  0.1156 -0.2269
26078SOL     OW87201   7.009  11.635   4.910  0.2284  0.1539 -0.0306
26078SOL    HW187202   7.031  11.706   4.971  0.6577 -1.4160  1.7532
26078SOL    HW287203   6.970  11.568   4.966 -0.4537 -0.9040 -1.7187
26079SOL     OW87204  10.174   7.707   5.562 -0.3059 -0.1828 -0.2170
26079SOL    HW187205  10.193   7.801   5.562 -4.6873  0.9262 -0.7289
26079SOL    HW287206  10.111   7.695   5.633  0.2381 -2.8526 -0.0683
26080SOL     OW87207   9.228   5.439  10.602  0.2210  0.2304 -0.0924
26080SOL    HW187208   9.314   5.399  10.605 -0.5469 -1.7517 -1.9340
26080SOL    HW287209   9.187   5.417  10.686  1.1412  0.3582  0.3927
26081SOL     OW87210   5.029  10.366  11.442 -0.3119 -1.1214 -0.1844
26081SOL    HW187211   4.966  10.354  11.513  0.2767  0.5799  0.6846
26081SOL    HW287212   5.115  10.361  11.485  0.0442  2.0326 -0.2900
26082SOL     OW87213  11.567   6.806   7.304 -0.6149 -0.4618  0.0316
26082SOL    HW187214  11.545   6.784   7.394  1.4387 -1.2017  0.4137
26082SOL    HW287215  11.483   6.829   7.263 -1.7060 -0.9902  1.8662
26083SOL     OW87216   3.200   6.240   7.710 -0.3606 -0.0709  0.3142
26083SOL    HW187217   3.218   6.190   7.790  0.2519  0.5543  0.5797
26083SOL    HW287218   3.181   6.329   7.741 -1.1551 -0.0590 -0.1720
26084SOL     OW87219   6.396   9.913   0.784  0.3719 -0.3626 -0.5347
26084SOL    HW187220   6.388   9.940   0.692  0.0135 -0.0062 -0.4004
26084SOL    HW287221   6.321   9.953   0.827 -0.1535 -1.5444 -0.3199
26085SOL     OW87222  11.859   4.623   7.722 -0.6080 -0.2140  0.5062
26085SOL    HW187223  11.837   4.707   7.682 -0.1341 -0.6824 -0.7692
26085SOL    HW287224  11.774   4.585   7.743 -0.8243  0.7859  1.5852
26086SOL     OW87225  12.072  12.429   9.398  0.1306  0.2873  0.3830
26086SOL    HW187226  12.049  12.337   9.410  1.8991 -0.3918 -0.9135
26086SOL    HW287227  12.124  12.430   9.317 -0.4949  2.5523 -0.0660
26087SOL     OW87228   9.635   6.988   7.698  0.3120 -0.1583  0.0304
26087SOL    HW187229   9.584   6.967   7.620 -0.8005 -2.7145  1.3400
26087SOL    HW287230   9.707   6.926   7.697  0.6389  0.1957  0.7372
26088SOL     OW87231  10.061   3.670   2.863  0.6076 -0.0109  0.7570
26088SOL    HW187232   9.998   3.608   2.901 -0.8280  0.7523 -0.2542
26088SOL    HW287233  10.035   3.755   2.900  0.2086  0.4975 -0.6362
26089SOL     OW87234  11.158   9.676  10.439 -0.2360 -0.5815 -0.2361
26089SOL    HW187235  11.199   9.676  10.353  0.5069 -1.7574  0.0952
26089SOL    HW287236  11.190   9.756  10.482 -1.6320  0.7104 -1.4770
26090SOL     OW87237   9.279  12.276  10.314 -0.1029  0.1457 -0.1383
26090SOL    HW187238   9.358  12.248  10.269 -1.1150 -0.4375 -1.6457
26090SOL    HW287239   9.208  12.256  10.253 -1.3999  0.8727  1.0564
26091SOL     OW87240   9.605   3.249   2.686  0.6103 -0.3288  0.1061
26091SOL    HW187241   9.692   3.249   2.646  0.1374 -1.0835 -0.9680
26091SOL    HW287242   9.604   3.328   2.740  1.7135  0.0631 -0.4107
26092SOL     OW87243  10.128   0.316   8.423  0.2911 -1.1169 -0.1855
26092SOL    HW187244  10.185   0.355   8.489  0.7819 -2.3221  0.1344
26092SOL    HW287245  10.082   0.246   8.471 -0.3341 -1.1393 -0.8072
26093SOL     OW87246   5.586   6.314   5.211  0.4409 -0.7215  0.2155
26093SOL    HW187247   5.594   6.347   5.300 -0.5214  0.6870 -0.1859
26093SOL    HW287248   5.492   6.301   5.197  0.4703  0.0660 -0.9026
26094SOL     OW87249   6.721   6.389   1.646  0.1934  0.0782  0.4861
26094SOL    HW187250   6.639   6.395   1.695  0.9758 -0.4634  1.9284
26094SOL    HW287251   6.739   6.479   1.617  0.1842  0.6042  2.0357
26095SOL     OW87252   0.963   0.916  11.657  0.0544  0.5782 -0.2439
26095SOL    HW187253   1.018   0.992  11.639 -1.0806  1.5083  0.0503
26095SOL    HW287254   1.019   0.840  11.639  1.5106  1.4745  0.3904
26096SOL     OW87255   7.710  12.582   2.970 -0.2659  0.3310 -0.0213
26096SOL    HW187256   7.761  12.511   3.009  0.1276  0.7378  0.2093
26096SOL    HW287257   7.688  12.639   3.043 -2.9591 -0.9553  0.2881
26097SOL     OW87258  12.536   6.388  12.204  0.0730  0.2250 -0.0921
26097SOL    HW187259  12.525   6.471  12.251  1.8389  1.2050 -1.2714
26097SOL    HW287260  12.447   6.356  12.191 -0.6854  2.0952  0.1454
26098SOL     OW87261   9.802   8.194  12.251 -0.1061  0.1430 -0.0871
26098SOL    HW187262   9.874   8.254  12.269  0.9362  0.0028 -3.2409
26098SOL    HW287263   9.768   8.170  12.338  0.9085  3.4122  1.3520
26099SOL     OW87264   2.427   9.984   0.635  0.2505 -1.0291 -0.3272
26099SOL    HW187265   2.466  10.036   0.565 -0.7371  0.1056 -0.0506
26099SOL    HW287266   2.480  10.005   0.713 -3.4872  4.4361  1.3332
26100SOL     OW87267   7.292   2.508  11.697 -0.6124  0.4569  0.3689
26100SOL    HW187268   7.321   2.419  11.677 -0.2192  0.1202  2.2397
26100SOL    HW287269   7.251   2.539  11.616 -0.8464 -1.4536 -0.2938
26101SOL     OW87270   0.674   8.100   7.680 -0.0391  0.0896 -0.2711
26101SOL    HW187271   0.584   8.096   7.712 -0.3291 -0.0120 -1.0660
26101SOL    HW287272   0.687   8.017   7.635 -0.0640  0.7136 -1.4634
26102SOL     OW87273   0.826   8.381  11.120 -0.1507  0.3718  0.1323
26102SOL    HW187274   0.898   8.419  11.070 -1.0656 -0.6207 -2.0471
26102SOL    HW287275   0.778   8.456  11.155  0.6053  1.0830 -0.3389
26103SOL     OW87276   3.904   1.494   3.395  0.6355 -0.1492 -0.0210
26103SOL    HW187277   3.880   1.548   3.320  0.6025 -1.6257 -1.1232
26103SOL    HW287278   3.933   1.411   3.357  0.7507 -0.9004  1.5929
26104SOL     OW87279   1.071   8.498   0.632  0.4514 -0.4579 -0.0679
26104SOL    HW187280   1.155   8.484   0.590  1.2022  1.7736  0.5662
26104SOL    HW287281   1.092   8.518   0.723 -0.8198 -0.5577  0.2739
26105SOL     OW87282  12.251   1.199  10.708 -0.7461  0.1652  0.2735
26105SOL    HW187283  12.185   1.254  10.750 -1.5378 -0.2223 -0.4234
26105SOL    HW287284  12.223   1.194  10.617 -0.1304 -0.5725  0.1147
26106SOL     OW87285   9.620   3.964   0.279 -0.7714  0.1782  0.9773
26106SOL    HW187286   9.660   3.943   0.195 -0.5843 -1.1022  1.3658
26106SOL    HW287287   9.530   3.991   0.257 -0.6721  0.0104  0.3569
26107SOL     OW87288   8.415   8.556   8.354 -0.0667  0.3110  0.2100
26107SOL    HW187289   8.495   8.606   8.334 -0.5064  0.7481 -0.4954
26107SOL    HW287290   8.348   8.594   8.297 -0.6153 -0.5181  0.2860
26108SOL     OW87291  12.364   9.665   7.406 -0.3494 -0.1615  0.9039
26108SOL    HW187292  12.458   9.677   7.398 -0.2564 -0.7606  1.0689
26108SOL    HW287293  12.330   9.752   7.429  0.0868  0.1870  0.2275
26109SOL     OW87294   0.576   8.372  12.461  0.1022  0.4588  0.1795
26109SOL    HW187295   0.522   8.304  12.501  1.5153 -0.2899  0.8538
26109SOL    HW287296   0.538   8.383  12.373 -0.7629 -0.4765  0.4125
26110SOL     OW87297  11.379   0.222   8.283 -0.4504  0.8162 -0.3486
26110SOL    HW187298  11.415   0.282   8.217  1.4405 -0.4872 -0.5631
26110SOL    HW287299  11.373   0.276   8.362 -1.1528  1.9362 -1.1180
26111SOL     OW87300   0.017   2.137   9.815  0.0478 -0.3396  0.2538
26111SOL    HW187301  -0.073   2.144   9.784  0.2082 -1.2884 -0.4719
26111SOL    HW287302   0.051   2.058   9.773  1.4507  0.3972 -0.0646
26112SOL     OW87303   4.612  11.533   9.765  0.1584  0.1613 -0.4691
26112SOL    HW187304   4.570  11.605   9.813 -2.2260 -1.1872 -0.3839
26112SOL    HW287305   4.667  11.489   9.830 -0.0683  0.5987  0.0286
26113SOL     OW87306  10.054   3.519   4.741 -0.3399  0.3541 -0.8856
26113SOL    HW187307  10.069   3.427   4.719 -1.4562  0.0820 -0.6182
26113SOL    HW287308   9.976   3.543   4.690 -0.0793  1.1507 -0.9288
26114SOL     OW87309   4.197   0.146   3.076  0.3073 -0.4543  0.0551
26114SOL    HW187310   4.190   0.118   3.168 -1.0173  0.4143  0.2479
26114SOL    HW287311   4.129   0.097   3.031 -0.8836  1.1032  0.0755
26115SOL     OW87312   1.015  12.245   2.396  0.0274  0.4372 -0.1380
26115SOL    HW187313   0.965  12.163   2.400  0.2744  0.2812 -0.2249
26115SOL    HW287314   0.948  12.313   2.381 -0.2565  0.3345  0.6208
26116SOL     OW87315   5.044   9.567   2.435 -0.6367 -0.3230  0.6798
26116SOL    HW187316   5.138   9.579   2.445 -1.0691  1.8790  3.8519
26116SOL    HW287317   5.030   9.473   2.438  1.4607 -0.6754  0.2179
26117SOL     OW87318  12.581   3.500  10.183  0.6228  0.5770  0.3924
26117SOL    HW187319  12.527   3.558  10.236 -0.9821 -1.3411  0.9578
26117SOL    HW287320  12.548   3.412  10.201  1.3714 -0.3444 -2.2366
26118SOL     OW87321   2.130   3.515   8.304  0.2850 -0.5862 -0.4062
26118SOL    HW187322   2.204   3.559   8.262 -0.8923  1.9368 -0.0300
26118SOL    HW287323   2.080   3.477   8.232  0.0317  0.8827 -1.0418
26119SOL     OW87324  12.393   6.860   5.203 -0.2012 -0.3604  0.1683
26119SOL    HW187325  12.424   6.923   5.268 -1.5268  0.0905  0.4012
26119SOL    HW287326  12.346   6.914   5.139  0.7361 -0.8431 -0.9638
26120SOL     OW87327   2.564   2.657   9.918 -0.3867  0.2072  0.1526
26120SOL    HW187328   2.491   2.595   9.926 -1.0243  1.0453  1.1422
26120SOL    HW287329   2.640   2.608   9.947 -0.6004 -0.5963 -0.6101
26121SOL     OW87330   9.031   2.683  11.696  0.5977 -0.3900 -0.0098
26121SOL    HW187331   9.085   2.724  11.763  0.2346 -0.0068  0.0538
26121SOL    HW287332   8.942   2.710  11.718  0.4788 -0.2318 -0.6613
26122SOL     OW87333   1.846   5.253   0.942  0.2075 -0.3251  0.2536
26122SOL    HW187334   1.847   5.345   0.914  0.7332 -0.3821  0.0592
26122SOL    HW287335   1.925   5.244   0.996 -0.6260 -0.3000  1.4964
26123SOL     OW87336   1.471  10.971   8.760  0.3590 -0.1809 -0.2315
26123SOL    HW187337   1.534  10.946   8.692  1.1274 -0.4169  0.5493
26123SOL    HW287338   1.515  10.948   8.842 -0.1919  0.9162  0.3800
26124SOL     OW87339   0.038   5.004   7.380 -0.2105  1.1754 -0.2166
26124SOL    HW187340   0.061   4.912   7.392 -0.0282  1.1907 -0.4477
26124SOL    HW287341  -0.041   5.002   7.326 -1.2766  1.0896  1.2914
26125SOL     OW87342   0.421   6.689   6.326  0.3217  0.5110  0.0858
26125SOL    HW187343   0.358   6.623   6.354  1.4099 -0.6945 -0.1952
26125SOL    HW287344   0.375   6.739   6.258 -0.7591  0.5182  0.8031
26126SOL     OW87345   4.484  10.126  11.005 -0.4149  0.9324 -0.4642
26126SOL    HW187346   4.524  10.126  11.092 -1.5984 -1.3975  0.1776
26126SOL    HW287347   4.390  10.135  11.021 -0.9362 -1.9354 -1.1799
26127SOL     OW87348   7.010   7.047  10.779 -0.1211 -0.2235 -0.0858
26127SOL    HW187349   7.098   7.050  10.819  0.2339 -0.4751 -0.8385
26127SOL    HW287350   6.952   7.080  10.848  0.5854  0.1204  0.3581
26128SOL     OW87351   6.264   5.974   6.638 -0.8127 -0.1109  0.0455
26128SOL    HW187352   6.182   5.949   6.596  0.2955 -1.2525 -1.5473
26128SOL    HW287353   6.307   6.031   6.575  1.0034 -2.0745 -0.6265
26129SOL     OW87354  11.928   9.520   3.199 -0.0723 -0.4269 -0.5598
26129SOL    HW187355  11.845   9.567   3.193 -0.7540 -1.1573  1.8953
26129SOL    HW287356  11.995   9.588   3.206 -0.7580  0.1904  0.0867
26130SOL     OW87357   6.118   7.314   9.712  0.1498  0.3835  0.2009
26130SOL    HW187358   6.181   7.243   9.722 -0.8636 -0.2494  3.0059
26130SOL    HW287359   6.043   7.273   9.668  0.1649  0.1122  0.4261
26131SOL     OW87360   4.185   1.198   8.226  0.0036  0.4063  0.0888
26131SOL    HW187361   4.230   1.114   8.220  1.1813  1.0271 -0.1396
26131SOL    HW287362   4.135   1.204   8.144  0.3287  0.1578 -0.1291
26132SOL     OW87363   3.532   3.811   5.273 -0.0202 -0.1230  0.0063
26132SOL    HW187364   3.468   3.877   5.300  0.9357  0.5879  0.6256
26132SOL    HW287365   3.594   3.859   5.219 -0.3871 -0.9609 -1.1991
26133SOL     OW87366   8.656   6.079   0.576  0.5268  0.3084 -0.3329
26133SOL    HW187367   8.602   6.127   0.513  1.5629  0.9141 -0.7919
26133SOL    HW287368   8.666   6.139   0.650 -1.6987 -0.8515  1.0251
26134SOL     OW87369   0.661   8.622   0.925  0.2676 -0.2396 -0.6279
26134SOL    HW187370   0.735   8.640   0.984  0.6253 -0.8728 -0.8720
26134SOL    HW287371   0.610   8.703   0.926  0.3502 -0.1775  0.4274
26135SOL     OW87372   8.673   3.426   3.818  0.1401 -0.1806  0.0238
26135SOL    HW187373   8.698   3.430   3.910 -0.8470  3.8095  0.2944
26135SOL    HW287374   8.579   3.410   3.819  0.2341 -0.8186 -0.3770
26136SOL     OW87375   5.684   0.985   6.628 -0.1964 -1.0742 -0.0613
26136SOL    HW187376   5.771   1.015   6.603 -0.0195  1.1683  2.6593
26136SOL    HW287377   5.699   0.902   6.674  0.7058 -0.2781  1.1652
26137SOL     OW87378   2.726   6.238   6.438  0.1099  0.0291  0.2712
26137SOL    HW187379   2.708   6.284   6.356 -3.0134  2.8051  2.2072
26137SOL    HW287380   2.795   6.290   6.479  1.8233 -1.4827 -0.6003
26138SOL     OW87381   3.594   9.032   1.715 -1.0905 -0.0881  0.2793
26138SOL    HW187382   3.538   8.993   1.782  0.2838 -4.2841 -0.7471
26138SOL    HW287383   3.679   9.040   1.756 -1.0472  0.6400  0.0580
26139SOL     OW87384   9.323   9.573   4.428  0.2144  0.2000 -0.1653
26139SOL    HW187385   9.374   9.636   4.378 -1.9131  2.0194 -0.2022
26139SOL    HW287386   9.282   9.518   4.361  0.8785 -0.2676 -0.1975
26140SOL     OW87387  10.593   3.726   4.335  0.4730 -0.5718 -0.4482
26140SOL    HW187388  10.688   3.719   4.324  0.7955  1.1300  0.8602
26140SOL    HW287389  10.562   3.763   4.253  1.0508 -0.4063 -0.5953
26141SOL     OW87390   6.781   1.586   5.469 -0.3546  0.3297  0.0029
26141SOL    HW187391   6.686   1.593   5.482 -0.9787 -3.3195 -1.4400
26141SOL    HW287392   6.805   1.668   5.427 -2.8708  1.3659  0.3668
26142SOL     OW87393   2.120   0.211  12.094  0.2206 -0.2353  0.4279
26142SOL    HW187394   2.083   0.222  12.006  0.2358 -1.0553  0.3071
26142SOL    HW287395   2.044   0.197  12.150  0.2067  0.3584  0.5587
26143SOL     OW87396   6.023   6.677   4.642  0.0771  0.2733  0.0041
26143SOL    HW187397   6.074   6.652   4.719 -1.1529 -2.2553  0.1300
26143SOL    HW287398   6.071   6.750   4.604  2.8830 -0.9089  0.9704
26144SOL     OW87399  10.660  10.698   6.961  0.2945  0.0920  0.3559
26144SOL    HW187400  10.713  10.766   6.919 -0.8507  0.8034  0.0032
26144SOL    HW287401  10.585  10.686   6.902 -0.2508 -0.4320  1.1345
26145SOL     OW87402   9.958   9.169   3.739 -0.2158 -0.5720  0.4553
26145SOL    HW187403   9.962   9.189   3.646  2.6301 -0.6341  0.4799
26145SOL    HW287404   9.981   9.076   3.745  0.3451 -0.3957  1.2374
26146SOL     OW87405   5.532   5.272   9.528  0.2967  0.3136  0.2973
26146SOL    HW187406   5.498   5.353   9.489  0.4663  0.2692  0.0570
26146SOL    HW287407   5.586   5.233   9.460 -0.1426 -0.2329  0.2536
26147SOL     OW87408  10.856   1.093   3.884  0.4188 -0.1095  0.5181
26147SOL    HW187409  10.936   1.094   3.832 -0.1716 -1.7943 -0.4852
26147SOL    HW287410  10.834   1.001   3.894 -2.2291  0.3123 -0.5834
26148SOL     OW87411   3.532   2.675   0.394  0.2456  0.6689 -0.3548
26148SOL    HW187412   3.575   2.731   0.458  0.0963  0.8570 -0.4192
26148SOL    HW287413   3.465   2.628   0.443  0.7545  0.1076 -0.1783
26149SOL     OW87414   7.542   5.512   6.700 -0.0961 -0.4553 -0.3395
26149SOL    HW187415   7.452   5.481   6.710  0.1909 -1.3468 -0.3990
26149SOL    HW287416   7.565   5.490   6.610 -0.2521  0.9851 -0.7572
26150SOL     OW87417   4.872   4.603  12.127 -0.3818 -0.2066 -0.2861
26150SOL    HW187418   4.793   4.629  12.174  0.7523  2.3776  0.3782
26150SOL    HW287419   4.878   4.663  12.053  1.0748 -0.1720 -0.1719
26151SOL     OW87420   7.873   3.459  11.219  0.5165  0.4263  0.0586
26151SOL    HW187421   7.842   3.426  11.135  1.0137  0.1101 -0.0065
26151SOL    HW287422   7.967   3.438  11.220  0.8485  1.8602  0.0056
26152SOL     OW87423   0.372  10.854   7.532 -0.5191  0.2708 -0.7549
26152SOL    HW187424   0.370  10.946   7.504  0.4356 -0.3329 -2.9710
26152SOL    HW287425   0.316  10.808   7.470  0.8596 -0.9760 -1.1250
26153SOL     OW87426   3.378  10.560   2.219  0.2317 -0.0915  0.0229
26153SOL    HW187427   3.353  10.600   2.303 -2.2010  1.1464 -1.1861
26153SOL    HW287428   3.295  10.538   2.177  1.3168  0.2159 -2.4732
26154SOL     OW87429   9.253   8.354   0.785 -0.0331  0.0409  0.2416
26154SOL    HW187430   9.180   8.351   0.723  0.6227  0.6574 -0.5938
26154SOL    HW287431   9.299   8.435   0.763  0.0641  0.4203  1.7411
26155SOL     OW87432   2.409   7.457   3.346 -0.0708  0.1881  0.0534
26155SOL    HW187433   2.415   7.364   3.324 -1.9729 -0.2081  0.9644
26155SOL    HW287434   2.468   7.501   3.285 -0.3431 -1.4531 -1.4556
26156SOL     OW87435   2.923   7.279  11.127  0.5787  0.2649 -0.2881
26156SOL    HW187436   2.917   7.216  11.198 -0.9289 -0.1990 -0.8095
26156SOL    HW287437   3.017   7.287  11.110  0.9459  0.1545  1.5278
26157SOL     OW87438   7.354   1.771   8.326  0.0087 -0.0775 -0.4424
26157SOL    HW187439   7.318   1.850   8.365 -0.0345  1.2481 -2.9965
26157SOL    HW287440   7.284   1.737   8.270  0.8617 -0.5139 -1.2891
26158SOL     OW87441   2.859  11.683  10.077  0.0972  0.0336 -0.0178
26158SOL    HW187442   2.832  11.709  10.165  1.7864 -0.9880  0.8658
26158SOL    HW287443   2.778  11.658  10.033 -0.8053  0.7417  1.1690
26159SOL     OW87444   3.174   9.717   6.572 -0.1124  0.1464 -0.0261
26159SOL    HW187445   3.089   9.675   6.584  0.9476 -1.7271  1.4238
26159SOL    HW287446   3.179   9.781   6.643  0.6607 -1.5431  1.5291
26160SOL     OW87447   7.864   3.228   4.469 -0.1022  0.0755  0.0073
26160SOL    HW187448   7.920   3.291   4.513  0.7619 -0.5189 -0.2170
26160SOL    HW287449   7.779   3.235   4.514  0.6172 -0.1768  1.4615
26161SOL     OW87450   4.184   3.553   0.868  0.3693  0.9669  0.5171
26161SOL    HW187451   4.182   3.505   0.951  1.1328 -0.6462 -0.3487
26161SOL    HW287452   4.092   3.575   0.851  0.0671  0.3076  1.2186
26162SOL     OW87453   5.188   5.440  10.057 -0.0511 -0.4219 -0.1341
26162SOL    HW187454   5.208   5.450   9.964 -1.3901  1.9348 -0.2698
26162SOL    HW287455   5.104   5.394  10.058 -0.9449  1.1439 -0.2308
26163SOL     OW87456  10.928   5.355   1.015 -0.1558  0.4511 -0.0355
26163SOL    HW187457  10.869   5.300   0.963  0.2763  1.2666 -1.4488
26163SOL    HW287458  10.940   5.434   0.962  1.7579  0.5418  0.4780
26164SOL     OW87459   4.049   9.084   5.134 -0.2164 -0.6194 -0.5482
26164SOL    HW187460   4.134   9.081   5.092 -0.0209 -0.4003 -0.1763
26164SOL    HW287461   3.994   9.025   5.082  0.0466 -0.4395 -1.0390
26165SOL     OW87462   5.783   1.661   5.737 -0.0198 -0.0420  0.9956
26165SOL    HW187463   5.774   1.652   5.832  1.0277  1.7811  1.3120
26165SOL    HW287464   5.832   1.742   5.725 -1.3517  0.5375 -1.1537
26166SOL     OW87465   0.573   1.147   1.728 -0.9712 -0.3851  0.2344
26166SOL    HW187466   0.615   1.170   1.811 -0.8560 -0.3195  0.1581
26166SOL    HW287467   0.600   1.057   1.711  0.7961  0.3006 -0.8258
26167SOL     OW87468   0.925   0.416  11.705  0.0887 -0.4072 -0.4124
26167SOL    HW187469   0.868   0.484  11.741 -0.6468 -1.1810 -0.0791
26167SOL    HW287470   0.929   0.349  11.774  0.8600 -0.6722 -0.6993
26168SOL     OW87471   1.909   3.515   4.776 -0.1144 -0.0525 -0.0608
26168SOL    HW187472   1.904   3.603   4.740  2.5753 -0.5513 -1.9460
26168SOL    HW287473   1.978   3.520   4.842 -1.0832 -0.4093  0.9966
26169SOL     OW87474   8.828  12.373   2.320  0.2428 -0.3840 -0.2787
26169SOL    HW187475   8.878  12.382   2.239 -0.4591  1.0585 -0.5879
26169SOL    HW287476   8.740  12.403   2.298 -0.1140 -0.5434  0.8575
26170SOL     OW87477   9.149   8.148   9.848  0.2705  1.0005  0.1781
26170SOL    HW187478   9.206   8.178   9.918  0.4074 -0.1536  0.5970
26170SOL    HW287479   9.206   8.137   9.772  0.3594  1.0935  0.2326
26171SOL     OW87480   9.333   8.617   0.685  0.3351 -0.2031 -0.6124
26171SOL    HW187481   9.288   8.691   0.727  0.5080 -0.6516  0.3817
26171SOL    HW287482   9.327   8.636   0.591  1.5409  1.7644 -0.3555
26172SOL     OW87483   6.020   5.793  10.672 -0.3511 -0.1245 -0.3562
26172SOL    HW187484   6.090   5.786  10.608  0.3281 -0.2924  0.3983
26172SOL    HW287485   6.046   5.866  10.729 -0.5605 -0.4789  0.1974
26173SOL     OW87486   6.395   4.379   4.145  0.1718 -0.5122 -0.2255
26173SOL    HW187487   6.345   4.341   4.217 -0.2456 -0.1750 -0.3326
26173SOL    HW287488   6.470   4.321   4.135 -1.3522 -2.3642 -1.5796
26174SOL     OW87489   2.586  12.402  12.406  0.2938 -0.1015  0.1895
26174SOL    HW187490   2.595  12.414  12.500  1.1082  2.3108 -0.1184
26174SOL    HW287491   2.595  12.490  12.369 -0.2740 -0.9263 -2.1358
26175SOL     OW87492   0.599   3.439  12.120  0.5464 -0.3571  0.0092
26175SOL    HW187493   0.566   3.499  12.186  1.1231 -1.0352  0.9314
26175SOL    HW287494   0.541   3.451  12.045  0.7613  1.4761  0.1037
26176SOL     OW87495   7.747  11.616   2.539  0.3154  0.1481  0.4629
26176SOL    HW187496   7.683  11.546   2.535 -0.1001  0.5627 -0.3609
26176SOL    HW287497   7.705  11.684   2.592 -0.6071  1.0700 -1.3693
26177SOL     OW87498  12.199   6.997   3.033 -0.4201  0.3700  0.1865
26177SOL    HW187499  12.177   6.912   2.994  0.1087  0.3707 -0.1179
26177SOL    HW287500  12.117   7.047   3.028 -0.5142  0.1684 -0.4002
26178SOL     OW87501   0.574   4.836   7.867  0.1369  0.0728  0.0165
26178SOL    HW187502   0.600   4.918   7.824  0.2638  0.3910  0.6734
26178SOL    HW287503   0.655   4.805   7.909 -0.2525  0.4210  1.0464
26179SOL     OW87504   7.537   9.686   5.369  0.6296  0.6739  0.2696
26179SOL    HW187505   7.589   9.766   5.355  0.9546  0.9210  2.4085
26179SOL    HW287506   7.513   9.657   5.282  1.9451  2.1765 -0.6570
26180SOL     OW87507   1.721   6.521   0.141  0.0192 -0.4710  0.3298
26180SOL    HW187508   1.765   6.577   0.076  1.9490 -3.1913 -0.8684
26180SOL    HW287509   1.709   6.437   0.097 -0.1092 -1.9439  2.9618
26181SOL     OW87510   8.791   9.907   7.867  0.1645  0.0680  0.2705
26181SOL    HW187511   8.799   9.855   7.947  1.2596 -1.0108 -0.5047
26181SOL    HW287512   8.869   9.885   7.815 -0.0090  1.4910 -0.6738
26182SOL     OW87513   2.660   5.595  12.372  0.5385 -0.2816  0.6666
26182SOL    HW187514   2.660   5.501  12.388 -1.2246 -0.0000  2.9060
26182SOL    HW287515   2.600   5.607  12.298 -0.0589 -0.8638  1.0432
26183SOL     OW87516   7.285   5.491   4.919  0.0897  0.1631  0.4019
26183SOL    HW187517   7.306   5.399   4.933 -0.0161 -0.1285 -1.1621
26183SOL    HW287518   7.357   5.539   4.962  0.5224 -0.6579  0.6091
26184SOL     OW87519  10.545   1.135   4.292 -0.3491 -0.8518  0.5269
26184SOL    HW187520  10.502   1.117   4.208  0.7298 -1.6395  0.1211
26184SOL    HW287521  10.584   1.052   4.317  0.0644 -0.4060  1.3869
26185SOL     OW87522   1.228   3.994   8.750 -0.0550 -0.6981  0.1512
26185SOL    HW187523   1.273   4.034   8.825  2.1516  1.0151 -1.9339
26185SOL    HW287524   1.139   4.027   8.756  0.3952  0.4049  1.3757
26186SOL     OW87525   9.894   3.249   9.927  0.4094  0.6082 -0.1324
26186SOL    HW187526   9.900   3.332   9.879  2.2836  1.2529  1.1215
26186SOL    HW287527   9.968   3.198   9.894  1.4033  0.8595  1.6227
26187SOL     OW87528   4.933   1.531   6.541 -0.0847 -0.2003 -0.2275
26187SOL    HW187529   4.959   1.622   6.524 -0.7377 -0.0979 -0.6815
26187SOL    HW287530   5.007   1.495   6.591  0.2109  0.5562 -0.0955
26188SOL     OW87531   3.466   0.534   5.918  0.3940  0.4140  0.5603
26188SOL    HW187532   3.494   0.607   5.863  0.5603 -1.0856 -1.4399
26188SOL    HW287533   3.466   0.458   5.860 -1.1118 -0.9487  2.2228
26189SOL     OW87534  10.767  12.316  10.042  0.1216 -0.0450  0.5263
26189SOL    HW187535  10.853  12.349  10.068 -0.1042  0.2692  0.8794
26189SOL    HW287536  10.770  12.315   9.946  1.4537 -2.5232  0.5047
26190SOL     OW87537  10.446   3.775   8.257 -0.1961 -0.2391  0.0935
26190SOL    HW187538  10.445   3.831   8.179  2.1060  1.2405  1.0165
26190SOL    HW287539  10.392   3.700   8.234 -2.7300  1.9306 -1.5348
26191SOL     OW87540   3.332  10.550  10.464  0.0406  0.1948  0.7024
26191SOL    HW187541   3.257  10.507  10.423  1.7587  0.3401 -2.9885
26191SOL    HW287542   3.409  10.505  10.427  1.8534  1.1205  3.0581
26192SOL     OW87543   0.658  12.560   7.882  0.3191 -0.5244 -0.0285
26192SOL    HW187544   0.583  12.618   7.898 -2.1874 -3.1701 -1.0951
26192SOL    HW287545   0.672  12.516   7.966 -0.6936 -1.3784 -0.2730
26193SOL     OW87546   2.661   7.845   7.238 -0.0818 -0.1946  0.6312
26193SOL    HW187547   2.610   7.806   7.309  0.5966 -1.0789  0.6507
26193SOL    HW287548   2.684   7.771   7.182 -0.8757  0.5279 -0.7026
26194SOL     OW87549   6.033  11.568  12.311 -0.0885 -0.0575  0.1692
26194SOL    HW187550   6.086  11.642  12.339  0.1350 -0.2789  0.3401
26194SOL    HW287551   6.011  11.522  12.393  0.4467 -0.6288 -0.0001
26195SOL     OW87552   7.555   4.522   3.081  0.0654  0.0674 -0.0516
26195SOL    HW187553   7.518   4.540   2.994  0.2133 -1.0981 -0.3663
26195SOL    HW287554   7.479   4.506   3.136  0.0057 -0.0399 -0.1650
26196SOL     OW87555  12.412   3.661   7.160 -0.5060 -0.5253  0.5145
26196SOL    HW187556  12.334   3.636   7.208 -0.1156 -1.4100  0.7081
26196SOL    HW287557  12.390   3.645   7.068 -0.5024 -0.9106  0.5806
26197SOL     OW87558   5.397   0.850  11.496 -0.1986  0.0451  0.8590
26197SOL    HW187559   5.404   0.886  11.408 -0.0171 -2.2278 -0.1449
26197SOL    HW287560   5.378   0.925  11.552 -1.7172  1.3792 -1.3015
26198SOL     OW87561   7.601   7.980   6.183 -0.0192  0.5477 -0.7633
26198SOL    HW187562   7.564   7.964   6.095  1.7692  0.6035 -1.5614
26198SOL    HW287563   7.687   7.938   6.181 -0.0680  0.2811  1.0945
26199SOL     OW87564   9.951   9.385   9.067 -0.6517 -0.0445 -0.4997
26199SOL    HW187565   9.858   9.391   9.043 -0.6593  0.6943 -0.3064
26199SOL    HW287566   9.996   9.438   9.002 -0.0758 -2.3237 -2.0551
26200SOL     OW87567   1.711   3.411   9.378  0.6137  0.3234 -0.4763
26200SOL    HW187568   1.660   3.406   9.459 -0.4232 -0.8353 -1.1799
26200SOL    HW287569   1.659   3.467   9.320 -0.9559 -2.4220 -1.9009
26201SOL     OW87570   8.809   2.404   4.063  0.0743  0.4883  0.1659
26201SOL    HW187571   8.763   2.431   3.984  1.7009 -0.6017 -1.2289
26201SOL    HW287572   8.785   2.312   4.075  0.9158  0.2531  0.1157
26202SOL     OW87573   6.761   0.015  11.648 -0.8546 -0.3168  0.5885
26202SOL    HW187574   6.705   0.028  11.726  0.3129 -0.3663  1.4596
26202SOL    HW287575   6.806   0.099  11.637 -0.9057 -0.3617  0.0453
26203SOL     OW87576   4.741   9.987  12.359  0.3379 -0.4150 -0.0430
26203SOL    HW187577   4.825  10.032  12.368 -0.3872  0.8052  0.9603
26203SOL    HW287578   4.745   9.915  12.422  0.0121  0.6800  1.2864
26204SOL     OW87579   1.757   1.835   3.494  0.0666 -0.5802 -0.8787
26204SOL    HW187580   1.708   1.868   3.569  2.1649  0.2814  0.1861
26204SOL    HW287581   1.752   1.905   3.429  1.1992  0.1933 -0.1498
26205SOL     OW87582  10.120   4.283   1.480 -0.4269  0.5371  0.0919
26205SOL    HW187583  10.175   4.211   1.509  0.0038  0.5638 -0.6538
26205SOL    HW287584  10.162   4.361   1.517 -0.4257  0.4875  0.1968
26206SOL     OW87585   4.354   6.305   7.949 -0.1495 -0.6620 -0.0677
26206SOL    HW187586   4.355   6.229   7.890  2.0656 -1.2013  0.5902
26206SOL    HW287587   4.427   6.291   8.009 -0.1065  1.6543  0.5373
26207SOL     OW87588  11.611   6.015   5.630  0.2973 -0.6556  0.0606
26207SOL    HW187589  11.539   6.072   5.658 -0.0510 -1.1167  0.1263
26207SOL    HW287590  11.642   5.974   5.710 -0.9586 -2.2757 -0.2175
26208SOL     OW87591  10.424   0.249   2.642  0.3531 -0.3619  0.2077
26208SOL    HW187592  10.423   0.333   2.596 -1.3437 -0.8849 -0.8240
26208SOL    HW287593  10.392   0.187   2.577  0.5916 -1.6390  1.2732
26209SOL     OW87594   4.765  12.490  10.524 -0.6888 -0.0202  0.2909
26209SOL    HW187595   4.723  12.426  10.466  1.7566  0.0274 -1.7142
26209SOL    HW287596   4.746  12.575  10.484  2.1832 -0.0719 -1.4295
26210SOL     OW87597   6.476   8.582   2.067 -0.2395 -0.0527 -0.2391
26210SOL    HW187598   6.381   8.581   2.078 -0.1636  1.4968  0.8763
26210SOL    HW287599   6.507   8.510   2.122 -0.7363 -0.1492 -0.0772
26211SOL     OW87600   0.093   1.796   5.835  0.4641  0.2438 -0.0440
26211SOL    HW187601   0.187   1.792   5.850  0.3654  1.6083  1.3012
26211SOL    HW287602   0.061   1.709   5.858  1.4320 -0.3607 -0.9209
26212SOL     OW87603   0.746   6.546  12.263 -0.1174  0.2084  0.0596
26212SOL    HW187604   0.696   6.525  12.184  0.6109 -1.1994 -0.0560
26212SOL    HW287605   0.832   6.572  12.229  0.5678 -1.5166  0.4124
26213SOL     OW87606  10.635   9.334   1.065  0.6819 -0.5621 -0.0824
26213SOL    HW187607  10.671   9.246   1.051 -0.3561 -0.9647 -0.3393
26213SOL    HW287608  10.681   9.367   1.141  1.2388 -1.2530 -0.1083
26214SOL     OW87609   9.620   3.866   3.886  0.5485  0.6303  0.1564
26214SOL    HW187610   9.564   3.791   3.866 -1.6479  2.1835  0.1517
26214SOL    HW287611   9.687   3.865   3.818 -0.8017 -0.0186 -1.2109
26215SOL     OW87612  11.898   7.421   2.833 -0.1924 -0.1478  0.3800
26215SOL    HW187613  11.973   7.401   2.890 -0.1035 -1.5018 -0.1873
26215SOL    HW287614  11.830   7.360   2.860  0.2205 -1.6329 -1.6608
26216SOL     OW87615   6.303  11.243   8.563  0.0374  0.4186 -0.5106
26216SOL    HW187616   6.398  11.238   8.555  0.2519  3.4342 -0.8321
26216SOL    HW287617   6.271  11.212   8.478  0.6620 -0.8903 -0.3008
26217SOL     OW87618   5.170   6.313  12.092 -0.2096 -0.7560 -0.0080
26217SOL    HW187619   5.089   6.314  12.041 -0.8253  3.5105  0.6686
26217SOL    HW287620   5.141   6.313  12.183  0.4891  0.7028  0.2414
26218SOL     OW87621   8.332   8.461   0.402  0.3449 -0.0578 -0.1008
26218SOL    HW187622   8.352   8.460   0.496  0.2461  2.5195  0.0171
26218SOL    HW287623   8.403   8.411   0.362 -0.5259 -2.7599  1.4067
26219SOL     OW87624   6.055   2.047  11.953  0.2402 -0.4146 -0.3814
26219SOL    HW187625   5.974   2.059  12.003 -0.2326  0.0266 -1.2221
26219SOL    HW287626   6.045   1.962  11.911 -0.3250  0.1322 -1.4055
26220SOL     OW87627   4.247   3.334   6.260  0.0831 -0.1535  0.6149
26220SOL    HW187628   4.283   3.340   6.348 -0.8138 -0.3795  1.0162
26220SOL    HW287629   4.317   3.363   6.202 -0.3819  3.2900  1.5988
26221SOL     OW87630   7.151   9.098   2.308 -0.5862  0.2893 -0.7490
26221SOL    HW187631   7.111   9.017   2.277 -2.2177  0.5136  0.6222
26221SOL    HW287632   7.213   9.071   2.375 -0.7753  0.1331 -0.6362
26222SOL     OW87633   3.834   2.195   4.687 -0.3286 -0.7077  0.0016
26222SOL    HW187634   3.738   2.191   4.680 -0.3943  0.1643  0.2083
26222SOL    HW287635   3.862   2.104   4.697 -1.1027 -1.0112 -0.4802
26223SOL     OW87636  11.567  11.630   5.399 -0.2493 -0.1135 -0.3101
26223SOL    HW187637  11.543  11.707   5.450 -1.5122  1.1758 -2.6671
26223SOL    HW287638  11.500  11.565   5.419 -0.8744  0.4630 -0.5059
26224SOL     OW87639   8.156  11.223   0.107  0.4341  0.3020 -0.6670
26224SOL    HW187640   8.121  11.276   0.036 -0.7528 -0.1956 -0.4726
26224SOL    HW287641   8.145  11.132   0.077 -0.1219  0.0863  0.1512
26225SOL     OW87642   6.149   3.939   3.270  0.1604  0.2034 -0.7284
26225SOL    HW187643   6.131   3.927   3.177  1.0569  1.0295 -1.0253
26225SOL    HW287644   6.076   3.895   3.314 -1.1557  1.1835 -1.8251
26226SOL     OW87645  11.560   6.184   4.300 -0.0596 -0.2939 -0.3881
26226SOL    HW187646  11.565   6.111   4.238  0.7584 -0.3643 -0.2402
26226SOL    HW287647  11.568   6.143   4.386  1.1623  0.0428 -0.3331
26227SOL     OW87648  10.612   3.242  11.361 -0.9986  0.0611 -0.2974
26227SOL    HW187649  10.590   3.169  11.303  1.7339 -1.2474  0.1290
26227SOL    HW287650  10.553   3.233  11.435 -1.1282 -1.3731 -0.5385
26228SOL     OW87651   9.516   4.147   3.284 -0.7028 -0.1612 -0.3983
26228SOL    HW187652   9.456   4.100   3.342 -0.3466 -0.3597 -0.1838
26228SOL    HW287653   9.516   4.096   3.203 -1.1391  0.0707 -0.5451
26229SOL     OW87654   6.659   1.948   1.132  0.4917  0.2977 -0.2341
26229SOL    HW187655   6.568   1.938   1.158  0.9831 -0.7799  1.2347
26229SOL    HW287656   6.704   1.979   1.211  1.3563  1.0491 -0.9972
26230SOL     OW87657  12.074  10.702   8.709  0.0562 -0.2057  0.1002
26230SOL    HW187658  12.046  10.647   8.782  1.2107 -0.7503  0.1586
26230SOL    HW287659  12.164  10.727   8.731 -0.3128  1.4019 -0.1165
26231SOL     OW87660   8.970   9.875   3.706 -0.3400 -0.3598  0.0860
26231SOL    HW187661   9.005   9.909   3.789 -0.9269 -0.2091  0.2740
26231SOL    HW287662   8.904   9.939   3.680 -1.1046 -1.0879  0.1910
26232SOL     OW87663   0.207  10.615   8.881 -0.3171 -0.0415  0.0164
26232SOL    HW187664   0.248  10.593   8.797  0.2524  1.0045 -0.0014
26232SOL    HW287665   0.118  10.581   8.874 -0.1149 -0.4374 -0.8008
26233SOL     OW87666  10.821   4.185  11.791 -0.2186 -0.5518  0.3843
26233SOL    HW187667  10.846   4.232  11.870 -1.0146  0.9929 -0.2327
26233SOL    HW287668  10.802   4.254  11.727  2.3749 -1.7263 -1.8429
26234SOL     OW87669   1.822   8.389  10.038 -0.4510 -0.1117  0.0278
26234SOL    HW187670   1.891   8.323  10.047 -0.5218 -0.2793 -0.5740
26234SOL    HW287671   1.740   8.340  10.047 -0.6175 -0.7002 -3.2333
26235SOL     OW87672   6.088   3.716   1.597 -0.2739 -0.3208 -0.1780
26235SOL    HW187673   6.089   3.656   1.523  1.6385 -0.3406 -0.1809
26235SOL    HW287674   6.081   3.659   1.674 -0.7432 -0.3839 -0.2606
26236SOL     OW87675  12.095  10.810   5.850 -0.0366  0.3357 -0.3047
26236SOL    HW187676  12.049  10.890   5.826  0.3912  1.2663  1.7154
26236SOL    HW287677  12.032  10.740   5.832 -0.8071  1.2094 -1.1305
26237SOL     OW87678  12.290  12.251   4.320 -0.2096  0.4266  0.4067
26237SOL    HW187679  12.220  12.303   4.357  0.3656  0.5100  1.4234
26237SOL    HW287680  12.250  12.165   4.304 -0.6670  0.6183  0.5070
26238SOL     OW87681   3.468   2.070   4.102 -0.0778 -0.2725 -0.3502
26238SOL    HW187682   3.483   2.017   4.024  0.3293  1.3103 -1.3841
26238SOL    HW287683   3.395   2.127   4.079 -1.7081 -1.5172  1.3715
26239SOL     OW87684   7.653   8.763   1.174 -0.3365  0.1133 -0.3649
26239SOL    HW187685   7.565   8.786   1.144 -1.1067 -1.7663  0.3047
26239SOL    HW287686   7.701   8.743   1.094 -1.6815 -2.5415 -0.6129
26240SOL     OW87687   4.521   0.172   3.238  0.3444 -0.3626  0.0461
26240SOL    HW187688   4.594   0.228   3.211 -0.1875 -0.6123 -2.0516
26240SOL    HW287689   4.516   0.105   3.171 -0.1584 -1.9441  1.5810
26241SOL     OW87690   0.041   5.347   0.584 -0.2804 -0.2754 -0.2221
26241SOL    HW187691   0.023   5.323   0.675  1.0277  0.2929  0.1979
26241SOL    HW287692   0.109   5.414   0.589 -1.3084  0.9378 -1.5549
26242SOL     OW87693  11.633   2.684   3.359 -0.3501 -0.0318 -0.1828
26242SOL    HW187694  11.557   2.709   3.306  1.6651  3.0327 -1.9500
26242SOL    HW287695  11.638   2.750   3.427  2.0209  1.3865 -1.5938
26243SOL     OW87696  11.739   2.161   4.071 -0.3731 -0.0012 -0.5121
26243SOL    HW187697  11.708   2.160   3.980  0.3794 -0.9526 -0.7721
26243SOL    HW287698  11.830   2.133   4.066 -0.3406 -0.1238  0.5473
26244SOL     OW87699   1.047   8.692   8.682  0.6093 -0.1857  0.0020
26244SOL    HW187700   1.091   8.749   8.746  0.0429 -1.1924  1.3500
26244SOL    HW287701   0.994   8.751   8.630  2.5298  0.8988 -0.8143
26245SOL     OW87702   2.435   2.342  11.065  0.2427 -0.2331  0.0340
26245SOL    HW187703   2.515   2.296  11.039  0.0860 -0.0838 -0.7584
26245SOL    HW287704   2.379   2.339  10.987  0.7080  2.3408 -0.5065
26246SOL     OW87705   7.652   0.321   4.242 -0.4411  0.0208  0.0094
26246SOL    HW187706   7.590   0.352   4.308  0.1308 -0.0159  0.5759
26246SOL    HW287707   7.619   0.234   4.219  0.0844 -0.5316  1.2374
26247SOL     OW87708   6.217   2.739   5.100 -0.0281 -0.5193  0.0711
26247SOL    HW187709   6.133   2.773   5.129  0.0456 -0.7154  0.5163
26247SOL    HW287710   6.205   2.724   5.006 -0.7539 -1.3043  0.2747
26248SOL     OW87711   5.571   7.281   4.011  0.0932  0.2352 -0.2270
26248SOL    HW187712   5.606   7.355   3.962 -0.1171  0.8753  0.5499
26248SOL    HW287713   5.526   7.322   4.086 -0.9075 -0.6249 -0.3305
26249SOL     OW87714  10.392  10.999   8.786 -0.8032 -0.0432  0.6412
26249SOL    HW187715  10.322  11.049   8.744 -1.3572 -1.8311 -0.7135
26249SOL    HW287716  10.433  11.061   8.846 -2.0529  1.7224 -0.2248
26250SOL     OW87717   9.199   8.010   6.303 -0.6658 -0.8816  0.0888
26250SOL    HW187718   9.268   8.032   6.366 -1.3622  0.3707  0.4524
26250SOL    HW287719   9.243   7.956   6.238  1.2677  1.7221 -0.9568
26251SOL     OW87720   8.918  10.340  11.334  0.4187 -0.2725 -0.2915
26251SOL    HW187721   8.965  10.316  11.255 -1.6023 -0.0308 -1.6354
26251SOL    HW287722   8.827  10.316  11.317 -0.5513  2.1410  0.9210
26252SOL     OW87723   8.307   8.307  11.963 -0.0106 -0.1517  0.2164
26252SOL    HW187724   8.382   8.249  11.977  2.6967  2.8027 -1.0044
26252SOL    HW287725   8.302   8.360  12.043  1.8644  2.3120 -1.1774
26253SOL     OW87726  10.322  11.959   8.641  0.6013  0.6327  0.1285
26253SOL    HW187727  10.285  12.043   8.617  1.6721  0.8230 -0.9698
26253SOL    HW287728  10.413  11.963   8.611  0.6680 -0.9168  0.0240
26254SOL     OW87729   6.590   8.043   0.896  0.6612  0.4364 -0.0316
26254SOL    HW187730   6.513   7.986   0.894  1.9102 -1.3475 -0.3498
26254SOL    HW287731   6.563   8.118   0.948 -0.3954 -1.5437  2.4942
26255SOL     OW87732   1.479   8.810   6.272  0.6331 -0.1946 -0.1869
26255SOL    HW187733   1.436   8.802   6.187 -1.8624  0.2066  0.9311
26255SOL    HW287734   1.474   8.903   6.293  3.6635  0.1608 -0.6991
26256SOL     OW87735  11.694   7.838   9.416  0.2681  0.1693  0.1316
26256SOL    HW187736  11.732   7.896   9.482  2.4514 -2.1391  1.0572
26256SOL    HW287737  11.767   7.815   9.358 -1.0678  0.2015 -1.6524
26257SOL     OW87738   2.561   5.988   6.546 -0.2179 -0.4962 -0.0473
26257SOL    HW187739   2.542   6.006   6.638  1.1661  2.4471 -0.2357
26257SOL    HW287740   2.511   6.053   6.497  1.7493  0.3224 -1.1058
26258SOL     OW87741   7.909  12.464   2.675 -0.7167  0.0269 -0.7982
26258SOL    HW187742   7.867  12.405   2.738 -1.4825  0.2431 -1.0992
26258SOL    HW287743   7.885  12.429   2.589  1.5644 -1.1774 -1.0436
26259SOL     OW87744   8.842   7.506   9.244  0.3218 -0.7777  0.2633
26259SOL    HW187745   8.831   7.411   9.240  2.4746 -1.0173 -2.0246
26259SOL    HW287746   8.894   7.521   9.324  0.5199 -1.5832  0.2914
26260SOL     OW87747   9.287   4.756   0.200  0.6426 -0.1019 -0.2799
26260SOL    HW187748   9.242   4.715   0.274 -1.7345 -0.1512 -1.6486
26260SOL    HW287749   9.310   4.844   0.232  2.1907 -1.0498  1.3641
26261SOL     OW87750  10.418   8.207   6.882  0.5481  0.0021  0.5465
26261SOL    HW187751  10.488   8.187   6.944  0.4158 -1.7426  0.1615
26261SOL    HW287752  10.430   8.145   6.810 -2.4906 -1.7358  1.3512
26262SOL     OW87753   9.641   6.699   7.503 -0.3593 -0.0201  0.0197
26262SOL    HW187754   9.586   6.714   7.581 -1.6592 -2.3263 -0.3790
26262SOL    HW287755   9.698   6.627   7.527  0.9904  0.8935 -0.3569
26263SOL     OW87756   8.047   1.370   8.523  0.7016  0.3651  0.9560
26263SOL    HW187757   8.022   1.462   8.515 -0.9183  0.0302  1.7030
26263SOL    HW287758   8.032   1.333   8.436  1.7601  0.8888  0.5455
26264SOL     OW87759   6.441   6.402  11.159  0.1214  0.1012  0.3348
26264SOL    HW187760   6.493   6.324  11.178  1.6211  1.4050  2.1512
26264SOL    HW287761   6.431   6.445  11.245 -0.7042  1.8387 -0.5705
26265SOL     OW87762   8.910   7.284  12.179 -0.1437  0.4758 -0.3235
26265SOL    HW187763   8.850   7.307  12.108  0.1771 -0.4389 -0.9162
26265SOL    HW287764   8.996   7.283  12.138  0.2101  1.1479  0.3743
26266SOL     OW87765   4.282  10.464  11.224  0.1537 -0.1957  0.2712
26266SOL    HW187766   4.378  10.464  11.230  0.2181  0.2449 -0.6348
26266SOL    HW287767   4.253  10.494  11.310  0.8777  1.3009  0.0356
26267SOL     OW87768   4.230  11.813  12.566  0.4847 -0.3742 -0.1658
26267SOL    HW187769   4.205  11.882  12.628 -1.0197 -1.4613  0.4714
26267SOL    HW287770   4.168  11.821  12.494  0.2346 -1.1217 -0.0424
26268SOL     OW87771  12.460   0.348   3.151 -0.1417 -0.6422  0.0184
26268SOL    HW187772  12.480   0.365   3.059  2.0751  1.0850  0.7432
26268SOL    HW287773  12.367   0.326   3.151 -0.3073 -0.2986 -2.5642
26269SOL     OW87774   4.131   0.908   4.626 -0.1400 -0.1841  0.0325
26269SOL    HW187775   4.051   0.924   4.676 -0.9321 -1.9136 -0.5873
26269SOL    HW287776   4.191   0.869   4.689  0.3149  1.2707  0.5399
26270SOL     OW87777  11.951   6.065  12.574  0.0024 -0.7894  0.5849
26270SOL    HW187778  11.878   6.118  12.542  0.2054  0.7615  2.4481
26270SOL    HW287779  11.988   6.025  12.496 -0.3113  1.6801 -0.9470
26271SOL     OW87780   0.621   3.098   0.563 -0.2141  0.2376  0.3320
26271SOL    HW187781   0.667   3.078   0.482  0.2955 -0.4402  0.7748
26271SOL    HW287782   0.579   3.016   0.588  0.7401  0.0563  1.4452
26272SOL     OW87783  12.544  10.807   4.777 -0.0058  0.1141 -0.2743
26272SOL    HW187784  12.476  10.874   4.768  2.1930  2.6192  0.4307
26272SOL    HW287785  12.602  10.840   4.846  1.4635 -2.3191 -0.2123
26273SOL     OW87786   0.919   8.420   6.035 -0.1771 -0.4166 -0.1669
26273SOL    HW187787   0.953   8.377   5.956 -1.1149  0.3757 -1.0253
26273SOL    HW287788   0.961   8.373   6.107  1.2311 -0.7144 -1.1385
26274SOL     OW87789  12.318   1.144   7.151 -0.1944  1.1602 -0.0627
26274SOL    HW187790  12.275   1.207   7.208  1.9170  1.1803  1.6702
26274SOL    HW287791  12.412   1.161   7.162  0.4030 -1.0589 -0.9647
26275SOL     OW87792  11.099   1.802   6.956  0.8274  0.3312  0.3571
26275SOL    HW187793  11.050   1.851   6.890 -1.1385 -0.6100  1.0625
26275SOL    HW287794  11.126   1.867   7.020 -0.1313  0.7729  0.3189
26276SOL     OW87795  10.611   2.395   6.456 -0.5285  0.3595  0.5724
26276SOL    HW187796  10.619   2.487   6.433 -1.5075  0.4118  0.3996
26276SOL    HW287797  10.625   2.392   6.551  0.3702  0.5564  0.4570
26277SOL     OW87798   6.335   5.585   3.545  0.0183  0.5833 -0.1462
26277SOL    HW187799   6.396   5.518   3.577 -0.3680  0.7980  1.1138
26277SOL    HW287800   6.268   5.536   3.497 -0.5397 -0.0161  1.1890
26278SOL     OW87801   3.211  12.256   7.533 -0.1252  0.3011 -0.2586
26278SOL    HW187802   3.135  12.221   7.580 -1.0206  0.3663 -1.6049
26278SOL    HW287803   3.249  12.319   7.594 -1.1602  0.2706  0.4528
26279SOL     OW87804   8.956   3.389  10.860  0.0020 -0.1102  0.2277
26279SOL    HW187805   8.977   3.309  10.908 -0.7593 -0.0869  0.6239
26279SOL    HW287806   9.024   3.397  10.793  0.7323 -0.4699  0.9194
26280SOL     OW87807   0.558   6.341   9.858  0.0146  0.1415  0.2528
26280SOL    HW187808   0.605   6.396   9.795 -0.5140 -0.1811 -0.4289
26280SOL    HW287809   0.466   6.368   9.850  0.1468  1.5360  2.3323
26281SOL     OW87810   9.771   7.769   1.191 -0.3889 -0.9194 -0.1494
26281SOL    HW187811   9.864   7.773   1.166 -0.6800  1.7906 -1.0704
26281SOL    HW287812   9.773   7.766   1.287  0.6777  0.0067 -0.1189
26282SOL     OW87813   4.473  12.581   3.669 -0.3326  0.0584  0.5899
26282SOL    HW187814   4.421  12.519   3.721 -0.5560  1.0262  1.5397
26282SOL    HW287815   4.555  12.534   3.653 -0.6193 -0.6175  1.0077
26283SOL     OW87816  11.582   5.636   5.430 -0.3119 -0.1819  0.3003
26283SOL    HW187817  11.660   5.591   5.460 -1.2838 -1.4194  1.0547
26283SOL    HW287818  11.583   5.625   5.335 -0.6872 -2.1512  0.4796
26284SOL     OW87819   4.313   7.356   3.814 -1.0029 -0.3873 -0.6495
26284SOL    HW187820   4.309   7.429   3.752  0.3279 -0.5738 -0.9884
26284SOL    HW287821   4.406   7.341   3.828 -1.2628 -0.1439  1.6792
26285SOL     OW87822   2.313   8.428  11.973 -0.0514 -0.5534 -0.1783
26285SOL    HW187823   2.333   8.438  12.066  0.0051 -1.0893 -0.1285
26285SOL    HW287824   2.238   8.368  11.972 -0.1402 -0.4339 -0.4697
26286SOL     OW87825   8.955   7.386   1.192 -0.1511  0.0786  0.0120
26286SOL    HW187826   9.004   7.304   1.191  1.5591  1.0294 -1.9380
26286SOL    HW287827   8.880   7.369   1.134 -0.1261 -0.2958  0.0878
26287SOL     OW87828   2.212   8.399   6.348  0.0969  0.1990 -0.3415
26287SOL    HW187829   2.271   8.365   6.281 -0.4322  0.6207 -1.0336
26287SOL    HW287830   2.141   8.440   6.299 -0.6751 -0.1211  0.4747
26288SOL     OW87831   6.103   8.739   7.954  0.3238 -0.1990  0.3920
26288SOL    HW187832   6.031   8.796   7.982 -1.7943 -2.5908  0.1561
26288SOL    HW287833   6.182   8.783   7.985 -1.1749  2.7243  0.3771
26289SOL     OW87834   9.924   4.934   6.472 -0.1239 -0.2154 -0.1203
26289SOL    HW187835  10.012   4.962   6.496  0.1622 -0.4664 -0.8709
26289SOL    HW287836   9.931   4.903   6.382 -0.6171 -1.8522  0.3723
26290SOL     OW87837   5.984   5.012   6.016  0.0809 -0.3500 -0.1862
26290SOL    HW187838   5.937   4.940   6.056 -0.1427  0.1462  0.4548
26290SOL    HW287839   5.935   5.090   6.040 -0.0792 -0.0338 -1.4475
26291SOL     OW87840   5.129   5.122  10.132  0.0917  0.2553  0.2144
26291SOL    HW187841   5.109   5.030  10.148 -1.1552  0.3282 -0.7826
26291SOL    HW287842   5.182   5.122  10.052  2.3999  0.2470  1.6281
26292SOL     OW87843   8.314   1.343  11.091  0.0617 -0.4540 -0.9247
26292SOL    HW187844   8.304   1.309  11.002  0.6763 -1.0677 -0.7697
26292SOL    HW287845   8.383   1.409  11.085 -0.8184  0.4613 -1.1408
26293SOL     OW87846   9.284   7.257   0.780 -0.1559  0.0571 -0.3570
26293SOL    HW187847   9.261   7.251   0.688  1.0979 -1.2916 -0.6243
26293SOL    HW287848   9.203   7.234   0.826 -0.9154  1.2033 -1.0908
26294SOL     OW87849  10.431   8.394   9.513  0.1467  0.2725  0.0473
26294SOL    HW187850  10.475   8.430   9.436  0.5750  0.4579  0.3771
26294SOL    HW287851  10.415   8.469   9.570  0.8721 -0.0194  0.6566
26295SOL     OW87852   2.593   9.975   4.018  0.0354 -0.1526  0.0149
26295SOL    HW187853   2.529   9.904   4.025  2.1446 -1.9644  2.5677
26295SOL    HW287854   2.589  10.020   4.102 -0.4312  2.1039 -1.1466
26296SOL     OW87855   0.288   9.411   8.166 -0.0213 -0.2802 -0.1049
26296SOL    HW187856   0.309   9.460   8.246 -0.1971  0.8701 -0.7346
26296SOL    HW287857   0.223   9.466   8.122 -1.5740 -1.9614  0.0053
26297SOL     OW87858   2.500  10.493   6.683  0.3596  0.3593  0.6548
26297SOL    HW187859   2.449  10.567   6.715  1.8199  1.1332  1.2558
26297SOL    HW287860   2.469  10.418   6.735  0.4940  1.0040  1.6924
26298SOL     OW87861   3.089   3.598   5.593 -0.0911 -0.0718  0.0463
26298SOL    HW187862   3.092   3.611   5.498 -0.2985  0.2470  0.0800
26298SOL    HW287863   3.013   3.649   5.621  0.8561  1.1009  0.5801
26299SOL     OW87864   1.683   1.987   7.437  0.0350 -0.1361 -0.3259
26299SOL    HW187865   1.714   2.076   7.455  0.2619 -0.2879  0.0412
26299SOL    HW287866   1.736   1.931   7.493 -1.7992 -0.2895  1.3540
26300SOL     OW87867   7.991  11.939   6.055 -0.2029 -1.2306 -0.6286
26300SOL    HW187868   8.017  11.867   5.997 -0.6362 -0.9028 -1.2424
26300SOL    HW287869   7.922  11.985   6.006 -0.5714 -0.9461  0.1466
26301SOL     OW87870   2.730   8.413   9.823  0.5606  0.1588  0.5787
26301SOL    HW187871   2.660   8.458   9.869  0.4809 -0.3597  0.9769
26301SOL    HW287872   2.769   8.355   9.889  0.8787 -0.1006  0.1707
26302SOL     OW87873   5.272   5.510  11.345 -0.0448 -0.1190  0.0750
26302SOL    HW187874   5.244   5.485  11.433  0.6687 -0.5773  0.1782
26302SOL    HW287875   5.366   5.496  11.344  0.5818  3.3275  0.3803
26303SOL     OW87876   4.955   4.089   4.259  0.3684 -0.4064  0.5688
26303SOL    HW187877   5.035   4.071   4.308 -0.1181  0.6131  1.8063
26303SOL    HW287878   4.985   4.124   4.175  1.2396  0.4477  1.2109
26304SOL     OW87879   2.135   2.503   7.928 -0.1805 -0.5303  0.2041
26304SOL    HW187880   2.047   2.539   7.926  0.0540  0.0608  0.3131
26304SOL    HW287881   2.189   2.574   7.964  0.3135 -0.9337  0.2699
26305SOL     OW87882   3.712   5.161   2.693  0.1011 -0.1212 -0.7707
26305SOL    HW187883   3.650   5.110   2.746 -0.9955  0.9999 -0.9300
26305SOL    HW287884   3.789   5.170   2.749 -1.3015  1.6853  1.0106
26306SOL     OW87885  12.401   1.745   1.661  0.4181  0.7281 -0.1080
26306SOL    HW187886  12.486   1.716   1.627  0.5095  0.2228  0.5286
26306SOL    HW287887  12.337   1.706   1.602  0.5652 -0.3248  0.4204
26307SOL     OW87888   4.481  10.077   7.101 -0.9574  0.3087  0.5167
26307SOL    HW187889   4.483  10.042   7.012 -0.0268  0.3051  0.5315
26307SOL    HW287890   4.456  10.002   7.155  3.1296 -1.0418  0.8200
26308SOL     OW87891   8.343   8.520   7.857 -0.5632  0.2898 -0.3913
26308SOL    HW187892   8.273   8.565   7.905 -0.2832  0.6714 -0.3329
26308SOL    HW287893   8.310   8.510   7.768 -0.7680  0.2917 -0.3153
26309SOL     OW87894   4.710   6.753  10.037  0.4410  0.4325 -0.2265
26309SOL    HW187895   4.804   6.739  10.020  0.3016 -0.1646 -0.5526
26309SOL    HW287896   4.668   6.738   9.952  0.1743  2.1445 -0.4207
26310SOL     OW87897   1.615   6.728   1.273 -0.1666  0.8839 -0.5407
26310SOL    HW187898   1.568   6.806   1.242  1.5653  1.0122 -3.0468
26310SOL    HW287899   1.583   6.657   1.218 -0.0016  0.2567  0.1509
26311SOL     OW87900  11.696   4.520  10.335  0.8639  0.4243 -0.3694
26311SOL    HW187901  11.773   4.490  10.384 -0.0579 -0.5332  0.5460
26311SOL    HW287902  11.676   4.448  10.275  1.0093  0.9159 -1.0281
26312SOL     OW87903   8.747  10.650   1.327  0.1853  0.2252  0.0807
26312SOL    HW187904   8.669  10.594   1.318 -1.2496  2.1285 -0.1117
26312SOL    HW287905   8.821  10.590   1.322 -1.2735 -1.7077  0.5010
26313SOL     OW87906   3.215  11.885   3.530 -0.1664 -0.1526 -0.0999
26313SOL    HW187907   3.207  11.847   3.618  0.4345  2.3532  1.1288
26313SOL    HW287908   3.143  11.845   3.481 -0.3985 -1.7916  1.4458
26314SOL     OW87909   0.553  12.550   8.586 -0.2488 -0.0045  0.7729
26314SOL    HW187910   0.462  12.528   8.605  0.1665 -0.7865  2.0213
26314SOL    HW287911   0.570  12.629   8.637 -0.2672  0.2127  0.4406
26315SOL     OW87912   2.861  12.531   9.628  0.0178  0.0914 -0.6414
26315SOL    HW187913   2.919  12.496   9.696  0.4240 -0.6563 -1.3477
26315SOL    HW287914   2.778  12.547   9.672 -0.6078 -2.9577 -0.4654
26316SOL     OW87915  10.710   1.292   3.441  0.3499 -0.0290 -0.0169
26316SOL    HW187916  10.619   1.317   3.427  1.0496  2.1616 -1.1804
26316SOL    HW287917  10.755   1.319   3.361  2.2396  0.2213  1.0674
26317SOL     OW87918   6.777   2.840   0.125  0.0260 -0.1519 -0.2981
26317SOL    HW187919   6.720   2.768   0.101  2.0969 -0.9774 -3.2942
26317SOL    HW287920   6.737   2.917   0.085 -0.6782 -0.1095  0.4617
26318SOL     OW87921  10.401   9.705   0.024 -0.5250  0.5333  0.4308
26318SOL    HW187922  10.473   9.680  -0.034 -0.5980  1.4274 -0.0620
26318SOL    HW287923  10.424   9.793   0.054 -0.8949  0.4026  1.1206
26319SOL     OW87924   7.985   2.834   9.271 -0.0923  0.2602  0.3221
26319SOL    HW187925   7.954   2.767   9.210  0.1440  1.1163 -0.7515
26319SOL    HW287926   8.080   2.825   9.270 -0.1315 -0.6241  1.6312
26320SOL     OW87927  12.496  12.502   2.767 -0.4483 -0.1074 -0.3367
26320SOL    HW187928  12.403  12.486   2.782 -0.2542 -0.6065  0.3346
26320SOL    HW287929  12.538  12.487   2.852  0.2779 -0.1149 -0.6864
26321SOL     OW87930   2.661   5.961   6.264 -0.7690 -0.2532 -0.6163
26321SOL    HW187931   2.693   6.028   6.325  0.6937 -0.5691 -1.0118
26321SOL    HW287932   2.585   6.002   6.222  0.2068  1.2643 -0.9892
26322SOL     OW87933   6.045   3.530   3.345 -0.4243 -0.1611 -0.0076
26322SOL    HW187934   6.074   3.501   3.431 -0.2659  2.0935  0.7537
26322SOL    HW287935   6.126   3.556   3.300 -0.5239 -1.1498 -0.8041
26323SOL     OW87936   2.527  11.461   8.592  0.0649 -0.2203 -0.2017
26323SOL    HW187937   2.513  11.454   8.687  0.5957  1.7023  0.0662
26323SOL    HW287938   2.522  11.555   8.575 -0.4173 -0.5770 -2.1636
26324SOL     OW87939   5.426   1.683   0.198  0.5891 -0.6956 -0.9024
26324SOL    HW187940   5.518   1.682   0.224  0.6847 -1.7386 -1.2446
26324SOL    HW287941   5.389   1.605   0.239 -0.6243  0.6843  0.8285
26325SOL     OW87942  12.496   3.605   8.459  0.1429  0.0233 -0.1103
26325SOL    HW187943  12.429   3.597   8.526 -0.0822 -0.2675 -0.3661
26325SOL    HW287944  12.549   3.679   8.487  0.9748 -1.0244  1.1858
26326SOL     OW87945   9.304   9.588   9.433 -0.2338  0.1716 -0.4982
26326SOL    HW187946   9.335   9.604   9.522 -0.0576 -2.0727 -0.0827
26326SOL    HW287947   9.383   9.594   9.378 -0.2682  1.1254 -0.4474
26327SOL     OW87948   5.151   4.838   5.207 -0.3148 -0.3788  0.1295
26327SOL    HW187949   5.148   4.927   5.172 -0.6968 -0.8367 -1.0554
26327SOL    HW287950   5.145   4.849   5.301 -1.5157  0.7932 -0.0616
26328SOL     OW87951   2.495  10.770   9.994  0.2804  0.2652  0.0160
26328SOL    HW187952   2.458  10.832   9.931  0.8321  0.7326  0.1499
26328SOL    HW287953   2.448  10.688   9.977 -1.5304  1.0659  0.8219
26329SOL     OW87954   9.022   4.996   0.361  0.0027 -0.1791  0.4425
26329SOL    HW187955   9.041   4.937   0.435  1.2220  0.2459  0.4956
26329SOL    HW287956   8.960   4.948   0.307  0.1475 -1.0668  1.0461
26330SOL     OW87957   0.699   5.175   4.893  0.1980  0.1525  0.0240
26330SOL    HW187958   0.620   5.229   4.900 -0.5921 -1.1542  2.0345
26330SOL    HW287959   0.766   5.235   4.858 -1.2128  1.7805 -0.0124
26331SOL     OW87960   0.886   1.538   7.574 -0.4054 -0.2698 -0.7163
26331SOL    HW187961   0.933   1.551   7.492 -0.5343  0.2319 -0.7186
26331SOL    HW287962   0.807   1.591   7.565  0.9719  2.3019  0.8830
26332SOL     OW87963   6.994   4.381   9.760 -0.0065  0.7549  0.0458
26332SOL    HW187964   7.002   4.450   9.693 -0.0225 -0.2215 -0.9872
26332SOL    HW287965   7.074   4.330   9.751 -0.7214 -0.3335 -0.3198
26333SOL     OW87966   0.684  10.992   0.195  0.3290 -0.3274  0.3782
26333SOL    HW187967   0.645  10.907   0.216  0.4703 -0.2382  1.0118
26333SOL    HW287968   0.611  11.042   0.158  0.5011 -1.0801 -1.0532
26334SOL     OW87969   2.317   4.556   0.227  0.3604 -0.0243  0.6072
26334SOL    HW187970   2.253   4.515   0.285 -0.0248  0.6883  0.6996
26334SOL    HW287971   2.266   4.617   0.173  1.1739  1.9618  1.9482
26335SOL     OW87972   4.492   7.407   5.941  0.4518 -0.0201  0.6078
26335SOL    HW187973   4.416   7.443   5.986  1.3296  1.5121  0.9441
26335SOL    HW287974   4.461   7.388   5.852 -1.1809 -2.6649  1.6224
26336SOL     OW87975   7.598   4.947   2.711  0.4625  0.2160 -0.0563
26336SOL    HW187976   7.641   4.863   2.726 -0.4986 -0.4874 -1.1141
26336SOL    HW287977   7.629   4.975   2.625 -1.1015 -0.2739 -0.8153
26337SOL     OW87978  10.961   0.775   3.988 -0.0046 -0.0895 -0.1548
26337SOL    HW187979  10.893   0.823   4.035 -0.3216  1.5932 -2.1654
26337SOL    HW287980  11.030   0.840   3.974  0.6558 -0.9155 -0.8254
26338SOL     OW87981   5.580   3.305   4.557 -0.5172  0.4678  0.1016
26338SOL    HW187982   5.497   3.264   4.581 -1.1050  0.3956 -1.8294
26338SOL    HW287983   5.646   3.253   4.603 -1.5457  1.7039  3.2244
26339SOL     OW87984   3.403   3.085   3.523  0.0316  0.0568 -0.3007
26339SOL    HW187985   3.382   3.048   3.437 -0.6364 -0.6452  0.1441
26339SOL    HW287986   3.496   3.069   3.535  0.1799  0.3648 -0.9841
26340SOL     OW87987   5.920   0.310   9.614 -0.3322 -0.0585  0.5710
26340SOL    HW187988   5.996   0.352   9.573  0.2125  0.0950  1.7033
26340SOL    HW287989   5.957   0.248   9.676 -1.1134  0.4931  1.6207
26341SOL     OW87990   6.871  10.176   1.046 -0.1102  0.4066 -0.0839
26341SOL    HW187991   6.901  10.126   0.970 -1.6694  0.1553 -0.5598
26341SOL    HW287992   6.947  10.177   1.105  0.4435 -1.2261 -0.7144
26342SOL     OW87993  11.630   5.047  12.565 -0.0785 -0.2696  0.1712
26342SOL    HW187994  11.710   5.100  12.561  0.0461 -0.5296 -1.0931
26342SOL    HW287995  11.647   4.984  12.635  0.7777 -0.2517 -0.0112
26343SOL     OW87996   7.152  10.360   0.459  0.6180  0.0394 -0.0170
26343SOL    HW187997   7.090  10.432   0.449 -1.3891 -1.6522 -0.4189
26343SOL    HW287998   7.199  10.380   0.540 -0.6111  1.2633  0.4362
26344SOL     OW87999   0.689  10.271  10.164  0.0437 -0.1742 -0.0050
26344SOL    HW188000   0.769  10.230  10.130  0.3407 -0.6448  1.2127
26344SOL    HW288001   0.694  10.362  10.134  1.5648  0.0803  0.9164
26345SOL     OW88002   6.978   8.843  10.610 -0.6037 -0.3793  0.0196
26345SOL    HW188003   6.957   8.749  10.611  0.8823 -0.7609 -0.5744
26345SOL    HW288004   7.057   8.849  10.664 -0.9597  0.6152  0.4355
26346SOL     OW88005   3.677  12.435  11.757  0.8299 -0.1863 -0.3747
26346SOL    HW188006   3.692  12.375  11.830 -2.1560  0.1526  0.6158
26346SOL    HW288007   3.702  12.521  11.792  0.0731 -0.1254  0.0376
26347SOL     OW88008   7.519   0.268   6.456 -0.2630 -0.6635 -0.1154
26347SOL    HW188009   7.545   0.208   6.386  2.1147 -0.0565  0.1789
26347SOL    HW288010   7.600   0.313   6.481 -1.5772  1.1622  1.1105
26348SOL     OW88011   4.964   2.800  10.012 -0.3027 -0.4379  0.8310
26348SOL    HW188012   4.980   2.759  10.097 -2.0871 -2.0731  0.4467
26348SOL    HW288013   5.045   2.786   9.963  0.8788  0.8126  2.3094
26349SOL     OW88014  10.433   5.843   1.461 -0.1423 -0.4126  0.1628
26349SOL    HW188015  10.505   5.906   1.454 -0.2729 -0.2202  0.5128
26349SOL    HW288016  10.476   5.758   1.470  0.0613 -0.2338  1.0151
26350SOL     OW88017  11.611   2.515   5.452  0.2241 -0.0090 -0.3692
26350SOL    HW188018  11.673   2.453   5.415  0.5536 -1.4581  2.3419
26350SOL    HW288019  11.530   2.465   5.463 -0.4808  0.9616 -0.9740
26351SOL     OW88020   3.570   0.069   4.681 -0.1743  0.5764  0.2818
26351SOL    HW188021   3.582   0.127   4.756 -0.1381 -0.9736  1.5119
26351SOL    HW288022   3.645   0.087   4.624  0.7455  0.5363  1.4580
26352SOL     OW88023  11.351   6.011   9.037  0.2001  0.0392 -0.8553
26352SOL    HW188024  11.361   5.927   9.080  0.5889 -0.0236 -1.0664
26352SOL    HW288025  11.286   5.996   8.968  0.2725 -0.0882 -0.8948
26353SOL     OW88026  11.191  10.742  11.800 -0.3251 -0.0624  0.3227
26353SOL    HW188027  11.270  10.779  11.839 -0.4566  0.1274  0.4109
26353SOL    HW288028  11.173  10.664  11.853  1.7228 -2.1002 -1.7495
26354SOL     OW88029   0.928  11.071   0.264 -0.2116 -0.0846  0.2515
26354SOL    HW188030   0.856  11.033   0.214 -0.1387  2.2816 -1.8562
26354SOL    HW288031   0.892  11.087   0.351 -1.7059 -0.4868 -0.2681
26355SOL     OW88032   6.003   5.384   0.993 -0.3285 -0.7400 -0.1882
26355SOL    HW188033   6.078   5.333   0.960  1.0229  0.1279  1.4058
26355SOL    HW288034   5.994   5.358   1.084 -0.9395  0.3667  0.0865
26356SOL     OW88035   5.250   1.208   6.782  0.1333 -0.6885  0.2757
26356SOL    HW188036   5.333   1.182   6.743  1.6212  0.7243  2.2596
26356SOL    HW288037   5.270   1.220   6.875 -2.3910 -0.6232  0.8929
26357SOL     OW88038   3.130   1.251   2.192 -0.1755 -0.3210  0.2542
26357SOL    HW188039   3.174   1.334   2.172  1.0268 -1.0228 -0.1364
26357SOL    HW288040   3.038   1.267   2.171  0.2507  0.4980 -1.1485
26358SOL     OW88041   2.915   2.227   5.704  0.8692  0.0886  0.1401
26358SOL    HW188042   2.884   2.215   5.794  0.1165 -0.5774 -0.1980
26358SOL    HW288043   2.948   2.141   5.678  1.8581  0.4834  0.0589
26359SOL     OW88044   9.852  11.925   7.005 -0.1486  0.0412 -0.1897
26359SOL    HW188045   9.903  11.867   7.060 -1.2360 -2.5212 -1.7093
26359SOL    HW288046   9.763  11.921   7.041  0.3381  3.8194  1.9437
26360SOL     OW88047  10.676   3.238   5.149 -0.1530 -0.5293  0.2177
26360SOL    HW188048  10.653   3.331   5.158  0.0221 -0.5459  0.9047
26360SOL    HW288049  10.743   3.237   5.081  1.6879  0.1884  1.9050
26361SOL     OW88050   4.981   3.998   7.733  0.0042  0.1390  0.2585
26361SOL    HW188051   4.916   3.970   7.797 -0.5251  0.1497 -0.2693
26361SOL    HW288052   5.064   3.996   7.781 -0.1489 -1.4084  0.4961
26362SOL     OW88053   5.780  12.078   8.130  0.3464 -0.3657  0.3989
26362SOL    HW188054   5.711  12.017   8.154  1.6819 -1.8731  0.6136
26362SOL    HW288055   5.804  12.121   8.212 -0.0119 -0.1738  0.4054
26363SOL     OW88056   9.240   5.933   2.570 -0.0748  0.0216  0.4848
26363SOL    HW188057   9.252   6.027   2.556 -0.4498 -0.1224 -1.0073
26363SOL    HW288058   9.175   5.927   2.640  1.6137  0.8256  2.2260
26364SOL     OW88059   4.236  10.532   2.572 -0.0711 -0.1419  0.1038
26364SOL    HW188060   4.178  10.485   2.632 -1.4398  1.6583  0.2693
26364SOL    HW288061   4.199  10.620   2.567  1.9857  0.7344 -0.7403
26365SOL     OW88062   5.450   4.653   7.647 -0.7517 -0.2997 -0.4279
26365SOL    HW188063   5.500   4.728   7.680 -1.1894 -0.9743  1.9729
26365SOL    HW288064   5.361   4.669   7.676 -0.8797 -1.6745  0.0274
26366SOL     OW88065  10.988   3.192   5.604  0.3715  0.0818  0.4138
26366SOL    HW188066  10.961   3.255   5.537  0.2838 -0.1588  0.2222
26366SOL    HW288067  10.944   3.222   5.684  0.9146  0.6864  0.4939
26367SOL     OW88068   2.896   3.014   3.151  0.4035 -0.0296 -0.1927
26367SOL    HW188069   2.861   2.991   3.065 -1.8598  1.1523  0.3477
26367SOL    HW288070   2.967   3.075   3.132  0.9617 -0.9573 -1.2488
26368SOL     OW88071   9.743   8.473   9.088 -0.2267 -0.2880  0.0954
26368SOL    HW188072   9.727   8.472   9.182  0.0413 -1.3389  0.1386
26368SOL    HW288073   9.739   8.381   9.062  1.1085 -0.1455 -0.6767
26369SOL     OW88074   3.613   9.770   5.467 -0.4821  0.1010  0.4919
26369SOL    HW188075   3.658   9.687   5.479  1.3009  1.1818  1.7881
26369SOL    HW288076   3.627   9.792   5.375  1.0667  0.0449  0.6864
26370SOL     OW88077   9.365   0.592  10.226 -0.0556  0.3986  0.2334
26370SOL    HW188078   9.410   0.530  10.168 -0.2760 -0.6404  1.1306
26370SOL    HW288079   9.427   0.664  10.236 -0.2558  0.9039 -1.7600
26371SOL     OW88080   7.018  11.785   6.468 -0.5806 -0.1256 -0.2988
26371SOL    HW188081   6.971  11.868   6.472  1.7616  1.3542 -1.1171
26371SOL    HW288082   7.071  11.791   6.388 -0.2217 -2.3582 -0.2922
26372SOL     OW88083   8.341   1.908   2.186 -0.4586  0.0036  0.4820
26372SOL    HW188084   8.261   1.861   2.210 -0.6048 -0.7469 -1.2792
26372SOL    HW288085   8.325   1.939   2.097  1.4975 -0.8976 -0.2588
26373SOL     OW88086   2.497  10.880   9.475  0.0808  0.4989 -0.0956
26373SOL    HW188087   2.512  10.916   9.563  0.6136 -0.1469  0.0888
26373SOL    HW288088   2.583  10.883   9.433 -0.0976  0.4708 -0.4659
26374SOL     OW88089   2.990   4.110   4.502  0.1275  0.3101 -0.0451
26374SOL    HW188090   3.057   4.148   4.559  1.1837 -0.2609 -0.8651
26374SOL    HW288091   3.040   4.063   4.435 -1.0976 -0.9937 -0.0974
26375SOL     OW88092   2.736   9.554  12.562 -0.2090  0.0712  0.6156
26375SOL    HW188093   2.796   9.617  12.523 -1.4048  1.6589  1.2466
26375SOL    HW288094   2.754   9.559  12.656  0.0744 -0.9757  0.6309
26376SOL     OW88095   0.265  10.965   3.493 -0.1327 -0.4823  0.7764
26376SOL    HW188096   0.223  10.965   3.408  0.2149 -0.4455  0.6040
26376SOL    HW288097   0.195  10.989   3.554 -0.2377  0.1046  0.4295
26377SOL     OW88098   7.128  10.483   9.325  0.0188  0.0585  0.0700
26377SOL    HW188099   7.217  10.494   9.293 -0.7355  1.6355 -1.6657
26377SOL    HW288100   7.110  10.564   9.373 -0.8504  0.2407 -0.5508
26378SOL     OW88101   0.844  10.530  10.269  0.4179  0.5311 -0.6354
26378SOL    HW188102   0.758  10.558  10.239 -0.2244  0.6082  1.1608
26378SOL    HW288103   0.849  10.560  10.360  2.2624  0.3458 -0.6337
26379SOL     OW88104   5.065   1.500  12.353 -0.4902  0.3256 -0.2815
26379SOL    HW188105   5.014   1.435  12.305 -1.8124  1.0536  0.0869
26379SOL    HW288106   5.065   1.468  12.443  0.0311  0.1496 -0.3380
26380SOL     OW88107   9.387  11.179   9.040  0.3964  0.0519 -0.2560
26380SOL    HW188108   9.320  11.112   9.057  1.0412 -0.2250  1.5004
26380SOL    HW288109   9.343  11.262   9.057  0.3880 -0.1181  0.6537
26381SOL     OW88110   1.141   0.251   9.260  0.6485 -0.0079  0.2222
26381SOL    HW188111   1.149   0.263   9.166 -0.0461  0.4716  0.2136
26381SOL    HW288112   1.166   0.160   9.275 -1.8787 -0.9742 -0.7982
26382SOL     OW88113  12.333   7.185  11.154 -0.2961 -0.0300  0.1224
26382SOL    HW188114  12.303   7.139  11.233  1.7313 -0.3288  0.7782
26382SOL    HW288115  12.386   7.120  11.108 -1.8874 -0.0250 -1.8135
26383SOL     OW88116   2.227   0.388   5.485 -0.1539 -0.4002  0.4795
26383SOL    HW188117   2.166   0.447   5.441  0.2301  0.4885  1.1096
26383SOL    HW288118   2.174   0.345   5.552 -0.2231 -0.0689  0.6387
26384SOL     OW88119   7.808   1.292   4.582  0.1570 -0.8268  0.3959
26384SOL    HW188120   7.851   1.308   4.667 -0.2987  0.5840  0.3775
26384SOL    HW288121   7.762   1.209   4.595 -0.9836 -0.0107  1.9956
26385SOL     OW88122   6.263  10.880  11.474  0.3600  0.2388  0.1578
26385SOL    HW188123   6.351  10.898  11.443 -0.0387  0.3715 -0.9391
26385SOL    HW288124   6.231  10.809  11.418 -0.7029  1.0968 -0.3564
26386SOL     OW88125   4.491  12.536   8.915  0.6877 -0.1216  0.2188
26386SOL    HW188126   4.403  12.537   8.954  0.9778 -2.0624  1.0317
26386SOL    HW288127   4.518  12.444   8.917  2.8332  0.4405  0.1985
26387SOL     OW88128   2.480   7.321   9.564 -0.1724 -0.3751 -0.2394
26387SOL    HW188129   2.392   7.356   9.550  0.1904  0.2879 -0.9088
26387SOL    HW288130   2.496   7.265   9.488 -0.0388 -0.5546 -0.0814
26388SOL     OW88131   0.369   0.477   1.541 -0.2236  0.2943 -0.2766
26388SOL    HW188132   0.286   0.524   1.554 -0.3068  0.5177 -1.5513
26388SOL    HW288133   0.351   0.388   1.571 -1.9727 -0.5824 -3.5390
26389SOL     OW88134   1.797   1.953   3.016 -0.5971  0.0599  0.4856
26389SOL    HW188135   1.719   1.900   3.035 -0.4192 -0.0945  0.7937
26389SOL    HW288136   1.808   2.007   3.094  0.0249 -0.4357  0.7499
26390SOL     OW88137   6.812   0.100   7.460 -0.5600  0.2479  0.0254
26390SOL    HW188138   6.842   0.155   7.533 -0.4738  1.1693 -0.6801
26390SOL    HW288139   6.726   0.135   7.437 -0.2046  0.5623 -0.8863
26391SOL     OW88140   7.503   6.523   8.132  0.1312  0.1140  0.9579
26391SOL    HW188141   7.589   6.513   8.092 -0.0105  0.9842  0.4175
26391SOL    HW288142   7.445   6.471   8.078  0.2325 -0.0916  1.0453
26392SOL     OW88143  11.821  10.250  10.138  0.7304 -0.1580 -0.0780
26392SOL    HW188144  11.838  10.340  10.166 -2.2139  1.0953 -1.8292
26392SOL    HW288145  11.866  10.242  10.054  1.9766 -0.7862  0.6215
26393SOL     OW88146   5.839  12.541   8.748  0.4885 -0.5670  0.8286
26393SOL    HW188147   5.777  12.609   8.722  0.5439 -0.5052  0.8576
26393SOL    HW288148   5.925  12.580   8.733  0.5220 -0.8879  0.1584
26394SOL     OW88149   8.733   8.849   4.949  0.1575 -0.1244  0.1520
26394SOL    HW188150   8.718   8.833   4.856 -2.2316 -0.7834  0.5858
26394SOL    HW288151   8.746   8.762   4.987  0.6575  0.1025  0.5237
26395SOL     OW88152   1.808  10.884  11.535 -0.1112  0.3369  0.4412
26395SOL    HW188153   1.712  10.890  11.530 -0.1088  1.9290  1.5806
26395SOL    HW288154   1.830  10.809  11.480 -2.1462 -1.0964  1.4570
26396SOL     OW88155  12.444   4.912  11.462  0.0385  0.4672 -0.0884
26396SOL    HW188156  12.405   4.949  11.541 -0.4063 -0.1800  0.0035
26396SOL    HW288157  12.369   4.893  11.405  0.2256 -0.5452 -0.0169
26397SOL     OW88158   7.003   8.308   6.103 -0.5838 -0.5560 -0.3613
26397SOL    HW188159   7.049   8.346   6.178  0.6626 -2.3465 -0.1358
26397SOL    HW288160   7.003   8.377   6.037  0.7950  0.1384  0.3143
26398SOL     OW88161   2.141   6.397   0.742  0.3815  0.2700 -0.0142
26398SOL    HW188162   2.129   6.310   0.781 -0.3357 -0.2360 -1.2998
26398SOL    HW288163   2.136   6.457   0.817  0.8580 -0.7775  0.8954
26399SOL     OW88164   4.444   4.972   5.288  0.0906  0.7476  0.1354
26399SOL    HW188165   4.535   4.961   5.262 -0.2163 -3.0301  0.1321
26399SOL    HW288166   4.393   4.939   5.214 -1.1191 -0.8480  1.6040
26400SOL     OW88167   9.798   7.629   9.321  0.1110  0.7462 -0.0978
26400SOL    HW188168   9.749   7.557   9.283  0.5233  0.7763 -0.6938
26400SOL    HW288169   9.820   7.686   9.247  1.3107  0.5780  0.1014
26401SOL     OW88170  11.415   7.451   9.226 -0.0988 -0.0215  0.2173
26401SOL    HW188171  11.391   7.367   9.189  1.3544 -0.1973 -0.3765
26401SOL    HW288172  11.489   7.432   9.283 -0.7070  0.6376  1.2727
26402SOL     OW88173  11.613   8.368   6.931  0.4798  0.0838 -0.1119
26402SOL    HW188174  11.581   8.295   6.878 -0.2628  0.2298  0.1126
26402SOL    HW288175  11.621   8.440   6.870  0.1838  0.0965 -0.1384
26403SOL     OW88176  12.497   1.627   9.764  0.3558  0.5395 -1.3333
26403SOL    HW188177  12.443   1.638   9.685 -1.7888  1.8398  0.2070
26403SOL    HW288178  12.436   1.636   9.836  2.2071 -0.8730  0.5376
26404SOL     OW88179  11.620  12.228   4.071  0.2499 -0.3302 -0.1377
26404SOL    HW188180  11.527  12.246   4.057  0.3096 -0.3914 -0.6289
26404SOL    HW288181  11.650  12.191   3.988  0.7145 -0.3109  0.0183
26405SOL     OW88182   9.240  11.557   2.572  0.6646  0.0302  0.1215
26405SOL    HW188183   9.232  11.649   2.549  2.5766  0.1055 -0.4505
26405SOL    HW288184   9.260  11.557   2.666  1.0423  0.2334  0.0430
26406SOL     OW88185   5.238   2.920   1.980 -0.2896  0.1783  0.4081
26406SOL    HW188186   5.290   2.892   1.905  1.6726  0.8971  1.4429
26406SOL    HW288187   5.198   2.839   2.013  0.8870 -0.5409  0.1106
26407SOL     OW88188  12.199   8.032   4.281 -0.1636 -0.6359  0.1424
26407SOL    HW188189  12.223   7.985   4.361 -2.3342  0.4028  1.5110
26407SOL    HW288190  12.147   7.970   4.231  1.4434 -1.3887 -0.6780
26408SOL     OW88191   9.951   3.551   9.551  0.1347 -0.0428  0.6754
26408SOL    HW188192  10.004   3.582   9.478  0.2303  1.1605  1.2454
26408SOL    HW288193   9.860   3.564   9.522  0.1731  0.4747  0.7780
26409SOL     OW88194  10.796   4.114  11.394  0.1409 -0.6654 -0.1290
26409SOL    HW188195  10.714   4.112  11.346 -0.4449 -0.1763  0.8230
26409SOL    HW288196  10.830   4.203  11.380  0.4598 -0.8273 -0.4180
26410SOL     OW88197   1.518   3.951  11.704 -0.2905  0.4400  0.0757
26410SOL    HW188198   1.462   3.904  11.641 -0.4375  0.3263  0.2909
26410SOL    HW288199   1.588   3.889  11.724  0.4457  0.9233 -0.9169
26411SOL     OW88200   1.436   4.288  11.200 -0.2205  0.3248  0.0060
26411SOL    HW188201   1.406   4.249  11.117 -0.3211  0.3739  0.0189
26411SOL    HW288202   1.385   4.242  11.267 -0.6397  0.7579 -0.0067
26412SOL     OW88203   4.197   3.002   3.403 -0.4217  0.1889  0.6672
26412SOL    HW188204   4.152   3.026   3.484 -0.2133  1.4881  0.4297
26412SOL    HW288205   4.204   3.085   3.355  1.0379 -0.2291  0.1176
26413SOL     OW88206  10.504  12.035  12.495 -0.6139  0.0286 -0.0813
26413SOL    HW188207  10.583  12.088  12.506 -2.3438  3.3938 -2.0594
26413SOL    HW288208  10.498  12.021  12.400 -0.9662 -2.7315  0.2590
26414SOL     OW88209   1.635   0.405   9.672  0.5310  0.0710  0.3741
26414SOL    HW188210   1.606   0.474   9.731  1.7159  2.2192 -1.4254
26414SOL    HW288211   1.613   0.324   9.718 -2.1538  1.5724  1.9880
26415SOL     OW88212   7.466   0.741   6.540  0.6716 -0.1459  0.1199
26415SOL    HW188213   7.499   0.829   6.560 -0.6393  0.6409 -1.0022
26415SOL    HW288214   7.470   0.695   6.624  2.7967  0.4616  0.4270
26416SOL     OW88215   8.038   3.655  10.339 -0.5651  0.3332  0.7807
26416SOL    HW188216   8.021   3.584  10.278 -1.3490 -2.4363  3.9569
26416SOL    HW288217   8.134   3.662  10.341 -0.2189 -2.8476  2.4990
26417SOL     OW88218   9.048   4.966   6.376 -0.2984 -0.0613  0.0960
26417SOL    HW188219   9.137   4.931   6.373 -0.5066 -0.6018  0.2137
26417SOL    HW288220   9.027   4.971   6.469 -0.0976  0.8375  0.1064
26418SOL     OW88221   5.822   5.802  11.165 -0.4301 -0.4654 -0.3175
26418SOL    HW188222   5.820   5.876  11.105  0.8300  0.4904  0.7656
26418SOL    HW288223   5.739   5.757  11.150 -1.6996  1.7548 -0.2784
26419SOL     OW88224   6.480  11.880   4.692  0.4080  0.3328  0.3178
26419SOL    HW188225   6.480  11.830   4.610  0.1462  1.9976 -0.7534
26419SOL    HW288226   6.511  11.967   4.666 -0.8595  1.2517  1.7443
26420SOL     OW88227   8.906   6.042   0.485  0.4230 -0.2287 -0.4643
26420SOL    HW188228   8.825   6.003   0.519  0.8518 -0.6686  0.0843
26420SOL    HW288229   8.968   6.032   0.557  0.0497  3.2729  0.5333
26421SOL     OW88230   7.644  12.086   7.741  0.4431 -0.2073 -0.5876
26421SOL    HW188231   7.561  12.066   7.697  0.9436 -0.4676 -1.4479
26421SOL    HW288232   7.668  12.172   7.708  0.4875 -0.1047 -0.2890
26422SOL     OW88233   7.158   5.326   6.352  0.0332  0.4013  0.0322
26422SOL    HW188234   7.181   5.249   6.300  2.0420  1.2497 -0.4078
26422SOL    HW288235   7.103   5.378   6.293  0.4039  0.2757 -0.4354
26423SOL     OW88236  10.936   2.262   0.625 -0.2030 -0.0635  0.2343
26423SOL    HW188237  10.898   2.193   0.679 -0.9148 -0.9382 -1.2808
26423SOL    HW288238  10.873   2.333   0.630  0.1349  0.1754  1.1733
26424SOL     OW88239  10.732   9.904   5.181  0.1959 -0.1742 -0.3098
26424SOL    HW188240  10.808   9.941   5.137 -0.1540 -1.2226 -1.8963
26424SOL    HW288241  10.757   9.814   5.203 -0.1522 -0.1299  0.2843
26425SOL     OW88242   6.790  12.524   9.195  0.1369 -0.8503  0.2083
26425SOL    HW188243   6.878  12.490   9.177  0.1659 -0.2078 -0.9514
26425SOL    HW288244   6.737  12.492   9.122 -0.1030  0.5345 -0.2533
26426SOL     OW88245   5.162  12.462   5.893  0.3872 -0.0868 -0.1912
26426SOL    HW188246   5.248  12.463   5.853 -0.4816  3.2104 -2.3871
26426SOL    HW288247   5.153  12.548   5.935 -1.3962 -0.7906  1.0265
26427SOL     OW88248  10.151   2.054   1.975 -0.0953  0.6507 -0.0153
26427SOL    HW188249  10.099   2.028   1.898  0.4274 -2.9474  0.6826
26427SOL    HW288250  10.115   2.002   2.047  1.0832  2.0289  1.6503
26428SOL     OW88251   1.793   2.648  11.033  0.7430  0.3569  0.1263
26428SOL    HW188252   1.766   2.619  10.946 -0.1450 -0.3304  0.6090
26428SOL    HW288253   1.760   2.579  11.092  0.5573  1.2488  1.0886
26429SOL     OW88254  10.096   7.889  10.298  0.3259  0.3798  0.0648
26429SOL    HW188255  10.089   7.795  10.312 -1.0498  0.4450 -0.0727
26429SOL    HW288256  10.152   7.920  10.370 -0.3514 -0.3501  0.9262
26430SOL     OW88257   8.909   5.179  11.380 -0.1257 -0.3055 -0.1684
26430SOL    HW188258   8.969   5.174  11.454 -0.1600 -2.2420 -0.2233
26430SOL    HW288259   8.954   5.236  11.317  0.2431  0.7503  0.9952
26431SOL     OW88260   5.569   3.547   1.386  0.1019 -0.0421 -0.2030
26431SOL    HW188261   5.641   3.497   1.425  1.0303  0.0649 -1.6769
26431SOL    HW288262   5.584   3.637   1.413 -0.7851 -0.3278  1.3280
26432SOL     OW88263   9.951   8.885   8.239 -0.2817  0.1982 -0.2963
26432SOL    HW188264   9.924   8.846   8.156  0.5643 -0.2156 -0.3876
26432SOL    HW288265  10.045   8.868   8.244 -0.4350 -0.3571  1.0593
26433SOL     OW88266   5.606   3.633   4.320  0.0943  0.0171 -0.9319
26433SOL    HW188267   5.576   3.610   4.408 -0.5349 -1.2052 -1.4320
26433SOL    HW288268   5.701   3.636   4.327  0.0424  0.0005 -0.1919
26434SOL     OW88269   6.997  12.198   4.518 -0.5884 -0.2185 -0.3881
26434SOL    HW188270   7.078  12.153   4.498  1.7390  3.0447  0.8077
26434SOL    HW288271   6.963  12.154   4.596 -0.9136 -2.5983 -1.7859
26435SOL     OW88272   9.048   6.924  10.771 -0.0317  0.0294 -0.0477
26435SOL    HW188273   8.997   6.859  10.819  0.4958  0.2157  0.7935
26435SOL    HW288274   8.983   6.972  10.720 -0.6032 -0.2184  0.4292
26436SOL     OW88275   0.620  10.977   3.087  0.0044  0.6610  0.1452
26436SOL    HW188276   0.672  11.038   3.140  3.1249 -0.2883 -1.5512
26436SOL    HW288277   0.565  10.931   3.150  1.7165  1.3112  2.2442
26437SOL     OW88278   0.426  11.296   7.970  0.0666 -0.6819  0.1499
26437SOL    HW188279   0.411  11.289   7.875 -1.4069  0.8273  0.2186
26437SOL    HW288280   0.338  11.292   8.007  0.7104 -2.8507  1.6292
26438SOL     OW88281  11.496  12.001   1.765 -0.4312 -0.2744 -0.1602
26438SOL    HW188282  11.530  11.946   1.694  0.3778  0.9445 -0.7394
26438SOL    HW288283  11.463  12.079   1.722 -1.7792 -0.3710  0.6385
26439SOL     OW88284  11.409   9.802   1.907 -0.3123 -0.1187  0.3652
26439SOL    HW188285  11.480   9.779   1.966  0.2155 -0.6807 -0.4622
26439SOL    HW288286  11.330   9.793   1.960  0.2937  2.5750  1.9303
26440SOL     OW88287   0.129   0.709  10.835  1.0833 -0.0031 -0.3375
26440SOL    HW188288   0.091   0.705  10.923  0.7186  1.3415 -0.4135
26440SOL    HW288289   0.065   0.665  10.779  0.9534 -0.1816 -0.0527
26441SOL     OW88290  11.248   5.611   7.040  0.2076 -0.0838  0.3276
26441SOL    HW188291  11.274   5.703   7.051 -1.0561  0.4955 -1.1129
26441SOL    HW288292  11.321   5.561   7.075  0.3353  1.4591  2.5066
26442SOL     OW88293   0.005   4.079   1.874 -0.1752 -0.1388 -0.0519
26442SOL    HW188294  -0.088   4.081   1.896  0.1986 -1.8540  1.9801
26442SOL    HW288295   0.049   4.055   1.955  1.9457 -0.6168 -1.2554
26443SOL     OW88296   4.913   5.223   8.454  0.2970 -0.0973  0.7669
26443SOL    HW188297   4.894   5.303   8.405  0.1672  0.4028  1.6280
26443SOL    HW288298   4.830   5.176   8.456  0.0824  0.2944  1.2494
26444SOL     OW88299   9.495   3.797   5.050  0.0767  0.2242  0.7776
26444SOL    HW188300   9.440   3.858   5.099 -2.4300 -1.8554  0.8405
26444SOL    HW288301   9.579   3.799   5.094 -0.4913  2.2135  1.8903
26445SOL     OW88302  12.257   9.764   1.783 -0.7414 -0.5494 -0.5048
26445SOL    HW188303  12.298   9.848   1.807  2.0858 -1.4463 -1.7067
26445SOL    HW288304  12.203   9.741   1.859 -0.7073  1.7974  0.3248
26446SOL     OW88305   3.091  12.573   0.621  0.7213 -0.0726  1.0958
26446SOL    HW188306   3.129  12.621   0.548  0.4532 -0.5885  0.6137
26446SOL    HW288307   3.116  12.623   0.699  0.0759  1.0996  0.5702
26447SOL     OW88308   7.535   3.851   3.971  0.6422 -0.1618  0.1990
26447SOL    HW188309   7.510   3.769   3.928  1.2711 -1.1518  1.6275
26447SOL    HW288310   7.598   3.825   4.038 -0.5843  1.2158  2.0079
26448SOL     OW88311   9.964   3.785   0.727  0.2355 -0.3425  0.0282
26448SOL    HW188312  10.031   3.724   0.695  0.0024 -0.1053 -0.9374
26448SOL    HW288313  10.009   3.837   0.793  1.1060  0.0101 -0.8181
26449SOL     OW88314   8.902   2.550  10.479  0.2963  0.1346  0.0654
26449SOL    HW188315   8.843   2.622  10.504 -0.5953 -0.3390 -0.6014
26449SOL    HW288316   8.860   2.472  10.516  2.0449  0.0715  2.1259
26450SOL     OW88317   9.824   3.189   1.499  0.0680  0.1081 -0.2215
26450SOL    HW188318   9.774   3.115   1.533 -1.4116  1.5282  0.8732
26450SOL    HW288319   9.846   3.241   1.577 -2.5975  2.9630 -1.1337
26451SOL     OW88320  11.699  10.624   8.020  0.3760  0.3241  0.0424
26451SOL    HW188321  11.746  10.592   7.943  0.6309  0.2692  0.2178
26451SOL    HW288322  11.717  10.718   8.022  2.4414 -0.0143  1.3990
26452SOL     OW88323  10.250   2.995   3.954 -0.2739  0.2679  0.3155
26452SOL    HW188324  10.256   2.933   3.881  2.8825  0.3022  0.4135
26452SOL    HW288325  10.252   2.940   4.032 -1.3078  0.3591  0.4253
26453SOL     OW88326   8.476   7.496   0.619  0.5729  0.6835 -0.4289
26453SOL    HW188327   8.457   7.579   0.575  1.6314  1.2804  0.2139
26453SOL    HW288328   8.390   7.453   0.626  0.2126  1.0678 -2.0371
26454SOL     OW88329  11.940  11.769   9.201  0.0067 -0.3407  0.6546
26454SOL    HW188330  11.870  11.704   9.212  0.3643 -1.1240 -1.2970
26454SOL    HW288331  11.901  11.836   9.145  1.1654 -1.5035 -1.6872
26455SOL     OW88332   6.342   7.591  11.076  0.0267 -0.7442 -0.1331
26455SOL    HW188333   6.316   7.509  11.118 -0.8767  0.2143  1.2650
26455SOL    HW288334   6.260   7.626  11.041  0.0925  0.3362  0.7284
26456SOL     OW88335   9.529  10.275   3.782  0.0424 -0.1236 -0.0508
26456SOL    HW188336   9.464  10.325   3.732  2.5035  0.2239 -3.2094
26456SOL    HW288337   9.484  10.193   3.804 -1.9303  0.7109 -0.7141
26457SOL     OW88338   5.754   0.240   1.954 -0.8098  1.1348 -0.5594
26457SOL    HW188339   5.794   0.303   2.014 -0.6293 -0.2167  0.8034
26457SOL    HW288340   5.827   0.185   1.925 -0.9656  1.5131 -1.7244
26458SOL     OW88341   8.280   8.798  10.488  0.1400 -0.3397 -0.0378
26458SOL    HW188342   8.351   8.837  10.539  0.2992 -3.1493  2.1859
26458SOL    HW288343   8.201   8.841  10.520  0.5162  0.0745  0.3582
26459SOL     OW88344   4.667   3.015   6.469 -0.1756  0.5024  0.3232
26459SOL    HW188345   4.658   2.934   6.520 -1.1809 -0.0209 -0.6373
26459SOL    HW288346   4.738   2.998   6.408 -0.5065  0.2639 -0.0008
26460SOL     OW88347   1.664   5.376   2.017  0.3693  0.4082  0.5902
26460SOL    HW188348   1.597   5.400   1.953  1.4171  0.5301 -0.5037
26460SOL    HW288349   1.616   5.363   2.098 -0.7208  2.6952  0.3946
26461SOL     OW88350   9.384   5.960  11.785 -0.2330 -0.4441  0.3814
26461SOL    HW188351   9.332   6.040  11.791  1.1857  0.7073 -1.3594
26461SOL    HW288352   9.452   5.971  11.851  0.5005  0.2826 -0.4535
26462SOL     OW88353  10.718  11.570  12.262 -0.3386  0.3304 -0.0390
26462SOL    HW188354  10.802  11.599  12.298 -0.2878 -0.6165  0.6389
26462SOL    HW288355  10.652  11.617  12.314 -0.2456  0.3903  0.0254
26463SOL     OW88356   9.605   9.639   3.555 -0.6300  0.1230  0.4316
26463SOL    HW188357   9.548   9.680   3.490 -0.6668  0.6958  0.8170
26463SOL    HW288358   9.682   9.611   3.506 -0.6311  0.6125  0.1531
26464SOL     OW88359   9.099   7.102   4.654 -0.7685  0.4780  0.0887
26464SOL    HW188360   9.126   7.183   4.611  2.5698 -0.2680  0.4959
26464SOL    HW288361   9.078   7.128   4.743 -1.4459  1.1222 -0.2537
26465SOL     OW88362   6.095  11.145   6.307  0.4919  0.6235 -0.4727
26465SOL    HW188363   6.137  11.060   6.299  1.9453  1.3601 -1.0816
26465SOL    HW288364   6.014  11.128   6.355  2.0967 -0.6875  1.9786
26466SOL     OW88365   6.365   8.896  10.362 -0.1450  0.8838  0.1536
26466SOL    HW188366   6.414   8.977  10.349  0.1563  0.8512  0.9867
26466SOL    HW288367   6.407   8.855  10.438 -2.2254  1.4496  1.6909
26467SOL     OW88368   9.519   3.675   0.809 -0.2709  0.2360  0.1303
26467SOL    HW188369   9.562   3.592   0.831 -0.9373  0.1081  0.9742
26467SOL    HW288370   9.426   3.653   0.801 -0.6483  1.1337  1.6875
26468SOL     OW88371  11.690   6.657  11.426  0.5498 -0.3847  0.0004
26468SOL    HW188372  11.711   6.598  11.353 -1.1496  0.0944 -0.9459
26468SOL    HW288373  11.754   6.727  11.420  1.7743 -1.4349  0.3325
26469SOL     OW88374   5.042   0.504   1.828 -0.1445 -0.0201  0.0304
26469SOL    HW188375   4.964   0.551   1.798 -0.0430  0.4286  0.4574
26469SOL    HW288376   5.093   0.489   1.749 -2.5045 -3.9190 -0.9894
26470SOL     OW88377   3.910   9.506   3.061 -0.1683 -0.7303  0.1576
26470SOL    HW188378   3.891   9.445   3.132  1.3831  0.1284  1.3537
26470SOL    HW288379   3.982   9.560   3.093 -2.1131  2.4783 -0.4147
26471SOL     OW88380   4.425   7.325   5.691  0.2721 -0.2790 -0.0862
26471SOL    HW188381   4.498   7.268   5.666  0.5387 -0.2992  0.7300
26471SOL    HW288382   4.348   7.269   5.679  0.3484 -0.1600 -1.2460
26472SOL     OW88383  11.450   6.370   0.053  0.0931 -0.1520  0.0754
26472SOL    HW188384  11.357   6.375   0.030 -0.2731  1.5038  1.6884
26472SOL    HW288385  11.453   6.310   0.128  0.3954 -0.5278 -0.2323
26473SOL     OW88386   9.050   4.824   7.112 -0.6067 -0.3676 -0.6741
26473SOL    HW188387   9.099   4.904   7.128 -0.7122 -0.1304 -1.4975
26473SOL    HW288388   8.964   4.841   7.150 -0.8200  0.1493 -1.3615
26474SOL     OW88389   2.398   0.437  12.058 -0.6129 -0.5120 -0.5545
26474SOL    HW188390   2.344   0.460  12.134  2.2868 -1.5142  1.9889
26474SOL    HW288391   2.392   0.342  12.052  2.4295 -0.9612  1.2690
26475SOL     OW88392  12.396   1.330   6.833 -0.1096 -0.0099  0.4494
26475SOL    HW188393  12.384   1.357   6.742 -2.4918 -1.7297  0.1761
26475SOL    HW288394  12.348   1.396   6.884  2.8561  2.1285  0.7856
26476SOL     OW88395  11.965   5.210   7.533 -0.0529 -0.3655 -0.3191
26476SOL    HW188396  11.946   5.303   7.536  0.8025 -0.1602  3.4379
26476SOL    HW288397  12.035   5.202   7.468 -0.7659  1.4062 -1.3694
26477SOL     OW88398   4.519   6.457   3.643 -0.4460  0.2347  0.4861
26477SOL    HW188399   4.583   6.440   3.713  0.6441  0.7290 -0.3593
26477SOL    HW288400   4.572   6.469   3.565 -1.6548 -0.5157 -0.4910
26478SOL     OW88401  11.230   1.700   6.364  0.4025  0.0886  0.3643
26478SOL    HW188402  11.284   1.779   6.357  0.2021  0.3680  1.7037
26478SOL    HW288403  11.279   1.633   6.316  1.1880  0.7179  0.2652
26479SOL     OW88404  10.789   4.218  10.355  0.2008 -0.4192  0.3125
26479SOL    HW188405  10.711   4.268  10.378  0.1620 -0.6360  0.6731
26479SOL    HW288406  10.862   4.273  10.383  0.1617 -0.4800  0.5420
26480SOL     OW88407   6.098   5.784   3.940  0.3643 -0.5872 -0.3689
26480SOL    HW188408   6.016   5.737   3.927 -1.2676  2.3351 -1.6628
26480SOL    HW288409   6.109   5.788   4.035 -1.8529  0.2772 -0.0925
26481SOL     OW88410  11.909  11.646   4.344 -0.0752 -0.1339 -0.7496
26481SOL    HW188411  11.916  11.551   4.350 -1.3902 -0.2876 -1.2057
26481SOL    HW288412  11.864  11.671   4.425 -0.6165 -0.0261 -1.0765
26482SOL     OW88413  11.458   7.395   2.593  0.2828  0.5041  0.3770
26482SOL    HW188414  11.552   7.415   2.592  0.7818 -1.6363  0.4133
26482SOL    HW288415  11.447   7.334   2.665 -0.8708 -0.4643 -0.5787
26483SOL     OW88416   9.489   4.838  10.774  0.1033 -0.2327  0.1124
26483SOL    HW188417   9.560   4.851  10.836 -0.1523  0.8288  0.2036
26483SOL    HW288418   9.533   4.819  10.691  0.5329  0.9552  0.0411
26484SOL     OW88419   6.852   4.616   0.419  0.8633  0.1652  0.4463
26484SOL    HW188420   6.907   4.543   0.448  1.5205  0.3351 -0.3291
26484SOL    HW288421   6.914   4.679   0.381  0.0247 -0.3440 -1.9730
26485SOL     OW88422   0.995   0.177   4.951  0.3004  0.2409 -0.4024
26485SOL    HW188423   0.994   0.184   4.856 -1.7614  2.2216 -0.3090
26485SOL    HW288424   1.087   0.192   4.975  1.0140 -1.0618 -2.0490
26486SOL     OW88425   4.983   9.758  11.755  0.3473  0.4756 -0.3351
26486SOL    HW188426   4.940   9.689  11.806  1.2360  0.4508  0.3892
26486SOL    HW288427   4.966   9.839  11.803  0.8940  0.4982 -0.1685
26487SOL     OW88428   8.413  11.288   1.086  0.3404  0.3044  0.2771
26487SOL    HW188429   8.334  11.243   1.116  0.6363  0.1462  0.8253
26487SOL    HW288430   8.476  11.217   1.073  0.9848  0.5983  1.6738
26488SOL     OW88431   6.582   3.200   6.179  0.5841 -0.5149 -0.1428
26488SOL    HW188432   6.563   3.224   6.269  0.0695 -0.1517 -0.3494
26488SOL    HW288433   6.609   3.108   6.184 -1.0981 -1.0185  0.1733
26489SOL     OW88434   9.874   4.021   1.075 -0.6823  0.1795  0.0437
26489SOL    HW188435   9.802   4.001   1.134 -0.6944  1.0950  0.3566
26489SOL    HW288436   9.944   4.051   1.132 -0.5797  0.7477 -0.3730
26490SOL     OW88437   3.837  12.544   0.225  0.5312  0.0687 -0.7876
26490SOL    HW188438   3.837  12.553   0.321  0.4719 -0.5436 -0.7279
26490SOL    HW288439   3.777  12.612   0.195 -1.1422 -1.1375 -0.2605
26491SOL     OW88440   5.841   3.816   2.019 -0.2099  0.1036 -0.0183
26491SOL    HW188441   5.820   3.909   2.029  0.5705  0.0664  2.7127
26491SOL    HW288442   5.759   3.771   2.042 -0.2130  0.0973 -0.0407
26492SOL     OW88443   1.787   3.981   7.893 -0.1645 -0.4393 -0.1153
26492SOL    HW188444   1.876   3.963   7.863  0.6899 -3.4357  3.5113
26492SOL    HW288445   1.731   3.944   7.825  1.1557  2.1025 -2.8130
26493SOL     OW88446   0.626   7.402   2.294  0.2143 -0.2106 -0.3093
26493SOL    HW188447   0.563   7.381   2.363 -1.3350  0.3108 -1.5046
26493SOL    HW288448   0.584   7.373   2.213  0.7039  1.7498 -1.3320
26494SOL     OW88449   8.200   6.482   6.877  0.0457 -0.4433  0.3045
26494SOL    HW188450   8.168   6.525   6.957 -2.0509 -3.7636  1.4570
26494SOL    HW288451   8.143   6.514   6.808 -0.9913 -0.7556  0.9915
26495SOL     OW88452  10.510   2.425   5.983  0.5063  0.2034  0.9119
26495SOL    HW188453  10.535   2.517   5.993 -0.1481  0.4444  0.4665
26495SOL    HW288454  10.504   2.413   5.888 -0.9362  0.1362  0.9960
26496SOL     OW88455   5.245  10.001  12.446  0.0776 -0.9251 -0.0598
26496SOL    HW188456   5.250  10.023  12.353  1.7131 -1.1042 -0.0395
26496SOL    HW288457   5.230  10.085  12.489  5.4736  0.3875 -0.0445
26497SOL     OW88458   7.633  10.082   6.401 -0.2645 -0.0748 -0.0202
26497SOL    HW188459   7.556  10.045   6.357 -1.2874  1.3813  0.4407
26497SOL    HW288460   7.684  10.006   6.429 -2.2292 -1.1447  0.8748
26498SOL     OW88461  11.635   5.883   0.867 -0.3729  0.0874 -0.3498
26498SOL    HW188462  11.726   5.891   0.896 -0.6872 -1.3739  1.2322
26498SOL    HW288463  11.587   5.944   0.923 -0.3300  1.2949 -1.5814
26499SOL     OW88464   5.495   8.808   5.139 -0.0812  0.0420  0.1208
26499SOL    HW188465   5.524   8.718   5.151  1.0957  0.5585  1.5433
26499SOL    HW288466   5.408   8.811   5.180  0.8562  0.0402  2.2621
26500SOL     OW88467  11.328   8.939   3.867  0.5507 -0.2752 -0.6478
26500SOL    HW188468  11.312   9.013   3.926  1.1831 -0.1451 -0.6253
26500SOL    HW288469  11.313   8.975   3.779  0.8796 -0.1106 -0.6381
26501SOL     OW88470   6.311   0.441  10.727 -0.0123 -0.3314 -0.3145
26501SOL    HW188471   6.278   0.410  10.643 -0.8082  2.3365 -1.0550
26501SOL    HW288472   6.244   0.501  10.759  1.1495  0.1686  1.3405
26502SOL     OW88473   2.277   1.671   7.670  0.1257  0.2187 -0.0022
26502SOL    HW188474   2.361   1.683   7.624 -0.3570 -0.0581 -0.9821
26502SOL    HW288475   2.297   1.607   7.739  0.7667  0.3148 -0.0844
26503SOL     OW88476   3.787   0.379   0.390  0.1509 -0.5098  0.9145
26503SOL    HW188477   3.819   0.466   0.416  0.0951 -0.1994 -0.0262
26503SOL    HW288478   3.693   0.390   0.381 -0.0258 -1.0034  2.0458
26504SOL     OW88479   9.608   9.543   3.825  0.6075  0.8506  0.3852
26504SOL    HW188480   9.693   9.500   3.828  0.5691  0.7780  0.4206
26504SOL    HW288481   9.600   9.577   3.736 -0.3148 -1.1265 -0.3418
26505SOL     OW88482   1.314  12.585   3.975  0.0311 -0.7549 -0.4309
26505SOL    HW188483   1.283  12.674   3.961 -0.6197 -0.9217 -0.0834
26505SOL    HW288484   1.405  12.595   4.003 -0.2663 -0.1615  0.3505
26506SOL     OW88485  10.648   7.330   3.734 -0.5676 -0.2266  0.0064
26506SOL    HW188486  10.713   7.295   3.795 -0.6767 -1.5616 -0.6009
26506SOL    HW288487  10.597   7.392   3.785  1.8384  1.7152  0.2540
26507SOL     OW88488   3.682  11.520  12.198 -0.4876 -0.4301 -0.1744
26507SOL    HW188489   3.626  11.522  12.120  0.3002 -0.5769 -0.7688
26507SOL    HW288490   3.657  11.440  12.244  0.5679 -1.6014 -1.4996
26508SOL     OW88491  12.543   7.986   5.395  0.4144  0.3889 -0.1863
26508SOL    HW188492  12.582   7.982   5.482 -0.1852  0.1927  0.0810
26508SOL    HW288493  12.448   7.984   5.411  0.2926 -0.8342 -0.8822
26509SOL     OW88494  12.176   2.387   0.352  0.6435 -0.1882 -0.8627
26509SOL    HW188495  12.090   2.356   0.379  0.5728  0.9053  0.2737
26509SOL    HW288496  12.204   2.327   0.284 -0.9847 -0.6040 -1.1795
26510SOL     OW88497   2.148   9.217   9.305 -0.3161 -0.3436 -0.5594
26510SOL    HW188498   2.220   9.273   9.335  0.0409 -0.5886 -0.9452
26510SOL    HW288499   2.132   9.158   9.378 -1.3643  0.8777  0.2510
26511SOL     OW88500  10.088   7.384  10.146  0.5106 -0.5533  0.2304
26511SOL    HW188501  10.123   7.301  10.115 -1.6455 -1.8105  0.9738
26511SOL    HW288502  10.037   7.417  10.072  2.0651  0.6049 -0.3774
26512SOL     OW88503   6.591   1.274  10.311 -0.4238 -0.0053 -0.1984
26512SOL    HW188504   6.651   1.249  10.241 -0.1900 -0.7761  0.2613
26512SOL    HW288505   6.567   1.191  10.352  0.3270  0.5017  1.3530
26513SOL     OW88506   0.354  10.617   8.640 -0.3093 -0.0806  0.1659
26513SOL    HW188507   0.335  10.533   8.598  0.6073 -0.2099 -0.0093
26513SOL    HW288508   0.443  10.639   8.611  0.0144  0.2479  1.3598
26514SOL     OW88509   1.817  12.054   5.979 -0.2638 -0.9623  0.0644
26514SOL    HW188510   1.901  12.010   5.991  0.6007 -1.1510 -4.8255
26514SOL    HW288511   1.757  11.985   5.951 -0.5638 -0.0505 -1.6678
26515SOL     OW88512   5.575   4.522  12.521 -0.1077  0.3730 -0.0116
26515SOL    HW188513   5.669   4.501  12.524  0.1755  1.6207  0.5159
26515SOL    HW288514   5.561   4.552  12.431 -0.1739 -0.5470 -0.3115
26516SOL     OW88515   6.930   2.861   4.690 -0.1609 -0.0067 -0.4953
26516SOL    HW188516   6.921   2.931   4.625 -1.6747 -0.2893 -0.6172
26516SOL    HW288517   7.024   2.839   4.688  0.3571  1.9871 -0.4562
26517SOL     OW88518   7.605   1.363   5.060  0.4154  0.1095  0.0932
26517SOL    HW188519   7.527   1.417   5.070 -0.6217 -1.5065  1.2586
26517SOL    HW288520   7.615   1.319   5.144  1.0674 -1.6493 -0.8425
26518SOL     OW88521   4.998   0.966   3.238  0.2534  0.1785  0.7998
26518SOL    HW188522   4.946   1.028   3.288 -0.2660  1.9061 -1.7064
26518SOL    HW288523   5.074   0.947   3.294 -0.1188  2.2328  2.0802
26519SOL     OW88524   8.320  11.836   6.848 -0.2869  0.0405  0.4866
26519SOL    HW188525   8.272  11.917   6.833 -0.1898 -0.3807 -2.7297
26519SOL    HW288526   8.298  11.811   6.938  0.4149  4.0358  1.9637
26520SOL     OW88527   1.517   5.624  12.422  0.0369 -0.3359 -0.3432
26520SOL    HW188528   1.434   5.603  12.465 -0.7094  2.0383 -0.4735
26520SOL    HW288529   1.569   5.544  12.429 -1.5013 -1.2432  1.5322
26521SOL     OW88530   8.868   4.022   6.257  0.1351 -0.1532 -0.4100
26521SOL    HW188531   8.782   4.061   6.274 -0.5045 -1.7227  0.0999
26521SOL    HW288532   8.905   4.075   6.186 -1.2127  0.5991 -0.5760
26522SOL     OW88533  11.932   3.970   9.411 -0.0346  0.4280  0.1848
26522SOL    HW188534  11.967   4.038   9.353 -1.4599 -0.2762 -1.6122
26522SOL    HW288535  11.992   3.897   9.402 -0.3938  0.2257 -0.6646
26523SOL     OW88536   8.313   0.682   0.741  0.3426 -0.3976 -0.8113
26523SOL    HW188537   8.368   0.608   0.767  2.7554  1.6921  0.5293
26523SOL    HW288538   8.356   0.717   0.663  0.1944  0.4944 -0.5106
26524SOL     OW88539  11.958   0.946   5.398  0.4454  0.3141 -0.0390
26524SOL    HW188540  11.987   0.885   5.330 -0.4990 -1.5611  1.1590
26524SOL    HW288541  11.928   0.889   5.469 -0.6798  2.2031  1.0511
26525SOL     OW88542  11.868  10.484   1.366 -0.0717  0.1789 -0.6610
26525SOL    HW188543  11.847  10.401   1.409 -2.7628  1.8799  1.6739
26525SOL    HW288544  11.803  10.493   1.296 -0.5975  0.8287 -0.1039
26526SOL     OW88545   0.740   2.709   1.593 -0.3863  0.2415  0.1374
26526SOL    HW188546   0.692   2.665   1.664 -0.3726 -0.8220 -0.4938
26526SOL    HW288547   0.683   2.782   1.568 -0.2511  0.8104  1.4348
26527SOL     OW88548   0.184  10.054   5.622 -0.0752  0.2885  0.2379
26527SOL    HW188549   0.147  10.008   5.546 -0.2359 -0.1983  0.6073
26527SOL    HW288550   0.259  10.001   5.648  0.1827  0.6411  0.2087
26528SOL     OW88551   1.826  12.215   6.223  0.3853 -0.3829  0.0062
26528SOL    HW188552   1.840  12.189   6.132  0.0411  0.4347 -0.2840
26528SOL    HW288553   1.912  12.203   6.264  0.0811 -2.6973  0.0881
26529SOL     OW88554   2.166  12.068   1.876 -0.0223 -0.5917 -0.1233
26529SOL    HW188555   2.159  11.980   1.914 -0.4152 -0.4708  0.0928
26529SOL    HW288556   2.100  12.119   1.923 -1.6568 -0.8102 -2.0474
26530SOL     OW88557  12.517   2.589   9.929  0.0887 -0.4080  0.2403
26530SOL    HW188558  12.604   2.576   9.966 -0.0206 -2.4016 -0.0941
26530SOL    HW288559  12.523   2.673   9.883  1.8141 -0.4822  0.2523
26531SOL     OW88560   1.317   6.138   6.421  0.6970 -0.5048 -0.4848
26531SOL    HW188561   1.312   6.233   6.408  0.6795 -0.5765 -1.0143
26531SOL    HW288562   1.239   6.116   6.472  0.2055 -0.3650 -1.1685
26532SOL     OW88563   7.699  12.493   8.773 -0.7580  0.0161  0.3811
26532SOL    HW188564   7.791  12.496   8.748 -0.8061  1.7164  0.2493
26532SOL    HW288565   7.672  12.585   8.775 -2.0229 -0.3390  2.0172
26533SOL     OW88566   9.248   4.463  11.513 -0.2813  0.3310 -0.3601
26533SOL    HW188567   9.193   4.525  11.466 -0.3699  0.0228 -0.6645
26533SOL    HW288568   9.188   4.394  11.540 -0.2441  0.5358  0.2651
26534SOL     OW88569   4.420   8.239   2.736  0.1799  0.2920 -0.5745
26534SOL    HW188570   4.404   8.314   2.678  0.1947 -0.0422 -1.0166
26534SOL    HW288571   4.415   8.163   2.678  3.3994  0.1229 -0.7596
26535SOL     OW88572   9.693   5.774   3.343 -0.3755 -0.0162  0.2804
26535SOL    HW188573   9.753   5.843   3.314 -0.1566 -0.7535 -1.0760
26535SOL    HW288574   9.737   5.736   3.419  1.3976 -1.1610 -1.2239
26536SOL     OW88575  11.883   1.420   2.054  0.1424 -0.4866 -0.0942
26536SOL    HW188576  11.974   1.406   2.027  0.5747  0.7425  0.6629
26536SOL    HW288577  11.874   1.373   2.136  1.3312  2.5885  1.9683
26537SOL     OW88578   0.691   1.375  10.735  0.3483  0.2360 -0.1586
26537SOL    HW188579   0.603   1.350  10.705  0.1209  0.2853  0.4582
26537SOL    HW288580   0.741   1.387  10.654  0.1057 -0.9297 -0.5039
26538SOL     OW88581   6.951   5.129   1.432  0.0384 -0.0752 -0.4658
26538SOL    HW188582   7.022   5.094   1.486 -1.4114 -1.3367  0.7202
26538SOL    HW288583   6.923   5.209   1.477  0.4842  0.2443 -0.7535
26539SOL     OW88584   6.715   5.996  10.806  0.3604  0.0955 -0.3247
26539SOL    HW188585   6.801   6.019  10.771  0.0971  1.7317  0.0267
26539SOL    HW288586   6.667   6.079  10.807 -1.3818 -0.8600 -0.9262
26540SOL     OW88587   2.794   5.136   7.195 -0.2270 -0.0832 -0.1659
26540SOL    HW188588   2.790   5.231   7.182  0.1800 -0.0726 -0.2405
26540SOL    HW288589   2.727   5.117   7.260 -0.0165  0.3156  0.1687
26541SOL     OW88590   1.868   9.484   8.597  0.2964 -0.5319  0.6965
26541SOL    HW188591   1.957   9.502   8.564  0.1859  0.5601  0.9570
26541SOL    HW288592   1.835   9.416   8.539  0.6226  0.3603 -0.5841
26542SOL     OW88593   1.462   9.346   9.225 -0.2072  0.1050  0.0825
26542SOL    HW188594   1.513   9.324   9.303 -0.7146  0.7013  0.5932
26542SOL    HW288595   1.443   9.262   9.184 -1.2526 -0.3644  1.4490
26543SOL     OW88596  12.082   9.655   1.102 -0.5306 -0.3186 -0.2682
26543SOL    HW188597  12.131   9.579   1.069 -2.5423 -0.6172 -2.8828
26543SOL    HW288598  12.107   9.727   1.043 -0.4050  0.4757  0.7374
26544SOL     OW88599   7.726   7.612   8.571  0.2668 -0.5583 -0.9981
26544SOL    HW188600   7.663   7.631   8.641  2.6683  0.1455  1.1173
26544SOL    HW288601   7.756   7.698   8.542  0.5834 -0.8888 -1.6576
26545SOL     OW88602  11.409   4.724   3.616 -0.0138  0.7968  0.3915
26545SOL    HW188603  11.449   4.761   3.537  0.7412  1.7908  1.2214
26545SOL    HW288604  11.474   4.737   3.685 -0.5529 -0.2931  1.1427
26546SOL     OW88605   8.837   0.469   3.361  0.4394 -0.2741  0.1890
26546SOL    HW188606   8.770   0.406   3.386  0.8180 -0.7712 -0.0337
26546SOL    HW288607   8.860   0.446   3.271  0.3409  0.3955 -0.0123
26547SOL     OW88608  11.382   0.260   2.822 -0.1613 -0.4940  0.0449
26547SOL    HW188609  11.344   0.325   2.881  0.9042 -0.8779  1.1796
26547SOL    HW288610  11.318   0.190   2.818 -0.9400  0.2274 -0.5189
26548SOL     OW88611   5.342   1.849  11.049 -0.4935  0.6728  0.0379
26548SOL    HW188612   5.405   1.920  11.041 -2.0544  2.0820 -0.2183
26548SOL    HW288613   5.257   1.890  11.037 -1.5556 -1.0005  1.3476
26549SOL     OW88614   4.037   4.043  12.121 -0.1413 -0.2414 -0.3782
26549SOL    HW188615   4.012   4.072  12.208 -1.1559  0.0365 -0.7472
26549SOL    HW288616   4.054   4.124  12.073 -1.2162 -0.2947 -0.8929
26550SOL     OW88617  12.115   4.655   8.489 -0.8014 -0.3560  0.2905
26550SOL    HW188618  12.076   4.705   8.417 -1.1933 -2.0718 -0.7314
26550SOL    HW288619  12.062   4.679   8.565 -0.5610  1.2663 -0.0050
26551SOL     OW88620   8.649   8.126  10.496 -0.1695 -0.0382  0.1530
26551SOL    HW188621   8.732   8.171  10.479  0.0742 -0.0983  1.0934
26551SOL    HW288622   8.582   8.186  10.463  0.2918 -0.9773 -2.7000
26552SOL     OW88623   3.170   3.451   2.881  0.1088 -0.2442  0.6390
26552SOL    HW188624   3.112   3.525   2.894  0.6836  0.4938 -0.7148
26552SOL    HW288625   3.158   3.427   2.788 -2.4460 -3.9327  1.6827
26553SOL     OW88626   8.672   9.649   8.095  0.8515  0.0182  0.3329
26553SOL    HW188627   8.654   9.727   8.149  0.2785 -0.6729  1.1650
26553SOL    HW288628   8.757   9.619   8.124  1.7023  1.0801 -0.9319
26554SOL     OW88629   8.641   7.952   1.233 -0.2707  0.6111  0.2882
26554SOL    HW188630   8.663   7.860   1.218 -2.5241  0.0005  0.2646
26554SOL    HW288631   8.708   8.001   1.186 -1.6784 -1.0940 -4.0510
26555SOL     OW88632   3.940   8.714   7.469  0.0079 -0.3302 -0.3161
26555SOL    HW188633   3.996   8.689   7.543 -0.6740  0.3212  0.4301
26555SOL    HW288634   3.982   8.674   7.393  1.8877  0.7134  0.1128
26556SOL     OW88635   1.195   9.417   7.407 -0.2934 -0.5503  0.2508
26556SOL    HW188636   1.287   9.391   7.396 -0.6947 -2.4882  0.9147
26556SOL    HW288637   1.161   9.423   7.318  0.3846 -0.1610  0.0080
26557SOL     OW88638   1.950   3.231   5.111 -0.2725 -0.6612  0.3733
26557SOL    HW188639   1.863   3.245   5.148  0.0958  1.8512  0.4417
26557SOL    HW288640   2.001   3.306   5.140  2.1480 -2.3797  0.8724
26558SOL     OW88641   7.799   0.851  10.265  0.7789  0.1707  0.5534
26558SOL    HW188642   7.745   0.870  10.342 -0.6951 -2.1743  0.1774
26558SOL    HW288643   7.740   0.863  10.191  0.9940 -1.4938  0.0733
26559SOL     OW88644  10.352   3.106  10.618  0.0885  0.1531  0.2823
26559SOL    HW188645  10.302   3.134  10.541 -1.0144  0.2310  0.9902
26559SOL    HW288646  10.430   3.160  10.617 -0.8208  1.5239  0.2377
26560SOL     OW88647  11.100   3.021   6.255 -0.1921 -0.3535 -0.4382
26560SOL    HW188648  11.173   3.069   6.215 -0.0795  0.7816  1.0597
26560SOL    HW288649  11.022   3.067   6.224 -0.0573  1.4497  1.6719
26561SOL     OW88650  11.626   7.474   5.350 -0.1678 -0.1293 -0.4459
26561SOL    HW188651  11.615   7.454   5.257  1.7191  0.7403 -0.9035
26561SOL    HW288652  11.581   7.557   5.363  0.1405  0.0914 -0.7598
26562SOL     OW88653   8.709   7.891   0.589  0.6705  0.8608  0.1574
26562SOL    HW188654   8.746   7.806   0.561 -0.8969  0.4561 -0.8010
26562SOL    HW288655   8.680   7.876   0.679  1.2560  0.6658  0.3181
26563SOL     OW88656  10.144   9.027   5.129  0.1988  0.0658  0.4216
26563SOL    HW188657  10.140   8.946   5.078 -2.4291  1.6154 -2.1214
26563SOL    HW288658  10.163   9.095   5.064 -1.4730  1.9383  1.7689
26564SOL     OW88659  10.478   5.949  10.200  0.5920 -0.4170  0.1519
26564SOL    HW188660  10.505   6.038  10.181  1.5664 -0.7364 -0.0183
26564SOL    HW288661  10.432   5.954  10.284  1.2104  0.1447  0.4605
26565SOL     OW88662   9.047   2.486  11.219  0.2214 -0.0725 -0.1247
26565SOL    HW188663   9.026   2.570  11.179  1.5136 -0.1265 -1.0031
26565SOL    HW288664   8.967   2.460  11.265 -0.0769  1.7999  0.4952
26566SOL     OW88665   1.857   7.014   2.274  0.0859  0.6457 -0.3662
26566SOL    HW188666   1.827   7.051   2.191  1.4063  1.4694 -0.4953
26566SOL    HW288667   1.949   6.992   2.259 -0.3283 -1.6567  0.0714
26567SOL     OW88668  10.742   5.081   5.413  0.1484  0.0103  0.6158
26567SOL    HW188669  10.720   5.019   5.482 -1.4534  0.8102  0.8506
26567SOL    HW288670  10.714   5.039   5.332 -2.9232  1.1954  0.9405
26568SOL     OW88671  12.491   6.820   7.865  0.0595  0.0301 -0.0021
26568SOL    HW188672  12.540   6.898   7.891 -1.8693  0.7716  1.8106
26568SOL    HW288673  12.417   6.854   7.814  0.1006 -0.7896 -0.6259
26569SOL     OW88674   7.885   2.536  10.009 -0.5035 -0.3387  0.5202
26569SOL    HW188675   7.978   2.538   9.990 -0.7984 -0.4014 -1.0433
26569SOL    HW288676   7.880   2.541  10.105  1.0316  2.3478  0.5690
26570SOL     OW88677   4.396  10.247   1.415 -0.1928  0.2812  0.4812
26570SOL    HW188678   4.414  10.334   1.449 -0.4212 -0.0184  1.3996
26570SOL    HW288679   4.437  10.246   1.329  0.5245  1.0226  0.8013
26571SOL     OW88680   4.069   2.303   5.755 -0.0965  0.5019  0.0374
26571SOL    HW188681   4.021   2.283   5.675  0.5065 -0.5207 -0.0937
26571SOL    HW288682   4.058   2.225   5.809  1.1200  0.3849  0.1428
26572SOL     OW88683  12.504   6.311   3.062 -0.1198  0.3533  0.0846
26572SOL    HW188684  12.464   6.225   3.074  0.5837 -0.0059 -0.0636
26572SOL    HW288685  12.458   6.350   2.988  0.9429 -0.7656 -1.2068
26573SOL     OW88686   5.418   4.190   3.168  0.1465  0.1631  0.3720
26573SOL    HW188687   5.488   4.124   3.173  0.2032  0.1183 -0.6945
26573SOL    HW288688   5.464   4.274   3.174 -0.1429  0.2110  4.5277
26574SOL     OW88689   4.833   0.869   8.003  0.4764  0.3516  0.0520
26574SOL    HW188690   4.758   0.829   7.960 -0.5160 -0.1470  2.1442
26574SOL    HW288691   4.850   0.949   7.953 -1.5200  0.5463 -0.3781
26575SOL     OW88692   7.037   7.901   4.927  0.2262  0.0682  0.2452
26575SOL    HW188693   7.002   7.962   4.992 -2.0335 -2.5980  1.7605
26575SOL    HW288694   7.109   7.857   4.973 -0.1367 -0.4964  0.2806
26576SOL     OW88695   8.189   8.057   4.746  0.0039  0.0103  0.3333
26576SOL    HW188696   8.097   8.034   4.755  0.2790 -1.0621  0.4994
26576SOL    HW288697   8.209   8.107   4.826 -0.4423  0.3161  0.2599
26577SOL     OW88698   3.000   2.888   4.527 -0.0329  0.3277 -0.2253
26577SOL    HW188699   3.037   2.862   4.443 -1.5973  0.7858 -1.0919
26577SOL    HW288700   3.051   2.964   4.554 -1.4453  2.1286 -2.3209
26578SOL     OW88701   8.267   0.380   9.720  0.2375  0.2223  0.3483
26578SOL    HW188702   8.245   0.296   9.679 -2.7954  0.8041  0.5926
26578SOL    HW288703   8.363   0.382   9.719  0.3864 -2.5106 -1.1031
26579SOL     OW88704  11.666  12.055   9.580 -0.1158  0.5711 -0.4497
26579SOL    HW188705  11.758  12.036   9.595 -0.1818  0.2715 -0.4064
26579SOL    HW288706  11.658  12.067   9.486 -0.2699 -0.7965 -0.6447
26580SOL     OW88707  12.400   8.553   8.120 -0.2121 -0.3382 -0.2573
26580SOL    HW188708  12.403   8.477   8.177  0.7271  0.8680  1.3873
26580SOL    HW288709  12.324   8.538   8.063 -2.5973 -0.6144  2.7667
26581SOL     OW88710   5.413   5.740   4.013  0.1424  0.1045 -0.4044
26581SOL    HW188711   5.417   5.824   3.968 -2.2789 -0.0377 -0.9976
26581SOL    HW288712   5.433   5.761   4.105  0.4510  1.1666 -0.7072
26582SOL     OW88713   9.170   4.872   2.853  0.0283 -0.9053 -0.4722
26582SOL    HW188714   9.208   4.832   2.775  1.6632 -0.1945 -0.0834
26582SOL    HW288715   9.189   4.810   2.923 -0.9981 -1.3075 -0.5322
26583SOL     OW88716   5.898   3.911   8.813  0.0798  0.0354 -0.4653
26583SOL    HW188717   5.959   3.862   8.868  0.4537  0.6720 -0.2985
26583SOL    HW288718   5.951   3.981   8.774 -0.8007  1.4721  0.7754
26584SOL     OW88719   5.545   0.551  11.307  0.1199 -0.4171  0.4276
26584SOL    HW188720   5.521   0.464  11.340 -1.9538 -0.0652  0.0206
26584SOL    HW288721   5.498   0.611  11.364 -3.9003  0.2117 -3.0756
26585SOL     OW88722   2.143  10.253   6.667 -0.2626 -0.3868 -0.1031
26585SOL    HW188723   2.234  10.226   6.682 -0.2437 -1.1611 -1.4364
26585SOL    HW288724   2.134  10.255   6.571 -1.2798  0.9713 -0.0028
26586SOL     OW88725   3.757  10.127   4.741  0.5613  0.0466 -0.1842
26586SOL    HW188726   3.688  10.083   4.691  0.5443  1.0161 -1.0506
26586SOL    HW288727   3.719  10.212   4.763  0.3934 -0.5334  1.9231
26587SOL     OW88728   1.158   4.630  11.040  0.1086 -0.3626 -0.2832
26587SOL    HW188729   1.196   4.718  11.050 -2.4825  0.7988  0.2174
26587SOL    HW288730   1.111   4.615  11.122  0.5878 -2.3060 -0.3216
26588SOL     OW88731  11.641   9.795   8.109  0.2292 -0.1608  0.3380
26588SOL    HW188732  11.719   9.756   8.147  1.2635  1.3863 -0.0969
26588SOL    HW288733  11.569   9.763   8.163  1.1570 -1.5485  0.8024
26589SOL     OW88734  11.148   4.191   8.348 -0.3502 -0.2209 -0.0170
26589SOL    HW188735  11.131   4.099   8.326  0.5522 -0.4877  0.3533
26589SOL    HW288736  11.233   4.210   8.309 -0.0360  0.1372  0.8035
26590SOL     OW88737  10.618   3.033   7.016 -0.2422 -0.3292  0.4628
26590SOL    HW188738  10.618   3.023   7.111  1.0368 -0.4454  0.4674
26590SOL    HW288739  10.554   3.101   6.999  0.8239  1.0126  1.5740
26591SOL     OW88740   2.718   4.199   1.680 -0.0823  0.4488 -0.0348
26591SOL    HW188741   2.660   4.204   1.756 -0.3629 -0.0049 -0.2151
26591SOL    HW288742   2.661   4.217   1.605  0.1089  0.4686 -0.1769
26592SOL     OW88743   1.470   3.841   9.050  0.3722  0.5343 -0.3040
26592SOL    HW188744   1.411   3.912   9.023 -0.3373 -0.3377 -1.1251
26592SOL    HW288745   1.435   3.811   9.134  0.9397  1.4252  0.2722
26593SOL     OW88746   0.397   8.948   9.292 -0.1777  0.4515 -0.0294
26593SOL    HW188747   0.467   8.943   9.227  1.3040  0.7174  1.4875
26593SOL    HW288748   0.325   8.991   9.246  1.1209  1.4344 -1.2409
26594SOL     OW88749   9.310   0.503   5.364  0.5125  0.2264 -0.5956
26594SOL    HW188750   9.326   0.595   5.340 -2.0204  0.5222 -1.4322
26594SOL    HW288751   9.263   0.467   5.289 -1.7989 -0.7049  1.2013
26595SOL     OW88752   1.512   0.659   9.807 -0.3812 -0.1095 -0.4784
26595SOL    HW188753   1.470   0.595   9.863  1.1859  0.4995  1.5018
26595SOL    HW288754   1.470   0.742   9.828 -0.7125 -0.0860 -1.2134
26596SOL     OW88755   0.800   3.013  12.507 -0.2694  0.8119 -0.3320
26596SOL    HW188756   0.798   3.058  12.423 -0.7875  0.8140 -0.3203
26596SOL    HW288757   0.709   2.990  12.524 -0.5000  2.6534  1.2408
26597SOL     OW88758   4.189   5.828   3.488 -0.3528 -0.1746  0.2833
26597SOL    HW188759   4.185   5.785   3.402 -3.1372  0.3834  0.0495
26597SOL    HW288760   4.194   5.756   3.551  0.9921 -0.6109 -0.2927
26598SOL     OW88761  11.549  10.101  12.385  0.0580  0.6455  0.0147
26598SOL    HW188762  11.537  10.134  12.296  0.7337  0.8555 -0.0045
26598SOL    HW288763  11.627  10.146  12.417  0.3621 -0.1202  0.3829
26599SOL     OW88764   8.667   2.392   4.485  0.6100 -0.1717  0.7597
26599SOL    HW188765   8.593   2.447   4.509  0.8213  1.2316 -1.5159
26599SOL    HW288766   8.634   2.335   4.416  1.5681  0.3660 -0.1709
26600SOL     OW88767   4.931   9.206  10.216  0.8238  0.2488  0.6071
26600SOL    HW188768   4.839   9.179  10.206  1.4206 -1.5972 -0.4015
26600SOL    HW288769   4.947   9.202  10.310 -0.3011  1.2835  0.8719
26601SOL     OW88770   5.495   7.398   3.202 -0.2014  0.0754  0.3927
26601SOL    HW188771   5.524   7.309   3.180 -1.5057 -0.2791  0.0089
26601SOL    HW288772   5.454   7.389   3.288 -0.9926  0.1411  0.0349
26602SOL     OW88773  10.441   0.285   4.670  0.2589 -0.3522 -0.3355
26602SOL    HW188774  10.371   0.333   4.627  1.0762 -0.4635 -1.8589
26602SOL    HW288775  10.434   0.309   4.763 -1.5475 -0.1057 -0.5032
26603SOL     OW88776   9.407   4.072   8.559 -0.4346 -0.0579 -0.1928
26603SOL    HW188777   9.376   4.010   8.493 -1.1673 -0.6661  0.7040
26603SOL    HW288778   9.337   4.075   8.625  0.3196  0.4642  0.6106
26604SOL     OW88779   8.283  10.748   4.686 -0.1830  0.1998 -0.0256
26604SOL    HW188780   8.238  10.664   4.694 -1.2460  0.7565  0.0012
26604SOL    HW288781   8.274  10.787   4.773  0.7327  0.1401  0.1028
26605SOL     OW88782   3.227   9.138   9.522  0.1125  0.6146  0.0259
26605SOL    HW188783   3.255   9.185   9.600  0.6094  2.1696 -1.0335
26605SOL    HW288784   3.132   9.151   9.520  0.0270  0.1462  0.6110
26606SOL     OW88785   7.491   8.372   2.350  0.1294 -0.6339  0.6585
26606SOL    HW188786   7.464   8.320   2.426 -1.5385 -0.5511  0.1631
26606SOL    HW288787   7.412   8.418   2.323  0.6421 -0.7529 -1.2113
26607SOL     OW88788   1.012   8.425   9.910 -0.3219 -0.0335  0.0595
26607SOL    HW188789   0.942   8.420   9.974 -0.4457 -1.0881 -0.1286
26607SOL    HW288790   1.019   8.518   9.888 -1.9932  0.0422 -0.2842
26608SOL     OW88791   3.599   4.054   8.865  0.3382  0.0677 -0.3662
26608SOL    HW188792   3.647   3.984   8.911 -0.5626 -1.0023 -0.9856
26608SOL    HW288793   3.567   4.012   8.785 -2.6805  0.3275  0.5830
26609SOL     OW88794   7.697   2.721   6.381 -0.1127  0.2020 -0.2969
26609SOL    HW188795   7.664   2.710   6.292  1.4940  0.8703 -1.0224
26609SOL    HW288796   7.687   2.635   6.421  1.7186 -0.9448 -2.0752
26610SOL     OW88797  10.884   3.948  10.173 -0.5791 -0.3336  0.2040
26610SOL    HW188798  10.899   3.956  10.267 -0.2813  1.9639  0.0238
26610SOL    HW288799  10.803   3.998  10.157  0.2721  0.7675 -0.9350
26611SOL     OW88800  12.562   6.976  10.418 -0.5492 -0.5178  0.1385
26611SOL    HW188801  12.474   6.979  10.380 -0.1041 -1.0501 -0.9875
26611SOL    HW288802  12.550   6.931  10.502 -1.4918  0.3249  0.4729
26612SOL     OW88803   4.051   5.158   7.613 -0.1049  0.3212  0.0285
26612SOL    HW188804   4.085   5.212   7.541 -1.3749  1.9363  0.5702
26612SOL    HW288805   4.128   5.140   7.668  0.3439  1.7207 -0.1054
26613SOL     OW88806   5.277   2.113  12.412  0.1102 -0.3023  0.8989
26613SOL    HW188807   5.350   2.116  12.474 -2.0573  2.2525  3.6786
26613SOL    HW288808   5.287   2.193  12.360 -0.1488 -0.4602  0.6069
26614SOL     OW88809   3.023   0.987   7.473  0.5957 -0.0627 -0.5959
26614SOL    HW188810   3.118   0.983   7.462  0.7880 -1.7536  1.1339
26614SOL    HW288811   2.987   0.936   7.401  0.9919  0.3320 -1.0810
26615SOL     OW88812   1.685   0.408   1.476  0.0616 -0.0450  0.2389
26615SOL    HW188813   1.659   0.318   1.458 -0.4832  0.1627 -0.0427
26615SOL    HW288814   1.758   0.400   1.538  0.6250 -0.7003 -0.4854
26616SOL     OW88815   7.426   2.033   6.231  0.4260 -0.5773  0.8642
26616SOL    HW188816   7.389   2.108   6.186 -1.5855 -2.1020 -0.1917
26616SOL    HW288817   7.521   2.045   6.224  0.1498  1.0214 -0.6866
26617SOL     OW88818   2.504   6.143   3.173 -0.0546  0.7501 -0.1287
26617SOL    HW188819   2.493   6.081   3.101 -0.5789  0.2075  0.4080
26617SOL    HW288820   2.432   6.124   3.232  0.6245  0.8895  0.7598
26618SOL     OW88821   9.206   2.339   5.078 -0.1270 -0.1697  0.1788
26618SOL    HW188822   9.194   2.244   5.080 -1.2153 -0.0257  1.6432
26618SOL    HW288823   9.183   2.363   4.988 -4.4783 -0.7884  0.9086
26619SOL     OW88824   1.735   7.796   2.960  0.1009 -0.0565 -0.7438
26619SOL    HW188825   1.747   7.764   2.870 -0.5326 -0.3725 -0.7150
26619SOL    HW288826   1.652   7.843   2.958  0.1125 -0.0175 -0.3296
26620SOL     OW88827  11.771   0.576   4.310  0.0974  0.7813 -0.4814
26620SOL    HW188828  11.782   0.670   4.325  1.7548  0.5434  0.0351
26620SOL    HW288829  11.702   0.549   4.369  0.0977  1.5545 -0.1242
26621SOL     OW88830   9.747   1.751  12.169  0.4508  0.1596 -0.0486
26621SOL    HW188831   9.840   1.772  12.158  0.4299  0.6606  0.6752
26621SOL    HW288832   9.734   1.671  12.117  0.9739  0.8529 -1.2946
26622SOL     OW88833   7.230  12.413   7.146  0.2439 -0.3910  0.4917
26622SOL    HW188834   7.317  12.447   7.124  0.3210  0.6727  2.2603
26622SOL    HW288835   7.172  12.488   7.139 -0.5627 -1.0828 -0.6111
26623SOL     OW88836  10.606   0.108   5.846  0.1348 -0.1873 -0.2168
26623SOL    HW188837  10.613   0.202   5.867  1.1838 -0.0523 -1.0483
26623SOL    HW288838  10.693   0.073   5.866 -0.2312 -0.9704  0.0219
26624SOL     OW88839   0.935   5.210   8.130  0.2860 -0.6021  0.4882
26624SOL    HW188840   1.004   5.156   8.170  1.6144  0.5538 -0.1480
26624SOL    HW288841   0.946   5.195   8.036  1.1248  1.2287  0.2521
26625SOL     OW88842   5.359   8.751   0.839  0.2098  0.4450 -0.5531
26625SOL    HW188843   5.393   8.832   0.876  0.3146  0.6264 -1.0341
26625SOL    HW288844   5.306   8.779   0.764 -0.1592  0.1024 -0.4280
26626SOL     OW88845   1.504   8.110   0.832  0.3218 -0.0956  0.2384
26626SOL    HW188846   1.459   8.061   0.901 -0.5953  1.0296  0.4714
26626SOL    HW288847   1.434   8.158   0.788  0.8750 -0.9121 -1.5910
26627SOL     OW88848   7.316   2.219  10.254  0.2284  0.4825  0.0678
26627SOL    HW188849   7.396   2.168  10.264  0.3550  0.8940  1.2953
26627SOL    HW288850   7.346   2.304  10.222  0.3451  0.8051  1.0154
26628SOL     OW88851   7.503  11.319  12.436  0.0639  0.3574  0.0848
26628SOL    HW188852   7.413  11.351  12.431  0.2270  0.6447 -2.0410
26628SOL    HW288853   7.507  11.249  12.371  0.8898 -1.0226  1.5654
26629SOL     OW88854   3.880  11.022   7.462  0.2609 -0.0506 -0.0908
26629SOL    HW188855   3.906  10.945   7.412 -1.2789 -0.9169  0.3991
26629SOL    HW288856   3.785  11.026   7.454  0.1341  0.7743  1.3417
26630SOL     OW88857   1.508   9.937   9.854  0.0973  0.4730 -0.1455
26630SOL    HW188858   1.562  10.016   9.864  0.9286 -0.0116 -0.7100
26630SOL    HW288859   1.560   9.868   9.895 -0.2899  0.0722 -0.3292
26631SOL     OW88860   7.105   0.316   6.016 -0.4925 -0.3048 -0.2964
26631SOL    HW188861   7.114   0.386   5.952 -0.7352 -0.5856 -0.6384
26631SOL    HW288862   7.101   0.236   5.964 -2.2945 -0.4291 -0.0420
26632SOL     OW88863  12.108   3.769  11.309 -0.2934  0.4931  0.5515
26632SOL    HW188864  12.165   3.751  11.234  0.8923  1.4444  1.1923
26632SOL    HW288865  12.167   3.774  11.384 -1.0825  2.3607  1.1184
26633SOL     OW88866   6.766   5.941   5.356 -0.2968  0.0213 -0.5020
26633SOL    HW188867   6.722   5.867   5.396 -0.2388 -0.6419 -1.6319
26633SOL    HW288868   6.826   5.902   5.293 -0.2474  1.0244 -1.0966
26634SOL     OW88869   0.451   7.453   5.116  0.2726 -0.4104  0.0126
26634SOL    HW188870   0.403   7.425   5.037  1.2800 -1.0939 -0.3752
26634SOL    HW288871   0.520   7.510   5.083 -0.7009  1.1794  0.6424
26635SOL     OW88872  11.314   8.720  11.710  0.2546 -0.1470 -0.2374
26635SOL    HW188873  11.402   8.755  11.718  0.1146  0.1352  0.0738
26635SOL    HW288874  11.322   8.627  11.732  0.6029 -0.2972 -0.9414
26636SOL     OW88875   9.040   5.792   3.099 -0.5687 -0.1061  0.4589
26636SOL    HW188876   9.042   5.807   3.194  4.2513  2.9937  0.1963
26636SOL    HW288877   9.113   5.732   3.083 -0.8891 -0.0546 -1.3731
26637SOL     OW88878   9.611   4.347   3.487  0.4679 -0.0747  0.2800
26637SOL    HW188879   9.578   4.286   3.420  1.2741  1.2908 -1.4520
26637SOL    HW288880   9.706   4.333   3.487  0.4420 -0.3472  1.4793
26638SOL     OW88881  12.478   1.218   8.753 -0.2312  0.0816  0.0548
26638SOL    HW188882  12.455   1.298   8.705 -2.0914 -0.2100  0.4060
26638SOL    HW288883  12.395   1.171   8.764 -0.1919  0.6316  4.5144
26639SOL     OW88884  12.444   2.062  12.254 -0.0269 -0.0549 -0.4814
26639SOL    HW188885  12.509   1.998  12.226 -0.2815 -0.5491  0.0283
26639SOL    HW288886  12.490   2.118  12.316 -0.1705 -0.6135  0.1382
26640SOL     OW88887   9.706   3.750   8.622 -0.3246  0.4215  0.4096
26640SOL    HW188888   9.721   3.663   8.586 -1.0913  0.3808  0.1542
26640SOL    HW288889   9.701   3.807   8.545  1.4186  0.9211  0.6231
26641SOL     OW88890   4.536   6.090   8.942 -0.0200 -0.0730 -0.0984
26641SOL    HW188891   4.445   6.061   8.944 -0.3730  0.9874  0.1792
26641SOL    HW288892   4.551   6.114   8.851 -0.9589  2.4475  0.3203
26642SOL     OW88893   7.811  11.274   7.225 -0.0941  0.4077  0.1524
26642SOL    HW188894   7.744  11.233   7.279 -0.9064  2.4589  0.8072
26642SOL    HW288895   7.780  11.364   7.212  1.0780  0.5682 -2.0446
26643SOL     OW88896   1.372   0.260   6.373  0.2168 -0.5453 -0.0044
26643SOL    HW188897   1.289   0.308   6.382 -0.5619 -2.0109  1.0616
26643SOL    HW288898   1.346   0.174   6.341  1.2659 -1.1861  0.8251
26644SOL     OW88899   8.367  10.109   3.109 -0.5021 -0.3196  0.0577
26644SOL    HW188900   8.323  10.128   3.026 -0.2424  2.8106  0.5327
26644SOL    HW288901   8.323  10.164   3.173  0.9365 -0.7908  1.5324
26645SOL     OW88902   9.637   9.017  10.706 -0.5180 -0.2699 -0.0280
26645SOL    HW188903   9.690   8.940  10.727 -1.5142 -1.2585 -1.0497
26645SOL    HW288904   9.695   9.091  10.725  0.4408 -1.2397  1.0469
26646SOL     OW88905   9.515   3.148   3.412  0.0828  0.2777 -0.3050
26646SOL    HW188906   9.467   3.212   3.360 -0.8211 -1.7219 -2.0723
26646SOL    HW288907   9.466   3.067   3.401  0.4996 -0.5142  2.8404
26647SOL     OW88908   1.784  12.417   5.792 -0.5923  0.6372  0.4237
26647SOL    HW188909   1.845  12.469   5.740 -1.9165  0.3513 -1.4985
26647SOL    HW288910   1.808  12.436   5.883 -0.0369  3.3837 -0.2169
26648SOL     OW88911   8.078   0.686   1.778 -0.1833 -0.1947  0.0333
26648SOL    HW188912   7.986   0.712   1.775  0.4516  2.2144 -1.1201
26648SOL    HW288913   8.091   0.635   1.698 -0.3914 -0.0576 -0.0899
26649SOL     OW88914   0.204   0.490   4.218  0.1382 -0.1242  0.8810
26649SOL    HW188915   0.215   0.404   4.178 -1.1661  0.7710 -1.5962
26649SOL    HW288916   0.257   0.549   4.164 -1.6162  1.1203  0.4278
26650SOL     OW88917   1.102   9.562   6.938 -0.4140  0.0078 -0.2576
26650SOL    HW188918   1.104   9.470   6.911 -0.0250 -0.7549  2.1316
26650SOL    HW288919   1.194   9.584   6.953 -0.5607  0.6195 -0.2402
26651SOL     OW88920   0.845   1.246   8.546 -0.2919 -0.5158 -0.0640
26651SOL    HW188921   0.888   1.227   8.462 -0.3387 -1.2751  0.0746
26651SOL    HW288922   0.846   1.341   8.553  0.2033 -0.4723 -0.6722
26652SOL     OW88923   1.868   4.747  10.618  0.1130  0.1276  0.3333
26652SOL    HW188924   1.845   4.776  10.706  0.6716  0.0056  0.5287
26652SOL    HW288925   1.837   4.816  10.560 -1.4011 -0.3843  0.5084
26653SOL     OW88926   1.253  10.638   6.512  0.1382 -0.2354 -0.1420
26653SOL    HW188927   1.192  10.659   6.441  0.1906  0.2404 -0.0490
26653SOL    HW288928   1.288  10.723   6.539  1.0925 -0.5397 -0.4107
26654SOL     OW88929   6.448   9.338  12.321  0.0500  0.2381  0.2749
26654SOL    HW188930   6.505   9.265  12.346  0.1466  0.1512 -0.1841
26654SOL    HW288931   6.360   9.301  12.323  0.2256 -0.4043 -1.6479
26655SOL     OW88932   4.732   0.971   7.438  0.1664 -0.0924 -1.2587
26655SOL    HW188933   4.775   0.897   7.481 -0.7467 -0.3149 -0.7089
26655SOL    HW288934   4.724   0.943   7.347 -0.0348 -0.6116 -1.0874
26656SOL     OW88935   7.830   3.151   7.712 -0.3201  0.7095  0.2505
26656SOL    HW188936   7.852   3.244   7.712  0.9119  0.4364  0.4594
26656SOL    HW288937   7.790   3.136   7.798 -2.2572  1.4005 -0.4782
26657SOL     OW88938   3.497   2.203   5.362  0.0439 -0.4043 -0.1636
26657SOL    HW188939   3.561   2.177   5.296 -0.2573  1.7039 -1.3630
26657SOL    HW288940   3.422   2.234   5.311 -1.1114 -0.8500  1.2040
26658SOL     OW88941   6.592   8.336   6.275 -0.1677 -0.3946 -0.1398
26658SOL    HW188942   6.614   8.427   6.255 -2.8367  0.5731  0.8966
26658SOL    HW288943   6.634   8.320   6.360 -1.5347  0.7055  0.7945
26659SOL     OW88944   0.445   6.432   3.224 -0.2499  0.7191 -0.0713
26659SOL    HW188945   0.502   6.355   3.226 -0.1240  0.8011 -0.3541
26659SOL    HW288946   0.498   6.500   3.182  0.0241  1.2809  1.1481
26660SOL     OW88947  10.434   8.177   6.397 -0.4840  0.5177 -0.2048
26660SOL    HW188948  10.434   8.212   6.308 -2.0141 -0.8266 -0.7696
26660SOL    HW288949  10.367   8.228   6.443 -0.8021  0.1697 -0.2757
26661SOL     OW88950   9.769   9.388   4.365 -0.1198 -0.7209  0.4965
26661SOL    HW188951   9.765   9.481   4.387 -1.4139 -0.9503  1.3270
26661SOL    HW288952   9.768   9.343   4.449 -0.1910 -1.5080  0.0853
26662SOL     OW88953   1.028   3.661   6.448 -0.5808 -0.3871  0.0501
26662SOL    HW188954   1.023   3.742   6.499  1.8622 -1.0300  1.4444
26662SOL    HW288955   0.952   3.610   6.476 -0.3406  0.0772  1.6602
26663SOL     OW88956  11.948   4.448   1.796 -0.3031 -0.0915 -0.2741
26663SOL    HW188957  11.980   4.443   1.706  0.9711  0.6345  0.1222
26663SOL    HW288958  11.943   4.357   1.824  2.8454 -0.2455  0.1005
26664SOL     OW88959   2.450   0.615  11.431 -0.1388 -0.2751  0.7408
26664SOL    HW188960   2.434   0.597  11.524  4.0152  1.1992  1.9816
26664SOL    HW288961   2.501   0.541  11.401 -0.8231 -0.3771 -0.2148
26665SOL     OW88962   9.593   5.287   5.930 -0.1650  0.3985 -0.3261
26665SOL    HW188963   9.589   5.221   5.999  0.2079  0.7530  0.0376
26665SOL    HW288964   9.502   5.298   5.902 -0.4007  0.6942  0.5365
26666SOL     OW88965   8.398  11.498  11.960 -0.3059  0.4272 -0.3300
26666SOL    HW188966   8.321  11.546  11.991  0.0369  1.7889 -1.4966
26666SOL    HW288967   8.369  11.457  11.879 -0.0504  0.2188 -0.3150
26667SOL     OW88968  10.511   9.688  10.164 -0.1918 -0.3947  0.2982
26667SOL    HW188969  10.503   9.642  10.247  1.1579  0.1038  0.7268
26667SOL    HW288970  10.598   9.728  10.167 -1.0827  1.6895 -0.3124
26668SOL     OW88971   8.993  11.911  12.423 -0.4953 -0.0002  0.3278
26668SOL    HW188972   9.021  11.974  12.357 -0.6633 -0.5599 -0.2936
26668SOL    HW288973   9.073  11.864  12.447 -0.5785 -0.3796 -0.1208
26669SOL     OW88974   9.210   9.269   7.583 -0.1415 -0.5430  0.2561
26669SOL    HW188975   9.168   9.346   7.543  0.3805  1.0384  2.5323
26669SOL    HW288976   9.197   9.199   7.519 -2.3740  0.9337 -1.0663
26670SOL     OW88977   5.552   8.836   2.129 -0.1228 -0.1428 -0.3664
26670SOL    HW188978   5.492   8.814   2.057 -0.0824  2.4439 -1.3079
26670SOL    HW288979   5.504   8.812   2.208 -2.5286  1.8143 -1.0744
26671SOL     OW88980   6.780   0.254  10.427  0.1512 -0.0596 -0.1312
26671SOL    HW188981   6.744   0.199  10.497  0.0268 -0.4989 -0.5346
26671SOL    HW288982   6.706   0.270  10.369 -0.2992  2.1280  0.9560
26672SOL     OW88983   0.941   6.050   6.989  0.2583  0.4385  0.5206
26672SOL    HW188984   0.863   6.009   6.951  1.4921 -0.8964 -0.7231
26672SOL    HW288985   0.912   6.136   7.018 -1.8672 -0.3679  0.9221
26673SOL     OW88986   0.045   6.980   3.311 -0.3845  0.5406  0.0190
26673SOL    HW188987   0.090   6.915   3.257  0.4800  1.8337 -0.8971
26673SOL    HW288988  -0.042   6.989   3.270 -0.7073 -0.4011  0.4770
26674SOL     OW88989  10.122   9.276  11.834  1.0092 -0.2813  0.1370
26674SOL    HW188990  10.149   9.242  11.919 -0.9378  1.7904  1.6970
26674SOL    HW288991  10.175   9.356  11.822 -1.4211  1.6352  1.3866
26675SOL     OW88992   5.425   1.307  10.685  0.4047  0.0781  0.0035
26675SOL    HW188993   5.432   1.231  10.742 -0.0368 -0.3424 -0.4955
26675SOL    HW288994   5.511   1.312  10.642  0.5791  0.1198  0.3518
26676SOL     OW88995   2.854   9.385   9.627  0.3469  0.4476  0.0567
26676SOL    HW188996   2.809   9.376   9.543  0.7244  2.0415 -0.3542
26676SOL    HW288997   2.908   9.306   9.634  2.3161  1.4288 -2.4900
26677SOL     OW88998   9.896   3.441   2.945 -0.8809  0.1316 -0.0132
26677SOL    HW188999   9.877   3.362   2.894 -0.5489 -0.8236  1.2676
26677SOL    HW289000   9.888   3.412   3.036  3.4609  0.4087  0.6770
26678SOL     OW89001   8.098   5.746   8.445  1.0568  0.2767 -0.0496
26678SOL    HW189002   8.041   5.714   8.375 -1.4027  1.6503  1.1957
26678SOL    HW289003   8.133   5.667   8.486 -1.4744 -0.7652  0.2743
26679SOL     OW89004  10.154  10.914   8.113 -0.0254  0.6411  0.4371
26679SOL    HW189005  10.212  10.987   8.134  0.7054  0.1127  0.2882
26679SOL    HW289006  10.158  10.857   8.190  0.6562 -0.0248 -0.0750
26680SOL     OW89007   9.301   0.852   5.655 -0.0200 -0.6736 -0.2982
26680SOL    HW189008   9.364   0.826   5.588  0.0877  0.8917 -0.8294
26680SOL    HW289009   9.316   0.945   5.668 -1.5127 -0.4874  0.3293
26681SOL     OW89010   8.248   8.426   4.250 -0.4631  0.7667 -1.0597
26681SOL    HW189011   8.212   8.501   4.203 -0.2275  1.1534 -0.6275
26681SOL    HW289012   8.275   8.461   4.335 -0.7699  0.1001 -0.6825
26682SOL     OW89013   8.189   0.004   8.338 -0.0461 -0.0146 -0.3398
26682SOL    HW189014   8.166  -0.050   8.263 -0.8163 -0.4400  0.1892
26682SOL    HW289015   8.105   0.025   8.379  0.4397 -1.0606  1.2803
26683SOL     OW89016   8.472   4.350   4.246 -0.0396  0.3883 -0.3631
26683SOL    HW189017   8.436   4.372   4.332  0.3255 -2.2649  0.5498
26683SOL    HW289018   8.559   4.316   4.264 -0.2105 -0.8430 -1.7007
26684SOL     OW89019   6.191   5.741  10.938  0.3574  0.5820  0.0494
26684SOL    HW189020   6.261   5.676  10.939 -0.4990 -0.4716 -1.9474
26684SOL    HW289021   6.203   5.788  10.855 -1.7259 -0.2128 -0.7860
26685SOL     OW89022  11.666   0.498   1.003  0.0377 -0.5213  0.0970
26685SOL    HW189023  11.735   0.565   1.007  0.7720 -1.0863 -1.9683
26685SOL    HW289024  11.685   0.441   1.077  1.5123 -0.3811 -0.1279
26686SOL     OW89025   7.338   8.923   2.061 -0.2307 -0.5683  0.4634
26686SOL    HW189026   7.408   8.970   2.106  0.4698 -0.0070 -1.1455
26686SOL    HW289027   7.376   8.899   1.977 -2.3547  0.8902 -1.0091
26687SOL     OW89028   3.199   7.412   6.378 -0.3317  0.1515  0.3486
26687SOL    HW189029   3.179   7.346   6.311 -0.7228  0.6229 -0.0034
26687SOL    HW289030   3.291   7.434   6.363  0.0875 -0.9973  1.0771
26688SOL     OW89031  10.570   1.073  12.169 -0.3677 -0.0848 -0.3548
26688SOL    HW189032  10.573   1.017  12.091 -1.9122  0.0187 -0.5136
26688SOL    HW289033  10.487   1.120  12.162 -0.4281  0.1065  1.2402
26689SOL     OW89034   6.510   9.739   7.529  0.0646  0.0759  0.3013
26689SOL    HW189035   6.525   9.692   7.612 -3.0207 -1.1447  0.3279
26689SOL    HW289036   6.502   9.831   7.555  1.1898 -0.0069  1.0182
26690SOL     OW89037   9.212   7.513   2.470  0.2936 -0.1949  0.5893
26690SOL    HW189038   9.229   7.592   2.418  0.2987 -0.6155 -0.0570
26690SOL    HW289039   9.129   7.531   2.514  0.2931  0.1729  0.4446
26691SOL     OW89040   1.710   2.850   1.608  0.0440 -0.1099  0.9259
26691SOL    HW189041   1.711   2.914   1.537  2.6897 -0.0585  0.9422
26691SOL    HW289042   1.639   2.879   1.665  0.5308  2.2451  0.4392
26692SOL     OW89043  11.955   0.981   3.359 -0.1735  0.4576 -0.2432
26692SOL    HW189044  11.863   0.964   3.343  0.0079  0.5149 -1.4724
26692SOL    HW289045  11.994   0.989   3.272  1.1545 -0.4021  0.2275
26693SOL     OW89046  11.822  11.303   8.112 -0.0757  0.6068  0.0090
26693SOL    HW189047  11.875  11.238   8.066  0.2474  0.8676  0.0066
26693SOL    HW289048  11.810  11.374   8.049 -0.2003  0.6685  0.1003
26694SOL     OW89049  10.645   0.643   3.554 -0.1768 -0.4592  0.1739
26694SOL    HW189050  10.738   0.625   3.549 -0.3347 -1.6108  0.8379
26694SOL    HW289051  10.612   0.578   3.617 -1.3258  0.2892  0.3677
26695SOL     OW89052   6.912   0.221   7.682 -0.0606  0.0120  0.6155
26695SOL    HW189053   6.988   0.171   7.711  1.5203  1.9216  0.0073
26695SOL    HW289054   6.880   0.264   7.761  2.8225  3.3640  0.2137
26696SOL     OW89055   3.203  12.409  12.282  0.0960  0.1007  0.2109
26696SOL    HW189056   3.220  12.459  12.202  0.6862  0.1966  0.3926
26696SOL    HW289057   3.187  12.475  12.349  0.8078  0.0560  0.4354
26697SOL     OW89058   0.315  12.113   5.451  0.5539  0.1950 -0.5081
26697SOL    HW189059   0.263  12.192   5.466 -0.3990 -0.6767  1.0989
26697SOL    HW289060   0.292  12.085   5.363  0.2143  1.1955 -0.7589
26698SOL     OW89061  11.049   2.161   9.670 -0.3500  0.6697 -0.3499
26698SOL    HW189062  11.081   2.097   9.734  1.2114 -0.8751 -2.5028
26698SOL    HW289063  11.062   2.246   9.712  0.7750 -0.2646  1.3006
26699SOL     OW89064  11.085   0.824   0.761 -0.2027 -0.7154 -0.0151
26699SOL    HW189065  11.113   0.771   0.836  2.1381 -0.3951 -0.5682
26699SOL    HW289066  10.996   0.852   0.783  0.0681 -1.3885  2.2102
26700SOL     OW89067   9.209   5.790   6.126  0.5361 -0.1885  0.4432
26700SOL    HW189068   9.133   5.734   6.142  1.0589 -0.7770  0.8955
26700SOL    HW289069   9.278   5.729   6.098  1.5242  0.0308  2.2869
26701SOL     OW89070   4.560   7.042   3.702 -1.0507  0.3274 -0.2324
26701SOL    HW189071   4.497   6.984   3.744 -1.6947  0.7516 -0.5915
26701SOL    HW289072   4.572   7.113   3.766 -0.3662 -0.1205  0.1491
26702SOL     OW89073   0.571  11.606   3.896 -0.3262 -0.4304  0.2928
26702SOL    HW189074   0.626  11.681   3.919 -0.1786 -0.2163 -0.7005
26702SOL    HW289075   0.487  11.624   3.937  0.6425 -1.3152  2.8205
26703SOL     OW89076   5.093   5.966   1.288  0.0524  0.0382 -0.5043
26703SOL    HW189077   5.154   5.893   1.279 -0.5739 -0.7191  1.0346
26703SOL    HW289078   5.088   6.004   1.200  0.0599 -2.0490 -1.4668
26704SOL     OW89079   6.845   7.462   9.576 -0.0388  0.2884 -0.1186
26704SOL    HW189080   6.911   7.439   9.510  0.7118  2.5643 -0.2598
26704SOL    HW289081   6.768   7.411   9.551 -0.1135  1.7444 -3.4328
26705SOL     OW89082   9.587   0.326   8.299 -0.1406 -0.2081  0.0735
26705SOL    HW189083   9.625   0.372   8.373  0.3649 -2.2454  1.1596
26705SOL    HW289084   9.637   0.245   8.293 -1.7720 -1.2002 -0.9471
26706SOL     OW89085   8.459   4.691   6.147  0.6189 -0.2617 -0.8995
26706SOL    HW189086   8.458   4.711   6.054  0.7543  1.9129 -0.4669
26706SOL    HW289087   8.378   4.728   6.181  0.9388 -0.3525 -0.0063
26707SOL     OW89088  12.102   1.751   9.629  0.1708 -0.1018  0.3780
26707SOL    HW189089  12.181   1.726   9.580  0.6407  1.7178  0.1218
26707SOL    HW289090  12.031   1.711   9.579  0.8743 -1.2915  0.2786
26708SOL     OW89091   8.073   8.026   7.082 -0.3510 -0.1942 -0.3309
26708SOL    HW189092   8.049   8.081   7.157  0.3901 -0.8652  0.4213
26708SOL    HW289093   8.007   7.956   7.082 -0.9251  0.3351 -0.9097
26709SOL     OW89094   2.578   9.159  11.971 -0.0330  0.5070 -0.4680
26709SOL    HW189095   2.551   9.237  12.020 -0.4598  0.5162 -0.7083
26709SOL    HW289096   2.668   9.177  11.944  1.8066 -1.1022  3.6774
26710SOL     OW89097   3.626   0.185  10.479 -0.0898  0.1921 -0.3574
26710SOL    HW189098   3.648   0.128  10.406 -0.2798  0.7136 -0.8261
26710SOL    HW289099   3.682   0.262  10.468 -0.6940  0.6319 -0.4152
26711SOL     OW89100  10.337   3.445   9.243 -0.2426 -0.5327 -0.2095
26711SOL    HW189101  10.296   3.530   9.261  0.8056  0.1800 -1.0980
26711SOL    HW289102  10.395   3.430   9.318 -1.0871 -0.9122  0.3898
26712SOL     OW89103   6.550   9.808   4.997  0.1093  0.1342  0.4033
26712SOL    HW189104   6.456   9.827   5.007 -0.0991  0.0275 -1.1609
26712SOL    HW289105   6.554   9.740   4.930  1.3497  0.6672 -0.0922
26713SOL     OW89106   2.938   3.144   4.985  0.2325 -0.1821  0.1857
26713SOL    HW189107   2.917   3.114   5.074 -1.3439  0.6795  0.1376
26713SOL    HW289108   2.863   3.198   4.960  0.6283 -0.4516 -1.7013
26714SOL     OW89109   5.242   3.673   9.588  0.2397 -0.2508 -0.1206
26714SOL    HW189110   5.257   3.620   9.666  0.9321  0.1191  0.0100
26714SOL    HW289111   5.327   3.677   9.545 -0.0216 -0.0260 -0.6229
26715SOL     OW89112   3.225  11.368  10.628 -0.2061  0.4452 -0.1044
26715SOL    HW189113   3.207  11.300  10.694  0.9616  0.5782  0.3653
26715SOL    HW289114   3.161  11.436  10.647  0.6644  0.8740  1.4879
26716SOL     OW89115   4.693   2.345  12.579 -0.1423 -0.3727 -0.1945
26716SOL    HW189116   4.679   2.270  12.636  0.0451 -0.0629  0.2731
26716SOL    HW289117   4.773   2.325  12.531  0.3125 -0.1633  0.4598
26717SOL     OW89118   6.374   8.003   7.946  0.1889  0.0144  0.0694
26717SOL    HW189119   6.411   7.921   7.912  0.8256 -1.4237  3.6950
26717SOL    HW289120   6.447   8.065   7.942  0.1387  0.0082 -1.3751
26718SOL     OW89121   0.445   0.283   0.994 -0.1090  0.5409 -0.2415
26718SOL    HW189122   0.421   0.293   0.902 -0.5929  1.2832 -0.0446
26718SOL    HW289123   0.422   0.192   1.015  0.1061  0.3310 -0.8734
26719SOL     OW89124  11.063  11.191   9.059  0.6501 -0.1588  0.1294
26719SOL    HW189125  10.982  11.217   9.015  1.2988 -0.0164 -1.0602
26719SOL    HW289126  11.055  11.226   9.148 -2.3011 -3.5879  1.4322
26720SOL     OW89127   8.104   3.736   8.593 -0.1056 -0.2653 -0.2320
26720SOL    HW189128   8.142   3.691   8.518  0.4968 -0.5051  0.2105
26720SOL    HW289129   8.143   3.693   8.669 -1.5455 -0.7892  0.2530
26721SOL     OW89130   4.005   1.266   4.157  0.8791 -0.1927 -0.3680
26721SOL    HW189131   4.045   1.354   4.155 -1.7605  1.1009 -1.9548
26721SOL    HW289132   3.970   1.254   4.068 -3.4592 -0.5031  1.1829
26722SOL     OW89133   9.932  11.989   4.382  0.3021 -0.1005  0.1137
26722SOL    HW189134   9.838  11.988   4.364  0.3646 -2.5652 -0.3980
26722SOL    HW289135   9.943  12.058   4.447 -1.5973  1.3277 -0.9942
26723SOL     OW89136   3.225   1.344   5.935  0.2725 -0.5548  0.1595
26723SOL    HW189137   3.290   1.281   5.967  1.9096  0.6690 -0.6011
26723SOL    HW289138   3.275   1.403   5.879 -1.7782 -0.3860 -1.6269
26724SOL     OW89139   3.721   3.623   8.652  1.0468 -0.0631  0.2730
26724SOL    HW189140   3.767   3.627   8.568  0.6792 -0.9034  0.0213
26724SOL    HW289141   3.628   3.616   8.628  0.9877 -1.0252  0.7176
26725SOL     OW89142   6.574   3.916   0.172 -0.2456  0.3733  0.9486
26725SOL    HW189143   6.484   3.921   0.139 -0.0718  1.3268  0.5942
26725SOL    HW289144   6.575   3.838   0.227 -1.1247 -0.0028  0.4466
26726SOL     OW89145   2.153   5.174   7.042  0.4523 -0.1384 -0.1021
26726SOL    HW189146   2.185   5.124   6.967 -0.7224  1.6065 -1.8725
26726SOL    HW289147   2.061   5.152   7.049  0.2597  0.6541  0.0152
26727SOL     OW89148   0.477   7.199  11.720 -0.1548 -0.5887 -0.1870
26727SOL    HW189149   0.504   7.124  11.773  1.5605 -0.0254 -0.1825
26727SOL    HW289150   0.527   7.273  11.755  0.0101  0.0621 -1.6849
26728SOL     OW89151   9.732   7.164   5.376  0.8203  0.1689  0.0990
26728SOL    HW189152   9.738   7.239   5.436  2.1772  0.0337  0.1527
26728SOL    HW289153   9.822   7.137   5.363  0.3156 -1.8571  0.5432
26729SOL     OW89154   6.596   8.692   4.071 -0.2988  0.2347 -0.4658
26729SOL    HW189155   6.672   8.666   4.123 -0.7312  2.4643  1.4298
26729SOL    HW289156   6.524   8.698   4.134 -1.0925  2.0250 -1.4651
26730SOL     OW89157  11.626   7.401   7.084 -0.1760 -0.4232 -0.1242
26730SOL    HW189158  11.578   7.324   7.118  1.0335 -1.2974 -0.3308
26730SOL    HW289159  11.572   7.475   7.110 -0.4759 -1.2084  1.7179
26731SOL     OW89160   5.014   0.553   9.017 -0.1901 -0.1413 -0.2203
26731SOL    HW189161   4.975   0.482   9.069  0.1197 -0.1231  0.0392
26731SOL    HW289162   5.031   0.622   9.081  0.4233 -0.2113 -0.3001
26732SOL     OW89163   5.012  12.310   4.671 -0.3036 -0.4066  0.3004
26732SOL    HW189164   5.002  12.398   4.708  0.2843  0.6961 -1.9844
26732SOL    HW289165   4.946  12.305   4.603 -0.5226 -1.8937  0.5752
26733SOL     OW89166   6.030   9.978   4.466 -0.0920  0.0463 -0.2843
26733SOL    HW189167   5.961  10.028   4.510 -1.0991  0.0448 -1.7885
26733SOL    HW289168   6.038   9.897   4.517  0.3575  0.9732  1.1749
26734SOL     OW89169   9.588  12.339   1.438  0.5444  0.1431 -0.2193
26734SOL    HW189170   9.596  12.249   1.407 -0.1653  0.2220 -0.6347
26734SOL    HW289171   9.517  12.376   1.387 -0.0346  0.5564  0.8559
26735SOL     OW89172  12.597   8.423   7.393 -0.2820 -0.3469  0.2643
26735SOL    HW189173  12.668   8.428   7.458 -0.7473  0.9599  0.6977
26735SOL    HW289174  12.606   8.335   7.356 -0.9842 -1.8176  3.2394
26736SOL     OW89175   4.237  11.247   3.467 -0.2673 -0.1913  0.0044
26736SOL    HW189176   4.300  11.240   3.539 -0.7940  0.7739  0.5871
26736SOL    HW289177   4.183  11.169   3.474 -1.5449  0.7764  1.9118
26737SOL     OW89178   6.734   8.052   1.307 -0.2566 -0.1099 -0.7220
26737SOL    HW189179   6.784   8.095   1.237  1.5640 -1.9801 -0.6768
26737SOL    HW289180   6.715   8.122   1.369  0.8140  1.0269 -1.6015
26738SOL     OW89181   5.501   8.968   4.815  0.2017 -0.2037  0.2819
26738SOL    HW189182   5.412   8.976   4.848 -0.8150  0.9162 -2.4611
26738SOL    HW289183   5.519   8.874   4.817 -0.4456 -0.3228  2.1990
26739SOL     OW89184   6.375   8.696   0.960  0.5036  0.4891 -0.5829
26739SOL    HW189185   6.343   8.755   0.892  0.5193  0.3360 -0.7229
26739SOL    HW289186   6.386   8.612   0.916 -2.9953 -0.6509  0.3589
26740SOL     OW89187   1.944   7.059   9.253 -0.0889  0.8407 -0.3728
26740SOL    HW189188   1.896   7.024   9.178 -1.1595 -1.6781  1.3381
26740SOL    HW289189   2.028   7.013   9.252 -0.7600 -0.4955  0.8324
26741SOL     OW89190  10.662   2.783   7.318  0.0392 -0.3150 -0.3360
26741SOL    HW189191  10.609   2.859   7.295 -1.2544 -1.2565 -0.5654
26741SOL    HW289192  10.753   2.814   7.309 -0.4243  1.6482  1.1731
26742SOL     OW89193   0.634   9.610   1.125  0.0926  0.1324  0.5482
26742SOL    HW189194   0.624   9.704   1.134 -2.6240  0.0894 -0.9608
26742SOL    HW289195   0.716   9.599   1.077 -1.5293  2.1055 -3.0796
26743SOL     OW89196   8.321  12.331   2.919  0.3695 -0.8319 -0.0243
26743SOL    HW189197   8.258  12.299   2.854 -0.9867  2.8279 -0.7591
26743SOL    HW289198   8.269  12.340   2.999  0.3608  0.5733 -0.1686
26744SOL     OW89199  12.004   8.743  10.946 -0.3063  0.5309 -0.6052
26744SOL    HW189200  12.096   8.764  10.934  0.1278 -0.9092  0.0584
26744SOL    HW289201  11.979   8.789  11.027  1.2220 -2.9071  2.0992
26745SOL     OW89202  10.044   2.966   0.199 -0.1647 -0.0898 -0.0960
26745SOL    HW189203  10.006   3.031   0.141 -2.3359 -1.3055 -0.1588
26745SOL    HW289204  10.139   2.978   0.191 -0.4729  2.0709 -1.1632
26746SOL     OW89205   7.056   4.759   8.996  0.0767 -0.2800 -1.2526
26746SOL    HW189206   6.971   4.734   8.958 -0.1682 -0.5087 -0.5813
26746SOL    HW289207   7.106   4.677   8.997 -0.4144 -0.6012  0.1516
26747SOL     OW89208  10.428   9.803   9.635 -0.2750 -0.3566 -0.6929
26747SOL    HW189209  10.472   9.785   9.718 -2.5602 -0.1224  0.6790
26747SOL    HW289210  10.441   9.897   9.620  0.4205 -0.4638 -0.7995
26748SOL     OW89211   1.500   4.382   6.934  0.3306 -0.1173 -0.1261
26748SOL    HW189212   1.518   4.424   7.018  1.0544 -0.7078  0.0295
26748SOL    HW289213   1.438   4.440   6.890 -0.7951 -0.2522  1.2016
26749SOL     OW89214   3.481   5.820   1.926  0.4233  0.0952  0.4092
26749SOL    HW189215   3.440   5.769   1.857  0.3074  1.9930 -1.0079
26749SOL    HW289216   3.466   5.770   2.006 -0.7284 -1.4402 -0.7217
26750SOL     OW89217   6.462   3.257   1.070  0.6208  0.3634 -0.3918
26750SOL    HW189218   6.546   3.279   1.030  1.1343  1.8371  1.3587
26750SOL    HW289219   6.485   3.218   1.154 -0.4550 -0.7548 -0.5767
26751SOL     OW89220   3.458   6.621   9.660 -0.0169  0.3969 -0.2799
26751SOL    HW189221   3.364   6.635   9.674 -0.0510 -0.5651  0.5409
26751SOL    HW289222   3.500   6.658   9.738  0.2924  0.8904 -0.6793
26752SOL     OW89223  10.584  12.169   5.726 -0.0142  0.3858 -0.2939
26752SOL    HW189224  10.496  12.133   5.715  0.5426 -0.8017 -1.1499
26752SOL    HW289225  10.570  12.254   5.768 -1.4276 -0.7531  1.7657
26753SOL     OW89226  10.098   1.910   3.154 -0.0645  0.5172 -0.3938
26753SOL    HW189227  10.055   1.864   3.082  4.0954 -2.1087 -1.5601
26753SOL    HW289228  10.131   1.990   3.113 -0.7225  0.7857 -0.4181
26754SOL     OW89229   1.760   3.121   4.915 -0.7843 -0.2833 -0.0621
26754SOL    HW189230   1.750   3.162   5.001 -2.5069 -1.2013  0.2045
26754SOL    HW289231   1.825   3.052   4.928 -0.6171 -0.0499  0.3526
26755SOL     OW89232   6.256   5.650   7.093 -0.0527 -0.0248  1.0605
26755SOL    HW189233   6.206   5.706   7.152 -1.4750 -0.3838  0.2500
26755SOL    HW289234   6.189   5.602   7.044  1.0475  0.9266 -1.4927
26756SOL     OW89235   0.328   9.288  11.040 -0.3376  0.3848  0.1956
26756SOL    HW189236   0.337   9.383  11.054  0.2186  0.4113 -0.3227
26756SOL    HW289237   0.324   9.252  11.129  1.6953  0.6929  0.4687
26757SOL     OW89238   0.851  12.360   6.148  0.4868  0.4247 -0.1456
26757SOL    HW189239   0.812  12.417   6.214 -0.6284 -1.0123  0.4936
26757SOL    HW289240   0.805  12.277   6.158  0.9323 -0.1101 -2.1342
26758SOL     OW89241   5.728   8.969   1.991  0.1082  0.5097  0.4341
26758SOL    HW189242   5.702   8.961   1.899  1.7210  0.4775 -0.0436
26758SOL    HW289243   5.656   8.927   2.040  0.3557 -1.7112 -0.9568
26759SOL     OW89244   1.033  11.173   9.821  0.6606  0.0196  0.0464
26759SOL    HW189245   0.993  11.234   9.883  0.0402 -1.7903  1.5188
26759SOL    HW289246   1.004  11.087   9.850 -1.1978 -0.8817 -3.8275
26760SOL     OW89247   0.210   6.167   8.317 -0.3306  0.4988 -0.0569
26760SOL    HW189248   0.280   6.102   8.329 -2.7394 -2.1987  0.4243
26760SOL    HW289249   0.228   6.206   8.231  0.2866 -2.1033 -1.2110
26761SOL     OW89250   8.807   1.643   3.709 -0.0563  0.0120 -0.1119
26761SOL    HW189251   8.731   1.658   3.653 -1.4289 -2.1858  1.0340
26761SOL    HW289252   8.809   1.549   3.724  1.0529  0.3292  2.3812
26762SOL     OW89253  10.301   7.601   7.277 -0.2718 -0.1211  0.6346
26762SOL    HW189254  10.250   7.682   7.274 -0.9551 -0.5591 -0.0960
26762SOL    HW289255  10.287   7.561   7.191  1.9924  0.1433  0.0845
26763SOL     OW89256  12.368   0.543   1.883  0.1397  0.3698  0.4612
26763SOL    HW189257  12.447   0.488   1.881  0.2489  0.5001  0.9407
26763SOL    HW289258  12.304   0.492   1.932 -0.1700  0.1505 -0.1568
26764SOL     OW89259   9.879  10.020   8.700 -0.1501  0.0873  0.3522
26764SOL    HW189260   9.956  10.077   8.703 -0.7897  0.9438  0.9883
26764SOL    HW289261   9.805  10.080   8.702 -0.8427 -0.7409  0.0621
26765SOL     OW89262   9.806   5.742   2.118 -0.2681  0.0188 -0.4719
26765SOL    HW189263   9.886   5.735   2.066  1.0156 -0.8685  1.4723
26765SOL    HW289264   9.753   5.808   2.073  1.7161  0.9154 -1.6175
26766SOL     OW89265   9.538   8.712   2.270  0.1933 -0.4795  0.0098
26766SOL    HW189266   9.521   8.687   2.361 -0.0483 -2.1573 -0.4701
26766SOL    HW289267   9.512   8.635   2.219  0.4930  0.3726 -1.4693
26767SOL     OW89268  10.672   1.595   5.951 -0.1999  0.0393 -0.0657
26767SOL    HW189269  10.669   1.689   5.936  0.1432 -0.1233 -1.2567
26767SOL    HW289270  10.596   1.577   6.006  0.2037  1.1186  0.8675
26768SOL     OW89271  11.807   6.333   2.109  0.0389  0.2347  0.3992
26768SOL    HW189272  11.855   6.250   2.108 -0.4516 -0.1299 -2.2371
26768SOL    HW289273  11.723   6.313   2.149  0.7875  0.0626  1.9297
26769SOL     OW89274  11.829   6.199  10.456  0.3835 -0.2398  0.3220
26769SOL    HW189275  11.742   6.158  10.458 -0.1909  0.9289  1.4636
26769SOL    HW289276  11.836   6.235  10.368 -0.1240 -0.6938  0.0875
26770SOL     OW89277   7.578   9.604   8.916  0.2477  0.1297  0.1129
26770SOL    HW189278   7.501   9.661   8.923 -0.6813 -1.2144  1.4387
26770SOL    HW289279   7.551   9.522   8.957  2.3952 -0.3952  0.6000
26771SOL     OW89280   8.097   7.303  12.572  0.1465  0.4254  0.0092
26771SOL    HW189281   8.148   7.224  12.557 -0.8129  0.0056 -1.1730
26771SOL    HW289282   8.008   7.271  12.590 -0.5198  1.2371 -1.6461
26772SOL     OW89283   9.429   0.772   7.290 -0.7147  0.6652  0.2980
26772SOL    HW189284   9.445   0.746   7.199  0.6042 -0.6363  0.8529
26772SOL    HW289285   9.461   0.862   7.295  2.2691 -0.2455  0.1501
26773SOL     OW89286   9.015   7.075   1.971  0.6168  0.2485 -0.4232
26773SOL    HW189287   8.946   7.042   1.913 -0.8808 -1.1532  1.9713
26773SOL    HW289288   9.096   7.048   1.929 -0.4591 -2.6051 -0.9089
26774SOL     OW89289  11.605   7.288   8.256 -0.0824  0.1013  0.2683
26774SOL    HW189290  11.520   7.249   8.275  0.6963 -1.2883  1.0024
26774SOL    HW289291  11.598   7.377   8.292 -1.0393 -0.1619  0.7885
26775SOL     OW89292   5.833   7.992   8.696  0.2419 -0.1868  0.1810
26775SOL    HW189293   5.772   8.033   8.757  0.9910 -0.6241  1.2601
26775SOL    HW289294   5.907   8.052   8.691  1.1881 -1.1787  1.4950
26776SOL     OW89295   6.553  11.341   0.390 -0.8632 -0.0773 -0.2962
26776SOL    HW189296   6.620  11.273   0.388 -0.1005  0.4804  2.5461
26776SOL    HW289297   6.600  11.422   0.369 -0.8917  0.1274  0.3988
26777SOL     OW89298   8.654   4.843   1.190 -0.8695  0.2013  0.0523
26777SOL    HW189299   8.621   4.896   1.117 -0.9999  0.6541  0.4383
26777SOL    HW289300   8.749   4.855   1.189 -0.6223 -1.4501 -1.3361
26778SOL     OW89301   0.981   9.054   8.748 -0.0982 -0.2241  0.0782
26778SOL    HW189302   0.900   9.104   8.756 -0.0123 -0.3114  1.9679
26778SOL    HW289303   0.974   9.010   8.664 -0.4344  2.4620 -1.4328
26779SOL     OW89304   4.843   7.789   0.442 -0.0867 -0.1099  0.4700
26779SOL    HW189305   4.827   7.816   0.351  1.7011 -0.1557  0.1006
26779SOL    HW289306   4.756   7.768   0.476 -1.0529  1.8341 -0.5930
26780SOL     OW89307   7.783   3.945   1.558 -0.6315  0.2843  0.2816
26780SOL    HW189308   7.872   3.975   1.536 -0.8923  1.8382  1.2295
26780SOL    HW289309   7.797   3.867   1.612  0.2954  1.8778  2.5092
26781SOL     OW89310   4.591   6.244  10.097 -0.2229 -0.4738  0.3360
26781SOL    HW189311   4.514   6.224  10.151 -1.2840 -0.6905 -1.1990
26781SOL    HW289312   4.648   6.294  10.155 -0.4050 -2.3863  2.2837
26782SOL     OW89313   7.010   8.701   4.255  0.2977  0.2312 -0.4872
26782SOL    HW189314   6.944   8.770   4.263  0.6847  0.6872 -1.1310
26782SOL    HW289315   7.082   8.731   4.312 -0.2049 -0.4794  0.5645
26783SOL     OW89316   4.563   8.888   4.378 -0.1426 -0.6491 -0.4319
26783SOL    HW189317   4.606   8.943   4.313 -0.9574  0.3760 -0.1260
26783SOL    HW289318   4.529   8.814   4.327  0.2978 -0.4928 -0.9679
26784SOL     OW89319   5.920  11.664   5.279  0.1839 -0.0708 -0.3086
26784SOL    HW189320   5.961  11.743   5.316  1.3913 -0.1580 -1.4075
26784SOL    HW289321   5.908  11.606   5.354 -2.0858  1.6841  0.7981
26785SOL     OW89322   6.098   7.199   0.706  0.3460  0.3181 -0.5587
26785SOL    HW189323   6.124   7.236   0.622  1.4110 -0.6183 -0.6654
26785SOL    HW289324   6.168   7.136   0.728 -1.0854 -1.2108 -0.1255
26786SOL     OW89325   6.710   9.776  10.246 -0.1156  0.1210  0.1213
26786SOL    HW189326   6.784   9.835  10.260  0.2106 -0.4263  0.7680
26786SOL    HW289327   6.647   9.800  10.315 -0.5850  0.6273 -0.4637
26787SOL     OW89328   2.016   1.806  11.881 -0.0085 -0.5490  0.0725
26787SOL    HW189329   2.021   1.781  11.974 -1.8972  1.7892  0.9096
26787SOL    HW289330   2.107   1.805  11.851  0.8760  0.2721  2.4535
26788SOL     OW89331   4.496   2.084   3.501 -0.2354 -0.0749 -0.1854
26788SOL    HW189332   4.580   2.073   3.455 -0.2790 -0.8857 -0.0822
26788SOL    HW289333   4.438   2.020   3.460 -0.2494 -0.8798  1.0715
26789SOL     OW89334   0.404   5.564   6.680 -0.0177 -0.4973  0.2864
26789SOL    HW189335   0.350   5.565   6.759 -0.8538 -0.9679 -0.2633
26789SOL    HW289336   0.382   5.481   6.637 -0.7366  0.4232 -1.2119
26790SOL     OW89337   4.053   2.254   8.584 -0.2026  0.2276 -0.4078
26790SOL    HW189338   4.033   2.347   8.594  1.3111  0.8989 -2.6580
26790SOL    HW289339   4.004   2.227   8.507 -1.0564 -1.0163  0.5472
26791SOL     OW89340   7.685   8.458   4.962 -0.3130  0.5840  0.0015
26791SOL    HW189341   7.727   8.394   4.905  0.8822 -0.4745  1.9566
26791SOL    HW289342   7.755   8.520   4.984 -0.1369 -0.2584  1.9898
26792SOL     OW89343   6.207  11.584   9.769  0.8918 -0.2683  0.4225
26792SOL    HW189344   6.265  11.567   9.694 -0.0146  0.0705 -0.3731
26792SOL    HW289345   6.206  11.680   9.777  1.5564 -0.3294  1.3367
26793SOL     OW89346   8.578   2.575   3.970  0.5701  0.1422 -0.3670
26793SOL    HW189347   8.489   2.591   3.937  0.4491 -0.8394 -0.5631
26793SOL    HW289348   8.575   2.604   4.061  0.4466  1.3761 -0.7403
26794SOL     OW89349   5.044  11.344   3.304  0.4561 -0.2447  0.3534
26794SOL    HW189350   5.085  11.430   3.298 -1.1077  0.4246 -1.3480
26794SOL    HW289351   4.984  11.352   3.378  1.3285 -0.3675  1.1041
26795SOL     OW89352   7.212  10.888   9.216  0.3347 -0.8266  0.6845
26795SOL    HW189353   7.152  10.906   9.288 -1.4668 -1.2953 -0.6307
26795SOL    HW289354   7.206  10.965   9.159 -0.5033 -1.6389 -0.3900
26796SOL     OW89355  12.200   6.568   7.028  0.3413  0.0680  0.2840
26796SOL    HW189356  12.247   6.650   7.018  1.6996 -0.7579 -0.3445
26796SOL    HW289357  12.234   6.531   7.110 -0.7848  0.4335  0.9438
26797SOL     OW89358   1.500  11.912   1.403 -0.5256  0.0040 -0.3876
26797SOL    HW189359   1.584  11.910   1.357  0.1715 -0.3045  0.8442
26797SOL    HW289360   1.511  11.980   1.469 -1.5603  0.5537 -0.7783
26798SOL     OW89361   0.932   1.273   6.958 -0.1787 -0.3507  0.0989
26798SOL    HW189362   1.011   1.277   7.013  0.3959  1.0563 -0.7853
26798SOL    HW289363   0.957   1.316   6.876 -1.7545 -0.2095 -0.3460
26799SOL     OW89364   0.843   0.476   2.934  0.0228 -0.4877  0.4591
26799SOL    HW189365   0.794   0.394   2.940 -1.3997  0.3390  0.4979
26799SOL    HW289366   0.786   0.535   2.886  0.8327  0.6194  0.8178
26800SOL     OW89367   5.896   8.454   4.797  0.2229  0.2107 -0.5017
26800SOL    HW189368   5.813   8.405   4.795  0.2267  0.2203 -0.8918
26800SOL    HW289369   5.961   8.393   4.763  0.6076 -0.2095  0.8948
26801SOL     OW89370   5.403   3.110   2.999  0.4960 -0.5932 -0.0057
26801SOL    HW189371   5.496   3.096   3.019  1.2597  0.4811 -2.4603
26801SOL    HW289372   5.382   3.040   2.937 -0.4577 -1.0269  0.7872
26802SOL     OW89373   2.790   6.421  10.762  0.3105 -0.1998 -0.3060
26802SOL    HW189374   2.705   6.390  10.732  0.4633  0.6914 -1.7364
26802SOL    HW289375   2.811   6.364  10.837 -1.1329 -0.9866 -0.4624
26803SOL     OW89376  10.254  12.094   8.925 -0.2380  0.4102 -0.6357
26803SOL    HW189377  10.338  12.050   8.913  0.7151  2.1347 -0.6479
26803SOL    HW289378  10.210  12.044   8.993  1.0208 -0.2329 -0.2682
26804SOL     OW89379  12.325  12.028   3.776  0.3710  0.5972  0.3859
26804SOL    HW189380  12.274  11.949   3.795  0.7927 -0.0602 -1.0318
26804SOL    HW289381  12.265  12.100   3.792 -0.7461 -0.1227 -0.3962
26805SOL     OW89382  10.991   7.764   8.644  0.0600  0.2548 -0.7600
26805SOL    HW189383  10.936   7.687   8.656  0.9281 -0.4804 -1.3864
26805SOL    HW289384  10.963   7.825   8.713 -0.1669 -0.8828  0.1705
26806SOL     OW89385  10.750   1.193   9.360 -0.7560 -0.1469  0.3568
26806SOL    HW189386  10.710   1.118   9.403 -0.3317 -0.5738  0.0224
26806SOL    HW289387  10.676   1.251   9.340 -1.0951 -0.5042  0.5550
26807SOL     OW89388   3.194   8.829   5.942 -0.2493 -0.3766 -0.5386
26807SOL    HW189389   3.161   8.914   5.915 -0.7818 -0.4510 -0.1533
26807SOL    HW289390   3.198   8.834   6.038  1.4380 -0.1715 -0.5926
26808SOL     OW89391   4.891   4.451   2.735 -0.1972  0.8358 -0.2355
26808SOL    HW189392   4.953   4.517   2.704 -1.9449  2.0213 -1.3924
26808SOL    HW289393   4.810   4.500   2.749 -1.0928 -0.7903  0.5178
26809SOL     OW89394   2.197   8.801  10.833  0.1228  0.0889  0.0018
26809SOL    HW189395   2.197   8.790  10.928  1.0298 -0.6503 -0.0738
26809SOL    HW289396   2.110   8.834  10.813 -0.2676 -0.2810  1.0303
26810SOL     OW89397   3.326   0.054   2.903  0.8626 -0.3355  0.2954
26810SOL    HW189398   3.343   0.058   2.809 -0.3255 -1.3115  0.0077
26810SOL    HW289399   3.378   0.125   2.941  0.3017  0.9456 -1.2475
26811SOL     OW89400   8.542   5.882   1.007 -0.4149  0.4836 -0.2625
26811SOL    HW189401   8.457   5.839   1.006  0.4818 -1.4013  0.3609
26811SOL    HW289402   8.562   5.893   1.100  1.2402 -1.7330 -0.2878
26812SOL     OW89403   5.499   5.437   6.228 -0.3976  1.1583  0.6255
26812SOL    HW189404   5.577   5.422   6.282  0.6143 -0.3659 -1.1329
26812SOL    HW289405   5.534   5.479   6.149 -1.3197  0.2339 -0.2885
26813SOL     OW89406   1.619   1.183   3.719 -0.2707  0.2821  0.1112
26813SOL    HW189407   1.687   1.116   3.715  1.2822  1.7308  0.9684
26813SOL    HW289408   1.574   1.167   3.801  1.2106  1.2596  1.1596
26814SOL     OW89409   0.497   0.886  11.574 -0.1392 -0.5836  0.5280
26814SOL    HW189410   0.483   0.887  11.479 -1.1592  0.8275  0.6678
26814SOL    HW289411   0.577   0.835  11.585  1.1053  0.8425 -1.2600
26815SOL     OW89412  10.639   4.829   1.908  0.3187  0.6420  0.3629
26815SOL    HW189413  10.675   4.748   1.943 -0.1973  0.7266  1.1237
26815SOL    HW289414  10.709   4.865   1.853  0.8188  0.0521  0.6022
26816SOL     OW89415   2.106   5.759   6.809 -0.1350 -0.0114  0.0620
26816SOL    HW189416   2.029   5.812   6.789 -0.4277 -1.4172 -3.0465
26816SOL    HW289417   2.176   5.823   6.822 -1.2338  1.2146  0.1109
26817SOL     OW89418  12.127   3.565  10.428 -0.3825 -0.0417 -0.9414
26817SOL    HW189419  12.064   3.620  10.380 -1.3387  0.0665  0.3817
26817SOL    HW289420  12.155   3.619  10.502 -0.7950 -1.0585 -0.0194
26818SOL     OW89421   7.035   9.002   0.963  0.3260  0.5271 -0.2913
26818SOL    HW189422   7.092   9.057   1.017 -0.8115  0.8543  0.6262
26818SOL    HW289423   7.078   8.998   0.879  1.4304  1.2109  0.2221
26819SOL     OW89424   9.636   9.396   9.051 -0.0097 -0.0921  0.5528
26819SOL    HW189425   9.617   9.307   9.083 -0.0825  0.3977  1.9488
26819SOL    HW289426   9.563   9.416   8.993 -1.0150 -0.2615  1.6982
26820SOL     OW89427   8.479  10.725   9.041  0.2932  0.0165  0.2378
26820SOL    HW189428   8.517  10.788   9.102  0.6299 -0.9404  1.0442
26820SOL    HW289429   8.385  10.742   9.045  0.4334  0.9500 -0.1268
26821SOL     OW89430   4.815  12.460   4.528  0.0596  0.2967 -0.2450
26821SOL    HW189431   4.782  12.449   4.617 -0.5855 -1.2921 -0.6433
26821SOL    HW289432   4.777  12.542   4.498 -1.5249 -0.2370  0.1847
26822SOL     OW89433  11.356   4.554   3.002 -0.3007 -0.0026 -0.5273
26822SOL    HW189434  11.292   4.601   3.055 -1.5483  1.3286 -3.0564
26822SOL    HW289435  11.440   4.570   3.046 -1.0343  2.5562  0.0932
26823SOL     OW89436   2.215  11.553   0.954  0.0650  0.6861  0.0361
26823SOL    HW189437   2.134  11.578   0.909  0.2531  0.8682 -0.2044
26823SOL    HW289438   2.190  11.480   1.010 -0.4592  1.3097  0.6226
26824SOL     OW89439   1.002   0.572   3.251 -0.1359  0.1107  0.0085
26824SOL    HW189440   0.924   0.521   3.275 -0.0507  0.2398  0.5739
26824SOL    HW289441   0.968   0.642   3.196 -0.3267 -0.2374 -0.3261
26825SOL     OW89442   5.196   3.123   2.615  0.1800 -0.2549 -0.0257
26825SOL    HW189443   5.241   3.197   2.573  0.2477 -0.4278 -0.2582
26825SOL    HW289444   5.125   3.164   2.665 -0.7310 -0.1408 -1.3740
26826SOL     OW89445   6.793   3.514   0.747 -0.1970 -0.1755 -0.0246
26826SOL    HW189446   6.869   3.554   0.703  1.5398 -3.1784  0.0260
26826SOL    HW289447   6.806   3.532   0.840 -1.2017  1.8310 -0.2136
26827SOL     OW89448   6.002   5.805   2.614 -0.2023 -0.7754  0.4703
26827SOL    HW189449   6.051   5.752   2.551  1.8703  1.8960 -0.3109
26827SOL    HW289450   6.045   5.787   2.698 -0.4971 -1.4150  0.4959
26828SOL     OW89451   8.072   7.685   2.640  0.3331  0.5458  0.1403
26828SOL    HW189452   8.045   7.611   2.695  1.4237  1.3735  1.8820
26828SOL    HW289453   8.046   7.659   2.551 -0.6846 -1.2463  0.8927
26829SOL     OW89454   0.937  10.265   5.753  0.7804 -0.9616  0.3313
26829SOL    HW189455   0.966  10.357   5.759 -0.6076 -0.3357 -1.6360
26829SOL    HW289456   0.891  10.249   5.836 -0.6611  0.7860 -0.0644
26830SOL     OW89457   5.141   9.355   6.194 -0.2483 -0.0039 -0.0394
26830SOL    HW189458   5.164   9.424   6.132  3.8526 -1.0861  0.0039
26830SOL    HW289459   5.188   9.379   6.274 -2.4105 -0.5907  1.4846
26831SOL     OW89460   0.329  10.860  11.136 -0.1069 -0.1708  0.0473
26831SOL    HW189461   0.279  10.813  11.069 -0.4612 -0.6579  0.6460
26831SOL    HW289462   0.419  10.831  11.123 -0.2148 -0.4677 -0.0498
26832SOL     OW89463   2.117  12.535  10.345 -0.2042 -0.4175 -0.2824
26832SOL    HW189464   2.057  12.513  10.416  0.8549 -3.7589 -0.2405
26832SOL    HW289465   2.064  12.529  10.266 -1.2854  2.9007  0.0293
26833SOL     OW89466   8.874   8.391   0.409  0.0471 -0.7424 -0.2297
26833SOL    HW189467   8.855   8.312   0.359 -1.6926  0.0941 -1.0016
26833SOL    HW289468   8.916   8.449   0.346  1.3612 -1.0526  0.3449
26834SOL     OW89469   9.159   4.953   2.008 -0.4559  0.2887  0.2151
26834SOL    HW189470   9.194   5.042   1.995  1.6939 -0.6052 -0.5524
26834SOL    HW289471   9.092   4.964   2.075  2.4500  1.9571  3.1991
26835SOL     OW89472  10.372   0.408   8.138 -0.4049 -0.0043  0.1530
26835SOL    HW189473  10.360   0.415   8.043  0.5640 -2.6874 -0.2593
26835SOL    HW289474  10.464   0.383   8.148 -0.4617  0.3922  1.8294
26836SOL     OW89475   8.327   5.165  10.510 -0.0588  0.4824  0.6709
26836SOL    HW189476   8.248   5.116  10.485  0.7866 -0.8753  0.5672
26836SOL    HW289477   8.294   5.236  10.565 -1.2112 -1.3637  2.5265
26837SOL     OW89478   2.647  11.046  10.351 -0.0836 -0.0724 -0.6161
26837SOL    HW189479   2.738  11.014  10.353  0.2145  0.6883  2.0749
26837SOL    HW289480   2.595  10.969  10.373  0.2020  0.0778  0.7022
26838SOL     OW89481   1.959   0.100   3.464  0.4119  0.4296 -0.3867
26838SOL    HW189482   1.961   0.057   3.379 -1.4031  1.7362 -1.1592
26838SOL    HW289483   1.866   0.116   3.480  0.8746  2.0460  0.8966
26839SOL     OW89484   8.653   4.961   6.966 -0.0792 -0.7925 -0.1154
26839SOL    HW189485   8.590   4.962   7.038 -1.0682  0.1838 -0.9581
26839SOL    HW289486   8.655   4.870   6.936 -0.6159 -0.9513  0.3238
26840SOL     OW89487   7.371  10.833   0.291  0.1223 -0.1667  0.2697
26840SOL    HW189488   7.293  10.886   0.281 -0.3521 -0.6360  1.3066
26840SOL    HW289489   7.381  10.822   0.385  1.3524 -0.2434  0.1465
26841SOL     OW89490   3.056   4.544   4.792  0.1654 -0.2898 -0.9753
26841SOL    HW189491   3.007   4.475   4.839  1.5454 -0.4302  0.3408
26841SOL    HW289492   3.027   4.625   4.834 -0.3671 -0.1916 -1.5234
26842SOL     OW89493   7.765  11.253  10.456  0.1854  0.2674  0.2669
26842SOL    HW189494   7.778  11.345  10.430  1.0925  0.8702  2.6099
26842SOL    HW289495   7.836  11.206  10.414 -0.9358  0.4001 -1.8830
26843SOL     OW89496   1.511   7.369   0.624 -0.0942  0.2235  0.2049
26843SOL    HW189497   1.541   7.451   0.664 -1.9037  0.4109  1.3172
26843SOL    HW289498   1.580   7.306   0.644  0.8834  1.2498  0.1575
26844SOL     OW89499   7.625   3.502  12.549  0.0451  1.0116 -0.1848
26844SOL    HW189500   7.555   3.437  12.546  1.4512 -0.5415 -0.6141
26844SOL    HW289501   7.625   3.533  12.640  0.6961 -1.1872  0.6195
26845SOL     OW89502   2.113   8.777  12.192 -0.3344 -0.1307  0.2177
26845SOL    HW189503   2.082   8.737  12.111  1.0403 -2.3053  0.6859
26845SOL    HW289504   2.071   8.726  12.261  0.4562  0.0621  0.8564
26846SOL     OW89505  12.034   2.080   7.482  0.2373 -0.4024 -0.0059
26846SOL    HW189506  12.076   1.997   7.503  0.2308 -0.6987 -1.0929
26846SOL    HW289507  11.941   2.063   7.491  0.1162 -1.0920 -2.0431
26847SOL     OW89508   2.151   5.591   0.658 -0.1377 -0.1597 -0.0376
26847SOL    HW189509   2.247   5.588   0.653 -0.1017 -1.5956  0.9872
26847SOL    HW289510   2.133   5.606   0.751 -0.9026 -1.1117 -0.0215
26848SOL     OW89511   1.983   7.248   3.103 -0.5845 -0.0825  0.1708
26848SOL    HW189512   1.941   7.306   3.166 -1.1031  2.5390 -2.3883
26848SOL    HW289513   1.913   7.191   3.072 -0.0372 -2.4567  2.8181
26849SOL     OW89514   7.501   5.396   8.183 -0.9022 -0.0710 -0.3414
26849SOL    HW189515   7.421   5.374   8.231 -1.5581 -1.9320 -2.1191
26849SOL    HW289516   7.472   5.455   8.114 -0.2314  1.3663  0.5558
26850SOL     OW89517   7.515   1.187  10.457  0.5447 -0.3425 -0.2218
26850SOL    HW189518   7.522   1.092  10.449  0.8520 -0.4288  0.8775
26850SOL    HW289519   7.524   1.204  10.551 -1.5781  0.6001 -0.1217
26851SOL     OW89520   6.633   3.178   5.463  0.8321 -0.1308 -0.1455
26851SOL    HW189521   6.702   3.197   5.400 -0.3576  1.6919 -0.9861
26851SOL    HW289522   6.634   3.252   5.524 -1.0837  0.5437 -0.8618
26852SOL     OW89523   9.003   7.391   7.639 -0.4165  0.2040  0.0234
26852SOL    HW189524   9.049   7.310   7.662 -1.1247 -0.0385  0.6284
26852SOL    HW289525   9.047   7.422   7.559  1.0512  0.2017  0.8031
26853SOL     OW89526   0.887   0.837   6.719 -0.1930  0.3090  0.0049
26853SOL    HW189527   0.801   0.869   6.746 -0.4244 -0.6642  0.4735
26853SOL    HW289528   0.879   0.742   6.724  1.0530  0.2146  0.5082
26854SOL     OW89529   9.195  12.184  10.545 -0.5164  0.2857  0.1173
26854SOL    HW189530   9.212  12.218  10.457  0.8465  0.1669  0.3170
26854SOL    HW289531   9.276  12.141  10.571 -1.0553 -0.0981  1.2521
26855SOL     OW89532   1.234  10.326   8.058  0.4470 -0.1410 -0.2181
26855SOL    HW189533   1.263  10.345   8.147  0.2141 -2.3261  0.3656
26855SOL    HW289534   1.305  10.358   8.002  1.6061 -0.6937  0.8941
26856SOL     OW89535  12.575   8.606   5.548  0.6793  0.3075 -0.2205
26856SOL    HW189536  12.509   8.569   5.491  2.1130  0.5917 -2.1518
26856SOL    HW289537  12.641   8.537   5.556  1.2531  0.8479 -0.2297
26857SOL     OW89538   6.026  11.340   9.258 -0.0202 -0.0564 -0.6585
26857SOL    HW189539   6.104  11.388   9.230 -0.0207  0.4575  0.2130
26857SOL    HW289540   5.958  11.367   9.195  0.4945 -0.5255 -1.4357
26858SOL     OW89541   9.173   3.558   0.240 -0.5043 -0.0384 -0.1953
26858SOL    HW189542   9.106   3.500   0.204  0.9697  0.2798 -3.8819
26858SOL    HW289543   9.158   3.642   0.196  1.0482  0.6064  0.4400
26859SOL     OW89544   1.281  11.864   6.653 -0.0211  0.4648 -0.4131
26859SOL    HW189545   1.376  11.861   6.665 -0.1006  0.8236  0.4348
26859SOL    HW289546   1.267  11.853   6.559  0.8938  0.9465 -0.6123
26860SOL     OW89547   6.955  10.977   4.835 -0.2702 -0.0881  0.0581
26860SOL    HW189548   6.887  11.022   4.885  0.3509 -0.5353  1.3436
26860SOL    HW289549   6.965  10.892   4.879 -0.1042 -0.7378 -1.1834
26861SOL     OW89550   8.184   8.382   0.936  0.6460 -0.5617  0.8014
26861SOL    HW189551   8.093   8.403   0.914  0.3739 -2.5377 -0.1595
26861SOL    HW289552   8.221   8.465   0.967 -1.4266  0.3235  1.0802
26862SOL     OW89553   3.657   9.153  11.069 -0.0184 -0.3349  0.2461
26862SOL    HW189554   3.574   9.119  11.036 -0.7736  1.0543  0.6163
26862SOL    HW289555   3.711   9.166  10.991 -0.3493 -0.7444 -0.0516
26863SOL     OW89556  12.580   3.918  11.396 -0.1475 -0.2145  0.1493
26863SOL    HW189557  12.507   3.973  11.367 -0.7127  0.3090  2.3979
26863SOL    HW289558  12.658   3.960  11.359 -0.7874  0.5916 -0.3163
26864SOL     OW89559   2.854   4.600  12.153 -0.4576  0.2213  0.3896
26864SOL    HW189560   2.847   4.548  12.233 -0.9153 -0.1242  0.1279
26864SOL    HW289561   2.764   4.608  12.122 -0.4998  1.8224  0.8353
26865SOL     OW89562   1.764   7.718   5.261 -0.2567  0.3502  0.1750
26865SOL    HW189563   1.820   7.654   5.306 -0.6465  0.6084  1.0397
26865SOL    HW289564   1.806   7.730   5.176 -0.8800 -2.0799 -0.5694
26866SOL     OW89565   6.997  12.356   9.047  0.1531  0.1013  0.4238
26866SOL    HW189566   7.067  12.378   8.985  0.0420  0.1219  0.3054
26866SOL    HW289567   7.027  12.391   9.131  0.4382 -0.1761  0.4420
26867SOL     OW89568   4.617   5.054  11.358  0.2778  0.0949  0.1804
26867SOL    HW189569   4.688   5.095  11.309 -0.4999 -0.0650 -1.1356
26867SOL    HW289570   4.606   4.968  11.317  1.1042 -0.9929  2.1368
26868SOL     OW89571   9.107   3.654   6.064 -0.1923  0.0251 -0.0331
26868SOL    HW189572   9.065   3.740   6.065 -0.5716 -0.1615  0.7714
26868SOL    HW289573   9.142   3.642   6.153  1.6523  0.1974 -0.6839
26869SOL     OW89574   2.149   4.896   5.398 -0.2638  0.1874 -0.1148
26869SOL    HW189575   2.176   4.920   5.309  1.9525 -0.0041  0.4385
26869SOL    HW289576   2.203   4.951   5.455 -1.9690  0.6358  1.1375
26870SOL     OW89577   5.521   7.565   0.695 -0.5277  0.5594  0.4424
26870SOL    HW189578   5.432   7.596   0.681 -1.0339  0.2086  2.5194
26870SOL    HW289579   5.511   7.474   0.723  0.5796  0.1629 -0.3521
26871SOL     OW89580   1.173   7.834   9.471  0.3287 -0.3108  0.1257
26871SOL    HW189581   1.210   7.802   9.389  1.2462 -0.8283  0.7151
26871SOL    HW289582   1.173   7.757   9.529 -1.6315 -0.3078  0.1866
26872SOL     OW89583   5.726  12.423   0.456  0.2307  0.4722  0.2729
26872SOL    HW189584   5.651  12.397   0.509  0.5741 -0.4930  0.3029
26872SOL    HW289585   5.799  12.427   0.518  0.8048 -1.4290 -0.2152
26873SOL     OW89586   2.666  12.010  11.261 -0.1522  0.5779  0.0248
26873SOL    HW189587   2.649  12.054  11.345  0.6735  1.9975 -0.5154
26873SOL    HW289588   2.643  11.918  11.277 -1.1733  1.0392  1.4385
26874SOL     OW89589   3.518   5.632   9.956  0.5661 -0.5840 -0.1083
26874SOL    HW189590   3.584   5.566   9.934  0.1610 -0.7826 -0.7866
26874SOL    HW289591   3.510   5.627  10.051  0.0137 -2.0551 -0.1959
26875SOL     OW89592  12.269   9.280  12.424 -0.3220 -0.0785 -0.5890
26875SOL    HW189593  12.351   9.314  12.388  0.3096 -1.1830 -0.2648
26875SOL    HW289594  12.202   9.310  12.363  0.4353  0.1473 -1.3326
26876SOL     OW89595   7.343   6.976  10.660  0.4124 -0.0740 -0.1845
26876SOL    HW189596   7.314   6.993  10.750  0.8491  0.6521 -0.1733
26876SOL    HW289597   7.436   6.954  10.668  0.4568  0.0049 -0.4661
26877SOL     OW89598   6.442   0.535   2.627 -0.4034 -0.0479  0.9784
26877SOL    HW189599   6.352   0.565   2.637 -0.4580 -0.1580  0.8124
26877SOL    HW289600   6.473   0.576   2.547 -0.2270  0.1834  1.1632
26878SOL     OW89601   7.299   9.805   2.616 -0.3280  0.0564 -0.6345
26878SOL    HW189602   7.310   9.716   2.649 -1.4548  0.9612  2.5090
26878SOL    HW289603   7.346   9.860   2.677 -2.3458  1.8727 -0.5826
26879SOL     OW89604   0.796   8.859   5.167 -1.0260 -0.9244  0.7454
26879SOL    HW189605   0.797   8.817   5.081 -0.9570 -1.1462  0.8521
26879SOL    HW289606   0.754   8.795   5.224 -0.4702 -1.0601  1.0148
26880SOL     OW89607   4.367   2.108   1.538 -0.2623  0.0615 -0.0268
26880SOL    HW189608   4.302   2.039   1.548  0.3275 -0.7317 -1.4563
26880SOL    HW289609   4.435   2.087   1.601 -1.3598  0.9342  1.5306
26881SOL     OW89610   8.718   6.215  11.141 -0.7407 -0.2945 -0.3219
26881SOL    HW189611   8.721   6.148  11.209  2.5091 -1.5031 -1.4452
26881SOL    HW289612   8.664   6.176  11.072 -2.7953  0.3277  0.8336
26882SOL     OW89613  10.569   1.734   7.737  0.1974 -0.3257  0.1419
26882SOL    HW189614  10.618   1.777   7.667 -2.4135  0.0120 -1.6541
26882SOL    HW289615  10.596   1.642   7.732  1.6791  0.0769  0.2278
26883SOL     OW89616   2.632  10.867   8.115 -0.1459 -0.1289  0.1155
26883SOL    HW189617   2.583  10.949   8.115  0.4031  0.2488 -2.0106
26883SOL    HW289618   2.713  10.887   8.069  0.4209 -1.6345  0.3846
26884SOL     OW89619   8.649   5.581  10.392  0.1332 -0.0089  0.0031
26884SOL    HW189620   8.612   5.563  10.478 -1.5900 -0.4644 -0.7984
26884SOL    HW289621   8.576   5.570  10.331  1.2011  0.7360 -1.4843
26885SOL     OW89622   9.285   8.629   8.940 -0.7853 -0.2670  0.4580
26885SOL    HW189623   9.296   8.644   8.846 -0.5865 -0.2897  0.4780
26885SOL    HW289624   9.283   8.534   8.949 -2.4764 -0.2839  0.2799
26886SOL     OW89625   0.052   6.567   7.889  0.1019 -0.0298  0.7105
26886SOL    HW189626   0.001   6.540   7.813 -0.1225  1.6875  0.2063
26886SOL    HW289627   0.029   6.659   7.902  2.9469  0.8194  0.5470
26887SOL     OW89628   0.670   6.279   6.679 -0.1459 -0.3930 -0.4518
26887SOL    HW189629   0.672   6.184   6.682 -1.2281 -0.4284 -0.3931
26887SOL    HW289630   0.756   6.304   6.646  0.3639 -1.3604  0.1045
26888SOL     OW89631   4.983   4.844   6.314  0.6334  0.0355  0.6803
26888SOL    HW189632   4.967   4.938   6.310  1.0091  0.0755 -0.9990
26888SOL    HW289633   4.897   4.804   6.308  0.4595  0.2670  1.5823
26889SOL     OW89634   6.943   3.395  11.741  0.5728 -0.5677  0.3922
26889SOL    HW189635   6.988   3.322  11.784 -0.0788 -1.5641 -0.5748
26889SOL    HW289636   6.876   3.422  11.804 -0.4641 -2.0981  0.0016
26890SOL     OW89637   6.549   5.151  12.475 -0.1194  0.3778 -0.1831
26890SOL    HW189638   6.490   5.144  12.400 -2.1925 -2.3048  1.5068
26890SOL    HW289639   6.495   5.189  12.545  0.3198 -1.3647  1.1759
26891SOL     OW89640   0.625   1.755   6.580 -0.1619 -0.4151  0.2316
26891SOL    HW189641   0.610   1.712   6.664  2.1812 -0.9131  0.4722
26891SOL    HW289642   0.650   1.684   6.521 -0.0989  0.1364 -0.4173
26892SOL     OW89643   0.137   9.081   4.252 -0.2727  0.7466  0.1338
26892SOL    HW189644   0.213   9.080   4.195 -0.2307  2.0913  0.1292
26892SOL    HW289645   0.089   9.159   4.226 -1.7505 -0.1518  0.0259
26893SOL     OW89646   5.485   0.074  10.684 -0.1025  0.4717 -0.7580
26893SOL    HW189647   5.580   0.063  10.684 -0.0668  0.7632 -0.4244
26893SOL    HW289648   5.467   0.133  10.758 -0.8548 -2.4582  1.6146
26894SOL     OW89649   8.188   0.961   7.729 -0.1337  0.0909 -0.8018
26894SOL    HW189650   8.114   0.956   7.790  0.0504 -3.2985 -0.6977
26894SOL    HW289651   8.162   0.906   7.655  1.9372 -0.5296 -1.1386
26895SOL     OW89652   6.432   9.271   3.173 -0.0318 -0.2594 -0.4596
26895SOL    HW189653   6.346   9.252   3.212  0.3147  0.6824  0.8173
26895SOL    HW289654   6.481   9.189   3.181 -0.1679 -0.2509  0.5799
26896SOL     OW89655  11.217   3.970  10.379  0.2343 -0.6512  0.0008
26896SOL    HW189656  11.242   4.061  10.394  1.0707 -0.7654 -0.5937
26896SOL    HW289657  11.180   3.970  10.290 -1.3879 -0.5967  0.6444
26897SOL     OW89658   8.872   8.886   1.362  0.4493 -0.6234 -0.1451
26897SOL    HW189659   8.861   8.896   1.267 -0.1559 -0.3277 -0.0512
26897SOL    HW289660   8.886   8.792   1.375  0.7387 -0.6369 -0.5455
26898SOL     OW89661   9.936   3.160   7.973 -0.3241 -0.1491  0.5278
26898SOL    HW189662   9.847   3.128   7.958 -0.3394  0.0541  0.1661
26898SOL    HW289663   9.926   3.223   8.045 -0.6239  0.5188 -0.0802
26899SOL     OW89664   6.102   1.427   3.475 -0.0235  0.2722 -0.3290
26899SOL    HW189665   6.190   1.408   3.440 -0.0300  0.8830 -0.6938
26899SOL    HW289666   6.099   1.523   3.480 -1.3347  0.3839 -2.1054
26900SOL     OW89667   6.610   8.866   9.091  0.0383 -0.5194  0.3420
26900SOL    HW189668   6.610   8.958   9.114  2.7270  0.2184 -2.0803
26900SOL    HW289669   6.536   8.856   9.030  0.1928  0.1973  0.0369
26901SOL     OW89670   5.342  10.680   6.041  0.1173  0.1536 -0.7255
26901SOL    HW189671   5.294  10.624   6.102  1.0151  1.4709  1.3118
26901SOL    HW289672   5.431  10.684   6.077  0.8501  0.5596 -2.4593
26902SOL     OW89673   3.778   0.629   8.403  0.2117  0.3427  0.2667
26902SOL    HW189674   3.717   0.702   8.414  0.4746  0.4010  1.4981
26902SOL    HW289675   3.771   0.579   8.484 -0.8755 -1.7479 -1.0325
26903SOL     OW89676   2.340  10.837   1.587 -0.3664  0.2894 -0.7173
26903SOL    HW189677   2.320  10.747   1.615  1.6619  0.4668  1.6335
26903SOL    HW289678   2.297  10.892   1.653 -0.2187  0.9747 -1.1860
26904SOL     OW89679   1.190   0.003   0.618 -0.4639 -0.4094  0.0176
26904SOL    HW189680   1.184   0.010   0.713 -0.2560  0.4999 -0.0306
26904SOL    HW289681   1.281  -0.020   0.601 -0.3811 -0.0798  0.0136
26905SOL     OW89682   8.167  11.150   4.516 -0.4812  0.1136 -0.3504
26905SOL    HW189683   8.072  11.137   4.509 -0.2438 -1.1792 -1.6214
26905SOL    HW289684   8.205  11.078   4.466  1.1646  1.1462 -0.6605
26906SOL     OW89685   3.552   7.531   5.400  0.3221 -0.4349 -0.1833
26906SOL    HW189686   3.539   7.587   5.476  0.9205 -0.3967 -0.1031
26906SOL    HW289687   3.560   7.443   5.437 -0.3872 -0.5484 -0.2890
26907SOL     OW89688   4.499   4.671  10.675 -0.9351 -0.2726  0.2668
26907SOL    HW189689   4.496   4.683  10.770  0.9776 -0.0950  0.3308
26907SOL    HW289690   4.456   4.750  10.640  0.1260  0.6386  0.9577
26908SOL     OW89691   7.094   4.945   4.065  0.5674 -0.1649 -0.1507
26908SOL    HW189692   7.082   4.914   3.975  3.8706 -0.0578 -0.7586
26908SOL    HW289693   7.173   4.999   4.062  0.4701  0.3135  2.7275
26909SOL     OW89694   3.666   7.150   6.987 -0.3707  0.2166  0.0711
26909SOL    HW189695   3.641   7.071   6.939 -1.4104  1.4950 -1.6325
26909SOL    HW289696   3.679   7.121   7.077 -0.3712 -1.9407 -0.5676
26910SOL     OW89697   2.005   8.673   6.327 -0.3059 -0.4287  0.2991
26910SOL    HW189698   2.057   8.669   6.248 -0.7013 -0.9477  0.0568
26910SOL    HW289699   2.066   8.701   6.395  0.2683 -0.9433  0.0042
26911SOL     OW89700  11.267   7.818   8.775 -0.2705  0.1723 -0.7806
26911SOL    HW189701  11.227   7.898   8.740 -0.5979  1.7485  2.7897
26911SOL    HW289702  11.215   7.796   8.852  1.7432 -1.6369  0.1929
26912SOL     OW89703   2.946   5.276   6.543 -0.2597  0.0727 -0.0372
26912SOL    HW189704   2.888   5.314   6.609 -0.3912  0.8034 -0.5598
26912SOL    HW289705   3.018   5.238   6.593 -0.6167  0.1619  0.5544
26913SOL     OW89706   6.723   9.273   6.298 -0.5692 -0.3302  0.0164
26913SOL    HW189707   6.795   9.258   6.238 -0.8501 -0.9578 -0.1630
26913SOL    HW289708   6.764   9.316   6.374  0.0922 -1.2267  0.1750
26914SOL     OW89709   5.403  12.275   9.314  0.1888 -0.4135  0.8708
26914SOL    HW189710   5.368  12.363   9.329  0.9396 -0.0229  0.4326
26914SOL    HW289711   5.493  12.280   9.344  0.5179 -0.7535 -0.0242
26915SOL     OW89712  12.501  11.716   2.008 -0.2022  0.7043 -0.4274
26915SOL    HW189713  12.529  11.683   1.923  0.8965 -0.4094  0.3341
26915SOL    HW289714  12.564  11.785   2.029 -0.5515  1.0714 -0.5594
26916SOL     OW89715   8.705  11.789   9.407 -0.6451  0.3120  0.0439
26916SOL    HW189716   8.614  11.809   9.432 -1.0217  1.3765 -1.9994
26916SOL    HW289717   8.754  11.799   9.488 -2.2699  0.2139  1.0981
26917SOL     OW89718   6.471   7.088   2.159  0.2160  0.1891  0.1243
26917SOL    HW189719   6.446   7.073   2.250 -1.4954  1.2945 -0.1124
26917SOL    HW289720   6.423   7.021   2.110 -0.5620  0.9062 -0.1266
26918SOL     OW89721   0.131   0.986   1.744 -0.0960  0.5564  0.1016
26918SOL    HW189722   0.122   1.050   1.673  0.3445  0.1430 -0.3321
26918SOL    HW289723   0.052   0.931   1.737 -1.7779  2.5455  2.0363
26919SOL     OW89724   0.666   8.076   5.546  0.1768 -0.0371  0.3316
26919SOL    HW189725   0.757   8.051   5.531  0.4887  0.3066  1.5786
26919SOL    HW289726   0.623   8.058   5.462  0.6791 -3.3271  0.6631
26920SOL     OW89727   5.827  12.593   7.389  0.7156 -0.2514 -0.2356
26920SOL    HW189728   5.738  12.559   7.385 -0.1303  1.9097 -0.9589
26920SOL    HW289729   5.850  12.591   7.482 -2.5444  4.8436  1.0514
26921SOL     OW89730   0.840   8.828   5.969  0.0931  0.5472 -0.5826
26921SOL    HW189731   0.909   8.828   5.902 -0.5507 -0.6376 -1.2949
26921SOL    HW289732   0.758   8.837   5.919 -0.2720  3.3497  0.3293
26922SOL     OW89733   7.717   4.094   2.126  0.2963 -0.2308 -0.0084
26922SOL    HW189734   7.755   4.058   2.206  1.4549 -0.0861 -0.4773
26922SOL    HW289735   7.641   4.143   2.155 -0.8834 -2.3726  0.7366
26923SOL     OW89736   4.967   0.066   1.674 -0.5275 -0.6893 -0.2763
26923SOL    HW189737   5.041   0.007   1.689 -0.0256 -0.0376 -0.1412
26923SOL    HW289738   4.966   0.123   1.751 -1.1746 -0.6958 -0.2775
26924SOL     OW89739   9.704   9.991   4.682  0.3831 -0.4692 -0.3890
26924SOL    HW189740   9.799   9.984   4.688  0.4298  0.2279 -0.2806
26924SOL    HW289741   9.688  10.064   4.622 -0.0876 -1.0896 -1.0399
26925SOL     OW89742   8.034  11.209   4.047  0.3710  0.3202 -0.7840
26925SOL    HW189743   7.994  11.287   4.084 -0.3713 -0.5457  0.3175
26925SOL    HW289744   8.020  11.141   4.113 -0.5824 -1.1909 -2.4321
26926SOL     OW89745   5.415   0.093   1.476 -0.1366 -0.2837  0.2505
26926SOL    HW189746   5.407   0.122   1.567  1.6958  0.5336  0.1881
26926SOL    HW289747   5.476   0.020   1.479  1.3829  0.9049 -0.4929
26927SOL     OW89748   1.438   0.643   4.206  0.3739 -0.2717  0.2871
26927SOL    HW189749   1.496   0.599   4.144 -0.0837 -1.8375  0.9371
26927SOL    HW289750   1.354   0.599   4.197  0.9037 -2.4115  3.7971
26928SOL     OW89751   4.534   9.817   0.917 -0.4847  0.4951 -0.6523
26928SOL    HW189752   4.582   9.738   0.892  2.7166  1.6252  1.3675
26928SOL    HW289753   4.459   9.785   0.967  0.8138 -1.3337  0.2399
26929SOL     OW89754   5.997  11.515  10.695 -0.0330 -0.2004  0.4033
26929SOL    HW189755   6.085  11.477  10.692 -0.8110 -2.1079  0.5282
26929SOL    HW289756   6.010  11.602  10.732  1.6762 -0.8352  1.4065
26930SOL     OW89757   2.440   0.494   7.215 -0.5939 -0.2339 -0.3714
26930SOL    HW189758   2.413   0.542   7.137 -1.9507 -0.6108 -0.1621
26930SOL    HW289759   2.528   0.527   7.234 -1.0762  1.4214 -0.8244
26931SOL     OW89760   3.045   5.689   2.004  0.0488  0.6881 -0.4857
26931SOL    HW189761   3.058   5.596   1.986  2.0031  1.0031 -1.0063
26931SOL    HW289762   3.017   5.726   1.921 -0.8403  0.5592 -0.2497
26932SOL     OW89763   6.141   0.854   0.357  0.3522  0.6188 -0.6112
26932SOL    HW189764   6.166   0.931   0.407 -1.9123 -0.6609  2.8888
26932SOL    HW289765   6.109   0.888   0.273 -0.1630  3.4380  0.6261
26933SOL     OW89766   9.920  11.753  11.746  0.4222  0.1039 -0.3591
26933SOL    HW189767   9.924  11.705  11.663 -2.9232 -1.2274  0.0794
26933SOL    HW289768   9.945  11.688  11.812 -2.4513 -0.7024  0.0774
26934SOL     OW89769   5.610  11.629   9.032  0.2935 -0.1148  0.1989
26934SOL    HW189770   5.597  11.546   8.987  0.4835  1.2480 -2.5670
26934SOL    HW289771   5.653  11.606   9.114  0.1659 -2.7234 -0.3911
26935SOL     OW89772   7.512   7.396   3.610 -0.4438  0.1669 -0.2648
26935SOL    HW189773   7.441   7.332   3.622 -0.3723  0.3263  1.3148
26935SOL    HW289774   7.549   7.375   3.524 -3.3484  1.0658 -1.8732
26936SOL     OW89775   5.776   6.565   5.241 -0.5394  0.3970 -0.0476
26936SOL    HW189776   5.823   6.492   5.280  0.7086  0.1212 -1.9659
26936SOL    HW289777   5.698   6.575   5.296 -0.8894 -2.5289  0.1368
26937SOL     OW89778  12.073   6.890   7.253 -0.5265 -0.4443 -0.2408
26937SOL    HW189779  11.995   6.884   7.198 -1.4992  1.8844  0.7516
26937SOL    HW289780  12.041   6.924   7.336  1.4880  0.0076  0.4014
26938SOL     OW89781  12.188   6.884   1.336 -0.3211  0.2091 -0.3649
26938SOL    HW189782  12.209   6.810   1.392 -1.2151 -0.8301 -1.3409
26938SOL    HW289783  12.273   6.926   1.318  0.2566 -0.8509 -0.1788
26939SOL     OW89784   5.974   8.503   3.270 -0.0488  0.4532  0.0654
26939SOL    HW189785   6.047   8.551   3.231 -0.0901  0.3744 -0.1068
26939SOL    HW289786   5.902   8.565   3.273 -1.0814 -0.4410 -2.9896
26940SOL     OW89787   7.557   5.566   3.604  0.2323 -0.0835 -0.0178
26940SOL    HW189788   7.486   5.522   3.650 -0.0852  0.8232  0.3843
26940SOL    HW289789   7.588   5.633   3.664  1.1636 -0.1912 -0.3504
26941SOL     OW89790   3.332   7.942   3.427  0.1571 -0.0224 -0.0486
26941SOL    HW189791   3.289   7.858   3.440  0.7053 -0.2660  0.1965
26941SOL    HW289792   3.260   8.005   3.424 -0.1928 -0.3791  0.7160
26942SOL     OW89793   7.155   9.274   4.055 -0.4708 -0.1573 -0.0941
26942SOL    HW189794   7.194   9.228   4.129  0.3139  2.7028  1.3945
26942SOL    HW289795   7.060   9.268   4.071 -0.4005 -1.3037 -0.0110
26943SOL     OW89796  11.743   1.341   0.705 -0.3334 -0.3814 -0.2826
26943SOL    HW189797  11.696   1.418   0.737 -1.5466 -0.1957 -2.3348
26943SOL    HW289798  11.722   1.272   0.768 -3.9576 -0.4633 -1.3765
26944SOL     OW89799   1.064   4.759   8.792  0.2220 -0.4528  0.0532
26944SOL    HW189800   1.055   4.766   8.887  1.2146  0.5889  0.0841
26944SOL    HW289801   1.157   4.741   8.778 -0.1352 -1.8546 -0.6745
26945SOL     OW89802  11.551   4.284  11.068 -1.0024  0.2026  0.5373
26945SOL    HW189803  11.548   4.361  11.125 -0.8667  0.7451 -0.1737
26945SOL    HW289804  11.637   4.245  11.085 -0.2158  1.3676 -0.5576
26946SOL     OW89805  10.742   1.513   0.031 -0.2664 -0.5671  0.3591
26946SOL    HW189806  10.740   1.608   0.046 -0.8159 -0.5391  0.1618
26946SOL    HW289807  10.735   1.475   0.118 -0.4756 -0.4191  0.4091
26947SOL     OW89808   9.786   0.617   2.095  0.0940 -0.1717 -0.0961
26947SOL    HW189809   9.827   0.672   2.027 -0.5152 -0.7748 -0.9817
26947SOL    HW289810   9.719   0.568   2.048 -2.3664  1.4904  1.4753
26948SOL     OW89811   0.429  10.642   2.453  0.4500 -0.1139 -0.5742
26948SOL    HW189812   0.387  10.582   2.515  0.0907 -1.1825 -1.8272
26948SOL    HW289813   0.503  10.593   2.418  1.0291  0.7150 -0.5485
26949SOL     OW89814   5.848   4.264   1.752 -0.2202  0.1288  0.0025
26949SOL    HW189815   5.815   4.354   1.747  0.2102  0.2588 -0.7735
26949SOL    HW289816   5.813   4.222   1.673 -0.0973 -0.2691  0.1597
26950SOL     OW89817   9.410   0.939   2.360 -0.1315  0.8228 -0.4725
26950SOL    HW189818   9.478   0.896   2.411  0.7365  1.6670 -0.8940
26950SOL    HW289819   9.401   0.885   2.281  0.5951  1.1220 -0.7685
26951SOL     OW89820   5.050  12.106   9.706  0.4269 -0.1818 -0.0158
26951SOL    HW189821   5.108  12.078   9.636 -0.2790 -0.6922 -0.4022
26951SOL    HW289822   5.039  12.200   9.691 -1.4144 -0.6315 -1.8859
26952SOL     OW89823   0.613  11.221   6.207 -0.2598 -0.4299 -0.5103
26952SOL    HW189824   0.598  11.294   6.148 -0.3416  0.4805  0.5970
26952SOL    HW289825   0.673  11.164   6.159  0.3804  0.7123 -1.1277
26953SOL     OW89826   8.728  12.443   6.093 -0.4242  0.5925 -0.2001
26953SOL    HW189827   8.751  12.354   6.119 -3.4234 -0.4739 -0.7838
26953SOL    HW289828   8.733  12.441   5.997 -2.8610  0.2306 -0.3736
26954SOL     OW89829   7.704   6.187   6.710 -0.3750  0.4120 -0.0552
26954SOL    HW189830   7.724   6.279   6.730  1.4425 -0.0788  0.6113
26954SOL    HW289831   7.713   6.181   6.615  1.6851  0.4944  0.0891
26955SOL     OW89832   9.519  10.860   4.598  0.0611  0.1219  0.1112
26955SOL    HW189833   9.553  10.772   4.579  0.9058  0.5198 -0.2928
26955SOL    HW289834   9.432  10.861   4.558  0.0535 -0.5203  0.0915
26956SOL     OW89835   2.270  10.427   9.298 -0.3824 -0.2409  0.1662
26956SOL    HW189836   2.193  10.459   9.251  0.5265 -0.3669 -1.5000
26956SOL    HW289837   2.258  10.333   9.302 -0.1959 -0.2894 -0.3400
26957SOL     OW89838   7.424   0.548   3.895 -0.4232  0.8100  0.6259
26957SOL    HW189839   7.425   0.466   3.845  0.4341  0.7347  0.7536
26957SOL    HW289840   7.379   0.611   3.839  0.5877  0.7488 -0.2707
26958SOL     OW89841  11.160  10.751   3.460 -0.7096  0.0540  0.0230
26958SOL    HW189842  11.175  10.667   3.504 -1.1846  0.7845  1.6485
26958SOL    HW289843  11.139  10.812   3.531  0.6620  1.8060 -0.9922
26959SOL     OW89844  10.128   1.183   2.553 -0.3714  0.5591 -0.3969
26959SOL    HW189845  10.111   1.249   2.620  0.0464  0.1241  0.1512
26959SOL    HW289846  10.105   1.100   2.595  2.8801 -0.0927  0.4083
26960SOL     OW89847   2.690   5.026   6.664 -0.3411  0.2488  0.1416
26960SOL    HW189848   2.600   4.998   6.650  0.4530 -0.9363 -3.5502
26960SOL    HW289849   2.696   5.110   6.618  0.8600 -0.6348 -1.3989
26961SOL     OW89850   8.112   1.653   3.510 -0.1853  0.0886 -0.0992
26961SOL    HW189851   8.019   1.654   3.535  0.0405  0.2407  0.7645
26961SOL    HW289852   8.159   1.659   3.593  0.5946  0.9272 -0.5804
26962SOL     OW89853   2.237   4.297  11.997 -0.2906  0.4396 -0.5618
26962SOL    HW189854   2.330   4.274  11.989 -0.1301  0.7050  0.4208
26962SOL    HW289855   2.192   4.234  11.941  0.2185 -1.7080  1.2999
26963SOL     OW89856   3.611   3.296   9.586 -0.5885  0.4320 -0.5086
26963SOL    HW189857   3.663   3.219   9.606  1.1886  0.9314 -2.8286
26963SOL    HW289858   3.521   3.272   9.610  0.1685 -1.7087  0.3548
26964SOL     OW89859   4.179   2.278   1.690  0.1964  0.0839 -0.1049
26964SOL    HW189860   4.137   2.294   1.605  0.7254  0.4866 -0.2967
26964SOL    HW289861   4.266   2.245   1.668  1.0533  1.9897  0.2386
26965SOL     OW89862   4.305  10.550   7.544  0.0497  0.1993 -0.4197
26965SOL    HW189863   4.332  10.458   7.546 -1.0445 -0.1320  1.2036
26965SOL    HW289864   4.378  10.596   7.502  0.9079 -1.3092 -0.6430
26966SOL     OW89865  10.534   2.703   1.104  0.4838 -0.5849 -1.0541
26966SOL    HW189866  10.524   2.762   1.029 -0.6954  0.4524 -0.1293
26966SOL    HW289867  10.598   2.745   1.160 -0.9925  0.3350  0.0256
26967SOL     OW89868   9.943  11.855   4.733  0.3418 -0.1909  0.1248
26967SOL    HW189869   9.947  11.895   4.646  2.4316 -0.0381  0.2452
26967SOL    HW289870   9.893  11.917   4.786 -0.6586 -0.1265 -0.8542
26968SOL     OW89871   4.561   9.462   3.443 -0.9379 -0.3158  0.4762
26968SOL    HW189872   4.469   9.461   3.414 -0.3473  1.8212 -1.8896
26968SOL    HW289873   4.610   9.486   3.364  1.6673 -1.1648  1.7260
26969SOL     OW89874   7.957  10.998   9.710 -0.0084  0.0488  0.3521
26969SOL    HW189875   7.871  10.957   9.705 -0.0667  0.1204  0.7397
26969SOL    HW289876   7.956  11.047   9.792  0.5610 -0.3153  0.5818
26970SOL     OW89877   4.585   6.483   2.543 -0.0418  0.2251 -0.0106
26970SOL    HW189878   4.599   6.389   2.535 -2.2690 -0.1359 -0.0457
26970SOL    HW289879   4.528   6.493   2.619  0.2417  1.5672  0.0519
26971SOL     OW89880   5.908  10.762   1.436  0.5016  0.4389  0.4488
26971SOL    HW189881   5.823  10.721   1.451  0.9172 -0.1323  1.2924
26971SOL    HW289882   5.909  10.780   1.342 -1.5062  2.6306  0.7246
26972SOL     OW89883   9.228   1.411  10.623  0.3008  0.4464 -0.1090
26972SOL    HW189884   9.134   1.429  10.620  0.3019  0.7921  1.1284
26972SOL    HW289885   9.265   1.489  10.666  1.1177  0.1767 -0.3069
26973SOL     OW89886   4.962   2.194   1.209  0.1205 -0.0735 -0.1243
26973SOL    HW189887   4.990   2.269   1.157 -1.5077  0.7144  0.0883
26973SOL    HW289888   4.901   2.146   1.153 -1.5130  0.6864  0.9256
26974SOL     OW89889   6.392  11.763   0.605 -0.0370 -0.4356 -0.2833
26974SOL    HW189890   6.307  11.805   0.596 -0.5203 -1.4023 -0.3669
26974SOL    HW289891   6.441  11.820   0.665  0.4801  1.9579 -2.7740
26975SOL     OW89892   1.040   5.641   9.886  0.0590 -0.2315  0.2069
26975SOL    HW189893   1.091   5.697   9.945  0.4530  0.1851 -0.5236
26975SOL    HW289894   0.963   5.616   9.938  0.3551  0.2084  0.8652
26976SOL     OW89895  12.158   2.573   0.529 -0.6502  0.3348  0.3595
26976SOL    HW189896  12.150   2.495   0.474 -2.6946 -0.4587  1.6615
26976SOL    HW289897  12.121   2.644   0.475  0.4729  0.2893 -0.5160
26977SOL     OW89898   1.619   0.764   5.304 -0.2676 -0.0191  0.0817
26977SOL    HW189899   1.562   0.769   5.381  1.1166  2.3559  1.0862
26977SOL    HW289900   1.662   0.679   5.312  0.7009  0.6052  2.6818
26978SOL     OW89901  10.579   1.486  10.238  0.2248 -0.6758 -0.2379
26978SOL    HW189902  10.616   1.568  10.271  1.0528 -0.8911 -0.6192
26978SOL    HW289903  10.529   1.513  10.160 -0.9987 -0.2958  0.6405
26979SOL     OW89904   0.367   5.669   1.648  0.4744 -0.9284  0.3254
26979SOL    HW189905   0.323   5.605   1.591 -0.2795 -1.8464  1.8819
26979SOL    HW289906   0.428   5.714   1.589  2.5128 -4.3849 -0.5476
26980SOL     OW89907  12.223   3.650   4.739 -0.3965  0.2273  0.3737
26980SOL    HW189908  12.217   3.608   4.653  2.0054  1.3285 -0.4176
26980SOL    HW289909  12.217   3.578   4.801  1.6885 -1.1083 -0.8745
26981SOL     OW89910   3.892   0.669   3.596 -0.0362 -0.5004 -0.0692
26981SOL    HW189911   3.928   0.584   3.569 -1.5314 -2.4456  3.4922
26981SOL    HW289912   3.961   0.708   3.651 -0.5164 -0.8418  0.7837
26982SOL     OW89913   4.313  12.534   5.893 -0.6323 -0.0434 -0.0805
26982SOL    HW189914   4.280  12.447   5.914 -0.8523 -0.3000 -1.3810
26982SOL    HW289915   4.403  12.534   5.926  0.0685 -1.5169 -1.8217
26983SOL     OW89916   7.603   8.237  12.381 -0.2384  0.2027 -0.3917
26983SOL    HW189917   7.565   8.199  12.461 -0.7044 -1.1844 -1.2259
26983SOL    HW289918   7.676   8.290  12.412 -1.6031  1.3265  1.1073
26984SOL     OW89919   9.684   8.594   2.712 -0.8219 -0.1194 -0.0192
26984SOL    HW189920   9.758   8.537   2.733 -0.7724 -0.4807 -1.1399
26984SOL    HW289921   9.723   8.667   2.664 -1.0748  0.1340  0.1618
26985SOL     OW89922   0.670   8.673   7.242  0.2391  0.0787  0.2473
26985SOL    HW189923   0.714   8.642   7.320  1.2209 -0.8004 -0.6287
26985SOL    HW289924   0.579   8.644   7.253  0.1131  0.8516  1.4996
26986SOL     OW89925   4.516   7.082   2.813  0.0099 -0.1448 -0.4184
26986SOL    HW189926   4.532   7.065   2.906 -0.8024  4.3379  0.7750
26986SOL    HW289927   4.561   7.010   2.768  3.8185 -0.4912  3.2578
26987SOL     OW89928   0.063  11.668   1.501 -0.7382  0.2036  0.4028
26987SOL    HW189929   0.028  11.631   1.420  0.2093 -1.0356  0.5188
26987SOL    HW289930   0.121  11.738   1.472 -0.3479 -0.2825 -0.0098
26988SOL     OW89931   6.708   1.210  11.794  0.2172 -0.0534  0.0255
26988SOL    HW189932   6.688   1.300  11.821  1.5554  0.7791 -1.5389
26988SOL    HW289933   6.756   1.173  11.868 -0.3035  0.5314  0.6714
26989SOL     OW89934   8.557  11.509   1.276  0.1311 -0.0371 -0.9308
26989SOL    HW189935   8.629  11.488   1.335 -0.0175  0.4030 -0.5837
26989SOL    HW289936   8.571  11.453   1.199  2.4569  2.0316 -2.1384
26990SOL     OW89937   0.315   9.952  12.495 -0.5354 -0.7792 -0.5876
26990SOL    HW189938   0.256  10.009  12.543  0.4764 -0.3360  0.1635
26990SOL    HW289939   0.294   9.864  12.526 -0.5331 -0.5879 -0.0365
26991SOL     OW89940   9.513   9.404  10.932  0.1717  0.0391  0.4680
26991SOL    HW189941   9.500   9.465  10.860 -0.1082 -0.2078  0.3073
26991SOL    HW289942   9.427   9.364  10.946 -0.2027  1.2765  2.0317
26992SOL     OW89943   8.500  10.629   4.184 -0.3298  0.0309 -0.1815
26992SOL    HW189944   8.535  10.703   4.234 -0.1304  0.7603 -1.3798
26992SOL    HW289945   8.535  10.640   4.096 -0.3493 -1.4712 -0.3977
26993SOL     OW89946  12.496   5.926  11.587  0.3913  0.3368  0.0501
26993SOL    HW189947  12.429   5.917  11.519  1.3237 -0.9863 -0.7336
26993SOL    HW289948  12.454   5.977  11.656 -2.2937 -2.5082  0.7205
26994SOL     OW89949  10.022  11.291   4.826  0.5033  0.0377  0.8765
26994SOL    HW189950  10.041  11.197   4.822 -0.3132 -0.1044  0.0123
26994SOL    HW289951  10.014  11.318   4.735  0.1153  0.8210  1.1323
26995SOL     OW89952   0.857  11.053   3.955 -0.4842  0.4036  0.2428
26995SOL    HW189953   0.767  11.068   3.983 -0.9355 -0.7555 -0.5155
26995SOL    HW289954   0.854  11.059   3.860  0.1205 -0.2262  0.1739
26996SOL     OW89955   5.556   0.743  10.864 -0.2683 -0.1381  0.3348
26996SOL    HW189956   5.527   0.706  10.780  1.0690 -1.2164  0.2970
26996SOL    HW289957   5.652   0.738  10.860 -0.1519  0.7345  1.5254
26997SOL     OW89958   6.652  11.158   1.514  0.1048 -0.0058  0.2414
26997SOL    HW189959   6.578  11.218   1.519 -0.9684 -1.3808  2.1650
26997SOL    HW289960   6.622  11.087   1.457  0.9632  0.6710 -1.1159
26998SOL     OW89961   9.990   6.927  10.389  0.0819  0.7234  0.3492
26998SOL    HW189962  10.067   6.872  10.395 -0.2825  0.0017 -1.1301
26998SOL    HW289963  10.024   7.015  10.372  0.6042  0.6033  0.7765
26999SOL     OW89964  12.587   1.201   7.217 -0.4354  0.6762 -0.0346
26999SOL    HW189965  12.660   1.251   7.255  0.0561 -0.2119  0.2208
26999SOL    HW289966  12.615   1.110   7.224 -1.9255  0.2565  0.8190
27000SOL     OW89967   1.373  11.264   7.499  0.3723  0.4982 -0.2246
27000SOL    HW189968   1.347  11.253   7.590  0.5166  2.6665  0.1286
27000SOL    HW289969   1.419  11.183   7.477 -0.1432 -0.2847  1.4445
27001SOL     OW89970   8.837  11.075   0.713  0.1920 -0.9713 -0.0204
27001SOL    HW189971   8.863  11.164   0.737  1.2304 -1.1626 -0.3731
27001SOL    HW289972   8.804  11.083   0.624 -2.0785 -0.5455  0.7894
27002SOL     OW89973   4.666   7.348   0.976 -0.8934 -0.1032  0.3010
27002SOL    HW189974   4.595   7.313   0.922 -0.1589 -0.1715 -0.6383
27002SOL    HW289975   4.635   7.435   1.002 -1.0514  0.1237 -0.6377
27003SOL     OW89976  10.499  10.963  11.037 -0.0356 -0.1917  0.2101
27003SOL    HW189977  10.428  11.026  11.026 -0.0776 -0.4659 -1.4428
27003SOL    HW289978  10.474  10.911  11.113 -1.8360 -0.5441 -0.5790
27004SOL     OW89979   5.881   9.646   6.450 -0.2436 -0.2443  0.9684
27004SOL    HW189980   5.811   9.582   6.434 -0.3780  0.0129  0.5331
27004SOL    HW289981   5.956   9.613   6.402 -0.2401 -0.1998  0.9436
27005SOL     OW89982   8.038   2.566   2.120 -0.3841  0.0908  0.1372
27005SOL    HW189983   8.015   2.600   2.034 -0.7518  2.4574  1.0860
27005SOL    HW289984   8.127   2.598   2.135  0.2127 -1.4667  0.1157
27006SOL     OW89985  10.953   6.667   9.743 -0.4976 -0.0610  0.3513
27006SOL    HW189986  11.040   6.693   9.712 -0.8265  0.7738  0.0990
27006SOL    HW289987  10.943   6.578   9.711 -0.6261  0.5969 -1.5786
27007SOL     OW89988   7.611   9.169   8.459 -0.0101  0.3483  0.1993
27007SOL    HW189989   7.679   9.196   8.520 -0.1494  1.6055 -0.1691
27007SOL    HW289990   7.528   9.186   8.505 -0.1536 -2.9935  1.4218
27008SOL     OW89991   8.056   1.543   2.520 -0.2836 -0.6022 -0.6915
27008SOL    HW189992   7.998   1.491   2.576 -1.8216 -0.9196 -2.4863
27008SOL    HW289993   8.008   1.624   2.504  1.5418  0.9226  1.0134
27009SOL     OW89994  12.050  12.260   8.732 -0.4843  0.6172 -0.5911
27009SOL    HW189995  11.983  12.194   8.751 -0.3480  0.2255 -1.4248
27009SOL    HW289996  12.123  12.238   8.790 -1.3572  1.5206  0.8913
27010SOL     OW89997   6.928   4.158  12.195 -0.0747  0.3972  0.3446
27010SOL    HW189998   6.978   4.121  12.268  0.0762  2.1973  1.2244
27010SOL    HW289999   6.842   4.178  12.231 -0.5811 -0.2581 -0.4539
27011SOL     OW90000   0.613   0.995   7.806 -0.2773  0.4871  0.0996
27011SOL    HW190001   0.699   0.955   7.797 -0.2602  0.6422 -0.4236
27011SOL    HW290002   0.555   0.941   7.752 -0.2066  1.3053 -0.8135
27012SOL     OW90003   0.965   1.128   2.744  0.1446 -0.6620  0.2947
27012SOL    HW190004   1.042   1.165   2.701 -0.0130  0.0454  0.6165
27012SOL    HW290005   0.987   1.036   2.758  1.4765 -0.1698  1.6210
27013SOL     OW90006   3.814   0.601  10.536  0.4118 -0.0601 -0.4481
27013SOL    HW190007   3.879   0.587  10.605  2.6825  0.6013 -2.3033
27013SOL    HW290008   3.854   0.667  10.479 -2.4778  1.3054 -1.0634
27014SOL     OW90009   2.701   0.819   4.770 -0.1259 -0.6653  0.1412
27014SOL    HW190010   2.720   0.908   4.741 -0.3595 -1.2250 -1.9101
27014SOL    HW290011   2.748   0.764   4.708  1.5567 -2.0253  2.4517
27015SOL     OW90012   3.792   9.106  12.334  0.1306  0.3398 -0.2747
27015SOL    HW190013   3.700   9.127  12.322  0.2363  0.3366 -1.1672
27015SOL    HW290014   3.835   9.140  12.255  0.5418 -1.6698 -0.9751
27016SOL     OW90015   1.957   8.819   9.213 -0.0244  0.5079 -0.6262
27016SOL    HW190016   1.966   8.803   9.119  1.3139 -0.8218 -0.3129
27016SOL    HW290017   1.872   8.862   9.222  0.1470  1.3576 -2.5087
27017SOL     OW90018   6.885   4.448  11.287 -0.2052  0.1669  0.2973
27017SOL    HW190019   6.849   4.363  11.310 -0.0874  0.3849  1.3567
27017SOL    HW290020   6.929   4.478  11.367  1.1405  0.5127 -0.5246
27018SOL     OW90021   9.562   1.424   3.670 -0.5412  0.3052 -0.4761
27018SOL    HW190022   9.587   1.460   3.755  2.5709 -0.2612 -1.0458
27018SOL    HW290023   9.640   1.434   3.616 -0.9267 -3.2570 -1.9769
27019SOL     OW90024   3.421   8.747  10.233  0.4599 -0.5386 -0.0817
27019SOL    HW190025   3.350   8.786  10.283 -0.7356 -0.4967 -1.7122
27019SOL    HW290026   3.469   8.693  10.296 -2.3976 -2.4287  0.6646
27020SOL     OW90027   6.742   9.419   8.636  0.4292  0.4077 -0.1370
27020SOL    HW190028   6.688   9.489   8.599  1.6252  0.2067 -2.4183
27020SOL    HW290029   6.787   9.461   8.710 -1.1887  1.1515  0.4674
27021SOL     OW90030   7.332  11.077   7.021 -0.4237 -0.1464 -0.0207
27021SOL    HW190031   7.398  11.145   7.006 -0.8130  0.3607  0.5145
27021SOL    HW290032   7.271  11.086   6.948 -1.0025  0.7363  0.5416
27022SOL     OW90033   8.425   8.708   0.586  0.9449 -0.0145  0.1591
27022SOL    HW190034   8.420   8.625   0.635 -1.0944 -0.3407 -0.5136
27022SOL    HW290035   8.493   8.692   0.520  1.9707 -0.4405  1.2848
27023SOL     OW90036  12.546   8.356   3.960 -0.2440  0.4636 -0.4264
27023SOL    HW190037  12.634   8.366   3.922 -0.2797  1.0098 -0.3764
27023SOL    HW290038  12.554   8.390   4.049 -0.5772  0.8023 -0.5225
27024SOL     OW90039   0.795   9.122   2.468 -0.4377 -0.1670  0.1318
27024SOL    HW190040   0.702   9.104   2.486 -1.2737  4.0411  1.2004
27024SOL    HW290041   0.841   9.080   2.541 -1.1826 -3.5281 -1.1438
27025SOL     OW90042  10.228   7.328   2.967 -0.4405  0.0624  0.0961
27025SOL    HW190043  10.245   7.375   2.886 -1.2247 -0.5875 -0.4572
27025SOL    HW290044  10.304   7.272   2.979  0.0835  0.8057  0.2843
27026SOL     OW90045   7.192   4.110   2.590  0.2161 -0.2657 -0.3670
27026SOL    HW190046   7.171   4.149   2.505  0.1339 -2.1653 -1.2855
27026SOL    HW290047   7.132   4.035   2.596 -0.3869  0.3378  1.7882
27027SOL     OW90048  11.758   3.491  11.535  0.4437 -0.0719 -0.9217
27027SOL    HW190049  11.696   3.497  11.462 -0.6818  1.1521  0.0862
27027SOL    HW290050  11.727   3.417  11.587 -1.8279  1.9879  0.9360
27028SOL     OW90051   9.743   6.063   5.923 -0.1468 -0.2814  0.5735
27028SOL    HW190052   9.801   5.997   5.886  2.6640  1.6936  1.1285
27028SOL    HW290053   9.778   6.147   5.891 -3.1043  1.0412  0.4549
27029SOL     OW90054   5.036   0.003   0.064 -0.4748 -0.3891  0.3332
27029SOL    HW190055   5.023  -0.017  -0.029 -0.8488  0.6512  0.1581
27029SOL    HW290056   4.948   0.025   0.096  0.1260  2.7844  0.0698
27030SOL     OW90057   7.632   4.532   1.962  0.1041  0.3881 -0.1739
27030SOL    HW190058   7.712   4.544   2.014  1.4880  2.0211 -2.5130
27030SOL    HW290059   7.652   4.458   1.904 -0.7388 -0.2329  0.2971
27031SOL     OW90060   3.129   0.258   3.837  0.0526  0.6028  0.9379
27031SOL    HW190061   3.208   0.311   3.828  1.3145 -1.0237  1.7833
27031SOL    HW290062   3.160   0.175   3.872 -1.4010 -1.6838 -2.5833
27032SOL     OW90063   7.744   0.650   9.763 -0.2816  0.5354  0.3639
27032SOL    HW190064   7.782   0.664   9.676  0.5111 -0.4366  0.5430
27032SOL    HW290065   7.697   0.567   9.756 -0.9728  0.8967  0.6204
27033SOL     OW90066   4.733  12.260   4.338  0.4836 -0.1824  0.1282
27033SOL    HW190067   4.762  12.351   4.344 -3.1641  1.0932  0.8311
27033SOL    HW290068   4.728  12.231   4.429  0.0667 -0.5247 -0.0019
27034SOL     OW90069   1.710   6.667   3.938 -0.2553 -0.3893  0.8520
27034SOL    HW190070   1.777   6.599   3.931  0.4680  0.3235  0.7095
27034SOL    HW290071   1.654   6.653   3.862  1.2533  0.5792 -0.5157
27035SOL     OW90072   1.544   7.962   3.805  0.1024  0.2018 -0.1451
27035SOL    HW190073   1.632   7.946   3.839 -0.1934  0.2007  0.6337
27035SOL    HW290074   1.553   8.041   3.752  0.4860  0.4692  0.3097
27036SOL     OW90075  10.680   9.156  12.048  0.9654  0.2631 -0.0616
27036SOL    HW190076  10.593   9.170  12.010  0.5381 -0.8005  0.5001
27036SOL    HW290077  10.737   9.143  11.972  0.3033 -0.8434 -0.3914
27037SOL     OW90078   7.394  10.122   3.742 -0.0790  0.5294  0.3208
27037SOL    HW190079   7.390  10.042   3.795 -1.3661  0.3338 -0.0248
27037SOL    HW290080   7.357  10.190   3.799  0.1317  0.6787  0.2789
27038SOL     OW90081  11.162  11.895   5.050 -0.4467 -0.1479 -0.1458
27038SOL    HW190082  11.170  11.991   5.046 -1.1334 -0.0616  0.2168
27038SOL    HW290083  11.245  11.865   5.085 -0.5372  0.3960  0.5610
27039SOL     OW90084   5.767   3.744   1.658  0.4783  0.0482 -0.6922
27039SOL    HW190085   5.742   3.715   1.745 -0.9129  0.9494 -0.7596
27039SOL    HW290086   5.858   3.772   1.667  0.2616  0.4108  0.5383
27040SOL     OW90087   3.076   6.337  10.893  0.3085  0.3427  0.2185
27040SOL    HW190088   3.076   6.271  10.825  1.1384 -0.2817  0.8100
27040SOL    HW290089   3.013   6.305  10.958 -0.0014  0.6194  0.0618
27041SOL     OW90090   5.831   9.271   2.198 -0.0999 -0.8158  0.4379
27041SOL    HW190091   5.833   9.268   2.102 -0.7328 -1.5012  0.4366
27041SOL    HW290092   5.913   9.229   2.225  0.1748 -0.4418  0.2030
27042SOL     OW90093  11.380   4.167   3.108  0.0116  0.1154 -0.4189
27042SOL    HW190094  11.415   4.131   3.027  1.7189 -1.2116  0.8096
27042SOL    HW290095  11.296   4.206   3.084  1.4312  1.7284 -3.1859
27043SOL     OW90096   4.007  12.300   7.373 -0.7938  0.0262  0.3451
27043SOL    HW190097   3.976  12.368   7.433  0.3300  0.2883  0.6556
27043SOL    HW290098   3.927  12.266   7.332 -1.3288  1.8469 -0.1836
27044SOL     OW90099   7.621  11.394   9.224 -0.1381 -0.0838  0.1510
27044SOL    HW190100   7.604  11.310   9.181 -3.2435  0.1563  0.6751
27044SOL    HW290101   7.553  11.452   9.191  1.5575  2.1057  0.2807
27045SOL     OW90102   9.299   2.303  11.784  0.9109 -0.5427  0.3584
27045SOL    HW190103   9.225   2.340  11.736  1.8150 -0.4961 -1.0660
27045SOL    HW290104   9.328   2.373  11.842  1.2252  0.2426 -0.7144
27046SOL     OW90105  11.590   9.555   7.407  0.0471 -0.1599  0.0849
27046SOL    HW190106  11.598   9.647   7.382  0.5756 -0.7914 -2.3182
27046SOL    HW290107  11.598   9.556   7.503 -0.5413  2.3158  0.2000
27047SOL     OW90108  12.332   9.942   7.419 -0.0463 -0.1864 -0.4622
27047SOL    HW190109  12.351  10.025   7.463 -0.0687 -0.3741 -0.0953
27047SOL    HW290110  12.259   9.963   7.360 -0.4769 -0.0840  0.0932
27048SOL     OW90111  11.979  12.062   3.603 -0.4506 -0.1567 -0.3318
27048SOL    HW190112  11.921  12.004   3.554 -0.1673 -0.8006  0.0830
27048SOL    HW290113  12.063  12.017   3.604 -0.1743  0.3518 -0.1653
27049SOL     OW90114  11.150   2.191   4.834  0.3750  0.1279 -0.2398
27049SOL    HW190115  11.142   2.119   4.772 -0.4317 -0.3242  0.3672
27049SOL    HW290116  11.072   2.244   4.820  0.7164  0.6087 -0.3347
27050SOL     OW90117   6.849   7.758   6.045  0.4563 -0.1996  0.3161
27050SOL    HW190118   6.819   7.721   5.962  2.2530 -0.7795 -0.1065
27050SOL    HW290119   6.800   7.840   6.053  0.3848 -0.0438 -1.4020
27051SOL     OW90120   7.148   0.614  12.268  0.3047 -0.0486 -0.3427
27051SOL    HW190121   7.075   0.554  12.281  1.0276 -0.9714 -0.3726
27051SOL    HW290122   7.108   0.696  12.242 -0.8402  0.0538  1.5904
27052SOL     OW90123   4.070   3.396   6.936  0.4642  0.5497  0.0204
27052SOL    HW190124   4.032   3.392   7.023  0.6460  1.1941  0.1361
27052SOL    HW290125   4.123   3.316   6.929 -1.3940 -0.6953 -0.3955
27053SOL     OW90126   7.522   7.475   7.356  0.2721  0.0580  0.1188
27053SOL    HW190127   7.578   7.553   7.351 -0.3716  0.4698 -0.9007
27053SOL    HW290128   7.456   7.497   7.421  0.3255  0.2010  0.1260
27054SOL     OW90129   6.710   1.773  11.916  0.5466  0.1590 -0.4562
27054SOL    HW190130   6.672   1.809  11.997  0.8949 -0.1221 -0.1636
27054SOL    HW290131   6.793   1.735  11.944  1.0722  0.8109 -1.1045
27055SOL     OW90132  10.204   0.725   9.420  0.7392 -0.2336  0.1734
27055SOL    HW190133  10.232   0.799   9.365 -1.3545  0.4480 -0.0650
27055SOL    HW290134  10.220   0.755   9.509 -0.2815  0.6129  0.0863
27056SOL     OW90135   4.664  11.502   5.939  0.0426 -0.9302  0.5627
27056SOL    HW190136   4.570  11.520   5.942 -0.3125 -1.8577 -2.1097
27056SOL    HW290137   4.704  11.571   5.993 -1.8651  2.2410 -1.7507
27057SOL     OW90138   5.148   4.007   6.130  0.1171 -0.4740 -0.1809
27057SOL    HW190139   5.120   3.916   6.123 -1.2322 -0.0789 -0.1123
27057SOL    HW290140   5.223   4.004   6.190  0.6993 -1.6427 -0.9287
27058SOL     OW90141   6.897  11.139   9.583  0.0477 -0.1778  0.7102
27058SOL    HW190142   6.850  11.085   9.646  0.4771 -0.7154  0.5778
27058SOL    HW290143   6.828  11.181   9.531 -0.3088  0.3934  1.6259
27059SOL     OW90144  10.317   0.669   8.869  0.1260  0.0563 -0.0818
27059SOL    HW190145  10.402   0.661   8.912  0.2077  2.5363  0.3507
27059SOL    HW290146  10.254   0.674   8.941  0.0129  1.6732 -0.2440
27060SOL     OW90147   3.804   3.785   1.660 -0.3554  0.7372  0.2059
27060SOL    HW190148   3.829   3.786   1.568 -2.2499  0.5676 -0.3427
27060SOL    HW290149   3.718   3.826   1.662 -2.8201 -3.7880  1.0702
27061SOL     OW90150   7.101   1.514   8.638  0.0047 -0.1171  0.3110
27061SOL    HW190151   7.161   1.563   8.583 -0.0943 -0.5720 -0.2095
27061SOL    HW290152   7.158   1.456   8.690  0.1019  0.3522  0.7366
27062SOL     OW90153   7.829   9.304   0.026  0.0794 -0.6095  0.3358
27062SOL    HW190154   7.739   9.303  -0.007  0.3571 -0.3370 -0.4338
27062SOL    HW290155   7.838   9.389   0.070 -0.5589 -1.3096  1.9205
27063SOL     OW90156   1.263   9.488  12.110  0.8377 -0.0531 -0.1458
27063SOL    HW190157   1.296   9.578  12.119 -0.4370  0.6461 -1.7747
27063SOL    HW290158   1.277   9.448  12.196  0.7870  1.9295  0.8410
27064SOL     OW90159   4.869   3.280   5.811 -0.3817 -0.0016 -0.2293
27064SOL    HW190160   4.893   3.202   5.860 -0.4154  0.4185  0.4738
27064SOL    HW290161   4.933   3.286   5.740  0.7393  0.3197  0.7696
27065SOL     OW90162   6.552   9.992   6.531  0.4166 -0.3484  0.3237
27065SOL    HW190163   6.512   9.931   6.594  0.7515  1.1737  2.0740
27065SOL    HW290164   6.521  10.078   6.558 -0.5224  0.2935 -2.4600
27066SOL     OW90165   4.712   4.799   5.211 -0.3907 -0.1125  0.2055
27066SOL    HW190166   4.708   4.856   5.134  1.7608 -0.0071  0.1219
27066SOL    HW290167   4.754   4.852   5.278 -0.4239 -0.8673  0.8375
27067SOL     OW90168   7.661   3.777  11.778 -0.3454  0.2450  0.2529
27067SOL    HW190169   7.743   3.752  11.736 -0.7026  0.1987 -0.4438
27067SOL    HW290170   7.668   3.744  11.867 -0.3964 -1.4871 -0.3452
27068SOL     OW90171  10.279   1.204   1.090  0.0281 -0.1677 -0.0324
27068SOL    HW190172  10.352   1.165   1.043 -0.1186 -0.0894 -0.3250
27068SOL    HW290173  10.319   1.247   1.166  0.2732 -0.2083 -0.1396
27069SOL     OW90174   5.077  12.401   0.812 -0.1743 -0.4674  0.0434
27069SOL    HW190175   5.121  12.477   0.774 -0.2924 -0.7123 -0.6079
27069SOL    HW290176   5.006  12.438   0.864 -0.6893 -0.1335 -0.8588
27070SOL     OW90177   9.273   7.686   0.895 -0.1226  0.0233 -0.7278
27070SOL    HW190178   9.184   7.687   0.860 -0.2359  0.2384 -0.4455
27070SOL    HW290179   9.288   7.595   0.920  0.0793 -0.1961 -1.6188
27071SOL     OW90180   0.640   2.330   7.601  0.3083 -0.0510 -0.0705
27071SOL    HW190181   0.714   2.384   7.574 -0.3799  1.1122  0.3254
27071SOL    HW290182   0.563   2.387   7.591 -0.3774 -0.7807  0.8526
27072SOL     OW90183   5.149   3.607  11.505 -0.1356  0.7169 -0.4380
27072SOL    HW190184   5.219   3.556  11.465  0.4410  0.5817  0.7085
27072SOL    HW290185   5.156   3.694  11.465  1.3593  1.0067  0.4002
27073SOL     OW90186   0.479   8.523   8.655 -0.2981  0.1187  0.4049
27073SOL    HW190187   0.547   8.581   8.619  0.8400 -0.2831  1.8282
27073SOL    HW290188   0.500   8.516   8.748 -0.4916 -2.4679  0.3231
27074SOL     OW90189   6.776   9.236  12.004 -0.1471 -0.5177  0.3917
27074SOL    HW190190   6.773   9.146  12.038  0.6905 -0.2821  1.1573
27074SOL    HW290191   6.692   9.274  12.028  0.0548 -0.6612  1.3750
27075SOL     OW90192   7.582  12.485   6.614 -0.1755  0.6051 -0.3573
27075SOL    HW190193   7.540  12.474   6.700  1.5646 -0.5023  0.4130
27075SOL    HW290194   7.628  12.403   6.600  1.5546  1.6672 -1.2293
27076SOL     OW90195  11.587   5.416   4.998 -0.3898  0.0342  0.3241
27076SOL    HW190196  11.681   5.417   4.982 -0.1742  0.7769  1.5224
27076SOL    HW290197  11.555   5.342   4.946  0.7290  0.2323 -0.6948
27077SOL     OW90198  10.282   1.675   9.864  0.1329 -0.2749 -0.5160
27077SOL    HW190199  10.217   1.604   9.868 -0.9212  0.6754 -0.3666
27077SOL    HW290200  10.232   1.752   9.837  0.9075  0.8373  1.0799
27078SOL     OW90201   5.226  10.621  10.180 -0.5508  0.4587 -0.4691
27078SOL    HW190202   5.271  10.616  10.096  1.6214 -0.4074  0.6680
27078SOL    HW290203   5.266  10.695  10.225 -2.4631  1.6136 -0.5592
27079SOL     OW90204   1.256   4.897   1.152  0.7494 -0.0250  0.4057
27079SOL    HW190205   1.222   4.891   1.241  0.9099 -0.7840  0.4188
27079SOL    HW290206   1.308   4.818   1.140 -0.5095 -0.6973 -0.8916
27080SOL     OW90207   9.513  11.103   6.646  0.2410  0.4389 -0.4345
27080SOL    HW190208   9.483  11.190   6.619 -1.8160 -0.6460 -1.9130
27080SOL    HW290209   9.456  11.080   6.719 -0.7821 -0.5090 -1.4768
27081SOL     OW90210  11.206   4.356  10.004 -0.5413  0.0436  0.1641
27081SOL    HW190211  11.212   4.351   9.909  0.6316  1.1841  0.1516
27081SOL    HW290212  11.288   4.398  10.031 -0.5894 -0.7951  1.7309
27082SOL     OW90213   7.967   5.537   1.542 -0.0509 -0.0279  0.0431
27082SOL    HW190214   8.056   5.567   1.527  0.8013 -1.8794  1.1127
27082SOL    HW290215   7.953   5.548   1.636 -0.2844 -1.4042  0.1872
27083SOL     OW90216   3.604   8.044  10.207  0.2348 -0.6789 -0.3729
27083SOL    HW190217   3.510   8.032  10.225  0.3029  0.7231  1.2039
27083SOL    HW290218   3.648   7.996  10.277  0.6478 -0.1737 -0.2742
27084SOL     OW90219   1.254   9.920   8.846 -0.3513  0.1815 -0.0764
27084SOL    HW190220   1.284   9.935   8.936 -0.4371 -1.0751  0.1750
27084SOL    HW290221   1.210   9.836   8.849 -1.4057  0.6711 -1.0594
27085SOL     OW90222   6.857   6.651  11.019 -0.1198 -0.1948  0.0638
27085SOL    HW190223   6.927   6.641  10.956  0.3003  0.4633  0.4107
27085SOL    HW290224   6.782   6.681  10.968 -0.3480 -1.5225 -0.4063
27086SOL     OW90225  12.222   7.882  12.182 -0.9056 -0.1521 -0.0945
27086SOL    HW190226  12.202   7.945  12.251 -1.5480 -0.1668 -0.2625
27086SOL    HW290227  12.296   7.832  12.216 -1.7638 -0.7305  0.9594
27087SOL     OW90228   6.074   7.092   3.399 -0.1522 -0.3129 -0.0821
27087SOL    HW190229   6.013   7.040   3.346  0.2268 -0.7983 -0.0488
27087SOL    HW290230   6.156   7.088   3.350 -0.5500  1.7482 -1.0212
27088SOL     OW90231   3.248   0.711   7.251  0.1710 -0.0637 -0.2817
27088SOL    HW190232   3.253   0.664   7.333  1.5415  1.1986  0.4092
27088SOL    HW290233   3.269   0.646   7.184 -2.3034 -1.4467  0.1645
27089SOL     OW90234   8.790   8.069  12.078  0.1705 -0.5301 -1.0551
27089SOL    HW190235   8.768   7.980  12.106  1.2382 -0.3891  0.3657
27089SOL    HW290236   8.849   8.057  12.004 -0.1446 -0.9879 -1.2364
27090SOL     OW90237   3.972   0.799   1.369  0.0034 -0.0207  0.0685
27090SOL    HW190238   3.971   0.873   1.430  0.4271 -0.3876  0.5233
27090SOL    HW290239   4.020   0.731   1.415 -0.5722 -0.6589 -0.2633
27091SOL     OW90240   6.309   1.828   9.925  0.2618  0.0638 -0.6607
27091SOL    HW190241   6.302   1.891   9.998  2.2117  1.6125 -1.7046
27091SOL    HW290242   6.403   1.824   9.906  0.0231 -2.0402 -1.6557
27092SOL     OW90243  11.682  11.053  10.966 -0.4016  0.0367 -0.2875
27092SOL    HW190244  11.706  11.095  10.883  2.6816  0.0178  0.4901
27092SOL    HW290245  11.587  11.041  10.960 -1.1223  4.6096 -1.6967
27093SOL     OW90246  10.690   4.799   8.720  0.1159 -0.0108 -0.4463
27093SOL    HW190247  10.766   4.805   8.662 -0.4405 -0.6414 -1.2819
27093SOL    HW290248  10.727   4.794   8.808  1.1967 -2.5647 -0.9522
27094SOL     OW90249   3.608   7.016  11.550  0.4870 -0.1458 -0.5494
27094SOL    HW190250   3.564   6.959  11.613 -1.1451  2.3763  0.7857
27094SOL    HW290251   3.698   7.021  11.581  0.8929 -2.5285 -1.1753
27095SOL     OW90252   6.326   5.146   4.063 -0.0700 -0.1997  0.0737
27095SOL    HW190253   6.313   5.238   4.041  0.2426 -0.1094  0.2567
27095SOL    HW290254   6.245   5.103   4.037  0.7751 -0.3509 -2.5798
27096SOL     OW90255  10.734   7.741   5.372 -0.2404  0.3302  0.2380
27096SOL    HW190256  10.825   7.735   5.401  0.1525  1.7972 -0.5846
27096SOL    HW290257  10.712   7.652   5.344  0.8986 -0.0644  0.5389
27097SOL     OW90258  10.419   4.796   2.089  0.2860 -0.1268  0.2562
27097SOL    HW190259  10.468   4.827   2.013 -1.0783  2.3604  0.2858
27097SOL    HW290260  10.381   4.713   2.061  3.1571 -1.3635 -0.2773
27098SOL     OW90261   2.770   1.018   1.944  0.0735 -0.7997 -0.1450
27098SOL    HW190262   2.704   1.052   1.883 -0.6556  1.9605  1.9537
27098SOL    HW290263   2.734   1.038   2.031  2.9084 -0.7204  1.1012
27099SOL     OW90264   7.854  10.767   7.035  0.3017 -0.2015 -0.3770
27099SOL    HW190265   7.853  10.677   7.068  2.2099 -0.8935 -2.0071
27099SOL    HW290266   7.907  10.816   7.099 -0.9651 -0.1204  0.6573
27100SOL     OW90267   5.101   2.357  10.386  0.5446 -0.2881  0.3644
27100SOL    HW190268   5.041   2.432  10.383 -1.1566 -1.5966  0.1478
27100SOL    HW290269   5.182   2.389  10.347 -0.3448  1.2544 -0.3010
27101SOL     OW90270   7.862  10.869   5.939 -0.6277  0.5590 -0.3529
27101SOL    HW190271   7.834  10.870   6.030 -2.5748  3.3055 -0.8421
27101SOL    HW290272   7.933  10.933   5.935 -0.0405 -0.0967 -0.6658
27102SOL     OW90273   4.316   0.844   4.832  1.0412  0.0216  0.3469
27102SOL    HW190274   4.384   0.893   4.878  1.5394 -0.0046 -0.3446
27102SOL    HW290275   4.269   0.798   4.901  0.7178  1.2710  1.0022
27103SOL     OW90276   5.737   2.908  11.933  0.3190  0.2962  0.1145
27103SOL    HW190277   5.793   2.901  12.011 -2.0976 -1.5844  1.8435
27103SOL    HW290278   5.722   2.818  11.906 -1.0612  0.7849 -0.8602
27104SOL     OW90279   3.645   4.869   3.504 -0.0688 -0.2733  0.8650
27104SOL    HW190280   3.609   4.796   3.554 -0.0282 -0.9958 -0.1264
27104SOL    HW290281   3.639   4.840   3.413  0.3723  0.7782  0.4933
27105SOL     OW90282   9.705   6.341   3.660 -0.4388 -0.4329 -0.1085
27105SOL    HW190283   9.631   6.402   3.653 -0.2821 -0.2984 -0.6417
27105SOL    HW290284   9.666   6.260   3.695 -0.5544  0.1297  1.1085
27106SOL     OW90285   5.317   1.420   1.076  0.0169  0.5772 -0.6600
27106SOL    HW190286   5.284   1.448   1.161 -0.7978  1.6114 -1.2935
27106SOL    HW290287   5.360   1.497   1.040 -1.7557  0.9242 -2.1892
27107SOL     OW90288   8.256   0.371   3.239  0.2223  0.4544  0.8512
27107SOL    HW190289   8.243   0.338   3.150 -2.2553 -2.0370  1.9456
27107SOL    HW290290   8.347   0.400   3.242  0.6221 -0.1586 -2.2288
27108SOL     OW90291  10.169   7.220   5.131  0.9526 -0.2416 -0.1153
27108SOL    HW190292  10.217   7.255   5.206 -1.1045 -1.7100  2.0272
27108SOL    HW290293  10.202   7.131   5.121 -0.7153 -1.0292  0.9438
27109SOL     OW90294   9.399   6.287   9.591  0.0766  0.2413 -0.6369
27109SOL    HW190295   9.450   6.364   9.617 -0.0051  0.3504 -0.7930
27109SOL    HW290296   9.451   6.246   9.522  0.7031 -0.5243  0.2766
27110SOL     OW90297   8.406   2.353   4.873 -0.1265 -0.6764  0.1701
27110SOL    HW190298   8.419   2.281   4.935 -0.6000 -0.8540  0.0645
27110SOL    HW290299   8.410   2.311   4.787 -0.7604 -0.6321  0.1182
27111SOL     OW90300   6.392   9.889  12.336 -0.4798  0.3573 -0.1019
27111SOL    HW190301   6.302   9.882  12.306 -0.4963  0.0500  0.0192
27111SOL    HW290302   6.425   9.799  12.335 -0.8395  0.1476  1.9260
27112SOL     OW90303   3.245   3.794   2.797 -0.0553 -0.0556 -0.4682
27112SOL    HW190304   3.250   3.773   2.704 -0.8863 -0.9456 -0.3295
27112SOL    HW290305   3.163   3.755   2.826  0.0356  0.4947  0.5720
27113SOL     OW90306   0.222   6.388   4.109 -0.8591  0.2228 -0.4548
27113SOL    HW190307   0.221   6.434   4.025 -1.9211 -2.1160 -1.8527
27113SOL    HW290308   0.180   6.304   4.090 -0.9024 -0.5005  2.3930
27114SOL     OW90309  11.229   6.373   1.430  0.8126  0.0543 -0.0422
27114SOL    HW190310  11.268   6.362   1.343 -1.3646 -1.2649 -0.9397
27114SOL    HW290311  11.176   6.295   1.443 -0.8803  1.3504  1.4001
27115SOL     OW90312  11.677   7.727   3.436 -0.1014 -0.4385  0.0895
27115SOL    HW190313  11.746   7.662   3.451  0.9523  0.2269 -1.5088
27115SOL    HW290314  11.606   7.701   3.494 -0.6174 -4.3638 -1.9390
27116SOL     OW90315  10.897  12.483   6.043  0.0150  0.7180 -0.3597
27116SOL    HW190316  10.867  12.483   5.951  0.4212  0.9842 -0.4922
27116SOL    HW290317  10.824  12.443   6.091  0.1461 -0.2037 -0.9076
27117SOL     OW90318   1.170   9.517   0.935  0.3238  0.5287 -0.9568
27117SOL    HW190319   1.142   9.428   0.957 -1.2410  0.3831 -3.1845
27117SOL    HW290320   1.245   9.533   0.992  1.6675 -2.7916 -1.5317
27118SOL     OW90321   3.051   7.742   2.712 -0.3858  0.1299 -0.4076
27118SOL    HW190322   3.020   7.801   2.780  0.2027  1.6063 -1.3567
27118SOL    HW290323   3.100   7.675   2.758  0.1607  1.2024  0.6178
27119SOL     OW90324   4.221   7.691   6.808 -0.0944  0.5053 -0.1489
27119SOL    HW190325   4.238   7.682   6.714 -2.3536 -0.4468 -0.5567
27119SOL    HW290326   4.193   7.781   6.819 -0.5242  0.4257 -0.5439
27120SOL     OW90327   4.549  11.075  11.490 -0.5071 -0.1197 -0.4129
27120SOL    HW190328   4.644  11.084  11.486 -0.5100  0.1522  0.1004
27120SOL    HW290329   4.532  11.033  11.574 -0.9358  1.3722  0.2814
27121SOL     OW90330   3.159   7.206   1.639  0.6313 -0.0309 -0.2038
27121SOL    HW190331   3.234   7.237   1.690 -1.0563  0.8680  1.8807
27121SOL    HW290332   3.125   7.285   1.597 -1.8371  0.6020  2.6455
27122SOL     OW90333   6.282   8.082   8.185  0.0695 -0.2138  0.7607
27122SOL    HW190334   6.233   8.162   8.168  2.9377  1.8978  1.7131
27122SOL    HW290335   6.317   8.057   8.100 -1.1295 -0.7498  0.3953
27123SOL     OW90336   3.465   5.137   8.642  0.1419  0.0447 -0.2465
27123SOL    HW190337   3.371   5.153   8.650  0.3273  0.5773  1.1623
27123SOL    HW290338   3.476   5.047   8.670  0.2152  0.4563  1.1109
27124SOL     OW90339   3.151   9.705  10.071 -0.2035  0.1147 -0.4542
27124SOL    HW190340   3.170   9.639  10.138  0.8499 -0.8033 -1.6074
27124SOL    HW290341   3.148   9.788  10.119 -2.6356 -0.8182  1.2309
27125SOL     OW90342   8.322   0.906   5.896  0.1170 -0.2053 -0.1446
27125SOL    HW190343   8.293   0.815   5.907 -1.6605  0.3456 -0.0777
27125SOL    HW290344   8.306   0.925   5.804 -2.1113  0.8475  0.3920
27126SOL     OW90345   1.658   4.546   2.660  0.0724 -0.3444 -0.2233
27126SOL    HW190346   1.664   4.584   2.748  1.0461 -0.2782 -0.2991
27126SOL    HW290347   1.713   4.602   2.606 -0.0651 -0.7127 -0.7588
27127SOL     OW90348   4.570   1.080   6.681 -0.1908  0.1552 -0.3942
27127SOL    HW190349   4.646   1.114   6.729 -0.5684 -0.7534  0.9329
27127SOL    HW290350   4.602   1.063   6.593  0.8982  0.6758 -0.1126
27128SOL     OW90351  10.918   5.669   6.555  0.0254 -0.0626 -0.0128
27128SOL    HW190352  10.925   5.753   6.600  2.2558 -0.6504  0.8658
27128SOL    HW290353  10.965   5.682   6.473  0.6736 -0.5325  0.2761
27129SOL     OW90354   5.717  11.650   8.228  0.3511  0.3862  0.0597
27129SOL    HW190355   5.667  11.573   8.198  0.3875  0.5699 -0.4826
27129SOL    HW290356   5.667  11.725   8.195  0.4471  0.5923  0.3805
27130SOL     OW90357  10.216   9.786   2.104 -0.0387  0.2295  0.0976
27130SOL    HW190358  10.176   9.710   2.061 -1.5900  0.5548  0.8861
27130SOL    HW290359  10.231   9.849   2.033  0.3467 -0.4090 -0.4092
27131SOL     OW90360   4.157   9.709  12.341 -0.0744  0.2398  0.2437
27131SOL    HW190361   4.203   9.626  12.327 -0.0123  0.2889  0.1568
27131SOL    HW290362   4.129   9.706  12.432 -0.1495  0.0843  0.2154
27132SOL     OW90363   4.192   8.330  10.428  0.7374 -0.1288  0.4685
27132SOL    HW190364   4.224   8.337  10.518  0.9570  1.6560  0.2890
27132SOL    HW290365   4.135   8.254  10.429  0.5739 -0.0281  2.1759
27133SOL     OW90366  10.474   5.957   9.234  0.3277  0.1362 -0.2931
27133SOL    HW190367  10.486   5.864   9.251 -0.2092  0.1505  0.2066
27133SOL    HW290368  10.408   5.960   9.164 -0.6496  0.1495  0.5963
27134SOL     OW90369   7.621   2.798   2.875 -0.0166 -0.6007 -0.2715
27134SOL    HW190370   7.598   2.880   2.918  0.7227 -1.3664  1.6824
27134SOL    HW290371   7.650   2.740   2.946 -1.5765 -2.9609 -1.4183
27135SOL     OW90372   9.281   3.566  11.576  0.5006  0.4994 -0.1105
27135SOL    HW190373   9.304   3.646  11.622 -1.2714  2.4081 -2.2859
27135SOL    HW290374   9.352   3.552  11.514 -0.2224  1.8011 -1.3063
27136SOL     OW90375  10.619   3.488   4.856 -0.1008  0.4473  0.2638
27136SOL    HW190376  10.691   3.437   4.892  1.7926  1.1593 -2.1809
27136SOL    HW290377  10.543   3.431   4.863  1.6024 -2.1760 -1.0066
27137SOL     OW90378   6.977  11.380  10.944 -0.9840 -0.3659 -0.1146
27137SOL    HW190379   6.958  11.287  10.961 -3.8746  0.0501 -0.5124
27137SOL    HW290380   6.963  11.390  10.850  0.4049  0.3007 -0.2701
27138SOL     OW90381   4.637   9.515   3.173 -0.2306 -0.2706  0.7066
27138SOL    HW190382   4.547   9.510   3.141 -0.3473  0.0104  0.9905
27138SOL    HW290383   4.688   9.540   3.095 -0.4765  0.1351  0.6703
27139SOL     OW90384   8.370   2.344   9.187  0.1359  0.3849  0.3942
27139SOL    HW190385   8.343   2.417   9.242  2.1059  0.2375  1.6203
27139SOL    HW290386   8.373   2.380   9.099 -1.3326  1.0876  0.5960
27140SOL     OW90387   5.505   6.054   4.749 -0.2441 -0.4051  0.0617
27140SOL    HW190388   5.582   6.111   4.752 -0.3649 -0.1880 -0.8365
27140SOL    HW290389   5.480   6.044   4.841  2.0375 -2.1469  0.5828
27141SOL     OW90390   0.646   2.340   9.257  0.3579  0.2319 -0.0584
27141SOL    HW190391   0.727   2.321   9.305  0.7259 -0.6018 -0.9650
27141SOL    HW290392   0.590   2.265   9.275 -0.7825  1.4443  1.6811
27142SOL     OW90393   5.268  10.870  11.108  0.3054  0.2471 -0.2280
27142SOL    HW190394   5.235  10.780  11.105 -0.2598  0.3293  2.0978
27142SOL    HW290395   5.286  10.891  11.016 -2.5891 -1.1061 -1.2320
27143SOL     OW90396  10.489   9.293   2.184 -0.6789  0.9427 -0.0960
27143SOL    HW190397  10.431   9.226   2.148 -1.8241  2.2836 -0.8705
27143SOL    HW290398  10.562   9.244   2.222 -1.3797 -0.7164 -0.7846
27144SOL     OW90399  11.328   9.911   8.668 -0.4184 -0.9880 -0.3555
27144SOL    HW190400  11.324   9.881   8.759  0.0957  0.6538  0.2375
27144SOL    HW290401  11.290   9.839   8.617 -1.4995 -1.5906  1.2395
27145SOL     OW90402   7.043   0.516   7.129  0.8891  0.4971  0.0072
27145SOL    HW190403   7.066   0.445   7.188  1.1389  0.1376 -0.5144
27145SOL    HW290404   7.125   0.564   7.116  0.7553  0.7947  0.2341
27146SOL     OW90405   5.408   5.316   3.533  0.0327 -0.3701  0.0455
27146SOL    HW190406   5.491   5.332   3.488  0.0648 -0.8693 -0.0805
27146SOL    HW290407   5.357   5.396   3.519  0.6099  0.0704  0.4008
27147SOL     OW90408   6.415  11.971   1.871  0.4667 -0.1933 -0.0645
27147SOL    HW190409   6.376  11.892   1.833  1.8111 -0.9953  0.1409
27147SOL    HW290410   6.340  12.027   1.893 -0.4124 -0.2231 -2.6934
27148SOL     OW90411   3.355   1.893  11.407 -0.0189  0.1947 -0.1626
27148SOL    HW190412   3.290   1.848  11.461 -0.3193  2.4853  1.5270
27148SOL    HW290413   3.422   1.922  11.468 -0.0746  2.3820 -1.0485
27149SOL     OW90414  11.600   1.297  10.700  0.2333 -0.5208  0.1343
27149SOL    HW190415  11.640   1.235  10.639 -1.5424 -0.3865 -1.2719
27149SOL    HW290416  11.656   1.375  10.695  0.2827 -0.6080 -1.1602
27150SOL     OW90417   1.446   0.565   6.649  0.6678  0.5388  0.3208
27150SOL    HW190418   1.465   0.487   6.598  1.2953  0.0761  1.2501
27150SOL    HW290419   1.350   0.575   6.643  0.1492 -1.9713  2.5129
27151SOL     OW90420  11.147   9.061  11.277  0.1700 -0.0144  0.0221
27151SOL    HW190421  11.108   9.011  11.349  3.0585  0.0802  1.8323
27151SOL    HW290422  11.174   8.995  11.213 -0.1916 -0.3425  0.2068
27152SOL     OW90423  11.341   1.657   3.129 -0.4633 -0.1017  0.2320
27152SOL    HW190424  11.436   1.666   3.130 -0.4668 -0.1311  0.7877
27152SOL    HW290425  11.325   1.583   3.069 -0.3151  1.8479 -2.4146
27153SOL     OW90426   9.181  10.964  12.127  0.1077  0.2480  0.0219
27153SOL    HW190427   9.189  11.059  12.140  1.6767  0.0190  0.9927
27153SOL    HW290428   9.271  10.933  12.123 -0.3843 -1.2943  0.2911
27154SOL     OW90429   0.187   5.826   4.113  0.4204 -0.4326  0.0584
27154SOL    HW190430   0.116   5.774   4.151  0.2839 -0.3691 -0.1089
27154SOL    HW290431   0.247   5.842   4.186  0.7207 -1.2513  0.0063
27155SOL     OW90432  11.312   1.063   3.634 -0.1134  0.1123 -0.5393
27155SOL    HW190433  11.362   1.072   3.553  0.6652 -1.1417 -0.2330
27155SOL    HW290434  11.378   1.062   3.703 -0.7183  0.4500  0.0619
27156SOL     OW90435   5.151   8.862   7.767  1.0397 -0.4706  0.6477
27156SOL    HW190436   5.172   8.941   7.817 -0.3679  0.1411  0.3296
27156SOL    HW290437   5.072   8.885   7.717  0.7072 -2.0158  0.3949
27157SOL     OW90438  11.755   7.594   5.055 -0.2982  0.1764 -0.0060
27157SOL    HW190439  11.717   7.507   5.065  1.5329 -0.7628 -0.6919
27157SOL    HW290440  11.703   7.650   5.113 -1.4557 -1.3806  0.5277
27158SOL     OW90441   8.106   8.729  11.398  0.2722  0.0444  0.2174
27158SOL    HW190442   8.195   8.713  11.367  0.1670  2.1498 -1.3539
27158SOL    HW290443   8.054   8.659  11.358  0.6939  0.7911 -1.7498
27159SOL     OW90444   4.368   8.631   1.248  0.4285 -0.0546 -0.3050
27159SOL    HW190445   4.342   8.550   1.204 -0.1808  0.1802 -0.3833
27159SOL    HW290446   4.289   8.658   1.296  0.5659  0.6103 -0.4550
27160SOL     OW90447   0.354   9.372   5.920  0.3259 -0.0971 -0.2403
27160SOL    HW190448   0.339   9.455   5.966 -0.4178  0.4258 -1.3840
27160SOL    HW290449   0.269   9.349   5.883  0.9619 -0.3225 -1.6296
27161SOL     OW90450   0.419   7.806   2.723 -0.3798  0.0206 -0.2596
27161SOL    HW190451   0.437   7.899   2.739 -2.2820  0.2173  1.1330
27161SOL    HW290452   0.364   7.806   2.644 -1.0905  0.1790  0.2260
27162SOL     OW90453   4.761   8.839   8.192 -0.1791  0.5420 -0.3699
27162SOL    HW190454   4.734   8.893   8.118 -0.1603  0.5613 -0.3630
27162SOL    HW290455   4.745   8.895   8.269  2.0257  1.4365 -0.4967
27163SOL     OW90456  12.273  11.987  12.042 -0.0582 -0.0635 -0.4807
27163SOL    HW190457  12.275  12.082  12.036 -0.9359 -0.1183 -2.3693
27163SOL    HW290458  12.360  11.959  12.013  1.3551  0.1940  3.1151
27164SOL     OW90459   0.834   5.767   4.034  0.5489 -0.4630 -0.3882
27164SOL    HW190460   0.906   5.792   4.092  0.0958  1.0605 -0.4378
27164SOL    HW290461   0.756   5.770   4.090  0.2209  0.1926 -0.8665
27165SOL     OW90462   8.746  12.365   5.462  0.3028  0.3085 -0.7652
27165SOL    HW190463   8.773  12.276   5.487  0.0907  0.4922  0.1666
27165SOL    HW290464   8.779  12.420   5.533 -0.8679  0.7762 -0.5680
27166SOL     OW90465  11.944  12.036   9.609  0.5995 -0.6476  0.5244
27166SOL    HW190466  12.019  12.050   9.666  0.9343  0.1341 -0.0935
27166SOL    HW290467  11.979  11.988   9.535  0.7788  0.7942 -0.3633
27167SOL     OW90468   7.323   2.445  10.558 -0.5401 -0.6055  0.3779
27167SOL    HW190469   7.383   2.385  10.601 -1.1005 -1.3354  0.1524
27167SOL    HW290470   7.380   2.505  10.510  0.0394 -0.6456  0.9961
27168SOL     OW90471   0.405  10.181   6.947  0.6817  0.5075 -0.5594
27168SOL    HW190472   0.457  10.147   6.874  3.1943 -0.5563  1.5579
27168SOL    HW290473   0.324  10.129   6.944  1.3889 -0.6062 -1.6635
27169SOL     OW90474   4.832  11.835  12.143 -0.0325  0.4984  0.0091
27169SOL    HW190475   4.920  11.851  12.108 -0.5142  0.0501 -1.4695
27169SOL    HW290476   4.818  11.742  12.131 -0.6587  0.5375  0.3804
27170SOL     OW90477   5.809   7.465   9.707  0.5250  0.4994 -0.0078
27170SOL    HW190478   5.819   7.515   9.788 -0.9731 -0.0919  0.5679
27170SOL    HW290479   5.845   7.379   9.727 -0.7896  0.0261  0.3803
27171SOL     OW90480   9.504   7.981   8.087 -0.0639 -0.2663  0.1664
27171SOL    HW190481   9.504   8.076   8.101 -1.0300 -0.3938  1.1665
27171SOL    HW290482   9.590   7.963   8.049 -0.3756  1.1883 -1.3474
27172SOL     OW90483   0.723   5.655   1.686  0.4700  0.0374  0.5498
27172SOL    HW190484   0.679   5.597   1.624 -1.3908  2.0847 -0.1850
27172SOL    HW290485   0.678   5.640   1.769  0.4506 -0.0609  0.5213
27173SOL     OW90486   5.344   8.710   3.292  0.3477 -0.0568  0.3710
27173SOL    HW190487   5.263   8.694   3.342 -1.4091  0.4102 -2.1383
27173SOL    HW290488   5.389   8.778   3.342 -2.5613  2.2559  0.1385
27174SOL     OW90489   2.864   6.064   0.622  0.2265 -0.3445  0.3710
27174SOL    HW190490   2.789   6.023   0.665 -1.4292  0.7361 -1.3379
27174SOL    HW290491   2.899   5.997   0.564 -3.1781  0.6593 -3.3009
27175SOL     OW90492   7.411   4.973   8.314  0.2905 -0.3435 -0.2134
27175SOL    HW190493   7.356   4.917   8.369 -1.4122  1.1831 -0.2499
27175SOL    HW290494   7.488   4.990   8.367  1.0834 -3.0092 -0.3730
27176SOL     OW90495  10.946   0.451   7.326 -0.0095  0.2235 -0.1555
27176SOL    HW190496  10.928   0.468   7.419 -0.9440  1.3280 -0.5084
27176SOL    HW290497  10.906   0.365   7.310 -1.8280  0.9902 -0.0229
27177SOL     OW90498   2.923   5.219   6.228 -0.5057  0.3128 -0.5896
27177SOL    HW190499   3.014   5.226   6.200  0.0369  0.7933  1.1806
27177SOL    HW290500   2.928   5.205   6.322 -2.2012 -2.1644 -0.7647
27178SOL     OW90501   2.239  10.741  10.552 -0.0841  0.1474 -0.2007
27178SOL    HW190502   2.219  10.648  10.556 -1.2498  0.4123  1.5234
27178SOL    HW290503   2.159  10.781  10.515 -0.3552  0.6114  0.8319
27179SOL     OW90504  12.297  11.194   8.088  0.8476  0.3065  0.3858
27179SOL    HW190505  12.276  11.267   8.029 -0.0987  0.0237  0.3538
27179SOL    HW290506  12.264  11.222   8.173 -1.6177 -0.9521 -0.0467
27180SOL     OW90507  10.934   4.975   0.998  0.8633  0.3334 -0.0615
27180SOL    HW190508  10.937   5.005   0.907  1.8248 -0.4855 -0.3211
27180SOL    HW290509  11.009   4.916   1.006 -0.5232 -1.4618  0.5918
27181SOL     OW90510  10.018   8.325  12.389 -0.0409  0.1480  0.2342
27181SOL    HW190511  10.092   8.374  12.352 -0.5446  0.6819 -0.0846
27181SOL    HW290512  10.057   8.270  12.457  1.0063 -1.2487 -1.3892
27182SOL     OW90513   1.883   4.632   9.133 -0.1493  0.5837  0.1364
27182SOL    HW190514   1.825   4.576   9.184  0.9020 -1.6270 -0.9583
27182SOL    HW290515   1.850   4.626   9.043  1.2601 -0.0525 -0.3601
27183SOL     OW90516   0.138   1.249   0.220 -0.0033 -0.5177  0.0950
27183SOL    HW190517   0.188   1.268   0.299  1.2732 -0.9836 -0.5582
27183SOL    HW290518   0.205   1.231   0.154 -1.0194  0.4663 -1.2517
27184SOL     OW90519  12.429   2.358  10.220  0.0988  0.2705 -0.0089
27184SOL    HW190520  12.468   2.324  10.140 -1.5525 -0.3461 -0.5832
27184SOL    HW290521  12.468   2.305  10.290 -0.6971 -1.2586 -0.6866
27185SOL     OW90522   3.909  10.370   8.471 -0.0990 -0.4668  0.2117
27185SOL    HW190523   3.841  10.303   8.486 -2.9238  1.8919 -0.9897
27185SOL    HW290524   3.933  10.359   8.379 -1.0202  0.4849 -0.1594
27186SOL     OW90525   6.070   0.573   9.652  0.4526 -0.1987  0.1118
27186SOL    HW190526   6.105   0.609   9.733 -1.2739 -0.2574  0.9025
27186SOL    HW290527   5.976   0.571   9.664  0.2234 -1.2010 -1.4918
27187SOL     OW90528   9.177   9.121   7.010 -0.3791  0.1451  0.3627
27187SOL    HW190529   9.094   9.073   7.013 -0.2535 -0.0344  1.2813
27187SOL    HW290530   9.187   9.145   6.918 -0.2411 -1.9436 -0.2270
27188SOL     OW90531   5.435  10.410   6.320 -0.1594 -0.5185  0.4847
27188SOL    HW190532   5.364  10.470   6.296  0.6666  0.3062  0.0203
27188SOL    HW290533   5.439  10.416   6.416 -1.3502 -1.3347  0.6021
27189SOL     OW90534   8.067   2.682   3.130 -0.3068  0.4425  0.2125
27189SOL    HW190535   7.988   2.702   3.181  0.2020  0.9017  0.8377
27189SOL    HW290536   8.049   2.716   3.043 -1.3550 -0.7120 -0.0575
27190SOL     OW90537   1.128  11.013   2.366  0.2470 -0.4991 -0.0378
27190SOL    HW190538   1.129  11.031   2.460 -0.0729 -0.2760 -0.0755
27190SOL    HW290539   1.131  10.917   2.361  1.5767 -0.4923  0.1667
27191SOL     OW90540  11.799  10.601   7.173 -0.0744  0.2924 -0.3851
27191SOL    HW190541  11.851  10.551   7.110  0.8627  0.4309  0.2643
27191SOL    HW290542  11.748  10.536   7.220  1.7013 -0.1780  0.9818
27192SOL     OW90543   5.677  11.025   2.470 -0.2711 -0.4380 -0.1045
27192SOL    HW190544   5.626  11.096   2.509  0.7575  0.6055 -0.5941
27192SOL    HW290545   5.634  11.009   2.386  0.4387  0.7766 -0.7373
27193SOL     OW90546   5.974   2.911   3.895  0.0732 -0.1236 -0.2453
27193SOL    HW190547   5.936   2.958   3.821 -0.0440 -1.2491 -0.9348
27193SOL    HW290548   5.901   2.864   3.934 -0.2008  1.7641  1.6773
27194SOL     OW90549  11.998   9.743   3.889  0.3273  0.1986 -0.3448
27194SOL    HW190550  12.088   9.721   3.866  1.2173  1.4559  1.6459
27194SOL    HW290551  11.984   9.703   3.975 -0.8303  0.4754 -0.3831
27195SOL     OW90552   1.107   3.692  11.189 -0.1082 -0.1659 -0.6187
27195SOL    HW190553   1.192   3.651  11.204  0.0737  0.8119  1.2726
27195SOL    HW290554   1.072   3.709  11.276 -0.4087  3.1421 -1.2367
27196SOL     OW90555  10.069   6.381   8.089  0.5655 -0.3607 -0.4801
27196SOL    HW190556  10.101   6.470   8.102  1.2185 -0.3215 -2.0950
27196SOL    HW290557  10.146   6.326   8.098  0.1009 -0.8382  0.8888
27197SOL     OW90558   8.608   7.021   6.373 -0.3413  0.2115  0.0833
27197SOL    HW190559   8.614   7.099   6.317 -0.0971 -0.8649 -1.4664
27197SOL    HW290560   8.698   6.988   6.378 -0.2748  0.5456  1.5475
27198SOL     OW90561   3.612   1.814   3.246 -0.2411 -0.1163 -0.6090
27198SOL    HW190562   3.533   1.817   3.192 -1.5839 -0.8460  1.2014
27198SOL    HW290563   3.613   1.725   3.283  3.2987 -1.3640 -3.1132
27199SOL     OW90564   1.059   5.887   5.456  0.6361  0.0038 -0.9092
27199SOL    HW190565   0.997   5.815   5.447  1.1896 -0.9059  1.7041
27199SOL    HW290566   1.132   5.863   5.399  0.6562 -1.3421 -0.3475
27200SOL     OW90567   0.434   3.692   1.099  0.0960  0.3125 -1.0274
27200SOL    HW190568   0.462   3.620   1.156 -0.9670  0.2794 -0.5229
27200SOL    HW290569   0.341   3.677   1.086  0.1568  0.8102 -2.0919
27201SOL     OW90570   7.883   2.778   3.324 -0.0954  0.3794  0.0548
27201SOL    HW190571   7.954   2.765   3.387 -0.6070  1.0748  0.8042
27201SOL    HW290572   7.831   2.698   3.329 -0.6219  0.7656  1.1912
27202SOL     OW90573   5.885   8.290   3.101  0.3168  0.0360 -0.2503
27202SOL    HW190574   5.791   8.278   3.114  0.1238  1.5190 -0.1168
27202SOL    HW290575   5.911   8.352   3.168  1.1465  0.6187 -1.0805
27203SOL     OW90576   0.708   2.048   6.229  0.5678 -0.6389 -0.2446
27203SOL    HW190577   0.646   2.111   6.194  0.6704 -1.1646 -1.4156
27203SOL    HW290578   0.654   1.984   6.275  0.4485  0.1635  0.7632
27204SOL     OW90579   6.985   0.678   5.327  0.1431  0.1739  0.1364
27204SOL    HW190580   6.995   0.734   5.250 -1.8810 -0.1415 -0.4187
27204SOL    HW290581   7.068   0.685   5.373  0.1018  3.4744 -0.0309
27205SOL     OW90582  12.322   3.559  12.592 -0.1834 -0.0751  0.1083
27205SOL    HW190583  12.297   3.520  12.508 -1.0613 -1.0148  0.7802
27205SOL    HW290584  12.331   3.652  12.574  1.5982 -0.4815 -1.4808
27206SOL     OW90585   9.992   6.134   6.515  0.5049 -0.1847  0.0215
27206SOL    HW190586  10.033   6.101   6.434 -0.9206  0.0218 -0.8179
27206SOL    HW290587  10.016   6.227   6.517 -0.0029 -0.0347 -0.5319
27207SOL     OW90588   7.441   9.923   0.231  0.2566 -0.3764 -0.7946
27207SOL    HW190589   7.349   9.945   0.249  0.0516 -1.7564 -0.0251
27207SOL    HW290590   7.439   9.832   0.202  1.5350 -1.0027  0.9197
27208SOL     OW90591   2.702  12.475   6.658  0.2639  0.5783  0.5909
27208SOL    HW190592   2.761  12.500   6.730  0.1455  1.6044  0.3504
27208SOL    HW290593   2.666  12.390   6.685  0.6418  0.6897  1.4893
27209SOL     OW90594   5.209  12.508   6.728 -0.0328 -0.2084 -0.3203
27209SOL    HW190595   5.225  12.519   6.821  1.9720 -1.9540 -0.3823
27209SOL    HW290596   5.131  12.560   6.710 -0.1440  0.5911  2.2039
27210SOL     OW90597   5.957   0.380   2.103 -0.4475  0.4910 -0.2429
27210SOL    HW190598   5.917   0.402   2.187 -1.2710  0.0103 -0.4969
27210SOL    HW290599   6.003   0.459   2.077 -0.3723  0.7180  0.5497
27211SOL     OW90600   6.099   8.199   1.935 -0.2208  0.1887 -0.1642
27211SOL    HW190601   6.010   8.201   1.969  0.0136  1.6281  0.4502
27211SOL    HW290602   6.119   8.106   1.924 -1.5456 -0.1766  0.3246
27212SOL     OW90603   3.589   4.538   1.058  0.1192  0.0928 -0.4531
27212SOL    HW190604   3.508   4.487   1.068  0.0839  0.2956  0.2905
27212SOL    HW290605   3.559   4.625   1.031  0.0842  0.1998 -0.0676
27213SOL     OW90606   4.186   9.000   1.846 -0.2766 -0.3845  0.4771
27213SOL    HW190607   4.168   8.910   1.819 -0.1163 -0.0153 -0.9550
27213SOL    HW290608   4.256   9.029   1.788 -0.1313  0.5825  1.1032
27214SOL     OW90609   2.762  10.972   0.446 -0.5936 -0.1276  0.3764
27214SOL    HW190610   2.716  10.927   0.376 -0.8529 -2.0363  1.7219
27214SOL    HW290611   2.822  11.032   0.400 -2.7675  0.8191 -1.4146
27215SOL     OW90612  10.303   4.217  11.021  0.1528  0.0687 -0.0891
27215SOL    HW190613  10.228   4.218  10.963  1.0494  0.2555 -1.2797
27215SOL    HW290614  10.355   4.293  10.994  2.3582 -1.8062 -1.4762
27216SOL     OW90615   3.744   6.605   5.092 -0.1611 -0.8537 -0.5797
27216SOL    HW190616   3.759   6.678   5.031 -0.9977 -0.2541 -0.0922
27216SOL    HW290617   3.789   6.632   5.172 -1.8907 -0.0517  0.1672
27217SOL     OW90618   5.657   8.340   7.525 -0.0223 -0.9015  0.3258
27217SOL    HW190619   5.681   8.418   7.575 -0.1665 -0.7679  0.1900
27217SOL    HW290620   5.686   8.266   7.579  1.3308 -0.7461 -0.1574
27218SOL     OW90621   5.667  11.164   1.441  0.0583  0.4346  0.1839
27218SOL    HW190622   5.629  11.106   1.507  0.0456 -0.3312 -0.4818
27218SOL    HW290623   5.756  11.181   1.473 -0.3570  1.1173  1.0376
27219SOL     OW90624   2.213   7.229   1.119 -0.8467  0.0661 -0.5065
27219SOL    HW190625   2.240   7.161   1.058  0.6297 -0.1632  0.3580
27219SOL    HW290626   2.263   7.306   1.092  0.0284 -0.1098  0.5509
27220SOL     OW90627   7.127   7.952  11.477  0.1921 -0.8656  0.3778
27220SOL    HW190628   7.212   7.983  11.509  1.0546 -1.2149 -1.4422
27220SOL    HW290629   7.083   8.032  11.446  0.4649 -0.8493  0.0189
27221SOL     OW90630   9.272   7.504   6.651  0.7345  0.9179  0.2815
27221SOL    HW190631   9.223   7.502   6.569 -1.7060  0.3987  1.6437
27221SOL    HW290632   9.264   7.595   6.681  0.8740  0.9109  0.3385
27222SOL     OW90633   8.010  10.421   9.704  0.0116 -0.2938 -0.6975
27222SOL    HW190634   8.064  10.447   9.779 -0.4643  1.5578 -0.9566
27222SOL    HW290635   7.962  10.344   9.735 -0.9311  1.0002  1.2905
27223SOL     OW90636   6.748   3.087   1.706 -0.2424  0.0262 -0.2932
27223SOL    HW190637   6.705   3.079   1.791 -0.4260  0.0660 -0.3810
27223SOL    HW290638   6.840   3.101   1.727  0.0140 -1.7556 -0.1237
27224SOL     OW90639   5.535   2.324   7.069  0.3446 -0.3357  0.5414
27224SOL    HW190640   5.516   2.298   6.979  0.6783  2.3605 -0.4098
27224SOL    HW290641   5.630   2.330   7.072  0.4462 -1.8769  1.5913
27225SOL     OW90642   3.317   4.985   5.620  0.1036 -0.3320 -0.1500
27225SOL    HW190643   3.327   4.890   5.616 -1.8750 -0.5659 -0.4820
27225SOL    HW290644   3.275   5.008   5.537  1.4911  0.9938 -0.5280
27226SOL     OW90645  11.418  10.992  10.949 -0.2513 -0.1468  0.2266
27226SOL    HW190646  11.346  10.932  10.966 -1.0534  1.1747  1.6859
27226SOL    HW290647  11.379  11.079  10.955  1.3759  0.5932  0.6297
27227SOL     OW90648   4.525  12.366   7.256  0.7566  0.2679 -0.3876
27227SOL    HW190649   4.553  12.396   7.343  0.8936 -1.9465  0.3775
27227SOL    HW290650   4.439  12.407   7.244 -0.4260 -1.3166  1.9275
27228SOL     OW90651   6.825   0.169   2.218 -0.0958 -0.2906 -0.2085
27228SOL    HW190652   6.816   0.076   2.194  1.0586 -0.1706 -1.2156
27228SOL    HW290653   6.897   0.201   2.164 -0.6566  1.2808 -0.0893
27229SOL     OW90654   4.599   9.507   4.225 -0.2087  0.0057 -0.2395
27229SOL    HW190655   4.582   9.517   4.131  1.4765  0.3408 -0.5266
27229SOL    HW290656   4.675   9.449   4.230 -2.2173 -2.7556  1.0657
27230SOL     OW90657   5.542   7.616   2.696 -0.1971  0.0194  0.1044
27230SOL    HW190658   5.637   7.622   2.709  0.0167 -1.3830 -0.5941
27230SOL    HW290659   5.504   7.652   2.776  0.9176  0.3617  0.5018
27231SOL     OW90660   0.890   2.243   2.152  0.0026  0.1396  0.3294
27231SOL    HW190661   0.834   2.321   2.160 -0.6207 -0.3381  0.6937
27231SOL    HW290662   0.899   2.231   2.058  0.7472  1.1002  0.2576
27232SOL     OW90663   6.034  12.397   9.522 -0.4599 -0.4561 -0.7606
27232SOL    HW190664   5.962  12.394   9.585  0.5736  1.7878  0.6442
27232SOL    HW290665   6.103  12.345   9.563 -0.6953 -1.2610 -1.3575
27233SOL     OW90666   8.191   5.989  10.851  0.2016 -0.0253  0.9413
27233SOL    HW190667   8.232   5.993  10.937 -0.9887  1.7814  1.5000
27233SOL    HW290668   8.258   6.022  10.790  1.0400 -1.2959  1.1378
27234SOL     OW90669   7.822  11.138   1.772  0.2950  0.0103 -0.1074
27234SOL    HW190670   7.875  11.111   1.847  0.8500 -0.0758 -0.5324
27234SOL    HW290671   7.881  11.190   1.717 -0.7176  2.0646  0.6410
27235SOL     OW90672   6.579   2.480   2.346  0.2655 -0.2880 -0.6767
27235SOL    HW190673   6.534   2.530   2.278 -1.5380 -0.9613 -0.0462
27235SOL    HW290674   6.510   2.429   2.388  1.0345  1.0729  2.5264
27236SOL     OW90675   7.895   6.086   1.366  0.3088 -0.5070  0.5078
27236SOL    HW190676   7.938   6.082   1.452 -2.1030  0.5872  1.8575
27236SOL    HW290677   7.918   6.172   1.331 -0.3452 -0.1128  1.0183
27237SOL     OW90678  12.092   1.091   9.191  0.3110  0.5948  0.0257
27237SOL    HW190679  12.100   1.117   9.099  2.9117  0.3610  0.1202
27237SOL    HW290680  12.011   1.133   9.220 -0.4729  0.8536 -2.2888
27238SOL     OW90681   1.196   4.365   3.915 -0.3408  0.4595 -0.3656
27238SOL    HW190682   1.179   4.397   3.826 -1.2515 -1.5261 -0.9709
27238SOL    HW290683   1.111   4.370   3.958  0.1275  1.5392  0.4686
27239SOL     OW90684  11.852  10.289   6.161  0.2467  0.4328  0.0983
27239SOL    HW190685  11.884  10.299   6.250 -1.9518  2.6331  0.7408
27239SOL    HW290686  11.895  10.358   6.112  0.3079  0.1853 -0.2015
27240SOL     OW90687   0.021   0.174  11.785  0.4296  0.6431 -0.3059
27240SOL    HW190688  -0.001   0.256  11.740  0.3279  1.4902  1.1852
27240SOL    HW290689  -0.046   0.112  11.756  0.5219  1.0664 -1.4776
27241SOL     OW90690   9.431   0.871   0.820 -0.2754 -0.1084 -0.1991
27241SOL    HW190691   9.456   0.780   0.835 -0.4103 -0.0589  0.3368
27241SOL    HW290692   9.341   0.866   0.787  0.0742 -0.2257 -1.1777
27242SOL     OW90693   7.254   4.146   8.847  0.0556  0.6183 -0.3580
27242SOL    HW190694   7.192   4.122   8.916 -1.4342 -0.5269 -2.0120
27242SOL    HW290695   7.309   4.068   8.836 -0.4992  0.3502 -1.2700
27243SOL     OW90696  11.378  11.076  11.722  0.6018 -0.3637  0.1103
27243SOL    HW190697  11.422  11.027  11.791  1.4366 -0.3416 -0.3933
27243SOL    HW290698  11.294  11.030  11.710 -1.7468  2.2102  4.2343
27244SOL     OW90699   2.801   0.853   9.160 -0.0300 -0.0005 -0.4086
27244SOL    HW190700   2.732   0.829   9.097  1.4271 -0.8216 -1.7604
27244SOL    HW290701   2.844   0.929   9.121  0.0180  0.3416  0.2938
27245SOL     OW90702  11.328   9.649  11.183 -0.5582 -0.3462 -0.0523
27245SOL    HW190703  11.340   9.584  11.253 -0.7629 -0.3500 -0.0206
27245SOL    HW290704  11.413   9.692  11.176 -0.6284 -0.1190  0.4319
27246SOL     OW90705   6.813   8.915   0.381  0.3876  0.1219  0.4776
27246SOL    HW190706   6.837   8.891   0.470 -1.3608 -1.2555  0.6094
27246SOL    HW290707   6.723   8.944   0.387  0.1674 -0.2224 -0.8753
27247SOL     OW90708  10.875   6.637   5.623 -0.3511  0.5105 -0.1217
27247SOL    HW190709  10.858   6.659   5.715  0.8587 -0.5863  0.3912
27247SOL    HW290710  10.961   6.674   5.605  0.0206 -0.4578 -0.3864
27248SOL     OW90711   2.453  10.126   2.623  0.5497  0.5957 -0.5104
27248SOL    HW190712   2.535  10.127   2.673 -0.0041  0.2822  0.4257
27248SOL    HW290713   2.390  10.170   2.680 -0.3938 -0.8218 -0.4127
27249SOL     OW90714   5.915   5.287   9.084 -1.0625  0.1279  0.3528
27249SOL    HW190715   5.919   5.356   9.149 -0.5603  0.4867 -0.0573
27249SOL    HW290716   5.941   5.207   9.131 -1.4144  0.2533  0.7653
27250SOL     OW90717  10.461   5.099   4.832  0.3819 -0.1927  0.2285
27250SOL    HW190718  10.510   5.017   4.832 -0.8088 -0.9471  0.9956
27250SOL    HW290719  10.448   5.119   4.925  0.9954  1.0840  0.0585
27251SOL     OW90720   4.879   7.635   0.068 -0.4723  0.7608 -0.1932
27251SOL    HW190721   4.964   7.621   0.110 -1.0377 -0.6507  0.5317
27251SOL    HW290722   4.817   7.583   0.120 -1.6712  1.2150 -1.1136
27252SOL     OW90723   7.973   5.167   5.018 -0.7651  0.1157  0.1368
27252SOL    HW190724   7.891   5.147   4.972 -0.5413  0.5317 -0.4614
27252SOL    HW290725   8.039   5.114   4.972 -0.3713  1.2722 -0.6690
27253SOL     OW90726   5.005   5.660   1.200 -0.1167  0.8577  0.2786
27253SOL    HW190727   5.080   5.686   1.253 -0.0678  0.6914  0.2915
27253SOL    HW290728   5.031   5.680   1.110 -0.6651  2.2744  0.4137
27254SOL     OW90729  11.193   0.734  11.507 -0.2085  0.1756 -0.1877
27254SOL    HW190730  11.124   0.772  11.452  0.2972 -2.3485 -2.8166
27254SOL    HW290731  11.153   0.656  11.546  0.5393 -0.1375 -0.0311
27255SOL     OW90732   1.352   5.236   5.071  0.3027  0.0583 -0.2096
27255SOL    HW190733   1.438   5.202   5.047 -0.9436 -4.1886  0.4639
27255SOL    HW290734   1.342   5.213   5.163 -1.7079 -0.0334 -0.4018
27256SOL     OW90735   1.117   1.154   5.418  1.1849  0.4855  0.0259
27256SOL    HW190736   1.064   1.148   5.339 -0.4014  0.2545  1.0540
27256SOL    HW290737   1.079   1.227   5.467  1.2883 -0.1870  1.1509
27257SOL     OW90738   4.319   0.695   5.293 -0.1289  0.3300 -0.2966
27257SOL    HW190739   4.240   0.689   5.347  1.1263 -0.4643  1.5396
27257SOL    HW290740   4.362   0.611   5.303  0.2701  0.2173 -2.4446
27258SOL     OW90741   9.157   6.591   9.267  0.3925  0.4343  0.3024
27258SOL    HW190742   9.160   6.516   9.326 -0.5921 -0.5184 -0.8150
27258SOL    HW290743   9.229   6.577   9.206  0.7903  0.9115  0.6437
27259SOL     OW90744  11.715   2.556   8.046  0.2671 -0.5026  0.0577
27259SOL    HW190745  11.789   2.597   8.003 -0.7604  1.6123  0.1907
27259SOL    HW290746  11.745   2.467   8.066  2.5699  0.1375 -0.2851
27260SOL     OW90747  10.113   2.157   1.590 -0.2803 -0.0406  0.1224
27260SOL    HW190748  10.195   2.118   1.620 -0.7012 -1.4393 -0.4519
27260SOL    HW290749  10.109   2.242   1.635  1.0773 -0.2834  0.7727
27261SOL     OW90750   1.233   3.479   6.486  0.5860  0.0299  0.2598
27261SOL    HW190751   1.247   3.463   6.579  0.6783  2.0440  0.6446
27261SOL    HW290752   1.148   3.523   6.483  0.9545  0.7037 -0.5086
27262SOL     OW90753   6.784   6.457   9.149 -0.4279  0.4147 -0.3293
27262SOL    HW190754   6.752   6.468   9.238 -2.0063 -0.0162 -0.8117
27262SOL    HW290755   6.834   6.375   9.151  2.8665  2.2670  0.9735
27263SOL     OW90756   0.644   3.367   7.806  0.1877  0.4333  0.2010
27263SOL    HW190757   0.582   3.428   7.846 -2.3475 -0.9347 -1.3925
27263SOL    HW290758   0.721   3.420   7.786 -0.0957  2.0532  2.9035
27264SOL     OW90759   9.181   1.051  12.184 -0.0287 -0.4946 -0.1324
27264SOL    HW190760   9.182   0.959  12.210 -0.7303 -0.5569 -0.3158
27264SOL    HW290761   9.249   1.057  12.117  1.8695 -0.3120  1.7020
27265SOL     OW90762  11.734   2.479  10.218  0.1776 -0.4715  0.3674
27265SOL    HW190763  11.663   2.481  10.283  1.0440 -0.3417  1.3338
27265SOL    HW290764  11.690   2.462  10.135 -1.0894  0.5143  0.8103
27266SOL     OW90765  10.196  11.765   7.745 -0.6278  0.6876  0.0771
27266SOL    HW190766  10.268  11.734   7.799 -0.5421 -0.9228 -0.8716
27266SOL    HW290767  10.238  11.807   7.670 -0.7417  2.4865  0.9763
27267SOL     OW90768   3.877   1.623   3.052  0.4134  0.1978 -0.3057
27267SOL    HW190769   3.819   1.692   3.018  1.0937  1.5306  1.1176
27267SOL    HW290770   3.879   1.557   2.983 -3.0807 -0.1150 -0.3193
27268SOL     OW90771   2.374   9.351   2.246  0.2598  0.0322  0.4790
27268SOL    HW190772   2.405   9.371   2.158  0.0490 -0.8281  0.1997
27268SOL    HW290773   2.445   9.300   2.285  0.9439  1.5342  1.3053
27269SOL     OW90774   3.645   8.230   5.246  0.3266  0.8469 -0.2574
27269SOL    HW190775   3.603   8.284   5.179 -0.0831  0.1973 -0.5311
27269SOL    HW290776   3.602   8.256   5.328  0.7190  1.5309 -0.2567
27270SOL     OW90777   0.777   0.678   1.704 -0.2127 -0.1297 -0.5689
27270SOL    HW190778   0.805   0.695   1.794  0.6696 -0.1731 -0.8203
27270SOL    HW290779   0.690   0.638   1.712  0.4376 -1.4486  0.3492
27271SOL     OW90780   9.260  11.479   3.725  0.3109 -0.1453 -0.1315
27271SOL    HW190781   9.249  11.395   3.681 -1.7303  0.0956 -0.2102
27271SOL    HW290782   9.343  11.513   3.693  0.6395 -1.6373 -0.9421
27272SOL     OW90783   6.763   9.432   5.727  0.1593  0.2188 -0.2512
27272SOL    HW190784   6.739   9.458   5.639  0.1934  1.9046  0.1982
27272SOL    HW290785   6.702   9.479   5.784  2.7576  2.5812  0.7917
27273SOL     OW90786  11.851   1.923  10.704 -0.2948  0.0339 -0.3668
27273SOL    HW190787  11.937   1.959  10.727 -1.0620  1.1773  0.8856
27273SOL    HW290788  11.870   1.852  10.643  1.4647  0.9562 -0.9626
27274SOL     OW90789  12.427   3.628   0.578 -0.4300 -0.5616 -0.3981
27274SOL    HW190790  12.504   3.683   0.565  0.0427 -0.5443  1.9835
27274SOL    HW290791  12.353   3.688   0.570 -0.0307 -0.0051  0.0054
27275SOL     OW90792   8.378   2.726   6.762  0.0265  0.5484  0.5322
27275SOL    HW190793   8.295   2.730   6.713 -0.8804 -0.4709  1.8827
27275SOL    HW290794   8.380   2.807   6.813 -0.2671  0.4617  0.6831
27276SOL     OW90795   8.835   5.491   0.032  0.7611 -0.3521 -0.0803
27276SOL    HW190796   8.754   5.525   0.071 -0.0038 -0.7925 -1.2128
27276SOL    HW290797   8.899   5.561   0.045  0.6006 -0.5269  2.0372
27277SOL     OW90798   6.091  11.365   1.692  0.1672 -0.4706 -0.5581
27277SOL    HW190799   6.095  11.308   1.769 -1.4860 -2.8642 -2.0916
27277SOL    HW290800   6.181  11.372   1.662  0.4891 -1.7897  0.0333
27278SOL     OW90801   5.321   0.539   3.141  0.1609 -0.1446 -0.4225
27278SOL    HW190802   5.276   0.467   3.097 -0.3402  0.4257 -0.8600
27278SOL    HW290803   5.379   0.496   3.204 -1.7981 -0.9275  0.9672
27279SOL     OW90804   3.000   3.450   2.278  0.6547 -0.0718 -0.0631
27279SOL    HW190805   2.966   3.385   2.339 -3.6428  0.4963 -1.5088
27279SOL    HW290806   2.987   3.534   2.322 -0.6150  0.2072 -0.9143
27280SOL     OW90807   1.122  12.355  10.570 -0.2637 -0.0993 -0.3861
27280SOL    HW190808   1.058  12.291  10.600 -0.2103  1.0271  2.4875
27280SOL    HW290809   1.073  12.415  10.514 -1.3488 -0.2030  0.4197
27281SOL     OW90810  10.290   3.406  11.385 -0.1861 -0.5449  0.5842
27281SOL    HW190811  10.379   3.408  11.422 -1.0223  0.6335  2.6810
27281SOL    HW290812  10.233   3.392  11.461 -1.8803 -0.0956 -0.5619
27282SOL     OW90813   4.775  10.977   5.585  0.4837 -0.2196  0.1147
27282SOL    HW190814   4.797  10.932   5.666  0.4186  4.1914  2.9200
27282SOL    HW290815   4.853  11.028   5.563 -0.2149  0.2627 -1.3909
27283SOL     OW90816   4.712  10.277  10.769  0.0812 -0.2859 -0.4596
27283SOL    HW190817   4.693  10.184  10.752  1.6494 -0.5874 -0.7683
27283SOL    HW290818   4.714  10.317  10.682 -0.5336  0.0384 -0.3305
27284SOL     OW90819   0.818   3.610   4.523  0.2093  0.2494 -0.2890
27284SOL    HW190820   0.880   3.580   4.590 -0.9561 -1.3662  0.1508
27284SOL    HW290821   0.819   3.705   4.530  1.4049  0.1914  0.8219
27285SOL     OW90822   7.095  11.154   6.047  0.1436 -0.4613  0.4877
27285SOL    HW190823   7.035  11.080   6.052  0.0786 -0.4399  0.0850
27285SOL    HW290824   7.053  11.223   6.099 -0.3786 -0.3126 -0.1214
27286SOL     OW90825   0.737   9.442   0.043 -1.2023 -0.2079 -0.2437
27286SOL    HW190826   0.806   9.448   0.110  0.1126  1.5522 -1.6599
27286SOL    HW290827   0.662   9.486   0.083 -1.7938 -2.6232  1.5372
27287SOL     OW90828   9.476  12.557   6.056 -0.0390  0.6137 -0.0780
27287SOL    HW190829   9.557  12.588   6.016  0.3309  0.5302  0.5907
27287SOL    HW290830   9.503  12.524   6.142 -0.8400  0.9601  0.3163
27288SOL     OW90831   8.193   6.946   3.155 -0.2686  0.0820  0.2374
27288SOL    HW190832   8.263   6.898   3.110 -0.4592  1.1693 -1.2599
27288SOL    HW290833   8.118   6.942   3.095 -0.5989  1.3945  0.5364
27289SOL     OW90834   0.726   0.333  11.521  0.2367 -0.0745 -0.6412
27289SOL    HW190835   0.752   0.275  11.450  0.0179 -0.3531 -0.4940
27289SOL    HW290836   0.809   0.361  11.560  0.3577  0.0738 -0.9985
27290SOL     OW90837   9.672   9.379   3.457  0.4032  0.3593  0.3126
27290SOL    HW190838   9.678   9.378   3.362 -2.3829 -0.5385  0.0553
27290SOL    HW290839   9.763   9.373   3.487  1.4470  1.9366 -2.2355
27291SOL     OW90840   6.723  10.793   3.566 -0.0120  0.2532 -0.0037
27291SOL    HW190841   6.672  10.801   3.486  1.2748 -1.0620 -1.0233
27291SOL    HW290842   6.701  10.707   3.601 -0.1702  0.6001  0.7838
27292SOL     OW90843   6.908   3.894   6.394  0.4158  0.2994 -0.2737
27292SOL    HW190844   6.916   3.801   6.375 -1.1740  0.0932 -0.1369
27292SOL    HW290845   6.881   3.897   6.486 -0.5595  0.8121 -0.5576
27293SOL     OW90846  10.313   2.655   9.478  0.0277 -0.0861 -0.0852
27293SOL    HW190847  10.358   2.663   9.562 -0.6050 -0.7305  0.3206
27293SOL    HW290848  10.240   2.717   9.484 -0.8592 -1.1481  0.4120
27294SOL     OW90849   9.546   4.292   0.262  0.3171 -0.0821  0.1884
27294SOL    HW190850   9.581   4.380   0.249  1.3617 -0.6106 -0.7126
27294SOL    HW290851   9.513   4.293   0.352  1.8069  0.7479  0.7713
27295SOL     OW90852   9.765   1.833   2.399 -0.3223 -0.2934  0.0828
27295SOL    HW190853   9.801   1.758   2.447  2.0455  2.2051  2.6190
27295SOL    HW290854   9.825   1.845   2.325  0.2274 -0.0254  0.5612
27296SOL     OW90855   4.263   7.940   5.083  0.1568  0.1905  0.3488
27296SOL    HW190856   4.262   7.915   5.175  0.7098  0.0873  0.3283
27296SOL    HW290857   4.171   7.938   5.057 -0.0505  0.6981  1.0221
27297SOL     OW90858   9.279   4.441   9.759  0.1944 -0.2596 -0.0991
27297SOL    HW190859   9.220   4.516   9.747 -0.5803 -0.9044 -0.4155
27297SOL    HW290860   9.282   4.430   9.854 -1.5488 -1.2229 -0.0995
27298SOL     OW90861   6.693   7.074  12.203  0.6211 -0.0318 -0.0526
27298SOL    HW190862   6.712   7.042  12.114  0.0449  0.1703 -0.2507
27298SOL    HW290863   6.777   7.109  12.234  0.7897  0.0396 -0.5777
27299SOL     OW90864   8.928   4.881   4.356  0.2756  0.1835  0.1964
27299SOL    HW190865   8.995   4.926   4.407 -0.6206  2.1534 -0.2666
27299SOL    HW290866   8.943   4.910   4.266 -1.0106  0.4548  0.0482
27300SOL     OW90867   3.814   0.936   0.099  0.0853 -0.0583  0.3452
27300SOL    HW190868   3.826   1.026   0.071 -1.4385  0.7269  1.9782
27300SOL    HW290869   3.851   0.934   0.188 -1.6358 -0.4650  1.0983
27301SOL     OW90870  10.348   8.955   4.717 -0.2447  0.4826 -0.2053
27301SOL    HW190871  10.394   8.915   4.791  1.5169  0.7398 -1.1000
27301SOL    HW290872  10.294   9.023   4.756  0.0114  0.0596  0.9189
27302SOL     OW90873   2.798   0.347   9.410  0.0798  0.3217  0.0407
27302SOL    HW190874   2.821   0.433   9.374 -0.2467  0.0763 -0.7910
27302SOL    HW290875   2.838   0.345   9.496 -0.3749  1.5293  0.2987
27303SOL     OW90876   2.599   1.008   3.518  0.6836 -0.7027  0.3493
27303SOL    HW190877   2.549   0.979   3.595  0.7170  2.1444  1.5575
27303SOL    HW290878   2.534   1.012   3.448 -0.3332  0.6368  1.3067
27304SOL     OW90879   8.940   2.112   5.334 -0.3256  0.2507  0.4226
27304SOL    HW190880   8.957   2.155   5.418  1.8684  0.2515  0.0287
27304SOL    HW290881   8.852   2.143   5.310 -0.3064  1.6207  1.8757
27305SOL     OW90882   9.614   8.728   6.795  0.5383  0.0792  0.3030
27305SOL    HW190883   9.642   8.752   6.706 -0.4559 -1.1487 -0.3742
27305SOL    HW290884   9.673   8.656   6.819  0.4773  0.0750  0.4379
27306SOL     OW90885   2.977   0.872   5.560  0.3225  0.0015  0.2411
27306SOL    HW190886   2.971   0.869   5.465  0.6524 -0.3567  0.2287
27306SOL    HW290887   2.972   0.781   5.588 -0.2913  0.1443  0.6051
27307SOL     OW90888   1.354   3.830   1.067  0.7742  0.6064  0.4132
27307SOL    HW190889   1.399   3.906   1.033 -2.0655  2.1832 -0.1427
27307SOL    HW290890   1.265   3.836   1.031 -0.5946 -1.0009  3.1400
27308SOL     OW90891  10.433   9.845  11.006 -0.3149 -0.5061  0.3434
27308SOL    HW190892  10.394   9.827  10.920 -0.3840  1.3505 -0.0445
27308SOL    HW290893  10.369   9.810  11.069 -0.7001 -1.0523 -0.3375
27309SOL     OW90894   5.654  10.141   8.034 -0.1277 -0.1951  0.3214
27309SOL    HW190895   5.679  10.171   8.121  1.8910 -1.1729  0.1376
27309SOL    HW290896   5.564  10.110   8.044 -0.0767  0.0875  1.9439
27310SOL     OW90897  12.393   2.956   7.037 -0.7978 -1.1708  0.5470
27310SOL    HW190898  12.395   3.024   7.105 -0.0552  2.0443 -2.4101
27310SOL    HW290899  12.302   2.952   7.010 -0.8113 -1.1961  0.5964
27311SOL     OW90900   2.996   7.769   9.914  0.7197 -0.3845 -0.1660
27311SOL    HW190901   2.918   7.723   9.947  0.8729 -1.7569 -1.5524
27311SOL    HW290902   3.068   7.708   9.931  1.6381  1.1173  1.6278
27312SOL     OW90903  11.341   1.385   8.379 -0.4201  0.3844 -0.4643
27312SOL    HW190904  11.422   1.351   8.340 -0.9494 -1.6783  0.1102
27312SOL    HW290905  11.366   1.410   8.468  0.1239  2.2525 -1.1022
27313SOL     OW90906  12.423   5.171   0.505  0.2829  0.3731 -0.5776
27313SOL    HW190907  12.464   5.104   0.450  1.4983 -0.9926  1.8344
27313SOL    HW290908  12.490   5.239   0.512  0.8455 -0.2826  0.6092
27314SOL     OW90909   0.993   0.888   7.942  0.0226 -0.2584  0.5568
27314SOL    HW190910   1.015   0.856   7.855 -2.3041 -0.1334 -0.1241
27314SOL    HW290911   1.028   0.822   8.001  1.2514 -0.5629 -0.4685
27315SOL     OW90912   4.920   5.364   5.989 -0.2972  0.2132  0.2343
27315SOL    HW190913   4.913   5.424   5.915 -2.4183  0.8891  0.9024
27315SOL    HW290914   5.014   5.352   6.001  0.1093  0.2687 -2.3807
27316SOL     OW90915   8.354   7.850   3.945 -0.5185 -0.6867 -0.3008
27316SOL    HW190916   8.420   7.837   4.013  0.4594  0.5618 -0.9922
27316SOL    HW290917   8.316   7.935   3.964 -0.2527 -0.3324 -1.2861
27317SOL     OW90918   2.629   9.987   3.481  0.7888  0.5048 -0.8405
27317SOL    HW190919   2.623   9.993   3.576 -3.4235 -2.4149 -0.6432
27317SOL    HW290920   2.587  10.067   3.450 -1.0757 -0.1101 -0.0466
27318SOL     OW90921   4.946   5.304   4.770 -0.1961 -0.6944  0.0513
27318SOL    HW190922   5.023   5.330   4.821 -0.2721  2.1759 -1.1158
27318SOL    HW290923   4.980   5.246   4.703  1.1333  0.9480 -0.7846
27319SOL     OW90924   2.016   8.546   1.763  0.5454 -0.5118  0.2892
27319SOL    HW190925   1.934   8.572   1.805  0.6169  0.5224 -0.1725
27319SOL    HW290926   2.006   8.576   1.673  2.4255  2.0433  0.8050
27320SOL     OW90927   9.331  10.300   6.642 -0.1636 -0.6665 -0.1831
27320SOL    HW190928   9.239  10.303   6.616 -0.4516  1.8613  0.8688
27320SOL    HW290929   9.333  10.236   6.713 -0.9683 -1.1635 -0.5800
27321SOL     OW90930   2.094   0.628   9.632 -0.1303 -0.0829 -0.5749
27321SOL    HW190931   2.000   0.647   9.632 -0.2716 -0.7133 -1.2418
27321SOL    HW290932   2.111   0.594   9.544  0.6557 -0.2969 -0.3462
27322SOL     OW90933   7.420   1.886   6.690 -0.4378 -0.8495 -0.5392
27322SOL    HW190934   7.345   1.827   6.690  1.2978 -3.2154  0.3530
27322SOL    HW290935   7.472   1.859   6.614  1.5703 -2.2557  1.1927
27323SOL     OW90936   2.788   4.836   1.389 -0.5831  0.1654 -0.1311
27323SOL    HW190937   2.746   4.768   1.440 -1.8569  0.5203 -0.6773
27323SOL    HW290938   2.816   4.901   1.453 -1.8611  0.4412  0.1775
27324SOL     OW90939   6.231   8.433   4.619 -0.0742 -0.1914  0.5498
27324SOL    HW190940   6.158   8.494   4.618  1.2340  1.4550 -0.9239
27324SOL    HW290941   6.273   8.446   4.704 -0.4972  0.0726  0.7197
27325SOL     OW90942  12.043   4.754   6.565  0.1571 -0.6275  0.0530
27325SOL    HW190943  11.960   4.797   6.587 -0.7184 -1.1410 -1.9567
27325SOL    HW290944  12.034   4.666   6.599  0.1885 -0.4634  0.4889
27326SOL     OW90945   1.321   1.073   6.897  0.7062  0.7620 -0.3447
27326SOL    HW190946   1.253   1.036   6.840  0.5803  0.7386 -0.1803
27326SOL    HW290947   1.398   1.078   6.841  0.8596 -0.2092 -0.2371
27327SOL     OW90948   0.160   9.548   6.970  0.4992 -0.8147 -0.1925
27327SOL    HW190949   0.107   9.472   6.993  0.2274 -0.4522  0.4015
27327SOL    HW290950   0.223   9.515   6.906  0.2864 -1.5034 -0.0534
27328SOL     OW90951   6.065   9.510  10.347  0.0468  0.0468 -0.1385
27328SOL    HW190952   6.077   9.602  10.371  1.2722 -0.1949  0.2385
27328SOL    HW290953   6.136   9.464  10.391 -1.9585 -1.4630  1.7336
27329SOL     OW90954   8.585   7.828   0.049  0.1652 -0.2925 -0.4081
27329SOL    HW190955   8.565   7.762   0.115 -0.5292  0.1867 -0.1242
27329SOL    HW290956   8.515   7.892   0.057 -0.5865 -0.7707 -2.3505
27330SOL     OW90957   7.918   7.141   2.151  0.1449 -0.3400 -1.2294
27330SOL    HW190958   7.824   7.150   2.163  0.2457 -0.2285 -0.4872
27330SOL    HW290959   7.929   7.119   2.058 -0.6462 -0.8498 -1.2101
27331SOL     OW90960   4.467   1.074   7.921  0.2463 -0.1511 -0.3191
27331SOL    HW190961   4.419   1.007   7.872 -0.7335 -0.9664  1.6681
27331SOL    HW290962   4.402   1.142   7.938  0.5206  0.0268  0.0145
27332SOL     OW90963  10.373   6.972   8.228  0.1435 -0.5340 -0.2235
27332SOL    HW190964  10.451   6.926   8.259 -0.0721 -0.9960 -0.3585
27332SOL    HW290965  10.388   7.064   8.252 -0.2621 -0.9426  1.7582
27333SOL     OW90966   0.641   5.194   0.244 -0.5580 -0.4010  0.5074
27333SOL    HW190967   0.714   5.138   0.218 -0.9938 -0.0974 -1.5264
27333SOL    HW290968   0.682   5.269   0.287  0.1325 -1.3817  1.6255
27334SOL     OW90969   2.410   8.701  12.040 -0.6623  0.4085  0.3754
27334SOL    HW190970   2.475   8.636  12.012 -1.0253  0.7797 -1.4284
27334SOL    HW290971   2.410   8.694  12.135  0.7951 -0.7873  0.3368
27335SOL     OW90972   1.151  10.265   9.926  0.1197  0.3494 -0.4339
27335SOL    HW190973   1.098  10.190   9.899 -1.6889  1.5326 -0.3066
27335SOL    HW290974   1.114  10.291  10.011  1.6101  0.5806  0.1761
27336SOL     OW90975   2.497   9.779   8.655  0.0911 -0.1471 -0.2886
27336SOL    HW190976   2.411   9.808   8.683 -0.3137 -0.1118 -1.5348
27336SOL    HW290977   2.538   9.857   8.618  0.0545 -0.5178 -1.1237
27337SOL     OW90978   6.875   5.392  10.443  0.0076  0.1972  0.2962
27337SOL    HW190979   6.872   5.402  10.347 -1.5652  0.1932  0.3284
27337SOL    HW290980   6.931   5.464  10.472  0.7803  0.0034 -0.6447
27338SOL     OW90981   0.294   1.975   3.384  0.5535  0.0843  0.2256
27338SOL    HW190982   0.291   1.889   3.342 -0.3891 -0.0900  0.6311
27338SOL    HW290983   0.371   2.018   3.346  1.6060 -1.2921  0.7171
27339SOL     OW90984  12.006   2.816  11.843  0.3983 -0.3213  0.1882
27339SOL    HW190985  12.025   2.729  11.880 -0.0189 -1.1319 -1.4192
27339SOL    HW290986  11.911   2.817  11.833  0.4674  0.0552 -0.4272
27340SOL     OW90987   6.790   1.474   1.327  0.2318 -0.2912  0.0925
27340SOL    HW190988   6.837   1.510   1.402  0.2258  0.8655 -0.4421
27340SOL    HW290989   6.708   1.441   1.364 -1.0142  2.7053  0.2793
27341SOL     OW90990   9.936   3.147   3.889  0.3436  0.3635  0.4251
27341SOL    HW190991   9.964   3.057   3.910 -0.0132  0.0817 -0.2788
27341SOL    HW290992   9.988   3.171   3.813 -0.9248  0.0293 -0.5729
27342SOL     OW90993  10.897   9.518   0.408  0.3725 -0.1549 -0.7435
27342SOL    HW190994  10.911   9.605   0.446  1.0661 -0.8999  0.8251
27342SOL    HW290995  10.804   9.515   0.388 -0.5791 -0.4026  2.9556
27343SOL     OW90996   1.589  10.433   8.022 -0.1196 -0.3666  0.1392
27343SOL    HW190997   1.553  10.515   7.989  1.4525  0.2307 -0.2017
27343SOL    HW290998   1.571  10.370   7.953  1.3929  0.4344 -1.0584
27344SOL     OW90999   3.536   1.587   7.581 -0.4590  0.1681  0.6482
27344SOL    HW191000   3.554   1.654   7.646  1.2577  0.2430  0.1238
27344SOL    HW291001   3.480   1.524   7.627  0.5131  0.3460  2.1289
27345SOL     OW91002   3.356   1.529   5.776 -0.0238  0.2748  0.1557
27345SOL    HW191003   3.363   1.555   5.685  2.7100  0.0875  0.2531
27345SOL    HW291004   3.337   1.610   5.824  0.1366  0.6434 -0.4058
27346SOL     OW91005   6.454   7.794   7.824  0.6655 -0.2890 -0.2214
27346SOL    HW191006   6.511   7.737   7.876  1.6356  1.3852  0.6626
27346SOL    HW291007   6.499   7.802   7.740  0.5362 -0.7821 -0.3431
27347SOL     OW91008   1.261  11.582   5.643  0.2330 -0.6672  0.3990
27347SOL    HW191009   1.307  11.652   5.597  0.0730  0.6313  2.0923
27347SOL    HW291010   1.175  11.577   5.600 -0.2408  1.1207  1.0246
27348SOL     OW91011  10.167   7.548   5.349  0.1299  0.1013  0.1718
27348SOL    HW191012  10.210   7.598   5.280  1.3038  0.4296  1.1150
27348SOL    HW291013  10.193   7.591   5.430  3.3508 -3.4089  1.2987
27349SOL     OW91014   8.269   9.004   9.536 -0.3259  0.1334  0.5542
27349SOL    HW191015   8.321   9.084   9.527 -1.6988  0.8900 -1.0688
27349SOL    HW291016   8.255   8.996   9.630 -0.2447  1.8630  0.7488
27350SOL     OW91017   1.188   9.254   4.614  0.2844  0.2836 -0.1020
27350SOL    HW191018   1.241   9.183   4.650  1.6502  0.4515 -1.6519
27350SOL    HW291019   1.139   9.214   4.543  1.8233  1.0088 -1.6595
27351SOL     OW91020  12.031   7.055   9.861 -0.2820 -0.0078  0.4138
27351SOL    HW191021  12.009   7.142   9.829  1.3287  0.2070 -0.1772
27351SOL    HW291022  11.947   7.009   9.864 -0.8394  0.7461 -1.7649
27352SOL     OW91023   2.384   1.832   1.167  0.5398  0.3482 -0.3428
27352SOL    HW191024   2.353   1.812   1.255 -1.0350  0.8485 -0.7563
27352SOL    HW291025   2.479   1.821   1.172  0.4077 -0.3217  1.2236
27353SOL     OW91026   8.396   1.744   3.278  0.1855  0.9496  0.1183
27353SOL    HW191027   8.369   1.773   3.191  0.2944  0.3387 -0.1272
27353SOL    HW291028   8.334   1.786   3.338  0.5589  1.9569 -0.1849
27354SOL     OW91029  10.271   4.241   7.283 -0.1456 -0.1484  0.0461
27354SOL    HW191030  10.287   4.306   7.215  0.4531  0.9727  1.2168
27354SOL    HW291031  10.315   4.276   7.361  1.4715 -2.6467  0.3727
27355SOL     OW91032   3.777   1.196   5.168 -0.8268  0.7308 -0.2338
27355SOL    HW191033   3.743   1.156   5.088  3.1421  1.1409 -2.4045
27355SOL    HW291034   3.784   1.289   5.148  0.3708  0.8168  0.4514
27356SOL     OW91035   5.939   0.741   3.752  0.5759 -0.4571  0.4548
27356SOL    HW191036   5.999   0.749   3.678  0.4881  0.2517  0.4626
27356SOL    HW291037   5.892   0.659   3.736  0.2656 -0.0982 -0.4871
27357SOL     OW91038   2.870   4.542   7.564 -0.9508  0.5206  0.6843
27357SOL    HW191039   2.857   4.494   7.645 -2.2829  0.7752  0.6321
27357SOL    HW291040   2.825   4.490   7.498 -0.0936  0.4465  0.1342
27358SOL     OW91041   1.033   4.589  10.781  0.0568  0.0928  0.0859
27358SOL    HW191042   1.083   4.646  10.722  0.0306 -0.3768 -0.3893
27358SOL    HW291043   1.074   4.602  10.867  0.3842  0.4338 -0.1173
27359SOL     OW91044  10.229  10.348   7.038 -0.4672 -0.1731  0.0233
27359SOL    HW191045  10.181  10.374   7.116 -2.6933 -0.6716 -1.0967
27359SOL    HW291046  10.198  10.408   6.970  1.4830  0.3030 -0.5098
27360SOL     OW91047   0.830   2.140   3.668 -0.2187  0.2780  0.0817
27360SOL    HW191048   0.922   2.167   3.670 -0.0326 -0.1685  3.7349
27360SOL    HW291049   0.789   2.189   3.739 -2.7493  0.1149 -1.1655
27361SOL     OW91050   8.234  11.421   2.614  0.2103 -0.2142 -0.0489
27361SOL    HW191051   8.192  11.358   2.672  1.1452  0.6332  1.6264
27361SOL    HW291052   8.165  11.485   2.594  0.4309  0.8267  2.1737
27362SOL     OW91053  10.483   1.805   0.696  0.2023 -0.4378  0.0622
27362SOL    HW191054  10.551   1.858   0.737  0.0446 -0.0525 -0.1702
27362SOL    HW291055  10.412   1.802   0.759 -0.3800  0.8517 -0.5004
27363SOL     OW91056   1.447   9.617   3.025  0.1450 -0.0856 -0.0498
27363SOL    HW191057   1.385   9.678   3.066  1.9746  1.5457  0.4252
27363SOL    HW291058   1.518   9.672   2.993  1.7289 -1.9255  0.0755
27364SOL     OW91059  11.733   8.250  11.650 -0.3832 -0.3316  0.0935
27364SOL    HW191060  11.749   8.212  11.736  0.0061 -1.3245 -0.4095
27364SOL    HW291061  11.807   8.221  11.596 -0.9313 -0.2302 -0.7352
27365SOL     OW91062  11.789   2.003   1.286 -0.3219  0.0273  0.2646
27365SOL    HW191063  11.711   2.058   1.290  1.0290  1.9920  1.7711
27365SOL    HW291064  11.857   2.061   1.251  0.2557 -1.9953 -2.2490
27366SOL     OW91065   6.962   9.510   0.008 -0.1617 -0.5443  0.2688
27366SOL    HW191066   7.046   9.545   0.039  0.2776 -0.5658 -0.8166
27366SOL    HW291067   6.901   9.583   0.016  0.5453  0.2654 -1.1706
27367SOL     OW91068   0.546  12.160   1.053  0.4586  0.1069  0.1372
27367SOL    HW191069   0.528  12.078   1.097  0.8190 -0.7897 -1.3100
27367SOL    HW291070   0.612  12.139   0.987  0.6048  1.5679 -0.2364
27368SOL     OW91071   4.614   0.797   7.862 -0.0358  0.1160 -0.3855
27368SOL    HW191072   4.636   0.792   7.769 -0.1317 -1.2832 -0.3543
27368SOL    HW291073   4.556   0.873   7.869  0.1796  0.3933 -1.4206
27369SOL     OW91074   3.490   3.670  11.400  0.8186 -0.0006  0.0753
27369SOL    HW191075   3.469   3.739  11.463 -0.4743 -1.1257  0.9282
27369SOL    HW291076   3.469   3.709  11.315 -0.0421  0.6167  0.5502
27370SOL     OW91077  11.641   6.269  12.287  0.3079 -0.2130  0.3152
27370SOL    HW191078  11.647   6.291  12.380 -1.0262 -0.1753  0.4165
27370SOL    HW291079  11.565   6.211  12.281 -0.2081  0.5505 -0.8830
27371SOL     OW91080   1.921   9.535   7.866  0.2294 -0.0551  0.5329
27371SOL    HW191081   1.870   9.534   7.785 -1.8101  0.1892  1.7280
27371SOL    HW291082   1.858   9.563   7.933  1.5869 -1.2017  2.3702
27372SOL     OW91083   3.523   4.641   3.649  0.0222  0.0854 -0.4022
27372SOL    HW191084   3.469   4.578   3.697  0.7164 -0.0797  0.1706
27372SOL    HW291085   3.541   4.710   3.712 -0.7171  0.8676 -1.0237
27373SOL     OW91086  10.230   6.723   0.660  0.7657  0.0383  0.0164
27373SOL    HW191087  10.279   6.798   0.628  0.5327 -0.1147 -0.7267
27373SOL    HW291088  10.153   6.719   0.604  0.9864 -1.0070 -0.2352
27374SOL     OW91089   1.016  11.942   1.543  0.7859  0.3593 -0.0907
27374SOL    HW191090   1.031  11.856   1.582  0.9048 -0.4286 -1.7708
27374SOL    HW291091   0.960  11.987   1.606 -1.7361 -2.0127 -0.4564
27375SOL     OW91092   9.607   0.808  11.772 -0.4510  0.0529  0.5325
27375SOL    HW191093   9.692   0.818  11.728 -0.8307  0.5168 -0.1211
27375SOL    HW291094   9.559   0.887  11.748 -0.7202  0.2616  1.7021
27376SOL     OW91095   8.755  11.742  10.252  0.9546 -0.2467  0.2027
27376SOL    HW191096   8.815  11.813  10.276  0.4073  0.8540 -1.4862
27376SOL    HW291097   8.805  11.688  10.191  0.6316  0.0055 -0.2912
27377SOL     OW91098   7.055   5.748   0.590 -0.1637  0.2379  0.4866
27377SOL    HW191099   7.129   5.805   0.570 -1.7255  2.0369 -0.5243
27377SOL    HW291100   6.994   5.762   0.517 -1.7346 -0.7391  1.5616
27378SOL     OW91101   6.133   0.450   8.441 -0.0851  0.1182 -0.1150
27378SOL    HW191102   6.124   0.356   8.455 -1.5255 -0.1931 -2.5288
27378SOL    HW291103   6.090   0.490   8.517  0.2370 -1.1409  0.7668
27379SOL     OW91104   9.978   0.985   2.619 -0.2789 -0.3077 -0.3698
27379SOL    HW191105  10.020   0.899   2.623 -0.5985 -0.4486  0.0574
27379SOL    HW291106   9.931   0.992   2.702 -1.1470 -0.1781 -0.8585
27380SOL     OW91107  12.362   1.434   0.068  0.1385 -0.1394  0.3985
27380SOL    HW191108  12.308   1.392   0.135 -0.3576  0.1631  0.1931
27380SOL    HW291109  12.299   1.461   0.001  0.7046 -1.2149 -0.6077
27381SOL     OW91110   4.383   3.544   4.893  0.4726 -0.4844  0.1725
27381SOL    HW191111   4.349   3.546   4.983 -2.2150 -1.9185 -0.6983
27381SOL    HW291112   4.335   3.613   4.847  2.8573  1.2210  0.0584
27382SOL     OW91113   6.039   6.157   5.424  0.5260 -1.0141  0.2974
27382SOL    HW191114   6.098   6.082   5.415 -0.8160 -1.9344 -1.5863
27382SOL    HW291115   5.955   6.118   5.449  0.2525  0.0796  1.1596
27383SOL     OW91116   2.339   7.116   8.281 -0.4267 -0.1148  0.3244
27383SOL    HW191117   2.279   7.152   8.346 -0.9118  0.3203 -0.3489
27383SOL    HW291118   2.423   7.112   8.326 -0.6833  0.5012  0.8727
27384SOL     OW91119  10.846   0.464   7.638  0.0775  0.3125 -0.1317
27384SOL    HW191120  10.766   0.517   7.637 -0.4076 -0.4023 -0.1564
27384SOL    HW291121  10.814   0.374   7.641  0.8917  0.0422  0.7258
27385SOL     OW91122  11.640   8.858   2.716 -0.0262 -0.0810 -0.0913
27385SOL    HW191123  11.638   8.776   2.765 -2.6286  1.3762  2.6143
27385SOL    HW291124  11.583   8.843   2.641 -1.1463 -0.5710  0.8291
27386SOL     OW91125  12.320   7.316   1.575 -0.5408  0.3535 -0.0914
27386SOL    HW191126  12.356   7.235   1.541  0.1853  1.2465 -1.5411
27386SOL    HW291127  12.336   7.312   1.669  0.9456 -0.4756 -0.3494
27387SOL     OW91128   3.982   0.645   4.891 -0.2546 -0.1261  0.4520
27387SOL    HW191129   3.924   0.709   4.933 -0.2512  0.2640 -0.1335
27387SOL    HW291130   4.059   0.643   4.948 -0.5661 -0.1671  0.8829
27388SOL     OW91131   1.368  12.092   0.935  0.4218 -0.2632 -0.1283
27388SOL    HW191132   1.431  12.068   1.003 -0.9087 -0.3180  1.1356
27388SOL    HW291133   1.381  12.027   0.867  0.5164 -1.3605  0.9055
27389SOL     OW91134   1.167  11.030   2.014  0.3273 -0.0092  0.0599
27389SOL    HW191135   1.200  11.120   2.021  0.3199 -0.0163  0.1802
27389SOL    HW291136   1.236  10.977   2.054  0.0997 -0.0110  0.4519
27390SOL     OW91137   0.141   4.642   7.160 -0.1850 -0.0762  0.4721
27390SOL    HW191138   0.186   4.561   7.139 -2.3676 -1.3847  0.5683
27390SOL    HW291139   0.181   4.708   7.102  1.2359 -1.3015 -0.0029
27391SOL     OW91140   0.644   7.375   9.130  0.1174 -0.2878  0.0183
27391SOL    HW191141   0.700   7.419   9.194 -0.5913 -1.1005  1.2568
27391SOL    HW291142   0.570   7.344   9.182 -0.6130 -0.7472 -1.2697
27392SOL     OW91143  10.973   7.294   9.794  0.5372  0.1124  0.0431
27392SOL    HW191144  10.956   7.222   9.854 -1.3265  0.2012 -0.3017
27392SOL    HW291145  10.990   7.369   9.851  0.3599 -0.1493  0.4470
27393SOL     OW91146   4.583   2.288   4.399  0.2322 -0.3553 -0.1192
27393SOL    HW191147   4.526   2.346   4.449  1.0445  0.7449 -0.4285
27393SOL    HW291148   4.658   2.272   4.456  0.3543 -0.5106 -0.3210
27394SOL     OW91149  11.682   4.769   4.666  0.2009 -0.2500  0.2332
27394SOL    HW191150  11.724   4.854   4.667  0.5973 -0.4381 -0.2018
27394SOL    HW291151  11.752   4.707   4.645 -0.4062 -0.4923 -1.2495
27395SOL     OW91152   4.895   3.527   0.013 -0.0840  0.1614  0.1949
27395SOL    HW191153   4.934   3.555   0.096  2.4608  0.0027 -0.8436
27395SOL    HW291154   4.970   3.514  -0.045 -1.5590 -2.6050 -1.2809
27396SOL     OW91155   0.989   8.361   9.157  0.2962 -0.0398 -0.2238
27396SOL    HW191156   1.004   8.393   9.246 -2.0942  0.6716  0.0027
27396SOL    HW291157   0.997   8.266   9.163  2.4157  0.1097  0.2054
27397SOL     OW91158   9.773   4.498   1.791 -0.2049  0.0604  0.1773
27397SOL    HW191159   9.728   4.426   1.836 -1.2695  1.1983  0.9859
27397SOL    HW291160   9.705   4.538   1.736  0.4528  0.2777 -0.4899
27398SOL     OW91161   6.544   6.525   5.793 -0.1486  0.4686  0.4928
27398SOL    HW191162   6.583   6.551   5.876  1.0380 -0.5843  0.2934
27398SOL    HW291163   6.452   6.552   5.800 -0.2073 -0.0687  2.3694
27399SOL     OW91164   3.382   1.143   6.025  0.1079 -0.0879 -0.1336
27399SOL    HW191165   3.469   1.181   6.018  0.6283 -1.1324  0.4637
27399SOL    HW291166   3.392   1.068   6.083 -1.9923  2.2240  3.6270
27400SOL     OW91167  11.094   4.866  12.065 -0.1437  0.6097 -0.4899
27400SOL    HW191168  11.095   4.860  12.161  0.2748  0.1274 -0.5151
27400SOL    HW291169  11.161   4.931  12.044 -1.6024  2.1975 -0.3867
27401SOL     OW91170  12.501   8.568  11.526 -0.1827  0.1205 -0.2024
27401SOL    HW191171  12.584   8.613  11.511  1.0451 -0.8766  2.7414
27401SOL    HW291172  12.518   8.511  11.601 -2.7148 -2.4029 -1.3497
27402SOL     OW91173   1.522   5.350   7.583 -0.0029 -0.2812 -0.5716
27402SOL    HW191174   1.565   5.282   7.531 -0.0600 -1.7015  1.1260
27402SOL    HW291175   1.432   5.317   7.595  0.2655 -0.4789  1.1531
27403SOL     OW91176   7.142   6.035   0.216 -0.9769  0.1558  0.4467
27403SOL    HW191177   7.083   6.031   0.141 -1.7790 -0.9241  1.1033
27403SOL    HW291178   7.088   6.010   0.291  0.6338 -2.6064  0.8403
27404SOL     OW91179   1.478   4.416   4.526  0.3703  0.2310 -0.1449
27404SOL    HW191180   1.416   4.410   4.599  0.5605 -2.1691 -0.1159
27404SOL    HW291181   1.439   4.480   4.467 -0.3917  1.3298  1.4647
27405SOL     OW91182   6.908   8.485   4.118  0.4888  0.4821  0.0800
27405SOL    HW191183   6.956   8.561   4.149 -1.4580  1.5845  0.5488
27405SOL    HW291184   6.915   8.489   4.023  0.7853  0.9809  0.1221
27406SOL     OW91185  11.481   3.761   2.461  0.1345  0.2416  0.2018
27406SOL    HW191186  11.407   3.765   2.521  0.7225  0.6612  0.9215
27406SOL    HW291187  11.451   3.707   2.389 -0.6213 -0.2017  0.8339
27407SOL     OW91188  11.349   6.819   0.206 -0.1681  0.1087  0.2241
27407SOL    HW191189  11.439   6.799   0.233  0.2219 -0.1344 -1.2120
27407SOL    HW291190  11.301   6.738   0.221 -0.0959  0.1449  0.6904
27408SOL     OW91191  11.728   2.423  11.866  0.2060  0.2287 -0.2069
27408SOL    HW191192  11.818   2.455  11.876  0.2742 -0.4484  1.8507
27408SOL    HW291193  11.737   2.327  11.867 -0.4360  0.1402 -1.4068
27409SOL     OW91194   3.565   7.731   5.215  0.1427 -0.4668 -0.2868
27409SOL    HW191195   3.547   7.648   5.259  1.1067 -0.0611  0.9461
27409SOL    HW291196   3.555   7.797   5.283 -1.5370  0.5612 -1.4667
27410SOL     OW91197   2.918  10.249   7.821 -0.1711  0.1987  0.3204
27410SOL    HW191198   2.938  10.249   7.728 -1.1330  0.5225  0.1071
27410SOL    HW291199   2.990  10.199   7.861  0.1556 -0.0842 -0.6021
27411SOL     OW91200   0.184   9.069  11.580 -0.2597 -0.0157 -0.5048
27411SOL    HW191201   0.237   9.143  11.609 -0.3656 -0.0378 -0.2524
27411SOL    HW291202   0.247   9.008  11.542  0.0645 -0.5492  0.8089
27412SOL     OW91203  11.768  10.564  12.428 -0.8005  0.4624 -0.1294
27412SOL    HW191204  11.800  10.506  12.496  0.8119  1.3677 -0.0741
27412SOL    HW291205  11.711  10.509  12.374 -0.3231 -0.8254  0.6432
27413SOL     OW91206   6.901   1.120   4.172  0.6112  0.5339 -0.4216
27413SOL    HW191207   6.887   1.181   4.245 -1.6491 -1.0192  0.5718
27413SOL    HW291208   6.859   1.161   4.097  1.1219  1.2011 -0.3530
27414SOL     OW91209  11.530   7.363   1.139 -0.5878 -0.0273  0.6425
27414SOL    HW191210  11.590   7.435   1.157 -0.6904  0.4689 -0.9238
27414SOL    HW291211  11.476   7.358   1.218 -0.9241  1.9713  0.5961
27415SOL     OW91212  11.303   1.726  12.532  0.0680 -0.1891  0.4837
27415SOL    HW191213  11.364   1.769  12.592  1.6807 -0.0825 -1.1531
27415SOL    HW291214  11.354   1.712  12.452 -1.1698 -2.8415  0.0747
27416SOL     OW91215   1.409   1.862   4.176  0.2418  0.3154  0.4118
27416SOL    HW191216   1.347   1.887   4.245 -0.7806 -1.9175  0.3977
27416SOL    HW291217   1.440   1.775   4.202  1.7164  0.4597 -0.7189
27417SOL     OW91218   0.574   2.607   9.285  0.0352  0.1404 -0.4029
27417SOL    HW191219   0.565   2.640   9.196 -0.1572 -0.1238 -0.4812
27417SOL    HW291220   0.593   2.514   9.275 -0.5466 -0.0056 -0.1525
27418SOL     OW91221  10.674   6.123   9.170 -0.3867 -0.6486  0.4638
27418SOL    HW191222  10.600   6.084   9.216 -0.8868 -0.5927 -0.2780
27418SOL    HW291223  10.705   6.192   9.229 -0.1858 -1.4135  1.2937
27419SOL     OW91224  12.592   8.598   2.665  0.1962 -0.5065  0.0699
27419SOL    HW191225  12.654   8.623   2.733  2.4509 -1.6381 -1.4689
27419SOL    HW291226  12.562   8.682   2.629  1.3700  0.0718  0.3744
27420SOL     OW91227   6.844   4.229   7.175  0.1894  0.3526  0.3689
27420SOL    HW191228   6.814   4.298   7.234 -1.0718 -0.4168  0.6851
27420SOL    HW291229   6.786   4.155   7.195  0.3597 -0.2271 -1.1876
27421SOL     OW91230   3.518   2.645   9.470 -0.0496 -0.7559  0.6725
27421SOL    HW191231   3.483   2.716   9.416  0.6802 -0.4373  0.6037
27421SOL    HW291232   3.534   2.574   9.409 -0.5842 -0.9117  0.7072
27422SOL     OW91233   9.160   6.177   6.704  0.0461 -0.4034 -0.1991
27422SOL    HW191234   9.211   6.107   6.743  0.0261 -0.3553 -0.0891
27422SOL    HW291235   9.118   6.137   6.628 -0.4568 -0.6647  0.2186
27423SOL     OW91236   3.646   4.854  10.059  0.2942 -0.2150 -0.0930
27423SOL    HW191237   3.719   4.899  10.017 -0.0535  0.2588 -0.1913
27423SOL    HW291238   3.686   4.805  10.130  0.8016 -0.5022 -0.5668
27424SOL     OW91239   2.613  10.025   4.305  0.2447  0.3195  0.0273
27424SOL    HW191240   2.674  10.048   4.375 -0.6609  0.2315  0.8635
27424SOL    HW291241   2.569  10.108   4.283 -0.4718  0.0943  0.5599
27425SOL     OW91242   6.006   0.683   0.502 -0.2385  0.2605  0.0596
27425SOL    HW191243   6.052   0.737   0.437 -0.5105 -1.0169 -1.2250
27425SOL    HW291244   6.042   0.595   0.491 -1.6538 -0.3786  0.3177
27426SOL     OW91245   4.600   7.752   2.127  0.3899 -0.3769  0.0269
27426SOL    HW191246   4.608   7.690   2.200 -0.0052 -0.0713  0.3377
27426SOL    HW291247   4.515   7.795   2.142 -0.1926 -1.0605 -1.2069
27427SOL     OW91248   1.824   6.674   6.951 -0.1344 -0.1148 -0.1026
27427SOL    HW191249   1.835   6.580   6.964  0.8110  0.1064  0.8097
27427SOL    HW291250   1.753   6.681   6.887  0.1098 -1.4527 -0.5522
27428SOL     OW91251   1.323   7.011   0.145  0.1158  0.2831  0.3422
27428SOL    HW191252   1.390   6.951   0.176 -0.8663 -0.2817  1.4503
27428SOL    HW291253   1.319   6.995   0.050 -0.0142 -1.3056  0.5851
27429SOL     OW91254   1.218  11.005  10.029 -0.2228  0.1280  0.0665
27429SOL    HW191255   1.183  10.916  10.029 -0.0430  0.0526  0.5996
27429SOL    HW291256   1.305  10.996   9.990 -0.5941  0.2373 -0.8100
27430SOL     OW91257   4.302  11.277  10.465 -0.7830 -0.5182 -0.2396
27430SOL    HW191258   4.288  11.183  10.452  0.9675 -0.7089 -1.0075
27430SOL    HW291259   4.361  11.302  10.395 -1.0869  1.1395  0.0650
27431SOL     OW91260  12.135   3.348   8.716  0.4496  0.0314  0.7077
27431SOL    HW191261  12.205   3.394   8.760  0.6827 -0.3361  0.7252
27431SOL    HW291262  12.056   3.397   8.737  0.9419  1.6542 -0.9643
27432SOL     OW91263   7.704   3.100   7.439  1.0554  0.0229  0.5928
27432SOL    HW191264   7.726   3.073   7.529  1.5697  0.0386  0.4715
27432SOL    HW291265   7.788   3.124   7.400  0.5934  2.1552  0.7887
27433SOL     OW91266  11.546   8.602   0.460 -0.7164 -0.1516  0.0385
27433SOL    HW191267  11.509   8.522   0.497 -0.9740 -0.6006 -1.1350
27433SOL    HW291268  11.484   8.628   0.392  0.1765  0.1263 -0.6912
27434SOL     OW91269   8.057  11.563   3.491  0.0515 -0.0940  0.3696
27434SOL    HW191270   8.117  11.488   3.484  0.3266  0.2242 -1.1370
27434SOL    HW291271   8.036  11.584   3.400 -1.2560  0.6896  0.8299
27435SOL     OW91272  11.960   2.852   8.024  0.0317  0.1270 -0.5044
27435SOL    HW191273  11.987   2.880   8.112  0.0042  1.9229 -1.0245
27435SOL    HW291274  12.030   2.885   7.967 -0.0046 -0.9336 -1.1842
27436SOL     OW91275   3.762   2.775   1.957 -0.2664  0.1589 -0.4433
27436SOL    HW191276   3.676   2.735   1.948 -0.8996  1.4755 -0.6057
27436SOL    HW291277   3.810   2.717   2.016 -1.2583 -0.6043 -0.3574
27437SOL     OW91278   4.452   8.664  10.535 -0.1729 -0.1272 -0.3757
27437SOL    HW191279   4.397   8.616  10.473 -0.6984 -0.3660  0.2654
27437SOL    HW291280   4.390   8.706  10.594  0.3152 -1.5414  1.2365
27438SOL     OW91281   7.623   4.019   8.207 -0.0682 -0.6713 -0.0050
27438SOL    HW191282   7.672   3.943   8.239  0.6744 -0.1025  0.2276
27438SOL    HW291283   7.662   4.094   8.253  1.5534  0.2982 -2.7240
27439SOL     OW91284   5.677  10.728   4.338 -0.3379 -0.0075  0.3324
27439SOL    HW191285   5.682  10.663   4.408  1.1281  1.2381  1.4454
27439SOL    HW291286   5.641  10.680   4.263  2.3215 -2.5981  0.5306
27440SOL     OW91287   7.827  10.146  12.016  0.2076  0.2112 -0.2195
27440SOL    HW191288   7.796  10.141  12.107 -1.6460 -2.1425 -0.8862
27440SOL    HW291289   7.911  10.100  12.017  1.0177  1.6064  0.5242
27441SOL     OW91290  10.395   7.862   2.802  0.0582 -0.5126  0.5901
27441SOL    HW191291  10.333   7.855   2.729 -2.5197  1.3451  2.3847
27441SOL    HW291292  10.360   7.803   2.869  2.7459 -2.6891  0.2465
27442SOL     OW91293   1.186   1.412   8.094 -0.1601  0.1292 -0.4162
27442SOL    HW191294   1.158   1.450   8.177 -0.4254 -2.3434  0.7060
27442SOL    HW291295   1.116   1.436   8.033 -0.2537  1.4734  0.1660
27443SOL     OW91296  10.606   7.625  11.726  0.5679  0.3865 -0.3481
27443SOL    HW191297  10.517   7.653  11.747  0.5796  1.5816 -1.7661
27443SOL    HW291298  10.609   7.533  11.754 -0.7083  0.6594  0.8219
27444SOL     OW91299   2.481   2.757   8.181  0.1211 -0.1300  0.2057
27444SOL    HW191300   2.453   2.701   8.108 -0.9779 -1.1101  1.3282
27444SOL    HW291301   2.550   2.811   8.144 -0.1933 -0.8039 -1.4860
27445SOL     OW91302   8.037   1.683  11.324  0.1811  0.5231  0.9762
27445SOL    HW191303   8.105   1.745  11.297 -0.3634  0.6727 -0.1116
27445SOL    HW291304   7.954   1.728  11.303 -0.2764  0.5657  2.7689
27446SOL     OW91305   6.349   3.169   3.677 -0.3912 -0.5858 -0.0909
27446SOL    HW191306   6.407   3.234   3.636 -0.4654  0.1414  0.9151
27446SOL    HW291307   6.405   3.124   3.741 -1.3761  1.6480  2.5248
27447SOL     OW91308  12.353   1.590   1.902 -0.0880  0.2521 -0.2260
27447SOL    HW191309  12.438   1.626   1.877 -0.3703  0.7251 -0.5085
27447SOL    HW291310  12.303   1.665   1.934 -0.1604 -0.1432  0.5976
27448SOL     OW91311   8.050  10.323  11.328  0.1244  0.3671 -0.1887
27448SOL    HW191312   8.128  10.268  11.325 -0.1463  0.0232 -1.2303
27448SOL    HW291313   8.082  10.412  11.320  0.8205  0.7071  3.9767
27449SOL     OW91314   0.245   6.646  11.264  0.1157 -0.1727 -0.0120
27449SOL    HW191315   0.259   6.622  11.173  2.2813 -1.8637  0.6803
27449SOL    HW291316   0.189   6.577  11.299 -1.6433  1.0644 -0.2703
27450SOL     OW91317   6.301   3.821   0.557  0.1032  0.1641 -0.4588
27450SOL    HW191318   6.384   3.812   0.510  1.5756  4.8259  0.7793
27450SOL    HW291319   6.238   3.846   0.489  0.2329 -0.9585 -1.0239
27451SOL     OW91320   4.976   0.415   3.111 -0.3370  0.0189 -0.2085
27451SOL    HW191321   4.953   0.463   3.190 -0.5006  1.1308 -0.9027
27451SOL    HW291322   5.048   0.358   3.137 -0.7470 -0.0364  0.8550
27452SOL     OW91323  11.478   2.926  12.507  0.1129  0.1835  0.4955
27452SOL    HW191324  11.394   2.881  12.512 -0.5319  1.1281 -1.0199
27452SOL    HW291325  11.540   2.859  12.479 -0.2908 -0.3429  0.8500
27453SOL     OW91326  12.183  10.494  12.533  0.0707  0.3729 -0.5634
27453SOL    HW191327  12.268  10.464  12.566 -0.4350 -1.0551 -0.5189
27453SOL    HW291328  12.124  10.421  12.548 -1.1340  1.2765 -0.7956
27454SOL     OW91329   0.303   5.457  10.972 -0.1531  0.4670 -0.4406
27454SOL    HW191330   0.232   5.453  11.037  0.8303  1.5473  0.7588
27454SOL    HW291331   0.279   5.531  10.916 -0.6201  0.0125 -0.8496
27455SOL     OW91332   2.723   8.195  11.480  0.2348 -0.2019 -0.0259
27455SOL    HW191333   2.704   8.102  11.489  0.3766 -0.3842 -1.3441
27455SOL    HW291334   2.808   8.207  11.521  0.6173 -0.8403 -0.5951
27456SOL     OW91335   9.552   0.691   8.382 -0.1138  0.3273  0.4268
27456SOL    HW191336   9.549   0.674   8.288 -2.1181 -1.4832  0.7255
27456SOL    HW291337   9.616   0.629   8.416 -1.2965 -0.8671  0.5289
27457SOL     OW91338   9.108  11.029   6.402  0.0723  0.1689  0.7457
27457SOL    HW191339   9.069  11.098   6.457  2.6034  2.4603 -0.0826
27457SOL    HW291340   9.147  11.077   6.329  0.1982 -2.4206 -1.0096
27458SOL     OW91341   4.075  11.967   1.082  0.5921 -0.2133  0.4651
27458SOL    HW191342   4.038  11.908   1.016  1.5754 -1.2087  0.7813
27458SOL    HW291343   4.167  11.944   1.087  0.8816  0.9775  1.0193
27459SOL     OW91344   8.431  12.197   5.257  0.1680  0.1761 -0.4366
27459SOL    HW191345   8.337  12.192   5.239  0.2595  0.3644 -0.9726
27459SOL    HW291346   8.471  12.208   5.171  0.7042 -0.2089 -0.2414
27460SOL     OW91347   6.130   9.295   3.545 -0.2557  0.0354 -0.5878
27460SOL    HW191348   6.081   9.290   3.627  0.2040 -0.4041 -0.3300
27460SOL    HW291349   6.142   9.389   3.530  1.6244  0.1389  1.0765
27461SOL     OW91350   8.991  11.123   1.109 -0.0481 -0.6300 -0.2552
27461SOL    HW191351   8.947  11.039   1.093  0.4061 -1.3394  1.9023
27461SOL    HW291352   9.075  11.099   1.147  0.2300  0.8215  0.1002
27462SOL     OW91353  12.468   3.939   8.049 -0.1147  0.0896 -0.6848
27462SOL    HW191354  12.496   4.004   8.112  1.0085 -0.4411 -0.5994
27462SOL    HW291355  12.514   3.859   8.075  0.4178 -0.1322 -2.1741
27463SOL     OW91356   9.757  12.400   4.766 -0.2159  0.3387 -0.2432
27463SOL    HW191357   9.837  12.422   4.812 -0.5230  2.7035 -0.7092
27463SOL    HW291358   9.784  12.389   4.675 -0.2448 -0.2302 -0.1911
27464SOL     OW91359   8.867   5.373   6.343  0.1676 -0.3542  0.2095
27464SOL    HW191360   8.789   5.414   6.378 -0.4288  0.2996 -1.7789
27464SOL    HW291361   8.894   5.311   6.412 -1.2872  0.3653  1.4947
27465SOL     OW91362   5.322  11.481   3.436 -0.5704  0.6081 -0.0560
27465SOL    HW191363   5.260  11.515   3.501  1.3686  0.6507  1.8845
27465SOL    HW291364   5.310  11.386   3.440 -0.1860  0.5847  0.6773
27466SOL     OW91365   7.362   9.213   0.733 -0.5603 -0.5500  0.3546
27466SOL    HW191366   7.421   9.218   0.657  1.0590 -0.0751  1.5890
27466SOL    HW291367   7.365   9.301   0.771  0.3874 -1.3395  2.2023
27467SOL     OW91368   7.005   5.283   8.821  0.4394 -0.3797 -0.2264
27467SOL    HW191369   7.033   5.368   8.858 -1.3564  0.0347  0.2445
27467SOL    HW291370   7.077   5.259   8.763  1.3769  1.0651  0.2573
27468SOL     OW91371   6.618   7.852   2.628  0.0091  0.1537 -0.0259
27468SOL    HW191372   6.601   7.936   2.671  0.7156  0.3449 -0.1137
27468SOL    HW291373   6.550   7.846   2.560  0.7647  1.3082 -0.9370
27469SOL     OW91374   6.345  10.860  11.992 -0.2492 -0.0633 -0.2795
27469SOL    HW191375   6.339  10.877  12.086 -0.0011  1.8834 -0.5602
27469SOL    HW291376   6.435  10.831  11.979 -0.2711 -0.2942  0.0731
27470SOL     OW91377   6.854  10.789   9.498  0.5385 -0.3344 -0.1637
27470SOL    HW191378   6.811  10.735   9.431  1.1616 -1.7233  0.5159
27470SOL    HW291379   6.932  10.823   9.454  1.3555 -1.8561  0.0202
27471SOL     OW91380   0.995   9.283   9.035  0.2233 -0.0402  0.2080
27471SOL    HW191381   1.043   9.365   9.042  0.8804 -0.3842 -0.1484
27471SOL    HW291382   0.902   9.309   9.034  0.4155  0.9624 -2.8065
27472SOL     OW91383  10.182   6.758  10.456  0.1963  0.4747 -0.2967
27472SOL    HW191384  10.178   6.756  10.551  0.5517  3.1498 -0.1273
27472SOL    HW291385  10.272   6.733  10.434  0.7366  1.8343  0.2595
27473SOL     OW91386   8.059  10.826   8.114  0.5791  0.5739  0.5623
27473SOL    HW191387   8.063  10.795   8.024 -1.0948  0.1716  0.6002
27473SOL    HW291388   8.139  10.794   8.155  0.3392 -1.0851 -0.2219
27474SOL     OW91389   3.762   9.905   0.829 -0.0697  0.0684 -0.1160
27474SOL    HW191390   3.837   9.852   0.857  0.7733  1.8001  1.1294
27474SOL    HW291391   3.793   9.950   0.750 -0.2772 -0.2228 -0.3637
27475SOL     OW91392   8.382   9.558  11.391  0.1515 -0.4732  0.0975
27475SOL    HW191393   8.464   9.517  11.365  0.1838 -0.5938  0.3789
27475SOL    HW291394   8.400   9.592  11.479 -0.3844 -1.3323  0.5506
27476SOL     OW91395  12.180   8.528   5.703  0.1720  0.7638 -0.8240
27476SOL    HW191396  12.247   8.460   5.699 -0.2457  0.2455  0.5326
27476SOL    HW291397  12.131   8.519   5.622  1.3004  0.7123 -1.5283
27477SOL     OW91398   6.698   0.609   4.015  0.0335 -0.1950 -0.5391
27477SOL    HW191399   6.773   0.567   3.973  0.2895 -1.0301  0.7266
27477SOL    HW291400   6.624   0.551   3.996  0.0891 -0.4085 -0.0961
27478SOL     OW91401   8.513   6.671   3.634  0.1207 -0.1682 -0.3047
27478SOL    HW191402   8.542   6.630   3.715 -0.8377 -0.1041  0.0915
27478SOL    HW291403   8.512   6.765   3.653 -0.0777 -0.1509 -0.3900
27479SOL     OW91404  11.407   2.865   7.084  0.3971 -0.5923  0.5807
27479SOL    HW191405  11.443   2.929   7.145 -1.4608 -0.3528  1.4948
27479SOL    HW291406  11.324   2.903   7.054  0.1229 -1.7674 -0.2542
27480SOL     OW91407  11.734  10.190  10.393 -0.1182 -0.0601 -0.0466
27480SOL    HW191408  11.743  10.271  10.444  0.4320  0.7011 -1.2756
27480SOL    HW291409  11.741  10.220  10.302 -0.9377 -1.3780 -0.5649
27481SOL     OW91410   1.265   6.539   9.867 -0.0154  0.2934 -0.5506
27481SOL    HW191411   1.192   6.507   9.919  0.1295  1.5002  0.4463
27481SOL    HW291412   1.241   6.519   9.776 -0.3669 -1.6591 -0.0722
27482SOL     OW91413   5.874  11.778   4.598 -0.4678 -0.2884 -0.2583
27482SOL    HW191414   5.782  11.803   4.589 -0.7963 -1.3823 -0.0846
27482SOL    HW291415   5.908  11.783   4.508 -0.4768  0.8680 -0.2153
27483SOL     OW91416   6.417   9.190   5.111  0.1377 -0.0690 -0.0776
27483SOL    HW191417   6.328   9.173   5.079  0.7520 -1.0417 -1.3557
27483SOL    HW291418   6.474   9.148   5.047  1.5348  0.5485  0.7143
27484SOL     OW91419   1.697   8.955   2.213  0.3982  0.4984  0.5866
27484SOL    HW191420   1.711   8.876   2.161  1.9257  0.6601  0.7282
27484SOL    HW291421   1.606   8.948   2.243  0.1424 -0.5996 -0.3923
27485SOL     OW91422   4.902   0.571   5.186  0.6236 -0.4656 -0.0313
27485SOL    HW191423   4.895   0.659   5.224  0.5013 -1.1010  1.5235
27485SOL    HW291424   4.953   0.583   5.106  0.8981  0.9641  0.3267
27486SOL     OW91425  10.585   0.097  12.345  0.0817  0.0692 -0.1160
27486SOL    HW191426  10.491   0.077  12.350 -0.3147  1.5551 -0.7671
27486SOL    HW291427  10.599   0.117  12.252  1.0001  0.0690  0.0214
27487SOL     OW91428  10.378  10.859   1.014  0.3223  0.5159 -0.2397
27487SOL    HW191429  10.364  10.866   1.108  1.9393  1.9441 -0.0535
27487SOL    HW291430  10.324  10.927   0.975 -0.0246  0.1993 -0.3206
27488SOL     OW91431   3.942   6.795   9.646  0.3972 -0.0557  0.2588
27488SOL    HW191432   3.856   6.835   9.640  0.9034  0.9968 -0.1807
27488SOL    HW291433   3.983   6.812   9.561  1.0384 -0.5457  0.4584
27489SOL     OW91434  11.114   8.247  12.130 -0.1344 -1.0011 -0.2026
27489SOL    HW191435  11.115   8.340  12.109  2.2148 -0.4239  1.9394
27489SOL    HW291436  11.121   8.203  12.045 -2.3787  0.6476 -1.3453
27490SOL     OW91437   9.052   2.130   9.281 -0.2679  0.0780 -0.7238
27490SOL    HW191438   9.108   2.185   9.227 -0.2776  1.0487  0.2033
27490SOL    HW291439   9.098   2.124   9.365 -0.7631 -0.4687 -0.4830
27491SOL     OW91440   2.172  11.107   4.704 -0.1548 -0.0098 -0.2697
27491SOL    HW191441   2.246  11.098   4.644  0.8445  3.5679  0.1573
27491SOL    HW291442   2.113  11.168   4.661 -1.7304 -0.9709  0.4433
27492SOL     OW91443   6.747  10.626   9.312 -0.5179  0.0312  0.1716
27492SOL    HW191444   6.807  10.588   9.247 -1.2157  0.5503 -0.7981
27492SOL    HW291445   6.719  10.551   9.365 -0.6973 -0.5656 -0.7484
27493SOL     OW91446  11.773   2.023   5.674 -0.3972 -0.0644  0.1658
27493SOL    HW191447  11.762   2.034   5.579  0.8216  2.6219  0.2430
27493SOL    HW291448  11.684   2.020   5.708 -0.8582 -1.1906 -1.0344
27494SOL     OW91449   2.405   6.684   9.549  0.0107  0.1918  0.2092
27494SOL    HW191450   2.389   6.620   9.480  0.5624 -0.2408  0.4758
27494SOL    HW291451   2.352   6.656   9.623  0.5053 -0.1559  0.4397
27495SOL     OW91452   2.526   2.529   8.014 -0.4495  0.2715 -0.0794
27495SOL    HW191453   2.621   2.529   8.009 -0.4627 -1.9961 -2.6108
27495SOL    HW291454   2.505   2.463   8.080 -0.2091 -1.2242 -1.4460
27496SOL     OW91455   7.064   2.990   3.045  0.0993 -1.3198  0.2269
27496SOL    HW191456   6.971   2.965   3.042 -0.0847 -0.9128  1.7211
27496SOL    HW291457   7.099   2.944   3.121  0.4295  0.6728  1.3531
27497SOL     OW91458   2.299  11.263   6.519  0.5795 -0.3355 -0.1636
27497SOL    HW191459   2.252  11.345   6.535 -0.4145 -0.6111 -1.5638
27497SOL    HW291460   2.365  11.286   6.454  0.8036 -0.4863  0.0097
27498SOL     OW91461   7.475  11.529   3.693  0.3390 -0.0995  0.1185
27498SOL    HW191462   7.497  11.585   3.767  0.0484  0.1532  0.0161
27498SOL    HW291463   7.443  11.589   3.626 -3.4566 -0.6020  1.2251
27499SOL     OW91464   0.663  10.372   3.794  0.2627 -0.6410 -0.0049
27499SOL    HW191465   0.640  10.279   3.792  0.1811 -0.6968  1.6281
27499SOL    HW291466   0.586  10.416   3.757  0.6642 -1.2515 -1.6327
27500SOL     OW91467   2.380  12.502  10.292  0.9963  0.3565 -0.5240
27500SOL    HW191468   2.412  12.577  10.342 -0.9955  1.2747 -0.5243
27500SOL    HW291469   2.291  12.488  10.324  0.8809 -1.2138 -1.4274
27501SOL     OW91470   2.169   5.410   7.173  0.0187 -0.3842  0.2775
27501SOL    HW191471   2.076   5.433   7.172  0.0696 -0.1279  0.8259
27501SOL    HW291472   2.172   5.319   7.144 -0.4799 -0.6316  0.9798
27502SOL     OW91473   5.392   5.706   2.531 -0.3590 -0.4681  0.2419
27502SOL    HW191474   5.477   5.737   2.563 -0.9075 -0.6388  1.9803
27502SOL    HW291475   5.397   5.716   2.436  1.5991 -0.4867  0.2992
27503SOL     OW91476  11.911   6.200   1.720 -0.2221 -0.0998 -0.2016
27503SOL    HW191477  11.995   6.163   1.748  0.9162  2.5974  0.2863
27503SOL    HW291478  11.919   6.211   1.625  0.7731  1.8037  0.0577
27504SOL     OW91479   1.283   9.152   4.309 -0.3267 -0.1757  0.0809
27504SOL    HW191480   1.319   9.236   4.336  0.1353 -0.1129 -0.7017
27504SOL    HW291481   1.190   9.169   4.295 -0.3304  0.0824  0.4164
27505SOL     OW91482   6.705   4.250  10.564  0.5907 -0.4040 -0.2923
27505SOL    HW191483   6.728   4.342  10.565 -0.5315 -0.1082  0.3088
27505SOL    HW291484   6.778   4.207  10.520  2.0852  0.4946  1.2198
27506SOL     OW91485  11.096  11.478   1.928  0.0024  0.4491  0.4275
27506SOL    HW191486  11.004  11.507   1.926 -0.2335 -0.2407  0.9064
27506SOL    HW291487  11.125  11.486   1.838 -0.7112  0.1117  0.1588
27507SOL     OW91488   3.259   1.328  12.283  0.2770 -0.1387 -0.0861
27507SOL    HW191489   3.241   1.237  12.308  0.5817  0.3360  2.0490
27507SOL    HW291490   3.176   1.374  12.296 -0.3343 -0.3415 -2.7068
27508SOL     OW91491  10.158   9.232   5.689 -0.1321 -0.3407  0.1045
27508SOL    HW191492  10.123   9.318   5.663  0.0742 -0.1751  0.3671
27508SOL    HW291493  10.232   9.218   5.629  1.1241  0.6030  1.3498
27509SOL     OW91494   6.764   2.249   7.548  0.0708 -0.2864 -0.0385
27509SOL    HW191495   6.848   2.206   7.530  0.2500 -0.6240  1.5082
27509SOL    HW291496   6.755   2.246   7.643 -1.4550  0.2258 -0.1407
27510SOL     OW91497   4.403   7.710   9.158  0.2666 -0.0946 -0.3182
27510SOL    HW191498   4.413   7.638   9.220  0.6926  0.7865  0.6759
27510SOL    HW291499   4.320   7.693   9.114 -0.4880 -0.3099  1.1184
27511SOL     OW91500   9.266   1.821   3.675  0.4921 -0.3445  0.3874
27511SOL    HW191501   9.288   1.736   3.713  1.9955 -1.2744 -2.2821
27511SOL    HW291502   9.348   1.868   3.671 -0.4425  1.6452  2.5128
27512SOL     OW91503  10.915  10.703  12.331 -0.0005 -0.3208 -0.5587
27512SOL    HW191504  10.971  10.692  12.255  2.2986 -1.6411  1.1724
27512SOL    HW291505  10.837  10.652  12.311  0.3748 -0.2988 -2.1840
27513SOL     OW91506   1.125   0.188  10.567 -0.1674  0.2571 -0.1689
27513SOL    HW191507   1.128   0.201  10.661 -1.4630  1.0233 -0.2092
27513SOL    HW291508   1.187   0.252  10.532  1.3494 -0.9605  0.2141
27514SOL     OW91509   3.274  10.777   3.439 -0.0073  0.0383  0.4083
27514SOL    HW191510   3.261  10.683   3.424  0.3721 -0.1781  1.3539
27514SOL    HW291511   3.196  10.805   3.486 -0.1595  0.2203  0.0505
27515SOL     OW91512  11.081  12.278   7.710  0.2513  0.5343  0.0872
27515SOL    HW191513  11.074  12.308   7.801 -0.5131  0.8250 -0.0583
27515SOL    HW291514  11.174  12.289   7.689  0.2892  1.2575  0.5709
27516SOL     OW91515   7.396   0.863   1.469 -0.4838 -0.0081 -0.3377
27516SOL    HW191516   7.304   0.888   1.476 -1.2417 -2.8004  1.3300
27516SOL    HW291517   7.442   0.925   1.526 -1.3071  1.2924 -1.0375
27517SOL     OW91518   7.313   5.297   0.450 -0.1693 -0.4342  0.3340
27517SOL    HW191519   7.275   5.367   0.398  0.2847 -0.4803 -0.0621
27517SOL    HW291520   7.338   5.339   0.532 -0.2105 -0.2066  0.2313
27518SOL     OW91521   3.330   2.179   4.392 -0.1744  0.5635  0.3424
27518SOL    HW191522   3.341   2.084   4.385  0.0112  0.6022  0.0580
27518SOL    HW291523   3.248   2.197   4.347 -0.4969  0.4743  0.8934
27519SOL     OW91524   9.107   8.929  11.398  0.0432 -0.3446  0.4543
27519SOL    HW191525   9.197   8.902  11.416  1.4500  1.3009 -3.2573
27519SOL    HW291526   9.092   9.002  11.458  1.0743 -0.7575  1.2494
27520SOL     OW91527   8.303   9.253   6.846 -0.0819 -0.3173  0.2339
27520SOL    HW191528   8.397   9.237   6.850  0.9075  3.9825 -0.5679
27520SOL    HW291529   8.280   9.288   6.932 -0.2232  1.2591 -0.3982
27521SOL     OW91530   1.972  11.596   0.857  0.1492  0.0915  0.5445
27521SOL    HW191531   1.930  11.516   0.822 -0.2903 -0.1474  1.5892
27521SOL    HW291532   1.898  11.650   0.887  0.4744  0.6863  0.2899
27522SOL     OW91533  11.925   0.593  11.699 -0.2406  0.1563 -0.1556
27522SOL    HW191534  11.979   0.639  11.765 -1.8498  3.3587 -0.8591
27522SOL    HW291535  11.956   0.628  11.615 -2.9112  1.7571 -0.6059
27523SOL     OW91536   2.817   0.522   1.264 -0.1869  0.1061  0.2787
27523SOL    HW191537   2.783   0.529   1.353 -1.4598 -0.4238 -0.1338
27523SOL    HW291538   2.843   0.430   1.256 -1.1372 -0.1369 -0.2289
27524SOL     OW91539   2.392  10.308   6.861  0.2126  0.0135  0.1314
27524SOL    HW191540   2.351  10.363   6.928 -0.2499 -1.4378  1.0909
27524SOL    HW291541   2.441  10.243   6.911 -1.7872 -2.3789 -0.8375
27525SOL     OW91542   1.841  12.254   1.795 -0.1242 -0.5249  0.2647
27525SOL    HW191543   1.920  12.256   1.848  0.2425  0.6703 -0.3014
27525SOL    HW291544   1.789  12.183   1.832  1.2660 -1.4313  0.5644
27526SOL     OW91545   2.781  10.782  10.001  0.3022  0.0900 -0.5409
27526SOL    HW191546   2.773  10.841   9.925 -1.7582  2.0335  1.0341
27526SOL    HW291547   2.690  10.761  10.024  0.8835 -0.4983  1.3422
27527SOL     OW91548   5.756  11.504   2.489 -0.1683  0.3064 -0.1812
27527SOL    HW191549   5.767  11.449   2.567 -0.8716 -0.2986 -0.5005
27527SOL    HW291550   5.719  11.586   2.523  0.3228  0.3635  0.2233
27528SOL     OW91551   7.473   8.873   9.831  0.6810 -0.3988 -0.1846
27528SOL    HW191552   7.503   8.863   9.921  0.6586  0.3056 -0.0986
27528SOL    HW291553   7.467   8.967   9.817 -3.0631 -0.4343  0.3142
27529SOL     OW91554   5.648   8.732   0.028 -0.3256  0.0731 -0.0806
27529SOL    HW191555   5.625   8.643   0.001 -0.6836 -0.0416  0.5978
27529SOL    HW291556   5.604   8.788  -0.036 -1.6138 -0.1822  0.5467
27530SOL     OW91557   0.551   6.557   6.722 -0.1505 -0.1511  0.3470
27530SOL    HW191558   0.608   6.537   6.648  0.0223  0.7684  0.2240
27530SOL    HW291559   0.611   6.573   6.795 -0.2743  0.1382  0.3865
27531SOL     OW91560   9.144   9.341  12.159 -0.0109  0.2564  0.2929
27531SOL    HW191561   9.194   9.423  12.169 -0.0098  0.5265 -1.5586
27531SOL    HW291562   9.053   9.370  12.148 -0.1909 -0.0754  0.8947
27532SOL     OW91563   7.306   4.967   7.728 -0.4353  0.2092  0.1550
27532SOL    HW191564   7.237   4.998   7.786 -1.1610  0.5561 -0.8598
27532SOL    HW291565   7.320   5.039   7.667  2.2573  0.9610  1.5193
27533SOL     OW91566   8.827   3.085  11.960  0.1619  0.4558  0.5809
27533SOL    HW191567   8.825   3.180  11.973 -2.4968  0.4356  0.9529
27533SOL    HW291568   8.900   3.054  12.012  0.8224  2.2594  0.7699
27534SOL     OW91569   8.388   4.481   1.854 -0.2940 -0.3792 -0.6386
27534SOL    HW191570   8.383   4.576   1.868  3.0772  0.0232 -1.2652
27534SOL    HW291571   8.454   4.451   1.916 -1.6248 -2.4621 -0.1266
27535SOL     OW91572   0.101   7.772   7.055  0.1038 -0.0526 -0.5214
27535SOL    HW191573   0.183   7.763   7.007  0.3402 -0.3192 -0.0706
27535SOL    HW291574   0.056   7.845   7.012  0.3196 -0.2731 -1.1326
27536SOL     OW91575   7.557   8.771   5.452  0.0952 -0.5517  0.1691
27536SOL    HW191576   7.518   8.733   5.530 -0.1026 -0.4472  0.1220
27536SOL    HW291577   7.649   8.748   5.457  0.1621 -0.1971  0.6388
27537SOL     OW91578   3.927   2.115   3.562  0.6626  0.5288  0.4629
27537SOL    HW191579   4.009   2.066   3.555 -0.5472 -1.5052 -0.5464
27537SOL    HW291580   3.859   2.050   3.543 -1.1157  2.4011  0.0896
27538SOL     OW91581  10.985   5.097  10.558  0.2230 -0.9486 -0.3195
27538SOL    HW191582  11.036   5.169  10.520  0.5169 -0.4057  1.0273
27538SOL    HW291583  10.920   5.076  10.492  1.0487 -0.4236 -1.3346
27539SOL     OW91584   1.361  11.858  11.457 -0.3731 -0.2495 -0.3379
27539SOL    HW191585   1.404  11.943  11.461 -1.9712  0.5605  0.4763
27539SOL    HW291586   1.375  11.820  11.544 -1.9602  0.3899  0.2276
27540SOL     OW91587   9.339  10.361  11.792  0.4414 -0.2762 -0.2463
27540SOL    HW191588   9.288  10.398  11.720 -0.5324  2.0012  1.4838
27540SOL    HW291589   9.388  10.289  11.753 -0.1251  0.7899 -3.1286
27541SOL     OW91590   7.839   6.299   0.576  0.2632 -0.3344 -0.3839
27541SOL    HW191591   7.793   6.353   0.640  0.9356 -0.2688  0.0529
27541SOL    HW291592   7.771   6.244   0.537 -0.1910 -0.1804  0.1876
27542SOL     OW91593  10.131   7.333  12.377 -0.0620 -0.5489  0.0804
27542SOL    HW191594  10.103   7.380  12.455 -1.6974  1.1900 -1.4273
27542SOL    HW291595  10.225   7.351  12.371 -0.4751  1.9762  0.0215
27543SOL     OW91596   2.427   3.673   8.186 -0.3739 -0.0884  0.5491
27543SOL    HW191597   2.469   3.704   8.106  0.1810 -1.2891  0.3598
27543SOL    HW291598   2.402   3.753   8.232  0.6550  0.6381 -0.1078
27544SOL     OW91599   4.053  11.933   8.045 -0.4359  0.4631 -0.6546
27544SOL    HW191600   4.004  11.952   8.126  0.0380  0.2585 -0.3174
27544SOL    HW291601   3.985  11.913   7.981 -0.8042  0.2547 -0.2101
27545SOL     OW91602   8.387   0.348   5.484 -0.2253 -0.2252 -0.3307
27545SOL    HW191603   8.456   0.357   5.550  1.0958 -1.3418 -1.4548
27545SOL    HW291604   8.323   0.288   5.523  1.4197 -2.3168 -0.6281
27546SOL     OW91605   4.210   0.277   5.164 -0.2431  0.2294 -0.6322
27546SOL    HW191606   4.127   0.306   5.128  0.4121  0.0867 -2.3629
27546SOL    HW291607   4.200   0.183   5.178 -0.0745  0.0383 -1.7504
27547SOL     OW91608   8.702   4.554   4.656 -0.0106  0.3139 -0.8359
27547SOL    HW191609   8.675   4.643   4.634 -1.9407  0.2410  1.0130
27547SOL    HW291610   8.674   4.502   4.581  1.4942  1.2330 -2.1286
27548SOL     OW91611   6.105   8.956   9.709  0.0987  0.6410  0.0099
27548SOL    HW191612   6.196   8.985   9.701  0.2027  0.4420  0.4524
27548SOL    HW291613   6.091   8.900   9.633  0.0814  1.3519 -0.5291
27549SOL     OW91614  12.080  12.225   1.018  0.4665  0.7872 -0.0354
27549SOL    HW191615  12.130  12.251   1.095  1.2031  0.7758 -0.4949
27549SOL    HW291616  12.144  12.224   0.947 -0.4418  2.0727 -0.9195
27550SOL     OW91617  11.477  11.688   6.054  0.6868 -0.5214 -0.2636
27550SOL    HW191618  11.554  11.737   6.083  0.2627  0.9796 -1.5323
27550SOL    HW291619  11.510  11.630   5.985  1.1543 -1.9450  1.1060
27551SOL     OW91620   5.924   9.972   9.559  0.3279 -0.3474 -0.3442
27551SOL    HW191621   5.931  10.067   9.555  2.5780 -0.4963 -1.3176
27551SOL    HW291622   5.945   9.942   9.470  0.6893 -1.7793  0.1918
27552SOL     OW91623  10.593   2.279   9.424  0.2812 -0.0319 -0.2222
27552SOL    HW191624  10.505   2.295   9.459  0.5140 -1.2526  1.0340
27552SOL    HW291625  10.641   2.241   9.498  1.7397  0.1791 -1.0212
27553SOL     OW91626   4.595   2.982   5.244  0.4898  0.2955 -0.1920
27553SOL    HW191627   4.674   2.949   5.288 -0.4570 -0.6021  0.8745
27553SOL    HW291628   4.615   2.974   5.151  1.6266 -0.0005  0.0559
27554SOL     OW91629   6.863   5.955   7.847  0.1341 -0.1172 -0.1288
27554SOL    HW191630   6.770   5.959   7.825 -0.0985 -1.8651  0.3920
27554SOL    HW291631   6.865   5.928   7.939  1.1643 -0.7270 -0.3156
27555SOL     OW91632   7.944  12.478  10.488 -0.2002  0.0458 -0.1401
27555SOL    HW191633   8.034  12.448  10.480 -0.2307 -0.2585  0.5822
27555SOL    HW291634   7.941  12.521  10.574 -0.2050  1.9492 -1.0326
27556SOL     OW91635   3.725  11.366   6.964 -0.1602  0.2714 -0.5940
27556SOL    HW191636   3.732  11.271   6.966 -0.2028  0.2846  0.7682
27556SOL    HW291637   3.657  11.383   6.898 -0.0482 -0.6209 -0.9539
27557SOL     OW91638   6.417  10.498  10.060 -0.0289 -0.5243 -0.0402
27557SOL    HW191639   6.345  10.461  10.010 -0.3996 -0.3802  0.3868
27557SOL    HW291640   6.382  10.579  10.097  0.6226  0.0149 -0.5606
27558SOL     OW91641   7.133  12.412   4.390  0.2061 -0.2185  0.4136
27558SOL    HW191642   7.081  12.343   4.431 -1.3633  0.6952  0.0237
27558SOL    HW291643   7.206  12.365   4.349 -0.1234 -1.5024  1.2505
27559SOL     OW91644   5.327   2.539   4.448  0.4156  0.0485 -0.0959
27559SOL    HW191645   5.287   2.519   4.363  0.7630  1.6647 -0.6843
27559SOL    HW291646   5.277   2.613   4.481  2.2345  1.4627 -0.3773
27560SOL     OW91647   0.859   4.380   2.901  0.1761 -0.1418  0.1098
27560SOL    HW191648   0.789   4.345   2.844  0.3759  0.9184 -0.8199
27560SOL    HW291649   0.940   4.352   2.858  0.3475 -0.8828  0.8806
27561SOL     OW91650   1.834   8.292   1.602 -0.4504  0.4733  0.2724
27561SOL    HW191651   1.740   8.284   1.615 -0.2651 -0.0325  1.3991
27561SOL    HW291652   1.873   8.268   1.687  0.6741  1.0628 -0.0493
27562SOL     OW91653  11.854   5.342   9.507 -0.2540  0.1171 -0.0059
27562SOL    HW191654  11.893   5.268   9.461 -2.3410 -0.1416 -1.4897
27562SOL    HW291655  11.855   5.317   9.599  1.2449 -0.6937 -0.2117
27563SOL     OW91656   0.384   9.590   7.334 -0.0841  0.9939  0.0871
27563SOL    HW191657   0.412   9.617   7.247 -0.7768  1.1331 -0.1027
27563SOL    HW291658   0.310   9.531   7.318  1.4305 -1.1179  0.4829
27564SOL     OW91659   9.747   0.212   3.318 -0.6818 -0.0895 -0.2104
27564SOL    HW191660   9.667   0.162   3.337 -0.5538 -0.6096 -0.9842
27564SOL    HW291661   9.719   0.277   3.253 -0.8395  0.8441  0.7675
27565SOL     OW91662   0.193   1.426   7.229  0.5475  0.6154  1.1741
27565SOL    HW191663   0.113   1.462   7.191  1.0013 -2.1359 -3.1338
27565SOL    HW291664   0.256   1.498   7.225 -0.3420  1.3563 -0.5046
27566SOL     OW91665  11.936  10.346  11.712  0.3184  0.0266 -0.0881
27566SOL    HW191666  11.928  10.400  11.633 -0.0391 -0.7571 -0.5961
27566SOL    HW291667  11.978  10.404  11.776  0.5117  0.7080 -0.8121
27567SOL     OW91668  11.865  11.008   6.524  0.2537  0.5100 -0.9272
27567SOL    HW191669  11.892  11.051   6.605  2.6345  1.7404 -2.2793
27567SOL    HW291670  11.926  10.935   6.514 -0.1307  0.2608 -1.5232
27568SOL     OW91671   5.098  10.308  10.075  0.0255  0.1060 -0.2041
27568SOL    HW191672   5.115  10.223  10.034  0.7043  0.3274 -0.3946
27568SOL    HW291673   5.174  10.324  10.129 -0.7393 -0.0472  0.9520
27569SOL     OW91674   1.746   0.926   3.722 -0.0417  0.1503 -0.1811
27569SOL    HW191675   1.662   0.887   3.742 -0.1125  0.0837 -0.5843
27569SOL    HW291676   1.809   0.881   3.779  0.1960 -2.0039 -2.0017
27570SOL     OW91677   5.702   6.490  12.129  0.1943  0.2775 -0.1417
27570SOL    HW191678   5.787   6.467  12.167 -0.0705  1.3030  1.1214
27570SOL    HW291679   5.649   6.411  12.140  1.1520 -0.6071 -1.5507
27571SOL     OW91680  11.674   5.094   6.058 -0.1864 -0.0275  0.0211
27571SOL    HW191681  11.715   5.028   6.002  0.0781  0.3179 -0.1981
27571SOL    HW291682  11.588   5.108   6.018 -0.1604 -0.0874 -0.0565
27572SOL     OW91683   6.636   0.573  12.209  0.0877 -0.3630 -0.0602
27572SOL    HW191684   6.726   0.591  12.237 -0.1659 -0.0026  0.5718
27572SOL    HW291685   6.630   0.478  12.207  0.3153 -0.3939  0.4807
27573SOL     OW91686  10.321   5.137   1.792 -0.5531 -0.1092  0.2918
27573SOL    HW191687  10.300   5.044   1.796 -0.0292 -0.3674 -1.7243
27573SOL    HW291688  10.409   5.140   1.755 -1.0847  1.1953 -0.9433
27574SOL     OW91689   4.753   1.625  10.229  0.0387 -0.7292  0.0526
27574SOL    HW191690   4.804   1.548  10.253 -0.0569 -1.0033 -0.6026
27574SOL    HW291691   4.793   1.656  10.147 -0.3090 -0.4472 -0.0168
27575SOL     OW91692  11.151   8.014  11.248  0.2463  0.1005 -0.4809
27575SOL    HW191693  11.171   8.067  11.171  1.9675 -0.9101 -0.7723
27575SOL    HW291694  11.076   7.960  11.221  0.7132 -0.1068 -1.3846
27576SOL     OW91695   2.779   0.573   8.369 -0.1126 -0.5541 -0.0312
27576SOL    HW191696   2.796   0.480   8.359 -0.8027 -0.4187 -4.3708
27576SOL    HW291697   2.865   0.614   8.373  0.2175 -1.2959  3.2146
27577SOL     OW91698  11.242  11.988   2.247 -0.0690 -0.2518  0.7688
27577SOL    HW191699  11.290  12.005   2.166  0.3143 -1.7394  0.6532
27577SOL    HW291700  11.240  12.073   2.291  1.5863  0.1435  0.1857
27578SOL     OW91701   1.885   8.089  11.018  0.3602 -0.3039 -1.1257
27578SOL    HW191702   1.967   8.138  11.015  0.6469 -0.4076  1.9915
27578SOL    HW291703   1.911   7.997  11.006  0.5430 -0.2478 -1.1521
27579SOL     OW91704   6.006   7.304   8.572 -0.0678  0.3453  0.0579
27579SOL    HW191705   6.099   7.282   8.567 -0.1932 -0.0606 -0.6082
27579SOL    HW291706   5.995   7.342   8.659  0.3508 -1.3868  0.9079
27580SOL     OW91707   9.490   9.265   6.849  0.5732  0.2911  0.2257
27580SOL    HW191708   9.455   9.342   6.893  0.9227  1.2807 -1.1687
27580SOL    HW291709   9.585   9.269   6.864  0.8418  1.2489 -1.4568
27581SOL     OW91710   6.253   3.249   2.699  0.7723 -0.4459 -0.2630
27581SOL    HW191711   6.178   3.269   2.756 -0.1289  0.6203 -1.7436
27581SOL    HW291712   6.213   3.205   2.623  2.0517 -2.7068  0.2884
27582SOL     OW91713   2.447   2.389   1.748  0.0525 -0.3581  0.0256
27582SOL    HW191714   2.352   2.388   1.764  0.0011  0.4793 -0.1675
27582SOL    HW291715   2.486   2.406   1.833  0.0923 -1.6933  0.2914
27583SOL     OW91716   2.261   2.251   6.703 -0.9547 -0.0489  0.0143
27583SOL    HW191717   2.287   2.295   6.784 -0.4882  1.4637 -0.9211
27583SOL    HW291718   2.166   2.244   6.710 -0.8197 -1.1241  1.2490
27584SOL     OW91719   1.719   0.021   0.057 -0.1409 -0.4106 -0.0513
27584SOL    HW191720   1.720   0.086  -0.013 -0.5560 -0.0975  0.2262
27584SOL    HW291721   1.793  -0.037   0.038 -0.1092 -0.1880 -0.6118
27585SOL     OW91722   0.394   6.228   6.800 -0.6245  0.3654  0.2898
27585SOL    HW191723   0.444   6.147   6.808 -0.1184  0.6477  0.0533
27585SOL    HW291724   0.460   6.295   6.783 -1.0061  0.8815  0.8282
27586SOL     OW91725   9.296   8.657   6.416  0.6121 -0.3659  0.7251
27586SOL    HW191726   9.258   8.630   6.332  0.6123  0.0153  0.5988
27586SOL    HW291727   9.225   8.704   6.460  0.4262 -1.0708  1.1938
27587SOL     OW91728   4.529  10.215   6.512  0.3370 -1.2380  0.3413
27587SOL    HW191729   4.621  10.234   6.532  0.4188 -1.2686  0.0019
27587SOL    HW291730   4.526  10.120   6.500  0.9155 -0.9615 -2.7950
27588SOL     OW91731   2.391   8.808   2.955  0.1804 -0.2304 -0.0775
27588SOL    HW191732   2.475   8.843   2.924 -0.1010  0.4935 -0.0502
27588SOL    HW291733   2.402   8.713   2.953  0.5966 -0.1765 -1.2290
27589SOL     OW91734   4.881   0.559   4.311  0.4902  0.2921  0.1026
27589SOL    HW191735   4.789   0.534   4.314  0.8665 -1.1294  1.3125
27589SOL    HW291736   4.881   0.654   4.323 -0.7435  0.0485  2.6621
27590SOL     OW91737   1.195  10.431   4.728  0.0541  0.3526  0.0765
27590SOL    HW191738   1.223  10.473   4.809 -0.3713 -0.9094  0.9108
27590SOL    HW291739   1.102  10.452   4.720 -0.0492 -0.0201  0.2519
27591SOL     OW91740   5.011   5.765   6.266  0.3652  0.2822  0.3909
27591SOL    HW191741   5.031   5.684   6.312 -0.2287  0.3480  0.7835
27591SOL    HW291742   5.025   5.834   6.330 -0.2797  0.3903  0.4272
27592SOL     OW91743   9.892   9.273   5.860  0.0229 -0.2772 -0.4485
27592SOL    HW191744   9.941   9.352   5.883  0.6947 -0.5136 -1.0440
27592SOL    HW291745   9.941   9.235   5.787 -1.8029  0.2470 -2.0502
27593SOL     OW91746   6.347  12.025   3.824  0.0567 -0.7387 -0.3865
27593SOL    HW191747   6.308  12.107   3.855  0.4039 -0.5790 -0.3674
27593SOL    HW291748   6.329  11.962   3.893 -0.1344 -0.6588 -0.3617
27594SOL     OW91749  11.944  11.410   2.545 -0.1339  0.3108 -0.0182
27594SOL    HW191750  12.007  11.360   2.596 -0.3636 -0.2479 -0.2807
27594SOL    HW291751  11.992  11.434   2.465  0.0387  0.6874  0.1923
27595SOL     OW91752   8.848  10.914   3.959  0.1537  0.2087  0.4118
27595SOL    HW191753   8.796  10.971   4.016 -0.3649  2.2734 -1.9057
27595SOL    HW291754   8.900  10.975   3.906  1.6964 -1.6445 -0.3202
27596SOL     OW91755   4.645   0.275   8.863  0.6697  0.0940 -0.3622
27596SOL    HW191756   4.723   0.223   8.841 -0.3344 -0.7139 -2.2092
27596SOL    HW291757   4.657   0.358   8.817  0.8269  0.2870  0.0280
27597SOL     OW91758   4.651  12.268   5.887 -0.4416 -0.4710 -0.3079
27597SOL    HW191759   4.642  12.250   5.793  2.2685  0.5316 -0.8576
27597SOL    HW291760   4.607  12.353   5.899 -1.5222 -0.9889 -0.4543
27598SOL     OW91761   7.073   2.842   3.269  0.2175 -0.4910  0.1707
27598SOL    HW191762   7.002   2.809   3.324  0.2536  0.4299  0.7870
27598SOL    HW291763   7.145   2.860   3.329 -0.0258  1.3094 -0.0115
27599SOL     OW91764   5.079   3.358  10.190 -0.3430  0.4294  0.5764
27599SOL    HW191765   5.164   3.382  10.153 -0.0378 -1.2837  0.1149
27599SOL    HW291766   5.024   3.434  10.172  0.0903  0.1688 -2.4430
27600SOL     OW91767   7.494  10.883   9.318 -0.2050 -0.8507 -0.2672
27600SOL    HW191768   7.537  10.895   9.233 -1.9027 -0.1895 -1.0763
27600SOL    HW291769   7.524  10.797   9.348  3.4125  0.4674  0.3378
27601SOL     OW91770  10.654   6.367   7.018 -0.2271 -0.0481 -0.3117
27601SOL    HW191771  10.593   6.307   7.060 -1.5877  2.4470  1.6120
27601SOL    HW291772  10.740   6.342   7.051 -0.6314 -1.4768 -0.3079
27602SOL     OW91773   8.766   0.573  11.446  0.1632 -0.0232 -0.2533
27602SOL    HW191774   8.707   0.638  11.483  0.5876  0.6298 -0.6989
27602SOL    HW291775   8.832   0.559  11.514  1.0048  1.2551 -0.7669
27603SOL     OW91776   0.836  11.021  11.175 -0.2294 -0.1896  0.4556
27603SOL    HW191777   0.848  11.111  11.204 -1.6833 -0.5578  2.4195
27603SOL    HW291778   0.877  11.017  11.089 -1.1906  2.6730 -0.2264
27604SOL     OW91779   8.376   9.755   9.518  0.4061 -0.1827  0.3246
27604SOL    HW191780   8.349   9.836   9.562  1.4214  0.5546 -0.3329
27604SOL    HW291781   8.395   9.783   9.428 -1.9625 -1.6924 -0.7486
27605SOL     OW91782   9.097   9.414   9.431  0.0974  0.2724 -0.7264
27605SOL    HW191783   9.128   9.355   9.500 -0.4660  0.6096 -0.1790
27605SOL    HW291784   9.168   9.478   9.421 -0.2896  0.9075  0.3669
27606SOL     OW91785   3.779  10.671  12.365  0.1277  0.0241 -0.6154
27606SOL    HW191786   3.734  10.589  12.345 -0.6633 -0.2989  2.0373
27606SOL    HW291787   3.723  10.739  12.327 -2.1329 -0.4406  1.6074
27607SOL     OW91788  10.924  11.103   5.528 -0.1134 -0.8841  0.2456
27607SOL    HW191789  10.933  11.083   5.622  1.6899 -2.8080 -0.2634
27607SOL    HW291790  11.004  11.151   5.507 -0.3913 -0.6899 -0.3864
27608SOL     OW91791   3.357   4.347   2.814 -0.7996 -0.0326  0.2296
27608SOL    HW191792   3.286   4.353   2.878  0.0725  2.5302  1.0587
27608SOL    HW291793   3.431   4.391   2.856  0.9653 -1.5933 -1.0721
27609SOL     OW91794   8.150  10.099   5.672  0.5662 -0.7771  0.4156
27609SOL    HW191795   8.070  10.054   5.646 -0.3784  0.9941  0.1567
27609SOL    HW291796   8.154  10.177   5.617 -0.3749  2.0026  3.9215
27610SOL     OW91797   0.790   4.321   9.364  0.0762  0.3717 -0.3755
27610SOL    HW191798   0.699   4.307   9.390 -0.5403  2.2575 -1.3563
27610SOL    HW291799   0.784   4.367   9.280  1.9595 -0.7789 -1.2162
27611SOL     OW91800   2.002   7.428   3.819  0.1389 -0.3902 -0.3174
27611SOL    HW191801   2.065   7.403   3.887  0.5770  1.4873  0.0368
27611SOL    HW291802   2.031   7.382   3.741  1.4761 -0.2168  0.0502
27612SOL     OW91803   7.079  10.626   1.929 -0.1566 -0.6240 -0.1229
27612SOL    HW191804   7.117  10.660   1.847 -0.4254 -0.6010 -0.2370
27612SOL    HW291805   6.985  10.622   1.912 -1.2006  4.9847  2.0305
27613SOL     OW91806   1.090   6.582  12.522  0.6292 -0.3933  0.5042
27613SOL    HW191807   1.169   6.570  12.470  0.5896 -2.0341  0.7869
27613SOL    HW291808   1.041   6.501  12.512 -0.8813  0.4629  0.6117
27614SOL     OW91809   2.392   0.894   4.719  0.0636  0.0056  0.3177
27614SOL    HW191810   2.464   0.957   4.713  1.0675 -1.0429  0.8914
27614SOL    HW291811   2.433   0.809   4.707 -1.0804 -0.6316  0.7270
27615SOL     OW91812   9.283   5.896   7.028  0.1565 -0.2180 -0.1132
27615SOL    HW191813   9.297   5.948   6.949 -1.2292 -1.2020 -1.0332
27615SOL    HW291814   9.225   5.950   7.082  1.7433  0.8121  0.6415
27616SOL     OW91815   9.642  12.030   3.516  0.0931  0.2344 -0.1693
27616SOL    HW191816   9.564  11.995   3.558  0.4483  0.1107  0.3950
27616SOL    HW291817   9.715  11.996   3.568  0.5317  0.1845 -0.8095
27617SOL     OW91818   2.919   2.570   9.679 -0.1927 -0.3931 -0.3925
27617SOL    HW191819   2.879   2.488   9.648 -2.4628 -0.0033  1.2575
27617SOL    HW291820   2.987   2.542   9.740 -0.1823 -1.0554 -0.6921
27618SOL     OW91821   0.273   1.762   7.941 -0.2681  0.2095  0.7551
27618SOL    HW191822   0.189   1.734   7.978 -0.1578  0.5055  1.2389
27618SOL    HW291823   0.253   1.781   7.849 -0.9745  1.2740  1.0966
27619SOL     OW91824   9.029   9.719   1.225 -0.3102  0.0336 -0.4031
27619SOL    HW191825   9.080   9.667   1.162  1.9221  1.1976  0.3457
27619SOL    HW291826   9.028   9.665   1.305 -1.0223 -0.3455 -0.6508
27620SOL     OW91827   6.719   6.153   0.194 -0.1254 -0.3394  0.2369
27620SOL    HW191828   6.750   6.105   0.118  1.0041  1.3349 -0.4187
27620SOL    HW291829   6.793   6.153   0.254 -0.3219  0.0543  0.4813
27621SOL     OW91830   0.339   7.440   5.342 -0.2855  0.4537  0.3214
27621SOL    HW191831   0.407   7.410   5.402 -0.4885  0.0436  0.3532
27621SOL    HW291832   0.384   7.452   5.259  0.2447  2.1261  0.7957
27622SOL     OW91833   0.029   9.693  12.407 -0.5255  0.6926  0.7434
27622SOL    HW191834   0.059   9.665  12.321 -0.3044  4.0981 -0.4234
27622SOL    HW291835   0.041   9.616  12.463  1.8237 -0.8608 -1.6659
27623SOL     OW91836   2.980   2.707   0.631 -0.1414 -0.1621 -0.4258
27623SOL    HW191837   2.941   2.750   0.707 -1.9328 -0.9440 -0.8639
27623SOL    HW291838   3.070   2.740   0.629 -0.5185  1.0855  1.0931
27624SOL     OW91839   6.681   4.410  11.060  0.3848  0.4990 -0.1078
27624SOL    HW191840   6.693   4.366  11.145  1.0198 -1.9104 -1.3293
27624SOL    HW291841   6.751   4.374  11.006 -0.3754  1.5226 -1.8264
27625SOL     OW91842   5.815   9.846   6.634  0.3229  0.6305 -0.4506
27625SOL    HW191843   5.839   9.764   6.591 -0.5584 -0.1435  0.4462
27625SOL    HW291844   5.809   9.822   6.727 -0.5295  1.5707 -0.2505
27626SOL     OW91845  10.079   1.311   6.410 -0.4459 -0.0697  0.3116
27626SOL    HW191846  10.167   1.276   6.393  0.3777  1.8191  0.5069
27626SOL    HW291847  10.069   1.381   6.346 -2.4322 -1.1857 -0.6849
27627SOL     OW91848  12.587   8.881   7.318 -0.0169 -0.1169 -0.3499
27627SOL    HW191849  12.659   8.861   7.379 -1.4156 -0.7182  1.1678
27627SOL    HW291850  12.516   8.911   7.374 -0.5025  1.9551 -1.9538
27628SOL     OW91851  10.900  12.109   0.077  0.2407  0.0423  0.2664
27628SOL    HW191852  10.993  12.121   0.063  0.1427 -0.3976 -0.8606
27628SOL    HW291853  10.893  12.032   0.132  0.5769  0.7947  1.3859
27629SOL     OW91854   5.567   7.656   3.667 -0.5495  0.4209  0.0230
27629SOL    HW191855   5.638   7.650   3.602 -1.9800 -0.0586 -1.5855
27629SOL    HW291856   5.573   7.574   3.716  0.4752  0.7279  0.4395
27630SOL     OW91857   4.637  10.148   7.971  0.4981 -0.4528  0.1056
27630SOL    HW191858   4.639  10.109   8.058  1.0613 -0.8367 -0.0743
27630SOL    HW291859   4.724  10.186   7.960  0.2564  0.0556 -0.0834
27631SOL     OW91860   7.171  10.223  10.842 -0.5393  0.2791 -0.0468
27631SOL    HW191861   7.263  10.217  10.814 -0.6778 -1.4246 -0.2123
27631SOL    HW291862   7.175  10.265  10.928  0.5725 -1.3792  0.7625
27632SOL     OW91863   4.747   0.675   2.694  0.4784  0.0489  0.0240
27632SOL    HW191864   4.821   0.614   2.696 -0.4484 -1.1068 -0.1581
27632SOL    HW291865   4.687   0.641   2.761 -0.2343  0.5189 -0.3687
27633SOL     OW91866  10.489  11.629   0.160 -0.0524  0.1224 -0.2842
27633SOL    HW191867  10.468  11.722   0.169  2.4102  0.7877 -0.6760
27633SOL    HW291868  10.551  11.626   0.087  0.5882 -1.7398  0.2918
27634SOL     OW91869  12.185   0.832   3.610  0.1030 -0.3350  0.0271
27634SOL    HW191870  12.229   0.839   3.525 -0.3123  1.3218 -0.1012
27634SOL    HW291871  12.186   0.922   3.644 -0.0939 -0.9063  1.5956
27635SOL     OW91872   0.053   7.762   3.877 -0.2490  0.0401 -0.1084
27635SOL    HW191873  -0.018   7.776   3.940 -0.0150  1.2869 -0.1081
27635SOL    HW291874   0.094   7.680   3.906 -0.0145  0.6793  1.4943
27636SOL     OW91875   2.811   9.025   2.945  0.2393  0.5685  0.4569
27636SOL    HW191876   2.892   9.009   2.896 -1.0068 -1.0341 -1.2196
27636SOL    HW291877   2.802   9.120   2.947  0.4931  0.7230 -2.3136
27637SOL     OW91878   2.570  12.193   4.287 -0.0687  0.2241  0.0204
27637SOL    HW191879   2.592  12.119   4.229  0.2497  1.1061 -1.0228
27637SOL    HW291880   2.642  12.198   4.349 -0.4038 -0.7258  0.5116
27638SOL     OW91881   9.632   9.685   7.730 -0.1570 -0.6388  0.0233
27638SOL    HW191882   9.635   9.779   7.709  0.2978 -0.6557  0.0070
27638SOL    HW291883   9.723   9.662   7.750 -0.3807 -0.9132  0.7592
27639SOL     OW91884   5.559   7.569   7.668 -0.0451 -0.0729 -0.4270
27639SOL    HW191885   5.561   7.647   7.725 -3.0899 -2.2387  3.1101
27639SOL    HW291886   5.492   7.589   7.603 -1.0248  0.1725  0.6386
27640SOL     OW91887   1.125   3.681   2.929  0.2832  0.0743  0.6908
27640SOL    HW191888   1.096   3.743   2.862  0.0176  1.0256  1.6658
27640SOL    HW291889   1.050   3.670   2.987  0.2610 -1.3255  0.4395
27641SOL     OW91890  10.747   4.830   9.701  0.0889 -0.3093  0.1349
27641SOL    HW191891  10.773   4.876   9.622  0.3287  0.1332  0.4680
27641SOL    HW291892  10.653   4.848   9.711  0.7679  2.9843  2.0930
27642SOL     OW91893   0.562   7.202   4.153  0.0762 -0.2367 -0.1596
27642SOL    HW191894   0.543   7.260   4.227  3.1360  2.2199 -1.0642
27642SOL    HW291895   0.630   7.143   4.185 -0.5237 -0.9854 -0.2519
27643SOL     OW91896   0.199   2.426   5.691 -0.1213  0.3890 -0.2138
27643SOL    HW191897   0.192   2.495   5.757  2.3906  0.2749  0.2749
27643SOL    HW291898   0.147   2.354   5.726 -0.7352  1.1491  0.4869
27644SOL     OW91899  11.613   8.113   5.271 -0.7123 -0.5626  0.1668
27644SOL    HW191900  11.687   8.068   5.231  0.7366 -0.5732  2.6733
27644SOL    HW291901  11.558   8.140   5.197  2.5069  0.7728 -1.9319
27645SOL     OW91902   1.976   3.207   6.938  0.2722 -0.4731  0.1037
27645SOL    HW191903   1.917   3.160   6.998  0.2173  0.4118  0.7758
27645SOL    HW291904   2.059   3.159   6.943  0.0245 -0.8915  0.2577
27646SOL     OW91905  11.929  12.240   5.120 -0.1493  0.0076  0.3602
27646SOL    HW191906  11.937  12.274   5.209  0.7482 -0.7388  0.5874
27646SOL    HW291907  11.961  12.150   5.126 -0.9160 -0.3411 -0.5490
27647SOL     OW91908   3.960  12.230   8.443  0.1699 -0.3235 -0.1733
27647SOL    HW191909   3.876  12.275   8.449 -0.5403 -1.3867 -1.6015
27647SOL    HW291910   3.976  12.197   8.532  0.0054  1.4287  0.5552
27648SOL     OW91911  11.477  11.378   6.048 -0.1930 -0.4590 -0.3013
27648SOL    HW191912  11.382  11.373   6.052 -0.2435  0.3654 -0.3466
27648SOL    HW291913  11.501  11.442   6.115  0.0470  2.0052 -2.5613
27649SOL     OW91914   4.241   0.577   4.098 -0.2923 -0.3138 -0.0769
27649SOL    HW191915   4.267   0.582   4.190  0.1678 -1.6181 -0.1137
27649SOL    HW291916   4.200   0.491   4.090 -0.5457 -0.1095 -1.0378
27650SOL     OW91917   8.214   5.957   0.370 -0.0151 -0.7168  0.2244
27650SOL    HW191918   8.161   5.967   0.290 -0.5463 -1.3406  0.4837
27650SOL    HW291919   8.165   5.894   0.423  1.1707 -1.5916  0.3190
27651SOL     OW91920   3.166   0.524   7.883  0.6075  0.0125  0.3700
27651SOL    HW191921   3.195   0.611   7.858 -0.7241  0.8198  1.4943
27651SOL    HW291922   3.104   0.499   7.815  0.6277  0.1467  0.3021
27652SOL     OW91923  10.803   0.158   8.032  0.1545  0.2508 -0.2091
27652SOL    HW191924  10.846   0.099   8.094 -1.4706 -0.0469  0.6788
27652SOL    HW291925  10.810   0.113   7.948  0.5426 -0.3383  0.1252
27653SOL     OW91926   5.069  10.926   6.214 -0.6952  0.5398  0.0081
27653SOL    HW191927   5.058  10.878   6.132 -0.9457 -0.8829  0.8375
27653SOL    HW291928   5.046  11.016   6.193 -1.6747  0.0226 -1.2660
27654SOL     OW91929   6.706  12.081   5.851 -0.3409  0.0464  0.1659
27654SOL    HW191930   6.642  12.031   5.902 -1.1210 -0.1879 -1.0214
27654SOL    HW291931   6.662  12.163   5.831  0.7091  1.0048  1.5755
27655SOL     OW91932   8.834   2.634  11.521 -0.2370  0.3476  0.5320
27655SOL    HW191933   8.859   2.641  11.429 -1.4680 -2.1256 -0.0917
27655SOL    HW291934   8.911   2.662  11.570  0.2527  2.2381 -1.2163
27656SOL     OW91935   3.463   7.797   0.888 -0.0899 -0.1936  0.5307
27656SOL    HW191936   3.411   7.755   0.819  0.4273 -0.8807  0.5531
27656SOL    HW291937   3.436   7.889   0.885 -2.0915 -0.6966  1.2372
27657SOL     OW91938   7.422   4.516   4.245 -0.6112  0.4006  0.4996
27657SOL    HW191939   7.477   4.469   4.308  1.9420  1.8033 -0.5365
27657SOL    HW291940   7.361   4.566   4.300  0.4135  0.2847  1.7926
27658SOL     OW91941   4.631   0.132  10.490  0.5974  0.4079 -0.2218
27658SOL    HW191942   4.551   0.128  10.542  0.1154  2.0811 -0.7717
27658SOL    HW291943   4.662   0.222  10.499  1.3946  0.2959 -1.4934
27659SOL     OW91944   0.959  11.172   9.532  0.2808 -0.0379  0.2186
27659SOL    HW191945   0.934  11.174   9.625 -0.0944 -1.1391  0.1476
27659SOL    HW291946   1.052  11.148   9.534  0.0974 -0.7538  0.2842
27660SOL     OW91947   7.850   5.238   1.779  0.9393  0.1466 -0.2153
27660SOL    HW191948   7.770   5.260   1.731  0.3815 -1.1501  0.0752
27660SOL    HW291949   7.918   5.239   1.712  0.3253 -0.7285 -0.8948
27661SOL     OW91950   1.914   8.157   2.805  0.2591 -0.0486 -0.2721
27661SOL    HW191951   1.836   8.112   2.835  0.5330 -0.5670 -0.3274
27661SOL    HW291952   1.899   8.249   2.827 -0.5532 -0.0781 -0.6929
27662SOL     OW91953   6.035   2.297   0.099  0.2685 -0.6286  0.2962
27662SOL    HW191954   6.033   2.322   0.192 -0.2790  0.2035  0.0709
27662SOL    HW291955   5.946   2.315   0.068  1.0950  1.6038 -1.0093
27663SOL     OW91956  12.081   2.934   9.610 -0.2081  0.0139 -0.4555
27663SOL    HW191957  12.018   3.003   9.630 -0.4382  0.0903 -1.4162
27663SOL    HW291958  12.027   2.859   9.587  0.0356  0.2732 -1.9351
27664SOL     OW91959   8.100  12.363   6.134 -0.5100  0.2670 -0.3548
27664SOL    HW191960   8.028  12.420   6.107  0.2660  1.3992 -0.1117
27664SOL    HW291961   8.111  12.382   6.227  0.0457  0.0230 -0.3688
27665SOL     OW91962   1.984   5.602   6.592 -0.5326 -0.3961  0.0803
27665SOL    HW191963   1.960   5.635   6.678  0.0152  0.2681 -0.0144
27665SOL    HW291964   2.078   5.585   6.597 -0.7404 -1.7033  0.0396
27666SOL     OW91965   2.195   5.635  10.614  0.5478  0.1659 -0.5186
27666SOL    HW191966   2.171   5.722  10.644  0.7332 -0.1176  0.4939
27666SOL    HW291967   2.113   5.596  10.586  0.1467 -0.0044  0.8315
27667SOL     OW91968   1.863   0.008   6.983 -0.5460  0.0763 -0.3657
27667SOL    HW191969   1.846   0.015   7.077  1.0480 -1.9727  0.1539
27667SOL    HW291970   1.792  -0.048   6.950  0.7356 -2.0889  0.3416
27668SOL     OW91971   8.863   4.963  11.183  0.6925 -0.0388 -0.0180
27668SOL    HW191972   8.851   5.038  11.242 -0.0698 -1.4122  1.6930
27668SOL    HW291973   8.921   4.995  11.114 -0.6287  2.4891 -0.0777
27669SOL     OW91974   7.154  10.399   2.699 -0.2337  0.8590  0.5591
27669SOL    HW191975   7.161  10.454   2.777 -0.2809  1.2884  0.2652
27669SOL    HW291976   7.077  10.434   2.652  0.8964  1.8510 -0.6358
27670SOL     OW91977   9.200   3.228   2.310 -0.1459 -0.2033  0.0214
27670SOL    HW191978   9.202   3.294   2.379  1.2213 -0.7827  0.5734
27670SOL    HW291979   9.201   3.145   2.357 -1.8922 -0.6535 -0.6594
27671SOL     OW91980   4.797   3.330   4.339  0.3728  0.3216  0.2350
27671SOL    HW191981   4.729   3.265   4.356  1.2968 -0.0785  2.9730
27671SOL    HW291982   4.856   3.288   4.277 -0.7845 -0.0837 -0.6393
27672SOL     OW91983   1.203  11.349   2.662  0.3010  0.2692  0.1330
27672SOL    HW191984   1.145  11.368   2.589 -1.3996  0.0905  1.3710
27672SOL    HW291985   1.173  11.406   2.732  0.4546 -1.0779  1.3488
27673SOL     OW91986  10.714   8.543  12.163 -0.3023  0.3649 -0.0803
27673SOL    HW191987  10.799   8.524  12.123 -1.0577 -1.4996 -0.9071
27673SOL    HW291988  10.679   8.615  12.109 -0.9381 -1.5358 -2.3761
27674SOL     OW91989  10.948   4.006  11.099  0.1359  0.0709  0.1723
27674SOL    HW191990  10.970   4.048  11.182 -0.6708  0.7548  0.0581
27674SOL    HW291991  10.981   3.917  11.108  0.8691  0.3973  0.8683
27675SOL     OW91992   3.739   9.091   0.563  0.7188 -0.2081 -0.5881
27675SOL    HW191993   3.759   9.029   0.493  0.2084 -0.1653 -0.7753
27675SOL    HW291994   3.788   9.059   0.639 -0.1981 -1.3437 -0.4385
27676SOL     OW91995  10.589   2.991  10.934  0.1174  0.4890 -0.3173
27676SOL    HW191996  10.555   2.924  10.874 -0.1622  0.9669 -0.7007
27676SOL    HW291997  10.592   3.071  10.882  4.8055 -0.0453 -1.3090
27677SOL     OW91998   3.370   0.098   8.763 -0.2960 -0.4912  0.1771
27677SOL    HW191999   3.316   0.020   8.751  0.1421 -0.7295 -0.2577
27677SOL    HW292000   3.425   0.101   8.685 -0.8690  0.6895 -0.2070
27678SOL     OW92001   8.784   5.848   6.891 -0.2549 -0.1655  0.1265
27678SOL    HW192002   8.784   5.871   6.984 -0.0052 -1.3805  0.4575
27678SOL    HW292003   8.810   5.756   6.890  1.6084  0.3125 -1.2673
27679SOL     OW92004   6.394   4.179   0.656  0.0631 -0.3252 -0.3417
27679SOL    HW192005   6.368   4.112   0.592 -1.6292 -0.9199  0.8742
27679SOL    HW292006   6.380   4.136   0.741 -3.1911  2.1673  0.5883
27680SOL     OW92007  10.840   7.738   2.780 -0.6782  0.1284  0.4369
27680SOL    HW192008  10.839   7.727   2.875  0.6519  1.1555  0.5983
27680SOL    HW292009  10.815   7.829   2.766  0.0691  0.2582 -0.1276
27681SOL     OW92010   8.487   2.008   6.805  0.1906 -0.0263 -0.1522
27681SOL    HW192011   8.442   2.090   6.824 -0.2667  0.1790 -1.9108
27681SOL    HW292012   8.560   2.033   6.748  0.5430 -0.7556 -0.0426
27682SOL     OW92013   0.249   7.665   1.262 -0.1605 -0.6336 -0.3410
27682SOL    HW192014   0.327   7.642   1.210  0.2539  0.5335 -0.2667
27682SOL    HW292015   0.190   7.706   1.198 -0.8980 -1.8321 -0.4747
27683SOL     OW92016   9.471   8.291   3.547 -0.0275 -0.4695 -0.4466
27683SOL    HW192017   9.473   8.275   3.453 -1.7342  0.3889 -0.6699
27683SOL    HW292018   9.407   8.361   3.558  0.2575 -0.4433  1.3522
27684SOL     OW92019   0.107   0.482  11.849 -0.6414 -0.1146  0.5481
27684SOL    HW192020   0.200   0.502  11.850 -0.7360  0.3465  0.3294
27684SOL    HW292021   0.091   0.439  11.933 -0.0354 -1.1623  0.1602
27685SOL     OW92022   0.132   8.095   9.551  0.4532 -0.1303 -0.0034
27685SOL    HW192023   0.153   8.133   9.465 -2.7807 -0.8898 -1.2676
27685SOL    HW292024   0.067   8.154   9.588  2.1330  0.4394  2.2583
27686SOL     OW92025  11.079  11.363   6.908  0.0075  0.3099 -0.0647
27686SOL    HW192026  11.163  11.408   6.916 -0.0485  0.2445  1.0786
27686SOL    HW292027  11.054  11.373   6.816  1.0933  0.6332 -0.3308
27687SOL     OW92028   7.448   8.260  12.160 -0.1880 -0.0149  0.5660
27687SOL    HW192029   7.395   8.180  12.158  0.2246 -0.3063  1.0110
27687SOL    HW292030   7.507   8.248  12.234  0.1800  0.5163  0.3686
27688SOL     OW92031   5.879   5.955   8.033 -0.0370 -0.2917 -0.5704
27688SOL    HW192032   5.943   5.925   8.097 -0.7563 -0.1883  0.2022
27688SOL    HW292033   5.917   5.929   7.948  0.3689 -1.4656 -0.0538
27689SOL     OW92034   6.053   3.311   8.131 -0.0960  0.4068 -0.4665
27689SOL    HW192035   6.023   3.221   8.115  3.0065 -0.4271 -2.4095
27689SOL    HW292036   6.106   3.304   8.211  0.6444  0.3566 -0.9557
27690SOL     OW92037   6.423   1.236   0.819  0.2433  0.6254  0.2661
27690SOL    HW192038   6.368   1.172   0.863 -0.6766  1.4189  0.3105
27690SOL    HW292039   6.362   1.291   0.770  0.4702  3.7341  3.0498
27691SOL     OW92040   5.439   1.730   1.312  0.0112 -0.1329  0.5916
27691SOL    HW192041   5.454   1.824   1.300 -1.3773  0.0043 -0.2007
27691SOL    HW292042   5.468   1.713   1.402 -0.5284  1.2327  1.0519
27692SOL     OW92043   7.670   1.282   8.413 -0.4955  0.3311  0.1008
27692SOL    HW192044   7.634   1.367   8.437 -0.8408 -0.0226  0.8819
27692SOL    HW292045   7.594   1.232   8.383 -0.0928  0.7243 -1.7076
27693SOL     OW92046   0.045   2.416   1.020  0.3415  0.3950 -0.0206
27693SOL    HW192047   0.120   2.382   0.971 -0.7059 -0.9923 -0.7248
27693SOL    HW292048  -0.007   2.464   0.955  1.1281  2.3086  0.6932
27694SOL     OW92049   7.404   4.262   9.899 -0.5231  0.1562 -0.1327
27694SOL    HW192050   7.434   4.193   9.840 -0.5703  0.6866 -0.7850
27694SOL    HW292051   7.474   4.327   9.897 -1.1423  0.8232 -0.7023
27695SOL     OW92052   3.984  10.557   6.215 -0.1503  0.1862 -0.1441
27695SOL    HW192053   3.913  10.550   6.279  0.4528 -0.6852  0.4449
27695SOL    HW292054   4.017  10.647   6.226 -0.2784  0.1558  0.5373
27696SOL     OW92055   2.138   9.863   4.256 -0.5453 -0.2246  0.4993
27696SOL    HW192056   2.074   9.934   4.249 -0.9003 -0.6628 -1.3132
27696SOL    HW292057   2.160   9.859   4.349 -2.0061  0.9416  0.9306
27697SOL     OW92058   4.279   6.082   0.582  0.1141  0.2531  0.0685
27697SOL    HW192059   4.311   6.016   0.520  2.5595 -0.4832  1.9277
27697SOL    HW292060   4.272   6.035   0.665 -1.6707  1.5346  0.7058
27698SOL     OW92061   8.403   7.318   5.209  0.2067 -0.2575  0.0695
27698SOL    HW192062   8.432   7.409   5.202  0.7282 -0.5035 -1.2015
27698SOL    HW292063   8.481   7.266   5.188 -0.1428 -1.0035  0.5687
27699SOL     OW92064   1.928   4.404   5.555  0.1774 -0.3738 -0.1096
27699SOL    HW192065   1.972   4.350   5.621 -0.4130 -0.4938  0.1963
27699SOL    HW292066   1.997   4.458   5.518  0.2323  1.1723  2.0418
27700SOL     OW92067   6.242  10.032  10.522 -0.1835 -0.2751 -0.1377
27700SOL    HW192068   6.234  10.110  10.577  0.6071 -0.4936  0.3016
27700SOL    HW292069   6.156   9.990  10.528 -1.2800  1.5328 -1.9287
27701SOL     OW92070   8.474   7.724   8.039 -0.1101  0.2871 -0.1419
27701SOL    HW192071   8.496   7.783   7.967 -0.1863  2.0763  1.2349
27701SOL    HW292072   8.461   7.781   8.114 -0.2903 -1.4928  1.2574
27702SOL     OW92073   5.897  11.349   7.508  0.2628 -0.0165 -0.2602
27702SOL    HW192074   5.846  11.289   7.454  1.8520 -1.2775 -0.4494
27702SOL    HW292075   5.930  11.414   7.447 -1.4015  1.0635 -0.0682
27703SOL     OW92076   5.493   8.933   2.578  0.0024 -0.3122  0.0751
27703SOL    HW192077   5.568   8.993   2.579  0.1976 -0.5305  1.6064
27703SOL    HW292078   5.522   8.859   2.525 -0.2408  0.8965 -1.8561
27704SOL     OW92079   3.481   5.141   0.792  0.0378  0.0694  0.3874
27704SOL    HW192080   3.561   5.139   0.740  0.0453 -2.9461  0.3619
27704SOL    HW292081   3.416   5.096   0.738 -1.3465  1.2511  0.9899
27705SOL     OW92082   9.278   7.250   2.918 -0.3390 -0.0134  0.0354
27705SOL    HW192083   9.250   7.168   2.958  1.8425 -0.6722  0.3573
27705SOL    HW292084   9.204   7.276   2.863 -1.0839 -2.2213 -0.1244
27706SOL     OW92085   9.284   4.478   7.902  0.3004 -0.0719 -0.4378
27706SOL    HW192086   9.256   4.562   7.939 -1.4343 -0.7205 -0.1975
27706SOL    HW292087   9.322   4.501   7.817  2.1384  1.1779  0.6483
27707SOL     OW92088   2.434  10.993   5.746 -0.0222  0.0552  0.4327
27707SOL    HW192089   2.487  10.936   5.690  1.6832  1.9852 -0.0408
27707SOL    HW292090   2.346  10.988   5.709  0.5542 -0.6373 -0.8942
27708SOL     OW92091   8.014   7.111   7.022  0.1686  0.0106 -0.1323
27708SOL    HW192092   7.927   7.091   6.988  0.5924 -0.7654 -0.7841
27708SOL    HW292093   7.999   7.138   7.113 -1.2074  3.7902 -1.2586
27709SOL     OW92094  12.552   6.225  10.493 -0.0659  0.2735  0.0935
27709SOL    HW192095  12.494   6.165  10.540 -2.4837  0.6883 -2.1480
27709SOL    HW292096  12.549   6.306  10.545 -0.5547 -0.0846  0.6353
27710SOL     OW92097   5.623  10.716  12.367 -0.3975  0.0054  0.2653
27710SOL    HW192098   5.669  10.685  12.445  2.1299  1.9763 -0.3057
27710SOL    HW292099   5.611  10.809  12.381 -2.4637 -0.0794 -0.5598
27711SOL     OW92100  11.732   3.596   9.816 -0.1983 -0.1609 -0.1576
27711SOL    HW192101  11.747   3.679   9.862  0.9773 -0.3993 -0.0848
27711SOL    HW292102  11.682   3.543   9.878  0.1252  0.0418  0.2817
27712SOL     OW92103  11.747  11.332   4.622  0.2965 -0.0897 -0.0273
27712SOL    HW192104  11.679  11.269   4.645  0.0411 -0.5372 -1.8607
27712SOL    HW292105  11.722  11.364   4.536  2.4618 -0.3594 -0.8226
27713SOL     OW92106   2.523   0.168   7.852 -0.5864  0.5951  0.4889
27713SOL    HW192107   2.596   0.227   7.871  0.4783 -0.9678  1.4096
27713SOL    HW292108   2.459   0.187   7.921 -0.3167  0.7986  0.6869
27714SOL     OW92109   3.772  12.527   5.499 -0.4204  0.6954  0.1341
27714SOL    HW192110   3.761  12.466   5.427  0.1004  1.0817 -0.2778
27714SOL    HW292111   3.753  12.613   5.461 -1.2249  0.7885  0.7263
27715SOL     OW92112   1.642   0.122   1.417 -0.1713  0.5094  0.2288
27715SOL    HW192113   1.734   0.120   1.390  0.0573  0.4130  0.9923
27715SOL    HW292114   1.617   0.030   1.421 -0.6988  0.5615 -1.2534
27716SOL     OW92115   0.812   3.509   7.532 -0.0213 -0.2225 -0.3402
27716SOL    HW192116   0.791   3.439   7.470  0.8517 -0.8663  0.0732
27716SOL    HW292117   0.907   3.523   7.522  0.2700 -0.7731  1.2632
27717SOL     OW92118   4.395   9.666   5.570  0.4817  0.1663  0.4137
27717SOL    HW192119   4.453   9.604   5.525  0.9553  0.0362  1.1827
27717SOL    HW292120   4.454   9.735   5.602  0.1347  0.3384  0.6926
27718SOL     OW92121   3.642   0.152   9.737 -0.6918 -0.3606  0.0450
27718SOL    HW192122   3.679   0.127   9.822  0.3116 -0.5244 -0.4269
27718SOL    HW292123   3.561   0.101   9.730  0.2891 -1.9801 -0.0055
27719SOL     OW92124   2.885   7.123  12.124 -0.2955 -0.1479 -0.0756
27719SOL    HW192125   2.836   7.150  12.201 -2.3184 -1.3023 -0.8895
27719SOL    HW292126   2.974   7.107  12.156 -0.1954  2.6020  1.3240
27720SOL     OW92127   0.590   5.494  12.583  0.4736 -0.1580 -0.1113
27720SOL    HW192128   0.672   5.450  12.604  0.0609 -1.3450 -0.8703
27720SOL    HW292129   0.589   5.498  12.487  0.0619  0.6771 -0.0821
27721SOL     OW92130   8.153   9.441   9.670 -0.0717 -0.2065  0.0385
27721SOL    HW192131   8.224   9.381   9.650 -0.3623 -0.2754 -0.8454
27721SOL    HW292132   8.147   9.498   9.593 -0.5535  0.2078  0.3704
27722SOL     OW92133   5.771   4.499   2.038 -0.2614  0.1059 -0.5040
27722SOL    HW192134   5.748   4.496   1.945  1.3822 -0.9480 -0.9282
27722SOL    HW292135   5.865   4.516   2.038 -0.1075 -0.6195  0.9443
27723SOL     OW92136  10.090   1.028  11.434  0.2154  0.0387  0.2307
27723SOL    HW192137  10.179   1.017  11.467  0.5703 -0.6576 -0.9147
27723SOL    HW292138  10.034   0.989  11.502  0.7265  0.8873  1.1746
27724SOL     OW92139   6.870  11.202   3.290  0.0993  0.4910 -0.0584
27724SOL    HW192140   6.945  11.219   3.233  0.2065  0.7686  0.1623
27724SOL    HW292141   6.900  11.227   3.377  0.2526 -0.8059  0.2793
27725SOL     OW92142   1.490   7.755   4.494 -0.0471  0.3607  0.1965
27725SOL    HW192143   1.475   7.673   4.541  1.7174  1.0172  2.0349
27725SOL    HW292144   1.424   7.755   4.425 -2.2335 -1.0673  2.1210
27726SOL     OW92145   8.240   4.668  11.386 -0.3250 -0.4329 -0.1435
27726SOL    HW192146   8.290   4.608  11.441 -0.0928 -0.4523 -0.3778
27726SOL    HW292147   8.296   4.744  11.375 -0.4191 -0.3792 -0.2580
27727SOL     OW92148   5.315  12.292   4.877 -0.3186 -0.6685 -0.8080
27727SOL    HW192149   5.267  12.340   4.808  2.0582  2.1973 -0.6741
27727SOL    HW292150   5.276  12.323   4.959  0.6927  0.5126 -0.7474
27728SOL     OW92151   0.660   3.692  12.500  0.1378 -0.0509  0.0801
27728SOL    HW192152   0.725   3.624  12.482 -1.0821 -0.6877 -2.3198
27728SOL    HW292153   0.576   3.649  12.486 -0.7245  1.5625  0.0549
27729SOL     OW92154   5.419   9.700   5.420 -0.2676  0.1423  0.5694
27729SOL    HW192155   5.430   9.641   5.345  0.3598  0.2660  0.5599
27729SOL    HW292156   5.324   9.714   5.425 -0.4011 -0.6209  0.3826
27730SOL     OW92157   9.160   0.864   0.736  0.5559  0.1964 -0.0102
27730SOL    HW192158   9.145   0.948   0.779 -0.1959  0.3084 -0.4717
27730SOL    HW292159   9.127   0.877   0.647  2.6654  0.1900 -0.8482
27731SOL     OW92160   8.493   1.337   2.555  0.3920  0.2263  0.2238
27731SOL    HW192161   8.558   1.408   2.559 -0.4716  0.9940  1.0853
27731SOL    HW292162   8.502   1.301   2.467  1.5360  0.7431  0.1115
27732SOL     OW92163  10.497   1.988  10.562  0.2267  0.1666  0.2048
27732SOL    HW192164  10.428   1.948  10.510  0.6164 -1.3202  0.8029
27732SOL    HW292165  10.508   1.931  10.637  1.9659  0.4804  0.2320
27733SOL     OW92166   7.412   0.622   6.815  0.2188 -0.2580  0.2415
27733SOL    HW192167   7.413   0.715   6.840  2.2024 -0.1381 -0.1232
27733SOL    HW292168   7.322   0.594   6.832 -0.7424  2.0032 -0.6429
27734SOL     OW92169  11.759   9.955   9.362 -0.0404 -0.2914 -0.4426
27734SOL    HW192170  11.814   9.878   9.346 -1.2509 -1.6734  1.6570
27734SOL    HW292171  11.676   9.934   9.320 -0.8724 -0.8605  1.3928
27735SOL     OW92172  11.271  11.199   8.900  0.0632 -0.0314 -0.6154
27735SOL    HW192173  11.213  11.197   8.976  1.5076 -1.1530  0.4947
27735SOL    HW292174  11.358  11.215   8.936  0.6819  0.1493 -2.1118
27736SOL     OW92175   7.442  12.347   7.477  0.1305 -0.1254  0.5504
27736SOL    HW192176   7.427  12.438   7.503 -1.7689 -0.0788 -0.4962
27736SOL    HW292177   7.371  12.298   7.519  1.0044 -1.0913  0.9218
27737SOL     OW92178   9.541   8.900   0.725  0.1690  0.3559 -0.2572
27737SOL    HW192179   9.553   8.873   0.634 -0.3725  0.2547 -0.2986
27737SOL    HW292180   9.596   8.840   0.775  0.7666  0.6512 -0.5456
27738SOL     OW92181   3.839   8.549   3.093  0.2428  0.0503 -0.1198
27738SOL    HW192182   3.821   8.605   3.018  1.2404  1.1780  0.4536
27738SOL    HW292183   3.805   8.463   3.067 -1.0387  0.8238 -1.1379
27739SOL     OW92184   6.008   4.031   4.000  0.1578 -0.3028  0.5507
27739SOL    HW192185   5.955   4.105   3.971  0.6434  0.5396  1.7598
27739SOL    HW292186   5.980   4.015   4.090  1.2809 -0.4728  0.8818
27740SOL     OW92187   3.530  10.564   2.635 -0.1550 -0.3216  1.2369
27740SOL    HW192188   3.473  10.493   2.604  0.1062 -0.9933  2.2352
27740SOL    HW292189   3.470  10.637   2.652 -0.2586  0.2201 -1.1451
27741SOL     OW92190  11.128   6.470   7.079  0.1581 -0.0803 -0.1588
27741SOL    HW192191  11.044   6.514   7.063  1.6843  2.8146 -0.8796
27741SOL    HW292192  11.135   6.466   7.174  0.0849  1.6357 -0.0445
27742SOL     OW92193   3.814   1.894   9.699  0.0275  0.2912  0.0450
27742SOL    HW192194   3.810   1.828   9.768 -2.3388  0.0098 -0.2745
27742SOL    HW292195   3.750   1.864   9.634 -0.8817  2.6996 -0.2671
27743SOL     OW92196   1.720   2.328   7.076 -0.1578  0.1441 -0.4320
27743SOL    HW192197   1.650   2.326   7.140 -0.0552  1.3122 -0.2665
27743SOL    HW292198   1.748   2.236   7.068 -0.9604 -0.1745  0.2959
27744SOL     OW92199   9.376  11.730   6.281 -0.1564  0.2538  0.8475
27744SOL    HW192200   9.354  11.784   6.357 -2.5623  0.2334  0.2510
27744SOL    HW292201   9.449  11.775   6.240 -0.9202  2.0933  1.3806
27745SOL     OW92202   9.556  11.424   3.744 -0.3024 -0.1230  0.0095
27745SOL    HW192203   9.568  11.329   3.746  0.0320 -0.0827  0.8782
27745SOL    HW292204   9.628  11.456   3.689  0.4332 -0.2860  0.8440
27746SOL     OW92205  10.000   8.269   2.872  0.0038 -0.2256 -0.5837
27746SOL    HW192206   9.988   8.355   2.833  0.8966 -0.4570 -1.4234
27746SOL    HW292207   9.989   8.208   2.799 -0.6200 -0.8292  0.0006
27747SOL     OW92208   5.844   7.051  11.801 -0.4127  0.1132  0.1929
27747SOL    HW192209   5.809   6.977  11.752 -0.1616 -0.0116  0.1993
27747SOL    HW292210   5.883   7.108  11.734 -3.5477  1.9742 -0.2828
27748SOL     OW92211   2.270  12.135   2.564  0.3042  0.0486  0.3975
27748SOL    HW192212   2.340  12.145   2.500  0.6988  0.7480  0.9187
27748SOL    HW292213   2.254  12.224   2.596 -1.5824  0.0855 -0.4894
27749SOL     OW92214   5.338   9.592  11.926 -0.2970 -0.0770 -0.0005
27749SOL    HW192215   5.372   9.645  11.997 -0.1116 -1.2896  0.8592
27749SOL    HW292216   5.326   9.652  11.853 -0.8339  1.2764  1.1639
27750SOL     OW92217   5.760   6.409   0.890 -0.3940  0.3958 -0.1554
27750SOL    HW192218   5.737   6.424   0.982 -1.8968  0.9306 -0.5830
27750SOL    HW292219   5.855   6.399   0.890  0.0388  3.4373  1.0778
27751SOL     OW92220   3.342   9.556   7.313 -0.1526  0.6211  0.3143
27751SOL    HW192221   3.353   9.493   7.384 -1.2942 -1.8717 -1.5415
27751SOL    HW292222   3.430   9.566   7.276 -0.1571 -1.1431 -0.2771
27752SOL     OW92223   0.756   9.250  11.839  0.3963 -0.3011 -0.2699
27752SOL    HW192224   0.813   9.179  11.867 -0.9299 -1.1287  0.4670
27752SOL    HW292225   0.753   9.310  11.914  0.1397 -0.3784 -0.2144
27753SOL     OW92226   8.947   7.297   2.536 -0.1682 -0.3035 -0.3802
27753SOL    HW192227   8.917   7.352   2.464 -1.9197 -0.4831  0.1639
27753SOL    HW292228   9.026   7.255   2.503  1.1407  2.3194 -0.8997
27754SOL     OW92229   2.755   5.231  11.533 -0.1583 -0.1469 -0.7026
27754SOL    HW192230   2.847   5.250  11.517 -0.2862  1.3753  0.1470
27754SOL    HW292231   2.707   5.290  11.475 -0.5724  1.3150  1.0108
27755SOL     OW92232   3.277  12.076   1.799 -0.2791  0.3290  0.4357
27755SOL    HW192233   3.207  12.081   1.734 -0.2808  0.4926  0.4500
27755SOL    HW292234   3.292  12.167   1.825  1.7166  0.5998 -1.4410
27756SOL     OW92235   7.517   9.653  11.742 -0.3159  0.4109  0.0429
27756SOL    HW192236   7.605   9.638  11.709 -0.3990  0.1609 -0.0692
27756SOL    HW292237   7.474   9.567  11.736 -0.6232  0.5690 -0.0782
27757SOL     OW92238   8.894   4.704   2.207  0.4423 -0.0896  0.3401
27757SOL    HW192239   8.878   4.796   2.185 -1.6394 -0.2310  1.0487
27757SOL    HW292240   8.922   4.665   2.125  2.2633  1.3372  0.2272
27758SOL     OW92241   6.612   0.907   9.373  0.2415 -1.2270  0.1707
27758SOL    HW192242   6.545   0.906   9.305 -1.1903  0.0102  1.4694
27758SOL    HW292243   6.612   0.818   9.408  1.0748 -1.8982 -1.4892
27759SOL     OW92244   1.261   9.629   6.513  0.0824 -0.1231 -0.4868
27759SOL    HW192245   1.281   9.711   6.559  0.3737 -0.5067  0.0895
27759SOL    HW292246   1.234   9.656   6.426  0.1051  0.5932 -0.2780
27760SOL     OW92247   1.789   1.411  11.641  0.1363 -0.7238  0.0425
27760SOL    HW192248   1.709   1.463  11.646 -0.5654 -1.5455 -1.6794
27760SOL    HW292249   1.767   1.330  11.687  0.2553 -0.6435  0.2429
27761SOL     OW92250  12.551   7.038   4.871 -0.0515  0.3873 -0.1107
27761SOL    HW192251  12.574   7.081   4.789 -1.7797  1.3063 -0.1643
27761SOL    HW292252  12.517   6.953   4.845  1.1184 -0.0777 -0.1833
27762SOL     OW92253   4.137   3.131   0.212  0.1034  0.2131  0.0800
27762SOL    HW192254   4.079   3.158   0.141 -0.4644  0.3813  0.6002
27762SOL    HW292255   4.162   3.213   0.254 -2.5100 -0.0324  2.3639
27763SOL     OW92256   2.481   5.109  10.607  0.4255  0.2745  0.2552
27763SOL    HW192257   2.428   5.176  10.564  3.0064  1.6411 -0.9861
27763SOL    HW292258   2.570   5.145  10.608  1.4294 -2.0125  1.9868
27764SOL     OW92259  12.390   5.974   6.669 -0.0146  0.2356  0.7594
27764SOL    HW192260  12.318   6.036   6.681  0.8135  1.4344 -0.2178
27764SOL    HW292261  12.468   6.029   6.663  1.0552 -1.0602  2.2113
27765SOL     OW92262   0.932   6.785   4.300 -0.2488  0.3445 -0.2423
27765SOL    HW192263   0.860   6.728   4.273 -0.0817 -1.0885  2.0329
27765SOL    HW292264   0.988   6.729   4.354  2.7286  1.3784 -2.0400
27766SOL     OW92265   8.410   1.748   5.019 -0.0338 -0.3015 -0.5073
27766SOL    HW192266   8.451   1.690   4.955  0.8418  0.0294 -0.2663
27766SOL    HW292267   8.482   1.778   5.074 -0.7150 -0.3035  0.4235
27767SOL     OW92268   9.974   6.917  10.103  0.5976  0.4453  0.2875
27767SOL    HW192269  10.036   6.844  10.095 -0.2443 -0.3924  1.1477
27767SOL    HW292270   9.945   6.914  10.195 -3.4067 -1.4825 -0.8196
27768SOL     OW92271   1.959   4.736   2.763 -0.1808 -0.4553  0.6593
27768SOL    HW192272   1.866   4.754   2.778  0.1071  1.3475  0.5350
27768SOL    HW292273   1.960   4.682   2.684 -1.0819  0.5854 -0.1012
27769SOL     OW92274   3.664   8.349   9.799 -0.1045 -0.7517  0.0104
27769SOL    HW192275   3.700   8.276   9.747  1.4878 -1.4939  2.0442
27769SOL    HW292276   3.587   8.311   9.843  1.0314 -1.4409  1.4901
27770SOL     OW92277   1.691   1.586   3.549  0.3262  0.3756  0.2917
27770SOL    HW192278   1.597   1.574   3.565 -0.0688  0.7290 -1.5564
27770SOL    HW292279   1.700   1.678   3.527  1.1925  0.4251  0.7858
27771SOL     OW92280   4.378   0.715   3.880  0.0419  0.1607  0.0312
27771SOL    HW192281   4.342   0.680   3.962 -2.0836  0.7932 -0.5854
27771SOL    HW292282   4.417   0.639   3.837 -0.4818 -0.5488  0.7761
27772SOL     OW92283   3.655   8.763   7.286 -0.5937  0.2752 -0.5887
27772SOL    HW192284   3.720   8.692   7.283 -0.8666  0.0219 -0.5765
27772SOL    HW292285   3.670   8.805   7.371 -0.6042  0.0676 -0.4823
27773SOL     OW92286   7.356   9.113  10.913 -0.3662 -0.9245  0.1308
27773SOL    HW192287   7.269   9.146  10.932 -0.0586  0.3332 -0.5091
27773SOL    HW292288   7.396   9.181  10.857  2.1649  0.1441  2.9597
27774SOL     OW92289   3.984  11.564   0.078  0.3302  0.0238  0.4142
27774SOL    HW192290   3.989  11.470   0.098 -2.1048 -0.3403 -0.3817
27774SOL    HW292291   3.896  11.576   0.042  1.1358  2.3495 -0.9738
27775SOL     OW92292   7.039  10.499  11.776 -0.0948 -0.1839 -0.9923
27775SOL    HW192293   7.085  10.424  11.811 -0.3274  0.3247  0.4546
27775SOL    HW292294   6.947  10.485  11.801 -0.1780  0.4651 -0.9185
27776SOL     OW92295   5.166   7.023   1.017  0.0502  0.6520  0.3945
27776SOL    HW192296   5.120   7.005   1.099  0.8218  2.2679  1.2286
27776SOL    HW292297   5.100   7.009   0.949 -1.7136  2.7047  1.5471
27777SOL     OW92298   2.012   9.481   4.139  0.2001  0.6673  0.3690
27777SOL    HW192299   1.991   9.544   4.208  1.2318  0.9521  0.4400
27777SOL    HW292300   1.975   9.399   4.169  1.6090  0.5288  1.8181
27778SOL     OW92301   0.373   4.055   8.731  0.1548  0.6457  0.1460
27778SOL    HW192302   0.432   4.125   8.759 -1.5776  1.6014  1.5772
27778SOL    HW292303   0.299   4.101   8.691 -0.3018 -0.4582 -0.3142
27779SOL     OW92304   0.086   1.808   4.575 -0.1462 -0.5042 -0.5583
27779SOL    HW192305   0.109   1.900   4.584 -3.2675  0.2456  1.0359
27779SOL    HW292306   0.105   1.787   4.483  0.1993  1.8426 -1.0792
27780SOL     OW92307   9.728  11.169   3.325 -0.4103 -0.0744  0.0823
27780SOL    HW192308   9.804  11.162   3.383 -0.4472  1.8089  0.4085
27780SOL    HW292309   9.732  11.090   3.271 -0.1014 -1.6467  2.2902
27781SOL     OW92310   4.039   4.287   8.844  0.9185  0.1067  0.1389
27781SOL    HW192311   4.039   4.228   8.920  0.7577 -0.7901 -0.5369
27781SOL    HW292312   4.114   4.345   8.859  0.5838  0.2974  1.2338
27782SOL     OW92313   3.266  11.019   9.022 -0.0607  0.0982 -0.7511
27782SOL    HW192314   3.214  11.082   8.972 -0.1220  0.4493 -0.2485
27782SOL    HW292315   3.357  11.044   9.004 -0.0606 -0.3405 -1.4029
27783SOL     OW92316   6.657   3.166   6.516 -0.5723 -0.2216  0.3210
27783SOL    HW192317   6.585   3.116   6.477  0.2848  1.3075 -3.7034
27783SOL    HW292318   6.730   3.155   6.456  0.2838  4.0862  0.2372
27784SOL     OW92319  12.269   3.872   3.396 -0.3694 -0.3605 -0.0515
27784SOL    HW192320  12.304   3.925   3.325 -0.1748 -0.8529 -0.3267
27784SOL    HW292321  12.215   3.806   3.353 -0.2391 -0.6690  0.2538
27785SOL     OW92322   0.134   2.707   9.353  0.0823 -0.2334 -0.2101
27785SOL    HW192323   0.192   2.667   9.288  1.0972  1.8762 -0.6758
27785SOL    HW292324   0.126   2.798   9.325 -0.3186  0.4738  2.0482
27786SOL     OW92325   5.268   6.439   4.044 -0.5147  0.0133  0.1162
27786SOL    HW192326   5.351   6.447   4.092  1.0967  0.0843 -2.5025
27786SOL    HW292327   5.210   6.503   4.085  0.8324  0.2542  1.7614
27787SOL     OW92328  12.323   4.075   1.907 -0.2359 -0.3044  0.0140
27787SOL    HW192329  12.234   4.046   1.927 -0.0083 -1.5618 -0.7190
27787SOL    HW292330  12.321   4.170   1.921 -1.4500 -0.4368  0.8525
27788SOL     OW92331   5.479  12.300   4.566  0.8390 -0.2286  0.1058
27788SOL    HW192332   5.549  12.309   4.502 -0.4754  0.5858 -1.2727
27788SOL    HW292333   5.427  12.225   4.535  0.5085 -0.1835  0.5322
27789SOL     OW92334   4.743  10.966   4.872  0.2185 -0.2926  0.0175
27789SOL    HW192335   4.714  10.890   4.823  1.0722 -1.8636  1.8258
27789SOL    HW292336   4.817  11.000   4.823 -1.5840  0.9022 -2.0776
27790SOL     OW92337  12.397   9.830   4.533 -0.1148 -0.0061  0.0353
27790SOL    HW192338  12.356   9.913   4.559 -1.3530  0.4211 -2.7905
27790SOL    HW292339  12.328   9.785   4.484  1.6007 -1.0768 -1.5047
27791SOL     OW92340  11.661   5.279   5.321  0.2515 -0.0532  0.2021
27791SOL    HW192341  11.722   5.346   5.291  0.1395 -0.4451 -0.9278
27791SOL    HW292342  11.716   5.209   5.354  0.3831  0.1414  0.3987
27792SOL     OW92343  12.269   1.305   0.332  0.4769 -0.1903 -0.1395
27792SOL    HW192344  12.198   1.263   0.380 -0.4946 -0.0509 -1.4063
27792SOL    HW292345  12.322   1.231   0.300 -1.0255 -0.5226 -2.0506
27793SOL     OW92346   0.052   1.638   1.886  0.1778 -0.3909  0.4755
27793SOL    HW192347   0.035   1.726   1.853 -0.4669 -0.7887 -0.2925
27793SOL    HW292348   0.069   1.586   1.807 -1.4706 -1.3760  0.7224
27794SOL     OW92349   2.652   7.878   9.929  0.5633 -0.8530  0.7871
27794SOL    HW192350   2.561   7.848   9.935  0.3455 -0.3929 -0.1762
27794SOL    HW292351   2.690   7.827   9.857  0.9041 -0.5960  0.7820
27795SOL     OW92352   7.487  11.037   1.542  0.3618  0.5127 -0.2123
27795SOL    HW192353   7.545  10.964   1.566 -0.1961  0.0350 -0.2923
27795SOL    HW292354   7.454  11.070   1.625  0.1779  0.3057 -0.2011
27796SOL     OW92355   0.881   8.626   9.205  0.0413 -0.3094 -0.2319
27796SOL    HW192356   0.918   8.540   9.184  1.2332 -0.2617  1.4996
27796SOL    HW292357   0.864   8.623   9.299  0.2031  1.3746 -0.1189
27797SOL     OW92358   0.724   2.680  10.437  0.5556 -0.5266 -0.5022
27797SOL    HW192359   0.716   2.757  10.494  0.7048 -0.8304 -0.0675
27797SOL    HW292360   0.706   2.713  10.349  1.0891  0.1005 -0.3805
27798SOL     OW92361  12.228   5.028   4.234  0.2728 -0.4400 -0.2225
27798SOL    HW192362  12.202   4.974   4.309 -1.2519  0.3182 -0.1623
27798SOL    HW292363  12.156   5.020   4.172  0.5966  0.5255 -0.7550
27799SOL     OW92364  11.980   5.032   5.853  0.0467 -0.3538  0.0553
27799SOL    HW192365  11.947   5.120   5.871 -0.9062 -0.5437 -0.6798
27799SOL    HW292366  11.992   4.993   5.940 -0.5226  0.1496  0.3725
27800SOL     OW92367  12.358   3.122   7.275  0.0149 -0.1420 -0.6729
27800SOL    HW192368  12.273   3.098   7.313  0.8000 -0.6316  0.8654
27800SOL    HW292369  12.396   3.183   7.339  1.0337 -0.3316 -1.0776
27801SOL     OW92370   2.464   9.448   3.842 -0.4487 -0.4260 -0.3818
27801SOL    HW192371   2.537   9.432   3.902 -1.3494 -1.8453  0.3907
27801SOL    HW292372   2.393   9.478   3.898 -0.9524 -0.6308 -0.8958
27802SOL     OW92373   8.524   4.868   8.465  0.2066  0.2977  0.3465
27802SOL    HW192374   8.568   4.792   8.503  0.8499  0.1620 -0.6046
27802SOL    HW292375   8.443   4.877   8.513  0.0158 -1.1456  0.3222
27803SOL     OW92376   4.625  10.177   0.731  0.2400 -0.4795 -0.1811
27803SOL    HW192377   4.615  10.198   0.638 -1.0240 -0.1215  0.0088
27803SOL    HW292378   4.660  10.256   0.770 -1.6502  0.3189  0.0335
27804SOL     OW92379   4.408  11.593   6.977  0.3890  0.1761 -0.4129
27804SOL    HW192380   4.348  11.526   7.010 -1.1084  2.0343  0.8467
27804SOL    HW292381   4.358  11.674   6.979  2.0583  1.3611 -2.0878
27805SOL     OW92382   0.437  12.289   7.731 -0.6961  0.0686  0.3032
27805SOL    HW192383   0.470  12.203   7.755 -1.1409 -0.6567 -1.5348
27805SOL    HW292384   0.357  12.300   7.783 -0.9075 -0.8382  0.1743
27806SOL     OW92385  10.158   7.574   1.108 -0.0856  0.3924  0.5311
27806SOL    HW192386  10.151   7.623   1.190 -0.4601 -0.7933  1.2434
27806SOL    HW292387  10.216   7.500   1.130  1.0129  0.8623 -0.6888
27807SOL     OW92388   7.922   4.195   7.229  0.4287  0.0794 -0.2913
27807SOL    HW192389   7.957   4.249   7.300  2.1977  0.4106 -1.3679
27807SOL    HW292390   7.970   4.223   7.151 -0.6041 -1.1202 -1.4179
27808SOL     OW92391  10.762   4.590   1.957  0.0113  0.4762 -0.1800
27808SOL    HW192392  10.838   4.532   1.959  2.0145  2.9022  1.4755
27808SOL    HW292393  10.707   4.560   2.029  0.9583  0.5121  0.5820
27809SOL     OW92394   4.804   7.696   6.665 -0.2053  0.2020  0.3607
27809SOL    HW192395   4.873   7.629   6.666 -1.6815 -1.4103 -0.5532
27809SOL    HW292396   4.772   7.699   6.755  2.8988  3.0989  1.5677
27810SOL     OW92397   4.626  10.437  10.533 -0.1468  0.3816  0.1119
27810SOL    HW192398   4.664  10.514  10.491 -2.1544  1.1045 -0.4835
27810SOL    HW292399   4.656  10.363  10.480  0.8881  0.8386  0.0334
27811SOL     OW92400  11.234   5.716   8.925 -0.3462  0.2566 -0.7266
27811SOL    HW192401  11.287   5.654   8.976 -0.2730  0.9612  0.0807
27811SOL    HW292402  11.248   5.691   8.834  0.5777 -0.2063 -0.4715
27812SOL     OW92403   6.916   4.537   9.269 -0.0141  0.0188 -0.1079
27812SOL    HW192404   6.917   4.513   9.176 -0.8441 -0.4997  0.0091
27812SOL    HW292405   6.823   4.533   9.294  0.1354  0.6960  0.6081
27813SOL     OW92406   5.381   9.596   3.362  0.1451  0.4662  0.1198
27813SOL    HW192407   5.398   9.689   3.376  0.0068  0.3963  0.8271
27813SOL    HW292408   5.323   9.572   3.435 -0.9039  0.1312 -0.8029
27814SOL     OW92409   6.974   6.066   0.693 -0.3347 -0.1454 -0.0505
27814SOL    HW192410   6.945   6.113   0.771 -0.4431 -0.9858  0.4155
27814SOL    HW292411   7.043   6.008   0.723  0.6797  0.6075 -0.8557
27815SOL     OW92412   7.056   4.736   0.703 -0.2581 -0.4000 -0.0022
27815SOL    HW192413   7.104   4.735   0.620  0.3950  0.9087  0.3258
27815SOL    HW292414   7.003   4.816   0.698  0.4982  0.2053  1.2025
27816SOL     OW92415   6.727   7.433   2.112 -0.5816  0.6837 -0.0055
27816SOL    HW192416   6.694   7.434   2.022 -0.5609  1.9924 -0.0227
27816SOL    HW292417   6.672   7.369   2.157  0.0016 -0.6848 -1.1384
27817SOL     OW92418   7.127   7.318  11.567 -0.5106  0.2860  0.4836
27817SOL    HW192419   7.129   7.357  11.654  1.3426  2.2926 -0.3518
27817SOL    HW292420   7.062   7.370  11.519 -1.2412 -0.5605  0.5256
27818SOL     OW92421   8.608   2.861   9.414  0.4051  0.0698  0.4759
27818SOL    HW192422   8.667   2.860   9.338 -0.0417 -0.6534  0.1283
27818SOL    HW292423   8.575   2.951   9.416  0.5549  0.1444 -0.0913
27819SOL     OW92424   4.769   9.055   5.471 -0.5638  0.0686  0.1090
27819SOL    HW192425   4.810   8.978   5.511 -0.1522  0.9548  1.4504
27819SOL    HW292426   4.683   9.025   5.442 -0.5439 -0.8139  0.9290
27820SOL     OW92427   5.823  10.874   5.323  0.0477 -0.2216  0.5470
27820SOL    HW192428   5.744  10.916   5.357 -0.0803 -1.1457  1.4381
27820SOL    HW292429   5.889  10.887   5.391  0.7539  0.7596 -0.2976
27821SOL     OW92430  11.635   6.363   8.699  0.0349  0.2598  0.2888
27821SOL    HW192431  11.551   6.355   8.743 -0.2638 -1.8941 -0.5841
27821SOL    HW292432  11.692   6.299   8.743  0.7290  0.5015 -0.2310
27822SOL     OW92433   8.561  12.593   6.405 -0.3631 -0.5171  0.0614
27822SOL    HW192434   8.482  12.632   6.441 -1.9815 -3.2025 -0.2255
27822SOL    HW292435   8.532  12.506   6.375  1.8766 -0.2659 -3.4006
27823SOL     OW92436   3.469   9.066   0.641 -0.2749 -0.1415 -0.2252
27823SOL    HW192437   3.558   9.065   0.603  0.2160  0.3246  0.8717
27823SOL    HW292438   3.454   8.976   0.668  0.2205 -0.0665  0.3405
27824SOL     OW92439   7.749   9.195   2.676 -0.4389  0.0084  0.3084
27824SOL    HW192440   7.662   9.183   2.638 -0.7643  2.1402  0.2505
27824SOL    HW292441   7.804   9.221   2.603 -0.6352  2.2586  0.8954
27825SOL     OW92442   6.317   1.445   9.308 -0.2999  0.2872  0.3783
27825SOL    HW192443   6.386   1.399   9.260 -0.8074  0.3558 -0.4404
27825SOL    HW292444   6.343   1.537   9.306 -0.6699  0.3829 -0.3947
27826SOL     OW92445   0.367   6.661   5.807  0.2475 -0.5642  0.4834
27826SOL    HW192446   0.347   6.620   5.722  0.1795  0.3436  0.0535
27826SOL    HW292447   0.319   6.608   5.870 -0.6507 -0.5657 -0.1689
27827SOL     OW92448  11.456   2.820   2.431 -0.1564  0.5729 -0.2805
27827SOL    HW192449  11.540   2.781   2.454  0.0911  1.2445 -0.0166
27827SOL    HW292450  11.431   2.777   2.349  0.4243  0.3430 -0.3402
27828SOL     OW92451   8.246   5.402  10.628  0.7690  0.3902  0.0816
27828SOL    HW192452   8.253   5.389  10.723 -2.3671 -0.7385  0.2701
27828SOL    HW292453   8.192   5.480  10.618  2.4360  1.4969 -0.8877
27829SOL     OW92454   4.163   3.196  12.131  0.3083 -0.1002 -0.3715
27829SOL    HW192455   4.124   3.166  12.213  0.9438 -1.4872 -0.5555
27829SOL    HW292456   4.194   3.116  12.088  1.2571  0.7400 -1.3086
27830SOL     OW92457   4.355  11.321   3.986  0.6198 -0.2092  0.0865
27830SOL    HW192458   4.270  11.347   4.021  0.6740  1.0484 -0.6654
27830SOL    HW292459   4.364  11.229   4.012 -0.9978 -0.3993  0.1129
27831SOL     OW92460   8.491   0.444   4.518 -0.2205  0.1788 -0.0165
27831SOL    HW192461   8.407   0.456   4.563 -0.6657 -1.5766 -0.3174
27831SOL    HW292462   8.485   0.498   4.439 -0.8642  0.4569  0.2229
27832SOL     OW92463   4.357   2.035   2.380  0.0543  0.2595  0.3149
27832SOL    HW192464   4.330   2.125   2.360 -1.6113 -0.5042 -1.2030
27832SOL    HW292465   4.416   2.011   2.309 -0.7407 -0.3245 -0.1716
27833SOL     OW92466   4.741   1.271   4.318  0.0519  0.4742 -0.2707
27833SOL    HW192467   4.662   1.219   4.328 -0.6787  1.0920 -2.2857
27833SOL    HW292468   4.713   1.362   4.333  0.3997  0.6813 -0.8227
27834SOL     OW92469   8.776   8.118  11.197 -0.0578  0.2811 -0.2421
27834SOL    HW192470   8.803   8.126  11.288  0.6599 -3.0270 -0.0144
27834SOL    HW292471   8.851   8.151  11.147  0.9086 -0.8301  0.4161
27835SOL     OW92472   4.671   3.919   3.149  0.1523 -0.4395 -0.6741
27835SOL    HW192473   4.598   3.887   3.097 -1.5105 -0.5996  1.5880
27835SOL    HW292474   4.630   3.966   3.222  2.3408  0.1948  0.2395
27836SOL     OW92475   6.127  10.629  10.137  0.2341 -0.4286  0.0503
27836SOL    HW192476   6.141  10.562  10.071 -0.4747 -1.4149  0.8650
27836SOL    HW292477   6.067  10.588  10.200 -0.5181  1.0985  0.3698
27837SOL     OW92478   2.768   1.099   6.450  0.1007  0.2332 -0.2387
27837SOL    HW192479   2.817   1.116   6.531 -1.2440  0.5250  0.5574
27837SOL    HW292480   2.690   1.052   6.479 -0.5055  0.5204 -1.3480
27838SOL     OW92481  12.381  10.527   5.762  0.0254 -0.5394  0.3236
27838SOL    HW192482  12.464  10.543   5.717 -0.0427  1.3204  0.7704
27838SOL    HW292483  12.392  10.568   5.848 -1.5941  0.4241  0.1137
27839SOL     OW92484   3.511  10.553   0.937  0.0605 -0.2117  0.1351
27839SOL    HW192485   3.569  10.558   1.013 -0.4850 -1.5064  0.6607
27839SOL    HW292486   3.466  10.637   0.936  0.3731 -0.0200  0.9994
27840SOL     OW92487   9.941   5.535   6.335  0.9347  0.0756 -0.4014
27840SOL    HW192488   9.898   5.494   6.410  2.4762 -1.6015 -0.3681
27840SOL    HW292489   9.905   5.489   6.259 -0.2471  1.4307 -0.7202
27841SOL     OW92490   6.025   2.637   7.378  0.2879 -0.1324 -0.1529
27841SOL    HW192491   6.041   2.557   7.427  2.3002 -0.0450 -0.5671
27841SOL    HW292492   6.054   2.617   7.289 -0.2245  0.7178 -0.5282
27842SOL     OW92493   9.549   5.420   1.944 -0.1243  0.4034 -0.3902
27842SOL    HW192494   9.568   5.490   1.881 -1.2542  0.5118 -0.6272
27842SOL    HW292495   9.489   5.461   2.007  0.0300 -0.0592  0.0577
27843SOL     OW92496   7.982   8.885   0.902 -0.0995  0.1919  0.5034
27843SOL    HW192497   8.066   8.843   0.918  0.8944  2.2715  1.0612
27843SOL    HW292498   7.937   8.882   0.987 -0.3223 -0.3146  0.3727
27844SOL     OW92499   6.659   3.109   2.821  0.2125 -0.6696 -0.7065
27844SOL    HW192500   6.690   3.126   2.910  2.7880  2.4101 -2.0058
27844SOL    HW292501   6.720   3.044   2.786  0.8347  0.0399 -0.9780
27845SOL     OW92502   6.434   0.373  11.050  0.7471  0.3073 -0.5063
27845SOL    HW192503   6.341   0.361  11.068  1.0951 -1.2235  0.4278
27845SOL    HW292504   6.453   0.311  10.979  1.7188 -2.0284  1.6331
27846SOL     OW92505   2.624  11.694   9.075 -0.1868 -0.6543  0.0505
27846SOL    HW192506   2.607  11.736   8.991  0.7953 -1.9880 -0.8669
27846SOL    HW292507   2.715  11.665   9.069 -0.3794 -1.5900  1.1972
27847SOL     OW92508   8.245   0.873   2.337 -0.0765  0.1371 -0.4135
27847SOL    HW192509   8.225   0.779   2.331 -0.3270  0.2269 -1.0874
27847SOL    HW292510   8.194   0.903   2.412  0.4820 -0.3836  0.1877
27848SOL     OW92511   5.411  12.478  11.755 -0.0807 -0.1993 -0.1718
27848SOL    HW192512   5.379  12.394  11.721 -2.3149  0.3950  0.3280
27848SOL    HW292513   5.335  12.536  11.752 -0.7188 -0.0444  5.7893
27849SOL     OW92514   0.703   0.839   2.924 -0.0845 -0.2910  0.1510
27849SOL    HW192515   0.671   0.859   3.012 -1.6898 -0.7833 -0.2864
27849SOL    HW292516   0.691   0.921   2.875 -1.1004 -0.5894 -0.1171
27850SOL     OW92517   4.702   3.085   1.008  1.0210  0.2350  0.1880
27850SOL    HW192518   4.768   3.140   1.051 -0.3353  0.4508  2.1231
27850SOL    HW292519   4.650   3.146   0.956 -0.3166  0.8506  2.1254
27851SOL     OW92520  10.627   9.910   5.613 -0.7730  0.3158  0.1394
27851SOL    HW192521  10.582   9.972   5.556 -0.8194 -1.0266 -1.3569
27851SOL    HW292522  10.598   9.824   5.583  0.2082 -0.4733  1.3518
27852SOL     OW92523   2.469   4.554   5.851  0.1057 -0.0417 -0.4744
27852SOL    HW192524   2.548   4.513   5.886 -0.7274  0.4186  2.2048
27852SOL    HW292525   2.501   4.620   5.790  1.6259 -1.7441 -1.5880
27853SOL     OW92526   9.952   2.426   8.463  0.0808  0.3240  0.6080
27853SOL    HW192527   9.862   2.456   8.453 -0.1201 -0.6294 -0.6378
27853SOL    HW292528   9.989   2.432   8.375  1.0055 -0.0072  0.9627
27854SOL     OW92529   9.104   7.769   5.536 -0.0155  0.1977  0.2518
27854SOL    HW192530   9.195   7.793   5.552  0.3919 -0.2282 -1.2719
27854SOL    HW292531   9.108   7.696   5.474 -1.3597 -0.9238  1.4004
27855SOL     OW92532   3.462   1.524   3.650  0.3766 -0.0435 -0.0870
27855SOL    HW192533   3.537   1.569   3.688  0.4798 -0.4907  0.2468
27855SOL    HW292534   3.394   1.529   3.717  0.3192 -0.1958 -0.1315
27856SOL     OW92535   7.528  11.963  11.997 -0.6867 -0.0872 -0.0137
27856SOL    HW192536   7.514  11.959  12.091 -1.2476 -1.5360 -0.1219
27856SOL    HW292537   7.507  11.874  11.966  0.6580  0.0118 -1.3430
27857SOL     OW92538   8.494  12.214   0.967  0.6317 -0.3275 -0.2077
27857SOL    HW192539   8.450  12.131   0.948 -2.0489  0.6778  0.9871
27857SOL    HW292540   8.519  12.248   0.882 -1.9649 -0.5385 -1.1613
27858SOL     OW92541  11.750   8.241   7.722  0.2345 -0.2664  0.0716
27858SOL    HW192542  11.840   8.215   7.737 -0.4726 -1.5247  2.5683
27858SOL    HW292543  11.701   8.159   7.721 -0.8435  0.3438 -1.8963
27859SOL     OW92544   5.980   1.362   4.654 -0.4701 -0.0995 -0.1458
27859SOL    HW192545   5.943   1.309   4.583 -1.1094  1.0064 -0.6577
27859SOL    HW292546   5.911   1.424   4.676  1.1280  2.2295 -1.3362
27860SOL     OW92547   3.456   7.244   5.360  0.4556 -0.2156  0.4442
27860SOL    HW192548   3.529   7.236   5.422  1.4115 -2.4241 -0.8335
27860SOL    HW292549   3.386   7.192   5.398  0.0092  0.7459  0.9820
27861SOL     OW92550   8.936   4.879   1.173  0.2018  0.3034  0.0295
27861SOL    HW192551   8.997   4.846   1.107  1.5219  1.1978  0.7641
27861SOL    HW292552   8.954   4.827   1.251 -1.4612 -0.8540 -0.3138
27862SOL     OW92553  11.813   9.396   3.957 -0.6818  0.5622  1.0549
27862SOL    HW192554  11.796   9.440   4.040 -1.6201 -1.4110  1.9627
27862SOL    HW292555  11.734   9.345   3.940  0.6151 -1.3748  0.4585
27863SOL     OW92556   9.336   4.962   4.601  0.0201 -0.1729 -0.5198
27863SOL    HW192557   9.425   4.996   4.608 -0.8777  2.1524  0.4725
27863SOL    HW292558   9.332   4.892   4.666  0.6273  0.9369  0.7662
27864SOL     OW92559   5.209   2.643   2.336  0.2848 -0.3882  0.3268
27864SOL    HW192560   5.183   2.551   2.338  0.3679 -0.4044  1.1014
27864SOL    HW292561   5.159   2.683   2.407 -3.1329  1.1105 -2.6214
27865SOL     OW92562   1.835  10.611   2.092  0.3748  0.2416  0.3100
27865SOL    HW192563   1.871  10.692   2.129  1.8741  0.1779 -0.8983
27865SOL    HW292564   1.802  10.562   2.168  2.0840  0.7099  1.4200
27866SOL     OW92565  11.662   6.511   6.392  0.1365 -0.1666  0.3623
27866SOL    HW192566  11.651   6.416   6.382 -2.6056  0.3193 -3.1869
27866SOL    HW292567  11.610   6.533   6.469 -2.8283 -1.2155 -1.1671
27867SOL     OW92568   3.321   3.333   9.198  0.2620  0.4166  0.1766
27867SOL    HW192569   3.258   3.300   9.262  0.0445  0.8560  0.1873
27867SOL    HW292570   3.283   3.414   9.165  0.5397  0.3782 -0.2556
27868SOL     OW92571   9.083  11.543  10.051  0.2116 -0.4175  0.2341
27868SOL    HW192572   9.118  11.533   9.963  1.5730  2.3405  0.3587
27868SOL    HW292573   9.153  11.513  10.109  1.0754  1.7315  0.3982
27869SOL     OW92574   9.628   3.133   0.066  0.2709 -0.4299 -0.4046
27869SOL    HW192575   9.549   3.115   0.116 -0.4316  1.4067 -0.7604
27869SOL    HW292576   9.680   3.053   0.074  0.4163 -0.1339  3.5997
27870SOL     OW92577   8.543   8.621   9.394 -0.0429 -0.7053 -0.1392
27870SOL    HW192578   8.479   8.615   9.466 -1.0558 -1.1257 -1.0555
27870SOL    HW292579   8.550   8.715   9.377  0.9496 -0.5163  1.1358
27871SOL     OW92580   0.589   1.385   3.664  0.4699  0.3373 -0.6474
27871SOL    HW192581   0.498   1.357   3.656  0.3864  0.2624  0.3998
27871SOL    HW292582   0.640   1.304   3.653  0.5747  0.6813 -3.4232
27872SOL     OW92583   7.336   8.389  11.714  0.4929 -0.2296  0.0811
27872SOL    HW192584   7.382   8.428  11.789 -0.4601  0.2335  0.4510
27872SOL    HW292585   7.373   8.432  11.637  0.2431  0.6022  0.4140
27873SOL     OW92586   1.879  12.552   0.330 -0.2334 -0.5288 -0.2808
27873SOL    HW192587   1.812  12.529   0.395 -1.0683 -1.1855 -1.3542
27873SOL    HW292588   1.882  12.477   0.271  1.3247 -0.4325 -0.3752
27874SOL     OW92589   5.276   0.763   2.566 -0.3121  0.1751 -0.3402
27874SOL    HW192590   5.213   0.765   2.638 -0.2514  1.1540 -0.3035
27874SOL    HW292591   5.227   0.725   2.493 -0.2904 -1.0942  0.2715
27875SOL     OW92592   2.013   8.152   6.218 -0.2284  0.4165  0.0874
27875SOL    HW192593   2.104   8.178   6.202 -0.0047 -0.7381 -0.6222
27875SOL    HW292594   1.961   8.226   6.187  0.4709  1.5807  1.5455
27876SOL     OW92595  11.811   2.650  12.288 -0.1675  0.3441  0.5961
27876SOL    HW192596  11.753   2.636  12.213  0.2092  0.3819  0.2969
27876SOL    HW292597  11.877   2.581  12.281 -0.2482  0.2236  1.0072
27877SOL     OW92598  11.983   4.908   7.539  0.6618 -0.2840 -0.0071
27877SOL    HW192599  11.981   4.980   7.601  2.1795 -1.3342  1.3638
27877SOL    HW292600  11.896   4.868   7.545  0.1609  0.7754 -0.0010
27878SOL     OW92601   8.836   2.806  12.442 -0.5975  0.3370 -0.0187
27878SOL    HW192602   8.874   2.863  12.376  0.9533  0.5527  0.9910
27878SOL    HW292603   8.796   2.734  12.393  0.7655  0.3384 -1.1893
27879SOL     OW92604   0.304   6.891   9.914 -0.6202 -0.3121  0.4817
27879SOL    HW192605   0.263   6.893  10.000 -1.7040 -0.0780 -0.0253
27879SOL    HW292606   0.238   6.927   9.855 -0.9862 -2.9355 -0.8878
27880SOL     OW92607   2.327   6.912  12.166 -0.0494 -0.0278  0.2181
27880SOL    HW192608   2.324   6.963  12.247 -0.2260  1.0424 -0.4388
27880SOL    HW292609   2.416   6.877  12.162  0.5270  1.4016  0.0034
27881SOL     OW92610   6.895  12.158   3.744 -0.1001 -0.7768 -0.5636
27881SOL    HW192611   6.989  12.144   3.735 -0.1926 -1.2306 -0.8284
27881SOL    HW292612   6.860  12.074   3.771  0.0448  0.2712  3.5758
27882SOL     OW92613   3.947   6.980   6.473  0.2463 -0.1377 -0.4978
27882SOL    HW192614   3.994   7.035   6.536  0.7995  0.4715 -1.4091
27882SOL    HW292615   3.924   7.040   6.402 -1.3200 -0.5799 -0.4035
27883SOL     OW92616   0.592   3.928   3.232  0.0107 -0.5092  0.3616
27883SOL    HW192617   0.660   3.862   3.228 -0.4759 -1.0053  0.1897
27883SOL    HW292618   0.626   4.002   3.182  0.9480 -0.2581  1.3303
27884SOL     OW92619   5.291   1.480  10.285 -0.4553  0.4251  0.2281
27884SOL    HW192620   5.289   1.498  10.191  0.5478  0.8492  0.2763
27884SOL    HW292621   5.255   1.559  10.325  0.5312  0.8662  0.2643
27885SOL     OW92622   8.765  10.578   6.781  0.2610  0.3403 -0.5517
27885SOL    HW192623   8.684  10.537   6.749  0.0245 -0.7226  1.2799
27885SOL    HW292624   8.828  10.506   6.786  1.0450  0.9785 -1.0320
27886SOL     OW92625   6.434   2.746   5.763 -0.1140  0.1036  0.1638
27886SOL    HW192626   6.377   2.722   5.837  0.5491 -0.0151  0.6506
27886SOL    HW292627   6.430   2.841   5.760 -0.8111  0.0702 -0.1954
27887SOL     OW92628   6.240   5.268   2.170  0.5333 -0.6679 -0.2685
27887SOL    HW192629   6.288   5.260   2.252  0.3995  1.5903  0.0923
27887SOL    HW292630   6.308   5.280   2.104  0.5741  0.4462 -0.0464
27888SOL     OW92631  10.302  10.318   4.167 -0.1683  0.6789  0.6217
27888SOL    HW192632  10.274  10.291   4.254 -1.4224 -3.3109 -0.7757
27888SOL    HW292633  10.220  10.326   4.118  0.6121  0.9010 -0.6858
27889SOL     OW92634   5.596   5.917   5.562 -0.1524 -0.2393 -0.3480
27889SOL    HW192635   5.612   5.844   5.502 -2.1719 -0.3568 -0.7937
27889SOL    HW292636   5.526   5.886   5.619 -0.2701  0.9537  0.1831
27890SOL     OW92637  11.280   0.219   9.988 -0.2190 -0.2986  0.0177
27890SOL    HW192638  11.289   0.188  10.078 -0.6947 -2.7969 -0.7043
27890SOL    HW292639  11.300   0.142   9.934 -2.4731  0.3660 -1.9477
27891SOL     OW92640   9.244   5.774  10.864  0.4971  0.1501  0.1252
27891SOL    HW192641   9.334   5.743  10.871  0.1639 -0.4846  2.1031
27891SOL    HW292642   9.194   5.719  10.924 -0.9592  1.4677  0.1980
27892SOL     OW92643   7.393   0.117   0.911  0.6884  0.0317  0.4096
27892SOL    HW192644   7.332   0.192   0.913  1.3953  0.6349 -0.1564
27892SOL    HW292645   7.417   0.108   0.819  0.0905 -1.3457  0.3716
27893SOL     OW92646  11.765   6.185  11.980  0.4873 -0.0635 -0.3661
27893SOL    HW192647  11.759   6.217  11.890 -0.3070  2.2329  0.4199
27893SOL    HW292648  11.708   6.108  11.983  1.3974 -0.8484 -2.0458
27894SOL     OW92649   7.373   7.242  12.580  0.2986 -0.0644 -0.1992
27894SOL    HW192650   7.292   7.191  12.587  0.6792 -0.9362 -1.7744
27894SOL    HW292651   7.442   7.181  12.607  0.6623 -0.1094 -1.1990
27895SOL     OW92652   6.064   3.699   2.378  0.4220  0.0747  0.9687
27895SOL    HW192653   5.974   3.732   2.370  0.4154 -0.1746 -0.1316
27895SOL    HW292654   6.059   3.634   2.448 -0.0674  0.6595  1.4965
27896SOL     OW92655   9.488   6.652   4.397  0.0131  0.0615  0.3538
27896SOL    HW192656   9.471   6.626   4.488  1.1008 -0.5418  0.4056
27896SOL    HW292657   9.467   6.745   4.394  0.7991  0.2945  1.4561
27897SOL     OW92658   9.501   9.635   2.741 -0.1022  0.2269 -0.4919
27897SOL    HW192659   9.492   9.659   2.649 -1.6493  0.6238 -0.2657
27897SOL    HW292660   9.456   9.705   2.789  1.5138  0.5333  0.6476
27898SOL     OW92661   9.394   6.006   4.995  0.5575 -0.1641 -0.8085
27898SOL    HW192662   9.398   6.078   5.058  0.5358 -0.0224 -0.9687
27898SOL    HW292663   9.477   5.959   5.007 -0.2051 -1.2429  0.6266
27899SOL     OW92664   8.878   8.337   5.455 -0.1767  0.3189 -0.5632
27899SOL    HW192665   8.901   8.358   5.546  0.8619  1.9628 -1.1545
27899SOL    HW292666   8.943   8.384   5.403 -0.2581 -1.2341 -2.1644
27900SOL     OW92667   6.685  12.456   0.752  0.1004  0.5367 -0.0011
27900SOL    HW192668   6.698  12.540   0.708 -2.0231  0.8664 -0.1312
27900SOL    HW292669   6.613  12.472   0.813  1.2811 -0.5958  1.7499
27901SOL     OW92670   5.447   8.243   6.730 -0.6879 -0.0202 -0.1390
27901SOL    HW192671   5.427   8.151   6.750  2.0346 -0.6109  0.1753
27901SOL    HW292672   5.491   8.240   6.646  0.3313  0.8647  0.3467
27902SOL     OW92673   0.687   3.594   6.812 -0.2077 -0.3992  0.3338
27902SOL    HW192674   0.739   3.515   6.824 -0.5278 -0.2999  2.8554
27902SOL    HW292675   0.676   3.630   6.900 -0.1407  2.4349 -0.6931
27903SOL     OW92676   7.136  12.409   6.499 -0.1453  0.0353  0.3664
27903SOL    HW192677   7.166  12.473   6.563 -0.6187  1.4296 -0.7600
27903SOL    HW292678   7.134  12.456   6.416 -2.6323 -0.7595 -0.1313
27904SOL     OW92679   0.355   7.404   2.164 -0.1322 -0.1084 -0.0231
27904SOL    HW192680   0.341   7.477   2.105 -0.0743 -0.7533 -0.8453
27904SOL    HW292681   0.290   7.338   2.138  0.1804 -0.5742  0.3432
27905SOL     OW92682   1.370   9.534   9.817  0.2823 -0.2370  0.1548
27905SOL    HW192683   1.317   9.611   9.795  0.6590  0.4303  1.4569
27905SOL    HW292684   1.335   9.464   9.762 -0.3127  0.7717 -0.8007
27906SOL     OW92685  10.450   5.040   0.188  0.1157 -0.1242  0.2127
27906SOL    HW192686  10.499   5.082   0.118  2.1295 -0.7807  1.1671
27906SOL    HW292687  10.516   5.016   0.253 -1.6129 -0.0693  2.0761
27907SOL     OW92688  10.404  11.306   2.155 -0.3014 -0.2014 -0.2105
27907SOL    HW192689  10.345  11.267   2.219  0.1547 -0.3877  0.1021
27907SOL    HW292690  10.353  11.375   2.113 -0.8844 -0.6489 -0.2555
27908SOL     OW92691   3.813   3.880   9.431 -0.0495 -0.1375  0.1016
27908SOL    HW192692   3.745   3.914   9.373 -0.5393 -0.2049  0.6324
27908SOL    HW292693   3.849   3.957   9.474 -1.9871 -0.3211  2.2184
27909SOL     OW92694   0.874   2.156  11.806 -0.0536  0.0656 -0.3372
27909SOL    HW192695   0.846   2.195  11.889  0.4877  1.7873 -0.9284
27909SOL    HW292696   0.814   2.082  11.794 -1.4280  0.9611  0.6254
27910SOL     OW92697   6.161   3.583  10.930 -0.2913 -0.0357 -0.4731
27910SOL    HW192698   6.106   3.662  10.930 -1.1801 -0.5553  2.0441
27910SOL    HW292699   6.168   3.559  11.023  1.4619 -1.9085 -1.0248
27911SOL     OW92700  11.258  10.849   7.716  0.5035 -0.2108  0.2452
27911SOL    HW192701  11.268  10.937   7.754  0.1205 -0.0215 -0.0742
27911SOL    HW292702  11.325  10.845   7.647 -0.8323  0.6435 -1.1659
27912SOL     OW92703   7.145   4.746   0.082 -0.1763 -0.2610  0.8721
27912SOL    HW192704   7.200   4.670   0.061  0.9594  0.0608  2.5035
27912SOL    HW292705   7.200   4.822   0.063 -0.0754  0.0670  2.3684
27913SOL     OW92706  11.934   0.183   5.839 -0.0400  0.9354 -0.1503
27913SOL    HW192707  11.866   0.233   5.793  1.0532  1.2194 -1.5243
27913SOL    HW292708  11.991   0.151   5.770  1.6653  1.3376  1.0099
27914SOL     OW92709   2.282   2.146  11.428 -0.8234 -0.0353 -0.2081
27914SOL    HW192710   2.231   2.179  11.503  0.6065  2.6147 -0.2739
27914SOL    HW292711   2.219   2.144  11.356 -1.9431 -1.5152  0.7570
27915SOL     OW92712  12.285  11.718   5.737  0.1866 -0.0347 -0.3135
27915SOL    HW192713  12.228  11.701   5.662 -0.3619  2.0305 -0.4281
27915SOL    HW292714  12.340  11.792   5.710  1.4690 -0.6326  0.5692
27916SOL     OW92715   3.845   6.295   2.381  0.5954 -0.0201  0.2406
27916SOL    HW192716   3.924   6.344   2.359  0.6030  0.7634  1.8927
27916SOL    HW292717   3.847   6.287   2.476 -0.9430 -0.6174  0.2479
27917SOL     OW92718   6.072   0.913   8.203 -0.2638 -0.2965 -0.3123
27917SOL    HW192719   6.071   0.827   8.160 -2.9227  0.1363 -1.3204
27917SOL    HW292720   6.002   0.908   8.268 -2.2079  1.7855 -2.0646
27918SOL     OW92721   0.220   6.742   3.249 -0.1530 -0.0156  0.5433
27918SOL    HW192722   0.169   6.697   3.181 -0.0065  0.5052  0.0775
27918SOL    HW292723   0.220   6.682   3.323 -1.3128 -0.0982  0.4991
27919SOL     OW92724   0.035   9.426   6.077  0.2384  0.0948 -0.2385
27919SOL    HW192725  -0.055   9.450   6.052 -0.1019 -0.2643  0.5798
27919SOL    HW292726   0.051   9.343   6.034  0.9616  1.1189 -2.0678
27920SOL     OW92727   1.521   2.051  10.158  0.4873 -0.1252  0.0480
27920SOL    HW192728   1.464   1.996  10.104 -1.2244 -0.0000  1.6194
27920SOL    HW292729   1.597   1.997  10.177  0.6843 -0.4961 -1.6705
27921SOL     OW92730  11.469   0.504   6.506  0.0647 -0.2448 -0.2131
27921SOL    HW192731  11.549   0.486   6.555  0.8075  0.9475 -0.9302
27921SOL    HW292732  11.492   0.486   6.414 -1.2643 -2.3239 -0.2030
27922SOL     OW92733   7.993   0.124   2.896  0.4656 -0.2315  0.7669
27922SOL    HW192734   7.899   0.103   2.900  0.3309  0.5622  2.0867
27922SOL    HW292735   8.008   0.145   2.804 -0.5832 -0.6613  0.4768
27923SOL     OW92736   1.999   2.079   2.228 -0.4473  0.3718 -0.2741
27923SOL    HW192737   1.998   2.143   2.300  0.9517  1.2997 -1.0165
27923SOL    HW292738   1.915   2.034   2.234 -0.3337  0.3564  1.9959
27924SOL     OW92739   7.551   9.649  10.773 -0.2325 -0.3652  0.2575
27924SOL    HW192740   7.477   9.707  10.793 -0.8297 -0.5222 -1.3052
27924SOL    HW292741   7.540   9.629  10.680  1.6011 -0.6749  0.0831
27925SOL     OW92742   9.024  10.403   1.963  0.0690  0.2591 -0.2117
27925SOL    HW192743   9.028  10.377   1.871  0.0163 -1.0947  0.1529
27925SOL    HW292744   9.115  10.404   1.992  0.0707  0.4978 -0.2183
27926SOL     OW92745   2.632   1.478   5.712  0.5193 -0.4374 -0.3920
27926SOL    HW192746   2.580   1.556   5.695  0.1417  0.0362  2.4352
27926SOL    HW292747   2.569   1.407   5.717  0.3381 -0.2090  0.9743
27927SOL     OW92748   2.676  12.391   7.212 -0.1398 -0.7090 -0.1302
27927SOL    HW192749   2.706  12.461   7.153 -0.5906 -1.8006 -1.7194
27927SOL    HW292750   2.608  12.432   7.265  2.0731  1.0405  1.5607
27928SOL     OW92751   7.167   7.638   5.016 -0.2229 -0.0463 -0.4285
27928SOL    HW192752   7.229   7.622   5.087 -1.4018  2.2035  1.2373
27928SOL    HW292753   7.218   7.627   4.936  1.5682 -1.0760  0.7975
27929SOL     OW92754   2.525   2.557   5.787 -0.3860  0.6091  0.3986
27929SOL    HW192755   2.500   2.469   5.759 -0.7343  0.8454 -0.0458
27929SOL    HW292756   2.444   2.595   5.820 -0.1791  0.6749  0.8385
27930SOL     OW92757   9.427   8.553   2.104  0.5689  0.5349 -0.2599
27930SOL    HW192758   9.434   8.464   2.070  2.1211  0.5215  0.0558
27930SOL    HW292759   9.364   8.596   2.045  0.9701 -0.3184 -1.3467
27931SOL     OW92760   2.701  11.960   7.488  0.0007  0.5755  0.4014
27931SOL    HW192761   2.698  11.917   7.403 -1.7366  0.2934  0.5716
27931SOL    HW292762   2.614  11.997   7.500  0.2616  0.7608  1.9739
27932SOL     OW92763   1.290  10.881   3.675 -0.4677 -0.2235 -0.1358
27932SOL    HW192764   1.312  10.812   3.738  1.4675 -0.2333 -0.7523
27932SOL    HW292765   1.268  10.956   3.730  1.2959 -0.1953  0.6134
27933SOL     OW92766   7.594  10.759   7.784 -0.0040 -0.0798 -0.3055
27933SOL    HW192767   7.645  10.789   7.860 -1.1862  1.5432 -0.0923
27933SOL    HW292768   7.530  10.698   7.821 -0.6373  0.7766  0.0667
27934SOL     OW92769   4.653   6.963   0.149  0.3028  0.2504  0.2120
27934SOL    HW192770   4.575   6.907   0.151 -0.9131  1.7089 -1.9751
27934SOL    HW292771   4.723   6.907   0.183 -1.3370 -1.7225  0.5651
27935SOL     OW92772   8.654   7.099   5.940  0.1922 -0.2701  0.3538
27935SOL    HW192773   8.706   7.020   5.925  0.3231 -0.0517 -0.3979
27935SOL    HW292774   8.698   7.167   5.889 -0.0478  0.2407  0.8131
27936SOL     OW92775   7.689   3.088   5.308  0.2657  0.1423 -0.0237
27936SOL    HW192776   7.717   3.113   5.220  1.5963 -1.0330  0.0443
27936SOL    HW292777   7.653   3.000   5.297  0.4860 -0.0267  0.6190
27937SOL     OW92778   8.308   8.572  11.003 -0.2133 -0.0314  0.2423
27937SOL    HW192779   8.243   8.506  10.981  0.5271 -0.1996 -1.6119
27937SOL    HW292780   8.261   8.655  11.001 -0.6842 -0.2893  0.4608
27938SOL     OW92781  11.236   1.626   7.625  0.2867 -0.1520  0.2543
27938SOL    HW192782  11.317   1.608   7.673  0.5132  1.5779  0.6245
27938SOL    HW292783  11.173   1.650   7.693  0.1651  0.8148 -0.1769
27939SOL     OW92784  10.808  12.250   5.355  0.1753 -0.6282 -0.0460
27939SOL    HW192785  10.774  12.191   5.422 -0.6728  0.4645  0.5185
27939SOL    HW292786  10.736  12.259   5.292 -0.4716  1.2692  0.8738
27940SOL     OW92787   0.334   0.662   7.054 -0.6211  0.5213  0.0340
27940SOL    HW192788   0.357   0.671   6.962  0.9477 -0.2156  0.3105
27940SOL    HW292789   0.324   0.752   7.085  1.0161  0.8873 -0.3768
27941SOL     OW92790   1.589  10.358   5.451  0.0799  0.2235 -0.2050
27941SOL    HW192791   1.499  10.325   5.452 -0.6143  1.8848  2.3560
27941SOL    HW292792   1.625  10.330   5.535  2.0522 -0.5567 -1.2656
27942SOL     OW92793   8.599   6.113   1.312 -0.3369  0.2124  0.0124
27942SOL    HW192794   8.553   6.196   1.326  1.0548  0.9462  0.5327
27942SOL    HW292795   8.684   6.126   1.356  0.3573 -1.0590 -0.8932
27943SOL     OW92796  11.701   2.585   5.130  0.7731  0.0104  0.7727
27943SOL    HW192797  11.719   2.532   5.207 -2.7781 -0.1733  1.6419
27943SOL    HW292798  11.697   2.675   5.163  0.0026  0.0209  0.6504
27944SOL     OW92799   7.834   3.141   2.591  0.1372  0.1491  0.5626
27944SOL    HW192800   7.887   3.206   2.545  0.4724 -0.9071 -0.5878
27944SOL    HW292801   7.887   3.062   2.591 -1.4203 -0.9385 -0.6219
27945SOL     OW92802   0.417   9.065  10.218  0.1052 -0.0825  0.1327
27945SOL    HW192803   0.481   9.012  10.171  0.9805  1.0162  0.0740
27945SOL    HW292804   0.460   9.089  10.299 -1.2529 -1.6396  1.4143
27946SOL     OW92805   0.351   2.885   2.023  0.4257  0.3075  0.0675
27946SOL    HW192806   0.323   2.793   2.022 -2.0663  0.9873 -0.8573
27946SOL    HW292807   0.370   2.905   1.932  1.0136  0.7059  0.2748
27947SOL     OW92808  12.278   0.626   0.798  0.1134  0.0773  0.7134
27947SOL    HW192809  12.320   0.604   0.715 -0.0980 -0.8398  0.8443
27947SOL    HW292810  12.208   0.561   0.808  1.4302 -1.1389  2.6161
27948SOL     OW92811   5.016   5.129   5.094 -0.4128  0.5605 -0.3259
27948SOL    HW192812   5.064   5.102   5.016  0.3640 -0.6879  0.5358
27948SOL    HW292813   4.932   5.083   5.088 -1.4643  2.5382 -1.7023
27949SOL     OW92814  10.311   7.733   5.801  0.5384  0.0368  0.0368
27949SOL    HW192815  10.307   7.684   5.718 -0.5753 -1.3658  0.8692
27949SOL    HW292816  10.220   7.735   5.831  1.0870 -0.6856  1.8777
27950SOL     OW92817   3.726   5.894   3.346 -0.7012 -0.1396  0.0092
27950SOL    HW192818   3.730   5.811   3.298 -0.1433  0.3272 -0.7911
27950SOL    HW292819   3.646   5.888   3.397 -1.3279 -0.6766 -0.9851
27951SOL     OW92820   0.934   7.292   4.748 -0.2033  0.1594 -0.3848
27951SOL    HW192821   0.882   7.361   4.708 -0.8421 -0.2606 -0.2831
27951SOL    HW292822   0.889   7.210   4.726 -0.0021 -0.1565  0.3255
27952SOL     OW92823   0.432   1.922  12.147 -0.1543 -0.0462 -0.1425
27952SOL    HW192824   0.502   1.978  12.178  0.4917 -0.4041 -0.9114
27952SOL    HW292825   0.359   1.981  12.130 -0.0703  0.3205  0.7252
27953SOL     OW92826   2.296  11.875   6.846 -0.3821 -0.5074 -0.1104
27953SOL    HW192827   2.265  11.853   6.759  0.3475  1.1912 -0.8543
27953SOL    HW292828   2.371  11.933   6.830  0.8003 -1.4708  1.6306
27954SOL     OW92829   7.204   2.939   2.783  0.2705 -0.5995 -0.4763
27954SOL    HW192830   7.150   2.979   2.851  0.0742 -1.1455 -0.3058
27954SOL    HW292831   7.293   2.969   2.802  0.2176 -0.7432  0.0168
27955SOL     OW92832  11.371   3.327   3.386 -0.1092  0.2864  0.4510
27955SOL    HW192833  11.321   3.277   3.451 -2.7007  1.2866 -0.6853
27955SOL    HW292834  11.370   3.417   3.419  2.3993  0.1329  1.1980
27956SOL     OW92835  12.064   5.157   7.803  0.2492 -0.2191 -0.1322
27956SOL    HW192836  12.042   5.179   7.713 -0.8186 -1.3050 -0.1708
27956SOL    HW292837  12.127   5.224   7.830 -0.3793  0.8645 -1.2572
27957SOL     OW92838   6.455   8.708   8.234 -0.5512 -0.0672 -0.2674
27957SOL    HW192839   6.510   8.678   8.305 -2.4053 -0.6027  1.0028
27957SOL    HW292840   6.431   8.628   8.186  0.1813  0.2241 -1.1680
27958SOL     OW92841   8.089   3.024   0.789 -0.2403  0.7566  0.1517
27958SOL    HW192842   8.104   2.969   0.866 -0.6380  1.4436  0.7354
27958SOL    HW292843   8.077   3.112   0.825  3.5813  1.9059 -0.8958
27959SOL     OW92844   3.693   9.090   7.260 -0.2212  0.1709  0.6498
27959SOL    HW192845   3.672   9.183   7.266 -1.4502  0.3513 -3.3734
27959SOL    HW292846   3.609   9.045   7.267 -0.0486 -0.3658 -0.4977
27960SOL     OW92847  12.308  11.220   2.021  0.2569 -0.6010 -0.2838
27960SOL    HW192848  12.220  11.222   1.984 -0.2180 -0.1083  0.8443
27960SOL    HW292849  12.346  11.138   1.988 -0.7447 -0.9873 -0.5010
27961SOL     OW92850   6.836   7.229   7.325 -0.6134 -0.0040  0.3099
27961SOL    HW192851   6.883   7.147   7.312 -0.1182  0.2320  0.6266
27961SOL    HW292852   6.902   7.291   7.355 -0.6581  0.9303 -1.3931
27962SOL     OW92853   0.145  10.143   0.041  0.3656 -0.3677 -0.3630
27962SOL    HW192854   0.185  10.215   0.089  0.0812 -0.3595 -0.1370
27962SOL    HW292855   0.082  10.106   0.102 -0.3799 -0.0246 -0.9164
27963SOL     OW92856   4.121  12.196   0.516 -0.4669 -0.3877 -0.0707
27963SOL    HW192857   4.172  12.255   0.572 -0.6695  1.4266 -1.7090
27963SOL    HW292858   4.067  12.254   0.462  0.5091 -1.9145 -2.9325
27964SOL     OW92859   8.648   5.593   9.403  0.2063 -0.0954  0.1089
27964SOL    HW192860   8.556   5.606   9.380  0.4353 -0.5883 -1.1610
27964SOL    HW292861   8.661   5.499   9.395  1.6834  0.2408 -3.4080
27965SOL     OW92862  10.862  12.034   1.209 -0.0380 -0.2851  0.0199
27965SOL    HW192863  10.777  12.019   1.249 -0.2795  0.5869 -0.1463
27965SOL    HW292864  10.873  11.963   1.146  0.5347 -1.9394  1.8961
27966SOL     OW92865   7.047   9.401   3.356  0.1045 -0.0294  0.2325
27966SOL    HW192866   7.018   9.492   3.364  0.2196 -0.0977  1.5895
27966SOL    HW292867   7.110   9.390   3.427 -2.2408 -2.0604  2.1800
27967SOL     OW92868   6.046   6.947   8.508  0.1158 -0.0615 -0.3287
27967SOL    HW192869   6.003   6.892   8.573  0.9785 -1.5292 -0.9440
27967SOL    HW292870   6.094   6.885   8.453  0.9530  1.3065 -1.1876
27968SOL     OW92871   5.666   1.604   8.604 -0.2233  0.2904  0.5198
27968SOL    HW192872   5.726   1.665   8.562 -0.8151 -0.1519 -1.0263
27968SOL    HW292873   5.721   1.529   8.629 -0.1107 -0.1002 -0.8530
27969SOL     OW92874   8.234   5.946   5.371 -0.1380  0.6611 -0.1476
27969SOL    HW192875   8.323   5.913   5.383  0.0463  0.9966 -0.5626
27969SOL    HW292876   8.193   5.884   5.311 -0.4612  0.0315  0.7085
27970SOL     OW92877   4.557  12.568   3.049  0.3253 -0.1389 -1.0425
27970SOL    HW192878   4.553  12.486   3.098  1.1275  1.1331  1.3233
27970SOL    HW292879   4.623  12.552   2.981 -1.3402 -2.1875 -2.2867
27971SOL     OW92880   5.375   8.453   7.760  0.6583  0.1314 -0.0203
27971SOL    HW192881   5.340   8.537   7.791 -0.9978 -0.7945  0.7900
27971SOL    HW292882   5.404   8.470   7.671 -0.7586  1.2896 -0.2932
27972SOL     OW92883  11.170   1.445  11.404  0.1272 -0.5910 -0.0353
27972SOL    HW192884  11.180   1.391  11.325 -0.2888 -1.2984  0.3864
27972SOL    HW292885  11.193   1.387  11.476  0.9069  0.1769  0.3471
27973SOL     OW92886   9.475   7.485   0.728 -0.3714 -0.0760  0.1075
27973SOL    HW192887   9.550   7.477   0.787 -0.3232  1.5203  0.3047
27973SOL    HW292888   9.414   7.417   0.758  1.2075 -1.8013 -0.4432
27974SOL     OW92889   1.657   4.487   9.283 -0.6073  0.1522 -0.0742
27974SOL    HW192890   1.580   4.518   9.330 -2.1506 -0.5100 -2.0402
27974SOL    HW292891   1.633   4.495   9.191  1.2748 -1.1321 -0.7242
27975SOL     OW92892   4.585   5.889  11.595 -0.1489 -0.3652  0.0587
27975SOL    HW192893   4.601   5.928  11.509 -1.7586 -1.2170 -0.6686
27975SOL    HW292894   4.547   5.803  11.576 -1.9790  0.0431  1.5788
27976SOL     OW92895   9.549  11.221   9.672 -0.0245 -0.2628 -0.0023
27976SOL    HW192896   9.625  11.197   9.618 -0.5509  0.6281 -1.1699
27976SOL    HW292897   9.475  11.179   9.629 -0.1123 -1.9802  1.7124
27977SOL     OW92898  12.385   0.538   8.900  1.0699  0.5646  0.0500
27977SOL    HW192899  12.397   0.579   8.986 -0.2389  0.0780  0.4914
27977SOL    HW292900  12.307   0.580   8.864  0.2457 -0.8221  0.1177
27978SOL     OW92901   2.334  12.344   6.760  0.4004 -0.5339 -0.3006
27978SOL    HW192902   2.287  12.267   6.729 -0.2101 -0.2616 -0.0738
27978SOL    HW292903   2.316  12.412   6.695  1.0211 -0.6104 -0.5537
27979SOL     OW92904   3.601   8.882   7.959 -0.0262 -0.1520 -0.1029
27979SOL    HW192905   3.588   8.829   8.038  0.2484 -1.3158 -0.8216
27979SOL    HW292906   3.619   8.818   7.890 -0.6238  0.8269 -1.1910
27980SOL     OW92907   1.447   8.335  10.452 -0.4449 -0.0702  0.2934
27980SOL    HW192908   1.417   8.297  10.535  1.7134 -0.7967  0.7915
27980SOL    HW292909   1.460   8.259  10.394 -2.2384  0.4442 -0.8791
27981SOL     OW92910  12.146   7.354  12.088 -0.0394 -0.3289  0.1194
27981SOL    HW192911  12.076   7.295  12.114 -0.4156 -0.9362 -2.0318
27981SOL    HW292912  12.109   7.405  12.016  1.7895 -0.9911 -1.3981
27982SOL     OW92913   1.326   8.520   2.410  0.6033  0.2469  0.2638
27982SOL    HW192914   1.327   8.447   2.349  0.4737 -0.0702  0.6310
27982SOL    HW292915   1.240   8.561   2.398  0.3071 -0.2293  0.7047
27983SOL     OW92916  10.761   9.768  12.089 -0.2620 -0.1256 -0.0150
27983SOL    HW192917  10.715   9.725  12.017 -0.7758  1.1348 -0.4622
27983SOL    HW292918  10.719   9.853  12.097  0.6138  0.2357  0.9652
27984SOL     OW92919   8.486   1.744   8.605  0.2863 -0.2574 -0.1422
27984SOL    HW192920   8.465   1.834   8.630  0.2602 -0.4159  0.3973
27984SOL    HW292921   8.451   1.735   8.516 -0.9749 -0.1872  0.3373
27985SOL     OW92922  10.033   0.638   2.688 -0.1797 -0.4799  0.4606
27985SOL    HW192923  10.058   0.565   2.631  0.3071 -0.0005  0.0551
27985SOL    HW292924  10.099   0.705   2.672 -1.6158  0.7521 -0.4825
27986SOL     OW92925   9.357   1.886  11.292  0.0791 -0.1714 -0.2258
27986SOL    HW192926   9.274   1.928  11.314  0.4437  0.4016  0.0862
27986SOL    HW292927   9.409   1.956  11.251  1.0400 -0.0408  1.1298
27987SOL     OW92928   6.012   1.977   3.564 -0.4186 -0.5586 -0.1649
27987SOL    HW192929   5.920   1.949   3.560 -0.2711 -1.1549  0.3549
27987SOL    HW292930   6.008   2.072   3.562 -1.0460 -0.5842 -0.3013
27988SOL     OW92931   6.771   6.461   3.045 -0.1859 -0.2812 -0.6386
27988SOL    HW192932   6.841   6.507   3.001 -0.4698  1.2314  0.4162
27988SOL    HW292933   6.807   6.375   3.066  0.1175 -0.8742 -3.2750
27989SOL     OW92934   3.774   0.459   9.212  0.0547  0.8298 -0.4158
27989SOL    HW192935   3.806   0.486   9.298  0.1230 -0.1154 -0.1427
27989SOL    HW292936   3.722   0.381   9.228 -1.2036  1.5166 -1.0498
27990SOL     OW92937   3.597   5.622   4.424 -0.4302 -0.3564 -0.3845
27990SOL    HW192938   3.560   5.710   4.420  1.2792  0.5251  1.4514
27990SOL    HW292939   3.546   5.571   4.361 -1.5967  1.8800 -1.3384
27991SOL     OW92940   0.013   2.042   9.256 -0.2126 -0.3825  0.1314
27991SOL    HW192941   0.088   2.021   9.312  0.0556  1.7682  0.6760
27991SOL    HW292942   0.035   2.006   9.171  0.4829 -1.5800  0.7912
27992SOL     OW92943   0.834  10.817   1.222 -0.0547  0.9669 -0.0909
27992SOL    HW192944   0.830  10.755   1.150  1.3767  0.8631 -0.1051
27992SOL    HW292945   0.759  10.794   1.278  0.2910 -0.5934 -0.2330
27993SOL     OW92946   9.219   7.036   8.067 -0.2444  0.3976  0.0452
27993SOL    HW192947   9.222   7.113   8.123 -1.7300  0.3551  0.2165
27993SOL    HW292948   9.293   7.047   8.007 -0.3851  1.9065  0.1212
27994SOL     OW92949   4.618  10.611   3.690 -0.1623  0.0097  0.1353
27994SOL    HW192950   4.599  10.621   3.596  0.8969  2.8490  0.1152
27994SOL    HW292951   4.563  10.676   3.732 -1.0318 -1.6110  1.6102
27995SOL     OW92952   2.827  12.398   6.218 -0.8478 -0.0181  0.5914
27995SOL    HW192953   2.783  12.469   6.170  1.0053  1.2764  0.6874
27995SOL    HW292954   2.920  12.408   6.194 -0.7177 -3.8535 -1.2249
27996SOL     OW92955  11.437   1.833   4.535 -0.1404  0.2360  0.4072
27996SOL    HW192956  11.424   1.741   4.515 -3.1588  0.1040  2.3020
27996SOL    HW292957  11.514   1.858   4.486 -0.0492 -2.9272 -1.2878
27997SOL     OW92958  10.018   6.858   2.448  0.1063 -0.0798  0.0868
27997SOL    HW192959  10.019   6.807   2.528 -0.6771  2.3220  1.7357
27997SOL    HW292960  10.110   6.874   2.428  0.2953 -0.1342  0.9003
27998SOL     OW92961   0.058   4.565   3.187 -0.3575 -0.7106 -0.2348
27998SOL    HW192962   0.123   4.610   3.241 -1.2295  0.1208  0.1608
27998SOL    HW292963   0.002   4.519   3.251 -0.5133 -0.9220 -0.5223
27999SOL     OW92964   3.908   4.449   2.131 -0.1778  0.3832 -0.0940
27999SOL    HW192965   3.845   4.384   2.101 -0.7543 -0.4681  2.6617
27999SOL    HW292966   3.858   4.508   2.188  0.6298  2.4709 -1.4015
28000SOL     OW92967   8.153   5.029   8.505  0.0557 -0.0381 -0.0911
28000SOL    HW192968   8.240   5.018   8.544  0.0339 -1.3575 -0.3816
28000SOL    HW292969   8.140   4.950   8.452 -0.9502  0.5646 -0.7785
28001SOL     OW92970   3.198   6.693   9.628  0.0642  0.5264  0.5683
28001SOL    HW192971   3.180   6.741   9.708 -0.2733 -0.0785  0.8580
28001SOL    HW292972   3.113   6.684   9.585  0.3528  1.5529 -0.2704
28002SOL     OW92973   2.589   9.313   2.525 -0.4089 -0.3152  0.0878
28002SOL    HW192974   2.650   9.386   2.531 -0.1032 -0.6516  1.3079
28002SOL    HW292975   2.637   9.246   2.476 -1.2597  0.8120 -2.4834
28003SOL     OW92976  12.536  12.427   3.287  0.3830  0.7126  0.7129
28003SOL    HW192977  12.478  12.369   3.237 -0.2740  2.2379 -0.3588
28003SOL    HW292978  12.478  12.473   3.347  0.6894  1.2103  0.6302
28004SOL     OW92979   8.904   1.309   5.571 -0.4481  0.1155  0.1505
28004SOL    HW192980   8.854   1.316   5.491  1.0225  1.0768 -0.7319
28004SOL    HW292981   8.995   1.296   5.542  0.2977  1.6144  1.6060
28005SOL     OW92982   4.065   4.804   9.211 -0.2625  0.1604 -0.1428
28005SOL    HW192983   4.117   4.882   9.191  1.0481 -0.5760  0.2773
28005SOL    HW292984   4.004   4.833   9.278  0.9540  0.5782  0.8208
28006SOL     OW92985  11.093  12.572   5.655  0.2613 -0.6161 -0.5676
28006SOL    HW192986  11.125  12.538   5.572  0.5915  0.0087 -0.7048
28006SOL    HW292987  11.040  12.502   5.692 -0.1743 -0.7678 -1.4738
28007SOL     OW92988   4.151   1.235   1.581  0.6132  0.2749 -0.1796
28007SOL    HW192989   4.215   1.165   1.566  0.8719  0.6271 -0.7807
28007SOL    HW292990   4.179   1.305   1.522 -0.7127  0.1957 -0.9340
28008SOL     OW92991   4.342   3.562   1.390  0.6506  0.0863 -0.7289
28008SOL    HW192992   4.318   3.478   1.350 -1.4238  0.3490 -0.1167
28008SOL    HW292993   4.267   3.586   1.444  0.8222  2.7487 -1.5237
28009SOL     OW92994   0.820   0.191   9.092 -0.2079  0.4440 -0.1170
28009SOL    HW192995   0.869   0.204   9.012 -0.9267 -0.0689 -0.6570
28009SOL    HW292996   0.884   0.204   9.162  0.3108  1.4309 -0.7408
28010SOL     OW92997   9.124   3.969   7.128 -0.1602  0.3940  0.0203
28010SOL    HW192998   9.032   3.960   7.154 -0.7062  1.0896 -1.5476
28010SOL    HW292999   9.126   3.945   7.036  1.2317  0.4582  0.0102
28011SOL     OW93000   9.294   0.201   6.947 -0.0386 -0.4451 -0.1192
28011SOL    HW193001   9.256   0.121   6.912 -1.2301  0.1452 -0.2178
28011SOL    HW293002   9.348   0.172   7.020 -1.7250 -1.2132  0.8822
28012SOL     OW93003   1.252   4.046   0.261  0.4264 -0.2703  0.2800
28012SOL    HW193004   1.307   4.123   0.248  0.9546 -0.7485 -0.3547
28012SOL    HW293005   1.183   4.055   0.196  0.5397 -0.3755  0.1442
28013SOL     OW93006   6.745  10.462   1.157  0.1221 -0.3537  0.4413
28013SOL    HW193007   6.770  10.399   1.224 -0.3293 -1.0897 -0.0646
28013SOL    HW293008   6.769  10.420   1.074  0.7801  0.5834  0.1352
28014SOL     OW93009   6.780   6.825   2.800 -0.2544 -0.1527  0.3952
28014SOL    HW193010   6.691   6.849   2.773 -0.3844 -1.1229 -0.0773
28014SOL    HW293011   6.779   6.729   2.803  0.2683 -0.1415  2.1582
28015SOL     OW93012   6.056   5.874   7.212 -0.0726 -0.2307 -0.1518
28015SOL    HW193013   5.969   5.891   7.248  0.0875  0.6115 -0.1417
28015SOL    HW293014   6.114   5.936   7.257  0.5567 -0.8492 -0.0799
28016SOL     OW93015  10.185   2.263  12.218  0.2830 -0.0843  0.1581
28016SOL    HW193016  10.106   2.273  12.270  0.0787  1.4158 -0.3943
28016SOL    HW293017  10.255   2.251  12.283 -0.2711 -0.6170  0.6691
28017SOL     OW93018   7.171  12.373   4.086 -0.3302 -0.2331  0.6006
28017SOL    HW193019   7.087  12.417   4.094  0.2213  1.1397 -0.5922
28017SOL    HW293020   7.236  12.443   4.099  0.5995 -1.0148  0.2953
28018SOL     OW93021  12.428   4.814   9.757  0.4774 -0.1288  0.4490
28018SOL    HW193022  12.407   4.872   9.830 -0.1093  1.8455 -1.2042
28018SOL    HW293023  12.517   4.838   9.732 -0.3979  1.4240 -1.3875
28019SOL     OW93024  12.445   4.021  10.020  1.0301  0.8213  0.7914
28019SOL    HW193025  12.434   4.112   9.990  1.7278  1.1147  1.3957
28019SOL    HW293026  12.499   4.028  10.099 -0.7069  0.0584  2.1044
28020SOL     OW93027  11.923   8.175  11.453 -0.3267  0.4377 -0.3280
28020SOL    HW193028  11.985   8.199  11.522 -3.2373  4.4565  1.2956
28020SOL    HW293029  11.972   8.190  11.372  0.7763  4.6710  0.8054
28021SOL     OW93030  11.265  11.787   7.195  0.1780 -0.2894  0.1995
28021SOL    HW193031  11.271  11.855   7.262 -0.5573  1.5747 -1.5050
28021SOL    HW293032  11.178  11.749   7.206  0.7947 -1.4112  1.5094
28022SOL     OW93033   4.907   7.090   4.553  0.5766 -0.0471 -0.4058
28022SOL    HW193034   4.898   7.185   4.563  0.5073  0.0947 -1.6580
28022SOL    HW293035   4.963   7.063   4.626 -2.5054  0.3499  2.3700
28023SOL     OW93036  10.674   5.173   2.702  0.3778 -0.5056  0.8772
28023SOL    HW193037  10.768   5.168   2.719  0.1033  0.1176  2.8517
28023SOL    HW293038  10.660   5.261   2.668  0.4782 -0.5014  0.8485
28024SOL     OW93039   8.140   6.867   0.862  0.1952  0.2320  0.7210
28024SOL    HW193040   8.196   6.833   0.931  2.8045 -1.5689 -2.0149
28024SOL    HW293041   8.172   6.956   0.847  0.8994 -0.0355  0.6042
28025SOL     OW93042   1.534   4.579  12.580  0.0137  0.5364 -0.6550
28025SOL    HW193043   1.587   4.646  12.623 -1.5027  1.3828 -0.0210
28025SOL    HW293044   1.589   4.501  12.581  0.8474  1.0963  0.9177
28026SOL     OW93045   8.911   5.620   7.058  0.0050  0.1324 -0.2341
28026SOL    HW193046   8.902   5.525   7.045 -1.5291  0.2581 -0.2728
28026SOL    HW293047   9.005   5.635   7.054  0.2127 -1.1939 -1.7271
28027SOL     OW93048   5.282   3.363   2.484  0.0612  0.5490  0.0314
28027SOL    HW193049   5.309   3.453   2.502 -0.0992  1.1950 -2.4717
28027SOL    HW293050   5.339   3.335   2.412 -2.2745  0.0631 -1.7829
28028SOL     OW93051   8.270   6.125   9.445 -0.1208  0.7480 -0.6186
28028SOL    HW193052   8.283   6.219   9.443  0.0478  0.7381 -0.1958
28028SOL    HW293053   8.359   6.088   9.446 -0.1087  0.6633  1.7167
28029SOL     OW93054   9.436   7.683  10.987 -0.0809 -0.5509  0.1350
28029SOL    HW193055   9.486   7.628  11.048  0.4966 -1.2620 -0.9557
28029SOL    HW293056   9.495   7.755  10.965 -0.0623 -0.6213 -0.0471
28030SOL     OW93057   3.965   5.828   2.859  0.0846 -0.4710  0.7560
28030SOL    HW193058   3.946   5.840   2.952 -0.8313  2.6736  0.2511
28030SOL    HW293059   4.046   5.877   2.845  1.3173 -2.5246  0.1858
28031SOL     OW93060   8.003   8.580   3.645  0.4735 -0.4384  0.0622
28031SOL    HW193061   7.991   8.569   3.740  0.1606  0.4571  0.1362
28031SOL    HW293062   8.088   8.540   3.627  0.1034 -1.4917  0.5555
28032SOL     OW93063   1.615   8.647   4.839  0.3627 -0.6498  0.4066
28032SOL    HW193064   1.541   8.632   4.780 -0.7589 -1.8271  2.0319
28032SOL    HW293065   1.692   8.641   4.783 -0.6666 -1.6023 -0.9636
28033SOL     OW93066   6.283  11.406   4.813 -0.2227 -0.1205  0.4494
28033SOL    HW193067   6.270  11.462   4.889  1.4743 -0.3495  0.9604
28033SOL    HW293068   6.350  11.344   4.841 -0.1028 -0.6778 -1.0009
28034SOL     OW93069   3.120   3.323   5.635  0.7564  0.2229 -0.3126
28034SOL    HW193070   3.102   3.415   5.655  0.0774 -0.0816  0.5763
28034SOL    HW293071   3.039   3.291   5.595  0.2449 -0.4711  1.1956
28035SOL     OW93072   9.284   5.636   3.694 -0.1907 -0.1247 -0.2147
28035SOL    HW193073   9.250   5.706   3.749 -1.5463 -0.3732 -0.7013
28035SOL    HW293074   9.306   5.565   3.755 -0.4208  0.0883  0.1160
28036SOL     OW93075  10.267  10.681   6.114 -0.0643  0.3419  0.4182
28036SOL    HW193076  10.187  10.731   6.098  0.7394  1.2630 -0.9196
28036SOL    HW293077  10.281  10.630   6.034  0.6400  0.1321  0.6643
28037SOL     OW93078   0.907  11.663  11.887 -0.0620 -0.0951  0.2484
28037SOL    HW193079   0.927  11.718  11.811  2.4968 -2.6545 -1.1442
28037SOL    HW293080   0.953  11.704  11.960  1.3461 -0.0390 -0.6362
28038SOL     OW93081   4.237  11.463   2.424 -0.1778  0.3460 -0.3749
28038SOL    HW193082   4.170  11.508   2.475  0.1447  0.2149  0.1660
28038SOL    HW293083   4.279  11.533   2.373  0.0311  0.6017  0.1380
28039SOL     OW93084   8.347   6.733  10.796  0.1525  0.5037  0.6391
28039SOL    HW193085   8.349   6.818  10.840  0.3811  0.4445  0.7463
28039SOL    HW293086   8.438   6.718  10.769  0.1451  0.2223  0.7648
28040SOL     OW93087   0.510   4.778  10.518 -0.1930  0.7349 -0.2011
28040SOL    HW193088   0.601   4.752  10.529 -0.1106  0.9625 -0.3459
28040SOL    HW293089   0.478   4.794  10.607 -0.1353  0.5212 -0.1399
28041SOL     OW93090   2.047  12.578  11.749 -0.0902  0.0450  0.4476
28041SOL    HW193091   1.971  12.569  11.692 -0.3772  1.7950  0.5120
28041SOL    HW293092   2.121  12.552  11.694 -0.6613 -1.4495  0.3191
28042SOL     OW93093   1.299   5.498  12.538  0.4898 -0.0665 -0.2919
28042SOL    HW193094   1.259   5.413  12.518  1.1502 -0.6172  0.6763
28042SOL    HW293095   1.283   5.511  12.631  0.1938  1.0024 -0.4714
28043SOL     OW93096   8.393  10.654   1.566 -0.0963  0.3287  0.4619
28043SOL    HW193097   8.431  10.591   1.628  0.2524  0.4149  0.3350
28043SOL    HW293098   8.336  10.601   1.511  0.4425  0.0626  0.1482
28044SOL     OW93099   6.683   8.832   5.173  0.0760  0.2160  0.5938
28044SOL    HW193100   6.646   8.876   5.250  0.7750  1.9357  0.0121
28044SOL    HW293101   6.647   8.881   5.099  0.4628 -0.5736 -0.1246
28045SOL     OW93102   6.393  11.233  10.657  0.1355 -0.0845 -0.4019
28045SOL    HW193103   6.318  11.236  10.597 -1.5250  2.6523  1.6149
28045SOL    HW293104   6.355  11.213  10.742  2.0293 -0.7481  0.3347
28046SOL     OW93105   2.734   3.821   9.888 -0.3165  0.5317  0.2934
28046SOL    HW193106   2.795   3.839   9.959 -0.6531 -0.8070  0.9414
28046SOL    HW293107   2.742   3.727   9.872 -0.3679  0.7700 -1.3375
28047SOL     OW93108  11.504   2.477   1.023 -0.1937  0.3997  0.1120
28047SOL    HW193109  11.537   2.403   0.973 -0.7396  1.5324 -2.0307
28047SOL    HW293110  11.577   2.538   1.028 -0.3439  0.5853  0.0850
28048SOL     OW93111  10.865   9.445   7.414  0.2336 -0.0530 -0.2309
28048SOL    HW193112  10.831   9.460   7.325  1.3031 -0.4647 -0.7212
28048SOL    HW293113  10.800   9.387   7.454 -0.7086  0.8221 -0.4272
28049SOL     OW93114   0.191  10.258   3.294 -0.3620  0.2229 -0.2161
28049SOL    HW193115   0.157  10.216   3.216 -0.0940 -1.0195  0.3166
28049SOL    HW293116   0.271  10.209   3.315 -0.9606 -0.1318  1.3926
28050SOL     OW93117   6.830   7.370   3.526  0.6850  0.2347  0.3609
28050SOL    HW193118   6.866   7.284   3.546  0.0896 -0.6384 -2.0304
28050SOL    HW293119   6.897   7.431   3.557  2.1305 -1.1602  0.1495
28051SOL     OW93120   3.498   2.136   1.720  0.4130  0.2712  0.0324
28051SOL    HW193121   3.456   2.175   1.797 -0.8100 -0.1769 -0.3894
28051SOL    HW293122   3.504   2.208   1.657 -1.1846 -0.0090 -0.4795
28052SOL     OW93123  12.114  10.643  12.148 -0.1740  0.1459  0.2911
28052SOL    HW193124  12.101  10.671  12.239 -0.0767 -1.5030  0.8489
28052SOL    HW293125  12.203  10.672  12.127  0.0068  0.0768  0.9232
28053SOL     OW93126   2.466   0.745   0.988  0.0886  0.4117  0.5704
28053SOL    HW193127   2.533   0.697   1.036 -1.1878 -0.2170  1.8058
28053SOL    HW293128   2.427   0.681   0.929  0.1349  0.6030  0.3303
28054SOL     OW93129   5.729   5.681   2.652  0.1905  0.5922 -0.0813
28054SOL    HW193130   5.712   5.775   2.655 -1.1946  0.3421  1.0973
28054SOL    HW293131   5.822   5.672   2.671  0.0016  1.6595  1.4947
28055SOL     OW93132   4.463   5.484   4.107 -0.3697 -0.3329 -0.6495
28055SOL    HW193133   4.517   5.428   4.051 -0.7251 -0.1117 -1.2253
28055SOL    HW293134   4.425   5.548   4.047  0.4990  0.9099  0.0862
28056SOL     OW93135   6.867  11.340  12.205  0.1908 -0.2204 -0.5015
28056SOL    HW193136   6.780  11.380  12.209  0.5510  0.7380 -1.7482
28056SOL    HW293137   6.849  11.246  12.196 -0.7346 -0.0162 -0.9156
28057SOL     OW93138   6.109   4.049   9.240 -0.0144  0.5120  0.1006
28057SOL    HW193139   6.164   4.096   9.177 -0.2589 -0.6050 -0.9978
28057SOL    HW293140   6.075   4.117   9.298  0.1903  1.5917 -1.0008
28058SOL     OW93141   7.005  11.062  10.014  0.2598 -0.1289  0.4786
28058SOL    HW193142   6.934  11.040  10.074  0.5701 -0.3070  0.7877
28058SOL    HW293143   7.032  11.149  10.041 -0.3672  0.2704 -0.1575
28059SOL     OW93144   1.760   0.991  10.101  0.5020  0.7563 -0.0585
28059SOL    HW193145   1.805   0.972  10.018 -0.5942 -0.4604 -0.4073
28059SOL    HW293146   1.684   0.934  10.100 -0.6864  2.2710  0.8289
28060SOL     OW93147   5.383  10.806   5.330 -0.1982  0.1695 -0.4368
28060SOL    HW193148   5.300  10.843   5.300  0.5379  1.0223 -1.5224
28060SOL    HW293149   5.435  10.795   5.250  1.5532  1.8099  0.3874
28061SOL     OW93150   9.946   1.478   2.137 -0.0888 -0.1395 -0.1493
28061SOL    HW193151   9.999   1.440   2.208  0.3150 -0.3954 -0.5796
28061SOL    HW293152   9.857   1.447   2.154  0.3033 -1.6928 -0.7465
28062SOL     OW93153   2.710   1.532   1.813  0.2579  0.2187 -0.2623
28062SOL    HW193154   2.678   1.477   1.885 -1.8291  2.2150  0.4483
28062SOL    HW293155   2.794   1.493   1.789  0.2033 -1.5722  2.0657
28063SOL     OW93156   2.246   2.344   2.871  0.1844 -0.1458  0.4185
28063SOL    HW193157   2.171   2.371   2.818 -0.4140  0.7507  1.6603
28063SOL    HW293158   2.208   2.321   2.956  1.1425 -1.3282  0.5434
28064SOL     OW93159   3.509   2.801   8.286  0.3321  0.2679 -0.5353
28064SOL    HW193160   3.546   2.713   8.274  1.0153  0.2137  1.5413
28064SOL    HW293161   3.534   2.849   8.207 -0.9591 -1.6564 -2.2166
28065SOL     OW93162   4.096   7.376   4.177  0.1347  0.4850  0.1391
28065SOL    HW193163   4.099   7.297   4.124 -0.4275  2.2616 -2.7462
28065SOL    HW293164   4.160   7.360   4.247  0.1067 -2.4204 -0.3877
28066SOL     OW93165   0.265   6.919   5.778  0.1969  0.3005  0.2215
28066SOL    HW193166   0.313   6.837   5.788  0.6357  0.4638 -0.4755
28066SOL    HW293167   0.243   6.922   5.685 -1.0709  0.2824  0.5081
28067SOL     OW93168  11.684   6.407   4.802  0.0585 -0.4433  0.3037
28067SOL    HW193169  11.719   6.450   4.880 -1.1765  0.5333  0.3365
28067SOL    HW293170  11.747   6.429   4.733 -0.3997  1.2225  0.3764
28068SOL     OW93171  10.230  12.142   0.238  0.3587  0.6096  0.0888
28068SOL    HW193172  10.241  12.237   0.237 -1.3266  0.8921  1.6885
28068SOL    HW293173  10.172  12.126   0.313  1.3732 -1.7838  0.4458
28069SOL     OW93174   0.652   4.981   6.127  0.4090 -0.0362  0.0027
28069SOL    HW193175   0.690   5.018   6.207 -0.4982 -2.4442  1.6672
28069SOL    HW293176   0.565   5.021   6.121 -0.2361 -1.1539  1.3169
28070SOL     OW93177   4.213   5.096   2.259 -0.3880 -0.3109  0.5964
28070SOL    HW193178   4.139   5.155   2.246  0.0489  0.1891  0.3562
28070SOL    HW293179   4.222   5.049   2.176  0.0792  0.2253  0.3372
28071SOL     OW93180   9.106   9.589   6.318 -0.1824 -0.1055 -0.0209
28071SOL    HW193181   9.201   9.587   6.309 -0.0695  0.9143  0.7255
28071SOL    HW293182   9.080   9.670   6.274 -0.4094  0.9452  1.9424
28072SOL     OW93183  11.186  12.195   6.791 -0.3928 -0.2948  0.2125
28072SOL    HW193184  11.163  12.102   6.797  0.2793 -0.6477 -1.9614
28072SOL    HW293185  11.101  12.241   6.797 -0.7724 -1.0469  0.8059
28073SOL     OW93186  10.622   1.515   5.174 -0.1014 -0.9170 -0.8900
28073SOL    HW193187  10.674   1.445   5.213  2.4235  0.5253 -1.4324
28073SOL    HW293188  10.576   1.474   5.101  0.7195 -2.1698 -0.7210
28074SOL     OW93189   0.651   6.495   3.827  0.0735 -0.3175  0.2488
28074SOL    HW193190   0.566   6.498   3.783  0.9901  1.2645 -1.5307
28074SOL    HW293191   0.632   6.526   3.916 -0.9693  1.8182 -0.6328
28075SOL     OW93192   4.055   6.196   8.494 -0.2730  0.2655  0.3095
28075SOL    HW193193   4.147   6.201   8.471 -0.1879 -0.2276  0.5180
28075SOL    HW293194   4.033   6.282   8.530 -0.5189  1.2377 -1.9816
28076SOL     OW93195  10.060   5.266   9.236  0.2427  0.2660 -0.0241
28076SOL    HW193196  10.123   5.218   9.183  0.7079  0.7710  0.0477
28076SOL    HW293197  10.107   5.347   9.260 -0.2296  0.3877  0.5104
28077SOL     OW93198  10.607   0.275   5.339 -0.1870 -0.5529  0.6452
28077SOL    HW193199  10.672   0.336   5.374  0.6123 -0.8258 -0.3303
28077SOL    HW293200  10.642   0.188   5.357 -0.8102 -0.7235  1.0770
28078SOL     OW93201  12.178   1.010   2.666 -0.2305 -0.2657  0.1934
28078SOL    HW193202  12.209   0.935   2.717  1.2813 -0.2575 -0.6425
28078SOL    HW293203  12.246   1.076   2.677 -1.4199  0.9203  0.7129
28079SOL     OW93204   8.202  12.097  10.698  0.7542  0.0147 -0.3686
28079SOL    HW193205   8.218  12.171  10.639  1.9732 -0.3328 -0.5031
28079SOL    HW293206   8.185  12.023  10.639  0.5393 -0.0255 -0.2557
28080SOL     OW93207  10.283   5.284   1.029 -0.4144 -0.6986  0.2815
28080SOL    HW193208  10.196   5.259   1.062 -0.2826 -0.0825  1.1420
28080SOL    HW293209  10.265   5.353   0.965 -0.5336 -0.1366  0.9099
28081SOL     OW93210   5.499   8.030   5.413 -0.8242  0.0052 -0.0030
28081SOL    HW193211   5.574   7.981   5.377 -1.4346 -0.0044 -1.3008
28081SOL    HW293212   5.423   7.980   5.386 -1.4025  1.0436 -0.3418
28082SOL     OW93213   8.551   2.474  10.258 -0.2169 -0.0056  0.2814
28082SOL    HW193214   8.641   2.440  10.252  0.1750  1.1168 -0.7859
28082SOL    HW293215   8.496   2.396  10.264  0.8096 -0.7311  0.5096
28083SOL     OW93216  11.272   7.642   6.523  1.2049  0.4507  0.0111
28083SOL    HW193217  11.338   7.573   6.529 -0.6487 -1.4749 -0.5682
28083SOL    HW293218  11.276   7.672   6.432  1.2782  0.3363 -0.0229
28084SOL     OW93219   9.728  10.964   6.258  0.0439 -0.3173 -0.7407
28084SOL    HW193220   9.703  11.052   6.286  0.6434 -0.0751 -0.9441
28084SOL    HW293221   9.652  10.910   6.277  0.4132 -0.1698  1.3852
28085SOL     OW93222   4.648   6.547   8.090  0.1253 -0.0125  0.4558
28085SOL    HW193223   4.643   6.515   8.180 -3.8564  0.4928  0.5960
28085SOL    HW293224   4.638   6.468   8.036  2.0372 -0.2579  0.4121
28086SOL     OW93225   5.075   1.455   5.831 -0.0698 -0.5318  0.1931
28086SOL    HW193226   5.038   1.368   5.845  0.0131 -0.6318 -0.1836
28086SOL    HW293227   5.000   1.508   5.804  0.1055 -0.8169 -0.9085
28087SOL     OW93228   7.613   7.417   1.939 -0.4724  0.1488  0.0422
28087SOL    HW193229   7.572   7.451   1.859 -0.4382  1.5165  0.5836
28087SOL    HW293230   7.541   7.380   1.990 -0.8655  1.4418  0.4423
28088SOL     OW93231   7.195   1.608   4.079  0.0758  0.1535  0.9463
28088SOL    HW193232   7.183   1.554   4.158 -0.1879 -0.3583  0.5640
28088SOL    HW293233   7.107   1.625   4.048  0.1863  0.2065  0.6608
28089SOL     OW93234   6.181   1.842   3.282  0.0101 -0.2430 -0.5813
28089SOL    HW193235   6.161   1.936   3.279  0.7159  0.0176  1.1912
28089SOL    HW293236   6.186   1.815   3.190  1.2977  1.7986 -1.1847
28090SOL     OW93237   1.952   4.946   2.349 -0.0137  0.0793  0.1799
28090SOL    HW193238   1.967   5.022   2.294  1.3546 -0.1798  0.1665
28090SOL    HW293239   1.952   4.980   2.438 -0.4098  0.2339  0.1225
28091SOL     OW93240   7.823  10.419  11.876  0.3483 -0.1565  0.5601
28091SOL    HW193241   7.911  10.405  11.840  1.7901  0.0007  3.6629
28091SOL    HW293242   7.790  10.330  11.892 -0.6553 -0.2533 -1.7278
28092SOL     OW93243   6.201   1.208   1.955  0.1258  0.0718 -0.4449
28092SOL    HW193244   6.110   1.194   1.981 -0.1714  1.7429 -0.4596
28092SOL    HW293245   6.200   1.289   1.904  1.5695 -0.0925 -0.8014
28093SOL     OW93246   5.551   3.269   1.589  0.4461  0.4626 -0.1167
28093SOL    HW193247   5.526   3.191   1.539  0.8890  1.3108 -1.7280
28093SOL    HW293248   5.626   3.305   1.541  1.3797  0.9021  1.6164
28094SOL     OW93249   1.268   5.356  10.498  0.4762 -0.4101 -0.3473
28094SOL    HW193250   1.348   5.306  10.513  0.7359  0.1365  0.1411
28094SOL    HW293251   1.297   5.446  10.489 -0.1154 -0.1377  0.2991
28095SOL     OW93252   2.955   9.381   4.887 -0.1848 -0.3153 -0.2460
28095SOL    HW193253   2.913   9.339   4.812  1.1480 -0.3064 -1.0375
28095SOL    HW293254   3.048   9.362   4.876  0.1714  0.7046  0.7701
28096SOL     OW93255   7.983   2.359   4.750 -0.1616 -0.1277 -0.1125
28096SOL    HW193256   8.014   2.291   4.691  1.3252  1.1064 -0.8445
28096SOL    HW293257   7.961   2.433   4.692 -1.5681  0.1053  0.6614
28097SOL     OW93258   9.775   8.119   1.153  0.3529  0.2842 -0.5264
28097SOL    HW193259   9.689   8.156   1.135  0.5791  0.5760 -1.0295
28097SOL    HW293260   9.758   8.045   1.211  0.0441  2.3872  2.2982
28098SOL     OW93261   7.096   1.627   1.054  0.0108  0.4011 -0.1554
28098SOL    HW193262   7.084   1.561   1.123  0.4648  2.2823  1.8552
28098SOL    HW293263   7.008   1.660   1.036 -0.1002 -0.0429 -0.4498
28099SOL     OW93264   7.475   1.562   0.787 -0.0471 -0.2206 -0.0664
28099SOL    HW193265   7.402   1.500   0.792  1.4114 -1.8974  1.3271
28099SOL    HW293266   7.460   1.623   0.859 -0.0000 -0.6443  0.3024
28100SOL     OW93267   0.819   7.818  11.503 -0.1704 -0.5164  0.0513
28100SOL    HW193268   0.771   7.849  11.580  0.2943  0.4665 -0.0406
28100SOL    HW293269   0.761   7.838  11.430  0.9963  2.1684 -0.2244
28101SOL     OW93270  10.812   6.919   1.925  0.1711 -0.2045 -0.0126
28101SOL    HW193271  10.846   7.002   1.890 -0.4877  0.2037  0.3156
28101SOL    HW293272  10.891   6.866   1.938  0.6467  0.5290  0.2082
28102SOL     OW93273   4.321   0.126   9.176  0.2122  0.1896 -0.3970
28102SOL    HW193274   4.267   0.173   9.113  0.4382  0.2178 -0.5696
28102SOL    HW293275   4.308   0.034   9.155  0.0111  0.1860 -0.2577
28103SOL     OW93276   3.921   4.606   2.828  1.0088  1.2535  0.0025
28103SOL    HW193277   4.014   4.607   2.849  1.5172 -1.8328 -1.5750
28103SOL    HW293278   3.881   4.561   2.903  0.6466  3.0212  0.9172
28104SOL     OW93279   3.360   7.121   2.758 -0.4467  0.1734 -0.2255
28104SOL    HW193280   3.319   7.175   2.825 -0.4969 -0.5401  0.3294
28104SOL    HW293281   3.367   7.034   2.798  1.2360  0.1748 -0.4448
28105SOL     OW93282   1.572   4.742   0.675  0.0076 -0.6496  0.0448
28105SOL    HW193283   1.484   4.776   0.656 -0.3366 -1.1199  0.7778
28105SOL    HW293284   1.597   4.783   0.757 -0.0291 -1.4413  0.4606
28106SOL     OW93285   2.324   0.502   5.864 -0.0903  0.3622  0.1482
28106SOL    HW193286   2.316   0.510   5.959 -1.6768 -0.7536  0.1401
28106SOL    HW293287   2.247   0.545   5.829 -1.0466 -1.6985 -0.4678
28107SOL     OW93288  11.785   8.304   2.430 -0.9053 -0.7473  0.2766
28107SOL    HW193289  11.741   8.382   2.465 -1.7725 -1.2608  0.3565
28107SOL    HW293290  11.878   8.326   2.433 -1.2098  1.3510 -2.1802
28108SOL     OW93291  12.264  11.179  11.609  0.4197  0.5476  0.1847
28108SOL    HW193292  12.303  11.173  11.522  0.0376  0.8064 -0.0073
28108SOL    HW293293  12.215  11.097  11.618 -0.9459  1.2449 -0.5450
28109SOL     OW93294   5.652   1.368   6.574 -0.0149  0.3777  0.2900
28109SOL    HW193295   5.747   1.353   6.574 -0.3634 -2.6842 -1.4429
28109SOL    HW293296   5.629   1.375   6.481 -1.5437  0.7368  0.6706
28110SOL     OW93297   4.470   3.965   2.134  0.1629  0.0516 -0.0700
28110SOL    HW193298   4.423   4.047   2.122 -2.0493 -1.0000  0.8227
28110SOL    HW293299   4.498   3.966   2.226  0.2944 -0.1309 -0.1069
28111SOL     OW93300   0.215   8.742  10.434 -0.6183 -0.1185  0.5124
28111SOL    HW193301   0.156   8.756  10.359  0.4859  1.7619 -0.0966
28111SOL    HW293302   0.246   8.830  10.455  1.1724 -0.9428  1.4625
28112SOL     OW93303   9.814   7.228   0.452 -0.1148  0.5861  0.7189
28112SOL    HW193304   9.784   7.160   0.391  0.0982  0.4197  0.7962
28112SOL    HW293305   9.749   7.297   0.445 -0.2797  0.4174  0.5605
28113SOL     OW93306   0.401   5.206   0.364  0.2000  0.0185  0.0140
28113SOL    HW193307   0.376   5.291   0.328  0.4513 -0.7199 -2.0800
28113SOL    HW293308   0.494   5.197   0.342  0.4658 -0.3408  1.2157
28114SOL     OW93309   0.583   2.460  10.530 -0.2410 -0.3657 -0.5044
28114SOL    HW193310   0.546   2.519  10.595  0.3357  0.2736 -0.7460
28114SOL    HW293311   0.625   2.518  10.466  0.0099 -1.0210 -0.9435
28115SOL     OW93312   6.213   0.615  12.287 -0.0821  0.1305  0.2173
28115SOL    HW193313   6.147   0.615  12.356 -0.1573  2.8819  0.2538
28115SOL    HW293314   6.296   0.608  12.333 -0.1756  0.9509  0.5114
28116SOL     OW93315  12.580   7.998   0.920 -0.6454  0.1498 -0.6805
28116SOL    HW193316  12.524   8.031   0.990  0.1940 -1.9612  1.1208
28116SOL    HW293317  12.535   7.920   0.887  0.2883 -0.4925 -0.5018
28117SOL     OW93318  11.531   8.552  11.137  0.3695 -0.1513 -0.1474
28117SOL    HW193319  11.573   8.536  11.053  0.6846  1.0414 -0.2411
28117SOL    HW293320  11.506   8.645  11.133  0.0451 -0.1849  0.9228
28118SOL     OW93321  11.857   9.539   2.069 -0.6461  0.2788  0.2632
28118SOL    HW193322  11.833   9.449   2.091  2.6775 -0.8938 -0.3135
28118SOL    HW293323  11.856   9.542   1.973 -2.4218  1.4608  0.2673
28119SOL     OW93324   2.607   1.932  10.123 -0.1531 -0.3560  0.4041
28119SOL    HW193325   2.561   1.992  10.064  0.5815 -0.7524 -0.6020
28119SOL    HW293326   2.552   1.928  10.201 -1.4599 -0.2748 -0.4791
28120SOL     OW93327  10.685   4.811   6.763 -0.1155 -0.2129 -0.5823
28120SOL    HW193328  10.738   4.877   6.808  0.8141 -1.7183  0.6124
28120SOL    HW293329  10.605   4.805   6.816 -0.6760  0.6828 -1.2975
28121SOL     OW93330   7.515   4.360   0.957 -0.2157  0.3329 -0.0263
28121SOL    HW193331   7.578   4.288   0.950  0.7883  1.1004  0.7592
28121SOL    HW293332   7.508   4.394   0.868  2.6369  1.9728  0.2462
28122SOL     OW93333   6.693   2.007   6.803 -0.0497 -0.0882 -0.3865
28122SOL    HW193334   6.728   1.964   6.725  1.9447 -0.7766  0.8377
28122SOL    HW293335   6.726   2.097   6.797  0.3449 -0.2202 -0.1859
28123SOL     OW93336   5.771   3.085   1.289  0.2315 -0.3224  0.4616
28123SOL    HW193337   5.797   3.031   1.364  0.5347  0.3088  0.8257
28123SOL    HW293338   5.845   3.079   1.228 -0.2634 -1.3055 -0.0593
28124SOL     OW93339   0.108   2.963   9.264  0.4311 -0.4396  0.0570
28124SOL    HW193340   0.021   2.956   9.224  0.4626 -0.6495  0.0235
28124SOL    HW293341   0.148   3.037   9.220  0.7286 -1.1024 -0.8106
28125SOL     OW93342   9.159   8.179   5.733  0.3269 -0.3267  0.2718
28125SOL    HW193343   9.116   8.097   5.757 -0.3673  0.4279  1.7370
28125SOL    HW293344   9.154   8.233   5.812  1.3118  0.9093 -0.4705
28126SOL     OW93345   1.650  10.926  12.484  0.0762 -0.4796  0.4832
28126SOL    HW193346   1.642  10.860  12.414 -1.2932  0.8722 -0.7085
28126SOL    HW293347   1.600  11.001  12.452  1.6130  1.1816  1.7898
28127SOL     OW93348   9.076  10.055   6.583  0.2200 -0.0690 -0.3180
28127SOL    HW193349   9.163  10.015   6.578 -0.3343 -1.2005 -1.5864
28127SOL    HW293350   9.085  10.138   6.536  0.5546 -0.3181 -0.7018
28128SOL     OW93351   0.005   9.525   9.795  0.2755 -0.2567 -0.1625
28128SOL    HW193352   0.035   9.614   9.813  1.1844 -0.3509 -1.1060
28128SOL    HW293353  -0.026   9.492   9.879  0.2334  0.8318  0.2642
28129SOL     OW93354   2.946   6.942   0.898 -0.9709  0.1730  0.4254
28129SOL    HW193355   2.986   6.981   0.976 -1.0965 -1.3583  1.2951
28129SOL    HW293356   2.899   7.014   0.856 -0.0825  1.2467  1.2125
28130SOL     OW93357   6.600   0.417   4.930 -0.4858 -0.0754  0.1417
28130SOL    HW193358   6.645   0.385   5.009  0.5385 -0.8498 -0.7253
28130SOL    HW293359   6.527   0.356   4.918 -0.0190 -0.6100 -0.0819
28131SOL     OW93360   8.336   9.158   4.106  0.2442  0.4576  0.6043
28131SOL    HW193361   8.261   9.181   4.161  0.0092 -0.0686  0.5092
28131SOL    HW293362   8.398   9.230   4.119 -0.3692  1.0116  0.5068
28132SOL     OW93363   1.524   3.026   3.966  0.0262  0.5696 -0.2497
28132SOL    HW193364   1.520   2.944   4.016 -0.7477  0.9470  0.3207
28132SOL    HW293365   1.617   3.036   3.945  0.1801 -0.2777 -0.0283
28133SOL     OW93366  11.981   3.544   1.141  0.4023  0.0454  0.1390
28133SOL    HW193367  12.052   3.583   1.192 -0.1797  0.7732  0.4087
28133SOL    HW293368  11.950   3.470   1.194  1.2898 -0.5969 -0.2195
28134SOL     OW93369   0.796   0.761   3.353  0.1331 -0.4406 -0.3810
28134SOL    HW193370   0.828   0.794   3.269 -1.7717  2.6758 -0.0412
28134SOL    HW293371   0.733   0.693   3.328 -0.0401  0.0889 -1.5029
28135SOL     OW93372   1.026   2.326   4.953  0.1542  0.0163  0.1308
28135SOL    HW193373   1.016   2.406   4.901  0.2797  0.1529  0.3150
28135SOL    HW293374   1.072   2.355   5.032 -1.0017  0.0128  0.8216
28136SOL     OW93375   6.398   8.526   8.033 -0.4340 -0.5867  0.1183
28136SOL    HW193376   6.348   8.473   7.971  1.6044 -0.9697 -1.3354
28136SOL    HW293377   6.418   8.466   8.105 -0.5247 -0.9571 -0.1641
28137SOL     OW93378   1.569   4.525   3.486  0.0122  0.1140  0.5026
28137SOL    HW193379   1.654   4.489   3.457 -0.2877  0.1262 -0.4374
28137SOL    HW293380   1.504   4.467   3.446 -0.4647  1.2787 -0.4744
28138SOL     OW93381   5.816  10.140   6.909  0.1684 -0.1409 -0.2727
28138SOL    HW193382   5.896  10.186   6.883  0.5978  0.8217  2.3934
28138SOL    HW293383   5.837  10.048   6.897  1.1469  0.1495 -0.9933
28139SOL     OW93384   1.741  10.456   4.835  0.3480 -0.0844 -0.3578
28139SOL    HW193385   1.809  10.472   4.770 -0.9192 -0.7875 -1.9505
28139SOL    HW293386   1.760  10.369   4.870  1.0263  0.2902  0.2243
28140SOL     OW93387   3.633   3.002   2.050 -0.0929 -0.5154  0.3573
28140SOL    HW193388   3.707   2.953   2.016  0.3543 -0.2982  0.9873
28140SOL    HW293389   3.637   3.087   2.006  0.3514 -0.3157  0.7703
28141SOL     OW93390   7.942   1.113   4.190 -0.7499  0.7269 -0.0751
28141SOL    HW193391   7.952   1.018   4.178  0.0864  0.7727  0.1477
28141SOL    HW293392   7.996   1.133   4.267  0.7061  1.6570 -1.2618
28142SOL     OW93393   1.807   1.079   9.623 -0.6994 -0.5857 -0.4417
28142SOL    HW193394   1.717   1.112   9.613  0.0250  1.6290 -0.1641
28142SOL    HW293395   1.858   1.129   9.560  1.0260  1.3693  2.2787
28143SOL     OW93396   7.612   3.197   2.118  0.4760 -0.0106 -0.0978
28143SOL    HW193397   7.661   3.119   2.144  0.9267  0.6355  1.0996
28143SOL    HW293398   7.544   3.206   2.185  1.1828  1.2852  0.4818
28144SOL     OW93399   6.925  11.806   7.467 -0.0568  0.4866 -0.5235
28144SOL    HW193400   6.991  11.873   7.451  2.6672 -1.9600 -0.5492
28144SOL    HW293401   6.935  11.784   7.560  0.6967 -1.2924 -0.9720
28145SOL     OW93402  10.218   9.709   2.802 -0.1491 -0.4205  0.1235
28145SOL    HW193403  10.177   9.796   2.808 -1.5320 -0.9884 -0.6088
28145SOL    HW293404  10.278   9.716   2.729  0.8213  0.3119  0.9567
28146SOL     OW93405   9.598   5.918   5.694  0.2867 -0.0103  0.1388
28146SOL    HW193406   9.626   6.005   5.664 -0.8007 -0.0901 -1.2307
28146SOL    HW293407   9.562   5.934   5.781  1.3893  0.6508  0.4994
28147SOL     OW93408   9.250  10.039   7.438 -0.5618  0.1542 -0.4035
28147SOL    HW193409   9.179   9.986   7.403  1.3352 -2.5755 -0.3740
28147SOL    HW293410   9.257  10.012   7.530  0.4808  0.3929 -0.4026
28148SOL     OW93411   1.901   1.465  11.905 -0.4006  0.0432 -0.2440
28148SOL    HW193412   1.908   1.483  11.811 -0.9487 -1.4878 -0.6162
28148SOL    HW293413   1.904   1.551  11.946  0.7002  0.6967 -1.5980
28149SOL     OW93414   3.502   2.432   4.502 -0.1526 -0.1966 -0.1830
28149SOL    HW193415   3.575   2.487   4.531  1.0897 -0.9146 -1.7686
28149SOL    HW293416   3.460   2.402   4.582  2.1803 -0.9229  0.8513
28150SOL     OW93417  12.067  10.005   8.695 -0.2757 -1.0762 -0.0167
28150SOL    HW193418  12.021  10.003   8.611  1.3503 -1.0197 -0.9440
28150SOL    HW293419  12.137   9.941   8.686  0.5055 -0.4004  0.9514
28151SOL     OW93420  11.110   5.597   2.600  0.2780  0.5735 -0.0247
28151SOL    HW193421  11.087   5.688   2.616  0.3692  0.7610 -0.9254
28151SOL    HW293422  11.026   5.551   2.600  0.0421  0.9798 -1.5648
28152SOL     OW93423   9.183   9.848   8.240  0.2872  0.2625  0.5985
28152SOL    HW193424   9.115   9.859   8.173 -1.2980 -0.2181  2.0734
28152SOL    HW293425   9.211   9.938   8.259  0.7719  0.4118 -0.6597
28153SOL     OW93426  10.646   4.326   0.817 -0.1179  0.4969 -0.1212
28153SOL    HW193427  10.558   4.289   0.804  0.0483 -0.1708  0.5152
28153SOL    HW293428  10.665   4.306   0.909  0.5544  0.9549 -0.1635
28154SOL     OW93429   5.716   5.127   8.962 -0.0009 -0.3836 -0.0070
28154SOL    HW193430   5.697   5.189   8.892  0.8478 -2.6299 -2.4078
28154SOL    HW293431   5.804   5.151   8.991  0.4305 -0.5845 -1.0964
28155SOL     OW93432   8.910  10.809   1.759  0.1047 -0.1711  0.3584
28155SOL    HW193433   8.890  10.826   1.851  0.9951 -0.0463  0.5397
28155SOL    HW293434   8.831  10.768   1.724 -1.0983  1.8233  0.6062
28156SOL     OW93435  10.414   8.127   2.100  0.3681  0.4614 -0.3753
28156SOL    HW193436  10.429   8.041   2.062  1.6726  1.2615 -1.7749
28156SOL    HW293437  10.399   8.185   2.025 -1.3876  1.3307  0.5763
28157SOL     OW93438  10.101   1.992   8.243  0.3987  0.9223  0.1644
28157SOL    HW193439  10.096   2.084   8.218  0.1051  0.4426 -1.6861
28157SOL    HW293440  10.190   1.966   8.220 -0.2653  0.1411 -1.8056
28158SOL     OW93441   8.490   6.399   0.330  0.2737 -0.7238  0.1907
28158SOL    HW193442   8.439   6.471   0.368 -0.2062 -0.5427 -0.7712
28158SOL    HW293443   8.438   6.321   0.350 -0.0743 -0.6082 -0.2545
28159SOL     OW93444  12.487   8.684   7.744  0.2334 -0.3694  0.0784
28159SOL    HW193445  12.464   8.675   7.652 -1.1252 -1.1383  0.4732
28159SOL    HW293446  12.478   8.596   7.780  0.2595  0.0166  1.0568
28160SOL     OW93447  11.158  10.834  11.027 -0.2118  0.8728 -0.7600
28160SOL    HW193448  11.194  10.778  11.096  0.7784 -0.4749 -2.2879
28160SOL    HW293449  11.105  10.898  11.074  0.1290 -0.1896  1.2183
28161SOL     OW93450  11.176   2.586   6.602 -0.1967 -0.0956 -0.1016
28161SOL    HW193451  11.180   2.658   6.666 -2.4166  1.0518 -1.1485
28161SOL    HW293452  11.264   2.582   6.565  0.4059  1.0011  1.1265
28162SOL     OW93453   2.934   2.373   0.738 -0.3983  0.3152 -0.0309
28162SOL    HW193454   2.887   2.296   0.705 -1.1713 -0.2233  2.1856
28162SOL    HW293455   2.896   2.446   0.689  0.9057 -0.6974 -2.7641
28163SOL     OW93456   2.284   0.852   1.198 -0.3970 -0.0523 -0.1434
28163SOL    HW193457   2.330   0.782   1.244 -0.5556  0.2253  0.4479
28163SOL    HW293458   2.337   0.869   1.120 -0.2578 -0.7006 -0.1935
28164SOL     OW93459   9.357   8.009   1.262  0.3271 -0.0293 -0.1809
28164SOL    HW193460   9.415   8.064   1.314  1.2479  0.6342 -1.8337
28164SOL    HW293461   9.385   7.920   1.280 -1.0997 -0.0347  2.4344
28165SOL     OW93462   4.275   6.180   7.291  0.7402  0.0047  0.3718
28165SOL    HW193463   4.265   6.256   7.234  0.0553 -0.3569 -0.0090
28165SOL    HW293464   4.188   6.140   7.292 -0.0372  1.3837  3.6548
28166SOL     OW93465   9.221   5.853   1.886 -0.2174 -0.0441  0.4489
28166SOL    HW193466   9.304   5.845   1.933 -0.4156  1.4047  1.1271
28166SOL    HW293467   9.160   5.889   1.951 -0.7986  0.9789 -0.6160
28167SOL     OW93468   6.255  12.179   3.426 -0.8619  0.4439  0.4397
28167SOL    HW193469   6.195  12.107   3.444 -0.6842  0.4991  1.2910
28167SOL    HW293470   6.277  12.170   3.333  0.2663 -1.4383  0.8418
28168SOL     OW93471   0.261   7.233  11.541 -0.2556  0.0172  0.0513
28168SOL    HW193472   0.269   7.329  11.545  1.1047 -0.0163 -1.0191
28168SOL    HW293473   0.337   7.201  11.590 -0.8847 -0.5356  0.6894
28169SOL     OW93474  10.880   7.963   9.887  0.0338  0.7489  0.2838
28169SOL    HW193475  10.963   7.933   9.924  0.2805  0.0688 -0.7637
28169SOL    HW293476  10.900   7.979   9.795 -0.9404  0.8372  0.0791
28170SOL     OW93477   2.488   9.127   3.533 -0.0686 -0.5752  0.0885
28170SOL    HW193478   2.443   9.043   3.531  1.2506 -1.3187  0.1966
28170SOL    HW293479   2.472   9.166   3.448 -0.5990 -0.9923 -0.0012
28171SOL     OW93480   9.796   5.029   4.867  0.6892 -0.2514 -0.1537
28171SOL    HW193481   9.755   4.967   4.806  0.7683  0.7400 -1.2420
28171SOL    HW293482   9.862   5.074   4.815  1.5554 -0.1740  0.9774
28172SOL     OW93483  11.813   6.500   3.124 -0.3043  0.1181 -0.2489
28172SOL    HW193484  11.738   6.470   3.072  0.1879  0.3518 -1.1056
28172SOL    HW293485  11.889   6.479   3.070  0.2230  0.3252  0.4051
28173SOL     OW93486   9.043   4.880   7.447  0.0117 -0.1033 -0.1744
28173SOL    HW193487   9.036   4.828   7.527  1.6100  1.3766  0.9820
28173SOL    HW293488   9.017   4.819   7.377  0.4709 -2.0272  1.2524
28174SOL     OW93489   7.973   5.754  11.376 -0.5546 -0.0104 -0.2474
28174SOL    HW193490   7.924   5.736  11.456 -1.1165 -3.9502 -1.2543
28174SOL    HW293491   7.913   5.730  11.306  0.7090  1.1794 -1.7963
28175SOL     OW93492  10.504   6.936   1.220 -0.1714 -0.1737 -0.4874
28175SOL    HW193493  10.515   7.002   1.288 -0.4242 -0.5545 -0.0710
28175SOL    HW293494  10.493   6.854   1.268 -1.0254 -0.3537 -0.9719
28176SOL     OW93495   3.661   7.277   2.357  0.2873 -0.8200  0.1698
28176SOL    HW193496   3.689   7.285   2.448 -0.9989  1.3904  0.4724
28176SOL    HW293497   3.577   7.232   2.362 -1.9541  2.9364  0.7327
28177SOL     OW93498  11.886  12.463   0.983 -0.1912  0.0724  0.6200
28177SOL    HW193499  11.932  12.412   0.916  0.7672 -1.9722  2.6900
28177SOL    HW293500  11.941  12.540   0.997  0.1150  0.0176 -0.2313
28178SOL     OW93501   0.320   8.653   2.532 -0.3764  0.2911 -0.5520
28178SOL    HW193502   0.248   8.635   2.471  0.3090  0.4680 -1.4262
28178SOL    HW293503   0.284   8.719   2.592 -0.9347  0.3915 -0.9880
28179SOL     OW93504   7.491  11.289  12.134 -0.7718 -0.1391  0.1602
28179SOL    HW193505   7.582  11.309  12.156 -1.1733  0.9650  0.9001
28179SOL    HW293506   7.485  11.305  12.039 -0.0951 -0.6852  0.0194
28180SOL     OW93507  11.811   8.140   2.798  0.2193 -0.2873  0.0267
28180SOL    HW193508  11.746   8.115   2.732 -1.3686 -0.7165  1.6595
28180SOL    HW293509  11.825   8.060   2.849  0.0140  0.4623  1.3164
28181SOL     OW93510   0.808   0.448   0.414 -0.3538  0.1498 -0.6977
28181SOL    HW193511   0.889   0.446   0.363 -0.2544  0.9377 -0.5811
28181SOL    HW293512   0.813   0.371   0.471  0.7447  0.6999 -0.0314
28182SOL     OW93513   2.900   0.294  11.438 -0.4868 -0.2612 -0.1695
28182SOL    HW193514   2.987   0.265  11.464 -0.5627 -0.4199 -0.0957
28182SOL    HW293515   2.840   0.248  11.496 -0.5215  1.4177  1.2034
28183SOL     OW93516   2.911   7.503   7.401  0.3174 -0.6850 -0.6419
28183SOL    HW193517   2.887   7.411   7.401 -0.2606 -0.5464  0.3424
28183SOL    HW293518   2.984   7.509   7.463 -0.0460 -0.3860 -0.2398
28184SOL     OW93519  11.528   5.664   7.464  0.6099  0.5150  0.1814
28184SOL    HW193520  11.470   5.601   7.507 -0.5478  1.0021 -0.6284
28184SOL    HW293521  11.544   5.627   7.377  0.4736  1.0000 -0.0561
28185SOL     OW93522   6.253  10.359   5.372 -0.2737 -0.0726  0.1731
28185SOL    HW193523   6.332  10.340   5.321 -0.9632 -0.3619 -0.8256
28185SOL    HW293524   6.252  10.454   5.381  0.3306 -0.0889  0.4374
28186SOL     OW93525   5.593   4.391   9.843 -0.3836  0.5415 -0.3535
28186SOL    HW193526   5.592   4.299   9.870 -2.3185  1.4296  3.2493
28186SOL    HW293527   5.523   4.397   9.777 -2.1733 -0.1943  1.3642
28187SOL     OW93528  11.799   6.794  10.562  0.2675 -0.3874  0.5591
28187SOL    HW193529  11.867   6.824  10.622  0.9725  0.3830 -0.5938
28187SOL    HW293530  11.753   6.874  10.536 -1.2866 -0.9129  1.5124
28188SOL     OW93531   6.109   8.907   3.611 -0.2291 -0.5102 -0.3472
28188SOL    HW193532   6.082   8.960   3.686  1.4449 -0.0101 -0.0739
28188SOL    HW293533   6.119   8.819   3.647 -0.0373 -0.3956 -0.1160
28189SOL     OW93534   0.008   5.500   7.539 -0.1058  0.0974  0.2414
28189SOL    HW193535  -0.071   5.483   7.487 -0.3430  2.3309 -0.2329
28189SOL    HW293536  -0.002   5.443   7.615 -1.6951 -0.3939 -0.2728
28190SOL     OW93537   9.679   7.598   6.783 -0.6431 -0.2511 -0.3309
28190SOL    HW193538   9.682   7.662   6.712 -3.1894  0.9941  0.5831
28190SOL    HW293539   9.640   7.520   6.743  2.3426 -1.3711 -1.4100
28191SOL     OW93540   7.468   8.008   2.810 -0.0633 -0.3030 -0.5603
28191SOL    HW193541   7.544   8.050   2.849  0.1973  0.5342 -1.9047
28191SOL    HW293542   7.397   8.025   2.872  0.0251  2.2037 -1.0477
28192SOL     OW93543  12.591   1.909   0.134  0.4162 -0.4119  0.2964
28192SOL    HW193544  12.592   1.850   0.058  1.6066 -0.9291  0.6945
28192SOL    HW293545  12.499   1.937   0.140 -0.2141 -2.2365  0.0988
28193SOL     OW93546  11.766   4.670   3.315  0.2027  0.7409  0.4294
28193SOL    HW193547  11.837   4.733   3.327 -0.2601  1.4798 -0.5429
28193SOL    HW293548  11.810   4.587   3.297  0.8224  1.1118  0.2054
28194SOL     OW93549   0.479  12.444   6.412 -0.1376  0.3882  0.1963
28194SOL    HW193550   0.530  12.392   6.350 -1.0503 -0.3573  0.0366
28194SOL    HW293551   0.503  12.534   6.393 -0.3476  0.1711 -1.2132
28195SOL     OW93552   3.484   5.100   6.089 -0.2381 -0.0454  0.0864
28195SOL    HW193553   3.464   5.087   6.181 -1.5256 -0.5939 -0.2506
28195SOL    HW293554   3.563   5.155   6.089 -1.0471  1.1864  1.4867
28196SOL     OW93555  11.647   2.574  12.087 -0.6746  0.2038 -0.4086
28196SOL    HW193556  11.696   2.523  12.023 -0.2698 -0.2670  0.2665
28196SOL    HW293557  11.589   2.629  12.034 -0.2159 -0.0358 -1.1810
28197SOL     OW93558  10.127   1.680  11.309  0.3517 -0.1716  0.4466
28197SOL    HW193559  10.139   1.684  11.214  1.3649 -0.7378  0.5362
28197SOL    HW293560  10.172   1.600  11.335 -0.8217 -0.5927  1.2839
28198SOL     OW93561   1.414   3.096   6.773 -0.0524  0.3335 -0.2822
28198SOL    HW193562   1.322   3.076   6.753  0.6076 -3.2576 -0.4273
28198SOL    HW293563   1.425   3.067   6.864  1.2487 -0.8208 -0.7693
28199SOL     OW93564  10.994   7.667   6.536 -0.4495  0.1052 -0.4833
28199SOL    HW193565  11.089   7.663   6.544 -0.6466 -1.1320  3.2682
28199SOL    HW293566  10.976   7.754   6.500  2.0320  0.6342 -0.6336
28200SOL     OW93567   7.871   2.722   4.861  0.0127  0.1000  0.0074
28200SOL    HW193568   7.812   2.701   4.933  1.8853  1.6430  2.1260
28200SOL    HW293569   7.920   2.641   4.846 -0.3867 -0.2381  0.4875
28201SOL     OW93570   2.396   5.735   6.164  0.1731 -0.2897 -0.3898
28201SOL    HW193571   2.454   5.726   6.240  1.2367 -2.5552 -1.3943
28201SOL    HW293572   2.447   5.787   6.102 -0.3927  0.8994  0.1103
28202SOL     OW93573   1.381   4.272   0.204  0.3849 -0.3839  0.7066
28202SOL    HW193574   1.473   4.257   0.226  0.2845 -0.8777  0.7989
28202SOL    HW293575   1.381   4.355   0.157  0.8125 -0.1174  1.1604
28203SOL     OW93576   5.172  12.325  11.755  0.3033  0.4926  0.3689
28203SOL    HW193577   5.215  12.258  11.701  0.5613  0.8091  0.1751
28203SOL    HW293578   5.208  12.312  11.842 -1.2764 -1.0379  0.8358
28204SOL     OW93579   3.949   0.474   2.649  0.2382  0.1399 -0.6193
28204SOL    HW193580   3.931   0.540   2.715 -0.5911 -0.7223  0.0548
28204SOL    HW293581   4.017   0.512   2.593  2.7023  0.0363  2.0662
28205SOL     OW93582   0.590   9.373   4.879 -0.3055 -0.5061 -0.0717
28205SOL    HW193583   0.571   9.341   4.791 -0.5106  0.0646 -0.2389
28205SOL    HW293584   0.664   9.433   4.867 -1.2818  0.7338 -0.0894
28206SOL     OW93585   0.286   8.485  10.761 -0.1008  0.3655  0.1706
28206SOL    HW193586   0.274   8.394  10.787 -0.3580  0.6163  0.9593
28206SOL    HW293587   0.366   8.485  10.709 -0.7327 -0.4957 -0.8419
28207SOL     OW93588  12.549   3.347   5.302 -0.1677 -0.0070  0.1319
28207SOL    HW193589  12.644   3.353   5.294 -0.2504  2.8808  0.1574
28207SOL    HW293590  12.521   3.309   5.219  1.0206 -2.0023  0.5788
28208SOL     OW93591   6.122   3.473   2.227  0.0741  0.0106  0.1627
28208SOL    HW193592   6.033   3.447   2.252 -0.5039 -0.3912 -2.0937
28208SOL    HW293593   6.124   3.568   2.239 -0.3920 -0.0798  0.9937
28209SOL     OW93594   9.215   6.660   7.393  0.7100 -0.3238  0.1060
28209SOL    HW193595   9.280   6.671   7.324  1.5579 -2.3199  0.5260
28209SOL    HW293596   9.204   6.566   7.401 -2.0622 -0.0778  0.2586
28210SOL     OW93597   0.532  12.328   9.575 -0.2838  0.3025 -0.1272
28210SOL    HW193598   0.581  12.337   9.494  0.3395 -1.4804  0.0171
28210SOL    HW293599   0.593  12.356   9.643 -0.3577  0.5279 -0.1515
28211SOL     OW93600   8.370   1.874   4.273  0.7228 -0.0866  0.2907
28211SOL    HW193601   8.291   1.863   4.327  0.7456 -1.8469  0.0241
28211SOL    HW293602   8.340   1.858   4.184  1.1580  0.4739  0.0370
28212SOL     OW93603  11.766   0.799   9.883  0.5043 -0.1919 -0.4400
28212SOL    HW193604  11.842   0.837   9.840 -0.3608  2.2584  0.0118
28212SOL    HW293605  11.694   0.814   9.821 -0.0177 -0.2816  0.1351
28213SOL     OW93606   9.911   7.347  11.669 -0.1973  0.1739 -0.4168
28213SOL    HW193607   9.980   7.309  11.723 -0.6313  0.7657  0.5904
28213SOL    HW293608   9.937   7.329  11.579  0.3600 -1.1509 -0.0013
28214SOL     OW93609  11.102   4.096  12.360 -0.4521  0.1171  0.4090
28214SOL    HW193610  11.195   4.075  12.359 -0.3730  0.4561 -0.3594
28214SOL    HW293611  11.058   4.014  12.338 -0.3253 -0.0026  0.6018
28215SOL     OW93612   2.382   3.249   0.503 -0.0430  0.1301 -0.1742
28215SOL    HW193613   2.370   3.206   0.418  1.0721  1.7648 -1.2294
28215SOL    HW293614   2.324   3.326   0.499  0.4254  0.5172  0.3153
28216SOL     OW93615   8.728   6.431   3.250  0.5735 -0.2045  0.5117
28216SOL    HW193616   8.689   6.457   3.167 -0.0989 -1.1308  0.5208
28216SOL    HW293617   8.723   6.336   3.250  2.2198 -0.3109  0.8387
28217SOL     OW93618   5.333  11.405   6.807  0.7779  0.0996 -0.6384
28217SOL    HW193619   5.423  11.399   6.839  1.1975  0.3429 -1.7112
28217SOL    HW293620   5.281  11.355   6.870  1.4969  0.8729  0.6122
28218SOL     OW93621   8.667   7.564   1.617  0.0252 -0.0548  0.1213
28218SOL    HW193622   8.582   7.605   1.602 -0.3819 -0.5402  1.0288
28218SOL    HW293623   8.685   7.517   1.536 -0.8843 -0.4817  0.1492
28219SOL     OW93624  11.477   5.071  12.323 -0.1080  0.1692 -0.0179
28219SOL    HW193625  11.534   5.060  12.399  0.5802  1.7359 -0.2799
28219SOL    HW293626  11.424   4.991  12.321 -0.2581  0.1604  2.1942
28220SOL     OW93627  11.804  11.644   5.273 -0.4416  0.2651 -0.4120
28220SOL    HW193628  11.722  11.632   5.321  0.3379 -1.2687  0.6035
28220SOL    HW293629  11.855  11.705   5.326 -0.3981  0.1819 -0.3583
28221SOL     OW93630   3.915   6.464   8.565 -0.0728 -0.2457  0.2512
28221SOL    HW193631   3.991   6.472   8.622 -0.6624  0.4349  0.9766
28221SOL    HW293632   3.841   6.486   8.622 -0.6561  0.6630 -0.8137
28222SOL     OW93633   2.577   8.132   4.855  0.3287 -0.2598 -0.0426
28222SOL    HW193634   2.623   8.049   4.843  0.1384 -0.3135 -0.4160
28222SOL    HW293635   2.490   8.117   4.818  0.5960  0.3937 -0.9868
28223SOL     OW93636   0.349   4.549   9.726  0.4939 -0.2778  0.1772
28223SOL    HW193637   0.425   4.491   9.733 -0.7035 -1.7032  2.1093
28223SOL    HW293638   0.351   4.580   9.635  2.5737 -1.3681 -0.2069
28224SOL     OW93639   9.251   3.282   8.693  0.2671  0.7045 -0.5077
28224SOL    HW193640   9.315   3.216   8.720 -0.6055 -0.7297 -1.7620
28224SOL    HW293641   9.304   3.357   8.667  1.5087 -0.6175 -2.0070
28225SOL     OW93642   0.196   1.670   0.612 -0.3936 -0.1795 -0.5252
28225SOL    HW193643   0.205   1.674   0.516 -0.6680  1.8166 -0.5121
28225SOL    HW293644   0.105   1.644   0.626  0.0974 -2.1888 -0.7577
28226SOL     OW93645   8.506  11.344   2.977 -0.3223  0.2486 -0.3714
28226SOL    HW193646   8.593  11.313   2.951 -1.1563 -0.6793 -2.2331
28226SOL    HW293647   8.453  11.264   2.979 -0.6201  0.3616  3.3565
28227SOL     OW93648  12.271   1.627   7.410 -0.0628 -0.4383 -0.3300
28227SOL    HW193649  12.250   1.546   7.455  0.0585 -0.2399  0.0872
28227SOL    HW293650  12.285   1.601   7.319 -1.6688 -0.6511 -0.5487
28228SOL     OW93651   0.754   3.431   4.837  0.3098 -0.3830 -0.4218
28228SOL    HW193652   0.773   3.342   4.865 -2.1404 -1.0486 -0.6637
28228SOL    HW293653   0.838   3.466   4.807  1.8418 -1.6593  2.1217
28229SOL     OW93654   8.758   1.372  11.476 -0.6229  0.1897  0.2745
28229SOL    HW193655   8.692   1.332  11.419 -0.7950  0.6048  0.1836
28229SOL    HW293656   8.770   1.308  11.547 -0.2527 -0.4280 -0.3266
28230SOL     OW93657   8.844   1.761   3.944 -0.0270  0.4673 -0.1361
28230SOL    HW193658   8.820   1.705   3.870 -1.4862  1.4850 -0.4794
28230SOL    HW293659   8.768   1.818   3.956  0.3606  0.6121  1.8862
28231SOL     OW93660   2.872   2.456   7.419  0.3308 -0.2244  0.2815
28231SOL    HW193661   2.836   2.383   7.368  0.8532 -0.4094  0.1802
28231SOL    HW293662   2.908   2.516   7.354  0.7452 -0.3238  0.4221
28232SOL     OW93663   1.835   4.113  11.310  0.6763  0.0726 -0.3468
28232SOL    HW193664   1.848   4.207  11.302 -1.2147  0.5060  1.1044
28232SOL    HW293665   1.854   4.093  11.401  0.4220 -0.8420 -0.4807
28233SOL     OW93666  11.234   6.965   2.045 -0.3198  0.8965  0.5160
28233SOL    HW193667  11.329   6.949   2.044 -0.0791  2.1925 -1.0134
28233SOL    HW293668  11.198   6.892   1.994  0.0830  1.4594 -0.6139
28234SOL     OW93669  11.620   4.614   1.871  0.2321  0.0002 -0.2732
28234SOL    HW193670  11.672   4.601   1.950 -1.0394  0.0470  0.6072
28234SOL    HW293671  11.672   4.675   1.818  0.2284  1.5671  1.4072
28235SOL     OW93672  10.764  10.065   4.594 -0.0594 -0.3823 -0.3691
28235SOL    HW193673  10.685  10.012   4.590 -1.1902  1.2659 -1.9502
28235SOL    HW293674  10.781  10.090   4.503  0.6463  1.5675  0.2371
28236SOL     OW93675   3.271   6.675   7.996 -0.1673  0.7936 -0.4261
28236SOL    HW193676   3.213   6.641   8.064 -1.6151  1.0269 -1.4993
28236SOL    HW293677   3.358   6.675   8.037 -1.1628  2.3855  1.9720
28237SOL     OW93678  11.857  12.231   6.584 -0.5075 -0.1672  0.4188
28237SOL    HW193679  11.929  12.272   6.631 -0.3180 -1.1528  1.0127
28237SOL    HW293680  11.785  12.294   6.589  0.1303  0.5823  0.2985
28238SOL     OW93681   0.865   1.018   7.609  0.0820 -0.7594 -0.2193
28238SOL    HW193682   0.822   0.998   7.526 -1.2443 -1.1790  0.5317
28238SOL    HW293683   0.884   0.933   7.648 -0.2310 -0.5750  0.3515
28239SOL     OW93684   2.165   9.787   6.887  0.3682 -0.0322 -0.0889
28239SOL    HW193685   2.169   9.881   6.873  0.8235 -0.0870 -0.3318
28239SOL    HW293686   2.238   9.768   6.947 -0.6376 -0.0120  1.1926
28240SOL     OW93687   7.048   1.629   9.780 -0.8950  0.1807 -0.2643
28240SOL    HW193688   7.128   1.605   9.733  1.6600  1.3579  3.1152
28240SOL    HW293689   7.017   1.546   9.817 -0.1668 -0.0231 -0.0936
28241SOL     OW93690   7.448   6.050  11.383  0.1413  0.6806  0.0062
28241SOL    HW193691   7.423   5.986  11.317 -0.2053 -0.8832  1.5617
28241SOL    HW293692   7.375   6.051  11.445  0.6851  1.6684  0.6646
28242SOL     OW93693   9.016  12.385   1.105 -0.1947  0.7559 -0.3855
28242SOL    HW193694   9.063  12.432   1.036  1.4141  1.1771  0.9274
28242SOL    HW293695   8.978  12.309   1.060  1.1459  0.7961 -1.6747
28243SOL     OW93696   3.124  10.036   3.089 -0.6914 -0.2660 -0.0889
28243SOL    HW193697   3.114   9.975   3.162 -1.5725 -1.2233 -0.9589
28243SOL    HW293698   3.068   9.999   3.020 -0.6958  1.1640 -0.8870
28244SOL     OW93699  10.720   3.704  12.179 -0.1275 -0.2090  0.8123
28244SOL    HW193700  10.802   3.659  12.162 -0.2235 -0.6958  1.5893
28244SOL    HW293701  10.718   3.776  12.116  1.0209 -0.0240  0.9751
28245SOL     OW93702   7.834   6.521  12.359  0.2277  0.0974  0.2813
28245SOL    HW193703   7.843   6.599  12.414 -0.1121 -0.6929  1.4952
28245SOL    HW293704   7.822   6.449  12.421  1.9746 -1.1532 -0.7416
28246SOL     OW93705   1.108   7.169   7.096 -0.1031  0.0646 -0.2943
28246SOL    HW193706   1.115   7.074   7.099  0.1905  0.0974  0.3150
28246SOL    HW293707   1.188   7.200   7.138 -0.7589  0.5603  0.6358
28247SOL     OW93708   3.475   0.257   5.846  0.4660 -0.2422 -0.7288
28247SOL    HW193709   3.566   0.253   5.876 -0.2817 -0.5524  1.6663
28247SOL    HW293710   3.457   0.169   5.812  0.9432 -0.2895 -0.8639
28248SOL     OW93711   2.886   9.133   2.666 -0.4215 -0.1380  0.1118
28248SOL    HW193712   2.807   9.160   2.713 -0.1471 -0.4670  0.7705
28248SOL    HW293713   2.952   9.196   2.695 -0.7522  1.0004 -1.4913
28249SOL     OW93714   6.446   4.418   0.941 -0.1088 -0.0248  0.3916
28249SOL    HW193715   6.510   4.404   0.871 -0.0208  1.1443  0.2198
28249SOL    HW293716   6.460   4.508   0.970 -3.5358  1.3349 -1.5876
28250SOL     OW93717  12.482   3.376  10.932 -0.2775  0.3445  0.1719
28250SOL    HW193718  12.528   3.347  11.011 -2.1544 -0.1325  1.1512
28250SOL    HW293719  12.450   3.295  10.892 -2.1247  0.7503  0.7323
28251SOL     OW93720   7.928   5.102   2.959  0.2602  0.2177  0.2808
28251SOL    HW193721   7.906   5.083   3.051 -1.9776 -1.1250 -0.4573
28251SOL    HW293722   7.873   5.177   2.936 -0.6427 -0.6511 -0.4736
28252SOL     OW93723  11.226  11.321  10.695  0.9911 -0.1187  0.2570
28252SOL    HW193724  11.179  11.398  10.727  0.0464 -0.7806  0.4994
28252SOL    HW293725  11.158  11.265  10.656  1.5241 -1.1829  0.7902
28253SOL     OW93726  10.367   6.433   4.649 -0.6572  0.5606 -0.1957
28253SOL    HW193727  10.439   6.373   4.665 -1.0160  0.2812  0.4026
28253SOL    HW293728  10.390   6.477   4.567 -0.3701 -0.3674 -0.6216
28254SOL     OW93729   0.338   5.400   1.238 -0.2752 -0.3837  0.1174
28254SOL    HW193730   0.380   5.337   1.180  0.4497  0.3112 -0.1318
28254SOL    HW293731   0.410   5.455   1.269 -0.7968 -0.1259  0.8941
28255SOL     OW93732   3.115   1.472   6.946  0.6010  0.3358  0.1773
28255SOL    HW193733   3.057   1.440   7.014  0.0183  3.3854  1.2638
28255SOL    HW293734   3.068   1.457   6.864 -0.1641 -0.3567  0.7400
28256SOL     OW93735   5.500   6.962   1.157  0.4079  0.3648 -0.4994
28256SOL    HW193736   5.480   7.013   1.235 -1.0823  0.8900 -1.1829
28256SOL    HW293737   5.544   6.883   1.190 -2.4374 -0.6706  1.1852
28257SOL     OW93738  10.582   3.047   7.284 -0.3125 -0.0911  0.1192
28257SOL    HW193739  10.588   3.115   7.351  0.2052  0.7297 -0.7237
28257SOL    HW293740  10.492   3.055   7.250 -0.0448  0.6601 -0.4469
28258SOL     OW93741   9.980   2.744   1.263  0.7004  0.2180 -0.2662
28258SOL    HW193742  10.026   2.809   1.210  0.6559  0.6733  0.2525
28258SOL    HW293743  10.018   2.660   1.237  0.2632  0.3694 -1.4640
28259SOL     OW93744   7.486   9.499   7.754 -0.0553 -0.3931 -0.5116
28259SOL    HW193745   7.461   9.534   7.840 -1.0305 -0.9583 -0.5425
28259SOL    HW293746   7.440   9.555   7.691 -0.8593 -1.1169 -0.5899
28260SOL     OW93747   1.814   0.639   9.588  0.1571  0.5870  0.0633
28260SOL    HW193748   1.824   0.666   9.496  0.8616  2.4450  0.6469
28260SOL    HW293749   1.748   0.699   9.623 -1.0487 -0.9193  0.4992
28261SOL     OW93750   1.146   0.381   2.338  0.0705 -0.2445 -0.2784
28261SOL    HW193751   1.181   0.462   2.302  0.8488  0.1814  1.3874
28261SOL    HW293752   1.109   0.405   2.423 -0.9279 -1.3910 -0.3472
28262SOL     OW93753   7.894  12.594   8.237  0.2975  0.0312 -0.2738
28262SOL    HW193754   7.835  12.519   8.238  0.4156 -0.0603 -0.1104
28262SOL    HW293755   7.842  12.665   8.274  1.0565 -0.6364  2.2542
28263SOL     OW93756  10.280  10.341   0.119  0.1291 -0.1814 -0.0367
28263SOL    HW193757  10.306  10.388   0.039  1.4736  2.2262  1.6736
28263SOL    HW293758  10.190  10.370   0.135  1.1684  2.6929  1.3958
28264SOL     OW93759   3.210   4.864   0.348  0.0520 -0.3276 -0.3325
28264SOL    HW193760   3.218   4.769   0.346  0.8348 -0.2586 -0.9237
28264SOL    HW293761   3.271   4.892   0.416  0.5428 -0.1839 -0.8304
28265SOL     OW93762  10.176  11.042   5.889 -0.2947 -0.1996  0.1311
28265SOL    HW193763  10.202  11.122   5.934 -0.9020  0.9818 -1.5035
28265SOL    HW293764  10.082  11.035   5.905 -0.7517  0.8511 -1.7422
28266SOL     OW93765   3.741  12.478  12.188  0.7615 -0.3770 -0.6370
28266SOL    HW193766   3.737  12.383  12.185  0.3853 -0.3523 -0.9758
28266SOL    HW293767   3.657  12.505  12.223  0.5457 -0.1409 -1.3107
28267SOL     OW93768  10.369   2.048  11.600 -0.8535  0.4096 -0.0191
28267SOL    HW193769  10.312   2.017  11.671  0.8753 -1.5325  0.6219
28267SOL    HW293770  10.374   1.974  11.540  0.0857  0.9780 -0.6596
28268SOL     OW93771   3.683   7.128   9.435 -0.3596  0.3848 -0.1717
28268SOL    HW193772   3.603   7.176   9.455 -1.0956 -0.6229 -0.5985
28268SOL    HW293773   3.689   7.062   9.504  1.1452  1.6099  0.9591
28269SOL     OW93774  12.242   9.744  10.530  0.1083  0.1963 -0.2227
28269SOL    HW193775  12.169   9.708  10.580  1.5761  1.1671  2.8826
28269SOL    HW293776  12.312   9.680  10.540  0.1583 -0.0785 -2.0081
28270SOL     OW93777   8.719   0.030   7.768  0.4009 -0.2957  0.1133
28270SOL    HW193778   8.679  -0.020   7.697 -0.0852 -2.4121  1.7813
28270SOL    HW293779   8.813   0.023   7.753  0.3509  2.4706 -2.3386
28271SOL     OW93780  12.404  11.643   5.447 -0.1044  0.1493 -0.2924
28271SOL    HW193781  12.405  11.581   5.520 -1.5918 -1.8079 -1.8150
28271SOL    HW293782  12.482  11.621   5.396 -0.4309 -0.2389 -0.6321
28272SOL     OW93783  12.371  11.969   4.633  0.2705 -0.4388  0.8181
28272SOL    HW193784  12.466  11.971   4.640  0.4263 -0.7634 -0.8272
28272SOL    HW293785  12.340  12.015   4.710  1.8353  1.9907  0.0925
28273SOL     OW93786  11.187   3.446   2.642 -0.2436  0.0043  0.6693
28273SOL    HW193787  11.232   3.400   2.571 -0.4901  0.7969 -0.0202
28273SOL    HW293788  11.257   3.472   2.702  0.0546  0.0006  0.3251
28274SOL     OW93789   5.903  12.252   7.444 -0.2357  0.1253  0.8377
28274SOL    HW193790   5.900  12.229   7.537 -1.6260 -1.5019  0.4232
28274SOL    HW293791   5.957  12.183   7.404  2.0424  1.8797  0.6595
28275SOL     OW93792   2.793   8.056   5.931  0.1922  0.1626  0.5995
28275SOL    HW193793   2.887   8.071   5.919  0.3930  1.3647  3.0731
28275SOL    HW293794   2.785   7.960   5.934  1.4834  0.0535  1.3069
28276SOL     OW93795  11.629  11.718   6.439 -0.9851 -0.2863 -0.1549
28276SOL    HW193796  11.592  11.632   6.422  0.6952 -1.2264  0.6112
28276SOL    HW293797  11.647  11.718   6.533 -0.1086  0.5079 -0.3021
28277SOL     OW93798   5.042   9.846  10.619 -0.0972  0.6854 -0.1686
28277SOL    HW193799   4.999   9.929  10.641 -0.9091  0.1719  0.2237
28277SOL    HW293800   4.977   9.779  10.640  0.3124 -0.0206 -1.0884
28278SOL     OW93801   6.881   5.377   1.564 -0.1494  0.0335 -0.1567
28278SOL    HW193802   6.949   5.437   1.595 -0.1775  0.9029 -1.6848
28278SOL    HW293803   6.846   5.419   1.486  0.7372 -2.5674 -2.1098
28279SOL     OW93804   8.703   1.155   7.765  0.3495  0.0589  0.3192
28279SOL    HW193805   8.612   1.134   7.747  0.0255  1.4982  0.1359
28279SOL    HW293806   8.751   1.074   7.746 -0.3070  0.4313 -4.0997
28280SOL     OW93807   1.411   8.013  10.809  0.3204 -0.6298  0.0732
28280SOL    HW193808   1.463   7.965  10.745 -2.1152 -0.7953 -1.9390
28280SOL    HW293809   1.429   8.105  10.791 -0.3908 -0.6732 -0.9462
28281SOL     OW93810   5.019   0.984  12.005  0.0156  0.3397  0.0652
28281SOL    HW193811   4.935   1.002  12.046  0.4787 -1.3186  1.9146
28281SOL    HW293812   4.998   0.921  11.935 -0.4258  0.9419 -0.3520
28282SOL     OW93813  10.678  11.015   3.825  0.1911  0.0374  0.0553
28282SOL    HW193814  10.638  10.942   3.778 -2.3762  1.0766  0.4824
28282SOL    HW293815  10.661  10.996   3.918 -1.8412  1.7720  0.1282
28283SOL     OW93816   5.259  10.662   1.437 -0.1840 -0.5304  0.3067
28283SOL    HW193817   5.294  10.747   1.410  0.6015 -0.9794 -0.1333
28283SOL    HW293818   5.165  10.667   1.421 -0.2016  0.3967  0.6714
28284SOL     OW93819   6.985  12.171  10.511  0.5538 -0.2207 -0.0401
28284SOL    HW193820   6.955  12.082  10.529 -3.1966  0.4348 -2.0633
28284SOL    HW293821   7.035  12.164  10.430  1.3826 -0.5956  0.4857
28285SOL     OW93822   5.247   0.266   0.831 -0.5652  0.0069  0.1701
28285SOL    HW193823   5.274   0.345   0.878  1.4982  1.2647 -2.8179
28285SOL    HW293824   5.203   0.298   0.752  0.3747 -1.7733 -1.1551
28286SOL     OW93825   2.174   7.316   7.770  0.2946 -0.2548 -0.7053
28286SOL    HW193826   2.112   7.343   7.838  1.0849  0.5587 -0.2903
28286SOL    HW293827   2.126   7.328   7.688 -0.7923 -1.5722 -0.3084
28287SOL     OW93828   4.438   4.568  12.571 -0.1470 -0.4169  0.1646
28287SOL    HW193829   4.499   4.501  12.604  0.1282 -0.3098 -0.1177
28287SOL    HW293830   4.352   4.528  12.578  0.1088 -1.2129 -0.9816
28288SOL     OW93831   7.379   6.911   5.353  0.1963 -0.1199 -0.3688
28288SOL    HW193832   7.437   6.919   5.277  0.9056 -0.0225  0.1719
28288SOL    HW293833   7.382   6.818   5.375 -1.9356 -0.6277 -1.9241
28289SOL     OW93834   0.039   9.782   0.080  0.6858  0.0771 -0.0059
28289SOL    HW193835   0.028   9.800  -0.013  0.2155  1.8743  0.3610
28289SOL    HW293836   0.001   9.858   0.124  2.0090 -0.1459  1.6238
28290SOL     OW93837   1.293   8.824   3.642  0.2678  0.0338 -0.3030
28290SOL    HW193838   1.247   8.747   3.608  1.9594 -1.1006 -0.1507
28290SOL    HW293839   1.313   8.801   3.733  1.4215  0.3326 -0.4668
28291SOL     OW93840  10.090   4.689  12.235  0.8827 -0.2191  0.4631
28291SOL    HW193841  10.009   4.730  12.265 -1.2450 -1.8492 -2.5905
28291SOL    HW293842  10.122   4.747  12.166  1.0112 -0.7870  0.0453
28292SOL     OW93843   2.398  10.771   7.728 -0.0718 -0.0160 -0.0828
28292SOL    HW193844   2.482  10.741   7.764  1.0095 -0.3798 -2.7313
28292SOL    HW293845   2.421  10.848   7.676 -1.4659  0.1165 -0.5275
28293SOL     OW93846  11.998   3.073   1.028 -0.1663 -0.1632 -0.1027
28293SOL    HW193847  12.076   3.116   0.993  0.1248  0.1701  0.9312
28293SOL    HW293848  11.927   3.137   1.014  0.3552  0.9221  1.8898
28294SOL     OW93849   5.481   0.676   5.377 -0.1602 -0.2357  0.1928
28294SOL    HW193850   5.532   0.595   5.385  2.5986  0.8514 -3.4339
28294SOL    HW293851   5.408   0.653   5.319 -0.0830 -0.4204  0.1685
28295SOL     OW93852   2.467   2.504  11.834  0.2425 -0.1466  0.6019
28295SOL    HW193853   2.540   2.527  11.891  1.2508 -2.3814  0.3139
28295SOL    HW293854   2.508   2.479  11.751 -0.7409 -1.9095  0.5854
28296SOL     OW93855   4.923   3.070   5.971 -0.5828 -0.0479  0.2471
28296SOL    HW193856   4.922   2.976   5.953 -2.3191 -0.0183 -0.0049
28296SOL    HW293857   4.968   3.078   6.055 -1.7988 -1.2785  1.0524
28297SOL     OW93858  11.033   6.381   3.390  0.0573  0.0383 -0.4234
28297SOL    HW193859  10.945   6.374   3.354  0.0290 -0.6981 -0.2287
28297SOL    HW293860  11.020   6.383   3.485  0.2999 -1.0758 -0.3586
28298SOL     OW93861  10.741   1.735   0.395 -0.2851 -0.4351  0.1872
28298SOL    HW193862  10.789   1.817   0.405  0.8771 -1.2336  1.4451
28298SOL    HW293863  10.808   1.670   0.372 -1.0915 -1.1514 -0.2105
28299SOL     OW93864   6.026   2.086   5.751 -0.6281  0.4304  0.5883
28299SOL    HW193865   6.036   2.040   5.834  1.0008 -0.1110  0.1205
28299SOL    HW293866   6.003   2.018   5.688  1.7157  0.1907 -0.0939
28300SOL     OW93867  10.499   1.743   9.672  0.3121  0.1787 -0.1543
28300SOL    HW193868  10.521   1.836   9.682 -0.0208  0.3994 -1.2978
28300SOL    HW293869  10.429   1.727   9.736  0.6523  0.6074  0.3285
28301SOL     OW93870  10.437  12.441   9.162  0.1372  0.0023  0.1931
28301SOL    HW193871  10.464  12.531   9.183  2.2702 -0.5217 -0.0558
28301SOL    HW293872  10.512  12.404   9.115 -0.1029 -2.3558  1.5098
28302SOL     OW93873   5.323   1.338   1.465  0.2887 -0.9868 -0.1821
28302SOL    HW193874   5.345   1.295   1.548  1.0084 -2.1768 -0.9616
28302SOL    HW293875   5.250   1.288   1.430 -1.8909  1.1899  0.9900
28303SOL     OW93876  11.292   1.841   9.953  0.0115  0.3131  0.6207
28303SOL    HW193877  11.248   1.922   9.929  1.3742  0.9273  0.1248
28303SOL    HW293878  11.231   1.772   9.925 -1.0989  1.1375  0.9281
28304SOL     OW93879   0.041   1.497   2.113 -0.6551 -0.4584  0.0522
28304SOL    HW193880   0.082   1.427   2.062  2.2891  1.0945  0.0566
28304SOL    HW293881   0.033   1.570   2.052 -0.5327  0.2605  0.8794
28305SOL     OW93882   4.229   9.067   1.008  0.2659  0.7892 -0.3857
28305SOL    HW193883   4.270   9.141   0.964  1.0393 -0.3753 -1.7378
28305SOL    HW293884   4.135   9.079   0.993  0.5001  0.3513 -2.6581
28306SOL     OW93885  11.900   3.914   2.602  0.1105  0.1549  0.3809
28306SOL    HW193886  11.811   3.943   2.578 -0.1675 -1.0470 -0.0929
28306SOL    HW293887  11.887   3.851   2.672  0.6105  0.1076  0.4338
28307SOL     OW93888   0.233   0.487  10.251 -0.1044  0.2528  0.1583
28307SOL    HW193889   0.161   0.522  10.199 -0.1810  0.9583  0.7199
28307SOL    HW293890   0.305   0.547  10.237 -0.4849  1.1599  1.7739
28308SOL     OW93891  10.608   1.964  12.378 -0.5001 -0.6620 -0.0440
28308SOL    HW193892  10.684   1.965  12.436 -0.2906  0.0406 -0.3175
28308SOL    HW293893  10.572   2.052  12.385 -0.9557 -0.8193 -0.3530
28309SOL     OW93894   1.536  12.017   9.618 -0.2152  0.5283 -0.1977
28309SOL    HW193895   1.546  11.959   9.693  0.6024  0.2299 -0.5300
28309SOL    HW293896   1.525  11.957   9.544  1.0574  0.7779 -0.6035
28310SOL     OW93897   1.359   2.195   9.780 -0.8023 -0.4849 -0.4547
28310SOL    HW193898   1.287   2.152   9.735 -1.1574 -0.9554  0.5244
28310SOL    HW293899   1.438   2.152   9.746 -0.9663  0.0058 -1.5006
28311SOL     OW93900  12.087   0.468   8.465  0.1981 -0.0415 -0.4156
28311SOL    HW193901  12.168   0.452   8.513 -0.4193 -1.0829  0.3565
28311SOL    HW293902  12.044   0.539   8.513 -0.3119 -0.9296  0.4864
28312SOL     OW93903   7.221   4.831   7.449 -0.5395 -0.4241 -0.5135
28312SOL    HW193904   7.191   4.823   7.540 -1.4231  2.4636 -0.4437
28312SOL    HW293905   7.316   4.824   7.454 -0.5990 -0.6079  0.5837
28313SOL     OW93906  11.949   9.498   9.678 -0.3828  0.1394  0.9232
28313SOL    HW193907  11.942   9.588   9.709 -1.1085  0.2745  0.4014
28313SOL    HW293908  12.035   9.469   9.707 -0.1776  0.9706  1.1742
28314SOL     OW93909   2.071   2.933   0.919  0.3461 -0.7280  0.2811
28314SOL    HW193910   2.127   2.932   0.842  2.3297 -0.9084  1.6434
28314SOL    HW293911   2.048   3.025   0.931 -0.9104 -0.8305 -1.1178
28315SOL     OW93912   6.671   7.657   8.393  0.3166 -0.0633 -0.0398
28315SOL    HW193913   6.576   7.647   8.396  0.2712  0.3553  0.0034
28315SOL    HW293914   6.687   7.710   8.314  0.3803  1.2856  0.8465
28316SOL     OW93915   1.552   8.843   4.497  0.2086  0.5839 -0.2203
28316SOL    HW193916   1.573   8.799   4.414 -1.1870  0.5029 -0.5602
28316SOL    HW293917   1.637   8.858   4.538  0.8332 -0.8672 -0.8976
28317SOL     OW93918   8.671   5.135   8.215  0.2354  0.5578 -0.1065
28317SOL    HW193919   8.680   5.215   8.267 -0.6339  0.0701  0.8267
28317SOL    HW293920   8.761   5.107   8.199  0.5607  0.0272  2.2779
28318SOL     OW93921  10.640   8.008   5.286 -0.2297 -0.2513  0.1925
28318SOL    HW193922  10.547   8.009   5.308  0.2649  1.8715  2.6862
28318SOL    HW293923  10.673   7.928   5.327 -0.9005 -1.0029 -0.6824
28319SOL     OW93924   3.890   2.468   0.427  0.2911  0.3123 -0.5614
28319SOL    HW193925   3.806   2.465   0.473 -0.6366  1.9922 -2.0059
28319SOL    HW293926   3.955   2.447   0.494 -1.2030 -0.1997  0.7944
28320SOL     OW93927   5.991   1.691   8.680 -0.2830 -0.2034  0.4787
28320SOL    HW193928   6.001   1.607   8.725  2.8159 -0.4917 -0.4382
28320SOL    HW293929   6.036   1.678   8.596  0.7455  2.4772  0.5042
28321SOL     OW93930  12.139  12.065   9.823  0.1032  0.8103  0.0937
28321SOL    HW193931  12.059  12.101   9.860 -1.1122 -1.1029 -0.5025
28321SOL    HW293932  12.147  11.978   9.863  1.5542  0.7286 -0.3089
28322SOL     OW93933   2.550   6.939  11.397  0.4162 -0.2936  0.1779
28322SOL    HW193934   2.481   6.895  11.348 -0.1603  0.9456 -0.1657
28322SOL    HW293935   2.626   6.940  11.339  0.3458 -0.5897  0.0849
28323SOL     OW93936   0.475   1.801   3.766 -0.2805 -0.0789  0.0327
28323SOL    HW193937   0.401   1.749   3.797 -1.0274  0.2384 -1.1429
28323SOL    HW293938   0.434   1.876   3.722  0.7470  1.4628  1.5457
28324SOL     OW93939   1.107   6.524   4.795 -0.1327  0.2785  0.5209
28324SOL    HW193940   1.030   6.580   4.790 -0.6239 -0.2684  1.5573
28324SOL    HW293941   1.171   6.576   4.844  0.1517  0.7142 -0.2986
28325SOL     OW93942  11.891   8.046  10.314  0.3002 -0.3540 -0.1781
28325SOL    HW193943  11.983   8.065  10.298 -0.0810  0.5428 -1.4345
28325SOL    HW293944  11.862   8.115  10.374  0.4924 -0.7919  0.4330
28326SOL     OW93945   5.536  10.409   5.307 -0.4639  0.4466  0.1126
28326SOL    HW193946   5.615  10.375   5.350 -1.1025  0.8348  1.6609
28326SOL    HW293947   5.560  10.414   5.214  1.3323  0.5274  0.5332
28327SOL     OW93948  11.710   8.365   8.758  0.7178  0.5967 -0.1459
28327SOL    HW193949  11.627   8.322   8.739  1.4316 -0.2212 -1.5255
28327SOL    HW293950  11.724   8.425   8.684  1.7649  0.0876 -0.3717
28328SOL     OW93951  11.589   6.672   1.000 -0.3550 -0.0179 -0.4826
28328SOL    HW193952  11.518   6.737   1.005 -1.6174 -1.2698 -1.3688
28328SOL    HW293953  11.669   6.723   1.017 -1.4887  1.3330  1.1695
28329SOL     OW93954   3.780   7.440   3.009 -0.2166  0.0579  0.3247
28329SOL    HW193955   3.848   7.374   3.019  0.2580  0.3612 -0.7384
28329SOL    HW293956   3.809   7.493   2.934 -1.5243  0.3120 -0.0203
28330SOL     OW93957   5.538   4.691   3.497 -0.5109 -0.0380 -0.3695
28330SOL    HW193958   5.478   4.644   3.555 -1.2240  1.1449 -0.1222
28330SOL    HW293959   5.574   4.623   3.440 -0.5161 -1.0789  0.8303
28331SOL     OW93960  11.074   7.931   4.264 -0.5876  0.0227 -0.0285
28331SOL    HW193961  11.106   7.855   4.215  0.1700 -1.5991  2.7495
28331SOL    HW293962  11.001   7.897   4.316 -1.5756  1.7442 -0.2083
28332SOL     OW93963   3.129  11.851   6.695 -0.1956  0.1640 -0.2600
28332SOL    HW193964   3.224  11.852   6.685 -0.1914 -0.4455 -0.2837
28332SOL    HW293965   3.115  11.853   6.790 -0.1565  0.0495 -0.2522
28333SOL     OW93966   9.275  12.457   6.391 -0.3704  0.2215  0.1056
28333SOL    HW193967   9.317  12.507   6.461 -1.3019  1.8735 -0.4473
28333SOL    HW293968   9.228  12.386   6.436 -0.1283  0.6571  1.0597
28334SOL     OW93969  10.653   8.961  12.564  0.0994  0.3162  0.2690
28334SOL    HW193970  10.706   9.034  12.534 -0.6926  0.3279 -1.1724
28334SOL    HW293971  10.648   8.973  12.659  2.3078  0.5142  0.4071
28335SOL     OW93972   6.867   5.768   4.727  0.0357 -0.1948  0.0224
28335SOL    HW193973   6.880   5.810   4.642  0.2434 -0.8160 -0.2540
28335SOL    HW293974   6.938   5.705   4.735 -0.6128 -0.9302  0.1691
28336SOL     OW93975   1.215   4.237  12.566 -0.3882  0.0782  0.0178
28336SOL    HW193976   1.205   4.307  12.501  0.4492 -1.1906 -1.5525
28336SOL    HW293977   1.161   4.165  12.532 -1.2066 -0.1001  1.5855
28337SOL     OW93978  10.686   0.867   6.649 -0.4333 -0.0181 -0.4205
28337SOL    HW193979  10.737   0.925   6.706 -1.6947  0.8774 -0.1598
28337SOL    HW293980  10.723   0.780   6.664  2.0425  0.7756 -1.4164
28338SOL     OW93981   6.486   4.600   8.550 -0.0717  0.2841 -0.0097
28338SOL    HW193982   6.502   4.664   8.481 -1.2199  1.1067  0.4652
28338SOL    HW293983   6.479   4.516   8.505 -2.1761  0.9761 -1.1004
28339SOL     OW93984   9.087   9.675  11.244  0.5815  0.4838 -0.0931
28339SOL    HW193985   9.062   9.634  11.161  2.5948  0.7357 -0.8844
28339SOL    HW293986   9.085   9.769  11.226  0.2771  0.5714  0.3843
28340SOL     OW93987   7.894   1.801   8.981 -0.4733 -0.1596  0.0271
28340SOL    HW193988   7.941   1.795   9.065 -0.1177  1.4947 -0.0207
28340SOL    HW293989   7.957   1.770   8.916 -0.4848 -0.7365  0.2875
28341SOL     OW93990   7.744   9.238   1.429  0.7116 -0.2550 -0.0318
28341SOL    HW193991   7.714   9.165   1.375  0.8583 -1.0031  0.8759
28341SOL    HW293992   7.665   9.291   1.443  0.3335 -0.8942  0.3142
28342SOL     OW93993   3.090   1.254   1.009  0.2352  0.3284 -0.2303
28342SOL    HW193994   3.127   1.317   0.948  2.6215 -0.7895 -0.0293
28342SOL    HW293995   3.021   1.302   1.055  0.8049  2.2336 -1.2857
28343SOL     OW93996   9.713  10.538   8.608 -0.2567 -0.1219 -0.3176
28343SOL    HW193997   9.719  10.442   8.607 -1.6724 -0.2646  0.8314
28343SOL    HW293998   9.678  10.561   8.521  1.4011 -0.4933 -1.1224
28344SOL     OW93999   9.607   7.608   9.718 -0.0875 -0.3228 -0.2463
28344SOL    HW194000   9.667   7.675   9.750 -1.2422 -0.3294  2.2126
28344SOL    HW294001   9.630   7.529   9.766 -0.7161 -0.8690 -0.8116
28345SOL     OW94002   8.102   1.850   7.121  0.0644 -0.3333 -0.2665
28345SOL    HW194003   8.149   1.770   7.099  0.0094 -1.3849  2.9611
28345SOL    HW294004   8.019   1.843   7.073  1.6270 -0.0928 -3.2941
28346SOL     OW94005   6.498   0.109   9.458  0.1358  0.3285  0.4716
28346SOL    HW194006   6.503   0.105   9.363  0.1002 -0.1792  0.4881
28346SOL    HW294007   6.415   0.067   9.480  0.5694 -0.3991  0.7743
28347SOL     OW94008   9.690  10.914   3.593  0.1852 -0.6967  1.5116
28347SOL    HW194009   9.745  10.942   3.666  0.4572 -1.2864  1.5349
28347SOL    HW294010   9.751  10.886   3.526  0.0216  1.7403  0.2279
28348SOL     OW94011   4.964   3.722  11.908  0.2748  0.0754  0.0426
28348SOL    HW194012   5.033   3.674  11.954  0.2035  0.4623  0.5547
28348SOL    HW294013   5.010   3.784  11.852  0.4306 -1.5206 -1.7272
28349SOL     OW94014   0.002  10.329   0.716 -0.5032  0.4183 -0.0751
28349SOL    HW194015   0.057  10.281   0.777 -0.5792  1.0214  0.4888
28349SOL    HW294016  -0.087  10.301   0.737 -0.4988  0.3468 -0.1566
28350SOL     OW94017   5.396  10.103   5.177 -0.1143  0.3145 -0.2928
28350SOL    HW194018   5.437  10.115   5.262 -1.7810 -0.3664  0.6484
28350SOL    HW294019   5.305  10.130   5.189 -0.9567 -1.8289 -1.2131
28351SOL     OW94020   6.058   5.119   7.571  0.3243 -0.4791  0.4948
28351SOL    HW194021   6.141   5.159   7.545 -1.6638  1.8504 -2.9648
28351SOL    HW294022   6.039   5.158   7.657  2.3697 -0.4822  1.0055
28352SOL     OW94023   3.039  10.508   4.074  0.1622  0.4613  0.1306
28352SOL    HW194024   3.120  10.557   4.062 -0.7454  1.4721 -2.8503
28352SOL    HW294025   3.021  10.513   4.168  3.8163 -0.4009  1.0413
28353SOL     OW94026  11.695   0.733  10.533  0.3348  0.2639 -0.3980
28353SOL    HW194027  11.603   0.750  10.556  0.5779  1.4960 -0.2291
28353SOL    HW294028  11.739   0.723  10.618 -0.0742 -3.2461 -0.4568
28354SOL     OW94029   9.539   0.704   1.861  0.0177  0.5319  0.3361
28354SOL    HW194030   9.583   0.713   1.776 -0.5331  0.6537  0.0550
28354SOL    HW294031   9.572   0.777   1.913  0.0117  0.7262  0.0691
28355SOL     OW94032   1.740   9.914  11.963  0.0520 -0.1563 -0.2018
28355SOL    HW194033   1.752   9.851  11.892  2.1851  0.9436 -0.9326
28355SOL    HW294034   1.775   9.871  12.041 -1.0415 -0.8561 -0.0764
28356SOL     OW94035   6.986  11.412   8.585 -0.2870  0.5263  0.2153
28356SOL    HW194036   7.002  11.340   8.524 -1.0274  0.0214  0.6067
28356SOL    HW294037   7.036  11.486   8.548  1.2709 -0.4221  0.3104
28357SOL     OW94038   9.579   4.982  11.351 -0.4603 -0.1629 -0.1889
28357SOL    HW194039   9.636   5.024  11.416 -0.3937 -0.3116 -0.1507
28357SOL    HW294040   9.536   5.055  11.306 -1.9326 -0.0628  1.2745
28358SOL     OW94041   1.332   0.911   1.140  0.7118 -0.1301 -0.1218
28358SOL    HW194042   1.249   0.893   1.185  0.1299  1.0709 -0.6952
28358SOL    HW294043   1.331   0.853   1.064  0.6012 -0.4235  0.1009
28359SOL     OW94044   5.616   6.586  12.376  0.3450 -0.1629  0.0935
28359SOL    HW194045   5.576   6.672  12.371 -1.4082 -0.9140  0.4369
28359SOL    HW294046   5.620   6.555  12.286  1.4594  0.4559 -0.0889
28360SOL     OW94047   1.397   3.820   9.305  0.2783 -0.0299 -0.2136
28360SOL    HW194048   1.322   3.765   9.327  1.0241 -0.3700  1.6800
28360SOL    HW294049   1.371   3.908   9.330 -0.0683  0.1188 -1.0772
28361SOL     OW94050   4.196  10.200   9.863  0.7585  0.5319 -0.5340
28361SOL    HW194051   4.251  10.210   9.785  2.7812 -1.5435  0.5028
28361SOL    HW294052   4.250  10.234   9.934 -0.7153  1.5829  0.1467
28362SOL     OW94053   9.011   8.249  11.142  0.3237  0.4246  0.3888
28362SOL    HW194054   9.101   8.279  11.134  0.3783  1.1695  2.9053
28362SOL    HW294055   8.957   8.326  11.124  0.2776  0.5053  0.8434
28363SOL     OW94056   3.273   1.766   2.679 -0.2933 -0.0595 -0.0688
28363SOL    HW194057   3.240   1.771   2.590  1.8635 -0.2804 -0.9455
28363SOL    HW294058   3.197   1.784   2.734 -2.0316 -1.4634 -1.8669
28364SOL     OW94059   9.569  10.991   2.893 -0.6118 -0.3795 -0.1720
28364SOL    HW194060   9.553  10.949   2.808 -0.5725 -0.0961 -0.3205
28364SOL    HW294061   9.514  10.942   2.954 -1.8687  0.4104 -0.6306
28365SOL     OW94062  12.369   9.868   2.708 -0.5536  0.0941 -0.3028
28365SOL    HW194063  12.358   9.827   2.794 -0.5072 -0.4384 -0.5456
28365SOL    HW294064  12.333   9.804   2.647  0.0080  0.1896 -0.7389
28366SOL     OW94065   1.445   1.899   7.316  0.2369 -0.4864  0.4583
28366SOL    HW194066   1.522   1.922   7.368  1.3264 -0.3727 -1.1397
28366SOL    HW294067   1.404   1.827   7.364 -0.0000  0.9647  2.5416
28367SOL     OW94068  12.217  12.461   0.005  0.1854  0.1758 -0.0241
28367SOL    HW194069  12.260  12.392   0.054  0.9586  0.3759 -0.4045
28367SOL    HW294070  12.279  12.484  -0.064 -0.0275  1.2988  0.1400
28368SOL     OW94071   2.893   7.340   2.349 -0.1704 -0.0026  0.3184
28368SOL    HW194072   2.924   7.249   2.354 -1.0603 -0.4409 -1.2731
28368SOL    HW294073   2.798   7.333   2.346 -0.4808  1.2432  3.5265
28369SOL     OW94074   2.569   8.459   4.031 -0.4970 -0.4542 -0.0850
28369SOL    HW194075   2.582   8.488   4.121  1.7085  0.0633 -0.5218
28369SOL    HW294076   2.651   8.480   3.987 -0.8594 -2.3478 -1.7950
28370SOL     OW94077   7.323   9.019   2.834 -0.0709 -0.5023 -0.6453
28370SOL    HW194078   7.250   9.021   2.895  0.2086 -1.0072 -0.2888
28370SOL    HW294079   7.331   9.110   2.803 -1.4155 -0.6098 -1.3777
28371SOL     OW94080   5.349   3.572  12.559  0.3084  0.5442 -0.0077
28371SOL    HW194081   5.376   3.637  12.623  0.7377  2.2147 -1.7702
28371SOL    HW294082   5.413   3.502  12.566 -0.1731  0.2559  1.9565
28372SOL     OW94083   2.652   4.668   0.924  0.0566 -0.8811  0.2700
28372SOL    HW194084   2.685   4.746   0.969 -1.3373  0.2001 -0.4887
28372SOL    HW294085   2.728   4.634   0.875  0.3834  0.7687 -0.4235
28373SOL     OW94086   7.969   1.990  12.491 -0.6240  0.5466 -0.0783
28373SOL    HW194087   7.890   2.039  12.472 -0.2550  0.3708 -2.4064
28373SOL    HW294088   7.986   1.939  12.411  2.1031  0.9735  0.1217
28374SOL     OW94089   2.557  10.053   3.740 -0.1070  0.4156 -0.4100
28374SOL    HW194090   2.579  10.026   3.829 -0.3102  1.3086 -0.0853
28374SOL    HW294091   2.597  10.139   3.730  0.4537  0.0488 -1.4050
28375SOL     OW94092  11.053   7.604   2.654 -0.2702  0.1446  0.1145
28375SOL    HW194093  11.059   7.573   2.563 -2.3424  1.1251 -0.4229
28375SOL    HW294094  10.973   7.655   2.656 -0.1790  0.2898  2.4961
28376SOL     OW94095  12.410   6.014   3.473  0.2683 -0.6999  0.1793
28376SOL    HW194096  12.400   6.109   3.464 -1.3904 -0.6329  2.1382
28376SOL    HW294097  12.416   5.999   3.567 -0.8578 -2.6518 -0.0132
28377SOL     OW94098   1.198   9.207   8.880  0.1447 -0.3602  0.1264
28377SOL    HW194099   1.138   9.233   8.950 -0.9440  1.3815 -1.3675
28377SOL    HW294100   1.146   9.153   8.821  0.1330  0.7209 -0.9038
28378SOL     OW94101   2.410   9.959  11.862  0.0503  0.5216  0.2066
28378SOL    HW194102   2.327   9.981  11.821  0.9077 -0.1000 -1.9955
28378SOL    HW294103   2.431   9.872  11.828  1.3682  0.4603  1.0992
28379SOL     OW94104   7.560   1.537   3.358 -0.5779 -0.3980  0.3920
28379SOL    HW194105   7.550   1.572   3.447 -2.3372  1.7002 -0.5600
28379SOL    HW294106   7.494   1.468   3.353 -0.5174 -0.4800  0.6520
28380SOL     OW94107   1.251   4.363  11.504 -0.2681  0.8514 -0.9189
28380SOL    HW194108   1.159   4.360  11.478 -0.4455 -0.2477 -0.2460
28380SOL    HW294109   1.268   4.277  11.544  0.7358  1.4465  0.0197
28381SOL     OW94110   5.058   7.315  10.226 -0.0815  0.6295  0.3330
28381SOL    HW194111   5.031   7.328  10.317  1.5472 -0.3199  0.9817
28381SOL    HW294112   5.061   7.220  10.215 -0.7221  0.7294 -0.8730
28382SOL     OW94113   1.016   4.315   9.521  0.2677  0.2579 -0.6298
28382SOL    HW194114   0.966   4.273   9.590 -0.2718  0.7269 -0.7259
28382SOL    HW294115   0.958   4.312   9.444  0.1960  1.2159 -0.6243
28383SOL     OW94116   8.424   4.192   2.946 -0.2961 -0.2569 -0.1525
28383SOL    HW194117   8.361   4.189   2.874 -0.3045  1.7323 -0.2995
28383SOL    HW294118   8.475   4.112   2.937 -1.3134 -0.7983 -1.4212
28384SOL     OW94119  10.937   2.374   5.912  0.1885  0.7229 -0.6388
28384SOL    HW194120  10.990   2.447   5.944 -1.3337  0.4849  2.8406
28384SOL    HW294121  10.858   2.416   5.878 -0.3824  0.7651  0.7082
28385SOL     OW94122   3.699  12.119   3.791 -0.2431  0.3180 -0.3038
28385SOL    HW194123   3.749  12.074   3.858 -0.4793  0.4730 -0.0198
28385SOL    HW294124   3.725  12.211   3.799  0.7435  0.1447 -1.3281
28386SOL     OW94125   0.949  10.718   2.080  0.0006  0.6409 -0.1390
28386SOL    HW194126   1.023  10.766   2.119 -0.3769  3.0222 -2.1368
28386SOL    HW294127   0.888  10.786   2.052 -2.6163 -1.2278  0.6399
28387SOL     OW94128   2.467   5.942   2.728  0.3170 -0.1781  0.1967
28387SOL    HW194129   2.405   6.002   2.687 -0.1062 -0.3994  0.5020
28387SOL    HW294130   2.442   5.855   2.695 -1.4708 -0.6741  2.5606
28388SOL     OW94131   9.344   7.483   9.750  0.5035 -0.1398  0.2586
28388SOL    HW194132   9.326   7.405   9.697  0.1610  1.1903 -1.6916
28388SOL    HW294133   9.424   7.519   9.713 -0.3097  1.3924 -0.0686
28389SOL     OW94134   5.843   2.816   9.996 -0.6777  0.2769  0.7803
28389SOL    HW194135   5.782   2.761  10.046  0.4065 -0.3897  1.4028
28389SOL    HW294136   5.901   2.854  10.062 -1.0432  1.7498  0.3020
28390SOL     OW94137   0.258   1.571   5.365 -0.1332 -0.2364  0.4994
28390SOL    HW194138   0.191   1.620   5.319  0.2242  1.8284  2.0446
28390SOL    HW294139   0.211   1.524   5.434 -0.5361 -2.5817 -1.2323
28391SOL     OW94140   4.931   6.051  11.046 -0.3526 -0.6266 -0.5670
28391SOL    HW194141   4.965   5.968  11.013  0.9418 -1.9300  3.4677
28391SOL    HW294142   4.884   6.028  11.126  0.9988  2.5569  1.3502
28392SOL     OW94143  11.537  12.569  11.088  0.3475 -0.0018  0.1099
28392SOL    HW194144  11.588  12.523  11.155  1.0555  0.1000 -0.3488
28392SOL    HW294145  11.482  12.629  11.138 -1.0391 -1.7222  0.7597
28393SOL     OW94146   6.996   1.409   5.682  0.4542  0.1076 -0.1452
28393SOL    HW194147   7.038   1.405   5.768  1.5440  1.3701 -0.5796
28393SOL    HW294148   6.995   1.319   5.651 -2.4361 -0.8662  2.2681
28394SOL     OW94149   6.044  10.670   1.941 -0.1523  0.2763 -0.1762
28394SOL    HW194150   6.112  10.642   1.881 -0.6109 -0.0281 -0.5542
28394SOL    HW294151   5.970  10.694   1.885 -1.1931 -1.6179  0.3013
28395SOL     OW94152   7.217  11.972  12.293  0.3705  0.4821  0.0282
28395SOL    HW194153   7.302  11.944  12.259  0.6674  2.0975 -0.6058
28395SOL    HW294154   7.214  11.935  12.382  0.6683 -1.6300 -0.7785
28396SOL     OW94155   9.837   9.215  10.674 -0.4287 -0.3662  0.5029
28396SOL    HW194156   9.921   9.169  10.669  1.0220  2.1938 -0.5446
28396SOL    HW294157   9.860   9.301  10.711 -2.0358  1.4689 -2.4150
28397SOL     OW94158   4.493   0.194   9.403 -0.4112 -0.1941 -0.2665
28397SOL    HW194159   4.486   0.137   9.480 -0.5180  1.6802  1.2104
28397SOL    HW294160   4.442   0.150   9.336 -0.5214 -1.7925  0.8002
28398SOL     OW94161  10.923   8.502   5.086 -0.1967  0.0782 -0.4528
28398SOL    HW194162  10.881   8.497   5.001 -0.3740 -0.5715 -0.3347
28398SOL    HW294163  10.948   8.412   5.106 -2.2654 -0.2024  1.2259
28399SOL     OW94164   0.203  12.028  10.487 -0.2495  0.1216  0.3621
28399SOL    HW194165   0.188  12.076  10.406 -0.9018  0.2957  0.5793
28399SOL    HW294166   0.291  11.992  10.478  0.0613  0.9537 -0.0114
28400SOL     OW94167   4.205  10.518  11.532  0.1177 -0.1834 -0.2677
28400SOL    HW194168   4.186  10.426  11.514  2.3204 -0.9190  0.8723
28400SOL    HW294169   4.189  10.528  11.625 -4.2467  1.7941 -0.9368
28401SOL     OW94170   0.985   5.205   5.646  0.3982  0.2844 -0.3854
28401SOL    HW194171   0.969   5.291   5.607  0.0949  0.1475 -0.5662
28401SOL    HW294172   0.923   5.198   5.718  1.2330  0.7031  0.3894
28402SOL     OW94173   7.056   0.727   2.755 -0.3059  0.4048  0.3599
28402SOL    HW194174   7.070   0.633   2.746  1.4432  0.5573  1.0947
28402SOL    HW294175   7.140   0.766   2.733 -0.3008  1.6307  2.2858
28403SOL     OW94176   8.480  11.749   5.373  0.3212  0.0627  0.4879
28403SOL    HW194177   8.552  11.701   5.414  1.4061  0.3156 -1.0329
28403SOL    HW294178   8.407  11.687   5.375  1.1617 -0.9793  0.2563
28404SOL     OW94179   3.412   4.779  10.934  0.3558  0.2493  0.1939
28404SOL    HW194180   3.458   4.788  10.850 -1.7785 -2.3278 -1.3989
28404SOL    HW294181   3.339   4.840  10.928 -0.5660 -0.8780 -0.4673
28405SOL     OW94182   0.457   5.100   1.125  0.1905  0.0411  0.6383
28405SOL    HW194183   0.510   5.023   1.147 -0.8063 -0.7998  0.1806
28405SOL    HW294184   0.491   5.130   1.041  0.5337  0.0560  0.7813
28406SOL     OW94185   6.570  10.864  11.292 -0.2224  0.0340 -0.6156
28406SOL    HW194186   6.598  10.954  11.310 -0.5757 -0.2251  1.3702
28406SOL    HW294187   6.607  10.812  11.363 -3.2897 -0.7466  0.5707
28407SOL     OW94188   1.965  12.106   1.452 -0.6185 -0.4606 -0.4336
28407SOL    HW194189   1.960  12.015   1.478 -0.6614 -0.8551 -1.7410
28407SOL    HW294190   2.057  12.130   1.463 -0.5160 -0.8113 -0.5331
28408SOL     OW94191   4.345   1.663   6.871  0.1628  0.2224 -0.0651
28408SOL    HW194192   4.353   1.569   6.856 -1.0128 -0.1384  1.3851
28408SOL    HW294193   4.435   1.693   6.885  0.5335 -0.6821 -0.4514
28409SOL     OW94194   7.041   1.450   1.553  0.1156 -0.1408  0.1224
28409SOL    HW194195   7.090   1.386   1.605  0.7513  1.4326  1.5226
28409SOL    HW294196   7.087   1.532   1.566 -0.9438  0.7167 -1.2844
28410SOL     OW94197  11.015   8.773  10.712  0.4143 -0.4357 -0.2011
28410SOL    HW194198  11.102   8.768  10.673  0.0694  2.1385 -1.5031
28410SOL    HW294199  11.020   8.842  10.777 -0.7102 -0.0296 -0.5101
28411SOL     OW94200  11.374  10.559   0.050  0.3267 -0.2914  0.2799
28411SOL    HW194201  11.430  10.615  -0.005 -0.4106  1.5923  1.3298
28411SOL    HW294202  11.303  10.532  -0.008  0.6669 -0.0766 -0.2475
28412SOL     OW94203   6.159   4.122   8.165  0.5341  0.0619  0.3066
28412SOL    HW194204   6.133   4.040   8.207  0.2150 -0.5742 -1.0675
28412SOL    HW294205   6.157   4.187   8.235 -3.5639 -0.1766  0.6141
28413SOL     OW94206   3.630   7.776  10.980 -0.3179 -0.6837 -0.1130
28413SOL    HW194207   3.605   7.828  10.903 -0.2752  0.2605  0.4922
28413SOL    HW294208   3.599   7.827  11.055  0.1057 -1.3302  0.5229
28414SOL     OW94209   6.271   0.971   9.343  0.4768 -0.1135 -0.1532
28414SOL    HW194210   6.255   0.894   9.398  2.4253 -0.4050  0.0982
28414SOL    HW294211   6.319   0.937   9.268  1.8661  0.8797  0.2360
28415SOL     OW94212   4.607   0.919   2.992 -0.4807  0.2623 -0.3068
28415SOL    HW194213   4.616   1.010   2.962 -0.7499  0.3876 -0.0123
28415SOL    HW294214   4.542   0.881   2.932  0.5413 -0.1019 -1.2263
28416SOL     OW94215   0.707   6.563   7.160  0.5404  0.7049 -0.1652
28416SOL    HW194216   0.675   6.628   7.222  1.0904  0.1715  0.7043
28416SOL    HW294217   0.683   6.478   7.199 -0.4983  0.3744 -1.4594
28417SOL     OW94218  10.210   5.707   7.098 -0.7814  0.4709  0.0110
28417SOL    HW194219  10.275   5.696   7.167 -1.6852  2.2496  1.2346
28417SOL    HW294220  10.259   5.701   7.017  0.7912  1.0827  0.8841
28418SOL     OW94221   0.548   6.803   8.478 -0.4708  0.0467 -0.3111
28418SOL    HW194222   0.471   6.804   8.422 -1.1501  1.5464  0.5737
28418SOL    HW294223   0.516   6.832   8.564  0.8431 -0.5184  0.4071
28419SOL     OW94224   9.715   2.887   7.257  0.4813 -0.0154  0.1210
28419SOL    HW194225   9.794   2.891   7.203  0.6705  0.1302  0.4024
28419SOL    HW294226   9.733   2.947   7.330 -0.3318  0.8609 -0.3919
28420SOL     OW94227   6.589   4.019   4.735 -1.0800 -0.1678  0.1968
28420SOL    HW194228   6.653   4.069   4.787 -2.1369 -0.7534  2.1563
28420SOL    HW294229   6.527   4.084   4.704 -0.5404  0.1681 -0.1894
28421SOL     OW94230  11.029  10.556   8.751 -0.0792 -0.0586  0.3157
28421SOL    HW194231  10.963  10.609   8.794  0.1065 -0.0589  0.6040
28421SOL    HW294232  11.029  10.586   8.660 -0.7821 -0.3646  0.2138
28422SOL     OW94233   9.442   8.352   3.270  0.5570 -0.0888 -0.1063
28422SOL    HW194234   9.443   8.269   3.222 -1.6954 -1.6159  2.2365
28422SOL    HW294235   9.465   8.418   3.204  2.2197 -2.4783 -2.1149
28423SOL     OW94236   0.781   4.993   3.623 -0.3826 -0.0533 -0.3711
28423SOL    HW194237   0.846   4.971   3.689 -1.1941  0.6032  0.6898
28423SOL    HW294238   0.793   5.087   3.608 -0.7278 -0.0390 -0.5598
28424SOL     OW94239   4.721   2.822   0.963 -0.2743  0.0499 -0.0441
28424SOL    HW194240   4.701   2.913   0.983  1.5274  0.6507 -0.7982
28424SOL    HW294241   4.674   2.805   0.881  1.5200  1.2026 -1.3929
28425SOL     OW94242   6.093   4.968   4.013 -0.7061 -0.3796  0.4468
28425SOL    HW194243   6.039   5.033   3.968 -1.0328 -2.9096 -3.2446
28425SOL    HW294244   6.033   4.923   4.072 -0.7610  1.6465  2.0577
28426SOL     OW94245  12.131   5.854   9.520 -0.2282 -0.3043 -0.1393
28426SOL    HW194246  12.097   5.942   9.540  1.7915  1.0528 -2.1993
28426SOL    HW294247  12.226   5.865   9.519  0.0575 -2.4557 -0.7985
28427SOL     OW94248   1.113   3.414   1.252  0.5953  0.5402 -0.3935
28427SOL    HW194249   1.132   3.382   1.341 -0.0778  0.3404 -0.3201
28427SOL    HW294250   1.198   3.446   1.220  0.5696  1.8796  0.8222
28428SOL     OW94251   4.232  11.124  10.183 -0.0752  0.0076  0.2366
28428SOL    HW194252   4.327  11.127  10.186 -0.0931  0.3639  0.7581
28428SOL    HW294253   4.210  11.127  10.090  0.4188  0.1613  0.1228
28429SOL     OW94254   7.276   5.275   8.325 -0.4046  0.1079  0.4276
28429SOL    HW194255   7.316   5.243   8.406  0.8101  2.5547  0.8989
28429SOL    HW294256   7.320   5.227   8.256  1.3671  0.6757  1.0987
28430SOL     OW94257  11.981   4.963   4.099  0.0357  0.9942 -0.2366
28430SOL    HW194258  11.923   4.917   4.160  0.6297  2.1203  1.2338
28430SOL    HW294259  11.956   4.930   4.013 -0.5574 -0.9794  0.6288
28431SOL     OW94260  10.249   1.597  10.666 -0.2401 -0.2221 -0.4692
28431SOL    HW194261  10.319   1.637  10.718 -1.1008 -0.3752  0.8595
28431SOL    HW294262  10.291   1.572  10.584  0.9953  0.7166 -0.1544
28432SOL     OW94263   0.514   3.580   8.441 -0.1259 -0.0682 -0.0307
28432SOL    HW194264   0.571   3.518   8.484  2.3965  1.6017 -0.7479
28432SOL    HW294265   0.462   3.527   8.380  0.2905 -1.7042  0.9852
28433SOL     OW94266  10.454   5.773   8.862 -0.0140 -0.1591 -0.6655
28433SOL    HW194267  10.437   5.770   8.957  0.2855 -1.6485 -0.6336
28433SOL    HW294268  10.544   5.804   8.854 -0.0557  0.0149 -0.4575
28434SOL     OW94269   9.966   9.484  12.477  0.0238 -0.3532 -0.3307
28434SOL    HW194270   9.961   9.578  12.463 -1.9423 -0.4299 -0.4596
28434SOL    HW294271   9.956   9.473  12.572  0.2126 -0.4216 -0.3202
28435SOL     OW94272   0.175  11.142   8.596 -0.2454 -0.1128  0.1258
28435SOL    HW194273   0.257  11.162   8.641 -1.4194 -1.3033  3.0799
28435SOL    HW294274   0.181  11.049   8.574 -0.0402  0.2623 -1.4992
28436SOL     OW94275  12.204   3.840  12.035  0.1652 -0.5558  0.5588
28436SOL    HW194276  12.226   3.817  11.945 -1.5201 -1.3093  0.2917
28436SOL    HW294277  12.172   3.930  12.029  0.6560 -0.3796  0.5227
28437SOL     OW94278  10.089   5.086   6.033 -0.0334 -0.2824  0.1678
28437SOL    HW194279  10.173   5.041   6.037  0.6610  0.9912  0.3966
28437SOL    HW294280  10.096   5.145   5.959 -1.3435 -1.2963 -0.8168
28438SOL     OW94281   0.699   4.793   3.463 -0.3044 -0.0733  0.2680
28438SOL    HW194282   0.742   4.804   3.378 -1.9768  1.6425 -0.4286
28438SOL    HW294283   0.735   4.863   3.517 -0.6489  0.0275  0.3656
28439SOL     OW94284   8.591   4.791   0.037  0.2433  0.1897 -0.4211
28439SOL    HW194285   8.522   4.795  -0.029 -0.1561 -0.4314 -0.0565
28439SOL    HW294286   8.672   4.786  -0.013 -0.1016 -1.1413 -0.8944
28440SOL     OW94287   8.025   9.112   7.184 -0.0424 -0.3451  0.3076
28440SOL    HW194288   7.938   9.072   7.189 -0.4965  0.3445 -1.3369
28440SOL    HW294289   8.077   9.050   7.133 -0.6693  0.8945 -1.9993
28441SOL     OW94290   4.921   0.214   5.399  0.3996  0.4489 -0.0394
28441SOL    HW194291   4.912   0.247   5.489 -0.7666  0.9767 -0.3265
28441SOL    HW294292   4.999   0.258   5.365  0.0550  1.3283  0.2693
28442SOL     OW94293  11.011   7.718  12.086 -0.4924 -0.2917 -0.5917
28442SOL    HW194294  11.056   7.641  12.121 -0.7984 -0.6697 -1.0211
28442SOL    HW294295  10.928   7.720  12.132 -0.3345 -0.0033 -0.3154
28443SOL     OW94296   8.358   3.825   1.360  0.0838 -0.0839 -0.3547
28443SOL    HW194297   8.449   3.849   1.341  0.3945 -0.6535  0.3548
28443SOL    HW294298   8.335   3.877   1.437 -0.8135  1.4158 -1.5715
28444SOL     OW94299   2.488  10.086   4.655  0.5616  0.1031  0.4661
28444SOL    HW194300   2.578  10.094   4.625  0.2538  0.0781 -0.4730
28444SOL    HW294301   2.495  10.028   4.732  1.0757 -1.9826 -1.0532
28445SOL     OW94302  10.354   5.305  10.163  0.0324  0.3329  0.2468
28445SOL    HW194303  10.365   5.210  10.173  1.7248  0.4783 -0.0382
28445SOL    HW294304  10.291   5.329  10.232 -0.4812 -0.9877  0.2688
28446SOL     OW94305   4.124   8.125   7.662 -0.3811 -0.2644 -0.3754
28446SOL    HW194306   4.219   8.137   7.660 -0.3061 -0.8197 -0.4168
28446SOL    HW294307   4.103   8.109   7.754 -0.6984  1.7652 -0.0599
28447SOL     OW94308   3.306   1.852   1.108  0.4115 -0.2127 -0.4437
28447SOL    HW194309   3.371   1.810   1.052 -0.2137  0.4438 -1.7132
28447SOL    HW294310   3.331   1.944   1.109  0.5238 -0.2469  0.5269
28448SOL     OW94311   0.907   6.132   7.839 -0.1208 -0.2796  0.0190
28448SOL    HW194312   0.966   6.110   7.911 -0.1989 -0.5349  0.0037
28448SOL    HW294313   0.905   6.054   7.784 -1.3496 -0.6936  0.6153
28449SOL     OW94314   8.923  10.588   5.611  0.0012 -0.5435  0.1294
28449SOL    HW194315   9.014  10.610   5.631  0.3467 -1.0916 -0.7905
28449SOL    HW294316   8.926  10.499   5.576 -0.7996 -0.3199 -0.5523
28450SOL     OW94317   4.748   6.263   7.455  1.0873 -0.6179 -0.3331
28450SOL    HW194318   4.695   6.334   7.418 -1.4435 -2.1990  0.0125
28450SOL    HW294319   4.831   6.269   7.408 -0.0295  0.8592 -2.3027
28451SOL     OW94320   8.258   8.168   2.983 -0.5622 -0.2321 -0.2370
28451SOL    HW194321   8.238   8.085   3.027  1.7481 -0.2285  0.9387
28451SOL    HW294322   8.332   8.148   2.925  1.5078  1.3851  1.6861
28452SOL     OW94323   9.058   2.527  10.736 -0.1723 -0.3204 -0.1876
28452SOL    HW194324   9.064   2.531  10.641  1.5922  0.3386 -0.0985
28452SOL    HW294325   8.964   2.527  10.755 -0.6010  2.2444 -1.8334
28453SOL     OW94326   8.172  10.153   1.956 -0.0978  0.5949 -0.1184
28453SOL    HW194327   8.113  10.120   2.023 -0.8668  0.6088 -0.7765
28453SOL    HW294328   8.119  10.213   1.905  0.2403 -0.0535 -1.2598
28454SOL     OW94329   2.024   3.236   7.901 -0.4215 -0.4120 -0.2728
28454SOL    HW194330   1.963   3.163   7.908  1.1458 -1.8670 -1.1823
28454SOL    HW294331   2.020   3.263   7.810  0.3170 -0.5760 -0.3651
28455SOL     OW94332   2.682   6.321   6.727 -0.5045 -0.1730  0.0870
28455SOL    HW194333   2.640   6.404   6.705 -0.6409 -0.4906 -0.8764
28455SOL    HW294334   2.776   6.338   6.718 -0.1929  0.9658  3.6552
28456SOL     OW94335   8.790   9.546   1.884 -0.0322 -0.6013 -0.1128
28456SOL    HW194336   8.830   9.459   1.881  0.3007 -0.5477  1.7137
28456SOL    HW294337   8.815   9.582   1.969 -1.8513  0.4582  0.0498
28457SOL     OW94338  11.643   6.793   5.566 -0.1581  0.0134 -0.3477
28457SOL    HW194339  11.686   6.709   5.583  0.5901 -0.0678 -2.3667
28457SOL    HW294340  11.698   6.858   5.609 -0.0211 -0.4056  0.1246
28458SOL     OW94341   9.233   5.917   8.218  0.0098 -0.4501  0.3667
28458SOL    HW194342   9.142   5.888   8.223  0.0730 -1.7725 -2.9198
28458SOL    HW294343   9.237   5.996   8.271 -3.0602 -0.3150  0.5634
28459SOL     OW94344   2.151  10.536   5.279 -0.3042  0.5946  0.4114
28459SOL    HW194345   2.103  10.458   5.251 -0.9206  1.4334 -1.0042
28459SOL    HW294346   2.116  10.556   5.366  0.2498 -0.9831  1.0303
28460SOL     OW94347   5.398   4.636   2.742 -0.1763 -0.1224  0.3338
28460SOL    HW194348   5.320   4.591   2.711 -1.0452  0.8601  1.0061
28460SOL    HW294349   5.412   4.706   2.678  1.4069 -1.5126 -0.9390
28461SOL     OW94350   9.233  10.576   2.069 -0.5268 -0.0006 -0.0621
28461SOL    HW194351   9.177  10.648   2.099 -1.8529 -1.6664  1.7188
28461SOL    HW294352   9.322  10.604   2.090 -0.5511  2.6839 -2.8647
28462SOL     OW94353   9.771   3.969   7.407 -0.4083 -0.1407  0.4699
28462SOL    HW194354   9.715   3.893   7.423 -3.4726  1.8065 -0.1340
28462SOL    HW294355   9.817   3.947   7.326  0.2023 -2.0302  1.2660
28463SOL     OW94356   6.540  11.122   4.373 -0.0067 -0.5400  0.4434
28463SOL    HW194357   6.472  11.090   4.314 -0.3325 -1.4601  1.2849
28463SOL    HW294358   6.585  11.043   4.403  0.4704 -0.0498  1.0406
28464SOL     OW94359  10.266   5.916   8.759  0.3399 -0.1614  0.1966
28464SOL    HW194360  10.294   5.958   8.677  0.1484 -0.6947 -0.1478
28464SOL    HW294361  10.325   5.842   8.769 -0.2700 -0.6851  0.0103
28465SOL     OW94362  10.851   5.129   3.800  0.4632  0.1482  0.5701
28465SOL    HW194363  10.941   5.136   3.832  0.2052  3.5110  0.8786
28465SOL    HW294364  10.799   5.180   3.862 -1.2383  0.4553 -1.0021
28466SOL     OW94365   2.502   8.183  12.321 -0.5283  0.5912 -0.2698
28466SOL    HW194366   2.574   8.179  12.258 -0.8431 -0.9427 -0.5742
28466SOL    HW294367   2.424   8.195  12.267 -0.5239  2.6932  0.0829
28467SOL     OW94368   7.721   7.351   5.343 -0.5894 -0.1156 -0.1495
28467SOL    HW194369   7.754   7.274   5.298 -0.6108  1.2659 -2.6897
28467SOL    HW294370   7.719   7.326   5.436  0.6482 -2.6657 -0.7389
28468SOL     OW94371   6.422   4.521   1.452  0.3449  0.4686 -0.4902
28468SOL    HW194372   6.399   4.557   1.538  0.5100 -0.3412 -0.0997
28468SOL    HW294373   6.498   4.572   1.424  0.3590  0.6615 -0.1063
28469SOL     OW94374  10.123   3.075   3.338  0.1619  0.3325  0.0120
28469SOL    HW194375  10.035   3.090   3.372 -0.1888 -0.6275 -0.4215
28469SOL    HW294376  10.179   3.069   3.415 -0.3131  0.0112  0.3354
28470SOL     OW94377   7.301   0.280   6.818  0.4954  0.1291 -0.1022
28470SOL    HW194378   7.270   0.368   6.796  1.1261  0.4980  0.4395
28470SOL    HW294379   7.286   0.273   6.913  0.0458 -0.5153 -0.2152
28471SOL     OW94380   2.977  12.236   7.702 -0.1668 -0.1487 -0.2522
28471SOL    HW194381   2.894  12.283   7.715 -0.1672 -0.3311  0.4954
28471SOL    HW294382   3.030  12.261   7.778  0.0609 -0.8693 -0.1708
28472SOL     OW94383   8.393   1.094  10.513 -0.4563 -0.3652  0.4966
28472SOL    HW194384   8.362   1.063  10.428  0.1416  0.6977 -0.1336
28472SOL    HW294385   8.330   1.059  10.576 -0.8711 -1.2260 -0.3713
28473SOL     OW94386   6.725   0.452  10.184 -0.6684  0.6311  0.5495
28473SOL    HW194387   6.642   0.427  10.145  0.2240 -0.3150 -0.8560
28473SOL    HW294388   6.703   0.521  10.247 -2.4856  0.4230  0.1856
28474SOL     OW94389   0.962   6.961   4.627  0.0937  0.5215 -0.7306
28474SOL    HW194390   0.870   6.955   4.600 -0.0981 -0.8640  0.1119
28474SOL    HW294391   1.011   6.965   4.545 -0.7209  1.3992 -1.1880
28475SOL     OW94392   4.497   4.806   6.992  0.0203  0.5009 -0.1270
28475SOL    HW194393   4.545   4.885   7.014 -0.0516  0.5891 -0.2914
28475SOL    HW294394   4.473   4.816   6.900  0.6010 -0.0177 -0.3400
28476SOL     OW94395  10.370  11.297   4.731  0.0517  0.1287  0.4768
28476SOL    HW194396  10.372  11.391   4.750 -0.6533  0.2956 -0.2505
28476SOL    HW294397  10.331  11.258   4.810  0.2176  0.4527  0.7237
28477SOL     OW94398   3.585  11.499   1.106  0.3594 -0.2006 -0.2506
28477SOL    HW194399   3.583  11.571   1.043 -0.4518 -0.5733 -0.6682
28477SOL    HW294400   3.671  11.505   1.147  0.4748  0.7248 -0.6089
28478SOL     OW94401  11.082   5.728   5.614  0.1284 -0.1711 -0.3376
28478SOL    HW194402  11.023   5.701   5.684  0.5177 -0.0528  0.0348
28478SOL    HW294403  11.033   5.708   5.533 -0.4396 -0.0201 -0.0346
28479SOL     OW94404  11.300  10.400   6.062 -0.7458  0.2320 -0.1670
28479SOL    HW194405  11.387  10.369   6.089 -0.8195  0.3795  0.2437
28479SOL    HW294406  11.304  10.403   5.967 -0.8346 -1.3499 -0.2505
28480SOL     OW94407   0.685  10.418   4.508 -0.9144  0.0228  0.2917
28480SOL    HW194408   0.715  10.342   4.556  1.0773  1.5329  1.6102
28480SOL    HW294409   0.599  10.438   4.545 -0.0151  0.3279  2.3520
28481SOL     OW94410   8.761  11.024   6.964  0.0244  0.1430  0.1222
28481SOL    HW194411   8.788  10.966   7.036 -2.4770 -1.6350 -0.2254
28481SOL    HW294412   8.688  11.074   7.000 -0.2974  0.2931 -0.7309
28482SOL     OW94413  10.833  11.819   2.481 -0.0573  0.3773 -0.2444
28482SOL    HW194414  10.782  11.804   2.560 -1.0067 -0.6665 -1.0334
28482SOL    HW294415  10.920  11.842   2.513 -0.7019  1.0873  1.1090
28483SOL     OW94416   3.146   3.021   1.760 -0.1993  0.1217  0.5657
28483SOL    HW194417   3.183   3.060   1.681  0.6633 -2.0303 -0.1764
28483SOL    HW294418   3.211   3.037   1.828  1.2607 -1.8396 -0.2602
28484SOL     OW94419   8.165   0.594   8.222  0.4891 -0.7622  0.1869
28484SOL    HW194420   8.170   0.508   8.178  0.0030 -1.3205  1.1868
28484SOL    HW294421   8.242   0.595   8.280  0.7425 -0.3278 -0.1584
28485SOL     OW94422   3.793  11.229   5.759 -0.2416 -0.1142  1.1666
28485SOL    HW194423   3.761  11.154   5.809  1.4325 -0.2522  2.0868
28485SOL    HW294424   3.834  11.190   5.681  1.2715 -0.2619  1.9930
28486SOL     OW94425  11.232   4.681   7.335  0.7219 -0.4741  0.5918
28486SOL    HW194426  11.213   4.652   7.246 -1.4263  3.7979 -0.6163
28486SOL    HW294427  11.181   4.623   7.391 -1.9606 -0.2135 -1.4244
28487SOL     OW94428   5.868   6.103  11.538  0.1776  0.1669  0.1585
28487SOL    HW194429   5.828   6.169  11.593 -1.4455  0.4039 -1.2051
28487SOL    HW294430   5.873   6.143  11.451 -0.6619 -1.3667 -0.6633
28488SOL     OW94431   3.461   6.237  10.301 -0.4564  0.1469 -0.4560
28488SOL    HW194432   3.521   6.282  10.242  1.5920 -2.2931 -0.4349
28488SOL    HW294433   3.481   6.274  10.387  1.7411 -1.1427 -0.3211
28489SOL     OW94434  11.581   8.813   4.021 -0.6507  0.1734 -0.0568
28489SOL    HW194435  11.589   8.904   4.050 -2.2244  0.2192  0.2888
28489SOL    HW294436  11.665   8.774   4.044 -0.4429  1.1921  1.0566
28490SOL     OW94437  12.456   6.463  10.684 -0.1684 -0.0780 -0.4307
28490SOL    HW194438  12.382   6.463  10.624 -0.8141 -0.7289  0.3395
28490SOL    HW294439  12.416   6.449  10.770  0.6884  1.2358  0.2123
28491SOL     OW94440  12.426   2.985   1.290 -0.5606 -0.3869  0.1239
28491SOL    HW194441  12.504   2.960   1.339 -0.9965 -4.0444 -0.8063
28491SOL    HW294442  12.445   2.957   1.200 -1.8479  1.3620 -0.7405
28492SOL     OW94443   3.462   5.672  12.057  0.8589  0.3831 -0.4060
28492SOL    HW194444   3.507   5.588  12.047  1.4022  0.6064  0.1049
28492SOL    HW294445   3.413   5.683  11.976  0.6010 -0.5376 -0.3763
28493SOL     OW94446  10.141   3.656   3.178 -0.2528  0.1881  0.2746
28493SOL    HW194447  10.209   3.634   3.242  0.0573  1.5546  0.4455
28493SOL    HW294448  10.157   3.748   3.157 -2.0519  0.5500  0.3278
28494SOL     OW94449   7.332   9.604   8.388 -0.3422  0.0931 -0.4855
28494SOL    HW194450   7.272   9.541   8.427 -0.2710  0.9592  1.1113
28494SOL    HW294451   7.418   9.561   8.392 -0.6614 -0.7740 -1.9412
28495SOL     OW94452  10.072   3.130  11.725 -0.1046 -0.8053  0.0508
28495SOL    HW194453  10.016   3.151  11.800  0.2942  1.4459 -0.1853
28495SOL    HW294454  10.106   3.043  11.743 -3.3841 -2.1475  0.3651
28496SOL     OW94455   9.600   1.590  10.549  0.3042  0.4330 -0.7116
28496SOL    HW194456   9.654   1.668  10.564  0.6810  0.8410 -3.6145
28496SOL    HW294457   9.564   1.569  10.635  1.8241  2.5815  0.5498
28497SOL     OW94458   0.600   7.828   0.909 -0.1256 -0.3701 -0.1380
28497SOL    HW194459   0.677   7.880   0.888 -0.0357  0.2357  1.5491
28497SOL    HW294460   0.532   7.863   0.851  1.3625 -2.6309 -3.5219
28498SOL     OW94461   3.981   2.452   2.501 -0.4792  0.3370 -0.2016
28498SOL    HW194462   4.028   2.397   2.564  0.6196  1.4879  0.0172
28498SOL    HW294463   3.950   2.391   2.435  1.0675 -0.5150 -0.1819
28499SOL     OW94464   6.560   8.481   4.826  0.0951  0.0031 -0.5758
28499SOL    HW194465   6.643   8.517   4.858 -1.3790  1.2896  2.0690
28499SOL    HW294466   6.584   8.396   4.788  2.4093 -0.4353  1.6244
28500SOL     OW94467  12.438   7.749   2.329 -0.0094  0.6276  0.1513
28500SOL    HW194468  12.405   7.667   2.367 -0.2305  1.2162  1.2560
28500SOL    HW294469  12.481   7.794   2.401  1.1347  0.9737 -0.7180
28501SOL     OW94470   4.189   0.669   3.240  0.1912 -0.0554 -0.1148
28501SOL    HW194471   4.266   0.675   3.296  0.9150  1.0829 -1.2021
28501SOL    HW294472   4.153   0.582   3.259  1.8332 -0.6907  0.2636
28502SOL     OW94473   8.444  12.105   2.717  0.4421 -0.3702 -0.3547
28502SOL    HW194474   8.509  12.139   2.778 -0.7191 -2.6113  2.3506
28502SOL    HW294475   8.439  12.012   2.736 -2.2408 -0.6015 -1.6705
28503SOL     OW94476  10.902  10.259   7.561 -0.0764  0.4600 -0.1346
28503SOL    HW194477  10.842  10.243   7.488 -0.8339  0.6624  0.4326
28503SOL    HW294478  10.888  10.186   7.621 -1.5667  1.7195  1.1585
28504SOL     OW94479   8.168   2.400   1.750  0.4237  0.0536  0.4514
28504SOL    HW194480   8.168   2.381   1.844  0.5770 -0.1615  0.4077
28504SOL    HW294481   8.253   2.439   1.733  1.4295 -2.2208 -0.0603
28505SOL     OW94482   5.620   6.145   9.600 -0.0947 -0.8128 -0.1833
28505SOL    HW194483   5.649   6.105   9.518 -2.2366 -1.3088 -0.7752
28505SOL    HW294484   5.562   6.216   9.572 -0.3206 -0.5582  0.9059
28506SOL     OW94485  11.330   9.050   6.824  0.4977 -0.2820 -0.2555
28506SOL    HW194486  11.378   9.130   6.804  1.3320 -1.0263 -1.3722
28506SOL    HW294487  11.238   9.076   6.828  0.9960  1.7518  4.6497
28507SOL     OW94488   4.598   6.456   1.229 -0.8168  0.2435  0.1961
28507SOL    HW194489   4.544   6.532   1.251 -0.1927  0.8431 -0.2974
28507SOL    HW294490   4.668   6.491   1.175 -1.1846 -0.8747 -1.0751
28508SOL     OW94491   8.597   1.032   3.190 -0.3170  0.5567 -0.4344
28508SOL    HW194492   8.627   0.951   3.150  0.2762 -0.1133  1.3034
28508SOL    HW294493   8.527   1.062   3.132  0.7796 -0.1154 -2.1919
28509SOL     OW94494   7.050   8.436  11.698  0.1578  0.7715 -0.2595
28509SOL    HW194495   7.032   8.516  11.748 -0.7656 -0.0550  0.7880
28509SOL    HW294496   7.144   8.421  11.709  0.0483  0.8313  0.9146
28510SOL     OW94497   6.360  11.747   5.587  0.9368 -0.1818  0.0949
28510SOL    HW194498   6.332  11.656   5.574  1.1329 -0.0683 -1.2058
28510SOL    HW294499   6.405  11.746   5.672 -0.0282 -1.0609  0.6151
28511SOL     OW94500   4.611   4.301   8.269  0.3947  0.3653  0.4487
28511SOL    HW194501   4.648   4.359   8.202  1.3203  0.1507  0.7622
28511SOL    HW294502   4.539   4.351   8.307  0.4418  0.8484 -0.0869
28512SOL     OW94503   2.274   3.417   4.917  0.1436  0.0118 -0.4381
28512SOL    HW194504   2.220   3.339   4.927 -0.5525  0.5965  0.5895
28512SOL    HW294505   2.212   3.490   4.926  0.5119  0.7157 -2.8139
28513SOL     OW94506   7.798   6.054   5.360 -0.1526  0.6038  0.4317
28513SOL    HW194507   7.883   6.091   5.385 -0.2859  1.3949 -0.2737
28513SOL    HW294508   7.820   5.988   5.294 -0.0521  0.4667  0.5990
28514SOL     OW94509   5.208   1.403   0.690  0.6224  0.3773 -0.6153
28514SOL    HW194510   5.170   1.342   0.627  0.2706 -1.3819  1.2028
28514SOL    HW294511   5.271   1.454   0.639  0.3396 -0.9511 -2.3886
28515SOL     OW94512  11.786   0.557   3.396 -0.1043  0.7297  0.2919
28515SOL    HW194513  11.756   0.615   3.325 -1.9614  1.4955  1.6233
28515SOL    HW294514  11.870   0.593   3.422 -0.0964  1.3395 -0.5251
28516SOL     OW94515   3.389  12.430   4.785 -0.4097  0.2164  0.0738
28516SOL    HW194516   3.402  12.418   4.879 -1.6823 -0.4454  0.1935
28516SOL    HW294517   3.422  12.518   4.768 -2.2088  1.2693  1.5979
28517SOL     OW94518  11.030   1.236   2.909 -0.1775 -0.3250 -0.2535
28517SOL    HW194519  11.109   1.289   2.909 -0.9360  0.8431 -0.6832
28517SOL    HW294520  11.016   1.215   2.816 -0.9408  0.3799 -0.3087
28518SOL     OW94521  11.801   6.340   2.760 -0.1488  0.1102 -0.4705
28518SOL    HW194522  11.783   6.278   2.831 -0.7591 -1.4798 -1.9486
28518SOL    HW294523  11.896   6.349   2.759 -0.1669  0.9123  1.1139
28519SOL     OW94524   3.993   0.389   4.198 -0.3978 -0.0444 -0.3785
28519SOL    HW194525   3.972   0.408   4.289 -1.8610  0.5302 -0.8139
28519SOL    HW294526   4.013   0.296   4.196 -1.6268 -0.3360  0.3199
28520SOL     OW94527   0.012  11.815  12.227  0.0732  0.1613  0.5382
28520SOL    HW194528   0.025  11.903  12.191 -0.7872 -0.2289 -0.8011
28520SOL    HW294529   0.072  11.760  12.177 -0.6862 -0.2869  0.0954
28521SOL     OW94530   4.933   9.967   2.476 -0.1424  0.4870 -0.0629
28521SOL    HW194531   5.020   9.942   2.445  0.3821  2.1754 -0.0307
28521SOL    HW294532   4.875   9.949   2.402  0.5846  1.4121 -0.8817
28522SOL     OW94533   5.033  10.127   8.598 -0.0558  0.1868  0.3170
28522SOL    HW194534   4.965  10.194   8.609  0.2776  0.6193 -0.1642
28522SOL    HW294535   5.069  10.145   8.511  1.3775  0.6348  0.9666
28523SOL     OW94536   7.513   2.352   1.824 -0.5551 -0.8308 -0.0096
28523SOL    HW194537   7.462   2.430   1.799  1.0518  1.2037  2.5837
28523SOL    HW294538   7.465   2.316   1.899  0.3650 -0.4571  0.7698
28524SOL     OW94539   5.118   6.075   9.456 -0.4381 -0.2069 -0.1847
28524SOL    HW194540   5.158   6.015   9.519 -3.1939 -1.2736  0.7269
28524SOL    HW294541   5.064   6.133   9.510 -1.6808 -0.1553 -1.4268
28525SOL     OW94542  12.152   6.750  11.818  0.4109 -0.0295 -0.0979
28525SOL    HW194543  12.228   6.720  11.770 -0.4073 -0.9725 -0.8240
28525SOL    HW294544  12.165   6.717  11.907  0.6838 -0.4556 -0.2963
28526SOL     OW94545  10.854   4.267   7.779 -0.4081 -0.3456  0.4715
28526SOL    HW194546  10.848   4.362   7.768  3.0818 -0.0225  0.4384
28526SOL    HW294547  10.886   4.235   7.695 -1.7507 -1.6503  0.4097
28527SOL     OW94548   3.007   2.771   2.232  0.4307  0.0818  0.4057
28527SOL    HW194549   3.009   2.861   2.199 -0.4264  0.3637  1.0804
28527SOL    HW294550   2.915   2.745   2.222  0.7028 -0.7728  0.0851
28528SOL     OW94551   1.670   4.176   4.358  0.1050 -0.0643 -0.1073
28528SOL    HW194552   1.608   4.225   4.412  1.3547  1.4623  0.0104
28528SOL    HW294553   1.626   4.166   4.274 -0.7263  0.0453  0.3057
28529SOL     OW94554   1.923   1.522  11.314  0.6308 -0.1306 -0.3348
28529SOL    HW194555   1.990   1.508  11.247  2.1511 -0.4313  1.1730
28529SOL    HW294556   1.966   1.498  11.396 -0.3919  2.3382  1.0433
28530SOL     OW94557   2.354   6.397   8.177 -0.0843 -0.2779 -0.4253
28530SOL    HW194558   2.338   6.478   8.225 -0.8271  0.3523 -1.7002
28530SOL    HW294559   2.400   6.425   8.098  1.5370 -1.3531  0.0802
28531SOL     OW94560   3.446  12.072   5.173 -0.1131 -0.1969  0.3100
28531SOL    HW194561   3.535  12.106   5.165 -0.5659  1.1823  0.8422
28531SOL    HW294562   3.432  12.062   5.267 -0.5219 -0.3809  0.2338
28532SOL     OW94563   0.374   3.904   9.466  0.1474  0.0545  0.4435
28532SOL    HW194564   0.396   3.992   9.435  2.1224 -0.6819 -0.3953
28532SOL    HW294565   0.279   3.898   9.453  0.2220  1.4381 -1.1553
28533SOL     OW94566  10.199   3.691   2.332 -0.0742 -0.1407  0.4125
28533SOL    HW194567  10.274   3.673   2.388  0.6180  0.5212 -0.2859
28533SOL    HW294568  10.232   3.682   2.243 -0.5215  1.2699  0.0732
28534SOL     OW94569   6.698  11.785   6.466 -0.1166 -0.5396  0.2171
28534SOL    HW194570   6.609  11.766   6.436  0.3312 -3.7531  0.5740
28534SOL    HW294571   6.746  11.704   6.453  3.0042  1.2377 -0.5196
28535SOL     OW94572  10.162   8.345   6.965 -1.0001  0.0441 -0.0034
28535SOL    HW194573  10.213   8.411   7.013  0.8280 -2.0393  1.1060
28535SOL    HW294574  10.228   8.292   6.921 -2.4620 -0.6412 -1.4742
28536SOL     OW94575   6.660  12.424   9.702  0.2211  0.2780 -0.0955
28536SOL    HW194576   6.739  12.429   9.648  0.7947  0.3454  0.7324
28536SOL    HW294577   6.634  12.515   9.715  1.7319  0.4860  2.0706
28537SOL     OW94578   5.567  10.537   3.106 -0.1939 -0.1550  0.1520
28537SOL    HW194579   5.654  10.572   3.127  0.9663 -1.2063 -2.4363
28537SOL    HW294580   5.550  10.568   3.017 -1.4953 -1.7573 -0.1957
28538SOL     OW94581   1.166   6.086   1.719  0.6899 -0.1458  0.5993
28538SOL    HW194582   1.191   6.102   1.810 -0.8381  0.2315  0.9737
28538SOL    HW294583   1.073   6.106   1.715 -0.0368 -3.1909 -0.3070
28539SOL     OW94584   0.674   6.950   3.110 -0.1569 -0.0368  0.1319
28539SOL    HW194585   0.613   7.023   3.125 -0.7295 -0.4648 -0.0738
28539SOL    HW294586   0.690   6.952   3.015  0.3993  0.2664  0.2299
28540SOL     OW94587   4.533   9.172   4.781 -0.1619  0.4138  0.0440
28540SOL    HW194588   4.550   9.084   4.749 -1.4510  0.1287  0.0660
28540SOL    HW294589   4.566   9.172   4.870  0.9354  0.3387 -0.3551
28541SOL     OW94590   8.064  11.035   3.776  0.0479 -0.5044 -0.1413
28541SOL    HW194591   7.973  11.038   3.806 -0.2233 -1.7299 -0.7819
28541SOL    HW294592   8.113  11.004   3.852 -0.1444 -0.3697  0.0386
28542SOL     OW94593   6.231   5.686  11.437 -0.0023 -0.0107 -0.1394
28542SOL    HW194594   6.264   5.734  11.361  0.3242  0.0352  0.0304
28542SOL    HW294595   6.171   5.747  11.480  0.1214  0.1089 -0.1361
28543SOL     OW94596   6.461   0.742   8.653 -0.2263 -0.0087 -0.0143
28543SOL    HW194597   6.492   0.830   8.674  0.9332 -0.0473 -1.4078
28543SOL    HW294598   6.537   0.686   8.666 -0.3400 -0.4673 -1.1537
28544SOL     OW94599  12.322  12.248   3.406 -0.5789  0.3366  0.8806
28544SOL    HW194600  12.258  12.198   3.355  0.8901 -0.7119  0.0151
28544SOL    HW294601  12.351  12.317   3.347  1.9930 -1.5650 -0.2871
28545SOL     OW94602   2.411  11.386   4.371  0.0633  0.0669 -0.2751
28545SOL    HW194603   2.502  11.400   4.345 -0.5211  0.1459 -2.4489
28545SOL    HW294604   2.371  11.473   4.366  0.2252  0.4053  2.5238
28546SOL     OW94605  10.497   2.640   4.193 -0.3022  0.3450 -0.0950
28546SOL    HW194606  10.537   2.658   4.108 -0.7411 -3.1639 -1.1763
28546SOL    HW294607  10.461   2.725   4.220  2.9632  2.4504 -1.5805
28547SOL     OW94608   2.722  10.361   8.797  0.2860 -0.4303 -0.0846
28547SOL    HW194609   2.681  10.289   8.844 -0.2002 -0.5044 -0.6094
28547SOL    HW294610   2.804  10.326   8.765 -0.0783 -0.8502 -0.5810
28548SOL     OW94611   9.471   9.881   5.511 -0.6283  0.1285  0.3269
28548SOL    HW194612   9.432   9.898   5.426  0.5815  0.9375 -0.0864
28548SOL    HW294613   9.557   9.845   5.491 -0.0557  0.9758  1.1961
28549SOL     OW94614   6.697   4.421   0.138  0.0271 -0.1631 -0.3344
28549SOL    HW194615   6.756   4.371   0.081  1.2314 -0.1541  0.8541
28549SOL    HW294616   6.734   4.509   0.138 -0.7801  0.1781 -0.6278
28550SOL     OW94617   8.424   3.774   4.558 -0.4052  0.4521  0.5208
28550SOL    HW194618   8.506   3.731   4.583  0.5737  2.4742  1.0127
28550SOL    HW294619   8.418   3.760   4.464 -0.2052 -0.8329  0.6691
28551SOL     OW94620  11.897  11.691   1.549  0.2564 -0.1711  0.3597
28551SOL    HW194621  11.841  11.763   1.521 -0.2672 -0.9654 -0.7119
28551SOL    HW294622  11.897  11.697   1.645 -0.8335  0.4663  0.3391
28552SOL     OW94623   4.184   0.935   3.930  0.5796 -0.2072 -0.1888
28552SOL    HW194624   4.267   0.892   3.910  0.6834 -0.4842  0.7770
28552SOL    HW294625   4.146   0.881   4.000 -0.2485  0.1167 -0.3765
28553SOL     OW94626   1.456   4.487   9.931 -0.0951  0.3856 -0.0810
28553SOL    HW194627   1.401   4.565   9.930 -1.1560 -0.3430 -0.6156
28553SOL    HW294628   1.415   4.428   9.994 -1.0025 -0.8551 -1.7225
28554SOL     OW94629   2.047   0.821   7.030 -0.0876 -0.0400  0.4787
28554SOL    HW194630   2.020   0.791   7.117  1.4658 -0.8240  0.7231
28554SOL    HW294631   1.998   0.902   7.017 -1.5843 -0.7557  1.3785
28555SOL     OW94632  11.040   7.068  10.843 -0.4334 -0.3920  0.3616
28555SOL    HW194633  11.110   7.029  10.895 -1.0187 -1.2095  0.5496
28555SOL    HW294634  11.005   7.138  10.898 -1.9134 -2.0837  1.6569
28556SOL     OW94635   0.265   7.905   5.617 -0.3281  0.1027  0.4468
28556SOL    HW194636   0.344   7.958   5.628 -0.1553  0.2266 -1.0600
28556SOL    HW294637   0.296   7.815   5.618 -0.2708  0.1258  0.6457
28557SOL     OW94638   9.419   6.363   4.296 -0.0097 -0.1092 -0.7095
28557SOL    HW194639   9.424   6.367   4.391 -0.7190  2.2394 -0.7109
28557SOL    HW294640   9.424   6.454   4.267  0.9423 -0.7972 -2.9911
28558SOL     OW94641   6.694   5.272   9.473  0.2307  0.0659  0.7341
28558SOL    HW194642   6.630   5.213   9.514  1.7560 -0.5887  2.2951
28558SOL    HW294643   6.674   5.267   9.380 -1.4541 -0.7580  1.0845
28559SOL     OW94644  11.140   3.767   9.379 -0.1392  0.4017  0.6357
28559SOL    HW194645  11.047   3.766   9.355 -0.6498 -3.1736  2.0923
28559SOL    HW294646  11.141   3.802   9.468  0.1617  1.8409  0.0934
28560SOL     OW94647   9.056  10.023   2.503  0.3648 -0.3023  0.0350
28560SOL    HW194648   9.077  10.094   2.563  1.2925  0.3086 -0.9865
28560SOL    HW294649   9.140   9.980   2.485  0.0502 -0.6905 -0.5643
28561SOL     OW94650   0.024   8.186  12.201  0.1792 -0.0489  0.0064
28561SOL    HW194651  -0.067   8.211  12.216  0.4884  0.7432  0.6792
28561SOL    HW294652   0.030   8.097  12.235 -0.0995  0.2874  0.9921
28562SOL     OW94653   3.816   8.560   1.142 -0.1593 -0.2908  0.3717
28562SOL    HW194654   3.908   8.569   1.169 -0.0574 -0.7051  0.1652
28562SOL    HW294655   3.767   8.559   1.225 -0.1620  1.7561  0.4488
28563SOL     OW94656   2.953   5.486   7.653  0.0049  0.8725 -0.6805
28563SOL    HW194657   3.009   5.446   7.720  0.5339  0.4027 -1.3883
28563SOL    HW294658   3.014   5.508   7.582 -0.3476  2.4942 -0.5150
28564SOL     OW94659   9.251   7.594   7.207  0.1137  0.3287  0.5644
28564SOL    HW194660   9.319   7.606   7.141  0.3523  0.4073  0.8188
28564SOL    HW294661   9.232   7.683   7.238 -0.1539  0.3124  0.4443
28565SOL     OW94662   4.584   0.458  12.545  0.3404 -0.0022  0.6352
28565SOL    HW194663   4.679   0.453  12.559  0.4712 -2.1082 -0.4959
28565SOL    HW294664   4.552   0.373  12.576 -0.9509  0.0969 -0.3775
28566SOL     OW94665   5.539   7.259   5.538 -0.1706  0.4542 -0.1849
28566SOL    HW194666   5.552   7.233   5.629 -0.3775 -2.4221 -0.8899
28566SOL    HW294667   5.619   7.306   5.515  0.0123  0.9549  1.3646
28567SOL     OW94668   4.349   9.940  11.827  0.0319  0.0422  0.2423
28567SOL    HW194669   4.348   9.845  11.813 -1.4273 -0.0950  1.0865
28567SOL    HW294670   4.394   9.951  11.911  1.4448  0.2319 -0.5089
28568SOL     OW94671   2.869   6.059   7.976  0.3135 -0.3091  0.1051
28568SOL    HW194672   2.875   5.964   7.961 -1.5279 -0.7054  1.5003
28568SOL    HW294673   2.846   6.095   7.890 -0.4165 -1.3244 -0.1444
28569SOL     OW94674   0.026  10.618   7.509 -0.6463 -0.3156 -0.2525
28569SOL    HW194675   0.089  10.665   7.454 -0.6667  1.5205  1.1996
28569SOL    HW294676  -0.024  10.564   7.447  0.6208  0.1551 -1.7634
28570SOL     OW94677   3.711   2.361   6.757  0.0494 -0.2668 -0.6089
28570SOL    HW194678   3.749   2.429   6.701  2.0714  0.2142  1.2151
28570SOL    HW294679   3.668   2.408   6.827  1.8369 -0.7774  0.9075
28571SOL     OW94680   0.854   4.327   8.299 -0.0085 -0.7097 -0.2818
28571SOL    HW194681   0.942   4.356   8.277 -0.8261  1.5489 -0.8112
28571SOL    HW294682   0.809   4.321   8.214 -1.6009  2.6562  0.1585
28572SOL     OW94683  10.473   6.271  10.543 -0.4836  0.2390 -0.1111
28572SOL    HW194684  10.404   6.328  10.508 -0.6827 -0.3618 -0.7284
28572SOL    HW294685  10.553   6.322  10.533 -0.7047  0.5548 -0.3270
28573SOL     OW94686  12.477   3.314   3.938 -0.3039  0.0460  0.2255
28573SOL    HW194687  12.562   3.339   3.974  0.5428 -1.3922 -0.6662
28573SOL    HW294688  12.426   3.395   3.940  0.9164  0.8418  1.2166
28574SOL     OW94689  11.954   6.830   3.703  0.0152 -0.2182  0.3886
28574SOL    HW194690  11.895   6.853   3.632  0.5789  0.3832  0.1041
28574SOL    HW294691  11.908   6.763   3.753 -0.0693 -1.2018 -0.9778
28575SOL     OW94692   6.629   3.135  11.222  0.0821  0.2014  0.1509
28575SOL    HW194693   6.617   3.163  11.132 -2.6670 -3.5011 -0.8670
28575SOL    HW294694   6.720   3.157  11.242 -0.0790  4.0501 -2.2674
28576SOL     OW94695   7.650  11.432   9.800 -0.0106  0.5586  0.3512
28576SOL    HW194696   7.617  11.510   9.754 -2.0437  0.6963  1.9053
28576SOL    HW294697   7.584  11.365   9.783  1.1125 -0.4920  0.0284
28577SOL     OW94698  10.856   3.704   8.528  0.2680  0.7271  0.3296
28577SOL    HW194699  10.949   3.694   8.509  0.6039  0.7197  1.8457
28577SOL    HW294700  10.826   3.614   8.544  0.2631  0.8226  0.8951
28578SOL     OW94701   6.450   9.968   3.361  0.0971  0.2215  0.2106
28578SOL    HW194702   6.444  10.059   3.334  2.5552  0.4517  0.2867
28578SOL    HW294703   6.364   9.931   3.339 -0.9508  2.5209  0.2021
28579SOL     OW94704   7.406   4.321   1.717 -0.2181 -0.2111  0.4530
28579SOL    HW194705   7.383   4.297   1.807  2.3971 -0.4836  1.1335
28579SOL    HW294706   7.364   4.254   1.663 -0.4343 -1.0491  1.6186
28580SOL     OW94707   0.492  10.073   9.948  0.1514 -0.3333  0.0465
28580SOL    HW194708   0.407  10.052   9.988  0.2884 -0.7876  0.1018
28580SOL    HW294709   0.499  10.168   9.956 -0.0753 -0.3578  0.5964
28581SOL     OW94710   7.288   6.120   1.988 -0.3373  0.0823 -0.3233
28581SOL    HW194711   7.279   6.151   1.898  0.4062 -2.1519 -1.2411
28581SOL    HW294712   7.199   6.118   2.023 -0.6375  0.8930 -1.0119
28582SOL     OW94713   8.277  11.382   8.189  0.6733 -0.1920  0.6767
28582SOL    HW194714   8.352  11.372   8.131 -1.0290 -1.4645 -1.4902
28582SOL    HW294715   8.231  11.298   8.183 -2.6480  1.5153 -0.8062
28583SOL     OW94716  10.744  12.423  10.856  0.4300 -0.0157  0.2723
28583SOL    HW194717  10.750  12.449  10.948  1.4447  0.0103  0.2112
28583SOL    HW294718  10.653  12.438  10.833  0.4035  1.0322  0.9672
28584SOL     OW94719  11.220   0.888   8.332 -0.8194 -0.0075 -0.0079
28584SOL    HW194720  11.263   0.968   8.361 -0.2200  1.3258 -4.0133
28584SOL    HW294721  11.138   0.886   8.380 -0.7991  2.9540  0.3250
28585SOL     OW94722   9.588  11.913   8.365 -0.8265 -0.4480  0.5919
28585SOL    HW194723   9.499  11.948   8.372 -0.9919 -0.6601 -0.3196
28585SOL    HW294724   9.611  11.925   8.273  0.0967 -0.3871  0.8259
28586SOL     OW94725  10.014   6.702   0.460 -0.4804 -0.4502  0.3499
28586SOL    HW194726   9.929   6.682   0.497 -0.9028 -1.5477 -1.0992
28586SOL    HW294727  10.020   6.798   0.462 -2.5782 -0.2076 -1.1880
28587SOL     OW94728   4.764   4.490   5.200  0.6944  0.0875 -0.2772
28587SOL    HW194729   4.777   4.576   5.160  0.8664  0.0335 -0.3377
28587SOL    HW294730   4.705   4.506   5.273 -1.2004 -0.1019 -1.6813
28588SOL     OW94731   9.544   8.224   7.699 -0.3449  0.1591  0.6357
28588SOL    HW194732   9.498   8.286   7.757  1.1129  0.8509  1.1075
28588SOL    HW294733   9.626   8.205   7.745  0.4626  0.0378 -0.7948
28589SOL     OW94734   6.263   3.694   8.131  0.2249 -0.3627 -0.0849
28589SOL    HW194735   6.236   3.629   8.066 -0.4236  1.2076 -1.4472
28589SOL    HW294736   6.356   3.707   8.115  0.8964 -2.4381  1.6089
28590SOL     OW94737  10.238   2.908  11.822 -0.1078  0.0459  0.0144
28590SOL    HW194738  10.272   2.912  11.911 -0.8427 -1.4211  0.3856
28590SOL    HW294739  10.315   2.889  11.768  0.2186  0.1913  0.4202
28591SOL     OW94740   5.862   5.452   7.970 -0.0947  0.4046 -0.7921
28591SOL    HW194741   5.901   5.500   8.043 -1.8617  1.3205 -0.3977
28591SOL    HW294742   5.774   5.432   7.999 -0.3920 -0.4033 -2.1768
28592SOL     OW94743  11.928   5.443  10.938 -0.0438  0.4374 -0.1528
28592SOL    HW194744  12.008   5.496  10.943  1.5973 -1.8457 -0.8525
28592SOL    HW294745  11.919   5.406  11.025 -1.1387  1.6983  0.3061
28593SOL     OW94746   0.835   5.530   8.363  0.0501 -0.2888  0.2649
28593SOL    HW194747   0.833   5.620   8.395 -2.1919  0.3277 -1.3498
28593SOL    HW294748   0.760   5.488   8.404  1.0590 -1.4607  0.9727
28594SOL     OW94749  10.598  11.917  11.119  0.3077  0.4948  0.1118
28594SOL    HW194750  10.683  11.917  11.163  0.7100 -0.3455 -0.6247
28594SOL    HW294751  10.542  11.861  11.172  1.1921 -1.6820 -1.1026
28595SOL     OW94752   0.587   5.539   8.171 -0.1548 -0.0814  0.1074
28595SOL    HW194753   0.670   5.541   8.219 -0.4330 -1.4568  0.6923
28595SOL    HW294754   0.612   5.552   8.079  0.4374  2.0491  0.5075
28596SOL     OW94755   1.165   8.232   6.507  0.1089 -0.0385 -0.1317
28596SOL    HW194756   1.135   8.317   6.538 -1.7922 -1.2151  1.4874
28596SOL    HW294757   1.258   8.245   6.486  0.3499  1.9659  1.8650
28597SOL     OW94758   2.189   3.447   0.844  0.6652 -0.0731 -0.4028
28597SOL    HW194759   2.278   3.479   0.864  0.8332 -0.5413 -0.3896
28597SOL    HW294760   2.136   3.477   0.919  0.7538  0.4288 -0.5339
28598SOL     OW94761   0.509   4.303   1.520  0.0359  0.1936 -0.2358
28598SOL    HW194762   0.552   4.363   1.458 -1.3996  0.0162 -1.4415
28598SOL    HW294763   0.560   4.312   1.600 -0.6908  3.8090 -0.0226
28599SOL     OW94764  11.872   9.996   3.173  0.5209 -0.5887  0.1140
28599SOL    HW194765  11.817   9.998   3.252  0.6931  0.1236  0.2199
28599SOL    HW294766  11.812   9.971   3.103  0.6538 -2.7210  0.6891
28600SOL     OW94767   7.007  12.379   7.681  0.3990  0.4706 -0.5996
28600SOL    HW194768   6.986  12.386   7.588 -1.9227  0.9293 -0.1095
28600SOL    HW294769   7.018  12.470   7.709 -0.4103  0.4403 -0.1503
28601SOL     OW94770   4.689   2.999   4.977  0.2376 -0.0253  0.1317
28601SOL    HW194771   4.622   3.063   4.956  0.9144  0.9873  0.9436
28601SOL    HW294772   4.729   2.978   4.893 -1.0086 -0.5785 -0.3452
28602SOL     OW94773  11.721   4.835   7.607 -0.1155 -0.1461  0.0571
28602SOL    HW194774  11.676   4.858   7.688  1.0206  0.8052  0.4369
28602SOL    HW294775  11.654   4.793   7.553 -0.4446 -2.6489  2.2434
28603SOL     OW94776   9.524   5.874   0.524 -0.5105 -0.2989  0.3617
28603SOL    HW194777   9.507   5.957   0.480 -0.4224 -1.6455 -2.4860
28603SOL    HW294778   9.437   5.836   0.537 -0.4672 -0.5512 -0.0658
28604SOL     OW94779   1.348   6.324   0.025  0.8735 -0.0103  0.6535
28604SOL    HW194780   1.336   6.353  -0.065  0.6400 -1.7213  0.0894
28604SOL    HW294781   1.368   6.404   0.074  0.2436  1.0620 -0.7624
28605SOL     OW94782   9.960   7.523   8.582  0.0775  0.3006  0.3572
28605SOL    HW194783   9.990   7.563   8.501 -0.6770 -0.5098 -0.3462
28605SOL    HW294784   9.865   7.518   8.573 -0.0380  0.3946  1.3878
28606SOL     OW94785   7.227   7.162   0.595  0.0089 -0.2867  0.3327
28606SOL    HW194786   7.184   7.200   0.671 -1.3415 -1.6234  0.2970
28606SOL    HW294787   7.319   7.154   0.621 -0.0149  1.2390  0.9882
28607SOL     OW94788   6.517  11.237  10.228 -0.4174  0.3868  0.4317
28607SOL    HW194789   6.424  11.258  10.218 -0.6401 -0.8603 -0.4006
28607SOL    HW294790   6.527  11.152  10.183  0.8844 -0.0569  1.5030
28608SOL     OW94791   8.248   1.460   9.383  0.1305 -0.2163  0.2713
28608SOL    HW194792   8.319   1.463   9.447  1.0563 -0.8331 -0.6893
28608SOL    HW294793   8.280   1.512   9.309 -2.5549  4.0762  1.7817
28609SOL     OW94794   5.364   2.986   8.742  0.0100 -0.5195 -0.2453
28609SOL    HW194795   5.297   3.015   8.680 -0.5817 -0.9675  0.1664
28609SOL    HW294796   5.383   2.896   8.716  1.1572 -0.0971 -0.9413
28610SOL     OW94797   7.491   5.062   3.885 -0.0886 -0.2213 -0.7792
28610SOL    HW194798   7.412   5.098   3.926  0.7666 -0.8699  1.5905
28610SOL    HW294799   7.461   5.032   3.799 -2.2141  0.3858 -0.3210
28611SOL     OW94800   0.328   7.157  12.266  0.2743 -0.0951  0.1991
28611SOL    HW194801   0.295   7.073  12.298 -1.1967  0.0197 -0.9026
28611SOL    HW294802   0.254   7.218  12.279  2.0815  1.7194  3.3120
28612SOL     OW94803   7.491   7.882  10.980 -0.1880  0.1574 -0.3981
28612SOL    HW194804   7.407   7.835  10.985  0.9398 -1.9840 -0.5156
28612SOL    HW294805   7.521   7.888  11.070 -0.9155  1.9132 -0.2216
28613SOL     OW94806   3.015   8.655   0.494 -0.2629 -0.0700 -0.4457
28613SOL    HW194807   2.981   8.585   0.439 -0.5282 -0.3348  0.0532
28613SOL    HW294808   2.982   8.735   0.453  1.5020 -0.0925 -2.0645
28614SOL     OW94809   9.777   5.447   2.568  0.1549 -0.4168  0.0855
28614SOL    HW194810   9.701   5.390   2.567  0.0842 -0.3353  0.6159
28614SOL    HW294811   9.773   5.495   2.485 -1.8698  1.5530  1.2003
28615SOL     OW94812   1.213   0.771   6.229  0.7077  0.8937 -0.1570
28615SOL    HW194813   1.286   0.830   6.249  0.6663  1.1778 -0.8024
28615SOL    HW294814   1.221   0.755   6.135 -0.4543  1.4788 -0.3761
28616SOL     OW94815  12.217   4.764   6.078 -0.1055  0.4350 -0.3167
28616SOL    HW194816  12.253   4.803   6.158 -1.5059 -0.0284  0.5774
28616SOL    HW294817  12.242   4.825   6.009  0.3080  1.3545  0.6101
28617SOL     OW94818   9.812   6.183  10.600 -0.0720 -0.2327 -0.1186
28617SOL    HW194819   9.900   6.160  10.627 -0.6986 -1.2675  1.1770
28617SOL    HW294820   9.761   6.104  10.615 -1.7310  1.0659  1.5925
28618SOL     OW94821   6.255   5.989   3.878  0.0334  0.5538 -0.6498
28618SOL    HW194822   6.336   5.946   3.906  0.3759  1.2840 -0.5055
28618SOL    HW294823   6.188   5.921   3.887  0.1896  0.6144  1.5746
28619SOL     OW94824   0.883   1.882   2.130  0.0241 -0.3280 -0.2733
28619SOL    HW194825   0.878   1.899   2.036  0.8249  0.3823 -0.2017
28619SOL    HW294826   0.975   1.865   2.147  0.0832  0.6693  0.5490
28620SOL     OW94827  11.535   2.672   0.426 -0.3142 -0.3178 -0.0814
28620SOL    HW194828  11.578   2.597   0.386  0.7470  0.1297  0.1945
28620SOL    HW294829  11.460   2.635   0.473  0.6089 -1.2940  0.6706
28621SOL     OW94830   3.182   0.325  11.275 -0.1519  0.2365  0.4055
28621SOL    HW194831   3.204   0.332  11.368 -0.1820  0.3164  0.4075
28621SOL    HW294832   3.089   0.347  11.270 -0.3629 -0.6207  0.4676
28622SOL     OW94833   2.664  11.061   8.746  0.2625  0.5765  0.4803
28622SOL    HW194834   2.630  11.041   8.659  0.1540  1.7751  0.2195
28622SOL    HW294835   2.752  11.024   8.747  0.7158  1.5354 -0.5884
28623SOL     OW94836   8.105   8.771   5.563 -0.4061  0.0226  0.0961
28623SOL    HW194837   8.200   8.763   5.554 -0.6137 -0.3924 -2.9345
28623SOL    HW294838   8.077   8.686   5.596  0.2045 -0.1656  0.1381
28624SOL     OW94839   8.611   4.034   1.600  0.3610  0.2751 -0.8179
28624SOL    HW194840   8.625   3.940   1.612  2.1088  0.3778 -1.7710
28624SOL    HW294841   8.654   4.054   1.517  0.6398  2.0583 -0.2718
28625SOL     OW94842   5.234   1.999   7.771 -0.2000  0.3638  0.6797
28625SOL    HW194843   5.244   2.092   7.793 -0.2760  0.3050  0.9671
28625SOL    HW294844   5.234   1.997   7.675  0.4463  0.5941  0.6656
28626SOL     OW94845   1.554   3.685   0.018 -0.1409 -0.6068 -0.4611
28626SOL    HW194846   1.508   3.609   0.053  2.0888 -2.7072 -1.7707
28626SOL    HW294847   1.589   3.656  -0.066  0.2063  2.1453 -1.3840
28627SOL     OW94848   7.457   4.301   9.043 -0.6913  0.0903  0.1151
28627SOL    HW194849   7.373   4.303   8.998 -1.9249 -0.6358  2.2440
28627SOL    HW294850   7.520   4.279   8.975 -2.2214  0.4768 -1.5103
28628SOL     OW94851  11.353   6.906   7.135  0.0162 -0.1922  0.0066
28628SOL    HW194852  11.274   6.942   7.095 -0.8957 -1.4821  0.5610
28628SOL    HW294853  11.348   6.812   7.118  0.5791 -0.5229  1.4833
28629SOL     OW94854   0.169   2.261  11.212  0.3888 -0.4266 -0.1696
28629SOL    HW194855   0.226   2.329  11.176  0.2581 -0.6260 -0.7623
28629SOL    HW294856   0.081   2.295  11.201  0.3630 -0.3341  0.2971
28630SOL     OW94857   4.829   0.379   5.938 -0.2765 -0.0245 -0.5354
28630SOL    HW194858   4.741   0.348   5.919 -1.5723  1.3441  2.6435
28630SOL    HW294859   4.835   0.463   5.892 -1.0400  0.3650  0.0676
28631SOL     OW94860   4.235   9.760   2.885 -0.1712  1.0131  0.2737
28631SOL    HW194861   4.177   9.688   2.912  0.9900  0.3398  1.0800
28631SOL    HW294862   4.288   9.722   2.815  2.5978 -0.0395  2.7432
28632SOL     OW94863   1.224   3.184  10.733  0.1931 -0.3637 -0.4883
28632SOL    HW194864   1.283   3.233  10.676 -0.6175  0.6898 -0.4717
28632SOL    HW294865   1.140   3.230  10.724  0.1250  0.0793  1.8348
28633SOL     OW94866   3.091  12.053  10.297  0.0895  0.3270 -0.0064
28633SOL    HW194867   3.042  12.115  10.351 -0.4420 -0.1324  0.0592
28633SOL    HW294868   3.064  11.967  10.330  2.0716  0.0372  1.0420
28634SOL     OW94869  11.982   9.019   2.176  0.7069 -0.0220 -0.0165
28634SOL    HW194870  11.997   9.011   2.082  1.0834  0.6767 -0.0241
28634SOL    HW294871  11.893   9.052   2.184  1.1671  1.3164 -0.1922
28635SOL     OW94872  11.282   4.147  11.540 -0.5048 -0.3830  0.7635
28635SOL    HW194873  11.222   4.153  11.466  0.0691  1.3999  0.4012
28635SOL    HW294874  11.227   4.115  11.612 -1.6921  0.3352  0.2169
28636SOL     OW94875   0.682   2.734   5.032  0.5529 -0.6093  0.0083
28636SOL    HW194876   0.742   2.768   5.099 -0.4389 -0.9271  1.0885
28636SOL    HW294877   0.739   2.688   4.971  1.5474  0.1511  0.3291
28637SOL     OW94878  11.571   3.677   2.028 -0.1940 -0.5626 -0.2798
28637SOL    HW194879  11.637   3.607   2.031  0.9369  0.5138  1.4847
28637SOL    HW294880  11.585   3.719   1.943 -0.5110 -2.0599 -1.1276
28638SOL     OW94881   1.866   3.867   8.450 -0.0754 -0.3804 -0.0923
28638SOL    HW194882   1.774   3.871   8.477 -0.1954 -0.0695 -0.5513
28638SOL    HW294883   1.915   3.879   8.532 -0.4405  1.0304 -0.0415
28639SOL     OW94884   5.922   4.302  10.288  0.1003 -0.0589  0.7911
28639SOL    HW194885   5.937   4.369  10.222  1.3068 -0.6016  0.4811
28639SOL    HW294886   5.886   4.228  10.239  1.4194 -0.6235  0.6381
28640SOL     OW94887   2.071   1.184   0.387 -0.2381  0.5000  0.1488
28640SOL    HW194888   2.090   1.111   0.445  0.0498 -0.6882 -1.3783
28640SOL    HW294889   2.133   1.174   0.315 -2.5961  0.0152 -1.9750
28641SOL     OW94890   2.328   1.346   0.009 -0.1738 -0.1792 -0.0744
28641SOL    HW194891   2.316   1.282  -0.061 -0.5690  0.9047 -1.0256
28641SOL    HW294892   2.422   1.347   0.026  0.0058 -0.0400 -1.0122
28642SOL     OW94893   0.840   1.013  10.756 -0.0195  0.0931  0.0109
28642SOL    HW194894   0.777   1.044  10.691  0.0041 -1.9345 -1.0530
28642SOL    HW294895   0.913   1.075  10.752 -0.4349  0.5096 -1.2462
28643SOL     OW94896   3.891   2.417  10.380  0.1428 -0.6069 -0.2896
28643SOL    HW194897   3.812   2.389  10.426  0.0226  0.7835  0.4016
28643SOL    HW294898   3.931   2.336  10.349 -0.2541 -1.5374  1.4858
28644SOL     OW94899   1.425  12.351   3.397  0.1946 -0.6051 -0.8321
28644SOL    HW194900   1.356  12.289   3.371  1.2339 -2.2953  0.2321
28644SOL    HW294901   1.442  12.330   3.489  0.1902  1.7107 -0.2308
28645SOL     OW94902   2.366   8.712   4.135 -0.0488 -0.0784 -0.0275
28645SOL    HW194903   2.393   8.720   4.044  1.6234  0.9570  0.5097
28645SOL    HW294904   2.412   8.635   4.168  1.3624  0.9605  0.5520
28646SOL     OW94905   4.691   5.621   8.787  0.2288  0.0250 -0.5179
28646SOL    HW194906   4.626   5.578   8.732 -0.0382 -0.7113  0.3438
28646SOL    HW294907   4.770   5.625   8.733 -0.3766  0.4511 -1.3847
28647SOL     OW94908   9.885   6.303   9.804  0.1424 -0.2324 -0.5000
28647SOL    HW194909   9.799   6.285   9.843  0.3630 -1.0509 -0.3909
28647SOL    HW294910   9.892   6.399   9.807 -0.7384 -0.1577 -0.4551
28648SOL     OW94911   3.978   5.965   8.626  0.2834 -0.2849  0.2787
28648SOL    HW194912   3.986   5.912   8.546  0.0035  0.2888 -0.1325
28648SOL    HW294913   3.974   6.055   8.595  0.8291 -0.0101  0.9846
28649SOL     OW94914   5.628   6.925   0.558  0.4961  0.3502 -0.2215
28649SOL    HW194915   5.580   6.916   0.640  0.8646  1.0725  0.0776
28649SOL    HW294916   5.717   6.949   0.585  0.0564  2.9633 -0.8862
28650SOL     OW94917   3.224   3.491   5.237  0.4414  0.1126 -1.0807
28650SOL    HW194918   3.191   3.478   5.149  0.2228  0.1121 -0.9993
28650SOL    HW294919   3.149   3.524   5.286  0.2496 -0.9898 -0.6108
28651SOL     OW94920   1.755   6.968   7.685  0.2169  0.4088  0.0287
28651SOL    HW194921   1.678   7.009   7.646  0.3975 -2.1271 -3.3808
28651SOL    HW294922   1.823   7.035   7.679 -1.0087  1.7882  0.7271
28652SOL     OW94923   3.703   2.528   0.775  0.5981 -0.1383  0.2000
28652SOL    HW194924   3.642   2.467   0.815 -1.4857  0.8451 -1.3120
28652SOL    HW294925   3.692   2.610   0.823  0.2690  0.2015 -0.4311
28653SOL     OW94926   4.020   9.800   4.162 -0.1115 -0.5398  0.1804
28653SOL    HW194927   4.100   9.825   4.207 -0.1330  0.4168 -0.2712
28653SOL    HW294928   3.962   9.876   4.172  0.2004  0.1089 -2.1519
28654SOL     OW94929   4.052  10.319   7.055  0.2815 -0.1219 -0.2721
28654SOL    HW194930   4.143  10.329   7.026  0.0842  0.9975 -0.5557
28654SOL    HW294931   4.026  10.407   7.084 -0.9989 -0.2129 -1.0589
28655SOL     OW94932  10.610  11.577   0.530  0.0647  0.3745 -0.1110
28655SOL    HW194933  10.704  11.569   0.516  0.4589 -2.3865  2.8954
28655SOL    HW294934  10.602  11.636   0.605 -0.5015 -0.2008  0.2913
28656SOL     OW94935   5.639   2.699   9.305  0.0722  0.4216 -0.3407
28656SOL    HW194936   5.639   2.606   9.282 -2.4344  0.3827 -0.4652
28656SOL    HW294937   5.640   2.744   9.221  0.2128  0.4908 -0.3020
28657SOL     OW94938  11.425   3.342   7.627 -0.5088 -0.1581 -0.2272
28657SOL    HW194939  11.516   3.356   7.601 -1.2142  0.6135 -2.4576
28657SOL    HW294940  11.396   3.426   7.661 -0.4490 -0.3719  0.3717
28658SOL     OW94941  10.041   1.034   2.076 -0.3900  0.2262  0.2864
28658SOL    HW194942  10.052   1.086   1.996  0.1025  1.9773  1.4248
28658SOL    HW294943   9.946   1.035   2.093 -0.4967 -0.1686 -0.2813
28659SOL     OW94944   3.112   3.443   6.994 -0.4581 -0.1329  0.2244
28659SOL    HW194945   3.187   3.394   6.960  0.4613 -0.0299  2.0099
28659SOL    HW294946   3.125   3.532   6.960  2.1832  0.7871  3.1558
28660SOL     OW94947   7.745   9.603   9.345 -0.0510 -0.4001 -0.0784
28660SOL    HW194948   7.660   9.615   9.303  0.6861 -0.5613 -1.7139
28660SOL    HW294949   7.807   9.595   9.272  1.5269  0.7843  1.0419
28661SOL     OW94950   8.543   8.660   6.667 -0.0958 -0.2931  0.3212
28661SOL    HW194951   8.514   8.634   6.754  0.8036 -0.6258  0.5333
28661SOL    HW294952   8.638   8.648   6.668 -0.2565 -2.3590 -1.3857
28662SOL     OW94953   5.410  10.494   6.949  0.0231 -0.3575 -0.1059
28662SOL    HW194954   5.352  10.528   7.017 -1.9949 -0.7485 -1.5120
28662SOL    HW294955   5.357  10.499   6.869  1.7337 -1.3565 -1.3594
28663SOL     OW94956  10.791   4.825   8.035 -0.6907  0.4787  0.4864
28663SOL    HW194957  10.704   4.792   8.057 -0.6728  0.2206  0.1865
28663SOL    HW294958  10.784   4.920   8.044 -0.5982  0.3643  1.8629
28664SOL     OW94959   1.430   4.684   3.309 -0.3213  0.1967 -0.2933
28664SOL    HW194960   1.455   4.631   3.385 -0.8301 -0.1871 -0.3907
28664SOL    HW294961   1.435   4.774   3.341  1.7358  0.1870 -0.4644
28665SOL     OW94962   8.984   8.546  11.272 -0.6700 -0.4864  0.6407
28665SOL    HW194963   8.956   8.620  11.219 -0.9162 -1.1333 -0.1661
28665SOL    HW294964   9.079   8.556  11.279 -0.4735 -0.9789 -0.8969
28666SOL     OW94965  10.538   6.220   6.199 -0.0638 -0.1116  0.1691
28666SOL    HW194966  10.532   6.274   6.278  0.9645  1.1485 -0.5744
28666SOL    HW294967  10.631   6.216   6.180 -0.3747  1.0445 -1.8976
28667SOL     OW94968  11.306   4.488  11.129 -0.4480 -0.0542  0.0175
28667SOL    HW194969  11.245   4.416  11.148  1.2416 -1.6001 -0.1293
28667SOL    HW294970  11.386   4.464  11.175  0.4389  1.3001 -0.7622
28668SOL     OW94971   2.112   1.554   1.249  0.5023 -0.0386  0.0834
28668SOL    HW194972   2.079   1.640   1.276  0.5494 -0.3105  1.0076
28668SOL    HW294973   2.202   1.551   1.281  0.4184 -0.5334  0.2881
28669SOL     OW94974   3.280  11.034   8.048  0.3780  0.2696  0.5889
28669SOL    HW194975   3.338  11.019   8.123  1.7067 -2.4076 -0.8269
28669SOL    HW294976   3.326  11.099   7.995  2.9431 -2.6353 -1.1031
28670SOL     OW94977  11.706   3.298  12.383  0.1628 -0.2065  0.1996
28670SOL    HW194978  11.757   3.355  12.325 -0.2973  0.3141  0.2944
28670SOL    HW294979  11.749   3.213  12.377  2.1866  0.6189  1.6928
28671SOL     OW94980   8.122  12.213   2.540 -0.3125 -0.1326 -0.2118
28671SOL    HW194981   8.066  12.266   2.484  0.9393  1.9847  0.4313
28671SOL    HW294982   8.211  12.230   2.509  0.1599 -1.7633  0.1323
28672SOL     OW94983   2.206   8.346  10.762  0.0146  0.3310 -0.0191
28672SOL    HW194984   2.139   8.411  10.740 -1.3703 -0.8946  0.3773
28672SOL    HW294985   2.261   8.341  10.683  0.6202  2.4591  0.1950
28673SOL     OW94986   1.992   7.523   0.498 -0.4141 -0.2090 -0.0208
28673SOL    HW194987   1.991   7.596   0.436  1.6288  0.5082  0.7141
28673SOL    HW294988   2.001   7.445   0.443  0.6013  0.3581 -0.6904
28674SOL     OW94989   6.287   0.124   6.325  0.1238 -0.1369  0.2581
28674SOL    HW194990   6.355   0.079   6.374  1.0320  1.2937  0.3759
28674SOL    HW294991   6.332   0.161   6.249 -0.5902  0.5111  0.1307
28675SOL     OW94992   1.459   5.515   6.369  0.3635  0.1512 -0.5819
28675SOL    HW194993   1.372   5.553   6.361  0.0396 -0.3375  0.4782
28675SOL    HW294994   1.481   5.487   6.280 -0.3796  0.6535 -0.9345
28676SOL     OW94995   1.996   0.198   4.001  0.2898 -0.4691  0.1671
28676SOL    HW194996   2.010   0.173   3.910  0.0805  1.2812 -0.3885
28676SOL    HW294997   1.958   0.121   4.042  0.2661 -1.2414 -1.2599
28677SOL     OW94998   0.252   8.009   8.667 -0.0573 -0.3873 -0.4740
28677SOL    HW194999   0.234   7.919   8.641 -0.4887  0.0534 -1.8236
28677SOL    HW295000   0.260   8.056   8.584  1.5448  0.5689  0.1863
28678SOL     OW95001   9.830  12.295   7.375  0.0346 -0.3445 -0.1197
28678SOL    HW195002   9.925  12.279   7.377  0.0577 -0.2605 -0.4075
28678SOL    HW295003   9.795  12.242   7.446  0.4686  0.8084  1.0021
28679SOL     OW95004   6.242   8.310   2.283 -0.0959  0.1571 -0.0074
28679SOL    HW195005   6.328   8.319   2.242 -0.0452 -0.7104 -0.1141
28679SOL    HW295006   6.252   8.238   2.345 -0.9351 -0.4892 -0.5813
28680SOL     OW95007   5.306   3.945   9.821 -0.1300  0.0952 -0.1705
28680SOL    HW195008   5.300   4.041   9.826  1.0542  0.2283 -1.1228
28680SOL    HW295009   5.285   3.924   9.731 -0.1407 -0.5331 -0.0249
28681SOL     OW95010   7.525   6.797   1.876  0.4684  0.0231  0.6660
28681SOL    HW195011   7.557   6.735   1.942 -1.3910  0.1444  1.7724
28681SOL    HW295012   7.574   6.775   1.797  0.2199 -2.5868  1.1241
28682SOL     OW95013   5.445   6.699  10.900 -0.5622  0.4917  0.5094
28682SOL    HW195014   5.496   6.715  10.979  0.0137 -0.4088  0.3250
28682SOL    HW295015   5.468   6.771  10.841  1.1852 -0.3616  0.0967
28683SOL     OW95016   2.292  12.349   4.504 -0.0881 -0.2301 -0.3133
28683SOL    HW195017   2.357  12.288   4.539 -0.3326 -0.5518 -0.4149
28683SOL    HW295018   2.227  12.294   4.460 -1.9035 -0.1852  2.0654
28684SOL     OW95019   6.774   2.266   8.921  0.4303 -0.3430  0.1047
28684SOL    HW195020   6.681   2.281   8.938  0.3696  1.4069 -1.4564
28684SOL    HW295021   6.819   2.319   8.986  0.2680  1.0828 -0.9003
28685SOL     OW95022   7.675   7.673   0.072 -0.1718  0.0048  0.6652
28685SOL    HW195023   7.604   7.609   0.065  0.2072 -0.4833  1.2885
28685SOL    HW295024   7.659   7.718   0.155 -0.6433  0.9910  0.0717
28686SOL     OW95025  11.887   3.518   7.889 -0.3921 -0.4446  0.2286
28686SOL    HW195026  11.940   3.570   7.951  2.7572 -2.0208 -0.9143
28686SOL    HW295027  11.913   3.428   7.906 -0.0735 -0.9879 -2.7540
28687SOL     OW95028   7.405  11.026   9.547 -0.4968  0.2691  0.0178
28687SOL    HW195029   7.325  11.078   9.554 -0.0359  0.9416  0.4183
28687SOL    HW295030   7.392  10.973   9.469 -1.2983  0.4321  0.0300
28688SOL     OW95031   5.725   7.772   8.088  0.5408 -0.0406  0.1675
28688SOL    HW195032   5.818   7.774   8.111  0.8628  1.2797 -1.1189
28688SOL    HW295033   5.689   7.703   8.144  2.0855  0.0808  1.4085
28689SOL     OW95034   4.653   7.588   2.351  0.1594  0.0064  0.5535
28689SOL    HW195035   4.602   7.508   2.338  1.1644 -0.2536 -2.8570
28689SOL    HW295036   4.707   7.570   2.428 -0.8877 -1.8650  0.9105
28690SOL     OW95037  11.215  11.522   2.958  0.2332 -0.6114  0.1755
28690SOL    HW195038  11.240  11.508   2.867  0.8692  0.9968  0.0800
28690SOL    HW295039  11.151  11.452   2.976 -1.4273  0.1845 -2.1123
28691SOL     OW95040   0.695   2.208   3.918  0.1937 -0.0487 -0.2741
28691SOL    HW195041   0.621   2.219   3.977 -0.2659 -1.7563 -0.4782
28691SOL    HW295042   0.701   2.114   3.903  2.0855  0.0882 -0.6981
28692SOL     OW95043   5.516   0.427  10.320  0.7895 -0.0559  0.6962
28692SOL    HW195044   5.577   0.363  10.355  0.2737 -0.5263  0.7576
28692SOL    HW295045   5.479   0.385  10.242  0.8698  0.3995  0.4113
28693SOL     OW95046   3.752   8.056  10.746 -0.2032 -0.5203 -0.2831
28693SOL    HW195047   3.837   8.021  10.772 -0.5855 -0.6795  0.7818
28693SOL    HW295048   3.772   8.144  10.712  0.3647 -0.4620  0.1736
28694SOL     OW95049   3.000   9.494   2.050 -0.1649 -0.2141 -0.3036
28694SOL    HW195050   3.048   9.574   2.073 -1.4422  0.3279  0.5861
28694SOL    HW295051   2.924   9.524   2.002  0.4584 -1.0848 -1.8964
28695SOL     OW95052   6.401   8.920   3.070  0.2041 -0.1330  0.0897
28695SOL    HW195053   6.368   8.901   3.158  0.8006  1.2716  0.6529
28695SOL    HW295054   6.325   8.909   3.014 -0.4221 -0.1584  0.9155
28696SOL     OW95055   8.353   2.158   8.982  0.1141 -0.0432  0.1752
28696SOL    HW195056   8.345   2.197   9.070  0.9202  1.0244 -0.2085
28696SOL    HW295057   8.408   2.081   8.995  0.5954  0.3566  0.5332
28697SOL     OW95058   9.727  11.530   9.630 -0.4838  0.1603  0.3637
28697SOL    HW195059   9.812  11.500   9.663  0.3035  2.2574  0.3679
28697SOL    HW295060   9.697  11.458   9.574  0.6884 -1.1551  1.3452
28698SOL     OW95061   8.448  10.045   6.346  0.1837 -0.2250  0.5044
28698SOL    HW195062   8.534  10.034   6.305 -1.0343 -1.8621 -1.8033
28698SOL    HW295063   8.392   9.982   6.302 -2.5183  1.5510  1.1715
28699SOL     OW95064  11.768  10.550   9.615  0.7479 -0.2254 -0.0483
28699SOL    HW195065  11.849  10.595   9.593  0.0083  1.7176  0.9358
28699SOL    HW295066  11.750  10.575   9.706 -1.0057 -0.4965 -0.2720
28700SOL     OW95067   1.552   6.819   2.385 -0.4243 -0.2622 -0.0782
28700SOL    HW195068   1.631   6.766   2.377  0.0323 -0.0011  2.0829
28700SOL    HW295069   1.582   6.909   2.368 -0.2696 -0.1846  0.5703
28701SOL     OW95070   9.701   8.994   3.068 -0.5599  0.0660 -0.4091
28701SOL    HW195071   9.636   9.053   3.030  0.5840  1.7734  0.1410
28701SOL    HW295072   9.695   9.010   3.162 -0.4387 -0.9707 -0.2080
28702SOL     OW95073  10.371   7.691   0.250 -0.2521  0.4617 -0.0705
28702SOL    HW195074  10.294   7.711   0.303 -0.2171  0.7143 -0.1103
28702SOL    HW295075  10.342   7.623   0.190 -1.0417  1.9122 -1.4311
28703SOL     OW95076   8.696   8.337   1.485  1.1595  0.3898 -0.5003
28703SOL    HW195077   8.783   8.299   1.473  0.6861 -1.2252  0.8379
28703SOL    HW295078   8.685   8.343   1.580 -1.8746 -3.8836 -0.2890
28704SOL     OW95079  10.328   0.936   8.729 -0.4992 -0.1526 -0.1439
28704SOL    HW195080  10.416   0.970   8.744 -0.9207  0.7619  0.3657
28704SOL    HW295081  10.324   0.855   8.780  0.0532 -0.2301 -0.2153
28705SOL     OW95082   8.840   4.740   3.181 -0.4049 -0.3720  0.3681
28705SOL    HW195083   8.849   4.820   3.130 -0.0542 -0.3703  0.4280
28705SOL    HW295084   8.929   4.704   3.184 -0.8006 -1.5098 -0.8634
28706SOL     OW95085   6.476   3.144   0.567  0.0607  0.6033  0.4968
28706SOL    HW195086   6.561   3.183   0.589  0.0217  1.0516 -0.1028
28706SOL    HW295087   6.454   3.089   0.642  1.8475 -1.1559 -0.2120
28707SOL     OW95088   6.452   5.687  12.397 -0.4913  0.9664 -0.3203
28707SOL    HW195089   6.465   5.690  12.302  0.7500  0.5007 -0.1797
28707SOL    HW295090   6.442   5.779  12.422 -0.1705  1.1424 -0.8159
28708SOL     OW95091  10.699  10.809  12.568 -0.2844 -0.2753  0.1726
28708SOL    HW195092  10.628  10.858  12.610  0.2187 -0.4599  1.2740
28708SOL    HW295093  10.692  10.721  12.605  0.8591 -0.1478  0.7560
28709SOL     OW95094   5.861   8.255   2.082  0.2306 -0.0137  0.6218
28709SOL    HW195095   5.802   8.265   2.157 -1.3323 -1.9185 -0.2716
28709SOL    HW295096   5.809   8.283   2.006  1.1863  0.1968  0.0267
28710SOL     OW95097   5.542   7.173   8.765 -0.8094 -0.1948  0.1833
28710SOL    HW195098   5.583   7.193   8.681 -1.0158  1.0989  0.3690
28710SOL    HW295099   5.591   7.226   8.828 -1.9563  0.4199  0.5779
28711SOL     OW95100   5.885   0.283   8.185 -0.2782  0.0409 -0.5388
28711SOL    HW195101   5.844   0.253   8.266 -2.8797  0.9726 -1.3982
28711SOL    HW295102   5.922   0.204   8.146 -2.0417 -1.0568 -0.0771
28712SOL     OW95103  11.799   8.199   2.140 -0.2968 -0.0348  0.0343
28712SOL    HW195104  11.801   8.189   2.045 -1.3478  0.9369 -0.1135
28712SOL    HW295105  11.841   8.120   2.173 -2.7210 -1.9509 -1.1380
28713SOL     OW95106   3.790   6.117  11.211  0.5000 -0.2965  0.1214
28713SOL    HW195107   3.882   6.141  11.197 -0.1924  1.8663 -1.3632
28713SOL    HW295108   3.755   6.107  11.122 -0.1805 -3.6247  0.6550
28714SOL     OW95109   7.817   6.973   4.114  0.4279  0.0704  0.4301
28714SOL    HW195110   7.905   6.976   4.153  0.3562  1.2341  0.5374
28714SOL    HW295111   7.803   6.881   4.093  0.1347 -0.8027  3.9031
28715SOL     OW95112   0.516   6.185   2.090 -0.1164  0.2343 -0.1682
28715SOL    HW195113   0.530   6.120   2.159 -2.2703 -1.1161 -0.8811
28715SOL    HW295114   0.539   6.139   2.009 -1.1502  0.5190 -0.6364
28716SOL     OW95115   0.157   3.553   9.208 -0.6641 -0.2361 -0.8551
28716SOL    HW195116   0.095   3.481   9.200 -1.5627  0.3906  0.1951
28716SOL    HW295117   0.146   3.604   9.127 -1.4354 -0.2006 -0.7345
28717SOL     OW95118  10.395   9.590   7.375  0.4105 -0.0489  0.5048
28717SOL    HW195119  10.354   9.563   7.457  1.9671 -3.6310  0.3159
28717SOL    HW295120  10.483   9.551   7.378  1.1225  1.1155 -2.1488
28718SOL     OW95121   3.009   9.927   9.550 -0.3745 -0.0192  0.3628
28718SOL    HW195122   3.021   9.834   9.531  0.6655  0.1355  0.2098
28718SOL    HW295123   3.086   9.951   9.602  0.6343  1.2978 -1.6171
28719SOL     OW95124   5.982  12.386   0.976  0.6295 -0.0492 -0.2932
28719SOL    HW195125   5.896  12.374   1.016  0.8528  0.3996  0.3467
28719SOL    HW295126   6.043  12.347   1.039  0.9763  0.5181 -0.2690
28720SOL     OW95127   4.038   9.213   8.088 -0.2943  0.7453 -0.2665
28720SOL    HW195128   3.965   9.272   8.107  0.6860  2.6026 -1.8956
28720SOL    HW295129   3.999   9.125   8.088 -1.5971  1.1413  3.3707
28721SOL     OW95130   4.333   6.327   7.537 -0.0150 -0.1254  0.1760
28721SOL    HW195131   4.242   6.356   7.534  0.3740  1.1548 -0.3522
28721SOL    HW295132   4.344   6.274   7.458  0.0630  0.9541 -0.5594
28722SOL     OW95133   8.075   9.069  11.462  0.3836  0.2187 -0.3921
28722SOL    HW195134   8.027   9.095  11.540 -1.1521 -0.7015 -0.9785
28722SOL    HW295135   8.110   9.151  11.427 -1.2310  1.0220 -0.2127
28723SOL     OW95136   6.012   5.380   8.848  0.4138 -0.2914  0.0910
28723SOL    HW195137   6.056   5.462   8.867  2.3303 -1.7234  2.2368
28723SOL    HW295138   5.982   5.347   8.933  1.5176 -2.7639 -0.3825
28724SOL     OW95139  10.303   2.009   6.326  0.5449 -0.0398 -0.7250
28724SOL    HW195140  10.377   2.068   6.343 -0.4895  0.7566  1.3966
28724SOL    HW295141  10.238   2.032   6.392 -0.6026 -2.4270 -0.9041
28725SOL     OW95142   6.440   0.101   0.697  0.5686  0.3054  0.1619
28725SOL    HW195143   6.422   0.065   0.783 -0.1992 -0.6071 -0.3655
28725SOL    HW295144   6.512   0.163   0.712 -1.8062  2.8772  2.0608
28726SOL     OW95145   6.712   7.281   9.854  0.5923 -0.3640 -0.3968
28726SOL    HW195146   6.743   7.233   9.777 -0.7505 -0.2290 -1.0399
28726SOL    HW295147   6.628   7.318   9.827  1.0045  1.3131  0.5005
28727SOL     OW95148   9.687   8.936   6.606 -0.3315 -0.4123  0.0746
28727SOL    HW195149   9.750   8.866   6.591  0.0880 -0.0089 -0.0872
28727SOL    HW295150   9.661   8.965   6.518  0.4953  0.5091  0.1207
28728SOL     OW95151   1.822   6.765  11.007  0.0682 -0.4298  0.1081
28728SOL    HW195152   1.805   6.835  11.070 -1.1393  0.5552 -1.2376
28728SOL    HW295153   1.780   6.688  11.045 -0.2948  0.0502  0.7040
28729SOL     OW95154   6.713   9.924   3.277  0.4135  0.0704  0.5313
28729SOL    HW195155   6.708   9.956   3.187  0.2784 -0.3043  0.4047
28729SOL    HW295156   6.627   9.886   3.294  0.4358  0.1487  0.8249
28730SOL     OW95157   5.196   0.063  11.694 -0.5289  0.4301 -0.5118
28730SOL    HW195158   5.150  -0.001  11.639 -1.7432 -0.6729  1.6717
28730SOL    HW295159   5.133   0.133  11.707 -1.5537 -0.8333  2.0406
28731SOL     OW95160   9.270   3.618   6.614  0.1854  0.0617  0.0815
28731SOL    HW195161   9.211   3.557   6.657  0.0214  0.3080  0.2103
28731SOL    HW295162   9.246   3.704   6.650  1.4480  0.0309  1.0870
28732SOL     OW95163  10.515   3.832   8.654  0.5560 -0.0355 -0.1323
28732SOL    HW195164  10.517   3.737   8.652 -0.0131 -0.0654 -2.7573
28732SOL    HW295165  10.421   3.854   8.658  0.6910  0.4476  0.7426
28733SOL     OW95166   0.255  10.110   7.678  0.2525  0.4887 -0.4212
28733SOL    HW195167   0.230  10.098   7.587  1.6584 -1.6867 -0.5946
28733SOL    HW295168   0.176  10.090   7.728 -0.1493  0.3113 -1.1179
28734SOL     OW95169   4.344  11.804   5.790  0.2078  0.4651 -0.6035
28734SOL    HW195170   4.341  11.889   5.747  1.2474 -0.1535 -1.9622
28734SOL    HW295171   4.266  11.758   5.758  1.0258 -0.0289 -1.9780
28735SOL     OW95172   1.938   4.842   3.753  0.3224  0.1468 -0.0742
28735SOL    HW195173   1.982   4.865   3.671 -0.5024  1.6757 -0.1353
28735SOL    HW295174   1.850   4.814   3.727  0.7036 -1.3448  0.1632
28736SOL     OW95175   0.905   3.407   3.187  0.5437 -0.3942 -0.5572
28736SOL    HW195176   0.994   3.399   3.222 -0.4199  0.7769  2.4986
28736SOL    HW295177   0.848   3.389   3.262 -1.7442  3.0365 -1.2439
28737SOL     OW95178  12.406   9.109   3.652 -0.0390  0.5448  0.0247
28737SOL    HW195179  12.367   9.182   3.699 -1.8660 -0.4337  0.1107
28737SOL    HW295180  12.333   9.069   3.604  1.0024 -0.8923 -0.4406
28738SOL     OW95181  10.590  11.962   3.288  0.0891 -0.2354  0.0755
28738SOL    HW195182  10.679  11.929   3.292  0.4181  0.2971 -1.9097
28738SOL    HW295183  10.591  12.026   3.217 -2.2434 -1.5164 -1.2424
28739SOL     OW95184   4.818   5.985   7.271 -0.0556 -0.1686  0.6220
28739SOL    HW195185   4.907   6.003   7.301 -0.0296 -0.0439  0.4670
28739SOL    HW295186   4.783   5.924   7.336 -0.4998  1.2161  1.7362
28740SOL     OW95187   6.643   3.576   6.516 -0.2574  0.1965 -0.0635
28740SOL    HW195188   6.594   3.511   6.566  0.6757 -0.8886 -0.5142
28740SOL    HW295189   6.632   3.549   6.425 -1.3216  1.7166 -0.4132
28741SOL     OW95190  11.359  10.212   3.319 -0.6840  0.2688  0.0951
28741SOL    HW195191  11.314  10.147   3.374  0.3675  0.1071  0.7873
28741SOL    HW295192  11.312  10.294   3.336 -0.0173  0.3546  1.7221
28742SOL     OW95193   7.477  11.707   5.838  0.0853 -0.4671 -0.3030
28742SOL    HW195194   7.557  11.681   5.883  2.3690  2.4178 -2.3400
28742SOL    HW295195   7.488  11.673   5.749 -1.3972 -0.7332 -0.4113
28743SOL     OW95196   9.492   8.995   0.418 -0.0051  0.4544  0.4407
28743SOL    HW195197   9.451   8.972   0.335  3.4618  0.3734 -1.4439
28743SOL    HW295198   9.559   9.060   0.394  1.0327  0.5273  3.1874
28744SOL     OW95199   6.521   9.564   6.120 -0.4719 -0.4507 -0.2248
28744SOL    HW195200   6.443   9.618   6.106 -0.0098  0.4451  0.5468
28744SOL    HW295201   6.534   9.564   6.215  0.6992 -0.2334 -0.3668
28745SOL     OW95202   2.714   0.019   6.054  0.3595  0.2416  0.4654
28745SOL    HW195203   2.706   0.110   6.024  2.9834  0.7308  1.0046
28745SOL    HW295204   2.765  -0.023   5.985 -1.1514 -1.0001  0.0343
28746SOL     OW95205   5.661   5.804   7.973  0.1096  0.0448  0.2079
28746SOL    HW195206   5.683   5.716   8.005 -0.5344 -0.0635  0.3785
28746SOL    HW295207   5.712   5.863   8.028 -0.3532 -0.1779  0.8977
28747SOL     OW95208  10.716   8.088   3.152 -0.3103 -0.0375  0.2160
28747SOL    HW195209  10.785   8.084   3.218 -0.5466 -0.2639  0.4535
28747SOL    HW295210  10.653   8.022   3.180 -0.2498 -0.3743 -0.4230
28748SOL     OW95211   8.272   4.432   4.488 -0.2251  0.0745  0.0199
28748SOL    HW195212   8.179   4.458   4.486 -0.0446  0.7165 -0.3408
28748SOL    HW295213   8.320   4.515   4.495  0.3495 -0.1944 -0.6379
28749SOL     OW95214  12.102   8.357  10.189 -0.5222  0.0286 -0.9014
28749SOL    HW195215  12.107   8.263  10.175 -0.4998 -0.0588 -0.3365
28749SOL    HW295216  12.052   8.390  10.114 -0.7763 -0.4662 -0.9528
28750SOL     OW95217   8.348   5.906  11.350  0.2295  0.1670  0.4541
28750SOL    HW195218   8.327   5.816  11.325 -0.8581  0.3596  0.6661
28750SOL    HW295219   8.339   5.908  11.445  0.2822  0.4981  0.4535
28751SOL     OW95220   0.021  11.323   8.452 -0.5473 -0.2347  0.1394
28751SOL    HW195221   0.101  11.362   8.417 -0.3309  2.8200  3.4008
28751SOL    HW295222   0.051  11.248   8.503 -0.0223 -0.3802 -0.3782
28752SOL     OW95223   4.612   5.818   0.613 -0.2707  0.2023 -0.2475
28752SOL    HW195224   4.565   5.823   0.530 -2.2066 -0.4920  0.7500
28752SOL    HW295225   4.554   5.769   0.671  2.1594 -1.7278  0.7716
28753SOL     OW95226   2.297  11.874  10.153  0.1892 -0.1590 -0.6083
28753SOL    HW195227   2.318  11.967  10.149  0.2038 -0.1917 -3.2705
28753SOL    HW295228   2.367  11.836  10.205  1.1339  1.1142 -0.8917
28754SOL     OW95229   7.430   8.853   0.052  0.3681  0.0542  0.4930
28754SOL    HW195230   7.348   8.864   0.004 -0.0069 -1.1401  0.8251
28754SOL    HW295231   7.494   8.904   0.003 -0.5812  1.0521  0.2604
28755SOL     OW95232   7.291   8.533   4.188  0.2393 -0.2664 -0.3644
28755SOL    HW195233   7.269   8.590   4.261  1.3200 -1.9744  1.3936
28755SOL    HW295234   7.374   8.492   4.213 -0.1223 -2.0480 -1.8366
28756SOL     OW95235   2.608   4.943   8.616  0.2386 -0.2454  0.4608
28756SOL    HW195236   2.557   4.917   8.694 -0.9334  0.5106 -0.0248
28756SOL    HW295237   2.619   5.038   8.626  1.5453 -0.3876  0.5246
28757SOL     OW95238  11.515  12.528   2.865 -0.0024 -0.2539  0.2615
28757SOL    HW195239  11.520  12.598   2.930  0.5744 -0.2710  0.2349
28757SOL    HW295240  11.426  12.493   2.874  0.8031 -1.8758  2.6875
28758SOL     OW95241   8.097   0.003   5.408  0.2650  0.1381 -0.3576
28758SOL    HW195242   8.108   0.079   5.465  0.4800  0.5313 -0.9167
28758SOL    HW295243   8.016   0.021   5.359 -0.0066 -0.2736 -0.0688
28759SOL     OW95244  10.935  11.649   4.623  0.5004 -0.1239  0.0345
28759SOL    HW195245  10.892  11.565   4.633  1.6836 -0.7279  0.1998
28759SOL    HW295246  10.941  11.683   4.713  0.4941 -0.0943  0.0239
28760SOL     OW95247   0.728   5.500   4.952 -0.0342 -0.4568  0.5159
28760SOL    HW195248   0.733   5.577   5.009  0.1026 -0.5286  0.6009
28760SOL    HW295249   0.779   5.523   4.874 -0.5257 -0.2196  0.2606
28761SOL     OW95250  12.003   1.201  11.366 -0.1595  0.7283  0.1321
28761SOL    HW195251  12.055   1.269  11.321  0.8069 -0.8155 -1.2026
28761SOL    HW295252  11.923   1.194  11.314 -0.2364  0.8114  0.2394
28762SOL     OW95253   0.700   5.872   7.613  0.4151 -0.1806 -0.5010
28762SOL    HW195254   0.656   5.788   7.628  1.5408 -1.1469 -2.3137
28762SOL    HW295255   0.784   5.863   7.659  0.4311  0.0514 -0.4855
28763SOL     OW95256  11.613   5.644   5.130 -0.6381 -0.4878  0.5584
28763SOL    HW195257  11.567   5.565   5.103 -1.4425 -0.3228  1.3734
28763SOL    HW295258  11.618   5.697   5.051 -0.5202 -1.1394  0.1156
28764SOL     OW95259   0.068   9.067   3.123  0.4978  0.7822  0.2851
28764SOL    HW195260   0.012   9.030   3.192  0.8040  0.1675  0.2016
28764SOL    HW295261   0.016   9.058   3.043  0.4741  0.7535  0.3037
28765SOL     OW95262   6.075   8.511   0.651  0.0933 -0.4245 -0.2881
28765SOL    HW195263   6.009   8.578   0.636  0.1718 -0.1013  0.7735
28765SOL    HW295264   6.029   8.441   0.698  0.1110 -0.9392 -1.0197
28766SOL     OW95265   0.822   0.295   4.028 -0.5392 -0.0169 -0.3074
28766SOL    HW195266   0.776   0.222   4.068 -0.2514 -0.5900 -0.9929
28766SOL    HW295267   0.829   0.271   3.935 -0.5770  0.9496 -0.5701
28767SOL     OW95268   3.110   7.091   5.706  0.4248  0.1747  0.4808
28767SOL    HW195269   3.094   7.109   5.799 -0.3189 -2.0034  0.8408
28767SOL    HW295270   3.039   7.136   5.660  0.3368  0.6093  1.0296
28768SOL     OW95271   9.094   4.919   0.052 -0.4120  0.2297 -0.1617
28768SOL    HW195272   9.128   4.947   0.137  0.6283 -1.0807 -0.1156
28768SOL    HW295273   9.128   4.831   0.040  0.1061  0.6548 -2.2924
28769SOL     OW95274   1.160   9.392   6.046  0.6470  0.4786 -0.1025
28769SOL    HW195275   1.078   9.343   6.050  0.9443 -0.1398 -1.2917
28769SOL    HW295276   1.140   9.467   5.990  0.5152  1.1388  0.7877
28770SOL     OW95277   1.101  11.936  11.965  0.3620  0.3543  0.3490
28770SOL    HW195278   1.124  11.948  11.873 -0.2579  0.3381  0.1890
28770SOL    HW295279   1.158  11.866  11.995  0.2837  0.0775 -0.1361
28771SOL     OW95280  11.419   0.195  11.799  0.1425 -0.4066 -0.1551
28771SOL    HW195281  11.381   0.279  11.771 -1.0659  0.4113  3.4236
28771SOL    HW295282  11.346   0.134  11.800  0.4020 -0.7207  0.0514
28772SOL     OW95283   2.612   3.992   3.230 -0.4047  0.0479  0.2942
28772SOL    HW195284   2.678   4.056   3.203 -0.2620  0.2795  1.1921
28772SOL    HW295285   2.648   3.908   3.201  0.2870  0.1705  0.7798
28773SOL     OW95286   8.256   4.792   7.180  0.1066 -0.2863 -0.1714
28773SOL    HW195287   8.261   4.742   7.098  0.5122  0.1483 -0.4164
28773SOL    HW295288   8.225   4.729   7.245  2.0889 -1.2875 -0.1338
28774SOL     OW95289   5.971  11.773   8.265  0.4447 -0.1813  0.2542
28774SOL    HW195290   5.994  11.754   8.356  0.0321 -1.1648  0.1665
28774SOL    HW295291   5.881  11.741   8.256  0.5147 -0.1780 -0.5202
28775SOL     OW95292  10.099   4.812  10.731 -0.8162  0.0331  0.1962
28775SOL    HW195293  10.095   4.870  10.655 -1.2997  0.7197  0.7300
28775SOL    HW295294  10.096   4.724  10.694  0.5406  0.3178 -0.6686
28776SOL     OW95295   9.061   1.127   2.583  0.4972 -0.0222 -0.0212
28776SOL    HW195296   9.137   1.185   2.575  1.4506 -1.1097  0.8139
28776SOL    HW295297   9.078   1.057   2.520  0.1196 -0.2070  0.0814
28777SOL     OW95298   7.115   0.127   0.036  0.3836  0.2098 -0.2731
28777SOL    HW195299   7.044   0.180   0.071  2.7563  2.7288  1.1311
28777SOL    HW295300   7.119   0.051   0.094 -1.8339 -0.5908 -1.0973
28778SOL     OW95301   0.082   8.343   5.194  0.0553 -0.6505 -0.2740
28778SOL    HW195302   0.087   8.352   5.099 -2.0362  0.8080 -0.3127
28778SOL    HW295303  -0.006   8.373   5.216  0.5188 -0.8930  2.1377
28779SOL     OW95304   2.979  10.475   6.878  0.1499  0.1047  0.4739
28779SOL    HW195305   2.920  10.484   6.952  0.2393  2.1256  0.3466
28779SOL    HW295306   2.920  10.460   6.803 -0.3684  2.9254  0.2073
28780SOL     OW95307   2.773   2.209  11.974 -0.0729  0.0806  0.7516
28780SOL    HW195308   2.705   2.200  11.908 -0.0141 -1.0542  0.8372
28780SOL    HW295309   2.782   2.122  12.013  2.5058 -0.2465 -0.3388
28781SOL     OW95310   9.322   9.538   1.682 -0.2119  0.4687  0.5529
28781SOL    HW195311   9.276   9.618   1.708  0.2173  1.1948 -0.8349
28781SOL    HW295312   9.414   9.564   1.676  0.3222 -0.7924  2.5815
28782SOL     OW95313   7.754   1.348   4.838 -0.1736 -0.6128 -0.1518
28782SOL    HW195314   7.710   1.325   4.920 -2.3869 -0.4962 -1.2344
28782SOL    HW295315   7.700   1.416   4.800  2.4515  1.5151 -0.3548
28783SOL     OW95316   0.528   9.277   8.242  0.6659 -0.0077 -0.0680
28783SOL    HW195317   0.451   9.312   8.196 -1.2663 -2.2808  1.2137
28783SOL    HW295318   0.537   9.333   8.319  2.3472  2.2190 -1.7419
28784SOL     OW95319   1.770   3.728   1.543 -0.1561  0.2578 -0.3106
28784SOL    HW195320   1.714   3.696   1.613  1.5388  0.5065  1.2323
28784SOL    HW295321   1.710   3.770   1.481 -1.7708 -0.5783  0.6211
28785SOL     OW95322   1.583  12.405   7.535  0.3941  0.0004  0.8183
28785SOL    HW195323   1.637  12.466   7.585  2.2968  0.2680 -1.4040
28785SOL    HW295324   1.550  12.456   7.461  1.8252 -1.5203 -0.9659
28786SOL     OW95325   7.347   9.005   2.552 -0.4006  0.4115  0.9515
28786SOL    HW195326   7.354   9.007   2.648 -0.7518  0.9026  0.9713
28786SOL    HW295327   7.277   8.942   2.535  0.4938 -0.6108  0.9607
28787SOL     OW95328  10.609   1.867   7.027 -0.3414  0.0124 -0.3271
28787SOL    HW195329  10.597   1.822   7.110 -1.5837  0.4712 -0.2372
28787SOL    HW295330  10.520   1.883   6.995  0.0865  1.4750 -0.8552
28788SOL     OW95331   6.138   9.685   5.499  0.3273 -0.1743  0.2820
28788SOL    HW195332   6.056   9.716   5.461  0.6134  0.8828  0.4864
28788SOL    HW295333   6.184   9.643   5.427 -0.1841 -0.3296  0.0472
28789SOL     OW95334  10.556   6.572   6.090 -0.3636 -0.0759  0.3159
28789SOL    HW195335  10.559   6.549   6.183 -0.8720  2.2045  0.9614
28789SOL    HW295336  10.477   6.529   6.057  0.0504 -1.2540  0.8176
28790SOL     OW95337   2.153   8.858   4.589  0.6606 -0.5046 -0.0257
28790SOL    HW195338   2.200   8.785   4.550 -1.2493 -1.0580 -1.4313
28790SOL    HW295339   2.074   8.867   4.537  1.1116  3.0644 -0.3759
28791SOL     OW95340   4.909   7.855  11.621  0.1048 -0.2986 -0.1597
28791SOL    HW195341   4.904   7.915  11.547  1.7738 -0.2240 -0.2386
28791SOL    HW295342   4.869   7.774  11.589 -1.6925  0.5497 -0.2143
28792SOL     OW95343   3.861   5.163   6.891  1.0369  0.1231  0.2973
28792SOL    HW195344   3.843   5.163   6.797  2.1944 -0.2423  0.0501
28792SOL    HW295345   3.837   5.250   6.921 -1.8231 -0.5393  0.2016
28793SOL     OW95346   1.852   8.596   1.200  0.0962  0.1657  0.2409
28793SOL    HW195347   1.815   8.634   1.120  1.1351 -0.1944 -0.4440
28793SOL    HW295348   1.936   8.559   1.171  0.0268 -0.8526  1.3005
28794SOL     OW95349   4.108   3.920   3.618 -0.5155  0.3506 -0.2072
28794SOL    HW195350   4.164   3.864   3.672 -0.2591  0.4385 -0.3767
28794SOL    HW295351   4.128   3.895   3.528 -0.0356  1.0437 -0.3065
28795SOL     OW95352   6.142  11.744   7.580  0.1752  0.1772  0.0205
28795SOL    HW195353   6.210  11.795   7.622  2.6777 -1.0849 -2.1844
28795SOL    HW295354   6.100  11.696   7.651  1.8970  0.6829  1.4447
28796SOL     OW95355   1.288   3.341   6.259  0.3304  0.2655 -0.2925
28796SOL    HW195356   1.339   3.261   6.272 -1.3985 -1.1566 -1.6666
28796SOL    HW295357   1.292   3.386   6.343  0.5144 -1.7909  0.8674
28797SOL     OW95358  10.345   6.815   2.848 -0.4862  0.2273  0.1294
28797SOL    HW195359  10.301   6.872   2.786 -0.8478 -0.8170 -0.6002
28797SOL    HW295360  10.277   6.756   2.881  0.0433 -0.3910  0.1595
28798SOL     OW95361   0.619   4.423   7.209  0.7260 -0.0691  0.0840
28798SOL    HW195362   0.595   4.476   7.285 -1.0033 -0.2842 -0.2722
28798SOL    HW295363   0.566   4.343   7.218  1.5624 -0.7169 -0.6070
28799SOL     OW95364   7.007   1.004   2.263  0.4724  0.5564 -0.1768
28799SOL    HW195365   6.994   0.948   2.339 -0.7894 -1.8534 -2.0119
28799SOL    HW295366   6.948   0.969   2.197  0.2677  3.5776 -1.7937
28800SOL     OW95367   4.106  10.289  10.930  0.4906  0.5728 -0.1375
28800SOL    HW195368   4.165  10.245  10.868  1.0031  1.3929 -0.2383
28800SOL    HW295369   4.024  10.239  10.924  0.5854  0.5478 -1.3584
28801SOL     OW95370   8.584   2.869   3.660 -0.2858  0.3732 -0.0242
28801SOL    HW195371   8.657   2.833   3.711  0.0512  0.9251 -0.1195
28801SOL    HW295372   8.568   2.955   3.699 -2.5604 -0.6974  1.7133
28802SOL     OW95373   1.031   6.419  10.007 -0.2405  0.7808  0.0633
28802SOL    HW195374   1.028   6.326   9.985  0.8717  0.7162  0.1170
28802SOL    HW295375   1.020   6.464   9.923  2.1885  0.5472 -0.4575
28803SOL     OW95376   4.985   3.063  11.460  0.1940 -0.2218  0.1195
28803SOL    HW195377   4.957   2.988  11.513 -1.1753  0.4503  0.3973
28803SOL    HW295378   4.909   3.121  11.458  1.2921  1.2951  0.1328
28804SOL     OW95379   0.956  10.896   4.754  0.2619 -0.3281  0.1907
28804SOL    HW195380   0.904  10.930   4.827 -0.1781 -1.1625  0.2846
28804SOL    HW295381   1.045  10.889   4.789  0.0538 -0.7217  0.6569
28805SOL     OW95382   9.859  10.323   6.161  0.7458  0.1439  0.4701
28805SOL    HW195383   9.797  10.279   6.220  1.7833 -0.2562  1.3011
28805SOL    HW295384   9.825  10.307   6.073 -0.5776  0.3424  0.9263
28806SOL     OW95385   2.884   7.763   1.493 -0.1114 -0.2310  0.2552
28806SOL    HW195386   2.952   7.742   1.429 -0.2474 -0.4084  0.1674
28806SOL    HW295387   2.816   7.697   1.478 -0.7640  0.5486 -0.3501
28807SOL     OW95388   1.820   5.284   6.436 -0.2800 -0.8196  0.4208
28807SOL    HW195389   1.763   5.351   6.474 -1.2826 -0.3987 -1.6900
28807SOL    HW295390   1.883   5.333   6.383 -0.0260 -1.4672  0.1091
28808SOL     OW95391   2.121   3.913   5.519  0.2579 -0.1600 -0.5917
28808SOL    HW195392   2.106   3.922   5.614 -2.6556 -0.9600 -0.8687
28808SOL    HW295393   2.208   3.949   5.505 -0.0043  1.8596  2.1201
28809SOL     OW95394  10.106   7.404   0.901 -0.2503  0.3482  0.0833
28809SOL    HW195395  10.074   7.446   0.821  2.7696  1.1254 -0.8686
28809SOL    HW295396  10.126   7.477   0.959  0.1654 -0.0480  0.4457
28810SOL     OW95397   0.660   7.531   9.959 -0.2120  0.5459 -0.2868
28810SOL    HW195398   0.722   7.544   9.887  0.2727  1.0691  0.2143
28810SOL    HW295399   0.662   7.437   9.976  1.3356  0.6792  0.4798
28811SOL     OW95400   3.882  11.436   5.897  0.4151  0.1087  0.0384
28811SOL    HW195401   3.846  11.362   5.848 -1.5960  0.1700  1.3259
28811SOL    HW295402   3.917  11.396   5.977 -1.1224  0.5411  0.9695
28812SOL     OW95403   9.972   2.010   1.753  0.1035 -0.8767 -0.0850
28812SOL    HW195404   9.938   1.926   1.723  0.4595 -1.2301  0.4871
28812SOL    HW295405  10.002   2.053   1.673  2.1432 -2.3136 -0.1692
28813SOL     OW95406  10.882   9.082   0.782 -0.0599  0.2977 -0.1316
28813SOL    HW195407  10.883   9.136   0.703  0.6519 -1.4327 -1.3871
28813SOL    HW295408  10.943   9.010   0.762  0.9236  0.3359  2.3981
28814SOL     OW95409  10.320  11.576   8.585  0.2485  0.4123  0.2533
28814SOL    HW195410  10.297  11.648   8.525 -1.7228  0.9648  1.5912
28814SOL    HW295411  10.320  11.498   8.529  1.2221  1.2565 -0.9886
28815SOL     OW95412   2.947   2.194   5.315 -0.0682  0.1670 -0.6192
28815SOL    HW195413   2.898   2.113   5.297 -2.0327  1.1095  0.2612
28815SOL    HW295414   3.017   2.194   5.249  0.4787 -2.6139 -0.1780
28816SOL     OW95415   4.701   2.689   2.562  0.2280  0.6278  0.1259
28816SOL    HW195416   4.647   2.692   2.641 -0.0659  1.7747 -0.1019
28816SOL    HW295417   4.656   2.746   2.500  0.6561  0.0348 -0.7460
28817SOL     OW95418   6.551   3.662   6.017  0.4150  0.2785 -0.2857
28817SOL    HW195419   6.636   3.630   5.987 -0.0412 -0.6902 -0.5822
28817SOL    HW295420   6.488   3.624   5.956 -0.1426  2.1971 -1.0150
28818SOL     OW95421   5.840   8.575   5.688 -0.3586  0.3456  0.4453
28818SOL    HW195422   5.885   8.503   5.732  1.1021  0.7443 -0.3383
28818SOL    HW295423   5.898   8.650   5.699 -0.2071  0.6033 -1.6032
28819SOL     OW95424   2.900   7.482   2.602 -0.2167  0.0094 -0.2153
28819SOL    HW195425   2.940   7.426   2.669  3.5670  1.7010 -0.7608
28819SOL    HW295426   2.899   7.428   2.523 -2.0785 -1.0808  0.5100
28820SOL     OW95427   6.832   8.335   5.185 -0.4215 -0.0073 -0.0442
28820SOL    HW195428   6.801   8.255   5.227 -0.0743  0.6073  1.4380
28820SOL    HW295429   6.760   8.398   5.197 -0.3198  0.1776 -0.3790
28821SOL     OW95430   2.891   4.519   3.037  0.6683 -0.6190  0.1251
28821SOL    HW195431   2.811   4.517   3.088 -0.3040  0.4356 -1.2837
28821SOL    HW295432   2.883   4.597   2.982  1.4625 -1.8952 -1.9195
28822SOL     OW95433   8.982  11.669   9.299  0.1312 -0.6041 -0.0177
28822SOL    HW195434   8.890  11.684   9.277  0.1085  1.4039  1.2072
28822SOL    HW295435   8.992  11.707   9.386  2.3137  0.0633 -0.5065
28823SOL     OW95436   3.891   9.537   2.697 -0.3057 -0.0117  0.2080
28823SOL    HW195437   3.828   9.593   2.742 -0.2121  0.8361 -0.6606
28823SOL    HW295438   3.846   9.511   2.616 -0.4040 -1.3378  0.6741
28824SOL     OW95439  12.583   1.924   4.033  0.7110  0.2512 -0.0251
28824SOL    HW195440  12.563   2.004   4.081  0.8968 -0.0201  0.5157
28824SOL    HW295441  12.679   1.917   4.037  0.6203 -0.6703  1.0667
28825SOL     OW95442   1.115   0.359   2.899 -0.1609 -0.3964  0.3512
28825SOL    HW195443   1.140   0.270   2.926 -1.3361 -1.5314 -1.9716
28825SOL    HW295444   1.027   0.370   2.936 -0.6593 -0.8830 -0.6239
28826SOL     OW95445   2.915   1.353   8.781 -0.0087 -0.1804  0.3449
28826SOL    HW195446   2.879   1.440   8.799  0.7365  0.2462 -0.1740
28826SOL    HW295447   2.953   1.325   8.864  0.6786  0.4428  0.2402
28827SOL     OW95448   2.159   0.409   4.124  0.2853 -0.1122 -0.0477
28827SOL    HW195449   2.172   0.480   4.061 -2.4356  0.4236 -0.1224
28827SOL    HW295450   2.139   0.333   4.070 -1.6079  0.2465  0.0709
28828SOL     OW95451   9.213   9.017   1.125  0.5849  0.0201 -0.0756
28828SOL    HW195452   9.266   8.986   1.199  1.3712  0.5525 -0.4158
28828SOL    HW295453   9.270   9.009   1.049  0.1436  0.4951 -0.4623
28829SOL     OW95454   9.439   9.296   6.128 -0.3920 -0.1382 -0.0831
28829SOL    HW195455   9.408   9.376   6.086 -0.1967  0.3555  0.7104
28829SOL    HW295456   9.364   9.237   6.124 -0.4578 -0.0189 -0.8945
28830SOL     OW95457   3.606   4.292   4.274 -0.4044 -0.2879 -0.0018
28830SOL    HW195458   3.607   4.329   4.186  0.6565 -0.3156 -0.0096
28830SOL    HW295459   3.686   4.324   4.315 -0.9672 -0.1507  1.0110
28831SOL     OW95460   4.493   2.346   6.460  0.7221  0.0347  0.0066
28831SOL    HW195461   4.403   2.341   6.431  0.6399  1.6610 -0.0918
28831SOL    HW295462   4.513   2.257   6.491 -2.0060  0.3331  3.2839
28832SOL     OW95463   1.366   5.153   7.297  0.1329  0.0454 -0.2866
28832SOL    HW195464   1.365   5.233   7.245  0.2612  0.2991  0.0944
28832SOL    HW295465   1.276   5.147   7.331 -0.2192 -0.6336 -1.2987
28833SOL     OW95466   1.727   5.046   4.732  0.2244  0.3078 -0.0628
28833SOL    HW195467   1.792   5.038   4.662 -0.0457  2.6675 -0.6634
28833SOL    HW295468   1.665   4.975   4.715  0.4081  0.5543 -1.9543
28834SOL     OW95469   5.434   6.692   7.322  0.0715 -0.1859  0.0419
28834SOL    HW195470   5.339   6.695   7.309 -0.0116 -0.2381  0.6093
28834SOL    HW295471   5.471   6.705   7.235 -0.4879 -2.3646 -0.5956
28835SOL     OW95472   0.168   1.056  10.463 -0.0148  0.3402  0.1653
28835SOL    HW195473   0.251   1.013  10.483  0.0983 -0.2063 -1.3382
28835SOL    HW295474   0.110   0.984  10.438 -1.0576  0.6840  1.4782
28836SOL     OW95475   1.799   9.712  11.788  0.2862 -0.4123  0.2163
28836SOL    HW195476   1.845   9.682  11.710  0.4501  0.2755  0.0396
28836SOL    HW295477   1.723   9.655  11.794  0.5641 -0.8263 -0.1335
28837SOL     OW95478   6.692   4.546   1.011  0.4387 -0.2349 -0.2936
28837SOL    HW195479   6.698   4.573   1.102 -0.6499  0.0450 -0.2886
28837SOL    HW295480   6.717   4.454   1.011 -0.1541 -0.3997  0.3870
28838SOL     OW95481   8.199   3.846   9.484  0.2209 -0.0334 -0.2253
28838SOL    HW195482   8.266   3.793   9.527 -1.2282 -2.5790 -0.8990
28838SOL    HW295483   8.239   3.872   9.401  0.4334 -1.4918 -0.6048
28839SOL     OW95484   1.638  10.602   5.739  0.2646  0.0822  0.1906
28839SOL    HW195485   1.625  10.662   5.813  0.8381 -0.3244  0.6312
28839SOL    HW295486   1.672  10.522   5.780  1.8655  0.2963 -0.6525
28840SOL     OW95487   2.200   2.694   2.678 -0.5694 -0.2211 -0.2768
28840SOL    HW195488   2.223   2.671   2.588 -0.6349  0.0498 -0.3655
28840SOL    HW295489   2.127   2.637   2.700 -0.1729 -0.7020 -0.1873
28841SOL     OW95490   3.380   8.536  12.227 -0.5057  0.1235  0.1424
28841SOL    HW195491   3.383   8.452  12.273  0.1420 -1.1764 -2.1209
28841SOL    HW295492   3.315   8.588  12.274  0.1747 -1.0633  2.5088
28842SOL     OW95493   4.150   3.150  10.166 -0.1316 -0.1619 -0.0717
28842SOL    HW195494   4.222   3.206  10.137 -1.4158  0.1619 -2.9898
28842SOL    HW295495   4.185   3.061  10.162  0.4779  0.0792 -0.1820
28843SOL     OW95496   0.294   0.153   9.843  0.4157 -0.4171 -0.5545
28843SOL    HW195497   0.205   0.135   9.874  0.4746 -0.9644 -0.6873
28843SOL    HW295498   0.301   0.105   9.761  1.5482 -2.2289  0.5178
28844SOL     OW95499  12.547   4.250   3.673 -0.4920  0.1021 -0.8002
28844SOL    HW195500  12.529   4.166   3.630  0.2346  1.0186 -3.0795
28844SOL    HW295501  12.574   4.226   3.762 -0.4046 -2.0642 -1.3404
28845SOL     OW95502  11.512   4.484   8.943 -0.4337 -0.5010 -0.1115
28845SOL    HW195503  11.566   4.554   8.980  1.0895 -0.2105 -2.5994
28845SOL    HW295504  11.430   4.488   8.992  0.7047  1.0446  1.8065
28846SOL     OW95505   3.534  10.463   9.703 -0.6312 -0.1737  0.0186
28846SOL    HW195506   3.441  10.470   9.682 -1.0307  1.1203  2.0357
28846SOL    HW295507   3.577  10.518   9.638 -1.6718  2.3346  1.3270
28847SOL     OW95508  10.523  12.407   4.864  0.1823  0.6953 -0.3309
28847SOL    HW195509  10.568  12.413   4.948 -0.0824 -0.3534 -0.0992
28847SOL    HW295510  10.582  12.448   4.801  1.8886 -1.4095 -0.1994
28848SOL     OW95511   8.614  10.855  11.189 -0.2840 -0.1331  0.0146
28848SOL    HW195512   8.655  10.777  11.227  0.7134 -0.5116 -1.7239
28848SOL    HW295513   8.630  10.847  11.095 -1.5193  1.4052 -0.3698
28849SOL     OW95514   8.960  10.381   4.730  0.1082 -0.3939  0.1901
28849SOL    HW195515   8.970  10.431   4.811 -1.3412 -1.3782  1.0227
28849SOL    HW295516   8.962  10.447   4.660  0.8972  0.5176  1.0486
28850SOL     OW95517   7.544   4.223   4.321 -0.6007  0.5958  0.0877
28850SOL    HW195518   7.517   4.137   4.353 -0.4278  0.8495  0.9388
28850SOL    HW295519   7.489   4.285   4.370 -1.2808  0.9455 -1.0913
28851SOL     OW95520   7.432   0.017   0.192 -0.3183  0.4323  0.1999
28851SOL    HW195521   7.399   0.088   0.137 -4.1839 -0.1538  1.4692
28851SOL    HW295522   7.476   0.061   0.265  0.7800  1.3092 -0.9373
28852SOL     OW95523  10.786   0.208   7.647  0.1671  0.0098 -0.6033
28852SOL    HW195524  10.826   0.131   7.687 -1.0632 -0.0084  0.6720
28852SOL    HW295525  10.748   0.177   7.565  0.9731 -0.3927 -0.8355
28853SOL     OW95526  11.887   0.542   8.256  0.4260 -0.1566  0.0538
28853SOL    HW195527  11.897   0.636   8.242 -1.5192  0.3422  1.5022
28853SOL    HW295528  11.953   0.520   8.322 -0.7772  0.7869  1.6443
28854SOL     OW95529   9.089   5.140   4.248 -0.4836  0.1733 -0.4531
28854SOL    HW195530   9.046   5.197   4.184 -1.6959 -0.5525 -0.3128
28854SOL    HW295531   9.159   5.097   4.199  1.4645  2.8282 -0.2194
28855SOL     OW95532   1.383   4.343   2.306 -0.5631  0.1721 -0.0509
28855SOL    HW195533   1.405   4.254   2.282 -3.2550 -0.3096 -1.0441
28855SOL    HW295534   1.366   4.388   2.223 -0.7602  1.1698  0.5043
28856SOL     OW95535   1.064   1.892   5.261 -0.1618 -0.4414  0.0302
28856SOL    HW195536   1.000   1.899   5.332  0.6794  1.6495  0.6858
28856SOL    HW295537   1.143   1.859   5.303 -0.1356 -0.7863 -0.2854
28857SOL     OW95538   9.486   0.241  12.524 -0.4495 -0.7115  0.0316
28857SOL    HW195539   9.483   0.336  12.523  1.4362 -0.6036 -0.9029
28857SOL    HW295540   9.405   0.213  12.481 -0.2485  0.5252 -1.1978
28858SOL     OW95541  10.782   2.252   4.307  0.1191 -0.4170  0.0155
28858SOL    HW195542  10.707   2.223   4.254 -1.1309  1.5420  0.6301
28858SOL    HW295543  10.755   2.238   4.397  0.1500  1.0070  0.2700
28859SOL     OW95544   3.326   7.357   0.594 -0.2754  0.1428 -0.1394
28859SOL    HW195545   3.336   7.377   0.501 -0.8656 -2.6906 -0.9068
28859SOL    HW295546   3.402   7.303   0.615 -0.5158  0.1631  0.8373
28860SOL     OW95547   2.879   5.598   0.398  0.2416 -0.1081 -0.5718
28860SOL    HW195548   2.937   5.523   0.390  1.0841  0.6232 -1.8256
28860SOL    HW295549   2.791   5.564   0.378  0.2817 -1.1231  0.8523
28861SOL     OW95550   4.580   7.812   2.770 -0.2414  0.3363 -0.5886
28861SOL    HW195551   4.546   7.844   2.686 -1.2464 -1.5772 -0.9688
28861SOL    HW295552   4.542   7.871   2.835  0.4754  1.7865 -1.4534
28862SOL     OW95553   6.868   9.090  10.132 -0.1903 -0.4444 -0.5197
28862SOL    HW195554   6.915   9.098  10.049 -0.4674  0.8170 -0.5750
28862SOL    HW295555   6.820   9.173  10.141  0.2164 -0.3491  1.1292
28863SOL     OW95556   9.199   1.556   5.976  0.5492  0.4654  0.3808
28863SOL    HW195557   9.215   1.642   6.014  4.4167 -0.5479  1.5214
28863SOL    HW295558   9.174   1.500   6.050 -0.3537  0.2270 -0.0822
28864SOL     OW95559   6.659   8.384   3.671  0.5868  1.2966 -0.0314
28864SOL    HW195560   6.634   8.292   3.663  0.4023  1.4545 -1.5210
28864SOL    HW295561   6.585   8.425   3.717  0.8966  0.6376  1.1095
28865SOL     OW95562   6.409   3.913   5.881  0.3003  0.0848  0.5463
28865SOL    HW195563   6.440   3.876   5.964 -0.7339 -0.0893  0.8772
28865SOL    HW295564   6.327   3.957   5.904 -1.1269 -1.7503 -0.6963
28866SOL     OW95565   1.254   6.796  10.874  0.7336  0.1181  0.0528
28866SOL    HW195566   1.228   6.706  10.852  1.0722 -0.0927  0.5114
28866SOL    HW295567   1.190   6.851  10.828  0.5773 -0.3524 -0.3049
28867SOL     OW95568   7.919   6.689  10.408  0.1689  0.3483 -0.3761
28867SOL    HW195569   7.979   6.759  10.381 -0.8952  0.5321 -2.4140
28867SOL    HW295570   7.954   6.660  10.493  2.7430  0.8940 -1.1453
28868SOL     OW95571   7.908   0.442  11.776 -0.0783  0.0731 -0.0440
28868SOL    HW195572   7.904   0.488  11.860 -1.6229 -0.8398  0.4129
28868SOL    HW295573   7.817   0.431  11.750  0.2952 -1.3667 -0.8734
28869SOL     OW95574   3.835   5.586   7.201 -0.2274 -0.8641 -0.3216
28869SOL    HW195575   3.879   5.595   7.286  0.9519 -1.2859 -0.8757
28869SOL    HW295576   3.784   5.667   7.193 -0.0174 -0.6235  0.5875
28870SOL     OW95577   7.754   7.223   1.141  0.1385  0.1249  0.0182
28870SOL    HW195578   7.770   7.129   1.140  1.5741  0.3398  0.2557
28870SOL    HW295579   7.734   7.245   1.050 -0.9501 -0.5129  0.0924
28871SOL     OW95580  10.891   1.549   8.876 -0.3693 -0.9705 -0.8576
28871SOL    HW195581  10.979   1.553   8.912  0.0205  1.3963 -1.8458
28871SOL    HW295582  10.902   1.572   8.783 -2.1657  1.4400 -0.5710
28872SOL     OW95583   1.041   0.900   0.873  0.2025 -0.0645 -0.6802
28872SOL    HW195584   1.062   0.926   0.784  2.3128  0.1025 -0.1816
28872SOL    HW295585   1.003   0.813   0.864 -4.0390  1.6522 -2.0805
28873SOL     OW95586   4.455   1.359   6.482 -0.1151 -0.0733 -0.3919
28873SOL    HW195587   4.544   1.349   6.514 -0.0225 -0.8121 -0.8603
28873SOL    HW295588   4.409   1.405   6.553  0.4390 -0.3765  0.1725
28874SOL     OW95589   2.128   3.390  12.206 -0.8501 -0.0377  0.2970
28874SOL    HW195590   2.058   3.370  12.144  0.5783  1.7325 -2.0218
28874SOL    HW295591   2.186   3.314  12.202 -0.9539 -0.0923 -0.2504
28875SOL     OW95592   6.407   1.565   3.405  0.6330  0.6148  0.0722
28875SOL    HW195593   6.378   1.613   3.483 -0.7115 -1.4927  0.9395
28875SOL    HW295594   6.502   1.555   3.417  1.0793  3.4510 -0.4244
28876SOL     OW95595   9.990   6.962  10.702  0.2512 -0.6041  0.0314
28876SOL    HW195596  10.085   6.968  10.689  0.3976 -0.9730  0.8881
28876SOL    HW295597   9.954   6.953  10.613  1.1218 -1.8116 -0.2280
28877SOL     OW95598   0.043   3.588   9.924  0.1757  0.0210 -0.2134
28877SOL    HW195599   0.022   3.583  10.017  1.9873  0.9924  0.2991
28877SOL    HW295600  -0.007   3.663   9.892 -0.6393 -0.4615 -0.0950
28878SOL     OW95601   0.874   4.004   0.515  0.0684  0.3154  0.2354
28878SOL    HW195602   0.850   4.093   0.541  0.2450  0.9779 -1.6954
28878SOL    HW295603   0.970   4.003   0.516  0.1132  0.6617 -1.2026
28879SOL     OW95604  10.437   0.862  12.587  0.1735 -0.0727  0.3773
28879SOL    HW195605  10.414   0.949  12.620 -1.8963 -0.7971  1.0195
28879SOL    HW295606  10.515   0.837  12.636  0.7561  1.3568  0.2324
28880SOL     OW95607  10.533   7.329  11.735 -0.1097  0.5444  0.4683
28880SOL    HW195608  10.457   7.372  11.695  1.0880  0.1031 -2.5628
28880SOL    HW295609  10.495   7.274  11.804 -2.6358 -0.0324 -1.2205
28881SOL     OW95610   5.425  12.324   1.695  0.4201 -0.4866 -0.0964
28881SOL    HW195611   5.412  12.281   1.779  1.7925 -1.6544 -0.4436
28881SOL    HW295612   5.491  12.271   1.650  1.9779  1.7784 -0.6930
28882SOL     OW95613   8.553   0.564   7.228 -0.3272  0.2814  0.4402
28882SOL    HW195614   8.549   0.611   7.145 -0.6715 -1.1983 -0.4212
28882SOL    HW295615   8.646   0.555   7.246 -0.2544  0.9861  0.4524
28883SOL     OW95616   4.070   5.817  12.472  0.5651  0.2084 -0.2740
28883SOL    HW195617   4.041   5.734  12.434  1.2129  0.5555 -1.6028
28883SOL    HW295618   4.120   5.792  12.550 -0.9629 -0.5247  0.5179
28884SOL     OW95619   3.295  10.558   0.746  0.5672  0.2912 -0.0160
28884SOL    HW195620   3.358  10.492   0.775  1.3321 -1.0156 -3.9968
28884SOL    HW295621   3.209  10.522   0.770  1.1323 -0.1594  1.3875
28885SOL     OW95622  11.355  10.276   7.904 -0.4906 -0.4889  0.1840
28885SOL    HW195623  11.371  10.187   7.872  1.3409  0.0688 -0.5231
28885SOL    HW295624  11.278  10.305   7.855  0.8571 -0.5117 -2.1040
28886SOL     OW95625   3.933   7.624   0.873  0.3827  0.0579  0.1012
28886SOL    HW195626   3.875   7.690   0.910 -1.1905 -0.7491 -0.8198
28886SOL    HW295627   3.881   7.544   0.872  2.0678 -1.1103  0.7060
28887SOL     OW95628   3.854  10.955  12.415  0.2034  0.1728  0.4005
28887SOL    HW195629   3.823  10.864  12.421 -0.2954  0.3769  0.9783
28887SOL    HW295630   3.938  10.948  12.370 -0.6899 -0.3734 -1.2712
28888SOL     OW95631   6.746   5.701  10.935  0.0345 -0.8385 -0.1931
28888SOL    HW195632   6.757   5.678  10.843 -0.6214  0.8538 -0.7249
28888SOL    HW295633   6.652   5.695  10.951 -0.0174  0.2162 -0.0278
28889SOL     OW95634   8.299  10.583   2.809 -0.0636 -0.0889 -0.7395
28889SOL    HW195635   8.217  10.634   2.809  0.9380  1.6202 -0.9722
28889SOL    HW295636   8.292  10.526   2.733 -0.8086  0.4639 -1.1045
28890SOL     OW95637   3.082   0.986  11.543  0.0593  0.7701  0.1597
28890SOL    HW195638   3.053   1.027  11.624 -0.3067  1.1981 -0.1817
28890SOL    HW295639   3.134   0.911  11.571  0.7156  1.4447  0.7904
28891SOL     OW95640   8.478   6.127   4.425 -0.5148  0.0910  0.3736
28891SOL    HW195641   8.388   6.097   4.426 -0.6860  0.4832 -1.0366
28891SOL    HW295642   8.527   6.056   4.383 -0.7105  1.1403 -1.7680
28892SOL     OW95643  12.184   6.974   4.436 -0.1425  0.6093  0.1690
28892SOL    HW195644  12.112   6.983   4.498  0.2250  1.5289  0.4787
28892SOL    HW295645  12.215   6.884   4.447  0.2522  0.9082  1.7003
28893SOL     OW95646   8.754   8.600   4.179  0.4512  0.0728  0.6021
28893SOL    HW195647   8.681   8.657   4.157  0.5671 -0.1364 -0.3390
28893SOL    HW295648   8.724   8.550   4.255 -0.6918 -0.5906 -0.2580
28894SOL     OW95649  10.098   8.635   3.758 -0.2481 -0.6737 -0.4718
28894SOL    HW195650  10.153   8.704   3.720  0.3808 -1.9280 -1.9443
28894SOL    HW295651  10.149   8.555   3.745 -1.5933 -1.6099 -0.1101
28895SOL     OW95652   0.882   2.170   9.130  0.4615  0.0529 -0.2836
28895SOL    HW195653   0.937   2.201   9.202  1.7152  0.9589 -1.5834
28895SOL    HW295654   0.852   2.249   9.087  1.8872 -0.4425 -2.3246
28896SOL     OW95655   0.037   0.780   9.743  0.7080  0.5819  0.2906
28896SOL    HW195656   0.110   0.721   9.725  0.2952 -0.1110  0.8237
28896SOL    HW295657   0.059   0.861   9.696  0.8114 -0.3154 -1.2672
28897SOL     OW95658   8.289   6.409   5.241 -0.7530 -0.0618 -0.7293
28897SOL    HW195659   8.360   6.377   5.185 -0.9586  0.2419 -1.1709
28897SOL    HW295660   8.321   6.395   5.330  1.2643  2.9424 -0.8162
28898SOL     OW95661   1.588  12.290  10.015  0.3547  0.3496  0.0092
28898SOL    HW195662   1.596  12.323  10.104 -0.5407 -0.5059  0.4243
28898SOL    HW295663   1.675  12.253   9.996  0.5706  0.5931  0.4990
28899SOL     OW95664   9.918   2.820   7.619 -0.1113  0.1606  0.2494
28899SOL    HW195665   9.929   2.897   7.563  1.2203 -0.1694  0.0204
28899SOL    HW295666   9.927   2.854   7.708  1.0456  0.2125  0.1303
28900SOL     OW95667   4.062   3.230   2.789  0.4348  0.6536  0.0730
28900SOL    HW195668   4.142   3.272   2.820  0.1467  0.5019  1.0551
28900SOL    HW295669   4.029   3.182   2.865 -1.3162  1.8222  0.1072
28901SOL     OW95670   3.379   4.747   9.283  0.4504 -0.8365  0.1748
28901SOL    HW195671   3.300   4.801   9.289  0.3449 -0.5807 -2.3312
28901SOL    HW295672   3.438   4.798   9.227  1.0632 -2.5085 -0.7653
28902SOL     OW95673   9.870   6.391  10.153  0.1507  0.2523 -0.2775
28902SOL    HW195674   9.826   6.366  10.234 -0.2217 -2.4941 -1.2448
28902SOL    HW295675   9.957   6.420  10.181 -0.2704  0.2012  1.1515
28903SOL     OW95676   7.296   5.326   1.868 -0.6022  0.6951 -0.0105
28903SOL    HW195677   7.228   5.277   1.822  0.0979 -0.9528  0.6460
28903SOL    HW295678   7.327   5.267   1.936  0.8704  1.7397  0.2771
28904SOL     OW95679  12.439   3.665   8.184 -0.6445 -0.3832 -0.7231
28904SOL    HW195680  12.354   3.625   8.167 -0.6708 -0.9532  0.6180
28904SOL    HW295681  12.455   3.649   8.277  0.4453  0.6522 -0.7059
28905SOL     OW95682   1.235   0.788   7.064  0.0140 -0.3511 -0.6477
28905SOL    HW195683   1.305   0.841   7.100 -0.3575  0.8529 -1.6207
28905SOL    HW295684   1.229   0.815   6.972 -2.2129  0.1716 -0.4135
28906SOL     OW95685  11.096   3.308  12.026 -0.0859  0.2957 -0.0092
28906SOL    HW195686  11.143   3.272  12.101 -2.3937  1.0940  1.9284
28906SOL    HW295687  11.148   3.384  12.000  1.5980 -0.9029 -0.3258
28907SOL     OW95688   5.458   0.628   6.097  0.2614  0.2794  0.0709
28907SOL    HW195689   5.480   0.554   6.153  0.3836 -0.1342 -0.5061
28907SOL    HW295690   5.525   0.627   6.029 -0.1230  0.5115 -0.3187
28908SOL     OW95691   5.395   1.573   5.443  0.1718 -0.2516  0.4940
28908SOL    HW195692   5.459   1.615   5.501  1.4042 -1.7947  0.3251
28908SOL    HW295693   5.398   1.626   5.363  0.0542  0.6267  1.0623
28909SOL     OW95694   0.212   6.817   6.170 -0.2633  0.2371  0.2237
28909SOL    HW195695   0.146   6.796   6.105 -1.7871  0.7332  1.5376
28909SOL    HW295696   0.267   6.884   6.129 -1.0077  0.3286 -0.6502
28910SOL     OW95697  10.676  12.383   1.096  0.3997 -0.3356 -0.6866
28910SOL    HW195698  10.635  12.353   1.178  0.7029  1.7885  0.3168
28910SOL    HW295699  10.767  12.355   1.104  1.4540  3.0183  1.6370
28911SOL     OW95700   5.282   2.510  10.192  0.7205 -0.0887 -0.3818
28911SOL    HW195701   5.360   2.564  10.206 -0.0293  1.1459 -0.8389
28911SOL    HW295702   5.209   2.572  10.191 -0.2080 -1.1502 -0.5871
28912SOL     OW95703   9.098   1.195   5.804  0.1813 -0.1275 -0.0225
28912SOL    HW195704   9.125   1.286   5.789 -0.9703  0.5737  1.7291
28912SOL    HW295705   9.180   1.146   5.808  0.8273  0.8076 -1.0864
28913SOL     OW95706   7.414   5.743   5.959  0.2859  0.6090 -0.4064
28913SOL    HW195707   7.440   5.753   5.867 -0.4839  0.3098 -0.6654
28913SOL    HW295708   7.319   5.744   5.956  0.2313 -0.7636  0.2370
28914SOL     OW95709   7.690   0.905   1.597  0.3224 -0.2129 -0.4526
28914SOL    HW195710   7.634   0.976   1.630 -0.8433 -0.8514 -0.9750
28914SOL    HW295711   7.754   0.949   1.542 -0.4279  0.4409 -0.8247
28915SOL     OW95712   0.485   0.096   2.204 -0.0264  0.0082  0.2221
28915SOL    HW195713   0.488   0.047   2.121 -1.9483 -0.6982  0.5199
28915SOL    HW295714   0.519   0.035   2.269 -0.6334 -0.2763  0.2858
28916SOL     OW95715   4.418   9.644   1.165 -0.4667 -0.2296 -0.2555
28916SOL    HW195716   4.492   9.601   1.207  0.2734 -0.6164 -1.8894
28916SOL    HW295717   4.370   9.573   1.122 -0.5068  0.2780 -1.0750
28917SOL     OW95718   7.353   9.120  10.483  0.6302 -0.2237  0.3245
28917SOL    HW195719   7.294   9.147  10.412 -0.8235 -0.3405  1.4339
28917SOL    HW295720   7.415   9.060  10.441  1.5609  1.8216 -1.3962
28918SOL     OW95721   2.970   2.513  12.094 -0.0451  0.0871  0.6338
28918SOL    HW195722   2.887   2.560  12.084 -0.6687 -1.0382  0.3279
28918SOL    HW295723   3.037   2.579  12.079 -0.8918  0.5215 -1.5714
28919SOL     OW95724   4.896   6.253   6.424 -0.0860  0.0831  0.0870
28919SOL    HW195725   4.938   6.309   6.358  0.1706 -0.1056  0.0894
28919SOL    HW295726   4.963   6.189   6.447 -0.0020  0.4620  0.9057
28920SOL     OW95727   5.728   3.130  10.810 -0.0916  0.0655 -0.3609
28920SOL    HW195728   5.766   3.187  10.743  0.2975  0.7724  0.4381
28920SOL    HW295729   5.799   3.118  10.874 -0.6590 -0.0365  0.2601
28921SOL     OW95730   8.611   1.910  11.326 -0.1334 -0.2346 -0.0394
28921SOL    HW195731   8.632   1.853  11.253  2.7161  1.4380 -0.6406
28921SOL    HW295732   8.671   1.883  11.396 -0.5125  0.3725  0.5329
28922SOL     OW95733   4.724   4.857  10.626 -0.4314  0.4387  0.4291
28922SOL    HW195734   4.695   4.773  10.662 -0.0820 -0.7133 -1.8108
28922SOL    HW295735   4.807   4.875  10.671 -0.5206 -0.3872  0.9507
28923SOL     OW95736  12.111   6.138   2.985 -0.1622  0.0850  0.2615
28923SOL    HW195737  12.199   6.124   3.021  0.3608  0.8064 -0.7134
28923SOL    HW295738  12.076   6.050   2.975  1.0699 -0.3117 -0.8469
28924SOL     OW95739  10.528   3.431  10.191 -0.5308  0.5610  0.1330
28924SOL    HW195740  10.571   3.516  10.186  2.3578 -0.8214 -0.9744
28924SOL    HW295741  10.571   3.387  10.265 -0.0876 -0.8204 -0.8990
28925SOL     OW95742   8.325   3.747  12.549  0.6316  0.4045 -0.1932
28925SOL    HW195743   8.261   3.734  12.620  0.9684  1.1834  0.2713
28925SOL    HW295744   8.276   3.793  12.481  0.2106 -0.6576 -0.6299
28926SOL     OW95745   2.595   2.621   1.647 -0.1783 -0.3470  0.2765
28926SOL    HW195746   2.529   2.572   1.695 -1.6395 -0.4448 -1.7267
28926SOL    HW295747   2.671   2.562   1.645 -0.7965 -1.1797  0.6421
28927SOL     OW95748  12.008   2.002   4.105  0.0074  0.4331 -0.2536
28927SOL    HW195749  12.083   2.033   4.156 -0.5833  0.4049  0.6600
28927SOL    HW295750  12.044   1.980   4.020  1.3089 -0.8855  0.5888
28928SOL     OW95751   1.478   0.328  11.302  0.6081 -0.0864 -0.1282
28928SOL    HW195752   1.564   0.315  11.263  1.0277 -0.0690  0.7716
28928SOL    HW295753   1.422   0.354  11.229  1.4867  0.4248 -0.6356
28929SOL     OW95754   3.952  11.978   9.121 -0.0358 -0.3402  0.0343
28929SOL    HW195755   3.869  12.011   9.085 -0.2188 -0.0595  0.7087
28929SOL    HW295756   4.019  12.035   9.083  0.0624 -1.6183 -1.8981
28930SOL     OW95757   5.626  12.163   1.584 -0.3279  0.2456 -0.4094
28930SOL    HW195758   5.674  12.182   1.504 -0.3398  0.0700 -0.4582
28930SOL    HW295759   5.576  12.085   1.564  0.4996 -0.4396  0.1168
28931SOL     OW95760   1.234   3.687   6.075 -0.1695 -0.2307 -0.5876
28931SOL    HW195761   1.278   3.713   5.994  1.2889  1.4765  0.6561
28931SOL    HW295762   1.204   3.770   6.113 -0.0282 -0.8991  1.0470
28932SOL     OW95763   1.988   6.845   6.588 -0.1318 -0.0030  0.1338
28932SOL    HW195764   1.992   6.880   6.677  0.6669  1.8400 -0.5783
28932SOL    HW295765   1.972   6.751   6.600 -3.0494  0.6134  2.1349
28933SOL     OW95766   6.270  11.099  10.145  0.3912  0.0666  0.2755
28933SOL    HW195767   6.332  11.035  10.110  1.4657  1.1184  0.1665
28933SOL    HW295768   6.185  11.056  10.140  1.1404 -1.5568  0.7391
28934SOL     OW95769   0.892   3.302   4.186 -0.1178 -0.3528 -0.5476
28934SOL    HW195770   0.863   3.355   4.111  0.1145  0.5639 -0.0011
28934SOL    HW295771   0.835   3.330   4.258 -1.2858 -2.2152 -0.6720
28935SOL     OW95772   5.321   2.875   2.509 -0.0650 -0.0122  0.0204
28935SOL    HW195773   5.288   2.944   2.566  2.2263 -0.2643  1.8345
28935SOL    HW295774   5.317   2.913   2.421  1.3137  2.5909  0.9559
28936SOL     OW95775   5.163  10.905   9.979 -0.0090 -0.4713 -0.3042
28936SOL    HW195776   5.172  10.974  10.044  0.7030  0.0146 -0.9015
28936SOL    HW295777   5.248  10.861   9.979  0.2303 -0.0455 -1.3585
28937SOL     OW95778   5.516   2.989   8.003  0.1097  0.2457 -0.1342
28937SOL    HW195779   5.447   2.935   8.042  1.2382 -1.7933 -0.8133
28937SOL    HW295780   5.471   3.067   7.971 -1.5748 -0.2158  0.9887
28938SOL     OW95781   2.485   6.266   2.225  0.6544  0.0145  0.5947
28938SOL    HW195782   2.429   6.288   2.151  1.4344 -0.4586 -0.1585
28938SOL    HW295783   2.495   6.347   2.274  0.3438  0.3939  0.0305
28939SOL     OW95784   1.692   7.765   4.318  0.7133 -0.6158 -0.1302
28939SOL    HW195785   1.630   7.757   4.390  1.1524 -2.3386  0.1014
28939SOL    HW295786   1.776   7.781   4.362  0.4634  2.0123 -0.4487
28940SOL     OW95787   3.689   8.622  12.527  0.4916  0.1504  0.2886
28940SOL    HW195788   3.639   8.561  12.473  2.0432  0.9381 -2.2072
28940SOL    HW295789   3.655   8.709  12.505  0.1326  0.4163  1.7689
28941SOL     OW95790  11.798   6.456   1.266  0.6565  0.6043  0.1316
28941SOL    HW195791  11.747   6.422   1.340 -0.5839  0.3025 -0.8238
28941SOL    HW295792  11.803   6.550   1.282 -0.4617  0.6823  0.1039
28942SOL     OW95793  10.358   0.666   7.304 -0.7535  0.4191  0.2718
28942SOL    HW195794  10.381   0.582   7.344  1.3495  0.8419  0.0433
28942SOL    HW295795  10.318   0.642   7.220 -0.1514 -0.3699  0.1968
28943SOL     OW95796   5.853  10.197   4.255  0.2421  0.2473  1.0121
28943SOL    HW195797   5.861  10.104   4.234  1.0509  0.6674 -0.7424
28943SOL    HW295798   5.943  10.227   4.266 -0.0665  0.5936  2.7683
28944SOL     OW95799  10.807   3.789  11.258 -0.2371 -0.0697 -0.6103
28944SOL    HW195800  10.811   3.835  11.342 -0.2535  1.5148 -1.4447
28944SOL    HW295801  10.859   3.710  11.272  1.2179  1.0030  0.3972
28945SOL     OW95802   7.065   6.321   8.571  0.7393  0.4497  0.4783
28945SOL    HW195803   7.140   6.283   8.617  0.5637 -0.6116 -0.0821
28945SOL    HW295804   7.086   6.312   8.478  0.4350  1.2246  0.3296
28946SOL     OW95805   2.350   2.992   5.896  0.5709  0.2857 -0.0569
28946SOL    HW195806   2.384   3.073   5.858  2.1869 -0.8650 -1.2039
28946SOL    HW295807   2.255   3.007   5.901  0.8755  2.4451  0.3401
28947SOL     OW95808   4.481   9.901   1.254 -0.5505  0.2216 -0.0995
28947SOL    HW195809   4.492   9.896   1.349 -2.0324 -1.3196  0.0263
28947SOL    HW295810   4.466   9.811   1.226 -0.2040  0.6504 -1.8108
28948SOL     OW95811   8.769  11.301  11.215 -0.1049 -0.1287  0.3468
28948SOL    HW195812   8.815  11.273  11.136 -0.4427  0.0173  0.0979
28948SOL    HW295813   8.829  11.361  11.259  0.8601 -1.6077  1.1540
28949SOL     OW95814   2.645  12.137   7.159  0.0171 -0.0041 -0.6436
28949SOL    HW195815   2.553  12.112   7.163 -0.4024  1.4127 -0.6140
28949SOL    HW295816   2.646  12.228   7.190  1.3567  0.1627 -1.0992
28950SOL     OW95817  12.278   8.634   6.378  0.4836  0.1698  0.0668
28950SOL    HW195818  12.329   8.575   6.434  1.1496  1.0644  0.4325
28950SOL    HW295819  12.336   8.652   6.304  0.6809  1.1314  0.4454
28951SOL     OW95820  12.263   2.694   6.844  0.1294  0.0090  0.4665
28951SOL    HW195821  12.296   2.653   6.924 -1.4137  0.5635  1.4393
28951SOL    HW295822  12.168   2.699   6.857 -0.3312 -0.9454 -1.9090
28952SOL     OW95823  10.780  10.640   7.818 -0.1416 -0.3170 -0.1348
28952SOL    HW195824  10.793  10.549   7.843 -1.1392  0.1307  2.3018
28952SOL    HW295825  10.864  10.682   7.839 -0.3030 -0.3443  0.6080
28953SOL     OW95826   5.873  12.208   6.640 -0.5477 -0.4817  0.7827
28953SOL    HW195827   5.954  12.201   6.589 -1.9824 -2.0627 -1.4135
28953SOL    HW295828   5.868  12.300   6.664  0.9068  0.0438 -0.7437
28954SOL     OW95829  11.861   7.936   2.223 -0.0152 -0.8627  0.1981
28954SOL    HW195830  11.910   7.869   2.272 -0.9415 -1.5267  0.2587
28954SOL    HW295831  11.848   7.897   2.137 -1.0506 -1.0221  0.4112
28955SOL     OW95832   2.290   3.042   0.050  0.5316 -0.4341 -0.2102
28955SOL    HW195833   2.341   2.984   0.108  0.1874 -2.2259 -1.6168
28955SOL    HW295834   2.223   2.985   0.012  0.7512  0.6733 -2.3755
28956SOL     OW95835   2.030   0.514   0.008  0.2208 -0.3052  0.0226
28956SOL    HW195836   2.125   0.504   0.002  0.3150  0.5273 -0.0477
28956SOL    HW295837   2.007   0.477   0.093  0.7306  0.2973  0.4310
28957SOL     OW95838   0.681   9.158  12.264  0.1282  0.3972  0.1137
28957SOL    HW195839   0.629   9.211  12.324  0.7549  1.2337 -0.0744
28957SOL    HW295840   0.754   9.126  12.318 -0.4296 -0.5741  0.3152
28958SOL     OW95841   7.186  11.177   9.633  0.3815 -0.1601 -0.0926
28958SOL    HW195842   7.218  11.237   9.565  0.2342 -1.0523 -0.9685
28958SOL    HW295843   7.091  11.182   9.625  0.3391 -2.4772 -2.0022
28959SOL     OW95844   6.732   1.507   7.683  0.7095 -0.3740  0.6214
28959SOL    HW195845   6.659   1.519   7.744 -1.3827 -2.1420 -1.3364
28959SOL    HW295846   6.705   1.556   7.605  1.2344 -1.6866 -0.4105
28960SOL     OW95847  10.349   8.778   7.476  0.3070 -0.3743 -0.1349
28960SOL    HW195848  10.430   8.789   7.427 -0.1574  0.7201 -0.7063
28960SOL    HW295849  10.371   8.718   7.547  1.9563  0.9294  0.5272
28961SOL     OW95850   1.077   1.163   9.956 -0.2095  0.9868  0.1172
28961SOL    HW195851   1.171   1.171   9.937 -0.1012  2.0240  0.9920
28961SOL    HW295852   1.043   1.108   9.886  1.2442 -0.3247  0.3985
28962SOL     OW95853  12.587   8.817  11.362 -0.1508 -0.1083 -0.2753
28962SOL    HW195854  12.650   8.792  11.429  2.7456 -1.2585 -3.1782
28962SOL    HW295855  12.571   8.910  11.378  1.2608 -0.0933  1.3484
28963SOL     OW95856   6.732   3.193   0.237  0.5336 -0.1488  0.4572
28963SOL    HW195857   6.731   3.109   0.284 -0.1555 -0.0627  0.6163
28963SOL    HW295858   6.769   3.172   0.151 -2.0807 -1.1894 -0.5097
28964SOL     OW95859  11.043   8.835   1.734  0.2817 -0.2696  0.4659
28964SOL    HW195860  10.970   8.892   1.710  1.0919 -0.0155 -1.6184
28964SOL    HW295861  11.012   8.788   1.811 -0.4132  2.9936  2.3987
28965SOL     OW95862   8.325   8.720   9.568  0.1209  0.1710  0.0979
28965SOL    HW195863   8.235   8.697   9.590 -0.4212  0.4768 -1.6798
28965SOL    HW295864   8.330   8.814   9.585 -0.3353  0.4317 -1.1064
28966SOL     OW95865   5.494   9.420   2.524  0.1950 -0.3497 -0.4155
28966SOL    HW195866   5.581   9.432   2.487 -0.4396 -0.3726 -1.9713
28966SOL    HW295867   5.461   9.339   2.485 -1.2040  0.5801 -1.2603
28967SOL     OW95868   3.072   0.727  10.580 -0.3097  0.0921  0.2378
28967SOL    HW195869   3.106   0.713  10.668 -1.7462  0.4530  0.8684
28967SOL    HW295870   3.088   0.820  10.563  0.4777 -0.0980 -0.1286
28968SOL     OW95871   6.276   3.333   0.540 -0.3027  0.0047  0.0478
28968SOL    HW195872   6.210   3.281   0.586  0.2321  0.0911  0.9425
28968SOL    HW295873   6.347   3.271   0.521 -0.3509  0.0581 -0.3203
28969SOL     OW95874   0.983   2.190   1.878  0.2641  0.2837 -0.3725
28969SOL    HW195875   1.049   2.141   1.926  0.7415  1.0807 -0.2126
28969SOL    HW295876   1.031   2.258   1.832 -0.3665  0.4744 -0.7657
28970SOL     OW95877  12.104   8.594  12.174 -0.8734  0.1196 -0.6655
28970SOL    HW195878  12.196   8.587  12.199 -1.5650 -0.9208  1.9547
28970SOL    HW295879  12.084   8.510  12.133 -0.5922  0.4721 -1.5375
28971SOL     OW95880   6.337   0.451   2.371  0.3276  0.0702  0.0136
28971SOL    HW195881   6.390   0.403   2.434  1.5589  1.4313  0.0655
28971SOL    HW295882   6.262   0.484   2.421  0.6591  0.1131  0.4767
28972SOL     OW95883  10.214   8.351   2.663 -0.1172  0.0346 -0.3556
28972SOL    HW195884  10.300   8.369   2.701 -0.8082  0.1284  1.2390
28972SOL    HW295885  10.207   8.255   2.666 -0.2496  0.0529 -0.0590
28973SOL     OW95886   6.674   4.196  12.335  0.0233 -0.3501 -0.0691
28973SOL    HW195887   6.627   4.114  12.324  0.2340 -0.2482 -2.0037
28973SOL    HW295888   6.607   4.264  12.319 -0.0974 -0.1209  1.2903
28974SOL     OW95889   9.160   6.625   5.358  0.3231 -0.1006 -0.1859
28974SOL    HW195890   9.142   6.563   5.428  2.6126 -1.3121 -0.5721
28974SOL    HW295891   9.231   6.680   5.391  1.3487 -0.6038 -1.4675
28975SOL     OW95892   9.408   6.102  11.541  0.5668 -0.0366  0.2823
28975SOL    HW195893   9.385   6.038  11.609  0.1295  2.1997  2.3920
28975SOL    HW295894   9.331   6.107  11.486 -0.1811  0.1354  1.3210
28976SOL     OW95895   2.514   1.092   6.769  0.9700 -0.0380 -0.5702
28976SOL    HW195896   2.506   1.021   6.706  1.2603  0.7803 -1.5734
28976SOL    HW295897   2.550   1.165   6.718  1.8707  0.4531  0.7089
28977SOL     OW95898   9.527   0.369   0.691  0.0012 -0.0142  0.1781
28977SOL    HW195899   9.558   0.399   0.606  2.1798 -2.1951  0.0777
28977SOL    HW295900   9.477   0.289   0.671 -0.7172  0.2502  0.8631
28978SOL     OW95901   8.671   1.981   7.435  0.1451 -0.4714  0.0992
28978SOL    HW195902   8.578   2.002   7.427  0.2527 -0.2743 -0.7257
28978SOL    HW295903   8.689   1.988   7.528 -0.2235  1.3886  0.0707
28979SOL     OW95904  10.768   8.801   9.627 -0.3486 -0.3383  0.5134
28979SOL    HW195905  10.801   8.882   9.668  1.8166 -0.9084  0.0292
28979SOL    HW295906  10.815   8.796   9.544 -1.2701 -1.5618  0.0386
28980SOL     OW95907   6.785  11.576   6.371 -0.4864  0.5311  0.3389
28980SOL    HW195908   6.749  11.538   6.290  1.4884  0.4898 -0.5659
28980SOL    HW295909   6.864  11.525   6.388 -0.9813  0.3983  2.4514
28981SOL     OW95910   7.221   6.500   1.628 -0.0427 -0.2956 -0.4568
28981SOL    HW195911   7.151   6.461   1.681 -0.4446 -0.2762 -0.9709
28981SOL    HW295912   7.226   6.590   1.658  0.4536 -0.5611  0.2886
28982SOL     OW95913   2.251  10.837   3.158 -0.2060 -0.1050 -0.0184
28982SOL    HW195914   2.252  10.928   3.128 -2.3825  0.0228  0.1026
28982SOL    HW295915   2.311  10.791   3.098  0.1753  1.2274 -0.6884
28983SOL     OW95916   7.358  11.220   2.556 -0.7422  0.0176 -0.1885
28983SOL    HW195917   7.328  11.150   2.615 -0.5849 -0.6796 -0.9123
28983SOL    HW295918   7.287  11.229   2.493 -0.8506  0.6648  0.0259
28984SOL     OW95919   7.401   8.403   0.738  0.1861  0.5208 -0.1235
28984SOL    HW195920   7.363   8.349   0.806  3.1010 -0.4298  0.9143
28984SOL    HW295921   7.339   8.398   0.665 -1.1643 -1.6034  1.0830
28985SOL     OW95922   0.479   5.909   7.909 -0.0548 -0.4817  0.6429
28985SOL    HW195923   0.435   5.908   7.824  2.5291 -0.1174 -0.8067
28985SOL    HW295924   0.535   5.831   7.909  0.8098  0.1012  1.4962
28986SOL     OW95925   6.776   8.949  10.492 -0.4645  0.1146  0.6961
28986SOL    HW195926   6.828   8.932  10.571  0.0203  0.3734  0.4349
28986SOL    HW295927   6.817   8.896  10.424 -0.5860  0.2658  0.5030
28987SOL     OW95928   8.185   8.304   9.939  1.2060 -0.2798 -0.2401
28987SOL    HW195929   8.232   8.237   9.890  0.3314 -0.6088 -0.6613
28987SOL    HW295930   8.161   8.262  10.021 -1.0512 -1.2102 -1.2757
28988SOL     OW95931   6.117   0.196   0.574  0.0475  0.6569  0.0655
28988SOL    HW195932   6.093   0.121   0.520 -0.2080  1.3884 -0.8603
28988SOL    HW295933   6.122   0.161   0.663  2.2101 -0.9937 -0.6031
28989SOL     OW95934   1.415  12.266   8.944 -0.5151  0.5307 -0.2558
28989SOL    HW195935   1.472  12.327   8.990 -0.5951  1.2478 -1.0768
28989SOL    HW295936   1.472  12.221   8.881 -0.5060 -0.0586  0.1688
28990SOL     OW95937  10.016  10.199   1.872 -0.0156  0.6086 -0.1835
28990SOL    HW195938  10.043  10.290   1.860  1.6451  0.3482  1.1404
28990SOL    HW295939  10.058  10.152   1.800  0.6809  0.6489  0.1819
28991SOL     OW95940   1.388   5.943  10.668  0.4323 -0.4180  0.3547
28991SOL    HW195941   1.401   5.895  10.586 -1.1070 -0.1690 -0.0628
28991SOL    HW295942   1.407   6.035  10.645  0.7545 -0.4507  0.4820
28992SOL     OW95943   7.570   2.143   1.656 -0.4028  0.3295 -0.0824
28992SOL    HW195944   7.540   2.219   1.706 -0.1999 -0.9952  2.1778
28992SOL    HW295945   7.657   2.167   1.626 -0.9037  1.5145 -0.6641
28993SOL     OW95946   9.333  12.494  11.275 -0.0395  0.0980  0.2228
28993SOL    HW195947   9.345  12.401  11.297  0.5362  0.2604  0.6004
28993SOL    HW295948   9.421  12.530  11.273 -0.3007  0.7929  0.7430
28994SOL     OW95949   8.137   5.470   9.737 -0.1672  0.0846 -0.4427
28994SOL    HW195950   8.228   5.473   9.707  0.0416 -1.4058 -0.0333
28994SOL    HW295951   8.085   5.468   9.657  0.1309  1.1647 -0.6796
28995SOL     OW95952   3.326   3.647   3.208  0.3114  0.1137  0.1576
28995SOL    HW195953   3.298   3.556   3.216 -0.0950  0.1578 -0.6476
28995SOL    HW295954   3.422   3.642   3.203  0.2389 -0.3826 -1.0946
28996SOL     OW95955  11.301   4.404  12.048 -0.0135 -0.9704 -0.3321
28996SOL    HW195956  11.229   4.344  12.064  1.6262 -3.0772 -0.3840
28996SOL    HW295957  11.329   4.433  12.135 -0.7188 -0.3672 -0.2995
28997SOL     OW95958   5.925   7.959   3.295  0.2075 -0.3567 -0.2545
28997SOL    HW195959   5.856   7.893   3.284 -0.8213  0.5529  0.5147
28997SOL    HW295960   5.962   7.941   3.381 -1.0141  0.8584  0.5763
28998SOL     OW95961  11.317   1.421   0.837  0.2027 -0.3374  0.2705
28998SOL    HW195962  11.363   1.342   0.811  0.2595 -0.6584  1.3058
28998SOL    HW295963  11.352   1.490   0.780  2.0940 -0.5334  1.1188
28999SOL     OW95964  10.363   5.471  11.282  0.1398  0.2829  0.4977
28999SOL    HW195965  10.437   5.520  11.317 -0.9176  1.6168  0.9503
28999SOL    HW295966  10.344   5.405  11.348 -1.0473  1.9879  1.9596
29000SOL     OW95967   4.575   2.746   5.545 -0.4952 -0.1850  0.1953
29000SOL    HW195968   4.576   2.706   5.457 -3.0666  0.9480 -0.4431
29000SOL    HW295969   4.488   2.724   5.579 -0.4702  1.5249  1.4226
29001SOL     OW95970   7.269   9.009   5.771  0.4101 -0.3452 -0.4308
29001SOL    HW195971   7.296   9.100   5.759 -2.0074  0.3940 -0.7350
29001SOL    HW295972   7.256   8.976   5.682 -1.2738 -0.1243 -0.2942
29002SOL     OW95973   9.222   6.546   5.619 -0.2218  0.5577 -0.0244
29002SOL    HW195974   9.142   6.585   5.655 -0.5712 -0.8601  0.8045
29002SOL    HW295975   9.256   6.492   5.690 -0.1516 -1.2127 -1.3446
29003SOL     OW95976   2.299   3.294  11.854 -0.1659 -0.6616 -0.2140
29003SOL    HW195977   2.335   3.213  11.889 -3.2032 -1.8114  0.5830
29003SOL    HW295978   2.232   3.265  11.791 -1.9421  1.1327  0.7344
29004SOL     OW95979   0.218   2.523  10.103  0.7089 -0.3463 -0.5549
29004SOL    HW195980   0.295   2.533  10.046  1.5620 -0.6219  0.5002
29004SOL    HW295981   0.219   2.430  10.127 -0.1349 -0.4119 -0.7648
29005SOL     OW95982   4.446   5.903   3.229  0.6735  0.3815  0.2942
29005SOL    HW195983   4.392   5.956   3.171  0.4858  1.3326  1.2983
29005SOL    HW295984   4.533   5.904   3.190  0.2387 -0.2085 -0.7293
29006SOL     OW95985   0.686   2.398   2.820 -0.1725  0.0354  0.8987
29006SOL    HW195986   0.740   2.470   2.788 -1.4061 -0.0963 -1.6726
29006SOL    HW295987   0.642   2.433   2.897 -0.5507  1.9693 -0.1489
29007SOL     OW95988   6.270   6.418   8.138 -0.2597  0.1188 -0.5043
29007SOL    HW195989   6.307   6.361   8.070  0.3712  0.2876 -0.3166
29007SOL    HW295990   6.340   6.424   8.204 -1.0416 -0.4518  0.4054
29008SOL     OW95991   2.152   3.393   9.458  0.4345  0.5455 -0.3295
29008SOL    HW195992   2.095   3.335   9.408  1.7477 -1.4448  0.3355
29008SOL    HW295993   2.093   3.447   9.510 -0.8960  1.5167 -2.7530
29009SOL     OW95994   5.565  12.125   5.676 -0.1332  0.2243  0.0918
29009SOL    HW195995   5.561  12.078   5.592  2.3274  0.3031 -0.1219
29009SOL    HW295996   5.485  12.099   5.721 -0.4187 -1.6234 -1.3453
29010SOL     OW95997   1.784   5.450   5.025  0.6098  0.1671 -0.3238
29010SOL    HW195998   1.820   5.361   5.020  0.0401 -0.0351 -1.0134
29010SOL    HW295999   1.774   5.467   5.118  1.0251 -0.3669 -0.1727
29011SOL     OW96000   4.171   5.566   0.440  0.1836 -0.2833  0.0645
29011SOL    HW196001   4.212   5.653   0.439 -1.1888  0.4357  1.8330
29011SOL    HW296002   4.234   5.510   0.485 -0.1702  0.5310  1.6435
29012SOL     OW96003   2.113   2.826   7.151  0.7385 -0.9211  0.1446
29012SOL    HW196004   2.209   2.822   7.147  0.8494  0.1921  0.9831
29012SOL    HW296005   2.093   2.824   7.245 -0.1612 -2.4361 -0.0460
29013SOL     OW96006   7.143   1.587   7.586  0.1885 -0.2981  0.4731
29013SOL    HW196007   7.069   1.648   7.590  0.5580  0.3979 -1.7161
29013SOL    HW296008   7.204   1.619   7.653 -0.4824  0.5674  0.6882
29014SOL     OW96009   0.700   1.439   0.329 -0.0950  0.3726  0.1904
29014SOL    HW196010   0.707   1.362   0.272 -1.9027  0.4009 -0.1328
29014SOL    HW296011   0.699   1.403   0.417 -1.5820 -0.0674  0.0208
29015SOL     OW96012  10.313   3.716  12.365 -0.6505 -0.3829 -0.4396
29015SOL    HW196013  10.313   3.760  12.280 -0.2391 -0.3500 -0.4254
29015SOL    HW296014  10.331   3.625  12.345 -1.4215 -0.5357 -0.4621
29016SOL     OW96015   2.544   5.794   2.189 -0.0145 -0.4339  0.0875
29016SOL    HW196016   2.616   5.753   2.140 -0.8225 -0.1803 -1.3765
29016SOL    HW296017   2.511   5.861   2.129 -0.1726  0.8455  1.5394
29017SOL     OW96018   2.110   6.860   0.435 -0.3927  0.8531 -0.5859
29017SOL    HW196019   2.204   6.845   0.437  0.0617  3.2414 -0.5618
29017SOL    HW296020   2.074   6.794   0.493  1.2238 -0.2893 -0.8099
29018SOL     OW96021   0.101   0.339   2.376 -0.5523 -0.2316  0.5608
29018SOL    HW196022   0.042   0.349   2.300 -0.4272 -0.0308  0.4908
29018SOL    HW296023   0.189   0.335   2.338 -0.4006  0.9349  0.7695
29019SOL     OW96024   6.415   9.814   9.116  0.5937  0.3548 -0.6226
29019SOL    HW196025   6.348   9.882   9.112 -0.0557 -0.1761  0.5823
29019SOL    HW296026   6.486   9.853   9.168  0.5203  0.3579 -0.5238
29020SOL     OW96027   0.065   9.556   8.794 -0.4873  0.0917  0.1881
29020SOL    HW196028   0.008   9.597   8.859  2.0976  1.3455  1.8549
29020SOL    HW296029   0.057   9.612   8.716 -0.5669  1.0152  0.8364
29021SOL     OW96030   2.449  12.502   6.037 -0.4661 -0.4509 -0.1330
29021SOL    HW196031   2.527  12.519   6.090 -0.6745  1.7214 -0.4411
29021SOL    HW296032   2.377  12.501   6.099 -0.7002  2.0147 -0.2956
29022SOL     OW96033   6.027   2.254   6.901 -0.1587  0.5084  0.0034
29022SOL    HW196034   6.029   2.331   6.957 -1.2413  1.1050 -0.7479
29022SOL    HW296035   6.010   2.181   6.960 -0.1174  0.9709  0.5925
29023SOL     OW96036  11.204   8.146  11.034 -0.4447  0.1689  0.8390
29023SOL    HW196037  11.229   8.234  11.064 -0.1103  0.4672 -0.2459
29023SOL    HW296038  11.285   8.110  10.997 -0.8828 -0.0723  0.0943
29024SOL     OW96039   2.142   2.612  10.536 -0.0072  0.4112  0.2088
29024SOL    HW196040   2.076   2.544  10.522  1.3756 -0.8571 -0.4091
29024SOL    HW296041   2.152   2.653  10.450  0.9723 -0.3485 -0.0647
29025SOL     OW96042   1.370   7.077   2.569 -0.2393  0.5398  0.2419
29025SOL    HW196043   1.329   7.148   2.518  0.4124  1.5160  1.0418
29025SOL    HW296044   1.458   7.069   2.533 -0.4706 -0.2100 -0.1692
29026SOL     OW96045   5.736   6.322   1.843 -0.2205 -0.2288  0.2637
29026SOL    HW196046   5.821   6.293   1.812 -0.6336  0.1245 -1.2671
29026SOL    HW296047   5.690   6.241   1.865  0.8210 -0.3826  2.0732
29027SOL     OW96048  11.022   5.226   6.111  0.0307  0.2480  0.2358
29027SOL    HW196049  11.070   5.157   6.156  1.6212  1.6951  0.8872
29027SOL    HW296050  10.998   5.287   6.181 -0.8526  0.6290 -0.3929
29028SOL     OW96051   4.382   3.041   0.807  0.2858 -0.4673 -0.1500
29028SOL    HW196052   4.326   3.005   0.876  1.4879 -0.4960  0.8297
29028SOL    HW296053   4.334   3.119   0.777 -0.1288 -0.2946  0.9047
29029SOL     OW96054   9.355   2.722   0.691 -0.1899 -0.6451 -0.3589
29029SOL    HW196055   9.408   2.713   0.612 -0.4781 -0.1694 -0.6113
29029SOL    HW296056   9.295   2.647   0.688 -0.3197 -0.5265 -0.6829
29030SOL     OW96057   7.943   5.589   3.596 -0.4444  0.1822  0.5062
29030SOL    HW196058   8.012   5.544   3.547 -1.2686 -1.5948  0.8696
29030SOL    HW296059   7.887   5.627   3.528 -0.5080 -0.5877  0.1060
29031SOL     OW96060  10.158   2.108   6.518 -0.0374 -0.1143  0.5902
29031SOL    HW196061  10.083   2.113   6.459 -0.2940 -0.5352  0.8713
29031SOL    HW296062  10.120   2.088   6.604  0.3562  0.1658  0.8353
29032SOL     OW96063   3.392   3.518  10.231  0.0479 -0.1371 -0.4083
29032SOL    HW196064   3.446   3.440  10.222 -2.0071 -1.6361 -0.3427
29032SOL    HW296065   3.403   3.565  10.149  1.9247 -0.0369 -0.1460
29033SOL     OW96066   3.584   4.902   4.081  0.5633 -0.5726  0.1803
29033SOL    HW196067   3.677   4.896   4.099  0.4011 -0.6062  1.0716
29033SOL    HW296068   3.542   4.878   4.164 -0.2366 -0.7630 -0.2673
29034SOL     OW96069   1.845  10.915   1.595  0.4575 -0.0808 -0.1191
29034SOL    HW196070   1.908  10.930   1.524 -0.4567 -0.2712 -1.0051
29034SOL    HW296071   1.893  10.935   1.675  1.1992  1.2001 -0.8496
29035SOL     OW96072  10.444   5.255   5.395 -0.4968 -0.3416 -0.2177
29035SOL    HW196073  10.414   5.238   5.306 -2.7991  1.7322  0.0629
29035SOL    HW296074  10.395   5.194   5.449 -1.1915  0.2606 -0.1488
29036SOL     OW96075  12.055   5.631  10.663  0.9122  0.3349 -0.0316
29036SOL    HW196076  12.035   5.580  10.584 -0.4798 -1.7620  1.5665
29036SOL    HW296077  11.980   5.689  10.674  1.4029  1.0909 -0.5536
29037SOL     OW96078   1.412   9.318   8.743  0.5775  0.2443 -0.2081
29037SOL    HW196079   1.390   9.405   8.776 -0.4680  0.5748 -1.6521
29037SOL    HW296080   1.354   9.259   8.791 -0.0431  0.5733 -0.5341
29038SOL     OW96081   7.896   9.502  11.899  0.2769  0.3187 -0.3271
29038SOL    HW196082   7.895   9.596  11.917  0.0126  0.2667 -0.0610
29038SOL    HW296083   7.808   9.472  11.923  0.6294 -0.1528  0.4301
29039SOL     OW96084  10.331   9.310   5.969  0.6573 -0.5882 -0.7552
29039SOL    HW196085  10.269   9.321   5.897  0.9042  0.8888 -0.7680
29039SOL    HW296086  10.282   9.260   6.034 -0.0857 -0.6314 -1.3310
29040SOL     OW96087   8.610  11.669   1.712 -0.5801 -0.4879  0.1071
29040SOL    HW196088   8.588  11.743   1.769 -1.7805 -0.8632  0.1595
29040SOL    HW296089   8.540  11.606   1.727  1.3938 -2.4783  1.4718
29041SOL     OW96090   1.268   2.784  12.383 -0.3360  0.4657 -0.1192
29041SOL    HW196091   1.273   2.871  12.343  1.2147  1.3129  1.7446
29041SOL    HW296092   1.180   2.780  12.420 -0.2840  1.4167  0.1346
29042SOL     OW96093   4.031  12.097   9.474 -0.1643  0.5886  0.2832
29042SOL    HW196094   4.052  12.014   9.431  1.5662  1.6339 -0.9878
29042SOL    HW296095   3.940  12.086   9.503 -0.1805 -1.5099 -0.3910
29043SOL     OW96096  11.038   5.768  11.796  0.4691  0.0624 -0.1872
29043SOL    HW196097  11.079   5.826  11.732 -0.3395  2.2113  1.1436
29043SOL    HW296098  11.059   5.680  11.766  0.2605  0.9808 -3.2910
29044SOL     OW96099   3.436   6.984   7.958 -0.1561 -0.0076 -0.0129
29044SOL    HW196100   3.521   6.941   7.943  1.1203  2.3919 -0.1787
29044SOL    HW296101   3.382   6.956   7.884  1.2749  0.1891 -1.1900
29045SOL     OW96102   1.671   7.166  11.367 -0.3519 -0.1490 -0.0741
29045SOL    HW196103   1.593   7.124  11.404 -0.5770  0.0607 -0.3074
29045SOL    HW296104   1.682   7.245  11.420 -0.4824 -0.0171 -0.2436
29046SOL     OW96105   6.676  11.560   9.632  0.2742 -0.3169  0.0743
29046SOL    HW196106   6.724  11.512   9.699 -1.2202 -1.7946  0.1612
29046SOL    HW296107   6.734  11.560   9.556  0.7270 -1.3887  0.4043
29047SOL     OW96108   1.914  10.500   4.607 -0.5064  0.2375  0.1746
29047SOL    HW196109   1.889  10.534   4.521 -0.4924  0.5653  0.2975
29047SOL    HW296110   1.914  10.405   4.596 -0.0999  0.2891 -0.3016
29048SOL     OW96111   6.551   9.897  12.119  0.6721  0.2382 -0.9595
29048SOL    HW196112   6.498   9.924  12.043  0.4296  0.7831 -0.5999
29048SOL    HW296113   6.497   9.918  12.195  1.4845  0.9797 -0.5776
29049SOL     OW96114   9.753   5.203   7.358  0.0734 -0.2004  0.2130
29049SOL    HW196115   9.831   5.242   7.396 -0.2091  1.2874 -0.6292
29049SOL    HW296116   9.747   5.243   7.271 -2.1955  0.5979  0.6614
29050SOL     OW96117   0.441   7.608   3.377  0.5185  0.0090 -0.0808
29050SOL    HW196118   0.449   7.590   3.470 -1.7979 -3.4954 -0.3611
29050SOL    HW296119   0.378   7.680   3.372  0.3686 -0.0187  1.0881
29051SOL     OW96120  10.012   5.846  10.309  0.2655 -0.3346 -0.5483
29051SOL    HW196121  10.051   5.933  10.298 -2.4679  0.6955 -3.6401
29051SOL    HW296122  10.087   5.787  10.320  2.3336  2.1032 -0.7440
29052SOL     OW96123   8.120  10.365   9.439  0.0128 -0.3489  0.0677
29052SOL    HW196124   8.105  10.363   9.534 -0.4271  0.1169  0.0076
29052SOL    HW296125   8.156  10.452   9.422 -0.7472 -0.1028 -0.3182
29053SOL     OW96126   5.439   2.656   6.358 -0.4272  0.2407  0.1873
29053SOL    HW196127   5.505   2.720   6.386 -0.2149  0.5138 -0.8889
29053SOL    HW296128   5.457   2.643   6.265 -0.9389 -0.8400  0.2284
29054SOL     OW96129   7.448   4.168   3.152  0.1550 -0.1748 -1.0144
29054SOL    HW196130   7.454   4.075   3.133  1.6179 -0.1449 -0.8197
29054SOL    HW296131   7.524   4.207   3.108  0.9007  0.5722  0.8111
29055SOL     OW96132  11.712   2.808   4.647  0.5052  0.2404 -0.4196
29055SOL    HW196133  11.653   2.809   4.571  1.9864  0.3182 -1.6156
29055SOL    HW296134  11.654   2.808   4.723 -1.0265 -0.0778 -1.5554
29056SOL     OW96135   0.999   5.742   8.483 -0.7573 -0.1471 -0.1989
29056SOL    HW196136   1.078   5.735   8.536 -0.7609 -1.1202 -0.2955
29056SOL    HW296137   0.928   5.753   8.546 -0.7531 -1.2212  0.0034
29057SOL     OW96138   7.760   9.704  12.246 -0.2476 -0.3608  0.0651
29057SOL    HW196139   7.846   9.746  12.242  0.5748 -1.9272  0.5516
29057SOL    HW296140   7.753   9.658  12.162 -1.2972  0.9688 -0.6159
29058SOL     OW96141  12.071   8.083   3.163 -0.1304  0.6928  0.2172
29058SOL    HW196142  12.127   8.123   3.230  0.2867  1.6482 -0.6671
29058SOL    HW296143  12.069   8.148   3.092 -0.0242 -0.5541 -0.9712
29059SOL     OW96144   7.341   1.498   3.726 -0.3678  0.2870 -0.3395
29059SOL    HW196145   7.305   1.417   3.690  1.5326 -0.3870 -0.8792
29059SOL    HW296146   7.344   1.484   3.820 -0.9120  0.1089 -0.3467
29060SOL     OW96147  10.780  12.405   0.393  0.1287 -0.0273 -0.1121
29060SOL    HW196148  10.779  12.376   0.302 -0.0862  0.3127 -0.2204
29060SOL    HW296149  10.873  12.412   0.415  0.2052 -1.5089  0.1558
29061SOL     OW96150   0.490   0.702   2.583 -0.3971  0.2234 -0.6013
29061SOL    HW196151   0.551   0.759   2.536  0.4940  0.7409  1.1108
29061SOL    HW296152   0.451   0.647   2.514  0.9635  0.8217 -1.9098
29062SOL     OW96153   8.889   3.511  10.415 -0.0903  0.0662  0.1800
29062SOL    HW196154   8.820   3.572  10.389  0.7173  0.1462 -2.0125
29062SOL    HW296155   8.927   3.482  10.332  1.8851 -0.7082  1.2921
29063SOL     OW96156   9.634  10.137  10.683  0.0869  0.2744 -0.4750
29063SOL    HW196157   9.707  10.129  10.622  0.1422 -0.7893 -0.2778
29063SOL    HW296158   9.565  10.083  10.645  0.0599 -0.2542  0.3104
29064SOL     OW96159   0.045   3.696   3.204  0.0560  0.6010  0.5201
29064SOL    HW196160  -0.016   3.727   3.137  0.4662  1.4620  0.5323
29064SOL    HW296161   0.102   3.771   3.221  0.8613 -0.0671  0.8041
29065SOL     OW96162   8.330   7.946   1.156 -0.2979  0.3862  0.5336
29065SOL    HW196163   8.303   7.880   1.220 -0.3283 -0.1982 -0.0682
29065SOL    HW296164   8.400   7.995   1.200  0.4932 -0.7647  0.5871
29066SOL     OW96165  11.268  10.843  12.418  0.1783 -0.2279  0.3803
29066SOL    HW196166  11.235  10.882  12.499 -1.0776  1.4611 -0.8908
29066SOL    HW296167  11.349  10.800  12.444 -0.4190 -0.1412  2.6200
29067SOL     OW96168   8.550  12.516   4.432  0.4436  0.4361  0.5267
29067SOL    HW196169   8.463  12.491   4.462  0.4534  0.9284  0.9791
29067SOL    HW296170   8.610  12.471   4.492  0.6305 -2.2490 -1.4878
29068SOL     OW96171   6.611   3.630   4.210  0.0512 -0.2463  0.5052
29068SOL    HW196172   6.697   3.597   4.234  0.0007  0.2325  1.3916
29068SOL    HW296173   6.555   3.552   4.206  0.0189 -0.3383  2.1907
29069SOL     OW96174   5.401  12.538   3.644  0.1417 -0.2520  0.1625
29069SOL    HW196175   5.489  12.503   3.630  0.7499  1.4488 -0.5657
29069SOL    HW296176   5.414  12.608   3.707 -0.7824 -0.2899  0.4006
29070SOL     OW96177   9.192   4.316  10.433  0.2594 -0.0803 -0.2262
29070SOL    HW196178   9.204   4.402  10.473  1.0946  0.1705 -0.9860
29070SOL    HW296179   9.278   4.294  10.397  0.5140 -1.9980  1.4141
29071SOL     OW96180   9.175  12.569   6.895  0.5370 -1.0101 -0.0853
29071SOL    HW196181   9.130  12.567   6.810  1.6538  0.5088 -0.7512
29071SOL    HW296182   9.106  12.550   6.959 -0.2916 -2.4030 -1.3116
29072SOL     OW96183   1.969   7.772   0.034 -0.1189 -0.5471  0.0194
29072SOL    HW196184   1.901   7.813  -0.019  0.3783  1.1397  0.6364
29072SOL    HW296185   1.941   7.785   0.124 -0.0704 -1.8264  0.2414
29073SOL     OW96186   6.033   2.528   5.795 -0.2468  0.2069 -0.0927
29073SOL    HW196187   5.941   2.506   5.783 -0.0805 -1.0602  0.7579
29073SOL    HW296188   6.038   2.622   5.777 -1.8989  0.5293  0.9130
29074SOL     OW96189  12.433  11.303   9.511  0.3212  0.1123  0.0794
29074SOL    HW196190  12.491  11.277   9.582  0.1444 -0.3593  0.0521
29074SOL    HW296191  12.419  11.397   9.525 -2.4903 -0.5407  2.7507
29075SOL     OW96192   2.133   4.031   9.787 -0.6582  0.5717  0.1628
29075SOL    HW196193   2.098   4.068   9.868  0.8602 -1.0047  1.6311
29075SOL    HW296194   2.104   3.939   9.788  0.7863  0.0847 -0.1704
29076SOL     OW96195   3.498   4.897   1.364  0.1661 -0.0510  0.0129
29076SOL    HW196196   3.465   4.982   1.335  0.7723 -0.0010 -0.5664
29076SOL    HW296197   3.466   4.887   1.453 -0.5115  0.4633 -0.1628
29077SOL     OW96198  10.951   6.399   8.926  0.3462  0.4647 -0.3047
29077SOL    HW196199  10.975   6.313   8.893  1.7922 -0.3593  2.5220
29077SOL    HW296200  11.026   6.455   8.904  0.6550  0.2816  0.2633
29078SOL     OW96201  10.837   6.845   8.606  0.0462  0.3992 -0.7423
29078SOL    HW196202  10.804   6.785   8.673 -2.8457  1.9823 -0.5812
29078SOL    HW296203  10.792   6.817   8.526 -0.2080  1.4010 -0.9622
29079SOL     OW96204   7.252   2.041   8.397 -0.0320  0.6223  0.0100
29079SOL    HW196205   7.320   2.108   8.407  0.2286  0.2848  0.6119
29079SOL    HW296206   7.198   2.071   8.324  0.8098  0.8606 -0.5262
29080SOL     OW96207  11.149   4.455   0.168 -0.5751 -0.4242  0.3396
29080SOL    HW196208  11.104   4.392   0.112 -2.2541  1.8823 -1.0817
29080SOL    HW296209  11.185   4.520   0.108  0.8049  0.1907  1.7542
29081SOL     OW96210   6.822   5.483  10.162  0.1914 -0.7793 -0.0563
29081SOL    HW196211   6.819   5.457  10.070 -0.3288 -1.4733  0.1547
29081SOL    HW296212   6.859   5.572  10.160 -2.1312  0.2294 -1.1419
29082SOL     OW96213  11.724   3.186   6.515 -0.1076 -0.2754  0.2724
29082SOL    HW196214  11.806   3.169   6.469  0.4323  0.8601  0.7850
29082SOL    HW296215  11.700   3.101   6.552  0.5989 -0.7170 -0.2557
29083SOL     OW96216   2.514   7.503   1.154  0.0227 -0.0252 -0.0296
29083SOL    HW196217   2.444   7.528   1.213 -0.6194 -0.4095 -0.6202
29083SOL    HW296218   2.471   7.457   1.082  0.7903  0.3628 -0.7652
29084SOL     OW96219   0.867   4.299   7.318  0.0976  1.0014  0.0936
29084SOL    HW196220   0.780   4.335   7.301 -1.5233 -1.5426  2.0778
29084SOL    HW296221   0.857   4.205   7.303  2.6112  0.6622  0.0955
29085SOL     OW96222   0.140   3.368   8.188 -0.1362 -0.2135  0.0700
29085SOL    HW196223   0.150   3.459   8.158 -0.7443  0.3288  1.4448
29085SOL    HW296224   0.049   3.363   8.218  0.4632 -0.6563  1.9439
29086SOL     OW96225   8.209   9.883   0.876  0.1033  0.2996  0.5752
29086SOL    HW196226   8.152   9.893   0.799 -0.3275 -0.2826  0.8143
29086SOL    HW296227   8.152   9.846   0.943  1.0770 -1.5407  0.4346
29087SOL     OW96228   4.183   6.716  11.198 -0.2807 -0.0307 -0.0986
29087SOL    HW196229   4.235   6.762  11.265 -0.0642 -2.4894  1.5501
29087SOL    HW296230   4.231   6.731  11.117  0.9873  0.8142  0.7639
29088SOL     OW96231  10.576   7.381   9.176 -0.2938 -0.0686  0.0454
29088SOL    HW196232  10.565   7.334   9.258 -2.1346 -0.6209 -0.4676
29088SOL    HW296233  10.628   7.322   9.121 -0.7215 -0.5455  0.1500
29089SOL     OW96234   0.890   0.018   8.094  0.0416  0.0734  0.0246
29089SOL    HW196235   0.819  -0.033   8.133  1.0693 -1.6315 -0.2108
29089SOL    HW296236   0.916  -0.034   8.018  1.0349  1.0622 -0.3215
29090SOL     OW96237   5.763  10.261   1.779  0.2026 -1.0914  0.0582
29090SOL    HW196238   5.830  10.261   1.711  1.3013 -0.8882  1.1142
29090SOL    HW296239   5.806  10.298   1.856 -1.1462 -0.8849  0.7478
29091SOL     OW96240   9.292   2.581   9.744 -0.1226 -0.1268  0.3550
29091SOL    HW196241   9.255   2.558   9.829  0.4194 -1.6561  0.2053
29091SOL    HW296242   9.337   2.664   9.758  0.0267 -0.4069  1.5878
29092SOL     OW96243   0.571  10.552  11.997 -0.1413  0.2747 -0.1656
29092SOL    HW196244   0.657  10.547  12.038  1.0102 -0.7695 -2.5700
29092SOL    HW296245   0.565  10.474  11.942 -2.5390  0.4412 -0.2497
29093SOL     OW96246   3.501   5.909   3.957 -0.6440 -0.1134  0.0592
29093SOL    HW196247   3.525   5.966   3.885 -0.0178 -0.4949 -0.0361
29093SOL    HW296248   3.427   5.858   3.923  0.2838 -1.0001 -0.6741
29094SOL     OW96249  10.499  10.621   6.767  0.0513 -0.3902 -0.0002
29094SOL    HW196250  10.523  10.622   6.674 -1.2874 -0.7531 -0.3756
29094SOL    HW296251  10.426  10.559   6.772 -0.0891 -0.1447  1.2450
29095SOL     OW96252   5.580   3.662   1.848 -0.2291  0.3905  0.3707
29095SOL    HW196253   5.531   3.742   1.829  0.2881  0.8530  0.9077
29095SOL    HW296254   5.525   3.591   1.815  0.3835  1.0793 -2.4070
29096SOL     OW96255   6.207   6.011   4.999 -0.0559 -0.9403 -0.7213
29096SOL    HW196256   6.277   5.952   5.025 -1.2806 -1.3689  1.8707
29096SOL    HW296257   6.201   6.075   5.070 -2.5663 -1.1871 -0.6270
29097SOL     OW96258   3.629  12.056   2.640 -0.3507 -0.5045  0.1459
29097SOL    HW196259   3.546  12.105   2.639 -1.2013 -1.8764  0.6179
29097SOL    HW296260   3.655  12.056   2.732 -0.3210 -0.8886  0.1374
29098SOL     OW96261  10.450   5.739   4.943  0.4034  0.0955  0.1286
29098SOL    HW196262  10.445   5.671   5.010  0.4081 -0.2146 -0.1813
29098SOL    HW296263  10.461   5.691   4.861  1.4527  0.5119  0.0185
29099SOL     OW96264   9.695  12.452   6.520  0.7978 -0.0991 -0.4868
29099SOL    HW196265   9.633  12.457   6.592 -0.2643 -0.3579 -1.3459
29099SOL    HW296266   9.778  12.481   6.557 -0.0447  1.2135  0.4623
29100SOL     OW96267   4.110  11.968   1.699  0.0328  0.5537  0.2563
29100SOL    HW196268   4.147  12.054   1.717  0.9155  0.2710 -0.1680
29100SOL    HW296269   4.085  11.971   1.607 -3.1449  1.5060  1.0240
29101SOL     OW96270   9.019   7.201   6.283  0.2243 -0.1477 -0.2479
29101SOL    HW196271   8.931   7.222   6.252  0.1360 -0.3733 -0.1558
29101SOL    HW296272   9.046   7.126   6.231  0.2468 -0.2600 -0.0778
29102SOL     OW96273   2.487  10.588   9.704 -0.1461  0.2095 -1.1054
29102SOL    HW196274   2.484  10.507   9.652 -2.0934  0.9632 -2.2911
29102SOL    HW296275   2.577  10.592   9.737  0.3125 -1.8583 -1.9287
29103SOL     OW96276   5.792   6.895   9.985 -0.1321  0.0874 -0.2780
29103SOL    HW196277   5.725   6.866  10.048 -0.1795  0.0504 -0.3452
29103SOL    HW296278   5.873   6.897  10.035 -0.2536  0.5061 -0.1021
29104SOL     OW96279   1.589  10.324   0.919 -0.1833  0.0160  0.2741
29104SOL    HW196280   1.498  10.303   0.900 -0.4403  0.5297  0.9229
29104SOL    HW296281   1.591  10.419   0.931  0.6350  0.1603 -0.7811
29105SOL     OW96282   3.370   4.674   9.898  0.4832 -0.2509 -0.2421
29105SOL    HW196283   3.291   4.702   9.851  0.3544 -0.3020 -0.0595
29105SOL    HW296284   3.345   4.592   9.940  0.4864 -0.0320  0.1954
29106SOL     OW96285   4.182   9.096  10.425 -0.2467 -0.3542 -0.1372
29106SOL    HW196286   4.110   9.051  10.468  0.1934  0.2685  1.2974
29106SOL    HW296287   4.141   9.169  10.378 -0.7240 -1.0151 -0.7703
29107SOL     OW96288   1.268   7.142   7.432 -0.3819  0.4853 -0.5283
29107SOL    HW196289   1.224   7.224   7.457  0.8715  1.3096 -0.9208
29107SOL    HW296290   1.302   7.159   7.344  2.4842  0.6776  0.5100
29108SOL     OW96291   3.438  11.885   1.452 -1.0876  0.1331  0.0143
29108SOL    HW196292   3.454  11.976   1.430  0.9113 -0.1896 -0.0805
29108SOL    HW296293   3.476  11.835   1.380 -0.3962 -0.7980  0.9826
29109SOL     OW96294   5.765   6.178   3.186  0.1097 -0.2783 -0.4242
29109SOL    HW196295   5.779   6.258   3.135  2.7159 -0.6336 -0.4105
29109SOL    HW296296   5.733   6.115   3.121 -0.1786  0.2682 -0.8264
29110SOL     OW96297   2.418   2.964   0.530 -0.0022 -0.0152  0.0086
29110SOL    HW196298   2.348   2.958   0.465  0.3899  0.8388 -0.5087
29110SOL    HW296299   2.491   2.917   0.490  0.0348 -0.0547  0.1229
29111SOL     OW96300   5.541   3.572   2.839 -0.2162 -0.5677 -0.2703
29111SOL    HW196301   5.607   3.511   2.808 -0.0120  0.2471 -1.5284
29111SOL    HW296302   5.551   3.649   2.782 -1.1033  0.2443  0.6313
29112SOL     OW96303   2.635   7.707  12.206 -0.2175  0.4890  0.3640
29112SOL    HW196304   2.727   7.707  12.181  0.1751  0.9217  1.7375
29112SOL    HW296305   2.622   7.790  12.250 -0.9556 -0.0933  1.2794
29113SOL     OW96306   2.223   4.023   7.285  0.0250  1.0991 -0.7104
29113SOL    HW196307   2.188   4.109   7.263  0.4771  1.2347 -0.9179
29113SOL    HW296308   2.146   3.970   7.308 -0.5300  0.8627 -2.8998
29114SOL     OW96309   2.867   0.554  10.476 -0.2406 -0.0990 -0.1530
29114SOL    HW196310   2.895   0.560  10.385 -0.8309 -1.3231 -0.4306
29114SOL    HW296311   2.929   0.609  10.524  0.8337 -0.4401 -1.1239
29115SOL     OW96312   1.784   1.951  11.922 -0.7149  0.0616 -0.2888
29115SOL    HW196313   1.866   1.907  11.900  0.2294  0.5512  1.9649
29115SOL    HW296314   1.766   1.925  12.012 -2.8375  0.3136 -0.6003
29116SOL     OW96315   7.028   4.361   8.923 -0.3451 -0.1813 -0.0246
29116SOL    HW196316   7.027   4.379   8.829 -0.8261  0.1060  0.0314
29116SOL    HW296317   7.090   4.425   8.959 -0.4143 -0.0680 -0.1054
29117SOL     OW96318   1.941   7.238   2.495 -0.5915  0.2097 -0.0842
29117SOL    HW196319   1.914   7.198   2.412  0.3936 -0.1149 -0.2619
29117SOL    HW296320   1.943   7.165   2.557  0.3070  0.1213 -0.1911
29118SOL     OW96321   7.452   7.675  10.277  0.5176  0.1238  0.0114
29118SOL    HW196322   7.507   7.705  10.349 -0.2873  0.7242  0.3916
29118SOL    HW296323   7.425   7.755  10.232 -0.5419 -0.0973  0.2152
29119SOL     OW96324   3.403   6.104   1.884  0.5375 -0.6573 -0.8714
29119SOL    HW196325   3.309   6.097   1.901  0.4624  0.7737 -0.5095
29119SOL    HW296326   3.442   6.112   1.971  0.6585  1.7508 -1.0761
29120SOL     OW96327   9.835   9.776   2.138 -0.0818 -0.0845 -0.2585
29120SOL    HW196328   9.862   9.861   2.103  0.3836  0.2827  0.9174
29120SOL    HW296329   9.913   9.721   2.129 -0.4635 -0.4811 -1.2582
29121SOL     OW96330   5.285   8.219   8.516 -0.4682  0.0501  0.2265
29121SOL    HW196331   5.215   8.212   8.580 -0.2770  0.6145  0.5095
29121SOL    HW296332   5.353   8.159   8.547  0.1913  1.3013  1.3246
29122SOL     OW96333   8.722   7.864   3.177 -0.2315 -0.9836  0.0403
29122SOL    HW196334   8.735   7.946   3.130 -0.3465 -0.3028  1.1451
29122SOL    HW296335   8.638   7.831   3.145 -0.0198 -0.8570 -0.6640
29123SOL     OW96336   5.958  10.906  10.420  0.2589 -0.4852  0.0094
29123SOL    HW196337   5.988  10.883  10.508  1.6311 -1.6064 -0.7200
29123SOL    HW296338   5.883  10.964  10.435  1.1146  0.2228  1.9106
29124SOL     OW96339  11.459   6.801   3.677  0.1576  0.5980 -0.7334
29124SOL    HW196340  11.365   6.814   3.667 -0.2159 -1.1917  0.0717
29124SOL    HW296341  11.490   6.883   3.716 -1.0752  1.1444 -0.8380
29125SOL     OW96342   5.398   2.944   7.318 -0.6987  0.5143  0.2489
29125SOL    HW196343   5.339   2.986   7.256 -0.6013  0.5873  0.2056
29125SOL    HW296344   5.370   2.852   7.319 -0.6429  0.4929  0.0288
29126SOL     OW96345   6.335   1.239   7.638 -0.3804  0.2475  0.0157
29126SOL    HW196346   6.413   1.202   7.596 -1.3640 -2.4719  0.3432
29126SOL    HW296347   6.265   1.225   7.575 -0.9075  1.1461  0.3867
29127SOL     OW96348   1.541  10.506   5.182  0.0351  0.2781 -0.1814
29127SOL    HW196349   1.626  10.484   5.220 -0.4046  0.4082  0.8897
29127SOL    HW296350   1.481  10.441   5.219 -0.2965  0.0262 -1.1331
29128SOL     OW96351   1.676   6.429   8.582 -0.7019 -0.6188 -0.0486
29128SOL    HW196352   1.717   6.445   8.667  1.6845  1.1310 -1.3928
29128SOL    HW296353   1.670   6.515   8.541  1.3213 -1.6436 -2.8919
29129SOL     OW96354   0.309   5.093  11.276  0.2418  0.4842  0.3146
29129SOL    HW196355   0.314   5.174  11.224 -1.7743  0.1033 -0.5700
29129SOL    HW296356   0.238   5.109  11.338 -0.5997 -0.8058 -0.2846
29130SOL     OW96357   8.178   4.707   0.188 -0.0477  0.3612  0.4566
29130SOL    HW196358   8.197   4.645   0.118 -1.8903 -0.8281  0.9390
29130SOL    HW296359   8.251   4.699   0.249  0.8993  0.4178 -0.6404
29131SOL     OW96360   3.701   3.220   1.905  0.3753 -0.2321  0.3930
29131SOL    HW196361   3.737   3.273   1.976  0.4518 -1.7605  1.5630
29131SOL    HW296362   3.761   3.233   1.832 -0.6935  2.8162 -0.0935
29132SOL     OW96363   5.690   1.221   5.857 -0.1681 -0.2672  0.4938
29132SOL    HW196364   5.693   1.157   5.786  0.6884  2.2990 -1.9565
29132SOL    HW296365   5.705   1.169   5.936  5.4874 -2.6451 -1.6131
29133SOL     OW96366   6.975   1.524   1.951  0.5027  0.1738  0.1782
29133SOL    HW196367   6.909   1.499   2.015  0.4558  1.1771  0.5411
29133SOL    HW296368   6.990   1.445   1.899 -1.7936  0.1871 -0.6367
29134SOL     OW96369  11.041   0.629   3.371 -0.6354 -0.1926  0.3069
29134SOL    HW196370  10.987   0.697   3.332  1.2867  1.8528  1.0336
29134SOL    HW296371  11.119   0.626   3.316  0.8862  0.7829  2.2898
29135SOL     OW96372   2.803   1.815   3.397 -0.2939  0.0008 -0.0076
29135SOL    HW196373   2.722   1.856   3.427 -1.6370 -2.1398 -0.4679
29135SOL    HW296374   2.774   1.735   3.353  2.0755 -0.7206 -0.3796
29136SOL     OW96375   9.060  11.365  11.048  0.1634 -0.1329 -0.5089
29136SOL    HW196376   9.004  11.435  11.015  1.3246  1.0881 -0.0067
29136SOL    HW296377   9.057  11.374  11.143 -0.2846 -1.2733 -0.4075
29137SOL     OW96378  11.093   8.021   5.883  0.1522  0.0748 -0.4876
29137SOL    HW196379  11.040   8.062   5.814 -1.7515 -0.2275  0.7064
29137SOL    HW296380  11.183   8.043   5.861 -0.4383  0.5083 -2.7127
29138SOL     OW96381  11.164  11.801   8.518 -0.0070 -0.1268 -0.0513
29138SOL    HW196382  11.075  11.826   8.491 -0.4376  1.0409  2.2730
29138SOL    HW296383  11.202  11.762   8.439 -2.6827 -0.9859 -1.0440
29139SOL     OW96384   9.504   0.744   9.279 -0.0496  0.1146  0.4397
29139SOL    HW196385   9.521   0.682   9.350  1.5174 -2.0280 -1.6531
29139SOL    HW296386   9.591   0.776   9.253 -0.2444 -1.1288 -2.0908
29140SOL     OW96387  11.609   6.698   3.455 -0.4679  0.1099  0.6048
29140SOL    HW196388  11.665   6.772   3.435 -0.3547 -0.1480 -0.0462
29140SOL    HW296389  11.565   6.722   3.536 -0.3094  0.8169  0.4813
29141SOL     OW96390   0.425   4.024   1.365 -0.0785  0.1528 -0.1664
29141SOL    HW196391   0.459   4.113   1.356 -0.9637  0.4664 -0.4779
29141SOL    HW296392   0.401   3.999   1.276  0.8186 -0.6783 -0.1958
29142SOL     OW96393   9.448   3.597   2.117 -0.1334  1.1629 -0.1018
29142SOL    HW196394   9.403   3.521   2.080  1.8232 -1.1735  1.9174
29142SOL    HW296395   9.385   3.633   2.180 -0.6873  0.4661 -0.2376
29143SOL     OW96396   2.809  10.057  11.894  0.2763  0.1304  0.0130
29143SOL    HW196397   2.883  10.107  11.861  0.8853 -1.4552 -1.1754
29143SOL    HW296398   2.809  10.073  11.988  1.0062  1.5752 -0.2010
29144SOL     OW96399   1.615   1.265   4.479 -0.1954 -0.5359 -0.1828
29144SOL    HW196400   1.647   1.200   4.541  0.6927  0.2661  0.2407
29144SOL    HW296401   1.586   1.338   4.534 -2.0917 -0.9269 -0.5967
29145SOL     OW96402   9.100   8.043   2.982 -0.0793  0.0434 -0.0216
29145SOL    HW196403   9.159   7.973   3.010  1.4799  0.8191 -1.1727
29145SOL    HW296404   9.050   8.066   3.061  0.4323 -1.3371  0.7374
29146SOL     OW96405   6.084   8.735  11.490 -0.4305  0.0020  0.4573
29146SOL    HW196406   6.082   8.762  11.398  2.4634  1.6763  0.7946
29146SOL    HW296407   6.176   8.715  11.508 -1.1584 -1.8838  2.6046
29147SOL     OW96408   0.650   7.532   4.426  0.0786 -0.2499 -0.0200
29147SOL    HW196409   0.674   7.546   4.518  1.5210 -0.3880 -0.3516
29147SOL    HW296410   0.733   7.513   4.382 -0.6505 -0.6836 -1.2679
29148SOL     OW96411  10.884   3.563  11.578  0.1605 -0.2923 -0.1402
29148SOL    HW196412  10.882   3.477  11.619 -0.3828  0.1143  0.7084
29148SOL    HW296413  10.804   3.566  11.525  0.7296 -0.7175 -1.0400
29149SOL     OW96414   8.585  11.769   7.179 -0.1364  0.3387  0.0337
29149SOL    HW196415   8.492  11.746   7.172 -0.1733  0.4299  0.2109
29149SOL    HW296416   8.585  11.861   7.204  0.0012  0.3149  0.1225
29150SOL     OW96417   6.897   2.276   0.329 -0.8894  0.0788  0.1584
29150SOL    HW196418   6.906   2.370   0.341 -0.4835 -0.0350  0.8448
29150SOL    HW296419   6.934   2.259   0.243 -1.7343  0.6510 -0.3259
29151SOL     OW96420   9.268   2.949   1.571  0.1298 -0.6168  0.1875
29151SOL    HW196421   9.308   3.033   1.592  0.9424 -0.2429 -2.4176
29151SOL    HW296422   9.343   2.891   1.554 -0.3686 -0.7528 -1.7765
29152SOL     OW96423   5.348   9.075   7.121  0.1019  0.2098 -0.8307
29152SOL    HW196424   5.260   9.059   7.088  1.0538 -0.0163 -3.5366
29152SOL    HW296425   5.337   9.138   7.192 -2.1860  0.4163 -1.3069
29153SOL     OW96426   5.066   5.619  11.212 -0.2978  0.1270  0.4394
29153SOL    HW196427   5.090   5.630  11.120 -2.0208 -1.1559 -0.2142
29153SOL    HW296428   5.143   5.578  11.253 -0.4706 -1.7791 -1.0430
29154SOL     OW96429   5.368   7.136   0.076  0.3036  0.0073  0.3664
29154SOL    HW196430   5.448   7.186   0.063 -0.5868  0.9025 -2.3039
29154SOL    HW296431   5.394   7.045   0.058  1.1988 -0.0971  1.9827
29155SOL     OW96432  11.639   0.219   1.510 -0.0218 -0.1868  0.9214
29155SOL    HW196433  11.559   0.168   1.500 -0.5587  0.1878  2.8571
29155SOL    HW296434  11.709   0.154   1.508 -0.5978 -0.8748  2.0178
29156SOL     OW96435   0.134  12.367   2.736  0.0765 -0.4859 -0.4433
29156SOL    HW196436   0.113  12.275   2.721 -1.1389 -0.8026  2.6534
29156SOL    HW296437   0.053  12.414   2.716 -0.1031 -0.3933  0.4864
29157SOL     OW96438  10.466  10.056  10.538 -0.6208  0.3089  0.5268
29157SOL    HW196439  10.557  10.032  10.519 -0.7861  0.6928 -0.8677
29157SOL    HW296440  10.474  10.138  10.587 -0.1836 -0.6196  2.0846
29158SOL     OW96441  11.676   9.938   3.008 -0.3440 -0.2744 -0.5495
29158SOL    HW196442  11.615  10.008   3.031  1.0120  0.4886  0.9634
29158SOL    HW296443  11.624   9.857   3.015 -0.9465  0.2245  1.9806
29159SOL     OW96444   1.611   1.824   7.103 -0.0498  0.2242 -0.5528
29159SOL    HW196445   1.653   1.751   7.150  0.1605  0.3429 -0.5531
29159SOL    HW296446   1.575   1.879   7.172 -0.8885 -0.2840 -0.5822
29160SOL     OW96447   0.922   4.906  11.836  0.7184 -0.5493  0.2969
29160SOL    HW196448   0.928   4.993  11.876  2.4848  0.0941 -1.1756
29160SOL    HW296449   0.920   4.845  11.910  1.0217  0.6968  1.3652
29161SOL     OW96450   1.913  10.492   0.274 -0.4601 -0.2304 -0.3803
29161SOL    HW196451   1.935  10.399   0.285 -2.4977 -0.7701 -0.5643
29161SOL    HW296452   1.867  10.496   0.190 -0.6221  0.9108 -0.2523
29162SOL     OW96453   8.031   9.762  12.374  0.4475 -0.2355  0.1047
29162SOL    HW196454   8.120   9.729  12.382  1.0826  1.6678  1.3400
29162SOL    HW296455   8.041   9.854  12.350 -1.1685  0.1219  0.6617
29163SOL     OW96456   0.407   5.720   4.772  0.3788 -0.1338 -0.5779
29163SOL    HW196457   0.399   5.625   4.771  0.2426 -0.1196 -1.1261
29163SOL    HW296458   0.385   5.746   4.862 -0.8897 -0.5046 -0.7619
29164SOL     OW96459   0.923   3.650  10.955  0.2497  0.3954  0.5584
29164SOL    HW196460   1.005   3.698  10.943 -0.2409  1.3939  1.0471
29164SOL    HW296461   0.938   3.594  11.030  1.2991 -1.3120 -0.8626
29165SOL     OW96462   8.882   7.561   5.891  0.0546  0.0470 -0.1798
29165SOL    HW196463   8.950   7.621   5.920 -0.9829  0.9288  0.5215
29165SOL    HW296464   8.903   7.544   5.799  2.2688 -1.2099  0.4900
29166SOL     OW96465   5.369   8.302   2.238  0.0016  0.7034  0.9237
29166SOL    HW196466   5.305   8.364   2.273 -1.1949  0.5236 -0.8683
29166SOL    HW296467   5.382   8.328   2.147  2.1234  0.4240  1.0924
29167SOL     OW96468   0.672   9.736   8.704  0.1513  0.6219 -0.0500
29167SOL    HW196469   0.764   9.710   8.699 -0.4126 -2.2232  1.9175
29167SOL    HW296470   0.647   9.755   8.614  2.1723 -0.4866 -0.8930
29168SOL     OW96471   4.594  11.155   5.949 -0.8096  0.0042 -0.2428
29168SOL    HW196472   4.659  11.105   6.000 -0.5032  0.0153 -0.6162
29168SOL    HW296473   4.551  11.211   6.014 -0.3868  0.0537  0.0001
29169SOL     OW96474   2.968   5.674   8.789 -0.3553  0.5397 -0.1113
29169SOL    HW196475   3.041   5.690   8.848  1.2133  0.9578 -2.0486
29169SOL    HW296476   2.949   5.759   8.749 -1.8916  0.4270  0.2979
29170SOL     OW96477   8.487   9.227  11.908  0.0166  0.0321  0.0356
29170SOL    HW196478   8.552   9.248  11.974  1.7638 -2.1102 -0.9010
29170SOL    HW296479   8.464   9.136  11.923  1.0157 -0.7705 -2.6407
29171SOL     OW96480   2.300  12.475   7.906  0.5502 -0.2188 -0.1307
29171SOL    HW196481   2.386  12.497   7.942  0.7666  0.5611 -1.0662
29171SOL    HW296482   2.246  12.551   7.926 -0.0312 -0.8414  0.7350
29172SOL     OW96483  11.011   0.399   0.431 -0.0260  0.3020 -0.1983
29172SOL    HW196484  11.036   0.420   0.341 -1.2624  0.5882 -0.4845
29172SOL    HW296485  11.026   0.304   0.438 -0.4914  0.1699 -0.9030
29173SOL     OW96486  10.535  11.458   8.083 -0.8224  0.8679 -0.2643
29173SOL    HW196487  10.555  11.446   7.990 -1.1818  2.0033 -0.5041
29173SOL    HW296488  10.441  11.480   8.085 -0.8544  0.6974  0.3807
29174SOL     OW96489  11.137   4.887   0.289  0.0442  0.1840 -0.1916
29174SOL    HW196490  11.166   4.978   0.279 -0.7176  0.3870 -0.6298
29174SOL    HW296491  11.147   4.869   0.382  2.4757 -0.0814 -0.4443
29175SOL     OW96492   7.657  12.062  10.864  0.4183 -0.8779 -0.1316
29175SOL    HW196493   7.603  11.983  10.863 -0.3982 -0.3224 -0.5848
29175SOL    HW296494   7.704  12.059  10.780 -0.6861 -0.1692 -0.7967
29176SOL     OW96495  12.115   6.507  11.420  0.4410  0.1922  0.3622
29176SOL    HW196496  12.200   6.472  11.396 -0.5621 -2.5705  0.5145
29176SOL    HW296497  12.083   6.550  11.341  1.3970  0.0614 -0.1101
29177SOL     OW96498   5.429  10.211   2.638 -0.2519  0.1648 -0.1813
29177SOL    HW196499   5.394  10.166   2.561 -1.0698  0.7220 -0.1434
29177SOL    HW296500   5.352  10.242   2.685  0.2900  1.3079 -0.0270
29178SOL     OW96501   8.841   3.870   0.679  0.2013  0.0772  0.2292
29178SOL    HW196502   8.836   3.806   0.750 -0.3292  0.2640  0.3656
29178SOL    HW296503   8.762   3.855   0.628  0.2541  0.3838  0.0528
29179SOL     OW96504   1.239   0.393  10.384 -0.7332  0.1425  0.2604
29179SOL    HW196505   1.263   0.448  10.310  0.1195  0.0922  0.4901
29179SOL    HW296506   1.145   0.378  10.373 -0.7768  0.7998 -0.3598
29180SOL     OW96507   8.601   6.732   1.382  0.6523 -0.3089 -0.0004
29180SOL    HW196508   8.509   6.705   1.383  0.9433 -1.3701 -0.0193
29180SOL    HW296509   8.609   6.793   1.310 -0.3947  1.1457  1.0644
29181SOL     OW96510   9.188  10.884   0.015  0.0545  0.1592 -0.2381
29181SOL    HW196511   9.175  10.790   0.024  0.7189  0.1931  1.3827
29181SOL    HW296512   9.112  10.923   0.058  0.6557  0.3450  0.6845
29182SOL     OW96513   7.535  10.244   8.024  0.1386 -1.0599  0.5574
29182SOL    HW196514   7.572  10.174   7.969 -0.3721  0.1285 -1.4217
29182SOL    HW296515   7.454  10.208   8.059  1.0526 -2.2485  1.5317
29183SOL     OW96516   8.820   8.681   0.651  0.2813  0.3288 -0.1102
29183SOL    HW196517   8.809   8.741   0.578 -0.4606  0.7716  0.3575
29183SOL    HW296518   8.771   8.603   0.625 -0.8517  0.8714  0.3389
29184SOL     OW96519   2.836   9.826   0.809 -0.2757 -0.8277 -0.3215
29184SOL    HW196520   2.920   9.852   0.771 -0.3163  1.6401  1.0591
29184SOL    HW296521   2.857   9.807   0.901 -1.5513  3.0715  0.9885
29185SOL     OW96522   8.073   3.663   5.160  0.0893 -0.3353  0.0437
29185SOL    HW196523   8.077   3.585   5.215 -0.2795 -0.0889  0.4275
29185SOL    HW296524   8.120   3.639   5.081  2.6951  0.0826  1.3736
29186SOL     OW96525  11.684   5.641   0.700  0.7384 -0.0253 -0.2165
29186SOL    HW196526  11.720   5.714   0.752 -0.8235  0.1429  0.6773
29186SOL    HW296527  11.757   5.579   0.694  1.4223  0.6183  0.9254
29187SOL     OW96528  10.096   3.269   7.063  0.0578  0.2526  0.4140
29187SOL    HW196529  10.192   3.280   7.059  0.2741 -1.6469 -0.6347
29187SOL    HW296530  10.065   3.301   6.978 -0.4195  1.9125  1.1596
29188SOL     OW96531   9.412   0.131   0.635 -0.0944  0.7069 -0.8574
29188SOL    HW196532   9.388   0.088   0.718 -2.0487  1.9782 -0.7235
29188SOL    HW296533   9.396   0.064   0.568  1.3268 -0.2710 -0.2845
29189SOL     OW96534   9.624  11.393  10.398  0.3964 -0.2209  0.8961
29189SOL    HW196535   9.553  11.368  10.458 -1.2671 -0.4284 -1.0735
29189SOL    HW296536   9.609  11.486  10.382  2.0163  0.3381  2.2277
29190SOL     OW96537   4.175   4.380   6.435  0.1455 -0.2576 -0.5369
29190SOL    HW196538   4.143   4.323   6.365  1.6033 -0.5629 -0.9753
29190SOL    HW296539   4.219   4.321   6.496  1.0676  0.2977 -0.6457
29191SOL     OW96540   5.511   2.762   1.077  0.1309  0.3427 -0.2249
29191SOL    HW196541   5.416   2.749   1.073  0.0373  0.8744  0.1603
29191SOL    HW296542   5.522   2.843   1.127  0.7715  0.5609 -0.7059
29192SOL     OW96543  11.976  11.030   2.076 -0.1536 -0.0443  0.2958
29192SOL    HW196544  11.992  11.091   2.004  1.8485 -0.3689  0.4048
29192SOL    HW296545  11.982  11.084   2.154 -0.7205  0.0232  0.2948
29193SOL     OW96546  11.527   9.558   5.537 -0.1821 -0.1997  0.1396
29193SOL    HW196547  11.620   9.552   5.517 -0.1257 -1.4498  0.6757
29193SOL    HW296548  11.512   9.490   5.602 -1.5294 -0.2356 -0.1784
29194SOL     OW96549  10.788  11.726   3.292  0.4656 -0.4267  0.1923
29194SOL    HW196550  10.743  11.669   3.354 -0.8331  0.3964  0.0498
29194SOL    HW296551  10.768  11.688   3.206  0.9341 -0.6526  0.1781
29195SOL     OW96552   8.702  10.464   0.096  0.0036 -0.1190 -0.0019
29195SOL    HW196553   8.715  10.371   0.078  0.8210 -0.1348  0.6505
29195SOL    HW296554   8.668  10.467   0.185 -3.2692  0.0229 -1.0888
29196SOL     OW96555  12.472   7.139   8.814 -0.0080  0.3170  0.3388
29196SOL    HW196556  12.549   7.100   8.773  0.5287 -0.8448  2.2940
29196SOL    HW296557  12.402   7.075   8.801  0.5163 -0.7332  2.3284
29197SOL     OW96558  12.443   1.487  12.215  0.0306 -0.1167 -0.1572
29197SOL    HW196559  12.453   1.415  12.278  1.0939 -0.2513 -0.4625
29197SOL    HW296560  12.526   1.534  12.219 -0.3487  0.6092 -0.5768
29198SOL     OW96561   2.354   2.401   9.266 -0.0024 -0.0854 -0.1613
29198SOL    HW196562   2.341   2.367   9.354 -0.4435  2.2004  0.7163
29198SOL    HW296563   2.441   2.441   9.268  1.4033 -2.7381 -1.7834
29199SOL     OW96564  12.385   5.000  10.607 -0.3640 -0.7045 -0.8144
29199SOL    HW196565  12.373   4.946  10.685 -1.4957  1.8903  0.9635
29199SOL    HW296566  12.459   5.056  10.628 -1.5448  0.9801 -0.9720
29200SOL     OW96567   8.204   2.578   6.556  0.0995 -0.7175 -0.4226
29200SOL    HW196568   8.134   2.623   6.508 -0.0367 -2.2186 -1.6993
29200SOL    HW296569   8.165   2.494   6.582  0.5743 -0.4496  1.3029
29201SOL     OW96570   8.031  11.153  12.182 -0.3235  0.3232 -0.0258
29201SOL    HW196571   8.071  11.071  12.154  1.2732  0.1125  2.5936
29201SOL    HW296572   7.938  11.142  12.162 -0.1066 -2.0145  0.0015
29202SOL     OW96573   7.928   6.026   0.015  0.5395  0.4982  0.2861
29202SOL    HW196574   7.944   6.044  -0.078  1.4324  2.7804  0.8132
29202SOL    HW296575   7.968   5.940   0.030 -0.5605 -0.4158 -1.6283
29203SOL     OW96576   2.549   6.741   9.888  0.1140  0.0820  0.1378
29203SOL    HW196577   2.470   6.688   9.886  0.1671  0.0078  0.0046
29203SOL    HW296578   2.614   6.687   9.933  0.4605 -0.3758 -0.8679
29204SOL     OW96579   1.009   7.997   0.770 -0.6843 -0.3183  0.1403
29204SOL    HW196580   0.995   7.956   0.685 -1.3569  1.4741 -0.6806
29204SOL    HW296581   1.009   8.091   0.751  0.0767  0.1039  2.0023
29205SOL     OW96582   9.367   3.490  11.967  0.0367  0.6684 -0.0495
29205SOL    HW196583   9.369   3.412  11.912 -0.7929 -0.5152  1.5021
29205SOL    HW296584   9.399   3.460  12.052  0.5839  2.2640  0.3546
29206SOL     OW96585   0.526  12.477  11.542  0.2189  0.0558 -0.3230
29206SOL    HW196586   0.554  12.530  11.616  0.4629 -0.0606 -0.3302
29206SOL    HW296587   0.436  12.504  11.525  0.8912  1.7668 -1.4654
29207SOL     OW96588   6.223   8.824   5.443 -0.2107 -0.5476  0.5127
29207SOL    HW196589   6.257   8.876   5.516 -2.9734  2.4872 -0.1335
29207SOL    HW296590   6.133   8.855   5.431 -0.1613 -1.4159 -3.7015
29208SOL     OW96591   5.188   4.910   4.192 -0.0203  0.1052  0.3404
29208SOL    HW196592   5.221   4.912   4.102  0.2579 -0.1217  0.4345
29208SOL    HW296593   5.139   4.991   4.201 -0.7333 -0.2503 -0.2660
29209SOL     OW96594   0.631   9.551   6.349 -0.3393 -0.3336 -0.1525
29209SOL    HW196595   0.544   9.511   6.361 -0.6159  0.0879 -0.7289
29209SOL    HW296596   0.633   9.622   6.413 -0.5095 -0.2008 -0.2929
29210SOL     OW96597   6.586   9.113   9.588 -0.1316  0.6526  0.0458
29210SOL    HW196598   6.671   9.132   9.547  1.0395 -0.3608  1.8608
29210SOL    HW296599   6.560   9.028   9.551  1.1103 -0.4490  1.5422
29211SOL     OW96600   5.086   0.018   7.225 -0.4467  0.6960  0.4005
29211SOL    HW196601   5.113   0.060   7.143 -1.3247  1.3109  0.4120
29211SOL    HW296602   5.053  -0.068   7.198 -0.5338  0.8128  0.1273
29212SOL     OW96603   4.362   4.496   4.559 -0.1642 -0.1088 -0.3139
29212SOL    HW196604   4.273   4.514   4.592 -0.3688 -0.2072 -0.8008
29212SOL    HW296605   4.398   4.582   4.540 -1.1869 -0.1438 -2.7551
29213SOL     OW96606   3.686   4.281   8.990 -0.7294  0.1566  0.1366
29213SOL    HW196607   3.733   4.306   8.910  2.3578 -1.8944  1.1044
29213SOL    HW296608   3.634   4.204   8.965 -0.0823 -0.2361 -0.0310
29214SOL     OW96609   2.186   6.422  11.143 -0.0252 -0.5141 -0.2086
29214SOL    HW196610   2.201   6.363  11.069 -1.7350  0.8397 -1.7245
29214SOL    HW296611   2.160   6.505  11.102  2.5755  1.4526  1.8078
29215SOL     OW96612   8.143  11.646   0.003 -0.3858  0.1099  0.0738
29215SOL    HW196613   8.161  11.672   0.094 -0.7733  2.1374 -0.3646
29215SOL    HW296614   8.061  11.691  -0.018 -0.1790 -0.1329 -1.3572
29216SOL     OW96615   1.244   3.016   5.034 -0.0088  0.3365 -0.0925
29216SOL    HW196616   1.336   3.014   5.006  0.1505  3.7234 -0.2048
29216SOL    HW296617   1.195   3.040   4.956 -0.6473  1.2141  0.5563
29217SOL     OW96618  10.835  10.306  12.376 -0.2841  0.3012 -0.0628
29217SOL    HW196619  10.915  10.272  12.415 -1.1259 -2.0425 -0.2707
29217SOL    HW296620  10.775  10.319  12.450 -0.5694 -0.4476 -0.1528
29218SOL     OW96621   8.837   5.130   7.849 -0.3610 -0.5208  0.4622
29218SOL    HW196622   8.829   5.134   7.753 -1.2859 -0.7835  0.5208
29218SOL    HW296623   8.901   5.060   7.864 -1.5224 -1.7046  0.0708
29219SOL     OW96624   7.417   5.790   4.178 -0.1376  0.6342 -0.2856
29219SOL    HW196625   7.467   5.772   4.099 -2.1693  1.5103 -1.8736
29219SOL    HW296626   7.386   5.705   4.208 -1.3637  0.4724 -1.9034
29220SOL     OW96627   3.850   3.778  10.507  0.3992  0.3994  0.3987
29220SOL    HW196628   3.945   3.784  10.515  0.5014 -1.2365  0.7494
29220SOL    HW296629   3.817   3.832  10.579  1.1291 -1.0380  1.8779
29221SOL     OW96630   0.239   4.651  10.538 -0.1077 -0.2758  1.0205
29221SOL    HW196631   0.328   4.683  10.528 -1.1843  2.7484  0.0508
29221SOL    HW296632   0.226   4.648  10.633  0.7193  0.2114  1.1617
29222SOL     OW96633   2.643   7.105   3.090  0.3864 -0.7589 -0.5434
29222SOL    HW196634   2.658   7.011   3.100  0.5779 -0.7141 -0.4078
29222SOL    HW296635   2.589   7.113   3.012 -1.3565 -1.1516  0.5712
29223SOL     OW96636   2.851  11.365   2.037  0.3096  0.2521  0.9019
29223SOL    HW196637   2.900  11.408   2.107 -0.2781  0.6608  1.0710
29223SOL    HW296638   2.760  11.394   2.050 -0.0486 -0.7960  0.8372
29224SOL     OW96639   5.494   5.512  10.064  0.0832 -0.0307  0.1149
29224SOL    HW196640   5.473   5.604  10.082  0.3509 -0.0088  0.3376
29224SOL    HW296641   5.576   5.498  10.111 -0.2068 -0.5181  0.4802
29225SOL     OW96642   1.625  11.508   7.496 -0.4600  0.7387  0.2636
29225SOL    HW196643   1.573  11.435   7.461  1.0841 -0.6653  0.7370
29225SOL    HW296644   1.565  11.556   7.553 -1.6094  0.0381 -0.3291
29226SOL     OW96645   8.148   3.128   3.214  0.3102  0.1165  0.2906
29226SOL    HW196646   8.189   3.145   3.298 -0.5705 -0.7900  0.9295
29226SOL    HW296647   8.061   3.095   3.236 -0.5239  1.3123 -1.0065
29227SOL     OW96648  10.252   3.188  12.126  0.3520  0.0523 -0.7005
29227SOL    HW196649  10.249   3.148  12.213 -0.9523 -0.1365 -0.8130
29227SOL    HW296650  10.320   3.140  12.079 -0.5694 -1.4776 -0.5424
29228SOL     OW96651   2.166   9.307   0.111  0.4642 -0.1425 -0.3590
29228SOL    HW196652   2.125   9.227   0.080 -1.4460 -0.2960  2.1883
29228SOL    HW296653   2.243   9.277   0.160 -0.4846 -0.5300  0.9566
29229SOL     OW96654   9.779   6.253   4.309  0.0407 -0.0333  0.2124
29229SOL    HW196655   9.859   6.239   4.258  0.3825 -0.2075  0.7898
29229SOL    HW296656   9.756   6.345   4.293  0.2220 -0.0445 -0.1363
29230SOL     OW96657   3.621   5.622   3.834  0.0409  0.8509  0.1759
29230SOL    HW196658   3.614   5.706   3.881 -2.1064  1.0587 -0.3999
29230SOL    HW296659   3.635   5.648   3.743 -0.0072  0.5498  0.0850
29231SOL     OW96660   8.922   9.943   8.640 -0.0591 -0.0891  0.1836
29231SOL    HW196661   8.928   9.973   8.731  1.2910 -0.4086  0.2188
29231SOL    HW296662   9.009   9.909   8.620  0.1319  1.3783 -1.7228
29232SOL     OW96663   6.521   3.529   7.750  0.0538  0.2626  0.2269
29232SOL    HW196664   6.503   3.517   7.843 -0.1975  0.0936  0.1573
29232SOL    HW296665   6.586   3.462   7.729 -0.7430 -0.4648  0.0231
29233SOL     OW96666   5.852  10.458   2.732  0.3237 -0.6785  0.3837
29233SOL    HW196667   5.853  10.509   2.651  1.0737  0.7414  1.2537
29233SOL    HW296668   5.816  10.373   2.706 -1.7693  0.5173 -0.9774
29234SOL     OW96669  11.465  12.080   5.726 -0.1082  0.3294 -0.8235
29234SOL    HW196670  11.464  12.154   5.787  0.2602  0.3323 -0.8147
29234SOL    HW296671  11.456  12.003   5.781 -2.3396  0.4184 -0.9696
29235SOL     OW96672   4.607  12.438   1.374 -0.1428  0.2967  0.5141
29235SOL    HW196673   4.650  12.486   1.445  0.0751  0.4765  0.2659
29235SOL    HW296674   4.616  12.346   1.398  1.7266  0.2237 -0.2410
29236SOL     OW96675  11.346  12.505   7.623 -0.3599  0.0288  0.6026
29236SOL    HW196676  11.288  12.571   7.661 -2.8250 -0.7505 -1.5179
29236SOL    HW296677  11.390  12.550   7.551 -0.8737 -0.2536  0.1140
29237SOL     OW96678   4.263   4.025   7.110 -0.4329  0.4168 -0.2558
29237SOL    HW196679   4.353   3.991   7.109 -0.6915 -0.4469  1.6423
29237SOL    HW296680   4.221   3.984   7.035  0.6846  0.6634 -1.0510
29238SOL     OW96681   2.252  12.509   3.763 -0.1346  0.2577  0.4123
29238SOL    HW196682   2.201  12.464   3.695 -1.3660  3.3135 -0.8487
29238SOL    HW296683   2.330  12.540   3.717  0.8586 -0.7485  1.3464
29239SOL     OW96684   1.319  10.951   4.679 -0.0464 -0.2328 -0.5234
29239SOL    HW196685   1.270  10.873   4.650  0.9915 -1.0718 -0.0878
29239SOL    HW296686   1.338  10.934   4.772  1.5642 -0.2159 -0.8179
29240SOL     OW96687   8.486   0.394   6.018  0.5278 -0.6597 -0.3547
29240SOL    HW196688   8.512   0.303   6.027  0.0631 -0.7646 -0.0723
29240SOL    HW296689   8.567   0.444   6.032  0.7962 -1.0283 -0.5813
29241SOL     OW96690  10.189  11.474   1.980 -0.2609 -0.6836  0.3403
29241SOL    HW196691  10.240  11.523   1.916  0.0099  0.4474  1.3916
29241SOL    HW296692  10.129  11.538   2.018 -0.0644 -1.2016  1.5781
29242SOL     OW96693   6.893   4.091  10.451 -0.6058  0.3818  0.2467
29242SOL    HW196694   6.881   4.023  10.517 -0.4548 -0.5665 -0.6808
29242SOL    HW296695   6.851   4.057  10.373 -0.4424  1.3159 -0.2693
29243SOL     OW96696   9.115  10.974   1.848 -0.3465 -0.6333  0.2218
29243SOL    HW196697   9.175  10.899   1.841 -1.0190 -1.0436 -1.6889
29243SOL    HW296698   9.033  10.943   1.812 -0.9257  0.7688  0.2599
29244SOL     OW96699   6.577   8.989   0.498 -0.7145  0.7550 -0.1332
29244SOL    HW196700   6.503   9.012   0.442 -0.9509  2.8274  0.9194
29244SOL    HW296701   6.538   8.955   0.578 -0.3883 -1.7027 -0.9388
29245SOL     OW96702   2.796   8.388   0.054  0.4444  0.2011  0.3360
29245SOL    HW196703   2.731   8.398  -0.015 -0.2410 -1.3744  0.7203
29245SOL    HW296704   2.880   8.397   0.010  0.0015  0.7954 -0.4130
29246SOL     OW96705   5.528   2.344   0.354 -0.1308 -0.5567 -0.1395
29246SOL    HW196706   5.476   2.359   0.432 -0.0235 -1.4511  0.1169
29246SOL    HW296707   5.464   2.340   0.283 -0.3202 -0.6894  0.0371
29247SOL     OW96708   6.458   5.474   5.417 -0.0586 -0.6281 -0.2504
29247SOL    HW196709   6.429   5.439   5.502  1.2679  0.9803  0.9449
29247SOL    HW296710   6.447   5.401   5.356  1.7000 -2.8779  1.9033
29248SOL     OW96711   4.736  10.614  11.637 -0.1319 -0.0075 -0.1411
29248SOL    HW196712   4.783  10.592  11.717 -0.8808  2.9241  1.2460
29248SOL    HW296713   4.643  10.604  11.660 -0.4048  2.1075 -0.1268
29249SOL     OW96714  11.088   2.650   3.937  0.5442  0.4472 -0.1057
29249SOL    HW196715  11.181   2.659   3.917  0.9605 -1.4590  0.7147
29249SOL    HW296716  11.046   2.641   3.852  1.0285  1.7693 -0.5093
29250SOL     OW96717   9.969   5.220  10.768 -1.2990  0.6131  0.1151
29250SOL    HW196718  10.049   5.269  10.783  0.5006 -2.4788  1.7780
29250SOL    HW296719   9.962   5.213  10.673  1.5347 -0.5883 -0.0917
29251SOL     OW96720   9.456   8.521   6.654 -0.1648 -0.3062  0.4214
29251SOL    HW196721   9.507   8.601   6.668 -0.8457  0.1594  0.2605
29251SOL    HW296722   9.410   8.536   6.572 -0.5932 -0.7102  0.5876
29252SOL     OW96723   5.511   0.313  11.420 -0.1348  0.2308  0.1344
29252SOL    HW196724   5.523   0.282  11.510 -1.7969  1.1946  0.7248
29252SOL    HW296725   5.433   0.267  11.389  0.3851 -0.0423 -0.8174
29253SOL     OW96726   1.126   1.156  11.616  0.3696 -0.3580  0.8655
29253SOL    HW196727   1.216   1.135  11.591  0.6208  1.3359  0.2445
29253SOL    HW296728   1.135   1.217  11.689 -0.3323 -2.2245  2.5845
29254SOL     OW96729   4.941   8.807   8.791 -0.3093 -0.5915  0.4459
29254SOL    HW196730   4.991   8.794   8.871 -1.1197  1.8111  1.4338
29254SOL    HW296731   5.006   8.834   8.726 -0.1341  2.0798  1.6006
29255SOL     OW96732   6.206   9.670  11.769 -0.4999 -0.2750 -0.1705
29255SOL    HW196733   6.292   9.711  11.783 -0.7873  0.8542 -1.4643
29255SOL    HW296734   6.144   9.728  11.815 -0.5602 -1.3280  1.1388
29256SOL     OW96735   5.473  10.365   7.553  0.2338 -0.1054 -0.6715
29256SOL    HW196736   5.406  10.417   7.598 -2.5855 -3.6484 -0.2592
29256SOL    HW296737   5.472  10.397   7.463 -0.5675  1.2067 -0.2245
29257SOL     OW96738  11.791   8.756   5.611 -0.1543  0.5456  0.6754
29257SOL    HW196739  11.714   8.778   5.664 -0.0801 -3.3320  2.7004
29257SOL    HW296740  11.863   8.753   5.673  0.2888 -2.3638  0.1665
29258SOL     OW96741   1.400   6.166   5.834 -0.4507  0.1836 -0.6137
29258SOL    HW196742   1.477   6.173   5.777  0.6077 -1.7570  0.4887
29258SOL    HW296743   1.361   6.082   5.811 -1.8944  0.8471 -0.6918
29259SOL     OW96744   4.734   0.190   6.573  0.6221  0.6764  0.2009
29259SOL    HW196745   4.690   0.175   6.657 -0.2129 -2.1944 -0.6460
29259SOL    HW296746   4.664   0.213   6.512  0.9217  0.5931 -0.1794
29260SOL     OW96747   8.778  10.829   3.575 -0.1959 -0.3800  0.3135
29260SOL    HW196748   8.798  10.769   3.647  1.2241 -0.7754 -0.3845
29260SOL    HW296749   8.706  10.787   3.529 -0.9241 -0.2680  1.3093
29261SOL     OW96750   7.644   9.614   0.093  0.2514 -0.0001  0.1671
29261SOL    HW196751   7.609   9.618   0.004  0.5984  0.8556  0.0615
29261SOL    HW296752   7.570   9.640   0.149  0.5863  1.4455 -0.0288
29262SOL     OW96753  11.371   8.694   0.274 -0.2410 -0.9281  0.3869
29262SOL    HW196754  11.370   8.761   0.206  2.5282 -0.6865  0.4691
29262SOL    HW296755  11.333   8.738   0.351 -0.8240 -0.3118 -0.2361
29263SOL     OW96756   4.017   3.631   4.124 -0.3861  0.0991  0.3401
29263SOL    HW196757   3.942   3.681   4.093 -0.5288  0.0600  0.6174
29263SOL    HW296758   4.093   3.683   4.099 -0.3609 -0.9148 -1.9386
29264SOL     OW96759   6.359   7.189  12.202  0.0997 -0.5417  0.5468
29264SOL    HW196760   6.275   7.155  12.171 -0.3316  0.5318  0.4751
29264SOL    HW296761   6.419   7.176  12.129 -0.3643 -0.0314  0.0642
29265SOL     OW96762   4.625   9.673   5.184 -0.3392 -0.2564  0.4679
29265SOL    HW196763   4.544   9.692   5.231 -0.8654 -3.4885  1.0924
29265SOL    HW296764   4.598   9.617   5.111  1.3004 -1.3687  0.6618
29266SOL     OW96765   8.613  12.459   3.130 -0.6383 -0.5389 -0.2475
29266SOL    HW196766   8.534  12.502   3.163 -1.6416 -1.5585 -1.2128
29266SOL    HW296767   8.580  12.383   3.082  1.0047 -1.6581  0.3271
29267SOL     OW96768   9.600  12.072   1.316 -0.0576 -0.3659 -0.2427
29267SOL    HW196769   9.659  11.996   1.309 -0.9835 -1.0611 -0.7698
29267SOL    HW296770   9.537  12.059   1.245  0.6471  1.7183 -1.3304
29268SOL     OW96771   7.844   5.961   9.661  0.3882 -0.1154  0.6778
29268SOL    HW196772   7.920   6.007   9.624 -0.0842 -0.7091 -1.1510
29268SOL    HW296773   7.870   5.941   9.751  1.5412  1.5813  0.7810
29269SOL     OW96774  11.781  11.317  12.458  0.0215 -0.5307  0.2206
29269SOL    HW196775  11.711  11.344  12.518  0.8735  1.0185  0.5800
29269SOL    HW296776  11.747  11.338  12.371 -0.7691 -1.7395  0.2123
29270SOL     OW96777   4.498   0.776   8.284 -0.0944 -0.0783 -0.3854
29270SOL    HW196778   4.579   0.817   8.256  1.4017 -1.3103  1.8078
29270SOL    HW296779   4.509   0.683   8.263  0.1819 -0.6694  2.0226
29271SOL     OW96780   4.792  10.018   2.015 -0.5222  0.3681 -0.8761
29271SOL    HW196781   4.878   9.979   1.998 -0.6649  0.3038 -1.4696
29271SOL    HW296782   4.760   9.972   2.093  0.4986  1.2388  0.1115
29272SOL     OW96783   3.030   1.395   9.277  0.3487 -0.1840  0.5860
29272SOL    HW196784   3.010   1.473   9.328  0.5956 -0.7173  1.5304
29272SOL    HW296785   3.113   1.364   9.312  0.5375 -0.5497 -0.1734
29273SOL     OW96786   7.882   4.900   0.504  0.3760  0.3171 -0.1691
29273SOL    HW196787   7.941   4.974   0.518 -0.2248  0.8967 -0.6207
29273SOL    HW296788   7.904   4.838   0.573  1.2988  0.6543 -0.1469
29274SOL     OW96789   0.997  11.679   7.114 -0.5020 -0.1580 -0.3248
29274SOL    HW196790   0.943  11.689   7.193 -0.3790 -2.1222  0.0594
29274SOL    HW296791   1.062  11.748   7.122 -0.1550 -0.6320  1.6171
29275SOL     OW96792   0.575   1.296   8.676  0.4741  0.0267  0.3445
29275SOL    HW196793   0.650   1.245   8.646  0.6334  0.0455  0.7026
29275SOL    HW296794   0.612   1.380   8.703  0.7752 -0.8779  3.0894
29276SOL     OW96795   8.335   0.449   3.969  0.5947 -0.1387  0.4166
29276SOL    HW196796   8.254   0.473   3.923  1.8220  0.7122 -1.3783
29276SOL    HW296797   8.399   0.436   3.900  2.0606 -0.6459  1.8208
29277SOL     OW96798   1.646   3.608   1.973 -0.4953  0.2561  0.1724
29277SOL    HW196799   1.608   3.601   2.061  1.1174 -0.4005  0.8568
29277SOL    HW296800   1.741   3.607   1.988 -0.1870 -0.4522 -1.6235
29278SOL     OW96801   8.368   1.340   6.983 -0.1753 -0.0505  0.0214
29278SOL    HW196802   8.406   1.259   6.948 -0.6179 -0.2788  0.0720
29278SOL    HW296803   8.282   1.314   7.016 -0.3044  0.4349  0.0654
29279SOL     OW96804   9.123   1.115   9.090  0.0026 -0.0453  0.0526
29279SOL    HW196805   9.178   1.048   9.051  0.2240  1.6204 -2.7452
29279SOL    HW296806   9.033   1.086   9.072  0.0301 -0.5842  0.7293
29280SOL     OW96807   7.745   5.715   8.747  0.1134 -0.0177  0.3090
29280SOL    HW196808   7.739   5.662   8.826 -1.7001  0.9010  0.8432
29280SOL    HW296809   7.766   5.653   8.678 -1.6276 -1.4274  0.9624
29281SOL     OW96810  11.403   3.368   9.436 -0.0791 -0.5379 -0.0630
29281SOL    HW196811  11.315   3.372   9.398 -0.6647  1.7232  1.3299
29281SOL    HW296812  11.461   3.378   9.361 -0.9982 -1.4954 -0.9457
29282SOL     OW96813   3.891   8.735   3.970  0.1724  0.2497  0.0375
29282SOL    HW196814   3.968   8.790   3.989  1.0825 -1.0253  0.1553
29282SOL    HW296815   3.927   8.648   3.954 -1.1999 -0.2145 -0.6619
29283SOL     OW96816   3.797  10.450   7.695 -0.4244 -0.0852  0.1475
29283SOL    HW196817   3.722  10.507   7.677  1.6339  2.2016 -2.2687
29283SOL    HW296818   3.850  10.500   7.757 -0.1666 -0.9506  0.6324
29284SOL     OW96819  12.134   4.176   4.289  0.2304  0.5689  0.3440
29284SOL    HW196820  12.144   4.256   4.239 -1.0621  0.7495  0.3394
29284SOL    HW296821  12.150   4.202   4.380 -0.6743  0.9611  0.4062
29285SOL     OW96822   5.419   0.039   2.751  0.6345  0.3280  0.2315
29285SOL    HW196823   5.486   0.061   2.686  0.8336 -5.2795 -2.0153
29285SOL    HW296824   5.466   0.035   2.834  1.5829  2.4635 -0.1397
29286SOL     OW96825   0.799  10.552  10.546  0.0214 -0.6518  0.1415
29286SOL    HW196826   0.813  10.590  10.633  1.3620 -0.8584  0.0429
29286SOL    HW296827   0.717  10.504  10.554  0.5380 -1.3848  1.5649
29287SOL     OW96828  10.307  10.619   5.853  0.1366  0.4290 -0.4923
29287SOL    HW196829  10.353  10.564   5.790  0.7282  1.2543 -0.8050
29287SOL    HW296830  10.322  10.709   5.821 -0.0753  0.8163  0.4777
29288SOL     OW96831   4.725   9.978   7.762 -0.2126 -0.3523 -0.1596
29288SOL    HW196832   4.665   9.981   7.837 -0.6973 -0.2811 -0.5439
29288SOL    HW296833   4.804  10.022   7.793  0.4924 -2.3603  1.0799
29289SOL     OW96834   6.428   2.187   7.501  0.1185  0.0007  0.0540
29289SOL    HW196835   6.378   2.231   7.433 -1.4075 -2.4931 -0.5707
29289SOL    HW296836   6.367   2.179   7.574  0.3719 -0.9762  0.1659
29290SOL     OW96837   7.393   3.626   0.751  0.2370  0.7292  0.1515
29290SOL    HW196838   7.298   3.638   0.760  0.0680 -1.2563  1.5518
29290SOL    HW296839   7.428   3.643   0.839  0.9529 -0.3627  0.0893
29291SOL     OW96840   2.332   1.373   3.991  0.3686 -0.4546 -0.1697
29291SOL    HW196841   2.404   1.436   3.983 -2.1476  3.3144  2.8779
29291SOL    HW296842   2.284   1.402   4.069 -3.5669 -3.6537 -1.0922
29292SOL     OW96843   3.338   3.262   1.860  0.7740  0.4961 -0.0913
29292SOL    HW196844   3.366   3.320   1.788 -0.6372 -0.0694 -1.1364
29292SOL    HW296845   3.249   3.291   1.881  0.7378 -0.1129  0.6375
29293SOL     OW96846   1.472  10.766   4.098 -0.4743  0.5795  0.3061
29293SOL    HW196847   1.500  10.843   4.148 -1.5945  0.4310  1.2189
29293SOL    HW296848   1.408  10.723   4.155  1.0068 -1.7131  0.3650
29294SOL     OW96849   8.407   1.565   6.824  0.0713  0.0178  0.3582
29294SOL    HW196850   8.413   1.478   6.864  0.4865 -0.3458 -0.4506
29294SOL    HW296851   8.398   1.547   6.730  0.2486  0.8458  0.1741
29295SOL     OW96852   5.479  12.383   5.331 -0.0433 -0.3309  0.1696
29295SOL    HW196853   5.564  12.341   5.320  0.3582 -0.3946  2.9761
29295SOL    HW296854   5.416  12.315   5.309  0.6103 -0.7903 -0.3326
29296SOL     OW96855   2.760   1.989   5.761 -0.2526 -0.4237 -0.6285
29296SOL    HW196856   2.704   1.914   5.781 -0.6681 -0.0870 -0.5302
29296SOL    HW296857   2.756   1.998   5.666  1.2410 -1.6453 -0.8615
29297SOL     OW96858   9.073   0.591   5.455  0.4598 -0.6166 -0.2022
29297SOL    HW196859   9.089   0.684   5.441 -0.6218 -0.4283 -0.2948
29297SOL    HW296860   9.155   0.548   5.431  1.2415  0.3685  0.6142
29298SOL     OW96861   3.127  10.060   2.104 -0.0125 -0.2876  0.1896
29298SOL    HW196862   3.170  10.140   2.073 -1.4226  0.1452 -0.7763
29298SOL    HW296863   3.045  10.091   2.143 -0.0681 -1.1858  0.8199
29299SOL     OW96864   4.871  12.238   0.122  0.0686  0.1083 -0.6996
29299SOL    HW196865   4.795  12.295   0.113 -0.2263 -0.2699 -0.6341
29299SOL    HW296866   4.848  12.159   0.075 -0.2736 -0.6802  0.7239
29300SOL     OW96867  12.202   0.102   7.298 -0.2767  0.4196  0.3490
29300SOL    HW196868  12.148   0.059   7.231 -1.2995 -0.1304  1.4840
29300SOL    HW296869  12.140   0.156   7.346 -0.2822 -1.6651  2.8959
29301SOL     OW96870   9.265  11.429  11.304 -0.4510  0.5798 -0.5726
29301SOL    HW196871   9.316  11.459  11.379 -1.7685 -1.3641  1.2231
29301SOL    HW296872   9.320  11.362  11.263  0.5837  2.1481 -1.8808
29302SOL     OW96873  12.007   2.606  10.752  0.6480 -0.6092  0.3897
29302SOL    HW196874  12.033   2.683  10.701  1.9541 -1.1414  0.2160
29302SOL    HW296875  11.936   2.566  10.702  1.9282 -1.1509 -1.0786
29303SOL     OW96876   2.925   2.890   5.863  0.1514 -0.0337 -0.4699
29303SOL    HW196877   2.939   2.906   5.956 -0.2803  2.3074 -0.7460
29303SOL    HW296878   3.012   2.897   5.824  0.2822 -0.6726 -0.3091
29304SOL     OW96879   2.056   3.455   5.232  0.4066  0.4928 -0.1810
29304SOL    HW196880   2.000   3.486   5.304  1.8030  1.3612  0.5630
29304SOL    HW296881   2.144   3.453   5.269  0.9729 -0.2688 -1.5138
29305SOL     OW96882   3.668   4.130   2.771  0.0384  0.8632 -0.0967
29305SOL    HW196883   3.727   4.069   2.726  0.6715  1.7052 -0.4215
29305SOL    HW296884   3.663   4.206   2.713 -0.7776  1.1051  0.2858
29306SOL     OW96885   9.522   3.875  12.236  0.1536 -0.4941 -0.3402
29306SOL    HW196886   9.445   3.825  12.210  0.2174 -0.2904 -0.9291
29306SOL    HW296887   9.581   3.869  12.161  0.2889  0.1955 -0.2940
29307SOL     OW96888   1.762   7.025   5.802  0.0601  0.0510  0.3443
29307SOL    HW196889   1.763   7.063   5.715  0.6682 -2.6200 -0.9187
29307SOL    HW296890   1.686   6.966   5.802  0.6322 -0.7131  1.2847
29308SOL     OW96891   6.875   8.351   4.855 -0.3491 -0.3809  0.7092
29308SOL    HW196892   6.868   8.446   4.867 -0.0612 -0.3451  0.6195
29308SOL    HW296893   6.899   8.318   4.941 -2.0227 -0.5573  1.1328
29309SOL     OW96894   2.310   1.759  10.734 -0.2335 -0.0542  0.0006
29309SOL    HW196895   2.315   1.738  10.827 -0.0228  0.1165  0.0293
29309SOL    HW296896   2.354   1.685  10.691  0.1392  0.1193  0.0739
29310SOL     OW96897   3.935  11.287   2.746 -0.2375 -0.3508  1.0200
29310SOL    HW196898   3.930  11.271   2.840 -1.6904 -2.0218  0.6996
29310SOL    HW296899   3.858  11.341   2.727  0.8259  1.2462  0.9550
29311SOL     OW96900   3.956  10.165   7.777  0.0304  0.5017  0.0380
29311SOL    HW196901   3.878  10.219   7.765 -0.6162 -0.3745  0.2458
29311SOL    HW296902   3.925  10.075   7.771  0.2251 -0.0427  4.1322
29312SOL     OW96903   9.902   9.537  11.445 -0.3030 -0.0851 -0.1431
29312SOL    HW196904   9.893   9.456  11.394 -1.2351 -0.1795  0.1617
29312SOL    HW296905   9.870   9.515  11.532  0.5011  0.3109  0.2601
29313SOL     OW96906   8.930   3.525   8.310  0.1816 -0.1776  0.4582
29313SOL    HW196907   8.881   3.607   8.311  1.5815  0.6807  0.4873
29313SOL    HW296908   8.985   3.531   8.232  0.1175 -1.2191  0.3181
29314SOL     OW96909   2.071  11.017  12.244  0.6511  0.0801 -0.2990
29314SOL    HW196910   2.082  10.994  12.337 -0.5972  0.4563 -0.0386
29314SOL    HW296911   1.992  11.070  12.242  0.5349 -0.1097 -1.6222
29315SOL     OW96912   2.743  11.487   1.027  0.8048  0.7985  0.7158
29315SOL    HW196913   2.818  11.460   1.080 -0.6514  0.0225  2.5000
29315SOL    HW296914   2.686  11.532   1.089 -1.4170 -0.9535  0.0646
29316SOL     OW96915   6.074   6.263   4.447 -0.5556 -0.7267  0.5911
29316SOL    HW196916   6.163   6.230   4.460 -0.4652 -0.2750  1.1814
29316SOL    HW296917   6.085   6.351   4.413 -0.7967 -1.1043 -0.5189
29317SOL     OW96918   8.934  12.172   0.982  0.1162 -0.2055  0.6486
29317SOL    HW196919   8.865  12.146   1.043 -1.2785  0.1297 -0.7409
29317SOL    HW296920   8.923  12.114   0.906 -0.3744  1.6038 -0.7233
29318SOL     OW96921   0.786   4.141   1.610  0.0254 -0.4584  0.0502
29318SOL    HW196922   0.778   4.140   1.514  0.5057 -1.1889  0.0053
29318SOL    HW296923   0.880   4.149   1.625  0.0702 -1.5695  0.4433
29319SOL     OW96924   2.505   0.728   3.145  0.1369 -0.4237  0.1455
29319SOL    HW196925   2.508   0.632   3.149 -1.2561 -0.4855  0.3108
29319SOL    HW296926   2.442   0.752   3.213  0.4907  0.6125  0.1111
29320SOL     OW96927   7.017   9.870   4.845 -0.1078 -0.2230  0.5626
29320SOL    HW196928   7.102   9.892   4.883 -0.5716  2.8409  0.0244
29320SOL    HW296929   6.963   9.846   4.921  1.1045 -1.9824  0.9302
29321SOL     OW96930   6.470   4.053   5.099  0.4537  0.3532 -0.4472
29321SOL    HW196931   6.421   4.018   5.025  0.8736  0.3423 -0.7259
29321SOL    HW296932   6.476   4.147   5.081 -0.2277  0.4941  0.0380
29322SOL     OW96933   6.552   1.234   7.417  0.0833  0.2199  0.3095
29322SOL    HW196934   6.641   1.268   7.424  0.4367 -0.5636 -0.2863
29322SOL    HW296935   6.554   1.174   7.343 -1.2780  1.2048 -0.5617
29323SOL     OW96936   8.423   2.758   1.381  0.1153  0.0080  0.2233
29323SOL    HW196937   8.364   2.702   1.331  0.2227 -1.4167  1.6184
29323SOL    HW296938   8.498   2.702   1.401 -0.2381  0.2875  2.5674
29324SOL     OW96939   5.409   6.341   8.361  0.2463  0.6196  0.2369
29324SOL    HW196940   5.429   6.300   8.444  0.0321  0.0660  0.0209
29324SOL    HW296941   5.363   6.422   8.384  2.2631  1.6729  0.7150
29325SOL     OW96942   8.850   4.969  10.577 -0.2615 -0.1939  0.7818
29325SOL    HW196943   8.874   5.060  10.556  2.4166 -1.0515 -0.2625
29325SOL    HW296944   8.770   4.953  10.525 -0.1684  1.2283  0.1519
29326SOL     OW96945   0.849   2.811   3.317  0.2101  0.0917  0.3609
29326SOL    HW196946   0.944   2.822   3.329  0.4872 -2.5435  1.2826
29326SOL    HW296947   0.841   2.767   3.232 -0.3247  1.3990 -0.2910
29327SOL     OW96948   9.227  10.055   9.699  0.3072 -0.6292  0.5958
29327SOL    HW196949   9.202   9.997   9.627  0.3332  1.2171 -0.9820
29327SOL    HW296950   9.183  10.019   9.776  0.3096 -2.6956 -0.3054
29328SOL     OW96951   8.031   4.710  11.732  0.3307 -0.0359 -0.1890
29328SOL    HW196952   7.966   4.768  11.771 -0.8458 -2.3513  1.5704
29328SOL    HW296953   8.105   4.714  11.792  0.2642 -0.3028 -0.0881
29329SOL     OW96954   8.587   8.575   1.694  0.4351 -0.4434  0.3314
29329SOL    HW196955   8.676   8.608   1.684  0.4919 -0.8423 -0.7168
29329SOL    HW296956   8.533   8.652   1.708  0.7102  0.0017 -0.9365
29330SOL     OW96957  11.505   2.418   4.082 -0.7073 -0.3010  0.1087
29330SOL    HW196958  11.416   2.388   4.093 -1.5907  1.1856 -2.1326
29330SOL    HW296959  11.554   2.379   4.154 -3.4401  0.0477  2.2883
29331SOL     OW96960   3.786   2.818   3.276 -0.3616 -0.2281  0.1232
29331SOL    HW196961   3.814   2.740   3.324  0.1239  0.0684  0.3267
29331SOL    HW296962   3.794   2.889   3.339 -1.7751 -0.1492  0.2608
29332SOL     OW96963   5.342   6.491   1.865  0.1318 -0.1583  0.0301
29332SOL    HW196964   5.305   6.543   1.794  0.5143 -0.4321 -0.3757
29332SOL    HW296965   5.329   6.544   1.943  1.1622  0.8779 -0.4752
29333SOL     OW96966  12.147  11.809   1.561  0.3036  0.5935 -0.4118
29333SOL    HW196967  12.194  11.816   1.477 -1.4225 -1.3146 -1.6464
29333SOL    HW296968  12.061  11.775   1.537 -1.0957  2.2439  1.9572
29334SOL     OW96969  10.497   8.951   5.432  0.7818  0.2046 -0.0303
29334SOL    HW196970  10.573   8.989   5.477  0.9908 -2.3590  2.0559
29334SOL    HW296971  10.439   8.924   5.503 -1.5044  0.8785 -1.5455
29335SOL     OW96972   4.386   4.150  11.635  0.3920 -0.3453 -0.3692
29335SOL    HW196973   4.425   4.171  11.719 -0.6876 -0.6862  0.2430
29335SOL    HW296974   4.442   4.193  11.570  1.5163 -0.4850  0.4836
29336SOL     OW96975   3.700   2.166   7.200  0.2386 -0.0309  0.1792
29336SOL    HW196976   3.671   2.096   7.141 -2.2970  1.0127  0.0661
29336SOL    HW296977   3.622   2.190   7.249  1.4673  1.5357  1.4950
29337SOL     OW96978   1.021   2.914   2.862  0.0494  0.7638 -0.2330
29337SOL    HW196979   1.099   2.859   2.872 -0.0841  0.4715 -0.7593
29337SOL    HW296980   1.053   3.004   2.874  0.1147  0.5418  1.5252
29338SOL     OW96981   4.099   1.018   4.265 -0.1951 -0.1973  0.7020
29338SOL    HW196982   4.042   0.941   4.268  0.3212 -0.5962  0.5421
29338SOL    HW296983   4.059   1.076   4.201 -0.6639 -0.2703  0.9227
29339SOL     OW96984  12.473   0.252   4.187 -0.8770 -0.3641  0.2434
29339SOL    HW196985  12.384   0.219   4.177 -1.4396  1.4142 -1.0932
29339SOL    HW296986  12.463   0.347   4.184  1.0512 -0.1343  0.2545
29340SOL     OW96987   5.574   9.227   3.882 -0.4175  0.3342 -0.7401
29340SOL    HW196988   5.647   9.247   3.824  1.1747 -1.3306  0.5630
29340SOL    HW296989   5.579   9.293   3.951  1.3403 -0.9952  0.5297
29341SOL     OW96990   0.822   2.573   7.121  1.0083 -0.4390 -0.2680
29341SOL    HW196991   0.865   2.656   7.143 -3.3531  1.6857  1.6481
29341SOL    HW296992   0.847   2.513   7.191 -0.5229  1.3912  2.0246
29342SOL     OW96993   9.377   2.313   0.598 -0.2356 -0.3230 -0.2846
29342SOL    HW196994   9.342   2.240   0.649  0.8548 -0.1626  0.7501
29342SOL    HW296995   9.449   2.346   0.651 -0.6390  1.4446 -0.7795
29343SOL     OW96996   1.079   7.166   0.577  0.0091 -0.0299 -0.0335
29343SOL    HW196997   1.152   7.206   0.624  1.2420 -0.8612 -1.1556
29343SOL    HW296998   1.116   7.086   0.539 -1.0687  0.2808 -1.8819
29344SOL     OW96999   2.219   5.947   0.701  0.2495 -0.4877 -0.1584
29344SOL    HW197000   2.277   5.871   0.696  1.3493  0.1019  2.2367
29344SOL    HW297001   2.221   5.985   0.613  3.6428 -0.4229 -0.1814
29345SOL     OW97002   1.558   8.875  11.846 -0.1119  0.3039  0.5516
29345SOL    HW197003   1.648   8.845  11.830 -0.5979 -1.9712  1.6461
29345SOL    HW297004   1.517   8.876  11.760  1.1152  2.0002 -0.0478
29346SOL     OW97005   2.237   7.485   2.748  0.2259  0.2571 -0.0984
29346SOL    HW197006   2.153   7.443   2.729  0.6279 -0.5729 -0.1118
29346SOL    HW297007   2.262   7.449   2.834  0.1624  1.1558  0.3057
29347SOL     OW97008   3.069   4.560   6.254  0.4103  0.3450  0.0982
29347SOL    HW197009   3.039   4.644   6.221  1.7974  0.3905 -1.1510
29347SOL    HW297010   3.154   4.579   6.295  0.2386 -0.2779  0.7822
29348SOL     OW97011  10.185   6.753  10.150 -0.8546 -0.2489  0.8662
29348SOL    HW197012  10.208   6.830  10.203  0.1202 -1.8759  2.9267
29348SOL    HW297013  10.268   6.727  10.109 -1.0743 -0.5178  0.5921
29349SOL     OW97014   0.822   0.697   5.125 -0.0499  0.1145  0.2091
29349SOL    HW197015   0.745   0.674   5.178 -1.8685  0.0464 -2.2642
29349SOL    HW297016   0.790   0.765   5.065  2.3389  1.3521  0.2410
29350SOL     OW97017  11.814   0.666   5.009  0.2964 -0.1520 -0.7238
29350SOL    HW197018  11.780   0.753   5.031 -0.6771 -0.3300 -1.4248
29350SOL    HW297019  11.780   0.609   5.078  2.5765  0.2991  0.8750
29351SOL     OW97020   7.859   8.750   4.794 -0.0922  0.3982  0.2454
29351SOL    HW197021   7.877   8.699   4.873 -3.7674  0.0383  1.0271
29351SOL    HW297022   7.848   8.685   4.725  0.1677  0.5178  0.0870
29352SOL     OW97023   5.295   8.354   3.345  0.1939  0.2668 -0.1509
29352SOL    HW197024   5.277   8.391   3.432 -0.4223  0.0557 -0.1784
29352SOL    HW297025   5.337   8.270   3.363  0.5327  0.4511 -0.0696
29353SOL     OW97026   7.779  10.935   0.063 -0.1465 -0.2832 -0.3586
29353SOL    HW197027   7.745  10.859   0.017 -0.6755  1.1689 -2.5534
29353SOL    HW297028   7.821  10.988  -0.005  1.4544  0.7316  1.3144
29354SOL     OW97029   4.609  11.168   1.649  0.0441  0.1137  0.3061
29354SOL    HW197030   4.559  11.152   1.730 -0.0020 -0.9901  0.0714
29354SOL    HW297031   4.578  11.254   1.619  0.1825  0.6182  1.5440
29355SOL     OW97032   3.921  10.189   5.574  0.0396  0.1313  0.4544
29355SOL    HW197033   3.958  10.143   5.498  1.8235  2.3469 -0.1112
29355SOL    HW297034   3.993  10.242   5.607 -1.6896  1.9383  1.5200
29356SOL     OW97035   4.815  10.139   4.478  0.2945 -0.7208  0.3816
29356SOL    HW197036   4.795  10.203   4.546  0.2313 -0.2340 -0.0932
29356SOL    HW297037   4.909  10.147   4.464  0.3340 -0.9301  0.5153
29357SOL     OW97038   0.679   8.997  11.058 -0.0930  0.1461  0.2551
29357SOL    HW197039   0.598   8.983  11.108 -0.5697 -0.1351 -0.5642
29357SOL    HW297040   0.649   9.009  10.967  0.7191  1.0109  0.0857
29358SOL     OW97041   7.023   7.508  10.203 -0.7418  0.2605 -0.1704
29358SOL    HW197042   6.944   7.454  10.214 -1.2662  0.9965 -0.2322
29358SOL    HW297043   7.013   7.577  10.269  0.9358 -0.8702  1.3394
29359SOL     OW97044   7.583  12.039   9.166 -0.6155 -0.1010 -0.4719
29359SOL    HW197045   7.619  11.959   9.206 -1.6599 -0.1828  0.3541
29359SOL    HW297046   7.567  12.014   9.075  1.6625  0.0460 -0.9921
29360SOL     OW97047   1.926  12.325   7.167  0.3533  0.3622  0.3154
29360SOL    HW197048   1.940  12.259   7.099  0.8524  0.2948  0.4854
29360SOL    HW297049   1.839  12.362   7.146 -0.0422 -0.5163  0.3734
29361SOL     OW97050   4.451   5.371   1.293 -0.7388  0.1972 -0.3886
29361SOL    HW197051   4.356   5.354   1.295 -0.8051  0.5468 -0.5153
29361SOL    HW297052   4.472   5.398   1.382 -1.1901  2.3784 -0.8911
29362SOL     OW97053   1.007   2.254   1.463 -0.1044  0.2067 -0.1543
29362SOL    HW197054   0.917   2.277   1.485 -0.1440 -1.4714  1.7186
29362SOL    HW297055   1.008   2.158   1.466  1.9047  0.2124  0.5822
29363SOL     OW97056   2.419  11.596   0.475  0.1641  0.3340 -0.0118
29363SOL    HW197057   2.445  11.518   0.426 -0.1442 -1.3207  2.2910
29363SOL    HW297058   2.471  11.593   0.555  0.3780  2.7191  0.0146
29364SOL     OW97059   4.880   9.357   9.189 -0.0632  0.5294 -0.2757
29364SOL    HW197060   4.812   9.290   9.181  0.2844  0.2446 -0.9500
29364SOL    HW297061   4.906   9.354   9.281 -2.0551  1.7473  0.3905
29365SOL     OW97062   4.847   9.324   8.703  0.0120 -0.2720 -0.1283
29365SOL    HW197063   4.754   9.324   8.679  0.3631 -0.4950 -1.6306
29365SOL    HW297064   4.873   9.416   8.696 -0.0625 -0.2327  0.1211
29366SOL     OW97065   8.528   7.728   8.522  0.0883 -0.1445 -0.8017
29366SOL    HW197066   8.484   7.663   8.577  1.3190 -0.8969 -0.6633
29366SOL    HW297067   8.583   7.676   8.463  0.8473  0.7677 -0.9126
29367SOL     OW97068   1.422   7.074  11.473  0.0180  0.5312 -0.2619
29367SOL    HW197069   1.348   7.120  11.433  0.3750  1.6263  0.3001
29367SOL    HW297070   1.400   7.071  11.566 -0.5646 -1.5349 -0.4224
29368SOL     OW97071   3.375   1.756   0.363  0.2090  0.2584  0.1822
29368SOL    HW197072   3.407   1.671   0.396  1.7947 -0.1199 -2.0260
29368SOL    HW297073   3.440   1.781   0.297 -1.1047  2.4223 -0.3865
29369SOL     OW97074  10.181   0.068  11.486  0.2003  0.5237  0.2090
29369SOL    HW197075  10.223   0.141  11.439 -0.6044  0.1746 -1.0884
29369SOL    HW297076  10.100   0.106  11.520  0.8338  0.8085  1.4862
29370SOL     OW97077   2.892   1.395   1.997  0.2907  0.4824  0.8057
29370SOL    HW197078   2.954   1.384   1.925  0.6492 -1.3831  1.3288
29370SOL    HW297079   2.928   1.465   2.050  1.1775  0.4158  0.3091
29371SOL     OW97080   7.998  11.499  11.230 -0.6222  0.6048 -0.5794
29371SOL    HW197081   7.925  11.480  11.288  1.4267 -1.6209  1.5188
29371SOL    HW297082   8.013  11.593  11.240 -0.8162  0.4239  2.0173
29372SOL     OW97083   5.958   5.217   2.499 -0.1477  0.0969 -0.4010
29372SOL    HW197084   5.970   5.143   2.557 -2.1329  0.1354  0.1315
29372SOL    HW297085   5.908   5.182   2.425  0.1459  0.6012 -0.8474
29373SOL     OW97086   7.445  12.430  11.603 -0.2088 -0.0419  0.8789
29373SOL    HW197087   7.428  12.515  11.563 -0.5646 -0.5994 -0.1862
29373SOL    HW297088   7.517  12.446  11.664 -0.3533  1.0405  0.7858
29374SOL     OW97089  12.511  10.978   9.834 -0.7856 -0.2172 -0.0583
29374SOL    HW197090  12.528  11.062   9.792  0.0940  0.5849  1.8095
29374SOL    HW297091  12.423  10.985   9.869 -0.3486  0.3571  0.9798
29375SOL     OW97092   5.640   7.894  12.173  0.0688  0.0867 -0.3491
29375SOL    HW197093   5.661   7.812  12.129 -0.1337  1.1886 -2.6745
29375SOL    HW297094   5.703   7.899  12.245 -1.0983 -2.9000  1.0258
29376SOL     OW97095  12.199  10.368   7.893  0.2344  0.1748 -0.1456
29376SOL    HW197096  12.259  10.420   7.839 -0.6678  0.5415 -0.8330
29376SOL    HW297097  12.168  10.429   7.959 -0.3848  0.3638 -0.6017
29377SOL     OW97098   5.362   6.612  11.513 -1.0598 -0.1839 -0.0766
29377SOL    HW197099   5.454   6.593  11.491 -1.0209 -2.4888  1.7185
29377SOL    HW297100   5.315   6.597  11.431 -0.1405 -1.9560 -0.3505
29378SOL     OW97101  10.517   5.937   6.201 -0.0704 -0.3433 -0.0997
29378SOL    HW197102  10.496   6.030   6.206 -1.7418 -0.6728 -0.3949
29378SOL    HW297103  10.514   5.916   6.107 -2.3462 -1.1974  0.0892
29379SOL     OW97104   4.511   3.910   6.106 -0.0626 -0.2733  0.6481
29379SOL    HW197105   4.441   3.850   6.130 -0.0657 -0.6426 -0.2270
29379SOL    HW297106   4.544   3.876   6.022 -1.9796  2.4823 -1.4088
29380SOL     OW97107   5.817   7.618   6.964  0.4738 -0.3706 -0.1989
29380SOL    HW197108   5.730   7.654   6.948  0.5552  0.2072  0.5768
29380SOL    HW297109   5.803   7.524   6.974  0.1653 -0.4834 -1.6185
29381SOL     OW97110   8.003  11.449   5.566 -0.5533 -0.3125  0.0620
29381SOL    HW197111   8.087  11.471   5.525 -0.4697 -0.1865  0.2993
29381SOL    HW297112   7.944  11.432   5.492 -0.8998  1.7211 -0.1689
29382SOL     OW97113   0.037   7.642   9.880  0.3620  0.1053 -0.1206
29382SOL    HW197114   0.017   7.728   9.918 -2.6100 -0.2729 -0.5598
29382SOL    HW297115  -0.018   7.581   9.929  1.4768 -1.3636 -0.6579
29383SOL     OW97116   1.979   2.279   2.435  0.3316 -0.2902 -0.3012
29383SOL    HW197117   2.066   2.319   2.431  0.2936  0.2816  2.5978
29383SOL    HW297118   1.918   2.352   2.421  0.3200 -0.0592  0.8411
29384SOL     OW97119  10.836   6.470  11.343 -0.4667  0.2996  0.0603
29384SOL    HW197120  10.879   6.548  11.377 -1.1076  1.4953 -1.7390
29384SOL    HW297121  10.765   6.453  11.404  0.1294  0.6720  0.8727
29385SOL     OW97122   7.489  12.338   9.778 -0.1502 -0.1881  0.4698
29385SOL    HW197123   7.397  12.334   9.803  0.2362 -0.2636  1.9902
29385SOL    HW297124   7.532  12.382   9.851  0.6230  2.5972 -1.4709
29386SOL     OW97125  11.720   4.134   0.051  1.0683 -0.0518  0.3326
29386SOL    HW197126  11.748   4.057   0.002 -1.0577 -0.9440  0.3938
29386SOL    HW297127  11.762   4.125   0.137  0.9719 -1.0698  0.2863
29387SOL     OW97128   7.157  11.663   5.893 -0.2225  0.2992 -0.1795
29387SOL    HW197129   7.240  11.615   5.893 -0.2299  0.2855 -0.0640
29387SOL    HW297130   7.182  11.755   5.885 -0.1272  0.4074  1.1949
29388SOL     OW97131   5.638   9.701   6.273 -0.0412 -0.0469  0.2990
29388SOL    HW197132   5.628   9.621   6.221 -5.2934 -0.0656  0.7226
29388SOL    HW297133   5.633   9.772   6.209 -0.2063 -0.0626  0.2945
29389SOL     OW97134   1.414  12.397   2.186  0.2643 -0.0343  0.3417
29389SOL    HW197135   1.434  12.468   2.248 -0.5461 -0.1022  0.6916
29389SOL    HW297136   1.487  12.399   2.124 -0.7412  2.5341 -0.9462
29390SOL     OW97137   7.989   8.447   7.095  0.5071  0.2094 -0.8695
29390SOL    HW197138   8.029   8.436   7.008  3.7445  0.6943  0.4247
29390SOL    HW297139   8.060   8.479   7.150 -1.2184 -0.8448  2.1896
29391SOL     OW97140   4.970   6.311   9.265 -0.1437 -0.0776  0.6179
29391SOL    HW197141   4.984   6.356   9.348  1.6132 -1.9326  1.4186
29391SOL    HW297142   5.052   6.264   9.249 -1.2545 -1.6247 -1.0031
29392SOL     OW97143   4.934  11.194   2.115  0.0463 -0.0661  0.8051
29392SOL    HW197144   4.951  11.159   2.028  0.4656  1.0204  0.4326
29392SOL    HW297145   4.994  11.146   2.172  0.7182  0.1496  0.2858
29393SOL     OW97146   7.289   1.505   0.049 -0.4854 -0.3808  0.3751
29393SOL    HW197147   7.201   1.494   0.012 -0.3340  0.6472 -0.3354
29393SOL    HW297148   7.341   1.435   0.010 -0.3783  0.5603 -1.2824
29394SOL     OW97149   2.405  12.352   5.812 -0.2395 -0.0590  0.2359
29394SOL    HW197150   2.427  12.413   5.882 -0.1697 -1.1443  1.1731
29394SOL    HW297151   2.484  12.346   5.759  0.5336 -1.0908  1.4616
29395SOL     OW97152   3.943   7.140   5.804 -0.5487 -0.5931  0.0667
29395SOL    HW197153   3.958   7.069   5.867  0.8831  0.2230  0.6986
29395SOL    HW297154   3.863   7.182   5.833  0.4882  0.2365  1.8334
29396SOL     OW97155   8.177   1.596   5.685  0.3638 -0.0697  0.0394
29396SOL    HW197156   8.144   1.674   5.730 -1.6128 -0.6476 -0.3220
29396SOL    HW297157   8.121   1.588   5.608  0.1401 -2.1728  0.3714
29397SOL     OW97158   9.077   1.978   7.920  0.1788 -0.1237 -0.2475
29397SOL    HW197159   9.017   1.951   7.990 -0.2215  0.2117 -0.4599
29397SOL    HW297160   9.114   2.061   7.950 -0.8552  0.6115 -0.9287
29398SOL     OW97161   2.235  11.653  11.357 -0.9981 -0.2100  0.2369
29398SOL    HW197162   2.198  11.567  11.376 -0.3852 -0.2889  1.0715
29398SOL    HW297163   2.206  11.708  11.429 -0.9897  0.1773 -0.0509
29399SOL     OW97164   5.210  11.652   4.834  0.2103  0.6602 -0.1662
29399SOL    HW197165   5.183  11.723   4.892 -1.0628 -0.0908  0.1987
29399SOL    HW297166   5.241  11.696   4.755  0.1610  1.6322  0.3398
29400SOL     OW97167   7.812  10.237  11.432  0.3049  0.7908 -0.1693
29400SOL    HW197168   7.877  10.267  11.368 -0.6505 -0.1511 -1.6444
29400SOL    HW297169   7.856  10.164  11.476  0.6229  0.8240 -0.4230
29401SOL     OW97170  11.771   8.730   2.276  0.2200 -0.7035  0.1166
29401SOL    HW197171  11.863   8.732   2.302  0.5796 -0.4407 -1.1120
29401SOL    HW297172  11.768   8.666   2.205 -0.4817 -0.4911 -0.0508
29402SOL     OW97173   1.087   4.175  10.433 -0.0672  0.2744 -0.0042
29402SOL    HW197174   1.061   4.112  10.500  0.3931  0.4752  0.3682
29402SOL    HW297175   1.085   4.260  10.478 -0.7780  0.5460 -0.5231
29403SOL     OW97176   7.468   8.930   4.327  0.5064  0.1248  0.5505
29403SOL    HW197177   7.473   9.003   4.389 -0.1739  0.6646 -0.0135
29403SOL    HW297178   7.547   8.939   4.274 -0.1631  1.1962 -0.3046
29404SOL     OW97179   0.048   8.600  11.141 -0.0767  0.4752  0.1049
29404SOL    HW197180  -0.041   8.572  11.160  1.0682 -2.6477  1.4476
29404SOL    HW297181   0.061   8.678  11.195 -0.9462 -1.0404  2.6776
29405SOL     OW97182   6.094   0.506   0.191 -0.6164 -0.2789  0.1408
29405SOL    HW197183   6.083   0.472   0.280  1.9236  0.5733  0.8658
29405SOL    HW297184   6.017   0.561   0.177 -2.1185 -2.0496  0.9501
29406SOL     OW97185   7.373   3.635   3.870  0.0125  0.3135  0.5149
29406SOL    HW197186   7.355   3.556   3.921 -0.7460  0.3214  0.2709
29406SOL    HW297187   7.287   3.673   3.853  0.2569  0.4155 -0.6044
29407SOL     OW97188   5.423   5.456   1.513 -0.6389  0.0216 -0.7463
29407SOL    HW197189   5.412   5.549   1.534 -1.0659 -0.3152  0.6048
29407SOL    HW297190   5.348   5.413   1.555  1.4167 -1.3527  1.7679
29408SOL     OW97191   4.398   3.247  12.395 -0.2450  0.3876 -0.1473
29408SOL    HW197192   4.373   3.287  12.478  0.7238  0.0013  0.3490
29408SOL    HW297193   4.417   3.320  12.337 -1.6688  0.6750 -0.2900
29409SOL     OW97194   0.729   1.397  11.426 -0.3005 -0.3142 -0.1527
29409SOL    HW197195   0.770   1.321  11.386 -0.0075 -1.0543  1.4710
29409SOL    HW297196   0.799   1.442  11.473 -0.8630 -0.2679  0.6834
29410SOL     OW97197   6.986   4.154   4.295  0.4941 -0.3438  0.6565
29410SOL    HW197198   7.055   4.088   4.291  1.9049  0.9763  1.9647
29410SOL    HW297199   6.959   4.155   4.387 -0.8512 -0.3764  0.2892
29411SOL     OW97200   6.733   4.119   4.943  0.0156 -0.7279  1.1564
29411SOL    HW197201   6.702   4.204   4.973 -1.1101 -1.4970  2.2882
29411SOL    HW297202   6.779   4.082   5.018 -0.6278 -1.6342  1.1275
29412SOL     OW97203   4.188  11.631   9.848  0.4604  0.4345  0.0275
29412SOL    HW197204   4.107  11.583   9.865  0.9960 -0.1007  1.2708
29412SOL    HW297205   4.214  11.605   9.760 -0.9462  0.9830 -0.5739
29413SOL     OW97206  12.445   5.521   9.131 -0.1818 -0.6113 -0.2042
29413SOL    HW197207  12.353   5.495   9.139 -0.3147 -0.6392 -1.5259
29413SOL    HW297208  12.493   5.455   9.180 -0.8998 -0.2372  1.0530
29414SOL     OW97209   2.176   5.257   0.122 -0.0217 -0.1948  0.3463
29414SOL    HW197210   2.114   5.330   0.132 -0.8719 -0.5733 -1.6234
29414SOL    HW297211   2.258   5.299   0.096  0.0824  0.1790  1.2199
29415SOL     OW97212   8.561  12.295   4.239 -0.0113 -0.1345  0.6682
29415SOL    HW197213   8.582  12.387   4.255  0.2839  0.1197 -1.0465
29415SOL    HW297214   8.466  12.293   4.234  0.0093  0.2192  0.0004
29416SOL     OW97215  11.321   5.900   5.144 -0.5354 -0.0130 -0.3872
29416SOL    HW197216  11.328   5.987   5.105 -0.7244  0.2727  0.2069
29416SOL    HW297217  11.407   5.861   5.129  0.0805  0.8620  0.7160
29417SOL     OW97218   9.494  12.213   4.832 -0.4817  0.4366 -0.1381
29417SOL    HW197219   9.451  12.209   4.917 -0.0016 -1.3972  0.0637
29417SOL    HW297220   9.577  12.258   4.849 -0.8515  1.0208  0.1398
29418SOL     OW97221   3.179  11.551   9.734  0.3051 -0.3229  0.0269
29418SOL    HW197222   3.118  11.479   9.725 -1.2155  0.8226  0.7136
29418SOL    HW297223   3.134  11.626   9.695  1.7966  0.3066 -0.5861
29419SOL     OW97224   0.867  10.174   4.693 -0.2871 -0.3483  0.1584
29419SOL    HW197225   0.804  10.230   4.739  0.5821  0.7494  0.0378
29419SOL    HW297226   0.813  10.106   4.653 -1.0813 -1.6842  3.1797
29420SOL     OW97227   2.645   8.172   0.911  0.1509 -0.2962  0.0962
29420SOL    HW197228   2.648   8.177   0.815 -1.2852 -0.7855 -0.0021
29420SOL    HW297229   2.679   8.256   0.941 -2.3967  1.1978 -0.9258
29421SOL     OW97230  11.954   7.157   9.382 -0.1278  0.0411 -0.4418
29421SOL    HW197231  11.958   7.251   9.399 -1.8004 -0.1030  1.0761
29421SOL    HW297232  12.025   7.120   9.435 -0.6042  0.3043  0.4023
29422SOL     OW97233   3.517   8.039  12.543  0.1289 -0.3452 -0.2171
29422SOL    HW197234   3.608   8.031  12.570  0.4155  3.6601  0.6304
29422SOL    HW297235   3.470   8.060  12.624 -0.9230  0.9153 -1.1103
29423SOL     OW97236   3.302   1.118   5.687  0.6221  0.7236  0.0746
29423SOL    HW197237   3.281   1.183   5.754  0.2384  0.0018  0.6603
29423SOL    HW297238   3.365   1.163   5.630 -2.1322  2.8340 -1.5435
29424SOL     OW97239   7.100   4.095   8.201  0.1596  0.7982 -0.4738
29424SOL    HW197240   7.083   4.188   8.188  0.8861  0.9879 -0.1031
29424SOL    HW297241   7.195   4.086   8.190 -0.0446 -0.0948 -1.6844
29425SOL     OW97242  11.018   6.880   8.109 -0.2189  0.1861 -0.7634
29425SOL    HW197243  10.952   6.946   8.130  0.1235  0.1079  0.6566
29425SOL    HW297244  10.973   6.796   8.120  0.6010  0.0286  2.4546
29426SOL     OW97245   5.446  12.374   8.511 -0.9511 -0.8524  0.2853
29426SOL    HW197246   5.433  12.442   8.446 -2.2652  0.5619  1.9440
29426SOL    HW297247   5.531  12.335   8.489 -0.0871  1.4135 -0.6234
29427SOL     OW97248   3.687   1.037   2.559 -0.5262  0.5156  0.3805
29427SOL    HW197249   3.777   1.007   2.571 -1.2045 -1.0306  2.2504
29427SOL    HW297250   3.692   1.133   2.563  1.1380  0.4850 -0.5861
29428SOL     OW97251   5.386   1.778   4.059  0.0836  0.2854  0.5731
29428SOL    HW197252   5.448   1.814   3.996  1.1463 -1.8998  0.2875
29428SOL    HW297253   5.348   1.702   4.015  0.4775 -0.9995  2.3649
29429SOL     OW97254   7.860  11.965   1.693 -0.1116 -0.1313 -0.0152
29429SOL    HW197255   7.886  12.057   1.698 -0.1856 -0.0590 -0.8073
29429SOL    HW297256   7.942  11.919   1.673 -0.4434  0.0295 -1.9119
29430SOL     OW97257   2.074   3.612   7.022  0.1403 -0.0306  0.1157
29430SOL    HW197258   1.996   3.663   7.045 -0.6446  0.4566 -3.1826
29430SOL    HW297259   2.141   3.677   7.002  1.4344 -0.4519  2.6211
29431SOL     OW97260   4.956   0.728  10.510  0.1093  1.0055  0.3027
29431SOL    HW197261   4.876   0.685  10.542 -0.8839  1.8095 -1.0196
29431SOL    HW297262   5.027   0.682  10.555 -1.1501  1.8243  3.3878
29432SOL     OW97263  10.710   8.905   4.599 -0.7370 -0.3621  0.0573
29432SOL    HW197264  10.649   8.850   4.648 -1.1725  0.0719  0.0155
29432SOL    HW297265  10.716   8.985   4.651 -2.2993  0.6814 -1.2716
29433SOL     OW97266   6.852   0.048   6.051 -0.4414 -0.5849  0.1054
29433SOL    HW197267   6.770   0.071   6.094 -0.5433 -0.4112 -0.1769
29433SOL    HW297268   6.824   0.012   5.966 -0.1911  0.3199 -0.3745
29434SOL     OW97269   3.354   3.453  12.278 -0.7288  0.1117  0.0901
29434SOL    HW197270   3.318   3.393  12.344  1.2350 -1.3195 -0.0455
29434SOL    HW297271   3.291   3.525  12.274 -1.5688 -0.3862  2.5753
29435SOL     OW97272  11.561  11.708   9.051  0.0344  0.1415  0.2564
29435SOL    HW197273  11.538  11.630   9.001  1.4404 -0.0176 -0.1772
29435SOL    HW297274  11.585  11.675   9.138 -0.2950  0.2011  0.3729
29436SOL     OW97275  12.073  10.228  10.357  0.5868  0.7866  0.0334
29436SOL    HW197276  11.983  10.207  10.381  0.6887 -0.1388 -0.3343
29436SOL    HW297277  12.119  10.235  10.441 -0.0998  2.6887  0.2881
29437SOL     OW97278  10.712  12.124   3.838  0.1325 -0.3298  0.4237
29437SOL    HW197279  10.712  12.029   3.849 -0.6371 -0.5332 -1.0413
29437SOL    HW297280  10.626  12.152   3.867  0.7921  0.1153  2.0495
29438SOL     OW97281   1.347   7.584   1.619 -0.1302 -0.3506  0.3728
29438SOL    HW197282   1.272   7.587   1.561 -0.0457  3.0306  0.2550
29438SOL    HW297283   1.423   7.578   1.561 -0.0665  2.6770 -0.0304
29439SOL     OW97284   7.888   7.748  10.540  0.1721 -0.0180 -0.1315
29439SOL    HW197285   7.793   7.762  10.541 -0.1736 -2.0237 -0.8942
29439SOL    HW297286   7.903   7.687  10.467  1.8531 -0.9818  0.9552
29440SOL     OW97287   0.169  11.989   9.713  0.4352 -0.5832 -0.0243
29440SOL    HW197288   0.222  11.932   9.768 -0.5493 -2.0701 -0.5451
29440SOL    HW297289   0.091  12.006   9.766  1.7326  2.3559  1.1219
29441SOL     OW97290  11.559   4.970   5.011 -0.0788  0.3485  0.2371
29441SOL    HW197291  11.542   4.969   5.105  2.2430 -1.7876  0.7310
29441SOL    HW297292  11.557   4.878   4.985  0.2347  0.8314 -1.6355
29442SOL     OW97293   3.226   2.367  12.049 -0.2679 -0.2646 -0.2048
29442SOL    HW197294   3.180   2.291  12.084  0.3286 -0.9911 -0.9543
29442SOL    HW297295   3.157   2.431  12.030 -0.6914 -0.2540  1.2655
29443SOL     OW97296   4.234   3.483   7.707  0.1703 -0.4936 -0.1142
29443SOL    HW197297   4.222   3.402   7.757 -0.4750 -1.4572 -1.7664
29443SOL    HW297298   4.329   3.494   7.701  0.3268 -2.1779 -1.4569
29444SOL     OW97299   4.631   1.057   9.299  0.6863  0.3267  0.1958
29444SOL    HW197300   4.551   1.098   9.265  0.4415 -0.9414 -0.8406
29444SOL    HW297301   4.606   1.027   9.387  0.1331  0.2810  0.0308
29445SOL     OW97302   1.104   3.237   2.580 -0.1096 -0.3288  0.1949
29445SOL    HW197303   1.150   3.179   2.519 -0.0781 -1.1266  0.9408
29445SOL    HW297304   1.161   3.238   2.658  0.6514  1.9090 -0.3066
29446SOL     OW97305   9.692   6.409  11.104 -0.1546  0.2964  0.2738
29446SOL    HW197306   9.612   6.389  11.055  0.5249 -2.5444  0.1546
29446SOL    HW297307   9.714   6.327  11.148  1.7837  1.4842  1.6713
29447SOL     OW97308   0.333   0.277   6.028  0.0565 -0.7215  0.0162
29447SOL    HW197309   0.255   0.231   5.999 -0.6368  0.0217  0.6765
29447SOL    HW297310   0.302   0.363   6.055  1.1668 -0.2576 -0.1285
29448SOL     OW97311  11.426   3.393   0.662 -0.1495 -0.2603  0.5227
29448SOL    HW197312  11.412   3.375   0.755 -0.5097  2.1512  0.9940
29448SOL    HW297313  11.457   3.309   0.626  0.1406 -1.2196  2.8160
29449SOL     OW97314   6.636   3.932   0.632 -0.2521  0.0106 -0.3573
29449SOL    HW197315   6.580   3.895   0.699  0.5105  2.1172  1.5827
29449SOL    HW297316   6.578   3.950   0.558 -1.3250 -1.3242  0.1290
29450SOL     OW97317   2.517   0.083   6.596 -0.3494  0.4094  0.3839
29450SOL    HW197318   2.456   0.109   6.665  0.3877  1.5183  0.6420
29450SOL    HW297319   2.569   0.012   6.634 -0.7594  0.1861  0.5309
29451SOL     OW97320   1.471  10.737  10.309  0.0321 -0.0545  0.3119
29451SOL    HW197321   1.376  10.749  10.304  0.2610  1.8397 -0.0351
29451SOL    HW297322   1.490  10.738  10.403  0.0245  2.8874  0.3724
29452SOL     OW97323   4.359   9.920   9.150  0.1029 -0.1784 -0.3560
29452SOL    HW197324   4.342   9.880   9.236 -0.0870 -0.6793 -0.6225
29452SOL    HW297325   4.277   9.962   9.126  0.1541 -0.0438 -0.2998
29453SOL     OW97326  11.068   3.492   2.991  0.3827 -0.2980 -0.6394
29453SOL    HW197327  11.096   3.545   3.066  0.0307 -0.3787 -0.4487
29453SOL    HW297328  11.005   3.548   2.944 -1.3931 -1.1907  0.5642
29454SOL     OW97329   8.316   0.390  10.460 -0.3089 -0.0551  0.5508
29454SOL    HW197330   8.285   0.434  10.380  2.2286 -0.1527 -0.5871
29454SOL    HW297331   8.271   0.306  10.460  0.7817 -0.7298 -1.7394
29455SOL     OW97332   4.447   6.921   5.495 -0.0116  0.1065 -0.0671
29455SOL    HW197333   4.368   6.867   5.483  0.1589  0.2558 -2.2927
29455SOL    HW297334   4.518   6.866   5.462  1.0204 -0.3249  2.6032
29456SOL     OW97335  11.169  12.256   8.207  0.2179  0.5487 -0.3361
29456SOL    HW197336  11.162  12.341   8.249 -1.1902  0.3774 -0.1703
29456SOL    HW297337  11.223  12.272   8.130  1.2750  1.2497  0.5187
29457SOL     OW97338   2.064   5.524   6.905 -0.1964  0.1090  0.1009
29457SOL    HW197339   2.062   5.604   6.853 -1.0447 -0.2325 -0.4255
29457SOL    HW297340   2.026   5.549   6.989 -0.8543  0.1745 -0.2078
29458SOL     OW97341   1.296  12.383   0.334  0.0921  0.4433  0.4847
29458SOL    HW197342   1.253  12.299   0.349  1.4368 -0.7179 -1.5935
29458SOL    HW297343   1.269  12.407   0.245  2.1562  0.6241 -0.1288
29459SOL     OW97344   3.256  12.376   1.035  0.3501 -0.1190  0.6300
29459SOL    HW197345   3.161  12.383   1.025  0.2413  0.3984  1.7859
29459SOL    HW297346   3.269  12.300   1.092  0.7288 -1.0650 -0.6850
29460SOL     OW97347   7.280   6.541   8.752 -0.2236 -0.0141 -0.5707
29460SOL    HW197348   7.196   6.573   8.719  1.3425  2.2456 -2.6481
29460SOL    HW297349   7.312   6.612   8.809  0.6011 -0.5603 -0.3362
29461SOL     OW97350  11.669   3.625   5.474  0.8594 -0.2052  0.6136
29461SOL    HW197351  11.701   3.654   5.560 -1.8705  1.3439  1.2312
29461SOL    HW297352  11.676   3.702   5.418  1.5055 -0.8671 -0.2471
29462SOL     OW97353   3.852   5.485   9.203  0.3113  0.0739 -0.5079
29462SOL    HW197354   3.891   5.572   9.214 -0.6150  0.3368  1.0183
29462SOL    HW297355   3.760   5.503   9.184  0.4157 -0.5768 -1.7324
29463SOL     OW97356   6.696   0.769   1.176  0.6434 -0.1784 -0.1848
29463SOL    HW197357   6.628   0.814   1.225 -0.5115 -1.0387 -0.9447
29463SOL    HW297358   6.720   0.829   1.105  0.4264 -0.0109 -0.1137
29464SOL     OW97359   4.093   0.461  10.318 -0.2034 -0.1490 -0.2370
29464SOL    HW197360   4.133   0.377  10.341  0.3756  0.4482  1.0174
29464SOL    HW297361   4.160   0.526  10.338 -0.3565  0.5881 -1.9166
29465SOL     OW97362   5.945   2.896   0.024 -0.6387  0.1403 -0.7273
29465SOL    HW197363   6.033   2.933   0.017 -0.5398 -0.1032 -0.7835
29465SOL    HW297364   5.929   2.890   0.118 -0.9327  0.9767 -0.7162
29466SOL     OW97365   8.355   6.216   1.061  0.3948  1.0095  0.2262
29466SOL    HW197366   8.367   6.208   0.966 -2.0753  0.9432 -0.1400
29466SOL    HW297367   8.364   6.309   1.079  0.0111  1.1359 -0.2182
29467SOL     OW97368  12.052   5.012   7.088  0.0617 -0.2066  0.5010
29467SOL    HW197369  12.131   5.012   7.033  1.0902  0.3392  1.9169
29467SOL    HW297370  12.083   4.983   7.174 -1.3799 -0.3684  0.9852
29468SOL     OW97371   3.475   7.739   4.144 -0.1773  0.1178 -0.1654
29468SOL    HW197372   3.559   7.696   4.128  1.1854  1.7420  2.0217
29468SOL    HW297373   3.469   7.807   4.077  0.5979  0.4126  0.0534
29469SOL     OW97374  11.255   5.377   4.185  0.2350 -0.0648 -0.1287
29469SOL    HW197375  11.256   5.286   4.214  0.1547  0.3035  1.0742
29469SOL    HW297376  11.172   5.387   4.140  0.0920 -0.4999  0.0350
29470SOL     OW97377   5.896  10.693   8.355 -0.1058 -0.0864  0.0736
29470SOL    HW197378   5.803  10.673   8.360 -0.1177 -0.3380 -0.8839
29470SOL    HW297379   5.910  10.716   8.263  0.6778  0.4619  0.3192
29471SOL     OW97380   1.031   4.536   5.897 -0.1072 -0.2297 -0.0517
29471SOL    HW197381   1.093   4.463   5.893  1.2823  0.9409 -1.5060
29471SOL    HW297382   0.958   4.508   5.842  0.6269 -0.3831 -0.9876
29472SOL     OW97383   3.121   3.971   4.743  0.3542  0.2496  0.1051
29472SOL    HW197384   3.197   4.028   4.752 -2.3018  3.9208  2.1437
29472SOL    HW297385   3.098   3.946   4.832 -0.7332 -0.9546 -0.4719
29473SOL     OW97386   3.110   1.038   0.777 -0.1312 -0.1279 -0.1606
29473SOL    HW197387   3.029   0.993   0.797  0.0658 -0.5494 -0.2925
29473SOL    HW297388   3.085   1.129   0.763 -0.7780 -0.4796 -1.4639
29474SOL     OW97389   1.264  10.521   7.704  0.0171 -0.2345  0.2341
29474SOL    HW197390   1.295  10.582   7.637 -3.3904  0.5105 -0.8408
29474SOL    HW297391   1.226  10.577   7.771 -2.7835 -1.0400 -0.5683
29475SOL     OW97392  11.948   5.835   8.857  0.2669  0.1020 -0.6839
29475SOL    HW197393  11.974   5.787   8.935  0.4107  0.6320 -0.3974
29475SOL    HW297394  11.865   5.878   8.882 -0.4378 -0.8614 -1.2929
29476SOL     OW97395   8.167   2.809   4.694  0.1044  0.2960 -0.3613
29476SOL    HW197396   8.170   2.733   4.753  2.0706 -0.2213 -1.0824
29476SOL    HW297397   8.220   2.875   4.738  1.3381  0.0082 -1.3868
29477SOL     OW97398   0.878   7.435   8.960 -0.6217 -0.0118  0.1304
29477SOL    HW197399   0.894   7.454   8.868  0.3898 -2.3281 -0.2411
29477SOL    HW297400   0.795   7.388   8.961 -2.3710  2.8514  0.8666
29478SOL     OW97401   4.463   3.690  10.602 -0.1865  0.1966 -0.3337
29478SOL    HW197402   4.475   3.784  10.595  0.9727  0.1227  0.3964
29478SOL    HW297403   4.400   3.668  10.533 -1.0324  1.5943 -0.0440
29479SOL     OW97404   1.661   3.172   8.168  0.4629  0.7664 -0.0263
29479SOL    HW197405   1.728   3.103   8.176 -0.4834  0.0061  2.1117
29479SOL    HW297406   1.690   3.240   8.228 -0.5406  0.5466  0.7143
29480SOL     OW97407  10.184   6.334   0.385 -0.3074  0.2172  0.2728
29480SOL    HW197408  10.117   6.299   0.326 -0.6917 -0.0947  0.8901
29480SOL    HW297409  10.163   6.297   0.471  0.1479  0.7987  0.6447
29481SOL     OW97410  11.047   0.244  11.510  0.9265  0.0066 -0.4238
29481SOL    HW197411  11.129   0.194  11.509  1.3891  0.7348  0.3038
29481SOL    HW297412  10.983   0.184  11.548  1.4445 -0.0845  0.3203
29482SOL     OW97413   0.353   8.330   2.137  0.0412 -0.3044  0.1128
29482SOL    HW197414   0.325   8.240   2.121 -1.1499  0.5206 -3.1331
29482SOL    HW297415   0.272   8.376   2.159  0.6628  0.0306  1.8613
29483SOL     OW97416   7.176  12.515   5.519  0.6491 -0.3582  0.0225
29483SOL    HW197417   7.183  12.604   5.484 -0.2788 -0.2232  0.1640
29483SOL    HW297418   7.211  12.522   5.608 -0.7188  0.1984  0.5512
29484SOL     OW97419  11.529   9.328   2.780 -0.3782 -0.1846  0.0520
29484SOL    HW197420  11.612   9.375   2.793 -1.5053  2.0691 -0.3309
29484SOL    HW297421  11.537   9.291   2.692 -0.0663  0.7474 -0.3339
29485SOL     OW97422   4.720   2.787   1.241  0.0178 -0.6667 -0.0320
29485SOL    HW197423   4.741   2.829   1.158  0.4741  1.4317  1.0865
29485SOL    HW297424   4.745   2.695   1.228  2.2736  0.0641 -1.4595
29486SOL     OW97425   1.935   0.059   1.624 -0.0080  0.0336 -0.0170
29486SOL    HW197426   1.922   0.027   1.535 -0.2101  0.1438 -0.0276
29486SOL    HW297427   2.027   0.088   1.626 -0.4502  1.5873 -0.6904
29487SOL     OW97428   9.223   9.431   2.980 -0.1327  0.6339 -0.0390
29487SOL    HW197429   9.253   9.522   2.981  1.7470  0.0746  1.7761
29487SOL    HW297430   9.161   9.426   3.053 -0.5167  0.5391 -0.3717
29488SOL     OW97431   0.631  11.164   2.845 -0.0573 -0.1261  0.0790
29488SOL    HW197432   0.582  11.183   2.925 -0.7476 -1.2312 -0.0713
29488SOL    HW297433   0.619  11.071   2.830 -0.5545  0.1963 -1.7201
29489SOL     OW97434   2.354   3.482   0.109 -0.6517 -0.4603 -0.0329
29489SOL    HW197435   2.282   3.422   0.128 -0.9763  0.4576  1.8829
29489SOL    HW297436   2.398   3.444   0.033 -3.3869 -0.8320 -1.5503
29490SOL     OW97437  12.292   7.914   4.535 -0.3728  0.2105  0.4655
29490SOL    HW197438  12.316   7.825   4.510 -0.8568 -0.0786  1.0079
29490SOL    HW297439  12.238   7.903   4.613 -1.3403  0.9060 -0.0802
29491SOL     OW97440   0.722   1.691   9.657  0.4974  0.4184 -0.1982
29491SOL    HW197441   0.775   1.620   9.622  0.0228  0.7277 -1.6192
29491SOL    HW297442   0.770   1.722   9.734  2.5648  0.8765 -1.5956
29492SOL     OW97443   9.291   2.805   7.587 -0.6795  0.0065 -0.2862
29492SOL    HW197444   9.364   2.823   7.529 -1.1540 -1.3386 -1.3350
29492SOL    HW297445   9.228   2.756   7.534 -2.7039  1.7393  0.3388
29493SOL     OW97446   0.417   2.951   0.169 -0.1102 -0.4638  0.7685
29493SOL    HW197447   0.501   2.949   0.215  0.1727  0.1105  0.2847
29493SOL    HW297448   0.421   3.029   0.115 -1.0000 -0.3813  0.8066
29494SOL     OW97449   9.031   1.172  11.657  0.0580  0.1706 -0.1032
29494SOL    HW197450   9.059   1.246  11.604 -0.9542  0.5734 -0.0931
29494SOL    HW297451   9.085   1.176  11.736  0.1237  0.7955 -0.1792
29495SOL     OW97452  11.369  10.835   1.089  0.4618 -0.0641 -0.1679
29495SOL    HW197453  11.331  10.767   1.034  0.9510  0.7201 -1.5029
29495SOL    HW297454  11.407  10.787   1.163 -1.5308 -1.0044  0.3164
29496SOL     OW97455   1.351  10.023   0.299  0.3975 -0.0949  0.0786
29496SOL    HW197456   1.269  10.012   0.348  0.3278 -2.6878 -0.4524
29496SOL    HW297457   1.415   9.974   0.350  1.0568 -0.1156 -0.7617
29497SOL     OW97458   2.400   1.415  10.322  0.5058  0.0489  0.0448
29497SOL    HW197459   2.328   1.354  10.331  0.1456  0.4383 -0.1758
29497SOL    HW297460   2.430   1.404  10.231  1.7308 -1.2129  0.5633
29498SOL     OW97461   1.718   6.116   1.787  0.3636  0.2603 -0.4722
29498SOL    HW197462   1.698   6.154   1.873 -0.5221 -2.1678  0.4774
29498SOL    HW297463   1.634   6.116   1.741  0.7594  1.2021 -1.2107
29499SOL     OW97464  10.668   9.892   5.898 -0.0849  0.7530 -0.2804
29499SOL    HW197465  10.660   9.911   5.805 -1.0188  1.6392 -0.0384
29499SOL    HW297466  10.760   9.909   5.918  0.4350 -0.6577 -1.2748
29500SOL     OW97467   5.561   7.294  11.392  1.2248 -0.2672  0.4805
29500SOL    HW197468   5.507   7.223  11.428  1.4324 -0.5580  0.2292
29500SOL    HW297469   5.523   7.374  11.428 -0.7353 -0.2740 -1.3192
29501SOL     OW97470   5.052   4.456   7.791 -0.3112  0.3139 -0.2221
29501SOL    HW197471   5.041   4.468   7.697 -2.0016 -0.4365 -0.1589
29501SOL    HW297472   5.030   4.541   7.829 -0.8641  0.2752 -0.4454
29502SOL     OW97473  11.819   9.396   8.137 -0.4594  0.1114 -0.2068
29502SOL    HW197474  11.819   9.327   8.204 -0.7199  1.3399  1.1124
29502SOL    HW297475  11.903   9.386   8.092  0.0926 -0.2485  0.8598
29503SOL     OW97476   7.981   6.510   6.723  0.5514 -0.2814  0.2510
29503SOL    HW197477   8.006   6.508   6.630  0.6793  2.8679  0.0985
29503SOL    HW297478   7.886   6.511   6.722  0.5542  0.0062  0.1274
29504SOL     OW97479   9.264   2.173   6.143  0.2218  0.2416  0.9242
29504SOL    HW197480   9.345   2.208   6.105 -0.8331  2.7066  0.7417
29504SOL    HW297481   9.230   2.244   6.196 -3.1414  0.3400 -1.0645
29505SOL     OW97482   4.896   6.507  12.150 -0.6828 -0.0702 -0.1417
29505SOL    HW197483   4.965   6.528  12.212 -1.5163  1.0438  0.4261
29505SOL    HW297484   4.934   6.529  12.064 -0.6201  1.3255  0.2299
29506SOL     OW97485   2.305   0.344   7.418 -0.0388 -0.1899 -0.2141
29506SOL    HW197486   2.294   0.288   7.342 -1.0444  0.1657 -0.3418
29506SOL    HW297487   2.346   0.423   7.384 -1.4497  0.4037 -0.5949
29507SOL     OW97488   3.417   0.554   8.188  0.1686  0.4409 -0.0224
29507SOL    HW197489   3.439   0.484   8.249  2.2931  0.1021 -1.0796
29507SOL    HW297490   3.456   0.633   8.226  1.3858  0.2518 -0.8222
29508SOL     OW97491   0.017  12.299   2.361  0.3624 -0.2382 -0.1895
29508SOL    HW197492   0.094  12.269   2.410 -1.7549 -0.6205  3.2426
29508SOL    HW297493  -0.007  12.224   2.307  0.9103 -1.0731  0.6858
29509SOL     OW97494  11.306   5.655   4.376  0.4531 -0.1829  0.5586
29509SOL    HW197495  11.377   5.637   4.438  1.4905  2.4318  0.2325
29509SOL    HW297496  11.336   5.615   4.294  1.6964  1.0809  0.3671
29510SOL     OW97497   7.266  12.087   6.325  0.0293 -0.4484  0.0135
29510SOL    HW197498   7.250  12.165   6.274  0.9688 -0.6835 -0.6761
29510SOL    HW297499   7.218  12.100   6.407 -0.2366  0.6088 -0.3106
29511SOL     OW97500   0.396   1.387   3.912  0.2108 -0.1154 -0.2536
29511SOL    HW197501   0.426   1.374   3.823 -0.2097 -1.3595 -0.2327
29511SOL    HW297502   0.353   1.304   3.935  0.9030 -0.0696  1.3275
29512SOL     OW97503   1.620   1.129   6.140  0.6035  0.2964 -0.3380
29512SOL    HW197504   1.643   1.083   6.060 -0.1227 -1.8742  0.6210
29512SOL    HW297505   1.569   1.066   6.190  0.3779  1.8458  1.5141
29513SOL     OW97506  10.087   7.902   1.823 -0.4021 -0.2650 -0.4395
29513SOL    HW197507  10.098   7.997   1.827 -0.1383 -0.2471  3.7553
29513SOL    HW297508  10.159   7.871   1.769 -0.9111  1.8786 -2.5090
29514SOL     OW97509   3.873  11.163   0.458 -0.4895  0.2050  0.2179
29514SOL    HW197510   3.871  11.070   0.481 -1.0874  0.9589  3.8984
29514SOL    HW297511   3.785  11.195   0.478  0.6621  2.1820  2.6066
29515SOL     OW97512   0.509   7.385   4.843  0.1431  0.1558 -0.2443
29515SOL    HW197513   0.444   7.410   4.778  0.0747  1.5145  0.3068
29515SOL    HW297514   0.593   7.389   4.797 -0.1088 -1.2499 -0.8615
29516SOL     OW97515   0.125   9.387   1.680  0.0067  0.2093  0.0809
29516SOL    HW197516   0.078   9.356   1.602  1.4214 -1.5809 -0.1296
29516SOL    HW297517   0.098   9.327   1.749  1.8200 -0.7959 -0.0259
29517SOL     OW97518   0.036   2.619  10.316 -0.0828  0.2279 -0.2242
29517SOL    HW197519   0.059   2.595  10.406 -0.5789 -0.4558 -0.2666
29517SOL    HW297520   0.096   2.568  10.262 -0.0552  0.3254 -0.2840
29518SOL     OW97521   3.626  11.743   3.323  0.0628  0.1274 -0.4128
29518SOL    HW197522   3.564  11.816   3.331 -0.6334 -0.3681 -1.1842
29518SOL    HW297523   3.616  11.694   3.404 -0.4111  0.1655 -0.4451
29519SOL     OW97524  12.398   2.039  10.505 -0.3012 -0.4171  0.3159
29519SOL    HW197525  12.483   2.016  10.542 -0.0855  0.4183  0.3497
29519SOL    HW297526  12.387   2.132  10.525 -3.1077 -1.3352  4.1331
29520SOL     OW97527   6.416  12.380   1.835  0.5926  0.3064  0.3737
29520SOL    HW197528   6.332  12.416   1.804  0.2534  0.0811  1.0169
29520SOL    HW297529   6.462  12.355   1.755 -0.1493  0.0034  0.0288
29521SOL     OW97530   8.163   7.731  11.235  1.4074 -0.2611 -0.3345
29521SOL    HW197531   8.085   7.690  11.271  2.6198 -1.2261  1.3700
29521SOL    HW297532   8.183   7.802  11.297  0.7702  1.3380 -1.8733
29522SOL     OW97533   2.064   1.348   7.718  0.5123  0.2562 -0.1943
29522SOL    HW197534   1.982   1.374   7.676  0.5962  0.3030 -0.3298
29522SOL    HW297535   2.055   1.377   7.808 -0.6346 -1.8818  0.4478
29523SOL     OW97536   8.839  11.540   7.745  0.2894 -0.4265  0.6777
29523SOL    HW197537   8.764  11.592   7.716 -0.7181 -1.4735  1.3069
29523SOL    HW297538   8.899  11.540   7.670 -1.0230 -0.8097 -0.4137
29524SOL     OW97539   2.201   5.957   8.162  0.1535 -0.0071  0.5559
29524SOL    HW197540   2.184   5.981   8.253  0.4827  0.1482  0.5786
29524SOL    HW297541   2.242   5.871   8.167 -0.1321 -0.1446  0.5347
29525SOL     OW97542   8.590   7.900   0.838 -0.3339  0.6337  0.8360
29525SOL    HW197543   8.558   7.858   0.918 -2.5510  0.0144 -0.2791
29525SOL    HW297544   8.576   7.993   0.853 -0.3947  0.5470  1.3260
29526SOL     OW97545   9.359   0.779   5.019  0.4303  0.7839  0.5454
29526SOL    HW197546   9.410   0.711   4.975 -2.7879 -2.3274  1.1117
29526SOL    HW297547   9.281   0.789   4.964 -1.4313  0.3262  2.9134
29527SOL     OW97548   5.503  12.020  10.976 -0.7476  0.1607  0.1665
29527SOL    HW197549   5.502  12.108  11.013 -1.0628  0.1088  0.2790
29527SOL    HW297550   5.509  12.033  10.882 -0.6188  0.3004  0.1947
29528SOL     OW97551  10.451   5.657  11.842  0.5024  0.1082 -0.0019
29528SOL    HW197552  10.456   5.568  11.807  0.7909  0.4181 -0.7749
29528SOL    HW297553  10.450   5.646  11.937  1.1611 -0.6866 -0.0786
29529SOL     OW97554  10.609   0.182   8.933  0.4034  0.5511  0.1998
29529SOL    HW197555  10.607   0.151   9.024 -1.3868 -0.0264 -0.0011
29529SOL    HW297556  10.559   0.264   8.935  1.7872  1.4495 -0.0024
29530SOL     OW97557  10.334   1.608   8.878 -0.0228  0.2129 -0.5463
29530SOL    HW197558  10.347   1.588   8.785  1.7902  1.9756 -0.7436
29530SOL    HW297559  10.417   1.646   8.906 -1.4467  2.3681  1.0566
29531SOL     OW97560   1.762   6.996   0.264  0.2513 -0.0077  0.0453
29531SOL    HW197561   1.690   6.949   0.306 -1.2256  1.0611 -1.1350
29531SOL    HW297562   1.827   7.008   0.333 -1.5668  0.6975  1.7382
29532SOL     OW97563   2.688  12.144  12.280 -0.5143 -0.2317 -0.3405
29532SOL    HW197564   2.647  12.217  12.328 -0.7677 -1.6129  1.6362
29532SOL    HW297565   2.682  12.070  12.339  0.9893 -1.5591 -1.7624
29533SOL     OW97566   0.160   0.783   5.707  0.0595  0.1408  1.0555
29533SOL    HW197567   0.248   0.812   5.683  0.4446 -0.7719  1.3355
29533SOL    HW297568   0.112   0.778   5.624  0.8445 -1.2189  0.6517
29534SOL     OW97569   6.189   8.827   3.995  0.7394 -0.1930 -0.2382
29534SOL    HW197570   6.108   8.810   4.043 -0.4336  0.2245 -1.9810
29534SOL    HW297571   6.246   8.753   4.018 -0.1739 -0.5823  0.8915
29535SOL     OW97572   6.878  10.171   6.924  0.2663 -0.0170 -0.2996
29535SOL    HW197573   6.874  10.079   6.898  0.8788  0.0211 -0.5405
29535SOL    HW297574   6.938  10.212   6.861  0.1320  0.5105 -0.0920
29536SOL     OW97575  10.996   0.600   4.940  0.1655 -0.7450  0.3229
29536SOL    HW197576  10.957   0.611   4.854  1.5164 -2.0892 -0.5000
29536SOL    HW297577  10.980   0.508   4.963  1.0895 -0.7918  0.8401
29537SOL     OW97578  10.646  10.913  12.295 -0.1353  0.0106 -0.4799
29537SOL    HW197579  10.659  10.837  12.238  1.0098  0.1123 -0.3895
29537SOL    HW297580  10.643  10.876  12.384  0.0047  0.0262 -0.4678
29538SOL     OW97581   7.560  10.026  11.267  0.0550  0.0566  0.0693
29538SOL    HW197582   7.633  10.027  11.328  0.3159 -0.1396 -0.2346
29538SOL    HW297583   7.597   9.990  11.186 -0.1546  0.7909 -0.3649
29539SOL     OW97584   6.551   6.113  11.846 -0.2428  0.2395 -0.1209
29539SOL    HW197585   6.487   6.060  11.893  0.6162 -0.9550 -0.2513
29539SOL    HW297586   6.498   6.168  11.788 -1.1931  0.0621  0.5462
29540SOL     OW97587   4.310   6.566   2.017 -0.4001 -0.1166 -0.1931
29540SOL    HW197588   4.289   6.602   2.103 -2.2858  1.4078 -1.1926
29540SOL    HW297589   4.382   6.619   1.985 -0.1107 -0.2782  0.1887
29541SOL     OW97590  12.220   3.859   7.181 -0.3506  0.2250 -0.0505
29541SOL    HW197591  12.308   3.826   7.167 -0.0326  1.0436 -0.0358
29541SOL    HW297592  12.175   3.789   7.229  1.1044  0.8724  2.4703
29542SOL     OW97593   3.646   2.628   7.775 -0.0486  0.0817 -0.1642
29542SOL    HW197594   3.594   2.699   7.736 -0.0160  1.9965  2.9280
29542SOL    HW297595   3.581   2.563   7.800 -0.3241  0.0073 -1.0107
29543SOL     OW97596   9.915  10.776   2.502  0.3084  0.1757  0.2778
29543SOL    HW197597   9.878  10.836   2.567  2.1301  0.7748  0.8124
29543SOL    HW297598   9.981  10.726   2.550  1.3265  0.2744 -0.9741
29544SOL     OW97599   5.719   4.581   5.971  0.1868 -0.5223  0.4403
29544SOL    HW197600   5.760   4.510   5.921  0.1311 -0.2618  0.0215
29544SOL    HW297601   5.688   4.642   5.904 -0.0498 -0.2607  0.7902
29545SOL     OW97602   1.834   3.530   4.089  0.6017  0.0658  0.3423
29545SOL    HW197603   1.826   3.621   4.119 -1.6614  0.7048 -1.8188
29545SOL    HW297604   1.789   3.479   4.156 -0.2581  0.8591  0.3895
29546SOL     OW97605   7.404   9.909  11.647 -0.6510  0.4116  0.6542
29546SOL    HW197606   7.478   9.969  11.660 -0.1414 -0.2253  0.7582
29546SOL    HW297607   7.424   9.834  11.704 -2.1541  0.8921  1.8821
29547SOL     OW97608   1.687   8.885   9.692 -0.4086 -0.1080 -0.4248
29547SOL    HW197609   1.606   8.865   9.739  0.5086  1.4210  1.9889
29547SOL    HW297610   1.751   8.823   9.726  0.7124  2.1203  1.9486
29548SOL     OW97611  10.606   1.724  12.023 -0.6201  0.4281 -0.0291
29548SOL    HW197612  10.523   1.752  11.984 -0.2885 -0.7944 -1.7112
29548SOL    HW297613  10.598   1.629  12.029  1.0112  0.1993 -1.0994
29549SOL     OW97614   0.044   5.640  10.184 -0.0116 -0.6349  0.2011
29549SOL    HW197615   0.049   5.545  10.175 -0.1948 -0.6730  0.4931
29549SOL    HW297616   0.082   5.658  10.270 -0.7447 -0.5257  0.5118
29550SOL     OW97617   9.655  11.417   0.716  0.2074 -0.1692 -0.7056
29550SOL    HW197618   9.731  11.360   0.700  0.8225  0.5164 -0.2857
29550SOL    HW297619   9.637  11.405   0.809  1.0132  1.1137 -0.3628
29551SOL     OW97620   4.371   8.202   3.681 -0.4556  0.1959  0.3051
29551SOL    HW197621   4.331   8.193   3.594 -0.2435 -1.4587  0.3518
29551SOL    HW297622   4.416   8.119   3.695  0.4543  0.8756  1.5426
29552SOL     OW97623   2.359   6.320  11.451 -0.5512 -0.1170 -0.2822
29552SOL    HW197624   2.328   6.279  11.532  0.2375  0.2390  0.2207
29552SOL    HW297625   2.307   6.400  11.443  0.9094  1.0526  1.1546
29553SOL     OW97626  11.263   4.171   9.411 -0.2284  0.1412  0.3410
29553SOL    HW197627  11.243   4.258   9.446  0.2304  0.1019  0.7015
29553SOL    HW297628  11.358   4.169   9.404 -0.1895 -0.5702  0.9451
29554SOL     OW97629   1.813  10.050   8.454  0.1516  0.2787  0.0749
29554SOL    HW197630   1.861   9.974   8.487  0.5856  0.3470 -0.3871
29554SOL    HW297631   1.722  10.033   8.478  0.3785  0.0588  0.7974
29555SOL     OW97632   2.644   5.306   2.809 -0.3727  0.2710  0.7291
29555SOL    HW197633   2.569   5.262   2.770 -0.4690  0.3097  0.8680
29555SOL    HW297634   2.649   5.390   2.763  0.7995 -0.5246 -0.6761
29556SOL     OW97635   8.010  10.586  12.554 -0.3264  0.4844 -0.0132
29556SOL    HW197636   8.070  10.642  12.504  0.8227  0.1175  0.9190
29556SOL    HW297637   8.062  10.554  12.627 -2.2099  1.7681  2.0085
29557SOL     OW97638  11.292   6.040   9.428  0.0885  0.1662 -0.3438
29557SOL    HW197639  11.363   5.975   9.430 -0.3856 -0.3408  1.6368
29557SOL    HW297640  11.331   6.120   9.462  0.1627  0.4187 -0.9947
29558SOL     OW97641   0.108   2.540  12.594 -0.4625  0.4695 -0.0668
29558SOL    HW197642   0.129   2.609  12.531  0.0432  0.1437 -0.2562
29558SOL    HW297643   0.145   2.571  12.676  1.0216 -0.2070 -0.4439
29559SOL     OW97644   9.413   6.421  12.201 -0.1822 -0.2372 -0.9511
29559SOL    HW197645   9.381   6.463  12.280 -0.0094 -2.0985  0.1845
29559SOL    HW297646   9.336   6.379  12.163 -0.3257  0.9110 -1.9764
29560SOL     OW97647   1.996  10.052   7.060  0.4692 -0.2059 -0.3155
29560SOL    HW197648   2.070   9.998   7.091  2.0467  0.8727 -1.9890
29560SOL    HW297649   1.994  10.037   6.966 -1.5327 -0.2235 -0.3015
29561SOL     OW97650   7.767   3.601   9.999 -0.2016  0.0090 -0.0550
29561SOL    HW197651   7.732   3.688   9.979 -1.3554 -0.6836 -1.2300
29561SOL    HW297652   7.764   3.555   9.915 -0.4365 -1.4408  0.7236
29562SOL     OW97653  10.895   2.019   8.684 -0.4708 -0.0425 -0.5077
29562SOL    HW197654  10.918   2.061   8.601  2.1413  0.5293  0.3923
29562SOL    HW297655  10.954   1.944   8.690  0.2419  0.6113  1.3221
29563SOL     OW97656   8.347   8.911   3.994  0.1780 -0.2783  0.2583
29563SOL    HW197657   8.338   8.999   4.029  2.3897 -0.0203  0.3573
29563SOL    HW297658   8.408   8.920   3.921 -0.8283 -1.4911 -0.7783
29564SOL     OW97659  11.267   9.853   7.226 -0.0136  0.1176 -0.2870
29564SOL    HW197660  11.257   9.869   7.132  1.0543 -0.0107 -0.4331
29564SOL    HW297661  11.340   9.909   7.253  0.7905 -1.0654  0.1164
29565SOL     OW97662   3.034   9.441   6.879  0.1088  0.1217  0.0480
29565SOL    HW197663   2.957   9.497   6.893 -1.5636 -1.9007 -0.4343
29565SOL    HW297664   3.020   9.367   6.938  2.2425  0.1712  0.6688
29566SOL     OW97665   4.321   6.982   7.863  0.0219 -0.3391  0.2377
29566SOL    HW197666   4.303   7.059   7.808 -1.1976  0.3239  1.5151
29566SOL    HW297667   4.358   7.018   7.943  2.3532 -1.3408 -0.3169
29567SOL     OW97668   9.516   8.878   3.433 -0.1983 -0.0638 -0.1172
29567SOL    HW197669   9.450   8.904   3.369 -0.0264 -0.7091 -0.5641
29567SOL    HW297670   9.501   8.785   3.446  0.4947 -0.1724 -0.0729
29568SOL     OW97671   6.673   5.361   1.878  0.5432 -0.0706  0.0253
29568SOL    HW197672   6.702   5.450   1.862 -1.1371  0.6706  0.9034
29568SOL    HW297673   6.726   5.307   1.819  1.1386  1.5543 -0.9739
29569SOL     OW97674   0.277   6.290   6.178  0.3444 -0.5651  0.5276
29569SOL    HW197675   0.351   6.347   6.157  0.0658  0.7829  2.8212
29569SOL    HW297676   0.293   6.210   6.128  2.6292  0.1848 -0.0772
29570SOL     OW97677   0.520   2.377   1.912 -0.3879  0.6633  0.8653
29570SOL    HW197678   0.607   2.382   1.873 -0.6726  1.2743  0.2865
29570SOL    HW297679   0.460   2.388   1.838 -0.9496  0.9717  1.3581
29571SOL     OW97680   7.975   1.996  12.083 -0.1792 -0.5382  0.1605
29571SOL    HW197681   7.947   2.088  12.077 -0.4439 -0.5929  0.5188
29571SOL    HW297682   8.029   1.983  12.006 -0.8803 -0.3359 -0.3724
29572SOL     OW97683   3.938   0.422  10.119  0.0937  0.2624  0.2482
29572SOL    HW197684   4.011   0.447  10.174 -0.0939  0.3986  0.4362
29572SOL    HW297685   3.898   0.505  10.092 -1.0062  0.1721  1.5071
29573SOL     OW97686   8.607  11.959   1.349  0.7770 -0.4289 -0.1682
29573SOL    HW197687   8.540  12.019   1.381  0.8953  0.1857 -1.0319
29573SOL    HW297688   8.680  11.968   1.411  1.2410  1.1916 -0.8985
29574SOL     OW97689  11.004   9.930   4.171  0.0420 -0.0671  0.4191
29574SOL    HW197690  10.976   9.839   4.154  1.8736 -0.8483  1.3410
29574SOL    HW297691  11.041   9.959   4.088 -2.2761  0.5725 -0.4674
29575SOL     OW97692   9.923   6.708   3.063 -0.0009  0.5569 -0.5811
29575SOL    HW197693   9.935   6.776   3.128 -1.5870  0.6362 -0.3117
29575SOL    HW297694   9.898   6.630   3.114  5.5317 -1.5332 -0.4534
29576SOL     OW97695   2.809   1.128   2.472  0.5015 -0.1258  0.0389
29576SOL    HW197696   2.721   1.135   2.509  0.6480 -0.7498  0.5235
29576SOL    HW297697   2.866   1.112   2.548  1.1266  0.9220 -0.1912
29577SOL     OW97698   1.234   4.393   4.673 -0.0800 -0.5485 -0.1067
29577SOL    HW197699   1.142   4.420   4.666 -0.1782 -0.3251  1.6147
29577SOL    HW297700   1.233   4.300   4.650 -0.5619 -0.3077 -1.1091
29578SOL     OW97701   1.019   9.303   1.558  0.0241  0.4698  0.1871
29578SOL    HW197702   0.942   9.310   1.615 -0.2470  0.0286 -0.1113
29578SOL    HW297703   1.049   9.393   1.547 -0.2884  0.6194  0.5321
29579SOL     OW97704  11.749   1.530  11.448  0.2869 -0.3277 -0.4820
29579SOL    HW197705  11.667   1.481  11.449 -1.0486  1.7273 -1.7709
29579SOL    HW297706  11.778   1.529  11.539  0.5794 -3.7539 -0.5022
29580SOL     OW97707   6.732   6.009   9.005 -0.2690 -0.1937  0.0494
29580SOL    HW197708   6.694   6.001   9.092  0.0668 -0.2630  0.1934
29580SOL    HW297709   6.798   6.077   9.014  0.5519 -0.9793  0.1363
29581SOL     OW97710   3.767   0.972   1.195  0.1204  0.6297  0.4934
29581SOL    HW197711   3.676   0.963   1.223 -0.0487 -0.0034 -0.2477
29581SOL    HW297712   3.816   0.914   1.253  0.4855  3.0759  2.8265
29582SOL     OW97713   3.288   4.787   3.353 -0.6072 -0.2884 -0.4051
29582SOL    HW197714   3.276   4.707   3.404 -1.1992 -0.5586 -0.9646
29582SOL    HW297715   3.382   4.804   3.357 -0.6813 -0.1029  1.0719
29583SOL     OW97716   0.093  11.728   5.725  0.4643 -0.2651 -0.5147
29583SOL    HW197717   0.071  11.803   5.670  0.0014  0.3057  0.4376
29583SOL    HW297718   0.051  11.654   5.681  2.9259 -0.4511 -2.8213
29584SOL     OW97719  11.510  11.024   7.172 -0.0285  0.7188 -0.3888
29584SOL    HW197720  11.530  11.058   7.259  1.2569  0.3538 -0.5123
29584SOL    HW297721  11.554  10.939   7.170  0.3282  0.9183 -1.5350
29585SOL     OW97722   9.411   0.827   7.976 -0.4154 -0.3901 -0.4487
29585SOL    HW197723   9.414   0.914   8.016  1.3838  0.2210 -1.7909
29585SOL    HW297724   9.466   0.773   8.033 -0.5922 -0.3632 -0.2500
29586SOL     OW97725   7.641   0.683   1.419 -0.1394 -0.0861  0.1791
29586SOL    HW197726   7.656   0.746   1.490 -0.7237 -0.8243  0.9736
29586SOL    HW297727   7.728   0.649   1.398  0.0606  0.2795  0.4051
29587SOL     OW97728  11.414   7.505   8.429  0.4560  0.3013  0.0036
29587SOL    HW197729  11.366   7.578   8.469  2.3156  0.0925  2.8809
29587SOL    HW297730  11.490   7.546   8.387 -0.0948  0.2636 -1.0557
29588SOL     OW97731   9.728   3.454   4.750  0.0971  0.4645 -0.2639
29588SOL    HW197732   9.727   3.532   4.806 -0.5959  1.2476 -1.3370
29588SOL    HW297733   9.737   3.381   4.811  0.7437  1.3770  0.7635
29589SOL     OW97734   4.553  10.399   9.942 -0.2616 -0.1220 -0.1755
29589SOL    HW197735   4.492  10.375   9.872  0.6424  0.1492 -1.0885
29589SOL    HW297736   4.561  10.494   9.935  2.0791 -0.3447 -1.6896
29590SOL     OW97737   0.214   8.718   7.696  0.4344  0.4675  0.4099
29590SOL    HW197738   0.119   8.722   7.691  0.2037 -1.5470  1.7975
29590SOL    HW297739   0.233   8.720   7.790  1.6314 -0.8754  0.2248
29591SOL     OW97740   8.908   0.865   7.988  0.2320  0.5039 -0.4674
29591SOL    HW197741   8.844   0.885   7.919  1.7283  1.3409 -1.6767
29591SOL    HW297742   8.888   0.775   8.014 -1.5521  0.8033 -0.6410
29592SOL     OW97743   0.313   2.608   2.030 -0.6037 -0.0304 -0.0550
29592SOL    HW197744   0.227   2.570   2.008 -0.6743 -0.7565  1.3320
29592SOL    HW297745   0.373   2.533   2.026 -0.3733  0.1014  0.7097
29593SOL     OW97746  10.789   9.028   1.655  0.1619 -0.0289 -0.2096
29593SOL    HW197747  10.773   8.954   1.596  1.5509 -0.6636  0.1670
29593SOL    HW297748  10.725   9.017   1.725  0.1822 -0.7292 -0.2917
29594SOL     OW97749   5.266   2.793   4.595  0.3812 -0.4278 -0.2685
29594SOL    HW197750   5.360   2.793   4.614  0.5183 -0.7259 -0.9304
29594SOL    HW297751   5.248   2.882   4.564  0.5440 -0.5144 -0.6142
29595SOL     OW97752   3.129   8.823   7.313  0.4887  0.3092 -0.1524
29595SOL    HW197753   3.105   8.844   7.222 -1.2993  1.1308  0.4653
29595SOL    HW297754   3.144   8.908   7.353  0.0226  0.0291  0.6327
29596SOL     OW97755  11.853   4.165   4.232  0.0202 -0.3905 -0.1254
29596SOL    HW197756  11.820   4.081   4.263 -1.3363  0.0454 -0.2989
29596SOL    HW297757  11.789   4.193   4.167  0.3050  0.8893  0.1094
29597SOL     OW97758   8.077   5.697   4.898 -0.7547 -0.1963 -0.2856
29597SOL    HW197759   8.067   5.602   4.888 -0.8958 -0.0514 -1.7221
29597SOL    HW297760   8.030   5.734   4.823  0.6913  0.9478 -0.6752
29598SOL     OW97761   1.829   1.650   2.166  0.5377 -0.5372  0.2792
29598SOL    HW197762   1.820   1.564   2.208 -1.2663 -0.3552  0.3463
29598SOL    HW297763   1.840   1.631   2.073 -0.5393 -0.8521  0.2026
29599SOL     OW97764   0.608   4.876   1.174  0.0534  0.0706 -0.8561
29599SOL    HW197765   0.694   4.873   1.132  0.8532  1.5125  0.5690
29599SOL    HW297766   0.585   4.785   1.188  0.5312 -0.3975 -2.8437
29600SOL     OW97767   9.773   0.209   2.129  0.3332  0.0008 -0.5177
29600SOL    HW197768   9.705   0.179   2.190 -0.1946 -0.5379 -1.3482
29600SOL    HW297769   9.724   0.251   2.058  0.9158  0.2872 -0.7522
29601SOL     OW97770  11.175   9.326   4.919 -0.2807  0.5648  0.1964
29601SOL    HW197771  11.127   9.304   4.839  0.5860 -2.0555  0.2904
29601SOL    HW297772  11.148   9.258   4.981  1.5018  0.6295  1.0914
29602SOL     OW97773  12.517   7.682  10.237  0.4053 -0.8801 -0.4958
29602SOL    HW197774  12.434   7.662  10.196  0.3015 -0.4466 -0.5029
29602SOL    HW297775  12.557   7.597  10.254  0.9901 -1.0857 -2.5662
29603SOL     OW97776   7.040   6.868   2.622  0.1966 -0.7604 -0.4786
29603SOL    HW197777   6.981   6.928   2.575  0.2930  0.1616  0.5513
29603SOL    HW297778   6.987   6.832   2.693  0.3192 -1.4507 -0.7259
29604SOL     OW97779   5.492   2.355   9.659  0.3837 -0.8017  0.3732
29604SOL    HW197780   5.419   2.330   9.715  0.7489 -1.6153  0.5024
29604SOL    HW297781   5.492   2.289   9.589  0.2004 -0.0522 -0.3470
29605SOL     OW97782   2.782   0.685   9.625  0.0257  0.2110  0.4295
29605SOL    HW197783   2.754   0.611   9.571 -0.4069  0.5834  0.1311
29605SOL    HW297784   2.801   0.754   9.561 -1.3360  0.9386  0.7771
29606SOL     OW97785  11.053   4.520   0.421  0.1634  0.2979  0.3786
29606SOL    HW197786  10.961   4.527   0.446  0.0959  1.7679 -0.1766
29606SOL    HW297787  11.052   4.483   0.333 -0.0074  1.5526 -0.1756
29607SOL     OW97788   5.397   6.283   1.508 -0.7243  0.3545 -0.4111
29607SOL    HW197789   5.428   6.285   1.599 -2.2993  2.9935  0.1819
29607SOL    HW297790   5.308   6.318   1.512 -0.9423  0.2716 -2.9627
29608SOL     OW97791   5.547   1.570   9.228 -0.3573  0.6176 -0.2359
29608SOL    HW197792   5.579   1.598   9.313 -1.0427  1.4474 -0.2365
29608SOL    HW297793   5.621   1.524   9.188  0.4914  1.6054  0.1644
29609SOL     OW97794   2.942   1.811   7.335 -0.1257  0.5407  0.1025
29609SOL    HW197795   2.977   1.813   7.246  0.3952  0.2712  0.3002
29609SOL    HW297796   2.847   1.813   7.323 -0.1081 -0.9408 -0.5249
29610SOL     OW97797   1.376  11.446  10.180  0.3663  0.6046 -0.0922
29610SOL    HW197798   1.332  11.529  10.200  1.2045  0.6676  1.7153
29610SOL    HW297799   1.312  11.379  10.204  0.7253  0.7208  1.3266
29611SOL     OW97800  11.626   7.915  11.677 -0.0642 -0.5376 -0.6098
29611SOL    HW197801  11.642   7.957  11.593  0.0867 -0.2504 -0.4376
29611SOL    HW297802  11.530   7.909  11.683 -0.2732  2.5586  0.7061
29612SOL     OW97803   3.376   9.232  11.570  0.0524 -0.1545 -0.4441
29612SOL    HW197804   3.350   9.240  11.662  0.3252  0.3104 -0.4055
29612SOL    HW297805   3.372   9.322  11.536 -0.7022 -0.4052 -1.0695
29613SOL     OW97806   1.171   2.014  12.355  0.7054  0.1715 -0.1719
29613SOL    HW197807   1.174   2.020  12.259 -1.1079  0.4269 -0.2527
29613SOL    HW297808   1.079   1.999  12.375  1.1468 -0.4995  1.5209
29614SOL     OW97809   1.530   7.873   0.070  1.1947  0.0139 -0.0401
29614SOL    HW197810   1.511   7.831  -0.014  0.0213  0.5243 -0.0507
29614SOL    HW297811   1.462   7.841   0.128  1.4322  0.4200  0.4644
29615SOL     OW97812  10.642   1.286  12.343  0.6671 -0.1708 -0.4149
29615SOL    HW197813  10.725   1.300  12.388 -0.2558 -1.0203  1.6909
29615SOL    HW297814  10.645   1.194  12.315  0.5966 -0.0882 -0.6973
29616SOL     OW97815   2.711   9.968   5.405  0.2098 -0.1339 -0.4224
29616SOL    HW197816   2.779  10.025   5.369 -0.1015  1.5609  1.5207
29616SOL    HW297817   2.760   9.895   5.444  1.0110  1.2686  1.3174
29617SOL     OW97818   7.955  12.549   0.601 -0.2054 -0.1253 -0.1392
29617SOL    HW197819   8.024  12.531   0.538 -0.7625 -1.4154 -0.4226
29617SOL    HW297820   7.990  12.519   0.684  0.4082  1.2894  0.1451
29618SOL     OW97821  10.285  10.391   3.227 -0.0195  0.8342 -0.1048
29618SOL    HW197822  10.248  10.323   3.284 -1.3740 -0.0451 -1.9253
29618SOL    HW297823  10.366  10.353   3.193  0.2828  0.9718  0.4471
29619SOL     OW97824   1.607   2.748   6.641 -0.4518 -0.7210 -0.2296
29619SOL    HW197825   1.600   2.656   6.619  2.0422 -1.4133  1.3962
29619SOL    HW297826   1.696   2.772   6.617 -0.6682  0.9452  0.4689
29620SOL     OW97827  11.888   8.525  10.823 -0.1559 -0.2232 -0.6751
29620SOL    HW197828  11.953   8.460  10.800  0.0555 -0.3248  0.1544
29620SOL    HW297829  11.939   8.603  10.846 -0.2499 -0.5282  0.7000
29621SOL     OW97830   1.272   9.156   6.116 -0.0070 -0.0015  0.2347
29621SOL    HW197831   1.340   9.140   6.182 -0.4763  0.9605  0.9701
29621SOL    HW297832   1.257   9.251   6.119  0.3519  0.1551 -1.6535
29622SOL     OW97833   6.769   9.779   5.480  1.1254  0.4899  0.5503
29622SOL    HW197834   6.855   9.738   5.474  1.0278  0.2339  0.8402
29622SOL    HW297835   6.710   9.707   5.505  0.6973  0.5062 -0.3830
29623SOL     OW97836   5.002   1.612  10.566 -0.3711 -0.0970  0.1469
29623SOL    HW197837   4.995   1.594  10.472  0.4903  1.6974 -0.3022
29623SOL    HW297838   5.050   1.537  10.601 -0.4731 -0.6646 -0.8881
29624SOL     OW97839   8.343   2.778   6.361 -0.5385  0.2157  0.3157
29624SOL    HW197840   8.406   2.739   6.421  0.6674  1.1530 -0.2802
29624SOL    HW297841   8.304   2.704   6.314  3.1932 -0.3776 -2.2957
29625SOL     OW97842   1.935   6.358   0.545  0.6346  0.5406 -0.1128
29625SOL    HW197843   2.000   6.382   0.611 -0.5408  1.9684  0.6018
29625SOL    HW297844   1.855   6.340   0.595  0.4880 -1.3432 -0.9538
29626SOL     OW97845   9.098   9.412   4.305  0.0359 -0.0503 -0.4286
29626SOL    HW197846   9.015   9.425   4.352  1.3530 -4.3044  3.7792
29626SOL    HW297847   9.080   9.340   4.245  0.5169 -0.6594  0.1463
29627SOL     OW97848   5.009   8.159   6.975 -0.1332  0.1050  0.4299
29627SOL    HW197849   4.936   8.105   7.006 -0.7146  0.5894 -0.0648
29627SOL    HW297850   4.968   8.241   6.947  0.5279  0.1667 -0.4065
29628SOL     OW97851   1.591   0.222   5.471 -0.5159 -0.1463  0.1729
29628SOL    HW197852   1.563   0.144   5.518  0.1685  0.8573  2.4011
29628SOL    HW297853   1.624   0.281   5.539  1.7929  0.9227 -1.6980
29629SOL     OW97854  12.518  10.868   4.167 -0.3684  0.4514  0.2874
29629SOL    HW197855  12.578  10.845   4.238  1.3343  3.3477 -0.0570
29629SOL    HW297856  12.555  10.827   4.089 -0.5799 -0.2955  0.5763
29630SOL     OW97857   3.800   8.331   4.378 -0.2899  0.4604 -0.5887
29630SOL    HW197858   3.871   8.351   4.317 -0.6699  1.9247 -0.5911
29630SOL    HW297859   3.810   8.238   4.398  1.2303  0.4959 -1.0930
29631SOL     OW97860  10.291   4.574   8.333  0.0401 -0.0880 -0.1384
29631SOL    HW197861  10.271   4.483   8.311  0.0061 -0.3461  0.9159
29631SOL    HW297862  10.206   4.611   8.360  0.0042  0.3380 -0.8030
29632SOL     OW97863   6.885   6.618   1.929  0.0396 -0.3082  0.3380
29632SOL    HW197864   6.956   6.643   1.989  0.0022 -0.3595  0.4040
29632SOL    HW297865   6.805   6.634   1.979  0.0059 -0.2895  0.2783
29633SOL     OW97866   8.881  11.731   8.583  0.0892 -0.7188  1.0667
29633SOL    HW197867   8.826  11.704   8.657  1.0589 -0.9623  1.7268
29633SOL    HW297868   8.821  11.739   8.509 -0.9229 -0.3646  1.9063
29634SOL     OW97869  10.705   8.899   7.066  0.1782  0.2869  0.1156
29634SOL    HW197870  10.756   8.941   6.997  1.2741  1.1171  1.3844
29634SOL    HW297871  10.693   8.967   7.132  1.0678 -1.0668  1.7463
29635SOL     OW97872  10.513   2.239   5.277 -0.4599  0.1096  0.0952
29635SOL    HW197873  10.513   2.272   5.367  2.1968 -0.0796  0.2607
29635SOL    HW297874  10.584   2.174   5.276  0.3617  0.9332 -2.4048
29636SOL     OW97875   6.209   5.368   3.395  0.5954 -0.3959  0.1740
29636SOL    HW197876   6.174   5.361   3.306 -1.5560  0.1341  0.9003
29636SOL    HW297877   6.229   5.278   3.420 -0.6731 -0.7947 -0.1720
29637SOL     OW97878  11.042   4.557   1.918 -0.0265 -0.0310  0.0928
29637SOL    HW197879  11.116   4.533   1.863  0.2306  0.2113  0.3344
29637SOL    HW297880  11.013   4.642   1.885 -0.6088 -0.4252 -0.4244
29638SOL     OW97881  10.233   9.928   5.536 -0.4238  0.3449  0.0934
29638SOL    HW197882  10.166   9.980   5.490 -0.6961 -0.7744 -0.8258
29638SOL    HW297883  10.250   9.855   5.477 -0.7944 -1.1815  1.8026
29639SOL     OW97884   3.179   3.453   8.821  0.0142 -0.0033 -0.7830
29639SOL    HW197885   3.136   3.390   8.764 -2.3157  1.8423 -1.2318
29639SOL    HW297886   3.188   3.532   8.767  1.3567  0.5700  0.2309
29640SOL     OW97887   9.567   2.681  10.854  0.2882  0.1807 -0.2159
29640SOL    HW197888   9.476   2.684  10.824  0.3310  1.3474 -0.2864
29640SOL    HW297889   9.563   2.714  10.944  0.5763 -0.2924 -0.0283
29641SOL     OW97890   9.140   1.176  11.901 -0.2484  0.2525 -0.2889
29641SOL    HW197891   9.234   1.181  11.913  0.0818 -0.8180 -2.0302
29641SOL    HW297892   9.113   1.096  11.947 -0.2839  0.4807  0.0863
29642SOL     OW97893   4.250   6.402  11.908 -0.4433  0.2984  0.4589
29642SOL    HW197894   4.305   6.380  11.832 -1.1657 -0.9580  0.2733
29642SOL    HW297895   4.313   6.423  11.977  0.2309  1.3721 -0.4311
29643SOL     OW97896  12.268  11.671   0.998 -0.9234 -0.4611 -0.2679
29643SOL    HW197897  12.357  11.642   1.019 -0.0182  1.3172 -1.2950
29643SOL    HW297898  12.270  11.686   0.903 -1.4822  2.0662  0.0407
29644SOL     OW97899   7.289   4.283   1.438 -0.3867 -0.3346 -0.4478
29644SOL    HW197900   7.353   4.214   1.424  0.3686  0.4237 -0.8272
29644SOL    HW297901   7.315   4.353   1.378 -0.3255  0.8237  0.8758
29645SOL     OW97902   0.047   5.407   2.521  0.2235 -0.7579  0.1401
29645SOL    HW197903   0.017   5.472   2.457  0.4012 -2.1850 -1.4412
29645SOL    HW297904   0.136   5.436   2.543 -0.0490  0.0712  0.2164
29646SOL     OW97905   0.800   8.320   8.581  0.3924 -0.5002 -0.8165
29646SOL    HW197906   0.729   8.290   8.639 -0.7902  0.8604 -1.4864
29646SOL    HW297907   0.792   8.416   8.583  2.0198 -0.3405 -1.1794
29647SOL     OW97908   7.518   3.672   0.985  0.2279 -0.1788  0.0989
29647SOL    HW197909   7.466   3.655   1.063 -0.5259  0.1278 -0.3275
29647SOL    HW297910   7.568   3.591   0.971 -0.5641 -0.6860  0.1863
29648SOL     OW97911   2.338  11.503   9.692 -0.0923  0.3605 -0.5939
29648SOL    HW197912   2.423  11.521   9.731  0.0275 -0.4336 -0.4681
29648SOL    HW297913   2.302  11.589   9.671 -0.9955  1.0202  3.0140
29649SOL     OW97914   9.525   1.953   4.225 -0.6791  0.1710  0.0626
29649SOL    HW197915   9.483   1.982   4.306  1.1619  1.7096  0.5572
29649SOL    HW297916   9.609   2.000   4.224  0.4340 -1.7083 -1.5096
29650SOL     OW97917   0.457  11.546   5.155  0.5052 -0.1454 -0.1987
29650SOL    HW197918   0.505  11.530   5.074  0.1407  0.5149 -0.5576
29650SOL    HW297919   0.502  11.493   5.221  1.5701  0.2668 -0.5730
29651SOL     OW97920   7.410   2.441  10.119 -0.0889  0.0394  0.5188
29651SOL    HW197921   7.477   2.448  10.051  1.1284  1.6261  1.7685
29651SOL    HW297922   7.327   2.457  10.074  0.6511  0.7912 -0.6352
29652SOL     OW97923   1.215   9.686   1.278 -0.4841  0.6013 -0.3685
29652SOL    HW197924   1.222   9.773   1.238 -0.9578  1.2000  0.7842
29652SOL    HW297925   1.305   9.656   1.287 -0.1752  1.8164  0.9465
29653SOL     OW97926   7.430   6.434  12.132 -0.0116  0.1311 -0.1696
29653SOL    HW197927   7.384   6.505  12.087 -0.7767 -0.4060 -0.2480
29653SOL    HW297928   7.364   6.396  12.190 -0.0303 -1.4495 -1.1679
29654SOL     OW97929   9.019   9.829   6.237  0.0994  0.3721  0.3624
29654SOL    HW197930   8.985   9.815   6.148 -0.0775  2.6832  0.0109
29654SOL    HW297931   9.104   9.871   6.225  0.3810  0.1072  1.3026
29655SOL     OW97932   4.407  10.465   4.717 -0.0251  0.2029 -0.5348
29655SOL    HW197933   4.465  10.512   4.657 -0.7127 -0.2939 -1.6252
29655SOL    HW297934   4.330  10.522   4.725  0.0566  0.2615 -0.1081
29656SOL     OW97935   5.150  10.817   5.211  0.0291 -0.4611 -0.2185
29656SOL    HW197936   5.131  10.899   5.165 -1.8117  0.2170  1.6087
29656SOL    HW297937   5.076  10.805   5.270  2.2462 -1.1762  2.6476
29657SOL     OW97938   7.040   2.238   0.092  0.2995 -0.0062  0.4517
29657SOL    HW197939   7.024   2.184   0.014  0.9640  1.1604 -0.5433
29657SOL    HW297940   7.125   2.208   0.124  0.6069  0.3456 -0.0225
29658SOL     OW97941   3.416   3.020  12.384  0.3970 -0.4659  0.2595
29658SOL    HW197942   3.367   3.098  12.411 -0.8265 -1.1933  0.2109
29658SOL    HW297943   3.353   2.949  12.391  0.8172 -1.1277 -1.8428
29659SOL     OW97944   0.839   9.665  10.890  0.2833  0.1013  0.3956
29659SOL    HW197945   0.894   9.740  10.913  1.7232 -0.4642 -1.0045
29659SOL    HW297946   0.783   9.698  10.819 -0.1246  0.2444  0.7780
29660SOL     OW97947   8.764   5.367   1.869 -0.0651  0.4604 -0.3098
29660SOL    HW197948   8.800   5.446   1.827  0.0491 -0.3594 -1.8033
29660SOL    HW297949   8.811   5.362   1.953 -0.4669  2.2630  0.0666
29661SOL     OW97950   3.969   5.135   8.857 -0.3087  0.3785  0.1531
29661SOL    HW197951   3.914   5.057   8.866  0.6571 -0.4693 -1.0645
29661SOL    HW297952   3.952   5.185   8.938  0.5254 -2.0070  1.9072
29662SOL     OW97953   9.048   3.945  11.942  0.6545  0.3812  0.7468
29662SOL    HW197954   9.046   3.992  12.025  0.3957  1.0077  0.3961
29662SOL    HW297955   9.089   3.861  11.962  1.5271  0.9322  1.2937
29663SOL     OW97956   7.172   4.072  11.634  0.3564  0.3966 -0.3680
29663SOL    HW197957   7.257   4.028  11.633 -0.6273 -1.6960  1.1862
29663SOL    HW297958   7.113   4.010  11.591 -0.9682  0.3647  1.3938
29664SOL     OW97959   7.797   9.375  10.657 -0.2048  0.4655 -0.4943
29664SOL    HW197960   7.743   9.320  10.714  1.2510  0.8055  1.3229
29664SOL    HW297961   7.798   9.461  10.701 -0.1509  1.1484 -1.7846
29665SOL     OW97962  11.365  11.206   1.934  0.0632  0.2725  0.2445
29665SOL    HW197963  11.301  11.135   1.933 -0.1435  0.4431  1.0272
29665SOL    HW297964  11.330  11.270   1.996  0.9610  0.3802  0.6668
29666SOL     OW97965   9.322   5.769   2.345 -0.2938 -0.2953 -0.2268
29666SOL    HW197966   9.356   5.826   2.276 -1.2019  0.1480 -0.3202
29666SOL    HW297967   9.295   5.829   2.415  2.5160 -0.8066  1.4645
29667SOL     OW97968  11.677   2.070  11.323 -0.4094 -0.2328  0.8566
29667SOL    HW197969  11.704   1.980  11.336 -1.8074 -0.5892  1.4342
29667SOL    HW297970  11.600   2.064  11.267 -0.1167  0.6641  0.3309
29668SOL     OW97971   7.050  11.301   2.368 -0.3182 -0.2537 -0.2956
29668SOL    HW197972   7.118  11.326   2.305  0.5475  0.5069  0.8943
29668SOL    HW297973   6.986  11.253   2.316  0.6639 -0.1788 -1.6360
29669SOL     OW97974   4.609   8.632   2.451 -0.7265 -0.1493  0.6017
29669SOL    HW197975   4.550   8.670   2.386  0.7872 -0.6145 -1.1318
29669SOL    HW297976   4.624   8.542   2.419  0.2949 -0.2828  1.4246
29670SOL     OW97977   8.337   3.771   5.733  0.2168  0.0079  0.5149
29670SOL    HW197978   8.419   3.788   5.780  0.6474  0.7369 -0.4394
29670SOL    HW297979   8.331   3.676   5.728  1.1988 -0.0589  0.3031
29671SOL     OW97980   2.607   4.730   5.675  0.3941 -0.1137 -0.4115
29671SOL    HW197981   2.620   4.824   5.684 -1.5237  0.1290  0.2281
29671SOL    HW297982   2.693   4.692   5.695  0.8989  1.4354  0.5358
29672SOL     OW97983  11.540   8.035   1.895 -0.1116 -0.2407 -0.3194
29672SOL    HW197984  11.612   8.050   1.834  1.0804  1.6833  1.4205
29672SOL    HW297985  11.467   8.086   1.861  0.6069  0.9808 -0.0732
29673SOL     OW97986   9.821   8.053  12.022  0.4747 -0.1028  0.2115
29673SOL    HW197987   9.740   8.087  11.984  0.8326 -0.0721 -0.5622
29673SOL    HW297988   9.831   8.100  12.105  0.5884  1.1766 -0.4958
29674SOL     OW97989   5.525  11.239  12.060  0.2578 -0.2672  0.1740
29674SOL    HW197990   5.442  11.284  12.049  0.7125  0.7660  0.7505
29674SOL    HW297991   5.578  11.268  11.985  0.9693  1.2056  1.1813
29675SOL     OW97992  11.927  10.775   9.333 -0.4715  0.7482 -0.1659
29675SOL    HW197993  11.871  10.700   9.313  1.0012 -0.3352 -0.3878
29675SOL    HW297994  11.959  10.757   9.422  1.6355 -0.0809 -1.0246
29676SOL     OW97995   0.213   5.008   7.717  0.9080 -0.2434  0.6215
29676SOL    HW197996   0.249   5.065   7.649  0.3578 -0.1299  0.4102
29676SOL    HW297997   0.122   5.038   7.727  0.1390 -1.9689 -0.5193
29677SOL     OW97998   1.184   8.231   8.204  0.2650  0.1691  0.1517
29677SOL    HW197999   1.167   8.168   8.134  1.4975  2.1557 -2.0959
29677SOL    HW298000   1.118   8.212   8.271 -0.5062 -2.3019 -1.1896
29678SOL     OW98001   5.208   0.016   0.716  0.2002 -0.2263 -0.2044
29678SOL    HW198002   5.289   0.000   0.666 -0.2535  1.2963 -1.5196
29678SOL    HW298003   5.229   0.092   0.771 -0.1480 -0.2127 -0.0929
29679SOL     OW98004   1.382  10.094   8.675  0.1796 -0.1545 -0.3729
29679SOL    HW198005   1.300  10.131   8.642 -1.1850 -2.7401 -0.1676
29679SOL    HW298006   1.354  10.024   8.733  2.5777 -0.0458  1.0448
29680SOL     OW98007  10.769   5.226  10.125 -0.3046 -0.2748 -0.2142
29680SOL    HW198008  10.723   5.309  10.113  1.2363  0.6121 -0.2009
29680SOL    HW298009  10.854   5.250  10.161  0.8938 -1.6990 -1.9008
29681SOL     OW98010   2.295   6.466   0.429  0.7797  0.1306 -0.4831
29681SOL    HW198011   2.293   6.513   0.346 -1.2327  0.4374 -0.3102
29681SOL    HW298012   2.222   6.502   0.479  2.6427  0.8156  1.9582
29682SOL     OW98013   5.937   3.639   4.863 -0.3050 -0.2246  0.5105
29682SOL    HW198014   5.897   3.670   4.944 -1.5210 -1.4266  0.4055
29682SOL    HW298015   5.883   3.564   4.837 -0.9178  1.0538 -2.2370
29683SOL     OW98016   6.401   5.394   4.881 -0.0601  0.1829  0.1500
29683SOL    HW198017   6.312   5.361   4.873 -0.6576  1.2137  2.0544
29683SOL    HW298018   6.456   5.315   4.877 -0.8931 -0.3681 -2.2578
29684SOL     OW98019   4.911   6.106   2.678 -0.1250 -0.1994  0.0812
29684SOL    HW198020   4.848   6.080   2.746 -0.9289 -0.0320 -0.5828
29684SOL    HW298021   4.931   6.197   2.698 -0.4938 -0.0978  0.0031
29685SOL     OW98022  10.767   4.697   0.846 -0.9302  0.1165 -0.1918
29685SOL    HW198023  10.807   4.782   0.867 -1.1121  0.1887 -0.1386
29685SOL    HW298024  10.814   4.634   0.900  1.0344 -0.2025 -2.1098
29686SOL     OW98025  11.049   3.240   2.813 -0.0814 -0.3032 -0.4623
29686SOL    HW198026  11.073   3.293   2.736 -4.1734 -0.5684 -2.1970
29686SOL    HW298027  11.027   3.305   2.880  1.8559 -0.0455 -0.0142
29687SOL     OW98028   1.128   3.943   0.486 -0.3128 -0.0600  0.0076
29687SOL    HW198029   1.151   3.851   0.503 -0.0809 -0.0004  0.0295
29687SOL    HW298030   1.180   3.966   0.408 -2.5385 -0.7957 -1.8017
29688SOL     OW98031   0.275   7.923  10.907  0.3659 -0.4192  0.0491
29688SOL    HW198032   0.335   7.854  10.881 -0.5167 -0.5631 -1.7881
29688SOL    HW298033   0.275   7.921  11.003  2.4012 -1.1324  0.0674
29689SOL     OW98034  10.796   7.289   7.767  0.5447 -0.1317 -0.2356
29689SOL    HW198035  10.862   7.313   7.703 -0.4303  0.5267 -1.0249
29689SOL    HW298036  10.787   7.366   7.823  0.4479 -0.2252 -0.1207
29690SOL     OW98037   4.155   0.382   2.261  0.2036  0.3950  0.3530
29690SOL    HW198038   4.242   0.351   2.289  0.9452  1.4779 -0.6581
29690SOL    HW298039   4.142   0.463   2.310 -0.0168  0.4941  0.1321
29691SOL     OW98040   4.203   2.922   7.838 -0.2269  0.2231  0.0855
29691SOL    HW198041   4.177   2.957   7.753 -0.6695  0.5883  0.3614
29691SOL    HW298042   4.123   2.882   7.872  0.0815 -0.3807  0.1047
29692SOL     OW98043   4.537   6.009   4.570 -0.8875 -0.1532  0.2282
29692SOL    HW198044   4.599   5.970   4.508  0.4933  2.3982 -0.1176
29692SOL    HW298045   4.453   6.002   4.526 -0.1584  0.2502 -1.3116
29693SOL     OW98046  10.235   1.303   4.854 -0.8083 -0.4515  0.5724
29693SOL    HW198047  10.234   1.267   4.943 -0.9750 -1.0739  0.3202
29693SOL    HW298048  10.175   1.378   4.859  0.7809  0.8356  1.5124
29694SOL     OW98049  12.562  12.404   0.950 -0.0489 -0.1435  0.5977
29694SOL    HW198050  12.496  12.348   0.993  1.4749 -2.2719  0.3290
29694SOL    HW298051  12.561  12.375   0.858  0.7069  0.3638  0.4244
29695SOL     OW98052   7.407   9.678   7.943 -0.0076 -0.4993 -0.5025
29695SOL    HW198053   7.338   9.708   8.002 -0.0716  1.3964 -1.4479
29695SOL    HW298054   7.446   9.759   7.910  2.5429 -1.5209 -0.1668
29696SOL     OW98055   7.605   3.120   8.906  0.3661 -0.3065 -0.1300
29696SOL    HW198056   7.520   3.108   8.949  0.0765  0.6248 -0.4172
29696SOL    HW298057   7.655   3.043   8.931  0.9037  0.9682  3.4569
29697SOL     OW98058   3.331   6.122   4.105 -0.3770 -0.0217 -0.1923
29697SOL    HW198059   3.383   6.203   4.100  0.2333 -0.4582 -1.0380
29697SOL    HW298060   3.389   6.054   4.072 -1.4496 -0.5503 -1.0364
29698SOL     OW98061   7.123   2.063  11.406  0.1151 -0.0794  0.4244
29698SOL    HW198062   7.078   1.994  11.357  0.5134 -0.1692  0.1811
29698SOL    HW298063   7.100   2.046  11.497 -0.9686  0.3375  0.2469
29699SOL     OW98064  10.696  12.527   4.701  0.0253  0.6535  0.1576
29699SOL    HW198065  10.748  12.481   4.635  1.8407  0.7524  1.4334
29699SOL    HW298066  10.700  12.619   4.674 -2.3252  0.3446 -1.5446
29700SOL     OW98067   8.031   7.848   6.802  0.5022 -0.3235 -0.8439
29700SOL    HW198068   7.950   7.805   6.831  0.3742 -0.7028 -1.7419
29700SOL    HW298069   8.008   7.940   6.794  0.9221  0.0725  1.6444
29701SOL     OW98070   1.571   7.930  10.605 -0.3425  0.9408  0.3776
29701SOL    HW198071   1.663   7.904  10.600 -0.8131 -1.0681  1.4024
29701SOL    HW298072   1.548   7.951  10.514  1.3184  2.3622  0.2196
29702SOL     OW98073  10.946   4.355   3.167 -0.5398 -0.1230  0.4435
29702SOL    HW198074  10.859   4.329   3.140 -0.7433  0.6813  0.2973
29702SOL    HW298075  10.932   4.408   3.246 -0.6359  3.5635 -1.8129
29703SOL     OW98076   6.505   1.536   1.471  0.2560 -0.0913 -0.1669
29703SOL    HW198077   6.415   1.510   1.453  0.7272 -1.3860 -0.7969
29703SOL    HW298078   6.536   1.472   1.535  0.2059  1.4150  1.4424
29704SOL     OW98079   9.146   6.988  11.359 -0.2304  0.4608 -0.1190
29704SOL    HW198080   9.101   6.935  11.425  0.5479 -0.8170 -0.5840
29704SOL    HW298081   9.078   7.048  11.327 -1.0013  0.0976  0.7808
29705SOL     OW98082   4.501   1.953   0.723  0.0940 -0.1569 -0.3868
29705SOL    HW198083   4.426   1.985   0.673 -0.4111  0.2910  0.6240
29705SOL    HW298084   4.567   2.022   0.715 -0.4064  0.4462  0.4750
29706SOL     OW98085   7.173   5.774  12.590  0.1138  0.1871 -0.2415
29706SOL    HW198086   7.123   5.856  12.581  0.8061  0.8404  1.4076
29706SOL    HW298087   7.264   5.800  12.578  0.1909 -0.9579 -2.9901
29707SOL     OW98088   9.647   2.073   4.659 -0.2609 -0.1349 -0.0702
29707SOL    HW198089   9.719   2.111   4.609 -0.3448  0.3384  0.1617
29707SOL    HW298090   9.676   1.985   4.680  0.5076  0.2585  0.5479
29708SOL     OW98091   3.473   5.942   0.642  0.1026  0.0570 -0.7889
29708SOL    HW198092   3.491   6.032   0.615 -1.7266  0.4241 -0.9078
29708SOL    HW298093   3.508   5.889   0.570 -0.6030  0.7929 -1.7132
29709SOL     OW98094  12.582  10.777   3.924  0.0674  0.5250 -0.8572
29709SOL    HW198095  12.619  10.761   3.837 -0.9480  0.7774 -1.3539
29709SOL    HW298096  12.527  10.701   3.941 -1.5616  1.5129 -1.4669
29710SOL     OW98097  11.160   2.188   8.316 -0.4683  0.5405  0.7033
29710SOL    HW198098  11.216   2.236   8.254  1.3141 -1.9064  0.2307
29710SOL    HW298099  11.175   2.231   8.400  0.5268  1.2444  0.1956
29711SOL     OW98100   9.906   6.927   5.530  0.0891 -0.5081 -0.1682
29711SOL    HW198101   9.891   6.874   5.451 -2.9346 -0.2029  0.0873
29711SOL    HW298102   9.908   7.017   5.498 -0.1527 -0.4499 -0.0210
29712SOL     OW98103  10.131   2.426  11.988 -0.3332 -0.3209 -0.1626
29712SOL    HW198104  10.156   2.391  12.074  2.0822  2.8766  0.6069
29712SOL    HW298105  10.148   2.354  11.927  3.4269 -0.9607  1.3976
29713SOL     OW98106   4.410   6.357   6.566 -0.5074 -0.4489 -0.4598
29713SOL    HW198107   4.430   6.272   6.527 -0.9642 -0.7483 -0.0411
29713SOL    HW298108   4.451   6.420   6.506  1.3989 -1.0159  0.1780
29714SOL     OW98109  11.057   2.511   2.709  0.1306  0.3705 -0.5487
29714SOL    HW198110  11.070   2.596   2.751 -1.9725  0.9559 -0.9792
29714SOL    HW298111  11.025   2.454   2.779  2.5674 -0.4525  0.0009
29715SOL     OW98112   8.463  10.196   9.532  0.6847 -0.7340  0.7160
29715SOL    HW198113   8.421  10.127   9.584 -1.7492  0.1852  0.0920
29715SOL    HW298114   8.488  10.153   9.450  0.5169 -1.1966  0.9064
29716SOL     OW98115   9.113   7.729   3.974 -0.2613  0.3300 -0.2059
29716SOL    HW198116   9.033   7.779   3.988 -0.3163  0.3047 -0.4283
29716SOL    HW298117   9.105   7.695   3.885 -0.9428 -1.4032  0.4827
29717SOL     OW98118   4.528   7.006   3.435  0.8351  0.5105 -0.4082
29717SOL    HW198119   4.518   7.096   3.404 -1.7739  0.4441  0.0061
29717SOL    HW298120   4.559   7.015   3.526 -1.8778  1.2024  0.5565
29718SOL     OW98121   0.191  10.738   6.384  0.2864  0.1067  0.1736
29718SOL    HW198122   0.164  10.684   6.309  0.0879  0.3373  0.0779
29718SOL    HW298123   0.276  10.703   6.409 -0.4204 -1.1421  0.9674
29719SOL     OW98124   6.506  10.097  11.713  0.7369  0.0458  0.0562
29719SOL    HW198125   6.591  10.055  11.724  0.5379 -0.6652 -0.9665
29719SOL    HW298126   6.465  10.049  11.641 -1.1964 -0.6964  1.5684
29720SOL     OW98127   7.093   4.122   7.105  0.7265 -0.1919 -0.1320
29720SOL    HW198128   7.157   4.168   7.160  0.3573 -0.5849  0.6523
29720SOL    HW298129   7.017   4.180   7.105  0.5990 -0.3591  0.0714
29721SOL     OW98130   6.879   3.207  11.310  0.1754  0.1127  0.0619
29721SOL    HW198131   6.959   3.221  11.359 -0.4729 -0.6935  1.4043
29721SOL    HW298132   6.868   3.287  11.258  1.5136  0.4731  0.2978
29722SOL     OW98133   0.051   0.303   0.219  0.2489 -0.1679  0.2768
29722SOL    HW198134   0.016   0.365   0.155 -1.4422 -4.6101 -3.6258
29722SOL    HW298135   0.145   0.300   0.201  0.0057 -0.3142 -1.0276
29723SOL     OW98136   2.915   2.057   9.558  0.2114  0.0734 -0.2965
29723SOL    HW198137   2.976   2.109   9.611 -0.8300  0.1706  0.8660
29723SOL    HW298138   2.926   2.089   9.469  0.4776  1.4300  0.2003
29724SOL     OW98139   5.522   7.301   1.652 -0.2824 -0.2124  0.0396
29724SOL    HW198140   5.576   7.353   1.593 -0.0259 -2.4252 -1.8255
29724SOL    HW298141   5.580   7.282   1.726  0.2100  0.6239 -0.1183
29725SOL     OW98142   6.810  10.261   3.800 -0.1684 -0.7202 -0.1541
29725SOL    HW198143   6.864  10.188   3.831 -1.3297 -0.4739  2.7199
29725SOL    HW298144   6.754  10.222   3.732 -0.5403 -2.4532  1.0888
29726SOL     OW98145  12.102   0.406   0.868  0.1221  0.6330 -0.2511
29726SOL    HW198146  12.174   0.344   0.881 -0.6391  0.2204  2.6429
29726SOL    HW298147  12.025   0.351   0.855 -0.0897  1.0305 -0.6787
29727SOL     OW98148   8.984  11.145   8.748  0.0049 -0.3110  0.0348
29727SOL    HW198149   8.981  11.072   8.811  0.4286 -0.6544 -0.3331
29727SOL    HW298150   9.062  11.127   8.695  2.0428  2.1051  1.9563
29728SOL     OW98151  12.513   0.883  10.540 -0.2582  0.0111  0.1343
29728SOL    HW198152  12.442   0.931  10.584 -0.3304 -0.1327  0.1742
29728SOL    HW298153  12.477   0.863  10.454  0.2580  1.2128 -0.3858
29729SOL     OW98154   6.714   7.563   3.310  0.0635 -0.5224  0.4803
29729SOL    HW198155   6.623   7.559   3.339  0.2400 -0.2741  1.0728
29729SOL    HW298156   6.762   7.508   3.373  0.5910  0.7687  1.2496
29730SOL     OW98157   7.500   3.002  10.090  0.2644  0.0415  0.3682
29730SOL    HW198158   7.475   2.928  10.146  0.2863  0.1376  0.5069
29730SOL    HW298159   7.584   3.031  10.126 -0.3260  0.9116  1.0924
29731SOL     OW98160   1.155   9.673   5.889  0.4871  0.2941  0.7947
29731SOL    HW198161   1.151   9.764   5.920  1.2048  0.7331 -0.3093
29731SOL    HW298162   1.065   9.652   5.864  0.0373  0.1785  2.4289
29732SOL     OW98163   3.841  12.281   1.136 -0.8168 -0.0346 -0.2293
29732SOL    HW198164   3.762  12.333   1.144 -2.4839 -2.5069  0.7400
29732SOL    HW298165   3.825  12.224   1.061  0.6386  0.3390 -0.8472
29733SOL     OW98166   8.410  11.059   3.009 -0.6931 -0.2169 -0.7233
29733SOL    HW198167   8.375  11.033   2.924  1.1643 -0.5941 -1.4138
29733SOL    HW298168   8.485  11.002   3.023  0.9039  1.8559 -0.2747
29734SOL     OW98169   0.395   0.721   3.095  0.2810  0.1507  0.0540
29734SOL    HW198170   0.335   0.763   3.033 -1.8464 -0.0909  1.8002
29734SOL    HW298171   0.419   0.639   3.054  0.9137  1.0554 -1.4694
29735SOL     OW98172   3.636   0.208  11.362  0.0659  0.4145  0.3034
29735SOL    HW198173   3.576   0.270  11.404 -0.5894  0.8372 -1.1842
29735SOL    HW298174   3.589   0.125  11.365  0.0240  0.4417  0.4262
29736SOL     OW98175   6.787  11.829  11.951  0.0255 -0.1644  0.0488
29736SOL    HW198176   6.851  11.783  11.897  0.2119  0.8513 -0.6169
29736SOL    HW298177   6.711  11.771  11.953  0.4959 -0.7992 -0.2242
29737SOL     OW98178   5.895   0.524   6.523  0.3735  0.2450 -0.7608
29737SOL    HW198179   5.810   0.522   6.479  0.9661  0.9592 -1.9817
29737SOL    HW298180   5.958   0.541   6.453  1.3459  1.4222  0.3563
29738SOL     OW98181   1.360  10.272  11.124 -0.1326  0.2909  0.2122
29738SOL    HW198182   1.415  10.328  11.179  0.6189 -0.9324  0.7387
29738SOL    HW298183   1.422  10.213  11.081 -0.8038  0.5631 -1.2017
29739SOL     OW98184   8.421   7.675  11.074 -0.0366  0.1951 -0.1379
29739SOL    HW198185   8.490   7.730  11.111 -0.3145  0.7791 -0.4687
29739SOL    HW298186   8.355   7.668  11.144 -0.8818  1.8593 -0.7135
29740SOL     OW98187   6.744   8.583   7.721 -0.5020  0.2507 -0.1974
29740SOL    HW198188   6.694   8.656   7.759  1.2043  1.0950  0.5390
29740SOL    HW298189   6.823   8.624   7.686 -0.5435 -0.9766 -1.8281
29741SOL     OW98190   5.607   8.117   2.592  0.4987  0.2826  0.2386
29741SOL    HW198191   5.599   8.102   2.686  0.5864 -3.2132 -0.2025
29741SOL    HW298192   5.697   8.150   2.580  0.3169  1.2601  1.3614
29742SOL     OW98193   9.570   5.654   9.080  0.0810 -0.3372 -0.0394
29742SOL    HW198194   9.564   5.698   9.165  1.2773 -1.5674  0.7178
29742SOL    HW298195   9.657   5.677   9.047  1.4307 -3.2471  1.1072
29743SOL     OW98196   3.578   6.133   6.225 -0.2046 -0.4230 -0.2926
29743SOL    HW198197   3.644   6.082   6.272  0.2519 -0.1508 -0.6194
29743SOL    HW298198   3.621   6.217   6.208 -1.3941  0.5668  1.3675
29744SOL     OW98199   4.789  11.583   9.137  0.3564  0.3517  0.3013
29744SOL    HW198200   4.765  11.550   9.050 -0.2855 -1.1891  1.0132
29744SOL    HW298201   4.856  11.649   9.121 -0.4697  0.8291 -1.4227
29745SOL     OW98202   4.960   9.012   2.920 -0.0018  0.1624 -0.3893
29745SOL    HW198203   5.030   9.046   2.865  0.8490 -1.3608 -0.3125
29745SOL    HW298204   4.886   9.000   2.859 -0.6828  2.9586 -0.2255
29746SOL     OW98205   6.430   2.102   6.628 -0.1559  0.7172 -0.1006
29746SOL    HW198206   6.433   2.023   6.682 -2.0199 -0.3626 -1.4635
29746SOL    HW298207   6.389   2.168   6.684 -1.6856 -0.2646 -0.0150
29747SOL     OW98208   6.987  10.403   9.566  0.0724  0.2328  0.9468
29747SOL    HW198209   6.921  10.450   9.617 -1.4296  1.1645 -1.6682
29747SOL    HW298210   7.037  10.472   9.523  0.1254 -0.5078 -0.2166
29748SOL     OW98211   1.378   0.777  11.735  1.0479 -0.0002 -0.1747
29748SOL    HW198212   1.310   0.840  11.758  1.0993  0.2414 -0.6799
29748SOL    HW298213   1.459   0.813  11.772  1.0872  0.2660 -0.5098
29749SOL     OW98214   1.948   8.797   8.920  0.5170 -0.3088  0.0411
29749SOL    HW198215   2.034   8.756   8.919 -0.1252 -1.7131  0.5677
29749SOL    HW298216   1.962   8.883   8.879  2.0846 -0.6420 -0.1764
29750SOL     OW98217   7.905   9.308   1.035  0.1819  0.3104 -0.9673
29750SOL    HW198218   7.936   9.227   1.076  0.9266  0.1803 -1.7562
29750SOL    HW298219   7.959   9.377   1.073  0.9516  0.1753 -1.7889
29751SOL     OW98220  11.008   9.941   7.315 -0.0451 -0.5335  0.5635
29751SOL    HW198221  11.036  10.033   7.317 -0.0148 -0.4255 -1.8156
29751SOL    HW298222  11.066   9.900   7.250 -0.3350 -2.1442  1.2760
29752SOL     OW98223  12.027  11.350  11.942 -0.0734  0.3058  0.0896
29752SOL    HW198224  12.094  11.360  12.009 -0.7195  0.2900  0.7458
29752SOL    HW298225  12.073  11.367  11.859  0.7186  0.3523  0.5319
29753SOL     OW98226  10.334   6.028  10.431 -0.0530 -0.6057  0.0273
29753SOL    HW198227  10.260   6.076  10.392  1.4153  0.4698 -1.6238
29753SOL    HW298228  10.379   6.094  10.484 -0.9629 -1.5910  2.1088
29754SOL     OW98229   1.524   3.024  10.369  0.3025  0.2702 -0.3651
29754SOL    HW198230   1.504   2.948  10.422 -1.0431  0.8119 -0.0590
29754SOL    HW298231   1.471   3.014  10.290 -1.5359  1.8825  0.5870
29755SOL     OW98232   0.153   8.151   7.559 -0.7115  0.3768  0.0612
29755SOL    HW198233   0.188   8.076   7.608 -0.9611  0.0036 -0.3238
29755SOL    HW298234   0.079   8.181   7.611 -0.9593 -0.0025 -0.0687
29756SOL     OW98235   1.026   1.601   2.826 -0.0902 -0.0913  0.0466
29756SOL    HW198236   1.024   1.683   2.875 -0.1037 -0.8896  1.4443
29756SOL    HW298237   0.937   1.592   2.791  0.1719  0.9363 -0.9203
29757SOL     OW98238   6.673   1.121   8.571 -0.2167  0.5427 -0.1162
29757SOL    HW198239   6.597   1.139   8.515 -0.5624 -1.4685 -0.3458
29757SOL    HW298240   6.748   1.143   8.517 -0.5705 -0.5952 -1.1102
29758SOL     OW98241   6.758   3.460   3.331  0.3016  0.1109 -0.0637
29758SOL    HW198242   6.742   3.495   3.418  0.6623 -0.1747  0.1179
29758SOL    HW298243   6.853   3.448   3.327  0.1491 -1.2118  0.0120
29759SOL     OW98244   7.786   6.922   0.427 -0.5473 -0.3611  0.4263
29759SOL    HW198245   7.798   6.926   0.522  1.0365 -1.4478  0.3050
29759SOL    HW298246   7.804   6.831   0.404  1.7014  0.4051 -1.2131
29760SOL     OW98247  10.996   4.419   2.447 -0.5439  0.2985 -0.2386
29760SOL    HW198248  10.992   4.359   2.373  2.1190  1.3280 -1.3439
29760SOL    HW298249  11.071   4.476   2.428 -1.7654  2.7576  1.6640
29761SOL     OW98250   3.699   8.324   2.740  0.0920 -0.0846 -0.5069
29761SOL    HW198251   3.642   8.280   2.804 -0.5763 -0.1057 -1.0954
29761SOL    HW298252   3.693   8.269   2.662  1.0845 -0.1857 -0.5148
29762SOL     OW98253   9.923   7.060   3.764 -0.0375 -0.3599 -0.1857
29762SOL    HW198254   9.924   6.984   3.822 -0.0405 -2.1612 -2.4004
29762SOL    HW298255   9.994   7.044   3.703 -0.0879  1.4222 -0.7662
29763SOL     OW98256  11.551   1.301   2.206 -0.0730 -0.4834  0.1127
29763SOL    HW198257  11.585   1.389   2.219 -1.6265  0.3081 -0.8017
29763SOL    HW298258  11.599   1.267   2.131 -0.1234 -0.0505 -0.1165
29764SOL     OW98259   3.683   8.936   6.737 -0.0202  0.3894  0.2704
29764SOL    HW198260   3.677   8.928   6.832 -1.5071  0.1803  0.1886
29764SOL    HW298261   3.700   9.029   6.721 -0.6697  0.5880  0.7212
29765SOL     OW98262  10.590   1.774   7.300 -0.3559 -0.4331  0.6668
29765SOL    HW198263  10.660   1.825   7.341 -0.7084 -0.2352  1.0345
29765SOL    HW298264  10.513   1.792   7.354 -0.8490 -0.1038 -0.1437
29766SOL     OW98265   7.722   3.098  10.254 -0.5645 -0.1707 -0.0248
29766SOL    HW198266   7.747   3.162  10.321  0.2603  0.6072 -1.0387
29766SOL    HW298267   7.729   3.013  10.298  1.3506  0.2174  0.4884
29767SOL     OW98268  11.882   1.563  11.162 -0.0457 -0.5764  0.0884
29767SOL    HW198269  11.869   1.587  11.254  2.2655  1.4008 -0.0247
29767SOL    HW298270  11.804   1.511  11.140 -1.2013 -0.1667  2.8140
29768SOL     OW98271   8.488   0.676   8.177 -0.8342 -0.4522 -0.0454
29768SOL    HW198272   8.524   0.609   8.120  0.7378 -0.7573  1.2204
29768SOL    HW298273   8.446   0.738   8.118  1.5543 -0.2286 -1.6540
29769SOL     OW98274   1.374  10.076   8.005  0.5342  0.4241 -0.1014
29769SOL    HW198275   1.373  10.093   7.911 -1.4518 -0.1714 -0.2187
29769SOL    HW298276   1.306  10.133   8.041  1.2178  0.5889  0.9883
29770SOL     OW98277   2.800   8.729   8.206 -0.5567  0.4029  0.3064
29770SOL    HW198278   2.784   8.658   8.145  0.3467  0.1774  0.3072
29770SOL    HW298279   2.807   8.807   8.151  0.4013  0.1767  0.0868
29771SOL     OW98280   5.381   6.436  10.569 -0.3765  0.2926 -0.2601
29771SOL    HW198281   5.437   6.443  10.492 -1.3249 -0.2419 -1.0037
29771SOL    HW298282   5.343   6.524  10.579 -2.9575 -0.4664 -2.5029
29772SOL     OW98283  11.632   3.445   0.002  0.1571 -0.3313 -0.2839
29772SOL    HW198284  11.642   3.540   0.012  0.8659 -0.3900 -0.3488
29772SOL    HW298285  11.645   3.430  -0.092 -0.2127 -0.4656 -0.3145
29773SOL     OW98286   3.771   3.017   6.409  0.4165  0.3543  0.1002
29773SOL    HW198287   3.772   2.961   6.332  2.0585  0.2913  0.1379
29773SOL    HW298288   3.769   3.106   6.373  0.4583  0.3120 -0.0090
29774SOL     OW98289   7.740   5.794  11.863  0.2420 -0.4986 -0.6709
29774SOL    HW198290   7.652   5.829  11.850  0.3587  0.0597 -0.0154
29774SOL    HW298291   7.778   5.850  11.930  1.1084 -0.7191 -0.9667
29775SOL     OW98292   2.415  10.293   3.280  0.1378 -0.5840  0.2429
29775SOL    HW198293   2.327  10.259   3.295  0.8612 -2.4716  0.5957
29775SOL    HW298294   2.444  10.322   3.366 -0.5446  1.1883 -0.0899
29776SOL     OW98295   7.111   3.680   3.832 -0.3874  0.3915 -0.4607
29776SOL    HW198296   7.093   3.657   3.923  0.2019  1.4875 -0.0472
29776SOL    HW298297   7.085   3.602   3.782 -3.5247  0.8189  0.3130
29777SOL     OW98298   8.542   0.765   2.005 -0.0311  0.3075  0.0071
29777SOL    HW198299   8.448   0.779   1.992  0.1403  1.4980 -0.0911
29777SOL    HW298300   8.553   0.764   2.100 -0.5021 -2.7442  0.1467
29778SOL     OW98301   1.016   1.271  10.675  0.5716  0.1670  0.0971
29778SOL    HW198302   1.099   1.318  10.681  0.2589  0.6374  0.8679
29778SOL    HW298303   0.966   1.318  10.608  0.8391  0.0224 -0.2025
29779SOL     OW98304   4.467   3.875   0.012  0.5958  0.3230 -0.1927
29779SOL    HW198305   4.554   3.848   0.043  0.1854 -0.7030  0.1224
29779SOL    HW298306   4.479   3.892  -0.081  1.6033  2.3361  0.2567
29780SOL     OW98307  10.597   7.643   2.265 -0.1814  0.2739 -0.0596
29780SOL    HW198308  10.602   7.587   2.342 -1.1579  0.4582  0.1554
29780SOL    HW298309  10.653   7.600   2.199 -0.9622 -0.9831  0.0721
29781SOL     OW98310   5.554   7.107   6.133 -0.3276 -0.0372 -0.4446
29781SOL    HW198311   5.500   7.185   6.149 -2.0316 -1.2483  0.0305
29781SOL    HW298312   5.558   7.064   6.218  0.5417 -0.5104 -0.7184
29782SOL     OW98313   3.480   5.804   2.640 -0.1438  0.3883 -0.1547
29782SOL    HW198314   3.571   5.815   2.668 -0.4476 -0.4215  1.2469
29782SOL    HW298315   3.434   5.879   2.677 -0.2666  0.1305  0.2224
29783SOL     OW98316   6.139   3.410   9.608 -0.6959 -0.0093 -0.2335
29783SOL    HW198317   6.055   3.409   9.564 -1.4851 -1.0275  1.2046
29783SOL    HW298318   6.163   3.317   9.616 -0.4265  0.1543  1.1311
29784SOL     OW98319   4.318   0.893   0.707  0.5903  0.0473  0.3293
29784SOL    HW198320   4.229   0.884   0.671  1.1007 -0.8073 -0.7707
29784SOL    HW298321   4.304   0.924   0.797 -1.0883 -4.4049  1.8713
29785SOL     OW98322   4.863   9.662   5.310  0.3234  0.2352 -0.0255
29785SOL    HW198323   4.843   9.676   5.402  0.6148  1.3148 -0.1204
29785SOL    HW298324   4.778   9.652   5.268  0.0691  1.8394  0.0443
29786SOL     OW98325   5.226   6.329   1.223 -0.1103 -0.1503 -0.0694
29786SOL    HW198326   5.189   6.241   1.217 -0.1550 -0.0164 -2.8083
29786SOL    HW298327   5.316   6.319   1.191 -0.5511  0.9936 -1.7819
29787SOL     OW98328   7.442  12.556   8.579 -0.1425  0.0277 -0.1031
29787SOL    HW198329   7.438  12.467   8.613  0.6465 -0.2300 -0.6640
29787SOL    HW298330   7.376  12.559   8.510 -1.4688  0.4349  1.1480
29788SOL     OW98331   6.147  10.939   8.525  0.3881 -0.0782  0.2201
29788SOL    HW198332   6.094  10.872   8.569 -0.5370  0.2569 -0.3791
29788SOL    HW298333   6.097  11.020   8.534  1.3072  0.4696  0.5771
29789SOL     OW98334   0.558   7.072  10.687 -0.0063  0.1904 -0.3691
29789SOL    HW198335   0.572   7.035  10.600  0.7899  0.5904 -0.4235
29789SOL    HW298336   0.582   7.164  10.678 -1.5355  0.6458 -0.1273
29790SOL     OW98337  10.315   6.174   6.550  0.0931 -0.1495  0.6862
29790SOL    HW198338  10.260   6.177   6.628 -0.3052  1.4310  0.3855
29790SOL    HW298339  10.327   6.266   6.526 -0.4161 -0.6199 -1.5519
29791SOL     OW98340   6.178   7.127   6.975 -0.2244 -0.0873 -0.0030
29791SOL    HW198341   6.173   7.036   6.946  0.3942 -0.5196  1.1854
29791SOL    HW298342   6.165   7.178   6.895 -0.9654 -1.2040 -0.6231
29792SOL     OW98343   7.628   9.241   4.064 -0.0702  0.1421 -0.3816
29792SOL    HW198344   7.593   9.248   3.975  0.1172  1.2014 -0.3779
29792SOL    HW298345   7.683   9.162   4.061 -0.5160 -0.1582 -1.0377
29793SOL     OW98346   2.131   1.685   4.951  0.2399 -0.1622  0.0915
29793SOL    HW198347   2.098   1.596   4.943  2.0171 -0.9562  1.0803
29793SOL    HW298348   2.222   1.680   4.923 -0.2431  1.9048 -2.3211
29794SOL     OW98349   9.266   9.150  11.227  0.2753 -0.1177  0.6542
29794SOL    HW198350   9.197   9.152  11.293  0.4489 -1.1818  0.8811
29794SOL    HW298351   9.288   9.243  11.212 -2.7141  0.4222 -1.0434
29795SOL     OW98352   0.076   7.986   2.882  0.1808  0.2214 -0.2540
29795SOL    HW198353   0.057   8.036   2.803 -1.5226 -0.6233 -0.4284
29795SOL    HW298354   0.005   8.008   2.942 -0.6803 -1.9979 -0.3751
29796SOL     OW98355   1.340   8.198   1.248 -0.2096 -0.0870 -0.0305
29796SOL    HW198356   1.405   8.162   1.309  0.0474 -0.1941 -0.3635
29796SOL    HW298357   1.258   8.198   1.297  0.1517  0.5912  0.6011
29797SOL     OW98358   4.956   1.217   5.853 -0.6176  0.0112 -0.2719
29797SOL    HW198359   4.963   1.169   5.771 -0.6923 -1.6161  0.6435
29797SOL    HW298360   4.865   1.209   5.879 -0.6601  0.7624 -0.1594
29798SOL     OW98361   2.248   8.898   0.033  0.1298  0.5006  0.5262
29798SOL    HW198362   2.313   8.925  -0.032 -0.2172  0.4669  0.1658
29798SOL    HW298363   2.293   8.907   0.117  1.2018 -1.1643  0.1903
29799SOL     OW98364   3.651   2.747  11.997  0.2567  0.1310 -0.2667
29799SOL    HW198365   3.605   2.706  12.070  1.0518  0.5188  0.4681
29799SOL    HW298366   3.698   2.820  12.036  0.7629  0.3024 -1.1605
29800SOL     OW98367   4.575   4.231   5.662  0.6850  0.1707  0.1748
29800SOL    HW198368   4.615   4.299   5.608 -0.8590  1.8922  1.1135
29800SOL    HW298369   4.639   4.214   5.731  2.1092 -1.1162 -1.3691
29801SOL     OW98370   6.070  11.424   9.985 -0.8156 -0.4008  0.0301
29801SOL    HW198371   5.992  11.472   9.957 -0.5353 -1.0611 -2.0122
29801SOL    HW298372   6.139  11.452   9.925 -0.5763 -3.1202 -1.0969
29802SOL     OW98373   3.307   8.585   3.249 -0.1941  0.0117  0.0848
29802SOL    HW198374   3.223   8.560   3.287  0.4448 -0.0359  1.5009
29802SOL    HW298375   3.366   8.595   3.323  0.9413  0.5311 -0.8471
29803SOL     OW98376   5.569   6.160   2.904  0.0385 -0.0983  0.0693
29803SOL    HW198377   5.664   6.168   2.911 -0.0339  0.2599  0.7378
29803SOL    HW298378   5.537   6.250   2.899 -0.2712 -0.2116 -0.0250
29804SOL     OW98379   9.047  10.934  12.369 -0.0771  0.0974  0.4343
29804SOL    HW198380   9.098  10.933  12.450 -1.5605  2.0271  1.4858
29804SOL    HW298381   9.112  10.941  12.299  1.1774  0.0315  1.5654
29805SOL     OW98382   7.358   4.600  12.580  0.3961  0.7813 -0.0424
29805SOL    HW198383   7.373   4.521  12.631  1.6251  1.3806  0.5898
29805SOL    HW298384   7.436   4.608  12.524  0.4496  1.6901  0.1350
29806SOL     OW98385   2.596   4.904   3.474 -0.2958  0.0814  0.2911
29806SOL    HW198386   2.605   4.809   3.469 -0.2853  0.1120 -0.2806
29806SOL    HW298387   2.657   4.931   3.544  0.7588 -0.1780 -0.5120
29807SOL     OW98388   3.251  12.565  12.516  1.0353  0.1538 -0.1688
29807SOL    HW198389   3.173  12.511  12.531  0.0743  1.4725 -0.2786
29807SOL    HW298390   3.310  12.543  12.589  1.1848 -1.9114 -0.8647
29808SOL     OW98391   1.237   6.332   2.182 -0.1006 -0.1172  0.8071
29808SOL    HW198392   1.285   6.272   2.240 -0.1756 -0.1790  0.8061
29808SOL    HW298393   1.260   6.304   2.094  0.5466  0.4095  0.8073
29809SOL     OW98394   2.893   8.949   8.079 -0.1933 -0.4192 -0.5411
29809SOL    HW198395   2.909   9.018   8.144  0.4947  0.6707 -1.8165
29809SOL    HW298396   2.969   8.891   8.088  1.2101  1.0646 -1.9646
29810SOL     OW98397   8.878   5.578   1.461  0.4120  0.0787 -0.3863
29810SOL    HW198398   8.894   5.652   1.520  2.0020  0.1370 -0.8482
29810SOL    HW298399   8.800   5.603   1.413  0.5929  1.2050 -0.1289
29811SOL     OW98400   2.484   3.229   2.340 -0.3727 -0.1797  0.0811
29811SOL    HW198401   2.394   3.241   2.312  0.0106  1.6388 -0.4706
29811SOL    HW298402   2.535   3.235   2.259  0.3091 -0.4987  0.4769
29812SOL     OW98403   6.139  10.886   2.509 -0.3704  0.1455  0.0459
29812SOL    HW198404   6.145  10.908   2.602 -0.8369 -1.8431  0.5886
29812SOL    HW298405   6.122  10.792   2.507 -3.2760  0.5527 -1.9603
29813SOL     OW98406   6.757   3.758   3.196 -0.1551 -0.3191 -0.0699
29813SOL    HW198407   6.835   3.740   3.248 -0.5693  1.3660  1.2220
29813SOL    HW298408   6.790   3.765   3.106  1.3364  1.1516  0.5394
29814SOL     OW98409   0.230   6.353   4.402  0.7631 -0.1404 -0.0191
29814SOL    HW198410   0.318   6.371   4.435  0.0848  0.8074  1.4235
29814SOL    HW298411   0.235   6.369   4.308  2.3030 -0.8571 -0.0823
29815SOL     OW98412   6.186   1.837   1.397  0.3163 -0.3400 -0.0887
29815SOL    HW198413   6.279   1.832   1.374  0.0660  0.7786 -1.5277
29815SOL    HW298414   6.159   1.924   1.366 -1.6409 -1.3616 -1.4132
29816SOL     OW98415   0.648   2.160   6.765  0.6940  0.0560 -0.4771
29816SOL    HW198416   0.695   2.242   6.779  0.4400  0.3306 -1.1797
29816SOL    HW298417   0.572   2.184   6.712 -0.1964 -0.3971  0.5582
29817SOL     OW98418   5.680  12.460  12.476 -0.4752  0.0462 -0.2755
29817SOL    HW198419   5.665  12.554  12.484  0.9479  0.2271  0.5159
29817SOL    HW298420   5.619  12.421  12.539  0.4667  0.6015  1.0191
29818SOL     OW98421  10.804  10.409   6.408  0.3589 -0.0953  0.1412
29818SOL    HW198422  10.864  10.336   6.420 -0.0352 -0.8296 -1.8972
29818SOL    HW298423  10.845  10.464   6.341 -0.1869  0.6161  0.3643
29819SOL     OW98424   0.231   9.576   6.480 -0.3859 -0.2794  0.3432
29819SOL    HW198425   0.233   9.670   6.499 -0.6523 -0.4128  1.0735
29819SOL    HW298426   0.187   9.537   6.556 -1.3370 -0.8665 -0.4772
29820SOL     OW98427   8.913   1.764   8.315  0.5682 -0.2329  0.3983
29820SOL    HW198428   8.929   1.676   8.350  1.3883 -0.2744 -0.0664
29820SOL    HW298429   8.972   1.771   8.240 -1.9566 -0.6116 -1.7967
29821SOL     OW98430   8.760   2.188   3.181  0.7178  0.0051  0.0062
29821SOL    HW198431   8.736   2.101   3.213 -0.4197  0.6588  1.0624
29821SOL    HW298432   8.854   2.194   3.194  1.1599 -1.7678 -1.9352
29822SOL     OW98433   2.971  10.745   8.112  0.1862 -0.4621  1.0365
29822SOL    HW198434   2.987  10.834   8.081  0.3551 -0.2773  1.6333
29822SOL    HW298435   2.900  10.713   8.057  1.2374 -0.5717 -0.3115
29823SOL     OW98436   6.160   7.295  11.259  0.2626 -0.0083 -0.5945
29823SOL    HW198437   6.072   7.296  11.295  0.8019  0.1927  0.8153
29823SOL    HW298438   6.163   7.370  11.199 -0.0786  0.9184  0.5146
29824SOL     OW98439   6.259  10.299  11.500  0.5572  0.3637  0.4294
29824SOL    HW198440   6.320  10.230  11.529  1.0764  0.3134 -0.6998
29824SOL    HW298441   6.254  10.360  11.573  1.6888  0.1675  0.6905
29825SOL     OW98442  11.086   2.356   7.915 -0.1773  0.1495  0.7370
29825SOL    HW198443  11.116   2.265   7.909 -0.0072  0.2290  0.4058
29825SOL    HW298444  11.013   2.362   7.854  1.2326  0.8183 -0.9626
29826SOL     OW98445   5.146   3.660   8.288  0.2317 -0.3569 -0.1502
29826SOL    HW198446   5.084   3.658   8.361  0.1605 -0.4501 -0.2129
29826SOL    HW298447   5.231   3.677   8.329  0.2074 -0.5150 -0.0351
29827SOL     OW98448   0.102   2.180   5.935 -0.4295 -0.6343  0.2241
29827SOL    HW198449   0.054   2.116   5.987 -0.1744 -1.0361 -0.0288
29827SOL    HW298450   0.055   2.184   5.852  0.8328 -2.2088 -0.6397
29828SOL     OW98451   2.234   9.225   5.009 -0.0028 -0.8030  0.2776
29828SOL    HW198452   2.198   9.176   4.936 -0.0788  0.8449 -0.8355
29828SOL    HW298453   2.303   9.169   5.044 -1.2123 -2.4360  0.1687
29829SOL     OW98454   9.053   7.597   3.423  0.5979  0.4930 -0.1839
29829SOL    HW198455   9.005   7.515   3.412  0.1360  0.2038  3.1090
29829SOL    HW298456   8.984   7.662   3.441  1.1023  1.2614 -0.9229
29830SOL     OW98457   1.167  11.200   6.787 -0.2434 -0.7171  0.2914
29830SOL    HW198458   1.188  11.256   6.862 -3.3962  1.0373  0.0403
29830SOL    HW298459   1.204  11.245   6.712  0.2369 -0.8418  0.4486
29831SOL     OW98460   7.811   8.487  12.040  0.3997 -0.2796 -0.3471
29831SOL    HW198461   7.770   8.417  11.990 -2.2581 -0.0744  1.3570
29831SOL    HW298462   7.887   8.513  11.987  0.4971 -3.2210 -1.8472
29832SOL     OW98463   8.385   5.359   9.288 -0.4095  0.8742 -0.4640
29832SOL    HW198464   8.341   5.293   9.341  2.1004 -0.6961 -0.1459
29832SOL    HW298465   8.401   5.316   9.204  0.8381  1.2111 -0.4270
29833SOL     OW98466   8.525   4.229   9.168 -0.0227  0.8161 -0.0895
29833SOL    HW198467   8.570   4.232   9.252 -2.5330 -1.6676  1.5115
29833SOL    HW298468   8.512   4.136   9.151 -2.0205  1.3361 -1.8267
29834SOL     OW98469   8.183   5.031  12.422  0.3507 -0.0757 -0.0719
29834SOL    HW198470   8.271   5.061  12.445 -0.7431  2.4329  1.1679
29834SOL    HW298471   8.149   5.098  12.362 -1.3623 -0.0106  0.9104
29835SOL     OW98472  11.386   6.338  10.996  0.0643  0.0010  0.8145
29835SOL    HW198473  11.407   6.400  10.926 -1.0044 -1.3065 -0.7369
29835SOL    HW298474  11.321   6.383  11.050  0.0041  0.5807  0.2662
29836SOL     OW98475   3.664   9.001   9.076  0.1283 -0.3582  0.1643
29836SOL    HW198476   3.587   9.042   9.114  1.6810  0.3561  2.8356
29836SOL    HW298477   3.632   8.919   9.039 -1.7089 -0.8816  2.6437
29837SOL     OW98478   3.769   9.465   3.772 -0.3811 -0.0746 -0.4230
29837SOL    HW198479   3.790   9.477   3.865 -0.8571  0.7622 -0.4098
29837SOL    HW298480   3.709   9.537   3.752 -0.7975 -0.6337 -1.2193
29838SOL     OW98481   7.958   0.338   5.167 -0.0743 -0.0101  0.0954
29838SOL    HW198482   8.044   0.351   5.207  0.5533  1.1901 -1.5361
29838SOL    HW298483   7.897   0.380   5.228  0.8470  1.8213 -0.1658
29839SOL     OW98484   9.266  11.751  10.378 -0.2259 -0.0101 -0.0675
29839SOL    HW198485   9.222  11.814  10.433  1.3588  1.0279  0.0826
29839SOL    HW298486   9.289  11.800  10.299  1.3292 -0.2666  0.1942
29840SOL     OW98487  11.951   3.292  12.524 -0.2314  0.4809 -0.2696
29840SOL    HW198488  11.856   3.282  12.522 -0.1628 -0.5436  0.6361
29840SOL    HW298489  11.969   3.369  12.470 -1.3607 -0.8699 -2.7358
29841SOL     OW98490   2.640   9.080  10.790  0.4064  0.1574 -0.0081
29841SOL    HW198491   2.606   8.993  10.808 -0.2009  0.5319  0.7013
29841SOL    HW298492   2.726   9.065  10.749  1.9783 -0.7674  3.3052
29842SOL     OW98493   2.081   4.655   6.461 -0.2693 -0.2508  0.2075
29842SOL    HW198494   2.148   4.703   6.509 -2.0381  4.0881 -1.1884
29842SOL    HW298495   2.016   4.630   6.527  0.2209  0.1574  0.8521
29843SOL     OW98496   2.963  11.359  12.395  0.1871  0.2080 -0.4421
29843SOL    HW198497   2.868  11.361  12.385  0.2666  2.2876 -1.2975
29843SOL    HW298498   2.984  11.441  12.439  1.6026 -0.1513 -0.4076
29844SOL     OW98499  11.037   8.366  11.568 -0.1968  0.5208  0.6143
29844SOL    HW198500  11.129   8.342  11.575 -0.6946 -2.0599 -0.6591
29844SOL    HW298501  11.010   8.385  11.658  1.4468  0.8964  1.0608
29845SOL     OW98502  11.540   5.732  12.139 -0.4480 -0.7779 -0.4407
29845SOL    HW198503  11.521   5.773  12.223  0.0829 -0.2486 -0.5768
29845SOL    HW298504  11.490   5.650  12.141 -2.4471  0.3792 -0.6298
29846SOL     OW98505   3.606   8.189   4.176  0.1358 -0.7078  0.4520
29846SOL    HW198506   3.697   8.185   4.206  0.3744  2.4436  0.5197
29846SOL    HW298507   3.554   8.189   4.257  0.4680  2.3208  0.7963
29847SOL     OW98508  10.661   3.908   1.929  0.1314 -0.3256  0.3621
29847SOL    HW198509  10.723   3.915   2.002  2.1352  0.6313 -1.3408
29847SOL    HW298510  10.670   3.991   1.882 -1.5857 -0.6637 -0.6525
29848SOL     OW98511   3.654   0.848   3.276 -0.4236  0.3566  0.0894
29848SOL    HW198512   3.578   0.889   3.317 -1.2611 -0.2581 -0.8113
29848SOL    HW298513   3.653   0.881   3.186 -0.8637 -1.2583 -0.5308
29849SOL     OW98514   9.100   6.221   1.567 -0.1036 -0.5308 -0.0913
29849SOL    HW198515   9.121   6.130   1.586  0.6659 -0.4762 -0.6876
29849SOL    HW298516   9.005   6.221   1.553 -0.4142 -0.9264  1.6736
29850SOL     OW98517   3.182   8.274   9.789 -0.0624  0.1545  0.5103
29850SOL    HW198518   3.277   8.287   9.790 -0.1798  1.9803 -2.4114
29850SOL    HW298519   3.170   8.187   9.828  2.9358 -0.7904 -0.3878
29851SOL     OW98520   0.147   3.030   0.208 -0.6320 -0.2772  0.6391
29851SOL    HW198521   0.238   3.002   0.214 -0.7090 -0.7238 -0.1606
29851SOL    HW298522   0.100   2.970   0.265 -0.3141  0.5354  1.7877
29852SOL     OW98523  11.194   2.074   9.889 -0.0740  0.1595  0.2254
29852SOL    HW198524  11.248   2.153   9.893 -0.1249  0.1716  0.6851
29852SOL    HW298525  11.111   2.099   9.929 -0.0713 -0.1432  0.4251
29853SOL     OW98526   9.159  11.732   6.548 -0.3249 -0.5937  1.0428
29853SOL    HW198527   9.232  11.793   6.535 -1.1645 -0.0102 -1.6649
29853SOL    HW298528   9.083  11.788   6.566 -0.6827 -0.9564  0.7146
29854SOL     OW98529   1.587   3.597   3.922  0.5452 -0.3399  0.5585
29854SOL    HW198530   1.524   3.528   3.942  0.4443 -0.3657  0.1606
29854SOL    HW298531   1.661   3.551   3.882 -0.0859 -0.0984 -0.9890
29855SOL     OW98532  10.581   2.356   4.068  0.0808  0.0184  0.0606
29855SOL    HW198533  10.640   2.287   4.038  0.6298 -0.2315  1.6295
29855SOL    HW298534  10.498   2.336   4.025  0.9831  0.1317 -1.8571
29856SOL     OW98535   3.213   6.867   7.816 -0.0086 -0.0550 -0.2929
29856SOL    HW198536   3.235   6.799   7.880  0.5097 -0.7474 -1.1892
29856SOL    HW298537   3.140   6.830   7.767 -0.8443  0.7472  0.2987
29857SOL     OW98538   4.899   8.708   9.648  0.6466  0.4626  0.4486
29857SOL    HW198539   4.910   8.668   9.734  0.2623  1.0690  0.7918
29857SOL    HW298540   4.976   8.765   9.639  0.3198  0.9572  0.7173
29858SOL     OW98541   9.631   6.042   8.947 -0.6571  0.0263  0.3631
29858SOL    HW198542   9.716   6.084   8.959 -0.4800 -0.0216 -0.6551
29858SOL    HW298543   9.617   5.993   9.028 -0.3513  1.1320  1.1020
29859SOL     OW98544   9.669   0.168  11.085 -0.1788  0.2868 -0.2690
29859SOL    HW198545   9.761   0.189  11.071 -0.4022  1.5281 -0.0046
29859SOL    HW298546   9.641   0.129  11.002  0.8083 -1.0115 -0.0207
29860SOL     OW98547   6.933   9.081   6.839 -0.3958 -0.5035 -0.1411
29860SOL    HW198548   6.993   9.006   6.837  0.9441  0.4092  2.1646
29860SOL    HW298549   6.990   9.158   6.838 -1.6204  0.4320  0.0407
29861SOL     OW98550   0.278   1.888   6.558  0.5439 -0.3884 -0.5182
29861SOL    HW198551   0.224   1.854   6.630  0.7201  0.9688  0.2945
29861SOL    HW298552   0.363   1.846   6.571  0.7723  0.3466  0.4915
29862SOL     OW98553   4.083  11.573   1.162  0.2239 -0.4317  0.3043
29862SOL    HW198554   4.170  11.563   1.123  1.4014 -3.7903  3.2524
29862SOL    HW298555   4.028  11.512   1.113 -0.0837  0.4499 -0.4705
29863SOL     OW98556   0.997  11.505   3.145 -0.5375  0.5244 -0.6338
29863SOL    HW198557   1.088  11.534   3.139 -0.3664  0.1725  0.1589
29863SOL    HW298558   0.994  11.454   3.226 -1.2746 -0.0583 -1.0221
29864SOL     OW98559   6.162   9.564  12.348  0.5557  0.2234  0.3829
29864SOL    HW198560   6.251   9.597  12.335  0.6644  0.1472  0.9034
29864SOL    HW298561   6.160   9.538  12.440 -0.1445  0.6405  0.4900
29865SOL     OW98562   3.409  11.555   4.773  0.1947  0.0145  0.4958
29865SOL    HW198563   3.416  11.650   4.782  0.4904  0.2592 -1.6394
29865SOL    HW298564   3.481  11.521   4.826  0.0849  0.9853  1.2900
29866SOL     OW98565  12.571  10.226   5.362  0.4587 -0.5337 -0.4019
29866SOL    HW198566  12.550  10.135   5.380  2.4159 -1.1710 -1.0246
29866SOL    HW298567  12.546  10.239   5.270 -0.0210 -0.3757 -0.2496
29867SOL     OW98568   5.534   8.043   7.764 -0.4330 -0.1151  0.4279
29867SOL    HW198569   5.500   8.058   7.853 -1.7582 -1.8167  0.2421
29867SOL    HW298570   5.458   8.018   7.713  0.1782  1.5305 -1.4319
29868SOL     OW98571  11.872   0.955   8.297 -0.0516 -0.2690  0.6695
29868SOL    HW198572  11.798   0.992   8.250  1.5337  0.6451 -1.2780
29868SOL    HW298573  11.912   0.893   8.236  1.0227 -0.4515  1.5051
29869SOL     OW98574  10.211   5.175   5.772  0.2487 -0.0967 -0.1758
29869SOL    HW198575  10.237   5.263   5.798 -2.1141  0.5805  0.0690
29869SOL    HW298576  10.230   5.171   5.678  1.8307  0.0656  0.1020
29870SOL     OW98577   1.070   1.505  10.899  0.6122 -0.2425 -0.0335
29870SOL    HW198578   1.007   1.561  10.944 -0.4201 -1.5475  0.2106
29870SOL    HW298579   1.074   1.538  10.810  0.3308  0.4563  0.2086
29871SOL     OW98580   7.144   6.632   4.242 -0.5661 -0.4847  0.0769
29871SOL    HW198581   7.201   6.563   4.206 -0.3712 -0.0414 -0.4740
29871SOL    HW298582   7.177   6.713   4.203 -1.0560 -0.1255  0.4020
29872SOL     OW98583   5.672   2.334   8.529 -0.0489 -0.2880  0.2386
29872SOL    HW198584   5.689   2.361   8.439  0.2456  1.8978  0.9129
29872SOL    HW298585   5.716   2.249   8.537 -0.4313 -0.7377 -1.7649
29873SOL     OW98586  10.958   6.373   2.500 -0.3103 -0.2930 -0.2451
29873SOL    HW198587  10.972   6.309   2.431 -0.9023  0.1187 -0.7556
29873SOL    HW298588  10.863   6.372   2.515 -0.5818  1.6477 -1.4441
29874SOL     OW98589  12.109   3.766   1.266 -0.0170 -0.1672 -0.1979
29874SOL    HW198590  12.129   3.753   1.359 -1.9146  2.5057  0.7138
29874SOL    HW298591  12.174   3.830   1.237 -1.0860  1.0970  0.1023
29875SOL     OW98592   1.388   9.990   2.948 -0.4387 -0.1814  0.0120
29875SOL    HW198593   1.336   9.937   3.008  0.9617 -0.0920  1.3684
29875SOL    HW298594   1.468   9.939   2.934 -0.5441  0.0148 -1.4284
29876SOL     OW98595   1.752   9.734   1.071  0.5924  0.0949 -0.4966
29876SOL    HW198596   1.659   9.748   1.085  0.7670  1.7131 -0.7816
29876SOL    HW298597   1.789   9.729   1.159  0.3548  0.3625 -0.3801
29877SOL     OW98598   0.124  10.348   4.968  0.3772 -0.3552 -0.2524
29877SOL    HW198599   0.198  10.300   4.932  1.1915  0.0086  0.9034
29877SOL    HW298600   0.161  10.402   5.037 -0.7106  1.0526 -0.7127
29878SOL     OW98601   3.754   8.610  11.381 -0.1767 -0.5719  0.4693
29878SOL    HW198602   3.709   8.541  11.430 -0.5865 -0.9796 -0.4382
29878SOL    HW298603   3.805   8.657  11.446 -1.3773 -0.5313  1.4241
29879SOL     OW98604   5.234   6.931   3.520 -0.9385  0.4616  0.1215
29879SOL    HW198605   5.263   6.923   3.611 -1.4941  1.7290  0.4387
29879SOL    HW298606   5.139   6.941   3.527 -0.7842  2.8076 -0.3966
29880SOL     OW98607   4.855   4.959   0.321  0.2094 -0.3964 -0.2342
29880SOL    HW198608   4.944   4.934   0.346  0.1678  0.4688  0.8530
29880SOL    HW298609   4.798   4.909   0.379 -0.0886 -1.6082 -1.4996
29881SOL     OW98610   3.944   4.021   7.851  0.8273 -0.5482 -0.0111
29881SOL    HW198611   3.943   3.990   7.760 -1.0970 -0.0300 -0.1994
29881SOL    HW298612   3.907   3.949   7.901 -0.5711  0.1378 -0.0135
29882SOL     OW98613   4.867   4.831   2.249 -0.1865 -0.4092  0.1798
29882SOL    HW198614   4.924   4.755   2.238  0.8228  0.6398 -2.7474
29882SOL    HW298615   4.926   4.904   2.263 -0.9923  0.2715  0.1228
29883SOL     OW98616   5.110   1.983   3.704 -0.6190 -0.1535  0.3026
29883SOL    HW198617   5.193   2.031   3.708 -0.9938  0.4943  0.5910
29883SOL    HW298618   5.054   2.036   3.647 -0.9963 -0.3063  0.5197
29884SOL     OW98619   0.475   4.152   4.425  0.0799 -0.0220 -0.0239
29884SOL    HW198620   0.564   4.117   4.433 -0.9552 -3.0642 -0.4760
29884SOL    HW298621   0.431   4.126   4.506 -0.7627  0.3307 -0.3501
29885SOL     OW98622   8.213   4.245   0.691  0.2175  0.0585 -0.0163
29885SOL    HW198623   8.217   4.289   0.776 -1.4946 -2.4646  1.5342
29885SOL    HW298624   8.271   4.169   0.701  0.3560 -0.0196 -1.2986
29886SOL     OW98625  11.137   0.973   5.268  0.4843  0.2866 -0.0860
29886SOL    HW198626  11.105   0.948   5.181  0.3410 -0.5141  0.1893
29886SOL    HW298627  11.137   0.892   5.318  1.7956  0.4888  0.2906
29887SOL     OW98628   9.632   6.000   8.549  0.2567 -0.1714 -0.3875
29887SOL    HW198629   9.609   5.931   8.486  0.4176  0.1643 -0.8184
29887SOL    HW298630   9.704   6.047   8.507 -1.5691  1.9635 -1.3442
29888SOL     OW98631   0.990   8.479   1.018 -0.5200 -0.2507 -0.0887
29888SOL    HW198632   0.942   8.562   1.019  0.6381  0.4512 -0.2604
29888SOL    HW298633   0.976   8.442   1.105  0.1030  0.8342  0.4965
29889SOL     OW98634   9.789   8.517   4.750 -0.1660 -0.7257 -0.1319
29889SOL    HW198635   9.721   8.491   4.811  0.6373 -0.3622  0.9481
29889SOL    HW298636   9.747   8.514   4.664 -0.9213 -2.6698  0.2590
29890SOL     OW98637  10.587   8.382  12.369  0.2498 -0.4084 -0.0155
29890SOL    HW198638  10.599   8.457  12.427 -0.0232  0.6368 -1.2729
29890SOL    HW298639  10.646   8.399  12.295 -1.4067 -0.3235 -1.3566
29891SOL     OW98640   6.300   3.157   7.984 -0.0914 -0.2087 -0.1739
29891SOL    HW198641   6.316   3.154   7.889 -0.2568 -0.4913 -0.1947
29891SOL    HW298642   6.211   3.191   7.992 -0.1507 -0.3737 -0.1282
29892SOL     OW98643   5.764   8.848   2.959  0.3880 -0.4147 -0.1799
29892SOL    HW198644   5.758   8.824   2.867 -0.1362  0.4542 -0.3821
29892SOL    HW298645   5.735   8.770   3.006  0.1762 -0.6978 -0.7646
29893SOL     OW98646  11.341  11.787  11.645  0.2172 -0.0577 -0.5133
29893SOL    HW198647  11.247  11.769  11.640  0.3330 -1.2153  0.9134
29893SOL    HW298648  11.362  11.827  11.561 -1.8545  1.7615 -0.2386
29894SOL     OW98649   6.244  11.525   9.321  0.3718 -0.1632 -0.0335
29894SOL    HW198650   6.313  11.560   9.378  1.0605  1.3787 -1.7484
29894SOL    HW298651   6.287  11.452   9.275  0.4392 -0.0910 -0.0858
29895SOL     OW98652   5.156  11.566   3.631 -0.0800  0.3016 -0.5640
29895SOL    HW198653   5.226  11.572   3.695 -0.2724 -0.0328 -0.3191
29895SOL    HW298654   5.148  11.655   3.595  1.0279  0.1632 -1.2040
29896SOL     OW98655   6.177   8.476   1.902  0.3301 -0.1583 -0.0173
29896SOL    HW198656   6.165   8.535   1.977 -1.3376 -0.1561 -0.2591
29896SOL    HW298657   6.148   8.391   1.935 -1.6237  0.0853 -0.9887
29897SOL     OW98658   3.740   9.408  12.494 -0.3960 -0.2088  0.4358
29897SOL    HW198659   3.732   9.381  12.403  1.1895  0.9270 -0.0884
29897SOL    HW298660   3.651   9.403  12.529 -1.0968 -0.2647 -1.2864
29898SOL     OW98661   7.396  12.248   6.833  0.0756  0.7348  0.0075
29898SOL    HW198662   7.343  12.327   6.831 -0.9392  0.1996  2.4240
29898SOL    HW298663   7.442  12.252   6.917  2.0960  0.0355 -0.9970
29899SOL     OW98664  10.087  11.838  11.441  0.0245 -0.3576  0.7450
29899SOL    HW198665  10.062  11.879  11.524 -0.9764 -1.1864  0.8694
29899SOL    HW298666  10.067  11.745  11.453  2.5532 -0.9777  0.5745
29900SOL     OW98667  10.387   2.278   0.914 -0.0654  0.0052  0.7071
29900SOL    HW198668  10.306   2.272   0.864  1.1949 -0.5692 -1.3750
29900SOL    HW298669  10.413   2.370   0.908  1.0046 -0.3624 -1.3756
29901SOL     OW98670   4.509   0.537   5.781  0.3091 -0.2450 -0.1863
29901SOL    HW198671   4.463   0.486   5.848  0.2824 -0.4008 -0.3239
29901SOL    HW298672   4.539   0.615   5.827 -2.6869  1.3563 -0.7380
29902SOL     OW98673   1.845  12.451   8.969 -0.6052 -0.0626  0.4549
29902SOL    HW198674   1.939  12.467   8.965 -0.5876 -0.3176 -0.7779
29902SOL    HW298675   1.829  12.388   8.899 -2.0906  2.1329 -1.3405
29903SOL     OW98676   2.746   6.684   3.764  0.4508 -0.1385 -0.3898
29903SOL    HW198677   2.818   6.726   3.811  1.0615 -0.5999 -0.9010
29903SOL    HW298678   2.677   6.750   3.762  0.3134 -0.1854  1.3718
29904SOL     OW98679   8.229  10.736   9.174  0.0170  0.2673  0.2116
29904SOL    HW198680   8.196  10.705   9.259  0.1113 -2.4242 -0.6492
29904SOL    HW298681   8.238  10.830   9.185  0.1816 -0.0088  3.2527
29905SOL     OW98682   3.087  12.457   4.082 -0.3496  0.1314 -0.0525
29905SOL    HW198683   3.135  12.520   4.028  2.6969 -1.2048  0.8585
29905SOL    HW298684   3.116  12.476   4.171  0.0709 -2.0038  0.3141
29906SOL     OW98685   8.839   0.370   9.635  0.2439  0.4517 -0.7977
29906SOL    HW198686   8.918   0.422   9.622  0.0642  0.8280 -0.4107
29906SOL    HW298687   8.786   0.421   9.697 -0.0053 -0.1139 -0.5362
29907SOL     OW98688   3.807   5.413   6.977 -0.1317  0.0715  0.3433
29907SOL    HW198689   3.825   5.473   7.050 -0.5906 -1.7811  2.0680
29907SOL    HW298690   3.734   5.454   6.930 -0.3614  0.9271  1.4061
29908SOL     OW98691   3.745  10.363   2.684 -0.6658 -0.7084  0.0685
29908SOL    HW198692   3.749  10.316   2.768 -0.0181 -0.0776  0.4043
29908SOL    HW298693   3.681  10.433   2.699  0.6648  0.4418  0.6035
29909SOL     OW98694   0.815   5.861   9.829 -0.1290 -0.2263  0.3450
29909SOL    HW198695   0.871   5.846   9.905  0.0619 -0.0861  0.2345
29909SOL    HW298696   0.873   5.848   9.754  0.1176  1.2532  0.2404
29910SOL     OW98697   9.889   8.211   6.889  0.0076 -0.2246  0.4656
29910SOL    HW198698   9.930   8.296   6.903 -2.1127  0.9632 -0.1000
29910SOL    HW298699   9.958   8.147   6.908  1.3714  1.5713  1.8628
29911SOL     OW98700   8.233   9.799   8.720 -0.0755 -0.1422 -0.1054
29911SOL    HW198701   8.229   9.890   8.747 -0.4570 -0.1193 -0.2317
29911SOL    HW298702   8.165   9.755   8.770  0.3325 -0.4284  0.2081
29912SOL     OW98703   6.980   7.578   5.655  0.2282 -0.1210 -0.3765
29912SOL    HW198704   7.006   7.491   5.624  1.0784 -0.1146  0.2917
29912SOL    HW298705   7.045   7.600   5.722 -0.6521  0.5397  0.2786
29913SOL     OW98706   7.988   4.441   3.407  0.4038 -0.1236  0.4538
29913SOL    HW198707   8.056   4.424   3.342  1.1013  0.5095  1.0006
29913SOL    HW298708   7.973   4.357   3.450  1.1866 -0.1663  0.6466
29914SOL     OW98709   5.767   2.097   1.527 -0.2245 -0.4459 -0.1376
29914SOL    HW198710   5.738   2.181   1.561 -2.1597 -1.6861  1.4730
29914SOL    HW298711   5.840   2.119   1.468 -1.2511  2.4035 -0.4954
29915SOL     OW98712   2.119  10.230   4.322  0.1186 -0.0611 -0.1372
29915SOL    HW198713   2.165  10.312   4.334 -1.0616  0.7477 -0.8736
29915SOL    HW298714   2.173  10.165   4.367  0.6075  1.2518  1.2824
29916SOL     OW98715  11.536   9.145   0.013 -0.3831  0.0793  0.8385
29916SOL    HW198716  11.584   9.201   0.074  0.2096  0.5725 -0.0645
29916SOL    HW298717  11.466   9.200  -0.021  0.5509  0.4970 -0.4916
29917SOL     OW98718   1.549  11.568   0.909  1.0233  0.1798  0.1056
29917SOL    HW198719   1.538  11.525   0.994  0.7072  1.5798  0.8147
29917SOL    HW298720   1.468  11.551   0.862  0.3170  1.1503  0.9344
29918SOL     OW98721  10.408   9.745  10.484  0.1811 -0.5624 -0.5754
29918SOL    HW198722  10.389   9.839  10.480  0.1010 -0.6282 -2.7207
29918SOL    HW298723  10.502   9.739  10.468  0.2752 -0.8376  0.0516
29919SOL     OW98724   4.694   4.664   2.965  0.4095  0.5715  0.0158
29919SOL    HW198725   4.660   4.620   2.888  0.2595  0.4983  0.1233
29919SOL    HW298726   4.740   4.741   2.931 -0.0424  0.7865 -0.1156
29920SOL     OW98727   3.244   1.463   2.063 -0.4995 -0.6628  0.3675
29920SOL    HW198728   3.297   1.395   2.021 -1.2004 -1.0754  0.1250
29920SOL    HW298729   3.214   1.518   1.990  0.0963 -0.0658  0.5671
29921SOL     OW98730   9.587   7.145   3.920 -0.2578  0.2437 -0.2037
29921SOL    HW198731   9.504   7.192   3.928  0.3643  1.3587 -0.1326
29921SOL    HW298732   9.652   7.213   3.905  1.1067 -0.2572  2.6976
29922SOL     OW98733   6.544   7.923   5.722  0.5891 -0.0261 -0.8233
29922SOL    HW198734   6.608   7.986   5.756 -0.5679  1.1759 -0.7653
29922SOL    HW298735   6.559   7.922   5.628 -1.4072  2.8687 -1.3159
29923SOL     OW98736   1.409   1.084   0.827  0.0549 -0.2091 -0.2824
29923SOL    HW198737   1.491   1.123   0.858 -0.7698 -0.4603  2.5173
29923SOL    HW298738   1.421   0.990   0.840 -0.0298 -0.4226 -1.6377
29924SOL     OW98739   5.370   7.962  12.187 -0.1037  0.0857 -0.6287
29924SOL    HW198740   5.342   7.944  12.097  0.3276 -0.4027 -0.6677
29924SOL    HW298741   5.461   7.932  12.190  0.3386  1.3998 -0.4198
29925SOL     OW98742   7.639   9.987   2.897  0.4056  0.4374  0.4413
29925SOL    HW198743   7.585   9.930   2.953  0.7524  0.0722  0.4067
29925SOL    HW298744   7.589   9.995   2.816  1.7044 -2.3353 -0.7728
29926SOL     OW98745   4.720   8.557   6.047 -0.6325  0.9621 -0.1520
29926SOL    HW198746   4.707   8.520   6.135  0.2272 -1.9979 -1.1354
29926SOL    HW298747   4.799   8.610   6.056 -0.5721  0.7385  0.8727
29927SOL     OW98748   2.460   3.046   6.624 -0.3909 -0.0790 -0.5584
29927SOL    HW198749   2.482   2.992   6.548 -0.7556 -0.9022 -0.0850
29927SOL    HW298750   2.413   2.988   6.682 -0.4611  0.6553  0.1343
29928SOL     OW98751   8.657   2.190   5.344 -0.6018 -0.0807  0.0898
29928SOL    HW198752   8.622   2.120   5.399  2.8266 -0.0788  2.6259
29928SOL    HW298753   8.658   2.267   5.401  2.5038  0.0944 -0.0227
29929SOL     OW98754  10.323  11.021   9.233 -0.5153  0.2653 -0.6669
29929SOL    HW198755  10.357  11.110   9.234 -0.2200  0.1526 -0.4384
29929SOL    HW298756  10.309  11.001   9.140  0.6998  0.0636 -0.8163
29930SOL     OW98757   4.382   7.939   7.034 -0.4702 -0.0024  0.4414
29930SOL    HW198758   4.334   7.949   6.952  0.2852 -2.1489 -0.3438
29930SOL    HW298759   4.464   7.986   7.020  0.4167 -1.7775 -0.7919
29931SOL     OW98760   7.663   4.732   8.440  0.3675  0.4247 -0.3582
29931SOL    HW198761   7.597   4.725   8.509  0.4365 -1.2073 -0.4281
29931SOL    HW298762   7.642   4.661   8.379  2.5409 -0.5700 -0.0491
29932SOL     OW98763   0.331   5.319   7.099 -0.1064 -0.5417  0.4166
29932SOL    HW198764   0.290   5.309   7.185 -0.9129 -0.3875  0.0670
29932SOL    HW298765   0.373   5.235   7.083 -1.9403 -1.4380 -0.0183
29933SOL     OW98766   1.369   7.223   7.183  0.0515  0.4169 -0.0646
29933SOL    HW198767   1.382   7.130   7.164  0.6045  0.5603 -0.4310
29933SOL    HW298768   1.458   7.257   7.197 -0.1590  0.8548  0.2296
29934SOL     OW98769   9.715   2.455   1.732 -0.2242  0.2988  0.3051
29934SOL    HW198770   9.732   2.501   1.650 -2.6956  2.2418  0.7750
29934SOL    HW298771   9.666   2.377   1.706 -1.6380  1.2719 -0.0829
29935SOL     OW98772  11.048   0.341   3.451 -0.2577  0.0029  1.0582
29935SOL    HW198773  11.080   0.260   3.412  0.1629  0.5409  0.2773
29935SOL    HW298774  11.126   0.384   3.487 -0.5912 -0.3304  2.2330
29936SOL     OW98775   5.105  11.629  12.251 -0.0753  0.0395  0.3940
29936SOL    HW198776   5.110  11.544  12.208  0.3125  0.0411  0.4322
29936SOL    HW298777   5.057  11.684  12.190 -3.5381 -1.1001  1.8108
29937SOL     OW98778   5.984   8.843   2.050  0.6340  0.1556  0.7380
29937SOL    HW198779   5.942   8.871   1.969  0.8017 -1.1049  0.1943
29937SOL    HW298780   5.946   8.900   2.117 -0.4364  0.3943 -0.0396
29938SOL     OW98781  11.106   5.009   7.555 -0.3390  0.5391 -0.3669
29938SOL    HW198782  11.132   5.093   7.593 -0.5323  0.1968  0.5528
29938SOL    HW298783  11.022   4.989   7.597  0.2266 -0.6311  0.2625
29939SOL     OW98784  12.437   4.533   0.630  0.1436  0.0410 -0.0878
29939SOL    HW198785  12.428   4.438   0.618  3.1059 -0.2326 -0.9078
29939SOL    HW298786  12.454   4.567   0.542  1.7954  0.9105  0.5272
29940SOL     OW98787   9.725   9.019   4.111 -0.4104  0.1413  0.2375
29940SOL    HW198788   9.747   9.008   4.018  0.7525  0.1701  0.4962
29940SOL    HW298789   9.662   9.090   4.112 -0.9091 -0.2706 -0.5869
29941SOL     OW98790   0.435   5.657   2.395 -0.3644 -0.1863 -0.1182
29941SOL    HW198791   0.467   5.745   2.418  1.3262 -0.4265 -1.3201
29941SOL    HW298792   0.447   5.652   2.300  0.0847 -1.9046  0.0058
29942SOL     OW98793   2.474   8.934   4.354 -0.3602 -0.5936  0.5269
29942SOL    HW198794   2.430   8.920   4.270  0.2479 -0.6502  0.2142
29942SOL    HW298795   2.408   8.977   4.408 -0.2563  0.9133 -0.4934
29943SOL     OW98796   6.445   3.710   7.542 -0.6684  0.9094 -0.1617
29943SOL    HW198797   6.475   3.644   7.605 -0.2587  1.3950  0.1599
29943SOL    HW298798   6.470   3.794   7.581 -1.0561  1.2533 -0.6330
29944SOL     OW98799   0.180  10.067   6.635 -0.4331 -0.7324 -0.0767
29944SOL    HW198800   0.086  10.052   6.626 -1.0551  0.8278  2.6830
29944SOL    HW298801   0.192  10.158   6.610 -0.7606  0.8521  4.6025
29945SOL     OW98802   6.807   7.235   6.690  0.8367  0.1993 -0.0346
29945SOL    HW198803   6.735   7.223   6.752  0.3420  0.4399 -0.5634
29945SOL    HW298804   6.766   7.269   6.611  1.4415 -0.2618 -0.5558
29946SOL     OW98805   4.573   9.844   0.144  0.6091  0.8567 -0.6979
29946SOL    HW198806   4.662   9.849   0.109  1.0965 -1.0660  0.1269
29946SOL    HW298807   4.527   9.784   0.085  1.1204 -1.5116  1.1727
29947SOL     OW98808  11.847   8.575   3.189  0.1258  0.2726 -0.1724
29947SOL    HW198809  11.754   8.577   3.167  0.3350 -1.8564 -1.6044
29947SOL    HW298810  11.851   8.539   3.277 -0.4076 -0.6227 -0.4976
29948SOL     OW98811   8.154  11.658   0.941 -0.1362 -0.0920  0.5378
29948SOL    HW198812   8.066  11.688   0.918 -0.7068 -0.8918  1.6038
29948SOL    HW298813   8.150  11.641   1.035  1.3224  0.3808  0.7121
29949SOL     OW98814   5.662   7.503   8.416  0.0538 -0.1267 -0.0426
29949SOL    HW198815   5.610   7.542   8.346  0.6128  1.4758  0.3959
29949SOL    HW298816   5.674   7.573   8.479  1.9801 -0.6995  0.3002
29950SOL     OW98817   4.421   5.216   3.261 -0.2134 -0.5201  0.0456
29950SOL    HW198818   4.513   5.213   3.237 -0.4408 -2.2715 -0.7831
29950SOL    HW298819   4.375   5.230   3.178 -0.7258 -0.5630  0.3172
29951SOL     OW98820   9.767   8.333   1.486 -0.2671 -0.0618  0.0293
29951SOL    HW198821   9.820   8.412   1.496 -1.5249  0.8876 -0.4618
29951SOL    HW298822   9.716   8.348   1.407 -1.5570 -0.7503  0.6834
29952SOL     OW98823   6.734   7.723   5.792  0.2115 -0.1681 -0.1431
29952SOL    HW198824   6.651   7.769   5.800  0.7475  0.9209 -0.6817
29952SOL    HW298825   6.727   7.673   5.711  0.0535 -0.1582 -0.1354
29953SOL     OW98826   0.536  11.979   6.200  0.1103  0.3729 -0.6859
29953SOL    HW198827   0.468  11.973   6.133 -1.7652  0.6922  1.0874
29953SOL    HW298828   0.546  11.890   6.232 -2.0355  0.7969  1.3875
29954SOL     OW98829   6.502   6.488   6.641 -0.1107 -0.1827  0.4248
29954SOL    HW198830   6.415   6.450   6.646 -0.9911  1.4953 -1.1068
29954SOL    HW298831   6.517   6.528   6.727 -0.5345 -1.0632  0.9198
29955SOL     OW98832   6.722   2.976   0.407  0.4303  0.1505 -0.4777
29955SOL    HW198833   6.768   2.910   0.356  0.0433  0.2889 -1.0102
29955SOL    HW298834   6.639   2.934   0.431  0.9603 -0.2354  0.7930
29956SOL     OW98835   4.855   9.530   7.826 -0.3606 -0.4673 -0.0126
29956SOL    HW198836   4.783   9.475   7.857 -0.1531 -1.1000 -0.6255
29956SOL    HW298837   4.838   9.541   7.733  1.4772 -2.4958 -0.6918
29957SOL     OW98838  12.497  11.433   2.962  0.2196  0.2545  0.7523
29957SOL    HW198839  12.577  11.451   2.913  0.9932 -1.2300  1.3851
29957SOL    HW298840  12.429  11.426   2.895  0.6815  1.1789  0.1682
29958SOL     OW98841   4.875   7.793   5.306 -0.1114 -0.7232  0.2645
29958SOL    HW198842   4.896   7.792   5.400 -1.6100 -0.7707  0.6403
29958SOL    HW298843   4.910   7.876   5.275 -1.1158  0.1331  1.2923
29959SOL     OW98844   1.963  10.969   8.164  0.3676 -0.0307 -0.1627
29959SOL    HW198845   1.890  10.907   8.160  1.1929 -1.0008 -0.8643
29959SOL    HW298846   2.040  10.913   8.171  1.1037  0.9450 -0.3895
29960SOL     OW98847   3.198   4.812   5.992  0.0471  0.0994 -0.0366
29960SOL    HW198848   3.222   4.867   5.917  2.5708  0.1821  0.7263
29960SOL    HW298849   3.115   4.849   6.023  0.1733  1.6030 -1.3252
29961SOL     OW98850   3.293   5.542   4.868 -0.5492  0.7306 -0.1912
29961SOL    HW198851   3.274   5.501   4.783  2.0745  0.0245 -0.5364
29961SOL    HW298852   3.366   5.601   4.850  0.2888  0.3055  1.6181
29962SOL     OW98853   3.820  12.225   1.680 -0.6528  0.3022 -0.6120
29962SOL    HW198854   3.739  12.244   1.727 -1.1324  0.1810 -1.3693
29962SOL    HW298855   3.886  12.277   1.725 -0.6494 -1.4273  1.5378
29963SOL     OW98856   4.579  10.143   7.553 -0.4594  0.6151 -0.2781
29963SOL    HW198857   4.608  10.087   7.626 -1.0361 -1.3147 -1.4373
29963SOL    HW298858   4.655  10.197   7.532 -0.1333  0.8668  1.4165
29964SOL     OW98859  11.539   4.340   0.576 -0.1710  0.4499  0.5982
29964SOL    HW198860  11.530   4.256   0.532  0.0894  0.0900  1.2248
29964SOL    HW298861  11.494   4.402   0.518 -0.3825 -0.1165  0.1452
29965SOL     OW98862   6.229   9.645   1.860 -0.3818 -0.3080  0.1703
29965SOL    HW198863   6.184   9.562   1.871 -0.4016 -0.2667  0.3919
29965SOL    HW298864   6.193   9.701   1.929 -0.3071 -0.1425  0.0745
29966SOL     OW98865   7.592   6.347  11.251 -0.2325  0.1047 -0.3839
29966SOL    HW198866   7.569   6.307  11.334  0.9499 -2.8425 -1.3471
29966SOL    HW298867   7.659   6.412  11.273 -0.9907  0.4415  1.0647
29967SOL     OW98868  10.930   0.153   7.236 -0.3746 -0.0152  0.3266
29967SOL    HW198869  11.004   0.153   7.298 -1.3126  0.3393  1.4959
29967SOL    HW298870  10.886   0.070   7.252 -0.7421  0.1708  0.2783
29968SOL     OW98871   4.827   0.097   8.994  0.1680  0.1882 -0.8098
29968SOL    HW198872   4.737   0.103   8.964  0.5082 -1.9347 -2.5682
29968SOL    HW298873   4.823   0.041   9.072 -0.0763  0.3031 -0.7419
29969SOL     OW98874   2.982  10.564  10.624 -0.4287  0.0666 -0.2635
29969SOL    HW198875   2.889  10.543  10.627 -0.1513 -1.9232 -2.5976
29969SOL    HW298876   2.986  10.658  10.609 -1.9387  0.6579  2.3777
29970SOL     OW98877  10.502  10.796   3.760 -0.5098 -0.0994  0.0320
29970SOL    HW198878  10.430  10.843   3.802 -1.7477 -0.1008 -1.9125
29970SOL    HW298879  10.462  10.756   3.682  0.8877 -2.8520  0.5841
29971SOL     OW98880   8.515   2.370   2.019 -0.0371  0.0009  0.1940
29971SOL    HW198881   8.451   2.321   2.071 -1.4641  1.4259 -0.1570
29971SOL    HW298882   8.506   2.335   1.930  0.1465 -0.2406  0.2680
29972SOL     OW98883  10.370   0.523   4.003 -0.3545 -0.2325 -0.5998
29972SOL    HW198884  10.311   0.531   3.928  0.4754  0.1214 -1.2237
29972SOL    HW298885  10.340   0.444   4.049 -2.2088  0.7042 -0.0999
29973SOL     OW98886   0.666   0.789   9.302 -0.4269 -0.4114  0.0939
29973SOL    HW198887   0.747   0.825   9.338  1.3757 -2.1136 -1.9713
29973SOL    HW298888   0.676   0.694   9.309 -1.9103 -0.6755 -0.9048
29974SOL     OW98889  12.089   2.385   4.196  0.3197 -0.0767  0.6066
29974SOL    HW198890  12.068   2.477   4.181 -1.5143 -0.6926 -0.9323
29974SOL    HW298891  12.011   2.348   4.237  0.3399 -1.2908 -0.3743
29975SOL     OW98892  12.254   5.116   2.978  0.5083  0.1625 -0.1026
29975SOL    HW198893  12.288   5.131   3.067 -0.9260 -1.8779  0.8703
29975SOL    HW298894  12.304   5.041   2.945  0.0719  0.0141 -0.4407
29976SOL     OW98895   8.053   8.121   8.160 -0.3728 -0.2953  0.5322
29976SOL    HW198896   8.067   8.028   8.176 -3.8602 -0.9580  0.4094
29976SOL    HW298897   8.035   8.127   8.066 -1.5284  0.2677  0.7765
29977SOL     OW98898   2.537   4.562   1.191  0.2092 -0.0012  0.7015
29977SOL    HW198899   2.579   4.571   1.105 -0.4056 -0.0592  0.3888
29977SOL    HW298900   2.454   4.517   1.172 -0.0455  0.2189  1.2936
29978SOL     OW98901   9.878   4.052   2.293  0.5521  0.3792 -0.9756
29978SOL    HW198902   9.942   4.005   2.347  0.3675  1.1801 -0.0358
29978SOL    HW298903   9.920   4.061   2.208  1.9821  1.4760 -0.1840
29979SOL     OW98904  11.236   0.424   2.991 -0.2513 -0.5369  0.2050
29979SOL    HW198905  11.142   0.413   2.977 -0.1607 -1.0279 -0.0386
29979SOL    HW298906  11.254   0.377   3.072 -0.3607  0.2937  0.7226
29980SOL     OW98907   8.276  11.917   2.118  0.2541  0.8449 -0.1432
29980SOL    HW198908   8.184  11.911   2.094  0.3117  0.8252 -0.3621
29980SOL    HW298909   8.304  12.003   2.087  1.0890 -0.2906 -2.8654
29981SOL     OW98910   3.477   9.780   2.029 -0.0949  0.1790 -0.1312
29981SOL    HW198911   3.540   9.750   1.963 -2.4099 -2.3757 -1.3509
29981SOL    HW298912   3.409   9.825   1.979 -0.3715  0.9801  0.9235
29982SOL     OW98913   6.710   5.984   4.018 -0.2720 -0.1081  0.3325
29982SOL    HW198914   6.720   6.029   4.101  1.2959  0.9768 -0.4015
29982SOL    HW298915   6.620   5.952   4.018 -0.9450  1.6804  1.5517
29983SOL     OW98916   4.012   1.893   3.866 -0.1542  0.3699  0.0778
29983SOL    HW198917   3.985   1.872   3.776 -0.8349 -0.4597  0.4593
29983SOL    HW298918   4.086   1.836   3.882  0.4713  1.0848 -0.2178
29984SOL     OW98919  11.402   3.704   9.263 -0.1059  0.3490  0.2275
29984SOL    HW198920  11.324   3.709   9.317 -0.4212  0.5515 -0.2400
29984SOL    HW298921  11.451   3.784   9.284  0.6536 -0.4161  1.5197
29985SOL     OW98922   0.657   2.780   6.909 -0.5151 -0.6649  0.2556
29985SOL    HW198923   0.608   2.739   6.838 -0.8109  0.6778 -0.3456
29985SOL    HW298924   0.747   2.750   6.896 -0.8383 -1.7187  0.3050
29986SOL     OW98925   6.705  10.126  10.514  0.2206 -0.1447 -0.9330
29986SOL    HW198926   6.627  10.105  10.463 -0.7895 -1.1452  0.9320
29986SOL    HW298927   6.746  10.042  10.532  1.4063  0.3215 -1.3564
29987SOL     OW98928  10.285   4.125   3.052  0.2479 -0.9368 -0.7565
29987SOL    HW198929  10.364   4.080   3.081  0.2326 -0.6397 -0.2399
29987SOL    HW298930  10.309   4.164   2.968 -0.3365 -3.5729 -2.2428
29988SOL     OW98931   7.172   1.983   5.215 -0.6048  0.1632  0.1824
29988SOL    HW198932   7.226   1.906   5.233  1.7536  1.9541  1.3383
29988SOL    HW298933   7.105   1.982   5.283  0.6777  0.2019  1.4926
29989SOL     OW98934  11.714   3.747   5.752  0.7720  0.3023  0.2797
29989SOL    HW198935  11.681   3.700   5.828 -0.1699 -0.1411 -0.3835
29989SOL    HW298936  11.751   3.827   5.788 -1.7054  1.2040  1.0432
29990SOL     OW98937   6.950   7.723   6.298  0.2078 -0.1338  0.7470
29990SOL    HW198938   6.910   7.798   6.342  1.2591  0.2689  1.0720
29990SOL    HW298939   6.916   7.725   6.209 -1.5602 -0.6510  1.3830
29991SOL     OW98940   9.824   0.574   5.576  0.3055  0.6047  0.0400
29991SOL    HW198941   9.759   0.527   5.523  1.0580  0.9399 -1.2249
29991SOL    HW298942   9.788   0.663   5.585 -0.1306  0.3770  0.6822
29992SOL     OW98943   0.940   8.459  12.540  0.0223  0.0556  0.2686
29992SOL    HW198944   0.950   8.519  12.465  3.5613 -0.0153  0.4953
29992SOL    HW298945   0.976   8.376  12.508 -3.0552 -1.5208  0.5805
29993SOL     OW98946   1.178   5.682  11.913  0.1653 -0.4905  0.0429
29993SOL    HW198947   1.158   5.773  11.936 -0.2016 -0.4206 -0.5295
29993SOL    HW298948   1.095   5.646  11.881  0.2018 -1.1666  0.6781
29994SOL     OW98949   7.276  10.499   3.930 -0.3570  0.6732 -0.1149
29994SOL    HW198950   7.231  10.502   4.014 -0.8292  0.0142 -0.3411
29994SOL    HW298951   7.207  10.498   3.865 -0.1222 -2.1987 -0.4255
29995SOL     OW98952   0.619   3.231   8.252  0.0221  0.2234  0.2806
29995SOL    HW198953   0.607   3.296   8.321  1.3769  0.8685 -0.0775
29995SOL    HW298954   0.713   3.213   8.250 -0.0112  0.0611 -1.2565
29996SOL     OW98955   8.084   4.480   5.611 -0.3958 -0.3651  0.0649
29996SOL    HW198956   8.069   4.574   5.624  0.0664 -0.2762 -0.0559
29996SOL    HW298957   8.109   4.472   5.519  0.7296 -0.4694  0.3766
29997SOL     OW98958   4.001   8.085   7.920 -0.7644  0.0127  0.0651
29997SOL    HW198959   4.039   8.000   7.942  1.1960  0.7578 -0.2599
29997SOL    HW298960   4.043   8.146   7.980  0.4647  1.2306 -1.9244
29998SOL     OW98961  12.176  11.740  12.228 -0.2325  0.0335  0.1706
29998SOL    HW198962  12.223  11.786  12.159 -0.7419  2.0203  1.0761
29998SOL    HW298963  12.116  11.682  12.182  0.5337  0.1396 -1.0161
29999SOL     OW98964   4.204   9.249   4.499  0.2331  0.0111 -0.1888
29999SOL    HW198965   4.256   9.326   4.475  0.1718 -0.0949 -0.6879
29999SOL    HW298966   4.124   9.258   4.446  0.7947 -1.0673 -1.2666
30000SOL     OW98967   9.684  11.411   4.119  0.7907 -0.5750 -0.0723
30000SOL    HW198968   9.617  11.371   4.065  0.1369 -0.2970  0.5143
30000SOL    HW298969   9.675  11.368   4.204  0.9981 -0.1546  0.1668
30001SOL     OW98970   0.546   9.550  12.385  0.1388 -0.7595 -0.2429
30001SOL    HW198971   0.528   9.457  12.403  2.3363 -0.9701  1.3343
30001SOL    HW298972   0.575   9.585  12.469 -2.7178  2.0104 -0.2239
30002SOL     OW98973   8.335  10.392   7.316 -0.1270 -0.9814 -0.0654
30002SOL    HW198974   8.244  10.362   7.319 -0.0273 -1.4269 -1.1670
30002SOL    HW298975   8.328  10.487   7.307 -0.5395 -1.1687 -2.1481
30003SOL     OW98976  11.872   9.821   9.675  0.1919  0.5291  0.3838
30003SOL    HW198977  11.821   9.902   9.679 -1.5873 -0.4162 -1.5483
30003SOL    HW298978  11.889   9.808   9.582  1.4016 -0.7870  0.7509
30004SOL     OW98979   2.742   9.136  10.419  0.2114 -0.1157 -0.1499
30004SOL    HW198980   2.679   9.204  10.442  0.7274  0.5676 -0.6818
30004SOL    HW298981   2.707   9.056  10.458 -1.3945  0.0728 -1.1046
30005SOL     OW98982  10.299   8.990   2.470 -0.1643  0.0641  0.1451
30005SOL    HW198983  10.274   8.954   2.385  0.3787 -0.3356  0.1474
30005SOL    HW298984  10.217   9.018   2.510 -0.5875 -1.0554  0.0874
30006SOL     OW98985   8.475   7.753   6.894  0.0519 -0.1939 -0.8879
30006SOL    HW198986   8.405   7.817   6.907  0.8434  0.4318  0.4104
30006SOL    HW298987   8.551   7.791   6.937  1.2916 -0.7448 -2.5138
30007SOL     OW98988   2.817  10.917   7.915  0.0719  0.3669 -0.0868
30007SOL    HW198989   2.860  10.874   7.841 -0.6431 -1.0946  0.3172
30007SOL    HW298990   2.850  11.007   7.913 -0.7676  0.6886 -2.8331
30008SOL     OW98991   9.492   1.658  11.192 -0.3517 -0.1566 -0.5928
30008SOL    HW198992   9.454   1.736  11.232  0.6321  0.2923 -0.5153
30008SOL    HW298993   9.586   1.672  11.197 -0.0985 -2.0303  0.7754
30009SOL     OW98994   7.513  10.662   9.884  0.1170 -0.0580  0.0797
30009SOL    HW198995   7.554  10.749   9.887  1.2639 -0.5831 -0.1114
30009SOL    HW298996   7.509  10.634   9.975 -1.2176  0.6220  0.2493
30010SOL     OW98997   0.454   2.234  11.796 -0.4594  0.5248  0.0328
30010SOL    HW198998   0.387   2.170  11.820  0.9197 -0.8770  0.3197
30010SOL    HW298999   0.417   2.279  11.720 -0.6592 -2.0948 -1.5763
30011SOL     OW99000   2.937  11.514   6.727  0.0700  0.1435 -0.2281
30011SOL    HW199001   3.009  11.507   6.789 -1.4562  1.7950  1.8761
30011SOL    HW299002   2.903  11.603   6.739 -1.8712 -0.3342 -1.6474
30012SOL     OW99003  11.100   0.766   2.514  0.2463  0.0469 -0.0690
30012SOL    HW199004  11.141   0.737   2.596  1.2751  0.1010 -0.5591
30012SOL    HW299005  11.007   0.774   2.536  0.6152  0.7889  1.2922
30013SOL     OW99006   5.982   0.522   8.673  0.5130  0.1237  0.0586
30013SOL    HW199007   5.981   0.617   8.686  0.9363 -0.0210  1.2576
30013SOL    HW299008   5.907   0.490   8.723  0.9477 -0.2597  0.4748
30014SOL     OW99009   3.847   1.384   8.761 -0.0703 -0.1983  0.6282
30014SOL    HW199010   3.926   1.336   8.738 -0.5722 -0.2150 -1.1491
30014SOL    HW299011   3.843   1.378   8.857  2.2572  0.1262  0.8007
30015SOL     OW99012  11.975  11.759   8.083  0.2803 -0.1591 -0.3076
30015SOL    HW199013  12.038  11.749   8.154 -2.8093 -0.5146  2.6171
30015SOL    HW299014  11.945  11.850   8.090 -2.3613 -1.0357  1.1077
30016SOL     OW99015   0.691   5.484   8.901  0.3375  0.2318 -0.6931
30016SOL    HW199016   0.637   5.562   8.893 -1.0183 -0.7493 -1.6811
30016SOL    HW299017   0.628   5.412   8.912  1.5507 -0.6963  0.5341
30017SOL     OW99018   2.949  10.796  11.749  0.0116  0.2147 -0.7423
30017SOL    HW199019   2.953  10.794  11.845  3.8577  0.9743 -0.7046
30017SOL    HW299020   2.876  10.739  11.726 -0.9492 -0.1081  2.6152
30018SOL     OW99021   8.992   2.254  10.927 -0.0569  0.1890  0.1220
30018SOL    HW199022   8.942   2.172  10.929  2.9053 -1.7833  2.1423
30018SOL    HW299023   8.944   2.312  10.987 -2.8083  0.5174 -2.1631
30019SOL     OW99024  10.595   6.489   8.060 -0.2555  0.0304 -0.4933
30019SOL    HW199025  10.563   6.578   8.045  0.2293  0.3099  0.0606
30019SOL    HW299026  10.690   6.496   8.049 -0.1827 -0.3428 -0.1257
30020SOL     OW99027  11.867   9.464   4.589  0.4319  0.3046 -0.2266
30020SOL    HW199028  11.915   9.411   4.651 -0.3083 -1.0264 -0.7576
30020SOL    HW299029  11.928   9.478   4.516 -0.0387 -1.6847 -1.0652
30021SOL     OW99030   3.900   5.944   4.060  0.6733  0.2021 -0.1658
30021SOL    HW199031   3.943   5.894   3.990  0.5339  0.9072 -0.7735
30021SOL    HW299032   3.831   5.887   4.092  0.7299 -0.1266 -0.6206
30022SOL     OW99033   8.074   9.669   4.557 -0.5807  0.0887  0.2664
30022SOL    HW199034   8.143   9.643   4.618  0.5251 -0.2490 -1.0959
30022SOL    HW299035   7.993   9.663   4.609  0.3785  0.4298  1.8678
30023SOL     OW99036  10.314   5.115   6.313  0.4427 -0.3886 -0.0462
30023SOL    HW199037  10.297   5.206   6.291 -0.5743 -0.6451 -0.3997
30023SOL    HW299038  10.323   5.071   6.228  0.2116 -0.7332  0.1031
30024SOL     OW99039   8.026   0.654   2.038  0.0344  0.0948 -0.3805
30024SOL    HW199040   8.045   0.680   1.948  1.1148 -0.6220 -0.3780
30024SOL    HW299041   8.111   0.627   2.074 -0.5572 -0.6074  0.5300
30025SOL     OW99042   2.912   0.787   3.209 -0.0643 -0.0082 -0.6617
30025SOL    HW199043   2.871   0.703   3.189  0.0765 -0.1342 -0.4237
30025SOL    HW299044   2.899   0.798   3.303 -0.2763  0.3396 -0.7313
30026SOL     OW99045   8.398   9.353   9.250  0.1239 -0.1130 -0.1824
30026SOL    HW199046   8.358   9.334   9.165 -1.3520 -2.0980  0.8790
30026SOL    HW299047   8.376   9.278   9.304  2.2352  0.4408  1.5878
30027SOL     OW99048  10.375   1.901   8.205 -0.0286 -0.2668 -0.0986
30027SOL    HW199049  10.405   1.868   8.121 -1.0565 -0.0246 -0.5741
30027SOL    HW299050  10.429   1.978   8.221  0.1785 -0.3186 -0.5416
30028SOL     OW99051  10.549   9.321   1.624 -0.0257 -0.1500  0.2124
30028SOL    HW199052  10.525   9.229   1.630 -0.8289  0.0682  0.4870
30028SOL    HW299053  10.644   9.320   1.611  0.1047 -0.9930  1.0773
30029SOL     OW99054   4.279   8.581   9.617  0.2032 -0.2867  0.3494
30029SOL    HW199055   4.258   8.654   9.676  0.7828 -1.5847  2.2353
30029SOL    HW299056   4.374   8.584   9.607  0.1813 -0.5023  0.0541
30030SOL     OW99057   0.032   0.106   2.641 -0.5389  0.3270  0.2362
30030SOL    HW199058  -0.027   0.036   2.669  1.3925 -1.6763 -0.4465
30030SOL    HW299059   0.065   0.078   2.556  1.0693  1.5659  0.3931
30031SOL     OW99060   7.684   2.851  10.616  0.3948 -0.1075 -0.2873
30031SOL    HW199061   7.730   2.901  10.682  1.5048 -1.6114  0.1348
30031SOL    HW299062   7.632   2.787  10.666 -0.9362  0.5194 -0.8065
30032SOL     OW99063   5.307  10.786  12.382 -0.4526  0.1956 -0.2050
30032SOL    HW199064   5.385  10.837  12.402  0.3647 -1.7048  1.9713
30032SOL    HW299065   5.324  10.700  12.421 -2.3009 -1.3509 -2.5061
30033SOL     OW99066   1.588  10.091  10.984 -0.9243 -0.0122 -0.7186
30033SOL    HW199067   1.631  10.064  11.065 -0.1566  1.1548 -0.7197
30033SOL    HW299068   1.554  10.009  10.947 -0.7262 -0.6476  0.4452
30034SOL     OW99069   4.142  11.278   5.094 -0.2451 -0.3059  0.2149
30034SOL    HW199070   4.065  11.245   5.047 -0.1655 -0.6860  0.3472
30034SOL    HW299071   4.137  11.373   5.085  0.5252 -0.4016 -1.7952
30035SOL     OW99072  10.265   3.611   2.063  0.8511 -0.4779  0.0355
30035SOL    HW199073  10.220   3.555   2.000  0.3851  0.0112 -0.0712
30035SOL    HW299074  10.309   3.677   2.010 -0.7206  0.8030  0.2598
30036SOL     OW99075   5.560   8.769   9.815 -0.2557  0.0878 -0.1319
30036SOL    HW199076   5.619   8.764   9.740 -0.6881 -0.4769 -0.4478
30036SOL    HW299077   5.532   8.860   9.818  0.4393  0.3044 -0.1291
30037SOL     OW99078   1.706   0.547  10.469 -0.6124  0.0979  0.1154
30037SOL    HW199079   1.758   0.614  10.512  0.0605 -0.6366  0.4853
30037SOL    HW299080   1.766   0.473  10.458 -0.9222  0.0357 -1.5547
30038SOL     OW99081   6.880   0.930  11.127  0.0923 -0.2116  0.2081
30038SOL    HW199082   6.811   0.886  11.177  0.9761 -1.3573  0.4463
30038SOL    HW299083   6.891   0.875  11.049  0.5300  0.1324  0.0277
30039SOL     OW99084   5.269   9.315  11.873 -0.1207 -0.1809 -0.4513
30039SOL    HW199085   5.328   9.252  11.831 -0.5996 -1.5536  0.8468
30039SOL    HW299086   5.327   9.378  11.915  0.3681  0.1963 -1.6501
30040SOL     OW99087  10.770   8.921   2.132 -0.0787 -0.0021 -0.3622
30040SOL    HW199088  10.764   9.003   2.180  0.5658 -0.3301  0.2965
30040SOL    HW299089  10.718   8.859   2.182 -0.7706  0.0532 -0.9935
30041SOL     OW99090   6.288  11.608   4.562  0.0664  0.2098 -0.5053
30041SOL    HW199091   6.368  11.660   4.559  1.2124 -1.3544  0.7625
30041SOL    HW299092   6.276  11.589   4.655 -0.2788 -1.7323 -0.9038
30042SOL     OW99093   2.816   3.250   3.596 -0.4852 -0.2724 -0.2612
30042SOL    HW199094   2.847   3.339   3.584 -1.1072 -0.0939 -0.5919
30042SOL    HW299095   2.888   3.195   3.565  0.4809  0.0639  1.2747
30043SOL     OW99096   9.561   4.777   0.425 -0.1649 -0.0712 -0.1224
30043SOL    HW199097   9.466   4.763   0.434  0.0650 -0.9038  1.1603
30043SOL    HW299098   9.598   4.745   0.507  1.0513  2.1402  0.2680
30044SOL     OW99099   2.912   6.108   7.275  0.2242 -0.2714  0.5586
30044SOL    HW199100   3.005   6.126   7.264 -0.2243  1.5535 -0.5356
30044SOL    HW299101   2.872   6.134   7.193 -1.2572 -1.2557  0.9244
30045SOL     OW99102   2.243   1.755  11.011  0.0212  0.2867  0.4101
30045SOL    HW199103   2.212   1.839  11.045 -0.3939 -0.0961  0.9968
30045SOL    HW299104   2.335   1.750  11.039 -0.7351 -0.7587  3.0187
30046SOL     OW99105  11.853   0.895   6.631  0.2232  0.2905 -0.6671
30046SOL    HW199106  11.940   0.889   6.670 -0.2474 -2.5354  0.1587
30046SOL    HW299107  11.799   0.837   6.685 -1.5878  0.0230 -2.6426
30047SOL     OW99108  10.578   5.795   7.711 -0.3119  0.8274  0.6582
30047SOL    HW199109  10.651   5.776   7.770 -0.3354 -2.5774 -0.2147
30047SOL    HW299110  10.501   5.759   7.755 -0.8613  1.1385 -0.0209
30048SOL     OW99111   6.895   8.244   0.203  0.1385 -0.1681 -0.2732
30048SOL    HW199112   6.854   8.163   0.171 -1.8432 -0.4193  2.5837
30048SOL    HW299113   6.956   8.214   0.270  1.0892  0.6225 -0.7548
30049SOL     OW99114   5.415  11.506   4.121 -0.0378 -0.1244  0.0067
30049SOL    HW199115   5.379  11.580   4.073 -1.4047 -0.5198  0.3943
30049SOL    HW299116   5.451  11.449   4.053  1.0213  0.8669 -0.2945
30050SOL     OW99117   9.787  11.913   5.399 -0.2027  0.1184  0.4625
30050SOL    HW199118   9.796  11.847   5.468 -2.6109 -2.0520 -1.0935
30050SOL    HW299119   9.864  11.968   5.408  2.0773 -2.9699  1.8536
30051SOL     OW99120  11.960  10.622  10.554  0.4566  0.3223  0.2533
30051SOL    HW199121  12.052  10.618  10.530  0.7588  1.7354  1.0273
30051SOL    HW299122  11.954  10.698  10.613 -0.9879 -0.4549  1.1744
30052SOL     OW99123   6.192   3.598  10.163 -0.2348 -0.0245 -0.6285
30052SOL    HW199124   6.129   3.659  10.125 -0.9715  0.6531  1.5234
30052SOL    HW299125   6.146   3.514  10.164  0.4440 -0.4879 -2.7436
30053SOL     OW99126  10.518   9.872  11.383 -0.4325 -0.1391  0.3275
30053SOL    HW199127  10.580   9.810  11.422 -1.3400 -0.0561  2.0097
30053SOL    HW299128  10.461   9.897  11.456 -2.4336 -0.2009 -1.1490
30054SOL     OW99129   3.225   5.297   7.556  0.1918 -0.3106  0.5381
30054SOL    HW199130   3.244   5.389   7.537  0.3920 -0.4095  0.2377
30054SOL    HW299131   3.192   5.262   7.473  1.1742 -0.7823  0.3246
30055SOL     OW99132   1.664   1.469   9.556 -0.3241 -0.0389  0.2060
30055SOL    HW199133   1.672   1.393   9.498 -1.7394  0.0428 -0.1288
30055SOL    HW299134   1.722   1.450   9.629  0.5816 -0.6944 -0.6547
30056SOL     OW99135  10.848   0.928   6.423  0.5887  0.2719 -0.2303
30056SOL    HW199136  10.807   0.866   6.484  3.1708 -0.1293  1.2331
30056SOL    HW299137  10.789   1.003   6.423 -0.1893 -0.2766  1.7340
30057SOL     OW99138   3.212  10.617   9.944  0.4685 -0.7844  0.7018
30057SOL    HW199139   3.261  10.538   9.968 -1.3337 -1.7973  1.2375
30057SOL    HW299140   3.261  10.689   9.983  1.6424 -1.7286  1.0159
30058SOL     OW99141   1.780   3.098   0.686 -0.2519 -0.2966 -0.1757
30058SOL    HW199142   1.864   3.138   0.662 -0.1004 -1.0811 -0.9877
30058SOL    HW299143   1.775   3.109   0.781  0.8622 -0.4006 -0.0907
30059SOL     OW99144   7.328   5.498   3.768  0.3791 -0.1849  0.0361
30059SOL    HW199145   7.280   5.417   3.755  1.4838 -0.5656 -2.1784
30059SOL    HW299146   7.260   5.565   3.778 -0.7474 -0.6879 -3.0115
30060SOL     OW99147   3.303   0.571  10.017  0.0243 -0.4829  0.0922
30060SOL    HW199148   3.336   0.494   9.970 -2.0831 -0.3016 -1.8634
30060SOL    HW299149   3.290   0.540  10.107 -0.9816 -2.5398 -0.6821
30061SOL     OW99150   2.094  10.798   0.008  0.4610 -0.2487 -0.3448
30061SOL    HW199151   2.004  10.829   0.023  0.0307 -1.5397 -0.1655
30061SOL    HW299152   2.092  10.760  -0.080  0.5364 -1.2535  0.0715
30062SOL     OW99153   1.668   8.703  10.830 -0.2451  0.3103  0.1341
30062SOL    HW199154   1.667   8.788  10.874 -0.3986 -0.1673  1.0856
30062SOL    HW299155   1.758   8.691  10.802 -0.1326  0.6104  0.3628
30063SOL     OW99156   6.591   9.165   4.075  0.1712 -0.1911 -0.2544
30063SOL    HW199157   6.564   9.186   3.985 -0.4721 -0.8654 -0.2279
30063SOL    HW299158   6.686   9.151   4.068 -0.0970 -1.9213 -1.1940
30064SOL     OW99159  11.855   6.920   5.612 -0.3273 -0.2792  0.1636
30064SOL    HW199160  11.894   7.006   5.631 -0.8023  0.2721 -1.2221
30064SOL    HW299161  11.930   6.861   5.606  0.0596  0.1647  0.4990
30065SOL     OW99162   4.871   2.708   3.062 -0.2434  0.0045 -0.1593
30065SOL    HW199163   4.965   2.716   3.078  0.3869 -0.8607 -2.8725
30065SOL    HW299164   4.853   2.770   2.991 -1.2285 -1.3008 -1.1245
30066SOL     OW99165   2.669   6.981   0.401  0.0006 -0.2260 -0.0905
30066SOL    HW199166   2.613   7.000   0.477  0.0508 -0.7095  0.0717
30066SOL    HW299167   2.732   7.052   0.399 -0.0572 -0.1627  0.2710
30067SOL     OW99168   1.263   8.336   9.849  0.5182  0.4541  0.1098
30067SOL    HW199169   1.174   8.353   9.878  0.5692  1.6787 -0.4237
30067SOL    HW299170   1.257   8.253   9.802  0.1820 -0.8798  2.3434
30068SOL     OW99171   6.934   4.547  12.551 -0.4805 -0.4694  0.0286
30068SOL    HW199172   7.007   4.583  12.502 -1.7037  0.7523 -0.9759
30068SOL    HW299173   6.896   4.622  12.597 -0.4774 -1.2729  1.3946
30069SOL     OW99174   4.644   9.484   1.260 -0.1777  0.0852  0.1217
30069SOL    HW199175   4.661   9.467   1.353  0.1603 -1.4263 -0.1913
30069SOL    HW299176   4.624   9.398   1.224  0.3216  0.5661 -1.3429
30070SOL     OW99177   9.330  12.535   5.501 -0.6444 -0.1170  0.2902
30070SOL    HW199178   9.268  12.537   5.428  1.2878 -2.4533 -1.5520
30070SOL    HW299179   9.308  12.455   5.549 -0.1438 -0.0413  0.6547
30071SOL     OW99180   3.649   1.014   7.325 -0.0386 -0.0224 -0.1831
30071SOL    HW199181   3.588   0.941   7.319  2.1528 -1.9269 -0.8957
30071SOL    HW299182   3.729   0.975   7.363  2.0373  1.3927 -2.7650
30072SOL     OW99183  12.168   4.619   7.273 -0.3794 -0.6448 -0.2411
30072SOL    HW199184  12.077   4.593   7.258 -0.7441  1.0542 -1.2899
30072SOL    HW299185  12.180   4.611   7.367 -1.7823 -0.4619 -0.0180
30073SOL     OW99186   6.144   2.653  11.066  0.1268 -0.0312 -0.6773
30073SOL    HW199187   6.062   2.702  11.079 -0.5172 -1.0494 -0.7791
30073SOL    HW299188   6.115   2.568  11.032  1.3110  0.0444 -1.9328
30074SOL     OW99189   5.568   0.632  12.022  0.6135  0.1801 -0.0525
30074SOL    HW199190   5.586   0.598  12.110  1.0876  0.7170  0.0611
30074SOL    HW299191   5.631   0.588  11.965  0.9386  0.5318  0.0284
30075SOL     OW99192   5.770   2.370   4.702 -0.3294 -0.1077  0.0551
30075SOL    HW199193   5.805   2.292   4.658 -0.4416  1.4736 -3.1567
30075SOL    HW299194   5.681   2.379   4.668 -0.6088  0.9565  1.0160
30076SOL     OW99195   7.128   2.679  12.328  0.0650  0.0693  0.3399
30076SOL    HW199196   7.094   2.737  12.259 -1.3537 -1.4931 -0.3526
30076SOL    HW299197   7.187   2.620  12.283 -1.3386 -1.3608  0.2671
30077SOL     OW99198   6.684   9.860   2.337 -0.1603 -0.0532 -0.2307
30077SOL    HW199199   6.610   9.858   2.276  0.8256  0.6360 -1.4865
30077SOL    HW299200   6.704   9.767   2.353 -0.6280 -0.2416 -0.7057
30078SOL     OW99201   3.995   7.276   3.363 -0.0498 -0.4809 -0.2103
30078SOL    HW199202   3.994   7.219   3.440  0.0304 -0.0134  0.1350
30078SOL    HW299203   4.050   7.229   3.300 -0.6374 -1.1789 -0.2274
30079SOL     OW99204   5.030   7.531   6.558 -0.1112 -0.3096  0.2871
30079SOL    HW199205   5.069   7.607   6.514  1.3096 -1.4752 -0.5748
30079SOL    HW299206   4.978   7.489   6.490 -1.5062  0.2766  0.9688
30080SOL     OW99207   5.442   2.331   4.573  0.0725 -0.1907  0.9530
30080SOL    HW199208   5.514   2.319   4.512  0.9902 -1.3601  2.1919
30080SOL    HW299209   5.393   2.405   4.538  0.0754 -1.3006 -1.6070
30081SOL     OW99210  11.686   1.329   7.999 -0.8940  0.1015 -0.0147
30081SOL    HW199211  11.665   1.256   7.942  2.0758 -1.5193  0.7341
30081SOL    HW299212  11.759   1.373   7.955  0.5839 -0.4062  1.7746
30082SOL     OW99213   7.416   1.482   7.990 -0.0122 -0.2294  0.1840
30082SOL    HW199214   7.432   1.573   7.964  0.4529  0.5815  3.0063
30082SOL    HW299215   7.380   1.441   7.912  0.4365  2.1855 -1.3957
30083SOL     OW99216  10.300   1.855   7.759  0.1271 -0.2487 -0.4849
30083SOL    HW199217  10.338   1.927   7.810  0.9639 -0.7471 -0.3712
30083SOL    HW299218  10.374   1.796   7.745 -0.1834 -0.3004 -1.9655
30084SOL     OW99219  11.964   0.181   4.154  0.1239 -0.6749  0.1573
30084SOL    HW199220  11.975   0.089   4.130 -0.5427 -0.2211 -2.0546
30084SOL    HW299221  11.900   0.215   4.092 -0.0629  1.1671  1.2802
30085SOL     OW99222   1.484   8.537  12.295 -0.0688  0.2450 -0.3066
30085SOL    HW199223   1.566   8.584  12.276  0.4566 -0.5218  0.0150
30085SOL    HW299224   1.462   8.493  12.213  0.0376  0.1525 -0.2847
30086SOL     OW99225   3.809  11.577   6.441  0.1123  0.7539  0.3270
30086SOL    HW199226   3.901  11.583   6.414  0.1718  0.1720  0.3868
30086SOL    HW299227   3.809  11.511   6.510 -0.3995  0.5363  0.1203
30087SOL     OW99228   2.231  11.059   4.233  0.0864 -0.2521 -0.3678
30087SOL    HW199229   2.165  11.108   4.183  0.4979  2.0424  1.1411
30087SOL    HW299230   2.188  10.977   4.255 -1.6240  0.4408 -0.9385
30088SOL     OW99231   1.117   0.386   6.168 -0.2766  0.1676 -0.0202
30088SOL    HW199232   1.122   0.291   6.155 -1.4875  0.2224 -1.0405
30088SOL    HW299233   1.026   0.409   6.149  0.2109  1.6562 -0.7502
30089SOL     OW99234  10.115   3.444   5.750  0.1739 -0.3625  0.4910
30089SOL    HW199235  10.179   3.452   5.679  0.0552  2.3126  0.5793
30089SOL    HW299236  10.065   3.525   5.746  0.2169 -0.0545  3.7056
30090SOL     OW99237   2.409   7.481   4.693  0.0933  0.2197  0.8733
30090SOL    HW199238   2.326   7.462   4.650  1.0319 -0.0874 -0.9281
30090SOL    HW299239   2.404   7.574   4.715  0.2724  0.9382 -1.7431
30091SOL     OW99240   2.770   6.688   7.983  0.2099  0.3119 -0.4204
30091SOL    HW199241   2.682   6.706   7.950 -1.1390 -2.9297  1.0217
30091SOL    HW299242   2.767   6.715   8.075  0.3276 -0.8262 -0.0681
30092SOL     OW99243   8.600  11.454   6.265  0.0851  0.0733  0.0664
30092SOL    HW199244   8.665  11.467   6.196  0.9781 -0.4440  0.7755
30092SOL    HW299245   8.537  11.392   6.228  1.0593 -0.9223  0.0054
30093SOL     OW99246   2.283   7.434  12.465 -0.0790 -0.4998 -0.3633
30093SOL    HW199247   2.218   7.386  12.515 -0.8979 -0.7690 -1.6631
30093SOL    HW299248   2.237   7.512  12.434  0.4845 -0.2137 -0.4957
30094SOL     OW99249  11.650   0.022  12.091 -0.4977 -0.4258  0.4026
30094SOL    HW199250  11.601  -0.024  12.158  1.5389 -2.9944  0.2756
30094SOL    HW299251  11.674  -0.045  12.027 -0.7740  1.5702 -1.9824
30095SOL     OW99252  11.175  11.929   5.992 -0.5591 -0.1518  0.1613
30095SOL    HW199253  11.087  11.921   6.029 -0.5851  1.8275  0.6638
30095SOL    HW299254  11.181  12.021   5.966  0.4094 -0.8660 -2.4019
30096SOL     OW99255   1.232   0.654   8.462 -0.2251  0.2605 -0.0950
30096SOL    HW199256   1.282   0.592   8.514 -0.4060  0.3433  0.1825
30096SOL    HW299257   1.142   0.620   8.464 -0.2518  0.3209 -0.2637
30097SOL     OW99258   3.394  12.382   3.634  0.6877  0.0953  0.7458
30097SOL    HW199259   3.319  12.434   3.606  0.1135 -0.1008  1.8744
30097SOL    HW299260   3.444  12.441   3.691  2.3491  0.8106 -1.3065
30098SOL     OW99261   6.080   1.586   3.843 -0.1302 -0.6844 -0.2282
30098SOL    HW199262   6.165   1.542   3.849 -0.6182 -1.6335 -0.0709
30098SOL    HW299263   6.079   1.625   3.755  1.0581  0.6363  0.2941
30099SOL     OW99264   1.935   4.323   1.252  0.0867 -0.2694  0.7255
30099SOL    HW199265   1.953   4.271   1.330 -1.8791  0.2514  1.5767
30099SOL    HW299266   1.940   4.261   1.180  0.8751 -0.9795  1.3735
30100SOL     OW99267  10.174   6.600   4.140 -0.1522  0.6416 -0.5252
30100SOL    HW199268  10.149   6.522   4.189  0.8628  0.8186  0.2973
30100SOL    HW299269  10.096   6.655   4.141 -0.1877  0.5996  0.8336
30101SOL     OW99270   8.923   8.778   0.883 -0.0444  0.0493  0.5047
30101SOL    HW199271   9.003   8.793   0.833  0.3789  0.8531  1.3861
30101SOL    HW299272   8.863   8.737   0.821  1.3455 -1.4169  0.0673
30102SOL     OW99273   0.847   6.415   5.333  0.0198  0.1870 -0.0328
30102SOL    HW199274   0.893   6.370   5.404  0.7929  0.1889 -0.5146
30102SOL    HW299275   0.797   6.484   5.376 -1.5622 -1.3879  0.7792
30103SOL     OW99276   3.427   8.694   5.222 -0.0552 -0.3731 -0.0488
30103SOL    HW199277   3.424   8.701   5.317  1.4442 -1.3310  0.0932
30103SOL    HW299278   3.474   8.772   5.193  0.0148 -0.3859  0.0324
30104SOL     OW99279  11.419   2.739   0.176 -0.3424  0.4664  0.6031
30104SOL    HW199280  11.335   2.695   0.163  0.5351 -0.7663 -1.3425
30104SOL    HW299281  11.450   2.707   0.261 -0.4669 -1.4720 -0.0404
30105SOL     OW99282   4.000   3.885   7.592 -0.2704 -0.1220  0.0332
30105SOL    HW199283   3.923   3.866   7.538 -0.4187  0.6838 -0.0639
30105SOL    HW299284   4.048   3.951   7.542  0.1570 -0.1647  0.3837
30106SOL     OW99285   2.449   7.965   2.359  0.1742  0.5868 -0.0965
30106SOL    HW199286   2.358   7.953   2.387  0.1252  1.2891  0.0690
30106SOL    HW299287   2.501   7.921   2.425 -0.0152  0.8356  0.2203
30107SOL     OW99288   2.536   0.759   6.075  0.1459  0.5248 -0.3511
30107SOL    HW199289   2.441   0.758   6.064 -0.2207  0.7616  2.2669
30107SOL    HW299290   2.560   0.666   6.084  0.0991  0.5038 -0.4381
30108SOL     OW99291   0.754   9.207   8.743  1.0894 -0.2356  0.2129
30108SOL    HW199292   0.726   9.231   8.832  2.6363 -0.6553  0.8470
30108SOL    HW299293   0.734   9.284   8.690 -1.2309 -0.5160  0.5855
30109SOL     OW99294   9.764  10.262   8.633 -0.0528 -0.1974 -0.3257
30109SOL    HW199295   9.822  10.278   8.707 -1.0519  1.3178  0.1843
30109SOL    HW299296   9.823  10.246   8.559  1.0466  1.7961  0.0559
30110SOL     OW99297  11.040   3.238  10.317 -0.2874  0.0742  0.2345
30110SOL    HW199298  11.061   3.145  10.324 -0.8733 -0.2038 -1.3669
30110SOL    HW299299  10.999   3.260  10.400  1.1920 -0.7189  1.2239
30111SOL     OW99300  12.545   5.583   8.113 -0.2417  0.5279 -0.2970
30111SOL    HW199301  12.632   5.574   8.152 -0.2720  1.3855 -0.0266
30111SOL    HW299302  12.550   5.662   8.060 -0.8315  0.5315 -0.3572
30112SOL     OW99303  11.677   9.428   3.655 -0.7069  0.0800  0.1297
30112SOL    HW199304  11.711   9.339   3.647  0.5258  0.5017  0.3571
30112SOL    HW299305  11.753   9.479   3.683 -1.2395  1.3133 -0.6018
30113SOL     OW99306   1.486   6.426   9.435  0.0861 -0.4582 -0.3859
30113SOL    HW199307   1.469   6.458   9.346 -1.4002  1.4507  0.4941
30113SOL    HW299308   1.567   6.470   9.461  0.7750 -1.3745 -0.9160
30114SOL     OW99309   0.626   6.714   7.383  0.7051  1.0069  0.9058
30114SOL    HW199310   0.674   6.793   7.407 -0.0448  0.9960  2.6181
30114SOL    HW299311   0.680   6.642   7.415  1.1253  0.8492 -0.1546
30115SOL     OW99312  11.749   0.230   9.620  0.0217 -0.1636  0.3071
30115SOL    HW199313  11.820   0.166   9.615  0.5077  0.4083 -0.2962
30115SOL    HW299314  11.767   0.280   9.700 -0.7885 -1.2619  1.1975
30116SOL     OW99315   3.584   2.364   7.522 -0.4771  0.2299 -0.7648
30116SOL    HW199316   3.546   2.384   7.607  0.7882 -0.1078 -0.1039
30116SOL    HW299317   3.613   2.449   7.488  1.3220  0.0928  0.2998
30117SOL     OW99318   2.598  11.055  11.786  0.2768 -0.0514 -0.0271
30117SOL    HW199319   2.591  10.963  11.812 -2.4900 -0.4338 -1.6946
30117SOL    HW299320   2.643  11.054  11.702 -0.8169 -0.0565 -0.6324
30118SOL     OW99321  11.427   0.630   3.002  0.4594 -0.2264 -0.0609
30118SOL    HW199322  11.350   0.573   3.011 -0.4370  1.1644  1.4940
30118SOL    HW299323  11.500   0.575   3.031  0.1633 -1.6744 -1.8517
30119SOL     OW99324   6.074  10.264   0.528  0.1553  0.5531 -0.1796
30119SOL    HW199325   6.025  10.347   0.521 -1.7176 -0.5745 -1.1916
30119SOL    HW299326   6.134  10.278   0.601 -2.0080  1.8909  1.4879
30120SOL     OW99327   6.542   1.577   5.075 -0.3217 -0.0403 -0.4567
30120SOL    HW199328   6.457   1.541   5.100 -0.3627  0.4183  0.0756
30120SOL    HW299329   6.534   1.671   5.090  0.6137 -0.1030  0.6024
30121SOL     OW99330   1.149   8.996  12.056 -0.4801 -0.3932 -0.0211
30121SOL    HW199331   1.208   9.071  12.070  1.6663 -2.0432  0.2876
30121SOL    HW299332   1.086   9.027  11.991  0.6343  1.5231 -0.2524
30122SOL     OW99333   5.975   5.365   7.298  0.2021  0.5012 -0.2247
30122SOL    HW199334   6.039   5.404   7.358  0.0365 -0.7550  0.8114
30122SOL    HW299335   5.957   5.434   7.235  1.6981  1.2811  0.1475
30123SOL     OW99336   2.876   0.550  10.214 -0.0170  0.8993  0.4882
30123SOL    HW199337   2.942   0.599  10.165 -1.2652  2.9873  0.7388
30123SOL    HW299338   2.840   0.487  10.151  2.0662 -0.2064  0.3238
30124SOL     OW99339  10.649   4.131   6.795 -0.0471  0.1861  0.1201
30124SOL    HW199340  10.562   4.168   6.780  0.7399  2.7398  1.3051
30124SOL    HW299341  10.633   4.051   6.846 -1.6705  0.7020  0.4778
30125SOL     OW99342  10.021   8.648   9.600  0.0813 -0.4182  0.5348
30125SOL    HW199343  10.057   8.667   9.687 -0.0929 -0.7908  0.6914
30125SOL    HW299344  10.057   8.563   9.577 -0.8627 -0.8992  0.7904
30126SOL     OW99345   3.114   8.177   6.119 -0.1378 -0.5015 -0.6226
30126SOL    HW199346   3.047   8.178   6.188 -1.1888  0.1547 -1.6062
30126SOL    HW299347   3.092   8.253   6.064  2.4496  0.7565 -0.0492
30127SOL     OW99348  12.064   3.119  10.978  0.0764  0.0606 -0.0548
30127SOL    HW199349  12.108   3.038  10.955  2.9046  1.0894  1.2884
30127SOL    HW299350  11.970   3.099  10.970  0.7006 -2.7305 -1.5085
30128SOL     OW99351   8.940   7.209  10.030 -0.1029  0.3676 -0.2064
30128SOL    HW199352   8.983   7.153   9.966 -0.2481  2.5959 -2.3886
30128SOL    HW299353   9.011   7.241  10.086  0.4278  0.4305 -0.9080
30129SOL     OW99354  10.798   7.984  11.943 -0.0186 -0.2998 -0.5334
30129SOL    HW199355  10.728   7.942  11.892 -0.1711 -1.8765  0.9112
30129SOL    HW299356  10.868   7.919  11.946 -0.4521 -0.7426  2.1646
30130SOL     OW99357  12.526   1.621   0.577 -0.2715  0.1239  0.2325
30130SOL    HW199358  12.490   1.680   0.643 -0.6161  1.1066 -0.8065
30130SOL    HW299359  12.476   1.640   0.498  1.5165  0.4538 -0.8623
30131SOL     OW99360  12.335   6.468  10.918  0.1396  0.5895  0.3673
30131SOL    HW199361  12.279   6.438  10.989  0.7868  0.7868  0.9680
30131SOL    HW299362  12.403   6.520  10.960  1.3525 -0.4348 -0.2112
30132SOL     OW99363   1.027   8.960  10.598  0.1357 -0.6084 -0.0993
30132SOL    HW199364   1.040   8.971  10.504 -0.4351 -0.1792 -0.1370
30132SOL    HW299365   1.115   8.954  10.634  0.3864  0.0536 -0.5658
30133SOL     OW99366   0.534   1.933   4.109  0.0222 -0.2490  0.2443
30133SOL    HW199367   0.554   2.015   4.155 -0.0796 -0.0189 -0.1166
30133SOL    HW299368   0.592   1.934   4.032  0.1875 -0.6281  0.3593
30134SOL     OW99369   8.243   5.528   7.267 -0.3531  0.0739  0.0649
30134SOL    HW199370   8.292   5.454   7.303 -0.7984 -0.1937  0.1329
30134SOL    HW299371   8.306   5.600   7.263 -0.2457  0.0621  1.2159
30135SOL     OW99372   8.263   2.138  11.639  0.3459 -0.3570  0.1891
30135SOL    HW199373   8.260   2.075  11.711  0.0992 -0.1504  0.3602
30135SOL    HW299374   8.175   2.174  11.635 -0.0828 -1.4598 -1.2040
30136SOL     OW99375   7.304  11.182   3.239 -0.0184 -0.0878  0.2855
30136SOL    HW199376   7.293  11.096   3.198  0.2592  0.0825 -0.1544
30136SOL    HW299377   7.233  11.235   3.202  0.0969  0.0029  0.1953
30137SOL     OW99378   9.992  12.442   8.920  0.1935  0.2597  0.1643
30137SOL    HW199379  10.078  12.429   8.880 -0.2722  0.2340 -0.8517
30137SOL    HW299380  10.009  12.436   9.014  1.3193  0.3636 -0.0111
30138SOL     OW99381   9.871   0.712  10.053  0.1403 -0.1338  0.6112
30138SOL    HW199382   9.927   0.641  10.022 -0.1173  0.4407 -1.2816
30138SOL    HW299383   9.911   0.791  10.018 -2.6367  0.2046 -2.2580
30139SOL     OW99384   0.000   1.533  11.573 -0.5446 -0.3149  0.0594
30139SOL    HW199385  -0.004   1.599  11.504  0.4151  0.0336  0.3191
30139SOL    HW299386   0.044   1.458  11.532 -0.9172 -0.5055 -0.0021
30140SOL     OW99387   6.830   9.238   4.838 -0.0005 -0.5013 -0.0793
30140SOL    HW199388   6.892   9.288   4.784 -1.4269  1.3001 -0.1655
30140SOL    HW299389   6.877   9.223   4.920  0.3821  1.4080  0.1151
30141SOL     OW99390  10.826   1.588   1.856 -0.0424  0.0153  0.1089
30141SOL    HW199391  10.768   1.616   1.928 -0.7890 -0.4130 -0.3160
30141SOL    HW299392  10.914   1.590   1.894 -0.3266  0.7108  0.7596
30142SOL     OW99393   8.507   4.373   3.426 -0.0109 -0.4469 -0.2939
30142SOL    HW199394   8.480   4.325   3.348  2.2101 -0.9540 -0.8334
30142SOL    HW299395   8.552   4.308   3.481 -0.9328  0.0545  1.1129
30143SOL     OW99396   0.309   3.902   7.061  0.3503  0.1587 -0.3634
30143SOL    HW199397   0.237   3.846   7.087  0.6973  0.2432  0.8706
30143SOL    HW299398   0.388   3.854   7.087  0.7632 -0.0185 -1.8656
30144SOL     OW99399   0.581   0.226  11.974  0.5566 -0.2645 -0.0704
30144SOL    HW199400   0.612   0.276  12.050  1.8937 -2.4640  0.9144
30144SOL    HW299401   0.511   0.170  12.009 -2.1344  1.9390 -1.5033
30145SOL     OW99402   9.552   4.811   4.862 -0.6000  0.2528  0.6108
30145SOL    HW199403   9.467   4.776   4.835 -0.9758  1.2931  0.4000
30145SOL    HW299404   9.580   4.754   4.933 -0.8243 -0.9406 -0.2261
30146SOL     OW99405   4.774  10.333   4.670 -0.0921  0.0589 -0.0384
30146SOL    HW199406   4.757  10.407   4.612 -0.7209 -0.3001 -0.3099
30146SOL    HW299407   4.851  10.361   4.721  0.1905  0.5527 -0.7198
30147SOL     OW99408   3.442   8.402   8.940 -0.0174 -0.3550  0.1352
30147SOL    HW199409   3.361   8.351   8.938 -0.5806  0.4698 -2.4623
30147SOL    HW299410   3.413   8.491   8.961  0.3055 -0.2092 -0.0271
30148SOL     OW99411   6.019   6.893  10.136 -0.5007 -0.2007  0.2327
30148SOL    HW199412   6.054   6.946  10.208  0.3668  0.3498 -0.5818
30148SOL    HW299413   6.089   6.831  10.116 -1.1922 -1.1439  0.6245
30149SOL     OW99414  12.300   3.714   2.519  0.4275 -0.3565 -0.0481
30149SOL    HW199415  12.358   3.638   2.526  1.0314  0.2215  1.7029
30149SOL    HW299416  12.358   3.786   2.494  0.2383 -0.0377  0.4249
30150SOL     OW99417   9.755  11.835   1.611  0.2512 -0.0029  0.4936
30150SOL    HW199418   9.686  11.825   1.675  0.5153 -2.0734  0.5035
30150SOL    HW299419   9.713  11.817   1.527  0.7729 -1.4322  0.5151
30151SOL     OW99420   8.586   9.212   8.612  0.2676  0.3482  0.1651
30151SOL    HW199421   8.662   9.183   8.663 -1.1916 -2.0213  1.1774
30151SOL    HW299422   8.616   9.208   8.521  1.2122 -1.1270  0.5041
30152SOL     OW99423   9.983  11.042   0.610  0.0025  0.1918 -0.2991
30152SOL    HW199424  10.037  10.997   0.676 -0.9024 -1.1970 -0.4581
30152SOL    HW299425  10.039  11.046   0.533  0.6300  0.7012  0.1732
30153SOL     OW99426   2.519   3.213   3.078  0.1904 -0.6255  0.0524
30153SOL    HW199427   2.486   3.298   3.109  0.8321 -0.9419  1.6810
30153SOL    HW299428   2.552   3.170   3.156  2.9612 -1.0060 -1.2043
30154SOL     OW99429   6.434   6.946   4.848  0.3338  0.0362 -0.1612
30154SOL    HW199430   6.429   7.012   4.779 -1.3046 -0.2041 -0.2963
30154SOL    HW299431   6.515   6.967   4.895  0.4739  1.3769 -0.9519
30155SOL     OW99432   6.142   1.748   4.631  0.5413  0.4503 -0.0483
30155SOL    HW199433   6.235   1.728   4.627  0.6174  0.6246  0.7560
30155SOL    HW299434   6.135   1.838   4.598  0.7356  0.6656  0.4991
30156SOL     OW99435   8.312  12.127   8.838  0.2935  0.0217 -0.3922
30156SOL    HW199436   8.401  12.091   8.833  0.6378  0.7719  0.2192
30156SOL    HW299437   8.325  12.219   8.858 -0.6634 -0.3467  2.2178
30157SOL     OW99438   0.686  11.029   5.494 -1.3689 -0.5595  0.3640
30157SOL    HW199439   0.714  10.945   5.459 -0.2224 -0.0790  0.0788
30157SOL    HW299440   0.652  11.077   5.419  0.5857  0.2658 -0.0462
30158SOL     OW99441   0.058   9.325   8.347  0.3641  0.1796 -0.8952
30158SOL    HW199442   0.079   9.330   8.254  1.3769  0.9648 -0.6408
30158SOL    HW299443   0.136   9.288   8.388  1.3771  3.1683  0.0810
30159SOL     OW99444   3.486   9.412   3.406 -0.0648  0.2876  0.1042
30159SOL    HW199445   3.435   9.460   3.341  0.4563 -1.4560 -1.6937
30159SOL    HW299446   3.424   9.350   3.445 -0.6225  1.9790  2.0823
30160SOL     OW99447  11.191   4.252   3.919 -0.2111 -0.0801 -0.1470
30160SOL    HW199448  11.139   4.326   3.887 -1.4048 -0.1535  1.5000
30160SOL    HW299449  11.209   4.200   3.841  2.6792  3.0322 -1.8546
30161SOL     OW99450   3.822   7.818   4.177  0.3902 -0.1310 -0.3184
30161SOL    HW199451   3.890   7.800   4.112  1.0107 -0.3923  0.3935
30161SOL    HW299452   3.750   7.758   4.154  0.2886  0.3163 -1.2164
30162SOL     OW99453   1.467   4.730   7.533 -0.3260 -0.0422  0.5915
30162SOL    HW199454   1.502   4.807   7.487 -0.2213  0.1974  1.0591
30162SOL    HW299455   1.410   4.687   7.469  1.0133 -0.5890 -0.2962
30163SOL     OW99456   7.808  11.040   9.304 -0.1757  0.0373  0.3391
30163SOL    HW199457   7.752  11.052   9.382  0.7003  4.0394  0.5468
30163SOL    HW299458   7.896  11.064   9.334  0.4807  0.0577 -1.5012
30164SOL     OW99459   1.439   4.301   3.074  0.1960  0.1174  0.1010
30164SOL    HW199460   1.455   4.213   3.039 -1.1626 -0.1363  0.0763
30164SOL    HW299461   1.380   4.342   3.010  0.7810  1.0416  0.1368
30165SOL     OW99462  11.739   3.186   8.681  0.0522  0.4810  0.1400
30165SOL    HW199463  11.786   3.175   8.764 -0.7489 -1.7609  0.3656
30165SOL    HW299464  11.648   3.164   8.702 -0.1581 -0.1346 -1.3416
30166SOL     OW99465   3.261   6.606   6.733 -0.7267 -0.1626  0.0531
30166SOL    HW199466   3.243   6.513   6.720 -0.4542 -0.2179  0.0586
30166SOL    HW299467   3.247   6.646   6.647 -0.7208 -0.2292  0.0215
30167SOL     OW99468   3.678  12.290  10.040 -0.5002 -0.1113 -0.4282
30167SOL    HW199469   3.648  12.243   9.962  0.8567 -1.5815 -0.1243
30167SOL    HW299470   3.631  12.247  10.112 -0.6328  0.2413 -0.3056
30168SOL     OW99471   5.661   6.874   9.302 -0.2255 -0.5594  0.4677
30168SOL    HW199472   5.581   6.899   9.255 -0.2054  0.2782  0.8552
30168SOL    HW299473   5.724   6.944   9.282  0.1423 -0.7818  0.8255
30169SOL     OW99474   5.381   0.679  10.017  0.4592 -0.5757  0.6343
30169SOL    HW199475   5.409   0.727  10.095  0.0273 -1.6767  1.4827
30169SOL    HW299476   5.306   0.628  10.045  0.8183 -1.6622 -0.2748
30170SOL     OW99477   7.680   0.626   4.973  0.4809  0.1489 -0.1042
30170SOL    HW199478   7.694   0.698   5.035 -1.4699 -1.1004  1.9829
30170SOL    HW299479   7.644   0.668   4.895 -2.0640  1.4125  1.6121
30171SOL     OW99480  12.346   1.591  10.671  0.3480 -0.1700 -0.1336
30171SOL    HW199481  12.376   1.662  10.727  0.7816  0.5156 -1.2022
30171SOL    HW299482  12.414   1.523  10.679 -0.0763 -0.4844  0.8966
30172SOL     OW99483   4.691   8.044   6.629 -0.1278  0.1771 -0.0968
30172SOL    HW199484   4.735   7.963   6.656 -2.2018 -1.0771 -0.2289
30172SOL    HW299485   4.710   8.107   6.698 -0.9966 -1.3684  1.6213
30173SOL     OW99486  12.044  12.022   5.745  1.1097  0.0415 -0.1235
30173SOL    HW199487  12.129  12.063   5.730  0.6574  0.5041 -1.5357
30173SOL    HW299488  12.008  12.068   5.821  0.2333  3.0162 -2.1478
30174SOL     OW99489   5.502   1.960   8.116 -0.1853  0.0824 -0.3182
30174SOL    HW199490   5.445   1.891   8.150  0.1603  0.3105  0.7699
30174SOL    HW299491   5.446   2.038   8.113 -0.1735  0.1015 -0.0880
30175SOL     OW99492  12.037  11.514  12.217  1.0050  0.3016  0.0457
30175SOL    HW199493  11.967  11.457  12.248  0.0671  1.1051 -0.5595
30175SOL    HW299494  12.064  11.564  12.295 -0.1579  1.0800 -0.0301
30176SOL     OW99495  12.435   1.501   9.300 -0.0349 -0.2627  0.2227
30176SOL    HW199496  12.498   1.500   9.228 -0.1339  0.0077  0.1296
30176SOL    HW299497  12.419   1.409   9.320  1.0388 -0.3373  0.8161
30177SOL     OW99498   9.435   2.591   4.901  0.7096  0.2778 -0.5433
30177SOL    HW199499   9.454   2.552   4.986 -1.7289  1.0334  0.4274
30177SOL    HW299500   9.373   2.530   4.860  1.3989  0.2289 -1.5616
30178SOL     OW99501   0.591   1.425   2.766  0.2537 -0.3567  0.3419
30178SOL    HW199502   0.623   1.393   2.681  0.1126  1.2074 -0.3309
30178SOL    HW299503   0.659   1.398   2.828  1.0664 -0.2835 -0.4946
30179SOL     OW99504   8.888   1.983   0.866 -0.2961 -0.1741  0.2823
30179SOL    HW199505   8.837   2.061   0.848  1.1712  0.4047 -1.7350
30179SOL    HW299506   8.838   1.936   0.934 -1.8012  1.8864  0.6905
30180SOL     OW99507   3.743   5.000   1.520 -0.8737  0.1513 -0.6178
30180SOL    HW199508   3.666   4.962   1.562 -0.6853 -0.5790 -0.9174
30180SOL    HW299509   3.799   5.029   1.592 -0.7506 -0.6870 -0.3712
30181SOL     OW99510   9.319   2.332  11.461 -0.2876  0.2076 -0.0367
30181SOL    HW199511   9.366   2.306  11.540 -0.3248  1.3763  0.3926
30181SOL    HW299512   9.240   2.375  11.494 -0.1053  1.0654 -0.6941
30182SOL     OW99513  11.849   4.443   4.251 -0.5094  0.1819 -0.5603
30182SOL    HW199514  11.853   4.349   4.272 -1.3325  0.3444  0.4212
30182SOL    HW299515  11.936   4.476   4.274 -0.6159 -0.1146  0.3263
30183SOL     OW99516   2.319   6.496   9.964 -0.3182  0.3057  0.2625
30183SOL    HW199517   2.405   6.483  10.003  0.2210  1.1957 -0.5771
30183SOL    HW299518   2.300   6.414   9.918 -1.3771 -1.1231  3.0284
30184SOL     OW99519   4.098   6.105   0.267 -0.3210 -0.1553 -0.3687
30184SOL    HW199520   4.109   6.193   0.232  1.5873 -0.2899 -0.2614
30184SOL    HW299521   4.088   6.118   0.361 -1.1255 -0.0031 -0.4739
30185SOL     OW99522   6.840   8.732   2.218  0.6536  0.4188  0.5256
30185SOL    HW199523   6.822   8.658   2.159 -1.4088  1.1569  0.1425
30185SOL    HW299524   6.935   8.731   2.229  0.7580 -1.8271 -0.0703
30186SOL     OW99525   4.738  10.504   7.354  0.8294  0.4012  0.0549
30186SOL    HW199526   4.811  10.557   7.388 -1.3426  0.9642  4.5433
30186SOL    HW299527   4.756  10.416   7.387 -0.0947  0.4012  0.5837
30187SOL     OW99528   3.091   7.262   3.800  0.4155  0.0949 -0.1188
30187SOL    HW199529   3.184   7.246   3.815  0.2750  0.1888  0.8869
30187SOL    HW299530   3.058   7.298   3.882 -0.8826 -1.5044  0.1140
30188SOL     OW99531   6.708   9.296   5.385 -0.2591  0.4083 -0.5026
30188SOL    HW199532   6.780   9.233   5.387  0.6628  1.4432  0.5281
30188SOL    HW299533   6.702   9.323   5.293  0.1964 -0.2136 -0.7193
30189SOL     OW99534   8.147   6.197   2.564  0.4774 -0.0413  0.8055
30189SOL    HW199535   8.118   6.106   2.570 -2.5177  0.7540  0.2381
30189SOL    HW299536   8.152   6.227   2.654 -2.2085  0.1549  0.9780
30190SOL     OW99537   1.171   6.599   2.099  0.1616  0.3568 -0.0092
30190SOL    HW199538   1.259   6.634   2.100  0.7541 -0.9834  2.4908
30190SOL    HW299539   1.182   6.505   2.116 -1.5867 -0.4314 -2.6583
30191SOL     OW99540   6.405   1.369   5.672  0.4530 -0.0190  0.0785
30191SOL    HW199541   6.430   1.446   5.621 -0.0146 -0.4167 -0.7694
30191SOL    HW299542   6.488   1.331   5.701  0.8235 -0.6256 -1.6525
30192SOL     OW99543   9.728   9.613   3.234  0.0781  0.0421  0.3901
30192SOL    HW199544   9.648   9.627   3.284  0.3476 -2.3167  1.6043
30192SOL    HW299545   9.718   9.526   3.196 -0.5106  1.9636 -4.6265
30193SOL     OW99546  10.066  10.821   5.589  0.3998  0.7332  0.2812
30193SOL    HW199547  10.096  10.740   5.548  0.8205  0.8985  0.2572
30193SOL    HW299548  10.017  10.792   5.666  0.6940  0.4616  0.3666
30194SOL     OW99549   2.193  11.992   0.119  0.0695 -0.8509  0.3434
30194SOL    HW199550   2.180  12.028   0.207 -0.4208 -1.9808  0.7464
30194SOL    HW299551   2.287  12.001   0.104 -0.0614  0.7386  0.3574
30195SOL     OW99552   8.302   6.322   7.080  0.3284 -0.6571 -0.3265
30195SOL    HW199553   8.246   6.363   7.014 -1.1670  0.1635  1.3737
30195SOL    HW299554   8.302   6.229   7.056 -2.1659 -0.7651 -0.1688
30196SOL     OW99555   1.464  10.295   7.797  0.1871 -0.5405 -0.3303
30196SOL    HW199556   1.471  10.221   7.738 -0.5427 -0.9305  0.0527
30196SOL    HW299557   1.386  10.343   7.767  0.9669  0.3942 -0.9189
30197SOL     OW99558  12.214  11.302   8.794 -0.1678  0.3387  0.2609
30197SOL    HW199559  12.135  11.249   8.803  0.7126 -0.9729  0.5067
30197SOL    HW299560  12.255  11.272   8.713  0.2915  0.7269  0.3434
30198SOL     OW99561   2.695  10.429  10.655 -0.7074  0.5296  0.2838
30198SOL    HW199562   2.642  10.380  10.593  1.2445  0.4471 -1.3891
30198SOL    HW299563   2.648  10.419  10.739 -2.1399 -1.3308 -0.6621
30199SOL     OW99564  12.056  12.490   3.327 -0.0384 -0.2102  0.0999
30199SOL    HW199565  11.980  12.464   3.379  0.8865 -1.3257  0.9618
30199SOL    HW299566  12.087  12.408   3.288  0.3591  0.3283 -0.7508
30200SOL     OW99567   6.817  10.220   5.125  0.7042  0.0775 -0.2488
30200SOL    HW199568   6.762  10.143   5.111 -0.1352  0.3662  1.1667
30200SOL    HW299569   6.801  10.244   5.216  1.5377  1.4678 -0.4357
30201SOL     OW99570   0.953   9.575   4.188  0.4070 -0.0221  0.3275
30201SOL    HW199571   1.002   9.570   4.269 -0.8640 -0.4225  1.0975
30201SOL    HW299572   1.005   9.526   4.124  0.6359 -1.0957  1.3180
30202SOL     OW99573   0.919   9.115   8.107 -0.3999  0.1449  0.1500
30202SOL    HW199574   0.850   9.133   8.044  1.1628 -0.6349 -1.9045
30202SOL    HW299575   0.978   9.054   8.062  1.1345  0.0461  2.1368
30203SOL     OW99576   0.751   7.911   9.029 -0.3643  0.5560 -0.3766
30203SOL    HW199577   0.834   7.957   9.016 -2.1132  3.9653 -0.4521
30203SOL    HW299578   0.695   7.942   8.958 -1.2664 -3.1073 -1.4799
30204SOL     OW99579   9.780   1.004   8.986  0.0567  0.6007  0.0434
30204SOL    HW199580   9.847   0.969   8.928  0.4458  0.5466  0.5232
30204SOL    HW299581   9.778   1.098   8.966  0.6763  0.6998  0.4257
30205SOL     OW99582   0.808  11.138   7.139  0.2589  0.0914  0.1795
30205SOL    HW199583   0.885  11.183   7.104  1.2112 -0.0452  1.9642
30205SOL    HW299584   0.792  11.180   7.224 -1.9917  0.4697 -0.3708
30206SOL     OW99585   4.704   3.011   3.391 -0.4085 -0.0382  0.5858
30206SOL    HW199586   4.611   2.989   3.387 -0.3757 -0.1496  0.4026
30206SOL    HW299587   4.748   2.927   3.399 -0.3373  0.0329  0.9611
30207SOL     OW99588   9.686  10.571  11.258 -0.0098 -0.1974 -0.4838
30207SOL    HW199589   9.775  10.540  11.239  0.9569  1.9386  0.2228
30207SOL    HW299590   9.696  10.623  11.337 -2.0346 -0.3805 -0.0679
30208SOL     OW99591   8.315   1.898  11.478 -0.3264 -0.1510  0.2595
30208SOL    HW199592   8.352   1.844  11.547  0.7322  0.6736  0.3754
30208SOL    HW299593   8.280   1.975  11.523 -0.9884 -0.3057  0.0168
30209SOL     OW99594   3.828   8.097   5.763  0.8740 -0.5957  0.1405
30209SOL    HW199595   3.800   8.077   5.852  1.5040  2.8208  1.2668
30209SOL    HW299596   3.813   8.191   5.754  1.1670 -0.7383 -3.2793
30210SOL     OW99597   2.000   4.923   4.015 -0.2633  0.4885  0.0768
30210SOL    HW199598   1.975   4.899   3.926  0.5071  2.7553 -0.8377
30210SOL    HW299599   1.919   4.952   4.056 -0.1254  2.8574 -1.1482
30211SOL     OW99600   3.772   2.836   6.190 -0.2609  0.5396 -0.6185
30211SOL    HW199601   3.865   2.815   6.187 -0.0844  1.0906  0.4031
30211SOL    HW299602   3.739   2.816   6.102  0.7038 -0.1647 -0.8306
30212SOL     OW99603   9.016   2.922  10.137 -0.5412  0.2947  0.1954
30212SOL    HW199604   9.031   2.832  10.166 -0.5470  0.0837 -0.4546
30212SOL    HW299605   8.920   2.929  10.132 -0.5495  0.4346  0.5526
30213SOL     OW99606   2.614   9.818  12.244  0.9300 -0.6499 -0.2082
30213SOL    HW199607   2.662   9.850  12.321  1.5954  1.0566 -1.2967
30213SOL    HW299608   2.537   9.874  12.239 -1.0941 -3.1083  1.2812
30214SOL     OW99609   3.884   9.739  12.223 -0.1591 -0.0505  0.0840
30214SOL    HW199610   3.823   9.688  12.169 -0.1405  1.0197 -0.9749
30214SOL    HW299611   3.935   9.673  12.269 -0.7900 -0.9831 -0.5152
30215SOL     OW99612   9.879  11.196   7.135 -0.5441 -0.3024 -0.2177
30215SOL    HW199613   9.973  11.212   7.129 -0.0644 -2.3747  0.7523
30215SOL    HW299614   9.861  11.131   7.067 -1.4926  0.8227 -1.0726
30216SOL     OW99615   7.819   1.843   7.026  0.4323 -0.1049  0.0471
30216SOL    HW199616   7.808   1.789   6.948 -1.2107 -1.4365  1.1122
30216SOL    HW299617   7.742   1.822   7.080  1.3520  0.9944  1.8767
30217SOL     OW99618   5.179  12.579  11.185  0.1566 -0.2087 -0.2581
30217SOL    HW199619   5.113  12.642  11.215 -0.5441 -0.8987 -0.3055
30217SOL    HW299620   5.167  12.503  11.242  2.1423  0.3092  0.9264
30218SOL     OW99621   8.305   5.620  12.229  0.0321 -0.2108  0.5185
30218SOL    HW199622   8.375   5.685  12.225 -0.0288 -0.1532  0.3736
30218SOL    HW299623   8.225   5.673  12.224 -0.0266 -0.2584  0.8875
30219SOL     OW99624   6.649  11.612   7.730 -0.2118  0.4835  0.7374
30219SOL    HW199625   6.565  11.590   7.689  0.0510  0.1163  0.3875
30219SOL    HW299626   6.632  11.694   7.777 -0.8317  0.2779  0.8835
30220SOL     OW99627   7.793   5.331   2.855  0.4581  0.1546  0.4060
30220SOL    HW199628   7.719   5.387   2.833 -0.1490  0.1176  2.2448
30220SOL    HW299629   7.815   5.287   2.772  0.2487  2.2419 -0.8276
30221SOL     OW99630   2.011   8.477   3.099  0.1038  0.1365 -0.2972
30221SOL    HW199631   1.995   8.523   3.182  1.6237  2.0103 -0.9679
30221SOL    HW299632   2.065   8.402   3.124 -0.0043  0.2982  0.4693
30222SOL     OW99633   2.180   2.205   9.999 -0.1460 -0.5157 -0.3161
30222SOL    HW199634   2.091   2.201   9.964  0.6251 -1.3685 -2.3344
30222SOL    HW299635   2.183   2.133  10.062 -0.8267 -0.5970 -0.3605
30223SOL     OW99636  11.051   7.529   4.367 -0.1661  0.0619 -0.1195
30223SOL    HW199637  10.966   7.489   4.383  0.2298 -0.1698  1.6465
30223SOL    HW299638  11.095   7.468   4.308  0.3391 -2.1669  2.3260
30224SOL     OW99639  12.577  10.387   7.362  0.4999 -0.2320 -0.1898
30224SOL    HW199640  12.506  10.324   7.376 -0.8951  1.4035  0.3401
30224SOL    HW299641  12.656  10.337   7.384 -0.4077 -2.1767 -1.0365
30225SOL     OW99642  12.456   1.237  12.363 -0.4190  0.0544  0.5285
30225SOL    HW199643  12.510   1.212  12.288 -0.3538 -2.5506  1.3197
30225SOL    HW299644  12.367   1.213  12.338 -0.5097 -0.0722  0.9659
30226SOL     OW99645   0.292   1.014  11.234 -0.0480  0.3488 -0.2353
30226SOL    HW199646   0.311   0.969  11.152  1.2062 -0.1178  0.2952
30226SOL    HW299647   0.374   1.058  11.257  0.1465 -0.8571  1.5881
30227SOL     OW99648   5.434   2.289   8.315 -0.1519 -0.5695 -0.0314
30227SOL    HW199649   5.522   2.295   8.280  0.1695 -2.4723  0.3586
30227SOL    HW299650   5.385   2.237   8.252 -0.8283 -0.0998  0.0833
30228SOL     OW99651   1.027   8.265   9.696  0.9179 -0.5829 -0.0624
30228SOL    HW199652   0.948   8.211   9.706 -0.6201  1.1903 -1.5911
30228SOL    HW299653   1.022   8.329   9.767  0.5914 -0.0881 -0.5153
30229SOL     OW99654   8.730   8.449  11.236 -0.7128  0.3418  0.1624
30229SOL    HW199655   8.814   8.455  11.282 -0.9881  0.8890  0.6116
30229SOL    HW299656   8.751   8.407  11.153 -0.1055 -0.1061  0.5394
30230SOL     OW99657  10.284  12.345   3.328 -0.0267  0.4968  0.0532
30230SOL    HW199658  10.339  12.308   3.397  0.6129  1.4123  0.0498
30230SOL    HW299659  10.195  12.334   3.360 -0.0583 -2.9331 -0.8688
30231SOL     OW99660  12.548   2.539   5.087 -0.2679  0.7249 -0.6725
30231SOL    HW199661  12.556   2.553   5.181 -1.2338 -1.9622 -0.0906
30231SOL    HW299662  12.638   2.541   5.055  0.8860 -3.8628  1.3998
30232SOL     OW99663   5.712   6.505   7.392 -0.6661 -0.5668  0.3701
30232SOL    HW199664   5.661   6.546   7.322  0.9574  1.3354  0.2234
30232SOL    HW299665   5.770   6.445   7.346 -0.2052  0.0365  0.1472
30233SOL     OW99666   3.492  11.221  10.793 -0.2093  0.0903 -0.1190
30233SOL    HW199667   3.447  11.138  10.812  0.7119 -1.1604 -2.8401
30233SOL    HW299668   3.549  11.235  10.868 -0.3065 -1.8229  0.3687
30234SOL     OW99669   4.385   9.170  12.471  0.1527  0.4096  0.2772
30234SOL    HW199670   4.342   9.086  12.460  0.6302  0.1963  0.0088
30234SOL    HW299671   4.411   9.173  12.563  1.1848 -0.2484  0.0147
30235SOL     OW99672  12.492   4.990   0.756  0.1210  0.0608  0.2095
30235SOL    HW199673  12.482   4.943   0.673  0.6498 -0.0233  0.1896
30235SOL    HW299674  12.515   5.079   0.730  0.2822  0.0353  0.2647
30236SOL     OW99675   6.449   7.291   0.989  0.0490  0.4155  0.4560
30236SOL    HW199676   6.432   7.385   0.986  0.1645  0.4199 -0.7442
30236SOL    HW299677   6.540   7.283   1.017 -0.0383  0.6468  0.8100
30237SOL     OW99678   9.682   3.353  11.979  0.0345 -0.8325  0.5244
30237SOL    HW199679   9.681   3.265  12.018 -1.6213 -0.9648  0.2888
30237SOL    HW299680   9.642   3.409  12.045 -1.7618 -0.8571 -0.4742
30238SOL     OW99681   4.045   9.696   0.569 -0.3471 -0.0591 -0.4780
30238SOL    HW199682   3.993   9.644   0.630 -1.6138 -1.7597 -2.8911
30238SOL    HW299683   4.094   9.632   0.517  1.7577  1.3928 -0.4294
30239SOL     OW99684   6.027   0.402  11.868 -1.0244  0.2777  0.3814
30239SOL    HW199685   6.073   0.358  11.797 -0.4933  1.6841 -0.1824
30239SOL    HW299686   6.066   0.365  11.948 -0.9713 -0.6333 -0.0564
30240SOL     OW99687   3.999   6.030   6.663  0.8688  0.3789  0.0883
30240SOL    HW199688   3.909   6.061   6.672  0.4826 -0.3575 -0.9415
30240SOL    HW299689   4.007   6.007   6.570  2.1045  0.3826  0.1770
30241SOL     OW99690   7.571   2.086   4.761  0.3360 -0.3312 -0.1654
30241SOL    HW199691   7.544   2.015   4.703  0.0549  0.8602 -1.5274
30241SOL    HW299692   7.639   2.133   4.711 -0.3831  1.1122  0.1758
30242SOL     OW99693   1.225   4.743   3.074 -0.1542 -0.1200 -0.0641
30242SOL    HW199694   1.236   4.677   3.143 -4.0523 -1.5548 -0.5556
30242SOL    HW299695   1.159   4.803   3.109  0.4397  1.2229 -1.1834
30243SOL     OW99696   1.779   5.143   6.161 -0.3387 -0.7787  0.7050
30243SOL    HW199697   1.848   5.095   6.116  0.3556  1.9875 -1.4535
30243SOL    HW299698   1.815   5.161   6.248  1.0635 -0.6629  0.1200
30244SOL     OW99699   1.942   0.064   9.229  0.1802 -0.5064 -0.3254
30244SOL    HW199700   1.884  -0.011   9.214  0.0616 -0.9055  1.8500
30244SOL    HW299701   1.890   0.140   9.201 -0.9867 -0.9576  0.5137
30245SOL     OW99702   5.694   3.295   3.059  0.3518 -0.1081  0.0423
30245SOL    HW199703   5.756   3.318   2.990  0.6231  1.2242  0.7016
30245SOL    HW299704   5.608   3.320   3.024  0.5024  0.6806  0.2272
30246SOL     OW99705   8.549  11.000   8.213  0.0392 -0.1187  0.1300
30246SOL    HW199706   8.530  10.999   8.119  0.1026  0.0922  0.1130
30246SOL    HW299707   8.464  10.985   8.255 -0.1960  0.9319  0.0601
30247SOL     OW99708   6.052   9.659  12.079 -0.1183  0.1920 -0.1462
30247SOL    HW199709   6.077   9.730  12.020 -3.2051  0.9428 -0.7261
30247SOL    HW299710   6.097   9.678  12.161  0.9641  1.4817 -0.9942
30248SOL     OW99711   6.423  11.502   1.406  0.2960 -0.1448  0.1888
30248SOL    HW199712   6.453  11.460   1.326 -0.2207 -1.6944  0.7680
30248SOL    HW299713   6.412  11.429   1.468 -0.9285  0.8193  1.1434
30249SOL     OW99714  11.189   7.277   8.243  0.0996  0.1166  0.4994
30249SOL    HW199715  11.179   7.369   8.268  0.9920  0.6152 -0.8321
30249SOL    HW299716  11.114   7.233   8.283 -0.9954  1.6307  0.2062
30250SOL     OW99717  11.455   6.792   5.935 -0.0582 -0.1917 -0.2150
30250SOL    HW199718  11.454   6.736   5.858 -0.5583  1.6167 -1.5990
30250SOL    HW299719  11.532   6.848   5.923  1.4489 -1.6325  2.0038
30251SOL     OW99720   9.767   8.591   6.114  0.2721 -0.1988 -0.0880
30251SOL    HW199721   9.695   8.639   6.157  1.1133  0.6448  0.4225
30251SOL    HW299722   9.759   8.615   6.021  0.5503  0.8087  0.1268
30252SOL     OW99723   5.992  11.037   5.527 -0.4637  0.4187 -0.4539
30252SOL    HW199724   5.969  11.051   5.618  0.5791 -0.9415  0.0549
30252SOL    HW299725   6.042  11.114   5.502 -0.7692  0.8061  0.1217
30253SOL     OW99726   4.032   7.061   0.540  0.2829  0.1458 -0.6867
30253SOL    HW199727   4.076   6.983   0.573 -1.3815  0.0656  1.5435
30253SOL    HW299728   4.021   7.044   0.446  2.9594 -0.7399 -0.9331
30254SOL     OW99729   8.524   2.037   5.514 -0.0300 -0.3183  0.6589
30254SOL    HW199730   8.465   2.009   5.444  0.1718  3.0900 -1.1136
30254SOL    HW299731   8.472   2.030   5.594 -1.5860 -0.8331 -0.3544
30255SOL     OW99732   6.694   2.333   4.526  0.2156 -0.2625 -0.3232
30255SOL    HW199733   6.769   2.301   4.577 -0.3350  0.4654  1.0026
30255SOL    HW299734   6.649   2.393   4.585 -0.4447  0.6573 -1.7026
30256SOL     OW99735   3.320   6.439   6.425  0.2814 -0.3521 -0.0545
30256SOL    HW199736   3.250   6.418   6.363  1.4883  0.6774 -1.8790
30256SOL    HW299737   3.395   6.461   6.369  1.5123  0.3801  1.7948
30257SOL     OW99738   3.448   3.147   2.804  0.0655 -0.1631  0.6462
30257SOL    HW199739   3.427   3.219   2.863 -0.1770 -0.8717  1.4320
30257SOL    HW299740   3.530   3.111   2.838  1.0762  0.7382 -0.6936
30258SOL     OW99741   4.262   1.023   3.445 -0.6666 -0.1301  0.7424
30258SOL    HW199742   4.198   1.069   3.499 -2.0004 -0.8907 -0.1317
30258SOL    HW299743   4.284   0.945   3.496 -0.9439 -0.2081  0.7413
30259SOL     OW99744  11.102   0.199   7.953  0.2112 -0.2189 -0.0921
30259SOL    HW199745  11.018   0.230   7.920  0.3047 -1.3903 -1.5531
30259SOL    HW299746  11.144   0.276   7.990 -0.4225  0.9433 -1.7174
30260SOL     OW99747   7.402   1.880   1.652 -0.0927 -0.2719 -0.0846
30260SOL    HW199748   7.465   1.950   1.670  1.3293 -1.2156 -1.1372
30260SOL    HW299749   7.339   1.919   1.592  1.2658 -0.1061 -1.4997
30261SOL     OW99750  11.337   0.662   4.855 -0.1571  0.3534  0.6542
30261SOL    HW199751  11.289   0.653   4.773  2.0009  2.3151 -0.9553
30261SOL    HW299752  11.378   0.577   4.869 -2.4967 -0.7886  1.1226
30262SOL     OW99753   7.558   0.407   7.771  0.6628  0.4019  0.0424
30262SOL    HW199754   7.558   0.362   7.855 -0.1665 -0.0831 -0.2043
30262SOL    HW299755   7.646   0.392   7.736  0.6987 -0.2399  0.3890
30263SOL     OW99756  10.219   0.960  10.427  0.0383  0.1964 -0.0831
30263SOL    HW199757  10.281   1.032  10.425 -0.5690  0.7145 -0.7897
30263SOL    HW299758  10.148   0.987  10.369 -0.6911 -0.5265  0.4410
30264SOL     OW99759   7.613   9.031   1.259 -0.2922 -0.3111  0.4681
30264SOL    HW199760   7.655   8.947   1.240  0.2038  0.0338 -0.0085
30264SOL    HW299761   7.557   9.048   1.184 -0.8278 -0.4818  0.8261
30265SOL     OW99762   2.758   0.086  12.553 -0.2276  0.2543 -0.9129
30265SOL    HW199763   2.827   0.026  12.582 -0.3703  0.7030  0.4389
30265SOL    HW299764   2.720   0.044  12.476 -0.0221 -1.1661 -0.2714
30266SOL     OW99765  10.434   0.557  10.471  0.3145 -0.1469  0.3868
30266SOL    HW199766  10.511   0.613  10.482 -1.2245  1.7516  2.5459
30266SOL    HW299767  10.375   0.609  10.416 -1.2985  0.6742  2.7465
30267SOL     OW99768   9.112   8.028   6.001  0.2177  0.2294 -0.0523
30267SOL    HW199769   9.086   8.116   6.027 -0.3274 -0.1506  0.7033
30267SOL    HW299770   9.208   8.033   5.993  0.2187  0.8056  0.2815
30268SOL     OW99771   3.366   2.954   6.991 -0.1739  0.0400  0.4269
30268SOL    HW199772   3.331   2.892   6.926 -1.1865 -0.0128  0.9966
30268SOL    HW299773   3.426   2.902   7.044  0.7809  0.1163 -0.5355
30269SOL     OW99774   6.882   8.936   1.607  0.0480 -0.2400 -0.7327
30269SOL    HW199775   6.909   8.902   1.522  0.9060  0.0385 -0.5746
30269SOL    HW299776   6.798   8.892   1.625  0.1852 -0.7870 -1.4187
30270SOL     OW99777   9.051   5.102  11.595  0.2017  0.1227 -0.3180
30270SOL    HW199778   9.074   5.034  11.532 -1.0258 -1.5870  1.0078
30270SOL    HW299779   9.134   5.122  11.640  0.4257 -1.1542 -0.1275
30271SOL     OW99780   4.851   2.140  11.256 -0.0093  0.0908  0.3413
30271SOL    HW199781   4.801   2.142  11.174  2.2225  1.2193 -1.1324
30271SOL    HW299782   4.898   2.057  11.253  0.7300  0.5090  0.0069
30272SOL     OW99783   3.774  11.545   1.359 -0.0453  0.7364 -0.0234
30272SOL    HW199784   3.710  11.555   1.430  0.1281  1.7074  0.0196
30272SOL    HW299785   3.840  11.612   1.377 -0.3597  1.4787 -1.4695
30273SOL     OW99786   4.482   9.216   6.768 -0.5550  0.2603 -0.5114
30273SOL    HW199787   4.410   9.271   6.798 -2.6485 -3.3652  1.8927
30273SOL    HW299788   4.448   9.172   6.690 -0.3320 -0.2192 -0.3459
30274SOL     OW99789   8.402   0.899   2.631 -0.0669  0.1015 -0.2353
30274SOL    HW199790   8.401   0.875   2.723  0.0995  0.5582 -0.1158
30274SOL    HW299791   8.309   0.912   2.608  0.0142  2.4054  0.5029
30275SOL     OW99792   8.927   3.668   4.205 -0.6014 -0.5581  0.8613
30275SOL    HW199793   8.964   3.658   4.293  1.8118 -0.5153 -0.0517
30275SOL    HW299794   8.995   3.715   4.157 -2.1185 -0.0633 -0.8948
30276SOL     OW99795  10.633  11.112   5.750 -0.4145  1.2490  0.0225
30276SOL    HW199796  10.677  11.089   5.833  0.3945  1.0499 -0.4495
30276SOL    HW299797  10.702  11.150   5.696 -0.7858  0.7747 -0.8035
30277SOL     OW99798   3.300   7.132   4.072  0.1387 -0.0865  0.0978
30277SOL    HW199799   3.264   7.067   4.132 -0.3119 -0.1997 -0.2854
30277SOL    HW299800   3.308   7.211   4.124  3.3199 -1.0919  1.3902
30278SOL     OW99801   2.561   5.765   4.502 -0.0111 -0.2351  0.2619
30278SOL    HW199802   2.495   5.697   4.488 -1.1899  1.0046 -0.3775
30278SOL    HW299803   2.511   5.844   4.522  1.3415  0.3801  1.4157
30279SOL     OW99804  10.488   6.927   4.988  0.3782 -0.6965  0.4798
30279SOL    HW199805  10.520   6.837   4.991 -0.6566 -1.1432 -0.7999
30279SOL    HW299806  10.394   6.918   4.972  0.3142  0.6183  0.0350
30280SOL     OW99807   8.066  11.404  12.513  0.1616  0.3034 -0.1063
30280SOL    HW199808   8.083  11.494  12.542  1.0440  0.4305 -0.9702
30280SOL    HW299809   7.972  11.403  12.493 -0.1677  0.6111  1.2928
30281SOL     OW99810   5.694   3.513   7.465  0.4345  0.2479  0.6818
30281SOL    HW199811   5.784   3.512   7.498  0.0385  1.2537  1.8850
30281SOL    HW299812   5.656   3.431   7.496  0.1268  1.0839  2.6612
30282SOL     OW99813   8.319  10.713   0.186 -0.3528  0.2373 -0.4258
30282SOL    HW199814   8.387  10.711   0.118 -2.0979 -0.3800 -2.2433
30282SOL    HW299815   8.271  10.631   0.174 -0.8666  0.2382  1.4278
30283SOL     OW99816   3.587   7.913   1.819 -0.7994  0.3831 -0.0444
30283SOL    HW199817   3.547   7.860   1.887  0.5890 -0.4066  0.1880
30283SOL    HW299818   3.568   8.004   1.845 -1.4760  0.0592  0.6196
30284SOL     OW99819   1.076   7.396  12.309  0.3823 -0.1178 -0.6625
30284SOL    HW199820   1.003   7.457  12.297  1.1420  0.6957 -1.3127
30284SOL    HW299821   1.074   7.373  12.402 -2.9069 -2.9903 -1.2157
30285SOL     OW99822  11.925   3.396   9.705 -0.8831  0.0451 -0.1104
30285SOL    HW199823  11.870   3.450   9.762 -1.1494  2.9362 -2.8591
30285SOL    HW299824  11.995   3.454   9.676  0.2879 -1.8419 -1.3157
30286SOL     OW99825   4.046   8.462   3.978  0.3127 -0.3460 -0.0547
30286SOL    HW199826   4.070   8.430   3.891  0.2316  1.3356 -0.7334
30286SOL    HW299827   4.129   8.494   4.016 -0.0325  1.2848 -0.5831
30287SOL     OW99828   1.459   2.896   3.144 -0.0007  0.3679  0.1529
30287SOL    HW199829   1.517   2.856   3.209 -0.0611 -0.5202 -0.3204
30287SOL    HW299830   1.422   2.821   3.097 -0.8592  0.9628 -0.1241
30288SOL     OW99831   0.407   4.476  12.204  0.3152 -0.1071  0.1864
30288SOL    HW199832   0.439   4.431  12.126 -0.7092 -4.0776  1.8069
30288SOL    HW299833   0.320   4.507  12.179  0.6692  0.1932 -0.7236
30289SOL     OW99834   3.855  12.322  11.172 -0.8306  0.1848 -0.4176
30289SOL    HW199835   3.924  12.376  11.133 -0.2878 -0.5268 -0.4507
30289SOL    HW299836   3.896  12.237  11.189 -1.8381 -0.4374 -0.9600
30290SOL     OW99837   1.232   8.196   3.987  0.2228 -0.0078 -0.1952
30290SOL    HW199838   1.277   8.129   4.038 -0.2003 -0.6319 -0.6331
30290SOL    HW299839   1.139   8.178   4.000  0.1070 -0.0147 -0.9752
30291SOL     OW99840   4.571   7.759   0.473  0.1222  0.3078  0.5887
30291SOL    HW199841   4.497   7.707   0.507  0.5902 -0.1350  0.9440
30291SOL    HW299842   4.577   7.734   0.381 -0.2115  0.3925  0.5410
30292SOL     OW99843  10.238   8.122   5.158  0.4998 -0.1474  0.5834
30292SOL    HW199844  10.245   8.203   5.209  0.2532  0.3510 -0.1469
30292SOL    HW299845  10.287   8.141   5.078  0.3663 -0.6933  0.3713
30293SOL     OW99846   4.825   8.952   4.824  1.0464 -0.4517 -0.2278
30293SOL    HW199847   4.867   8.906   4.751 -1.3187 -1.5240 -1.0164
30293SOL    HW299848   4.731   8.945   4.806  0.2401 -2.0229  3.6386
30294SOL     OW99849   8.696   3.795   4.317  0.0607 -0.0595 -0.4760
30294SOL    HW199850   8.751   3.740   4.372  0.5869 -0.4635 -1.3798
30294SOL    HW299851   8.729   3.780   4.228  0.4917  1.9752 -0.7264
30295SOL     OW99852   6.599   4.289   9.465 -0.1639  0.1047 -0.0800
30295SOL    HW199853   6.617   4.365   9.410 -1.4473  0.4741 -0.0217
30295SOL    HW299854   6.510   4.303   9.497  0.1110 -0.7047  1.1135
30296SOL     OW99855   5.635  10.950   4.111  0.2214 -0.1457 -0.3225
30296SOL    HW199856   5.632  11.020   4.176  0.3243 -1.2995  0.9583
30296SOL    HW299857   5.671  10.874   4.158  0.9727 -0.8258 -1.9028
30297SOL     OW99858   5.970   7.765   2.333 -0.3022 -0.1856 -0.1505
30297SOL    HW199859   5.919   7.686   2.354 -0.4120 -0.1395 -0.2439
30297SOL    HW299860   5.910   7.819   2.281 -1.0752  1.0314  1.8730
30298SOL     OW99861   3.134   6.355   5.833 -0.3158 -0.2779 -0.0084
30298SOL    HW199862   3.047   6.392   5.815 -2.5320 -4.3895  0.7443
30298SOL    HW299863   3.128   6.324   5.924  3.0599  1.7183  1.0304
30299SOL     OW99864   3.207   1.578   7.191 -0.8715 -0.1026 -0.3631
30299SOL    HW199865   3.215   1.569   7.096 -0.2776 -0.3297 -0.2980
30299SOL    HW299866   3.294   1.606   7.219 -0.9777 -0.2761  0.1462
30300SOL     OW99867   1.172   1.030   0.284 -0.0793  0.1885 -0.2469
30300SOL    HW199868   1.099   0.977   0.315 -0.8416  1.4284  0.1518
30300SOL    HW299869   1.250   0.978   0.306 -0.8179 -1.1841 -0.7376
30301SOL     OW99870   7.802   2.778   9.879  0.4741  0.2696  0.0237
30301SOL    HW199871   7.856   2.727   9.940 -0.1414  0.1946  0.5278
30301SOL    HW299872   7.713   2.769   9.914  0.1225  0.3040 -0.8415
30302SOL     OW99873   9.929   2.087   6.348  0.3008  0.0450  0.4311
30302SOL    HW199874   9.877   2.167   6.352  0.3009  0.2470 -2.1197
30302SOL    HW299875   9.983   2.097   6.270  0.5870 -2.2833  0.2566
30303SOL     OW99876   2.988   0.409   8.052  0.1275 -0.2462 -0.2781
30303SOL    HW199877   3.006   0.458   8.132 -0.3041  0.7325 -0.7644
30303SOL    HW299878   3.064   0.425   7.996 -1.0531  1.9220 -1.3906
30304SOL     OW99879   0.253   2.345   0.858 -0.9363 -0.1773 -0.1815
30304SOL    HW199880   0.203   2.297   0.792 -0.8956 -0.5685  0.0731
30304SOL    HW299881   0.317   2.396   0.807 -1.2365 -0.0900 -0.4741
30305SOL     OW99882   3.901   2.795   3.604 -0.0914  0.3385  0.3490
30305SOL    HW199883   3.864   2.876   3.571 -1.3176  0.5634  2.1138
30305SOL    HW299884   3.850   2.775   3.683  0.6388 -1.7676  0.3742
30306SOL     OW99885   1.874   0.516   8.299 -0.2620 -0.4970  0.1309
30306SOL    HW199886   1.914   0.517   8.212  0.0900  0.4358  0.3003
30306SOL    HW299887   1.859   0.423   8.317  0.8295 -0.7848 -0.3910
30307SOL     OW99888   2.429  11.942  11.760  0.0152  0.1610 -0.0850
30307SOL    HW199889   2.363  11.989  11.813 -0.0431 -0.9282  0.8452
30307SOL    HW299890   2.424  11.852  11.791  0.0894 -0.4820 -1.8905
30308SOL     OW99891   0.117   2.242   1.807  0.0264  0.4176  0.3583
30308SOL    HW199892   0.104   2.204   1.721 -0.3501  0.7920  0.2468
30308SOL    HW299893   0.143   2.169   1.863 -1.5163 -0.1733  0.3475
30309SOL     OW99894   7.330   2.935  11.882 -0.3895  0.3802 -0.1827
30309SOL    HW199895   7.394   3.006  11.891 -1.2472  1.0547  0.6978
30309SOL    HW299896   7.384   2.856  11.871  0.6258  0.8685  1.0144
30310SOL     OW99897   6.754   8.584   8.284  0.2998 -0.0597  0.2552
30310SOL    HW199898   6.766   8.620   8.371 -0.2410  0.1388  0.2547
30310SOL    HW299899   6.764   8.490   8.295 -1.3957 -0.2120  0.8540
30311SOL     OW99900   4.609  11.648  10.800  0.7284 -0.1936  0.2712
30311SOL    HW199901   4.607  11.734  10.756 -0.5233 -0.0545  0.5536
30311SOL    HW299902   4.663  11.663  10.878 -0.7450  0.8055  1.1661
30312SOL     OW99903   6.967   6.777   4.921 -0.2837  0.5503 -0.0477
30312SOL    HW199904   6.910   6.714   4.965 -0.6276  0.9488  0.0793
30312SOL    HW299905   6.990   6.734   4.838 -0.8193  0.4073 -0.1286
30313SOL     OW99906   8.351   8.757   4.946  0.0524 -0.5528 -0.0618
30313SOL    HW199907   8.378   8.807   5.023  0.2976  0.0943 -0.5544
30313SOL    HW299908   8.428   8.759   4.889  0.3295 -2.1395  0.2167
30314SOL     OW99909   7.601  12.105   1.705  0.3022 -0.5837  0.2279
30314SOL    HW199910   7.678  12.064   1.665  1.1394  1.6651 -0.6236
30314SOL    HW299911   7.633  12.141   1.787  0.2372  0.5082 -0.2104
30315SOL     OW99912   1.713   5.165   0.504  0.1728  0.2824 -0.4999
30315SOL    HW199913   1.709   5.072   0.481  1.9798 -0.0910  0.4352
30315SOL    HW299914   1.727   5.165   0.599  0.1578  1.5102 -0.4838
30316SOL     OW99915  11.462  11.418   9.529  0.2705  0.4423 -0.4319
30316SOL    HW199916  11.413  11.469   9.594 -0.0479 -0.2524 -0.1202
30316SOL    HW299917  11.433  11.328   9.541  2.4565 -0.1999  0.5437
30317SOL     OW99918   6.875   6.878   9.765  0.0088  0.3024  0.4201
30317SOL    HW199919   6.883   6.906   9.674  0.0376  1.6157  0.7987
30317SOL    HW299920   6.916   6.792   9.768  0.0189  0.2528 -0.8022
30318SOL     OW99921  11.558   5.966  11.033 -0.4971 -0.3973 -0.1100
30318SOL    HW199922  11.470   6.001  11.016 -0.9616 -1.4590  0.0057
30318SOL    HW299923  11.542   5.888  11.086  0.4401 -1.1965 -0.9809
30319SOL     OW99924   1.193   5.983   7.755 -0.3838 -0.5568 -0.3473
30319SOL    HW199925   1.233   6.039   7.821 -2.3667  1.1584 -0.5105
30319SOL    HW299926   1.257   5.981   7.684  0.9445 -0.8694  0.7955
30320SOL     OW99927   5.585   1.282   1.819  0.5021 -0.3525  0.5941
30320SOL    HW199928   5.663   1.238   1.785  0.2347  0.3938 -1.0873
30320SOL    HW299929   5.613   1.372   1.835 -0.5908  0.7847 -2.8572
30321SOL     OW99930   9.117   9.508   7.384 -0.4049  0.2177 -0.6931
30321SOL    HW199931   9.094   9.564   7.458 -1.0198 -1.7686  0.7003
30321SOL    HW299932   9.211   9.522   7.371  0.2300 -0.9423  1.9309
30322SOL     OW99933   5.098  10.451   0.257 -0.2802  0.3887  0.5644
30322SOL    HW199934   5.184  10.448   0.301 -0.3557  2.7965  1.0204
30322SOL    HW299935   5.061  10.534   0.284 -3.3122 -1.0682  1.2957
30323SOL     OW99936   4.144   4.653   3.059 -0.2746 -0.0052 -0.4506
30323SOL    HW199937   4.113   4.568   3.028 -1.5091  1.6051 -4.1809
30323SOL    HW299938   4.238   4.653   3.039 -0.0096 -0.8452  0.6753
30324SOL     OW99939  11.238   1.221   6.711 -0.0736  0.4149 -0.4475
30324SOL    HW199940  11.205   1.142   6.667  3.6351 -0.6006 -1.7719
30324SOL    HW299941  11.265   1.278   6.640  2.5104  0.3819  0.4322
30325SOL     OW99942  10.827   2.965   1.627 -0.5782 -0.8161  0.0879
30325SOL    HW199943  10.919   2.991   1.625 -0.3248 -1.6659  0.1594
30325SOL    HW299944  10.780   3.044   1.654  0.2580 -0.6939  1.3019
30326SOL     OW99945   2.889   4.062   0.904 -0.4515 -0.5274  0.4839
30326SOL    HW199946   2.859   4.082   0.815 -0.6161 -2.6862 -0.0216
30326SOL    HW299947   2.812   4.027   0.948  0.1634 -1.6738  0.6904
30327SOL     OW99948   1.242   5.630   4.587 -0.2786 -0.2199 -0.1632
30327SOL    HW199949   1.163   5.684   4.588 -0.6344 -0.7329  0.0299
30327SOL    HW299950   1.313   5.691   4.568 -0.8775  0.0673 -1.6389
30328SOL     OW99951  10.578   9.998  12.097  0.3727 -0.8878 -0.0718
30328SOL    HW199952  10.561  10.056  12.171  0.2465 -1.8640  0.6773
30328SOL    HW299953  10.586  10.057  12.022  0.9485  0.1542  0.7846
30329SOL     OW99954   5.817  11.877   6.458 -0.3524  0.0410 -0.5318
30329SOL    HW199955   5.860  11.914   6.535 -1.8887 -1.5881  1.2257
30329SOL    HW299956   5.887  11.833   6.410  0.1165 -2.5896  2.2740
30330SOL     OW99957   2.394   7.629  11.510  0.5823 -0.3105 -0.0920
30330SOL    HW199958   2.402   7.671  11.596  3.0166 -2.2390  0.7170
30330SOL    HW299959   2.351   7.545  11.528 -1.6597  0.4943 -1.2836
30331SOL     OW99960   2.932   3.331   3.277  0.2394 -0.0069  0.9521
30331SOL    HW199961   2.849   3.374   3.255 -0.0350 -0.4586  1.0923
30331SOL    HW299962   2.973   3.313   3.193  1.0250  1.7895  0.9061
30332SOL     OW99963   1.434   4.158   7.189 -0.4373  0.4129  0.1522
30332SOL    HW199964   1.362   4.101   7.215 -0.2369  1.2932  2.9544
30332SOL    HW299965   1.406   4.196   7.105 -2.1501 -1.0289  0.0270
30333SOL     OW99966   6.475   2.867   6.127 -0.3889  0.5307  0.2621
30333SOL    HW199967   6.427   2.915   6.194 -0.8261  0.1387  0.2395
30333SOL    HW299968   6.407   2.825   6.075 -0.0119 -0.2874  0.4183
30334SOL     OW99969   6.465   1.629   2.161  0.1857  0.3353  0.5812
30334SOL    HW199970   6.468   1.706   2.217  1.6861 -0.1708  1.2499
30334SOL    HW299971   6.424   1.562   2.215 -0.7014  0.5247  0.1590
30335SOL     OW99972   9.355   5.524   2.148 -0.6606 -0.4834 -0.4069
30335SOL    HW199973   9.345   5.596   2.210  1.3998  0.1582 -0.7480
30335SOL    HW299974   9.280   5.533   2.089 -0.8160  0.9580 -0.0329
30336SOL     OW99975   4.796   9.448   1.509  0.0422 -0.1442 -0.1368
30336SOL    HW199976   4.875   9.442   1.562 -0.5283  1.0301  0.8970
30336SOL    HW299977   4.747   9.521   1.546  0.0475  1.4276 -2.9242
30337SOL     OW99978   3.677   3.204   4.816  0.1212  0.1657 -0.0831
30337SOL    HW199979   3.641   3.216   4.728  0.8565  1.5949 -0.2173
30337SOL    HW299980   3.626   3.262   4.872  0.1537 -0.1669  0.3005
30338SOL     OW99981   2.441  10.024   5.976 -0.4473  0.0998  0.5750
30338SOL    HW199982   2.391   9.975   5.911  0.7256 -0.3146 -0.0365
30338SOL    HW299983   2.406  10.113   5.972 -0.7582 -0.0540 -0.2226
30339SOL     OW99984  12.138   4.580  11.239  0.8161  0.1538  0.5880
30339SOL    HW199985  12.229   4.553  11.246  1.4535  2.3510  1.2418
30339SOL    HW299986  12.141   4.672  11.214 -1.2272  0.3003  0.6959
30340SOL     OW99987   0.868   7.505   4.283 -0.0694 -0.4866  0.2513
30340SOL    HW199988   0.943   7.459   4.246  1.8395  1.1488  1.8568
30340SOL    HW299989   0.830   7.551   4.208 -0.6779 -2.7803 -0.9405
30341SOL     OW99990   5.244  11.685   2.622 -0.3566  0.5505  0.5251
30341SOL    HW199991   5.221  11.724   2.538  0.1911 -2.3982 -1.1296
30341SOL    HW299992   5.181  11.614   2.634  1.0391 -0.5988  1.4060
30342SOL     OW99993  11.061   3.159   7.767  0.3778 -0.3651 -0.2269
30342SOL    HW199994  11.032   3.246   7.737  0.3869 -0.9238 -1.9387
30342SOL    HW299995  11.156   3.167   7.775  0.2019  0.3636  1.7001
30343SOL     OW99996   9.367   0.691  12.398  0.3831 -0.6928  0.3538
30343SOL    HW199997   9.279   0.718  12.373  0.7957 -0.3303 -0.7498
30343SOL    HW299998   9.373   0.712  12.491 -0.7993 -1.0212  0.5191
30344SOL     OW99999   7.986  11.940   8.512  0.1504  0.2930 -0.1530
30344SOL    HW1    0   7.936  11.954   8.592  0.9781 -2.7835  1.0580
30344SOL    HW2    1   8.068  11.987   8.526 -0.3435  1.0979  0.0770
30345SOL     OW    2   0.143   6.907  12.522  0.1789  0.4403  0.4106
30345SOL    HW1    3   0.225   6.903  12.474 -0.3178  0.5706 -0.4626
30345SOL    HW2    4   0.152   6.839  12.590  1.5872  1.4516  1.2952
30346SOL     OW    5   0.578   2.777   0.544 -0.3691  0.0439  0.1326
30346SOL    HW1    6   0.662   2.797   0.585 -0.6547  0.3671  0.5702
30346SOL    HW2    7   0.596   2.782   0.450  0.5059 -1.5633  0.1742
30347SOL     OW    8   4.214   3.460   2.429  0.3949 -0.1665  0.3792
30347SOL    HW1    9   4.146   3.519   2.461 -0.5911  0.6444 -2.8253
30347SOL    HW2   10   4.287   3.517   2.408  0.1410 -0.2862 -0.9275
30348SOL     OW   11   4.617   8.241   3.987 -0.7375 -0.1722  0.3470
30348SOL    HW1   12   4.635   8.162   4.039  0.1115  1.3346  2.4776
30348SOL    HW2   13   4.677   8.235   3.913  0.8827 -0.5223  1.6312
30349SOL     OW   14   8.005  12.092  11.677  0.2621 -0.1914 -0.3018
30349SOL    HW1   15   8.029  12.144  11.600 -0.1963 -1.7962 -1.5864
30349SOL    HW2   16   7.961  12.154  11.735  1.0952  1.1796 -1.0758
30350SOL     OW   17   0.945   9.166   9.851 -1.0778  0.2769 -0.0029
30350SOL    HW1   18   0.967   9.254   9.882 -2.8181  0.7962 -0.1115
30350SOL    HW2   19   0.900   9.181   9.767 -1.0277 -0.7474 -0.2223
30351SOL     OW   20  11.306   0.309  10.334 -0.0586 -0.0192  0.3111
30351SOL    HW1   21  11.312   0.403  10.351  1.4353 -0.0500  0.0516
30351SOL    HW2   22  11.237   0.279  10.394 -0.5101  1.2129  0.4477
30352SOL     OW   23   1.513   1.699   2.375 -0.5477 -0.0888 -0.2755
30352SOL    HW1   24   1.607   1.714   2.386 -0.2254 -1.4948 -0.9061
30352SOL    HW2   25   1.496   1.616   2.420 -1.6729  0.5765  0.5858
30353SOL     OW   26   6.487  11.061   3.790  0.2696  0.0775  0.7690
30353SOL    HW1   27   6.504  11.137   3.845  0.5035  0.3831  0.2777
30353SOL    HW2   28   6.543  11.073   3.714 -0.5556  0.0016  0.1397
30354SOL     OW   29   3.839   2.677  11.767 -0.7789 -0.0411  0.5487
30354SOL    HW1   30   3.803   2.690  11.855  0.7265  2.6671  0.8498
30354SOL    HW2   31   3.930   2.651  11.781 -0.4873  0.5275 -0.2173
30355SOL     OW   32   0.295  10.726   5.656  0.1824  0.2774 -0.6309
30355SOL    HW1   33   0.317  10.640   5.620 -1.4322 -0.9091  1.0796
30355SOL    HW2   34   0.223  10.710   5.717  1.6937  2.3840  1.9340
30356SOL     OW   35   6.959   7.130   0.519 -0.0150 -0.1340 -0.3317
30356SOL    HW1   36   6.919   7.075   0.587 -1.1752 -0.6050 -1.3545
30356SOL    HW2   37   7.046   7.150   0.553 -1.0804  0.9373  2.0196
30357SOL     OW   38   9.975  10.613   8.325 -0.8279  0.7917  0.2059
30357SOL    HW1   39   9.927  10.564   8.258 -1.3728 -0.0748  1.1860
30357SOL    HW2   40   9.974  10.555   8.401 -0.8908  2.0602  1.2052
30358SOL     OW   41  10.301   0.130   5.155  1.5343  0.7126 -0.2492
30358SOL    HW1   42  10.384   0.176   5.145  2.1364 -0.6052 -1.7805
30358SOL    HW2   43  10.322   0.039   5.136 -0.0518  0.1561  0.4806
30359SOL     OW   44   6.787   8.306   1.480 -0.3685  0.1887  0.4606
30359SOL    HW1   45   6.832   8.283   1.561  0.7927  0.3945 -0.0991
30359SOL    HW2   46   6.838   8.378   1.444  0.1571 -0.9909 -1.2930
30360SOL     OW   47  12.186   7.404  11.013 -0.3098 -0.6245 -0.3987
30360SOL    HW1   48  12.241   7.449  10.949  0.6772 -1.2841 -0.0274
30360SOL    HW2   49  12.239   7.331  11.044 -0.5483  0.0011  1.6126
30361SOL     OW   50   6.494   0.780  12.136  0.5558  0.1884 -0.2161
30361SOL    HW1   51   6.539   0.701  12.166  1.8556  1.5364  1.5698
30361SOL    HW2   52   6.401   0.757  12.141  0.9093 -1.4222 -0.3428
30362SOL     OW   53   8.513   4.883   3.483 -0.2798  0.4479  0.5341
30362SOL    HW1   54   8.453   4.946   3.524  0.3176  0.4754  1.3860
30362SOL    HW2   55   8.536   4.923   3.399 -1.6312  0.3260  0.0819
30363SOL     OW   56   5.302  11.168   5.688  0.1795  0.0171 -0.7225
30363SOL    HW1   57   5.220  11.183   5.735  1.4701 -1.2193  2.1146
30363SOL    HW2   58   5.314  11.247   5.636 -2.5301  0.4519 -0.8649
30364SOL     OW   59   2.716   0.097   8.299 -0.3068 -0.0511 -0.4911
30364SOL    HW1   60   2.688   0.132   8.383 -1.3573  0.7486 -1.1505
30364SOL    HW2   61   2.742   0.006   8.318  0.1522  0.3281  0.7964
30365SOL     OW   62   3.380   9.756  11.492  0.1854 -0.4900  0.0952
30365SOL    HW1   63   3.399   9.826  11.430 -1.0677 -0.6567 -0.5022
30365SOL    HW2   64   3.308   9.789  11.545  0.9550 -0.5250  1.1929
30366SOL     OW   65   7.327   6.601   2.587 -0.3628  0.7909  0.2721
30366SOL    HW1   66   7.413   6.644   2.584  0.0429 -0.0197 -0.6644
30366SOL    HW2   67   7.277   6.643   2.517  0.0197 -0.1634 -0.6163
30367SOL     OW   68   9.567   0.747   9.978  0.5588 -0.4196 -0.1987
30367SOL    HW1   69   9.595   0.667  10.023  0.3205  0.1142  0.9332
30367SOL    HW2   70   9.506   0.717   9.911  0.1541 -1.1598  0.4813
30368SOL     OW   71   8.167   3.592   8.825 -0.4023 -0.0805 -0.1471
30368SOL    HW1   72   8.241   3.532   8.832  0.5322  1.0196 -0.1692
30368SOL    HW2   73   8.090   3.537   8.834  0.4239 -1.2458  0.0204
30369SOL     OW   74   6.608   9.554   6.935 -0.2394  0.0721  0.0976
30369SOL    HW1   75   6.602   9.638   6.891 -0.3033 -0.1021 -0.2305
30369SOL    HW2   76   6.689   9.515   6.903  0.8769  0.8783  1.8032
30370SOL     OW   77   8.449   4.571   9.851 -0.1789 -0.2801 -0.2501
30370SOL    HW1   78   8.393   4.593   9.926  1.5962  0.3797  0.9334
30370SOL    HW2   79   8.393   4.517   9.796 -1.4088 -1.2002  1.7696
30371SOL     OW   80   4.484   0.957   0.400 -0.0932  0.5153  0.1079
30371SOL    HW1   81   4.511   0.896   0.332 -0.5381  0.1381  0.2706
30371SOL    HW2   82   4.401   0.993   0.369 -0.4079  0.1790  0.5480
30372SOL     OW   83   6.254   4.892   0.053  0.3799 -0.2818  0.3427
30372SOL    HW1   84   6.175   4.838   0.044  2.0002 -3.2296  2.3053
30372SOL    HW2   85   6.227   4.964   0.110 -0.4641 -2.5193  2.9674
30373SOL     OW   86   0.207   4.168   0.186 -0.3087  0.2419 -0.2425
30373SOL    HW1   87   0.200   4.263   0.201 -1.1896  0.4850 -1.9385
30373SOL    HW2   88   0.263   4.161   0.109  1.6551 -0.7731  1.2077
30374SOL     OW   89   1.868   8.226   0.121  0.0459 -0.3561  0.5935
30374SOL    HW1   90   1.815   8.183   0.055  1.7949 -0.5836 -0.7476
30374SOL    HW2   91   1.942   8.262   0.072  0.4517  1.0940  2.1807
30375SOL     OW   92   5.599   1.429   8.122  0.3503  0.5663  0.0254
30375SOL    HW1   93   5.671   1.483   8.157  1.3481 -0.7039  0.0188
30375SOL    HW2   94   5.643   1.361   8.071 -0.4784 -2.5796  3.0526
30376SOL     OW   95   0.009  10.448   5.613  0.0531 -0.2736 -0.0876
30376SOL    HW1   96   0.027  10.447   5.707 -1.3946 -0.0969  0.2072
30376SOL    HW2   97  -0.000  10.355   5.590  2.3172 -0.4602 -0.4813
30377SOL     OW   98   2.537   9.365   7.173  0.0038 -0.7774  0.2332
30377SOL    HW1   99   2.447   9.390   7.150 -0.4128 -1.6406  0.8306
30377SOL    HW2  100   2.574   9.333   7.091 -0.2794 -0.5463  0.0088
30378SOL     OW  101   8.965   7.012   4.003  0.2886 -0.2366 -0.9895
30378SOL    HW1  102   9.018   7.048   3.932  0.5617 -1.5958 -1.5010
30378SOL    HW2  103   9.015   7.031   4.083 -0.0669  1.3818 -1.1296
30379SOL     OW  104   2.573   3.033  11.549  0.1839 -0.0889 -0.1805
30379SOL    HW1  105   2.573   2.939  11.565  0.7069 -0.4969 -2.2856
30379SOL    HW2  106   2.620   3.070  11.625 -1.7039 -1.2594  1.6663
30380SOL     OW  107   0.143   4.642   3.934  1.2678 -0.0179  0.2019
30380SOL    HW1  108   0.048   4.646   3.924  0.9985 -0.1611  2.3343
30380SOL    HW2  109   0.177   4.686   3.856 -0.4972 -0.8354 -1.0865
30381SOL     OW  110   9.825  10.311   6.685  0.1632 -0.9009  0.1513
30381SOL    HW1  111   9.861  10.382   6.631 -0.6778 -2.4309 -2.6277
30381SOL    HW2  112   9.745  10.347   6.723  0.8140  0.2479  0.4734
30382SOL     OW  113   1.565   0.309   6.760 -0.0086 -0.7975 -0.3296
30382SOL    HW1  114   1.615   0.228   6.747  1.0177 -0.0991 -0.8810
30382SOL    HW2  115   1.630   0.373   6.789 -0.8642 -0.2418  0.4009
30383SOL     OW  116   9.164   3.105   9.090  0.7813 -0.1410 -0.0074
30383SOL    HW1  117   9.223   3.030   9.090 -0.5806 -1.3206  2.1230
30383SOL    HW2  118   9.122   3.104   9.004  1.0370 -1.6466 -0.1299
30384SOL     OW  119   1.367   4.218   5.139 -0.3677  0.3635  0.0979
30384SOL    HW1  120   1.293   4.279   5.142 -3.5650 -3.0852 -0.5409
30384SOL    HW2  121   1.387   4.208   5.046 -2.1100 -1.7950 -0.1239
30385SOL     OW  122   7.674   1.934   9.093  0.1755 -0.2025 -0.0498
30385SOL    HW1  123   7.724   1.861   9.056  1.0740  0.1172  0.4975
30385SOL    HW2  124   7.666   1.997   9.021  1.1227  0.0179  0.0242
30386SOL     OW  125  12.009  11.686   3.498 -0.0785  0.3122 -0.3649
30386SOL    HW1  126  12.098  11.704   3.528  0.0442 -1.5206  0.5430
30386SOL    HW2  127  12.009  11.591   3.483 -2.0054  0.2088  0.1103
30387SOL     OW  128   2.030   8.863   3.939 -0.0418 -0.0840 -0.3450
30387SOL    HW1  129   2.123   8.864   3.918 -0.1131  0.9167 -0.6736
30387SOL    HW2  130   1.985   8.865   3.855 -0.3402  1.1229 -0.1826
30388SOL     OW  131   9.965  12.116   5.785 -0.8713  0.8085 -0.0862
30388SOL    HW1  132   9.905  12.142   5.715 -0.5554  0.6737 -0.4106
30388SOL    HW2  133   9.908  12.077   5.852 -1.0668 -0.1021 -0.7556
30389SOL     OW  134   4.243   5.591   9.076 -0.6205 -0.1381  0.0145
30389SOL    HW1  135   4.267   5.580   9.168 -1.8336  1.7406  0.5984
30389SOL    HW2  136   4.321   5.629   9.035 -0.2295 -0.5718  0.3389
30390SOL     OW  137   6.929   1.087   4.989  0.2311 -0.0184 -0.1617
30390SOL    HW1  138   6.848   1.118   5.029  0.2424  0.7341 -0.7063
30390SOL    HW2  139   6.918   0.992   4.982 -0.9556  0.1662 -1.0030
30391SOL     OW  140   9.692   8.792  11.486 -0.0265  0.5700  0.4018
30391SOL    HW1  141   9.761   8.851  11.516  1.1740 -0.2898 -0.5523
30391SOL    HW2  142   9.710   8.779  11.393 -1.1868 -0.0938  0.2425
30392SOL     OW  143   3.598   9.451   1.893  0.2561  0.3606 -0.3690
30392SOL    HW1  144   3.650   9.429   1.816 -1.1329  0.9538 -1.5039
30392SOL    HW2  145   3.535   9.379   1.901 -0.0725  0.6631 -0.2222
30393SOL     OW  146   2.575  10.772   3.260  0.0351 -0.6498 -0.1041
30393SOL    HW1  147   2.581  10.712   3.186  3.6961 -1.9617  1.0507
30393SOL    HW2  148   2.595  10.858   3.222  0.5215 -1.0856 -0.8594
30394SOL     OW  149   2.452   5.146   0.652 -0.3197 -0.0189  0.1049
30394SOL    HW1  150   2.503   5.222   0.680  0.7369  0.3396 -2.4894
30394SOL    HW2  151   2.506   5.071   0.675 -0.0511  0.1856  0.1509
30395SOL     OW  152  11.087   0.201  12.243 -0.0718  0.3837 -0.4044
30395SOL    HW1  153  11.034   0.122  12.250  0.6242 -0.0147  0.6866
30395SOL    HW2  154  11.171   0.171  12.210  0.4326  0.5264  0.6919
30396SOL     OW  155  11.832   2.978   9.398  0.5205  0.1259 -0.3617
30396SOL    HW1  156  11.791   2.899   9.431  2.4681 -1.2650 -1.0676
30396SOL    HW2  157  11.808   3.046   9.461 -0.2620 -1.2688  0.9067
30397SOL     OW  158   6.867   4.165  11.395 -0.7252 -0.5363  0.0295
30397SOL    HW1  159   6.855   4.102  11.324 -2.0514  0.9748 -1.1532
30397SOL    HW2  160   6.791   4.152  11.452  1.0158 -2.7193  2.0862
30398SOL     OW  161   9.038   6.722   8.306  0.4981 -0.0924  0.2527
30398SOL    HW1  162   8.957   6.698   8.261  1.0574 -0.1292 -0.7875
30398SOL    HW2  163   9.097   6.649   8.287  2.0455  1.6663 -2.4398
30399SOL     OW  164   4.663   1.180   5.096  0.1480 -0.3147 -0.5904
30399SOL    HW1  165   4.640   1.090   5.118  0.2717 -0.0828  0.5105
30399SOL    HW2  166   4.584   1.231   5.114 -0.2164 -0.3059 -2.0466
30400SOL     OW  167  11.673  11.908   4.899 -0.2629  0.6788 -0.2716
30400SOL    HW1  168  11.655  11.953   4.982  0.6526  0.1867  0.2078
30400SOL    HW2  169  11.663  11.815   4.920  1.2541  0.4684 -0.3629
30401SOL     OW  170  10.067   6.422   3.153  0.3319 -0.2029  0.0174
30401SOL    HW1  171  10.106   6.361   3.215 -0.0399 -1.2778 -0.7755
30401SOL    HW2  172   9.984   6.448   3.194  0.2359 -0.6626  0.1221
30402SOL     OW  173  12.411   5.802   6.888 -0.0875  0.1888  0.2901
30402SOL    HW1  174  12.426   5.870   6.821  1.0425 -0.9074 -0.6107
30402SOL    HW2  175  12.332   5.757   6.859  0.2436 -0.1037 -0.1741
30403SOL     OW  176   3.873   1.003  10.843 -0.2279  0.5014  0.6090
30403SOL    HW1  177   3.849   1.064  10.912 -0.5774 -0.1005  1.0274
30403SOL    HW2  178   3.815   0.928  10.856  0.1141  0.1284  0.0290
30404SOL     OW  179   7.464   3.627  11.461 -0.0313 -0.5932 -0.1344
30404SOL    HW1  180   7.429   3.637  11.372 -0.8156 -0.5775  0.1722
30404SOL    HW2  181   7.536   3.690  11.466 -1.6151  1.2629  0.0870
30405SOL     OW  182   4.007   2.041  11.280 -0.2047  0.0489  0.4786
30405SOL    HW1  183   4.098   2.029  11.252 -1.4479 -1.5291 -3.8316
30405SOL    HW2  184   3.970   1.953  11.277 -2.6414  1.0134 -1.5760
30406SOL     OW  185   9.811   8.298   8.406 -0.0932  0.1436 -0.2631
30406SOL    HW1  186   9.740   8.239   8.433 -2.1835  2.1283 -1.0506
30406SOL    HW2  187   9.819   8.283   8.311  0.7102 -0.2126 -0.1442
30407SOL     OW  188   2.098  11.693   0.271  0.5565 -0.6217  0.1972
30407SOL    HW1  189   2.104  11.635   0.347  0.2961 -0.0378  0.6672
30407SOL    HW2  190   2.170  11.756   0.284 -0.1610  0.1437  0.5367
30408SOL     OW  191  12.419   3.009  11.030  0.1720 -0.1521  0.4778
30408SOL    HW1  192  12.336   2.980  11.068 -0.4988 -0.2382 -0.9899
30408SOL    HW2  193  12.396   3.085  10.976  0.9014 -0.6216 -0.5418
30409SOL     OW  194   6.750   6.557   8.352  0.2612  0.0769  0.1848
30409SOL    HW1  195   6.724   6.465   8.361 -0.3938  0.1711 -0.6060
30409SOL    HW2  196   6.742   6.592   8.440 -0.2385 -0.4432  0.3565
30410SOL     OW  197   1.333   1.402   0.985 -0.0761  0.5953 -0.4863
30410SOL    HW1  198   1.248   1.414   1.027 -0.0965 -0.1423 -0.2968
30410SOL    HW2  199   1.375   1.331   1.035  0.6490  0.9456 -0.5802
30411SOL     OW  200   9.617   5.112   3.846  0.4819  0.1130  0.3573
30411SOL    HW1  201   9.598   5.055   3.921 -0.3630  1.8239  1.5028
30411SOL    HW2  202   9.594   5.199   3.876 -2.9861  0.5649 -2.9153
30412SOL     OW  203   9.039   8.225  11.950 -0.3540  0.1708 -0.4031
30412SOL    HW1  204   9.098   8.203  11.878 -0.5585  0.4990 -0.6763
30412SOL    HW2  205   9.091   8.212  12.029 -0.0743 -0.0301 -0.6193
30413SOL     OW  206   1.723  12.199   0.044  0.9260  0.3216 -0.2385
30413SOL    HW1  207   1.661  12.207  -0.029 -0.1905 -0.7152  0.5564
30413SOL    HW2  208   1.785  12.271   0.031  0.0155  0.9085 -1.5067
30414SOL     OW  209   3.282   1.905   8.104 -0.2317  0.9655 -0.9418
30414SOL    HW1  210   3.212   1.923   8.040  0.0971 -1.5991 -2.1346
30414SOL    HW2  211   3.236   1.875   8.182 -0.5103 -0.7458 -1.7337
30415SOL     OW  212   1.180   8.951   9.707  0.2486  0.2355  0.7191
30415SOL    HW1  213   1.172   8.969   9.800  0.2720  1.1326  0.5578
30415SOL    HW2  214   1.148   9.030   9.664  2.5636  0.8722  0.0033
30416SOL     OW  215  11.147  10.523   6.680 -0.3702  0.0143  0.6379
30416SOL    HW1  216  11.065  10.537   6.726 -0.2126  1.5721  0.4984
30416SOL    HW2  217  11.135  10.563   6.594  0.3857 -0.1087  0.4602
30417SOL     OW  218   9.998   4.937   3.124 -0.5327  0.5261 -0.3311
30417SOL    HW1  219  10.011   4.994   3.049 -0.1449  1.6281  0.5327
30417SOL    HW2  220   9.915   4.892   3.107 -0.5313  0.8755 -1.3268
30418SOL     OW  221   7.912   6.571   7.354  0.1930  0.1216 -0.2123
30418SOL    HW1  222   7.963   6.492   7.335 -0.7779 -0.9337  1.3136
30418SOL    HW2  223   7.892   6.609   7.269  0.6475 -1.3175 -0.9781
30419SOL     OW  224  11.549   3.137   3.625  0.2898  0.0960 -0.0451
30419SOL    HW1  225  11.571   3.093   3.707 -1.0459  1.4561  1.1175
30419SOL    HW2  226  11.478   3.197   3.649 -0.4629  0.1967 -2.3067
30420SOL     OW  227   7.552   7.929  10.731  0.0907  0.4211  0.2796
30420SOL    HW1  228   7.633   7.971  10.759  0.2499  0.4042 -0.1412
30420SOL    HW2  229   7.511   7.899  10.812  1.6508 -1.6959  0.3933
30421SOL     OW  230   3.024   0.777  11.224 -0.2189 -0.0327  0.4862
30421SOL    HW1  231   2.971   0.739  11.154  0.1787  0.1491  0.0764
30421SOL    HW2  232   3.003   0.724  11.301 -2.1967  1.0400  0.7362
30422SOL     OW  233   8.529  11.897  10.733 -0.1929  0.1794  0.3281
30422SOL    HW1  234   8.470  11.854  10.795  0.7677 -0.4126  0.8514
30422SOL    HW2  235   8.526  11.841  10.655 -1.2387  0.8107 -0.1096
30423SOL     OW  236   4.547   3.960  11.378 -0.5206 -0.3931  0.4977
30423SOL    HW1  237   4.527   4.050  11.403 -0.0833 -0.2151  0.2187
30423SOL    HW2  238   4.461   3.918  11.369 -0.7295  0.0282  0.5000
30424SOL     OW  239  10.222  11.108   5.569 -0.1608  0.4310 -0.2705
30424SOL    HW1  240  10.302  11.155   5.547 -0.5499  1.8229  1.1498
30424SOL    HW2  241  10.209  11.124   5.663  0.3655 -3.5864  0.6730
30425SOL     OW  242   4.155   8.828   5.314 -0.5026  0.0304 -0.3947
30425SOL    HW1  243   4.110   8.758   5.362  1.8063 -0.9063  0.5279
30425SOL    HW2  244   4.152   8.800   5.222  0.8360 -1.5839  0.0221
30426SOL     OW  245  11.483   4.758   7.982 -0.2623  0.0733 -0.0558
30426SOL    HW1  246  11.558   4.789   8.032 -0.5176  0.7071 -0.0606
30426SOL    HW2  247  11.467   4.826   7.917 -1.9332  0.8233  1.0647
30427SOL     OW  248   4.051   1.170   3.858  0.0946 -0.1118  0.2836
30427SOL    HW1  249   4.079   1.095   3.911  0.8551  0.2497  0.4168
30427SOL    HW2  250   4.109   1.241   3.886  0.0102  0.2786 -0.5124
30428SOL     OW  251   8.259  11.304   1.895  0.2132 -0.3443 -0.0131
30428SOL    HW1  252   8.270  11.287   1.802 -0.2775  1.6521 -0.4710
30428SOL    HW2  253   8.331  11.256   1.937  0.0376 -1.8284 -1.3231
30429SOL     OW  254  10.732   4.530  10.941 -0.0230 -0.5327 -0.0401
30429SOL    HW1  255  10.737   4.576  11.025 -0.7441 -0.7893  0.1519
30429SOL    HW2  256  10.762   4.442  10.960  0.3744 -0.4320 -0.1855
30430SOL     OW  257   9.572  11.768   7.920 -0.3280  0.0737  0.3456
30430SOL    HW1  258   9.559  11.691   7.976  1.2916  1.2731  2.5194
30430SOL    HW2  259   9.633  11.739   7.853  2.0165 -0.0858  2.4087
30431SOL     OW  260   8.206   1.203   5.456  0.3225 -0.2425  0.0178
30431SOL    HW1  261   8.124   1.251   5.471  0.4797  0.1335 -0.3038
30431SOL    HW2  262   8.264   1.267   5.415  0.5059 -0.7419 -0.5092
30432SOL     OW  263   3.491   8.828   8.230 -0.4792 -0.0515  0.1169
30432SOL    HW1  264   3.551   8.842   8.303 -0.7237 -0.8769  0.4862
30432SOL    HW2  265   3.424   8.896   8.240 -0.7067 -0.3755  0.8720
30433SOL     OW  266  10.969   7.418   8.851 -0.3220  0.6172  0.0203
30433SOL    HW1  267  10.904   7.485   8.830 -1.7697 -0.8220 -0.2677
30433SOL    HW2  268  11.012   7.451   8.930  0.3096  2.7376 -1.1223
30434SOL     OW  269   6.512   8.133   3.737  0.0464 -0.0406 -0.1976
30434SOL    HW1  270   6.428   8.167   3.707 -0.0053 -0.6195 -0.6993
30434SOL    HW2  271   6.506   8.139   3.833 -0.2240  0.7308 -0.2542
30435SOL     OW  272   6.456  11.750   8.882  0.0167  0.5726  0.0076
30435SOL    HW1  273   6.452  11.824   8.822 -0.3914  1.6275  1.3035
30435SOL    HW2  274   6.465  11.673   8.825 -1.8169  1.3936 -1.4784
30436SOL     OW  275   7.191   3.273   1.682 -0.1397 -0.2108  0.5757
30436SOL    HW1  276   7.173   3.183   1.656  0.7257 -0.0452 -0.6995
30436SOL    HW2  277   7.221   3.267   1.772  1.0517 -1.3433  0.1339
30437SOL     OW  278   4.274  10.815   3.943  0.0270 -0.0978  0.3375
30437SOL    HW1  279   4.193  10.864   3.929  2.3686  3.5722 -2.4776
30437SOL    HW2  280   4.283  10.761   3.863  0.2858 -0.6448  0.7284
30438SOL     OW  281   1.130   7.014   4.863 -0.7571  0.3426  0.3998
30438SOL    HW1  282   1.216   7.054   4.876 -0.2625  0.0407 -1.6056
30438SOL    HW2  283   1.109   7.030   4.771 -2.2446 -0.7574  0.4979
30439SOL     OW  284   4.390   6.567   5.498  0.0116 -0.3108 -0.0211
30439SOL    HW1  285   4.325   6.627   5.459  0.9051  0.0117 -1.0702
30439SOL    HW2  286   4.362   6.558   5.589 -1.7886 -0.5740 -0.5494
30440SOL     OW  287   7.240  11.687   7.346  0.0693  0.1736 -0.2123
30440SOL    HW1  288   7.321  11.648   7.312 -0.0150 -1.3785  1.2429
30440SOL    HW2  289   7.202  11.733   7.271  2.9699  2.2049 -0.6385
30441SOL     OW  290   6.970   0.100   0.718 -0.3155  0.1110 -0.3804
30441SOL    HW1  291   7.017   0.034   0.769 -0.8268  0.5050  0.6190
30441SOL    HW2  292   7.033   0.129   0.652 -0.3926 -2.0680 -1.4851
30442SOL     OW  293   6.585   2.133   9.922  0.3926  0.5404 -0.0831
30442SOL    HW1  294   6.662   2.182   9.949  0.2393  1.0948 -0.6384
30442SOL    HW2  295   6.533   2.196   9.872 -1.6514  0.9928  2.3501
30443SOL     OW  296  11.283   3.797   8.987 -0.4618  0.1861 -0.5026
30443SOL    HW1  297  11.282   3.821   9.079 -0.0915  0.0732 -0.4646
30443SOL    HW2  298  11.297   3.702   8.987 -2.2837 -0.1052 -0.6434
30444SOL     OW  299   3.703  10.401   1.997  0.6069 -0.0385  0.1806
30444SOL    HW1  300   3.681  10.334   2.061  0.7963  0.7050  1.0414
30444SOL    HW2  301   3.762  10.358   1.936 -0.4310 -1.0668 -0.1377
30445SOL     OW  302   6.037  11.497   8.812 -0.7338  0.0411  0.2853
30445SOL    HW1  303   5.947  11.517   8.785 -1.1696 -1.9976  0.0743
30445SOL    HW2  304   6.091  11.540   8.746 -1.5746  0.7179  0.0122
30446SOL     OW  305   3.097  11.511   5.685 -0.9719 -0.3344  0.0737
30446SOL    HW1  306   3.001  11.506   5.687 -0.9371 -0.8396  0.7391
30446SOL    HW2  307   3.125  11.458   5.759 -0.2070  0.7369  0.5727
30447SOL     OW  308   0.372   9.287   9.446 -0.0021  1.2441  0.0368
30447SOL    HW1  309   0.443   9.346   9.419  0.4410  0.2346 -1.0567
30447SOL    HW2  310   0.392   9.204   9.403 -0.0920 -0.0204  2.2684
30448SOL     OW  311  12.412   3.833   3.893 -0.1132 -0.0328  0.2533
30448SOL    HW1  312  12.418   3.919   3.933  0.6271  0.3704 -0.6810
30448SOL    HW2  313  12.350   3.844   3.821 -2.6381 -1.1143  2.1138
30449SOL     OW  314   0.301  11.441   0.250  0.2915  0.4063  1.0806
30449SOL    HW1  315   0.314  11.536   0.253 -1.4055  0.6712  0.8718
30449SOL    HW2  316   0.388  11.405   0.234  0.5517  2.0935 -1.9895
30450SOL     OW  317   3.049   6.859   3.614 -0.0324  0.2288  0.6696
30450SOL    HW1  318   3.142   6.871   3.631  0.1042 -1.3830  1.2277
30450SOL    HW2  319   3.008   6.857   3.701 -0.5797  0.7882  0.4356
30451SOL     OW  320   7.920   6.200  10.231 -0.3333  0.1914 -0.0531
30451SOL    HW1  321   7.878   6.139  10.291 -1.9158 -1.5674 -2.7408
30451SOL    HW2  322   8.006   6.160  10.213 -0.3942  0.0153  0.0410
30452SOL     OW  323   0.272   9.517   4.777  0.4512 -0.0378  0.2380
30452SOL    HW1  324   0.322   9.499   4.697  2.4410 -0.0911  1.4442
30452SOL    HW2  325   0.183   9.535   4.746  1.0856 -0.4254 -1.9479
30453SOL     OW  326  10.764   7.675   1.194 -0.5463  0.0560 -0.2354
30453SOL    HW1  327  10.780   7.609   1.127 -3.3776 -0.7630 -0.2192
30453SOL    HW2  328  10.813   7.644   1.270 -0.0127 -0.8096 -0.9148
30454SOL     OW  329  10.396   3.473  10.593 -0.1455  0.7157 -0.0543
30454SOL    HW1  330  10.397   3.473  10.497  1.6908  1.4564 -0.0788
30454SOL    HW2  331  10.329   3.537  10.616 -2.0642 -0.9106 -0.7630
30455SOL     OW  332   4.392   4.785   2.212  0.2777  0.4448  0.4909
30455SOL    HW1  333   4.340   4.831   2.146  0.8166 -0.0121 -0.2645
30455SOL    HW2  334   4.336   4.714   2.243 -1.0727  2.2819  2.5956
30456SOL     OW  335   7.796   8.642   6.575 -0.0636  0.5506  0.8778
30456SOL    HW1  336   7.854   8.713   6.603  0.2986  0.1649  1.1246
30456SOL    HW2  337   7.795   8.582   6.650  0.2724 -0.0943  0.3741
30457SOL     OW  338   8.334  11.375   1.409  0.3657  0.0205 -0.3192
30457SOL    HW1  339   8.393  11.431   1.358  3.2425 -1.0004  1.6216
30457SOL    HW2  340   8.318  11.299   1.353  1.4698  0.0101 -0.6305
30458SOL     OW  341   3.875   2.121   9.866  0.2413  0.0345 -0.3629
30458SOL    HW1  342   3.829   2.107   9.949 -1.2458  2.3143 -0.6950
30458SOL    HW2  343   3.866   2.038   9.819 -0.5309 -0.6934  1.0199
30459SOL     OW  344   7.117   8.193   4.785  0.4124  0.0772  0.1692
30459SOL    HW1  345   7.197   8.243   4.776  1.0622 -0.7457  1.0904
30459SOL    HW2  346   7.103   8.188   4.880 -1.0661  0.7206  0.0136
30460SOL     OW  347   7.176   1.751   6.866  0.0777  0.1567 -0.8338
30460SOL    HW1  348   7.111   1.703   6.814  0.2343  0.3615 -1.2173
30460SOL    HW2  349   7.234   1.683   6.900 -0.0487  0.0191 -0.8914
30461SOL     OW  350  12.298   7.663  12.577 -0.2830 -0.0999 -0.9751
30461SOL    HW1  351  12.226   7.722  12.556  0.1649  0.3474 -1.2579
30461SOL    HW2  352  12.263   7.575  12.559 -1.4185 -0.0429  0.7553
30462SOL     OW  353  11.942   6.972  11.050  0.1643  0.0744 -0.1115
30462SOL    HW1  354  11.919   6.880  11.037  1.0615 -0.3840  1.3008
30462SOL    HW2  355  12.018   6.970  11.108  0.1203  1.7180  0.0614
30463SOL     OW  356   0.142   4.024  10.867 -0.0835 -0.6343  0.2347
30463SOL    HW1  357   0.159   4.112  10.901 -1.4407 -0.9894  1.9355
30463SOL    HW2  358   0.210   4.011  10.801  1.5047  0.8328  1.4818
30464SOL     OW  359   6.295   1.392   6.396 -0.1962  0.5877  0.0833
30464SOL    HW1  360   6.380   1.378   6.354 -0.3382  0.2540 -0.0924
30464SOL    HW2  361   6.315   1.398   6.489  0.1190  1.3274 -0.0211
30465SOL     OW  362  12.590   1.628  10.055  0.4446 -0.6242  0.1240
30465SOL    HW1  363  12.562   1.720  10.055  0.3161 -0.6519 -0.5865
30465SOL    HW2  364  12.531   1.586   9.992  1.2960 -0.9426 -0.4727
30466SOL     OW  365   3.928   9.492   3.549  0.5408 -0.2472  0.1915
30466SOL    HW1  366   3.876   9.479   3.628  1.6570 -1.0549  0.8182
30466SOL    HW2  367   3.924   9.586   3.532 -0.8980 -0.2599  0.3592
30467SOL     OW  368   3.249   0.781   7.854 -0.7023  0.1339 -0.0302
30467SOL    HW1  369   3.246   0.847   7.924  1.0020  0.9876 -0.7215
30467SOL    HW2  370   3.178   0.807   7.795  1.1441  2.6521 -1.3396
30468SOL     OW  371   2.749   3.100   9.600 -0.3027  0.2325  0.0875
30468SOL    HW1  372   2.655   3.086   9.593 -0.0568 -0.7853 -1.9438
30468SOL    HW2  373   2.788   3.014   9.588  0.9212  0.8747 -0.8922
30469SOL     OW  374   1.886   2.554   8.573  0.1880 -0.0235 -0.3545
30469SOL    HW1  375   1.895   2.486   8.639  1.1379 -1.1245 -1.5673
30469SOL    HW2  376   1.797   2.546   8.541 -0.1461  0.2462  0.4865
30470SOL     OW  377  11.796   5.894   1.612 -0.4087 -0.7428 -0.1981
30470SOL    HW1  378  11.836   5.921   1.695 -0.6786 -0.7845 -0.0519
30470SOL    HW2  379  11.828   5.958   1.548 -1.6412  0.4112  0.2883
30471SOL     OW  380   6.824   0.492   5.648 -0.1149 -0.1383  0.4549
30471SOL    HW1  381   6.911   0.530   5.654  1.2391 -2.8428 -0.2989
30471SOL    HW2  382   6.820   0.430   5.721 -1.2840 -0.2762  0.2908
30472SOL     OW  383   3.026   8.766   8.420 -0.1427  0.3435  0.1245
30472SOL    HW1  384   3.026   8.742   8.327  2.3913 -0.1420  0.1824
30472SOL    HW2  385   3.051   8.858   8.421 -4.1423  1.6206  0.2254
30473SOL     OW  386   6.925   3.449   1.495  0.2798 -0.3270 -0.1744
30473SOL    HW1  387   6.902   3.357   1.481  0.1628 -0.6663  1.9774
30473SOL    HW2  388   7.020   3.448   1.507  0.4076 -0.0107 -1.0471
30474SOL     OW  389   3.523   3.702   5.998  0.2112  0.0223  0.1760
30474SOL    HW1  390   3.533   3.783   5.948  1.2668 -1.0042 -1.3799
30474SOL    HW2  391   3.484   3.640   5.937 -1.3920 -0.4427  1.5993
30475SOL     OW  392   2.337  10.300   6.033  0.0386  0.3028  0.3145
30475SOL    HW1  393   2.288  10.357   6.092 -0.4841 -0.9196  1.0971
30475SOL    HW2  394   2.389  10.360   5.979 -0.2433  1.4854  1.3210
30476SOL     OW  395   2.244   7.854   0.277 -0.1321  0.0567  0.1604
30476SOL    HW1  396   2.339   7.843   0.279  0.2840  1.8706 -2.7860
30476SOL    HW2  397   2.226   7.929   0.333  0.3444  0.4183 -0.1690
30477SOL     OW  398   6.049   3.239   2.887  0.3239  0.0475  0.0744
30477SOL    HW1  399   6.050   3.317   2.943 -0.2411 -0.2190  0.4596
30477SOL    HW2  400   6.100   3.174   2.935  0.5369  0.0791 -0.1067
30478SOL     OW  401  12.041   2.710   6.216  0.0262  0.0850  0.0164
30478SOL    HW1  402  11.946   2.718   6.215  0.0942  1.0152 -1.1510
30478SOL    HW2  403  12.060   2.658   6.294 -1.3795  0.4932  0.6570
30479SOL     OW  404  11.419   6.532   5.821  0.2138  0.0602  0.0951
30479SOL    HW1  405  11.432   6.493   5.735  1.1530 -1.3694  0.8373
30479SOL    HW2  406  11.332   6.503   5.848 -0.5846  1.4748 -0.8067
30480SOL     OW  407  10.330  10.062   5.038 -0.1133 -0.2310 -0.4815
30480SOL    HW1  408  10.405  10.118   5.019 -1.0710  0.6930 -1.6563
30480SOL    HW2  409  10.363  10.000   5.103  1.0497  1.5287  0.7105
30481SOL     OW  410   5.298   2.317   9.194  0.3726 -0.3435 -0.9178
30481SOL    HW1  411   5.375   2.345   9.243  0.3143  0.8163 -1.4562
30481SOL    HW2  412   5.282   2.388   9.132 -1.7316 -0.0843 -0.1546
30482SOL     OW  413  10.218   0.687   7.014 -0.3791  0.1223 -0.3225
30482SOL    HW1  414  10.253   0.776   7.023 -0.3849  0.0964 -0.0380
30482SOL    HW2  415  10.278   0.644   6.953  0.7278 -0.2562  1.0096
30483SOL     OW  416   6.048   1.424   9.240 -0.2081 -0.1009 -0.2709
30483SOL    HW1  417   6.124   1.470   9.278 -0.3608 -0.0122 -0.0711
30483SOL    HW2  418   6.086   1.347   9.198  0.1295  0.5393 -1.1679
30484SOL     OW  419   0.683   5.965   0.691 -0.2633  0.4003 -0.3014
30484SOL    HW1  420   0.737   5.976   0.612  0.2417 -0.7858 -0.1483
30484SOL    HW2  421   0.681   6.051   0.731 -0.0634  0.8949 -1.3272
30485SOL     OW  422   3.432   3.694   5.016 -0.4621 -0.1318  0.4462
30485SOL    HW1  423   3.474   3.623   5.066  3.1147  1.5399  0.1529
30485SOL    HW2  424   3.415   3.762   5.081 -1.2452 -0.1631  0.2815
30486SOL     OW  425  11.991   2.012   3.531 -0.1594  0.2667  0.0101
30486SOL    HW1  426  11.967   2.070   3.603  0.7223 -0.1242  0.6381
30486SOL    HW2  427  12.007   2.070   3.457  0.8066  0.8434  0.6523
30487SOL     OW  428   4.230   8.793   8.750 -0.0902  0.0573  0.3735
30487SOL    HW1  429   4.141   8.810   8.720 -0.1765 -0.2127  0.4725
30487SOL    HW2  430   4.275   8.876   8.740 -1.2189  1.2119  3.4579
30488SOL     OW  431   6.302   4.159  11.205  0.0156  0.0016  1.0434
30488SOL    HW1  432   6.385   4.119  11.230  0.6431  0.8986  0.4459
30488SOL    HW2  433   6.299   4.240  11.255  0.3224  0.8103 -0.2225
30489SOL     OW  434   4.582   5.317   9.121 -0.3041 -0.0342 -0.1118
30489SOL    HW1  435   4.651   5.251   9.123 -0.6396 -0.3633  0.6783
30489SOL    HW2  436   4.553   5.318   9.030  0.2842 -0.3602 -0.3087
30490SOL     OW  437   0.834   4.020  11.093  0.1857 -0.1472  0.4724
30490SOL    HW1  438   0.927   4.002  11.078 -0.3811 -3.1295 -0.0976
30490SOL    HW2  439   0.798   4.035  11.005 -0.1102 -0.2860  0.5707
30491SOL     OW  440  11.001   8.583   0.783 -0.0192 -0.0330 -0.4679
30491SOL    HW1  441  10.924   8.624   0.744 -0.3418 -0.2053 -0.0204
30491SOL    HW2  442  10.989   8.490   0.767  1.5234  0.0964 -2.9604
30492SOL     OW  443   7.423   3.196  10.373 -0.2206 -0.0674  0.0556
30492SOL    HW1  444   7.510   3.181  10.410  0.1028 -0.1046 -0.6889
30492SOL    HW2  445   7.406   3.118  10.320 -0.0819  0.5704 -0.9472
30493SOL     OW  446   1.516   4.968   5.765  0.0770  0.1370 -0.8035
30493SOL    HW1  447   1.427   4.996   5.742  0.0883  0.4563 -0.4745
30493SOL    HW2  448   1.567   4.986   5.686 -0.1609 -0.1178 -1.0220
30494SOL     OW  449   7.988   4.097   6.230 -0.3909 -0.6884  0.0407
30494SOL    HW1  450   8.036   4.047   6.163 -0.4813 -0.6252 -0.0717
30494SOL    HW2  451   7.902   4.112   6.191 -1.2894 -2.6998  1.1261
30495SOL     OW  452   7.372  10.619   2.160 -0.5063  0.2685  0.5560
30495SOL    HW1  453   7.397  10.556   2.094 -2.9593  2.5746 -2.9372
30495SOL    HW2  454   7.284  10.593   2.187 -0.2367  0.3742  1.5944
30496SOL     OW  455   5.477  12.459   5.876 -0.5838 -0.3208 -0.3504
30496SOL    HW1  456   5.491  12.458   5.782 -0.9625  2.6316 -0.5134
30496SOL    HW2  457   5.564  12.442   5.913 -0.2876 -0.7286 -1.2079
30497SOL     OW  458  10.915  12.215   8.137  0.0611  0.1506  0.3038
30497SOL    HW1  459  11.010  12.219   8.147  0.1827 -0.3976 -0.4644
30497SOL    HW2  460  10.899  12.127   8.102 -0.3623  1.3550 -2.8882
30498SOL     OW  461   4.408   8.701   6.555 -0.1107  0.1745 -0.3558
30498SOL    HW1  462   4.332   8.746   6.519 -1.0879 -0.6411  0.6169
30498SOL    HW2  463   4.474   8.707   6.486 -1.9731 -1.5688 -2.4564
30499SOL     OW  464   2.547   8.165   8.814  0.3266 -0.2662  0.5285
30499SOL    HW1  465   2.623   8.213   8.844  0.6145  0.3516 -1.0649
30499SOL    HW2  466   2.580   8.108   8.744 -0.6616  0.0531 -0.2281
30500SOL     OW  467   0.742   7.154   8.969 -0.1349  0.0644  0.1088
30500SOL    HW1  468   0.755   7.063   8.995 -2.5720 -0.5722 -0.6463
30500SOL    HW2  469   0.711   7.197   9.049  0.3358  0.0626  0.2920
30501SOL     OW  470   1.900  11.012   4.302 -0.2041  0.1278  0.0309
30501SOL    HW1  471   1.967  10.951   4.333  1.2244  0.8956 -1.4032
30501SOL    HW2  472   1.817  10.969   4.323  0.6994 -3.1404 -2.2888
30502SOL     OW  473   3.156  11.948   0.014  0.5252  0.0488  0.3304
30502SOL    HW1  474   3.198  12.013  -0.042  0.6399  1.2824  1.7620
30502SOL    HW2  475   3.198  11.865  -0.009  0.9781  0.6091 -0.9505
30503SOL     OW  476  10.856   3.593   5.074  0.0067  0.3877 -0.5014
30503SOL    HW1  477  10.775   3.552   5.105 -0.5819 -0.0203 -2.4349
30503SOL    HW2  478  10.826   3.667   5.020  1.0232  2.2122  1.2870
30504SOL     OW  479   7.927   9.344   0.751  0.7393  0.5999  0.0116
30504SOL    HW1  480   7.965   9.323   0.836  0.9920  0.5584 -0.1104
30504SOL    HW2  481   7.886   9.430   0.763 -1.5738 -0.5270  0.9313
30505SOL     OW  482   0.783   8.943   6.842 -0.4357 -0.5414  0.4564
30505SOL    HW1  483   0.719   8.885   6.882 -0.1961 -0.3772  1.0923
30505SOL    HW2  484   0.743   9.030   6.847 -0.6854 -0.6055 -0.2654
30506SOL     OW  485  10.735   4.345   4.074  0.2202  0.6388 -0.6039
30506SOL    HW1  486  10.780   4.427   4.095  0.0842  0.7183 -0.6229
30506SOL    HW2  487  10.671   4.335   4.144 -0.2614  0.9222 -1.0019
30507SOL     OW  488   2.818   2.830   9.552 -0.0578  0.1577  0.1776
30507SOL    HW1  489   2.763   2.813   9.476  1.9750  2.0946 -1.9017
30507SOL    HW2  490   2.858   2.746   9.573 -1.0591 -0.5161 -0.5209
30508SOL     OW  491   8.458   6.448   3.046 -0.2813 -0.0709  0.2902
30508SOL    HW1  492   8.489   6.362   3.076  2.4195  0.7642  0.1595
30508SOL    HW2  493   8.432   6.433   2.955  0.0119 -0.7926  0.3174
30509SOL     OW  494   9.931   7.641   4.933 -0.1095 -0.5716  0.2469
30509SOL    HW1  495   9.962   7.689   5.010 -0.4248  1.2232 -0.6860
30509SOL    HW2  496   9.999   7.655   4.867 -0.7598 -0.4079 -0.4084
30510SOL     OW  497  11.991   7.904   4.149 -0.2432  0.1406 -0.2927
30510SOL    HW1  498  11.981   7.877   4.058 -1.1157  1.5955 -0.6687
30510SOL    HW2  499  11.902   7.901   4.185 -0.2166  1.4150 -0.0674
30511SOL     OW  500   4.517   1.421   2.372  0.4716  0.6759 -0.0634
30511SOL    HW1  501   4.525   1.416   2.276 -0.8534 -2.0197 -0.1320
30511SOL    HW2  502   4.455   1.493   2.387 -0.1742  0.4172 -1.3286
30512SOL     OW  503  11.734   1.088   1.458  0.2119  0.0205 -0.0054
30512SOL    HW1  504  11.775   1.032   1.392  0.4923 -0.0954  0.2658
30512SOL    HW2  505  11.762   1.051   1.542 -2.1975 -1.4364  0.2556
30513SOL     OW  506  11.487   4.621   2.359 -0.5011 -0.1247 -0.0849
30513SOL    HW1  507  11.487   4.555   2.429  0.8782  0.2579  0.3115
30513SOL    HW2  508  11.573   4.614   2.320 -0.7562  0.6649 -0.8061
30514SOL     OW  509   5.206   4.753   4.791  0.0029  0.4511 -0.4192
30514SOL    HW1  510   5.273   4.708   4.740 -1.8195 -0.6622 -1.9531
30514SOL    HW2  511   5.216   4.718   4.880 -0.3265 -1.8923 -1.2239
30515SOL     OW  512   7.941   2.969  12.340 -0.3548  0.0653  0.5209
30515SOL    HW1  513   7.951   2.875  12.356  0.4678 -0.3183 -1.8545
30515SOL    HW2  514   7.883   2.974  12.264  0.1343  1.4609  0.2215
30516SOL     OW  515  11.292  10.899   4.812 -0.8201 -0.4176  0.1238
30516SOL    HW1  516  11.234  10.830   4.845 -1.4555  0.3858  0.7137
30516SOL    HW2  517  11.316  10.949   4.889 -1.2552  0.6862 -0.4399
30517SOL     OW  518  11.317   0.944   2.424  0.3763  0.5911 -0.1018
30517SOL    HW1  519  11.243   0.887   2.446 -0.7060  2.2108  0.7409
30517SOL    HW2  520  11.393   0.903   2.465 -0.1398 -0.8064 -0.4831
30518SOL     OW  521   0.223   1.508  12.103 -0.3082  0.0869 -0.0023
30518SOL    HW1  522   0.196   1.453  12.030  1.8058 -1.0994  0.0275
30518SOL    HW2  523   0.238   1.594  12.064 -1.0104 -0.0344 -0.5716
30519SOL     OW  524  11.946   2.707  11.037 -0.0729 -0.1082  0.7123
30519SOL    HW1  525  11.985   2.655  10.966  0.5819  1.9287 -0.5021
30519SOL    HW2  526  12.019   2.759  11.071 -1.1460  1.8283  0.1754
30520SOL     OW  527   6.130   5.882   4.480 -0.2268  0.6249  0.1322
30520SOL    HW1  528   6.167   5.809   4.530 -0.0839 -0.1021 -1.0127
30520SOL    HW2  529   6.063   5.918   4.538  1.0997  0.9118  1.5701
30521SOL     OW  530   9.782   5.496   6.119  0.2919 -0.2136 -0.0181
30521SOL    HW1  531   9.725   5.430   6.081  1.5566 -1.0361 -0.5533
30521SOL    HW2  532   9.723   5.553   6.169 -0.9334 -1.2086 -0.2855
30522SOL     OW  533   4.859  11.642  11.846 -0.6292 -0.5080  0.0816
30522SOL    HW1  534   4.886  11.592  11.769 -0.2875 -1.2893  0.6903
30522SOL    HW2  535   4.882  11.732  11.826  1.7824 -1.0263  0.2672
30523SOL     OW  536   1.791   4.263   7.934  0.1603 -0.4864 -0.1974
30523SOL    HW1  537   1.802   4.172   7.906  1.2776 -0.3485 -0.2574
30523SOL    HW2  538   1.843   4.314   7.872  0.1492  0.1195  0.2730
30524SOL     OW  539  11.342   0.481   9.906  0.5374 -0.1007  0.3359
30524SOL    HW1  540  11.328   0.389   9.930 -1.0731  0.3405  1.2456
30524SOL    HW2  541  11.337   0.528   9.989 -2.0079  1.1370 -0.4262
30525SOL     OW  542   3.974  12.072   7.594  0.6963  0.0882  0.6800
30525SOL    HW1  543   3.943  12.156   7.559  0.7379 -0.7321 -1.4502
30525SOL    HW2  544   3.902  12.040   7.648 -0.8848 -0.2222 -1.4878
30526SOL     OW  545   4.340   1.062   1.923  0.9318 -0.0912  0.3732
30526SOL    HW1  546   4.278   1.136   1.919 -0.0706 -0.8934  0.7081
30526SOL    HW2  547   4.296   0.997   1.978  0.9717 -1.7012 -1.4025
30527SOL     OW  548   6.112   0.474   4.574  0.5233  0.0372  0.7740
30527SOL    HW1  549   6.197   0.507   4.546 -0.2463  0.6257 -0.9728
30527SOL    HW2  550   6.078   0.542   4.632  0.5794  0.5245  0.2373
30528SOL     OW  551   3.694   0.644   0.182  0.1494  0.1523 -0.0321
30528SOL    HW1  552   3.657   0.568   0.228 -1.5015  0.5660 -0.6230
30528SOL    HW2  553   3.711   0.708   0.252  1.7478 -0.7882  0.4965
30529SOL     OW  554   5.269   0.637   4.933 -0.3842  0.4150  0.3739
30529SOL    HW1  555   5.225   0.561   4.895  0.5801 -0.0120  0.0733
30529SOL    HW2  556   5.341   0.656   4.872 -0.6326  1.5999  0.4230
30530SOL     OW  557  12.228   7.160   7.100  0.5299 -0.1000  0.1755
30530SOL    HW1  558  12.207   7.253   7.093  1.3922  0.1712  1.0032
30530SOL    HW2  559  12.143   7.117   7.106  0.1408  0.7668  1.2859
30531SOL     OW  560  12.411   7.374   7.586  0.1946  0.5084 -0.2650
30531SOL    HW1  561  12.435   7.282   7.597 -0.3527  0.3089 -0.7258
30531SOL    HW2  562  12.327   7.372   7.540 -1.3164  1.1575  2.2246
30532SOL     OW  563  10.934   9.546  11.656 -0.6461 -0.1006 -0.6527
30532SOL    HW1  564  10.954   9.630  11.697 -0.6448  0.8651 -2.5269
30532SOL    HW2  565  10.997   9.539  11.584 -0.8814 -1.5449 -0.7482
30533SOL     OW  566   6.512   1.927   7.586  0.3476 -0.9803 -0.0504
30533SOL    HW1  567   6.484   2.005   7.538  1.1881 -0.6969 -0.0928
30533SOL    HW2  568   6.510   1.955   7.678 -0.3790 -1.2428  0.0198
30534SOL     OW  569   1.739   3.115   8.753 -0.7024 -0.0456  0.2014
30534SOL    HW1  570   1.811   3.106   8.691  0.7429  1.3242  1.5883
30534SOL    HW2  571   1.709   3.025   8.767  0.1871 -0.5739 -1.0130
30535SOL     OW  572   7.289   8.880   7.096 -0.4057 -0.3299 -0.3278
30535SOL    HW1  573   7.295   8.975   7.110  1.6186 -0.2223 -1.4767
30535SOL    HW2  574   7.300   8.842   7.183  2.2498  0.4738 -0.2202
30536SOL     OW  575   5.210   1.408   3.379  0.5500 -0.2436 -0.3307
30536SOL    HW1  576   5.220   1.372   3.291 -2.1549 -0.5581 -0.6112
30536SOL    HW2  577   5.239   1.338   3.437  2.4811  0.0138 -0.9277
30537SOL     OW  578   2.701   6.884   7.361 -0.8112  0.1768 -0.1088
30537SOL    HW1  579   2.633   6.823   7.392  1.4981 -2.8915 -0.5889
30537SOL    HW2  580   2.763   6.828   7.314  3.2841  2.3115  2.2137
30538SOL     OW  581   9.199   0.222   9.302 -0.2906 -0.1795 -0.0176
30538SOL    HW1  582   9.275   0.186   9.256  0.9050  0.1986  1.5998
30538SOL    HW2  583   9.207   0.317   9.291 -0.8008 -0.1586 -0.2368
30539SOL     OW  584   6.967   8.168   2.552 -0.3978  0.0765  0.1826
30539SOL    HW1  585   6.940   8.176   2.643 -1.9582 -1.4452 -0.0967
30539SOL    HW2  586   6.903   8.108   2.513 -0.0086  0.9883 -2.0165
30540SOL     OW  587   8.125   0.489   6.454 -0.0736  0.1553 -0.3836
30540SOL    HW1  588   8.125   0.521   6.364  0.8866 -1.0254 -0.8495
30540SOL    HW2  589   8.082   0.403   6.449 -0.7030  0.4105  0.4316
30541SOL     OW  590   2.283   6.860   2.187  0.4594  0.7563 -0.1895
30541SOL    HW1  591   2.305   6.887   2.276  0.7353  1.1443 -0.3710
30541SOL    HW2  592   2.335   6.781   2.173  0.7422  0.9353 -0.1557
30542SOL     OW  593   7.387   2.692   8.700 -0.2487 -0.0925  0.0661
30542SOL    HW1  594   7.364   2.650   8.783 -0.7687 -0.9640 -0.5146
30542SOL    HW2  595   7.352   2.781   8.708  0.2019  0.0161  1.0013
30543SOL     OW  596   4.729   1.558  10.694 -0.1474  0.3533 -0.2196
30543SOL    HW1  597   4.700   1.575  10.605  0.0983 -0.7880 -0.5431
30543SOL    HW2  598   4.825   1.567  10.691 -0.2808  2.2779  0.4100
30544SOL     OW  599   5.786   9.399   3.458 -0.1426  0.4606  0.3149
30544SOL    HW1  600   5.861   9.406   3.399 -0.0715  0.6002  0.4190
30544SOL    HW2  601   5.709   9.405   3.401 -0.1105 -1.9031 -0.0744
30545SOL     OW  602  10.989   4.130   7.150 -0.4140  0.5306 -0.8179
30545SOL    HW1  603  10.957   4.206   7.198 -2.1698 -0.2869 -0.6053
30545SOL    HW2  604  10.911   4.076   7.137  0.9615 -1.8861  0.2550
30546SOL     OW  605   0.255   2.786   9.618  0.2653 -0.0027  0.1647
30546SOL    HW1  606   0.330   2.726   9.622  0.6327  0.4435  0.0314
30546SOL    HW2  607   0.211   2.764   9.536 -0.1841 -0.7717  0.5999
30547SOL     OW  608   3.837   6.449   5.641 -0.7459  0.4438  0.0323
30547SOL    HW1  609   3.920   6.431   5.597 -1.0498 -1.0581  0.0336
30547SOL    HW2  610   3.791   6.507   5.580  0.1502  1.0251 -0.1191
30548SOL     OW  611   9.877  10.994   2.205 -0.1957  0.0961  0.0759
30548SOL    HW1  612   9.855  10.925   2.142  0.6050  0.6919 -0.8784
30548SOL    HW2  613   9.847  11.075   2.165 -1.6574  0.2930  1.4519
30549SOL     OW  614  12.135   4.174   6.386 -0.0702  0.0930 -0.4075
30549SOL    HW1  615  12.201   4.240   6.404 -0.9584  0.9859 -0.3016
30549SOL    HW2  616  12.063   4.224   6.346 -0.5172 -0.9084 -0.8730
30550SOL     OW  617   1.483   6.716   8.651  0.2779 -0.3119  0.0572
30550SOL    HW1  618   1.398   6.673   8.649 -1.6320  3.1625 -0.7534
30550SOL    HW2  619   1.513   6.705   8.741 -0.5550 -2.2902  0.1556
30551SOL     OW  620  10.566  12.136   2.566  0.8820 -0.3652 -0.1410
30551SOL    HW1  621  10.497  12.190   2.605  0.5958 -1.3081  0.6958
30551SOL    HW2  622  10.597  12.187   2.491  0.4071  0.8098  0.4425
30552SOL     OW  623   3.640  11.715   9.521  0.1069  0.2339 -0.3197
30552SOL    HW1  624   3.549  11.687   9.533 -0.8595  3.3920  0.7317
30552SOL    HW2  625   3.637  11.772   9.444  0.8555  1.5165  0.5655
30553SOL     OW  626   7.652   7.072   3.465  0.0260 -0.6502  0.1016
30553SOL    HW1  627   7.717   7.032   3.406 -0.0587 -1.4990  0.5753
30553SOL    HW2  628   7.599   7.128   3.408 -0.3298 -1.7943 -0.7259
30554SOL     OW  629   9.771   1.030   6.929 -0.2021 -0.2660 -0.3501
30554SOL    HW1  630   9.702   1.001   6.989  0.1991  0.0006  0.2520
30554SOL    HW2  631   9.765   0.970   6.855 -0.2503 -1.0486  0.2764
30555SOL     OW  632   1.626   4.578   9.726 -0.3627 -0.0379  0.3057
30555SOL    HW1  633   1.646   4.668   9.750 -0.3410 -0.2756  1.1979
30555SOL    HW2  634   1.578   4.543   9.801 -1.7616 -0.3006 -0.6649
30556SOL     OW  635  10.140  10.234  11.655  0.1219 -0.1311 -0.2228
30556SOL    HW1  636  10.119  10.304  11.718 -0.7220 -0.2950 -0.3153
30556SOL    HW2  637  10.066  10.234  11.594  1.3192  0.6088 -1.7547
30557SOL     OW  638   4.252   2.039   6.589 -0.1231 -0.3362 -0.4717
30557SOL    HW1  639   4.273   2.111   6.530  1.7892 -0.8519 -0.5134
30557SOL    HW2  640   4.338   2.002   6.612 -0.9916 -1.9272  0.3728
30558SOL     OW  641   1.320   7.268   9.838 -0.0678  0.3785 -0.4720
30558SOL    HW1  642   1.401   7.296   9.879 -0.1023 -0.2974  0.0627
30558SOL    HW2  643   1.311   7.326   9.762  1.0415  0.2831 -0.6928
30559SOL     OW  644   4.384   5.866   4.332 -0.5972  0.0592 -0.4947
30559SOL    HW1  645   4.450   5.809   4.372 -0.2459 -0.7397 -2.1306
30559SOL    HW2  646   4.404   5.863   4.238 -0.0902  3.4900 -0.6237
30560SOL     OW  647   0.704   2.354   8.967  0.1735 -0.4697  0.3808
30560SOL    HW1  648   0.649   2.315   9.034 -1.2352 -1.5104 -1.2947
30560SOL    HW2  649   0.668   2.442   8.954 -0.0862 -0.5792  0.3717
30561SOL     OW  650   1.364   0.845  10.014 -0.2364 -0.4583 -0.1959
30561SOL    HW1  651   1.303   0.893  10.069 -0.7032 -1.1644 -0.0873
30561SOL    HW2  652   1.368   0.896   9.933 -1.4948 -0.7384 -0.4653
30562SOL     OW  653  10.877   7.351  11.520 -0.1095 -0.1221 -0.1287
30562SOL    HW1  654  10.940   7.340  11.592 -0.9367  2.4906  1.1296
30562SOL    HW2  655  10.914   7.301  11.448  2.4107 -0.2712  1.1427
30563SOL     OW  656   5.187   6.511   2.117  0.9828  0.5839 -0.4434
30563SOL    HW1  657   5.134   6.475   2.046  2.4015 -0.0075 -1.2391
30563SOL    HW2  658   5.164   6.604   2.120  2.2482  1.0491 -2.9620
30564SOL     OW  659   1.045   2.447  10.863 -0.5907 -0.0285 -0.6179
30564SOL    HW1  660   0.967   2.404  10.827 -1.0864  1.3075 -1.2289
30564SOL    HW2  661   1.047   2.533  10.819  1.0598  0.0820 -0.3826
30565SOL     OW  662   2.405   8.357  11.243 -0.1224  0.3882 -0.5997
30565SOL    HW1  663   2.392   8.451  11.235 -2.0790  0.0304 -2.3487
30565SOL    HW2  664   2.362   8.333  11.325  2.4972  1.2577  1.1857
30566SOL     OW  665   0.203   1.273   8.413 -0.5854 -0.1915 -0.0381
30566SOL    HW1  666   0.122   1.303   8.373 -1.1809  0.2972  1.4483
30566SOL    HW2  667   0.266   1.272   8.341 -1.9061 -0.6411 -1.2406
30567SOL     OW  668   0.522   2.215   5.360  0.1874  0.1317 -0.6452
30567SOL    HW1  669   0.550   2.271   5.288 -0.2105  2.0655  0.6294
30567SOL    HW2  670   0.497   2.276   5.430  0.0247 -1.6488  0.9388
30568SOL     OW  671   0.768   3.902   6.407 -0.6117 -0.6948 -0.0060
30568SOL    HW1  672   0.695   3.961   6.394 -0.7944 -0.9168  0.0094
30568SOL    HW2  673   0.822   3.944   6.474 -0.3436 -0.1745 -0.5342
30569SOL     OW  674  10.175  12.048   2.672  0.8994  0.4157 -0.2652
30569SOL    HW1  675  10.117  12.124   2.673 -0.1213 -0.3139  2.0664
30569SOL    HW2  676  10.208  12.044   2.582 -3.5919  0.1602 -2.1671
30570SOL     OW  677   1.528   5.632   4.845 -0.2041 -0.4777 -0.5940
30570SOL    HW1  678   1.613   5.611   4.809  0.6415  1.1767  0.3135
30570SOL    HW2  679   1.498   5.708   4.795  0.0081  0.4884  0.6779
30571SOL     OW  680  11.549  11.560   0.242  0.2185 -0.0190  0.1042
30571SOL    HW1  681  11.598  11.519   0.314 -0.3764  0.6728  0.9346
30571SOL    HW2  682  11.459  11.566   0.275 -0.5933 -1.7822 -1.6012
30572SOL     OW  683   5.619  10.491   9.505  0.0745  0.1827 -0.5808
30572SOL    HW1  684   5.630  10.584   9.486 -1.1639  0.1452 -1.6245
30572SOL    HW2  685   5.524  10.480   9.517  0.2035 -0.9447 -0.4825
30573SOL     OW  686   3.652  12.011   9.968  0.6015  0.1589 -0.3148
30573SOL    HW1  687   3.747  12.001   9.964  0.4908 -0.5479 -1.7950
30573SOL    HW2  688   3.620  11.922   9.985  0.1494  0.0662 -1.5337
30574SOL     OW  689  11.621   5.723   3.324 -0.3174  0.1359  0.3254
30574SOL    HW1  690  11.606   5.815   3.348 -1.7785 -0.0369  0.1665
30574SOL    HW2  691  11.595   5.674   3.401  0.8125 -0.1479  0.5425
30575SOL     OW  692   8.819   7.937  12.556 -0.1835 -0.4091 -0.2372
30575SOL    HW1  693   8.743   7.883  12.581  0.6507 -1.0553  1.0370
30575SOL    HW2  694   8.894   7.889  12.592  0.8509  0.1196 -1.6443
30576SOL     OW  695   4.750   0.634  11.101 -0.4235  0.1554  1.0480
30576SOL    HW1  696   4.837   0.613  11.135 -0.4909  0.1002  1.1869
30576SOL    HW2  697   4.763   0.714  11.051 -0.4486  0.5852  1.7250
30577SOL     OW  698   5.045   9.230  11.729 -0.1257  0.6390  0.0120
30577SOL    HW1  699   4.962   9.271  11.752 -0.4895 -0.7224  1.2730
30577SOL    HW2  700   5.105   9.257  11.799 -0.0556  0.0339  0.1965
30578SOL     OW  701   0.792   3.570   6.565 -0.3529 -0.2342  0.3935
30578SOL    HW1  702   0.790   3.552   6.659 -0.9535 -0.9211  0.2543
30578SOL    HW2  703   0.717   3.523   6.529  0.2181 -0.4808 -0.5262
30579SOL     OW  704  12.249   7.096   7.848 -0.1500 -0.3253  0.0389
30579SOL    HW1  705  12.247   7.037   7.772  0.4088 -0.2507 -0.0399
30579SOL    HW2  706  12.163   7.137   7.849  0.5499  1.3348 -1.8717
30580SOL     OW  707   5.786   3.020   2.911 -0.0045  0.2093  0.6142
30580SOL    HW1  708   5.834   2.938   2.922 -1.5500 -0.6016  1.6600
30580SOL    HW2  709   5.827   3.081   2.973  0.5618 -0.0368  0.4842
30581SOL     OW  710   6.389   5.383   9.481  0.3468 -0.0310  0.1450
30581SOL    HW1  711   6.314   5.389   9.422 -0.3093  1.7861  1.0526
30581SOL    HW2  712   6.411   5.290   9.483 -1.4579 -0.5295 -0.6791
30582SOL     OW  713  12.186  11.511   4.028  0.4298 -0.3379  0.4872
30582SOL    HW1  714  12.225  11.543   4.109 -0.5475 -0.3875  0.9827
30582SOL    HW2  715  12.162  11.420   4.047 -0.2618 -0.1937  0.3017
30583SOL     OW  716   3.638  11.274   8.896 -0.2202  0.0664 -0.7311
30583SOL    HW1  717   3.732  11.278   8.879 -0.1888  0.1225 -0.5468
30583SOL    HW2  718   3.600  11.250   8.812 -0.0179 -0.2137 -0.7467
30584SOL     OW  719   6.682   1.491   9.001 -0.4586  0.1449  0.9448
30584SOL    HW1  720   6.727   1.576   8.994 -0.5309  0.0475 -2.9433
30584SOL    HW2  721   6.739   1.430   8.955 -1.2086 -1.6108  2.2434
30585SOL     OW  722   2.550   9.944  11.050  0.4346  0.4837  0.2142
30585SOL    HW1  723   2.460   9.937  11.019  0.8272 -0.5186 -0.7268
30585SOL    HW2  724   2.546   9.919  11.142  0.1175 -2.0454 -0.4343
30586SOL     OW  725   3.310   9.802   5.366  0.0701  0.1528  0.0144
30586SOL    HW1  726   3.293   9.794   5.272 -0.2849 -0.9234  0.1578
30586SOL    HW2  727   3.391   9.753   5.379 -0.4581 -0.6066  0.4395
30587SOL     OW  728   4.226   7.524   3.612 -0.4176 -0.0719  0.1487
30587SOL    HW1  729   4.257   7.515   3.521  2.4458 -2.0177  1.1811
30587SOL    HW2  730   4.247   7.615   3.635  0.2959 -0.0105 -0.6772
30588SOL     OW  731  11.372   7.808   4.000  0.6666 -0.2033 -0.2616
30588SOL    HW1  732  11.334   7.834   3.916 -1.1407  1.3206  0.9561
30588SOL    HW2  733  11.341   7.719   4.015 -0.6386  0.2228 -0.3307
30589SOL     OW  734   1.643  10.999   7.823  0.2258  0.0524  0.0584
30589SOL    HW1  735   1.678  10.910   7.825  2.7520  0.9711  0.5126
30589SOL    HW2  736   1.591  11.002   7.743  1.7808 -1.2910 -1.0767
30590SOL     OW  737   8.636  12.451  11.554  0.3719 -0.2137 -0.1783
30590SOL    HW1  738   8.723  12.490  11.560  0.6152 -0.9591  3.0196
30590SOL    HW2  739   8.651  12.363  11.521  0.7982 -0.2704  0.1678
30591SOL     OW  740   4.178   4.941  11.053  0.1233 -0.1162  0.0265
30591SOL    HW1  741   4.238   4.954  11.127 -0.0113 -0.1661  0.1457
30591SOL    HW2  742   4.095   4.918  11.094 -0.0483  0.2250 -0.1310
30592SOL     OW  743  10.414   6.891   7.637  0.4067 -0.1875 -0.1378
30592SOL    HW1  744  10.367   6.967   7.601 -0.3542 -0.4645  0.2416
30592SOL    HW2  745  10.499   6.926   7.663 -0.0164  0.5968  0.2505
30593SOL     OW  746   2.436   4.875   7.766 -0.5330  0.2806 -0.0044
30593SOL    HW1  747   2.505   4.863   7.702  0.7454  3.7025  0.5191
30593SOL    HW2  748   2.477   4.856   7.851 -1.1336 -0.5175  0.1283
30594SOL     OW  749   9.282   5.152   0.768  0.0239  0.3137 -0.3762
30594SOL    HW1  750   9.301   5.174   0.860 -0.7209 -0.8189  0.0774
30594SOL    HW2  751   9.294   5.234   0.721 -2.4455  1.7018  1.1732
30595SOL     OW  752   1.254   2.672   9.066  0.3052 -0.1064 -0.2186
30595SOL    HW1  753   1.300   2.680   8.983 -0.7146 -1.3721 -0.9500
30595SOL    HW2  754   1.177   2.728   9.057 -0.2892 -0.9448 -0.5134
30596SOL     OW  755   6.784   4.819   0.853 -0.5797 -0.5465  0.0121
30596SOL    HW1  756   6.743   4.746   0.807 -0.4901  0.2514 -1.3885
30596SOL    HW2  757   6.829   4.869   0.785  0.5550  0.0381  1.1427
30597SOL     OW  758   0.956   0.509   2.524 -0.0659 -0.1229 -0.0445
30597SOL    HW1  759   0.885   0.513   2.460 -1.9889 -0.6673  1.9360
30597SOL    HW2  760   0.961   0.417   2.548  1.3616 -0.0895 -0.1763
30598SOL     OW  761   2.013  12.552   7.558 -0.0784  0.1334 -0.6925
30598SOL    HW1  762   1.922  12.524   7.569  0.4823 -1.4236  0.3814
30598SOL    HW2  763   2.058  12.473   7.528  0.8782  0.9716 -1.4970
30599SOL     OW  764   5.673   2.555   4.286  0.3214  0.2286 -0.1469
30599SOL    HW1  765   5.689   2.637   4.333  0.7776  0.3301 -0.4679
30599SOL    HW2  766   5.644   2.494   4.353 -0.0451  0.6560  0.0934
30600SOL     OW  767   9.690  12.198   1.041 -0.8824 -0.0385  0.2574
30600SOL    HW1  768   9.753  12.144   1.087  0.5304  2.7283  1.8254
30600SOL    HW2  769   9.604  12.168   1.072 -0.0478  0.2655  3.0512
30601SOL     OW  770  10.863  11.804   7.132  0.4778  0.4070  0.7477
30601SOL    HW1  771  10.863  11.750   7.054 -3.8316 -3.3227  2.8846
30601SOL    HW2  772  10.834  11.890   7.103 -2.6756 -1.3052 -1.6645
30602SOL     OW  773   6.953   9.032   9.213  0.3616 -0.0880  0.1935
30602SOL    HW1  774   7.044   9.032   9.243  0.3437 -0.6399  0.2703
30602SOL    HW2  775   6.958   9.057   9.121  0.7066 -1.1174 -0.0863
30603SOL     OW  776   7.284   3.763   7.509  0.2448 -0.2373 -0.4934
30603SOL    HW1  777   7.239   3.848   7.511  0.2323 -0.1864 -1.9551
30603SOL    HW2  778   7.335   3.765   7.428  0.5491 -1.4753 -0.3533
30604SOL     OW  779  11.766   1.870   7.834  0.5907 -0.2840 -0.4468
30604SOL    HW1  780  11.725   1.875   7.748  1.4588 -1.2602 -0.9288
30604SOL    HW2  781  11.820   1.792   7.831  0.9641 -0.1027  0.8488
30605SOL     OW  782   9.843   5.196   7.884 -0.0657  0.3926  0.2568
30605SOL    HW1  783   9.895   5.184   7.805  1.3328  0.1160  1.1876
30605SOL    HW2  784   9.864   5.285   7.913  0.9798 -0.2026  1.3854
30606SOL     OW  785   6.609  12.049  10.578 -0.2872  0.2271  0.2201
30606SOL    HW1  786   6.613  12.128  10.525  1.7036 -0.3968 -0.6413
30606SOL    HW2  787   6.577  12.078  10.663 -2.6410  1.4043 -0.9849
30607SOL     OW  788   0.223   8.006   0.066 -0.4612 -0.2997  0.1656
30607SOL    HW1  789   0.140   7.958   0.065 -0.5859 -0.0936 -0.9106
30607SOL    HW2  790   0.197   8.098   0.074 -0.4735 -0.0692 -1.9012
30608SOL     OW  791   1.830   4.563   1.356 -0.8945  0.4265  0.4377
30608SOL    HW1  792   1.751   4.512   1.374 -1.0957 -0.3030 -2.0714
30608SOL    HW2  793   1.889   4.500   1.314 -0.3911  1.7920 -0.9867
30609SOL     OW  794   7.316  10.958   2.024  0.5719  0.4503  0.2039
30609SOL    HW1  795   7.373  10.893   2.065  0.3519  0.3186  0.3014
30609SOL    HW2  796   7.350  11.043   2.053  1.4746  0.4203 -0.7158
30610SOL     OW  797   1.850  10.401   1.091  0.1983  1.0058  0.4460
30610SOL    HW1  798   1.807  10.316   1.096 -0.2776  1.3106  1.8229
30610SOL    HW2  799   1.913  10.392   1.019 -1.7339  0.3806 -1.2641
30611SOL     OW  800   1.107   6.861   8.335  0.0472 -0.3534 -0.3456
30611SOL    HW1  801   1.184   6.806   8.351  1.5007  1.6231 -0.2859
30611SOL    HW2  802   1.034   6.808   8.367  1.2562 -2.6037 -1.0980
30612SOL     OW  803   0.621  10.350   2.777  0.3829  1.0646 -0.1370
30612SOL    HW1  804   0.661  10.437   2.783 -2.0721  2.1903  0.9211
30612SOL    HW2  805   0.591  10.331   2.866 -1.0413  0.1008 -0.7925
30613SOL     OW  806   9.580   6.220  12.130 -0.5712 -0.4500 -0.1242
30613SOL    HW1  807   9.537   6.305  12.135  1.7330  0.8760 -1.4825
30613SOL    HW2  808   9.665   6.233  12.172 -1.0899 -2.8092  1.9030
30614SOL     OW  809   6.185   0.920   6.139  0.1984 -0.3171  0.0408
30614SOL    HW1  810   6.245   0.968   6.197 -0.1744  4.0635 -2.6990
30614SOL    HW2  811   6.243   0.871   6.081  0.9678  0.7999 -0.1689
30615SOL     OW  812   1.995  10.981   6.260 -0.4675  0.4472 -0.3362
30615SOL    HW1  813   2.051  10.904   6.249  0.6011  1.3572 -1.5707
30615SOL    HW2  814   2.017  11.014   6.347 -0.6502 -0.4037  0.0449
30616SOL     OW  815   1.400   2.373   0.352  0.6130  0.4706  1.1271
30616SOL    HW1  816   1.404   2.321   0.271  2.5235  1.3365  0.5933
30616SOL    HW2  817   1.446   2.321   0.417  0.8282  0.6492  1.1180
30617SOL     OW  818   4.294  12.577   1.720  0.1020 -0.2358  0.3865
30617SOL    HW1  819   4.351  12.501   1.733  1.0036  0.4291  0.3931
30617SOL    HW2  820   4.249  12.559   1.637  0.9248 -0.3978 -0.0353
30618SOL     OW  821   9.009   6.279  10.644  0.0518 -0.1116  0.3373
30618SOL    HW1  822   9.096   6.257  10.611  0.0954 -1.9220  1.5809
30618SOL    HW2  823   8.949   6.249  10.575  0.3518  0.5263 -0.2165
30619SOL     OW  824   6.272  11.437  11.674 -0.2351 -0.2028 -0.0571
30619SOL    HW1  825   6.272  11.439  11.770  1.4470 -0.7227 -0.0043
30619SOL    HW2  826   6.291  11.528  11.649 -0.4415 -0.1142  0.1040
30620SOL     OW  827   5.999   0.200   5.500 -0.3208  0.0579  0.2080
30620SOL    HW1  828   6.071   0.193   5.438 -1.1059  0.8694 -0.8245
30620SOL    HW2  829   5.987   0.295   5.513 -0.8787 -0.0776  0.7543
30621SOL     OW  830   8.995   1.313   8.803 -0.4355 -0.2474 -0.0557
30621SOL    HW1  831   9.027   1.319   8.893 -0.3094 -2.2354  0.0688
30621SOL    HW2  832   8.998   1.403   8.771 -1.5130  0.7214  2.2684
30622SOL     OW  833   6.199   0.976   5.376 -0.4952 -0.1698 -0.2942
30622SOL    HW1  834   6.249   0.900   5.405 -2.3260 -2.0659 -1.8741
30622SOL    HW2  835   6.266   1.040   5.352  1.1028 -1.3183  0.8780
30623SOL     OW  836   6.622   0.009   6.216 -0.1493 -0.0374  0.0150
30623SOL    HW1  837   6.563   0.082   6.197  1.4870  0.8824 -1.8683
30623SOL    HW2  838   6.663   0.032   6.300  0.4906  1.3429 -0.6490
30624SOL     OW  839   7.125   4.265   7.544 -0.1877  0.2673 -0.1421
30624SOL    HW1  840   7.098   4.260   7.636 -4.1986  0.7799 -1.1346
30624SOL    HW2  841   7.189   4.336   7.542  0.1277  0.1279  2.2323
30625SOL     OW  842   1.500   4.523   5.900  0.0053 -0.1559  0.4828
30625SOL    HW1  843   1.569   4.579   5.864  0.3942 -1.7382 -1.3998
30625SOL    HW2  844   1.424   4.581   5.909  0.1947  0.5925 -2.0339
30626SOL     OW  845   9.578   9.148   9.137 -0.0157 -0.2816 -0.2480
30626SOL    HW1  846   9.589   9.077   9.201  0.5131 -1.8249 -1.9380
30626SOL    HW2  847   9.488   9.137   9.105  0.2746 -0.6447 -0.9761
30627SOL     OW  848  12.098   4.264   8.938  0.2549  0.9803  0.1851
30627SOL    HW1  849  12.052   4.211   9.002 -0.3729  0.6768 -0.5018
30627SOL    HW2  850  12.094   4.353   8.973 -0.3640  0.8690  0.4116
30628SOL     OW  851   1.715   2.985   6.898 -0.6668  0.4278 -0.0655
30628SOL    HW1  852   1.642   2.924   6.887 -1.3666  1.3672 -0.8975
30628SOL    HW2  853   1.705   3.046   6.825  2.4441 -0.8644 -1.7647
30629SOL     OW  854   7.673  12.347  10.778  0.2148 -0.0970 -0.4000
30629SOL    HW1  855   7.644  12.257  10.795  0.0933 -0.4877 -2.4190
30629SOL    HW2  856   7.766  12.348  10.801  0.1563 -0.6797 -0.1394
30630SOL     OW  857   8.041   1.486   0.872  0.3134  0.2725  0.2437
30630SOL    HW1  858   7.991   1.554   0.828 -0.5422 -1.2725 -1.2765
30630SOL    HW2  859   8.130   1.497   0.839 -0.1143 -0.2215 -1.1636
30631SOL     OW  860   8.959   5.867   8.403  0.0870  0.3789  0.3784
30631SOL    HW1  861   8.896   5.937   8.386 -1.6284 -0.9088  1.0280
30631SOL    HW2  862   8.913   5.808   8.463  1.8288 -0.7939  0.6414
30632SOL     OW  863  12.028   9.778   5.574  0.0015 -0.2189  0.0547
30632SOL    HW1  864  12.082   9.847   5.612 -0.3864  0.1517 -0.0503
30632SOL    HW2  865  12.090   9.719   5.531  0.2888  0.4185 -0.4176
30633SOL     OW  866   1.417   3.411   1.667 -0.1194 -0.0451 -0.2938
30633SOL    HW1  867   1.333   3.447   1.693 -0.0102  0.5310 -0.7168
30633SOL    HW2  868   1.411   3.402   1.572  0.4881  0.5101 -0.3929
30634SOL     OW  869   5.607  11.785   4.558 -0.5309  0.3895 -0.3259
30634SOL    HW1  870   5.588  11.736   4.477 -0.7867 -0.6866  0.3699
30634SOL    HW2  871   5.523  11.786   4.605 -0.0701 -0.1009  0.5130
30635SOL     OW  872  12.161  12.547   6.993  0.2436 -0.2412 -0.3873
30635SOL    HW1  873  12.080  12.571   7.038  0.6341  0.7071 -0.1799
30635SOL    HW2  874  12.211  12.628   6.988  0.7643 -0.6071 -1.3915
30636SOL     OW  875   7.948   0.652   8.880 -0.0210  0.1817 -0.0059
30636SOL    HW1  876   7.969   0.745   8.894 -0.0984  0.3240 -0.7559
30636SOL    HW2  877   7.867   0.654   8.830 -1.5219 -0.3526  2.3007
30637SOL     OW  878   6.788  12.371  10.416  0.1202  0.1041  0.0751
30637SOL    HW1  879   6.855  12.437  10.398 -2.0327  2.8619  1.2738
30637SOL    HW2  880   6.836  12.291  10.432  3.0087  1.6030 -0.4140
30638SOL     OW  881   9.197   9.279   3.867 -0.1426 -0.2563  0.2871
30638SOL    HW1  882   9.189   9.345   3.799 -0.8513  0.8751  1.4094
30638SOL    HW2  883   9.116   9.228   3.861 -0.6656  0.4758  0.8863
30639SOL     OW  884   7.020  10.685   0.214 -0.1548 -0.0923 -0.2383
30639SOL    HW1  885   6.951  10.663   0.153  0.1164 -3.1788  0.4042
30639SOL    HW2  886   7.028  10.780   0.208 -2.3587  0.0533 -2.5092
30640SOL     OW  887   2.007  10.721   1.126 -0.1954  0.2864  0.5964
30640SOL    HW1  888   2.038  10.643   1.173  0.9003  0.0463 -0.4874
30640SOL    HW2  889   1.948  10.686   1.059 -0.7592  0.5253  0.9560
30641SOL     OW  890   6.393  11.543  12.383 -0.3360 -0.0434  0.4101
30641SOL    HW1  891   6.351  11.621  12.420  0.0339 -0.6077  2.0924
30641SOL    HW2  892   6.361  11.539  12.293  0.9467  3.0213 -0.3257
30642SOL     OW  893   1.783   5.318   1.318 -0.1893 -0.5640  0.1959
30642SOL    HW1  894   1.812   5.406   1.294  0.2104 -0.5079  0.8338
30642SOL    HW2  895   1.854   5.261   1.289  0.5506 -0.4400  1.6498
30643SOL     OW  896   2.170   3.065   9.109 -0.2581 -0.0760  0.5472
30643SOL    HW1  897   2.164   3.113   9.027 -1.5563  1.6739  1.6095
30643SOL    HW2  898   2.109   2.992   9.099 -1.0864  0.6457  0.2787
30644SOL     OW  899   3.569   0.253   3.667 -0.3858 -0.2435 -0.1809
30644SOL    HW1  900   3.625   0.176   3.675 -0.4107 -0.1786  0.6276
30644SOL    HW2  901   3.495   0.222   3.614 -0.5661 -0.8749  0.4267
30645SOL     OW  902  11.272   8.817   4.431  0.0519  0.1946  0.2839
30645SOL    HW1  903  11.361   8.804   4.399 -0.1446 -1.0688  0.1992
30645SOL    HW2  904  11.215   8.794   4.357 -0.3578 -0.1790  0.7030
30646SOL     OW  905   4.612   2.633   5.291 -0.2121  0.8148 -0.5530
30646SOL    HW1  906   4.669   2.556   5.295 -1.9877 -0.5513 -0.6646
30646SOL    HW2  907   4.634   2.675   5.208 -0.4005 -0.5280 -1.3028
30647SOL     OW  908   1.676   3.795  11.473 -0.0472  0.0343 -0.0255
30647SOL    HW1  909   1.737   3.858  11.511 -0.8548  1.0694 -0.3901
30647SOL    HW2  910   1.659   3.732  11.543 -0.6254  1.2578  0.9558
30648SOL     OW  911   6.694   0.909   6.235 -0.2629  0.3627 -0.1167
30648SOL    HW1  912   6.634   0.974   6.198  0.5489  1.1981 -0.0136
30648SOL    HW2  913   6.729   0.952   6.313  0.4066 -0.1389 -0.1377
30649SOL     OW  914   8.591  10.333   1.579 -0.4831  0.2116 -0.6002
30649SOL    HW1  915   8.686  10.338   1.590 -0.4295  3.0037 -1.6571
30649SOL    HW2  916   8.576  10.242   1.554  2.1837  0.1688 -2.5145
30650SOL     OW  917   8.499  10.005  10.802  0.1984 -0.0597 -0.4622
30650SOL    HW1  918   8.545  10.059  10.738  1.7649 -0.1956  0.4889
30650SOL    HW2  919   8.427  10.061  10.834  0.0978  0.4150 -1.4871
30651SOL     OW  920   7.770   8.724   3.589 -0.0745  0.1165 -0.1129
30651SOL    HW1  921   7.783   8.785   3.661  2.4659  2.5374 -2.3878
30651SOL    HW2  922   7.853   8.677   3.582 -0.2503 -0.0364 -1.4463
30652SOL     OW  923  11.565   6.582   6.619  0.4511 -0.1075 -0.8579
30652SOL    HW1  924  11.605   6.657   6.664  0.8569  0.9512 -2.8580
30652SOL    HW2  925  11.475   6.611   6.601 -0.3617 -1.3035  0.9273
30653SOL     OW  926   7.552   6.300   5.889  0.2448 -0.2787 -0.2023
30653SOL    HW1  927   7.535   6.391   5.911 -0.8783 -0.6044  0.3527
30653SOL    HW2  928   7.596   6.304   5.804  1.4121  0.8248  0.4116
30654SOL     OW  929  11.295  11.114   6.779 -0.9680 -0.3167  0.6863
30654SOL    HW1  930  11.366  11.100   6.842 -0.0577  0.2644 -0.1866
30654SOL    HW2  931  11.263  11.025   6.760  0.4515 -0.7343  0.0651
30655SOL     OW  932  12.120   4.299   1.214 -0.0053 -0.2772 -0.6966
30655SOL    HW1  933  12.060   4.226   1.199 -1.4356  0.9851 -1.4963
30655SOL    HW2  934  12.103   4.327   1.304  0.1449 -0.5829 -0.5734
30656SOL     OW  935   5.089   3.535  12.446 -0.0739 -0.2559  0.6443
30656SOL    HW1  936   5.095   3.446  12.411  0.7467  0.3260 -0.7771
30656SOL    HW2  937   5.171   3.548  12.492  0.5178  0.2901 -0.5157
30657SOL     OW  938  10.475  10.812   6.262 -0.6844 -0.2951 -0.3272
30657SOL    HW1  939  10.451  10.902   6.239 -0.1900 -0.1661 -0.3511
30657SOL    HW2  940  10.409  10.758   6.218 -0.7944  0.0367 -0.5793
30658SOL     OW  941   5.659   3.083  10.021  0.1007  0.5465 -0.0463
30658SOL    HW1  942   5.648   3.066  10.115  3.0400  0.1808  0.3407
30658SOL    HW2  943   5.749   3.057  10.003  0.0280  1.8264 -2.7325
30659SOL     OW  944   2.743   7.321  10.127 -0.1148 -0.8002  0.0099
30659SOL    HW1  945   2.688   7.253  10.090  1.4280 -2.0235 -0.1479
30659SOL    HW2  946   2.767   7.287  10.214 -0.3036  0.1051  0.4266
30660SOL     OW  947  11.243   5.617   6.343  0.2737 -0.5877 -0.1093
30660SOL    HW1  948  11.278   5.607   6.254  1.6892  0.9337  0.2303
30660SOL    HW2  949  11.316   5.593   6.400 -0.4727 -1.0780  0.6525
30661SOL     OW  950   6.444   6.695   0.263  0.0974 -0.0407 -0.0534
30661SOL    HW1  951   6.534   6.726   0.263  0.4800 -0.9167  2.5331
30661SOL    HW2  952   6.393   6.771   0.291 -0.1665  0.7402 -2.4402
30662SOL     OW  953   7.066   7.569  10.895  0.1734 -0.2448 -0.0438
30662SOL    HW1  954   7.004   7.504  10.929  0.3050  0.1778  1.0182
30662SOL    HW2  955   7.011   7.633  10.850 -0.1167 -0.1309  0.4689
30663SOL     OW  956   1.774   2.025   1.631  0.3011  0.1133  0.1290
30663SOL    HW1  957   1.743   1.935   1.633  5.7453 -2.2112 -1.5643
30663SOL    HW2  958   1.715   2.070   1.572 -1.3173 -2.9807 -0.7943
30664SOL     OW  959   6.578   4.193   4.096  0.2588  0.5956 -0.0853
30664SOL    HW1  960   6.514   4.167   4.029 -0.5900  1.0862  0.5172
30664SOL    HW2  961   6.660   4.151   4.069 -0.6932 -1.4555  0.0279
30665SOL     OW  962  12.300   8.072   2.867  0.5822  0.2271 -0.1481
30665SOL    HW1  963  12.216   8.112   2.846  0.4372  0.7503  1.3199
30665SOL    HW2  964  12.286   7.978   2.853 -0.1247  0.3550 -0.3136
30666SOL     OW  965   3.267   3.268   0.326 -0.4377 -0.0414  0.3932
30666SOL    HW1  966   3.237   3.357   0.312  0.0987  0.0369 -0.3305
30666SOL    HW2  967   3.349   3.277   0.375 -0.6472 -0.1605  0.7667
30667SOL     OW  968   9.451   1.541  10.773  0.2933 -0.3343 -0.0980
30667SOL    HW1  969   9.430   1.463  10.824  1.9665  0.1186  1.3713
30667SOL    HW2  970   9.515   1.588  10.825  1.9099  0.3192 -2.5021
30668SOL     OW  971   6.611   6.724   0.769  0.0586 -0.7721 -0.2036
30668SOL    HW1  972   6.551   6.772   0.826 -1.3138 -2.2798 -0.3291
30668SOL    HW2  973   6.555   6.669   0.715  1.3845 -0.1229 -2.3610
30669SOL     OW  974  10.131   8.134   3.562 -0.1570  0.5259  0.9934
30669SOL    HW1  975  10.117   8.106   3.652 -0.8120 -0.7286  0.5213
30669SOL    HW2  976  10.053   8.104   3.515  0.0622  1.3752  0.0492
30670SOL     OW  977   3.821  11.939  11.941 -0.2269 -0.0388  0.3770
30670SOL    HW1  978   3.775  11.943  11.857  0.8039  0.7589 -0.1706
30670SOL    HW2  979   3.753  11.956  12.006 -0.8906  0.1746 -0.3494
30671SOL     OW  980   2.125   4.004   3.244 -0.4033  0.1723  0.2097
30671SOL    HW1  981   2.172   4.046   3.172 -0.6082  0.0625  0.0115
30671SOL    HW2  982   2.074   3.935   3.202  2.0943 -2.2202  0.8074
30672SOL     OW  983   3.234   9.251  11.791 -0.0574 -0.0163 -0.5873
30672SOL    HW1  984   3.209   9.290  11.875  0.7279 -0.5353 -0.1055
30672SOL    HW2  985   3.151   9.222  11.753 -0.6949  2.2047 -1.0292
30673SOL     OW  986   3.366   7.712   7.440 -0.5751  0.1722  0.2156
30673SOL    HW1  987   3.402   7.797   7.413  3.1691 -1.6550 -1.2482
30673SOL    HW2  988   3.402   7.650   7.378 -3.2162 -2.5908  1.1965
30674SOL     OW  989   5.800   1.784   5.280 -0.8790  0.0458 -0.3388
30674SOL    HW1  990   5.747   1.850   5.326 -2.0178  0.5634 -2.2727
30674SOL    HW2  991   5.841   1.832   5.208 -0.9670 -1.1645 -1.2248
30675SOL     OW  992   6.679   9.186  12.335  0.3496 -0.6174  0.4058
30675SOL    HW1  993   6.686   9.183  12.431  0.5350 -0.5350  0.3966
30675SOL    HW2  994   6.720   9.104  12.306 -1.3720 -1.5414  0.4729
30676SOL     OW  995   0.588   7.593   6.716  0.1426 -0.0269 -0.5193
30676SOL    HW1  996   0.513   7.534   6.716  0.8554 -0.9589 -0.0502
30676SOL    HW2  997   0.556   7.673   6.673 -1.6034  0.2585  1.1681
30677SOL     OW  998   6.323   0.818   4.698 -0.4687 -0.1803  0.3850
30677SOL    HW1  999   6.260   0.769   4.750 -0.9844  0.0574 -0.0009
30677SOL    HW2 1000   6.295   0.909   4.707  0.3137  0.0184  0.8733
30678SOL     OW 1001   3.352   9.903   0.359  0.0286 -0.3822  0.1589
30678SOL    HW1 1002   3.345   9.926   0.451  0.7075  0.8720 -0.0858
30678SOL    HW2 1003   3.435   9.941   0.331 -1.4832  1.8164 -1.6889
30679SOL     OW 1004   8.995   5.191   9.788 -0.8010  0.2510 -0.3383
30679SOL    HW1 1005   9.047   5.240   9.725 -1.4308  1.3529 -0.0364
30679SOL    HW2 1006   8.914   5.242   9.798  0.1067  1.3095  2.8878
30680SOL     OW 1007  10.861   8.296   1.397  0.2571 -0.0432 -0.2886
30680SOL    HW1 1008  10.927   8.327   1.335  0.1034 -2.1257 -1.6018
30680SOL    HW2 1009  10.906   8.229   1.447 -0.5935 -0.8464 -0.5848
30681SOL     OW 1010  11.013   2.732   2.159  0.4878  0.4383  0.6407
30681SOL    HW1 1011  11.071   2.677   2.107  1.7209  0.3552  2.0222
30681SOL    HW2 1012  10.998   2.810   2.105  0.3052 -0.3868 -0.5236
30682SOL     OW 1013   9.565   0.623   4.119  0.1741  0.5378  0.7733
30682SOL    HW1 1014   9.530   0.547   4.072 -0.8166  1.5469 -0.1692
30682SOL    HW2 1015   9.611   0.585   4.194  0.6670 -1.0448 -0.2716
30683SOL     OW 1016   9.477   5.906   2.989  0.1837 -0.0258  0.0899
30683SOL    HW1 1017   9.495   6.000   2.982  0.0759 -0.0023  0.1317
30683SOL    HW2 1018   9.458   5.892   3.082 -1.6742  0.2457 -0.2266
30684SOL     OW 1019  11.344   2.297   8.116 -0.0865  0.0925  0.1146
30684SOL    HW1 1020  11.395   2.216   8.122 -1.5663 -0.9049 -0.4685
30684SOL    HW2 1021  11.337   2.314   8.022 -0.9289  0.1425  0.1806
30685SOL     OW 1022   2.468   9.665   5.922 -0.0958 -0.0549 -0.3103
30685SOL    HW1 1023   2.488   9.648   5.830 -1.3948  0.8336 -0.7730
30685SOL    HW2 1024   2.411   9.741   5.921  0.8100  0.6872  1.3281
30686SOL     OW 1025  10.816  11.715   9.791  0.0443  0.0089 -0.0955
30686SOL    HW1 1026  10.768  11.665   9.725 -0.2276  0.6845 -0.4109
30686SOL    HW2 1027  10.903  11.674   9.792  0.2901  0.4619 -1.4096
30687SOL     OW 1028   1.730   1.555   6.616 -0.1516  0.3542  0.9231
30687SOL    HW1 1029   1.646   1.581   6.656 -0.5654  0.3082  0.1054
30687SOL    HW2 1030   1.746   1.622   6.550 -0.2483 -0.4017  0.1232
30688SOL     OW 1031  10.673   1.966   2.525  0.2230  0.2395  0.3862
30688SOL    HW1 1032  10.655   2.058   2.508  2.2457  1.0008  1.9340
30688SOL    HW2 1033  10.617   1.944   2.599 -1.2338 -0.2079 -0.8013
30689SOL     OW 1034  10.184   0.731  11.674  0.3152 -0.1121 -0.2465
30689SOL    HW1 1035  10.176   0.644  11.637 -0.8037 -0.2243  0.2330
30689SOL    HW2 1036  10.094   0.763  11.681  0.6988  1.0129 -0.2611
30690SOL     OW 1037  11.694   3.008  11.508 -0.0416  0.6082  0.0757
30690SOL    HW1 1038  11.739   3.010  11.424 -1.0596 -0.0527 -0.5125
30690SOL    HW2 1039  11.612   2.961  11.490 -0.9341  1.7123  1.1152
30691SOL     OW 1040   9.879   5.830   6.395 -0.2759 -0.8474 -0.4394
30691SOL    HW1 1041   9.949   5.895   6.386 -1.0083 -0.0486 -0.5059
30691SOL    HW2 1042   9.881   5.781   6.313 -0.7660  0.1633 -1.0748
30692SOL     OW 1043  10.359  12.297   7.525 -0.5586 -0.2818 -0.2457
30692SOL    HW1 1044  10.341  12.356   7.598 -0.0229  0.8989 -1.0460
30692SOL    HW2 1045  10.291  12.316   7.461 -0.2919 -0.4247 -0.5770
30693SOL     OW 1046  11.114   5.193  11.633 -0.3819  0.2786 -0.2026
30693SOL    HW1 1047  11.037   5.188  11.576  1.2418  0.4739 -2.5891
30693SOL    HW2 1048  11.152   5.106  11.630  0.0849  0.4710  0.0151
30694SOL     OW 1049   7.110   0.434   7.964 -0.4308 -0.3966 -0.6675
30694SOL    HW1 1050   7.141   0.493   7.895  1.3977 -2.6185 -1.8632
30694SOL    HW2 1051   7.033   0.392   7.926 -1.6003  0.9238  0.1036
30695SOL     OW 1052   0.917   2.600   0.247 -0.1180 -0.3443  0.1715
30695SOL    HW1 1053   0.937   2.567   0.335 -0.6827 -0.1914  0.3622
30695SOL    HW2 1054   0.919   2.522   0.191  0.7929 -0.3652  0.2099
30696SOL     OW 1055   9.535   2.003   3.079 -0.1178 -0.4325 -0.0372
30696SOL    HW1 1056   9.528   1.964   3.166  2.2213 -0.8345  0.0150
30696SOL    HW2 1057   9.516   2.096   3.094  1.4407 -0.2649  1.1477
30697SOL     OW 1058   4.662   4.603   2.669 -0.4086  0.2704 -0.5297
30697SOL    HW1 1059   4.692   4.676   2.615 -2.0063  1.0727 -0.4038
30697SOL    HW2 1060   4.609   4.550   2.610 -2.2529  1.2081  0.1962
30698SOL     OW 1061   4.542   9.581   4.944  0.6643  0.0928  0.1995
30698SOL    HW1 1062   4.567   9.538   4.862  0.9604  0.3899  0.1324
30698SOL    HW2 1063   4.447   9.586   4.940  0.7523  2.3766 -1.3058
30699SOL     OW 1064   8.113  12.105   7.867  0.0938 -0.5433  0.8002
30699SOL    HW1 1065   8.064  12.165   7.923  1.9308  0.8127  1.0647
30699SOL    HW2 1066   8.105  12.141   7.779 -3.0660 -2.8570 -0.0187
30700SOL     OW 1067   3.976   7.579   3.363 -0.3690  0.2986 -0.1785
30700SOL    HW1 1068   3.975   7.483   3.359  0.9718  0.3182 -1.9441
30700SOL    HW2 1069   4.068   7.601   3.380 -0.7839  1.2878  0.9274
30701SOL     OW 1070   4.706   7.459   6.552  0.2165  0.1387  0.2867
30701SOL    HW1 1071   4.746   7.530   6.602 -0.5483  0.8439 -0.0774
30701SOL    HW2 1072   4.614   7.484   6.543  0.0687 -0.5873 -0.3839
30702SOL     OW 1073   0.521  10.792   1.795  0.0999  0.1844 -0.0369
30702SOL    HW1 1074   0.594  10.851   1.814  1.6202 -1.0803 -1.6455
30702SOL    HW2 1075   0.467  10.839   1.732 -0.8981  1.3752  1.6122
30703SOL     OW 1076   6.323   6.450   2.177  0.2280 -0.0179  0.2970
30703SOL    HW1 1077   6.243   6.496   2.206 -0.9816 -1.0865 -1.1823
30703SOL    HW2 1078   6.371   6.433   2.258 -1.1779  0.4329  1.2664
30704SOL     OW 1079   8.472  10.897  12.568  0.0603 -0.0715  0.0302
30704SOL    HW1 1080   8.508  10.973  12.523  0.2810 -0.9204 -1.2854
30704SOL    HW2 1081   8.515  10.897  12.653  1.5574  0.1707 -0.6876
30705SOL     OW 1082   3.791   3.599  10.741 -0.1942  0.2264  0.2408
30705SOL    HW1 1083   3.832   3.593  10.655 -2.9012 -1.4991 -1.0895
30705SOL    HW2 1084   3.727   3.670  10.731 -0.1154  0.4147  1.0471
30706SOL     OW 1085   4.994  10.471   9.868  0.9829 -0.3164 -1.2422
30706SOL    HW1 1086   5.046  10.424   9.933  0.6628  1.3495  0.3162
30706SOL    HW2 1087   5.045  10.465   9.787  1.1420 -2.8856 -1.0122
30707SOL     OW 1088   1.222   8.839   8.466  0.4670  0.2504 -0.7344
30707SOL    HW1 1089   1.283   8.880   8.528 -0.4430  1.8535 -0.8518
30707SOL    HW2 1090   1.203   8.754   8.505  2.1818  0.0039 -0.3181
30708SOL     OW 1091   6.202   8.078   9.155 -0.5564  0.0112  0.0119
30708SOL    HW1 1092   6.127   8.115   9.202 -0.6247 -0.6532  0.4453
30708SOL    HW2 1093   6.170   8.063   9.066  0.0402  2.7712 -0.7725
30709SOL     OW 1094   5.589   1.447   3.702 -0.2752 -0.4146  0.1965
30709SOL    HW1 1095   5.539   1.385   3.650 -0.0723  1.3494 -2.2319
30709SOL    HW2 1096   5.654   1.484   3.642  1.9072 -0.3023  2.4130
30710SOL     OW 1097   7.275   8.367   5.859 -0.6643 -0.0708 -0.1579
30710SOL    HW1 1098   7.270   8.457   5.892 -0.0451  0.0564 -0.3930
30710SOL    HW2 1099   7.345   8.327   5.910 -1.6129 -0.7397  0.6570
30711SOL     OW 1100   2.583   2.368   8.229  0.4798  0.3066  0.0987
30711SOL    HW1 1101   2.675   2.376   8.254  0.3156  0.1321  0.8016
30711SOL    HW2 1102   2.564   2.275   8.240  0.3685  0.2472 -0.5985
30712SOL     OW 1103  11.756  10.874   2.806 -0.1719 -0.0319 -0.2183
30712SOL    HW1 1104  11.726  10.832   2.726  0.7077 -0.3328 -0.3994
30712SOL    HW2 1105  11.743  10.809   2.874 -1.8839  0.5817  0.0853
30713SOL     OW 1106   1.846  10.209   4.933  0.1937  0.6631 -0.0478
30713SOL    HW1 1107   1.937  10.182   4.939  0.7868  2.8455  2.1807
30713SOL    HW2 1108   1.805  10.174   5.012 -0.7842  0.2735 -0.6974
30714SOL     OW 1109   1.621   9.770   6.594  0.1900 -0.4468 -0.1995
30714SOL    HW1 1110   1.570   9.851   6.594  0.6260 -0.1602  0.1510
30714SOL    HW2 1111   1.672   9.775   6.675  1.3955 -0.3182 -0.9428
30715SOL     OW 1112   6.661   8.739  12.208 -0.7079  0.3983  0.3635
30715SOL    HW1 1113   6.581   8.735  12.155 -0.8022  0.7539  0.4819
30715SOL    HW2 1114   6.713   8.664  12.177 -0.1987  1.3179 -1.1460
30716SOL     OW 1115   6.336   8.373   2.593 -0.2022 -0.1562  0.1236
30716SOL    HW1 1116   6.408   8.315   2.568 -0.2377 -0.6593  1.1423
30716SOL    HW2 1117   6.293   8.327   2.665  0.6099  1.7467  1.9071
30717SOL     OW 1118   7.990   4.899   2.779  0.6632 -0.5336  0.5539
30717SOL    HW1 1119   8.061   4.858   2.828  1.3552 -0.2529 -0.1859
30717SOL    HW2 1120   7.953   4.963   2.840  0.3799 -1.3695  1.2863
30718SOL     OW 1121  10.798   7.587   8.725 -0.1677  0.2046  0.0708
30718SOL    HW1 1122  10.714   7.629   8.747  0.7561  2.2070 -0.0663
30718SOL    HW2 1123  10.777   7.529   8.651 -1.5742  0.0288  0.5734
30719SOL     OW 1124   1.452   9.883  11.198  0.0702 -0.2426  0.2875
30719SOL    HW1 1125   1.420   9.799  11.166  0.2616 -0.0703 -0.3668
30719SOL    HW2 1126   1.376   9.941  11.196 -0.6729 -0.9741  2.9586
30720SOL     OW 1127   0.821  10.799   6.408 -0.3846  0.0838  0.8738
30720SOL    HW1 1128   0.786  10.824   6.322  1.3784 -0.8383 -0.1693
30720SOL    HW2 1129   0.909  10.765   6.389 -0.3014 -1.0036  2.9494
30721SOL     OW 1130  11.819   9.003  10.899 -0.2976  0.1404 -0.1353
30721SOL    HW1 1131  11.763   9.041  10.967  0.0820 -0.7441  0.7087
30721SOL    HW2 1132  11.881   8.948  10.948 -0.0855 -0.6010 -1.2108
30722SOL     OW 1133  10.554  12.190   8.995  0.1960 -0.0171 -0.0291
30722SOL    HW1 1134  10.540  12.237   8.913  0.8891 -0.3106 -0.3243
30722SOL    HW2 1135  10.648  12.169   8.995 -0.0892 -1.3264  0.1452
30723SOL     OW 1136   5.664   1.394   5.271 -0.5685 -0.2427  0.2398
30723SOL    HW1 1137   5.627   1.307   5.255 -0.4072 -0.4490  0.9528
30723SOL    HW2 1138   5.711   1.385   5.354  0.2028  0.2936 -0.1346
30724SOL     OW 1139  11.645   3.486   3.399 -0.2596 -0.4070  0.1001
30724SOL    HW1 1140  11.614   3.561   3.449  1.1809 -0.6842  1.4918
30724SOL    HW2 1141  11.608   3.497   3.312 -0.8660  1.3866  0.5601
30725SOL     OW 1142   4.667   1.234   5.894 -0.9044  0.0695  0.3684
30725SOL    HW1 1143   4.698   1.281   5.972 -0.7265 -1.1275  1.0324
30725SOL    HW2 1144   4.593   1.286   5.864 -0.6222  0.8696  1.0016
30726SOL     OW 1145   1.165   1.418  11.453  0.0486 -0.7940 -0.0569
30726SOL    HW1 1146   1.203   1.342  11.496 -1.2385 -1.7072 -0.4637
30726SOL    HW2 1147   1.140   1.386  11.366 -2.0879 -0.4408  0.3632
30727SOL     OW 1148   5.006  12.330   1.531  0.2165  0.3289  0.2814
30727SOL    HW1 1149   5.069  12.366   1.594  1.9919 -1.8449 -0.1447
30727SOL    HW2 1150   5.019  12.236   1.535 -1.7409 -0.0593 -1.2085
30728SOL     OW 1151  12.473  11.182   1.192 -0.0601 -0.0696  0.3467
30728SOL    HW1 1152  12.548  11.221   1.147 -0.7077 -1.5214 -2.1707
30728SOL    HW2 1153  12.511  11.136   1.266  1.2325  1.2313  0.5490
30729SOL     OW 1154  11.385   6.948   6.768  0.4713  0.3885  0.2617
30729SOL    HW1 1155  11.398   7.043   6.775  2.0437  0.3461 -1.2412
30729SOL    HW2 1156  11.333   6.937   6.688 -0.9986  0.0356  1.2415
30730SOL     OW 1157   2.218   3.738   9.383  0.2126  0.2167  0.7405
30730SOL    HW1 1158   2.139   3.788   9.405  0.1977  0.1692  0.7966
30730SOL    HW2 1159   2.186   3.652   9.355  0.1533  0.7076 -0.7850
30731SOL     OW 1160   1.464   2.619   3.028  0.3163 -0.1693 -0.1710
30731SOL    HW1 1161   1.469   2.527   3.004 -1.0595 -0.4455  0.4946
30731SOL    HW2 1162   1.555   2.651   3.023  0.7340 -1.4312 -0.8456
30732SOL     OW 1163   4.808   0.282   7.247 -0.0587  0.3430 -0.0379
30732SOL    HW1 1164   4.847   0.278   7.160  1.5803 -0.8305  0.7008
30732SOL    HW2 1165   4.881   0.299   7.306 -0.8341 -0.6400  1.2732
30733SOL     OW 1166   2.778   6.572   1.490 -0.6622  0.4159  0.2015
30733SOL    HW1 1167   2.869   6.596   1.508 -0.3479 -0.2718 -0.4594
30733SOL    HW2 1168   2.745   6.541   1.574  0.5167 -1.8714 -0.1132
30734SOL     OW 1169   3.474   7.277   6.585 -0.2562 -0.4330 -0.8537
30734SOL    HW1 1170   3.453   7.351   6.643 -2.5669 -1.6342 -0.0607
30734SOL    HW2 1171   3.461   7.312   6.497  1.3267  0.8298 -0.6452
30735SOL     OW 1172   7.297  10.487   4.234 -0.3847  0.0966 -0.3855
30735SOL    HW1 1173   7.245  10.507   4.312  0.4187  0.2109  0.1241
30735SOL    HW2 1174   7.387  10.502   4.261 -0.0698 -0.3166 -1.2019
30736SOL     OW 1175   9.527  12.041   6.316 -0.0338  0.5515  0.1702
30736SOL    HW1 1176   9.574  11.958   6.314  0.6673  0.9457 -0.1496
30736SOL    HW2 1177   9.571  12.093   6.383  0.8318  1.3927 -1.0045
30737SOL     OW 1178   8.656   8.641   8.264  0.3909  0.6871 -0.1602
30737SOL    HW1 1179   8.664   8.620   8.171  0.1087 -2.6054  0.4541
30737SOL    HW2 1180   8.663   8.557   8.309  2.8537  2.3526  3.0114
30738SOL     OW 1181   0.795   2.101   9.779 -0.0005 -0.2526 -0.7089
30738SOL    HW1 1182   0.722   2.098   9.717 -2.6620  0.6479  2.1237
30738SOL    HW2 1183   0.776   2.178   9.834  2.2866 -0.8704  1.0964
30739SOL     OW 1184   7.794   7.096   5.257 -0.0944  0.1565 -0.1111
30739SOL    HW1 1185   7.727   7.094   5.189 -0.6350 -0.8499  0.4451
30739SOL    HW2 1186   7.867   7.045   5.220 -0.0742  0.2830 -0.2486
30740SOL     OW 1187   5.803   4.025   0.488 -0.5499  0.1550 -0.1853
30740SOL    HW1 1188   5.827   3.999   0.577  0.0188 -0.1943 -0.4356
30740SOL    HW2 1189   5.772   3.945   0.447 -0.6650  0.2838 -0.3496
30741SOL     OW 1190   7.616   7.492  10.779 -0.1615 -0.5994  0.2660
30741SOL    HW1 1191   7.620   7.397  10.767 -1.5181 -0.9276  1.9943
30741SOL    HW2 1192   7.707   7.518  10.794  0.5884 -1.1941 -2.7290
30742SOL     OW 1193   4.467   8.999   8.635 -0.0976 -0.7936 -0.3743
30742SOL    HW1 1194   4.552   8.956   8.622 -0.1134 -0.9365 -0.0069
30742SOL    HW2 1195   4.413   8.967   8.563  0.8539  1.1009 -2.0034
30743SOL     OW 1196   5.294   2.518   0.884 -0.1048 -0.1001  0.3575
30743SOL    HW1 1197   5.227   2.485   0.824  0.4105 -1.5121  0.5288
30743SOL    HW2 1198   5.260   2.603   0.914 -1.1564 -0.1612 -0.6177
30744SOL     OW 1199   8.819  11.194   4.080 -0.5901 -0.2223 -0.0670
30744SOL    HW1 1200   8.806  11.165   4.170 -0.5698 -1.4567 -0.4425
30744SOL    HW2 1201   8.735  11.232   4.054 -0.9108 -0.7649  0.1607
30745SOL     OW 1202   7.323   2.496   6.442 -0.2641  0.2626 -0.8096
30745SOL    HW1 1203   7.338   2.579   6.488 -1.2292  0.5818 -1.0410
30745SOL    HW2 1204   7.233   2.472   6.465 -0.1646 -0.4559 -1.1537
30746SOL     OW 1205   6.448   0.581   3.786 -0.3791 -0.2149 -0.4247
30746SOL    HW1 1206   6.441   0.511   3.850 -2.7002 -0.2625 -0.6495
30746SOL    HW2 1207   6.419   0.659   3.833  2.0732  0.6420 -0.2065
30747SOL     OW 1208   8.135   0.680  11.454  0.5055 -0.7480 -0.0222
30747SOL    HW1 1209   8.044   0.677  11.423 -0.2017 -1.5710  1.9965
30747SOL    HW2 1210   8.179   0.613  11.401 -0.4488 -1.4805  0.0623
30748SOL     OW 1211   4.122   2.956   3.685 -0.0801 -0.4997 -0.3261
30748SOL    HW1 1212   4.113   2.861   3.691 -0.3574 -0.4535  0.0012
30748SOL    HW2 1213   4.038   2.990   3.717  0.4474 -0.1184  0.7038
30749SOL     OW 1214   3.692   2.524   8.727  0.4687 -0.1253 -0.5065
30749SOL    HW1 1215   3.712   2.445   8.776 -0.2953 -1.0243 -1.5858
30749SOL    HW2 1216   3.663   2.588   8.793  0.2049 -1.0386  0.2737
30750SOL     OW 1217  10.834   3.546   7.242 -0.2466 -0.3513 -0.4374
30750SOL    HW1 1218  10.850   3.576   7.331 -2.1352 -0.8161  0.1021
30750SOL    HW2 1219  10.919   3.555   7.198  0.5369  0.6065  1.1746
30751SOL     OW 1220  12.198   3.092   2.407  0.1357  0.1928 -0.0886
30751SOL    HW1 1221  12.152   3.065   2.328  0.9173  2.4050 -1.3986
30751SOL    HW2 1222  12.290   3.100   2.380  0.9473 -1.6145  1.7905
30752SOL     OW 1223   1.021   0.404   3.536 -0.3962 -0.1946 -0.6266
30752SOL    HW1 1224   0.962   0.464   3.490  1.0138  1.1714 -0.7315
30752SOL    HW2 1225   1.086   0.461   3.577  1.6229 -1.6941 -1.6024
30753SOL     OW 1226   6.212   0.282  11.703 -0.3862 -0.3818 -0.3748
30753SOL    HW1 1227   6.277   0.340  11.743 -0.2734 -0.4972 -0.3882
30753SOL    HW2 1228   6.261   0.236  11.635 -1.0253  1.2318 -2.0040
30754SOL     OW 1229   4.242   1.117   9.782  0.0806  0.1677  0.0221
30754SOL    HW1 1230   4.331   1.096   9.811  0.5250  1.4284 -0.3978
30754SOL    HW2 1231   4.186   1.064   9.838  1.0560  0.1104  0.9698
30755SOL     OW 1232   8.496   4.274   3.834 -0.0179  0.2249 -0.0934
30755SOL    HW1 1233   8.581   4.299   3.798  0.7936  0.0576  1.6254
30755SOL    HW2 1234   8.509   4.184   3.865 -1.5733 -0.7640 -2.0745
30756SOL     OW 1235   2.915   3.512   7.417  0.3371 -0.0102  0.4273
30756SOL    HW1 1236   2.999   3.550   7.388  0.4868 -0.8013 -0.1983
30756SOL    HW2 1237   2.930   3.418   7.418 -0.1094 -0.0837  1.7516
30757SOL     OW 1238   2.363  11.096   7.461 -0.0254 -0.0064 -0.3346
30757SOL    HW1 1239   2.422  11.170   7.448  3.2806 -2.4180 -0.3271
30757SOL    HW2 1240   2.318  11.115   7.543 -0.1659  2.4620 -0.9069
30758SOL     OW 1241   5.563   7.618   6.263  0.4815  0.3329 -0.4873
30758SOL    HW1 1242   5.650   7.577   6.263  1.4677  2.0234  2.9928
30758SOL    HW2 1243   5.573   7.695   6.206  1.2650  0.4561 -0.1979
30759SOL     OW 1244   5.909   7.418  11.015  0.3631  1.0307 -0.4027
30759SOL    HW1 1245   5.826   7.379  10.988  0.6052  0.8341 -0.8733
30759SOL    HW2 1246   5.906   7.417  11.111 -0.1420  0.9535 -0.4171
30760SOL     OW 1247  11.992   6.859   8.338  0.3373 -0.6786  0.3442
30760SOL    HW1 1248  11.929   6.925   8.309  1.8871  1.0778  0.7346
30760SOL    HW2 1249  12.033   6.828   8.258 -1.5185 -2.4484  0.0108
30761SOL     OW 1250  11.256   1.448   6.222  0.1770  0.0508  0.0437
30761SOL    HW1 1251  11.285   1.377   6.164  1.8554 -0.0698  0.9767
30761SOL    HW2 1252  11.203   1.505   6.166 -2.1140 -2.4118 -0.5154
30762SOL     OW 1253   4.340  10.645   2.846 -0.7334  0.1133  0.1493
30762SOL    HW1 1254   4.286  10.593   2.787 -0.6133 -0.8852  0.8801
30762SOL    HW2 1255   4.343  10.732   2.807  0.7948 -0.9199 -2.2788
30763SOL     OW 1256   8.331   3.013   1.316  0.4998 -0.0968 -0.1605
30763SOL    HW1 1257   8.364   2.923   1.313  0.5992 -0.0514 -2.9697
30763SOL    HW2 1258   8.235   3.002   1.319  0.5414 -0.2339  2.1644
30764SOL     OW 1259   6.897  12.435   2.602 -0.4748 -0.6284  0.0021
30764SOL    HW1 1260   6.904  12.492   2.679 -0.0738 -1.1551  0.3621
30764SOL    HW2 1261   6.933  12.351   2.630 -0.9867 -1.0470 -0.5477
30765SOL     OW 1262  11.958   6.278   9.122  0.3184 -0.3883  0.1352
30765SOL    HW1 1263  11.969   6.182   9.124 -1.0398 -0.5421  1.4392
30765SOL    HW2 1264  11.864   6.291   9.110  0.7135  0.8338 -2.3080
30766SOL     OW 1265  12.075   8.528   8.716 -0.2859 -0.6644 -0.7870
30766SOL    HW1 1266  12.100   8.439   8.741  0.3890 -0.3653 -0.3555
30766SOL    HW2 1267  12.095   8.581   8.794 -1.2641 -0.2284 -0.8099
30767SOL     OW 1268   7.725   6.436   7.994  0.0662  0.0826 -0.4133
30767SOL    HW1 1269   7.800   6.481   8.032  0.9695 -1.9323  0.3147
30767SOL    HW2 1270   7.739   6.442   7.899  0.6893  0.4605 -0.3021
30768SOL     OW 1271   0.818   6.977   3.889  0.2737 -0.4153  0.6127
30768SOL    HW1 1272   0.912   6.986   3.904  0.6493  1.1914 -2.1189
30768SOL    HW2 1273   0.810   6.901   3.831 -0.0231 -0.1305  0.2743
30769SOL     OW 1274  10.806   2.937   8.745 -0.2564  0.0536  0.9949
30769SOL    HW1 1275  10.809   2.938   8.649  1.7253 -0.2578  1.0185
30769SOL    HW2 1276  10.713   2.939   8.766 -0.8070 -1.9715 -0.9701
30770SOL     OW 1277   9.555   0.503   3.830 -0.1460 -0.4335 -0.4964
30770SOL    HW1 1278   9.575   0.418   3.868  0.0704  0.6921  2.1099
30770SOL    HW2 1279   9.469   0.492   3.790 -0.9421 -1.4463  1.3847
30771SOL     OW 1280   6.333   5.494  11.658 -0.1278 -0.1014  0.1266
30771SOL    HW1 1281   6.423   5.462  11.656  0.8069  2.2009  1.5391
30771SOL    HW2 1282   6.328   5.559  11.588 -0.7906 -0.3715 -0.0916
30772SOL     OW 1283  10.861   9.879   1.029  0.1246  0.4800 -0.3955
30772SOL    HW1 1284  10.881   9.795   1.070  0.1044  0.9502  0.6278
30772SOL    HW2 1285  10.766   9.879   1.020  0.1991  0.0038 -1.3030
30773SOL     OW 1286   1.822   6.531   4.708 -0.1025 -0.5402  0.4704
30773SOL    HW1 1287   1.793   6.484   4.630  0.6110 -0.0364 -0.1005
30773SOL    HW2 1288   1.742   6.540   4.761 -1.0676  1.0063 -1.1677
30774SOL     OW 1289   1.719   8.592  11.900 -0.2775 -0.4745  0.1729
30774SOL    HW1 1290   1.638   8.541  11.895 -0.1198 -0.7701  0.5922
30774SOL    HW2 1291   1.727   8.632  11.813 -2.4456  1.9696  0.9582
30775SOL     OW 1292   5.319  10.826   4.350  0.3627  0.5585 -0.2052
30775SOL    HW1 1293   5.312  10.822   4.255  3.9919  1.4566 -0.6431
30775SOL    HW2 1294   5.358  10.742   4.375  1.0391  0.9864  0.2345
30776SOL     OW 1295   4.046   1.828   6.281  0.0373  0.3039 -0.1646
30776SOL    HW1 1296   4.096   1.801   6.358 -0.0798 -0.5861 -0.3888
30776SOL    HW2 1297   4.109   1.825   6.209 -0.1814 -0.2424 -0.3424
30777SOL     OW 1298   1.317   6.704  11.240  0.4469 -0.0132 -0.4041
30777SOL    HW1 1299   1.285   6.792  11.221  2.6419  0.8928 -0.1168
30777SOL    HW2 1300   1.365   6.678  11.161 -1.0133 -1.4171 -0.8943
30778SOL     OW 1301   0.520   9.562   6.889 -0.1356 -0.0061 -0.0747
30778SOL    HW1 1302   0.556   9.610   6.814  2.2656 -0.1829  0.8798
30778SOL    HW2 1303   0.502   9.475   6.854 -0.8761  0.4496 -0.8856
30779SOL     OW 1304  10.483   0.449   8.796 -0.2633 -0.0733 -0.1687
30779SOL    HW1 1305  10.416   0.517   8.806 -0.8266 -0.5489 -0.6479
30779SOL    HW2 1306  10.452   0.396   8.722  0.7755 -0.1456 -0.5694
30780SOL     OW 1307   3.593  10.136   0.887 -0.1145 -0.2526  0.0726
30780SOL    HW1 1308   3.644  10.058   0.863  0.3667 -0.3636  1.4244
30780SOL    HW2 1309   3.654  10.192   0.934 -0.6274  0.6888 -0.3406
30781SOL     OW 1310   7.372   7.551   6.653  0.1155 -0.2075 -0.1518
30781SOL    HW1 1311   7.327   7.504   6.723  0.2637 -0.3402 -0.1452
30781SOL    HW2 1312   7.368   7.492   6.578  1.4356 -0.7868  0.2162
30782SOL     OW 1313  10.381   5.290   1.419 -0.0137  0.2049  0.1955
30782SOL    HW1 1314  10.338   5.370   1.389 -0.3851  0.9818  2.5394
30782SOL    HW2 1315  10.308   5.229   1.435 -0.0394  0.5017  1.3338
30783SOL     OW 1316   4.664   6.807   3.286  0.0702 -0.3552  0.0050
30783SOL    HW1 1317   4.600   6.737   3.273 -0.7091  0.6097 -1.7690
30783SOL    HW2 1318   4.633   6.854   3.363 -0.7386 -0.5644 -0.1840
30784SOL     OW 1319   1.450   3.489   0.183 -0.0451  0.0395 -0.3640
30784SOL    HW1 1320   1.363   3.526   0.198 -0.2234 -0.3096 -0.5175
30784SOL    HW2 1321   1.496   3.501   0.266 -0.4243 -0.2641 -0.1041
30785SOL     OW 1322  11.099   0.158   9.060 -0.3026 -0.5012  0.0653
30785SOL    HW1 1323  11.116   0.064   9.068 -0.6220 -0.4607  1.6151
30785SOL    HW2 1324  11.045   0.166   8.982 -1.4903 -1.8068  0.7039
30786SOL     OW 1325   0.992   2.648   3.721  0.6721 -0.4120  0.0474
30786SOL    HW1 1326   1.061   2.685   3.777  0.7448 -1.4296  0.6623
30786SOL    HW2 1327   0.926   2.616   3.782  0.1652 -0.4267 -0.5025
30787SOL     OW 1328   6.762  12.376  11.897 -0.2082  0.0768 -0.3898
30787SOL    HW1 1329   6.828  12.354  11.831  0.1763 -0.5080  0.1749
30787SOL    HW2 1330   6.693  12.311  11.884 -0.5233  0.4776 -0.7533
30788SOL     OW 1331   0.072   5.700   5.423  0.2934 -0.3970  0.0698
30788SOL    HW1 1332   0.034   5.616   5.450  1.2111 -0.6642  0.5841
30788SOL    HW2 1333   0.042   5.762   5.489 -1.0034 -0.1359 -0.7185
30789SOL     OW 1334   7.418   5.220   8.564  0.0556  0.2585  0.4044
30789SOL    HW1 1335   7.460   5.307   8.558  1.2507 -0.3387 -0.3457
30789SOL    HW2 1336   7.476   5.170   8.622 -0.4237 -0.1620  0.5270
30790SOL     OW 1337   3.907   5.666   1.129 -0.1843  0.3757  0.1813
30790SOL    HW1 1338   3.994   5.704   1.129 -0.5466  1.2260  0.7108
30790SOL    HW2 1339   3.888   5.650   1.036  0.3992  0.4700  0.0396
30791SOL     OW 1340   5.181   1.814   3.153 -0.1438  0.0533  0.3919
30791SOL    HW1 1341   5.131   1.741   3.116  0.4233  0.1701 -0.6345
30791SOL    HW2 1342   5.178   1.882   3.085  1.5665 -0.0226  0.2086
30792SOL     OW 1343   3.706   5.539   1.845 -0.2793 -0.2696  0.2967
30792SOL    HW1 1344   3.693   5.576   1.757  0.4461 -1.5387 -0.3662
30792SOL    HW2 1345   3.639   5.471   1.852 -0.0053 -0.5166  0.5218
30793SOL     OW 1346   9.654   5.485  11.224  0.5077 -0.7070  0.9606
30793SOL    HW1 1347   9.601   5.564  11.233  1.1448 -0.0786 -0.4358
30793SOL    HW2 1348   9.720   5.493  11.293 -0.3645 -0.8062  1.8167
30794SOL     OW 1349   5.372   0.692   8.681 -0.7872 -0.0393 -0.6108
30794SOL    HW1 1350   5.281   0.665   8.667 -1.6099  2.7343 -1.1770
30794SOL    HW2 1351   5.381   0.774   8.632  2.1105 -0.3246 -0.7436
30795SOL     OW 1352   2.917   2.810   4.808  0.6624  0.2630 -0.1790
30795SOL    HW1 1353   2.833   2.852   4.788  0.8504 -0.4145 -2.6763
30795SOL    HW2 1354   2.978   2.884   4.817 -0.1484  0.7629  1.6875
30796SOL     OW 1355   0.676  10.947   7.560  0.4612 -0.5808  0.1981
30796SOL    HW1 1356   0.718  10.897   7.630 -0.1179  2.0393  2.6085
30796SOL    HW2 1357   0.591  10.905   7.549  0.5390 -1.0007  1.1183
30797SOL     OW 1358   8.987   4.680   2.517  0.7569  0.1360 -0.4459
30797SOL    HW1 1359   8.959   4.695   2.427  1.1915  1.5859 -0.3650
30797SOL    HW2 1360   9.081   4.663   2.510  0.6213 -0.6666 -0.3467
30798SOL     OW 1361  11.077   5.307  10.397  0.4358 -0.0136 -0.0857
30798SOL    HW1 1362  11.086   5.402  10.392  1.8191 -0.1804 -2.7589
30798SOL    HW2 1363  11.041   5.282  10.312  1.2214 -1.9560  0.1021
30799SOL     OW 1364   2.636  12.134   2.718  0.1149  0.3877 -0.3823
30799SOL    HW1 1365   2.588  12.145   2.636 -1.0731  0.3857  0.2890
30799SOL    HW2 1366   2.570  12.104   2.781  0.8398  1.1259  0.7732
30800SOL     OW 1367   5.388   7.926   0.814 -0.4647 -0.1379 -0.5600
30800SOL    HW1 1368   5.429   7.902   0.897 -1.5855 -0.9913 -0.2312
30800SOL    HW2 1369   5.419   8.015   0.797  2.1936 -1.0186 -0.7814
30801SOL     OW 1370   9.631   7.427   0.407 -0.2836 -0.1442  0.0505
30801SOL    HW1 1371   9.543   7.463   0.393  0.5501  2.2310  0.4626
30801SOL    HW2 1372   9.687   7.504   0.418  1.9899 -1.5527 -0.8732
30802SOL     OW 1373   0.866   1.720   9.234 -0.2344  0.3141 -0.1399
30802SOL    HW1 1374   0.828   1.800   9.197 -0.5024  0.7299  0.9723
30802SOL    HW2 1375   0.790   1.666   9.256 -0.2114  0.8249  1.3842
30803SOL     OW 1376   7.749   3.242   1.877 -0.1971 -0.2666  0.1335
30803SOL    HW1 1377   7.689   3.226   1.949  0.1688  0.9582  0.7485
30803SOL    HW2 1378   7.776   3.155   1.847 -3.4246 -0.9267 -1.2075
30804SOL     OW 1379   6.381   1.241   5.381  0.5447 -0.1512 -0.1020
30804SOL    HW1 1380   6.429   1.161   5.403  1.6260  0.6049  0.3592
30804SOL    HW2 1381   6.373   1.288   5.463 -0.5512 -0.0021 -0.2750
30805SOL     OW 1382   5.956   1.248  10.609 -0.2147  0.6947 -0.1855
30805SOL    HW1 1383   6.046   1.274  10.626  0.5159 -0.9226 -1.3688
30805SOL    HW2 1384   5.951   1.157  10.636 -1.4249  0.6750 -0.3957
30806SOL     OW 1385   5.916  12.062   4.920  0.3798  0.2117  0.6620
30806SOL    HW1 1386   5.939  12.155   4.929  0.2892  0.1073  2.2423
30806SOL    HW2 1387   5.936  12.041   4.828 -0.2817  1.9696  0.0734
30807SOL     OW 1388   7.264  10.570   0.162  0.7149 -0.1983 -0.0088
30807SOL    HW1 1389   7.312  10.645   0.196 -1.2666  1.0442  0.1799
30807SOL    HW2 1390   7.172  10.589   0.180  0.0553 -2.1683 -0.9441
30808SOL     OW 1391   5.377   7.247  10.733  0.2862 -0.6492 -0.6049
30808SOL    HW1 1392   5.448   7.283  10.785 -0.9242  0.0515  0.6433
30808SOL    HW2 1393   5.337   7.180  10.789 -0.1682 -0.8862 -1.1932
30809SOL     OW 1394   7.572  10.668  12.211  0.4545  0.2247 -0.5170
30809SOL    HW1 1395   7.571  10.711  12.125  1.2893 -1.1289 -1.2420
30809SOL    HW2 1396   7.546  10.737  12.272  0.9196  1.5338 -1.7194
30810SOL     OW 1397   6.682   7.246  10.115 -0.2925  0.5636  0.2794
30810SOL    HW1 1398   6.592   7.256  10.146 -1.0837 -1.6013 -1.0637
30810SOL    HW2 1399   6.677   7.265  10.021 -0.2333 -3.0713 -0.6004
30811SOL     OW 1400   7.415   3.566   1.212 -0.4199  0.5565 -0.1485
30811SOL    HW1 1401   7.380   3.484   1.246 -0.6447  0.2915 -0.9876
30811SOL    HW2 1402   7.483   3.591   1.274 -0.0397 -0.5005 -0.1259
30812SOL     OW 1403   3.492   3.042   0.296 -0.3655 -0.0822 -0.1523
30812SOL    HW1 1404   3.534   3.006   0.218  0.7459 -2.0866  1.2749
30812SOL    HW2 1405   3.560   3.096   0.337 -0.2789 -0.6148  0.4185
30813SOL     OW 1406   9.094  11.547   5.505 -0.5813 -0.1682  0.1866
30813SOL    HW1 1407   9.059  11.500   5.430  0.7368 -0.8875 -0.0148
30813SOL    HW2 1408   9.025  11.540   5.572 -0.7700 -1.7092 -0.1124
30814SOL     OW 1409  10.735   6.699  11.827  0.0002 -0.7117 -0.0174
30814SOL    HW1 1410  10.701   6.631  11.885  0.2048 -2.5530 -1.9241
30814SOL    HW2 1411  10.824   6.715  11.857 -1.2209  1.7135  2.9075
30815SOL     OW 1412   6.955   6.321   7.893 -0.3173  0.4208 -0.0324
30815SOL    HW1 1413   6.894   6.294   7.961  0.3658 -1.2137 -0.0209
30815SOL    HW2 1414   7.026   6.257   7.898  0.9739  1.7436 -0.6283
30816SOL     OW 1415   5.336   2.230   3.459 -0.3088 -0.1341  0.0195
30816SOL    HW1 1416   5.343   2.303   3.398 -0.6408 -0.2371 -0.1424
30816SOL    HW2 1417   5.250   2.240   3.499  0.2118  0.3675  1.0310
30817SOL     OW 1418   6.702   5.884  11.882  0.5903 -0.4294  0.4491
30817SOL    HW1 1419   6.755   5.902  11.804 -0.4670  0.8791 -0.0041
30817SOL    HW2 1420   6.650   5.963  11.894 -1.7179 -1.8718  0.4940
30818SOL     OW 1421   6.089   1.741   0.638 -0.0873 -0.8128 -0.4899
30818SOL    HW1 1422   6.035   1.815   0.663  1.3242 -0.1079  0.5989
30818SOL    HW2 1423   6.109   1.696   0.720  0.7803 -1.1894 -0.8939
30819SOL     OW 1424   9.709   5.128  10.704 -0.1261  0.1450  0.1514
30819SOL    HW1 1425   9.802   5.132  10.726 -0.9226  0.9162  4.0340
30819SOL    HW2 1426   9.678   5.047  10.745 -1.4569  0.6609  0.2109
30820SOL     OW 1427   9.940   1.304   9.919  0.3600 -0.0724  0.0174
30820SOL    HW1 1428  10.010   1.347   9.870  0.8854 -1.1610 -0.2167
30820SOL    HW2 1429   9.881   1.376   9.945  0.5463  0.6387 -1.4116
30821SOL     OW 1430   4.562   9.463   9.578 -0.8075  0.1237  0.0419
30821SOL    HW1 1431   4.598   9.376   9.559  0.2727  0.8425 -1.3856
30821SOL    HW2 1432   4.514   9.451   9.660  0.0313 -1.6144  0.3381
30822SOL     OW 1433   0.157   2.404   6.967  0.6518  0.3503 -0.2900
30822SOL    HW1 1434   0.198   2.342   6.907  1.0855  1.5269 -1.2452
30822SOL    HW2 1435   0.229   2.436   7.022  0.3017 -0.5291  0.7071
30823SOL     OW 1436   2.574  12.000   8.418 -0.5914 -0.6313 -0.7013
30823SOL    HW1 1437   2.653  11.983   8.367  0.1156 -0.4798  0.3240
30823SOL    HW2 1438   2.534  12.076   8.376  1.9783  1.9644  1.1449
30824SOL     OW 1439   6.710  11.946   3.838  0.1537  0.2671 -0.2376
30824SOL    HW1 1440   6.662  11.863   3.849 -0.8922  1.0711  1.9550
30824SOL    HW2 1441   6.802  11.920   3.839 -0.1337 -1.0561 -1.9271
30825SOL     OW 1442   3.116   0.907   9.514  0.2795 -0.2899 -0.3852
30825SOL    HW1 1443   3.045   0.850   9.485 -0.5481 -1.3469  3.2553
30825SOL    HW2 1444   3.196   0.859   9.492 -0.1029 -0.0561 -2.5732
30826SOL     OW 1445   8.589   3.727  10.857 -0.0065 -0.1165 -0.3996
30826SOL    HW1 1446   8.670   3.709  10.904  0.7831 -0.8814 -1.9514
30826SOL    HW2 1447   8.520   3.713  10.921  1.0835  0.8960  1.0597
30827SOL     OW 1448   1.404   3.685   7.439 -0.4047 -0.3662 -0.0243
30827SOL    HW1 1449   1.402   3.711   7.347  1.1927  0.7604  0.2186
30827SOL    HW2 1450   1.373   3.762   7.486 -0.1012 -0.5259  0.4417
30828SOL     OW 1451  11.654   4.759   1.248 -0.1661 -0.1065 -0.5354
30828SOL    HW1 1452  11.620   4.672   1.229 -1.0818  0.3170 -0.9037
30828SOL    HW2 1453  11.741   4.760   1.208  0.3818 -1.2692  0.5638
30829SOL     OW 1454   7.831  11.350   7.865  0.0137  0.3107  0.0194
30829SOL    HW1 1455   7.853  11.372   7.774  0.0791 -1.1798 -0.3592
30829SOL    HW2 1456   7.904  11.297   7.895 -0.7048 -0.4775  0.4299
30830SOL     OW 1457   4.521   7.088  12.505 -0.0766  0.2725 -0.2038
30830SOL    HW1 1458   4.531   7.033  12.583 -1.5311  0.2070 -0.0446
30830SOL    HW2 1459   4.449   7.148  12.526 -1.5948 -0.7834 -2.0454
30831SOL     OW 1460   9.681   7.622  10.202  0.0715  0.4044 -0.6401
30831SOL    HW1 1461   9.587   7.603  10.196 -0.2388  1.2189  1.0378
30831SOL    HW2 1462   9.723   7.536  10.201 -0.9338 -0.1983  1.7419
30832SOL     OW 1463   7.969   2.955   9.507 -0.6258  0.2038 -0.6414
30832SOL    HW1 1464   7.886   2.921   9.540 -0.8943 -0.1377 -1.6445
30832SOL    HW2 1465   7.979   2.915   9.421  0.8638 -0.2005 -0.3014
30833SOL     OW 1466  10.825  10.909   0.836 -0.2093  0.4492  0.1876
30833SOL    HW1 1467  10.854  10.944   0.751 -0.0049  1.8554  0.8012
30833SOL    HW2 1468  10.760  10.843   0.813  2.2726 -1.7246 -1.1841
30834SOL     OW 1469  11.104  12.267  10.983  0.5747 -0.1800 -0.4935
30834SOL    HW1 1470  11.034  12.218  11.026 -0.7448  1.2469 -0.9230
30834SOL    HW2 1471  11.183  12.217  11.002 -0.4661 -1.5342  0.5030
30835SOL     OW 1472   8.422   8.873   2.630  0.0588  0.3506  0.4716
30835SOL    HW1 1473   8.410   8.966   2.610 -1.2554  0.2082  0.4765
30835SOL    HW2 1474   8.345   8.850   2.682 -0.4895 -1.1103 -0.8989
30836SOL     OW 1475   6.597   2.181   7.138 -0.0173 -0.6985  0.3303
30836SOL    HW1 1476   6.676   2.136   7.109 -0.5750 -1.1807 -0.5005
30836SOL    HW2 1477   6.526   2.121   7.115 -0.8019  0.6687 -0.9648
30837SOL     OW 1478   2.456   6.175  11.685 -0.4520 -0.3233  0.0681
30837SOL    HW1 1479   2.550   6.182  11.697 -0.2397  0.0557 -1.6063
30837SOL    HW2 1480   2.440   6.081  11.674  0.1972 -0.1888 -2.6872
30838SOL     OW 1481   5.839   8.611   5.072  0.0825 -0.1138 -0.3892
30838SOL    HW1 1482   5.917   8.555   5.072 -0.0241 -0.5698  3.5421
30838SOL    HW2 1483   5.767   8.552   5.048  0.5185 -0.5909 -0.5345
30839SOL     OW 1484   0.006  11.525  11.034 -0.6826  0.3308 -0.1591
30839SOL    HW1 1485  -0.016  11.615  11.011 -0.6111  0.2313 -0.6300
30839SOL    HW2 1486  -0.079  11.480  11.038 -0.6105  0.0365 -1.5901
30840SOL     OW 1487   1.043   5.254   2.519 -0.1410  0.0495  0.3150
30840SOL    HW1 1488   1.118   5.215   2.474 -0.5876  0.7284 -1.0711
30840SOL    HW2 1489   0.999   5.306   2.452 -1.7688 -0.1998  1.1299
30841SOL     OW 1490   6.799   6.997  11.970  0.8500 -0.4451  0.3066
30841SOL    HW1 1491   6.814   6.920  11.915  0.0548 -0.0636 -0.4627
30841SOL    HW2 1492   6.865   7.060  11.941 -1.6861  1.0536 -2.7422
30842SOL     OW 1493  10.151   8.473  11.925 -0.0993  0.7446 -0.2115
30842SOL    HW1 1494  10.069   8.439  11.887 -1.1758  0.5868  2.0875
30842SOL    HW2 1495  10.123   8.549  11.977  1.2064  0.6621  0.6431
30843SOL     OW 1496   0.415  11.285   9.992  0.6740  0.3096  0.2154
30843SOL    HW1 1497   0.472  11.265  10.067  1.4048  2.1528  0.1861
30843SOL    HW2 1498   0.468  11.263   9.915 -0.1903 -1.8933  0.1625
30844SOL     OW 1499   0.580   1.126   5.057 -0.5656 -0.6153 -0.6108
30844SOL    HW1 1500   0.491   1.156   5.041 -0.9461 -1.2195  0.2574
30844SOL    HW2 1501   0.635   1.201   5.036 -1.2453 -0.3537 -1.5159
30845SOL     OW 1502   8.486   9.784   1.911 -0.0663 -0.2926  0.1051
30845SOL    HW1 1503   8.418   9.845   1.882 -1.4977 -2.0141 -0.3433
30845SOL    HW2 1504   8.439   9.716   1.958  1.6680 -0.2461  2.0641
30846SOL     OW 1505   0.458   9.802   1.268 -0.3947 -0.2584  0.1363
30846SOL    HW1 1506   0.543   9.839   1.244 -0.8009 -0.4525 -1.6909
30846SOL    HW2 1507   0.475   9.709   1.282  0.2059  0.1332  2.6608
30847SOL     OW 1508  12.062   9.663   7.392 -0.0728  0.5147  0.2346
30847SOL    HW1 1509  12.157   9.671   7.392 -0.1358  1.4116  0.7925
30847SOL    HW2 1510  12.045   9.575   7.359  0.8890  1.0805 -1.9843
30848SOL     OW 1511   8.881   9.753  11.698 -0.2108  0.1556  0.7389
30848SOL    HW1 1512   8.844   9.712  11.620 -2.2564  2.6584  0.2206
30848SOL    HW2 1513   8.974   9.762  11.679 -0.3191 -1.0862 -0.5258
30849SOL     OW 1514   4.165   3.276   5.455 -0.2344 -0.2968  0.0880
30849SOL    HW1 1515   4.102   3.348   5.457  1.1592  0.9488  0.3142
30849SOL    HW2 1516   4.185   3.264   5.362  1.1255  1.0604  0.1848
30850SOL     OW 1517   0.597   0.338   5.244 -0.4279 -0.4275 -0.0877
30850SOL    HW1 1518   0.610   0.264   5.303 -0.5213  1.0736  1.8868
30850SOL    HW2 1519   0.682   0.352   5.204 -0.3416 -1.4024 -0.2795
30851SOL     OW 1520  11.716   6.551  12.198  0.0644  0.6633  0.1326
30851SOL    HW1 1521  11.809   6.536  12.210  0.2199 -0.3227 -1.8758
30851SOL    HW2 1522  11.677   6.464  12.208 -0.5194  0.9082  0.0204
30852SOL     OW 1523  12.582   8.297   8.469 -0.6822  0.1650 -0.4489
30852SOL    HW1 1524  12.575   8.388   8.496 -0.2420  0.1792 -0.3644
30852SOL    HW2 1525  12.587   8.248   8.551  0.6281  0.2063 -0.4721
30853SOL     OW 1526   3.569   0.477   5.490  0.1520  0.4560 -0.2118
30853SOL    HW1 1527   3.546   0.563   5.526  0.8002 -0.0005  1.3922
30853SOL    HW2 1528   3.485   0.430   5.485 -0.0942  0.9059 -0.3095
30854SOL     OW 1529  12.077   5.972   3.726 -0.7743 -0.3366 -0.4504
30854SOL    HW1 1530  12.116   6.022   3.798  0.6214  1.3123 -2.2511
30854SOL    HW2 1531  12.146   5.913   3.697 -1.1225 -0.5435 -0.8741
30855SOL     OW 1532  12.074   3.591   2.372  0.6269  0.0024 -0.1708
30855SOL    HW1 1533  12.079   3.503   2.410 -0.0363  0.0148 -0.0517
30855SOL    HW2 1534  12.139   3.641   2.421  0.0768 -0.0892  0.6601
30856SOL     OW 1535  12.373   8.358   8.305  0.3840 -0.1591 -0.0186
30856SOL    HW1 1536  12.445   8.322   8.356  0.5755 -0.7074 -0.6688
30856SOL    HW2 1537  12.316   8.283   8.288  1.8286 -0.6869 -3.1656
30857SOL     OW 1538   2.420   5.439   3.835 -0.2649  0.0855 -0.7886
30857SOL    HW1 1539   2.435   5.409   3.925 -3.4968  2.1387  0.6396
30857SOL    HW2 1540   2.411   5.534   3.843 -3.1546  0.1021 -2.7768
30858SOL     OW 1541  12.357   6.771   6.961 -0.1430 -0.3917  0.5795
30858SOL    HW1 1542  12.449   6.763   6.986  1.2279  2.0530 -2.9362
30858SOL    HW2 1543  12.351   6.732   6.874 -2.3536 -0.0947  0.5232
30859SOL     OW 1544  12.179   7.329   9.562  0.1106 -0.2285  0.1211
30859SOL    HW1 1545  12.270   7.350   9.583 -0.4950  2.3704  0.5419
30859SOL    HW2 1546  12.149   7.278   9.637  1.2683 -1.3809 -0.1619
30860SOL     OW 1547   4.885   9.190   7.239 -0.1735 -0.4669 -0.6707
30860SOL    HW1 1548   4.821   9.233   7.182 -1.6566 -3.7545 -1.7248
30860SOL    HW2 1549   4.833   9.157   7.312  0.6484 -1.5334 -0.5493
30861SOL     OW 1550   8.231  11.640   8.027  0.0552 -0.5712  0.1554
30861SOL    HW1 1551   8.246  11.576   7.958  0.8255 -0.7791  0.5041
30861SOL    HW2 1552   8.213  11.722   7.980  0.3782 -0.7505 -0.2963
30862SOL     OW 1553   6.277   3.467   9.846 -0.0570 -0.0787  0.6547
30862SOL    HW1 1554   6.213   3.455   9.776  1.8355 -1.4567 -0.9717
30862SOL    HW2 1555   6.303   3.378   9.870  2.8972  0.3648 -0.4311
30863SOL     OW 1556   3.683   0.808  11.205  0.1482  0.2177 -0.1211
30863SOL    HW1 1557   3.680   0.712  11.204  0.9401  0.1844 -0.0098
30863SOL    HW2 1558   3.592   0.835  11.190 -0.0439 -0.5479 -0.3954
30864SOL     OW 1559   3.347   4.402   0.985 -0.0381  0.1499 -0.1942
30864SOL    HW1 1560   3.331   4.463   0.914  2.0740  1.6175  0.4987
30864SOL    HW2 1561   3.299   4.439   1.060 -1.1652 -0.6824 -0.4663
30865SOL     OW 1562   1.326   3.806  11.025  0.1278 -0.2667 -0.0053
30865SOL    HW1 1563   1.309   3.792  11.118 -0.4491  1.7762  0.2294
30865SOL    HW2 1564   1.405   3.754  11.008  1.6110  1.0631  2.1782
30866SOL     OW 1565  12.173   2.406   2.514 -0.4869 -0.5454 -0.4672
30866SOL    HW1 1566  12.149   2.315   2.496  0.3260 -0.5415 -1.6700
30866SOL    HW2 1567  12.268   2.409   2.506 -0.4705  0.3579 -0.1480
30867SOL     OW 1568  10.316  11.814   4.635 -0.1561 -0.0325 -0.2596
30867SOL    HW1 1569  10.329  11.898   4.590  0.9417 -0.2689 -0.4145
30867SOL    HW2 1570  10.237  11.777   4.595 -0.2589  0.6141 -0.6671
30868SOL     OW 1571   3.970   1.675   0.121 -0.1307  0.0640 -0.4037
30868SOL    HW1 1572   3.926   1.726   0.189 -1.0040 -1.2623  0.0724
30868SOL    HW2 1573   3.994   1.739   0.054 -0.8015  1.1502  0.3722
30869SOL     OW 1574   9.120  11.931  10.482 -0.2313  0.2527 -0.2512
30869SOL    HW1 1575   9.065  11.906  10.557 -0.1163  0.2790 -0.1573
30869SOL    HW2 1576   9.128  12.026  10.490 -0.4765  0.2937 -0.4767
30870SOL     OW 1577   7.720   5.738   3.784 -0.4578 -0.2319  0.0696
30870SOL    HW1 1578   7.794   5.779   3.739 -0.6891  0.5323  0.3669
30870SOL    HW2 1579   7.753   5.652   3.810 -0.0895 -0.4065 -0.9152
30871SOL     OW 1580   8.541   9.665   7.700 -0.2238  0.4366  0.6536
30871SOL    HW1 1581   8.456   9.661   7.657  1.3378 -0.6829 -2.6744
30871SOL    HW2 1582   8.564   9.758   7.699 -1.5621  0.8257  2.0947
30872SOL     OW 1583   0.380   3.473   5.019  0.4031  0.3118 -0.0058
30872SOL    HW1 1584   0.384   3.568   5.024 -1.0725  0.3985  0.0890
30872SOL    HW2 1585   0.427   3.442   5.097 -2.1350  1.0811  1.9795
30873SOL     OW 1586   2.452   4.951   1.040 -0.3543  0.1636 -0.2868
30873SOL    HW1 1587   2.415   4.907   1.117  0.4590 -1.8695 -0.9939
30873SOL    HW2 1588   2.522   5.005   1.076  0.8711 -1.7210  0.3656
30874SOL     OW 1589   0.286  11.704   5.391  0.0325 -0.1251  0.0578
30874SOL    HW1 1590   0.335  11.679   5.312  0.5719  0.6265  0.1401
30874SOL    HW2 1591   0.354  11.734   5.452 -0.6624  3.1399 -0.6280
30875SOL     OW 1592  12.133  11.956   3.315 -0.4518 -0.1430 -0.1650
30875SOL    HW1 1593  12.080  11.892   3.268  0.8311 -0.4209 -1.3129
30875SOL    HW2 1594  12.222  11.919   3.312 -0.1469  0.3446  1.5970
30876SOL     OW 1595   2.093   5.025   3.088  0.2890 -0.1914  0.1082
30876SOL    HW1 1596   2.178   5.068   3.084  0.9219 -1.3931 -0.0090
30876SOL    HW2 1597   2.051   5.063   3.165  0.7056  0.8013 -0.1411
30877SOL     OW 1598   9.485   1.635   0.200  0.3665 -0.3174  0.0635
30877SOL    HW1 1599   9.572   1.608   0.172 -0.0383 -1.6664  0.0210
30877SOL    HW2 1600   9.481   1.729   0.182  1.2120 -0.5526 -1.5244
30878SOL     OW 1601   0.239  10.658   9.888 -0.0703  0.1859 -0.4107
30878SOL    HW1 1602   0.145  10.669   9.907 -0.2487  0.2630 -1.3068
30878SOL    HW2 1603   0.283  10.703   9.960 -0.7329  0.8546 -0.4118
30879SOL     OW 1604   2.698   2.974   5.599  0.4946 -0.0250 -0.1178
30879SOL    HW1 1605   2.711   2.889   5.556  1.5135 -0.0153  0.1304
30879SOL    HW2 1606   2.633   2.957   5.667  0.6503 -0.6052 -0.1040
30880SOL     OW 1607   8.770   8.642  10.128  0.4529 -0.0021  0.2287
30880SOL    HW1 1608   8.837   8.584  10.164  1.7241  1.1260 -0.2043
30880SOL    HW2 1609   8.691   8.589  10.123  1.4112 -1.4838  0.4316
30881SOL     OW 1610  10.311  11.918   6.045 -0.2172 -0.1224  0.1514
30881SOL    HW1 1611  10.389  11.880   6.004 -0.4922 -0.8176  0.2700
30881SOL    HW2 1612  10.308  12.007   6.011  0.6824 -0.0574  0.2094
30882SOL     OW 1613   9.640   9.245   9.666 -0.4770 -0.3480 -0.5092
30882SOL    HW1 1614   9.702   9.260   9.737  0.4657  0.5839 -1.4697
30882SOL    HW2 1615   9.690   9.266   9.587 -1.3188 -1.8664 -1.4924
30883SOL     OW 1616  10.089   0.839  12.466  0.4977  0.2103 -0.8845
30883SOL    HW1 1617  10.176   0.878  12.456  0.9024 -0.2721  0.4941
30883SOL    HW2 1618  10.028   0.909  12.442  1.2434  1.0440 -0.3959
30884SOL     OW 1619   6.963   1.772   1.805 -0.1759  0.2645  0.2953
30884SOL    HW1 1620   6.935   1.717   1.879 -1.3295  0.5401  0.0818
30884SOL    HW2 1621   7.043   1.815   1.837  1.3966 -2.2881  0.1002
30885SOL     OW 1622   4.656   6.061   7.848 -0.3729 -0.1472  0.3623
30885SOL    HW1 1623   4.639   6.151   7.820 -1.0903 -0.2321  0.5078
30885SOL    HW2 1624   4.736   6.067   7.899 -0.1530  0.3305 -0.0360
30886SOL     OW 1625   3.243   6.402   9.878  0.3672 -0.1027  0.6538
30886SOL    HW1 1626   3.191   6.407   9.798 -0.0020  2.6340  0.9674
30886SOL    HW2 1627   3.292   6.320   9.870 -2.9548 -2.1953 -0.2659
30887SOL     OW 1628   5.835   5.456  11.938 -0.6937  0.1288 -0.9644
30887SOL    HW1 1629   5.899   5.395  11.975 -1.5530  0.3747  1.0352
30887SOL    HW2 1630   5.868   5.474  11.850  1.0082 -1.1439 -0.6454
30888SOL     OW 1631   9.669   5.305   6.384  0.4278 -0.4213  0.2513
30888SOL    HW1 1632   9.700   5.291   6.295  0.3441 -0.6600  0.2587
30888SOL    HW2 1633   9.749   5.307   6.437  0.4665 -0.4587  0.1951
30889SOL     OW 1634   0.139   4.268   8.346 -0.0127 -0.1148  0.0045
30889SOL    HW1 1635   0.085   4.320   8.405  0.6207  1.8872 -1.1008
30889SOL    HW2 1636   0.076   4.211   8.301 -1.0888  1.3840 -0.4619
30890SOL     OW 1637   5.965  12.324   4.827  0.1428  0.1329  0.4601
30890SOL    HW1 1638   6.053  12.300   4.856 -0.3826  1.3058  3.4319
30890SOL    HW2 1639   5.971  12.417   4.804 -0.0040 -0.1792 -0.9109
30891SOL     OW 1640   9.008   8.293   8.985  0.1803 -0.1453  0.0481
30891SOL    HW1 1641   9.031   8.306   9.077 -0.4706  0.1016  0.1790
30891SOL    HW2 1642   9.075   8.234   8.952  1.7702  1.5543  0.0876
30892SOL     OW 1643   8.807   6.899   7.256  0.0064 -0.4585 -0.1446
30892SOL    HW1 1644   8.871   6.837   7.290  0.6355 -2.6978 -4.6729
30892SOL    HW2 1645   8.726   6.849   7.250  0.3603 -0.8764 -3.2440
30893SOL     OW 1646   0.922   1.222   8.285  0.3572 -0.2010 -0.1835
30893SOL    HW1 1647   0.973   1.294   8.248 -3.1421  1.5037 -2.2502
30893SOL    HW2 1648   0.887   1.177   8.208 -1.4292 -1.0668  1.0719
30894SOL     OW 1649   4.392   0.831   9.714 -0.1716  0.4941 -0.3063
30894SOL    HW1 1650   4.362   0.745   9.685  0.2116 -0.3584  1.6775
30894SOL    HW2 1651   4.365   0.836   9.805  1.0833  1.8914  0.0181
30895SOL     OW 1652   8.557   4.342   2.038 -0.4126  0.3488  0.4608
30895SOL    HW1 1653   8.632   4.308   2.087 -0.2644 -2.0780 -1.2643
30895SOL    HW2 1654   8.481   4.322   2.093 -0.0517  0.0174  0.8490
30896SOL     OW 1655   8.898   0.753  12.151  0.1442  0.1038 -0.0421
30896SOL    HW1 1656   8.840   0.755  12.075  0.8028 -2.1048 -0.6650
30896SOL    HW2 1657   8.845   0.789  12.222 -0.6860  1.6726 -1.3691
30897SOL     OW 1658  11.576   6.713   6.233 -0.5831 -0.2177  0.6886
30897SOL    HW1 1659  11.614   6.695   6.147 -1.3308  0.8030  0.1303
30897SOL    HW2 1660  11.594   6.633   6.284  3.0554  0.4818  0.7795
30898SOL     OW 1661   3.626   1.407   1.964 -0.1355 -0.0949  0.1629
30898SOL    HW1 1662   3.556   1.345   1.944 -1.1944  0.0701  2.8562
30898SOL    HW2 1663   3.585   1.493   1.955  0.3252  0.0901 -0.2112
30899SOL     OW 1664   7.733  10.571   2.526 -0.2643 -0.6589 -0.2977
30899SOL    HW1 1665   7.730  10.497   2.466 -1.5319 -0.3270 -0.6758
30899SOL    HW2 1666   7.796  10.632   2.487  0.3563 -1.2798 -0.2754
30900SOL     OW 1667  12.386  10.733   1.783  0.2622  0.2498  0.2797
30900SOL    HW1 1668  12.396  10.823   1.813 -0.6073  0.8349 -1.1203
30900SOL    HW2 1669  12.340  10.740   1.700  1.1200 -1.4266 -0.3829
30901SOL     OW 1670   1.663   2.842   8.567 -0.5723  0.5184  0.1384
30901SOL    HW1 1671   1.676   2.768   8.507 -0.5629 -0.5583  1.4297
30901SOL    HW2 1672   1.607   2.902   8.518 -0.8060 -0.4696 -0.8481
30902SOL     OW 1673   4.304   0.899   7.767  0.0685 -0.5076 -0.0439
30902SOL    HW1 1674   4.287   0.865   7.679 -0.3320  0.4303 -0.3553
30902SOL    HW2 1675   4.218   0.930   7.797  0.6358  1.6489 -0.4405
30903SOL     OW 1676   8.229   1.503   7.519 -0.1285  0.0759 -0.0818
30903SOL    HW1 1677   8.204   1.419   7.481  0.7469 -0.6936  0.9887
30903SOL    HW2 1678   8.288   1.542   7.455 -2.0598  0.8223 -1.5081
30904SOL     OW 1679  11.843   1.422   3.500  0.2848 -0.1158  0.0008
30904SOL    HW1 1680  11.839   1.435   3.405 -0.0898  0.6726  0.1120
30904SOL    HW2 1681  11.934   1.402   3.518  0.8140  1.7686 -0.3119
30905SOL     OW 1682   7.600   7.022  11.714  0.2413  0.0657  0.5925
30905SOL    HW1 1683   7.605   6.970  11.634  1.0265  2.0504 -0.7304
30905SOL    HW2 1684   7.672   6.990  11.769 -0.2365 -1.2310  0.4959
30906SOL     OW 1685  10.042   0.728   4.952 -0.3409  0.2967 -0.3196
30906SOL    HW1 1686  10.015   0.787   4.882  2.5928  0.3655 -1.5537
30906SOL    HW2 1687  10.014   0.641   4.923 -0.3840  0.5063 -0.9166
30907SOL     OW 1688  10.925   8.199   7.136 -0.2747 -0.0765 -0.1518
30907SOL    HW1 1689  10.941   8.293   7.148 -1.8523  0.2319 -0.2276
30907SOL    HW2 1690  10.929   8.185   7.041  0.5097 -0.2180 -0.1095
30908SOL     OW 1691   7.446   7.491   0.854 -0.0058  0.4481 -0.1795
30908SOL    HW1 1692   7.485   7.455   0.774 -0.0413  3.0936 -1.4983
30908SOL    HW2 1693   7.518   7.538   0.896 -0.3125  0.1881  0.6511
30909SOL     OW 1694   8.851   6.446  11.114 -0.0893 -0.5066 -0.0531
30909SOL    HW1 1695   8.803   6.455  11.031  1.0183  0.3315 -0.6355
30909SOL    HW2 1696   8.842   6.353  11.137 -1.8223 -0.4105 -0.2113
30910SOL     OW 1697   5.719   6.806   1.724 -0.6395  0.0184 -0.5020
30910SOL    HW1 1698   5.695   6.714   1.733 -2.3962  0.6279  2.7177
30910SOL    HW2 1699   5.775   6.823   1.799 -1.4871  1.8494 -0.2351
30911SOL     OW 1700  11.916   7.907   7.047 -0.0408  0.4453 -0.3108
30911SOL    HW1 1701  11.842   7.868   7.094  0.9717  0.0214  0.9983
30911SOL    HW2 1702  11.876   7.970   6.987 -1.6098 -1.2633 -1.1804
30912SOL     OW 1703   0.089   0.137   7.235 -0.0512 -0.0206  0.0808
30912SOL    HW1 1704   0.103   0.209   7.296  0.1577 -0.6857  0.8466
30912SOL    HW2 1705   0.009   0.094   7.266 -0.3978  0.1246 -0.6101
30913SOL     OW 1706   9.913  10.483   0.475 -0.1867  0.3727  0.1605
30913SOL    HW1 1707   9.906  10.556   0.535 -0.8068 -1.0217  1.8591
30913SOL    HW2 1708   9.827  10.442   0.476  0.2494 -0.6077 -0.4505
30914SOL     OW 1709  11.003   1.677   4.361 -0.1973  0.0170  0.5363
30914SOL    HW1 1710  11.027   1.647   4.448  1.6714  0.2614  0.1456
30914SOL    HW2 1711  10.923   1.627   4.340  1.1441 -2.5421  1.0822
30915SOL     OW 1712   4.691   4.463   8.067  0.2301  0.1832 -0.1253
30915SOL    HW1 1713   4.768   4.492   8.019  0.1404  2.4550  0.9499
30915SOL    HW2 1714   4.617   4.494   8.014  0.1090  0.7722  0.3808
30916SOL     OW 1715  12.492   7.739  10.878  0.0769  0.1912 -0.1336
30916SOL    HW1 1716  12.534   7.678  10.817 -0.1672 -0.0291 -0.0825
30916SOL    HW2 1717  12.442   7.683  10.937  1.2494  0.3021  1.0109
30917SOL     OW 1718   5.845   9.330   2.732  0.3382 -0.0848 -0.0914
30917SOL    HW1 1719   5.937   9.325   2.707  0.5537 -0.9019  0.8200
30917SOL    HW2 1720   5.842   9.400   2.797  0.4796 -0.6466  0.5298
30918SOL     OW 1721  10.724  10.836   8.426 -0.0236  0.0413  0.4437
30918SOL    HW1 1722  10.669  10.884   8.489 -1.2489 -0.4106 -0.2513
30918SOL    HW2 1723  10.802  10.890   8.417 -0.0726  0.4072  1.9177
30919SOL     OW 1724   5.879  10.014   3.607 -0.1525  0.0651 -0.0913
30919SOL    HW1 1725   5.828  10.086   3.644 -1.6445 -0.6493 -0.6961
30919SOL    HW2 1726   5.931   9.982   3.681  0.5713  1.7593  0.1778
30920SOL     OW 1727  10.186   9.137   6.738 -0.1831  0.4482  0.0422
30920SOL    HW1 1728  10.207   9.170   6.825  0.9780  0.4607 -0.2148
30920SOL    HW2 1729  10.251   9.179   6.681 -0.2574 -0.3644 -0.6601
30921SOL     OW 1730   7.822  11.986   9.959 -0.4781  0.5575 -0.2477
30921SOL    HW1 1731   7.811  11.987   9.864  0.4555 -1.8905 -0.4573
30921SOL    HW2 1732   7.738  11.956   9.992 -0.5666  0.6751 -0.3654
30922SOL     OW 1733   3.611  11.276   5.479 -0.4871  0.1526  0.6661
30922SOL    HW1 1734   3.666  11.332   5.533 -1.2923  0.5046  1.1421
30922SOL    HW2 1735   3.609  11.319   5.394  0.8355 -0.4367  0.3045
30923SOL     OW 1736   4.060   7.756  12.009  0.2746 -0.3221 -0.0479
30923SOL    HW1 1737   4.147   7.780  11.977  0.6523 -1.8812 -0.2837
30923SOL    HW2 1738   4.034   7.682  11.954 -1.0837 -0.0723  0.2183
30924SOL     OW 1739   1.108   0.886   3.697  0.1064  0.0301 -0.1464
30924SOL    HW1 1740   1.059   0.913   3.775  0.2649 -0.2001  0.0329
30924SOL    HW2 1741   1.115   0.966   3.644 -0.4775  0.0660 -0.1826
30925SOL     OW 1742  10.350   4.000   7.163  0.2622  0.2995  0.2032
30925SOL    HW1 1743  10.304   4.072   7.206  0.3454  1.2432 -1.2309
30925SOL    HW2 1744  10.287   3.928   7.164 -0.6954  1.1073 -0.3717
30926SOL     OW 1745   0.969   1.575   1.611  0.1976  0.2323 -0.3314
30926SOL    HW1 1746   0.969   1.481   1.631  0.6612  0.2255 -0.3565
30926SOL    HW2 1747   1.012   1.616   1.686  3.0780  0.0866 -1.7890
30927SOL     OW 1748   7.378   3.990   8.078  0.0070  0.2854  0.0169
30927SOL    HW1 1749   7.455   4.024   8.122  0.0828  0.6610 -0.3987
30927SOL    HW2 1750   7.379   3.896   8.096  0.8277  0.2067 -0.3916
30928SOL     OW 1751   9.903   3.843   1.929  0.1076 -0.1319  0.2514
30928SOL    HW1 1752   9.958   3.792   1.870  0.7271  1.4980 -0.6513
30928SOL    HW2 1753   9.833   3.877   1.874 -0.0979  0.2762  0.7565
30929SOL     OW 1754   6.430   1.987   0.042  0.5839  0.4688  0.2152
30929SOL    HW1 1755   6.477   2.039   0.107  0.2046 -1.8197  2.5234
30929SOL    HW2 1756   6.461   1.897   0.056 -1.2563 -0.4684 -1.1685
30930SOL     OW 1757   4.280   1.349   3.263  0.5189 -0.2300 -0.2829
30930SOL    HW1 1758   4.288   1.408   3.188 -0.1725  0.1589 -0.0605
30930SOL    HW2 1759   4.313   1.265   3.231 -0.1326 -0.1730 -1.1564
30931SOL     OW 1760   1.073  10.830   5.400 -0.1549 -0.2652  0.3724
30931SOL    HW1 1761   1.104  10.742   5.419 -0.3985 -0.0802  1.7968
30931SOL    HW2 1762   1.132  10.887   5.450  1.3416  0.5701 -2.1648
30932SOL     OW 1763  10.987   6.852  11.143 -0.0925 -0.1147 -0.4725
30932SOL    HW1 1764  10.967   6.945  11.159 -2.8849 -0.6614 -0.3592
30932SOL    HW2 1765  11.040   6.826  11.218  0.2292  1.2429 -0.2052
30933SOL     OW 1766   9.557   1.029   3.325  0.0898 -0.3953 -0.4589
30933SOL    HW1 1767   9.533   0.946   3.283  0.6124  0.6806 -3.1497
30933SOL    HW2 1768   9.481   1.053   3.377 -0.7569 -1.7259 -1.0243
30934SOL     OW 1769   8.269   1.540  10.344 -0.2084  0.6214 -0.6984
30934SOL    HW1 1770   8.282   1.613  10.405  0.3368  0.6768 -0.8723
30934SOL    HW2 1771   8.178   1.547  10.318 -0.1927  1.1748 -0.6234
30935SOL     OW 1772   5.318   8.141   1.218  0.2205 -0.1326 -0.1181
30935SOL    HW1 1773   5.391   8.157   1.278  0.7390 -1.8270 -0.2360
30935SOL    HW2 1774   5.326   8.208   1.151  0.8313  0.5463  0.6097
30936SOL     OW 1775   7.734   9.211   1.738  0.3047  0.1833 -0.2390
30936SOL    HW1 1776   7.726   9.247   1.650  0.0869  0.3917 -0.1351
30936SOL    HW2 1777   7.682   9.269   1.793  3.1059  2.0710  0.6264
30937SOL     OW 1778   4.983   8.534   1.821 -0.0492  0.0103  0.3462
30937SOL    HW1 1779   4.900   8.549   1.866 -1.0516 -0.8116 -1.1658
30937SOL    HW2 1780   4.978   8.586   1.741  0.2782 -1.1319 -0.4486
30938SOL     OW 1781   7.049   0.855   9.274  0.5694  0.0936  0.4189
30938SOL    HW1 1782   7.089   0.905   9.204  3.7239 -0.7566  1.4299
30938SOL    HW2 1783   6.971   0.905   9.298  1.5816  2.5374 -0.9859
30939SOL     OW 1784   7.506   5.675   8.350 -0.6494 -0.5304 -0.3006
30939SOL    HW1 1785   7.424   5.675   8.400 -1.2514 -2.0894 -1.1976
30939SOL    HW2 1786   7.481   5.703   8.262  0.2348  1.2778 -0.0122
30940SOL     OW 1787   5.153   1.767   7.449 -0.0113 -0.3570  0.3170
30940SOL    HW1 1788   5.081   1.824   7.475 -0.1832 -0.6792  0.5606
30940SOL    HW2 1789   5.135   1.747   7.357  1.3075  1.8505 -0.4979
30941SOL     OW 1790  11.707   7.160   3.207 -0.2553  0.5638  0.5679
30941SOL    HW1 1791  11.750   7.111   3.138 -0.8686  1.5499 -0.5410
30941SOL    HW2 1792  11.614   7.146   3.192 -0.4923 -2.2496  3.4337
30942SOL     OW 1793   3.270   7.568  10.201 -0.1615 -0.3429  0.1686
30942SOL    HW1 1794   3.185   7.545  10.238 -0.4003  0.2391 -0.0124
30942SOL    HW2 1795   3.262   7.547  10.108  0.1668 -1.0358  0.2864
30943SOL     OW 1796   1.624   2.320   2.168  0.1940  1.0444  0.3122
30943SOL    HW1 1797   1.590   2.237   2.135 -0.2116  1.6873 -0.9172
30943SOL    HW2 1798   1.562   2.346   2.237 -0.4623  1.0065 -0.2542
30944SOL     OW 1799   6.485   1.229   2.347 -0.4457  0.2513  0.0033
30944SOL    HW1 1800   6.444   1.218   2.432  0.6241  1.7824  0.7529
30944SOL    HW2 1801   6.412   1.254   2.289 -1.3346 -1.6825  0.2095
30945SOL     OW 1802   8.202  12.097   8.105 -0.0678 -0.5351 -0.1997
30945SOL    HW1 1803   8.186  12.077   8.012  1.6287  1.1885 -0.9377
30945SOL    HW2 1804   8.235  12.187   8.104  1.3426 -0.9727  1.9308
30946SOL     OW 1805   5.077  10.002   7.777 -0.4425  0.1376 -0.3628
30946SOL    HW1 1806   5.049   9.936   7.841 -1.9118 -0.7377 -1.8275
30946SOL    HW2 1807   5.173  10.001   7.781 -0.4912  0.5317  2.1973
30947SOL     OW 1808   2.832   2.165   2.345 -0.5299 -0.4119 -0.5906
30947SOL    HW1 1809   2.772   2.191   2.275 -0.5937  1.8203  0.2068
30947SOL    HW2 1810   2.775   2.154   2.421 -0.0618  1.0516  0.0067
30948SOL     OW 1811   3.424   8.626  11.696 -0.1690  0.5422 -0.3067
30948SOL    HW1 1812   3.355   8.693  11.695 -0.6528  0.0443 -0.4070
30948SOL    HW2 1813   3.431   8.600  11.788 -0.5780  0.1222 -0.3901
30949SOL     OW 1814   5.732   5.038   1.027  0.9337  0.2619 -0.0212
30949SOL    HW1 1815   5.700   5.009   1.112  1.3400  0.0700  0.0678
30949SOL    HW2 1816   5.657   5.031   0.969  0.8398 -0.2707  0.1648
30950SOL     OW 1817   4.039   4.788   6.796 -0.1994 -0.4569 -0.0170
30950SOL    HW1 1818   4.076   4.868   6.759  0.5777 -0.1559  1.3612
30950SOL    HW2 1819   3.975   4.819   6.860 -0.4562 -0.9524 -0.0306
30951SOL     OW 1820  12.009   0.836   7.034 -0.3870  0.1491  0.4928
30951SOL    HW1 1821  11.930   0.842   7.088  0.1215 -0.5250  1.3323
30951SOL    HW2 1822  12.035   0.927   7.019 -1.3729  0.3845  0.1062
30952SOL     OW 1823  12.441   6.487   7.725  0.0359 -0.0834 -0.0547
30952SOL    HW1 1824  12.444   6.530   7.640 -0.7295 -0.9943 -0.5512
30952SOL    HW2 1825  12.443   6.394   7.706 -2.8194 -0.4099  0.7367
30953SOL     OW 1826  11.985   7.003   5.964  0.4173  0.0081  0.5354
30953SOL    HW1 1827  11.927   7.079   5.965  1.4613  0.8413 -0.2580
30953SOL    HW2 1828  12.042   7.016   5.888  0.1057 -1.9706 -0.1082
30954SOL     OW 1829  11.416  11.161  11.445  0.4967  0.3316 -0.0014
30954SOL    HW1 1830  11.510  11.147  11.437  0.0097 -2.8494 -1.5552
30954SOL    HW2 1831  11.396  11.144  11.537  1.3529  0.5706  0.2349
30955SOL     OW 1832   3.359  11.064   7.014 -0.2690 -0.2509 -0.0164
30955SOL    HW1 1833   3.297  11.135   7.029  0.0488 -0.1621  0.9236
30955SOL    HW2 1834   3.358  11.012   7.094 -0.0391 -0.9604 -0.4563
30956SOL     OW 1835   2.526  11.468   8.870  0.3908  0.3035 -0.2320
30956SOL    HW1 1836   2.473  11.398   8.906  0.4682  0.7009  0.7028
30956SOL    HW2 1837   2.511  11.542   8.929  0.8434  0.8608 -0.7945
30957SOL     OW 1838  11.603   6.473   0.560  0.4327  0.0577 -0.3914
30957SOL    HW1 1839  11.579   6.443   0.647 -1.3754 -0.4355 -1.0123
30957SOL    HW2 1840  11.642   6.559   0.573 -1.2501  0.6759  0.7698
30958SOL     OW 1841   3.430   9.916  10.060  0.6682  0.3082  0.1432
30958SOL    HW1 1842   3.482   9.853  10.110 -1.0554 -0.7377  0.7037
30958SOL    HW2 1843   3.386   9.969  10.126  0.3786  0.6362 -0.3101
30959SOL     OW 1844  11.327   6.684   6.556 -0.1668 -0.3359  0.1647
30959SOL    HW1 1845  11.260   6.621   6.580 -0.5706 -0.1927 -0.5799
30959SOL    HW2 1846  11.288   6.736   6.486  0.1312  0.7800  0.7919
30960SOL     OW 1847   2.760   3.883   4.281  0.0797 -0.1521 -0.0797
30960SOL    HW1 1848   2.784   3.975   4.290  1.0247 -0.3186 -0.7434
30960SOL    HW2 1849   2.680   3.874   4.333 -0.7211  1.3063 -1.0069
30961SOL     OW 1850   8.845   1.597  10.334 -0.4039 -0.0923  0.3638
30961SOL    HW1 1851   8.796   1.625  10.257 -2.3693 -0.3392  1.4679
30961SOL    HW2 1852   8.789   1.620  10.408  0.8397 -1.0581  1.6550
30962SOL     OW 1853  10.840   4.732   5.934 -0.3564  0.2020 -0.0228
30962SOL    HW1 1854  10.930   4.701   5.942 -0.3271 -0.2965 -1.9153
30962SOL    HW2 1855  10.790   4.654   5.911 -0.7175  1.0369 -2.2326
30963SOL     OW 1856   0.147   5.197  12.216  0.2085 -0.1105 -0.4733
30963SOL    HW1 1857   0.126   5.264  12.151 -1.8759  1.4741  1.6581
30963SOL    HW2 1858   0.210   5.238  12.274 -1.8596  0.5337  1.4543
30964SOL     OW 1859   9.588   0.161   0.939 -0.4459  0.0175 -0.1022
30964SOL    HW1 1860   9.640   0.150   0.860 -0.0976 -0.1001  0.1401
30964SOL    HW2 1861   9.548   0.247   0.930 -1.5292 -0.5534 -1.0567
30965SOL     OW 1862  10.655  12.262   4.273 -0.1825  0.2094 -0.0192
30965SOL    HW1 1863  10.622  12.197   4.335  0.6666  0.0557  0.2901
30965SOL    HW2 1864  10.608  12.342   4.295 -0.4837 -0.0437  0.2791
30966SOL     OW 1865   3.815   5.593   5.981  0.0452  0.0849  0.0490
30966SOL    HW1 1866   3.845   5.642   5.904  0.9649 -0.4306  0.0695
30966SOL    HW2 1867   3.796   5.660   6.046 -1.0237  0.5534 -0.7068
30967SOL     OW 1868   3.937   8.315   6.211  0.0646  0.1593  0.1041
30967SOL    HW1 1869   3.909   8.324   6.303 -0.2163  2.7937 -0.1633
30967SOL    HW2 1870   3.855   8.311   6.162  0.1553  1.6392 -0.2096
30968SOL     OW 1871   6.937  11.337  11.809  0.1765 -0.5917  0.3574
30968SOL    HW1 1872   6.853  11.357  11.851  0.1859  0.1888  0.0098
30968SOL    HW2 1873   7.001  11.388  11.857  0.1625  0.4583 -0.7044
30969SOL     OW 1874   2.511   9.174   5.484  0.6793  0.4463 -0.3214
30969SOL    HW1 1875   2.455   9.166   5.561  1.1493 -0.7988 -0.0726
30969SOL    HW2 1876   2.494   9.262   5.450  0.3266  0.9470  1.0887
30970SOL     OW 1877  11.311   0.591  11.921 -0.3948 -0.3545  0.3746
30970SOL    HW1 1878  11.253   0.533  11.970 -0.0857 -0.0337  1.1447
30970SOL    HW2 1879  11.291   0.679  11.955 -0.0335 -0.1517  0.0660
30971SOL     OW 1880   2.976   5.497  11.240  0.0787  0.1902 -0.6196
30971SOL    HW1 1881   3.049   5.474  11.182  0.5511  0.3983 -0.1163
30971SOL    HW2 1882   2.992   5.447  11.319  1.0766  2.0996  0.4674
30972SOL     OW 1883   3.317   3.801   7.067  0.0037  0.1924  0.4816
30972SOL    HW1 1884   3.367   3.775   7.145 -1.8939  0.9633  2.0307
30972SOL    HW2 1885   3.322   3.897   7.067 -0.7999  0.2420  0.2154
30973SOL     OW 1886  10.833   9.631   0.816 -0.2258  0.1344  0.3635
30973SOL    HW1 1887  10.845   9.545   0.774 -0.3339  0.5687 -0.5934
30973SOL    HW2 1888  10.852   9.616   0.908 -3.0694 -1.6046  0.7797
30974SOL     OW 1889   2.708   4.119   5.983  0.3435  0.5266  0.1084
30974SOL    HW1 1890   2.713   4.087   6.073  0.1202 -0.6935 -0.3073
30974SOL    HW2 1891   2.682   4.211   5.992 -0.8195  0.1044  1.2329
30975SOL     OW 1892   7.002  10.591   0.466  0.3368  0.4999 -0.2128
30975SOL    HW1 1893   7.046  10.631   0.541  2.2809  0.0445 -1.0642
30975SOL    HW2 1894   7.012  10.654   0.395  2.4444 -0.9090 -1.2627
30976SOL     OW 1895   7.530   0.923   0.037 -0.4362  0.1877  0.2041
30976SOL    HW1 1896   7.534   0.931   0.132 -1.5179  0.9796  0.1998
30976SOL    HW2 1897   7.618   0.897   0.011  0.2122  1.2186  1.2991
30977SOL     OW 1898   9.704   3.505   5.555 -0.4999 -0.6163 -0.2556
30977SOL    HW1 1899   9.664   3.437   5.609 -0.1080  0.0957  0.9672
30977SOL    HW2 1900   9.766   3.549   5.613  1.3347 -1.0108 -1.7965
30978SOL     OW 1901   5.706  11.898   4.975  0.6344  0.0462  0.3070
30978SOL    HW1 1902   5.627  11.948   4.955  0.4314  0.9792  3.0401
30978SOL    HW2 1903   5.776  11.947   4.933 -0.0517 -0.0760 -1.0553
30979SOL     OW 1904   5.560   2.789   5.229  0.0736  0.3967  0.1757
30979SOL    HW1 1905   5.522   2.814   5.144  1.8782  1.2759 -0.4232
30979SOL    HW2 1906   5.631   2.851   5.242  4.0679 -3.4611 -0.7782
30980SOL     OW 1907  10.113   0.413   2.263  0.1481  0.7927 -0.0185
30980SOL    HW1 1908  10.105   0.508   2.254 -0.1478  0.9007  1.3148
30980SOL    HW2 1909  10.093   0.380   2.175 -0.4640  1.9144 -0.3262
30981SOL     OW 1910   8.722   0.853   0.134  0.0186  0.3475 -0.3799
30981SOL    HW1 1911   8.750   0.918   0.070  1.5524 -0.6309 -0.7641
30981SOL    HW2 1912   8.718   0.900   0.217  2.8900  0.5955 -0.2995
30982SOL     OW 1913   6.471  10.209   6.685  0.5780  0.8322  0.0767
30982SOL    HW1 1914   6.549  10.211   6.741 -0.2949 -1.3984  1.5139
30982SOL    HW2 1915   6.409  10.267   6.729  0.2884 -0.0359  0.8483
30983SOL     OW 1916   4.245  12.084   8.654  0.1979 -0.0067  0.0981
30983SOL    HW1 1917   4.172  12.052   8.601 -0.2650  0.0878  0.6673
30983SOL    HW2 1918   4.224  12.055   8.743  0.7775  0.1576  0.2884
30984SOL     OW 1919   0.493   7.776   9.605  0.4867  0.3271  0.1186
30984SOL    HW1 1920   0.477   7.734   9.689  3.0094  1.7142  1.4015
30984SOL    HW2 1921   0.410   7.819   9.584 -0.4843 -0.8353  1.3885
30985SOL     OW 1922   3.550   8.894   4.748 -0.3081 -0.1748 -0.2791
30985SOL    HW1 1923   3.637   8.882   4.710 -0.0657 -2.5568  0.9029
30985SOL    HW2 1924   3.513   8.806   4.754 -1.5838  0.4307  2.0368
30986SOL     OW 1925   5.549   5.011   5.762  0.3357 -0.3262  0.2364
30986SOL    HW1 1926   5.491   5.042   5.692  0.5743 -2.2198 -0.8427
30986SOL    HW2 1927   5.637   5.020   5.727  0.5968  0.3704  1.0092
30987SOL     OW 1928   0.401  12.071   2.763  0.1406 -0.4735  0.2566
30987SOL    HW1 1929   0.417  12.129   2.838  1.8605 -0.0141 -0.4192
30987SOL    HW2 1930   0.343  12.122   2.707  0.3686 -0.0398  0.4029
30988SOL     OW 1931   7.671   1.352   8.050  0.3711 -0.4939  0.1272
30988SOL    HW1 1932   7.707   1.270   8.016  0.2753 -0.3556 -0.3177
30988SOL    HW2 1933   7.593   1.368   7.997  0.0250 -0.4483  0.6424
30989SOL     OW 1934   0.078   0.105   1.265 -0.0989 -0.7033  0.5693
30989SOL    HW1 1935   0.078   0.094   1.170  1.6291  0.5122  0.3838
30989SOL    HW2 1936   0.002   0.161   1.283  0.2067 -0.0097 -0.2458
30990SOL     OW 1937   8.725   7.416   9.955 -0.0479  0.0891  0.1918
30990SOL    HW1 1938   8.739   7.486   9.892  0.4585 -0.6243 -0.4986
30990SOL    HW2 1939   8.813   7.395   9.988 -0.4923  2.0560  2.9219
30991SOL     OW 1940  11.786  11.416   1.981  0.4949  0.1090 -0.3474
30991SOL    HW1 1941  11.868  11.401   2.029 -0.6555 -0.7560  1.4858
30991SOL    HW2 1942  11.755  11.501   2.013  0.3511  0.1241 -0.5248
30992SOL     OW 1943  11.931  12.049   0.445 -0.8631 -0.5800  0.2118
30992SOL    HW1 1944  11.871  12.066   0.518  0.0778 -0.7407  1.0393
30992SOL    HW2 1945  11.918  12.124   0.386 -4.0433 -2.0300 -1.1618
30993SOL     OW 1946   1.826   4.263   6.003 -0.3750 -0.2351  0.6209
30993SOL    HW1 1947   1.899   4.303   6.050 -1.4644  1.7583  0.7111
30993SOL    HW2 1948   1.824   4.309   5.919  0.4501 -2.5342 -0.7695
30994SOL     OW 1949  10.038   2.017   4.622  0.1083  0.2871 -1.0508
30994SOL    HW1 1950  10.097   2.000   4.696 -0.0637  0.6823 -0.8183
30994SOL    HW2 1951  10.096   2.035   4.549  0.2810 -0.0206 -0.9918
30995SOL     OW 1952   0.466   1.846   7.030 -0.5407 -0.1838 -0.2856
30995SOL    HW1 1953   0.533   1.896   7.076 -1.5713  0.4352  0.5896
30995SOL    HW2 1954   0.397   1.910   7.010 -0.2826 -0.5023 -2.4270
30996SOL     OW 1955   4.334   9.724   8.859 -0.7812  0.1804  0.0285
30996SOL    HW1 1956   4.287   9.774   8.793 -1.9724 -1.2899 -0.3003
30996SOL    HW2 1957   4.316   9.769   8.941 -1.3650  0.5927 -0.3187
30997SOL     OW 1958   8.464   3.287   8.646  0.1716 -0.3234 -0.3251
30997SOL    HW1 1959   8.489   3.329   8.563 -2.0134  2.2167  0.1961
30997SOL    HW2 1960   8.539   3.301   8.703  0.1940  1.3991 -0.7168
30998SOL     OW 1961   6.505   0.211  10.294 -0.0472  0.2001  0.4503
30998SOL    HW1 1962   6.435   0.275  10.309  0.1177  0.6087 -0.4701
30998SOL    HW2 1963   6.490   0.181  10.204  0.4865 -0.3052  0.5282
30999SOL     OW 1964   7.179   8.330   2.878  0.3114  0.0774  0.0211
30999SOL    HW1 1965   7.085   8.321   2.862 -0.0317 -0.0767  1.9674
30999SOL    HW2 1966   7.186   8.384   2.957  1.9062  0.8538 -0.5823
31000SOL     OW 1967  11.948   4.717   4.481  0.3729  1.0467  0.1854
31000SOL    HW1 1968  11.868   4.751   4.441  1.6411  1.4068 -2.2530
31000SOL    HW2 1969  11.977   4.648   4.421  1.6071  0.5513  1.3067
31001SOL     OW 1970  11.287   8.802   2.852  0.3314 -0.6588  0.3039
31001SOL    HW1 1971  11.376   8.819   2.883 -0.4300  2.7621  0.9282
31001SOL    HW2 1972  11.298   8.786   2.758  1.5037  1.5776 -0.0041
31002SOL     OW 1973   2.438   7.917  12.058 -0.6221 -0.1926 -0.7594
31002SOL    HW1 1974   2.379   7.954  11.993 -0.4368 -1.1743 -1.5071
31002SOL    HW2 1975   2.394   7.837  12.089  0.7934 -1.6319 -2.2298
31003SOL     OW 1976   8.399   6.459   2.757  0.6182  0.3771  0.1569
31003SOL    HW1 1977   8.401   6.553   2.744  0.7352  0.3138 -0.3063
31003SOL    HW2 1978   8.479   6.427   2.715 -0.2199 -0.0954 -1.1481
31004SOL     OW 1979   8.210   5.594  11.379 -0.5393 -0.1964  0.1922
31004SOL    HW1 1980   8.172   5.514  11.343 -1.2276  0.2659 -0.1258
31004SOL    HW2 1981   8.140   5.658  11.374  0.8900  1.3357 -2.4585
31005SOL     OW 1982   5.079   8.189   1.812 -0.1399 -0.3597 -0.4638
31005SOL    HW1 1983   5.147   8.136   1.854  0.2438 -0.7883 -1.5916
31005SOL    HW2 1984   5.013   8.201   1.880  1.1717  0.2843  0.7406
31006SOL     OW 1985  10.032   7.632   9.023  0.2765  0.0330 -0.1776
31006SOL    HW1 1986  10.071   7.549   8.992  0.4494 -0.4964  1.3648
31006SOL    HW2 1987  10.052   7.633   9.117 -0.6149  1.3516  0.0082
31007SOL     OW 1988   6.020   5.410  10.911 -0.2111  0.4229 -0.4774
31007SOL    HW1 1989   6.014   5.461  10.992 -0.2667 -0.7516  0.2820
31007SOL    HW2 1990   6.023   5.319  10.941 -0.5157 -0.0393 -1.8187
31008SOL     OW 1991   3.876   4.897   6.982  0.2307 -0.0396 -0.2473
31008SOL    HW1 1992   3.868   4.984   6.942 -1.1952 -0.9143 -2.0375
31008SOL    HW2 1993   3.786   4.867   6.994  0.6872 -0.9441  1.1497
31009SOL     OW 1994  10.827  10.207   6.701  0.4907 -0.0716  0.1108
31009SOL    HW1 1995  10.829  10.225   6.795 -0.0425  0.5906  0.0129
31009SOL    HW2 1996  10.830  10.112   6.694  1.9488 -0.0843  0.7393
31010SOL     OW 1997   9.066   0.520   4.923 -0.3529 -0.2431 -0.2073
31010SOL    HW1 1998   9.117   0.581   4.869 -0.9070  0.2073 -0.2321
31010SOL    HW2 1999   8.997   0.489   4.864  1.4865 -3.0490 -1.0819
31011SOL     OW 2000   1.321   4.721  11.373 -0.4203 -0.5980 -0.5399
31011SOL    HW1 2001   1.380   4.654  11.336 -2.2067 -1.7892 -1.3748
31011SOL    HW2 2002   1.233   4.688  11.355 -1.4059  0.2338  2.2150
31012SOL     OW 2003   8.052   6.142   1.860 -0.3190 -0.5277 -0.1775
31012SOL    HW1 2004   8.121   6.125   1.924 -1.6441  2.0820  2.2017
31012SOL    HW2 2005   7.977   6.090   1.892 -0.5791 -0.3055 -0.4212
31013SOL     OW 2006  11.426   4.909   7.723 -0.1072  1.0115 -0.4281
31013SOL    HW1 2007  11.361   4.840   7.710 -1.5291  1.9801  1.1032
31013SOL    HW2 2008  11.443   4.942   7.635 -1.9513  0.9399 -0.8620
31014SOL     OW 2009   0.969   1.700   7.794 -0.1684  0.5100 -0.3086
31014SOL    HW1 2010   0.958   1.794   7.781 -0.6043  0.8987  2.2398
31014SOL    HW2 2011   0.933   1.660   7.716  0.2155  2.4560 -1.5479
31015SOL     OW 2012   9.902  11.986  10.782  0.0259 -0.5725  0.3246
31015SOL    HW1 2013   9.841  12.054  10.752  0.3719 -1.0170 -1.4746
31015SOL    HW2 2014   9.854  11.941  10.851 -1.0980  0.0549 -0.0160
31016SOL     OW 2015   7.695  10.973  10.593 -0.2212 -0.6239 -0.4700
31016SOL    HW1 2016   7.718  11.051  10.542  0.0290 -0.7376 -0.5371
31016SOL    HW2 2017   7.756  10.906  10.562  0.7327 -0.3850  0.8036
31017SOL     OW 2018   9.554   3.932   2.068 -0.1681  0.1729 -0.3165
31017SOL    HW1 2019   9.588   3.960   1.983 -0.2578  0.5742 -0.2240
31017SOL    HW2 2020   9.555   3.836   2.064 -0.5972  0.1852 -0.9387
31018SOL     OW 2021   1.326   0.708   1.747 -0.2115  0.1302 -0.0872
31018SOL    HW1 2022   1.347   0.784   1.694  2.4597 -0.2131  0.3602
31018SOL    HW2 2023   1.393   0.643   1.725 -1.4375 -1.5011  0.7408
31019SOL     OW 2024  11.573   5.548   2.691  0.2063 -0.1937 -0.3283
31019SOL    HW1 2025  11.481   5.569   2.708  0.4160  0.2634  0.3059
31019SOL    HW2 2026  11.589   5.578   2.602  0.6405  3.0485  0.7124
31020SOL     OW 2027   2.659  11.827   8.117  0.2823 -0.5654 -0.7079
31020SOL    HW1 2028   2.620  11.859   8.036  0.6414 -0.1804 -0.7361
31020SOL    HW2 2029   2.585  11.802   8.172 -0.1689  2.1988  0.1009
31021SOL     OW 2030   2.598  10.249  11.137 -0.4470  0.1925 -0.4932
31021SOL    HW1 2031   2.673  10.192  11.155 -1.4838 -1.0040  0.1401
31021SOL    HW2 2032   2.525  10.189  11.123 -1.7700  1.3647  1.0245
31022SOL     OW 2033   7.523  12.052  10.411 -0.0068 -0.0504  0.5042
31022SOL    HW1 2034   7.521  12.068  10.317 -0.5882 -1.8709  0.1748
31022SOL    HW2 2035   7.576  12.124  10.446  1.3405 -0.0507 -1.3668
31023SOL     OW 2036   4.070   6.379  10.783 -0.0979 -0.0751 -0.1763
31023SOL    HW1 2037   4.150   6.420  10.815  0.2042 -0.5015 -0.3684
31023SOL    HW2 2038   4.065   6.407  10.691  0.1384 -0.5065 -0.3229
31024SOL     OW 2039   6.491   8.123   4.389 -0.2205  0.5032  0.1827
31024SOL    HW1 2040   6.583   8.105   4.372 -0.0864 -0.0145  1.3766
31024SOL    HW2 2041   6.446   8.099   4.308  0.9448  3.4484 -1.5106
31025SOL     OW 2042   5.420   3.138   5.132  0.6399 -0.2583  0.2215
31025SOL    HW1 2043   5.400   3.201   5.200  0.5438 -0.5659  0.4799
31025SOL    HW2 2044   5.509   3.158   5.105 -0.5968  2.5696 -2.4566
31026SOL     OW 2045   1.681   6.078   3.408  0.2226  0.1459 -0.0957
31026SOL    HW1 2046   1.696   6.172   3.391  1.4667  0.1430  0.8156
31026SOL    HW2 2047   1.761   6.050   3.453 -1.0916 -0.8343  1.7301
31027SOL     OW 2048  10.041  11.524   6.121  0.3399 -0.3248  0.1412
31027SOL    HW1 2049   9.976  11.547   6.187  0.3118  3.3179 -0.9661
31027SOL    HW2 2050  10.120  11.570   6.148  0.6973  0.1791 -1.6278
31028SOL     OW 2051   1.803   7.476   5.985  0.4470  0.0609 -0.4885
31028SOL    HW1 2052   1.763   7.444   6.066 -0.6008  1.7201 -0.3015
31028SOL    HW2 2053   1.811   7.570   5.998  1.3302  0.2050 -1.8797
31029SOL     OW 2054   6.536   9.801  10.469  0.2905  0.0675  0.2177
31029SOL    HW1 2055   6.605   9.743  10.502 -1.1504  0.3155  4.2846
31029SOL    HW2 2056   6.461   9.743  10.457  0.3592  0.2647 -1.4329
31030SOL     OW 2057   7.545   3.107   4.457  0.2766  0.2731  0.3186
31030SOL    HW1 2058   7.542   3.021   4.417 -0.2096  0.7766 -0.7823
31030SOL    HW2 2059   7.578   3.092   4.546  1.3148 -0.8871 -0.2404
31031SOL     OW 2060  12.430   3.008   8.261  0.1421 -0.2573 -0.0779
31031SOL    HW1 2061  12.523   3.029   8.273  0.1408 -0.4208  0.2053
31031SOL    HW2 2062  12.384   3.069   8.319  0.0505  0.0495 -0.4629
31032SOL     OW 2063   8.551   5.709   2.112  0.0666 -0.8535 -0.1546
31032SOL    HW1 2064   8.578   5.800   2.106  0.5722 -0.9402  0.6779
31032SOL    HW2 2065   8.456   5.712   2.101 -0.4383  0.2104  3.3103
31033SOL     OW 2066   1.092   6.625  10.194 -0.2767 -0.1455  0.0105
31033SOL    HW1 2067   1.046   6.568  10.131 -0.3938 -0.2925  0.2267
31033SOL    HW2 2068   1.030   6.634  10.266  0.4073 -1.1153  0.7317
31034SOL     OW 2069   2.564   2.056   0.498 -0.1277 -0.0295  0.7144
31034SOL    HW1 2070   2.561   1.963   0.521 -1.6800 -0.1743 -0.0044
31034SOL    HW2 2071   2.586   2.057   0.405 -1.3361  0.2482  0.4133
31035SOL     OW 2072   8.139   9.708   6.462  0.1556  0.8256 -0.0774
31035SOL    HW1 2073   8.146   9.621   6.423 -1.1148  0.8038 -0.3078
31035SOL    HW2 2074   8.228   9.744   6.457  0.7405 -0.5111  0.1850
31036SOL     OW 2075   9.646   5.976   2.378 -0.2968  0.3026  0.4585
31036SOL    HW1 2076   9.677   5.980   2.468  0.4461 -1.6365  0.3292
31036SOL    HW2 2077   9.719   5.938   2.329 -1.5261 -0.8633 -0.5348
31037SOL     OW 2078  11.269   2.413   6.306 -0.1432  0.0816 -0.6236
31037SOL    HW1 2079  11.347   2.400   6.359 -0.3916 -0.3444 -0.3555
31037SOL    HW2 2080  11.202   2.358   6.347 -0.2961 -0.3903 -1.4684
31038SOL     OW 2081   2.100  11.829   2.042 -0.3606  0.5830  0.2329
31038SOL    HW1 2082   2.081  11.769   2.115 -1.6293  2.2069  1.3241
31038SOL    HW2 2083   2.193  11.849   2.051 -0.3838  0.3489  1.1253
31039SOL     OW 2084  12.042   1.771   3.590 -0.0673 -0.1724 -0.3261
31039SOL    HW1 2085  12.138   1.770   3.598  0.1165  0.1548 -2.0896
31039SOL    HW2 2086  12.021   1.861   3.568 -0.6854 -0.4504 -0.9119
31040SOL     OW 2087   5.350  10.095   3.781  0.0635  0.6153 -0.2169
31040SOL    HW1 2088   5.326  10.002   3.784  0.9344  0.3889 -0.1780
31040SOL    HW2 2089   5.266  10.141   3.778 -0.3910 -0.2398 -2.8337
31041SOL     OW 2090   4.891   1.363   7.377  0.3027 -0.0776 -0.0823
31041SOL    HW1 2091   4.911   1.375   7.470  1.6213 -0.2992 -0.3176
31041SOL    HW2 2092   4.882   1.269   7.366  1.2954 -0.1469 -0.3847
31042SOL     OW 2093   7.975   4.107  11.943 -0.6452  0.0730 -0.3963
31042SOL    HW1 2094   8.048   4.119  12.003 -1.6298  0.8162  0.6879
31042SOL    HW2 2095   7.923   4.037  11.982 -0.7362 -0.1768 -0.9535
31043SOL     OW 2096  11.837   8.400   5.803 -0.4527  0.2828 -0.4997
31043SOL    HW1 2097  11.779   8.397   5.879  0.7644 -3.2304  0.5076
31043SOL    HW2 2098  11.897   8.473   5.822  0.8732 -1.4420  2.9280
31044SOL     OW 2099   3.619   7.697   4.482 -0.0325  0.4120  0.1781
31044SOL    HW1 2100   3.618   7.702   4.578  2.0500 -0.4218  0.3009
31044SOL    HW2 2101   3.685   7.631   4.462 -0.0962  0.8891 -1.8635
31045SOL     OW 2102   9.113   0.180   0.478 -0.0175  0.5303 -0.0435
31045SOL    HW1 2103   9.182   0.115   0.485 -1.3513 -0.9040  0.5350
31045SOL    HW2 2104   9.077   0.187   0.567 -1.7769 -0.1261 -0.6606
31046SOL     OW 2105   1.617   9.185   0.900 -0.5780 -0.0976  0.1617
31046SOL    HW1 2106   1.592   9.242   0.827 -1.0521  0.1752  0.5348
31046SOL    HW2 2107   1.614   9.241   0.977 -1.0145 -0.6169  0.5260
31047SOL     OW 2108   5.256   5.146   2.100 -0.1787 -0.3539 -0.2988
31047SOL    HW1 2109   5.177   5.093   2.088  0.0940 -0.7950 -0.1509
31047SOL    HW2 2110   5.313   5.121   2.028 -0.1831 -0.0025 -0.4298
31048SOL     OW 2111   7.153   2.049   4.555 -0.1392  0.0119  0.3436
31048SOL    HW1 2112   7.162   2.090   4.469  3.1424 -0.8074  0.1522
31048SOL    HW2 2113   7.198   2.109   4.615  0.9653 -1.2055  0.7819
31049SOL     OW 2114   6.884   5.436   7.791  0.1583 -0.1898 -0.2392
31049SOL    HW1 2115   6.863   5.500   7.723  2.3496 -1.1036 -1.9239
31049SOL    HW2 2116   6.924   5.487   7.861 -1.3031  0.6586  0.0182
31050SOL     OW 2117   8.610   2.585   1.460 -0.6513 -0.1993 -0.7123
31050SOL    HW1 2118   8.638   2.493   1.462 -0.5949 -0.1667  0.2877
31050SOL    HW2 2119   8.685   2.634   1.493 -1.4770 -0.0200  0.9828
31051SOL     OW 2120   8.857   9.623   8.864  0.0550  0.1204  0.4751
31051SOL    HW1 2121   8.947   9.654   8.871  0.1054  0.2880 -0.6586
31051SOL    HW2 2122   8.865   9.528   8.857 -0.0770 -0.1993  3.5833
31052SOL     OW 2123   3.886   9.207   9.724 -0.2560  0.2246 -0.3917
31052SOL    HW1 2124   3.836   9.139   9.769 -2.4742  0.9018 -1.6429
31052SOL    HW2 2125   3.894   9.277   9.788  0.4070 -0.4570  0.2948
31053SOL     OW 2126   0.823   8.908   4.667 -0.3652 -0.2554  0.4498
31053SOL    HW1 2127   0.838   8.993   4.707  1.8970 -0.7638  0.8300
31053SOL    HW2 2128   0.910   8.880   4.637 -0.4649 -3.5705  2.7389
31054SOL     OW 2129  10.654   0.697   7.026  0.1510  0.6004  0.3479
31054SOL    HW1 2130  10.674   0.674   7.116 -0.8146 -0.6095  0.2773
31054SOL    HW2 2131  10.731   0.745   6.996  0.9168  0.1307  1.4964
31055SOL     OW 2132  10.795   9.434   4.190  0.0352 -0.9469 -0.1077
31055SOL    HW1 2133  10.781   9.465   4.101  0.1687 -2.2941 -0.6263
31055SOL    HW2 2134  10.889   9.413   4.193  0.5342  1.1120  1.0538
31056SOL     OW 2135   8.315   3.730   2.934 -0.2099  0.1592 -0.1217
31056SOL    HW1 2136   8.290   3.709   2.845  0.8347 -0.1548 -0.3516
31056SOL    HW2 2137   8.352   3.649   2.969 -1.6424 -0.0484  0.9855
31057SOL     OW 2138  11.103   1.057   6.513  0.4571  0.3650  0.2418
31057SOL    HW1 2139  11.010   1.034   6.509  0.7883 -1.5306  2.2270
31057SOL    HW2 2140  11.145   0.998   6.451  0.2817  2.0305 -1.5715
31058SOL     OW 2141   5.009   1.096   2.470 -0.3375  0.4873  0.7013
31058SOL    HW1 2142   4.928   1.077   2.423 -0.7666  2.5590  0.5114
31058SOL    HW2 2143   5.036   1.182   2.438  4.1949 -1.6300 -2.4060
31059SOL     OW 2144   3.134   3.341   9.426  0.1480  0.5458  0.2286
31059SOL    HW1 2145   3.105   3.275   9.489 -0.3554  0.6049  0.0716
31059SOL    HW2 2146   3.171   3.411   9.479  0.1889  0.3719  0.4291
31060SOL     OW 2147   8.027   9.017  10.754  0.1406  0.4733 -0.5111
31060SOL    HW1 2148   8.055   8.977  10.671 -1.1112  0.2231 -0.8404
31060SOL    HW2 2149   8.082   8.976  10.820  0.3228 -0.2414 -1.0913
31061SOL     OW 2150  10.825   0.889   0.834  0.0589 -0.8483  0.6388
31061SOL    HW1 2151  10.753   0.867   0.776  1.6405 -0.5646 -1.5829
31061SOL    HW2 2152  10.806   0.978   0.864  0.7798  0.3580 -2.2113
31062SOL     OW 2153   0.482   5.377   4.158  0.3084  0.2462  0.3760
31062SOL    HW1 2154   0.409   5.406   4.212  0.0042 -1.3971  0.8909
31062SOL    HW2 2155   0.451   5.388   4.068 -1.0166 -1.4110  0.5835
31063SOL     OW 2156   4.212   5.312   5.460 -0.0884 -0.2205 -0.0879
31063SOL    HW1 2157   4.125   5.330   5.425 -0.7361 -0.9024  1.0700
31063SOL    HW2 2158   4.204   5.226   5.500  1.0639 -0.2009  0.2251
31064SOL     OW 2159   0.404   1.261   0.074 -0.4295 -0.4822  0.0610
31064SOL    HW1 2160   0.472   1.194   0.068 -2.0052 -2.2252  0.5602
31064SOL    HW2 2161   0.366   1.265  -0.014 -0.4134 -0.3307  0.0606
31065SOL     OW 2162   1.798   2.997   0.449  0.5845  0.2975 -0.4296
31065SOL    HW1 2163   1.774   3.010   0.541  0.6644  0.1903 -0.3928
31065SOL    HW2 2164   1.741   3.057   0.400  0.7126  0.5356 -0.2899
31066SOL     OW 2165   0.295   4.539   6.148  0.1821  0.4123  0.2869
31066SOL    HW1 2166   0.339   4.537   6.234  1.2611 -1.2246 -0.2583
31066SOL    HW2 2167   0.205   4.511   6.167  0.6232 -0.7492  0.8121
31067SOL     OW 2168   3.458   2.748   4.576  0.2038  0.3697 -0.2006
31067SOL    HW1 2169   3.414   2.721   4.495 -0.2533  2.7586 -0.8272
31067SOL    HW2 2170   3.387   2.770   4.636  0.4869  2.2834 -0.5096
31068SOL     OW 2171   5.384  11.228   5.317 -0.1900  0.3336 -0.0629
31068SOL    HW1 2172   5.290  11.213   5.326 -0.3686  1.4063 -0.0283
31068SOL    HW2 2173   5.391  11.314   5.277  0.7583 -0.4577 -1.7413
31069SOL     OW 2174  10.703   0.576   5.649  0.2113  0.5687  0.1348
31069SOL    HW1 2175  10.739   0.562   5.562 -0.5962 -0.2207 -0.0902
31069SOL    HW2 2176  10.680   0.489   5.680 -0.3594  0.9283  0.7556
31070SOL     OW 2177   9.247  10.071  10.881 -0.0890  0.0150  0.0600
31070SOL    HW1 2178   9.209  10.031  10.803 -1.0961  0.3831  0.3470
31070SOL    HW2 2179   9.234  10.165  10.869 -0.6912  0.0406  0.8938
31071SOL     OW 2180   4.483  12.096   7.890  0.0860  0.4043 -0.1262
31071SOL    HW1 2181   4.547  12.024   7.894 -1.3537 -0.9407 -0.1163
31071SOL    HW2 2182   4.452  12.105   7.980  2.0305  2.8025  0.3952
31072SOL     OW 2183   6.868   7.778   0.590 -0.9329  0.3837 -0.2652
31072SOL    HW1 2184   6.889   7.692   0.628  1.4579  0.5654 -1.0397
31072SOL    HW2 2185   6.888   7.840   0.660  0.3391  0.4887 -0.6954
31073SOL     OW 2186   7.742  11.645   5.937 -0.5549 -0.6476  0.2333
31073SOL    HW1 2187   7.789  11.585   5.994 -0.8679 -1.6437 -0.5218
31073SOL    HW2 2188   7.789  11.642   5.854 -1.3657 -0.9232 -0.2347
31074SOL     OW 2189   2.634   2.744  10.245  0.1725 -0.2361 -0.3151
31074SOL    HW1 2190   2.539   2.741  10.228 -0.0238 -3.9650  0.4966
31074SOL    HW2 2191   2.673   2.735  10.158 -0.3007 -0.8148 -0.4776
31075SOL     OW 2192  10.360   5.894   8.485 -0.1428 -0.5120  0.0880
31075SOL    HW1 2193  10.350   5.989   8.480  2.8383 -0.0570  0.9133
31075SOL    HW2 2194  10.418   5.872   8.412 -0.2986 -1.6354  0.2850
31076SOL     OW 2195   9.000   2.619   2.832  0.3609  0.3587  0.6366
31076SOL    HW1 2196   9.063   2.579   2.771  0.5174 -0.0059  1.0315
31076SOL    HW2 2197   9.027   2.587   2.918 -1.7267 -1.6964  0.6145
31077SOL     OW 2198   4.599   8.167   7.201  0.0428 -0.3790 -0.5308
31077SOL    HW1 2199   4.574   8.167   7.294  0.7620 -1.4646 -0.3290
31077SOL    HW2 2200   4.540   8.231   7.161  1.8314  2.5519  1.2150
31078SOL     OW 2201   0.275   4.180   2.103  0.1918  0.2133  0.1002
31078SOL    HW1 2202   0.189   4.143   2.124 -1.1761  2.2151 -1.6240
31078SOL    HW2 2203   0.278   4.263   2.152  1.5902 -0.2498  0.8778
31079SOL     OW 2204   9.367   2.457   1.221  0.1024 -0.0895 -0.6884
31079SOL    HW1 2205   9.308   2.473   1.148  0.6537  2.5853 -0.6685
31079SOL    HW2 2206   9.321   2.490   1.297  0.2703 -1.1537 -0.1125
31080SOL     OW 2207   3.310   6.862  10.575 -0.1317 -0.1938  0.2565
31080SOL    HW1 2208   3.276   6.949  10.552 -0.9828 -0.5861  0.0022
31080SOL    HW2 2209   3.244   6.801  10.544  0.7782 -0.9898 -0.1868
31081SOL     OW 2210   5.432   7.338   6.135  0.2251 -0.0689  0.7456
31081SOL    HW1 2211   5.431   7.411   6.197 -1.1982  0.5304  0.0610
31081SOL    HW2 2212   5.463   7.376   6.053 -1.8189  0.1664  0.0058
31082SOL     OW 2213   7.260   0.040   3.804 -0.3411  0.0992 -0.6461
31082SOL    HW1 2214   7.227  -0.029   3.747  0.4658 -0.0643 -0.9246
31082SOL    HW2 2215   7.272  -0.002   3.889 -0.7586  0.1390 -0.5650
31083SOL     OW 2216   5.698   3.610  12.333 -0.2660  0.1747 -0.4037
31083SOL    HW1 2217   5.691   3.526  12.288  0.0445 -1.4136  2.3134
31083SOL    HW2 2218   5.792   3.627  12.337 -0.3267  0.6410 -0.9197
31084SOL     OW 2219   8.328  12.441   3.432 -0.4496 -0.1485 -0.5417
31084SOL    HW1 2220   8.324  12.505   3.361  0.7580 -1.6138 -1.9962
31084SOL    HW2 2221   8.369  12.364   3.393  0.2902 -1.0012  1.7626
31085SOL     OW 2222   0.112   8.129  10.265  0.3295  0.3011 -0.4275
31085SOL    HW1 2223   0.055   8.060  10.232  1.6085 -1.1125  0.2059
31085SOL    HW2 2224   0.189   8.126  10.208  1.7520 -0.9230  1.4414
31086SOL     OW 2225  10.367   6.916   0.544  0.0847  0.1630  0.3126
31086SOL    HW1 2226  10.435   6.982   0.553 -1.3845  1.4954  3.6333
31086SOL    HW2 2227  10.399   6.857   0.477  2.8484  2.6061 -0.7384
31087SOL     OW 2228   3.642  10.619   7.922  0.8617  0.2854  0.2799
31087SOL    HW1 2229   3.627  10.564   7.999  1.1630 -0.6992 -0.3502
31087SOL    HW2 2230   3.737  10.632   7.921  0.7513  1.2258  0.6850
31088SOL     OW 2231   9.492  12.505   9.972  0.0453  0.7427  0.8591
31088SOL    HW1 2232   9.490  12.588  10.021 -1.1010  0.9964  0.4378
31088SOL    HW2 2233   9.584  12.491   9.951  0.2637  1.8949  0.9782
31089SOL     OW 2234   5.588  10.646   2.833  0.3318 -0.5629  0.0506
31089SOL    HW1 2235   5.674  10.613   2.809  2.0688  1.8629  2.4405
31089SOL    HW2 2236   5.553  10.683   2.751  3.0621  1.3599 -0.3778
31090SOL     OW 2237   0.565   1.163   4.323  0.0363 -0.0584 -0.2300
31090SOL    HW1 2238   0.639   1.154   4.383  0.1638  2.0716  0.0221
31090SOL    HW2 2239   0.605   1.189   4.240 -0.3018 -0.8396 -0.6437
31091SOL     OW 2240   1.007   5.009   4.582  0.2280  0.9220  0.7020
31091SOL    HW1 2241   0.926   4.990   4.630  0.6434  1.6943  1.7534
31091SOL    HW2 2242   0.981   5.073   4.516 -0.4189 -0.4056 -0.3752
31092SOL     OW 2243   1.779  10.159   0.077 -0.2411  0.5236  0.9479
31092SOL    HW1 2244   1.865  10.181   0.114  0.1270  0.2085  0.3071
31092SOL    HW2 2245   1.726  10.134   0.152  0.5854 -0.4148  1.2428
31093SOL     OW 2246   8.865   5.036   5.688  0.0615 -0.3259 -0.0708
31093SOL    HW1 2247   8.881   5.099   5.618  0.0699 -0.6755 -0.3864
31093SOL    HW2 2248   8.931   4.968   5.675 -0.5137 -0.8516 -0.2769
31094SOL     OW 2249   6.384  12.005   6.328  0.3852 -0.1409  0.2165
31094SOL    HW1 2250   6.394  12.020   6.234  0.3579  1.8692  0.4913
31094SOL    HW2 2251   6.434  12.076   6.369 -1.4418  0.3859  1.6861
31095SOL     OW 2252   1.768   1.309   7.121  0.3890  0.0453 -0.2759
31095SOL    HW1 2253   1.718   1.321   7.202  0.1458 -1.0509 -0.2563
31095SOL    HW2 2254   1.707   1.337   7.052  0.0775 -0.3925 -0.1821
31096SOL     OW 2255   1.636   3.761   1.313 -0.2387 -0.4523 -0.5406
31096SOL    HW1 2256   1.660   3.688   1.257  0.9658 -1.2222  0.8761
31096SOL    HW2 2257   1.618   3.833   1.253  0.0168 -1.5016 -1.9254
31097SOL     OW 2258   6.614   3.920   8.545 -0.5420 -0.7811 -0.4315
31097SOL    HW1 2259   6.632   3.830   8.572 -0.5475 -0.8562 -0.6668
31097SOL    HW2 2260   6.534   3.944   8.592 -0.3566 -0.7827 -0.1163
31098SOL     OW 2261   5.817  10.572   0.951  0.3891  0.0384 -0.0682
31098SOL    HW1 2262   5.805  10.604   1.040  1.7702  0.2585  0.0578
31098SOL    HW2 2263   5.789  10.644   0.895 -1.9337 -0.6206  0.1122
31099SOL     OW 2264   4.787  11.115  12.475  0.0592  0.0033 -0.0745
31099SOL    HW1 2265   4.728  11.083  12.544  1.4670  0.5816  1.4858
31099SOL    HW2 2266   4.776  11.054  12.403 -1.3559 -0.7390  0.7326
31100SOL     OW 2267   7.950   5.856   5.581 -0.0681  0.1700 -0.1078
31100SOL    HW1 2268   8.000   5.775   5.582 -1.5509 -0.8158  1.8575
31100SOL    HW2 2269   8.005   5.918   5.534  0.6072 -2.2471 -2.8540
31101SOL     OW 2270   8.924   5.222   8.853  0.0304 -0.6869  0.1459
31101SOL    HW1 2271   8.957   5.231   8.942 -1.8438 -0.4716  0.8621
31101SOL    HW2 2272   8.924   5.127   8.837  2.9070 -0.6503 -0.7065
31102SOL     OW 2273   0.108   8.304   0.348 -0.4757  0.7458  0.3647
31102SOL    HW1 2274   0.112   8.385   0.298 -1.3596  0.8089  0.3812
31102SOL    HW2 2275   0.023   8.265   0.325  0.0718 -0.3496  0.0963
31103SOL     OW 2276   1.342  10.101   9.554  0.0133 -0.2734  0.4394
31103SOL    HW1 2277   1.400  10.150   9.613 -0.0993 -0.9087  1.0951
31103SOL    HW2 2278   1.380  10.114   9.467  0.7470 -0.1096  0.7747
31104SOL     OW 2279   0.095  10.941   7.191  0.5370  0.5838 -0.4943
31104SOL    HW1 2280   0.095  11.022   7.140  3.1230  1.1915  0.3469
31104SOL    HW2 2281   0.027  10.954   7.257  0.2598  1.6430 -0.9724
31105SOL     OW 2282  11.750   6.181   3.799  0.4929  0.1071  0.0881
31105SOL    HW1 2283  11.677   6.238   3.773  1.2497  1.2383  0.3358
31105SOL    HW2 2284  11.818   6.200   3.734  1.2168  0.4596  0.9404
31106SOL     OW 2285  11.674   9.450  11.341  0.1199 -0.3142 -0.9751
31106SOL    HW1 2286  11.581   9.438  11.323  0.0496 -1.9628  0.2378
31106SOL    HW2 2287  11.686   9.545  11.349 -1.9119 -0.1594  1.0378
31107SOL     OW 2288   3.483   0.473   8.819  0.1231 -0.1738  0.1177
31107SOL    HW1 2289   3.395   0.437   8.806  0.4697 -0.7002 -0.8821
31107SOL    HW2 2290   3.490   0.487   8.914 -1.3947  0.8229  0.1277
31108SOL     OW 2291   1.285   8.424  10.901 -0.8562  0.7367 -0.0014
31108SOL    HW1 2292   1.334   8.467  10.831  0.3277  1.2339  1.0974
31108SOL    HW2 2293   1.287   8.486  10.974  0.1284 -0.7747  1.3361
31109SOL     OW 2294   9.777   7.586   3.973  0.8187 -0.1571  0.0207
31109SOL    HW1 2295   9.833   7.572   4.049  0.9430 -1.8793 -0.3502
31109SOL    HW2 2296   9.769   7.500   3.933 -0.9649  0.3221 -0.7388
31110SOL     OW 2297   7.521  10.785   6.768 -0.5044  0.2880 -0.0361
31110SOL    HW1 2298   7.426  10.798   6.761 -0.5091  1.5655  1.8266
31110SOL    HW2 2299   7.556  10.873   6.781  0.5270 -0.4463  2.9141
31111SOL     OW 2300   8.967  11.891   6.627  0.5962 -0.4353  0.5678
31111SOL    HW1 2301   8.950  11.979   6.662 -2.5217 -0.6839 -0.0199
31111SOL    HW2 2302   8.880  11.852   6.619  1.6952 -2.6836 -1.5613
31112SOL     OW 2303   3.705   9.016   3.922 -0.4448 -0.2827  0.2726
31112SOL    HW1 2304   3.667   8.954   3.860 -0.7476  0.1223  0.0467
31112SOL    HW2 2305   3.684   8.980   4.008  0.6156 -1.2292  0.1445
31113SOL     OW 2306   4.434   6.495   4.527 -0.2143  0.0302 -0.0032
31113SOL    HW1 2307   4.499   6.430   4.555 -0.6706 -2.3488 -3.8160
31113SOL    HW2 2308   4.487   6.568   4.495  0.5615 -0.8642 -0.8393
31114SOL     OW 2309   6.610  10.621   4.750  0.3541 -0.0104  0.0969
31114SOL    HW1 2310   6.612  10.717   4.752  0.8173 -0.0253  1.4185
31114SOL    HW2 2311   6.695  10.596   4.716 -0.1827  0.0397 -1.3502
31115SOL     OW 2312   0.773   4.547  10.786  0.5705  0.3215  0.4058
31115SOL    HW1 2313   0.865   4.573  10.785  1.6055 -2.8135  1.3888
31115SOL    HW2 2314   0.772   4.467  10.838 -3.1737  1.6509  2.7571
31116SOL     OW 2315   0.749   9.295   6.702 -0.1861  0.3149  0.1574
31116SOL    HW1 2316   0.713   9.256   6.782 -0.1479 -0.9344 -0.4158
31116SOL    HW2 2317   0.675   9.342   6.663 -0.7238 -0.6517 -0.0298
31117SOL     OW 2318   3.448   2.304   2.242 -0.1564 -0.7656 -0.3308
31117SOL    HW1 2319   3.493   2.386   2.262  0.6638 -0.5156 -2.8395
31117SOL    HW2 2320   3.511   2.236   2.266  0.0018 -0.5670 -0.1814
31118SOL     OW 2321   6.204   8.873   7.414 -0.2014  0.5059  0.3353
31118SOL    HW1 2322   6.232   8.836   7.498 -0.4000  1.1898  0.7106
31118SOL    HW2 2323   6.201   8.967   7.429 -2.9958  0.4704  0.4048
31119SOL     OW 2324   8.642   7.730   6.291 -0.5090 -0.6368 -0.5449
31119SOL    HW1 2325   8.696   7.787   6.237 -0.8405  0.9750  0.7325
31119SOL    HW2 2326   8.689   7.646   6.293  1.2024  0.2748 -0.6281
31120SOL     OW 2327   5.887   8.378   7.747  0.0307 -0.2180 -0.0040
31120SOL    HW1 2328   5.887   8.391   7.841 -1.5833  0.0756 -0.0300
31120SOL    HW2 2329   5.851   8.290   7.735 -0.2482 -0.0570 -0.3671
31121SOL     OW 2330   8.808   1.450   9.086 -0.2611 -0.4037 -0.1317
31121SOL    HW1 2331   8.765   1.498   9.157  0.4130  2.1040 -1.3078
31121SOL    HW2 2332   8.737   1.408   9.038 -1.6172  3.4327 -1.8978
31122SOL     OW 2333   0.650   9.702   3.446 -0.5730 -0.8113  0.0482
31122SOL    HW1 2334   0.700   9.704   3.365 -1.2863 -1.7737 -0.4210
31122SOL    HW2 2335   0.717   9.698   3.515  0.0484  0.5424 -0.4414
31123SOL     OW 2336   2.263   2.119   0.390  0.1723 -0.3496  0.1266
31123SOL    HW1 2337   2.306   2.177   0.326  1.0064 -1.4090 -0.3170
31123SOL    HW2 2338   2.175   2.154   0.399  0.5090  0.7075 -0.4802
31124SOL     OW 2339   4.850   9.963   9.571 -0.1257  0.5947  0.1461
31124SOL    HW1 2340   4.934   9.948   9.613  0.0541 -0.0638 -0.4294
31124SOL    HW2 2341   4.785   9.944   9.639  0.1368 -1.2884 -0.0706
31125SOL     OW 2342  10.975  11.010   2.971 -0.0322 -0.4104  0.8963
31125SOL    HW1 2343  10.970  10.914   2.974 -0.0614 -0.4118  0.8024
31125SOL    HW2 2344  11.052  11.032   3.024 -0.5952 -0.4357  1.7507
31126SOL     OW 2345   8.233   9.629   7.024  0.0091  0.0715  0.0543
31126SOL    HW1 2346   8.282   9.617   7.105 -1.1797 -0.7611  0.6892
31126SOL    HW2 2347   8.225   9.540   6.988  0.4863  0.4257 -0.9625
31127SOL     OW 2348  10.574  10.624  11.305  0.0184 -0.2801 -0.2074
31127SOL    HW1 2349  10.613  10.691  11.248 -1.2250  0.6908  0.0227
31127SOL    HW2 2350  10.563  10.548  11.248  1.7829 -0.4351 -0.3798
31128SOL     OW 2351  11.070  11.358  12.429  0.3407 -0.1200 -0.2166
31128SOL    HW1 2352  11.043  11.280  12.380 -0.0788 -0.1128 -0.0051
31128SOL    HW2 2353  11.156  11.380  12.394  0.1822 -0.2998 -0.7291
31129SOL     OW 2354  11.281   3.022   9.257  0.2867  0.1585  0.0825
31129SOL    HW1 2355  11.216   3.041   9.188  0.4118 -0.7138 -0.2937
31129SOL    HW2 2356  11.240   3.053   9.337  0.3128  1.5870 -0.4281
31130SOL     OW 2357  12.172   9.362   8.890 -0.6738 -0.0509  0.4057
31130SOL    HW1 2358  12.262   9.337   8.910 -0.5971 -0.6782 -0.6503
31130SOL    HW2 2359  12.123   9.280   8.889 -1.2265  0.2697  0.8204
31131SOL     OW 2360   4.935   2.756   3.492 -0.3391  0.6479  0.0017
31131SOL    HW1 2361   4.930   2.733   3.400  2.2699 -2.6417  0.5162
31131SOL    HW2 2362   4.869   2.700   3.535 -0.9552  1.5509  0.2702
31132SOL     OW 2363   0.984   9.729  12.117  0.0438  0.0688  1.3160
31132SOL    HW1 2364   0.965   9.658  12.056 -1.6242 -0.4054  2.3295
31132SOL    HW2 2365   1.014   9.801  12.061 -1.7085 -0.2433 -0.1299
31133SOL     OW 2366   7.167   4.197  10.701 -0.0601 -0.0068 -0.0054
31133SOL    HW1 2367   7.128   4.235  10.622 -2.8321 -0.4176  1.0597
31133SOL    HW2 2368   7.170   4.103  10.683 -3.0847 -0.4512  1.1639
31134SOL     OW 2369   1.726   9.419   2.563  0.0440 -0.2445 -0.1559
31134SOL    HW1 2370   1.810   9.459   2.542  0.3366 -0.0201  1.3476
31134SOL    HW2 2371   1.663   9.491   2.555  0.0305 -0.3342 -0.9419
31135SOL     OW 2372   3.601   0.695   3.647  0.1405  0.6177 -0.0227
31135SOL    HW1 2373   3.692   0.673   3.629  0.2607  0.9937  0.1104
31135SOL    HW2 2374   3.590   0.783   3.610  0.9337  2.2868  3.2774
31136SOL     OW 2375   2.247  11.998  11.269  0.2796 -0.2842  0.4363
31136SOL    HW1 2376   2.307  11.968  11.337 -0.1896 -0.9402  0.5700
31136SOL    HW2 2377   2.177  11.932  11.268  0.6524 -0.6957 -1.1995
31137SOL     OW 2378   2.467   2.576   8.373 -0.1779 -0.6249 -0.5582
31137SOL    HW1 2379   2.475   2.626   8.292  1.3377 -1.0860 -0.7164
31137SOL    HW2 2380   2.522   2.499   8.360 -2.0458 -2.1240 -0.1143
31138SOL     OW 2381  12.596   1.264  10.368 -0.1650  0.2670  0.2665
31138SOL    HW1 2382  12.655   1.189  10.377  0.3711  0.5538 -0.6557
31138SOL    HW2 2383  12.510   1.226  10.353 -0.4376 -0.1725  2.6374
31139SOL     OW 2384   2.069   8.416   3.987 -0.3276  0.0307 -0.2136
31139SOL    HW1 2385   2.086   8.480   3.918 -0.3729 -1.5343 -1.7577
31139SOL    HW2 2386   2.155   8.376   4.004 -0.2522  0.6350  0.9049
31140SOL     OW 2387   4.805   4.274   5.040 -0.3123 -0.2473  0.2810
31140SOL    HW1 2388   4.772   4.343   5.097  0.3994 -1.1071  1.8030
31140SOL    HW2 2389   4.729   4.219   5.021 -0.5206 -0.0530  0.5479
31141SOL     OW 2390   3.048   9.613   4.555  0.5348 -0.7588 -0.1390
31141SOL    HW1 2391   2.999   9.534   4.534 -0.2967 -0.4346  0.5180
31141SOL    HW2 2392   3.139   9.584   4.563 -0.0025 -2.0723  2.1553
31142SOL     OW 2393   8.381  11.552   1.783 -0.0850 -0.1354  0.3431
31142SOL    HW1 2394   8.375  11.584   1.873 -0.9996 -1.6044  0.8470
31142SOL    HW2 2395   8.373  11.457   1.791  0.8109 -0.3827 -1.2180
31143SOL     OW 2396   7.583   3.111   4.740  0.9063  0.2391 -0.5402
31143SOL    HW1 2397   7.661   3.159   4.766  0.4366  1.4637 -1.3205
31143SOL    HW2 2398   7.584   3.032   4.794  1.9260  0.9185  0.4654
31144SOL     OW 2399  10.620   3.699   6.535 -0.3347  0.9499  0.1179
31144SOL    HW1 2400  10.550   3.764   6.541 -2.7802 -1.3796 -1.2940
31144SOL    HW2 2401  10.584   3.630   6.481  2.7265 -0.9034  0.2398
31145SOL     OW 2402   4.219  10.512   1.820  0.2914 -0.3191 -0.4730
31145SOL    HW1 2403   4.148  10.470   1.867 -0.4534  1.0051 -0.3767
31145SOL    HW2 2404   4.278  10.441   1.796 -0.4023 -1.2684  0.5891
31146SOL     OW 2405   2.348  11.903   6.543 -0.2990  0.3173  0.0295
31146SOL    HW1 2406   2.279  11.958   6.580 -1.1949 -1.1792  0.6732
31146SOL    HW2 2407   2.379  11.952   6.467 -0.3982  2.1308  1.0868
31147SOL     OW 2408   4.806   1.590   4.095 -0.1372  0.0434  0.4328
31147SOL    HW1 2409   4.891   1.555   4.119  1.5349  2.7875 -0.9769
31147SOL    HW2 2410   4.807   1.592   3.999 -2.2383 -0.7610  0.3338
31148SOL     OW 2411   4.924  10.381   7.050 -0.4134 -0.3449  0.0426
31148SOL    HW1 2412   4.848  10.340   7.092  0.6997 -2.9807 -0.3248
31148SOL    HW2 2413   4.922  10.348   6.960 -0.0639  1.3896 -0.6361
31149SOL     OW 2414   7.947   6.550   3.222  0.0051  0.5597 -0.4142
31149SOL    HW1 2415   7.874   6.609   3.204 -0.4184  0.4727  0.8672
31149SOL    HW2 2416   7.918   6.465   3.187 -0.6650  0.4515  0.3667
31150SOL     OW 2417   6.013   6.285   9.414  0.2264  0.0364 -0.4231
31150SOL    HW1 2418   5.998   6.211   9.355  2.6962  0.4256 -1.6634
31150SOL    HW2 2419   5.953   6.353   9.383 -0.3382 -0.6196 -0.8094
31151SOL     OW 2420   4.123  10.013   0.769  0.0939 -0.0678  0.3735
31151SOL    HW1 2421   4.166  10.019   0.683  0.0336 -0.4311  0.3153
31151SOL    HW2 2422   4.049  10.073   0.763 -0.6275 -0.9895 -0.2654
31152SOL     OW 2423   5.855   2.727   2.975  0.8576  0.5230  0.2750
31152SOL    HW1 2424   5.946   2.700   2.961  0.6779  0.0398  0.0281
31152SOL    HW2 2425   5.847   2.735   3.070  0.9566 -0.1691  0.3501
31153SOL     OW 2426  11.092   3.147   1.247 -0.2493 -0.1194  0.2180
31153SOL    HW1 2427  11.045   3.164   1.165 -0.3252  0.4234  0.3729
31153SOL    HW2 2428  11.031   3.096   1.299 -0.4430  0.0723  0.1818
31154SOL     OW 2429   4.120  11.169   9.526 -0.5302 -0.0472  0.3034
31154SOL    HW1 2430   4.054  11.177   9.457  0.6406  0.4907 -0.7973
31154SOL    HW2 2431   4.200  11.143   9.480  0.1864 -0.0697  1.5166
31155SOL     OW 2432  10.353   2.444  10.838  0.1415  0.3194  0.6325
31155SOL    HW1 2433  10.399   2.520  10.876  0.2634 -0.0800  1.2970
31155SOL    HW2 2434  10.325   2.393  10.914 -2.7900  1.3137  0.3318
31156SOL     OW 2435   8.903   8.447  10.750 -0.0260 -0.7056  0.2004
31156SOL    HW1 2436   8.849   8.467  10.673 -1.1236 -1.3726  0.7666
31156SOL    HW2 2437   8.955   8.526  10.764 -1.1501  0.1239 -0.1314
31157SOL     OW 2438   4.412  10.313   1.789 -0.0868 -0.6796 -0.0601
31157SOL    HW1 2439   4.417  10.238   1.730  0.0156 -1.5198  0.9826
31157SOL    HW2 2440   4.485  10.370   1.763 -1.4578  0.1651 -2.2838
31158SOL     OW 2441   2.305   2.112   3.346  0.3692 -0.2045 -0.4300
31158SOL    HW1 2442   2.332   2.204   3.345 -1.4763  0.3784  0.3015
31158SOL    HW2 2443   2.210   2.115   3.351  0.1781 -2.1786 -1.8165
31159SOL     OW 2444  10.482   2.632   3.409 -0.7773  0.5479  0.0950
31159SOL    HW1 2445  10.471   2.727   3.412 -1.0739  0.5178 -0.0914
31159SOL    HW2 2446  10.524   2.610   3.492  3.0444  1.3407 -1.4172
31160SOL     OW 2447   8.021  11.848   4.535  0.1100 -0.1030  0.4955
31160SOL    HW1 2448   7.971  11.813   4.461 -0.0468  1.3351 -0.1155
31160SOL    HW2 2449   8.074  11.774   4.565  2.3661 -0.0976 -2.9216
31161SOL     OW 2450   6.039   0.520  11.500  0.3678  0.0339 -0.3511
31161SOL    HW1 2451   6.017   0.466  11.424 -1.3105  1.1885 -0.7631
31161SOL    HW2 2452   5.959   0.519  11.553  0.8464  0.8229  0.4119
31162SOL     OW 2453   7.973   3.820   6.725 -0.0461 -0.6186 -0.2771
31162SOL    HW1 2454   8.067   3.803   6.720 -0.0172 -0.8578  0.7801
31162SOL    HW2 2455   7.933   3.749   6.674  0.2981 -1.1589  0.1948
31163SOL     OW 2456   5.412   9.667  10.354 -0.1905  0.7510 -0.2355
31163SOL    HW1 2457   5.461   9.639  10.432  0.2971  0.6494 -0.5763
31163SOL    HW2 2458   5.408   9.589  10.299 -0.2088  0.9263 -0.4840
31164SOL     OW 2459   1.772   8.624   9.206  0.0914  0.9343  0.0416
31164SOL    HW1 2460   1.839   8.692   9.216 -0.2457  1.2262  0.3791
31164SOL    HW2 2461   1.741   8.608   9.295 -0.1376  0.6472 -0.0873
31165SOL     OW 2462   7.597   0.533   0.061 -0.5964 -0.8554 -0.0973
31165SOL    HW1 2463   7.557   0.528   0.148 -0.8364 -1.4371 -0.2350
31165SOL    HW2 2464   7.548   0.602   0.016  0.8529  0.9271  0.8799
31166SOL     OW 2465   8.507   6.140   5.987  0.3011  0.0108 -0.5371
31166SOL    HW1 2466   8.483   6.231   5.974  0.2291  0.0579 -0.0932
31166SOL    HW2 2467   8.473   6.118   6.074  0.7497 -0.2922 -0.4329
31167SOL     OW 2468  11.968   1.178   0.766  0.5950 -0.5267  0.1447
31167SOL    HW1 2469  11.953   1.091   0.728 -1.0286 -0.1688 -0.1068
31167SOL    HW2 2470  11.943   1.239   0.697 -0.5257  0.1274  1.0943
31168SOL     OW 2471   1.389   3.994   7.934  0.5053 -0.2327  0.3986
31168SOL    HW1 2472   1.389   3.992   8.030 -0.4836  0.7489  0.4452
31168SOL    HW2 2473   1.448   3.923   7.908  2.6619  0.9475  1.7582
31169SOL     OW 2474   8.003   8.119  11.845 -0.0604  0.2621  1.0047
31169SOL    HW1 2475   8.011   8.101  11.751 -0.0557  0.4069  0.9774
31169SOL    HW2 2476   7.913   8.094  11.867 -0.7096  2.0701  0.5506
31170SOL     OW 2477   7.564   8.919  10.396 -0.2321  0.0702 -0.4067
31170SOL    HW1 2478   7.530   8.869  10.321 -1.3590 -1.2443  0.9142
31170SOL    HW2 2479   7.597   8.853  10.456 -0.4296  1.0063  0.7778
31171SOL     OW 2480   2.949   3.199   6.360 -0.0647  0.0360 -0.1914
31171SOL    HW1 2481   2.985   3.137   6.423  0.2357 -1.3375 -1.6353
31171SOL    HW2 2482   2.858   3.211   6.387  0.2846  0.1528  0.9806
31172SOL     OW 2483  10.745   0.304  11.881  0.3428  0.3137 -0.0669
31172SOL    HW1 2484  10.798   0.383  11.879  0.8449  0.0527  1.5667
31172SOL    HW2 2485  10.673   0.322  11.821  0.8137  1.7428 -0.2337
31173SOL     OW 2486  10.097   8.930   9.554  0.9175  0.0530  0.5105
31173SOL    HW1 2487  10.084   8.838   9.577 -0.2411  0.1778  0.4320
31173SOL    HW2 2488  10.009   8.964   9.540  1.3843  0.8758 -0.6476
31174SOL     OW 2489  11.915   9.242  10.559 -0.1886 -0.5757 -0.3296
31174SOL    HW1 2490  11.831   9.285  10.546 -0.1243 -0.3861 -0.1313
31174SOL    HW2 2491  11.941   9.268  10.648  1.3738  1.5955 -1.3355
31175SOL     OW 2492   5.374   3.743   8.376  0.0203 -0.4792 -0.5909
31175SOL    HW1 2493   5.470   3.738   8.371  0.2755  2.5827 -0.5787
31175SOL    HW2 2494   5.354   3.836   8.365 -3.0027 -1.0507 -0.8717
31176SOL     OW 2495   5.559   8.048   3.324 -0.4570  0.0793 -0.6020
31176SOL    HW1 2496   5.464   8.049   3.314 -0.5826  0.3934  0.4762
31176SOL    HW2 2497   5.589   7.982   3.261 -1.2244  1.0697 -2.0612
31177SOL     OW 2498   0.774   4.855   8.374 -0.0957  0.2522  0.2425
31177SOL    HW1 2499   0.805   4.818   8.457  2.2876  1.0069 -0.2664
31177SOL    HW2 2500   0.768   4.779   8.316  0.9253  0.1114  0.3148
31178SOL     OW 2501  10.315   0.006   0.906 -0.0226 -0.0347 -0.5483
31178SOL    HW1 2502  10.409  -0.008   0.910 -0.0261 -0.8435 -2.2570
31178SOL    HW2 2503  10.282  -0.066   0.852 -1.9243 -0.9370  1.6621
31179SOL     OW 2504   4.926   6.958   3.461 -0.4863  0.2086 -0.6199
31179SOL    HW1 2505   4.937   7.031   3.523 -0.0712 -0.9899  0.7758
31179SOL    HW2 2506   4.890   6.999   3.382 -1.1142  1.7913  0.4256
31180SOL     OW 2507   9.774   3.134   3.321  0.7591 -0.2244  0.5311
31180SOL    HW1 2508   9.684   3.152   3.350  0.3298  0.9350 -1.3534
31180SOL    HW2 2509   9.765   3.064   3.256  1.1208  0.3424 -0.1440
31181SOL     OW 2510  12.170   2.231   0.932  0.6921 -0.3630 -0.0183
31181SOL    HW1 2511  12.253   2.271   0.957  0.2170  0.7234 -0.1267
31181SOL    HW2 2512  12.180   2.210   0.840  0.8130 -0.1258 -0.0604
31182SOL     OW 2513   4.212   9.166   3.333  0.1455  0.8068 -0.2882
31182SOL    HW1 2514   4.297   9.197   3.303  0.4781  0.3281  0.1362
31182SOL    HW2 2515   4.220   9.159   3.428 -0.0821 -0.0435 -0.3169
31183SOL     OW 2516   5.311   2.761  10.773  0.3175  0.2817  0.3059
31183SOL    HW1 2517   5.358   2.843  10.791 -0.8062  0.5729  2.2134
31183SOL    HW2 2518   5.224   2.776  10.810 -0.6384 -0.9862 -1.3201
31184SOL     OW 2519   9.725   4.385   6.797  0.0009  0.1852 -0.7658
31184SOL    HW1 2520   9.706   4.298   6.832 -0.9583  0.8800  0.5141
31184SOL    HW2 2521   9.793   4.370   6.730  0.7827 -1.3790  0.3276
31185SOL     OW 2522  11.813   3.077   2.930 -0.4176 -0.1509  0.1142
31185SOL    HW1 2523  11.737   3.086   2.872  0.1409  0.8545 -0.4707
31185SOL    HW2 2524  11.795   2.996   2.980 -0.9508 -0.9819 -1.3679
31186SOL     OW 2525   0.454   1.366   4.445 -0.1597 -0.5002  0.6625
31186SOL    HW1 2526   0.407   1.401   4.369  1.1662 -1.2110 -0.5531
31186SOL    HW2 2527   0.490   1.283   4.414  0.9540 -0.5049  1.8800
31187SOL     OW 2528   9.029   5.435  10.021  0.6246 -0.0381  0.0336
31187SOL    HW1 2529   8.972   5.431   9.944  0.1429 -1.6687  0.4333
31187SOL    HW2 2530   9.114   5.405   9.991  0.6353  0.0543 -0.0284
31188SOL     OW 2531   0.971   5.755   0.657 -0.0495 -0.3796  0.1723
31188SOL    HW1 2532   0.893   5.808   0.677  1.9814  2.1128  2.1755
31188SOL    HW2 2533   0.974   5.690   0.727  0.0391 -0.0376  0.4886
31189SOL     OW 2534  10.314   5.087  11.058  0.4118  0.0544  0.4973
31189SOL    HW1 2535  10.251   5.144  11.102 -0.4910 -0.8788  0.4783
31189SOL    HW2 2536  10.261   5.012  11.030  1.6920 -1.1783  1.2614
31190SOL     OW 2537   0.786   4.016  10.377 -0.1797 -0.5341 -0.5027
31190SOL    HW1 2538   0.842   4.018  10.454  1.4405 -1.2362 -1.6176
31190SOL    HW2 2539   0.724   3.945  10.393 -3.2227  2.3641  2.2866
31191SOL     OW 2540   7.844   6.320   3.089 -0.4609 -0.3084  0.0317
31191SOL    HW1 2541   7.885   6.276   3.014 -1.1795  0.0909 -0.6052
31191SOL    HW2 2542   7.841   6.253   3.157  1.4003 -0.3100  0.1709
31192SOL     OW 2543   6.016   3.450  12.381  0.0480 -0.0532  0.1514
31192SOL    HW1 2544   5.969   3.448  12.464  0.4493 -0.8440  0.3750
31192SOL    HW2 2545   6.056   3.537  12.378 -0.7008  0.3027  0.3640
31193SOL     OW 2546   4.804  11.070   9.072  0.0120 -0.2765 -0.1815
31193SOL    HW1 2547   4.806  10.983   9.112 -0.6364 -0.8080 -1.2602
31193SOL    HW2 2548   4.866  11.122   9.124  0.2511 -1.3161  0.6045
31194SOL     OW 2549  11.889  10.646   2.080 -0.2660 -0.0484 -0.1759
31194SOL    HW1 2550  11.953  10.666   2.149 -0.8500 -0.3841  0.4778
31194SOL    HW2 2551  11.846  10.729   2.062 -1.5870 -0.3589  1.3992
31195SOL     OW 2552   0.709  11.357   9.690  0.1279 -0.3285 -0.1767
31195SOL    HW1 2553   0.669  11.444   9.693  2.7656  0.9741 -0.1169
31195SOL    HW2 2554   0.731  11.344   9.598  1.3772 -0.0856  0.0648
31196SOL     OW 2555   8.304   0.607   7.686 -0.3105  0.4712  0.3181
31196SOL    HW1 2556   8.390   0.640   7.663 -0.4247  0.3973 -0.2203
31196SOL    HW2 2557   8.283   0.649   7.769 -0.2472  1.3694 -0.1165
31197SOL     OW 2558   1.530   5.116   3.621 -0.0249  0.2139  0.3035
31197SOL    HW1 2559   1.530   5.088   3.712  0.7599  2.6351  1.1099
31197SOL    HW2 2560   1.622   5.135   3.601 -0.3476  0.9403 -0.5685
31198SOL     OW 2561   2.125   4.119  11.813  0.0539 -0.1932  0.0290
31198SOL    HW1 2562   2.059   4.186  11.795  0.3096 -0.0640 -0.4579
31198SOL    HW2 2563   2.076   4.045  11.848 -0.2208  0.2897  0.6744
31199SOL     OW 2564  11.473   8.615   4.943 -0.0492  0.2514 -0.2356
31199SOL    HW1 2565  11.466   8.614   5.038 -1.2897  1.3518 -0.2887
31199SOL    HW2 2566  11.393   8.574   4.912  0.9454 -1.3288 -0.8291
31200SOL     OW 2567   8.636   1.641   6.012 -0.6386 -0.0509  0.0818
31200SOL    HW1 2568   8.657   1.667   5.922  1.2058 -0.1794  0.4313
31200SOL    HW2 2569   8.552   1.596   6.004 -0.1321 -0.8127 -1.7434
31201SOL     OW 2570  11.561   5.404  12.567  0.5627 -0.2278  1.1055
31201SOL    HW1 2571  11.622   5.334  12.588  0.2651 -0.3799  1.4688
31201SOL    HW2 2572  11.585   5.431  12.478  0.3113 -1.1850  0.7300
31202SOL     OW 2573   3.756   8.336   7.172 -0.3365 -0.2295  0.3331
31202SOL    HW1 2574   3.770   8.383   7.090 -0.1814  0.2729  0.6401
31202SOL    HW2 2575   3.753   8.405   7.238  0.5945 -0.6966  0.8844
31203SOL     OW 2576   7.947   9.675   2.594  0.7472  0.3259 -0.0650
31203SOL    HW1 2577   7.878   9.624   2.552  0.8528  1.3518 -1.5408
31203SOL    HW2 2578   7.917   9.765   2.588  1.8173  0.7020  0.0687
31204SOL     OW 2579   4.411  11.612  11.096 -0.5748  0.5923  0.5892
31204SOL    HW1 2580   4.344  11.549  11.072 -1.3990  1.4087  0.7038
31204SOL    HW2 2581   4.481  11.598  11.032 -0.0766 -1.4212  1.5017
31205SOL     OW 2582  11.966  10.920   2.639 -0.2461  0.3240 -0.5813
31205SOL    HW1 2583  12.039  10.876   2.682 -0.3824  0.0028 -0.6778
31205SOL    HW2 2584  11.893  10.909   2.700 -1.0607 -2.1228 -1.8436
31206SOL     OW 2585   4.049   0.668   8.526  0.6198  0.3036  0.3514
31206SOL    HW1 2586   4.082   0.751   8.492  0.7491 -0.7582 -2.3524
31206SOL    HW2 2587   3.963   0.658   8.486  1.2324 -1.5335 -0.6010
31207SOL     OW 2588  12.021   1.615   5.749 -0.8264 -0.1349 -0.3256
31207SOL    HW1 2589  11.984   1.550   5.690 -0.4959 -0.2339 -0.4239
31207SOL    HW2 2590  11.999   1.699   5.708 -3.3444 -0.0370  0.9839
31208SOL     OW 2591   3.935   6.123   2.026 -0.1216 -0.2164  0.0806
31208SOL    HW1 2592   3.862   6.105   1.967  0.6052 -0.4429 -0.7512
31208SOL    HW2 2593   3.962   6.038   2.058 -0.1816 -0.1346  0.3558
31209SOL     OW 2594  10.098   2.904   1.074 -0.2058 -0.1784 -0.0985
31209SOL    HW1 2595  10.164   2.971   1.095 -0.6965  0.0071  0.8815
31209SOL    HW2 2596  10.138   2.854   1.002  0.3010  0.9610 -0.6384
31210SOL     OW 2597   8.542  11.523   9.254 -0.2863  0.0910 -0.4682
31210SOL    HW1 2598   8.524  11.597   9.311 -0.5082  0.2733 -0.7682
31210SOL    HW2 2599   8.511  11.551   9.168 -0.6303 -0.4575 -0.5304
31211SOL     OW 2600   9.178   6.670  12.154 -0.2274  0.2033 -0.8886
31211SOL    HW1 2601   9.178   6.601  12.220 -1.7963 -1.2699 -2.3439
31211SOL    HW2 2602   9.260   6.657  12.106  1.9200  2.4795  1.7786
31212SOL     OW 2603   0.838   3.807  11.886 -0.2359  0.1049 -0.1563
31212SOL    HW1 2604   0.923   3.831  11.848  0.3572 -2.3635 -0.5498
31212SOL    HW2 2605   0.855   3.801  11.980 -0.1236  0.1603 -0.1724
31213SOL     OW 2606   6.910   3.543   8.909 -0.0447 -0.3645 -0.0071
31213SOL    HW1 2607   6.920   3.493   8.828 -0.1387 -0.2536 -0.0883
31213SOL    HW2 2608   6.830   3.508   8.948  0.0509 -0.4816  0.0845
31214SOL     OW 2609   2.872   4.491   0.830  0.3957  0.6415  0.2565
31214SOL    HW1 2610   2.820   4.428   0.881 -1.6053  2.1260  0.1522
31214SOL    HW2 2611   2.858   4.466   0.739  1.8858 -0.4195  0.2749
31215SOL     OW 2612   4.678   0.731  12.378 -0.0293  0.2823  0.3326
31215SOL    HW1 2613   4.773   0.731  12.379 -0.0126  0.7334 -0.4674
31215SOL    HW2 2614   4.653   0.664  12.442  0.8186  0.0467  0.4246
31216SOL     OW 2615   9.193   9.357   8.812  0.3635  0.2972 -0.0704
31216SOL    HW1 2616   9.153   9.316   8.735 -0.6823  1.5398 -0.2192
31216SOL    HW2 2617   9.118   9.389   8.863  1.1126  0.9912  0.6110
31217SOL     OW 2618   2.582   2.750   0.413 -0.2049 -0.2303  0.5591
31217SOL    HW1 2619   2.558   2.707   0.495 -0.5267 -1.7414 -0.2784
31217SOL    HW2 2620   2.677   2.737   0.406 -0.3569 -1.1762  0.1270
31218SOL     OW 2621   0.076   6.418   7.195 -0.2209 -0.0901  0.5135
31218SOL    HW1 2622   0.059   6.502   7.152 -0.3331  0.1756  1.0642
31218SOL    HW2 2623   0.146   6.378   7.143 -0.1781  0.3403  0.2364
31219SOL     OW 2624   5.042   9.317   5.660 -0.5567 -0.2115 -0.6270
31219SOL    HW1 2625   5.068   9.232   5.626 -0.2125 -0.6830  0.7304
31219SOL    HW2 2626   5.123   9.368   5.664 -0.6136 -0.1188 -0.6401
31220SOL     OW 2627  12.152  10.980   8.262 -0.1571  0.1484 -0.1651
31220SOL    HW1 2628  12.176  10.969   8.354 -0.1769 -2.9219 -0.4455
31220SOL    HW2 2629  12.077  11.040   8.264 -0.6292 -0.4416  1.8784
31221SOL     OW 2630  10.267  11.454   9.004 -0.3028  0.1928 -0.3792
31221SOL    HW1 2631  10.272  11.513   9.079 -2.4730 -0.3952  0.3054
31221SOL    HW2 2632  10.308  11.502   8.933 -0.4754  1.8249  0.5692
31222SOL     OW 2633  10.153   5.460   8.112 -0.5645  0.3871  0.0206
31222SOL    HW1 2634  10.113   5.377   8.136  1.9983 -0.7694  0.6484
31222SOL    HW2 2635  10.200   5.488   8.191  1.2289  0.7494 -1.1082
31223SOL     OW 2636  10.976   7.716  11.009 -0.1781  0.4389 -0.1254
31223SOL    HW1 2637  11.017   7.736  10.925  1.6306  0.0747  0.6255
31223SOL    HW2 2638  11.047   7.722  11.072 -0.9346 -1.7238  1.0344
31224SOL     OW 2639  10.104   4.149   9.947 -0.3348 -0.1379  0.0317
31224SOL    HW1 2640  10.059   4.218   9.996  0.5175  0.1812  0.3720
31224SOL    HW2 2641  10.161   4.107  10.010  0.3105 -0.1300 -0.5371
31225SOL     OW 2642   2.401   3.764   1.085 -0.3458  0.2056 -0.1559
31225SOL    HW1 2643   2.336   3.831   1.065 -0.5416  1.2457  3.2551
31225SOL    HW2 2644   2.485   3.804   1.062 -0.5774  1.1192  0.5005
31226SOL     OW 2645  11.509   7.361   2.986 -0.4394  0.2453  0.2802
31226SOL    HW1 2646  11.463   7.306   2.923 -0.2039 -0.4794  0.7366
31226SOL    HW2 2647  11.440   7.412   3.028 -0.6936  0.0389  0.1151
31227SOL     OW 2648   7.700   5.458   5.670 -0.6097  0.4593  0.0349
31227SOL    HW1 2649   7.741   5.542   5.690 -0.6112  0.5188 -0.2092
31227SOL    HW2 2650   7.611   5.466   5.705 -0.6065  0.5554  0.0211
31228SOL     OW 2651   6.512   7.073  12.428 -0.1541 -0.8729  0.9050
31228SOL    HW1 2652   6.433   7.070  12.374  0.7549  0.1226 -0.5435
31228SOL    HW2 2653   6.583   7.052  12.367  1.0545  1.5652  1.3855
31229SOL     OW 2654   1.028   2.501   7.930  0.1285 -0.4025 -0.5185
31229SOL    HW1 2655   1.083   2.424   7.946 -0.1996 -0.9405 -1.8187
31229SOL    HW2 2656   1.083   2.559   7.877  0.6143  0.5915  1.0130
31230SOL     OW 2657   2.422  11.202   9.114 -0.4792 -0.4796  0.0666
31230SOL    HW1 2658   2.388  11.292   9.119 -0.5314 -0.5829  2.4441
31230SOL    HW2 2659   2.373  11.154   9.181  2.7646 -1.1392  2.1669
31231SOL     OW 2660   9.392   9.506   8.897 -0.0402  0.1102 -0.1596
31231SOL    HW1 2661   9.407   9.508   8.802  0.2171  4.7183 -0.2132
31231SOL    HW2 2662   9.317   9.448   8.908  0.1299 -0.8418 -3.0820
31232SOL     OW 2663   9.237   4.856   8.200  0.3635 -0.9418  0.1792
31232SOL    HW1 2664   9.156   4.836   8.152 -1.3898  1.8348  1.7152
31232SOL    HW2 2665   9.293   4.897   8.134 -0.9173  0.3104 -0.1944
31233SOL     OW 2666   8.699   8.381   0.624  0.1460 -0.3710 -0.5154
31233SOL    HW1 2667   8.771   8.384   0.560  0.5104  0.5825 -0.0838
31233SOL    HW2 2668   8.735   8.332   0.698  0.0934 -0.5425 -0.6026
31234SOL     OW 2669   4.600   3.518   4.727  0.2084  0.4618 -0.0812
31234SOL    HW1 2670   4.538   3.459   4.685  0.8866 -0.3928  0.0906
31234SOL    HW2 2671   4.556   3.548   4.806  0.6017 -1.3960  0.8846
31235SOL     OW 2672   5.870   5.303   2.925 -0.2615 -0.0993  0.8308
31235SOL    HW1 2673   5.861   5.397   2.936 -1.4265 -0.1105  0.1993
31235SOL    HW2 2674   5.803   5.265   2.982 -0.9938 -0.4472 -0.2186
31236SOL     OW 2675   1.337   3.388   4.441  0.5240 -0.0640  0.2271
31236SOL    HW1 2676   1.298   3.426   4.363 -1.7150 -5.2234 -1.5750
31236SOL    HW2 2677   1.430   3.408   4.434 -0.2047  3.4418 -1.2123
31237SOL     OW 2678  11.667  10.674   0.098  0.0286 -1.1898  0.1446
31237SOL    HW1 2679  11.661  10.654   0.191 -0.6225 -2.5902 -0.1646
31237SOL    HW2 2680  11.708  10.596   0.059  0.5664 -0.5012 -0.7018
31238SOL     OW 2681   6.331   5.311   3.763  0.0639  0.2739  0.4192
31238SOL    HW1 2682   6.398   5.369   3.727 -1.3227  1.7367  0.0783
31238SOL    HW2 2683   6.349   5.226   3.722  1.9270  0.4977  0.6529
31239SOL     OW 2684   5.668   8.532   3.522 -0.5400 -0.1629 -0.0718
31239SOL    HW1 2685   5.718   8.609   3.492 -0.0970 -1.0410 -1.7492
31239SOL    HW2 2686   5.703   8.460   3.470 -0.4122 -1.6796  2.0094
31240SOL     OW 2687   5.367   3.904   8.914  0.2210  0.1512 -0.1851
31240SOL    HW1 2688   5.460   3.881   8.914  0.4756  0.7709 -3.0211
31240SOL    HW2 2689   5.358   3.966   8.841 -2.7027 -1.2223 -1.1642
31241SOL     OW 2690  11.865   3.545  10.876 -0.0419 -0.5988  0.7325
31241SOL    HW1 2691  11.960   3.541  10.891 -0.1473 -0.9552  1.3378
31241SOL    HW2 2692  11.845   3.639  10.874  0.3019 -0.5236  0.7324
31242SOL     OW 2693  10.812   0.445  10.485 -0.1010  0.0312 -0.0651
31242SOL    HW1 2694  10.871   0.374  10.510 -1.5466 -1.0998  0.2609
31242SOL    HW2 2695  10.729   0.401  10.466 -1.6485  1.7856  2.1083
31243SOL     OW 2696   8.597   4.084   4.382 -0.5423  0.4657 -0.0736
31243SOL    HW1 2697   8.674   4.073   4.439 -0.8758  2.8420  0.9773
31243SOL    HW2 2698   8.583   3.998   4.343  1.6614 -0.4420  0.9700
31244SOL     OW 2699   1.751  11.359   4.091 -0.2458  0.4811 -0.3681
31244SOL    HW1 2700   1.821  11.425   4.095  0.1342  0.0736 -0.0987
31244SOL    HW2 2701   1.778  11.300   4.020 -0.0363  0.0271  0.0766
31245SOL     OW 2702   7.218   1.517   0.384  1.0415 -0.2853 -0.0066
31245SOL    HW1 2703   7.273   1.525   0.307 -0.0087 -0.5455 -0.8075
31245SOL    HW2 2704   7.229   1.600   0.430  2.2964 -0.4371  0.0071
31246SOL     OW 2705   5.622  12.341  11.523  0.6263 -0.0295 -0.3218
31246SOL    HW1 2706   5.655  12.282  11.456  0.9913 -0.5396  0.2921
31246SOL    HW2 2707   5.551  12.293  11.565  0.6185  0.1470 -0.1296
31247SOL     OW 2708   8.641   6.309   2.125  0.3745  0.7030 -0.2300
31247SOL    HW1 2709   8.661   6.299   2.032  1.2754  1.0257 -0.0817
31247SOL    HW2 2710   8.595   6.393   2.130  0.4877  0.7731 -0.3598
31248SOL     OW 2711   4.607   9.730   9.514  0.0072 -0.4027 -0.0806
31248SOL    HW1 2712   4.603   9.634   9.516 -0.0013 -0.3991  0.0222
31248SOL    HW2 2713   4.615   9.756   9.606 -0.3752 -0.2885 -0.0783
31249SOL     OW 2714  11.902   2.258   6.397  0.1703 -0.2676 -1.1341
31249SOL    HW1 2715  11.922   2.188   6.335  0.7601  0.3541 -1.6619
31249SOL    HW2 2716  11.818   2.292   6.369 -0.6559 -1.4696 -0.2108
31250SOL     OW 2717   9.512  11.323   2.456 -0.6354  0.1243 -0.3170
31250SOL    HW1 2718   9.421  11.352   2.445 -1.0223 -1.2516 -1.0564
31250SOL    HW2 2719   9.556  11.397   2.497 -2.3330  0.4230  1.0916
31251SOL     OW 2720  12.326   4.020   1.271  0.1111 -0.2115  0.2915
31251SOL    HW1 2721  12.308   4.062   1.355  0.8958  0.8802 -0.0562
31251SOL    HW2 2722  12.349   4.093   1.213 -0.7357 -0.9242 -0.9558
31252SOL     OW 2723   1.325   6.300   8.364 -0.0383 -0.0704 -0.4360
31252SOL    HW1 2724   1.319   6.294   8.460 -0.4422  0.9846 -0.3818
31252SOL    HW2 2725   1.238   6.274   8.334  0.0533 -0.2868 -0.5165
31253SOL     OW 2726   3.591   2.538   8.238 -0.0316 -0.3799  0.0222
31253SOL    HW1 2727   3.670   2.548   8.186 -0.2438  0.6797 -0.1363
31253SOL    HW2 2728   3.566   2.446   8.228  1.4187 -0.8460  0.4526
31254SOL     OW 2729   4.883   2.041   7.976  1.1591  0.3621  0.1002
31254SOL    HW1 2730   4.878   1.994   7.893 -1.4018  1.3027 -0.3699
31254SOL    HW2 2731   4.963   2.094   7.969 -0.1864  2.2687 -2.8964
31255SOL     OW 2732   2.117  11.594   3.768  0.3043 -0.5741  0.2646
31255SOL    HW1 2733   2.156  11.594   3.855 -0.2764 -0.7762  0.5345
31255SOL    HW2 2734   2.178  11.544   3.714  0.9881  0.1005  0.4016
31256SOL     OW 2735   4.961  11.295   9.153 -0.4905  0.0269 -0.4384
31256SOL    HW1 2736   5.046  11.332   9.129 -1.5092  1.4728 -2.0470
31256SOL    HW2 2737   4.933  11.348   9.228 -0.0845 -0.3205 -0.0337
31257SOL     OW 2738   7.374   7.496  10.897 -0.2722 -0.3294 -0.1165
31257SOL    HW1 2739   7.291   7.487  10.849 -0.4351 -0.2652  0.1521
31257SOL    HW2 2740   7.441   7.469  10.834 -0.5417 -0.9121 -0.1603
31258SOL     OW 2741   7.306   1.203   8.107 -0.0662 -0.0033 -0.0331
31258SOL    HW1 2742   7.268   1.222   8.022  0.0631  0.5271  0.0198
31258SOL    HW2 2743   7.333   1.289   8.141  1.3389 -0.3769 -0.1424
31259SOL     OW 2744   3.107   9.692  12.541  0.2998 -0.3316  0.1663
31259SOL    HW1 2745   3.169   9.627  12.509  0.8633  0.5623 -0.6022
31259SOL    HW2 2746   3.071   9.733  12.462  0.0526  0.3693  0.6288
31260SOL     OW 2747   5.109  11.793   0.719 -0.4068 -0.0504 -0.5715
31260SOL    HW1 2748   5.100  11.836   0.634  0.6000  0.3026 -0.5111
31260SOL    HW2 2749   5.107  11.865   0.782 -1.4730 -0.3352 -0.2543
31261SOL     OW 2750  10.926   9.409   5.567  0.1079 -0.1582 -0.2524
31261SOL    HW1 2751  11.010   9.386   5.528 -0.2590  0.1328 -1.2426
31261SOL    HW2 2752  10.876   9.450   5.496 -1.0175 -0.6662  0.2068
31262SOL     OW 2753   4.827   9.959  11.260  0.1260 -0.4302  0.3488
31262SOL    HW1 2754   4.774   9.930  11.334 -0.3996 -1.0529 -0.2582
31262SOL    HW2 2755   4.858   9.878  11.219  0.6408 -0.0917  0.0475
31263SOL     OW 2756   9.419   7.903   1.002  0.7818  0.1406  0.1287
31263SOL    HW1 2757   9.414   7.919   1.097 -1.4551  1.5665 -0.1619
31263SOL    HW2 2758   9.380   7.816   0.991 -0.1206  0.4838  0.4455
31264SOL     OW 2759  11.191  10.877   7.175  0.4178 -0.1656  0.5339
31264SOL    HW1 2760  11.155  10.810   7.117 -0.7332  0.7717  0.1279
31264SOL    HW2 2761  11.213  10.830   7.255  0.5273 -1.1943 -0.0784
31265SOL     OW 2762   2.226   2.575   4.832  0.8773  0.4162  0.5136
31265SOL    HW1 2763   2.250   2.578   4.740 -2.7375  0.3747 -0.5665
31265SOL    HW2 2764   2.233   2.666   4.862 -0.4410  0.9079 -0.5838
31266SOL     OW 2765   3.474   7.937   7.366 -0.0348 -0.1787  0.2198
31266SOL    HW1 2766   3.400   7.983   7.406 -0.0941 -1.5427  1.8155
31266SOL    HW2 2767   3.542   8.004   7.357  0.0744  0.2040  2.9603
31267SOL     OW 2768  11.077   0.987   4.105 -0.5332 -0.4654  0.4343
31267SOL    HW1 2769  11.068   0.923   4.176  0.9002 -0.8787  0.2805
31267SOL    HW2 2770  11.010   1.053   4.123 -0.6936 -0.9586  1.7371
31268SOL     OW 2771  11.429  11.330   3.579  0.3003 -0.6191 -0.7693
31268SOL    HW1 2772  11.482  11.283   3.514  0.1570 -0.0807 -1.2873
31268SOL    HW2 2773  11.356  11.271   3.598  2.2555 -2.4309  1.7501
31269SOL     OW 2774   5.562   1.524  11.283 -0.2918  0.3202  0.1136
31269SOL    HW1 2775   5.497   1.535  11.352 -0.9475  1.1996 -0.6204
31269SOL    HW2 2776   5.639   1.571  11.315  0.1167 -0.9645  1.1130
31270SOL     OW 2777  10.338   2.630   1.292  0.2124  0.2138  0.2551
31270SOL    HW1 2778  10.402   2.664   1.231 -0.7435  1.0540 -0.3078
31270SOL    HW2 2779  10.305   2.707   1.338  0.2138 -0.3001  1.1507
31271SOL     OW 2780   2.610   1.237   0.275  0.1504 -0.4879  0.0276
31271SOL    HW1 2781   2.557   1.159   0.290  0.7131 -0.6984  1.0587
31271SOL    HW2 2782   2.682   1.207   0.220  0.2183 -0.6369  0.1976
31272SOL     OW 2783   5.336   3.208  11.035  0.4409  0.0755  0.3386
31272SOL    HW1 2784   5.277   3.283  11.042  0.0719 -0.1055 -0.5956
31272SOL    HW2 2785   5.313   3.153  11.110  0.1429  0.5050  0.5668
31273SOL     OW 2786   4.145  11.946   1.429  0.1221  0.2569 -0.6487
31273SOL    HW1 2787   4.238  11.938   1.449  0.0881  0.0087 -0.5872
31273SOL    HW2 2788   4.140  12.020   1.368  0.3581  0.2716 -0.6507
31274SOL     OW 2789   6.526  11.004   0.516 -0.2221  0.3826 -0.3027
31274SOL    HW1 2790   6.452  10.980   0.460  0.7638 -0.9409 -1.0668
31274SOL    HW2 2791   6.544  10.926   0.568  2.0662 -0.1165 -1.7347
31275SOL     OW 2792   4.842   9.592   1.862 -0.4751  0.3766 -0.2505
31275SOL    HW1 2793   4.847   9.532   1.937 -0.6655 -3.3949 -2.9850
31275SOL    HW2 2794   4.911   9.563   1.803 -0.5903  2.9196 -1.8125
31276SOL     OW 2795   6.240  10.693  11.284 -0.5418  0.4410  0.1347
31276SOL    HW1 2796   6.287  10.614  11.255 -0.9789  0.2859 -0.1750
31276SOL    HW2 2797   6.198  10.725  11.204  0.8511  1.8642 -0.0783
31277SOL     OW 2798   8.518   6.485   1.799 -1.0083  0.1028  0.0159
31277SOL    HW1 2799   8.523   6.563   1.854 -0.4034  0.0734  0.0043
31277SOL    HW2 2800   8.477   6.419   1.856  0.8444 -0.3298  0.9162
31278SOL     OW 2801   1.861   7.511   0.207 -0.1390 -0.3430  0.4047
31278SOL    HW1 2802   1.866   7.578   0.275  1.5519 -0.0551  0.0304
31278SOL    HW2 2803   1.921   7.541   0.139  0.5954 -2.1752  0.1858
31279SOL     OW 2804   6.777   8.132   4.380  0.1405  0.0423  0.2861
31279SOL    HW1 2805   6.795   8.220   4.411 -0.6204  0.4622 -0.3954
31279SOL    HW2 2806   6.776   8.140   4.284  2.3936 -1.1986  0.0952
31280SOL     OW 2807   4.213   4.133  12.546 -0.0475  0.1456 -0.0496
31280SOL    HW1 2808   4.264   4.088  12.479 -0.3695  0.9663 -0.8730
31280SOL    HW2 2809   4.150   4.068  12.577 -0.0915 -0.1589 -0.7679
31281SOL     OW 2810   4.248   5.546   2.750  0.4037  0.0165 -0.1810
31281SOL    HW1 2811   4.153   5.547   2.753  0.4259  0.3528  0.6156
31281SOL    HW2 2812   4.270   5.594   2.669 -0.0740  2.0832  0.8548
31282SOL     OW 2813  11.942   7.562  11.696 -0.3344  0.1965 -0.7789
31282SOL    HW1 2814  11.888   7.484  11.712  1.1624 -0.6180  0.7776
31282SOL    HW2 2815  11.941   7.608  11.780 -0.0639  1.1074 -1.2744
31283SOL     OW 2816   3.174   1.974   8.627  0.2085  0.6753  0.1896
31283SOL    HW1 2817   3.163   1.975   8.722 -0.6823 -2.2763  0.2086
31283SOL    HW2 2818   3.267   1.957   8.613  0.2950  0.8506  0.5476
31284SOL     OW 2819   2.969   2.603   5.254 -0.0223  0.1123 -0.1606
31284SOL    HW1 2820   3.007   2.648   5.178  0.9318  0.3665  0.4623
31284SOL    HW2 2821   2.888   2.564   5.220  0.3771  0.2466 -1.3001
31285SOL     OW 2822   1.015   7.606   3.195 -0.6427 -0.6144  0.1804
31285SOL    HW1 2823   1.075   7.681   3.203 -0.7544 -0.4484 -0.4764
31285SOL    HW2 2824   1.061   7.545   3.138 -0.7335 -0.8662  0.3751
31286SOL     OW 2825   5.041   1.438   8.105  0.3490 -0.0090 -0.4720
31286SOL    HW1 2826   5.076   1.526   8.092  1.3299 -0.1836  0.7709
31286SOL    HW2 2827   4.989   1.421   8.027  1.4014  1.0773 -1.4538
31287SOL     OW 2828  10.541   5.364   0.674 -0.7593  0.3810 -0.3835
31287SOL    HW1 2829  10.460   5.375   0.624 -0.5769  0.1513 -0.7311
31287SOL    HW2 2830  10.528   5.419   0.752 -1.8825 -0.8412  0.3448
31288SOL     OW 2831   5.569   0.513   9.071  0.6834 -0.2118  0.1374
31288SOL    HW1 2832   5.527   0.519   9.157  2.3421  2.7018  0.8993
31288SOL    HW2 2833   5.513   0.565   9.013  0.5054 -0.7083 -0.1459
31289SOL     OW 2834   5.964   2.047   9.827 -0.5743  0.0301 -0.0502
31289SOL    HW1 2835   5.972   1.980   9.895 -0.3797  0.2453  0.1421
31289SOL    HW2 2836   6.052   2.055   9.790 -0.5813  0.2265 -0.0272
31290SOL     OW 2837  10.664   6.516   0.371 -0.0186 -0.6341 -0.1088
31290SOL    HW1 2838  10.588   6.573   0.358 -1.1700 -1.8598  1.0145
31290SOL    HW2 2839  10.637   6.431   0.338  1.5273 -0.6998 -1.3478
31291SOL     OW 2840   6.945   9.192  11.330 -0.1785  0.0479 -0.5283
31291SOL    HW1 2841   6.867   9.139  11.316 -0.0394 -0.2061 -0.3355
31291SOL    HW2 2842   7.009   9.132  11.368 -0.0461  0.3685 -0.2375
31292SOL     OW 2843  12.489   3.109   7.646 -0.0189 -0.4068  0.5288
31292SOL    HW1 2844  12.569   3.087   7.693  0.4000  0.5903  0.3033
31292SOL    HW2 2845  12.480   3.041   7.580  2.7337  1.3849 -1.9679
31293SOL     OW 2846  12.169  10.939  11.653  0.2651  0.0193  0.5903
31293SOL    HW1 2847  12.199  10.864  11.601 -1.3487 -0.9902  1.0439
31293SOL    HW2 2848  12.165  10.906  11.743 -0.5508  0.6083  0.7824
31294SOL     OW 2849   6.054   6.459  10.737  0.3211 -0.4612 -0.6567
31294SOL    HW1 2850   5.994   6.457  10.662  0.6837 -1.3598 -0.9332
31294SOL    HW2 2851   6.120   6.525  10.712  0.2063 -0.4519 -0.9424
31295SOL     OW 2852  11.624   4.485  10.886 -0.2499  0.2014  0.0141
31295SOL    HW1 2853  11.581   4.414  10.933  0.4844  0.2493  0.7925
31295SOL    HW2 2854  11.699   4.443  10.844 -0.7058  0.2267 -0.8455
31296SOL     OW 2855   6.276   9.151   7.451 -0.4478  0.4292  0.0457
31296SOL    HW1 2856   6.264   9.195   7.535 -1.3074  1.1440 -0.4397
31296SOL    HW2 2857   6.274   9.221   7.387  2.8514  0.2462 -0.4412
31297SOL     OW 2858   1.574  10.635  11.644  0.3224 -0.1546 -0.4011
31297SOL    HW1 2859   1.556  10.543  11.628  2.3677 -0.7807  0.5766
31297SOL    HW2 2860   1.568  10.676  11.558 -0.2869 -1.2505 -0.8971
31298SOL     OW 2861   9.271   5.519   7.254 -0.6653 -0.0449  0.5091
31298SOL    HW1 2862   9.323   5.575   7.312  1.0482 -0.3447 -0.6722
31298SOL    HW2 2863   9.192   5.499   7.305 -0.1841  1.4042  1.9045
31299SOL     OW 2864   0.668   0.710   0.239  0.0632  0.0618  0.3691
31299SOL    HW1 2865   0.720   0.743   0.166  1.0078 -0.7609  0.6318
31299SOL    HW2 2866   0.714   0.630   0.266 -0.1025  0.5044  2.0411
31300SOL     OW 2867   6.736   6.082   6.164  0.1702 -0.1569 -0.0302
31300SOL    HW1 2868   6.829   6.092   6.143  0.3501 -1.1189  0.2429
31300SOL    HW2 2869   6.693   6.156   6.122  1.0694  0.3132 -0.1313
31301SOL     OW 2870   8.304   9.399   6.085 -0.5435  0.5308  0.2739
31301SOL    HW1 2871   8.249   9.472   6.112 -0.4112  0.8089 -0.2017
31301SOL    HW2 2872   8.378   9.401   6.146 -0.3224  1.0618 -0.0116
31302SOL     OW 2873  10.264   3.468  11.121  0.3167  0.4374  0.2510
31302SOL    HW1 2874  10.332   3.410  11.088 -0.1432 -0.1509  0.3278
31302SOL    HW2 2875  10.268   3.460  11.216 -1.3183 -1.3557  0.2405
31303SOL     OW 2876   6.383  11.568   5.268 -0.0063  0.0424  0.3733
31303SOL    HW1 2877   6.417  11.496   5.214  0.0684 -0.7200  1.4081
31303SOL    HW2 2878   6.443  11.571   5.343 -0.5339  0.6071  0.7771
31304SOL     OW 2879   7.238   2.007  10.048  0.7667  0.4102 -0.6418
31304SOL    HW1 2880   7.231   2.072  10.118 -0.9655 -0.9944  0.5771
31304SOL    HW2 2881   7.228   1.922  10.092  0.0364 -0.5478 -2.5220
31305SOL     OW 2882   0.336   8.166   8.866 -0.0524  0.0020  0.8554
31305SOL    HW1 2883   0.290   8.102   8.811 -0.3836  0.3640  0.7040
31305SOL    HW2 2884   0.305   8.251   8.834  0.5934  0.2485  0.8723
31306SOL     OW 2885   0.547   3.001   6.703  0.2328 -0.2444  0.0430
31306SOL    HW1 2886   0.463   3.030   6.739  0.5101 -0.0834  0.5754
31306SOL    HW2 2887   0.570   2.925   6.756  0.9660  0.3912  0.6636
31307SOL     OW 2888  11.741   9.469   4.217  0.2967 -0.7378  0.5300
31307SOL    HW1 2889  11.751   9.374   4.224  1.5493 -0.8886 -2.0138
31307SOL    HW2 2890  11.647   9.483   4.216  0.0914 -1.8985  1.2123
31308SOL     OW 2891  10.923   3.529  12.155  0.0983  0.1820  0.2036
31308SOL    HW1 2892  10.919   3.438  12.126  1.4398  0.7060 -1.8024
31308SOL    HW2 2893  10.977   3.526  12.234  0.5904 -0.7010 -0.1550
31309SOL     OW 2894   7.320   2.528   8.906  0.0888 -0.4099 -0.4484
31309SOL    HW1 2895   7.264   2.470   8.855  0.6219 -0.9072 -0.4857
31309SOL    HW2 2896   7.377   2.468   8.956  0.4552  0.0771 -0.2749
31310SOL     OW 2897   8.375   0.155   0.041 -0.1338  0.1345 -0.4006
31310SOL    HW1 2898   8.294   0.174   0.089  0.6947  0.2257  1.0315
31310SOL    HW2 2899   8.382   0.226  -0.023 -0.1834  1.2881  0.8139
31311SOL     OW 2900   8.637  10.070   5.900 -0.3959 -0.0774 -0.2053
31311SOL    HW1 2901   8.631  10.158   5.864 -2.5037  0.4863  1.3357
31311SOL    HW2 2902   8.717  10.072   5.954 -0.9528  1.2437  0.6204
31312SOL     OW 2903   0.094   3.786   5.828 -0.4611  0.4041  0.2747
31312SOL    HW1 2904   0.098   3.820   5.917  0.9491  1.0790 -0.0202
31312SOL    HW2 2905   0.151   3.709   5.829 -1.0292 -0.0296  0.1198
31313SOL     OW 2906   2.226  10.777   7.181  0.4187  0.4893 -0.1222
31313SOL    HW1 2907   2.316  10.755   7.203  0.5127 -0.7876 -1.6309
31313SOL    HW2 2908   2.179  10.694   7.185 -0.9062  1.2448  1.4058
31314SOL     OW 2909  12.291   2.077   9.173 -0.6136  0.2367  0.2965
31314SOL    HW1 2910  12.284   2.167   9.204 -0.0222  0.3596  0.0990
31314SOL    HW2 2911  12.348   2.083   9.096 -0.6572 -0.2916  0.2179
31315SOL     OW 2912   9.100   1.418   4.675 -0.0691  0.3393 -0.3542
31315SOL    HW1 2913   9.119   1.396   4.584 -0.0204  0.6938 -0.4305
31315SOL    HW2 2914   9.007   1.402   4.686 -1.0147  3.9851 -1.5642
31316SOL     OW 2915   6.395   9.324   9.522 -0.2352 -0.5671 -0.0730
31316SOL    HW1 2916   6.459   9.253   9.537  0.6775  0.3049  0.2549
31316SOL    HW2 2917   6.448   9.400   9.501 -1.1392  0.3399  0.8091
31317SOL     OW 2918   1.473   2.575   5.657  0.0364  0.1589 -0.1569
31317SOL    HW1 2919   1.417   2.541   5.727  0.6932 -2.0520 -0.6453
31317SOL    HW2 2920   1.555   2.527   5.666  0.0232 -0.4370 -2.6184
31318SOL     OW 2921   0.290   7.262   7.849  0.0966 -0.4971 -0.3545
31318SOL    HW1 2922   0.371   7.241   7.802 -0.1426  0.1422 -1.0827
31318SOL    HW2 2923   0.304   7.351   7.882 -0.1108 -0.5819 -0.0257
31319SOL     OW 2924  11.508   3.004   6.503 -0.1258  0.0525 -0.1900
31319SOL    HW1 2925  11.445   2.934   6.484 -0.5310  0.4593 -0.3742
31319SOL    HW2 2926  11.558   2.972   6.578  0.6046 -1.0128 -1.0954
31320SOL     OW 2927   6.263   2.230   0.958 -0.5561 -0.1192  0.3095
31320SOL    HW1 2928   6.201   2.297   0.928  1.7240  1.4655 -1.2900
31320SOL    HW2 2929   6.319   2.214   0.882  1.7384 -0.5139  1.9758
31321SOL     OW 2930   6.066  12.034   6.050  0.4787  0.0596 -0.1130
31321SOL    HW1 2931   6.007  11.969   6.011  0.1912  0.3982 -0.2506
31321SOL    HW2 2932   6.056  12.022   6.144  0.3865 -0.0602 -0.1376
31322SOL     OW 2933   9.037   9.151   3.451 -0.1369 -0.8452  0.1927
31322SOL    HW1 2934   9.053   9.088   3.522 -0.9750 -1.4157 -0.1046
31322SOL    HW2 2935   8.958   9.198   3.479  0.3648 -0.0632  0.3124
31323SOL     OW 2936  10.006   7.344   6.511  0.5340 -0.3078  0.7874
31323SOL    HW1 2937   9.925   7.329   6.560 -1.6890  0.3666 -2.3929
31323SOL    HW2 2938  10.009   7.438   6.498 -0.3394 -0.6083 -2.3406
31324SOL     OW 2939  10.847   8.826   4.150 -0.2344  0.3758  0.1841
31324SOL    HW1 2940  10.894   8.899   4.110 -1.1441  0.0643 -1.5342
31324SOL    HW2 2941  10.878   8.749   4.104 -0.8676 -0.0713  0.4882
31325SOL     OW 2942   0.866   7.593   6.454 -0.2898 -0.1139  0.4860
31325SOL    HW1 2943   0.813   7.612   6.377  1.5435  1.8913 -0.3724
31325SOL    HW2 2944   0.827   7.645   6.524 -1.0903 -0.8130  0.5691
31326SOL     OW 2945   3.522   5.431   4.143 -0.2954  0.1006 -0.3107
31326SOL    HW1 2946   3.489   5.351   4.101  0.6021  0.0077 -0.8634
31326SOL    HW2 2947   3.613   5.436   4.116  0.5180 -0.2847  2.1392
31327SOL     OW 2948  11.591   3.061   2.299 -0.9418 -0.4804 -0.0185
31327SOL    HW1 2949  11.661   3.107   2.345 -2.6943  3.3268 -0.7938
31327SOL    HW2 2950  11.529   3.036   2.368 -1.0327  0.3850  0.2183
31328SOL     OW 2951   6.929   1.321   2.462  0.4974  0.4796 -0.3142
31328SOL    HW1 2952   6.989   1.265   2.413 -0.8443 -0.7004 -0.6880
31328SOL    HW2 2953   6.869   1.355   2.396 -0.5067 -0.0480  0.2902
31329SOL     OW 2954   6.828   6.489   5.895  0.7504 -0.5025 -0.2307
31329SOL    HW1 2955   6.828   6.416   5.834 -0.7085 -0.7753  0.0509
31329SOL    HW2 2956   6.920   6.514   5.903  1.0317 -0.7094 -2.2251
31330SOL     OW 2957   1.036   6.685   7.044 -0.2247  0.5545 -0.5032
31330SOL    HW1 2958   0.995   6.606   7.007 -1.2283  1.7160 -2.0042
31330SOL    HW2 2959   0.983   6.757   7.011  1.0293  1.9216  0.3411
31331SOL     OW 2960   2.262   1.676   6.688 -0.3083  0.0008 -0.2078
31331SOL    HW1 2961   2.252   1.771   6.682 -1.0043 -0.0742 -0.3007
31331SOL    HW2 2962   2.182   1.641   6.649 -0.1499 -0.6209  0.0147
31332SOL     OW 2963   1.338   0.377   0.848 -0.0561  0.7692 -0.6449
31332SOL    HW1 2964   1.253   0.399   0.886 -0.6337 -0.5654 -1.0923
31332SOL    HW2 2965   1.399   0.379   0.921 -0.9415 -0.6599  0.1649
31333SOL     OW 2966   2.656   5.747   1.174 -0.1075  0.1026 -0.3943
31333SOL    HW1 2967   2.690   5.676   1.229 -0.0667  1.1264  0.9639
31333SOL    HW2 2968   2.563   5.727   1.164  0.2616 -1.1340 -1.6405
31334SOL     OW 2969  12.429   5.489   6.279 -0.6608  0.8343  0.0922
31334SOL    HW1 2970  12.387   5.503   6.194 -3.4550 -1.1648  1.0200
31334SOL    HW2 2971  12.429   5.575   6.321  0.7876  1.8652 -1.8277
31335SOL     OW 2972   2.871   0.125   6.531  0.2789  0.8458  0.3701
31335SOL    HW1 2973   2.944   0.097   6.477 -0.2141  1.7043 -0.7732
31335SOL    HW2 2974   2.853   0.049   6.588  1.3669  0.2563 -0.0447
31336SOL     OW 2975   3.979   3.728   8.096 -0.0832  0.4771 -0.8563
31336SOL    HW1 2976   3.986   3.796   8.163  0.2371 -0.0641 -0.3322
31336SOL    HW2 2977   3.892   3.741   8.058 -0.2222  0.8677 -0.4229
31337SOL     OW 2978   8.004  11.824   2.215  0.1937  0.3812  0.2532
31337SOL    HW1 2979   7.999  11.886   2.288  1.7703  0.2255  0.5343
31337SOL    HW2 2980   7.955  11.865   2.144  0.4299  1.5026  0.7272
31338SOL     OW 2981  10.109   2.122  11.128 -0.6296  0.4698  0.0215
31338SOL    HW1 2982  10.169   2.111  11.202 -1.8723  0.8412  1.1023
31338SOL    HW2 2983  10.036   2.173  11.163 -0.9630  1.1795 -1.6185
31339SOL     OW 2984   9.749   1.786   6.935 -0.3421 -0.0457  0.0494
31339SOL    HW1 2985   9.829   1.752   6.894 -0.4640  0.7688 -0.9017
31339SOL    HW2 2986   9.681   1.723   6.909  0.1899 -1.5487  2.0473
31340SOL     OW 2987   9.461   1.678  12.266  0.3308  0.1941 -0.6643
31340SOL    HW1 2988   9.408   1.650  12.192  0.0563 -0.6077 -0.1790
31340SOL    HW2 2989   9.467   1.773  12.258 -1.9582  0.4184 -0.2236
31341SOL     OW 2990   5.079   1.430   0.018 -0.5351  0.0574  0.0712
31341SOL    HW1 2991   5.141   1.370   0.059  0.0459  0.0199 -0.8282
31341SOL    HW2 2992   5.025   1.463   0.090 -0.2449 -0.8177  0.7040
31342SOL     OW 2993   0.139   1.459  10.198  0.0226 -0.3771  0.5803
31342SOL    HW1 2994   0.097   1.524  10.142 -1.0372 -2.0445 -0.6446
31342SOL    HW2 2995   0.068   1.399  10.223  1.0867 -1.4692  1.0834
31343SOL     OW 2996  12.267   0.883   7.239  0.6563  0.3626  0.6819
31343SOL    HW1 2997  12.257   0.961   7.185  0.8137 -0.0559  0.0462
31343SOL    HW2 2998  12.192   0.886   7.299  0.8140  1.1439  0.8521
31344SOL     OW 2999   0.127   7.286   1.826 -0.4007 -0.4518 -0.3682
31344SOL    HW1 3000   0.166   7.284   1.913  1.3679  0.4071 -1.0886
31344SOL    HW2 3001   0.121   7.379   1.805 -2.8157 -0.5449 -0.3557
31345SOL     OW 3002   3.200   5.359   4.642  0.2262 -0.0103 -0.0952
31345SOL    HW1 3003   3.154   5.337   4.562  0.6491 -0.5374 -0.2008
31345SOL    HW2 3004   3.160   5.303   4.709  0.1452  0.1386 -0.0187
31346SOL     OW 3005   3.370   5.882   6.484 -0.0796  0.5109 -0.3105
31346SOL    HW1 3006   3.342   5.935   6.409 -0.8930 -0.1603 -0.4952
31346SOL    HW2 3007   3.299   5.819   6.497  1.0985 -0.9223 -0.4678
31347SOL     OW 3008   4.547  12.456   6.271  0.1798 -0.6463  0.1280
31347SOL    HW1 3009   4.619  12.519   6.264  0.2914 -0.6918  0.8535
31347SOL    HW2 3010   4.468  12.510   6.266  0.2722 -0.4805  0.4488
31348SOL     OW 3011  11.822  11.072   9.320 -0.1309  0.0794  0.2341
31348SOL    HW1 3012  11.800  11.163   9.342 -0.3339  0.0965 -0.0433
31348SOL    HW2 3013  11.751  11.021   9.359  0.6538 -0.0765  1.5274
31349SOL     OW 3014   7.299  11.645   2.759  0.0222  0.1727 -0.5685
31349SOL    HW1 3015   7.226  11.583   2.759  0.2354 -0.4556  4.2552
31349SOL    HW2 3016   7.264  11.723   2.714 -2.1373 -1.4768 -1.9533
31350SOL     OW 3017   7.602   4.790   4.117  0.4093  0.5776  0.3323
31350SOL    HW1 3018   7.632   4.705   4.085  0.3306  1.6660 -3.1003
31350SOL    HW2 3019   7.506   4.785   4.113  0.3418  0.3226  1.7728
31351SOL     OW 3020   2.041   1.321   2.337  0.0213  0.5777 -0.6148
31351SOL    HW1 3021   1.949   1.322   2.308 -0.2812 -0.5946  0.2390
31351SOL    HW2 3022   2.084   1.383   2.279 -1.5615  2.1882 -0.1785
31352SOL     OW 3023   1.262   3.499   5.777  0.1777 -0.5539 -1.0039
31352SOL    HW1 3024   1.318   3.476   5.850  0.6869  1.3426 -0.7443
31352SOL    HW2 3025   1.321   3.509   5.703  0.2034  1.1941 -0.7887
31353SOL     OW 3026   9.454   4.302   2.940  0.1361 -0.1320 -0.1425
31353SOL    HW1 3027   9.493   4.318   3.026  0.0937 -0.3518 -0.0807
31353SOL    HW2 3028   9.475   4.380   2.889 -0.3102  0.2430  0.2397
31354SOL     OW 3029   6.957   6.466  12.054 -0.3797  0.3385 -0.5558
31354SOL    HW1 3030   6.978   6.395  11.993 -0.1502  0.4110 -0.5608
31354SOL    HW2 3031   6.891   6.429  12.112 -1.4105  0.6004 -1.5180
31355SOL     OW 3032   1.702  11.394   4.698  0.0997 -0.8455  0.4544
31355SOL    HW1 3033   1.740  11.439   4.774  0.0756 -0.5425  0.2871
31355SOL    HW2 3034   1.646  11.326   4.736  0.1559 -0.7517  0.7065
31356SOL     OW 3035   9.150  10.896   1.310  0.2121 -0.1171 -0.3833
31356SOL    HW1 3036   9.185  10.950   1.381 -0.5732  2.1148 -1.5879
31356SOL    HW2 3037   9.055  10.900   1.322  0.1366 -1.9275 -0.0743
31357SOL     OW 3038   5.437   9.281   9.157 -0.4448 -0.0721 -0.5687
31357SOL    HW1 3039   5.474   9.200   9.122  0.3421 -0.3726  0.8669
31357SOL    HW2 3040   5.492   9.350   9.120 -0.8583 -0.2039 -1.4632
31358SOL     OW 3041   2.466   5.475   5.552  0.4001  0.3756  0.3748
31358SOL    HW1 3042   2.377   5.510   5.554  0.4050  0.4627 -0.5143
31358SOL    HW2 3043   2.494   5.475   5.643 -0.6588 -0.0241  0.7216
31359SOL     OW 3044   7.109   0.853   0.133 -0.8117  0.2736 -0.1304
31359SOL    HW1 3045   7.120   0.928   0.074  1.0518  0.2263  0.1246
31359SOL    HW2 3046   7.085   0.781   0.075  0.0175  0.4534 -0.7074
31360SOL     OW 3047   4.889   1.425   7.892 -0.1077 -0.5381  0.0844
31360SOL    HW1 3048   4.841   1.507   7.895  0.0308 -0.2786 -2.6047
31360SOL    HW2 3049   4.830   1.364   7.848  0.1554 -1.6515  1.2086
31361SOL     OW 3050   4.376   8.030   3.972  0.1278  0.0943  0.2288
31361SOL    HW1 3051   4.430   8.096   3.928  0.6769 -0.4794  0.0191
31361SOL    HW2 3052   4.423   7.948   3.958 -0.3405 -0.2854  0.8239
31362SOL     OW 3053   6.410   9.446   7.593 -0.2508 -0.1008 -0.6224
31362SOL    HW1 3054   6.472   9.411   7.529  0.4566  0.7321 -0.4094
31362SOL    HW2 3055   6.414   9.541   7.582 -1.0126 -0.0038 -0.1597
31363SOL     OW 3056  11.624   1.864   9.061  0.0893 -0.2590 -0.2574
31363SOL    HW1 3057  11.587   1.888   9.146  0.4129 -1.8745  0.3596
31363SOL    HW2 3058  11.572   1.790   9.032  2.2223 -2.0563  0.2427
31364SOL     OW 3059   4.362   5.254   0.708 -0.5291  0.4947  0.0120
31364SOL    HW1 3060   4.305   5.303   0.649  1.9335  0.1780 -2.9299
31364SOL    HW2 3061   4.308   5.183   0.742 -2.0664  0.5265 -2.1760
31365SOL     OW 3062  12.332   3.190  10.809  0.0090  0.2313  0.2842
31365SOL    HW1 3063  12.362   3.223  10.725  0.0243  0.1944  0.2751
31365SOL    HW2 3064  12.249   3.235  10.825 -1.0975 -1.3820 -0.7719
31366SOL     OW 3065   7.842   0.693   5.192 -0.1523 -0.0517 -0.2859
31366SOL    HW1 3066   7.833   0.619   5.252 -2.1506  0.6916  0.4077
31366SOL    HW2 3067   7.784   0.759   5.227 -2.7049 -0.1283 -3.8810
31367SOL     OW 3068   5.560   3.849   4.183  0.1250  0.2286 -0.5656
31367SOL    HW1 3069   5.633   3.903   4.213 -0.0549 -1.4660  3.6408
31367SOL    HW2 3070   5.570   3.766   4.231 -4.2207 -0.2781 -0.0697
31368SOL     OW 3071   7.001  10.302   7.949 -0.1612 -0.7695  0.1789
31368SOL    HW1 3072   6.952  10.280   7.870  0.2247 -0.2994 -0.2030
31368SOL    HW2 3073   7.088  10.266   7.933  0.4204  0.7577 -0.3627
31369SOL     OW 3074   8.266   5.717   2.117 -0.1507  1.0751 -0.0442
31369SOL    HW1 3075   8.245   5.795   2.170  0.8206  1.1092  0.3147
31369SOL    HW2 3076   8.226   5.645   2.165  0.2268  1.1792  0.4461
31370SOL     OW 3077   4.173   5.433   1.711  0.1556 -0.6744  0.7143
31370SOL    HW1 3078   4.179   5.424   1.616 -1.5536  0.5578  0.4509
31370SOL    HW2 3079   4.263   5.421   1.742  1.5284  2.6792 -1.4277
31371SOL     OW 3080   6.832   7.943   6.466 -0.0496  0.3092 -0.4872
31371SOL    HW1 3081   6.760   7.973   6.411 -1.4988  0.3105  1.3543
31371SOL    HW2 3082   6.809   7.970   6.554  1.8607 -0.3466  0.2726
31372SOL     OW 3083   2.202   0.741   4.152  0.0804 -0.2093 -0.1377
31372SOL    HW1 3084   2.190   0.826   4.110 -0.2308  0.8843  2.0141
31372SOL    HW2 3085   2.189   0.677   4.082  1.2711  1.5134 -2.0175
31373SOL     OW 3086  12.562  11.081   8.163 -0.0395 -0.2862  0.1632
31373SOL    HW1 3087  12.476  11.115   8.137  0.5673  1.6284  0.4961
31373SOL    HW2 3088  12.551  11.056   8.255  0.0333  1.1098  0.5798
31374SOL     OW 3089   7.297   1.155   2.009  0.0432 -0.6676  0.5383
31374SOL    HW1 3090   7.251   1.206   1.942  1.6677  0.5244  0.2619
31374SOL    HW2 3091   7.262   1.187   2.092  0.9757  0.8888  0.3654
31375SOL     OW 3092   1.428   5.349   1.644  0.2147 -0.0583  0.1188
31375SOL    HW1 3093   1.438   5.409   1.718  0.4653 -0.0829  0.1059
31375SOL    HW2 3094   1.482   5.273   1.667 -1.5477 -1.1114  1.0044
31376SOL     OW 3095   3.047   5.101   2.716  0.4852 -0.7888 -0.0806
31376SOL    HW1 3096   2.979   5.080   2.652  0.1659  0.4398 -0.1599
31376SOL    HW2 3097   3.085   5.016   2.738  0.0965 -1.3175 -1.3334
31377SOL     OW 3098   6.143   9.060   1.828  0.6164 -0.1329 -0.1421
31377SOL    HW1 3099   6.068   9.013   1.791 -0.4607  1.6396 -0.3471
31377SOL    HW2 3100   6.220   9.020   1.786 -0.0893 -2.6380  0.7934
31378SOL     OW 3101   9.542   5.474   7.009  0.1350  0.3293  0.0467
31378SOL    HW1 3102   9.544   5.542   6.942 -2.1510 -0.9156 -1.3893
31378SOL    HW2 3103   9.517   5.520   7.089 -2.3334  1.1145 -1.0813
31379SOL     OW 3104  11.631   9.590  10.660  0.1630  0.0495 -0.5339
31379SOL    HW1 3105  11.677   9.592  10.576 -0.9983  4.0502 -1.2711
31379SOL    HW2 3106  11.546   9.630  10.642  0.0187  1.4411  2.5771
31380SOL     OW 3107   6.509   8.161   8.394  0.2874 -0.1532  0.5510
31380SOL    HW1 3108   6.425   8.141   8.353  0.0540 -2.4055  1.9796
31380SOL    HW2 3109   6.575   8.127   8.333  0.2502  1.6212 -0.5723
31381SOL     OW 3110   4.996   1.002   5.650  0.0430 -0.0560  0.5016
31381SOL    HW1 3111   5.024   0.964   5.733  1.4328  1.8981  0.9864
31381SOL    HW2 3112   5.059   0.970   5.586  0.2854  0.1974  0.6147
31382SOL     OW 3113   2.605   7.668   6.280  0.2711 -0.1863  0.1082
31382SOL    HW1 3114   2.569   7.735   6.338  2.9224  0.1030  1.6004
31382SOL    HW2 3115   2.638   7.601   6.340 -0.5705 -1.9087 -1.2904
31383SOL     OW 3116   8.265   0.033   0.915  0.0572  0.4669 -0.7243
31383SOL    HW1 3117   8.338   0.094   0.920 -0.8307  1.5111  0.0428
31383SOL    HW2 3118   8.278  -0.026   0.989  0.5065  0.2083 -1.0092
31384SOL     OW 3119   6.554   9.483  10.959 -0.1410 -0.1524 -0.0997
31384SOL    HW1 3120   6.481   9.544  10.970 -0.6675 -0.7971  0.0461
31384SOL    HW2 3121   6.578   9.459  11.049 -0.7002 -1.0430 -0.1758
31385SOL     OW 3122  11.045   7.248   6.793 -0.1778 -0.3729 -0.5391
31385SOL    HW1 3123  10.986   7.273   6.864  0.6053 -0.3642  0.1317
31385SOL    HW2 3124  11.082   7.164   6.821  0.3046 -0.2626 -0.8249
31386SOL     OW 3125  11.809   3.876   2.115  0.0669 -0.1423  0.8277
31386SOL    HW1 3126  11.782   3.799   2.164 -1.4093  0.3093  0.7514
31386SOL    HW2 3127  11.735   3.895   2.057  0.6203  1.0319  0.4836
31387SOL     OW 3128   2.771  12.267   3.819 -0.3580 -1.1536 -0.3193
31387SOL    HW1 3129   2.786  12.343   3.875  0.2976 -0.7773 -0.9903
31387SOL    HW2 3130   2.854  12.219   3.820  0.7051  0.4178 -3.2679
31388SOL     OW 3131   6.448   2.838   0.377 -0.5044 -0.1130 -0.6879
31388SOL    HW1 3132   6.354   2.840   0.392 -0.7300 -1.6234 -1.6923
31388SOL    HW2 3133   6.471   2.745   0.382  0.9548  0.2480 -0.3306
31389SOL     OW 3134   7.385   7.524   8.280  0.3084  0.1156 -0.3839
31389SOL    HW1 3135   7.301   7.500   8.241  0.2145 -0.4062  0.1161
31389SOL    HW2 3136   7.381   7.619   8.291 -1.0844 -0.1150  1.5770
31390SOL     OW 3137  11.471  11.082  10.687  0.1910  0.8079 -0.1550
31390SOL    HW1 3138  11.436  11.048  10.769  1.4219  0.4998  0.2523
31390SOL    HW2 3139  11.412  11.046  10.620  0.7342 -1.1748  0.3596
31391SOL     OW 3140   6.864   5.780   5.610  0.3471 -0.2773 -0.0352
31391SOL    HW1 3141   6.805   5.851   5.631  1.9966  0.8143  1.1564
31391SOL    HW2 3142   6.830   5.705   5.659 -1.3413 -0.3351 -1.2141
31392SOL     OW 3143   3.861   8.896  10.296 -0.2180 -0.3110  0.4444
31392SOL    HW1 3144   3.905   8.920  10.377  0.1562  1.7783 -0.3135
31392SOL    HW2 3145   3.914   8.937  10.227 -0.8197 -1.5917 -0.8189
31393SOL     OW 3146   3.542   8.145   8.381  0.0658  0.5792  0.0570
31393SOL    HW1 3147   3.635   8.123   8.392 -0.0494  0.1841  0.2508
31393SOL    HW2 3148   3.504   8.130   8.467 -0.4331 -0.5192 -0.3427
31394SOL     OW 3149  10.604   9.419   9.341 -0.5332 -0.0638  0.0531
31394SOL    HW1 3150  10.592   9.326   9.360 -0.8680  0.0397  0.3768
31394SOL    HW2 3151  10.573   9.463   9.421 -0.9997  0.3475 -0.3510
31395SOL     OW 3152   0.519   3.062   9.860 -0.1783 -0.3561  0.0024
31395SOL    HW1 3153   0.451   3.077   9.925 -0.3787  1.2276 -0.5345
31395SOL    HW2 3154   0.475   3.077   9.776  0.5558 -0.4071 -0.4003
31396SOL     OW 3155   9.213   7.119   3.472 -0.0142  0.5085 -0.1928
31396SOL    HW1 3156   9.121   7.111   3.446  0.4091  0.1788 -1.6732
31396SOL    HW2 3157   9.239   7.030   3.496  0.3681  0.2460 -1.4704
31397SOL     OW 3158   6.284  12.299   4.624 -0.3238 -0.2467 -0.6271
31397SOL    HW1 3159   6.332  12.368   4.670  0.2892 -1.0737 -0.0011
31397SOL    HW2 3160   6.253  12.241   4.693  1.3366 -1.9926 -1.2551
31398SOL     OW 3161   4.995   6.924   7.203 -0.7081 -0.0317  0.0550
31398SOL    HW1 3162   5.015   6.986   7.273  0.8015 -1.4551  0.9634
31398SOL    HW2 3163   5.075   6.920   7.151 -1.1085 -0.5059 -0.5331
31399SOL     OW 3164   6.142   3.380  11.920 -0.2770  0.0372  0.6154
31399SOL    HW1 3165   6.149   3.338  11.835  1.1669  0.2745  0.5945
31399SOL    HW2 3166   6.122   3.472  11.900 -0.6788 -0.0605  0.5639
31400SOL     OW 3167  11.461  11.766   0.029 -0.8389  0.1526  0.4043
31400SOL    HW1 3168  11.459  11.852   0.072  0.5477  0.4886 -0.1303
31400SOL    HW2 3169  11.531  11.719   0.074  0.5528  0.4621 -1.3299
31401SOL     OW 3170   8.902   1.833   4.792  0.1244 -0.1618 -0.5845
31401SOL    HW1 3171   8.853   1.755   4.816  1.4268 -1.3766 -1.7234
31401SOL    HW2 3172   8.852   1.871   4.719 -0.0760 -0.3756 -0.5609
31402SOL     OW 3173   9.751   8.478   8.589 -0.3103 -0.1691  0.0697
31402SOL    HW1 3174   9.831   8.468   8.640 -0.3859 -1.4732 -0.0416
31402SOL    HW2 3175   9.762   8.420   8.514 -0.6557  0.9124 -0.8588
31403SOL     OW 3176   6.208   4.543   2.524 -0.1390 -0.8010  0.1257
31403SOL    HW1 3177   6.294   4.574   2.495 -0.2576  0.1418  0.7294
31403SOL    HW2 3178   6.172   4.616   2.574 -0.3886 -1.9504  1.7241
31404SOL     OW 3179   4.496   8.084   8.765  0.1088  0.0448 -0.5011
31404SOL    HW1 3180   4.424   8.064   8.824  0.9863  1.7333  1.2405
31404SOL    HW2 3181   4.543   8.001   8.756  0.0846 -0.2207  1.4244
31405SOL     OW 3182  11.139   2.635   1.574  0.2996 -0.3123 -0.4636
31405SOL    HW1 3183  11.084   2.557   1.584 -0.9162  0.6090  0.3554
31405SOL    HW2 3184  11.116   2.670   1.488  0.0291 -0.2631 -0.3730
31406SOL     OW 3185   1.662   5.481   6.541 -0.1440  0.1382  0.6535
31406SOL    HW1 3186   1.725   5.551   6.525  0.1419 -0.5826 -1.7396
31406SOL    HW2 3187   1.579   5.515   6.507 -0.5017  0.1437  1.5186
31407SOL     OW 3188   1.927  10.312   2.903 -0.5668 -0.2285 -0.3215
31407SOL    HW1 3189   1.862  10.280   2.967  1.1971 -2.1020  0.6461
31407SOL    HW2 3190   1.881  10.310   2.819 -2.1831 -0.1114  0.5159
31408SOL     OW 3191   6.588   5.393   3.275  0.1566  0.4128 -0.4983
31408SOL    HW1 3192   6.521   5.330   3.250  0.0384  0.1558  0.4233
31408SOL    HW2 3193   6.619   5.363   3.360 -0.5793  2.0982  0.4326
31409SOL     OW 3194  12.426   7.686   5.585 -0.0411  0.1119 -0.6085
31409SOL    HW1 3195  12.368   7.709   5.513 -1.5465 -0.0281  0.5183
31409SOL    HW2 3196  12.514   7.697   5.550 -0.7404  1.3222 -2.0522
31410SOL     OW 3197   2.763  12.299   1.247 -0.6105  0.2095  0.3617
31410SOL    HW1 3198   2.674  12.330   1.265  0.1726  2.0118  1.5204
31410SOL    HW2 3199   2.818  12.376   1.266  1.3594 -1.4178  1.6471
31411SOL     OW 3200   9.499   8.289   2.002  0.0712  0.0564 -0.1348
31411SOL    HW1 3201   9.440   8.228   1.956  1.0834 -0.5246 -0.6880
31411SOL    HW2 3202   9.499   8.260   2.093  0.4987 -0.7349 -0.3856
31412SOL     OW 3203  11.104   3.813   7.248 -0.0374  0.0342  0.0351
31412SOL    HW1 3204  11.016   3.850   7.243 -0.2387 -0.2537  1.2045
31412SOL    HW2 3205  11.142   3.830   7.162 -0.1930  2.7434  0.4134
31413SOL     OW 3206   4.567   2.063   7.666  0.3895 -0.4593  0.0839
31413SOL    HW1 3207   4.568   1.968   7.675  0.3419 -0.4247  0.4620
31413SOL    HW2 3208   4.527   2.079   7.580  0.0099 -0.7691  0.2025
31414SOL     OW 3209   7.077   9.211   8.522 -0.2989  0.5176  0.5398
31414SOL    HW1 3210   7.153   9.186   8.470  0.1285  0.3197  1.2323
31414SOL    HW2 3211   7.066   9.139   8.584 -1.2079  0.4310  0.2848
31415SOL     OW 3212   0.069   3.247   4.429 -0.1363  0.1309 -0.4402
31415SOL    HW1 3213   0.039   3.330   4.466  1.2022  0.8429 -0.8741
31415SOL    HW2 3214   0.056   3.183   4.499  0.1801  0.9958  0.4308
31416SOL     OW 3215   0.615   9.166   2.928 -0.1694  0.4399  0.7185
31416SOL    HW1 3216   0.675   9.093   2.911 -1.2044 -0.0220 -1.1513
31416SOL    HW2 3217   0.569   9.141   3.008  1.2879  0.2764  1.5484
31417SOL     OW 3218   9.655   0.953   2.488  0.4879 -0.6425 -0.6656
31417SOL    HW1 3219   9.721   0.993   2.431  0.4074  0.3956 -0.0661
31417SOL    HW2 3220   9.695   0.871   2.516  1.4799 -0.1025 -0.4343
31418SOL     OW 3221   9.267   8.811  10.655 -0.6204 -0.1533  0.0601
31418SOL    HW1 3222   9.255   8.876  10.585 -0.6998 -0.3727 -0.1311
31418SOL    HW2 3223   9.241   8.728  10.615 -0.6274 -0.2861  0.3397
31419SOL     OW 3224   5.752   9.603   4.693  0.4846 -0.3785  0.3876
31419SOL    HW1 3225   5.742   9.556   4.775 -1.5847 -0.9416 -0.1177
31419SOL    HW2 3226   5.728   9.539   4.625  0.0765  0.6672 -0.4923
31420SOL     OW 3227  11.766  10.928   0.081  0.0668 -0.2544  0.4560
31420SOL    HW1 3228  11.817  10.917   0.161 -2.1833 -1.8241  1.7999
31420SOL    HW2 3229  11.730  10.841   0.063 -0.6153  0.3702 -1.4880
31421SOL     OW 3230   2.537   6.117   2.483 -0.3037  0.2141 -0.3109
31421SOL    HW1 3231   2.461   6.127   2.541  0.0332  0.0463  0.1647
31421SOL    HW2 3232   2.504   6.139   2.396 -1.0726 -0.5236 -0.2173
31422SOL     OW 3233   0.521   4.574   7.431 -0.0150  0.2536  1.0237
31422SOL    HW1 3234   0.432   4.608   7.426  0.5343  1.6094 -1.8453
31422SOL    HW2 3235   0.558   4.614   7.510 -1.2051  1.6993  0.8834
31423SOL     OW 3236   9.752  10.993   4.280  0.3191  0.1707 -0.2136
31423SOL    HW1 3237   9.760  11.071   4.335 -0.6641 -0.1267  0.3757
31423SOL    HW2 3238   9.780  10.921   4.338 -1.7845 -0.2884  0.3193
31424SOL     OW 3239   2.590  12.560   9.526  0.4882  0.8074  0.2720
31424SOL    HW1 3240   2.497  12.537   9.530  0.5202  0.5631 -0.3723
31424SOL    HW2 3241   2.595  12.643   9.573 -0.1138  0.9997  0.0093
31425SOL     OW 3242  12.303  11.531   7.607  0.3892  0.4563 -0.5669
31425SOL    HW1 3243  12.387  11.522   7.562  0.5981 -0.5158 -0.0092
31425SOL    HW2 3244  12.316  11.605   7.667  0.8001  0.3977 -0.5805
31426SOL     OW 3245  10.272   3.174   9.866  0.1382  0.2736  0.1404
31426SOL    HW1 3246  10.197   3.115   9.871 -0.2434  0.7596  0.0682
31426SOL    HW2 3247  10.303   3.165   9.776  0.0681  0.2063  0.1223
31427SOL     OW 3248   1.152  10.446   8.489 -0.1402  0.1418  0.4782
31427SOL    HW1 3249   1.079  10.497   8.455  1.2776  1.6165 -0.4691
31427SOL    HW2 3250   1.195  10.504   8.552  0.9935 -0.1755  0.0270
31428SOL     OW 3251  11.369  11.218   0.081  0.0167 -0.0400 -0.0394
31428SOL    HW1 3252  11.380  11.264   0.164  3.1981  0.1753 -0.4421
31428SOL    HW2 3253  11.381  11.125   0.104 -1.1094 -0.1756  0.0173
31429SOL     OW 3254   7.278   5.001   1.983  0.4366  0.8986 -0.7803
31429SOL    HW1 3255   7.266   5.034   2.071  2.0257 -1.4303  0.4202
31429SOL    HW2 3256   7.346   5.058   1.945  1.1670  0.7046  0.2203
31430SOL     OW 3257  10.832   5.039   9.432  0.0399  0.1620  0.2949
31430SOL    HW1 3258  10.861   5.127   9.454 -0.3467  0.2000  0.6710
31430SOL    HW2 3259  10.770   5.051   9.360 -0.4085  0.2531  0.6877
31431SOL     OW 3260  12.541  11.456   7.502 -0.4530 -0.5130 -0.3797
31431SOL    HW1 3261  12.545  11.433   7.409 -0.9115 -2.4888  0.0496
31431SOL    HW2 3262  12.614  11.408   7.541 -0.7335 -0.3206  0.3908
31432SOL     OW 3263   1.487   8.538   9.230  0.2673 -0.4480 -0.4796
31432SOL    HW1 3264   1.541   8.558   9.154 -0.3639  0.3717 -0.7253
31432SOL    HW2 3265   1.399   8.567   9.205  0.2673  0.9340  0.9849
31433SOL     OW 3266   8.606   0.103  10.543 -0.9560  0.3345  0.1115
31433SOL    HW1 3267   8.546   0.059  10.483 -0.1958  0.3022 -0.6444
31433SOL    HW2 3268   8.694   0.077  10.513 -0.4595  2.5527 -0.5552
31434SOL     OW 3269   8.737   9.139   8.358  0.2196 -0.4629 -0.2594
31434SOL    HW1 3270   8.704   9.052   8.339  1.5467 -0.8985 -0.6694
31434SOL    HW2 3271   8.802   9.126   8.427 -0.9250  0.4680  1.0634
31435SOL     OW 3272   6.778   6.426   1.170  0.3842  0.1055  0.4489
31435SOL    HW1 3273   6.813   6.512   1.148  1.6622 -0.3070  0.7938
31435SOL    HW2 3274   6.854   6.376   1.200 -0.6273 -0.5995  1.9509
31436SOL     OW 3275  11.542   9.808  11.668 -0.2379 -0.8473  0.1357
31436SOL    HW1 3276  11.491   9.852  11.600  0.9068  0.3815  0.0268
31436SOL    HW2 3277  11.624   9.857  11.672 -0.6811 -0.1339  3.2036
31437SOL     OW 3278  11.568  10.356   6.103  0.3853  0.2191  0.2185
31437SOL    HW1 3279  11.625  10.385   6.032  2.2406  1.5672  2.1265
31437SOL    HW2 3280  11.603  10.271   6.129 -0.3613 -0.3243 -0.5167
31438SOL     OW 3281   9.537  11.095  10.965 -0.6481  0.1203  0.2605
31438SOL    HW1 3282   9.592  11.108  10.889 -0.0913  0.0930  0.6544
31438SOL    HW2 3283   9.475  11.168  10.963  1.4245  2.0369  1.5841
31439SOL     OW 3284   7.423   8.592   0.119  0.4825  0.2447 -0.1355
31439SOL    HW1 3285   7.376   8.583   0.037  0.6301 -0.1427 -0.1763
31439SOL    HW2 3286   7.451   8.684   0.121 -0.5583  0.5703  0.0455
31440SOL     OW 3287   1.767   3.623   4.428  0.0136 -0.6609 -0.5293
31440SOL    HW1 3288   1.840   3.671   4.466 -0.1278 -0.8193 -0.0487
31440SOL    HW2 3289   1.736   3.679   4.357 -1.8876  1.3154  1.6834
31441SOL     OW 3290   8.135   5.280   2.181 -0.0542  0.1960  0.5640
31441SOL    HW1 3291   8.102   5.200   2.222  1.6002 -0.8153 -0.0101
31441SOL    HW2 3292   8.065   5.344   2.196 -1.7665 -1.5214  0.3747
31442SOL     OW 3293   8.152   0.805   7.516 -0.0279 -0.7400  0.1185
31442SOL    HW1 3294   8.104   0.723   7.501 -0.6017 -0.2822 -0.5887
31442SOL    HW2 3295   8.244   0.779   7.514 -0.1436 -1.1324 -1.7016
31443SOL     OW 3296   7.833  10.608  11.336  0.7606 -0.1880 -0.0839
31443SOL    HW1 3297   7.911  10.656  11.363  0.3172  0.7898 -0.4946
31443SOL    HW2 3298   7.829  10.620  11.241  0.3439 -0.5933 -0.1214
31444SOL     OW 3299   8.432   8.546   0.119  0.5859  0.2939  0.8706
31444SOL    HW1 3300   8.405   8.633   0.090  3.3357  0.9687  0.0833
31444SOL    HW2 3301   8.468   8.560   0.206 -0.2424 -0.3424  1.3322
31445SOL     OW 3302   2.818   3.341   2.105  0.1882  0.2866  0.0672
31445SOL    HW1 3303   2.748   3.393   2.145 -0.2059 -0.6256  0.5929
31445SOL    HW2 3304   2.893   3.353   2.163  0.5315  1.3778 -0.5713
31446SOL     OW 3305   9.855   4.254   5.895  0.0648  0.0869 -0.3783
31446SOL    HW1 3306   9.792   4.185   5.916 -0.0932  0.5434  0.6723
31446SOL    HW2 3307   9.870   4.243   5.801 -0.0022 -1.3430 -0.2574
31447SOL     OW 3308   8.607   6.531   6.161 -0.5049  0.3848 -0.1825
31447SOL    HW1 3309   8.581   6.525   6.253 -1.7168  2.1629 -0.3544
31447SOL    HW2 3310   8.699   6.504   6.160 -0.6243 -0.1960  1.4527
31448SOL     OW 3311   7.625   6.013   7.141  0.1747  0.2781 -0.0908
31448SOL    HW1 3312   7.628   5.919   7.157  0.3904  0.2870 -0.0789
31448SOL    HW2 3313   7.532   6.033   7.130  0.1790 -0.0643 -0.8456
31449SOL     OW 3314   8.376  11.844   1.555 -0.4427 -0.1141 -0.2761
31449SOL    HW1 3315   8.356  11.826   1.463  0.0661  0.1394 -0.4376
31449SOL    HW2 3316   8.446  11.783   1.577  1.5910  1.8440 -0.9437
31450SOL     OW 3317   7.101  11.736   2.565  0.3320  0.1124 -0.4717
31450SOL    HW1 3318   7.018  11.694   2.587 -0.5583  2.0669  0.0715
31450SOL    HW2 3319   7.090  11.765   2.475  1.0890 -1.0493 -0.9754
31451SOL     OW 3320   6.632  12.398  11.515  0.5565 -0.2675  0.4748
31451SOL    HW1 3321   6.612  12.455  11.442  0.3954 -1.3034 -0.3111
31451SOL    HW2 3322   6.648  12.458  11.589 -0.9323  0.7365  0.0210
31452SOL     OW 3323   9.440   3.573   3.572 -0.0373 -0.1635 -0.9429
31452SOL    HW1 3324   9.516   3.625   3.546 -0.7669  1.2272 -0.3893
31452SOL    HW2 3325   9.473   3.483   3.576  1.9324  0.5451  0.5388
31453SOL     OW 3326   1.033   5.983   7.396  0.0994 -0.1038  0.2877
31453SOL    HW1 3327   0.940   5.981   7.372  0.2837 -1.5359 -0.3636
31453SOL    HW2 3328   1.034   6.028   7.481 -0.9570  1.6937 -0.5785
31454SOL     OW 3329  10.001  11.678  12.049  0.0401  0.3368 -0.5011
31454SOL    HW1 3330  10.070  11.720  12.100 -0.4122 -1.0776  1.3586
31454SOL    HW2 3331  10.011  11.585  12.066 -2.0085  0.0538 -0.5624
31455SOL     OW 3332   0.893   3.851   2.152 -0.2024  0.1631  0.0252
31455SOL    HW1 3333   0.861   3.919   2.211 -0.9334  0.9389 -1.2053
31455SOL    HW2 3334   0.819   3.790   2.144  0.4927 -0.8783  1.2194
31456SOL     OW 3335   8.645   1.261  11.874  0.4389  0.0831  0.3301
31456SOL    HW1 3336   8.585   1.314  11.822  0.7337  0.9716  0.8732
31456SOL    HW2 3337   8.680   1.197  11.812 -1.2746 -0.6560  0.0619
31457SOL     OW 3338  10.820   6.783   7.633  0.1967  0.8415 -0.7818
31457SOL    HW1 3339  10.869   6.702   7.650 -0.7758  0.3896 -0.0421
31457SOL    HW2 3340  10.879   6.852   7.664  0.1306  0.2648  0.7200
31458SOL     OW 3341   2.195   9.791   0.801  0.5563 -0.2708 -0.4668
31458SOL    HW1 3342   2.196   9.737   0.880  0.6673  0.5815  0.1308
31458SOL    HW2 3343   2.197   9.881   0.833  2.3877  0.0899 -1.4591
31459SOL     OW 3344   2.966   6.752   8.570  0.3801  0.4709 -0.5945
31459SOL    HW1 3345   3.015   6.670   8.558  0.8521  0.7580 -0.6522
31459SOL    HW2 3346   2.911   6.736   8.646  1.7861  0.7099  0.4961
31460SOL     OW 3347   8.844   2.628   9.087 -0.0378 -0.0256  0.3065
31460SOL    HW1 3348   8.780   2.561   9.114  0.2354 -1.2042 -1.7489
31460SOL    HW2 3349   8.927   2.598   9.124 -0.0372 -0.4941 -0.0593
31461SOL     OW 3350   0.903   2.842   3.996 -0.7401 -0.0075 -0.8112
31461SOL    HW1 3351   0.970   2.776   4.008 -0.8735 -0.0524 -0.2739
31461SOL    HW2 3352   0.851   2.811   3.923 -0.9784 -0.6500 -0.3752
31462SOL     OW 3353   9.557   9.843   7.410  0.1855 -0.2197 -0.0630
31462SOL    HW1 3354   9.466   9.820   7.391  0.4454 -0.1900 -1.4110
31462SOL    HW2 3355   9.555   9.937   7.428 -0.1274 -0.3341  0.5498
31463SOL     OW 3356   9.326  11.722   2.054 -0.5391 -0.5720 -0.4145
31463SOL    HW1 3357   9.350  11.808   2.019 -1.8504 -1.1298 -2.9750
31463SOL    HW2 3358   9.393  11.663   2.019  0.4225 -0.6307  1.4294
31464SOL     OW 3359   8.311   2.162  11.038 -0.2161 -0.2602 -0.6454
31464SOL    HW1 3360   8.378   2.139  11.102 -0.9420 -2.0636 -0.4852
31464SOL    HW2 3361   8.272   2.243  11.072  0.8248 -0.0372  0.0614
31465SOL     OW 3362   1.459   7.941   6.498 -0.5101 -0.0973 -0.2980
31465SOL    HW1 3363   1.365   7.925   6.495 -0.8096  1.3722  0.5343
31465SOL    HW2 3364   1.497   7.868   6.448 -2.0621 -0.7801 -0.5413
31466SOL     OW 3365   5.012   5.691   5.286 -0.1157 -0.3784 -0.0703
31466SOL    HW1 3366   4.969   5.606   5.281  1.9752 -1.5122  0.0197
31466SOL    HW2 3367   5.089   5.676   5.341  0.4467  1.5188 -0.2570
31467SOL     OW 3368   6.429   8.706  12.032  0.0214  0.2952 -0.3250
31467SOL    HW1 3369   6.407   8.626  11.984 -1.6991  0.1030  0.6924
31467SOL    HW2 3370   6.345   8.742  12.058  0.8499  1.1935  1.2588
31468SOL     OW 3371   3.105  11.301   9.640  0.1558  0.6704  0.4718
31468SOL    HW1 3372   3.079  11.290   9.548 -1.0962  2.8243  0.5116
31468SOL    HW2 3373   3.040  11.251   9.690  0.0903  0.5377  0.2555
31469SOL     OW 3374   8.199   2.284   0.203  0.3028  0.2344 -0.2026
31469SOL    HW1 3375   8.205   2.199   0.158 -0.1767 -0.2402  0.5959
31469SOL    HW2 3376   8.154   2.341   0.141 -1.0620 -0.6237 -0.0473
31470SOL     OW 3377   3.128   7.214   4.349  0.1206 -0.1492  0.0315
31470SOL    HW1 3378   3.150   7.166   4.428 -1.8776  2.7039  2.5723
31470SOL    HW2 3379   3.035   7.196   4.335  0.0924  0.5369 -0.7616
31471SOL     OW 3380   5.332   1.415   9.112  0.0626 -0.4888 -0.0236
31471SOL    HW1 3381   5.251   1.463   9.097  0.1005 -0.5832 -0.5502
31471SOL    HW2 3382   5.383   1.471   9.170 -0.4748 -0.5339  0.4918
31472SOL     OW 3383   2.237   3.998   3.632 -0.3771 -0.0523  0.0698
31472SOL    HW1 3384   2.320   4.026   3.592  0.5251  0.5639  2.2275
31472SOL    HW2 3385   2.252   3.907   3.657 -1.2658 -0.7325 -1.7341
31473SOL     OW 3386   6.750   2.633   3.124 -0.2432 -0.1251 -0.0665
31473SOL    HW1 3387   6.678   2.644   3.187 -0.9673  0.8022 -1.0204
31473SOL    HW2 3388   6.786   2.547   3.145 -1.1507 -0.2932  0.9284
31474SOL     OW 3389  11.563   9.753  11.101  0.0450 -0.0989  0.3656
31474SOL    HW1 3390  11.614   9.715  11.030 -0.6372  1.8405 -1.2615
31474SOL    HW2 3391  11.619   9.823  11.136  0.6559 -1.4533  2.2595
31475SOL     OW 3392  11.744  10.186   7.304 -0.4143  0.1285  0.7577
31475SOL    HW1 3393  11.795  10.126   7.249  0.6563 -0.7191  2.5788
31475SOL    HW2 3394  11.654  10.154   7.299 -0.4328  0.3595 -0.8370
31476SOL     OW 3395   5.499  10.538   1.127  0.3368  0.3204  0.7298
31476SOL    HW1 3396   5.428  10.493   1.081 -1.2682  1.6004  1.8403
31476SOL    HW2 3397   5.572  10.476   1.124 -1.4299 -1.9376  1.2600
31477SOL     OW 3398  10.352   9.193   5.416 -0.1942 -0.2597 -0.4334
31477SOL    HW1 3399  10.428   9.162   5.465 -0.6265 -2.0335 -0.8211
31477SOL    HW2 3400  10.379   9.189   5.325 -0.7295 -0.8498 -0.5704
31478SOL     OW 3401   2.022   7.062   7.668 -0.2936 -0.4176 -0.4146
31478SOL    HW1 3402   2.076   7.014   7.731  0.9306  0.3305 -0.8711
31478SOL    HW2 3403   2.080   7.129   7.632 -1.6641  0.7228 -0.5893
31479SOL     OW 3404   0.791   5.285  12.151  0.0546  0.2343  0.9482
31479SOL    HW1 3405   0.826   5.199  12.175 -1.2354 -0.3846  0.6965
31479SOL    HW2 3406   0.854   5.319  12.086  0.5960 -0.4908  1.0779
31480SOL     OW 3407   4.931  10.006  11.857  0.2566  0.3300  0.5139
31480SOL    HW1 3408   4.842  10.041  11.854 -0.8426 -2.1988  0.9692
31480SOL    HW2 3409   4.978  10.065  11.917 -1.4326  1.0625  1.1924
31481SOL     OW 3410  11.858  10.495  10.278 -0.4397  0.2346  0.1903
31481SOL    HW1 3411  11.854  10.591  10.285 -0.2353  0.2966 -0.4574
31481SOL    HW2 3412  11.905  10.467  10.356  1.8940  0.8771 -0.9140
31482SOL     OW 3413   0.312  12.273   1.259 -0.0710  0.2767 -0.7671
31482SOL    HW1 3414   0.292  12.359   1.295  0.4022  0.1507 -0.1863
31482SOL    HW2 3415   0.395  12.248   1.300  0.7372  0.3238 -2.3109
31483SOL     OW 3416   6.745   6.929   7.083  0.0191 -1.1107 -0.0056
31483SOL    HW1 3417   6.653   6.952   7.077 -0.4412 -2.9937 -1.1714
31483SOL    HW2 3418   6.766   6.936   7.176 -0.2888  2.6786 -0.0751
31484SOL     OW 3419   0.241   9.986   7.195 -0.4239  0.1093 -0.7798
31484SOL    HW1 3420   0.250  10.077   7.168  0.0108 -0.1827 -1.6415
31484SOL    HW2 3421   0.186   9.946   7.128 -0.2142 -0.3751 -0.6679
31485SOL     OW 3422   2.709   7.529   5.367 -0.3661 -0.1969 -0.7084
31485SOL    HW1 3423   2.705   7.504   5.459  2.1444 -0.2359 -0.5155
31485SOL    HW2 3424   2.637   7.483   5.326 -1.7950  0.1426  1.2872
31486SOL     OW 3425   4.311   9.929   2.154  0.4192  0.0908 -0.4423
31486SOL    HW1 3426   4.258   9.920   2.233 -0.2200  0.1556 -0.8595
31486SOL    HW2 3427   4.336  10.022   2.153  0.2963  0.1240 -0.4057
31487SOL     OW 3428   5.165   6.240   7.072 -0.6516  0.0464  0.2012
31487SOL    HW1 3429   5.191   6.332   7.083 -0.7118 -0.1710  2.8437
31487SOL    HW2 3430   5.247   6.193   7.057 -0.6767  0.5411 -1.7737
31488SOL     OW 3431   1.096   3.969   9.681  0.2494  0.6070  0.1634
31488SOL    HW1 3432   1.039   3.908   9.634 -0.8040  0.1120  1.9973
31488SOL    HW2 3433   1.038   4.039   9.710  0.8432  0.8180  0.8747
31489SOL     OW 3434  11.615   9.847   3.982 -0.3137 -0.1987 -0.0998
31489SOL    HW1 3435  11.579   9.780   3.923 -1.3761  1.5953 -1.6181
31489SOL    HW2 3436  11.544   9.865   4.044 -0.6578  0.6462 -0.7198
31490SOL     OW 3437  12.182   3.597  10.786 -0.0364 -0.0051  0.5987
31490SOL    HW1 3438  12.240   3.626  10.857  0.4742  1.1465 -0.2566
31490SOL    HW2 3439  12.179   3.672  10.725  0.5587 -1.3872 -1.2263
31491SOL     OW 3440   5.423  10.298   4.903  0.0911 -0.4296  0.1725
31491SOL    HW1 3441   5.348  10.251   4.939  1.1670 -1.0197  1.7451
31491SOL    HW2 3442   5.400  10.312   4.811 -1.4075 -1.6769  0.3066
31492SOL     OW 3443  10.151   8.531   3.401 -0.1607 -1.0020  0.1904
31492SOL    HW1 3444  10.085   8.578   3.350  0.6778 -0.3941 -0.3755
31492SOL    HW2 3445  10.235   8.561   3.364  0.4198 -2.1234  0.5565
31493SOL     OW 3446   8.292   5.400  12.066 -0.6048  0.1688  0.6590
31493SOL    HW1 3447   8.277   5.486  12.106  1.2588  1.4092 -1.1175
31493SOL    HW2 3448   8.244   5.403  11.984 -0.3779 -0.4124  0.5012
31494SOL     OW 3449   8.338  12.162   2.048  0.3692  0.3370 -0.1636
31494SOL    HW1 3450   8.299  12.206   2.124  0.0544 -0.3497  0.0844
31494SOL    HW2 3451   8.380  12.232   1.998 -1.4168  1.1655 -0.5763
31495SOL     OW 3452   6.254   5.646   4.595 -0.6313  0.4172 -0.0972
31495SOL    HW1 3453   6.296   5.676   4.675 -0.3898 -1.0796  0.3728
31495SOL    HW2 3454   6.324   5.648   4.529 -0.0123 -1.2230  0.4705
31496SOL     OW 3455   2.258   8.781   1.296 -0.2116 -0.3476  0.4806
31496SOL    HW1 3456   2.262   8.704   1.241 -0.5967  0.6862 -1.0583
31496SOL    HW2 3457   2.350   8.809   1.306 -0.1606 -0.3878  0.1286
31497SOL     OW 3458   7.859   7.798   4.368  0.4097  0.8341  0.3422
31497SOL    HW1 3459   7.803   7.824   4.295 -2.0168 -2.8754  0.6410
31497SOL    HW2 3460   7.811   7.826   4.446 -1.1730 -2.1969  0.5925
31498SOL     OW 3461   1.359   9.621   6.092 -0.6242  0.7733 -0.4360
31498SOL    HW1 3462   1.272   9.610   6.053 -1.3709  0.2601  1.2669
31498SOL    HW2 3463   1.415   9.562   6.043 -1.8466 -0.9584  0.1562
31499SOL     OW 3464   2.066   6.853   0.760  0.1315 -0.1297  0.0472
31499SOL    HW1 3465   2.036   6.853   0.851 -2.5759 -0.8844 -0.7487
31499SOL    HW2 3466   2.040   6.768   0.726  0.2643  0.4607 -1.6545
31500SOL     OW 3467   3.318   1.012   7.468 -0.0903 -0.6493  0.1257
31500SOL    HW1 3468   3.303   1.000   7.374 -1.9940  1.8784  0.0084
31500SOL    HW2 3469   3.386   1.079   7.474 -0.1049 -0.6681  0.5624
31501SOL     OW 3470   2.979   0.422   8.587 -0.0433 -0.2071  0.0182
31501SOL    HW1 3471   2.942   0.377   8.512 -2.2518  0.4223  0.6452
31501SOL    HW2 3472   2.910   0.418   8.654  1.0682  0.9829  1.3118
31502SOL     OW 3473   2.277  10.096   0.336  0.0790  0.3589  0.5701
31502SOL    HW1 3474   2.366  10.122   0.310  0.4944 -0.8263  0.7520
31502SOL    HW2 3475   2.272  10.004   0.312  0.1152 -0.5578  3.7311
31503SOL     OW 3476   2.203  10.930   6.954 -0.3365 -0.5454  0.0106
31503SOL    HW1 3477   2.243  10.871   6.890  0.3846 -1.5280  1.3243
31503SOL    HW2 3478   2.206  10.882   7.036 -1.4328  0.6124  0.7588
31504SOL     OW 3479   5.176  10.556   9.297  1.1340  0.3243 -0.3072
31504SOL    HW1 3480   5.270  10.574   9.294  0.9241  1.4022 -1.3282
31504SOL    HW2 3481   5.161  10.492   9.227  1.0134  0.7022 -0.6330
31505SOL     OW 3482   8.381  11.832  12.122 -0.4226  0.5894 -0.0779
31505SOL    HW1 3483   8.343  11.851  12.036 -0.8537  0.2016  0.0244
31505SOL    HW2 3484   8.437  11.907  12.140 -0.1510  0.5700 -0.7987
31506SOL     OW 3485   4.322  11.902   2.627  0.2558 -0.0255 -0.7926
31506SOL    HW1 3486   4.280  11.908   2.542 -1.9087 -2.5945 -0.0216
31506SOL    HW2 3487   4.396  11.842   2.614  0.2225 -0.0256 -0.9700
31507SOL     OW 3488   3.385   4.989   0.552  0.3180 -0.6888 -0.0106
31507SOL    HW1 3489   3.373   4.920   0.617 -0.2103 -0.9286 -0.3535
31507SOL    HW2 3490   3.454   4.956   0.494 -0.6776 -1.4190 -0.8060
31508SOL     OW 3491   0.105  10.594   3.705  0.0544 -0.6291  0.3256
31508SOL    HW1 3492   0.158  10.516   3.722  0.7882 -0.0283  0.8504
31508SOL    HW2 3493   0.025  10.560   3.663  0.4230 -1.6396  0.4117
31509SOL     OW 3494   9.467   8.764   1.123  0.2770 -0.5930 -0.4234
31509SOL    HW1 3495   9.452   8.805   1.038 -1.8363  0.4218  0.3836
31509SOL    HW2 3496   9.505   8.834   1.177 -0.6662 -0.5006  0.1395
31510SOL     OW 3497   1.711  10.875   8.924 -0.2597 -0.4874  0.2810
31510SOL    HW1 3498   1.674  10.923   8.999  1.0906 -1.0755  1.3588
31510SOL    HW2 3499   1.790  10.924   8.902  0.7257 -1.7468  0.9079
31511SOL     OW 3500   5.230   6.710  11.725 -1.0027  0.4765 -0.0030
31511SOL    HW1 3501   5.163   6.647  11.753 -0.0867 -0.0660  1.0399
31511SOL    HW2 3502   5.281   6.663  11.659 -1.4559  0.7770 -0.5666
31512SOL     OW 3503   1.988   9.590  10.525 -0.2345  0.1667 -0.2615
31512SOL    HW1 3504   2.069   9.640  10.541 -0.0981  0.1718 -0.9409
31512SOL    HW2 3505   2.002   9.508  10.572 -0.2489  0.5544  0.4436
31513SOL     OW 3506   8.647   5.788  12.563  0.3139 -0.1781 -0.6510
31513SOL    HW1 3507   8.688   5.731  12.497 -0.2198 -1.5025  0.1252
31513SOL    HW2 3508   8.641   5.733  12.641  1.2312  1.4549  0.6300
31514SOL     OW 3509   5.883   6.398   9.997  0.1671 -0.4196 -0.3731
31514SOL    HW1 3510   5.917   6.451  10.069 -0.8287  0.6557 -0.6743
31514SOL    HW2 3511   5.955   6.397   9.933  0.6944 -0.5836  0.2086
31515SOL     OW 3512   4.051   9.358   5.067  0.2139  0.1498 -0.1556
31515SOL    HW1 3513   4.028   9.266   5.080  0.0786 -0.1541 -2.2091
31515SOL    HW2 3514   4.077   9.389   5.154  0.7546 -1.9572  0.4833
31516SOL     OW 3515   6.409   4.412   9.687 -0.7349  0.0768 -0.0711
31516SOL    HW1 3516   6.331   4.461   9.661 -0.8917 -0.2201 -0.1740
31516SOL    HW2 3517   6.380   4.320   9.686 -0.1639 -0.0995 -0.9200
31517SOL     OW 3518   0.694   1.448   1.284 -0.1223 -0.0845 -0.0809
31517SOL    HW1 3519   0.626   1.417   1.344  0.1851 -0.5283  0.0450
31517SOL    HW2 3520   0.660   1.530   1.250 -0.4670 -0.0151  0.4175
31518SOL     OW 3521   1.281  11.890   1.929  0.3453 -0.3738  0.0322
31518SOL    HW1 3522   1.242  11.806   1.906  0.0147 -0.3320  0.4316
31518SOL    HW2 3523   1.373  11.881   1.905  0.2639 -0.7614 -0.1482
31519SOL     OW 3524   8.061  11.008  10.468  0.0416 -0.1646  0.1296
31519SOL    HW1 3525   8.113  11.063  10.527 -1.3140 -1.1009  2.3201
31519SOL    HW2 3526   8.030  11.068  10.400 -1.0405  1.7538  2.2012
31520SOL     OW 3527   9.712  11.979   7.744 -0.7526 -0.1110  0.0883
31520SOL    HW1 3528   9.665  12.038   7.803  0.3980  0.5442  0.3830
31520SOL    HW2 3529   9.736  11.904   7.799 -0.5493  0.0429  0.2143
31521SOL     OW 3530   2.655   6.650   1.916 -0.3880 -1.0874 -0.2104
31521SOL    HW1 3531   2.638   6.719   1.852  0.3380 -0.5760  0.1431
31521SOL    HW2 3532   2.583   6.657   1.979  0.2849  0.1309  0.4744
31522SOL     OW 3533   8.949   0.037  11.330  0.5874  0.0523 -0.7462
31522SOL    HW1 3534   9.030   0.076  11.364 -0.0339  0.8998 -0.1865
31522SOL    HW2 3535   8.925  -0.029  11.395 -0.3929  1.4066  0.3424
31523SOL     OW 3536   7.902   9.010  10.195 -0.9318  0.2986 -0.8740
31523SOL    HW1 3537   7.886   9.093  10.150 -2.6272 -0.7512 -2.3790
31523SOL    HW2 3538   7.921   8.948  10.124  1.0527 -0.5028  0.2596
31524SOL     OW 3539   5.568   2.038   4.388  0.2036  0.0798  0.4570
31524SOL    HW1 3540   5.485   1.995   4.368  0.1674 -0.4486  1.6228
31524SOL    HW2 3541   5.635   1.978   4.356  0.1648  0.9795 -1.4173
31525SOL     OW 3542  11.865   3.621   8.491 -0.3291  0.2186 -0.2617
31525SOL    HW1 3543  11.882   3.672   8.571 -0.0415 -0.4202  0.0886
31525SOL    HW2 3544  11.780   3.654   8.459 -0.4608  0.4576  0.3211
31526SOL     OW 3545   6.526   5.458   9.946  0.2002 -0.6189 -0.2893
31526SOL    HW1 3546   6.522   5.479   9.852  1.3532 -0.1259 -0.2399
31526SOL    HW2 3547   6.460   5.389   9.957 -0.1850 -0.4581 -1.3985
31527SOL     OW 3548   7.629   3.805  10.300  0.2943  0.3550  0.1353
31527SOL    HW1 3549   7.622   3.828  10.392  0.4389 -0.5276  0.3778
31527SOL    HW2 3550   7.640   3.710  10.300 -2.1679 -0.0013 -0.9114
31528SOL     OW 3551   9.054   1.991   2.954 -0.1165  0.1360 -0.0150
31528SOL    HW1 3552   8.992   1.932   2.996 -1.2113  0.2136 -1.4737
31528SOL    HW2 3553   9.136   1.940   2.951 -0.1140 -0.0314  1.7501
31529SOL     OW 3554   1.347  12.183   5.208  0.0609  0.4629 -0.6343
31529SOL    HW1 3555   1.394  12.185   5.125 -0.1919  0.5480 -0.7775
31529SOL    HW2 3556   1.412  12.208   5.273  0.8430 -1.7516 -0.5135
31530SOL     OW 3557   5.037   9.794   7.925 -1.1376 -0.2941  0.0051
31530SOL    HW1 3558   4.949   9.787   7.961 -0.8925 -0.2152  0.6173
31530SOL    HW2 3559   5.058   9.705   7.896 -0.3342 -0.9684  2.4203
31531SOL     OW 3560  10.660   4.099   7.871  0.5942  0.4688  0.2077
31531SOL    HW1 3561  10.742   4.148   7.861  0.4335  1.0818  1.5703
31531SOL    HW2 3562  10.593   4.154   7.830  0.8128  0.1082 -0.6421
31532SOL     OW 3563  10.075   5.712  11.278 -0.3095 -0.5446 -0.3673
31532SOL    HW1 3564   9.991   5.752  11.302 -0.5512 -1.0080 -0.4304
31532SOL    HW2 3565  10.107   5.766  11.205 -1.5745 -1.6241 -1.7819
31533SOL     OW 3566   1.590   1.185   9.950 -0.1197  0.5980 -0.3922
31533SOL    HW1 3567   1.549   1.132  10.018  0.3463 -1.3835 -1.5610
31533SOL    HW2 3568   1.672   1.216   9.989  0.1151 -0.4608 -0.0090
31534SOL     OW 3569   1.589  11.763   5.958  0.0430  0.3647  0.6946
31534SOL    HW1 3570   1.626  11.676   5.944 -4.3193 -1.3306 -2.4423
31534SOL    HW2 3571   1.608  11.811   5.878  0.4644  1.5899  1.4927
31535SOL     OW 3572   3.543   4.456   7.724  0.0351 -0.2108  0.4572
31535SOL    HW1 3573   3.498   4.380   7.689 -0.6733  0.1257  0.5963
31535SOL    HW2 3574   3.552   4.437   7.818 -0.9001  0.2128  0.6533
31536SOL     OW 3575   4.440   1.243   0.282 -0.2139  0.0879  0.6807
31536SOL    HW1 3576   4.465   1.205   0.198 -1.5156  1.3087 -0.3175
31536SOL    HW2 3577   4.374   1.182   0.317 -0.7364  0.3111  0.1039
31537SOL     OW 3578  12.564   3.783   2.452  0.4474 -0.0675  0.1159
31537SOL    HW1 3579  12.558   3.707   2.510  0.2924  0.3289  0.6335
31537SOL    HW2 3580  12.590   3.855   2.510 -2.7613  1.0540  0.3558
31538SOL     OW 3581  10.555  11.567   2.267  0.2641 -0.2195 -0.4601
31538SOL    HW1 3582  10.464  11.594   2.255  0.4983  1.1691  0.6313
31538SOL    HW2 3583  10.591  11.630   2.329  2.1076 -0.4377 -1.2269
31539SOL     OW 3584   8.832  10.712   3.789 -0.1105  0.0839  0.4279
31539SOL    HW1 3585   8.824  10.769   3.865 -2.7373 -0.8133  0.9346
31539SOL    HW2 3586   8.877  10.634   3.822  1.6374  0.9614  0.2233
31540SOL     OW 3587   4.786   1.036   1.353 -0.4361 -0.0137  0.0734
31540SOL    HW1 3588   4.820   1.024   1.442 -0.1636  0.4592  0.0336
31540SOL    HW2 3589   4.718   1.102   1.363 -1.4325 -1.0177  0.1694
31541SOL     OW 3590   4.978   6.666  11.378  0.4063 -0.1028  0.1225
31541SOL    HW1 3591   4.924   6.658  11.457  0.3911  1.7234  0.3417
31541SOL    HW2 3592   5.063   6.630  11.403 -0.1795 -1.4151  0.3104
31542SOL     OW 3593  10.437   7.851   1.238 -0.4611  0.0691  0.2796
31542SOL    HW1 3594  10.532   7.843   1.244 -0.4741 -0.5241 -0.2255
31542SOL    HW2 3595  10.403   7.767   1.271 -0.7461 -0.3633 -1.0660
31543SOL     OW 3596  10.761   5.564  11.161 -0.0754  0.8188 -0.0459
31543SOL    HW1 3597  10.832   5.578  11.098 -0.3436  0.9471 -0.3245
31543SOL    HW2 3598  10.684   5.551  11.107 -0.3380  1.0831  0.2604
31544SOL     OW 3599  12.198   1.289   5.827  0.2290  0.2061 -0.0163
31544SOL    HW1 3600  12.121   1.323   5.871 -0.0705  0.7911 -0.9507
31544SOL    HW2 3601  12.269   1.348   5.853 -0.5327  2.4867 -2.6392
31545SOL     OW 3602   2.526   8.656   3.465 -0.1490  0.6195  0.7685
31545SOL    HW1 3603   2.610   8.627   3.428 -0.8208 -0.5692  0.1129
31545SOL    HW2 3604   2.534   8.637   3.558  1.2825  2.9643  1.2056
31546SOL     OW 3605  10.615   0.565   3.873  0.7213 -0.1292 -0.1874
31546SOL    HW1 3606  10.531   0.556   3.918 -0.1235  1.8547 -1.2242
31546SOL    HW2 3607  10.680   0.562   3.943 -0.2711 -0.7881  0.7369
31547SOL     OW 3608   9.489  12.044   0.058 -0.5306  0.1984  0.3196
31547SOL    HW1 3609   9.529  11.958   0.046 -0.6718  0.1555  0.1472
31547SOL    HW2 3610   9.441  12.037   0.140 -0.4319  0.1548  0.3738
31548SOL     OW 3611   8.743   8.978   1.581  0.3074  0.2874  0.2479
31548SOL    HW1 3612   8.727   9.069   1.556  1.4245  0.3198 -0.3895
31548SOL    HW2 3613   8.769   8.935   1.499 -0.7262 -0.7494  0.4264
31549SOL     OW 3614   8.152  11.821   9.921 -0.5895  0.6872  0.1130
31549SOL    HW1 3615   8.096  11.896   9.943 -1.4331  0.1184 -0.0748
31549SOL    HW2 3616   8.091  11.752   9.896  0.1192 -0.4551  1.4401
31550SOL     OW 3617  11.117  10.627   1.642 -0.3238 -0.4137  0.1736
31550SOL    HW1 3618  11.156  10.550   1.682 -0.2358  0.5557  2.0397
31550SOL    HW2 3619  11.182  10.696   1.654 -1.0247  0.3127 -0.1035
31551SOL     OW 3620   9.624   6.247   1.208  0.2230  0.0559  0.4020
31551SOL    HW1 3621   9.711   6.247   1.247 -0.3084  0.8988  1.6331
31551SOL    HW2 3622   9.564   6.260   1.281 -0.8418  1.0471 -0.5997
31552SOL     OW 3623   0.945   9.116   7.452 -0.2051  0.9345 -0.4026
31552SOL    HW1 3624   0.930   9.210   7.465 -0.5209  0.8448 -0.0923
31552SOL    HW2 3625   1.029   9.099   7.495  0.2756  1.2320 -1.1987
31553SOL     OW 3626   3.423   6.208   7.541  0.1698  0.8021 -0.0328
31553SOL    HW1 3627   3.446   6.301   7.539 -0.1632  0.8783 -1.0608
31553SOL    HW2 3628   3.330   6.208   7.566  0.1473  0.7575 -0.1160
31554SOL     OW 3629   0.642   8.206   9.283 -0.3715 -0.1356  0.1186
31554SOL    HW1 3630   0.667   8.241   9.369  0.3022 -0.7813  0.1951
31554SOL    HW2 3631   0.605   8.120   9.303 -0.2610 -0.2648 -0.2292
31555SOL     OW 3632   0.883   3.816   6.724  0.8721  0.1557 -1.1486
31555SOL    HW1 3633   0.815   3.751   6.706  0.5137  0.5703 -1.3063
31555SOL    HW2 3634   0.846   3.898   6.694  0.0344  0.9941  1.8625
31556SOL     OW 3635   7.908  10.322   4.295  0.0983  0.1483 -0.5026
31556SOL    HW1 3636   7.928  10.416   4.302 -1.7670  0.5515 -0.0835
31556SOL    HW2 3637   7.892  10.308   4.202 -2.2477  0.8893 -0.2790
31557SOL     OW 3638   1.513  11.528  11.102 -0.2501 -0.0798 -0.0530
31557SOL    HW1 3639   1.574  11.549  11.031 -1.3576  0.9102 -0.7587
31557SOL    HW2 3640   1.545  11.446  11.138  0.8552 -0.1478 -1.1203
31558SOL     OW 3641   4.116   4.397   3.005 -0.4895 -0.1434 -0.4446
31558SOL    HW1 3642   4.022   4.379   3.011 -0.6248  0.9494  2.4972
31558SOL    HW2 3643   4.147   4.341   2.934 -3.0057 -2.0018 -0.2166
31559SOL     OW 3644   2.333  11.294   3.061  0.0071 -0.2911 -0.1483
31559SOL    HW1 3645   2.342  11.205   3.096  0.7082  0.2924  1.2474
31559SOL    HW2 3646   2.330  11.282   2.967 -2.3120 -1.9861  0.0653
31560SOL     OW 3647   5.683  12.477   3.722  0.2359  0.3581  0.6219
31560SOL    HW1 3648   5.761  12.514   3.763  0.0243 -0.0477  1.4210
31560SOL    HW2 3649   5.657  12.406   3.781 -0.6563  0.3986  0.2938
31561SOL     OW 3650  11.421   0.144   6.489  0.3847 -0.3858  0.8513
31561SOL    HW1 3651  11.390   0.058   6.461 -0.3776  0.2423 -0.3123
31561SOL    HW2 3652  11.419   0.198   6.410 -0.2773  1.0237  1.7814
31562SOL     OW 3653   9.199  11.023   4.750  0.2135 -0.0641 -0.0048
31562SOL    HW1 3654   9.291  11.047   4.761  0.1252  2.2110 -3.0479
31562SOL    HW2 3655   9.201  10.929   4.733  2.3507  0.3565 -2.6046
31563SOL     OW 3656   6.358   2.494   9.929 -0.4220 -0.5290  0.0539
31563SOL    HW1 3657   6.306   2.561   9.885  0.1660  0.0431  0.2300
31563SOL    HW2 3658   6.448   2.526   9.925 -0.1379 -1.2898  0.1666
31564SOL     OW 3659   2.733   2.231   1.206 -0.2301 -0.1279  0.4028
31564SOL    HW1 3660   2.781   2.214   1.125 -0.9319  0.9862 -0.2638
31564SOL    HW2 3661   2.799   2.219   1.275  0.7821  0.4762 -0.4237
31565SOL     OW 3662   1.162   9.021   0.809 -0.3232 -0.2519  0.3935
31565SOL    HW1 3663   1.123   8.988   0.728  0.1741 -0.0019  0.0475
31565SOL    HW2 3664   1.255   9.032   0.789 -0.3653  0.7549  0.6909
31566SOL     OW 3665   8.460   7.872   4.213 -0.0146 -0.3303  0.3238
31566SOL    HW1 3666   8.418   7.805   4.267  0.7645 -1.0200  0.0784
31566SOL    HW2 3667   8.505   7.929   4.276 -0.6416 -0.0449  0.5265
31567SOL     OW 3668   2.707   6.664   9.604 -0.2663 -0.0012  0.3895
31567SOL    HW1 3669   2.612   6.658   9.599 -0.2149 -0.8070  0.2494
31567SOL    HW2 3670   2.736   6.577   9.630  0.3956  0.4263  1.1321
31568SOL     OW 3671   9.874   1.954   4.102  0.6992  0.1757  0.1246
31568SOL    HW1 3672   9.812   2.017   4.140 -0.7705 -1.0931 -0.0936
31568SOL    HW2 3673   9.883   1.887   4.170 -0.5973 -1.2213 -1.0203
31569SOL     OW 3674   2.721   0.795  10.142  0.9353 -0.1542 -0.5817
31569SOL    HW1 3675   2.740   0.744  10.063  1.5025 -1.2574  0.2380
31569SOL    HW2 3676   2.762   0.746  10.213  0.0769  0.5943  0.4683
31570SOL     OW 3677   6.537   4.502   9.016 -0.3292 -0.1341 -0.1523
31570SOL    HW1 3678   6.521   4.439   8.946  0.5481 -1.2195  0.5935
31570SOL    HW2 3679   6.488   4.580   8.990 -2.2900 -1.4429 -0.6096
31571SOL     OW 3680   6.889   0.265  11.639  0.7341  0.3382  0.1630
31571SOL    HW1 3681   6.827   0.301  11.575 -0.3442  2.4579  2.2435
31571SOL    HW2 3682   6.962   0.326  11.637  1.2487 -0.2762  0.1157
31572SOL     OW 3683   2.112  11.781  11.545  0.0680 -0.4592 -0.3095
31572SOL    HW1 3684   2.043  11.837  11.582  0.9882 -0.6311  1.7617
31572SOL    HW2 3685   2.108  11.700  11.596  1.2986 -0.7726 -0.6740
31573SOL     OW 3686   3.391   5.395   3.723  0.1915  0.0091  0.4202
31573SOL    HW1 3687   3.320   5.459   3.717 -0.5430 -0.5090  2.7136
31573SOL    HW2 3688   3.471   5.448   3.719 -0.2673  0.6504 -1.5935
31574SOL     OW 3689   6.363   0.834   7.436 -0.0372 -0.5971 -0.5334
31574SOL    HW1 3690   6.361   0.741   7.414 -0.6221 -0.3576 -1.5908
31574SOL    HW2 3691   6.292   0.846   7.499  1.6295 -1.2901  1.6111
31575SOL     OW 3692   6.694   9.308  10.130  0.2779 -1.0164  0.1774
31575SOL    HW1 3693   6.647   9.294  10.047  0.1128 -2.6875  0.5051
31575SOL    HW2 3694   6.678   9.400  10.151  0.7472 -0.3876 -1.8921
31576SOL     OW 3695   5.015   5.790  10.162  0.4759 -0.0515  0.0332
31576SOL    HW1 3696   4.936   5.739  10.148  0.8765 -0.2927 -1.6517
31576SOL    HW2 3697   4.985   5.872  10.202 -0.9323  0.7203 -2.3889
31577SOL     OW 3698   6.593   7.584  11.218  0.1570  0.4630  0.2043
31577SOL    HW1 3699   6.574   7.491  11.227 -2.0167  0.8379  0.0492
31577SOL    HW2 3700   6.523   7.618  11.162 -0.4179  2.5814  2.0538
31578SOL     OW 3701   5.550   8.778   4.021  0.3985 -0.0522  0.6174
31578SOL    HW1 3702   5.595   8.847   3.973  1.4066 -0.7248  0.5639
31578SOL    HW2 3703   5.470   8.761   3.971  1.2311 -0.4625 -0.6101
31579SOL     OW 3704   1.836   8.887   3.462  0.2229 -0.3257  0.3943
31579SOL    HW1 3705   1.885   8.929   3.391 -0.5742  0.7129  0.4343
31579SOL    HW2 3706   1.749   8.926   3.458  0.1913 -0.1228  2.0142
31580SOL     OW 3707  12.448  10.178   4.438  0.1025 -0.0714  0.1010
31580SOL    HW1 3708  12.464  10.272   4.435 -1.9968  0.3103 -1.2622
31580SOL    HW2 3709  12.425  10.155   4.348  0.1311 -1.8073  0.5031
31581SOL     OW 3710   3.046  11.703   2.006  0.2605 -0.3126  0.2226
31581SOL    HW1 3711   3.043  11.708   2.101 -1.2473  0.8619  0.1679
31581SOL    HW2 3712   3.096  11.780   1.980 -0.1644 -0.0856  0.0588
31582SOL     OW 3713   3.205   6.225  12.244  0.3175  0.1421 -0.1199
31582SOL    HW1 3714   3.278   6.224  12.306 -1.3474 -1.5837  2.0204
31582SOL    HW2 3715   3.187   6.133  12.227 -2.7204  0.3432  1.2820
31583SOL     OW 3716  12.210   6.803   6.094  0.4131 -0.3469  0.0470
31583SOL    HW1 3717  12.184   6.874   6.036 -0.7092 -0.1388  0.7778
31583SOL    HW2 3718  12.158   6.728   6.067  1.7570 -0.9892 -0.8706
31584SOL     OW 3719   8.534   1.442   7.156 -0.4732 -0.4220 -0.1992
31584SOL    HW1 3720   8.472   1.429   7.085 -1.7433 -1.2939  1.0009
31584SOL    HW2 3721   8.479   1.464   7.232  0.8013  0.1465  0.5956
31585SOL     OW 3722   4.593  10.223   5.077  0.0050  0.3170 -0.2527
31585SOL    HW1 3723   4.562  10.183   4.996  0.0079  0.0203 -0.1077
31585SOL    HW2 3724   4.684  10.197   5.084  0.1385  0.7367 -0.3974
31586SOL     OW 3725  10.200   3.086  10.866  0.7388  0.1105  0.1715
31586SOL    HW1 3726  10.240   3.040  10.940 -0.1902 -0.5830  0.2560
31586SOL    HW2 3727  10.266   3.080  10.797  1.4234  0.3522  0.7771
31587SOL     OW 3728   8.862   8.273  10.434 -0.5819  0.4434  0.4719
31587SOL    HW1 3729   8.827   8.352  10.475  0.1122  0.9252  0.1326
31587SOL    HW2 3730   8.934   8.303  10.379 -1.0095 -0.2958 -0.5170
31588SOL     OW 3731   8.474   9.119   4.800  0.2929  0.1306 -0.0340
31588SOL    HW1 3732   8.437   9.119   4.888 -0.1117 -1.4833 -0.1603
31588SOL    HW2 3733   8.401   9.094   4.743  0.7737  0.2144 -0.6978
31589SOL     OW 3734   5.018   2.602   5.005 -0.5587  0.4131 -0.2635
31589SOL    HW1 3735   5.109   2.586   4.982 -0.4751 -0.8516  0.8017
31589SOL    HW2 3736   5.012   2.696   5.020  0.6036  0.4814 -0.2046
31590SOL     OW 3737   5.892  10.492   3.785  0.0292 -0.0159 -0.0934
31590SOL    HW1 3738   5.903  10.586   3.795  0.5264  0.1579 -1.9735
31590SOL    HW2 3739   5.971  10.463   3.738 -1.7324 -0.7544 -2.8127
31591SOL     OW 3740   9.088   7.533   5.394 -0.3969 -0.3312 -0.1463
31591SOL    HW1 3741   9.131   7.448   5.388  0.2402 -0.0434  0.2632
31591SOL    HW2 3742   9.035   7.539   5.315 -1.0874 -1.4522  0.2155
31592SOL     OW 3743   9.263   3.355  10.163 -0.0384  0.0443  0.3362
31592SOL    HW1 3744   9.265   3.261  10.145 -0.6125 -0.1828  1.4282
31592SOL    HW2 3745   9.220   3.364  10.248 -0.0006  1.2986  0.2551
31593SOL     OW 3746   7.171   1.221   6.700  0.6110 -0.6227 -0.0916
31593SOL    HW1 3747   7.188   1.250   6.610 -0.7168 -0.1975 -0.2329
31593SOL    HW2 3748   7.147   1.301   6.747 -3.1019 -1.3069 -0.4880
31594SOL     OW 3749  10.441   4.260   7.779 -0.2213 -0.0255  0.4916
31594SOL    HW1 3750  10.363   4.234   7.828 -0.4335 -0.6818 -0.1812
31594SOL    HW2 3751  10.432   4.355   7.769  0.6865  0.4180  3.1695
31595SOL     OW 3752   0.960   5.582   2.647 -0.0424  0.1766 -0.4188
31595SOL    HW1 3753   1.004   5.505   2.681 -0.9163 -0.6906 -1.1775
31595SOL    HW2 3754   0.989   5.654   2.703  0.9157 -0.6698  0.1950
31596SOL     OW 3755  10.097   2.554  10.897  0.0788  0.9337 -0.4070
31596SOL    HW1 3756  10.098   2.598  10.982 -0.4834  1.9432 -0.9104
31596SOL    HW2 3757  10.190   2.540  10.876  0.2373  1.1756  0.1237
31597SOL     OW 3758  12.012   9.668   6.096  0.3291 -0.2821  0.2093
31597SOL    HW1 3759  12.063   9.626   6.166  0.2220 -0.3564  0.2428
31597SOL    HW2 3760  11.960   9.597   6.058 -1.2309  0.1140  1.4639
31598SOL     OW 3761   0.519   3.645   0.709 -0.3047 -0.4303 -0.1330
31598SOL    HW1 3762   0.550   3.555   0.708 -2.3436 -1.2813 -3.6659
31598SOL    HW2 3763   0.592   3.696   0.675  1.1159 -0.4913  2.5290
31599SOL     OW 3764  12.193   8.941   4.695  0.1569 -0.5509  0.0186
31599SOL    HW1 3765  12.273   8.992   4.706  0.4912 -1.4154  1.9537
31599SOL    HW2 3766  12.172   8.949   4.602  1.5855  1.0109 -0.2123
31600SOL     OW 3767  12.195  12.112   1.267  0.5565  0.4995 -0.2512
31600SOL    HW1 3768  12.145  12.135   1.346 -1.8233  2.5933 -2.2131
31600SOL    HW2 3769  12.162  12.025   1.243 -1.1809  1.2260 -0.6852
31601SOL     OW 3770  11.548   0.097   4.786  0.0751 -0.0946 -0.0930
31601SOL    HW1 3771  11.623   0.147   4.756 -1.0935  1.3581 -0.7191
31601SOL    HW2 3772  11.496   0.080   4.707  1.0720 -3.5761 -0.1623
31602SOL     OW 3773  11.377   0.460  11.443 -0.0736 -0.1698  0.3611
31602SOL    HW1 3774  11.455   0.512  11.461 -1.1183  1.0612  1.6494
31602SOL    HW2 3775  11.353   0.422  11.527 -0.6178 -0.8891 -0.1054
31603SOL     OW 3776   6.074   1.253   8.369 -0.0576 -0.1345 -0.0645
31603SOL    HW1 3777   6.056   1.326   8.309 -1.7136 -0.5300 -0.0881
31603SOL    HW2 3778   6.104   1.296   8.449 -1.1815  0.6020 -0.0161
31604SOL     OW 3779  11.406  10.490   1.739 -0.1499  0.3557  0.5354
31604SOL    HW1 3780  11.387  10.413   1.791 -1.0495 -0.5894 -1.1296
31604SOL    HW2 3781  11.449  10.550   1.801 -1.6000 -0.4917  2.4609
31605SOL     OW 3782   6.132  10.529  11.038 -0.2378  0.4502 -0.1443
31605SOL    HW1 3783   6.213  10.490  11.006 -1.0830 -0.1629 -1.6039
31605SOL    HW2 3784   6.079  10.455  11.069 -1.8694  0.3011 -2.9790
31606SOL     OW 3785   7.037   2.948  11.576 -0.2298 -0.4479 -0.3597
31606SOL    HW1 3786   7.128   2.979  11.574 -0.4462  0.2040 -0.3858
31606SOL    HW2 3787   7.029   2.895  11.497 -0.0110 -0.0885 -0.6301
31607SOL     OW 3788   8.221  12.222  10.005  0.0394 -0.1488 -0.7304
31607SOL    HW1 3789   8.199  12.314  10.022 -1.1479 -0.1793 -1.9255
31607SOL    HW2 3790   8.259  12.223   9.917  0.5281 -0.7526 -0.5346
31608SOL     OW 3791   6.573   2.377   9.301 -0.2999 -0.7197  0.6693
31608SOL    HW1 3792   6.599   2.421   9.382 -1.6014 -0.8918  1.2036
31608SOL    HW2 3793   6.485   2.411   9.283 -0.4469 -1.4864 -0.0902
31609SOL     OW 3794   5.021   7.571   3.256  0.5227 -0.3240  0.2251
31609SOL    HW1 3795   5.090   7.517   3.218  1.3444  1.3248 -0.7302
31609SOL    HW2 3796   5.068   7.634   3.311 -0.2971  0.2892  0.2306
31610SOL     OW 3797   9.313   9.981   1.025  0.3321 -0.1657  0.7024
31610SOL    HW1 3798   9.389  10.030   1.056  0.9431  0.1943 -1.2319
31610SOL    HW2 3799   9.255  10.047   0.986 -0.1050 -0.6630  0.4910
31611SOL     OW 3800   7.733   0.553   1.099  0.0468  0.1468  0.1509
31611SOL    HW1 3801   7.661   0.616   1.086 -0.1644 -0.0146  0.4987
31611SOL    HW2 3802   7.694   0.468   1.078  0.7294  0.2619 -1.7232
31612SOL     OW 3803  11.206   6.745   9.628 -0.2696  0.2791  0.6797
31612SOL    HW1 3804  11.217   6.663   9.675  0.8367  0.0632  0.0973
31612SOL    HW2 3805  11.294   6.782   9.625 -0.3628  0.4492 -0.8906
31613SOL     OW 3806   1.838   4.820   6.393  0.5554  0.2894  0.1324
31613SOL    HW1 3807   1.906   4.759   6.423 -0.2718 -0.3467  0.7505
31613SOL    HW2 3808   1.781   4.768   6.338 -0.2384  0.4674  0.7737
31614SOL     OW 3809  11.243   1.260  12.481 -0.2354  0.1864 -0.0357
31614SOL    HW1 3810  11.263   1.191  12.418 -0.5419  0.0080  0.0592
31614SOL    HW2 3811  11.186   1.218  12.545  0.5362  0.2213  0.6786
31615SOL     OW 3812  12.207   0.532  11.048  0.9494  0.2392 -0.2033
31615SOL    HW1 3813  12.143   0.461  11.036  0.7795  0.2052  0.8270
31615SOL    HW2 3814  12.284   0.489  11.084  1.0624  0.4851 -0.1543
31616SOL     OW 3815   7.214   6.113  12.424  0.2522 -0.6644  0.1972
31616SOL    HW1 3816   7.286   6.064  12.464  0.5610  0.6897  1.3942
31616SOL    HW2 3817   7.135   6.068  12.454  0.5093 -3.2099 -2.5035
31617SOL     OW 3818   5.349   5.313   1.750  0.6987 -0.2262  0.8738
31617SOL    HW1 3819   5.264   5.349   1.725 -0.4377 -2.3939  1.3000
31617SOL    HW2 3820   5.408   5.388   1.750 -1.2668  1.4194  0.8841
31618SOL     OW 3821   5.759   7.096  11.075 -0.2260  0.1890 -0.3696
31618SOL    HW1 3822   5.848   7.117  11.047 -0.4881 -0.1452 -1.4994
31618SOL    HW2 3823   5.707   7.170  11.044 -0.8986 -1.2651 -2.9694
31619SOL     OW 3824   2.194   3.075   3.970  0.6724  0.4168 -0.1760
31619SOL    HW1 3825   2.270   3.132   3.962  3.5356 -3.1287 -0.7319
31619SOL    HW2 3826   2.174   3.075   4.064  0.9565  1.8583 -0.1023
31620SOL     OW 3827  10.342   1.101   6.501 -0.5979 -0.1818 -0.1529
31620SOL    HW1 3828  10.293   1.093   6.419  0.4830 -1.8096 -0.6810
31620SOL    HW2 3829  10.353   1.011   6.532  2.8909 -0.0481 -0.5958
31621SOL     OW 3830   1.140   6.346   6.403 -0.6315  0.4679  0.0470
31621SOL    HW1 3831   1.185   6.409   6.347 -0.8479 -2.1883 -3.4038
31621SOL    HW2 3832   1.049   6.349   6.373 -0.8848 -0.6360  0.6775
31622SOL     OW 3833   4.075   6.273  11.419  0.5499  0.0278  0.6616
31622SOL    HW1 3834   4.020   6.339  11.462  0.7617  0.4107  0.3606
31622SOL    HW2 3835   4.130   6.324  11.359  2.6910 -0.1175  2.4204
31623SOL     OW 3836   3.604   8.461  11.560 -0.2645 -0.1329  0.0390
31623SOL    HW1 3837   3.564   8.374  11.562 -1.3203  0.3485  0.5383
31623SOL    HW2 3838   3.539   8.519  11.599 -0.3031  1.1775 -1.8079
31624SOL     OW 3839   1.320   9.504   2.368  0.6542 -0.9035  0.3645
31624SOL    HW1 3840   1.384   9.546   2.425  0.1910 -0.3738  0.4981
31624SOL    HW2 3841   1.354   9.415   2.357  1.7950 -0.4341 -0.1422
31625SOL     OW 3842   9.805   4.725   6.700 -0.3083 -0.3227 -0.1692
31625SOL    HW1 3843   9.748   4.768   6.764 -1.0868 -0.6020 -0.6626
31625SOL    HW2 3844   9.859   4.796   6.665 -0.6629  0.0263 -0.0200
31626SOL     OW 3845  11.316   0.912  11.296  0.0100 -0.4660  0.3773
31626SOL    HW1 3846  11.274   0.837  11.339 -0.6361 -0.4134 -0.1486
31626SOL    HW2 3847  11.407   0.885  11.286 -0.5131 -1.8566 -1.2011
31627SOL     OW 3848  10.917   1.718  12.204 -0.3781  0.4220 -0.0267
31627SOL    HW1 3849  10.946   1.667  12.279  0.5055 -3.0192 -2.4569
31627SOL    HW2 3850  10.822   1.709  12.205 -0.4776  1.3349  1.2025
31628SOL     OW 3851  12.544   4.823   1.615  0.1117 -0.0377  0.4864
31628SOL    HW1 3852  12.636   4.827   1.588  0.1934 -0.6122  0.6467
31628SOL    HW2 3853  12.518   4.914   1.626  0.7894  0.1246  0.8494
31629SOL     OW 3854   6.879   5.078   5.137  0.0943  0.3794 -0.2363
31629SOL    HW1 3855   6.934   5.149   5.102 -0.2007  0.0317 -1.4688
31629SOL    HW2 3856   6.929   5.043   5.210  0.6734  1.2555 -0.1936
31630SOL     OW 3857  11.224   2.735  10.506  0.3711  0.4219 -0.3165
31630SOL    HW1 3858  11.249   2.732  10.414 -1.4472 -0.3614 -0.8269
31630SOL    HW2 3859  11.138   2.693  10.509  0.2292  0.7566  1.6886
31631SOL     OW 3860   0.752   4.528   9.643  0.5092  0.1750  0.1379
31631SOL    HW1 3861   0.686   4.576   9.592  0.4307  0.8667  0.8792
31631SOL    HW2 3862   0.834   4.542   9.596 -0.0885 -2.1126 -1.7802
31632SOL     OW 3863   1.152  12.253   8.511 -0.0234  0.4754 -0.3473
31632SOL    HW1 3864   1.121  12.336   8.548  0.2192  0.1004  0.7270
31632SOL    HW2 3865   1.078  12.193   8.521 -0.6903  0.8758 -2.3481
31633SOL     OW 3866  10.754   1.902   4.919  0.4301 -0.8438  0.1164
31633SOL    HW1 3867  10.672   1.852   4.920  0.4245 -0.8220  0.8822
31633SOL    HW2 3868  10.728   1.991   4.939  0.6829 -0.9021  0.7094
31634SOL     OW 3869   2.922   3.882   7.192  0.0381 -0.0452  0.5592
31634SOL    HW1 3870   2.993   3.818   7.194  0.2416  0.1707  0.1889
31634SOL    HW2 3871   2.879   3.872   7.277  0.8638  0.2304  1.0178
31635SOL     OW 3872   0.390   4.659   1.607  0.1235 -0.4991  0.4255
31635SOL    HW1 3873   0.437   4.733   1.645 -0.8502 -0.9139  2.5870
31635SOL    HW2 3874   0.455   4.617   1.550  0.7071  1.9525 -0.9032
31636SOL     OW 3875   8.455   5.116   1.480  0.1289 -0.1052 -0.1343
31636SOL    HW1 3876   8.504   5.036   1.460 -0.1201  0.1634 -2.0630
31636SOL    HW2 3877   8.505   5.159   1.549  1.0158 -1.2435 -0.0382
31637SOL     OW 3878   8.931   8.914   6.652 -0.0783  0.3799 -0.2646
31637SOL    HW1 3879   8.906   8.889   6.563 -0.1670 -0.2865 -0.0581
31637SOL    HW2 3880   9.026   8.925   6.647 -0.2774  2.2725 -0.8898
31638SOL     OW 3881   4.212   9.775   0.908  0.3419 -0.1130  0.2712
31638SOL    HW1 3882   4.182   9.809   0.992  0.4008 -0.0869  0.2825
31638SOL    HW2 3883   4.179   9.838   0.844  0.1489 -0.2289  0.2590
31639SOL     OW 3884  10.703   4.548   6.709 -0.3810 -0.2254  0.1601
31639SOL    HW1 3885  10.717   4.643   6.700  1.2453 -0.4620 -0.2757
31639SOL    HW2 3886  10.790   4.514   6.731 -1.0663 -1.5617  0.8822
31640SOL     OW 3887   7.199   7.824   6.316  0.6318  0.0604 -0.7967
31640SOL    HW1 3888   7.111   7.786   6.311  0.9266 -0.6852 -0.4386
31640SOL    HW2 3889   7.188   7.913   6.284 -0.6491  0.6193  1.0386
31641SOL     OW 3890  11.673   3.394   2.125 -0.1867 -0.1585 -0.1709
31641SOL    HW1 3891  11.581   3.370   2.137  0.0226 -0.7089  0.4004
31641SOL    HW2 3892  11.717   3.361   2.203  0.4002  0.6466 -0.1510
31642SOL     OW 3893   7.163   4.108   4.976  0.4707 -0.3539  0.0854
31642SOL    HW1 3894   7.096   4.175   4.988  0.3184 -0.0180 -2.1441
31642SOL    HW2 3895   7.121   4.026   5.003 -1.7377 -0.5123 -3.2128
31643SOL     OW 3896   0.401  12.201   1.631 -0.0158  0.0202  0.3655
31643SOL    HW1 3897   0.462  12.218   1.558 -0.6167  2.5385  0.3788
31643SOL    HW2 3898   0.458  12.172   1.702  0.8290 -0.3914 -0.4412
31644SOL     OW 3899   9.671   2.711   9.763  0.1316  0.0211  0.1566
31644SOL    HW1 3900   9.713   2.698   9.848  2.7356  0.6681 -0.9334
31644SOL    HW2 3901   9.606   2.780   9.778  1.4855  1.0971  1.3928
31645SOL     OW 3902   8.161   3.902   7.437  0.0444 -0.2777 -0.3444
31645SOL    HW1 3903   8.172   3.871   7.527 -1.6268 -0.4499 -0.1580
31645SOL    HW2 3904   8.207   3.985   7.434  1.3075 -0.9321  0.2612
31646SOL     OW 3905   6.590   5.013  10.480 -0.3519  0.0618  0.6415
31646SOL    HW1 3906   6.504   5.042  10.513 -0.1897 -0.3820  1.4806
31646SOL    HW2 3907   6.650   5.082  10.507 -0.6963  1.3071 -1.5441
31647SOL     OW 3908  11.649   1.079   6.128  0.1718 -0.1819  0.6069
31647SOL    HW1 3909  11.651   0.999   6.077 -0.5888  0.0705  0.1572
31647SOL    HW2 3910  11.558   1.108   6.124  0.5173  0.9306  0.4091
31648SOL     OW 3911  10.451   9.126  12.412  0.3019 -0.0976 -0.1666
31648SOL    HW1 3912  10.410   9.060  12.355 -2.2410 -0.3281  1.7726
31648SOL    HW2 3913  10.489   9.076  12.484 -1.3585  0.4320  1.1477
31649SOL     OW 3914  11.649   1.347  11.074 -0.5402  0.3818 -0.6412
31649SOL    HW1 3915  11.572   1.338  11.131  0.9249  0.7734  1.5197
31649SOL    HW2 3916  11.632   1.426  11.024 -0.7879  1.5410  1.1695
31650SOL     OW 3917   6.306  11.875   2.556  0.4656  0.8185  0.4681
31650SOL    HW1 3918   6.395  11.848   2.582  0.3178 -3.4956 -2.3699
31650SOL    HW2 3919   6.320  11.936   2.484  1.3516 -1.1146 -1.1137
31651SOL     OW 3920  11.614  12.528   1.469 -0.1280  0.0745 -0.1603
31651SOL    HW1 3921  11.544  12.561   1.525 -1.8881 -1.6624 -1.2029
31651SOL    HW2 3922  11.644  12.448   1.513 -0.3274 -0.3631 -0.8096
31652SOL     OW 3923  11.262  10.095  11.428 -0.6859 -0.0494  0.0589
31652SOL    HW1 3924  11.196  10.116  11.494 -1.2976  1.2015 -0.9142
31652SOL    HW2 3925  11.268  10.173  11.373  1.3982 -0.2336 -0.0804
31653SOL     OW 3926   7.917   9.681   0.023 -0.7395  0.6886  0.1029
31653SOL    HW1 3927   7.823   9.691   0.035 -0.4443  2.1805  1.6062
31653SOL    HW2 3928   7.937   9.731  -0.057 -0.9049  2.7098  1.2579
31654SOL     OW 3929   6.159  12.221   3.978  0.2030 -0.3409 -0.4683
31654SOL    HW1 3930   6.223  12.278   3.935  1.8776 -3.0135 -1.7667
31654SOL    HW2 3931   6.089  12.210   3.913 -1.1181  1.6456  0.5142
31655SOL     OW 3932   6.688   9.012   3.704  0.0608  0.4981  0.2688
31655SOL    HW1 3933   6.774   8.971   3.710  0.4501  1.0705 -0.9845
31655SOL    HW2 3934   6.645   8.992   3.787  1.0323 -0.6228  0.5182
31656SOL     OW 3935   9.949   8.082   0.832 -0.3766 -0.1181 -0.4519
31656SOL    HW1 3936   9.880   8.019   0.853 -2.3336  1.6131 -1.3074
31656SOL    HW2 3937   9.980   8.114   0.917  0.3738 -1.8636 -0.0222
31657SOL     OW 3938  11.354   2.828   7.371  0.0156 -0.0042  0.6245
31657SOL    HW1 3939  11.435   2.782   7.347 -0.0362 -0.1291  0.6870
31657SOL    HW2 3940  11.368   2.857   7.461  0.7363  1.6188  0.0252
31658SOL     OW 3941   3.611   7.825   3.376 -0.0489  0.2701 -0.1938
31658SOL    HW1 3942   3.580   7.871   3.454  0.0060  0.3605 -0.2242
31658SOL    HW2 3943   3.704   7.845   3.372  0.0688 -0.2272  0.0516
31659SOL     OW 3944  11.034   5.727  12.110 -0.9601 -0.0920  0.0542
31659SOL    HW1 3945  11.053   5.752  12.020  1.4296 -2.3859 -0.1883
31659SOL    HW2 3946  10.950   5.683  12.106 -1.0095  0.0798 -1.0113
31660SOL     OW 3947   9.418   7.141  11.544 -0.4291  0.3468  0.2007
31660SOL    HW1 3948   9.323   7.138  11.553 -0.6421  1.7215 -1.1104
31660SOL    HW2 3949   9.449   7.060  11.584 -2.2065 -0.4662  0.0145
31661SOL     OW 3950   7.936   9.359   5.512  0.5791 -0.2013 -0.6260
31661SOL    HW1 3951   7.931   9.268   5.483  2.4526 -0.6373  0.2246
31661SOL    HW2 3952   7.860   9.401   5.473 -1.0569 -2.4032 -0.0118
31662SOL     OW 3953   5.838   6.758   4.390  0.2935 -0.1064  0.3533
31662SOL    HW1 3954   5.836   6.739   4.484 -1.3250 -0.8861  0.1932
31662SOL    HW2 3955   5.888   6.686   4.352 -0.7392 -0.8719  0.4140
31663SOL     OW 3956  11.545   2.443   2.132  0.3500  0.5533  0.0387
31663SOL    HW1 3957  11.543   2.461   2.226 -0.2296 -1.1826  0.3889
31663SOL    HW2 3958  11.560   2.529   2.092 -0.3435  1.4905  1.6661
31664SOL     OW 3959   9.435   7.586   3.170 -0.2311  0.3262 -0.1841
31664SOL    HW1 3960   9.522   7.626   3.173  0.1450 -0.5366  1.1187
31664SOL    HW2 3961   9.403   7.592   3.261 -0.7456 -1.0418 -0.2608
31665SOL     OW 3962   8.717   4.303   9.380 -0.1188  0.1362  0.3147
31665SOL    HW1 3963   8.796   4.254   9.357 -0.6707 -0.7063  0.1573
31665SOL    HW2 3964   8.749   4.386   9.415  0.8120  0.3114 -0.8951
31666SOL     OW 3965  11.764   0.289   3.172 -0.0043 -0.0634  0.0177
31666SOL    HW1 3966  11.762   0.318   3.264 -0.2695  1.2731 -0.3871
31666SOL    HW2 3967  11.812   0.206   3.175 -1.9026 -1.2060  1.6496
31667SOL     OW 3968   4.225   2.891   2.988  0.4556 -0.4717  0.5453
31667SOL    HW1 3969   4.257   2.921   2.903 -0.7974 -0.1318  0.1624
31667SOL    HW2 3970   4.303   2.884   3.043  1.2118 -0.1399 -0.4666
31668SOL     OW 3971   4.508   6.453  11.010 -0.1124  0.6341 -0.2271
31668SOL    HW1 3972   4.551   6.527  11.053  0.0527  0.5621 -0.2659
31668SOL    HW2 3973   4.566   6.379  11.028  0.4021  0.7584 -1.2824
31669SOL     OW 3974   1.934   3.371   1.857 -0.0341  0.4486 -0.6205
31669SOL    HW1 3975   2.012   3.391   1.806 -1.0130  1.1512 -1.8823
31669SOL    HW2 3976   1.924   3.444   1.917  0.5771  0.0846 -0.0625
31670SOL     OW 3977   4.907   4.536   6.097 -0.0937  0.4639  0.3372
31670SOL    HW1 3978   4.892   4.566   6.186 -0.5977  2.0337 -0.2365
31670SOL    HW2 3979   4.846   4.463   6.086  0.0592  0.1751  1.2936
31671SOL     OW 3980   7.260   5.217   2.161 -0.2529  0.1058  0.0696
31671SOL    HW1 3981   7.345   5.259   2.142 -1.3066  2.0995 -0.4871
31671SOL    HW2 3982   7.200   5.290   2.175 -1.6943 -1.2830  1.4577
31672SOL     OW 3983   9.348   3.340   1.989 -0.0030 -0.0763 -0.0086
31672SOL    HW1 3984   9.400   3.280   2.043  0.2724  1.1454  1.1444
31672SOL    HW2 3985   9.409   3.372   1.923 -0.1145 -0.9250 -0.5425
31673SOL     OW 3986   4.220   9.640   6.226  0.0820 -0.5665 -0.0134
31673SOL    HW1 3987   4.203   9.723   6.182 -2.2286 -1.3143 -0.6789
31673SOL    HW2 3988   4.265   9.587   6.159  1.9596  0.2298  0.5558
31674SOL     OW 3989   5.294   2.453   6.506 -0.0684  0.3526  0.3206
31674SOL    HW1 3990   5.337   2.507   6.440 -0.6485  0.6128  0.1496
31674SOL    HW2 3991   5.364   2.431   6.568  0.0103  2.0608  0.8925
31675SOL     OW 3992   4.926   8.463  10.399 -0.4921 -0.4575 -0.3325
31675SOL    HW1 3993   4.859   8.524  10.369 -0.6730  0.0916  1.0990
31675SOL    HW2 3994   4.997   8.519  10.429 -0.8912 -0.8934  1.5350
31676SOL     OW 3995  10.859   0.363   3.753  0.4124  0.0517  0.3533
31676SOL    HW1 3996  10.864   0.317   3.670 -2.0699  1.1268 -0.5008
31676SOL    HW2 3997  10.766   0.384   3.763  1.1024  3.0479  1.6472
31677SOL     OW 3998   6.402  11.532   2.680  0.5741  0.2097 -0.4889
31677SOL    HW1 3999   6.446  11.567   2.758 -0.2400  4.3889 -1.6703
31677SOL    HW2 4000   6.456  11.563   2.607 -0.8866 -0.0648 -1.7220
31678SOL     OW 4001   0.251   4.555   1.838 -0.5229 -0.4203  0.2184
31678SOL    HW1 4002   0.291   4.470   1.857  1.0167 -0.0946 -1.2834
31678SOL    HW2 4003   0.308   4.594   1.771 -1.1923  1.7961  0.8490
31679SOL     OW 4004   2.448   8.419   8.847 -0.4438 -0.1451 -0.0176
31679SOL    HW1 4005   2.355   8.401   8.858 -0.6143 -0.3030 -1.6034
31679SOL    HW2 4006   2.489   8.332   8.855 -0.4460 -0.1028  0.4751
31680SOL     OW 4007  10.091   5.417   6.723  0.1879 -0.3558  0.1835
31680SOL    HW1 4008  10.020   5.373   6.676 -0.4082  1.0545 -0.2670
31680SOL    HW2 4009  10.154   5.441   6.655  0.1769  0.1047  0.3309
31681SOL     OW 4010   5.608   0.942   2.282  0.5224 -0.3636  0.0421
31681SOL    HW1 4011   5.590   1.010   2.347 -0.1610  0.3114 -0.8158
31681SOL    HW2 4012   5.529   0.939   2.228  1.3026 -0.4390 -1.1539
31682SOL     OW 4013  11.212   1.156   1.738  0.0099  0.5307 -0.0645
31682SOL    HW1 4014  11.234   1.088   1.674 -3.5462 -0.4681 -0.4706
31682SOL    HW2 4015  11.118   1.144   1.753  0.0722  2.7913  2.9747
31683SOL     OW 4016   8.009  12.380   2.326 -0.0730 -0.1988 -0.5838
31683SOL    HW1 4017   7.981  12.352   2.239 -1.1167  0.8482 -0.6038
31683SOL    HW2 4018   7.946  12.447   2.352 -0.8231 -1.6501  1.6978
31684SOL     OW 4019   9.385   8.711   9.414 -0.3560 -0.1922 -0.1899
31684SOL    HW1 4020   9.372   8.626   9.456 -0.9912 -0.7959 -1.5348
31684SOL    HW2 4021   9.405   8.690   9.323  1.7310  1.0357 -0.0825
31685SOL     OW 4022   6.136  11.641   3.797 -0.5502  0.4667 -0.0859
31685SOL    HW1 4023   6.152  11.610   3.708  1.0811 -0.4818  0.4780
31685SOL    HW2 4024   6.056  11.595   3.825  0.3210 -1.2155 -0.2225
31686SOL     OW 4025   0.794   0.607   6.448 -0.0746  0.3127  0.3694
31686SOL    HW1 4026   0.832   0.632   6.532  0.8354  2.6873 -0.6784
31686SOL    HW2 4027   0.815   0.513   6.439  1.3934  0.4474  1.9678
31687SOL     OW 4028   8.744  10.047   1.084 -0.2614  0.0217 -0.2118
31687SOL    HW1 4029   8.840  10.047   1.088 -0.2173 -2.2883 -0.0198
31687SOL    HW2 4030   8.724  10.043   0.991 -0.1043 -1.2732 -0.2070
31688SOL     OW 4031   5.191   2.451  12.158 -0.6361  0.0164  0.0207
31688SOL    HW1 4032   5.228   2.525  12.109 -0.7633  0.2403  0.2594
31688SOL    HW2 4033   5.253   2.437  12.230  0.3474 -1.2735 -1.0273
31689SOL     OW 4034  12.188   7.461   5.327  0.3994  0.4878  0.0133
31689SOL    HW1 4035  12.112   7.417   5.290  1.2007 -0.0580 -1.0069
31689SOL    HW2 4036  12.263   7.420   5.285  1.2357  1.6083  0.3675
31690SOL     OW 4037   2.468   3.964   0.340 -0.2622 -0.1690 -0.4826
31690SOL    HW1 4038   2.501   3.994   0.255  1.5468 -2.3493 -0.6253
31690SOL    HW2 4039   2.546   3.964   0.397 -1.4475  1.3192  1.2594
31691SOL     OW 4040   1.533   6.917   8.923 -0.3153 -0.3866 -0.2405
31691SOL    HW1 4041   1.465   6.850   8.931 -1.3289  0.6614  0.2867
31691SOL    HW2 4042   1.531   6.943   8.831  0.0831 -1.0534 -0.4478
31692SOL     OW 4043   2.263  10.304  11.581  0.4957  0.1118  0.1466
31692SOL    HW1 4044   2.236  10.346  11.499  1.3523 -2.0499 -1.3474
31692SOL    HW2 4045   2.196  10.328  11.644 -1.7969 -0.4395 -1.9375
31693SOL     OW 4046  11.049  11.121   1.523  0.1048 -0.5391 -0.2732
31693SOL    HW1 4047  11.029  11.028   1.533  2.3853 -1.1010 -0.3461
31693SOL    HW2 4048  11.122  11.136   1.583  1.8318  0.4423 -2.4789
31694SOL     OW 4049   2.113   0.496   8.687 -0.1160 -0.3759  0.0859
31694SOL    HW1 4050   2.094   0.404   8.701  1.8155 -0.7029  0.8607
31694SOL    HW2 4051   2.153   0.525   8.769  0.6965  0.7475 -0.6771
31695SOL     OW 4052  10.218   0.479   6.554  0.0729  0.4102 -0.3219
31695SOL    HW1 4053  10.242   0.389   6.577  1.6563  0.8963  0.0715
31695SOL    HW2 4054  10.159   0.507   6.625 -2.1179 -0.9290 -1.4928
31696SOL     OW 4055   6.051   4.654   1.777 -0.3303  0.1538  0.2998
31696SOL    HW1 4056   6.057   4.605   1.860  1.2003 -1.7468 -0.8271
31696SOL    HW2 4057   5.997   4.729   1.797 -0.1003 -0.3011  3.0128
31697SOL     OW 4058   7.784  10.951   9.941  0.0077  0.1307  0.2636
31697SOL    HW1 4059   7.809  10.858   9.939  2.2853  0.6817  0.6320
31697SOL    HW2 4060   7.689  10.950   9.929 -0.0712 -2.2615  0.5300
31698SOL     OW 4061   0.265   0.536   6.142 -0.2201  0.1652 -0.2580
31698SOL    HW1 4062   0.179   0.566   6.111  0.2792  1.4113 -0.4758
31698SOL    HW2 4063   0.325   0.606   6.118  0.6298 -0.0298  1.1957
31699SOL     OW 4064   9.146   6.399   0.950  0.2491 -0.5182  0.1328
31699SOL    HW1 4065   9.074   6.383   1.011 -0.6862 -0.9489 -1.0512
31699SOL    HW2 4066   9.204   6.459   0.997 -1.0167  0.0675  1.0120
31700SOL     OW 4067   1.049  10.327   5.307 -0.3038 -0.2354  0.6092
31700SOL    HW1 4068   0.994  10.302   5.381 -0.2271 -0.3445  0.6307
31700SOL    HW2 4069   1.014  10.276   5.233 -1.9880  1.7279 -0.0306
31701SOL     OW 4070   1.515   1.491   1.361 -0.0247  0.1343  0.3637
31701SOL    HW1 4071   1.497   1.585   1.361 -0.6521  0.0657 -1.4840
31701SOL    HW2 4072   1.584   1.480   1.296 -0.3343 -0.7413  0.1691
31702SOL     OW 4073   1.043   9.274   6.404  0.2161  0.2071 -0.8225
31702SOL    HW1 4074   1.006   9.316   6.482 -1.0308  0.8855 -1.7391
31702SOL    HW2 4075   1.113   9.332   6.376  0.1504  0.3737 -0.6430
31703SOL     OW 4076   2.753   6.529   3.329  0.2551 -0.2561  0.3125
31703SOL    HW1 4077   2.752   6.439   3.297 -0.0859  0.2362 -1.1260
31703SOL    HW2 4078   2.683   6.572   3.280  1.1507  1.0671  0.1690
31704SOL     OW 4079   4.544  11.748   9.933  0.5221  0.0694 -0.7694
31704SOL    HW1 4080   4.464  11.778   9.976 -0.5122 -1.1116 -1.7971
31704SOL    HW2 4081   4.566  11.819   9.872 -1.0834 -0.5503 -2.1489
31705SOL     OW 4082  11.744   9.047   8.871  0.0566 -0.2143  0.1977
31705SOL    HW1 4083  11.812   9.077   8.810 -0.1002  0.7596  0.4851
31705SOL    HW2 4084  11.742   8.952   8.859  1.0562 -0.1984 -0.2446
31706SOL     OW 4085   5.705  10.325  10.309  0.8791  0.0074  0.3250
31706SOL    HW1 4086   5.726  10.309  10.217  2.0197 -1.3588  0.7747
31706SOL    HW2 4087   5.757  10.260  10.357 -0.7391 -0.2557  1.8524
31707SOL     OW 4088   0.575   8.413   1.955  0.1266  0.1158  0.2109
31707SOL    HW1 4089   0.665   8.396   1.983  0.3971  0.0067 -0.6889
31707SOL    HW2 4090   0.521   8.358   2.012  0.6955 -0.4689  0.1989
31708SOL     OW 4091   9.493   7.128  10.309  0.1317 -0.4510 -0.0334
31708SOL    HW1 4092   9.464   7.211  10.347  1.7344 -0.0472  0.3710
31708SOL    HW2 4093   9.521   7.076  10.384  2.3435 -0.0424 -0.5309
31709SOL     OW 4094   0.573  10.998   8.475 -0.0041  0.5277  0.5343
31709SOL    HW1 4095   0.522  10.983   8.554 -1.3310  1.8159 -0.0327
31709SOL    HW2 4096   0.515  10.969   8.404  0.1520  1.7226 -0.1047
31710SOL     OW 4097  11.646   7.130   4.586  0.3008 -0.4603 -0.4122
31710SOL    HW1 4098  11.600   7.177   4.656  3.2922  1.0021  0.7867
31710SOL    HW2 4099  11.687   7.200   4.534  0.2626 -1.6325 -2.1096
31711SOL     OW 4100  11.520   9.930   0.232 -1.1421 -0.4911  0.7752
31711SOL    HW1 4101  11.559   9.852   0.271  0.7885  0.3563  0.6067
31711SOL    HW2 4102  11.494   9.902   0.144 -0.5542 -0.9794  0.7505
31712SOL     OW 4103   4.508   9.337   0.389  0.4751 -0.2623  0.2849
31712SOL    HW1 4104   4.476   9.247   0.385 -0.7128  0.1260  0.7428
31712SOL    HW2 4105   4.586   9.332   0.444 -0.3310 -0.8195  1.4041
31713SOL     OW 4106  12.251   8.774   8.997  0.1092 -0.6683 -0.2928
31713SOL    HW1 4107  12.318   8.767   9.064 -0.1678  0.2016  0.0922
31713SOL    HW2 4108  12.263   8.696   8.942  0.4618 -1.2848  0.6430
31714SOL     OW 4109   5.724   0.660   3.442 -0.6171 -0.2847  0.6169
31714SOL    HW1 4110   5.726   0.625   3.353 -1.2606 -1.3414  0.9992
31714SOL    HW2 4111   5.713   0.583   3.498 -0.0550  0.3454  1.6282
31715SOL     OW 4112   4.289   8.020   0.413 -0.2627 -0.2103 -0.3484
31715SOL    HW1 4113   4.269   7.963   0.488  0.1087  0.4761  0.2945
31715SOL    HW2 4114   4.204   8.037   0.373 -0.6411  0.4266  0.6760
31716SOL     OW 4115   0.363   7.458   1.831 -0.3928  0.6483  0.1823
31716SOL    HW1 4116   0.438   7.498   1.876  1.6664  0.2837 -2.6518
31716SOL    HW2 4117   0.308   7.533   1.807  0.6195  1.2865 -0.2610
31717SOL     OW 4118   3.310  11.724   2.554  0.7943 -0.6205  0.2518
31717SOL    HW1 4119   3.402  11.697   2.547  0.7328 -0.8256  0.2422
31717SOL    HW2 4120   3.311  11.795   2.618  1.0007 -0.4289  0.0414
31718SOL     OW 4121  11.841   5.250  11.156  0.2863 -0.0266 -0.1716
31718SOL    HW1 4122  11.774   5.182  11.165 -0.1786  0.3304 -0.8278
31718SOL    HW2 4123  11.823   5.311  11.227  1.6449 -1.3249  1.3917
31719SOL     OW 4124   9.943  11.451  10.475  0.2709 -0.0812 -0.3238
31719SOL    HW1 4125   9.980  11.527  10.432 -0.5362  0.6793  0.2946
31719SOL    HW2 4126   9.860  11.482  10.512  0.7900 -0.7703  1.5254
31720SOL     OW 4127  11.366   4.649   7.009 -0.4389  0.6672  0.5952
31720SOL    HW1 4128  11.274   4.676   7.000 -0.4924  0.3453  0.1336
31720SOL    HW2 4129  11.368   4.560   6.972  0.2650  1.0711 -0.3574
31721SOL     OW 4130  11.050   8.169   3.248  0.3262  0.2619  0.3727
31721SOL    HW1 4131  10.978   8.214   3.292 -2.0704  0.4321 -3.2794
31721SOL    HW2 4132  11.017   8.082   3.230  1.1977  0.1817 -1.0008
31722SOL     OW 4133   9.928   6.473   0.295  0.0674  0.3021  0.7246
31722SOL    HW1 4134   9.844   6.503   0.260  0.3772 -0.8035 -1.0744
31722SOL    HW2 4135   9.938   6.522   0.377 -2.3634  0.3652  1.0512
31723SOL     OW 4136   1.068  10.629   6.296  0.4647 -0.2087  0.6733
31723SOL    HW1 4137   1.036  10.552   6.343  0.3916 -0.6041 -0.0137
31723SOL    HW2 4138   1.083  10.598   6.207  0.5950  0.5343  0.4318
31724SOL     OW 4139   4.579   3.600  11.190  0.1827 -0.0073  0.4027
31724SOL    HW1 4140   4.632   3.669  11.150  1.1190 -1.4702 -1.0243
31724SOL    HW2 4141   4.507   3.587  11.130  1.8706 -2.5743 -1.2778
31725SOL     OW 4142   9.762   3.740   6.558  0.2031 -0.7130 -0.5437
31725SOL    HW1 4143   9.672   3.709   6.559 -0.2225  0.4719 -1.0459
31725SOL    HW2 4144   9.807   3.682   6.496 -0.3524 -0.9317 -0.7434
31726SOL     OW 4145   4.472  10.935   9.688 -0.1848  0.9177  1.1537
31726SOL    HW1 4146   4.534  10.964   9.755  1.1495 -1.8026  1.2443
31726SOL    HW2 4147   4.528  10.898   9.619 -1.6457  0.8420 -0.0382
31727SOL     OW 4148   7.082   1.533   5.003 -0.4030 -0.7336  0.0769
31727SOL    HW1 4149   7.102   1.598   5.071 -0.0687 -0.5486 -0.1980
31727SOL    HW2 4150   6.993   1.555   4.975  0.3645  0.7791 -1.3169
31728SOL     OW 4151  11.016   5.393   3.645 -0.9844 -0.3512  0.4266
31728SOL    HW1 4152  11.015   5.487   3.661  1.3948 -0.5998  2.7999
31728SOL    HW2 4153  10.926   5.365   3.659 -1.2610  1.2578  2.2741
31729SOL     OW 4154   0.509  10.340   0.033 -0.0767  0.2246 -0.3497
31729SOL    HW1 4155   0.525  10.249   0.005  1.3015 -0.0218  1.1161
31729SOL    HW2 4156   0.415  10.353   0.017 -0.4648 -1.6935  0.0380
31730SOL     OW 4157  12.548   5.339   8.420 -0.1655 -0.0301 -0.4166
31730SOL    HW1 4158  12.507   5.271   8.366 -1.1532  0.7944 -0.7364
31730SOL    HW2 4159  12.569   5.295   8.502  0.7702 -1.1450 -1.2253
31731SOL     OW 4160  12.131   1.123   3.509 -0.5356  0.1077  0.3203
31731SOL    HW1 4161  12.209   1.085   3.469  1.2872  1.3523  2.4320
31731SOL    HW2 4162  12.058   1.088   3.459  1.3574 -1.3245 -1.5942
31732SOL     OW 4163   0.299   4.058  11.898  0.1598  0.3090 -0.3776
31732SOL    HW1 4164   0.257   3.976  11.873 -1.1983  1.1595 -0.9950
31732SOL    HW2 4165   0.315   4.103  11.816  0.2476  0.9677 -0.0043
31733SOL     OW 4166   6.979   9.265  12.402 -0.2409 -0.3928 -0.1921
31733SOL    HW1 4167   7.035   9.311  12.340 -1.4644 -0.4921 -1.4156
31733SOL    HW2 4168   6.935   9.335  12.450 -0.6588 -0.2949 -0.7122
31734SOL     OW 4169   3.673   6.946   5.438  1.0339 -0.6506  0.3475
31734SOL    HW1 4170   3.664   7.035   5.405 -1.2248 -0.5493  1.1225
31734SOL    HW2 4171   3.609   6.895   5.389 -1.2266 -0.8274  3.2196
31735SOL     OW 4172   5.802  10.517   9.714 -0.1338 -0.2431  0.2866
31735SOL    HW1 4173   5.749  10.525   9.634  1.6245  0.3960 -0.8731
31735SOL    HW2 4174   5.804  10.423   9.732  0.1052 -0.4748 -0.8927
31736SOL     OW 4175   6.612   3.003   3.379  0.3707  0.3621 -0.0421
31736SOL    HW1 4176   6.671   3.070   3.346  0.1870  0.3480 -0.3997
31736SOL    HW2 4177   6.532   3.050   3.402  0.3534  0.3133 -0.0011
31737SOL     OW 4178   4.007   5.586   3.165  0.2359 -0.2501  0.4216
31737SOL    HW1 4179   4.086   5.640   3.167  0.7460 -0.9884  0.7001
31737SOL    HW2 4180   3.953   5.620   3.236 -0.1157  0.8453 -0.3339
31738SOL     OW 4181  11.740  11.116   0.707 -0.3731 -0.0231  0.1054
31738SOL    HW1 4182  11.834  11.103   0.694 -0.3977 -1.0952  0.9202
31738SOL    HW2 4183  11.710  11.155   0.625  0.8354  0.6439 -0.0471
31739SOL     OW 4184   4.000   0.962   5.241 -0.1059  0.0879  0.2242
31739SOL    HW1 4185   3.943   0.892   5.208  1.9114 -1.4462 -0.2085
31739SOL    HW2 4186   3.940   1.025   5.280 -2.1588 -0.9734 -1.0174
31740SOL     OW 4187  10.893   7.580   7.565  0.2134  0.4019  0.5657
31740SOL    HW1 4188  10.840   7.554   7.490  0.2872 -2.6871  1.4742
31740SOL    HW2 4189  10.973   7.616   7.527 -0.6210  0.9187 -0.7841
31741SOL     OW 4190   8.275  12.082   8.380  0.3336  0.0887 -0.1026
31741SOL    HW1 4191   8.243  12.107   8.293  0.1702  1.4805  0.3235
31741SOL    HW2 4192   8.234  12.146   8.439  2.1131  0.5166  0.7404
31742SOL     OW 4193   0.952  11.376  11.848  0.4672  0.0063  0.4797
31742SOL    HW1 4194   0.935  11.368  11.755 -2.4998  2.0763  0.7391
31742SOL    HW2 4195   0.964  11.470  11.863  1.0163 -0.2960  2.1802
31743SOL     OW 4196   6.544   0.385   3.938  0.3004 -0.1434 -0.0971
31743SOL    HW1 4197   6.632   0.351   3.953  0.7718  1.4428  0.9356
31743SOL    HW2 4198   6.489   0.336   4.000  0.6096 -0.4758 -0.0792
31744SOL     OW 4199   7.312   9.018   7.587  0.1845  0.8441  0.6521
31744SOL    HW1 4200   7.228   9.054   7.559 -0.1611  0.1136  0.7272
31744SOL    HW2 4201   7.372   9.038   7.516  0.1345  2.0243  0.9211
31745SOL     OW 4202  11.477   7.339   1.407  0.2564  0.2823  0.2426
31745SOL    HW1 4203  11.486   7.390   1.487 -2.0840  0.2656  0.5673
31745SOL    HW2 4204  11.402   7.281   1.422 -0.7059  0.7525 -2.1658
31746SOL     OW 4205  12.429   3.628   2.176 -0.5512  0.2616  0.2736
31746SOL    HW1 4206  12.344   3.663   2.151 -0.4399 -0.0346 -0.5583
31746SOL    HW2 4207  12.467   3.695   2.233 -0.4435  1.4125 -1.0782
31747SOL     OW 4208   2.015   0.821  12.145 -0.3319  0.2303 -0.1833
31747SOL    HW1 4209   2.059   0.739  12.167 -0.4093  0.3210  0.3319
31747SOL    HW2 4210   1.961   0.840  12.222 -0.4486  0.6746 -0.3725
31748SOL     OW 4211   1.615   7.504   8.938 -0.5122 -0.2753  0.1654
31748SOL    HW1 4212   1.559   7.432   8.910  0.4187 -0.6578 -0.7593
31748SOL    HW2 4213   1.678   7.464   8.998 -0.8587  0.0421  0.7494
31749SOL     OW 4214   8.046   1.196  11.598 -0.8125 -0.3100 -0.1259
31749SOL    HW1 4215   8.048   1.113  11.552  0.0977 -1.0305  1.1488
31749SOL    HW2 4216   8.062   1.262  11.530  1.6096 -1.3974 -0.7191
31750SOL     OW 4217   1.503   3.002   8.333 -0.0939  0.2157  0.7363
31750SOL    HW1 4218   1.420   3.046   8.353  0.6154  1.7126  0.5470
31750SOL    HW2 4219   1.553   3.068   8.284  0.6972 -1.1270 -0.3163
31751SOL     OW 4220   8.287   9.901   5.363 -0.1965  0.3381  0.6249
31751SOL    HW1 4221   8.253   9.827   5.313 -0.8500  0.4689  0.8623
31751SOL    HW2 4222   8.317   9.862   5.445  2.1705 -0.0909 -0.3689
31752SOL     OW 4223  11.718  10.637   9.173  0.1168  0.1523 -0.4702
31752SOL    HW1 4224  11.734  10.614   9.082  1.1370 -2.3895  0.2787
31752SOL    HW2 4225  11.653  10.574   9.203 -0.5733  1.2673  0.4648
31753SOL     OW 4226  10.079   0.771   4.209 -0.7548 -0.3755  0.0532
31753SOL    HW1 4227  10.071   0.687   4.164  1.1834 -0.6956  0.2166
31753SOL    HW2 4228  10.104   0.833   4.140  0.1424 -0.4352  0.3127
31754SOL     OW 4229   3.332   2.549   3.423 -0.5354 -0.1980  0.0251
31754SOL    HW1 4230   3.416   2.546   3.471  0.3042 -1.9941 -1.4093
31754SOL    HW2 4231   3.357   2.540   3.331 -2.2452  0.7780 -0.5716
31755SOL     OW 4232   9.998   0.169   8.606 -0.2598 -0.3612 -0.6692
31755SOL    HW1 4233   9.908   0.158   8.636 -0.4862 -0.0187 -1.1977
31755SOL    HW2 4234  10.052   0.154   8.683 -0.6933 -2.0848 -0.6810
31756SOL     OW 4235   7.560   2.752   2.593  0.1179  0.6867 -0.3459
31756SOL    HW1 4236   7.573   2.740   2.687 -0.5216  2.0543 -0.0689
31756SOL    HW2 4237   7.630   2.811   2.566  0.4048  0.1590 -0.7696
31757SOL     OW 4238   0.014   1.517   5.836 -0.0425 -0.8382 -0.4270
31757SOL    HW1 4239  -0.068   1.530   5.885 -0.0626 -1.6983 -0.2204
31757SOL    HW2 4240   0.033   1.424   5.844  1.3534 -0.5332  0.1394
31758SOL     OW 4241   1.988   6.449   9.944 -0.2152 -0.3343 -0.0884
31758SOL    HW1 4242   1.953   6.512   9.881  1.2084 -0.6836 -1.2752
31758SOL    HW2 4243   2.078   6.434   9.916  1.2665  1.1467  3.3060
31759SOL     OW 4244   4.810   9.014   7.939 -0.0463  0.1365  0.6923
31759SOL    HW1 4245   4.721   8.983   7.923 -0.0688  0.5268  0.0666
31759SOL    HW2 4246   4.857   8.997   7.857  0.1734  0.9303  0.6517
31760SOL     OW 4247   4.200   8.039   2.025 -0.0926  0.1484  0.5529
31760SOL    HW1 4248   4.158   7.971   1.972  1.6299 -0.7192  0.2355
31760SOL    HW2 4249   4.129   8.100   2.047 -1.0285  0.0995 -2.0431
31761SOL     OW 4250   7.688   9.608   2.510  0.2297  0.1007  0.4621
31761SOL    HW1 4251   7.649   9.641   2.591 -0.6716  0.1897  0.0058
31761SOL    HW2 4252   7.666   9.515   2.508  0.8577 -0.0611  0.6515
31762SOL     OW 4253   8.381   4.937   2.734 -0.2352 -0.3912  0.2870
31762SOL    HW1 4254   8.350   4.862   2.683 -0.3344  0.3313 -0.7438
31762SOL    HW2 4255   8.301   4.982   2.761 -0.1636  1.0561 -1.7406
31763SOL     OW 4256  11.773   1.788   1.107  0.2379  0.2576 -0.3077
31763SOL    HW1 4257  11.739   1.855   1.167  0.3551  0.1702 -0.1399
31763SOL    HW2 4258  11.868   1.799   1.111  0.2428  0.2738 -0.5046
31764SOL     OW 4259  11.028   8.933   6.851 -0.0272 -0.5914  0.3945
31764SOL    HW1 4260  11.031   9.015   6.900 -1.6942 -1.3650  1.8898
31764SOL    HW2 4261  10.977   8.955   6.772 -0.1031 -0.1010  0.5729
31765SOL     OW 4262   7.057   2.557  10.914 -0.0664  0.1257 -0.1654
31765SOL    HW1 4263   7.032   2.648  10.929 -1.3909 -0.1601 -0.5531
31765SOL    HW2 4264   7.151   2.555  10.933 -0.4563  1.0398  2.1490
31766SOL     OW 4265   1.508   9.280   6.992  0.1629 -0.1801 -0.0916
31766SOL    HW1 4266   1.583   9.233   7.031  0.4000  1.7242  1.9588
31766SOL    HW2 4267   1.546   9.331   6.921  0.8437  0.6262  0.8116
31767SOL     OW 4268   8.654   2.676   0.868 -0.6661  0.1250  0.5117
31767SOL    HW1 4269   8.597   2.617   0.918 -1.9669 -0.1002 -1.1549
31767SOL    HW2 4270   8.737   2.628   0.859 -0.8688 -0.3777  1.3016
31768SOL     OW 4271   2.089   1.672  10.405  0.7528  0.1205 -0.1796
31768SOL    HW1 4272   2.122   1.603  10.463  0.3937 -0.3305 -0.5078
31768SOL    HW2 4273   2.092   1.633  10.318 -2.4495 -0.6881 -0.0654
31769SOL     OW 4274   6.924   1.107   8.432 -0.0528 -0.1182 -0.6051
31769SOL    HW1 4275   6.920   1.019   8.470  0.1929 -0.6614 -1.7937
31769SOL    HW2 4276   6.992   1.101   8.365 -0.3694  0.8481 -1.0285
31770SOL     OW 4277   3.425   3.739   4.156 -0.0843 -0.0020 -0.6063
31770SOL    HW1 4278   3.487   3.683   4.110 -0.9806  0.0046 -1.8664
31770SOL    HW2 4279   3.422   3.703   4.245  0.3625 -1.1153 -1.0237
31771SOL     OW 4280  10.110  11.637   0.812 -0.7433 -0.1803  0.1303
31771SOL    HW1 4281  10.156  11.710   0.770 -0.6450 -0.5403 -0.4064
31771SOL    HW2 4282  10.065  11.593   0.740  2.4835 -3.1008 -0.3580
31772SOL     OW 4283   6.276   4.469  10.768 -0.1943 -0.3071  0.0903
31772SOL    HW1 4284   6.311   4.475  10.857 -0.2117 -1.7458  0.2206
31772SOL    HW2 4285   6.286   4.557  10.733  1.2937 -0.0762  0.9659
31773SOL     OW 4286   4.734   2.657   7.396  0.3221 -0.6084 -0.1889
31773SOL    HW1 4287   4.796   2.646   7.324 -0.6059 -1.3346 -0.8967
31773SOL    HW2 4288   4.727   2.570   7.435  1.9026  0.0561  1.7327
31774SOL     OW 4289   2.816   7.610   2.996  0.8841  0.0326  0.3905
31774SOL    HW1 4290   2.806   7.515   3.006  0.9172  0.1844  2.4498
31774SOL    HW2 4291   2.910   7.624   3.000  0.8401  0.1990  1.0841
31775SOL     OW 4292   5.513   9.047   8.774 -0.2479 -0.0499 -0.1664
31775SOL    HW1 4293   5.454   9.118   8.799 -0.7383 -0.5716  0.1976
31775SOL    HW2 4294   5.494   8.978   8.837 -1.4995 -1.4080 -1.9216
31776SOL     OW 4295  12.488   1.754   6.988 -0.1242 -0.1655 -0.3822
31776SOL    HW1 4296  12.510   1.843   6.959 -1.0283  0.8230  1.7436
31776SOL    HW2 4297  12.486   1.703   6.907  0.9211  1.6196 -1.6238
31777SOL     OW 4298   8.265   8.966   6.520 -0.7560  0.2191 -0.3715
31777SOL    HW1 4299   8.208   8.972   6.596 -2.1956  1.4939 -1.4768
31777SOL    HW2 4300   8.206   8.973   6.445  0.6002 -1.1135 -1.6265
31778SOL     OW 4301   1.360   6.797   6.863 -0.3567 -0.7029 -0.7839
31778SOL    HW1 4302   1.317   6.874   6.826 -0.1938 -0.9651 -1.5268
31778SOL    HW2 4303   1.374   6.738   6.789  0.8716 -0.8129 -0.4903
31779SOL     OW 4304   2.250   2.388   0.832  0.2209 -0.0384 -0.1803
31779SOL    HW1 4305   2.266   2.479   0.809 -0.2329 -0.3668 -1.8890
31779SOL    HW2 4306   2.160   2.372   0.806  0.1158 -0.8410  0.6175
31780SOL     OW 4307   3.833   5.179   4.054  0.5434 -0.1328  0.3351
31780SOL    HW1 4308   3.786   5.199   4.134  1.1791  0.1687  0.6430
31780SOL    HW2 4309   3.766   5.151   3.992  0.0305 -0.1779  0.9133
31781SOL     OW 4310  11.255   4.361   3.578  0.6792 -0.6567  0.1946
31781SOL    HW1 4311  11.233   4.454   3.579  0.5409 -0.6097 -2.0779
31781SOL    HW2 4312  11.173   4.316   3.596  0.6571 -0.3696  0.8471
31782SOL     OW 4313   4.404  12.006  12.146 -0.4878  0.6737  0.1334
31782SOL    HW1 4314   4.448  12.001  12.231  1.6693 -0.9889 -0.9825
31782SOL    HW2 4315   4.357  11.923  12.139  0.8000 -0.0122 -0.9595
31783SOL     OW 4316   2.898   8.647   9.605 -0.1049  0.3485 -0.2488
31783SOL    HW1 4317   2.844   8.686   9.674  0.3925 -0.1981  0.4778
31783SOL    HW2 4318   2.962   8.595   9.653  1.3958  1.3766 -1.0545
31784SOL     OW 4319   2.130   3.540   6.573 -0.0702 -0.1448 -0.2893
31784SOL    HW1 4320   2.084   3.608   6.622 -0.9356 -1.4668  0.8107
31784SOL    HW2 4321   2.198   3.509   6.632 -1.6320 -2.3137  0.5470
31785SOL     OW 4322   6.179   3.259  11.688 -0.1922 -0.2849  0.1926
31785SOL    HW1 4323   6.158   3.166  11.684 -1.6107 -0.2030  2.9392
31785SOL    HW2 4324   6.124   3.299  11.620  0.9603 -1.4506 -1.4973
31786SOL     OW 4325   2.467   8.930  11.206  0.1138  0.3232 -0.5428
31786SOL    HW1 4326   2.441   9.011  11.162 -3.3744 -0.9465 -1.0897
31786SOL    HW2 4327   2.451   8.947  11.299 -1.8529 -0.0698 -0.7698
31787SOL     OW 4328   4.378   9.510  11.894  0.0472 -0.2713 -0.2525
31787SOL    HW1 4329   4.297   9.504  11.943 -0.2156 -1.2778 -0.7850
31787SOL    HW2 4330   4.370   9.592  11.844  0.2329  0.6641  1.1758
31788SOL     OW 4331   8.732   1.978  12.325 -0.6041 -0.2369  0.4740
31788SOL    HW1 4332   8.805   1.974  12.387 -0.6652 -2.2595  0.4738
31788SOL    HW2 4333   8.654   1.960  12.377 -0.9651  0.5809  0.2354
31789SOL     OW 4334   3.074   9.403  11.547 -0.3167  0.5218  0.0125
31789SOL    HW1 4335   3.155   9.433  11.505 -0.6245  1.0243 -0.2350
31789SOL    HW2 4336   3.074   9.447  11.632 -0.7464  1.2136 -0.3331
31790SOL     OW 4337   5.794   1.177   8.334  0.2254  0.0585  0.0809
31790SOL    HW1 4338   5.779   1.260   8.288 -1.4280 -0.7565 -0.9349
31790SOL    HW2 4339   5.887   1.159   8.322 -0.0615  0.0593 -2.7148
31791SOL     OW 4340   0.650   6.251   2.623  0.0118  0.4303 -0.5529
31791SOL    HW1 4341   0.677   6.334   2.583 -0.3456  0.7717 -0.0907
31791SOL    HW2 4342   0.724   6.192   2.607  0.3536  0.8961 -0.7055
31792SOL     OW 4343   6.831   9.870  10.519 -0.0411 -0.2667  0.2722
31792SOL    HW1 4344   6.844   9.862  10.614  0.0253  0.6933  0.3510
31792SOL    HW2 4345   6.918   9.885  10.484 -0.2877  1.4241  0.2952
31793SOL     OW 4346   8.751  12.144   7.921  0.0927 -0.2574 -0.5563
31793SOL    HW1 4347   8.803  12.148   8.001 -0.1481 -3.9912 -0.0004
31793SOL    HW2 4348   8.665  12.180   7.946  0.2439 -0.7127  0.6705
31794SOL     OW 4349  12.441  12.144   1.870  0.4740 -0.0738  0.2621
31794SOL    HW1 4350  12.419  12.057   1.837  2.4715 -0.3277 -0.6080
31794SOL    HW2 4351  12.438  12.200   1.792  2.2855 -0.0603  0.1424
31795SOL     OW 4352   7.230  10.392   1.921 -0.1584  0.2749 -0.0890
31795SOL    HW1 4353   7.172  10.328   1.963  1.0108  0.0005  1.1473
31795SOL    HW2 4354   7.189  10.476   1.940  0.6422  0.2228  2.2321
31796SOL     OW 4355  12.297   6.292  12.292  0.5133 -0.0445  0.2609
31796SOL    HW1 4356  12.285   6.307  12.386  0.9798 -0.0343  0.3220
31796SOL    HW2 4357  12.270   6.202  12.279 -2.1122  0.7025 -0.0698
31797SOL     OW 4358   3.564  10.777  12.590  0.0046  0.4507  0.0312
31797SOL    HW1 4359   3.545  10.768  12.496 -0.6374 -0.4141  0.2329
31797SOL    HW2 4360   3.492  10.830  12.624  0.7610  1.6242 -0.1221
31798SOL     OW 4361  12.271   8.116  10.495  0.2961  0.0888  1.3133
31798SOL    HW1 4362  12.337   8.057  10.457  0.2453 -0.2334  1.7183
31798SOL    HW2 4363  12.272   8.193  10.437 -0.9091 -1.0220 -0.2758
31799SOL     OW 4364   5.297   1.111   5.987 -0.5840  0.2965 -0.1206
31799SOL    HW1 4365   5.291   1.072   6.074  1.8008  0.1486  0.0479
31799SOL    HW2 4366   5.269   1.202   6.000  1.2795  0.7539  1.2297
31800SOL     OW 4367   3.520   5.200   2.440  0.4092 -0.0024 -0.3444
31800SOL    HW1 4368   3.504   5.214   2.534  0.6983 -2.2588  0.1017
31800SOL    HW2 4369   3.463   5.263   2.396  1.6177  2.3901  1.3265
31801SOL     OW 4370   4.295  12.513   0.352  0.0716 -1.0529  0.0590
31801SOL    HW1 4371   4.292  12.496   0.446  2.5100  2.7148  1.0630
31801SOL    HW2 4372   4.365  12.457   0.319  2.0517  0.4479  1.4447
31802SOL     OW 4373   3.258  12.201   5.409 -0.6219  0.4646  0.3031
31802SOL    HW1 4374   3.164  12.184   5.414 -0.5426 -0.2147 -0.2923
31802SOL    HW2 4375   3.298  12.117   5.432 -0.1738  0.4953 -0.3507
31803SOL     OW 4376   5.982   9.287   0.854 -0.2786 -0.8534  0.1893
31803SOL    HW1 4377   5.999   9.336   0.934 -0.6404 -0.6391  0.1378
31803SOL    HW2 4378   5.899   9.322   0.822 -0.8188 -1.8868  0.4424
31804SOL     OW 4379   7.643   3.534   3.854  0.0563 -0.0637 -0.2870
31804SOL    HW1 4380   7.552   3.563   3.867  0.2311  0.8298 -0.9828
31804SOL    HW2 4381   7.691   3.578   3.924 -0.0559 -0.6205  0.1465
31805SOL     OW 4382  10.753   3.660   1.252 -0.0399  0.5105 -0.4162
31805SOL    HW1 4383  10.673   3.635   1.208  0.7687 -0.9772 -1.1207
31805SOL    HW2 4384  10.811   3.585   1.242  1.2654  1.3299  0.5290
31806SOL     OW 4385   9.259   5.126   7.105 -0.5370  0.0183 -0.3690
31806SOL    HW1 4386   9.311   5.206   7.106  0.2679 -0.4793  1.2585
31806SOL    HW2 4387   9.313   5.062   7.059 -0.5094  0.0067 -0.3209
31807SOL     OW 4388   9.728   5.111  12.113 -0.3766  0.1333  0.0695
31807SOL    HW1 4389   9.781   5.035  12.088  1.6104  1.5185 -0.1599
31807SOL    HW2 4390   9.728   5.109  12.209  0.8067  0.5553  0.0930
31808SOL     OW 4391   2.241   3.945   6.212  0.7417 -0.5220 -0.0256
31808SOL    HW1 4392   2.251   3.885   6.138  0.6587 -1.0530  0.3850
31808SOL    HW2 4393   2.164   3.913   6.259 -0.0234  0.6292 -0.4583
31809SOL     OW 4394  11.632  12.267   5.377  0.4196 -0.3405  0.5461
31809SOL    HW1 4395  11.605  12.352   5.410  0.2952  0.3542 -1.2428
31809SOL    HW2 4396  11.727  12.267   5.387  0.4333  0.0634  0.4202
31810SOL     OW 4397   8.221   8.792   4.390 -0.2812  0.0180  0.0960
31810SOL    HW1 4398   8.251   8.720   4.445  2.8221  0.8609 -0.2613
31810SOL    HW2 4399   8.198   8.750   4.307 -2.5802 -0.9515  1.1218
31811SOL     OW 4400   0.330  12.426  10.490  0.0399  0.0965  0.5589
31811SOL    HW1 4401   0.392  12.359  10.461  0.6919  1.0384 -0.2772
31811SOL    HW2 4402   0.292  12.460  10.408  0.0933  1.0952  0.9400
31812SOL     OW 4403   8.755   7.223  11.948  0.1752  0.1957 -0.4160
31812SOL    HW1 4404   8.792   7.137  11.967  0.4675  0.6554  1.3021
31812SOL    HW2 4405   8.668   7.205  11.914  0.7577 -0.8039 -1.4342
31813SOL     OW 4406   4.695   6.318   7.713  0.2761 -0.3930  0.3258
31813SOL    HW1 4407   4.701   6.289   7.622 -2.3391  4.7038 -1.8754
31813SOL    HW2 4408   4.786   6.335   7.738  1.0143 -0.6188 -1.9154
31814SOL     OW 4409   3.187   4.494   1.232  0.3789 -0.3346  0.4025
31814SOL    HW1 4410   3.170   4.414   1.282  1.0646 -0.3940  0.5556
31814SOL    HW2 4411   3.121   4.556   1.262 -0.7173 -1.1135 -0.3575
31815SOL     OW 4412   2.010   7.092   0.700 -0.2821 -0.1080 -0.2921
31815SOL    HW1 4413   2.035   7.001   0.712 -1.0620 -0.5506 -1.7497
31815SOL    HW2 4414   1.937   7.106   0.760  0.4783 -0.1224  0.6671
31816SOL     OW 4415   9.422  11.752   0.849 -0.6786  0.1437 -0.0301
31816SOL    HW1 4416   9.387  11.771   0.762  1.2615 -0.2765 -0.9758
31816SOL    HW2 4417   9.346  11.726   0.901 -1.5980 -2.5574 -2.4394
31817SOL     OW 4418   4.581   3.266   2.505 -0.6011 -0.2778 -0.0992
31817SOL    HW1 4419   4.654   3.219   2.546  0.5937 -0.6692 -2.4955
31817SOL    HW2 4420   4.567   3.222   2.422 -0.9667  2.1702 -1.4378
31818SOL     OW 4421   2.913   4.311   2.394 -0.0139 -0.2543 -0.0024
31818SOL    HW1 4422   2.867   4.280   2.316  0.6619 -1.9048  0.2105
31818SOL    HW2 4423   2.947   4.231   2.435  0.2118  0.6329  1.6246
31819SOL     OW 4424  10.593  10.324  12.538 -0.4545 -0.2221 -0.3831
31819SOL    HW1 4425  10.608  10.352  12.628  0.3464  1.0074 -0.8726
31819SOL    HW2 4426  10.512  10.368  12.512 -1.9869 -2.4280  0.4572
31820SOL     OW 4427   0.010  11.833  10.529  0.2743 -0.2165 -0.4524
31820SOL    HW1 4428  -0.081  11.861  10.522 -0.0795 -0.9992  0.5901
31820SOL    HW2 4429   0.062  11.911  10.509 -0.6449  0.7992  0.9396
31821SOL     OW 4430   9.662   5.514   9.534  0.2552  0.2606  0.1617
31821SOL    HW1 4431   9.732   5.567   9.572  1.9354 -1.8751  0.2800
31821SOL    HW2 4432   9.607   5.490   9.608  0.5348  0.3489  0.4003
31822SOL     OW 4433   0.239   2.289   5.179 -0.1327  0.2888  0.2293
31822SOL    HW1 4434   0.208   2.377   5.157  0.4717  0.8948  1.7024
31822SOL    HW2 4435   0.221   2.279   5.272  2.5626  0.0842  0.8091
31823SOL     OW 4436   1.751   1.047   9.304  0.1272 -0.2457  0.4001
31823SOL    HW1 4437   1.830   1.101   9.292 -1.0253  1.2252 -1.0358
31823SOL    HW2 4438   1.742   1.000   9.221 -1.0026  0.3314  0.1786
31824SOL     OW 4439   9.729   6.104   9.619 -0.3866  0.4602  0.2644
31824SOL    HW1 4440   9.818   6.097   9.586 -0.5570  2.9986 -0.9308
31824SOL    HW2 4441   9.673   6.097   9.541 -1.3516 -1.5909  1.0404
31825SOL     OW 4442   2.197  11.964   9.742  0.1365 -0.0972 -0.1361
31825SOL    HW1 4443   2.185  11.869   9.732 -0.6926  0.1005 -1.1661
31825SOL    HW2 4444   2.276  11.972   9.795 -0.4703 -1.3834  1.0461
31826SOL     OW 4445  10.273   9.178   9.899  0.1818 -0.1595  0.4826
31826SOL    HW1 4446  10.256   9.123   9.975 -1.6183 -0.8352 -0.3388
31826SOL    HW2 4447  10.329   9.126   9.843  1.6192  0.3903  1.3614
31827SOL     OW 4448   9.734   2.521   7.278 -0.1797  0.1413  0.0660
31827SOL    HW1 4449   9.749   2.564   7.363  0.1879 -2.8225  1.6302
31827SOL    HW2 4450   9.819   2.521   7.235  0.1845 -0.3930  0.7672
31828SOL     OW 4451   0.569   2.830   4.384  0.4494  0.0498  0.4001
31828SOL    HW1 4452   0.638   2.877   4.338  0.1880 -1.6071 -1.8407
31828SOL    HW2 4453   0.505   2.898   4.406  1.3426  1.1506 -0.2814
31829SOL     OW 4454   6.175   6.797   9.249 -0.4729  0.2218  0.4484
31829SOL    HW1 4455   6.089   6.824   9.217 -0.0249  1.1482 -0.0126
31829SOL    HW2 4456   6.168   6.702   9.258 -1.0301  0.0726 -1.1765
31830SOL     OW 4457   8.451   7.325   0.061 -0.7410  0.1627 -0.1104
31830SOL    HW1 4458   8.400   7.269   0.003 -0.5277 -0.2868  0.1355
31830SOL    HW2 4459   8.504   7.265   0.113  0.5419  0.6441 -0.8190
31831SOL     OW 4460   8.873   1.190  10.439  0.0574  0.0330 -0.0886
31831SOL    HW1 4461   8.779   1.183  10.459  0.0881 -2.1478 -0.4807
31831SOL    HW2 4462   8.876   1.210  10.345  0.0145  1.2115  0.1375
31832SOL     OW 4463   0.327   3.958   0.653 -0.7284  0.8309 -0.0218
31832SOL    HW1 4464   0.345   4.001   0.569 -1.0233  1.5783  0.2862
31832SOL    HW2 4465   0.402   3.982   0.709 -0.4930  0.2701 -0.0909
31833SOL     OW 4466   1.636   4.169   0.450  0.5622  0.1506  0.1777
31833SOL    HW1 4467   1.677   4.183   0.536  2.0881 -2.5221 -0.0180
31833SOL    HW2 4468   1.558   4.117   0.469 -1.2975  2.7650  0.2334
31834SOL     OW 4469   5.069   9.785   6.930  0.1469 -0.6380 -0.2126
31834SOL    HW1 4470   5.141   9.782   6.866  0.0267 -0.3184 -0.3680
31834SOL    HW2 4471   5.112   9.776   7.015  0.2175 -2.0209 -0.3786
31835SOL     OW 4472   1.526   1.817   7.944  0.2459 -0.1122  0.0453
31835SOL    HW1 4473   1.557   1.853   8.027 -1.3205 -0.2099  0.6941
31835SOL    HW2 4474   1.497   1.728   7.965  2.2517 -1.1309 -1.1516
31836SOL     OW 4475   5.460   7.023  12.007  0.5794  0.3772  0.2605
31836SOL    HW1 4476   5.552   6.998  12.012 -0.3885 -3.4509  3.0914
31836SOL    HW2 4477   5.447   7.081  12.082  0.6652  1.0958 -0.2669
31837SOL     OW 4478  10.754   4.181   6.302  0.0147  0.2748  0.5188
31837SOL    HW1 4479  10.772   4.235   6.378  3.2483 -0.7659  0.6375
31837SOL    HW2 4480  10.697   4.111   6.335  0.7899  0.2265  1.8170
31838SOL     OW 4481   2.009  12.416   8.352  0.0275  0.5597 -0.7119
31838SOL    HW1 4482   1.916  12.441   8.355  0.3547  1.7452 -0.0216
31838SOL    HW2 4483   2.045  12.469   8.280  0.2811  0.4778 -0.6429
31839SOL     OW 4484   0.330   9.398   0.677  0.3997 -0.6474  0.5553
31839SOL    HW1 4485   0.391   9.332   0.712  0.4721 -0.5171  0.6774
31839SOL    HW2 4486   0.312   9.369   0.588  2.1177  0.3034 -0.1654
31840SOL     OW 4487  10.542   7.691  11.369  0.0989  0.3383 -0.4288
31840SOL    HW1 4488  10.540   7.767  11.427 -0.3220 -0.5801  0.8169
31840SOL    HW2 4489  10.631   7.658  11.376  0.1211  0.3873 -0.4959
31841SOL     OW 4490   9.610   7.332   6.009 -0.2305 -0.4664 -0.4414
31841SOL    HW1 4491   9.532   7.278   6.026  0.5084 -1.6818 -0.8222
31841SOL    HW2 4492   9.620   7.384   6.088 -0.4801 -1.5010  0.2941
31842SOL     OW 4493   3.495   1.717   8.368  0.4861  0.4697 -0.4312
31842SOL    HW1 4494   3.418   1.710   8.313 -0.1430  2.0244  0.1996
31842SOL    HW2 4495   3.544   1.636   8.351  1.4291  1.6957 -4.8601
31843SOL     OW 4496  12.119   0.062  12.413  0.1406  0.2401 -0.0503
31843SOL    HW1 4497  12.189   0.038  12.353 -0.2304 -0.2056 -0.3131
31843SOL    HW2 4498  12.092  -0.020  12.453 -0.7885  0.2759 -0.5666
31844SOL     OW 4499   5.297   5.115  12.475  0.0963 -0.2677  0.4602
31844SOL    HW1 4500   5.332   5.193  12.518  0.8048  0.0173 -0.5761
31844SOL    HW2 4501   5.235   5.078  12.538 -1.0424  1.6997  0.5624
31845SOL     OW 4502   7.349   6.339   2.368  0.1010 -0.0219 -0.5208
31845SOL    HW1 4503   7.306   6.386   2.440  1.1201 -0.0502  0.1294
31845SOL    HW2 4504   7.296   6.261   2.356 -0.6409  0.4572 -0.4630
31846SOL     OW 4505   8.379   5.912  11.054 -0.2832 -0.3099  0.1558
31846SOL    HW1 4506   8.437   5.846  11.015  0.1862 -0.9882  1.9426
31846SOL    HW2 4507   8.397   5.909  11.147 -1.4309  1.2353  0.4761
31847SOL     OW 4508  10.340   8.985  11.977 -0.1430 -0.0201  0.4327
31847SOL    HW1 4509  10.392   8.920  11.928  1.6242  2.6422 -1.4885
31847SOL    HW2 4510  10.254   8.983  11.935 -0.2428 -1.3254  0.6556
31848SOL     OW 4511  11.738   0.678   2.711  0.2222 -0.0928 -0.2422
31848SOL    HW1 4512  11.681   0.616   2.665 -0.6523  1.1048 -0.8348
31848SOL    HW2 4513  11.801   0.706   2.645 -0.3842  0.8430 -0.4404
31849SOL     OW 4514   0.591   7.053   3.589  0.3187  0.4760  0.0052
31849SOL    HW1 4515   0.496   7.041   3.595  0.2975  0.8875  0.5113
31849SOL    HW2 4516   0.622   6.975   3.542 -0.0664 -0.4844  1.2841
31850SOL     OW 4517  12.148   9.557   7.651 -0.5285 -0.0911  0.1088
31850SOL    HW1 4518  12.118   9.553   7.560  0.2986  0.2727 -0.1866
31850SOL    HW2 4519  12.079   9.605   7.698 -0.0343  1.4795 -0.7169
31851SOL     OW 4520   7.627   6.263  10.343  0.6801  0.5416  0.4393
31851SOL    HW1 4521   7.677   6.345  10.338  1.0467  0.6102  3.4573
31851SOL    HW2 4522   7.691   6.197  10.368  0.1776 -0.4988 -0.8766
31852SOL     OW 4523   3.487   4.568   5.246 -0.4449  0.0053 -0.6347
31852SOL    HW1 4524   3.397   4.600   5.240 -0.8178 -0.5411  1.3381
31852SOL    HW2 4525   3.492   4.498   5.181 -2.3737 -1.8841  1.0855
31853SOL     OW 4526   7.393   0.671  10.898 -0.4760  0.2155  0.3641
31853SOL    HW1 4527   7.306   0.712  10.901  0.7857  3.0461  2.4322
31853SOL    HW2 4528   7.443   0.715  10.966  2.3169 -2.0998  0.0003
31854SOL     OW 4529   6.778   8.671   9.058 -0.2157 -0.5549  0.2688
31854SOL    HW1 4530   6.729   8.753   9.070  1.7121  0.7720 -0.2683
31854SOL    HW2 4531   6.720   8.615   9.007 -1.3366  0.7476  0.0599
31855SOL     OW 4532   2.991  11.487  10.703  0.3155 -0.3437 -0.0982
31855SOL    HW1 4533   3.013  11.568  10.748 -1.3207  0.4468 -0.6361
31855SOL    HW2 4534   2.929  11.443  10.761  1.4886 -1.4351  0.3719
31856SOL     OW 4535   2.863  11.514   3.763  0.0126  0.4828 -0.2513
31856SOL    HW1 4536   2.780  11.525   3.811 -0.5980 -0.3487 -1.0755
31856SOL    HW2 4537   2.930  11.514   3.831 -0.9056 -1.6341  0.7426
31857SOL     OW 4538   0.622   8.723   6.503 -0.3840  0.0880  0.4587
31857SOL    HW1 4539   0.569   8.751   6.578 -0.5096  1.1094  0.0010
31857SOL    HW2 4540   0.628   8.800   6.447 -0.2194 -0.6344 -0.5512
31858SOL     OW 4541   4.153   5.077   9.835  0.7322  0.2974 -0.0567
31858SOL    HW1 4542   4.108   4.994   9.848  0.1978  0.6310  0.2629
31858SOL    HW2 4543   4.239   5.053   9.800 -0.1254 -0.2969 -1.9107
31859SOL     OW 4544   8.785   4.753   3.467  0.3268  0.0980 -0.1659
31859SOL    HW1 4545   8.726   4.828   3.476  2.2202  1.5557  0.7762
31859SOL    HW2 4546   8.807   4.750   3.374 -0.5667  0.0260 -0.3887
31860SOL     OW 4547   7.838  11.619   4.650 -0.1779  0.3163 -0.2510
31860SOL    HW1 4548   7.909  11.556   4.663  0.1911  0.4883 -1.3532
31860SOL    HW2 4549   7.848  11.681   4.722 -0.3862 -0.7214  0.6980
31861SOL     OW 4550   0.523   3.739   2.645 -0.1040 -0.7893  0.1426
31861SOL    HW1 4551   0.586   3.811   2.640  1.1077 -1.8252  0.1725
31861SOL    HW2 4552   0.519   3.705   2.556  0.7683 -1.8796  0.5099
31862SOL     OW 4553   6.587  12.498  10.292 -0.1348  0.3230  0.0519
31862SOL    HW1 4554   6.647  12.452  10.351 -0.8087 -0.2452  0.2995
31862SOL    HW2 4555   6.574  12.584  10.333  1.2948  0.8407 -0.5219
31863SOL     OW 4556   9.852   5.322   3.933  0.0303 -0.0355 -0.0089
31863SOL    HW1 4557   9.820   5.258   3.870  1.4128 -0.7088 -0.0676
31863SOL    HW2 4558   9.776   5.379   3.951 -1.1578 -1.5102 -0.1521
31864SOL     OW 4559  11.173  12.373   3.854 -0.5761  0.0130 -0.3376
31864SOL    HW1 4560  11.089  12.365   3.810 -0.4596  1.1174 -0.8095
31864SOL    HW2 4561  11.213  12.451   3.815  0.7003 -0.5309 -0.1797
31865SOL     OW 4562   3.189   4.884   5.157  0.0634  0.5547 -0.1530
31865SOL    HW1 4563   3.273   4.881   5.112  0.3446  0.3384  0.3808
31865SOL    HW2 4564   3.132   4.933   5.097  1.0211  2.2066  0.2079
31866SOL     OW 4565  12.116   9.789   6.434 -0.3014 -0.3532  0.3973
31866SOL    HW1 4566  12.092   9.839   6.512 -0.2214  0.5968 -0.1730
31866SOL    HW2 4567  12.055   9.819   6.367 -0.2216 -0.9961  0.0308
31867SOL     OW 4568   8.340   0.889   0.258 -0.0584  0.2702 -0.1852
31867SOL    HW1 4569   8.426   0.930   0.267  0.4577 -1.0473  1.1734
31867SOL    HW2 4570   8.298   0.903   0.342 -0.9184  0.3033 -0.6087
31868SOL     OW 4571   0.378   3.145   9.414  0.8614 -0.0241  0.0764
31868SOL    HW1 4572   0.368   3.174   9.505  1.0208  0.9459 -0.2073
31868SOL    HW2 4573   0.453   3.085   9.417  0.4117 -0.5674  0.7043
31869SOL     OW 4574   5.648   0.291   9.725  0.1012  0.3682 -0.2087
31869SOL    HW1 4575   5.733   0.309   9.685 -0.0354  1.0628 -0.1982
31869SOL    HW2 4576   5.669   0.257   9.812  0.3599  1.0799  0.0089
31870SOL     OW 4577   8.880   9.640   2.114 -0.0844 -0.1207 -0.0794
31870SOL    HW1 4578   8.797   9.682   2.136 -0.0051 -0.5257  1.0743
31870SOL    HW2 4579   8.893   9.575   2.184  0.0991 -1.6377 -1.4513
31871SOL     OW 4580   8.210   2.793   8.066 -0.0067 -0.3223  0.2683
31871SOL    HW1 4581   8.304   2.785   8.079  0.0098 -0.5803 -0.0170
31871SOL    HW2 4582   8.191   2.740   7.989 -0.4106 -0.4050  0.4227
31872SOL     OW 4583  10.861   4.648   1.564  0.0605  0.1053 -0.7621
31872SOL    HW1 4584  10.915   4.694   1.628  0.8799 -0.3554 -1.1008
31872SOL    HW2 4585  10.899   4.672   1.479  1.7188 -2.5431 -0.9090
31873SOL     OW 4586  11.874   9.062  12.108  0.7038  0.1632 -0.6495
31873SOL    HW1 4587  11.921   8.983  12.136  0.8362  0.5214  0.1605
31873SOL    HW2 4588  11.791   9.059  12.156  0.5354  0.3133 -0.9275
31874SOL     OW 4589  10.541   3.808   1.681  0.4782  0.3037  0.1403
31874SOL    HW1 4590  10.597   3.775   1.611  1.5391 -2.4159  2.1148
31874SOL    HW2 4591  10.601   3.835   1.750 -0.5788  0.2611  1.1057
31875SOL     OW 4592  11.375   8.443   9.733  0.3824 -0.2901 -0.5714
31875SOL    HW1 4593  11.351   8.504   9.803 -1.8541 -1.6023 -0.1172
31875SOL    HW2 4594  11.343   8.484   9.653 -0.7133 -0.6346 -0.3195
31876SOL     OW 4595   5.816   7.051   6.294 -0.3024  0.1308 -0.3108
31876SOL    HW1 4596   5.724   7.024   6.305 -0.0174 -1.1392 -0.8802
31876SOL    HW2 4597   5.822   7.079   6.203 -0.1990  0.5557 -0.1751
31877SOL     OW 4598   3.426   7.955   2.537  0.3987  0.4075 -0.1362
31877SOL    HW1 4599   3.380   8.032   2.503 -0.1594 -0.5970 -1.8042
31877SOL    HW2 4600   3.494   7.991   2.594  1.3995  2.2899 -2.3186
31878SOL     OW 4601   1.364   7.750   6.300  0.1292  0.4749 -0.1703
31878SOL    HW1 4602   1.346   7.734   6.208 -0.0611  0.8345 -0.1977
31878SOL    HW2 4603   1.279   7.772   6.338  0.2590  0.6581  0.0208
31879SOL     OW 4604   9.278   0.286   8.633 -0.0720 -0.5330 -0.6536
31879SOL    HW1 4605   9.352   0.287   8.694 -0.5859 -0.4410 -0.0245
31879SOL    HW2 4606   9.203   0.265   8.687 -0.7788  0.9849 -0.9807
31880SOL     OW 4607   1.144   9.032   2.526 -0.3406  0.2552 -0.0965
31880SOL    HW1 4608   1.217   8.980   2.561 -2.0831 -1.4276  1.2419
31880SOL    HW2 4609   1.113   9.083   2.601 -1.1557  0.2148 -0.3957
31881SOL     OW 4610   3.398   7.786   3.195 -0.1774  0.0062 -0.1251
31881SOL    HW1 4611   3.464   7.803   3.262  1.2224  0.9248 -1.6652
31881SOL    HW2 4612   3.314   7.796   3.241  0.7237  0.8885  1.4187
31882SOL     OW 4613   2.891   2.573   6.758  0.1446 -0.0453  0.1555
31882SOL    HW1 4614   2.964   2.547   6.813  1.4552  0.3209 -1.3257
31882SOL    HW2 4615   2.836   2.495   6.751  1.6968 -1.1212 -0.6606
31883SOL     OW 4616   8.210   7.260   3.173  0.3750  0.5408 -0.1469
31883SOL    HW1 4617   8.135   7.271   3.231  0.6682  0.9426  0.1579
31883SOL    HW2 4618   8.267   7.198   3.220  0.8701  1.2895  0.2550
31884SOL     OW 4619  10.202   2.733   0.464 -0.9350  0.2121  0.0768
31884SOL    HW1 4620  10.201   2.709   0.371  1.2700 -0.3616  0.1455
31884SOL    HW2 4621  10.119   2.698   0.498 -1.5354 -0.0610 -1.5345
31885SOL     OW 4622   5.038   3.891   3.690  1.1410  0.1886 -0.0637
31885SOL    HW1 4623   5.051   3.938   3.772  2.9254  2.0333 -1.3086
31885SOL    HW2 4624   5.014   3.959   3.627 -0.4564 -1.2080 -1.0768
31886SOL     OW 4625   7.615   1.045   1.284 -0.5570  0.2060 -0.0536
31886SOL    HW1 4626   7.567   0.994   1.219 -1.2254 -0.2568  0.7714
31886SOL    HW2 4627   7.553   1.112   1.312 -0.7188 -0.3456  0.9625
31887SOL     OW 4628   0.256  10.756  11.649  0.1215 -0.5240 -0.2824
31887SOL    HW1 4629   0.211  10.796  11.575 -0.9287 -1.8570 -0.4200
31887SOL    HW2 4630   0.347  10.749  11.622  0.3803  1.8576 -0.1749
31888SOL     OW 4631   1.606   5.229   5.314  0.2853  0.0133 -0.0290
31888SOL    HW1 4632   1.594   5.181   5.232 -0.4991  1.2780 -0.6857
31888SOL    HW2 4633   1.586   5.165   5.382 -1.2148 -0.4908 -0.8813
31889SOL     OW 4634   2.663   8.667   4.928 -0.0822  0.1521 -0.2584
31889SOL    HW1 4635   2.608   8.675   5.006 -0.3884  0.4668 -0.5023
31889SOL    HW2 4636   2.670   8.573   4.914  1.1673  0.0329  0.9718
31890SOL     OW 4637   0.290   1.331   1.020  0.1147 -0.1780 -0.7160
31890SOL    HW1 4638   0.215   1.390   1.034 -0.4888 -1.0556 -0.1415
31890SOL    HW2 4639   0.303   1.332   0.925  0.8280  1.7079 -0.6488
31891SOL     OW 4640   0.998   2.987   9.801 -0.0563  0.1859  0.0605
31891SOL    HW1 4641   0.952   3.067   9.825  2.0450  1.2838  0.7224
31891SOL    HW2 4642   1.083   3.017   9.768  0.1364 -1.7138 -1.3330
31892SOL     OW 4643   3.512  10.308   8.700 -0.0607 -0.9607 -0.0358
31892SOL    HW1 4644   3.575  10.276   8.636  1.1641 -0.8907  1.0929
31892SOL    HW2 4645   3.565  10.351   8.767 -1.1809 -2.0020  1.6030
31893SOL     OW 4646   8.521   9.958   3.471 -0.1926  0.0448  0.0654
31893SOL    HW1 4647   8.450   9.957   3.408 -0.0918  1.6442 -0.1357
31893SOL    HW2 4648   8.483   9.996   3.550  0.5290  1.4559 -0.2248
31894SOL     OW 4649   4.923  10.827   6.665 -0.3192  0.0696 -0.0444
31894SOL    HW1 4650   4.932  10.733   6.683  0.6654  0.2262  0.3224
31894SOL    HW2 4651   4.916  10.831   6.569 -0.1597 -0.3719 -0.0820
31895SOL     OW 4652   4.837  11.163   2.542  0.5961 -0.5154  0.1327
31895SOL    HW1 4653   4.769  11.181   2.478 -0.9752 -0.2835  1.7914
31895SOL    HW2 4654   4.845  11.067   2.542  0.4027 -0.5330 -0.1859
31896SOL     OW 4655   4.348   5.657   2.492 -0.3308  0.7623 -0.1241
31896SOL    HW1 4656   4.271   5.636   2.439  0.9609 -3.8056 -0.6186
31896SOL    HW2 4657   4.413   5.687   2.428 -0.7785  1.8693 -0.0866
31897SOL     OW 4658   9.165   2.395   6.964 -0.7358 -0.1766  0.2419
31897SOL    HW1 4659   9.142   2.334   6.895  2.3673  0.7653 -1.8920
31897SOL    HW2 4660   9.228   2.347   7.018  1.0130  0.6620 -0.9158
31898SOL     OW 4661   9.158   1.693   4.878 -0.0274 -0.2206 -0.1481
31898SOL    HW1 4662   9.067   1.712   4.854 -0.6785 -2.4314  0.3932
31898SOL    HW2 4663   9.170   1.738   4.962 -0.5508  0.2559 -0.3189
31899SOL     OW 4664   6.920   6.145   5.439  0.1147 -0.1967 -0.3285
31899SOL    HW1 4665   6.850   6.083   5.420  0.4948 -0.0331 -2.4669
31899SOL    HW2 4666   6.983   6.095   5.491 -0.9783 -0.6906  0.5596
31900SOL     OW 4667   7.942  10.426   3.095 -0.6098  0.4858  0.1802
31900SOL    HW1 4668   7.906  10.344   3.061  1.9733 -0.5249 -0.3704
31900SOL    HW2 4669   7.953  10.411   3.189  0.7437 -0.2180 -0.0647
31901SOL     OW 4670   2.039   9.290   2.796 -0.2867 -0.3480  0.5583
31901SOL    HW1 4671   2.065   9.216   2.741 -0.1785 -0.3294  0.5855
31901SOL    HW2 4672   1.963   9.327   2.751 -0.4078 -0.5418  0.6013
31902SOL     OW 4673   3.778   2.656  12.472 -0.4003 -0.1141 -0.0138
31902SOL    HW1 4674   3.687   2.636  12.454 -0.4478 -0.1091  0.2147
31902SOL    HW2 4675   3.784   2.657  12.568  0.1803 -1.7473  0.0021
31903SOL     OW 4676   9.098  11.050   6.981  0.3734 -0.3595  0.2788
31903SOL    HW1 4677   9.058  11.126   6.939  1.6494  0.0999 -0.1327
31903SOL    HW2 4678   9.029  11.016   7.038  0.1467  1.8050  1.3924
31904SOL     OW 4679   7.385   9.916   3.944  0.1642 -0.4173 -0.3524
31904SOL    HW1 4680   7.379   9.893   4.037  2.3242  1.0821  0.2464
31904SOL    HW2 4681   7.302   9.887   3.907 -0.7860 -1.0390  2.0403
31905SOL     OW 4682   7.890   9.784   6.479 -0.2348  0.3953 -0.7619
31905SOL    HW1 4683   7.981   9.771   6.454  0.6100 -0.0888  2.1503
31905SOL    HW2 4684   7.848   9.699   6.465  0.8228 -0.5924  1.4976
31906SOL     OW 4685   2.779  11.898   3.482  0.0222 -0.5529 -0.5584
31906SOL    HW1 4686   2.768  11.901   3.387  1.1601  0.3774 -0.6860
31906SOL    HW2 4687   2.872  11.916   3.496  0.4769 -3.2784  0.6254
31907SOL     OW 4688   2.642   5.353   0.730  0.0865  0.0209 -0.3677
31907SOL    HW1 4689   2.714   5.298   0.698  0.1147  0.3535 -0.8837
31907SOL    HW2 4690   2.672   5.385   0.815 -0.4648 -1.7991  0.5558
31908SOL     OW 4691  10.452   3.077   7.938 -0.3998  0.2425  0.5847
31908SOL    HW1 4692  10.460   3.027   7.857 -1.1652  1.3165 -0.1833
31908SOL    HW2 4693  10.363   3.112   7.937 -0.8599 -0.6972  2.4939
31909SOL     OW 4694   7.403   6.656   5.419  0.0428 -0.1623 -0.2855
31909SOL    HW1 4695   7.343   6.597   5.372  0.1854 -0.8910  0.4152
31909SOL    HW2 4696   7.423   6.609   5.500  1.3247  0.1963 -0.3704
31910SOL     OW 4697   1.688   9.034   1.521  0.1089  0.0097 -0.0120
31910SOL    HW1 4698   1.641   9.117   1.508 -0.8658 -0.0988  2.3678
31910SOL    HW2 4699   1.724   9.041   1.609 -1.6232 -2.8056  1.0605
31911SOL     OW 4700   5.949   3.498   1.921  0.5858 -0.7575  0.1703
31911SOL    HW1 4701   5.917   3.564   1.983  1.0475  0.5804 -0.9828
31911SOL    HW2 4702   5.870   3.463   1.880  0.3617 -0.6354  0.4958
31912SOL     OW 4703   6.902   7.348   1.584 -0.1093 -0.0900 -0.3142
31912SOL    HW1 4704   6.862   7.353   1.671 -0.8295 -0.2426 -0.6294
31912SOL    HW2 4705   6.837   7.388   1.526  0.2457 -0.2493 -0.8206
31913SOL     OW 4706   0.354   7.411   2.444  0.2919  0.1329  0.3154
31913SOL    HW1 4707   0.318   7.403   2.356  1.1056  0.8179 -0.0977
31913SOL    HW2 4708   0.343   7.324   2.482 -1.4979  0.2385  0.1200
31914SOL     OW 4709  12.592   2.216   8.259 -0.4893  0.1018  0.5352
31914SOL    HW1 4710  12.623   2.254   8.342  0.6784 -1.2306  0.7511
31914SOL    HW2 4711  12.629   2.128   8.258 -0.5420  0.0609 -1.3812
31915SOL     OW 4712   0.567  11.579   4.907  0.2268  0.5729  0.5446
31915SOL    HW1 4713   0.521  11.632   4.842  0.1055 -1.0776 -0.8037
31915SOL    HW2 4714   0.649  11.554   4.864 -0.4392 -1.6407  0.4241
31916SOL     OW 4715   8.037   9.272  10.675  0.4039 -0.0525  0.2468
31916SOL    HW1 4716   7.944   9.292  10.678  0.6440  0.9900  3.0176
31916SOL    HW2 4717   8.045   9.188  10.721  1.0182  0.8376  1.8112
31917SOL     OW 4718   1.610   8.521   7.583  0.2889 -0.1374  0.2119
31917SOL    HW1 4719   1.576   8.461   7.516 -0.9626  1.6080 -0.8380
31917SOL    HW2 4720   1.566   8.495   7.664 -1.1277  0.0399 -0.4699
31918SOL     OW 4721   0.237   1.567   1.659  0.0005 -0.4134  0.0148
31918SOL    HW1 4722   0.311   1.585   1.716  0.4736 -0.5116 -0.5573
31918SOL    HW2 4723   0.266   1.493   1.605 -0.1911  0.0765 -0.7830
31919SOL     OW 4724   5.173   4.870   6.065 -0.3591  0.0252  0.2795
31919SOL    HW1 4725   5.090   4.831   6.040  0.7737 -1.9022 -0.7859
31919SOL    HW2 4726   5.158   4.909   6.151 -1.9119 -1.8063  0.8936
31920SOL     OW 4727   5.065   8.273   5.720 -0.1585  0.4011 -0.1984
31920SOL    HW1 4728   5.050   8.302   5.630 -1.7020 -1.4112 -0.5813
31920SOL    HW2 4729   5.157   8.247   5.722 -0.3705 -0.5694 -1.5928
31921SOL     OW 4730   9.841   4.280   6.543 -0.3567 -0.5428 -0.2697
31921SOL    HW1 4731   9.925   4.236   6.533 -0.6130 -1.1415  0.1548
31921SOL    HW2 4732   9.859   4.371   6.524  0.9148 -0.2087  2.1543
31922SOL     OW 4733  10.407   2.962   7.679 -0.0856 -0.3019  0.1149
31922SOL    HW1 4734  10.438   2.891   7.622  0.8650 -0.8411  1.2660
31922SOL    HW2 4735  10.314   2.945   7.689  0.6613 -3.8065  3.4730
31923SOL     OW 4736   9.483   5.852   8.358 -0.1728 -0.2343 -0.0567
31923SOL    HW1 4737   9.401   5.836   8.405 -0.4452  0.4647 -0.2864
31923SOL    HW2 4738   9.455   5.885   8.272  0.3267 -1.0061 -0.5317
31924SOL     OW 4739   6.797   1.715   4.205  0.1134 -0.0679  0.2929
31924SOL    HW1 4740   6.722   1.756   4.248 -0.3086  0.7207 -1.1340
31924SOL    HW2 4741   6.867   1.781   4.211  0.0968 -0.0153 -0.0971
31925SOL     OW 4742   0.394   0.429   7.160  0.0369 -0.3679  0.7165
31925SOL    HW1 4743   0.341   0.414   7.238  1.6515 -0.4617  1.8527
31925SOL    HW2 4744   0.377   0.520   7.136 -0.5318 -0.3608  1.1358
31926SOL     OW 4745   0.336   8.895   0.007  0.8108  0.1790  0.5432
31926SOL    HW1 4746   0.393   8.941  -0.055  0.8767 -2.2534 -1.3428
31926SOL    HW2 4747   0.365   8.924   0.093  2.5238  1.6580 -0.4698
31927SOL     OW 4748   3.210   2.905   4.335 -0.0208 -0.1878 -0.1939
31927SOL    HW1 4749   3.266   2.828   4.341  0.0457 -0.0786  0.8368
31927SOL    HW2 4750   3.165   2.895   4.251  0.8344 -0.7525 -0.6063
31928SOL     OW 4751   9.797   8.692   5.282  0.1008  0.5923  0.4379
31928SOL    HW1 4752   9.890   8.688   5.260  0.0397  1.4403 -0.0049
31928SOL    HW2 4753   9.761   8.757   5.222 -1.4028 -1.9372 -1.6039
31929SOL     OW 4754   4.963   3.104   0.162  0.1602  0.2850  0.3901
31929SOL    HW1 4755   5.019   3.128   0.236 -0.0020  0.1418  0.5632
31929SOL    HW2 4756   4.947   3.186   0.116 -0.6321  0.5702  1.1461
31930SOL     OW 4757   2.552   8.097   7.183  0.2686  0.3227  0.2442
31930SOL    HW1 4758   2.594   8.014   7.208  0.8786  1.0260  1.6632
31930SOL    HW2 4759   2.566   8.103   7.089  1.3048 -0.5966  0.3149
31931SOL     OW 4760   1.389   3.040   2.626  0.4750  0.1642 -0.2382
31931SOL    HW1 4761   1.375   2.946   2.641 -0.5607  0.5943  1.8850
31931SOL    HW2 4762   1.418   3.073   2.711 -0.1551  1.9605 -0.6874
31932SOL     OW 4763   6.810  12.567   6.432  0.2088 -0.4588  0.2628
31932SOL    HW1 4764   6.894  12.605   6.407  0.5034 -1.6312 -0.6412
31932SOL    HW2 4765   6.811  12.479   6.393 -0.8100 -1.0566  1.5045
31933SOL     OW 4766  12.474   9.705   0.752  0.1921  0.1908  0.1630
31933SOL    HW1 4767  12.402   9.754   0.713 -0.4159 -0.5670  0.3095
31933SOL    HW2 4768  12.552   9.737   0.707 -0.4927 -0.7599 -1.8078
31934SOL     OW 4769   9.337   7.226   4.505  0.3618 -0.2187 -0.2580
31934SOL    HW1 4770   9.403   7.236   4.437  0.9262 -0.6439  0.2246
31934SOL    HW2 4771   9.255   7.213   4.456  0.3924  1.6295 -0.8732
31935SOL     OW 4772   6.374   8.483   3.133 -0.2343 -0.7998  0.1251
31935SOL    HW1 4773   6.288   8.522   3.149 -0.4835 -1.0580 -0.5244
31935SOL    HW2 4774   6.436   8.556   3.142 -0.3401 -0.8970  2.0773
31936SOL     OW 4775   7.770   0.191   8.386  0.7154 -0.6568  0.0825
31936SOL    HW1 4776   7.692   0.199   8.441  0.8380  0.2569  0.1349
31936SOL    HW2 4777   7.826   0.264   8.412  0.5938  0.0600 -1.5451
31937SOL     OW 4778  11.957   8.944   6.286 -0.4845 -0.0284  0.2814
31937SOL    HW1 4779  12.023   8.975   6.224 -1.0470  0.3614 -0.1328
31937SOL    HW2 4780  12.003   8.878   6.338 -0.3720 -1.4329 -1.4780
31938SOL     OW 4781  10.352   3.963   5.124  0.1310 -0.6832  0.9874
31938SOL    HW1 4782  10.356   4.052   5.089 -0.1251 -1.3264 -0.7601
31938SOL    HW2 4783  10.279   3.966   5.186 -2.7714 -0.6193 -2.1544
31939SOL     OW 4784   4.216   6.377   7.100  0.1004 -0.3780  0.0493
31939SOL    HW1 4785   4.143   6.345   7.047  1.0723  0.9741 -2.2760
31939SOL    HW2 4786   4.238   6.462   7.061  1.8951 -0.0330  1.6763
31940SOL     OW 4787  10.512   8.070   7.493 -0.4212  0.6168 -0.0534
31940SOL    HW1 4788  10.487   8.040   7.406 -1.2122  0.3697  0.2553
31940SOL    HW2 4789  10.432   8.063   7.545  0.4586 -0.9421  1.1688
31941SOL     OW 4790  10.613   2.209   1.314 -0.2511  0.3264  0.1881
31941SOL    HW1 4791  10.619   2.144   1.244 -2.8566  0.7378 -0.5097
31941SOL    HW2 4792  10.520   2.219   1.329  0.1982  1.3440  2.7488
31942SOL     OW 4793   0.679  10.994  11.581 -0.0285  0.0522  0.0832
31942SOL    HW1 4794   0.646  10.922  11.635 -0.7188 -0.2213 -0.6871
31942SOL    HW2 4795   0.755  10.958  11.536  0.1265  0.0664  0.3302
31943SOL     OW 4796  12.353   3.868   9.628  0.2681  0.1389  0.2594
31943SOL    HW1 4797  12.426   3.824   9.671  0.6265 -1.7762 -2.1348
31943SOL    HW2 4798  12.383   3.958   9.614  1.8754 -0.4220 -0.0071
31944SOL     OW 4799   6.673   0.174   6.564 -0.0063 -0.0574 -0.3240
31944SOL    HW1 4800   6.753   0.120   6.565  0.4908  0.6566 -0.6567
31944SOL    HW2 4801   6.687   0.237   6.493  0.7528  2.4207  1.8407
31945SOL     OW 4802   1.711  12.060  12.193  0.1784  0.1813  0.3060
31945SOL    HW1 4803   1.747  12.142  12.160 -0.1179  1.1656  2.2435
31945SOL    HW2 4804   1.785  12.015  12.233 -0.3082  1.4748  2.8839
31946SOL     OW 4805   7.356   9.819  10.889  0.4541 -0.4058 -0.1780
31946SOL    HW1 4806   7.324   9.844  10.975  0.3311 -1.4113  0.0759
31946SOL    HW2 4807   7.316   9.733  10.872  0.1051 -0.0218 -1.4337
31947SOL     OW 4808   0.684   7.992   0.574  0.0550  0.3728 -0.0334
31947SOL    HW1 4809   0.640   7.908   0.588  1.6541 -0.3974  0.6912
31947SOL    HW2 4810   0.702   8.024   0.663 -0.4152  1.4307 -0.3067
31948SOL     OW 4811  11.446  11.421   5.051 -0.0976 -0.0071 -0.4578
31948SOL    HW1 4812  11.388  11.462   5.115 -1.3338 -2.5411  0.1531
31948SOL    HW2 4813  11.506  11.369   5.103  0.5023 -0.1352 -1.2641
31949SOL     OW 4814  10.064  10.643   7.652 -0.1243  0.0722 -0.3166
31949SOL    HW1 4815  10.009  10.722   7.655 -0.6858 -0.3268  1.0204
31949SOL    HW2 4816  10.147  10.670   7.689 -0.1734  0.1428 -0.2583
31950SOL     OW 4817   0.706   8.305   9.047  0.6535 -0.3167 -0.0323
31950SOL    HW1 4818   0.696   8.247   9.122 -1.7827  1.1811  0.9242
31950SOL    HW2 4819   0.794   8.341   9.056  0.3786 -0.0890  2.2025
31951SOL     OW 4820   9.217   8.264  12.206  0.0129 -0.0941 -0.1245
31951SOL    HW1 4821   9.249   8.182  12.243  0.1623  0.0565  0.0817
31951SOL    HW2 4822   9.133   8.279  12.250 -0.0595 -0.1857 -0.2319
31952SOL     OW 4823  10.313  11.891   3.601 -0.3311  0.0941  0.5539
31952SOL    HW1 4824  10.269  11.886   3.516 -0.0472  0.7641  0.3625
31952SOL    HW2 4825  10.243  11.906   3.664 -0.5108 -0.1029  0.4029
31953SOL     OW 4826   7.567   7.950   1.845 -0.5684  0.1530  0.3524
31953SOL    HW1 4827   7.638   8.008   1.871  0.6294 -1.8261  1.8973
31953SOL    HW2 4828   7.532   7.918   1.928  0.2749 -2.8980 -0.3400
31954SOL     OW 4829   0.997   2.288   3.033 -0.2471 -0.5210  0.2832
31954SOL    HW1 4830   0.908   2.305   3.064 -1.1051 -3.3773 -0.3174
31954SOL    HW2 4831   1.016   2.361   2.974 -1.8561  0.5539  1.0215
31955SOL     OW 4832   7.754   5.990   1.762 -1.0064  0.1255 -0.2568
31955SOL    HW1 4833   7.729   5.899   1.746  0.6813 -0.1645 -1.4497
31955SOL    HW2 4834   7.688   6.041   1.715 -1.6887 -0.4584  0.0300
31956SOL     OW 4835   3.090   4.896  10.339  0.2754 -0.3934  0.2003
31956SOL    HW1 4836   3.018   4.934  10.389 -0.4838 -0.7198 -0.6176
31956SOL    HW2 4837   3.168   4.943  10.369 -0.4157  0.6556  0.3974
31957SOL     OW 4838  11.617  11.483   4.190 -0.4539  0.0042 -0.2035
31957SOL    HW1 4839  11.557  11.419   4.151  0.1684 -0.6481 -0.0909
31957SOL    HW2 4840  11.622  11.459   4.282 -0.2450  0.2447 -0.1508
31958SOL     OW 4841   9.824   5.964   2.603  0.6286 -0.0087  0.5425
31958SOL    HW1 4842   9.763   5.932   2.669  1.3856 -0.8068  0.8575
31958SOL    HW2 4843   9.847   6.052   2.632 -0.2424  0.2524  0.4959
31959SOL     OW 4844   3.319  11.473   2.128 -0.0018  0.1088 -0.3312
31959SOL    HW1 4845   3.232  11.505   2.105  0.8444  2.0108 -1.0464
31959SOL    HW2 4846   3.330  11.393   2.076 -2.0578 -1.3521  1.2898
31960SOL     OW 4847   5.345  12.289   8.212  0.0966 -0.1473 -0.0434
31960SOL    HW1 4848   5.366  12.378   8.241 -0.5988  0.2255 -0.6347
31960SOL    HW2 4849   5.264  12.268   8.259  0.2233 -0.4405  0.0425
31961SOL     OW 4850   0.122   0.531  12.320  0.2414  0.8089  0.0185
31961SOL    HW1 4851   0.131   0.438  12.299 -0.8878  0.4098  1.1716
31961SOL    HW2 4852   0.212   0.562  12.334  0.5593 -0.3949  0.7638
31962SOL     OW 4853   2.783   5.326   7.462  0.0707 -0.6125 -0.0615
31962SOL    HW1 4854   2.689   5.324   7.481  0.1022 -1.9267  0.0274
31962SOL    HW2 4855   2.819   5.384   7.530 -0.6375 -0.2614  0.0289
31963SOL     OW 4856   9.163   6.102   8.550  0.6328  0.1736 -0.4020
31963SOL    HW1 4857   9.102   6.132   8.482  0.9282  1.7631  0.0127
31963SOL    HW2 4858   9.184   6.180   8.600  2.0110 -0.6029  0.2820
31964SOL     OW 4859   6.631   2.359   7.327  0.1007 -0.0721  0.2694
31964SOL    HW1 4860   6.622   2.299   7.253 -1.1892 -0.7033  0.9052
31964SOL    HW2 4861   6.661   2.304   7.399 -0.4069  0.1666  0.6724
31965SOL     OW 4862   5.342   3.419  10.077  0.2379 -0.0098  0.7635
31965SOL    HW1 4863   5.333   3.509  10.107 -2.0344 -0.1220  0.6005
31965SOL    HW2 4864   5.391   3.375  10.147 -0.5424  0.8770  1.9021
31966SOL     OW 4865  10.982   2.892  12.511 -0.2742  0.2452 -0.0210
31966SOL    HW1 4866  10.984   2.916  12.603 -1.8123  5.8686 -1.0482
31966SOL    HW2 4867  10.915   2.824  12.504  1.0291 -1.5269  3.0224
31967SOL     OW 4868   6.468   6.443   4.953 -0.2062 -0.3167 -0.1613
31967SOL    HW1 4869   6.529   6.516   4.958  0.7921 -1.1710  0.8182
31967SOL    HW2 4870   6.469   6.416   4.862  1.6173 -0.8958  0.0034
31968SOL     OW 4871   0.803  11.116   6.063 -0.4768  0.8609  0.1627
31968SOL    HW1 4872   0.776  11.157   5.980 -1.0565  0.1096 -0.0387
31968SOL    HW2 4873   0.805  11.022   6.043 -1.2258  0.6172  1.1589
31969SOL     OW 4874  12.514  10.807   5.785  0.0196  0.0057 -0.2608
31969SOL    HW1 4875  12.498  10.746   5.857 -0.5532  1.1532  0.6308
31969SOL    HW2 4876  12.600  10.844   5.804 -0.8010  1.4880  0.7746
31970SOL     OW 4877   5.416  12.549   5.558  0.0601 -0.3895 -0.3697
31970SOL    HW1 4878   5.510  12.565   5.565  0.3358 -2.1185  0.4002
31970SOL    HW2 4879   5.408  12.494   5.479 -0.7998  2.8127 -2.7178
31971SOL     OW 4880  11.994   6.209   2.469  0.0741  0.2184 -0.2639
31971SOL    HW1 4881  11.998   6.117   2.442 -0.7442 -0.0760  0.5657
31971SOL    HW2 4882  11.971   6.205   2.562  0.3423  1.2624 -0.1435
31972SOL     OW 4883   6.543  11.572   2.448 -0.2638  0.3886 -0.1830
31972SOL    HW1 4884   6.562  11.530   2.365 -0.0897 -0.4618  0.2743
31972SOL    HW2 4885   6.601  11.648   2.451  0.8749 -0.4680 -0.1365
31973SOL     OW 4886   1.891   4.589   3.951 -0.2090 -0.6488  0.2705
31973SOL    HW1 4887   1.872   4.527   4.022  2.2111 -1.6312  0.1516
31973SOL    HW2 4888   1.834   4.664   3.969 -0.4355 -1.2965  2.6527
31974SOL     OW 4889   9.713   8.931   5.439  0.2942 -0.0508  0.1284
31974SOL    HW1 4890   9.632   8.900   5.479  0.2171 -1.3560 -0.9765
31974SOL    HW2 4891   9.691   8.945   5.347  1.4334 -0.9171 -0.2994
31975SOL     OW 4892   9.621   2.424  10.809 -0.7537  0.5296  0.4178
31975SOL    HW1 4893   9.610   2.429  10.714 -1.0991  0.0326  0.4281
31975SOL    HW2 4894   9.609   2.514  10.839 -2.1664  0.4586  0.1329
31976SOL     OW 4895   8.518   9.717  11.943  0.0727 -0.4043 -0.0324
31976SOL    HW1 4896   8.518   9.716  12.039 -0.9449 -1.1204 -0.0272
31976SOL    HW2 4897   8.592   9.662  11.918  2.4504  2.3838  0.2923
31977SOL     OW 4898   9.788   1.715   8.379  0.1477  0.5187 -0.8604
31977SOL    HW1 4899   9.782   1.683   8.469 -0.7741 -0.5442 -1.2804
31977SOL    HW2 4900   9.881   1.705   8.356 -0.2969 -3.8530 -1.6245
31978SOL     OW 4901   1.506  10.296   7.158  0.1225 -0.1036 -0.2592
31978SOL    HW1 4902   1.582  10.343   7.124  0.3915  0.0576  0.5420
31978SOL    HW2 4903   1.439  10.304   7.090  0.6866  0.1084 -0.7877
31979SOL     OW 4904  12.532   4.266  11.713 -0.3444  0.4387  0.2770
31979SOL    HW1 4905  12.538   4.339  11.651  0.7773 -1.0149 -1.4197
31979SOL    HW2 4906  12.540   4.308  11.799  0.1268  2.3387 -0.6237
31980SOL     OW 4907   8.948  10.611  10.874 -0.3572  0.9145 -0.1932
31980SOL    HW1 4908   8.881  10.673  10.905 -0.0497  0.3133  1.8230
31980SOL    HW2 4909   9.028  10.664  10.869 -0.7300  1.4038 -1.6779
31981SOL     OW 4910   3.835   8.113   2.574 -0.1010 -0.5058  0.0361
31981SOL    HW1 4911   3.841   8.119   2.479 -0.4563 -1.9523 -0.1104
31981SOL    HW2 4912   3.924   8.131   2.605 -0.1988  0.9832 -0.4795
31982SOL     OW 4913   4.719  10.088   9.382  0.0216 -0.0753 -0.7000
31982SOL    HW1 4914   4.790  10.053   9.436 -1.0034 -0.6964  0.3045
31982SOL    HW2 4915   4.696  10.018   9.322  0.0088 -0.0133 -0.7681
31983SOL     OW 4916   5.281  11.769  11.661  0.3379  0.2152 -0.5111
31983SOL    HW1 4917   5.336  11.703  11.619  0.2409 -1.2955  1.5545
31983SOL    HW2 4918   5.343  11.829  11.703  0.4193  0.0112 -0.3407
31984SOL     OW 4919   6.853   3.386   9.200  0.1582 -0.6860 -0.9006
31984SOL    HW1 4920   6.833   3.292   9.203 -1.1697 -0.4440 -1.3455
31984SOL    HW2 4921   6.779   3.424   9.154 -0.9562  0.9971  1.9933
31985SOL     OW 4922   3.372   5.564  12.340 -0.0094 -0.1424  0.2095
31985SOL    HW1 4923   3.398   5.594  12.252 -0.4520 -1.2321 -0.3125
31985SOL    HW2 4924   3.331   5.640  12.380  0.6092  0.5101 -0.3537
31986SOL     OW 4925   6.567   9.801  11.199 -0.4991 -0.1333 -0.4484
31986SOL    HW1 4926   6.636   9.783  11.136  0.1871 -1.0397  0.5314
31986SOL    HW2 4927   6.613   9.832  11.277 -0.8632 -3.1914  1.1543
31987SOL     OW 4928  10.287  10.887   1.663 -0.0240  0.0562 -0.5168
31987SOL    HW1 4929  10.234  10.858   1.737 -0.6296 -1.2462 -1.4323
31987SOL    HW2 4930  10.377  10.880   1.694 -0.2760 -0.1854  0.1925
31988SOL     OW 4931   4.502   1.688   1.143  0.2927 -0.8396 -0.3474
31988SOL    HW1 4932   4.556   1.726   1.073  0.7682  0.1801  0.5470
31988SOL    HW2 4933   4.422   1.741   1.142  1.5561  1.3117  1.8881
31989SOL     OW 4934   1.378   4.467   2.657 -0.5449 -0.5068 -0.7614
31989SOL    HW1 4935   1.356   4.503   2.743 -0.9440 -0.2820 -0.9575
31989SOL    HW2 4936   1.469   4.494   2.642 -0.2971 -0.9819 -0.1867
31990SOL     OW 4937  10.962   3.589   1.542  0.2342  0.4513  0.3583
31990SOL    HW1 4938  10.951   3.679   1.511 -0.4968  0.3007  0.1765
31990SOL    HW2 4939  10.875   3.552   1.539  0.7866 -0.8523 -1.3498
31991SOL     OW 4940   0.472   1.905  11.051  0.0730 -0.3086  0.0267
31991SOL    HW1 4941   0.549   1.952  11.018  0.6157 -0.6830  0.7306
31991SOL    HW2 4942   0.403   1.925  10.987  0.3632  1.1807  0.1404
31992SOL     OW 4943   5.046   9.270   2.672  0.0473  0.4648 -0.8942
31992SOL    HW1 4944   5.100   9.265   2.752 -1.8922 -0.7496  0.4137
31992SOL    HW2 4945   4.961   9.300   2.703 -1.2645 -1.6635 -2.2191
31993SOL     OW 4946   2.510   8.951  11.507 -0.2762  0.2403 -0.6725
31993SOL    HW1 4947   2.421   8.915  11.512 -0.2518  0.3168  0.6554
31993SOL    HW2 4948   2.531   8.975  11.597  0.3026  2.1597 -1.2673
31994SOL     OW 4949   7.275   9.101   4.713  0.1816  0.1298  0.1467
31994SOL    HW1 4950   7.196   9.059   4.748 -0.8043 -0.5206 -2.5334
31994SOL    HW2 4951   7.242   9.161   4.646  1.9362  0.1257 -0.7861
31995SOL     OW 4952  11.536  10.964   8.526  0.0479 -0.3596  0.0487
31995SOL    HW1 4953  11.484  11.006   8.595 -1.0782 -0.0597 -0.9620
31995SOL    HW2 4954  11.596  10.905   8.574 -1.4044 -0.9343  1.2283
31996SOL     OW 4955   5.594   9.881   0.111 -0.8970 -0.2396  0.1428
31996SOL    HW1 4956   5.661   9.945   0.135  0.5602 -0.2560 -3.3002
31996SOL    HW2 4957   5.641   9.797   0.107 -1.2714 -0.3999 -1.4590
31997SOL     OW 4958   0.020   1.994   6.882  0.3963  0.0261  0.0451
31997SOL    HW1 4959   0.112   2.015   6.895  0.4161  0.1779 -0.3132
31997SOL    HW2 4960  -0.027   2.066   6.924  0.4326 -0.2623  0.5855
31998SOL     OW 4961   8.854   6.277   5.298 -0.7305 -0.5673 -0.1445
31998SOL    HW1 4962   8.943   6.263   5.266  0.1617  2.4898  0.6836
31998SOL    HW2 4963   8.806   6.311   5.223 -1.2031 -2.0095 -0.5318
31999SOL     OW 4964   1.636   1.111   1.323  0.2834 -0.2351 -0.0640
31999SOL    HW1 4965   1.680   1.196   1.325  1.2432 -0.7154 -0.0282
31999SOL    HW2 4966   1.703   1.049   1.351 -0.0271 -1.1607 -1.2807
32000SOL     OW 4967   6.177   1.425   5.546  0.5245 -0.0854 -0.0293
32000SOL    HW1 4968   6.234   1.418   5.622  0.4017  0.3329  0.1044
32000SOL    HW2 4969   6.090   1.401   5.578  0.8700 -2.1995 -0.5711
32001SOL     OW 4970   9.329   8.601   7.578 -0.3671  0.0837 -0.1526
32001SOL    HW1 4971   9.297   8.691   7.572  1.4131  0.7006 -1.3767
32001SOL    HW2 4972   9.293   8.568   7.660 -0.5307  2.1373  0.6686
32002SOL     OW 4973   6.176  11.456  10.941  0.0048  0.0101  0.1302
32002SOL    HW1 4974   6.184  11.451  10.845  0.0227 -0.0246  0.1338
32002SOL    HW2 4975   6.179  11.364  10.969 -0.3154  0.0007  0.1386
32003SOL     OW 4976   2.766   9.245   4.733 -0.0296  0.7414  0.1269
32003SOL    HW1 4977   2.671   9.249   4.749 -0.3839 -0.6335 -1.3201
32003SOL    HW2 4978   2.785   9.152   4.728  0.7188  0.9429 -2.9227
32004SOL     OW 4979   2.818  12.247   6.957 -0.8329  0.6118 -0.1478
32004SOL    HW1 4980   2.810  12.285   7.045  0.6917  1.5224 -0.3634
32004SOL    HW2 4981   2.789  12.317   6.898  0.2418  0.8210 -0.4539
32005SOL     OW 4982   9.319   1.502  10.137 -0.6626  0.5457 -0.4610
32005SOL    HW1 4983   9.371   1.577  10.164  0.2986 -0.3780  0.3571
32005SOL    HW2 4984   9.288   1.464  10.219  2.3756 -2.3702 -0.4416
32006SOL     OW 4985   4.770  10.344  12.533  0.0300 -0.3441  0.5000
32006SOL    HW1 4986   4.791  10.346  12.627 -2.0836 -1.1660  1.0415
32006SOL    HW2 4987   4.712  10.419  12.519  2.1121  1.1460 -0.6954
32007SOL     OW 4988   9.588   8.813   8.249 -0.5776  0.3911  0.2408
32007SOL    HW1 4989   9.602   8.838   8.340  0.1194  1.4890 -0.1556
32007SOL    HW2 4990   9.522   8.875   8.217  0.3950  1.0803 -0.4588
32008SOL     OW 4991  10.586   8.384   4.619  0.1498  0.0064  0.4475
32008SOL    HW1 4992  10.563   8.437   4.695  0.5676  2.5010 -1.0584
32008SOL    HW2 4993  10.679   8.365   4.630 -0.0299 -0.5215  1.0612
32009SOL     OW 4994   4.315   8.738   9.195  0.1425  0.5782  0.0375
32009SOL    HW1 4995   4.303   8.776   9.282 -0.7814  1.2809 -0.3945
32009SOL    HW2 4996   4.265   8.794   9.136 -1.6692 -1.5195 -0.5592
32010SOL     OW 4997   5.412   5.685   6.497  0.2359  0.2938 -0.2143
32010SOL    HW1 4998   5.459   5.616   6.451  0.5723  0.0849  0.4300
32010SOL    HW2 4999   5.337   5.641   6.536 -0.1937  0.5197 -0.7670
32011SOL     OW 5000   9.803  10.873   4.043 -0.3446 -0.4084  0.5280
32011SOL    HW1 5001   9.709  10.860   4.032 -0.6354  0.7042  1.4943
32011SOL    HW2 5002   9.813  10.901   4.134  0.9750 -0.9693  0.5754
32012SOL     OW 5003   2.645   0.816   2.646 -0.1425 -0.2920 -0.0867
32012SOL    HW1 5004   2.615   0.897   2.688 -1.6175 -0.6292 -0.4557
32012SOL    HW2 5005   2.703   0.776   2.711  0.1392  0.7619  0.3329
32013SOL     OW 5006  12.349   4.357   4.775 -0.1805 -0.0151  0.3425
32013SOL    HW1 5007  12.381   4.421   4.839  0.1909  0.5975 -0.4348
32013SOL    HW2 5008  12.263   4.332   4.808 -0.1619  0.5900  0.8817
32014SOL     OW 5009   0.812   8.277   8.061 -0.7444 -0.5956  0.2368
32014SOL    HW1 5010   0.826   8.320   8.146  1.4122  0.0507 -0.3856
32014SOL    HW2 5011   0.774   8.192   8.083 -2.2869  0.3963  1.6912
32015SOL     OW 5012  12.386   3.292   4.351 -0.7632  0.6741 -0.3540
32015SOL    HW1 5013  12.481   3.289   4.360 -0.7955  1.2337  0.2033
32015SOL    HW2 5014  12.371   3.334   4.266 -0.5148 -0.0724 -0.7798
32016SOL     OW 5015   6.933  11.350   4.051 -0.4033 -0.0087 -0.2502
32016SOL    HW1 5016   7.011  11.301   4.076 -1.5908 -0.5721  2.7670
32016SOL    HW2 5017   6.875  11.284   4.013  0.4305  0.3702 -2.2876
32017SOL     OW 5018   5.079   6.249   3.976 -0.0376  0.1139 -0.3007
32017SOL    HW1 5019   5.158   6.291   4.009  0.0043  0.2680 -0.5945
32017SOL    HW2 5020   5.106   6.160   3.953  0.1525  0.2950 -0.7962
32018SOL     OW 5021   6.494   5.816   5.934  0.3403  0.1175 -0.4458
32018SOL    HW1 5022   6.429   5.814   6.004  1.0800 -0.2464  0.2455
32018SOL    HW2 5023   6.560   5.752   5.960  0.4626 -0.2680 -1.6477
32019SOL     OW 5024  10.047   5.163   1.125  0.5079 -0.2266  0.0450
32019SOL    HW1 5025   9.989   5.104   1.079  0.7563 -0.2885 -0.1941
32019SOL    HW2 5026   9.990   5.212   1.185  0.3976 -1.1737  0.7375
32020SOL     OW 5027   5.250  10.941   0.875 -0.5666 -0.4254 -0.7468
32020SOL    HW1 5028   5.329  10.901   0.913 -0.4034 -2.9610 -3.3599
32020SOL    HW2 5029   5.187  10.943   0.947  0.3322 -3.0045  0.2340
32021SOL     OW 5030   7.069   0.133   3.399  0.0429  0.0408  0.1679
32021SOL    HW1 5031   7.124   0.054   3.396  1.1817  0.7665  0.9843
32021SOL    HW2 5032   7.117   0.197   3.346 -0.9992  0.1177 -0.6952
32022SOL     OW 5033   7.615   2.606   8.846  0.0964  0.0833 -0.6905
32022SOL    HW1 5034   7.570   2.601   8.762 -0.1100 -2.9022 -0.5205
32022SOL    HW2 5035   7.564   2.668   8.898 -1.4872 -0.2442 -1.8031
32023SOL     OW 5036   8.792   5.190   5.241  0.2988  0.2262  0.1253
32023SOL    HW1 5037   8.712   5.144   5.268 -0.7519  2.2243  0.5995
32023SOL    HW2 5038   8.775   5.215   5.150  0.1030  1.1429  0.3978
32024SOL     OW 5039   7.117   6.292  10.303 -0.3133 -0.1863  0.3176
32024SOL    HW1 5040   7.056   6.363  10.323  0.5875  0.7271 -0.1009
32024SOL    HW2 5041   7.197   6.314  10.351  1.6549  1.6652 -3.3567
32025SOL     OW 5042   3.089   6.533   3.973 -0.0544 -0.2352  0.0611
32025SOL    HW1 5043   3.016   6.502   3.920  0.7011  1.4865 -2.2178
32025SOL    HW2 5044   3.050   6.564   4.054 -2.0323  1.3605 -1.4051
32026SOL     OW 5045   6.945   3.769   8.222 -0.3755 -0.5097 -0.0279
32026SOL    HW1 5046   6.897   3.711   8.280  0.9306 -1.7945 -0.1881
32026SOL    HW2 5047   6.978   3.713   8.152  0.0529  0.5958 -0.7561
32027SOL     OW 5048  10.713   9.098   8.022  0.4714  0.2476  0.9329
32027SOL    HW1 5049  10.723   9.177   8.076 -1.4481 -0.1949  2.0382
32027SOL    HW2 5050  10.673   9.034   8.081 -1.3400 -0.4050 -0.8908
32028SOL     OW 5051  10.688   8.008  10.059 -0.6981  0.6360  0.6217
32028SOL    HW1 5052  10.687   8.096  10.095 -1.5650  1.0649 -0.3986
32028SOL    HW2 5053  10.762   8.008   9.997 -1.8750  1.3081 -0.8614
32029SOL     OW 5054  10.742   3.651   1.987  0.1658  0.1467  0.2649
32029SOL    HW1 5055  10.668   3.593   1.970 -1.7789  2.6410 -0.4143
32029SOL    HW2 5056  10.714   3.736   1.954  3.0351  1.4290  0.7841
32030SOL     OW 5057  11.136   4.264  11.182  0.0425 -0.2035 -0.0711
32030SOL    HW1 5058  11.120   4.205  11.255 -0.2925 -0.4870 -0.3693
32030SOL    HW2 5059  11.180   4.209  11.117  1.6062  0.3783  0.4429
32031SOL     OW 5060   3.347   9.529   2.607 -0.1374  0.3424 -0.6734
32031SOL    HW1 5061   3.414   9.537   2.539 -0.3144 -3.5199 -1.4960
32031SOL    HW2 5062   3.268   9.502   2.561 -0.9746  0.1586  0.8086
32032SOL     OW 5063   0.655  11.349   8.301  0.0315 -0.2261  0.6665
32032SOL    HW1 5064   0.621  11.293   8.231 -2.6433  1.3665  0.5699
32032SOL    HW2 5065   0.669  11.289   8.375 -0.8873 -1.3173 -0.0167
32033SOL     OW 5066   2.501   2.012  11.335  0.0200 -0.1780  0.4544
32033SOL    HW1 5067   2.578   1.990  11.387 -0.3242 -0.9803  0.6341
32033SOL    HW2 5068   2.436   2.040  11.399  0.5840  1.9129  0.2127
32034SOL     OW 5069   9.607   7.519   1.268 -0.2736  0.0833 -0.5513
32034SOL    HW1 5070   9.593   7.502   1.361 -2.6507 -0.3686 -0.9245
32034SOL    HW2 5071   9.702   7.513   1.257  0.3170  2.2214  2.1994
32035SOL     OW 5072   5.249   1.587   3.913  0.4015  0.3349  0.7827
32035SOL    HW1 5073   5.194   1.664   3.899  1.3648  0.7070 -1.4911
32035SOL    HW2 5074   5.196   1.514   3.883  0.9575  0.6496 -1.0627
32036SOL     OW 5075  11.556   3.353   5.714  0.2254 -0.5875  0.1939
32036SOL    HW1 5076  11.604   3.273   5.694  1.4856  0.2842 -0.3809
32036SOL    HW2 5077  11.600   3.390   5.791 -0.0240 -0.1795  0.1468
32037SOL     OW 5078   0.664   7.366   5.690 -0.1349  0.1388 -0.3806
32037SOL    HW1 5079   0.641   7.396   5.779  3.2013 -0.2122  0.7286
32037SOL    HW2 5080   0.641   7.273   5.689  1.1694 -0.2230  0.7036
32038SOL     OW 5081   1.389   5.768   7.140  0.2353  0.4650 -0.3870
32038SOL    HW1 5082   1.372   5.685   7.184  0.1844 -0.0170 -1.2864
32038SOL    HW2 5083   1.321   5.827   7.172 -0.9438 -0.4024 -1.2042
32039SOL     OW 5084  12.099   1.395   0.867 -0.2699 -0.0059  0.0943
32039SOL    HW1 5085  12.020   1.443   0.894  0.5005  1.0645  0.5430
32039SOL    HW2 5086  12.067   1.310   0.838 -1.7408  0.9002 -1.0880
32040SOL     OW 5087   0.742   9.606  11.582  0.2594 -1.0136 -0.3388
32040SOL    HW1 5088   0.669   9.612  11.643 -0.7144 -0.9634 -1.4519
32040SOL    HW2 5089   0.812   9.565  11.631 -0.3238 -0.5305  0.9415
32041SOL     OW 5090   2.563  12.302   9.819 -0.0422 -0.0511  0.0730
32041SOL    HW1 5091   2.590  12.392   9.837  1.7019 -0.6787  0.7764
32041SOL    HW2 5092   2.611  12.278   9.740  1.2582 -1.0608  1.1269
32042SOL     OW 5093  10.810   7.846   3.536  0.5490  0.0052 -0.4638
32042SOL    HW1 5094  10.724   7.807   3.525  0.6799 -0.6152  0.5805
32042SOL    HW2 5095  10.805   7.895   3.619  1.3476 -0.4933 -0.1044
32043SOL     OW 5096  12.118   7.418   7.066  0.3139 -0.6132 -0.1700
32043SOL    HW1 5097  12.044   7.477   7.050  0.3754  0.0478  1.7894
32043SOL    HW2 5098  12.194   7.465   7.030  0.4443  0.8174  1.8194
32044SOL     OW 5099   3.587  10.398  11.803 -0.4425  0.2454  0.3630
32044SOL    HW1 5100   3.540  10.379  11.884  1.0159  0.3137  1.2602
32044SOL    HW2 5101   3.680  10.394  11.827  0.0992 -1.4767 -1.7040
32045SOL     OW 5102   7.782   2.563   8.495 -0.1116  0.4714 -0.2411
32045SOL    HW1 5103   7.729   2.642   8.486 -0.1981  0.3006 -1.5780
32045SOL    HW2 5104   7.780   2.524   8.407  2.4426  0.5790 -0.4188
32046SOL     OW 5105   9.142   1.069   9.706  0.4559  0.2682 -0.5237
32046SOL    HW1 5106   9.189   1.120   9.641  1.9021  0.1255  0.3650
32046SOL    HW2 5107   9.209   1.040   9.768 -0.7981  0.0252  0.7924
32047SOL     OW 5108   3.228  11.607   0.185 -0.1043 -0.0515 -0.0973
32047SOL    HW1 5109   3.277  11.646   0.113  0.1302  0.5397  0.3758
32047SOL    HW2 5110   3.280  11.626   0.263 -0.6412 -0.1851  0.3015
32048SOL     OW 5111   6.522   5.746   5.611 -0.1991 -0.1051  0.4522
32048SOL    HW1 5112   6.429   5.728   5.598 -0.9249  2.9697  0.8215
32048SOL    HW2 5113   6.546   5.693   5.687 -1.7617 -0.5432  0.6707
32049SOL     OW 5114   0.460   2.032   2.349  0.8532  0.0541  0.5969
32049SOL    HW1 5115   0.541   1.991   2.380  0.9109  0.4723  0.9950
32049SOL    HW2 5116   0.479   2.125   2.346  0.4621  0.1321  0.4484
32050SOL     OW 5117   7.128   5.201   7.898  0.1534  0.0164  0.0954
32050SOL    HW1 5118   7.176   5.255   7.834  0.6820 -0.6878 -0.1128
32050SOL    HW2 5119   7.086   5.265   7.956  0.3907  0.6584 -0.4180
32051SOL     OW 5120   9.791   9.191   2.442 -0.4091  0.2497 -0.5293
32051SOL    HW1 5121   9.834   9.249   2.379  1.2552  0.8690  1.0991
32051SOL    HW2 5122   9.698   9.202   2.425 -0.0413  1.0479 -2.2829
32052SOL     OW 5123   7.595  10.393   0.037  0.4529 -0.0159 -0.2009
32052SOL    HW1 5124   7.575  10.306   0.073  2.1453 -0.3531  0.0124
32052SOL    HW2 5125   7.576  10.385  -0.057 -0.1650 -0.3539 -0.0576
32053SOL     OW 5126   2.347   7.568   1.459 -0.3939  0.0985 -0.7178
32053SOL    HW1 5127   2.357   7.628   1.533  0.9128  0.8289 -1.4422
32053SOL    HW2 5128   2.339   7.624   1.383 -1.1154 -0.6507 -1.2131
32054SOL     OW 5129   4.613  10.892   9.462  0.6885  0.6599 -0.3568
32054SOL    HW1 5130   4.671  10.962   9.434  0.6854  1.3158  1.1915
32054SOL    HW2 5131   4.605  10.835   9.385  1.0754  2.0808 -1.4887
32055SOL     OW 5132   2.855  12.231   9.381  0.2523 -0.6456 -0.4323
32055SOL    HW1 5133   2.858  12.137   9.362  1.6676 -0.8922  0.8559
32055SOL    HW2 5134   2.778  12.241   9.438  1.5044 -1.4859  1.5049
32056SOL     OW 5135   0.957  11.410  11.181 -0.5529 -0.4295  0.4327
32056SOL    HW1 5136   0.874  11.362  11.175 -0.5990 -0.3286  0.2542
32056SOL    HW2 5137   0.932  11.501  11.191 -0.4901 -0.0927 -1.9525
32057SOL     OW 5138   5.652  10.487   8.049  0.2365  0.1854 -0.3349
32057SOL    HW1 5139   5.667  10.413   8.109  0.4485 -0.4742 -1.1834
32057SOL    HW2 5140   5.715  10.473   7.978 -0.9032  0.2237 -1.3699
32058SOL     OW 5141   0.914  11.875   8.714  0.3343 -0.9939 -0.2502
32058SOL    HW1 5142   0.879  11.792   8.746  0.5981 -0.9828  0.0769
32058SOL    HW2 5143   1.008  11.868   8.728  0.5611 -1.2871 -1.7072
32059SOL     OW 5144   5.249   8.500   1.815  0.5556  0.2704  0.3328
32059SOL    HW1 5145   5.154   8.493   1.807  0.8099 -1.8972 -1.8014
32059SOL    HW2 5146   5.272   8.574   1.759  0.2068  0.3477  0.2890
32060SOL     OW 5147  10.072   2.585  10.149  0.5018  0.0330 -0.2161
32060SOL    HW1 5148  10.086   2.497  10.115 -2.0504 -0.7228  0.4708
32060SOL    HW2 5149  10.093   2.642  10.075  0.8358 -1.2279 -1.1326
32061SOL     OW 5150  11.841  10.769   4.084 -0.2688  0.0190 -0.1868
32061SOL    HW1 5151  11.922  10.721   4.068  0.3647  1.1562 -0.5328
32061SOL    HW2 5152  11.796  10.719   4.152  0.5770 -0.7929 -0.2083
32062SOL     OW 5153   1.717   8.326   4.673 -0.0528  0.2434 -0.0673
32062SOL    HW1 5154   1.697   8.263   4.604 -1.7153 -0.7739  1.2427
32062SOL    HW2 5155   1.761   8.274   4.740 -1.7423  0.3232  1.1773
32063SOL     OW 5156  10.043   7.756   5.830 -0.2586 -0.0485  0.1661
32063SOL    HW1 5157  10.029   7.844   5.797 -0.1367 -0.1460 -0.1501
32063SOL    HW2 5158   9.955   7.717   5.833 -0.2672 -0.0466 -0.0608
32064SOL     OW 5159   8.383  10.375   0.009  0.2672  0.6718  0.4722
32064SOL    HW1 5160   8.421  10.443  -0.047 -1.8655  0.7693 -0.9900
32064SOL    HW2 5161   8.415  10.293  -0.028  0.8023  0.8027  0.6369
32065SOL     OW 5162   3.034   5.763  10.096 -0.9046  0.0556  0.1871
32065SOL    HW1 5163   3.030   5.674  10.130 -1.1687  0.0185  0.0585
32065SOL    HW2 5164   3.105   5.761  10.032 -2.2820 -0.6015 -1.3842
32066SOL     OW 5165  12.221   1.647  10.216 -0.1582  0.5568 -0.2991
32066SOL    HW1 5166  12.283   1.614  10.281  1.1295  0.2460 -1.6390
32066SOL    HW2 5167  12.218   1.742  10.231  1.1033  0.6582 -0.5810
32067SOL     OW 5168  11.131   9.445   7.066 -0.0048 -0.4737 -0.4456
32067SOL    HW1 5169  11.196   9.457   7.135 -0.3872 -0.0821 -0.1500
32067SOL    HW2 5170  11.124   9.530   7.024  0.3643 -0.7577 -1.0966
32068SOL     OW 5171   7.110   0.857   7.783  0.4262  0.6409  0.1461
32068SOL    HW1 5172   7.053   0.823   7.852  0.4733 -0.6350 -0.4221
32068SOL    HW2 5173   7.191   0.879   7.828  0.5043 -0.3108  0.4894
32069SOL     OW 5174   8.687   2.229   3.470 -0.5691  0.2343 -0.4826
32069SOL    HW1 5175   8.750   2.301   3.475  1.7185 -1.6303 -0.9049
32069SOL    HW2 5176   8.620   2.252   3.534  0.1929  2.5974 -0.4231
32070SOL     OW 5177   4.536   0.930   1.046 -0.0424  0.0990  0.0843
32070SOL    HW1 5178   4.567   1.004   0.994 -1.7511 -0.1127 -1.3162
32070SOL    HW2 5179   4.441   0.931   1.036 -0.4252 -0.2844  2.8292
32071SOL     OW 5180   4.291   8.556  10.336 -0.1853  0.6634 -0.2518
32071SOL    HW1 5181   4.248   8.571  10.252  0.6004 -0.2824 -0.8431
32071SOL    HW2 5182   4.248   8.478  10.372  0.0711  0.5477 -0.1910
32072SOL     OW 5183   9.291   2.766   8.322  0.4982 -0.5065 -0.0109
32072SOL    HW1 5184   9.293   2.843   8.264  0.9208 -1.0954 -0.7952
32072SOL    HW2 5185   9.198   2.753   8.341  0.3871 -0.0767 -0.2368
32073SOL     OW 5186   8.236   4.570  12.086  0.1659  0.0813  0.0410
32073SOL    HW1 5187   8.220   4.528  12.170 -1.1365  0.5909  0.0657
32073SOL    HW2 5188   8.328   4.596  12.089  0.1338  0.0804  1.3042
32074SOL     OW 5189   1.951  10.120   6.006 -0.0887 -0.3824  0.3715
32074SOL    HW1 5190   1.910  10.176   6.073 -0.4145 -0.6063  0.3595
32074SOL    HW2 5191   1.908  10.035   6.016 -0.3480 -0.3366 -0.3180
32075SOL     OW 5192   6.672   4.263   0.411  0.2650 -0.2846 -0.4302
32075SOL    HW1 5193   6.634   4.350   0.428  1.2925 -0.3453  2.8566
32075SOL    HW2 5194   6.767   4.278   0.415  0.5131 -1.2703 -1.8936
32076SOL     OW 5195   0.852  12.147   9.312  0.6263  0.6007 -0.4102
32076SOL    HW1 5196   0.846  12.154   9.217  1.7471  2.5499 -0.3891
32076SOL    HW2 5197   0.901  12.066   9.327 -0.4834 -0.3030 -1.4079
32077SOL     OW 5198   3.102   8.573   1.856 -0.1401 -0.5515  0.0502
32077SOL    HW1 5199   3.195   8.591   1.843 -0.2833 -0.8748 -1.5664
32077SOL    HW2 5200   3.071   8.646   1.909  0.7464  0.2930 -0.5599
32078SOL     OW 5201   9.351   0.017   0.870 -0.4191 -0.9244  0.0260
32078SOL    HW1 5202   9.305   0.085   0.920 -0.8999 -1.5911  0.4992
32078SOL    HW2 5203   9.443   0.030   0.891 -0.3096  0.6359 -1.1837
32079SOL     OW 5204   8.737   4.404   3.833 -0.0927 -0.1829  0.2700
32079SOL    HW1 5205   8.750   4.454   3.914 -0.3353 -0.2668  0.3600
32079SOL    HW2 5206   8.702   4.467   3.770 -0.1867 -0.1868  0.3180
32080SOL     OW 5207  10.378   5.822   1.804  0.1070  0.2643 -0.0058
32080SOL    HW1 5208  10.335   5.761   1.743  0.6875 -1.3041  1.0780
32080SOL    HW2 5209  10.308   5.848   1.864  0.0074  0.0543 -0.0271
32081SOL     OW 5210   4.940   4.426  11.086 -0.7828  0.1528  0.1140
32081SOL    HW1 5211   4.897   4.511  11.078 -2.1700 -0.3555  1.5642
32081SOL    HW2 5212   5.020   4.444  11.136 -0.9026  0.6340  0.1367
32082SOL     OW 5213   4.743   2.180   2.033 -1.0955 -1.1332 -0.4643
32082SOL    HW1 5214   4.702   2.258   2.073 -2.2611 -1.0851 -1.6832
32082SOL    HW2 5215   4.821   2.214   1.989 -1.4233 -0.6953 -0.7225
32083SOL     OW 5216   0.395   2.678  10.704 -0.3773  0.4180 -0.0684
32083SOL    HW1 5217   0.410   2.715  10.617 -0.9134  1.5480  0.3093
32083SOL    HW2 5218   0.301   2.685  10.718 -0.3781 -0.3004  0.3825
32084SOL     OW 5219  11.474   6.376   2.055  0.0511  0.2033 -0.3099
32084SOL    HW1 5220  11.501   6.352   2.144 -1.8947 -1.3407 -0.0830
32084SOL    HW2 5221  11.470   6.293   2.008 -1.2814  0.7272 -1.1636
32085SOL     OW 5222   8.238  10.781  10.392 -0.3581  0.3940 -0.3248
32085SOL    HW1 5223   8.293  10.784  10.471  0.5479  0.6162 -0.9450
32085SOL    HW2 5224   8.175  10.851  10.405 -0.1836  0.4655  0.1795
32086SOL     OW 5225   6.465   2.711  12.429 -0.1628  0.7449 -0.3622
32086SOL    HW1 5226   6.400   2.654  12.388  1.3218 -3.2383  2.1998
32086SOL    HW2 5227   6.545   2.697  12.379  0.1276  0.7598  0.0834
32087SOL     OW 5228  10.367   0.873   1.234 -0.3308 -0.6903  0.3767
32087SOL    HW1 5229  10.325   0.877   1.148 -0.0790 -1.7841  0.1879
32087SOL    HW2 5230  10.299   0.902   1.295 -1.4511 -2.5551  0.0965
32088SOL     OW 5231   7.457   6.400   7.538 -0.7594  0.1734  0.3743
32088SOL    HW1 5232   7.511   6.321   7.536 -0.0184  0.6771 -1.8256
32088SOL    HW2 5233   7.398   6.390   7.463 -0.3756  1.8649 -0.1972
32089SOL     OW 5234  10.383   5.374   2.396  0.4031 -0.3823  0.3455
32089SOL    HW1 5235  10.416   5.287   2.376 -0.1636 -0.7860  1.1221
32089SOL    HW2 5236  10.295   5.360   2.429  0.2658  0.4955  0.3844
32090SOL     OW 5237   2.746   8.856   3.143 -0.1052 -0.2624  0.3327
32090SOL    HW1 5238   2.777   8.904   3.067 -0.6670  0.1464  0.3532
32090SOL    HW2 5239   2.734   8.766   3.112  1.3988 -0.5087  0.4151
32091SOL     OW 5240   3.347  10.329   2.607 -0.0002  0.0419 -0.5341
32091SOL    HW1 5241   3.382  10.297   2.524 -0.8791 -0.1276 -0.8514
32091SOL    HW2 5242   3.263  10.369   2.584  0.6485  1.7853 -0.0045
32092SOL     OW 5243   0.632   1.510  11.843  0.2713 -0.4148  0.2885
32092SOL    HW1 5244   0.684   1.518  11.922  0.0517  0.4249  0.3622
32092SOL    HW2 5245   0.657   1.426  11.805  1.6334 -0.0504  0.3487
32093SOL     OW 5246   4.758  11.620   7.789  0.0186 -0.1276  0.0032
32093SOL    HW1 5247   4.745  11.610   7.695  1.0850 -0.2307 -0.1431
32093SOL    HW2 5248   4.673  11.597   7.827 -0.0965 -1.2268 -0.8577
32094SOL     OW 5249  10.751   0.620   5.186 -0.2551  0.4546  0.1429
32094SOL    HW1 5250  10.731   0.712   5.205  0.2034  0.5713  0.0721
32094SOL    HW2 5251  10.703   0.602   5.105  0.7307  1.0363 -0.6035
32095SOL     OW 5252  12.192   9.669   2.620 -0.5621  0.1005 -0.0737
32095SOL    HW1 5253  12.186   9.653   2.526  0.3748  2.6545 -0.6450
32095SOL    HW2 5254  12.103   9.697   2.645 -0.0743  2.7927 -1.0051
32096SOL     OW 5255   8.884   0.009   0.388 -0.0858 -0.1414  0.4049
32096SOL    HW1 5256   8.889  -0.063   0.450  3.0112  0.5445  1.1302
32096SOL    HW2 5257   8.927   0.082   0.433 -0.5145  1.2975 -1.3873
32097SOL     OW 5258   4.726   2.484   4.066 -0.0720 -0.0706 -0.1947
32097SOL    HW1 5259   4.680   2.546   4.009 -0.9416  0.7457  1.3548
32097SOL    HW2 5260   4.702   2.509   4.155  3.1885  0.2688  0.7272
32098SOL     OW 5261   5.721  10.084   1.295 -0.3450  0.0205  0.3645
32098SOL    HW1 5262   5.694  10.041   1.376  0.6936  1.0163  1.2814
32098SOL    HW2 5263   5.816  10.072   1.293  0.0878  2.6409  0.9422
32099SOL     OW 5264   4.849   6.552   2.477 -0.2430  0.2478  0.3769
32099SOL    HW1 5265   4.857   6.552   2.382  1.9870 -0.0488  0.4981
32099SOL    HW2 5266   4.767   6.506   2.495 -0.6573  0.2435 -1.3903
32100SOL     OW 5267   8.207   3.160   8.296  0.0062 -0.5376 -0.1320
32100SOL    HW1 5268   8.297   3.129   8.282  0.1639 -1.5350  2.4685
32100SOL    HW2 5269   8.179   3.115   8.375 -1.2267  3.0335  1.6833
32101SOL     OW 5270  12.039   4.024  12.490 -0.0706  0.3844 -0.5070
32101SOL    HW1 5271  12.009   3.969  12.563  3.0836 -1.1410 -0.1654
32101SOL    HW2 5272  11.962   4.075  12.465 -1.7124 -0.1061  2.8978
32102SOL     OW 5273  10.941   3.735   2.935  0.2533  0.4140 -0.0784
32102SOL    HW1 5274  10.981   3.780   2.860  0.5604 -0.5439 -0.5082
32102SOL    HW2 5275  10.995   3.758   3.010 -0.5280  2.0432  0.0187
32103SOL     OW 5276   7.463   6.067   3.552 -0.3795  0.0539 -0.5306
32103SOL    HW1 5277   7.396   6.073   3.483  0.1630  2.3735 -0.9300
32103SOL    HW2 5278   7.460   6.152   3.596  2.3514  0.2812 -0.6280
32104SOL     OW 5279   9.105   9.019   8.746 -0.1380  0.8345 -0.0240
32104SOL    HW1 5280   9.193   8.992   8.721 -1.2970 -2.2733 -1.1933
32104SOL    HW2 5281   9.102   9.009   8.841 -0.3409 -3.2113 -0.3127
32105SOL     OW 5282   7.826   9.603  10.795  0.0732 -0.2193 -0.4188
32105SOL    HW1 5283   7.856   9.624  10.884 -1.0810 -2.2731  0.5468
32105SOL    HW2 5284   7.730   9.601  10.802 -0.1065  0.8510 -2.0619
32106SOL     OW 5285   1.962   7.503   1.016  0.1735 -0.5080  0.1367
32106SOL    HW1 5286   1.918   7.434   0.967  0.6227 -0.9442  0.3410
32106SOL    HW2 5287   1.993   7.564   0.950 -1.5907  0.3333  0.0314
32107SOL     OW 5288   1.458   2.799   3.542 -0.4596  0.1964 -0.8945
32107SOL    HW1 5289   1.515   2.776   3.469 -0.8570  0.9869 -1.4772
32107SOL    HW2 5290   1.515   2.797   3.619  0.6194  1.8949 -1.5778
32108SOL     OW 5291   2.758   8.571   3.342  0.0379  0.8623  0.1027
32108SOL    HW1 5292   2.747   8.561   3.247 -0.3390  2.4071 -0.0379
32108SOL    HW2 5293   2.836   8.519   3.362 -1.1558 -1.3602 -0.6656
32109SOL     OW 5294   0.845   5.409   6.575 -0.5267 -0.1857  0.1531
32109SOL    HW1 5295   0.772   5.443   6.627 -0.2617 -1.1463  1.1758
32109SOL    HW2 5296   0.923   5.427   6.627 -0.0599  0.3921 -0.7141
32110SOL     OW 5297   2.820   5.012  10.104 -0.5232 -0.5883 -0.1610
32110SOL    HW1 5298   2.808   5.061  10.023  0.3956  0.6506  0.4229
32110SOL    HW2 5299   2.863   4.931  10.077 -1.9617 -1.0842 -1.1288
32111SOL     OW 5300   5.229   3.980   7.868  0.1066  0.1266  0.2753
32111SOL    HW1 5301   5.314   3.994   7.827 -0.0392 -1.0947 -0.5036
32111SOL    HW2 5302   5.247   3.916   7.938 -0.1255  0.0312  0.2493
32112SOL     OW 5303   8.389   3.171  11.880 -0.1841  0.1848  0.4883
32112SOL    HW1 5304   8.362   3.093  11.929  1.0419  0.2225  1.2646
32112SOL    HW2 5305   8.424   3.136  11.798 -2.9143  0.1649 -0.7481
32113SOL     OW 5306   0.060   0.162  11.291  0.4650  0.3212 -0.5482
32113SOL    HW1 5307   0.063   0.072  11.260 -0.1466  0.5819 -1.3808
32113SOL    HW2 5308   0.084   0.215  11.215 -0.5471  0.9415 -0.4520
32114SOL     OW 5309  10.342   1.862  10.392  0.4707 -0.1827  0.6769
32114SOL    HW1 5310  10.308   1.938  10.345 -0.0531 -0.9858 -0.2809
32114SOL    HW2 5311  10.271   1.798  10.388  0.8020 -0.6395  1.6979
32115SOL     OW 5312  10.550  11.291   0.933  0.5509  0.3453  0.6168
32115SOL    HW1 5313  10.568  11.378   0.968  1.2376  0.0788  0.9442
32115SOL    HW2 5314  10.547  11.303   0.838 -0.4409  0.9157  0.7129
32116SOL     OW 5315   3.338  12.277   6.331 -0.0804  0.2458  0.3452
32116SOL    HW1 5316   3.339  12.346   6.397  1.4604 -0.2069  0.8405
32116SOL    HW2 5317   3.313  12.198   6.380  1.8565 -0.2554  0.6369
32117SOL     OW 5318   8.573   3.036  11.660 -0.3032 -0.6781 -0.1123
32117SOL    HW1 5319   8.615   2.957  11.625 -0.2991 -0.3146 -0.9471
32117SOL    HW2 5320   8.484   3.008  11.681 -0.3108 -0.8986 -0.4267
32118SOL     OW 5321   3.029   2.521   1.668 -0.3563 -0.1969  0.1804
32118SOL    HW1 5322   2.979   2.574   1.730  0.3554  0.5597  0.1153
32118SOL    HW2 5323   2.962   2.469   1.622 -1.0163  0.2827  0.5782
32119SOL     OW 5324   9.283   1.201   0.517  0.2492 -0.0206  0.3280
32119SOL    HW1 5325   9.280   1.159   0.431  0.9357  1.3964 -0.4304
32119SOL    HW2 5326   9.213   1.265   0.515  0.7837  0.5811  0.4965
32120SOL     OW 5327   1.270  11.997   2.515  0.4605 -0.3532  0.3280
32120SOL    HW1 5328   1.264  12.036   2.428  1.4299 -0.2742  0.2845
32120SOL    HW2 5329   1.361  11.965   2.521  0.2654 -0.7869  1.1232
32121SOL     OW 5330   1.224   2.649   7.554  0.0095 -0.0871 -0.5220
32121SOL    HW1 5331   1.128   2.647   7.564 -0.0550  1.7114 -0.5039
32121SOL    HW2 5332   1.240   2.710   7.483  1.1351 -1.3049 -1.3723
32122SOL     OW 5333   9.324   8.958   3.266 -0.6464  0.3193 -1.0201
32122SOL    HW1 5334   9.331   9.049   3.295 -0.8207  0.4816 -1.4687
32122SOL    HW2 5335   9.303   8.965   3.173 -0.8976 -0.1794 -1.0012
32123SOL     OW 5336   5.606   8.847  10.291  0.4369 -0.2406 -0.4324
32123SOL    HW1 5337   5.688   8.859  10.244  0.5910  4.2727  0.5712
32123SOL    HW2 5338   5.631   8.848  10.383 -0.6221 -0.0924 -0.1342
32124SOL     OW 5339   9.999   1.403   2.751  0.3747 -0.3184  0.6927
32124SOL    HW1 5340  10.021   1.373   2.838 -0.5657  0.1448  1.1114
32124SOL    HW2 5341   9.933   1.340   2.720  2.0726 -1.6054 -0.4751
32125SOL     OW 5342   6.067   1.953   0.453  0.1981 -0.0668  0.0434
32125SOL    HW1 5343   6.010   1.925   0.382 -1.2175  0.8372  0.7977
32125SOL    HW2 5344   6.092   1.872   0.497 -0.4318 -0.4774 -0.3467
32126SOL     OW 5345   6.090   4.195   4.693  0.2031 -0.1827  0.2078
32126SOL    HW1 5346   6.011   4.235   4.657 -0.3401 -1.2605  0.1580
32126SOL    HW2 5347   6.162   4.247   4.658 -0.4887  0.9331  0.4133
32127SOL     OW 5348   2.212  11.375   5.665  0.0451 -0.0007  0.0390
32127SOL    HW1 5349   2.299  11.375   5.626  0.0157  0.1412 -0.0274
32127SOL    HW2 5350   2.202  11.463   5.701  0.5414 -0.4677  1.4244
32128SOL     OW 5351   9.541   7.462   6.589 -0.2659  0.0823  0.3518
32128SOL    HW1 5352   9.541   7.405   6.512  1.8129  2.6869 -1.8122
32128SOL    HW2 5353   9.451   7.494   6.596 -0.9078 -1.6180  0.1953
32129SOL     OW 5354   0.918   2.645  12.163  0.5837 -0.4596  0.0134
32129SOL    HW1 5355   0.917   2.697  12.244 -0.3685  0.6984 -0.7112
32129SOL    HW2 5356   0.842   2.587  12.170 -0.2397  0.5272 -0.5892
32130SOL     OW 5357   4.299   8.665   5.081  0.4017 -0.5236  0.2642
32130SOL    HW1 5358   4.235   8.706   5.023  0.8011  1.0132  0.8715
32130SOL    HW2 5359   4.317   8.580   5.040 -0.2202  0.0224 -1.2207
32131SOL     OW 5360   0.394   5.045   4.903  0.2752 -0.7538 -0.0939
32131SOL    HW1 5361   0.439   5.129   4.907 -0.2311 -0.4951  0.2451
32131SOL    HW2 5362   0.376   5.032   4.809  1.9653 -1.3680 -0.3764
32132SOL     OW 5363  10.833   7.243   3.181 -0.0047 -0.1370  0.2333
32132SOL    HW1 5364  10.788   7.291   3.251 -1.0925 -1.3388  0.3867
32132SOL    HW2 5365  10.797   7.155   3.185  0.1109 -0.3074 -1.6836
32133SOL     OW 5366   6.932   9.947   9.018 -0.0374  0.6626 -0.4511
32133SOL    HW1 5367   6.861   9.954   8.953 -0.6075 -0.4106  0.0302
32133SOL    HW2 5368   7.007   9.990   8.976 -1.1065  2.3751 -0.7448
32134SOL     OW 5369   6.952   9.502   8.825  0.0265 -0.0485 -0.2046
32134SOL    HW1 5370   7.021   9.436   8.824 -0.8601 -1.0400  0.9271
32134SOL    HW2 5371   6.984   9.571   8.767  2.3469 -0.0760  0.9304
32135SOL     OW 5372   6.836   2.138  11.054 -0.8918  0.5921  0.2292
32135SOL    HW1 5373   6.895   2.213  11.046 -0.5050  0.3154  0.4623
32135SOL    HW2 5374   6.763   2.170  11.108 -0.7440  0.8066  0.3006
32136SOL     OW 5375   7.774  12.211   6.039 -0.1981 -0.3354 -0.3705
32136SOL    HW1 5376   7.723  12.130   6.036 -2.8645  1.2437 -1.4392
32136SOL    HW2 5377   7.804  12.224   5.949  0.9724 -0.5619 -0.0195
32137SOL     OW 5378   1.287  11.459  11.523  0.2108 -0.2068 -0.4522
32137SOL    HW1 5379   1.316  11.500  11.441  0.3341  1.0180  0.1832
32137SOL    HW2 5380   1.279  11.366  11.501 -0.7942  0.2264 -2.1497
32138SOL     OW 5381  10.409   9.369   8.631  0.3725  0.4415  0.5561
32138SOL    HW1 5382  10.498   9.394   8.657  0.0714  1.8677  0.3173
32138SOL    HW2 5383  10.397   9.410   8.546 -0.0211 -0.9557 -0.0879
32139SOL     OW 5384   4.564   0.543   9.657 -0.2311 -0.0482  0.6810
32139SOL    HW1 5385   4.547   0.593   9.578  1.1057  0.2600  0.5620
32139SOL    HW2 5386   4.656   0.519   9.651 -0.2723 -0.5733  1.8319
32140SOL     OW 5387  11.235   6.590   2.185  0.0071 -0.1932  0.2125
32140SOL    HW1 5388  11.246   6.535   2.262 -1.5860 -1.8543 -0.6945
32140SOL    HW2 5389  11.274   6.540   2.113 -0.5606  0.3041 -0.4630
32141SOL     OW 5390   0.649   3.153   8.888 -0.2108 -0.0280  0.0083
32141SOL    HW1 5391   0.613   3.065   8.898  0.0927 -0.0488  0.9714
32141SOL    HW2 5392   0.685   3.175   8.974 -0.0849  0.9511 -0.2802
32142SOL     OW 5393   6.026   7.312   1.244  0.0737  0.4791 -0.1655
32142SOL    HW1 5394   6.065   7.277   1.164 -0.6913  0.3185 -0.4784
32142SOL    HW2 5395   5.943   7.351   1.215 -0.6366 -0.3730  0.6776
32143SOL     OW 5396   2.546   0.273   9.337  0.3953 -0.3959  0.0899
32143SOL    HW1 5397   2.636   0.281   9.370 -0.4861  0.2345  2.5804
32143SOL    HW2 5398   2.493   0.321   9.400 -1.7342 -0.9011 -1.2140
32144SOL     OW 5399  11.307   8.677   7.027 -0.2029 -0.2575 -0.3568
32144SOL    HW1 5400  11.223   8.699   6.989 -0.0077 -1.0269 -1.2617
32144SOL    HW2 5401  11.353   8.761   7.035 -1.3752  0.2873  1.0012
32145SOL     OW 5402   7.334  10.809   3.385  0.3317 -0.3170 -0.5628
32145SOL    HW1 5403   7.269  10.858   3.436 -0.1537 -0.0834 -1.3919
32145SOL    HW2 5404   7.328  10.719   3.419  1.3784  0.2129  1.1190
32146SOL     OW 5405   5.269   1.408  12.051 -0.4292  0.3673  0.3501
32146SOL    HW1 5406   5.204   1.349  12.012  0.4889  0.4579 -1.4008
32146SOL    HW2 5407   5.353   1.377  12.016  0.2946  1.3417  1.1817
32147SOL     OW 5408   8.695   6.517   9.722  0.4095 -0.3803 -0.4939
32147SOL    HW1 5409   8.778   6.549   9.758 -0.5670  1.4883  0.1981
32147SOL    HW2 5410   8.646   6.487   9.799 -0.1936  0.0712 -0.6985
32148SOL     OW 5411  12.119   6.291   3.924  0.3253 -0.7677 -0.1552
32148SOL    HW1 5412  12.194   6.269   3.869  2.5965  1.4989  1.7594
32148SOL    HW2 5413  12.101   6.212   3.974 -0.3188 -2.1421 -2.4317
32149SOL     OW 5414   3.840   2.326   0.075  0.2566  0.2040 -0.3284
32149SOL    HW1 5415   3.775   2.259   0.095  0.9710 -0.4878 -0.2856
32149SOL    HW2 5416   3.859   2.314  -0.018  2.0330 -1.1780  0.1481
32150SOL     OW 5417  10.251   7.785   9.474 -0.0847 -0.2467  0.3428
32150SOL    HW1 5418  10.266   7.743   9.559 -0.0010 -0.3122  0.2956
32150SOL    HW2 5419  10.274   7.877   9.488 -0.2062 -0.2287  0.4289
32151SOL     OW 5420   0.102  11.464   3.471 -0.0771  0.3710 -0.3629
32151SOL    HW1 5421   0.189  11.426   3.479 -1.0269 -1.8781 -0.0246
32151SOL    HW2 5422   0.062  11.449   3.557 -1.2172  0.2044 -0.9092
32152SOL     OW 5423   3.709  11.227   9.905  0.0013  0.2668 -0.0798
32152SOL    HW1 5424   3.763  11.169   9.959 -0.1288  1.4444  1.4015
32152SOL    HW2 5425   3.619  11.207   9.933  0.0337  2.1529  1.5354
32153SOL     OW 5426   3.871   2.133   8.375 -0.1196 -0.0678 -0.1740
32153SOL    HW1 5427   3.821   2.122   8.456 -0.0871  2.0730  0.2099
32153SOL    HW2 5428   3.814   2.099   8.306 -0.5339 -1.0747  0.6347
32154SOL     OW 5429   1.025   8.811   6.963 -0.0276  0.6358 -0.3261
32154SOL    HW1 5430   0.962   8.742   6.985 -0.9430  1.5358 -0.0369
32154SOL    HW2 5431   1.027   8.812   6.867  0.9405 -0.6192 -0.3355
32155SOL     OW 5432   3.105   3.054   4.809  0.1336  0.0869 -0.0985
32155SOL    HW1 5433   3.041   3.079   4.876 -0.4255 -0.6184 -0.3520
32155SOL    HW2 5434   3.190   3.069   4.849 -0.1975 -0.0118  0.6531
32156SOL     OW 5435   5.349   4.146   8.773  0.3365 -0.1729 -0.1411
32156SOL    HW1 5436   5.376   4.230   8.809  2.2192 -0.3713 -0.9990
32156SOL    HW2 5437   5.300   4.168   8.694  0.5337  0.1320 -0.1796
32157SOL     OW 5438   6.259   4.435   8.184  0.2363  0.0948  0.1705
32157SOL    HW1 5439   6.319   4.381   8.235 -0.2819  0.6571  1.4153
32157SOL    HW2 5440   6.192   4.462   8.246  0.1439  1.6653 -0.5645
32158SOL     OW 5441  12.412   1.118  11.708  0.3201  0.0848  0.0904
32158SOL    HW1 5442  12.338   1.083  11.658  0.9740 -2.2387  0.6312
32158SOL    HW2 5443  12.473   1.148  11.641 -0.1150 -0.1278 -0.4141
32159SOL     OW 5444  12.139   9.933  12.010  0.4236 -0.8432 -0.0146
32159SOL    HW1 5445  12.103   9.979  12.085 -0.9945 -0.6651 -0.7706
32159SOL    HW2 5446  12.143   9.999  11.941  2.5760 -0.7700  0.1292
32160SOL     OW 5447   6.521   1.664   3.676 -0.5172  0.4401 -0.1779
32160SOL    HW1 5448   6.573   1.659   3.595 -2.5980  1.2628 -1.6581
32160SOL    HW2 5449   6.535   1.753   3.707  0.4086  0.0755  0.5104
32161SOL     OW 5450   6.378   8.751  12.578 -0.3088  0.1997  0.2103
32161SOL    HW1 5451   6.467   8.716  12.586 -0.2527  0.4125  0.5357
32161SOL    HW2 5452   6.327   8.701  12.642 -0.4577 -0.0225 -0.0776
32162SOL     OW 5453   8.484  11.459   6.970  0.2328 -0.0693 -0.0957
32162SOL    HW1 5454   8.491  11.517   6.894  0.9982 -1.7795 -1.3947
32162SOL    HW2 5455   8.575  11.439   6.993  0.0621  1.3526  2.0654
32163SOL     OW 5456   5.543   9.048   4.175  0.0703  0.2099 -0.3975
32163SOL    HW1 5457   5.504   8.990   4.109  0.7557 -0.4335 -0.2509
32163SOL    HW2 5458   5.521   9.136   4.145 -0.1855 -0.0967 -1.1350
32164SOL     OW 5459  10.682  10.885  10.626 -0.1968  0.6817 -0.2950
32164SOL    HW1 5460  10.595  10.912  10.655 -1.0988 -0.2222 -2.0306
32164SOL    HW2 5461  10.686  10.911  10.534  0.3651 -1.5070 -0.9563
32165SOL     OW 5462  10.019   3.513   2.439  0.0881 -0.1899 -0.1293
32165SOL    HW1 5463  10.025   3.606   2.419  0.2060 -0.4680 -1.4507
32165SOL    HW2 5464  10.072   3.503   2.518 -1.1668  1.0992  0.9315
32166SOL     OW 5465  11.241   8.227  10.112 -0.3344  0.1441  0.1321
32166SOL    HW1 5466  11.172   8.168  10.142 -1.9984  1.4037 -0.9979
32166SOL    HW2 5467  11.275   8.267  10.192 -1.4766  0.0582  0.6895
32167SOL     OW 5468   4.449   4.667   9.418  0.5309 -0.0964 -0.4792
32167SOL    HW1 5469   4.441   4.718   9.338  0.9758  0.9546  0.1303
32167SOL    HW2 5470   4.459   4.732   9.488 -2.3195 -0.8168  0.7861
32168SOL     OW 5471   5.073   8.304  11.858 -0.5205  0.2472 -0.1585
32168SOL    HW1 5472   5.035   8.239  11.798  1.3524 -0.5045 -0.6049
32168SOL    HW2 5473   5.135   8.353  11.804 -0.2483  0.8980  0.7159
32169SOL     OW 5474   3.445   3.692   4.420 -0.6041 -0.1464 -0.4491
32169SOL    HW1 5475   3.446   3.597   4.424  2.8254 -0.2105  1.9626
32169SOL    HW2 5476   3.369   3.718   4.472 -1.3140 -1.5443 -0.7460
32170SOL     OW 5477  10.513  10.748   6.523 -0.7675 -0.3816 -0.0811
32170SOL    HW1 5478  10.497  10.791   6.439 -1.9480  2.1902  1.3417
32170SOL    HW2 5479  10.601  10.775   6.548 -1.4248  1.1563  0.7065
32171SOL     OW 5480   4.867   2.419   4.894  0.4066  0.1298  0.2580
32171SOL    HW1 5481   4.910   2.497   4.928 -0.8144  0.7086  0.5209
32171SOL    HW2 5482   4.795   2.403   4.955 -0.4436 -0.1402 -0.7934
32172SOL     OW 5483   3.682   5.400   6.289 -0.4567  0.1000 -0.1393
32172SOL    HW1 5484   3.626   5.444   6.225  0.5401  0.2560 -0.9149
32172SOL    HW2 5485   3.626   5.391   6.367 -1.5557  0.2571 -0.8854
32173SOL     OW 5486   8.599  10.230   4.293 -0.4344 -0.0274 -0.2014
32173SOL    HW1 5487   8.683  10.190   4.272 -0.6939 -0.1351 -1.0490
32173SOL    HW2 5488   8.592  10.220   4.388 -0.3822 -1.8061 -0.3496
32174SOL     OW 5489   6.611   7.972   7.003  0.1404  0.2057  0.7323
32174SOL    HW1 5490   6.660   7.998   6.924 -2.1356  0.8476 -0.5702
32174SOL    HW2 5491   6.672   7.918   7.052  1.8789  0.3056 -1.1663
32175SOL     OW 5492   8.446   3.260   7.154  0.1047 -0.2496  0.0698
32175SOL    HW1 5493   8.368   3.315   7.155  0.6131  0.7025 -2.6081
32175SOL    HW2 5494   8.415   3.174   7.127 -0.3446 -0.6249  1.7079
32176SOL     OW 5495   9.619   2.250   3.944 -0.2818  0.1672  0.0394
32176SOL    HW1 5496   9.547   2.202   3.903 -0.7170  0.3346  0.6151
32176SOL    HW2 5497   9.697   2.218   3.898 -0.9374  2.1407 -2.7059
32177SOL     OW 5498   5.533   0.315   1.845  0.5165 -0.7122 -0.3450
32177SOL    HW1 5499   5.522   0.410   1.839 -0.3780 -0.8121 -0.5300
32177SOL    HW2 5500   5.626   0.302   1.862  0.4734  0.2417  0.7037
32178SOL     OW 5501   2.810   1.141   7.004  0.3973  0.1679 -0.2555
32178SOL    HW1 5502   2.879   1.155   7.069  0.0220  0.5018  0.0775
32178SOL    HW2 5503   2.846   1.175   6.922  0.3761  0.9716  0.0603
32179SOL     OW 5504   8.933   6.900   2.291  0.0976  0.0861 -0.2398
32179SOL    HW1 5505   8.902   6.989   2.310 -1.9795 -0.2007 -1.9160
32179SOL    HW2 5506   8.993   6.911   2.217 -0.1713  0.0678 -0.4567
32180SOL     OW 5507   1.580   4.507   0.579  0.3846 -0.0467 -0.7290
32180SOL    HW1 5508   1.572   4.594   0.619  0.0114 -0.0860 -0.7150
32180SOL    HW2 5509   1.585   4.524   0.485 -1.6915 -0.1042 -0.8892
32181SOL     OW 5510   0.642   5.212   2.807  0.2836  0.0526 -0.1351
32181SOL    HW1 5511   0.699   5.202   2.883 -0.2602  1.1066  0.4411
32181SOL    HW2 5512   0.597   5.295   2.821 -1.6846 -0.9028 -0.3722
32182SOL     OW 5513   9.050   6.457   1.285  0.0130 -0.2811 -0.3046
32182SOL    HW1 5514   8.981   6.477   1.223 -1.1207 -0.3247  0.9018
32182SOL    HW2 5515   9.015   6.483   1.370  2.3604  1.9320  0.1392
32183SOL     OW 5516   4.535  10.047   1.814  0.1213 -0.0669  0.0076
32183SOL    HW1 5517   4.586   9.969   1.835  1.8278  1.3531  1.4703
32183SOL    HW2 5518   4.577  10.082   1.735 -0.3698 -0.3808 -0.3970
32184SOL     OW 5519  11.801   3.226   4.982  0.1764 -0.3860  0.7572
32184SOL    HW1 5520  11.731   3.227   5.047  0.3952 -0.4083  0.9978
32184SOL    HW2 5521  11.823   3.318   4.969 -0.9416 -0.2679 -0.4735
32185SOL     OW 5522   5.129   5.855  11.536 -0.6068  0.4303  0.6996
32185SOL    HW1 5523   5.122   5.934  11.588  0.2926  1.2389 -0.3574
32185SOL    HW2 5524   5.075   5.871  11.459 -0.6133 -0.0752  0.5907
32186SOL     OW 5525   0.513   0.705   6.831 -0.3026  0.2896  0.4246
32186SOL    HW1 5526   0.544   0.778   6.777 -2.0545 -1.1986 -2.8992
32186SOL    HW2 5527   0.589   0.681   6.884  1.9096  1.3659 -2.0230
32187SOL     OW 5528   8.957   3.207   4.258 -0.5686 -0.3832  0.3211
32187SOL    HW1 5529   8.954   3.200   4.162  1.3908 -1.1784  0.2528
32187SOL    HW2 5530   9.022   3.141   4.284  1.0446  1.7058  1.9451
32188SOL     OW 5531  10.244   4.501  11.413 -0.0060 -0.1785 -0.4152
32188SOL    HW1 5532  10.193   4.429  11.377 -1.8379  0.6611  0.3575
32188SOL    HW2 5533  10.191   4.579  11.395  0.9461  0.7256  0.5644
32189SOL     OW 5534   0.280   6.263   0.984 -0.0155 -0.2106 -0.3696
32189SOL    HW1 5535   0.293   6.347   1.027  1.6407 -0.2280 -0.7323
32189SOL    HW2 5536   0.220   6.281   0.913 -0.9809  0.2996  0.5488
32190SOL     OW 5537   3.346  10.146   6.228 -0.0624  0.1206  0.1398
32190SOL    HW1 5538   3.310  10.136   6.140  0.4103  1.0653 -0.1726
32190SOL    HW2 5539   3.330  10.238   6.250 -1.0798 -0.3418  1.4541
32191SOL     OW 5540   9.809   9.366   8.035  0.2742 -0.1109  0.1934
32191SOL    HW1 5541   9.791   9.276   8.060  1.3483 -0.9083 -1.7183
32191SOL    HW2 5542   9.743   9.387   7.969 -0.5024  0.8401  1.2176
32192SOL     OW 5543   0.834  11.181   0.521  0.1521  0.4344 -0.2087
32192SOL    HW1 5544   0.772  11.213   0.455  1.9356  0.6288 -1.8710
32192SOL    HW2 5545   0.789  11.107   0.562  0.1071 -1.8519 -3.9138
32193SOL     OW 5546   2.293  10.061   4.449 -0.0394 -0.5270 -0.5020
32193SOL    HW1 5547   2.375  10.069   4.498 -0.5169 -0.0052  0.2259
32193SOL    HW2 5548   2.255   9.979   4.480 -0.6774  0.1411  0.5491
32194SOL     OW 5549   3.585   9.524   6.079 -0.7061  0.2245  0.3793
32194SOL    HW1 5550   3.670   9.531   6.035 -0.5315  0.6151  0.7673
32194SOL    HW2 5551   3.537   9.458   6.029  0.8695 -2.1617  1.8449
32195SOL     OW 5552   6.326  12.439   9.339  0.2045  0.5682  1.0528
32195SOL    HW1 5553   6.367  12.475   9.261  1.4922 -0.8697  0.9949
32195SOL    HW2 5554   6.255  12.384   9.306  1.4251 -0.9047  0.7600
32196SOL     OW 5555   9.514   2.041  10.005 -0.4402  0.7737  0.7518
32196SOL    HW1 5556   9.435   1.995  10.035 -0.0453 -2.4832 -2.5462
32196SOL    HW2 5557   9.480   2.114   9.952 -1.1525  1.0738  1.5867
32197SOL     OW 5558   1.609  11.384   8.432  0.5180  0.1053 -0.0197
32197SOL    HW1 5559   1.558  11.444   8.377 -0.4556 -0.0461  0.6863
32197SOL    HW2 5560   1.545  11.348   8.493  1.1381 -1.4802 -0.2689
32198SOL     OW 5561   9.580   3.408  10.232 -0.0739 -0.1334 -0.1132
32198SOL    HW1 5562   9.537   3.369  10.156  1.7252 -1.4181 -0.5419
32198SOL    HW2 5563   9.671   3.419  10.204  0.0094  2.1974  0.8537
32199SOL     OW 5564  10.557   2.868  12.381 -0.0366  0.8051  0.2654
32199SOL    HW1 5565  10.552   2.949  12.330 -1.2784 -0.2920 -1.4978
32199SOL    HW2 5566  10.630   2.882  12.441 -0.7768  3.5711  0.6897
32200SOL     OW 5567   9.390   4.965  10.041 -0.6410  0.1448 -0.4106
32200SOL    HW1 5568   9.313   5.023  10.046 -0.1989  0.7042  0.1627
32200SOL    HW2 5569   9.417   4.955  10.133  0.4441  0.6174 -0.6651
32201SOL     OW 5570   2.289  11.623   6.468  0.1569  0.3836  0.6269
32201SOL    HW1 5571   2.253  11.674   6.395 -0.1347  1.1736  1.3035
32201SOL    HW2 5572   2.363  11.575   6.430 -0.3422  0.3372 -0.3110
32202SOL     OW 5573   1.648  12.047  11.039 -0.0910  0.3951 -0.0658
32202SOL    HW1 5574   1.578  12.068  11.100 -0.5388 -0.9722 -0.0972
32202SOL    HW2 5575   1.693  11.972  11.077  1.4947  1.3502  0.0446
32203SOL     OW 5576   4.375   9.106   1.324 -0.1368 -0.0484 -0.0813
32203SOL    HW1 5577   4.411   9.063   1.401  0.8257 -1.2373 -1.1467
32203SOL    HW2 5578   4.284   9.078   1.322 -0.5354  1.0506  1.3224
32204SOL     OW 5579  10.741   5.678   4.726 -0.2836  0.2806  0.0589
32204SOL    HW1 5580  10.799   5.642   4.659 -1.3791  1.0465 -1.3612
32204SOL    HW2 5581  10.798   5.733   4.779  0.3447  0.9152 -1.2172
32205SOL     OW 5582   3.501   2.116   3.543  0.0406  0.1416 -0.2929
32205SOL    HW1 5583   3.512   2.176   3.617  0.0030 -0.6233  0.3321
32205SOL    HW2 5584   3.440   2.049   3.574 -0.8320  0.3880 -1.3670
32206SOL     OW 5585   7.178  11.533  10.441 -0.2233  0.3255 -0.4604
32206SOL    HW1 5586   7.117  11.459  10.444 -0.2159  0.2205 -2.1195
32206SOL    HW2 5587   7.124  11.608  10.415  0.1211  0.4838 -0.7306
32207SOL     OW 5588  11.900   8.815   5.375  0.3503  0.1662 -0.1535
32207SOL    HW1 5589  11.862   8.818   5.463  1.8327 -0.1468  0.5308
32207SOL    HW2 5590  11.923   8.723   5.362  0.8877  0.3438 -0.5191
32208SOL     OW 5591   1.104   7.437   1.054 -1.1253  0.2235  0.0207
32208SOL    HW1 5592   1.146   7.513   1.094 -0.4355  0.5157 -1.1869
32208SOL    HW2 5593   1.069   7.471   0.971 -2.2289 -0.4213  0.2134
32209SOL     OW 5594   1.907   5.508   7.149 -0.1293  0.3076  0.5067
32209SOL    HW1 5595   1.903   5.598   7.117  0.3700  0.1175 -0.1063
32209SOL    HW2 5596   1.841   5.461   7.097  0.2558  0.1278  0.1753
32210SOL     OW 5597   1.030   4.072   1.697  0.0192  0.0665  0.5009
32210SOL    HW1 5598   1.124   4.085   1.683  0.6856 -1.8117  2.6605
32210SOL    HW2 5599   1.012   3.986   1.661 -0.5763 -0.1415  1.2781
32211SOL     OW 5600   8.940  11.871   9.561 -0.0998  0.0477 -0.3244
32211SOL    HW1 5601   8.924  11.953   9.608 -0.5679 -0.1818 -0.0799
32211SOL    HW2 5602   8.969  11.810   9.628 -2.4402 -0.7870  0.0211
32212SOL     OW 5603   2.774   8.778  11.880  0.0136 -0.4068  0.2156
32212SOL    HW1 5604   2.793   8.853  11.824 -0.5880 -0.5328 -0.1648
32212SOL    HW2 5605   2.744   8.710  11.820  0.2107 -0.8403  0.5966
32213SOL     OW 5606   4.724   6.736   4.213 -0.4367 -0.4904 -0.6077
32213SOL    HW1 5607   4.793   6.705   4.154  0.3803 -0.0745  0.1116
32213SOL    HW2 5608   4.767   6.801   4.268 -1.0309 -1.2846  0.8293
32214SOL     OW 5609   7.417   2.859  10.569 -0.6013 -0.0877  0.3545
32214SOL    HW1 5610   7.412   2.797  10.642 -0.5066 -1.3427 -0.6567
32214SOL    HW2 5611   7.511   2.873  10.557 -0.5879 -0.3757  0.0951
32215SOL     OW 5612   0.738  10.984   2.372  0.0304 -0.0395  1.0344
32215SOL    HW1 5613   0.707  10.908   2.323 -1.1066  0.4986  0.9056
32215SOL    HW2 5614   0.666  11.046   2.371  1.2623  1.4573  0.3202
32216SOL     OW 5615   5.917   3.222  12.021 -0.3420 -0.1663  0.0119
32216SOL    HW1 5616   5.997   3.271  12.003 -1.1263  1.3536  0.5288
32216SOL    HW2 5617   5.878   3.208  11.935  0.0741 -0.2195 -0.1720
32217SOL     OW 5618   8.466   7.504   5.793 -0.0718 -0.4656 -0.5841
32217SOL    HW1 5619   8.527   7.549   5.851  0.0699 -0.2233 -0.9161
32217SOL    HW2 5620   8.522   7.466   5.724 -0.4473  1.6813 -2.1866
32218SOL     OW 5621   9.489   1.149   8.845  0.0008  0.0930 -0.5584
32218SOL    HW1 5622   9.428   1.076   8.837  2.1510 -2.1392  1.5980
32218SOL    HW2 5623   9.538   1.147   8.763  0.0416 -0.9493 -0.5315
32219SOL     OW 5624   0.302  11.300   8.873 -0.0017  0.0073  0.5329
32219SOL    HW1 5625   0.220  11.338   8.905 -0.9910 -1.2562 -0.3629
32219SOL    HW2 5626   0.341  11.258   8.950 -0.9469 -0.6057  0.6988
32220SOL     OW 5627   6.559   9.833   1.260  0.2349 -0.2372 -0.0135
32220SOL    HW1 5628   6.488   9.842   1.196 -1.3669  4.5890  2.0012
32220SOL    HW2 5629   6.636   9.867   1.215 -0.3578  1.0088 -0.1188
32221SOL     OW 5630   2.864  10.260   5.374 -0.1561 -0.8411  0.4523
32221SOL    HW1 5631   2.904  10.192   5.320  0.4149  0.5057 -0.9005
32221SOL    HW2 5632   2.862  10.338   5.318 -3.0213 -0.3343  1.0719
32222SOL     OW 5633  12.236  12.214   2.488 -0.3109  0.3323  0.2771
32222SOL    HW1 5634  12.252  12.136   2.436 -1.7417 -1.4432  2.2998
32222SOL    HW2 5635  12.284  12.199   2.569 -0.2003  1.8094  0.5093
32223SOL     OW 5636   7.085   6.448   9.305  0.2832  0.1348 -0.6729
32223SOL    HW1 5637   7.020   6.384   9.274  0.9954 -0.5475 -0.8030
32223SOL    HW2 5638   7.154   6.446   9.239  1.3532 -0.5975  0.4066
32224SOL     OW 5639   2.366   5.144   8.707  0.1481  0.4159 -0.0412
32224SOL    HW1 5640   2.414   5.208   8.654 -0.0977  0.2764 -0.4292
32224SOL    HW2 5641   2.375   5.177   8.797 -0.3287  1.2305 -0.2765
32225SOL     OW 5642   9.468   3.028   0.432  0.2979  0.4173  0.1797
32225SOL    HW1 5643   9.456   3.037   0.337  1.3509 -1.7082 -0.2051
32225SOL    HW2 5644   9.403   2.964   0.459 -2.3762  3.4663  1.6036
32226SOL     OW 5645  11.770  11.934   2.941  0.0239  0.2464  0.3958
32226SOL    HW1 5646  11.779  11.981   3.024 -0.3962  0.1073  0.5215
32226SOL    HW2 5647  11.696  11.876   2.954  0.9085 -0.9021  0.4462
32227SOL     OW 5648   5.914   5.487   3.791 -0.2260  0.3339 -0.3436
32227SOL    HW1 5649   5.915   5.489   3.887  1.0306 -2.9657 -0.1563
32227SOL    HW2 5650   5.822   5.478   3.768 -0.4713  0.2849  0.6158
32228SOL     OW 5651   8.861   8.388   2.024 -0.7266 -0.0926 -0.0283
32228SOL    HW1 5652   8.951   8.417   2.041 -1.1238  1.9356 -1.1073
32228SOL    HW2 5653   8.813   8.413   2.103 -0.8670  1.3726 -0.5562
32229SOL     OW 5654   7.548   6.133   8.735 -0.2335 -0.1468  0.1185
32229SOL    HW1 5655   7.625   6.181   8.765  0.0312 -0.1995 -0.4752
32229SOL    HW2 5656   7.579   6.044   8.719 -0.0383  0.1995 -1.6316
32230SOL     OW 5657   9.453   7.715   6.357 -0.0314 -0.3035  0.2907
32230SOL    HW1 5658   9.371   7.675   6.387 -0.4331  0.6060  0.4483
32230SOL    HW2 5659   9.463   7.792   6.413  1.3056 -0.7812  0.7391
32231SOL     OW 5660   8.238   6.568   1.695  0.3442 -0.5145 -0.2864
32231SOL    HW1 5661   8.171   6.500   1.699 -2.5981  2.1794  1.9361
32231SOL    HW2 5662   8.313   6.532   1.743 -0.9834 -2.3025  0.5552
32232SOL     OW 5663   7.086   3.399  10.281 -0.1203  0.6034  0.6764
32232SOL    HW1 5664   7.096   3.344  10.203  0.7811  1.5466  0.0974
32232SOL    HW2 5665   6.998   3.436  10.273 -0.0708  0.6219  0.1482
32233SOL     OW 5666   9.874   2.376  12.525  0.4522  0.4142  0.3776
32233SOL    HW1 5667   9.866   2.290  12.567 -0.2221 -0.8624 -2.1660
32233SOL    HW2 5668   9.871   2.438  12.597 -2.3961 -1.5318  2.1368
32234SOL     OW 5669   6.131   3.372   4.119 -0.2484 -0.5446  0.2654
32234SOL    HW1 5670   6.057   3.343   4.173  2.1322 -2.5359  2.7574
32234SOL    HW2 5671   6.144   3.301   4.056 -0.4068 -0.2154 -0.1441
32235SOL     OW 5672   6.594   2.710   6.889  0.1448 -0.0725  0.0823
32235SOL    HW1 5673   6.613   2.718   6.983 -0.3181  1.5330  0.0651
32235SOL    HW2 5674   6.518   2.651   6.885  1.2548 -1.6147  0.5574
32236SOL     OW 5675  10.475  11.223  11.344 -0.5526 -0.0639  0.2684
32236SOL    HW1 5676  10.430  11.308  11.345 -1.9542 -0.7533 -0.4684
32236SOL    HW2 5677  10.424  11.168  11.404  0.9895 -0.1148  1.6066
32237SOL     OW 5678   3.303   8.603   6.304 -0.0570 -0.4218  0.6154
32237SOL    HW1 5679   3.254   8.673   6.260 -0.2468 -0.1888  1.1877
32237SOL    HW2 5680   3.346   8.647   6.377  0.8327 -0.6690  0.2535
32238SOL     OW 5681   5.752   3.691   0.992  0.0810  0.0922 -0.3238
32238SOL    HW1 5682   5.835   3.738   1.000 -0.3245  0.6911  0.5862
32238SOL    HW2 5683   5.687   3.754   1.024 -0.9469  0.2696 -2.5533
32239SOL     OW 5684   5.433   2.179   9.463 -0.2363  0.4261  0.7642
32239SOL    HW1 5685   5.408   2.116   9.530  0.6069  1.0434  1.7059
32239SOL    HW2 5686   5.361   2.179   9.400 -0.0270 -1.8314  0.4613
32240SOL     OW 5687   1.053   6.134   2.416  0.0550  0.8160  0.4820
32240SOL    HW1 5688   1.008   6.183   2.347 -2.9181  0.1776  1.8096
32240SOL    HW2 5689   1.087   6.056   2.372  0.0565  1.4148 -0.6114
32241SOL     OW 5690   3.656  10.333   0.650 -0.7567  0.3548 -0.5823
32241SOL    HW1 5691   3.692  10.419   0.675  3.3403 -1.1543 -0.4410
32241SOL    HW2 5692   3.606  10.306   0.727  1.6966  0.8249  1.3388
32242SOL     OW 5693  10.903   2.095   9.954  1.0256 -0.6943  0.6124
32242SOL    HW1 5694  10.846   2.135   9.889  1.9920  0.8538  0.6571
32242SOL    HW2 5695  10.858   2.015   9.980  1.0502 -1.9381 -2.6634
32243SOL     OW 5696   7.617   0.878  10.465  0.4508 -0.9044  0.0248
32243SOL    HW1 5697   7.553   0.808  10.452 -1.6885  0.8175  0.6445
32243SOL    HW2 5698   7.620   0.891  10.560 -0.5265  0.9303 -0.1432
32244SOL     OW 5699   9.372   9.892   8.779 -0.1737  0.0230  0.1294
32244SOL    HW1 5700   9.299   9.890   8.842 -0.9913 -0.0183 -0.7874
32244SOL    HW2 5701   9.390   9.985   8.766 -0.5806  0.0524 -0.2228
32245SOL     OW 5702  10.535   7.759   3.606  0.6091 -0.4806  0.5218
32245SOL    HW1 5703  10.512   7.700   3.677  3.8110 -1.6095  0.7861
32245SOL    HW2 5704  10.499   7.844   3.632 -0.3728 -1.3905  2.2676
32246SOL     OW 5705   1.329  12.301  10.984  0.6704  0.2545 -0.5512
32246SOL    HW1 5706   1.358  12.390  10.964  0.1409  0.6163  0.2354
32246SOL    HW2 5707   1.394  12.268  11.046  1.1541 -0.1039 -1.2389
32247SOL     OW 5708   4.389   2.650   2.903  0.3906  0.3302  0.2848
32247SOL    HW1 5709   4.425   2.728   2.946  1.5631 -0.0666  0.0538
32247SOL    HW2 5710   4.334   2.609   2.970  1.1550  0.4219  0.9884
32248SOL     OW 5711   2.976  12.013  11.263 -0.0209  0.3263  0.3506
32248SOL    HW1 5712   3.038  11.949  11.298 -0.4224 -0.2721  0.0003
32248SOL    HW2 5713   2.909  11.959  11.219 -1.0652  0.9171  1.1767
32249SOL     OW 5714   4.641   3.448   0.465 -0.2628  0.0671  0.1298
32249SOL    HW1 5715   4.576   3.512   0.436  1.6943  1.6056 -1.1974
32249SOL    HW2 5716   4.598   3.400   0.535 -1.2265  4.2555  2.7759
32250SOL     OW 5717   3.878   3.339   8.947  0.7495  0.2395 -0.2668
32250SOL    HW1 5718   3.793   3.298   8.964  0.6667  0.7818  0.6859
32250SOL    HW2 5719   3.942   3.270   8.966  0.5872  0.3438  0.6915
32251SOL     OW 5720   4.265   8.434   7.834 -0.6747 -0.3420  0.0986
32251SOL    HW1 5721   4.231   8.411   7.920 -1.5383  1.2969  0.2448
32251SOL    HW2 5722   4.285   8.350   7.792 -1.5648 -1.2143  1.3566
32252SOL     OW 5723   1.945   4.964   0.675  0.2674  0.3769 -0.3409
32252SOL    HW1 5724   1.960   4.878   0.712 -0.7966  0.0373 -0.6548
32252SOL    HW2 5725   1.986   4.961   0.589  3.5118  1.4554  1.0242
32253SOL     OW 5726  11.924   4.313   3.334  0.5604  0.3276  0.0602
32253SOL    HW1 5727  11.909   4.318   3.429 -0.7807  2.0733 -0.1844
32253SOL    HW2 5728  11.845   4.270   3.301 -1.0643  3.5629 -0.6120
32254SOL     OW 5729   1.820   1.197   3.404 -0.1524  0.5943 -0.0173
32254SOL    HW1 5730   1.815   1.156   3.318 -1.7382  0.4975  0.0957
32254SOL    HW2 5731   1.870   1.278   3.389 -1.4560  1.2011 -1.2850
32255SOL     OW 5732  12.360   2.939   0.107  0.3286 -0.4117  0.2933
32255SOL    HW1 5733  12.266   2.959   0.100  0.4779 -0.1147 -1.2916
32255SOL    HW2 5734  12.365   2.844   0.095  0.2191 -0.4528  0.5668
32256SOL     OW 5735   2.391   5.742   6.626  0.4593  0.2403  0.2198
32256SOL    HW1 5736   2.369   5.823   6.672  2.0694  0.8359  0.0165
32256SOL    HW2 5737   2.459   5.701   6.679  0.6120 -0.2916 -0.3674
32257SOL     OW 5738   3.860   6.018   6.941 -0.4523  0.6338  0.3921
32257SOL    HW1 5739   3.908   5.936   6.933 -2.3023 -0.5914  1.0859
32257SOL    HW2 5740   3.801   6.019   6.866  0.0605  1.7061 -0.0133
32258SOL     OW 5741   0.025   5.804   5.669  0.5178  0.1260  0.3355
32258SOL    HW1 5742   0.041   5.711   5.684 -0.0087 -0.1688 -0.8172
32258SOL    HW2 5743   0.111   5.845   5.676  0.8829 -0.5767  0.0352
32259SOL     OW 5744  10.885   5.395   4.306  0.1814  0.4618 -0.1788
32259SOL    HW1 5745  10.866   5.303   4.326 -2.5743  0.7987 -0.9091
32259SOL    HW2 5746  10.938   5.391   4.226 -0.7344 -0.4856 -0.7633
32260SOL     OW 5747   6.885  11.802   7.073 -0.2270 -0.2365  0.8661
32260SOL    HW1 5748   6.864  11.891   7.101  1.3175  0.2441  0.5665
32260SOL    HW2 5749   6.976  11.789   7.100  0.1011 -1.1148 -0.5660
32261SOL     OW 5750   8.689   6.838   7.945  0.4409 -0.0959 -0.4642
32261SOL    HW1 5751   8.649   6.924   7.931  0.0024 -0.5929 -2.5736
32261SOL    HW2 5752   8.650   6.782   7.878  2.3353 -1.4044 -0.5601
32262SOL     OW 5753   5.780  11.374   7.160  0.5858  0.1249  0.2253
32262SOL    HW1 5754   5.846  11.441   7.173  0.3996  0.1450  1.1521
32262SOL    HW2 5755   5.816  11.296   7.202  0.4242 -0.1169 -0.0795
32263SOL     OW 5756  10.068   6.082   8.382  0.4118 -0.4729  0.1259
32263SOL    HW1 5757  10.013   6.009   8.354 -0.3683 -0.0288  0.4812
32263SOL    HW2 5758  10.007   6.153   8.400  1.2579  0.9941 -2.2767
32264SOL     OW 5759   7.506   9.822   1.899 -0.1282 -0.2506  0.2720
32264SOL    HW1 5760   7.517   9.913   1.925 -0.1596 -0.2053  0.1288
32264SOL    HW2 5761   7.431   9.791   1.950  1.5655 -1.0114  2.4231
32265SOL     OW 5762   4.880  11.487   9.367 -0.2917  0.0645  0.1636
32265SOL    HW1 5763   4.835  11.528   9.293 -0.1856  1.7840  1.0110
32265SOL    HW2 5764   4.811  11.470   9.431 -0.3393 -1.1603 -0.1831
32266SOL     OW 5765   3.614   8.603   3.241 -0.2179  0.3334 -0.3383
32266SOL    HW1 5766   3.699   8.586   3.201  0.9917 -0.4299  2.3289
32266SOL    HW2 5767   3.584   8.683   3.199  1.9803  0.8230 -1.1351
32267SOL     OW 5768   0.110  10.355  10.096  0.0268 -0.4582 -0.5009
32267SOL    HW1 5769   0.194  10.370  10.052 -0.0602  2.4263  0.1583
32267SOL    HW2 5770   0.047  10.344  10.024  0.2148  2.2521 -1.1627
32268SOL     OW 5771   2.394   6.816   8.148 -0.2581  0.4491  0.1387
32268SOL    HW1 5772   2.311   6.858   8.172 -0.5510  0.9051 -1.5625
32268SOL    HW2 5773   2.460   6.878   8.179 -0.5330  0.1605  1.3623
32269SOL     OW 5774   1.359   1.441   4.246 -0.4189 -0.0148  0.2291
32269SOL    HW1 5775   1.299   1.467   4.176 -0.1820  1.6857  0.5997
32269SOL    HW2 5776   1.344   1.347   4.257 -1.0516 -0.1539 -1.5182
32270SOL     OW 5777   1.866  11.735   9.934  0.3072  0.0913  0.5802
32270SOL    HW1 5778   1.927  11.767  10.001 -1.0522  3.2188  0.4723
32270SOL    HW2 5779   1.797  11.691   9.985  1.4687 -1.4978  0.8491
32271SOL     OW 5780   3.425   2.247   7.003 -0.2197 -0.1900  0.8166
32271SOL    HW1 5781   3.404   2.225   7.094  1.7621  0.1203  1.4142
32271SOL    HW2 5782   3.482   2.323   7.010 -0.0089 -0.1858 -0.6929
32272SOL     OW 5783  10.032   7.535   2.238  0.2579  0.5752  0.0219
32272SOL    HW1 5784   9.985   7.617   2.222 -1.2256 -0.2787 -0.1688
32272SOL    HW2 5785   9.968   7.466   2.220  1.5824 -0.6545 -0.2216
32273SOL     OW 5786   9.422   2.995   1.924  0.0436  0.1798  0.3450
32273SOL    HW1 5787   9.431   2.900   1.931 -0.3369  0.1554  0.5005
32273SOL    HW2 5788   9.328   3.010   1.919  0.0958  0.5634  0.5138
32274SOL     OW 5789   8.879   8.764   3.808  0.0723 -0.4292  0.2683
32274SOL    HW1 5790   8.789   8.732   3.805  0.9934 -3.8120  2.2610
32274SOL    HW2 5791   8.906   8.748   3.899  1.7102  3.8439  0.7829
32275SOL     OW 5792   2.574   7.045   5.178  0.4318 -0.6395 -0.2125
32275SOL    HW1 5793   2.639   6.975   5.186  0.8803 -0.0526  1.9879
32275SOL    HW2 5794   2.519   7.035   5.256 -1.4969 -0.4859 -1.5016
32276SOL     OW 5795   2.934   5.649   1.743  0.4340 -0.4011  0.2152
32276SOL    HW1 5796   3.015   5.681   1.703 -0.3409  2.1401  0.5363
32276SOL    HW2 5797   2.872   5.646   1.670  0.1327  0.1946  0.4448
32277SOL     OW 5798   5.872   9.015   8.523  0.3574  0.7193 -0.4195
32277SOL    HW1 5799   5.830   9.084   8.574  1.3872  0.8392  0.2735
32277SOL    HW2 5800   5.948   8.989   8.574 -0.9990 -2.2501  0.2652
32278SOL     OW 5801   3.625   4.636   8.779 -0.0726  0.1567 -0.4002
32278SOL    HW1 5802   3.543   4.596   8.807  0.5344 -1.6111 -0.9986
32278SOL    HW2 5803   3.689   4.564   8.781  1.7646  1.6915  1.1659
32279SOL     OW 5804  12.045   6.733   9.041 -0.0183 -0.0298  0.1584
32279SOL    HW1 5805  11.959   6.764   9.070  0.6872  1.5695  0.6252
32279SOL    HW2 5806  12.069   6.791   8.969  1.0242  0.0620  0.5665
32280SOL     OW 5807   5.319   1.570   2.766 -0.0880  0.5483  0.2500
32280SOL    HW1 5808   5.301   1.638   2.831 -0.7407 -0.1922  0.8695
32280SOL    HW2 5809   5.322   1.616   2.683 -0.9043  1.2901  0.6158
32281SOL     OW 5810   3.838  11.884   6.505  0.3022  0.2264  0.4183
32281SOL    HW1 5811   3.920  11.905   6.549  0.9523 -1.5879  0.1538
32281SOL    HW2 5812   3.856  11.803   6.457 -0.9469  1.0486 -1.5969
32282SOL     OW 5813   4.543   9.891  10.868 -0.6011  0.2059  0.3233
32282SOL    HW1 5814   4.456   9.851  10.864 -1.3495  1.8463 -0.9785
32282SOL    HW2 5815   4.531   9.970  10.921 -0.2097  1.0525 -0.8045
32283SOL     OW 5816   4.445  12.009   3.009  0.3690 -0.5156  0.0154
32283SOL    HW1 5817   4.422  11.934   3.064 -2.1673  0.1401 -0.0438
32283SOL    HW2 5818   4.477  12.075   3.071 -0.0127 -0.6887  0.4050
32284SOL     OW 5819  10.068   1.529   5.206  0.1991  0.1424  0.6764
32284SOL    HW1 5820  10.159   1.542   5.233  0.3396  0.8574 -0.1291
32284SOL    HW2 5821  10.042   1.448   5.251  1.7791 -1.0701 -0.4528
32285SOL     OW 5822   3.788   4.242   5.875 -0.4957  0.0339 -0.0168
32285SOL    HW1 5823   3.777   4.148   5.892 -0.1187 -0.0065  0.0174
32285SOL    HW2 5824   3.856   4.269   5.937 -0.8582  0.4088  0.2200
32286SOL     OW 5825   0.990   8.474   1.675  0.3129  0.7944  0.2676
32286SOL    HW1 5826   0.954   8.388   1.696  1.4926  0.2595  0.1778
32286SOL    HW2 5827   0.913   8.532   1.672 -0.6880 -0.5076 -1.0585
32287SOL     OW 5828   6.511  12.547   1.312  0.3332  0.3515 -1.1075
32287SOL    HW1 5829   6.527  12.602   1.388  1.1301 -0.1434 -0.9033
32287SOL    HW2 5830   6.595  12.503   1.295 -0.1270 -0.3802 -1.5949
32288SOL     OW 5831  10.016   9.946  10.134  0.3386 -0.0933  0.0053
32288SOL    HW1 5832  10.092   9.952  10.076  2.1987 -0.7604  2.2318
32288SOL    HW2 5833  10.007  10.033  10.172  0.9163 -0.3821  0.8212
32289SOL     OW 5834   7.257   9.399   5.940 -0.0025 -0.2095  0.0239
32289SOL    HW1 5835   7.192   9.330   5.926 -1.4429  1.4532 -2.3574
32289SOL    HW2 5836   7.206   9.477   5.961  1.2993  0.8339 -0.5077
32290SOL     OW 5837   8.376   1.215   0.261 -0.5465 -0.2275  0.1038
32290SOL    HW1 5838   8.372   1.208   0.356 -1.5738 -1.0567  0.0178
32290SOL    HW2 5839   8.430   1.292   0.245 -0.0518 -0.2914  1.3492
32291SOL     OW 5840   2.911   5.178   1.204 -0.1639  0.1865  0.5110
32291SOL    HW1 5841   2.940   5.187   1.295  1.7360  1.7851 -0.1906
32291SOL    HW2 5842   2.869   5.262   1.184  0.4467  0.2747 -0.4205
32292SOL     OW 5843   9.687  11.572  11.368 -0.1335 -0.1657  0.3168
32292SOL    HW1 5844   9.702  11.516  11.444  0.6864  0.7620  0.8587
32292SOL    HW2 5845   9.626  11.522  11.313 -1.0716 -0.6929  1.7669
32293SOL     OW 5846   7.508   8.275   6.028  0.6983 -0.6572 -0.2403
32293SOL    HW1 5847   7.442   8.209   6.052  0.7692 -1.0274 -1.0030
32293SOL    HW2 5848   7.502   8.342   6.096  1.9459 -2.3624  1.6586
32294SOL     OW 5849   5.569   0.931   6.016 -0.4321  0.3481 -0.3419
32294SOL    HW1 5850   5.640   0.983   6.054  0.1570 -0.5405 -0.2119
32294SOL    HW2 5851   5.491   0.959   6.064  0.1804 -0.2301  1.0505
32295SOL     OW 5852   4.725   1.143   0.829 -0.0457  0.0171  0.0764
32295SOL    HW1 5853   4.663   1.133   0.756  1.4818  1.8431 -1.5685
32295SOL    HW2 5854   4.805   1.100   0.799  1.1936  2.3615 -0.1488
32296SOL     OW 5855   4.302  11.819   4.470 -0.0424 -0.0593  0.3967
32296SOL    HW1 5856   4.368  11.818   4.401 -1.3625  1.4582 -0.9944
32296SOL    HW2 5857   4.334  11.885   4.532  1.1185 -1.3820  1.2478
32297SOL     OW 5858   5.315   4.252   8.522 -0.2436  0.3560 -0.1668
32297SOL    HW1 5859   5.411   4.252   8.522 -0.2440  0.2041 -0.2289
32297SOL    HW2 5860   5.291   4.236   8.431 -0.3281  0.1860 -0.1132
32298SOL     OW 5861   0.012   7.899   6.186  0.0015 -0.5438 -0.2212
32298SOL    HW1 5862  -0.029   7.984   6.198  2.0259  0.5979 -0.9914
32298SOL    HW2 5863  -0.028   7.864   6.106 -0.7192 -0.2469  0.0082
32299SOL     OW 5864   4.605   5.419   6.538 -0.1479  0.5056  0.2300
32299SOL    HW1 5865   4.631   5.338   6.583  2.5043  1.5201  0.7368
32299SOL    HW2 5866   4.600   5.395   6.446 -0.1032 -0.4101  0.4551
32300SOL     OW 5867  10.736   5.984   5.324  0.0930 -0.9420 -0.3913
32300SOL    HW1 5868  10.785   6.050   5.275 -0.3796  0.5668  1.0467
32300SOL    HW2 5869  10.685   5.937   5.258 -1.7030  1.9981 -1.3111
32301SOL     OW 5870   5.804   0.895  11.779 -0.4666 -0.4734  0.0109
32301SOL    HW1 5871   5.795   0.857  11.692  0.2995 -0.2625 -0.1701
32301SOL    HW2 5872   5.894   0.876  11.805  0.8198  3.2192 -1.0739
32302SOL     OW 5873  11.513   8.251   9.889 -0.0476  0.0883  0.1668
32302SOL    HW1 5874  11.441   8.199   9.926 -0.4555 -0.2587 -1.0492
32302SOL    HW2 5875  11.472   8.302   9.819  1.0285 -0.7713 -1.1418
32303SOL     OW 5876   1.724  11.372   0.109 -0.2204  0.3725  0.1354
32303SOL    HW1 5877   1.758  11.416   0.187  1.0528 -0.2364 -0.0544
32303SOL    HW2 5878   1.684  11.442   0.057 -0.6931  0.8495  1.1208
32304SOL     OW 5879  10.267   5.422   7.094  0.0507 -0.1960  0.1200
32304SOL    HW1 5880  10.251   5.503   7.143  0.4397 -0.2279  0.2975
32304SOL    HW2 5881  10.351   5.436   7.051  0.4279 -0.7614  0.6630
32305SOL     OW 5882   8.554   2.152   9.271  0.3886  0.0789  0.1161
32305SOL    HW1 5883   8.641   2.178   9.242 -0.1160  0.3193 -1.2878
32305SOL    HW2 5884   8.497   2.223   9.242 -0.3714 -0.4261  0.3471
32306SOL     OW 5885   1.088   2.342   5.573  0.5491 -0.3543 -0.2968
32306SOL    HW1 5886   1.148   2.279   5.534  0.8133 -1.3894  1.6467
32306SOL    HW2 5887   1.010   2.291   5.594  0.8239 -0.1208  1.4464
32307SOL     OW 5888   8.272  11.453   7.826  0.6607 -0.0944  0.1156
32307SOL    HW1 5889   8.328  11.408   7.889  0.8018 -0.8802 -0.5548
32307SOL    HW2 5890   8.227  11.383   7.779  0.3275  0.4895 -0.4533
32308SOL     OW 5891   6.957  11.946   2.896 -0.0173 -0.3122  0.5332
32308SOL    HW1 5892   6.935  11.987   2.980 -2.6989  1.0409 -0.7070
32308SOL    HW2 5893   6.901  11.868   2.892 -0.5457  0.0992 -0.3311
32309SOL     OW 5894   3.693   0.389   8.294  0.3229 -0.3843 -0.1300
32309SOL    HW1 5895   3.654   0.458   8.348 -0.9733 -1.2330  0.0414
32309SOL    HW2 5896   3.632   0.316   8.299  3.0158 -2.7460  2.1701
32310SOL     OW 5897   1.484   8.303  11.840  0.1286  0.1725 -0.1275
32310SOL    HW1 5898   1.509   8.211  11.850 -0.4121 -0.1090 -1.2358
32310SOL    HW2 5899   1.408   8.302  11.783 -0.1797  1.2873  0.2295
32311SOL     OW 5900   3.995   8.252   3.549  0.0044 -0.2494  0.2199
32311SOL    HW1 5901   3.903   8.280   3.554 -0.0287  0.3361 -2.2689
32311SOL    HW2 5902   3.993   8.160   3.575 -1.4060 -0.4149 -0.3548
32312SOL     OW 5903   9.262   5.563  11.299  0.4320  0.3301  0.0168
32312SOL    HW1 5904   9.224   5.606  11.375  0.5619  0.8186 -0.1951
32312SOL    HW2 5905   9.340   5.614  11.279 -0.3887  1.1007 -1.3392
32313SOL     OW 5906  10.899   8.131   2.393  0.3690  0.1920 -0.0789
32313SOL    HW1 5907  10.937   8.168   2.314  1.6728  0.9114  0.8423
32313SOL    HW2 5908  10.878   8.207   2.447 -0.8309 -0.2760  0.1411
32314SOL     OW 5909   4.041   1.765   2.205  0.2083  0.5002  0.4701
32314SOL    HW1 5910   3.953   1.730   2.220 -0.6845  2.9295  1.4452
32314SOL    HW2 5911   4.040   1.794   2.114  0.0824  0.2307  0.3865
32315SOL     OW 5912   0.752   3.364   9.512  0.0362 -0.0062 -0.1390
32315SOL    HW1 5913   0.806   3.289   9.487  0.3527 -0.0793  0.7465
32315SOL    HW2 5914   0.785   3.390   9.598  0.2899  1.4824 -0.6585
32316SOL     OW 5915   7.751  10.809   4.384 -0.4856  0.7871  0.5960
32316SOL    HW1 5916   7.665  10.840   4.415 -1.8794 -1.2960 -0.9017
32316SOL    HW2 5917   7.734  10.720   4.355  2.3348  0.1798  0.6192
32317SOL     OW 5918  12.199   3.680   5.279 -0.9123 -0.0297  0.0030
32317SOL    HW1 5919  12.273   3.643   5.327  0.2066  1.6408 -0.3396
32317SOL    HW2 5920  12.173   3.756   5.330 -0.2473  1.2929 -1.5071
32318SOL     OW 5921   1.062   2.642   4.125  0.1615 -0.2306 -0.3088
32318SOL    HW1 5922   1.002   2.604   4.190  0.6778 -1.1495 -0.3473
32318SOL    HW2 5923   1.090   2.567   4.073  2.5125 -0.1100  0.6369
32319SOL     OW 5924   0.783   9.598   7.407 -0.9200 -0.2169 -0.0049
32319SOL    HW1 5925   0.753   9.682   7.443  0.6569  0.5648 -0.4151
32319SOL    HW2 5926   0.772   9.608   7.312  0.5202  0.0802 -0.1635
32320SOL     OW 5927   2.816   0.515   2.008 -0.3347  0.5035  0.7729
32320SOL    HW1 5928   2.872   0.590   1.990  2.0710 -1.1410  0.9112
32320SOL    HW2 5929   2.825   0.459   1.931 -1.4152 -0.0521  1.0230
32321SOL     OW 5930   0.402  11.851  12.270  0.1017  0.3347  0.0441
32321SOL    HW1 5931   0.459  11.829  12.343  0.0019 -0.4946 -0.1210
32321SOL    HW2 5932   0.399  11.947  12.270  2.0304  0.4386 -0.3679
32322SOL     OW 5933   7.104   6.880   8.635 -0.4496  0.0748  0.1812
32322SOL    HW1 5934   7.048   6.802   8.633 -1.9652  1.1277  0.1553
32322SOL    HW2 5935   7.077   6.927   8.714  0.3105  0.6887  0.0893
32323SOL     OW 5936   1.953  10.599   3.562  0.6605  0.8383  0.0062
32323SOL    HW1 5937   1.902  10.519   3.570  1.9886 -0.1158 -0.8264
32323SOL    HW2 5938   1.935  10.631   3.474  3.1236 -0.7133 -1.1547
32324SOL     OW 5939   3.044   2.284   9.795 -0.3446 -0.0054  0.0028
32324SOL    HW1 5940   3.055   2.199   9.837 -1.1243  0.0707  0.3774
32324SOL    HW2 5941   3.044   2.347   9.867 -0.5546  0.2364 -0.2048
32325SOL     OW 5942   7.430  12.468   8.236  0.6463  0.1840 -0.2507
32325SOL    HW1 5943   7.517  12.457   8.274 -0.2885 -1.0107  1.6925
32325SOL    HW2 5944   7.416  12.563   8.236  1.3245  0.3060  0.9521
32326SOL     OW 5945   8.418   0.237   4.263 -0.2172 -0.4023 -0.0878
32326SOL    HW1 5946   8.409   0.324   4.225 -2.2743 -1.7630 -3.0894
32326SOL    HW2 5947   8.373   0.243   4.347 -2.7621  0.8371 -1.4337
32327SOL     OW 5948   9.872  12.470   1.746  0.1994 -0.1578  0.4459
32327SOL    HW1 5949   9.821  12.550   1.742  2.0119  1.0319 -0.6149
32327SOL    HW2 5950   9.859  12.437   1.835 -2.1216  0.2062  0.3036
32328SOL     OW 5951   3.626  12.324   2.459  0.2876  0.3828  0.3630
32328SOL    HW1 5952   3.565  12.371   2.403 -0.0435  0.2927  0.6423
32328SOL    HW2 5953   3.585  12.325   2.546 -0.2601 -1.3575  0.1648
32329SOL     OW 5954   4.239   1.708   2.606 -0.5110  0.0674 -0.6120
32329SOL    HW1 5955   4.146   1.731   2.612  0.0155  2.3053  0.5286
32329SOL    HW2 5956   4.263   1.728   2.516 -0.6863  1.7256 -0.3293
32330SOL     OW 5957   5.948   3.069   5.723  0.9004 -0.0107  0.2702
32330SOL    HW1 5958   6.010   3.067   5.650  0.1263 -0.2975 -0.3871
32330SOL    HW2 5959   5.952   3.159   5.755  0.7354  0.3129 -0.5810
32331SOL     OW 5960  11.745  12.576   5.894 -0.3725  0.1497 -0.0704
32331SOL    HW1 5961  11.785  12.663   5.889 -2.6457  1.2982  0.2903
32331SOL    HW2 5962  11.709  12.570   5.982  0.8420 -1.7207  0.3516
32332SOL     OW 5963   8.425   9.809   7.991 -0.1410  0.5441  0.1107
32332SOL    HW1 5964   8.476   9.764   7.924 -1.6136 -0.2909 -0.5030
32332SOL    HW2 5965   8.436   9.756   8.070 -1.4608 -0.6893 -0.4821
32333SOL     OW 5966  10.666   1.172   0.589 -0.0664  1.0893 -0.4402
32333SOL    HW1 5967  10.691   1.255   0.547 -1.6805  1.7804 -0.1022
32333SOL    HW2 5968  10.570   1.172   0.586 -0.1036 -1.2374 -1.3204
32334SOL     OW 5969   3.024   0.303  10.625  0.6540  0.4427 -0.3429
32334SOL    HW1 5970   3.093   0.237  10.624  1.0191  0.7761  0.9398
32334SOL    HW2 5971   3.024   0.340  10.537  1.5632 -0.1288 -0.5898
32335SOL     OW 5972   3.442   0.809   9.994 -0.0096 -0.1766 -0.0730
32335SOL    HW1 5973   3.378   0.742   9.969 -0.9942  0.2743  1.1391
32335SOL    HW2 5974   3.460   0.792  10.087  0.5845  0.5570 -0.0431
32336SOL     OW 5975   1.122  10.561  10.979 -0.1414  0.4197  0.0925
32336SOL    HW1 5976   1.200  10.540  10.927 -0.9413 -1.5395 -0.4057
32336SOL    HW2 5977   1.146  10.540  11.069 -0.1947 -0.5801 -0.1139
32337SOL     OW 5978   1.104   1.635   7.011 -0.5313  0.5790 -0.5472
32337SOL    HW1 5979   1.062   1.560   7.053  0.5465  0.4018  0.2348
32337SOL    HW2 5980   1.143   1.599   6.932  0.8141  0.0987  0.3149
32338SOL     OW 5981   4.268  10.778  11.899  0.0268  0.8354 -0.5389
32338SOL    HW1 5982   4.267  10.870  11.924 -0.8479  0.4122  1.1806
32338SOL    HW2 5983   4.315  10.734  11.970  0.4264 -0.0527 -1.3263
32339SOL     OW 5984  10.777   9.714  10.079  0.7403 -0.7804 -0.4457
32339SOL    HW1 5985  10.817   9.763  10.008 -0.2055  0.2506 -0.3051
32339SOL    HW2 5986  10.804   9.760  10.158 -1.5889  0.6852 -0.4079
32340SOL     OW 5987   4.836  10.197   6.628  0.5145  0.0934  0.2190
32340SOL    HW1 5988   4.869  10.193   6.538 -0.4351  0.5340 -0.1555
32340SOL    HW2 5989   4.894  10.259   6.672  1.8589 -1.1504  0.3125
32341SOL     OW 5990   3.468   5.082   3.439 -0.1787 -0.3036  0.1186
32341SOL    HW1 5991   3.487   5.066   3.347  0.1270 -0.3972  0.1987
32341SOL    HW2 5992   3.517   5.015   3.486  0.0133  0.0153  0.3750
32342SOL     OW 5993  12.428  11.423   5.909  0.0192 -0.0935  0.0702
32342SOL    HW1 5994  12.392  11.335   5.893 -0.8181  0.1278  0.6750
32342SOL    HW2 5995  12.373  11.459   5.978  0.0956  1.0823 -0.4699
32343SOL     OW 5996  10.520   0.833   2.502  0.2908 -0.2667  0.0323
32343SOL    HW1 5997  10.481   0.785   2.428 -2.6867 -2.1041  2.5148
32343SOL    HW2 5998  10.495   0.924   2.488 -0.7821 -0.6899 -0.9361
32344SOL     OW 5999   9.226  10.283   0.433 -0.3563  0.1119  0.0158
32344SOL    HW1 6000   9.250  10.339   0.359 -1.2871  0.7538  0.1861
32344SOL    HW2 6001   9.309  10.262   0.476  0.1055  0.4323 -0.7147
32345SOL     OW 6002   7.365   0.214  12.567 -0.1295 -0.0657 -0.0957
32345SOL    HW1 6003   7.339   0.302  12.541 -2.5152 -0.0538  1.8404
32345SOL    HW2 6004   7.282   0.169  12.584  1.0627 -1.7318  1.8168
32346SOL     OW 6005   8.778   4.823   0.462  0.3448 -0.6139 -0.0918
32346SOL    HW1 6006   8.716   4.872   0.408  0.5960  0.2624  0.3979
32346SOL    HW2 6007   8.727   4.794   0.537 -0.1025 -2.1707 -0.9499
32347SOL     OW 6008   0.595   0.932   4.099  0.1777  0.0075  0.0067
32347SOL    HW1 6009   0.630   0.942   4.010  1.1701  0.0399  0.3889
32347SOL    HW2 6010   0.669   0.953   4.156 -0.5261  0.2453  0.8428
32348SOL     OW 6011   3.005  12.024  10.764 -0.6895 -0.2572 -0.3757
32348SOL    HW1 6012   3.018  12.105  10.812 -1.4035  0.0288 -0.6578
32348SOL    HW2 6013   2.962  11.965  10.827  0.1728 -0.5528 -0.0522
32349SOL     OW 6014   8.284   0.161   1.291  0.1515 -0.0180 -0.1129
32349SOL    HW1 6015   8.298   0.077   1.247 -2.1895 -0.0209 -0.9803
32349SOL    HW2 6016   8.203   0.194   1.254  0.0623  1.7810  1.5462
32350SOL     OW 6017   8.487   6.325   5.759  0.0014 -0.0070  0.4659
32350SOL    HW1 6018   8.472   6.405   5.809  0.9557  1.0853 -0.9517
32350SOL    HW2 6019   8.571   6.292   5.792  0.4255  0.4874 -0.1066
32351SOL     OW 6020   8.755   3.220   1.376  0.4968  0.0548  0.8042
32351SOL    HW1 6021   8.766   3.127   1.398 -0.3539  0.3802  2.7351
32351SOL    HW2 6022   8.665   3.226   1.346  0.4806  0.3050  0.9072
32352SOL     OW 6023   1.160   6.533  10.786 -0.4671  0.6352 -0.0503
32352SOL    HW1 6024   1.128   6.447  10.812 -2.4592  1.3553  0.0413
32352SOL    HW2 6025   1.155   6.532  10.690 -0.6927  0.7233 -0.0393
32353SOL     OW 6026   5.587   0.434  10.973  0.1943  0.8425 -0.0941
32353SOL    HW1 6027   5.544   0.348  10.968 -0.1289  1.0149 -0.3429
32353SOL    HW2 6028   5.527   0.488  11.024  0.7008  0.7463  0.6152
32354SOL     OW 6029   2.260  11.943   8.971  0.2889  0.5245  0.1153
32354SOL    HW1 6030   2.258  11.883   9.046  0.9184  1.2139  0.7072
32354SOL    HW2 6031   2.319  11.901   8.909  0.6855  0.5026  0.5019
32355SOL     OW 6032   1.926   3.259   1.345  0.0123  0.0338 -0.0878
32355SOL    HW1 6033   1.941   3.210   1.265 -0.0814 -0.9737  0.4963
32355SOL    HW2 6034   2.010   3.259   1.390 -0.5635 -1.8740  1.1325
32356SOL     OW 6035   1.248  10.615   4.186  0.8978 -0.0876 -0.0706
32356SOL    HW1 6036   1.256  10.685   4.250 -2.2974 -0.6662  1.1791
32356SOL    HW2 6037   1.208  10.542   4.235  0.1024 -1.2337 -2.2716
32357SOL     OW 6038   7.111   2.764  10.160  0.0444  0.6116 -0.4719
32357SOL    HW1 6039   7.205   2.761  10.176 -0.3551  2.0703  2.8315
32357SOL    HW2 6040   7.080   2.676  10.180  0.3813  0.8808  1.3973
32358SOL     OW 6041  11.237   4.401   1.748 -0.5054 -0.2742  0.0607
32358SOL    HW1 6042  11.181   4.384   1.672  0.2849 -0.7972 -0.4234
32358SOL    HW2 6043  11.283   4.482   1.727 -1.8291  0.7483  0.9243
32359SOL     OW 6044   5.251   6.737   3.002 -0.1979  0.9764 -0.0397
32359SOL    HW1 6045   5.168   6.738   2.955 -0.6765  0.4666  0.7694
32359SOL    HW2 6046   5.245   6.808   3.066 -0.7706 -0.1712  1.2445
32360SOL     OW 6047  12.329   7.728   1.877  0.0596  0.3526  0.5936
32360SOL    HW1 6048  12.258   7.781   1.913 -0.4644 -1.1883  1.9216
32360SOL    HW2 6049  12.405   7.748   1.931  0.7681  2.1687 -0.9642
32361SOL     OW 6050   6.589   7.776   6.659 -0.3802  0.2148 -0.4343
32361SOL    HW1 6051   6.633   7.860   6.670  0.5001 -0.0762 -1.5853
32361SOL    HW2 6052   6.600   7.755   6.566 -1.1877 -0.8461 -0.3079
32362SOL     OW 6053   6.829  12.203   7.759  0.4807  0.7888 -0.5722
32362SOL    HW1 6054   6.876  12.283   7.734  1.4803 -0.0254 -1.3963
32362SOL    HW2 6055   6.863  12.180   7.845 -0.3998  1.6720  0.0330
32363SOL     OW 6056  11.046   1.685   7.795  0.3044  0.1032 -0.0119
32363SOL    HW1 6057  11.081   1.720   7.877 -0.3660  1.5067 -0.3002
32363SOL    HW2 6058  10.968   1.636   7.821  1.7149 -1.9832  0.4910
32364SOL     OW 6059   6.156   0.871   5.693  0.2615 -0.2033  0.1475
32364SOL    HW1 6060   6.206   0.832   5.621 -0.3504  0.2089 -0.5029
32364SOL    HW2 6061   6.156   0.965   5.675 -0.8403 -0.2088  0.0788
32365SOL     OW 6062  12.225   1.548   1.519  0.0380  0.1338 -0.0454
32365SOL    HW1 6063  12.162   1.595   1.465 -0.2493 -1.2861 -0.9900
32365SOL    HW2 6064  12.283   1.505   1.457 -0.0043 -1.1584  0.7619
32366SOL     OW 6065   6.410   7.294  10.208 -0.0508  0.0626 -0.1723
32366SOL    HW1 6066   6.357   7.366  10.172  0.8339  0.1239 -1.3929
32366SOL    HW2 6067   6.448   7.331  10.288 -0.0917  0.7502 -0.4593
32367SOL     OW 6068   1.060   9.087  10.360 -0.4369  0.1386 -0.4915
32367SOL    HW1 6069   1.120   9.101  10.286 -1.1191  0.8097 -0.9347
32367SOL    HW2 6070   0.978   9.129  10.333 -0.5550  0.8459  0.8372
32368SOL     OW 6071   1.830   7.554   2.021  0.2179  0.1874 -0.1004
32368SOL    HW1 6072   1.761   7.583   1.961 -0.5721  0.2313  0.8171
32368SOL    HW2 6073   1.859   7.470   1.985 -0.2580  0.2018 -0.5311
32369SOL     OW 6074   0.201   3.750   3.437 -0.7590  0.2198 -0.3934
32369SOL    HW1 6075   0.291   3.779   3.425 -0.9865  1.3866  0.4885
32369SOL    HW2 6076   0.197   3.664   3.396  0.2182  1.0095 -2.2465
32370SOL     OW 6077  11.825   1.440   2.374  0.5011  0.2841  0.6674
32370SOL    HW1 6078  11.885   1.446   2.449  1.6370  0.9111 -0.2619
32370SOL    HW2 6079  11.804   1.531   2.354 -0.4885  0.0840  0.7442
32371SOL     OW 6080   6.090   7.351  10.208 -0.0653  0.2264 -0.5880
32371SOL    HW1 6081   6.060   7.290  10.140 -2.2317  2.5334 -1.8756
32371SOL    HW2 6082   6.152   7.408  10.163  0.3658  0.2505  0.0388
32372SOL     OW 6083   7.011   9.197   6.132  0.0529  0.0195  0.1953
32372SOL    HW1 6084   7.020   9.260   6.060  1.9785  0.5854  0.8673
32372SOL    HW2 6085   7.100   9.165   6.147 -0.2024  0.2432  2.6050
32373SOL     OW 6086   2.994  12.299  11.270 -0.4590  0.2994 -0.5881
32373SOL    HW1 6087   2.995  12.204  11.278  0.8244  0.3423  0.1259
32373SOL    HW2 6088   3.085  12.323  11.255 -0.8712  1.3757 -1.5237
32374SOL     OW 6089   0.619   9.183   6.918  0.0363 -0.1911 -0.1999
32374SOL    HW1 6090   0.609   9.254   6.982  2.1486 -0.5566  0.6300
32374SOL    HW2 6091   0.530   9.152   6.902 -0.7767  1.5739  0.6540
32375SOL     OW 6092   0.671   2.976   0.259 -0.2602 -0.5811  0.4218
32375SOL    HW1 6093   0.671   2.881   0.255  0.6473 -0.5579 -1.1979
32375SOL    HW2 6094   0.758   3.002   0.229 -0.5669  0.7543  0.6099
32376SOL     OW 6095  11.016   6.376  10.503  0.2776 -0.1467  0.2479
32376SOL    HW1 6096  10.992   6.298  10.453 -1.0953  0.0544  0.5600
32376SOL    HW2 6097  10.977   6.362  10.590  1.0157  0.3603  0.6712
32377SOL     OW 6098   1.765  10.786  10.517  0.3197 -0.5230  0.1062
32377SOL    HW1 6099   1.744  10.704  10.561  3.2134 -1.2508  0.3133
32377SOL    HW2 6100   1.778  10.762  10.426  0.9312 -0.2449  0.1193
32378SOL     OW 6101   8.025   4.836  12.165  0.0093 -0.1493 -0.1556
32378SOL    HW1 6102   8.006   4.743  12.178 -0.3691 -0.0126  0.2932
32378SOL    HW2 6103   8.119   4.844  12.182 -0.3807 -0.0454  2.2949
32379SOL     OW 6104  10.808   9.294   1.581 -0.7813 -0.3308  0.0046
32379SOL    HW1 6105  10.815   9.203   1.611  0.5556 -0.5101 -0.7487
32379SOL    HW2 6106  10.887   9.308   1.529 -2.4254  0.3006 -2.5039
32380SOL     OW 6107   6.074   2.781   1.941  0.0768 -0.7281 -0.4870
32380SOL    HW1 6108   6.026   2.738   2.012 -0.9071  1.2246  0.1073
32380SOL    HW2 6109   6.052   2.874   1.950  3.2323  0.1697 -0.7851
32381SOL     OW 6110   8.359   6.378   9.379 -0.1464  0.1468  0.1866
32381SOL    HW1 6111   8.308   6.458   9.371 -0.6883  0.0131  1.8947
32381SOL    HW2 6112   8.380   6.372   9.473 -2.0371 -2.8396  0.5510
32382SOL     OW 6113  12.016   3.463   2.912  0.3154  0.0961 -0.0650
32382SOL    HW1 6114  12.085   3.482   2.848  0.3965  1.4142  0.3681
32382SOL    HW2 6115  12.026   3.532   2.978 -2.8267  1.7435 -1.1243
32383SOL     OW 6116   3.964   3.812   7.126 -0.4481 -0.3960 -0.1457
32383SOL    HW1 6117   4.017   3.831   7.048  0.1987  0.6072  0.5080
32383SOL    HW2 6118   4.019   3.754   7.179  0.9436  2.1660  1.4409
32384SOL     OW 6119   7.397   4.904   3.343  0.2204 -0.5386  0.2943
32384SOL    HW1 6120   7.487   4.912   3.375  0.3442 -0.7839  0.0103
32384SOL    HW2 6121   7.377   4.811   3.351 -0.2616 -0.3742  1.0344
32385SOL     OW 6122   3.293   2.340  10.085 -0.9374  0.5408  0.1842
32385SOL    HW1 6123   3.229   2.391  10.035 -1.0127  0.5783  0.3197
32385SOL    HW2 6124   3.290   2.376  10.173  0.2958  1.5023 -0.1352
32386SOL     OW 6125   4.671   5.131   1.378 -0.0328 -0.0038  0.2521
32386SOL    HW1 6126   4.716   5.055   1.341 -1.5364 -1.1798  0.7054
32386SOL    HW2 6127   4.630   5.174   1.303  3.3060  2.2769 -0.4949
32387SOL     OW 6128   9.902  10.544   4.282  0.4282  0.9369  0.1095
32387SOL    HW1 6129   9.920  10.451   4.273 -2.0227  0.3687  0.3863
32387SOL    HW2 6130   9.942  10.569   4.366 -0.2532 -0.2703  0.8185
32388SOL     OW 6131   4.886   8.784   3.917 -0.2731  0.0043  0.3875
32388SOL    HW1 6132   4.839   8.866   3.930  0.5324  1.0638 -2.6138
32388SOL    HW2 6133   4.821   8.716   3.936 -1.3139  1.3020  1.7104
32389SOL     OW 6134   2.943   2.538   0.144  0.1078  0.4263 -0.2765
32389SOL    HW1 6135   2.874   2.473   0.154  1.4238 -0.7807  1.7497
32389SOL    HW2 6136   3.008   2.495   0.087  0.2836  0.5703 -0.1864
32390SOL     OW 6137  12.007   1.664   4.916  0.2133  0.5959  0.1344
32390SOL    HW1 6138  11.946   1.706   4.976 -0.9335 -0.2878 -0.3825
32390SOL    HW2 6139  12.075   1.627   4.972 -1.2440 -0.8808  0.9876
32391SOL     OW 6140   1.080  11.541  12.574  0.2866 -0.0649 -0.3210
32391SOL    HW1 6141   1.073  11.556  12.480  2.2750  2.8087 -0.1368
32391SOL    HW2 6142   0.996  11.571  12.610  0.6161  1.7432 -0.9665
32392SOL     OW 6143  10.297   1.069   3.259  0.4948  0.3890  0.8526
32392SOL    HW1 6144  10.274   1.138   3.197 -0.7695 -0.1676  0.6757
32392SOL    HW2 6145  10.347   1.006   3.207 -0.4018  0.0150  0.4154
32393SOL     OW 6146   2.466   6.575  10.564  0.1164  0.3784 -0.0087
32393SOL    HW1 6147   2.510   6.546  10.643  1.7370  0.7242 -0.7553
32393SOL    HW2 6148   2.387   6.620  10.595  0.6750  0.4204  1.3906
32394SOL     OW 6149   8.561   6.130   9.238  0.3531 -0.0872 -0.1936
32394SOL    HW1 6150   8.595   6.202   9.290  1.7388  0.7650 -2.1441
32394SOL    HW2 6151   8.587   6.051   9.285 -0.4529  0.6255  1.5403
32395SOL     OW 6152   1.277   2.936  11.641 -0.2632 -0.1945 -0.0163
32395SOL    HW1 6153   1.264   2.846  11.613  1.2262 -0.7522  0.9362
32395SOL    HW2 6154   1.368   2.956  11.616  0.1237  0.2946  1.6420
32396SOL     OW 6155   2.740  11.733   3.246 -0.5210  0.2622  0.2562
32396SOL    HW1 6156   2.744  11.676   3.322 -1.6285 -2.6205 -1.6732
32396SOL    HW2 6157   2.654  11.716   3.208 -0.2007  1.9627 -1.3805
32397SOL     OW 6158   6.048   7.206   0.196 -0.0674 -0.1885  0.1367
32397SOL    HW1 6159   6.094   7.236   0.274 -1.0059  2.2558 -0.1698
32397SOL    HW2 6160   5.966   7.169   0.229  0.2294 -0.6562  0.3769
32398SOL     OW 6161   9.668   6.634   2.000 -0.3540  0.8050  0.5356
32398SOL    HW1 6162   9.613   6.603   1.928 -0.0730 -2.7046  1.6474
32398SOL    HW2 6163   9.754   6.648   1.960 -0.6000  0.4786 -0.1164
32399SOL     OW 6164   9.530   0.533   3.248 -0.0325  0.1390  0.1221
32399SOL    HW1 6165   9.444   0.493   3.255 -0.4466  1.1806  1.7150
32399SOL    HW2 6166   9.576   0.482   3.181 -2.5724  0.9028 -2.3476
32400SOL     OW 6167   6.649   7.206   6.913  0.2167 -0.0974 -0.1749
32400SOL    HW1 6168   6.575   7.149   6.932  1.0725 -0.8473  1.0696
32400SOL    HW2 6169   6.620   7.293   6.939  0.2874 -0.6277  1.7809
32401SOL     OW 6170  11.796   6.840   1.049  0.0890 -0.2940  0.1924
32401SOL    HW1 6171  11.784   6.934   1.039 -0.7539 -0.3853  0.2597
32401SOL    HW2 6172  11.866   6.817   0.988 -0.3502  0.2247 -0.5072
32402SOL     OW 6173   1.117   2.706  11.648  0.0992  0.1463  0.5748
32402SOL    HW1 6174   1.070   2.692  11.731 -0.4716  0.9254  0.3909
32402SOL    HW2 6175   1.049   2.736  11.587  0.5547 -0.2406 -0.1260
32403SOL     OW 6176  11.615   1.885   0.259  0.1420 -0.3183  0.1690
32403SOL    HW1 6177  11.597   1.813   0.198 -3.8733 -0.6135  1.3837
32403SOL    HW2 6178  11.547   1.950   0.240  1.0149  1.2164  1.9520
32404SOL     OW 6179   2.441   2.176  12.088  0.0396  0.0574 -0.1709
32404SOL    HW1 6180   2.490   2.259  12.094 -0.9560  0.6705 -0.2442
32404SOL    HW2 6181   2.505   2.109  12.110  0.7246  0.8933  0.4652
32405SOL     OW 6182   0.539   8.680   9.136  0.1685 -0.4033 -0.1321
32405SOL    HW1 6183   0.570   8.688   9.227  0.0839 -0.7156 -0.0753
32405SOL    HW2 6184   0.611   8.713   9.083 -0.0506  0.4530  0.0803
32406SOL     OW 6185  11.567   6.571   7.640 -0.2321 -0.0773  0.1081
32406SOL    HW1 6186  11.641   6.631   7.651  0.7160 -0.8940 -1.4942
32406SOL    HW2 6187  11.578   6.535   7.552 -2.1037 -0.8317  0.1385
32407SOL     OW 6188  12.280   5.575   7.090 -0.3666  0.0971 -0.1837
32407SOL    HW1 6189  12.333   5.584   7.010 -0.8364  1.3935 -0.3685
32407SOL    HW2 6190  12.244   5.662   7.105 -1.4075 -0.4583  0.6750
32408SOL     OW 6191   6.715   1.858   1.431  0.2423  0.2161 -0.0000
32408SOL    HW1 6192   6.632   1.820   1.403  0.2471 -0.3731  0.7650
32408SOL    HW2 6193   6.755   1.791   1.485  2.2177 -0.3849 -2.0384
32409SOL     OW 6194   2.801  11.056  10.750  0.3741 -0.8910  0.0381
32409SOL    HW1 6195   2.834  11.072  10.662 -0.3898 -2.9273 -0.6714
32409SOL    HW2 6196   2.848  11.119  10.805  1.7094 -0.3512 -1.6383
32410SOL     OW 6197   7.401   6.813   0.729  0.4526 -0.2045  0.3259
32410SOL    HW1 6198   7.408   6.736   0.786 -0.1333  0.2772  1.0744
32410SOL    HW2 6199   7.479   6.865   0.749 -0.0163  0.2280  1.1291
32411SOL     OW 6200   7.987  12.165   1.283 -0.1173  0.0776 -0.6079
32411SOL    HW1 6201   7.981  12.185   1.377  0.7718  0.6139 -0.6520
32411SOL    HW2 6202   8.081  12.171   1.263  0.0293 -2.4055 -1.0322
32412SOL     OW 6203   7.513   9.816   6.870  0.2521  0.4501  0.7308
32412SOL    HW1 6204   7.468   9.751   6.817  0.8406 -1.7865  2.8053
32412SOL    HW2 6205   7.530   9.889   6.810  0.2487 -1.5919 -1.9210
32413SOL     OW 6206   0.766   9.005   6.473  0.3686  0.0293 -0.1618
32413SOL    HW1 6207   0.714   9.084   6.460  0.9677  0.3647 -0.5149
32413SOL    HW2 6208   0.799   8.983   6.386  0.0420 -0.7275 -0.1037
32414SOL     OW 6209  10.322   8.033   9.505  0.1059  0.0243  1.0071
32414SOL    HW1 6210  10.334   8.081   9.423  0.0567  0.7096  1.3958
32414SOL    HW2 6211  10.405   8.042   9.551  0.9396 -2.2423  0.0953
32415SOL     OW 6212   5.755  10.177   0.305  0.0114  0.3074  0.5109
32415SOL    HW1 6213   5.777  10.165   0.213 -0.0748  0.0040  0.5283
32415SOL    HW2 6214   5.659  10.175   0.308  0.0128  0.3418  0.6026
32416SOL     OW 6215   1.049   0.548   3.857 -0.2723  0.0970  0.4063
32416SOL    HW1 6216   0.986   0.543   3.930  0.2771  3.3228  1.2361
32416SOL    HW2 6217   1.000   0.590   3.787 -0.3659 -1.7189 -0.6796
32417SOL     OW 6218   8.234   0.850  11.656 -0.1254  0.1606 -0.4983
32417SOL    HW1 6219   8.198   0.819  11.573 -0.3406 -0.9439 -0.0082
32417SOL    HW2 6220   8.326   0.826  11.652 -0.4291 -1.1831  0.1565
32418SOL     OW 6221   6.516   4.439   8.772 -0.1077  0.6282  0.6107
32418SOL    HW1 6222   6.610   4.425   8.764 -0.5647 -1.7772 -2.4933
32418SOL    HW2 6223   6.493   4.491   8.695 -1.5816 -0.9785 -0.0978
32419SOL     OW 6224   5.764   2.698   3.948 -0.4965 -0.1001  0.2056
32419SOL    HW1 6225   5.720   2.631   4.000 -0.7250 -0.1355 -0.0348
32419SOL    HW2 6226   5.707   2.712   3.873  0.2908 -0.7137 -0.5249
32420SOL     OW 6227  10.145   7.126  10.080  0.1847  0.8106  1.0595
32420SOL    HW1 6228  10.081   7.057  10.094  1.4563 -0.7878 -0.4755
32420SOL    HW2 6229  10.222   7.098  10.129  0.3480  1.7483  1.3597
32421SOL     OW 6230   8.823   1.428   9.860 -0.1890 -0.5738  0.1840
32421SOL    HW1 6231   8.887   1.499   9.870 -0.5820 -0.0886 -0.6520
32421SOL    HW2 6232   8.851   1.381   9.781 -3.0959  2.1339 -2.7635
32422SOL     OW 6233  11.935   4.886   0.720 -0.9907 -0.3797 -0.1541
32422SOL    HW1 6234  12.005   4.822   0.718 -1.4715 -0.9406 -3.2597
32422SOL    HW2 6235  11.865   4.842   0.769 -0.0913 -0.7803  0.8208
32423SOL     OW 6236   1.035   3.670  12.088  0.0612  0.2150  0.1591
32423SOL    HW1 6237   1.043   3.645  11.996 -0.3559  2.5526 -0.5608
32423SOL    HW2 6238   1.008   3.589  12.132 -0.1544 -0.8525 -1.8210
32424SOL     OW 6239   1.726  11.372  10.872  0.1716 -0.0168 -0.5343
32424SOL    HW1 6240   1.778  11.430  10.927 -1.4398  2.4491 -1.4258
32424SOL    HW2 6241   1.712  11.422  10.792 -1.9178 -1.3582 -1.0772
32425SOL     OW 6242   6.726   6.689   0.035 -0.0878  0.6582  0.7017
32425SOL    HW1 6243   6.730   6.785   0.035 -0.2136  0.6634  0.6656
32425SOL    HW2 6244   6.761   6.664  -0.051  0.6263  0.6427  0.9837
32426SOL     OW 6245   9.537   6.142  12.541 -0.0191 -0.2687 -0.2934
32426SOL    HW1 6246   9.526   6.210  12.609 -0.8268 -0.7342  0.0486
32426SOL    HW2 6247   9.450   6.133  12.502 -0.1817 -1.8506  0.3784
32427SOL     OW 6248   2.100   4.988   2.745 -0.5635  0.2889 -0.0355
32427SOL    HW1 6249   2.052   4.905   2.751  0.8517 -0.5718 -0.1808
32427SOL    HW2 6250   2.174   4.977   2.805  1.4485  0.1521 -2.3783
32428SOL     OW 6251   1.198   5.288   0.567  0.5700 -0.8114  0.7488
32428SOL    HW1 6252   1.169   5.372   0.531 -0.1440 -1.0682  0.7076
32428SOL    HW2 6253   1.233   5.241   0.491 -0.7740 -1.2837  0.3950
32429SOL     OW 6254  12.348   1.659   9.509 -0.6567  0.9080 -0.3664
32429SOL    HW1 6255  12.366   1.745   9.470  0.8681  1.0709  0.5868
32429SOL    HW2 6256  12.379   1.596   9.445  3.3906  1.1717  0.9991
32430SOL     OW 6257   4.479   7.965   9.151 -0.4391  0.0114 -0.3664
32430SOL    HW1 6258   4.436   7.985   9.069 -1.0910  0.2202  0.0221
32430SOL    HW2 6259   4.453   7.875   9.171 -0.9100  0.2280  0.0006
32431SOL     OW 6260  10.526   6.177   8.914 -0.5368  0.0124 -0.1847
32431SOL    HW1 6261  10.582   6.167   8.991 -0.2186 -0.2304 -0.4462
32431SOL    HW2 6262  10.437   6.166   8.948 -0.4002 -0.0657  0.1557
32432SOL     OW 6263   6.793   4.209   5.206  0.3402  0.0252  0.2115
32432SOL    HW1 6264   6.801   4.126   5.253 -0.8258 -1.0287 -1.3451
32432SOL    HW2 6265   6.734   4.262   5.261 -0.7566 -1.0616  0.1308
32433SOL     OW 6266   2.034   2.564   6.015  0.4084 -0.3977  0.0801
32433SOL    HW1 6267   1.964   2.558   5.950  0.5666  1.0823 -0.2564
32433SOL    HW2 6268   1.988   2.567   6.099 -0.2457  3.6067 -0.2292
32434SOL     OW 6269   9.902   5.272   6.548 -0.7205  0.1296 -0.2145
32434SOL    HW1 6270   9.896   5.201   6.612  1.1965  0.9541  0.9555
32434SOL    HW2 6271   9.971   5.246   6.488 -0.7410  0.5255 -0.4148
32435SOL     OW 6272  12.276   9.309   3.092 -0.1189 -0.2317  0.1435
32435SOL    HW1 6273  12.313   9.360   3.164 -0.2554 -0.5003  0.4057
32435SOL    HW2 6274  12.235   9.234   3.134 -1.8316  0.5612 -0.0411
32436SOL     OW 6275   2.140   2.055   8.863  0.0133  0.1854 -0.0111
32436SOL    HW1 6276   2.113   2.000   8.937 -0.7229 -0.4377 -0.7119
32436SOL    HW2 6277   2.076   2.035   8.795  3.6892 -3.6134 -2.8592
32437SOL     OW 6278   3.317  10.930   6.070  0.0566 -0.2098  0.2270
32437SOL    HW1 6279   3.222  10.932   6.086 -0.1603  0.6164 -1.0556
32437SOL    HW2 6280   3.349  10.864   6.132 -1.6895 -2.3385 -0.9705
32438SOL     OW 6281  10.490   4.712   3.216  0.1283 -0.6238 -0.1492
32438SOL    HW1 6282  10.516   4.728   3.307 -0.4081  0.9679 -0.2339
32438SOL    HW2 6283  10.397   4.733   3.213  0.5944  1.6306 -1.5042
32439SOL     OW 6284  10.133  10.553   5.530  0.1539 -0.0718  0.2727
32439SOL    HW1 6285  10.183  10.471   5.538 -0.8767 -0.7061  0.4065
32439SOL    HW2 6286  10.049  10.533   5.571  0.0303  1.1903  0.6681
32440SOL     OW 6287   4.894  10.943  11.624  0.5993  0.5447  0.5566
32440SOL    HW1 6288   4.885  10.973  11.715  0.3051  0.0954  0.6786
32440SOL    HW2 6289   4.823  10.987  11.578  1.9443  2.3703  0.1115
32441SOL     OW 6290   1.793  12.394  11.291 -0.4659  0.1911 -0.2621
32441SOL    HW1 6291   1.819  12.363  11.205 -1.2608  3.4806 -1.8591
32441SOL    HW2 6292   1.845  12.342  11.352  1.1891 -1.3027 -2.7597
32442SOL     OW 6293   6.769   3.343   2.123  0.4591  0.3861 -0.1475
32442SOL    HW1 6294   6.754   3.348   2.029  2.5300 -2.6316 -0.7840
32442SOL    HW2 6295   6.823   3.420   2.143 -0.6143  1.4607 -1.2283
32443SOL     OW 6296   1.565   5.594   9.234 -0.1465  0.0628  0.0297
32443SOL    HW1 6297   1.607   5.521   9.189  2.2739  0.9679  0.6399
32443SOL    HW2 6298   1.494   5.555   9.284  0.2505 -1.6501 -0.6804
32444SOL     OW 6299   2.239   9.882   6.548 -0.5445  0.1864  0.2438
32444SOL    HW1 6300   2.147   9.909   6.544 -0.2353  1.1436 -0.8527
32444SOL    HW2 6301   2.286   9.963   6.571  0.2155  0.1549 -1.1441
32445SOL     OW 6302   3.250   8.669   4.499 -0.7886  0.0902 -0.6768
32445SOL    HW1 6303   3.248   8.583   4.458 -2.6790 -0.4895  0.5101
32445SOL    HW2 6304   3.169   8.675   4.548  0.2650  1.7071  1.0361
32446SOL     OW 6305   1.652   0.848   7.540 -0.4663 -0.3207 -0.0514
32446SOL    HW1 6306   1.697   0.805   7.467 -0.3862 -1.7944  0.8117
32446SOL    HW2 6307   1.709   0.832   7.615 -2.2897 -2.1619  1.0614
32447SOL     OW 6308   9.284   3.568   0.798 -0.5196 -0.0285  0.4032
32447SOL    HW1 6309   9.244   3.513   0.865 -0.8550  1.0154  1.0894
32447SOL    HW2 6310   9.210   3.610   0.754 -0.2877 -0.4802 -0.4387
32448SOL     OW 6311   5.913   7.199  10.491  0.3467 -0.5234  0.3938
32448SOL    HW1 6312   5.878   7.255  10.560 -0.8207  1.4841 -1.6848
32448SOL    HW2 6313   6.006   7.221  10.487  0.3814 -0.5018  1.1553
32449SOL     OW 6314   7.534   7.025   0.122 -0.0045  0.3674 -0.5133
32449SOL    HW1 6315   7.501   7.022   0.212 -0.4027  0.6667 -0.6458
32449SOL    HW2 6316   7.591   7.102   0.120  0.1107  0.2829 -0.4809
32450SOL     OW 6317   2.224   9.475   2.847 -0.0381 -0.1368  0.5710
32450SOL    HW1 6318   2.216   9.533   2.771  1.5921  0.5221  0.8692
32450SOL    HW2 6319   2.193   9.390   2.815 -0.0429  0.2937 -0.6252
32451SOL     OW 6320   5.710  11.038   3.144 -0.0508  0.1527  0.1666
32451SOL    HW1 6321   5.653  11.024   3.068  1.0906  1.2633 -0.9396
32451SOL    HW2 6322   5.674  11.117   3.186  1.0885  1.3633 -1.0176
32452SOL     OW 6323   6.995   2.727   5.777 -0.0036  0.1446  0.2632
32452SOL    HW1 6324   6.926   2.701   5.837  0.7485  1.2726  1.6711
32452SOL    HW2 6325   7.065   2.663   5.792 -0.5896 -0.8423 -0.9776
32453SOL     OW 6326   2.672  10.070  10.081  0.2594 -0.1732  0.0071
32453SOL    HW1 6327   2.609  10.111  10.022  1.1491 -1.2840 -1.7953
32453SOL    HW2 6328   2.695   9.988  10.038  1.4132 -0.7503  1.6290
32454SOL     OW 6329   1.111   5.055   0.704  0.1932  0.1093  0.0251
32454SOL    HW1 6330   1.020   5.033   0.683  0.8811 -2.3469 -0.6811
32454SOL    HW2 6331   1.130   5.130   0.648 -0.5774 -1.1414 -2.0310
32455SOL     OW 6332   4.932   9.641   0.808 -0.4831  0.2256  0.0397
32455SOL    HW1 6333   4.904   9.725   0.772  0.5210  0.3384 -0.5342
32455SOL    HW2 6334   5.018   9.658   0.845  0.3463 -0.8091 -1.2746
32456SOL     OW 6335   7.318   6.580  12.440 -0.3483  0.0985  0.0956
32456SOL    HW1 6336   7.300   6.487  12.427  1.2855 -0.4495  1.4911
32456SOL    HW2 6337   7.333   6.589  12.534  2.8667  1.1105 -0.4012
32457SOL     OW 6338   7.513   4.174   6.488 -0.6082 -0.1422  0.6176
32457SOL    HW1 6339   7.551   4.089   6.511 -0.9279 -0.7488 -0.9572
32457SOL    HW2 6340   7.569   4.206   6.417 -0.2006  1.2086  1.5141
32458SOL     OW 6341  12.425   9.058   4.703 -0.0576  0.5122  0.0479
32458SOL    HW1 6342  12.461   9.131   4.753  1.3148 -0.7109  0.9581
32458SOL    HW2 6343  12.468   8.980   4.741 -0.4735 -0.6455 -1.7376
32459SOL     OW 6344   8.135   6.006  10.452  0.5734 -0.5030 -0.2865
32459SOL    HW1 6345   8.123   6.047  10.366  0.7692 -0.2448 -0.1877
32459SOL    HW2 6346   8.229   5.999  10.463  0.5741 -2.7003 -1.1314
32460SOL     OW 6347   2.321   6.687   5.575  0.0250 -0.5379  0.2878
32460SOL    HW1 6348   2.371   6.624   5.523  0.5525  0.4513 -0.4480
32460SOL    HW2 6349   2.290   6.751   5.512  0.2655  0.4357  1.1224
32461SOL     OW 6350   5.072   0.147   8.923  0.2515  0.0766 -0.4917
32461SOL    HW1 6351   4.979   0.139   8.941 -0.0295  0.9838 -1.4455
32461SOL    HW2 6352   5.080   0.127   8.830  1.3638 -2.4225  0.0596
32462SOL     OW 6353   9.810   6.328   8.082 -0.1488 -0.0572  0.0742
32462SOL    HW1 6354   9.904   6.323   8.068 -0.4866 -0.4431 -2.7285
32462SOL    HW2 6355   9.785   6.241   8.113  0.3083 -0.2182 -0.0084
32463SOL     OW 6356  11.795  12.463  10.550 -0.8415  0.4485 -0.3308
32463SOL    HW1 6357  11.859  12.523  10.589 -0.6344  1.1496 -1.6999
32463SOL    HW2 6358  11.723  12.519  10.522 -0.9981 -0.0399 -0.9278
32464SOL     OW 6359   3.353   9.888   2.618  0.4862  0.0736 -0.5248
32464SOL    HW1 6360   3.366   9.815   2.558  3.2086  1.1171 -1.3906
32464SOL    HW2 6361   3.320   9.959   2.563  4.1306  1.4173 -1.3141
32465SOL     OW 6362   8.837   5.385   3.762  0.9589  0.2357 -0.2957
32465SOL    HW1 6363   8.777   5.313   3.782  2.2665 -0.8806 -0.2373
32465SOL    HW2 6364   8.796   5.430   3.688 -0.0499 -0.3542 -0.1178
32466SOL     OW 6365   0.458   7.198   9.823 -0.0695 -0.0466 -0.0458
32466SOL    HW1 6366   0.434   7.261   9.756  0.5826 -0.1958 -0.4264
32466SOL    HW2 6367   0.464   7.114   9.777 -0.5727 -0.3265  0.3835
32467SOL     OW 6368   3.684   9.662   4.842  0.3749  0.1436  0.4573
32467SOL    HW1 6369   3.739   9.640   4.917  0.9846 -0.9503 -0.2974
32467SOL    HW2 6370   3.729   9.625   4.767 -1.1582 -0.3846 -0.2402
32468SOL     OW 6371   0.675   6.606  10.322  0.0442 -0.0072 -0.1615
32468SOL    HW1 6372   0.753   6.553  10.305  1.0263  1.0596  0.8535
32468SOL    HW2 6373   0.638   6.623  10.236  0.9425 -0.5146 -0.6660
32469SOL     OW 6374   3.466  12.368   5.337  0.1345 -0.0106  0.4937
32469SOL    HW1 6375   3.441  12.446   5.387 -0.3657 -1.2295  2.2525
32469SOL    HW2 6376   3.400  12.302   5.361  1.2760 -1.3611  0.0574
32470SOL     OW 6377  12.325   9.623   2.107 -0.2712  0.3585 -0.5791
32470SOL    HW1 6378  12.396   9.686   2.094  1.8988 -1.6460  0.8594
32470SOL    HW2 6379  12.288   9.645   2.193 -0.7717  0.7810 -0.8935
32471SOL     OW 6380   1.995   8.370  10.470 -0.7038 -0.0745  0.2139
32471SOL    HW1 6381   1.950   8.454  10.484  1.4674  1.3676 -0.8505
32471SOL    HW2 6382   2.017   8.370  10.377 -1.6247 -2.4177 -0.0625
32472SOL     OW 6383   1.459  10.295  12.549 -0.0931 -0.3236 -0.1214
32472SOL    HW1 6384   1.478  10.377  12.503 -0.1809  0.1531  0.6798
32472SOL    HW2 6385   1.544  10.250  12.553  0.3317  0.5553  1.0297
32473SOL     OW 6386   5.674  10.142  10.671  0.4743  0.1946 -0.2301
32473SOL    HW1 6387   5.614  10.069  10.686 -0.1102  0.0317 -2.8462
32473SOL    HW2 6388   5.638  10.213  10.724 -0.7476 -0.5336 -0.0203
32474SOL     OW 6389   8.328   9.409   3.613 -0.8379  0.5178  0.0919
32474SOL    HW1 6390   8.355   9.475   3.548  1.8262 -1.0311 -0.5431
32474SOL    HW2 6391   8.261   9.358   3.568  0.0526  0.2673 -1.0085
32475SOL     OW 6392   2.039   3.497   4.334  0.2565  0.0921  0.9901
32475SOL    HW1 6393   2.095   3.574   4.320  1.3596 -0.5258  1.8873
32475SOL    HW2 6394   1.965   3.511   4.274  2.2573  0.0318 -1.6921
32476SOL     OW 6395   6.854   9.440   3.951  0.1869 -0.1300  0.1167
32476SOL    HW1 6396   6.769   9.479   3.973 -0.1601 -0.7111 -0.1899
32476SOL    HW2 6397   6.861   9.449   3.856 -0.2528 -1.5284 -0.0615
32477SOL     OW 6398   2.845   0.583  10.903  0.0802 -0.1336  0.4236
32477SOL    HW1 6399   2.798   0.553  10.982  0.1333  0.6265  0.7541
32477SOL    HW2 6400   2.816   0.523  10.834  0.5617 -1.2451  1.1650
32478SOL     OW 6401   6.332  12.477   4.077  0.1677 -0.1834  0.4846
32478SOL    HW1 6402   6.291  12.494   4.162  0.7981 -0.4007  0.8390
32478SOL    HW2 6403   6.389  12.402   4.092  0.2268 -0.2727 -0.1500
32479SOL     OW 6404   7.072  12.254   8.091  0.0392 -0.2738 -0.0074
32479SOL    HW1 6405   7.140  12.289   8.034 -0.2230 -0.7772 -0.6422
32479SOL    HW2 6406   7.119  12.197   8.151  0.1995 -0.5317 -0.3733
32480SOL     OW 6407   8.078   4.284   7.442  0.2810 -0.1652  0.4453
32480SOL    HW1 6408   8.160   4.234   7.436  0.2422 -0.1225 -0.5446
32480SOL    HW2 6409   8.093   4.345   7.514  1.7288  0.9083 -0.6940
32481SOL     OW 6410  12.406   0.900   6.742  0.4142  0.4507 -0.3834
32481SOL    HW1 6411  12.415   0.831   6.676 -1.9683 -0.0127 -0.3313
32481SOL    HW2 6412  12.480   0.887   6.801  1.0777 -0.8514 -1.4565
32482SOL     OW 6413   0.951   8.241   5.127 -0.1008  0.9688  0.0410
32482SOL    HW1 6414   0.924   8.280   5.210 -0.6866  0.9074 -0.1215
32482SOL    HW2 6415   1.044   8.220   5.140 -0.0520  1.4343  0.4972
32483SOL     OW 6416   8.048   6.468   1.071 -0.4859  0.4142  0.4529
32483SOL    HW1 6417   8.009   6.488   0.986  0.1431 -0.8632 -0.1643
32483SOL    HW2 6418   8.086   6.551   1.101 -0.5009  0.8215 -0.6269
32484SOL     OW 6419   1.488  10.824   3.481  0.6621  0.5032 -0.0842
32484SOL    HW1 6420   1.477  10.729   3.484  0.6293  0.5265  0.5861
32484SOL    HW2 6421   1.447  10.856   3.561  0.7002  1.0811 -0.2919
32485SOL     OW 6422   7.445   2.045   5.763  0.4105 -0.1820  0.4371
32485SOL    HW1 6423   7.470   1.955   5.783  1.2559 -0.1076 -0.2320
32485SOL    HW2 6424   7.495   2.098   5.825  1.1693 -0.0909 -0.2369
32486SOL     OW 6425   1.237   5.959   2.956 -0.1687  0.4065  0.5430
32486SOL    HW1 6426   1.295   5.942   2.882 -0.9393 -2.5426  0.4529
32486SOL    HW2 6427   1.176   6.026   2.925  0.7255  0.6353 -0.7839
32487SOL     OW 6428   7.697   6.614   7.523  0.2722  0.2097 -0.2345
32487SOL    HW1 6429   7.754   6.619   7.447 -0.2167  0.1601 -0.6134
32487SOL    HW2 6430   7.609   6.606   7.486 -0.0103  0.6201  0.3387
32488SOL     OW 6431  12.549   7.576   5.889 -0.1656 -0.2448 -0.1516
32488SOL    HW1 6432  12.473   7.532   5.852 -0.0894 -1.8537  1.4281
32488SOL    HW2 6433  12.617   7.508   5.892  0.2924  0.2331  1.4235
32489SOL     OW 6434   0.861  10.203   2.035 -0.4016  0.0994 -0.3974
32489SOL    HW1 6435   0.844  10.135   2.099  0.0630  0.7511  0.4377
32489SOL    HW2 6436   0.957  10.212   2.034 -0.4895  1.1592 -0.0422
32490SOL     OW 6437   0.564   9.196   5.080  1.0348 -0.1783  0.8063
32490SOL    HW1 6438   0.555   9.263   5.012  1.2183 -0.1997  0.7586
32490SOL    HW2 6439   0.656   9.169   5.074  1.0401 -0.2075  1.0380
32491SOL     OW 6440   5.210   0.749   3.777 -0.1261  0.5239  0.1421
32491SOL    HW1 6441   5.183   0.724   3.689 -2.2661  0.8898  0.6339
32491SOL    HW2 6442   5.154   0.698   3.835  2.1945 -0.7948  1.3945
32492SOL     OW 6443   4.320   6.831   1.126 -0.0854 -0.1684  0.4406
32492SOL    HW1 6444   4.345   6.875   1.044 -0.2819 -0.1872  0.3697
32492SOL    HW2 6445   4.252   6.769   1.100  0.2487 -0.5772  0.5272
32493SOL     OW 6446   6.131   3.616   5.875 -0.0519 -0.3288 -0.4208
32493SOL    HW1 6447   6.085   3.612   5.791  0.4787  0.0666 -0.7437
32493SOL    HW2 6448   6.077   3.672   5.930  0.2151  0.4250 -0.9135
32494SOL     OW 6449   6.050  10.469   3.181 -0.0442  0.5521  0.2223
32494SOL    HW1 6450   6.140  10.502   3.185 -0.3662  1.3866  0.8105
32494SOL    HW2 6451   6.055  10.383   3.222  0.1309  1.4343  2.1829
32495SOL     OW 6452   3.246  10.811   1.496  0.6046  0.4381  0.0856
32495SOL    HW1 6453   3.211  10.782   1.580 -0.3005  1.1493 -0.0268
32495SOL    HW2 6454   3.330  10.853   1.518 -0.4663  2.2780  0.9192
32496SOL     OW 6455   3.263  12.438   9.597  0.3617  0.4871 -0.3980
32496SOL    HW1 6456   3.194  12.416   9.535 -0.2798 -0.9457  0.7368
32496SOL    HW2 6457   3.318  12.501   9.552 -0.4247 -0.0400 -2.1643
32497SOL     OW 6458   8.904   2.061  10.318 -0.0865 -0.2656 -0.4099
32497SOL    HW1 6459   8.812   2.083  10.336 -1.0272 -3.5119 -0.6030
32497SOL    HW2 6460   8.902   2.017  10.234  1.9162  0.7139 -1.0325
32498SOL     OW 6461   0.217   6.148  11.787 -0.3126  0.8333 -0.1412
32498SOL    HW1 6462   0.243   6.130  11.878  0.4008  0.4048 -0.4220
32498SOL    HW2 6463   0.121   6.141  11.788 -0.2413 -0.2420  0.3582
32499SOL     OW 6464   5.466   6.395   7.640 -0.0546  0.2428  0.1023
32499SOL    HW1 6465   5.513   6.316   7.610 -1.1610 -0.4966  0.2418
32499SOL    HW2 6466   5.480   6.459   7.570  0.1795 -0.3493 -0.4063
32500SOL     OW 6467  12.334   0.321   3.892 -0.1846 -0.2162 -0.5224
32500SOL    HW1 6468  12.261   0.348   3.836 -0.4598  1.9039  0.7689
32500SOL    HW2 6469  12.294   0.305   3.977  0.5975 -0.9333 -0.2758
32501SOL     OW 6470   3.428   1.108   0.624 -0.8028 -0.4271 -0.9853
32501SOL    HW1 6471   3.349   1.066   0.590 -0.9689 -0.7204 -0.2428
32501SOL    HW2 6472   3.407   1.201   0.623 -0.8908 -0.4455 -1.4609
32502SOL     OW 6473   1.145  11.409  12.046  0.0210  0.1456  0.7341
32502SOL    HW1 6474   1.094  11.380  11.970  0.5074  0.2566  0.3550
32502SOL    HW2 6475   1.122  11.347  12.115  0.5070 -0.7228  0.1453
32503SOL     OW 6476   2.321   0.944  12.201 -0.5095 -0.1258 -0.2121
32503SOL    HW1 6477   2.355   0.992  12.125 -0.5181  1.7296  0.8911
32503SOL    HW2 6478   2.230   0.925  12.179 -0.8617  1.4704 -0.2084
32504SOL     OW 6479   6.299   4.572   0.739 -0.1608  0.2969  0.1570
32504SOL    HW1 6480   6.387   4.536   0.751 -0.6365 -0.7099  0.7882
32504SOL    HW2 6481   6.313   4.660   0.703  1.1027  0.2318  0.4573
32505SOL     OW 6482  12.273   9.852   5.102  0.2932 -0.4781 -0.4843
32505SOL    HW1 6483  12.247   9.923   5.161  0.8458 -1.0560  0.4741
32505SOL    HW2 6484  12.196   9.838   5.046 -1.1232 -1.4234  1.5785
32506SOL     OW 6485  10.272   0.998  12.313  0.4849  0.7414 -0.0442
32506SOL    HW1 6486  10.263   1.052  12.234  0.0413 -1.0287 -1.2594
32506SOL    HW2 6487  10.268   0.908  12.281  0.1183 -0.0340  2.0377
32507SOL     OW 6488   1.942  11.070  11.054 -0.0800 -0.2990  0.0216
32507SOL    HW1 6489   2.004  11.014  11.100 -0.5604  0.3166  1.4990
32507SOL    HW2 6490   1.856  11.039  11.083 -0.3554  0.9734  0.6543
32508SOL     OW 6491   8.984   3.652  10.107  0.1523 -0.4567  0.6612
32508SOL    HW1 6492   9.023   3.653  10.019 -0.8172  0.6409  0.2121
32508SOL    HW2 6493   8.921   3.581  10.104 -1.0087  0.5548 -0.0905
32509SOL     OW 6494   9.509   1.065   2.756  0.4479  0.4570  0.7899
32509SOL    HW1 6495   9.579   1.032   2.700 -0.0742  2.6839 -1.3644
32509SOL    HW2 6496   9.554   1.113   2.825  1.0785  0.4751  0.3776
32510SOL     OW 6497   5.373  10.861   0.350  0.0811  0.0956 -0.0820
32510SOL    HW1 6498   5.322  10.833   0.275 -1.0545  1.0971  0.2923
32510SOL    HW2 6499   5.437  10.922   0.314 -0.3098  0.3968 -0.2671
32511SOL     OW 6500   3.908   0.890   0.666 -0.0103 -0.5090 -0.5228
32511SOL    HW1 6501   3.919   0.924   0.577 -0.0196  0.6938 -0.0883
32511SOL    HW2 6502   3.844   0.950   0.706  1.7040  0.3718  1.0102
32512SOL     OW 6503   4.850   3.024   9.899 -0.3679  0.0339 -0.9763
32512SOL    HW1 6504   4.858   2.947   9.955 -0.4426  1.3058  0.8405
32512SOL    HW2 6505   4.899   3.000   9.820  0.7922 -1.3629  0.0892
32513SOL     OW 6506   8.997   2.948   8.261 -0.2858 -0.3612  0.4218
32513SOL    HW1 6507   9.063   2.983   8.202 -0.1351 -1.9154 -0.3922
32513SOL    HW2 6508   8.914   2.980   8.227  0.0143  2.3832  1.9940
32514SOL     OW 6509  11.577   8.004   8.106  0.3880 -0.5792 -0.0191
32514SOL    HW1 6510  11.485   7.976   8.112 -0.0569  0.5898 -0.9732
32514SOL    HW2 6511  11.602   7.985   8.016 -0.1199  2.4716 -0.8979
32515SOL     OW 6512  12.012   1.008   7.622 -0.3777  0.3560  0.1351
32515SOL    HW1 6513  12.106   0.993   7.626 -0.3394  0.6050  0.1931
32515SOL    HW2 6514  12.002   1.103   7.625 -0.6136  0.3447 -0.2255
32516SOL     OW 6515   3.645   1.206   2.864 -0.5875 -0.5646  0.8008
32516SOL    HW1 6516   3.688   1.234   2.945  0.3517  0.9286 -0.1523
32516SOL    HW2 6517   3.709   1.225   2.795 -1.3559 -1.7973 -0.3104
32517SOL     OW 6518   9.132   6.945  12.109  0.1769 -0.4912 -0.2110
32517SOL    HW1 6519   9.147   6.851  12.118  1.1526 -0.6093 -2.4420
32517SOL    HW2 6520   9.192   6.985  12.172  2.1794 -1.3262 -1.4775
32518SOL     OW 6521   9.482   6.829   4.645  1.1082  0.5086 -0.1751
32518SOL    HW1 6522   9.420   6.822   4.573 -1.3030  0.3371  1.7995
32518SOL    HW2 6523   9.468   6.917   4.680 -1.6316 -1.0413  3.2145
32519SOL     OW 6524   8.439  10.967   9.551  0.1959 -0.5945  0.0382
32519SOL    HW1 6525   8.491  11.047   9.555  1.1762 -1.2490  1.1232
32519SOL    HW2 6526   8.487  10.910   9.490 -0.5665 -0.3301 -0.8343
32520SOL     OW 6527   5.394   2.695  11.857  0.5725 -0.0311  0.3255
32520SOL    HW1 6528   5.475   2.657  11.890  0.5336 -0.2960  0.1116
32520SOL    HW2 6529   5.344   2.716  11.936 -0.8735 -3.5072  0.4972
32521SOL     OW 6530   2.996   5.037   5.029  0.2766 -0.7206 -0.2664
32521SOL    HW1 6531   2.923   5.051   5.089 -0.0355 -0.1762 -0.7582
32521SOL    HW2 6532   2.983   4.948   4.996  0.3103 -0.9293  0.2813
32522SOL     OW 6533   3.081   9.642  11.400  0.3920 -0.2936  0.1608
32522SOL    HW1 6534   3.056   9.567  11.347  1.7443 -0.5084 -0.2098
32522SOL    HW2 6535   3.146   9.608  11.462  1.2249  0.5916 -0.1909
32523SOL     OW 6536   9.346  10.491  12.117  0.4351 -0.1024  0.6952
32523SOL    HW1 6537   9.270  10.455  12.072 -0.7458  1.3622  1.4375
32523SOL    HW2 6538   9.387  10.549  12.053 -0.0685  0.4112  0.8302
32524SOL     OW 6539   2.027   9.359   3.038 -0.3660 -0.2001  0.1830
32524SOL    HW1 6540   2.026   9.355   2.942 -2.4169  0.5263  0.1269
32524SOL    HW2 6541   1.994   9.273   3.066 -1.3755  0.1672  0.1665
32525SOL     OW 6542   9.152   7.156   2.359  0.7073  0.0289  0.6204
32525SOL    HW1 6543   9.198   7.079   2.393  2.0986  1.1893  1.5290
32525SOL    HW2 6544   9.193   7.173   2.274 -0.6234 -1.0499 -0.2829
32526SOL     OW 6545   2.107   7.060   7.132 -0.3451 -0.3109  0.0077
32526SOL    HW1 6546   2.048   6.985   7.145  0.6247 -1.3586 -1.2877
32526SOL    HW2 6547   2.192   7.020   7.115  0.3106  1.1197 -0.1947
32527SOL     OW 6548   0.198  11.783   7.541  0.0183  0.2287 -0.2854
32527SOL    HW1 6549   0.173  11.754   7.453  0.2166 -1.2092  0.0960
32527SOL    HW2 6550   0.117  11.815   7.580 -0.6348 -1.5320 -0.1202
32528SOL     OW 6551   3.626   5.021   5.439  0.3327 -0.0459 -0.1358
32528SOL    HW1 6552   3.587   4.936   5.416  1.2086 -0.7405  0.8763
32528SOL    HW2 6553   3.650   5.013   5.531  1.1317  1.0421 -0.2259
32529SOL     OW 6554  11.835   6.564   4.591  0.0902 -0.3093  0.0707
32529SOL    HW1 6555  11.930   6.565   4.577 -0.1292  1.2556 -1.7764
32529SOL    HW2 6556  11.814   6.650   4.626 -0.6071 -0.8246  0.9667
32530SOL     OW 6557   6.335   6.449   5.544  0.4337 -0.0981 -0.1255
32530SOL    HW1 6558   6.380   6.364   5.549  1.2416  0.3346  0.2309
32530SOL    HW2 6559   6.335   6.471   5.451  3.4071  1.1239  0.0554
32531SOL     OW 6560   0.216   8.217   1.674  0.1229 -0.1167  0.1867
32531SOL    HW1 6561   0.187   8.235   1.585  0.3985 -1.8790 -0.3065
32531SOL    HW2 6562   0.288   8.155   1.664 -0.7719 -1.4950  1.6764
32532SOL     OW 6563  10.353   9.014  10.438  0.4690  0.7982 -0.2904
32532SOL    HW1 6564  10.308   9.029  10.522  2.0502  1.2719  0.5011
32532SOL    HW2 6565  10.357   9.100  10.398  0.6939  0.7575 -0.3543
32533SOL     OW 6566  12.143   8.863   2.555  0.3925  0.0090 -0.0108
32533SOL    HW1 6567  12.150   8.957   2.573 -1.9536  0.2997 -0.2314
32533SOL    HW2 6568  12.068   8.834   2.607  0.8292 -1.6704 -0.2525
32534SOL     OW 6569   9.139  12.133   9.438  0.0383 -0.0839  0.0650
32534SOL    HW1 6570   9.099  12.219   9.448 -0.5578 -0.3669  0.1643
32534SOL    HW2 6571   9.067  12.076   9.411  0.5259 -0.4510 -0.4925
32535SOL     OW 6572  11.033   0.122   0.081 -0.1219  0.2951 -0.5203
32535SOL    HW1 6573  10.969   0.121   0.009 -2.8072  2.3466  1.5639
32535SOL    HW2 6574  11.038   0.032   0.111 -2.1718  0.0572 -0.7567
32536SOL     OW 6575  11.525  10.588   8.875  0.0850  0.4047 -0.7282
32536SOL    HW1 6576  11.573  10.590   8.791 -0.0877  1.5331 -0.8233
32536SOL    HW2 6577  11.528  10.497   8.902  0.8548  0.1592 -1.5660
32537SOL     OW 6578   5.116   9.620   0.524  0.3909 -0.0808  0.0441
32537SOL    HW1 6579   5.032   9.619   0.570 -0.0533 -0.1792 -0.7497
32537SOL    HW2 6580   5.138   9.713   0.516  1.8475 -0.0694  2.8445
32538SOL     OW 6581  11.162  12.119   3.312  0.7477 -0.1012  0.4056
32538SOL    HW1 6582  11.162  12.114   3.216  0.9463  1.9011  0.2552
32538SOL    HW2 6583  11.105  12.047   3.339  2.2347 -1.9748 -1.0883
32539SOL     OW 6584   6.377   5.237   9.091 -0.1505  0.1331 -0.7238
32539SOL    HW1 6585   6.361   5.177   9.018  2.1370  0.4499 -1.5738
32539SOL    HW2 6586   6.389   5.322   9.050  2.0088  0.1834 -0.1576
32540SOL     OW 6587   3.798   1.476   6.297  0.1983 -0.2571 -0.8576
32540SOL    HW1 6588   3.774   1.491   6.388 -2.5617 -2.0092 -1.2048
32540SOL    HW2 6589   3.814   1.564   6.262  0.9718  0.4689  1.1725
32541SOL     OW 6590   5.983   9.194  11.216 -0.2230  0.3001  0.1763
32541SOL    HW1 6591   5.906   9.163  11.168 -0.4932  2.3668 -0.8155
32541SOL    HW2 6592   6.052   9.132  11.192 -1.3238 -1.0168  0.3052
32542SOL     OW 6593  12.369  11.934  11.269  0.3276 -0.0655  1.2834
32542SOL    HW1 6594  12.456  11.970  11.286  0.8369 -1.1262  0.9921
32542SOL    HW2 6595  12.329  11.926  11.356  0.7400 -0.1212  1.4698
32543SOL     OW 6596  12.321   8.541   3.455 -0.1354 -0.0236  0.4491
32543SOL    HW1 6597  12.371   8.578   3.528  0.0092 -2.0060  1.4316
32543SOL    HW2 6598  12.383   8.485   3.409 -0.1426  1.4065 -1.4598
32544SOL     OW 6599   6.216  11.887   4.816 -0.2207  0.1208 -0.2804
32544SOL    HW1 6600   6.183  11.797   4.808  3.0725 -1.4831  1.6429
32544SOL    HW2 6601   6.305  11.883   4.782  0.6811  2.1534  1.5721
32545SOL     OW 6602   1.935   9.221   7.163 -0.4648 -0.0546 -0.2108
32545SOL    HW1 6603   1.865   9.160   7.189 -2.6308  2.5200  0.4189
32545SOL    HW2 6604   1.938   9.214   7.068 -2.5384  0.6501 -0.3910
32546SOL     OW 6605   2.187   9.872  11.254 -0.5375  0.2852 -0.0960
32546SOL    HW1 6606   2.125   9.871  11.327 -1.7361  0.6703 -1.0765
32546SOL    HW2 6607   2.232   9.788  11.261 -2.5588 -0.9113 -0.4735
32547SOL     OW 6608  11.869   2.531   2.322  0.4837 -0.4881 -0.0466
32547SOL    HW1 6609  11.936   2.586   2.281  0.6648 -1.1730 -0.6898
32547SOL    HW2 6610  11.821   2.591   2.379 -0.9905  0.9493 -2.6358
32548SOL     OW 6611   5.350   2.773   9.106  0.3371  0.1703 -0.4948
32548SOL    HW1 6612   5.429   2.826   9.106 -0.0293  0.7356  0.6017
32548SOL    HW2 6613   5.281   2.832   9.076  0.1775 -0.0930 -0.6567
32549SOL     OW 6614  12.234  12.105   8.506  0.1756  0.0578  0.2511
32549SOL    HW1 6615  12.189  12.065   8.580 -0.4621  0.3974  0.0626
32549SOL    HW2 6616  12.233  12.199   8.525  0.8122  0.0658  0.2429
32550SOL     OW 6617   1.148   2.941   5.497  0.4702  0.7430 -0.3996
32550SOL    HW1 6618   1.066   2.927   5.545  0.0878  2.4626 -0.4824
32550SOL    HW2 6619   1.174   3.029   5.521  0.7740  1.3130 -2.6236
32551SOL     OW 6620   5.285  12.215   5.384  0.6863  0.3009  0.4339
32551SOL    HW1 6621   5.243  12.242   5.466  0.7657  0.3132  0.4708
32551SOL    HW2 6622   5.351  12.152   5.410 -1.3662 -2.1299  0.1072
32552SOL     OW 6623   5.470   9.217   3.578  0.0713 -0.2676  0.1814
32552SOL    HW1 6624   5.546   9.269   3.604  0.5446 -1.7610  2.0399
32552SOL    HW2 6625   5.424   9.200   3.660 -0.2008 -2.4901 -0.3706
32553SOL     OW 6626  12.520   9.602   4.356 -0.3663 -0.5101  0.2654
32553SOL    HW1 6627  12.448   9.539   4.361 -0.2677 -0.5592  1.3087
32553SOL    HW2 6628  12.509   9.658   4.433 -0.7997  1.1660 -0.9532
32554SOL     OW 6629  11.971   6.863   7.570  0.1983 -0.2112  0.0148
32554SOL    HW1 6630  11.942   6.808   7.497  0.4712  1.3289 -1.3208
32554SOL    HW2 6631  11.896   6.865   7.630 -0.6452 -0.2512 -1.0020
32555SOL     OW 6632   0.791   5.973   4.986 -0.3959  0.3467 -0.1615
32555SOL    HW1 6633   0.855   6.032   4.945 -1.4732  0.9383 -1.0701
32555SOL    HW2 6634   0.825   5.885   4.968  0.3964  0.6547 -0.2172
32556SOL     OW 6635  10.944   1.112   9.191 -0.5360 -0.5481 -0.1018
32556SOL    HW1 6636  10.974   1.034   9.238 -0.1643 -0.0146  0.5644
32556SOL    HW2 6637  10.867   1.142   9.239  0.4385  0.5829  0.7985
32557SOL     OW 6638   3.962   6.016   2.660 -0.3729 -0.2105  0.2176
32557SOL    HW1 6639   3.908   6.094   2.647  2.1632  1.6118 -0.0660
32557SOL    HW2 6640   3.963   6.003   2.755  1.4886  1.9751  0.5871
32558SOL     OW 6641   9.107   8.050   1.347  1.1862 -0.0797  0.2088
32558SOL    HW1 6642   9.143   8.120   1.402  0.4950  1.8453 -1.6166
32558SOL    HW2 6643   9.178   8.028   1.287  0.7698  0.5843 -0.5531
32559SOL     OW 6644   6.251   2.205   6.115  0.0609 -0.0836  0.3031
32559SOL    HW1 6645   6.221   2.254   6.039  1.6557 -0.7584 -0.7987
32559SOL    HW2 6646   6.307   2.266   6.163 -2.5201  1.0350  2.1345
32560SOL     OW 6647   3.903   6.968   9.178  0.4298  0.0242 -0.3546
32560SOL    HW1 6648   3.854   7.051   9.183 -0.2781 -0.4074 -0.0180
32560SOL    HW2 6649   3.848   6.911   9.124 -0.4498 -1.1236  1.6300
32561SOL     OW 6650   2.653   7.542   6.041 -0.4545  0.0708 -0.3541
32561SOL    HW1 6651   2.621   7.625   6.005  0.8542  0.4116 -0.7666
32561SOL    HW2 6652   2.678   7.564   6.131  0.5364  0.2957 -0.6780
32562SOL     OW 6653  10.024   1.056   5.291  0.2707 -0.0433 -0.5666
32562SOL    HW1 6654   9.958   1.086   5.229  0.1082  0.2143 -0.2705
32562SOL    HW2 6655  10.046   0.967   5.262 -0.5810 -0.3302 -0.3499
32563SOL     OW 6656   1.779   6.519   9.208  0.1450 -0.3240 -0.0705
32563SOL    HW1 6657   1.685   6.526   9.192  0.4576  1.9898 -1.4972
32563SOL    HW2 6658   1.800   6.597   9.260  1.1722 -1.1897  0.8494
32564SOL     OW 6659   2.800  11.226   4.056  0.0393  0.0431  0.5307
32564SOL    HW1 6660   2.832  11.272   4.134  0.7538 -0.2927  0.4487
32564SOL    HW2 6661   2.744  11.156   4.091  0.2266 -0.0046  0.7428
32565SOL     OW 6662   3.821   6.550  11.721 -0.4156  0.0210 -0.3490
32565SOL    HW1 6663   3.914   6.531  11.709 -0.5728 -1.4637  0.4938
32565SOL    HW2 6664   3.819   6.614  11.792 -0.0557 -0.6611  0.2969
32566SOL     OW 6665  10.191  10.263   6.507  0.8206 -0.7541 -0.1249
32566SOL    HW1 6666  10.267  10.303   6.550  1.6635 -2.0216 -0.3906
32566SOL    HW2 6667  10.150  10.336   6.459  1.6514  0.0224  0.3145
32567SOL     OW 6668   0.021   2.584   3.826  0.7226 -0.1430  0.3880
32567SOL    HW1 6669   0.066   2.612   3.746 -1.4382  1.0044 -0.5100
32567SOL    HW2 6670   0.075   2.513   3.860  2.2187 -0.0376 -1.5792
32568SOL     OW 6671   2.701   7.889   3.745  0.7572 -0.1895 -0.1655
32568SOL    HW1 6672   2.751   7.837   3.682  0.9045 -1.5110  1.0173
32568SOL    HW2 6673   2.742   7.871   3.829 -1.9394 -1.7236  0.9430
32569SOL     OW 6674   5.494  11.436  11.680 -0.1088  0.2824 -0.2392
32569SOL    HW1 6675   5.531  11.502  11.622  0.9705 -0.1102 -0.0197
32569SOL    HW2 6676   5.486  11.358  11.625  1.1926 -0.1745  0.1890
32570SOL     OW 6677  12.461   3.369   9.415 -0.0634 -0.1144 -0.1991
32570SOL    HW1 6678  12.446   3.295   9.474  2.5046 -0.0137  0.7127
32570SOL    HW2 6679  12.513   3.333   9.344  0.5681  0.6348 -0.1305
32571SOL     OW 6680   8.832   2.567   6.607  0.1310  0.1430 -0.4768
32571SOL    HW1 6681   8.816   2.483   6.650  1.5028  0.0807 -0.0636
32571SOL    HW2 6682   8.746   2.594   6.574 -0.1979 -1.7798 -1.2908
32572SOL     OW 6683   8.692  10.002   2.222  0.3198  0.2534  0.4021
32572SOL    HW1 6684   8.723  10.040   2.140 -0.4430  0.9104  0.4090
32572SOL    HW2 6685   8.688   9.908   2.205  1.6261  0.2157  0.1831
32573SOL     OW 6686   3.208  10.103   1.415 -0.0427 -0.1836 -0.4826
32573SOL    HW1 6687   3.194  10.042   1.488 -0.5501 -0.5749 -0.8999
32573SOL    HW2 6688   3.204  10.048   1.337 -0.3105  0.3593 -0.8552
32574SOL     OW 6689   1.216  10.518  12.189  0.7898  0.1773  0.2305
32574SOL    HW1 6690   1.192  10.426  12.175 -1.4285  0.6652  0.5758
32574SOL    HW2 6691   1.252  10.546  12.105 -0.6665 -0.3976 -0.6265
32575SOL     OW 6692  11.348  11.889  11.378 -0.1981 -0.0677  0.5422
32575SOL    HW1 6693  11.375  11.898  11.286  1.6397  0.2069  1.0671
32575SOL    HW2 6694  11.296  11.968  11.395 -1.3577 -0.5690 -0.4915
32576SOL     OW 6695   3.683   3.410   0.650 -0.9053  1.0045 -0.0793
32576SOL    HW1 6696   3.746   3.338   0.647 -4.2200 -2.2198 -0.0948
32576SOL    HW2 6697   3.693   3.447   0.738 -0.8945 -1.4314  1.0468
32577SOL     OW 6698  11.059   5.012   8.299 -0.1269  0.5925  0.4912
32577SOL    HW1 6699  11.098   4.962   8.227  0.4748  2.4141 -0.5363
32577SOL    HW2 6700  11.041   5.098   8.260  0.3816  1.6964  2.5828
32578SOL     OW 6701   1.073   5.314   0.104 -0.0461 -0.0107  0.4523
32578SOL    HW1 6702   1.133   5.280   0.037  0.0827 -0.3520  0.7342
32578SOL    HW2 6703   1.128   5.371   0.159 -0.6197  2.0397 -1.0045
32579SOL     OW 6704   5.687   5.028   8.659  0.1205  0.0545  0.0403
32579SOL    HW1 6705   5.645   4.956   8.706  0.2589  0.1074  0.2465
32579SOL    HW2 6706   5.614   5.085   8.631  0.1262  0.9239  1.6641
32580SOL     OW 6707  11.576   2.260   5.933  0.1913  1.0468  0.0561
32580SOL    HW1 6708  11.616   2.334   5.887 -0.0157  1.0465 -0.1254
32580SOL    HW2 6709  11.524   2.216   5.866 -0.0299  0.9854  0.2667
32581SOL     OW 6710   8.866   7.136   2.941  0.1616  0.0190  0.3577
32581SOL    HW1 6711   8.935   7.070   2.946 -0.7289 -0.9098  0.4566
32581SOL    HW2 6712   8.906   7.208   2.891  1.1543 -0.5547  0.2990
32582SOL     OW 6713   1.800   3.632   3.064  0.2246 -0.2414  0.0357
32582SOL    HW1 6714   1.711   3.598   3.058 -0.3301  1.2777 -0.7661
32582SOL    HW2 6715   1.810   3.657   3.156 -0.2463 -0.2338  0.0872
32583SOL     OW 6716   2.902   4.532  10.692  0.1071 -0.4202 -0.0206
32583SOL    HW1 6717   2.927   4.463  10.753 -1.2812 -1.2809 -0.3860
32583SOL    HW2 6718   2.941   4.612  10.729 -0.0415 -1.0410  1.5647
32584SOL     OW 6719   2.476   9.153   3.058  0.7268  0.0793 -0.7897
32584SOL    HW1 6720   2.543   9.142   2.990  1.3592 -1.4798  0.0412
32584SOL    HW2 6721   2.398   9.112   3.021  0.9432 -0.3719 -0.7454
32585SOL     OW 6722  11.878   6.619   6.284  0.3047  0.6998  0.2163
32585SOL    HW1 6723  11.899   6.712   6.274  1.4520  0.8080  2.8845
32585SOL    HW2 6724  11.786   6.617   6.310  0.8602  1.3309  2.4304
32586SOL     OW 6725   2.637   1.449  11.822  0.0370 -0.4104  0.2094
32586SOL    HW1 6726   2.603   1.502  11.750 -0.2867 -1.4155 -0.3978
32586SOL    HW2 6727   2.732   1.462  11.820 -0.0955  0.6961  0.5277
32587SOL     OW 6728   6.132   5.367   4.913 -0.5875  0.0815  0.3025
32587SOL    HW1 6729   6.123   5.457   4.944 -0.0994 -0.5482  2.4426
32587SOL    HW2 6730   6.112   5.313   4.989  1.3740 -1.5745 -0.2488
32588SOL     OW 6731   3.035   7.484  10.272 -0.1957  0.3416  0.1952
32588SOL    HW1 6732   2.991   7.525  10.346  0.2945  0.7648  0.2545
32588SOL    HW2 6733   2.986   7.403  10.257 -0.0291  0.0360  1.2599
32589SOL     OW 6734   7.924   3.581   1.462 -0.2568  0.7294 -0.4857
32589SOL    HW1 6735   7.982   3.510   1.489  1.0051  0.6999 -3.0312
32589SOL    HW2 6736   7.893   3.619   1.544 -0.8806 -2.6060  0.9981
32590SOL     OW 6737   1.640   0.602   6.861 -0.5374  0.0719 -0.3299
32590SOL    HW1 6738   1.573   0.594   6.793 -0.8588  1.3603 -0.1911
32590SOL    HW2 6739   1.620   0.685   6.904  1.3601  0.6645 -0.5198
32591SOL     OW 6740   8.996   4.630  11.605 -0.3553  0.3650 -0.5200
32591SOL    HW1 6741   9.029   4.622  11.515 -1.2336 -0.5730 -0.7847
32591SOL    HW2 6742   8.964   4.720  11.611 -0.9734  0.2244 -1.4122
32592SOL     OW 6743   5.537   7.516   2.435  0.4124  0.2367 -0.2513
32592SOL    HW1 6744   5.632   7.511   2.427  0.3939 -3.3354  0.2476
32592SOL    HW2 6745   5.522   7.528   2.529  0.4922 -2.7389  0.2538
32593SOL     OW 6746  12.373   1.231   7.764  0.2989 -0.0512  0.0558
32593SOL    HW1 6747  12.466   1.250   7.771  0.6276 -1.9050  1.3932
32593SOL    HW2 6748  12.362   1.194   7.676  0.5505  1.3159 -0.5830
32594SOL     OW 6749  11.922   2.656   0.265 -0.4240 -0.3444 -0.0333
32594SOL    HW1 6750  11.999   2.626   0.216 -0.5592 -0.6711 -0.0535
32594SOL    HW2 6751  11.946   2.742   0.298 -0.7398  0.4079 -1.6488
32595SOL     OW 6752  10.795   1.929   4.315  0.1084 -0.0953  0.4937
32595SOL    HW1 6753  10.842   1.941   4.398 -0.8714 -1.7971  1.3477
32595SOL    HW2 6754  10.813   1.838   4.290  0.3360  0.3725 -1.1547
32596SOL     OW 6755   3.073  10.267   1.754  0.4645 -0.1240 -0.2312
32596SOL    HW1 6756   3.030  10.186   1.781 -0.7468  0.4722 -0.3140
32596SOL    HW2 6757   3.056  10.274   1.661 -0.9984  1.1125  0.0938
32597SOL     OW 6758   4.639   0.697  10.000  0.0207  0.3190  0.3499
32597SOL    HW1 6759   4.594   0.633   9.946 -0.3415 -0.4795  1.5474
32597SOL    HW2 6760   4.718   0.652  10.031 -0.5546  0.1957  1.7082
32598SOL     OW 6761   2.020   2.666   2.920 -0.2910  0.1941  0.1889
32598SOL    HW1 6762   2.091   2.649   2.982  1.9290  2.2229 -1.6014
32598SOL    HW2 6763   2.030   2.759   2.898 -1.1227 -0.3798 -2.9882
32599SOL     OW 6764   3.010   8.412  12.447 -0.1416 -0.5271 -0.0589
32599SOL    HW1 6765   2.990   8.448  12.360  0.5869 -0.2804 -0.1346
32599SOL    HW2 6766   3.081   8.468  12.480  0.2545 -1.2210  0.2810
32600SOL     OW 6767   2.528   7.515   7.802  0.4479  0.1373  1.1170
32600SOL    HW1 6768   2.485   7.430   7.809  0.2596  0.0173 -0.8822
32600SOL    HW2 6769   2.621   7.495   7.810  0.6571 -0.7622 -2.1024
32601SOL     OW 6770   6.438   7.421  12.302  0.0126 -0.3648  0.3574
32601SOL    HW1 6771   6.441   7.328  12.278 -0.9060 -0.2027 -0.4740
32601SOL    HW2 6772   6.363   7.429  12.360 -2.9965  0.5404 -3.2219
32602SOL     OW 6773   9.086   8.879   6.107  0.2233 -0.3800 -0.1592
32602SOL    HW1 6774   9.138   8.811   6.149 -1.0285 -0.5063  1.2674
32602SOL    HW2 6775   8.996   8.848   6.113 -0.1122  0.0656 -2.1287
32603SOL     OW 6776   2.793   5.483   8.895  0.1589  0.1081  0.3290
32603SOL    HW1 6777   2.715   5.499   8.842  0.7589 -0.5509 -0.7864
32603SOL    HW2 6778   2.854   5.553   8.870 -1.2996  2.9195  3.8762
32604SOL     OW 6779   6.799  11.165   0.148 -0.0230  0.3789 -0.2697
32604SOL    HW1 6780   6.882  11.212   0.155 -0.3506  1.0363 -0.8004
32604SOL    HW2 6781   6.764  11.189   0.062 -0.0250 -1.1171 -0.7143
32605SOL     OW 6782   6.462   3.115  11.889  0.1668 -0.3730 -0.0380
32605SOL    HW1 6783   6.544   3.074  11.917 -0.3634  0.3917  2.9574
32605SOL    HW2 6784   6.425   3.152  11.969 -1.7599  1.7437 -1.7656
32606SOL     OW 6785   7.049  10.268   6.723 -0.8212  0.5743 -0.4888
32606SOL    HW1 6786   7.017  10.358   6.735  1.9878  1.6346 -0.0782
32606SOL    HW2 6787   7.027  10.247   6.633 -0.7337  2.0712 -0.8912
32607SOL     OW 6788   3.441  11.723   2.067  0.2187 -0.7550  0.9730
32607SOL    HW1 6789   3.402  11.762   2.145  0.0763 -0.5987  0.8255
32607SOL    HW2 6790   3.397  11.638   2.058 -0.5304 -0.3216  0.4650
32608SOL     OW 6791   2.957  10.022   5.264  0.1831 -0.0876 -0.7604
32608SOL    HW1 6792   2.952   9.927   5.256  0.2179 -0.0789 -0.8794
32608SOL    HW2 6793   3.051  10.042   5.255  0.6546 -0.3238  2.2542
32609SOL     OW 6794   4.521   1.256   1.711 -0.3643  0.1421 -0.5378
32609SOL    HW1 6795   4.550   1.177   1.666  2.2879  0.3656  0.5815
32609SOL    HW2 6796   4.489   1.225   1.796 -1.3390  0.1130 -0.9027
32610SOL     OW 6797   7.317   4.368   4.042  0.4672 -0.2540 -0.2376
32610SOL    HW1 6798   7.232   4.411   4.043  0.1229 -0.8957 -0.9808
32610SOL    HW2 6799   7.365   4.408   4.114  0.1906  1.3999 -0.9341
32611SOL     OW 6800  11.282   5.863   2.843 -0.0346 -0.3824  0.0359
32611SOL    HW1 6801  11.279   5.770   2.821 -1.8927 -0.7394  1.4953
32611SOL    HW2 6802  11.269   5.866   2.938  2.0176  1.3068  0.3433
32612SOL     OW 6803   5.837   1.464   7.125 -0.5477 -0.3055 -0.2619
32612SOL    HW1 6804   5.887   1.423   7.195 -1.2629  0.3562  0.6604
32612SOL    HW2 6805   5.823   1.554   7.154 -2.7007 -0.5899 -0.2053
32613SOL     OW 6806  11.435   7.434  10.411 -0.4296  0.4009 -0.1154
32613SOL    HW1 6807  11.491   7.493  10.360 -1.9003 -0.8530 -3.4622
32613SOL    HW2 6808  11.491   7.360  10.434  0.2674  1.0164  0.2072
32614SOL     OW 6809   0.006   0.336   1.403 -0.0189  0.3329  0.5088
32614SOL    HW1 6810  -0.062   0.367   1.343  0.0136 -2.7751 -1.3619
32614SOL    HW2 6811  -0.011   0.384   1.485 -4.4231 -0.1006  0.1366
32615SOL     OW 6812   0.476   7.346   4.367  0.0854 -0.1514  0.2856
32615SOL    HW1 6813   0.524   7.428   4.377 -0.7184  0.2403  1.1056
32615SOL    HW2 6814   0.508   7.289   4.437 -0.9214  0.2678  1.1159
32616SOL     OW 6815   2.571   3.163   1.045  0.1006  0.5572  1.4476
32616SOL    HW1 6816   2.657   3.132   1.075  0.2818 -0.4841 -0.0026
32616SOL    HW2 6817   2.592   3.221   0.972 -0.4151  0.3611  1.1395
32617SOL     OW 6818   3.411  11.867  10.288  0.1035  0.0286  0.2242
32617SOL    HW1 6819   3.477  11.880  10.356  1.3516 -0.4617 -0.8415
32617SOL    HW2 6820   3.340  11.822  10.332  1.2946 -1.1571  1.0068
32618SOL     OW 6821  10.077   6.308  11.934  0.2857 -0.0790  0.0780
32618SOL    HW1 6822  10.052   6.394  11.900 -0.0388 -0.9204 -1.9605
32618SOL    HW2 6823  10.152   6.281  11.880  0.2988 -1.1211  0.5850
32619SOL     OW 6824   3.994  10.959   9.217  0.6291 -0.3924  0.3577
32619SOL    HW1 6825   3.933  10.899   9.260 -2.6257  1.3995 -1.4024
32619SOL    HW2 6826   3.988  11.039   9.269 -0.7796  0.6991 -1.3747
32620SOL     OW 6827   6.956   7.488  11.465 -0.0718 -0.1321 -0.0271
32620SOL    HW1 6828   6.991   7.493  11.376 -0.7070 -1.3112 -0.3668
32620SOL    HW2 6829   6.946   7.579  11.493  2.0461  0.2610 -0.3812
32621SOL     OW 6830   0.795   5.222  10.391  0.0628  0.0820  0.9520
32621SOL    HW1 6831   0.717   5.268  10.422 -1.5157 -1.7895 -0.0477
32621SOL    HW2 6832   0.786   5.133  10.426  0.6453 -0.7526 -0.8781
32622SOL     OW 6833  10.003   2.472   0.907  0.2730  0.3106 -0.1749
32622SOL    HW1 6834  10.049   2.462   0.991  0.6294 -0.6823 -0.4708
32622SOL    HW2 6835  10.054   2.420   0.845  0.4602  1.6610 -1.1984
32623SOL     OW 6836   9.124   5.636   1.740  0.1505 -0.0184  0.3913
32623SOL    HW1 6837   9.182   5.698   1.784  0.0955 -0.2181  0.7508
32623SOL    HW2 6838   9.064   5.690   1.688 -0.3430  0.2660  1.2386
32624SOL     OW 6839  11.420   4.248  12.458 -0.0328  0.2435  0.0049
32624SOL    HW1 6840  11.486   4.316  12.471 -0.8344  0.7902  1.4300
32624SOL    HW2 6841  11.424   4.195  12.538 -0.2607 -0.6594 -0.5645
32625SOL     OW 6842   1.148   5.103   1.003 -0.1600  0.1257 -0.0442
32625SOL    HW1 6843   1.173   5.069   0.917  1.2938  0.9377  0.0097
32625SOL    HW2 6844   1.167   5.031   1.064 -0.2737 -0.1198 -0.2999
32626SOL     OW 6845  12.457   2.143   2.653 -0.4470 -0.0121 -0.1294
32626SOL    HW1 6846  12.441   2.186   2.738 -0.3351  0.8352 -0.5283
32626SOL    HW2 6847  12.505   2.064   2.675  2.2061  1.6266  0.3906
32627SOL     OW 6848   1.060   3.914   7.059  0.0385  0.0614 -0.0016
32627SOL    HW1 6849   0.996   3.911   6.988 -1.1555  0.1310  1.0304
32627SOL    HW2 6850   1.114   3.991   7.039 -0.3811  0.1760 -0.7470
32628SOL     OW 6851   4.499   3.928  12.351 -0.5915  0.0608 -0.4364
32628SOL    HW1 6852   4.408   3.924  12.323 -0.7347  1.4495 -0.2623
32628SOL    HW2 6853   4.536   4.002  12.303  0.4079 -0.3794 -0.3818
32629SOL     OW 6854   2.156   9.305  10.474 -0.3674  0.7784  0.0178
32629SOL    HW1 6855   2.210   9.293  10.552 -0.2964 -2.6653 -0.4096
32629SOL    HW2 6856   2.097   9.230  10.474  0.8542 -0.4413 -4.1187
32630SOL     OW 6857   9.401   6.081  12.301  0.6370  0.1404 -0.1622
32630SOL    HW1 6858   9.437   6.141  12.236  1.1440  0.9446  0.8156
32630SOL    HW2 6859   9.437   5.995  12.278  0.1482  0.2620 -1.4054
32631SOL     OW 6860   5.798   2.979   6.239 -0.4596  0.4741  0.3635
32631SOL    HW1 6861   5.794   3.046   6.308  0.6515  1.4195 -0.4517
32631SOL    HW2 6862   5.766   3.023   6.161  0.2471  0.0406 -0.1813
32632SOL     OW 6863   0.937  11.845  11.686  0.6736 -0.6834  0.3478
32632SOL    HW1 6864   0.969  11.856  11.596 -0.5941 -2.5260 -0.3881
32632SOL    HW2 6865   0.940  11.933  11.724  3.1848 -0.2030 -0.7995
32633SOL     OW 6866   1.735   6.439   3.618  0.1275  0.2117  0.5622
32633SOL    HW1 6867   1.794   6.366   3.640  0.3641  0.6565  1.4514
32633SOL    HW2 6868   1.752   6.456   3.526 -1.3196 -2.1008 -0.2179
32634SOL     OW 6869  10.812   6.512   5.181  0.4152 -0.1860 -0.3830
32634SOL    HW1 6870  10.796   6.601   5.149  0.6940  1.0000  2.5087
32634SOL    HW2 6871  10.728   6.485   5.219  1.0089 -0.0479  1.1029
32635SOL     OW 6872   0.097   6.032   2.637 -0.1352  0.0724 -0.1108
32635SOL    HW1 6873   0.185   6.070   2.644 -0.4141  0.4036  3.6393
32635SOL    HW2 6874   0.050   6.092   2.579  1.2653  1.7197  0.3592
32636SOL     OW 6875   4.187   9.202   8.594 -0.2280 -0.4336  0.4163
32636SOL    HW1 6876   4.153   9.168   8.511 -0.6639  0.7939  0.0780
32636SOL    HW2 6877   4.143   9.285   8.606  1.6449  0.5779  0.6527
32637SOL     OW 6878   1.754   0.532   6.321 -0.1181 -0.4358 -0.5270
32637SOL    HW1 6879   1.706   0.479   6.385  0.1517 -0.3634 -0.2595
32637SOL    HW2 6880   1.694   0.602   6.299 -0.0897 -0.2673 -0.0893
32638SOL     OW 6881  11.661   4.334   5.058  0.0906  0.0076 -0.5262
32638SOL    HW1 6882  11.686   4.294   5.141 -1.1899  0.0308 -0.1038
32638SOL    HW2 6883  11.565   4.327   5.056 -0.2543  3.1263 -0.3522
32639SOL     OW 6884  11.092  11.898   5.370 -0.2273 -0.0291  0.8580
32639SOL    HW1 6885  11.149  11.953   5.424  1.1686  0.3180 -0.8494
32639SOL    HW2 6886  11.112  11.925   5.280 -2.1889 -0.8178  0.1387
32640SOL     OW 6887   8.218   5.514   8.547  0.1225 -0.3935 -0.3378
32640SOL    HW1 6888   8.170   5.437   8.579 -1.0928 -0.1016 -1.3764
32640SOL    HW2 6889   8.271   5.481   8.474  0.1047 -0.3712 -0.3613
32641SOL     OW 6890   1.823  10.722   0.879 -0.0684  0.1148  0.3342
32641SOL    HW1 6891   1.750  10.664   0.900 -0.1874 -0.3391 -1.2242
32641SOL    HW2 6892   1.792  10.775   0.806  0.8737  0.5095  0.1984
32642SOL     OW 6893  11.403   2.064   5.431  0.2130  0.7338 -0.6244
32642SOL    HW1 6894  11.349   2.122   5.379 -0.6781  0.2722 -0.2322
32642SOL    HW2 6895  11.370   1.976   5.413  1.1038  0.3983 -0.6964
32643SOL     OW 6896   0.550   5.631   0.599  0.3101 -0.6767 -0.2101
32643SOL    HW1 6897   0.604   5.604   0.673  0.2427 -1.2516 -0.3703
32643SOL    HW2 6898   0.476   5.676   0.640  0.8618  0.0456  0.0117
32644SOL     OW 6899   6.077   1.957   6.681 -0.4499 -0.3289  0.4804
32644SOL    HW1 6900   6.120   1.876   6.710  0.0874 -0.4265 -0.5134
32644SOL    HW2 6901   5.999   1.964   6.735 -1.0081 -2.0193 -0.0440
32645SOL     OW 6902   2.800   6.580   4.479  0.0420  1.4824  0.1007
32645SOL    HW1 6903   2.831   6.501   4.524 -0.1160  1.5670  0.3571
32645SOL    HW2 6904   2.874   6.640   4.482  0.1685  1.3415 -0.1082
32646SOL     OW 6905  11.377   4.472  10.255 -0.3355 -0.1246 -0.0028
32646SOL    HW1 6906  11.447   4.423  10.298 -0.3967  0.1848  0.4481
32646SOL    HW2 6907  11.302   4.463  10.313  0.0649  1.7904  0.8986
32647SOL     OW 6908  11.563   6.574   8.007 -0.2097 -0.8165 -0.8068
32647SOL    HW1 6909  11.495   6.584   8.075  0.1602  1.8338 -0.7236
32647SOL    HW2 6910  11.545   6.644   7.945  2.1876 -0.2776 -0.9970
32648SOL     OW 6911   2.134   3.938   4.483  0.4065  0.0468 -0.0338
32648SOL    HW1 6912   2.169   3.857   4.519 -0.3030 -0.2259  0.0639
32648SOL    HW2 6913   2.210   3.984   4.448  0.9725 -0.1718  0.8595
32649SOL     OW 6914   9.325   6.473   5.873 -0.3002  0.0686  0.2564
32649SOL    HW1 6915   9.268   6.403   5.907 -1.5395  0.9265  0.0138
32649SOL    HW2 6916   9.333   6.535   5.945  0.8194 -0.3109  0.4791
32650SOL     OW 6917  12.202   9.806   3.585  0.2331  0.5474 -0.0752
32650SOL    HW1 6918  12.215   9.897   3.613  0.6385  0.0249  1.5648
32650SOL    HW2 6919  12.204   9.756   3.666  1.1651 -1.0698 -1.0546
32651SOL     OW 6920   4.935   1.135   8.339 -0.0591  0.0169 -0.1699
32651SOL    HW1 6921   5.030   1.124   8.330  0.1727  0.4232  1.4024
32651SOL    HW2 6922   4.907   1.170   8.255  1.4625  1.4850 -0.1327
32652SOL     OW 6923   2.686   6.467  12.206 -0.3789  0.3784 -0.3668
32652SOL    HW1 6924   2.764   6.419  12.177 -0.8880 -0.0739 -1.0308
32652SOL    HW2 6925   2.710   6.503  12.291  0.6428  0.4548 -0.6668
32653SOL     OW 6926  12.124   4.167   6.652 -0.2638  0.6376  0.0124
32653SOL    HW1 6927  12.132   4.160   6.556 -2.5142 -0.5627 -0.1453
32653SOL    HW2 6928  12.081   4.251   6.666  0.1011  0.8317 -0.0242
32654SOL     OW 6929   1.727   7.415   7.872  0.2684  0.3603  0.2432
32654SOL    HW1 6930   1.657   7.468   7.912  0.4678 -0.2976  1.5241
32654SOL    HW2 6931   1.703   7.410   7.780 -1.2917  0.3129  0.6117
32655SOL     OW 6932   2.924   1.508   9.937  0.4862  0.0449  0.0361
32655SOL    HW1 6933   3.003   1.531   9.888  1.2079 -0.2780  1.0305
32655SOL    HW2 6934   2.853   1.521   9.874  1.3186  0.3694 -0.8653
32656SOL     OW 6935   5.098  11.130   3.069 -0.3311 -0.4123 -0.4884
32656SOL    HW1 6936   5.113  11.194   3.139  2.3106 -1.5040  0.0589
32656SOL    HW2 6937   5.028  11.073   3.102  1.0279 -1.0456  1.4295
32657SOL     OW 6938   2.216   8.812   3.168  0.3995  0.1025 -0.5328
32657SOL    HW1 6939   2.264   8.810   3.085  2.7046  0.0468  0.7290
32657SOL    HW2 6940   2.284   8.806   3.235 -1.4043  0.0488  1.3797
32658SOL     OW 6941   4.021   9.856   8.255 -0.0480  0.0466  0.2640
32658SOL    HW1 6942   4.116   9.849   8.247 -0.2660 -1.0520 -2.0601
32658SOL    HW2 6943   3.995   9.778   8.304  0.2581  0.5913  1.3240
32659SOL     OW 6944  11.964  10.463   7.009 -0.1684 -0.2276  0.0380
32659SOL    HW1 6945  12.048  10.506   6.994  0.6463 -1.2600  1.5016
32659SOL    HW2 6946  11.933  10.440   6.921 -1.1960  4.1583 -1.0139
32660SOL     OW 6947   0.325   8.660  12.444 -0.2968 -0.4548 -0.0128
32660SOL    HW1 6948   0.401   8.706  12.407 -1.1789 -0.0761 -1.4253
32660SOL    HW2 6949   0.298   8.714  12.518 -1.0280  1.1220 -1.3640
32661SOL     OW 6950   0.819  12.155   3.386  0.3013 -0.0006  0.8252
32661SOL    HW1 6951   0.817  12.087   3.319  0.9680  2.1782 -1.5353
32661SOL    HW2 6952   0.729  12.160   3.418  0.1508 -1.6382  0.7419
32662SOL     OW 6953   4.609   4.960   3.524  0.0380  0.3709 -0.3747
32662SOL    HW1 6954   4.550   5.035   3.523 -1.1745 -0.5365  0.5511
32662SOL    HW2 6955   4.558   4.888   3.487  1.0602 -0.0987 -0.9249
32663SOL     OW 6956   4.530   0.169   0.709 -0.0901 -0.0987 -0.2528
32663SOL    HW1 6957   4.524   0.138   0.618 -1.2235  0.0752 -0.2506
32663SOL    HW2 6958   4.502   0.260   0.705  0.9116  0.2375  0.1188
32664SOL     OW 6959   9.693   9.583   7.402 -0.6026  0.4290  0.0981
32664SOL    HW1 6960   9.630   9.624   7.462  0.3179  1.0383  0.6762
32664SOL    HW2 6961   9.771   9.639   7.407  0.0902 -0.4713 -0.3745
32665SOL     OW 6962   5.450   0.913   1.612  0.2376 -0.1104 -0.6200
32665SOL    HW1 6963   5.544   0.897   1.605  0.4389 -0.2352  1.6173
32665SOL    HW2 6964   5.411   0.849   1.552  1.5382 -0.8473 -0.7338
32666SOL     OW 6965   9.125   2.126   0.795  0.0640 -0.1951  0.4698
32666SOL    HW1 6966   9.201   2.099   0.847  0.5204 -0.1389 -0.1554
32666SOL    HW2 6967   9.053   2.074   0.829  0.5591 -0.8711  0.4985
32667SOL     OW 6968   0.617   0.110   6.356 -1.0162  0.5095  0.5000
32667SOL    HW1 6969   0.555   0.147   6.418 -0.6261  2.9041 -0.4565
32667SOL    HW2 6970   0.611   0.166   6.279 -0.9431 -1.9031 -1.4058
32668SOL     OW 6971   0.846   5.216   5.896  0.1630 -0.0400  0.5691
32668SOL    HW1 6972   0.819   5.279   5.963  0.1803  1.0035 -0.3859
32668SOL    HW2 6973   0.764   5.185   5.858  0.1656 -0.3989  0.8473
32669SOL     OW 6974   5.324   7.148   3.952 -0.0862 -0.0870  0.2346
32669SOL    HW1 6975   5.312   7.096   4.032 -0.6918  1.1034  0.9534
32669SOL    HW2 6976   5.387   7.216   3.978  0.8997 -0.5837 -0.7618
32670SOL     OW 6977   2.469  12.213   4.922 -0.2335  0.3065  0.5659
32670SOL    HW1 6978   2.544  12.205   4.864  0.9386 -0.8251  2.1599
32670SOL    HW2 6979   2.409  12.144   4.894 -0.5312  0.9569 -0.4539
32671SOL     OW 6980   7.441  11.251   9.765 -0.0867 -0.3209 -0.2420
32671SOL    HW1 6981   7.376  11.230   9.699  0.6244 -2.0253 -0.4468
32671SOL    HW2 6982   7.396  11.235   9.849 -0.6651  0.8602 -0.3091
32672SOL     OW 6983   9.399   1.671   0.812  0.1106  0.3517 -0.0267
32672SOL    HW1 6984   9.412   1.661   0.718  1.7293 -0.1894  0.2286
32672SOL    HW2 6985   9.378   1.583   0.843  2.4974 -0.0726  0.5103
32673SOL     OW 6986   9.379   0.129  10.095  0.3823  0.0075  0.4770
32673SOL    HW1 6987   9.327   0.191  10.043 -0.0598 -0.6452  0.1310
32673SOL    HW2 6988   9.391   0.173  10.179 -1.7980 -0.3524  1.0162
32674SOL     OW 6989  11.268   8.863   3.480 -0.4124 -0.7391  0.1120
32674SOL    HW1 6990  11.215   8.914   3.541 -1.0576 -0.5999 -0.5517
32674SOL    HW2 6991  11.219   8.865   3.398  1.7854  1.4868 -1.2932
32675SOL     OW 6992  11.054   5.491  11.695 -0.0037 -0.0156  0.5788
32675SOL    HW1 6993  11.089   5.411  11.656 -0.0394 -0.4775  1.4529
32675SOL    HW2 6994  11.006   5.460  11.772 -3.3482  0.4527 -1.1679
32676SOL     OW 6995   4.734   4.201   3.719  0.1709 -0.4019  0.0750
32676SOL    HW1 6996   4.677   4.129   3.691 -1.4687  0.8642  0.0103
32676SOL    HW2 6997   4.758   4.180   3.809 -1.5616 -0.3104  0.5893
32677SOL     OW 6998   4.797   2.268   4.570 -0.1918  0.3749  0.3318
32677SOL    HW1 6999   4.884   2.252   4.605  0.1355 -0.5105 -0.8371
32677SOL    HW2 7000   4.738   2.216   4.625  0.5935 -3.2459 -1.9164
32678SOL     OW 7001   1.594   8.005   5.589 -0.0778 -0.0228  0.2735
32678SOL    HW1 7002   1.661   7.937   5.589  0.3414  0.3843  0.7063
32678SOL    HW2 7003   1.515   7.961   5.620  0.2077 -0.2995  0.6190
32679SOL     OW 7004   6.566   3.110   6.853 -0.0607 -0.3128 -0.5461
32679SOL    HW1 7005   6.475   3.099   6.879  0.0360 -1.1000 -0.4987
32679SOL    HW2 7006   6.562   3.145   6.764 -0.3980  0.4714 -0.2292
32680SOL     OW 7007  11.431   9.607   5.983  0.2831 -0.3723  0.5676
32680SOL    HW1 7008  11.341   9.602   5.951  0.3258  0.4055  0.3098
32680SOL    HW2 7009  11.440   9.532   6.042 -0.3254 -0.8418  0.0755
32681SOL     OW 7010   8.880  11.441   6.963  0.3211  0.1789 -0.1161
32681SOL    HW1 7011   8.881  11.496   6.885  0.1894 -1.1989 -1.1265
32681SOL    HW2 7012   8.878  11.503   7.036  1.8677  1.5272 -1.1398
32682SOL     OW 7013  11.596   8.692   7.204 -0.0085 -0.0379  0.5603
32682SOL    HW1 7014  11.550   8.608   7.204  1.8103 -1.1188  1.4531
32682SOL    HW2 7015  11.549   8.746   7.141  0.2016 -2.5798 -1.9946
32683SOL     OW 7016   5.659   2.134   2.172 -0.1243  0.4688 -0.0861
32683SOL    HW1 7017   5.581   2.187   2.156 -0.2772  0.9516  2.0512
32683SOL    HW2 7018   5.732   2.193   2.153 -0.3014  1.2720  1.5445
32684SOL     OW 7019   0.906   1.089   4.569 -0.2892 -0.6576 -0.2313
32684SOL    HW1 7020   0.904   1.160   4.505 -3.2743 -1.7037 -1.4754
32684SOL    HW2 7021   0.967   1.025   4.533 -0.2901 -0.2722 -0.9324
32685SOL     OW 7022   3.528   1.482   8.090 -0.2435 -0.5532 -0.2802
32685SOL    HW1 7023   3.585   1.546   8.047  0.0056 -0.0820  0.7210
32685SOL    HW2 7024   3.440   1.516   8.078 -0.3182 -1.0960 -1.5157
32686SOL     OW 7025   9.627   1.615   9.426  1.2074 -0.0314  0.0842
32686SOL    HW1 7026   9.722   1.603   9.420  1.4224  1.0748  1.0600
32686SOL    HW2 7027   9.601   1.638   9.336  1.9162  0.0253 -0.1169
32687SOL     OW 7028   0.230   4.990   8.783 -0.4869  0.1263 -0.3245
32687SOL    HW1 7029   0.278   4.909   8.801  0.0085  0.4042 -0.3773
32687SOL    HW2 7030   0.228   4.996   8.688  1.1262  1.1336 -0.3164
32688SOL     OW 7031  12.188  11.251   4.130 -0.1522  0.0410  0.1703
32688SOL    HW1 7032  12.213  11.198   4.205 -1.5559 -0.9003  0.0156
32688SOL    HW2 7033  12.214  11.200   4.054  1.2317  0.9753 -0.0303
32689SOL     OW 7034  12.481   2.344   7.858 -0.5051 -0.7546  0.6075
32689SOL    HW1 7035  12.406   2.386   7.816  0.2409  1.1060  1.0246
32689SOL    HW2 7036  12.453   2.328   7.948 -0.3591  0.1189  0.8159
32690SOL     OW 7037   7.828   9.672   4.703  0.7699  0.0722  0.1054
32690SOL    HW1 7038   7.838   9.589   4.655 -1.4733 -0.1005 -0.1757
32690SOL    HW2 7039   7.865   9.654   4.789  1.8619 -0.6653 -0.4835
32691SOL     OW 7040   9.540   7.187   2.204 -0.3838 -0.7852 -1.0587
32691SOL    HW1 7041   9.450   7.197   2.174 -1.1017  0.3199  1.2880
32691SOL    HW2 7042   9.534   7.128   2.279  0.9445 -1.1312 -1.2035
32692SOL     OW 7043   3.347   2.921   2.426 -0.4825 -0.6882  0.4020
32692SOL    HW1 7044   3.404   2.898   2.353  0.5066  2.0969  0.1769
32692SOL    HW2 7045   3.259   2.897   2.397  0.1407 -1.6328 -0.7835
32693SOL     OW 7046   6.717   9.979   5.088  0.2461 -0.3301  0.1037
32693SOL    HW1 7047   6.716   9.952   5.180  0.3439 -1.5186 -0.2257
32693SOL    HW2 7048   6.665   9.912   5.043 -1.7763  1.4571 -0.4013
32694SOL     OW 7049  11.690   6.291  11.740 -0.2511 -0.4536  0.1876
32694SOL    HW1 7050  11.658   6.381  11.747  0.6302 -0.0964 -0.1931
32694SOL    HW2 7051  11.661   6.262  11.653  0.6248 -0.0428 -0.2599
32695SOL     OW 7052   9.744  10.458  10.919 -0.0557 -0.2257 -0.1670
32695SOL    HW1 7053   9.781  10.370  10.928 -1.5634 -0.7215  2.3006
32695SOL    HW2 7054   9.657  10.443  10.881 -0.2676  0.2001  0.1465
32696SOL     OW 7055   7.646  11.975   6.059  0.5289  0.6295  0.2433
32696SOL    HW1 7056   7.582  11.998   6.127  0.1292  1.0249 -0.2610
32696SOL    HW2 7057   7.698  11.905   6.098 -1.1439 -0.7200  0.1245
32697SOL     OW 7058   3.535   2.610   9.000 -0.0038 -0.0884  0.2163
32697SOL    HW1 7059   3.524   2.674   8.930 -0.3417  0.4060  0.7064
32697SOL    HW2 7060   3.515   2.526   8.960  0.0574  0.1628 -0.3424
32698SOL     OW 7061   3.207   1.640   8.644  0.0115  0.1292  0.3932
32698SOL    HW1 7062   3.207   1.585   8.565  2.9205 -0.2120  0.5363
32698SOL    HW2 7063   3.234   1.726   8.613  2.0375 -0.2192  1.0860
32699SOL     OW 7064   2.921   1.289   8.227  0.1275  0.0927  0.1505
32699SOL    HW1 7065   2.926   1.304   8.322 -2.1016  1.7597  0.0737
32699SOL    HW2 7066   2.858   1.353   8.196  1.3020  0.0197 -2.6094
32700SOL     OW 7067   9.519   0.401   4.726  0.0593  0.2940  0.3099
32700SOL    HW1 7068   9.571   0.334   4.770  0.1477 -0.3177 -0.7048
32700SOL    HW2 7069   9.452   0.353   4.678 -0.8203  1.0227  0.7656
32701SOL     OW 7070   4.223   5.557   3.698 -0.2849 -0.4433  0.0871
32701SOL    HW1 7071   4.170   5.551   3.778 -0.4080 -0.1335  0.0307
32701SOL    HW2 7072   4.313   5.561   3.729 -0.2604 -1.3860  0.1705
32702SOL     OW 7073   2.862   9.120   3.288 -0.6815  0.2310 -0.0311
32702SOL    HW1 7074   2.842   9.041   3.237 -1.8487  1.2920 -1.3220
32702SOL    HW2 7075   2.940   9.097   3.339 -0.5976 -1.5256 -0.8735
32703SOL     OW 7076  10.407   3.437   5.647 -0.7299  0.1778  0.0228
32703SOL    HW1 7077  10.401   3.389   5.730  2.0769  0.4400  0.4770
32703SOL    HW2 7078  10.443   3.373   5.585  0.9071  1.0157  0.0647
32704SOL     OW 7079  10.721   8.054   1.544 -0.2253 -0.0800 -0.1014
32704SOL    HW1 7080  10.696   8.085   1.457 -2.3004  0.7084  0.7112
32704SOL    HW2 7081  10.811   8.085   1.556 -0.2399  0.6055 -1.5948
32705SOL     OW 7082   1.410   3.296   5.110 -0.0654  0.1321 -0.1788
32705SOL    HW1 7083   1.351   3.370   5.095 -0.9336 -0.5582 -0.2775
32705SOL    HW2 7084   1.359   3.220   5.082  1.3262 -0.3733 -1.4359
32706SOL     OW 7085   9.592  12.245  10.446 -0.3807 -0.0995  0.1864
32706SOL    HW1 7086   9.511  12.197  10.429 -0.5403  0.3879 -0.4425
32706SOL    HW2 7087   9.599  12.307  10.374  0.1868  0.3474  0.6183
32707SOL     OW 7088  11.558   2.021   8.388 -0.2166  0.3734 -0.1951
32707SOL    HW1 7089  11.588   1.971   8.464 -1.3991 -2.3942 -1.4286
32707SOL    HW2 7090  11.496   2.085   8.424  0.3365  0.1022  1.3013
32708SOL     OW 7091   8.490   3.283   0.615 -0.1008 -0.1571 -0.2086
32708SOL    HW1 7092   8.513   3.197   0.580  0.2824  0.1701 -0.7781
32708SOL    HW2 7093   8.395   3.286   0.611 -0.1070 -0.4934 -0.3334
32709SOL     OW 7094   3.770   7.349   4.767 -0.2252  0.2071 -0.4428
32709SOL    HW1 7095   3.760   7.273   4.826  0.4659 -0.0581 -0.6551
32709SOL    HW2 7096   3.684   7.391   4.767 -0.1305  0.4536  1.0886
32710SOL     OW 7097   8.096   0.743   5.749  0.4067 -0.0930 -0.0182
32710SOL    HW1 7098   8.110   0.675   5.683  0.5718  1.1018 -1.2521
32710SOL    HW2 7099   8.055   0.815   5.701  0.3056  0.7155  1.2388
32711SOL     OW 7100   7.608   8.895   3.154 -0.4640  0.5491  0.0994
32711SOL    HW1 7101   7.523   8.881   3.197 -0.3475  0.6267  0.3603
32711SOL    HW2 7102   7.595   8.972   3.099 -0.6797  0.3145 -0.1808
32712SOL     OW 7103  12.347   4.439   5.519  0.4353 -0.0671 -0.0371
32712SOL    HW1 7104  12.345   4.534   5.503 -0.3311 -0.1666 -0.5713
32712SOL    HW2 7105  12.289   4.426   5.593 -0.1267 -0.2122 -0.4984
32713SOL     OW 7106   3.819  11.045  10.064 -0.3582 -0.0229 -0.0390
32713SOL    HW1 7107   3.878  10.971  10.055 -1.1819 -0.6642 -0.2505
32713SOL    HW2 7108   3.829  11.074  10.154  1.0211  0.5259 -0.3382
32714SOL     OW 7109  11.313   8.876   4.840 -0.1822 -0.5772  0.1062
32714SOL    HW1 7110  11.308   8.785   4.869 -0.2103 -0.8118 -0.6203
32714SOL    HW2 7111  11.277   8.926   4.913  1.2294 -1.0071  1.1528
32715SOL     OW 7112   6.891   5.500  11.712  0.2743  0.3062 -0.3455
32715SOL    HW1 7113   6.980   5.519  11.680  1.0211 -0.7871  0.9602
32715SOL    HW2 7114   6.840   5.486  11.633  1.3002  0.8373 -1.1299
32716SOL     OW 7115   5.648   2.153   1.840 -0.2638 -0.0106  0.0984
32716SOL    HW1 7116   5.730   2.181   1.881  0.6930 -0.6918 -1.2645
32716SOL    HW2 7117   5.640   2.209   1.762 -0.1451 -1.1076 -0.7353
32717SOL     OW 7118  11.266   2.163   8.816  0.1685 -0.0026 -0.3084
32717SOL    HW1 7119  11.199   2.211   8.865 -1.1595  0.6186 -2.5759
32717SOL    HW2 7120  11.274   2.079   8.862 -2.3073 -0.1562 -0.0000
32718SOL     OW 7121   4.683   5.263   4.836 -0.0548  0.0530  0.5146
32718SOL    HW1 7122   4.642   5.280   4.750 -0.0108 -0.5146  0.3767
32718SOL    HW2 7123   4.776   5.280   4.822 -0.0024 -0.3494  0.3611
32719SOL     OW 7124   7.553   9.389   1.584 -0.0545 -0.0090  0.6195
32719SOL    HW1 7125   7.460   9.389   1.560  0.1787  2.4852 -0.6512
32719SOL    HW2 7126   7.560   9.460   1.648  1.2212  1.0514 -0.6406
32720SOL     OW 7127   3.262   3.319  11.470  0.4356 -0.5168 -0.1619
32720SOL    HW1 7128   3.352   3.353  11.477  0.0149  1.0708 -1.8247
32720SOL    HW2 7129   3.212   3.371  11.533  0.7026 -1.7052  1.0951
32721SOL     OW 7130   3.198   1.163   7.709 -0.2731 -0.3209 -0.3466
32721SOL    HW1 7131   3.263   1.233   7.699 -0.1878 -0.3882 -0.2694
32721SOL    HW2 7132   3.222   1.098   7.644 -0.6880 -0.0268 -0.7986
32722SOL     OW 7133   1.261   6.397  11.176 -0.0609 -0.2761  0.0854
32722SOL    HW1 7134   1.193   6.457  11.147  0.9208 -0.4651 -3.0060
32722SOL    HW2 7135   1.225   6.309  11.160  0.0783 -0.4248  0.5705
32723SOL     OW 7136   5.566   8.145   8.256  0.4898  0.6216  0.0990
32723SOL    HW1 7137   5.652   8.113   8.286 -0.5112 -1.6498  0.7745
32723SOL    HW2 7138   5.547   8.219   8.313  2.0842  1.3163 -0.2141
32724SOL     OW 7139   0.049  10.965   6.423 -0.3441  0.7628  0.6536
32724SOL    HW1 7140   0.105  10.894   6.393 -0.4851 -0.1189  2.3326
32724SOL    HW2 7141  -0.025  10.921   6.466 -0.4743  1.9017  1.6797
32725SOL     OW 7142   8.722  11.390   2.612 -0.0229 -0.1457  0.2969
32725SOL    HW1 7143   8.786  11.459   2.631  0.5829 -0.5327 -0.2916
32725SOL    HW2 7144   8.641  11.420   2.655  0.5164  0.4028  0.9549
32726SOL     OW 7145   0.004   2.399  11.941  0.2553 -0.5729  0.0572
32726SOL    HW1 7146  -0.056   2.369  12.010  0.6840 -1.5755  0.0251
32726SOL    HW2 7147  -0.004   2.494  11.941 -0.2847 -0.6051  1.0101
32727SOL     OW 7148   8.645   3.247   8.855 -0.3990 -0.5351 -0.7988
32727SOL    HW1 7149   8.739   3.257   8.866 -0.6181  0.8862  0.1343
32727SOL    HW2 7150   8.624   3.165   8.898  0.1958  0.0057  0.5875
32728SOL     OW 7151   7.392  11.441   5.096  0.2462 -0.8308 -0.2659
32728SOL    HW1 7152   7.464  11.407   5.148  2.8066  1.3694 -2.0989
32728SOL    HW2 7153   7.410  11.412   5.007 -0.2349  1.0545 -1.0325
32729SOL     OW 7154   9.365   0.834  11.499 -0.4628 -0.0594  0.0557
32729SOL    HW1 7155   9.325   0.886  11.428 -0.2382 -0.5236 -0.4154
32729SOL    HW2 7156   9.318   0.751  11.497  0.5515 -0.6322 -0.5388
32730SOL     OW 7157   6.290   1.375   8.929 -0.4415 -0.7767  0.0424
32730SOL    HW1 7158   6.354   1.329   8.983 -3.2728 -3.8595  1.1049
32730SOL    HW2 7159   6.206   1.342   8.959 -2.9157  4.9831  0.6495
32731SOL     OW 7160   8.263   1.297  10.832  0.9048  0.5727 -0.0576
32731SOL    HW1 7161   8.296   1.338  10.752 -0.0356  0.1901 -0.6630
32731SOL    HW2 7162   8.169   1.287  10.816  0.9815 -1.0873  0.3791
32732SOL     OW 7163   6.206   6.641   7.440 -0.9147  0.5155  0.2819
32732SOL    HW1 7164   6.257   6.645   7.359 -1.4353 -1.4630 -0.2044
32732SOL    HW2 7165   6.268   6.666   7.508  0.4132 -0.6534 -0.4236
32733SOL     OW 7166   3.798   7.531  11.121  0.2324 -0.8162  0.1785
32733SOL    HW1 7167   3.714   7.536  11.075  0.6052 -0.7000 -0.4865
32733SOL    HW2 7168   3.834   7.619  11.116  0.7423 -1.0452 -0.1868
32734SOL     OW 7169   4.895   0.996   6.019 -0.0624 -0.0322 -0.2092
32734SOL    HW1 7170   4.972   1.038   5.980 -0.3624  0.8369  0.1225
32734SOL    HW2 7171   4.929   0.913   6.053  0.3500 -0.4987 -1.6654
32735SOL     OW 7172   0.923   1.915   5.481 -0.3655  0.2141 -0.4059
32735SOL    HW1 7173   0.841   1.965   5.471 -0.3560  0.1034 -1.0835
32735SOL    HW2 7174   0.969   1.959   5.553 -0.4947  0.9960 -0.7912
32736SOL     OW 7175  11.321   7.913  11.717 -0.6087 -0.1239 -0.2199
32736SOL    HW1 7176  11.259   7.898  11.645  0.9393 -2.4749 -1.1747
32736SOL    HW2 7177  11.281   7.869  11.792 -1.6123  1.2396  0.0971
32737SOL     OW 7178   0.558  10.294   8.573  0.1237  0.9498  0.0341
32737SOL    HW1 7179   0.478  10.326   8.531 -0.0198  0.0351 -0.4243
32737SOL    HW2 7180   0.572  10.208   8.534  1.6583  1.3333 -0.3297
32738SOL     OW 7181   9.067   9.342   8.427 -0.0612  0.1051 -1.4121
32738SOL    HW1 7182   9.139   9.377   8.375  1.7413  1.1418  1.5642
32738SOL    HW2 7183   9.021   9.419   8.459 -1.8782 -0.5364 -2.3230
32739SOL     OW 7184  10.407   4.524   8.611 -0.1435 -0.2791 -0.4168
32739SOL    HW1 7185  10.398   4.534   8.516 -0.8437  0.8889 -0.2526
32739SOL    HW2 7186  10.340   4.460   8.635 -0.5501  0.0631 -0.6169
32740SOL     OW 7187   3.924   5.615   8.533  0.3752 -0.2917 -0.3885
32740SOL    HW1 7188   3.996   5.560   8.502 -1.1974 -2.2416 -0.7979
32740SOL    HW2 7189   3.951   5.643   8.621  1.2102 -1.7991 -0.1323
32741SOL     OW 7190   1.685   5.025   7.854  0.2313  0.4058  0.0962
32741SOL    HW1 7191   1.597   5.038   7.889  0.9599  1.4682  1.6394
32741SOL    HW2 7192   1.675   4.953   7.791 -2.0142  1.4912 -0.9175
32742SOL     OW 7193  11.025   9.009   3.997 -0.7061  0.0389  0.3151
32742SOL    HW1 7194  11.070   8.948   3.939 -0.4218  0.4134  0.1373
32742SOL    HW2 7195  11.071   9.092   3.985 -0.8938  0.2147  0.7849
32743SOL     OW 7196   6.241   9.801   3.048  0.2560  0.4033  0.1910
32743SOL    HW1 7197   6.315   9.749   3.079  2.2462  2.3428 -0.9960
32743SOL    HW2 7198   6.196   9.828   3.128 -0.5441 -2.5491  0.8574
32744SOL     OW 7199  10.837   0.058  11.210  0.0013 -0.3029 -0.0622
32744SOL    HW1 7200  10.814   0.094  11.124 -0.3349  0.1353  0.2091
32744SOL    HW2 7201  10.933   0.057  11.210  0.1244  2.4909  0.6704
32745SOL     OW 7202  11.909  12.011  11.358 -0.6551  0.6778 -0.4176
32745SOL    HW1 7203  11.877  11.936  11.309  0.1030 -0.0791  0.2093
32745SOL    HW2 7204  11.833  12.069  11.367 -1.2796 -0.0705 -0.7885
32746SOL     OW 7205   1.045   2.599   1.953 -0.0794  0.4871  0.3878
32746SOL    HW1 7206   1.059   2.584   2.046 -1.7375  0.2966  0.6334
32746SOL    HW2 7207   0.991   2.678   1.949 -1.5323 -0.5041 -0.3042
32747SOL     OW 7208   6.417   5.842   2.372  0.0570 -0.1370  0.1922
32747SOL    HW1 7209   6.398   5.783   2.298 -0.5940  0.2848  0.0191
32747SOL    HW2 7210   6.512   5.847   2.374  0.1113 -0.8706 -0.0527
32748SOL     OW 7211  10.050   2.391   0.296 -0.0620 -0.3246 -0.3629
32748SOL    HW1 7212  10.043   2.296   0.288  0.3255 -0.7899  3.0061
32748SOL    HW2 7213  10.077   2.421   0.210  0.9235 -3.4005 -1.2576
32749SOL     OW 7214   2.319   0.674   3.567 -0.0547  0.1535  0.1688
32749SOL    HW1 7215   2.282   0.588   3.587  0.6980 -0.2194 -0.0013
32749SOL    HW2 7216   2.412   0.656   3.548  0.4186  1.1554  1.3964
32750SOL     OW 7217   7.783   4.353   6.847  0.4612  0.5039  1.1089
32750SOL    HW1 7218   7.747   4.317   6.928 -0.6906  0.8352  0.7771
32750SOL    HW2 7219   7.781   4.280   6.785  0.6007  0.4522  1.1663
32751SOL     OW 7220   3.584   5.060   3.206  0.4723  0.0775 -0.0414
32751SOL    HW1 7221   3.498   5.078   3.167 -0.0381 -2.3510 -0.1845
32751SOL    HW2 7222   3.634   5.018   3.136  0.6210 -1.4910  0.9683
32752SOL     OW 7223   5.966   3.352   1.214 -0.3081 -0.3664 -0.0570
32752SOL    HW1 7224   5.999   3.262   1.208  2.7165  0.5814  0.7704
32752SOL    HW2 7225   5.886   3.351   1.162  0.7434 -3.0396 -1.8619
32753SOL     OW 7226   6.211   2.037  12.163 -0.0506 -0.3477 -0.4565
32753SOL    HW1 7227   6.140   2.054  12.225  1.1748  1.1535  0.6350
32753SOL    HW2 7228   6.168   2.021  12.080 -1.6558  1.7500 -0.1047
32754SOL     OW 7229   3.814   0.866   5.468 -0.6890 -0.1192 -0.6020
32754SOL    HW1 7230   3.899   0.907   5.482 -0.5187 -0.3722 -0.8789
32754SOL    HW2 7231   3.753   0.918   5.520 -0.5917  0.8682 -1.4553
32755SOL     OW 7232   8.964  11.271   0.888  0.4193 -0.0065  0.2309
32755SOL    HW1 7233   8.930  11.352   0.927  1.4400  0.4982  0.0858
32755SOL    HW2 7234   8.983  11.214   0.964 -0.6522 -0.2764  0.3189
32756SOL     OW 7235  11.528  11.430   5.774 -0.0124 -0.1989 -0.0696
32756SOL    HW1 7236  11.617  11.454   5.799 -0.5003  0.6507  0.9421
32756SOL    HW2 7237  11.488  11.399   5.855 -1.0628  0.8148 -0.1709
32757SOL     OW 7238  10.030   4.047  10.855 -0.1608  0.5678  0.1378
32757SOL    HW1 7239   9.947   4.065  10.900 -0.4252 -0.7734  0.2227
32757SOL    HW2 7240  10.061   3.965  10.894  0.7764  0.5976 -0.5138
32758SOL     OW 7241   2.469  10.501   5.909  0.4874  0.0734 -0.0262
32758SOL    HW1 7242   2.434  10.590   5.922  2.0091  0.7778 -0.5950
32758SOL    HW2 7243   2.504  10.502   5.820  3.1236 -0.1579  0.9329
32759SOL     OW 7244  11.084   9.137   8.226 -0.1454  0.1651 -0.0134
32759SOL    HW1 7245  11.050   9.135   8.136  0.6022 -1.1566 -0.2909
32759SOL    HW2 7246  11.019   9.091   8.278 -1.7586  2.9353  0.6169
32760SOL     OW 7247   9.166   6.956   7.770 -0.0304 -0.2800  0.2545
32760SOL    HW1 7248   9.088   6.991   7.727 -1.8786 -1.6602  2.2346
32760SOL    HW2 7249   9.197   7.028   7.826 -0.7577 -0.1727  0.5276
32761SOL     OW 7250  10.975   8.251   2.136 -0.2413 -0.4078 -0.7919
32761SOL    HW1 7251  10.972   8.221   2.045  0.8719  0.9461 -1.3029
32761SOL    HW2 7252  11.067   8.246   2.160 -0.1442  1.5391 -0.5788
32762SOL     OW 7253  10.264  11.272   7.374 -0.0691 -0.3078  0.1770
32762SOL    HW1 7254  10.285  11.200   7.433  1.2015 -0.5978 -0.5884
32762SOL    HW2 7255  10.260  11.232   7.287 -0.3098  0.3798 -0.1387
32763SOL     OW 7256   1.902  10.582   6.397  0.3493 -0.4273 -0.3299
32763SOL    HW1 7257   1.896  10.649   6.465 -2.5202  0.9305 -1.7383
32763SOL    HW2 7258   1.833  10.520   6.419  1.7192 -1.9292 -0.1191
32764SOL     OW 7259   7.348   7.347   2.415 -0.6192 -0.1063 -0.2300
32764SOL    HW1 7260   7.253   7.355   2.422 -0.6253  0.7078 -1.0037
32764SOL    HW2 7261   7.361   7.275   2.352 -0.6979 -0.7715  0.4979
32765SOL     OW 7262   7.524   3.238   0.147  0.2690  0.2826 -0.5178
32765SOL    HW1 7263   7.530   3.151   0.108 -0.3222 -1.1043  2.1854
32765SOL    HW2 7264   7.613   3.256   0.179 -0.0392 -0.4014  0.8434
32766SOL     OW 7265  11.023  10.286   6.519 -0.3711  0.4666  0.1141
32766SOL    HW1 7266  10.962  10.248   6.582  1.1038 -1.0600  0.6780
32766SOL    HW2 7267  11.085  10.336   6.573 -0.4245  1.0576 -0.3557
32767SOL     OW 7268   9.335  11.887   4.588 -0.0337  0.1252  0.1917
32767SOL    HW1 7269   9.256  11.870   4.639  0.8321  0.0207  1.5486
32767SOL    HW2 7270   9.323  11.836   4.508 -1.1208 -0.2840  0.5972
32768SOL     OW 7271   7.442   1.369   4.518 -1.2221  0.1075 -0.0489
32768SOL    HW1 7272   7.384   1.310   4.566 -1.0665 -0.7992 -0.9475
32768SOL    HW2 7273   7.475   1.317   4.446 -0.8140  1.2064 -0.6822
32769SOL     OW 7274   3.239   6.472  10.494 -0.3447  0.1666  0.1620
32769SOL    HW1 7275   3.274   6.413  10.561 -2.3860 -0.8845  0.3725
32769SOL    HW2 7276   3.223   6.415  10.418  1.3323  1.2281 -1.0643
32770SOL     OW 7277   3.918   1.776  11.329 -0.4678 -0.2594  0.3724
32770SOL    HW1 7278   3.983   1.731  11.384  1.5509  2.6168  0.5869
32770SOL    HW2 7279   3.916   1.725  11.248  0.7639 -1.4138  1.0311
32771SOL     OW 7280   3.360  11.047   3.028 -0.5196  0.3841  0.4785
32771SOL    HW1 7281   3.408  11.073   3.107  1.4852 -0.8038 -0.2700
32771SOL    HW2 7282   3.281  11.102   3.029 -0.7774  0.1356  3.4706
32772SOL     OW 7283   7.656   8.224   4.194  0.0185  0.1415  0.2980
32772SOL    HW1 7284   7.588   8.246   4.130 -0.3957 -0.2838  0.5849
32772SOL    HW2 7285   7.719   8.296   4.188 -1.8508  2.0366  2.0686
32773SOL     OW 7286   8.174  11.845   7.822  0.0168  0.2651  0.6382
32773SOL    HW1 7287   8.140  11.931   7.847 -3.6620 -1.1310  1.0623
32773SOL    HW2 7288   8.162  11.842   7.727  0.0432  0.2054  0.6373
32774SOL     OW 7289   2.690   3.419   5.428  0.0754 -0.3796  0.1335
32774SOL    HW1 7290   2.781   3.427   5.399  0.2165 -2.2029 -0.0590
32774SOL    HW2 7291   2.639   3.422   5.346 -0.1220  1.2238  0.2827
32775SOL     OW 7292   6.745   0.964   0.911  0.1009  0.9108 -0.6992
32775SOL    HW1 7293   6.758   1.026   0.983 -0.3405  1.7396 -1.3262
32775SOL    HW2 7294   6.799   0.998   0.840 -0.2493  0.6434 -1.0932
32776SOL     OW 7295   8.181   3.030  10.855  0.2805  0.3233  0.3574
32776SOL    HW1 7296   8.103   2.990  10.818 -0.9065  0.4699  2.5143
32776SOL    HW2 7297   8.161   3.124  10.856  1.6925  0.7127 -1.6397
32777SOL     OW 7298   3.108   0.408   4.299 -0.2576 -0.0401  0.0240
32777SOL    HW1 7299   3.018   0.410   4.267 -0.1872 -0.6424 -0.2291
32777SOL    HW2 7300   3.161   0.435   4.225  0.0640 -3.1814 -1.0407
32778SOL     OW 7301   7.329   3.000   8.976 -0.5641 -0.0451  0.0287
32778SOL    HW1 7302   7.243   3.003   9.018  0.3524 -2.1658  2.3527
32778SOL    HW2 7303   7.311   2.987   8.883 -2.7535 -0.5855  0.4803
32779SOL     OW 7304  11.123   7.528   8.357 -0.4483  0.4691 -0.9118
32779SOL    HW1 7305  11.153   7.600   8.413 -1.8435  0.2134  0.2191
32779SOL    HW2 7306  11.070   7.473   8.415 -0.9573 -0.4579 -2.2103
32780SOL     OW 7307   1.709   7.606   0.998  0.1015  0.3987 -0.3428
32780SOL    HW1 7308   1.707   7.698   1.025  0.1287  0.4022 -0.3529
32780SOL    HW2 7309   1.792   7.573   1.032 -0.8534 -0.2057  1.5608
32781SOL     OW 7310   1.675   8.339   4.095  0.4012 -0.5022  0.3970
32781SOL    HW1 7311   1.624   8.303   4.167  0.8968  0.8015  1.4425
32781SOL    HW2 7312   1.611   8.384   4.040  0.2696  0.3728  1.2311
32782SOL     OW 7313   2.228   8.619   4.923  0.0426 -0.2430 -1.0441
32782SOL    HW1 7314   2.169   8.653   4.990  0.7432 -0.3238 -0.3673
32782SOL    HW2 7315   2.182   8.544   4.886  0.3544 -1.2786  0.5789
32783SOL     OW 7316   2.955  11.626  11.264  0.3251  0.4516  0.0230
32783SOL    HW1 7317   3.018  11.695  11.287 -0.7896  1.1275  1.1623
32783SOL    HW2 7318   2.902  11.615  11.342 -0.0127 -1.1877 -0.4158
32784SOL     OW 7319   6.618  10.183  11.075  0.1170 -0.2571  0.1366
32784SOL    HW1 7320   6.692  10.123  11.077  1.0511  0.8391 -0.4188
32784SOL    HW2 7321   6.652  10.266  11.108 -1.5779 -0.4046  2.5904
32785SOL     OW 7322   7.669  10.337   1.154 -0.1301  0.7692 -0.3326
32785SOL    HW1 7323   7.594  10.346   1.212 -0.0973 -2.2446  0.3014
32785SOL    HW2 7324   7.644  10.268   1.093  1.3299  1.2284 -1.5089
32786SOL     OW 7325   8.678  10.200   1.856 -0.0241 -0.0992  0.3262
32786SOL    HW1 7326   8.624  10.193   1.777  0.1266  0.6288  0.1542
32786SOL    HW2 7327   8.668  10.115   1.899 -1.6777  0.1675  0.5294
32787SOL     OW 7328   1.683   4.319  11.896  0.0660  0.2945  0.3048
32787SOL    HW1 7329   1.624   4.283  11.830  1.0470 -1.8865  0.5231
32787SOL    HW2 7330   1.631   4.385  11.941 -1.9368 -0.9551 -0.0553
32788SOL     OW 7331   2.312   3.302   1.972  0.7245 -0.5354  0.0547
32788SOL    HW1 7332   2.255   3.334   1.902  1.0059  0.4080  0.2388
32788SOL    HW2 7333   2.352   3.223   1.936  0.7282 -0.1607 -0.7832
32789SOL     OW 7334   5.856   8.099  11.598 -0.3869  0.4242 -0.3961
32789SOL    HW1 7335   5.898   8.169  11.548  0.2699 -0.3565 -0.9584
32789SOL    HW2 7336   5.863   8.022  11.542 -0.1172 -0.3451  0.6595
32790SOL     OW 7337   4.926  10.114   0.542  0.3147  0.3598 -0.1701
32790SOL    HW1 7338   4.885  10.056   0.478  0.0021 -1.9282  1.9338
32790SOL    HW2 7339   4.894  10.201   0.520 -1.4839 -0.6315 -1.7801
32791SOL     OW 7340   9.585   4.732   9.514 -0.1569  0.0232 -0.7322
32791SOL    HW1 7341   9.667   4.778   9.527  0.3322 -0.8302 -0.6977
32791SOL    HW2 7342   9.596   4.686   9.430 -0.7504  0.2148 -0.9224
32792SOL     OW 7343   9.755   1.337   1.823 -1.0070  0.8228 -0.2069
32792SOL    HW1 7344   9.751   1.287   1.905  1.8798 -0.5260 -0.7839
32792SOL    HW2 7345   9.808   1.414   1.845 -1.2790  1.1100 -0.5387
32793SOL     OW 7346   4.549   4.953   2.372  0.0858  0.6266  0.7382
32793SOL    HW1 7347   4.550   5.042   2.336  2.2702  0.2119 -0.4131
32793SOL    HW2 7348   4.498   4.902   2.309  0.3443  0.7376  0.4322
32794SOL     OW 7349   1.703   4.024   5.993 -0.7552  0.3337  0.0258
32794SOL    HW1 7350   1.760   4.101   5.999  0.5437 -0.5816 -0.0938
32794SOL    HW2 7351   1.648   4.028   6.071  2.6730 -1.1654  2.8027
32795SOL     OW 7352   7.763   0.874   3.780  0.1775 -0.0238 -0.0440
32795SOL    HW1 7353   7.690   0.931   3.804  0.5306  0.3100  0.2291
32795SOL    HW2 7354   7.731   0.785   3.798 -0.7745 -0.0157 -1.4737
32796SOL     OW 7355  11.021  11.893   2.773  0.3905 -0.0541  0.0353
32796SOL    HW1 7356  11.050  11.918   2.861 -2.4584 -0.9954  1.3723
32796SOL    HW2 7357  10.956  11.960   2.750 -0.4363 -0.9868 -0.3916
32797SOL     OW 7358  10.446  10.485   5.197 -0.3789 -0.5126  0.1103
32797SOL    HW1 7359  10.516  10.465   5.135  0.6602  0.1351  1.0337
32797SOL    HW2 7360  10.383  10.537   5.146  1.4178  1.7550  0.0218
32798SOL     OW 7361  11.186   9.305  10.408 -0.1466  0.0299 -0.0141
32798SOL    HW1 7362  11.176   9.215  10.378 -0.3143  0.4396 -1.2413
32798SOL    HW2 7363  11.125   9.313  10.481 -0.3209 -0.7730 -0.0626
32799SOL     OW 7364  12.439   7.794   0.842  0.0064  0.4555 -0.1723
32799SOL    HW1 7365  12.398   7.715   0.876  1.4560  0.4288  1.6926
32799SOL    HW2 7366  12.413   7.797   0.750 -1.6395 -1.1330  0.1823
32800SOL     OW 7367   1.817   4.424   3.722  0.2181  0.6322  0.2860
32800SOL    HW1 7368   1.725   4.417   3.746  0.4952 -1.6837  0.9425
32800SOL    HW2 7369   1.854   4.487   3.784 -1.0137  2.2172 -0.4955
32801SOL     OW 7370  10.319   0.859   5.677 -0.0381  0.2224 -0.0523
32801SOL    HW1 7371  10.353   0.907   5.753 -0.2222 -1.7165  1.3414
32801SOL    HW2 7372  10.395   0.816   5.640 -0.4339 -1.8764  1.3913
32802SOL     OW 7373   5.784  10.985   3.899  0.0479 -0.7231  0.6325
32802SOL    HW1 7374   5.707  10.958   3.948 -0.2542  0.2578  0.7244
32802SOL    HW2 7375   5.780  10.935   3.817  1.0268 -3.0205  1.9190
32803SOL     OW 7376   9.958   8.441   8.745  0.1608  0.2057 -0.3969
32803SOL    HW1 7377  10.048   8.442   8.713 -0.0665  0.0254 -1.0530
32803SOL    HW2 7378   9.951   8.520   8.798  1.6343 -1.3229  2.3130
32804SOL     OW 7379  10.515   1.249   8.308  0.2409  0.1814  0.1005
32804SOL    HW1 7380  10.446   1.286   8.254  1.2617 -0.4771 -1.7311
32804SOL    HW2 7381  10.522   1.158   8.281  2.0472  0.3120 -0.0401
32805SOL     OW 7382   3.683   9.289   3.597 -0.7300 -0.0521 -0.1008
32805SOL    HW1 7383   3.722   9.356   3.653 -1.1454  0.1379 -0.0396
32805SOL    HW2 7384   3.652   9.336   3.520  0.9047 -0.4675 -1.0595
32806SOL     OW 7385   5.008  10.058   6.415  0.1639 -0.2704  0.0060
32806SOL    HW1 7386   5.063   9.985   6.443  1.0551  0.0432 -0.8710
32806SOL    HW2 7387   5.063  10.136   6.428  0.1263  0.0010 -1.3397
32807SOL     OW 7388  11.289   8.056   4.699  0.1922  0.0697  0.0198
32807SOL    HW1 7389  11.294   7.961   4.697  0.4453 -0.0080  2.1021
32807SOL    HW2 7390  11.262   8.081   4.611 -0.4507 -1.9625 -0.4024
32808SOL     OW 7391   8.343  11.073   6.427  0.4723 -0.4494  0.0589
32808SOL    HW1 7392   8.251  11.047   6.424  0.1190  0.3996  2.0869
32808SOL    HW2 7393   8.392  10.991   6.425 -0.3074 -0.9151 -0.7863
32809SOL     OW 7394  10.751   2.859   9.085 -0.1390 -0.4280 -0.2576
32809SOL    HW1 7395  10.690   2.808   9.032 -0.4940  1.4047 -1.7061
32809SOL    HW2 7396  10.742   2.949   9.053  2.9029  0.0237 -0.1067
32810SOL     OW 7397   9.419   6.267   4.021  0.1470 -0.1248 -0.2377
32810SOL    HW1 7398   9.444   6.324   4.094 -1.1121 -1.1450  1.0527
32810SOL    HW2 7399   9.462   6.184   4.039  0.9802  0.0150 -1.4521
32811SOL     OW 7400   9.362   1.276   4.212  0.1616 -0.1870 -0.1191
32811SOL    HW1 7401   9.411   1.357   4.226 -1.4532  0.9275 -0.5715
32811SOL    HW2 7402   9.381   1.252   4.121  0.8102 -0.4479  0.0799
32812SOL     OW 7403   8.603   9.385   8.063 -0.0312  0.1564  0.3303
32812SOL    HW1 7404   8.691   9.360   8.037  0.9677  1.4286  2.2095
32812SOL    HW2 7405   8.610   9.477   8.087 -2.3959  0.9133 -1.5155
32813SOL     OW 7406   3.332  11.379   1.541 -0.2320  0.2031 -0.8354
32813SOL    HW1 7407   3.310  11.331   1.461 -1.6561 -1.2002  0.3328
32813SOL    HW2 7408   3.320  11.314   1.611  0.1428  1.6291  0.5938
32814SOL     OW 7409   4.845  10.079  11.508  0.3106 -0.1109  0.2458
32814SOL    HW1 7410   4.911  10.012  11.525  0.1841 -0.0335  1.0655
32814SOL    HW2 7411   4.875  10.156  11.557 -0.3513 -0.0564  0.5753
32815SOL     OW 7412   6.187   4.995   3.713  0.2887  0.0069  0.3227
32815SOL    HW1 7413   6.136   5.024   3.789 -0.7050  0.3666 -0.4619
32815SOL    HW2 7414   6.153   4.908   3.692  0.1849  0.1353 -0.0434
32816SOL     OW 7415   1.201   8.964   1.162 -0.6384 -0.3656  0.0790
32816SOL    HW1 7416   1.272   8.995   1.217 -0.9485 -1.2176  0.9962
32816SOL    HW2 7417   1.244   8.906   1.098 -0.2191  0.9794 -0.9001
32817SOL     OW 7418  10.036  10.779  11.775 -0.5100  0.3032 -0.2191
32817SOL    HW1 7419  10.015  10.862  11.817 -1.5180  0.2980 -0.6785
32817SOL    HW2 7420  10.127  10.761  11.800 -0.2992  1.5103 -0.0779
32818SOL     OW 7421   0.269   9.204   7.408 -0.4476 -0.1124  0.1837
32818SOL    HW1 7422   0.294   9.161   7.325 -0.6900  0.7465 -0.3450
32818SOL    HW2 7423   0.303   9.145   7.476  0.4515 -0.4405 -0.5189
32819SOL     OW 7424   6.324  11.171   9.696  0.0437  0.0232 -0.3217
32819SOL    HW1 7425   6.338  11.080   9.670  2.3890  0.1784  0.2001
32819SOL    HW2 7426   6.318  11.219   9.614 -0.0844 -0.4438 -0.5899
32820SOL     OW 7427   3.247   3.951   3.805 -0.1197  0.0920  0.0935
32820SOL    HW1 7428   3.337   3.929   3.782  0.1731  0.1969  1.0741
32820SOL    HW2 7429   3.193   3.903   3.743  0.5303 -2.0645  1.1239
32821SOL     OW 7430   2.392   9.801   4.150  0.3707  0.4989 -0.0440
32821SOL    HW1 7431   2.309   9.835   4.183 -0.7915 -0.5096 -1.7507
32821SOL    HW2 7432   2.396   9.712   4.184  0.9353  0.6646  0.3230
32822SOL     OW 7433   5.305  10.433   0.961 -0.1772 -0.6850 -0.1288
32822SOL    HW1 7434   5.252  10.356   0.981 -0.9118 -0.4385 -1.0762
32822SOL    HW2 7435   5.318  10.430   0.866 -1.6431  1.2283 -0.4652
32823SOL     OW 7436   8.236   1.174  12.487 -0.1046  0.8303 -0.4975
32823SOL    HW1 7437   8.324   1.140  12.506 -0.6045  0.6228  1.7855
32823SOL    HW2 7438   8.243   1.268  12.504 -0.9606  0.4257  2.9100
32824SOL     OW 7439   5.435  10.007  10.711 -0.0468  0.1484  0.1690
32824SOL    HW1 7440   5.438  10.015  10.807  0.0509  0.2671  0.1563
32824SOL    HW2 7441   5.375  10.075  10.683  0.2022  0.3505  0.1192
32825SOL     OW 7442  10.536   1.246   8.748 -0.2488 -0.3645  0.0740
32825SOL    HW1 7443  10.516   1.173   8.807  0.3175  0.0141  0.7424
32825SOL    HW2 7444  10.611   1.289   8.788  0.8191 -0.7096 -1.4821
32826SOL     OW 7445  10.296   6.475   6.998  0.0319  0.7119 -0.2679
32826SOL    HW1 7446  10.295   6.571   7.000  0.4285  0.7148  0.3538
32826SOL    HW2 7447  10.299   6.450   7.091  1.4478  0.1281 -0.4527
32827SOL     OW 7448   2.576   9.914   6.484 -0.0133 -0.2471  0.1311
32827SOL    HW1 7449   2.485   9.887   6.488  0.1010 -0.5431  0.7045
32827SOL    HW2 7450   2.584   9.957   6.398 -0.6722 -0.2618  0.0584
32828SOL     OW 7451  10.751   1.687   1.341  0.1719 -0.6599 -0.3961
32828SOL    HW1 7452  10.843   1.673   1.321  0.5654  0.7286  0.3022
32828SOL    HW2 7453  10.747   1.776   1.376 -1.1900 -1.2540  1.1201
32829SOL     OW 7454   9.794   5.382   1.668 -0.0278  0.3711 -0.5662
32829SOL    HW1 7455   9.759   5.471   1.668  2.0556  1.2776  1.1955
32829SOL    HW2 7456   9.767   5.345   1.752 -2.4491 -1.4242 -2.0201
32830SOL     OW 7457   6.389   0.106   2.204 -0.0099  0.1049  0.0748
32830SOL    HW1 7458   6.294   0.112   2.202  0.0100  1.6022  1.5568
32830SOL    HW2 7459   6.408   0.015   2.182 -1.6946  0.0841 -1.5407
32831SOL     OW 7460   3.341  12.037   7.415  0.2676  0.0255 -0.6428
32831SOL    HW1 7461   3.288  12.106   7.455  0.8974  1.3566 -2.0001
32831SOL    HW2 7462   3.423  12.038   7.466 -0.1729 -0.5580  0.0933
32832SOL     OW 7463   1.562   2.360  12.553 -0.1247  0.3140 -0.2535
32832SOL    HW1 7464   1.537   2.305  12.627 -0.6064  2.8077  1.5725
32832SOL    HW2 7465   1.518   2.321  12.477 -1.0118 -1.3399  1.0596
32833SOL     OW 7466   7.580   0.107   4.076  0.2921  0.0489 -0.3425
32833SOL    HW1 7467   7.584   0.150   3.991 -0.5091 -0.0398 -0.4350
32833SOL    HW2 7468   7.596   0.015   4.056  0.1276  0.0316 -0.3976
32834SOL     OW 7469   6.439  10.402   9.538  0.3085  0.2320 -0.7933
32834SOL    HW1 7470   6.526  10.437   9.516  0.6885  0.9568  1.6188
32834SOL    HW2 7471   6.456  10.309   9.559  0.9345  0.8061  1.5732
32835SOL     OW 7472  11.447   7.123   9.417 -0.2930 -0.5820  0.2043
32835SOL    HW1 7473  11.512   7.070   9.463  0.9428 -0.4288 -1.3009
32835SOL    HW2 7474  11.453   7.095   9.325 -0.7638  1.0100 -0.3446
32836SOL     OW 7475   3.247   1.975  11.144 -0.3306 -0.1722 -0.0536
32836SOL    HW1 7476   3.299   1.962  11.224 -0.6358 -3.1831 -0.2633
32836SOL    HW2 7477   3.168   1.924  11.158 -0.9817  0.3129 -1.7783
32837SOL     OW 7478   7.443   2.946   3.238 -0.1668 -1.0269 -0.2014
32837SOL    HW1 7479   7.472   2.932   3.149 -1.9896  2.7661 -1.6275
32837SOL    HW2 7480   7.381   3.019   3.232 -1.9773 -1.9091  3.9066
32838SOL     OW 7481  12.212   2.831   7.684 -0.0184 -0.0685  0.2714
32838SOL    HW1 7482  12.154   2.801   7.615 -0.2149 -0.5544  0.6461
32838SOL    HW2 7483  12.213   2.926   7.675  0.9329 -0.1830 -1.1891
32839SOL     OW 7484   4.892   9.978   0.787 -0.3368 -0.1813 -0.6370
32839SOL    HW1 7485   4.920  10.022   0.706  1.0380 -0.8928 -0.5761
32839SOL    HW2 7486   4.836   9.907   0.757  0.1592 -0.4374 -0.9680
32840SOL     OW 7487  10.986   8.166   3.872 -0.3035  0.7939  0.2935
32840SOL    HW1 7488  11.073   8.202   3.887  0.4578 -0.7317 -0.2488
32840SOL    HW2 7489  10.992   8.075   3.900 -1.1763  0.1470 -1.4450
32841SOL     OW 7490   7.027   8.763   9.070  0.1015  0.0303  0.1758
32841SOL    HW1 7491   7.033   8.810   8.987  0.0974 -0.5556 -0.1623
32841SOL    HW2 7492   6.941   8.721   9.068  0.7925 -1.4523 -0.3342
32842SOL     OW 7493   7.590   2.876   1.939 -0.1142 -0.2537  0.4972
32842SOL    HW1 7494   7.658   2.906   1.879  0.4792 -0.5700  0.9963
32842SOL    HW2 7495   7.534   2.953   1.953  0.7513  0.3124  0.9034
32843SOL     OW 7496   3.895   6.654   3.460  0.3995  0.4025  0.4512
32843SOL    HW1 7497   3.881   6.573   3.510  1.1017 -0.1127 -0.1613
32843SOL    HW2 7498   3.912   6.624   3.370  0.3135  1.2541  0.1382
32844SOL     OW 7499   6.612   2.645   5.605 -0.3214  0.3468 -0.7822
32844SOL    HW1 7500   6.551   2.674   5.673 -0.6822 -0.4426 -0.7572
32844SOL    HW2 7501   6.567   2.574   5.560  0.5437 -0.1983 -0.8209
32845SOL     OW 7502   7.872   8.606  11.729  0.0537  0.3028 -0.8721
32845SOL    HW1 7503   7.921   8.680  11.694  1.5479  0.6836  1.7459
32845SOL    HW2 7504   7.934   8.534  11.731 -0.7712 -0.4421 -1.4246
32846SOL     OW 7505   0.785   7.569   6.927  0.2848  0.2872  0.0756
32846SOL    HW1 7506   0.795   7.484   6.971 -0.0184  1.1031  1.8023
32846SOL    HW2 7507   0.729   7.550   6.852  1.3753 -1.2826 -0.3896
32847SOL     OW 7508   5.912   2.265   0.898  0.4264  0.7634 -0.1989
32847SOL    HW1 7509   5.999   2.303   0.891  0.6065  0.2787 -0.6938
32847SOL    HW2 7510   5.861   2.309   0.830  0.6440  0.1062 -0.7940
32848SOL     OW 7511   2.424   1.000  11.498  0.1434  0.1572 -0.1282
32848SOL    HW1 7512   2.508   1.034  11.468 -0.7839  1.5037 -1.3673
32848SOL    HW2 7513   2.378   1.078  11.530 -0.7706 -0.5028  0.1833
32849SOL     OW 7514   6.753   0.933  12.389 -0.3416 -0.7791  0.0805
32849SOL    HW1 7515   6.705   0.927  12.472  0.1981  0.8877  0.5575
32849SOL    HW2 7516   6.803   1.014  12.396  1.0020 -1.4466 -1.2249
32850SOL     OW 7517   1.947   8.577  12.349 -0.9096 -0.4157 -0.0883
32850SOL    HW1 7518   1.904   8.514  12.407 -2.0477  0.0408 -0.4117
32850SOL    HW2 7519   1.878   8.606  12.289 -0.4451  1.2633  0.1504
32851SOL     OW 7520   3.862   0.726   8.117 -0.4390  0.3519 -0.0105
32851SOL    HW1 7521   3.818   0.681   8.189  1.7928  1.1904  2.0264
32851SOL    HW2 7522   3.796   0.732   8.048 -2.4787 -1.1149  1.6791
32852SOL     OW 7523   1.493  10.690   7.958 -0.9356 -0.1766  0.0730
32852SOL    HW1 7524   1.477  10.748   8.032  1.4277 -0.4162  0.8289
32852SOL    HW2 7525   1.492  10.749   7.882  0.1802  0.6797  0.6921
32853SOL     OW 7526   0.092  10.108   3.084 -0.5183 -0.5087  0.4213
32853SOL    HW1 7527   0.157  10.117   3.014  0.5818  0.5007  1.5248
32853SOL    HW2 7528   0.109  10.022   3.122  1.3807  0.4123  1.8078
32854SOL     OW 7529   7.716   0.768  11.920  0.3436  0.1063 -0.0012
32854SOL    HW1 7530   7.697   0.845  11.973  0.5602  0.3139 -0.2250
32854SOL    HW2 7531   7.746   0.803  11.836  0.0293 -0.2203 -0.2541
32855SOL     OW 7532   1.694   8.514   0.454  0.0445  0.1129 -0.0959
32855SOL    HW1 7533   1.637   8.584   0.486 -1.7466 -1.4168  0.2372
32855SOL    HW2 7534   1.661   8.494   0.366  1.1252  0.2565 -0.5587
32856SOL     OW 7535   5.518  12.334   6.423 -0.2231  0.4839 -0.1590
32856SOL    HW1 7536   5.599  12.384   6.419  0.9496 -1.3885 -2.1518
32856SOL    HW2 7537   5.480  12.344   6.336 -1.1236 -0.2490  0.1406
32857SOL     OW 7538   9.357   4.558   1.459  0.2711 -0.4789  0.4263
32857SOL    HW1 7539   9.283   4.576   1.518  0.5950 -1.6198  1.2096
32857SOL    HW2 7540   9.328   4.484   1.407  0.0697  0.3955 -0.7411
32858SOL     OW 7541   7.102   8.792   8.340  0.0982  0.7016  0.0526
32858SOL    HW1 7542   7.117   8.728   8.410  0.4300  1.2328  0.4710
32858SOL    HW2 7543   7.135   8.749   8.262  1.5242  0.8530  0.5431
32859SOL     OW 7544   5.661   8.129   1.867  0.3318 -0.1885 -0.4219
32859SOL    HW1 7545   5.711   8.047   1.868 -0.2035 -0.5222  1.1104
32859SOL    HW2 7546   5.642   8.147   1.959  0.6239  1.7971 -0.6991
32860SOL     OW 7547   2.018  10.913   3.469 -0.9126  0.2433  0.5859
32860SOL    HW1 7548   1.992  10.909   3.560 -1.8357  2.3928  0.4550
32860SOL    HW2 7549   2.048  10.824   3.449 -0.3156 -0.1821  3.0535
32861SOL     OW 7550   1.341   9.366   1.380 -0.3497 -0.0875  0.0199
32861SOL    HW1 7551   1.382   9.436   1.328  0.5658 -1.1412 -0.7363
32861SOL    HW2 7552   1.247   9.378   1.367 -0.1543 -0.5825 -2.3191
32862SOL     OW 7553   8.525  12.250   8.016  0.2077 -0.3705 -0.1802
32862SOL    HW1 7554   8.500  12.195   8.091  2.5975 -1.4694 -0.0950
32862SOL    HW2 7555   8.519  12.340   8.050 -0.2863 -0.7617  0.8210
32863SOL     OW 7556   6.935  11.701   1.575 -0.8113 -0.2937 -0.2856
32863SOL    HW1 7557   6.856  11.653   1.552 -0.3777 -1.0254 -0.2962
32863SOL    HW2 7558   6.905  11.774   1.630 -1.8833  1.5348 -3.1077
32864SOL     OW 7559   6.200   0.650   0.742 -0.4614  0.4241 -0.6412
32864SOL    HW1 7560   6.266   0.682   0.681 -1.1451  3.2039 -0.0423
32864SOL    HW2 7561   6.126   0.709   0.731 -1.8245 -0.9714  0.6234
32865SOL     OW 7562   0.287   0.505   4.756  0.6019  0.1327 -0.1391
32865SOL    HW1 7563   0.234   0.472   4.684  1.3720 -0.7523 -0.3061
32865SOL    HW2 7564   0.365   0.542   4.715  0.4762  0.7509  0.1599
32866SOL     OW 7565   7.068  11.249   0.179 -0.0584  0.7288 -0.1310
32866SOL    HW1 7566   7.160  11.271   0.193  0.2332 -0.0494 -0.7685
32866SOL    HW2 7567   7.022  11.293   0.251  0.8476  0.8071  0.4189
32867SOL     OW 7568   1.479  11.297   2.781  0.1045 -0.3121 -0.0233
32867SOL    HW1 7569   1.467  11.380   2.827 -0.9828 -1.2966  1.5751
32867SOL    HW2 7570   1.424  11.304   2.703 -0.1330  0.3981  0.2014
32868SOL     OW 7571   3.982  12.244   2.617 -0.6398 -0.2035  0.1585
32868SOL    HW1 7572   3.957  12.153   2.606 -2.8406  0.1360  1.6039
32868SOL    HW2 7573   4.074  12.248   2.593 -1.1219 -2.2785 -2.4098
32869SOL     OW 7574   1.939   3.495   9.886  0.1954 -0.2865 -0.7878
32869SOL    HW1 7575   1.969   3.409   9.915 -3.8689 -1.8341 -0.5232
32869SOL    HW2 7576   1.947   3.492   9.791  0.8264 -0.6043 -0.7324
32870SOL     OW 7577   5.827   1.937   0.679  0.3090 -0.4660  0.2871
32870SOL    HW1 7578   5.750   1.992   0.664  0.2920 -0.7402 -0.7097
32870SOL    HW2 7579   5.800   1.850   0.650  0.5040 -0.8985  1.3796
32871SOL     OW 7580   4.305  10.487   7.249 -0.1761  0.4884  0.3953
32871SOL    HW1 7581   4.325  10.400   7.283  3.6574  0.9658 -0.0905
32871SOL    HW2 7582   4.384  10.538   7.267 -0.6752  2.7247 -2.8525
32872SOL     OW 7583   1.163   0.587   2.119 -0.3503 -0.9523 -0.3052
32872SOL    HW1 7584   1.127   0.530   2.050  1.0631 -0.7186 -1.2707
32872SOL    HW2 7585   1.097   0.655   2.130 -0.5633 -0.9212 -1.5355
32873SOL     OW 7586   1.119  11.067   9.250 -0.4975 -0.3279 -0.0664
32873SOL    HW1 7587   1.024  11.065   9.238 -0.3442 -0.5550 -1.4367
32873SOL    HW2 7588   1.142  11.160   9.241 -0.3303 -0.5291 -2.4453
32874SOL     OW 7589  10.530   8.857   4.892 -0.4192 -0.0704  0.5196
32874SOL    HW1 7590  10.522   8.832   4.984  0.7998 -3.0472 -0.0384
32874SOL    HW2 7591  10.605   8.916   4.889  0.1980 -0.7925  1.3329
32875SOL     OW 7592  10.654   5.606   0.064 -0.4401  0.6041  0.4531
32875SOL    HW1 7593  10.644   5.638  -0.026 -0.8779  0.5465  0.4781
32875SOL    HW2 7594  10.632   5.513   0.060 -1.4902  0.8225  0.7970
32876SOL     OW 7595   7.663  12.560   7.929  0.0389  0.2903  0.3772
32876SOL    HW1 7596   7.740  12.543   7.874 -0.5510  0.1662 -0.4199
32876SOL    HW2 7597   7.629  12.473   7.950 -1.6183  0.3302 -1.7754
32877SOL     OW 7598   5.802   0.393   0.584  0.4145  0.2127 -0.2840
32877SOL    HW1 7599   5.755   0.310   0.581  1.4623 -0.3770 -1.4238
32877SOL    HW2 7600   5.745   0.452   0.633 -0.3860 -1.1546  0.4768
32878SOL     OW 7601  10.430  10.309   3.536  0.0148  0.1609  0.0472
32878SOL    HW1 7602  10.340  10.340   3.547 -0.0312 -0.6492  2.6766
32878SOL    HW2 7603  10.476  10.342   3.613  1.5860 -0.7851 -0.4443
32879SOL     OW 7604   7.535   9.119   5.125 -0.1428  0.3851  0.5230
32879SOL    HW1 7605   7.611   9.073   5.089 -0.9258 -0.7052  0.2140
32879SOL    HW2 7606   7.509   9.181   5.058  0.0862  0.3011  0.3587
32880SOL     OW 7607  12.243   8.649   5.295 -0.4725 -0.4866 -0.2464
32880SOL    HW1 7608  12.164   8.594   5.298 -2.2660  1.9425  0.0749
32880SOL    HW2 7609  12.211   8.738   5.307  2.5228  0.4984  1.4925
32881SOL     OW 7610   8.661  11.889  11.234 -0.5537  0.6600  0.4424
32881SOL    HW1 7611   8.722  11.864  11.304 -2.4504 -0.2282  1.8459
32881SOL    HW2 7612   8.577  11.897  11.277 -1.4039  2.2624 -1.3813
32882SOL     OW 7613   2.952   9.858   7.739  0.1731 -0.1174 -0.3555
32882SOL    HW1 7614   2.858   9.875   7.737  0.0615 -0.6940 -2.6451
32882SOL    HW2 7615   2.989   9.935   7.782 -1.2892  0.3201  0.1887
32883SOL     OW 7616   5.764   0.651  11.211 -0.1804 -0.4774  0.1188
32883SOL    HW1 7617   5.767   0.693  11.298  0.0277  0.5836 -0.3779
32883SOL    HW2 7618   5.685   0.597  11.213  0.6902 -1.7884  1.5387
32884SOL     OW 7619  12.209   5.966   8.884  0.1911  0.1310  0.0540
32884SOL    HW1 7620  12.115   5.954   8.868  0.0108 -0.5847  1.5177
32884SOL    HW2 7621  12.251   5.893   8.838  0.0176  0.2735 -0.3389
32885SOL     OW 7622  11.584  10.508   6.966 -0.1090 -0.4262 -0.1970
32885SOL    HW1 7623  11.611  10.416   6.967 -1.5315 -0.8656  1.8350
32885SOL    HW2 7624  11.498  10.507   6.926 -0.3782 -0.0585  0.3677
32886SOL     OW 7625   5.181   5.242   5.512 -0.1218  0.3298 -0.0567
32886SOL    HW1 7626   5.142   5.272   5.431 -1.2796  0.3347  0.4877
32886SOL    HW2 7627   5.139   5.295   5.580 -0.6949 -1.0732  0.7201
32887SOL     OW 7628   0.036   1.902   3.463  0.0449  0.2988  0.1018
32887SOL    HW1 7629   0.001   1.941   3.383  0.0042  0.6363  0.2807
32887SOL    HW2 7630   0.125   1.936   3.470 -0.0921  0.6077  0.4167
32888SOL     OW 7631   9.330   3.953   0.196 -0.4204 -0.1334 -0.1140
32888SOL    HW1 7632   9.241   3.968   0.162 -0.0285  0.1793 -1.0431
32888SOL    HW2 7633   9.364   3.880   0.144  0.4074  0.7392 -0.8394
32889SOL     OW 7634   5.614  10.659   8.293  1.2321 -0.6632 -0.3531
32889SOL    HW1 7635   5.610  10.578   8.243 -0.2244 -0.4415 -0.6330
32889SOL    HW2 7636   5.526  10.696   8.286  1.4295  0.1458  1.1033
32890SOL     OW 7637   8.530   4.467   5.559  0.0611 -0.3294  0.2712
32890SOL    HW1 7638   8.535   4.513   5.643  1.4294 -0.4151  0.2581
32890SOL    HW2 7639   8.601   4.503   5.507 -2.0343  1.2626 -1.6971
32891SOL     OW 7640   6.624   6.659   4.971  0.1621 -0.5417 -0.2534
32891SOL    HW1 7641   6.673   6.700   5.043 -0.4059 -4.1051  2.4502
32891SOL    HW2 7642   6.689   6.608   4.923  0.1541  0.0141 -0.8685
32892SOL     OW 7643   8.927   8.955   8.504 -0.4464  0.3016  0.0942
32892SOL    HW1 7644   8.946   8.933   8.595 -3.5338 -0.2121  0.7032
32892SOL    HW2 7645   8.933   8.872   8.457  0.5506  0.4707 -0.1162
32893SOL     OW 7646   2.277   9.338   1.625  0.0578 -0.3246  0.1338
32893SOL    HW1 7647   2.270   9.248   1.596 -1.0326 -0.1326 -0.2701
32893SOL    HW2 7648   2.205   9.349   1.687 -1.5980  0.9714 -1.8552
32894SOL     OW 7649  12.041   3.580  10.022 -0.7949  0.4786  0.3019
32894SOL    HW1 7650  11.956   3.547  10.051 -0.6532 -0.8683 -0.7327
32894SOL    HW2 7651  12.070   3.637  10.093 -2.7554  1.3358  0.4736
32895SOL     OW 7652  11.072   8.904   9.596  0.5374 -0.0444  0.8166
32895SOL    HW1 7653  11.099   8.813   9.604  0.1949 -0.1174  1.1812
32895SOL    HW2 7654  11.015   8.906   9.519  1.8782  0.1890 -0.2137
32896SOL     OW 7655  10.564   5.767   0.339  0.2104  0.4364 -0.2529
32896SOL    HW1 7656  10.541   5.707   0.268  1.7968  0.2378 -0.6446
32896SOL    HW2 7657  10.592   5.710   0.410 -0.7556  0.6558  0.3142
32897SOL     OW 7658   2.568   6.806   8.489  0.1977  0.1102  0.6737
32897SOL    HW1 7659   2.477   6.793   8.516  0.6862 -1.3213  1.8148
32897SOL    HW2 7660   2.618   6.750   8.549  1.7998  0.6131 -0.1447
32898SOL     OW 7661   9.595   3.414   4.396 -0.4439  0.1117  0.1668
32898SOL    HW1 7662   9.587   3.506   4.370  1.0222  0.7418  1.7172
32898SOL    HW2 7663   9.687   3.393   4.380 -0.6990 -1.0218  0.0828
32899SOL     OW 7664   9.940   7.887   3.919 -0.2547 -0.0031 -0.5507
32899SOL    HW1 7665   9.889   7.821   3.872 -0.7806 -0.5437  0.7231
32899SOL    HW2 7666   9.885   7.912   3.993  0.5865  0.7284 -0.1497
32900SOL     OW 7667  10.199  12.358   2.019  0.3150 -0.5298 -0.0816
32900SOL    HW1 7668  10.212  12.436   1.964  0.1249  0.1347  0.7978
32900SOL    HW2 7669  10.111  12.328   1.996  0.4351 -0.5648 -0.5119
32901SOL     OW 7670  11.165   6.853   5.906 -0.0800 -0.2529  0.1759
32901SOL    HW1 7671  11.259   6.837   5.892  0.1286  0.7867  0.3316
32901SOL    HW2 7672  11.163   6.914   5.980 -0.8728  0.0778 -0.1224
32902SOL     OW 7673   8.861  10.891   8.919  0.1483  0.2834  0.0914
32902SOL    HW1 7674   8.866  10.824   8.850  0.2731  0.4703 -0.0812
32902SOL    HW2 7675   8.874  10.842   9.000  2.6041  0.3874 -0.1632
32903SOL     OW 7676   0.060   1.349   3.998 -0.2172  0.6099 -0.0994
32903SOL    HW1 7677   0.113   1.287   3.949  1.0928  1.5933  0.0241
32903SOL    HW2 7678   0.079   1.434   3.957 -0.2403  1.2413  1.1590
32904SOL     OW 7679  12.233   6.713   4.465  0.0422  0.1493  0.1739
32904SOL    HW1 7680  12.175   6.679   4.397 -0.5813 -0.9720  1.2266
32904SOL    HW2 7681  12.246   6.639   4.525  0.1910  1.2240  1.5163
32905SOL     OW 7682  11.318  12.375  10.499 -0.2226  0.3132  0.1291
32905SOL    HW1 7683  11.348  12.451  10.549  0.2330 -0.3509  0.8736
32905SOL    HW2 7684  11.256  12.412  10.436 -2.5758  0.9129  2.6042
32906SOL     OW 7685   6.915  11.106  10.953  0.3724 -0.1853 -0.3616
32906SOL    HW1 7686   6.893  11.085  10.863 -1.7842 -1.7806  0.4451
32906SOL    HW2 7687   6.832  11.098  11.001  1.5465  0.0191  1.8606
32907SOL     OW 7688  12.099   1.726  10.628 -0.4816 -0.3191 -0.4290
32907SOL    HW1 7689  12.100   1.799  10.689  0.3551 -1.7316  1.3548
32907SOL    HW2 7690  12.186   1.687  10.635  0.1838  0.3065 -3.6815
32908SOL     OW 7691   0.233  10.649   1.742  0.4646  0.2304 -0.6213
32908SOL    HW1 7692   0.284  10.573   1.771  1.2690  0.9801  0.0064
32908SOL    HW2 7693   0.299  10.710   1.709 -0.2792  0.1129 -2.4825
32909SOL     OW 7694  12.398   4.528  10.421 -0.2880 -0.0285 -0.7475
32909SOL    HW1 7695  12.450   4.599  10.384 -0.2951  0.1166 -0.4770
32909SOL    HW2 7696  12.402   4.541  10.516  1.3262 -1.4818 -0.5497
32910SOL     OW 7697   1.113   3.166   2.890 -0.4715  0.6066 -0.2188
32910SOL    HW1 7698   1.149   3.250   2.863 -0.4585  1.0183  1.0164
32910SOL    HW2 7699   1.171   3.136   2.959 -1.7673  0.6972  0.9499
32911SOL     OW 7700   9.226   2.031   3.290 -0.1893 -0.2794  0.4002
32911SOL    HW1 7701   9.166   2.042   3.365 -0.8617 -1.1909  0.0088
32911SOL    HW2 7702   9.303   1.989   3.327  0.1868  0.8025  0.8908
32912SOL     OW 7703   2.634   8.250   5.867  0.3121  0.5014  0.1993
32912SOL    HW1 7704   2.707   8.312   5.866  0.8131 -0.0482  1.0858
32912SOL    HW2 7705   2.675   8.165   5.885 -0.2661 -0.2358 -1.6679
32913SOL     OW 7706   6.383   6.998   9.306 -0.1484 -0.0859  0.2481
32913SOL    HW1 7707   6.439   7.040   9.241  0.1936 -2.3877 -1.0889
32913SOL    HW2 7708   6.301   6.981   9.258 -0.9778  0.7312  1.3316
32914SOL     OW 7709  11.119   0.145   6.274  0.1561  0.2526  0.2325
32914SOL    HW1 7710  11.106   0.232   6.311 -2.3260  0.1164 -0.1363
32914SOL    HW2 7711  11.200   0.151   6.224  0.2870  2.1973  0.6169
32915SOL     OW 7712   8.247   5.303   6.366  1.1905  0.2920 -0.2120
32915SOL    HW1 7713   8.207   5.331   6.448  0.8330  1.3082 -0.7136
32915SOL    HW2 7714   8.335   5.275   6.390  0.3442 -1.6586  0.8650
32916SOL     OW 7715  10.465   7.708   6.356  0.1291 -0.0198 -0.4605
32916SOL    HW1 7716  10.392   7.646   6.347  0.1418  0.1105 -1.5817
32916SOL    HW2 7717  10.541   7.662   6.321  0.4123  0.1471 -0.0696
32917SOL     OW 7718   9.106   4.262   6.130  0.6097 -0.4757 -0.5339
32917SOL    HW1 7719   9.045   4.221   6.069  0.0516  0.7339 -0.8264
32917SOL    HW2 7720   9.192   4.226   6.107  0.1760 -1.2495 -0.9587
32918SOL     OW 7721   9.762   9.783   9.088  0.4728  0.0548 -0.3366
32918SOL    HW1 7722   9.746   9.712   9.025  0.3303 -0.2982  0.0938
32918SOL    HW2 7723   9.690   9.844   9.074  0.8172  0.3221 -0.9910
32919SOL     OW 7724   5.390   1.517   6.621 -0.0206 -0.0665 -0.0063
32919SOL    HW1 7725   5.469   1.463   6.612 -0.1931 -0.3872  0.3761
32919SOL    HW2 7726   5.410   1.598   6.574  0.8233  0.1677  0.7464
32920SOL     OW 7727  11.729   1.800  11.378  0.1165  0.0666  0.0143
32920SOL    HW1 7728  11.669   1.787  11.305 -0.8547  0.4866  0.7029
32920SOL    HW2 7729  11.739   1.712  11.417  0.8781 -0.2125 -0.7808
32921SOL     OW 7730   4.681   9.273  12.502  0.1249  0.3620  0.0150
32921SOL    HW1 7731   4.614   9.252  12.567  0.6824 -0.7680  0.2582
32921SOL    HW2 7732   4.649   9.234  12.421 -0.7584  2.1084 -0.5214
32922SOL     OW 7733   3.071   5.145  11.316  0.1056  0.1530 -0.2689
32922SOL    HW1 7734   3.014   5.179  11.248  1.0222 -0.1635 -1.2189
32922SOL    HW2 7735   3.069   5.211  11.385 -1.2517  0.2220 -0.3536
32923SOL     OW 7736   5.367  10.042   8.589  0.4217  0.0356 -0.4789
32923SOL    HW1 7737   5.326  10.064   8.673 -0.4162  0.5883 -1.0188
32923SOL    HW2 7738   5.305   9.982   8.547  0.2443  0.7070 -1.2081
32924SOL     OW 7739   1.672   2.201  11.951  0.0500  0.6178  0.5538
32924SOL    HW1 7740   1.750   2.257  11.954  0.2671  0.6355 -2.4989
32924SOL    HW2 7741   1.707   2.112  11.941 -0.3381  0.2968  1.8762
32925SOL     OW 7742   3.777   8.299  11.788  0.6968 -0.9398  0.0262
32925SOL    HW1 7743   3.780   8.247  11.707  1.8743  0.4525 -0.8740
32925SOL    HW2 7744   3.806   8.386  11.761 -0.7235  0.0675  1.5977
32926SOL     OW 7745   1.993   0.866  11.589  0.0871  0.4066 -0.6421
32926SOL    HW1 7746   2.071   0.858  11.533 -1.0394 -1.7816 -2.0615
32926SOL    HW2 7747   1.933   0.799  11.556 -1.8242  0.9952  1.3815
32927SOL     OW 7748   7.663   1.975   0.574  0.6316  0.5274  0.1819
32927SOL    HW1 7749   7.658   1.990   0.669 -2.0823  2.2946 -0.1113
32927SOL    HW2 7750   7.572   1.960   0.548  1.2350  0.7022 -2.2443
32928SOL     OW 7751   6.634   5.579  11.818 -0.0808 -0.0988  0.7599
32928SOL    HW1 7752   6.693   5.590  11.744 -0.6653 -1.0288  0.1273
32928SOL    HW2 7753   6.666   5.640  11.884  1.9065 -0.9590  0.6533
32929SOL     OW 7754  10.248   9.738   3.194  0.2201 -0.1677 -0.1771
32929SOL    HW1 7755  10.220   9.824   3.226  0.3630  0.5896 -1.9999
32929SOL    HW2 7756  10.166   9.691   3.177  0.1102  0.2857 -0.9214
32930SOL     OW 7757   8.114  11.739  10.978  0.0349  0.2215  0.0079
32930SOL    HW1 7758   8.083  11.822  10.941  0.6858  0.8628  0.8628
32930SOL    HW2 7759   8.054  11.721  11.051 -0.6334 -0.5269 -0.6965
32931SOL     OW 7760   5.097   2.862   1.529  0.8071  0.3849  0.3717
32931SOL    HW1 7761   5.098   2.901   1.617 -0.1470 -0.7023  0.8961
32931SOL    HW2 7762   5.182   2.820   1.521  0.2520 -1.0543  1.5346
32932SOL     OW 7763   8.489   1.600   1.041 -0.9187  0.0508  0.3970
32932SOL    HW1 7764   8.480   1.516   1.086  1.2897 -0.9008 -0.8009
32932SOL    HW2 7765   8.462   1.582   0.950  0.5716  0.3155 -0.1288
32933SOL     OW 7766   3.492  12.430   4.347 -0.2394  0.1557  0.4262
32933SOL    HW1 7767   3.584  12.453   4.330 -0.7093  1.1876 -0.9742
32933SOL    HW2 7768   3.480  12.345   4.304 -0.2521  0.6560 -0.6142
32934SOL     OW 7769  11.646   8.266  11.043 -0.9607  0.2842  0.3172
32934SOL    HW1 7770  11.566   8.281  10.992 -0.6256 -2.4309 -1.1690
32934SOL    HW2 7771  11.626   8.189  11.097  0.8710 -1.0723 -0.7992
32935SOL     OW 7772   1.990   0.797   4.850 -0.0459  0.9336 -0.0705
32935SOL    HW1 7773   1.937   0.876   4.836 -0.9217  0.5857  1.0731
32935SOL    HW2 7774   1.934   0.740   4.903  0.4326 -0.6257 -1.1809
32936SOL     OW 7775   1.173   3.015   8.172 -0.8346  0.1405 -0.2288
32936SOL    HW1 7776   1.234   3.061   8.230  2.1190  0.8027 -3.5444
32936SOL    HW2 7777   1.158   3.076   8.100 -3.5456 -1.0139 -0.7555
32937SOL     OW 7778   7.527   8.737   4.618  0.1994  0.0936  0.0809
32937SOL    HW1 7779   7.446   8.688   4.621  0.4657 -0.3679 -0.1392
32937SOL    HW2 7780   7.529   8.786   4.700 -0.8861  1.0731 -0.4399
32938SOL     OW 7781   1.804   1.072   4.887  0.2193  0.0921 -0.2004
32938SOL    HW1 7782   1.751   1.029   4.954  0.8499 -0.9235 -0.3360
32938SOL    HW2 7783   1.888   1.089   4.930  0.6656 -0.6654 -0.7430
32939SOL     OW 7784   0.609  10.062   4.236 -0.0999 -0.0462  0.2175
32939SOL    HW1 7785   0.517  10.039   4.222 -0.4307  1.6702 -0.7908
32939SOL    HW2 7786   0.655  10.023   4.161  0.2139 -1.8679  1.3099
32940SOL     OW 7787  12.302   2.787   2.545 -0.3308  0.2410  0.1519
32940SOL    HW1 7788  12.313   2.829   2.460 -0.2256 -0.6389 -0.2800
32940SOL    HW2 7789  12.221   2.738   2.537 -1.0367  1.2209  1.0247
32941SOL     OW 7790   3.692   3.034   1.178  0.5059  0.5721 -0.6631
32941SOL    HW1 7791   3.694   2.953   1.229 -0.1958 -0.2105 -1.8269
32941SOL    HW2 7792   3.639   3.094   1.230  0.3401  0.0154 -0.1753
32942SOL     OW 7793   0.971   0.378   1.614 -0.2177  0.0078 -0.6128
32942SOL    HW1 7794   0.988   0.310   1.549 -1.5421  1.0800 -2.1449
32942SOL    HW2 7795   0.976   0.460   1.565 -1.2477  0.8493  0.6336
32943SOL     OW 7796  10.085  11.552   8.260  0.1018  0.3611 -0.5912
32943SOL    HW1 7797  10.036  11.609   8.200 -0.6281 -0.2077 -0.5527
32943SOL    HW2 7798  10.020  11.523   8.323  0.0182 -1.9208 -1.6286
32944SOL     OW 7799   1.163  11.248  11.157 -0.5626 -0.2269  0.2976
32944SOL    HW1 7800   1.153  11.241  11.062  0.3117  1.2223  0.0639
32944SOL    HW2 7801   1.107  11.322  11.181  0.0250  0.0774  0.7504
32945SOL     OW 7802  11.250  11.113   3.562  0.1923 -0.1316  0.0422
32945SOL    HW1 7803  11.205  11.046   3.614 -1.1252  0.3464 -0.4524
32945SOL    HW2 7804  11.303  11.063   3.500  1.1981 -0.7044  1.3127
32946SOL     OW 7805   2.884   0.311   8.346 -0.1309  0.1446  0.4348
32946SOL    HW1 7806   2.849   0.227   8.315  0.2190 -0.2679  1.1343
32946SOL    HW2 7807   2.973   0.313   8.313 -0.0370  0.0940  0.6823
32947SOL     OW 7808   3.516   6.306   7.940  0.0840  0.3170  0.0722
32947SOL    HW1 7809   3.595   6.349   7.972  0.3321 -0.2289  0.1950
32947SOL    HW2 7810   3.540   6.214   7.930 -0.6285  0.0799  0.4318
32948SOL     OW 7811   8.177  10.403   3.772 -0.6947  0.4353 -0.2707
32948SOL    HW1 7812   8.202  10.360   3.854  1.5709 -2.1509 -2.1127
32948SOL    HW2 7813   8.120  10.339   3.728  0.8378  0.2204 -2.0754
32949SOL     OW 7814   5.858   7.361  10.708 -0.2640  0.4327 -0.4726
32949SOL    HW1 7815   5.927   7.426  10.715  0.9578 -0.9071  0.4793
32949SOL    HW2 7816   5.797   7.381  10.780 -0.1106  0.7724 -0.4404
32950SOL     OW 7817   6.854   8.849   3.926 -0.2656  0.4340  0.7476
32950SOL    HW1 7818   6.806   8.805   3.856 -2.1123  3.0040  0.2398
32950SOL    HW2 7819   6.944   8.855   3.893 -1.3309  2.8546 -2.2731
32951SOL     OW 7820   6.727   2.876   1.349 -0.0815 -0.0006  0.3182
32951SOL    HW1 7821   6.728   2.791   1.393  0.8454 -0.2973 -0.2427
32951SOL    HW2 7822   6.635   2.889   1.324 -0.1931 -0.9692  0.1779
32952SOL     OW 7823  11.886   9.001   8.511 -0.2286  0.1602  0.1839
32952SOL    HW1 7824  11.898   9.087   8.551  0.7462  0.6368 -1.0877
32952SOL    HW2 7825  11.912   8.939   8.580 -0.9411  0.8551  1.1027
32953SOL     OW 7826   9.722   2.678   9.497  0.3949  0.5375 -0.4388
32953SOL    HW1 7827   9.697   2.698   9.587 -1.4148  0.7991 -0.9437
32953SOL    HW2 7828   9.705   2.584   9.487  0.5983  0.5071 -0.5020
32954SOL     OW 7829  10.768   6.367   8.471  0.1171 -0.6194 -0.1393
32954SOL    HW1 7830  10.724   6.376   8.556 -0.9973  0.9694 -0.8366
32954SOL    HW2 7831  10.853   6.407   8.484 -0.2920  0.1993  0.0824
32955SOL     OW 7832   9.311  11.023   6.810  0.5118  0.1377 -0.8023
32955SOL    HW1 7833   9.248  11.038   6.880  1.0096  0.8410 -0.4968
32955SOL    HW2 7834   9.258  10.990   6.737 -0.2207  0.7892 -0.5819
32956SOL     OW 7835   6.659   2.763   8.224  0.5733  0.3245  0.2325
32956SOL    HW1 7836   6.637   2.841   8.173 -0.6477  0.2012  0.5467
32956SOL    HW2 7837   6.609   2.772   8.305  0.4044 -0.7870  0.2688
32957SOL     OW 7838   1.054   4.158   2.925  0.2785 -0.0024 -0.1063
32957SOL    HW1 7839   1.079   4.140   3.016  0.7115 -0.0696 -0.2363
32957SOL    HW2 7840   1.124   4.118   2.873  0.1395  0.2202 -0.4645
32958SOL     OW 7841   3.918   7.933   2.319 -0.0779  0.4835  0.1356
32958SOL    HW1 7842   3.991   7.919   2.379  0.1536 -1.6919 -0.5758
32958SOL    HW2 7843   3.949   8.003   2.261  0.6661  0.9045  0.9974
32959SOL     OW 7844  11.205   3.797   2.042 -0.0062 -0.4048 -0.1369
32959SOL    HW1 7845  11.188   3.869   1.982  0.0607 -0.9257 -0.7926
32959SOL    HW2 7846  11.143   3.729   2.017 -1.9147  0.3583  2.1845
32960SOL     OW 7847  11.539   7.910   4.193  0.2725  0.2334  0.5318
32960SOL    HW1 7848  11.546   8.000   4.162  2.3801 -0.1312 -0.1638
32960SOL    HW2 7849  11.476   7.868   4.134 -0.7068  1.2190  0.8524
32961SOL     OW 7850  12.134   9.743  11.176 -0.1419 -0.1417  0.1208
32961SOL    HW1 7851  12.078   9.666  11.181  0.2759 -0.6325 -1.9824
32961SOL    HW2 7852  12.132   9.769  11.084  0.1558  2.0539  0.6876
32962SOL     OW 7853   8.216   0.230   4.433 -0.1550  0.6803 -0.2524
32962SOL    HW1 7854   8.170   0.288   4.373 -2.3461  0.1190  0.7585
32962SOL    HW2 7855   8.189   0.142   4.407  0.6227  0.3069  0.1775
32963SOL     OW 7856   6.043   0.035  12.315  0.6792  0.4379  0.2825
32963SOL    HW1 7857   5.997  -0.045  12.288  0.2185  0.9143 -0.3896
32963SOL    HW2 7858   6.076   0.016  12.403  1.1165 -0.7114 -0.1231
32964SOL     OW 7859  11.767  11.605   8.041  0.0097 -0.3986 -0.3537
32964SOL    HW1 7860  11.722  11.640   8.118 -0.9041 -0.7306 -0.7198
32964SOL    HW2 7861  11.854  11.644   8.044  0.5531 -1.6134  1.7081
32965SOL     OW 7862   7.352   0.756   4.758  0.1581  0.0842 -0.6117
32965SOL    HW1 7863   7.303   0.675   4.771  1.1315 -0.6958 -1.6361
32965SOL    HW2 7864   7.314   0.795   4.680  0.9412 -0.3664 -1.2288
32966SOL     OW 7865   9.847   4.230   5.588 -0.4248  0.1796  0.4575
32966SOL    HW1 7866   9.843   4.325   5.590  0.0129  0.2040  0.3079
32966SOL    HW2 7867   9.764   4.203   5.546 -0.8512  0.4566  1.1101
32967SOL     OW 7868   1.211   2.964  12.151 -0.1370 -0.0104 -0.2307
32967SOL    HW1 7869   1.116   2.975  12.150  0.0607  2.1867 -0.9986
32967SOL    HW2 7870   1.236   2.975  12.059  0.9491  0.7967  0.1404
32968SOL     OW 7871   4.858   6.037   8.627 -0.3586 -0.2379 -0.5052
32968SOL    HW1 7872   4.802   5.959   8.622  0.2207 -0.6853 -0.1568
32968SOL    HW2 7873   4.807   6.100   8.677  0.0788 -1.2081  1.2455
32969SOL     OW 7874   8.347  12.414   8.825  0.6907 -0.5381  0.2051
32969SOL    HW1 7875   8.352  12.454   8.738  0.5999 -1.4311 -0.2152
32969SOL    HW2 7876   8.355  12.488   8.886  1.6246 -0.0035 -0.5524
32970SOL     OW 7877   0.110   4.017   6.859 -0.0739 -0.0074  0.3287
32970SOL    HW1 7878   0.170   3.960   6.906  1.0134 -0.6810 -1.7767
32970SOL    HW2 7879   0.034   3.962   6.839 -0.5168  0.2669  1.2018
32971SOL     OW 7880   6.691  12.426   2.424 -0.0584  0.3509  0.1370
32971SOL    HW1 7881   6.617  12.444   2.482 -1.5346 -0.6162 -1.3431
32971SOL    HW2 7882   6.768  12.429   2.481 -1.3644  0.0656  1.9980
32972SOL     OW 7883  10.005   4.771   5.658  0.3853 -0.5117 -0.1151
32972SOL    HW1 7884  10.075   4.810   5.710 -0.0217  1.9295 -1.2518
32972SOL    HW2 7885  10.022   4.801   5.569  0.0636 -3.1151 -1.1416
32973SOL     OW 7886   4.018   3.283  11.071  0.3621  0.0174  0.2808
32973SOL    HW1 7887   4.005   3.193  11.042  1.0441 -0.2961  0.8973
32973SOL    HW2 7888   3.932   3.324  11.064  0.2906 -0.3485 -1.1096
32974SOL     OW 7889   4.920   4.342   7.387  0.3555  0.0217 -0.0064
32974SOL    HW1 7890   4.911   4.435   7.368  1.2834  0.1378  0.0650
32974SOL    HW2 7891   4.889   4.332   7.476  0.9530  0.4033  0.2530
32975SOL     OW 7892   2.633   4.086  11.469 -0.4561 -0.0435 -0.1115
32975SOL    HW1 7893   2.546   4.085  11.430 -0.5343 -1.3786  0.0637
32975SOL    HW2 7894   2.629   4.154  11.537 -0.4744  1.9446 -2.0072
32976SOL     OW 7895   0.005   9.444   2.837 -0.6197 -0.2108 -0.3221
32976SOL    HW1 7896  -0.071   9.409   2.884  0.0336 -1.5208 -0.2166
32976SOL    HW2 7897   0.015   9.387   2.761 -0.1144  0.3533 -0.6932
32977SOL     OW 7898   5.546   2.397  11.675  0.3206 -0.3763  0.1500
32977SOL    HW1 7899   5.505   2.365  11.595  0.0690 -0.6005  0.3685
32977SOL    HW2 7900   5.473   2.411  11.736  0.2628  1.7400 -0.3007
32978SOL     OW 7901   7.392   2.530   4.970  0.1207 -0.0289  0.0606
32978SOL    HW1 7902   7.432   2.447   4.944 -0.5215 -0.3772  0.1624
32978SOL    HW2 7903   7.298   2.513   4.970 -0.0465  0.8236 -0.3426
32979SOL     OW 7904   5.351  10.769  12.125 -0.7648 -0.3455  0.3972
32979SOL    HW1 7905   5.329  10.766  12.218  0.0716 -0.4711  0.6021
32979SOL    HW2 7906   5.396  10.686  12.109  1.5902  0.8010  0.5593
32980SOL     OW 7907   0.163   4.203   6.390 -0.4487  0.6558 -0.0537
32980SOL    HW1 7908   0.213   4.125   6.368 -2.2026 -0.5671  0.1200
32980SOL    HW2 7909   0.147   4.196   6.484 -1.2016  0.8539 -0.1575
32981SOL     OW 7910   5.429   9.732   7.575  0.4228  0.2881  0.4395
32981SOL    HW1 7911   5.383   9.813   7.555  0.6872  0.6127  1.0891
32981SOL    HW2 7912   5.363   9.664   7.566  0.6201  0.3236 -1.9355
32982SOL     OW 7913   0.512   2.749   7.158  0.2691 -0.0258  0.4143
32982SOL    HW1 7914   0.450   2.815   7.127  1.7394  1.7235  1.0381
32982SOL    HW2 7915   0.585   2.752   7.096  1.2405  0.3806  1.5373
32983SOL     OW 7916   9.662   1.459   2.816  0.2212  0.6346  0.5236
32983SOL    HW1 7917   9.686   1.541   2.860 -2.4743  1.0009  1.5351
32983SOL    HW2 7918   9.647   1.483   2.725  1.4938  0.8060  0.3501
32984SOL     OW 7919   1.161   0.230   2.073  0.1997 -0.2794 -0.0766
32984SOL    HW1 7920   1.168   0.135   2.066 -1.8121 -0.4852  0.3032
32984SOL    HW2 7921   1.150   0.247   2.166 -5.3449 -0.3010 -0.3776
32985SOL     OW 7922   7.660   4.569   0.761  0.2454  0.2835 -0.8217
32985SOL    HW1 7923   7.708   4.549   0.841 -0.7511  1.7259  0.1770
32985SOL    HW2 7924   7.577   4.604   0.791 -1.7012 -2.5062 -2.4821
32986SOL     OW 7925   0.179  11.363  10.906 -0.0866  0.6987  0.4338
32986SOL    HW1 7926   0.125  11.287  10.929 -0.9200  1.0833 -0.1840
32986SOL    HW2 7927   0.127  11.438  10.935  0.2275  1.0663  0.0453
32987SOL     OW 7928   9.602   5.121  10.293  0.1758  0.1435 -0.1995
32987SOL    HW1 7929   9.619   5.189  10.359  0.4035 -0.8347  0.7862
32987SOL    HW2 7930   9.512   5.093  10.310  0.5953 -0.8740  0.4433
32988SOL     OW 7931   9.427   6.348   8.557 -0.0833  0.2423 -0.0875
32988SOL    HW1 7932   9.430   6.432   8.602 -2.1422  1.0762 -1.3739
32988SOL    HW2 7933   9.448   6.284   8.625 -0.5364  1.6316  1.4343
32989SOL     OW 7934  10.308   9.141   1.283 -0.2670  0.0752  0.3974
32989SOL    HW1 7935  10.351   9.056   1.275 -0.6434 -0.1581  0.7783
32989SOL    HW2 7936  10.359   9.187   1.350 -0.1635  0.0848  0.3120
32990SOL     OW 7937   3.496   8.357   0.239  1.0366 -0.0241  0.5890
32990SOL    HW1 7938   3.589   8.357   0.263  1.3534 -3.4491 -0.0626
32990SOL    HW2 7939   3.453   8.312   0.311  0.1657 -0.0631  0.0534
32991SOL     OW 7940   0.203   6.233   3.567  0.3478 -0.4474 -0.2043
32991SOL    HW1 7941   0.262   6.280   3.508 -0.5252  1.7122  0.5518
32991SOL    HW2 7942   0.261   6.174   3.615  1.4145 -0.5704 -1.5865
32992SOL     OW 7943  10.384   4.713  10.711  0.1196  0.1476 -0.2489
32992SOL    HW1 7944  10.372   4.618  10.705 -1.7837  0.2777  0.5663
32992SOL    HW2 7945  10.296   4.749  10.696  1.0801  1.8971 -2.1511
32993SOL     OW 7946   3.687   8.309   6.096 -0.6384  0.3361  0.2362
32993SOL    HW1 7947   3.592   8.321   6.100 -0.6207  0.1975  1.1663
32993SOL    HW2 7948   3.719   8.385   6.047 -1.0396  1.4191  1.5923
32994SOL     OW 7949   9.727  10.585   4.997 -0.4404  0.1882  0.1805
32994SOL    HW1 7950   9.704  10.516   5.059  1.5538 -0.6298  0.0625
32994SOL    HW2 7951   9.742  10.662   5.052 -2.1514  0.4284  0.3607
32995SOL     OW 7952  11.253   5.941   1.342  0.1542  0.1446 -0.5178
32995SOL    HW1 7953  11.343   5.974   1.334  0.6498 -0.6778  1.1987
32995SOL    HW2 7954  11.248   5.909   1.432 -0.5007 -3.7741 -1.7776
32996SOL     OW 7955  11.998   1.899  12.386 -0.2972 -0.5015  0.3361
32996SOL    HW1 7956  12.055   1.976  12.387  0.8880 -1.3491  1.5799
32996SOL    HW2 7957  11.910   1.934  12.405  0.2568  0.5130  1.1407
32997SOL     OW 7958  10.225   4.281   9.746 -0.5979  0.1367  0.5515
32997SOL    HW1 7959  10.318   4.278   9.770 -0.1523 -1.3003 -1.1169
32997SOL    HW2 7960  10.180   4.240   9.819  0.2283 -0.2049  0.8868
32998SOL     OW 7961   8.695  12.353  11.172 -0.1451 -0.0822 -0.5919
32998SOL    HW1 7962   8.784  12.380  11.149  0.0370 -0.2108 -0.0506
32998SOL    HW2 7963   8.687  12.374  11.265 -0.9268  0.5888 -0.7981
32999SOL     OW 7964   0.774  11.272  12.029 -0.1221 -0.4827  0.2657
32999SOL    HW1 7965   0.792  11.178  12.031 -1.3572 -0.7646 -1.1030
32999SOL    HW2 7966   0.838  11.307  11.967 -0.2332 -0.5389  0.1217
33000SOL     OW 7967   6.712   6.111   3.420 -0.4244  0.0638  0.0491
33000SOL    HW1 7968   6.766   6.035   3.441 -1.4420  0.0355  3.0577
33000SOL    HW2 7969   6.747   6.181   3.474 -1.8373  0.6644  0.2452
33001SOL     OW 7970   0.099   9.576  10.138 -0.1134 -0.0280  0.2008
33001SOL    HW1 7971   0.130   9.532  10.217 -1.2737 -3.0220 -0.8665
33001SOL    HW2 7972   0.049   9.509  10.091 -1.8172  2.4192 -1.7550
33002SOL     OW 7973   8.411   8.667   5.522 -0.0508  0.5271  0.0374
33002SOL    HW1 7974   8.415   8.717   5.441 -0.9085  1.1902  0.3888
33002SOL    HW2 7975   8.447   8.726   5.589 -0.9039  0.6225  0.4247
33003SOL     OW 7976   0.052   7.343   5.324 -0.7202 -0.4324  0.2481
33003SOL    HW1 7977   0.046   7.423   5.273 -2.1686 -0.5995  0.1222
33003SOL    HW2 7978   0.146   7.323   5.326 -0.5403  0.0480 -1.6089
33004SOL     OW 7979   6.798   2.325   2.253 -0.3046  0.4777  0.6170
33004SOL    HW1 7980   6.741   2.359   2.323 -1.2253  1.0352 -0.3544
33004SOL    HW2 7981   6.830   2.241   2.286  0.8858  1.6015  2.5197
33005SOL     OW 7982   3.232  12.313  11.884 -0.2554  0.0218 -0.3681
33005SOL    HW1 7983   3.164  12.246  11.887 -0.3157  0.1215  1.6534
33005SOL    HW2 7984   3.309  12.271  11.921  0.1220  0.6089 -0.4733
33006SOL     OW 7985   9.960   7.310   7.849  0.0254 -0.3097 -0.1505
33006SOL    HW1 7986   9.909   7.322   7.929 -3.6938  0.5685 -2.4332
33006SOL    HW2 7987   9.932   7.226   7.815  0.2991  0.0736 -1.3747
33007SOL     OW 7988   1.021   1.763   1.037 -0.0792 -0.0106 -0.2608
33007SOL    HW1 7989   1.070   1.843   1.015 -1.9663  0.7344 -2.1359
33007SOL    HW2 7990   0.948   1.794   1.091 -0.0292 -0.7017  0.2114
33008SOL     OW 7991   2.975   8.261  11.557 -0.3683  0.0996 -0.4018
33008SOL    HW1 7992   3.033   8.224  11.625 -0.7098 -0.0041 -0.1628
33008SOL    HW2 7993   2.990   8.355  11.562 -0.9442  0.1646  0.3439
33009SOL     OW 7994   3.113   7.840   7.216  0.1719  0.7013  0.3690
33009SOL    HW1 7995   3.208   7.856   7.216  0.6503 -1.6139 -0.9924
33009SOL    HW2 7996   3.104   7.752   7.179 -2.6793  1.9600 -2.3375
33010SOL     OW 7997   1.882   9.860   9.371 -0.2452 -0.7239 -0.0099
33010SOL    HW1 7998   1.976   9.869   9.385 -0.2005 -0.6004 -0.3828
33010SOL    HW2 7999   1.861   9.772   9.401 -0.3217 -0.1543  1.7517
33011SOL     OW 8000   0.142  12.342   5.394  0.3930  0.2830 -0.6140
33011SOL    HW1 8001   0.225  12.387   5.376  1.3367 -1.5961 -1.2743
33011SOL    HW2 8002   0.084  12.371   5.325  0.9148  0.6722 -0.8976
33012SOL     OW 8003   0.292  10.892   4.667  0.1453  0.4590 -1.0397
33012SOL    HW1 8004   0.310  10.816   4.721  0.8833  1.1077 -0.3536
33012SOL    HW2 8005   0.312  10.967   4.723  0.6064  1.1520 -2.0969
33013SOL     OW 8006   5.348   8.833  10.053 -0.4278 -0.3656 -0.1335
33013SOL    HW1 8007   5.415   8.837  10.122  1.3517 -0.0823 -1.7860
33013SOL    HW2 8008   5.325   8.925  10.037 -0.5803 -0.4071 -0.1490
33014SOL     OW 8009   6.934   2.137  10.417  0.1932 -0.1490  0.7936
33014SOL    HW1 8010   7.026   2.115  10.436 -0.3933 -1.2291  2.6085
33014SOL    HW2 8011   6.910   2.078  10.345  0.3998 -1.1898  1.5551
33015SOL     OW 8012   1.875   9.751   0.138  0.0162 -0.3178 -0.1652
33015SOL    HW1 8013   1.891   9.777   0.228 -2.0103 -1.4039  0.5777
33015SOL    HW2 8014   1.906   9.660   0.133 -0.8326 -0.6144 -0.2339
33016SOL     OW 8015  11.160   3.627   3.216  0.1361 -0.2299  0.2361
33016SOL    HW1 8016  11.178   3.720   3.198 -0.1007 -0.3166 -0.4965
33016SOL    HW2 8017  11.151   3.622   3.311 -1.4747  0.8005  0.1752
33017SOL     OW 8018   3.496   5.093   9.041 -0.1124  0.1791 -0.2413
33017SOL    HW1 8019   3.563   5.128   8.982  1.2027 -0.6680  0.7088
33017SOL    HW2 8020   3.531   5.108   9.129 -1.0909 -0.4391  0.2682
33018SOL     OW 8021   4.637   2.207   5.722  0.1157 -0.6801  0.1122
33018SOL    HW1 8022   4.635   2.289   5.674 -0.0779 -0.3607  0.6514
33018SOL    HW2 8023   4.550   2.170   5.712 -0.1400 -0.2777  0.7724
33019SOL     OW 8024   1.504   6.192  11.081 -0.0513 -0.2372 -0.3452
33019SOL    HW1 8025   1.592   6.211  11.050  0.0324 -1.3268 -0.8301
33019SOL    HW2 8026   1.455   6.273  11.069  0.9291  0.4362  0.1295
33020SOL     OW 8027   1.251   7.966   8.830 -0.7421 -0.0290 -0.1818
33020SOL    HW1 8028   1.191   8.031   8.794 -3.6937 -1.9334  1.0042
33020SOL    HW2 8029   1.209   7.935   8.910  1.5795 -1.9122  0.4444
33021SOL     OW 8030   2.295  10.885   5.253  0.4289  0.1353 -0.1470
33021SOL    HW1 8031   2.230  10.929   5.199  0.8718  1.3031  0.2574
33021SOL    HW2 8032   2.299  10.936   5.334  0.7804 -0.7834  0.4426
33022SOL     OW 8033   9.805   3.887   6.302  0.0097 -0.0928  0.0175
33022SOL    HW1 8034   9.807   3.865   6.395 -2.8459 -1.1761 -0.0710
33022SOL    HW2 8035   9.893   3.867   6.271  1.1595  0.6283  2.4996
33023SOL     OW 8036   2.759   2.743   4.499  0.2418  0.1729  0.1233
33023SOL    HW1 8037   2.750   2.757   4.405 -3.0741  3.0983  0.6389
33023SOL    HW2 8038   2.832   2.799   4.525 -1.2452  2.4973 -0.3576
33024SOL     OW 8039   4.104   0.892  12.330 -0.0495 -0.0907 -0.4875
33024SOL    HW1 8040   4.120   0.979  12.367  0.7195  0.1490 -1.3666
33024SOL    HW2 8041   4.026   0.904  12.276 -0.0799 -0.0119 -0.4290
33025SOL     OW 8042   1.007  10.731   9.566  0.3571  0.1049  0.3299
33025SOL    HW1 8043   1.073  10.759   9.503 -0.2249  0.6113 -0.0724
33025SOL    HW2 8044   1.051  10.733   9.651  1.2993 -1.0540 -0.1022
33026SOL     OW 8045   2.084   8.587   3.785 -0.0685  0.1514 -0.8109
33026SOL    HW1 8046   2.147   8.658   3.796 -0.8737  0.5952  1.4758
33026SOL    HW2 8047   2.017   8.622   3.728 -0.0390  0.9568 -0.3616
33027SOL     OW 8048   6.571   7.823   1.293  0.1786 -0.7337 -0.0566
33027SOL    HW1 8049   6.485   7.862   1.310  0.5508 -0.3552  1.0839
33027SOL    HW2 8050   6.630   7.898   1.285  0.4420 -0.9976 -0.5702
33028SOL     OW 8051  12.060   1.572   8.669 -0.7155 -0.5955  0.5901
33028SOL    HW1 8052  12.064   1.659   8.629 -1.8584  0.4776  2.6452
33028SOL    HW2 8053  11.979   1.573   8.721  0.3103 -2.1115  2.3378
33029SOL     OW 8054  11.634   1.715   7.395  0.2202  0.1841  0.0587
33029SOL    HW1 8055  11.560   1.740   7.340 -1.4887 -3.4384  0.3900
33029SOL    HW2 8056  11.599   1.720   7.485  0.8134 -0.1964  0.3184
33030SOL     OW 8057  12.173   5.388   5.783  0.0763 -0.3442 -0.9739
33030SOL    HW1 8058  12.160   5.335   5.862 -1.3976  0.7249 -0.4298
33030SOL    HW2 8059  12.223   5.463   5.813 -0.4550  0.0469 -1.0455
33031SOL     OW 8060   7.248  11.023   3.875  0.1284  0.3821  0.1883
33031SOL    HW1 8061   7.283  10.934   3.873 -0.0339  0.3126  0.4502
33031SOL    HW2 8062   7.277  11.058   3.959  0.0914  0.5351  0.1365
33032SOL     OW 8063   8.018  11.081   9.455 -0.7348 -0.1371 -0.2449
33032SOL    HW1 8064   7.986  11.064   9.544  0.6053 -1.1044  0.0796
33032SOL    HW2 8065   8.016  11.177   9.447 -2.0978 -0.0954  0.3438
33033SOL     OW 8066  10.815  10.213   9.566 -0.5279 -0.0886 -1.0885
33033SOL    HW1 8067  10.887  10.187   9.624  0.3513  0.8356 -1.7285
33033SOL    HW2 8068  10.737  10.207   9.621  0.3162  1.1016  0.3182
33034SOL     OW 8069   6.391   0.682  10.016 -0.3043  0.1469 -0.4052
33034SOL    HW1 8070   6.373   0.719  10.103  0.6660  2.2884 -1.0627
33034SOL    HW2 8071   6.308   0.691   9.969 -1.0749 -1.7332  0.4560
33035SOL     OW 8072   7.410   8.694   4.959 -0.1318 -0.4389 -0.2328
33035SOL    HW1 8073   7.457   8.645   5.026 -1.5767 -0.0162  1.1506
33035SOL    HW2 8074   7.459   8.775   4.949 -0.9751  0.4187  1.8757
33036SOL     OW 8075   5.270  10.884  10.821  0.8454 -0.0546  0.0765
33036SOL    HW1 8076   5.178  10.860  10.816  1.2959 -2.0703  0.4577
33036SOL    HW2 8077   5.306  10.859  10.736  1.0267  0.8266 -0.1102
33037SOL     OW 8078   4.469   5.691   8.960 -0.7663  0.1763 -0.1960
33037SOL    HW1 8079   4.419   5.744   8.897 -0.8905  0.9939  0.5687
33037SOL    HW2 8080   4.555   5.682   8.921 -0.8905  0.5433 -0.5599
33038SOL     OW 8081   7.700   2.641  12.261 -0.5095 -0.1983 -0.2138
33038SOL    HW1 8082   7.639   2.706  12.227  0.3826  1.4383  1.1967
33038SOL    HW2 8083   7.648   2.589  12.322 -0.7344  0.5939  0.2806
33039SOL     OW 8084   4.057  11.904   6.666 -0.8370 -0.2631 -0.4243
33039SOL    HW1 8085   4.051  11.876   6.757  0.4298  1.5596  0.2900
33039SOL    HW2 8086   4.130  11.853   6.630 -0.3761  0.0748  0.0264
33040SOL     OW 8087   2.532   7.372   8.343  0.1066 -0.5327 -0.3063
33040SOL    HW1 8088   2.618   7.330   8.346  0.2892 -0.1460 -0.1423
33040SOL    HW2 8089   2.504   7.362   8.252  0.1667 -0.9698 -0.2821
33041SOL     OW 8090   3.850   4.938   7.933  0.2752 -0.1801 -0.3119
33041SOL    HW1 8091   3.831   4.999   8.004  0.4633  1.5866 -1.7123
33041SOL    HW2 8092   3.767   4.894   7.915 -0.3291  0.9826 -0.4565
33042SOL     OW 8093  10.764   5.638   9.020 -0.3293 -0.6029 -0.1744
33042SOL    HW1 8094  10.699   5.708   9.006 -0.3969 -0.3521  1.2158
33042SOL    HW2 8095  10.746   5.575   8.950 -1.3022  0.0219 -0.5210
33043SOL     OW 8096   8.868   8.883   9.199 -0.4563  0.6451 -0.6177
33043SOL    HW1 8097   8.935   8.847   9.141  0.1770  1.1589 -0.2223
33043SOL    HW2 8098   8.816   8.940   9.143  0.9536  2.1741 -0.4473
33044SOL     OW 8099  11.063   3.070   9.091  0.2630  0.0346  0.2545
33044SOL    HW1 8100  11.036   3.160   9.072  2.2319  0.9352  1.4244
33044SOL    HW2 8101  11.064   3.026   9.006 -0.6524  1.1178 -0.3407
33045SOL     OW 8102   6.306   9.548   6.773  0.2777  0.7675 -0.3014
33045SOL    HW1 8103   6.231   9.527   6.716 -0.3924 -0.9514  1.0926
33045SOL    HW2 8104   6.351   9.464   6.784 -0.6228  0.5863  2.9977
33046SOL     OW 8105   8.972   5.391   5.256  0.4683  0.1409 -0.5214
33046SOL    HW1 8106   8.900   5.332   5.277 -0.1381  0.2614 -2.1592
33046SOL    HW2 8107   8.941   5.477   5.281  0.6484  0.0103  0.1782
33047SOL     OW 8108   5.315   1.369  11.101  0.0450 -0.3049  0.2759
33047SOL    HW1 8109   5.367   1.294  11.131  1.3339  0.1942 -0.6575
33047SOL    HW2 8110   5.375   1.422  11.050 -1.2665  0.5538 -0.4391
33048SOL     OW 8111  11.148   0.845   1.242 -0.8546 -0.0428  0.4465
33048SOL    HW1 8112  11.070   0.813   1.197 -1.9285 -1.9135  3.3401
33048SOL    HW2 8113  11.216   0.781   1.219 -0.6411  0.5457 -0.6094
33049SOL     OW 8114   4.341   9.368   2.758  0.2819 -0.3361  0.0019
33049SOL    HW1 8115   4.321   9.280   2.789 -0.2378 -0.2161  0.0214
33049SOL    HW2 8116   4.257   9.415   2.763  0.3898 -0.0499 -0.6987
33050SOL     OW 8117   7.262  10.778   8.380 -0.5958  0.4109  0.0806
33050SOL    HW1 8118   7.178  10.783   8.426 -1.2007  0.3391 -0.9755
33050SOL    HW2 8119   7.264  10.690   8.342 -0.9155  1.0415 -1.4712
33051SOL     OW 8120   8.343   9.903   5.646 -0.0981 -0.3664 -0.3870
33051SOL    HW1 8121   8.284   9.978   5.654  1.0620  0.4961  0.4018
33051SOL    HW2 8122   8.430   9.941   5.638  0.4475 -1.6238 -0.7524
33052SOL     OW 8123   2.812   2.309  10.411  0.0428 -0.1120  0.1964
33052SOL    HW1 8124   2.886   2.309  10.351 -0.3356 -0.6529 -0.2759
33052SOL    HW2 8125   2.773   2.222  10.402 -1.2841  0.5123 -0.3711
33053SOL     OW 8126  11.434   5.730  11.767  0.2504 -0.8883 -0.1517
33053SOL    HW1 8127  11.528   5.728  11.780 -0.0649 -2.0647  2.5667
33053SOL    HW2 8128  11.409   5.821  11.782  0.9262 -0.5567 -0.9783
33054SOL     OW 8129   5.390   1.542  11.489 -0.1334  0.0716  0.0933
33054SOL    HW1 8130   5.336   1.489  11.546 -0.6711  0.9915  0.4668
33054SOL    HW2 8131   5.343   1.625  11.481  0.0773  0.0689 -1.4563
33055SOL     OW 8132  10.771   6.268   3.949 -0.0826  0.8446 -0.2720
33055SOL    HW1 8133  10.771   6.354   3.990  2.9982  0.7427  0.1723
33055SOL    HW2 8134  10.824   6.279   3.870 -1.0809 -0.2833 -1.1293
33056SOL     OW 8135   4.636  12.419   4.734 -0.9828  0.5503 -0.2007
33056SOL    HW1 8136   4.607  12.505   4.765 -1.5279  0.5861 -0.8016
33056SOL    HW2 8137   4.559  12.381   4.692 -1.2045 -0.9060  1.4432
33057SOL     OW 8138   6.559   6.124   5.184  0.2525 -0.0643  0.2594
33057SOL    HW1 8139   6.590   6.125   5.274 -0.9777 -1.1731  0.7411
33057SOL    HW2 8140   6.537   6.215   5.164  3.1974  0.6760  0.0482
33058SOL     OW 8141   3.400   0.699   5.280  0.0898  0.5854 -0.3916
33058SOL    HW1 8142   3.342   0.628   5.305  0.3764  0.0355 -1.2253
33058SOL    HW2 8143   3.389   0.766   5.348  0.7191 -0.7412  1.0626
33059SOL     OW 8144   1.405  11.764   6.373 -0.0952  0.0948  0.0065
33059SOL    HW1 8145   1.428  11.672   6.388 -0.0374 -0.1284 -1.3323
33059SOL    HW2 8146   1.489  11.810   6.372 -0.0258 -0.0352 -0.5159
33060SOL     OW 8147   5.118   6.702   7.273 -0.1162 -0.2252  0.1679
33060SOL    HW1 8148   5.153   6.643   7.207  2.4729  2.2878 -0.8881
33060SOL    HW2 8149   5.068   6.767   7.223  2.7696  2.3444  0.3597
33061SOL     OW 8150   4.968  10.583   3.086 -0.2340  0.6359 -0.2387
33061SOL    HW1 8151   4.981  10.489   3.095  1.1733  0.9106  0.9773
33061SOL    HW2 8152   4.948  10.596   2.993  1.8690 -0.6416 -0.9354
33062SOL     OW 8153  10.574   4.868   7.028 -0.1580 -0.1411  0.7086
33062SOL    HW1 8154  10.634   4.843   7.098  2.1424  3.7336  0.4466
33062SOL    HW2 8155  10.507   4.921   7.071  0.5482  1.2041  0.1958
33063SOL     OW 8156   9.119   0.196   5.791  0.3072  0.0058  0.1370
33063SOL    HW1 8157   9.030   0.185   5.825  0.3545  1.2539  0.7250
33063SOL    HW2 8158   9.175   0.194   5.869  0.9221 -1.6397 -0.2927
33064SOL     OW 8159   1.398   6.195   4.024 -0.3161 -0.2114  0.0827
33064SOL    HW1 8160   1.400   6.104   3.994  0.8992  0.5368 -2.3401
33064SOL    HW2 8161   1.309   6.224   4.007 -0.0424 -0.2450 -1.5626
33065SOL     OW 8162  12.255   9.372   1.444  0.1813  0.2333 -0.3027
33065SOL    HW1 8163  12.284   9.330   1.526  2.3824  0.8509 -0.6873
33065SOL    HW2 8164  12.227   9.459   1.470 -1.3037 -0.3358  0.0690
33066SOL     OW 8165   7.657   3.445   6.919 -0.2158  0.5599 -0.4287
33066SOL    HW1 8166   7.571   3.445   6.961 -0.2781  0.5877 -0.5544
33066SOL    HW2 8167   7.660   3.361   6.872  0.6194 -0.3665  1.1738
33067SOL     OW 8168   9.958  12.015   2.329  0.1931 -0.6078  0.1291
33067SOL    HW1 8169   9.970  12.024   2.423 -0.8153 -1.1473  0.3151
33067SOL    HW2 8170   9.926  12.100   2.300 -1.0105 -0.9138  0.5280
33068SOL     OW 8171   3.413   0.837   8.225 -0.1659 -0.1178  0.5554
33068SOL    HW1 8172   3.395   0.883   8.307  0.8343  4.0040 -1.2908
33068SOL    HW2 8173   3.343   0.866   8.166 -1.0647 -3.2545 -0.1059
33069SOL     OW 8174   8.045   7.882   5.007  0.1117  0.0955 -0.7098
33069SOL    HW1 8175   7.996   7.932   5.073 -2.5556 -1.0018 -1.7290
33069SOL    HW2 8176   7.997   7.897   4.926  1.3491 -1.2717 -1.7350
33070SOL     OW 8177  11.562   0.988   2.609  0.2604 -0.0216 -0.6413
33070SOL    HW1 8178  11.584   1.081   2.607  1.5659 -0.2796  0.5860
33070SOL    HW2 8179  11.572   0.962   2.700  0.1396 -1.4191 -0.9992
33071SOL     OW 8180   1.783   7.207  11.083 -0.1486  0.3162  0.3458
33071SOL    HW1 8181   1.763   7.269  11.153  0.8626  1.8211 -0.6373
33071SOL    HW2 8182   1.704   7.153  11.077 -0.5105  0.5422  2.1991
33072SOL     OW 8183   1.593  11.319  10.030 -0.0480  0.6245  0.0126
33072SOL    HW1 8184   1.583  11.246  10.091 -0.0762  0.9457  0.3950
33072SOL    HW2 8185   1.522  11.379  10.052  0.6839  1.3356  0.5074
33073SOL     OW 8186   1.202   1.268   1.836  0.4613  0.5152 -0.0255
33073SOL    HW1 8187   1.258   1.244   1.909  2.1535  0.0027 -1.4192
33073SOL    HW2 8188   1.114   1.245   1.864  0.8910  1.3968  2.2673
33074SOL     OW 8189   7.535   3.821   0.115 -0.0943 -0.0464  0.2368
33074SOL    HW1 8190   7.580   3.826   0.199  0.0571  0.6144  0.1215
33074SOL    HW2 8191   7.460   3.762   0.131 -0.2749  0.3666  0.9264
33075SOL     OW 8192   2.285   8.902   6.045  0.5362  0.0980 -0.1513
33075SOL    HW1 8193   2.277   8.982   6.096 -1.4516  0.1876 -0.5381
33075SOL    HW2 8194   2.334   8.842   6.101  0.5344  1.0079  0.8362
33076SOL     OW 8195   7.465  11.368   0.451 -0.5283  0.6889  0.2608
33076SOL    HW1 8196   7.422  11.449   0.424  0.6113  1.5859  1.0292
33076SOL    HW2 8197   7.554  11.375   0.417 -0.4893 -0.3595  0.1261
33077SOL     OW 8198   9.062   4.759   3.838 -0.6879 -0.6365 -0.6183
33077SOL    HW1 8199   9.025   4.768   3.926  1.2767 -1.2644  0.3249
33077SOL    HW2 8200   9.040   4.669   3.812 -2.4897 -0.0171 -1.4184
33078SOL     OW 8201  11.818   9.568   1.241 -0.1131 -0.3122  0.7576
33078SOL    HW1 8202  11.751   9.589   1.177 -0.0099 -0.4670  0.5955
33078SOL    HW2 8203  11.895   9.617   1.213 -0.0481 -0.4332  0.7239
33079SOL     OW 8204  10.541   5.809   4.281  0.5376  0.0642  0.3470
33079SOL    HW1 8205  10.615   5.834   4.337 -0.1492  2.2749  0.3698
33079SOL    HW2 8206  10.564   5.842   4.195 -0.0135 -0.0626  0.1509
33080SOL     OW 8207   2.751   3.781   3.130 -0.4831  0.1270 -0.0696
33080SOL    HW1 8208   2.838   3.741   3.144 -1.4732 -1.9133  0.6465
33080SOL    HW2 8209   2.696   3.708   3.100 -2.0722  1.2931 -0.0979
33081SOL     OW 8210   4.058   7.295   0.711  0.1188  0.7160  0.3040
33081SOL    HW1 8211   4.027   7.223   0.656 -0.8531  1.6185 -0.3760
33081SOL    HW2 8212   4.137   7.327   0.666 -0.8595  1.6676 -0.8045
33082SOL     OW 8213   3.476  10.898  11.092  0.1913  0.4008  0.4872
33082SOL    HW1 8214   3.472  10.814  11.137  0.3075  1.3373  2.3158
33082SOL    HW2 8215   3.567  10.906  11.063 -0.2645 -0.9834 -1.5849
33083SOL     OW 8216   4.672  11.710   1.089  0.0173 -0.0346 -0.4925
33083SOL    HW1 8217   4.729  11.784   1.069  0.0018  0.3009  0.6060
33083SOL    HW2 8218   4.732  11.638   1.110  0.0396 -0.5187 -2.0844
33084SOL     OW 8219   4.283  11.337   7.586  0.1954 -0.7709 -0.1350
33084SOL    HW1 8220   4.338  11.408   7.553  0.0327 -0.0249  1.1303
33084SOL    HW2 8221   4.203  11.343   7.535  0.5832 -0.7129 -0.7466
33085SOL     OW 8222  11.688   9.132   3.415 -0.1203  0.1928 -0.1662
33085SOL    HW1 8223  11.658   9.054   3.368  0.0521  0.5683 -0.9133
33085SOL    HW2 8224  11.775   9.149   3.380  0.5800 -0.3017  1.2662
33086SOL     OW 8225   0.419  12.250  11.663 -0.2798 -0.0321  0.2006
33086SOL    HW1 8226   0.345  12.296  11.703 -0.1297 -0.1554  0.6285
33086SOL    HW2 8227   0.473  12.320  11.625 -0.4621  0.0826  0.1521
33087SOL     OW 8228   4.075   1.969   8.276  0.4765 -0.4887  0.6873
33087SOL    HW1 8229   3.991   2.015   8.284  0.5676 -0.0115 -0.8249
33087SOL    HW2 8230   4.137   2.024   8.324  0.4628  0.6903 -0.5945
33088SOL     OW 8231   7.515   2.501   9.170 -0.0650  0.3906  0.1127
33088SOL    HW1 8232   7.511   2.420   9.118  1.5285 -0.5841  1.4094
33088SOL    HW2 8233   7.601   2.538   9.149 -0.2375  1.0462  0.5567
33089SOL     OW 8234   3.636   1.880  10.841  0.5176  0.1731  0.2006
33089SOL    HW1 8235   3.724   1.882  10.879  0.6382 -1.0593  0.0460
33089SOL    HW2 8236   3.586   1.945  10.890  1.2811  0.2512  0.8870
33090SOL     OW 8237   8.822   2.498   9.954 -0.0919 -0.4233  0.2155
33090SOL    HW1 8238   8.757   2.567   9.969 -2.4320 -1.9624 -1.9186
33090SOL    HW2 8239   8.854   2.477  10.041  0.5888  3.1214  0.9801
33091SOL     OW 8240   7.318   6.901  11.773 -0.0067  0.5242 -0.0421
33091SOL    HW1 8241   7.248   6.955  11.735  0.4206  1.9295  1.0695
33091SOL    HW2 8242   7.398   6.935  11.733  0.3557  1.3897  1.3758
33092SOL     OW 8243   5.184   3.341   6.522 -0.1264 -0.0424 -0.3966
33092SOL    HW1 8244   5.093   3.365   6.538  0.1834  2.3134 -1.7075
33092SOL    HW2 8245   5.183   3.247   6.509 -1.9389 -0.5028  2.2657
33093SOL     OW 8246   1.579   9.833  11.539  0.3380  0.1189 -0.5724
33093SOL    HW1 8247   1.500   9.832  11.485  0.6350 -0.6818 -1.0063
33093SOL    HW2 8248   1.611   9.743  11.536  0.2731  0.0048  1.0713
33094SOL     OW 8249   5.827   4.609   8.253 -0.4658 -0.0131 -0.5635
33094SOL    HW1 8250   5.788   4.667   8.188 -0.9644 -3.1448 -3.3511
33094SOL    HW2 8251   5.753   4.577   8.304 -0.3605  0.7767  0.0908
33095SOL     OW 8252   5.221   5.501   0.598  0.0142  0.5558 -0.3657
33095SOL    HW1 8253   5.169   5.572   0.634  0.0633  0.3946  0.0293
33095SOL    HW2 8254   5.156   5.439   0.564 -0.1601 -0.5497  1.8133
33096SOL     OW 8255   9.114   5.058   4.500  0.2163  0.8374 -0.3201
33096SOL    HW1 8256   9.202   5.034   4.528  0.1997 -0.5875 -1.3857
33096SOL    HW2 8257   9.125   5.091   4.410 -0.2384  1.4621 -0.1573
33097SOL     OW 8258  10.832   7.962   0.660 -0.2037 -0.1747  0.7369
33097SOL    HW1 8259  10.907   7.969   0.719 -0.0630 -0.0409  0.5412
33097SOL    HW2 8260  10.763   7.922   0.714 -0.3411  0.7133  1.2430
33098SOL     OW 8261  11.778  11.403   8.969  0.1563  0.7121  0.4995
33098SOL    HW1 8262  11.807  11.449   8.891 -0.1465 -0.5448 -0.3804
33098SOL    HW2 8263  11.858  11.391   9.021  0.6663  0.1564 -0.3782
33099SOL     OW 8264   2.067   2.212   4.587 -0.4797 -0.0905 -0.4283
33099SOL    HW1 8265   2.077   2.304   4.612 -0.9063  0.0341 -0.7076
33099SOL    HW2 8266   1.988   2.183   4.633 -1.4169  0.2077 -1.7736
33100SOL     OW 8267   5.169   4.054   4.430  0.3028 -0.5294 -0.2446
33100SOL    HW1 8268   5.160   4.143   4.464  2.5758  0.1215 -1.1717
33100SOL    HW2 8269   5.172   3.999   4.508 -0.7521  0.2000  0.3532
33101SOL     OW 8270   2.533  10.471   8.086 -0.0106 -0.1430 -0.2364
33101SOL    HW1 8271   2.624  10.468   8.117  0.1003  1.4653 -0.3113
33101SOL    HW2 8272   2.534  10.421   8.004  0.4953 -1.2957  0.4504
33102SOL     OW 8273  11.346  11.428   1.145 -0.2539 -0.2467  0.5797
33102SOL    HW1 8274  11.338  11.364   1.074  0.6581 -0.4940  0.6895
33102SOL    HW2 8275  11.386  11.504   1.105  1.8228 -0.9796  1.1371
33103SOL     OW 8276   7.933  10.227   0.016  0.1887  0.4194 -1.0164
33103SOL    HW1 8277   7.879  10.293  -0.027  0.1590  1.6121  0.7355
33103SOL    HW2 8278   7.898  10.222   0.105  0.2843 -1.8995 -1.0278
33104SOL     OW 8279   6.294  10.016   1.090 -0.3535  0.1168  0.2375
33104SOL    HW1 8280   6.375  10.064   1.106 -0.3290  0.3307 -0.4710
33104SOL    HW2 8281   6.249  10.067   1.022 -1.2901  0.2290  0.9333
33105SOL     OW 8282   0.326   6.728   2.111 -0.1553 -0.5376  0.0260
33105SOL    HW1 8283   0.363   6.645   2.143 -1.0325 -1.3594 -1.0061
33105SOL    HW2 8284   0.400   6.788   2.109  0.8742 -1.7713 -0.7532
33106SOL     OW 8285   6.504   0.989  11.874 -0.2514 -0.0258  0.0063
33106SOL    HW1 8286   6.518   0.977  11.968  0.0079 -1.5596 -0.2019
33106SOL    HW2 8287   6.591   0.978  11.835 -0.4369  0.1171 -0.4564
33107SOL     OW 8288  10.851   8.698   6.664  0.2697 -0.2212 -0.1087
33107SOL    HW1 8289  10.854   8.790   6.637 -0.8745  0.2251  1.1500
33107SOL    HW2 8290  10.881   8.698   6.755 -2.0099 -0.6844  0.7130
33108SOL     OW 8291   1.052   0.853   5.089  0.3898 -0.7147 -0.5454
33108SOL    HW1 8292   1.077   0.857   4.997 -1.2748 -0.8876 -1.0403
33108SOL    HW2 8293   0.995   0.775   5.095 -0.0667 -0.3239  0.4706
33109SOL     OW 8294   1.764   3.711   5.488  0.2434  0.1705  0.4757
33109SOL    HW1 8295   1.813   3.658   5.550  1.0248 -0.7350 -0.8579
33109SOL    HW2 8296   1.831   3.749   5.431 -0.5586 -1.3294 -1.5860
33110SOL     OW 8297   0.611  11.933   9.953  0.1742 -0.0947 -0.3765
33110SOL    HW1 8298   0.539  11.869   9.954  0.0843 -0.1470 -2.7743
33110SOL    HW2 8299   0.672  11.898   9.888  1.6889  0.6814  0.5996
33111SOL     OW 8300   5.163   0.003  12.124  0.2747  0.2437  0.1388
33111SOL    HW1 8301   5.160  -0.067  12.059 -0.4954 -1.1217  1.5644
33111SOL    HW2 8302   5.253   0.002  12.157  0.3164  0.0475  0.0204
33112SOL     OW 8303   2.751   5.467   2.141  0.1585 -0.6835  0.3309
33112SOL    HW1 8304   2.685   5.409   2.180  0.6553 -0.5677  1.3729
33112SOL    HW2 8305   2.702   5.523   2.081 -0.6760 -0.6754  1.0092
33113SOL     OW 8306   7.705   7.686   6.399  0.5107  0.0762  0.0932
33113SOL    HW1 8307   7.733   7.697   6.308  1.1300  1.7038  0.4461
33113SOL    HW2 8308   7.614   7.714   6.399  0.8764  1.3252  0.1874
33114SOL     OW 8309   3.098   8.002   4.886 -0.2670  0.1041  0.1361
33114SOL    HW1 8310   3.049   7.958   4.817  0.3094  1.0236 -0.8945
33114SOL    HW2 8311   3.190   7.993   4.860  0.0707 -0.7627  1.5351
33115SOL     OW 8312  12.048   9.410   8.531 -0.4579 -1.2771  0.1625
33115SOL    HW1 8313  12.011   9.337   8.581  0.5018 -2.3261 -0.6029
33115SOL    HW2 8314  12.070   9.372   8.446  0.2964 -0.1550 -0.1669
33116SOL     OW 8315   2.169   0.662  11.959  0.2950  0.3607  0.6167
33116SOL    HW1 8316   2.137   0.580  11.920  1.8123 -0.4252  0.9614
33116SOL    HW2 8317   2.158   0.649  12.053  0.5587  0.5421  0.6718
33117SOL     OW 8318  11.098   6.113   9.210 -0.3046  0.0350  0.0490
33117SOL    HW1 8319  11.137   6.078   9.130  1.6371  0.4980  0.7308
33117SOL    HW2 8320  11.167   6.105   9.276 -2.1512 -1.2668  1.9833
33118SOL     OW 8321   5.987  10.647  11.797  0.5264  0.3395 -0.8984
33118SOL    HW1 8322   6.020  10.619  11.712  1.2600  0.4497 -0.6625
33118SOL    HW2 8323   6.022  10.736  11.807  1.2722 -0.0298 -0.0656
33119SOL     OW 8324   8.068   3.960   9.125  0.0245 -0.4398  0.6076
33119SOL    HW1 8325   8.031   3.892   9.069 -3.6479  0.7166  1.3421
33119SOL    HW2 8326   8.094   4.029   9.064 -1.6865 -0.1911  0.0911
33120SOL     OW 8327   8.286   8.446   1.932 -0.1188  0.2062 -0.2405
33120SOL    HW1 8328   8.221   8.486   1.990  2.2027  1.9787  1.3491
33120SOL    HW2 8329   8.309   8.515   1.870  0.8197 -0.1016 -0.2494
33121SOL     OW 8330   6.876   6.548  10.677  0.3953  0.0669  0.4240
33121SOL    HW1 8331   6.944   6.502  10.627  0.4649  0.3791  0.2247
33121SOL    HW2 8332   6.896   6.641  10.664  0.1963  0.1559  0.7362
33122SOL     OW 8333   5.304   6.201   9.273  0.6361  0.4040 -0.0576
33122SOL    HW1 8334   5.279   6.280   9.226 -0.3160  0.2426  0.1508
33122SOL    HW2 8335   5.231   6.184   9.332 -0.2728 -1.9258 -1.7371
33123SOL     OW 8336   7.546  10.705   7.099  0.6758  0.0122 -0.0902
33123SOL    HW1 8337   7.541  10.783   7.044  0.4054  0.2536  0.2737
33123SOL    HW2 8338   7.517  10.734   7.186  1.0558 -0.3709  0.1738
33124SOL     OW 8339   3.904   8.154   0.943 -0.0741  0.5812 -0.4888
33124SOL    HW1 8340   3.970   8.144   1.011 -0.5296  0.4877 -0.0533
33124SOL    HW2 8341   3.912   8.245   0.915  2.6030 -0.2715 -2.9293
33125SOL     OW 8342   7.587   9.645  12.434  0.0075 -0.1801  0.3198
33125SOL    HW1 8343   7.508   9.630  12.383  0.5001 -0.6342 -0.3186
33125SOL    HW2 8344   7.655   9.665  12.370  0.0642  1.9377  0.9442
33126SOL     OW 8345   8.226   1.302   2.573  0.1050 -0.1050  0.2484
33126SOL    HW1 8346   8.321   1.313   2.568  0.1145 -0.3566 -0.2043
33126SOL    HW2 8347   8.191   1.386   2.544  0.1757 -1.1115 -3.1437
33127SOL     OW 8348   6.839  10.860   3.820  0.5312 -0.3688  0.1830
33127SOL    HW1 8349   6.794  10.838   3.738 -0.7340 -1.8714  1.2335
33127SOL    HW2 8350   6.856  10.776   3.862  2.3062  0.3019  0.9137
33128SOL     OW 8351   8.785   5.660   2.560 -0.1478 -0.0672  0.6312
33128SOL    HW1 8352   8.768   5.654   2.466  0.6936  1.8423  0.3175
33128SOL    HW2 8353   8.843   5.586   2.578  1.3115  0.6735 -0.7771
33129SOL     OW 8354   1.960   4.971  10.076 -0.3592 -0.7583  0.2013
33129SOL    HW1 8355   1.921   4.949  10.160 -1.7946  0.2233 -0.1557
33129SOL    HW2 8356   1.923   5.057  10.054  1.2007 -0.2750 -0.7021
33130SOL     OW 8357   3.269   0.878   5.574 -0.2318  0.1049  0.4332
33130SOL    HW1 8358   3.176   0.861   5.585  0.2242 -2.2123  1.1048
33130SOL    HW2 8359   3.283   0.963   5.616 -1.8856  0.0975  1.0665
33131SOL     OW 8360   3.493   2.984   0.953 -0.2346 -0.5192 -0.5537
33131SOL    HW1 8361   3.574   3.019   0.991 -1.0382  0.5606  0.2296
33131SOL    HW2 8362   3.423   3.024   1.005 -1.3438  0.0196 -2.3670
33132SOL     OW 8363   8.662   8.378   5.268 -0.4959 -0.3213 -0.1767
33132SOL    HW1 8364   8.599   8.390   5.338 -0.1953 -0.4292  0.1138
33132SOL    HW2 8365   8.739   8.340   5.310 -0.4562 -0.7614 -0.6267
33133SOL     OW 8366   3.943  10.463   5.330  0.1877  0.5792  0.0800
33133SOL    HW1 8367   4.026  10.430   5.295 -0.7562 -0.9347 -0.8323
33133SOL    HW2 8368   3.876  10.407   5.291 -1.5946  3.6985 -1.8386
33134SOL     OW 8369   4.646   8.998   8.395  0.0332  0.6466  0.5723
33134SOL    HW1 8370   4.704   9.023   8.467  2.4038 -0.7503 -0.7118
33134SOL    HW2 8371   4.606   9.080   8.367 -0.2461  1.3619  2.8312
33135SOL     OW 8372   6.028  11.023  11.051  0.0788  0.1241 -0.5783
33135SOL    HW1 8373   5.990  11.067  11.127  1.9664  0.0078  0.5110
33135SOL    HW2 8374   5.957  11.018  10.988 -0.7834  2.8413  0.0423
33136SOL     OW 8375  12.329  11.277   7.055  0.8419 -0.0584 -0.5201
33136SOL    HW1 8376  12.251  11.324   7.025 -0.3069 -1.2914  0.4082
33136SOL    HW2 8377  12.335  11.201   6.997  0.6834 -0.5579  0.1065
33137SOL     OW 8378   7.119   2.474  10.121 -0.4121 -0.2716 -0.2413
33137SOL    HW1 8379   7.037   2.425  10.127 -0.5668 -0.0375 -0.4227
33137SOL    HW2 8380   7.141   2.495  10.211  1.1830 -3.1591  0.1541
33138SOL     OW 8381   6.519   4.386   4.686 -0.1044 -0.7845 -0.2230
33138SOL    HW1 8382   6.606   4.425   4.679  0.1529 -1.4170 -0.5547
33138SOL    HW2 8383   6.467   4.433   4.620 -0.0540 -0.3283  0.0549
33139SOL     OW 8384   6.606   1.098   4.439 -0.1605 -0.0776 -0.3972
33139SOL    HW1 8385   6.634   1.176   4.391  1.0319 -1.4731 -2.0977
33139SOL    HW2 8386   6.652   1.026   4.397 -1.4417 -1.7646  0.9264
33140SOL     OW 8387   4.341   9.209   9.653  0.0337  0.3677 -0.7105
33140SOL    HW1 8388   4.292   9.126   9.648  1.2555 -0.6480  2.1887
33140SOL    HW2 8389   4.406   9.202   9.583 -0.5442 -0.6594 -1.1806
33141SOL     OW 8390   0.807  11.315   4.537  0.5680 -0.2781  0.1210
33141SOL    HW1 8391   0.811  11.220   4.550  0.1816 -0.0531  2.2312
33141SOL    HW2 8392   0.735  11.327   4.475  0.2481 -1.3387  0.2591
33142SOL     OW 8393   2.364   6.765   0.511 -0.1215 -0.2012  0.3459
33142SOL    HW1 8394   2.442   6.740   0.461 -0.5845 -0.0848 -0.4600
33142SOL    HW2 8395   2.360   6.701   0.582  0.0953 -0.8928 -0.2488
33143SOL     OW 8396  10.035   0.772   1.055 -0.3180 -0.2338 -0.4447
33143SOL    HW1 8397  10.002   0.854   1.091 -0.1831 -0.2780 -0.2147
33143SOL    HW2 8398  10.078   0.797   0.973 -0.8187 -0.1627 -0.6839
33144SOL     OW 8399  10.854  10.151   0.120  0.1720 -0.1624  0.0486
33144SOL    HW1 8400  10.853  10.165   0.214 -0.1761  1.8893 -0.2225
33144SOL    HW2 8401  10.778  10.198   0.087  0.0888 -1.1284 -1.2489
33145SOL     OW 8402   6.746  12.552   5.811  0.9278 -0.0920  0.2710
33145SOL    HW1 8403   6.668  12.547   5.756  1.4490  1.2835 -0.6464
33145SOL    HW2 8404   6.813  12.503   5.762  0.9325 -0.3757  0.5537
33146SOL     OW 8405   2.002   6.861   6.137 -0.0397 -0.6742  0.0269
33146SOL    HW1 8406   2.080   6.916   6.127  0.1191 -1.1223 -1.4010
33146SOL    HW2 8407   1.952   6.877   6.058 -0.2383 -2.2071 -0.1779
33147SOL     OW 8408   9.623   7.351   9.836  0.4140  0.1386 -0.0475
33147SOL    HW1 8409   9.543   7.356   9.889  0.8543  0.0268  0.6447
33147SOL    HW2 8410   9.673   7.279   9.875  0.2382 -0.7288 -1.3505
33148SOL     OW 8411   9.245  11.039   8.646  0.0405 -0.4526 -0.3571
33148SOL    HW1 8412   9.317  11.080   8.695  0.6249 -0.2889 -1.3171
33148SOL    HW2 8413   9.277  10.951   8.627 -1.0239 -1.2379  1.2926
33149SOL     OW 8414  11.520   6.352   2.967  0.4860  0.5614 -0.0490
33149SOL    HW1 8415  11.481   6.333   3.053 -2.2806  0.4123 -1.2080
33149SOL    HW2 8416  11.553   6.267   2.937 -1.1141 -0.0439 -0.2500
33150SOL     OW 8417   1.332   4.730  12.531  0.0465  0.1165  0.3689
33150SOL    HW1 8418   1.335   4.757  12.439  1.7632  2.9755  1.1105
33150SOL    HW2 8419   1.400   4.663  12.539 -0.0478 -0.0803 -0.4041
33151SOL     OW 8420   2.299   7.677   6.468 -0.2559  0.6964 -0.1053
33151SOL    HW1 8421   2.217   7.689   6.514  0.3897 -0.4646  1.4430
33151SOL    HW2 8422   2.353   7.626   6.528  1.7799  1.8235 -0.8627
33152SOL     OW 8423  11.348   2.475   8.756  0.0742 -0.1410  0.5083
33152SOL    HW1 8424  11.320   2.558   8.717  0.5298  0.7953  2.0596
33152SOL    HW2 8425  11.270   2.420   8.754 -0.6479  0.8484  0.7522
33153SOL     OW 8426   2.534   0.623   1.980 -0.0729  0.4640 -0.5506
33153SOL    HW1 8427   2.591   0.547   1.985  0.6462  1.0039 -0.4999
33153SOL    HW2 8428   2.484   0.609   1.898 -0.5991 -0.4912 -0.0902
33154SOL     OW 8429   5.515   8.186   0.843 -0.0040  0.2023 -0.2051
33154SOL    HW1 8430   5.578   8.255   0.824 -1.4678  1.2919 -1.2377
33154SOL    HW2 8431   5.437   8.232   0.873 -0.3339 -1.1256  1.0830
33155SOL     OW 8432   5.927   0.810   5.938  0.4587  0.2299 -0.1689
33155SOL    HW1 8433   5.995   0.745   5.954  1.3311  1.1112 -0.1823
33155SOL    HW2 8434   5.848   0.771   5.975  1.6002  0.5228  2.9540
33156SOL     OW 8435  10.676  11.947   8.288  0.4004 -0.2448  0.4776
33156SOL    HW1 8436  10.651  12.015   8.225 -1.2001  0.1458  1.4734
33156SOL    HW2 8437  10.608  11.880   8.277  1.1789 -1.0583  0.4932
33157SOL     OW 8438   2.005   9.605   3.819  0.7158  0.2101  0.1650
33157SOL    HW1 8439   1.987   9.522   3.775  1.5079  0.0076  0.2046
33157SOL    HW2 8440   1.931   9.661   3.796  0.2886 -0.4329 -0.0494
33158SOL     OW 8441   4.998   6.432   1.338  0.2360  0.2827 -0.2167
33158SOL    HW1 8442   5.052   6.413   1.262  1.9752  0.9309  0.8088
33158SOL    HW2 8443   4.929   6.490   1.305 -0.1432 -0.9223 -1.6338
33159SOL     OW 8444   1.127  10.395   7.142 -0.3830 -0.1418 -0.4105
33159SOL    HW1 8445   1.036  10.397   7.115 -1.5525 -3.9523  2.4746
33159SOL    HW2 8446   1.130  10.444   7.224  0.2478  0.1122 -0.5710
33160SOL     OW 8447   1.651   8.611   5.186 -0.1116 -0.2074 -0.5635
33160SOL    HW1 8448   1.711   8.684   5.205 -1.8128  0.7973  1.2318
33160SOL    HW2 8449   1.708   8.534   5.184  2.1045  1.1939 -4.4434
33161SOL     OW 8450  10.828   3.829   4.940  0.2429 -0.4505 -0.3270
33161SOL    HW1 8451  10.804   3.910   4.985  0.6231 -0.4422 -0.1327
33161SOL    HW2 8452  10.914   3.847   4.902 -0.0549 -0.4775 -1.0181
33162SOL     OW 8453   7.027   7.183   4.433 -0.7201 -0.2493 -0.1638
33162SOL    HW1 8454   7.080   7.218   4.505 -2.9300  1.9552  0.5124
33162SOL    HW2 8455   6.938   7.180   4.468 -1.5688 -0.7876 -2.2483
33163SOL     OW 8456   5.363   3.176   6.245 -0.1081  0.3740  0.2556
33163SOL    HW1 8457   5.397   3.139   6.164 -0.5848 -0.0773  0.2598
33163SOL    HW2 8458   5.422   3.249   6.264  0.2047  0.2781 -0.3167
33164SOL     OW 8459  10.956   5.660   3.677  0.1808  0.3265 -0.1125
33164SOL    HW1 8460  10.868   5.677   3.643 -0.2924  1.5524  1.5751
33164SOL    HW2 8461  11.013   5.708   3.618 -0.1955 -0.9440 -1.5644
33165SOL     OW 8462   1.655   4.231   6.219  0.3602  0.1137  0.8392
33165SOL    HW1 8463   1.589   4.263   6.158 -1.4795  1.0408  3.1737
33165SOL    HW2 8464   1.738   4.246   6.174 -0.7928  2.4624 -0.7089
33166SOL     OW 8465   4.200   2.136  12.596 -0.0319  0.5541 -0.8790
33166SOL    HW1 8466   4.280   2.185  12.614  0.4853 -0.4205 -0.4205
33166SOL    HW2 8467   4.221   2.047  12.623 -2.2427  0.8073  2.1030
33167SOL     OW 8468   8.486   0.498   4.180 -0.3686 -0.0248  0.3357
33167SOL    HW1 8469   8.573   0.511   4.143 -0.4616  0.6543  0.3296
33167SOL    HW2 8470   8.427   0.506   4.104 -0.4188 -0.7522  0.2955
33168SOL     OW 8471   9.820   1.787   7.549 -0.0454 -1.0681 -0.7341
33168SOL    HW1 8472   9.765   1.864   7.554 -0.0816 -1.0456 -1.3688
33168SOL    HW2 8473   9.793   1.743   7.468  0.9582 -0.9796 -1.1307
33169SOL     OW 8474   8.772  11.143   7.651 -0.3450 -0.0615 -0.5591
33169SOL    HW1 8475   8.818  11.111   7.728  0.5605  1.9164 -0.2080
33169SOL    HW2 8476   8.807  11.092   7.578  0.4539 -0.4015  0.0557
33170SOL     OW 8477   3.309   9.619  12.164  0.5531 -0.0655 -0.2826
33170SOL    HW1 8478   3.246   9.548  12.148 -0.0492  0.7598 -1.7934
33170SOL    HW2 8479   3.366   9.618  12.087  1.2538  0.3668  0.2202
33171SOL     OW 8480   0.920   1.938   4.679 -0.1527  0.0031  0.6831
33171SOL    HW1 8481   0.958   1.873   4.739 -0.7202 -0.3176  0.6990
33171SOL    HW2 8482   0.844   1.972   4.725 -2.3288 -2.3122 -0.9544
33172SOL     OW 8483   0.005   9.047   5.282  0.4846 -0.7391 -0.9426
33172SOL    HW1 8484   0.076   9.090   5.234  1.3926  0.4560  1.3063
33172SOL    HW2 8485  -0.020   9.110   5.349 -0.3162 -2.5161  0.5270
33173SOL     OW 8486   2.183   5.139   0.760  0.2779  0.1990  0.3148
33173SOL    HW1 8487   2.219   5.170   0.676 -0.3689  1.9826  0.6454
33173SOL    HW2 8488   2.118   5.074   0.735  0.6447  0.1254 -0.5169
33174SOL     OW 8489   8.808  12.392   0.825 -0.4025 -0.0022  0.0654
33174SOL    HW1 8490   8.847  12.331   0.887  1.5368  1.3994  0.3281
33174SOL    HW2 8491   8.878  12.410   0.762 -0.8333  1.9764  0.0689
33175SOL     OW 8492   4.448  12.091  10.680 -0.1490 -0.5899  0.2457
33175SOL    HW1 8493   4.377  12.055  10.734  0.3402 -2.1597 -0.1127
33175SOL    HW2 8494   4.403  12.144  10.615 -0.8449  0.0995  1.2510
33176SOL     OW 8495   5.092  10.756   9.655 -0.2000  0.4566 -0.4363
33176SOL    HW1 8496   5.161  10.707   9.699 -1.7225 -1.1143  0.3587
33176SOL    HW2 8497   5.034  10.785   9.726 -0.9386  0.7980 -1.1494
33177SOL     OW 8498   8.630   6.808  11.201  0.1938 -0.4335 -0.2780
33177SOL    HW1 8499   8.681   6.754  11.262  0.4792  2.1339  1.9466
33177SOL    HW2 8500   8.695   6.864  11.159 -0.5200  1.6875  1.3141
33178SOL     OW 8501   7.781  10.272   5.723  0.0440  0.1236 -0.0881
33178SOL    HW1 8502   7.865  10.288   5.681  0.1580  1.0693  0.4793
33178SOL    HW2 8503   7.735  10.213   5.663  1.3102 -0.8415 -0.1316
33179SOL     OW 8504   8.195   2.509   1.423 -0.1389 -0.2211 -0.2080
33179SOL    HW1 8505   8.110   2.507   1.468  0.5602 -0.4816  1.1439
33179SOL    HW2 8506   8.257   2.536   1.490  1.0222 -1.0898 -0.8928
33180SOL     OW 8507   8.107   8.219  10.199 -0.1576 -0.2670 -0.0563
33180SOL    HW1 8508   8.107   8.124  10.209 -1.1682 -0.3451 -0.7184
33180SOL    HW2 8509   8.158   8.251  10.274  0.3554 -1.3349  0.0594
33181SOL     OW 8510   3.594   3.745   2.796  0.4278 -0.1275  0.5212
33181SOL    HW1 8511   3.564   3.659   2.828 -0.6464 -0.3999 -1.0712
33181SOL    HW2 8512   3.536   3.808   2.839  0.5173 -0.2779  0.8700
33182SOL     OW 8513  11.370   6.985   0.601 -0.1427  0.1652  0.2870
33182SOL    HW1 8514  11.398   6.899   0.634  1.4101  0.5737  0.1130
33182SOL    HW2 8515  11.281   6.995   0.634 -0.1694 -1.2953  0.7385
33183SOL     OW 8516  12.392   2.236   9.419  0.1682 -0.1316  0.7527
33183SOL    HW1 8517  12.468   2.225   9.362  0.0236  0.2706  0.4776
33183SOL    HW2 8518  12.369   2.329   9.411  0.1853 -0.0601  1.5170
33184SOL     OW 8519  11.170   6.760   8.454 -0.3795  0.6788 -0.2212
33184SOL    HW1 8520  11.215   6.782   8.373 -0.5474  2.1177  0.0461
33184SOL    HW2 8521  11.190   6.668   8.469  0.5137  0.6767 -1.3407
33185SOL     OW 8522   4.983   6.370   7.881 -0.4759 -0.2643  0.2088
33185SOL    HW1 8523   5.076   6.392   7.879 -0.3639 -0.6852  0.4527
33185SOL    HW2 8524   4.959   6.376   7.974  0.0363 -2.9515  0.6016
33186SOL     OW 8525   0.495   8.441   4.276  0.1898  0.1767 -0.1219
33186SOL    HW1 8526   0.449   8.518   4.309  2.6784  2.0833 -0.8620
33186SOL    HW2 8527   0.480   8.374   4.344 -1.4811  1.4632  0.8630
33187SOL     OW 8528   2.607   4.737   3.890 -0.2982 -0.2025  0.3780
33187SOL    HW1 8529   2.595   4.697   3.975 -0.2416 -0.6420  0.1813
33187SOL    HW2 8530   2.545   4.810   3.888  1.6415  1.6078  1.9072
33188SOL     OW 8531   1.074   3.195   0.851  0.1074 -0.3068  0.0594
33188SOL    HW1 8532   1.035   3.125   0.904  0.2742 -1.4340 -1.2750
33188SOL    HW2 8533   1.036   3.183   0.764  2.3641 -0.6032 -0.9461
33189SOL     OW 8534   0.252   7.195   8.405  0.4582  0.1469 -0.5085
33189SOL    HW1 8535   0.157   7.209   8.407  0.3515 -0.4281  2.1014
33189SOL    HW2 8536   0.275   7.205   8.313 -2.0833  0.5811 -1.1952
33190SOL     OW 8537   7.864   0.514   1.402  0.1085  0.3827  0.0495
33190SOL    HW1 8538   7.801   0.481   1.339 -0.2454  1.1610 -0.0111
33190SOL    HW2 8539   7.949   0.491   1.365  0.0078  2.6689 -1.8237
33191SOL     OW 8540   3.603   4.295   9.507 -0.0867  0.3721 -0.3817
33191SOL    HW1 8541   3.600   4.389   9.522 -0.7881  0.6524 -2.0549
33191SOL    HW2 8542   3.552   4.281   9.428  1.3570 -1.2048 -1.1204
33192SOL     OW 8543   3.094   0.599   1.207 -0.7488  0.3101  0.2296
33192SOL    HW1 8544   3.007   0.564   1.229 -1.0623  0.6228 -0.4757
33192SOL    HW2 8545   3.101   0.679   1.259 -0.8606  0.2489  0.3403
33193SOL     OW 8546  10.047   0.053   9.399 -0.2013  0.3087 -0.1134
33193SOL    HW1 8547   9.985   0.082   9.466  0.2353  0.1707  0.3482
33193SOL    HW2 8548  10.121   0.112   9.407 -0.1311  0.2726 -0.4592
33194SOL     OW 8549   5.045   2.195   3.898 -0.1252 -0.4039  0.1781
33194SOL    HW1 8550   5.039   2.109   3.940 -0.4612 -0.6789 -0.4286
33194SOL    HW2 8551   5.025   2.257   3.968 -2.0219 -0.9105  0.1315
33195SOL     OW 8552   2.316  10.203   3.938  0.2932 -0.0511  0.1293
33195SOL    HW1 8553   2.314  10.237   3.849 -2.5675  3.7503  1.3935
33195SOL    HW2 8554   2.225  10.183   3.959  0.8884 -0.9274  2.2003
33196SOL     OW 8555   0.839   6.387   3.180  0.5618 -0.4863 -0.3353
33196SOL    HW1 8556   0.812   6.302   3.144 -1.4793  0.1595 -0.4354
33196SOL    HW2 8557   0.864   6.438   3.103  1.5449 -0.8819 -0.2966
33197SOL     OW 8558  11.849   5.788   9.467 -0.4301  0.4315 -0.3197
33197SOL    HW1 8559  11.801   5.871   9.461 -0.0285  0.7003  0.0495
33197SOL    HW2 8560  11.941   5.814   9.461 -0.3267 -0.0623 -0.8997
33198SOL     OW 8561   9.381  10.664   8.733 -0.1791 -0.3079  0.4129
33198SOL    HW1 8562   9.383  10.697   8.643  0.9821  1.1029  0.9212
33198SOL    HW2 8563   9.312  10.715   8.775  0.4667  0.2842  0.7645
33199SOL     OW 8564   6.913   7.910   2.123 -0.2607 -0.5136 -0.5749
33199SOL    HW1 8565   6.830   7.926   2.078 -0.8169 -2.6740 -0.4043
33199SOL    HW2 8566   6.927   7.816   2.116  1.2221 -0.4754  1.0599
33200SOL     OW 8567   0.736   3.673  10.738 -0.9355  0.4738  0.3274
33200SOL    HW1 8568   0.673   3.619  10.786  0.6118 -1.7837  0.0029
33200SOL    HW2 8569   0.809   3.684  10.799  0.2434 -0.8283 -0.7801
33201SOL     OW 8570  12.121   0.441   2.863 -0.2082  0.3055  0.4027
33201SOL    HW1 8571  12.158   0.411   2.946 -1.6452  1.6286  1.5724
33201SOL    HW2 8572  12.197   0.466   2.811  0.6754  0.4348  1.7072
33202SOL     OW 8573   5.747  11.930  10.547 -0.7790 -0.2105 -0.3879
33202SOL    HW1 8574   5.729  11.954  10.457  1.3818 -0.1180 -0.8667
33202SOL    HW2 8575   5.840  11.905  10.547 -1.1897 -2.0711  1.4276
33203SOL     OW 8576   7.480   2.960   9.383  0.1125  0.2973 -0.1810
33203SOL    HW1 8577   7.494   2.950   9.477  0.3588 -0.7977 -0.3189
33203SOL    HW2 8578   7.535   2.892   9.343 -1.6460 -0.7199 -0.9980
33204SOL     OW 8579   1.027   6.925  11.369 -0.7680 -0.4260 -0.4859
33204SOL    HW1 8580   0.974   7.003  11.353  0.8922  0.5107 -1.7545
33204SOL    HW2 8581   1.096   6.929  11.302  0.4828 -1.9540  0.6334
33205SOL     OW 8582  10.680   5.890   8.977  0.0342 -0.5968 -0.5468
33205SOL    HW1 8583  10.775   5.896   8.981 -0.0280 -0.1039  0.5405
33205SOL    HW2 8584  10.649   5.963   9.030 -0.9441 -1.1870 -0.2772
33206SOL     OW 8585   9.871   4.550  10.896 -0.2795  0.2991 -0.3052
33206SOL    HW1 8586   9.835   4.527  10.982 -0.9690 -1.6163 -1.0467
33206SOL    HW2 8587   9.848   4.643  10.884  0.5811  0.8541  1.8977
33207SOL     OW 8588   4.554   8.839   9.884  0.0777  0.2537 -0.0174
33207SOL    HW1 8589   4.643   8.836   9.919  0.3404  2.2411 -0.3971
33207SOL    HW2 8590   4.505   8.891   9.947  0.1641  2.4857 -1.6987
33208SOL     OW 8591   2.796   7.627   1.965  0.0954  0.0910 -0.2063
33208SOL    HW1 8592   2.715   7.635   2.016 -0.8123 -1.5357 -1.3205
33208SOL    HW2 8593   2.855   7.578   2.022 -0.0385  0.4422  0.2389
33209SOL     OW 8594   9.705  12.281   5.224 -0.0326 -0.0865  0.0218
33209SOL    HW1 8595   9.786  12.229   5.221 -0.7983 -1.3399  0.3790
33209SOL    HW2 8596   9.735  12.371   5.240  1.2960 -0.5027 -0.0165
33210SOL     OW 8597   6.630  12.125  12.119 -0.7673 -0.1382  0.1765
33210SOL    HW1 8598   6.722  12.136  12.096 -0.4365  1.5599  2.0282
33210SOL    HW2 8599   6.622  12.034  12.145 -0.3234 -1.1054 -2.7154
33211SOL     OW 8600   3.289   5.114   9.649 -0.3899 -0.6874  0.2977
33211SOL    HW1 8601   3.322   5.137   9.736 -1.5037  0.9079  0.3601
33211SOL    HW2 8602   3.322   5.183   9.592 -1.0373 -0.7777 -0.2025
33212SOL     OW 8603   9.372   0.601  11.099  0.3483  0.3462 -0.4835
33212SOL    HW1 8604   9.292   0.653  11.103 -0.2709 -0.6530  1.9646
33212SOL    HW2 8605   9.429   0.649  11.039 -1.6269  1.7095 -1.3763
33213SOL     OW 8606   1.688   4.886   8.937 -0.0444  0.0676 -0.5778
33213SOL    HW1 8607   1.606   4.838   8.952  0.3789 -1.3397 -2.4069
33213SOL    HW2 8608   1.753   4.818   8.923  0.9091  1.1684 -1.7424
33214SOL     OW 8609  12.401  12.108   7.911  0.2201  0.0069  0.2687
33214SOL    HW1 8610  12.343  12.063   7.973  0.6653 -0.0736  0.6281
33214SOL    HW2 8611  12.488  12.073   7.929  0.3831  0.1148 -0.2833
33215SOL     OW 8612   8.229   2.416  11.145  0.3561 -0.2686 -0.1318
33215SOL    HW1 8613   8.187   2.416  11.231 -0.7093  0.0081 -0.6309
33215SOL    HW2 8614   8.274   2.500  11.140 -0.0618 -0.0368 -0.0605
33216SOL     OW 8615   2.977  12.220  10.103 -0.6731 -0.0878  0.7317
33216SOL    HW1 8616   3.028  12.166  10.163  0.3644 -2.4523 -2.1091
33216SOL    HW2 8617   3.041  12.277  10.060 -1.3249  1.1553  1.3267
33217SOL     OW 8618   5.389   9.907   2.759  0.3272  0.2353  0.0829
33217SOL    HW1 8619   5.465   9.917   2.702  0.9165 -1.3239  0.5520
33217SOL    HW2 8620   5.344   9.992   2.755  0.7283  0.3876 -2.1391
33218SOL     OW 8621   8.763   4.837  11.514 -0.2061 -0.3188  0.7477
33218SOL    HW1 8622   8.739   4.814  11.604  0.6457 -0.3929  0.9670
33218SOL    HW2 8623   8.727   4.924  11.501 -0.4116 -0.3430  1.1318
33219SOL     OW 8624   8.672  10.257  11.563 -0.5662 -0.1719 -0.6700
33219SOL    HW1 8625   8.711  10.173  11.540 -0.8000 -0.2203 -0.8948
33219SOL    HW2 8626   8.658  10.251  11.657  1.2692  0.3909 -0.3186
33220SOL     OW 8627   6.825   6.156  11.707 -0.0122 -0.2532  0.4012
33220SOL    HW1 8628   6.862   6.068  11.708  1.4700  0.3326 -0.0720
33220SOL    HW2 8629   6.731   6.143  11.716 -0.0894 -2.0334 -1.9932
33221SOL     OW 8630   9.113   1.671   7.931  0.4451 -0.5951 -0.8387
33221SOL    HW1 8631   9.032   1.642   7.972 -0.3190  0.5600 -1.4756
33221SOL    HW2 8632   9.114   1.766   7.944  1.5166 -0.5514 -1.1512
33222SOL     OW 8633   7.348   9.587   3.291 -0.2661  0.2474  0.0462
33222SOL    HW1 8634   7.369   9.592   3.384 -1.6568  3.7162  0.3368
33222SOL    HW2 8635   7.344   9.493   3.272  2.1320 -0.5773  2.9213
33223SOL     OW 8636   5.948   8.558  12.320  0.2564 -0.3037 -0.2070
33223SOL    HW1 8637   5.961   8.649  12.293  0.1342  0.2876  1.5935
33223SOL    HW2 8638   6.020   8.510  12.280  0.3520  0.5903 -1.1348
33224SOL     OW 8639   0.773  12.332   9.868 -0.5315 -0.8225 -0.9486
33224SOL    HW1 8640   0.680  12.309   9.870 -0.9516  0.5613  3.1912
33224SOL    HW2 8641   0.774  12.426   9.854  0.4535 -1.0243 -2.6272
33225SOL     OW 8642   6.049   8.118   7.222 -0.0953 -0.2560  0.4476
33225SOL    HW1 8643   6.025   8.190   7.281 -1.4137  0.2845 -0.6984
33225SOL    HW2 8644   5.987   8.048   7.243  0.7291 -0.8309  1.0636
33226SOL     OW 8645   0.497   7.502   7.080  0.2179  0.4962  0.4654
33226SOL    HW1 8646   0.464   7.577   7.030  1.5678 -0.9784 -2.9673
33226SOL    HW2 8647   0.433   7.433   7.062  1.3915 -0.4070 -0.3515
33227SOL     OW 8648   5.200   7.227   2.638 -0.4204 -0.6324 -0.3432
33227SOL    HW1 8649   5.178   7.287   2.709  1.8534 -0.2687  0.1331
33227SOL    HW2 8650   5.209   7.142   2.680 -0.6161 -0.7211 -0.4793
33228SOL     OW 8651   4.874  11.975   1.401 -0.3816  0.1682 -0.2949
33228SOL    HW1 8652   4.968  11.985   1.384 -0.6466  0.2523 -1.8469
33228SOL    HW2 8653   4.870  11.917   1.478  0.9341 -1.0314 -1.0739
33229SOL     OW 8654  11.713   7.211   2.892  0.2916  0.2058 -0.9536
33229SOL    HW1 8655  11.644   7.258   2.938  1.1429 -1.5970  2.5193
33229SOL    HW2 8656  11.667   7.146   2.839 -0.7638 -0.0709  0.2551
33230SOL     OW 8657  11.501   5.370   8.133 -0.7669 -0.5831 -0.3632
33230SOL    HW1 8658  11.440   5.361   8.060 -1.5598  0.4266  0.1529
33230SOL    HW2 8659  11.511   5.464   8.145  1.9883 -0.6489 -1.2962
33231SOL     OW 8660   5.902  10.666   4.911  0.4685 -0.8251 -0.1758
33231SOL    HW1 8661   5.819  10.699   4.875  1.0031 -0.8537 -1.4676
33231SOL    HW2 8662   5.904  10.573   4.886  2.0185 -0.2674 -2.3904
33232SOL     OW 8663   8.054   5.692   5.905 -0.0262  0.3832  0.3010
33232SOL    HW1 8664   8.040   5.684   5.999  0.4950  0.4621  0.3923
33232SOL    HW2 8665   8.145   5.663   5.892  0.1984  1.2084 -0.0500
33233SOL     OW 8666   2.551   7.786   0.266 -0.4449  0.4133 -0.0178
33233SOL    HW1 8667   2.554   7.792   0.362  0.6147 -0.8552  0.0607
33233SOL    HW2 8668   2.640   7.760   0.242 -0.9150 -0.0651 -1.2866
33234SOL     OW 8669   5.676   3.180   6.418  0.0343 -0.3715 -0.1732
33234SOL    HW1 8670   5.582   3.197   6.418  0.3578  1.7143 -0.4883
33234SOL    HW2 8671   5.710   3.229   6.493  0.8001 -1.7204  0.4030
33235SOL     OW 8672   3.462   9.358  12.574  0.1674 -0.4609 -0.0659
33235SOL    HW1 8673   3.411   9.434  12.546  0.4069 -0.0471  0.5792
33235SOL    HW2 8674   3.399   9.287  12.580  0.0527 -0.4746 -1.2717
33236SOL     OW 8675   4.183  11.047   8.178 -0.3595 -0.4953  0.2637
33236SOL    HW1 8676   4.248  11.070   8.245  0.9636 -0.1734 -1.0688
33236SOL    HW2 8677   4.165  11.129   8.133 -0.5192 -0.8705 -0.3750
33237SOL     OW 8678   2.754   9.686  11.217  0.4108 -0.6989  0.1607
33237SOL    HW1 8679   2.664   9.707  11.191  0.9397 -0.0525 -1.3090
33237SOL    HW2 8680   2.783   9.763  11.267 -0.0152 -1.1437  1.1125
33238SOL     OW 8681   6.416   3.749  12.289  0.0323  0.0386 -0.4530
33238SOL    HW1 8682   6.445   3.718  12.204  1.1871 -0.0815 -0.0288
33238SOL    HW2 8683   6.471   3.704  12.352 -0.5386  0.4214  0.3472
33239SOL     OW 8684   3.029   2.853   7.397 -0.3268  0.4184  0.1187
33239SOL    HW1 8685   3.086   2.789   7.439  1.6030  1.9806  0.0132
33239SOL    HW2 8686   2.978   2.891   7.469 -1.5136 -1.2040  0.1728
33240SOL     OW 8687  10.904   4.806   5.090 -0.0835  0.3456 -0.1680
33240SOL    HW1 8688  10.995   4.823   5.113 -0.7663  1.5956  1.8387
33240SOL    HW2 8689  10.908   4.728   5.034  2.3832  1.6005 -1.9422
33241SOL     OW 8690  11.322   3.066  11.548  0.4879  0.0839  0.0832
33241SOL    HW1 8691  11.304   2.975  11.572 -0.8923  0.4854  0.6798
33241SOL    HW2 8692  11.260   3.085  11.477  1.6404  0.2006 -0.9401
33242SOL     OW 8693   2.532   9.982   4.943 -0.3022 -0.4470 -0.1911
33242SOL    HW1 8694   2.545   9.919   4.872 -0.6522 -1.0256  0.2502
33242SOL    HW2 8695   2.510   9.928   5.019 -2.9847  0.2915 -0.3320
33243SOL     OW 8696   0.179   1.976  11.188  0.0783  0.2301 -0.2453
33243SOL    HW1 8697   0.167   2.070  11.197 -0.5251  0.0680  0.7550
33243SOL    HW2 8698   0.221   1.965  11.102 -0.1498  1.3715 -0.5121
33244SOL     OW 8699  12.392   5.120   1.523  0.3276  0.0653 -0.3638
33244SOL    HW1 8700  12.480   5.096   1.494  0.4597 -0.7106  0.6237
33244SOL    HW2 8701  12.334   5.084   1.456  0.7911  1.4633 -1.5554
33245SOL     OW 8702   0.582   9.541   0.791  0.0566 -0.2449 -0.3090
33245SOL    HW1 8703   0.606   9.628   0.823 -0.4009 -0.0976 -0.3659
33245SOL    HW2 8704   0.640   9.481   0.839 -0.5096 -0.0143  0.6790
33246SOL     OW 8705   6.140   7.839   7.874 -0.4334  0.1864 -0.5282
33246SOL    HW1 8706   6.158   7.759   7.924 -0.7442 -0.5224 -1.5135
33246SOL    HW2 8707   6.217   7.894   7.889  0.0889 -0.5701 -0.3563
33247SOL     OW 8708   8.570   1.097   2.078  0.2492  0.1206 -0.1732
33247SOL    HW1 8709   8.512   1.060   2.011 -0.7883 -0.6726  1.1342
33247SOL    HW2 8710   8.582   1.026   2.141  3.2230  0.0016 -0.7004
33248SOL     OW 8711   1.307   5.526   7.266  0.6016  0.7280 -0.3531
33248SOL    HW1 8712   1.304   5.464   7.194  0.6461  0.0369  0.2304
33248SOL    HW2 8713   1.231   5.505   7.320  0.2369  1.6214 -0.4971
33249SOL     OW 8714   9.362   6.018   9.186 -0.0922 -0.5875  0.3911
33249SOL    HW1 8715   9.428   6.067   9.236  0.6326 -0.5605 -0.5624
33249SOL    HW2 8716   9.290   6.081   9.173  0.3773 -0.0965  0.0952
33250SOL     OW 8717   1.282  12.549   8.012  0.7431  0.2449  0.4885
33250SOL    HW1 8718   1.376  12.536   8.008  0.6671 -1.2674  2.4317
33250SOL    HW2 8719   1.246  12.487   7.949  1.0466  2.5998 -2.2331
33251SOL     OW 8720   7.745   4.403   0.515  0.7933 -0.0283  0.8003
33251SOL    HW1 8721   7.757   4.479   0.573  0.8102  0.3211  0.3443
33251SOL    HW2 8722   7.687   4.344   0.564 -0.9904  1.2252  0.2920
33252SOL     OW 8723   4.984  11.773   3.294 -0.0959 -0.8424 -0.4322
33252SOL    HW1 8724   4.953  11.788   3.205  0.1426  1.6304 -0.1732
33252SOL    HW2 8725   4.904  11.770   3.348 -0.2839 -2.9842 -0.7406
33253SOL     OW 8726   5.311   1.429   6.273  0.2471 -0.1268 -0.0098
33253SOL    HW1 8727   5.278   1.410   6.185 -0.7676  1.4131 -0.0043
33253SOL    HW2 8728   5.403   1.406   6.270 -0.0462 -1.2588 -1.1065
33254SOL     OW 8729   1.135  11.920   1.175 -0.0953 -0.4814  0.8714
33254SOL    HW1 8730   1.119  11.991   1.237 -1.8488  0.5388 -0.6557
33254SOL    HW2 8731   1.224  11.935   1.143 -0.8057  1.7627 -0.2523
33255SOL     OW 8732   1.842   2.949   8.165 -0.2269 -0.3230  0.7130
33255SOL    HW1 8733   1.851   2.921   8.256 -2.3398 -0.8736  0.8033
33255SOL    HW2 8734   1.856   2.870   8.114  1.4118  0.0730  0.4808
33256SOL     OW 8735   0.845   0.738  11.197  0.2084  0.5292 -0.3914
33256SOL    HW1 8736   0.841   0.816  11.252 -0.6848 -0.8363  1.5633
33256SOL    HW2 8737   0.762   0.737  11.150 -0.3958 -0.0035  0.6775
33257SOL     OW 8738   5.330  12.349   3.920  0.0376 -0.0880 -0.4079
33257SOL    HW1 8739   5.328  12.314   4.009 -1.0605  0.7209 -0.1029
33257SOL    HW2 8740   5.399  12.299   3.876  0.6554 -0.4271  0.9202
33258SOL     OW 8741   3.964   2.560   5.787  0.3388  0.8589 -0.0571
33258SOL    HW1 8742   3.985   2.584   5.696  2.3432  1.6965  0.5793
33258SOL    HW2 8743   4.005   2.474   5.798 -2.1802 -0.5175 -0.6820
33259SOL     OW 8744   0.027   5.221   4.746  0.1096  0.4698  0.2400
33259SOL    HW1 8745   0.012   5.240   4.654 -2.0009 -4.7250 -0.8604
33259SOL    HW2 8746   0.120   5.199   4.752  0.8921  3.4103  0.1034
33260SOL     OW 8747   1.882   0.847  12.381 -0.5389  0.1601  0.0519
33260SOL    HW1 8748   1.935   0.819  12.455 -0.2594 -1.8936 -0.8271
33260SOL    HW2 8749   1.840   0.928  12.409  2.6143  1.6091  0.9763
33261SOL     OW 8750   0.699  10.768  12.228 -0.2532 -0.1403 -0.3712
33261SOL    HW1 8751   0.724  10.777  12.320 -0.1972 -1.3636 -0.2499
33261SOL    HW2 8752   0.627  10.829  12.216  1.4169  1.9799 -0.2068
33262SOL     OW 8753   2.753  11.110   7.478 -0.2638 -0.1490  0.0046
33262SOL    HW1 8754   2.727  11.168   7.550  0.9197  0.6509 -0.1761
33262SOL    HW2 8755   2.714  11.150   7.400  0.3069  0.2727 -0.0789
33263SOL     OW 8756  11.160   5.968  10.457 -0.1225 -0.1120 -0.0077
33263SOL    HW1 8757  11.108   6.040  10.495 -0.0809  0.5660 -1.2024
33263SOL    HW2 8758  11.243   5.971  10.504  0.0441  0.9196 -0.3456
33264SOL     OW 8759   2.607   2.093   5.506  0.1079 -0.0507 -0.5012
33264SOL    HW1 8760   2.595   2.178   5.464 -2.1521 -0.6774 -1.2865
33264SOL    HW2 8761   2.663   2.044   5.446 -2.4979 -0.6845 -2.6087
33265SOL     OW 8762   9.380   7.918  11.828  0.2463 -0.0625  0.1083
33265SOL    HW1 8763   9.311   7.854  11.808  1.2288 -0.9617 -0.5153
33265SOL    HW2 8764   9.444   7.868  11.879 -1.1719  1.6229  3.8613
33266SOL     OW 8765   3.522   9.166   3.793  0.3360 -0.2966 -0.0145
33266SOL    HW1 8766   3.571   9.228   3.739  1.5659 -0.4072  0.9160
33266SOL    HW2 8767   3.590   9.116   3.839 -0.6670 -0.4201  1.3806
33267SOL     OW 8768   9.168  12.387   4.950  0.7849  0.1826 -0.2634
33267SOL    HW1 8769   9.178  12.369   4.857  2.6064  0.7810 -0.2156
33267SOL    HW2 8770   9.180  12.301   4.992  0.2163 -0.0429 -0.5528
33268SOL     OW 8771   9.094   1.388   0.268  0.1391  0.3367 -0.4619
33268SOL    HW1 8772   9.062   1.469   0.228  1.7876  0.5743 -1.3957
33268SOL    HW2 8773   9.170   1.364   0.216  1.1381 -0.4862  1.2798
33269SOL     OW 8774  11.455   7.700  11.052  0.2130 -0.0406  0.6651
33269SOL    HW1 8775  11.546   7.727  11.038  0.3679 -0.4631  0.8303
33269SOL    HW2 8776  11.422   7.679  10.965  0.0639  0.7446  0.5220
33270SOL     OW 8777   6.415   9.163   2.903  0.3810 -0.3597 -0.1262
33270SOL    HW1 8778   6.450   9.233   2.959 -1.9489  0.5463  0.3312
33270SOL    HW2 8779   6.415   9.086   2.959  0.9269 -0.1934  0.1091
33271SOL     OW 8780   8.133   5.327   8.109  0.4475 -0.5530 -0.1121
33271SOL    HW1 8781   8.095   5.411   8.084 -0.6612 -1.7494 -2.7796
33271SOL    HW2 8782   8.059   5.274   8.137  1.0229 -0.9706  0.6751
33272SOL     OW 8783   9.014   6.113   8.975 -0.0856 -0.7551 -0.1818
33272SOL    HW1 8784   9.100   6.148   8.950  0.0645 -0.6482  0.4533
33272SOL    HW2 8785   8.975   6.085   8.893 -0.5527  1.6411 -0.8551
33273SOL     OW 8786   0.961   7.155   5.039  0.6774  0.0437  0.3286
33273SOL    HW1 8787   0.973   7.103   4.960  0.6696  1.5359 -0.7093
33273SOL    HW2 8788   0.973   7.246   5.010  0.3033  0.6617  1.9697
33274SOL     OW 8789   9.515   7.870   9.614 -0.2369  0.3263  0.2850
33274SOL    HW1 8790   9.492   7.823   9.694  0.4129 -0.6797 -0.0891
33274SOL    HW2 8791   9.548   7.955   9.644 -0.2562  0.0610  1.0672
33275SOL     OW 8792   4.058  11.278   2.347  0.0501 -0.1289  0.2273
33275SOL    HW1 8793   4.108  11.343   2.396 -0.0780  0.5519 -0.5312
33275SOL    HW2 8794   3.967  11.306   2.355 -0.1943 -1.1724  1.3162
33276SOL     OW 8795   2.458  10.790   9.160  0.4118  0.2863  0.1144
33276SOL    HW1 8796   2.419  10.877   9.161 -0.9286 -0.2887 -0.4094
33276SOL    HW2 8797   2.533  10.798   9.101 -0.4468  0.7936 -0.9472
33277SOL     OW 8798   8.017   8.266   2.078 -0.1238 -0.0204 -0.1208
33277SOL    HW1 8799   8.085   8.202   2.098 -0.3036  0.1327  1.0248
33277SOL    HW2 8800   7.959   8.220   2.017  0.8920 -0.2061 -0.9837
33278SOL     OW 8801   8.540  10.822   3.966 -0.0404  0.4200  0.0393
33278SOL    HW1 8802   8.481  10.879   4.016 -1.0527 -0.5386 -0.0284
33278SOL    HW2 8803   8.549  10.865   3.881  1.2366  1.7710  0.8012
33279SOL     OW 8804  11.105   7.708   4.110  0.4956  0.0292 -0.0179
33279SOL    HW1 8805  11.049   7.660   4.170 -1.5175 -0.3377 -2.0739
33279SOL    HW2 8806  11.158   7.640   4.068  1.6181  0.2485  0.9719
33280SOL     OW 8807   9.979   0.553   1.675 -0.0046  0.0090 -0.3551
33280SOL    HW1 8808   9.922   0.546   1.598 -0.7303 -0.9396  0.2410
33280SOL    HW2 8809  10.060   0.590   1.641 -0.7631  0.8439 -1.3428
33281SOL     OW 8810   9.443  10.572   1.193 -0.1599  0.3643  0.2954
33281SOL    HW1 8811   9.471  10.649   1.242  4.1257 -1.8065  1.8081
33281SOL    HW2 8812   9.484  10.582   1.107 -0.8817  0.4681 -0.0378
33282SOL     OW 8813   9.169   8.125   2.537  0.5554  0.2163 -0.4418
33282SOL    HW1 8814   9.165   8.193   2.604 -0.1998  0.0107 -0.2694
33282SOL    HW2 8815   9.184   8.173   2.455 -1.2953  0.7282 -0.5200
33283SOL     OW 8816   1.143   8.704   2.346  0.5738  0.5277 -0.1710
33283SOL    HW1 8817   1.129   8.798   2.336  1.1480  0.6191 -0.1318
33283SOL    HW2 8818   1.078   8.676   2.410 -0.0605  0.7708 -0.7029
33284SOL     OW 8819   7.912   6.129   4.892  0.0405 -0.0650  0.5110
33284SOL    HW1 8820   7.884   6.072   4.819 -1.4603  1.2614 -0.0139
33284SOL    HW2 8821   7.976   6.077   4.940 -0.8930 -1.9989 -0.2413
33285SOL     OW 8822  11.065   7.379   3.947  0.2698 -0.0715  0.0180
33285SOL    HW1 8823  11.067   7.434   3.869 -0.4961  0.6033  0.4672
33285SOL    HW2 8824  10.998   7.313   3.928  0.7136 -0.4537 -0.2463
33286SOL     OW 8825   4.236   7.699   1.964 -0.2139  0.5941 -0.0094
33286SOL    HW1 8826   4.275   7.709   1.877  1.1004 -0.1001  0.4759
33286SOL    HW2 8827   4.290   7.756   2.020  0.0343 -0.2788  0.6502
33287SOL     OW 8828  10.704  10.021   2.711  0.5589 -0.4653 -0.5767
33287SOL    HW1 8829  10.620  10.010   2.755  0.5834  2.1593  0.3157
33287SOL    HW2 8830  10.758   9.949   2.742 -0.5706 -0.7131  0.8837
33288SOL     OW 8831   0.214   3.795   1.261  0.7212  0.2447  0.1021
33288SOL    HW1 8832   0.137   3.848   1.283 -0.2253 -0.7467 -0.6861
33288SOL    HW2 8833   0.185   3.705   1.273  1.5714 -0.1689 -0.7822
33289SOL     OW 8834   2.256   8.794   8.446  0.0876 -0.3751  0.6210
33289SOL    HW1 8835   2.196   8.720   8.438 -0.2363 -0.2746  1.9037
33289SOL    HW2 8836   2.200   8.871   8.446  0.3431 -0.1866  0.2545
33290SOL     OW 8837   5.035  10.574  12.501 -0.2733 -0.2785 -0.1184
33290SOL    HW1 8838   4.942  10.556  12.511 -0.2037 -0.0700  1.0854
33290SOL    HW2 8839   5.057  10.539  12.414 -1.8256  1.2025 -1.1761
33291SOL     OW 8840   9.587   0.268  11.960 -0.0911 -0.6390  0.0330
33291SOL    HW1 8841   9.587   0.177  11.931 -0.5810 -1.2445  1.8054
33291SOL    HW2 8842   9.525   0.312  11.901 -0.2577 -1.5623 -0.4937
33292SOL     OW 8843   4.541   2.873   0.475  0.4717 -0.0343 -0.2385
33292SOL    HW1 8844   4.579   2.786   0.461  0.8354  0.3405 -1.7036
33292SOL    HW2 8845   4.536   2.912   0.388 -2.8819  0.1553 -0.0832
33293SOL     OW 8846  10.287   8.531   7.117 -0.0061  0.1658  0.0046
33293SOL    HW1 8847  10.240   8.609   7.088 -0.0210  0.2798  0.3276
33293SOL    HW2 8848  10.362   8.565   7.166  0.0332 -0.0212  0.0758
33294SOL     OW 8849   5.683   8.211  12.316 -0.2806 -0.6767 -0.0088
33294SOL    HW1 8850   5.588   8.211  12.324 -0.1718  0.5961  1.9064
33294SOL    HW2 8851   5.714   8.165  12.394  0.7165  0.8997  0.5645
33295SOL     OW 8852   6.740  10.840   1.072  0.3517 -0.0192 -0.1226
33295SOL    HW1 8853   6.817  10.833   1.128 -1.4353 -0.3944  2.4661
33295SOL    HW2 8854   6.678  10.777   1.108 -1.3544  0.5874 -1.8113
33296SOL     OW 8855   9.911   6.042   7.624  0.6317 -0.1904  0.0578
33296SOL    HW1 8856   9.850   6.007   7.690  0.7426  0.0251  0.2776
33296SOL    HW2 8857   9.973   6.094   7.675 -0.5071  1.7287 -0.4241
33297SOL     OW 8858   4.967  11.848   5.757  0.2251  0.3414 -0.1578
33297SOL    HW1 8859   4.876  11.820   5.765  0.1390  0.7071  0.2167
33297SOL    HW2 8860   4.961  11.943   5.742  0.5793  0.7333  1.8622
33298SOL     OW 8861   3.903   5.990   8.891 -0.2966  0.3041  0.7926
33298SOL    HW1 8862   3.946   5.985   8.805 -0.8676 -0.0218  0.5164
33298SOL    HW2 8863   3.969   5.958   8.953 -0.3227 -0.7162  0.3112
33299SOL     OW 8864  11.005  11.388   7.580  0.4301 -0.3435  0.1790
33299SOL    HW1 8865  11.025  11.311   7.633 -0.3445  0.0622  1.0799
33299SOL    HW2 8866  11.027  11.361   7.490  1.6776 -1.0558  0.6812
33300SOL     OW 8867   6.563   1.341   3.926  0.4973 -0.6328 -0.2746
33300SOL    HW1 8868   6.526   1.274   3.983  1.2901 -0.2560  0.7030
33300SOL    HW2 8869   6.630   1.385   3.979  1.1785 -0.1909 -1.4484
33301SOL     OW 8870   9.688   9.461   5.947  0.1069  0.0065 -0.6438
33301SOL    HW1 8871   9.741   9.383   5.965 -0.8102 -0.5582 -0.3680
33301SOL    HW2 8872   9.598   9.433   5.960 -0.1598  1.9193  2.6900
33302SOL     OW 8873  11.130   6.350  10.830  0.0054  0.1378  0.1785
33302SOL    HW1 8874  11.091   6.345  10.918 -0.3293  0.8258  0.0752
33302SOL    HW2 8875  11.197   6.418  10.838 -0.3822  0.5686 -0.2323
33303SOL     OW 8876  12.102   8.902   9.987 -0.3053  0.0304  0.0138
33303SOL    HW1 8877  12.104   8.865  10.075  0.4783 -0.0405 -0.0214
33303SOL    HW2 8878  12.041   8.975   9.992  1.0256  1.1245  1.0782
33304SOL     OW 8879   7.815   0.117   0.797 -0.8957  0.6134 -0.0895
33304SOL    HW1 8880   7.892   0.147   0.844 -0.7075  0.4345 -0.2811
33304SOL    HW2 8881   7.849   0.077   0.717 -1.1359 -0.1278  0.1675
33305SOL     OW 8882   1.912  12.525   6.028  0.0865  0.1151  0.4351
33305SOL    HW1 8883   1.957  12.601   5.990 -1.0833  1.7677  2.1903
33305SOL    HW2 8884   1.982  12.462   6.045  0.9325  0.2050 -2.2518
33306SOL     OW 8885   3.033   3.897   5.002  0.0114  1.0784  0.2318
33306SOL    HW1 8886   2.980   3.918   5.079  0.9769 -1.3880  1.7107
33306SOL    HW2 8887   2.975   3.845   4.946  0.3837 -0.4070  1.1758
33307SOL     OW 8888   0.975   8.247   8.362 -0.2899 -0.4009  0.3354
33307SOL    HW1 8889   0.911   8.242   8.433  1.1795  0.6419  1.8236
33307SOL    HW2 8890   0.951   8.325   8.313  0.0730  0.2444  1.1593
33308SOL     OW 8891   2.969   0.729   6.825  0.6591  0.2428  0.4682
33308SOL    HW1 8892   3.052   0.773   6.847  0.1497  2.0553 -0.9672
33308SOL    HW2 8893   2.904   0.773   6.879  0.0403  1.8326 -1.4678
33309SOL     OW 8894   6.895   8.800   9.780 -0.2668 -0.5744  0.2321
33309SOL    HW1 8895   6.835   8.866   9.814 -1.2813 -1.1689 -0.3624
33309SOL    HW2 8896   6.917   8.746   9.856 -0.7369 -0.5410  0.3935
33310SOL     OW 8897   6.096   0.262   3.557  0.2613 -0.2279  0.2588
33310SOL    HW1 8898   6.185   0.287   3.580  0.4657 -1.6610  1.1204
33310SOL    HW2 8899   6.043   0.289   3.632  0.2949 -1.1938  0.6417
33311SOL     OW 8900   1.995   2.678  11.880  0.1027  0.7126 -0.1666
33311SOL    HW1 8901   1.990   2.586  11.909 -0.7954  0.5430 -0.8056
33311SOL    HW2 8902   2.087   2.701  11.887  0.5110 -0.5714 -0.9807
33312SOL     OW 8903   1.176  10.638   7.925  0.0078  0.3658  0.3463
33312SOL    HW1 8904   1.202  10.616   8.014 -1.5167  1.3368  1.0712
33312SOL    HW2 8905   1.085  10.610   7.918 -0.1882  1.1557 -0.5874
33313SOL     OW 8906   0.524  11.474   1.647  0.7530  0.1932  0.4981
33313SOL    HW1 8907   0.501  11.542   1.709  1.3087 -0.7596  1.8009
33313SOL    HW2 8908   0.442  11.427   1.630  0.5058  0.7568  0.1203
33314SOL     OW 8909   7.735   0.384   1.620  0.1214  0.3955 -0.1184
33314SOL    HW1 8910   7.749   0.456   1.558 -2.0507  0.5656 -0.4643
33314SOL    HW2 8911   7.643   0.391   1.645  0.9654  0.5527  3.4502
33315SOL     OW 8912   3.460   8.687   0.852  0.3967  0.3620  0.2844
33315SOL    HW1 8913   3.395   8.653   0.792 -0.1196  0.0193  1.0190
33315SOL    HW2 8914   3.421   8.767   0.888  0.0260 -0.2532  1.3046
33316SOL     OW 8915   5.550   4.502   8.477 -0.0889  0.0321  0.1648
33316SOL    HW1 8916   5.591   4.454   8.549 -1.5058 -0.3577  0.7463
33316SOL    HW2 8917   5.518   4.582   8.518 -0.1359  0.2136 -0.2260
33317SOL     OW 8918   7.671   3.970   7.896 -0.0296  0.0278 -0.4483
33317SOL    HW1 8919   7.706   4.058   7.882  2.4492 -0.9603 -1.0829
33317SOL    HW2 8920   7.600   3.982   7.959  0.7507  2.3801  0.0872
33318SOL     OW 8921  10.857   9.495   4.881  0.3646  0.5535 -0.8470
33318SOL    HW1 8922  10.940   9.536   4.907  0.1449  0.9141 -0.7033
33318SOL    HW2 8923  10.881   9.434   4.812  0.5793  1.5884 -1.7121
33319SOL     OW 8924  10.213   7.275   1.360  0.7950  0.0472 -0.7125
33319SOL    HW1 8925  10.166   7.302   1.439 -0.6655  0.2671 -1.6195
33319SOL    HW2 8926  10.247   7.188   1.381 -1.3809 -0.8165 -0.5406
33320SOL     OW 8927   9.682   9.635   4.934  0.4078 -0.1289  0.1315
33320SOL    HW1 8928   9.627   9.667   4.862 -0.8730 -2.2805  0.0904
33320SOL    HW2 8929   9.769   9.671   4.915 -0.1003  0.1081 -1.9922
33321SOL     OW 8930   8.378  11.443   5.650 -0.0722  0.2373 -0.0685
33321SOL    HW1 8931   8.417  11.527   5.675  4.1144 -0.6404 -2.6301
33321SOL    HW2 8932   8.334  11.460   5.567 -2.1300  0.4126  0.9762
33322SOL     OW 8933   6.742   8.237   9.833 -0.2715 -0.2126 -0.3008
33322SOL    HW1 8934   6.781   8.174   9.893 -0.3513  0.7650  0.8256
33322SOL    HW2 8935   6.654   8.251   9.867 -0.4459  0.0869 -0.8622
33323SOL     OW 8936   2.919   8.996   1.779  0.7555  0.1781  0.1101
33323SOL    HW1 8937   2.933   9.052   1.854  2.2365 -0.9906  0.7512
33323SOL    HW2 8938   3.002   8.950   1.766  0.4458  0.0897 -2.0328
33324SOL     OW 8939   3.485   5.272  11.713  0.0349  0.0853 -0.0533
33324SOL    HW1 8940   3.477   5.339  11.646 -2.6337  0.7188  0.7718
33324SOL    HW2 8941   3.510   5.192  11.666  3.1036  1.4873 -1.0693
33325SOL     OW 8942  12.118   6.955  11.260  0.2628  0.0858  0.6076
33325SOL    HW1 8943  12.058   7.023  11.292 -1.6727 -0.7624 -0.9532
33325SOL    HW2 8944  12.150   6.912  11.339  0.8726  2.2356  1.5933
33326SOL     OW 8945  11.882   8.379   6.261  0.6588  0.0516 -0.1205
33326SOL    HW1 8946  11.850   8.431   6.336  0.8563  1.2221 -0.8172
33326SOL    HW2 8947  11.823   8.403   6.190 -0.1697 -1.8399 -0.1105
33327SOL     OW 8948   2.412   3.348   7.537  0.0236  0.0005 -0.3138
33327SOL    HW1 8949   2.355   3.352   7.460  0.7884  0.3246 -0.8775
33327SOL    HW2 8950   2.440   3.257   7.542 -2.5712 -0.7949  1.5039
33328SOL     OW 8951   0.053  10.790  10.952 -0.0049 -0.3192  0.2791
33328SOL    HW1 8952  -0.011  10.799  11.023  0.2567 -0.2488  0.5097
33328SOL    HW2 8953   0.113  10.723  10.984 -1.2605 -2.0955 -0.9140
33329SOL     OW 8954   5.498  10.300  10.456  0.1610 -0.3515 -0.2930
33329SOL    HW1 8955   5.513  10.207  10.439  2.4334  0.1229 -1.3117
33329SOL    HW2 8956   5.573  10.343  10.416 -1.3789  2.0259 -0.8096
33330SOL     OW 8957  11.818   8.444   2.795  0.0062 -0.3074 -1.0735
33330SOL    HW1 8958  11.816   8.495   2.715 -1.7968 -1.0000 -1.5243
33330SOL    HW2 8959  11.840   8.355   2.767 -1.4472 -0.7344 -0.9549
33331SOL     OW 8960   9.148  10.157   0.862 -0.2061 -0.3000 -0.7931
33331SOL    HW1 8961   9.121  10.248   0.877 -1.8801 -1.0822  1.5743
33331SOL    HW2 8962   9.223  10.164   0.804  0.9663  2.7299  0.8307
33332SOL     OW 8963   0.413   0.166   7.939  0.0260 -0.6841  0.6538
33332SOL    HW1 8964   0.365   0.092   7.976 -1.8164  0.0219 -0.1836
33332SOL    HW2 8965   0.354   0.241   7.951  1.3429  0.4269  0.4262
33333SOL     OW 8966   2.673   8.279  11.237 -0.8214  0.2258  0.7562
33333SOL    HW1 8967   2.586   8.315  11.252 -0.5396  0.1818  2.8906
33333SOL    HW2 8968   2.700   8.245  11.322  0.7526 -0.9863 -0.1607
33334SOL     OW 8969   1.771  11.929   1.297  0.4452  0.4227  0.1863
33334SOL    HW1 8970   1.831  11.864   1.259  0.4139  1.6209 -2.0518
33334SOL    HW2 8971   1.825  11.974   1.363  1.7992  0.9386 -1.2170
33335SOL     OW 8972   2.976   9.104   4.511 -0.6415  0.0929  0.4078
33335SOL    HW1 8973   2.958   9.037   4.576 -1.9607 -0.0086 -0.0301
33335SOL    HW2 8974   2.948   9.066   4.428 -4.7444  2.2375  0.5023
33336SOL     OW 8975   8.547   3.672   8.552  0.4930  0.2711  0.0430
33336SOL    HW1 8976   8.583   3.583   8.551  0.4880  0.2564  0.6653
33336SOL    HW2 8977   8.527   3.689   8.644  0.2248  0.8121 -0.1080
33337SOL     OW 8978   0.831  10.639   0.366  0.7706 -0.2359 -0.6030
33337SOL    HW1 8979   0.907  10.665   0.315  0.2984 -0.4856 -1.4454
33337SOL    HW2 8980   0.810  10.551   0.335  0.8148 -0.6174  0.4231
33338SOL     OW 8981   6.494   0.426  10.049 -0.3563  0.1320  0.3726
33338SOL    HW1 8982   6.413   0.377  10.034  0.3691 -0.3863 -2.6724
33338SOL    HW2 8983   6.468   0.518  10.046 -0.8884 -0.0343 -0.4061
33339SOL     OW 8984  12.535   9.935   6.729  0.1018 -0.7703  0.3412
33339SOL    HW1 8985  12.537   9.913   6.636  0.0427 -0.9521  0.3835
33339SOL    HW2 8986  12.445   9.962   6.746 -0.5440 -3.0374  0.8779
33340SOL     OW 8987   4.494   0.460   6.292 -0.3940 -0.1495 -0.3527
33340SOL    HW1 8988   4.498   0.490   6.201 -1.6211 -2.1220 -1.1207
33340SOL    HW2 8989   4.434   0.522   6.335 -0.9339 -0.0278 -1.2600
33341SOL     OW 8990   5.345   1.231   0.869  0.2706 -0.1816 -0.1172
33341SOL    HW1 8991   5.319   1.276   0.950 -0.5378 -0.1723 -0.3702
33341SOL    HW2 8992   5.311   1.286   0.799  1.1527 -0.0823 -0.4770
33342SOL     OW 8993   7.084   6.044   5.612  0.1032  0.4334  0.0333
33342SOL    HW1 8994   7.022   5.989   5.659 -0.0587  0.3054 -0.3300
33342SOL    HW2 8995   7.119   6.103   5.679 -0.3288  0.4348  0.2584
33343SOL     OW 8996   9.764   7.526   2.446  0.0486 -0.6370 -0.4639
33343SOL    HW1 8997   9.799   7.458   2.389 -1.6827 -1.0885 -1.0647
33343SOL    HW2 8998   9.832   7.540   2.512  1.2027 -1.6289 -1.3875
33344SOL     OW 8999   6.494   0.990   5.421 -0.1240 -0.2344  0.1711
33344SOL    HW1 9000   6.503   0.945   5.337  0.0937 -0.0202  0.0771
33344SOL    HW2 9001   6.559   0.949   5.478 -0.7764 -0.8845  0.4601
33345SOL     OW 9002  12.371   5.711   2.610  0.2973  0.1286 -0.4750
33345SOL    HW1 9003  12.294   5.690   2.663  1.2645 -2.4963 -0.0001
33345SOL    HW2 9004  12.445   5.706   2.670  1.0823  0.3830 -1.3868
33346SOL     OW 9005   9.816   7.920   3.076 -0.3306  0.0993 -0.5467
33346SOL    HW1 9006   9.911   7.916   3.066  0.1349 -0.0752  2.8448
33346SOL    HW2 9007   9.794   8.012   3.062  0.4012  0.2473 -0.7592
33347SOL     OW 9008   9.181  11.156  10.342 -0.5437  0.4758  0.2986
33347SOL    HW1 9009   9.148  11.246  10.346  2.0031  1.6107 -1.6694
33347SOL    HW2 9010   9.253  11.159  10.280 -0.7766 -3.1125 -0.3835
33348SOL     OW 9011   7.549   7.386  11.092 -0.2141  0.4103  0.4912
33348SOL    HW1 9012   7.496   7.409  11.016  0.5946 -1.0748 -0.5881
33348SOL    HW2 9013   7.490   7.397  11.167 -1.4933  0.5015 -0.4893
33349SOL     OW 9014   8.378   1.315   8.783  0.0925  0.3147  0.2512
33349SOL    HW1 9015   8.360   1.404   8.751 -0.0631  0.0244 -0.4868
33349SOL    HW2 9016   8.323   1.259   8.728 -1.1146 -0.1197  1.8379
33350SOL     OW 9017   2.889  11.777   5.060  0.5808  0.0058 -0.0679
33350SOL    HW1 9018   2.851  11.817   5.138 -0.1468 -0.5258 -0.1515
33350SOL    HW2 9019   2.818  11.777   4.996  0.2567 -2.2874  0.2230
33351SOL     OW 9020   2.592   2.894   2.836  0.2213  0.6820 -0.4296
33351SOL    HW1 9021   2.546   2.942   2.767 -0.4575  1.9106  0.8018
33351SOL    HW2 9022   2.636   2.963   2.886 -1.5742  0.1933  1.9960
33352SOL     OW 9023   5.304  11.130   3.882  0.2835 -0.0570  0.1942
33352SOL    HW1 9024   5.236  11.176   3.931 -1.9482 -1.8950 -1.0047
33352SOL    HW2 9025   5.317  11.047   3.929  0.1279 -0.6440 -0.7780
33353SOL     OW 9026  10.351  10.447   7.739 -0.1832  0.2689 -0.4759
33353SOL    HW1 9027  10.276  10.391   7.718  0.4567 -0.3802 -1.0993
33353SOL    HW2 9028  10.360  10.440   7.834 -0.6440 -0.0019 -0.4471
33354SOL     OW 9029   5.386   0.388   8.205  0.5102 -0.2634  0.5580
33354SOL    HW1 9030   5.473   0.391   8.167  0.1924  2.5387 -0.1311
33354SOL    HW2 9031   5.368   0.478   8.231 -2.1787 -0.7573  0.6770
33355SOL     OW 9032  10.334   6.948   7.194 -0.1834 -0.2779 -0.4403
33355SOL    HW1 9033  10.408   6.894   7.223  0.6395  1.2292  0.4146
33355SOL    HW2 9034  10.349   6.960   7.100  0.3984 -0.3922 -0.3677
33356SOL     OW 9035  10.087   8.216   1.829  0.1454  0.9376 -0.2951
33356SOL    HW1 9036  10.009   8.203   1.775  0.1355 -1.9791  0.2227
33356SOL    HW2 9037  10.159   8.222   1.767  0.0717 -1.8170 -0.7705
33357SOL     OW 9038   1.858  12.450   5.161 -0.9274 -0.2789 -0.2739
33357SOL    HW1 9039   1.883  12.511   5.091  2.8056 -1.1733  0.0867
33357SOL    HW2 9040   1.899  12.367   5.136  0.6904 -0.5951  2.9440
33358SOL     OW 9041   4.448   4.988  10.616  0.6522 -0.5595  0.7018
33358SOL    HW1 9042   4.425   5.059  10.676 -0.2135 -0.1800 -0.0571
33358SOL    HW2 9043   4.539   5.005  10.591  0.1892  0.8061 -0.1608
33359SOL     OW 9044  10.873  10.400   2.579  0.0810 -0.2221 -0.0097
33359SOL    HW1 9045  10.943  10.340   2.553  2.2623  1.4095  1.7307
33359SOL    HW2 9046  10.918  10.480   2.603 -2.4100  0.9026  1.2707
33360SOL     OW 9047   5.725  11.878   5.317  0.3301  0.5130  0.0391
33360SOL    HW1 9048   5.749  11.866   5.225  1.2584 -1.4015  0.4979
33360SOL    HW2 9049   5.808  11.892   5.362 -0.1336  1.6024  0.5943
33361SOL     OW 9050   3.127  10.511   2.113  0.2577 -0.2584 -0.5036
33361SOL    HW1 9051   3.153  10.440   2.055  0.0684  0.0647 -0.9961
33361SOL    HW2 9052   3.046  10.545   2.074 -0.1763 -0.3971  0.2643
33362SOL     OW 9053   6.284  10.971   0.391 -0.1414  0.0036 -0.2414
33362SOL    HW1 9054   6.250  10.918   0.464  0.8892  1.4279  1.3393
33362SOL    HW2 9055   6.208  11.021   0.360 -0.3189  0.3946  0.7824
33363SOL     OW 9056  10.733   5.621   8.704 -0.5529  0.0369 -0.4867
33363SOL    HW1 9057  10.822   5.588   8.718 -0.3764  0.6950 -0.0289
33363SOL    HW2 9058  10.684   5.545   8.670 -0.1685 -0.7159  0.6038
33364SOL     OW 9059   1.577   4.391   4.065 -0.5027 -1.0681  0.5967
33364SOL    HW1 9060   1.671   4.409   4.072 -0.3760 -1.9025  1.2600
33364SOL    HW2 9061   1.558   4.399   3.972  0.1000 -0.2952  0.5293
33365SOL     OW 9062   1.196  12.245   5.726  0.9976 -0.0445 -0.4964
33365SOL    HW1 9063   1.211  12.276   5.637  0.0965 -1.1688 -1.0583
33365SOL    HW2 9064   1.273  12.192   5.746  1.0064 -0.1324 -0.7602
33366SOL     OW 9065   8.095   8.599   8.043  0.3938  0.4194 -0.4480
33366SOL    HW1 9066   8.018   8.583   7.988  0.0493  1.2995 -0.2296
33366SOL    HW2 9067   8.061   8.605   8.132  0.5636  1.6967 -0.4403
33367SOL     OW 9068   2.589   6.924   3.811  0.2202 -0.8018 -0.4872
33367SOL    HW1 9069   2.594   6.962   3.899  1.1611  0.3413 -1.0246
33367SOL    HW2 9070   2.498   6.937   3.785  0.6092  1.4798 -0.8213
33368SOL     OW 9071  12.552  10.864   1.017 -0.0800  0.0112  0.0457
33368SOL    HW1 9072  12.501  10.791   0.983 -0.3713 -0.2084  0.9503
33368SOL    HW2 9073  12.570  10.918   0.939  1.5947 -1.8559 -0.9558
33369SOL     OW 9074  10.787   3.994   6.605  0.7135  0.3571  0.3288
33369SOL    HW1 9075  10.736   3.992   6.524  1.4585 -0.3897 -0.1477
33369SOL    HW2 9076  10.728   4.032   6.670 -0.2576  0.0117 -0.3266
33370SOL     OW 9077  12.551   8.477   9.588 -0.8329  0.1153 -0.2501
33370SOL    HW1 9078  12.511   8.391   9.585  0.1008 -0.3329 -0.2653
33370SOL    HW2 9079  12.516   8.518   9.667  0.8096 -1.3597  1.3292
33371SOL     OW 9080  10.260   5.563  10.594  0.3917  0.1611 -0.3644
33371SOL    HW1 9081  10.174   5.545  10.557  0.0552  1.2176 -0.1324
33371SOL    HW2 9082  10.308   5.606  10.524  1.7339 -2.7938 -1.4568
33372SOL     OW 9083   4.472   1.915   2.946 -0.1073  0.0299  0.2902
33372SOL    HW1 9084   4.475   1.919   2.850 -2.4577  0.4984  0.1770
33372SOL    HW2 9085   4.500   1.826   2.967  1.9484  0.3838 -0.6911
33373SOL     OW 9086   4.597   4.512  11.632 -0.4653 -0.1697  0.2338
33373SOL    HW1 9087   4.622   4.497  11.723 -0.7360 -0.8047  0.2144
33373SOL    HW2 9088   4.639   4.594  11.608  0.8204 -0.7245  0.4910
33374SOL     OW 9089   8.130   4.572  11.123  0.1794 -0.0812 -0.4906
33374SOL    HW1 9090   8.075   4.494  11.129 -1.4917  1.0861  0.2999
33374SOL    HW2 9091   8.166   4.584  11.210  0.6098 -0.0940 -0.6660
33375SOL     OW 9092   8.946  12.509   7.688  0.1035 -0.5126 -0.0361
33375SOL    HW1 9093   8.934  12.422   7.726  0.3639 -0.4471  0.2030
33375SOL    HW2 9094   8.932  12.496   7.594  1.8868 -1.1682 -0.2448
33376SOL     OW 9095   0.455   3.525   3.327 -0.4688  0.4243 -0.3127
33376SOL    HW1 9096   0.486   3.560   3.410  1.8565  0.8112 -1.2610
33376SOL    HW2 9097   0.423   3.601   3.279  1.0320  0.7082 -0.9067
33377SOL     OW 9098  11.448  11.958  10.244  0.1687 -0.3161  0.2139
33377SOL    HW1 9099  11.374  11.967  10.184 -0.6591 -2.1335  0.8990
33377SOL    HW2 9100  11.458  12.044  10.284  1.1979  1.2068 -2.9535
33378SOL     OW 9101   6.800   2.564   0.843  0.8864  0.1973  0.1700
33378SOL    HW1 9102   6.790   2.474   0.873  2.0122  0.7252  2.2703
33378SOL    HW2 9103   6.866   2.559   0.773  0.0672 -0.7250 -0.5695
33379SOL     OW 9104   6.611  10.007   4.436  0.4965  0.0611  0.6395
33379SOL    HW1 9105   6.595  10.008   4.530  0.8297  1.4551  0.7087
33379SOL    HW2 9106   6.529  10.039   4.398 -0.2366 -2.0803  0.3136
33380SOL     OW 9107   7.338   7.439  11.281  0.3378  0.7646  0.0372
33380SOL    HW1 9108   7.393   7.441  11.359  2.9400 -0.1400 -1.6137
33380SOL    HW2 9109   7.312   7.530  11.268  2.3042  1.4282  0.3960
33381SOL     OW 9110   6.371   6.677   7.230  0.1472  0.3268 -0.3330
33381SOL    HW1 9111   6.297   6.676   7.169  0.0037 -1.2266 -0.1620
33381SOL    HW2 9112   6.443   6.639   7.180  0.3081  0.0354  0.1245
33382SOL     OW 9113   4.946   8.213   1.454 -0.3724  0.1275  0.4280
33382SOL    HW1 9114   4.913   8.298   1.424  1.0414  0.4757 -0.2299
33382SOL    HW2 9115   5.035   8.231   1.483 -0.0749 -1.1244  0.3555
33383SOL     OW 9116   4.620   3.436   3.688 -0.0654  0.0162  0.0166
33383SOL    HW1 9117   4.680   3.467   3.756 -0.8272  0.2588  0.5888
33383SOL    HW2 9118   4.587   3.353   3.722 -1.0157  0.4995  0.2894
33384SOL     OW 9119   7.383   0.008   2.527  0.3554 -0.3254 -0.5993
33384SOL    HW1 9120   7.341  -0.017   2.610 -0.4585 -0.3261 -1.0090
33384SOL    HW2 9121   7.325   0.074   2.489  0.2525 -0.9731 -1.6004
33385SOL     OW 9122  12.049   0.780   7.359  0.9515 -0.0371  0.2386
33385SOL    HW1 9123  12.070   0.694   7.324 -1.6151 -0.4412 -0.5266
33385SOL    HW2 9124  12.037   0.766   7.453 -2.4555 -1.3017 -0.2556
33386SOL     OW 9125   9.474   1.247   4.973  0.1665 -0.1801 -0.0072
33386SOL    HW1 9126   9.471   1.317   4.908 -0.0202  0.7715  0.9943
33386SOL    HW2 9127   9.520   1.176   4.929  0.0214  0.4224 -1.1837
33387SOL     OW 9128  11.382   8.510   9.280  0.0572  0.1284  0.0485
33387SOL    HW1 9129  11.309   8.560   9.315  0.8629  1.1951  0.2663
33387SOL    HW2 9130  11.435   8.488   9.357 -1.0027 -2.3621  0.1590
33388SOL     OW 9131   9.369   3.175   1.358  0.1309 -0.2706 -0.0372
33388SOL    HW1 9132   9.423   3.114   1.409  0.9108 -0.3470 -0.9215
33388SOL    HW2 9133   9.395   3.159   1.267 -1.4995 -0.3958 -0.5005
33389SOL     OW 9134   2.416  12.276  10.459 -0.9964 -0.5338  0.0990
33389SOL    HW1 9135   2.412  12.367  10.430  0.9478 -0.0178  1.2439
33389SOL    HW2 9136   2.403  12.281  10.554  2.1774 -1.0198  0.6506
33390SOL     OW 9137   9.502   6.186   0.817 -0.3730  0.0125  0.6362
33390SOL    HW1 9138   9.423   6.220   0.776 -0.9282 -1.3344  0.5484
33390SOL    HW2 9139   9.533   6.258   0.873 -1.6901  0.5361  0.7300
33391SOL     OW 9140   8.298   8.998   3.029  0.1172 -0.2246 -0.2181
33391SOL    HW1 9141   8.380   9.034   2.995  1.0974 -2.2402 -0.1270
33391SOL    HW2 9142   8.273   9.058   3.100  1.2527  0.6785 -0.5560
33392SOL     OW 9143   9.532   2.192  12.111  0.2451  0.1157 -0.1502
33392SOL    HW1 9144   9.553   2.221  12.200 -1.2295 -2.0844  1.0067
33392SOL    HW2 9145   9.616   2.164  12.075  1.0101  1.8497  0.1738
33393SOL     OW 9146   0.649   4.541   6.057 -0.0159  0.3888  0.1730
33393SOL    HW1 9147   0.706   4.527   6.133 -0.3493 -0.9717  0.2103
33393SOL    HW2 9148   0.620   4.453   6.034 -0.7042  0.8947 -0.9314
33394SOL     OW 9149  10.144   8.686   2.911 -0.1711  0.0266  0.1319
33394SOL    HW1 9150  10.230   8.649   2.928 -0.3634  0.4981  2.4206
33394SOL    HW2 9151  10.161   8.767   2.863  0.7603  0.6496  1.4643
33395SOL     OW 9152   9.136   0.753  10.280  0.4381 -0.2475 -0.5712
33395SOL    HW1 9153   9.148   0.805  10.201 -0.3795  0.2780 -0.3537
33395SOL    HW2 9154   9.194   0.677  10.267  0.6961  0.0830 -1.4366
33396SOL     OW 9155   6.611   0.960   8.154  0.5366 -0.3497 -0.1492
33396SOL    HW1 9156   6.602   0.879   8.205 -0.3930 -1.1286 -1.4987
33396SOL    HW2 9157   6.705   0.971   8.143  0.6872 -1.0750  0.3002
33397SOL     OW 9158  10.195   3.064   4.450  0.2258 -0.2864  0.0280
33397SOL    HW1 9159  10.216   3.070   4.357  0.5991 -1.4022  0.0195
33397SOL    HW2 9160  10.272   3.023   4.489 -0.6795 -1.6024  0.5056
33398SOL     OW 9161   0.546  11.916   1.209 -0.0178 -0.5445 -0.9298
33398SOL    HW1 9162   0.508  11.856   1.273 -2.8415  2.3902  0.3820
33398SOL    HW2 9163   0.641  11.902   1.218 -0.3477 -1.6365  2.4987
33399SOL     OW 9164   6.108   6.259   2.811  0.3598  1.0002  0.4086
33399SOL    HW1 9165   6.136   6.261   2.719  0.8550 -0.4218  0.4966
33399SOL    HW2 9166   6.134   6.344   2.846 -1.4092  2.2720 -1.1791
33400SOL     OW 9167   2.393   5.308   9.209 -0.7040  0.6409 -0.1949
33400SOL    HW1 9168   2.412   5.377   9.146  0.1816  1.0443  0.4903
33400SOL    HW2 9169   2.398   5.226   9.159 -0.4874  0.9811 -0.7368
33401SOL     OW 9170   9.523  10.341   9.020  0.4133 -0.0519 -0.8547
33401SOL    HW1 9171   9.599  10.368   8.969 -0.3383  2.8409 -0.6421
33401SOL    HW2 9172   9.448  10.371   8.969 -0.4693 -0.0351  0.4043
33402SOL     OW 9173   2.414   5.707   3.848 -0.1842 -0.2488 -0.1748
33402SOL    HW1 9174   2.413   5.732   3.940  0.0159 -1.9377  0.3328
33402SOL    HW2 9175   2.435   5.787   3.801 -0.2112  0.6288  1.2579
33403SOL     OW 9176  11.310   6.336   4.303  0.2517  0.4167 -0.8262
33403SOL    HW1 9177  11.278   6.290   4.226  0.6204  1.3084 -1.5307
33403SOL    HW2 9178  11.391   6.291   4.328 -0.8387 -1.0603  0.2070
33404SOL     OW 9179   2.693   8.972   5.591  0.8877  0.0314 -0.2103
33404SOL    HW1 9180   2.665   8.941   5.505  0.7137  1.3260 -0.6498
33404SOL    HW2 9181   2.702   9.067   5.581  4.6751 -0.1505  0.1321
33405SOL     OW 9182   6.404  12.266   8.390 -0.3472  0.3857  0.4547
33405SOL    HW1 9183   6.499  12.258   8.399 -0.1659  1.9116  0.2732
33405SOL    HW2 9184   6.376  12.314   8.468 -1.2098 -1.3561  1.2714
33406SOL     OW 9185   7.573   4.665  11.122  0.5722 -0.1194  0.0858
33406SOL    HW1 9186   7.635   4.622  11.181 -0.7509 -1.9310  0.2501
33406SOL    HW2 9187   7.489   4.622  11.140 -0.6331  1.8445 -0.5317
33407SOL     OW 9188   0.169   7.004   0.652  0.4194  0.1294 -0.1845
33407SOL    HW1 9189   0.131   6.988   0.739 -2.2332  0.6258 -1.1378
33407SOL    HW2 9190   0.237   7.070   0.667  1.4649 -1.2869  1.7536
33408SOL     OW 9191   7.134   6.028  11.493 -0.1365  0.1146  0.2798
33408SOL    HW1 9192   7.053   6.021  11.544 -0.7355 -1.7557 -0.7871
33408SOL    HW2 9193   7.108   6.073  11.413 -0.1739 -0.5246 -0.0818
33409SOL     OW 9194   6.602   2.716  10.086 -0.3471  0.3813  0.5979
33409SOL    HW1 9195   6.616   2.648  10.020  0.2198  0.8504  0.2220
33409SOL    HW2 9196   6.616   2.671  10.169 -0.2267 -0.0255  0.3643
33410SOL     OW 9197   8.186  10.143   9.316 -0.6067  0.2741 -0.0245
33410SOL    HW1 9198   8.201  10.084   9.390 -2.1270  0.5516  0.5274
33410SOL    HW2 9199   8.169  10.228   9.356  0.5811  0.9049 -0.7852
33411SOL     OW 9200  11.967   9.649   4.147  0.8153  0.2669 -0.1071
33411SOL    HW1 9201  11.881   9.613   4.170  1.3400 -1.3950 -0.6025
33411SOL    HW2 9202  11.977   9.725   4.204 -0.4708 -0.2127  0.8126
33412SOL     OW 9203  11.462   2.252   8.509 -0.1812  0.0657 -0.0545
33412SOL    HW1 9204  11.479   2.321   8.445  2.4660  1.6724  2.1813
33412SOL    HW2 9205  11.376   2.273   8.545  0.3651  1.9692  0.2303
33413SOL     OW 9206   9.463  11.346  11.553 -0.6320 -0.5544 -0.6892
33413SOL    HW1 9207   9.387  11.371  11.605 -0.2572 -1.5861  0.3908
33413SOL    HW2 9208   9.451  11.253  11.536  0.0734 -0.5916 -1.0459
33414SOL     OW 9209   6.021  10.735   3.815  0.3164  0.1228 -0.2914
33414SOL    HW1 9210   6.083  10.800   3.783 -0.1290  1.1269  0.8056
33414SOL    HW2 9211   6.007  10.758   3.907  0.6064 -1.9053  0.3136
33415SOL     OW 9212   3.306   0.389   9.794 -0.8534  0.2793  0.3172
33415SOL    HW1 9213   3.318   0.295   9.781 -1.1368  0.2269  0.4319
33415SOL    HW2 9214   3.216   0.406   9.766 -0.6193  0.6163 -0.2600
33416SOL     OW 9215   9.528   6.938   8.040  0.0710 -0.3010 -0.1435
33416SOL    HW1 9216   9.607   6.958   8.090 -1.3381  0.7238  1.7799
33416SOL    HW2 9217   9.478   6.880   8.097 -2.0215  1.6617  0.1203
33417SOL     OW 9218   7.657  11.615  10.025  0.0847 -0.5381  0.5282
33417SOL    HW1 9219   7.729  11.572  10.070  1.1282  1.1224  0.5186
33417SOL    HW2 9220   7.631  11.553   9.956  0.9753 -1.4788  1.0227
33418SOL     OW 9221   8.484  10.634   8.486  0.3604 -0.5718  0.0454
33418SOL    HW1 9222   8.460  10.607   8.574 -2.7674 -0.0961 -0.5475
33418SOL    HW2 9223   8.472  10.556   8.432  3.5361 -1.2467  0.0904
33419SOL     OW 9224   2.739   9.697   3.920  0.6562 -0.1722  0.4286
33419SOL    HW1 9225   2.763   9.785   3.891 -0.3483  0.4674  1.4643
33419SOL    HW2 9226   2.727   9.704   4.015 -0.5128 -1.1592  0.3893
33420SOL     OW 9227   1.133   0.527   9.070 -0.6905  0.4355 -0.4148
33420SOL    HW1 9228   1.058   0.495   9.021  0.5146 -1.0981 -1.3475
33420SOL    HW2 9229   1.184   0.578   9.006  1.6696 -2.8040 -1.3875
33421SOL     OW 9230   7.191   7.709  12.593 -0.3300 -0.2966  0.1014
33421SOL    HW1 9231   7.166   7.776  12.658 -0.5872 -0.8262  0.5573
33421SOL    HW2 9232   7.262   7.749  12.543 -1.5965  0.9953 -0.7561
33422SOL     OW 9233   8.240   1.998   0.994 -0.0165 -0.0081 -0.0297
33422SOL    HW1 9234   8.325   1.971   1.029 -0.0471  0.6027  0.5156
33422SOL    HW2 9235   8.181   1.927   1.018  0.7936 -1.6540 -2.5143
33423SOL     OW 9236   1.004   1.621  10.667 -0.2246 -0.5016  0.4493
33423SOL    HW1 9237   1.052   1.636  10.586 -0.6639  2.5573  0.6337
33423SOL    HW2 9238   0.915   1.600  10.638  0.2918 -2.5285  0.1736
33424SOL     OW 9239   5.454   5.489   9.812  0.1005 -0.5201  0.6713
33424SOL    HW1 9240   5.462   5.500   9.906  0.2983  0.6878  0.5252
33424SOL    HW2 9241   5.479   5.574   9.775 -1.1551 -0.5844 -0.4084
33425SOL     OW 9242   7.861   5.071   6.792 -0.2287  0.1523  0.2762
33425SOL    HW1 9243   7.913   5.021   6.855  2.2640  0.2530 -1.5838
33425SOL    HW2 9244   7.865   5.161   6.824 -0.8331 -0.0842  1.0892
33426SOL     OW 9245   0.449   8.179   0.024  0.2331  0.0685 -0.0832
33426SOL    HW1 9246   0.534   8.142   0.047  0.2370  0.2089  0.1275
33426SOL    HW2 9247   0.389   8.104   0.025  0.6546 -0.3541 -1.8824
33427SOL     OW 9248   5.064   4.925   2.630  0.2341 -0.0967  0.3114
33427SOL    HW1 9249   5.032   4.933   2.720 -0.0407  0.2045  0.1920
33427SOL    HW2 9250   5.143   4.979   2.628 -0.4000  0.8571  0.0802
33428SOL     OW 9251   4.971   6.742   0.637 -0.8255 -0.3161  0.5062
33428SOL    HW1 9252   4.980   6.650   0.662 -0.1161 -0.0463  1.2721
33428SOL    HW2 9253   5.050   6.760   0.586 -2.2985 -0.8982 -2.1721
33429SOL     OW 9254   2.434   9.472  10.142 -0.1947 -0.1400 -0.2719
33429SOL    HW1 9255   2.356   9.494  10.194  0.0094 -1.4834  0.6545
33429SOL    HW2 9256   2.504   9.524  10.182 -0.0649 -1.0725  0.7583
33430SOL     OW 9257  12.396   9.198   9.575 -0.3545 -0.1658 -0.2432
33430SOL    HW1 9258  12.449   9.147   9.638 -0.0083 -0.3512 -0.6779
33430SOL    HW2 9259  12.461   9.248   9.525 -0.5642 -0.6083 -0.9731
33431SOL     OW 9260   5.887   8.129   2.568  0.1165  0.2267 -0.0006
33431SOL    HW1 9261   5.937   8.163   2.494  0.0665  0.7500  0.1957
33431SOL    HW2 9262   5.914   8.038   2.576  0.7030  0.3787 -0.1832
33432SOL     OW 9263   2.921   5.631   4.065  0.1113 -0.3668 -0.1158
33432SOL    HW1 9264   2.996   5.630   4.006  0.1314 -0.5631 -0.0880
33432SOL    HW2 9265   2.949   5.687   4.138 -0.4185  1.0166 -0.9369
33433SOL     OW 9266   1.237   8.804   4.815  0.1176  0.4259  0.7134
33433SOL    HW1 9267   1.282   8.737   4.765 -1.0166  1.0320 -1.2154
33433SOL    HW2 9268   1.197   8.757   4.888 -0.0847 -0.8895 -0.2229
33434SOL     OW 9269   8.231   1.039  11.092 -0.2175  0.0109  0.3114
33434SOL    HW1 9270   8.280   1.117  11.119 -1.2245  1.0913 -0.8400
33434SOL    HW2 9271   8.196   1.061  11.006 -0.1154 -1.9344 -0.2668
33435SOL     OW 9272   2.359  11.246   2.448 -0.0129  0.5780 -0.2681
33435SOL    HW1 9273   2.408  11.325   2.423 -0.1072  0.2570 -1.5490
33435SOL    HW2 9274   2.427  11.182   2.469  0.1193  0.5026 -0.8788
33436SOL     OW 9275  10.355   9.786  12.090 -0.2735 -0.5862  0.2860
33436SOL    HW1 9276  10.420   9.855  12.080 -0.2165 -0.6757  0.0372
33436SOL    HW2 9277  10.336   9.784  12.184 -1.1213  0.5457  0.1602
33437SOL     OW 9278   5.867   3.100   3.636  0.1348  0.3499 -0.2665
33437SOL    HW1 9279   5.797   3.129   3.694  1.4225  0.6113  1.2289
33437SOL    HW2 9280   5.884   3.175   3.579  1.8148  1.8083  1.9850
33438SOL     OW 9281   0.233   3.441  10.244 -0.1888 -0.1792  0.0189
33438SOL    HW1 9282   0.143   3.447  10.212 -1.3638 -0.9487  2.8717
33438SOL    HW2 9283   0.257   3.531  10.265  0.3181  0.2295 -2.0798
33439SOL     OW 9284   4.361   3.578   2.634 -0.3700 -0.3833  0.3257
33439SOL    HW1 9285   4.326   3.498   2.672 -1.6503  0.3398  0.7079
33439SOL    HW2 9286   4.455   3.574   2.652 -0.5222 -1.4702  0.9265
33440SOL     OW 9287  10.349   1.340   9.019  0.4261  0.0863  0.0617
33440SOL    HW1 9288  10.333   1.425   8.977  3.1047  1.3892  1.3863
33440SOL    HW2 9289  10.314   1.350   9.107 -0.2026 -0.5919 -0.1084
33441SOL     OW 9290  10.995   1.654  11.314  0.2293  0.8320 -0.1417
33441SOL    HW1 9291  11.030   1.685  11.230 -0.5799 -1.1690 -1.2969
33441SOL    HW2 9292  11.058   1.586  11.342 -0.6541 -0.0693 -0.2842
33442SOL     OW 9293   8.348   9.974  11.580  0.4827 -0.5610  0.6008
33442SOL    HW1 9294   8.325  10.031  11.506 -2.3722 -0.8031  1.1868
33442SOL    HW2 9295   8.312  10.019  11.656  1.5734 -1.3212  1.5911
33443SOL     OW 9296   5.612   3.002   0.163 -0.0776 -0.3890  0.3512
33443SOL    HW1 9297   5.641   3.039   0.080 -1.2898  1.0317  0.5066
33443SOL    HW2 9298   5.692   2.987   0.213  0.6320 -0.8451 -0.8909
33444SOL     OW 9299  10.790   1.919  12.051  0.0952  0.0454 -0.3963
33444SOL    HW1 9300  10.833   1.886  12.130  0.2892 -1.5854 -1.1429
33444SOL    HW2 9301  10.727   1.850  12.028 -0.2856  0.7092 -1.3894
33445SOL     OW 9302   2.348   5.424   2.580  0.3461 -0.0186 -0.0877
33445SOL    HW1 9303   2.428   5.423   2.527 -0.5788  0.3931 -1.5630
33445SOL    HW2 9304   2.364   5.359   2.648  1.7040 -0.3747 -0.7066
33446SOL     OW 9305   9.127   4.831   9.912 -0.3909  0.3827 -1.2111
33446SOL    HW1 9306   9.152   4.869   9.996 -2.2731  1.1581 -0.9524
33446SOL    HW2 9307   9.155   4.896   9.847 -0.8582  0.7973 -1.0033
33447SOL     OW 9308   1.201   2.149   6.256 -0.3015  0.2071  0.4444
33447SOL    HW1 9309   1.114   2.188   6.251 -0.4336  0.2038  2.1341
33447SOL    HW2 9310   1.186   2.055   6.245 -0.4716  0.2338  0.4471
33448SOL     OW 9311   8.224   2.431   7.383 -0.3430 -0.4698  0.1725
33448SOL    HW1 9312   8.215   2.503   7.321  1.1027 -0.4261 -0.0172
33448SOL    HW2 9313   8.249   2.356   7.329 -2.2845 -1.2716  0.3055
33449SOL     OW 9314   5.883  10.638  10.329  0.4961 -0.2602 -0.7419
33449SOL    HW1 9315   5.937  10.567  10.364  2.2069  1.1178 -0.4918
33449SOL    HW2 9316   5.926  10.718  10.358 -0.3710  0.9155 -2.5475
33450SOL     OW 9317   3.632   8.723   8.460  0.6101 -0.7290  0.0100
33450SOL    HW1 9318   3.547   8.682   8.473 -0.5763  2.1418  2.5049
33450SOL    HW2 9319   3.686   8.690   8.531  0.6585 -0.3707  0.1397
33451SOL     OW 9320   3.385  11.763   7.230  0.1727  0.3519  0.7528
33451SOL    HW1 9321   3.454  11.814   7.272  1.7507 -1.0566  0.0069
33451SOL    HW2 9322   3.353  11.704   7.298 -0.2944  0.9832  1.0900
33452SOL     OW 9323  10.611   1.769   6.698  0.6896 -0.2548  0.1372
33452SOL    HW1 9324  10.690   1.801   6.655  1.0605  0.9502  1.6104
33452SOL    HW2 9325  10.544   1.834   6.677  1.0334  0.6991  1.8095
33453SOL     OW 9326   2.971   1.367   2.420 -0.1807  0.0313  0.0412
33453SOL    HW1 9327   2.925   1.284   2.424 -0.5089  0.1841 -0.4877
33453SOL    HW2 9328   3.054   1.351   2.464 -0.4934 -0.4067  0.4800
33454SOL     OW 9329   3.036   5.349   4.401 -0.5184 -0.0817 -0.1793
33454SOL    HW1 9330   3.037   5.324   4.309 -2.5202 -1.7577  0.1963
33454SOL    HW2 9331   2.973   5.422   4.405 -1.2901 -0.7483  0.0082
33455SOL     OW 9332   0.129   1.640   8.558  0.4844  0.4922 -0.1836
33455SOL    HW1 9333   0.152   1.716   8.504  0.7516  1.2779  1.0077
33455SOL    HW2 9334   0.214   1.601   8.583  0.3663  0.2314 -0.1798
33456SOL     OW 9335   2.252   3.630   6.215  0.7103 -0.2395  0.1353
33456SOL    HW1 9336   2.235   3.658   6.125  0.1381 -0.7560  0.0756
33456SOL    HW2 9337   2.333   3.676   6.239  0.2197  0.8561 -0.2151
33457SOL     OW 9338   8.600   4.616   8.090 -0.4522  0.0097  0.4276
33457SOL    HW1 9339   8.665   4.684   8.072  0.5510 -0.0705  3.2668
33457SOL    HW2 9340   8.621   4.586   8.178 -3.3402 -1.2225  0.7866
33458SOL     OW 9341   6.828   1.266   0.889 -0.1223 -0.3275 -0.3423
33458SOL    HW1 9342   6.803   1.302   0.974  0.9238 -0.7738  0.1664
33458SOL    HW2 9343   6.823   1.341   0.829 -0.0519  0.1789  0.2722
33459SOL     OW 9344  12.003   0.263   3.373  0.3067 -0.2568 -0.4430
33459SOL    HW1 9345  11.993   0.350   3.412 -0.0506  0.1628 -1.4446
33459SOL    HW2 9346  11.915   0.227   3.373  0.0198  0.3687 -2.2437
33460SOL     OW 9347   3.786  11.940  12.490  0.3331 -0.3983  0.4151
33460SOL    HW1 9348   3.859  11.888  12.456  1.5830  1.0014  0.8423
33460SOL    HW2 9349   3.802  11.944  12.585 -0.8526 -0.8618  0.6598
33461SOL     OW 9350   7.857   2.704  12.001 -0.2230 -0.0743 -0.2387
33461SOL    HW1 9351   7.917   2.687  12.073  0.6367 -1.2619 -1.2063
33461SOL    HW2 9352   7.907   2.683  11.922 -2.2812 -2.4013 -1.0425
33462SOL     OW 9353   5.463   2.453   1.803 -0.3988  0.3939  0.0069
33462SOL    HW1 9354   5.540   2.440   1.748 -1.7107 -0.1387 -1.8384
33462SOL    HW2 9355   5.457   2.548   1.814 -0.4145  0.5677 -1.3106
33463SOL     OW 9356   3.174  10.255   7.123 -0.5899 -0.0353 -0.1601
33463SOL    HW1 9357   3.218  10.178   7.088 -0.1316  0.6958 -1.2603
33463SOL    HW2 9358   3.223  10.277   7.202  0.3284  0.0865 -0.7472
33464SOL     OW 9359   4.585   9.493   5.805 -0.2722  0.0556 -0.4449
33464SOL    HW1 9360   4.585   9.528   5.716  0.7417  0.5307 -0.2737
33464SOL    HW2 9361   4.662   9.435   5.808 -0.4096 -0.1067  0.0649
33465SOL     OW 9362   8.588   1.894   4.847 -0.3673  0.4773  0.2921
33465SOL    HW1 9363   8.655   1.943   4.800  0.9414 -0.4854  1.0997
33465SOL    HW2 9364   8.618   1.803   4.845 -2.4753 -0.2786 -0.7272
33466SOL     OW 9365   5.179   1.119  10.619 -0.1300 -0.2921  0.1576
33466SOL    HW1 9366   5.202   1.204  10.657 -0.4285  0.0961 -0.5184
33466SOL    HW2 9367   5.249   1.060  10.649 -0.7879 -0.1996  1.9720
33467SOL     OW 9368  11.948  10.199   6.443  0.2123  0.3830 -0.4079
33467SOL    HW1 9369  11.990  10.220   6.527  0.1611  0.4569 -0.3997
33467SOL    HW2 9370  11.856  10.224   6.457 -0.0534 -0.7152 -0.0804
33468SOL     OW 9371   5.433   0.976   8.696  0.1537  0.2387 -0.4573
33468SOL    HW1 9372   5.508   1.035   8.693 -0.7427  1.4504  0.1030
33468SOL    HW2 9373   5.446   0.924   8.775  0.9584 -0.3464 -0.9648
33469SOL     OW 9374  10.911   2.969  11.453  0.1132 -0.5261 -0.5273
33469SOL    HW1 9375  10.885   3.061  11.449 -1.5455 -0.9695 -0.5839
33469SOL    HW2 9376  10.961   2.955  11.373  0.8880  0.4546 -0.2423
33470SOL     OW 9377   9.068   5.397  12.093 -0.1073  0.1299  0.4684
33470SOL    HW1 9378   9.069   5.309  12.130  1.0282 -0.2608 -0.4358
33470SOL    HW2 9379   9.020   5.450  12.157 -0.8685 -1.1474  0.9881
33471SOL     OW 9380   5.732   9.092   0.939  0.2207  0.0820 -0.0338
33471SOL    HW1 9381   5.713   9.097   1.033 -2.2585 -1.4089 -0.3439
33471SOL    HW2 9382   5.735   9.183   0.910 -1.3964  0.5578  1.1155
33472SOL     OW 9383   6.934  10.216   6.462 -0.2043 -0.0999 -0.2500
33472SOL    HW1 9384   6.999  10.145   6.464  2.6867  2.3391 -0.6351
33472SOL    HW2 9385   6.906  10.221   6.371  0.2939 -0.1601 -0.4085
33473SOL     OW 9386   5.601   3.359   4.296  0.7742  0.1422 -0.1739
33473SOL    HW1 9387   5.595   3.454   4.294 -1.6959  0.0470  0.3658
33473SOL    HW2 9388   5.626   3.338   4.386 -2.6609  0.2101  0.9062
33474SOL     OW 9389   3.635   6.346   0.649  0.6182 -0.2787  0.2722
33474SOL    HW1 9390   3.681   6.294   0.715 -1.9797 -0.5523  2.0180
33474SOL    HW2 9391   3.586   6.281   0.599  0.6838  0.1600 -0.3712
33475SOL     OW 9392  11.546  11.458  10.985 -0.1524 -0.1488 -0.1889
33475SOL    HW1 9393  11.563  11.503  10.903 -0.3742 -1.2728 -0.8770
33475SOL    HW2 9394  11.628  11.414  11.006  0.7354  2.2066  1.5832
33476SOL     OW 9395  11.371   2.331   7.851  0.1052  0.1511 -0.0294
33476SOL    HW1 9396  11.464   2.341   7.835  0.2940  1.6009  1.7241
33476SOL    HW2 9397  11.329   2.378   7.778  0.7734  0.7932 -0.0103
33477SOL     OW 9398  12.387   6.542   4.672  0.1372  0.4198 -0.1705
33477SOL    HW1 9399  12.381   6.456   4.713 -0.3201 -1.4655 -3.7539
33477SOL    HW2 9400  12.472   6.542   4.628  0.2694  1.9654  0.0272
33478SOL     OW 9401   7.071   5.127   0.476 -0.1314 -0.0366  0.1203
33478SOL    HW1 9402   7.047   5.063   0.409  0.7025 -0.4983  0.2439
33478SOL    HW2 9403   7.140   5.179   0.436 -0.1990  0.2173  0.3315
33479SOL     OW 9404   5.337   7.352   1.222  0.4514 -0.2428 -0.4201
33479SOL    HW1 9405   5.381   7.436   1.236  0.0192 -0.4665  3.0278
33479SOL    HW2 9406   5.408   7.288   1.215  0.7335  0.1150 -0.9130
33480SOL     OW 9407   2.702   3.748   4.027 -0.2700  0.3068  0.0775
33480SOL    HW1 9408   2.720   3.818   4.091  0.1187  0.7202 -0.4766
33480SOL    HW2 9409   2.773   3.686   4.040 -0.8505 -0.2106  0.8665
33481SOL     OW 9410  10.119   8.762  12.478  0.9321  0.0854  0.7559
33481SOL    HW1 9411  10.087   8.735  12.392  0.2208  1.4541  0.5586
33481SOL    HW2 9412  10.131   8.857  12.470  0.5549  0.2793  2.2635
33482SOL     OW 9413   3.408  11.157  11.695  0.3835  0.4436  0.1771
33482SOL    HW1 9414   3.499  11.128  11.699 -0.8401 -4.0751  0.2138
33482SOL    HW2 9415   3.388  11.161  11.601 -0.0685 -1.3666  0.1690
33483SOL     OW 9416   7.628  11.888   8.568  0.6953 -0.4163 -0.0474
33483SOL    HW1 9417   7.673  11.877   8.653  0.4912 -1.0053 -0.0072
33483SOL    HW2 9418   7.608  11.798   8.541 -2.0298 -0.1310  0.7649
33484SOL     OW 9419   0.854  12.060   3.738  0.0861  0.1198 -0.5862
33484SOL    HW1 9420   0.797  12.017   3.802  2.2544 -0.1203  1.3476
33484SOL    HW2 9421   0.834  12.153   3.747 -0.0455  0.0358  0.0330
33485SOL     OW 9422   4.165   4.508   2.243 -0.2690 -0.4897 -0.1360
33485SOL    HW1 9423   4.071   4.498   2.228 -1.2615  5.0912  0.0610
33485SOL    HW2 9424   4.204   4.493   2.157 -1.4843 -1.5440 -0.5425
33486SOL     OW 9425   7.251   6.698   6.970 -0.7302  0.3137 -0.1856
33486SOL    HW1 9426   7.345   6.713   6.971 -0.4704 -1.1039 -1.0818
33486SOL    HW2 9427   7.240   6.614   6.925 -2.2769 -0.5651  1.6800
33487SOL     OW 9428  11.350   7.144   4.805  0.2087 -0.4264  0.1131
33487SOL    HW1 9429  11.432   7.194   4.812  1.0545 -1.8253  0.5641
33487SOL    HW2 9430  11.309   7.154   4.890  1.6545 -2.5628  1.1440
33488SOL     OW 9431  10.126   0.994   2.915  0.0133 -0.0025 -0.0143
33488SOL    HW1 9432  10.129   0.898   2.911 -1.7527 -0.0433 -1.4713
33488SOL    HW2 9433  10.205   1.023   2.871 -0.8640 -0.8170 -2.2416
33489SOL     OW 9434   1.888   8.233   4.388  0.0116  0.1103  0.2256
33489SOL    HW1 9435   1.930   8.299   4.333  0.1710 -0.6715 -0.6142
33489SOL    HW2 9436   1.797   8.262   4.395  0.4607  1.3673  1.3670
33490SOL     OW 9437   2.302   2.280   2.473  0.3727  0.1851  0.2778
33490SOL    HW1 9438   2.309   2.354   2.533  0.6790  0.3089  0.0887
33490SOL    HW2 9439   2.315   2.203   2.529  2.0683  0.3477  0.1563
33491SOL     OW 9440   7.302   9.570   2.392  0.0729  0.1775  0.2585
33491SOL    HW1 9441   7.323   9.493   2.340  0.2923  2.3277 -3.1119
33491SOL    HW2 9442   7.207   9.579   2.384  0.2672  1.3143 -1.0809
33492SOL     OW 9443   3.481   0.728   5.626 -0.4128  0.2165 -0.0429
33492SOL    HW1 9444   3.406   0.785   5.607  1.7095  3.5207  0.5827
33492SOL    HW2 9445   3.545   0.786   5.667  1.8112 -2.8468  1.2008
33493SOL     OW 9446   9.550  11.549   6.446 -0.0486  0.7020 -0.4210
33493SOL    HW1 9447   9.495  11.625   6.431  0.9250  1.4025 -0.5330
33493SOL    HW2 9448   9.634  11.585   6.475  0.0472 -0.3743  0.7208
33494SOL     OW 9449   1.949   1.791  12.320 -0.9124  0.2086  0.4043
33494SOL    HW1 9450   2.034   1.834  12.313 -0.6128  0.1530  2.8240
33494SOL    HW2 9451   1.957   1.731  12.394 -2.1249 -2.2125 -1.2740
33495SOL     OW 9452   0.455   0.475   2.976  0.0779  0.0044 -0.3921
33495SOL    HW1 9453   0.529   0.495   2.918  0.8760 -0.1753  0.5309
33495SOL    HW2 9454   0.414   0.398   2.937  0.3330  0.1546 -0.9619
33496SOL     OW 9455  11.199  10.672   7.399 -0.4562  0.1821  0.8954
33496SOL    HW1 9456  11.228  10.585   7.427 -0.8409  1.1872  5.0465
33496SOL    HW2 9457  11.105  10.672   7.418 -1.2158  0.5814 -2.1848
33497SOL     OW 9458  10.366   8.002   8.007 -0.2261  0.1169  0.4056
33497SOL    HW1 9459  10.411   7.982   8.089  2.9094  0.0993 -1.1499
33497SOL    HW2 9460  10.356   7.917   7.964 -2.3997  0.0508  0.9487
33498SOL     OW 9461   3.846   9.976   1.716  0.4003  0.1224  0.2653
33498SOL    HW1 9462   3.902   9.917   1.666  1.3954  0.3980  1.0089
33498SOL    HW2 9463   3.757   9.951   1.693  0.6900  1.8850 -3.6377
33499SOL     OW 9464   6.019   7.486   9.172  0.2347 -0.4121 -0.2872
33499SOL    HW1 9465   6.054   7.573   9.192  0.8676 -0.7961  0.3266
33499SOL    HW2 9466   6.023   7.479   9.077  0.4040  0.1388 -0.3214
33500SOL     OW 9467   4.550  10.936  10.799  0.5071  0.1870  0.0318
33500SOL    HW1 9468   4.541  10.873  10.727 -0.9382  0.5392 -0.1227
33500SOL    HW2 9469   4.529  10.885  10.877 -0.7366  0.4564 -0.1006
33501SOL     OW 9470   5.859  12.258   6.315  0.0440  0.3055 -0.3250
33501SOL    HW1 9471   5.868  12.313   6.237 -0.2501  2.4427  1.0592
33501SOL    HW2 9472   5.948  12.249   6.348  0.5282 -2.6288 -2.1158
33502SOL     OW 9473  10.667   2.031   1.115  0.1067  0.5466 -0.4527
33502SOL    HW1 9474  10.631   1.976   1.046 -0.3742 -0.1795  0.3535
33502SOL    HW2 9475  10.758   2.003   1.124 -0.8133 -2.2406  1.8779
33503SOL     OW 9476  10.584   3.723  10.426  0.1467  0.2886  0.4057
33503SOL    HW1 9477  10.591   3.729  10.331  1.6909  1.4364  0.5414
33503SOL    HW2 9478  10.496   3.755  10.446 -0.4220 -0.5511 -0.6531
33504SOL     OW 9479   1.340   2.261   4.468 -0.7616 -0.0926  0.0487
33504SOL    HW1 9480   1.415   2.279   4.524 -0.5033 -0.2547 -0.2443
33504SOL    HW2 9481   1.309   2.175   4.497  0.3639 -0.9231 -1.1321
33505SOL     OW 9482   9.337   7.314   1.254 -0.3528 -0.4177 -0.0350
33505SOL    HW1 9483   9.314   7.396   1.299  0.5972  0.9614 -1.9286
33505SOL    HW2 9484   9.428   7.298   1.280 -0.8297 -1.4419  1.0871
33506SOL     OW 9485  11.529  11.917  11.890 -0.0455 -0.1398  0.5231
33506SOL    HW1 9486  11.540  11.969  11.810 -0.3365 -0.1200  0.4934
33506SOL    HW2 9487  11.615  11.878  11.906 -0.2001 -0.8348 -0.2766
33507SOL     OW 9488  10.958   2.683   8.625 -0.2015 -0.5439 -0.0388
33507SOL    HW1 9489  10.914   2.715   8.704  1.0228 -0.7473  0.7383
33507SOL    HW2 9490  10.915   2.731   8.554  0.2600  1.4221  0.9391
33508SOL     OW 9491   9.745  10.908   0.595  0.0641 -0.1021 -0.1879
33508SOL    HW1 9492   9.808  10.979   0.607 -0.3687  0.0505  1.3932
33508SOL    HW2 9493   9.764  10.874   0.507  0.2664  1.9567 -0.9856
33509SOL     OW 9494   1.646   9.967   3.288  0.5592 -0.2233  0.1028
33509SOL    HW1 9495   1.661   9.888   3.340 -0.6546 -0.3144  0.3427
33509SOL    HW2 9496   1.603  10.027   3.349  0.9627  0.4209 -0.2385
33510SOL     OW 9497  10.869   4.872   7.172  0.3403  0.1441  0.3627
33510SOL    HW1 9498  10.807   4.836   7.236  1.0267  0.3976  1.1847
33510SOL    HW2 9499  10.955   4.850   7.207  0.7492 -1.4714 -1.4955
33511SOL     OW 9500   6.894  11.186   5.808  0.2814 -0.3326 -0.0049
33511SOL    HW1 9501   6.972  11.210   5.858 -0.3967 -0.2257  1.0407
33511SOL    HW2 9502   6.904  11.092   5.791  0.3459 -0.4595  0.6838
33512SOL     OW 9503   3.959   8.381  11.059 -0.2368  0.6214 -0.1794
33512SOL    HW1 9504   3.890   8.445  11.077 -2.1240 -1.4322  0.3208
33512SOL    HW2 9505   3.943   8.310  11.121 -0.3260 -1.8486 -2.7861
33513SOL     OW 9506   3.998  12.440  11.985 -0.1801  0.2702  0.0478
33513SOL    HW1 9507   3.943  12.518  11.978 -0.7945 -0.2087 -0.4891
33513SOL    HW2 9508   4.010  12.410  11.895  0.8753  0.3023  0.1654
33514SOL     OW 9509   6.917  10.032   6.151 -0.0660 -0.3068 -0.0498
33514SOL    HW1 9510   6.845   9.985   6.193 -0.7382 -0.4146 -1.2545
33514SOL    HW2 9511   6.984   9.964   6.137  0.6736 -0.0229  1.8674
33515SOL     OW 9512  10.647   3.313   9.155 -0.2513  0.2672 -0.2772
33515SOL    HW1 9513  10.696   3.336   9.234  0.1933  0.1787 -0.5200
33515SOL    HW2 9514  10.589   3.387   9.140 -0.3600  0.2723  0.1506
33516SOL     OW 9515   0.053  12.067  12.165  0.1822 -0.1119  0.3900
33516SOL    HW1 9516   0.075  12.128  12.235  2.0860 -0.0382 -0.2320
33516SOL    HW2 9517   0.052  12.119  12.085 -2.4862 -0.0914  0.3391
33517SOL     OW 9518   9.929   1.839  11.479 -0.1659 -0.4143  0.4042
33517SOL    HW1 9519   9.883   1.758  11.500 -2.3881  0.6120 -0.2419
33517SOL    HW2 9520   9.990   1.814  11.410 -0.7103 -1.5577  0.3065
33518SOL     OW 9521   6.228  12.054   0.853 -0.0917  0.2655  0.4718
33518SOL    HW1 9522   6.205  11.966   0.881  0.4119  0.1199  0.4297
33518SOL    HW2 9523   6.221  12.052   0.758  0.0698  0.2262  0.4601
33519SOL     OW 9524   7.939   8.213   6.244  0.1772 -0.0264  0.3503
33519SOL    HW1 9525   8.034   8.197   6.244  0.2669  0.4572  0.9573
33519SOL    HW2 9526   7.903   8.139   6.293  0.3988  0.5597  1.4370
33520SOL     OW 9527   4.257   4.868   3.787  0.0936 -0.1667  1.1163
33520SOL    HW1 9528   4.266   4.962   3.804  0.2443 -0.0922  0.6446
33520SOL    HW2 9529   4.248   4.862   3.692  0.4450 -0.6542  1.1089
33521SOL     OW 9530  11.793  10.523   9.870  0.7913  0.8443 -0.0342
33521SOL    HW1 9531  11.823  10.579   9.942 -1.8425  0.4279  1.5408
33521SOL    HW2 9532  11.828  10.436   9.891  0.1988  0.7664  0.7060
33522SOL     OW 9533   9.570   1.433   9.170 -0.0088 -0.0533  0.3434
33522SOL    HW1 9534   9.628   1.509   9.174 -0.8592  0.5478  2.6557
33522SOL    HW2 9535   9.628   1.358   9.185  0.6906  0.1546 -1.0884
33523SOL     OW 9536  10.078   7.997   2.470  0.0697 -0.6715 -0.3230
33523SOL    HW1 9537  10.014   7.926   2.470 -1.5437  0.7077 -0.3412
33523SOL    HW2 9538  10.038   8.064   2.525  2.9151 -0.8990  2.2603
33524SOL     OW 9539   0.836   9.997   4.395  0.2079  0.0712 -0.2016
33524SOL    HW1 9540   0.758  10.031   4.350 -0.8819 -1.4063  0.4994
33524SOL    HW2 9541   0.878   9.941   4.331 -1.3506 -2.0428  0.5106
33525SOL     OW 9542   2.406   7.430   6.620  0.2199 -0.9586 -0.4024
33525SOL    HW1 9543   2.318   7.417   6.656 -0.3226 -1.8577 -1.9423
33525SOL    HW2 9544   2.417   7.357   6.558  0.9268  0.6961 -2.3269
33526SOL     OW 9545  12.590   0.946   3.670 -0.5842  0.3880  0.5563
33526SOL    HW1 9546  12.635   0.893   3.736 -0.6901  0.5941  0.7960
33526SOL    HW2 9547  12.504   0.965   3.709 -0.9532 -0.1609  0.0216
33527SOL     OW 9548   9.262   6.759  11.036 -0.2977  0.0743 -0.6300
33527SOL    HW1 9549   9.181   6.736  11.081 -1.0665  2.2974 -0.7829
33527SOL    HW2 9550   9.331   6.742  11.101 -0.8802 -1.4211 -0.3553
33528SOL     OW 9551  10.091   2.252   1.214 -0.8564 -0.2245 -0.3134
33528SOL    HW1 9552  10.075   2.341   1.182 -1.2375 -0.5057 -0.9337
33528SOL    HW2 9553  10.070   2.256   1.307  0.2308  0.6038 -0.0892
33529SOL     OW 9554   2.004  10.542  11.970 -0.3910  0.2457 -0.0262
33529SOL    HW1 9555   1.934  10.555  11.906  0.5568  0.0503 -1.1414
33529SOL    HW2 9556   2.028  10.631  11.998  0.7506  0.5202 -1.7225
33530SOL     OW 9557   0.647   6.180   5.192  0.1447 -0.4291 -0.4425
33530SOL    HW1 9558   0.694   6.174   5.275 -2.5438  1.2181  1.3520
33530SOL    HW2 9559   0.632   6.274   5.180  1.4827 -0.4923 -3.4914
33531SOL     OW 9560   8.598   6.706   7.244 -0.1257 -0.6486  0.4480
33531SOL    HW1 9561   8.656   6.633   7.222 -2.1805 -2.4306  0.6791
33531SOL    HW2 9562   8.545   6.719   7.166 -0.0288  0.3819  0.5436
33532SOL     OW 9563  12.015   5.216   6.904 -0.4691  0.1247 -0.5469
33532SOL    HW1 9564  11.970   5.132   6.897  0.0646 -0.1707 -0.4856
33532SOL    HW2 9565  12.009   5.239   6.997 -0.0837 -0.1512 -0.4488
33533SOL     OW 9566   7.263   9.640   9.730 -0.2134  0.6083  0.1962
33533SOL    HW1 9567   7.305   9.554   9.722  0.3781  1.0540 -2.3756
33533SOL    HW2 9568   7.302   9.679   9.808  1.3214 -0.5253  0.0359
33534SOL     OW 9569   0.913   0.655  10.407  0.1917  0.2386 -0.4665
33534SOL    HW1 9570   0.940   0.611  10.487 -0.9339  1.5544  0.6793
33534SOL    HW2 9571   0.924   0.748  10.425 -1.7241  0.6510 -1.1978
33535SOL     OW 9572   5.297   0.261   5.066 -0.4249 -0.2481 -0.1805
33535SOL    HW1 9573   5.374   0.277   5.011 -0.3903 -1.3746 -0.4704
33535SOL    HW2 9574   5.309   0.173   5.100 -2.4260 -1.1475 -1.6146
33536SOL     OW 9575   9.119  11.218   2.048  0.2706 -0.1101 -0.3431
33536SOL    HW1 9576   9.128  11.147   2.112  1.3227 -0.9391 -1.3684
33536SOL    HW2 9577   9.131  11.176   1.964  0.6815  1.2640 -0.9971
33537SOL     OW 9578   1.558   4.542   0.303 -0.1630  0.1007 -0.2465
33537SOL    HW1 9579   1.630   4.588   0.260  0.7631  0.0339  1.1784
33537SOL    HW2 9580   1.479   4.577   0.261  0.6022  1.6861 -0.4494
33538SOL     OW 9581   9.993   4.423  12.310 -0.5188 -0.5674  0.3978
33538SOL    HW1 9582   9.898   4.416  12.315 -0.7053  0.8068 -0.7278
33538SOL    HW2 9583  10.010   4.516  12.294  1.0260 -0.7500  0.7939
33539SOL     OW 9584   2.644   1.828   6.853 -0.8647  0.0094  0.3719
33539SOL    HW1 9585   2.598   1.759   6.900 -0.8047 -0.1075  0.2585
33539SOL    HW2 9586   2.687   1.879   6.921 -0.3300 -0.4821  0.4141
33540SOL     OW 9587  12.406  11.415   9.038 -0.2004  0.8443  0.1265
33540SOL    HW1 9588  12.351  11.450   9.108  0.1426  2.4891 -0.3799
33540SOL    HW2 9589  12.344  11.376   8.976 -0.4169 -2.4250  2.1794
33541SOL     OW 9590   8.614   4.798   3.731  0.3452  0.1258 -0.6976
33541SOL    HW1 9591   8.625   4.705   3.709 -4.2520 -1.1675  1.2538
33541SOL    HW2 9592   8.568   4.834   3.656 -0.9196 -0.1269 -0.0683
33542SOL     OW 9593   4.601  10.880   3.530 -0.7164 -0.6451 -0.3296
33542SOL    HW1 9594   4.661  10.863   3.457 -0.2601 -0.0967 -0.0890
33542SOL    HW2 9595   4.621  10.970   3.557 -1.2606 -0.6532  0.1205
33543SOL     OW 9596   2.153   9.848   4.539  0.4646  0.0943 -0.0200
33543SOL    HW1 9597   2.211   9.811   4.605 -0.2006  0.6541  0.9221
33543SOL    HW2 9598   2.099   9.774   4.510  0.4838 -0.0831  0.3844
33544SOL     OW 9599  12.100   0.531   5.309  0.3274 -0.4686  0.1698
33544SOL    HW1 9600  12.091   0.612   5.258 -2.3411 -0.4295  0.5390
33544SOL    HW2 9601  12.105   0.560   5.400 -1.4758 -0.6672  0.3741
33545SOL     OW 9602   7.264   2.141   0.207  0.0243 -0.4881  0.0369
33545SOL    HW1 9603   7.220   2.068   0.250 -2.1517  1.0745  0.6095
33545SOL    HW2 9604   7.316   2.182   0.276 -0.4186 -0.2684  0.2448
33546SOL     OW 9605   6.042   6.534   4.872 -0.2798 -0.6590 -0.8974
33546SOL    HW1 9606   5.956   6.528   4.831  0.4573 -2.0139 -2.3306
33546SOL    HW2 9607   6.096   6.471   4.824  1.2885 -0.4671  0.5409
33547SOL     OW 9608  11.390  12.247   4.373 -0.0289  0.0476  0.0035
33547SOL    HW1 9609  11.445  12.181   4.330  2.2698  2.2870 -0.7682
33547SOL    HW2 9610  11.387  12.219   4.465 -2.3435 -3.0876 -0.8797
33548SOL     OW 9611  10.698   3.510  11.364 -0.0803 -0.5721 -0.1439
33548SOL    HW1 9612  10.700   3.542  11.274  2.0150 -0.4884 -0.1226
33548SOL    HW2 9613  10.664   3.420  11.357 -0.4067 -0.3906 -0.9393
33549SOL     OW 9614   3.687  11.567  11.110  0.0455 -0.4436 -0.2270
33549SOL    HW1 9615   3.602  11.566  11.153  0.8875  0.8918  1.6126
33549SOL    HW2 9616   3.684  11.493  11.049 -2.0046 -1.1105  0.5923
33550SOL     OW 9617   4.008   7.923  10.870  0.5064  0.5589  0.4992
33550SOL    HW1 9618   4.032   7.891  10.784 -0.8060  0.0641  0.2941
33550SOL    HW2 9619   4.043   8.012  10.874 -0.9225  1.2534 -1.2484
33551SOL     OW 9620   5.085   6.551   6.590 -0.1246 -0.0023  0.1336
33551SOL    HW1 9621   5.143   6.603   6.647  0.9336  0.1737 -1.0726
33551SOL    HW2 9622   5.092   6.462   6.624  0.5964  0.0758  0.2069
33552SOL     OW 9623   7.713   2.240   7.659 -0.1790 -0.1031  0.0848
33552SOL    HW1 9624   7.659   2.192   7.721  1.3517  0.8209  2.2443
33552SOL    HW2 9625   7.788   2.182   7.642  0.8580  0.7855  1.4323
33553SOL     OW 9626   4.538  11.330   2.601 -0.6323 -1.4549 -0.1908
33553SOL    HW1 9627   4.574  11.390   2.535  0.8626  0.8798  2.5216
33553SOL    HW2 9628   4.458  11.297   2.561  0.3519 -0.4743 -3.2882
33554SOL     OW 9629  11.471   9.222  12.174 -0.0764 -0.0115  0.2623
33554SOL    HW1 9630  11.523   9.283  12.123 -0.6427  0.8684  0.7060
33554SOL    HW2 9631  11.407   9.277  12.219 -0.3379 -0.8911  0.9999
33555SOL     OW 9632   1.237   1.516   2.621  0.0768 -0.0860 -0.3883
33555SOL    HW1 9633   1.172   1.540   2.688 -0.1330 -1.1706 -0.1981
33555SOL    HW2 9634   1.185   1.499   2.543  0.0093 -1.9231  0.0205
33556SOL     OW 9635  11.345   8.496   2.737  0.1279  0.0948 -0.2805
33556SOL    HW1 9636  11.387   8.413   2.713 -1.3429 -0.7568  0.0332
33556SOL    HW2 9637  11.381   8.517   2.823  0.3028 -0.3370 -0.2459
33557SOL     OW 9638   7.719   3.743  12.455 -0.7290 -0.0769 -0.5651
33557SOL    HW1 9639   7.780   3.697  12.397 -1.1061  0.8089 -1.7080
33557SOL    HW2 9640   7.666   3.674  12.494  2.1709 -1.0962  1.9941
33558SOL     OW 9641   6.874  10.938   7.184  0.1517 -0.6275  0.1850
33558SOL    HW1 9642   6.935  10.865   7.177  0.2671 -0.5296  0.1547
33558SOL    HW2 9643   6.802  10.915   7.126  0.0062 -0.8953  0.4702
33559SOL     OW 9644   4.914   2.225   3.064 -0.3805  0.8754  0.0511
33559SOL    HW1 9645   4.971   2.298   3.086 -1.7992  2.1335 -0.2192
33559SOL    HW2 9646   4.830   2.266   3.044 -1.5253 -0.9189  0.8842
33560SOL     OW 9647   0.752   9.322   0.859  0.0130  0.2372  0.1678
33560SOL    HW1 9648   0.670   9.297   0.817 -0.3605 -0.3973  1.2370
33560SOL    HW2 9649   0.818   9.312   0.791 -0.5654 -0.8481 -0.2589
33561SOL     OW 9650   5.632  12.569   7.989 -0.4491  0.3079  0.1096
33561SOL    HW1 9651   5.704  12.598   7.933  1.6003 -0.4081  2.1903
33561SOL    HW2 9652   5.616  12.478   7.962  0.4570 -0.0020  0.5702
33562SOL     OW 9653  10.648   0.469  11.530  0.0433 -0.1824 -0.0463
33562SOL    HW1 9654  10.691   0.401  11.478  2.4758  0.1727  1.3119
33562SOL    HW2 9655  10.709   0.543  11.527 -1.5960  1.2176  0.1537
33563SOL     OW 9656  12.227  10.804   1.088 -0.1372 -0.6610  0.1091
33563SOL    HW1 9657  12.309  10.854   1.091 -0.6247  0.1268  2.0801
33563SOL    HW2 9658  12.188  10.826   1.004 -0.8554  3.2976  1.2641
33564SOL     OW 9659  12.209   7.509  10.423  0.1584  0.1003  0.5096
33564SOL    HW1 9660  12.165   7.433  10.459  3.2433 -1.7953  0.6679
33564SOL    HW2 9661  12.282   7.525  10.483  1.2569  1.3556 -1.0751
33565SOL     OW 9662  11.963   8.701  12.575  0.2845 -0.5430 -0.2274
33565SOL    HW1 9663  11.911   8.701  12.494  0.4373 -0.9641 -0.3255
33565SOL    HW2 9664  11.961   8.611  12.605  0.9972 -0.5729 -0.2562
33566SOL     OW 9665   0.992   0.089   7.625 -0.3905  0.4359  0.0442
33566SOL    HW1 9666   1.002   0.031   7.550 -0.5991  1.0801 -0.4944
33566SOL    HW2 9667   0.918   0.145   7.602  1.0724  2.2908 -0.3888
33567SOL     OW 9668   3.381  10.787   4.475  0.0132  0.5622 -0.0948
33567SOL    HW1 9669   3.418  10.810   4.390  0.0409 -1.3624 -0.6396
33567SOL    HW2 9670   3.443  10.822   4.538  2.1666 -1.4312 -0.9614
33568SOL     OW 9671   4.369   0.023   1.280 -0.6587  0.5325  0.6857
33568SOL    HW1 9672   4.461   0.001   1.293 -0.7376 -0.0480  0.2781
33568SOL    HW2 9673   4.370   0.107   1.233 -0.3361  0.3351  0.3415
33569SOL     OW 9674   7.479  11.846   1.352  0.6003 -0.6729 -0.6023
33569SOL    HW1 9675   7.569  11.850   1.386  0.7595  2.9523 -1.0488
33569SOL    HW2 9676   7.488  11.862   1.259 -0.5321  0.2107 -0.5757
33570SOL     OW 9677   2.796   2.356   3.749 -0.2298 -0.0200 -0.0379
33570SOL    HW1 9678   2.795   2.437   3.698  2.0381 -0.2720 -0.5862
33570SOL    HW2 9679   2.752   2.292   3.692  1.3331 -0.0389 -1.2943
33571SOL     OW 9680   0.490   3.925   6.807  0.1259  0.1945 -0.2790
33571SOL    HW1 9681   0.483   3.942   6.901 -1.5891  0.6749 -0.4476
33571SOL    HW2 9682   0.430   3.988   6.767 -0.0144 -0.7312 -1.6103
33572SOL     OW 9683   8.351   9.605   6.697  0.6974  0.2228  0.4475
33572SOL    HW1 9684   8.428   9.559   6.731  0.3803 -2.4029 -2.0169
33572SOL    HW2 9685   8.385   9.665   6.631  0.8155  0.9416  1.1531
33573SOL     OW 9686  11.252   5.193   9.659 -0.2392  0.0473 -0.2327
33573SOL    HW1 9687  11.279   5.251   9.588  3.3384 -0.2628  0.6965
33573SOL    HW2 9688  11.233   5.109   9.615 -0.9868  0.6473 -1.0891
33574SOL     OW 9689   8.898   8.168   1.223  0.0900  0.1708 -0.0362
33574SOL    HW1 9690   8.895   8.125   1.138  2.3822  0.8526 -0.5235
33574SOL    HW2 9691   8.965   8.120   1.272 -0.0855  0.7652  0.8079
33575SOL     OW 9692  10.782   6.582   1.913 -0.4083 -0.1354  0.9895
33575SOL    HW1 9693  10.840   6.508   1.929  0.6608 -0.2953 -2.6064
33575SOL    HW2 9694  10.823   6.655   1.959  1.8525 -0.6093 -0.0873
33576SOL     OW 9695   8.600   0.151   9.660  0.4830 -0.1382  0.0002
33576SOL    HW1 9696   8.506   0.141   9.648  0.0480  2.6506  0.3019
33576SOL    HW2 9697   8.610   0.239   9.697  3.2070 -0.3871  0.0654
33577SOL     OW 9698   2.524   0.688   1.688  0.3974  0.0996 -0.6205
33577SOL    HW1 9699   2.523   0.745   1.611 -0.9366  1.5888  0.4346
33577SOL    HW2 9700   2.594   0.724   1.743  1.1911 -0.8164 -1.0089
33578SOL     OW 9701   2.057   4.927   0.380  0.0236 -0.4917  0.0394
33578SOL    HW1 9702   2.113   4.966   0.312 -0.1378  0.1029  0.2461
33578SOL    HW2 9703   2.118   4.901   0.449  0.1517 -0.7931 -0.1817
33579SOL     OW 9704   3.165   9.372  11.101  0.2392  0.9150 -0.1614
33579SOL    HW1 9705   3.237   9.428  11.131 -0.6131  2.0016 -0.0590
33579SOL    HW2 9706   3.086   9.415  11.133 -0.6228  1.1861 -2.4198
33580SOL     OW 9707  11.076   3.356   0.221  0.0782 -0.0184 -0.4815
33580SOL    HW1 9708  11.120   3.440   0.207  2.8313 -1.6130 -2.5220
33580SOL    HW2 9709  11.121   3.318   0.297 -0.6550  0.0082 -0.0224
33581SOL     OW 9710  12.170   8.369   0.491  0.0818 -0.4003 -0.2845
33581SOL    HW1 9711  12.174   8.440   0.555 -0.1806  0.4249 -1.1501
33581SOL    HW2 9712  12.078   8.368   0.463  0.2796 -0.4476 -0.9556
33582SOL     OW 9713   9.306   1.366   1.738 -0.0266 -0.7140 -0.0323
33582SOL    HW1 9714   9.248   1.327   1.673 -0.0238 -1.0484  0.1628
33582SOL    HW2 9715   9.261   1.446   1.766 -1.0144 -1.6137  1.0418
33583SOL     OW 9716   1.510  11.608   2.338  0.0562 -0.0426  0.3310
33583SOL    HW1 9717   1.591  11.599   2.388  1.2291  2.0246 -1.0405
33583SOL    HW2 9718   1.445  11.637   2.402  1.1192  0.9541  1.0047
33584SOL     OW 9719   4.553   2.257   6.129  0.9280 -0.5013  0.2728
33584SOL    HW1 9720   4.556   2.299   6.214 -3.7507 -1.2373  1.0655
33584SOL    HW2 9721   4.533   2.328   6.067  1.1648 -0.4124  0.2994
33585SOL     OW 9722   0.875   8.767  12.408 -0.1690  0.1942  0.2604
33585SOL    HW1 9723   0.799   8.715  12.436 -0.1868  0.0585 -0.0411
33585SOL    HW2 9724   0.919   8.712  12.343 -1.7413  1.6805 -2.2348
33586SOL     OW 9725   2.542  12.473   8.081  0.8417 -0.4042  0.0413
33586SOL    HW1 9726   2.507  12.561   8.096 -0.2117 -1.0603  1.6534
33586SOL    HW2 9727   2.634  12.488   8.057  0.9832  1.0827  1.3579
33587SOL     OW 9728   9.503   6.159  10.858  0.2194  0.3559  0.6528
33587SOL    HW1 9729   9.427   6.157  10.917 -0.1143 -2.3584  0.2539
33587SOL    HW2 9730   9.576   6.129  10.912  0.2535 -0.5247  0.1314
33588SOL     OW 9731   1.734   3.960   7.522  0.4998  0.4404 -0.0660
33588SOL    HW1 9732   1.656   3.974   7.575  2.2875  2.5218  2.2624
33588SOL    HW2 9733   1.770   3.877   7.554 -1.0726 -0.9354 -1.6984
33589SOL     OW 9734  11.046  11.386   0.936  0.2018  0.3849  0.4417
33589SOL    HW1 9735  10.984  11.313   0.932  0.3061  0.3533 -1.0510
33589SOL    HW2 9736  11.098  11.378   0.857  1.5885  0.9005  1.2709
33590SOL     OW 9737   9.605   4.592   9.254 -0.3231  0.1768 -0.6260
33590SOL    HW1 9738   9.554   4.520   9.218 -0.9821 -0.2020  0.9764
33590SOL    HW2 9739   9.682   4.597   9.198 -1.3138 -0.3172 -2.1050
33591SOL     OW 9740   3.189  11.878   5.926 -0.0183  0.0328 -0.1484
33591SOL    HW1 9741   3.233  11.961   5.946  0.9177 -0.4381 -0.1629
33591SOL    HW2 9742   3.194  11.871   5.831  0.6216 -0.3995 -0.0942
33592SOL     OW 9743   8.411  10.805   6.445 -0.2380 -0.4986  0.7313
33592SOL    HW1 9744   8.440  10.719   6.476  0.3258 -0.2630  0.8711
33592SOL    HW2 9745   8.445  10.810   6.356  0.1755 -0.2174  0.9000
33593SOL     OW 9746   9.900   1.077   9.718 -0.5458  0.1639 -0.2175
33593SOL    HW1 9747   9.895   1.141   9.789 -2.2737 -0.0079 -0.1489
33593SOL    HW2 9748   9.855   1.000   9.752  1.3165 -1.0530 -0.3765
33594SOL     OW 9749   4.360   0.631   8.717  0.2083 -0.0414 -0.1711
33594SOL    HW1 9750   4.434   0.575   8.693  0.5402 -0.4479  1.6451
33594SOL    HW2 9751   4.353   0.693   8.645  2.5174  0.2025 -0.2656
33595SOL     OW 9752   7.253   1.878  11.621  0.2084  0.1802  0.0501
33595SOL    HW1 9753   7.344   1.870  11.651 -0.2445 -2.7648  0.9744
33595SOL    HW2 9754   7.250   1.827  11.540 -0.4828  0.8781 -0.3760
33596SOL     OW 9755   6.904  11.529   2.477 -0.0084  0.5086 -0.3604
33596SOL    HW1 9756   6.946  11.447   2.450  0.2091  0.5894 -0.2699
33596SOL    HW2 9757   6.940  11.594   2.418 -0.0313  0.5725 -0.3034
33597SOL     OW 9758   5.238   9.271  11.547  0.1077  0.5181  0.3308
33597SOL    HW1 9759   5.311   9.250  11.605 -0.8182  0.2330  1.4565
33597SOL    HW2 9760   5.160   9.259  11.602 -0.8344 -0.0075 -1.0519
33598SOL     OW 9761   3.314   3.461  10.480  0.6603 -0.7133 -0.5087
33598SOL    HW1 9762   3.358   3.527  10.533  0.5292 -1.3433  0.4098
33598SOL    HW2 9763   3.329   3.489  10.390 -0.6379  1.3736 -0.1438
33599SOL     OW 9764   9.695   4.956   2.105  0.3908  0.4457 -0.8087
33599SOL    HW1 9765   9.790   4.949   2.093  0.3428  0.6699 -1.2994
33599SOL    HW2 9766   9.663   4.866   2.098  0.9152 -0.1337  2.4553
33600SOL     OW 9767   8.234   9.704   4.839 -0.4465  0.2199 -0.6709
33600SOL    HW1 9768   8.283   9.758   4.901 -0.2241  0.1921 -0.8222
33600SOL    HW2 9769   8.147   9.695   4.879 -1.4105  2.9226 -1.8480
33601SOL     OW 9770   8.013   4.827   6.916 -0.0556 -0.1117 -0.3738
33601SOL    HW1 9771   7.959   4.763   6.869 -0.2271 -0.6647  0.5382
33601SOL    HW2 9772   8.078   4.774   6.962  0.4098  0.4534 -0.3725
33602SOL     OW 9773   6.266   4.532   7.924 -0.1144 -0.4539 -0.4581
33602SOL    HW1 9774   6.335   4.597   7.933 -0.9135  0.3002  0.5042
33602SOL    HW2 9775   6.258   4.493   8.010 -2.0655  0.7370 -0.0352
33603SOL     OW 9776   2.313  12.453  11.893 -0.0506  0.1573 -0.1741
33603SOL    HW1 9777   2.303  12.391  11.821  0.6583  0.7050 -0.7572
33603SOL    HW2 9778   2.326  12.538  11.850  1.6257  0.3099  0.5588
33604SOL     OW 9779   0.645   7.193   1.401  0.3233  0.3833 -0.3410
33604SOL    HW1 9780   0.578   7.262   1.406 -0.4105 -0.3623  0.5733
33604SOL    HW2 9781   0.595   7.112   1.399  1.1637 -0.2958  2.2196
33605SOL     OW 9782  11.630   4.072   1.007  0.2583 -0.0422 -0.3106
33605SOL    HW1 9783  11.582   4.131   1.066 -0.3335 -0.2234 -0.5973
33605SOL    HW2 9784  11.635   4.120   0.924  0.4138 -0.1008 -0.3352
33606SOL     OW 9785   5.962  12.270   8.429 -1.0718 -0.5386 -0.1907
33606SOL    HW1 9786   5.902  12.286   8.501 -0.8985 -1.0108  0.0640
33606SOL    HW2 9787   5.949  12.177   8.407 -2.4336  0.0104 -1.9581
33607SOL     OW 9788   4.927   4.994   1.621  0.1432  0.0142 -0.4609
33607SOL    HW1 9789   4.881   5.077   1.608 -1.8694 -0.7198  1.3044
33607SOL    HW2 9790   5.019   5.017   1.615 -0.1278  3.1366  3.2821
33608SOL     OW 9791   0.882   0.254   3.750  0.1387 -0.1936 -0.0557
33608SOL    HW1 9792   0.789   0.279   3.746  0.5422  1.8920  1.4945
33608SOL    HW2 9793   0.924   0.311   3.685  0.2063 -2.4557 -2.1717
33609SOL     OW 9794   1.082   8.886   0.538 -0.6952  0.2096  0.5404
33609SOL    HW1 9795   1.006   8.830   0.549 -0.5705  0.0619  0.6606
33609SOL    HW2 9796   1.122   8.858   0.456 -1.0340  0.6063  0.2359
33610SOL     OW 9797   2.818   1.336  10.993  0.0913 -0.7991  0.4392
33610SOL    HW1 9798   2.774   1.255  10.968  1.3525 -1.4246  0.1452
33610SOL    HW2 9799   2.880   1.310  11.061  0.6044 -0.1082  0.2510
33611SOL     OW 9800   8.608   4.682   6.907  0.9621 -0.0150 -0.7092
33611SOL    HW1 9801   8.625   4.645   6.994  0.0567  1.5741  0.1904
33611SOL    HW2 9802   8.544   4.622   6.868  1.5716 -0.8930 -0.4059
33612SOL     OW 9803   4.433  10.207   2.067  0.2974  0.9450 -0.7236
33612SOL    HW1 9804   4.398  10.228   1.980 -0.2532 -0.9870 -0.9986
33612SOL    HW2 9805   4.502  10.143   2.050 -0.1041  0.2276  0.2803
33613SOL     OW 9806   6.045  11.525   2.423 -0.2804  0.2643  0.2298
33613SOL    HW1 9807   6.077  11.435   2.434  0.5517  0.5796  0.4150
33613SOL    HW2 9808   5.954  11.521   2.454 -0.7019 -0.8186 -1.0283
33614SOL     OW 9809   8.062  12.168   7.590 -0.7224 -0.4951  0.2921
33614SOL    HW1 9810   7.967  12.163   7.600 -0.6581 -1.8779  0.3220
33614SOL    HW2 9811   8.077  12.166   7.496 -0.7360  0.3094  0.2635
33615SOL     OW 9812  11.631   5.738   4.880 -0.4365 -0.5150  0.7082
33615SOL    HW1 9813  11.672   5.767   4.799 -2.1816  2.0375  0.6110
33615SOL    HW2 9814  11.601   5.649   4.861  1.1606 -0.8149 -0.6292
33616SOL     OW 9815   4.318   8.538   0.855 -0.4130 -0.1292  0.0647
33616SOL    HW1 9816   4.231   8.573   0.839 -0.8161  0.3421  2.8044
33616SOL    HW2 9817   4.303   8.448   0.884  0.1329 -0.4953 -0.7542
33617SOL     OW 9818   9.304  11.496   4.782 -0.4053 -0.0775 -0.0008
33617SOL    HW1 9819   9.220  11.532   4.753  0.4622  1.5362 -0.6216
33617SOL    HW2 9820   9.286  11.460   4.869 -2.1377 -1.4178 -0.8520
33618SOL     OW 9821  10.454   5.691   7.235  0.4736  0.0454 -0.6640
33618SOL    HW1 9822  10.493   5.657   7.316  1.2476  1.3607 -0.4687
33618SOL    HW2 9823  10.510   5.765   7.211 -1.0185  1.0252 -1.2166
33619SOL     OW 9824   3.076  10.277   3.464 -0.2794  0.6531  0.4478
33619SOL    HW1 9825   3.147  10.299   3.525 -0.1279 -2.8700  1.7262
33619SOL    HW2 9826   3.021  10.215   3.512 -1.5616 -0.3823 -2.1633
33620SOL     OW 9827   5.810   2.171   8.043  0.3181  0.1335 -0.3049
33620SOL    HW1 9828   5.867   2.152   8.118  1.4641 -0.4035 -1.2813
33620SOL    HW2 9829   5.829   2.101   7.980 -0.4857  0.6806 -1.1807
33621SOL     OW 9830   9.454   1.627   1.194 -0.1462 -1.0643  0.0259
33621SOL    HW1 9831   9.548   1.631   1.212 -0.3061  3.1551  1.1293
33621SOL    HW2 9832   9.447   1.585   1.108  3.0482  0.8028 -1.3224
33622SOL     OW 9833  11.435   1.744  10.414 -0.0778  0.6616 -0.1017
33622SOL    HW1 9834  11.443   1.730  10.320 -0.7173  1.0639 -0.2222
33622SOL    HW2 9835  11.510   1.799  10.436 -1.1633  2.5038 -0.8067
33623SOL     OW 9836   3.604   9.648   4.066 -0.4659  0.0375  0.2020
33623SOL    HW1 9837   3.598   9.686   4.154  0.2618  1.5336 -0.3637
33623SOL    HW2 9838   3.530   9.686   4.019  0.7339  1.4434 -0.6028
33624SOL     OW 9839   0.327  10.948   9.794  0.0711  0.5261 -0.3711
33624SOL    HW1 9840   0.396  10.997   9.751 -0.5737 -0.5337 -2.8457
33624SOL    HW2 9841   0.370  10.869   9.827  0.6324  1.4947  1.3146
33625SOL     OW 9842   9.846   6.249   5.085 -0.0747  0.1685  0.5138
33625SOL    HW1 9843   9.893   6.311   5.030  1.0832  0.5723  1.8877
33625SOL    HW2 9844   9.899   6.169   5.082 -2.5512 -1.5732 -2.8151
33626SOL     OW 9845   0.005   3.474  11.537 -0.1895 -0.2245 -0.0604
33626SOL    HW1 9846   0.035   3.387  11.511  0.7280  0.4410 -1.3326
33626SOL    HW2 9847  -0.052   3.502  11.466  1.1967  1.0333 -0.7299
33627SOL     OW 9848   8.046   1.747   8.740  0.2592  0.3523  0.4085
33627SOL    HW1 9849   8.018   1.749   8.648 -1.2545  0.3388  0.8432
33627SOL    HW2 9850   8.065   1.654   8.757 -1.8361 -0.0656  0.7444
33628SOL     OW 9851   2.493   3.821   7.411 -0.0091  0.2166 -0.1623
33628SOL    HW1 9852   2.555   3.789   7.345  0.7724  0.8212  0.2583
33628SOL    HW2 9853   2.502   3.917   7.408 -0.2712  0.2707  0.5204
33629SOL     OW 9854   6.200   3.137   6.446 -0.1945 -0.1632  0.0949
33629SOL    HW1 9855   6.135   3.067   6.457 -1.0528  0.2948 -1.7941
33629SOL    HW2 9856   6.169   3.207   6.503 -0.1945 -0.7085  0.7869
33630SOL     OW 9857   6.807   1.498   4.726  0.3993  0.1952 -0.0511
33630SOL    HW1 9858   6.736   1.437   4.708 -0.3766  1.3518 -1.0644
33630SOL    HW2 9859   6.810   1.504   4.821 -1.7655  1.1034  0.0185
33631SOL     OW 9860   3.757  10.708   2.440  0.0260 -0.0329 -0.4930
33631SOL    HW1 9861   3.813  10.714   2.362  0.2439 -0.8896 -0.4134
33631SOL    HW2 9862   3.702  10.632   2.424 -0.5566  0.3254 -0.2018
33632SOL     OW 9863   4.963  12.124   2.313 -0.2729  0.2851  0.2985
33632SOL    HW1 9864   5.024  12.111   2.386  1.2745  0.1622 -0.9762
33632SOL    HW2 9865   4.882  12.154   2.355 -0.0260 -1.5126  2.2356
33633SOL     OW 9866   3.314   1.083   2.086 -0.4727 -0.2273  0.3625
33633SOL    HW1 9867   3.263   1.140   2.142 -1.9300 -1.0201 -0.1130
33633SOL    HW2 9868   3.303   0.995   2.123  1.4759 -0.2932  0.9017
33634SOL     OW 9869  11.211   9.871   0.485 -0.0251  0.5263 -0.1447
33634SOL    HW1 9870  11.168   9.818   0.418  0.2304  2.5714 -2.0210
33634SOL    HW2 9871  11.157   9.859   0.563 -1.2336 -0.7159 -1.1228
33635SOL     OW 9872   8.960   3.437   9.746 -0.7830 -0.3630 -0.2087
33635SOL    HW1 9873   8.953   3.461   9.653 -0.3164 -0.3796 -0.2528
33635SOL    HW2 9874   9.013   3.507   9.784  0.3355 -1.1381 -0.2764
33636SOL     OW 9875   0.416   0.814   4.448 -0.4390 -0.0082 -0.2906
33636SOL    HW1 9876   0.478   0.795   4.519  1.2640 -0.4233 -1.7992
33636SOL    HW2 9877   0.402   0.909   4.454  0.2731  0.0792  0.1439
33637SOL     OW 9878   5.212   8.767   9.349  0.6640  0.0693  0.2600
33637SOL    HW1 9879   5.121   8.738   9.345  0.9329 -1.8036  3.8840
33637SOL    HW2 9880   5.207   8.856   9.385  0.2569  0.4441 -0.6924
33638SOL     OW 9881   1.592  12.031   1.111  0.5150  0.1072  0.0630
33638SOL    HW1 9882   1.550  11.948   1.087 -2.5126  0.5411  3.0450
33638SOL    HW2 9883   1.678  12.005   1.145  0.2187 -1.6554 -0.4029
33639SOL     OW 9884   3.890   0.249   6.347  0.1951  0.2160  0.0576
33639SOL    HW1 9885   3.846   0.262   6.431 -0.3068  1.5856 -0.3854
33639SOL    HW2 9886   3.876   0.157   6.326 -2.4255  0.5498 -0.0053
33640SOL     OW 9887   3.562  10.037   1.376  0.0539  0.4158 -0.1327
33640SOL    HW1 9888   3.488   9.999   1.329 -0.3166  1.0369 -0.0622
33640SOL    HW2 9889   3.575  10.122   1.335  1.8561 -0.3890 -1.3087
33641SOL     OW 9890   8.892   9.652  11.433 -0.1824  0.5078 -0.2608
33641SOL    HW1 9891   8.961   9.673  11.370 -1.2499  1.8125 -1.0665
33641SOL    HW2 9892   8.826   9.720  11.418 -0.7764  0.4294  1.8046
33642SOL     OW 9893   2.243  10.329   7.400 -0.1009 -0.4356  0.3172
33642SOL    HW1 9894   2.197  10.270   7.460 -0.5651  0.9910  1.4394
33642SOL    HW2 9895   2.289  10.391   7.458 -2.2191  2.2815 -0.6881
33643SOL     OW 9896   9.983   2.706   1.855  0.2963  0.3400 -0.2869
33643SOL    HW1 9897   9.990   2.614   1.879  0.6583  0.6474  0.8878
33643SOL    HW2 9898   9.908   2.711   1.796  0.2045 -0.6805 -0.2591
33644SOL     OW 9899  12.086   1.421   8.409  0.0090  0.1598 -0.2919
33644SOL    HW1 9900  12.090   1.454   8.498  1.2958  1.1944 -0.6927
33644SOL    HW2 9901  12.111   1.329   8.416  0.9809  0.4517  0.3292
33645SOL     OW 9902  10.431   1.007   0.589  0.4953  0.9580 -0.1075
33645SOL    HW1 9903  10.403   0.975   0.503 -2.7305  1.0088  0.7762
33645SOL    HW2 9904  10.374   1.082   0.607  0.9643  0.8610  2.1375
33646SOL     OW 9905   6.905  10.974   3.103 -0.0064 -0.0094  0.2486
33646SOL    HW1 9906   6.960  10.898   3.120 -0.4135 -0.5175 -0.6282
33646SOL    HW2 9907   6.883  11.008   3.190  0.3989 -0.7339  0.6432
33647SOL     OW 9908   9.078   7.443   2.164 -0.1875  0.2170 -0.2057
33647SOL    HW1 9909   8.999   7.485   2.198  0.1513 -0.6729  1.8215
33647SOL    HW2 9910   9.144   7.460   2.231  0.8775 -0.5682 -1.0304
33648SOL     OW 9911   9.236   2.174   9.477  0.2267  0.5425 -0.0261
33648SOL    HW1 9912   9.218   2.195   9.568 -0.2214 -1.2304  0.3247
33648SOL    HW2 9913   9.321   2.131   9.478 -0.3310 -0.6077 -0.2472
33649SOL     OW 9914   1.310  10.387   6.574 -0.0916  0.1748 -0.0871
33649SOL    HW1 9915   1.271  10.473   6.561  0.7870  0.4359 -1.0803
33649SOL    HW2 9916   1.382  10.403   6.635 -0.1882  0.0582  0.0600
33650SOL     OW 9917  12.279   9.830   8.699 -0.2467 -0.3493  0.2770
33650SOL    HW1 9918  12.328   9.840   8.618  0.1900  0.5898  0.6316
33650SOL    HW2 9919  12.247   9.740   8.698  0.7254 -0.7019 -0.3895
33651SOL     OW 9920  11.916   7.553   3.453  0.5989  0.4856 -0.3039
33651SOL    HW1 9921  11.967   7.509   3.521  0.3372  0.1714 -0.3071
33651SOL    HW2 9922  11.970   7.545   3.374 -0.1300 -1.2638 -0.6895
33652SOL     OW 9923   1.021   2.590   9.549 -0.2269 -0.2292 -0.7896
33652SOL    HW1 9924   0.988   2.502   9.533 -1.2859  0.1663 -0.8927
33652SOL    HW2 9925   0.959   2.628   9.612  1.2172 -0.1523  0.6442
33653SOL     OW 9926  12.093   9.603   8.108  0.0492 -0.1929  0.0018
33653SOL    HW1 9927  12.117   9.594   8.200 -2.7256  0.4130  0.8712
33653SOL    HW2 9928  12.106   9.516   8.071  2.2037 -0.2065  0.6372
33654SOL     OW 9929   3.479  10.232  11.200  0.0706 -0.3157 -0.3679
33654SOL    HW1 9930   3.515  10.226  11.112 -1.0623 -3.0978 -0.7774
33654SOL    HW2 9931   3.400  10.285  11.190  1.2692  1.5295 -0.4565
33655SOL     OW 9932   5.982   6.538   3.592  0.1667 -0.0133  0.2006
33655SOL    HW1 9933   5.907   6.544   3.533 -0.8311  1.0178  1.5328
33655SOL    HW2 9934   6.042   6.606   3.560 -1.1414  1.7804  1.3764
33656SOL     OW 9935   0.331   7.749   0.151 -0.3140 -0.2410  0.4369
33656SOL    HW1 9936   0.305   7.831   0.109 -0.0855 -0.7093 -0.6637
33656SOL    HW2 9937   0.374   7.700   0.081 -1.5579 -1.8248  0.7410
33657SOL     OW 9938   4.899   9.423  11.391  0.2973  0.0540  0.2349
33657SOL    HW1 9939   4.813   9.450  11.358  0.5865 -1.1477 -1.6629
33657SOL    HW2 9940   4.936   9.370  11.320  2.1202 -0.4360  1.4891
33658SOL     OW 9941   3.394   9.257   1.923  0.2088  0.3178 -0.0427
33658SOL    HW1 9942   3.387   9.163   1.935  0.0863  0.2335 -0.6940
33658SOL    HW2 9943   3.304   9.286   1.909  0.3886  0.2557 -1.5890
33659SOL     OW 9944  10.394   9.859   0.831 -0.4780  0.2951 -1.3052
33659SOL    HW1 9945  10.341   9.911   0.892  1.6273  1.7149 -0.5741
33659SOL    HW2 9946  10.426   9.786   0.884 -0.8859 -0.0067 -1.4734
33660SOL     OW 9947  10.854  12.182   4.068 -0.1305  0.3498 -0.4498
33660SOL    HW1 9948  10.820  12.145   3.986  0.2078 -0.6327 -0.1632
33660SOL    HW2 9949  10.777  12.197   4.122 -0.2698 -0.0513 -0.5344
33661SOL     OW 9950  10.082  10.738   4.423  0.0480 -0.1353 -0.0957
33661SOL    HW1 9951  10.106  10.795   4.351 -0.2301  1.4479  1.0082
33661SOL    HW2 9952  10.160  10.733   4.478  0.3441 -1.5442 -0.6174
33662SOL     OW 9953  11.673   2.486   4.866 -0.1850  0.4022 -0.2919
33662SOL    HW1 9954  11.581   2.510   4.872 -0.2422  0.0157  0.6214
33662SOL    HW2 9955  11.709   2.509   4.952  0.4318  0.0002 -0.4371
33663SOL     OW 9956   8.266   8.620   6.751  0.0399 -0.4086 -0.9790
33663SOL    HW1 9957   8.337   8.604   6.689  0.5622  1.2088 -0.8310
33663SOL    HW2 9958   8.262   8.715   6.760 -0.8061 -0.5598  0.5803
33664SOL     OW 9959  10.248  12.323  10.401 -0.1979 -0.2375 -0.3645
33664SOL    HW1 9960  10.190  12.283  10.467 -0.5891 -0.1317 -0.6362
33664SOL    HW2 9961  10.196  12.396  10.366  0.8249  1.0572  0.7307
33665SOL     OW 9962   6.885   5.143   8.100  0.4543 -0.0053  0.3630
33665SOL    HW1 9963   6.862   5.228   8.139  0.7374  0.0481  0.4199
33665SOL    HW2 9964   6.981   5.147   8.091  0.3317  0.2805 -1.0244
33666SOL     OW 9965   7.697   5.461   5.384  0.2657 -0.1661 -0.3584
33666SOL    HW1 9966   7.702   5.445   5.479  0.6159  0.0436 -0.3362
33666SOL    HW2 9967   7.697   5.374   5.345 -0.2187 -0.2617 -0.1539
33667SOL     OW 9968   0.588   2.233   0.060 -0.4525 -0.4478  0.0644
33667SOL    HW1 9969   0.498   2.243   0.027 -0.5842 -2.1743 -0.2226
33667SOL    HW2 9970   0.633   2.184  -0.009  0.6431  0.1709  0.3265
33668SOL     OW 9971   7.255  11.937   9.455  0.1509 -0.6156  0.2675
33668SOL    HW1 9972   7.185  11.968   9.512 -0.4542 -0.0315 -0.7657
33668SOL    HW2 9973   7.312  12.012   9.443  0.2333 -0.7093  0.0557
33669SOL     OW 9974   5.733  12.396   6.916 -0.4705 -0.3837  0.2525
33669SOL    HW1 9975   5.725  12.302   6.899  1.2415 -0.5454  0.2367
33669SOL    HW2 9976   5.644  12.424   6.939 -1.2027 -1.7881 -0.7903
33670SOL     OW 9977   9.599   8.643  11.165 -0.1342  0.0346  0.2622
33670SOL    HW1 9978   9.547   8.722  11.177 -0.5858 -0.6250  3.4676
33670SOL    HW2 9979   9.548   8.590  11.103 -1.8893  0.5876  1.1845
33671SOL     OW 9980   2.766  10.556   2.204  0.0232 -0.3130 -0.4384
33671SOL    HW1 9981   2.707  10.538   2.131  0.9663  2.1417 -1.9604
33671SOL    HW2 9982   2.739  10.495   2.273 -1.8717 -1.7347 -2.3066
33672SOL     OW 9983   1.434   6.018   1.968  0.1143  0.6600  0.3633
33672SOL    HW1 9984   1.441   6.039   1.875  1.5810 -0.5648  0.1538
33672SOL    HW2 9985   1.490   6.082   2.011 -1.1738  1.7201  0.5125
33673SOL     OW 9986   0.452   8.414   1.416  0.3430  0.1306  0.1282
33673SOL    HW1 9987   0.384   8.481   1.420  0.1278 -0.1306  0.9483
33673SOL    HW2 9988   0.495   8.418   1.501  1.8180  0.7612 -0.6110
33674SOL     OW 9989  10.927   9.688   9.804  0.5572 -0.5865 -0.2411
33674SOL    HW1 9990  10.924   9.622   9.734  1.6286 -0.5610 -0.3238
33674SOL    HW2 9991  10.860   9.752   9.779  0.9874 -0.5327 -1.2955
33675SOL     OW 9992  10.914   1.292   6.653  0.3917  0.3322  0.6472
33675SOL    HW1 9993  10.975   1.345   6.601  0.9095 -2.5946 -2.1280
33675SOL    HW2 9994  10.832   1.340   6.651  1.4457  2.2238  0.5517
33676SOL     OW 9995  12.491   5.780   5.948 -0.2632  0.0932  0.3139
33676SOL    HW1 9996  12.561   5.835   5.984  0.1782 -0.9019  1.0199
33676SOL    HW2 9997  12.509   5.775   5.854 -0.0347  0.7442  0.3170
33677SOL     OW 9998   2.937   0.190   6.886 -0.1156 -0.4407  0.1345
33677SOL    HW1 9999   2.843   0.197   6.902 -0.4995 -1.3098 -1.4770
33677SOL    HW210000   2.962   0.278   6.858 -0.4006 -0.1597  0.7356
33678SOL     OW10001  10.235   1.234   5.132  0.3397  0.5226  0.4394
33678SOL    HW110002  10.197   1.147   5.118  0.1493  0.5003  1.0332
33678SOL    HW210003  10.283   1.226   5.215  1.3128  0.6661 -0.0961
33679SOL     OW10004   8.213   1.964   0.404  0.2836 -0.4966 -0.2830
33679SOL    HW110005   8.143   1.935   0.344  0.1060 -1.6575  0.4468
33679SOL    HW210006   8.166   1.996   0.481  0.5335 -0.2765 -0.2242
33680SOL     OW10007   1.481   0.897  10.392  0.5441 -0.0844  0.2356
33680SOL    HW110008   1.419   0.825  10.404  2.2882 -1.5816  0.7680
33680SOL    HW210009   1.541   0.889  10.467  2.2215  0.3652 -1.0047
33681SOL     OW10010   0.226   2.801  10.134  0.2274 -0.3649  0.3706
33681SOL    HW110011   0.220   2.706  10.136 -1.3746 -0.2912 -0.0556
33681SOL    HW210012   0.177   2.827  10.056  3.0053  0.6734 -1.1744
33682SOL     OW10013   6.805   9.380  11.762  0.0242  0.1832  0.2341
33682SOL    HW110014   6.717   9.416  11.767  0.7209  1.9600  0.4110
33682SOL    HW210015   6.815   9.331  11.844 -0.7432  0.1039  0.2870
33683SOL     OW10016  10.900   7.848   1.775  0.5568 -0.9293  0.8238
33683SOL    HW110017  10.864   7.831   1.862 -1.4514  0.5819  0.3692
33683SOL    HW210018  10.833   7.901   1.732  3.3675  2.1318 -0.1291
33684SOL     OW10019   8.315   0.006   1.935 -0.2463 -0.1496  0.0765
33684SOL    HW110020   8.240  -0.048   1.959  0.3503  0.0539  2.7135
33684SOL    HW210021   8.389  -0.054   1.936  0.0784  0.2553  0.7180
33685SOL     OW10022   0.999  12.398   1.049  0.1328  0.0525  0.1699
33685SOL    HW110023   1.071  12.409   1.111  0.4265  1.6123 -0.3931
33685SOL    HW210024   1.011  12.310   1.013  1.5513  0.1482  0.3480
33686SOL     OW10025  11.796  11.224  12.024 -0.1666 -0.0681 -0.0712
33686SOL    HW110026  11.730  11.231  11.955 -1.8209  0.1084  1.4494
33686SOL    HW210027  11.874  11.264  11.986 -1.5506  1.7135 -1.2170
33687SOL     OW10028  10.105  11.623   3.652  0.3906 -0.0300  0.7224
33687SOL    HW110029  10.142  11.535   3.647 -1.7717 -1.0804  1.9720
33687SOL    HW210030  10.116  11.658   3.564 -1.5319 -2.8044 -0.7757
33688SOL     OW10031   5.053  10.128   7.525  0.2829  0.3359  0.0781
33688SOL    HW110032   5.090  10.074   7.596  2.7435  2.3103  0.4337
33688SOL    HW210033   5.123  10.133   7.460 -1.5888 -0.6377 -2.1596
33689SOL     OW10034   7.930   0.655   9.525  0.0694 -0.3003  0.5263
33689SOL    HW110035   8.018   0.689   9.508  0.0269 -0.3787  0.1541
33689SOL    HW210036   7.945   0.569   9.564  0.1689 -0.0419  1.0758
33690SOL     OW10037  11.748   2.020   7.521  0.7120 -0.0650 -0.1474
33690SOL    HW110038  11.717   1.930   7.523  0.5032  0.0201  0.9929
33690SOL    HW210039  11.673   2.071   7.489  0.9418 -0.3316 -1.1254
33691SOL     OW10040   9.097  11.666   5.924 -0.5470 -0.3775 -0.1611
33691SOL    HW110041   9.168  11.634   5.867 -1.0171 -0.3236 -0.7854
33691SOL    HW210042   9.101  11.610   6.001  0.3416 -0.2124 -0.0753
33692SOL     OW10043  11.669   6.170   3.390  0.2322 -0.0445  0.3771
33692SOL    HW110044  11.659   6.233   3.461 -0.3702 -0.1941  0.4316
33692SOL    HW210045  11.749   6.197   3.344 -0.3111  1.0743  0.0673
33693SOL     OW10046   4.861  10.336   0.206  0.4550  0.0138 -0.2902
33693SOL    HW110047   4.813  10.378   0.278  0.8011  3.6863 -1.9880
33693SOL    HW210048   4.949  10.372   0.211  1.3334 -1.9087 -0.9080
33694SOL     OW10049   5.938   4.567   1.553  0.1389 -0.7803  0.5674
33694SOL    HW110050   5.979   4.612   1.627 -0.1034  1.3687 -0.5308
33694SOL    HW210051   5.991   4.593   1.477 -0.2836 -2.0428 -0.1811
33695SOL     OW10052  11.246   0.856   2.140 -0.7297  0.3464  0.1283
33695SOL    HW110053  11.167   0.876   2.089 -0.1438  2.2950 -0.0826
33695SOL    HW210054  11.260   0.933   2.194 -0.3584 -0.9841  2.0284
33696SOL     OW10055  11.379   2.230  12.565 -0.6245 -0.3183  0.0555
33696SOL    HW110056  11.304   2.255  12.620  1.8894  2.0085  2.7219
33696SOL    HW210057  11.404   2.311  12.521 -1.3482 -1.7129 -3.1972
33697SOL     OW10058   6.936   1.888   4.518 -0.4572  0.0786  0.0126
33697SOL    HW110059   6.999   1.932   4.576 -0.5217 -0.8142  0.7881
33697SOL    HW210060   6.990   1.854   4.446 -0.1904  0.1078  0.1972
33698SOL     OW10061   9.331   4.364   4.026 -0.6117  0.2242  0.0934
33698SOL    HW110062   9.303   4.452   4.051  0.1784  0.8010 -0.9648
33698SOL    HW210063   9.331   4.366   3.930 -0.9706 -1.0664  0.0499
33699SOL     OW10064   3.626   7.681  10.576 -0.4767 -0.0241 -0.2455
33699SOL    HW110065   3.589   7.660  10.490 -1.3370 -1.1121  0.3636
33699SOL    HW210066   3.719   7.660  10.567 -0.8007 -1.4201 -0.5229
33700SOL     OW10067   2.007   7.383   7.971 -0.1372  0.5816 -0.3281
33700SOL    HW110068   1.915   7.399   7.951 -0.7450 -0.3820  1.5228
33700SOL    HW210069   2.032   7.457   8.027 -0.2630  0.0247  0.4809
33701SOL     OW10070   8.150   5.133   2.678 -0.0305 -0.2701 -0.0334
33701SOL    HW110071   8.139   5.228   2.671 -0.1901  0.0133  2.9120
33701SOL    HW210072   8.071   5.102   2.721 -0.5058 -1.9960 -1.9657
33702SOL     OW10073   6.727   5.028   2.457 -0.3906 -0.1784  0.0029
33702SOL    HW110074   6.717   5.004   2.365 -0.2251  2.4012 -0.7421
33702SOL    HW210075   6.810   5.075   2.461 -1.7497  2.2899  0.8613
33703SOL     OW10076   0.015   8.251  10.766  0.2394  0.7528  0.2290
33703SOL    HW110077   0.101   8.241  10.725 -0.6153  0.3042 -1.5569
33703SOL    HW210078  -0.014   8.162  10.784 -0.9506  0.6977 -1.6737
33704SOL     OW10079   3.686   6.894   9.644  0.2069  0.0202  0.2866
33704SOL    HW110080   3.655   6.915   9.732  0.1683 -0.7152  0.4561
33704SOL    HW210081   3.607   6.896   9.590  0.2555  0.6345  0.2330
33705SOL     OW10082   7.979   0.382   8.449 -0.4464  0.0397  0.0366
33705SOL    HW110083   7.974   0.448   8.519  0.5070  0.1780 -0.0227
33705SOL    HW210084   8.070   0.354   8.448  0.1586  1.7194 -2.6618
33706SOL     OW10085   1.810   2.502   8.213  0.1108 -0.3217  0.2975
33706SOL    HW110086   1.842   2.547   8.136  1.6652  1.3613  1.8199
33706SOL    HW210087   1.889   2.469   8.257 -0.4312  0.8911  2.3624
33707SOL     OW10088   7.163  10.749  11.691  0.4702 -0.1348 -0.1412
33707SOL    HW110089   7.135  10.682  11.753 -0.4828 -1.5352 -1.9807
33707SOL    HW210090   7.091  10.754  11.628  1.9862  0.1957 -1.9232
33708SOL     OW10091  10.303   1.333   9.988 -0.7108  0.1761  0.0039
33708SOL    HW110092  10.268   1.329   9.899 -2.0785  0.2310  0.5133
33708SOL    HW210093  10.334   1.423   9.997  1.4551 -0.3962 -1.1095
33709SOL     OW10094   7.227   3.882   9.031 -0.5944 -0.3218  0.0280
33709SOL    HW110095   7.155   3.820   9.036  0.6924 -1.9103 -0.1992
33709SOL    HW210096   7.265   3.870   8.944  0.1529  0.2444  0.2551
33710SOL     OW10097  10.871   6.435   4.570 -0.4036 -0.3644  0.5166
33710SOL    HW110098  10.865   6.523   4.532 -1.2573 -0.5999  0.0871
33710SOL    HW210099  10.956   6.434   4.614 -0.0714  0.4335 -0.0815
33711SOL     OW10100   0.585   2.030   1.090  0.1906 -0.2144  0.3145
33711SOL    HW110101   0.530   1.987   1.156 -0.5513  1.0456  0.5582
33711SOL    HW210102   0.526   2.049   1.018  1.0399 -1.7427 -0.8354
33712SOL     OW10103   9.553  11.512   4.671  0.1169  0.0982 -0.2220
33712SOL    HW110104   9.510  11.437   4.631  1.4799 -0.6015 -0.4266
33712SOL    HW210105   9.499  11.533   4.747  0.5553 -2.0810  0.7586
33713SOL     OW10106   0.263   2.622   9.142 -0.0312  0.3119 -0.1170
33713SOL    HW110107   0.355   2.614   9.117 -0.0715 -1.4630  0.2399
33713SOL    HW210108   0.215   2.605   9.061 -0.1100 -3.5304  0.5786
33714SOL     OW10109   3.392   2.473   1.057 -0.3388  0.0372  0.1330
33714SOL    HW110110   3.374   2.387   1.096 -0.6540  0.1651  0.2691
33714SOL    HW210111   3.375   2.461   0.964  1.2620 -0.5166 -0.1380
33715SOL     OW10112  12.236   0.062  10.626 -0.2202  0.5576  0.0256
33715SOL    HW110113  12.300   0.096  10.688  1.1932  0.3126 -1.2419
33715SOL    HW210114  12.225  -0.030  10.651  2.1790 -0.2161 -1.4596
33716SOL     OW10115   8.462   0.446   6.621  0.3406  0.0412  0.4192
33716SOL    HW110116   8.555   0.463   6.636  0.5631  0.2148 -1.0002
33716SOL    HW210117   8.447   0.362   6.664  1.5365 -0.7279 -0.5720
33717SOL     OW10118   4.302  12.237   5.825  0.0697 -0.3096 -0.6889
33717SOL    HW110119   4.208  12.234   5.845  0.4504  1.4569  1.8885
33717SOL    HW210120   4.343  12.181   5.892  0.9900  0.8203 -0.2673
33718SOL     OW10121   6.907  10.898  11.199  1.2883 -0.0227  0.0635
33718SOL    HW110122   6.960  10.951  11.138  0.7891 -0.7152 -0.9895
33718SOL    HW210123   6.904  10.811  11.160 -1.5233  0.2349 -0.5023
33719SOL     OW10124   5.374   5.930   3.641  0.5371  0.0724  0.1236
33719SOL    HW110125   5.338   5.842   3.654 -2.8671  1.1589 -0.8889
33719SOL    HW210126   5.424   5.923   3.560 -3.6428 -0.1031 -2.7402
33720SOL     OW10127  10.250   8.391  10.824 -0.3470 -0.7235 -0.0815
33720SOL    HW110128  10.248   8.442  10.905 -0.1177 -2.1939  0.8735
33720SOL    HW210129  10.217   8.305  10.848  0.8103 -1.5501 -1.2842
33721SOL     OW10130   9.083   7.840  11.360 -0.4299  0.1934 -0.0803
33721SOL    HW110131   9.121   7.847  11.273 -1.7894 -0.5682 -0.7556
33721SOL    HW210132   9.006   7.785  11.349 -1.4505  1.2545  1.3454
33722SOL     OW10133   4.184   4.154   0.225  0.6786 -0.7565  0.1152
33722SOL    HW110134   4.168   4.161   0.130 -0.9268  1.4931  0.4649
33722SOL    HW210135   4.271   4.193   0.237  0.1863  0.5269 -0.2910
33723SOL     OW10136   0.690   9.319   4.382  0.6718  0.3180 -0.6227
33723SOL    HW110137   0.684   9.301   4.476 -3.8072  0.5270 -0.6993
33723SOL    HW210138   0.666   9.237   4.340  2.1209  0.3829 -1.6618
33724SOL     OW10139  11.344   5.954   6.053  0.1675  0.7915  0.4201
33724SOL    HW110140  11.404   5.888   6.020  0.6621  0.3562  2.0849
33724SOL    HW210141  11.302   5.990   5.975 -1.8077 -3.0058 -0.5101
33725SOL     OW10142   6.791   3.925   9.272  0.0411 -0.0485 -0.0432
33725SOL    HW110143   6.829   4.012   9.255  0.5161 -0.4649 -1.2491
33725SOL    HW210144   6.697   3.941   9.277  0.1126  0.5327 -0.3644
33726SOL     OW10145   2.188   5.159  10.041  0.3848  0.3132 -0.0548
33726SOL    HW110146   2.104   5.121  10.067  0.5388 -0.1594 -0.2525
33726SOL    HW210147   2.195   5.238  10.094  0.9437 -0.8919  1.7342
33727SOL     OW10148   5.276   6.694   6.759 -0.1019 -0.2583 -0.0289
33727SOL    HW110149   5.366   6.720   6.742  0.0033  1.3193  2.4667
33727SOL    HW210150   5.282   6.637   6.836 -1.2714  0.7213  0.8296
33728SOL     OW10151  11.211   3.651   6.473  0.4753  0.3651 -0.2392
33728SOL    HW110152  11.209   3.746   6.479 -0.7142  0.2750  1.5807
33728SOL    HW210153  11.180   3.620   6.558 -1.0349 -1.6401 -1.4089
33729SOL     OW10154   6.320  12.071   1.195  0.3076  0.5031  0.6927
33729SOL    HW110155   6.414  12.059   1.185  0.1500  0.2129 -0.6326
33729SOL    HW210156   6.282  12.030   1.117 -0.9453  0.2668  1.3918
33730SOL     OW10157   2.270   2.494   7.291  0.1033  0.2315  0.3197
33730SOL    HW110158   2.234   2.562   7.234 -1.3279  0.2068  1.1413
33730SOL    HW210159   2.259   2.529   7.380 -1.7893 -1.5249  0.8397
33731SOL     OW10160   0.536   2.298   6.549 -0.5225 -0.3291 -0.3703
33731SOL    HW110161   0.621   2.342   6.538 -1.7061  2.1964  0.0146
33731SOL    HW210162   0.513   2.269   6.461  0.5683 -0.7451 -0.5395
33732SOL     OW10163  10.678   2.766   3.774  0.2433  0.2222 -0.1439
33732SOL    HW110164  10.700   2.835   3.712 -0.2518 -0.1101 -0.6903
33732SOL    HW210165  10.681   2.685   3.723  2.9233 -0.4619  0.9280
33733SOL     OW10166   4.911   4.960  10.780  0.2659  0.6741 -0.4483
33733SOL    HW110167   4.840   5.004  10.827 -0.6400 -1.1731  0.0215
33733SOL    HW210168   4.991   4.990  10.823 -0.3388  1.5778  0.0710
33734SOL     OW10169   6.591   4.660  12.192  0.1840 -0.5488  0.5122
33734SOL    HW110170   6.648   4.592  12.230  4.1460  0.5928 -2.6677
33734SOL    HW210171   6.635   4.742  12.213 -0.7554  0.4953 -1.3489
33735SOL     OW10172   0.827   1.347   2.872  0.2764 -0.0238 -0.1855
33735SOL    HW110173   0.856   1.348   2.963 -2.0706  0.2810  0.6297
33735SOL    HW210174   0.871   1.272   2.834 -0.9045 -1.9788  2.0407
33736SOL     OW10175   8.314   1.542   8.681 -0.0512  0.3511  0.8926
33736SOL    HW110176   8.354   1.557   8.595  1.0421  1.6311  1.5855
33736SOL    HW210177   8.360   1.601   8.740  1.1108 -2.3504  2.9345
33737SOL     OW10178   3.050  12.300   8.847  0.1396 -0.2565 -0.3405
33737SOL    HW110179   3.074  12.236   8.780  1.7870  0.9508 -0.9621
33737SOL    HW210180   3.077  12.260   8.930  1.7596 -0.1406 -0.7811
33738SOL     OW10181  10.519   5.011   1.537  0.4897  0.4072  0.5052
33738SOL    HW110182  10.440   4.972   1.499  0.4087  1.8448 -0.9587
33738SOL    HW210183  10.546   4.950   1.605 -1.0099 -0.8918  0.0061
33739SOL     OW10184  11.278   5.975   8.768  0.2682  0.0927  0.3498
33739SOL    HW110185  11.341   5.905   8.754 -1.1030 -1.2995  0.8139
33739SOL    HW210186  11.283   6.027   8.688 -0.8773 -2.3890 -1.4723
33740SOL     OW10187   8.508   9.490   6.399  0.4226  0.3667  0.3455
33740SOL    HW110188   8.489   9.412   6.452 -1.5097  1.2761  1.0665
33740SOL    HW210189   8.559   9.457   6.325 -1.7513 -1.8720 -0.2707
33741SOL     OW10190  11.811   3.505   4.916 -0.5454 -0.1681  0.3514
33741SOL    HW110191  11.793   3.480   4.825 -2.2793  0.9526  0.3426
33741SOL    HW210192  11.883   3.569   4.910 -0.5394 -0.2254 -0.2136
33742SOL     OW10193   4.250  11.235  11.897  0.2524 -0.1500 -0.3058
33742SOL    HW110194   4.231  11.302  11.963  0.0979 -0.6765  0.1966
33742SOL    HW210195   4.164  11.205  11.868  0.3109  0.6141 -1.3205
33743SOL     OW10196   8.842   1.270   7.964  0.0529  0.1706  0.9201
33743SOL    HW110197   8.818   1.229   8.047  0.0098  0.1705  0.9073
33743SOL    HW210198   8.771   1.247   7.904 -1.3866  2.4695  1.6076
33744SOL     OW10199   2.811   9.544  11.484 -0.4220  0.0593  0.4133
33744SOL    HW110200   2.897   9.507  11.503  0.1159  0.6728 -0.7358
33744SOL    HW210201   2.751   9.470  11.492  0.1430 -0.2958  1.6018
33745SOL     OW10202   8.077   0.977   9.667  0.1830 -0.5390 -0.5187
33745SOL    HW110203   8.067   0.902   9.726  1.4059 -0.1927  0.1502
33745SOL    HW210204   7.999   1.030   9.681  0.2819 -0.6514  0.5192
33746SOL     OW10205   5.737   6.310   4.199 -0.2296 -0.2978  0.5201
33746SOL    HW110206   5.795   6.236   4.220 -0.4288 -0.5587  0.1452
33746SOL    HW210207   5.729   6.358   4.282  1.3141  0.3048  0.3530
33747SOL     OW10208   4.778  11.232   6.595  0.1580 -0.2574  0.0838
33747SOL    HW110209   4.781  11.310   6.650  1.9460  1.1096 -1.7700
33747SOL    HW210210   4.870  11.207   6.583 -0.1664 -0.6550 -1.9748
33748SOL     OW10211   7.628   9.561   7.377  0.3400 -0.5556  0.0220
33748SOL    HW110212   7.691   9.523   7.315  0.2894 -0.3538 -0.1551
33748SOL    HW210213   7.678   9.574   7.458  0.4149 -0.7924  0.0125
33749SOL     OW10214   9.406   3.096   8.765  0.0562  0.6500  0.3523
33749SOL    HW110215   9.453   3.118   8.846 -0.9551  1.7143  0.6832
33749SOL    HW210216   9.380   3.004   8.777  1.9528  0.0569  0.1817
33750SOL     OW10217   7.001   1.066   5.894 -0.0372 -0.8286 -0.2766
33750SOL    HW110218   7.064   1.020   5.838 -0.3147 -1.3132 -0.1894
33750SOL    HW210219   7.018   1.034   5.982 -0.0212 -0.5285 -0.1683
33751SOL     OW10220   4.889   8.750   4.624 -0.4943  0.7633 -0.0411
33751SOL    HW110221   4.879   8.761   4.529  0.1980 -0.1246 -0.2343
33751SOL    HW210222   4.920   8.660   4.634  1.2317  1.4167  0.9075
33752SOL     OW10223   7.920   8.274   4.680  0.3784  0.6220  0.1624
33752SOL    HW110224   7.853   8.223   4.726  0.0620 -0.6208 -1.5952
33752SOL    HW210225   7.955   8.215   4.614  0.8909  2.2811 -1.1378
33753SOL     OW10226   9.101   5.495   6.771 -0.7066  0.1861 -0.2065
33753SOL    HW110227   9.122   5.528   6.858  0.3589 -2.0340  0.4542
33753SOL    HW210228   9.006   5.504   6.764 -0.8787 -0.0338  1.3980
33754SOL     OW10229   0.704   2.898  10.228 -0.0242 -0.1551  0.1081
33754SOL    HW110230   0.750   2.954  10.166 -0.4719  0.6755  0.5059
33754SOL    HW210231   0.636   2.954  10.265 -1.4586 -1.3508 -0.5515
33755SOL     OW10232   1.982   0.557   8.026 -0.4261 -0.6195 -0.1915
33755SOL    HW110233   2.029   0.626   7.979 -0.6191 -0.3417  0.0177
33755SOL    HW210234   1.904   0.541   7.973 -0.3230 -0.7590 -0.3004
33756SOL     OW10235   7.540   3.291   6.315  0.1762  0.1079  0.2484
33756SOL    HW110236   7.478   3.288   6.387 -0.8379 -0.5844 -0.6287
33756SOL    HW210237   7.555   3.384   6.300  0.1887  0.2624  1.1638
33757SOL     OW10238   5.191   0.071   6.971 -0.1314 -0.1340 -0.0723
33757SOL    HW110239   5.112   0.109   6.933 -0.1642  0.1108  0.2356
33757SOL    HW210240   5.240   0.146   7.005  0.4911 -0.2327 -0.7314
33758SOL     OW10241   5.618   2.651   7.341 -0.2743 -0.4342 -0.6706
33758SOL    HW110242   5.578   2.569   7.368  0.2288 -0.4034  0.1899
33758SOL    HW210243   5.686   2.668   7.406  0.5754 -0.0537 -1.6330
33759SOL     OW10244   5.089   6.531   4.835  0.6625 -0.0808 -0.1714
33759SOL    HW110245   5.045   6.580   4.766  0.1142  0.4859  0.5724
33759SOL    HW210246   5.180   6.561   4.831  0.4743  0.5005 -0.1613
33760SOL     OW10247   2.625   2.362   8.593  0.1598  0.5106 -0.3569
33760SOL    HW110248   2.616   2.361   8.689  0.3833  1.0482 -0.3288
33760SOL    HW210249   2.540   2.332   8.562 -0.1298  0.9378  0.0026
33761SOL     OW10250   2.836   0.672   4.579 -0.0718  0.0482 -0.6246
33761SOL    HW110251   2.901   0.720   4.529 -0.6625  1.5137 -0.0536
33761SOL    HW210252   2.884   0.599   4.618  1.0091  0.5601 -0.9773
33762SOL     OW10253   8.754   8.358   9.169 -0.2987  0.0217  0.3018
33762SOL    HW110254   8.826   8.314   9.215  0.1966  0.8328  0.3108
33762SOL    HW210255   8.795   8.397   9.092 -0.5061  1.4407  0.8849
33763SOL     OW10256   7.092   6.880   2.259 -0.3958  0.2042  0.6714
33763SOL    HW110257   7.095   6.798   2.210  0.2383 -0.6703  2.0980
33763SOL    HW210258   7.004   6.915   2.244 -0.1834  0.0472 -1.1444
33764SOL     OW10259   4.889   2.779   0.513  0.2373 -0.4879  0.4019
33764SOL    HW110260   4.861   2.846   0.450  0.8975 -2.1082 -1.7533
33764SOL    HW210261   4.984   2.789   0.518  0.2629 -0.8119  0.5756
33765SOL     OW10262  11.365   8.301  12.222  0.0711  0.0338  0.4385
33765SOL    HW110263  11.371   8.375  12.282  2.2531  3.3217 -3.3455
33765SOL    HW210264  11.271   8.289  12.207 -0.4074  0.5905  2.6857
33766SOL     OW10265   6.134   6.600   6.044  0.0480 -0.6531 -0.9559
33766SOL    HW110266   6.174   6.684   6.021  0.5952 -0.7294 -0.3126
33766SOL    HW210267   6.141   6.547   5.965 -0.8235  0.0956 -1.5508
33767SOL     OW10268   9.967  11.998  10.246  0.3510  0.2577 -0.0334
33767SOL    HW110269   9.872  11.990  10.249  0.3296 -0.2039 -1.2541
33767SOL    HW210270   9.983  12.086  10.211  0.3591  0.1452 -0.3156
33768SOL     OW10271   2.404  11.596   6.143 -0.1461 -0.5182  0.1505
33768SOL    HW110272   2.351  11.664   6.185 -0.0126 -1.3729  1.8161
33768SOL    HW210273   2.447  11.551   6.216  1.4632 -1.0138 -1.0338
33769SOL     OW10274   4.890  12.032   9.917 -0.5893 -0.4227  0.2074
33769SOL    HW110275   4.912  11.939   9.926 -1.0003 -0.4443  1.0825
33769SOL    HW210276   4.926  12.057   9.832 -2.0402 -1.8374 -0.8971
33770SOL     OW10277   4.665  10.478   6.838  0.3479 -0.4075  0.3237
33770SOL    HW110278   4.679  10.383   6.840 -0.8716 -0.6981 -1.8475
33770SOL    HW210279   4.739  10.512   6.790  1.0264 -0.1620  1.4998
33771SOL     OW10280   8.070   0.708   0.592 -0.1805 -0.4138  0.5155
33771SOL    HW110281   8.138   0.728   0.656  0.0838  4.3851 -0.9237
33771SOL    HW210282   8.116   0.699   0.509 -1.0895  1.4136 -0.2360
33772SOL     OW10283   2.868   0.396   4.177  0.6723  0.2294 -0.0561
33772SOL    HW110284   2.802   0.438   4.122 -0.2263  0.6914  1.3176
33772SOL    HW210285   2.885   0.312   4.134 -0.6004  0.2321 -0.6010
33773SOL     OW10286  10.828  11.505   2.008 -0.0828 -0.1185  1.0012
33773SOL    HW110287  10.732  11.509   2.004 -0.1117 -0.4534  1.2578
33773SOL    HW210288  10.850  11.539   2.095  0.0209 -0.1767  0.9981
33774SOL     OW10289  12.562   5.059   7.641  0.8143 -0.1283  0.0757
33774SOL    HW110290  12.595   5.005   7.569  0.1758  0.7516 -0.9017
33774SOL    HW210291  12.542   4.996   7.711  2.4451 -0.9011 -0.1013
33775SOL     OW10292   2.674   0.302   3.088 -0.3661 -0.0001  0.5076
33775SOL    HW110293   2.701   0.297   2.996 -1.1436 -0.3234  0.2870
33775SOL    HW210294   2.721   0.230   3.131  1.1187  1.0142  0.6842
33776SOL     OW10295   5.599   7.099   5.813  0.0634  0.0835 -0.3594
33776SOL    HW110296   5.645   7.017   5.793 -1.0719 -0.2142 -1.9839
33776SOL    HW210297   5.636   7.128   5.896  1.5858 -1.2791 -0.5112
33777SOL     OW10298   0.475   9.950   3.432  0.2634 -0.1721  0.2318
33777SOL    HW110299   0.519  10.035   3.440  0.4798 -0.3003  0.4025
33777SOL    HW210300   0.545   9.885   3.443  0.8518 -0.4249 -3.5042
33778SOL     OW10301   4.331   3.482   7.171 -0.0185  0.9812  0.6374
33778SOL    HW110302   4.296   3.493   7.083  1.0852  0.3441  0.0992
33778SOL    HW210303   4.254   3.483   7.228 -0.6899  2.0665 -0.2549
33779SOL     OW10304   4.903   2.851  10.479  0.3893 -0.7413  0.0560
33779SOL    HW110305   4.940   2.781  10.425  3.7744  1.0066 -0.1548
33779SOL    HW210306   4.824   2.879  10.433 -1.0249 -4.2257  0.0954
33780SOL     OW10307  11.103  10.802   6.869  0.4944  0.2325 -0.0528
33780SOL    HW110308  11.018  10.845   6.864  0.8852  1.0020 -0.1772
33780SOL    HW210309  11.086  10.721   6.918 -0.2573  0.4941  0.1327
33781SOL     OW10310   6.574   4.107   2.673 -0.0198  0.2913 -1.1071
33781SOL    HW110311   6.492   4.157   2.675 -1.1313 -1.4473  0.0471
33781SOL    HW210312   6.638   4.164   2.716 -1.2382  0.7215  0.2006
33782SOL     OW10313   0.942   9.974   1.694 -0.1273 -0.3258  0.2808
33782SOL    HW110314   0.940   9.981   1.790  2.2382  0.1245  0.3451
33782SOL    HW210315   0.896  10.052   1.664 -0.2515 -0.0894  1.0499
33783SOL     OW10316   5.333   8.742  12.113 -0.0998 -0.0614  0.3776
33783SOL    HW110317   5.321   8.746  12.018  1.2213 -1.6015  0.1119
33783SOL    HW210318   5.392   8.815  12.133 -1.2526  0.9567  0.2128
33784SOL     OW10319   6.178  12.130   7.985 -0.2814  0.1160 -0.1382
33784SOL    HW110320   6.221  12.088   8.059 -0.3930  0.4194  0.1004
33784SOL    HW210321   6.243  12.127   7.914  0.6866  1.8215  0.6131
33785SOL     OW10322  10.821   4.328   6.853  0.3799  0.0958  0.4268
33785SOL    HW110323  10.751   4.362   6.908  0.1171 -0.4498  0.4322
33785SOL    HW210324  10.782   4.254   6.806  0.9363 -0.1854  0.3990
33786SOL     OW10325   4.651   8.066   8.425 -0.3682  0.5083  0.1571
33786SOL    HW110326   4.560   8.036   8.423 -0.4141  0.4778  1.6466
33786SOL    HW210327   4.645   8.160   8.441 -0.1445  0.6305 -0.4555
33787SOL     OW10328   6.733   1.463   4.087 -0.3424 -0.8775 -0.6962
33787SOL    HW110329   6.718   1.542   4.139 -1.8514 -1.0303 -0.8723
33787SOL    HW210330   6.743   1.393   4.152  1.0219 -0.5709 -0.5390
33788SOL     OW10331   0.714  11.849   5.668 -0.1876  0.1850 -0.7948
33788SOL    HW110332   0.707  11.876   5.759  2.5855 -0.8473 -0.1915
33788SOL    HW210333   0.691  11.927   5.618  0.0579  1.3236  0.8072
33789SOL     OW10334  10.461   4.118   0.821 -0.1616 -0.0317  0.6782
33789SOL    HW110335  10.382   4.133   0.874 -0.5206 -0.9153  0.4141
33789SOL    HW210336  10.441   4.039   0.771  0.0953  0.8759 -0.9239
33790SOL     OW10337   1.173   2.177   8.982 -0.4087  0.3570  0.0870
33790SOL    HW110338   1.197   2.107   9.043 -1.6844 -0.8753 -0.7662
33790SOL    HW210339   1.139   2.247   9.038  1.9587  0.8454  1.0449
33791SOL     OW10340   4.761   5.477   1.909 -0.3187  0.2138 -0.5504
33791SOL    HW110341   4.822   5.416   1.868  0.9717  0.4222  0.9632
33791SOL    HW210342   4.812   5.519   1.978 -1.6510  1.8153 -0.4908
33792SOL     OW10343   7.421   7.550   2.153 -0.3062  0.0362 -0.2728
33792SOL    HW110344   7.424   7.456   2.132  1.8742 -0.3195  1.2472
33792SOL    HW210345   7.396   7.553   2.245  0.4485  0.8937 -0.0832
33793SOL     OW10346   7.753   2.260  11.781 -0.0787  0.1632 -0.5495
33793SOL    HW110347   7.664   2.225  11.790 -0.9405  2.2847 -0.0964
33793SOL    HW210348   7.773   2.250  11.688 -1.5629  1.2620 -1.0364
33794SOL     OW10349   0.335   9.324  10.197 -0.0575 -0.4485 -0.5569
33794SOL    HW110350   0.398   9.344  10.128 -0.7719 -0.2206 -1.1573
33794SOL    HW210351   0.348   9.231  10.216  1.1097 -0.1964  0.0168
33795SOL     OW10352   8.511   3.007   0.094  0.4747 -0.5943 -0.3891
33795SOL    HW110353   8.572   3.073   0.062 -0.9661  0.6319 -0.6980
33795SOL    HW210354   8.466   3.049   0.167  0.0203 -1.4925 -0.1358
33796SOL     OW10355   2.598   5.261   1.376  0.0872  0.4532 -0.3271
33796SOL    HW110356   2.630   5.343   1.413 -0.7628  0.7074 -0.1219
33796SOL    HW210357   2.668   5.198   1.392  0.1961  0.8159  0.7455
33797SOL     OW10358   0.506   4.206   2.944  0.0461 -0.2078 -0.0590
33797SOL    HW110359   0.442   4.152   2.898  0.2190  0.4458 -1.0930
33797SOL    HW210360   0.456   4.246   3.016 -0.4623 -0.4656 -0.2644
33798SOL     OW10361   4.476   1.905   2.677 -0.3559 -0.1144  0.3592
33798SOL    HW110362   4.543   1.894   2.609 -0.3015  1.4116  0.1481
33798SOL    HW210363   4.417   1.831   2.664  0.2005 -0.3871 -0.7184
33799SOL     OW10364   2.006   1.987   9.126  0.4138  0.1581 -0.1092
33799SOL    HW110365   1.968   1.935   9.197  1.2128 -0.0874  0.1579
33799SOL    HW210366   2.001   2.077   9.156  1.0848  0.0220  0.4347
33800SOL     OW10367   7.285  10.719   4.684  0.1843 -0.2996  0.4487
33800SOL    HW110368   7.235  10.788   4.729  1.8873  0.5839  1.0699
33800SOL    HW210369   7.372  10.723   4.723  0.6582 -2.0470 -0.3421
33801SOL     OW10370   5.866  11.052   1.017  0.7002  0.2688  0.4624
33801SOL    HW110371   5.836  11.106   0.944  0.2726 -0.2070  0.2745
33801SOL    HW210372   5.840  11.100   1.095 -0.9002 -0.2854  0.3059
33802SOL     OW10373   7.574   0.441   9.720 -0.0959  0.1182  0.1530
33802SOL    HW110374   7.489   0.464   9.756 -0.2172 -0.4229  0.2171
33802SOL    HW210375   7.555   0.371   9.657  0.2200  0.4411 -0.3050
33803SOL     OW10376   2.432   2.352   5.407  0.1857  0.0853  0.2319
33803SOL    HW110377   2.494   2.410   5.361  0.1241  0.1808  0.2686
33803SOL    HW210378   2.433   2.384   5.498 -1.2412  1.2422 -0.1089
33804SOL     OW10379  12.085  10.595   1.200  0.0510  0.0204 -0.2393
33804SOL    HW110380  12.089  10.508   1.158  0.3947 -0.9508  1.7193
33804SOL    HW210381  12.146  10.648   1.149  3.1051 -2.0347  0.9988
33805SOL     OW10382  12.363   7.928  11.065 -0.1213  0.2648  0.4590
33805SOL    HW110383  12.436   7.968  11.017 -2.5909  1.4981 -2.5359
33805SOL    HW210384  12.361   7.837  11.035 -0.8915  0.7129 -0.9184
33806SOL     OW10385   2.640  10.256   0.902 -0.3573  0.1174 -0.0802
33806SOL    HW110386   2.731  10.283   0.916 -0.1693 -0.2503 -0.5889
33806SOL    HW210387   2.594  10.291   0.978  0.1549  0.5598  0.0388
33807SOL     OW10388   7.971   3.222   9.475 -0.1088 -0.1923  0.1553
33807SOL    HW110389   7.990   3.129   9.491  0.3097  0.1411  1.7462
33807SOL    HW210390   7.884   3.221   9.436 -0.8886 -1.1927  1.7732
33808SOL     OW10391  10.421   4.410   9.427 -0.1877  0.1964  0.4461
33808SOL    HW110392  10.505   4.453   9.408 -1.4189  2.4343 -0.3406
33808SOL    HW210393  10.431   4.322   9.391  1.6231  0.5744 -0.1138
33809SOL     OW10394  11.888   6.921  12.418 -0.6756 -0.0049 -0.0925
33809SOL    HW110395  11.945   6.857  12.375  0.5178  0.9659 -0.0351
33809SOL    HW210396  11.823   6.868  12.465  0.0169 -1.1587 -0.3842
33810SOL     OW10397   9.923   3.875   5.242  0.0694  0.3329  0.1897
33810SOL    HW110398   9.871   3.859   5.320 -0.0516 -1.5174 -0.2120
33810SOL    HW210399   9.873   3.834   5.171 -0.9103  3.7775 -1.3001
33811SOL     OW10400  10.028   4.152   4.921  0.2162  0.3008 -0.6410
33811SOL    HW110401  10.083   4.086   4.877 -2.6456 -0.9451 -2.6413
33811SOL    HW210402  10.006   4.215   4.852 -0.6549  0.9035  0.1713
33812SOL     OW10403  10.875  11.822   6.101  0.4650 -0.0293 -0.2825
33812SOL    HW110404  10.890  11.730   6.123  0.7081  0.1723  0.4298
33812SOL    HW210405  10.827  11.820   6.018  0.1316 -0.8091 -0.0754
33813SOL     OW10406   9.784  12.374   4.491 -0.1316  0.2894  0.5282
33813SOL    HW110407   9.707  12.364   4.435  0.0842  0.8311  0.1263
33813SOL    HW210408   9.857  12.387   4.431  0.3078 -0.3678  0.9034
33814SOL     OW10409   4.906   9.198   1.354 -0.6142  0.0975  0.3684
33814SOL    HW110410   4.852   9.159   1.285  0.2010  0.9184 -0.7556
33814SOL    HW210411   4.845   9.209   1.428 -1.3900 -1.1979 -0.0491
33815SOL     OW10412   1.004   7.001   0.265  0.6336  0.2028  0.1791
33815SOL    HW110413   0.944   7.070   0.293  0.1673 -0.0754 -0.1251
33815SOL    HW210414   0.948   6.934   0.226  1.0864 -0.3341  0.4307
33816SOL     OW10415   1.699   7.445  11.244  0.2167 -0.0266 -0.0234
33816SOL    HW110416   1.613   7.470  11.209  0.5075  0.2094 -0.5824
33816SOL    HW210417   1.683   7.428  11.337 -0.1431  1.5469  0.2266
33817SOL     OW10418  11.987   4.832   8.313 -0.0351 -0.2682 -0.3067
33817SOL    HW110419  11.975   4.920   8.277 -0.6795 -0.4946 -0.6640
33817SOL    HW210420  11.917   4.823   8.378 -0.7441 -0.9619 -1.1512
33818SOL     OW10421   1.551  11.866   2.601  0.0814  0.1502  0.0631
33818SOL    HW110422   1.523  11.775   2.602  1.1444 -0.2237 -1.5660
33818SOL    HW210423   1.595  11.878   2.686  1.7730 -1.4903 -0.5116
33819SOL     OW10424   1.178   0.534  10.826 -0.5716 -0.0761  0.3940
33819SOL    HW110425   1.146   0.531  10.737 -0.0398  1.9939  0.0736
33819SOL    HW210426   1.101   0.554  10.879 -0.2956  2.7342 -0.1230
33820SOL     OW10427   0.941   8.493   8.242  0.3308  0.0925  0.1384
33820SOL    HW110428   0.978   8.506   8.155 -0.3915 -1.8599 -0.4952
33820SOL    HW210429   0.963   8.574   8.289  2.9940  0.1703 -1.0314
33821SOL     OW10430  11.176   2.623   0.231 -0.2845  0.1613 -0.4872
33821SOL    HW110431  11.196   2.641   0.323  0.0935 -0.2353 -0.4870
33821SOL    HW210432  11.089   2.660   0.218  0.5935  2.3245 -0.6071
33822SOL     OW10433   6.249   5.051   6.434  0.5708 -0.1807  0.4329
33822SOL    HW110434   6.216   5.124   6.382 -0.4339  0.5855  2.0517
33822SOL    HW210435   6.325   5.086   6.480  0.2165 -0.1869  1.0480
33823SOL     OW10436   5.126  11.597  10.727 -0.2486  0.2080 -0.2367
33823SOL    HW110437   5.089  11.593  10.638 -0.6489  0.7086 -0.1005
33823SOL    HW210438   5.081  11.527  10.774  0.6769 -0.7075 -0.6732
33824SOL     OW10439   6.730  10.857   7.543  0.0796 -0.2383  0.2914
33824SOL    HW110440   6.780  10.921   7.492 -1.9316 -0.2930 -1.9632
33824SOL    HW210441   6.669  10.818   7.479 -0.4341 -2.6674  2.0976
33825SOL     OW10442   2.133   6.603   0.110 -0.0982 -0.1235  0.2850
33825SOL    HW110443   2.138   6.693   0.078  3.6704 -0.5525 -0.7877
33825SOL    HW210444   2.217   6.588   0.153 -0.8787 -2.9670  1.0350
33826SOL     OW10445   1.573   4.174   9.010 -0.3224 -0.6467  0.0396
33826SOL    HW110446   1.495   4.143   9.056 -0.2657 -0.5792  0.1827
33826SOL    HW210447   1.540   4.243   8.952 -0.2299  0.0807  0.8248
33827SOL     OW10448  11.415   1.130   3.375  0.2443 -0.8734  0.3111
33827SOL    HW110449  11.331   1.149   3.334 -0.0109 -2.7222 -0.1164
33827SOL    HW210450  11.480   1.147   3.307 -0.1381 -3.3564 -0.8077
33828SOL     OW10451   3.986   0.226   0.262 -0.2064  0.1453 -0.0477
33828SOL    HW110452   3.913   0.271   0.305 -0.6745 -2.4675  2.1401
33828SOL    HW210453   3.955   0.211   0.172 -0.4440  3.0196 -0.5574
33829SOL     OW10454   1.868   4.731   6.848 -0.3763  0.2242 -0.3792
33829SOL    HW110455   1.783   4.775   6.855 -0.2095  0.6440 -0.9164
33829SOL    HW210456   1.930   4.801   6.830 -0.0258 -0.1728 -0.7334
33830SOL     OW10457   2.661  12.140  11.052 -0.3984 -0.4320  0.4664
33830SOL    HW110458   2.732  12.204  11.047 -1.4262  0.6659 -0.5725
33830SOL    HW210459   2.683  12.086  11.128  1.0255  0.5084  0.7564
33831SOL     OW10460   8.955   0.413  11.877  0.4693 -0.2673 -0.3930
33831SOL    HW110461   8.978   0.505  11.888 -1.8035  0.2204  0.8505
33831SOL    HW210462   8.974   0.373  11.962  1.4973 -0.9928 -0.9398
33832SOL     OW10463   5.000  10.396  10.664  0.6449  0.1557 -0.0038
33832SOL    HW110464   5.037  10.309  10.681 -0.1628 -0.1412  0.2562
33832SOL    HW210465   4.985  10.433  10.751  0.4008  0.3016 -0.1065
33833SOL     OW10466   3.439   1.356   7.712  0.0515  0.5171  0.8054
33833SOL    HW110467   3.509   1.323   7.768  2.2010  2.2361 -0.7112
33833SOL    HW210468   3.453   1.313   7.628 -0.9720  0.6021  0.5791
33834SOL     OW10469   9.471   5.194   1.622 -0.2837 -0.4214  0.3108
33834SOL    HW110470   9.500   5.173   1.711 -0.2781 -0.2950  0.3390
33834SOL    HW210471   9.531   5.262   1.593 -0.8712  0.2154  0.5612
33835SOL     OW10472   3.925   4.966   5.268  0.2511  0.1714 -0.3839
33835SOL    HW110473   3.887   4.878   5.259  0.0003  0.1017  1.0900
33835SOL    HW210474   3.871   5.021   5.212 -1.2413 -0.1857  0.6343
33836SOL     OW10475   4.375  11.133   3.246 -0.0754 -0.0212 -0.0393
33836SOL    HW110476   4.463  11.171   3.242  0.5248 -1.3695 -0.3519
33836SOL    HW210477   4.331  11.179   3.317  1.7065 -0.9402  1.7668
33837SOL     OW10478   0.917   7.128  12.392 -0.4905  0.2350  0.2749
33837SOL    HW110479   0.828   7.128  12.428 -0.5967  1.5418  0.0501
33837SOL    HW210480   0.968   7.180  12.454  0.0325 -0.1654  0.1875
33838SOL     OW10481   7.669   7.673  11.016  0.0692  0.4989 -1.0786
33838SOL    HW110482   7.603   7.741  11.028  0.5460  0.9213 -0.8360
33838SOL    HW210483   7.636   7.620  10.943  0.5759  2.0531 -2.4930
33839SOL     OW10484   9.869   5.181   9.411  0.7369 -0.1234  0.4795
33839SOL    HW110485   9.923   5.216   9.340 -0.2533  0.5998  0.0633
33839SOL    HW210486   9.927   5.120   9.457  1.2110 -1.1128 -1.3464
33840SOL     OW10487   0.921  11.499   8.847  0.0728 -0.3261  0.9102
33840SOL    HW110488   0.968  11.503   8.764 -1.7069  0.0738 -0.1293
33840SOL    HW210489   0.932  11.409   8.877  0.3867 -0.5862  0.0339
33841SOL     OW10490  10.987   9.090   4.906 -0.8569 -0.0766 -0.1305
33841SOL    HW110491  11.001   9.041   4.825 -1.8945  1.1689 -1.1215
33841SOL    HW210492  11.061   9.067   4.961  0.1719 -0.5681 -1.6367
33842SOL     OW10493   0.734   6.036   1.960 -0.0298 -0.4577  0.1350
33842SOL    HW110494   0.769   5.961   2.007 -0.7937  0.0997  1.6567
33842SOL    HW210495   0.682   5.999   1.889  0.2330 -1.3362  0.3990
33843SOL     OW10496  10.265   8.145   7.136 -0.3080  0.2530  0.2519
33843SOL    HW110497  10.217   8.127   7.055  0.9315  1.1076 -0.7031
33843SOL    HW210498  10.232   8.230   7.165  0.3080  0.6483 -0.1828
33844SOL     OW10499  11.120   2.019   3.621 -0.5442 -0.1994  0.0034
33844SOL    HW110500  11.167   1.940   3.596 -0.1186 -0.1304  0.5759
33844SOL    HW210501  11.129   2.024   3.716  2.1687  2.2011 -0.2194
33845SOL     OW10502   3.810   1.502   2.821 -0.3757  0.2265 -0.3868
33845SOL    HW110503   3.846   1.417   2.794  0.0475 -0.4817  2.1289
33845SOL    HW210504   3.871   1.566   2.784  1.1163 -0.7541  0.2631
33846SOL     OW10505   7.708   9.405   8.178 -0.4517 -0.2301  0.1078
33846SOL    HW110506   7.730   9.497   8.192 -0.2851 -0.0730 -1.1432
33846SOL    HW210507   7.771   9.357   8.232 -0.7539  0.3762  1.0349
33847SOL     OW10508   9.724  11.302   8.006  0.4821  0.3188 -0.5398
33847SOL    HW110509   9.673  11.250   8.067 -0.6446  1.0608 -0.8201
33847SOL    HW210510   9.659  11.352   7.956  1.4364  0.6969 -1.4564
33848SOL     OW10511   7.281   0.106   3.139 -0.0241 -0.0487  0.0217
33848SOL    HW110512   7.251   0.080   3.051  0.7271 -0.0121 -0.2477
33848SOL    HW210513   7.277   0.025   3.190 -0.5196 -0.0584 -0.0203
33849SOL     OW10514   5.247   9.279   6.702 -0.3390  0.5276 -0.0581
33849SOL    HW110515   5.163   9.243   6.675 -0.8435 -1.7197  3.7307
33849SOL    HW210516   5.225   9.352   6.760  0.4435  1.4215 -0.8529
33850SOL     OW10517   8.112   7.872   8.264  0.2363  0.3449 -0.3882
33850SOL    HW110518   8.205   7.872   8.287 -0.0102  0.1714  0.6806
33850SOL    HW210519   8.067   7.868   8.349 -0.7207 -1.5374 -0.9368
33851SOL     OW10520   7.874  11.095   0.277  0.1589 -0.0112 -0.3711
33851SOL    HW110521   7.850  11.057   0.192 -0.1744 -0.6526  0.0006
33851SOL    HW210522   7.849  11.028   0.341  0.0198  0.6358  0.2655
33852SOL     OW10523   1.409  10.103   7.617  0.4084  0.0672 -0.1691
33852SOL    HW110524   1.384  10.072   7.530 -0.7452 -3.3110  1.1945
33852SOL    HW210525   1.332  10.089   7.671  1.1968  1.7884  1.5276
33853SOL     OW10526   4.883   2.077   0.330 -0.1228 -0.7901  0.0449
33853SOL    HW110527   4.940   2.038   0.395  1.2482  1.6339  0.3984
33853SOL    HW210528   4.800   2.089   0.376  0.2125 -0.9290  0.7034
33854SOL     OW10529  10.676   7.890   1.080 -0.4558  0.3357  0.0271
33854SOL    HW110530  10.722   7.813   1.113  2.0704  1.3170 -0.9440
33854SOL    HW210531  10.628   7.858   1.004 -0.2778 -0.4704  0.2438
33855SOL     OW10532   3.520   2.650   1.905 -0.0579 -0.0049  0.1483
33855SOL    HW110533   3.541   2.569   1.858  0.2316 -0.0226  0.3051
33855SOL    HW210534   3.431   2.671   1.878  0.2012  0.1370 -0.6251
33856SOL     OW10535   5.851   2.110   1.103  0.7600  0.3590  0.2955
33856SOL    HW110536   5.874   2.173   1.034  1.2100  0.5709  0.6329
33856SOL    HW210537   5.876   2.025   1.066  0.8255  0.4532  0.1210
33857SOL     OW10538   8.758   4.834   7.989  0.0536 -0.1629  0.5569
33857SOL    HW110539   8.854   4.829   7.998  0.2921 -0.6859 -1.5944
33857SOL    HW210540   8.741   4.927   7.975  0.3671 -0.1718  0.0811
33858SOL     OW10541   0.390  12.472   0.810  0.0483 -0.1154 -0.1057
33858SOL    HW110542   0.317  12.428   0.854  0.0860 -1.1215 -1.0068
33858SOL    HW210543   0.467  12.451   0.862 -0.1976  0.3674  0.4566
33859SOL     OW10544   6.527   9.320   1.327  0.0379 -0.1648  0.3979
33859SOL    HW110545   6.489   9.295   1.411 -2.5582 -0.2908 -0.7027
33859SOL    HW210546   6.509   9.414   1.320  0.1491 -0.1748 -0.0616
33860SOL     OW10547   4.399   7.465   9.327  1.0469 -0.3921  0.4749
33860SOL    HW110548   4.305   7.446   9.320  0.7827  0.8902  0.3237
33860SOL    HW210549   4.441   7.382   9.306 -0.0008 -0.3959 -1.9193
33861SOL     OW10550   8.749  11.012   9.766  0.4742  0.5245 -0.4300
33861SOL    HW110551   8.821  11.037   9.824 -0.2477 -0.6173  1.0293
33861SOL    HW210552   8.709  11.095   9.740  0.6030  1.0579  1.0032
33862SOL     OW10553   7.409   2.197   7.826  0.2572 -0.1656  0.2988
33862SOL    HW110554   7.316   2.204   7.846  0.5552  1.8027  1.2125
33862SOL    HW210555   7.451   2.180   7.911  0.7404 -1.2719 -0.1364
33863SOL     OW10556  10.764   6.879   4.738 -0.3442 -0.6576  0.0548
33863SOL    HW110557  10.712   6.943   4.786  0.0353 -1.4279  1.5582
33863SOL    HW210558  10.849   6.880   4.781 -0.1312 -1.6807 -0.3083
33864SOL     OW10559  12.228   8.326   3.906  0.7186  0.1933 -0.3076
33864SOL    HW110560  12.155   8.321   3.844  0.0261  0.2027  0.4887
33864SOL    HW210561  12.226   8.416   3.938  1.4741  0.3685 -0.7327
33865SOL     OW10562   7.261   4.650   4.407 -0.0550 -0.0994  0.2244
33865SOL    HW110563   7.213   4.580   4.451 -0.9201 -0.6679 -1.5104
33865SOL    HW210564   7.193   4.713   4.382  0.3011 -0.1213 -0.8451
33866SOL     OW10565   3.441   7.773   2.291  0.4947  0.4474 -0.6058
33866SOL    HW110566   3.412   7.733   2.373  0.3418 -1.8885 -1.7190
33866SOL    HW210567   3.390   7.854   2.285 -1.0425 -0.3643  0.6122
33867SOL     OW10568   8.162   7.916   5.634  0.0569 -0.3328  0.1189
33867SOL    HW110569   8.082   7.919   5.687 -0.0344 -0.8573  0.0234
33867SOL    HW210570   8.193   7.826   5.643  1.2054  0.1273  0.9631
33868SOL     OW10571  11.638   5.908   6.436 -0.4098 -0.3813  0.2786
33868SOL    HW110572  11.559   5.879   6.480 -0.3210 -1.3256 -0.1623
33868SOL    HW210573  11.627   5.879   6.345  0.5959 -0.8795  0.2984
33869SOL     OW10574  10.782   1.732   2.726  0.2461 -0.3892  0.7473
33869SOL    HW110575  10.838   1.683   2.785  1.6614  0.4589  0.1518
33869SOL    HW210576  10.821   1.721   2.640  0.6510  1.7565  0.5933
33870SOL     OW10577   4.284   6.346  11.594 -0.0190 -0.1376 -0.2822
33870SOL    HW110578   4.282   6.332  11.499  0.2273  3.9892 -1.0866
33870SOL    HW210579   4.205   6.398  11.612  0.3034 -0.2532  1.6762
33871SOL     OW10580   6.434   1.772   1.346 -0.3599  0.5106 -0.5550
33871SOL    HW110581   6.410   1.747   1.257 -1.2863 -1.0538  0.0901
33871SOL    HW210582   6.466   1.691   1.386  2.9945  1.7942 -0.3317
33872SOL     OW10583   6.200   5.361   6.736  0.4213 -0.1759 -0.1028
33872SOL    HW110584   6.158   5.332   6.817  2.0735  1.6324  1.4872
33872SOL    HW210585   6.204   5.456   6.743  1.8587 -0.0734 -1.6533
33873SOL     OW10586   1.898   8.316   0.425 -0.3543  0.6214 -0.2315
33873SOL    HW110587   1.911   8.322   0.330 -3.2788  0.8761 -0.7219
33873SOL    HW210588   1.882   8.407   0.453  1.4777  0.6888  0.7340
33874SOL     OW10589   1.050   9.484   8.081  0.8586  0.1981 -0.5850
33874SOL    HW110590   1.013   9.398   8.058  0.2870  0.5709 -1.0945
33874SOL    HW210591   1.130   9.463   8.128  1.0884 -0.6174 -1.3076
33875SOL     OW10592   0.670   0.827   9.711 -0.1920  0.0047 -0.0627
33875SOL    HW110593   0.590   0.852   9.665 -0.6737 -1.1583  0.1064
33875SOL    HW210594   0.641   0.763   9.777  0.7987 -0.0447  0.3517
33876SOL     OW10595   1.107   6.047   6.649 -0.9019  0.5109  0.0421
33876SOL    HW110596   1.122   6.134   6.686 -0.8275 -0.2420  1.8963
33876SOL    HW210597   1.047   6.005   6.711  0.7989 -1.5212  0.4265
33877SOL     OW10598   4.408   1.673  11.071 -0.2376 -0.1393  0.0857
33877SOL    HW110599   4.452   1.635  10.996  0.3536 -0.6797  0.6925
33877SOL    HW210600   4.388   1.599  11.128 -1.9202  0.0893 -0.1481
33878SOL     OW10601  11.037   0.055   2.665  0.1054  0.0602 -0.2747
33878SOL    HW110602  11.021   0.132   2.611  0.4653  0.3342  0.0063
33878SOL    HW210603  11.046  -0.017   2.602 -2.7996 -0.2591 -0.4551
33879SOL     OW10604   2.460   2.093   7.572  0.1649 -0.2179  0.1578
33879SOL    HW110605   2.375   2.068   7.536  0.3260 -0.3025 -0.1656
33879SOL    HW210606   2.462   2.053   7.659  0.4033 -1.3011 -0.3360
33880SOL     OW10607   9.845   1.720   6.609 -0.2981  0.9235  0.1340
33880SOL    HW110608   9.875   1.654   6.672 -1.9598 -2.1255 -2.0295
33880SOL    HW210609   9.750   1.722   6.621 -0.5002  1.2197 -1.4179
33881SOL     OW10610   8.308   4.053   1.639  0.8544  0.3914  0.1286
33881SOL    HW110611   8.310   4.117   1.710 -0.5385 -1.9342  2.4266
33881SOL    HW210612   8.400   4.034   1.621  1.2287  0.3242  1.9928
33882SOL     OW10613  12.037   8.635  10.567  0.0781  0.1612  0.1905
33882SOL    HW110614  11.965   8.697  10.578  0.2617  0.4367 -0.1524
33882SOL    HW210615  12.004   8.553  10.603 -0.5902  0.1539 -0.4134
33883SOL     OW10616   9.030   2.919   6.892  0.7904  0.1553 -0.0543
33883SOL    HW110617   9.022   2.839   6.840  1.1554 -0.4668  0.8231
33883SOL    HW210618   9.119   2.950   6.874  0.1832  1.2033 -1.5258
33884SOL     OW10619  10.662  10.554   0.126 -0.2465 -0.4215  0.0163
33884SOL    HW110620  10.624  10.480   0.174  0.6252 -0.8358  0.0982
33884SOL    HW210621  10.678  10.621   0.192 -0.6073 -0.3431  0.0223
33885SOL     OW10622  10.697   9.698   6.373 -0.2120  0.4403 -0.3762
33885SOL    HW110623  10.735   9.739   6.295 -1.2480  0.5539 -0.8425
33885SOL    HW210624  10.673   9.610   6.344 -0.2240  0.3369 -0.0606
33886SOL     OW10625   7.747   2.071   2.000  0.1521  0.0413  0.2553
33886SOL    HW110626   7.736   1.985   1.960  1.9114 -1.5998  2.9806
33886SOL    HW210627   7.752   2.131   1.926  0.0725 -2.3435 -1.8277
33887SOL     OW10628  10.384   9.532  11.605  0.1090  0.6628 -0.3218
33887SOL    HW110629  10.337   9.495  11.680 -0.2401 -0.0067 -0.8603
33887SOL    HW210630  10.316   9.562  11.545  0.2716 -1.4122 -1.6604
33888SOL     OW10631  11.248   5.458   7.310 -0.2906  0.1165  0.6229
33888SOL    HW110632  11.316   5.406   7.269 -1.5550 -0.0452 -1.4154
33888SOL    HW210633  11.281   5.548   7.306 -0.0467  0.0023 -0.0831
33889SOL     OW10634   2.061   6.071   2.084  0.1581 -0.1852  0.0961
33889SOL    HW110635   2.044   6.087   1.991 -0.0489  0.7771  0.2891
33889SOL    HW210636   2.114   5.991   2.085  0.3135 -0.1101 -0.8530
33890SOL     OW10637   2.357  12.095   5.726 -0.0582  0.5416  0.2687
33890SOL    HW110638   2.434  12.038   5.728 -0.1106  0.4819  1.6799
33890SOL    HW210639   2.392  12.184   5.721  0.1543  0.5655  1.8441
33891SOL     OW10640   6.502  10.955  10.085 -0.4134 -0.8865  0.3705
33891SOL    HW110641   6.483  10.865  10.112 -0.4876 -0.8862  0.3176
33891SOL    HW210642   6.523  10.949   9.992  0.3333 -0.9598  0.5361
33892SOL     OW10643  10.577  11.943   1.981 -0.1787  0.0864  0.3044
33892SOL    HW110644  10.541  11.972   2.064 -0.3047 -0.3913  0.4205
33892SOL    HW210645  10.547  11.852   1.972  1.7790 -0.6667  0.8520
33893SOL     OW10646   1.269   3.118   3.479 -0.3921  0.1634 -0.0668
33893SOL    HW110647   1.362   3.109   3.462 -0.3155 -0.0888  0.4927
33893SOL    HW210648   1.246   3.042   3.532 -1.1486 -0.3764 -1.1435
33894SOL     OW10649   7.523   4.265   2.220 -0.2984  0.5629  0.1154
33894SOL    HW110650   7.476   4.236   2.299  2.7412  0.6608  2.1204
33894SOL    HW210651   7.522   4.360   2.225  1.3801  0.5643  1.0689
33895SOL     OW10652   3.636   5.270   5.327 -0.5815 -0.3456 -0.2207
33895SOL    HW110653   3.542   5.264   5.307 -0.5947 -0.3211 -0.1641
33895SOL    HW210654   3.654   5.192   5.380 -0.6292 -0.1994  0.0098
33896SOL     OW10655   0.103   3.389   5.035  0.1767  0.2746 -0.1829
33896SOL    HW110656   0.136   3.302   5.056 -1.0778 -0.2364 -0.2400
33896SOL    HW210657   0.178   3.447   5.048  0.8696 -0.7320  0.4373
33897SOL     OW10658  11.949   3.558   5.244 -0.3407  0.3362 -0.2055
33897SOL    HW110659  11.948   3.463   5.228  0.0140  0.1382  0.8637
33897SOL    HW210660  12.040   3.584   5.227 -0.9156  0.9279 -2.7582
33898SOL     OW10661  11.613   9.370   1.970 -0.1021  0.0730 -0.2542
33898SOL    HW110662  11.614   9.411   1.884 -0.0993  1.1824  0.2556
33898SOL    HW210663  11.520   9.352   1.987 -0.2093  0.8105 -0.0524
33899SOL     OW10664   8.688   9.437   7.768 -0.4561  0.0777 -0.1609
33899SOL    HW110665   8.653   9.526   7.764 -1.3670 -0.1721  1.5961
33899SOL    HW210666   8.776   9.447   7.803 -0.3127  0.3364 -0.5920
33900SOL     OW10667   8.182   8.967   2.082 -0.2242 -0.1202 -0.2478
33900SOL    HW110668   8.181   9.007   1.995 -1.4508  0.1696 -0.1183
33900SOL    HW210669   8.092   8.977   2.114  0.0607 -0.7751  0.8025
33901SOL     OW10670   2.398   7.234   7.218 -0.0881  0.3174  0.0209
33901SOL    HW110671   2.486   7.249   7.183  0.2516  0.8370  1.0468
33901SOL    HW210672   2.400   7.143   7.248  0.9227  1.0038  2.2199
33902SOL     OW10673   2.570   2.818  11.920  0.8763  0.1767  0.7002
33902SOL    HW110674   2.544   2.907  11.946  0.8022 -0.1357  1.7200
33902SOL    HW210675   2.570   2.821  11.824 -2.3775  0.3613  0.5903
33903SOL     OW10676   3.263  11.564   7.398  0.6966  0.5253 -0.0188
33903SOL    HW110677   3.202  11.630   7.433 -1.7132 -0.9232 -1.2046
33903SOL    HW210678   3.267  11.497   7.466  1.8825  1.1029  0.5102
33904SOL     OW10679   6.872  10.910   5.358 -0.0386  0.1834 -0.3643
33904SOL    HW110680   6.837  10.938   5.274  0.1612  0.7099 -0.2736
33904SOL    HW210681   6.907  10.823   5.342  1.7549  1.0386 -1.3152
33905SOL     OW10682  10.073   3.938   3.135 -0.0601 -0.1254 -0.6246
33905SOL    HW110683  10.141   3.992   3.094 -0.4769  0.0370 -1.1108
33905SOL    HW210684   9.998   3.945   3.076 -0.1722 -1.1181 -0.6148
33906SOL     OW10685   2.216   9.104   1.502 -0.0227  0.0531 -0.2078
33906SOL    HW110686   2.123   9.102   1.479  0.5058 -0.5133 -2.5367
33906SOL    HW210687   2.233   9.019   1.543 -0.3746 -0.1538 -0.4871
33907SOL     OW10688  11.894   4.717   6.149 -0.1764 -0.1892  0.5277
33907SOL    HW110689  11.922   4.664   6.223  2.4306  1.3891  0.8307
33907SOL    HW210690  11.927   4.671   6.072  0.3361 -0.0331  0.6479
33908SOL     OW10691   2.444   1.482   2.430 -0.3432 -0.0391  0.4888
33908SOL    HW110692   2.469   1.552   2.491 -0.3001 -1.3244  1.9993
33908SOL    HW210693   2.524   1.465   2.379 -0.9418  2.4917 -1.5162
33909SOL     OW10694   8.667   6.066   8.602  0.0617  0.0300  0.5419
33909SOL    HW110695   8.701   6.090   8.515 -0.9099  0.5749  0.3044
33909SOL    HW210696   8.597   6.003   8.584  1.2784 -1.5397  1.0645
33910SOL     OW10697   9.034  12.358   3.621 -0.4113 -0.0982  0.2350
33910SOL    HW110698   9.061  12.266   3.624  1.0187  0.2918  3.0411
33910SOL    HW210699   9.117  12.407   3.619 -1.1404  1.1674 -1.0567
33911SOL     OW10700   5.199  11.816   8.269 -0.1463  0.3480 -0.3225
33911SOL    HW110701   5.107  11.831   8.247 -0.5143  0.4112  1.1652
33911SOL    HW210702   5.240  11.797   8.185 -1.3549  1.1154 -1.1279
33912SOL     OW10703   3.104   3.124  12.301 -0.3327  0.1560  0.6392
33912SOL    HW110704   3.049   3.097  12.374 -1.5282  2.2161  0.5953
33912SOL    HW210705   3.153   3.199  12.334  1.1450 -0.5228  0.1020
33913SOL     OW10706   9.853  11.188  11.505  0.1908 -0.0747  0.6046
33913SOL    HW110707   9.846  11.228  11.592  1.8990 -0.1488  0.8202
33913SOL    HW210708   9.807  11.105  11.513  1.1767 -0.5435  1.7729
33914SOL     OW10709  10.687  10.044  10.137  0.0904  0.2198 -0.1122
33914SOL    HW110710  10.703  10.074  10.047 -0.5644 -1.4067 -0.8113
33914SOL    HW210711  10.598  10.009  10.135  0.8584 -1.9831  0.5188
33915SOL     OW10712   9.694  11.712   4.164 -0.0260 -0.3345  0.3578
33915SOL    HW110713   9.625  11.736   4.226  1.1678  2.0036  0.9104
33915SOL    HW210714   9.687  11.617   4.156 -3.3427 -0.1876  0.2919
33916SOL     OW10715   8.057  11.228   1.083  0.4976  0.4897 -0.1954
33916SOL    HW110716   7.989  11.285   1.048  0.3450  0.0455 -0.6301
33916SOL    HW210717   8.116  11.212   1.009  0.6163  0.1939 -0.0405
33917SOL     OW10718   5.861   6.607   0.359 -0.2225  0.0701  0.1820
33917SOL    HW110719   5.927   6.540   0.337  0.3657  1.0827 -1.3053
33917SOL    HW210720   5.913   6.682   0.390 -0.6662  0.7646 -0.7035
33918SOL     OW10721  11.424   0.076   4.554  0.2202  0.2174  0.2271
33918SOL    HW110722  11.427  -0.002   4.498  0.4134 -0.3288  0.9678
33918SOL    HW210723  11.465   0.145   4.503  1.3907 -0.5379  0.1174
33919SOL     OW10724   3.995   0.188  11.835 -0.4306 -0.0843  0.1520
33919SOL    HW110725   3.925   0.134  11.871 -0.5715  0.1993  0.3068
33919SOL    HW210726   4.041   0.221  11.911 -0.4200  0.1137  0.0601
33920SOL     OW10727   0.591   8.686   3.241  0.4339 -0.2414  0.1465
33920SOL    HW110728   0.685   8.683   3.261  0.3468 -0.1797  0.5711
33920SOL    HW210729   0.558   8.602   3.271  0.6836 -1.0632 -1.7433
33921SOL     OW10730  11.031   3.482   5.651  0.4445 -0.1322  0.5430
33921SOL    HW110731  11.071   3.537   5.583  1.0165 -0.2039  0.8159
33921SOL    HW210732  10.941   3.515   5.658  0.8445  0.9506  0.8797
33922SOL     OW10733   2.393   3.241   5.797  0.0426 -0.5263  0.0380
33922SOL    HW110734   2.329   3.255   5.727  0.8896  0.4688 -0.5655
33922SOL    HW210735   2.478   3.249   5.754  0.6427  2.2000  1.4942
33923SOL     OW10736   0.349  11.074  10.772  0.5140 -0.0557  0.4331
33923SOL    HW110737   0.431  11.123  10.763 -0.3508  1.3646  0.0581
33923SOL    HW210738   0.304  11.087  10.689 -0.7423  0.4222  1.1618
33924SOL     OW10739  11.769   0.174   4.353 -0.0547  0.2231  0.0116
33924SOL    HW110740  11.704   0.243   4.362  1.1369  1.2032  1.8403
33924SOL    HW210741  11.786   0.168   4.259 -0.2701  2.3476 -0.2020
33925SOL     OW10742   1.550   2.043  11.185 -0.0136 -0.0140 -0.4874
33925SOL    HW110743   1.565   2.097  11.108  0.7160  3.0457  1.6184
33925SOL    HW210744   1.460   2.012  11.176  0.0623  0.2420 -2.5217
33926SOL     OW10745   3.417   1.998   6.077 -0.0484 -0.2739  0.5545
33926SOL    HW110746   3.367   1.935   6.129 -0.3436 -0.8576 -0.4189
33926SOL    HW210747   3.354   2.034   6.015  0.3873  0.1352  0.3410
33927SOL     OW10748   5.719   7.361   6.225  0.1819  0.1261 -0.2957
33927SOL    HW110749   5.778   7.287   6.217 -1.5770 -1.4843  0.6935
33927SOL    HW210750   5.678   7.350   6.311 -0.0597  2.3317 -0.0743
33928SOL     OW10751   1.992   3.819   3.092 -0.6228  0.0869 -0.3117
33928SOL    HW110752   2.057   3.824   3.022 -0.0373 -1.3331  0.1102
33928SOL    HW210753   1.921   3.768   3.054  0.6547 -2.6861  0.7839
33929SOL     OW10754   5.067  10.376   8.136  0.3818  0.3905  0.1830
33929SOL    HW110755   5.064  10.393   8.230  1.4551  0.4940  0.2116
33929SOL    HW210756   5.017  10.448   8.097 -0.6744 -0.0370  0.7011
33930SOL     OW10757   3.613   9.676   7.256  0.4041  0.5912  0.9852
33930SOL    HW110758   3.607   9.707   7.166  0.5253  1.1418  1.1651
33930SOL    HW210759   3.689   9.721   7.292 -0.5394  1.5696  1.8292
33931SOL     OW10760   3.533  11.890  11.928 -0.1722 -0.0378 -0.3927
33931SOL    HW110761   3.522  11.832  12.004 -0.7170  1.2969  0.5700
33931SOL    HW210762   3.489  11.971  11.952  0.1689  0.6400 -1.9075
33932SOL     OW10763   9.884   9.588   7.790 -0.1632 -0.4691 -0.0187
33932SOL    HW110764   9.955   9.652   7.784  0.2989 -0.5641  2.8248
33932SOL    HW210765   9.865   9.583   7.884 -0.9073 -3.7089 -0.2230
33933SOL     OW10766   2.666   0.525   0.104  0.7116  0.1552  0.2975
33933SOL    HW110767   2.732   0.591   0.081  2.0259 -0.7598  1.2646
33933SOL    HW210768   2.672   0.459   0.035  0.1776  0.4899 -0.0770
33934SOL     OW10769   8.692   8.585   7.990 -0.3697  0.0795  0.1677
33934SOL    HW110770   8.659   8.675   7.987  1.0041  0.5923 -0.1058
33934SOL    HW210771   8.781   8.591   7.956 -0.6218 -1.5600 -0.8661
33935SOL     OW10772   3.359   6.830   3.641 -0.2306 -0.0648 -0.0444
33935SOL    HW110773   3.401   6.751   3.606  1.1810  0.2764  0.7878
33935SOL    HW210774   3.417   6.901   3.617  0.1234  0.3309  1.8008
33936SOL     OW10775   4.646   6.375   3.876  0.1757  0.7937 -0.2218
33936SOL    HW110776   4.641   6.283   3.852 -1.3981  1.3592 -2.4180
33936SOL    HW210777   4.735   6.401   3.854  0.2607  0.0788 -0.7615
33937SOL     OW10778   3.842  11.425   2.124 -0.3995  0.2478 -0.4215
33937SOL    HW110779   3.807  11.362   2.187  0.3556 -0.5205 -0.7740
33937SOL    HW210780   3.878  11.495   2.179 -2.0986  0.8767 -0.0370
33938SOL     OW10781  11.887   9.608   3.667  0.0266  0.5631  0.2228
33938SOL    HW110782  11.946   9.654   3.726  0.8247  0.1410 -0.2340
33938SOL    HW210783  11.868   9.673   3.599  0.0272  0.6746  0.3277
33939SOL     OW10784   9.229   3.960   0.489  0.0149  0.3293  0.0742
33939SOL    HW110785   9.233   3.870   0.457  0.3433  0.2620  0.3028
33939SOL    HW210786   9.319   3.991   0.485 -0.1327  0.7313 -0.2349
33940SOL     OW10787   0.470   9.584   5.775  0.5771  0.0284  0.6140
33940SOL    HW110788   0.493   9.494   5.797  2.5842  0.4556  0.4849
33940SOL    HW210789   0.406   9.609   5.841 -0.2556 -1.5732  0.4601
33941SOL     OW10790   1.461   9.059   7.461  0.3782  0.2352 -0.0068
33941SOL    HW110791   1.383   9.078   7.512  1.0263 -0.1931  1.1945
33941SOL    HW210792   1.485   8.969   7.486  0.9647  0.1874 -0.7169
33942SOL     OW10793   1.745  10.330   1.732 -0.0361  0.5836 -0.1650
33942SOL    HW110794   1.814  10.374   1.781 -0.8439 -0.1655  1.7353
33942SOL    HW210795   1.791  10.282   1.664  1.5773 -1.3162  2.1065
33943SOL     OW10796   1.583   0.077   0.828 -1.2228  0.5579  0.5862
33943SOL    HW110797   1.528  -0.002   0.828 -1.0823  0.4558  1.0961
33943SOL    HW210798   1.597   0.096   0.921  1.3944 -0.6574  0.5104
33944SOL     OW10799   2.940   4.322  11.541  0.2233  0.4283  0.0450
33944SOL    HW110800   2.973   4.412  11.541 -1.2232  1.1149  2.8056
33944SOL    HW210801   2.847   4.332  11.565 -0.5190 -1.7114 -1.6572
33945SOL     OW10802   5.312   0.997   0.192 -0.0016 -0.1611 -0.1880
33945SOL    HW110803   5.402   1.027   0.204 -0.3722 -0.0964  3.6392
33945SOL    HW210804   5.275   1.056   0.127  2.4382  0.3673 -1.1810
33946SOL     OW10805   6.428   7.216   0.026  0.3972 -0.0441  0.3916
33946SOL    HW110806   6.464   7.169  -0.049  3.3029 -1.2269  2.3374
33946SOL    HW210807   6.502   7.267   0.060 -0.9916  0.9969  2.0578
33947SOL     OW10808  12.325   8.566   4.665  0.4388 -0.1088 -0.1035
33947SOL    HW110809  12.299   8.630   4.600 -1.3106 -0.3711  0.3055
33947SOL    HW210810  12.257   8.499   4.663 -0.1902  0.3298  2.6072
33948SOL     OW10811   8.080   2.335  12.129  0.3984 -0.5508  0.1036
33948SOL    HW110812   8.116   2.275  12.194 -0.3424 -0.9663  0.1465
33948SOL    HW210813   8.070   2.282  12.050  0.0832 -0.3875  0.0312
33949SOL     OW10814   8.439   4.202   8.699 -0.1339 -0.6503 -0.1613
33949SOL    HW110815   8.529   4.172   8.711  0.1571  0.5544  1.0240
33949SOL    HW210816   8.412   4.167   8.614  0.9064 -2.3075  0.1501
33950SOL     OW10817   6.288   4.715  10.668  0.5086  0.1144  0.6429
33950SOL    HW110818   6.270   4.738  10.577  2.5522 -2.0604 -0.4409
33950SOL    HW210819   6.354   4.778  10.696 -0.7937  1.3714  0.9902
33951SOL     OW10820   3.423   3.749   9.775  0.4119 -0.8562 -0.0053
33951SOL    HW110821   3.343   3.715   9.736  0.0278 -0.7070  0.6466
33951SOL    HW210822   3.427   3.840   9.746 -0.0968 -0.6238  0.6550
33952SOL     OW10823   5.895   9.729  10.857 -0.2208  0.7463 -0.1375
33952SOL    HW110824   5.813   9.764  10.824 -0.1155  2.7671  1.4790
33952SOL    HW210825   5.871   9.647  10.901 -1.2524  0.9558 -0.2908
33953SOL     OW10826  11.761   6.828   4.189  0.0969  0.9097  0.0309
33953SOL    HW110827  11.724   6.867   4.268 -0.2399  2.7299 -0.9837
33953SOL    HW210828  11.855   6.826   4.206  0.1590  2.4887  0.0032
33954SOL     OW10829   1.400   3.265   8.811 -0.0613  0.1791 -0.5630
33954SOL    HW110830   1.321   3.268   8.865 -0.3018  1.2733 -0.9618
33954SOL    HW210831   1.424   3.356   8.797  0.9265 -0.1251 -0.9741
33955SOL     OW10832   3.121   4.124   9.707 -0.2785 -0.5333 -0.1959
33955SOL    HW110833   3.088   4.034   9.710 -1.2765 -0.1660  0.8364
33955SOL    HW210834   3.192   4.121   9.644 -1.0071 -1.8131 -1.0204
33956SOL     OW10835   2.457  11.876  12.593  0.0365 -0.3173 -0.1839
33956SOL    HW110836   2.439  11.830  12.675 -0.8118 -0.1877 -0.2829
33956SOL    HW210837   2.416  11.822  12.526  0.7105 -0.4114 -0.5291
33957SOL     OW10838   0.296   1.870   2.496 -0.1034  0.1579 -0.2544
33957SOL    HW110839   0.313   1.947   2.551 -0.4492  0.8330 -1.0608
33957SOL    HW210840   0.333   1.893   2.411 -0.6703 -0.3568 -0.6492
33958SOL     OW10841   7.402   1.102   5.185 -0.0646  0.7005 -0.2631
33958SOL    HW110842   7.307   1.109   5.190  0.0729  1.6601  1.4496
33958SOL    HW210843   7.420   1.008   5.193 -0.8055  0.6362  0.7483
33959SOL     OW10844   5.738   1.840   4.357 -0.1084 -0.1886  0.5723
33959SOL    HW110845   5.692   1.777   4.301 -1.7212 -0.1649  1.8058
33959SOL    HW210846   5.799   1.786   4.408  0.2963 -0.4127 -0.1447
33960SOL     OW10847   0.401   0.777   4.174  0.4092  0.7303  0.0123
33960SOL    HW110848   0.405   0.801   4.267 -1.5845  0.9710  0.0727
33960SOL    HW210849   0.458   0.842   4.131  1.6856  0.3699  1.0728
33961SOL     OW10850   5.276   8.743   3.555  0.4174  0.5300  0.2299
33961SOL    HW110851   5.353   8.796   3.577  0.6793  0.6893 -1.0162
33961SOL    HW210852   5.306   8.652   3.565  0.3045  0.5910  1.2425
33962SOL     OW10853   6.154   9.547   8.085 -0.5742 -0.4286  0.4313
33962SOL    HW110854   6.158   9.627   8.137 -0.1968  0.3282 -0.7346
33962SOL    HW210855   6.103   9.571   8.007  0.6660 -0.9367 -0.5677
33963SOL     OW10856  11.399   3.509   6.349  0.1359  0.3726 -0.1336
33963SOL    HW110857  11.330   3.552   6.398 -0.6273 -1.5854  0.6056
33963SOL    HW210858  11.412   3.564   6.272 -1.3987  1.4178  0.3161
33964SOL     OW10859   3.123  10.143   4.725 -0.2192  0.3495  0.3965
33964SOL    HW110860   3.054  10.197   4.687 -0.7444 -0.5054  0.0939
33964SOL    HW210861   3.128  10.172   4.816 -1.5289 -0.0840  0.6340
33965SOL     OW10862   3.673   7.225   5.539  0.1459  0.5696 -0.9128
33965SOL    HW110863   3.762   7.194   5.518 -0.2288 -0.3839 -1.1198
33965SOL    HW210864   3.651   7.180   5.620  0.1844  1.4937 -0.3781
33966SOL     OW10865   2.267  10.805   4.839  0.4728  0.0808  0.0052
33966SOL    HW110866   2.199  10.750   4.800 -0.9839  2.0331 -0.3857
33966SOL    HW210867   2.342  10.795   4.782  0.6267 -2.2629  0.5292
33967SOL     OW10868   8.255   8.558   9.193  0.0416 -0.3787  0.0785
33967SOL    HW110869   8.335   8.523   9.232 -0.5614  0.0028  1.7484
33967SOL    HW210870   8.244   8.508   9.112  2.4564  0.2255 -0.7078
33968SOL     OW10871   9.155   9.947  11.970 -0.2245 -0.3189 -0.1123
33968SOL    HW110872   9.123  10.029  11.933  1.4063  0.8617  0.9833
33968SOL    HW210873   9.238   9.970  12.012  0.4244 -2.5917 -0.0232
33969SOL     OW10874   3.936   1.863   0.548 -0.1446 -0.6277 -0.5724
33969SOL    HW110875   3.928   1.935   0.487 -2.6315 -1.0258 -0.8075
33969SOL    HW210876   3.868   1.879   0.614  1.8028 -0.7230  1.5972
33970SOL     OW10877   8.346   0.536   0.426 -0.0079  0.0633 -0.3395
33970SOL    HW110878   8.412   0.505   0.363 -1.0715  0.5315 -1.7316
33970SOL    HW210879   8.317   0.620   0.390 -1.2471 -0.0533  0.3404
33971SOL     OW10880   5.743   4.050  11.129  0.1177  0.2681 -0.5366
33971SOL    HW110881   5.783   4.069  11.044 -0.2833 -2.9427 -1.5629
33971SOL    HW210882   5.785   3.968  11.157 -0.2701  0.8715  2.0683
33972SOL     OW10883   0.032   3.730   9.402 -0.9122 -0.3013  0.0736
33972SOL    HW110884   0.047   3.675   9.478 -1.0559  0.5209  0.7137
33972SOL    HW210885   0.074   3.684   9.330  0.0666 -0.6160  0.8319
33973SOL     OW10886   2.171   5.582   0.961  0.4325 -0.8493  0.3822
33973SOL    HW110887   2.083   5.549   0.944  0.7675 -0.5313 -2.3533
33973SOL    HW210888   2.160   5.643   1.034 -1.9862  0.5351 -1.0176
33974SOL     OW10889  11.704   2.504   4.321 -0.4841  0.3795 -0.3766
33974SOL    HW110890  11.776   2.452   4.357  0.5366  1.9918  0.0040
33974SOL    HW210891  11.629   2.486   4.378 -0.6948 -2.0463 -1.3261
33975SOL     OW10892   6.404   2.166   5.483 -0.0491  0.4205  0.3938
33975SOL    HW110893   6.380   2.146   5.574  2.8306 -2.1386  0.7421
33975SOL    HW210894   6.331   2.132   5.432 -0.1131 -1.4665  1.6319
33976SOL     OW10895  11.631   3.315  11.174  0.4900  0.2428 -0.5407
33976SOL    HW110896  11.636   3.317  11.078  1.2182 -1.3628 -0.5744
33976SOL    HW210897  11.590   3.231  11.194  1.1022  0.1854  0.5642
33977SOL     OW10898   6.883   0.433   6.589 -0.1546  0.2164  0.1425
33977SOL    HW110899   6.884   0.526   6.564 -1.1807  0.6690  1.6292
33977SOL    HW210900   6.850   0.433   6.679  1.4924 -1.4550  0.8067
33978SOL     OW10901   1.767   1.000  11.230  0.4682  0.5952 -0.3292
33978SOL    HW110902   1.774   1.079  11.284  1.5846  0.0918  0.3019
33978SOL    HW210903   1.848   0.952  11.248 -0.5944 -1.1407 -0.0081
33979SOL     OW10904  10.773   0.071   4.115  0.0438 -0.1033  0.0928
33979SOL    HW110905  10.796  -0.014   4.078 -0.2559  0.3914 -1.2825
33979SOL    HW210906  10.711   0.109   4.053  1.1559  1.6678 -0.0177
33980SOL     OW10907   6.119   3.616   8.747 -0.7740  0.0418  0.1037
33980SOL    HW110908   6.185   3.661   8.694  1.4305  0.5343  2.9946
33980SOL    HW210909   6.149   3.526   8.753 -1.0521 -0.0357  0.3942
33981SOL     OW10910   5.070   2.522   3.765  0.4373 -0.0624  0.0560
33981SOL    HW110911   5.114   2.574   3.699  0.9482  0.4015  0.7392
33981SOL    HW210912   4.976   2.533   3.748  0.5053 -2.0782 -2.2171
33982SOL     OW10913   5.758   2.359   2.450  1.1356  0.2188 -0.0183
33982SOL    HW110914   5.713   2.276   2.466 -0.4649  1.0882  0.2106
33982SOL    HW210915   5.827   2.337   2.388  2.2764 -1.7248  1.7926
33983SOL     OW10916   8.949   5.861  11.433  0.0796 -0.4053  0.3188
33983SOL    HW110917   8.939   5.954  11.412 -1.0775 -0.3776  0.9334
33983SOL    HW210918   8.861   5.831  11.455  0.3778 -1.7493 -0.2276
33984SOL     OW10919   3.226   5.382  10.816  0.1029  0.2045 -0.1646
33984SOL    HW110920   3.226   5.403  10.723 -0.6650 -1.0917 -0.4692
33984SOL    HW210921   3.311   5.342  10.832 -0.1110 -0.3973 -0.5094
33985SOL     OW10922   1.514   4.106   8.430  0.8103 -0.0663 -0.5266
33985SOL    HW110923   1.562   4.023   8.430  1.7548  0.4536 -1.3264
33985SOL    HW210924   1.567   4.164   8.485  0.0810 -0.0218  0.1417
33986SOL     OW10925   6.940   0.646   4.584  0.0057 -0.3603 -0.2547
33986SOL    HW110926   6.871   0.581   4.592  1.1613 -1.7551 -1.1363
33986SOL    HW210927   7.005   0.605   4.526  2.0356  0.4803  1.3197
33987SOL     OW10928   2.773  10.282   6.041 -0.1173  0.2809  0.3716
33987SOL    HW110929   2.802  10.373   6.032  2.5722 -0.6100 -1.2621
33987SOL    HW210930   2.723  10.265   5.961 -0.0887  0.1587  0.3805
33988SOL     OW10931  11.059  10.251   5.147  0.4882  0.1122 -0.0384
33988SOL    HW110932  11.066  10.237   5.053 -1.6481  1.2014 -0.4273
33988SOL    HW210933  11.027  10.168   5.182  1.5081 -0.3695 -0.1904
33989SOL     OW10934  11.964   3.976   6.981 -0.2488  0.2968 -0.6741
33989SOL    HW110935  12.025   3.971   7.054 -0.6354 -1.4436 -0.4072
33989SOL    HW210936  11.964   4.068   6.955  0.9270  0.6973  0.6240
33990SOL     OW10937   1.133   4.847   3.483  0.0930 -0.5873  0.4671
33990SOL    HW110938   1.225   4.849   3.508 -0.2531 -2.8547  2.2506
33990SOL    HW210939   1.085   4.847   3.566 -1.3993 -1.5202 -0.3441
33991SOL     OW10940   3.208   3.966   1.396  0.0246  0.1721  0.0398
33991SOL    HW110941   3.186   3.894   1.337  0.4811  1.3417 -1.6317
33991SOL    HW210942   3.129   3.980   1.447 -1.0743  0.3094 -1.6048
33992SOL     OW10943   8.501  10.190   0.685  0.6931  0.0085  0.1827
33992SOL    HW110944   8.549  10.272   0.686  0.1217  0.4247  3.2533
33992SOL    HW210945   8.426  10.205   0.742  0.2388 -2.4454  0.3495
33993SOL     OW10946   0.850   9.100   5.725  0.5880 -0.2785 -0.2625
33993SOL    HW110947   0.940   9.072   5.745  0.7145  0.0292 -0.3921
33993SOL    HW210948   0.797   9.021   5.737  0.8768 -0.4632 -0.1898
33994SOL     OW10949   1.430   5.958   4.811  0.2890 -0.0612  0.1802
33994SOL    HW110950   1.441   5.873   4.769  0.3158  0.4336 -0.8383
33994SOL    HW210951   1.336   5.962   4.831  0.0225  0.2334 -1.0398
33995SOL     OW10952   0.298   9.854   3.930 -0.2993 -0.8017 -0.1290
33995SOL    HW110953   0.301   9.865   3.835 -0.6051  0.2649 -0.0338
33995SOL    HW210954   0.252   9.772   3.943  0.1852 -1.2131 -0.9073
33996SOL     OW10955  11.719  12.305   1.623 -0.3684  0.8815 -0.0234
33996SOL    HW110956  11.788  12.340   1.680  0.5883 -0.2982 -0.4176
33996SOL    HW210957  11.766  12.259   1.553 -1.5466  0.2101 -0.4027
33997SOL     OW10958   6.212  11.655   1.508  0.4293 -0.7238 -0.1446
33997SOL    HW110959   6.233  11.744   1.480  0.3912 -0.5955  0.2338
33997SOL    HW210960   6.291  11.605   1.489  0.9614 -0.3276  0.9076
33998SOL     OW10961   1.845   7.666   8.749 -0.2572 -0.7398  0.7044
33998SOL    HW110962   1.759   7.637   8.780  0.4982 -1.9365  1.7566
33998SOL    HW210963   1.894   7.687   8.828  0.3378  0.2513  0.0991
33999SOL     OW10964   8.530  12.337   7.104  0.3511 -0.0069 -0.7439
33999SOL    HW110965   8.527  12.433   7.109  0.8486  0.1402 -2.5778
33999SOL    HW210966   8.623  12.317   7.089  0.2541 -0.7882 -0.3614
34000SOL     OW10967   3.126   0.161   8.546 -0.4221 -0.3963  0.7158
34000SOL    HW110968   3.090   0.083   8.588 -3.7196 -1.0812 -2.8881
34000SOL    HW210969   3.072   0.233   8.581 -1.5227 -0.6387 -0.4204
34001SOL     OW10970  10.504   5.639   3.795  0.0759 -0.1753 -0.6211
34001SOL    HW110971  10.524   5.729   3.771  3.7920 -0.3233  1.2505
34001SOL    HW210972  10.480   5.643   3.888 -1.0807 -0.9942 -0.8624
34002SOL     OW10973   1.390   6.683   4.332 -0.1342  0.6244 -0.1367
34002SOL    HW110974   1.319   6.620   4.343 -0.7908  1.4050  0.2022
34002SOL    HW210975   1.415   6.675   4.240 -0.2041 -0.1281 -0.0958
34003SOL     OW10976   4.959   9.962   4.835  0.0154 -0.0529 -0.0721
34003SOL    HW110977   4.913   9.915   4.904 -0.1003 -0.4366 -0.4042
34003SOL    HW210978   4.893   9.978   4.768  0.3430 -0.5506 -0.5234
34004SOL     OW10979   8.594   6.931   3.342 -0.3324  0.1083  0.7972
34004SOL    HW110980   8.690   6.936   3.341 -0.3430  0.3230 -0.5630
34004SOL    HW210981   8.575   6.838   3.326 -0.3557  0.1526  0.5689
34005SOL     OW10982   5.118   4.870   0.677 -0.6342  0.5193 -0.2213
34005SOL    HW110983   5.045   4.823   0.718  0.6751 -1.2160  0.2469
34005SOL    HW210984   5.128   4.828   0.591 -0.6912  1.2937 -0.6087
34006SOL     OW10985   6.374   3.078   2.916  0.0333  0.5818  0.5368
34006SOL    HW110986   6.441   3.048   2.978  0.3762 -1.4055 -0.7175
34006SOL    HW210987   6.292   3.041   2.948  0.5177 -2.4039 -1.2562
34007SOL     OW10988   4.309   2.535   6.156 -0.7100  0.7706  0.2841
34007SOL    HW110989   4.378   2.569   6.099 -0.3690  0.1896  0.3516
34007SOL    HW210990   4.236   2.596   6.143  0.0604  1.8385  0.7981
34008SOL     OW10991   9.840   8.712   6.570  0.1559  0.1871 -0.4147
34008SOL    HW110992   9.786   8.642   6.534 -0.2779  0.3000  0.0049
34008SOL    HW210993   9.926   8.698   6.531 -0.4359  0.6671 -1.9535
34009SOL     OW10994   0.838   8.658  10.729  0.3236  0.8270  0.5185
34009SOL    HW110995   0.812   8.728  10.668 -1.5900 -0.1445  0.1579
34009SOL    HW210996   0.803   8.686  10.813 -3.4054 -1.0600 -0.1804
34010SOL     OW10997   7.139  10.845   8.005 -0.0185 -0.3571 -0.5760
34010SOL    HW110998   7.072  10.781   7.979 -3.2186  3.4562 -2.8235
34010SOL    HW210999   7.101  10.891   8.080  0.9486  0.6946 -0.6954
34011SOL     OW11000   7.941   9.774   5.769 -0.3229 -0.0912 -0.2576
34011SOL    HW111001   7.960   9.864   5.744  1.8403 -0.6933 -0.9735
34011SOL    HW211002   7.929   9.728   5.686 -0.8935 -0.5674  0.0841
34012SOL     OW11003   9.187   1.941   5.390 -0.4675  0.3606  0.1547
34012SOL    HW111004   9.180   2.036   5.384 -0.2313  0.4082  0.5565
34012SOL    HW211005   9.141   1.919   5.471 -0.4329  0.1466  0.1172
34013SOL     OW11006   5.747  10.399  12.135 -0.2863  0.1501 -0.1839
34013SOL    HW111007   5.736  10.316  12.089 -0.5407  0.3883 -0.5643
34013SOL    HW211008   5.814  10.446  12.085  0.4246 -0.1345  0.4761
34014SOL     OW11009   9.395   6.496  10.916 -0.3394 -0.5518 -0.4926
34014SOL    HW111010   9.303   6.491  10.938  0.0416 -0.9761  1.1337
34014SOL    HW211011   9.417   6.589  10.922 -0.5518 -0.5052 -0.4406
34015SOL     OW11012   6.957   6.498   7.670 -0.7274  0.0514 -0.1262
34015SOL    HW111013   6.945   6.414   7.714 -3.1587  0.6398  0.5010
34015SOL    HW211014   7.020   6.545   7.725 -1.3235 -0.4241  1.0122
34016SOL     OW11015   1.580   2.946   2.336 -0.0153 -0.0581 -0.1184
34016SOL    HW111016   1.583   3.041   2.347 -0.5122  0.1855 -1.8570
34016SOL    HW211017   1.672   2.919   2.339  0.1948  0.5902 -0.4217
34017SOL     OW11018   6.005   9.972  10.985  0.3585  0.0107  0.5056
34017SOL    HW111019   6.097   9.969  11.010 -0.1565 -0.2833  2.5442
34017SOL    HW211020   5.982   9.880  10.970  0.2476  0.0109  0.6693
34018SOL     OW11021   4.494   5.949  11.148 -0.0401 -0.2159 -0.2617
34018SOL    HW111022   4.555   6.012  11.185 -0.7976 -0.8750  2.3107
34018SOL    HW211023   4.451   5.997  11.076  2.0453  0.8732 -0.8730
34019SOL     OW11024   4.114   9.420   0.538 -0.5948  0.4875  0.4915
34019SOL    HW111025   4.165   9.380   0.468 -1.2616 -0.6638  0.6418
34019SOL    HW211026   4.030   9.374   0.535 -0.7848  0.7314  1.7619
34020SOL     OW11027   0.808   4.293   5.312  0.3099 -0.1682  0.3215
34020SOL    HW111028   0.870   4.298   5.385  0.4037  0.4996  0.2045
34020SOL    HW211029   0.809   4.381   5.274 -1.1529  0.0307  0.6892
34021SOL     OW11030   4.904   3.500   3.190 -0.0757 -0.2330 -0.3005
34021SOL    HW111031   4.845   3.458   3.252 -0.5441  1.5005  0.4676
34021SOL    HW211032   4.992   3.474   3.220 -0.3418 -0.5097  0.2550
34022SOL     OW11033   0.384   0.108   0.050 -0.1940 -0.0268 -0.0655
34022SOL    HW111034   0.326   0.042   0.088 -3.8780  2.0673 -1.5106
34022SOL    HW211035   0.459   0.058   0.017 -1.1842 -2.9893  1.7834
34023SOL     OW11036   0.044   8.378   4.921 -0.9349  0.2804 -0.5403
34023SOL    HW111037  -0.048   8.395   4.942 -1.0958 -0.3686 -0.7211
34023SOL    HW211038   0.082   8.465   4.907 -1.9442  0.4632 -2.2694
34024SOL     OW11039   9.493  10.807   6.245  0.1947 -0.4726  0.0174
34024SOL    HW111040   9.429  10.738   6.228  0.9823 -1.1447 -0.2617
34024SOL    HW211041   9.458  10.854   6.320  0.6171 -2.4151  1.4970
34025SOL     OW11042   1.460   0.131   8.935  0.3835 -0.3512  0.1472
34025SOL    HW111043   1.479   0.037   8.928 -1.5861 -0.7849  0.0246
34025SOL    HW211044   1.380   0.143   8.884  0.3977  1.3351  0.4743
34026SOL     OW11045   2.392   5.447   2.109  0.2074  0.0512  0.4409
34026SOL    HW111046   2.309   5.437   2.063  0.3044  0.8575  0.0740
34026SOL    HW211047   2.367   5.474   2.197  0.0951  2.6001 -0.2930
34027SOL     OW11048   2.749   1.191   4.939  0.5089  0.1647  0.1000
34027SOL    HW111049   2.686   1.182   5.010 -0.7431  1.3836 -0.7918
34027SOL    HW211050   2.706   1.150   4.864  1.6967 -0.8684 -0.0407
34028SOL     OW11051   7.780   4.573  11.283 -0.0531 -0.1913 -0.0688
34028SOL    HW111052   7.804   4.512  11.352 -0.7203  1.6861  1.9382
34028SOL    HW211053   7.823   4.655  11.308  0.7802  0.2516 -2.6331
34029SOL     OW11054   7.114  12.196  12.218 -0.2323 -0.2374  0.3360
34029SOL    HW111055   7.044  12.161  12.163 -0.9064 -0.5749  1.3638
34029SOL    HW211056   7.154  12.119  12.257 -0.6534  0.0244  1.3415
34030SOL     OW11057  10.404   4.339   2.512  0.5088  0.1978 -0.3492
34030SOL    HW111058  10.381   4.281   2.585 -1.9827  2.3439  0.7248
34030SOL    HW211059  10.342   4.316   2.443 -0.3554  1.3804  0.0093
34031SOL     OW11060   7.584   4.978  12.038 -0.4129  0.1407 -0.0455
34031SOL    HW111061   7.631   4.903  12.072  1.8611  1.3386 -0.3697
34031SOL    HW211062   7.549   5.022  12.116 -0.2078 -0.2741  0.2819
34032SOL     OW11063   5.684   4.279   0.968  0.4902 -0.4930 -0.3187
34032SOL    HW111064   5.767   4.251   0.929  0.2826 -1.7312  0.0887
34032SOL    HW211065   5.708   4.346   1.031  1.1157 -0.4078 -0.6467
34033SOL     OW11066   9.851  11.269  11.746  0.4282 -0.1984 -0.5352
34033SOL    HW111067   9.923  11.255  11.808  0.4972  1.3810 -0.2090
34033SOL    HW211068   9.774  11.232  11.790  0.5519  0.5588  0.3570
34034SOL     OW11069  11.290  11.120   7.851  0.0567  0.3807 -0.2260
34034SOL    HW111070  11.367  11.097   7.903  0.4762 -2.3284 -1.8557
34034SOL    HW211071  11.326  11.161   7.772 -0.1389 -0.9158 -1.0015
34035SOL     OW11072  12.397   1.471   1.277 -0.2594 -0.0908 -0.2299
34035SOL    HW111073  12.492   1.464   1.284 -0.4766 -1.5531  2.0870
34035SOL    HW211074  12.372   1.402   1.216  0.2003  1.3004 -2.1255
34036SOL     OW11075   2.922  12.207   5.926  0.2422 -0.0203  0.1481
34036SOL    HW111076   2.984  12.195   5.854  0.5537  0.5060  0.3212
34036SOL    HW211077   2.974  12.191   6.005  0.1312  0.3009  0.2899
34037SOL     OW11078  11.788  10.882  11.483  0.2934 -0.2867  0.6266
34037SOL    HW111079  11.694  10.868  11.495  0.3527 -0.5435  0.8134
34037SOL    HW211080  11.798  10.901  11.390  0.1059 -0.7178  0.5149
34038SOL     OW11081  11.292   5.882   1.614 -0.1346  0.1052 -0.2413
34038SOL    HW111082  11.202   5.909   1.629 -0.2177  0.1763 -0.8715
34038SOL    HW211083  11.309   5.816   1.681  0.0444  1.6167  1.3019
34039SOL     OW11084   2.667   1.839   1.240  0.2643 -0.1486  0.1120
34039SOL    HW111085   2.656   1.893   1.318 -0.8027  0.9505 -0.7763
34039SOL    HW211086   2.722   1.891   1.182 -1.2304  0.2821 -0.9772
34040SOL     OW11087   1.495   7.015   5.123 -0.3150  0.2127 -0.0995
34040SOL    HW111088   1.454   7.100   5.139 -0.0421  0.0600  1.5565
34040SOL    HW211089   1.533   6.991   5.207  2.0455 -0.2676 -1.2282
34041SOL     OW11090   0.690   5.993  10.206 -0.0924  0.1947 -0.1904
34041SOL    HW111091   0.714   5.942  10.129  0.2687  0.3115 -0.1607
34041SOL    HW211092   0.657   6.076  10.172 -0.5876 -0.0209 -0.2370
34042SOL     OW11093  12.055   0.257   5.362  0.0218  0.3396  0.2080
34042SOL    HW111094  11.972   0.272   5.408  0.1292  1.3690  0.0931
34042SOL    HW211095  12.072   0.340   5.317  0.7412 -0.1140 -0.3704
34043SOL     OW11096   1.982   3.714   6.076 -0.0605 -1.2491 -0.0121
34043SOL    HW111097   1.936   3.725   6.160  1.2813 -2.3817  0.9148
34043SOL    HW211098   1.929   3.650   6.029 -2.6069  1.6537 -1.4738
34044SOL     OW11099  11.493  10.219   4.704  0.2958 -0.7302  0.5067
34044SOL    HW111100  11.510  10.206   4.611 -1.3595 -0.5792  0.1635
34044SOL    HW211101  11.513  10.312   4.719 -3.8059  0.5760 -0.8102
34045SOL     OW11102   0.370   8.460   8.264 -0.4570  0.1767  0.1920
34045SOL    HW111103   0.300   8.523   8.248  0.0873  0.8220  0.3167
34045SOL    HW211104   0.348   8.421   8.349 -0.0332  1.2417  0.8049
34046SOL     OW11105  10.211  11.371   5.350  0.1587 -0.2737 -0.1445
34046SOL    HW111106  10.256  11.432   5.292  1.3248 -1.0283 -0.0708
34046SOL    HW211107  10.282  11.325   5.396 -0.6882 -1.4852 -0.0064
34047SOL     OW11108   1.955   4.252   3.128  0.0303 -0.1975 -0.3584
34047SOL    HW111109   2.049   4.232   3.125 -0.0496 -0.6601  0.1324
34047SOL    HW211110   1.914   4.170   3.155 -0.4783  0.1196 -0.1577
34048SOL     OW11111   7.676   5.429   0.686 -0.1001 -0.0992  0.5149
34048SOL    HW111112   7.611   5.362   0.706 -0.5393  0.1806  0.0581
34048SOL    HW211113   7.749   5.410   0.744 -1.7947  1.4345  3.3564
34049SOL     OW11114   9.328   4.901   6.406 -0.4135 -0.0698 -0.0924
34049SOL    HW111115   9.385   4.865   6.338 -0.5460  1.7706 -1.2603
34049SOL    HW211116   9.363   4.988   6.423 -1.4084  0.1466  0.9758
34050SOL     OW11117   2.069   9.712   8.525  0.3792 -0.0950 -0.0830
34050SOL    HW111118   2.120   9.637   8.495 -0.5121 -0.6930 -0.1559
34050SOL    HW211119   2.064   9.770   8.449  0.3025 -0.3940 -0.3091
34051SOL     OW11120   7.817   2.050   4.905 -0.0718  0.3348 -0.4139
34051SOL    HW111121   7.721   2.043   4.904 -0.1886  1.6717 -1.6888
34051SOL    HW211122   7.843   2.000   4.982 -1.8095  0.0540  0.0466
34052SOL     OW11123   5.857   5.657   8.997 -0.3683 -0.1174 -0.1770
34052SOL    HW111124   5.880   5.730   8.939 -1.3452  0.3410 -0.0061
34052SOL    HW211125   5.942   5.622   9.026  0.1187  0.7887 -0.4534
34053SOL     OW11126  10.334   8.437   2.218 -0.1935 -0.2124  0.1894
34053SOL    HW111127  10.258   8.453   2.163 -0.6786 -0.9553  0.6214
34053SOL    HW211128  10.385   8.371   2.170  0.7277  1.0214 -0.5905
34054SOL     OW11129  10.178   3.926   7.896  0.0785 -0.8617 -0.5958
34054SOL    HW111130  10.110   3.896   7.956 -1.7169  1.6016 -1.2388
34054SOL    HW211131  10.184   3.857   7.830 -1.0841 -1.5682  0.0094
34055SOL     OW11132   2.714   5.871   3.168 -0.2340  0.1524  0.0844
34055SOL    HW111133   2.639   5.909   3.214  0.9546  0.1754  2.1063
34055SOL    HW211134   2.678   5.799   3.117 -1.9639  1.6175 -0.9001
34056SOL     OW11135   0.110   9.935   0.834 -0.4684 -0.2659 -0.3027
34056SOL    HW111136   0.185   9.900   0.882 -1.6229 -0.8402  1.1901
34056SOL    HW211137   0.105   9.881   0.755 -0.6665 -1.8124  0.7091
34057SOL     OW11138   1.473   5.042  11.624 -0.3837 -0.7507 -0.3959
34057SOL    HW111139   1.486   5.039  11.529  0.9468  0.5741 -0.3103
34057SOL    HW211140   1.561   5.060  11.659 -1.0880  0.1477  0.9864
34058SOL     OW11141   1.277  11.355   1.792  0.2271  0.4249 -0.0527
34058SOL    HW111142   1.285  11.347   1.887 -1.7287 -0.4037  0.0784
34058SOL    HW211143   1.268  11.265   1.761 -0.6864  0.7817 -0.8579
34059SOL     OW11144   0.438   0.469   2.393  0.1240 -0.2078  0.4028
34059SOL    HW111145   0.436   0.500   2.303  0.8345 -0.9081  0.1322
34059SOL    HW211146   0.450   0.374   2.386  1.8015 -0.0952  1.2307
34060SOL     OW11147   0.130   8.452   9.363  0.4410 -0.7121 -0.3542
34060SOL    HW111148   0.201   8.509   9.394  0.9379 -0.4884 -1.8330
34060SOL    HW211149   0.055   8.476   9.418  1.1003  0.1389  0.2067
34061SOL     OW11150   5.418  10.588  10.945 -0.2742  0.4586 -0.3818
34061SOL    HW111151   5.326  10.613  10.937 -0.5213  0.1024  1.0069
34061SOL    HW211152   5.420  10.495  10.925 -0.4918  0.1217  1.0566
34062SOL     OW11153   5.338  11.241   0.476 -0.1856  0.4021 -0.5923
34062SOL    HW111154   5.429  11.231   0.451 -0.5351  1.3035 -2.3435
34062SOL    HW211155   5.321  11.167   0.535  1.0005 -1.1716 -2.1388
34063SOL     OW11156   4.328   1.833   6.130  0.4918 -0.7524 -0.1066
34063SOL    HW111157   4.343   1.920   6.167 -1.2568 -0.5768  0.2505
34063SOL    HW211158   4.354   1.773   6.200 -2.2517 -0.4268  1.3252
34064SOL     OW11159   5.724   5.934   4.394 -0.0655  0.0647 -0.2231
34064SOL    HW111160   5.738   5.980   4.476  0.5312  1.0304 -0.8436
34064SOL    HW211161   5.774   5.984   4.329  0.5343 -1.3894 -0.9565
34065SOL     OW11162   6.206   5.422  10.717 -0.1711 -0.5529 -0.1907
34065SOL    HW111163   6.279   5.471  10.754 -0.4390  0.9360 -1.5647
34065SOL    HW211164   6.145   5.411  10.790 -0.6498  2.2339 -0.0700
34066SOL     OW11165   0.194   0.093  10.738 -0.8858 -0.2167  0.0896
34066SOL    HW111166   0.126   0.072  10.802 -0.7106  1.5677  0.9249
34066SOL    HW211167   0.154   0.158  10.680 -0.2015  0.1291 -0.0049
34067SOL     OW11168   9.644   2.636   2.949 -0.2007 -0.5048  0.2127
34067SOL    HW111169   9.645   2.541   2.963 -0.4343 -0.5989 -0.3615
34067SOL    HW211170   9.590   2.648   2.871 -1.9926  0.2589  1.4943
34068SOL     OW11171   7.762   2.582   9.079  0.7734  0.2403 -0.0837
34068SOL    HW111172   7.857   2.580   9.068  0.7868  0.7818 -0.0502
34068SOL    HW211173   7.728   2.594   8.991  0.7712  1.0902  0.0295
34069SOL     OW11174   4.217   1.458  11.549  0.4342 -0.3636  0.3588
34069SOL    HW111175   4.242   1.366  11.555 -0.3894 -1.1302 -4.2314
34069SOL    HW211176   4.123   1.456  11.529 -0.2629  1.7176  2.9451
34070SOL     OW11177   3.409   8.868   4.400  0.5224 -0.4237  0.2935
34070SOL    HW111178   3.371   8.806   4.462  0.9247  0.1785  1.1551
34070SOL    HW211179   3.372   8.842   4.315  2.0581 -2.9904  0.2970
34071SOL     OW11180   8.096   5.915   1.070 -0.0165  0.6198 -0.4077
34071SOL    HW111181   8.059   5.918   0.982 -0.5698 -1.4912 -0.3112
34071SOL    HW211182   8.163   5.847   1.066 -0.4384  0.0804  0.8945
34072SOL     OW11183   6.320  11.495   8.298 -0.0088 -0.1825  0.1754
34072SOL    HW111184   6.382  11.450   8.240 -0.0881  0.1570 -0.1775
34072SOL    HW211185   6.234  11.473   8.263 -0.1441 -1.4758  1.2665
34073SOL     OW11186   2.920  10.029   8.172  0.4823  1.0126 -0.4637
34073SOL    HW111187   3.009  10.000   8.150  0.1565 -0.2844 -0.1438
34073SOL    HW211188   2.892   9.969   8.241 -1.1288  0.5749 -1.4500
34074SOL     OW11189   8.802   1.267  10.156 -0.0705 -0.2885  0.7874
34074SOL    HW111190   8.746   1.334  10.193  0.7615  0.6829  0.3419
34074SOL    HW211191   8.821   1.298  10.067 -2.2745 -2.6826 -0.6818
34075SOL     OW11192  11.801   6.724   1.319  0.4367  0.0233  0.7252
34075SOL    HW111193  11.773   6.796   1.375  1.9202 -0.1543  1.7335
34075SOL    HW211194  11.811   6.764   1.232 -0.6321  0.5809  0.8384
34076SOL     OW11195  10.122   6.643   8.057 -0.2012  0.4006 -0.5415
34076SOL    HW111196  10.209   6.667   8.024  0.5050 -0.9324  0.2361
34076SOL    HW211197  10.068   6.720   8.041  0.2692  0.1507 -4.0456
34077SOL     OW11198   4.192   2.891   1.175 -0.0108  0.2402 -0.1966
34077SOL    HW111199   4.283   2.921   1.185  0.4069 -1.4554  1.8035
34077SOL    HW211200   4.154   2.899   1.262 -1.6536  0.4221 -0.8932
34078SOL     OW11201   8.752   3.475  10.651  0.4894  0.0059  0.0016
34078SOL    HW111202   8.805   3.449  10.726  0.0157 -1.5080 -0.1626
34078SOL    HW211203   8.816   3.502  10.585  0.9215  1.0455  0.8133
34079SOL     OW11204   3.786   7.841  10.343 -0.3452  0.2282 -0.1711
34079SOL    HW111205   3.875   7.843  10.310 -0.0052 -0.1049  0.6739
34079SOL    HW211206   3.794   7.798  10.429 -1.2669  0.4743  0.0488
34080SOL     OW11207   1.798   9.963   3.957  0.1355  0.0215 -0.3509
34080SOL    HW111208   1.882   9.918   3.960 -0.2960 -0.8609 -0.8676
34080SOL    HW211209   1.753   9.924   3.882 -1.1161 -0.2471  0.4989
34081SOL     OW11210   8.686   3.498  11.749  0.4820 -0.2428 -0.1647
34081SOL    HW111211   8.634   3.438  11.696 -0.0414  0.0456  0.0086
34081SOL    HW211212   8.768   3.452  11.765  0.4260 -0.5502 -0.7631
34082SOL     OW11213   0.964   9.735   9.155  0.6642  0.1372  0.0542
34082SOL    HW111214   0.948   9.829   9.158 -0.0291  0.0216  0.1934
34082SOL    HW211215   0.889   9.700   9.107 -0.3000 -0.5816  1.9670
34083SOL     OW11216   2.126   0.675   7.630 -0.2716 -0.0031 -0.1109
34083SOL    HW111217   2.120   0.690   7.724  1.6258 -3.1030  0.6625
34083SOL    HW211218   2.126   0.579   7.621 -2.5579  0.1468 -3.4899
34084SOL     OW11219   1.497  11.922   0.777  0.5316  0.2587 -0.2842
34084SOL    HW111220   1.427  11.885   0.831  0.4641  0.5637 -0.1628
34084SOL    HW211221   1.495  11.870   0.697  0.4736 -0.0399 -0.0902
34085SOL     OW11222  10.407   3.115  10.110  0.6012 -0.2976 -0.0054
34085SOL    HW111223  10.378   3.024  10.113  1.1005 -0.4502  0.3078
34085SOL    HW211224  10.368   3.150  10.030  1.1763 -1.0542 -0.6354
34086SOL     OW11225   7.273   0.193   7.395 -0.3064 -0.1146  0.4067
34086SOL    HW111226   7.191   0.216   7.352 -0.7861  0.2597  1.4766
34086SOL    HW211227   7.268   0.237   7.480  0.6049 -0.8349  0.8459
34087SOL     OW11228  12.120   6.135   8.535  0.3359  0.0993 -0.2910
34087SOL    HW111229  12.091   6.046   8.518  1.7326 -0.1550 -1.5148
34087SOL    HW211230  12.093   6.152   8.625 -0.1453 -1.4725 -0.1122
34088SOL     OW11231  11.341   7.236   7.773 -0.3392  0.2278 -0.5650
34088SOL    HW111232  11.253   7.274   7.772 -0.0488  0.9141 -0.9907
34088SOL    HW211233  11.347   7.193   7.858 -0.8907  0.6453 -0.3018
34089SOL     OW11234   6.956   8.220  10.718  0.4618 -0.6437  0.2075
34089SOL    HW111235   6.904   8.171  10.782  2.0102 -0.5467  1.6061
34089SOL    HW211236   6.943   8.312  10.742  1.9348 -0.6512  1.1593
34090SOL     OW11237   3.249   7.895   1.513 -0.7401 -0.1401  0.3070
34090SOL    HW111238   3.239   7.801   1.495  1.8014 -0.4844  0.3943
34090SOL    HW211239   3.212   7.938   1.436 -0.0086 -1.2887 -0.7084
34091SOL     OW11240   6.528   1.682  10.952 -0.2001 -0.1156 -0.3106
34091SOL    HW111241   6.490   1.595  10.966  0.5379 -0.2925  0.7506
34091SOL    HW211242   6.503   1.732  11.030 -1.2857  0.8935 -1.2776
34092SOL     OW11243   8.793   3.829   0.015  0.6797 -0.0463  0.0208
34092SOL    HW111244   8.716   3.861   0.063  1.6996  2.6111  0.0696
34092SOL    HW211245   8.840   3.909  -0.009  3.1656 -1.5724 -0.4639
34093SOL     OW11246   5.512   5.679   7.041 -0.0805 -0.1202  0.4952
34093SOL    HW111247   5.551   5.766   7.042  1.0704 -0.6076  1.2188
34093SOL    HW211248   5.464   5.675   6.958 -1.8737  1.8846  1.3499
34094SOL     OW11249   2.342   1.914   4.663 -0.1374  0.5414  0.2900
34094SOL    HW111250   2.261   1.964   4.674 -0.9673 -0.0910 -2.3159
34094SOL    HW211251   2.405   1.977   4.628 -0.3230  0.4118 -0.2767
34095SOL     OW11252   9.712   7.743   0.229 -0.4226 -0.5640  0.6677
34095SOL    HW111253   9.700   7.668   0.171 -2.5536 -1.8954  2.6778
34095SOL    HW211254   9.644   7.805   0.201  0.6920  0.2461 -0.3394
34096SOL     OW11255   1.799   0.399   6.090 -0.5917 -0.2275 -0.1911
34096SOL    HW111256   1.872   0.451   6.057 -0.8250  1.1215  1.3214
34096SOL    HW211257   1.790   0.425   6.181 -1.6193 -1.9412  0.2391
34097SOL     OW11258   9.483   0.397   9.156 -0.1170 -0.2864  0.0662
34097SOL    HW111259   9.538   0.468   9.123  1.0008 -0.4750  1.4140
34097SOL    HW211260   9.396   0.436   9.166  0.4680  0.8840  0.7667
34098SOL     OW11261   9.624  11.712   7.004  0.1199 -0.1152 -0.4527
34098SOL    HW111262   9.532  11.700   7.027  0.1145 -0.9693 -0.8736
34098SOL    HW211263   9.666  11.630   7.031  0.3443 -0.6378 -2.2552
34099SOL     OW11264  12.010   2.492   2.761  0.1448  0.1649 -0.3211
34099SOL    HW111265  12.064   2.440   2.701  1.1496  1.6605 -0.7732
34099SOL    HW211266  11.920   2.474   2.734  0.5050 -0.7050 -0.9866
34100SOL     OW11267   3.744   0.537   2.920  0.0429  0.1824  0.2480
34100SOL    HW111268   3.797   0.615   2.904  1.2482 -0.6926 -0.1523
34100SOL    HW211269   3.656   0.571   2.937 -0.0201  1.5316 -2.2519
34101SOL     OW11270  12.142   5.826   1.001 -0.0266 -0.1408 -0.4639
34101SOL    HW111271  12.166   5.905   1.048  1.3191  0.7955 -2.5445
34101SOL    HW211272  12.226   5.788   0.973 -0.6459 -2.2493  0.3557
34102SOL     OW11273   0.563   1.565   1.582  0.1605  0.0418 -0.5389
34102SOL    HW111274   0.636   1.503   1.577  0.5910  0.5958 -1.3920
34102SOL    HW211275   0.547   1.575   1.676  1.6182  0.4052 -0.3006
34103SOL     OW11276   2.406  12.153   9.585  0.2205  0.4110  1.0923
34103SOL    HW111277   2.429  12.170   9.676 -0.0850  0.8245  1.0969
34103SOL    HW211278   2.344  12.080   9.590 -0.2664  0.8317  1.2685
34104SOL     OW11279   8.420   4.687   0.371 -0.1531  0.1600 -0.6035
34104SOL    HW111280   8.498   4.740   0.383  1.5064 -2.2273  0.0520
34104SOL    HW211281   8.401   4.652   0.459 -2.7993  1.6809 -0.4735
34105SOL     OW11282  10.929   5.063   2.047  0.0744 -0.0575  0.2333
34105SOL    HW111283  10.881   5.022   1.975  1.9193 -0.6782 -0.6850
34105SOL    HW211284  11.008   5.098   2.007  2.4453 -2.6176  2.2682
34106SOL     OW11285   2.735   2.882   4.266 -0.0606 -0.0032 -0.3273
34106SOL    HW111286   2.814   2.934   4.252 -0.8209  0.9876 -1.0278
34106SOL    HW211287   2.675   2.942   4.311 -1.4222  0.1964 -2.2881
34107SOL     OW11288   5.309   0.284   9.801  0.5819 -0.4484 -0.7681
34107SOL    HW111289   5.299   0.200   9.754 -0.6438  0.5987 -2.5023
34107SOL    HW211290   5.329   0.347   9.732 -1.7263  1.2520 -0.0011
34108SOL     OW11291   8.146   5.414   2.665  0.4382 -0.3393 -0.1898
34108SOL    HW111292   8.161   5.433   2.757  0.2186  1.8067 -0.5278
34108SOL    HW211293   8.233   5.408   2.626  0.6330 -3.6146  0.4791
34109SOL     OW11294   9.656   8.533   0.438 -0.7454 -0.1075 -0.0512
34109SOL    HW111295   9.578   8.585   0.456 -1.9464 -1.8613  0.0180
34109SOL    HW211296   9.728   8.597   0.437 -2.1074  1.4895  0.2662
34110SOL     OW11297   5.310   4.628   6.022  0.5182 -0.0805 -0.1320
34110SOL    HW111298   5.268   4.712   6.038  0.1950 -0.1131 -0.7439
34110SOL    HW211299   5.259   4.590   5.950  0.8478 -0.6629 -0.0628
34111SOL     OW11300   7.444   0.663   1.164 -0.4288 -0.3206  0.0950
34111SOL    HW111301   7.422   0.571   1.176 -1.6435 -0.2065 -0.9733
34111SOL    HW211302   7.432   0.702   1.251 -2.2136 -0.7493  0.0859
34112SOL     OW11303   8.096   6.052   6.088  0.1385  0.0383 -0.2231
34112SOL    HW111304   8.056   6.021   6.170 -2.5358 -1.0377 -1.7989
34112SOL    HW211305   8.022   6.060   6.028  2.0158  0.8472 -2.5383
34113SOL     OW11306   6.834   2.792   5.553 -0.2637 -0.1412 -0.6103
34113SOL    HW111307   6.754   2.741   5.568  0.2057 -1.4384 -2.1640
34113SOL    HW211308   6.895   2.762   5.619 -1.0246  0.8648  0.5957
34114SOL     OW11309   8.779   0.894   5.430  0.0026  0.3009  0.3137
34114SOL    HW111310   8.747   0.915   5.342  0.5232  0.6738  0.2121
34114SOL    HW211311   8.871   0.873   5.418  0.2844  1.1577  0.8805
34115SOL     OW11312   2.926   9.247   5.463  0.7064 -0.1735 -0.3086
34115SOL    HW111313   2.888   9.178   5.409 -1.7967  1.4357 -0.7823
34115SOL    HW211314   2.976   9.301   5.401 -1.7806  1.4073 -1.0706
34116SOL     OW11315   6.749   5.210   8.896  0.3780  0.3051 -0.3430
34116SOL    HW111316   6.836   5.236   8.865  1.0087 -2.0994 -0.7703
34116SOL    HW211317   6.709   5.168   8.820 -1.8354  2.6941 -0.6275
34117SOL     OW11318   7.506  10.239   0.381 -0.0292  0.0269  0.0053
34117SOL    HW111319   7.442  10.263   0.314 -0.5690 -1.3314  0.0016
34117SOL    HW211320   7.489  10.299   0.453 -1.0359 -0.0440 -0.1588
34118SOL     OW11321   1.587  11.862   5.298 -0.1180 -0.1430  0.3260
34118SOL    HW111322   1.645  11.879   5.223  0.3717  0.4992  0.8435
34118SOL    HW211323   1.499  11.859   5.260  0.1395  0.0333 -0.2997
34119SOL     OW11324   8.971   5.324   7.063  0.2916 -0.2456 -0.1015
34119SOL    HW111325   8.932   5.271   6.994 -0.3933  0.6311 -0.4137
34119SOL    HW211326   9.065   5.322   7.045  0.1330 -0.1122 -1.0046
34120SOL     OW11327   7.986   1.342   5.508 -0.3094  0.4963  0.3284
34120SOL    HW111328   7.926   1.344   5.433  2.8862  2.9975 -2.4673
34120SOL    HW211329   7.982   1.431   5.544  1.5657  0.6952  0.1410
34121SOL     OW11330  11.640   5.911   0.448 -0.1019  0.4286  0.4532
34121SOL    HW111331  11.663   5.819   0.462  1.1339  0.6813  0.2261
34121SOL    HW211332  11.688   5.936   0.369 -2.0067  0.7386 -0.6656
34122SOL     OW11333   0.117  11.333  10.387 -0.3392 -0.2921 -0.1162
34122SOL    HW111334   0.148  11.326  10.297  0.3516 -0.1996  0.1104
34122SOL    HW211335   0.079  11.421  10.392  0.5407  0.0920 -0.0423
34123SOL     OW11336   4.569   1.139  10.194 -0.5918 -0.0003  0.2001
34123SOL    HW111337   4.485   1.107  10.163 -1.1108  1.1776  0.3136
34123SOL    HW211338   4.626   1.062  10.196 -1.7230 -0.8465  0.3272
34124SOL     OW11339   2.886   9.538   9.258 -0.0178 -0.4220  0.3156
34124SOL    HW111340   2.911   9.615   9.309  0.5976 -0.9767  0.8699
34124SOL    HW211341   2.937   9.544   9.178  0.7575 -0.7459  0.7768
34125SOL     OW11342  10.737   4.518   8.593  0.0486  0.1412  0.1944
34125SOL    HW111343  10.679   4.445   8.612  0.2990 -0.9053 -2.5984
34125SOL    HW211344  10.691   4.595   8.628 -1.2272 -1.0839  1.3290
34126SOL     OW11345   9.949   4.708  11.128 -0.2933  0.2900 -0.9436
34126SOL    HW111346   9.943   4.617  11.100  2.7275 -0.2771 -0.1263
34126SOL    HW211347   9.868   4.724  11.176 -0.2135 -2.5417  0.3392
34127SOL     OW11348   0.416  10.777  10.094  0.2747  0.3655 -0.0032
34127SOL    HW111349   0.340  10.833  10.107  0.6618  1.0873 -0.7794
34127SOL    HW211350   0.480  10.833  10.051  0.7332 -0.6268 -0.6421
34128SOL     OW11351   4.616   1.564   5.451 -0.4418  0.2092  0.7664
34128SOL    HW111352   4.594   1.476   5.479  1.3106 -0.1138  1.2556
34128SOL    HW211353   4.662   1.552   5.368  0.5429  0.5790  1.2435
34129SOL     OW11354  11.091  12.462   7.946  0.4842  0.3128  0.4486
34129SOL    HW111355  11.155  12.391   7.950  0.7103  0.4569 -0.4437
34129SOL    HW211356  11.142  12.541   7.959  0.8226  0.5816 -2.0831
34130SOL     OW11357  12.363   5.055   3.858  0.2788 -0.2027 -0.1764
34130SOL    HW111358  12.356   4.992   3.786 -0.4497 -0.5980  0.2345
34130SOL    HW211359  12.275   5.090   3.868  0.7453  1.2239 -0.6789
34131SOL     OW11360  11.690   1.571   9.613 -0.1573 -0.2898 -0.2449
34131SOL    HW111361  11.631   1.553   9.686 -0.5602 -1.6223 -0.8660
34131SOL    HW211362  11.683   1.666   9.599 -1.2253 -0.2484  0.4686
34132SOL     OW11363   7.075  11.626   4.645  0.0537 -0.8886  0.2750
34132SOL    HW111364   7.059  11.617   4.739 -0.6591 -2.6433  0.0316
34132SOL    HW211365   7.115  11.543   4.619 -0.4967 -0.7567 -1.0993
34133SOL     OW11366   3.386   7.078   9.760  0.0626  0.3636  0.7854
34133SOL    HW111367   3.405   7.003   9.816 -0.9989 -0.6508 -0.1574
34133SOL    HW211368   3.409   7.048   9.672  0.6844  1.5478  0.5193
34134SOL     OW11369  10.125  11.585  11.097 -0.2992  1.0347 -0.5402
34134SOL    HW111370  10.064  11.656  11.117 -0.2553  1.1571 -0.8473
34134SOL    HW211371  10.205  11.630  11.068 -0.1981  0.8636 -0.5277
34135SOL     OW11372   4.181  11.503   5.917  0.3177 -0.4109 -0.6796
34135SOL    HW111373   4.146  11.419   5.945  0.4900  0.2500  1.6819
34135SOL    HW211374   4.276  11.490   5.916  0.5021  0.2770  1.8007
34136SOL     OW11375   3.366  10.345   5.019 -0.5272  0.0873 -0.2505
34136SOL    HW111376   3.399  10.367   5.106  0.7745  0.9615 -0.9217
34136SOL    HW211377   3.428  10.280   4.986  0.3070  1.3623 -1.3340
34137SOL     OW11378   1.014   6.856   6.648 -0.0217  0.0432  0.1862
34137SOL    HW111379   0.989   6.937   6.604 -0.3396 -0.1625 -0.0229
34137SOL    HW211380   1.108   6.847   6.631 -0.0120  0.3024  0.1009
34138SOL     OW11381   0.510   0.283   6.523  0.5204 -0.1510  0.8810
34138SOL    HW111382   0.464   0.341   6.462 -0.5450 -1.9921 -0.1270
34138SOL    HW211383   0.524   0.337   6.601 -1.1886  1.1978  0.3060
34139SOL     OW11384   4.348   6.852   4.361 -0.1411  0.2963 -0.3778
34139SOL    HW111385   4.312   6.862   4.449 -0.0603  1.1497 -0.4394
34139SOL    HW211386   4.434   6.811   4.375 -0.0290  0.6406 -0.0441
34140SOL     OW11387   5.205   4.658   5.672 -0.0745  0.2338  0.2811
34140SOL    HW111388   5.264   4.719   5.717  0.4732 -0.1928  0.1470
34140SOL    HW211389   5.154   4.617   5.742  0.8158 -0.4694  0.5280
34141SOL     OW11390   6.993   8.873   5.623  0.2250 -0.0386  0.0266
34141SOL    HW111391   7.075   8.879   5.574 -0.8510 -0.7222 -1.9416
34141SOL    HW211392   6.972   8.964   5.646  1.1365  0.2076 -0.0906
34142SOL     OW11393   6.329  12.171   7.780 -0.8721 -0.1273 -0.3950
34142SOL    HW111394   6.307  12.175   7.687  0.4648  0.1056 -0.7286
34142SOL    HW211395   6.422  12.146   7.782 -0.8433 -0.0101  0.8687
34143SOL     OW11396   5.253   1.734  10.433 -0.6361  0.5424 -0.0373
34143SOL    HW111397   5.223   1.801  10.495 -3.0354 -1.9395  1.7762
34143SOL    HW211398   5.326   1.691  10.478  0.3972  1.4172 -0.8538
34144SOL     OW11399   5.894   3.915   9.131  0.0491  0.1916  0.6998
34144SOL    HW111400   5.977   3.948   9.165 -0.5082  0.5175  1.7992
34144SOL    HW211401   5.914   3.826   9.100  0.7549  0.1821  1.1714
34145SOL     OW11402  10.680   9.706  10.415  0.3095  0.3709  0.3996
34145SOL    HW111403  10.738   9.777  10.390  0.8016 -0.6735 -1.6875
34145SOL    HW211404  10.736   9.628  10.418 -0.2994 -0.0430  2.1438
34146SOL     OW11405   2.508   9.426   5.352 -0.0160  0.0049  0.1674
34146SOL    HW111406   2.427   9.471   5.328  0.5706  1.0489  0.0562
34146SOL    HW211407   2.577   9.480   5.313  1.0134  1.7764  3.9749
34147SOL     OW11408   4.628   3.666  11.657 -0.9349 -0.0399 -0.0591
34147SOL    HW111409   4.542   3.673  11.698 -0.4907  1.1958  0.7278
34147SOL    HW211410   4.642   3.751  11.616 -0.5424 -0.6101 -1.1387
34148SOL     OW11411   7.564  10.060   9.149  0.0726 -0.6235  0.0506
34148SOL    HW111412   7.651  10.099   9.153 -0.0820 -0.3079  0.3569
34148SOL    HW211413   7.581   9.965   9.147  0.4641 -0.5541 -1.2227
34149SOL     OW11414   5.496   0.278   3.275 -0.2252 -0.4406  0.7240
34149SOL    HW111415   5.452   0.197   3.300 -0.2714 -0.1866  1.4916
34149SOL    HW211416   5.541   0.306   3.354  1.9829 -1.0951 -0.2370
34150SOL     OW11417   5.152   3.564   2.232 -0.8784 -0.3316 -0.2522
34150SOL    HW111418   5.224   3.625   2.249 -1.7251  0.0477  2.4518
34150SOL    HW211419   5.100   3.606   2.164  0.7095 -0.0129 -1.3268
34151SOL     OW11420   7.300   6.207   1.217  0.2303  0.1243 -0.0919
34151SOL    HW111421   7.393   6.225   1.201  0.6391 -0.0835  1.8225
34151SOL    HW211422   7.283   6.243   1.304 -1.5090  0.1784 -0.4128
34152SOL     OW11423  10.973   5.143  12.313  0.2252 -0.1752  0.7134
34152SOL    HW111424  10.979   5.230  12.353  3.7639 -0.3426  0.8727
34152SOL    HW211425  10.963   5.161  12.219 -0.0350  0.3540  0.8353
34153SOL     OW11426   6.025   8.272  10.892  0.5794 -0.2237 -0.6083
34153SOL    HW111427   5.946   8.217  10.891 -0.5501  1.2094  1.4913
34153SOL    HW211428   6.062   8.259  10.979  0.4725  2.0255 -0.1807
34154SOL     OW11429   0.304   1.595   6.684 -0.5105 -0.5723 -0.4122
34154SOL    HW111430   0.385   1.623   6.726 -0.4398  1.0517 -1.5236
34154SOL    HW211431   0.240   1.662   6.709 -0.7958 -0.3165 -1.7448
34155SOL     OW11432   8.204   5.473   2.941 -0.4290 -0.1756 -0.3028
34155SOL    HW111433   8.269   5.403   2.936 -0.0552  0.1268  0.2181
34155SOL    HW211434   8.157   5.456   3.023 -1.4668 -0.7818 -1.0045
34156SOL     OW11435   7.185   6.471   4.987  0.1980 -0.5797 -0.3588
34156SOL    HW111436   7.224   6.392   4.949  0.4894 -0.8790  0.5413
34156SOL    HW211437   7.121   6.499   4.922  1.9103 -0.0620 -1.9131
34157SOL     OW11438  12.147   3.151   4.488  0.1415  0.0081  0.2009
34157SOL    HW111439  12.081   3.136   4.420  0.9761  0.3003 -0.7045
34157SOL    HW211440  12.229   3.163   4.439  0.4738  1.9334  1.1591
34158SOL     OW11441   4.809   2.182   7.704 -0.0602  0.2733 -0.1376
34158SOL    HW111442   4.865   2.110   7.732  0.4754 -0.0902 -1.9987
34158SOL    HW211443   4.724   2.142   7.687 -0.0334  0.2607 -0.2426
34159SOL     OW11444  11.980   0.150   7.435  0.1783  0.5171  0.3077
34159SOL    HW111445  11.888   0.129   7.451  0.5533 -0.6493  1.0827
34159SOL    HW211446  11.996   0.231   7.483 -0.3896  0.6196  0.3233
34160SOL     OW11447   6.535   2.375   6.070  0.0671 -0.0885  0.4928
34160SOL    HW111448   6.566   2.462   6.092  0.4951 -0.1637  0.1938
34160SOL    HW211449   6.486   2.386   5.988  0.5925 -0.2140  0.1552
34161SOL     OW11450   6.814  11.516   5.634  0.7372 -0.3042 -0.2340
34161SOL    HW111451   6.890  11.478   5.678  0.8766  0.6751  0.4131
34161SOL    HW211452   6.775  11.573   5.700 -0.3022 -0.4503 -0.7085
34162SOL     OW11453   8.161  10.453   0.160  0.6817  0.2407 -0.1854
34162SOL    HW111454   8.229  10.424   0.099  1.9834  1.1230  0.7957
34162SOL    HW211455   8.152  10.380   0.221  1.2762  0.4037  0.1029
34163SOL     OW11456   8.554   3.373  10.988  0.3031 -0.6258  0.4977
34163SOL    HW111457   8.645   3.399  10.999 -0.3900  1.4116  2.0458
34163SOL    HW211458   8.532   3.403  10.899  0.2621  2.0777  1.3177
34164SOL     OW11459   2.727   7.900   4.858  0.1328  0.2715 -0.1780
34164SOL    HW111460   2.802   7.907   4.916 -0.3240  0.7495  0.3558
34164SOL    HW211461   2.698   7.809   4.868  0.5936  0.0985 -0.3458
34165SOL     OW11462   6.552   9.148  10.809  0.0831  0.3100  0.0549
34165SOL    HW111463   6.491   9.153  10.735  1.3664  1.5300 -0.9994
34165SOL    HW211464   6.618   9.215  10.789  0.7598  0.2971  2.0643
34166SOL     OW11465   8.144   8.143   3.636  0.1779 -0.0184 -0.8163
34166SOL    HW111466   8.144   8.052   3.605  1.7206 -0.2372 -0.2594
34166SOL    HW211467   8.061   8.153   3.682 -0.8998 -0.5395 -2.5582
34167SOL     OW11468   6.510   1.336   9.143 -0.0492 -0.4822 -0.1247
34167SOL    HW111469   6.567   1.399   9.098  0.2022  0.3563  1.2838
34167SOL    HW211470   6.557   1.316   9.224 -1.3297 -0.4765  0.6444
34168SOL     OW11471   4.888   6.808   6.761  0.3701  0.6882  0.0547
34168SOL    HW111472   4.967   6.857   6.782  0.2283 -0.0486  2.6384
34168SOL    HW211473   4.893   6.730   6.816 -1.7604  0.2126 -0.3354
34169SOL     OW11474   4.564   8.395   6.531  0.1150  0.0400  0.4509
34169SOL    HW111475   4.651   8.356   6.518 -0.2159  0.0030 -2.2709
34169SOL    HW211476   4.568   8.434   6.618  2.2740 -1.4281  1.0985
34170SOL     OW11477   8.848   5.801   4.945  0.9327  0.1153 -0.0037
34170SOL    HW111478   8.805   5.791   4.861  1.5178 -0.7387 -0.2157
34170SOL    HW211479   8.850   5.895   4.960 -0.9277  0.1844 -0.0087
34171SOL     OW11480   5.559  10.778   1.249 -0.2432 -0.6689  0.4189
34171SOL    HW111481   5.485  10.837   1.236  1.6498  1.5237 -1.6181
34171SOL    HW211482   5.529  10.693   1.215 -0.8052  1.0325 -4.0055
34172SOL     OW11483   2.123   2.190   9.322  0.0137 -0.1838  0.4376
34172SOL    HW111484   2.201   2.205   9.375  0.1502 -1.2399  0.5525
34172SOL    HW211485   2.082   2.277   9.314 -1.1545 -0.2464  4.0389
34173SOL     OW11486   7.444   7.163   0.754  0.2082 -0.0088  0.4395
34173SOL    HW111487   7.402   7.202   0.830 -1.0161  0.8741 -0.6405
34173SOL    HW211488   7.496   7.234   0.716  0.4099 -0.2959  0.1740
34174SOL     OW11489  10.445   2.068   7.858  0.4547  0.6568 -0.4556
34174SOL    HW111490  10.523   2.045   7.807 -0.0674 -0.7140 -0.7005
34174SOL    HW211491  10.447   2.163   7.865  2.0178  0.6644 -0.6564
34175SOL     OW11492   9.307   4.523   3.778 -0.1274 -0.5146 -0.3407
34175SOL    HW111493   9.332   4.615   3.778 -0.3068 -0.4654 -0.2910
34175SOL    HW211494   9.390   4.475   3.772  0.0440 -0.3724  0.8257
34176SOL     OW11495   6.334  10.889   4.941  0.2595  0.1517  0.0962
34176SOL    HW111496   6.380  10.884   5.025 -1.1387 -0.4089  0.8692
34176SOL    HW211497   6.242  10.870   4.963 -0.3008  0.9504 -1.4242
34177SOL     OW11498   7.581   4.960   2.195  0.1632  0.4717  0.4542
34177SOL    HW111499   7.669   4.996   2.187 -0.0396  1.2907  1.6054
34177SOL    HW211500   7.570   4.905   2.118  1.6425  0.4424  0.2380
34178SOL     OW11501   8.924   4.353  11.016  0.2392 -0.2502  0.8352
34178SOL    HW111502   8.875   4.284  10.972 -0.2156 -0.7007  2.0059
34178SOL    HW211503   8.980   4.306  11.078  0.9934  0.3563  0.6327
34179SOL     OW11504   9.062  11.282   4.132  0.1396  0.2819  0.4153
34179SOL    HW111505   9.044  11.329   4.213  1.9174 -0.3959  1.2461
34179SOL    HW211506   8.988  11.223   4.122 -0.2954  0.6536  1.3299
34180SOL     OW11507   0.494  11.107   9.617 -0.2695  0.0532  0.5286
34180SOL    HW111508   0.430  11.178   9.618  1.7166  1.9700  2.0347
34180SOL    HW211509   0.541  11.117   9.700  2.5546 -0.6731 -0.8797
34181SOL     OW11510  10.288   6.947   1.878  0.0256 -0.0887  0.1369
34181SOL    HW111511  10.369   6.946   1.828 -0.0511 -2.1017 -0.0380
34181SOL    HW211512  10.312   6.980   1.964  0.9354 -0.2290 -0.0616
34182SOL     OW11513  11.179   6.988   7.458 -0.5517  0.7366  0.0466
34182SOL    HW111514  11.197   6.911   7.512  0.8516  0.3201 -0.9430
34182SOL    HW211515  11.113   6.959   7.396 -1.9902  1.1462  1.3357
34183SOL     OW11516   2.978  12.417   0.904  0.6187 -0.4300  1.1683
34183SOL    HW111517   2.977  12.499   0.954  0.0028  0.2321  0.1066
34183SOL    HW211518   2.891  12.413   0.864  1.2951 -0.6094 -0.3511
34184SOL     OW11519   5.229  11.707   8.814 -0.1739 -0.3074 -0.1121
34184SOL    HW111520   5.188  11.733   8.731 -1.9388 -2.1474  0.0975
34184SOL    HW211521   5.290  11.637   8.790  2.5735  1.9761 -0.3283
34185SOL     OW11522  11.938  11.242   6.219  0.0293 -0.0791 -0.5907
34185SOL    HW111523  11.867  11.262   6.157 -1.5944 -1.3100  0.7668
34185SOL    HW211524  11.908  11.282   6.302  0.1915 -1.8465  0.3596
34186SOL     OW11525   3.320   4.402   6.537  0.7382 -0.4720 -0.0995
34186SOL    HW111526   3.304   4.483   6.488 -0.7758 -0.6055  0.1244
34186SOL    HW211527   3.242   4.349   6.522  2.3042 -2.5416 -1.4305
34187SOL     OW11528  12.162   8.132   6.480 -0.4277  0.5019 -0.0103
34187SOL    HW111529  12.222   8.107   6.410 -0.9396  1.0283 -0.6599
34187SOL    HW211530  12.077   8.138   6.437 -0.4100  2.9804  0.1348
34188SOL     OW11531   9.962   1.855   9.030 -0.5948  0.4761 -0.3958
34188SOL    HW111532   9.967   1.950   9.042 -1.8001  0.4927  0.0826
34188SOL    HW211533  10.046   1.822   9.063 -0.3769  1.3216 -0.0898
34189SOL     OW11534   2.834   0.833  11.513 -0.5021 -0.8265 -0.1110
34189SOL    HW111535   2.902   0.898  11.496 -1.5439  0.2611 -0.2542
34189SOL    HW211536   2.867   0.753  11.474  1.4998 -0.8048  1.3581
34190SOL     OW11537  10.936  11.066   9.802  0.0922  0.0387  0.0037
34190SOL    HW111538  10.849  11.103   9.786 -1.4994 -2.7107  1.5079
34190SOL    HW211539  10.970  11.116   9.876  0.1049  1.5289 -0.9707
34191SOL     OW11540  11.776   3.361   7.340 -0.0277  0.4152 -0.1479
34191SOL    HW111541  11.806   3.446   7.307 -0.4029  0.3027 -0.8024
34191SOL    HW211542  11.683   3.358   7.315 -0.2775  0.2388  0.7594
34192SOL     OW11543   8.998   0.717   4.095  0.2498  0.2548 -0.3607
34192SOL    HW111544   9.047   0.748   4.171  0.9064  0.3381 -0.8172
34192SOL    HW211545   8.962   0.796   4.055 -1.1121  0.1291  0.5271
34193SOL     OW11546  10.318   6.000   9.004  0.1505  0.5760 -0.0356
34193SOL    HW111547  10.250   6.060   9.035 -1.4931 -1.1462 -0.1810
34193SOL    HW211548  10.287   5.969   8.919  0.4432 -1.2293  0.4677
34194SOL     OW11549   5.747  12.304   4.446 -0.8099 -0.3644  0.1573
34194SOL    HW111550   5.766  12.229   4.503  1.1215  0.1755  0.2942
34194SOL    HW211551   5.733  12.265   4.360 -0.2808 -0.9427  0.3173
34195SOL     OW11552   1.511  11.790   0.206  0.2033  0.4691 -0.1360
34195SOL    HW111553   1.480  11.867   0.254 -0.0340  0.4897 -0.3262
34195SOL    HW211554   1.596  11.771   0.246 -0.0251  0.4438  0.3421
34196SOL     OW11555   2.436   3.421   1.670  0.0081  0.1985 -0.1842
34196SOL    HW111556   2.475   3.333   1.667 -0.3431  0.0462 -0.3228
34196SOL    HW211557   2.511   3.479   1.686  0.5294  0.0565 -1.8879
34197SOL     OW11558   0.602   1.355   6.805 -0.5122  0.0998 -0.4308
34197SOL    HW111559   0.638   1.280   6.852  0.6758  0.9925  0.1364
34197SOL    HW211560   0.508   1.351   6.823 -0.4778 -1.2658 -0.4568
34198SOL     OW11561  10.967   9.972  12.551 -0.4147  0.4353  0.1885
34198SOL    HW111562  10.942  10.044  12.609  0.1574  1.1597 -0.4513
34198SOL    HW211563  10.918   9.988  12.471 -1.1820 -0.5531  0.4381
34199SOL     OW11564  11.225   2.775   4.612  0.3909  0.2085 -0.1859
34199SOL    HW111565  11.273   2.691   4.611  1.1102  0.6015  0.0777
34199SOL    HW211566  11.264   2.825   4.540  0.1317  0.4067 -0.1865
34200SOL     OW11567  12.250   8.661   2.771  0.2384  0.1547 -0.3861
34200SOL    HW111568  12.173   8.609   2.792  0.3904  0.8266  2.2521
34200SOL    HW211569  12.236   8.691   2.681 -1.8788 -0.8697 -0.4552
34201SOL     OW11570   6.728   9.708   6.401 -0.8665 -0.0227  0.2711
34201SOL    HW111571   6.702   9.798   6.382 -1.9774 -0.8560 -2.7558
34201SOL    HW211572   6.816   9.715   6.437 -0.1196  2.2153 -1.7520
34202SOL     OW11573  10.298   7.618   4.209  0.0405 -0.8910 -0.6332
34202SOL    HW111574  10.318   7.645   4.299  0.0504  0.3587 -1.0064
34202SOL    HW211575  10.253   7.693   4.170 -1.1476 -1.8948 -1.2842
34203SOL     OW11576  10.176   8.141  12.509  0.6211  0.2855  0.0770
34203SOL    HW111577  10.264   8.173  12.528  1.0717 -1.3857  1.0767
34203SOL    HW211578  10.180   8.111  12.419  0.9267  0.6985 -0.0455
34204SOL     OW11579   9.880  12.238   1.278  0.3891 -0.0845  0.4433
34204SOL    HW111580   9.870  12.144   1.289  0.4492 -0.1278  0.1347
34204SOL    HW211581   9.883  12.273   1.367 -1.0042 -0.2192  0.5605
34205SOL     OW11582   1.908   6.351   2.722 -0.4221  0.2041  0.2657
34205SOL    HW111583   1.978   6.318   2.779  0.0553  0.7059 -0.0258
34205SOL    HW211584   1.827   6.329   2.769 -0.0185  2.2477  2.0796
34206SOL     OW11585   5.488   3.525   7.692  0.1885 -0.4110 -0.2619
34206SOL    HW111586   5.539   3.586   7.639 -0.3820  1.0727  0.8338
34206SOL    HW211587   5.539   3.444   7.691  2.6179  1.0051  0.7912
34207SOL     OW11588   0.279   0.405   3.784 -0.8033 -0.0287 -0.1708
34207SOL    HW111589   0.210   0.387   3.849 -0.6944  0.5152  0.1031
34207SOL    HW211590   0.250   0.485   3.741 -1.1738 -0.7139 -1.2206
34208SOL     OW11591   4.766  11.485   0.456  0.3885 -0.0806 -0.3499
34208SOL    HW111592   4.785  11.567   0.410 -0.4795 -0.9327 -2.3353
34208SOL    HW211593   4.697  11.507   0.518  0.8078  0.8667 -0.2039
34209SOL     OW11594  10.567  11.565   1.012 -0.6205 -0.3109 -0.3372
34209SOL    HW111595  10.542  11.621   0.939 -0.3837  0.7386  0.3561
34209SOL    HW211596  10.497  11.577   1.077 -1.5227 -2.2547 -0.8748
34210SOL     OW11597   3.983   4.786   8.828 -0.2794 -0.1193  0.2257
34210SOL    HW111598   3.918   4.856   8.834  1.0276  1.0921  0.8695
34210SOL    HW211599   3.971   4.736   8.909 -0.1635  0.3218  0.5164
34211SOL     OW11600  10.362   6.573   8.795  0.1192  0.6460  0.3362
34211SOL    HW111601  10.270   6.600   8.789 -0.6448 -1.7201  0.5060
34211SOL    HW211602  10.368   6.525   8.877  1.1835 -0.3788 -0.3090
34212SOL     OW11603   2.602   0.543   4.561 -0.6569  0.3630  0.4106
34212SOL    HW111604   2.692   0.576   4.558 -0.4458 -0.2166  0.3307
34212SOL    HW211605   2.550   0.614   4.523 -0.0702  0.1685 -0.8326
34213SOL     OW11606   4.976   1.322  11.557 -0.1266 -0.5701 -0.2650
34213SOL    HW111607   5.043   1.332  11.490 -0.0509 -0.0430 -0.1137
34213SOL    HW211608   4.904   1.278  11.512 -0.4410  0.6071 -0.9487
34214SOL     OW11609  10.013  11.390   4.572  0.4106  0.2021  0.3245
34214SOL    HW111610   9.987  11.383   4.481  2.0052 -2.2294 -0.0468
34214SOL    HW211611  10.072  11.466   4.575 -2.2686  2.4298  0.1273
34215SOL     OW11612   6.833   2.675  12.437 -0.7258  0.4439  0.0680
34215SOL    HW111613   6.905   2.618  12.410  0.0374  1.5682 -0.3240
34215SOL    HW211614   6.756   2.639  12.392 -0.5389 -1.0874  0.9066
34216SOL     OW11615   3.776   4.320   8.510 -0.5283  1.0239  0.3632
34216SOL    HW111616   3.796   4.231   8.482  0.8627  1.1117  1.0238
34216SOL    HW211617   3.722   4.356   8.439  1.7001  0.7707 -1.5738
34217SOL     OW11618   5.303  12.251  11.153  0.3126  0.1203 -0.0115
34217SOL    HW111619   5.245  12.220  11.084 -2.3229  2.1631  1.0767
34217SOL    HW211620   5.367  12.307  11.108 -1.2683  1.3044 -0.8860
34218SOL     OW11621   3.586   2.411   9.307 -0.2006 -0.6325 -0.3561
34218SOL    HW111622   3.674   2.410   9.269 -0.3749  1.7452 -0.9928
34218SOL    HW211623   3.532   2.365   9.244  0.5823 -2.2127  0.0911
34219SOL     OW11624   7.908   5.287   3.327 -0.0560  0.5450  0.2532
34219SOL    HW111625   7.871   5.364   3.370 -0.2143  0.2259  0.6892
34219SOL    HW211626   7.832   5.239   3.294 -0.0040  0.1923  0.6370
34220SOL     OW11627   1.607   1.086   0.086  0.0428 -0.3466 -0.2053
34220SOL    HW111628   1.674   1.089   0.018 -1.2537  0.6161 -1.5320
34220SOL    HW211629   1.629   1.158   0.145  0.7861 -0.7327 -0.0078
34221SOL     OW11630  12.041   5.529   7.911 -0.5799  0.8140 -0.2991
34221SOL    HW111631  12.064   5.591   7.842 -0.6099  0.5293 -0.5649
34221SOL    HW211632  12.125   5.490   7.936 -0.5196  1.1715  0.0766
34222SOL     OW11633   3.644   1.170   6.299  0.5368  0.4885 -0.6728
34222SOL    HW111634   3.555   1.205   6.285 -0.5242 -1.5275  0.6376
34222SOL    HW211635   3.693   1.244   6.334 -1.2510  1.0985  0.6959
34223SOL     OW11636   1.713   6.545  10.741  0.2577  0.0656 -0.3392
34223SOL    HW111637   1.744   6.567  10.829 -0.0161  1.5769 -0.6046
34223SOL    HW211638   1.643   6.608  10.723  0.9446  0.4060 -2.0106
34224SOL     OW11639   1.843  11.923   6.484 -0.2591  0.4448 -0.0022
34224SOL    HW111640   1.843  11.836   6.443 -0.3866 -0.3744  1.6414
34224SOL    HW211641   1.753  11.955   6.472  0.1738  1.0472 -1.9403
34225SOL     OW11642   5.410   9.130   1.376 -0.1790  0.2699  0.4318
34225SOL    HW111643   5.332   9.170   1.415  0.4164  1.3244  0.5880
34225SOL    HW211644   5.391   9.036   1.373 -1.9308  0.6236 -0.6457
34226SOL     OW11645   3.998  11.820  11.406 -0.4403 -0.0447 -0.0704
34226SOL    HW111646   3.958  11.906  11.394  0.2119  0.5286  1.5890
34226SOL    HW211647   3.973  11.771  11.328 -1.6931  1.3095 -0.5692
34227SOL     OW11648   9.797   7.017  11.063  0.5295  0.4521  0.1171
34227SOL    HW111649   9.789   7.066  10.980 -0.0652 -0.1116 -0.1723
34227SOL    HW211650   9.710   6.977  11.074  0.1990  1.5296  1.6606
34228SOL     OW11651   8.606   0.417   2.716 -0.0558  0.1544 -0.4690
34228SOL    HW111652   8.576   0.329   2.694 -1.2759 -0.1628  2.0852
34228SOL    HW211653   8.701   0.414   2.705 -0.2966 -0.6494 -2.9269
34229SOL     OW11654   9.365   4.183  10.884  0.0481 -0.1750 -0.1194
34229SOL    HW111655   9.311   4.207  10.808  1.5088  0.2363 -1.0747
34229SOL    HW211656   9.420   4.112  10.852  2.7313  1.8920 -0.4135
34230SOL     OW11657   4.201   8.896   4.300  0.1491 -0.5734 -0.0646
34230SOL    HW111658   4.127   8.957   4.300 -0.5128 -1.3511  0.3189
34230SOL    HW211659   4.242   8.907   4.386  0.3541 -0.2902 -0.1982
34231SOL     OW11660   1.795   3.869  11.140 -0.0436 -0.4264  0.0012
34231SOL    HW111661   1.851   3.862  11.217 -1.0346 -0.4492  0.7329
34231SOL    HW211662   1.748   3.952  11.151 -0.1836 -0.4207 -0.5823
34232SOL     OW11663   6.093   7.996   8.914  0.3592 -0.1106  0.0589
34232SOL    HW111664   6.014   8.045   8.938 -0.5563 -1.2332 -0.5879
34232SOL    HW211665   6.138   8.053   8.851 -0.5350  0.0424 -0.4502
34233SOL     OW11666  10.339   0.043  12.477 -0.1308 -1.1122  0.1729
34233SOL    HW111667  10.310   0.129  12.448  0.3503 -1.1311 -0.3982
34233SOL    HW211668  10.307  -0.017  12.409  1.8940 -1.0389 -0.9212
34234SOL     OW11669  10.353   0.874   4.941  0.1327 -0.3435 -0.3683
34234SOL    HW111670  10.269   0.879   4.988  1.2579 -0.1244  1.7469
34234SOL    HW211671  10.336   0.813   4.869 -1.9242 -0.0498 -0.1946
34235SOL     OW11672   5.109   7.385   2.869  0.0505  0.1720  0.0896
34235SOL    HW111673   5.098   7.307   2.925  0.7675 -1.1134 -1.4686
34235SOL    HW211674   5.189   7.426   2.901 -1.4949  1.6238  2.3795
34236SOL     OW11675  11.010  10.778   5.583  0.4297 -0.3037 -0.6154
34236SOL    HW111676  10.973  10.761   5.496 -0.2688  0.1099 -0.4043
34236SOL    HW211677  10.933  10.794   5.638  0.9327  0.8028 -0.2177
34237SOL     OW11678   8.151   5.425   1.064 -0.1553 -0.3372 -0.8965
34237SOL    HW111679   8.122   5.486   1.132 -2.2215  1.7129 -3.4231
34237SOL    HW211680   8.247   5.428   1.070 -0.2313  1.4714  0.5184
34238SOL     OW11681   9.137   9.259   5.069 -0.0909  0.0002  0.5164
34238SOL    HW111682   9.143   9.267   5.165 -1.5023  0.8363  0.5621
34238SOL    HW211683   9.213   9.306   5.036  0.0593  0.2559  1.2020
34239SOL     OW11684   8.968   9.935  11.285 -0.1871 -0.4697  0.7587
34239SOL    HW111685   8.907   9.920  11.213 -0.6346 -0.6757  1.1777
34239SOL    HW211686   9.034   9.994  11.248 -1.8697  1.6377  0.9338
34240SOL     OW11687   7.108   4.652   3.368 -0.1913 -0.6348  0.3095
34240SOL    HW111688   7.200   4.654   3.342 -0.5829  1.3733 -1.1642
34240SOL    HW211689   7.095   4.563   3.401  2.0677 -1.2182 -0.1627
34241SOL     OW11690   5.492   3.683   0.173 -0.5047  0.3069  0.3762
34241SOL    HW111691   5.535   3.607   0.213 -0.9515  0.4618  1.1624
34241SOL    HW211692   5.557   3.717   0.112 -0.7492 -1.4765 -0.9921
34242SOL     OW11693   5.416   8.417   4.406 -0.4610 -0.5683 -0.2258
34242SOL    HW111694   5.439   8.324   4.409  0.3666 -0.4747 -1.9404
34242SOL    HW211695   5.432   8.442   4.315  1.3468  1.7435  0.6241
34243SOL     OW11696  10.098   3.383  11.592 -0.3701 -0.2975 -0.1435
34243SOL    HW111697  10.097   3.292  11.621  0.1603 -0.5724 -0.9607
34243SOL    HW211698  10.125   3.432  11.669  1.4398 -1.0606 -0.2438
34244SOL     OW11699  11.668  12.032   8.370 -0.0217  0.5601 -0.0758
34244SOL    HW111700  11.691  11.975   8.443  0.7891  0.3507 -0.4851
34244SOL    HW211701  11.724  12.109   8.381  0.4688  0.3104 -0.7456
34245SOL     OW11702   6.856   2.012   2.843 -0.2062 -0.7612  0.9049
34245SOL    HW111703   6.837   2.009   2.749 -0.3609 -1.0965  0.9443
34245SOL    HW211704   6.900   1.929   2.861 -0.5844 -0.8989  1.2114
34246SOL     OW11705   9.103   8.278   8.567 -0.0835 -0.1370 -0.5100
34246SOL    HW111706   9.159   8.353   8.549  1.5806 -0.9204  1.0834
34246SOL    HW211707   9.056   8.301   8.647 -0.5429 -0.3042 -0.7254
34247SOL     OW11708   1.037   9.813   0.950  0.4293 -0.2693  0.1275
34247SOL    HW111709   1.032   9.890   0.892  1.6274 -0.8623 -0.8034
34247SOL    HW211710   1.128   9.785   0.945  0.0592 -1.6275  0.6170
34248SOL     OW11711   0.341   0.006   9.606  0.0313  0.4033 -0.0124
34248SOL    HW111712   0.309  -0.013   9.518  1.2539  1.3905 -0.7077
34248SOL    HW211713   0.413  -0.056   9.618 -1.1075 -0.7886  0.9436
34249SOL     OW11714   0.380   0.653   0.639 -0.3263 -0.8597 -0.0003
34249SOL    HW111715   0.475   0.645   0.646 -0.3853 -1.1214  0.6218
34249SOL    HW211716   0.349   0.563   0.629 -0.4690 -0.7227 -0.8521
34250SOL     OW11717   7.843   1.839   4.491  0.3909 -0.1218  0.1073
34250SOL    HW111718   7.811   1.753   4.518 -0.3194  0.2945  0.6321
34250SOL    HW211719   7.824   1.844   4.398  0.6117 -0.6038  0.0343
34251SOL     OW11720   8.998   5.819   8.159 -0.4883  1.0788  0.2385
34251SOL    HW111721   8.968   5.729   8.147  1.7491  0.1854  0.7996
34251SOL    HW211722   8.989   5.835   8.253 -0.5433  1.3119  0.1941
34252SOL     OW11723   6.868  11.675   0.754  0.4066 -0.1601 -0.1569
34252SOL    HW111724   6.799  11.671   0.821  0.4708 -1.7699 -0.1474
34252SOL    HW211725   6.937  11.728   0.794 -0.4809  0.7913  0.1525
34253SOL     OW11726   1.315   6.210   3.411 -0.5334 -0.3061  0.0956
34253SOL    HW111727   1.231   6.242   3.377 -0.5886 -0.9140 -0.3479
34253SOL    HW211728   1.376   6.283   3.397 -0.9938  0.1570  0.4658
34254SOL     OW11729   5.628   1.187   4.022 -0.6330 -0.0541 -0.3123
34254SOL    HW111730   5.572   1.264   4.016 -0.6561 -0.1529 -1.8640
34254SOL    HW211731   5.703   1.207   3.966 -0.5323 -1.0585 -0.5629
34255SOL     OW11732   9.354  11.356   1.185 -0.1494  0.2986  0.0389
34255SOL    HW111733   9.419  11.291   1.210 -1.0966 -1.1835 -1.2122
34255SOL    HW211734   9.308  11.318   1.110 -1.8218  1.6926  0.2746
34256SOL     OW11735  12.387   7.997   9.343 -0.2948  0.8007 -0.8341
34256SOL    HW111736  12.294   7.981   9.360 -0.0978 -0.1749 -0.5847
34256SOL    HW211737  12.426   7.909   9.340  0.8949  1.2329  0.6907
34257SOL     OW11738   2.360   4.014   5.485 -0.6476  0.4457 -0.1668
34257SOL    HW111739   2.395   4.059   5.562 -0.7518 -1.8607  1.3319
34257SOL    HW211740   2.407   3.931   5.482 -4.7930 -2.2548  1.1274
34258SOL     OW11741   4.601   7.245   4.381  0.2770 -1.2640 -0.1824
34258SOL    HW111742   4.628   7.157   4.408  0.7297 -0.6981  1.3371
34258SOL    HW211743   4.601   7.296   4.462 -0.4502  0.0279 -0.9508
34259SOL     OW11744  12.269  11.763   0.751 -0.2421 -0.1469  0.5633
34259SOL    HW111745  12.321  11.840   0.775  0.4240 -0.8029  1.2888
34259SOL    HW211746  12.203  11.797   0.691  0.0684  0.9827  0.8255
34260SOL     OW11747   4.292   3.637   5.593  0.2106  0.2902 -0.2961
34260SOL    HW111748   4.266   3.692   5.519  0.2123  1.1158  0.2971
34260SOL    HW211749   4.209   3.600   5.625  0.3116 -0.8193 -1.2703
34261SOL     OW11750  10.294   5.135   0.397  0.1932 -0.3181  0.2955
34261SOL    HW111751  10.208   5.094   0.392 -1.4657  2.9430 -0.8166
34261SOL    HW211752  10.341   5.101   0.320 -0.4104 -1.4059  0.3773
34262SOL     OW11753   9.484   1.607   5.811  0.3490  0.0219 -0.0397
34262SOL    HW111754   9.474   1.699   5.785  0.3794  0.3592  1.0790
34262SOL    HW211755   9.397   1.582   5.844  0.9206  0.4132  1.9068
34263SOL     OW11756   0.986  12.130  10.617  0.5187  0.2978 -0.0167
34263SOL    HW111757   0.896  12.098  10.608  0.8736 -0.3078 -1.8800
34263SOL    HW211758   1.035  12.056  10.652  0.6238  0.0258 -0.7276
34264SOL     OW11759   0.566   3.507   4.191  0.5562 -0.6742  0.0217
34264SOL    HW111760   0.604   3.465   4.268  0.5804 -0.8592 -0.0920
34264SOL    HW211761   0.472   3.512   4.211  0.7082  0.3437  0.5708
34265SOL     OW11762   2.088   6.138  10.556  0.0092  0.0449 -0.3646
34265SOL    HW111763   2.078   6.220  10.605 -0.2614 -0.6117  0.6902
34265SOL    HW211764   2.085   6.166  10.464 -2.1991  1.0142 -0.0648
34266SOL     OW11765  12.072   3.958   4.659  0.0832  0.2183  0.5843
34266SOL    HW111766  12.145   3.942   4.598  0.7922  0.9451  1.2195
34266SOL    HW211767  12.014   4.019   4.612  0.6021  0.7367  0.6037
34267SOL     OW11768   2.357  11.211  11.211  0.0820  0.2006  0.7373
34267SOL    HW111769   2.294  11.253  11.270 -0.1042  1.6649 -0.4244
34267SOL    HW211770   2.348  11.259  11.129  1.2575 -0.9250 -0.0925
34268SOL     OW11771   8.319  10.998   8.359  0.3484 -0.0213  0.0557
34268SOL    HW111772   8.336  10.960   8.446 -3.6784  1.5148  1.7531
34268SOL    HW211773   8.298  10.922   8.304 -2.1834 -0.8276  1.9358
34269SOL     OW11774   4.260   6.838  11.431 -0.7345 -0.8092  0.5504
34269SOL    HW111775   4.242   6.789  11.511  0.1892 -0.6490  0.8656
34269SOL    HW211776   4.176   6.877  11.408 -2.0489 -4.0304 -0.7796
34270SOL     OW11777   2.366   8.953  10.537  0.2359 -0.2964 -0.2476
34270SOL    HW111778   2.416   8.910  10.607 -2.6220  1.5728  3.3041
34270SOL    HW211779   2.414   9.035  10.521  2.3657 -1.8850 -2.6205
34271SOL     OW11780   3.229   0.935   3.800  0.4822 -0.1988 -0.5327
34271SOL    HW111781   3.264   0.980   3.723  1.6692 -0.0862  0.0482
34271SOL    HW211782   3.304   0.927   3.859 -0.2000 -1.0798  0.2422
34272SOL     OW11783  11.603  12.355   9.589 -0.6277  0.5720 -0.6449
34272SOL    HW111784  11.598  12.406   9.508 -1.8484  1.0935 -0.2517
34272SOL    HW211785  11.534  12.289   9.580 -0.6157  0.4890 -0.1300
34273SOL     OW11786  10.543   7.108   0.580  0.4817 -0.0847  0.1738
34273SOL    HW111787  10.515   7.199   0.592 -1.0377 -0.5374  0.2903
34273SOL    HW211788  10.637   7.109   0.596  0.4355  1.4152  0.4640
34274SOL     OW11789   1.300   1.916   0.241 -0.0706 -0.0816  0.7210
34274SOL    HW111790   1.290   1.897   0.148  0.4990  1.0431  0.4072
34274SOL    HW211791   1.326   1.833   0.281 -0.6940 -0.6615 -0.0534
34275SOL     OW11792  11.431   4.146   4.841  0.2653  0.2989 -0.1516
34275SOL    HW111793  11.507   4.170   4.789 -0.3015  0.8230 -0.7524
34275SOL    HW211794  11.383   4.228   4.853 -0.6166 -0.1549 -0.4634
34276SOL     OW11795  11.550   4.122   6.929  0.9205  0.2463  0.0063
34276SOL    HW111796  11.522   4.154   7.015  2.4263 -0.4476  0.7755
34276SOL    HW211797  11.514   4.034   6.923  1.3214  0.0734  0.1707
34277SOL     OW11798   6.682   7.921   9.607 -0.0130 -0.0141 -0.2599
34277SOL    HW111799   6.758   7.875   9.643  0.3606  0.9208  0.1802
34277SOL    HW211800   6.608   7.865   9.627  0.6502 -1.3767 -1.4707
34278SOL     OW11801   8.487   8.878   5.353 -0.5685 -0.0094  0.2044
34278SOL    HW111802   8.529   8.909   5.272 -0.0139  0.6041  0.7138
34278SOL    HW211803   8.555   8.887   5.419 -1.3793  0.6023  0.9716
34279SOL     OW11804   8.973  12.474   4.473  0.5197 -0.1622 -0.2514
34279SOL    HW111805   9.044  12.509   4.418  0.5484  0.9946  0.4870
34279SOL    HW211806   9.015  12.455   4.557 -0.0008  0.4335  0.1569
34280SOL     OW11807   5.994   2.098   3.961 -0.1204  0.0022 -0.0268
34280SOL    HW111808   5.944   2.177   3.939 -0.9772 -0.6976 -0.6471
34280SOL    HW211809   5.930   2.039   4.001  0.8841  0.2814  2.1657
34281SOL     OW11810   8.593   0.599   7.702 -0.2634  0.1143  0.0571
34281SOL    HW111811   8.617   0.514   7.667 -0.5020  0.4674 -0.9830
34281SOL    HW211812   8.632   0.662   7.642 -1.3967  0.7220 -0.0776
34282SOL     OW11813   1.673   1.839  11.660 -0.1980  0.5114 -0.0257
34282SOL    HW111814   1.721   1.890  11.725 -0.1095  0.1885  0.1666
34282SOL    HW211815   1.594   1.889  11.643 -1.2637 -0.3859  1.8890
34283SOL     OW11816   5.724   8.154   9.717  0.0058  0.1109  0.6272
34283SOL    HW111817   5.642   8.175   9.761  0.0884  0.7400  0.4761
34283SOL    HW211818   5.741   8.228   9.659 -1.7196 -2.0088 -2.9254
34284SOL     OW11819  11.723   8.798  11.947 -0.4379 -0.4789 -0.2853
34284SOL    HW111820  11.726   8.711  11.987 -0.8487  0.2454  1.4488
34284SOL    HW211821  11.655   8.844  11.997 -0.5975  0.6701 -1.5202
34285SOL     OW11822   3.386  10.904   5.808 -0.0145  0.5197  0.0236
34285SOL    HW111823   3.426  10.989   5.792 -0.3371  0.8154  0.7267
34285SOL    HW211824   3.345  10.913   5.894  0.0483 -0.3844  0.1599
34286SOL     OW11825   1.500   8.068   6.131 -0.3253  0.3695 -0.1628
34286SOL    HW111826   1.542   8.030   6.209  0.8074  0.0536 -0.9057
34286SOL    HW211827   1.406   8.065   6.151 -0.0041  1.5911  1.7715
34287SOL     OW11828   4.832  11.672  10.565  0.4121  0.6387 -0.0834
34287SOL    HW111829   4.757  11.674  10.624  0.4424  1.5526 -0.0561
34287SOL    HW211830   4.845  11.764  10.541  1.0824  0.4027 -0.6430
34288SOL     OW11831   3.741   7.215  10.350 -0.5519  0.6961  0.4252
34288SOL    HW111832   3.818   7.271  10.365 -0.0035 -0.2636  1.3223
34288SOL    HW211833   3.767   7.159  10.277  0.3224 -0.8491  1.8784
34289SOL     OW11834   7.055   5.088   0.168  0.4000  0.2045 -0.1671
34289SOL    HW111835   7.052   5.125   0.079  0.9034  0.1017 -0.2297
34289SOL    HW211836   7.135   5.035   0.169 -0.1555 -0.6497  0.0143
34290SOL     OW11837   5.085   7.487   4.862  0.0622  0.3803 -0.5157
34290SOL    HW111838   5.027   7.411   4.854 -0.1528  0.6869 -2.2693
34290SOL    HW211839   5.173   7.451   4.848  0.1425  0.1791  0.4703
34291SOL     OW11840   1.606   0.880   2.466  0.2396  0.0116 -0.1871
34291SOL    HW111841   1.544   0.949   2.444  1.1616  0.4537 -1.5195
34291SOL    HW211842   1.595   0.815   2.396  1.2027  0.0547 -0.3902
34292SOL     OW11843   2.829  11.615   8.246 -0.1091 -0.1969  0.0650
34292SOL    HW111844   2.800  11.703   8.222  1.1423 -0.0736 -1.1536
34292SOL    HW211845   2.889  11.628   8.319  1.5621  0.2196 -1.3091
34293SOL     OW11846   0.077  12.081   1.600 -0.2266 -0.0958  0.3424
34293SOL    HW111847  -0.013  12.082   1.569 -0.0785  0.8747 -0.1189
34293SOL    HW211848   0.106  12.172   1.590  1.3182 -0.6867 -1.0714
34294SOL     OW11849   4.658  11.068   6.347 -0.3727  0.1963  0.0434
34294SOL    HW111850   4.693  11.122   6.276  0.7429 -0.9197 -0.2667
34294SOL    HW211851   4.734  11.030   6.389 -1.1581 -2.0382 -0.4391
34295SOL     OW11852   5.475   2.887  11.389  0.0441 -0.0791 -0.0438
34295SOL    HW111853   5.536   2.826  11.349  0.1666 -0.0968  0.1675
34295SOL    HW211854   5.531   2.950  11.435 -0.1090 -1.6218  2.4324
34296SOL     OW11855   3.769   6.906   0.523 -0.3532 -0.7391 -0.1537
34296SOL    HW111856   3.814   6.920   0.606 -2.4884 -0.8050  1.0527
34296SOL    HW211857   3.750   6.994   0.491  1.1524 -0.6849 -1.0330
34297SOL     OW11858  10.172  11.891  12.409  0.0339 -0.0287  0.8872
34297SOL    HW111859  10.205  11.824  12.468  2.5101  0.1699 -0.1765
34297SOL    HW211860  10.219  11.971  12.432  0.0651  0.3747 -0.4424
34298SOL     OW11861  12.216   5.531   4.796  0.1730 -0.3084  0.0766
34298SOL    HW111862  12.235   5.465   4.729  0.1262  0.0947 -0.3405
34298SOL    HW211863  12.152   5.489   4.853 -1.8805  0.2669 -1.6764
34299SOL     OW11864   0.485   7.207   0.397 -1.0571  0.1916 -0.2751
34299SOL    HW111865   0.397   7.171   0.390 -0.8708 -0.0293 -1.7631
34299SOL    HW211866   0.473   7.302   0.387 -1.0284  0.0628 -1.7955
34300SOL     OW11867   4.517   4.818  10.343  0.5381  0.5531 -0.2215
34300SOL    HW111868   4.448   4.850  10.401  0.8025 -0.8028  0.9088
34300SOL    HW211869   4.587   4.883  10.352  0.2752  0.7620  0.3973
34301SOL     OW11870   1.391   7.352   8.096 -0.0715 -0.4885  0.4358
34301SOL    HW111871   1.345   7.405   8.162  1.0098 -0.0150  0.8353
34301SOL    HW211872   1.441   7.416   8.045 -0.1927 -0.9503 -0.2759
34302SOL     OW11873   8.894   6.934   0.432 -0.0149  0.3722 -0.5225
34302SOL    HW111874   8.955   6.927   0.359  1.0385  0.7672  0.3049
34302SOL    HW211875   8.945   6.910   0.509 -0.6209  1.6384  0.3163
34303SOL     OW11876   9.109   5.353  10.838 -0.7064  0.2992 -0.4358
34303SOL    HW111877   9.185   5.361  10.895 -0.4296  2.3032 -0.9831
34303SOL    HW211878   9.039   5.321  10.895 -0.4539  2.2728  1.0959
34304SOL     OW11879   0.554   4.557   0.342 -0.5325 -0.5013  0.4035
34304SOL    HW111880   0.529   4.533   0.431  0.0018 -0.4711  0.5635
34304SOL    HW211881   0.520   4.646   0.331  0.2763 -0.1218  0.9334
34305SOL     OW11882   4.700   5.071   2.154 -0.2685  0.0868  0.5985
34305SOL    HW111883   4.623   5.085   2.099  0.0312 -0.6169 -0.0213
34305SOL    HW211884   4.774   5.076   2.094  0.1839  0.8598  1.2075
34306SOL     OW11885   5.419   0.157   3.821 -0.3406 -0.3694  0.3303
34306SOL    HW111886   5.387   0.245   3.842  1.2539  0.2461  0.3265
34306SOL    HW211887   5.480   0.136   3.892 -1.0787 -1.7064  0.6037
34307SOL     OW11888   1.739   9.672   5.309 -0.6008 -0.3505 -0.3388
34307SOL    HW111889   1.648   9.663   5.339  0.0695 -0.2319  1.8327
34307SOL    HW211890   1.791   9.621   5.371  0.8196 -0.6350 -1.7047
34308SOL     OW11891  10.901   7.092   8.556 -0.2713  0.5798 -0.2532
34308SOL    HW111892  10.870   7.003   8.572  0.7309  0.1740 -0.5044
34308SOL    HW211893  10.965   7.083   8.486 -1.7152  1.7990 -1.8133
34309SOL     OW11894  12.531   2.567   6.902  0.0917 -0.0177  0.0340
34309SOL    HW111895  12.623   2.543   6.915  0.7945  2.1831 -0.4831
34309SOL    HW211896  12.514   2.635   6.966 -0.7233  0.6806 -0.8869
34310SOL     OW11897   8.615  12.542   1.229 -0.2287  0.5630 -0.4716
34310SOL    HW111898   8.587  12.626   1.195 -0.9353  1.2218  1.5922
34310SOL    HW211899   8.691  12.562   1.285 -2.1416  0.3829  2.4234
34311SOL     OW11900   9.914  10.082   7.620 -0.2158 -0.1049 -0.1746
34311SOL    HW111901   9.883  10.127   7.541 -0.8270  1.0190  0.6599
34311SOL    HW211902   9.856  10.114   7.689  0.9552 -0.2612  0.9159
34312SOL     OW11903   1.760  11.131   6.830  0.1052  0.0126 -0.4502
34312SOL    HW111904   1.723  11.163   6.912 -1.8569 -0.5328 -1.0783
34312SOL    HW211905   1.778  11.210   6.779 -2.1733  0.2805 -0.9295
34313SOL     OW11906   0.693   9.909  12.054  0.0065  0.4538  0.0509
34313SOL    HW111907   0.625   9.870  11.999 -0.9178  0.4388  1.1482
34313SOL    HW211908   0.758   9.944  11.993  0.5716 -2.2377 -1.0157
34314SOL     OW11909   0.317   2.939   7.114  0.1306  0.5892 -0.3230
34314SOL    HW111910   0.278   2.898   7.192  0.3047  2.2169  0.6733
34314SOL    HW211911   0.279   3.027   7.112  2.2810  1.5792 -0.3991
34315SOL     OW11912  10.325   9.211   0.180  0.8724  0.4966  0.3591
34315SOL    HW111913  10.407   9.164   0.196  0.2243 -1.1478 -0.8336
34315SOL    HW211914  10.349   9.283   0.123  1.4666 -0.1812 -0.2714
34316SOL     OW11915   3.785   8.266   0.293 -0.1652  0.3054 -0.6658
34316SOL    HW111916   3.781   8.344   0.348  0.3445  1.7239 -2.5339
34316SOL    HW211917   3.845   8.290   0.222  0.2769 -1.9219 -1.1175
34317SOL     OW11918  12.230   2.197   0.151 -0.2458  0.3478  0.2707
34317SOL    HW111919  12.162   2.132   0.129 -0.4910  0.5884  0.3099
34317SOL    HW211920  12.239   2.249   0.072  0.1993  0.0524  0.1227
34318SOL     OW11921   3.214   2.338   2.774 -0.4721  0.3065  0.2862
34318SOL    HW111922   3.294   2.374   2.737  0.2821 -1.6397 -0.0745
34318SOL    HW211923   3.240   2.298   2.857 -0.4370 -2.6438 -1.0111
34319SOL     OW11924   6.273   1.543  11.155  0.0625 -0.1156  0.0966
34319SOL    HW111925   6.311   1.574  11.238 -0.5868  0.0040  0.3544
34319SOL    HW211926   6.315   1.458  11.140  0.4341  0.0135  0.3723
34320SOL     OW11927   7.414   2.356   0.817  0.0750  0.8881  0.5390
34320SOL    HW111928   7.476   2.306   0.871 -0.2858  0.9344  1.0005
34320SOL    HW211929   7.450   2.351   0.728 -0.8004 -1.5806  0.2524
34321SOL     OW11930   0.082   6.657   7.030  0.2719  1.0709 -0.1195
34321SOL    HW111931   0.176   6.673   7.040  0.5075 -0.6981  0.9058
34321SOL    HW211932   0.045   6.673   7.117  0.3627 -2.4019  0.7044
34322SOL     OW11933   4.769   6.966  11.561 -0.0673  0.1778  0.2438
34322SOL    HW111934   4.840   6.933  11.617 -1.0718  1.8066  2.6173
34322SOL    HW211935   4.689   6.929  11.598 -0.6274 -0.5656 -1.5899
34323SOL     OW11936   4.823   8.365   8.262 -0.5704  0.4117  0.3493
34323SOL    HW111937   4.787   8.288   8.217  2.2638 -0.7223 -0.1841
34323SOL    HW211938   4.821   8.434   8.196  1.3129 -0.5899 -0.8528
34324SOL     OW11939   4.267   2.565   9.124 -0.2756 -0.0148 -0.8174
34324SOL    HW111940   4.359   2.587   9.141  0.2716 -2.8818  0.6766
34324SOL    HW211941   4.217   2.631   9.173  1.1119 -0.3680  1.2000
34325SOL     OW11942   3.304   5.081   5.865 -0.0313  0.4520 -0.1643
34325SOL    HW111943   3.386   5.078   5.914 -0.2513  0.4999  0.2090
34325SOL    HW211944   3.323   5.034   5.784  0.6158  1.1981 -0.4561
34326SOL     OW11945   7.024  11.429  11.249  0.3395 -0.1895  0.0533
34326SOL    HW111946   6.999  11.401  11.161 -2.4883 -0.0929  0.7197
34326SOL    HW211947   6.984  11.363  11.306  2.1241 -0.2481  1.3015
34327SOL     OW11948   0.901   1.028   4.206  0.0698  0.2269  0.2078
34327SOL    HW111949   0.982   0.984   4.233  0.3305  0.4614 -0.1743
34327SOL    HW211950   0.931   1.113   4.173 -0.2882  0.1233 -0.3809
34328SOL     OW11951   2.391   7.859   4.243  0.1237  0.1080  0.1345
34328SOL    HW111952   2.408   7.780   4.192 -0.6987 -0.0008  0.0137
34328SOL    HW211953   2.385   7.929   4.177 -1.8306 -0.1714 -0.0570
34329SOL     OW11954   1.528   1.754   9.237  0.9769  0.0661  0.3032
34329SOL    HW111955   1.605   1.757   9.293  0.6747 -0.4541  0.7558
34329SOL    HW211956   1.530   1.837   9.189  1.1837  0.5682  1.1623
34330SOL     OW11957   4.871   7.379   4.612 -0.1003  0.6928  0.6544
34330SOL    HW111958   4.795   7.365   4.669 -0.7098  2.4324  0.3404
34330SOL    HW211959   4.843   7.448   4.552  1.0505 -0.0519 -0.7977
34331SOL     OW11960   4.347   0.346   2.023 -0.2340 -0.6650 -0.5097
34331SOL    HW111961   4.387   0.323   1.939 -0.4448 -1.4445 -0.4052
34331SOL    HW211962   4.398   0.297   2.088  0.2733  0.3561 -0.1175
34332SOL     OW11963   7.779   7.663  12.406 -0.3400 -0.0168  0.5313
34332SOL    HW111964   7.865   7.621  12.401  0.6912  2.1213 -1.4568
34332SOL    HW211965   7.763   7.674  12.500  1.1295 -1.2450  0.9690
34333SOL     OW11966   8.942   8.966   5.057 -0.3883 -0.7009 -0.2000
34333SOL    HW111967   9.002   8.993   4.987  0.6137 -1.5327  0.2977
34333SOL    HW211968   8.866   8.930   5.011 -0.9268  1.1518 -0.8514
34334SOL     OW11969  11.709   9.855   1.252 -0.2723  0.6383 -0.6291
34334SOL    HW111970  11.663   9.825   1.331  1.7460 -0.7745  0.0931
34334SOL    HW211971  11.799   9.867   1.281  0.1934  1.6341 -2.3864
34335SOL     OW11972   3.440   7.222  11.609  0.1827 -0.0671 -0.0246
34335SOL    HW111973   3.372   7.158  11.625  0.7504 -0.3886  1.1816
34335SOL    HW211974   3.513   7.171  11.572  0.8688 -0.2580  1.5254
34336SOL     OW11975   3.448   9.837  12.014 -0.2785  0.1474  0.5654
34336SOL    HW111976   3.407   9.899  11.955  0.2648  0.8332  0.8985
34336SOL    HW211977   3.507   9.785  11.959 -1.1904 -0.5071  0.1765
34337SOL     OW11978   8.478   3.932   2.556 -0.6335 -0.6249 -0.0476
34337SOL    HW111979   8.444   3.875   2.487  0.9509  0.4756 -1.8088
34337SOL    HW211980   8.541   3.877   2.603 -1.4327 -1.2633  0.2875
34338SOL     OW11981   2.970   0.175   4.029  0.2631 -0.0882 -0.1908
34338SOL    HW111982   3.014   0.233   3.967  1.9761  0.3938  1.4028
34338SOL    HW211983   3.039   0.144   4.087 -1.1539 -1.1311  1.0198
34339SOL     OW11984   2.170  10.424   8.736 -0.7137  0.5980  0.1101
34339SOL    HW111985   2.141  10.480   8.664  1.1661  1.1171 -0.3033
34339SOL    HW211986   2.257  10.456   8.758 -0.0152 -1.4533  0.5984
34340SOL     OW11987   5.040  11.513  11.667 -0.6036 -0.0994 -0.1518
34340SOL    HW111988   5.069  11.426  11.638 -0.1672 -0.2510  0.6869
34340SOL    HW211989   5.097  11.574  11.621 -0.9943 -0.2489 -0.8411
34341SOL     OW11990   5.664   0.945   2.736  0.1641 -0.1790  0.3043
34341SOL    HW111991   5.614   0.867   2.713  0.5850 -0.9428  1.8195
34341SOL    HW211992   5.676   0.938   2.831  0.3523  1.6563  0.4410
34342SOL     OW11993   5.349   9.933   7.825  0.5256 -0.5980 -0.4695
34342SOL    HW111994   5.376   9.842   7.810  1.5670 -0.6670  1.4999
34342SOL    HW211995   5.409   9.985   7.771 -0.1119 -1.0528 -1.6512
34343SOL     OW11996   9.221   2.289  11.159 -0.5003  0.1705 -0.0655
34343SOL    HW111997   9.271   2.293  11.240 -1.8695  0.0505  0.8184
34343SOL    HW211998   9.152   2.355  11.170 -0.7922  0.0565 -1.0777
34344SOL     OW11999   2.422   8.130   6.520 -0.0493 -0.0176 -0.0055
34344SOL    HW112000   2.445   8.194   6.452  2.7318 -0.1218  0.7280
34344SOL    HW212001   2.356   8.175   6.574  2.2689  2.6128  0.8766
34345SOL     OW12002   2.127   3.175   8.856  0.3015 -0.4953  0.1986
34345SOL    HW112003   2.190   3.245   8.839 -0.8871  0.4727 -0.4045
34345SOL    HW212004   2.042   3.216   8.844 -0.4432 -2.1887 -0.7000
34346SOL     OW12005   8.814   7.469   0.251  0.1140 -0.4285 -0.4496
34346SOL    HW112006   8.838   7.378   0.268  0.5898  0.0342  1.6277
34346SOL    HW212007   8.895   7.508   0.217  0.2670 -0.5177 -0.1966
34347SOL     OW12008   9.688   4.932  10.097 -0.0470 -0.1646 -0.0748
34347SOL    HW112009   9.686   5.025  10.120  1.0718 -0.2466  0.4356
34347SOL    HW212010   9.598   4.910  10.076 -0.3789  0.9615  0.1213
34348SOL     OW12011   7.542  11.881  10.062 -0.3890 -0.0106 -0.5091
34348SOL    HW112012   7.580  11.794  10.067 -0.3411 -0.1064 -1.9198
34348SOL    HW212013   7.449  11.866  10.044 -0.7851  0.2349  1.2233
34349SOL     OW12014   9.524   1.230  12.470  0.1573 -0.3279 -0.2684
34349SOL    HW112015   9.538   1.281  12.390 -0.1623 -0.4157 -0.3804
34349SOL    HW212016   9.574   1.276  12.537 -0.0474  0.0731 -0.3900
34350SOL     OW12017   1.449   1.866  11.910 -0.3973 -0.0866  0.1228
34350SOL    HW112018   1.412   1.801  11.850 -0.6256 -0.2185  0.4063
34350SOL    HW212019   1.489   1.815  11.980  0.0161  0.0637 -0.0022
34351SOL     OW12020   8.932   4.232   1.379  0.1119 -0.1986 -0.7994
34351SOL    HW112021   8.871   4.297   1.415 -1.2013 -1.5576 -0.4834
34351SOL    HW212022   8.944   4.259   1.288  1.2537  1.6673 -0.1462
34352SOL     OW12023   4.230  11.343   2.743  0.0069 -0.0994  0.2283
34352SOL    HW112024   4.221  11.407   2.814  1.8156 -1.4769  1.8012
34352SOL    HW212025   4.141  11.333   2.709 -0.5715  2.1070  0.8987
34353SOL     OW12026  10.973   7.133   5.429 -0.5358  0.1899 -0.0117
34353SOL    HW112027  11.068   7.123   5.438 -0.6122 -0.7933 -0.1043
34353SOL    HW212028  10.948   7.063   5.368 -1.7209 -1.6675  2.4008
34354SOL     OW12029   0.755  11.651   1.810 -0.5670 -0.4441  0.7717
34354SOL    HW112030   0.781  11.664   1.901  0.4923  0.6297  0.3478
34354SOL    HW212031   0.664  11.681   1.806 -0.2388  0.6622  1.2327
34355SOL     OW12032   7.116  10.324  12.390  0.5118  0.7540  0.1196
34355SOL    HW112033   7.174  10.267  12.440 -0.4567 -1.2750 -0.9482
34355SOL    HW212034   7.171  10.357  12.319  0.5029 -0.9344 -0.7300
34356SOL     OW12035   8.429   4.389   4.930 -0.0642  0.3607  0.5400
34356SOL    HW112036   8.446   4.302   4.894  0.2696  1.1279 -1.3114
34356SOL    HW212037   8.514   4.434   4.925 -0.0708  0.5982  2.1036
34357SOL     OW12038   2.867   5.737   2.204  0.0897 -0.0201  0.1928
34357SOL    HW112039   2.942   5.732   2.146 -0.4406 -0.3836 -0.4848
34357SOL    HW212040   2.836   5.646   2.211 -1.0456  0.2908 -0.5744
34358SOL     OW12041   5.565   6.699   3.004 -0.3661  0.2382  0.2837
34358SOL    HW112042   5.473   6.724   3.010 -0.4595 -0.3425  1.6462
34358SOL    HW212043   5.565   6.605   3.021  0.2034 -0.3653 -2.5715
34359SOL     OW12044   8.324   3.284   4.824 -0.1346  0.1205  0.4862
34359SOL    HW112045   8.229   3.289   4.837 -0.1507 -1.6597  1.2767
34359SOL    HW212046   8.360   3.353   4.880 -0.9237  0.6150  0.3985
34360SOL     OW12047   2.506   4.935  10.974  0.1784 -0.0048  0.5207
34360SOL    HW112048   2.545   4.898  10.894 -0.4048 -1.5430  0.9138
34360SOL    HW212049   2.470   5.020  10.947 -0.3329 -0.6631 -0.9422
34361SOL     OW12050   0.528  10.165  10.340  0.3103 -0.7049  0.5368
34361SOL    HW112051   0.453  10.139  10.287  1.8022  0.6613 -2.4454
34361SOL    HW212052   0.595  10.190  10.277  3.0664 -1.1562  3.0717
34362SOL     OW12053   4.089  10.105   5.971 -0.3006  0.0980  0.1014
34362SOL    HW112054   4.018  10.065   5.921 -0.4205  0.4779 -0.0344
34362SOL    HW212055   4.057  10.193   5.991  0.1603  0.2957 -0.0258
34363SOL     OW12056   9.465   0.451   0.181 -0.5971  0.2590 -0.2023
34363SOL    HW112057   9.431   0.364   0.163  2.0835 -0.6092 -1.4967
34363SOL    HW212058   9.531   0.438   0.249  1.7095  0.7275 -2.1872
34364SOL     OW12059   4.197  10.615  10.144  0.3392  0.8715  0.0045
34364SOL    HW112060   4.130  10.550  10.167  0.1011  0.0487 -2.6897
34364SOL    HW212061   4.279  10.576  10.174 -0.0083  0.2208  0.1332
34365SOL     OW12062  12.140   7.995   7.157  0.1283 -0.2765 -0.6142
34365SOL    HW112063  12.187   7.944   7.222  0.8650  2.2605  0.9550
34365SOL    HW212064  12.061   7.944   7.139  0.8723 -1.9940  0.7426
34366SOL     OW12065   4.570   0.239   6.004  0.1625 -0.3995  0.1292
34366SOL    HW112066   4.601   0.272   6.088  1.9120  0.7644 -0.9101
34366SOL    HW212067   4.483   0.277   5.994  0.9976  1.6568  0.2569
34367SOL     OW12068   1.394   1.245   2.020  0.4369  0.3193  0.2375
34367SOL    HW112069   1.457   1.316   2.033  1.9458 -0.4956 -1.9942
34367SOL    HW212070   1.445   1.174   1.981 -1.3280 -1.4642  0.9777
34368SOL     OW12071   2.676  11.266   6.370  0.4327  0.0949 -0.6179
34368SOL    HW112072   2.736  11.262   6.295  2.0587 -0.5926  0.6779
34368SOL    HW212073   2.638  11.178   6.374  0.7116 -0.0138 -0.3517
34369SOL     OW12074   5.562   8.580   5.365  0.7675  0.2798 -0.4433
34369SOL    HW112075   5.630   8.512   5.370  0.0554 -0.4199  0.0328
34369SOL    HW212076   5.491   8.539   5.316 -0.4841 -0.0599  1.5484
34370SOL     OW12077   3.298   0.415   5.389  0.0933  0.2402 -0.1167
34370SOL    HW112078   3.280   0.350   5.322 -0.8771 -0.7845  1.0982
34370SOL    HW212079   3.226   0.407   5.452  2.0746 -0.4413  2.2466
34371SOL     OW12080   8.460  10.938   7.162  0.2627 -0.5297  0.3025
34371SOL    HW112081   8.386  10.936   7.101 -0.3381  0.2735  0.9743
34371SOL    HW212082   8.501  10.852   7.153 -2.0150 -1.8323  1.4372
34372SOL     OW12083  10.240   0.362   6.993  0.1921 -0.1543 -0.0584
34372SOL    HW112084  10.330   0.353   6.961  0.4918  0.9526  0.4294
34372SOL    HW212085  10.249   0.361   7.088 -0.3378 -0.2718 -0.0096
34373SOL     OW12086   6.101  11.482   5.167  0.4319  0.6270  0.5109
34373SOL    HW112087   6.141  11.545   5.227  0.2344  0.6727  0.5947
34373SOL    HW212088   6.025  11.527   5.131 -1.2622 -0.4210  2.5198
34374SOL     OW12089  11.998   4.295   8.102 -0.0726  0.1742  0.0261
34374SOL    HW112090  11.991   4.200   8.110 -0.6535  0.0256 -1.6960
34374SOL    HW212091  12.052   4.308   8.024  2.6353  1.3230  1.9421
34375SOL     OW12092  12.092   9.956   7.707 -0.1115 -0.3098  0.6661
34375SOL    HW112093  12.062  10.044   7.728 -1.6986 -0.9128  1.0274
34375SOL    HW212094  12.152   9.934   7.779  0.2139  0.4208  0.6266
34376SOL     OW12095   5.664   1.289   2.844  0.3724 -1.2089 -0.1076
34376SOL    HW112096   5.653   1.246   2.759 -0.8308  2.3810 -2.0001
34376SOL    HW212097   5.577   1.286   2.885  0.4383 -1.1722  0.0366
34377SOL     OW12098   2.314   8.911   0.302 -0.3209  0.8305  0.5294
34377SOL    HW112099   2.294   8.852   0.375 -0.7324 -0.5417 -0.6409
34377SOL    HW212100   2.325   8.997   0.343 -2.6806  0.5455  1.9868
34378SOL     OW12101   7.886  10.409   8.138  0.1686 -0.0861  0.2856
34378SOL    HW112102   7.960  10.469   8.130  0.5544 -0.2549  2.0543
34378SOL    HW212103   7.850  10.403   8.050  2.0694  0.2316 -0.5680
34379SOL     OW12104   8.594   4.307   5.227  0.2082 -0.0107 -0.8573
34379SOL    HW112105   8.525   4.364   5.262  0.6475  0.2357 -0.3873
34379SOL    HW212106   8.571   4.219   5.258  1.0189  0.3067  0.7688
34380SOL     OW12107  10.504   4.791   5.823  0.2703  0.3661 -0.0689
34380SOL    HW112108  10.441   4.795   5.894  1.8267  2.1827  1.3346
34380SOL    HW212109  10.557   4.713   5.842  1.5053  1.5372  1.6200
34381SOL     OW12110   0.971   2.800   7.603 -0.1418  0.0352 -0.3928
34381SOL    HW112111   0.900   2.855   7.569  1.0911  1.3694 -0.9324
34381SOL    HW212112   1.048   2.856   7.598  0.6832 -0.8405  1.6220
34382SOL     OW12113   4.232   7.213   7.743  0.6617  0.5896 -0.5713
34382SOL    HW112114   4.196   7.244   7.660 -0.4365 -0.4766 -0.5129
34382SOL    HW212115   4.177   7.254   7.810 -1.9923 -2.6222 -0.5074
34383SOL     OW12116   2.486   1.779  11.109  0.2318 -0.3546  0.0071
34383SOL    HW112117   2.492   1.704  11.169 -3.6789  0.6512  2.0272
34383SOL    HW212118   2.526   1.851  11.157  0.7252 -0.3688 -0.3752
34384SOL     OW12119   2.285   5.010   4.002 -0.0914 -0.1460 -0.2280
34384SOL    HW112120   2.284   5.017   3.907  1.8170 -1.4425 -0.3940
34384SOL    HW212121   2.207   4.957   4.023  1.2725 -2.7955 -1.4260
34385SOL     OW12122   3.533  10.094   7.297 -0.2635 -0.3278 -1.0377
34385SOL    HW112123   3.450  10.103   7.251  0.5870 -1.2021 -2.8701
34385SOL    HW212124   3.599  10.089   7.227  1.1226 -1.6949  0.2750
34386SOL     OW12125   3.714   2.889   1.680  0.4860  0.4734 -0.2757
34386SOL    HW112126   3.755   2.865   1.763  1.2687 -1.1837 -1.0904
34386SOL    HW212127   3.643   2.826   1.670  2.0883 -1.2001 -2.0966
34387SOL     OW12128   6.891   1.537  10.056 -0.4201  0.1155  0.3002
34387SOL    HW112129   6.837   1.460  10.075  0.7125 -0.7949 -0.0441
34387SOL    HW212130   6.913   1.574  10.141  0.2293 -0.8173  0.5542
34388SOL     OW12131   7.090   5.460   2.368  0.3026  0.7986 -0.2940
34388SOL    HW112132   7.014   5.469   2.426  0.1202  1.6616 -0.6486
34388SOL    HW212133   7.152   5.408   2.418 -0.4993  0.1162  0.0259
34389SOL     OW12134   5.093   6.298   5.198  0.4175  0.1004  0.1931
34389SOL    HW112135   5.046   6.336   5.123 -0.9993 -0.6851  0.6417
34389SOL    HW212136   5.054   6.211   5.208  2.3182 -0.7847  0.3134
34390SOL     OW12137   5.723  12.307   5.980 -0.0579  0.1793 -0.0651
34390SOL    HW112138   5.760  12.277   5.897 -0.9302  0.0003 -0.4007
34390SOL    HW212139   5.796  12.350   6.024 -0.1502  2.5990 -2.0137
34391SOL     OW12140   8.755   7.515  11.460  0.0121  0.0576 -0.1603
34391SOL    HW112141   8.749   7.576  11.387  1.2872  0.8529  0.3503
34391SOL    HW212142   8.672   7.468  11.460 -0.9746  1.7323 -0.6379
34392SOL     OW12143   8.917  11.510   0.997  0.5294  0.0938  0.0769
34392SOL    HW112144   8.933  11.566   1.073  2.6628  0.0752 -0.2964
34392SOL    HW212145   8.911  11.571   0.923 -1.6794  0.1241  0.2249
34393SOL     OW12146   6.439   5.618   4.378  0.4955 -0.3465 -0.3302
34393SOL    HW112147   6.406   5.695   4.333  0.5942 -1.0489 -1.6471
34393SOL    HW212148   6.522   5.646   4.417 -0.3084  0.6746  0.6899
34394SOL     OW12149   8.084   9.388  11.118  0.6029 -0.2407  0.3741
34394SOL    HW112150   8.090   9.379  11.213 -0.0586 -0.9200  0.3529
34394SOL    HW212151   8.112   9.304  11.083  0.0343 -0.2803 -0.0036
34395SOL     OW12152   9.336   9.736   7.282 -0.2672 -0.1604  0.4470
34395SOL    HW112153   9.350   9.643   7.267 -1.6735 -0.1271 -1.3870
34395SOL    HW212154   9.245   9.742   7.312 -1.1977  0.7771 -2.2207
34396SOL     OW12155   2.997   3.658   5.345 -0.3705  0.1041  0.0876
34396SOL    HW112156   2.935   3.721   5.383 -2.7854 -2.0638  0.0392
34396SOL    HW212157   2.941   3.590   5.306  2.0785 -1.3293 -1.1708
34397SOL     OW12158   1.891   5.838   2.120 -0.0192 -0.1972  0.4346
34397SOL    HW112159   1.963   5.895   2.092  0.0921 -1.1956 -1.5214
34397SOL    HW212160   1.824   5.898   2.153  1.4362  0.7933  1.7373
34398SOL     OW12161   5.416   5.962   9.207  0.2303  0.1742  0.0075
34398SOL    HW112162   5.449   5.946   9.118 -0.8599 -1.0434 -0.2141
34398SOL    HW212163   5.355   6.036   9.197 -0.7881 -0.7043 -0.5084
34399SOL     OW12164   2.384   4.690   4.661  0.2567  0.1830  0.0851
34399SOL    HW112165   2.424   4.607   4.687  0.6656  0.7764  1.4358
34399SOL    HW212166   2.441   4.757   4.698 -0.8087  1.0632  0.2084
34400SOL     OW12167   2.680   4.007   2.339 -0.1615  0.2424  0.6217
34400SOL    HW112168   2.722   4.082   2.299  0.3939  0.1139  0.9554
34400SOL    HW212169   2.715   4.004   2.428 -1.0341  0.2614  0.9762
34401SOL     OW12170  11.112   4.918   6.402 -0.2837  0.2100  0.7016
34401SOL    HW112171  11.195   4.871   6.413 -0.6648 -0.6095  0.2416
34401SOL    HW212172  11.128   4.979   6.330 -0.4158 -0.8383 -0.2620
34402SOL     OW12173  12.269   1.534   6.951 -0.1126  0.2630 -0.8364
34402SOL    HW112174  12.192   1.569   6.995  1.1343  0.4807  1.2962
34402SOL    HW212175  12.323   1.611   6.932 -0.0229  0.0344 -1.5509
34403SOL     OW12176   5.945   3.726   4.522 -0.3141 -0.4036 -0.0540
34403SOL    HW112177   5.976   3.809   4.557  0.4095 -0.8121  0.2764
34403SOL    HW212178   5.869   3.704   4.576 -0.1417 -0.2642  0.2426
34404SOL     OW12179   8.961   3.999  11.688  0.1950 -0.3681 -0.0022
34404SOL    HW112180   8.990   3.964  11.772  0.3688  0.1579  0.1626
34404SOL    HW212181   8.914   4.079  11.710  0.6917  0.0565 -0.4336
34405SOL     OW12182   1.750  10.140   5.236  0.6827 -0.0912 -0.0511
34405SOL    HW112183   1.700  10.073   5.190  0.0722 -0.2193  0.7812
34405SOL    HW212184   1.707  10.148   5.321 -0.6954  2.9045 -0.8691
34406SOL     OW12185   3.118   7.302   6.848  0.2764 -0.6211 -0.1779
34406SOL    HW112186   3.172   7.226   6.871  1.1930  0.1797  0.3756
34406SOL    HW212187   3.178   7.362   6.805 -0.4881 -0.2819 -0.7886
34407SOL     OW12188   5.809   1.065   7.157 -0.3868  0.1720  0.9406
34407SOL    HW112189   5.837   0.998   7.095  0.7826  0.0930  1.5131
34407SOL    HW212190   5.728   1.100   7.121 -1.0268 -1.5392  0.6185
34408SOL     OW12191   4.136   4.691   0.922 -0.1288 -0.0045  0.0169
34408SOL    HW112192   4.228   4.684   0.947  0.1890 -1.0856 -1.3825
34408SOL    HW212193   4.122   4.621   0.859 -1.5869  0.9683 -0.7995
34409SOL     OW12194   3.650   2.464   7.007  0.5543 -0.0688 -0.5552
34409SOL    HW112195   3.662   2.552   7.042  0.1968 -0.3308  0.2375
34409SOL    HW212196   3.702   2.407   7.064 -1.9416 -0.8288  1.1137
34410SOL     OW12197   2.746   5.400   0.986 -0.0049 -0.0655  0.8543
34410SOL    HW112198   2.839   5.408   0.962  0.0133 -1.2806  0.4608
34410SOL    HW212199   2.738   5.451   1.066  1.4757 -1.5919  2.0430
34411SOL     OW12200   7.950   8.111   6.790 -0.2235  0.2342  0.2161
34411SOL    HW112201   7.898   8.145   6.863 -0.0744  0.3150  0.2856
34411SOL    HW212202   7.995   8.188   6.755  0.4477  0.0430  0.6441
34412SOL     OW12203   4.193   7.688   0.869 -0.0385  0.1279 -0.5431
34412SOL    HW112204   4.100   7.671   0.862 -0.2478 -0.3392  2.1400
34412SOL    HW212205   4.199   7.767   0.924  1.0868 -1.4073  1.7102
34413SOL     OW12206   4.528  12.411  12.111  0.1862 -0.6436  0.4944
34413SOL    HW112207   4.458  12.469  12.141  0.5583 -0.2732  0.6619
34413SOL    HW212208   4.489  12.362  12.038 -0.0573 -0.0088  0.1896
34414SOL     OW12209   9.516  10.779   4.867  0.0704 -0.5100 -0.2238
34414SOL    HW112210   9.602  10.750   4.898  0.7703 -0.2519 -1.8517
34414SOL    HW212211   9.534  10.828   4.787 -1.5533  0.0303 -0.2982
34415SOL     OW12212  12.212  10.245   9.777  0.6740  0.3810 -0.1728
34415SOL    HW112213  12.169  10.163   9.753 -0.5511  0.7085  0.8062
34415SOL    HW212214  12.254  10.275   9.696 -0.9384  0.0473 -1.1776
34416SOL     OW12215  10.442   9.137  10.869 -0.6484  0.5651 -0.5881
34416SOL    HW112216  10.526   9.129  10.825 -0.8610  0.2361 -0.9448
34416SOL    HW212217  10.453   9.210  10.930 -0.1639  0.6353 -0.7572
34417SOL     OW12218   3.406   7.265   1.707  0.1614  0.2563  0.5319
34417SOL    HW112219   3.441   7.266   1.618 -0.8038  0.2603  0.1396
34417SOL    HW212220   3.475   7.225   1.759  0.3493 -0.6792 -0.3890
34418SOL     OW12221  12.567   4.356  12.242  0.8349 -0.2547  0.9624
34418SOL    HW112222  12.554   4.264  12.265  3.4943 -0.5805  1.5390
34418SOL    HW212223  12.589   4.398  12.325 -1.4257  1.2072  0.9005
34419SOL     OW12224   1.437   2.062   2.861  0.8977  0.0797  0.2891
34419SOL    HW112225   1.500   2.031   2.925  1.1125  1.1405  0.6203
34419SOL    HW212226   1.466   2.026   2.777  1.0209 -0.7330  0.6767
34420SOL     OW12227  10.762   7.002  12.161  0.8121 -0.1070 -0.1418
34420SOL    HW112228  10.758   7.027  12.069  0.9692 -1.3562 -0.5087
34420SOL    HW212229  10.685   6.947  12.175 -1.2517  2.9168  1.4408
34421SOL     OW12230   8.575   1.567   7.854 -0.5529 -0.0468  0.2992
34421SOL    HW112231   8.567   1.662   7.850 -2.0482 -0.1163  1.0664
34421SOL    HW212232   8.651   1.551   7.910  0.5120  0.6787 -0.8932
34422SOL     OW12233   2.606   1.223   8.535  0.9310 -0.4227 -0.2828
34422SOL    HW112234   2.690   1.249   8.497  0.8531 -0.9537 -0.8357
34422SOL    HW212235   2.552   1.199   8.460  0.0060  0.6683  0.0100
34423SOL     OW12236   5.133   3.011   5.199  0.1018 -0.1445  0.0460
34423SOL    HW112237   5.136   2.957   5.278  0.0287 -1.7432 -0.9837
34423SOL    HW212238   5.215   3.061   5.202 -0.3123  0.4837  1.5535
34424SOL     OW12239  12.448   7.368   9.615 -0.2710 -1.0265  0.1242
34424SOL    HW112240  12.476   7.448   9.570 -2.1235 -0.1236  0.4758
34424SOL    HW212241  12.502   7.299   9.576  0.0412  0.1075 -1.5906
34425SOL     OW12242   4.437   3.764   3.077  0.3329  0.0896 -0.6433
34425SOL    HW112243   4.444   3.750   3.171  1.2361  2.1490 -0.3501
34425SOL    HW212244   4.494   3.697   3.038  1.1353  0.1561  0.3743
34426SOL     OW12245   3.197   0.725   3.366  0.0333 -0.1091 -0.1507
34426SOL    HW112246   3.253   0.745   3.291 -1.4330  1.4245 -0.9081
34426SOL    HW212247   3.161   0.810   3.392 -0.3831 -0.7755  1.5777
34427SOL     OW12248   6.237   6.201   5.198  0.0794  0.1090 -0.7120
34427SOL    HW112249   6.183   6.201   5.277  1.9581 -0.0063  0.6578
34427SOL    HW212250   6.248   6.293   5.176 -1.1201  0.1143 -1.3617
34428SOL     OW12251   6.888  12.372  11.388 -0.1877  0.5017 -0.0730
34428SOL    HW112252   6.814  12.431  11.399 -0.8914 -0.2140 -0.8039
34428SOL    HW212253   6.864  12.294  11.438  0.3803  0.5158  0.2356
34429SOL     OW12254   5.926   2.828   6.769  0.3665  0.3886  0.3917
34429SOL    HW112255   5.924   2.788   6.856 -0.3042 -0.1639  0.1260
34429SOL    HW212256   5.894   2.760   6.710  0.7964  0.7707 -0.2887
34430SOL     OW12257  11.393  11.991   7.962  0.4885  0.5448 -0.1815
34430SOL    HW112258  11.305  11.956   7.950  0.6434  0.3420 -0.8084
34430SOL    HW212259  11.409  11.986   8.056 -0.5692  1.5696  0.0836
34431SOL     OW12260   0.679   9.616  11.880 -0.4550  0.1890  0.3498
34431SOL    HW112261   0.673   9.618  11.975  0.3014  2.2104  0.4051
34431SOL    HW212262   0.772   9.609  11.861 -0.4471  1.5555 -0.2098
34432SOL     OW12263   7.575   3.087   5.936  0.0214 -0.3607  0.9465
34432SOL    HW112264   7.545   3.066   5.847  1.4046 -0.9231  0.5934
34432SOL    HW212265   7.667   3.062   5.937  0.5623  1.4918  1.9301
34433SOL     OW12266  11.628  12.025   5.136 -0.2232 -0.5177  0.0632
34433SOL    HW112267  11.588  11.986   5.213  0.5175 -0.0988  0.6727
34433SOL    HW212268  11.560  12.082   5.099  0.8035  3.2146  3.2273
34434SOL     OW12269   4.924   0.913   1.637  0.2011 -0.5905 -0.2222
34434SOL    HW112270   4.949   0.847   1.572 -0.5965  0.0391 -1.1966
34434SOL    HW212271   4.974   0.890   1.715 -0.6344 -2.8266 -0.2854
34435SOL     OW12272   8.984   7.421  11.843 -0.3043  0.3817  0.3868
34435SOL    HW112273   8.908   7.363  11.845  0.3447 -0.5107 -0.3593
34435SOL    HW212274   8.949   7.506  11.815 -1.1716  0.2388  0.9891
34436SOL     OW12275   8.661   2.034   1.066  0.1065  0.1150 -0.2838
34436SOL    HW112276   8.637   2.123   1.043  0.0626 -0.2301 -1.6075
34436SOL    HW212277   8.733   2.044   1.129  0.8071  1.0791 -1.2102
34437SOL     OW12278   3.463   3.530   2.934 -0.5210  0.6768 -0.1467
34437SOL    HW112279   3.479   3.448   2.982  0.9274  0.4894 -0.9129
34437SOL    HW212280   3.368   3.534   2.925 -0.6499 -0.6209  0.4258
34438SOL     OW12281   7.615   5.118   2.436  0.1766  0.3728  0.1821
34438SOL    HW112282   7.677   5.060   2.479 -0.5383  0.4569  1.3789
34438SOL    HW212283   7.618   5.093   2.344  1.5375 -0.0124  0.3059
34439SOL     OW12284   5.841  11.540   5.524 -0.7678 -0.4146 -0.8279
34439SOL    HW112285   5.832  11.457   5.571  1.4426 -0.5223 -0.4911
34439SOL    HW212286   5.751  11.569   5.509 -1.5960 -1.0242  2.3025
34440SOL     OW12287   1.836  11.694   5.653 -0.3001  0.4533  0.7886
34440SOL    HW112288   1.892  11.673   5.578 -1.3062  3.6590 -1.0741
34440SOL    HW212289   1.748  11.668   5.625 -0.4158 -0.1530  1.6976
34441SOL     OW12290   7.878   0.758  10.614  0.4169  0.8311  0.2472
34441SOL    HW112291   7.819   0.797  10.678  0.1461  0.3937  0.2646
34441SOL    HW212292   7.822   0.708  10.556  0.8900 -0.7331  1.0879
34442SOL     OW12293   1.346   3.032   9.870 -0.0729 -0.4097 -0.6135
34442SOL    HW112294   1.366   3.112   9.821  1.3659  0.1036  0.7337
34442SOL    HW212295   1.369   2.961   9.811  0.8971  0.1822 -0.9678
34443SOL     OW12296   7.633   7.010   2.743 -0.1534  0.0587 -0.5267
34443SOL    HW112297   7.717   7.053   2.757 -0.5397  0.6423  0.0240
34443SOL    HW212298   7.613   7.026   2.651 -0.9758  2.3330  0.0010
34444SOL     OW12299   2.667   7.516   9.652  0.3129 -0.2105  0.5863
34444SOL    HW112300   2.619   7.447   9.698 -0.9739  1.2758  1.5795
34444SOL    HW212301   2.608   7.592   9.655  1.1537  0.6183 -1.5209
34445SOL     OW12302   1.154  10.259  12.101 -0.3549  0.1269  0.0876
34445SOL    HW112303   1.240  10.218  12.091  0.8207  2.0016  1.6124
34445SOL    HW212304   1.111  10.206  12.168 -0.4550 -0.8866 -0.7545
34446SOL     OW12305   6.480   5.459   1.120 -0.7462 -0.0075 -0.0709
34446SOL    HW112306   6.519   5.526   1.177 -0.3701 -1.0026  0.8650
34446SOL    HW212307   6.392   5.446   1.156 -0.4870 -0.6807  0.3229
34447SOL     OW12308   3.460   6.663   7.658  0.4165 -0.5335  0.3983
34447SOL    HW112309   3.514   6.631   7.731  2.5854  0.3143 -0.7428
34447SOL    HW212310   3.473   6.758   7.660  0.9789 -0.5463 -1.4042
34448SOL     OW12311   6.325  11.613  12.095 -0.0171 -0.5520  0.5614
34448SOL    HW112312   6.269  11.562  12.037  0.3852 -1.4685  0.9633
34448SOL    HW212313   6.272  11.690  12.118 -0.1483 -0.1222 -1.0752
34449SOL     OW12314   5.965   9.416   9.411  0.0668 -0.0272  0.3777
34449SOL    HW112315   5.930   9.381   9.493 -2.6656  0.8595 -0.2760
34449SOL    HW212316   6.029   9.351   9.382  1.9538  0.1500  3.6653
34450SOL     OW12317   6.880   6.280   8.785 -0.9618  0.2934 -0.0867
34450SOL    HW112318   6.884   6.186   8.804  1.7795  0.7321  2.2041
34450SOL    HW212319   6.927   6.290   8.703 -1.9039 -0.3678 -0.7322
34451SOL     OW12320   6.760   1.137   5.404 -0.2050 -0.3708 -0.2778
34451SOL    HW112321   6.761   1.047   5.370 -1.1522 -0.5732  0.2080
34451SOL    HW212322   6.735   1.128   5.496 -1.8377  0.5053 -0.6020
34452SOL     OW12323  12.525   4.893   9.013  0.1805 -0.1536  0.1552
34452SOL    HW112324  12.440   4.930   8.991  0.3919 -0.8205 -1.9335
34452SOL    HW212325  12.504   4.810   9.056 -0.2203 -0.1117  0.0458
34453SOL     OW12326  12.414   7.580   4.980  0.0475 -0.2488 -0.4519
34453SOL    HW112327  12.329   7.608   5.014  0.6626  0.0918  0.8941
34453SOL    HW212328  12.465   7.560   5.059  1.5385  0.5408 -1.1778
34454SOL     OW12329  12.445   5.890  10.388  0.4031 -0.0337  0.7121
34454SOL    HW112330  12.489   5.949  10.326 -1.5608 -0.7434 -1.4843
34454SOL    HW212331  12.377   5.945  10.428 -0.2328 -0.3005  0.0225
34455SOL     OW12332   4.415   7.125  10.421  0.0293 -0.1053  0.1397
34455SOL    HW112333   4.428   7.218  10.405 -1.6432 -0.0671 -1.2949
34455SOL    HW212334   4.504   7.088  10.417  0.7695  1.4650  1.2585
34456SOL     OW12335   8.106   4.793   8.322  0.0414 -0.2225 -0.0260
34456SOL    HW112336   8.075   4.753   8.241 -0.8359 -1.0118  0.6752
34456SOL    HW212337   8.042   4.766   8.388  0.2090  1.1892  0.7533
34457SOL     OW12338   0.407   2.210   3.048 -0.1544  0.1964 -0.0499
34457SOL    HW112339   0.453   2.199   3.132  0.5327  1.5710 -0.2215
34457SOL    HW212340   0.359   2.293   3.057 -1.6885 -0.6205 -0.3183
34458SOL     OW12341   0.580  12.566   9.805 -0.3425 -0.0862 -0.0019
34458SOL    HW112342   0.559  12.651   9.843  0.8624 -0.5665  1.8806
34458SOL    HW212343   0.621  12.587   9.721 -0.3945  1.1761  0.2644
34459SOL     OW12344   9.965  12.102   7.207  0.3838 -0.1664 -0.2513
34459SOL    HW112345   9.913  12.038   7.254  1.3195 -0.3539  0.5569
34459SOL    HW212346   9.908  12.132   7.136 -0.6329 -0.7131  0.3175
34460SOL     OW12347   8.231   6.993   5.978  0.2149 -0.2395 -0.0851
34460SOL    HW112348   8.210   6.962   5.890 -0.0109  0.2778 -0.2201
34460SOL    HW212349   8.152   7.039   6.006  0.8581  1.0131 -0.2687
34461SOL     OW12350   3.476  10.089   5.343  0.2602 -0.5435  0.3914
34461SOL    HW112351   3.565  10.077   5.311  0.1178 -0.0283 -0.2184
34461SOL    HW212352   3.468  10.027   5.415  1.5835  0.3938  1.4038
34462SOL     OW12353   4.659   5.452  12.595  0.3155  0.1069 -0.1359
34462SOL    HW112354   4.642   5.515  12.665  1.3220  1.6245 -1.1979
34462SOL    HW212355   4.689   5.505  12.522 -1.5057 -1.3383 -2.0457
34463SOL     OW12356  11.959   2.716   1.491  0.4389  0.3939 -0.0515
34463SOL    HW112357  11.972   2.701   1.397  2.1002 -0.5172  0.2979
34463SOL    HW212358  11.983   2.808   1.504 -1.0066  0.8993 -0.6896
34464SOL     OW12359   1.854   5.523   3.711  0.2459  0.5141 -0.1121
34464SOL    HW112360   1.949   5.514   3.715  0.3545  0.8406 -1.4721
34464SOL    HW212361   1.827   5.539   3.802  1.3507 -0.7413  0.4644
34465SOL     OW12362   9.166   6.852   9.813 -0.4465  0.1528 -0.3595
34465SOL    HW112363   9.203   6.838   9.726 -0.4100 -0.1459 -0.2964
34465SOL    HW212364   9.126   6.939   9.808  0.8412  0.7738 -0.2231
34466SOL     OW12365   4.620   5.540   4.574  0.5406  0.5183  0.0962
34466SOL    HW112366   4.595   5.577   4.490  0.5925  0.8603  0.2284
34466SOL    HW212367   4.691   5.596   4.605  2.1696 -1.0246 -0.7251
34467SOL     OW12368   0.809   1.037   9.387 -0.2200 -0.0674  0.2971
34467SOL    HW112369   0.715   1.053   9.378 -0.1794  0.5535  0.9139
34467SOL    HW212370   0.823   1.025   9.481  0.3371 -0.0040  0.2263
34468SOL     OW12371   6.010  11.148   1.295  0.3962  0.1199 -0.2106
34468SOL    HW112372   5.983  11.181   1.381  0.6310 -0.4177  0.0767
34468SOL    HW212373   6.066  11.217   1.260 -1.4402  1.3310 -0.8918
34469SOL     OW12374   0.850   0.406   9.576  0.0179  0.7525  0.4207
34469SOL    HW112375   0.837   0.313   9.592 -1.3589  0.8383 -0.0683
34469SOL    HW212376   0.875   0.412   9.484 -0.4970  0.9131  0.2903
34470SOL     OW12377   9.950  10.441   3.554 -0.1856  0.5409  0.0561
34470SOL    HW112378   9.941  10.491   3.635 -0.0062  0.2553  0.2544
34470SOL    HW212379   9.870  10.389   3.549  0.0648  0.1161  0.3601
34471SOL     OW12380   7.174   2.703   4.233  0.3995 -0.0878 -0.4849
34471SOL    HW112381   7.178   2.720   4.327 -3.0257 -1.7859  0.1474
34471SOL    HW212382   7.265   2.691   4.206  1.5158  0.8714  2.4912
34472SOL     OW12383  10.536   3.567   1.046 -0.1188  0.0535  1.0737
34472SOL    HW112384  10.603   3.586   0.981  0.9382 -1.7514  1.5828
34472SOL    HW212385  10.459   3.617   1.016  0.4068 -0.4707 -1.3770
34473SOL     OW12386   8.164   9.405   7.775  0.0461 -0.2243  0.0929
34473SOL    HW112387   8.085   9.383   7.825  0.2288 -2.0232 -0.3181
34473SOL    HW212388   8.136   9.401   7.683  0.5919 -0.8671 -0.0543
34474SOL     OW12389   2.949   8.068   4.291  0.7096 -0.0354  0.7846
34474SOL    HW112390   2.864   8.055   4.333 -0.0350  0.5735 -0.4875
34474SOL    HW212391   2.964   8.163   4.295  0.3720  0.1060 -0.7468
34475SOL     OW12392   9.164   1.075   4.524 -0.4738 -0.3840  0.0470
34475SOL    HW112393   9.182   1.167   4.504 -0.8140 -0.6366 -1.5264
34475SOL    HW212394   9.072   1.063   4.501 -0.8060 -0.8173  1.4840
34476SOL     OW12395  10.862   9.518   5.823 -0.5102 -0.7693  0.0105
34476SOL    HW112396  10.773   9.491   5.845 -0.0855 -1.6764  0.6350
34476SOL    HW212397  10.881   9.474   5.740 -0.7836 -0.2201 -0.3598
34477SOL     OW12398   8.379  12.542   9.892  0.2078  0.2048 -0.2029
34477SOL    HW112399   8.473  12.531   9.903  0.3622  1.0212 -0.5953
34477SOL    HW212400   8.360  12.501   9.807  0.2320  0.1357 -0.1740
34478SOL     OW12401   4.693   0.359   8.479 -0.1914  0.4364  0.0088
34478SOL    HW112402   4.664   0.412   8.404 -0.1929 -0.2679 -0.4992
34478SOL    HW212403   4.689   0.419   8.553 -3.1600  0.3550  0.0399
34479SOL     OW12404   6.347   2.325   4.033 -0.3089 -0.0630 -0.4677
34479SOL    HW112405   6.434   2.362   4.048 -0.8961  1.9334 -1.6126
34479SOL    HW212406   6.348   2.300   3.941 -1.5251  1.7855 -1.0301
34480SOL     OW12407   5.038   3.016   4.808 -0.2459 -0.5477 -0.0752
34480SOL    HW112408   4.995   2.976   4.732 -0.5873  0.8674 -0.6796
34480SOL    HW212409   5.005   3.106   4.808  2.7678  0.6868 -0.6463
34481SOL     OW12410   3.677  11.509   9.230 -0.3160  0.1339 -0.2004
34481SOL    HW112411   3.747  11.478   9.173  0.8537  2.7826 -0.3608
34481SOL    HW212412   3.655  11.595   9.196 -0.9605  0.9813  2.1467
34482SOL     OW12413   8.002   5.741   6.364 -0.2316  0.0585  0.7347
34482SOL    HW112414   7.976   5.831   6.382  0.3215  0.5071 -0.6448
34482SOL    HW212415   7.950   5.715   6.288 -1.3137 -1.2422  1.8529
34483SOL     OW12416   7.831   3.489  12.349  0.1918  0.7936 -1.1050
34483SOL    HW112417   7.804   3.472  12.259  1.3571 -0.5675 -1.2134
34483SOL    HW212418   7.784   3.423  12.401  2.1926 -0.7324 -1.1477
34484SOL     OW12419   8.992  11.576   0.058 -0.0230  0.5552 -0.0202
34484SOL    HW112420   9.001  11.484   0.035  0.0458  0.7937 -0.9873
34484SOL    HW212421   8.903  11.584   0.092  0.1967  0.0106  0.7111
34485SOL     OW12422   3.149   1.308   5.227 -0.3273  0.2469  0.3937
34485SOL    HW112423   3.094   1.240   5.267  0.8187 -0.4765  0.7917
34485SOL    HW212424   3.118   1.313   5.136  0.9134 -2.3342 -0.2649
34486SOL     OW12425   9.546   5.963  10.246  0.6190  0.0278 -0.0471
34486SOL    HW112426   9.590   6.026  10.189  0.2319 -0.5332 -0.9874
34486SOL    HW212427   9.540   5.883  10.194 -1.8621  0.1862 -0.1524
34487SOL     OW12428   4.982   1.968   7.494  0.4472  0.1063  0.0653
34487SOL    HW112429   5.039   2.028   7.447  1.3165 -0.9835 -0.3188
34487SOL    HW212430   4.901   1.968   7.443  0.5789  0.6599 -0.1496
34488SOL     OW12431   0.276   0.088  10.149  0.4886  0.2495 -0.3908
34488SOL    HW112432   0.306   0.109  10.060  1.3681 -1.4560 -0.5427
34488SOL    HW212433   0.323   0.150  10.205  3.1590 -1.2684 -0.7882
34489SOL     OW12434   9.112  11.256   6.261 -0.3410 -0.2749 -0.3785
34489SOL    HW112435   9.098  11.291   6.349  0.2892 -1.2327  0.1117
34489SOL    HW212436   9.205  11.273   6.243 -0.0646 -1.5071 -0.2036
34490SOL     OW12437   2.188   8.853  10.359  0.2981  0.2542  0.5363
34490SOL    HW112438   2.215   8.913  10.429  1.0786  0.9257 -0.3248
34490SOL    HW212439   2.268   8.837  10.309  0.3678 -2.3371  1.3167
34491SOL     OW12440   6.083   4.076   8.736 -0.2223  0.5444  0.1237
34491SOL    HW112441   6.051   4.130   8.808 -0.0951 -1.0009  1.3773
34491SOL    HW212442   6.172   4.108   8.721  0.2578  0.0020  1.6074
34492SOL     OW12443   4.935  12.102   7.659  0.4398  0.2112 -0.4855
34492SOL    HW112444   4.925  12.180   7.713 -1.3182 -0.2625 -0.0374
34492SOL    HW212445   4.847  12.086   7.624  0.7964 -1.4378 -0.7290
34493SOL     OW12446   5.122   4.853   9.070 -0.2250  0.2147 -0.1488
34493SOL    HW112447   5.044   4.803   9.046  0.7311 -1.4832  0.0802
34493SOL    HW212448   5.133   4.916   8.999 -3.0472  2.1239  0.9218
34494SOL     OW12449   7.801   5.350  10.284 -0.3565  0.0050 -0.1738
34494SOL    HW112450   7.885   5.345  10.329 -0.1897  0.3728 -0.4435
34494SOL    HW212451   7.762   5.431  10.314 -0.6763 -0.2271  0.0478
34495SOL     OW12452  10.432   1.084   8.984  0.5460  0.2400 -0.5759
34495SOL    HW112453  10.361   1.029   9.019  0.4512 -0.9551 -2.4968
34495SOL    HW212454  10.404   1.173   9.003 -0.5761 -0.2708  0.3351
34496SOL     OW12455  12.482   0.823   1.197  0.5078 -0.0709 -0.1334
34496SOL    HW112456  12.551   0.850   1.136  0.3477 -0.3697 -0.4513
34496SOL    HW212457  12.412   0.887   1.184  0.6231  0.0857  0.0093
34497SOL     OW12458   8.226   9.333   1.902 -0.3015 -0.1023  0.1704
34497SOL    HW112459   8.259   9.385   1.829 -1.0579 -0.9298 -0.7897
34497SOL    HW212460   8.228   9.243   1.869 -2.6798 -0.2770  0.3725
34498SOL     OW12461   7.460   0.661   2.602  0.1695 -0.6267 -0.0322
34498SOL    HW112462   7.536   0.719   2.605  0.3244 -0.8655  2.2203
34498SOL    HW212463   7.388   0.717   2.573  0.5209  0.4882  1.1458
34499SOL     OW12464   8.964   2.754   3.344  0.9632 -0.4258  0.4469
34499SOL    HW112465   8.894   2.818   3.334  0.1844 -1.2986  0.2153
34499SOL    HW212466   9.037   2.790   3.295  0.9916  0.9318  1.4286
34500SOL     OW12467  11.915   2.997   5.273  0.7644  0.0723  0.1497
34500SOL    HW112468  11.917   3.026   5.182  1.5449 -1.0526 -0.2112
34500SOL    HW212469  11.895   2.904   5.269  0.6410  0.0403  1.1357
34501SOL     OW12470  10.761   7.929   7.329 -0.0508 -0.4826 -0.2610
34501SOL    HW112471  10.693   7.996   7.322  1.6713  1.1718 -2.6090
34501SOL    HW212472  10.788   7.914   7.238  1.4340 -2.4679  0.4623
34502SOL     OW12473   8.683  10.664   6.477 -0.5997 -0.2635  0.0881
34502SOL    HW112474   8.724  10.676   6.562  0.1935 -1.3403 -0.1214
34502SOL    HW212475   8.688  10.751   6.435 -1.6985  0.4665  1.4075
34503SOL     OW12476   9.509   1.022   0.478  0.3389 -0.0900 -0.5597
34503SOL    HW112477   9.483   1.012   0.387  0.3900  1.0375 -0.7207
34503SOL    HW212478   9.451   1.091   0.512  1.7348  1.0370 -0.3637
34504SOL     OW12479   3.415  11.047   5.412 -0.2279  0.4166  0.2100
34504SOL    HW112480   3.461  11.120   5.453 -1.6412  0.4004  1.9465
34504SOL    HW212481   3.475  10.973   5.419  0.2105  0.8192  0.7670
34505SOL     OW12482   1.722  10.446   1.354  0.2213 -0.2126  0.3302
34505SOL    HW112483   1.773  10.483   1.425  2.2684 -1.4723 -0.3879
34505SOL    HW212484   1.773  10.464   1.275 -0.1853 -1.8831 -0.3766
34506SOL     OW12485   0.341   0.240   9.094  0.3185 -0.5335  0.3183
34506SOL    HW112486   0.281   0.230   9.167  0.4705 -0.2290  0.4880
34506SOL    HW212487   0.306   0.184   9.025  0.4444 -1.2075  0.7970
34507SOL     OW12488   1.654   6.227   7.106  0.1261 -0.1681 -0.4295
34507SOL    HW112489   1.741   6.226   7.066 -0.4843 -1.0359 -1.8003
34507SOL    HW212490   1.622   6.137   7.098 -1.6092  0.4963 -1.6003
34508SOL     OW12491  10.793   6.130   5.111 -0.3818 -0.4448  0.0901
34508SOL    HW112492  10.708   6.156   5.076 -0.5158 -1.7199 -0.5849
34508SOL    HW212493  10.847   6.111   5.033  0.0877 -0.9521  0.5250
34509SOL     OW12494   7.973   3.400   8.882  0.0754  0.0199  0.0223
34509SOL    HW112495   7.944   3.322   8.931  3.1607 -1.8880 -0.9326
34509SOL    HW212496   7.907   3.467   8.903 -3.5085 -3.1012 -0.0574
34510SOL     OW12497  11.992   0.535  12.477  0.0166  0.0684 -0.2622
34510SOL    HW112498  12.013   0.628  12.468  1.7505 -0.2601  0.0955
34510SOL    HW212499  11.999   0.518  12.570 -0.9047 -0.3118 -0.2488
34511SOL     OW12500   7.685   0.037   6.998 -0.8977  0.1676 -0.1295
34511SOL    HW112501   7.705   0.125   7.031  0.0084 -0.3904  0.8620
34511SOL    HW212502   7.703   0.042   6.904 -3.8120  1.8749 -0.7278
34512SOL     OW12503   6.355   9.166   3.674  0.0168 -0.1078  0.0455
34512SOL    HW112504   6.295   9.131   3.741 -1.1420  1.9210  0.1669
34512SOL    HW212505   6.301   9.229   3.625  1.1078 -0.8433 -2.2099
34513SOL     OW12506   3.162  11.831   5.313 -0.1668  0.2969  0.5062
34513SOL    HW112507   3.146  11.769   5.242 -0.6787  1.3238 -0.2918
34513SOL    HW212508   3.255  11.821   5.332 -0.6912 -2.5635  2.1940
34514SOL     OW12509  11.773   7.549   5.682 -0.3932  0.1791 -0.1059
34514SOL    HW112510  11.802   7.601   5.607  0.2037  1.3265  0.8841
34514SOL    HW212511  11.780   7.609   5.757 -0.6330 -1.0378  0.9227
34515SOL     OW12512   3.256  12.364   7.282  0.0556 -0.1646 -0.4769
34515SOL    HW112513   3.242  12.350   7.375  1.0714  2.0078  0.0622
34515SOL    HW212514   3.174  12.339   7.240 -0.7560 -0.2175  1.1066
34516SOL     OW12515   6.868  12.175   5.096 -0.6673 -0.3873 -0.3030
34516SOL    HW112516   6.872  12.177   5.192 -0.7345 -2.6452 -0.2120
34516SOL    HW212517   6.927  12.105   5.071 -3.9561 -2.9365 -1.5956
34517SOL     OW12518  12.051   8.294  10.488  0.1970  0.5165  0.3282
34517SOL    HW112519  11.969   8.260  10.524  0.8610 -2.3681 -0.5611
34517SOL    HW212520  12.028   8.330  10.403 -0.3899  1.4808  0.8731
34518SOL     OW12521   9.921  10.711  12.294  0.3251 -0.2861  0.1320
34518SOL    HW112522   9.966  10.672  12.219  0.1140 -0.3264  0.0255
34518SOL    HW212523   9.908  10.802  12.269 -3.5475 -1.1276 -1.7610
34519SOL     OW12524  10.187   8.715  10.668 -0.0773  0.2124 -0.1260
34519SOL    HW112525  10.160   8.671  10.586 -1.5108 -0.0330  0.4433
34519SOL    HW212526  10.279   8.691  10.679  0.0393 -0.0443 -1.4814
34520SOL     OW12527  11.825   7.166   4.856 -0.0280  0.2166 -0.1642
34520SOL    HW112528  11.827   7.128   4.768 -0.8175  0.6605 -0.3898
34520SOL    HW212529  11.761   7.237   4.850  0.6669  0.9195  0.5091
34521SOL     OW12530   0.190   6.165   4.577 -0.4552  0.1992  0.1842
34521SOL    HW112531   0.193   6.241   4.519  0.5071  0.2267  0.2565
34521SOL    HW212532   0.104   6.126   4.561 -0.7691  1.0315 -0.1978
34522SOL     OW12533   3.236   8.796  12.317 -0.6741  0.1404 -0.0133
34522SOL    HW112534   3.156   8.847  12.308 -1.2552 -0.9156 -0.9336
34522SOL    HW212535   3.213   8.723  12.375 -1.4756 -2.2196 -3.0435
34523SOL     OW12536   1.339   9.139   3.846 -0.0168 -0.2513 -0.8418
34523SOL    HW112537   1.303   9.219   3.886  0.9141 -0.7708  1.1463
34523SOL    HW212538   1.266   9.104   3.794 -0.4895  1.7772 -1.6752
34524SOL     OW12539   3.780   1.958   8.177  0.4006 -0.0030  0.5272
34524SOL    HW112540   3.699   1.970   8.128  1.4805  1.1560 -1.0492
34524SOL    HW212541   3.790   1.863   8.183 -0.4136 -0.1641 -0.3744
34525SOL     OW12542   1.956   2.388   7.351 -0.0991 -0.0801 -0.1466
34525SOL    HW112543   1.994   2.373   7.264  1.1909  0.8276  0.2304
34525SOL    HW212544   2.023   2.358   7.412  0.0963  1.6864  0.5451
34526SOL     OW12545  11.053  10.556   8.353 -0.6148  0.2953  0.3043
34526SOL    HW112546  11.089  10.488   8.410 -0.8904 -0.4586 -0.3999
34526SOL    HW212547  10.966  10.574   8.387  0.2094  1.8116  1.7512
34527SOL     OW12548   7.238   6.935   6.149  0.4986 -0.6305  0.1592
34527SOL    HW112549   7.207   6.859   6.199  2.2528 -0.9293  0.8523
34527SOL    HW212550   7.261   6.900   6.063  0.4874 -0.7130  0.1900
34528SOL     OW12551   7.169   6.061  10.143 -0.5415  0.1561 -0.4086
34528SOL    HW112552   7.159   6.137  10.200 -1.4328 -0.6816  0.6015
34528SOL    HW212553   7.082   6.048  10.104 -0.5527 -0.6810 -0.1240
34529SOL     OW12554  12.423   5.980   2.720 -0.1071 -0.2586  0.0499
34529SOL    HW112555  12.516   5.968   2.702  0.0551  0.4039  0.4091
34529SOL    HW212556  12.378   5.939   2.646  0.5121  1.0343 -1.0673
34530SOL     OW12557   4.332   5.758  11.765 -0.4936 -0.1593 -0.0908
34530SOL    HW112558   4.385   5.718  11.696 -0.1540  0.4265 -0.1775
34530SOL    HW212559   4.274   5.819  11.718 -0.0407  0.4798  0.1647
34531SOL     OW12560   5.905   5.369   4.379  0.0552 -0.4320  0.2362
34531SOL    HW112561   5.974   5.430   4.354 -1.0753  0.7322 -0.1828
34531SOL    HW212562   5.934   5.284   4.348  1.0700  0.1167 -0.3458
34532SOL     OW12563   6.454   7.821   2.432  0.9356 -0.1519 -0.0556
34532SOL    HW112564   6.370   7.828   2.387  1.0815 -0.8507 -0.4345
34532SOL    HW212565   6.508   7.765   2.376  2.4375  2.0510 -0.9688
34533SOL     OW12566   5.065   2.036   5.256  0.3324 -0.1608 -0.7388
34533SOL    HW112567   5.111   2.057   5.337 -1.5087 -1.2543  0.6839
34533SOL    HW212568   5.040   2.121   5.219  0.9527  0.3372 -0.0279
34534SOL     OW12569   9.155   0.720   4.746  0.0677  0.4953 -0.1925
34534SOL    HW112570   9.191   0.684   4.665  0.4866 -0.2083  0.3026
34534SOL    HW212571   9.208   0.798   4.763  1.8934 -0.9155  0.9094
34535SOL     OW12572   6.933   8.993   0.047  0.0012  0.0793 -0.4113
34535SOL    HW112573   6.951   8.908   0.085 -1.0772  1.1413  2.8254
34535SOL    HW212574   6.849   8.982   0.002  0.0745 -0.6410 -0.3838
34536SOL     OW12575  11.913   6.271   3.298  0.1034  0.1369  0.3290
34536SOL    HW112576  11.908   6.360   3.334 -1.0433 -0.4880  1.8495
34536SOL    HW212577  11.987   6.231   3.344 -0.5240 -0.2416  1.0361
34537SOL     OW12578   7.101   6.955   6.854 -0.2917  0.2560  0.4140
34537SOL    HW112579   7.154   6.881   6.885  0.1687  0.2568 -0.3536
34537SOL    HW212580   7.017   6.916   6.830  0.3358 -0.2434 -1.1033
34538SOL     OW12581   9.576   8.928   9.274  0.2190 -0.2557  0.5897
34538SOL    HW112582   9.524   8.856   9.238  0.6946  0.2784 -1.3139
34538SOL    HW212583   9.629   8.888   9.342 -1.3723 -1.1597  1.3428
34539SOL     OW12584   1.850   0.207   2.025 -0.8128 -0.5509  0.1521
34539SOL    HW112585   1.932   0.156   2.018  0.3956  1.4174 -0.7850
34539SOL    HW212586   1.870   0.290   1.983 -2.4114  1.0951  2.4078
34540SOL     OW12587   7.399   4.214   9.312  0.2292 -0.2278  0.4484
34540SOL    HW112588   7.466   4.157   9.273  0.3151  0.0661  0.1631
34540SOL    HW212589   7.320   4.160   9.313  0.7253 -0.9707  1.8241
34541SOL     OW12590   9.800  10.641   3.700 -0.0764  0.7433 -0.6401
34541SOL    HW112591   9.718  10.673   3.738 -1.9638 -0.0079 -3.7363
34541SOL    HW212592   9.818  10.700   3.628  0.8127 -0.4844 -1.4566
34542SOL     OW12593  11.970   1.766   9.267  0.5521  0.4882  0.3719
34542SOL    HW112594  12.052   1.720   9.247  0.9240  1.1672  0.3216
34542SOL    HW212595  11.988   1.858   9.246  0.0007  0.7483  1.0197
34543SOL     OW12596   1.509   0.036   5.736  0.3092 -0.2148  0.0817
34543SOL    HW112597   1.509   0.005   5.827  1.9315  1.0346  0.5481
34543SOL    HW212598   1.417   0.053   5.717 -0.4505 -3.2811  0.4438
34544SOL     OW12599   0.973   6.298   2.219  0.1621 -0.3670  0.5492
34544SOL    HW112600   1.066   6.308   2.201  0.2375  1.4536  1.6379
34544SOL    HW212601   0.930   6.318   2.136  0.6995  0.9935  0.5687
34545SOL     OW12602   2.234   1.842   0.327  0.3270  0.2706 -0.2891
34545SOL    HW112603   2.310   1.789   0.301 -0.3820 -1.2595  0.5847
34545SOL    HW212604   2.270   1.929   0.344  1.4807  0.2147 -2.1400
34546SOL     OW12605   6.031   4.097  10.438  0.1925 -0.3263  0.1413
34546SOL    HW112606   5.994   4.179  10.407 -1.4873 -0.4454  1.6276
34546SOL    HW212607   6.123   4.117  10.457  0.5461  0.4302 -2.1091
34547SOL     OW12608  11.408   3.900   6.804 -0.0021  0.5519 -0.5197
34547SOL    HW112609  11.404   3.972   6.742 -0.5593  0.9767 -0.0009
34547SOL    HW212610  11.317   3.876   6.820  0.1044  0.8246  0.5613
34548SOL     OW12611   4.693  11.976  11.007  0.1375  0.3934 -0.0562
34548SOL    HW112612   4.780  11.963  11.045  0.7203  2.4802 -0.5663
34548SOL    HW212613   4.709  12.007  10.918 -1.1907 -1.7274 -1.1151
34549SOL     OW12614   4.061   1.345  10.300 -0.0916  0.6116  0.2348
34549SOL    HW112615   3.981   1.359  10.250 -1.2371 -0.8194  1.5473
34549SOL    HW212616   4.034   1.355  10.392  1.7987  2.5780  0.6672
34550SOL     OW12617   5.743  11.608   5.090  0.4819 -0.1713  0.0495
34550SOL    HW112618   5.697  11.692   5.091 -1.3170 -1.0911  1.7603
34550SOL    HW212619   5.785  11.604   5.176  0.0811 -1.2497  0.2019
34551SOL     OW12620   4.123   4.609   4.644  0.2244 -0.3924  0.1408
34551SOL    HW112621   4.113   4.628   4.551 -0.7037 -0.4626  0.2159
34551SOL    HW212622   4.034   4.614   4.679  0.6489  0.4018  1.1715
34552SOL     OW12623  11.059  11.914   9.785  0.1038  0.0346 -0.0741
34552SOL    HW112624  11.041  11.869   9.702  2.2495 -0.1314 -0.4895
34552SOL    HW212625  11.004  11.868   9.849 -0.9103 -0.4085 -1.2136
34553SOL     OW12626  12.314   3.709   9.401 -0.1204 -0.5035  0.1296
34553SOL    HW112627  12.308   3.763   9.480 -0.6566  0.3007 -0.4441
34553SOL    HW212628  12.406   3.681   9.398 -0.1455 -0.7135  1.1444
34554SOL     OW12629  11.155   6.012  11.718 -0.0691 -0.0521 -0.3502
34554SOL    HW112630  11.241   6.046  11.743 -0.0013  0.9793 -1.8971
34554SOL    HW212631  11.106   6.089  11.690 -0.7165 -0.9189 -1.6905
34555SOL     OW12632   8.751  11.024   5.097  0.1438  0.1866  0.0338
34555SOL    HW112633   8.699  10.969   5.157  0.6422  1.0696  1.3204
34555SOL    HW212634   8.722  11.113   5.115  0.8810  0.5342 -0.4647
34556SOL     OW12635   7.750   4.572   4.020  0.0853  0.2203 -0.3127
34556SOL    HW112636   7.813   4.640   4.044  0.4448 -0.2613  0.1360
34556SOL    HW212637   7.805   4.497   3.997 -0.2725 -1.3438  3.2828
34557SOL     OW12638  11.575  10.085   0.458 -0.4692 -0.3740  0.6296
34557SOL    HW112639  11.584  10.007   0.404 -1.0796  0.6574 -1.0302
34557SOL    HW212640  11.654  10.136   0.439 -0.7329  0.0387  0.6337
34558SOL     OW12641   7.619   9.247   7.782 -0.1243  0.3455 -0.4861
34558SOL    HW112642   7.590   9.338   7.777 -1.0419  0.0549 -0.6435
34558SOL    HW212643   7.539   9.197   7.799  0.5679 -0.2937  1.1252
34559SOL     OW12644   8.094   1.477  12.004 -0.4229 -0.2927  0.3137
34559SOL    HW112645   8.087   1.398  11.951 -2.4459 -0.7860  1.2389
34559SOL    HW212646   8.009   1.486  12.046 -0.5105  2.7729 -0.2878
34560SOL     OW12647   4.456  10.699   2.498 -0.5488  0.3640 -0.1038
34560SOL    HW112648   4.389  10.633   2.516 -1.2964  0.4578 -2.2597
34560SOL    HW212649   4.422  10.779   2.540 -1.3850  0.2104 -0.4676
34561SOL     OW12650   5.196   0.010   4.854 -0.2240 -0.1851  0.2710
34561SOL    HW112651   5.107  -0.010   4.828 -0.4092  0.9160 -0.0050
34561SOL    HW212652   5.249  -0.006   4.776 -0.3717  0.4192  0.0467
34562SOL     OW12653   9.773   5.419   9.309 -0.1162  0.5511  0.0317
34562SOL    HW112654   9.715   5.459   9.374 -0.8774 -0.5463  0.0495
34562SOL    HW212655   9.818   5.349   9.356 -0.8641 -0.4236 -0.6723
34563SOL     OW12656   6.357   3.168   9.912 -0.2290 -0.0003 -0.9653
34563SOL    HW112657   6.396   3.081   9.911 -1.9604 -0.9385  1.8648
34563SOL    HW212658   6.267   3.154   9.881 -1.2729  0.2479  1.7425
34564SOL     OW12659   6.459   1.384   6.181 -0.1297 -0.4769 -0.0031
34564SOL    HW112660   6.392   1.374   6.113  0.0979 -1.4587 -0.1000
34564SOL    HW212661   6.514   1.455   6.149 -0.2627 -0.6520 -0.6493
34565SOL     OW12662   3.947   8.128   2.117 -0.0838  0.4061 -0.3927
34565SOL    HW112663   3.924   8.193   2.050  2.2963 -1.7093 -3.5726
34565SOL    HW212664   4.002   8.176   2.179 -0.2267  1.9303 -1.3881
34566SOL     OW12665   7.464   3.080   6.170 -0.7468 -0.0035  0.1874
34566SOL    HW112666   7.499   3.154   6.219 -0.7371 -0.8543  1.5263
34566SOL    HW212667   7.501   3.090   6.082  2.3860 -0.4607  1.3102
34567SOL     OW12668   6.496  11.148  12.497  0.4917 -0.0506 -0.1807
34567SOL    HW112669   6.415  11.198  12.505 -0.0505 -0.5987 -1.8067
34567SOL    HW212670   6.478  11.066  12.543  0.5520  0.2915  0.4650
34568SOL     OW12671   9.856  11.855   0.492  0.2331 -0.1848  0.1647
34568SOL    HW112672   9.809  11.927   0.452  0.7766  0.3890  0.5352
34568SOL    HW212673   9.796  11.820   0.558 -0.4904 -0.8538 -0.8122
34569SOL     OW12674   2.551   9.500   8.664  0.4463 -0.6269 -0.1985
34569SOL    HW112675   2.510   9.587   8.662  2.1331  0.3402  2.4579
34569SOL    HW212676   2.626   9.508   8.606  0.0996 -0.5984 -0.6478
34570SOL     OW12677   3.680   8.840  10.967 -0.0885 -0.7028  0.1219
34570SOL    HW112678   3.768   8.835  11.006  0.5974  0.6614 -1.1377
34570SOL    HW212679   3.692   8.891  10.887 -1.9924 -0.7618 -0.2530
34571SOL     OW12680   0.813   5.527  10.000 -0.1035  0.0540  0.1007
34571SOL    HW112681   0.722   5.539   9.974  0.1200 -0.7921 -1.1694
34571SOL    HW212682   0.819   5.435  10.025  0.1410  0.3944  1.3791
34572SOL     OW12683  10.420   6.605   0.979  0.0132 -0.2754 -0.6323
34572SOL    HW112684  10.345   6.655   0.949 -0.1496  0.6107  1.0818
34572SOL    HW212685  10.484   6.671   1.005  0.1679 -0.9321  0.7917
34573SOL     OW12686   9.255   0.584   8.688 -0.2993  0.5088 -0.9357
34573SOL    HW112687   9.228   0.624   8.606  1.4162  0.8840 -1.3435
34573SOL    HW212688   9.241   0.490   8.675 -1.4610  0.6808 -1.0748
34574SOL     OW12689  10.245   3.886   1.531  0.9359 -0.6419 -0.1781
34574SOL    HW112690  10.338   3.862   1.538  0.6914 -1.4846  0.3639
34574SOL    HW212691  10.239   3.971   1.575  1.7814  0.3739 -1.9428
34575SOL     OW12692   2.158   7.674   1.963  0.1902  0.1307 -0.0334
34575SOL    HW112693   2.117   7.659   1.877 -1.2254 -2.0070  0.9465
34575SOL    HW212694   2.088   7.713   2.016  1.1012  1.5772  0.1430
34576SOL     OW12695  11.966   0.815   4.224 -0.3368 -0.3882 -0.0698
34576SOL    HW112696  11.881   0.819   4.267  0.1215  2.4800  0.7653
34576SOL    HW212697  11.968   0.892   4.168  1.9761  0.0633  0.5360
34577SOL     OW12698   4.132   2.886   8.824 -0.3025  0.0476  0.9415
34577SOL    HW112699   4.078   2.930   8.758  0.4006  1.0784  1.0404
34577SOL    HW212700   4.144   2.951   8.893  0.6393 -0.3504  1.1598
34578SOL     OW12701   4.828   1.928   4.432 -0.0630 -0.1324 -0.2498
34578SOL    HW112702   4.768   1.890   4.367  0.7955 -0.6035 -0.7950
34578SOL    HW212703   4.799   1.891   4.515  0.6402 -1.9302 -0.7400
34579SOL     OW12704   5.674   2.024   5.392  0.4818  0.1743  0.5001
34579SOL    HW112705   5.634   2.036   5.478 -1.0452  0.3043 -0.1965
34579SOL    HW212706   5.601   2.026   5.331  1.7625  2.6742 -1.0974
34580SOL     OW12707   4.729   7.928  12.537 -0.1233  0.0847 -0.6262
34580SOL    HW112708   4.645   7.882  12.538  1.7139 -3.7265  0.9864
34580SOL    HW212709   4.769   7.902  12.454  0.3764 -0.0215 -0.3543
34581SOL     OW12710   1.592   3.629   1.712  0.7501  0.0321 -0.2716
34581SOL    HW112711   1.626   3.655   1.798 -1.8158  2.0782  0.2514
34581SOL    HW212712   1.558   3.540   1.725 -0.1885  0.5557  1.0497
34582SOL     OW12713  12.336   5.998   6.310 -0.0368  0.7526 -0.2979
34582SOL    HW112714  12.339   5.945   6.231 -0.1518  1.6752 -0.9365
34582SOL    HW212715  12.427   6.005   6.338 -0.2199 -1.8878  1.2696
34583SOL     OW12716   2.935   5.968   4.806  0.5799  0.4764  0.3839
34583SOL    HW112717   2.992   5.937   4.876  0.1678 -0.4406  0.3438
34583SOL    HW212718   2.969   6.054   4.783  0.4768  0.9929  1.9957
34584SOL     OW12719   1.527   2.157   0.443  0.0460  0.2302  0.3311
34584SOL    HW112720   1.608   2.114   0.469  0.8703  1.1277 -0.6727
34584SOL    HW212721   1.458   2.110   0.491  1.2240  0.0730  1.9475
34585SOL     OW12722  10.598   0.899   9.143 -0.0063  0.3747  0.5815
34585SOL    HW112723  10.504   0.917   9.149  0.1839  1.2599  1.0458
34585SOL    HW212724  10.638   0.985   9.135  0.8553  0.0707  1.4943
34586SOL     OW12725   2.133   5.899  10.662  0.1037 -0.2092 -0.1520
34586SOL    HW112726   2.184   5.935  10.734 -2.1246 -1.7372  2.3576
34586SOL    HW212727   2.088   5.974  10.624 -1.6892  0.2931  2.6640
34587SOL     OW12728   3.760   1.889  10.304  0.4661  1.0634 -0.5846
34587SOL    HW112729   3.755   1.817  10.241 -1.0710 -1.7644  2.4396
34587SOL    HW212730   3.825   1.859  10.368 -0.9708  1.8466  1.3140
34588SOL     OW12731   2.843  10.454   3.879 -0.6010  0.0498  0.5696
34588SOL    HW112732   2.922  10.487   3.922  0.5273 -0.6310 -0.8765
34588SOL    HW212733   2.798  10.532   3.847  0.9598  0.3589 -1.0077
34589SOL     OW12734  10.759   5.315   6.382 -0.2006 -0.1504 -0.2779
34589SOL    HW112735  10.703   5.308   6.305 -1.9116  0.1779  0.8887
34589SOL    HW212736  10.814   5.391   6.365  0.5920 -1.0097 -1.8352
34590SOL     OW12737   0.155   9.285   5.185 -0.0925  0.1389  0.0981
34590SOL    HW112738   0.223   9.239   5.235 -0.4652  0.2425  0.7136
34590SOL    HW212739   0.143   9.367   5.233 -0.2025  0.3968 -0.3728
34591SOL     OW12740   9.061   3.743   0.070  0.4109 -0.1454 -0.3413
34591SOL    HW112741   9.060   3.834   0.042 -1.3419  0.0341  0.1915
34591SOL    HW212742   8.969   3.719   0.076  0.7862 -1.2997  1.5840
34592SOL     OW12743   4.836  10.892   7.992  0.1226 -0.2605  0.1545
34592SOL    HW112744   4.882  10.908   7.910  1.3332 -0.4080  0.7799
34592SOL    HW212745   4.880  10.947   8.057 -0.7278 -0.2390  0.7439
34593SOL     OW12746  10.245  12.290   7.798 -0.2922  0.0816 -0.1109
34593SOL    HW112747  10.229  12.226   7.729 -0.4751  0.2109 -0.1884
34593SOL    HW212748  10.293  12.242   7.865 -1.2634 -0.3950  0.2578
34594SOL     OW12749   9.588  10.865   0.842 -0.3013  0.1360  0.1180
34594SOL    HW112750   9.501  10.877   0.804  0.2655 -2.4043 -2.3689
34594SOL    HW212751   9.647  10.870   0.767  1.4758 -0.2462  1.4388
34595SOL     OW12752   2.558   0.940   9.454  0.2239  0.5669 -0.0775
34595SOL    HW112753   2.492   0.903   9.396  0.0333  3.2354 -1.7669
34595SOL    HW212754   2.629   0.967   9.394  1.9428 -0.3396  1.4498
34596SOL     OW12755   1.617  11.952  11.478  0.1651 -0.2332  0.6503
34596SOL    HW112756   1.629  11.958  11.384  0.7174  1.7223  0.8000
34596SOL    HW212757   1.587  11.862  11.493  0.1867 -0.6170 -1.3515
34597SOL     OW12758   7.790  12.348   3.814 -0.1213 -0.1356  0.1464
34597SOL    HW112759   7.853  12.416   3.790  1.6373 -1.7492 -0.0414
34597SOL    HW212760   7.843  12.276   3.846 -1.8702 -1.6687 -0.1919
34598SOL     OW12761   0.109   0.541   7.261  0.3555  0.4143 -0.0000
34598SOL    HW112762   0.033   0.589   7.229  1.9773  3.4123  0.2263
34598SOL    HW212763   0.074   0.479   7.324 -1.9975  0.7912 -0.8305
34599SOL     OW12764   6.031   4.788   7.742 -0.3398  0.6945  0.0734
34599SOL    HW112765   6.003   4.705   7.782 -1.5544  1.3263  0.5784
34599SOL    HW212766   6.067   4.839   7.815  0.6414  0.5321 -0.2819
34600SOL     OW12767  10.954   2.832   4.581 -0.2478  0.2137  0.4108
34600SOL    HW112768  11.037   2.784   4.586  1.1073  1.8955 -2.9847
34600SOL    HW212769  10.891   2.767   4.549  0.2325 -0.5703  1.0109
34601SOL     OW12770   1.841   5.375   5.926  0.5875 -0.0178  0.0884
34601SOL    HW112771   1.849   5.329   6.009  1.9924  0.4344  0.2354
34601SOL    HW212772   1.871   5.464   5.945  2.4176 -0.3065 -1.2194
34602SOL     OW12773   0.764   5.241  11.846 -0.4705  0.7482 -0.3925
34602SOL    HW112774   0.851   5.231  11.883 -0.1895  3.8989  0.1136
34602SOL    HW212775   0.736   5.152  11.824  2.3229 -0.4769  0.5905
34603SOL     OW12776   4.779   5.038   5.363  0.5516  0.0007 -0.1774
34603SOL    HW112777   4.813   5.033   5.453 -2.1485 -1.6906  0.8624
34603SOL    HW212778   4.779   5.132   5.343  0.3972  0.5003  1.9296
34604SOL     OW12779   1.215   5.060   5.710  0.1151  0.5378  0.0038
34604SOL    HW112780   1.243   5.041   5.621 -0.1699 -1.0764  0.2148
34604SOL    HW212781   1.132   5.107   5.700 -0.7616 -1.0651 -0.6125
34605SOL     OW12782   3.246   8.330  11.399 -0.0733  0.5047 -0.3153
34605SOL    HW112783   3.210   8.241  11.408  2.8956 -1.0160 -1.9533
34605SOL    HW212784   3.245   8.347  11.305 -1.9122  2.9348  0.0443
34606SOL     OW12785   7.834  10.155  12.289  0.5083 -0.1820 -0.0105
34606SOL    HW112786   7.842  10.238  12.335  0.8661 -0.0915 -0.2292
34606SOL    HW212787   7.908  10.103  12.319  1.1731  0.1514 -1.0255
34607SOL     OW12788  10.470   5.179  11.795 -0.2481 -0.7566  0.2882
34607SOL    HW112789  10.532   5.106  11.798  0.1160 -0.6050 -1.8946
34607SOL    HW212790  10.402   5.149  11.735 -1.9467 -0.6141  2.0279
34608SOL     OW12791   6.270   7.060   3.228 -0.3511  1.1661 -0.5478
34608SOL    HW112792   6.257   7.126   3.160  0.5089  0.5253 -1.3752
34608SOL    HW212793   6.313   6.987   3.182 -1.3356 -0.0094  0.3074
34609SOL     OW12794   8.639  12.334  10.246 -0.3284  0.0332  0.4840
34609SOL    HW112795   8.560  12.348  10.298 -0.4723  0.4882  0.1536
34609SOL    HW212796   8.608  12.291  10.166 -0.3138  0.6363  0.1483
34610SOL     OW12797  12.384  10.802  10.416 -0.0429  0.2287 -0.2750
34610SOL    HW112798  12.445  10.872  10.441  2.4159 -2.2579  1.1839
34610SOL    HW212799  12.434  10.746  10.357 -1.3948 -1.1633 -0.1535
34611SOL     OW12800   3.146   6.662   5.736  0.2757  0.3263  0.5659
34611SOL    HW112801   3.217   6.700   5.684 -0.0050  1.9781  1.3336
34611SOL    HW212802   3.103   6.601   5.676  1.3241  0.5191 -0.4246
34612SOL     OW12803  11.162   0.722   1.671  0.0086  0.2562 -0.3806
34612SOL    HW112804  11.216   0.721   1.750 -1.5834 -2.1428  0.8227
34612SOL    HW212805  11.185   0.642   1.625  0.0656  1.0407 -1.7698
34613SOL     OW12806  10.633   9.185   0.520 -0.6443 -0.5211  0.4062
34613SOL    HW112807  10.674   9.099   0.513  0.9485  0.0271  2.1775
34613SOL    HW212808  10.706   9.245   0.538 -1.7159  1.2130 -0.7846
34614SOL     OW12809   0.439  10.957   0.426 -0.4459 -0.2055  0.1725
34614SOL    HW112810   0.479  10.886   0.375  0.4950  0.4740 -0.0651
34614SOL    HW212811   0.355  10.973   0.383 -1.4643 -2.3045  1.2554
34615SOL     OW12812  10.163   3.214   3.792 -0.2489  0.5762 -0.1295
34615SOL    HW112813  10.186   3.141   3.851  0.4257 -0.1628 -1.2663
34615SOL    HW212814  10.178   3.292   3.845  2.1955  0.0146  0.1675
34616SOL     OW12815   0.452   3.782   5.548 -0.4156 -0.2041  0.4130
34616SOL    HW112816   0.415   3.798   5.461  1.2343  1.5356 -0.0139
34616SOL    HW212817   0.534   3.736   5.531 -0.7143 -1.0389  1.1588
34617SOL     OW12818  11.824   6.934   0.311 -0.1626  0.1590 -0.3903
34617SOL    HW112819  11.836   7.002   0.245 -1.3467  1.5531  0.7453
34617SOL    HW212820  11.889   6.955   0.379  0.1634 -0.4771 -0.4984
34618SOL     OW12821   6.399   3.028   5.757 -0.0506  0.1650  0.7119
34618SOL    HW112822   6.377   3.062   5.670  1.1891 -0.3311  0.1915
34618SOL    HW212823   6.385   3.103   5.815  0.5690  0.9593 -0.1291
34619SOL     OW12824   5.118   0.545  10.613 -0.0731  0.1126 -0.0819
34619SOL    HW112825   5.056   0.555  10.685  0.5193 -0.1044  0.4680
34619SOL    HW212826   5.197   0.509  10.654 -0.1855 -1.3253 -1.0600
34620SOL     OW12827   9.986   9.116   6.316  0.1823  0.1858 -0.3331
34620SOL    HW112828   9.921   9.182   6.339  0.4210  0.0977  0.6224
34620SOL    HW212829   9.940   9.057   6.256 -0.7457 -0.0963  0.6356
34621SOL     OW12830   6.675  11.491   4.706  0.3608 -0.4225 -0.0927
34621SOL    HW112831   6.646  11.431   4.637 -0.1621  0.1408 -0.3673
34621SOL    HW212832   6.760  11.455   4.734  0.8242 -0.3805 -1.3741
34622SOL     OW12833  12.498   7.532   4.656 -0.0685 -0.5297  0.3710
34622SOL    HW112834  12.516   7.461   4.718 -1.8522  0.1703  1.7609
34622SOL    HW212835  12.519   7.612   4.704  2.1828 -0.0391 -1.2732
34623SOL     OW12836   4.047   8.366   7.525 -0.5281 -0.4250 -0.1332
34623SOL    HW112837   4.115   8.332   7.466 -0.9288  1.0525 -1.5348
34623SOL    HW212838   4.093   8.430   7.579 -0.5562 -0.2650 -0.2947
34624SOL     OW12839   8.076   0.419   8.769  0.2394 -0.3663 -0.0258
34624SOL    HW112840   7.997   0.367   8.783  0.5860 -0.6756  0.8545
34624SOL    HW212841   8.046   0.510   8.771 -0.2364 -0.5067 -0.6772
34625SOL     OW12842   0.304   0.511   8.600 -0.1037  0.0555 -0.0014
34625SOL    HW112843   0.341   0.580   8.544 -0.8540 -0.3063 -0.9588
34625SOL    HW212844   0.318   0.544   8.689  0.0738  1.1788 -0.4196
34626SOL     OW12845   5.167   6.865   4.331  0.4022  0.1293  0.1832
34626SOL    HW112846   5.075   6.890   4.324  0.3210 -0.0215  0.6665
34626SOL    HW212847   5.171   6.809   4.408  0.8228 -0.2371 -0.1004
34627SOL     OW12848   3.261   4.071   1.091 -0.5840  0.4879  0.8524
34627SOL    HW112849   3.250   4.149   1.038 -1.5362 -1.0503 -1.3810
34627SOL    HW212850   3.334   4.091   1.150 -0.2084  2.6833 -0.2831
34628SOL     OW12851   3.272   6.151   2.225  0.0823  0.3109  0.3800
34628SOL    HW112852   3.353   6.130   2.272  0.4396 -0.3328 -0.5039
34628SOL    HW212853   3.248   6.070   2.181 -0.2255  0.9071 -0.5649
34629SOL     OW12854   1.613  10.227   4.450  0.3890  0.1490  0.2509
34629SOL    HW112855   1.532  10.278   4.455 -0.1622 -0.6999  0.1208
34629SOL    HW212856   1.586  10.142   4.416  1.4090  0.0045 -0.2361
34630SOL     OW12857   8.815   9.936   3.407  0.3523 -0.4718  0.1063
34630SOL    HW112858   8.728   9.972   3.424  0.7529  1.0188 -0.8583
34630SOL    HW212859   8.800   9.868   3.341 -0.2083 -0.9906  0.7573
34631SOL     OW12860   4.288  10.991   4.267  0.2169 -1.0309 -0.0319
34631SOL    HW112861   4.347  11.042   4.212 -1.7308 -0.0878 -1.3584
34631SOL    HW212862   4.262  10.916   4.214 -1.5275 -0.2173 -0.4217
34632SOL     OW12863   4.318   4.730   1.549 -0.3716  0.2824 -0.8706
34632SOL    HW112864   4.366   4.651   1.571  0.2052  0.7603 -0.3442
34632SOL    HW212865   4.261   4.745   1.625  0.0500  0.7579 -0.6397
34633SOL     OW12866  11.352   0.250   3.823  1.0030  0.0567 -0.7122
34633SOL    HW112867  11.353   0.166   3.868  2.5057  0.0348 -0.7357
34633SOL    HW212868  11.259   0.271   3.813  0.6154 -0.5605  1.2149
34634SOL     OW12869  10.789   7.631   3.775  0.2699 -0.1168  0.6844
34634SOL    HW112870  10.795   7.726   3.765 -0.3841 -0.1838 -0.5193
34634SOL    HW212871  10.700   7.610   3.746 -0.2015 -0.9103  2.5535
34635SOL     OW12872   9.274   9.396   2.275  0.0306  0.9408 -0.4431
34635SOL    HW112873   9.338   9.429   2.212  1.0088 -2.3171 -1.3690
34635SOL    HW212874   9.194   9.385   2.224  0.2774  0.0960 -0.6632
34636SOL     OW12875   0.756   3.311   6.822  0.0514  0.0613 -0.0283
34636SOL    HW112876   0.698   3.240   6.849 -0.3428  0.0298 -0.9359
34636SOL    HW212877   0.818   3.271   6.761 -1.2155  0.7834 -1.8793
34637SOL     OW12878   3.960  11.373   4.330 -0.1117  0.1052 -0.0328
34637SOL    HW112879   3.901  11.297   4.338  2.8725 -2.5254 -0.9557
34637SOL    HW212880   4.046  11.339   4.351  1.4936  3.1782 -1.0440
34638SOL     OW12881   7.206   3.463   1.500  0.1711  0.2117 -0.1429
34638SOL    HW112882   7.204   3.409   1.579 -0.4215 -0.4685 -0.6106
34638SOL    HW212883   7.224   3.401   1.429  2.0222  0.9926 -0.4126
34639SOL     OW12884   9.529   0.119   7.578 -0.5015 -0.5711  0.3538
34639SOL    HW112885   9.495   0.208   7.569 -1.3016 -0.6500  2.1316
34639SOL    HW212886   9.622   0.127   7.558 -0.7306  0.4821 -0.3986
34640SOL     OW12887   4.686  12.467   9.417  0.1473  0.3072  0.1413
34640SOL    HW112888   4.614  12.441   9.361 -0.7426 -0.4302  1.5829
34640SOL    HW212889   4.647  12.527   9.481  0.6963 -0.4323  1.2004
34641SOL     OW12890   5.553   6.232   2.102 -0.1896 -0.1294  0.3921
34641SOL    HW112891   5.642   6.196   2.100 -0.3674 -0.6137  1.0712
34641SOL    HW212892   5.496   6.157   2.084 -0.4741  0.1696  0.0151
34642SOL     OW12893   1.971   6.920  10.363 -0.4369  0.1753  0.3677
34642SOL    HW112894   1.901   6.945  10.303 -1.3540 -2.4441  0.2090
34642SOL    HW212895   2.043   6.894  10.306 -0.3076  0.3337  0.4593
34643SOL     OW12896   2.149   6.929  11.238 -0.3672 -0.2102  0.3420
34643SOL    HW112897   2.069   6.878  11.237 -1.1115  0.9233 -0.9118
34643SOL    HW212898   2.144   6.980  11.319  0.0620 -1.5446  1.2586
34644SOL     OW12899   4.054  10.325   6.515  0.1126  0.0990 -0.0750
34644SOL    HW112900   4.139  10.305   6.475 -0.1320 -2.2247  0.4253
34644SOL    HW212901   3.989  10.290   6.453 -0.4410  0.7487  0.1263
34645SOL     OW12902   5.867   5.951   0.003  0.6758  0.1247  0.4303
34645SOL    HW112903   5.893   5.860  -0.010  0.1993  0.0527 -0.0611
34645SOL    HW212904   5.897   5.996  -0.076 -0.3528  0.1088  0.0172
34646SOL     OW12905   7.189   3.055   4.248 -0.1293 -0.2339 -0.1070
34646SOL    HW112906   7.138   3.135   4.235  0.3432  0.5210  2.3002
34646SOL    HW212907   7.171   3.030   4.338  0.2712 -2.5022 -0.6055
34647SOL     OW12908   2.177   0.707   1.602  0.2603  0.6251 -0.2525
34647SOL    HW112909   2.242   0.770   1.570  0.4869  0.8603  0.6629
34647SOL    HW212910   2.162   0.731   1.693  1.6077 -1.6504  0.6611
34648SOL     OW12911  12.514   8.801   3.776  0.1641 -0.0661 -0.1314
34648SOL    HW112912  12.460   8.767   3.848 -0.8151 -0.9993 -1.2484
34648SOL    HW212913  12.517   8.895   3.789 -0.8431 -0.1254  0.5721
34649SOL     OW12914   0.489   7.733  10.880  0.1587  0.2709 -0.9263
34649SOL    HW112915   0.549   7.658  10.877  0.9464  0.7334  1.2988
34649SOL    HW212916   0.547   7.809  10.887 -0.6580  0.9540 -1.4614
34650SOL     OW12917   2.900   7.736   4.286  0.5671  0.1900  0.6271
34650SOL    HW112918   2.872   7.822   4.256  0.1797  0.7441  2.4604
34650SOL    HW212919   2.990   7.748   4.316  1.3418 -0.6043 -1.2092
34651SOL     OW12920   7.198   6.476   9.024  0.3803  0.2499  0.1701
34651SOL    HW112921   7.230   6.560   8.993  1.2752 -0.6200 -1.3753
34651SOL    HW212922   7.117   6.462   8.975  0.5520 -0.0610 -0.0263
34652SOL     OW12923   0.364   6.653   7.116  0.0406 -0.3726 -0.1974
34652SOL    HW112924   0.343   6.561   7.135  2.7084 -1.0459 -0.0948
34652SOL    HW212925   0.397   6.688   7.199  0.6258  0.1727 -0.6494
34653SOL     OW12926   0.498  12.303   2.912  1.0035  0.2741 -0.2626
34653SOL    HW112927   0.544  12.333   2.990  1.5442 -0.4895 -0.2840
34653SOL    HW212928   0.548  12.341   2.839  1.2862 -0.1098 -0.2708
34654SOL     OW12929   3.911   6.909   9.904 -0.2709 -0.1114  0.2552
34654SOL    HW112930   3.892   7.003   9.902  1.2877  0.2193  0.2387
34654SOL    HW212931   3.899   6.880   9.814 -0.9508  0.0075  0.2970
34655SOL     OW12932   9.437   6.687   0.435  0.3989  0.6504 -0.6655
34655SOL    HW112933   9.404   6.775   0.450  0.5101  0.7226 -0.8454
34655SOL    HW212934   9.511   6.698   0.376  0.3104  0.4194 -0.8217
34656SOL     OW12935   2.370   1.042   3.365  0.0988  0.6469 -0.6706
34656SOL    HW112936   2.299   1.086   3.413  0.6740  1.3544 -0.4562
34656SOL    HW212937   2.381   1.093   3.285  0.9120  1.0367 -0.3243
34657SOL     OW12938   0.018   6.928  11.224  0.7381  0.0661 -0.2511
34657SOL    HW112939   0.107   6.962  11.236  0.7309  0.8312 -2.0444
34657SOL    HW212940  -0.011   6.905  11.312  2.0497  1.4989  0.6068
34658SOL     OW12941   8.096   6.914   0.543  0.4545 -0.7203 -0.2135
34658SOL    HW112942   8.106   6.826   0.507  0.2561 -0.7798 -0.1265
34658SOL    HW212943   8.114   6.904   0.636 -0.2535 -0.8036 -0.0785
34659SOL     OW12944   9.385   3.281  12.190 -0.8481 -0.0080 -0.3094
34659SOL    HW112945   9.372   3.271  12.284 -2.3056 -1.3556 -0.6008
34659SOL    HW212946   9.465   3.231  12.171  0.2807  1.4723  0.3795
34660SOL     OW12947   8.842   5.298   1.430  0.4080 -0.2394  0.5353
34660SOL    HW112948   8.857   5.391   1.414  0.0205  0.1274  2.1614
34660SOL    HW212949   8.923   5.268   1.471  0.6977 -0.7444 -0.3690
34661SOL     OW12950  10.749  11.604   3.573  0.4686  0.9081  0.0644
34661SOL    HW112951  10.825  11.662   3.581  0.1695  1.2492  0.5043
34661SOL    HW212952  10.713  11.599   3.662  0.1101  0.5669 -0.0940
34662SOL     OW12953  12.241   6.349   1.653  0.0700 -0.0349  0.0813
34662SOL    HW112954  12.319   6.391   1.616  0.8644 -1.0117  0.5886
34662SOL    HW212955  12.182   6.421   1.674  0.1371  0.6315 -1.8275
34663SOL     OW12956  12.436   1.722   3.946 -0.4812 -0.0888 -0.2393
34663SOL    HW112957  12.372   1.723   4.017  0.2481  0.2814  0.4139
34663SOL    HW212958  12.495   1.795   3.964 -0.7992  0.5746 -1.7085
34664SOL     OW12959   0.688   9.320  10.558 -0.0652  0.1832  0.0343
34664SOL    HW112960   0.766   9.298  10.609  0.0686  1.3975  0.3717
34664SOL    HW212961   0.615   9.286  10.612 -0.0100  2.4375  1.6855
34665SOL     OW12962   3.071  11.895   6.962  0.3189  0.1132 -0.2756
34665SOL    HW112963   3.015  11.916   7.036  0.4115 -1.6075  0.3317
34665SOL    HW212964   3.152  11.861   7.001 -0.0364 -1.8497 -1.1102
34666SOL     OW12965   8.950   5.760   0.709  0.1724  0.1215  0.3208
34666SOL    HW112966   8.854   5.768   0.706  0.0246 -1.4119 -2.0435
34666SOL    HW212967   8.965   5.668   0.731  1.0745  0.1143 -0.2807
34667SOL     OW12968  11.717   5.343  10.223 -0.4499 -0.4012  0.4671
34667SOL    HW112969  11.742   5.436  10.221 -2.1604  0.0949  0.8277
34667SOL    HW212970  11.787   5.301  10.274  1.6067  0.2224 -1.6243
34668SOL     OW12971   3.566   4.505  12.246 -0.2293 -0.0308 -0.3411
34668SOL    HW112972   3.512   4.584  12.236  0.6958  0.8506  1.1888
34668SOL    HW212973   3.627   4.509  12.173 -1.1162 -0.1261 -1.1092
34669SOL     OW12974   5.437   4.166   4.059  0.6118 -0.0779 -0.1847
34669SOL    HW112975   5.438   4.072   4.042 -0.9698  0.0419 -1.1440
34669SOL    HW212976   5.529   4.192   4.058  0.9772 -1.2912 -1.8645
34670SOL     OW12977   3.972   1.665   1.203 -0.1035  0.0013  0.3666
34670SOL    HW112978   3.905   1.688   1.268  0.5004  0.2190  0.9252
34670SOL    HW212979   3.979   1.570   1.210  1.0038  0.1544  1.6953
34671SOL     OW12980   1.833   9.832   7.091  0.0730 -1.0573  0.4091
34671SOL    HW112981   1.863   9.923   7.096 -1.1319 -0.5013 -1.4694
34671SOL    HW212982   1.882   9.787   7.160  1.2359  0.8505  0.9093
34672SOL     OW12983   4.190   4.170  11.399 -0.0240 -0.1679 -0.2602
34672SOL    HW112984   4.181   4.126  11.484  2.8655 -1.8284 -0.6996
34672SOL    HW212985   4.229   4.255  11.420  0.1877 -0.3523  0.0984
34673SOL     OW12986  10.425   1.405   1.440 -0.4413 -0.0798  0.4307
34673SOL    HW112987  10.358   1.402   1.509 -0.0188 -2.0739  0.7868
34673SOL    HW212988  10.442   1.314   1.419 -0.7454  0.4558 -2.5374
34674SOL     OW12989   8.723  11.636   5.494 -0.1546  0.1244 -0.1104
34674SOL    HW112990   8.789  11.705   5.492 -0.1623  0.1509  0.3048
34674SOL    HW212991   8.703  11.626   5.587 -0.6891  0.0733 -0.2308
34675SOL     OW12992   4.800  11.371   8.063  0.3063  0.1125 -0.1927
34675SOL    HW112993   4.726  11.319   8.096 -0.0469  1.4416  1.2415
34675SOL    HW212994   4.794  11.364   7.968 -0.2654 -1.6951 -0.0572
34676SOL     OW12995  11.154   2.226   0.124 -0.3673  0.2019 -0.0769
34676SOL    HW112996  11.125   2.145   0.084 -0.8798 -0.4982  1.6124
34676SOL    HW212997  11.075   2.279   0.133 -0.2805  0.3061  0.0903
34677SOL     OW12998   5.547   8.776  11.666  0.2780  0.2887  0.8204
34677SOL    HW112999   5.517   8.856  11.623 -1.2859  0.1281  1.5501
34677SOL    HW213000   5.635   8.797  11.696 -0.0759  1.7144  0.9310
34678SOL     OW13001   3.422  11.759  10.772 -0.1848  0.2788  0.5916
34678SOL    HW113002   3.514  11.772  10.795  0.1107 -0.3974 -0.1562
34678SOL    HW213003   3.423  11.686  10.710 -1.3277 -0.3979  1.3376
34679SOL     OW13004   2.279  12.276  11.701 -0.4606 -0.0468 -0.1277
34679SOL    HW113005   2.267  12.274  11.606 -0.6717  0.6151 -0.1220
34679SOL    HW213006   2.204  12.228  11.736 -0.7163  0.2343 -0.2789
34680SOL     OW13007   8.101   1.820   2.254  0.1520 -0.2836 -0.4616
34680SOL    HW113008   8.036   1.833   2.185  0.8653  0.8142 -0.9458
34680SOL    HW213009   8.048   1.802   2.333 -0.6470 -2.3451 -1.4028
34681SOL     OW13010   0.625  11.287   5.853 -0.0847 -0.9292 -0.0786
34681SOL    HW113011   0.707  11.324   5.820 -1.3919  0.5251 -1.8876
34681SOL    HW213012   0.605  11.339   5.931 -0.3727  0.2298 -0.9012
34682SOL     OW13013   0.957   2.682  11.894  0.1480  0.6175 -0.3616
34682SOL    HW113014   0.984   2.656  11.981 -0.4145  0.1033 -0.3348
34682SOL    HW213015   0.880   2.628  11.875 -1.5042  2.7170 -0.0141
34683SOL     OW13016   7.780   3.183   6.342 -0.4246  0.2563  0.0342
34683SOL    HW113017   7.696   3.226   6.354 -0.8180 -0.5752  0.3544
34683SOL    HW213018   7.774   3.103   6.394 -0.1899 -0.8064 -1.4769
34684SOL     OW13019   3.739   7.333   1.110  0.1650  0.0603 -0.2712
34684SOL    HW113020   3.671   7.399   1.104  0.6784  0.6391  0.0921
34684SOL    HW213021   3.821   7.382   1.101  0.6885 -0.0717  2.7652
34685SOL     OW13022   5.759   4.720   9.524 -0.7637 -0.0851  0.0350
34685SOL    HW113023   5.842   4.766   9.533 -0.1400 -0.9991 -0.8517
34685SOL    HW213024   5.695   4.790   9.509  0.1059  0.5377 -0.9281
34686SOL     OW13025   5.179  10.986   0.495 -0.2199  0.1553 -0.0967
34686SOL    HW113026   5.257  10.986   0.439 -1.7782 -1.3805 -2.4139
34686SOL    HW213027   5.189  10.907   0.549  0.7189  1.0169  1.0523
34687SOL     OW13028   4.432  12.316   4.513  0.0690 -0.3260  0.1523
34687SOL    HW113029   4.362  12.373   4.544  0.3704  0.9955 -1.4348
34687SOL    HW213030   4.453  12.350   4.426  1.4780 -1.7971 -0.1256
34688SOL     OW13031   8.515   0.976  12.140 -0.6206 -0.5961  0.6878
34688SOL    HW113032   8.595   0.967  12.089 -2.2418 -1.7694 -1.8573
34688SOL    HW213033   8.494   1.069  12.137  0.3577 -0.3626  0.9321
34689SOL     OW13034   5.280   6.159   3.058  0.2899  0.0966  0.0463
34689SOL    HW113035   5.265   6.065   3.065 -0.1795  0.2194  0.9554
34689SOL    HW213036   5.369   6.172   3.091  0.4195 -0.0519 -0.2499
34690SOL     OW13037   9.984   0.814   6.598  0.3709  0.5397  0.0303
34690SOL    HW113038  10.060   0.853   6.642  0.3170 -0.0332  0.6430
34690SOL    HW213039   9.958   0.880   6.534  0.1876  1.5980  1.1491
34691SOL     OW13040   9.247   0.906   3.249  0.5830  0.1176 -0.0716
34691SOL    HW113041   9.330   0.874   3.213  1.4154  2.3686 -0.3171
34691SOL    HW213042   9.270   0.935   3.337 -0.1015  0.1443  0.0969
34692SOL     OW13043   4.866   0.383  12.239  0.0002 -0.8050  0.1657
34692SOL    HW113044   4.777   0.401  12.209  0.1847  0.6010  0.3904
34692SOL    HW213045   4.891   0.461  12.289  1.3471 -1.1837  0.1320
34693SOL     OW13046   4.271   7.893   5.360  0.3176 -0.5437  0.0023
34693SOL    HW113047   4.211   7.942   5.417 -0.1163  0.0931 -0.9583
34693SOL    HW213048   4.357   7.904   5.400 -0.0956 -0.7869  0.9685
34694SOL     OW13049   9.601   8.216   9.362 -0.3956 -0.2998  0.0202
34694SOL    HW113050   9.535   8.270   9.321 -0.3836  0.5035  1.0138
34694SOL    HW213051   9.670   8.277   9.388  0.8791 -1.1393 -1.2035
34695SOL     OW13052   9.675   4.468   4.641 -0.4629 -0.6480 -0.6252
34695SOL    HW113053   9.596   4.467   4.696 -1.0244  3.8494 -0.9464
34695SOL    HW213054   9.641   4.463   4.552 -0.2313 -0.4478 -0.7238
34696SOL     OW13055  10.230  11.266   6.014  0.3942 -0.0776  0.1374
34696SOL    HW113056  10.158  11.330   6.011  1.4619  1.1757  0.4405
34696SOL    HW213057  10.284  11.295   6.088 -0.4557 -2.8667  1.9855
34697SOL     OW13058   2.606   2.369  12.156 -0.1937  0.3699 -0.2942
34697SOL    HW113059   2.698   2.346  12.169 -0.2888  0.4039  0.4680
34697SOL    HW213060   2.608   2.449  12.105  0.1619 -0.7271 -2.0924
34698SOL     OW13061   0.358  12.449   4.615  0.2992 -0.8447  0.4103
34698SOL    HW113062   0.397  12.527   4.577 -0.5313 -0.4333  0.3988
34698SOL    HW213063   0.433  12.390   4.629  1.1267  0.4303  1.6318
34699SOL     OW13064   0.510   1.936   8.980  0.0488  0.9814  0.1372
34699SOL    HW113065   0.503   1.935   8.884 -1.5136 -2.1303  0.1622
34699SOL    HW213066   0.604   1.924   8.997  0.4864  2.5025 -0.9177
34700SOL     OW13067  12.180   3.149   8.928  0.9236  0.3467 -0.4207
34700SOL    HW113068  12.148   3.202   9.002  1.6817 -1.0867  1.0006
34700SOL    HW213069  12.158   3.201   8.851  0.0973  1.9225  0.7952
34701SOL     OW13070   9.899   7.090   7.751 -0.3811 -0.5925  0.7143
34701SOL    HW113071   9.909   6.997   7.733 -2.2088 -0.5305 -0.9055
34701SOL    HW213072   9.865   7.128   7.670  0.7838  1.6075  1.1516
34702SOL     OW13073   3.058   0.456   4.593  0.3291  0.2496 -0.4033
34702SOL    HW113074   3.050   0.424   4.503 -0.4896 -0.6684 -0.0297
34702SOL    HW213075   3.129   0.520   4.590 -0.0401  0.6291 -1.8036
34703SOL     OW13076   4.155   4.154   7.997  0.0092 -0.5331 -0.0187
34703SOL    HW113077   4.133   4.149   8.090  0.4397  2.9765  0.3969
34703SOL    HW213078   4.081   4.112   7.953 -2.1400  1.1008  1.7979
34704SOL     OW13079   5.418   7.053   8.457  0.9133  0.0760  0.8316
34704SOL    HW113080   5.439   6.997   8.532  1.0249  0.2450  0.9256
34704SOL    HW213081   5.490   7.115   8.452  0.8132  0.1821  0.6954
34705SOL     OW13082   1.512   0.189  11.564  0.1323 -0.3119 -0.4023
34705SOL    HW113083   1.508   0.258  11.499 -1.5640 -0.8402 -0.9139
34705SOL    HW213084   1.424   0.186  11.602  0.7352 -0.8494  1.0439
34706SOL     OW13085   9.521   4.685  12.597  0.3155  0.1483 -0.9817
34706SOL    HW113086   9.453   4.668  12.532 -0.4586 -0.2699 -0.0924
34706SOL    HW213087   9.475   4.682  12.681  1.2310  0.9710 -0.4274
34707SOL     OW13088  11.832   8.532   8.548  0.4712 -0.1617 -0.2998
34707SOL    HW113089  11.904   8.561   8.492  0.1062  0.5112 -0.4379
34707SOL    HW213090  11.753   8.554   8.498  0.1625 -0.7696 -0.0945
34708SOL     OW13091   8.105   2.840   2.416 -0.3299  0.0203 -0.2984
34708SOL    HW113092   8.099   2.894   2.337  2.8992 -0.5699 -1.0819
34708SOL    HW213093   8.071   2.896   2.486 -0.7149  1.5892 -1.6934
34709SOL     OW13094   1.751   1.244   0.724  0.1296  0.5708 -0.8079
34709SOL    HW113095   1.703   1.229   0.806 -0.5247  0.0567 -1.2799
34709SOL    HW213096   1.782   1.157   0.698  2.4120  1.0276  0.1213
34710SOL     OW13097   2.319   3.210   0.779  0.8262  0.1717  0.5267
34710SOL    HW113098   2.283   3.299   0.781  2.2304  0.7660  0.7552
34710SOL    HW213099   2.282   3.168   0.857 -0.6093  0.2174 -0.0990
34711SOL     OW13100   5.797  10.269  12.398  0.3393  0.0407 -0.0609
34711SOL    HW113101   5.795  10.298  12.307  1.2380 -0.1724 -0.1628
34711SOL    HW213102   5.889  10.280  12.424  0.1313 -0.0893  0.7565
34712SOL     OW13103   2.991  12.017   7.546  0.0434 -0.1440  0.2032
34712SOL    HW113104   2.984  12.080   7.617  1.0933  0.4477 -0.2040
34712SOL    HW213105   2.910  12.027   7.496  0.3468  1.1193 -0.0505
34713SOL     OW13106   1.897   2.609   6.747  0.3564 -0.1820 -0.8053
34713SOL    HW113107   1.911   2.703   6.747 -0.3556 -0.0384  0.9476
34713SOL    HW213108   1.965   2.574   6.689  1.3091  1.3065 -0.6281
34714SOL     OW13109   0.984   1.457   3.098  0.4560  0.6996 -0.0922
34714SOL    HW113110   1.013   1.514   3.026 -0.4901  0.7422 -0.4628
34714SOL    HW213111   0.900   1.495   3.125 -0.5043 -0.8399 -0.7618
34715SOL     OW13112   7.959   2.497   1.569 -0.0962  0.7208  0.1535
34715SOL    HW113113   8.011   2.449   1.634  0.6094  1.1734 -0.0634
34715SOL    HW213114   7.895   2.545   1.621  0.3875  0.9895  0.5129
34716SOL     OW13115  12.145   7.169   7.531 -0.3130  0.1703  0.3422
34716SOL    HW113116  12.220   7.118   7.503  0.1027  0.8887  0.1278
34716SOL    HW213117  12.127   7.229   7.458  1.2923  2.6306  1.8107
34717SOL     OW13118   5.607   9.385   3.038  0.3664  0.0731  0.5084
34717SOL    HW113119   5.535   9.412   3.095  0.0962  0.4575 -0.0086
34717SOL    HW213120   5.616   9.291   3.055 -1.9959 -0.5767 -1.2937
34718SOL     OW13121  11.401   7.196   8.412 -0.4382  0.1581  0.2385
34718SOL    HW113122  11.412   7.273   8.468 -1.1694  1.1664 -0.9719
34718SOL    HW213123  11.333   7.221   8.350 -0.4140 -1.3392 -0.4265
34719SOL     OW13124   7.137   6.090   1.477 -0.2175 -0.1695  0.4934
34719SOL    HW113125   7.052   6.131   1.456 -0.4899 -1.8528 -2.1284
34719SOL    HW213126   7.131   6.003   1.440  1.8305 -1.2292  2.4204
34720SOL     OW13127   0.521   2.413  11.008 -0.2587  0.1304  0.4661
34720SOL    HW113128   0.454   2.422  11.076 -1.1099 -1.2246 -0.1400
34720SOL    HW213129   0.579   2.488  11.021 -2.6901  2.2093  0.1603
34721SOL     OW13130   0.401   0.379  12.197  0.1216  0.1988  0.3466
34721SOL    HW113131   0.421   0.321  12.270  2.8756 -0.5547 -0.8929
34721SOL    HW213132   0.398   0.467  12.236  0.9781 -0.2417  1.4518
34722SOL     OW13133   1.803   3.100   6.354  0.7405 -0.0410  0.3883
34722SOL    HW113134   1.789   3.096   6.259 -1.5175 -2.5701  0.7022
34722SOL    HW213135   1.735   3.159   6.386  0.8123 -0.0421  0.5436
34723SOL     OW13136   2.392  10.697   8.111 -0.4741  0.5158 -0.1905
34723SOL    HW113137   2.408  10.606   8.085 -0.2539  0.4745  0.0838
34723SOL    HW213138   2.478  10.739   8.103 -0.7755  0.9565 -1.3113
34724SOL     OW13139   6.000   0.863   1.902  0.5335  0.1007  0.1031
34724SOL    HW113140   5.989   0.950   1.942  1.0832  1.0081 -1.6010
34724SOL    HW213141   5.911   0.839   1.876  0.7572  2.0425 -2.9914
34725SOL     OW13142   4.148  10.398   7.786  0.3119  0.3591 -0.2739
34725SOL    HW113143   4.091  10.325   7.763 -0.1913  1.3311 -2.3386
34725SOL    HW213144   4.231  10.378   7.742 -0.1572  1.5022 -1.7221
34726SOL     OW13145   2.937   4.085   1.842  0.0239  0.0467  0.0535
34726SOL    HW113146   2.847   4.088   1.811  0.1163  1.4354 -0.1875
34726SOL    HW213147   2.953   4.174   1.875  1.7712  0.3084 -1.3404
34727SOL     OW13148  10.410   0.518   5.674  0.1420  0.2253  0.0984
34727SOL    HW113149  10.457   0.574   5.736 -0.0644 -1.2221  1.6307
34727SOL    HW213150  10.327   0.498   5.717 -0.6871  0.3850 -1.3264
34728SOL     OW13151   9.872   1.548  10.049 -0.3348 -0.2695  0.0047
34728SOL    HW113152   9.905   1.635  10.030  1.2107 -0.4005  1.7936
34728SOL    HW213153   9.845   1.552  10.141  1.2798 -2.0474  0.6235
34729SOL     OW13154   0.261  10.607   2.228  0.8517  0.1279 -0.3263
34729SOL    HW113155   0.313  10.623   2.307  1.5785 -2.6549 -0.1482
34729SOL    HW213156   0.294  10.670   2.165  1.6767  1.0543  0.9763
34730SOL     OW13157  11.796   5.811   0.205 -0.4039 -0.3866  0.2465
34730SOL    HW113158  11.849   5.891   0.200  0.3593 -0.9069 -0.1129
34730SOL    HW213159  11.859   5.741   0.220 -0.8338 -1.1774 -1.3907
34731SOL     OW13160  11.300   3.600   8.260  0.0211 -0.2592 -0.4900
34731SOL    HW113161  11.374   3.554   8.301  0.9812  0.4894 -1.3430
34731SOL    HW213162  11.319   3.596   8.166 -0.6222  0.6365 -0.6627
34732SOL     OW13163   3.296   2.388   6.738 -0.1799  0.3393  0.2343
34732SOL    HW113164   3.300   2.465   6.794 -0.5666 -0.9607  2.1593
34732SOL    HW213165   3.355   2.408   6.666  0.4193  2.0639  1.1363
34733SOL     OW13166   4.776  10.826   3.337  0.5670  0.2105 -0.0368
34733SOL    HW113167   4.787  10.756   3.401 -4.6607 -0.3684  0.6488
34733SOL    HW213168   4.726  10.787   3.266 -0.4393  2.6461 -0.7837
34734SOL     OW13169   4.891   0.356   9.191  0.5327  0.0315 -0.0129
34734SOL    HW113170   4.829   0.336   9.121 -0.1844 -0.8158  0.8462
34734SOL    HW213171   4.842   0.343   9.272  2.2544 -2.2533  0.7652
34735SOL     OW13172  12.551   4.443  11.001  0.2691 -0.1643 -0.1600
34735SOL    HW113173  12.640   4.411  11.012  0.7334  0.7892 -0.9899
34735SOL    HW213174  12.515   4.391  10.930 -0.3087 -1.4353  1.0055
34736SOL     OW13175   7.244   0.212  10.244 -0.0608  0.0268  0.1981
34736SOL    HW113176   7.152   0.210  10.217 -0.1067  3.1943 -0.2286
34736SOL    HW213177   7.288   0.150  10.186 -1.7115 -0.5980 -0.4335
34737SOL     OW13178   7.286   2.269   3.218 -0.0487 -0.2297 -0.3183
34737SOL    HW113179   7.338   2.191   3.199  2.1477  0.7550  1.2580
34737SOL    HW213180   7.281   2.272   3.313 -1.4372  0.7416 -0.3908
34738SOL     OW13181   7.883  10.515   1.253 -0.2442 -0.1557  0.3813
34738SOL    HW113182   7.813  10.465   1.211 -0.1480  0.2751 -0.2990
34738SOL    HW213183   7.932  10.553   1.181 -1.5747  2.6992  0.8544
34739SOL     OW13184   2.170   7.076   3.231  0.0734 -0.5695  0.0908
34739SOL    HW113185   2.111   7.136   3.185  1.2986  0.7910  0.2195
34739SOL    HW213186   2.175   7.000   3.174 -2.5368 -1.1733  0.5373
34740SOL     OW13187   1.458  12.130   7.343  0.3531  0.2528  0.0874
34740SOL    HW113188   1.379  12.183   7.333 -1.6787 -2.5324  0.4253
34740SOL    HW213189   1.486  12.112   7.253 -1.7178 -1.8703 -0.2220
34741SOL     OW13190   0.303  11.409  10.659  0.0427 -0.2540 -0.4488
34741SOL    HW113191   0.256  11.493  10.666  2.6770  1.3421 -0.4970
34741SOL    HW213192   0.269  11.357  10.731 -1.5812  0.8925 -0.3227
34742SOL     OW13193   8.881   5.327   8.598 -0.6558 -0.0971  0.3349
34742SOL    HW113194   8.963   5.376   8.602 -1.4933  1.2714  1.7022
34742SOL    HW213195   8.876   5.281   8.682 -1.6682  0.5157  0.6281
34743SOL     OW13196  11.989   9.282   1.826 -0.4519 -0.2018  0.2215
34743SOL    HW113197  11.999   9.349   1.758  0.1656 -0.8722 -0.3628
34743SOL    HW213198  12.059   9.302   1.889 -1.4116  0.8028  1.0215
34744SOL     OW13199   3.881   9.507  11.727  0.0811 -0.0264 -0.4594
34744SOL    HW113200   3.876   9.559  11.806 -0.4849 -1.2207  0.3256
34744SOL    HW213201   3.973   9.508  11.702 -0.1517  2.8615 -1.5628
34745SOL     OW13202   3.296  11.220  10.257 -0.9638  0.0512 -0.6014
34745SOL    HW113203   3.200  11.227  10.258 -0.9631  0.7790 -2.4824
34745SOL    HW213204   3.316  11.163  10.331 -2.7359  1.1175  0.7877
34746SOL     OW13205   1.451   4.537  11.220 -0.2869  0.0105 -0.1784
34746SOL    HW113206   1.491   4.563  11.137  1.5828 -0.6845  0.4586
34746SOL    HW213207   1.457   4.442  11.221  1.1386  0.0804  1.3934
34747SOL     OW13208   5.713   8.512   4.507 -0.6687  0.3626 -0.0275
34747SOL    HW113209   5.664   8.469   4.577 -0.7792  0.2846 -0.1538
34747SOL    HW213210   5.783   8.450   4.486 -0.9523  0.1506 -0.3551
34748SOL     OW13211   7.312   2.501   8.270  0.3805 -0.2584 -0.3776
34748SOL    HW113212   7.319   2.510   8.175 -0.5363 -1.7827 -0.6405
34748SOL    HW213213   7.402   2.486   8.300  0.8515  1.5121 -0.8125
34749SOL     OW13214  11.330   9.989   4.651  0.0665  0.3713  0.4127
34749SOL    HW113215  11.243  10.011   4.617  0.3465  0.0824 -0.4983
34749SOL    HW213216  11.375  10.073   4.657  0.4947  0.2883 -1.2887
34750SOL     OW13217   7.274  10.132   5.920  0.5095  0.3723 -0.3915
34750SOL    HW113218   7.287  10.038   5.907  0.3430  0.4792 -1.4762
34750SOL    HW213219   7.329  10.154   5.995 -0.4315 -0.8057  0.6836
34751SOL     OW13220   0.957   0.411  10.287 -0.1983  0.1874  0.2562
34751SOL    HW113221   0.946   0.435  10.195  1.3563 -0.7365 -0.2195
34751SOL    HW213222   0.931   0.489  10.336 -1.9472  0.3853 -0.9107
34752SOL     OW13223   7.416   5.271  11.413 -0.2079  0.4189 -0.4075
34752SOL    HW113224   7.372   5.191  11.442  0.2309  0.5297  0.6358
34752SOL    HW213225   7.504   5.242  11.387  0.5284  0.7314  1.5215
34753SOL     OW13226   0.580   1.178  12.055 -0.0420 -0.5288  1.0209
34753SOL    HW113227   0.570   1.272  12.069 -0.1812 -0.4762  0.5780
34753SOL    HW213228   0.674   1.165  12.047 -0.1028 -0.2108 -0.3777
34754SOL     OW13229   6.373   9.420  10.296  0.5491 -0.2354 -0.1697
34754SOL    HW113230   6.341   9.480  10.229  0.6134 -0.9925 -0.8836
34754SOL    HW213231   6.337   9.335  10.272  1.5502 -0.7435  0.0836
34755SOL     OW13232  10.237   5.050   2.771  0.0639 -0.1471 -0.0141
34755SOL    HW113233  10.172   5.003   2.719  0.2203  2.8900 -3.3332
34755SOL    HW213234  10.185   5.106   2.829 -0.3235  0.9404 -1.3625
34756SOL     OW13235  12.529   3.880   1.118 -0.3880 -0.4081 -0.7049
34756SOL    HW113236  12.457   3.894   1.180  0.6431 -1.1223  0.7044
34756SOL    HW213237  12.588   3.953   1.133 -1.4942  1.0446 -2.9574
34757SOL     OW13238   2.129   9.982  12.503  0.2918  0.7354 -0.2133
34757SOL    HW113239   2.223   9.965  12.496  0.3598  1.2302 -0.5593
34757SOL    HW213240   2.100   9.927  12.576  0.5469 -0.6230 -1.0978
34758SOL     OW13241   5.623   1.666   3.890  0.0203 -0.4581 -0.2361
34758SOL    HW113242   5.594   1.749   3.852 -1.4725 -0.2514  1.2360
34758SOL    HW213243   5.621   1.604   3.816  3.8411  1.2471 -2.0760
34759SOL     OW13244  10.328  11.912  11.741  0.4307  0.0208 -0.4352
34759SOL    HW113245  10.311  11.828  11.783  1.2148 -0.0221 -0.1784
34759SOL    HW213246  10.412  11.941  11.779 -0.1239  1.2092 -0.0437
34760SOL     OW13247   4.228   7.481   0.404 -0.7701 -0.0308  0.2789
34760SOL    HW113248   4.145   7.498   0.450 -0.0780 -0.4726  1.7466
34760SOL    HW213249   4.285   7.444   0.471  0.7660  0.6685 -0.6038
34761SOL     OW13250   2.196   3.357   3.301  0.1824  0.2754  0.3840
34761SOL    HW113251   2.153   3.416   3.363 -0.3961 -0.1605  0.4149
34761SOL    HW213252   2.124   3.325   3.246  0.6529  0.4501 -0.3387
34762SOL     OW13253  11.479   7.481   7.740 -0.0177  0.2175 -0.2611
34762SOL    HW113254  11.449   7.399   7.701  1.9531 -0.1604 -1.1054
34762SOL    HW213255  11.504   7.535   7.665 -0.5435  1.3004  0.3195
34763SOL     OW13256   3.052   8.850   3.259  0.3756 -0.0551  0.2029
34763SOL    HW113257   3.108   8.821   3.187 -0.8558  0.2888 -0.9384
34763SOL    HW213258   2.970   8.801   3.247  0.6987 -1.2338  2.3693
34764SOL     OW13259   8.428   7.173   7.153 -0.2486 -0.3337 -0.4968
34764SOL    HW113260   8.435   7.096   7.096 -0.6395  0.8772 -2.2567
34764SOL    HW213261   8.422   7.247   7.093 -0.3958  1.0500  1.1449
34765SOL     OW13262   8.932   2.729   2.458 -0.1456  0.1496 -0.3510
34765SOL    HW113263   9.005   2.787   2.437 -0.8868  0.1961 -3.0966
34765SOL    HW213264   8.856   2.768   2.414 -1.0898 -1.7873 -0.5367
34766SOL     OW13265   7.478  11.338   3.384  0.3771 -0.1180 -0.7957
34766SOL    HW113266   7.441  11.277   3.320  1.4689  0.2177 -1.7853
34766SOL    HW213267   7.537  11.394   3.333 -1.0099  2.1672 -0.0493
34767SOL     OW13268   5.794   2.950   4.597 -0.5369 -0.8825  0.0883
34767SOL    HW113269   5.874   2.952   4.546 -0.5389  1.7515  0.0237
34767SOL    HW213270   5.817   2.904   4.678  1.1276  0.0294  0.1752
34768SOL     OW13271   0.546   3.710   9.534 -0.7279 -0.7490 -0.1153
34768SOL    HW113272   0.480   3.649   9.567 -1.1442  0.7992  2.1050
34768SOL    HW213273   0.497   3.788   9.508  0.0732 -0.1256  0.1938
34769SOL     OW13274   2.282   8.897   3.864 -0.2038 -0.3765 -0.2413
34769SOL    HW113275   2.275   8.875   3.771 -0.5950  0.4344 -0.4159
34769SOL    HW213276   2.323   8.984   3.865 -3.5879  1.4029  0.0891
34770SOL     OW13277   3.446   2.365   1.908  0.3251  0.0411 -0.2456
34770SOL    HW113278   3.458   2.366   2.002  0.0761 -1.7642 -0.1538
34770SOL    HW213279   3.535   2.370   1.872  0.6807 -2.1079  0.1845
34771SOL     OW13280   9.258   8.083   2.026  0.0610 -0.3294  0.0306
34771SOL    HW113281   9.181   8.101   1.972  0.0176 -0.6774 -0.0261
34771SOL    HW213282   9.225   8.030   2.099  0.4184 -1.4251 -0.5740
34772SOL     OW13283  10.324   0.821   0.943  0.1788 -0.1074 -0.2750
34772SOL    HW113284  10.418   0.803   0.933 -0.2289 -2.3774 -0.6256
34772SOL    HW213285  10.292   0.751   0.999 -1.6774 -0.7106 -1.9665
34773SOL     OW13286   8.281   8.984   7.967 -0.6021  0.0766 -0.3245
34773SOL    HW113287   8.240   8.996   8.053  0.3209  0.3256  0.0986
34773SOL    HW213288   8.363   9.033   7.973  0.2152 -1.1950 -0.8179
34774SOL     OW13289   8.847   7.493   4.201 -0.0390  0.3362  0.1176
34774SOL    HW113290   8.901   7.420   4.230 -0.9433 -0.6234 -0.5510
34774SOL    HW213291   8.815   7.467   4.115 -1.1201  1.1203  0.2579
34775SOL     OW13292   9.164   4.593   0.389 -0.3243  0.2362 -0.0376
34775SOL    HW113293   9.166   4.648   0.467  2.0836  0.5323 -0.2511
34775SOL    HW213294   9.199   4.509   0.417 -1.6661 -0.4378 -0.2915
34776SOL     OW13295   5.634   4.688   5.046  0.1303 -0.3483  0.0178
34776SOL    HW113296   5.585   4.663   5.124 -1.3071 -0.8579 -1.0009
34776SOL    HW213297   5.633   4.610   4.990  2.8335 -0.6609  0.2464
34777SOL     OW13298   1.180   9.247   7.973 -0.1694 -0.1717  0.0253
34777SOL    HW113299   1.235   9.174   8.002 -0.2141 -0.2774 -0.1550
34777SOL    HW213300   1.154   9.224   7.884  0.8053  0.6388 -0.4846
34778SOL     OW13301   1.465  12.385   6.993  0.3770 -0.1152 -0.1457
34778SOL    HW113302   1.385  12.436   7.002  0.1272 -0.3899 -0.7942
34778SOL    HW213303   1.440  12.308   6.942  0.7831 -0.8108  0.6698
34779SOL     OW13304   7.270  11.296   9.416 -0.4655 -0.3357  0.3037
34779SOL    HW113305   7.340  11.241   9.381 -0.9899 -0.7018 -0.1917
34779SOL    HW213306   7.305  11.385   9.409 -0.6382 -0.3539 -1.4403
34780SOL     OW13307   0.175  10.898  12.212 -0.1676  0.2467  0.1894
34780SOL    HW113308   0.148  10.834  12.278 -0.3384  1.0817  0.9345
34780SOL    HW213309   0.146  10.859  12.129 -0.0425 -0.7660  0.5966
34781SOL     OW13310   4.173  10.377   8.523 -0.1637  0.2550 -0.0467
34781SOL    HW113311   4.201  10.463   8.492 -1.5399  0.7060 -0.0927
34781SOL    HW213312   4.077  10.380   8.520 -0.2442 -1.0996  0.4430
34782SOL     OW13313   2.791   3.045  10.167  0.2437  0.6305 -0.3153
34782SOL    HW113314   2.721   3.060  10.102 -0.0615  2.4178  0.3822
34782SOL    HW213315   2.801   2.950  10.169 -2.1583  0.3046 -0.4889
34783SOL     OW13316   2.713   2.580  12.401 -0.2896  0.2035  0.1435
34783SOL    HW113317   2.793   2.632  12.403  0.8780 -1.5449  1.5166
34783SOL    HW213318   2.657   2.618  12.469  0.6550 -0.4396  1.3089
34784SOL     OW13319  11.666   3.529  12.072 -0.1077  0.3200  0.0226
34784SOL    HW113320  11.738   3.525  12.135 -0.5988  3.0037  0.8821
34784SOL    HW213321  11.705   3.568  11.994 -0.4200  0.9578  0.1803
34785SOL     OW13322   3.495  10.783   6.481  0.1244 -0.0998 -0.6981
34785SOL    HW113323   3.528  10.850   6.541  0.7024  0.2650 -1.4045
34785SOL    HW213324   3.494  10.703   6.533  0.3364  0.2688 -0.1158
34786SOL     OW13325   1.390   1.833   4.765 -0.2607  0.2349  0.0820
34786SOL    HW113326   1.355   1.744   4.752 -1.1733  0.6787 -0.6097
34786SOL    HW213327   1.367   1.879   4.684 -0.7045  1.3860  0.8448
34787SOL     OW13328   5.115  10.052   0.202 -0.2470  0.4134  0.2711
34787SOL    HW113329   5.176   9.984   0.174 -1.4010 -0.5062 -0.1061
34787SOL    HW213330   5.137  10.128   0.149  0.1004 -0.1256 -0.3637
34788SOL     OW13331  10.496   6.114   3.445  0.3949 -0.2280  0.4165
34788SOL    HW113332  10.514   6.065   3.365  2.1923 -0.6553  1.0367
34788SOL    HW213333  10.578   6.159   3.465 -0.1469  0.2033  1.7812
34789SOL     OW13334   9.885   3.897  10.437 -0.1351  0.3794  0.0017
34789SOL    HW113335   9.925   3.960  10.497  0.4766 -2.8151  3.2973
34789SOL    HW213336   9.801   3.875  10.477  0.5357 -2.2714  0.1465
34790SOL     OW13337  10.413  12.018   2.192 -0.0212  0.8284 -0.1759
34790SOL    HW113338  10.320  11.999   2.181 -0.5901  1.4076  2.7291
34790SOL    HW213339  10.417  12.114   2.193  0.8045  0.8255 -1.2438
34791SOL     OW13340   3.821   9.404   7.078 -0.5122  0.3290  0.5730
34791SOL    HW113341   3.862   9.482   7.042 -4.6668  2.8276  0.5952
34791SOL    HW213342   3.877   9.380   7.152  2.4325  1.4671 -1.0908
34792SOL     OW13343  10.356   7.333   0.373 -0.3902  0.3501 -0.3331
34792SOL    HW113344  10.349   7.313   0.466 -0.6609 -0.4709 -0.5304
34792SOL    HW213345  10.444   7.370   0.363 -0.3177  0.3273  0.2235
34793SOL     OW13346  10.010  10.793   4.872 -0.2347 -0.3737 -0.7466
34793SOL    HW113347  10.077  10.860   4.886 -0.6234  0.1513 -1.3656
34793SOL    HW213348  10.039  10.719   4.925  0.9310 -0.2098 -1.1282
34794SOL     OW13349   6.163   9.133   0.575  0.4244 -0.4029 -1.0503
34794SOL    HW113350   6.140   9.109   0.665 -0.8906  1.7633 -0.7387
34794SOL    HW213351   6.112   9.073   0.520 -1.1530  0.2241 -0.3248
34795SOL     OW13352   4.576   8.977  10.993 -0.3986 -0.0803 -0.1456
34795SOL    HW113353   4.499   8.958  11.045 -1.1361 -1.1347 -1.5594
34795SOL    HW213354   4.644   8.997  11.057 -1.2922 -1.1849  1.2025
34796SOL     OW13355   4.007   3.320   1.521 -0.5460  0.6810  0.2362
34796SOL    HW113356   4.008   3.359   1.609  1.1669  0.0219  0.5436
34796SOL    HW213357   3.953   3.241   1.532 -0.3024  0.5732  0.7193
34797SOL     OW13358   7.048   3.411  11.184  0.2465  0.6613  0.4650
34797SOL    HW113359   7.093   3.404  11.268  1.1406  0.3492 -0.0309
34797SOL    HW213360   7.106   3.464  11.130 -0.4567  1.0965  0.1242
34798SOL     OW13361   1.142   1.438   5.032  0.3314 -0.3226 -0.5935
34798SOL    HW113362   1.194   1.371   5.077 -1.3700 -0.1711  1.7322
34798SOL    HW213363   1.054   1.428   5.068 -0.1418  2.7070 -0.7007
34799SOL     OW13364  11.162   4.083   1.601  0.3746  0.0387 -0.2660
34799SOL    HW113365  11.074   4.067   1.634  0.7868 -0.6701  0.5248
34799SOL    HW213366  11.164   4.177   1.583 -0.0508  0.3443  1.1781
34800SOL     OW13367   1.277   7.231   0.975  0.1076 -0.0986  0.4748
34800SOL    HW113368   1.216   7.293   1.015  0.2658  0.4074 -0.0454
34800SOL    HW213369   1.362   7.273   0.981 -0.0236  0.5398 -1.4126
34801SOL     OW13370   2.924   7.204   6.621  0.1377  0.4022  0.3618
34801SOL    HW113371   2.892   7.288   6.652  0.7024  1.3212 -1.4299
34801SOL    HW213372   3.016   7.202   6.647  0.7299  1.3653 -1.5036
34802SOL     OW13373  12.268   2.461  10.761 -0.4581 -0.5528  0.2388
34802SOL    HW113374  12.318   2.521  10.707 -0.3293  0.0410  1.0003
34802SOL    HW213375  12.184   2.504  10.773  0.1994  0.3092  2.1683
34803SOL     OW13376  11.149  10.188   5.588  0.0633  0.4563  0.1321
34803SOL    HW113377  11.157  10.246   5.664  0.6297  2.3153 -1.2705
34803SOL    HW213378  11.070  10.220   5.543 -0.2869 -0.6524 -0.0531
34804SOL     OW13379   2.500   7.528  10.043  0.5575 -0.1665  0.4988
34804SOL    HW113380   2.588   7.566  10.040  0.4801 -0.0197 -0.9421
34804SOL    HW213381   2.507   7.447   9.991 -0.0343 -0.4302  0.8167
34805SOL     OW13382   8.701   3.315   9.914 -0.0260  0.0911  0.0404
34805SOL    HW113383   8.784   3.323   9.962  0.9886 -2.2478 -1.1114
34805SOL    HW213384   8.714   3.369   9.836  1.1745 -1.5441 -0.9634
34806SOL     OW13385  12.131   0.389   7.610  0.2774 -0.2670 -0.9999
34806SOL    HW113386  12.066   0.345   7.665  1.4243  0.9196  1.4711
34806SOL    HW213387  12.204   0.326   7.605  0.4440 -0.1175 -0.5464
34807SOL     OW13388   9.911   7.826   7.004  0.0455 -0.1678  0.1719
34807SOL    HW113389   9.815   7.824   7.015 -0.3189  2.3814 -1.6499
34807SOL    HW213390   9.930   7.750   6.950 -1.1561  0.0194 -0.5586
34808SOL     OW13391  12.334  11.406   2.474 -0.0896 -0.6078 -0.0651
34808SOL    HW113392  12.266  11.459   2.431  0.9921 -0.5199 -1.7570
34808SOL    HW213393  12.326  11.320   2.432 -0.2855 -1.1130  0.9822
34809SOL     OW13394   2.818  10.420   2.589  0.0340  0.2593  0.5152
34809SOL    HW113395   2.912  10.422   2.609  0.4908  1.5563 -1.4544
34809SOL    HW213396   2.780  10.488   2.644  0.4577  0.5032  0.5154
34810SOL     OW13397   7.691  11.227   5.054  0.1017 -0.5442  0.1743
34810SOL    HW113398   7.715  11.166   5.123  2.7536  0.3219  0.1084
34810SOL    HW213399   7.673  11.172   4.978 -3.3649 -1.5586  1.5031
34811SOL     OW13400   3.433   7.177   7.575 -0.2918  0.7420  0.4731
34811SOL    HW113401   3.342   7.150   7.588  0.0717 -1.7479 -1.5113
34811SOL    HW213402   3.428   7.255   7.520 -1.2235  0.8540  0.7034
34812SOL     OW13403   8.212   8.338   3.997  0.3520  0.0742  0.4986
34812SOL    HW113404   8.175   8.364   4.081 -0.0034 -0.5090  0.5245
34812SOL    HW213405   8.304   8.363   4.003  0.3918 -0.2133  1.1638
34813SOL     OW13406  10.616   1.607   4.847 -0.8291  0.0253 -0.7055
34813SOL    HW113407  10.643   1.654   4.768  0.4973  0.1401 -0.1928
34813SOL    HW213408  10.561   1.535   4.814 -0.6624  0.3419 -1.6944
34814SOL     OW13409   8.109   8.563   7.380 -0.0720 -0.4272  0.3477
34814SOL    HW113410   8.174   8.574   7.311 -0.5691 -0.5058 -0.1399
34814SOL    HW213411   8.160   8.540   7.458  0.4903 -0.3539  0.0076
34815SOL     OW13412   5.655   2.511   2.153 -0.2444 -0.5202 -0.6269
34815SOL    HW113413   5.747   2.530   2.172  0.1722 -0.6623 -2.3732
34815SOL    HW213414   5.614   2.597   2.144 -0.3322 -0.4558  0.2715
34816SOL     OW13415  10.046  11.802   3.448 -0.0120 -0.3189 -0.3257
34816SOL    HW113416   9.999  11.878   3.415  0.4232 -0.5709 -1.5564
34816SOL    HW213417  10.019  11.730   3.391  1.8451 -0.4634 -1.0811
34817SOL     OW13418   4.876   5.235   1.514 -0.1928 -0.5141  0.2686
34817SOL    HW113419   4.809   5.196   1.458  0.6582  0.7544 -1.7387
34817SOL    HW213420   4.908   5.310   1.465  2.0524 -0.5261  1.5706
34818SOL     OW13421  10.424   4.240   5.110  0.5390  0.1221  0.4485
34818SOL    HW113422  10.501   4.276   5.155  0.4845  0.8504 -0.0422
34818SOL    HW213423  10.421   4.285   5.026  0.1881 -0.6812  0.0159
34819SOL     OW13424   8.885   5.076   0.999 -0.5183 -0.2756 -0.2042
34819SOL    HW113425   8.876   5.015   1.073 -1.9157 -0.7574 -0.7230
34819SOL    HW213426   8.937   5.029   0.935  1.0272  0.2916  0.5975
34820SOL     OW13427   2.772  11.273   7.025  0.4402 -0.0782  0.1499
34820SOL    HW113428   2.851  11.230   7.056  1.8128  0.1638 -2.6880
34820SOL    HW213429   2.796  11.366   7.017  0.7305 -0.2948 -2.7738
34821SOL     OW13430  11.153  11.203   8.082  0.8863  0.2475  0.2032
34821SOL    HW113431  11.193  11.138   8.026 -0.2503 -0.3341  0.0276
34821SOL    HW213432  11.197  11.192   8.167  1.2677 -0.1964 -0.0476
34822SOL     OW13433  10.716   7.092   5.115 -0.4137 -0.4393 -0.2227
34822SOL    HW113434  10.681   7.124   5.198 -0.3506 -0.5201 -0.1648
34822SOL    HW213435  10.650   7.029   5.085  0.5136 -1.9398  0.7613
34823SOL     OW13436  11.748   3.928   4.293 -0.3511 -0.3293  0.1451
34823SOL    HW113437  11.731   3.906   4.385 -0.9537 -0.4100  0.0164
34823SOL    HW213438  11.673   3.893   4.245 -0.7890  1.0250 -0.2005
34824SOL     OW13439   0.578   5.291   8.403 -0.4331  0.4131  0.2846
34824SOL    HW113440   0.622   5.215   8.366  0.0986  0.5643  0.6030
34824SOL    HW213441   0.501   5.303   8.348 -0.3491 -0.1598  0.0364
34825SOL     OW13442   3.521  10.033   8.084  0.0396  0.0217  0.2990
34825SOL    HW113443   3.535  10.108   8.141  1.3562  0.4614 -0.5580
34825SOL    HW213444   3.431  10.007   8.100  1.0982 -1.8020  4.8725
34826SOL     OW13445   8.210   9.897   3.323  0.0915  0.0736  0.0314
34826SOL    HW113446   8.155   9.920   3.247  1.0008 -0.1809 -0.7164
34826SOL    HW213447   8.295   9.876   3.285  0.2835 -1.0197  1.0414
34827SOL     OW13448  11.826   4.198   5.352 -0.8669 -0.2214  0.2288
34827SOL    HW113449  11.898   4.150   5.311 -0.1421  0.9910  0.0600
34827SOL    HW213450  11.846   4.194   5.446 -0.4223  0.3495  0.1621
34828SOL     OW13451   8.974   3.870   3.797  0.1930 -0.4757  0.5286
34828SOL    HW113452   8.898   3.831   3.753  0.9226 -0.8345 -0.4609
34828SOL    HW213453   8.940   3.901   3.881 -1.1232 -0.2944 -0.0431
34829SOL     OW13454  10.353   8.840   1.781 -0.2777 -0.6623 -0.0838
34829SOL    HW113455  10.360   8.775   1.712 -0.6167  1.4403 -2.2371
34829SOL    HW213456  10.297   8.799   1.847 -0.4435 -2.5403 -1.3144
34830SOL     OW13457   5.445   7.053   0.380 -0.2561 -0.5518  0.5728
34830SOL    HW113458   5.511   7.089   0.321 -0.1933 -0.0865  0.9188
34830SOL    HW213459   5.479   6.968   0.406 -0.0083 -0.5084  0.3908
34831SOL     OW13460   2.611   1.352   1.416 -0.2588  0.6358  1.1407
34831SOL    HW113461   2.697   1.312   1.433 -0.1142  1.0411  1.3716
34831SOL    HW213462   2.628   1.446   1.418 -0.3472  0.7304 -0.5936
34832SOL     OW13463   8.310   5.855   8.319  0.4710  0.3113 -0.1458
34832SOL    HW113464   8.236   5.798   8.340  1.7462 -1.9441 -1.3614
34832SOL    HW213465   8.369   5.846   8.395  0.5870  0.1635 -0.2533
34833SOL     OW13466   9.390   0.980  11.735  0.4042  0.2429 -0.3020
34833SOL    HW113467   9.383   0.939  11.649 -2.6646  2.6318 -1.3547
34833SOL    HW213468   9.408   1.072  11.717 -1.0688  0.9470  1.5118
34834SOL     OW13469  10.788   5.941   3.554  0.4780  0.2216  0.3227
34834SOL    HW113470  10.849   5.952   3.628 -0.8289  0.8131  1.3472
34834SOL    HW213471  10.783   6.028   3.514  1.9316 -0.3067 -1.1187
34835SOL     OW13472   7.160   5.821  10.918 -0.1628 -0.0797  0.0222
34835SOL    HW113473   7.074   5.852  10.943  1.2353  2.3925  2.3255
34835SOL    HW213474   7.171   5.739  10.966 -1.3782 -0.7286 -0.7534
34836SOL     OW13475  12.336   1.810   4.786 -0.1232 -0.0327  0.9120
34836SOL    HW113476  12.336   1.899   4.819  2.4491 -0.7044  3.0696
34836SOL    HW213477  12.246   1.779   4.800 -0.7197  1.7938  1.2933
34837SOL     OW13478  12.579   7.578   8.749  0.3120  0.0516  0.2520
34837SOL    HW113479  12.514   7.517   8.714  0.9900 -0.5904  0.0946
34837SOL    HW213480  12.591   7.643   8.680 -0.9048  0.7646  0.6796
34838SOL     OW13481   4.092   7.455   6.857 -0.0735 -0.5524  0.2365
34838SOL    HW113482   4.160   7.388   6.854  1.0626  0.4278  2.1339
34838SOL    HW213483   4.137   7.537   6.836 -1.0912 -0.1231 -0.3728
34839SOL     OW13484   4.438   7.237   0.874  0.6560 -0.2881  0.5500
34839SOL    HW113485   4.448   7.142   0.873  1.3443 -0.2431  1.8384
34839SOL    HW213486   4.384   7.255   0.952  2.6138  0.5374  1.7776
34840SOL     OW13487   2.440   9.112   3.865  0.2460 -0.0875  0.2191
34840SOL    HW113488   2.460   9.139   3.775 -1.9987  1.1470  0.0228
34840SOL    HW213489   2.519   9.135   3.915  0.9503  0.6206 -1.1570
34841SOL     OW13490   6.697   1.727  12.455 -0.0519 -0.0775 -0.3968
34841SOL    HW113491   6.635   1.654  12.448 -0.4481 -0.0142  1.7948
34841SOL    HW213492   6.667   1.790  12.389 -1.5728 -0.5749 -0.2239
34842SOL     OW13493   3.216   0.703  10.345 -0.1258  0.2370  0.4073
34842SOL    HW113494   3.190   0.696  10.437  0.8159  2.7302  0.9553
34842SOL    HW213495   3.134   0.702  10.297 -0.7414  0.3991  1.4178
34843SOL     OW13496   1.212   1.700  12.178  0.0152  0.4010 -0.4651
34843SOL    HW113497   1.201   1.627  12.239 -0.9417  0.7119 -0.2419
34843SOL    HW213498   1.286   1.750  12.212 -0.8819  0.9173  0.8225
34844SOL     OW13499   1.487   3.093   6.224 -0.0969  0.3975 -0.0237
34844SOL    HW113500   1.559   3.052   6.175 -1.1001  1.6081 -2.7476
34844SOL    HW213501   1.460   3.027   6.288  2.8270 -0.4078  0.5068
34845SOL     OW13502   0.483  10.078   1.000 -0.2864  0.2283  0.1251
34845SOL    HW113503   0.577  10.081   1.015 -0.4341  0.6483  1.0648
34845SOL    HW213504   0.456  10.170   0.997 -0.4142  0.1750 -2.0666
34846SOL     OW13505   1.589  10.931   3.890  0.0148  0.0592 -0.1150
34846SOL    HW113506   1.576  11.015   3.934  1.0484 -0.8936  2.1790
34846SOL    HW213507   1.553  10.866   3.950 -0.8936 -1.1881 -1.9025
34847SOL     OW13508   2.492   1.458   6.103  0.4906 -0.0116 -0.5897
34847SOL    HW113509   2.495   1.476   6.009  0.6397  3.0990 -0.0691
34847SOL    HW213510   2.571   1.406   6.120 -0.4220 -2.1787 -2.3687
34848SOL     OW13511   7.239  10.879   6.371  0.2059 -0.5160  0.1268
34848SOL    HW113512   7.293  10.900   6.296 -2.4495  3.0880 -1.0385
34848SOL    HW213513   7.154  10.854   6.334 -0.9617  0.6239  1.8654
34849SOL     OW13514   4.174   5.167   1.526  0.0796  1.0260 -0.0624
34849SOL    HW113515   4.196   5.240   1.468  1.7487 -0.0040 -0.8140
34849SOL    HW213516   4.255   5.115   1.530 -0.5353  0.1391  1.8263
34850SOL     OW13517   4.685  10.450   1.819  0.4258 -0.2431 -0.5774
34850SOL    HW113518   4.730  10.534   1.816 -2.6577  1.9047  3.6383
34850SOL    HW213519   4.754  10.387   1.841  2.1563  2.0777  1.2713
34851SOL     OW13520   5.933  11.881   1.274  0.2721  0.5451  0.1298
34851SOL    HW113521   5.933  11.804   1.217 -0.1596 -0.0234  0.8790
34851SOL    HW213522   5.966  11.952   1.219  1.1000 -0.2648 -0.4493
34852SOL     OW13523   9.233   3.228  11.787  0.2668 -0.3512  0.1687
34852SOL    HW113524   9.152   3.255  11.830  1.6570 -0.3083  3.0538
34852SOL    HW213525   9.224   3.134  11.775 -0.7566 -0.1291 -0.9037
34853SOL     OW13526   8.135   9.561   7.519  0.0113  0.3367  0.6098
34853SOL    HW113527   8.072   9.600   7.457  0.4707  0.5521  0.2669
34853SOL    HW213528   8.217   9.606   7.499  0.8301 -1.5680 -0.5527
34854SOL     OW13529  11.691   3.803   3.227 -0.3167  0.4967 -0.0208
34854SOL    HW113530  11.747   3.832   3.155 -1.2752 -0.5895 -1.2501
34854SOL    HW213531  11.659   3.717   3.200  0.7498 -0.8237  2.5468
34855SOL     OW13532   4.645   2.417   7.069 -0.2179  0.0282  0.4799
34855SOL    HW113533   4.566   2.453   7.027 -0.1741  0.1734  0.5236
34855SOL    HW213534   4.709   2.414   6.998  0.0250  0.7813  0.6567
34856SOL     OW13535   5.614   8.479   1.960 -0.3043 -0.8481 -0.1779
34856SOL    HW113536   5.680   8.514   2.020 -0.9835  0.1794 -0.0131
34856SOL    HW213537   5.665   8.445   1.886  0.4335 -0.3458  0.0836
34857SOL     OW13538   1.663   3.301  12.096 -0.0726  0.1961  0.4387
34857SOL    HW113539   1.695   3.332  12.181  0.8894 -2.8672  1.3312
34857SOL    HW213540   1.685   3.208  12.095 -0.1988  0.0767 -3.1373
34858SOL     OW13541  11.292   3.835   7.432  0.7059  0.6744 -0.0176
34858SOL    HW113542  11.282   3.925   7.401  0.5293  0.2649 -1.1796
34858SOL    HW213543  11.211   3.791   7.407  1.5875 -0.3218 -1.3275
34859SOL     OW13544  11.216   5.134   5.400  0.4652 -0.0945 -0.1521
34859SOL    HW113545  11.299   5.142   5.352 -0.2293  2.3655 -1.1183
34859SOL    HW213546  11.148   5.141   5.333 -0.5505 -1.3572  0.7048
34860SOL     OW13547   7.866   9.755  10.041 -0.1229 -0.0668  0.2319
34860SOL    HW113548   7.834   9.749   9.951 -0.4304  0.3846  0.3088
34860SOL    HW213549   7.912   9.839  10.045 -0.4526  0.1005  0.5981
34861SOL     OW13550   4.717   8.414   7.230 -0.8144  0.1590 -0.6005
34861SOL    HW113551   4.671   8.331   7.244 -0.8587 -0.0046 -1.6199
34861SOL    HW213552   4.680   8.473   7.295 -0.5952 -0.6795  0.3243
34862SOL     OW13553   5.629   8.134   1.381  0.3362 -1.0111 -0.0097
34862SOL    HW113554   5.702   8.171   1.331 -0.2368 -0.9020 -0.7906
34862SOL    HW213555   5.603   8.203   1.441 -0.3137 -0.3438 -1.0191
34863SOL     OW13556  12.141   0.808   4.445  0.4130 -0.1904 -0.3257
34863SOL    HW113557  12.089   0.780   4.369  1.3092  0.9708 -1.3983
34863SOL    HW213558  12.180   0.727   4.477 -0.3017 -0.7624 -0.8495
34864SOL     OW13559   6.046  12.028   7.327 -0.3169 -0.3648  0.4436
34864SOL    HW113560   6.128  11.980   7.341  0.9669  2.0765  1.8808
34864SOL    HW213561   6.055  12.066   7.239  0.3258  0.2887  0.7849
34865SOL     OW13562   7.717   9.930   8.871  0.2304  0.1610  0.4384
34865SOL    HW113563   7.625   9.954   8.867  0.3444  0.6168  0.5812
34865SOL    HW213564   7.746   9.929   8.780  0.4226  1.3214  0.4821
34866SOL     OW13565   8.849   4.965   8.491 -0.4470  0.6014  0.0482
34866SOL    HW113566   8.781   4.902   8.515  0.7742 -0.4907  0.7219
34866SOL    HW213567   8.848   5.029   8.562 -0.2344  0.1452  0.4677
34867SOL     OW13568   8.082  12.312   8.307  0.5876  0.6461 -0.4687
34867SOL    HW113569   8.062  12.325   8.400  1.2997 -0.3272 -0.1644
34867SOL    HW213570   8.037  12.231   8.284 -0.8335  1.6452 -1.3915
34868SOL     OW13571   7.347   7.502   4.431 -0.4462  0.3242  0.2598
34868SOL    HW113572   7.419   7.480   4.490 -0.1277  4.0062  1.5034
34868SOL    HW213573   7.271   7.511   4.488 -0.7447  1.2526 -0.2585
34869SOL     OW13574   2.320   7.757   3.269 -0.6128  0.4971 -0.3759
34869SOL    HW113575   2.347   7.667   3.250 -0.9541  0.3245 -0.0620
34869SOL    HW213576   2.235   7.765   3.224 -0.3652  0.8153 -0.7942
34870SOL     OW13577  10.748  12.339   0.133  0.1616 -0.1472 -0.0078
34870SOL    HW113578  10.735  12.387   0.051  0.7867 -0.7540 -0.4708
34870SOL    HW213579  10.798  12.261   0.108  1.0892  0.0799  1.0883
34871SOL     OW13580   3.238   1.248  10.445 -0.1507 -0.1017  0.4074
34871SOL    HW113581   3.331   1.249  10.467 -0.0849 -0.1540  0.1402
34871SOL    HW213582   3.194   1.286  10.521  0.2553  1.7933 -0.2491
34872SOL     OW13583   5.429   7.482   4.154 -0.1821  0.0220 -0.1290
34872SOL    HW113584   5.352   7.458   4.205  0.5695 -0.5568  0.7811
34872SOL    HW213585   5.459   7.565   4.194  0.5935 -0.5965  0.6303
34873SOL     OW13586   3.753   3.560   3.760 -0.4391 -0.4131 -0.2121
34873SOL    HW113587   3.811   3.624   3.718 -1.4256 -0.0164 -0.9918
34873SOL    HW213588   3.803   3.530   3.836  0.3564  0.7191 -0.2555
34874SOL     OW13589   1.356  11.869   5.110 -0.6010  0.1718  0.1699
34874SOL    HW113590   1.264  11.881   5.137 -0.8189  1.2052 -0.9403
34874SOL    HW213591   1.360  11.908   5.023  1.2727  1.6659  0.8530
34875SOL     OW13592   9.076  10.456   6.628 -0.7873 -0.7987  0.7938
34875SOL    HW113593   9.044  10.543   6.607 -0.2660 -1.0192 -1.1306
34875SOL    HW213594   9.052  10.442   6.720 -0.3518  1.5766  1.3197
34876SOL     OW13595  10.119   6.660   6.647  0.1165 -0.2207  0.2994
34876SOL    HW113596  10.124   6.722   6.574 -0.6529 -0.8685 -0.3261
34876SOL    HW213597  10.170   6.701   6.717 -0.4177  1.1332 -0.0795
34877SOL     OW13598   9.582   1.891  11.651 -0.2486 -0.2247 -0.1773
34877SOL    HW113599   9.540   1.965  11.697  3.1364  2.4062 -0.8972
34877SOL    HW213600   9.622   1.839  11.721 -0.7846 -0.1076  0.2234
34878SOL     OW13601   5.631   2.780   0.477 -0.3602  0.4372  0.2310
34878SOL    HW113602   5.710   2.828   0.452 -0.2598 -0.7247 -1.8763
34878SOL    HW213603   5.656   2.688   0.471 -2.1852  0.0136 -1.6824
34879SOL     OW13604  10.817   6.642   3.420 -0.4535  0.1959 -0.0584
34879SOL    HW113605  10.754   6.711   3.443 -1.3372 -0.7032  0.2743
34879SOL    HW213606  10.821   6.587   3.498 -2.2988 -2.0288 -1.4141
34880SOL     OW13607   7.223   1.158  12.031 -0.1758 -0.3603  0.1809
34880SOL    HW113608   7.314   1.126  12.030  0.7411  2.0565 -0.3435
34880SOL    HW213609   7.223   1.229  12.095 -2.1410 -1.3394  1.3649
34881SOL     OW13610   8.271  10.067   4.670  0.0536  0.0839 -0.0295
34881SOL    HW113611   8.306   9.978   4.659  0.8762  0.3833  0.1083
34881SOL    HW213612   8.194  10.070   4.613  0.9194 -0.2223 -1.2530
34882SOL     OW13613   9.941   1.904  11.145  0.3789  0.0220 -0.3171
34882SOL    HW113614   9.931   1.873  11.055  0.3484  0.4668 -0.4690
34882SOL    HW213615  10.014   1.966  11.141 -0.3154  0.8669 -0.2485
34883SOL     OW13616  10.929  11.837  10.794  0.3699 -0.3379  0.6022
34883SOL    HW113617  10.995  11.895  10.832  0.7528  0.3566 -1.0148
34883SOL    HW213618  10.887  11.890  10.726  0.0352 -1.6537 -0.2522
34884SOL     OW13619   4.871   6.552  10.391 -0.3086  0.0487 -0.4104
34884SOL    HW113620   4.825   6.590  10.466 -1.2029 -1.0331 -0.3867
34884SOL    HW213621   4.847   6.460  10.393  2.2405 -0.6902 -0.1273
34885SOL     OW13622   2.674  10.728  10.618 -0.9254 -0.1411 -0.0530
34885SOL    HW113623   2.740  10.770  10.562 -1.5983  0.7687 -0.1815
34885SOL    HW213624   2.685  10.635  10.601 -0.2353  0.0468 -0.7176
34886SOL     OW13625   2.392   0.322   8.293 -0.2165 -0.5303  0.4449
34886SOL    HW113626   2.459   0.368   8.344  0.8337  0.7627 -1.9266
34886SOL    HW213627   2.323   0.386   8.281  0.2577 -0.2608 -1.0148
34887SOL     OW13628  10.833   7.203   3.904 -0.0996 -0.5433  0.1192
34887SOL    HW113629  10.851   7.109   3.903 -0.2863 -0.6043  1.3899
34887SOL    HW213630  10.783   7.217   3.984  0.3260  0.7212  0.1834
34888SOL     OW13631   0.123   2.963   4.116  0.9954  0.3674  0.1727
34888SOL    HW113632   0.166   3.044   4.142  0.5821  0.7958 -0.4326
34888SOL    HW213633   0.119   2.968   4.020  1.7229 -0.7644  0.0550
34889SOL     OW13634   2.834   1.136   3.621  0.1996  0.1691 -0.6383
34889SOL    HW113635   2.873   1.081   3.690 -0.2341 -1.4459 -1.6273
34889SOL    HW213636   2.757   1.087   3.593 -0.8755  1.8778 -0.7712
34890SOL     OW13637   4.759   8.384   2.634 -0.1492  0.4018  0.2042
34890SOL    HW113638   4.812   8.427   2.567 -0.4632 -0.4907 -0.6509
34890SOL    HW213639   4.669   8.391   2.602 -0.3975  0.6706  0.9428
34891SOL     OW13640  12.377  11.923   1.725 -0.0453  0.2683  0.3087
34891SOL    HW113641  12.351  11.947   1.636  0.0713  0.5471  0.3515
34891SOL    HW213642  12.432  11.845   1.714  0.4122  0.6209  0.0957
34892SOL     OW13643   2.452  10.634   7.091  0.5072  0.3354  0.1268
34892SOL    HW113644   2.430  10.541   7.100 -2.1055  0.8582 -0.0232
34892SOL    HW213645   2.413  10.659   7.007  1.5189  1.4992 -0.0188
34893SOL     OW13646   6.016   8.177   9.876  0.8292 -0.1990 -0.0442
34893SOL    HW113647   6.075   8.246   9.904 -0.2505  0.2490  1.2099
34893SOL    HW213648   5.953   8.220   9.819 -0.1002 -0.0277  1.0775
34894SOL     OW13649   2.857   2.986  11.779  0.1650  0.4698  0.5256
34894SOL    HW113650   2.768   3.015  11.797 -0.1126  0.6869 -1.0797
34894SOL    HW213651   2.911   3.037  11.839 -0.6380  1.7192  0.2297
34895SOL     OW13652  10.016   4.623   0.345  0.1134 -0.4527  0.3886
34895SOL    HW113653  10.007   4.684   0.418  2.5792 -0.3618  0.7096
34895SOL    HW213654   9.999   4.675   0.267  0.0637  0.1039  0.7690
34896SOL     OW13655   6.554  12.364   1.595 -0.6045 -0.0926 -0.1989
34896SOL    HW113656   6.597  12.449   1.602 -1.0547  0.1449 -0.2349
34896SOL    HW213657   6.491  12.375   1.523 -0.7365 -0.4230 -0.1362
34897SOL     OW13658   3.432   1.246   1.165  0.1419  0.0016 -0.2075
34897SOL    HW113659   3.456   1.154   1.162 -2.9837 -0.9576 -0.0427
34897SOL    HW213660   3.440   1.276   1.074  1.7085 -0.2238 -0.1705
34898SOL     OW13661   1.476   2.146   6.456 -0.0639 -0.3218 -0.9264
34898SOL    HW113662   1.421   2.071   6.432 -0.9859  0.3649 -1.0432
34898SOL    HW213663   1.452   2.164   6.547  2.0838 -1.7774  0.0176
34899SOL     OW13664   6.253  10.490   7.513  0.1442  0.5376  0.4835
34899SOL    HW113665   6.198  10.553   7.466  0.4451  0.0571 -0.5154
34899SOL    HW213666   6.192  10.445   7.572 -0.8731 -1.0038 -1.6304
34900SOL     OW13667   2.939   1.768   6.855 -0.2121 -0.3279  0.9077
34900SOL    HW113668   2.883   1.709   6.906  1.5128 -0.6734  2.5271
34900SOL    HW213669   2.878   1.820   6.804 -1.8766 -2.6596  0.3329
34901SOL     OW13670   3.382  12.021  11.029  0.3500 -0.3224 -0.3690
34901SOL    HW113671   3.348  11.935  11.004 -0.1158  0.0442 -1.0237
34901SOL    HW213672   3.427  12.053  10.951  1.6140 -0.4945  0.2631
34902SOL     OW13673   4.012   5.412   6.144  0.9238  0.1874 -0.3895
34902SOL    HW113674   3.941   5.465   6.108  0.4838 -1.5346 -2.2006
34902SOL    HW213675   4.049   5.466   6.214 -1.2068  1.7268 -0.3730
34903SOL     OW13676   4.714   6.718   0.706  0.4620 -0.0485 -0.2223
34903SOL    HW113677   4.710   6.696   0.799  0.5819 -2.2526 -0.6977
34903SOL    HW213678   4.807   6.719   0.685  0.4438  0.6181 -0.2997
34904SOL     OW13679   8.492   6.749   1.934 -0.4893 -0.2002 -0.2210
34904SOL    HW113680   8.528   6.777   2.019 -0.7418 -0.1748 -0.1214
34904SOL    HW213681   8.415   6.804   1.922 -0.0044  0.3567 -0.8456
34905SOL     OW13682   4.060  12.539  10.441 -0.2782  0.4862 -0.3475
34905SOL    HW113683   4.125  12.468  10.437  0.5329  1.2586 -1.4734
34905SOL    HW213684   4.055  12.571  10.351  0.5028  2.8628  0.4028
34906SOL     OW13685   0.672  11.363   3.908 -0.3140 -0.3024 -0.0348
34906SOL    HW113686   0.652  11.452   3.880 -0.9327 -0.8309 -1.3207
34906SOL    HW213687   0.615  11.349   3.984 -0.3594  0.3283  0.0511
34907SOL     OW13688   0.605   0.861   6.620  0.6229 -0.3723 -0.0041
34907SOL    HW113689   0.654   0.890   6.543  0.5153 -0.0680  0.0434
34907SOL    HW213690   0.518   0.901   6.610  0.7421  0.0221  0.4963
34908SOL     OW13691  11.149   0.053   4.543 -0.5947  0.2464  0.3393
34908SOL    HW113692  11.119   0.135   4.504  0.1673 -0.1674 -1.2228
34908SOL    HW213693  11.242   0.067   4.562 -0.7651  0.1629  1.3013
34909SOL     OW13694   8.763  12.221   4.042  0.4407 -0.3306 -0.0786
34909SOL    HW113695   8.686  12.244   4.094  1.0275  3.0909 -0.4956
34909SOL    HW213696   8.727  12.195   3.957 -0.3124  0.2333  0.0578
34910SOL     OW13697   3.646   1.631   4.754  0.6221 -0.6477  0.0593
34910SOL    HW113698   3.683   1.656   4.839 -0.7999  0.7753  0.3053
34910SOL    HW213699   3.586   1.703   4.732  1.3330 -0.7188 -2.3986
34911SOL     OW13700   0.531   2.140   0.366  0.0496 -0.5159 -0.6331
34911SOL    HW113701   0.525   2.058   0.416 -0.2365 -0.4594 -0.5743
34911SOL    HW213702   0.563   2.112   0.280 -1.6608 -0.9325 -1.1796
34912SOL     OW13703   2.265   1.829   2.833 -0.3337  0.3141  0.4740
34912SOL    HW113704   2.197   1.782   2.784 -0.4327  1.8618 -0.9712
34912SOL    HW213705   2.218   1.900   2.877  0.2511  1.0599 -0.0863
34913SOL     OW13706   6.303   3.816   5.224  0.1971  0.0095 -0.1081
34913SOL    HW113707   6.388   3.839   5.262  0.2086 -1.2560  0.6904
34913SOL    HW213708   6.324   3.767   5.145  0.2200 -0.3351  0.1089
34914SOL     OW13709   1.712   9.184   4.531 -0.0754  0.2143 -0.0105
34914SOL    HW113710   1.644   9.246   4.505 -2.1002 -2.2840 -1.1708
34914SOL    HW213711   1.745   9.148   4.449 -0.1601 -1.3783  0.6182
34915SOL     OW13712  12.153  12.198   8.243 -0.2581 -0.7935  0.5647
34915SOL    HW113713  12.210  12.175   8.316 -1.4888 -1.5918  1.3012
34915SOL    HW213714  12.142  12.293   8.251  3.9475  0.1668 -1.8509
34916SOL     OW13715   3.231   3.282   6.287 -0.3571  0.8435  0.4056
34916SOL    HW113716   3.224   3.312   6.377 -0.5108  5.5496 -0.9404
34916SOL    HW213717   3.140   3.261   6.262 -0.5308  1.0356  0.8679
34917SOL     OW13718   2.664  12.166   3.273  0.0589  0.0174  0.6750
34917SOL    HW113719   2.629  12.149   3.360  0.1502 -1.3626  0.4741
34917SOL    HW213720   2.657  12.081   3.228 -0.9502  0.9303 -0.9995
34918SOL     OW13721   4.664   3.274   5.556 -0.2085 -0.1557 -0.6613
34918SOL    HW113722   4.734   3.211   5.539 -0.8982 -0.7495 -1.3787
34918SOL    HW213723   4.595   3.223   5.598  0.5414  0.8225  1.9584
34919SOL     OW13724   8.734   1.676   7.003  0.1514  0.1576 -0.9109
34919SOL    HW113725   8.773   1.708   7.084 -1.1666  1.6424 -0.8077
34919SOL    HW213726   8.717   1.584   7.019  0.2810  0.3412  0.3683
34920SOL     OW13727   7.877   0.785   7.095 -0.4026  0.4809 -0.1659
34920SOL    HW113728   7.854   0.734   7.172 -1.0817  0.9631 -0.0417
34920SOL    HW213729   7.832   0.869   7.107 -2.4252 -0.2118 -2.1426
34921SOL     OW13730  12.322   4.371   6.013  0.0147  0.4450 -0.2170
34921SOL    HW113731  12.276   4.362   5.930  0.5142  1.8178 -0.6719
34921SOL    HW213732  12.401   4.317   6.003  0.4923  1.2579 -0.9663
34922SOL     OW13733   1.663   3.766   5.861 -0.2701 -0.2404  0.1653
34922SOL    HW113734   1.675   3.846   5.911 -0.6925 -0.6860  1.0073
34922SOL    HW213735   1.588   3.783   5.805  1.2792  0.8862 -1.6516
34923SOL     OW13736   1.030   0.268   2.650 -0.2327 -0.4868 -0.6474
34923SOL    HW113737   1.069   0.276   2.737 -1.0474  0.0646 -0.3238
34923SOL    HW213738   0.963   0.201   2.659 -2.6227  1.8247  0.0467
34924SOL     OW13739   7.685  11.078   4.379  0.3211  0.5001  0.0321
34924SOL    HW113740   7.740  11.015   4.427  1.0007  1.8843  1.1383
34924SOL    HW213741   7.708  11.063   4.287  1.1248 -0.2727  0.3347
34925SOL     OW13742   7.215   0.768   3.313 -0.0483  0.0436 -0.0882
34925SOL    HW113743   7.186   0.706   3.247  0.6078 -1.4587  0.9690
34925SOL    HW213744   7.304   0.791   3.287 -0.2109  0.3805 -0.3567
34926SOL     OW13745   6.301  10.960   2.302 -0.1005  0.0678  0.4227
34926SOL    HW113746   6.255  10.943   2.384  0.8352 -0.4118  0.8596
34926SOL    HW213747   6.280  10.885   2.246  0.8570 -0.5845  0.9365
34927SOL     OW13748   6.095   2.817   8.596 -0.5941  0.0165 -0.2925
34927SOL    HW113749   6.005   2.800   8.569 -0.0754 -0.2490 -1.9398
34927SOL    HW213750   6.139   2.849   8.517  0.5881  0.8571  0.6490
34928SOL     OW13751   9.597   0.027  10.854 -0.1416 -0.1048  0.1321
34928SOL    HW113752   9.649  -0.046  10.885 -1.1628 -0.1971  1.7383
34928SOL    HW213753   9.530  -0.013  10.799  1.1283 -0.0297 -1.5510
34929SOL     OW13754   3.741   9.249   5.514  0.5458 -0.6000  0.2043
34929SOL    HW113755   3.681   9.225   5.443  0.3580 -1.3995  0.6178
34929SOL    HW213756   3.823   9.204   5.493  0.5473 -0.6872  0.3901
34930SOL     OW13757   7.370   0.994   9.694  0.3272 -0.0760  0.7479
34930SOL    HW113758   7.360   0.949   9.610  0.4776 -0.1039  0.7441
34930SOL    HW213759   7.461   1.023   9.694  0.4092 -0.3298  1.0251
34931SOL     OW13760   0.474  11.166   5.641  0.0086 -0.2348 -0.4790
34931SOL    HW113761   0.478  11.191   5.733  0.4434 -1.5324 -0.1348
34931SOL    HW213762   0.555  11.117   5.625 -0.4579 -0.7574 -1.3252
34932SOL     OW13763  10.819   3.867   2.190 -0.3212 -0.2127 -0.6402
34932SOL    HW113764  10.885   3.808   2.227  0.7851  2.0028  1.1787
34932SOL    HW213765  10.745   3.810   2.170 -0.0922 -2.0326  2.8491
34933SOL     OW13766   3.606  11.282  12.344 -0.3194 -0.6045 -0.3950
34933SOL    HW113767   3.566  11.237  12.269 -0.3788 -2.3586  0.6430
34933SOL    HW213768   3.535  11.334  12.382 -0.8302 -1.3308 -0.3425
34934SOL     OW13769   7.748   4.440   9.575  0.2816 -0.2354 -0.3229
34934SOL    HW113770   7.750   4.459   9.481  0.3898  0.0991 -0.2531
34934SOL    HW213771   7.751   4.344   9.580  0.6664 -0.2429 -0.6493
34935SOL     OW13772   2.689  11.997   5.171  0.3078  0.1339  0.3911
34935SOL    HW113773   2.657  12.053   5.242 -1.4050 -1.0376  0.5953
34935SOL    HW213774   2.731  12.058   5.110  0.4963  1.3437  1.6742
34936SOL     OW13775  11.096   4.571   7.134 -0.3303 -0.2005  0.2905
34936SOL    HW113776  11.035   4.503   7.163 -2.1459  1.8027  1.4993
34936SOL    HW213777  11.053   4.610   7.058  1.0611 -0.8256 -0.8659
34937SOL     OW13778  11.645  10.988   4.048 -0.1103 -0.4467  0.1555
34937SOL    HW113779  11.725  10.935   4.047  0.2221  0.0149  0.9436
34937SOL    HW213780  11.578  10.932   4.010  0.3268 -1.2750  0.5911
34938SOL     OW13781  11.218   0.646   0.584  0.4549 -1.0641 -0.3673
34938SOL    HW113782  11.191   0.703   0.656  2.9074  1.6167 -1.3338
34938SOL    HW213783  11.140   0.595   0.563 -1.2741  0.3258  2.0766
34939SOL     OW13784   1.880  10.642   3.284  0.1195  0.1153  0.1696
34939SOL    HW113785   1.936  10.581   3.235 -0.6260 -0.3565 -0.1232
34939SOL    HW213786   1.844  10.700   3.217 -0.6346 -0.3157  0.1818
34940SOL     OW13787   7.131  10.151   7.727  0.5790 -0.2864  0.3170
34940SOL    HW113788   7.144  10.242   7.698  0.7482 -0.4416 -0.1006
34940SOL    HW213789   7.220  10.117   7.737  0.5808  0.1177  2.1887
34941SOL     OW13790   3.220   5.792   7.160  0.6808 -0.6060  0.4723
34941SOL    HW113791   3.208   5.830   7.247  0.0581 -1.4481  0.7772
34941SOL    HW213792   3.302   5.830   7.128  0.6807  0.0702  1.2330
34942SOL     OW13793   1.274  10.548   0.075 -0.1981  0.2777  0.0496
34942SOL    HW113794   1.252  10.598  -0.004 -2.3160 -0.3887  0.1425
34942SOL    HW213795   1.310  10.465   0.041 -1.9869 -0.4017 -0.3096
34943SOL     OW13796  10.695   7.820   8.504  0.0507 -0.0465 -0.4266
34943SOL    HW113797  10.782   7.832   8.464 -0.2926 -0.7499 -1.4164
34943SOL    HW213798  10.704   7.740   8.556  0.0664  0.0301 -0.3107
34944SOL     OW13799   6.174  10.971   7.258  0.2817  0.1223 -0.6962
34944SOL    HW113800   6.169  11.034   7.330  2.9466  0.4152 -0.6551
34944SOL    HW213801   6.170  11.024   7.179  1.3147  0.2551 -0.6751
34945SOL     OW13802   4.552  11.498   5.407  0.3304 -0.3649  0.0869
34945SOL    HW113803   4.482  11.454   5.455  0.4024 -1.3153 -0.6619
34945SOL    HW213804   4.535  11.477   5.316  0.6774  0.7323 -0.2449
34946SOL     OW13805   2.855   9.767  10.331  0.6443  0.3243  0.0265
34946SOL    HW113806   2.851   9.686  10.281  0.7836  0.7161 -0.6446
34946SOL    HW213807   2.786   9.759  10.396 -0.5540  0.4169 -1.1917
34947SOL     OW13808   0.379  11.635   8.462 -0.4053 -0.0175 -0.3519
34947SOL    HW113809   0.355  11.545   8.438  2.7927 -0.5165 -2.1852
34947SOL    HW213810   0.306  11.688   8.430 -2.5657 -1.8902  1.1119
34948SOL     OW13811   8.737   4.057   2.522  0.3426 -0.7187  0.6009
34948SOL    HW113812   8.669   4.062   2.455  1.3530  2.2490 -0.3544
34948SOL    HW213813   8.691   4.073   2.604 -0.7480 -3.3697  0.6117
34949SOL     OW13814  11.029  10.975  11.973  0.1682 -0.6284 -0.2538
34949SOL    HW113815  10.991  11.027  12.044  2.3858 -0.2029  0.6814
34949SOL    HW213816  11.047  11.039  11.904  0.8080 -0.5143  0.0113
34950SOL     OW13817  11.927   9.757  10.523  0.1711  0.0760 -0.4095
34950SOL    HW113818  11.978   9.837  10.514  1.1883 -0.4605  0.2927
34950SOL    HW213819  11.952   9.723  10.609 -2.1399  0.2929  0.4142
34951SOL     OW13820   7.503   7.834   7.906 -0.3768 -0.0580  0.2388
34951SOL    HW113821   7.529   7.791   7.824  1.4934 -1.4240  1.4563
34951SOL    HW213822   7.413   7.805   7.920 -1.2390  1.2904 -1.9509
34952SOL     OW13823   4.111   9.337   7.831 -0.6178  0.1368 -0.0127
34952SOL    HW113824   4.168   9.285   7.775 -1.7785  0.2756 -1.4041
34952SOL    HW213825   4.109   9.291   7.914  2.6802  0.9370  0.6373
34953SOL     OW13826  10.339   2.832   6.255 -0.2285 -0.2097 -1.0603
34953SOL    HW113827  10.332   2.841   6.350 -1.0500 -1.4490 -0.9787
34953SOL    HW213828  10.278   2.897   6.221  0.7163  0.8606 -0.7926
34954SOL     OW13829   5.462   2.682  10.272 -0.5180 -0.0592 -0.7313
34954SOL    HW113830   5.548   2.692  10.232 -0.7538  0.2377 -1.1702
34954SOL    HW213831   5.476   2.708  10.363  0.0934 -1.0823 -0.5152
34955SOL     OW13832   2.083   9.424   7.321 -0.6338  0.0076  0.0064
34955SOL    HW113833   2.041   9.356   7.267  1.7619 -0.4691 -1.4014
34955SOL    HW213834   2.130   9.375   7.388 -1.3310  0.4687  0.8471
34956SOL     OW13835   1.557   8.438   5.553 -0.1683 -0.3348  0.5468
34956SOL    HW113836   1.591   8.438   5.464  0.3095 -2.0267  0.7033
34956SOL    HW213837   1.464   8.462   5.542 -0.4359 -1.7278 -0.5580
34957SOL     OW13838   0.504   0.177   7.671  0.0061  0.3626 -0.4902
34957SOL    HW113839   0.467   0.185   7.759 -0.5446 -0.8898 -0.5892
34957SOL    HW213840   0.430   0.193   7.612  0.4393  1.5219 -0.7541
34958SOL     OW13841   7.151   8.246  10.206 -0.1982  0.0975 -0.6508
34958SOL    HW113842   7.230   8.260  10.259  0.5873 -3.3471 -0.7098
34958SOL    HW213843   7.164   8.303  10.130  1.5807  0.5893 -0.0376
34959SOL     OW13844  11.268   4.787  10.777  0.4895  0.4425 -0.0731
34959SOL    HW113845  11.298   4.726  10.845  0.0353 -1.0402 -1.1475
34959SOL    HW213846  11.189   4.747  10.742  0.2759  1.5722 -0.9514
34960SOL     OW13847   4.589   9.930   4.942 -0.3736 -0.4634  0.0137
34960SOL    HW113848   4.617   9.994   4.877  1.0870 -1.2925 -0.2215
34960SOL    HW213849   4.582   9.848   4.893  0.6163 -1.0685  0.8542
34961SOL     OW13850  12.250   4.405   8.501 -0.7092  0.5690 -0.2524
34961SOL    HW113851  12.214   4.491   8.481 -1.0139  0.8969  1.4690
34961SOL    HW213852  12.181   4.362   8.553 -0.4590 -0.6207 -0.8645
34962SOL     OW13853   0.031   9.925   5.934  0.2623 -0.3497  0.2957
34962SOL    HW113854  -0.029   9.872   5.881  0.1523  1.3027 -1.3168
34962SOL    HW213855   0.033  10.010   5.890  3.3922 -0.1727  0.6067
34963SOL     OW13856   2.572  12.476  11.232 -0.4229 -0.4594  0.1337
34963SOL    HW113857   2.539  12.389  11.209 -1.1929  0.0892 -0.8995
34963SOL    HW213858   2.662  12.460  11.261 -0.3058 -1.5203 -0.7385
34964SOL     OW13859   6.251   3.604   2.954  0.3517 -0.4480 -0.3058
34964SOL    HW113860   6.300   3.669   3.005  0.9968 -0.4662 -0.8868
34964SOL    HW213861   6.240   3.531   3.014  0.9405 -0.3954 -0.1185
34965SOL     OW13862  10.532   7.810   9.293  0.1784 -0.2314  0.5567
34965SOL    HW113863  10.438   7.794   9.305  0.3985 -2.2220 -0.0039
34965SOL    HW213864  10.558   7.747   9.225  1.8993  0.3863  0.6063
34966SOL     OW13865   5.252  10.824   5.841 -0.1111 -0.3536 -0.1610
34966SOL    HW113866   5.284  10.790   5.757  2.7941  2.0901 -0.2344
34966SOL    HW213867   5.294  10.769   5.907 -0.1477 -0.5527 -0.3038
34967SOL     OW13868   7.605  12.473   0.021 -0.1678  0.3104  0.0767
34967SOL    HW113869   7.686  12.523   0.018  0.2202 -0.1787  1.3603
34967SOL    HW213870   7.543  12.529   0.068 -0.1293  0.1281  0.3528
34968SOL     OW13871   1.354   3.040  10.145  0.1299  0.1850 -0.0605
34968SOL    HW113872   1.355   2.945  10.133 -2.1705  0.2495 -1.3002
34968SOL    HW213873   1.359   3.076  10.057  5.0748  1.4692  0.4789
34969SOL     OW13874  11.076   6.508   5.247  0.2880 -0.7068 -0.1373
34969SOL    HW113875  11.083   6.447   5.320  1.0410  0.4191  0.7766
34969SOL    HW213876  10.994   6.485   5.203 -0.8623 -0.6072  1.8450
34970SOL     OW13877   8.451   0.160   7.770 -0.3512 -0.2052  0.1125
34970SOL    HW113878   8.389   0.095   7.804 -1.6326  0.4714 -0.8693
34970SOL    HW213879   8.520   0.107   7.728  0.8770 -1.0322  2.9385
34971SOL     OW13880  10.123  12.054   4.208 -0.3443  0.3822  0.1738
34971SOL    HW113881  10.047  12.039   4.264  0.1023  0.5875  0.8405
34971SOL    HW213882  10.091  12.114   4.140 -1.2846 -1.0107 -0.6661
34972SOL     OW13883  10.797   0.412  12.449 -0.3973  0.0174  0.2178
34972SOL    HW113884  10.814   0.319  12.464  1.2269  0.5202  1.9413
34972SOL    HW213885  10.803   0.422  12.354  0.4482 -1.4782  0.0743
34973SOL     OW13886  10.660   2.629  12.228 -0.3365  0.6509  0.6069
34973SOL    HW113887  10.734   2.589  12.183 -0.8633 -0.0360  0.3408
34973SOL    HW213888  10.670   2.723  12.211  0.7769  0.6330  1.0462
34974SOL     OW13889   8.397   8.103  12.152 -0.1262 -0.0412  0.1995
34974SOL    HW113890   8.384   8.158  12.229  2.0753  2.7154 -1.1911
34974SOL    HW213891   8.492   8.096  12.144 -0.2399  0.4607 -2.6335
34975SOL     OW13892   3.512   2.014  11.089 -0.5220  0.1206 -0.0343
34975SOL    HW113893   3.540   1.949  11.154 -0.9888  1.2415  1.3398
34975SOL    HW213894   3.417   2.004  11.085 -0.6019  0.7416  0.2171
34976SOL     OW13895   0.906  10.390   1.074  0.2650 -0.1417  0.1880
34976SOL    HW113896   0.903  10.484   1.054 -0.5418 -0.1389  0.3143
34976SOL    HW213897   0.862  10.382   1.159  1.5570 -0.4651  0.8688
34977SOL     OW13898   8.561   8.247   5.033 -0.5141 -0.7209  0.0182
34977SOL    HW113899   8.608   8.290   5.105 -0.5602 -0.2968 -0.2014
34977SOL    HW213900   8.553   8.156   5.061  0.9232 -0.9241 -0.1952
34978SOL     OW13901  10.871   1.201   7.375 -0.0240  0.5604 -0.1400
34978SOL    HW113902  10.925   1.122   7.379 -0.6685 -0.0504 -2.1001
34978SOL    HW213903  10.824   1.202   7.459  0.9329 -0.4321  0.4317
34979SOL     OW13904  12.210   4.387  10.254 -0.2267 -0.0991 -0.3225
34979SOL    HW113905  12.229   4.296  10.230 -2.3687 -1.1009  1.3813
34979SOL    HW213906  12.277   4.410  10.318  2.1013  0.6400 -2.8476
34980SOL     OW13907   9.599   7.234   7.501 -0.9740  0.0541 -0.1459
34980SOL    HW113908   9.591   7.244   7.595 -1.3716  1.2463 -0.2980
34980SOL    HW213909   9.571   7.317   7.464 -2.0738 -0.8135 -1.3891
34981SOL     OW13910   5.257   0.649   8.239 -0.0505 -0.6030 -0.3028
34981SOL    HW113911   5.199   0.634   8.314  3.0455  1.0602  2.7278
34981SOL    HW213912   5.217   0.723   8.193 -1.3600 -0.7577  0.5226
34982SOL     OW13913   5.293  10.205  10.610 -0.0156  0.2450  0.2587
34982SOL    HW113914   5.364  10.240  10.556 -0.0096  0.0442  0.1367
34982SOL    HW213915   5.264  10.280  10.663 -1.3875  0.9926 -1.4666
34983SOL     OW13916   7.629   0.523  11.798 -0.0849  0.2167 -0.3716
34983SOL    HW113917   7.545   0.481  11.815  0.1416  0.4707  1.6097
34983SOL    HW213918   7.653   0.564  11.881  2.2600 -0.3038 -0.7170
34984SOL     OW13919   1.644  11.873   9.847  0.0427  0.4576 -0.3982
34984SOL    HW113920   1.736  11.851   9.861  0.2139 -0.0721 -2.1324
34984SOL    HW213921   1.596  11.808   9.899  0.6270  1.0307  0.9021
34985SOL     OW13922   0.622   6.804  11.722  0.6804 -0.2465  0.5994
34985SOL    HW113923   0.562   6.730  11.728  1.4939 -0.9627 -0.0001
34985SOL    HW213924   0.586   6.868  11.784 -0.6942 -0.6551  0.2681
34986SOL     OW13925   3.364   0.588   6.859 -0.0669 -0.0775 -0.0682
34986SOL    HW113926   3.456   0.606   6.838 -0.0193 -0.3778 -0.1318
34986SOL    HW213927   3.324   0.567   6.774 -0.3197  0.5777 -0.1119
34987SOL     OW13928   6.239   8.777   1.163  0.0725  0.1610  0.1427
34987SOL    HW113929   6.296   8.755   1.090 -0.1398 -0.2200  0.0889
34987SOL    HW213930   6.238   8.873   1.166  1.0222  0.1652  0.3885
34988SOL     OW13931   6.192   7.298  10.501  0.2764 -0.5019  0.0656
34988SOL    HW113932   6.286   7.301  10.519  0.1425  1.6319  0.6895
34988SOL    HW213933   6.182   7.343  10.417 -0.3052  0.7407  0.7732
34989SOL     OW13934   0.754   7.541   9.330  0.5903  0.1150 -0.9921
34989SOL    HW113935   0.806   7.573   9.405  0.2807 -1.6553  0.0311
34989SOL    HW213936   0.789   7.589   9.255 -0.5830  3.6817  0.5165
34990SOL     OW13937   8.030   8.191   4.230 -0.0273 -0.1569  0.8420
34990SOL    HW113938   8.005   8.165   4.319  0.0699 -0.3840  0.8050
34990SOL    HW213939   8.071   8.277   4.241 -0.9367  0.2743  0.8817
34991SOL     OW13940   3.107   2.362  10.820 -0.1985  0.3696 -0.0040
34991SOL    HW113941   3.182   2.303  10.810 -0.3602  0.3706 -1.4764
34991SOL    HW213942   3.048   2.336  10.749 -1.2849  0.8288  0.7167
34992SOL     OW13943  11.846   2.875   8.778 -1.0982  0.2335 -0.2360
34992SOL    HW113944  11.791   2.832   8.713 -0.0049 -1.2145 -0.2453
34992SOL    HW213945  11.909   2.926   8.727 -1.4816  0.6915 -0.2574
34993SOL     OW13946   3.857   3.896   1.164 -0.0648 -0.2313  0.3863
34993SOL    HW113947   3.766   3.914   1.141  0.0739  0.5073  0.4015
34993SOL    HW213948   3.903   3.977   1.145  0.2447  0.0549  2.1957
34994SOL     OW13949  12.426   8.821  11.046  0.0072 -0.0149 -0.3603
34994SOL    HW113950  12.426   8.749  10.983 -0.0624 -0.3106 -0.0278
34994SOL    HW213951  12.500   8.876  11.020  1.3375 -1.2851  0.5856
34995SOL     OW13952  12.383   3.654  10.282  0.1014  0.0201  0.7355
34995SOL    HW113953  12.370   3.746  10.258  0.8747 -0.2402 -0.8055
34995SOL    HW213954  12.297   3.624  10.311 -0.9774  0.3795 -1.8687
34996SOL     OW13955   1.627  10.837   0.680 -0.1881 -0.4258 -0.3781
34996SOL    HW113956   1.598  10.895   0.609 -0.3015  0.3229  0.2631
34996SOL    HW213957   1.546  10.805   0.720 -0.2259  1.6050  1.3644
34997SOL     OW13958   6.679   8.869   6.076 -0.6999 -0.0184 -0.0981
34997SOL    HW113959   6.659   8.905   6.162 -0.7935 -0.1593 -0.0602
34997SOL    HW213960   6.741   8.931   6.038 -0.5242 -0.0477  0.1387
34998SOL     OW13961   3.689  12.085   3.361 -0.4455 -0.0065  0.2375
34998SOL    HW113962   3.725  12.019   3.420  0.4747  0.1686 -0.1225
34998SOL    HW213963   3.636  12.141   3.418 -0.5193 -0.5278  0.6919
34999SOL     OW13964  11.512   8.812  11.025  0.3415  0.2457  0.7388
34999SOL    HW113965  11.514   8.863  11.106  0.8370  1.3380  0.0484
34999SOL    HW213966  11.587   8.843  10.975 -1.3037  1.3386 -1.2079
35000SOL     OW13967   1.213   2.869   0.278  0.2297  0.0908  0.3390
35000SOL    HW113968   1.235   2.792   0.331 -0.9584 -1.2788 -1.0466
35000SOL    HW213969   1.298   2.907   0.255  0.9773 -2.0602 -0.6804
35001SOL     OW13970   8.481   2.322   3.629  0.4981 -0.1120 -0.2341
35001SOL    HW113971   8.390   2.338   3.604 -0.6201 -2.3954  1.9411
35001SOL    HW213972   8.505   2.400   3.679 -0.3387  0.4143 -0.6266
35002SOL     OW13973   7.070   8.469   4.701  0.0196 -0.2209  0.3794
35002SOL    HW113974   7.024   8.488   4.620  0.7291  2.3869  0.4924
35002SOL    HW213975   7.011   8.411   4.750 -2.5052  1.8013 -0.0809
35003SOL     OW13976   7.780   9.070   0.719  0.4187  0.6665  0.0711
35003SOL    HW113977   7.819   8.983   0.726 -0.5979  0.0629 -1.2797
35003SOL    HW213978   7.853   9.130   0.729  1.3442 -0.3742 -0.2063
35004SOL     OW13979   5.132   4.262   5.791 -0.9494  0.1062 -0.4208
35004SOL    HW113980   5.047   4.230   5.760 -0.6392 -0.4251 -0.7403
35004SOL    HW213981   5.190   4.250   5.716 -0.8777  1.7168 -0.6516
35005SOL     OW13982  10.950   1.058   7.904 -0.0367 -0.5257 -0.6945
35005SOL    HW113983  11.032   1.066   7.951  0.4582  0.3418 -1.6647
35005SOL    HW213984  10.891   1.014   7.966  0.6650  0.2997  0.6093
35006SOL     OW13985   4.889   2.672   5.489 -0.5677  0.4622  0.1339
35006SOL    HW113986   4.907   2.578   5.486 -2.6237  0.0400 -2.1469
35006SOL    HW213987   4.817   2.680   5.551  0.6669  0.8039  1.5731
35007SOL     OW13988   3.417  12.018   1.044 -0.2335 -0.1960 -0.1112
35007SOL    HW113989   3.405  12.072   0.965  0.6162  0.1318 -0.0352
35007SOL    HW213990   3.368  12.064   1.112 -0.1072  0.0909 -0.2116
35008SOL     OW13991   1.162   4.668   8.441 -0.3471 -0.4181 -0.3185
35008SOL    HW113992   1.248   4.710   8.439 -0.4816 -0.0874 -2.7688
35008SOL    HW213993   1.169   4.602   8.510  0.4582  2.2905  2.3971
35009SOL     OW13994   0.832   7.437   6.149  0.4240 -0.1409 -0.3009
35009SOL    HW113995   0.916   7.411   6.112  0.7104 -0.3961  0.5027
35009SOL    HW213996   0.767   7.391   6.096  0.8072 -0.2204 -0.7041
35010SOL     OW13997   9.553   6.061   6.358 -0.0727 -0.2138 -0.2766
35010SOL    HW113998   9.606   6.137   6.334  1.5172 -0.8845  0.8894
35010SOL    HW213999   9.567   5.998   6.287 -0.8557  0.3151 -0.9112
35011SOL     OW14000   4.640  10.572  12.549  0.4794  0.0131  0.2928
35011SOL    HW114001   4.566  10.613  12.593 -0.5163 -0.9600 -0.4245
35011SOL    HW214002   4.641  10.610  12.462 -0.8133 -1.8168 -0.5825
35012SOL     OW14003   6.315   6.880   1.010 -0.4922 -1.0910 -0.1771
35012SOL    HW114004   6.224   6.903   1.032 -0.3602 -0.2638 -0.4521
35012SOL    HW214005   6.307   6.806   0.949 -1.0106 -0.6438 -0.6706
35013SOL     OW14006   6.711   3.456  11.879 -0.0964  0.6882  0.2278
35013SOL    HW114007   6.662   3.387  11.834  0.3486  0.8409 -0.5025
35013SOL    HW214008   6.670   3.538  11.849 -0.0249  0.7785  0.3751
35014SOL     OW14009   1.306   3.147   3.106 -0.5698  0.2332  0.1045
35014SOL    HW114010   1.316   3.213   3.175 -0.9790 -0.0184  0.4101
35014SOL    HW214011   1.345   3.068   3.143  1.0214  0.5951 -0.7265
35015SOL     OW14012   9.075   6.735   1.887 -0.0099 -0.6306 -0.1570
35015SOL    HW114013   8.982   6.742   1.911  0.0767  1.4764 -0.2746
35015SOL    HW214014   9.117   6.703   1.967 -0.5747  0.3681  0.5664
35016SOL     OW14015   3.003   5.236  10.794 -0.4721 -0.0151 -0.3437
35016SOL    HW114016   3.076   5.275  10.842 -0.1376 -1.4644  0.3813
35016SOL    HW214017   3.033   5.233  10.703 -0.0970  0.4527 -0.2397
35017SOL     OW14018   8.240   6.377  11.575 -0.1803  0.2188 -0.3030
35017SOL    HW114019   8.169   6.409  11.520  1.7119  3.3850 -1.1713
35017SOL    HW214020   8.294   6.323  11.517 -1.7213 -2.1765  0.3547
35018SOL     OW14021   1.422  10.919   0.084 -0.5508  0.1904 -0.0202
35018SOL    HW114022   1.442  10.934   0.176 -0.3905  0.7660 -0.1459
35018SOL    HW214023   1.503  10.940   0.038 -1.0086  1.1805 -0.4039
35019SOL     OW14024  11.774   1.731   6.616 -0.3554 -0.1786  0.7164
35019SOL    HW114025  11.850   1.783   6.589 -0.8594  0.3227  0.2231
35019SOL    HW214026  11.698   1.785   6.591 -0.8784 -0.9432  0.6256
35020SOL     OW14027   2.555   0.891   1.515 -0.1694  0.1266 -0.7253
35020SOL    HW114028   2.641   0.930   1.497 -0.3526  0.7736 -0.2099
35020SOL    HW214029   2.504   0.961   1.555  0.5699 -1.5006  3.5738
35021SOL     OW14030   9.935  10.709   0.119  0.1146 -0.2313  0.5402
35021SOL    HW114031   9.959  10.617   0.111 -1.5359 -0.8197  1.7794
35021SOL    HW214032   9.873  10.724   0.048  0.4195 -0.0717  0.3101
35022SOL     OW14033  12.058   1.721  11.991  0.0954 -0.1939 -0.0781
35022SOL    HW114034  12.127   1.742  12.053  0.7068  0.1897 -0.8736
35022SOL    HW214035  11.984   1.777  12.017  0.6071  0.5311 -0.1558
35023SOL     OW14036   4.122   9.537   4.782 -0.4276 -0.1544  0.3841
35023SOL    HW114037   4.146   9.444   4.775  1.7558  0.4197 -0.9657
35023SOL    HW214038   4.166   9.567   4.862  0.0636  0.0045  0.0617
35024SOL     OW14039   5.225   9.106   1.947  0.4218  0.0429  0.3089
35024SOL    HW114040   5.130   9.099   1.949  0.5311 -2.0205  1.5783
35024SOL    HW214041   5.247   9.163   2.021  0.1922 -0.2620  0.6173
35025SOL     OW14042   5.792   0.910   3.474 -0.0694 -0.0550 -0.6368
35025SOL    HW114043   5.778   0.898   3.568  1.3196  1.7982 -0.1429
35025SOL    HW214044   5.760   0.829   3.435 -3.3189  0.2074  1.1251
35026SOL     OW14045   8.471   1.338   1.637 -0.3498 -0.2095 -0.3241
35026SOL    HW114046   8.441   1.385   1.715 -0.4144  0.0296 -0.4914
35026SOL    HW214047   8.395   1.289   1.607 -1.2634  2.0257 -1.9719
35027SOL     OW14048   5.863   7.136  12.290 -0.2799 -0.5789  0.1632
35027SOL    HW114049   5.774   7.154  12.259  0.2888 -0.1925 -1.3226
35027SOL    HW214050   5.885   7.213  12.343 -1.1954 -1.1726  1.4841
35028SOL     OW14051   9.999   4.072   6.438  0.1269  0.1131  0.0213
35028SOL    HW114052   9.975   4.098   6.349 -0.7626  1.3480  0.5943
35028SOL    HW214053  10.095   4.074   6.438  0.2033 -1.3246 -1.2900
35029SOL     OW14054   0.433  11.082   7.425 -0.3959  0.3108 -0.1951
35029SOL    HW114055   0.454  11.059   7.334 -0.8526 -0.9643  0.0065
35029SOL    HW214056   0.490  11.157   7.444  2.0099 -1.3208 -0.5281
35030SOL     OW14057   4.435   9.842   7.671 -0.3883 -0.4957 -0.3058
35030SOL    HW114058   4.518   9.889   7.681  0.0363 -1.4705  1.1704
35030SOL    HW214059   4.428   9.790   7.751 -2.1132 -0.9386 -0.7083
35031SOL     OW14060   7.512   4.092  10.819  0.1467 -0.6321  0.0072
35031SOL    HW114061   7.543   4.010  10.856  1.5932 -0.3235 -0.4564
35031SOL    HW214062   7.493   4.147  10.896  1.3980 -0.6134  0.3220
35032SOL     OW14063   4.656   0.930   3.552 -0.0073  0.0584 -0.2030
35032SOL    HW114064   4.596   0.892   3.488 -1.5584  2.0026  0.0390
35032SOL    HW214065   4.606   0.933   3.634  1.1827 -0.3056  0.5708
35033SOL     OW14066  10.711   4.806  10.788  0.1724  0.3961  0.2862
35033SOL    HW114067  10.692   4.772  10.701 -0.0257  0.4756  0.2965
35033SOL    HW214068  10.628   4.798  10.835 -0.3759  2.5159 -0.2401
35034SOL     OW14069   7.573   3.762   9.870  0.3705  0.6389  0.7125
35034SOL    HW114070   7.500   3.702   9.888  0.6805  0.2080  0.5530
35034SOL    HW214071   7.555   3.795   9.782 -0.0388  1.1324  0.9765
35035SOL     OW14072   1.454  10.781   0.883 -0.2002 -0.7894  0.6393
35035SOL    HW114073   1.441  10.820   0.970 -0.5391 -1.4892  0.9066
35035SOL    HW214074   1.519  10.712   0.897 -0.0923 -0.7600  0.2884
35036SOL     OW14075   8.028   7.448   4.668  0.1060  0.0177 -0.2245
35036SOL    HW114076   7.943   7.488   4.687  0.4723  0.8961 -0.3965
35036SOL    HW214077   8.042   7.388   4.741  0.9610  2.5080  1.8182
35037SOL     OW14078   7.912  11.057   5.463  0.3863 -0.2115  0.3154
35037SOL    HW114079   7.970  11.101   5.401 -0.1977  1.4759  0.9038
35037SOL    HW214080   7.918  11.109   5.543 -0.3007 -1.2583  1.0811
35038SOL     OW14081   2.450   6.477   7.917 -0.5696 -0.4328 -0.2308
35038SOL    HW114082   2.503   6.442   7.846 -0.0429  1.3962 -0.8002
35038SOL    HW214083   2.475   6.569   7.922 -2.3123  0.0284  0.7658
35039SOL     OW14084   4.668   5.767   8.408 -0.3089  0.3489  0.2176
35039SOL    HW114085   4.721   5.700   8.364 -0.3298  0.1507  0.4886
35039SOL    HW214086   4.582   5.726   8.417 -0.4241  0.5548  0.0506
35040SOL     OW14087   4.730  10.123  10.087 -0.1322  0.1764  0.3077
35040SOL    HW114088   4.652  10.081  10.050 -0.7995  0.9055  0.8323
35040SOL    HW214089   4.762  10.180  10.017  0.0029 -0.2086  0.0519
35041SOL     OW14090   4.448  11.985  11.689  0.2273  0.5825  0.0471
35041SOL    HW114091   4.499  12.011  11.613 -0.2556  3.9088  0.7157
35041SOL    HW214092   4.507  11.996  11.763 -0.4848  1.4291  0.5151
35042SOL     OW14093   6.647   2.216  10.768  0.0928  0.1374 -0.6893
35042SOL    HW114094   6.712   2.231  10.699 -0.4291  0.2201 -1.1747
35042SOL    HW214095   6.641   2.300  10.814 -1.4260  0.9059 -2.1858
35043SOL     OW14096   6.654   7.805   7.632 -0.2834 -0.2338 -0.4706
35043SOL    HW114097   6.729   7.749   7.650 -0.1047 -0.1156 -0.8186
35043SOL    HW214098   6.673   7.886   7.680 -1.3845 -1.0778  1.4795
35044SOL     OW14099  12.023   5.665   0.170 -0.0399 -0.0014  0.1810
35044SOL    HW114100  12.068   5.593   0.126  1.8346  1.6763 -0.7906
35044SOL    HW214101  12.092   5.712   0.216 -0.9069  2.1309 -0.5816
35045SOL     OW14102   1.639  10.963   6.344  0.0830  0.1057  0.5831
35045SOL    HW114103   1.676  10.989   6.428 -2.2294  2.7042  0.9484
35045SOL    HW214104   1.582  11.036   6.319 -1.7446 -1.9259 -1.7293
35046SOL     OW14105   8.075  11.476  10.401 -0.1222  0.0347  0.3412
35046SOL    HW114106   7.987  11.460  10.367  0.8959 -0.1984 -2.4170
35046SOL    HW214107   8.115  11.389  10.405 -0.3506 -0.0333  2.8356
35047SOL     OW14108   2.266   4.989  11.361 -0.2103  0.0083  0.0515
35047SOL    HW114109   2.200   5.010  11.295 -2.5694  1.5553  2.6926
35047SOL    HW214110   2.271   4.893  11.360  1.3257 -0.0535 -3.5440
35048SOL     OW14111   2.583   2.778   5.026  0.1731  0.1205  0.3871
35048SOL    HW114112   2.502   2.776   5.077  0.0108  0.4740  0.1479
35048SOL    HW214113   2.643   2.830   5.079  0.5269 -0.8388  0.9625
35049SOL     OW14114   1.521   1.039   8.788 -0.3707  0.0030  0.0695
35049SOL    HW114115   1.469   1.017   8.711  1.3012  0.4179 -1.2260
35049SOL    HW214116   1.526   0.957   8.837  0.0228 -0.7506 -1.1840
35050SOL     OW14117   9.978   5.862   7.432 -0.0014  0.1878  0.2703
35050SOL    HW114118   9.939   5.922   7.496 -0.8338  0.1901 -0.2282
35050SOL    HW214119   9.959   5.902   7.347  1.0687  0.1679  0.0010
35051SOL     OW14120   2.607   7.648   2.164  0.2417  0.3066 -0.3797
35051SOL    HW114121   2.513   7.634   2.158  0.3268 -1.6411  1.6741
35051SOL    HW214122   2.619   7.706   2.240  0.6605  2.0602 -1.7045
35052SOL     OW14123   8.845   6.621   5.948  0.0278 -0.2706 -0.0019
35052SOL    HW114124   8.767   6.674   5.965  1.5432  1.5051  1.8952
35052SOL    HW214125   8.840   6.549   6.011 -0.6879 -0.8993 -0.7579
35053SOL     OW14126   9.559   2.235   6.112 -0.9044  0.3438  0.0331
35053SOL    HW114127   9.627   2.271   6.168 -0.1257 -0.4017 -0.4233
35053SOL    HW214128   9.551   2.297   6.040  0.6465 -0.5220 -0.9113
35054SOL     OW14129   5.134   1.343   2.375  0.4782 -0.6867  0.5295
35054SOL    HW114130   5.197   1.281   2.338 -0.3844 -1.3525  0.1268
35054SOL    HW214131   5.139   1.420   2.319  1.4412 -0.4449  0.9314
35055SOL     OW14132   5.245  10.175   6.130  0.1512  0.2047 -0.0931
35055SOL    HW114133   5.337  10.174   6.101 -0.8539  0.1881 -3.7627
35055SOL    HW214134   5.222  10.082   6.141  0.9688  0.2432  2.6980
35056SOL     OW14135  11.386   2.402   5.500 -0.2230 -0.3977  0.3592
35056SOL    HW114136  11.352   2.491   5.511 -0.9403 -0.2755 -2.2198
35056SOL    HW214137  11.317   2.356   5.452 -0.1348 -2.5788  2.1607
35057SOL     OW14138  11.087   6.449   8.608 -0.1286 -0.4801 -0.6522
35057SOL    HW114139  11.172   6.408   8.593 -0.6090 -1.5956 -0.4097
35057SOL    HW214140  11.070   6.436   8.701 -0.4852 -0.1022 -0.6607
35058SOL     OW14141   3.283  10.081  10.290 -0.2363  0.3332  0.1446
35058SOL    HW114142   3.218  10.011  10.301  0.5105 -0.1800  1.7544
35058SOL    HW214143   3.289  10.121  10.377  0.1875  1.6618 -0.4750
35059SOL     OW14144  12.449   0.657   7.217 -0.0181  0.3153  0.0071
35059SOL    HW114145  12.391   0.722   7.257 -0.1298  0.2897 -0.1146
35059SOL    HW214146  12.453   0.682   7.125  1.2124  1.1032  0.2512
35060SOL     OW14147  12.208  11.953   6.094  0.2718 -0.4406 -0.0544
35060SOL    HW114148  12.260  11.893   6.147  0.2977  0.1025  0.5540
35060SOL    HW214149  12.145  11.897   6.048 -0.5034 -0.8386  1.4128
35061SOL     OW14150  11.830   2.585   9.114  0.1393 -0.0718 -0.0746
35061SOL    HW114151  11.913   2.598   9.159  0.5208  0.1537 -0.8175
35061SOL    HW214152  11.784   2.518   9.165  3.1328 -4.5811 -2.6133
35062SOL     OW14153   0.067   7.039   1.122  0.4549 -0.4014  0.2329
35062SOL    HW114154  -0.020   7.053   1.159  0.1344  0.1184 -0.6825
35062SOL    HW214155   0.102   7.127   1.110  0.1918 -0.4944 -1.4859
35063SOL     OW14156   6.070   4.562   8.387  0.2059  0.2631  0.6261
35063SOL    HW114157   6.138   4.623   8.359  1.6977 -2.1582 -1.5208
35063SOL    HW214158   5.992   4.589   8.337 -0.0578  2.0948  1.9232
35064SOL     OW14159  11.746   0.686  11.325 -0.7030 -0.5700  0.2186
35064SOL    HW114160  11.834   0.661  11.354 -1.0224 -1.5413  0.3919
35064SOL    HW214161  11.688   0.647  11.390 -1.3025 -0.6050 -0.3308
35065SOL     OW14162   5.880   2.121   4.651  0.0475  0.2662 -0.5955
35065SOL    HW114163   5.959   2.086   4.609  0.7856  2.1871 -0.9060
35065SOL    HW214164   5.860   2.059   4.721  1.8143 -0.2797 -0.5386
35066SOL     OW14165   3.730  11.766   6.724 -0.1841  0.0042  0.0803
35066SOL    HW114166   3.813  11.757   6.771 -0.1134 -1.0481 -0.2082
35066SOL    HW214167   3.753  11.812   6.644 -0.0828  0.6832  0.4873
35067SOL     OW14168   7.352   1.474   5.068 -0.3058 -0.3954  0.0834
35067SOL    HW114169   7.336   1.379   5.067  1.6154 -0.7705 -0.0562
35067SOL    HW214170   7.267   1.513   5.051 -0.7493 -2.1749 -2.4415
35068SOL     OW14171   8.398   6.356  12.556 -0.3316 -0.1554  0.0875
35068SOL    HW114172   8.492   6.355  12.575 -0.5988 -0.2978  1.5178
35068SOL    HW214173   8.384   6.436  12.506  0.5701 -0.2195 -0.2883
35069SOL     OW14174  12.472   8.698  10.030 -0.1548 -0.3233 -0.1212
35069SOL    HW114175  12.467   8.786   9.993 -0.4908 -0.5735 -0.6783
35069SOL    HW214176  12.381   8.674  10.048  0.0699  0.2896  2.0778
35070SOL     OW14177   6.734   1.419   3.245  0.2001 -0.4313 -0.1208
35070SOL    HW114178   6.803   1.482   3.224  0.2854  0.2753  2.0728
35070SOL    HW214179   6.765   1.337   3.206  1.0525  0.4270 -1.3197
35071SOL     OW14180   4.159   3.692   0.433 -0.2223 -0.4376 -0.3387
35071SOL    HW114181   4.223   3.758   0.407  3.0381 -3.2524 -0.2476
35071SOL    HW214182   4.093   3.693   0.363  0.1837  2.1979 -0.7723
35072SOL     OW14183  12.230   2.361   5.457  0.4200  0.6792 -0.5203
35072SOL    HW114184  12.201   2.355   5.366  0.4337  2.4273 -0.6643
35072SOL    HW214185  12.298   2.427   5.456  1.7113 -0.5747  0.4861
35073SOL     OW14186   6.924   0.788   7.960 -0.0358 -0.0618  0.1637
35073SOL    HW114187   6.847   0.733   7.950  0.4035 -0.7112  0.3098
35073SOL    HW214188   6.934   0.800   8.054  0.1797 -0.1871  0.1588
35074SOL     OW14189   3.437  11.380   7.189  0.6844 -0.1172  1.1744
35074SOL    HW114190   3.383  11.334   7.125  2.5006  0.5673 -0.9550
35074SOL    HW214191   3.375  11.435   7.237 -0.5742  0.6118 -1.1476
35075SOL     OW14192   7.907   8.962  12.086 -0.7232 -0.2971  0.4063
35075SOL    HW114193   7.960   8.887  12.112 -1.0762 -1.0485 -0.9310
35075SOL    HW214194   7.876   8.940  11.997 -0.6659  1.5183 -0.0981
35076SOL     OW14195   5.175   7.310   0.963 -0.0583  0.3203 -0.3442
35076SOL    HW114196   5.149   7.220   0.985 -0.6960  0.8947  1.3838
35076SOL    HW214197   5.214   7.344   1.043 -1.0611  2.0268 -0.5491
35077SOL     OW14198   6.375  10.135   9.793 -0.2102  0.4117  0.2279
35077SOL    HW114199   6.422  10.207   9.835  2.2751 -0.3454 -1.0071
35077SOL    HW214200   6.401  10.140   9.701 -2.2897 -0.3477 -0.4486
35078SOL     OW14201  10.797   5.657   6.950  0.0843  0.2625 -0.1041
35078SOL    HW114202  10.831   5.592   6.890  1.6419  1.7667 -0.9485
35078SOL    HW214203  10.863   5.663   7.019  0.4483  1.5588 -0.5260
35079SOL     OW14204   5.110   3.459   0.580  0.3053  0.3809 -0.3366
35079SOL    HW114205   5.171   3.514   0.531  1.6984 -0.3798  0.4883
35079SOL    HW214206   5.132   3.370   0.553 -2.1978  0.1630 -1.9815
35080SOL     OW14207   0.499   9.823   6.125 -0.2873 -0.0297  1.0225
35080SOL    HW114208   0.450   9.762   6.179 -1.3910 -0.7239 -0.6611
35080SOL    HW214209   0.434   9.858   6.064  0.9323  0.5262 -0.0088
35081SOL     OW14210   0.553   9.048  11.737 -0.2088  0.0345  0.4253
35081SOL    HW114211   0.619   9.094  11.790  0.0143  0.2887 -0.0692
35081SOL    HW214212   0.594   8.965  11.714  0.2814  0.5558 -0.6128
35082SOL     OW14213   5.797  10.850   3.667 -0.0278 -0.5156 -0.5373
35082SOL    HW114214   5.753  10.819   3.588 -0.0314 -0.2608 -0.6350
35082SOL    HW214215   5.803  10.772   3.722  0.7843 -0.9150 -1.1593
35083SOL     OW14216   7.832   4.117   4.964  0.4665  0.1734  0.0771
35083SOL    HW114217   7.920   4.124   5.001  0.8195  1.0453 -0.8800
35083SOL    HW214218   7.845   4.128   4.870 -0.4430 -1.6191 -0.3070
35084SOL     OW14219   5.954   5.068   8.123  0.1030  0.4708 -0.3507
35084SOL    HW114220   5.942   5.005   8.195  0.0589  0.4744 -0.3549
35084SOL    HW214221   5.993   5.145   8.165 -0.1335  0.5578 -0.2915
35085SOL     OW14222   9.719   3.925   0.036  0.0020  0.2218  0.5204
35085SOL    HW114223   9.779   3.948  -0.035 -0.7030  1.4181  0.2932
35085SOL    HW214224   9.653   3.870  -0.006 -0.6441  1.2652  0.1417
35086SOL     OW14225   1.569   8.103   4.950  0.5069 -0.1247  0.2479
35086SOL    HW114226   1.532   8.163   4.886 -1.2861 -0.9027  0.5024
35086SOL    HW214227   1.660   8.092   4.923  0.5025  1.5865 -0.6055
35087SOL     OW14228   7.541   2.415   6.242  0.0466 -0.6491 -0.2342
35087SOL    HW114229   7.552   2.489   6.182 -0.7228  0.2361  0.6827
35087SOL    HW214230   7.457   2.431   6.285  0.3133 -1.5612  0.6738
35088SOL     OW14231   1.053   2.026   3.208 -0.2185  0.5785 -0.1326
35088SOL    HW114232   1.122   2.031   3.141 -0.4954  1.8668 -0.3408
35088SOL    HW214233   1.002   2.106   3.196 -1.7855 -0.3672  0.0010
35089SOL     OW14234   1.768  12.212   0.353 -0.8689 -0.5443  0.4201
35089SOL    HW114235   1.771  12.169   0.267 -0.3292 -0.2154  0.2672
35089SOL    HW214236   1.714  12.290   0.339 -0.7474 -0.4695  0.3705
35090SOL     OW14237   1.531   2.341   7.286  0.2840  0.7081  0.5298
35090SOL    HW114238   1.501   2.291   7.362  1.6017 -0.3739  0.3595
35090SOL    HW214239   1.574   2.418   7.324  0.9016  0.1931  0.8862
35091SOL     OW14240   9.566   2.904   6.830 -0.2310 -0.5538  0.6243
35091SOL    HW114241   9.660   2.921   6.824  0.0411 -1.6242  1.4732
35091SOL    HW214242   9.551   2.887   6.923 -1.3486  0.0091  0.5643
35092SOL     OW14243   1.778  11.528  12.214 -0.1412  0.0850  0.0823
35092SOL    HW114244   1.848  11.541  12.279 -0.0244 -0.3983  0.0560
35092SOL    HW214245   1.698  11.548  12.262 -0.1706 -1.6128  0.7866
35093SOL     OW14246   2.241  12.393   1.052 -0.1798 -0.2682  0.0606
35093SOL    HW114247   2.212  12.403   0.962 -0.4244 -0.7807  0.0814
35093SOL    HW214248   2.182  12.328   1.090  0.1713 -0.3492  0.4775
35094SOL     OW14249   0.899   6.747   6.400 -0.4114  0.1836 -0.4953
35094SOL    HW114250   0.850   6.671   6.432  3.5320 -2.1318  0.7754
35094SOL    HW214251   0.922   6.796   6.479  1.2906 -0.1735 -0.7334
35095SOL     OW14252   8.545   1.678   2.427  0.1451  0.1107  0.5214
35095SOL    HW114253   8.557   1.709   2.517 -0.9734  1.5912  0.2023
35095SOL    HW214254   8.477   1.611   2.434  1.1305 -0.8758  0.9513
35096SOL     OW14255  10.594   1.268   9.834 -0.4943 -0.2129 -0.3686
35096SOL    HW114256  10.532   1.323   9.882 -1.5540 -0.9161 -0.9005
35096SOL    HW214257  10.540   1.220   9.771  0.9341  1.3041 -2.9204
35097SOL     OW14258   3.986   6.349  12.214  0.2288 -0.1904  0.5882
35097SOL    HW114259   4.049   6.343  12.286  0.2859 -0.9930  0.4792
35097SOL    HW214260   4.017   6.424  12.162  1.4332 -0.9008  0.2268
35098SOL     OW14261  10.235  11.030   7.803  0.4201  0.4835 -0.7815
35098SOL    HW114262  10.300  11.065   7.865  0.5305 -1.1567  0.0753
35098SOL    HW214263  10.234  11.094   7.732  1.1811  1.8092  0.3307
35099SOL     OW14264   0.431   2.797   4.970  0.2639  0.0812 -0.2252
35099SOL    HW114265   0.517   2.763   4.994  0.2257 -0.6996 -1.1007
35099SOL    HW214266   0.411   2.753   4.887 -1.0349  0.1628  0.0312
35100SOL     OW14267   5.026   7.003   1.525 -0.8150 -0.4169 -0.1805
35100SOL    HW114268   4.975   7.082   1.543  0.2044  0.3608 -0.6436
35100SOL    HW214269   5.094   7.031   1.464 -0.5749 -1.7095 -0.5339
35101SOL     OW14270   1.104  10.846  11.135  0.0160 -0.1066  0.2299
35101SOL    HW114271   1.085  10.835  11.228  0.0942  0.1008  0.2705
35101SOL    HW214272   1.191  10.887  11.133  0.2510 -0.6115  0.0523
35102SOL     OW14273  10.664   0.089   2.528  0.5471  0.5738  0.2287
35102SOL    HW114274  10.756   0.108   2.510  0.3553  0.5055 -0.9238
35102SOL    HW214275  10.625   0.174   2.547  0.1706  1.1730 -2.6582
35103SOL     OW14276   0.085   7.210  11.156 -0.2165  0.4115  0.0743
35103SOL    HW114277   0.168   7.165  11.143  1.0219  2.2737  1.1915
35103SOL    HW214278   0.030   7.146  11.202  0.9768 -0.4296  0.3780
35104SOL     OW14279  12.596   5.306   7.779 -0.0120 -0.0456  0.1548
35104SOL    HW114280  12.595   5.314   7.875  0.1067  1.0165  0.0848
35104SOL    HW214281  12.580   5.213   7.762  0.0283 -0.2578  1.2067
35105SOL     OW14282   5.424   7.630   2.178 -0.3075  0.2903 -0.2005
35105SOL    HW114283   5.463   7.570   2.241  0.1361  0.4237 -0.3357
35105SOL    HW214284   5.397   7.706   2.230 -4.0910 -1.3774  0.5644
35106SOL     OW14285   4.691  12.377   6.981  0.3920  0.3079  0.3624
35106SOL    HW114286   4.614  12.369   6.925 -0.8162  1.6417  1.7241
35106SOL    HW214287   4.657  12.367   7.070  2.0443 -0.5012  0.9635
35107SOL     OW14288   1.490   3.270   0.026  0.3871  0.1225  0.1327
35107SOL    HW114289   1.406   3.225   0.014 -0.5871  1.7613  0.4408
35107SOL    HW214290   1.468   3.345   0.080  2.1181  0.4777  0.3744
35108SOL     OW14291   8.494   0.313   1.326  0.7331 -0.1091 -0.1565
35108SOL    HW114292   8.501   0.307   1.422  2.6597  2.2883 -0.0568
35108SOL    HW214293   8.425   0.251   1.304 -1.8690  1.2810  3.0731
35109SOL     OW14294   4.910   5.041   6.996  0.2761  0.1328 -0.4309
35109SOL    HW114295   4.948   5.099   7.063 -1.0683 -0.0661  0.5330
35109SOL    HW214296   4.983   5.024   6.935  1.2480  1.1498  0.4055
35110SOL     OW14297  12.180   7.120  10.095  0.1911  0.2320  1.0201
35110SOL    HW114298  12.119   7.191  10.116 -1.3030  0.1177 -2.3896
35110SOL    HW214299  12.137   7.072  10.025  2.9909 -1.6326  0.4651
35111SOL     OW14300   1.784   3.277  10.086 -0.0986 -0.1162  0.1228
35111SOL    HW114301   1.696   3.247  10.064  0.0169 -0.4689  0.1416
35111SOL    HW214302   1.773   3.326  10.168 -0.7153  2.1344 -1.2147
35112SOL     OW14303  11.825   9.755  12.587  0.5289 -0.5269  0.3233
35112SOL    HW114304  11.876   9.714  12.517  2.4997 -0.8619  1.8788
35112SOL    HW214305  11.835   9.697  12.662 -1.2567 -0.0069  1.0204
35113SOL     OW14306   4.401   9.509   3.042  0.1926  0.2696 -0.4991
35113SOL    HW114307   4.312   9.505   3.075  0.6709 -2.5635  0.7642
35113SOL    HW214308   4.401   9.450   2.966  0.9708  0.2393 -0.4851
35114SOL     OW14309   6.808   3.184  10.284  0.5383  0.3810  0.1061
35114SOL    HW114310   6.749   3.246  10.241  0.7570 -0.4267 -1.4551
35114SOL    HW214311   6.835   3.125  10.214 -0.7911 -2.3980  1.7655
35115SOL     OW14312  12.054   4.798   3.562  0.2736 -0.1999 -0.0089
35115SOL    HW114313  12.120   4.771   3.498  1.1139  2.0904 -0.2092
35115SOL    HW214314  11.983   4.834   3.508 -0.0190 -0.3370  0.2839
35116SOL     OW14315   6.530   6.854   7.408  0.4686 -0.8438 -0.1837
35116SOL    HW114316   6.513   6.790   7.338 -1.1157 -0.9366  0.2314
35116SOL    HW214317   6.529   6.939   7.363 -0.2062 -0.9280 -0.3492
35117SOL     OW14318   4.389   9.623  11.466 -0.2293  0.4368  0.0072
35117SOL    HW114319   4.429   9.604  11.380  0.2190  0.2699  0.2461
35117SOL    HW214320   4.319   9.685  11.447  1.6505  2.6401 -0.1499
35118SOL     OW14321  10.526   4.486   4.569  0.4897  0.1582 -0.3380
35118SOL    HW114322  10.510   4.572   4.529  1.4238  0.5283  0.0593
35118SOL    HW214323  10.598   4.449   4.518  1.2020  0.3274  0.5206
35119SOL     OW14324   0.027  11.806   3.662 -0.4688 -0.0393  0.4678
35119SOL    HW114325  -0.063  11.807   3.629 -0.5939  0.6681  0.8273
35119SOL    HW214326   0.035  11.886   3.713  0.5613  0.2156 -0.0763
35120SOL     OW14327   4.773  11.736   8.573 -0.0223 -0.1522  0.2545
35120SOL    HW114328   4.787  11.799   8.644  1.4165  0.1942 -0.3070
35120SOL    HW214329   4.840  11.669   8.587  0.2305 -0.1185 -0.7218
35121SOL     OW14330  10.275   7.273  10.493  0.1372  0.1086 -0.0021
35121SOL    HW114331  10.193   7.231  10.465  0.3502  0.2161 -0.7917
35121SOL    HW214332  10.338   7.201  10.499 -0.2726 -0.1591  1.7055
35122SOL     OW14333  11.504   8.160  11.440  0.2985  0.1671  0.1889
35122SOL    HW114334  11.474   8.214  11.367  0.1090 -0.2407 -0.0411
35122SOL    HW214335  11.593   8.135  11.416  0.6563  0.9692  0.6389
35123SOL     OW14336  11.136  11.676  11.034 -0.0290 -0.3439 -0.6870
35123SOL    HW114337  11.164  11.767  11.021 -2.4955  0.3556 -1.6859
35123SOL    HW214338  11.137  11.637  10.947 -1.3243 -0.5253 -0.6303
35124SOL     OW14339  12.413  12.390  10.981 -0.0497  0.2767  0.2056
35124SOL    HW114340  12.461  12.318  11.021 -0.5919 -0.0663  0.2469
35124SOL    HW214341  12.331  12.394  11.030 -0.1557  0.7198 -0.0044
35125SOL     OW14342   8.178   1.890   3.378  0.8764 -0.0085  0.5101
35125SOL    HW114343   8.185   1.972   3.426 -0.6793 -0.8431  2.2527
35125SOL    HW214344   8.118   1.836   3.430  1.0337 -1.8678 -1.1249
35126SOL     OW14345   0.127   7.160   1.408 -0.1098  0.0052 -0.1311
35126SOL    HW114346   0.188   7.089   1.391 -0.0268  0.1387 -0.3923
35126SOL    HW214347   0.152   7.193   1.495  2.3010  2.1632 -1.5250
35127SOL     OW14348   2.493  12.040   3.451  0.5601  0.5840 -0.2043
35127SOL    HW114349   2.540  11.990   3.518 -1.6033  0.3082  1.2136
35127SOL    HW214350   2.434  11.976   3.411 -0.3724  1.4116 -0.1857
35128SOL     OW14351  12.298   0.603   3.717 -0.4267 -0.0636  0.1228
35128SOL    HW114352  12.334   0.602   3.806  0.9355 -2.5424 -0.3745
35128SOL    HW214353  12.281   0.696   3.700  0.2110  0.5967  2.5763
35129SOL     OW14354   5.519   0.940   5.352  0.6992 -0.4110 -0.2937
35129SOL    HW114355   5.559   0.974   5.432 -0.1785 -0.2117  0.0755
35129SOL    HW214356   5.511   0.846   5.367  0.3665 -0.3493 -0.0573
35130SOL     OW14357   8.892   9.372   5.443 -0.4221 -0.6140 -0.2084
35130SOL    HW114358   8.906   9.318   5.365  0.2273  0.0815 -0.5899
35130SOL    HW214359   8.980   9.394   5.473 -0.6765 -0.1416  0.1997
35131SOL     OW14360   2.635   5.961   8.837 -0.1147 -0.1285 -0.2532
35131SOL    HW114361   2.723   5.958   8.799 -0.4529  1.3902 -1.2310
35131SOL    HW214362   2.582   6.008   8.772 -1.6315 -0.9201  0.3624
35132SOL     OW14363   5.362   3.556  11.365 -0.0721  0.2897  0.2981
35132SOL    HW114364   5.442   3.509  11.388 -1.4325 -1.8387  0.9378
35132SOL    HW214365   5.356   3.546  11.270  1.1505  1.7645  0.0287
35133SOL     OW14366  10.179   5.617   5.506 -0.1605  0.3603 -0.2168
35133SOL    HW114367  10.209   5.557   5.437  0.5982  0.0768  0.3383
35133SOL    HW214368  10.084   5.617   5.498 -0.2531 -1.6008  0.2987
35134SOL     OW14369   1.769   3.158   9.281  0.1331  0.0006  0.2946
35134SOL    HW114370   1.748   3.251   9.295 -0.6696 -0.1377  0.0476
35134SOL    HW214371   1.767   3.147   9.186  0.3995 -0.2352  0.3148
35135SOL     OW14372   1.555   1.109   7.242 -0.0349  0.1382  1.1822
35135SOL    HW114373   1.544   1.190   7.291  0.2955  0.6072  0.4966
35135SOL    HW214374   1.633   1.068   7.280 -1.5104 -1.0647  3.1379
35136SOL     OW14375   1.834   4.344   2.615 -0.2100 -0.0604 -0.3918
35136SOL    HW114376   1.872   4.377   2.534 -2.1338  0.2656 -1.2281
35136SOL    HW214377   1.782   4.417   2.649 -1.7737 -1.0812 -0.4508
35137SOL     OW14378   3.121   7.919   5.235  0.2375  0.1429  0.0769
35137SOL    HW114379   3.171   7.988   5.278  0.4530 -0.3080  0.5640
35137SOL    HW214380   3.180   7.885   5.168  0.3070  0.1133  0.1528
35138SOL     OW14381   9.371   4.797   6.686 -0.2984 -0.1535  0.3594
35138SOL    HW114382   9.350   4.705   6.697 -1.0552 -0.1259 -0.7346
35138SOL    HW214383   9.375   4.810   6.591 -0.5902  1.0165  0.4905
35139SOL     OW14384   8.068  11.261   1.681 -0.2445 -0.4609 -0.3368
35139SOL    HW114385   8.152  11.227   1.652 -0.0530 -0.6129  0.3732
35139SOL    HW214386   8.074  11.356   1.666 -0.5376 -0.6445 -1.7103
35140SOL     OW14387   5.264   2.468   3.964 -0.5532  0.2995  0.0773
35140SOL    HW114388   5.235   2.442   3.876 -1.3891  1.8470 -0.1274
35140SOL    HW214389   5.298   2.387   4.002 -1.0257 -0.6051 -1.3326
35141SOL     OW14390   2.568   4.895  12.013 -0.4458 -0.0115  0.3447
35141SOL    HW114391   2.559   4.841  12.091  0.8632 -0.4799  0.2009
35141SOL    HW214392   2.536   4.981  12.039  0.2241 -0.0967  1.4854
35142SOL     OW14393  10.492   7.587   1.857  0.1614 -0.6755 -0.4132
35142SOL    HW114394  10.535   7.502   1.845 -1.7113 -1.5689 -1.2148
35142SOL    HW214395  10.439   7.576   1.936 -0.7413 -0.5637 -0.9897
35143SOL     OW14396   6.698   3.586   1.461  0.6947 -0.0096  0.4599
35143SOL    HW114397   6.662   3.604   1.548  0.5561  0.3629  0.3277
35143SOL    HW214398   6.781   3.541   1.478 -0.4798 -2.2297  0.7734
35144SOL     OW14399  12.432   9.346   7.616 -0.0684  0.5745  0.5663
35144SOL    HW114400  12.380   9.340   7.696 -0.9608  1.5131  0.0763
35144SOL    HW214401  12.506   9.286   7.631 -1.1455 -0.6093  1.3819
35145SOL     OW14402   6.388  12.176   6.592  0.1383 -0.1341  0.8150
35145SOL    HW114403   6.441  12.200   6.517 -0.8639 -0.2144  0.0584
35145SOL    HW214404   6.428  12.096   6.626  0.1911 -0.4846 -0.0593
35146SOL     OW14405   3.991  11.308   6.143  0.8165 -0.2990  0.4253
35146SOL    HW114406   3.992  11.264   6.228  0.0225 -2.5421 -0.6273
35146SOL    HW214407   4.051  11.256   6.089 -0.0133  0.0077 -0.8459
35147SOL     OW14408  11.244   9.232   1.302  0.1253 -0.2066 -0.1938
35147SOL    HW114409  11.271   9.158   1.356 -0.7307 -0.3393  0.0627
35147SOL    HW214410  11.231   9.194   1.215  0.9200 -0.1049 -0.3687
35148SOL     OW14411   7.406  10.638   1.598 -0.4641  0.2470 -0.0265
35148SOL    HW114412   7.439  10.694   1.528  0.6389  1.2672  1.2602
35148SOL    HW214413   7.324  10.679   1.625 -0.7774 -0.0219 -0.5424
35149SOL     OW14414  10.694  11.964   2.920 -0.2518 -0.1202  0.1314
35149SOL    HW114415  10.717  11.898   2.985  0.5283 -0.0358 -0.0598
35149SOL    HW214416  10.652  12.033   2.971 -0.6182 -0.5317  0.3991
35150SOL     OW14417  11.701   0.347   6.468  0.2083 -1.0432  0.0032
35150SOL    HW114418  11.758   0.285   6.422  0.0681 -1.5603  0.5149
35150SOL    HW214419  11.672   0.408   6.400  2.7079  0.2849 -0.0184
35151SOL     OW14420  12.326   1.816   7.902  0.2352  0.2425  0.4847
35151SOL    HW114421  12.344   1.769   7.820  1.7365 -0.8103  1.3569
35151SOL    HW214422  12.356   1.905   7.884 -1.6004  0.6523 -0.8295
35152SOL     OW14423   5.065  11.885   8.034 -0.3073 -0.1709  0.0825
35152SOL    HW114424   5.126  11.941   7.985  1.0349 -1.4577  0.2214
35152SOL    HW214425   4.991  11.943   8.053 -0.6060  0.5936 -2.8334
35153SOL     OW14426   3.475   2.768   0.765 -0.2705 -0.2689 -0.2846
35153SOL    HW114427   3.547   2.766   0.702 -1.1756 -0.4268 -1.3274
35153SOL    HW214428   3.493   2.846   0.818  0.9343 -0.5865 -0.2055
35154SOL     OW14429   2.041   9.720  10.111  0.9842  0.0415  0.1992
35154SOL    HW114430   1.978   9.669  10.162  0.5611  0.9917  0.6571
35154SOL    HW214431   2.013   9.709  10.020  0.6238 -0.1754  0.3316
35155SOL     OW14432   0.322   0.920   7.137  0.2009  0.4004  0.5109
35155SOL    HW114433   0.402   0.937   7.187  0.0201  0.0942  0.9053
35155SOL    HW214434   0.310   0.999   7.083 -0.9511  1.8240  2.7191
35156SOL     OW14435   1.248   0.216   8.442 -0.2761 -0.2547 -0.6164
35156SOL    HW114436   1.201   0.297   8.419  1.2639  0.3877 -1.6649
35156SOL    HW214437   1.289   0.189   8.360  0.5622 -1.2072  0.1008
35157SOL     OW14438  10.600   7.307  11.366  0.1485  0.2058  0.2523
35157SOL    HW114439  10.596   7.212  11.357  2.8468  0.2203 -3.7327
35157SOL    HW214440  10.638   7.321  11.453  0.4469 -2.3879  0.6211
35158SOL     OW14441   6.669   5.901   3.748 -0.3538 -0.3755  0.1369
35158SOL    HW114442   6.664   5.807   3.762 -2.9985 -0.1891  1.0466
35158SOL    HW214443   6.689   5.937   3.834  0.0767 -0.0849 -0.0847
35159SOL     OW14444   3.200  11.235   2.269 -0.3582  0.6855  0.2652
35159SOL    HW114445   3.232  11.145   2.265 -0.7157  0.5515  0.4169
35159SOL    HW214446   3.258  11.278   2.332  0.8721  1.0044 -1.0410
35160SOL     OW14447   7.526  10.054   6.729  0.5020 -0.0856  0.2531
35160SOL    HW114448   7.592  10.121   6.712 -0.0872  0.4363 -0.0444
35160SOL    HW214449   7.446  10.104   6.748 -0.3895 -0.6731 -1.7224
35161SOL     OW14450   1.598  10.231  12.278  0.0828  0.1446 -0.0371
35161SOL    HW114451   1.545  10.162  12.238  0.5761  0.3872 -1.1553
35161SOL    HW214452   1.667  10.183  12.325 -2.2096 -0.2831  3.2889
35162SOL     OW14453   9.077  11.591   4.671 -0.1557 -0.0589 -0.7148
35162SOL    HW114454   8.998  11.536   4.663 -1.2672  1.4027 -0.1476
35162SOL    HW214455   9.044  11.681   4.672  1.4232  0.5562  0.7155
35163SOL     OW14456   4.219  11.480   0.444  0.0316  0.1117  0.3825
35163SOL    HW114457   4.156  11.423   0.488 -0.5814  1.3125  1.1222
35163SOL    HW214458   4.286  11.421   0.410 -1.5887 -1.2207 -0.5941
35164SOL     OW14459   9.111  11.633   3.855  0.5705 -0.0257  0.5087
35164SOL    HW114460   9.152  11.577   3.789 -0.8144  2.4988 -2.7836
35164SOL    HW214461   9.023  11.597   3.865  0.3819  0.2981  0.0302
35165SOL     OW14462  10.505   6.411   6.797  0.1173  0.6337  0.4850
35165SOL    HW114463  10.563   6.358   6.852  1.8456  1.4442 -0.4782
35165SOL    HW214464  10.422   6.412   6.845  1.3584  0.8031  2.7968
35166SOL     OW14465   0.400   8.346   2.487  0.4732 -0.2695  0.0043
35166SOL    HW114466   0.383   8.303   2.571 -1.1169  1.1079  0.4386
35166SOL    HW214467   0.358   8.432   2.495 -1.0766 -0.6635 -2.7149
35167SOL     OW14468   6.192   6.082  11.464 -0.3362  0.7715  0.3582
35167SOL    HW114469   6.157   6.031  11.392  0.5398 -0.4405  0.7634
35167SOL    HW214470   6.120   6.088  11.527  0.3673 -2.5763  1.6587
35168SOL     OW14471   0.172   1.715   0.262  0.2595  0.3547  0.4281
35168SOL    HW114472   0.115   1.787   0.233 -0.0516 -0.5013 -1.1745
35168SOL    HW214473   0.158   1.645   0.199  2.6939 -0.0999  0.2670
35169SOL     OW14474  10.561  10.657   5.952  0.4921 -0.1891  0.1970
35169SOL    HW114475  10.523  10.571   5.935  1.5644 -0.4447 -1.1574
35169SOL    HW214476  10.493  10.719   5.925  0.2359 -0.6252 -0.1829
35170SOL     OW14477  11.311   3.139   4.010  0.3044  0.1556 -0.0371
35170SOL    HW114478  11.335   3.051   3.981  0.0885  0.5612 -1.5584
35170SOL    HW214479  11.260   3.175   3.937  1.4845  2.0035 -0.0212
35171SOL     OW14480  10.096   9.331   8.132 -0.3558  0.0367 -0.0243
35171SOL    HW114481  10.029   9.358   8.195 -0.6046 -0.7530  0.0613
35171SOL    HW214482  10.047   9.295   8.058 -0.0703  1.2406 -0.8234
35172SOL     OW14483   7.189   1.213   2.260  0.3915 -0.3174 -0.1875
35172SOL    HW114484   7.185   1.305   2.233  1.6046 -0.1138  0.2720
35172SOL    HW214485   7.100   1.180   2.246  0.1612  0.6771 -1.2076
35173SOL     OW14486   2.117   6.831   1.744  0.0012 -0.0151 -0.0528
35173SOL    HW114487   2.118   6.762   1.810 -0.9193  0.2183  0.2106
35173SOL    HW214488   2.205   6.868   1.747  1.3484 -2.7681 -1.9149
35174SOL     OW14489   7.848  11.630   5.700 -0.2437 -1.0606 -0.6627
35174SOL    HW114490   7.910  11.562   5.674 -0.6893 -1.7255 -0.0210
35174SOL    HW214491   7.834  11.681   5.620 -0.4753 -2.1825 -1.3568
35175SOL     OW14492  10.065   7.040   6.722  0.1349  0.2587 -0.4566
35175SOL    HW114493  10.076   6.987   6.643 -0.2225  1.2162 -1.1701
35175SOL    HW214494   9.989   7.095   6.704 -0.9408 -0.6024  1.1895
35176SOL     OW14495   0.654   7.878  11.258  0.3182  0.1603 -0.2119
35176SOL    HW114496   0.607   7.956  11.228 -0.0192 -0.3175 -0.9378
35176SOL    HW214497   0.592   7.807  11.249  0.8718 -0.3230 -0.2751
35177SOL     OW14498   9.250   4.207   5.589  0.2063 -0.0175 -0.0559
35177SOL    HW114499   9.171   4.154   5.576  0.0152  0.4209 -0.7483
35177SOL    HW214500   9.223   4.274   5.652  0.1631 -0.1495  0.0669
35178SOL     OW14501   4.212   7.242   9.801  0.4796  0.0993 -0.4996
35178SOL    HW114502   4.119   7.253   9.823  1.0058  1.9628  1.0242
35178SOL    HW214503   4.211   7.198   9.716 -1.7978  0.2043 -0.5917
35179SOL     OW14504   6.023   0.814   3.222 -0.3067  0.0567  0.4906
35179SOL    HW114505   6.055   0.739   3.273 -0.1934 -0.6484 -0.5838
35179SOL    HW214506   6.055   0.797   3.133 -1.2396  0.8157  0.0029
35180SOL     OW14507  11.970   7.732   5.188  0.6763  0.1921 -0.4072
35180SOL    HW114508  11.911   7.658   5.172 -0.7249  1.3532 -0.7994
35180SOL    HW214509  12.030   7.730   5.113  0.4346 -0.3462 -0.5980
35181SOL     OW14510   9.552   6.952   2.354 -0.2224 -0.3862  0.1259
35181SOL    HW114511   9.494   6.938   2.429 -1.1992  2.4661  0.0320
35181SOL    HW214512   9.638   6.966   2.393 -0.7989  1.5235  0.8608
35182SOL     OW14513  11.196   0.755   7.553  0.3346  0.0022  0.1756
35182SOL    HW114514  11.113   0.737   7.508  0.8169 -2.1956  0.0345
35182SOL    HW214515  11.177   0.737   7.645  0.8814 -1.5820  0.0099
35183SOL     OW14516   6.207   4.928   0.867  0.1047  0.1787  0.1078
35183SOL    HW114517   6.219   4.835   0.883  1.2796  0.5636  1.7202
35183SOL    HW214518   6.115   4.937   0.844 -0.0956 -1.3345  0.2459
35184SOL     OW14519  12.339   8.501  12.314  0.2490 -0.4760  0.7802
35184SOL    HW114520  12.381   8.522  12.231 -1.7680  0.9965  0.0634
35184SOL    HW214521  12.357   8.577  12.370 -0.9720 -0.0672  0.6370
35185SOL     OW14522   5.546  11.318   2.171 -0.4611 -0.3206  0.1412
35185SOL    HW114523   5.509  11.294   2.086  0.4110 -1.4116  0.0604
35185SOL    HW214524   5.509  11.405   2.189 -0.8498 -0.1835 -1.2256
35186SOL     OW14525   5.204   9.822   6.686 -0.2864 -0.6250  0.3883
35186SOL    HW114526   5.169   9.809   6.598 -1.6271  0.9088  0.6634
35186SOL    HW214527   5.271   9.890   6.675  1.7419 -2.5251  0.1151
35187SOL     OW14528   7.781   3.235   0.216  0.2150 -0.8127  0.3277
35187SOL    HW114529   7.832   3.315   0.228 -0.2038 -0.6057  0.7218
35187SOL    HW214530   7.759   3.207   0.305 -0.9160 -0.5421  0.1439
35188SOL     OW14531  11.965   2.335   1.900  0.3241  0.3374  0.3898
35188SOL    HW114532  11.961   2.416   1.848  5.1453  0.2732 -0.6132
35188SOL    HW214533  11.988   2.267   1.836  2.2673 -0.5848  1.9733
35189SOL     OW14534   7.873   6.031   3.214  0.5510  0.1074 -0.1914
35189SOL    HW114535   7.799   6.019   3.154 -0.1348 -0.3091  0.7332
35189SOL    HW214536   7.835   6.068   3.293  1.6277  1.8421 -0.4230
35190SOL     OW14537   5.914   5.807   6.926  0.1453  0.1110  0.0210
35190SOL    HW114538   5.848   5.872   6.949  0.2362  0.1762  0.0962
35190SOL    HW214539   5.876   5.723   6.952 -1.2138 -0.2014 -2.6304
35191SOL     OW14540   3.180   9.429   2.993  0.1150 -0.6761 -0.2549
35191SOL    HW114541   3.241   9.357   3.011 -0.4759 -1.0832  0.1338
35191SOL    HW214542   3.136   9.445   3.076  0.7447  0.6316 -0.1425
35192SOL     OW14543  10.433   7.111   9.113  0.0551 -0.8804 -0.0756
35192SOL    HW114544  10.465   7.158   9.189  1.0284 -0.5952 -0.6396
35192SOL    HW214545  10.338   7.106   9.125 -0.1033  1.3378 -0.0539
35193SOL     OW14546   0.784   8.527   1.249 -0.0796 -0.2675  0.1015
35193SOL    HW114547   0.748   8.596   1.304 -0.1216 -1.5303  1.7324
35193SOL    HW214548   0.708   8.476   1.221  0.1138 -0.8304  0.5818
35194SOL     OW14549   5.143  11.465   8.379  0.0351 -0.1609  0.1456
35194SOL    HW114550   5.119  11.530   8.445  0.3812 -1.4400  1.5743
35194SOL    HW214551   5.108  11.500   8.297  0.3178  1.8804  0.8339
35195SOL     OW14552  11.057   1.674   9.274 -0.1584  0.2825 -0.5166
35195SOL    HW114553  10.991   1.643   9.337  1.0878  1.1033  1.2579
35195SOL    HW214554  11.005   1.710   9.202 -1.6455 -1.8715 -0.6443
35196SOL     OW14555   0.497   8.096   1.434  0.5325 -0.2392  0.1321
35196SOL    HW114556   0.412   8.129   1.405 -1.0147 -1.8580  2.5188
35196SOL    HW214557   0.526   8.040   1.362 -1.2263 -0.9309 -0.1070
35197SOL     OW14558   6.565  11.101   3.530 -0.2523 -0.5001 -0.6038
35197SOL    HW114559   6.593  11.057   3.450 -1.9673 -0.1214 -1.4604
35197SOL    HW214560   6.487  11.150   3.504 -0.5243  0.0713  1.1811
35198SOL     OW14561   4.677   9.478   8.508  0.6088 -0.3935  0.4882
35198SOL    HW114562   4.685   9.568   8.539  1.5171 -0.0769 -0.6234
35198SOL    HW214563   4.608   9.440   8.563  1.4072  0.4521  2.1540
35199SOL     OW14564   1.248   4.459   9.559 -0.4608 -0.6493 -0.4657
35199SOL    HW114565   1.216   4.488   9.644 -1.2944  2.1078 -1.6094
35199SOL    HW214566   1.176   4.407   9.522 -0.9427 -0.0893 -0.3233
35200SOL     OW14567  12.215   8.824   0.013  0.7247 -0.1933  0.2356
35200SOL    HW114568  12.135   8.772   0.017  1.2188 -0.9211  3.2686
35200SOL    HW214569  12.269   8.780  -0.053 -1.2367  0.2434 -1.7803
35201SOL     OW14570   9.231   5.061   7.370  0.1969 -0.0281  0.0516
35201SOL    HW114571   9.211   5.069   7.277  0.9555 -0.5112 -0.1649
35201SOL    HW214572   9.180   4.987   7.400  0.5767 -0.3849 -0.1740
35202SOL     OW14573  10.072   3.339  10.533  0.3021  0.2560 -0.2330
35202SOL    HW114574  10.153   3.361  10.488  1.8881 -1.6447  1.5286
35202SOL    HW214575  10.070   3.397  10.610 -0.8421  1.3612 -1.0520
35203SOL     OW14576   7.326   2.886  11.340  0.0880 -0.0366 -0.1641
35203SOL    HW114577   7.361   2.931  11.263  1.6478  0.1185  0.5909
35203SOL    HW214578   7.385   2.813  11.355  0.3951  0.4752  1.4061
35204SOL     OW14579   1.827   7.389   4.817 -0.0242 -0.3663 -0.5188
35204SOL    HW114580   1.748   7.368   4.867  0.8849 -1.9406  0.3317
35204SOL    HW214581   1.892   7.412   4.883 -0.0868  2.2904 -1.2707
35205SOL     OW14582  10.297   1.316   9.583  0.2204  0.4635 -0.1911
35205SOL    HW114583  10.378   1.354   9.547 -0.4108  1.3668 -0.6853
35205SOL    HW214584  10.316   1.222   9.588  1.8288  0.8099  1.1031
35206SOL     OW14585  11.336   7.767   5.018 -0.3790 -0.2173  0.3683
35206SOL    HW114586  11.246   7.789   5.040 -1.1787 -1.6667 -1.2459
35206SOL    HW214587  11.347   7.796   4.928 -0.6186 -3.5973 -0.9012
35207SOL     OW14588   5.671   0.423  10.712 -0.0434 -0.4379  0.6846
35207SOL    HW114589   5.621   0.412  10.794 -2.3947  1.2846 -0.3824
35207SOL    HW214590   5.760   0.395  10.734 -0.7557 -0.7684  3.5981
35208SOL     OW14591   9.171   5.781   9.090  0.4535  0.1704 -0.0777
35208SOL    HW114592   9.102   5.810   9.030  0.9981 -0.2980 -0.9630
35208SOL    HW214593   9.228   5.858   9.099  0.0051  0.4551  0.3965
35209SOL     OW14594   9.556  11.110   6.009 -0.1211 -0.1189  0.5832
35209SOL    HW114595   9.605  11.186   6.040 -1.2511  0.2436  1.5764
35209SOL    HW214596   9.604  11.035   6.043 -0.5788  0.2429  2.1239
35210SOL     OW14597  10.819  11.572   7.967 -0.1071 -0.1324  0.2841
35210SOL    HW114598  10.790  11.546   8.054  1.2789 -2.2648  0.1802
35210SOL    HW214599  10.885  11.507   7.943  0.6561  1.2775 -1.7446
35211SOL     OW14600   5.466  10.229   0.313 -0.1510  0.0175  0.2341
35211SOL    HW114601   5.416  10.207   0.392 -0.4270  1.6604  0.5587
35211SOL    HW214602   5.400  10.233   0.244 -0.1366  0.0427  0.2217
35212SOL     OW14603   7.037   2.364   4.110  0.1493  0.1919  0.1976
35212SOL    HW114604   7.008   2.452   4.135 -0.1954  0.0765  0.2071
35212SOL    HW214605   7.009   2.308   4.182 -1.6039 -0.2864 -0.7789
35213SOL     OW14606   4.626   6.729  12.525  0.2953 -1.0026 -0.2785
35213SOL    HW114607   4.695   6.708  12.587 -0.2791 -4.2585 -0.5584
35213SOL    HW214608   4.669   6.730  12.439  0.8334  2.1508 -0.0880
35214SOL     OW14609   6.582  11.977   0.665  0.4850  0.0199 -0.4265
35214SOL    HW114610   6.674  11.985   0.637  0.4483 -0.1134 -0.5881
35214SOL    HW214611   6.546  12.065   0.656  0.3782 -0.0935 -1.1454
35215SOL     OW14612   3.690   4.508   2.364 -0.2363  0.4046  0.4996
35215SOL    HW114613   3.691   4.475   2.454  0.5498 -0.6742  0.1096
35215SOL    HW214614   3.749   4.584   2.366  0.0676  0.1630  0.8146
35216SOL     OW14615   6.970   8.199   0.868 -0.4409 -0.1265  0.3333
35216SOL    HW114616   7.033   8.257   0.912  0.5295 -0.7817 -0.1526
35216SOL    HW214617   6.944   8.248   0.790  0.6016 -0.4398 -0.2320
35217SOL     OW14618   1.398   7.403   9.348  0.3375  0.1410  0.3176
35217SOL    HW114619   1.472   7.350   9.318  1.0452 -0.1178  2.3366
35217SOL    HW214620   1.323   7.369   9.300  1.0560 -1.5631  0.3281
35218SOL     OW14621  12.052   8.816   7.557 -0.0908 -0.4920  0.0610
35218SOL    HW114622  11.977   8.874   7.574  2.5714  2.9848  1.2211
35218SOL    HW214623  12.053   8.805   7.462 -1.1722  0.7095 -0.1175
35219SOL     OW14624   8.574   3.636  10.042 -0.3057  0.4467 -0.1870
35219SOL    HW114625   8.491   3.590  10.051  0.1317 -0.2740  0.3032
35219SOL    HW214626   8.611   3.604   9.959 -0.4053  0.5918 -0.2887
35220SOL     OW14627   3.661   1.864   7.718 -0.2981 -0.2559 -0.2754
35220SOL    HW114628   3.574   1.829   7.736 -0.2054  0.2073  1.1735
35220SOL    HW214629   3.647   1.958   7.704  0.0379 -0.0598  0.6369
35221SOL     OW14630   6.045   2.418  10.958 -0.2661  0.0912  0.1393
35221SOL    HW114631   6.122   2.361  10.965  1.2001  2.1167  1.2774
35221SOL    HW214632   5.980   2.376  11.014  0.6579 -0.6724  0.6738
35222SOL     OW14633   2.561   8.124   2.170 -0.3459  0.3109  0.1224
35222SOL    HW114634   2.510   8.062   2.222 -0.1908  1.3546  1.5664
35222SOL    HW214635   2.507   8.138   2.091 -1.4598  0.0671  0.8156
35223SOL     OW14636   8.621   4.561   3.173 -0.1924  0.1638  0.2739
35223SOL    HW114637   8.611   4.505   3.096 -0.4958  0.2117  0.2779
35223SOL    HW214638   8.703   4.608   3.157  1.5538 -2.2521  1.5325
35224SOL     OW14639   3.499   2.629  12.199 -0.1247  0.4983 -0.6302
35224SOL    HW114640   3.492   2.535  12.181 -1.5011  0.6591 -1.0154
35224SOL    HW214641   3.498   2.634  12.295 -0.2096  0.1395 -0.6085
35225SOL     OW14642   6.714   3.187   0.698  0.0491  0.4063 -0.4479
35225SOL    HW114643   6.807   3.208   0.700 -0.0230  0.7004  0.8355
35225SOL    HW214644   6.709   3.097   0.728 -0.1767  0.9441  1.2820
35226SOL     OW14645   9.967   1.773  10.853  0.1304 -0.0243  0.2657
35226SOL    HW114646   9.908   1.848  10.857  0.0008 -0.1298  0.3874
35226SOL    HW214647  10.049   1.807  10.817  0.1379  0.2153  0.5144
35227SOL     OW14648  12.178  11.423  11.703  0.2117  0.1002  0.0152
35227SOL    HW114649  12.222  11.352  11.656  0.9397 -0.3029  1.2485
35227SOL    HW214650  12.146  11.482  11.634  1.9093 -0.0582 -0.9703
35228SOL     OW14651  10.177   5.442  11.991  0.2666 -0.0407 -0.5938
35228SOL    HW114652  10.232   5.372  12.027  1.2996  1.2185  0.3744
35228SOL    HW214653  10.141   5.405  11.910  1.9418 -1.2007 -0.8579
35229SOL     OW14654   3.271  11.275   3.661 -0.6008 -0.2280 -0.0735
35229SOL    HW114655   3.230  11.359   3.681 -2.1764 -1.3051  1.4215
35229SOL    HW214656   3.319  11.252   3.741  0.0831 -0.6111 -0.5843
35230SOL     OW14657   9.976   2.574   3.420 -0.4475 -0.3039 -0.3212
35230SOL    HW114658  10.061   2.532   3.436 -0.6028  0.2177  2.1683
35230SOL    HW214659   9.912   2.518   3.465 -1.2687  0.0440 -1.0281
35231SOL     OW14660  12.535   1.061   5.660  0.3972  0.0740 -0.6011
35231SOL    HW114661  12.585   1.030   5.736 -0.0050 -0.1035 -0.4077
35231SOL    HW214662  12.449   1.020   5.669 -0.5324  2.0843  0.2661
35232SOL     OW14663  11.750   3.374   4.665  0.3338 -0.5565  0.3774
35232SOL    HW114664  11.698   3.294   4.662  0.9088 -0.9055 -1.3782
35232SOL    HW214665  11.706   3.434   4.603  1.5187 -0.5741 -0.5214
35233SOL     OW14666   7.123  10.243   1.167 -0.1808 -0.5178 -0.3254
35233SOL    HW114667   7.123  10.174   1.233  1.0204 -1.7801 -1.5582
35233SOL    HW214668   7.133  10.324   1.217  2.6457 -1.5495  1.0252
35234SOL     OW14669  12.088   4.813  11.580  0.1186 -0.0933  0.2274
35234SOL    HW114670  12.126   4.812  11.493  1.2224  1.7484  0.6273
35234SOL    HW214671  12.161   4.836  11.638 -0.8002 -0.2734  1.5117
35235SOL     OW14672  10.429   1.750   1.744 -0.0030 -0.1830  0.0357
35235SOL    HW114673  10.411   1.736   1.837  0.6074 -0.9211  0.0546
35235SOL    HW214674  10.491   1.681   1.721  1.2661  1.0815 -0.4929
35236SOL     OW14675   2.101   8.721   2.722  0.0931  0.1414  0.5245
35236SOL    HW114676   2.177   8.777   2.709  0.8133 -1.0997 -0.9143
35236SOL    HW214677   2.135   8.645   2.769  0.2895 -1.4205 -1.9553
35237SOL     OW14678   7.537   0.313   1.370  0.0691 -0.0416 -0.1504
35237SOL    HW114679   7.470   0.328   1.437 -0.2738  0.7202 -0.6522
35237SOL    HW214680   7.489   0.317   1.288  0.2447 -2.3102 -0.4202
35238SOL     OW14681   7.084   3.581   0.383  0.0240 -0.2049 -0.1879
35238SOL    HW114682   7.013   3.518   0.399  1.2153 -1.3670  0.8378
35238SOL    HW214683   7.103   3.572   0.290 -1.0898  0.0446 -0.4515
35239SOL     OW14684   6.099   2.633   1.706  0.3825 -0.1233  0.1410
35239SOL    HW114685   6.163   2.562   1.703  0.9572  0.3670  0.7437
35239SOL    HW214686   6.115   2.677   1.789 -0.4778  0.2491  0.1250
35240SOL     OW14687   9.205   2.115   2.433 -0.4673  0.1362  0.2235
35240SOL    HW114688   9.141   2.051   2.402 -0.2440 -0.3819  0.8067
35240SOL    HW214689   9.212   2.099   2.527 -2.3128  2.7251  0.9155
35241SOL     OW14690   1.263  10.513   1.409 -0.0654 -0.2094  0.0939
35241SOL    HW114691   1.226  10.597   1.382 -1.3585 -0.3783  1.2238
35241SOL    HW214692   1.254  10.456   1.333  0.1025  0.4537 -0.4280
35242SOL     OW14693   3.673   9.898  11.481  0.4812  0.0437  0.1154
35242SOL    HW114694   3.578   9.906  11.475  0.2771 -0.3674  2.1234
35242SOL    HW214695   3.702   9.981  11.518  0.5618 -0.8433  2.1361
35243SOL     OW14696  10.746   2.211   0.899 -0.5684  0.1107 -0.0406
35243SOL    HW114697  10.744   2.168   0.984 -1.3673 -1.3961 -0.7733
35243SOL    HW214698  10.713   2.299   0.916 -1.0792 -0.2834  1.1496
35244SOL     OW14699   1.032   5.535  11.332 -0.5243 -0.0078 -0.2877
35244SOL    HW114700   1.088   5.601  11.373 -0.4317 -0.5071  0.3888
35244SOL    HW214701   1.047   5.455  11.382 -1.4192 -0.2882 -0.4504
35245SOL     OW14702   2.959   5.870   7.625 -0.2056 -0.1632  0.3068
35245SOL    HW114703   2.965   5.960   7.592  0.6875 -0.0708  0.6728
35245SOL    HW214704   2.958   5.880   7.720  1.8761 -0.5914  0.4272
35246SOL     OW14705   3.766   0.568  11.428 -0.1071 -0.0245  0.1404
35246SOL    HW114706   3.843   0.553  11.373  0.7400 -0.3605  1.3690
35246SOL    HW214707   3.777   0.508  11.501 -2.6976 -1.7350 -0.7234
35247SOL     OW14708   5.870   7.773  11.491  0.1261 -0.3663 -0.3492
35247SOL    HW114709   5.953   7.733  11.519  0.0950  0.0217  0.3223
35247SOL    HW214710   5.888   7.806  11.403 -0.0758 -2.5132 -1.2340
35248SOL     OW14711   0.082   4.207   7.841 -0.0384  0.0430 -0.0042
35248SOL    HW114712   0.139   4.274   7.804 -1.8481  1.1799 -0.8416
35248SOL    HW214713   0.005   4.206   7.785 -0.6155 -1.8794  0.7301
35249SOL     OW14714   4.850   1.868   0.004 -0.2901 -0.2534  0.0502
35249SOL    HW114715   4.886   1.822   0.080 -2.3314 -0.4494  0.9679
35249SOL    HW214716   4.887   1.823  -0.072  0.4258 -1.1905  0.9313
35250SOL     OW14717   3.086   8.804   0.102  0.5063 -0.1692 -0.0107
35250SOL    HW114718   3.057   8.858   0.028 -0.2059  1.3479  1.3361
35250SOL    HW214719   3.012   8.804   0.163  0.5164 -2.6186  0.1145
35251SOL     OW14720  12.528   6.235   1.981 -0.6469  0.5828 -0.1543
35251SOL    HW114721  12.446   6.232   2.031 -0.4785 -0.7271  0.0869
35251SOL    HW214722  12.533   6.149   1.939  0.3385  0.8514 -0.6110
35252SOL     OW14723  10.639   9.335   3.513 -0.1835 -0.2893 -0.4346
35252SOL    HW114724  10.564   9.287   3.478 -1.4505  1.0539  0.3063
35252SOL    HW214725  10.612   9.427   3.510  1.8507  0.3519 -1.0907
35253SOL     OW14726   2.909  12.332   5.378 -0.2355 -0.3546  0.4419
35253SOL    HW114727   2.906  12.256   5.320  1.0556  0.7046 -1.1108
35253SOL    HW214728   2.862  12.305   5.457  0.2212 -2.7600 -0.0460
35254SOL     OW14729   4.378  11.729  11.363 -0.0684  0.5183  0.3501
35254SOL    HW114730   4.469  11.722  11.391  0.2356  1.4839 -0.3351
35254SOL    HW214731   4.376  11.688  11.277 -0.4112 -0.0300  0.6180
35255SOL     OW14732   3.644   4.461   4.613  0.0043  0.4302 -0.8655
35255SOL    HW114733   3.670   4.426   4.698  0.2798  0.9701 -0.7223
35255SOL    HW214734   3.727   4.480   4.569  0.0513 -3.4359 -2.8440
35256SOL     OW14735   8.091   9.848   3.078  0.0018 -0.4218  0.2000
35256SOL    HW114736   8.119   9.837   2.987 -0.8752 -2.3461  0.1198
35256SOL    HW214737   7.998   9.869   3.072  0.5103  2.3104  0.6063
35257SOL     OW14738   9.111   1.380   6.858 -0.3310  0.2360 -0.2976
35257SOL    HW114739   9.108   1.465   6.814 -1.3836  0.3101 -0.1010
35257SOL    HW214740   9.176   1.330   6.809 -0.0731  0.9787 -0.7288
35258SOL     OW14741   8.045   0.077   9.398 -0.3647  0.0068  0.1325
35258SOL    HW114742   8.043   0.022   9.319 -1.8523  0.3057 -0.0751
35258SOL    HW214743   8.058   0.016   9.470 -1.8167 -0.6494 -0.1147
35259SOL     OW14744   1.842   7.240   8.398 -0.2548  0.5758  0.2558
35259SOL    HW114745   1.799   7.259   8.482  0.5428 -0.0456  0.8204
35259SOL    HW214746   1.932   7.216   8.422  0.4900  2.0226 -0.9097
35260SOL     OW14747   3.426   2.914   7.845  0.2508  0.1518  0.4289
35260SOL    HW114748   3.469   2.883   7.925  0.8496  0.6435  0.3028
35260SOL    HW214749   3.356   2.971   7.876 -1.1131 -1.5630  0.6849
35261SOL     OW14750  10.122   1.552   4.288 -0.6174  0.2270 -0.0806
35261SOL    HW114751  10.192   1.493   4.318 -0.5043  0.2262 -0.3423
35261SOL    HW214752  10.044   1.521   4.333 -0.3500  0.5543  0.6224
35262SOL     OW14753  10.369  10.827  11.438  0.2013 -0.1289  0.3328
35262SOL    HW114754  10.451  10.779  11.421 -0.1300 -0.4876 -0.2962
35262SOL    HW214755  10.335  10.848  11.351 -0.8049 -0.7256  0.5653
35263SOL     OW14756  11.500   0.162  12.433 -0.2474  0.2843  0.1318
35263SOL    HW114757  11.426   0.222  12.446  1.0739  1.8186  1.0161
35263SOL    HW214758  11.563   0.214  12.383  0.8482 -0.4425  0.7224
35264SOL     OW14759   9.643   9.495  12.306  0.3687 -0.1509 -0.2231
35264SOL    HW114760   9.626   9.430  12.375  0.4811  0.2935  0.2275
35264SOL    HW214761   9.596   9.573  12.335  1.9917  0.6556  0.3352
35265SOL     OW14762   5.638  10.307   1.039  0.0956  0.4155 -0.5514
35265SOL    HW114763   5.612  10.313   0.947 -1.6686 -0.7392 -0.1772
35265SOL    HW214764   5.723  10.263   1.038  0.8716  1.8561 -1.6900
35266SOL     OW14765   5.877   2.761   4.209 -0.0648  0.3732 -0.0201
35266SOL    HW114766   5.802   2.739   4.153  0.8762 -3.2413 -0.0756
35266SOL    HW214767   5.842   2.757   4.298  0.1406 -2.1713  0.0045
35267SOL     OW14768  12.347  12.187   2.732  0.0055 -0.2638  0.0800
35267SOL    HW114769  12.415  12.120   2.724  0.2477 -0.0543  0.3644
35267SOL    HW214770  12.276  12.143   2.780  0.2446 -0.2601  0.4434
35268SOL     OW14771   2.363   0.631   7.943 -0.1055 -0.1043  0.1981
35268SOL    HW114772   2.381   0.605   7.853  0.9299  0.9575  0.0674
35268SOL    HW214773   2.450   0.645   7.981 -0.5538  0.3998  1.0711
35269SOL     OW14774   6.730  11.273  12.476  0.2201  0.5543  0.3293
35269SOL    HW114775   6.652  11.217  12.479  0.6194 -0.0133  3.1005
35269SOL    HW214776   6.732  11.307  12.386 -0.7757 -2.7939 -1.1098
35270SOL     OW14777   9.569   4.897   1.769 -0.4016 -0.5974 -0.0804
35270SOL    HW114778   9.626   4.919   1.696 -1.0037 -2.2833 -1.1349
35270SOL    HW214779   9.585   4.965   1.834  1.2903  0.0967 -1.1535
35271SOL     OW14780   3.248   2.617   2.652  0.4812 -0.3917  0.0168
35271SOL    HW114781   3.188   2.660   2.592  0.1451 -1.6569 -0.5928
35271SOL    HW214782   3.281   2.541   2.604  1.1505 -0.7602  0.9999
35272SOL     OW14783   9.311  12.472   4.028 -0.1480 -0.1581 -0.2945
35272SOL    HW114784   9.223  12.509   4.034  0.0097 -0.0363  2.2732
35272SOL    HW214785   9.304  12.403   3.962 -1.7830  0.8058 -1.1871
35273SOL     OW14786  11.956   9.175  12.440 -0.4930 -0.2914 -0.7515
35273SOL    HW114787  11.918   9.257  12.409  0.8195  0.0692 -1.4924
35273SOL    HW214788  11.883   9.114  12.446 -1.1729  0.3543 -2.1631
35274SOL     OW14789   9.709   7.330   1.746 -0.1462 -0.4902 -0.2649
35274SOL    HW114790   9.771   7.294   1.809  1.7879  1.5327 -0.8951
35274SOL    HW214791   9.623   7.319   1.788  0.8106 -1.4375  1.5700
35275SOL     OW14792   6.585  12.103   7.747  0.1502  0.1570 -0.1972
35275SOL    HW114793   6.593  12.024   7.693  1.0606 -0.0248  0.1975
35275SOL    HW214794   6.675  12.134   7.758  0.0705 -0.2648  1.9059
35276SOL     OW14795   7.862   3.739   3.887  0.0098  0.5115  0.0137
35276SOL    HW114796   7.838   3.721   3.796 -0.3525 -0.1039  0.2269
35276SOL    HW214797   7.931   3.805   3.881 -1.4965  2.0800 -0.6290
35277SOL     OW14798   8.447   4.142   6.769  0.3594  0.2776 -0.0788
35277SOL    HW114799   8.415   4.217   6.720 -0.3163 -0.9123 -1.5420
35277SOL    HW214800   8.367   4.094   6.793  0.7472  0.2681  1.2792
35278SOL     OW14801   0.140  11.890   6.092 -0.0443 -0.7162  0.5571
35278SOL    HW114802   0.111  11.884   6.183 -1.7743 -2.0910 -0.0246
35278SOL    HW214803   0.069  11.850   6.042  0.6343  0.4493 -1.4588
35279SOL     OW14804   1.486   9.947  12.231  0.4428  0.4721  0.0890
35279SOL    HW114805   1.467   9.865  12.186  0.7853  0.2464  0.3454
35279SOL    HW214806   1.489   9.924  12.323  1.3876  0.5901  0.1060
35280SOL     OW14807   7.759   2.438   6.408  0.0976 -0.2446 -0.1344
35280SOL    HW114808   7.745   2.377   6.480 -0.0771  0.2877  0.2910
35280SOL    HW214809   7.679   2.432   6.355 -0.9416  1.2722  1.1623
35281SOL     OW14810   3.860   9.290   2.346 -0.0813 -0.4475 -0.1941
35281SOL    HW114811   3.892   9.214   2.298 -0.6053 -0.7796 -0.0213
35281SOL    HW214812   3.822   9.346   2.278  1.1126  0.1021 -0.4473
35282SOL     OW14813  11.048   5.956   1.619  0.0496  0.4252 -0.2269
35282SOL    HW114814  11.039   6.039   1.572  0.5846  0.7404  0.2164
35282SOL    HW214815  10.995   5.895   1.570  0.0819  0.9073 -0.8703
35283SOL     OW14816   2.773  10.929   9.771  0.4726 -0.0786 -0.2089
35283SOL    HW114817   2.685  10.964   9.781  0.2007 -0.5478 -0.8996
35283SOL    HW214818   2.804  10.965   9.688  0.2758 -1.2539 -0.8194
35284SOL     OW14819   6.290   7.534   1.737 -0.7883 -0.2166 -0.1565
35284SOL    HW114820   6.306   7.503   1.648  0.2393  0.3066 -0.1615
35284SOL    HW214821   6.245   7.461   1.780 -0.5358 -0.7909 -0.8562
35285SOL     OW14822   5.373   9.194   8.281 -0.0285  0.0028 -0.0918
35285SOL    HW114823   5.424   9.272   8.303  2.3298 -1.3936 -0.2179
35285SOL    HW214824   5.407   9.126   8.339  1.0318 -1.9260 -2.7348
35286SOL     OW14825   6.300   3.386   5.345  0.2564  0.1781 -0.3598
35286SOL    HW114826   6.208   3.412   5.334  0.1243 -0.4850 -0.9008
35286SOL    HW214827   6.328   3.358   5.258  0.6965 -0.4839 -0.0144
35287SOL     OW14828   9.148   1.926   7.630  0.1251 -0.1176 -0.2731
35287SOL    HW114829   9.119   1.948   7.719  0.7116  0.6884 -0.2583
35287SOL    HW214830   9.205   1.850   7.642  1.3518  0.8461  0.2558
35288SOL     OW14831  11.243  10.531  12.202  0.1177 -0.4856  0.1721
35288SOL    HW114832  11.246  10.471  12.127  0.2383  0.8819 -0.9514
35288SOL    HW214833  11.197  10.608  12.169 -1.0077 -0.3562  1.9126
35289SOL     OW14834   2.969   2.281  10.164 -0.2974 -0.2072  0.4890
35289SOL    HW114835   3.020   2.350  10.123  1.9382 -1.5876  0.7375
35289SOL    HW214836   2.943   2.224  10.092 -0.1214 -0.3205  0.5131
35290SOL     OW14837   2.220   7.434   4.325  0.0436 -0.0093 -0.9114
35290SOL    HW114838   2.132   7.459   4.352 -0.0995 -1.1702 -0.2323
35290SOL    HW214839   2.208   7.352   4.277  0.6857  0.1912 -1.4319
35291SOL     OW14840   7.448  10.304   7.690 -0.1065  0.1839  0.5392
35291SOL    HW114841   7.439  10.258   7.607 -0.1708  0.6639  0.2723
35291SOL    HW214842   7.487  10.240   7.750 -0.0922 -0.1736  0.1501
35292SOL     OW14843   6.588   0.624  10.554 -0.8757  0.1264 -0.2694
35292SOL    HW114844   6.612   0.598  10.643 -1.1770 -0.5845 -0.3924
35292SOL    HW214845   6.493   0.632  10.556 -0.8743  0.2038 -0.5025
35293SOL     OW14846   7.637   4.197   1.569  0.3527 -0.0058 -0.7022
35293SOL    HW114847   7.560   4.157   1.529  0.3184 -0.5250 -0.1327
35293SOL    HW214848   7.695   4.124   1.589  0.2103  0.1982  0.5328
35294SOL     OW14849   7.243   6.567   6.079  0.6822  0.6282  0.0714
35294SOL    HW114850   7.181   6.495   6.068  0.2673  1.1163 -0.9108
35294SOL    HW214851   7.214   6.611   6.159 -0.0990  0.7044 -0.2437
35295SOL     OW14852   2.035   7.260   3.560 -0.7649  0.4307  0.0196
35295SOL    HW114853   2.087   7.187   3.527 -1.7299 -0.5629  0.6374
35295SOL    HW214854   2.062   7.335   3.507 -0.1801 -0.4940 -1.0240
35296SOL     OW14855   5.396   9.982   5.728  0.1658  0.0402  0.2456
35296SOL    HW114856   5.488  10.007   5.717 -0.1855  0.5315 -1.8235
35296SOL    HW214857   5.393   9.941   5.815  2.2839  0.2090  0.4451
35297SOL     OW14858   4.396  12.309   8.573  0.7858 -0.0243 -0.5699
35297SOL    HW114859   4.464  12.286   8.636  0.0480 -1.3828 -0.2409
35297SOL    HW214860   4.322  12.253   8.596 -1.1682  2.6975  0.2843
35298SOL     OW14861   5.743   6.476   2.728 -0.4081  0.2934 -0.9621
35298SOL    HW114862   5.756   6.388   2.765 -1.5386 -0.5486 -2.4520
35298SOL    HW214863   5.648   6.488   2.728 -0.2379  2.4512  1.1933
35299SOL     OW14864  12.033   7.722  10.478 -0.0240 -0.0115  0.0199
35299SOL    HW114865  12.100   7.665  10.441 -0.8359  0.2009 -1.9296
35299SOL    HW214866  12.071   7.810  10.472  0.0500 -0.0305  0.2006
35300SOL     OW14867   5.272   7.661   1.752 -0.5667  0.1241 -0.3514
35300SOL    HW114868   5.180   7.636   1.760 -0.4750  0.3480  2.1173
35300SOL    HW214869   5.320   7.582   1.773 -0.0365 -0.7367 -4.0788
35301SOL     OW14870   4.745   6.100   5.207 -0.1380  0.4347 -0.3582
35301SOL    HW114871   4.796   6.029   5.246 -2.1982 -1.2379 -0.5136
35301SOL    HW214872   4.772   6.178   5.255  2.0494 -0.4456 -0.0278
35302SOL     OW14873   3.513   3.788  10.213  0.9109 -0.4451 -0.7993
35302SOL    HW114874   3.571   3.718  10.245  2.7777  1.1879 -0.3961
35302SOL    HW214875   3.485   3.757  10.127  0.6366 -2.2413 -0.1198
35303SOL     OW14876   0.722   7.762   1.916  0.1968  0.2438 -0.2199
35303SOL    HW114877   0.809   7.744   1.951  0.1564  1.3301  0.4952
35303SOL    HW214878   0.699   7.848   1.953 -1.5969 -0.4707  0.4288
35304SOL     OW14879   1.827  11.151  12.211  0.3396 -0.0454  0.6058
35304SOL    HW114880   1.737  11.121  12.197  0.1727  0.1739  1.1679
35304SOL    HW214881   1.820  11.216  12.280  0.7756  0.8959 -0.2145
35305SOL     OW14882   6.098  11.380   5.656  0.0404  0.1236 -0.0690
35305SOL    HW114883   6.069  11.383   5.565 -0.5072  0.6467  0.1174
35305SOL    HW214884   6.052  11.304   5.693  0.3411 -0.1500 -0.2495
35306SOL     OW14885   7.759   8.215   5.551 -0.1924 -0.0284 -0.1885
35306SOL    HW114886   7.780   8.188   5.461  1.6578  1.3967 -0.2378
35306SOL    HW214887   7.724   8.137   5.592 -0.2327 -0.9553 -1.8846
35307SOL     OW14888  10.211   7.986   8.842  0.5759 -0.0365 -0.1084
35307SOL    HW114889  10.127   7.947   8.868  0.2212  1.7139  1.6054
35307SOL    HW214890  10.264   7.911   8.814 -1.1998 -1.3038 -0.2565
35308SOL     OW14891   1.839   4.445   9.685 -0.0036  0.2785  0.2759
35308SOL    HW114892   1.757   4.494   9.692 -0.1366  0.0270  0.5047
35308SOL    HW214893   1.847   4.399   9.769 -0.0929 -0.4090 -0.0820
35309SOL     OW14894  11.151   5.513   1.793  0.1626 -0.7401  0.4036
35309SOL    HW114895  11.073   5.467   1.826 -0.2639 -1.7178 -1.7948
35309SOL    HW214896  11.128   5.539   1.704  1.2671  1.7737  0.7632
35310SOL     OW14897   0.706   1.327   4.786  0.7320 -0.1202  0.5604
35310SOL    HW114898   0.715   1.236   4.760  1.1863  0.1004 -0.0962
35310SOL    HW214899   0.670   1.371   4.709 -1.5590 -0.1031  1.5520
35311SOL     OW14900  10.094   0.514  10.010 -0.0883  0.1774  0.7316
35311SOL    HW114901  10.182   0.550  10.015 -0.5441  1.2623  1.0710
35311SOL    HW214902  10.076   0.510   9.916  0.8197 -1.3400  0.5834
35312SOL     OW14903   7.927   9.253   8.313 -0.7442 -0.0502  0.4665
35312SOL    HW114904   7.932   9.224   8.404 -0.0410  0.2763  0.5400
35312SOL    HW214905   8.004   9.213   8.271 -1.0076 -0.1169  0.0384
35313SOL     OW14906  12.067   5.390   4.527  0.2406  0.3082  0.0245
35313SOL    HW114907  12.158   5.416   4.542 -0.1239  1.3064  0.6347
35313SOL    HW214908  12.016   5.459   4.568 -0.8086  0.5388 -1.5724
35314SOL     OW14909  11.625   9.571   7.676  0.5105  1.1222 -0.2343
35314SOL    HW114910  11.611   9.628   7.751  0.9656 -0.2137  0.8946
35314SOL    HW214911  11.674   9.496   7.710  1.3744  0.8166 -2.0050
35315SOL     OW14912   4.751  10.816  11.044 -0.1419  0.1997 -0.4080
35315SOL    HW114913   4.685  10.760  11.087  0.2799 -0.6484 -0.8302
35315SOL    HW214914   4.814  10.835  11.114 -0.2015 -0.0028 -0.2961
35316SOL     OW14915  10.592   0.039   6.753 -0.1150  0.1123  0.7766
35316SOL    HW114916  10.539   0.116   6.772 -0.5417 -0.2824  1.2135
35316SOL    HW214917  10.617   0.005   6.839 -1.2383 -1.1230  0.6389
35317SOL     OW14918   9.896   2.838   2.621 -0.0169  0.3345 -0.4650
35317SOL    HW114919   9.892   2.750   2.583  2.7117 -0.1197  0.0766
35317SOL    HW214920   9.806   2.855   2.650 -0.9805 -1.5599 -2.0650
35318SOL     OW14921   0.889   0.150   1.082 -0.7678  0.7034  0.9040
35318SOL    HW114922   0.837   0.230   1.067  0.2717  1.1726 -0.3921
35318SOL    HW214923   0.975   0.182   1.107 -0.3945 -0.0194  0.5630
35319SOL     OW14924   9.282   2.796   0.389  0.4730  0.1788 -0.2469
35319SOL    HW114925   9.253   2.790   0.298  1.2728 -1.2599 -0.4305
35319SOL    HW214926   9.364   2.748   0.391  0.8216  0.8015  1.1033
35320SOL     OW14927   6.377   0.191  11.506 -0.2462 -0.0471 -0.1805
35320SOL    HW114928   6.456   0.151  11.542 -1.7742 -1.5285  1.7565
35320SOL    HW214929   6.402   0.219  11.418  2.7664  0.7534  0.8219
35321SOL     OW14930   4.638   8.709   1.347  0.5540  0.0082  0.3734
35321SOL    HW114931   4.552   8.677   1.319  0.1668  0.8033  0.6193
35321SOL    HW214932   4.700   8.661   1.292  0.0733 -1.8929  1.4104
35322SOL     OW14933   4.669   0.408  10.460 -0.3453 -0.6069 -0.1140
35322SOL    HW114934   4.654   0.494  10.499  0.0073 -0.4380 -0.3383
35322SOL    HW214935   4.625   0.412  10.375  1.1716  0.0083 -0.9193
35323SOL     OW14936   4.265  12.198  10.064  0.0630 -0.1527  0.2441
35323SOL    HW114937   4.217  12.116  10.066 -0.6054  0.2339  0.4854
35323SOL    HW214938   4.210  12.259  10.114  1.7361 -0.1894  2.2765
35324SOL     OW14939   8.157   8.302   0.632 -0.0814 -0.3284  0.0150
35324SOL    HW114940   8.145   8.348   0.549 -0.0107 -0.4919 -0.0863
35324SOL    HW214941   8.088   8.336   0.689  0.9672  1.1120  0.4648
35325SOL     OW14942   8.322   3.498   5.905  0.0200 -0.3046  0.2282
35325SOL    HW114943   8.237   3.466   5.874 -1.0556  0.2426  2.3987
35325SOL    HW214944   8.301   3.550   5.982  1.8266  3.8305 -1.6993
35326SOL     OW14945   8.137   4.510   8.077  0.4559 -0.0484  0.4591
35326SOL    HW114946   8.175   4.452   8.143  0.3599  0.5948  1.1006
35326SOL    HW214947   8.193   4.588   8.080 -0.8458  0.8844  1.3696
35327SOL     OW14948   3.521   1.290  10.863 -0.2616  0.1261  0.1513
35327SOL    HW114949   3.434   1.330  10.868 -0.3923 -0.0055 -0.8169
35327SOL    HW214950   3.514   1.210  10.916 -0.5615  0.4060  0.5337
35328SOL     OW14951   9.086   9.447  10.764  0.0917  0.1620  0.2699
35328SOL    HW114952   9.011   9.388  10.763  0.1565  0.0901 -0.7814
35328SOL    HW214953   9.131   9.432  10.681  1.4300  0.0041  0.9819
35329SOL     OW14954   0.695   7.361  11.766  0.2921  0.2205 -0.0174
35329SOL    HW114955   0.682   7.439  11.711 -0.0909  1.8639  2.2380
35329SOL    HW214956   0.775   7.322  11.734  0.4977  1.5588 -1.2395
35330SOL     OW14957   0.804   6.617  11.880  0.6854 -0.3238  0.2301
35330SOL    HW114958   0.775   6.668  11.804  1.8019 -1.3213 -0.9206
35330SOL    HW214959   0.725   6.603  11.932  0.0888  1.2887 -0.1803
35331SOL     OW14960   3.986  10.197   4.509  0.2947 -0.0477 -0.1268
35331SOL    HW114961   4.075  10.173   4.483  0.3104 -0.2123  0.0735
35331SOL    HW214962   3.981  10.172   4.601  0.0431 -0.0348 -0.1369
35332SOL     OW14963   5.826   1.205   6.348  0.1154  0.2424 -0.4489
35332SOL    HW114964   5.920   1.194   6.332  0.3434  2.8366 -1.2772
35332SOL    HW214965   5.821   1.232   6.440  0.0223 -1.1897 -0.0103
35333SOL     OW14966   8.327   0.411   1.935  0.3186 -0.5234  0.1197
35333SOL    HW114967   8.360   0.448   2.016  0.2205 -0.9271  0.3492
35333SOL    HW214968   8.277   0.482   1.894 -1.3381 -0.8900  1.3795
35334SOL     OW14969   1.257  10.252  10.226 -0.0309 -0.1338 -0.6743
35334SOL    HW114970   1.321  10.196  10.181  0.1954 -0.9573  0.6038
35334SOL    HW214971   1.305  10.288  10.301 -1.0930 -0.9260  0.4275
35335SOL     OW14972  10.008   3.990   6.715 -0.8088  0.4722  0.2058
35335SOL    HW114973   9.956   3.909   6.713  1.2055 -0.9253 -2.5170
35335SOL    HW214974  10.000   4.026   6.627  2.8526  0.0435 -0.4694
35336SOL     OW14975   6.434   4.296  12.339 -0.2744 -0.0499 -0.6397
35336SOL    HW114976   6.398   4.238  12.405 -2.8695 -1.3478 -3.0150
35336SOL    HW214977   6.433   4.383  12.380 -2.4513 -0.6867  0.8215
35337SOL     OW14978  12.431   6.592  12.419 -0.5636 -0.1787  0.0947
35337SOL    HW114979  12.473   6.653  12.359 -2.6006 -0.1127 -1.3463
35337SOL    HW214980  12.426   6.640  12.502  2.9347 -0.5329  0.6658
35338SOL     OW14981   5.857  11.900   4.029  0.1359  0.5487 -0.1722
35338SOL    HW114982   5.793  11.834   4.003  0.3458  0.3493 -0.1924
35338SOL    HW214983   5.864  11.958   3.953  0.7542 -0.0349 -0.5731
35339SOL     OW14984   2.040   3.167   7.387  0.0693  0.4067 -0.0100
35339SOL    HW114985   2.103   3.097   7.401 -0.3324  0.2070  0.8910
35339SOL    HW214986   2.091   3.240   7.354  0.2050 -0.9608 -3.1079
35340SOL     OW14987   2.932   6.891   4.481 -0.4010 -0.1956  0.3227
35340SOL    HW114988   2.968   6.978   4.466 -3.2947  0.9080 -1.1297
35340SOL    HW214989   2.850   6.890   4.430 -1.3193 -3.1740  1.6261
35341SOL     OW14990  11.936   2.221   2.306 -0.1002 -0.4983 -0.0753
35341SOL    HW114991  11.906   2.298   2.353  0.9732 -1.2073  1.9019
35341SOL    HW214992  12.006   2.253   2.249 -0.8793  0.2609 -0.6059
35342SOL     OW14993   0.865   9.179  11.157 -0.1306  0.0336 -0.6241
35342SOL    HW114994   0.849   9.166  11.251  0.0966  2.0192 -0.2707
35342SOL    HW214995   0.806   9.117  11.114 -2.0894  0.7795  0.8002
35343SOL     OW14996   5.744   7.837   2.164 -0.6633 -0.6581  0.1550
35343SOL    HW114997   5.702   7.890   2.231  0.8738 -0.4329  0.9843
35343SOL    HW214998   5.765   7.900   2.094  0.5758 -0.2521  0.8600
35344SOL     OW14999   4.195   8.947  11.914  0.6761  0.6201 -0.7671
35344SOL    HW115000   4.140   8.946  11.992 -0.5810  0.1105 -1.6194
35344SOL    HW215001   4.265   9.009  11.935  0.5716  0.2374  0.8766
35345SOL     OW15002   5.864  11.137   7.298 -0.3981  0.0811  0.0487
35345SOL    HW115003   5.890  11.056   7.255 -1.6713 -1.6290  2.2543
35345SOL    HW215004   5.792  11.111   7.357 -1.0139  2.8541  0.6825
35346SOL     OW15005   9.844  12.402   2.012  0.0526  0.0128  0.5380
35346SOL    HW115006   9.905  12.332   2.035 -0.0933 -0.1710  0.3591
35346SOL    HW215007   9.824  12.445   2.096 -1.3819 -1.3650  0.9492
35347SOL     OW15008   0.887   1.788   8.808  0.7570 -0.5183 -0.4110
35347SOL    HW115009   0.865   1.702   8.844  1.0019 -0.0527  0.9097
35347SOL    HW215010   0.835   1.794   8.727 -0.6423 -1.1880  0.3890
35348SOL     OW15011   4.510   3.455  11.902  0.1178  0.4434 -0.2158
35348SOL    HW115012   4.587   3.501  11.934 -0.8483  0.6129  2.0682
35348SOL    HW215013   4.458   3.522  11.857 -0.2039  1.1065  1.1043
35349SOL     OW15014   7.892   5.597   7.716  0.0474  0.0579  0.0055
35349SOL    HW115015   7.897   5.684   7.755 -0.2763  0.2329 -0.3312
35349SOL    HW215016   7.954   5.599   7.643 -2.5875  1.3163 -2.4364
35350SOL     OW15017   4.759   0.025   6.242 -0.2755  0.4672 -0.2807
35350SOL    HW115018   4.791   0.115   6.234  1.0152 -0.0345 -1.1214
35350SOL    HW215019   4.839  -0.028   6.240 -1.0388 -0.7055 -0.0115
35351SOL     OW15020   3.014   8.277   9.113 -0.3144 -0.3017 -0.0080
35351SOL    HW115021   3.068   8.251   9.188  0.2326 -0.5158 -0.4723
35351SOL    HW215022   2.930   8.303   9.152 -1.0518 -3.0671  0.4913
35352SOL     OW15023   9.345   3.943   6.687 -0.0249  0.4840  0.1403
35352SOL    HW115024   9.424   3.942   6.632  0.2177  0.9463  0.4604
35352SOL    HW215025   9.273   3.960   6.627  0.2852  1.3816  0.0078
35353SOL     OW15026   0.451  10.208   5.496  0.0099 -0.0720  0.1780
35353SOL    HW115027   0.420  10.189   5.407  0.9102 -2.3326  0.2844
35353SOL    HW215028   0.387  10.165   5.553  0.4788 -0.2922  0.5445
35354SOL     OW15029  11.192   1.557   9.037 -0.3083  0.7231  0.2115
35354SOL    HW115030  11.183   1.463   9.052  2.0491  0.4665  0.4523
35354SOL    HW215031  11.154   1.598   9.115 -0.3453 -0.0731  0.6190
35355SOL     OW15032   4.559   4.352  10.134  0.5907 -0.1642  0.2862
35355SOL    HW115033   4.542   4.307  10.217  0.1323  1.5727  1.1859
35355SOL    HW215034   4.503   4.430  10.137  2.0330  0.9682 -0.7678
35356SOL     OW15035   1.640  11.857   2.852 -0.4247 -0.0527 -0.1557
35356SOL    HW115036   1.593  11.793   2.906 -0.1199  1.0109  1.4342
35356SOL    HW215037   1.731  11.851   2.880 -0.7080  2.6259  1.7779
35357SOL     OW15038   7.788  12.547   2.413  0.1811  0.2759 -0.4699
35357SOL    HW115039   7.771  12.640   2.428  1.8254  0.6086 -0.5085
35357SOL    HW215040   7.703  12.511   2.391 -0.2578  2.0503 -1.8914
35358SOL     OW15041  11.044  10.514   3.970 -0.3943  0.5599  0.1663
35358SOL    HW115042  10.979  10.450   3.999 -0.8970  0.9949  0.0259
35358SOL    HW215043  11.023  10.530   3.878 -1.2145  1.9914  0.5547
35359SOL     OW15044  11.197  11.909  10.936  0.1644  0.1586  0.1922
35359SOL    HW115045  11.193  12.000  10.967 -0.0080 -0.0247  0.7089
35359SOL    HW215046  11.267  11.910  10.871  1.6699  0.2149  1.7337
35360SOL     OW15047  10.091   1.407   2.376  0.1230 -0.3671  0.5214
35360SOL    HW115048  10.179   1.442   2.389 -0.0644 -0.4302  2.1359
35360SOL    HW215049  10.096   1.317   2.410 -0.2928 -0.7722 -0.4230
35361SOL     OW15050  12.152  10.431   7.252  0.1105 -0.3210 -0.1138
35361SOL    HW115051  12.238  10.463   7.225 -0.0700  1.0439  0.7718
35361SOL    HW215052  12.101  10.428   7.171  0.2260  1.4980 -0.3041
35362SOL     OW15053   1.975   1.932  10.290  0.0845 -0.3459 -0.8092
35362SOL    HW115054   2.017   1.855  10.330  1.7077  0.9585  0.1411
35362SOL    HW215055   1.897   1.946  10.343  1.0332  0.0277  0.5691
35363SOL     OW15056   4.731   6.273  11.155 -0.5159  0.0156 -0.2372
35363SOL    HW115057   4.820   6.307  11.165  0.1377 -1.8575  0.7443
35363SOL    HW215058   4.730   6.235  11.067  0.2555 -1.4640  0.3471
35364SOL     OW15059  12.571   1.480   6.183 -0.3239  0.2891 -0.5934
35364SOL    HW115060  12.665   1.501   6.181 -0.2320  0.1847  1.0138
35364SOL    HW215061  12.565   1.393   6.146  0.4117 -0.2265  0.4280
35365SOL     OW15062  11.019   8.735  11.808  0.5705 -0.2571  0.3466
35365SOL    HW115063  11.107   8.759  11.780  0.6137 -0.7899  0.0191
35365SOL    HW215064  10.982   8.687  11.734  0.5751 -1.4257  1.0826
35366SOL     OW15065   2.971   0.928   8.899 -0.4261 -0.0578  0.0324
35366SOL    HW115066   2.951   0.838   8.871 -4.2398  0.8352 -0.6856
35366SOL    HW215067   2.941   0.982   8.826  2.9798  1.8577 -0.1038
35367SOL     OW15068   8.934   1.871   6.498  0.2015  0.1458  0.5989
35367SOL    HW115069   8.919   1.778   6.484  1.7438 -0.0249 -0.1590
35367SOL    HW215070   8.910   1.887   6.589 -1.1880 -0.7257  0.4078
35368SOL     OW15071   3.223   8.696   9.569 -0.7034  0.2878  0.5035
35368SOL    HW115072   3.304   8.728   9.610 -0.1035 -0.8504  0.2387
35368SOL    HW215073   3.191   8.630   9.630  1.3777 -3.0790 -1.7379
35369SOL     OW15074   2.779   2.495   0.516 -0.0766 -0.6720  0.0395
35369SOL    HW115075   2.841   2.461   0.451 -0.4576 -1.6224  0.1606
35369SOL    HW215076   2.712   2.428   0.523 -1.6423  0.7395 -0.7594
35370SOL     OW15077   2.264  10.304   5.106  0.1180  0.2865 -0.2380
35370SOL    HW115078   2.274  10.399   5.113 -0.9798  0.3066  2.0689
35370SOL    HW215079   2.353  10.271   5.095  0.4534  1.5950 -1.7080
35371SOL     OW15080   0.360   5.303  12.363 -0.1098 -0.6362  0.2063
35371SOL    HW115081   0.325   5.384  12.399  0.1199 -0.4498  0.0167
35371SOL    HW215082   0.409   5.263  12.435  2.8928  1.2044 -0.6487
35372SOL     OW15083  11.042  10.326   1.514 -0.1515  0.1936 -0.3203
35372SOL    HW115084  11.088  10.409   1.528 -3.1953  2.0786 -0.6021
35372SOL    HW215085  11.002  10.335   1.428 -1.0166 -1.3427 -0.1126
35373SOL     OW15086   9.350  12.459   1.749 -0.5293  0.8993 -0.5380
35373SOL    HW115087   9.268  12.414   1.729  0.4448 -0.8692 -0.8371
35373SOL    HW215088   9.368  12.511   1.670 -1.0562  0.7990 -0.7286
35374SOL     OW15089   2.685   9.725   4.180  0.9580  0.1046 -0.4621
35374SOL    HW115090   2.704   9.657   4.244 -1.0269 -0.6003 -0.5454
35374SOL    HW215091   2.605   9.767   4.213  0.8109  0.8001 -1.6387
35375SOL     OW15092   8.736   8.111   3.667 -0.7294 -0.7840  0.1266
35375SOL    HW115093   8.729   8.016   3.679 -1.5884 -0.8534 -0.7432
35375SOL    HW215094   8.647   8.138   3.641 -0.0599 -0.0575 -1.5758
35376SOL     OW15095  11.492  10.839   3.503 -0.0444  0.6569  0.2298
35376SOL    HW115096  11.586  10.840   3.484 -0.1844  0.5443 -0.4926
35376SOL    HW215097  11.451  10.878   3.425 -0.7465 -1.2438 -0.4120
35377SOL     OW15098   8.836   8.160   7.553  0.3829 -0.5640 -0.0383
35377SOL    HW115099   8.868   8.196   7.471  0.1405 -0.0796  0.0727
35377SOL    HW215100   8.905   8.181   7.617 -0.8241  2.0383  0.5789
35378SOL     OW15101   5.270   6.423  11.025  0.0391 -0.2226 -0.5893
35378SOL    HW115102   5.231   6.506  10.995  0.0256 -0.5567 -1.5193
35378SOL    HW215103   5.219   6.355  10.981  1.5854 -0.6818 -1.7633
35379SOL     OW15104   6.221  10.106   5.861  0.2379 -0.5305 -0.4384
35379SOL    HW115105   6.272  10.101   5.942  1.5228  0.8492 -1.1253
35379SOL    HW215106   6.281  10.143   5.796 -0.8286 -1.3679 -1.9840
35380SOL     OW15107  12.288   2.035   3.452  0.1665  0.0048  0.4917
35380SOL    HW115108  12.211   2.026   3.507 -0.6989  1.5087 -0.4143
35380SOL    HW215109  12.303   1.947   3.417  0.1491 -0.7512  2.2930
35381SOL     OW15110  11.898   6.062   0.244 -0.1813  0.5242 -0.5146
35381SOL    HW115111  11.865   6.142   0.284  0.6756  0.8915 -0.5241
35381SOL    HW215112  11.902   6.082   0.150  0.9565  0.8205 -0.4149
35382SOL     OW15113   9.462   0.009   9.588  0.1038  0.3702 -0.0803
35382SOL    HW115114   9.375   0.038   9.560 -0.0515 -0.7636 -0.8305
35382SOL    HW215115   9.452  -0.086   9.602  1.0531  0.3425  0.4679
35383SOL     OW15116  11.583   1.049   7.900 -0.1781  0.1474 -0.3201
35383SOL    HW115117  11.505   0.993   7.900 -0.0896 -0.0395  1.5420
35383SOL    HW215118  11.636   1.017   7.827 -1.4306 -0.3044 -1.0560
35384SOL     OW15119   1.372   3.133   5.812  0.0658  0.0233  0.1630
35384SOL    HW115120   1.358   3.210   5.867  0.7615 -0.3560  0.8908
35384SOL    HW215121   1.328   3.155   5.729  1.8374  1.9853 -0.3399
35385SOL     OW15122  11.855   2.713   3.021 -0.3413  0.1452  0.4598
35385SOL    HW115123  11.873   2.734   3.113  0.7182 -0.2155  0.3460
35385SOL    HW215124  11.904   2.633   3.005 -2.5446 -1.2388  0.2691
35386SOL     OW15125   2.145   8.323   0.513  0.0680  0.0702  0.8220
35386SOL    HW115126   2.054   8.313   0.485  0.6150  0.9317 -1.4858
35386SOL    HW215127   2.143   8.312   0.608 -2.5723  1.0403  0.9309
35387SOL     OW15128   0.623  12.073   5.523 -0.0563  0.1080 -0.2051
35387SOL    HW115129   0.533  12.090   5.494 -0.2419  1.0043  0.8125
35387SOL    HW215130   0.644  12.148   5.579  1.5995  0.2835 -1.0204
35388SOL     OW15131   2.668   8.680  11.365  0.4134  0.0331 -0.3386
35388SOL    HW115132   2.701   8.733  11.438 -0.6600  0.3661 -0.0628
35388SOL    HW215133   2.694   8.591  11.386 -0.1968  0.0733  0.6660
35389SOL     OW15134   9.076   5.554   1.032 -0.0029  0.5665 -0.6879
35389SOL    HW115135   9.097   5.465   1.059 -0.0346  0.6479 -0.3836
35389SOL    HW215136   9.026   5.545   0.952 -0.4218  0.2896 -0.3962
35390SOL     OW15137   2.538   1.699   6.631  0.3923  0.2856  0.1774
35390SOL    HW115138   2.588   1.752   6.692 -0.4359  0.0531  1.0810
35390SOL    HW215139   2.451   1.692   6.671  0.2654 -1.1116 -0.2950
35391SOL     OW15140   8.676   4.165   5.531  0.2168  0.1498  0.0551
35391SOL    HW115141   8.658   4.137   5.621 -3.5375  0.0530 -0.5531
35391SOL    HW215142   8.690   4.260   5.539  0.5740  0.0447  0.8080
35392SOL     OW15143   4.776   7.539   9.986 -0.0368  0.3139  0.3716
35392SOL    HW115144   4.804   7.449   9.971 -1.1127  0.3296 -2.4009
35392SOL    HW215145   4.849   7.593   9.955 -0.5502  0.3387 -0.8804
35393SOL     OW15146   7.901   8.768   7.403 -0.1089  0.7273 -0.2675
35393SOL    HW115147   7.948   8.685   7.417 -0.0423  1.0467  1.5237
35393SOL    HW215148   7.966   8.836   7.422 -1.0160  1.1725  1.4263
35394SOL     OW15149   2.404   6.140   0.769  0.1030  0.6393 -0.4237
35394SOL    HW115150   2.337   6.074   0.754  1.6790 -1.2175  0.2612
35394SOL    HW215151   2.401   6.196   0.691 -2.1021  0.5531 -0.4634
35395SOL     OW15152   2.912   9.716   4.769  0.1295 -0.2833 -0.3183
35395SOL    HW115153   2.960   9.700   4.688 -0.5273  0.6291 -0.9130
35395SOL    HW215154   2.918   9.634   4.818  2.5180 -0.1222 -0.2255
35396SOL     OW15155   7.157   8.210   0.095 -0.8884  0.5403 -0.0411
35396SOL    HW115156   7.222   8.190   0.162 -0.0462  0.8429 -0.7452
35396SOL    HW215157   7.073   8.207   0.141 -0.4406 -0.4539  0.7564
35397SOL     OW15158   8.597   7.702   2.668 -1.0126 -0.1015 -0.0247
35397SOL    HW115159   8.521   7.729   2.616 -0.0570  0.5774 -1.1065
35397SOL    HW215160   8.642   7.784   2.689 -0.8503 -0.4546  1.0654
35398SOL     OW15161   7.159   9.279   2.736 -0.0854  0.5346 -0.7047
35398SOL    HW115162   7.135   9.223   2.662  0.8116  0.8762 -1.2693
35398SOL    HW215163   7.075   9.313   2.768 -0.5557 -0.3147 -1.0033
35399SOL     OW15164   5.978  11.425   4.729  0.3607 -0.6111  0.4417
35399SOL    HW115165   5.941  11.380   4.653  0.0507  0.7093 -0.2128
35399SOL    HW215166   6.071  11.402   4.727  0.2540 -1.0183 -0.0315
35400SOL     OW15167   0.100   8.506  12.576  0.1719 -0.1383  0.2356
35400SOL    HW115168   0.102   8.424  12.527 -1.1646  0.5219 -0.9892
35400SOL    HW215169   0.171   8.559  12.538 -0.2842  0.0356 -0.3795
35401SOL     OW15170   2.486   3.388   6.241  0.1050  0.2344 -0.2673
35401SOL    HW115171   2.518   3.434   6.319 -0.1870 -0.2240  0.1284
35401SOL    HW215172   2.432   3.318   6.276 -1.5029  1.0982 -0.9226
35402SOL     OW15173   9.004  11.374   8.035  0.3887  0.6083  0.0744
35402SOL    HW115174   8.993  11.459   8.079 -1.5811  0.6796 -0.4716
35402SOL    HW215175   8.997  11.310   8.106 -2.0603  0.7601  0.0457
35403SOL     OW15176   5.869   8.587   0.402  0.0129  0.2174  0.4913
35403SOL    HW115177   5.884   8.621   0.314  0.5245  0.5738  0.7102
35403SOL    HW215178   5.810   8.512   0.389  1.5887 -0.9428 -0.3824
35404SOL     OW15179   6.702   0.299   6.271  0.2400  0.1138 -0.0016
35404SOL    HW115180   6.796   0.283   6.272  0.2511 -0.4068 -2.7257
35404SOL    HW215181   6.694   0.394   6.264  0.5972  0.0998 -0.6359
35405SOL     OW15182   5.394   5.737   1.849  0.2005  0.4084  0.3804
35405SOL    HW115183   5.311   5.756   1.894 -0.1708  3.1384 -1.2534
35405SOL    HW215184   5.450   5.700   1.917 -1.8100 -0.0175  1.9112
35406SOL     OW15185   8.920   5.827   1.644  0.1322  0.4450  0.7760
35406SOL    HW115186   8.967   5.868   1.571 -0.9421 -1.1728 -0.9289
35406SOL    HW215187   8.896   5.900   1.701  0.9571  1.7954 -0.5316
35407SOL     OW15188   3.046  11.255  10.323 -0.5501 -0.4821 -0.1505
35407SOL    HW115189   3.034  11.195  10.396 -2.9131  0.7279  0.5717
35407SOL    HW215190   2.959  11.261  10.283  0.2889  0.2731 -1.9573
35408SOL     OW15191   1.324   8.525   3.815  0.1751  0.1266  0.1983
35408SOL    HW115192   1.352   8.607   3.854 -0.2988 -0.7085  2.4155
35408SOL    HW215193   1.398   8.498   3.760  1.5880  0.5474  1.8124
35409SOL     OW15194  10.214  10.098   6.902  0.7399 -0.2415  0.5210
35409SOL    HW115195  10.155  10.116   6.830  0.7892 -1.0935  0.2530
35409SOL    HW215196  10.226  10.182   6.945 -0.4545 -0.0108  0.4278
35410SOL     OW15197   7.926   7.069  11.769  0.5426  0.3283  0.2138
35410SOL    HW115198   7.913   7.125  11.692  3.0616  0.9642  0.1740
35410SOL    HW215199   7.944   7.130  11.841  2.2865 -0.3367  0.3910
35411SOL     OW15200   2.168  12.557   2.589 -0.3010 -0.1979 -0.0296
35411SOL    HW115201   2.253  12.579   2.626 -1.0376 -0.7549  2.1814
35411SOL    HW215202   2.149  12.469   2.621 -1.7231 -0.0764 -0.4299
35412SOL     OW15203   3.618   2.612   5.855  0.2725  0.2932  0.4698
35412SOL    HW115204   3.613   2.694   5.906  0.9931  0.4846  0.2521
35412SOL    HW215205   3.704   2.576   5.877 -0.3447 -0.8119  1.1586
35413SOL     OW15206   4.706   3.271   7.435 -0.2946 -0.3883 -0.3920
35413SOL    HW115207   4.627   3.222   7.459 -0.4553  0.1756  0.2709
35413SOL    HW215208   4.673   3.356   7.404 -0.1120 -1.1602 -2.9404
35414SOL     OW15209   0.983   6.255   3.826 -0.0008 -0.3496  0.5846
35414SOL    HW115210   0.943   6.220   3.906  0.0103 -0.9259  0.3372
35414SOL    HW215211   1.016   6.178   3.779  0.8227  0.0601  0.4709
35415SOL     OW15212   8.780  11.576   5.231  0.1887 -0.3403 -0.3754
35415SOL    HW115213   8.747  11.597   5.318  1.7213  0.8608 -0.0440
35415SOL    HW215214   8.845  11.508   5.245 -0.3398 -0.9337 -0.7339
35416SOL     OW15215   5.861  12.205   9.165  0.4855  0.0796  0.0184
35416SOL    HW115216   5.823  12.127   9.124  0.6586 -0.6663  1.2341
35416SOL    HW215217   5.822  12.278   9.117 -1.8341 -0.6763  0.6121
35417SOL     OW15218   8.029   4.042   0.588 -0.0230 -0.6351  0.0991
35417SOL    HW115219   8.118   4.075   0.580  0.1944 -1.4759 -1.1398
35417SOL    HW215220   8.014   4.035   0.682  0.8044  0.5783  0.3411
35418SOL     OW15221   6.081  12.321   9.268  0.1733 -0.2304 -0.0026
35418SOL    HW115222   6.008  12.284   9.219 -0.6698 -0.5294  1.4280
35418SOL    HW215223   6.045  12.344   9.353  1.4635  0.8105  0.3103
35419SOL     OW15224  10.268   7.518   6.320 -0.2326  0.4805  0.3854
35419SOL    HW115225  10.189   7.558   6.357 -0.7813 -0.0854 -0.1539
35419SOL    HW215226  10.235   7.448   6.263  0.6556  0.2880  0.0960
35420SOL     OW15227   1.068   3.434   9.822 -0.1190 -0.0541 -0.0175
35420SOL    HW115228   1.043   3.383   9.900 -1.9619  1.3464  0.3713
35420SOL    HW215229   1.041   3.523   9.842  2.0945  0.9304 -1.1051
35421SOL     OW15230   9.970   7.534   4.164  0.4239  0.3336  0.1923
35421SOL    HW115231   9.912   7.506   4.234  0.6335 -0.3727  0.0923
35421SOL    HW215232  10.020   7.606   4.201  0.9341 -0.4009  0.9586
35422SOL     OW15233   8.441  10.092  12.570 -0.1441  0.4587  0.1300
35422SOL    HW115234   8.478  10.100  12.658 -0.2299 -2.4524  0.5244
35422SOL    HW215235   8.346  10.091  12.584 -0.2831  2.6343 -0.3366
35423SOL     OW15236   1.884   7.104   8.783 -0.0302  0.3115  0.1536
35423SOL    HW115237   1.846   7.056   8.856 -0.4399 -0.4516 -0.5478
35423SOL    HW215238   1.956   7.154   8.822  0.0416 -0.4316  1.0028
35424SOL     OW15239  11.403  10.327   8.959 -0.3015 -0.1424  0.2264
35424SOL    HW115240  11.464  10.269   9.004 -1.4092 -1.2984  0.2753
35424SOL    HW215241  11.356  10.372   9.029  0.5452  0.8505  0.1895
35425SOL     OW15242  11.047   0.363   9.869  0.6905 -0.0791 -0.2071
35425SOL    HW115243  10.962   0.328   9.898  0.1685  0.7527 -0.6745
35425SOL    HW215244  11.112   0.312   9.917 -0.1114  0.1734  1.2170
35426SOL     OW15245   7.873   9.020   9.432 -0.3229 -0.1238  0.0504
35426SOL    HW115246   7.822   8.946   9.466 -0.6397  0.1358  0.1486
35426SOL    HW215247   7.951   8.980   9.394 -0.2153 -0.4670  0.6112
35427SOL     OW15248   1.062   1.287   1.608  0.2272 -0.1993  0.3946
35427SOL    HW115249   1.129   1.290   1.676 -1.4024  0.2748  2.0627
35427SOL    HW215250   1.021   1.201   1.619 -0.5233  0.1672  0.5093
35428SOL     OW15251  10.173   9.307   2.314 -0.2684  0.4465 -0.1548
35428SOL    HW115252  10.137   9.250   2.245  0.1551  1.1332 -0.9566
35428SOL    HW215253  10.169   9.253   2.393 -3.6560  0.6869 -0.0383
35429SOL     OW15254  11.983   6.213   7.873  0.4061  0.2417  0.8280
35429SOL    HW115255  11.975   6.118   7.866  0.7231  0.2018  0.9954
35429SOL    HW215256  12.025   6.240   7.792  0.7179  0.1899  0.9722
35430SOL     OW15257  11.041   5.694   6.098 -0.1436  0.4025  0.4691
35430SOL    HW115258  11.018   5.677   6.007 -1.2865  0.0894  0.8048
35430SOL    HW215259  11.137   5.696   6.098 -0.1015 -0.4970 -0.5777
35431SOL     OW15260   8.270   8.748   1.317  0.6801  1.2366 -0.1548
35431SOL    HW115261   8.307   8.669   1.356  0.8752  1.8989  1.0527
35431SOL    HW215262   8.339   8.780   1.257  0.4077  0.2536 -1.0126
35432SOL     OW15263   0.586  10.942   7.969 -0.4589 -0.2140 -0.0874
35432SOL    HW115264   0.632  10.865   7.935 -2.1504 -0.0919 -3.0354
35432SOL    HW215265   0.502  10.908   7.998 -1.0188  0.4153 -0.9342
35433SOL     OW15266   3.725   9.187   4.247  0.4180 -0.0644  0.4824
35433SOL    HW115267   3.715   9.096   4.275 -0.2421 -0.7687 -1.7849
35433SOL    HW215268   3.635   9.217   4.231  0.6723  0.7387  0.4939
35434SOL     OW15269   5.926  11.045  11.593 -0.0760 -0.1542 -0.0384
35434SOL    HW115270   5.992  10.976  11.588 -0.0180 -0.1796  0.8624
35434SOL    HW215271   5.974  11.126  11.574  0.0664 -0.2546 -0.1061
35435SOL     OW15272   7.537   7.483   4.646 -0.0451 -0.1242 -0.0106
35435SOL    HW115273   7.532   7.429   4.725  0.2068  2.0815  1.6009
35435SOL    HW215274   7.613   7.449   4.598 -0.5703 -1.8868  0.3411
35436SOL     OW15275   1.903   9.483   0.904  0.3627  0.5179  0.3816
35436SOL    HW115276   1.980   9.489   0.847 -0.0501  3.8322 -0.0383
35436SOL    HW215277   1.936   9.499   0.992  0.6801 -2.5022  0.9302
35437SOL     OW15278   1.573   6.298  10.804  0.0722  0.8002 -0.2185
35437SOL    HW115279   1.598   6.387  10.831  2.5263  1.3129 -3.5248
35437SOL    HW215280   1.654   6.247  10.813 -0.5810 -0.4031 -0.9376
35438SOL     OW15281   2.961  11.303   5.468 -0.7223 -0.5409 -0.2382
35438SOL    HW115282   3.016  11.362   5.519 -1.5119  0.3272 -0.3725
35438SOL    HW215283   2.996  11.216   5.486 -0.2329 -0.1358  0.8314
35439SOL     OW15284   2.509  10.153   9.899  0.6791 -0.4143  0.6691
35439SOL    HW115285   2.444  10.205   9.946  3.4920  2.0735  2.1886
35439SOL    HW215286   2.467  10.069   9.884 -2.4892  0.6988  2.3959
35440SOL     OW15287   0.216   8.038   4.639 -0.1707  0.0995 -0.3968
35440SOL    HW115288   0.225   8.100   4.712 -1.1908 -0.6929  0.4402
35440SOL    HW215289   0.121   8.024   4.631 -0.1043  0.4136 -2.1054
35441SOL     OW15290   8.858   7.781   1.689  0.1987 -0.4112 -0.5017
35441SOL    HW115291   8.804   7.727   1.631  0.8849 -0.9004 -0.7071
35441SOL    HW215292   8.902   7.843   1.630 -0.0095 -0.1224 -0.3559
35442SOL     OW15293   5.363   4.984  12.241 -0.1812 -0.4198 -0.0180
35442SOL    HW115294   5.292   4.927  12.212 -1.0160  0.7630 -0.3517
35442SOL    HW215295   5.331   5.022  12.323  0.2614 -0.2339  0.0712
35443SOL     OW15296  12.100   3.010   2.872 -0.3095  0.5701  0.0053
35443SOL    HW115297  12.060   3.000   2.785  1.0138 -0.5133 -0.5128
35443SOL    HW215298  12.026   3.024   2.931 -1.4665 -1.2153 -0.9336
35444SOL     OW15299   2.659   7.559   2.709 -0.3228  0.1384 -0.4310
35444SOL    HW115300   2.750   7.553   2.678 -0.0600  1.2261  0.0779
35444SOL    HW215301   2.643   7.476   2.753  0.2774 -0.2463 -0.9313
35445SOL     OW15302   9.506   6.277   2.576  0.2514  0.5564  0.0818
35445SOL    HW115303   9.579   6.284   2.514  0.8192 -1.1506  0.5071
35445SOL    HW215304   9.538   6.317   2.657  0.4790  0.3911  0.0721
35446SOL     OW15305   8.728  10.317   7.460  0.2927  0.2201 -0.7797
35446SOL    HW115306   8.693  10.406   7.456 -1.6231 -0.4576 -0.3134
35446SOL    HW215307   8.686  10.272   7.387  3.0809  0.2246 -2.5366
35447SOL     OW15308   3.451   5.311   9.905 -0.1719 -0.1091  0.0420
35447SOL    HW115309   3.421   5.372   9.972  2.2369  0.7602  0.4291
35447SOL    HW215310   3.447   5.360   9.823 -1.2668 -0.5341 -0.1782
35448SOL     OW15311   7.907   1.738   8.047 -0.3334 -0.3440  0.3912
35448SOL    HW115312   7.834   1.726   8.108  0.3099  0.0184  1.2494
35448SOL    HW215313   7.931   1.649   8.021 -0.4772 -0.5107  0.8216
35449SOL     OW15314   0.179   7.290   7.474 -0.2548 -0.1029  0.6869
35449SOL    HW115315   0.143   7.369   7.515  0.1961  0.4648  0.0087
35449SOL    HW215316   0.181   7.310   7.381  0.1148 -0.8175  0.5377
35450SOL     OW15317   0.553  10.320   7.995  0.4569  0.6281  0.5487
35450SOL    HW115318   0.530  10.230   8.018 -0.4259  1.0885  1.5674
35450SOL    HW215319   0.639  10.333   8.034  0.6606  0.1753  0.2566
35451SOL     OW15320  11.598   8.817   5.825 -0.4488 -0.0527 -0.5861
35451SOL    HW115321  11.602   8.912   5.840  1.5848 -0.0919 -0.5111
35451SOL    HW215322  11.531   8.785   5.886 -0.3962  1.2062  0.1607
35452SOL     OW15323   0.569   6.531   0.554 -0.0967 -0.0441 -0.3204
35452SOL    HW115324   0.495   6.584   0.582 -0.1055  0.0053 -0.4353
35452SOL    HW215325   0.598   6.571   0.472  0.5640  0.4317  0.1290
35453SOL     OW15326   0.213   6.886   8.009  0.5739 -0.1707 -0.5156
35453SOL    HW115327   0.296   6.884   8.057  0.4634 -2.0409 -0.3199
35453SOL    HW215328   0.222   6.817   7.943 -0.4885  0.2156 -1.0922
35454SOL     OW15329   7.396   7.441   6.145 -0.1229 -0.0131  0.3003
35454SOL    HW115330   7.349   7.360   6.162  1.0249 -0.6280  0.7007
35454SOL    HW215331   7.451   7.422   6.068 -1.1769  0.9819 -0.7430
35455SOL     OW15332   7.850   2.785  10.944 -0.3692 -0.1557 -0.1778
35455SOL    HW115333   7.874   2.794  10.851  0.3050 -1.2954 -0.1380
35455SOL    HW215334   7.848   2.691  10.958 -1.1970 -0.0015  0.7977
35456SOL     OW15335  10.104   7.904   3.055  0.0533 -0.0736 -0.8369
35456SOL    HW115336  10.123   7.820   3.097 -1.1433 -0.1433 -0.4123
35456SOL    HW215337  10.140   7.970   3.116  2.2004 -0.2604 -1.7957
35457SOL     OW15338  11.223  11.041   0.536 -0.5596  0.1472 -0.4078
35457SOL    HW115339  11.280  10.977   0.494 -0.4228  0.1977 -0.2999
35457SOL    HW215340  11.237  11.122   0.487 -1.8370 -0.2520 -1.5030
35458SOL     OW15341   1.898   9.367   3.562 -0.3030  0.5711 -0.2873
35458SOL    HW115342   1.867   9.343   3.475 -0.9704 -0.4606  0.2187
35458SOL    HW215343   1.915   9.283   3.605 -0.1617  1.0669  0.6403
35459SOL     OW15344   3.979   8.566   0.278 -0.1441  0.3293  0.0187
35459SOL    HW115345   3.981   8.595   0.187  0.6896  1.8686  0.4906
35459SOL    HW215346   4.071   8.564   0.304 -0.4292  1.2746  1.2038
35460SOL     OW15347   2.835  12.480  11.371  0.2816  0.6793 -0.0487
35460SOL    HW115348   2.908  12.532  11.407 -0.1472  0.4753  1.1709
35460SOL    HW215349   2.877  12.420  11.310  1.1348  0.6682  0.5213
35461SOL     OW15350   5.023   0.227   1.931  0.0717  0.0680  0.1646
35461SOL    HW115351   5.047   0.317   1.909 -1.3651  0.4719  0.1654
35461SOL    HW215352   5.090   0.199   1.994 -0.0351  1.5071  0.9550
35462SOL     OW15353   3.293   1.020   2.567 -0.2045  0.2322 -0.1645
35462SOL    HW115354   3.344   1.066   2.633  1.2594  0.4232 -1.3768
35462SOL    HW215355   3.324   1.054   2.483  0.4428 -2.3886 -1.1069
35463SOL     OW15356   8.132   8.302   5.243 -0.4295  0.4718  0.2498
35463SOL    HW115357   8.170   8.231   5.295 -0.5768  0.8325  0.8603
35463SOL    HW215358   8.094   8.361   5.308  1.7057  2.3239 -0.0986
35464SOL     OW15359  11.189   8.096   6.312 -0.4935  0.0999 -0.2780
35464SOL    HW115360  11.114   8.147   6.281 -0.1664  0.2543 -0.8406
35464SOL    HW215361  11.207   8.131   6.400 -1.7384 -0.6808  0.3046
35465SOL     OW15362   5.470   8.259   9.800  0.0701  0.1891 -0.2562
35465SOL    HW115363   5.454   8.330   9.738 -4.2532 -0.8546 -0.6406
35465SOL    HW215364   5.455   8.298   9.886  1.2020  0.4950 -0.1831
35466SOL     OW15365   9.559   8.049   1.824 -0.0899 -0.5067  0.1616
35466SOL    HW115366   9.642   8.026   1.867 -0.9495 -0.6272  1.8657
35466SOL    HW215367   9.511   7.967   1.820  0.0937 -0.5640 -1.4169
35467SOL     OW15368   9.538   1.728   5.234  0.1021 -0.1649 -0.3557
35467SOL    HW115369   9.566   1.648   5.189 -1.7644  0.3937 -2.6970
35467SOL    HW215370   9.592   1.797   5.195  1.6336 -0.1697  1.5858
35468SOL     OW15371  11.660   4.154   2.242  0.0839  0.0499  0.7896
35468SOL    HW115372  11.739   4.206   2.257  0.3646 -0.6622  1.9406
35468SOL    HW215373  11.667   4.126   2.151  0.7382  0.6703  0.6354
35469SOL     OW15374   3.354  12.401   0.249  0.3460  0.4621  0.6962
35469SOL    HW115375   3.438  12.359   0.232  0.0870  0.6704 -1.4073
35469SOL    HW215376   3.302  12.335   0.294  0.6884 -0.7217 -0.5659
35470SOL     OW15377   9.102   6.776  11.516 -0.5535 -0.3728 -0.0987
35470SOL    HW115378   9.101   6.772  11.612 -1.8281 -1.8256 -0.1241
35470SOL    HW215379   9.183   6.730  11.491 -0.1859  0.0638  0.2811
35471SOL     OW15380   9.487   9.234   7.227 -0.3892 -1.0791 -0.4569
35471SOL    HW115381   9.471   9.179   7.150  1.2344 -1.9133 -0.2373
35471SOL    HW215382   9.575   9.269   7.214  0.1711 -1.7202  1.2926
35472SOL     OW15383  12.109   5.392   4.053 -0.4614 -0.2281  0.0214
35472SOL    HW115384  12.148   5.366   4.137 -1.1161 -1.7428 -0.1181
35472SOL    HW215385  12.115   5.314   3.998  0.8973  1.0376 -1.7428
35473SOL     OW15386   8.774   1.226   0.093  0.1255  0.3950  0.2589
35473SOL    HW115387   8.735   1.174   0.163  3.9622 -1.8148  1.0276
35473SOL    HW215388   8.792   1.163   0.023 -0.5546  1.9306 -1.3826
35474SOL     OW15389   8.202  11.254  10.149 -0.2982  0.5434  0.6952
35474SOL    HW115390   8.280  11.216  10.108 -1.4410  0.1361 -1.2727
35474SOL    HW215391   8.226  11.345  10.167 -0.4325  1.5925 -3.4335
35475SOL     OW15392   9.285  12.365   7.049  0.3258 -0.2567  0.5864
35475SOL    HW115393   9.261  12.441   6.997  2.2887 -0.3401 -0.5272
35475SOL    HW215394   9.345  12.398   7.116  1.0430 -0.7877  0.2165
35476SOL     OW15395   3.331   4.442   9.558 -0.3250  0.6887 -0.2886
35476SOL    HW115396   3.265   4.507   9.533 -0.8298  0.3173  0.0619
35476SOL    HW215397   3.407   4.494   9.582 -0.4678  1.1224 -0.7522
35477SOL     OW15398   6.064   5.507   6.969  0.1903  0.1601  0.0855
35477SOL    HW115399   5.973   5.498   6.997  0.8874  0.8569  2.9376
35477SOL    HW215400   6.061   5.569   6.896 -1.6867 -0.7402 -0.6798
35478SOL     OW15401   8.385   9.543   5.713 -0.1833  0.2857 -0.4138
35478SOL    HW115402   8.298   9.533   5.752 -0.8911 -2.2050 -2.3322
35478SOL    HW215403   8.445   9.532   5.786 -1.4863 -1.3822  0.5009
35479SOL     OW15404   2.912  11.810   5.701 -0.3381  0.4119  0.0847
35479SOL    HW115405   2.945  11.801   5.790  0.2629 -0.4159 -0.2086
35479SOL    HW215406   2.863  11.729   5.685  2.9659 -1.4467 -1.7055
35480SOL     OW15407  10.582   2.705   1.897 -0.4518 -0.0014  0.2206
35480SOL    HW115408  10.503   2.657   1.922  0.1602 -0.2800  1.7334
35480SOL    HW215409  10.649   2.638   1.887  0.3643  0.4621  2.1704
35481SOL     OW15410   4.874   7.840   1.064 -0.6558 -0.3556 -0.2212
35481SOL    HW115411   4.953   7.850   1.012 -1.9118 -0.6623 -2.2938
35481SOL    HW215412   4.803   7.837   1.000 -2.4233  0.4804  1.5839
35482SOL     OW15413   1.306   3.721   5.261  0.3357  0.0040  0.1560
35482SOL    HW115414   1.295   3.712   5.355  0.3918  0.1540  0.1769
35482SOL    HW215415   1.396   3.751   5.250  0.2196  0.3244  0.0745
35483SOL     OW15416   3.858   4.495   3.307 -0.3974 -0.4725 -0.0047
35483SOL    HW115417   3.821   4.456   3.386 -0.1455 -0.5003  0.1010
35483SOL    HW215418   3.935   4.543   3.338 -1.1469  0.7872 -0.0103
35484SOL     OW15419   3.444   6.588   3.519 -0.3851  0.1342  0.1512
35484SOL    HW115420   3.410   6.505   3.485  0.4166 -0.7848  1.4645
35484SOL    HW215421   3.481   6.632   3.443 -1.1497 -0.5448 -0.6401
35485SOL     OW15422   0.663   9.849   3.939 -0.1889 -0.1133 -0.1387
35485SOL    HW115423   0.600   9.780   3.957 -1.3907  1.1711  0.7742
35485SOL    HW215424   0.721   9.850   4.015 -0.3584  0.0866 -0.0126
35486SOL     OW15425   4.688   9.884   2.240 -0.2574  0.0692  0.5811
35486SOL    HW115426   4.626   9.914   2.307 -1.0700 -0.7526  0.2176
35486SOL    HW215427   4.726   9.804   2.276 -0.1060  0.0627  0.4090
35487SOL     OW15428   7.346   4.092   4.117  0.3132  0.0404 -0.0248
35487SOL    HW115429   7.419   4.030   4.129  0.6131  0.0469 -1.6066
35487SOL    HW215430   7.386   4.170   4.080 -0.5820 -0.2263 -1.6220
35488SOL     OW15431   9.031   2.121   6.426  0.5260 -0.2873  0.1259
35488SOL    HW115432   8.973   2.189   6.392 -0.5545 -2.0857 -1.9008
35488SOL    HW215433   8.972   2.050   6.452  1.6590 -0.7760  1.4568
35489SOL     OW15434   7.760   9.560   0.735  0.7204  0.3561 -0.4072
35489SOL    HW115435   7.792   9.593   0.651 -1.4634 -0.5214 -1.6528
35489SOL    HW215436   7.671   9.594   0.742 -0.3295 -2.2083 -0.0689
35490SOL     OW15437   6.991  12.527   1.983  0.4865 -0.4221  0.0132
35490SOL    HW115438   6.937  12.565   1.914 -0.6498  0.7758  1.4644
35490SOL    HW215439   6.927  12.486   2.042  1.2977 -0.3601  0.9590
35491SOL     OW15440   6.623   8.137  11.073 -0.0076  0.0261 -0.5516
35491SOL    HW115441   6.688   8.136  11.002 -0.3424 -0.2564 -0.8558
35491SOL    HW215442   6.542   8.107  11.032  0.0536 -1.2178  0.2044
35492SOL     OW15443   4.017   9.239  12.595  0.0096  0.5140  0.0831
35492SOL    HW115444   4.015   9.158  12.647 -0.7687 -0.1764 -0.9679
35492SOL    HW215445   3.943   9.230  12.536 -0.7892  2.5368  0.6943
35493SOL     OW15446  11.270   9.788   1.226  0.3454  0.0927 -0.3941
35493SOL    HW115447  11.210   9.716   1.205  0.2476  0.5679 -1.8471
35493SOL    HW215448  11.346   9.773   1.170  2.0075 -0.9366  1.9654
35494SOL     OW15449   4.816   8.770  10.730  0.0814 -0.0349 -0.1283
35494SOL    HW115450   4.804   8.860  10.700 -2.0004 -0.8024 -1.8898
35494SOL    HW215451   4.829   8.777  10.824  1.0757  2.1591 -0.3818
35495SOL     OW15452  10.344   8.346   7.609  0.7814 -0.5615 -0.1163
35495SOL    HW115453  10.322   8.301   7.690  2.8499 -2.4713 -0.5011
35495SOL    HW215454  10.439   8.337   7.602  1.0069  2.0036 -1.3814
35496SOL     OW15455   9.926   1.187  10.934 -0.2387  0.1590  0.2677
35496SOL    HW115456   9.966   1.274  10.928  0.3060 -0.1017 -0.0039
35496SOL    HW215457   9.904   1.165  10.844 -0.4618  0.0534  0.3478
35497SOL     OW15458   3.447  11.315   4.964 -0.0105  0.3676  0.0089
35497SOL    HW115459   3.410  11.241   4.917 -0.3160  0.1643  0.5665
35497SOL    HW215460   3.376  11.379   4.968 -0.1605  0.1724  0.6508
35498SOL     OW15461   1.833   2.798   0.268  0.1675  0.1900  0.0550
35498SOL    HW115462   1.875   2.715   0.292 -0.0427 -0.1564 -0.7319
35498SOL    HW215463   1.814   2.840   0.351 -1.0019 -1.2016  0.5415
35499SOL     OW15464   6.086  12.088  11.233 -0.3061  0.7609 -0.3704
35499SOL    HW115465   6.032  12.018  11.269  1.1920 -0.1998  0.0564
35499SOL    HW215466   6.059  12.166  11.283 -0.8477  0.1748  0.2787
35500SOL     OW15467   4.495   5.577   9.841 -0.1018 -0.0565 -0.7056
35500SOL    HW115468   4.470   5.590   9.933 -0.9405  0.6859 -1.0333
35500SOL    HW215469   4.413   5.574   9.793  0.3496  0.4167 -1.5470
35501SOL     OW15470   3.842   3.838   4.075  0.0032 -0.1030  0.4668
35501SOL    HW115471   3.798   3.824   3.991  0.0064  0.2498  0.4042
35501SOL    HW215472   3.771   3.841   4.139 -0.4205  3.3946  0.0315
35502SOL     OW15473   7.748   4.322   1.327 -0.0137  0.1831 -0.2100
35502SOL    HW115474   7.746   4.251   1.391  1.2929  0.1439 -0.1895
35502SOL    HW215475   7.669   4.373   1.345 -1.7072 -1.9625 -1.0598
35503SOL     OW15476  11.281   9.429  10.008 -0.1429 -0.5658  0.9567
35503SOL    HW115477  11.200   9.479  10.007 -0.3513 -0.8495 -0.7414
35503SOL    HW215478  11.311   9.431  10.099 -1.2350  0.8495  1.3108
35504SOL     OW15479   2.960   3.545  12.120 -0.1010  0.7653 -0.6839
35504SOL    HW115480   2.952   3.574  12.029 -4.5975  2.8530  0.0799
35504SOL    HW215481   2.939   3.623  12.172 -1.1567 -1.1163  1.9749
35505SOL     OW15482   8.336   4.350   5.911  0.1491  0.2000  0.4662
35505SOL    HW115483   8.353   4.430   5.860  1.1562 -0.2295  0.1037
35505SOL    HW215484   8.297   4.289   5.848  3.6416 -1.2056 -0.5372
35506SOL     OW15485   4.958   5.357  10.971 -0.2473 -0.6074  0.5919
35506SOL    HW115486   5.027   5.301  10.935 -0.2898  0.6605 -1.6053
35506SOL    HW215487   4.880   5.335  10.921 -0.1684  1.6160 -0.6402
35507SOL     OW15488   8.295   1.735   6.048  0.9052 -0.7004 -0.0933
35507SOL    HW115489   8.237   1.765   5.978  3.5510  2.2852 -1.2491
35507SOL    HW215490   8.325   1.649   6.020 -0.6087 -0.9854 -0.9303
35508SOL     OW15491   8.801  12.016  12.128  0.2945  0.1731  0.1765
35508SOL    HW115492   8.728  12.023  12.067 -1.7559 -2.8151  2.0315
35508SOL    HW215493   8.870  11.971  12.078  0.0028  0.8771 -0.8917
35509SOL     OW15494   6.516  12.068  10.202  0.3051 -0.0777 -0.4005
35509SOL    HW115495   6.488  12.120  10.277 -3.3283 -0.8871 -0.9863
35509SOL    HW215496   6.526  11.979  10.236  1.1887 -0.0033 -0.4355
35510SOL     OW15497   4.390   7.352   1.368 -0.0456  0.1443 -0.5596
35510SOL    HW115498   4.455   7.338   1.436  0.6769 -1.1627 -1.4778
35510SOL    HW215499   4.310   7.376   1.415  1.3024  2.8643  0.5533
35511SOL     OW15500  12.218  11.562   4.745  0.0157 -0.4397  0.5147
35511SOL    HW115501  12.126  11.547   4.768 -0.0705 -1.7745 -0.6229
35511SOL    HW215502  12.262  11.575   4.830 -0.7925 -2.3056  1.2695
35512SOL     OW15503   6.604  12.387   7.295 -0.0144 -0.2695 -0.5354
35512SOL    HW115504   6.631  12.299   7.319  0.1471  0.1595  0.9115
35512SOL    HW215505   6.567  12.377   7.207  0.6551 -1.6436 -0.6903
35513SOL     OW15506  10.091   3.903   9.784  0.9606  0.0219 -0.1922
35513SOL    HW115507  10.172   3.853   9.792  1.4288  0.7313 -0.3523
35513SOL    HW215508  10.110   3.986   9.830  0.2067  0.0545  0.0721
35514SOL     OW15509   8.097   4.954  11.589  0.3211  0.3192  0.5443
35514SOL    HW115510   8.192   4.956  11.594  0.4461 -0.3187 -1.0979
35514SOL    HW215511   8.072   4.870  11.628  0.4909  0.1314  0.2492
35515SOL     OW15512   2.130   5.648   0.373  0.9700 -0.0264 -0.0403
35515SOL    HW115513   2.054   5.705   0.359  0.6481 -0.8348 -1.7835
35515SOL    HW215514   2.140   5.646   0.468 -1.3276 -0.0417  0.2722
35516SOL     OW15515   3.694  11.233  11.775  0.5013  0.4085  0.4094
35516SOL    HW115516   3.773  11.280  11.801  0.2342  0.8038  0.5082
35516SOL    HW215517   3.639  11.299  11.734 -0.0948  0.2917  1.0167
35517SOL     OW15518   5.561   0.344   4.181 -0.0606 -0.1213 -0.1462
35517SOL    HW115519   5.539   0.258   4.146 -1.1948 -0.5650  1.5558
35517SOL    HW215520   5.507   0.353   4.259  1.4387  1.3540  0.7856
35518SOL     OW15521  10.241  10.602   8.184 -0.4727 -0.9021 -0.5642
35518SOL    HW115522  10.147  10.614   8.197 -0.5905 -0.4087 -1.8187
35518SOL    HW215523  10.281  10.665   8.245 -0.8448 -2.9083  1.9386
35519SOL     OW15524   3.550   4.559   9.677  0.1872  0.0408 -0.8616
35519SOL    HW115525   3.501   4.623   9.728  0.0482  1.0502 -2.2055
35519SOL    HW215526   3.626   4.538   9.732 -1.0946 -0.6511  0.7237
35520SOL     OW15527   8.614   9.021   5.149  0.2363  0.6584  0.0533
35520SOL    HW115528   8.534   9.066   5.122  0.6485  0.5461 -1.4180
35520SOL    HW215529   8.653   8.989   5.068  2.6846  2.1677  0.5001
35521SOL     OW15530   0.105   5.332  11.995 -0.3834 -0.5329  0.0690
35521SOL    HW115531   0.061   5.277  11.931  0.0692  0.0287 -0.7385
35521SOL    HW215532   0.197   5.330  11.970 -0.4012  0.8476 -0.1947
35522SOL     OW15533   5.390   4.576   3.705  0.0368 -0.5848 -0.0984
35522SOL    HW115534   5.331   4.540   3.772 -1.0642 -0.0154 -0.7201
35522SOL    HW215535   5.424   4.500   3.659 -1.3496 -0.9034 -0.6492
35523SOL     OW15536   7.216   0.066  11.503  0.3107 -0.2406  0.3291
35523SOL    HW115537   7.252   0.045  11.417  0.8153 -2.4592  1.0158
35523SOL    HW215538   7.261   0.146  11.529 -1.3112  1.6684 -2.2621
35524SOL     OW15539   4.270   8.931   7.861  0.0325  0.0066  0.1606
35524SOL    HW115540   4.257   8.868   7.932  0.1901  0.6545  0.7746
35524SOL    HW215541   4.184   8.969   7.846 -0.3653 -1.2724 -1.1294
35525SOL     OW15542   4.980   4.111   4.626  0.8823 -0.2692  0.0765
35525SOL    HW115543   4.945   4.162   4.699 -0.6253 -0.0807 -0.7361
35525SOL    HW215544   5.057   4.067   4.662  1.4581  1.5339  1.1673
35526SOL     OW15545  10.896   5.688  10.327 -0.1091 -0.1812 -0.2006
35526SOL    HW115546  10.810   5.686  10.369 -0.0888 -0.1649 -0.1577
35526SOL    HW215547  10.882   5.742  10.249 -0.6612 -1.9307 -1.3756
35527SOL     OW15548   6.708   8.099   5.804 -0.7147 -0.9647 -0.2319
35527SOL    HW115549   6.802   8.093   5.788 -0.5602 -0.5586  0.4749
35527SOL    HW215550   6.696   8.186   5.844 -1.0607 -1.8811  1.7820
35528SOL     OW15551   7.630   2.977   8.002  0.1715 -0.2969  0.4788
35528SOL    HW115552   7.639   3.072   8.017 -0.6839  0.2689 -2.1005
35528SOL    HW215553   7.717   2.949   7.973  0.2401 -0.1669  0.5547
35529SOL     OW15554  12.001   3.813   5.959  0.0201  0.2057  0.1523
35529SOL    HW115555  11.987   3.784   6.050  0.7140 -0.2789  0.1129
35529SOL    HW215556  12.008   3.732   5.909  0.2739  0.4668 -0.2396
35530SOL     OW15557  10.464   2.419   1.672 -0.3642 -0.3744  0.2667
35530SOL    HW115558  10.394   2.407   1.608  1.3817  0.1293 -1.8315
35530SOL    HW215559  10.428   2.482   1.735 -1.8365 -0.2489 -0.6593
35531SOL     OW15560   2.333  11.489   2.757 -0.3587  0.5912  0.0629
35531SOL    HW115561   2.341  11.564   2.815  0.3228 -0.0285  0.7845
35531SOL    HW215562   2.259  11.511   2.700 -0.9636  1.2626  1.0688
35532SOL     OW15563  11.812   7.112   8.662 -0.2296  0.1923  0.8802
35532SOL    HW115564  11.794   7.186   8.720 -0.4163 -0.3284  1.4967
35532SOL    HW215565  11.875   7.146   8.599 -1.5471  1.3468  0.1550
35533SOL     OW15566   9.611   3.939   4.255  0.4179 -0.6213  0.1814
35533SOL    HW115567   9.686   3.882   4.236 -0.5582 -1.5342 -1.1240
35533SOL    HW215568   9.586   3.975   4.170 -1.5598 -1.5448  0.3283
35534SOL     OW15569   6.578   1.168   1.877 -0.1524  0.1136  0.2266
35534SOL    HW115570   6.631   1.102   1.832 -0.6183  1.1146 -1.9162
35534SOL    HW215571   6.523   1.118   1.937  0.8355 -1.2406  0.0567
35535SOL     OW15572  11.313   6.755   1.024  0.1665  0.3932 -0.4486
35535SOL    HW115573  11.303   6.662   1.003  1.1561 -0.0271  0.7846
35535SOL    HW215574  11.260   6.801   0.958 -2.0853 -1.1232  0.1888
35536SOL     OW15575   2.552   7.217   8.719  0.2480 -0.5802 -0.1810
35536SOL    HW115576   2.620   7.234   8.785  1.9611 -1.3219 -1.6690
35536SOL    HW215577   2.502   7.144   8.754 -1.0921  1.1825  1.8328
35537SOL     OW15578   6.959   7.957   7.952  0.3946 -0.4782  0.0100
35537SOL    HW115579   6.944   7.889   7.886  1.3268 -0.9631  0.2747
35537SOL    HW215580   6.892   7.942   8.018 -0.8753  0.3295 -1.0452
35538SOL     OW15581   6.250   8.683   9.793 -0.2572  0.6682  0.3293
35538SOL    HW115582   6.161   8.682   9.758 -1.4300 -1.1449  3.0319
35538SOL    HW215583   6.281   8.593   9.781  0.3079  0.7027  1.4526
35539SOL     OW15584   9.780   5.854  12.201  0.5551 -0.2988 -0.0196
35539SOL    HW115585   9.824   5.774  12.171  1.4108  0.5189 -1.0384
35539SOL    HW215586   9.835   5.925  12.168 -0.9176  0.7387 -0.3219
35540SOL     OW15587   6.015   0.717   4.003 -0.5313 -0.3020 -0.1708
35540SOL    HW115588   6.087   0.778   4.016  1.0053 -2.2111  0.8650
35540SOL    HW215589   5.992   0.727   3.910 -0.9622  2.3930  0.1556
35541SOL     OW15590   2.080   2.263   3.086  0.0603 -0.8589 -0.3140
35541SOL    HW115591   2.054   2.225   3.169 -1.0565 -1.7413 -1.0390
35541SOL    HW215592   2.045   2.203   3.020 -1.2430  1.1074 -1.5062
35542SOL     OW15593   2.954   7.096  10.807 -0.2050 -0.8606  0.0757
35542SOL    HW115594   3.023   7.131  10.863 -0.3256  0.1811 -0.4029
35542SOL    HW215595   2.972   7.002  10.802  1.0551 -0.6416  0.1270
35543SOL     OW15596  10.855   4.556   4.201  0.7897  0.1825 -0.6911
35543SOL    HW115597  10.786   4.566   4.267  1.4718 -0.9559  0.2264
35543SOL    HW215598  10.913   4.490   4.236  3.0421  1.9301 -0.8750
35544SOL     OW15599   2.591   2.554   4.605  0.4001  0.2039  0.4219
35544SOL    HW115600   2.513   2.604   4.579  1.5764  1.7352 -0.3435
35544SOL    HW215601   2.664   2.605   4.572  1.7482 -1.3299  0.8953
35545SOL     OW15602   4.700  12.107   6.378 -0.2372 -0.4178 -0.0117
35545SOL    HW115603   4.720  12.024   6.421 -1.6888 -1.0003 -0.4093
35545SOL    HW215604   4.785  12.140   6.349  0.5007 -1.1322  1.2654
35546SOL     OW15605   7.682  10.486   3.407 -0.6311 -0.0211 -0.3993
35546SOL    HW115606   7.652  10.439   3.330 -1.3240 -1.8764  0.9197
35546SOL    HW215607   7.628  10.452   3.479 -0.2174  1.8300  0.8733
35547SOL     OW15608   5.348  11.835   9.330 -0.4412 -0.6678  0.1349
35547SOL    HW115609   5.308  11.766   9.277  0.2152 -0.4958 -0.5926
35547SOL    HW215610   5.309  11.824   9.417 -3.3021  0.4463 -0.8801
35548SOL     OW15611   1.840   6.265  12.482 -0.1611 -0.1007  0.1419
35548SOL    HW115612   1.825   6.335  12.418 -0.1853 -3.1356 -3.4415
35548SOL    HW215613   1.762   6.267  12.538 -1.4605  0.9807 -1.6085
35549SOL     OW15614  11.459  12.547   3.276  0.1634 -0.5027 -0.1978
35549SOL    HW115615  11.380  12.521   3.229 -0.3593 -1.1156  0.9682
35549SOL    HW215616  11.507  12.602   3.214 -1.1976 -0.0613 -0.9065
35550SOL     OW15617  11.703  10.610   1.665  0.2879 -0.4383  0.5060
35550SOL    HW115618  11.658  10.693   1.681  2.4683  1.2786 -1.5644
35550SOL    HW215619  11.672  10.582   1.579 -0.6399 -1.9789  1.3092
35551SOL     OW15620   7.860   7.192   4.674  0.7254  0.0657 -0.0583
35551SOL    HW115621   7.873   7.257   4.605  2.6562 -1.7275 -1.5249
35551SOL    HW215622   7.820   7.117   4.630 -2.8063  0.5904  1.8636
35552SOL     OW15623   6.559   0.099   8.488  0.7445 -0.1265 -0.1691
35552SOL    HW115624   6.632   0.065   8.539  0.7958 -1.1773 -0.9201
35552SOL    HW215625   6.600   0.157   8.424  0.8340 -0.0494 -0.0421
35553SOL     OW15626  11.798  11.904   3.975 -0.3012  0.0104 -0.0256
35553SOL    HW115627  11.864  11.973   3.982 -0.0235 -0.3680  1.7124
35553SOL    HW215628  11.731  11.939   3.917  0.4697  1.2064 -0.2148
35554SOL     OW15629   1.596  11.523   5.787 -0.2297 -0.3175 -0.1503
35554SOL    HW115630   1.609  11.510   5.693 -1.4451  0.3501 -0.4310
35554SOL    HW215631   1.522  11.584   5.793 -0.0199 -0.1655  1.2378
35555SOL     OW15632   3.460   0.514  10.728 -0.2054  0.3163  0.2947
35555SOL    HW115633   3.374   0.532  10.766 -0.6965 -0.2690 -0.4999
35555SOL    HW215634   3.522   0.535  10.797 -1.0458 -0.3848  1.2958
35556SOL     OW15635   2.428   4.216   7.337 -0.0507  0.3462 -0.3037
35556SOL    HW115636   2.424   4.241   7.430 -0.3387 -3.1348  0.7849
35556SOL    HW215637   2.354   4.156   7.326  0.7853 -0.3727 -2.4218
35557SOL     OW15638   3.647   1.357  10.413  0.1268  0.5370 -0.2591
35557SOL    HW115639   3.626   1.271  10.450  2.5401 -0.4637 -1.0195
35557SOL    HW215640   3.576   1.413  10.443 -0.2132 -1.1158  2.4496
35558SOL     OW15641  11.674   3.525   5.164  0.0177 -0.1079  0.4868
35558SOL    HW115642  11.707   3.537   5.075 -0.3593  0.2989  0.3946
35558SOL    HW215643  11.747   3.550   5.220 -0.3351  1.4474  0.2886
35559SOL     OW15644   6.507   8.832   2.518  0.5153  0.6918  0.4557
35559SOL    HW115645   6.503   8.738   2.502  0.3532  0.5612  1.2044
35559SOL    HW215646   6.596   8.857   2.495  0.6483  0.2956  0.5384
35560SOL     OW15647   9.215  11.540   2.876  0.4838  0.5408 -0.1798
35560SOL    HW115648   9.296  11.549   2.926  0.0018  0.7110  0.5955
35560SOL    HW215649   9.210  11.447   2.855  1.4725  0.7100 -1.2845
35561SOL     OW15650   6.814  11.477   5.995  0.7405 -0.3374 -0.2469
35561SOL    HW115651   6.869  11.437   5.927 -1.4661 -1.6435 -1.3520
35561SOL    HW215652   6.793  11.406   6.055 -0.3801 -0.0629 -0.2902
35562SOL     OW15653   6.317   8.225   7.258 -0.0559  0.7305 -0.0747
35562SOL    HW115654   6.304   8.304   7.207  0.2002  1.0149  0.2959
35562SOL    HW215655   6.278   8.244   7.343  0.7446  0.7730  0.2959
35563SOL     OW15656   2.325   9.908   5.226 -0.2202  0.5313  0.1961
35563SOL    HW115657   2.336   9.985   5.282  0.2763  0.2592  0.4713
35563SOL    HW215658   2.231   9.890   5.228 -0.3891  1.3307 -0.1394
35564SOL     OW15659   1.681   0.768   7.220 -0.5042  0.8163 -0.1137
35564SOL    HW115660   1.777   0.771   7.213 -0.5498  1.6840 -0.5697
35564SOL    HW215661   1.651   0.775   7.129 -0.9982  0.2225  0.0023
35565SOL     OW15662   7.854   7.513   3.559  0.6877 -0.3078 -0.3894
35565SOL    HW115663   7.889   7.601   3.573 -1.7749  0.5737  0.9471
35565SOL    HW215664   7.859   7.471   3.645 -0.1954 -0.6443 -0.4950
35566SOL     OW15665   7.772   9.253  12.278 -0.5058  0.6900 -0.6755
35566SOL    HW115666   7.687   9.287  12.250 -0.2890  2.5681  0.7406
35566SOL    HW215667   7.829   9.330  12.280  0.7766 -0.2391  0.0084
35567SOL     OW15668   6.373  10.848   0.955 -1.2169  0.3770 -0.4522
35567SOL    HW115669   6.393  10.912   1.023 -0.5574 -0.5007  0.2067
35567SOL    HW215670   6.312  10.787   0.996 -1.5649  0.3820 -0.9573
35568SOL     OW15671   2.798  12.571   1.789 -0.4380  0.0346  0.6498
35568SOL    HW115672   2.837  12.486   1.809 -0.3481 -0.4552 -1.3675
35568SOL    HW215673   2.856  12.609   1.724 -0.7019  1.4910  1.2288
35569SOL     OW15674   7.921   3.788   0.493  0.5140 -0.3595 -0.4243
35569SOL    HW115675   7.867   3.749   0.562 -0.2692  1.5280  0.1205
35569SOL    HW215676   7.954   3.869   0.533  0.7444  0.3416 -1.9814
35570SOL     OW15677  10.536  10.868   7.609  0.4941 -0.3779 -0.5693
35570SOL    HW115678  10.504  10.778   7.599  2.6962 -1.1432 -1.2403
35570SOL    HW215679  10.626  10.865   7.577  0.8215  1.9492 -0.0146
35571SOL     OW15680   3.239   7.760   6.185 -0.2243 -0.4658  1.0052
35571SOL    HW115681   3.148   7.743   6.211 -1.1022 -0.0005 -1.4622
35571SOL    HW215682   3.256   7.697   6.116 -0.0737  1.9188 -1.2643
35572SOL     OW15683  11.018   1.683   0.524  0.3195  0.2426  0.0078
35572SOL    HW115684  11.105   1.678   0.564  0.1245 -0.7253  0.3440
35572SOL    HW215685  11.035   1.697   0.431  0.7927  2.0127  0.3146
35573SOL     OW15686   2.688   1.027   4.372  0.2376  0.0046 -0.5695
35573SOL    HW115687   2.681   1.104   4.316  1.5516  1.2484  0.8934
35573SOL    HW215688   2.687   1.062   4.461 -0.7440 -1.8291  0.2008
35574SOL     OW15689   7.422  10.383   0.994 -0.0353 -0.5718 -0.6747
35574SOL    HW115690   7.403  10.423   1.079  1.8658  0.4429 -0.6930
35574SOL    HW215691   7.336  10.380   0.950 -0.5446  2.0405 -0.0432
35575SOL     OW15692  11.228   0.250  10.696  0.1782  0.1486 -0.3871
35575SOL    HW115693  11.162   0.285  10.755  1.1511  1.7138 -0.1782
35575SOL    HW215694  11.309   0.296  10.720  0.9953 -0.5350 -1.7062
35576SOL     OW15695   9.855   5.647  10.942 -0.3428  0.4698 -0.3319
35576SOL    HW115696   9.889   5.560  10.922  0.2175  0.5718  0.1552
35576SOL    HW215697   9.870   5.697  10.862  1.5430  0.7701  0.1734
35577SOL     OW15698   8.216   9.835   9.904 -0.4371 -0.2802 -0.1439
35577SOL    HW115699   8.198   9.854   9.996 -1.2869  0.8023 -0.5072
35577SOL    HW215700   8.306   9.804   9.903  0.0361  0.9522  0.8972
35578SOL     OW15701   1.277  11.702  10.206 -0.1293 -0.0722 -0.2500
35578SOL    HW115702   1.182  11.711  10.215 -0.1115 -0.2933  0.1788
35578SOL    HW215703   1.308  11.790  10.184 -0.5765 -0.2573 -1.7280
35579SOL     OW15704   6.807   0.475  12.589  0.6730 -0.1404 -0.1064
35579SOL    HW115705   6.734   0.420  12.560  0.4668  1.4929 -3.0515
35579SOL    HW215706   6.765   0.549  12.633  0.7018 -0.2633  0.1298
35580SOL     OW15707   2.654   8.966   2.475  0.0492 -0.2504 -0.2396
35580SOL    HW115708   2.676   8.873   2.479 -0.6255 -0.4007  0.0782
35580SOL    HW215709   2.605   8.975   2.393  0.1573 -0.1598 -0.2952
35581SOL     OW15710   9.564   8.744   1.860 -0.4168 -0.0355  0.1987
35581SOL    HW115711   9.504   8.819   1.855 -0.3558 -0.0716 -2.1392
35581SOL    HW215712   9.541   8.689   1.785  1.6284 -0.7313  0.0057
35582SOL     OW15713   8.396   1.192   4.691 -0.0217  0.7470 -0.1644
35582SOL    HW115714   8.308   1.191   4.730  0.6304 -0.2404  1.3862
35582SOL    HW215715   8.387   1.144   4.609 -0.5499 -1.2818  0.9993
35583SOL     OW15716   2.747   0.411   2.755  0.0817 -0.1281  0.2001
35583SOL    HW115717   2.841   0.400   2.740  0.4031  0.6740  1.4007
35583SOL    HW215718   2.708   0.413   2.668  1.1584 -0.6419 -0.3073
35584SOL     OW15719   1.533   4.650   5.301 -0.3321 -0.6831  0.2952
35584SOL    HW115720   1.439   4.658   5.317 -0.5980  1.3732 -1.7660
35584SOL    HW215721   1.540   4.577   5.241 -0.7417 -0.2789 -0.2594
35585SOL     OW15722   2.566   9.618   9.202 -0.0584  0.1264 -0.3508
35585SOL    HW115723   2.511   9.583   9.131  0.6166 -1.9789  0.0836
35585SOL    HW215724   2.645   9.565   9.198  0.4493  0.7109  1.2843
35586SOL     OW15725   2.900   2.674   1.855 -0.3247  0.0411  0.0756
35586SOL    HW115726   2.904   2.756   1.905 -0.0418 -0.7617  1.4427
35586SOL    HW215727   2.817   2.635   1.881  0.1080 -0.6804  0.4129
35587SOL     OW15728   5.722  10.822   5.669 -1.0570  0.1787  0.0646
35587SOL    HW115729   5.674  10.740   5.655 -1.4372  0.3484  0.3714
35587SOL    HW215730   5.672  10.887   5.619 -1.1563  0.3581  0.4000
35588SOL     OW15731   0.703   3.999   4.462 -0.6081  0.2669  0.8120
35588SOL    HW115732   0.653   3.924   4.430 -0.9200  1.5530 -2.0100
35588SOL    HW215733   0.774   3.960   4.514 -1.8316 -1.8275  1.0197
35589SOL     OW15734  10.360  10.158   1.046  0.5331  0.1797  0.1738
35589SOL    HW115735  10.444  10.179   1.006  1.1486 -0.3587  1.1210
35589SOL    HW215736  10.295  10.200   0.991  1.3923  0.1584 -0.8857
35590SOL     OW15737   0.297   2.688   0.162  0.1556 -0.0257 -0.3398
35590SOL    HW115738   0.374   2.639   0.189 -1.1948 -1.0513  1.9970
35590SOL    HW215739   0.320   2.779   0.176  0.6581 -0.3716  1.2478
35591SOL     OW15740   7.341   6.828   4.915 -0.2137 -0.2864 -0.1781
35591SOL    HW115741   7.377   6.749   4.876 -2.2244 -0.0155 -2.8505
35591SOL    HW215742   7.385   6.900   4.870 -1.8722  0.0429 -1.3568
35592SOL     OW15743   5.999   9.952   2.014 -0.0478  0.7633  0.1265
35592SOL    HW115744   6.060  10.017   2.050  1.8884 -0.7483 -0.2180
35592SOL    HW215745   5.979   9.895   2.088 -0.7318  1.0157  0.1388
35593SOL     OW15746   9.381   5.097   2.441  0.3420  0.0010 -0.2001
35593SOL    HW115747   9.296   5.132   2.415 -0.1505 -1.0263 -0.0294
35593SOL    HW215748   9.436   5.104   2.363 -0.1088  0.0451 -0.5150
35594SOL     OW15749  10.202  12.061  10.949 -0.0961  0.4623 -0.0734
35594SOL    HW115750  10.223  12.031  10.861  1.1324 -1.7686  0.9051
35594SOL    HW215751  10.106  12.061  10.952 -0.1439 -0.5800 -1.0642
35595SOL     OW15752   6.659   8.185   3.001  0.1818 -0.3489 -0.3187
35595SOL    HW115753   6.605   8.140   2.936 -0.6299 -1.4355  1.0471
35595SOL    HW215754   6.598   8.241   3.049  0.9504  1.2407 -1.1112
35596SOL     OW15755  12.130   2.406   6.927  0.0401 -0.3199  0.3312
35596SOL    HW115756  12.202   2.425   6.988  0.2601 -1.3557  0.4060
35596SOL    HW215757  12.056   2.457   6.961 -0.1615 -1.6963  2.1343
35597SOL     OW15758   7.317   2.206  11.648 -0.4963  0.1207 -0.4820
35597SOL    HW115759   7.242   2.150  11.632  0.3363 -0.8995 -0.9401
35597SOL    HW215760   7.376   2.189  11.574  0.4428  0.4480  0.1656
35598SOL     OW15761  10.078  10.270   8.035 -0.5912 -0.0801 -0.5982
35598SOL    HW115762  10.031  10.337   7.986 -0.5721 -0.8605 -1.7198
35598SOL    HW215763  10.169  10.279   8.008 -0.3489  0.3746  0.3449
35599SOL     OW15764   3.999   1.624   7.612  0.0741 -0.8153  0.3935
35599SOL    HW115765   3.947   1.695   7.574 -0.4254 -0.2932  1.9567
35599SOL    HW215766   4.089   1.658   7.613 -0.1781 -0.1078  1.2393
35600SOL     OW15767  10.906   1.785   7.351  0.0701 -0.2681 -0.2245
35600SOL    HW115768  10.943   1.725   7.287  1.0637  0.1983 -0.0917
35600SOL    HW215769  10.882   1.863   7.301 -0.2216 -0.3453 -0.2111
35601SOL     OW15770   2.910   1.222   4.577 -0.0263 -0.2855  0.1885
35601SOL    HW115771   2.824   1.196   4.609 -0.8786  0.3436 -1.4676
35601SOL    HW215772   2.900   1.227   4.482  1.4799  1.0607  0.0529
35602SOL     OW15773  11.552  12.590   8.378 -0.1438  0.2742 -0.1039
35602SOL    HW115774  11.518  12.501   8.379  0.4826  0.0245 -0.5227
35602SOL    HW215775  11.512  12.630   8.300 -0.1622  0.2602 -0.1022
35603SOL     OW15776  10.173   0.780   3.513  0.4613  0.6796 -0.1354
35603SOL    HW115777  10.077   0.775   3.517  0.4625 -1.1925 -1.3381
35603SOL    HW215778  10.194   0.764   3.421  2.0369 -3.1257  0.7152
35604SOL     OW15779   5.517   0.415   6.260 -0.9244 -0.3384 -0.5340
35604SOL    HW115780   5.514   0.390   6.352 -1.1146  1.0853 -0.1396
35604SOL    HW215781   5.472   0.343   6.215  1.2624 -2.2626  0.1558
35605SOL     OW15782   5.496   1.403   5.873  0.0773  0.4251 -0.2213
35605SOL    HW115783   5.569   1.344   5.855 -0.4426 -0.3732  0.2581
35605SOL    HW215784   5.449   1.408   5.790 -0.2314 -0.3364 -0.0975
35606SOL     OW15785   1.112   1.398   7.184  0.2177  0.1587  0.5247
35606SOL    HW115786   1.186   1.339   7.168  0.3410  0.1356  1.1396
35606SOL    HW215787   1.042   1.341   7.214  0.3758  0.3306  1.2420
35607SOL     OW15788   0.393  10.492   1.411  0.2223 -0.2860  0.5575
35607SOL    HW115789   0.446  10.420   1.376 -0.4789 -0.1685 -0.8012
35607SOL    HW215790   0.325  10.448   1.462  1.7641 -0.4271  2.6221
35608SOL     OW15791   0.464   1.411   9.413 -0.6767 -0.2249 -0.1502
35608SOL    HW115792   0.405   1.456   9.475  1.3073  0.1570  1.5793
35608SOL    HW215793   0.463   1.466   9.335  0.0071  1.7189  1.1361
35609SOL     OW15794   2.061   7.786   3.517 -0.5550 -0.5059 -0.1420
35609SOL    HW115795   1.994   7.783   3.586 -0.6174 -3.2146 -0.2111
35609SOL    HW215796   2.016   7.825   3.442 -1.1323  0.4889  0.6996
35610SOL     OW15797   0.122   3.782  12.462  0.6766 -0.2366 -0.0908
35610SOL    HW115798   0.100   3.778  12.556  1.3351  0.1295  0.0856
35610SOL    HW215799   0.159   3.870  12.450 -0.3655  0.1043 -0.9124
35611SOL     OW15800   4.655   3.152   6.115 -0.0462  0.0152  0.3188
35611SOL    HW115801   4.732   3.145   6.060  0.7215 -1.2266  1.4809
35611SOL    HW215802   4.590   3.096   6.073 -0.2676  0.9242 -0.5665
35612SOL     OW15803   1.792  10.109   9.486  0.2955  0.3324 -0.3364
35612SOL    HW115804   1.731  10.163   9.435 -0.3146 -0.3080 -0.3081
35612SOL    HW215805   1.827  10.046   9.424  1.9245  1.4835 -0.6384
35613SOL     OW15806   9.572   7.981   2.855 -0.1909  0.2107 -0.1214
35613SOL    HW115807   9.641   7.959   2.917 -0.2266  0.8137  0.1377
35613SOL    HW215808   9.504   7.916   2.870  0.9828 -1.4138 -1.5006
35614SOL     OW15809   0.728   9.177  12.593 -0.4144  0.6292 -0.2282
35614SOL    HW115810   0.761   9.265  12.610 -0.7618  1.0042 -1.4193
35614SOL    HW215811   0.781   9.144  12.521 -0.7171  0.1173 -0.2233
35615SOL     OW15812   9.992   5.907   5.823  0.1383 -0.0773 -0.1126
35615SOL    HW115813   9.966   5.842   5.759  2.5934 -0.2891 -0.9875
35615SOL    HW215814  10.004   5.987   5.773 -1.0059  0.6133  0.6543
35616SOL     OW15815   7.204   1.883   1.869  0.2231  0.2391 -0.1038
35616SOL    HW115816   7.242   1.936   1.938 -0.1366 -1.6387  1.6476
35616SOL    HW215817   7.273   1.874   1.804  0.4025  2.4680 -0.2949
35617SOL     OW15818   3.548   1.494   5.493  0.1363  0.4777 -0.8784
35617SOL    HW115819   3.457   1.519   5.481  0.3134  1.7570  0.2217
35617SOL    HW215820   3.588   1.568   5.538  1.6893 -0.1219 -1.2007
35618SOL     OW15821   4.465  11.052   5.260  0.2095 -0.3947  0.0141
35618SOL    HW115822   4.481  11.017   5.172 -0.0328  0.9883 -0.6183
35618SOL    HW215823   4.374  11.082   5.258  0.7492  1.3529  0.0939
35619SOL     OW15824  11.288   1.150   0.848  0.4084  0.4210  0.2462
35619SOL    HW115825  11.311   1.143   0.755 -0.5950  0.7754 -0.0451
35619SOL    HW215826  11.276   1.059   0.877  0.2068  0.3343 -0.1069
35620SOL     OW15827   6.719   8.285   6.513 -0.4159 -0.5310  0.1681
35620SOL    HW115828   6.716   8.218   6.582  0.4033  0.9933  1.7858
35620SOL    HW215829   6.718   8.368   6.561  0.2566  0.6008 -1.6775
35621SOL     OW15830   9.784  10.994   3.072 -0.0944 -0.0906  0.5767
35621SOL    HW115831   9.720  10.986   3.001 -1.2058  1.4066  1.3555
35621SOL    HW215832   9.851  11.052   3.037 -0.2355 -0.0023  0.4492
35622SOL     OW15833  11.939   6.698   2.474  0.0334  0.0160 -0.2991
35622SOL    HW115834  11.939   6.603   2.488  0.2654  0.0837  0.1731
35622SOL    HW215835  11.897   6.709   2.389 -0.1930 -0.4965 -0.2597
35623SOL     OW15836   9.168   6.534   3.517  0.2454  0.0442 -0.0741
35623SOL    HW115837   9.178   6.440   3.532  0.0472 -0.1801 -1.2899
35623SOL    HW215838   9.158   6.571   3.605  2.2989 -0.8299  0.5918
35624SOL     OW15839   6.499  10.034   7.933  0.2852  0.3581 -0.2891
35624SOL    HW115840   6.446   9.961   7.966 -0.3985  0.2433 -1.5805
35624SOL    HW215841   6.574   9.992   7.892 -0.8751  0.2287 -2.4264
35625SOL     OW15842   4.919   5.114   6.356  0.0371 -0.1936  0.1820
35625SOL    HW115843   4.951   5.199   6.325  0.7797 -0.6527 -0.3450
35625SOL    HW215844   4.824   5.120   6.348  0.1547  0.0476 -1.3188
35626SOL     OW15845   1.231   3.263   3.782 -0.0575  0.0827 -0.1417
35626SOL    HW115846   1.169   3.214   3.728  0.1503 -0.7107  0.3269
35626SOL    HW215847   1.186   3.277   3.865  0.6297 -1.1275  0.4625
35627SOL     OW15848   9.666  12.471   1.115 -0.1966  0.4119 -0.0629
35627SOL    HW115849   9.667  12.498   1.023  0.6151 -0.9773 -0.4916
35627SOL    HW215850   9.706  12.384   1.115 -1.3178 -0.1455  1.4536
35628SOL     OW15851  11.602   9.698   1.447 -0.2267  0.4484 -0.0308
35628SOL    HW115852  11.531   9.698   1.511  1.4409 -0.0624  1.9446
35628SOL    HW215853  11.579   9.630   1.385 -0.7463 -0.8338  1.4886
35629SOL     OW15854   2.343   4.939   2.854  0.1016 -0.0424 -0.3945
35629SOL    HW115855   2.367   4.863   2.802 -0.9811 -0.4151 -0.3796
35629SOL    HW215856   2.352   4.909   2.945  0.7247  0.1957 -0.3740
35630SOL     OW15857   8.882   5.954   2.254 -0.3024 -0.6619  0.9039
35630SOL    HW115858   8.801   5.987   2.214  1.3734  1.4570 -0.9396
35630SOL    HW215859   8.878   5.985   2.344 -0.0742  2.4850 -0.0420
35631SOL     OW15860   1.691   2.788   9.630 -0.0309  0.3193  0.4984
35631SOL    HW115861   1.783   2.809   9.611 -0.5238  0.8304 -1.6590
35631SOL    HW215862   1.676   2.704   9.587 -0.2095 -0.5753  2.2066
35632SOL     OW15863  11.401   3.583  10.688 -0.1617 -0.5491 -0.1328
35632SOL    HW115864  11.395   3.626  10.603 -0.1874  0.1077  0.1943
35632SOL    HW215865  11.484   3.535  10.685  0.0574 -0.1577 -0.3556
35633SOL     OW15866   8.573   5.269  10.814  0.0923 -0.2909  1.2971
35633SOL    HW115867   8.664   5.277  10.844  0.6093  1.6206 -0.5654
35633SOL    HW215868   8.542   5.359  10.806 -1.3633 -0.8586  0.1656
35634SOL     OW15869  11.150   8.503  12.002 -0.3045  0.2652 -0.3685
35634SOL    HW115870  11.157   8.565  12.074 -2.4529  4.1556 -3.1324
35634SOL    HW215871  11.238   8.496  11.966  0.5743 -0.8958  1.8311
35635SOL     OW15872   0.838   5.819   6.589  0.5108  0.9767  0.2504
35635SOL    HW115873   0.914   5.770   6.558  0.7283  0.8997  0.8947
35635SOL    HW215874   0.819   5.880   6.518 -0.4952 -0.8036 -1.0687
35636SOL     OW15875   6.698   5.425   4.639 -0.6128  0.1538 -0.2286
35636SOL    HW115876   6.643   5.388   4.570 -1.5976  2.1326 -0.5667
35636SOL    HW215877   6.671   5.378   4.718 -1.1829 -0.4698 -0.7781
35637SOL     OW15878   2.572  12.050  10.494 -0.2490 -0.5805 -0.3820
35637SOL    HW115879   2.515  12.126  10.484  0.8003  0.3389  0.3999
35637SOL    HW215880   2.512  11.975  10.487 -1.2002  0.2638 -1.8482
35638SOL     OW15881   0.733   8.582  11.874  0.6002 -0.1114 -0.2557
35638SOL    HW115882   0.729   8.619  11.786 -0.7294 -1.1532 -0.6645
35638SOL    HW215883   0.789   8.642  11.923 -0.0471  1.4406 -1.3487
35639SOL     OW15884   4.605   3.748   5.900  0.0128  0.4453 -0.0207
35639SOL    HW115885   4.642   3.660   5.899 -0.7426  0.1132 -1.8832
35639SOL    HW215886   4.584   3.767   5.809 -3.4630  1.0118  0.7495
35640SOL     OW15887   7.594  11.949   4.258  0.3556 -0.2530  0.5421
35640SOL    HW115888   7.617  12.027   4.310  1.6405 -1.1068  1.3274
35640SOL    HW215889   7.567  11.884   4.323  1.8832 -1.3064  0.1762
35641SOL     OW15890   8.470  11.484   2.264 -0.2197 -0.3969 -0.0736
35641SOL    HW115891   8.528  11.559   2.273 -0.4913 -0.4221  2.8433
35641SOL    HW215892   8.384  11.522   2.244 -0.3990  0.1789  1.5880
35642SOL     OW15893  10.990  12.285   2.992 -0.1724  0.5000  0.2148
35642SOL    HW115894  11.015  12.294   2.899  0.5296  0.1880  0.3626
35642SOL    HW215895  10.973  12.192   3.003 -0.0547  0.5064  0.4449
35643SOL     OW15896  10.174   3.118   9.410  0.3021  0.0721 -0.0967
35643SOL    HW115897  10.106   3.175   9.448  0.7480 -0.3027  1.3252
35643SOL    HW215898  10.181   3.147   9.319 -0.5951  1.2348  0.1747
35644SOL     OW15899   9.467   0.350  11.500  0.3359 -0.0586  0.6605
35644SOL    HW115900   9.471   0.414  11.430 -0.8930  0.1671  0.7825
35644SOL    HW215901   9.512   0.393  11.574  0.6548  0.1394  0.3546
35645SOL     OW15902   6.784   9.730  12.528  0.0445 -0.0985  0.3071
35645SOL    HW115903   6.760   9.822  12.541  2.3456  0.6517 -0.2747
35645SOL    HW215904   6.767   9.715  12.435 -0.2612 -0.2357  0.3863
35646SOL     OW15905  12.355   3.102   8.008  0.4774  0.2598 -0.6172
35646SOL    HW115906  12.448   3.123   8.022  1.0464 -0.4058 -2.8873
35646SOL    HW215907  12.340   3.024   8.061  1.5826 -0.3167 -1.1032
35647SOL     OW15908   4.342   9.397   5.004 -0.3279  0.2597  0.3511
35647SOL    HW115909   4.252   9.366   5.013 -0.5647  0.8385  0.0414
35647SOL    HW215910   4.373   9.356   4.924 -0.0386 -0.5796  0.8787
35648SOL     OW15911  10.736   5.431   1.268  0.0437 -0.4194 -0.2343
35648SOL    HW115912  10.814   5.389   1.231 -0.6657  0.0424 -2.3434
35648SOL    HW215913  10.663   5.376   1.239 -0.5031 -0.5047  1.2116
35649SOL     OW15914   4.026   2.055  11.845  0.1483  0.2546  0.4275
35649SOL    HW115915   4.083   2.011  11.782 -1.0438 -1.7299  0.6463
35649SOL    HW215916   4.037   2.148  11.826  0.8125 -0.2221 -1.8454
35650SOL     OW15917   8.797   5.794  10.496 -0.6691 -0.3405 -0.1084
35650SOL    HW115918   8.765   5.725  10.438 -1.6906  0.5655 -0.6505
35650SOL    HW215919   8.724   5.812  10.555  0.0061 -0.5390  0.8205
35651SOL     OW15920   0.892   4.334  10.900  0.3711  0.2801 -0.1891
35651SOL    HW115921   0.967   4.321  10.842  1.0701  0.3114  0.6865
35651SOL    HW215922   0.838   4.256  10.887  0.5637  0.2436 -0.8016
35652SOL     OW15923  10.357  11.752   5.664  0.1672 -0.9076  0.4721
35652SOL    HW115924  10.374  11.769   5.571 -0.0424 -2.3931  0.1375
35652SOL    HW215925  10.271  11.789   5.680  1.8380  3.2502  1.2249
35653SOL     OW15926   9.710   4.219  10.288  0.0986 -0.5026  0.4949
35653SOL    HW115927   9.747   4.247  10.372  1.8305  1.4689 -0.8294
35653SOL    HW215928   9.624   4.261  10.285 -0.3317 -1.2525  1.5867
35654SOL     OW15929   2.685  11.167   9.381  0.8951  0.2434 -0.2881
35654SOL    HW115930   2.662  11.185   9.290  1.6268  0.6604 -0.3951
35654SOL    HW215931   2.617  11.211   9.432 -0.7308 -1.6955 -0.6238
35655SOL     OW15932   7.070   0.613   2.255 -0.2165 -0.2029 -0.1957
35655SOL    HW115933   7.041   0.673   2.324  2.1694  0.1888  0.5922
35655SOL    HW215934   7.057   0.661   2.174 -0.1817  0.6130  0.2697
35656SOL     OW15935   7.832   4.997   2.541  0.4101 -0.1008  0.4691
35656SOL    HW115936   7.871   4.947   2.613 -2.4755 -1.1146  1.4752
35656SOL    HW215937   7.867   5.086   2.551  1.9713 -0.7920  1.5689
35657SOL     OW15938   7.172   2.644   3.080 -0.3344 -0.2111 -0.0654
35657SOL    HW115939   7.229   2.610   3.149 -0.9943 -1.0629  0.0961
35657SOL    HW215940   7.111   2.702   3.126 -1.3328 -1.4586  0.2558
35658SOL     OW15941   8.751  10.386   8.379 -0.1930  0.2150 -0.5965
35658SOL    HW115942   8.786  10.314   8.325 -1.7640 -1.3278  0.3067
35658SOL    HW215943   8.657  10.366   8.385 -0.3171  1.1957  1.4124
35659SOL     OW15944  11.923   5.265  10.739  0.2073 -0.9401 -0.1473
35659SOL    HW115945  12.014   5.250  10.713  0.3490  0.1609 -0.3251
35659SOL    HW215946  11.930   5.323  10.816 -0.3259 -1.3506  0.2152
35660SOL     OW15947  10.337   5.714   6.833 -0.7932  0.0750  0.4402
35660SOL    HW115948  10.293   5.741   6.753 -2.8381  0.2543  1.5344
35660SOL    HW215949  10.373   5.627   6.813 -0.2077  0.6256 -1.0066
35661SOL     OW15950  11.996   8.333   8.121  0.7710  0.3965 -0.1201
35661SOL    HW115951  11.932   8.275   8.080  0.7588  0.2085  0.1608
35661SOL    HW215952  12.026   8.285   8.199 -0.4102  1.4202  1.0232
35662SOL     OW15953   5.028   2.451   1.094  0.1891  0.4678 -0.0725
35662SOL    HW115954   5.055   2.501   1.017  2.3926  1.2964  1.1551
35662SOL    HW215955   5.025   2.515   1.164 -3.5936  0.1030  0.2885
35663SOL     OW15956   3.350   6.768   3.955  0.4769 -0.1387  0.0225
35663SOL    HW115957   3.384   6.695   3.902 -0.1154 -0.1868 -0.3009
35663SOL    HW215958   3.359   6.844   3.898  0.7616 -0.0198  0.2266
35664SOL     OW15959   7.752   1.497   7.067  0.4662  0.5560 -0.1941
35664SOL    HW115960   7.814   1.509   7.139 -0.0957 -1.1541  0.6063
35664SOL    HW215961   7.667   1.516   7.105  0.2468  0.4581 -0.6290
35665SOL     OW15962   3.221   7.563   5.981  0.4554  0.0016  0.1714
35665SOL    HW115963   3.268   7.479   5.977  3.9529  1.6256  2.6096
35665SOL    HW215964   3.254   7.612   5.906 -0.9098 -0.3820 -0.7260
35666SOL     OW15965   5.844   4.506  12.551  0.0341 -0.6435  0.0185
35666SOL    HW115966   5.891   4.445  12.607  1.7882  0.6811  0.0561
35666SOL    HW215967   5.898   4.584  12.549 -2.6889  1.4483  0.9667
35667SOL     OW15968   5.973   0.272   8.928  0.0165  0.3662  0.3663
35667SOL    HW115969   5.953   0.232   8.844 -0.9556  1.5666  0.0126
35667SOL    HW215970   5.892   0.267   8.978 -0.0677  1.6423  0.4019
35668SOL     OW15971   5.226  11.608   3.225  0.0576  1.0063 -0.2027
35668SOL    HW115972   5.285  11.581   3.296 -1.5619 -0.5439  0.6521
35668SOL    HW215973   5.177  11.681   3.263 -0.5336  0.4343  0.1557
35669SOL     OW15974  10.631   2.046   0.486  0.0029 -0.2617  0.0705
35669SOL    HW115975  10.718   2.011   0.505  0.3485  0.6084  0.1384
35669SOL    HW215976  10.634   2.136   0.520 -0.6083  0.0888 -0.7860
35670SOL     OW15977  11.722   2.772   7.020  0.6162 -0.8929 -0.6356
35670SOL    HW115978  11.654   2.833   6.992 -0.1296 -1.9708 -1.2577
35670SOL    HW215979  11.674   2.702   7.064  1.5100 -0.7443  0.6267
35671SOL     OW15980   7.378   4.806   2.353 -0.4210  0.3726 -0.8147
35671SOL    HW115981   7.321   4.880   2.370 -1.8214 -0.5259 -1.4171
35671SOL    HW215982   7.448   4.841   2.297 -2.7639  0.6582 -3.7912
35672SOL     OW15983   4.142   0.111   7.717  0.0984  0.4395 -0.5877
35672SOL    HW115984   4.160   0.197   7.754  0.9666  1.1277 -2.4397
35672SOL    HW215985   4.225   0.064   7.724 -0.0989  0.1055 -0.4666
35673SOL     OW15986   0.303   6.178  10.596 -0.6644  0.9331 -0.5590
35673SOL    HW115987   0.228   6.133  10.556  0.2275 -1.0491 -0.1054
35673SOL    HW215988   0.368   6.184  10.527 -0.6052  1.0892 -0.4896
35674SOL     OW15989   6.354   8.960   6.634 -0.2024  0.0354 -0.1494
35674SOL    HW115990   6.312   8.873   6.639 -0.5038  0.2270  0.9688
35674SOL    HW215991   6.448   8.941   6.641 -0.0585 -0.3747 -2.3906
35675SOL     OW15992   8.923   7.975  10.387  0.2706 -0.4303 -0.1253
35675SOL    HW115993   8.877   7.952  10.306  0.8715  1.5202 -1.0830
35675SOL    HW215994   8.907   8.068  10.398  2.0797 -0.1878  0.7567
35676SOL     OW15995  11.446   7.598   0.461 -1.0561  0.2023 -0.4954
35676SOL    HW115996  11.390   7.621   0.387 -2.9879  0.3155  0.9462
35676SOL    HW215997  11.403   7.523   0.502 -2.8703  3.0391  3.3490
35677SOL     OW15998   4.162   5.027   4.658  0.0337 -0.4051 -0.1772
35677SOL    HW115999   4.084   5.009   4.711  0.2876 -0.4032  0.1983
35677SOL    HW216000   4.225   4.960   4.685 -0.6991 -2.0294 -2.3051
35678SOL     OW16001   1.588  11.173   4.847  0.3756 -0.1714 -0.7687
35678SOL    HW116002   1.546  11.087   4.846 -0.2014 -0.1022  2.9378
35678SOL    HW216003   1.680  11.155   4.867 -0.0088  0.0456  1.3888
35679SOL     OW16004   2.464   6.742  10.351  0.6071 -0.1871 -0.4631
35679SOL    HW116005   2.557   6.766  10.361  0.7620 -0.7794 -0.4584
35679SOL    HW216006   2.453   6.665  10.407 -0.2709  0.8014  0.7818
35680SOL     OW16007   6.058   7.009  10.684 -1.2795  0.7151  0.0412
35680SOL    HW116008   6.060   7.023  10.589 -1.2432 -1.3964 -0.3112
35680SOL    HW216009   5.992   6.942  10.698  0.2075 -0.6021  1.2420
35681SOL     OW16010  10.436   6.262   1.268  0.2790 -0.0889 -0.6314
35681SOL    HW116011  10.491   6.264   1.189 -0.0808  0.0195 -0.8810
35681SOL    HW216012  10.350   6.235   1.237  0.3406 -0.9027 -0.1425
35682SOL     OW16013   5.045   4.530   4.673  0.6795 -0.0559  0.1752
35682SOL    HW116014   5.035   4.567   4.760  0.4576  2.4901 -0.8511
35682SOL    HW216015   5.085   4.599   4.621 -0.6681 -0.8691 -2.1431
35683SOL     OW16016   2.873   3.966   2.976  0.3926  0.3671  0.4624
35683SOL    HW116017   2.814   3.903   3.018  1.0105  1.3286  2.9347
35683SOL    HW216018   2.825   3.995   2.898 -0.3948 -2.2399 -0.1454
35684SOL     OW16019  11.269   7.875   3.741 -0.9668 -0.6028  0.3382
35684SOL    HW116020  11.305   7.960   3.717 -1.0064 -0.7604 -0.2804
35684SOL    HW216021  11.205   7.855   3.673  0.9218 -2.3294 -1.0613
35685SOL     OW16022   2.235  11.452   1.510  0.1348  0.5975 -0.1352
35685SOL    HW116023   2.267  11.375   1.463  2.3429 -0.1329  2.3321
35685SOL    HW216024   2.142  11.456   1.489  0.3288 -1.6827 -1.7607
35686SOL     OW16025   0.046   9.368   0.791  0.0784  0.4002 -0.3757
35686SOL    HW116026   0.100   9.293   0.818  1.4135  0.4559 -2.6248
35686SOL    HW216027   0.101   9.415   0.728 -1.2321  2.5818  0.0170
35687SOL     OW16028   6.956   9.325   2.284 -0.3809  0.2488 -0.2186
35687SOL    HW116029   7.009   9.260   2.329 -0.0450  2.0907  2.2677
35687SOL    HW216030   6.992   9.329   2.196  1.1471 -1.1848  0.2995
35688SOL     OW16031   0.120   6.719   4.034  0.2894 -0.2679 -0.3676
35688SOL    HW116032   0.029   6.701   4.061  0.5262 -2.1113 -0.6601
35688SOL    HW216033   0.118   6.810   4.005 -1.0485  0.3093  1.3184
35689SOL     OW16034   4.339   6.847  10.441 -0.8101  0.0936  0.0665
35689SOL    HW116035   4.395   6.919  10.414  1.2167 -1.2054  0.5280
35689SOL    HW216036   4.282   6.831  10.366 -0.5492  1.4347 -0.4444
35690SOL     OW16037   1.211  11.350   6.319 -0.2192  0.3560 -0.0859
35690SOL    HW116038   1.160  11.409   6.263  1.1964  1.4994 -0.2453
35690SOL    HW216039   1.168  11.265   6.309 -0.7537  0.7784 -1.9456
35691SOL     OW16040   0.675   2.524  12.206  0.4557  0.4329 -0.1939
35691SOL    HW116041   0.632   2.501  12.288  0.0538 -2.2547 -1.0598
35691SOL    HW216042   0.604   2.549  12.147  0.5833  0.7117 -0.2334
35692SOL     OW16043   0.023   9.434  12.535 -0.3664 -0.2286 -0.2060
35692SOL    HW116044   0.022   9.387  12.618  0.5722 -0.3638 -0.2512
35692SOL    HW216045   0.028   9.365  12.469  2.8980 -0.1466 -0.2191
35693SOL     OW16046   8.278   1.468   2.175 -0.0717  0.0277  0.1455
35693SOL    HW116047   8.328   1.402   2.224 -0.5304  0.9312  1.9351
35693SOL    HW216048   8.339   1.498   2.107  1.2690 -0.0354  1.2722
35694SOL     OW16049   3.448   5.215   1.030  0.3355 -0.3962 -0.8778
35694SOL    HW116050   3.457   5.156   0.956  1.1400 -0.2031 -0.9359
35694SOL    HW216051   3.483   5.299   0.999  0.1111 -0.1510 -0.4803
35695SOL     OW16052   5.951   6.991   5.055 -0.4937  0.3329  0.0841
35695SOL    HW116053   5.979   6.901   5.070 -2.6766 -0.4745 -0.3548
35695SOL    HW216054   5.916   6.991   4.966 -0.2174  1.7117 -0.0550
35696SOL     OW16055   6.603  11.331   2.550 -0.2818 -0.2275 -0.2694
35696SOL    HW116056   6.626  11.302   2.462 -0.9660  0.1707 -0.5874
35696SOL    HW216057   6.547  11.407   2.536  0.1305  0.2319  0.5266
35697SOL     OW16058   3.242   5.779   7.911 -0.2203 -0.2815  0.2235
35697SOL    HW116059   3.203   5.866   7.899 -0.2227 -0.3753 -0.4871
35697SOL    HW216060   3.331   5.797   7.943 -0.5978 -0.0519  1.1810
35698SOL     OW16061  10.172   1.675   1.838 -0.3450  0.1369 -0.0812
35698SOL    HW116062  10.231   1.711   1.905  0.3325  0.2539 -0.7189
35698SOL    HW216063  10.211   1.704   1.755 -0.7517 -0.6337 -0.5487
35699SOL     OW16064   5.335  10.875  11.372 -0.3076 -0.0339  0.1991
35699SOL    HW116065   5.342  10.885  11.277  0.0346  0.1826  0.2477
35699SOL    HW216066   5.328  10.780  11.386  0.2147 -0.1045 -0.0054
35700SOL     OW16067   1.752   6.189  11.001 -0.2269 -0.4261 -0.1574
35700SOL    HW116068   1.797   6.105  10.999  0.5310 -0.0098 -1.1286
35700SOL    HW216069   1.818   6.252  11.031 -0.8763 -0.2068  0.8888
35701SOL     OW16070   1.948   8.672   5.047  0.0292 -0.3276 -0.4784
35701SOL    HW116071   1.889   8.610   5.006 -1.0553  0.0903  0.4039
35701SOL    HW216072   1.895   8.717   5.112  1.6344 -0.9100  1.3573
35702SOL     OW16073   8.325   9.051   9.822 -0.1406  0.6343  0.2011
35702SOL    HW116074   8.351   9.142   9.836 -3.1247  1.5584  0.4631
35702SOL    HW216075   8.253   9.037   9.884  1.0287 -2.3605  1.0645
35703SOL     OW16076   7.170  12.058   8.286  0.3481 -0.1322 -0.1969
35703SOL    HW116077   7.234  11.988   8.300  2.4239  1.9011  1.3949
35703SOL    HW216078   7.142  12.082   8.375 -0.8803  0.5811 -0.7529
35704SOL     OW16079  12.481   5.736   6.432 -0.3513  0.7657  0.3391
35704SOL    HW116080  12.494   5.759   6.524  1.9192  0.8324  0.0625
35704SOL    HW216081  12.538   5.795   6.384  1.4646 -1.7138 -0.8042
35705SOL     OW16082  11.801   3.984  10.289  0.5206  0.3790  0.0004
35705SOL    HW116083  11.743   3.915  10.321  0.9438 -1.3658 -2.7289
35705SOL    HW216084  11.743   4.058  10.271 -0.3450 -0.1709  0.4594
35706SOL     OW16085   6.307   4.929   1.964 -0.3431  0.3896 -0.0680
35706SOL    HW116086   6.323   4.951   1.872 -1.0425 -1.3005 -0.6413
35706SOL    HW216087   6.214   4.950   1.978 -0.4601 -0.1593 -0.0074
35707SOL     OW16088  10.784   9.464  10.158  0.2484  0.3394 -0.3235
35707SOL    HW116089  10.772   9.553  10.125 -2.0359  0.1748 -0.1034
35707SOL    HW216090  10.832   9.475  10.240  2.2949  1.0994 -1.5510
35708SOL     OW16091   0.402   8.290   7.097  0.2699  0.1754 -0.0992
35708SOL    HW116092   0.486   8.245   7.106 -0.6128 -1.7194 -0.7959
35708SOL    HW216093   0.355   8.268   7.177 -0.1092  0.0070 -0.3672
35709SOL     OW16094   3.242   4.127   1.689  0.1971 -0.2472  0.2625
35709SOL    HW116095   3.148   4.112   1.687  0.1383 -0.0738  1.3811
35709SOL    HW216096   3.265   4.143   1.597 -0.2552 -3.6993 -0.5917
35710SOL     OW16097   3.417   1.042   0.249 -0.0811  0.7991 -0.5655
35710SOL    HW116098   3.334   0.995   0.239  0.3602 -0.2349  0.3102
35710SOL    HW216099   3.449   1.054   0.160 -0.7905  0.4957 -0.8713
35711SOL     OW16100   0.376   5.625  12.374 -0.2955  0.4195 -0.1886
35711SOL    HW116101   0.435   5.584  12.311  0.7204  0.5887  0.6264
35711SOL    HW216102   0.422   5.704  12.402 -1.0076  0.6700  0.3090
35712SOL     OW16103   7.701   4.233   7.097  0.6295  0.2338  0.2196
35712SOL    HW116104   7.652   4.287   7.159  0.4489 -0.6998  0.9121
35712SOL    HW216105   7.778   4.204   7.146  1.9738  1.7163 -0.8601
35713SOL     OW16106   1.576  12.040   6.450  0.5703  0.2031 -0.2270
35713SOL    HW116107   1.598  12.015   6.360  1.0107  1.1418 -0.3915
35713SOL    HW216108   1.556  12.134   6.445 -0.1777  0.0997  0.5238
35714SOL     OW16109   4.876   7.387   8.711  0.1795  0.0498 -0.2712
35714SOL    HW116110   4.808   7.341   8.661  0.6620 -1.3250  0.3041
35714SOL    HW216111   4.958   7.344   8.686  0.4629 -0.5024  1.4776
35715SOL     OW16112   1.608   0.811   8.231  0.4665 -0.3710 -0.3689
35715SOL    HW116113   1.635   0.898   8.260  1.4923 -1.0346  0.7739
35715SOL    HW216114   1.515   0.807   8.254  0.2708  0.6144 -0.9416
35716SOL     OW16115   9.405   4.045   7.627 -0.0032  0.0860 -0.2033
35716SOL    HW116116   9.461   4.102   7.679  1.6276  0.2257 -2.0140
35716SOL    HW216117   9.320   4.049   7.671  0.9946  1.0251  1.7908
35717SOL     OW16118  11.157   8.089   8.762 -0.4636  0.5900  0.3290
35717SOL    HW116119  11.075   8.086   8.713 -0.1763 -1.2838 -0.0823
35717SOL    HW216120  11.132   8.128   8.846 -1.9916 -0.8016  0.5738
35718SOL     OW16121   9.160   7.386  10.127  0.0718  0.1110 -0.2397
35718SOL    HW116122   9.121   7.418  10.208 -0.5834  3.5941 -1.7318
35718SOL    HW216123   9.255   7.393  10.143  0.1230 -2.6668  1.3219
35719SOL     OW16124   8.171   6.094   6.701  0.3354  0.0589 -0.3944
35719SOL    HW116125   8.084   6.103   6.742 -0.1332  0.7193 -1.4881
35719SOL    HW216126   8.232   6.098   6.775 -0.5660 -0.7058  0.4295
35720SOL     OW16127  11.150   5.586  11.146  0.0757  0.0515 -0.2967
35720SOL    HW116128  11.138   5.586  11.241 -1.3227 -0.1585 -0.4509
35720SOL    HW216129  11.158   5.493  11.123  3.9380  0.1458 -0.0553
35721SOL     OW16130   3.307   2.114  10.359  0.0455 -0.7767  0.4846
35721SOL    HW116131   3.270   2.202  10.365  0.7254 -0.4100 -0.4799
35721SOL    HW216132   3.254   2.062  10.419 -1.2573 -0.0135  0.0357
35722SOL     OW16133   7.853   2.177   0.579  0.3651  0.4834 -0.3766
35722SOL    HW116134   7.886   2.171   0.490  1.2706 -1.1421  0.0210
35722SOL    HW216135   7.788   2.107   0.586  1.4309 -0.4689  0.6401
35723SOL     OW16136   6.889   1.644   3.183 -0.0460  0.4001 -0.5680
35723SOL    HW116137   6.899   1.651   3.088  2.6385  1.1134 -0.3167
35723SOL    HW216138   6.965   1.690   3.219 -0.3881 -0.7749  1.9171
35724SOL     OW16139   1.935   5.876   1.209  0.3206 -0.2013 -0.0125
35724SOL    HW116140   1.970   5.962   1.184 -0.5602  0.1269 -0.1295
35724SOL    HW216141   1.889   5.892   1.292 -1.0228 -0.2610 -0.7228
35725SOL     OW16142  10.777   1.821  10.926 -0.3783 -0.4637 -0.4014
35725SOL    HW116143  10.681   1.824  10.923 -0.3994 -0.3465  0.3013
35725SOL    HW216144  10.799   1.850  11.014  0.3112 -0.4115 -0.5885
35726SOL     OW16145   5.983  10.703  12.243 -0.0829 -0.0107 -0.0329
35726SOL    HW116146   6.000  10.654  12.162 -1.0378 -0.9523  0.3169
35726SOL    HW216147   5.912  10.762  12.221  0.4647  0.5959 -0.2015
35727SOL     OW16148  10.332   8.765   7.881 -0.1853 -0.0689 -0.4139
35727SOL    HW116149  10.343   8.777   7.975 -0.4624 -0.4626 -0.3300
35727SOL    HW216150  10.347   8.852   7.844  2.2084 -0.3361 -0.2250
35728SOL     OW16151  11.651   0.982   2.367 -0.1327  0.1595 -0.9055
35728SOL    HW116152  11.716   1.052   2.373  0.1299 -0.1405 -0.1441
35728SOL    HW216153  11.611   0.979   2.453 -2.9365  1.9975 -2.0170
35729SOL     OW16154  12.282   7.949   8.763  0.0012  0.1596 -0.1298
35729SOL    HW116155  12.377   7.942   8.755  0.0158  0.4873 -0.2560
35729SOL    HW216156  12.251   7.858   8.767  0.3178  0.0535 -0.0963
35730SOL     OW16157   2.955   3.195   5.250  0.0043  0.1223 -0.2263
35730SOL    HW116158   2.907   3.194   5.332 -0.6274  0.4731 -0.5867
35730SOL    HW216159   3.047   3.188   5.276 -0.2091 -0.1248  0.4863
35731SOL     OW16160   3.531   9.880   7.502 -0.1161 -0.0021 -0.0628
35731SOL    HW116161   3.512   9.941   7.431 -2.0848  0.2035  0.5771
35731SOL    HW216162   3.608   9.832   7.472  1.0569  2.2401 -0.9216
35732SOL     OW16163   1.185   3.962   5.081  0.3917 -0.0467 -0.3927
35732SOL    HW116164   1.240   4.011   5.020  0.6580  1.1367  0.7630
35732SOL    HW216165   1.241   3.890   5.111  0.6718  0.0707 -0.6324
35733SOL     OW16166   9.689   0.189  11.560 -0.0338 -0.0479  0.1620
35733SOL    HW116167   9.629   0.236  11.503  2.0309  0.8021 -1.4555
35733SOL    HW216168   9.765   0.247  11.568  0.9624 -1.4402  1.3878
35734SOL     OW16169   3.433  12.463   1.618  0.2286  0.3775  0.0990
35734SOL    HW116170   3.479  12.547   1.610  0.2755  0.3004 -0.4907
35734SOL    HW216171   3.466  12.425   1.699  1.8997 -0.0828 -0.7467
35735SOL     OW16172   6.866   2.785   3.438 -0.3979  0.4009 -0.0028
35735SOL    HW116173   6.806   2.858   3.456  0.5781  1.0468  0.6796
35735SOL    HW216174   6.817   2.707   3.463 -0.5973  0.9939  1.5211
35736SOL     OW16175   8.790  11.059   0.423  0.3473 -0.0450  0.0800
35736SOL    HW116176   8.853  11.131   0.430  1.1451 -0.6796 -0.3806
35736SOL    HW216177   8.707  11.101   0.401  0.6121  0.8054  0.6691
35737SOL     OW16178   8.302  10.176   8.314 -0.0449  0.2161  0.2451
35737SOL    HW116179   8.208  10.170   8.325 -0.0143  1.1369  1.1868
35737SOL    HW216180   8.323  10.112   8.246 -1.3998  0.3523 -0.3225
35738SOL     OW16181   2.566   2.981   7.096 -0.1925 -0.6717  0.0530
35738SOL    HW116182   2.616   3.056   7.064 -0.2197 -0.6837 -0.0170
35738SOL    HW216183   2.604   2.906   7.051 -1.9047 -0.4304 -1.9438
35739SOL     OW16184   1.830  11.865   8.898 -0.2475 -0.0510 -0.2808
35739SOL    HW116185   1.884  11.835   8.824 -1.8016 -1.0089 -1.0786
35739SOL    HW216186   1.878  11.940   8.933  0.7326  0.2168 -2.0335
35740SOL     OW16187  10.570   9.444  12.179 -0.2902 -0.7209  0.1546
35740SOL    HW116188  10.658   9.410  12.163  0.9866  2.1181  0.6785
35740SOL    HW216189  10.551   9.498  12.102 -1.1011 -0.3848  0.5798
35741SOL     OW16190   5.418   5.262  12.193 -0.0912 -0.3563  0.0241
35741SOL    HW116191   5.392   5.173  12.216 -1.6872  0.2580  0.7504
35741SOL    HW216192   5.338   5.313  12.199  0.3564  0.7870 -2.3593
35742SOL     OW16193   0.115   1.251   2.683  0.2043 -0.5374  0.2900
35742SOL    HW116194   0.087   1.298   2.605  1.3325 -0.1693  0.0922
35742SOL    HW216195   0.186   1.303   2.719 -1.8690  0.6847  3.0215
35743SOL     OW16196   1.608  10.737   6.757 -0.1355 -0.1570 -0.3512
35743SOL    HW116197   1.528  10.692   6.730 -2.4960  2.9037  0.9301
35743SOL    HW216198   1.599  10.749   6.851  1.9244  0.1667 -0.1473
35744SOL     OW16199   6.955   6.842   3.640  0.7312  0.8940 -0.1938
35744SOL    HW116200   6.927   6.835   3.731 -0.9062  0.6260 -0.6825
35744SOL    HW216201   7.035   6.790   3.635 -0.1462 -0.6108  0.7100
35745SOL     OW16202  12.364   7.749   6.064 -0.1281 -0.2585  0.1926
35745SOL    HW116203  12.401   7.669   6.025  0.6122  0.9043 -1.6157
35745SOL    HW216204  12.326   7.796   5.990 -1.4400  0.6260  1.3809
35746SOL     OW16205   0.639   4.997  11.994  0.3134 -0.0477  0.1505
35746SOL    HW116206   0.625   4.912  12.035 -2.5443 -0.0069 -0.5260
35746SOL    HW216207   0.593   5.059  12.051  0.4321  0.7089 -0.5615
35747SOL     OW16208  11.660  10.679   0.377  0.4908 -0.5940  0.0751
35747SOL    HW116209  11.655  10.738   0.453  0.1447 -0.1249 -0.3044
35747SOL    HW216210  11.658  10.591   0.415 -0.4048 -0.3703  0.5829
35748SOL     OW16211   7.263   7.076  10.401  0.2543  0.5638 -0.1253
35748SOL    HW116212   7.200   7.012  10.368 -1.2030  2.0609 -0.4062
35748SOL    HW216213   7.286   7.045  10.488  0.7110 -1.0856 -0.7962
35749SOL     OW16214  11.124   2.360   8.932 -0.3249 -0.0752  0.5294
35749SOL    HW116215  11.029   2.366   8.942 -0.4622 -1.1961  0.0182
35749SOL    HW216216  11.158   2.439   8.974 -1.4048 -0.2959  1.8705
35750SOL     OW16217   6.732   8.182  11.579  0.9301 -0.5032 -0.4795
35750SOL    HW116218   6.710   8.125  11.506  0.4436 -0.6688 -0.2061
35750SOL    HW216219   6.719   8.271  11.545  0.2556 -0.5877 -0.4610
35751SOL     OW16220   6.474  12.307   7.051  0.2696 -0.0045 -0.0216
35751SOL    HW116221   6.527  12.242   7.004 -0.8354 -0.9445 -0.0035
35751SOL    HW216222   6.387  12.300   7.013 -0.2810  0.2775  1.1317
35752SOL     OW16223   4.397   9.071   5.796  0.2522 -0.0024 -0.2755
35752SOL    HW116224   4.351   9.125   5.861 -1.7162  0.1098 -1.6529
35752SOL    HW216225   4.482   9.054   5.835 -1.1372 -0.7283  2.7652
35753SOL     OW16226   7.045   1.909   7.457  0.0827 -0.1177  0.3256
35753SOL    HW116227   7.139   1.904   7.473 -0.0586 -1.2065  0.9297
35753SOL    HW216228   7.009   1.834   7.503 -1.2128  0.8651  0.9763
35754SOL     OW16229   0.916   6.688  10.436 -0.1469  0.3590  0.0039
35754SOL    HW116230   0.933   6.782  10.438 -0.4270  0.4231 -0.3436
35754SOL    HW216231   0.833   6.680  10.389 -0.1697 -0.0560  0.1076
35755SOL     OW16232   6.312  11.986   7.277  0.3013 -0.9720  0.2622
35755SOL    HW116233   6.276  11.972   7.190  0.4940 -0.1020  0.0386
35755SOL    HW216234   6.405  12.003   7.262  0.4524 -1.3866  0.6878
35756SOL     OW16235  10.967   6.129   3.003  0.0399 -0.6190 -0.0120
35756SOL    HW116236  11.037   6.142   2.938 -0.5882  1.0675 -0.4064
35756SOL    HW216237  10.887   6.123   2.951 -0.3910  0.0120  0.5651
35757SOL     OW16238  10.994   2.203   6.147 -0.2421  0.3097  0.3533
35757SOL    HW116239  10.940   2.256   6.089  1.0244  0.6896 -0.5245
35757SOL    HW216240  11.013   2.124   6.097 -0.1971  0.0570  0.7611
35758SOL     OW16241   5.703   3.639  11.827 -0.1672 -0.4586 -0.2430
35758SOL    HW116242   5.752   3.653  11.908 -1.1117 -1.0280  0.4413
35758SOL    HW216243   5.648   3.717  11.818 -1.1956 -1.0739  0.5053
35759SOL     OW16244   6.446   0.993   2.022 -0.1811 -0.4938 -0.6137
35759SOL    HW116245   6.394   0.931   2.074 -1.0827 -1.0790 -2.1410
35759SOL    HW216246   6.386   1.022   1.954  0.7950  0.6991 -0.9881
35760SOL     OW16247   3.669  10.910   3.317  0.5585  0.4601  0.0271
35760SOL    HW116248   3.644  10.866   3.398 -1.9798  1.1656 -0.2799
35760SOL    HW216249   3.697  10.998   3.345 -0.3387  0.7127  0.1583
35761SOL     OW16250   2.218   4.093   8.377  0.0752 -0.0302 -0.3250
35761SOL    HW116251   2.138   4.103   8.325 -1.9358  1.6157  2.7359
35761SOL    HW216252   2.201   4.016   8.431  1.8513 -1.3434 -1.5203
35762SOL     OW16253   9.174   5.546   3.071  0.4511  0.1586  0.1828
35762SOL    HW116254   9.126   5.477   3.027  0.8524 -0.7464  1.1266
35762SOL    HW216255   9.226   5.501   3.137  0.2468  1.4195  1.2439
35763SOL     OW16256   9.790   4.229  10.027  0.2980  0.3542  0.6797
35763SOL    HW116257   9.770   4.221  10.120  0.7826  0.5268  0.8023
35763SOL    HW216258   9.858   4.296  10.022  0.2532  0.3711  0.1986
35764SOL     OW16259   4.107   2.565   2.275 -0.0780  0.7198  0.1740
35764SOL    HW116260   4.066   2.517   2.348  0.1572  0.3923  0.0936
35764SOL    HW216261   4.057   2.646   2.269 -1.1846  0.0237 -0.3741
35765SOL     OW16262   7.014   4.579   3.755 -0.0433 -0.2493 -0.2177
35765SOL    HW116263   7.045   4.506   3.701 -0.6175 -0.4917 -0.2219
35765SOL    HW216264   6.920   4.582   3.740  0.1275  1.3243 -1.2592
35766SOL     OW16265   1.202  12.429   0.071 -0.6958  0.1169 -0.0810
35766SOL    HW116266   1.293  12.409   0.047 -0.6952  0.2122 -0.1598
35766SOL    HW216267   1.163  12.464  -0.009 -0.1644  2.2931  0.5205
35767SOL     OW16268  11.048  11.605   5.340  0.0601  0.3912  0.1654
35767SOL    HW116269  10.971  11.596   5.285 -1.0285  0.0313  1.6929
35767SOL    HW216270  11.049  11.697   5.366  0.8244  0.6654 -0.7603
35768SOL     OW16271   0.648   0.727   7.354  0.4198 -0.2517  0.0173
35768SOL    HW116272   0.626   0.677   7.275 -0.6216  0.5283 -0.2106
35768SOL    HW216273   0.598   0.683   7.423  1.0101 -0.6820  0.1806
35769SOL     OW16274  11.675   2.761   8.990 -0.4436 -0.6460  0.2223
35769SOL    HW116275  11.736   2.715   9.047  0.9089 -0.0714 -0.7144
35769SOL    HW216276  11.728   2.788   8.914 -1.7625  0.2296 -0.4271
35770SOL     OW16277   0.521   8.937   7.299  0.1416  0.0435 -0.2780
35770SOL    HW116278   0.568   8.986   7.365  1.0220  0.4015 -1.1456
35770SOL    HW216279   0.588   8.883   7.257  0.1173  1.6023 -2.4922
35771SOL     OW16280  12.294   3.605   6.923 -0.5698  0.1020  0.0336
35771SOL    HW116281  12.324   3.622   6.833  0.0011 -0.6317  0.0795
35771SOL    HW216282  12.201   3.628   6.922 -0.7566 -0.6456 -0.9524
35772SOL     OW16283   9.475   9.787   7.051  0.4443 -0.1740  0.0304
35772SOL    HW116284   9.421   9.775   7.129  1.2135 -2.0089  0.3221
35772SOL    HW216285   9.498   9.880   7.051 -0.4629  0.0675  1.3812
35773SOL     OW16286   2.619   9.322   8.887 -0.0950  0.0536  0.5587
35773SOL    HW116287   2.574   9.347   8.967 -0.4464  1.5105 -0.0632
35773SOL    HW216288   2.571   9.366   8.817  0.6632 -0.5717 -0.3917
35774SOL     OW16289  10.297  11.721   6.269  0.1607  0.0965  0.2277
35774SOL    HW116290  10.294  11.780   6.194  0.2870 -1.2953 -0.9096
35774SOL    HW216291  10.386  11.729   6.302  0.5049 -0.2574 -0.5868
35775SOL     OW16292  10.479   5.475   6.753 -0.4233  0.0637  0.0847
35775SOL    HW116293  10.517   5.460   6.839 -1.0022  0.7322  0.4685
35775SOL    HW216294  10.443   5.390   6.727  1.5569 -0.6587 -0.4180
35776SOL     OW16295   9.186   2.944  11.344  0.1459 -0.8271  0.0632
35776SOL    HW116296   9.232   2.861  11.338 -0.9224 -1.4699  0.3772
35776SOL    HW216297   9.121   2.930  11.413  1.1980  0.8930  1.5020
35777SOL     OW16298   3.619   2.632   2.909 -0.3472  0.2133  0.3224
35777SOL    HW116299   3.608   2.663   2.999 -1.4697  0.9510 -0.0594
35777SOL    HW216300   3.620   2.536   2.917  2.4432  0.2454  1.4289
35778SOL     OW16301  10.535   5.111  10.647 -0.1215  0.3579  0.4761
35778SOL    HW116302  10.595   5.063  10.705 -0.2534 -0.4291 -0.0156
35778SOL    HW216303  10.546   5.203  10.671 -0.4690  0.0160  2.0228
35779SOL     OW16304   2.851   3.839   4.570  0.3908 -0.1902 -0.4863
35779SOL    HW116305   2.768   3.872   4.534 -0.1462 -0.3443  0.5779
35779SOL    HW216306   2.907   3.916   4.574 -0.3796  0.3505  0.6370
35780SOL     OW16307   1.875   0.970   1.383  0.2325 -0.1030  1.1276
35780SOL    HW116308   1.964   0.996   1.360 -0.4498  1.7071  0.3498
35780SOL    HW216309   1.887   0.898   1.445  2.2209 -0.0295  0.9102
35781SOL     OW16310   4.264   3.477   4.297  0.4699  0.2031  0.1386
35781SOL    HW116311   4.278   3.413   4.227 -1.4057 -0.2013  0.0988
35781SOL    HW216312   4.300   3.558   4.262  1.1062 -0.3725 -0.5923
35782SOL     OW16313  11.275   9.927   9.211 -0.0640 -0.2278 -0.5544
35782SOL    HW116314  11.284   9.847   9.264  0.5065  0.3158  0.2015
35782SOL    HW216315  11.206   9.907   9.149  0.4579 -1.5183 -0.7518
35783SOL     OW16316  11.025   7.216   0.083  0.3285  0.7634 -0.0790
35783SOL    HW116317  10.936   7.190   0.059  0.4455  1.0611 -0.8509
35783SOL    HW216318  11.069   7.134   0.105 -0.4011  0.6893  1.2730
35784SOL     OW16319  10.689   6.105   8.088  0.3230  0.7610 -0.0178
35784SOL    HW116320  10.664   6.096   8.180  1.5773 -1.5008  0.1706
35784SOL    HW216321  10.628   6.048   8.041  0.8412  0.4896 -0.3632
35785SOL     OW16322   4.194   6.552   9.602  0.5991 -0.2660  0.5909
35785SOL    HW116323   4.129   6.522   9.666 -0.3464  0.0070 -0.2126
35785SOL    HW216324   4.150   6.625   9.557  1.5301  0.0188  0.1356
35786SOL     OW16325  12.414   8.502   5.949  0.0824 -0.3605 -0.1440
35786SOL    HW116326  12.324   8.490   5.917 -0.8102  2.9777  0.6875
35786SOL    HW216327  12.444   8.582   5.906  2.8049 -1.4498 -0.5079
35787SOL     OW16328   3.987   5.302   3.441  0.4011  0.0897  0.1181
35787SOL    HW116329   4.056   5.367   3.451  0.6196  0.0809 -1.1172
35787SOL    HW216330   3.918   5.329   3.501  0.8381  0.9906  0.2160
35788SOL     OW16331   7.655   4.729  12.117  0.1000 -0.3087 -0.2708
35788SOL    HW116332   7.740   4.686  12.124 -0.6052 -1.5327  1.1209
35788SOL    HW216333   7.603   4.692  12.187 -1.4496  0.7826 -0.7919
35789SOL     OW16334   6.839   3.535  10.195 -0.3368  0.0171  0.1798
35789SOL    HW116335   6.861   3.580  10.114  1.2524 -0.0671  0.5317
35789SOL    HW216336   6.787   3.459  10.168 -2.0307  1.3428 -0.5158
35790SOL     OW16337   0.047   6.031  12.199 -0.4403  0.2818 -0.1320
35790SOL    HW116338  -0.038   6.036  12.155 -0.2351  1.6494 -0.4349
35790SOL    HW216339   0.040   6.095  12.270  0.4257  0.5970 -0.3262
35791SOL     OW16340   5.463   8.954   0.220  0.2902 -0.1500 -0.1093
35791SOL    HW116341   5.484   8.869   0.182 -1.2094  0.3280 -2.2585
35791SOL    HW216342   5.406   8.934   0.294  1.6897 -1.0607  0.7636
35792SOL     OW16343   0.070  10.374  11.113 -0.0877  0.5252  0.2498
35792SOL    HW116344   0.060  10.309  11.183  1.7425  2.1631  2.1689
35792SOL    HW216345   0.059  10.458  11.157 -0.4823  1.6123 -1.7946
35793SOL     OW16346   1.188  12.485   7.495 -0.0695 -0.0225 -0.3152
35793SOL    HW116347   1.248  12.559   7.488  0.2025  0.0453  1.9861
35793SOL    HW216348   1.245  12.410   7.512 -0.5484 -0.1378  0.8348
35794SOL     OW16349   1.651   6.655   6.726  0.4545 -0.5066 -0.4081
35794SOL    HW116350   1.729   6.663   6.671  0.7755 -2.0925 -0.2345
35794SOL    HW216351   1.579   6.652   6.663  0.1717  3.5505 -0.5132
35795SOL     OW16352   3.967   0.444   8.269  0.0668 -0.5050  0.3755
35795SOL    HW116353   3.885   0.395   8.265  0.0096 -0.4161  0.4618
35795SOL    HW216354   3.957   0.502   8.345 -0.2674  0.3577 -0.3078
35796SOL     OW16355  11.715   9.283   0.567 -0.3139  0.1000 -0.3472
35796SOL    HW116356  11.669   9.259   0.487  0.3613 -1.8361 -0.2146
35796SOL    HW216357  11.808   9.279   0.543 -0.1314  0.3114  0.3151
35797SOL     OW16358  10.983   2.845   7.499 -0.1548 -0.0090  0.1032
35797SOL    HW116359  10.975   2.922   7.442 -0.9951  1.3122  1.8774
35797SOL    HW216360  11.046   2.872   7.566 -0.1372 -1.0352  0.5101
35798SOL     OW16361   4.981   3.349   5.098  0.0806  0.4251  0.1883
35798SOL    HW116362   5.039   3.352   5.022 -1.7912 -0.0518 -1.3381
35798SOL    HW216363   4.894   3.366   5.063 -1.1249 -1.5966  1.9345
35799SOL     OW16364  10.576  12.486  11.800 -0.0505 -0.1247 -0.5564
35799SOL    HW116365  10.538  12.574  11.800  1.3668  0.5698  1.3011
35799SOL    HW216366  10.657  12.496  11.850 -1.0849 -2.9842  2.0097
35800SOL     OW16367   3.530   3.057   6.129  0.1792 -0.2130 -0.1180
35800SOL    HW116368   3.516   3.108   6.209  1.7559  0.2344 -0.1045
35800SOL    HW216369   3.528   3.121   6.058 -0.4438 -0.5094 -0.3844
35801SOL     OW16370   1.887   8.985   3.718 -0.5685  0.6618  0.1037
35801SOL    HW116371   1.963   9.042   3.730 -1.5688  1.8945  0.9458
35801SOL    HW216372   1.906   8.935   3.639  0.0442  2.7530 -1.1493
35802SOL     OW16373  11.680  10.245   6.964 -0.1828 -0.3317  0.5153
35802SOL    HW116374  11.751  10.197   7.007  0.9168 -0.2321 -1.1039
35802SOL    HW216375  11.646  10.184   6.899  0.0088  0.4457 -0.3250
35803SOL     OW16376   0.517   7.745   8.245  0.5721  0.7197  0.3209
35803SOL    HW116377   0.553   7.657   8.244  0.5187  0.7030 -0.1165
35803SOL    HW216378   0.482   7.759   8.157  1.9267  1.7165 -0.1017
35804SOL     OW16379   9.900   8.464  12.568  0.0052  0.1989 -0.3570
35804SOL    HW116380   9.834   8.515  12.521 -0.8564 -1.4909 -1.0575
35804SOL    HW216381   9.936   8.405  12.502  1.3428  0.2164  0.3209
35805SOL     OW16382   0.298  11.335   9.657  0.5980  0.1979  0.4609
35805SOL    HW116383   0.292  11.414   9.711 -0.9169  0.9075 -0.6848
35805SOL    HW216384   0.334  11.366   9.574  2.0809 -0.7327  0.7253
35806SOL     OW16385   7.464   1.378  10.269 -0.6495  0.0742  0.3110
35806SOL    HW116386   7.499   1.314  10.331 -0.2791 -0.8537 -0.8360
35806SOL    HW216387   7.373   1.390  10.297 -1.3319 -2.4490 -0.5859
35807SOL     OW16388   7.744   8.698   0.930 -0.5069  0.3912 -0.4624
35807SOL    HW116389   7.720   8.605   0.925 -0.2293  0.3846 -2.3059
35807SOL    HW216390   7.830   8.702   0.889 -0.1078  1.3599  0.4212
35808SOL     OW16391   0.832  10.685   6.682 -0.2427  0.2101  0.0973
35808SOL    HW116392   0.903  10.621   6.677 -1.4037 -1.0384 -1.8146
35808SOL    HW216393   0.846  10.743   6.607  1.0108  2.5627  2.0059
35809SOL     OW16394   3.277  10.181   8.735  0.0467  0.0991  0.0809
35809SOL    HW116395   3.352  10.237   8.717 -0.0503  0.2384  0.1089
35809SOL    HW216396   3.227  10.180   8.653 -0.1630  0.3793  0.2013
35810SOL     OW16397  10.163   9.320   3.830 -0.1215 -0.1935 -0.4348
35810SOL    HW116398  10.113   9.259   3.775  0.1403  0.8172 -1.8522
35810SOL    HW216399  10.099   9.388   3.853  0.0311 -0.0688 -0.3810
35811SOL     OW16400   1.279   9.295   7.129 -0.1242  0.3316  0.2442
35811SOL    HW116401   1.280   9.227   7.196 -1.0828 -0.1149 -0.1840
35811SOL    HW216402   1.355   9.276   7.074  0.2058  0.2265  0.7349
35812SOL     OW16403   2.725   3.884   5.861 -0.0974  0.0923 -0.4379
35812SOL    HW116404   2.714   3.971   5.899 -0.5268  0.0358 -0.4325
35812SOL    HW216405   2.637   3.848   5.857  0.2107 -0.8283  0.6997
35813SOL     OW16406   6.897  11.316  10.370 -0.1763 -0.6527  0.0629
35813SOL    HW116407   6.975  11.265  10.392 -0.4318 -0.8331  0.5593
35813SOL    HW216408   6.825  11.269  10.411 -0.3766  0.3212  0.8739
35814SOL     OW16409   8.376  11.431   3.201  0.0114  0.3487  0.1209
35814SOL    HW116410   8.423  11.399   3.123  0.3594 -0.8532  0.8042
35814SOL    HW216411   8.299  11.375   3.207  0.1190  0.2675  0.7790
35815SOL     OW16412   8.748   3.497   0.005 -0.2202  0.2771  0.3106
35815SOL    HW116413   8.663   3.501  -0.039  0.8215  0.6109 -1.8206
35815SOL    HW216414   8.770   3.589   0.022  0.5867  0.3686 -1.0482
35816SOL     OW16415  12.561   1.078   8.330 -0.4499  0.2825  0.0740
35816SOL    HW116416  12.595   1.145   8.271  1.6167 -1.1190 -0.4345
35816SOL    HW216417  12.528   1.127   8.405 -2.2951  2.0523 -1.7633
35817SOL     OW16418   0.069   9.242   1.879 -0.4198  0.3765 -0.1830
35817SOL    HW116419   0.011   9.301   1.927  0.5118  0.4306  0.9347
35817SOL    HW216420   0.055   9.156   1.919 -0.1120  0.2922 -0.2483
35818SOL     OW16421  10.713   2.416  10.076  0.0853 -0.3510 -0.1056
35818SOL    HW116422  10.758   2.406   9.992  0.5581  2.2053 -0.2304
35818SOL    HW216423  10.768   2.368  10.139  0.2693 -1.4324 -1.0642
35819SOL     OW16424   1.576   5.062   9.303  0.5585  0.1910  0.5752
35819SOL    HW116425   1.580   5.151   9.337 -0.5777  0.9086 -0.9902
35819SOL    HW216426   1.650   5.055   9.243 -0.7003  0.9794 -1.1517
35820SOL     OW16427   2.367  10.115   6.258 -0.3625 -0.1539  0.3886
35820SOL    HW116428   2.352  10.180   6.189  1.5991  0.8279  0.7965
35820SOL    HW216429   2.296  10.052   6.248 -2.0344  1.7419 -0.3931
35821SOL     OW16430   3.667   9.299  11.605 -0.0102 -0.3409 -0.2610
35821SOL    HW116431   3.577   9.294  11.637  0.2290 -2.4098  0.2364
35821SOL    HW216432   3.685   9.393  11.599 -1.3442  0.1434  2.0870
35822SOL     OW16433   1.381   9.857  10.501 -0.3217  0.0932 -0.2006
35822SOL    HW116434   1.428   9.855  10.584 -1.1376  0.5861  0.2783
35822SOL    HW216435   1.450   9.860  10.435  0.3247  0.3913  0.4789
35823SOL     OW16436  10.419   5.904   1.151  0.7152 -0.1242 -0.2174
35823SOL    HW116437  10.420   5.810   1.168 -0.7434 -0.3150 -1.0389
35823SOL    HW216438  10.340   5.935   1.194  1.1268  0.7139 -0.0497
35824SOL     OW16439   4.681   3.280  12.225 -0.1504  0.3437 -0.4361
35824SOL    HW116440   4.596   3.324  12.233 -0.6952 -0.7975  0.3614
35824SOL    HW216441   4.660   3.195  12.185  0.6303  0.0818 -0.2994
35825SOL     OW16442   5.166   4.042  11.903 -0.1976  0.1734  0.1728
35825SOL    HW116443   5.096   4.000  11.852  0.1868  0.4287 -0.5803
35825SOL    HW216444   5.140   4.134  11.909  0.6170  0.5017 -1.0840
35826SOL     OW16445  12.587   8.491   0.595 -0.0449 -0.0647 -0.1544
35826SOL    HW116446  12.674   8.529   0.581 -0.0897  0.5212  1.0298
35826SOL    HW216447  12.603   8.415   0.651 -0.4758  1.3046  1.9329
35827SOL     OW16448  10.832   1.652   8.144  0.1586 -0.4817 -0.1138
35827SOL    HW116449  10.789   1.577   8.185  0.4000 -0.2697  0.5449
35827SOL    HW216450  10.859   1.621   8.058 -0.6667 -0.8314 -0.2572
35828SOL     OW16451   8.631   2.241  11.902  0.0486 -0.4951 -0.5387
35828SOL    HW116452   8.686   2.198  11.968 -1.2819  0.1231  1.0456
35828SOL    HW216453   8.566   2.174  11.879 -1.2635  0.1763  1.0057
35829SOL     OW16454   3.975  11.389   7.739  0.0588 -0.3127  0.0952
35829SOL    HW116455   4.055  11.441   7.731 -0.8421  1.0432 -0.5533
35829SOL    HW216456   3.998  11.304   7.703  1.1608  0.1343 -0.3085
35830SOL     OW16457   0.939  10.303   6.894  0.3800 -0.1449 -0.1001
35830SOL    HW116458   1.023  10.260   6.876  1.2534  1.4977 -0.1107
35830SOL    HW216459   0.913  10.339   6.809  2.1980  3.6205  0.7614
35831SOL     OW16460   5.338   7.420   5.120 -0.1995  0.0661 -0.1171
35831SOL    HW116461   5.384   7.337   5.136 -0.6896 -0.1363  0.2313
35831SOL    HW216462   5.332   7.425   5.024 -1.4452 -1.0092 -0.1128
35832SOL     OW16463   8.653   9.889  10.565  0.0324  0.3055 -0.0537
35832SOL    HW116464   8.663   9.831  10.489 -0.0348  1.4311 -0.9451
35832SOL    HW216465   8.667   9.977  10.530  1.9132  0.7370  1.5902
35833SOL     OW16466   9.286  10.763   1.873 -0.3005 -0.1456  0.3193
35833SOL    HW116467   9.293  10.769   1.778  3.1381 -1.1936  0.3718
35833SOL    HW216468   9.328  10.680   1.895  1.3122  1.1848  2.8434
35834SOL     OW16469  11.890   6.760   0.781  0.5282  0.0443 -0.2236
35834SOL    HW116470  11.801   6.781   0.752  0.7236 -1.0653 -1.7470
35834SOL    HW216471  11.900   6.667   0.761  2.8364  0.6389 -2.3487
35835SOL     OW16472  10.955   6.008   3.782 -0.1679 -0.5120 -0.1081
35835SOL    HW116473  10.934   6.004   3.875 -1.6541 -0.6573 -0.4252
35835SOL    HW216474  10.976   6.100   3.766 -0.5423 -0.3638  0.2463
35836SOL     OW16475   5.431   2.616   5.435 -0.1516 -0.0948  0.6877
35836SOL    HW116476   5.393   2.695   5.474 -1.3802  0.3278 -1.1938
35836SOL    HW216477   5.484   2.649   5.362 -1.0236 -0.9680 -0.3951
35837SOL     OW16478  10.404   0.381   9.078  0.1284  0.7915  0.0636
35837SOL    HW116479  10.359   0.397   9.161 -0.1073 -0.7977  0.2717
35837SOL    HW216480  10.475   0.445   9.077  1.2970 -0.3277  2.4075
35838SOL     OW16481   0.512  10.860  10.851 -0.0063  0.2808 -0.8989
35838SOL    HW116482   0.443  10.926  10.854 -1.4607 -1.1414 -1.4382
35838SOL    HW216483   0.547  10.859  10.940 -1.4092  0.3214 -0.3180
35839SOL     OW16484   1.701   5.805   5.828 -0.3675 -0.6472 -0.7773
35839SOL    HW116485   1.644   5.789   5.903  0.1998 -0.4229 -0.2861
35839SOL    HW216486   1.772   5.742   5.838 -0.5250 -0.9195 -1.3769
35840SOL     OW16487   7.499   1.980   0.804 -0.2003  0.0801  0.5333
35840SOL    HW116488   7.490   2.031   0.884  0.8139  1.0869  0.0346
35840SOL    HW216489   7.410   1.954   0.781 -0.5529  0.2267  1.6950
35841SOL     OW16490   3.579   8.505   3.513  0.7752  0.4177  0.3901
35841SOL    HW116491   3.604   8.524   3.423  2.3160 -0.5311  0.5969
35841SOL    HW216492   3.585   8.410   3.521 -0.6799  0.3485  1.1373
35842SOL     OW16493  10.879   8.443   8.080 -0.3703 -0.6516  0.6520
35842SOL    HW116494  10.933   8.508   8.036 -1.3381  0.4680  1.0506
35842SOL    HW216495  10.789   8.471   8.061 -0.7963 -1.4089  1.5019
35843SOL     OW16496   3.037   6.900   6.813 -0.0405  0.1498 -0.3006
35843SOL    HW116497   3.124   6.897   6.773 -0.8916  0.3584 -2.3194
35843SOL    HW216498   3.038   6.979   6.867  0.8273  0.4808 -0.7783
35844SOL     OW16499   0.491   2.461  11.296  0.0792 -0.0792  0.7691
35844SOL    HW116500   0.533   2.543  11.323  0.7483 -0.8621  2.2131
35844SOL    HW216501   0.563   2.403  11.273 -0.4333  0.0486 -1.3423
35845SOL     OW16502  11.249   2.876   9.968 -0.0086  0.9005 -0.5152
35845SOL    HW116503  11.167   2.874   9.918  0.1581  0.9194 -0.7937
35845SOL    HW216504  11.291   2.793   9.946 -1.4861 -0.7351  2.2681
35846SOL     OW16505   2.715   9.417   3.950  0.1834 -0.4148  0.0915
35846SOL    HW116506   2.797   9.371   3.935  1.0693  0.2332  2.5071
35846SOL    HW216507   2.734   9.509   3.933  0.0197 -0.2390  0.8183
35847SOL     OW16508   3.314   4.703   5.619 -0.2572 -0.0997  0.0139
35847SOL    HW116509   3.344   4.627   5.669 -0.2425 -0.7057 -0.9046
35847SOL    HW216510   3.227   4.721   5.653 -0.0839 -0.2365  0.5487
35848SOL     OW16511  12.000   8.446   9.938 -0.8155  0.6063  0.4119
35848SOL    HW116512  12.011   8.526   9.887 -1.4231 -0.4099 -1.4189
35848SOL    HW216513  12.021   8.375   9.876 -2.7870 -0.7558  1.1979
35849SOL     OW16514   2.988   0.917   2.152 -0.0705 -0.1429 -0.4589
35849SOL    HW116515   2.916   0.872   2.195 -1.1432  1.4424 -0.4864
35849SOL    HW216516   3.062   0.909   2.212 -1.2773  1.2201  1.3147
35850SOL     OW16517  11.150  10.318   8.836 -0.3048  0.4934 -0.4359
35850SOL    HW116518  11.095  10.396   8.847  0.7059  0.9946  1.6174
35850SOL    HW216519  11.236  10.346   8.867  0.6364 -0.8330 -1.7447
35851SOL     OW16520   9.674   6.870   6.395 -0.1691 -0.4277  0.4141
35851SOL    HW116521   9.593   6.823   6.374  0.6136 -1.4406 -0.4091
35851SOL    HW216522   9.660   6.901   6.485 -0.6108 -2.4720  1.0956
35852SOL     OW16523  12.329   9.428   3.352  0.2015  0.0746 -0.7542
35852SOL    HW116524  12.303   9.520   3.356  0.5496  0.1264  1.0277
35852SOL    HW216525  12.259   9.382   3.397 -0.2067 -0.6028 -2.0589
35853SOL     OW16526  10.841   0.667   8.986  0.2604 -0.4250 -0.1257
35853SOL    HW116527  10.897   0.708   9.051  0.5560  1.5900 -1.5545
35853SOL    HW216528  10.888   0.677   8.903 -1.1370 -0.7620 -1.0047
35854SOL     OW16529   9.027   7.081   8.981  0.5073 -0.3129  0.1805
35854SOL    HW116530   9.108   7.127   9.006  0.2058 -0.4377  1.4632
35854SOL    HW216531   9.027   7.002   9.035  0.0115 -0.8123 -0.5421
35855SOL     OW16532   2.814   5.828  12.481 -0.1616  0.6960  0.6022
35855SOL    HW116533   2.757   5.767  12.434  1.1267 -1.5322  1.7855
35855SOL    HW216534   2.773   5.838  12.567  0.8753 -0.5103  1.2753
35856SOL     OW16535   1.836   7.059   0.927 -0.1858 -0.0494  0.2397
35856SOL    HW116536   1.878   7.079   1.010 -2.2022  1.0986  1.0486
35856SOL    HW216537   1.789   6.977   0.942  1.1321 -0.9775 -0.4625
35857SOL     OW16538  12.031   3.229   7.123  0.1060 -0.3831 -0.2952
35857SOL    HW116539  12.044   3.234   7.218  1.0589  2.0799 -0.4776
35857SOL    HW216540  11.956   3.286   7.106  0.1074 -0.5982 -1.0304
35858SOL     OW16541   5.175  12.278  10.478 -0.4564  0.0370 -0.3373
35858SOL    HW116542   5.158  12.184  10.490  0.0823  0.0465  0.6043
35858SOL    HW216543   5.233  12.301  10.551 -2.5572  1.6599  0.9077
35859SOL     OW16544  11.879   8.705   6.920 -0.2890  0.1227 -0.6663
35859SOL    HW116545  11.856   8.750   7.001 -0.2259  0.0739 -0.6212
35859SOL    HW216546  11.962   8.745   6.892  0.0507 -0.3399 -0.3338
35860SOL     OW16547   0.789   8.370   7.135  0.2754  0.7090 -0.1209
35860SOL    HW116548   0.729   8.296   7.149  1.6144 -0.9134 -2.2929
35860SOL    HW216549   0.770   8.430   7.207 -3.1181 -0.2370 -0.0648
35861SOL     OW16550   8.691   1.106  10.935  0.0495 -0.3473 -0.5140
35861SOL    HW116551   8.609   1.057  10.933 -0.2926  0.2370 -2.0020
35861SOL    HW216552   8.752   1.054  10.883  0.6448 -0.7633  0.5613
35862SOL     OW16553   5.851   6.729   9.465  0.0368 -0.5392 -0.0623
35862SOL    HW116554   5.798   6.742   9.544 -0.9958  0.4873 -0.8857
35862SOL    HW216555   5.802   6.775   9.396  0.6503 -1.8507 -1.4086
35863SOL     OW16556   3.886   4.410  11.499 -0.4142 -0.0406 -0.0409
35863SOL    HW116557   3.952   4.398  11.431 -0.0836  3.3791 -0.5366
35863SOL    HW216558   3.810   4.361  11.470  0.1530  0.3130 -2.2671
35864SOL     OW16559  10.581   4.624   3.962  0.0803 -0.0077 -0.3506
35864SOL    HW116560  10.535   4.603   4.043  1.9556 -0.6241  0.6164
35864SOL    HW216561  10.580   4.720   3.959  1.3785  0.1199  1.3229
35865SOL     OW16562   0.826  11.809   4.715  0.5968 -0.1262 -0.1934
35865SOL    HW116563   0.832  11.720   4.749 -2.4745 -0.2435  0.3667
35865SOL    HW216564   0.908  11.851   4.741  0.7248 -1.8127  2.5022
35866SOL     OW16565  11.028  10.309   9.087  0.0660 -0.2048  0.4670
35866SOL    HW116566  11.089  10.254   9.037  0.0222  0.0674  0.1150
35866SOL    HW216567  10.944  10.300   9.042 -0.2206 -0.7689  1.0908
35867SOL     OW16568  11.785   3.089   2.515  0.5705  0.4516 -0.0737
35867SOL    HW116569  11.745   3.004   2.531  1.1069 -0.1980 -2.0463
35867SOL    HW216570  11.864   3.089   2.569 -0.2670  0.3879  1.1986
35868SOL     OW16571   7.013   2.527   2.569 -0.6418  0.1858  0.4607
35868SOL    HW116572   7.006   2.568   2.655 -1.3965 -0.9153  0.9386
35868SOL    HW216573   7.043   2.598   2.512 -0.7722  1.0996  1.4882
35869SOL     OW16574   7.764   7.969   9.937  0.2408  0.0669 -0.3092
35869SOL    HW116575   7.677   7.930   9.946 -0.1108  0.8036 -0.4133
35869SOL    HW216576   7.778   8.016  10.019  0.6199 -0.1951 -0.2222
35870SOL     OW16577   8.980   5.064   8.267  0.0789  0.0971  0.0469
35870SOL    HW116578   8.925   5.041   8.342 -0.3873 -1.2794 -0.6893
35870SOL    HW216579   9.069   5.063   8.302 -0.1220 -0.7196  0.5488
35871SOL     OW16580   5.769   2.928   2.085 -0.1719 -0.1190  0.2158
35871SOL    HW116581   5.809   2.850   2.124  0.8836  0.4507  0.3017
35871SOL    HW216582   5.781   2.996   2.150  2.2188  1.0308 -1.2761
35872SOL     OW16583   6.664   2.363   1.444  0.2838  0.2810 -0.2861
35872SOL    HW116584   6.742   2.311   1.427  0.7619  1.0931 -0.6334
35872SOL    HW216585   6.611   2.309   1.503  0.2067 -1.0980 -1.5747
35873SOL     OW16586   1.312   7.900  11.697 -0.2748 -0.0363 -0.0692
35873SOL    HW116587   1.283   7.813  11.670  0.7567  0.0654 -1.6440
35873SOL    HW216588   1.283   7.957  11.626  1.7713  0.4064 -0.5927
35874SOL     OW16589   4.599   6.183   9.265  0.1016 -0.2018 -0.2574
35874SOL    HW116590   4.613   6.096   9.227 -0.2868 -0.5136  0.2891
35874SOL    HW216591   4.672   6.235   9.233  0.3482 -0.7354 -0.5859
35875SOL     OW16592   4.552  10.121   2.867  0.0697  0.0261 -0.2382
35875SOL    HW116593   4.619  10.188   2.876  0.5257 -0.6613  2.1052
35875SOL    HW216594   4.568  10.083   2.781  2.9770 -0.3740  0.3734
35876SOL     OW16595   3.675   2.790   9.694  0.1854 -0.2259 -0.3437
35876SOL    HW116596   3.651   2.733   9.620 -0.3838 -0.1757 -0.1984
35876SOL    HW216597   3.758   2.754   9.725  0.9482  0.3537 -1.6282
35877SOL     OW16598  10.964   4.992   9.749 -0.1364  0.1804  0.0896
35877SOL    HW116599  10.898   4.928   9.722  0.1244  0.3167 -0.9135
35877SOL    HW216600  11.047   4.950   9.726  0.1819 -0.2502  1.8956
35878SOL     OW16601   1.599   3.551   8.218  0.2151  0.1454 -0.0520
35878SOL    HW116602   1.673   3.610   8.219  1.2961 -1.0867 -1.6643
35878SOL    HW216603   1.559   3.563   8.132 -0.2355 -0.6391  0.0326
35879SOL     OW16604   8.903  11.327   2.395 -0.1544 -0.0254 -0.0365
35879SOL    HW116605   8.843  11.307   2.323 -1.4952  2.4528  0.2644
35879SOL    HW216606   8.852  11.311   2.474  0.2128  0.3137  0.2713
35880SOL     OW16607  10.745   2.465   9.307  0.1683  0.1063  0.0055
35880SOL    HW116608  10.750   2.416   9.226  1.1961 -0.4645  0.3927
35880SOL    HW216609  10.718   2.401   9.373 -0.5001  0.5255  0.1481
35881SOL     OW16610   5.552   4.891  11.066  0.0549 -0.2857 -0.0789
35881SOL    HW116611   5.557   4.866  11.159  0.2030 -2.8213 -0.6978
35881SOL    HW216612   5.459   4.887  11.046  0.1276 -0.9707 -0.3142
35882SOL     OW16613   1.317   8.153  12.468 -0.1754 -0.0503 -0.2945
35882SOL    HW116614   1.298   8.078  12.412 -2.2153  0.2313 -0.0533
35882SOL    HW216615   1.380   8.205  12.418 -0.9049 -0.5013 -1.7198
35883SOL     OW16616   5.874   0.496   2.380  0.3741 -0.0733  0.6431
35883SOL    HW116617   5.833   0.573   2.342 -1.9006 -1.5596 -0.0871
35883SOL    HW216618   5.869   0.510   2.475 -0.3936  0.4751  0.5299
35884SOL     OW16619   8.822  11.113   9.211  0.0093  0.0544 -0.0299
35884SOL    HW116620   8.836  11.055   9.286 -0.2040 -2.0237 -1.4889
35884SOL    HW216621   8.854  11.062   9.136  0.7347  2.2592 -1.3061
35885SOL     OW16622   3.937   4.656   9.536 -0.3406  0.3708 -0.4632
35885SOL    HW116623   3.995   4.581   9.517 -0.4297  0.8027 -2.6806
35885SOL    HW216624   3.996   4.731   9.539 -0.0585  0.1597  3.0946
35886SOL     OW16625   8.932   2.291   2.451 -0.3165  0.6236  0.1796
35886SOL    HW116626   8.947   2.236   2.374  1.6481  1.9597 -0.4597
35886SOL    HW216627   8.907   2.229   2.520  0.5201 -0.9288 -0.8450
35887SOL     OW16628  10.291   1.928   9.277 -0.0969 -0.1314 -0.0847
35887SOL    HW116629  10.367   1.897   9.326 -1.2937 -1.4285  1.0647
35887SOL    HW216630  10.327   1.964   9.196  1.7317 -0.5438  0.5025
35888SOL     OW16631   3.225   3.822   4.543  0.1354  0.0997  0.1049
35888SOL    HW116632   3.157   3.756   4.531  0.2853 -0.1408  0.5694
35888SOL    HW216633   3.186   3.885   4.604 -0.2265  0.7551 -0.7798
35889SOL     OW16634  12.346   7.335   5.107  0.3653 -0.1689 -0.2884
35889SOL    HW116635  12.411   7.373   5.048 -1.8103  2.0983 -1.4276
35889SOL    HW216636  12.327   7.248   5.069  1.1834  0.0114 -1.1474
35890SOL     OW16637  10.372  10.005   7.441  0.2882  0.0547  0.1531
35890SOL    HW116638  10.457   9.997   7.484  0.6852 -0.9789 -0.7806
35890SOL    HW216639  10.310  10.022   7.512  1.2842  0.9282  0.8296
35891SOL     OW16640  11.012   8.714   7.027 -0.3111 -0.0021  0.8291
35891SOL    HW116641  10.976   8.747   7.110 -1.6339  0.9822 -0.0891
35891SOL    HW216642  11.023   8.793   6.973  1.3161 -0.5336  0.3275
35892SOL     OW16643   1.641   4.217   9.341  0.0693 -0.0736  0.2352
35892SOL    HW116644   1.687   4.270   9.276 -0.1867  0.2366  0.3090
35892SOL    HW216645   1.630   4.274   9.416  1.1469 -0.7025  0.8972
35893SOL     OW16646   2.017  11.684  10.944 -0.5674 -0.5931  0.0503
35893SOL    HW116647   2.087  11.676  10.879 -0.3974 -1.0296  0.2829
35893SOL    HW216648   2.029  11.608  11.001 -0.7822 -0.2692  0.5263
35894SOL     OW16649   7.172   4.060   9.235  0.1685 -0.0706 -0.2596
35894SOL    HW116650   7.195   3.998   9.166 -0.3734  0.7255 -1.1717
35894SOL    HW216651   7.085   4.091   9.212 -0.4933 -0.5819  1.3790
35895SOL     OW16652   7.470   2.210   8.446 -0.0028  0.0388 -0.0396
35895SOL    HW116653   7.464   2.250   8.533  0.7380 -0.3047  0.1760
35895SOL    HW216654   7.551   2.245   8.409  0.6612 -1.2341  0.1492
35896SOL     OW16655   2.142   4.178   2.272 -0.5085  0.5870 -0.3772
35896SOL    HW116656   2.175   4.266   2.254 -1.5976  0.7719 -1.5564
35896SOL    HW216657   2.047   4.188   2.277 -0.5471 -0.1439  1.7520
35897SOL     OW16658  11.520   6.893   1.940  0.0488  0.5108 -0.3238
35897SOL    HW116659  11.505   6.876   1.847  0.0434  1.4844 -0.5070
35897SOL    HW216660  11.550   6.984   1.943  1.9904 -0.1026  0.4185
35898SOL     OW16661   8.328   1.019   9.310 -0.9304 -0.0114  0.2844
35898SOL    HW116662   8.353   1.011   9.402 -0.3286 -0.4738  0.0838
35898SOL    HW216663   8.262   1.088   9.309  1.2220  2.1546  0.6595
35899SOL     OW16664  12.013   5.703   2.221  0.1117 -0.0008  0.4624
35899SOL    HW116665  12.066   5.645   2.166 -0.4423 -1.7159  1.6768
35899SOL    HW216666  11.923   5.681   2.199 -0.1132 -0.5493  1.8672
35900SOL     OW16667   5.549   8.677   8.780 -0.6951 -0.0426  0.5793
35900SOL    HW116668   5.547   8.581   8.785 -0.7609 -0.1698 -1.1409
35900SOL    HW216669   5.467   8.700   8.735 -0.6354  0.8148  0.8941
35901SOL     OW16670  10.357   3.366   7.305 -0.3056  0.2620 -0.0475
35901SOL    HW116671  10.371   3.279   7.268  3.2172  0.0696  1.3653
35901SOL    HW216672  10.282   3.355   7.363  0.7955 -2.2621  1.0863
35902SOL     OW16673   7.083   6.350   4.001  0.0415 -0.6693  0.2401
35902SOL    HW116674   7.018   6.420   4.012 -0.9519 -1.6653  0.9802
35902SOL    HW216675   7.137   6.355   4.080  0.2408 -0.4654  0.0908
35903SOL     OW16676   2.631   3.328  12.513  0.2372 -0.0546  0.1406
35903SOL    HW116677   2.711   3.361  12.474  0.3445  2.6243  2.3080
35903SOL    HW216678   2.652   3.317  12.606 -1.5601 -0.4859  0.5433
35904SOL     OW16679   0.376   9.152   7.155  0.1229 -0.3208  0.1220
35904SOL    HW116680   0.464   9.115   7.163  0.1962  0.0183  0.9734
35904SOL    HW216681   0.390   9.241   7.124 -0.1410 -1.5075 -3.9111
35905SOL     OW16682   5.798   5.141   3.545  0.0784 -0.6877 -0.3195
35905SOL    HW116683   5.855   5.207   3.585 -0.8693  1.6729 -2.5171
35905SOL    HW216684   5.854   5.097   3.481  0.2111 -0.5109 -0.3272
35906SOL     OW16685   1.330   1.453   8.477  0.3070  0.5767  0.4197
35906SOL    HW116686   1.359   1.539   8.448 -0.2279  0.6192 -0.0100
35906SOL    HW216687   1.355   1.449   8.570  1.5973  0.6268  0.0877
35907SOL     OW16688   8.710  12.100   1.116 -0.4198 -0.0012  0.1017
35907SOL    HW116689   8.645  12.150   1.067 -1.4003 -0.4687  0.8926
35907SOL    HW216690   8.664  12.071   1.195  0.4669 -1.1370  0.2291
35908SOL     OW16691   8.524  11.492   9.610  0.3813 -0.5059 -0.1414
35908SOL    HW116692   8.619  11.478   9.608  0.7429  1.3053  1.4343
35908SOL    HW216693   8.508  11.552   9.537  0.5247 -0.4303 -0.1101
35909SOL     OW16694   0.417  10.938   7.160  0.0392 -0.2863  0.3339
35909SOL    HW116695   0.349  10.876   7.189 -0.3253 -0.0587 -0.0346
35909SOL    HW216696   0.489  10.882   7.131 -0.4352 -0.5577 -0.3547
35910SOL     OW16697   3.199   2.279   1.779 -0.4514  0.0803  0.1992
35910SOL    HW116698   3.178   2.355   1.724  0.4607 -1.1743 -2.0332
35910SOL    HW216699   3.293   2.286   1.795 -0.1900 -0.9510 -0.7335
35911SOL     OW16700  11.190   2.383  11.470  0.1048  0.1075  0.1269
35911SOL    HW116701  11.274   2.342  11.486  0.5999  0.9112 -0.3100
35911SOL    HW216702  11.134   2.354  11.541  1.3425  1.1794  1.6022
35912SOL     OW16703  11.660  11.582   8.665 -0.3266 -0.4642 -0.1061
35912SOL    HW116704  11.632  11.567   8.575 -0.5544  1.1526 -0.3360
35912SOL    HW216705  11.583  11.563   8.718 -0.8491  0.6191 -0.4488
35913SOL     OW16706   7.565  10.460   0.580  0.2556 -0.0057  0.0970
35913SOL    HW116707   7.651  10.486   0.615  0.2999  1.3412 -0.9264
35913SOL    HW216708   7.570  10.482   0.487 -2.3328  3.3301  0.5841
35914SOL     OW16709   1.169   8.499   6.256 -1.1100 -0.1013  0.4643
35914SOL    HW116710   1.186   8.593   6.258 -1.2857 -0.0201 -1.0653
35914SOL    HW216711   1.091   8.488   6.311  0.7160  0.1699  3.3483
35915SOL     OW16712   4.669   8.239   0.985  0.3419 -0.2928  0.1210
35915SOL    HW116713   4.726   8.306   0.949  1.1149 -1.5820 -1.1763
35915SOL    HW216714   4.716   8.204   1.060  0.0739  0.3942  0.6139
35916SOL     OW16715   2.063  10.629   0.769  0.0641  0.0037  0.2288
35916SOL    HW116716   1.984  10.667   0.809  0.8002  1.8909 -0.0001
35916SOL    HW216717   2.047  10.636   0.675 -0.3747 -1.6030  0.1636
35917SOL     OW16718   2.670   1.535   4.986 -0.1732 -0.1093  0.3170
35917SOL    HW116719   2.708   1.493   5.063  0.0019  1.2918  1.0340
35917SOL    HW216720   2.723   1.504   4.913 -0.2164 -1.3006  0.7683
35918SOL     OW16721   9.285   7.014   7.302 -0.6588  0.2556  0.1253
35918SOL    HW116722   9.246   6.958   7.234 -0.4816  0.2579  0.0212
35918SOL    HW216723   9.210   7.048   7.351 -0.7485 -0.6302  0.6368
35919SOL     OW16724   9.241   0.862   5.977  0.1968  0.4797  0.1429
35919SOL    HW116725   9.158   0.910   5.983  0.0497  0.1494  0.9126
35919SOL    HW216726   9.220   0.774   6.008  1.1636  0.8212  1.9354
35920SOL     OW16727   8.414  10.077   8.976  0.4403 -0.1729 -0.3733
35920SOL    HW116728   8.320  10.082   8.995  0.6153  1.6492  0.2515
35920SOL    HW216729   8.442  10.169   8.970  2.0588 -0.6750 -1.2432
35921SOL     OW16730   2.519   0.277   3.729 -0.2652 -0.3194  0.1769
35921SOL    HW116731   2.555   0.206   3.782  0.9956  1.5098  1.8596
35921SOL    HW216732   2.425   0.260   3.727 -0.0981 -1.5073  1.3499
35922SOL     OW16733  12.142   5.646   2.761 -0.3591  0.0930 -0.6652
35922SOL    HW116734  12.065   5.611   2.716 -0.7478  0.2587 -0.1336
35922SOL    HW216735  12.145   5.598   2.844 -0.4147  0.7414 -0.2891
35923SOL     OW16736   9.935   0.004   3.324  0.0537 -0.0145 -0.1842
35923SOL    HW116737   9.902  -0.085   3.311  1.5760 -0.7221  0.4614
35923SOL    HW216738   9.857   0.059   3.321 -1.1707 -1.5476  1.0423
35924SOL     OW16739   0.828   8.871  10.167  0.4147  0.2671  0.4528
35924SOL    HW116740   0.781   8.803  10.215  1.2867 -0.5152  0.2388
35924SOL    HW216741   0.905   8.890  10.221 -0.0866  1.4726  0.7651
35925SOL     OW16742  11.141   9.534   8.174  0.4501  0.2283  0.3701
35925SOL    HW116743  11.163   9.518   8.266  2.7482 -0.9133 -0.2902
35925SOL    HW216744  11.208   9.596   8.145 -1.3667  2.0555 -0.1237
35926SOL     OW16745   4.456   1.112   0.019 -0.5931 -0.1685 -0.1585
35926SOL    HW116746   4.469   1.036  -0.039  0.1357 -0.6428  0.6086
35926SOL    HW216747   4.372   1.149  -0.009 -0.5629 -0.7641 -1.0938
35927SOL     OW16748   5.828   8.035  10.035 -0.1013 -0.5994  0.6635
35927SOL    HW116749   5.889   8.080   9.977  0.8994 -1.6652  0.8608
35927SOL    HW216750   5.762   8.101  10.056  0.7507  0.4541  0.1194
35928SOL     OW16751   4.605  12.550   1.839  0.0399 -0.4314 -0.5329
35928SOL    HW116752   4.609  12.495   1.917  4.6327 -1.0905 -0.9902
35928SOL    HW216753   4.594  12.639   1.873 -0.5353 -0.9371  0.6556
35929SOL     OW16754  11.347   3.151  10.399 -0.0182 -0.3531  0.0889
35929SOL    HW116755  11.396   3.155  10.317  0.6703 -0.0078  0.5120
35929SOL    HW216756  11.313   3.239  10.412  1.8519  0.2448  1.3485
35930SOL     OW16757  12.012  10.775   2.321  0.0001 -0.2893  0.2570
35930SOL    HW116758  12.079  10.750   2.385  1.2512  1.2809 -0.3767
35930SOL    HW216759  12.056  10.837   2.264 -1.6449 -0.2357 -1.0054
35931SOL     OW16760   1.571   8.033   4.531  0.5162  0.2615 -0.5905
35931SOL    HW116761   1.543   7.943   4.545  1.0722  0.2798  0.8510
35931SOL    HW216762   1.490   8.081   4.514 -0.0229 -0.1889  0.5822
35932SOL     OW16763   1.752   7.296   3.900 -0.0873 -0.1014 -0.1753
35932SOL    HW116764   1.808   7.247   3.960  0.3573  0.6508  0.0331
35932SOL    HW216765   1.776   7.263   3.813  3.0892  2.4305 -0.4451
35933SOL     OW16766   2.044   7.733   2.857  0.3567 -0.1923 -0.0656
35933SOL    HW116767   2.066   7.641   2.871  1.1543  0.0085  0.0423
35933SOL    HW216768   2.095   7.781   2.922  1.1333  0.4418 -1.1145
35934SOL     OW16769   5.208   7.716   8.989  0.0765  0.1313 -0.5551
35934SOL    HW116770   5.282   7.664   9.022 -0.3746 -0.4321 -0.4086
35934SOL    HW216771   5.153   7.731   9.067 -0.5451 -0.4479 -0.8656
35935SOL     OW16772   0.405   8.635   7.309  0.4233  0.3401  0.0893
35935SOL    HW116773   0.328   8.689   7.325  0.0921  0.1377 -0.7652
35935SOL    HW216774   0.399   8.564   7.374  0.4305  0.8690  0.6782
35936SOL     OW16775   6.726   1.602   0.272 -0.0664 -0.4293 -0.2233
35936SOL    HW116776   6.754   1.693   0.268  0.9222 -0.6569  0.8177
35936SOL    HW216777   6.801   1.553   0.238 -1.2451 -0.8034 -2.5208
35937SOL     OW16778   9.346   6.028   1.355 -0.1922  0.1381  0.2234
35937SOL    HW116779   9.376   5.955   1.301 -1.9505  0.0589 -0.7049
35937SOL    HW216780   9.296   5.987   1.426  0.1156  0.3732  0.5838
35938SOL     OW16781   5.331   1.735   5.211 -0.2762 -0.0833 -0.1411
35938SOL    HW116782   5.403   1.704   5.156  0.2801 -1.2895  1.2079
35938SOL    HW216783   5.252   1.708   5.163  0.1896 -0.9283 -0.4726
35939SOL     OW16784   5.104   5.781   1.668 -0.1765  0.1522 -0.1379
35939SOL    HW116785   5.088   5.718   1.598  1.2478 -0.5656  0.1612
35939SOL    HW216786   5.027   5.839   1.665 -0.7912 -0.6735 -1.3910
35940SOL     OW16787  12.065   1.123   6.287 -0.4098 -0.0742 -0.9062
35940SOL    HW116788  12.091   1.206   6.327  0.6784 -0.1627 -1.3793
35940SOL    HW216789  12.121   1.058   6.329 -0.2562 -0.3619 -1.5406
35941SOL     OW16790   6.373   0.993   3.762 -0.1778 -0.3293 -0.0456
35941SOL    HW116791   6.458   0.949   3.773  0.6627  0.7259 -1.8911
35941SOL    HW216792   6.311   0.938   3.810  1.2741 -2.0115 -0.0052
35942SOL     OW16793   5.541   5.458   1.199  0.0678 -0.1132 -0.2788
35942SOL    HW116794   5.571   5.476   1.110  0.0372  0.2220 -0.2195
35942SOL    HW216795   5.447   5.476   1.197 -0.2108 -1.4687 -0.5493
35943SOL     OW16796   9.331   5.247   4.437  0.2733 -0.2665  0.0903
35943SOL    HW116797   9.347   5.233   4.344  0.2558  0.8318 -0.0920
35943SOL    HW216798   9.398   5.196   4.482  1.8376  1.1130 -0.5833
35944SOL     OW16799  11.039  12.153   0.824 -0.1323 -0.0122  0.0134
35944SOL    HW116800  11.089  12.235   0.828  2.0219 -1.2785  0.8323
35944SOL    HW216801  10.987  12.161   0.744  0.9922  1.6298 -0.6119
35945SOL     OW16802  12.153   7.405   2.916 -0.0412 -0.3708  0.0705
35945SOL    HW116803  12.233   7.450   2.889 -1.0267  0.8189 -0.9622
35945SOL    HW216804  12.136   7.440   3.004  1.1828 -1.5228  0.8093
35946SOL     OW16805  11.842   3.450   4.299  0.0516 -0.7089  0.0796
35946SOL    HW116806  11.887   3.512   4.356  0.4542 -0.2486 -0.7291
35946SOL    HW216807  11.912   3.410   4.248 -0.4888  0.6099 -1.7883
35947SOL     OW16808   5.113   8.875   4.211 -0.0684 -0.3362 -0.3439
35947SOL    HW116809   5.181   8.823   4.253  0.4246  0.0586 -0.6565
35947SOL    HW216810   5.031   8.835   4.241  0.2753 -0.2266  0.7932
35948SOL     OW16811   6.776   3.992  11.212  0.2169  0.0113 -0.0182
35948SOL    HW116812   6.828   3.995  11.132  0.9593  0.3945  0.4716
35948SOL    HW216813   6.786   3.903  11.244  0.2507 -0.0280 -0.1369
35949SOL     OW16814   6.573   0.140   3.081 -0.6685 -0.2616 -0.4112
35949SOL    HW116815   6.622   0.219   3.105  0.4455 -1.2723  0.7076
35949SOL    HW216816   6.583   0.134   2.986  1.0826 -0.2375 -0.2591
35950SOL     OW16817   7.975  12.558  12.111  0.4208 -0.3218  0.1821
35950SOL    HW116818   8.022  12.635  12.145  0.3921  0.1454 -0.8082
35950SOL    HW216819   7.984  12.564  12.016 -0.6097 -0.8938  0.0333
35951SOL     OW16820  10.165  10.216   7.651 -0.0722  0.3245  0.2276
35951SOL    HW116821  10.081  10.171   7.648 -0.8440  1.5635  1.7264
35951SOL    HW216822  10.230  10.148   7.631 -1.3032 -1.0286  0.7110
35952SOL     OW16823   1.197   9.266   1.042 -0.0441 -0.0446  0.1013
35952SOL    HW116824   1.235   9.188   1.001 -0.3066 -0.1846  0.1250
35952SOL    HW216825   1.143   9.233   1.113  1.6839  0.2805  1.6295
35953SOL     OW16826   6.519   2.564   4.634 -0.3565  0.1549  0.4336
35953SOL    HW116827   6.546   2.600   4.718  0.9129 -0.6216  0.3781
35953SOL    HW216828   6.576   2.607   4.570 -1.7235  1.2083 -0.1483
35954SOL     OW16829  10.728   5.803   2.350 -0.4395  0.1628  0.1940
35954SOL    HW116830  10.639   5.793   2.316 -0.0384 -0.3946 -0.7266
35954SOL    HW216831  10.774   5.854   2.283  0.1024 -0.1109  0.3491
35955SOL     OW16832   1.316   9.834   6.653  0.5854  0.2977 -0.4691
35955SOL    HW116833   1.304   9.825   6.747 -3.0079 -1.2119 -0.9220
35955SOL    HW216834   1.289   9.923   6.633  0.0832  0.2066 -0.2030
35956SOL     OW16835   1.182   6.896   7.157 -0.7822 -0.5277 -0.2623
35956SOL    HW116836   1.142   6.830   7.100  0.3947  1.6021 -3.8552
35956SOL    HW216837   1.274   6.873   7.160 -0.7021 -0.1686  0.1673
35957SOL     OW16838   2.589   5.199   8.917 -0.3960 -0.0826 -1.1248
35957SOL    HW116839   2.558   5.285   8.948  1.2329  0.3142 -0.5032
35957SOL    HW216840   2.527   5.137   8.953  0.3755  0.5326  1.4823
35958SOL     OW16841   6.959  12.059   9.265  0.6918  0.7967 -0.3025
35958SOL    HW116842   7.053  12.055   9.281  0.5393  1.9710  1.0901
35958SOL    HW216843   6.938  12.153   9.265 -0.6579  0.5373  0.7056
35959SOL     OW16844   5.156   5.064   1.260 -0.1573  0.5106 -0.0075
35959SOL    HW116845   5.123   5.000   1.196 -0.3582  0.0287  0.5641
35959SOL    HW216846   5.193   5.134   1.207  1.1504 -0.6240 -0.6819
35960SOL     OW16847   8.668   0.736   3.884  0.2877 -1.1243 -0.4884
35960SOL    HW116848   8.655   0.655   3.932 -0.5762 -1.7430 -1.7023
35960SOL    HW216849   8.580   0.769   3.866  0.6183 -0.0600 -0.2591
35961SOL     OW16850   8.203   3.954   7.153 -0.1310 -0.5268 -0.4375
35961SOL    HW116851   8.292   3.989   7.164  0.0598 -0.8969 -0.7704
35961SOL    HW216852   8.174   3.935   7.242 -0.4664  1.0045 -0.1853
35962SOL     OW16853   6.011  11.547   2.093  0.0589 -0.9025 -0.1655
35962SOL    HW116854   6.046  11.607   2.159 -0.6412 -0.3490 -0.2877
35962SOL    HW216855   5.947  11.494   2.140 -1.7600  0.6751 -0.7205
35963SOL     OW16856   2.445   3.769   2.383 -0.0097  0.3172 -0.6908
35963SOL    HW116857   2.393   3.701   2.339  0.4261  0.7704 -1.9513
35963SOL    HW216858   2.474   3.728   2.465 -0.6215 -0.6445 -0.9392
35964SOL     OW16859   1.524  10.175  10.585  0.1643  0.1796  0.5527
35964SOL    HW116860   1.604  10.191  10.534 -1.0282 -0.3011 -1.5784
35964SOL    HW216861   1.549  10.107  10.647  1.1885 -0.6955 -0.7518
35965SOL     OW16862   5.459  10.338  10.842  0.4200 -0.3498 -0.3872
35965SOL    HW116863   5.432  10.259  10.888 -0.1634 -1.7971 -2.9792
35965SOL    HW216864   5.542  10.363  10.883  0.2346 -1.8550  0.9902
35966SOL     OW16865  10.380   4.361   5.457  0.3947 -0.4825 -0.3009
35966SOL    HW116866  10.320   4.343   5.530 -0.0039  0.5685 -0.3514
35966SOL    HW216867  10.325   4.361   5.379  0.4892  0.1892 -0.3821
35967SOL     OW16868   6.744   1.074   4.685 -0.0448  0.5466 -0.4204
35967SOL    HW116869   6.722   1.077   4.591  0.7239 -0.5773 -0.6579
35967SOL    HW216870   6.689   1.005   4.720  0.5502  0.1225 -0.3066
35968SOL     OW16871   0.351  11.067   4.946  0.1736 -0.3553 -0.4985
35968SOL    HW116872   0.324  11.021   5.026  0.0494  0.4157 -0.0924
35968SOL    HW216873   0.445  11.076   4.955  0.0570  0.4692 -0.0385
35969SOL     OW16874   7.428   8.521  12.186  0.4496  0.1696 -0.6274
35969SOL    HW116875   7.440   8.427  12.196  0.1104  0.2549  0.8999
35969SOL    HW216876   7.340   8.530  12.151 -0.6375 -0.0572  1.8240
35970SOL     OW16877   6.221  11.794   9.021 -0.4588 -0.0297  0.2566
35970SOL    HW116878   6.268  11.750   8.951  1.7604 -1.7852  2.6437
35970SOL    HW216879   6.286  11.850   9.063 -1.9389  1.6200  0.5161
35971SOL     OW16880   2.431  11.312   3.404  0.0921  0.3069  0.0771
35971SOL    HW116881   2.493  11.339   3.336  0.6305  0.6369  0.6855
35971SOL    HW216882   2.399  11.227   3.375  0.8697  0.1062 -0.2255
35972SOL     OW16883  10.950   8.026   9.527  0.3261  0.4675  0.0933
35972SOL    HW116884  10.947   7.938   9.490 -0.5219  0.6775 -0.3574
35972SOL    HW216885  11.027   8.025   9.584  0.9409 -0.2484 -0.7123
35973SOL     OW16886   0.766   9.284   3.934 -0.2199 -0.9304  0.4528
35973SOL    HW116887   0.702   9.254   3.998 -0.5650 -0.0478  0.5363
35973SOL    HW216888   0.720   9.350   3.883 -0.7072 -3.2291 -2.3081
35974SOL     OW16889   4.838   7.062   2.215  0.5598 -0.6260 -0.4508
35974SOL    HW116890   4.743   7.069   2.211  0.6156  0.4854 -0.1727
35974SOL    HW216891   4.868   7.090   2.128  0.6679 -0.1936 -0.2749
35975SOL     OW16892  12.232   0.544   2.623 -0.7093 -0.3083 -0.5115
35975SOL    HW116893  12.265   0.632   2.608 -1.7757  0.3217  0.7517
35975SOL    HW216894  12.174   0.527   2.549  0.1449 -0.3120 -1.2057
35976SOL     OW16895  10.621   2.501   4.388  0.2231  0.5749 -0.0797
35976SOL    HW116896  10.576   2.543   4.315  0.7020  2.0040  0.4090
35976SOL    HW216897  10.619   2.407   4.367 -2.6480  0.5755 -0.2442
35977SOL     OW16898   9.077   8.132   6.851 -0.1425  0.2495  0.1112
35977SOL    HW116899   9.099   8.218   6.886 -2.1400  0.5742  0.6656
35977SOL    HW216900   9.019   8.149   6.778 -1.2677 -0.6250  0.7623
35978SOL     OW16901   5.905   8.846   8.127 -0.3038  0.0813 -0.4520
35978SOL    HW116902   5.826   8.880   8.086  0.3669  1.2840 -0.7868
35978SOL    HW216903   5.884   8.755   8.147 -1.5142  0.1768 -1.1836
35979SOL     OW16904   2.704   1.558   0.297 -0.0269  0.6238 -0.6088
35979SOL    HW116905   2.690   1.474   0.253 -1.8229  0.9421 -0.7172
35979SOL    HW216906   2.683   1.542   0.389  0.6381  0.7077 -0.4410
35980SOL     OW16907   8.320   1.346   3.266 -0.2814  0.0011  0.4241
35980SOL    HW116908   8.278   1.262   3.250 -1.9586  0.8331  0.2959
35980SOL    HW216909   8.249   1.405   3.291  0.9447  1.2183  1.2226
35981SOL     OW16910   6.976   7.494   3.038 -0.5456  0.2911 -0.1065
35981SOL    HW116911   6.944   7.549   3.110  1.2056  0.4685  0.5812
35981SOL    HW216912   7.056   7.538   3.008 -0.1749 -0.8504 -0.8317
35982SOL     OW16913  10.560   0.802   5.548  0.4232  0.0845  0.3346
35982SOL    HW116914  10.626   0.848   5.497  1.2129  0.1262  1.3443
35982SOL    HW216915  10.603   0.720   5.574 -0.5942 -0.7598 -0.5592
35983SOL     OW16916   5.853  10.720  12.530  0.4709  0.6152 -0.1921
35983SOL    HW116917   5.906  10.732  12.451  1.2093 -0.5880  0.0921
35983SOL    HW216918   5.864  10.801  12.579  2.5649  0.2121  0.1315
35984SOL     OW16919   1.922   1.079   2.432  0.4261 -0.0596  0.1861
35984SOL    HW116920   1.932   1.042   2.344 -0.4405 -0.5247  0.2736
35984SOL    HW216921   1.991   1.145   2.438 -0.2197  0.7777 -1.2493
35985SOL     OW16922   7.357   4.096   2.811 -0.1725  0.0760 -0.1860
35985SOL    HW116923   7.306   4.125   2.736 -0.1870 -1.5901 -0.8823
35985SOL    HW216924   7.345   4.001   2.812  2.6762 -0.3787 -0.2373
35986SOL     OW16925   0.893   3.703   3.855 -0.2945  0.4788 -0.1316
35986SOL    HW116926   0.838   3.639   3.900 -0.4910  2.3765  2.6110
35986SOL    HW216927   0.981   3.685   3.886 -0.4827  2.0503  1.5096
35987SOL     OW16928   0.973  10.990   1.833 -0.3108 -0.1022 -0.0112
35987SOL    HW116929   1.027  11.006   1.911 -0.0482  2.0383 -0.5742
35987SOL    HW216930   0.893  10.952   1.868 -1.1133  2.7800  1.6607
35988SOL     OW16931   4.525  12.572   8.417 -0.6459 -0.3752 -0.3138
35988SOL    HW116932   4.616  12.544   8.430 -0.4220  0.4909  0.0846
35988SOL    HW216933   4.494  12.593   8.505 -1.0008 -0.0007 -0.5233
35989SOL     OW16934   1.746  10.975   5.317 -0.4350 -0.2185 -0.5233
35989SOL    HW116935   1.827  10.977   5.266 -0.1651  1.0802 -0.0695
35989SOL    HW216936   1.702  10.895   5.288  1.2114 -1.2091 -0.4392
35990SOL     OW16937   2.610   5.609   4.769 -0.1780  0.1354  0.6172
35990SOL    HW116938   2.572   5.674   4.710 -0.6204 -0.5625  0.1211
35990SOL    HW216939   2.552   5.533   4.762  0.4938 -0.4255  0.9656
35991SOL     OW16940   6.971   3.770   4.639  0.0822 -0.1103 -0.3820
35991SOL    HW116941   7.015   3.791   4.721 -2.0300  0.7318  0.6146
35991SOL    HW216942   6.978   3.675   4.632  2.4413  0.0152 -0.5679
35992SOL     OW16943   2.815   4.038   0.613 -0.3852 -0.2244  0.0758
35992SOL    HW116944   2.874   4.021   0.539  1.0278 -2.4924  1.5851
35992SOL    HW216945   2.742   3.978   0.600  0.3318 -1.3299  0.9373
35993SOL     OW16946   7.899   4.244   1.009 -0.2011  0.1165 -0.3189
35993SOL    HW116947   7.818   4.251   1.061  0.1523 -0.3703  0.3150
35993SOL    HW216948   7.957   4.309   1.049  0.1561 -0.4298  0.0595
35994SOL     OW16949   2.184   3.190   2.459 -0.6939 -0.1438 -0.8435
35994SOL    HW116950   2.164   3.141   2.379 -1.4772 -1.2542 -0.0105
35994SOL    HW216951   2.232   3.128   2.514  1.1337  1.0706 -0.9905
35995SOL     OW16952   8.469   3.229  10.043  0.2296 -0.0156  0.5091
35995SOL    HW116953   8.451   3.137  10.024 -1.2702  0.6879 -1.8971
35995SOL    HW216954   8.554   3.247  10.002 -0.6841  0.2476 -1.3821
35996SOL     OW16955   4.090   1.908   4.156 -0.2533  0.1573 -0.8228
35996SOL    HW116956   4.004   1.948   4.143  0.2024  1.4923  0.0493
35996SOL    HW216957   4.152   1.979   4.142  0.6536 -0.5248 -0.3781
35997SOL     OW16958   5.024  12.091   3.941 -0.4789  0.0289 -0.3304
35997SOL    HW116959   5.049  12.170   3.894 -0.1876 -1.0165 -1.9916
35997SOL    HW216960   4.947  12.116   3.992 -0.3939  1.3719 -0.8392
35998SOL     OW16961  11.639   1.927   3.181 -0.7338 -0.0547 -0.0597
35998SOL    HW116962  11.661   1.834   3.187  2.3983  0.6366  1.3381
35998SOL    HW216963  11.721   1.969   3.156 -0.9713  2.6668  3.0029
35999SOL     OW16964  10.794   5.855   5.546 -0.0318 -0.0339 -0.2123
35999SOL    HW116965  10.830   5.769   5.527  1.3485  0.0941  1.5151
35999SOL    HW216966  10.789   5.899   5.461  2.0561 -0.8006 -0.7956
36000SOL     OW16967   9.794   1.967  10.879 -0.1729  0.7105 -0.1559
36000SOL    HW116968   9.714   1.954  10.929  0.1739  0.1850  0.2788
36000SOL    HW216969   9.831   2.048  10.914  0.0336  0.3822  0.4048
36001SOL     OW16970   2.271   8.660  10.584 -0.6404 -0.2949  0.2345
36001SOL    HW116971   2.241   8.697  10.667  0.3607  2.6226 -0.5743
36001SOL    HW216972   2.247   8.725  10.518  0.2991 -1.6083 -1.5015
36002SOL     OW16973   5.641   8.372   4.116  0.0719 -0.9040 -0.4068
36002SOL    HW116974   5.550   8.401   4.121 -0.0003 -1.2263  0.2754
36002SOL    HW216975   5.640   8.284   4.153  0.5960 -1.0751 -0.7832
36003SOL     OW16976   6.767   8.534   1.008  0.0908  0.5199 -0.2895
36003SOL    HW116977   6.710   8.575   1.072 -0.8416 -1.1032 -0.0354
36003SOL    HW216978   6.785   8.603   0.944 -1.2931  1.3542  0.1855
36004SOL     OW16979  12.483   7.771   4.814 -0.1533 -0.2025 -0.1054
36004SOL    HW116980  12.439   7.697   4.858  0.0919  0.2378  0.9101
36004SOL    HW216981  12.454   7.848   4.863  0.8975  0.2022 -0.0994
36005SOL     OW16982   4.097   3.176   4.234  0.3165 -0.2134  1.0197
36005SOL    HW116983   4.171   3.116   4.245  1.1538  0.7560  0.7878
36005SOL    HW216984   4.129   3.242   4.172 -1.2904 -0.6447 -0.3380
36006SOL     OW16985   3.073   9.817   0.515  0.2640 -0.1644 -0.1590
36006SOL    HW116986   3.048   9.898   0.471  3.1120  0.4090 -0.9203
36006SOL    HW216987   3.047   9.748   0.455 -0.5886  0.2735 -0.3130
36007SOL     OW16988   8.490   2.321   7.724  1.1463  0.5507 -0.1173
36007SOL    HW116989   8.464   2.251   7.784  1.6086 -0.0476 -0.6037
36007SOL    HW216990   8.442   2.303   7.644  0.0586  1.6946  0.2437
36008SOL     OW16991   2.940  11.832   3.838  0.9073 -0.1786  0.2527
36008SOL    HW116992   2.915  11.912   3.792  0.2764 -0.4249  0.1543
36008SOL    HW216993   3.002  11.860   3.905  0.8744  0.3553  0.0606
36009SOL     OW16994  10.597   9.485   5.824  0.5718  0.2554 -0.2858
36009SOL    HW116995  10.589   9.391   5.813  1.4199  0.2850 -1.3172
36009SOL    HW216996  10.562   9.522   5.743 -1.3412  0.9389  0.7681
36010SOL     OW16997   4.168   4.154   8.342 -0.3022 -0.2075 -0.5065
36010SOL    HW116998   4.155   4.229   8.401  1.0595  0.0608 -0.5261
36010SOL    HW216999   4.258   4.127   8.356 -0.6679 -1.6720 -0.7320
36011SOL     OW17000   6.451   8.325  11.681  0.2508 -0.4195  0.2759
36011SOL    HW117001   6.428   8.257  11.618  1.1599  0.4706 -1.0928
36011SOL    HW217002   6.487   8.396  11.627  0.2181  0.7577  1.7300
36012SOL     OW17003   9.984   5.896   0.308  0.2465 -0.9057  0.2707
36012SOL    HW117004   9.959   5.892   0.215  0.7689 -0.1080  0.0820
36012SOL    HW217005   9.907   5.865   0.355 -0.2166 -0.8148 -0.4113
36013SOL     OW17006   7.381   2.799   6.881  0.1572 -0.8621 -0.0876
36013SOL    HW117007   7.333   2.718   6.900 -0.3523 -0.4681  0.3582
36013SOL    HW217008   7.361   2.856   6.956 -0.7059  0.2042 -1.0855
36014SOL     OW17009   2.497   3.824   4.752  0.5968 -0.2646 -0.4586
36014SOL    HW117010   2.556   3.865   4.816 -0.1811 -1.0625  0.7994
36014SOL    HW217011   2.524   3.733   4.749  0.9736 -0.1292 -1.7036
36015SOL     OW17012  10.849   2.115   2.320 -0.3918 -0.4586 -0.6878
36015SOL    HW117013  10.912   2.061   2.273 -0.5393 -0.2498 -1.1347
36015SOL    HW217014  10.787   2.053   2.358 -1.5810 -0.5569 -2.6615
36016SOL     OW17015   0.940  12.104   6.671  0.6218 -0.3925  0.2075
36016SOL    HW117016   0.856  12.098   6.716  1.6938  0.1216  2.4029
36016SOL    HW217017   0.957  12.198   6.663  1.1661 -0.4902  0.1563
36017SOL     OW17018   9.264   6.905   8.371  0.0375 -0.8306 -0.2051
36017SOL    HW117019   9.327   6.857   8.318  0.9948  1.7429 -1.5573
36017SOL    HW217020   9.179   6.875   8.338  0.6000 -1.0061 -1.5937
36018SOL     OW17021  10.951  11.438   6.690 -0.1496 -0.7999  0.3121
36018SOL    HW117022  10.905  11.359   6.719  0.1638 -0.6421  1.2670
36018SOL    HW217023  10.956  11.429   6.595 -1.3984 -1.2307  0.2665
36019SOL     OW17024   6.908   7.648   2.084 -0.0914 -0.4093 -0.1367
36019SOL    HW117025   6.854   7.568   2.082  1.2815 -1.4966  1.8717
36019SOL    HW217026   6.945   7.655   1.996  0.6014 -2.6476 -0.0838
36020SOL     OW17027   0.998   9.171   4.031  0.4587 -0.1285 -0.3839
36020SOL    HW117028   0.971   9.108   4.098  1.5798  1.0136  1.2078
36020SOL    HW217029   0.921   9.181   3.976  0.0903 -2.4765 -0.3687
36021SOL     OW17030   4.289   6.053   8.144  0.0613 -0.2498  0.7739
36021SOL    HW117031   4.254   6.141   8.143  0.5994  0.0297  2.7900
36021SOL    HW217032   4.217   5.998   8.111 -0.6075  0.8005  0.4324
36022SOL     OW17033  11.164   3.717   3.988  0.3338  0.2341  0.4723
36022SOL    HW117034  11.078   3.760   3.986  0.3651  0.3200 -1.5520
36022SOL    HW217035  11.185   3.703   3.896  1.2758 -2.2580  0.9875
36023SOL     OW17036  12.487  10.675   3.074  0.3369 -0.0939  0.1662
36023SOL    HW117037  12.411  10.618   3.058 -1.2144  1.5013  1.4088
36023SOL    HW217038  12.559  10.614   3.091 -0.9332 -1.6924  0.1205
36024SOL     OW17039   5.866  12.146  12.393 -0.1969  0.1031 -0.3699
36024SOL    HW117040   5.795  12.101  12.439  0.0808 -1.0124 -0.9785
36024SOL    HW217041   5.840  12.142  12.300 -0.6469  2.1074 -0.3796
36025SOL     OW17042   6.081  10.879   0.859 -0.1223  0.0755 -0.0571
36025SOL    HW117043   6.091  10.815   0.929 -0.5980  0.7554  0.6651
36025SOL    HW217044   6.009  10.935   0.889  1.0532  1.6641 -0.0751
36026SOL     OW17045   2.551   3.062   8.085 -0.4695 -0.0346 -0.2547
36026SOL    HW117046   2.644   3.040   8.087 -0.9125 -2.3029 -1.1494
36026SOL    HW217047   2.546   3.142   8.032  0.9183 -0.2132 -0.6993
36027SOL     OW17048   7.639   0.741   4.684 -0.0749 -0.2554  0.1217
36027SOL    HW117049   7.546   0.764   4.673 -0.0749 -0.6959 -0.9495
36027SOL    HW217050   7.653   0.670   4.621  0.9221 -0.3881  0.4851
36028SOL     OW17051   0.890  12.049   2.557  0.6159 -0.5230  0.8274
36028SOL    HW117052   0.815  12.002   2.594  0.4305 -0.1883  0.8735
36028SOL    HW217053   0.963  12.024   2.614  0.2573  0.2941  1.6685
36029SOL     OW17054   6.900   0.765   4.861  0.0828 -0.5717 -0.1001
36029SOL    HW117055   6.949   0.746   4.780  1.0964  0.2315  0.2944
36029SOL    HW217056   6.811   0.734   4.843  0.7948 -2.4321 -0.7146
36030SOL     OW17057   9.384  12.401   8.855 -0.1376 -0.4906  0.5529
36030SOL    HW117058   9.320  12.430   8.919 -0.6600 -2.9663  1.2713
36030SOL    HW217059   9.432  12.331   8.899  1.5756 -0.2180 -0.7496
36031SOL     OW17060   5.169   3.178   1.366 -0.0708 -0.3636 -0.0179
36031SOL    HW117061   5.117   3.099   1.382 -2.1257  0.2535 -2.9449
36031SOL    HW217062   5.213   3.161   1.283  1.5212  0.6333  0.5760
36032SOL     OW17063   0.460   0.096   2.893  0.2706  0.0443  0.7237
36032SOL    HW117064   0.503   0.042   2.828 -0.7406 -1.7062  1.4332
36032SOL    HW217065   0.366   0.083   2.877 -0.0037 -0.6179  2.6067
36033SOL     OW17066   6.426   3.520   5.579  0.2388  0.1961 -0.1942
36033SOL    HW117067   6.376   3.468   5.516 -0.4943  1.9757 -1.1777
36033SOL    HW217068   6.505   3.469   5.596 -1.0500 -1.8476 -0.0212
36034SOL     OW17069   2.211  10.578  10.296 -0.2196  0.3448 -0.1332
36034SOL    HW117070   2.282  10.521  10.267 -0.5427  0.7738 -1.8714
36034SOL    HW217071   2.167  10.528  10.364  0.8245 -0.5623 -0.0885
36035SOL     OW17072   5.125   4.983   3.798  0.4812 -0.4615  0.2123
36035SOL    HW117073   5.186   5.055   3.808  1.2500 -0.8023 -1.5983
36035SOL    HW217074   5.060   5.014   3.736  1.2478 -1.5435 -1.1861
36036SOL     OW17075   2.617   5.961   7.638 -0.8684 -0.5389 -0.0092
36036SOL    HW117076   2.656   5.888   7.590 -1.3724 -1.3568  0.7903
36036SOL    HW217077   2.539   5.983   7.587 -0.0302  0.3220 -0.9617
36037SOL     OW17078  11.369   0.388   5.539 -0.2112 -0.9307  0.2287
36037SOL    HW117079  11.424   0.439   5.480 -0.6894 -0.6961 -0.0169
36037SOL    HW217080  11.431   0.338   5.592  0.2353 -2.3811 -1.5468
36038SOL     OW17081   7.351   4.050   1.102 -0.6189 -0.1195 -0.0033
36038SOL    HW117082   7.279   4.105   1.071 -0.0764  0.2598 -0.6310
36038SOL    HW217083   7.310   3.968   1.127 -1.1461 -0.3294 -1.4319
36039SOL     OW17084  11.097  11.078   9.550 -0.2508 -0.0806 -0.5886
36039SOL    HW117085  11.051  11.086   9.634  1.1435 -0.5863  0.2652
36039SOL    HW217086  11.033  11.038   9.491 -0.3691 -2.6051  1.0889
36040SOL     OW17087   3.196  11.479   4.981  0.1878 -0.2009  0.4549
36040SOL    HW117088   3.210  11.469   4.886  0.1590 -1.2571  0.5512
36040SOL    HW217089   3.183  11.573   4.993 -0.5611 -0.1269 -0.6956
36041SOL     OW17090   8.767   3.147   8.402  0.3071 -0.1531  0.0229
36041SOL    HW117091   8.827   3.179   8.469  0.2090  0.5641 -0.2275
36041SOL    HW217092   8.777   3.051   8.405 -0.8274 -0.2669  2.1068
36042SOL     OW17093  10.744  11.495  11.293 -0.4750 -0.5330  0.0134
36042SOL    HW117094  10.758  11.578  11.338 -0.8404 -0.9085  0.8383
36042SOL    HW217095  10.696  11.518  11.213 -1.7428 -0.0719  0.8694
36043SOL     OW17096   4.186   9.015  11.446 -0.6115 -0.3155 -0.6657
36043SOL    HW117097   4.112   9.058  11.488 -0.4940 -0.7853  0.0293
36043SOL    HW217098   4.149   8.936  11.407 -0.6030 -0.1966 -0.9178
36044SOL     OW17099   9.042   8.227   2.770  0.4488  0.0745  0.7089
36044SOL    HW117100   9.055   8.154   2.831 -1.4903 -1.5066 -0.6119
36044SOL    HW217101   8.951   8.252   2.781  0.1250 -0.0400 -1.2364
36045SOL     OW17102   3.018   8.613  11.109 -0.0263 -0.3791  0.4106
36045SOL    HW117103   3.082   8.671  11.151  0.0341 -0.8994  1.0533
36045SOL    HW217104   2.970   8.670  11.049 -0.0418  0.3657  1.1125
36046SOL     OW17105   4.963   5.576   9.849  0.1037 -0.0932  0.2170
36046SOL    HW117106   4.959   5.670   9.831  0.4815  0.3250  2.0684
36046SOL    HW217107   5.055   5.553   9.837  0.2661  0.0849  1.0322
36047SOL     OW17108   8.892   6.330   4.486 -0.0359 -0.3908 -0.8170
36047SOL    HW117109   8.820   6.270   4.501 -0.5291  0.5699  0.9181
36047SOL    HW217110   8.922   6.355   4.574  1.9991 -0.2718 -1.4766
36048SOL     OW17111   2.267  12.261   6.414  0.6511  0.1395  0.0877
36048SOL    HW117112   2.307  12.334   6.367 -0.5519 -0.1461 -1.4461
36048SOL    HW217113   2.178  12.290   6.433  1.2231  0.4586  2.7738
36049SOL     OW17114   3.538   9.913   4.891  0.6779 -0.4597 -0.1245
36049SOL    HW117115   3.525   9.959   4.808  1.5204 -2.1757 -1.2507
36049SOL    HW217116   3.618   9.862   4.879  1.7250  0.4305  2.3114
36050SOL     OW17117   2.167   2.323   5.982 -0.3182  0.2546 -0.3869
36050SOL    HW117118   2.103   2.254   6.000  0.5273 -0.2318  0.8655
36050SOL    HW217119   2.118   2.404   5.993 -1.0095 -0.1170 -0.6319
36051SOL     OW17120   2.083   3.603   4.999  0.3645  0.0177  0.0220
36051SOL    HW117121   2.092   3.598   5.095  3.1331  0.0347 -0.1693
36051SOL    HW217122   2.098   3.695   4.978 -1.7786  0.3258 -0.3663
36052SOL     OW17123   3.314   9.474  11.446  0.5741  0.2411  0.0013
36052SOL    HW117124   3.325   9.480  11.351 -1.2212  0.7801 -0.2029
36052SOL    HW217125   3.374   9.540  11.481  1.3423 -0.0503 -0.7298
36053SOL     OW17126   7.338  11.882   5.276 -0.0390  0.3827  0.0862
36053SOL    HW117127   7.423  11.926   5.269 -0.1925  0.6225 -0.2741
36053SOL    HW217128   7.332  11.828   5.198 -0.5695  0.9931 -0.3060
36054SOL     OW17129  11.101  11.661   5.874 -0.2645  0.4358  0.1713
36054SOL    HW117130  11.140  11.632   5.957 -1.5179  0.6336  0.8511
36054SOL    HW217131  11.169  11.714   5.833  1.2779 -1.5855 -0.0792
36055SOL     OW17132   8.962   0.742  11.366 -0.4599 -0.2017 -0.4129
36055SOL    HW117133   8.961   0.776  11.277 -2.2161 -1.2316 -0.8325
36055SOL    HW217134   8.898   0.671  11.366 -0.3325 -0.3893  1.6128
36056SOL     OW17135   5.522  10.107   7.631  0.9407 -0.2231 -0.2582
36056SOL    HW117136   5.497  10.187   7.585  0.4163 -1.4818 -2.2883
36056SOL    HW217137   5.614  10.120   7.652  0.1824  2.0930  2.1511
36057SOL     OW17138   8.567  12.220   3.000 -0.7805  0.4469  0.6139
36057SOL    HW117139   8.488  12.262   2.966 -1.6260  0.1192  2.0455
36057SOL    HW217140   8.547  12.126   2.995 -0.6629  0.3768  1.3664
36058SOL     OW17141   1.881   2.821  10.387  0.2033  0.3140  0.6578
36058SOL    HW117142   1.973   2.840  10.368  0.2912 -0.3162  0.4392
36058SOL    HW217143   1.834   2.852  10.309  0.4586 -1.3064 -0.1832
36059SOL     OW17144   6.617   0.725   8.894 -0.4763 -0.2820 -0.2026
36059SOL    HW117145   6.530   0.689   8.913 -0.8133  0.5735 -0.0700
36059SOL    HW217146   6.619   0.808   8.941  0.3926 -0.2612 -0.2673
36060SOL     OW17147   8.495   1.285   2.261 -0.3963 -0.0492  0.2932
36060SOL    HW117148   8.574   1.337   2.275 -1.0127  1.3936 -1.3314
36060SOL    HW217149   8.511   1.238   2.179 -1.2057  0.2449 -0.0422
36061SOL     OW17150   6.821   4.892   8.005 -0.0525 -0.1925 -0.3448
36061SOL    HW117151   6.825   4.974   8.054  1.3139 -0.4546  0.0019
36061SOL    HW217152   6.732   4.859   8.022  0.5975 -0.6774  2.6886
36062SOL     OW17153   6.684  11.171  10.475  0.0897 -0.2290  0.3664
36062SOL    HW117154   6.609  11.201  10.423 -0.9670 -0.1996  1.8219
36062SOL    HW217155   6.657  11.188  10.565  1.2467 -1.6157  0.9970
36063SOL     OW17156  10.250   0.606   1.410  0.0846 -0.2583 -0.0365
36063SOL    HW117157  10.300   0.561   1.477  0.3569 -0.9822 -0.7028
36063SOL    HW217158  10.250   0.698   1.437 -2.1569 -0.8500  2.4103
36064SOL     OW17159   3.131   5.037   2.298 -0.4061  0.3083  0.7724
36064SOL    HW117160   3.194   5.042   2.227 -2.1742  2.0828 -0.7929
36064SOL    HW217161   3.173   5.087   2.369  0.7419 -0.1971  0.4806
36065SOL     OW17162   2.005  10.755   5.608 -0.3205  0.7760 -0.3805
36065SOL    HW117163   2.002  10.818   5.680  0.5235  0.3158  0.0626
36065SOL    HW217164   1.927  10.776   5.555 -1.1248  0.9274  0.8183
36066SOL     OW17165  12.050   0.314  11.004 -0.0364 -0.6302  0.2611
36066SOL    HW117166  12.103   0.241  10.972  0.1408 -0.2511 -0.3261
36066SOL    HW217167  11.961   0.292  10.978  0.3785  0.8698 -2.8961
36067SOL     OW17168   7.344  11.256   0.221 -0.5478  0.1569 -0.0713
36067SOL    HW117169   7.381  11.280   0.306 -2.0153 -0.2582  0.7240
36067SOL    HW217170   7.386  11.173   0.200  1.5949  1.3895 -0.9340
36068SOL     OW17171   5.093  10.467   9.006  0.0791 -0.0010 -0.4279
36068SOL    HW117172   5.068  10.464   8.913  0.1549 -0.4723 -0.4393
36068SOL    HW217173   5.040  10.398   9.046 -0.7302  0.8864  0.0797
36069SOL     OW17174   5.892   9.855   1.093 -0.1861 -0.1026  0.0830
36069SOL    HW117175   5.825   9.800   1.132 -1.7125  1.4672 -0.2051
36069SOL    HW217176   5.904   9.820   1.005  0.1353 -1.0113  0.4809
36070SOL     OW17177  10.370   9.841   7.230  0.4737  0.1944 -0.2717
36070SOL    HW117178  10.380   9.889   7.311  0.3828  1.6434 -1.0883
36070SOL    HW217179  10.367   9.749   7.256 -2.0349  0.7214  1.5888
36071SOL     OW17180   7.502   5.312  10.825 -0.6934 -0.0834  0.0896
36071SOL    HW117181   7.472   5.290  10.914 -0.3078  0.7764  0.4471
36071SOL    HW217182   7.597   5.314  10.831 -0.6155 -1.0356 -0.6095
36072SOL     OW17183   8.765   9.930   0.846  0.1240  0.0887  0.4798
36072SOL    HW117184   8.694   9.873   0.816  0.7154 -0.3191 -0.1684
36072SOL    HW217185   8.818   9.874   0.903 -0.6595  0.6930  1.8380
36073SOL     OW17186   3.568   9.967   3.808  0.0204  0.0735 -0.9700
36073SOL    HW117187   3.647  10.020   3.804 -0.3319  0.6517 -0.4047
36073SOL    HW217188   3.496  10.029   3.796 -0.5040  0.0901  1.5984
36074SOL     OW17189   0.878   3.552   7.137  0.0404  0.1791 -0.2021
36074SOL    HW117190   0.892   3.615   7.208  0.3783  0.3733 -0.4369
36074SOL    HW217191   0.810   3.592   7.083  0.4353  0.4749 -0.4935
36075SOL     OW17192   2.368   0.932   8.765 -0.4521 -1.1923 -0.3085
36075SOL    HW117193   2.302   0.863   8.757 -0.7720 -0.7512 -2.0827
36075SOL    HW217194   2.437   0.906   8.704 -0.6122  0.0665 -1.0673
36076SOL     OW17195   8.512   4.817   4.240  0.0060 -0.2868  0.1069
36076SOL    HW117196   8.419   4.815   4.262  0.0480 -2.7582  0.3501
36076SOL    HW217197   8.513   4.819   4.144 -0.2893 -0.2479  0.1018
36077SOL     OW17198  11.048   2.127  12.180 -0.1169  0.9230 -0.3180
36077SOL    HW117199  11.030   2.134  12.087  0.0362 -1.2267 -0.5534
36077SOL    HW217200  11.144   2.128  12.186 -0.1018 -0.0806 -0.3097
36078SOL     OW17201   2.495   5.004   0.205  0.5001 -0.0884 -0.6162
36078SOL    HW117202   2.535   5.035   0.124 -2.5766  3.6558 -0.9604
36078SOL    HW217203   2.531   5.061   0.273 -1.2626  0.7904 -0.3688
36079SOL     OW17204   3.073   0.062   6.343  0.2004  0.1339 -0.1151
36079SOL    HW117205   3.158   0.068   6.299  0.9772 -2.6780  0.7868
36079SOL    HW217206   3.015   0.118   6.290  2.2152  0.8610 -1.7042
36080SOL     OW17207   5.411   3.069   1.767 -0.8063 -0.2885 -0.2226
36080SOL    HW117208   5.447   3.054   1.855 -1.4198 -1.2785 -0.1295
36080SOL    HW217209   5.480   3.039   1.708 -1.2335 -1.6576 -0.0504
36081SOL     OW17210   5.495   4.003   7.831 -0.0121 -0.2227 -0.4596
36081SOL    HW117211   5.544   3.981   7.753 -1.5685 -1.7122 -1.0709
36081SOL    HW217212   5.537   3.952   7.901 -0.1308 -0.7910 -0.7991
36082SOL     OW17213   4.335  10.270   6.120  0.5344  0.0377 -0.6241
36082SOL    HW117214   4.326  10.181   6.087  1.2141 -0.1189 -0.3972
36082SOL    HW217215   4.282  10.272   6.199  0.7786 -0.2637 -0.4495
36083SOL     OW17216  10.863   5.535   7.331  0.5280 -0.2015  0.1173
36083SOL    HW117217  10.794   5.591   7.366  0.6673 -0.1922  0.3846
36083SOL    HW217218  10.925   5.595   7.290  1.0382 -0.0874  1.0230
36084SOL     OW17219   3.253   1.998  10.108 -0.5369 -0.2694 -0.1967
36084SOL    HW117220   3.174   2.046  10.085 -1.4990 -0.7924  1.7591
36084SOL    HW217221   3.284   2.040  10.189  0.0605 -1.3007  0.1343
36085SOL     OW17222   1.049   2.359   4.483 -0.1142 -0.4923  0.0542
36085SOL    HW117223   1.029   2.425   4.417 -0.6406 -1.6399 -0.9754
36085SOL    HW217224   1.132   2.321   4.455  0.4694  0.0953  0.9502
36086SOL     OW17225   8.442   6.620  11.621 -0.1719 -0.1960 -0.1127
36086SOL    HW117226   8.424   6.539  11.573  0.6181 -1.2115  1.2386
36086SOL    HW217227   8.356   6.650  11.651 -0.2043 -2.7712  2.8118
36087SOL     OW17228   5.586   7.511   5.982 -0.1864 -0.2307 -0.3526
36087SOL    HW117229   5.626   7.472   6.060 -0.4002 -0.2183 -0.2376
36087SOL    HW217230   5.659   7.521   5.921  0.3088  1.2426  0.4290
36088SOL     OW17231   0.726   5.480   2.540  0.7221 -0.1362  0.5010
36088SOL    HW117232   0.799   5.523   2.584  0.4867  1.6469 -0.7418
36088SOL    HW217233   0.662   5.550   2.524 -0.3097 -1.2147 -0.3621
36089SOL     OW17234  11.523   4.433  11.308 -0.0474  0.2124 -0.4837
36089SOL    HW117235  11.490   4.421  11.397  1.3681 -0.1586  0.0339
36089SOL    HW217236  11.594   4.497  11.317 -1.2772  1.8215 -1.7179
36090SOL     OW17237   7.556  11.400   8.300 -0.0804 -0.2401  0.6517
36090SOL    HW117238   7.510  11.479   8.326 -0.6273 -0.3865  0.1404
36090SOL    HW217239   7.621  11.386   8.370  0.7332  1.2325  0.2231
36091SOL     OW17240   1.049   1.076   2.152 -0.0256 -0.2446 -0.3518
36091SOL    HW117241   1.137   1.052   2.123 -0.0327 -0.1748 -0.4333
36091SOL    HW217242   1.040   1.168   2.128 -0.4567 -0.4878 -1.1769
36092SOL     OW17243   7.541   7.780   5.666 -0.4249  0.7765 -0.1131
36092SOL    HW117244   7.505   7.730   5.593  0.4409 -2.0966  1.2830
36092SOL    HW217245   7.471   7.782   5.731  0.9686 -3.0500  1.7782
36093SOL     OW17246   3.258   6.315  11.413  0.3403 -0.0159 -0.3254
36093SOL    HW117247   3.247   6.352  11.325 -0.8794  0.5124  0.0194
36093SOL    HW217248   3.344   6.273  11.411  0.8096  0.9292 -1.4294
36094SOL     OW17249   2.771   5.659  10.000 -0.2666  0.3002 -0.0120
36094SOL    HW117250   2.841   5.723  10.014 -0.3107  0.8596 -2.0556
36094SOL    HW217251   2.694   5.712   9.980 -0.1389 -0.3264 -2.4680
36095SOL     OW17252   0.923  12.218  12.401 -0.3668 -0.1654  0.3299
36095SOL    HW117253   1.009  12.250  12.373  0.7564 -1.1598  2.4152
36095SOL    HW217254   0.937  12.125  12.416 -1.8337 -0.3356  0.6958
36096SOL     OW17255   8.996   2.312   3.760  0.0798 -0.3594  0.3607
36096SOL    HW117256   8.905   2.297   3.735 -0.3876  0.3540  1.5605
36096SOL    HW217257   9.016   2.242   3.823  0.6392 -0.9957 -0.4911
36097SOL     OW17258   9.222   2.749   8.051  0.2175 -0.1408 -0.0564
36097SOL    HW117259   9.279   2.726   7.978 -0.7006  1.2802 -1.2529
36097SOL    HW217260   9.281   2.752   8.127  1.0112 -2.6416 -0.4725
36098SOL     OW17261  12.181   9.184  10.075 -0.7506  0.3154 -0.0015
36098SOL    HW117262  12.129   9.193  10.155 -0.7014  0.3751  0.0234
36098SOL    HW217263  12.128   9.226  10.007  0.6555  3.2884  0.5881
36099SOL     OW17264   9.901   9.805  10.368  0.3311 -0.1163 -0.4460
36099SOL    HW117265   9.946   9.725  10.339  0.1807 -0.2310 -0.3665
36099SOL    HW217266   9.932   9.873  10.308  1.2447 -0.0158  0.1241
36100SOL     OW17267   0.108   2.081   8.821 -0.1634  0.1001 -0.2966
36100SOL    HW117268   0.200   2.080   8.796  0.8121  0.1636  2.8662
36100SOL    HW217269   0.082   2.172   8.812  1.0442  0.6948  1.6134
36101SOL     OW17270   0.626   3.570   5.530 -0.2037 -0.0473 -0.3995
36101SOL    HW117271   0.712   3.539   5.500  0.6673 -0.1618  2.0358
36101SOL    HW217272   0.567   3.496   5.516  0.6883 -0.9262  0.3880
36102SOL     OW17273   6.643   3.365  10.121 -0.0300  0.4601  0.4397
36102SOL    HW117274   6.655   3.314  10.041 -0.1705  0.4160  0.4474
36102SOL    HW217275   6.582   3.435  10.097 -0.0190  0.4874  0.4902
36103SOL     OW17276   4.072   4.265   5.443  0.1277 -0.0612  0.4605
36103SOL    HW117277   3.984   4.302   5.456 -0.0151 -0.5980  1.0654
36103SOL    HW217278   4.058   4.190   5.384  0.3339  0.4824 -0.2922
36104SOL     OW17279   6.523   5.348   8.439 -0.1635 -0.4321  0.1285
36104SOL    HW117280   6.612   5.335   8.471 -0.0643 -1.4884 -0.5194
36104SOL    HW217281   6.503   5.268   8.390 -1.8053 -0.6124  1.0137
36105SOL     OW17282   9.656   0.740   3.735  0.0763 -0.2857  0.6173
36105SOL    HW117283   9.659   0.654   3.777 -0.6146 -0.4698  0.2985
36105SOL    HW217284   9.574   0.740   3.685  1.1293 -0.2577 -1.1578
36106SOL     OW17285   7.771   0.220   1.325  0.2199 -0.5915 -0.4365
36106SOL    HW117286   7.679   0.234   1.346  0.2401 -0.2198 -0.6001
36106SOL    HW217287   7.812   0.201   1.410 -0.1068 -1.3277 -0.4362
36107SOL     OW17288   7.605   3.770   4.801  0.3975  0.1701 -0.1631
36107SOL    HW117289   7.577   3.828   4.871 -1.4271  1.6750 -2.0039
36107SOL    HW217290   7.633   3.829   4.731 -1.2896 -1.1081 -2.0150
36108SOL     OW17291   0.440   2.018  10.106 -0.0047  0.0193  0.1851
36108SOL    HW117292   0.532   2.034  10.127  0.6811  1.0537 -3.0472
36108SOL    HW217293   0.414   1.945  10.163  3.4113 -1.6834 -0.2072
36109SOL     OW17294   1.042   7.564   7.251  0.0166  0.4557 -0.6700
36109SOL    HW117295   0.998   7.626   7.193 -1.6368 -0.1720 -0.1476
36109SOL    HW217296   0.985   7.488   7.252  0.6902 -0.0614  0.7349
36110SOL     OW17297   4.006   2.566   1.850  0.1174  0.2851 -0.1769
36110SOL    HW117298   4.007   2.478   1.886  0.4756  0.3010 -0.1506
36110SOL    HW217299   4.007   2.554   1.755 -0.6112  0.2482 -0.1898
36111SOL     OW17300   9.733   2.617   5.724  0.0696 -0.1306  0.8441
36111SOL    HW117301   9.792   2.580   5.659 -1.8246  0.5932 -1.4306
36111SOL    HW217302   9.689   2.542   5.762 -1.6223 -0.5196 -1.6230
36112SOL     OW17303   6.781   1.262   5.977  0.1651 -0.2130  0.1433
36112SOL    HW117304   6.790   1.355   5.998  0.4130 -0.5866  1.8809
36112SOL    HW217305   6.870   1.231   5.964  0.1167 -0.3170  0.0566
36113SOL     OW17306   1.297   9.026   2.021  0.4305  0.3844 -0.2363
36113SOL    HW117307   1.248   8.993   2.096 -1.2141  1.2768 -0.8685
36113SOL    HW217308   1.231   9.068   1.965  1.6700  0.1533 -1.9616
36114SOL     OW17309   8.588   2.034   6.341  0.0084  0.1915  0.2989
36114SOL    HW117310   8.657   2.012   6.279  1.7697 -0.5523  2.3982
36114SOL    HW217311   8.524   1.963   6.333  0.6346 -0.3384 -0.0460
36115SOL     OW17312   8.259  12.456  10.605  0.0632  0.2465 -0.1501
36115SOL    HW117313   8.245  12.493  10.692  0.2408  0.8554 -0.3717
36115SOL    HW217314   8.249  12.531  10.546 -3.3829 -0.7287 -0.9968
36116SOL     OW17315   9.347  12.068   0.292 -0.0575 -0.1971 -0.2431
36116SOL    HW117316   9.388  12.100   0.372 -0.2786  0.2720 -0.3089
36116SOL    HW217317   9.265  12.027   0.322  0.5188 -1.2827 -0.0952
36117SOL     OW17318   3.166   8.074  11.357  0.2575 -0.2732 -0.0613
36117SOL    HW117319   3.225   8.013  11.402 -1.2174 -1.7784 -0.0948
36117SOL    HW217320   3.195   8.072  11.266  0.5251 -0.5181  0.0278
36118SOL     OW17321   8.627   9.445  11.260 -0.2591  0.3621  0.0530
36118SOL    HW117322   8.641   9.393  11.339  0.0635  0.9779  0.4091
36118SOL    HW217323   8.635   9.382  11.189  1.6695  0.1524  0.3790
36119SOL     OW17324   0.105  10.664   1.179 -0.3065  0.5089  1.0467
36119SOL    HW117325   0.194  10.694   1.201 -0.6787  1.2289  1.6003
36119SOL    HW217326   0.057  10.744   1.161 -1.0156  0.1640  1.3811
36120SOL     OW17327  10.016   1.608   7.031  0.1578  0.0041  0.1618
36120SOL    HW117328  10.019   1.683   7.090  1.3223 -0.0721  0.2233
36120SOL    HW217329  10.038   1.533   7.087 -0.3768 -0.2947 -0.0282
36121SOL     OW17330   1.918   5.867   0.478 -0.1702 -0.0915  0.3305
36121SOL    HW117331   1.995   5.836   0.526  0.1801 -0.1067 -0.2278
36121SOL    HW217332   1.890   5.946   0.525  2.3544  2.0442 -1.4565
36122SOL     OW17333   3.407   0.105   7.744 -0.3421  0.6334 -0.0806
36122SOL    HW117334   3.327   0.056   7.763 -0.4210  0.6872 -0.2720
36122SOL    HW217335   3.390   0.192   7.779 -0.5099  0.7491 -0.4455
36123SOL     OW17336  12.506   2.837   3.644 -0.2538 -0.4721  0.2582
36123SOL    HW117337  12.522   2.902   3.576  0.0796 -1.2321 -0.4061
36123SOL    HW217338  12.579   2.776   3.637 -0.1464 -0.5031  1.3810
36124SOL     OW17339   9.926   5.655   5.746 -0.4021 -0.2138 -0.2055
36124SOL    HW117340   9.937   5.562   5.765  2.3044 -0.6375 -3.0541
36124SOL    HW217341   9.892   5.657   5.657  1.7363  1.4433 -1.0713
36125SOL     OW17342  11.188   3.051   7.274 -0.1258  0.0042 -0.0017
36125SOL    HW117343  11.172   3.051   7.180 -0.8967 -0.8278  0.1227
36125SOL    HW217344  11.251   2.980   7.288  0.4533  0.5133  0.0478
36126SOL     OW17345   2.938  10.186   0.819 -0.0201 -0.2430 -0.2746
36126SOL    HW117346   2.895  10.157   0.899 -0.2984  1.2122  0.1320
36126SOL    HW217347   3.028  10.204   0.845 -0.5834  2.1564  0.2374
36127SOL     OW17348   6.568   4.521   0.374 -0.3446  0.0252 -0.6386
36127SOL    HW117349   6.523   4.605   0.361 -1.8494 -0.4805  0.8485
36127SOL    HW217350   6.604   4.500   0.289  0.0485  2.1667 -1.0663
36128SOL     OW17351   6.205   6.899   6.810 -0.0346  0.0950 -0.1215
36128SOL    HW117352   6.276   6.909   6.748 -1.6306  0.9112 -1.9402
36128SOL    HW217353   6.201   6.806   6.829  0.4382 -0.1880 -1.3447
36129SOL     OW17354   9.530   8.167   2.258  0.2110  0.0471 -0.0448
36129SOL    HW117355   9.503   8.162   2.349 -0.2176  0.1992 -0.1603
36129SOL    HW217356   9.547   8.076   2.233  0.0003 -0.0312  0.0916
36130SOL     OW17357   5.470   5.309   2.153  1.1335 -0.0010  0.3720
36130SOL    HW117358   5.444   5.361   2.229  1.1918  0.1153  0.3119
36130SOL    HW217359   5.405   5.239   2.149  0.4319  0.6789 -0.1843
36131SOL     OW17360   2.948   7.262   2.774 -0.2940  0.8081 -0.3604
36131SOL    HW117361   2.902   7.209   2.709  0.5844 -2.7475  1.6338
36131SOL    HW217362   2.884   7.276   2.844 -0.1837  1.4456 -0.3807
36132SOL     OW17363   5.673   1.253  10.911  0.0842  0.0855  0.1930
36132SOL    HW117364   5.735   1.252  10.983  0.1560  0.7729  0.1408
36132SOL    HW217365   5.605   1.314  10.938 -0.9228 -1.1516  0.5400
36133SOL     OW17366   5.193  11.153  10.109 -0.1405  0.5943  0.4066
36133SOL    HW117367   5.155  11.222  10.055 -1.8160 -0.0051  0.7739
36133SOL    HW217368   5.282  11.183  10.127 -1.2617  3.4624  1.8559
36134SOL     OW17369   4.114   5.095   4.397  0.2268 -0.4485  0.2382
36134SOL    HW117370   4.134   5.189   4.398 -1.4247 -0.0618  0.5291
36134SOL    HW217371   4.129   5.066   4.487 -1.1880  0.0174  0.6538
36135SOL     OW17372  10.866   7.938   8.824  0.2112 -0.1251  0.1458
36135SOL    HW117373  10.882   7.911   8.914  0.6092  0.7842  0.3566
36135SOL    HW217374  10.780   7.979   8.826  0.0106 -0.5366  0.0112
36136SOL     OW17375   1.862   2.364   3.738  0.0520 -0.3093  0.1957
36136SOL    HW117376   1.785   2.374   3.682 -0.4278 -0.5450  0.7936
36136SOL    HW217377   1.917   2.439   3.718 -0.3746 -0.0991 -0.1902
36137SOL     OW17378  10.843   1.416  11.293 -0.3315  0.2743 -0.1306
36137SOL    HW117379  10.879   1.496  11.330 -0.0855  1.4160 -2.6515
36137SOL    HW217380  10.914   1.379  11.240 -1.0467 -0.5530 -0.5511
36138SOL     OW17381  10.896   5.553   9.264  0.4776 -0.5610 -0.8447
36138SOL    HW117382  10.991   5.566   9.268  0.2193  1.2647  1.4962
36138SOL    HW217383  10.868   5.604   9.187  1.4030 -1.6963 -1.9856
36139SOL     OW17384   7.076   5.393   8.110 -0.2179  0.2950 -0.0504
36139SOL    HW117385   7.012   5.446   8.158  0.4336  1.5612 -0.5207
36139SOL    HW217386   7.143   5.372   8.175 -0.1094  0.6968 -0.0267
36140SOL     OW17387   2.042   8.101   9.672 -0.6339 -0.5347 -0.0862
36140SOL    HW117388   2.098   8.131   9.743  2.0183 -1.4048 -1.6379
36140SOL    HW217389   1.998   8.179   9.640  0.9404  0.5184  0.2248
36141SOL     OW17390   0.953   3.828   4.920 -0.6179  0.0204 -0.3408
36141SOL    HW117391   1.041   3.804   4.948 -0.2044  2.8085  1.1269
36141SOL    HW217392   0.905   3.846   5.001 -2.1625 -0.2191 -1.1535
36142SOL     OW17393   8.745  10.327   5.295 -0.9381 -0.5193  0.6912
36142SOL    HW117394   8.803  10.280   5.355 -0.2192  0.1888  0.5821
36142SOL    HW217395   8.704  10.394   5.350  0.5050  0.8104  0.2439
36143SOL     OW17396  12.413   4.237   8.047  0.3191 -0.5637  0.9350
36143SOL    HW117397  12.456   4.315   8.083 -0.1577  0.0462  0.2162
36143SOL    HW217398  12.484   4.178   8.026  0.7173 -0.1511  1.1071
36144SOL     OW17399   9.324   5.562   5.477 -0.2669 -0.1128 -0.1454
36144SOL    HW117400   9.322   5.482   5.530  1.9316 -2.3318 -3.0706
36144SOL    HW217401   9.277   5.538   5.397  0.9387  1.3194 -1.3200
36145SOL     OW17402  10.659   5.256   8.998 -0.5171 -0.6236  0.3787
36145SOL    HW117403  10.566   5.265   8.979 -0.5520 -1.2488  0.2500
36145SOL    HW217404  10.682   5.337   9.044 -0.7394  0.3134 -1.0833
36146SOL     OW17405   3.568   0.016   4.081 -0.4863 -0.2794 -0.2562
36146SOL    HW117406   3.634  -0.053   4.084 -0.9577 -0.7555 -0.6090
36146SOL    HW217407   3.553   0.040   4.173  0.6730  0.3248 -0.2159
36147SOL     OW17408  12.453  11.781   7.501  0.7007  0.3420  0.2075
36147SOL    HW117409  12.467  11.695   7.463 -0.7641  0.2322 -0.1348
36147SOL    HW217410  12.396  11.826   7.439  0.4730  1.1318  0.9680
36148SOL     OW17411  11.223  10.179   3.580  0.4207  0.4616 -0.2109
36148SOL    HW117412  11.142  10.203   3.536  0.2023 -1.7145 -1.1066
36148SOL    HW217413  11.205  10.095   3.621  2.3082 -0.2357 -0.7005
36149SOL     OW17414   0.821   1.050  11.847 -0.4188 -0.3029 -0.6478
36149SOL    HW117415   0.817   1.134  11.801 -0.1314 -0.0303 -0.1777
36149SOL    HW217416   0.873   0.993  11.789  1.6358  0.6114  0.2137
36150SOL     OW17417   4.933   7.255   4.882  0.0388 -0.0271 -0.2769
36150SOL    HW117418   4.979   7.171   4.887 -0.7466 -0.5907 -1.8097
36150SOL    HW217419   4.886   7.261   4.966  0.6445 -0.7772  0.1368
36151SOL     OW17420   3.114  12.133   9.065 -0.6753  0.0031 -0.3319
36151SOL    HW117421   3.165  12.063   9.025 -1.9541 -1.8635  1.1135
36151SOL    HW217422   3.047  12.088   9.116 -1.4413  2.2969  0.8564
36152SOL     OW17423   9.455  11.395   5.708  0.0556  0.1531  0.3343
36152SOL    HW117424   9.390  11.325   5.711  0.1734 -0.0159 -0.7111
36152SOL    HW217425   9.522  11.363   5.648  0.4240  0.8983  0.3370
36153SOL     OW17426  10.632   8.121  11.486 -0.1737 -0.9845 -0.3228
36153SOL    HW117427  10.624   8.202  11.537  0.2913 -0.3467 -1.2376
36153SOL    HW217428  10.722   8.121  11.455  0.2174 -2.5046  0.6992
36154SOL     OW17429   3.262   9.220   0.570 -0.8098 -0.0789  0.5645
36154SOL    HW117430   3.338   9.176   0.610 -0.7184  0.0689  0.5544
36154SOL    HW217431   3.209   9.249   0.644  0.4460  2.1509  0.6898
36155SOL     OW17432   5.684   9.091  10.119 -0.0149  0.2080  0.1057
36155SOL    HW117433   5.761   9.091  10.176 -0.3885 -0.2344  0.6213
36155SOL    HW217434   5.631   9.018  10.151  0.4234 -0.9648 -1.7029
36156SOL     OW17435  12.086   6.042   6.403  0.4414 -0.1061 -0.1076
36156SOL    HW117436  12.172   6.000   6.404  0.4185 -0.4980  4.0673
36156SOL    HW217437  12.101   6.129   6.441 -1.0955 -0.6874  2.0311
36157SOL     OW17438  10.491   4.537  12.087  0.1245  0.2119  0.1327
36157SOL    HW117439  10.436   4.500  12.156 -0.1996 -0.6970 -0.5987
36157SOL    HW217440  10.531   4.461  12.045  1.7879  0.8379  0.4935
36158SOL     OW17441  10.318   7.341   8.005 -0.1711  0.4183 -0.4089
36158SOL    HW117442  10.233   7.386   8.008  0.5826  2.0719 -1.9120
36158SOL    HW217443  10.381   7.408   8.030  0.8309 -0.3742 -0.7704
36159SOL     OW17444   6.642   3.897   6.119  0.1732 -0.4606  0.1600
36159SOL    HW117445   6.729   3.903   6.080 -0.7025 -0.9336 -2.0339
36159SOL    HW217446   6.603   3.819   6.078 -0.7429 -1.1960  2.2841
36160SOL     OW17447   3.705   4.410  10.631 -0.2739 -0.2544  0.0552
36160SOL    HW117448   3.784   4.463  10.642 -1.1099  0.7831  1.3651
36160SOL    HW217449   3.707   4.383  10.540  0.3519  1.8150 -0.6040
36161SOL     OW17450   1.170   1.450   0.758  0.2537  0.4220 -0.7580
36161SOL    HW117451   1.158   1.372   0.704 -0.8043 -0.6078  0.9132
36161SOL    HW217452   1.244   1.429   0.815  0.8986  1.2367 -1.2555
36162SOL     OW17453   4.525  11.970   1.872  0.2503  0.5029 -0.5467
36162SOL    HW117454   4.544  11.980   1.966  1.5591  1.1087 -0.8493
36162SOL    HW217455   4.498  12.058   1.844 -2.1667 -0.1158 -0.3538
36163SOL     OW17456   9.991   4.528   6.863 -0.0448  0.0014  0.0351
36163SOL    HW117457   9.936   4.579   6.804 -0.1941 -1.9922 -1.6529
36163SOL    HW217458  10.033   4.593   6.919 -0.9904  1.8638 -1.3194
36164SOL     OW17459   9.004   7.863   9.158 -0.3939  0.2788  0.0536
36164SOL    HW117460   8.969   7.938   9.206  0.8723  0.2060  1.1587
36164SOL    HW217461   8.936   7.842   9.094 -1.2988  1.6018  0.5213
36165SOL     OW17462   6.139   0.064   7.710  0.1231  0.2203 -0.4388
36165SOL    HW117463   6.113  -0.015   7.661  0.8652 -0.0935 -0.3535
36165SOL    HW217464   6.220   0.038   7.755  0.6532  1.1783 -0.7994
36166SOL     OW17465   7.573   3.358  11.325 -0.9601  0.3450  0.2034
36166SOL    HW117466   7.502   3.404  11.368 -0.8349 -0.4674  1.3162
36166SOL    HW217467   7.653   3.399  11.359 -0.8694  0.4763 -0.1556
36167SOL     OW17468  12.202   2.188   1.313  0.2220  0.5841 -0.2232
36167SOL    HW117469  12.123   2.166   1.264  0.3158 -0.4989  0.0936
36167SOL    HW217470  12.273   2.156   1.259  0.3712  0.2735  0.1508
36168SOL     OW17471  11.075   0.381   0.182  0.1488 -0.1139  0.3006
36168SOL    HW117472  11.041   0.295   0.157 -0.4276  0.1125  0.2868
36168SOL    HW217473  11.167   0.379   0.158 -0.1721 -0.2520 -0.9528
36169SOL     OW17474   0.087   8.568   8.100 -0.2242 -0.6195 -0.5105
36169SOL    HW117475   0.078   8.474   8.087 -1.9857 -0.3082 -1.8559
36169SOL    HW217476  -0.000   8.604   8.084  0.4151  1.2724 -0.1072
36170SOL     OW17477   1.476   7.375   1.042 -0.8569 -0.5537  0.3903
36170SOL    HW117478   1.425   7.415   1.113 -3.4643 -0.1021 -1.6078
36170SOL    HW217479   1.540   7.442   1.017 -0.4991 -0.3905  1.6754
36171SOL     OW17480   0.839   6.441  10.194  0.0947  0.3771 -0.0811
36171SOL    HW117481   0.896   6.439  10.117 -0.0534  0.2461 -0.1891
36171SOL    HW217482   0.783   6.363  10.184  0.6069 -0.0830  0.5640
36172SOL     OW17483   0.040   0.037   8.721 -0.5568  0.2845  0.4978
36172SOL    HW117484   0.046   0.114   8.665 -1.1992 -1.3813 -2.0711
36172SOL    HW217485  -0.054   0.022   8.731 -0.4608 -0.7489  0.0205
36173SOL     OW17486   6.598   1.340   4.692 -0.2217  1.2129 -0.5266
36173SOL    HW117487   6.551   1.309   4.770  0.5689  1.2544 -0.0189
36173SOL    HW217488   6.614   1.260   4.642  0.1365  1.0434 -0.1529
36174SOL     OW17489   0.173   5.951   8.084  0.5622 -0.4619  0.6210
36174SOL    HW117490   0.175   5.964   8.179  0.8846 -0.9566  0.6879
36174SOL    HW217491   0.228   5.874   8.070  2.2292  0.8068 -0.1591
36175SOL     OW17492   6.747   9.683  12.260  0.0985 -0.1775 -0.3543
36175SOL    HW117493   6.790   9.599  12.247  0.4528  0.3280 -2.9894
36175SOL    HW217494   6.766   9.732  12.180 -2.8160  1.1853 -0.3491
36176SOL     OW17495   4.668   8.389  10.672  0.2389 -0.3860 -0.0911
36176SOL    HW117496   4.696   8.447  10.601 -1.2507 -1.2016 -1.4030
36176SOL    HW217497   4.734   8.401  10.740  1.1211  1.2461 -1.1667
36177SOL     OW17498   6.081   6.776   1.484  0.0986 -0.2574 -0.5052
36177SOL    HW117499   6.127   6.840   1.430  0.5393  1.1752  1.4621
36177SOL    HW217500   5.992   6.775   1.448  0.7189 -0.4176 -2.1219
36178SOL     OW17501  10.109   9.583   4.033  0.0090  0.0117 -0.0460
36178SOL    HW117502  10.069   9.670   4.042  0.1466  0.0143  0.5675
36178SOL    HW217503  10.046   9.523   4.073 -0.9263 -0.4219 -2.0296
36179SOL     OW17504   4.155   4.700  10.289  0.7363 -0.5361  0.3405
36179SOL    HW117505   4.197   4.782  10.314  0.5365 -0.2069 -0.3821
36179SOL    HW217506   4.155   4.700  10.194 -1.0464 -0.4220  0.2929
36180SOL     OW17507   8.820   7.189   1.686  0.6362 -0.0020 -0.1272
36180SOL    HW117508   8.739   7.227   1.653  0.7235  0.7015  0.4224
36180SOL    HW217509   8.885   7.208   1.618  0.3226 -0.6437 -0.6054
36181SOL     OW17510   5.189   6.245  10.522  0.1506  0.1379 -0.0065
36181SOL    HW117511   5.250   6.318  10.515  0.4488  0.0287  1.2478
36181SOL    HW217512   5.143   6.260  10.604 -1.0159 -0.1672 -0.5868
36182SOL     OW17513   1.029  11.874   8.285 -0.3501  0.3095  0.1060
36182SOL    HW117514   0.952  11.826   8.256  0.5643 -1.8036  1.0066
36182SOL    HW217515   1.092  11.807   8.310  0.6165  1.9596  2.5283
36183SOL     OW17516   4.810   6.708   1.819  0.3652  0.1740 -0.3774
36183SOL    HW117517   4.860   6.724   1.738  0.6352  2.6053  0.1915
36183SOL    HW217518   4.737   6.769   1.814  0.0610 -0.0575  0.9601
36184SOL     OW17519   9.785  11.232   8.352  0.3455 -0.5165 -0.2033
36184SOL    HW117520   9.791  11.172   8.277 -0.0145 -0.4604 -0.2817
36184SOL    HW217521   9.754  11.314   8.313 -0.5695 -0.6983  0.1089
36185SOL     OW17522   6.608  11.030  10.843  0.1485  0.5090  0.3980
36185SOL    HW117523   6.622  11.103  10.904 -1.1848  0.4837  0.7672
36185SOL    HW217524   6.567  10.962  10.897 -0.0199  0.0629 -0.2847
36186SOL     OW17525  11.347  11.949   2.827 -0.1663  0.0249 -0.1113
36186SOL    HW117526  11.422  12.008   2.820  0.1879 -0.3394  0.5292
36186SOL    HW217527  11.385  11.861   2.827 -0.2824 -0.1459  3.1272
36187SOL     OW17528   7.905   1.889  10.086  0.1225 -0.0033  0.1612
36187SOL    HW117529   7.891   1.795  10.094  1.2169 -0.1251  0.7963
36187SOL    HW217530   7.950   1.914  10.167  2.3756  0.5437 -1.1621
36188SOL     OW17531  11.124  11.510   2.477  0.4557 -0.8078  0.2322
36188SOL    HW117532  11.125  11.574   2.406  0.2524 -1.7585 -0.6429
36188SOL    HW217533  11.106  11.562   2.556 -0.9956  0.0453 -0.6230
36189SOL     OW17534   3.598  10.853   2.126 -0.0231 -0.3096 -0.2227
36189SOL    HW117535   3.563  10.812   2.046  1.5514  0.3405 -1.2788
36189SOL    HW217536   3.663  10.791   2.158  0.8511  0.3664 -0.6453
36190SOL     OW17537   8.513  11.371  11.126 -0.0401 -0.4148 -0.2239
36190SOL    HW117538   8.594  11.336  11.164  0.8343  2.3805  0.7509
36190SOL    HW217539   8.489  11.443  11.184 -1.8666  0.3789 -1.8624
36191SOL     OW17540  10.204   4.965   2.158 -0.1993 -0.2558 -0.0497
36191SOL    HW117541  10.262   4.923   2.094 -0.1613  0.0617 -0.2231
36191SOL    HW217542  10.203   4.904   2.232  0.4995 -0.1833  0.0290
36192SOL     OW17543  10.697  11.327   7.031 -0.1218  0.2495 -0.0390
36192SOL    HW117544  10.726  11.342   6.941  0.9936  1.0583  0.4236
36192SOL    HW217545  10.761  11.374   7.085 -1.4581  0.8187  1.1224
36193SOL     OW17546   3.984   9.606  11.944  0.3231  0.7378  0.5366
36193SOL    HW117547   4.047   9.534  11.950 -0.8455 -0.2084  3.3192
36193SOL    HW217548   4.036   9.684  11.960  1.3341  0.3875 -0.8471
36194SOL     OW17549   7.923   2.326   5.013 -0.1611 -0.4593  0.5621
36194SOL    HW117550   7.940   2.357   4.925 -0.2970 -0.5462  0.5042
36194SOL    HW217551   7.907   2.232   5.003  1.6770 -0.8435  0.9158
36195SOL     OW17552   7.270  11.466   0.058  0.8279 -0.0594  0.4341
36195SOL    HW117553   7.288  11.429  -0.029  0.4990  0.0062  0.3363
36195SOL    HW217554   7.312  11.406   0.119  1.2186 -0.0044  0.2167
36196SOL     OW17555  11.280   5.056  11.936 -0.1866  0.2970  0.0523
36196SOL    HW117556  11.257   5.149  11.941  1.7570  0.8364 -0.3303
36196SOL    HW217557  11.258   5.031  11.846 -1.3958  0.1632  0.3671
36197SOL     OW17558   8.746   5.256   4.548 -0.0319  0.3260  0.0809
36197SOL    HW117559   8.715   5.201   4.477  2.0049  0.3323 -0.8611
36197SOL    HW217560   8.805   5.319   4.507  0.2645  1.0979  1.6014
36198SOL     OW17561   9.721   1.783   0.025 -0.4890 -0.3395 -0.2327
36198SOL    HW117562   9.724   1.839  -0.052 -1.9970 -1.3008 -1.0288
36198SOL    HW217563   9.634   1.797   0.062  0.1861  0.0509  1.2836
36199SOL     OW17564   3.583   4.394   8.345 -0.0589 -0.7149 -0.2990
36199SOL    HW117565   3.509   4.385   8.405 -0.1592  0.5699 -0.1940
36199SOL    HW217566   3.547   4.373   8.259 -0.6960  0.3935 -0.3218
36200SOL     OW17567   0.300  11.913   8.055  0.4589  0.5169  0.0029
36200SOL    HW117568   0.378  11.870   8.020  0.5819  0.2210  0.6293
36200SOL    HW217569   0.322  11.931   8.147 -1.4372 -2.6910  1.2690
36201SOL     OW17570   0.850   9.773  10.536  0.0637 -0.3288 -0.2330
36201SOL    HW117571   0.784   9.771  10.606 -0.9746  0.4847 -1.1521
36201SOL    HW217572   0.834   9.693  10.486  2.0865 -1.9577  1.5146
36202SOL     OW17573   4.278   6.754   9.004 -0.0633  0.2942  0.5240
36202SOL    HW117574   4.285   6.849   9.019  0.3285  0.1431  1.4030
36202SOL    HW217575   4.364   6.729   8.971 -0.0605  0.2024  0.6003
36203SOL     OW17576   6.052   3.722   8.976  0.1608  0.1270 -0.3308
36203SOL    HW117577   6.100   3.673   8.910 -0.1426 -0.9080  0.2088
36203SOL    HW217578   6.106   3.715   9.055 -0.4657 -0.3512  0.0629
36204SOL     OW17579  10.781   0.411   1.525 -0.1185 -0.2279 -0.3323
36204SOL    HW117580  10.800   0.376   1.613  2.0564  0.5407 -0.4358
36204SOL    HW217581  10.765   0.333   1.472 -0.8974 -0.7330  0.6122
36205SOL     OW17582   8.427   1.649  11.344 -0.0854 -0.2711  0.1200
36205SOL    HW117583   8.406   1.735  11.379  0.9244 -0.6042  1.6646
36205SOL    HW217584   8.441   1.663  11.251  0.1669  1.2560  0.3677
36206SOL     OW17585   4.295   2.661   8.838 -0.3507 -0.0627  0.6665
36206SOL    HW117586   4.216   2.716   8.838  0.7183  1.5612 -0.2385
36206SOL    HW217587   4.292   2.614   8.922 -0.6520  2.3906  2.1185
36207SOL     OW17588   5.732  10.422   7.585  0.6026  0.1060 -0.0138
36207SOL    HW117589   5.701  10.512   7.594  0.4580  0.0100  0.4602
36207SOL    HW217590   5.653  10.369   7.588  0.6587 -0.0136 -0.6552
36208SOL     OW17591   9.050   3.435   3.989 -0.0876  0.1062 -0.1456
36208SOL    HW117592   8.954   3.430   3.986 -0.1184 -0.0766  0.7115
36208SOL    HW217593   9.080   3.371   3.925 -0.5489 -1.1284  0.8291
36209SOL     OW17594   7.043   2.012   8.657  0.2907  0.8708  0.6475
36209SOL    HW117595   7.109   2.070   8.693  1.9448 -0.2080 -0.5026
36209SOL    HW217596   7.070   1.997   8.566 -0.5211 -1.0204  0.6486
36210SOL     OW17597   6.247  12.581   1.087  0.1805  0.6080  0.3221
36210SOL    HW117598   6.328  12.586   1.037 -1.0321 -2.6556 -2.2641
36210SOL    HW217599   6.195  12.654   1.055  1.1696  1.3522  0.3423
36211SOL     OW17600   1.342   3.725  11.879  0.9626  0.1001  0.2019
36211SOL    HW117601   1.405   3.757  11.943  0.9572 -0.6417  0.5848
36211SOL    HW217602   1.256   3.747  11.916  0.9763  0.2822  0.1247
36212SOL     OW17603   1.512  10.144   1.488 -0.1000 -0.5745 -0.0306
36212SOL    HW117604   1.527  10.202   1.413  1.9848 -1.0253 -0.0390
36212SOL    HW217605   1.492  10.204   1.561 -0.6038 -0.0301 -0.6104
36213SOL     OW17606   1.239   6.498   9.565  0.3129  0.2046  0.2024
36213SOL    HW117607   1.311   6.453   9.520  0.2750 -0.4750  0.8057
36213SOL    HW217608   1.200   6.553   9.497 -0.6937 -1.9096 -1.0498
36214SOL     OW17609   2.369   0.589   9.711  0.2863 -0.0509  0.5569
36214SOL    HW117610   2.385   0.532   9.786  1.2815  0.6145  0.8629
36214SOL    HW217611   2.277   0.614   9.720  0.7203  1.0854  2.3397
36215SOL     OW17612   8.519  10.437   9.683  0.6471  0.2408 -0.1093
36215SOL    HW117613   8.464  10.423   9.761 -0.0969 -0.3737 -0.7331
36215SOL    HW217614   8.497  10.364   9.625  1.3296  0.5975 -0.8263
36216SOL     OW17615  10.825   2.506   4.009 -0.3837  0.2355 -0.5593
36216SOL    HW117616  10.801   2.571   3.944 -1.9934  1.0336  0.7283
36216SOL    HW217617  10.741   2.477   4.045  0.4416 -0.1683  1.1428
36217SOL     OW17618   7.666   7.124   2.474  0.0206  0.0059  0.1313
36217SOL    HW117619   7.697   7.181   2.404  0.3037  0.5256  0.6689
36217SOL    HW217620   7.602   7.067   2.432 -3.1872  3.1518  0.2214
36218SOL     OW17621   8.931   2.543   1.468 -0.6956 -0.6597  0.2725
36218SOL    HW117622   9.019   2.532   1.432 -1.3452  0.2206 -1.7496
36218SOL    HW217623   8.892   2.455   1.464  0.1150 -1.1002  1.3895
36219SOL     OW17624   4.987   5.989   9.052 -0.4639  0.1701  0.0526
36219SOL    HW117625   4.973   5.902   9.013  0.4813  0.2046 -0.3822
36219SOL    HW217626   4.955   5.980   9.142  0.5508 -0.9297  0.3265
36220SOL     OW17627   6.427   5.091   3.165 -1.0529  0.5868  0.7460
36220SOL    HW117628   6.335   5.116   3.158 -1.2254 -0.4663 -2.8172
36220SOL    HW217629   6.431   5.003   3.127  1.4704  0.7496  0.4480
36221SOL     OW17630   2.108   0.963   4.020  0.1349 -0.1154  0.0731
36221SOL    HW117631   2.120   1.046   4.067 -1.1628  0.5914 -0.7513
36221SOL    HW217632   2.089   0.990   3.930 -1.3757 -1.2435  0.0079
36222SOL     OW17633   2.392  11.812   0.298  0.2247  0.0702  0.0380
36222SOL    HW117634   2.475  11.860   0.305  0.6664 -0.2052 -2.4742
36222SOL    HW217635   2.402  11.739   0.358  1.4686  0.4971  0.3916
36223SOL     OW17636   9.188  12.579   4.327 -0.0919  0.3052 -0.1140
36223SOL    HW117637   9.165  12.670   4.345  2.1201  0.7533  0.7364
36223SOL    HW217638   9.249  12.583   4.253 -1.2434 -0.6803 -1.1787
36224SOL     OW17639   0.543  12.280   1.417  0.4083  0.2888 -0.1747
36224SOL    HW117640   0.620  12.226   1.395 -0.0571 -0.1862 -0.6523
36224SOL    HW217641   0.574  12.370   1.411  0.7982  0.1148 -0.8732
36225SOL     OW17642   9.851   0.135   1.021 -0.1814 -0.2807  0.3918
36225SOL    HW117643   9.889   0.152   0.935 -1.3270  1.0025  0.1047
36225SOL    HW217644   9.757   0.127   1.004 -0.4271  0.0122  1.5206
36226SOL     OW17645   7.846   2.515   0.963 -0.3191  0.0998  0.1105
36226SOL    HW117646   7.909   2.448   0.935 -0.7078  0.0421 -0.6507
36226SOL    HW217647   7.817   2.556   0.882 -2.1518 -0.6809  0.3171
36227SOL     OW17648   3.898   0.338  12.593 -0.0272  0.1532 -0.1212
36227SOL    HW117649   3.942   0.408  12.545  0.0307 -0.1680 -0.5377
36227SOL    HW217650   3.955   0.262  12.582 -0.7300 -0.2969 -0.7574
36228SOL     OW17651  11.416   8.392   8.856  0.6236 -0.4072  0.3250
36228SOL    HW117652  11.399   8.389   8.762 -1.7050 -0.1148  0.6570
36228SOL    HW217653  11.463   8.474   8.870  1.1435 -0.5397 -0.6079
36229SOL     OW17654   4.285   9.022   4.968 -0.2778 -0.3223  0.3968
36229SOL    HW117655   4.280   9.096   4.908 -2.5730 -1.2565 -0.6612
36229SOL    HW217656   4.374   9.026   5.003 -0.3338  2.9846  0.5153
36230SOL     OW17657   2.141  11.733   8.272  0.1458 -0.1504 -0.4906
36230SOL    HW117658   2.054  11.695   8.259 -0.4226  0.4814  1.2849
36230SOL    HW217659   2.125  11.826   8.287  1.1763  0.0460 -0.5498
36231SOL     OW17660   8.908   0.734   9.108 -0.6380 -0.0399 -0.0505
36231SOL    HW117661   9.002   0.733   9.124 -0.7000 -2.5515  0.5082
36231SOL    HW217662   8.897   0.683   9.027 -1.5689 -0.6064  0.4177
36232SOL     OW17663   6.499   0.884   1.315 -0.0513 -0.1273 -0.3675
36232SOL    HW117664   6.484   0.967   1.361 -2.3895 -1.7707  2.0928
36232SOL    HW217665   6.412   0.854   1.290  0.5632 -2.5181  0.1484
36233SOL     OW17666   9.044   5.727  12.445  0.6422  0.1910  0.1820
36233SOL    HW117667   9.004   5.738  12.358  1.6012 -0.1530 -0.3213
36233SOL    HW217668   9.080   5.813  12.465 -2.5107  1.2602  1.8063
36234SOL     OW17669   3.964   6.836   8.602 -0.2349  0.4127  0.0466
36234SOL    HW117670   3.891   6.775   8.605  0.0441  0.0410 -0.4945
36234SOL    HW217671   4.039   6.786   8.636 -0.3185  0.9250  1.0076
36235SOL     OW17672   4.117   1.459   0.333 -0.1339  0.1023  0.3403
36235SOL    HW117673   4.131   1.453   0.238  0.8843 -1.2641  0.5517
36235SOL    HW217674   4.196   1.500   0.366 -0.3787  0.3416  0.6269
36236SOL     OW17675  11.833   8.165   7.998 -0.6951  0.4406  0.3506
36236SOL    HW117676  11.868   8.076   7.990 -0.9062  0.3123  0.8589
36236SOL    HW217677  11.740   8.157   7.977 -0.2530  0.9730 -2.1775
36237SOL     OW17678   1.226   8.466   4.514 -1.3695  0.0077 -0.9188
36237SOL    HW117679   1.235   8.408   4.439 -1.1018 -1.0873 -0.0701
36237SOL    HW217680   1.190   8.410   4.583  1.0495  0.1957  0.6335
36238SOL     OW17681   6.134   6.734   3.516 -0.5877 -0.0959  0.2042
36238SOL    HW117682   6.205   6.799   3.520 -1.1747  0.5030  1.5544
36238SOL    HW217683   6.165   6.669   3.454  0.6276  0.7731 -0.1466
36239SOL     OW17684   2.071  10.500   9.126 -0.0066  0.0574 -0.2016
36239SOL    HW117685   1.992  10.496   9.073  0.3595  0.9973 -0.8389
36239SOL    HW217686   2.141  10.518   9.064  1.1230 -3.0206 -0.0039
36240SOL     OW17687   0.793   3.506   8.844  0.4182  0.1969  0.0391
36240SOL    HW117688   0.750   3.591   8.848  1.2057  0.7518 -1.8219
36240SOL    HW217689   0.887   3.526   8.845  0.6533 -0.8279  1.8229
36241SOL     OW17690   7.254   8.818   9.654 -0.5555 -0.8195  0.3324
36241SOL    HW117691   7.323   8.867   9.699 -0.7300  0.7431 -0.9793
36241SOL    HW217692   7.301   8.767   9.588 -0.6045  0.7025 -0.9678
36242SOL     OW17693   3.040   7.575   7.153 -0.3243  0.1928  0.1338
36242SOL    HW117694   3.010   7.562   7.243 -0.0244  0.5832  0.2952
36242SOL    HW217695   3.110   7.512   7.141  0.6377  1.1320  0.6722
36243SOL     OW17696   6.902   1.741   2.469 -0.6673 -0.2283  0.1733
36243SOL    HW117697   6.836   1.672   2.475 -1.5552  0.5160 -0.7720
36243SOL    HW217698   6.857   1.820   2.497 -0.8493  0.6920 -2.4570
36244SOL     OW17699  11.222   3.966   9.212  0.0554  0.1704 -0.8596
36244SOL    HW117700  11.190   3.918   9.289  2.2006 -1.7476 -1.0530
36244SOL    HW217701  11.259   4.047   9.247 -1.3816  0.5820 -0.2203
36245SOL     OW17702   9.748   2.894   4.183 -0.3673  0.2793  0.6171
36245SOL    HW117703   9.746   2.814   4.235  0.6594 -0.2707 -0.1757
36245SOL    HW217704   9.657   2.906   4.155 -0.3731 -1.1221 -0.0353
36246SOL     OW17705   4.813  12.204   4.064 -0.1034  0.1030 -0.1674
36246SOL    HW117706   4.816  12.239   4.153 -0.5584  0.4897 -0.2970
36246SOL    HW217707   4.798  12.281   4.009 -1.0713 -0.2741 -0.4621
36247SOL     OW17708   0.161  10.840   8.551 -0.5290  0.0007  0.1867
36247SOL    HW117709   0.136  10.771   8.488  0.3552  1.1329 -1.4901
36247SOL    HW217710   0.225  10.797   8.608 -0.6197 -0.8015 -0.2917
36248SOL     OW17711  11.118   3.279  11.673  0.0321  0.5978  0.2825
36248SOL    HW117712  11.139   3.251  11.584 -1.8418  1.1787 -0.3861
36248SOL    HW217713  11.198   3.262  11.722  1.1734  0.3907 -1.5302
36249SOL     OW17714   3.428   8.428   3.089  0.2142  0.0306 -0.5025
36249SOL    HW117715   3.368   8.465   3.153 -0.7532  0.0584 -1.3933
36249SOL    HW217716   3.510   8.414   3.137 -0.9265 -1.4165  1.1388
36250SOL     OW17717   6.047   8.909  11.707 -0.3134 -0.3212  0.8104
36250SOL    HW117718   6.063   8.845  11.638 -1.7385  1.1134 -0.9353
36250SOL    HW217719   5.953   8.906  11.722 -0.2827  0.7283  1.3481
36251SOL     OW17720   1.686   0.862   1.664  0.0659  0.5801  0.0485
36251SOL    HW117721   1.689   0.767   1.660  0.9268  0.6123 -0.3088
36251SOL    HW217722   1.605   0.886   1.619  0.0154  0.0402 -0.1515
36252SOL     OW17723   6.285   8.781   0.543  0.0842  0.5455 -0.1613
36252SOL    HW117724   6.279   8.768   0.448 -0.9611  1.4915 -0.2489
36252SOL    HW217725   6.198   8.756   0.575  0.6003 -0.2896  0.6275
36253SOL     OW17726   5.613   5.803   5.260  0.4090  0.4411  0.6144
36253SOL    HW117727   5.665   5.734   5.303  0.7981  0.5965  0.4032
36253SOL    HW217728   5.667   5.830   5.186 -0.9017 -0.8595 -0.8853
36254SOL     OW17729  10.731  11.076   7.136 -0.1761  0.1311  0.0540
36254SOL    HW117730  10.718  11.151   7.078 -1.2066 -1.9314 -2.6363
36254SOL    HW217731  10.661  11.084   7.201 -0.9302  0.9843 -0.8238
36255SOL     OW17732   1.790  11.087   1.178 -0.1133  0.2843 -0.0370
36255SOL    HW117733   1.757  11.081   1.268  1.5524  0.9990  0.6709
36255SOL    HW217734   1.713  11.104   1.125 -1.0875  0.2447  1.3114
36256SOL     OW17735   3.065   1.859   7.108 -0.5751  0.1775  0.4184
36256SOL    HW117736   2.986   1.843   7.056 -0.1752 -0.4822  0.0125
36256SOL    HW217737   3.121   1.783   7.093  0.1933  0.6904  0.6128
36257SOL     OW17738   6.884   7.249   3.131 -0.3624  0.0947 -0.2094
36257SOL    HW117739   6.906   7.331   3.086 -0.9344 -0.0161 -0.7028
36257SOL    HW217740   6.874   7.185   3.060 -1.9400  0.0649 -0.0017
36258SOL     OW17741   3.701   1.964   6.334  0.0219  0.3879  0.5782
36258SOL    HW117742   3.733   2.047   6.299 -1.8867  0.9755  0.0941
36258SOL    HW217743   3.732   1.962   6.424 -1.2728  2.4744  1.1407
36259SOL     OW17744   5.119   7.819   2.828 -0.1438  0.0174 -0.5327
36259SOL    HW117745   5.065   7.842   2.903  0.9052  0.1947  0.1986
36259SOL    HW217746   5.096   7.883   2.761 -0.8063  0.1091 -0.2249
36260SOL     OW17747   6.803  12.547  12.246  0.4688 -0.1910 -0.5810
36260SOL    HW117748   6.843  12.463  12.271 -0.2007 -0.8841 -1.7149
36260SOL    HW217749   6.836  12.564  12.158 -1.6952 -0.8252 -1.5916
36261SOL     OW17750   0.213   1.386  10.511  0.0299 -0.3434 -0.3586
36261SOL    HW117751   0.287   1.345  10.466  1.1829  1.0499  0.2147
36261SOL    HW217752   0.140   1.374  10.451  0.8914 -1.0484 -1.3097
36262SOL     OW17753   4.099   0.287   5.615  0.2946  0.2647 -0.1118
36262SOL    HW117754   4.076   0.284   5.522  0.9405  0.1663 -0.2760
36262SOL    HW217755   4.091   0.379   5.640  2.4180  0.7180 -0.8814
36263SOL     OW17756  11.904   0.217   0.846 -0.2555  0.2998 -0.3995
36263SOL    HW117757  11.909   0.167   0.765  0.4298 -0.0367 -0.1531
36263SOL    HW217758  11.851   0.163   0.904  2.1433 -1.1585  0.5639
36264SOL     OW17759   0.926   2.708   6.370 -0.1078  0.0410  0.5709
36264SOL    HW117760   0.858   2.738   6.310  2.1783 -2.0974 -3.5560
36264SOL    HW217761   0.899   2.620   6.394  0.4161 -0.2499  0.1267
36265SOL     OW17762   1.789   7.832  12.420  0.0275 -0.1847  0.1871
36265SOL    HW117763   1.693   7.833  12.428  0.0620  1.3694  0.7107
36265SOL    HW217764   1.805   7.802  12.331 -0.9888  0.6123 -0.2783
36266SOL     OW17765   2.339   3.914   8.678  0.4028  0.7736 -0.3121
36266SOL    HW117766   2.354   3.867   8.596 -0.6842 -1.4686  0.6747
36266SOL    HW217767   2.250   3.889   8.704  1.0747  0.5967  2.0422
36267SOL     OW17768   8.616   0.396  10.541  0.1383  0.4184  0.0091
36267SOL    HW117769   8.523   0.409  10.561 -0.0278  0.7128 -0.9004
36267SOL    HW217770   8.627   0.301  10.541 -1.1024  0.0950 -3.6626
36268SOL     OW17771   0.286   4.843   4.645  0.6752  0.1790  0.2006
36268SOL    HW117772   0.345   4.856   4.570  0.3096 -0.2003 -0.1601
36268SOL    HW217773   0.201   4.873   4.614  0.6467  0.5965  0.6740
36269SOL     OW17774  12.020   6.338   5.773 -0.1279 -0.2332 -0.2843
36269SOL    HW117775  12.009   6.363   5.681 -0.7374 -0.1436 -0.1925
36269SOL    HW217776  12.100   6.384   5.801  0.5566 -0.9465 -1.0031
36270SOL     OW17777   5.115   3.829  10.169 -0.0413  0.5479  0.0382
36270SOL    HW117778   5.071   3.911  10.145  2.0275  1.6209 -0.4050
36270SOL    HW217779   5.048   3.762  10.160 -1.4867  2.0205 -0.8514
36271SOL     OW17780  10.684   8.542   3.417  0.3736  0.1155  0.2591
36271SOL    HW117781  10.724   8.456   3.399 -1.6017 -0.5775 -1.1366
36271SOL    HW217782  10.704   8.558   3.510  1.2122 -1.6114  0.4241
36272SOL     OW17783  10.466   1.821   4.946 -0.2759 -0.4584  1.0925
36272SOL    HW117784  10.493   1.731   4.925  1.8820 -0.4306  3.2094
36272SOL    HW217785  10.479   1.828   5.041 -0.5182  2.0560  1.0060
36273SOL     OW17786   3.917  10.387   2.448  0.1003  0.1162 -0.0801
36273SOL    HW117787   3.883  10.365   2.534 -0.8551  1.2514 -0.1423
36273SOL    HW217788   3.854  10.450   2.412  0.4386 -0.3843 -1.6385
36274SOL     OW17789   5.116   3.121   6.773  0.0103 -0.0721  0.6837
36274SOL    HW117790   5.080   3.051   6.719  1.6892 -0.6600  0.2531
36274SOL    HW217791   5.044   3.184   6.783 -1.0399 -1.0796 -0.2613
36275SOL     OW17792   1.756   8.882   4.037 -0.3152 -0.4201 -1.0702
36275SOL    HW117793   1.844   8.868   4.001 -0.5495 -0.6011 -1.5784
36275SOL    HW217794   1.698   8.873   3.962 -0.7274  0.2671 -0.8404
36276SOL     OW17795   3.436  10.131  12.348 -0.2226 -0.0398  0.3098
36276SOL    HW117796   3.517  10.081  12.354 -0.6399 -0.7761 -0.0499
36276SOL    HW217797   3.368  10.065  12.331 -0.6246  0.7440 -1.3045
36277SOL     OW17798   0.897   6.220   6.529  0.2374 -0.3525  0.5909
36277SOL    HW117799   0.948   6.286   6.576 -1.2520 -0.3965  2.4096
36277SOL    HW217800   0.956   6.146   6.518  2.0625  1.3064 -1.7750
36278SOL     OW17801  11.971   0.290   2.655 -0.6878 -0.6387 -0.0476
36278SOL    HW117802  11.985   0.364   2.714 -0.4056  0.2413 -1.1854
36278SOL    HW217803  12.046   0.233   2.670 -0.1412  0.0252 -0.1942
36279SOL     OW17804   0.277   5.558   7.830  0.0495 -0.0830 -0.2508
36279SOL    HW117805   0.366   5.555   7.793  0.7044  1.0432  1.1373
36279SOL    HW217806   0.270   5.476   7.879  0.8615  0.4156  0.7427
36280SOL     OW17807   7.526  12.403  10.995 -0.3305 -0.2672  0.0049
36280SOL    HW117808   7.445  12.453  10.996 -0.3921 -0.3631 -0.2295
36280SOL    HW217809   7.545  12.388  10.903 -0.7407 -1.3574  0.0791
36281SOL     OW17810   2.821   3.514  12.425 -0.4173  0.0789  0.2126
36281SOL    HW117811   2.855   3.575  12.490  3.0951 -1.8853  0.4432
36281SOL    HW217812   2.843   3.553  12.341 -0.0298  0.0779  0.3141
36282SOL     OW17813   8.807   3.926   4.021 -0.4060 -0.8802 -0.8165
36282SOL    HW117814   8.754   3.849   4.040  0.1359 -0.9323  0.6301
36282SOL    HW217815   8.798   3.981   4.099  3.0729 -1.7486  0.3898
36283SOL     OW17816   8.932   4.945   2.967 -0.0982 -0.2957 -0.2731
36283SOL    HW117817   9.004   4.969   3.026 -0.5821 -1.2708  0.7451
36283SOL    HW217818   8.971   4.882   2.906  0.4111  0.7387 -1.0646
36284SOL     OW17819  10.824   7.625   9.441  0.3604 -0.1142 -0.1994
36284SOL    HW117820  10.782   7.550   9.484 -1.3076 -0.4109 -2.1515
36284SOL    HW217821  10.756   7.691   9.437  0.8089  0.3055 -1.3245
36285SOL     OW17822   8.031   6.290   5.187 -0.7048  0.4044  0.3413
36285SOL    HW117823   8.039   6.198   5.162 -2.7284 -0.2128  1.7573
36285SOL    HW217824   8.113   6.309   5.234 -1.3325 -1.5313  2.4189
36286SOL     OW17825  11.334   6.584   4.922  0.6636 -0.7328  0.7012
36286SOL    HW117826  11.403   6.560   4.860  1.2502  0.4663  0.8546
36286SOL    HW217827  11.325   6.679   4.912 -1.3829 -0.9210  0.2749
36287SOL     OW17828   6.494   3.778   2.680  0.5626  0.3162 -0.7174
36287SOL    HW117829   6.436   3.851   2.698  0.3192  0.6225 -2.5464
36287SOL    HW217830   6.496   3.771   2.585  1.3519 -1.4485 -0.6262
36288SOL     OW17831   2.045   3.957   4.146 -0.0336 -0.2055  0.7286
36288SOL    HW117832   2.028   3.985   4.056  1.0658  0.3121  0.6605
36288SOL    HW217833   2.059   4.039   4.194  0.0563 -0.5066  1.2214
36289SOL     OW17834   2.846   7.338   1.511 -0.2863 -0.0240  0.1365
36289SOL    HW117835   2.812   7.375   1.592  0.7987 -0.1550  0.6698
36289SOL    HW217836   2.823   7.245   1.515  0.1276 -0.1126  0.4938
36290SOL     OW17837   0.423  12.076   3.698 -0.6172 -0.1547  0.5157
36290SOL    HW117838   0.459  12.161   3.724 -1.5443  0.4121  0.0184
36290SOL    HW217839   0.431  12.021   3.776  0.5730  0.1874  0.6502
36291SOL     OW17840  10.033   3.351   6.783 -0.6368 -0.1441 -0.4779
36291SOL    HW117841   9.950   3.398   6.789  0.1826  1.4645 -1.2077
36291SOL    HW217842  10.098   3.419   6.764  0.1721 -1.8348 -4.8708
36292SOL     OW17843   5.518   9.408   8.360  0.2262  0.5903 -0.2413
36292SOL    HW117844   5.512   9.440   8.451  1.1888  1.2921 -0.4051
36292SOL    HW217845   5.482   9.480   8.308 -0.6663  0.0384 -0.4092
36293SOL     OW17846   4.736   8.556   3.615  0.0855  0.6123 -0.5402
36293SOL    HW117847   4.736   8.466   3.584  0.4029  0.5183 -0.2770
36293SOL    HW217848   4.690   8.605   3.547  0.5750  0.3725 -1.0509
36294SOL     OW17849   2.222  11.115   5.389  0.1480  0.5664  0.5360
36294SOL    HW117850   2.163  11.160   5.328 -0.5935  1.2783  1.7364
36294SOL    HW217851   2.268  11.186   5.434  0.8133  0.0454  0.6805
36295SOL     OW17852   0.380   4.262   4.206  0.6301  0.2538 -0.2278
36295SOL    HW117853   0.348   4.178   4.172  0.2494  0.3682 -0.1621
36295SOL    HW217854   0.412   4.242   4.294 -0.3929  0.3555  0.1875
36296SOL     OW17855   2.177   9.641   4.942  0.8683 -0.1962 -0.3328
36296SOL    HW117856   2.104   9.703   4.944  0.3899 -0.7218 -0.9875
36296SOL    HW217857   2.149   9.569   4.999  0.3719 -0.9238 -1.4625
36297SOL     OW17858  10.398   1.376   2.473 -0.4422  0.1421 -0.9786
36297SOL    HW117859  10.450   1.456   2.470 -1.4591  0.9204  0.6697
36297SOL    HW217860  10.458   1.307   2.445  0.8241  1.3042 -1.2125
36298SOL     OW17861  12.571   6.802   0.587  0.1039  0.3371 -0.1352
36298SOL    HW117862  12.491   6.854   0.598 -0.1624 -0.4295  2.0182
36298SOL    HW217863  12.641   6.863   0.610  0.0359  0.6144 -0.6517
36299SOL     OW17864   9.201  12.540   9.408 -0.3680  0.2393  0.1416
36299SOL    HW117865   9.136  12.554   9.476  0.4391  0.8863  0.8010
36299SOL    HW217866   9.159  12.481   9.346 -1.4244  0.3238  0.7629
36300SOL     OW17867  11.205   2.456   9.405  0.5039  0.4939  0.3609
36300SOL    HW117868  11.277   2.401   9.436  0.3626 -0.0617 -0.2882
36300SOL    HW217869  11.195   2.433   9.313 -0.3024  0.7871  0.3693
36301SOL     OW17870   6.660   7.639   0.041 -0.3218  0.5336  0.7396
36301SOL    HW117871   6.740   7.640   0.094  0.5672  0.6748 -0.5444
36301SOL    HW217872   6.688   7.605  -0.044 -2.0161 -1.1245  0.7904
36302SOL     OW17873   8.550   4.320   0.654  0.0480  0.5963  0.8702
36302SOL    HW117874   8.613   4.332   0.583 -0.9425  1.5693  0.1168
36302SOL    HW217875   8.600   4.280   0.725  1.1780  0.0616 -0.2014
36303SOL     OW17876   4.723   8.547   6.995 -0.0259 -0.1546 -0.2593
36303SOL    HW117877   4.705   8.501   7.076  2.6563 -0.6533  0.1644
36303SOL    HW217878   4.692   8.636   7.009  0.6387 -0.1650  1.4599
36304SOL     OW17879  11.444   8.686   9.085  0.1339  0.3128 -0.5205
36304SOL    HW117880  11.441   8.626   9.160 -2.3075  0.4683 -0.4137
36304SOL    HW217881  11.517   8.654   9.032  0.0041 -1.6701  0.4073
36305SOL     OW17882   8.872   9.776   6.013 -0.6469  0.2999  0.5048
36305SOL    HW117883   8.779   9.756   5.998 -0.7001 -1.3519  2.6106
36305SOL    HW217884   8.916   9.737   5.937 -1.5885  0.5115 -0.1793
36306SOL     OW17885   1.232  10.684  12.426 -0.0892  0.2190  0.3652
36306SOL    HW117886   1.225  10.633  12.345 -1.7678  0.2923  0.4453
36306SOL    HW217887   1.275  10.765  12.399  0.8939 -0.4248 -0.1112
36307SOL     OW17888   7.391   2.708   6.612  0.2935  0.6379  0.2481
36307SOL    HW117889   7.382   2.787   6.560  0.8614  1.1162  0.8612
36307SOL    HW217890   7.394   2.739   6.703  0.2407 -0.1064  0.5117
36308SOL     OW17891   2.492   2.926   1.681 -0.3010  0.4879  0.0866
36308SOL    HW117892   2.540   2.935   1.599  1.9246 -0.8980  1.1410
36308SOL    HW217893   2.401   2.943   1.657 -0.2246 -2.5597 -3.3199
36309SOL     OW17894  11.046   0.075   1.692  0.2769 -0.1600 -0.0102
36309SOL    HW117895  10.985   0.059   1.764  0.4404  0.4513  0.2720
36309SOL    HW217896  11.027   0.006   1.629  0.6313 -1.1704  0.9443
36310SOL     OW17897  11.933   9.266   4.763 -0.0766 -0.1373 -0.1494
36310SOL    HW117898  11.886   9.183   4.764 -0.7119  0.1266 -2.4643
36310SOL    HW217899  12.015   9.247   4.717 -0.6450  0.6626 -1.5767
36311SOL     OW17900   3.496   6.300   8.344  0.1495 -0.5062  0.1180
36311SOL    HW117901   3.585   6.336   8.339 -0.5375  1.1300 -1.9248
36311SOL    HW217902   3.486   6.274   8.435  1.7497  1.9807  1.1127
36312SOL     OW17903  12.402  10.877   2.403 -0.0368  0.1020  0.1639
36312SOL    HW117904  12.312  10.864   2.374 -0.2257  0.7026  0.4788
36312SOL    HW217905  12.402  10.844   2.493  0.6434 -2.1364 -0.5918
36313SOL     OW17906   1.269   2.991   9.037  0.0514 -0.0636 -0.6554
36313SOL    HW117907   1.246   3.083   9.023 -1.0046 -0.3543 -0.9565
36313SOL    HW217908   1.241   2.947   8.956  0.1248 -0.7111 -0.3317
36314SOL     OW17909  10.967   8.958  11.447 -0.0697 -0.9091  0.5955
36314SOL    HW117910  10.877   8.987  11.462 -0.3977 -0.4391 -1.7891
36314SOL    HW217911  10.970   8.869  11.482 -2.1123 -1.6924 -0.9821
36315SOL     OW17912   3.863   8.087   4.257  0.1265  0.4536 -0.0318
36315SOL    HW117913   3.850   7.995   4.238  0.8612 -0.1716  2.1831
36315SOL    HW217914   3.938   8.112   4.203 -1.5592  0.4868 -2.5099
36316SOL     OW17915   1.517   2.470   3.392  0.2462 -0.1826 -0.1322
36316SOL    HW117916   1.598   2.427   3.421  0.8185  1.9527  1.7039
36316SOL    HW217917   1.460   2.469   3.468 -0.3916  0.7415 -0.5815
36317SOL     OW17918   3.734   1.245   0.176  0.0137  0.4097  0.2810
36317SOL    HW117919   3.661   1.278   0.123  0.2548 -1.2826 -1.2025
36317SOL    HW217920   3.695   1.226   0.262 -0.8467  1.3076  0.1094
36318SOL     OW17921   3.788   7.441   0.485 -0.3867  0.2450  0.1629
36318SOL    HW117922   3.884   7.450   0.482 -0.3143 -0.6286 -1.5029
36318SOL    HW217923   3.755   7.530   0.477  0.2770  0.6520  1.7042
36319SOL     OW17924   0.349   5.415   3.153  0.3878 -0.5807  0.3501
36319SOL    HW117925   0.312   5.443   3.070 -1.8404 -0.1474  1.4049
36319SOL    HW217926   0.337   5.320   3.153  0.9111 -0.6517 -0.0372
36320SOL     OW17927  10.737   4.105   4.321 -0.1242 -0.2148  0.3504
36320SOL    HW117928  10.750   4.199   4.308  0.5027 -0.1782  1.1027
36320SOL    HW217929  10.763   4.090   4.412 -0.8330 -1.0139  0.4324
36321SOL     OW17930   8.212   0.282   5.857  0.2838  0.5119  0.0777
36321SOL    HW117931   8.200   0.214   5.923  1.0172 -1.3033 -1.5929
36321SOL    HW217932   8.296   0.323   5.880  0.3922  0.0889  0.4371
36322SOL     OW17933   4.603   9.848   5.576 -0.1124 -0.0137  0.0261
36322SOL    HW117934   4.568   9.911   5.639 -1.3047 -0.4972 -0.1123
36322SOL    HW217935   4.681   9.890   5.541  0.1213  0.6021  1.2393
36323SOL     OW17936   1.484  11.173   6.312  0.2830 -0.1506 -0.4833
36323SOL    HW117937   1.403  11.122   6.319  0.4339 -0.3236  0.0391
36323SOL    HW217938   1.484  11.228   6.391 -0.9743  2.2922 -2.0430
36324SOL     OW17939   5.167  12.008  12.301  0.0651 -0.0603  0.2839
36324SOL    HW117940   5.198  12.087  12.346 -0.3055 -0.0852  0.5808
36324SOL    HW217941   5.225  11.939  12.333 -0.6034 -0.1946  1.2088
36325SOL     OW17942   3.339   8.223   3.632  0.1884  0.1351  0.1775
36325SOL    HW117943   3.266   8.221   3.694  0.6179 -2.3100  0.6898
36325SOL    HW217944   3.393   8.147   3.655  1.9953  0.8824 -1.2857
36326SOL     OW17945   0.743   3.413   9.773 -0.4608 -0.1800  0.0476
36326SOL    HW117946   0.675   3.437   9.837 -2.1339  1.9312 -2.3068
36326SOL    HW217947   0.801   3.489   9.771  0.1206 -0.6323 -0.2634
36327SOL     OW17948   1.410   4.297  12.344 -0.2392  0.5293  0.5912
36327SOL    HW117949   1.412   4.244  12.423  0.5241  0.7057  0.6934
36327SOL    HW217950   1.460   4.247  12.279  0.2028  0.9653  0.5923
36328SOL     OW17951   6.576  11.759   0.125  0.5881  0.0793  0.2008
36328SOL    HW117952   6.497  11.706   0.119 -0.8966  1.9792  1.6911
36328SOL    HW217953   6.581  11.807   0.042 -0.2582  0.4871  0.3767
36329SOL     OW17954   2.756  11.520   0.072  0.1281 -0.0710  0.7022
36329SOL    HW117955   2.819  11.467   0.120 -1.6565 -2.4693  0.6129
36329SOL    HW217956   2.725  11.585   0.135  2.2652  0.8556  0.8694
36330SOL     OW17957   6.586  11.582   3.474  0.0307 -0.0536 -0.1249
36330SOL    HW117958   6.556  11.671   3.455  0.2592  0.3306  1.1846
36330SOL    HW217959   6.506  11.529   3.476 -0.2920  0.4500  0.7115
36331SOL     OW17960   9.191   9.794   0.159 -0.6291  0.3935 -0.2635
36331SOL    HW117961   9.204   9.721   0.220  1.5831 -0.4110 -1.5793
36331SOL    HW217962   9.098   9.791   0.138 -0.9516 -0.8677  1.1462
36332SOL     OW17963   1.752   5.872   3.744 -0.0215 -0.2608 -0.1205
36332SOL    HW117964   1.834   5.822   3.739 -0.2904 -0.6212 -1.1560
36332SOL    HW217965   1.775   5.950   3.795  1.2346  0.1400 -1.2355
36333SOL     OW17966   3.770  11.634   4.217  0.4613  0.3341 -0.4378
36333SOL    HW117967   3.836  11.565   4.215 -0.1958 -0.3070 -0.3877
36333SOL    HW217968   3.727  11.628   4.132 -0.0579  0.2248 -0.1687
36334SOL     OW17969   9.929  10.663   9.933 -0.4363 -0.6338 -0.3345
36334SOL    HW117970   9.972  10.616  10.006 -0.1018  0.4558  0.1905
36334SOL    HW217971   9.934  10.602   9.860 -2.8084 -2.7145  1.0894
36335SOL     OW17972   2.732  11.904   7.023  0.4739  0.0658  0.6512
36335SOL    HW117973   2.735  11.994   7.056 -2.9600  0.9808 -1.0868
36335SOL    HW217974   2.695  11.853   7.095 -0.9472  0.8000  0.4673
36336SOL     OW17975   1.410   4.975   1.893  0.1738 -0.2652 -0.0579
36336SOL    HW117976   1.349   5.049   1.898 -0.2683 -0.6934  1.5614
36336SOL    HW217977   1.481   5.007   1.839 -0.8183  0.7501 -0.8159
36337SOL     OW17978  10.603   8.595  12.549 -0.4569  0.0945  0.1612
36337SOL    HW117979  10.637   8.631  12.631  0.3595 -2.1335  0.8935
36337SOL    HW217980  10.631   8.657  12.482 -1.2500  2.0382  1.5536
36338SOL     OW17981   4.624   9.855   7.448  0.4237 -0.1016  0.0910
36338SOL    HW117982   4.542   9.904   7.446  1.0264  0.9312 -1.5923
36338SOL    HW217983   4.598   9.764   7.437 -0.6257 -0.0904  1.9818
36339SOL     OW17984   1.704   6.342   3.254 -0.2261  0.6751  0.2145
36339SOL    HW117985   1.628   6.384   3.214  0.9832  0.6101 -2.3816
36339SOL    HW217986   1.763   6.414   3.276 -1.3187  0.8075  3.1364
36340SOL     OW17987   6.134   3.692   9.254  0.3442 -0.0419 -0.1168
36340SOL    HW117988   6.038   3.692   9.255  0.3305 -0.4963 -0.6662
36340SOL    HW217989   6.158   3.599   9.261  0.7123 -0.0471 -1.1851
36341SOL     OW17990   7.646  10.206   4.442 -0.2681 -0.4633 -0.0446
36341SOL    HW117991   7.726  10.219   4.390  0.8981  2.4854  2.2000
36341SOL    HW217992   7.616  10.118   4.418  1.9181 -0.5052 -3.2419
36342SOL     OW17993   9.688   5.145   3.294  0.2003 -0.4065  0.0670
36342SOL    HW117994   9.706   5.224   3.243 -0.7742  0.5594  1.1618
36342SOL    HW217995   9.772   5.100   3.298  0.9788  0.9786  0.0962
36343SOL     OW17996  12.019   2.819   0.476  0.0370 -0.2728 -0.6016
36343SOL    HW117997  12.048   2.909   0.459 -1.1034  0.2536  0.1259
36343SOL    HW217998  11.933   2.829   0.515 -0.7923 -1.7482 -1.9449
36344SOL     OW17999  12.487   3.360   8.300 -0.4213  0.0288 -0.0019
36344SOL    HW118000  12.445   3.301   8.363 -1.8597  0.6588 -0.3312
36344SOL    HW218001  12.509   3.437   8.352 -0.4949  0.0594 -0.0161
36345SOL     OW18002   6.535   3.568   8.049  0.1421 -0.3537 -0.0589
36345SOL    HW118003   6.628   3.574   8.028  0.1745  2.0401  0.5148
36345SOL    HW218004   6.522   3.475   8.069  2.3992 -0.7520 -0.0835
36346SOL     OW18005   3.307   9.759   6.925 -0.3791  0.4364 -0.3510
36346SOL    HW118006   3.270   9.742   7.012  3.5120  1.2877  1.6930
36346SOL    HW218007   3.290   9.678   6.876  0.9243 -1.9005  2.6841
36347SOL     OW18008   6.329   7.131   9.744 -0.0869 -0.0469 -0.5639
36347SOL    HW118009   6.295   7.043   9.729  1.3277 -0.8225  0.4997
36347SOL    HW218010   6.424   7.121   9.736  0.1363  1.2316  0.2470
36348SOL     OW18011  10.849  11.698   6.870 -0.5870 -0.5674 -0.1718
36348SOL    HW118012  10.800  11.750   6.806  0.2133 -0.4863 -0.7389
36348SOL    HW218013  10.900  11.637   6.817  0.8138  0.1315  0.3183
36349SOL     OW18014   0.362   5.180   4.654  0.3584 -0.0520 -0.2719
36349SOL    HW118015   0.309   5.175   4.574 -0.7109  0.0824  0.4109
36349SOL    HW218016   0.427   5.247   4.635 -0.8671  1.1256 -0.4776
36350SOL     OW18017   0.136   9.335  11.856 -0.0216 -0.1210  0.3494
36350SOL    HW118018   0.168   9.342  11.945  1.5632 -0.5122 -0.1565
36350SOL    HW218019   0.215   9.340  11.801 -1.1219  2.9473 -1.2151
36351SOL     OW18020   5.202   9.875   5.529  1.0541  0.1590 -0.3356
36351SOL    HW118021   5.189   9.953   5.474  2.3709 -0.5666 -1.7675
36351SOL    HW218022   5.271   9.901   5.591  2.0356 -0.0521 -1.2975
36352SOL     OW18023   1.800   0.752   7.732 -0.9982  0.5903  0.3822
36352SOL    HW118024   1.744   0.676   7.748  0.4449 -0.5179  0.3771
36352SOL    HW218025   1.798   0.801   7.814 -1.2389  0.0702  0.6891
36353SOL     OW18026  12.064   9.761   1.979 -0.4292  0.1087 -0.1428
36353SOL    HW118027  12.009   9.837   1.958 -1.3344 -0.5328 -0.1642
36353SOL    HW218028  12.008   9.686   1.960 -0.9568 -0.5811  3.4263
36354SOL     OW18029   2.013   6.191   6.112 -0.1910  0.0128 -0.0628
36354SOL    HW118030   2.005   6.262   6.175 -1.1496 -0.1358  0.0069
36354SOL    HW218031   2.009   6.111   6.165  3.9288 -0.2199  0.2508
36355SOL     OW18032   8.126   7.089   1.150  0.2000 -0.8261  0.2064
36355SOL    HW118033   8.165   7.029   1.213  0.6388 -0.4120  0.3380
36355SOL    HW218034   8.139   7.176   1.188  1.0721 -0.5090 -0.7389
36356SOL     OW18035  11.460   8.201   8.609 -0.0003 -0.1168 -0.1855
36356SOL    HW118036  11.370   8.168   8.598 -0.0181 -0.2337  0.2926
36356SOL    HW218037  11.463   8.280   8.555 -0.0830 -0.6632 -1.0213
36357SOL     OW18038  10.700   9.903   9.837 -0.5137  0.3386 -0.2657
36357SOL    HW118039  10.616   9.868   9.866 -0.3146  0.2558  0.2284
36357SOL    HW218040  10.692   9.998   9.849  0.3840  0.1739  2.4122
36358SOL     OW18041  11.298  11.930  10.536  0.7979  0.2682  0.7373
36358SOL    HW118042  11.378  11.891  10.570  1.0536  0.7217  0.6636
36358SOL    HW218043  11.298  12.020  10.570 -0.0432  0.0511  1.3236
36359SOL     OW18044   7.979   4.326   0.031 -0.1834  0.3570  0.1384
36359SOL    HW118045   7.898   4.377   0.030 -0.1046  0.4889 -1.3732
36359SOL    HW218046   8.014   4.339   0.119 -1.6940  0.4516  0.7587
36360SOL     OW18047   2.220   6.525   3.903 -0.0643 -0.0936  0.1088
36360SOL    HW118048   2.296   6.531   3.846 -0.9222  0.1037 -1.0648
36360SOL    HW218049   2.242   6.578   3.979 -0.1247  2.4707 -1.5262
36361SOL     OW18050   4.659   8.847   7.072 -0.3016  0.1393 -0.3889
36361SOL    HW118051   4.735   8.827   7.016  0.4225 -0.7405  0.8609
36361SOL    HW218052   4.623   8.927   7.034  0.7686  0.1405 -1.5040
36362SOL     OW18053   7.649  11.445   2.243 -0.3241  0.1968  0.1769
36362SOL    HW118054   7.648  11.532   2.203 -3.4309 -0.0123 -0.4457
36362SOL    HW218055   7.600  11.455   2.324 -2.7083 -1.2671 -0.9443
36363SOL     OW18056  10.079   8.351   7.569 -0.0317  0.4447  0.3090
36363SOL    HW118057  10.171   8.364   7.591 -0.0706  3.4469 -0.8364
36363SOL    HW218058  10.037   8.434   7.592 -2.3717 -0.6478  0.2812
36364SOL     OW18059   9.626  11.754   3.011  0.1663  0.1708  0.1370
36364SOL    HW118060   9.666  11.743   3.098  0.0314  0.9465  0.3082
36364SOL    HW218061   9.580  11.838   3.017  2.0039  1.3747 -1.3552
36365SOL     OW18062   0.071  11.367   0.107 -0.3973 -0.1572 -0.2273
36365SOL    HW118063   0.075  11.273   0.125 -1.0784 -0.3071 -0.8083
36365SOL    HW218064   0.151  11.403   0.146  0.1670 -1.0640 -0.5297
36366SOL     OW18065   9.616   0.512   5.416  0.2046 -0.3365  0.4637
36366SOL    HW118066   9.544   0.571   5.392  0.0799 -0.4830  0.4689
36366SOL    HW218067   9.607   0.438   5.355 -0.4970 -1.0138  1.3476
36367SOL     OW18068   5.301   4.968  10.765  0.2182  1.0410 -0.6422
36367SOL    HW118069   5.304   4.944  10.672  1.3241  1.1994 -0.6675
36367SOL    HW218070   5.393   4.977  10.790 -0.0329  0.2030  0.6815
36368SOL     OW18071   7.133   9.795   1.378  0.0548  0.0443 -0.1728
36368SOL    HW118072   7.138   9.755   1.291  0.0961 -0.6515  0.1434
36368SOL    HW218073   7.097   9.726   1.434 -0.4351  0.6472  0.2690
36369SOL     OW18074  10.303   3.639   1.688 -0.3085 -0.1771  0.3989
36369SOL    HW118075  10.341   3.715   1.645  0.7231 -0.3005  1.0480
36369SOL    HW218076  10.341   3.640   1.776 -2.8016  0.4020  1.5444
36370SOL     OW18077   9.248   2.608   8.730  0.0863 -0.3050 -0.0144
36370SOL    HW118078   9.160   2.617   8.766 -0.4436  1.2135 -1.5584
36370SOL    HW218079   9.293   2.548   8.790 -1.7589 -0.5306  1.2060
36371SOL     OW18080  10.107  10.299   0.525 -0.6550 -0.3261 -0.3028
36371SOL    HW118081  10.031  10.341   0.487 -0.6014 -0.6742 -0.8070
36371SOL    HW218082  10.167  10.371   0.546  0.1636 -0.2152 -2.7217
36372SOL     OW18083   6.434   8.570   2.397 -0.1295  0.0312  0.2619
36372SOL    HW118084   6.396   8.565   2.310 -0.3566  0.5538  0.3275
36372SOL    HW218085   6.396   8.496   2.445  0.9510 -1.0116 -0.4418
36373SOL     OW18086   9.111  11.054  10.813  0.1400 -0.7407  0.2053
36373SOL    HW118087   9.167  11.027  10.740 -0.0822 -0.7063  0.0208
36373SOL    HW218088   9.035  11.094  10.771 -0.1138 -0.9618  0.4505
36374SOL     OW18089   2.568  10.445  12.160  0.2745 -0.0778 -0.1789
36374SOL    HW118090   2.641  10.423  12.102 -0.1923 -0.5793 -0.5846
36374SOL    HW218091   2.593  10.409  12.245  0.5654 -0.1154 -0.2784
36375SOL     OW18092   1.886   4.537   0.747  0.4257  0.1110  0.0190
36375SOL    HW118093   1.941   4.461   0.770 -0.7600 -0.6553  0.4086
36375SOL    HW218094   1.922   4.568   0.664  1.1137 -0.7013 -0.0026
36376SOL     OW18095   0.819   9.025   1.380 -0.5606 -0.4722  0.2264
36376SOL    HW118096   0.909   9.057   1.369 -0.4323 -0.8359  0.2069
36376SOL    HW218097   0.829   8.939   1.422 -0.7579 -1.6307 -1.9526
36377SOL     OW18098   4.934   5.606   1.504  0.4562 -0.0664 -0.2813
36377SOL    HW118099   4.894   5.600   1.417  0.1024 -0.8670 -0.0731
36377SOL    HW218100   4.863   5.635   1.561  0.4046 -0.5904 -0.0746
36378SOL     OW18101   2.653   3.639   0.995 -0.3624 -0.0442 -0.1055
36378SOL    HW118102   2.696   3.602   0.918  0.7225 -0.2204  0.5605
36378SOL    HW218103   2.641   3.731   0.973  0.6968  0.0903 -0.1779
36379SOL     OW18104  11.740   8.556   0.226  0.0135  0.6118  0.4326
36379SOL    HW118105  11.683   8.564   0.149 -3.1498  0.6387  2.5678
36379SOL    HW218106  11.689   8.595   0.297  2.7919  0.6293  2.5816
36380SOL     OW18107   7.986   6.546   4.431 -0.2857  0.7233 -0.0088
36380SOL    HW118108   7.972   6.480   4.363 -2.1548  0.2562  0.7513
36380SOL    HW218109   8.081   6.553   4.439  0.0379 -2.3926  0.3103
36381SOL     OW18110   5.276   0.526  11.925 -0.1341  0.5436 -0.2444
36381SOL    HW118111   5.291   0.436  11.898  0.3697  0.3973  0.5064
36381SOL    HW218112   5.363   0.563  11.937 -0.3401  0.9987 -0.1153
36382SOL     OW18113   8.674  11.669  11.032  0.5784  0.4501  0.3349
36382SOL    HW118114   8.596  11.706  10.990  0.4641  1.2371  1.2167
36382SOL    HW218115   8.689  11.725  11.108  0.5946 -1.1441  1.5402
36383SOL     OW18116  11.222   1.117  11.000 -0.1980  0.4814  0.5173
36383SOL    HW118117  11.311   1.133  10.969 -0.6630  1.4155 -0.3889
36383SOL    HW218118  11.217   1.022  11.014  0.7980  0.3756  0.1641
36384SOL     OW18119   1.344   3.602  11.241  0.0548  0.5313 -0.4383
36384SOL    HW118120   1.390   3.552  11.174 -0.4078  1.1262 -1.2216
36384SOL    HW218121   1.414   3.632  11.300  0.3065 -1.2329  0.2117
36385SOL     OW18122  12.351   3.597   3.197 -0.9179  0.9083 -0.1228
36385SOL    HW118123  12.384   3.674   3.152 -1.4567  1.0271 -0.3220
36385SOL    HW218124  12.371   3.524   3.139 -0.2779  0.8767  0.1318
36386SOL     OW18125  11.088  11.963   4.726  0.1026 -0.5923  0.2864
36386SOL    HW118126  11.066  11.975   4.818  1.2110  1.8178  0.3160
36386SOL    HW218127  11.004  11.950   4.682 -0.4249 -1.8990  1.6067
36387SOL     OW18128   3.137   9.000  11.426  0.0973 -0.5067 -0.2285
36387SOL    HW118129   3.220   9.043  11.406  0.4191 -0.1688  1.6807
36387SOL    HW218130   3.073   9.044  11.370  1.2272 -1.0000 -1.9789
36388SOL     OW18131   4.847   7.055   5.793  0.0328 -0.2352  0.5446
36388SOL    HW118132   4.937   7.059   5.825 -0.0461 -3.1998  1.3717
36388SOL    HW218133   4.804   7.131   5.833  2.2527  1.6862 -0.4578
36389SOL     OW18134   8.428   2.946   6.925 -0.1881 -0.0019  0.7971
36389SOL    HW118135   8.439   2.931   7.019  0.5634  2.1831  1.1319
36389SOL    HW218136   8.506   2.995   6.900 -0.3481 -0.5964 -1.0108
36390SOL     OW18137   3.288  11.064  11.938 -0.2550  0.0133 -0.1541
36390SOL    HW118138   3.337  11.082  11.858  0.0620 -0.4874 -0.0812
36390SOL    HW218139   3.219  11.131  11.940  1.3046  1.6956  0.4952
36391SOL     OW18140   4.550   3.418   6.803  0.3734 -0.1299  0.5644
36391SOL    HW118141   4.455   3.413   6.794  0.2919 -0.2087  1.3983
36391SOL    HW218142   4.581   3.329   6.787  0.3517 -0.0049 -0.1805
36392SOL     OW18143   6.194   0.940   2.646  0.2369 -0.8201  0.0363
36392SOL    HW118144   6.265   0.947   2.582  0.9174 -1.1847  0.7258
36392SOL    HW218145   6.154   0.855   2.630 -0.1759 -0.5295 -0.4833
36393SOL     OW18146   2.104   7.630  12.419  0.4081 -0.1157 -0.0225
36393SOL    HW118147   2.048   7.670  12.353 -0.2036 -0.8154  0.0570
36393SOL    HW218148   2.067   7.659  12.502 -0.3040 -1.1523  0.0466
36394SOL     OW18149   4.159   3.239   7.803  0.0218  0.2819 -0.2713
36394SOL    HW118150   4.189   3.182   7.731  1.1322  1.5038 -0.8310
36394SOL    HW218151   4.070   3.264   7.778 -0.3278 -0.8539 -0.2224
36395SOL     OW18152   5.516  11.631   2.552  0.1737  0.5399 -0.0812
36395SOL    HW118153   5.429  11.619   2.589  0.9928 -1.1165  1.4459
36395SOL    HW218154   5.526  11.725   2.542 -1.1851  0.8456  1.2389
36396SOL     OW18155   5.517   2.954   0.876  0.6611 -0.6959  0.3154
36396SOL    HW118156   5.527   2.869   0.918  0.8229 -0.0792  1.5514
36396SOL    HW218157   5.576   3.013   0.924  0.2400  0.2148 -0.2436
36397SOL     OW18158  11.134   7.000   9.792 -0.2131  0.4013  0.7205
36397SOL    HW118159  11.097   6.953   9.717 -0.7091  0.8577  0.6672
36397SOL    HW218160  11.060   7.012   9.851  0.3697 -0.7834  1.7357
36398SOL     OW18161   7.972  10.678   4.060 -0.2292 -0.4244 -0.4925
36398SOL    HW118162   8.046  10.627   4.091 -0.6625  1.2461  3.9866
36398SOL    HW218163   7.907  10.613   4.033  0.7816 -2.1123  0.9984
36399SOL     OW18164   0.699  12.160   9.079 -0.1610 -0.4568 -0.5010
36399SOL    HW118165   0.716  12.110   9.000  0.7992 -1.2855  0.2030
36399SOL    HW218166   0.731  12.248   9.058  0.6437 -0.8179 -0.8373
36400SOL     OW18167   6.811   4.522   8.699  0.0960  0.2036 -0.1404
36400SOL    HW118168   6.906   4.526   8.694  0.3612 -1.4888  2.0047
36400SOL    HW218169   6.785   4.475   8.620  1.0451  0.5651 -0.6771
36401SOL     OW18170   9.552  10.951   2.300  0.0187 -0.3974 -0.6128
36401SOL    HW118171   9.642  10.923   2.281 -0.0407 -0.1080 -1.3454
36401SOL    HW218172   9.501  10.921   2.225 -0.6350 -1.1484  0.1063
36402SOL     OW18173   8.486  11.067   4.738  0.1325 -0.5478 -0.3994
36402SOL    HW118174   8.561  11.007   4.742 -0.2427 -1.1253 -1.4802
36402SOL    HW218175   8.414  11.017   4.778  0.2657 -0.0858  0.4223
36403SOL     OW18176   1.957   0.289   2.391  0.6189  0.1691  0.8292
36403SOL    HW118177   2.033   0.265   2.338 -0.8747  0.8348 -1.7863
36403SOL    HW218178   1.983   0.368   2.437  1.2957  0.7960 -0.5835
36404SOL     OW18179   5.467   2.932   6.924  0.0927 -0.5421 -0.0470
36404SOL    HW118180   5.382   2.943   6.965  0.9211  2.1958  1.1831
36404SOL    HW218181   5.505   2.855   6.967 -0.9389 -0.5676  0.8523
36405SOL     OW18182  10.319  12.395   8.093  0.6106  0.5937 -0.3099
36405SOL    HW118183  10.256  12.467   8.099  1.5701  1.5090 -0.7963
36405SOL    HW218184  10.266  12.316   8.083 -0.4557  1.2790 -0.1764
36406SOL     OW18185   8.743  11.844   9.093  0.3286  0.3913 -0.0738
36406SOL    HW118186   8.765  11.842   9.186  0.2032 -4.2113  0.1214
36406SOL    HW218187   8.813  11.793   9.052 -0.9659  0.1106 -2.0744
36407SOL     OW18188  10.332   1.817   7.044  0.5926  0.3257 -0.3444
36407SOL    HW118189  10.321   1.769   6.962 -1.0442  0.1064 -0.0169
36407SOL    HW218190  10.363   1.750   7.106 -1.0459 -0.2044 -0.0572
36408SOL     OW18191   2.384   2.577   9.603 -0.4980 -0.1307 -0.2965
36408SOL    HW118192   2.441   2.653   9.613 -0.5381 -0.0878 -0.3967
36408SOL    HW218193   2.434   2.505   9.643  0.9653 -0.7460 -3.0254
36409SOL     OW18194   4.094   2.550   1.566  0.2945  0.6601  0.3462
36409SOL    HW118195   4.190   2.554   1.562  0.3352  1.2482  1.5660
36409SOL    HW218196   4.065   2.620   1.508  0.6200  1.0987  0.7113
36410SOL     OW18197   3.418   8.241   1.251  0.5243  0.6167 -0.4343
36410SOL    HW118198   3.492   8.205   1.299 -0.1991  1.1031  1.1007
36410SOL    HW218199   3.402   8.179   1.180  2.0600  0.2471 -0.4752
36411SOL     OW18200   7.644  10.592   8.407 -0.0118 -0.2006 -0.3890
36411SOL    HW118201   7.609  10.555   8.326  2.1758  1.4448 -2.2007
36411SOL    HW218202   7.692  10.670   8.379  2.9210 -0.9121  2.1440
36412SOL     OW18203   9.365   3.310   3.971 -0.1277  0.4074  0.5108
36412SOL    HW118204   9.297   3.371   3.942  0.3063  0.2851 -0.8268
36412SOL    HW218205   9.406   3.354   4.046 -1.0399  0.9083  0.7379
36413SOL     OW18206   9.971   6.474   7.809  0.3843  0.4904  0.1117
36413SOL    HW118207   9.894   6.521   7.840  0.8592  1.3238  0.0588
36413SOL    HW218208  10.029   6.472   7.885  0.1682 -0.4589  0.2607
36414SOL     OW18209  10.655   2.469   0.969  0.3625  0.1175  0.1710
36414SOL    HW118210  10.625   2.476   1.060 -1.1954 -0.5143 -0.2682
36414SOL    HW218211  10.594   2.523   0.919  0.0051 -1.0663 -0.7313
36415SOL     OW18212   5.318   2.809  11.607 -0.5419  0.4279  0.0862
36415SOL    HW118213   5.388   2.844  11.551 -0.1994  1.0057  0.8537
36415SOL    HW218214   5.364   2.770  11.681 -1.0466  1.6711  1.0800
36416SOL     OW18215   6.647  10.665   6.010 -0.2633  0.7018  0.6831
36416SOL    HW118216   6.617  10.589   5.961  1.0533  0.2043  0.6384
36416SOL    HW218217   6.704  10.629   6.078  0.1068  1.6180  0.8689
36417SOL     OW18218   5.155   5.657   4.452  0.0159  0.6649  0.0765
36417SOL    HW118219   5.132   5.655   4.544  0.0299  1.5181  0.1020
36417SOL    HW218220   5.140   5.567   4.421 -0.1863  0.4309  0.8504
36418SOL     OW18221   0.511   6.176   2.857  0.2033  0.1388  0.0246
36418SOL    HW118222   0.541   6.172   2.766  0.2211 -0.9909  0.0748
36418SOL    HW218223   0.471   6.263   2.865  0.5822  0.4148 -0.9369
36419SOL     OW18224   3.431   0.186   9.029  0.2493 -0.1649 -0.1064
36419SOL    HW118225   3.434   0.099   9.069 -0.5361  0.5837  1.6695
36419SOL    HW218226   3.427   0.168   8.935 -0.2844 -2.0500  0.2270
36420SOL     OW18227   2.832   8.537   4.121  0.1425 -0.4534 -0.6129
36420SOL    HW118228   2.848   8.598   4.193  1.6854  0.3689 -1.5917
36420SOL    HW218229   2.881   8.574   4.048 -0.5253 -1.8324 -1.7965
36421SOL     OW18230   2.334   8.913   5.175 -0.1719 -0.5384  0.4315
36421SOL    HW118231   2.378   8.960   5.104 -1.0304  2.3936  1.7071
36421SOL    HW218232   2.242   8.912   5.150 -0.2109 -1.3906  0.5608
36422SOL     OW18233   3.029  11.385   0.792 -0.4030  0.7910 -0.2068
36422SOL    HW118234   3.042  11.438   0.714 -1.4001  0.8969 -0.3173
36422SOL    HW218235   3.041  11.445   0.865  0.8260  0.6264 -0.2547
36423SOL     OW18236   8.853  10.157   9.328  0.1183  0.1113 -0.0512
36423SOL    HW118237   8.832  10.240   9.369  1.6003  1.5149 -1.9235
36423SOL    HW218238   8.868  10.179   9.236  1.2783 -2.0884 -0.4627
36424SOL     OW18239   3.289   8.935   2.725 -0.5841  0.4143  0.2981
36424SOL    HW118240   3.342   9.005   2.688  0.9412 -0.4020  0.8221
36424SOL    HW218241   3.316   8.857   2.676 -0.0713 -0.3016  1.6467
36425SOL     OW18242  11.690   9.989  10.063 -0.1876 -0.2732 -0.4155
36425SOL    HW118243  11.748  10.063  10.080 -2.0009  1.1656 -0.1156
36425SOL    HW218244  11.743   9.911  10.082  1.3884  0.9795  0.5290
36426SOL     OW18245   8.420  11.548   5.960  0.8038  0.5799  0.1255
36426SOL    HW118246   8.344  11.541   6.018 -0.1342 -0.5031 -1.1595
36426SOL    HW218247   8.460  11.461   5.963 -0.1455 -0.0021 -1.9228
36427SOL     OW18248   8.794   4.218  11.719  0.0512 -0.4169 -0.2000
36427SOL    HW118249   8.822   4.258  11.637 -1.1088  0.5968 -0.1319
36427SOL    HW218250   8.825   4.278  11.787 -1.0431  0.0140 -0.0534
36428SOL     OW18251   3.850   0.069   1.082  0.1225 -0.2057 -0.3872
36428SOL    HW118252   3.764   0.075   1.123  0.2594 -1.1119  0.0583
36428SOL    HW218253   3.866   0.157   1.047 -1.2952 -0.1975 -1.1167
36429SOL     OW18254   4.517   1.432   4.080 -0.5180  0.9755  0.2608
36429SOL    HW118255   4.566   1.420   3.999 -0.1618 -0.2969  0.6370
36429SOL    HW218256   4.584   1.431   4.149 -0.9744  0.1388  0.7075
36430SOL     OW18257   2.174   5.156   2.461  0.2433  0.2767  0.0077
36430SOL    HW118258   2.208   5.101   2.390 -0.8049 -0.0620 -0.2525
36430SOL    HW218259   2.186   5.245   2.430  1.0999  0.1741  0.0273
36431SOL     OW18260   2.738  10.092   4.551  0.2763  0.5971  1.0663
36431SOL    HW118261   2.786  10.172   4.529  0.3471  0.2321 -0.1980
36431SOL    HW218262   2.786  10.055   4.625  0.2966  1.6700  1.6034
36432SOL     OW18263   7.920   9.674   5.528  0.1709  0.3664 -0.1888
36432SOL    HW118264   7.854   9.613   5.496 -1.0548  0.5402  1.8402
36432SOL    HW218265   8.003   9.629   5.515 -0.6968 -1.7468  1.1744
36433SOL     OW18266   8.226   6.738  11.716  0.0766  0.5133 -0.0015
36433SOL    HW118267   8.132   6.724  11.706  0.2517 -1.3572  0.5218
36433SOL    HW218268   8.236   6.771  11.805 -0.1007  0.9127 -0.1286
36434SOL     OW18269   6.156   0.393  11.073 -0.3938 -0.0598 -0.0269
36434SOL    HW118270   6.156   0.432  10.985  1.2199 -1.1188 -0.5479
36434SOL    HW218271   6.080   0.431  11.116 -1.0505  0.7291 -1.7801
36435SOL     OW18272   2.434  11.511   4.989  0.2911  0.5448 -0.4269
36435SOL    HW118273   2.371  11.536   5.056 -0.2757  1.0384 -1.1246
36435SOL    HW218274   2.385  11.455   4.929  1.3673 -1.8029  0.7407
36436SOL     OW18275   3.411  10.788  10.058  0.4132  0.2122  0.3217
36436SOL    HW118276   3.426  10.758  10.147  0.1119  1.3789  0.7821
36436SOL    HW218277   3.498  10.810  10.025  0.4231  0.6775  0.6590
36437SOL     OW18278   3.924   3.818   1.410  0.2609  0.1829  0.0249
36437SOL    HW118279   3.915   3.838   1.317  0.5922  1.0328  0.1708
36437SOL    HW218280   3.999   3.870   1.439 -0.3272  0.5431  0.9381
36438SOL     OW18281  10.448   1.215   7.168  0.2004  0.1122 -0.2949
36438SOL    HW118282  10.481   1.127   7.151  0.7296  0.4587 -1.1023
36438SOL    HW218283  10.515   1.274   7.131 -0.7713  0.8346 -0.9548
36439SOL     OW18284   6.694  12.408   1.929 -0.8621  0.4733  0.3628
36439SOL    HW118285   6.610  12.378   1.894  0.2951 -1.3534 -1.0588
36439SOL    HW218286   6.737  12.452   1.855 -0.0775  0.2501  0.6700
36440SOL     OW18287   1.125   8.036  10.851 -0.1525  0.6135  0.6522
36440SOL    HW118288   1.143   7.958  10.903 -1.7763 -0.9319 -0.9767
36440SOL    HW218289   1.205   8.050  10.800 -0.6406 -1.5445 -0.8567
36441SOL     OW18290   1.041   4.598   3.469 -0.4850 -0.0707  0.2276
36441SOL    HW118291   1.078   4.685   3.484 -0.7789 -0.0162  0.6524
36441SOL    HW218292   0.988   4.581   3.546 -1.4941 -0.0662 -0.4424
36442SOL     OW18293  11.000   6.347   0.989 -0.3122  0.0205  0.2930
36442SOL    HW118294  11.054   6.306   0.921 -1.8173 -1.6991  0.0659
36442SOL    HW218295  11.063   6.388   1.049  1.1993 -1.3368 -0.3181
36443SOL     OW18296   2.816   1.972  10.608  0.1428 -0.0539  0.0008
36443SOL    HW118297   2.747   1.985  10.673  0.2540  0.8090 -0.0479
36443SOL    HW218298   2.779   2.002  10.526  0.6816  0.7265  0.0327
36444SOL     OW18299  10.348   6.245   7.386  0.0472 -0.5044  0.6826
36444SOL    HW118300  10.327   6.162   7.345  1.9767  0.0521 -1.6581
36444SOL    HW218301  10.289   6.308   7.345  0.5587 -0.2692  0.3041
36445SOL     OW18302   8.971   3.515  11.814 -0.2185 -0.9102 -0.2043
36445SOL    HW118303   9.009   3.438  11.858 -0.8130 -0.7398  0.6370
36445SOL    HW218304   8.974   3.493  11.721  0.2264 -1.6743 -0.0239
36446SOL     OW18305  10.419  10.793   0.352  0.0971  0.1609 -0.1777
36446SOL    HW118306  10.405  10.811   0.259 -1.5136 -0.2856 -0.0434
36446SOL    HW218307  10.448  10.702   0.354  3.0571  0.9826 -0.4249
36447SOL     OW18308   2.209   9.975   7.219 -0.4744  0.8173  0.5024
36447SOL    HW118309   2.240   9.885   7.228  0.4805  0.9546 -1.0498
36447SOL    HW218310   2.288  10.028   7.218 -0.6248  1.2285 -2.9427
36448SOL     OW18311  11.445   0.177   9.257  0.3683  0.2709  0.4853
36448SOL    HW118312  11.521   0.141   9.303  0.6991  0.1491 -0.1462
36448SOL    HW218313  11.369   0.141   9.303  0.6696 -1.6692 -0.4305
36449SOL     OW18314   0.234   0.967   6.216 -0.0703  0.3082  0.0549
36449SOL    HW118315   0.259   0.898   6.154  0.5725 -1.3822  2.0499
36449SOL    HW218316   0.271   0.938   6.299 -1.0378  2.3855  1.2835
36450SOL     OW18317   6.261   2.370   6.425 -0.1839 -0.3933 -0.5335
36450SOL    HW118318   6.209   2.443   6.459 -0.5106  0.0343 -1.8878
36450SOL    HW218319   6.221   2.292   6.461 -0.5518  0.0417  0.0084
36451SOL     OW18320   0.427   7.645   1.501 -0.1591  0.3771 -0.0540
36451SOL    HW118321   0.426   7.713   1.569 -1.2614  0.7572 -0.4311
36451SOL    HW218322   0.369   7.679   1.433 -1.2676 -1.2508  0.0382
36452SOL     OW18323   8.429   8.570   5.994  0.3990  0.1617 -0.0953
36452SOL    HW118324   8.423   8.628   6.070  1.7081  0.1094  0.0696
36452SOL    HW218325   8.344   8.578   5.951  0.5154  2.2066 -0.0549
36453SOL     OW18326  10.352   3.358   0.093  0.0615  0.0749 -0.3410
36453SOL    HW118327  10.340   3.292   0.161  1.6231  0.4418  0.3289
36453SOL    HW218328  10.295   3.430   0.119 -0.6239 -0.4556 -0.3480
36454SOL     OW18329   7.638   0.944   2.395  0.0540 -0.0435 -0.2727
36454SOL    HW118330   7.564   0.947   2.334  0.0259 -2.6951 -0.4952
36454SOL    HW218331   7.602   0.970   2.479 -0.6378  0.6228 -0.7610
36455SOL     OW18332   9.442   4.966   5.239 -0.6118 -0.4537 -0.0824
36455SOL    HW118333   9.455   5.060   5.249  2.0101 -0.4443 -2.2013
36455SOL    HW218334   9.375   4.958   5.170 -1.2420 -0.1905  0.4871
36456SOL     OW18335   2.468   2.322  11.355 -0.1463 -0.3951 -0.2236
36456SOL    HW118336   2.466   2.332  11.259 -0.4944 -1.5550 -0.3544
36456SOL    HW218337   2.401   2.256  11.373  1.0295 -1.3822  0.6599
36457SOL     OW18338  10.663  10.151   0.967  0.7740  0.7940  0.3673
36457SOL    HW118339  10.682  10.133   1.059 -1.6683 -2.4657  0.4301
36457SOL    HW218340  10.743  10.126   0.921  1.4067  0.6810  1.4923
36458SOL     OW18341  11.900   7.221   3.401  0.4396 -0.4386 -0.2342
36458SOL    HW118342  11.816   7.232   3.357 -0.4924  0.0765  1.5582
36458SOL    HW218343  11.965   7.230   3.332 -0.8940  1.0839 -1.3632
36459SOL     OW18344   8.265   7.464   1.546  0.1473 -0.0866 -0.2711
36459SOL    HW118345   8.321   7.439   1.473 -0.6556  0.9560 -1.2760
36459SOL    HW218346   8.227   7.381   1.575  2.7989 -0.9654  1.0329
36460SOL     OW18347   1.163   1.400   4.471 -0.0551 -0.6671  0.3776
36460SOL    HW118348   1.191   1.403   4.563  1.0736 -0.0354  0.0424
36460SOL    HW218349   1.245   1.389   4.422 -0.2746  1.6898 -0.6876
36461SOL     OW18350   0.753   4.933   6.799  0.3456 -0.5109  0.5109
36461SOL    HW118351   0.734   5.024   6.818  0.8190 -0.4157  0.5210
36461SOL    HW218352   0.708   4.884   6.868 -1.0517 -0.3662 -0.2645
36462SOL     OW18353   8.724   1.652   5.727  1.1712 -0.1448 -0.2749
36462SOL    HW118354   8.739   1.744   5.706 -0.9798  0.4924  0.6257
36462SOL    HW218355   8.665   1.621   5.659  0.7514 -0.4169  0.1992
36463SOL     OW18356   7.366   0.114  12.298 -0.2558 -0.0214  0.1466
36463SOL    HW118357   7.368   0.180  12.229  0.2591  0.8525  0.9875
36463SOL    HW218358   7.366   0.163  12.379 -0.3099 -1.0504  0.7885
36464SOL     OW18359   6.867   9.879   8.584 -0.2639 -0.0047  0.3967
36464SOL    HW118360   6.840   9.916   8.668  0.0180 -0.2730  0.6064
36464SOL    HW218361   6.924   9.805   8.607  0.7763  0.6339 -0.0276
36465SOL     OW18362  12.153   7.479  12.315 -0.2801 -0.1073 -0.3083
36465SOL    HW118363  12.174   7.464  12.223  1.0770 -2.3043  0.2833
36465SOL    HW218364  12.207   7.416  12.362 -2.4185 -0.4265  1.8826
36466SOL     OW18365   1.057   0.232   8.945  0.2057 -0.3048 -0.5195
36466SOL    HW118366   1.120   0.193   8.884 -0.4240 -0.8949 -0.8057
36466SOL    HW218367   1.027   0.311   8.901 -1.6024 -1.6386 -1.8677
36467SOL     OW18368  10.146   8.145   9.700 -0.1888  0.2969 -1.0605
36467SOL    HW118369  10.180   8.083   9.635  0.1864  0.7373 -1.2871
36467SOL    HW218370  10.216   8.208   9.712  0.4151 -0.7088  1.0375
36468SOL     OW18371   7.272   4.860   5.560  0.0494  0.4849 -0.3122
36468SOL    HW118372   7.329   4.916   5.507  2.3379  0.3082  1.7724
36468SOL    HW218373   7.331   4.816   5.620 -2.3513  0.7488  2.4849
36469SOL     OW18374   7.334   2.878   7.149 -0.0174  0.4241  0.0880
36469SOL    HW118375   7.279   2.886   7.227  0.8301  2.1009  0.5556
36469SOL    HW218376   7.420   2.909   7.177  0.6133 -0.0813 -1.2104
36470SOL     OW18377   0.045   4.683   9.524 -0.2043 -0.2099  0.1970
36470SOL    HW118378   0.009   4.723   9.445 -0.4159 -0.4015  0.1949
36470SOL    HW218379  -0.020   4.618   9.550 -0.0396 -0.2890  0.4139
36471SOL     OW18380   2.518   5.748   1.701 -0.5488  0.1387  0.1342
36471SOL    HW118381   2.573   5.693   1.646 -0.1898  0.2014  0.4317
36471SOL    HW218382   2.487   5.818   1.643 -1.6055 -0.7692 -0.4399
36472SOL     OW18383   8.159  11.769   2.634 -0.2201 -0.4334 -0.7908
36472SOL    HW118384   8.221  11.769   2.562  0.1296  0.2014 -0.4993
36472SOL    HW218385   8.082  11.817   2.601 -0.8562 -1.8218 -1.3876
36473SOL     OW18386  11.446   5.530   4.067  0.4070  0.5640 -0.2239
36473SOL    HW118387  11.377   5.485   4.116  1.4478  1.2641  2.0503
36473SOL    HW218388  11.407   5.614   4.043 -0.1682  0.1592 -0.7192
36474SOL     OW18389   0.252   9.209  12.529 -0.0791  0.0675 -0.2091
36474SOL    HW118390   0.209   9.195  12.613 -1.3634  1.5604 -0.5591
36474SOL    HW218391   0.184   9.193  12.463  0.4469  0.5198 -0.8866
36475SOL     OW18392   6.397  12.428   7.512 -0.1318  0.5892 -0.2348
36475SOL    HW118393   6.473  12.436   7.455 -0.7759  1.2215 -1.0127
36475SOL    HW218394   6.343  12.503   7.492 -0.8688  0.2687  0.4780
36476SOL     OW18395   4.169  10.145   3.201  0.6131  0.5610 -0.7133
36476SOL    HW118396   4.197  10.059   3.171  0.5950 -0.6052  2.2285
36476SOL    HW218397   4.078  10.132   3.227  1.5613  0.3271  3.1002
36477SOL     OW18398   4.718  11.974   7.530 -0.3234 -0.3181  0.3820
36477SOL    HW118399   4.763  11.988   7.447 -0.7178 -0.2997  0.1701
36477SOL    HW218400   4.660  11.900   7.514  0.0239 -0.6911  0.8113
36478SOL     OW18401   0.494   0.084   8.243 -0.4396  0.4736  0.1774
36478SOL    HW118402   0.432   0.155   8.228  1.7317  2.9930  2.1402
36478SOL    HW218403   0.560   0.122   8.301  2.7268 -2.1020 -1.3971
36479SOL     OW18404   8.186   3.179   1.090  0.3710 -0.0378  0.8031
36479SOL    HW118405   8.161   3.099   1.137  2.1968 -1.4336 -0.4845
36479SOL    HW218406   8.103   3.212   1.054 -0.3067 -1.8236  0.6433
36480SOL     OW18407   2.159   4.370  11.084 -0.6001  0.8221 -0.0607
36480SOL    HW118408   2.167   4.464  11.104 -2.7163  1.2412 -0.9071
36480SOL    HW218409   2.139   4.330  11.169  0.4683  1.0840  0.3360
36481SOL     OW18410   5.290  11.365  10.588  0.4064 -0.5790 -0.9545
36481SOL    HW118411   5.217  11.426  10.592 -0.0152 -1.1719  0.8673
36481SOL    HW218412   5.250  11.281  10.566  0.6802 -0.6830 -1.0577
36482SOL     OW18413   5.651   4.670   9.115 -0.2921  0.3699  0.1654
36482SOL    HW118414   5.678   4.666   9.023  0.1327  1.3665  0.2346
36482SOL    HW218415   5.556   4.657   9.112 -0.1678 -0.4996 -0.3219
36483SOL     OW18416  11.627   9.523   3.402 -0.1258 -0.5222 -0.3003
36483SOL    HW118417  11.602   9.438   3.367 -0.0625 -0.6494 -0.0402
36483SOL    HW218418  11.643   9.507   3.495 -1.0839 -0.0213 -0.0374
36484SOL     OW18419   3.979   8.447   9.034 -0.6718 -0.0770  0.0201
36484SOL    HW118420   3.930   8.467   9.114  2.1483 -1.3965  2.2573
36484SOL    HW218421   3.939   8.366   9.002 -2.1196  0.6950 -0.2280
36485SOL     OW18422   3.425  12.386   5.062 -0.1039  0.6515  0.3526
36485SOL    HW118423   3.498  12.344   5.016  0.9296  1.2027  1.4274
36485SOL    HW218424   3.442  12.368   5.155 -2.2078 -0.5526  0.5663
36486SOL     OW18425  12.243   5.687   6.014 -0.3584  0.1695 -0.1984
36486SOL    HW118426  12.198   5.740   5.949  0.3202 -0.4714 -1.2214
36486SOL    HW218427  12.335   5.714   6.008  0.0466 -1.2354 -0.9076
36487SOL     OW18428   7.484   1.937  12.147  0.0228  0.3678 -0.6944
36487SOL    HW118429   7.511   2.022  12.180 -1.8268 -0.2280  2.8973
36487SOL    HW218430   7.393   1.949  12.118  0.1349 -0.1503 -1.3052
36488SOL     OW18431   0.477   4.114   5.090 -0.2367 -0.1358 -0.5083
36488SOL    HW118432   0.397   4.132   5.139 -0.8148 -0.6491 -1.2457
36488SOL    HW218433   0.541   4.088   5.157 -0.9788 -0.7118 -0.0086
36489SOL     OW18434   8.295   4.335   7.162  0.4527  0.1198  0.0436
36489SOL    HW118435   8.381   4.328   7.121  1.6274  0.5070  2.2838
36489SOL    HW218436   8.241   4.270   7.115  1.6053  0.6283 -2.1304
36490SOL     OW18437   5.963   1.410  10.119 -0.3556  0.3181 -0.3442
36490SOL    HW118438   5.918   1.370  10.044  0.4148  1.2046 -1.3193
36490SOL    HW218439   5.919   1.374  10.196 -0.2767 -1.6925 -1.1776
36491SOL     OW18440   8.892   9.217   5.186  0.2223  0.1720 -0.3664
36491SOL    HW118441   8.889   9.125   5.159  2.8910 -0.0268 -0.2405
36491SOL    HW218442   8.963   9.255   5.133 -1.3007  2.3802 -0.9443
36492SOL     OW18443   3.206   3.052   9.988  0.3462 -0.0828 -0.4854
36492SOL    HW118444   3.183   2.975  10.039 -0.4770  0.8633  0.6263
36492SOL    HW218445   3.209   3.021   9.897 -1.5588 -1.0990 -0.2507
36493SOL     OW18446   2.363   2.583   6.319 -0.0702  0.0594  0.1311
36493SOL    HW118447   2.396   2.544   6.238  0.3189 -1.2366  0.8894
36493SOL    HW218448   2.307   2.655   6.290 -1.1070 -1.2824 -1.3266
36494SOL     OW18449   4.469   1.166   6.918  0.2322 -0.4865  0.2656
36494SOL    HW118450   4.505   1.129   6.838 -1.6257 -0.8378 -0.4592
36494SOL    HW218451   4.445   1.090   6.971 -0.8982 -0.3004  0.0359
36495SOL     OW18452   0.700  11.563   1.241 -0.1427  0.2588 -0.1682
36495SOL    HW118453   0.637  11.589   1.308 -0.8672 -1.2030 -0.2485
36495SOL    HW218454   0.782  11.552   1.289 -0.0105  1.7675  0.0057
36496SOL     OW18455   9.963   3.291   8.426  0.1131 -0.2562 -0.2967
36496SOL    HW118456   9.955   3.331   8.512 -1.7097  1.2512 -1.1093
36496SOL    HW218457   9.934   3.200   8.439  0.0106 -0.0909  0.7022
36497SOL     OW18458   8.761   6.388  11.778 -0.2817  0.1199  1.3732
36497SOL    HW118459   8.700   6.316  11.763  2.1123 -1.8342  0.3915
36497SOL    HW218460   8.772   6.391  11.873  0.1070 -1.3594  1.4061
36498SOL     OW18461   6.629   5.289  11.802  0.2829  0.2892 -0.1093
36498SOL    HW118462   6.607   5.260  11.891 -1.4924  0.0201 -0.5981
36498SOL    HW218463   6.667   5.376  11.814 -0.3970  0.4681  0.8840
36499SOL     OW18464  12.260   7.186   6.806 -0.5177  0.2512  0.4509
36499SOL    HW118465  12.308   7.155   6.730 -1.6494  2.0798 -1.0867
36499SOL    HW218466  12.327   7.212   6.869  0.4837  0.6655 -0.7589
36500SOL     OW18467   5.807   4.054   2.392  0.4839 -0.0307  0.5159
36500SOL    HW118468   5.824   4.103   2.472 -0.3818  0.5687  0.3553
36500SOL    HW218469   5.878   4.079   2.332  0.5947  0.2712  0.7710
36501SOL     OW18470   4.790   5.374   6.220  0.1429 -0.0163 -0.3029
36501SOL    HW118471   4.870   5.399   6.266  0.1516 -0.3609 -0.1276
36501SOL    HW218472   4.816   5.367   6.129  0.7525 -1.8946 -0.0248
36502SOL     OW18473   0.707   1.035   4.724 -0.2657 -0.2509 -0.0090
36502SOL    HW118474   0.628   1.040   4.669 -0.1477 -1.7437 -0.3762
36502SOL    HW218475   0.779   1.032   4.661 -0.1325 -2.0936  0.1628
36503SOL     OW18476   7.355  11.564  11.010 -0.1448 -0.1390  0.1501
36503SOL    HW118477   7.328  11.472  11.005 -0.0578 -0.1646  0.1499
36503SOL    HW218478   7.331  11.600  10.924  0.2447 -0.2796 -0.0221
36504SOL     OW18479   2.236   0.633   7.069 -0.5817 -0.0692 -0.0222
36504SOL    HW118480   2.150   0.674   7.066 -1.3378 -1.4663  1.3461
36504SOL    HW218481   2.218   0.539   7.062  0.8315 -0.3857  0.2971
36505SOL     OW18482   2.133   0.794   2.329  0.9580  0.5158 -0.4988
36505SOL    HW118483   2.202   0.734   2.300 -0.4626 -0.9985 -0.8777
36505SOL    HW218484   2.096   0.829   2.248  0.4397  0.3228 -0.3526
36506SOL     OW18485   8.131   1.201   9.251 -0.2987 -0.7854  0.3424
36506SOL    HW118486   8.148   1.292   9.275  1.2536 -0.8392 -0.4507
36506SOL    HW218487   8.194   1.182   9.182 -2.4111 -1.6352 -1.4739
36507SOL     OW18488  12.570   9.714  10.338  0.0131  0.3353  0.1613
36507SOL    HW118489  12.634   9.727  10.407  0.5127  0.0813 -0.2479
36507SOL    HW218490  12.622   9.709  10.257 -0.6352  1.6039 -0.3609
36508SOL     OW18491   2.939   0.182   3.289 -0.0845  0.4397 -0.0291
36508SOL    HW118492   2.953   0.198   3.196  0.0669  0.2563 -0.0371
36508SOL    HW218493   2.997   0.109   3.310 -0.3276  0.2990  0.1476
36509SOL     OW18494   0.159   1.529   5.619  0.1244  0.2552  0.7626
36509SOL    HW118495   0.118   1.528   5.706 -0.2230 -1.1322  0.6135
36509SOL    HW218496   0.240   1.578   5.631 -1.4069  2.8496  1.1281
36510SOL     OW18497  10.559   7.145   9.357  0.3690 -0.0026 -0.0877
36510SOL    HW118498  10.475   7.104   9.377  0.8491 -0.4671  1.0562
36510SOL    HW218499  10.618   7.115   9.426  0.9672  1.9111  0.2977
36511SOL     OW18500   3.601   7.874   7.078 -0.2054 -0.2851  0.2654
36511SOL    HW118501   3.643   7.825   7.149 -0.4626  1.0479  1.3795
36511SOL    HW218502   3.563   7.950   7.121  0.6447  1.1890 -1.4882
36512SOL     OW18503   0.511   5.209  12.157 -0.7400 -0.9016  0.1579
36512SOL    HW118504   0.590   5.262  12.168  0.6026 -3.0311  1.7097
36512SOL    HW218505   0.450   5.242  12.224  0.9053 -2.5697  2.6595
36513SOL     OW18506   8.381   6.177   0.457 -0.0050 -0.0599  0.0788
36513SOL    HW118507   8.409   6.170   0.549  1.1707 -0.3165 -0.2808
36513SOL    HW218508   8.320   6.104   0.446 -0.1443 -0.0389  0.6498
36514SOL     OW18509  10.606  11.359  12.154 -0.5711 -0.2489 -0.5374
36514SOL    HW118510  10.570  11.312  12.230 -0.6024  0.6004 -0.0135
36514SOL    HW218511  10.634  11.443  12.190  1.0382 -0.4930 -1.1164
36515SOL     OW18512   8.731   2.239   9.811  0.5396 -0.3842 -0.3303
36515SOL    HW118513   8.649   2.266   9.769  1.1120  1.7245 -0.2109
36515SOL    HW218514   8.798   2.249   9.743  0.7348 -2.3091 -0.4972
36516SOL     OW18515  11.606   4.438   8.284  0.1174  0.1194 -0.7871
36516SOL    HW118516  11.537   4.479   8.231 -2.1928 -0.9551  1.2048
36516SOL    HW218517  11.563   4.362   8.324  2.1759  0.0141  1.4085
36517SOL     OW18518   0.832   7.425   2.127 -0.2120  0.4881  0.0640
36517SOL    HW118519   0.776   7.456   2.198 -0.0527 -0.3881  0.5847
36517SOL    HW218520   0.800   7.336   2.108  0.7732  0.1033  0.1327
36518SOL     OW18521   4.921   8.044   5.782 -0.2123  0.2772  0.0376
36518SOL    HW118522   4.850   8.069   5.724 -1.1559  0.5630  1.2650
36518SOL    HW218523   4.972   8.124   5.795  0.9077 -0.1403 -1.5694
36519SOL     OW18524   0.133   3.513   2.356 -0.2572  0.9228 -0.0268
36519SOL    HW118525   0.048   3.526   2.396  0.2918  0.9526  1.1655
36519SOL    HW218526   0.136   3.419   2.336  1.1362 -0.1274  4.1581
36520SOL     OW18527   9.114   3.220  11.441 -0.2202  0.0980  0.1477
36520SOL    HW118528   9.198   3.183  11.466 -0.8954 -0.2923  1.9659
36520SOL    HW218529   9.058   3.145  11.423  0.1216  0.3447 -2.4262
36521SOL     OW18530   4.529   8.014   1.310  0.5933 -0.2457 -0.0274
36521SOL    HW118531   4.579   7.972   1.380 -0.9368 -1.3544  0.4400
36521SOL    HW218532   4.482   8.085   1.354 -1.0047 -1.4451  0.2982
36522SOL     OW18533   3.358  12.230   1.493  0.1827 -0.1367  0.8131
36522SOL    HW118534   3.399  12.301   1.542 -0.1873  0.4128  0.3492
36522SOL    HW218535   3.423  12.207   1.426 -0.3338  0.9092 -0.0852
36523SOL     OW18536   2.081   4.244   7.177  0.1893 -0.2103  0.0037
36523SOL    HW118537   2.048   4.190   7.105  2.4345 -1.0915 -0.4576
36523SOL    HW218538   2.050   4.332   7.157 -1.3604 -0.8596 -0.6368
36524SOL     OW18539   4.783  11.204   4.470  0.2603 -0.6549  0.4730
36524SOL    HW118540   4.829  11.277   4.428 -0.2192  0.1617  1.3056
36524SOL    HW218541   4.785  11.226   4.563  0.3739 -1.8782  0.7702
36525SOL     OW18542   4.421   9.177   9.902  0.0723 -0.4546 -0.2931
36525SOL    HW118543   4.356   9.185   9.831 -1.3402 -1.3318  0.8513
36525SOL    HW218544   4.443   9.268   9.924 -1.2171 -0.1216 -0.3144
36526SOL     OW18545   5.960  12.180  10.803  0.4602 -0.2855 -0.2772
36526SOL    HW118546   5.912  12.099  10.818 -0.4485  0.0538 -1.1763
36526SOL    HW218547   5.963  12.188  10.707  2.2897 -0.2667 -0.2439
36527SOL     OW18548   2.669   1.289   2.104 -0.1981 -0.0528  0.4872
36527SOL    HW118549   2.744   1.332   2.063 -2.8085  2.6111 -2.0141
36527SOL    HW218550   2.705   1.210   2.144  3.9477  1.3142 -0.0848
36528SOL     OW18551   8.714   1.413   2.260 -0.1255 -0.1109 -0.0462
36528SOL    HW118552   8.780   1.421   2.329  0.2192 -1.5562 -0.1881
36528SOL    HW218553   8.761   1.434   2.179 -0.1217 -0.0141 -0.0189
36529SOL     OW18554   4.498  11.588   5.060  0.1720 -0.6595  0.1804
36529SOL    HW118555   4.411  11.606   5.025  0.5879 -0.2482 -0.6754
36529SOL    HW218556   4.495  11.498   5.090 -0.3357 -0.8757 -0.5118
36530SOL     OW18557   6.838   6.024  12.266 -0.3152 -0.0937 -0.2796
36530SOL    HW118558   6.882   6.060  12.343 -0.9350 -0.1016  0.0819
36530SOL    HW218559   6.880   5.939  12.253  0.0373  0.0586 -0.1664
36531SOL     OW18560   0.979   9.720   6.619  0.3268  0.1683 -0.3492
36531SOL    HW118561   1.015   9.657   6.681  0.8727  1.2301  0.4434
36531SOL    HW218562   1.036   9.713   6.542 -0.3615 -1.1563 -0.7659
36532SOL     OW18563   3.893   2.659   9.799  0.1352  0.2718 -0.5301
36532SOL    HW118564   3.847   2.682   9.880  0.3691 -0.0367 -0.3036
36532SOL    HW218565   3.982   2.639   9.828  0.1383 -0.1446 -0.8258
36533SOL     OW18566  10.144   4.295  11.265  0.6357  0.0968  0.2823
36533SOL    HW118567  10.202   4.293  11.189  0.6696  0.7147  0.2909
36533SOL    HW218568  10.057   4.277  11.229  0.8915 -1.3503  0.3396
36534SOL     OW18569   4.688   9.357   7.980 -0.2303  0.1591 -0.1307
36534SOL    HW118570   4.635   9.280   7.958 -0.3490  0.0053  0.6425
36534SOL    HW218571   4.756   9.323   8.039 -0.1301  0.6001  0.0124
36535SOL     OW18572   6.335  12.351  10.791 -0.0813  0.0426 -0.1828
36535SOL    HW118573   6.422  12.311  10.791 -0.1767 -0.2298  1.2005
36535SOL    HW218574   6.283  12.296  10.850 -0.6998  1.2012  0.3984
36536SOL     OW18575  11.100   1.953   2.491  0.0645  0.3641 -0.0895
36536SOL    HW118576  11.029   2.014   2.510 -1.7329 -1.0182 -2.0527
36536SOL    HW218577  11.120   1.914   2.576 -0.4971  1.7958  0.7473
36537SOL     OW18578   0.562   3.127   2.755 -0.4245  0.2056 -0.4071
36537SOL    HW118579   0.642   3.137   2.806 -1.8870  1.6530  1.8330
36537SOL    HW218580   0.562   3.202   2.695 -1.4488  2.0696  1.7566
36538SOL     OW18581  10.627  12.025   1.344  0.5188 -0.4521  0.0942
36538SOL    HW118582  10.609  12.119   1.344  1.4095 -0.1648 -2.8574
36538SOL    HW218583  10.600  11.995   1.431 -1.0792  2.2641  0.6517
36539SOL     OW18584   8.957   4.224   5.625 -0.3098  0.1142  0.0745
36539SOL    HW118585   8.938   4.169   5.700  0.0313  1.7697  1.4440
36539SOL    HW218586   8.933   4.312   5.653  0.7353  0.9279 -1.4143
36540SOL     OW18587   4.323   4.965   5.506  0.0999 -0.0842 -0.5986
36540SOL    HW118588   4.351   4.983   5.416  1.4521 -1.2988 -0.4547
36540SOL    HW218589   4.403   4.938   5.551 -0.7027 -0.2545  0.7722
36541SOL     OW18590  10.940  10.123   0.868 -0.6797 -0.2788 -0.3824
36541SOL    HW118591  11.027  10.152   0.842 -0.2317 -0.5069  0.7891
36541SOL    HW218592  10.948  10.029   0.881 -1.0421 -0.2652 -0.0313
36542SOL     OW18593   1.796   3.569   5.958  0.2425 -0.1833  0.0506
36542SOL    HW118594   1.739   3.526   6.021  1.9012 -1.5383  0.7153
36542SOL    HW218595   1.741   3.635   5.917 -1.3030 -0.2742  1.8438
36543SOL     OW18596   6.361   3.400  12.089 -0.9159 -0.4327 -0.2468
36543SOL    HW118597   6.352   3.350  12.170 -1.3326 -0.7304 -0.4692
36543SOL    HW218598   6.295   3.362  12.030 -0.8951  0.0471 -0.5873
36544SOL     OW18599   0.561   1.626  11.409 -0.2162  0.2184  0.2932
36544SOL    HW118600   0.629   1.559  11.420  1.0134  1.6298  1.9090
36544SOL    HW218601   0.487   1.579  11.372  1.7201 -1.3362 -1.9263
36545SOL     OW18602   9.273   1.476   7.254 -0.2884  0.4596 -0.0890
36545SOL    HW118603   9.207   1.546   7.255 -0.2203  0.5262 -0.2329
36545SOL    HW218604   9.322   1.488   7.335 -0.4473  0.4164  0.0141
36546SOL     OW18605   3.940   8.648   7.785  0.2707 -0.3547 -0.3524
36546SOL    HW118606   3.941   8.554   7.798 -0.1054 -0.2283  0.6859
36546SOL    HW218607   3.948   8.685   7.873 -0.3265  0.5789 -0.6716
36547SOL     OW18608   5.891   7.951   1.283 -0.0169 -0.1058 -0.2037
36547SOL    HW118609   5.915   8.041   1.308 -0.3799 -0.1335  0.2613
36547SOL    HW218610   5.902   7.901   1.364  0.3352 -0.5141 -0.5004
36548SOL     OW18611   7.149   0.137   2.440  0.1202  0.0720 -0.0993
36548SOL    HW118612   7.140   0.196   2.365 -0.5241  0.0108 -0.0780
36548SOL    HW218613   7.059   0.122   2.469  0.2311 -1.2819 -0.3812
36549SOL     OW18614   3.702   3.500   1.758 -0.0935 -0.2622 -0.8672
36549SOL    HW118615   3.721   3.585   1.719  0.2319  0.0002 -0.1483
36549SOL    HW218616   3.671   3.520   1.847 -0.7323 -0.8528 -0.9431
36550SOL     OW18617   3.024   0.859   7.705  0.4880  0.2524  0.2573
36550SOL    HW118618   3.009   0.907   7.624 -0.6674  0.0108  0.3092
36550SOL    HW218619   2.943   0.870   7.755  0.3891 -1.3128  0.4852
36551SOL     OW18620  10.231   4.557   3.106  0.1283 -0.2182 -0.0274
36551SOL    HW118621  10.223   4.481   3.164 -2.1805 -1.0635 -1.3067
36551SOL    HW218622  10.223   4.633   3.164 -2.7258 -1.0313  0.8300
36552SOL     OW18623  10.352  11.086   8.129  0.1868  1.0954 -0.3063
36552SOL    HW118624  10.447  11.100   8.133  0.3243  0.0680  0.2263
36552SOL    HW218625  10.316  11.158   8.182  0.7648  0.6417  0.7473
36553SOL     OW18626   7.350   1.889   7.463 -0.0437  0.6961  0.9982
36553SOL    HW118627   7.410   1.962   7.481  0.5172  0.1678  1.2970
36553SOL    HW218628   7.350   1.881   7.368 -0.7558  1.6120  0.8980
36554SOL     OW18629   0.847  11.418   5.470 -0.4069 -0.0591  0.2824
36554SOL    HW118630   0.752  11.415   5.465 -0.4979  2.0211 -0.1290
36554SOL    HW218631   0.865  11.492   5.529  0.9288  0.4156 -0.6685
36555SOL     OW18632   2.561   1.438  10.912  0.2361 -0.6683 -0.0733
36555SOL    HW118633   2.595   1.492  10.840  1.4052 -0.7402  0.3962
36555SOL    HW218634   2.636   1.385  10.939 -0.2401 -0.7908  1.0567
36556SOL     OW18635   5.753   8.676   3.289  0.5314  0.7819 -0.6019
36556SOL    HW118636   5.749   8.769   3.309  0.5473  0.7358 -0.3898
36556SOL    HW218637   5.696   8.666   3.213  1.3344  1.1482 -1.2766
36557SOL     OW18638   0.456   0.876   9.563 -0.2346  0.1573  0.0756
36557SOL    HW118639   0.445   0.934   9.488 -0.5328  1.9683  1.4391
36557SOL    HW218640   0.375   0.886   9.613  0.8799  0.9016  1.8538
36558SOL     OW18641  12.335   4.998   9.939 -0.4969 -0.1886  0.0639
36558SOL    HW118642  12.410   5.051   9.911 -1.5706  0.9507 -0.7676
36558SOL    HW218643  12.289   5.054  10.002 -1.7224 -0.0474 -0.9309
36559SOL     OW18644  10.958   5.924   6.642 -0.2419  0.0823  0.3149
36559SOL    HW118645  10.866   5.933   6.667 -0.9358  1.4718 -2.3298
36559SOL    HW218646  10.984   6.011   6.611  1.3356 -0.7311 -0.8388
36560SOL     OW18647  10.865   6.717   0.286 -0.6423 -0.7978  0.4770
36560SOL    HW118648  10.876   6.734   0.192  0.9359 -2.6670  0.2398
36560SOL    HW218649  10.794   6.652   0.290 -0.3855 -1.0753  0.5309
36561SOL     OW18650   0.179   1.698  10.321  0.3028  0.4147  0.3895
36561SOL    HW118651   0.130   1.745  10.254 -0.0789 -1.8264 -0.9591
36561SOL    HW218652   0.160   1.606  10.307  0.1122 -0.1913  3.6609
36562SOL     OW18653   7.272   6.233   4.870 -0.6788 -0.3883 -0.1164
36562SOL    HW118654   7.320   6.207   4.791  1.0769  0.8045  0.5029
36562SOL    HW218655   7.263   6.152   4.920  2.7229 -0.3881  0.7438
36563SOL     OW18656   1.068   2.429   9.085 -0.5158 -0.7548 -0.5315
36563SOL    HW118657   1.141   2.488   9.065 -0.0936 -1.0234  0.1711
36563SOL    HW218658   0.999   2.486   9.118 -0.2444 -0.6064 -0.2084
36564SOL     OW18659   7.723   7.533   0.482 -0.0544  0.1466 -0.3340
36564SOL    HW118660   7.779   7.528   0.405  0.6096  0.9127  0.0798
36564SOL    HW218661   7.767   7.596   0.540 -0.1774 -0.8992  0.9546
36565SOL     OW18662   2.430   1.652   3.041 -0.1720  0.2247 -0.4797
36565SOL    HW118663   2.388   1.609   3.116  0.7640  1.0965  0.5800
36565SOL    HW218664   2.358   1.676   2.983 -1.1105  1.2375  1.0565
36566SOL     OW18665   7.933  10.998   4.574 -0.2080 -0.4420  0.2717
36566SOL    HW118666   7.985  11.028   4.649  0.4391 -1.9419  0.4516
36566SOL    HW218667   7.921  10.904   4.589  1.0531 -1.0714 -2.1440
36567SOL     OW18668  10.238   6.526   3.547  0.1789 -0.0431 -0.0165
36567SOL    HW118669  10.324   6.565   3.534 -0.8392  1.6732 -2.4714
36567SOL    HW218670  10.200   6.574   3.621  1.1237 -0.4774  0.7632
36568SOL     OW18671   8.611   6.519   2.605 -0.0709  0.4125 -0.2726
36568SOL    HW118672   8.638   6.500   2.515 -0.3060  0.8413 -0.4370
36568SOL    HW218673   8.627   6.613   2.616  2.4360 -0.0832  1.0049
36569SOL     OW18674  12.132   3.639   8.035 -0.4228  0.0183  0.6357
36569SOL    HW118675  12.172   3.553   8.025 -0.1619  0.0291  1.4903
36569SOL    HW218676  12.186   3.697   7.982  0.0424 -0.1588  0.9075
36570SOL     OW18677  11.699  11.912   3.631  0.5133  0.6493 -0.1449
36570SOL    HW118678  11.737  11.915   3.543 -2.0200 -0.8993 -1.3942
36570SOL    HW218679  11.728  11.828   3.667  0.0798  0.4689 -0.2173
36571SOL     OW18680  11.677   2.812   0.905 -0.0342  0.1460  0.0175
36571SOL    HW118681  11.683   2.734   0.850  0.2493  0.3711 -0.2708
36571SOL    HW218682  11.594   2.853   0.878  0.9746  1.2492 -1.5745
36572SOL     OW18683   9.033   5.927   1.415  0.0848  0.2497 -0.3078
36572SOL    HW118684   9.064   5.878   1.339  1.2802  1.0645 -0.3740
36572SOL    HW218685   9.035   6.019   1.386 -1.0366  0.4375  0.1700
36573SOL     OW18686   1.294   4.812   0.218  0.3164  0.0223 -0.2848
36573SOL    HW118687   1.200   4.801   0.205  0.2002 -0.1879  0.6345
36573SOL    HW218688   1.334   4.765   0.145 -0.2906  0.8772 -1.1931
36574SOL     OW18689  10.315   6.079  11.105 -0.1161 -0.2147 -0.1022
36574SOL    HW118690  10.303   6.108  11.196  1.1643  0.0460  0.0055
36574SOL    HW218691  10.289   6.154  11.052  0.4959  0.1377  0.0936
36575SOL     OW18692   7.833   0.348   7.718  0.3394 -0.1323 -1.0822
36575SOL    HW118693   7.867   0.337   7.807  0.0127 -2.4490 -1.1646
36575SOL    HW218694   7.907   0.329   7.661  0.0581 -0.6464 -1.2841
36576SOL     OW18695   4.514  10.272   3.762 -0.2799  0.1650  0.0250
36576SOL    HW118696   4.455  10.221   3.818  0.0289  0.4946  0.6585
36576SOL    HW218697   4.487  10.363   3.776 -0.2636  0.2442 -0.4419
36577SOL     OW18698   6.588  10.241   3.142 -0.3707 -0.5810 -0.3525
36577SOL    HW118699   6.552  10.176   3.082 -2.1722 -0.8249  0.8780
36577SOL    HW218700   6.548  10.324   3.114  0.0193 -0.4201 -0.4390
36578SOL     OW18701   3.076   1.591   7.443 -0.2690  0.2524 -0.0563
36578SOL    HW118702   3.024   1.669   7.424 -3.9650 -1.7077  0.9041
36578SOL    HW218703   3.114   1.566   7.359 -2.3744  0.8908 -1.2820
36579SOL     OW18704   8.206  10.505  12.205 -0.5234  0.1954  0.1062
36579SOL    HW118705   8.239  10.585  12.164  2.2266 -0.3311  1.0806
36579SOL    HW218706   8.117  10.526  12.232  0.1541  2.9880  0.4209
36580SOL     OW18707   0.281   4.124  10.531  0.6428  0.5776  0.4780
36580SOL    HW118708   0.193   4.091  10.551  0.2064  2.0512  1.1131
36580SOL    HW218709   0.267   4.215  10.505  1.6344 -0.0708 -2.7870
36581SOL     OW18710   6.917   5.190   3.729 -0.8533 -0.0647 -0.2927
36581SOL    HW118711   6.829   5.209   3.760 -0.2309  3.4458 -0.3330
36581SOL    HW218712   6.906   5.177   3.634 -1.4615 -1.1619 -0.0963
36582SOL     OW18713   0.073   9.358   4.253  0.2547 -0.3220  0.4244
36582SOL    HW118714   0.068   9.453   4.251  0.8757 -0.2801 -1.2894
36582SOL    HW218715   0.112   9.337   4.338 -1.0572  0.8614  1.3576
36583SOL     OW18716   7.541   5.450   3.927 -0.1918  0.1791  0.2533
36583SOL    HW118717   7.473   5.482   3.868  0.9348  1.4374 -0.4154
36583SOL    HW218718   7.570   5.368   3.886 -1.7037 -0.7282  0.8974
36584SOL     OW18719   9.650   3.947  11.626  0.0684  0.3979  0.5423
36584SOL    HW118720   9.555   3.937  11.631  0.1179 -0.3037  0.1483
36584SOL    HW218721   9.678   3.886  11.558  0.7826  0.7379  0.5156
36585SOL     OW18722  11.187   6.418   3.842  0.2874  0.3965  0.0371
36585SOL    HW118723  11.125   6.375   3.784 -1.4923  1.8939  0.7481
36585SOL    HW218724  11.253   6.455   3.783  1.7685 -2.9269 -0.6153
36586SOL     OW18725   7.800   6.846   8.167  0.4728 -0.1575 -0.4005
36586SOL    HW118726   7.870   6.911   8.159  0.3024  0.1578  0.4929
36586SOL    HW218727   7.845   6.761   8.162  0.8399  0.0385 -0.4658
36587SOL     OW18728   2.114  12.535   8.921  0.7212 -0.2834 -0.3790
36587SOL    HW118729   2.188  12.538   8.860  0.0069  0.6708 -1.2395
36587SOL    HW218730   2.094  12.627   8.939  1.1081 -0.5402  1.5655
36588SOL     OW18731  10.829   8.537   4.033 -0.4308 -0.2928  0.0106
36588SOL    HW118732  10.868   8.540   4.120  0.7910 -1.3562 -0.4697
36588SOL    HW218733  10.738   8.511   4.049  0.0324 -1.4551  0.9204
36589SOL     OW18734   0.828   2.318   0.226  0.4294 -0.4080 -0.1510
36589SOL    HW118735   0.890   2.253   0.194  1.5423  0.6044 -0.1074
36589SOL    HW218736   0.753   2.311   0.167  0.7067 -1.4288 -0.4002
36590SOL     OW18737   3.092  10.303   3.178  0.0730 -0.3039  0.0359
36590SOL    HW118738   3.093  10.296   3.274  1.3768  0.6144  0.1234
36590SOL    HW218739   3.104  10.213   3.147  2.1788 -0.3540  0.8141
36591SOL     OW18740   5.299   3.157   1.123  0.5940 -0.3708  0.0884
36591SOL    HW118741   5.344   3.240   1.105 -1.1818  0.6433  0.1034
36591SOL    HW218742   5.233   3.151   1.054 -0.0462 -1.2036  0.7656
36592SOL     OW18743   9.925   2.309   1.427 -0.3726  0.7850  0.3067
36592SOL    HW118744   9.959   2.268   1.507 -1.9832  1.8495  1.6149
36592SOL    HW218745   9.834   2.279   1.422  0.0936 -0.4026 -1.9697
36593SOL     OW18746   9.646  12.004  11.330  0.3062 -0.3692  0.5581
36593SOL    HW118747   9.657  11.943  11.257 -0.6200 -1.1083  1.0081
36593SOL    HW218748   9.566  11.974  11.374  0.9346 -0.0344  1.9706
36594SOL     OW18749  11.770   5.246   3.859 -0.4679 -0.1351  0.0349
36594SOL    HW118750  11.776   5.332   3.818  0.3541 -0.0211  0.3901
36594SOL    HW218751  11.798   5.260   3.950  1.6546 -1.1379 -0.4047
36595SOL     OW18752   9.055   1.887   2.308  0.5109  0.1441 -0.6332
36595SOL    HW118753   8.992   1.816   2.321  0.3999  0.4416  0.5933
36595SOL    HW218754   9.003   1.958   2.270  0.2636  0.1202 -0.3478
36596SOL     OW18755   0.151   6.635   5.305  0.2861  0.7241  0.0363
36596SOL    HW118756   0.231   6.598   5.267  0.2620  0.3963  0.2948
36596SOL    HW218757   0.131   6.711   5.252 -1.2301 -1.1755 -2.3347
36597SOL     OW18758   2.784  11.724   5.331 -0.5479 -0.1655  0.1156
36597SOL    HW118759   2.797  11.653   5.268  1.2469 -0.0481  0.3210
36597SOL    HW218760   2.782  11.680   5.416  1.2335  0.0356  0.3044
36598SOL     OW18761   1.872   8.579   6.841 -0.1732  0.0886  0.7026
36598SOL    HW118762   1.812   8.651   6.862  0.3526  0.6103  0.4498
36598SOL    HW218763   1.818   8.517   6.792 -0.4676  0.6385  0.3156
36599SOL     OW18764  11.814   1.585   7.961 -0.1869 -0.3299 -0.1616
36599SOL    HW118765  11.860   1.537   7.893  0.9347 -0.4791  0.6715
36599SOL    HW218766  11.876   1.588   8.035 -0.9838  0.6674  0.5014
36600SOL     OW18767   0.435   9.134   1.044 -0.0400 -0.4243  0.3410
36600SOL    HW118768   0.499   9.100   0.981 -0.0611  0.0142  0.0795
36600SOL    HW218769   0.463   9.224   1.060 -1.2601  0.1511 -0.6649
36601SOL     OW18770   8.578   0.720   1.520 -1.0891  0.3221 -0.3116
36601SOL    HW118771   8.621   0.779   1.583  2.1014 -1.1300 -0.9100
36601SOL    HW218772   8.651   0.676   1.476 -3.2730 -1.2125 -2.6443
36602SOL     OW18773   0.393   3.311   8.871 -0.3544 -0.3275 -0.4098
36602SOL    HW118774   0.459   3.245   8.848 -1.5489 -1.8699  0.4041
36602SOL    HW218775   0.413   3.334   8.962 -0.8524 -0.7172 -0.1971
36603SOL     OW18776  11.948  11.517   7.734  0.3827 -0.0463 -0.5572
36603SOL    HW118777  11.948  11.537   7.641 -3.0690  1.1544 -0.4589
36603SOL    HW218778  12.023  11.565   7.769  0.7440  0.8773 -2.4652
36604SOL     OW18779   8.824   5.736   3.754 -0.5966 -0.0682 -0.3227
36604SOL    HW118780   8.794   5.825   3.736 -1.8951 -0.7700 -1.8798
36604SOL    HW218781   8.881   5.715   3.679  1.6334  0.2347  1.1917
36605SOL     OW18782   0.525   9.413   3.259 -0.5821 -0.1620 -0.1082
36605SOL    HW118783   0.483   9.482   3.208 -0.0336 -0.2588 -0.6986
36605SOL    HW218784   0.452   9.360   3.293 -1.2797  2.5413  3.1314
36606SOL     OW18785   9.982   6.203   2.301 -0.2909 -0.2953 -0.9972
36606SOL    HW118786   9.928   6.161   2.234  1.2760 -1.6696 -1.4559
36606SOL    HW218787  10.042   6.134   2.330  0.9452  1.0658 -0.2019
36607SOL     OW18788   9.065   5.860   3.381 -0.1807 -0.2510 -0.0770
36607SOL    HW118789   9.075   5.953   3.360 -0.9709 -0.0536  0.4022
36607SOL    HW218790   8.971   5.845   3.383 -0.1776 -0.4358  2.4193
36608SOL     OW18791  12.360   8.071  10.722  0.8291 -0.0126 -0.3769
36608SOL    HW118792  12.338   8.103  10.634 -1.6684 -1.1221 -0.2444
36608SOL    HW218793  12.348   8.148  10.778 -1.3150 -0.1417 -0.5661
36609SOL     OW18794   5.425   9.433  11.250 -0.3210  0.2444  0.5280
36609SOL    HW118795   5.417   9.355  11.306 -1.3084  1.3645  2.0324
36609SOL    HW218796   5.386   9.503  11.301  0.9358  1.8520 -0.5987
36610SOL     OW18797   8.359   2.385   4.135 -0.0927  0.2518  0.1815
36610SOL    HW118798   8.397   2.463   4.096 -0.1989  0.0870 -0.2605
36610SOL    HW218799   8.268   2.409   4.152  0.0536  0.4555  0.7085
36611SOL     OW18800  10.877   4.641   0.089 -0.2898  0.0886 -0.6316
36611SOL    HW118801  10.895   4.551   0.118 -1.6127  0.3441  1.2188
36611SOL    HW218802  10.788   4.637   0.054 -1.7194  1.1856  2.4919
36612SOL     OW18803   6.381  11.443   0.802  0.4932 -0.6685 -0.3281
36612SOL    HW118804   6.408  11.355   0.777 -0.6924 -1.1903  0.1498
36612SOL    HW218805   6.353  11.484   0.721  1.1258 -0.6941 -0.5648
36613SOL     OW18806   2.026   0.713   0.276 -0.3360  0.2457  0.0026
36613SOL    HW118807   2.008   0.734   0.184 -0.2124 -0.4015 -0.1758
36613SOL    HW218808   2.007   0.619   0.283  1.2076 -0.0779  0.2272
36614SOL     OW18809   0.132   8.006   9.067 -0.3592  0.5677 -0.4374
36614SOL    HW118810   0.195   8.078   9.056  2.5304 -2.0007 -2.7205
36614SOL    HW218811   0.184   7.934   9.104 -2.5775 -1.0259 -0.2229
36615SOL     OW18812  10.156   4.907   5.808 -0.8391  0.1673 -0.1170
36615SOL    HW118813  10.158   5.003   5.799 -2.1328  0.4907  2.3788
36615SOL    HW218814  10.201   4.890   5.891 -0.4210 -1.4473 -0.6444
36616SOL     OW18815   5.443   6.880   0.760 -0.4086  0.0740 -0.1506
36616SOL    HW118816   5.393   6.957   0.787  0.1532  0.0065  1.1460
36616SOL    HW218817   5.431   6.818   0.831 -0.9149 -1.0921 -1.2172
36617SOL     OW18818   6.715   2.043   5.575  0.1525 -0.0243 -0.1829
36617SOL    HW118819   6.778   1.976   5.546  0.9302  1.3779 -1.9131
36617SOL    HW218820   6.765   2.099   5.634 -0.5147 -0.9142  1.3044
36618SOL     OW18821   5.274   7.878  11.471  0.5939 -0.1470 -0.2239
36618SOL    HW118822   5.246   7.787  11.482 -1.9789  0.6699  0.5267
36618SOL    HW218823   5.309   7.881  11.381 -1.1148 -1.4526 -0.9971
36619SOL     OW18824   5.771  12.343   0.186  0.9249 -0.1610 -0.4486
36619SOL    HW118825   5.759  12.350   0.281  0.4510 -1.3304 -0.4003
36619SOL    HW218826   5.821  12.262   0.175 -1.6450 -1.7528 -1.3349
36620SOL     OW18827   9.318  12.376  12.197 -0.2687 -0.7289 -0.1310
36620SOL    HW118828   9.310  12.289  12.236 -0.8926 -1.7590 -2.3899
36620SOL    HW218829   9.242  12.385  12.140  0.7956  0.4490 -1.4719
36621SOL     OW18830   1.298   2.793   4.210 -0.0743  0.4104  0.0106
36621SOL    HW118831   1.225   2.746   4.170 -0.0675  0.5175 -0.1306
36621SOL    HW218832   1.369   2.784   4.146  0.0661  0.2245  0.1903
36622SOL     OW18833   7.229   2.127  10.524  0.0589 -0.5132  0.0113
36622SOL    HW118834   7.265   2.155  10.439  0.3519  1.8852  0.8258
36622SOL    HW218835   7.249   2.034  10.529  2.2233 -0.2255 -1.5273
36623SOL     OW18836   0.814   7.124   1.813 -0.2107  0.5559  0.2627
36623SOL    HW118837   0.767   7.149   1.893 -0.9102  1.4647 -0.4159
36623SOL    HW218838   0.769   7.046   1.782 -0.1772  0.4230  0.5447
36624SOL     OW18839   6.762   1.477   6.424  0.2552 -0.9446  0.2762
36624SOL    HW118840   6.843   1.524   6.442  0.1761 -1.1595  1.2557
36624SOL    HW218841   6.697   1.546   6.409  0.4362 -0.7618  0.3265
36625SOL     OW18842  10.351   3.518   9.726  0.1117 -0.4438 -0.2919
36625SOL    HW118843  10.266   3.517   9.769  0.7669  0.1418  1.0977
36625SOL    HW218844  10.412   3.486   9.792  1.4241  2.1637 -0.0841
36626SOL     OW18845   7.944   9.265   8.041 -0.0418 -0.0403 -0.1806
36626SOL    HW118846   8.038   9.250   8.046  0.4997  2.7362 -0.5270
36626SOL    HW218847   7.911   9.235   8.126  1.7661  2.2942  1.4760
36627SOL     OW18848   1.209   3.073   9.623  0.2628  0.2685 -0.2122
36627SOL    HW118849   1.262   3.143   9.660 -0.0777  0.0798  0.6673
36627SOL    HW218850   1.271   3.004   9.600  0.5295  0.5920 -0.4676
36628SOL     OW18851   0.292   4.255  11.691  0.4716  0.3203 -0.0284
36628SOL    HW118852   0.279   4.307  11.612  0.4829 -0.4034 -0.5201
36628SOL    HW218853   0.287   4.318  11.763  1.1224  1.0858 -0.6418
36629SOL     OW18854  12.506  10.724   6.530 -0.3594 -0.1018  0.2906
36629SOL    HW118855  12.416  10.735   6.497 -0.5495 -0.3530  0.7277
36629SOL    HW218856  12.554  10.689   6.455 -0.4266  0.8291 -0.2132
36630SOL     OW18857   2.819   0.730   6.564  0.0237 -0.7358  0.1187
36630SOL    HW118858   2.862   0.647   6.544  1.1500 -0.6587  1.9186
36630SOL    HW218859   2.851   0.752   6.652 -1.3345  0.9102  0.2429
36631SOL     OW18860   8.401  11.658   8.277  1.0769 -0.0560  0.3622
36631SOL    HW118861   8.425  11.651   8.185  0.3046  0.1905  0.1356
36631SOL    HW218862   8.456  11.593   8.321 -0.5807 -2.3057 -0.6462
36632SOL     OW18863  10.054  10.082   5.422  0.1136 -0.0808  0.2973
36632SOL    HW118864   9.964  10.057   5.403 -0.4796  2.4856 -0.6449
36632SOL    HW218865  10.079  10.138   5.349  2.7883 -1.3030  0.1346
36633SOL     OW18866  10.953   7.817  11.565 -0.2575  0.5885 -0.3818
36633SOL    HW118867  10.926   7.765  11.641 -1.2646  0.3194 -0.9070
36633SOL    HW218868  10.950   7.908  11.594  0.6119  0.4198  0.2698
36634SOL     OW18869  12.111   5.823  10.002 -0.0931 -0.0452 -0.4312
36634SOL    HW118870  12.113   5.881   9.926 -2.2390  0.5277 -0.1283
36634SOL    HW218871  12.048   5.864  10.062 -0.0764 -1.5963  0.7195
36635SOL     OW18872   3.503   8.194   1.911 -0.2493 -0.0697 -0.1509
36635SOL    HW118873   3.525   8.286   1.893  2.5327 -0.3180  1.3910
36635SOL    HW218874   3.540   8.178   1.998 -1.8454 -2.3247  0.1879
36636SOL     OW18875   2.841   8.722   1.688 -0.0928  0.2941 -0.2359
36636SOL    HW118876   2.878   8.663   1.753  1.1299  1.0610 -0.2070
36636SOL    HW218877   2.889   8.804   1.699 -0.3256  0.6556 -1.6464
36637SOL     OW18878   9.098  11.583  11.853  0.2861 -0.8794 -0.3119
36637SOL    HW118879   9.171  11.615  11.800  1.2501 -0.3128  1.2856
36637SOL    HW218880   9.048  11.526  11.794  1.3966 -0.4159 -1.7508
36638SOL     OW18881   4.999   7.562   5.114 -0.3220  0.1284  0.5268
36638SOL    HW118882   5.026   7.530   5.028  0.2443  0.7670  0.4553
36638SOL    HW218883   4.994   7.484   5.168 -1.1314 -0.3407 -0.1956
36639SOL     OW18884   0.756   7.698   3.132  0.1570  0.1192  0.0791
36639SOL    HW118885   0.744   7.628   3.069  0.3334 -0.6399  0.8625
36639SOL    HW218886   0.844   7.685   3.166  0.1144  0.5963  0.3836
36640SOL     OW18887   3.495   0.905  12.311 -0.1113  0.0198 -0.8596
36640SOL    HW118888   3.477   0.841  12.380  0.4424  0.1149 -0.6191
36640SOL    HW218889   3.589   0.921  12.318 -0.4995  2.1892  0.2567
36641SOL     OW18890   4.142   8.818   9.711 -0.1171 -0.6612  0.0684
36641SOL    HW118891   4.123   8.899   9.664 -0.3210 -0.9826 -0.4229
36641SOL    HW218892   4.116   8.835   9.801  1.3248  0.3444  0.3081
36642SOL     OW18893   0.605   9.092  10.410  0.0836 -0.3315  0.1814
36642SOL    HW118894   0.655   9.015  10.437 -1.1258 -0.5779  1.9487
36642SOL    HW218895   0.662   9.166  10.429  0.9138 -0.7306 -0.6946
36643SOL     OW18896   7.736  10.172   0.653  0.3224 -0.0451 -0.4392
36643SOL    HW118897   7.750  10.266   0.660 -0.8773  0.1112  0.1345
36643SOL    HW218898   7.820  10.133   0.677  0.4153  0.8554  0.7555
36644SOL     OW18899   5.194   3.972   4.691  0.5583  0.0271 -0.0423
36644SOL    HW118900   5.287   3.950   4.694  0.7409  0.9338  1.6342
36644SOL    HW218901   5.160   3.948   4.777 -0.5903  0.4888 -0.3397
36645SOL     OW18902  10.720   0.608   2.751  0.1575  0.1278 -0.5436
36645SOL    HW118903  10.731   0.647   2.838 -0.6676 -0.5526 -0.1187
36645SOL    HW218904  10.769   0.666   2.692 -2.7596  3.1172 -0.2903
36646SOL     OW18905   7.929   5.688   2.155  0.0186 -0.6387  0.7717
36646SOL    HW118906   7.848   5.693   2.207 -0.4266 -3.3061  0.4654
36646SOL    HW218907   7.995   5.656   2.216  0.9791  1.7049  1.0675
36647SOL     OW18908   9.629   9.603   5.275 -0.6911 -0.4761 -0.0644
36647SOL    HW118909   9.643   9.613   5.181  0.0860 -2.3522 -0.1868
36647SOL    HW218910   9.539   9.573   5.283 -0.3158 -1.7429 -0.3540
36648SOL     OW18911   2.575   6.834   1.736 -0.2413 -0.1462  0.3223
36648SOL    HW118912   2.518   6.780   1.681 -0.7099  0.1881  0.4689
36648SOL    HW218913   2.516   6.901   1.772  0.4143  0.7964 -0.2875
36649SOL     OW18914   9.443   4.363   1.028  0.3277 -0.2653  0.1217
36649SOL    HW118915   9.363   4.403   0.992 -0.7321 -0.9261  1.6299
36649SOL    HW218916   9.450   4.279   0.982  1.0332  0.4316 -1.0948
36650SOL     OW18917   6.207   1.415   1.765  0.0897 -0.0882  0.2562
36650SOL    HW118918   6.278   1.476   1.786  0.5624 -0.5377  0.0065
36650SOL    HW218919   6.127   1.465   1.781  0.4627  0.5765  0.1186
36651SOL     OW18920   1.928  10.167  11.840  0.0743  0.1914 -0.2464
36651SOL    HW118921   1.998  10.233  11.842  1.5740 -1.3447  1.0261
36651SOL    HW218922   1.974  10.084  11.833 -1.5619 -0.9321  1.3770
36652SOL     OW18923   8.423   5.392  10.365 -0.1282 -0.4956 -0.1243
36652SOL    HW118924   8.389   5.467  10.316  0.0540 -0.8081 -0.7426
36652SOL    HW218925   8.369   5.389  10.445  0.1387  0.5374  0.1096
36653SOL     OW18926   5.436   3.381   8.819 -0.3301  0.5454 -0.5464
36653SOL    HW118927   5.485   3.427   8.887 -0.9153  0.8811 -0.3500
36653SOL    HW218928   5.431   3.445   8.747 -1.8503  1.1198  0.0296
36654SOL     OW18929  10.198   9.202   2.860  0.4204  0.3462  0.3272
36654SOL    HW118930  10.285   9.242   2.858 -0.5713  2.6857 -1.0416
36654SOL    HW218931  10.146   9.260   2.915 -0.9826  0.8215 -1.3825
36655SOL     OW18932  11.823   7.564   8.791 -0.3335  0.7527 -0.0379
36655SOL    HW118933  11.761   7.636   8.793 -0.3464  0.7514 -0.3246
36655SOL    HW218934  11.901   7.597   8.836 -0.0538  1.2130 -0.8290
36656SOL     OW18935   5.086   3.867  12.191 -0.5779 -0.1744 -0.9875
36656SOL    HW118936   5.034   3.903  12.263 -0.0824 -0.8073 -0.3026
36656SOL    HW218937   5.099   3.941  12.132 -1.3781  0.2426 -0.6648
36657SOL     OW18938   2.497   9.826  10.212  0.6774 -0.0538  0.4828
36657SOL    HW118939   2.571   9.823  10.152  0.2844 -4.1141 -0.0889
36657SOL    HW218940   2.423   9.852  10.158  0.8422 -0.7909 -0.1061
36658SOL     OW18941   7.764   6.403   3.515 -0.7523  0.5673  0.1610
36658SOL    HW118942   7.690   6.463   3.525 -1.1807  0.0418  0.1905
36658SOL    HW218943   7.839   6.460   3.497 -1.1672  1.1017  0.1023
36659SOL     OW18944   7.601   1.061   4.626 -0.2891  0.3387  0.0245
36659SOL    HW118945   7.530   1.095   4.679 -1.3243  0.2116 -1.2248
36659SOL    HW218946   7.642   0.994   4.680 -2.9273 -1.6432 -0.2481
36660SOL     OW18947   3.050  10.245   6.547 -0.5500 -0.1431  1.1118
36660SOL    HW118948   2.959  10.226   6.569 -0.5155 -0.0710  1.3117
36660SOL    HW218949   3.055  10.227   6.453 -0.4290 -1.4898  1.3631
36661SOL     OW18950   7.957   7.925   4.743 -0.3786 -0.1057  0.7062
36661SOL    HW118951   7.868   7.947   4.715 -1.0503 -0.4664  2.4238
36661SOL    HW218952   7.968   7.833   4.716  0.0069  0.3321 -0.7065
36662SOL     OW18953   6.676  10.371   9.435 -0.3927 -0.0682  0.5315
36662SOL    HW118954   6.735  10.321   9.491 -2.2523 -1.1183  1.6696
36662SOL    HW218955   6.655  10.311   9.363  0.4002  0.5355 -0.2205
36663SOL     OW18956   8.809   8.909  11.638 -0.2164  0.0121 -0.2260
36663SOL    HW118957   8.794   8.985  11.695 -0.9013 -0.4627  0.2387
36663SOL    HW218958   8.843   8.841  11.697  1.7453  0.3694 -0.8772
36664SOL     OW18959   8.700   0.028   7.024  0.3202  0.0871 -0.1318
36664SOL    HW118960   8.752  -0.052   7.036  0.4926  0.2854  0.4812
36664SOL    HW218961   8.738   0.069   6.946  0.0245 -0.5817 -0.6406
36665SOL     OW18962  12.090   3.837   3.099  0.1591  0.2243 -0.2819
36665SOL    HW118963  12.152   3.843   3.026 -0.7243  0.1602 -1.0539
36665SOL    HW218964  12.093   3.745   3.126  0.4666  0.2416 -0.2578
36666SOL     OW18965   3.548  11.453   0.631  0.1850 -0.0387  0.0389
36666SOL    HW118966   3.611  11.470   0.561  0.4075  0.6212  0.3808
36666SOL    HW218967   3.551  11.533   0.684 -0.3443 -0.3328  0.5151
36667SOL     OW18968   1.705   2.366   1.868  0.8047  0.4504 -0.0162
36667SOL    HW118969   1.656   2.334   1.944  0.1026  0.2690 -0.5398
36667SOL    HW218970   1.638   2.392   1.805  1.3759 -0.2212 -0.9256
36668SOL     OW18971   6.851   0.830   3.689 -0.1248  0.2581 -0.2314
36668SOL    HW118972   6.867   0.736   3.692 -0.3162  0.2329 -0.0039
36668SOL    HW218973   6.931   0.866   3.649 -0.9012 -0.1948 -2.3510
36669SOL     OW18974   4.664   6.085   1.552 -0.8070 -0.0040  0.0375
36669SOL    HW118975   4.620   6.069   1.636 -2.9831  0.8549 -0.8587
36669SOL    HW218976   4.609   6.042   1.487  1.8407 -2.3236 -0.8896
36670SOL     OW18977   6.067   2.426   7.547 -0.5688 -0.2954 -0.0869
36670SOL    HW118978   6.002   2.413   7.616 -2.9850  1.0210 -1.9635
36670SOL    HW218979   6.075   2.341   7.505 -1.3292 -0.3913 -0.0391
36671SOL     OW18980   5.880   2.612   2.651 -0.8488  0.4785 -0.8120
36671SOL    HW118981   5.893   2.525   2.612 -0.4143  1.2149 -2.4031
36671SOL    HW218982   5.814   2.598   2.719 -0.8249 -1.0885 -1.0705
36672SOL     OW18983   4.089   6.363   1.198  0.3935  0.5082 -0.3061
36672SOL    HW118984   4.144   6.433   1.233 -0.2391  1.1193 -0.5077
36672SOL    HW218985   4.107   6.363   1.104 -1.4268  2.1137 -0.7286
36673SOL     OW18986   9.824   4.152   0.365  0.8812 -0.0971  0.4247
36673SOL    HW118987   9.798   4.075   0.416  0.3124 -0.2453 -0.0685
36673SOL    HW218988   9.748   4.170   0.309  0.5111  1.5774  1.3978
36674SOL     OW18989   4.252   3.307   1.379 -0.3595 -0.3266 -0.5254
36674SOL    HW118990   4.188   3.302   1.449  0.2562  1.3187  0.1940
36674SOL    HW218991   4.330   3.262   1.413 -0.0036  0.6152 -0.0522
36675SOL     OW18992  10.982   4.722  10.152 -0.5993  0.2642  0.0163
36675SOL    HW118993  10.963   4.629  10.153 -1.9878  0.5319  1.1219
36675SOL    HW218994  10.901   4.764  10.182 -0.3356  1.8914 -1.4060
36676SOL     OW18995   4.611   2.079   7.148 -0.9576 -0.1918  0.2794
36676SOL    HW118996   4.552   2.078   7.073 -0.6369 -0.3727  0.0254
36676SOL    HW218997   4.697   2.061   7.111 -0.8631 -0.7485  0.7463
36677SOL     OW18998   7.024   5.136   7.599 -0.7207 -0.3238 -0.3842
36677SOL    HW118999   7.084   5.199   7.638 -0.9187  0.5289 -1.4139
36677SOL    HW219000   7.053   5.128   7.508 -1.5453 -0.6700 -0.6265
36678SOL     OW19001   9.037  10.824   8.530  0.2245  0.0161 -0.2481
36678SOL    HW119002   9.088  10.854   8.455  0.4089 -0.7288 -0.4304
36678SOL    HW219003   8.954  10.871   8.523 -0.1894 -0.8458 -1.5509
36679SOL     OW19004   7.902   1.631   8.453 -0.0526  0.2923  0.2434
36679SOL    HW119005   7.887   1.591   8.367  0.7566  0.1078  0.1790
36679SOL    HW219006   7.839   1.587   8.511 -1.2795  1.1078 -0.4300
36680SOL     OW19007   2.086  10.515   7.256 -0.4584  1.0441 -0.0618
36680SOL    HW119008   2.136  10.474   7.326 -0.8761 -0.1260 -0.4311
36680SOL    HW219009   1.995  10.504   7.281 -0.6602 -0.2134 -1.1851
36681SOL     OW19010  11.567  12.350   2.067 -0.0648  0.1694 -0.0051
36681SOL    HW119011  11.548  12.420   2.130 -0.6435 -0.6849  0.7973
36681SOL    HW219012  11.535  12.384   1.983  0.3888  1.1784  0.2159
36682SOL     OW19013  12.375  11.132   8.582  0.0395  0.3270  0.3332
36682SOL    HW119014  12.437  11.077   8.533 -1.0624 -0.3689 -0.3468
36682SOL    HW219015  12.425  11.164   8.657  0.6714 -1.8568  0.9358
36683SOL     OW19016   8.075   1.156   8.849 -0.9988 -0.0037  0.1634
36683SOL    HW119017   8.140   1.203   8.901 -1.4870 -2.1924  3.0627
36683SOL    HW219018   8.004   1.137   8.911 -2.1820 -1.8159 -1.6166
36684SOL     OW19019  10.555  11.722   8.182 -1.0187  0.0971 -0.3333
36684SOL    HW119020  10.619  11.749   8.116 -0.9947  1.7701  0.3257
36684SOL    HW219021  10.543  11.628   8.167  0.7047 -0.0201 -1.2296
36685SOL     OW19022   5.953   2.819  11.154  0.1334  0.2371 -0.2759
36685SOL    HW119023   5.944   2.910  11.183 -0.5127  0.4451 -1.0655
36685SOL    HW219024   5.970   2.770  11.234  0.0234  0.9951  0.2288
36686SOL     OW19025  11.786   4.647  11.048 -0.6749  0.6819 -0.3394
36686SOL    HW119026  11.864   4.672  10.998 -0.3365  1.2621  0.4686
36686SOL    HW219027  11.721   4.626  10.981  0.7226 -1.7232 -1.0781
36687SOL     OW19028   5.305   9.957   4.056 -0.7920 -0.2480 -0.2743
36687SOL    HW119029   5.390  10.000   4.047 -1.1864  0.6021  0.0282
36687SOL    HW219030   5.263   9.967   3.970  0.3605 -2.8012 -1.2438
36688SOL     OW19031  12.438   2.363   2.482 -0.0569  0.4221  0.3213
36688SOL    HW119032  12.415   2.298   2.415  2.2235 -0.9056  0.6961
36688SOL    HW219033  12.482   2.312   2.551  0.7762  2.2076  1.1911
36689SOL     OW19034   9.150   0.211   9.945 -0.3019 -0.0072 -0.3733
36689SOL    HW119035   9.196   0.253   9.872 -2.1028 -1.5923 -2.5589
36689SOL    HW219036   9.110   0.283   9.992  0.5496  1.0491 -1.1915
36690SOL     OW19037  11.195   4.937   2.342  0.0648 -0.0660  0.0005
36690SOL    HW119038  11.221   4.859   2.392 -1.6480 -0.4096  0.4195
36690SOL    HW219039  11.223   4.918   2.253 -1.3891 -1.7342 -0.1555
36691SOL     OW19040  11.175   7.318   4.212  0.2753 -0.1541  0.3386
36691SOL    HW119041  11.151   7.334   4.121  0.3148 -0.3774  0.2886
36691SOL    HW219042  11.234   7.243   4.209 -0.6524 -0.9104  0.6505
36692SOL     OW19043  11.643   2.998   6.273 -0.1570  1.0936  0.2407
36692SOL    HW119044  11.699   3.075   6.265  0.5335  0.6600  0.9075
36692SOL    HW219045  11.602   3.007   6.359  1.2906 -0.1801  1.0927
36693SOL     OW19046  11.714   5.444   6.349 -0.7362  1.0062 -1.0188
36693SOL    HW119047  11.741   5.376   6.288  0.8389 -0.6889  1.3862
36693SOL    HW219048  11.795   5.485   6.377 -1.0338 -0.0999  1.8415
36694SOL     OW19049   2.750   1.590   3.252 -0.0659  0.0711  0.0409
36694SOL    HW119050   2.795   1.551   3.327 -0.2923  0.5068  0.4070
36694SOL    HW219051   2.705   1.517   3.210  1.0213 -0.3820 -0.3589
36695SOL     OW19052   6.512   2.784   3.541 -0.4141 -0.3797 -0.3731
36695SOL    HW119053   6.547   2.855   3.489 -0.2682 -0.4198 -0.3297
36695SOL    HW219054   6.527   2.705   3.489  0.6063 -0.5453  0.1410
36696SOL     OW19055  10.553   6.350  11.239  0.0417 -0.6046 -0.1594
36696SOL    HW119056  10.573   6.262  11.207 -1.4062 -0.5751 -1.2391
36696SOL    HW219057  10.606   6.359  11.319 -0.2537 -2.6843  0.3251
36697SOL     OW19058   8.627   7.345   7.522  0.2388  0.4929  0.9099
36697SOL    HW119059   8.657   7.313   7.607  1.0136 -0.6529  0.2396
36697SOL    HW219060   8.575   7.273   7.487 -0.3882  1.1074  0.5690
36698SOL     OW19061   0.058  10.956   2.461 -0.1956 -0.3144  0.1419
36698SOL    HW119062  -0.033  10.937   2.438  0.2073 -2.6914  0.2046
36698SOL    HW219063   0.079  11.036   2.413 -1.5063 -1.2303 -2.1152
36699SOL     OW19064   4.687   8.831  10.277  0.0052 -0.3460  0.0103
36699SOL    HW119065   4.656   8.773  10.346 -1.6140 -0.1823 -0.5432
36699SOL    HW219066   4.742   8.776  10.221  0.7326 -0.6495  1.0068
36700SOL     OW19067   6.603   0.321  12.458  0.1143  0.0068 -0.2633
36700SOL    HW119068   6.680   0.295  12.407  0.2949  2.2330 -1.2338
36700SOL    HW219069   6.531   0.273  12.418  0.6600 -0.3712 -0.8318
36701SOL     OW19070   7.583  10.640   6.475 -0.1971 -0.1324 -0.4573
36701SOL    HW119071   7.533  10.663   6.396 -1.6967 -0.7293  0.2848
36701SOL    HW219072   7.558  10.707   6.539 -0.5876 -0.8290  0.1264
36702SOL     OW19073   4.476   2.402  11.585  0.4750  0.4663  0.2104
36702SOL    HW119074   4.501   2.331  11.526  0.3094  2.3196 -2.2638
36702SOL    HW219075   4.557   2.452  11.598 -0.2093  2.1835 -1.6208
36703SOL     OW19076   2.712   3.016   5.947  0.7137  0.2321  0.1707
36703SOL    HW119077   2.793   3.009   5.896  0.8561  1.6301  0.1527
36703SOL    HW219078   2.654   2.951   5.909  1.2693  0.3480 -0.9240
36704SOL     OW19079   0.813   0.120   1.967  0.2624  0.2633  0.3214
36704SOL    HW119080   0.851   0.105   2.053  1.8998  0.5223 -0.3284
36704SOL    HW219081   0.805   0.215   1.960  0.0579  0.2399  0.2105
36705SOL     OW19082   1.230   2.565   0.955  0.1776 -0.0451 -0.4486
36705SOL    HW119083   1.228   2.504   0.881  1.1130  0.5249 -0.9609
36705SOL    HW219084   1.283   2.638   0.925  0.8864  0.0338  0.9097
36706SOL     OW19085   1.796  10.566  11.764  0.0104 -0.0467 -0.2252
36706SOL    HW119086   1.723  10.617  11.728 -2.3251 -0.9440  2.8205
36706SOL    HW219087   1.758  10.481  11.784  1.9704 -0.6469  1.2723
36707SOL     OW19088   1.382   8.582  10.202  0.2182  0.5291  0.0769
36707SOL    HW119089   1.408   8.551  10.115  0.2085 -1.9730  0.8774
36707SOL    HW219090   1.456   8.560  10.258  0.2893  2.2686  0.7020
36708SOL     OW19091  12.220   5.318  11.629  0.4498  0.1484  0.0401
36708SOL    HW119092  12.213   5.223  11.641  1.8606  0.0713  0.4566
36708SOL    HW219093  12.164   5.337  11.554  0.1040 -1.0055 -0.0124
36709SOL     OW19094   5.347   1.772   9.851 -0.3085  0.3584 -0.2456
36709SOL    HW119095   5.301   1.700   9.894  1.3577 -0.3361  0.5118
36709SOL    HW219096   5.315   1.851   9.895 -0.9239 -0.0745  0.0947
36710SOL     OW19097   0.647   0.847  11.997  0.2631 -0.5848 -0.0703
36710SOL    HW119098   0.577   0.913  11.991  1.9619  1.1514 -2.3216
36710SOL    HW219099   0.682   0.841  11.909  1.8996 -2.6561  0.6430
36711SOL     OW19100  11.334   6.183   8.564  0.2555 -0.6011 -0.5395
36711SOL    HW119101  11.375   6.229   8.490  1.0065 -2.5684 -1.4279
36711SOL    HW219102  11.374   6.222   8.641  1.0804  0.0345 -1.2650
36712SOL     OW19103   0.075   2.672   8.850 -0.1555  0.0935  0.5069
36712SOL    HW119104   0.012   2.601   8.835  0.3496 -0.1052 -0.7815
36712SOL    HW219105   0.160   2.629   8.852  0.3183  0.7586 -1.8073
36713SOL     OW19106   4.167   9.687   5.023  0.0046 -0.4884  0.8007
36713SOL    HW119107   4.077   9.719   5.030  0.0968 -0.3169  1.1916
36713SOL    HW219108   4.221   9.763   5.045  0.3108  0.0496 -1.5036
36714SOL     OW19109   5.491  12.244   7.202  0.8053 -0.6693  0.2520
36714SOL    HW119110   5.456  12.186   7.135  2.7066  2.1723 -3.5921
36714SOL    HW219111   5.578  12.208   7.222  0.7704 -0.7821  0.1988
36715SOL     OW19112  10.087   4.249   6.831  0.8481  0.9160 -0.0245
36715SOL    HW119113  10.079   4.195   6.753 -0.2511 -1.0181  1.3498
36715SOL    HW219114  10.028   4.323   6.815 -0.3555 -0.1156 -0.5194
36716SOL     OW19115   8.634   1.157   7.292 -0.2897  0.0990  0.5216
36716SOL    HW119116   8.698   1.229   7.293  1.2671 -1.1485 -1.4427
36716SOL    HW219117   8.549   1.201   7.295  0.5190  2.2579 -2.7559
36717SOL     OW19118   0.903   6.132   1.753 -0.2376  0.1123  0.2194
36717SOL    HW119119   0.849   6.115   1.830 -0.1491 -1.9552 -0.1035
36717SOL    HW219120   0.844   6.176   1.692 -0.7295  0.4468  0.9313
36718SOL     OW19121   9.644   1.897   5.019 -0.6948 -0.4821 -0.5844
36718SOL    HW119122   9.734   1.869   5.004 -0.0504  1.9996 -1.9547
36718SOL    HW219123   9.643   1.988   4.990 -3.8135 -0.6120 -1.1259
36719SOL     OW19124   2.174   5.908   2.342 -0.0119 -0.1938  0.2772
36719SOL    HW119125   2.248   5.884   2.397  0.6202  0.1142 -0.4098
36719SOL    HW219126   2.191   5.864   2.258 -0.8757 -0.5424  0.2688
36720SOL     OW19127   5.076   8.804   9.042  0.4480 -0.1123 -0.3308
36720SOL    HW119128   5.127   8.881   9.064 -0.3982  0.4282 -0.1992
36720SOL    HW219129   5.017   8.792   9.116  1.8760 -2.0691  0.5744
36721SOL     OW19130   9.879   2.262   9.965 -0.2578 -0.3388  0.0200
36721SOL    HW119131   9.866   2.197   9.896 -0.5283  1.0338 -1.2701
36721SOL    HW219132   9.822   2.233  10.037  1.4550 -2.8637  0.5136
36722SOL     OW19133  11.200   6.708   3.420  0.1627 -0.3453  0.4938
36722SOL    HW119134  11.157   6.762   3.355  0.1743 -2.8980 -1.8013
36722SOL    HW219135  11.181   6.618   3.394  1.8795 -1.5278  2.8789
36723SOL     OW19136   6.186   5.855   8.813 -0.0560  0.1329 -0.0478
36723SOL    HW119137   6.244   5.918   8.855 -2.6376  2.2630  0.5644
36723SOL    HW219138   6.167   5.790   8.880 -1.5791  1.7382  1.1729
36724SOL     OW19139   0.477   9.674   4.368  0.6015  0.0763  0.8303
36724SOL    HW119140   0.420   9.747   4.342  0.0844 -0.0141  1.6667
36724SOL    HW219141   0.559   9.690   4.322 -0.0358  0.3142 -0.2460
36725SOL     OW19142   8.950  12.584   1.714  0.5619 -0.7577  0.7798
36725SOL    HW119143   8.963  12.676   1.693  0.0645 -0.6705  0.8248
36725SOL    HW219144   8.966  12.577   1.808  0.2185 -0.6370  0.8501
36726SOL     OW19145  12.206   3.657   6.454  0.2148 -0.4203  0.0693
36726SOL    HW119146  12.272   3.591   6.433 -0.8838 -1.6589  0.3933
36726SOL    HW219147  12.167   3.679   6.369  1.8474  1.2640 -0.3075
36727SOL     OW19148   4.723   3.688   2.423 -0.2586 -0.1648  0.1132
36727SOL    HW119149   4.730   3.675   2.517 -2.1828  0.8986  0.4431
36727SOL    HW219150   4.655   3.627   2.395 -2.3166  2.0053  0.0783
36728SOL     OW19151  10.180   9.018   0.005 -0.1156 -0.2685 -0.7396
36728SOL    HW119152  10.206   9.110   0.017 -2.1576  0.5653 -1.9786
36728SOL    HW219153  10.232   8.969   0.068  0.5383  1.8445  0.4575
36729SOL     OW19154   2.193   5.751   6.430 -0.2195 -0.5455  0.2219
36729SOL    HW119155   2.142   5.813   6.482 -0.7560 -1.8798  1.3365
36729SOL    HW219156   2.278   5.748   6.473  0.1473  0.1089 -0.4140
36730SOL     OW19157   2.539   5.784   4.171 -0.3862 -0.4571  0.0072
36730SOL    HW119158   2.538   5.779   4.267 -1.5963 -0.1917  0.0287
36730SOL    HW219159   2.453   5.819   4.148 -0.7087 -1.9289 -1.2555
36731SOL     OW19160   5.988   7.889   4.444 -0.2382 -0.1522  0.0778
36731SOL    HW119161   6.056   7.822   4.456 -0.6700 -0.3716  1.4471
36731SOL    HW219162   6.036   7.971   4.440  0.2811 -0.4898 -1.3960
36732SOL     OW19163   6.525   8.928   3.933 -0.2544  0.3200 -0.4947
36732SOL    HW119164   6.509   8.997   3.998 -0.0929 -0.9855  0.9909
36732SOL    HW219165   6.552   8.853   3.985 -1.9542 -1.3593 -1.8982
36733SOL     OW19166   0.342   8.092   8.424 -0.6639  0.1854 -0.1438
36733SOL    HW119167   0.362   8.176   8.464  0.5358 -0.1705  0.0410
36733SOL    HW219168   0.321   8.113   8.333 -0.0403  0.6620 -0.1852
36734SOL     OW19169   4.876   4.935   1.298  0.0992 -0.9369  0.2053
36734SOL    HW119170   4.913   4.909   1.213 -1.3174 -2.1356 -0.1046
36734SOL    HW219171   4.944   4.914   1.361  1.3497  0.3867 -0.6573
36735SOL     OW19172   5.345   9.102   6.263 -0.3837 -0.4300  0.1013
36735SOL    HW119173   5.270   9.057   6.224 -0.0558 -1.2903  0.4210
36735SOL    HW219174   5.308   9.149   6.338 -0.7334 -0.1767 -0.2284
36736SOL     OW19175   4.248   7.774   3.699 -0.4510  0.0730 -0.1794
36736SOL    HW119176   4.278   7.778   3.790  0.7734 -2.9820 -0.3130
36736SOL    HW219177   4.153   7.768   3.705 -0.4774  1.0330  0.7833
36737SOL     OW19178  11.691   9.199  10.090  0.8606  0.2575 -0.0027
36737SOL    HW119179  11.730   9.281  10.062  1.2425 -0.1691 -0.7592
36737SOL    HW219180  11.617   9.186  10.031 -1.3140  1.6918  2.2014
36738SOL     OW19181   0.125   9.559  12.173 -0.4413  0.3698  0.5178
36738SOL    HW119182   0.189   9.490  12.188  0.2359  1.0489  0.8328
36738SOL    HW219183   0.059   9.520  12.115  0.7463 -0.0497 -0.5827
36739SOL     OW19184   5.019   5.830   2.260 -0.0560  0.1505 -0.2919
36739SOL    HW119185   5.036   5.925   2.260  0.1572  0.1175  0.4309
36739SOL    HW219186   4.987   5.811   2.348  0.3650 -0.5296 -0.2787
36740SOL     OW19187   7.726  11.213   4.714  0.5249 -0.5788  0.2515
36740SOL    HW119188   7.636  11.198   4.742  0.5190 -1.9894 -0.4278
36740SOL    HW219189   7.762  11.126   4.700  1.3700 -0.0104 -1.4350
36741SOL     OW19190   4.568   0.419   6.823  0.0342  0.1652 -0.1563
36741SOL    HW119191   4.618   0.478   6.766  1.1973 -0.6624 -0.0213
36741SOL    HW219192   4.482   0.412   6.780 -0.0015  1.6091 -0.3892
36742SOL     OW19193  11.798   5.661   9.749  0.4008 -0.1799  0.2451
36742SOL    HW119194  11.765   5.744   9.782 -0.2540 -1.0085  1.7841
36742SOL    HW219195  11.819   5.678   9.657  0.3443  1.6817  0.5437
36743SOL     OW19196  12.519   3.069   1.003 -0.6971  0.2171  0.2892
36743SOL    HW119197  12.602   3.060   1.048 -1.1846  0.6231  1.2998
36743SOL    HW219198  12.519   2.999   0.937  0.4131  0.1937  0.3028
36744SOL     OW19199   3.765  11.039   8.627 -0.4290 -0.0258  0.6406
36744SOL    HW119200   3.827  11.112   8.627 -1.6785  1.1482 -1.8084
36744SOL    HW219201   3.821  10.960   8.627  1.1502  0.9745 -1.5451
36745SOL     OW19202   0.994   7.898   4.862  0.6385 -0.4001 -0.6933
36745SOL    HW119203   1.038   7.926   4.782  1.1539  0.7385 -0.0440
36745SOL    HW219204   0.940   7.972   4.888  0.5053 -0.7358  0.0361
36746SOL     OW19205   4.008  10.963   6.806 -0.0657 -0.3955 -0.6190
36746SOL    HW119206   3.964  11.047   6.824 -0.8240 -0.7564 -0.7376
36746SOL    HW219207   3.936  10.903   6.786  0.5151 -0.9297 -1.1166
36747SOL     OW19208   5.234  12.305   6.988 -0.0126 -0.4771  0.3195
36747SOL    HW119209   5.292  12.272   7.057  0.5054 -0.2440  0.0047
36747SOL    HW219210   5.188  12.378   7.029  2.2517  1.4497 -0.2941
36748SOL     OW19211   5.857   4.371  10.805 -0.6158  0.4066  0.3391
36748SOL    HW119212   5.786   4.421  10.764 -0.3532  0.9761  0.5617
36748SOL    HW219213   5.937   4.413  10.773 -0.2953 -1.2495 -1.2307
36749SOL     OW19214   0.757   9.725   1.422 -0.4260 -0.1339  0.3801
36749SOL    HW119215   0.735   9.644   1.467 -0.4187 -0.8842 -0.9437
36749SOL    HW219216   0.818   9.699   1.353  1.0428  1.2588  1.0872
36750SOL     OW19217   0.559   0.119   5.007 -0.2151 -0.1872  0.1942
36750SOL    HW119218   0.581   0.183   4.939  2.1357 -1.9808 -0.8862
36750SOL    HW219219   0.517   0.170   5.076 -3.1532  1.7022 -2.6989
36751SOL     OW19220   6.533   3.182   7.516  0.6389 -0.1147  0.1167
36751SOL    HW119221   6.532   3.090   7.543  0.0172  0.3756  1.9373
36751SOL    HW219222   6.477   3.186   7.439  0.1673 -1.1637  0.3938
36752SOL     OW19223   4.988  11.442   5.191 -1.0231 -0.0504 -0.0033
36752SOL    HW119224   5.029  11.526   5.212  0.7599 -1.0406  0.6942
36752SOL    HW219225   4.928  11.462   5.119 -1.4840  2.0109  0.8832
36753SOL     OW19226   3.907  11.379   6.652 -0.0034 -0.2053 -0.2896
36753SOL    HW119227   3.932  11.412   6.738 -0.9916  0.4125 -0.2219
36753SOL    HW219228   3.822  11.338   6.666  0.6833 -1.8105 -0.6118
36754SOL     OW19229   7.450   5.873   2.922 -0.0783 -0.5986  0.3137
36754SOL    HW119230   7.373   5.818   2.934 -1.0579 -0.5807 -4.1145
36754SOL    HW219231   7.519   5.812   2.896  0.7951 -0.3498  1.9314
36755SOL     OW19232  10.582   7.686  12.063 -0.6013 -0.2597  0.2355
36755SOL    HW119233  10.495   7.648  12.051 -0.3009 -0.8285 -0.1568
36755SOL    HW219234  10.566   7.780  12.073 -1.1533 -0.1881 -1.1778
36756SOL     OW19235   6.646   5.335   2.217  0.0045  0.1386 -0.2428
36756SOL    HW119236   6.570   5.330   2.158  1.0714 -0.7419 -1.6026
36756SOL    HW219237   6.689   5.417   2.192  1.0032 -0.7137 -1.4343
36757SOL     OW19238   6.550   7.036   0.241 -0.6723 -0.2559 -0.4596
36757SOL    HW119239   6.484   7.017   0.308 -0.6626  2.4740  0.4397
36757SOL    HW219240   6.511   7.106   0.189  0.1619 -0.9744 -2.1055
36758SOL     OW19241   7.377   3.618  12.122 -0.4390 -0.4356 -0.1915
36758SOL    HW119242   7.324   3.695  12.099  0.1781 -0.2100 -0.9035
36758SOL    HW219243   7.338   3.585  12.203 -0.1027  1.2168  0.6847
36759SOL     OW19244  10.007   5.898   4.476 -0.6173 -0.3263 -0.0586
36759SOL    HW119245  10.072   5.845   4.431 -0.2782  0.1708 -0.1622
36759SOL    HW219246  10.058   5.960   4.528 -1.0091 -0.4755  0.5082
36760SOL     OW19247  11.934   7.546   4.815 -0.7402  0.0146 -0.0229
36760SOL    HW119248  11.928   7.451   4.825 -0.7250 -0.0183 -0.3185
36760SOL    HW219249  11.868   7.581   4.874 -0.6703 -0.1764  0.1681
36761SOL     OW19250   2.823  12.548   0.589 -0.0342  0.4700 -0.0108
36761SOL    HW119251   2.811  12.572   0.497  0.7646  2.5230  0.3761
36761SOL    HW219252   2.918  12.545   0.601 -0.1285 -0.5000  0.5893
36762SOL     OW19253  12.039   8.425   5.495 -0.5925 -0.4014 -0.0645
36762SOL    HW119254  12.010   8.479   5.421  1.7969  0.6650 -0.2956
36762SOL    HW219255  11.970   8.359   5.504 -1.7684  0.4303 -2.1829
36763SOL     OW19256   0.958   3.439   3.609  0.2393  0.1103 -0.3751
36763SOL    HW119257   0.987   3.502   3.674 -3.3375  0.4435  1.1340
36763SOL    HW219258   0.955   3.488   3.527  0.5154  0.9908  0.1321
36764SOL     OW19259   5.507   2.556   5.714  0.0074  0.3695 -0.1063
36764SOL    HW119260   5.460   2.563   5.631  0.9894  0.0132 -0.7036
36764SOL    HW219261   5.445   2.514   5.773 -1.0809  1.5826 -0.3402
36765SOL     OW19262  12.256   7.630  10.165 -0.4376  0.1097  0.4213
36765SOL    HW119263  12.223   7.557  10.217 -1.3930  1.1912  1.3894
36765SOL    HW219264  12.181   7.689  10.156 -0.5271 -0.3161 -2.7725
36766SOL     OW19265  12.441   3.428   5.794 -0.0465 -0.3847 -0.3447
36766SOL    HW119266  12.440   3.517   5.757 -0.0127  0.0669  0.7167
36766SOL    HW219267  12.408   3.373   5.723 -3.0958  0.8652 -0.0391
36767SOL     OW19268   1.985   7.252   6.144  0.1635  0.0574  0.2520
36767SOL    HW119269   1.895   7.232   6.119 -0.1200  1.3465  0.1642
36767SOL    HW219270   1.983   7.254   6.240 -0.0994  0.8310  0.2429
36768SOL     OW19271  11.230   3.373  10.728  0.3192 -0.2655  0.1966
36768SOL    HW119272  11.319   3.340  10.739  0.7007  1.4614  3.2165
36768SOL    HW219273  11.241   3.468  10.717 -1.1397 -0.0355  0.5381
36769SOL     OW19274  12.307   7.523   6.640  0.2755  0.1194 -0.1741
36769SOL    HW119275  12.303   7.601   6.584  0.3999  1.8894  2.0936
36769SOL    HW219276  12.222   7.481   6.630  0.2721  0.4384 -1.5970
36770SOL     OW19277   1.364  11.530   2.865  0.2362 -0.1154  0.2540
36770SOL    HW119278   1.379  11.622   2.888 -0.1068 -0.2659  1.1044
36770SOL    HW219279   1.269  11.521   2.862  0.2541 -0.6485  1.0305
36771SOL     OW19280  10.294   0.394   7.875  0.5713  0.3328  0.1263
36771SOL    HW119281  10.217   0.338   7.884  0.5090  0.5369  0.9309
36771SOL    HW219282  10.357   0.341   7.826  0.0658  0.0161 -0.1799
36772SOL     OW19283   6.958  12.589   2.841 -0.3644 -0.3848 -0.4421
36772SOL    HW119284   6.921  12.675   2.861 -1.7768 -0.4978 -2.2321
36772SOL    HW219285   7.051  12.605   2.827 -0.7308  1.0595 -1.5690
36773SOL     OW19286   2.563  10.742  11.767  0.0811  0.3859 -0.4173
36773SOL    HW119287   2.537  10.723  11.677 -0.0457  0.0298 -0.3022
36773SOL    HW219288   2.654  10.713  11.772  0.5107  1.5907 -0.8057
36774SOL     OW19289   5.883   1.521   0.459 -0.1225  0.2917  0.3836
36774SOL    HW119290   5.932   1.501   0.380  0.9645 -0.3157  1.1704
36774SOL    HW219291   5.815   1.582   0.431  0.4600  0.3696 -0.9363
36775SOL     OW19292   2.716   5.702   2.516  0.4068  0.1945  0.1686
36775SOL    HW119293   2.755   5.631   2.463 -0.9314  0.3403 -1.0862
36775SOL    HW219294   2.778   5.774   2.508  1.3127 -0.5062  0.6561
36776SOL     OW19295   7.465   1.246   1.408 -0.2064 -0.3853  0.0822
36776SOL    HW119296   7.382   1.293   1.396  0.6639  1.2681  0.3174
36776SOL    HW219297   7.450   1.191   1.485 -1.7349 -1.7370 -1.0682
36777SOL     OW19298  10.916   4.484   3.393  0.1439 -0.5579 -0.4609
36777SOL    HW119299  10.833   4.471   3.439 -0.2246 -1.6207 -1.3712
36777SOL    HW219300  10.979   4.503   3.462 -0.4873 -1.6194  0.4397
36778SOL     OW19301   0.356   9.040   7.625 -0.2762  0.3949  0.0433
36778SOL    HW119302   0.381   9.119   7.675 -1.0742  1.8948 -1.7971
36778SOL    HW219303   0.278   9.008   7.670 -0.6326  1.3563  0.1363
36779SOL     OW19304   2.316   0.708   4.978 -0.3188  0.1213  0.2517
36779SOL    HW119305   2.380   0.647   5.015 -1.4632 -0.1223  1.8930
36779SOL    HW219306   2.271   0.745   5.053 -0.4752  2.1344 -0.7595
36780SOL     OW19307   0.276  10.491   3.462  0.1236 -0.2745  0.5850
36780SOL    HW119308   0.261  10.410   3.413 -1.4495 -0.0545  0.6338
36780SOL    HW219309   0.266  10.560   3.397 -0.5197 -0.0488  0.9091
36781SOL     OW19310   6.988   3.115   5.415 -0.4060 -0.0070  0.3131
36781SOL    HW119311   6.971   3.030   5.373  1.5204 -0.3493  0.1667
36781SOL    HW219312   6.938   3.178   5.363 -1.4420 -0.9702  0.1046
36782SOL     OW19313  11.425   4.497   5.403 -1.0158  0.1728  0.2018
36782SOL    HW119314  11.451   4.473   5.492 -1.8475 -0.7427  0.2203
36782SOL    HW219315  11.413   4.592   5.406  0.3334  0.3475  0.6888
36783SOL     OW19316   3.646  11.211   9.266 -0.0632  0.4784 -0.1483
36783SOL    HW119317   3.588  11.164   9.326 -0.5890  0.2226 -0.8406
36783SOL    HW219318   3.649  11.301   9.301 -1.2700  0.6238 -0.3596
36784SOL     OW19319   9.084   1.442   6.201  0.2746  0.4559 -0.2014
36784SOL    HW119320   9.004   1.470   6.157 -0.4269 -1.6974 -0.4254
36784SOL    HW219321   9.071   1.469   6.292 -1.6343 -1.4677  0.1871
36785SOL     OW19322   0.149   7.636   1.792  0.0873  0.3012  0.1276
36785SOL    HW119323   0.104   7.579   1.731  0.2793 -0.2700  0.5134
36785SOL    HW219324   0.093   7.714   1.798 -0.1028  0.2149 -0.5023
36786SOL     OW19325   1.507   0.814   4.380 -0.1489  0.1342 -0.1060
36786SOL    HW119326   1.548   0.865   4.310 -1.3027  1.5343  0.2033
36786SOL    HW219327   1.475   0.735   4.336  3.4291 -1.4512 -0.2382
36787SOL     OW19328   7.924  12.208   7.133  0.2263 -0.5730  0.0794
36787SOL    HW119329   7.939  12.217   7.039 -0.9880  0.5858 -0.0365
36787SOL    HW219330   7.930  12.297   7.167  0.0730 -0.9048  1.0039
36788SOL     OW19331   0.191   3.282   0.109 -0.0222 -0.2082  0.6987
36788SOL    HW119332   0.110   3.319   0.075 -0.4825 -1.5988  0.1942
36788SOL    HW219333   0.164   3.199   0.150  0.9889 -0.1448  1.5354
36789SOL     OW19334  12.174   9.341   2.241  0.1955 -0.2738 -0.2642
36789SOL    HW119335  12.231   9.268   2.265  0.3360 -0.2796 -0.6222
36789SOL    HW219336  12.101   9.334   2.303  0.1050 -0.8369 -0.4239
36790SOL     OW19337   7.246   9.389   3.828  0.1154 -0.3848  0.5347
36790SOL    HW119338   7.271   9.309   3.781 -0.2931 -0.1664 -0.0688
36790SOL    HW219339   7.213   9.358   3.912  0.6952 -0.7966  0.6125
36791SOL     OW19340  12.062  11.986  12.355  0.3220  0.0230 -0.0772
36791SOL    HW119341  12.037  11.932  12.430 -1.1611  1.8858  0.8452
36791SOL    HW219342  12.137  12.036  12.386 -0.6243  1.1908  0.4051
36792SOL     OW19343  11.753   5.812   8.457 -0.2549 -0.3747  0.5702
36792SOL    HW119344  11.740   5.727   8.500 -0.4426 -1.8215 -2.1286
36792SOL    HW219345  11.666   5.838   8.428  0.1812 -1.0522 -1.5917
36793SOL     OW19346   5.627   5.055   3.055 -0.9952  0.5164 -0.1125
36793SOL    HW119347   5.673   5.001   3.119 -0.9679  0.8576  0.1562
36793SOL    HW219348   5.566   5.107   3.106 -2.0439 -0.2833 -0.5202
36794SOL     OW19349   6.110   5.626   1.952 -0.6165  0.5519 -0.5924
36794SOL    HW119350   6.065   5.692   2.005 -1.3834 -0.3301 -0.1162
36794SOL    HW219351   6.047   5.555   1.943  0.0435  0.0526 -1.4482
36795SOL     OW19352   0.735   2.410   0.450 -0.3019 -0.1758  0.4700
36795SOL    HW119353   0.651   2.444   0.420 -0.8433  0.1465  2.2130
36795SOL    HW219354   0.775   2.372   0.372 -2.5748 -1.3982 -0.1970
36796SOL     OW19355   8.866  10.163   0.756  0.4841  0.3430  0.2218
36796SOL    HW119356   8.956  10.136   0.775  0.8553 -1.8496 -3.6209
36796SOL    HW219357   8.813  10.086   0.776  0.2152 -0.1086 -1.9841
36797SOL     OW19358  12.154   3.640   1.550 -0.2910 -1.2439  0.1363
36797SOL    HW119359  12.196   3.609   1.630 -1.8051 -1.8931  0.7104
36797SOL    HW219360  12.204   3.599   1.479  1.6304  0.0576  0.6737
36798SOL     OW19361   5.082  11.658  11.065  0.5140 -0.3388 -0.4183
36798SOL    HW119362   5.112  11.572  11.039  0.6602  0.1369 -1.8926
36798SOL    HW219363   5.162  11.709  11.081  0.4295 -0.4402  0.3880
36799SOL     OW19364   1.070   1.134   7.736 -0.1516 -0.5366  0.4771
36799SOL    HW119365   1.004   1.117   7.669 -0.0565 -0.0477  0.2507
36799SOL    HW219366   1.071   1.230   7.744  2.0869 -0.3398 -1.1322
36800SOL     OW19367  12.031   1.464  11.929  0.3004 -0.1012  0.1351
36800SOL    HW119368  12.049   1.552  11.962 -0.3055  0.0594  0.0521
36800SOL    HW219369  12.116   1.430  11.904  0.6943  0.0031  1.2808
36801SOL     OW19370   0.394   5.985   1.355  0.5544 -0.1930  0.5484
36801SOL    HW119371   0.465   5.923   1.373 -0.6597 -1.3924  1.2898
36801SOL    HW219372   0.359   5.956   1.271 -1.0091 -1.5196  1.6065
36802SOL     OW19373   8.646   0.568   0.098 -0.4770  0.0115 -0.2718
36802SOL    HW119374   8.629   0.662   0.103 -2.4704 -0.2763 -0.7258
36802SOL    HW219375   8.714   0.559   0.032 -0.8017  1.0954 -0.7740
36803SOL     OW19376   4.221   6.912   1.576  0.1821  0.4280  0.1555
36803SOL    HW119377   4.141   6.959   1.599 -0.0700  0.1329 -0.1082
36803SOL    HW219378   4.191   6.842   1.518  0.7101  0.7125 -0.4724
36804SOL     OW19379  10.824   4.375   0.231 -0.4503  0.0845 -0.2726
36804SOL    HW119380  10.756   4.373   0.164 -1.1645 -0.0783  0.4273
36804SOL    HW219381  10.795   4.443   0.292 -1.5151 -1.8666  1.5449
36805SOL     OW19382  10.191   0.079   3.406 -0.4564  0.0861  0.0774
36805SOL    HW119383  10.117   0.035   3.364 -1.5025  1.7790  0.0414
36805SOL    HW219384  10.268   0.031   3.376 -1.0331  1.4987 -4.4269
36806SOL     OW19385   8.588   3.012  12.117  0.5442  0.2079  0.0519
36806SOL    HW119386   8.620   3.049  12.199 -0.4340  1.1785  0.0150
36806SOL    HW219387   8.663   3.016  12.058  0.2949  2.9397 -0.2062
36807SOL     OW19388   1.506   6.585   1.491  0.1737 -0.8267 -0.0336
36807SOL    HW119389   1.502   6.640   1.569  0.6225 -0.5043 -0.2300
36807SOL    HW219390   1.510   6.647   1.418 -0.5984 -1.1204 -0.3419
36808SOL     OW19391  11.638   5.219   1.315  0.2349 -0.3164  0.2574
36808SOL    HW119392  11.578   5.216   1.240  1.1104 -0.5255 -0.4414
36808SOL    HW219393  11.620   5.138   1.363  1.9743 -1.8571 -1.5490
36809SOL     OW19394  10.065   0.464   5.562  0.5990 -0.2106  0.2152
36809SOL    HW119395  10.038   0.373   5.552  0.8010 -0.4820  1.9113
36809SOL    HW219396   9.989   0.507   5.602 -0.0694  0.7503 -1.9096
36810SOL     OW19397   8.635   0.825   3.032 -0.1994 -0.1943 -0.4797
36810SOL    HW119398   8.635   0.732   3.009  0.2982  0.3156 -2.8447
36810SOL    HW219399   8.728   0.849   3.035 -0.3348  0.4363 -0.9686
36811SOL     OW19400   4.542  10.530  11.411 -0.2685 -0.2572  0.4419
36811SOL    HW119401   4.519  10.542  11.503 -1.3334 -1.7503  0.4110
36811SOL    HW219402   4.528  10.615  11.371 -1.7818 -0.0909  1.2652
36812SOL     OW19403  10.515   4.129   9.405 -0.2136 -0.0215  0.3017
36812SOL    HW119404  10.483   4.123   9.494  1.3694  0.4837  0.9417
36812SOL    HW219405  10.576   4.056   9.396  1.9341  1.6153  0.6845
36813SOL     OW19406  10.357   2.836  10.179 -0.1498 -0.4180  0.5881
36813SOL    HW119407  10.429   2.856  10.239  1.0356 -2.8575  0.0904
36813SOL    HW219408  10.280   2.830  10.234  0.5002 -0.3422  1.5219
36814SOL     OW19409   6.723   0.549   3.678  0.2036  0.0263 -0.1224
36814SOL    HW119410   6.801   0.520   3.725 -0.8214 -1.8197  0.5605
36814SOL    HW219411   6.651   0.532   3.739 -1.0540 -1.3437 -1.8765
36815SOL     OW19412   4.254   6.736  12.108  0.5527  0.0823 -0.1606
36815SOL    HW119413   4.246   6.800  12.037  0.6591 -1.2790 -1.4629
36815SOL    HW219414   4.262   6.789  12.188 -0.5451  1.6663 -1.0429
36816SOL     OW19415  10.518   3.259  11.597  0.0159 -0.1383 -0.1078
36816SOL    HW119416  10.513   3.341  11.645 -0.5967  0.9059 -1.8621
36816SOL    HW219417  10.530   3.192  11.665 -0.9971  1.2223  1.4919
36817SOL     OW19418   1.969  12.234   6.460 -0.7969 -0.0504  0.2249
36817SOL    HW119419   1.926  12.153   6.487 -1.8973 -0.1739 -1.7456
36817SOL    HW219420   1.916  12.303   6.499 -1.5184 -0.2444 -0.3896
36818SOL     OW19421  11.336  11.567   4.325 -0.4374  0.1956 -0.1622
36818SOL    HW119422  11.340  11.627   4.250 -1.2681  1.0517  0.4469
36818SOL    HW219423  11.284  11.614   4.390 -0.4874 -0.9038  0.6193
36819SOL     OW19424  10.280   8.131   9.052 -0.3264  0.4846  0.1633
36819SOL    HW119425  10.269   8.081   8.971  0.1682  0.6460 -0.0040
36819SOL    HW219426  10.293   8.065   9.120 -0.2614  0.3675  0.0360
36820SOL     OW19427   4.323   0.568   1.034 -0.1855 -0.0755 -0.0880
36820SOL    HW119428   4.277   0.631   0.978 -1.2162  1.2937  2.1331
36820SOL    HW219429   4.390   0.621   1.079  1.3855 -1.3709 -0.8180
36821SOL     OW19430   4.753  11.225   0.843  0.4063 -0.7330  0.2149
36821SOL    HW119431   4.663  11.236   0.874  0.1278  0.2529 -0.8974
36821SOL    HW219432   4.745  11.208   0.749  1.4102  0.4313 -0.1082
36822SOL     OW19433   9.545   6.706   2.871  1.2856 -0.0817 -0.2997
36822SOL    HW119434   9.634   6.670   2.879  1.0912 -0.2113  1.7087
36822SOL    HW219435   9.541   6.775   2.938 -0.2008 -0.2147 -0.2227
36823SOL     OW19436   9.857   0.606   0.909 -0.4341 -0.8389  0.5701
36823SOL    HW119437   9.922   0.651   0.964 -0.6145  0.8404 -0.5055
36823SOL    HW219438   9.906   0.535   0.868  0.5619 -0.0582  0.3588
36824SOL     OW19439  11.573   7.026   7.793 -0.2430 -0.6990 -0.1591
36824SOL    HW119440  11.593   7.107   7.840 -1.1795 -0.0781 -0.7861
36824SOL    HW219441  11.598   7.044   7.702  1.7317 -1.9499  0.0892
36825SOL     OW19442   6.524   6.459   6.206  0.6765  0.1913  0.0300
36825SOL    HW119443   6.553   6.529   6.147  1.7546 -0.7786 -0.6293
36825SOL    HW219444   6.578   6.470   6.284  1.6066 -0.5432 -0.4996
36826SOL     OW19445   5.166  12.423   9.795 -0.7405  0.4074 -0.4242
36826SOL    HW119446   5.195  12.512   9.774 -1.8676  1.0380  0.5566
36826SOL    HW219447   5.244  12.369   9.786  0.5829  1.9010  1.3593
36827SOL     OW19448  11.692   9.102   8.033 -0.2684 -0.0935  0.1669
36827SOL    HW119449  11.615   9.069   7.987 -0.8823  0.8733  0.4669
36827SOL    HW219450  11.670   9.091   8.126  0.9874 -2.0937  0.2848
36828SOL     OW19451   5.756  11.503   9.487  0.2416 -0.0774  0.1977
36828SOL    HW119452   5.679  11.483   9.540 -0.6974  1.9457 -0.3189
36828SOL    HW219453   5.809  11.424   9.491 -0.4578 -0.5154  3.0048
36829SOL     OW19454   7.905   2.318  10.787  0.6701 -0.2638 -0.1269
36829SOL    HW119455   7.997   2.311  10.764  0.7889  0.1226  0.2279
36829SOL    HW219456   7.861   2.341  10.705  0.8052 -1.0309 -0.4273
36830SOL     OW19457   9.704   3.865   0.637  0.5320 -0.3482  0.6353
36830SOL    HW119458   9.677   3.786   0.589  0.8236  0.3521 -0.7363
36830SOL    HW219459   9.790   3.844   0.673 -0.3417 -1.4279  2.2279
36831SOL     OW19460   8.376   4.557   0.635 -0.0337 -0.0447 -0.3411
36831SOL    HW119461   8.318   4.545   0.711 -0.6643  0.1090 -0.7926
36831SOL    HW219462   8.420   4.473   0.625  1.1654  0.3632  1.0874
36832SOL     OW19463   8.498  10.097  12.319 -0.0288  0.1599 -0.4200
36832SOL    HW119464   8.485  10.084  12.413  0.1120  2.0816 -0.0853
36832SOL    HW219465   8.439  10.170  12.297  0.8260  0.5313 -1.5641
36833SOL     OW19466   8.140  10.257   1.283 -0.0418 -0.6929 -0.2909
36833SOL    HW119467   8.110  10.260   1.192 -0.8342  1.0803 -0.0198
36833SOL    HW219468   8.060  10.252   1.335  0.4063 -1.7624  0.3343
36834SOL     OW19469   4.343  10.701   4.217 -0.4883 -0.3146 -0.3013
36834SOL    HW119470   4.438  10.688   4.224 -0.4775  0.3124  0.8831
36834SOL    HW219471   4.329  10.725   4.125  0.3802 -1.2455 -0.6983
36835SOL     OW19472  11.926  10.143   7.013 -0.2336 -0.5306  0.3929
36835SOL    HW119473  11.959  10.075   6.955 -0.1092  0.4049 -0.6509
36835SOL    HW219474  11.996  10.207   7.018 -0.9886  0.3372  0.0352
36836SOL     OW19475   0.450   4.826   8.104  0.2203  0.0487 -0.1893
36836SOL    HW119476   0.474   4.738   8.135  0.6653 -0.2335 -1.2881
36836SOL    HW219477   0.482   4.829   8.014  1.4005  1.8017  0.2339
36837SOL     OW19478   9.564   2.834   9.986 -0.0753 -0.1885  0.1064
36837SOL    HW119479   9.492   2.834  10.049  0.6888 -2.2985  1.0873
36837SOL    HW219480   9.643   2.838  10.040  0.5741  1.0409 -0.8965
36838SOL     OW19481  10.044   1.505   4.904 -0.7191 -0.2090 -0.1177
36838SOL    HW119482   9.972   1.442   4.896 -0.1106 -0.8934 -0.3785
36838SOL    HW219483  10.061   1.510   4.998 -0.3002 -0.9957 -0.1439
36839SOL     OW19484   5.443   7.607   6.520 -0.5801 -0.4319  0.1895
36839SOL    HW119485   5.464   7.516   6.544 -1.9618 -0.6908  0.5003
36839SOL    HW219486   5.492   7.622   6.439  0.7499 -0.9871  0.8398
36840SOL     OW19487   2.931   9.260  10.879  0.2154  0.0749 -0.3493
36840SOL    HW119488   2.932   9.170  10.847  0.0258  0.3135 -1.0346
36840SOL    HW219489   3.016   9.272  10.922  0.8562  0.0361 -1.5796
36841SOL     OW19490   8.704  12.159   3.771  0.2531  0.3527 -0.0331
36841SOL    HW119491   8.716  12.243   3.727  0.1378 -0.3450 -1.4275
36841SOL    HW219492   8.769  12.101   3.731 -1.0187 -0.7652 -0.5387
36842SOL     OW19493   6.858   2.978  10.695  0.2332 -0.1568  0.0461
36842SOL    HW119494   6.880   2.901  10.643 -1.0971  0.9378 -2.3074
36842SOL    HW219495   6.942   3.010  10.729  1.5696  0.3934 -3.4233
36843SOL     OW19496   2.392   2.520  10.587  0.2437  0.0575 -0.2219
36843SOL    HW119497   2.423   2.491  10.502  1.3368  1.1100 -0.2086
36843SOL    HW219498   2.297   2.523  10.579  0.3178 -0.2334 -1.2670
36844SOL     OW19499  11.321   0.291   0.099 -0.1076  0.1027  0.0256
36844SOL    HW119500  11.347   0.371   0.054  0.3716 -0.3861 -0.5899
36844SOL    HW219501  11.280   0.237   0.031 -0.7179 -0.0418  0.5038
36845SOL     OW19502   9.100  11.260   4.886 -0.9539  0.2869 -0.1491
36845SOL    HW119503   9.135  11.189   4.832 -4.0881 -1.2854 -0.3500
36845SOL    HW219504   9.165  11.272   4.955  1.5176 -0.0153 -2.2733
36846SOL     OW19505  12.112   4.427  10.840  0.3093  0.1820 -0.4896
36846SOL    HW119506  12.028   4.418  10.795 -0.0036  0.7562 -0.0259
36846SOL    HW219507  12.129   4.340  10.877 -1.8196  0.8897  2.4574
36847SOL     OW19508   9.778   9.113   0.913 -0.4855 -0.0291 -0.3519
36847SOL    HW119509   9.740   9.165   0.842 -0.5659 -1.3903 -1.3540
36847SOL    HW219510   9.863   9.154   0.929 -0.5344  0.3973 -1.1201
36848SOL     OW19511   5.879   3.830   8.468 -0.0038 -0.6186 -0.0488
36848SOL    HW119512   5.876   3.873   8.554 -0.0280  1.0657 -0.8615
36848SOL    HW219513   5.957   3.866   8.426 -0.3595 -0.9219 -0.9923
36849SOL     OW19514   0.334   2.214   4.928 -0.3722 -0.0398  0.2999
36849SOL    HW119515   0.311   2.251   5.013  2.3870 -0.1435  1.1874
36849SOL    HW219516   0.391   2.279   4.888 -0.1904 -0.7831 -0.6897
36850SOL     OW19517   1.008  11.316   7.087 -0.2359  0.0897 -0.0778
36850SOL    HW119518   1.011  11.361   7.002  1.1355  0.4726  0.1597
36850SOL    HW219519   1.086  11.346   7.133 -0.4740 -0.8379  0.9606
36851SOL     OW19520   7.177  10.322   9.000 -0.6034  0.1779  0.2576
36851SOL    HW119521   7.230  10.389   8.957 -0.9038 -0.7640 -1.7129
36851SOL    HW219522   7.218  10.309   9.085  2.0275 -0.1315 -0.9680
36852SOL     OW19523   8.536   5.849   8.175  0.1006  0.0997 -0.3372
36852SOL    HW119524   8.450   5.857   8.217  0.3136 -0.9049  0.3372
36852SOL    HW219525   8.585   5.792   8.233  0.0000 -2.4661 -2.5610
36853SOL     OW19526   4.168  10.809   1.090 -0.6111 -0.1986  0.2958
36853SOL    HW119527   4.256  10.843   1.103 -1.3789  1.9686  0.2909
36853SOL    HW219528   4.179  10.733   1.033  1.2994 -0.4337  0.9279
36854SOL     OW19529   3.993  10.296   3.910  0.1146  0.2355  0.1253
36854SOL    HW119530   4.000  10.291   4.005  0.3422  0.2222  0.1089
36854SOL    HW219531   3.988  10.390   3.891 -1.0328  0.2122  0.2208
36855SOL     OW19532   0.035   3.079   6.542 -0.2767  0.2315 -0.9755
36855SOL    HW119533   0.098   3.143   6.575 -0.0290 -0.4848 -0.0137
36855SOL    HW219534  -0.045   3.095   6.592  0.5986 -1.9496  1.2845
36856SOL     OW19535   3.257   2.105   6.597  0.2096  0.0427  0.1647
36856SOL    HW119536   3.185   2.133   6.540 -1.3681  0.1862  2.1360
36856SOL    HW219537   3.334   2.108   6.540 -1.1750  0.7150 -1.8044
36857SOL     OW19538   8.189  10.256   4.006 -0.0337 -0.2839 -0.0947
36857SOL    HW119539   8.195  10.168   4.042  0.2001 -0.8762 -1.5207
36857SOL    HW219540   8.255  10.307   4.054 -0.7522 -0.6577  1.3194
36858SOL     OW19541   1.116   7.564  10.993 -0.3855  0.1121 -0.1492
36858SOL    HW119542   1.177   7.524  10.932  1.3188  1.8935  0.3016
36858SOL    HW219543   1.068   7.628  10.940 -0.5794 -0.0071 -0.1182
36859SOL     OW19544  10.624   3.515   5.159  0.7030  0.2287  0.1533
36859SOL    HW119545  10.537   3.546   5.134 -0.6615 -2.9400  0.4886
36859SOL    HW219546  10.631   3.535   5.252  0.7000  1.2379 -0.0554
36860SOL     OW19547  12.435  10.400   1.441  0.5410 -0.0562  0.4202
36860SOL    HW119548  12.449  10.377   1.349  0.0456 -0.4402  0.4339
36860SOL    HW219549  12.497  10.470   1.458  1.1502 -0.4805 -0.0067
36861SOL     OW19550   0.273   4.641   1.250  0.1188 -0.4096 -0.4211
36861SOL    HW119551   0.351   4.629   1.195  0.4218  0.5304 -0.2041
36861SOL    HW219552   0.224   4.711   1.207  1.4313  1.9206  1.6299
36862SOL     OW19553   9.500   9.579   9.878 -0.3790  0.5744  0.4001
36862SOL    HW119554   9.476   9.502   9.930  0.2588  0.6856  0.8631
36862SOL    HW219555   9.554   9.544   9.807  1.4754  0.7892  1.6548
36863SOL     OW19556   3.625   7.212   9.895 -0.2939 -0.2915 -0.1275
36863SOL    HW119557   3.718   7.200   9.877 -0.2552 -1.1284  0.5434
36863SOL    HW219558   3.582   7.197   9.811  0.1487 -0.2873 -0.3570
36864SOL     OW19559  10.062   0.891   2.331  0.0431 -0.0921  0.1402
36864SOL    HW119560  10.049   0.956   2.261 -1.3032  0.3976  0.8096
36864SOL    HW219561  10.104   0.940   2.401  1.1893 -0.5331 -0.2080
36865SOL     OW19562   6.996  10.804   1.157 -0.1794  0.1124  0.1165
36865SOL    HW119563   7.053  10.879   1.173  1.2823 -0.9917  0.3545
36865SOL    HW219564   7.010  10.747   1.233  0.0438 -1.1537 -0.8449
36866SOL     OW19565  12.258   2.673   4.385 -0.1939  0.0264  0.1470
36866SOL    HW119566  12.290   2.764   4.384 -1.7269  0.6107  1.5105
36866SOL    HW219567  12.203   2.667   4.307 -0.3422  0.3660  0.2222
36867SOL     OW19568  10.841   6.749   1.145 -0.2863  0.7697  0.3574
36867SOL    HW119569  10.888   6.678   1.188 -1.4521 -0.6870 -0.6609
36867SOL    HW219570  10.828   6.814   1.214  1.6694  0.4811  1.0778
36868SOL     OW19571   6.259  11.854   9.819  0.2457  0.4817 -0.2835
36868SOL    HW119572   6.352  11.860   9.797  0.6469 -0.3652  1.0759
36868SOL    HW219573   6.227  11.944   9.812  1.5980  1.1016  0.9996
36869SOL     OW19574   2.833   8.491   2.893 -0.0478  0.0259 -0.2320
36869SOL    HW119575   2.818   8.565   2.834  0.7548 -1.0666 -1.8597
36869SOL    HW219576   2.919   8.457   2.867 -0.2660 -1.2894  0.7074
36870SOL     OW19577   4.316   0.349   1.247  0.6482  0.0865  0.2778
36870SOL    HW119578   4.345   0.418   1.188  0.4202  1.1964  1.4064
36870SOL    HW219579   4.246   0.304   1.200  0.7526  0.6768 -0.4541
36871SOL     OW19580   9.721   7.056   2.574  0.1654 -0.0183  0.0222
36871SOL    HW119581   9.773   7.102   2.509 -0.6763 -0.8262 -1.2828
36871SOL    HW219582   9.700   7.122   2.640  2.3978  0.4270  0.3469
36872SOL     OW19583   5.258  10.534   0.503 -0.4143  0.1459  0.0178
36872SOL    HW119584   5.351  10.531   0.482 -0.0290  0.4949  1.5438
36872SOL    HW219585   5.231  10.623   0.479  0.1965  0.7924  1.6057
36873SOL     OW19586  10.736  10.156   9.894 -0.4375 -0.4985  0.3389
36873SOL    HW119587  10.825  10.191   9.885 -0.5714 -0.6515 -2.3907
36873SOL    HW219588  10.682  10.232   9.915 -0.1863  0.3753 -1.9067
36874SOL     OW19589  11.949  12.413   2.266  0.1885 -0.0592  0.8145
36874SOL    HW119590  11.956  12.321   2.241 -1.2913  0.0027  0.0592
36874SOL    HW219591  12.034  12.451   2.243  0.3202 -0.9322 -0.2290
36875SOL     OW19592   0.157   4.369   6.924  0.1824 -0.6216 -0.6577
36875SOL    HW119593   0.113   4.309   6.983  2.4532 -0.8522  0.9467
36875SOL    HW219594   0.093   4.439   6.908 -0.9926 -1.2806  0.9310
36876SOL     OW19595   5.712   1.328   3.252  0.0140 -0.2738  0.4862
36876SOL    HW119596   5.747   1.256   3.304  0.6305  0.2907  0.8761
36876SOL    HW219597   5.789   1.366   3.209 -0.3965 -0.2806 -0.2694
36877SOL     OW19598  11.004   7.171   4.387  0.2888  0.2461  0.6068
36877SOL    HW119599  11.082   7.210   4.348  0.6270 -1.0359 -0.0495
36877SOL    HW219600  10.939   7.242   4.387  1.1276  1.0324  0.2189
36878SOL     OW19601   5.862   2.806   7.497  0.0585  0.1623  0.4714
36878SOL    HW119602   5.917   2.739   7.457  0.1218  0.9985 -0.8815
36878SOL    HW219603   5.824   2.854   7.424 -1.3801  0.5077  1.3845
36879SOL     OW19604   0.793   0.718   8.800  0.9025 -0.4226 -0.1421
36879SOL    HW119605   0.860   0.783   8.776 -0.3562  1.3950  0.9664
36879SOL    HW219606   0.711   0.756   8.767 -0.1433 -0.4571  2.2416
36880SOL     OW19607   3.687   8.440   7.639 -0.5752  0.3745  0.3370
36880SOL    HW119608   3.735   8.450   7.721 -2.3614 -0.0885  1.5114
36880SOL    HW219609   3.717   8.356   7.603  0.4646  0.7403  0.3268
36881SOL     OW19610   0.853   8.238   1.764  0.3223 -0.0555 -0.3028
36881SOL    HW119611   0.899   8.166   1.808 -0.5484  0.1216  0.9507
36881SOL    HW219612   0.807   8.196   1.691  0.5072 -0.6388 -0.0924
36882SOL     OW19613   1.870   4.134   4.825  0.3290  0.0688 -0.4505
36882SOL    HW119614   1.945   4.090   4.785  1.2084  2.1038 -1.1684
36882SOL    HW219615   1.797   4.116   4.766  0.5957 -0.6605 -0.5612
36883SOL     OW19616   0.436   7.715  11.174  0.8272 -0.5122 -0.0558
36883SOL    HW119617   0.381   7.663  11.116  1.7186 -0.7734 -0.6844
36883SOL    HW219618   0.389   7.798  11.184 -0.6563 -1.4237  1.0299
36884SOL     OW19619   6.375   9.415   4.043 -0.2224 -0.4602  0.2212
36884SOL    HW119620   6.321   9.336   4.044 -0.6622 -0.1607  0.3891
36884SOL    HW219621   6.465   9.382   4.045 -0.4041 -0.9495  0.5902
36885SOL     OW19622   3.007   0.333   2.750  0.0660 -0.3890  0.0731
36885SOL    HW119623   3.077   0.380   2.704 -0.6627  0.8763  0.2022
36885SOL    HW219624   2.989   0.257   2.696  0.6331 -0.0203 -0.6535
36886SOL     OW19625   8.877   3.334  11.231 -0.0469 -0.4129 -0.5491
36886SOL    HW119626   8.945   3.401  11.229  0.2260 -0.6937 -2.1982
36886SOL    HW219627   8.892   3.281  11.152 -1.6174 -1.0293 -0.4867
36887SOL     OW19628   8.030  10.954   1.576 -0.1182 -0.1823 -0.0612
36887SOL    HW119629   8.043  10.875   1.524 -0.9955 -0.0331 -0.5251
36887SOL    HW219630   8.032  11.026   1.513  0.3808  0.1463  0.3194
36888SOL     OW19631   3.435  10.524   8.559  0.0145  0.0226  0.4073
36888SOL    HW119632   3.500  10.588   8.587  0.3499  0.3443 -1.0137
36888SOL    HW219633   3.470  10.440   8.588  0.4283  0.3115  0.7651
36889SOL     OW19634   1.696   4.909  11.160  0.6059 -0.2620 -0.0878
36889SOL    HW119635   1.780   4.875  11.189  0.4968  0.1222  0.7058
36889SOL    HW219636   1.633   4.839  11.182  0.4337  0.2747  1.2117
36890SOL     OW19637   0.987   0.285  12.369  0.1870 -0.7016  0.7654
36890SOL    HW119638   1.072   0.304  12.411  1.2946  1.3146 -2.0401
36890SOL    HW219639   0.995   0.194  12.341  0.9580 -0.8903  1.5183
36891SOL     OW19640  10.492   6.111   7.797 -0.5440 -0.0526  0.4104
36891SOL    HW119641  10.526   6.029   7.833 -1.5673 -1.0123 -0.7344
36891SOL    HW219642  10.564   6.173   7.806  0.2149 -1.0468  1.3894
36892SOL     OW19643   1.425   2.485   6.800 -0.0782  1.0452 -0.0076
36892SOL    HW119644   1.487   2.487   6.726 -1.2272  1.5895 -0.9917
36892SOL    HW219645   1.466   2.427   6.864  0.2854 -0.6827 -1.7116
36893SOL     OW19646   6.400   0.947   7.808  0.1561  0.5041 -0.2079
36893SOL    HW119647   6.384   0.966   7.901  2.0988  0.1516  0.2499
36893SOL    HW219648   6.314   0.957   7.767 -0.9186 -0.0441  1.7384
36894SOL     OW19649   4.132  10.217   2.179 -0.3796  0.1791 -0.1141
36894SOL    HW119650   4.113  10.129   2.211 -1.9069  0.5256  0.0102
36894SOL    HW219651   4.160  10.265   2.256  0.8266 -0.2731 -0.2485
36895SOL     OW19652   2.943   2.389   9.091  0.3739  0.2675 -0.4254
36895SOL    HW119653   2.876   2.458   9.084 -0.9283 -0.7036  1.4683
36895SOL    HW219654   2.993   2.413   9.169 -0.0602 -0.8759  0.2267
36896SOL     OW19655  11.544   6.780   5.144 -0.8526  0.0989 -0.1637
36896SOL    HW119656  11.545   6.815   5.055  1.4720  1.6004  0.3692
36896SOL    HW219657  11.494   6.843   5.195  0.2780  0.8025  0.1086
36897SOL     OW19658   3.305   7.741   0.667  0.6676 -0.4896 -0.2983
36897SOL    HW119659   3.248   7.669   0.642 -0.1927  0.0260  0.1254
36897SOL    HW219660   3.276   7.815   0.613 -0.3753  0.2919  1.2662
36898SOL     OW19661   8.633   9.813   5.828  0.4862 -0.1181  0.4183
36898SOL    HW119662   8.630   9.906   5.847  1.1444 -0.1362  0.6364
36898SOL    HW219663   8.653   9.808   5.734  2.1936 -0.0330  0.7543
36899SOL     OW19664   6.220  11.832   1.030 -0.4242 -0.2086 -0.1462
36899SOL    HW119665   6.310  11.803   1.046 -0.3814  0.2681  0.5442
36899SOL    HW219666   6.179  11.759   0.984 -0.0032 -0.8992  0.5437
36900SOL     OW19667  11.308  12.438   1.381  0.3127 -0.3521  0.2437
36900SOL    HW119668  11.333  12.350   1.353 -1.2489 -0.6189 -0.4579
36900SOL    HW219669  11.217  12.447   1.351  0.2637  1.2928  0.7964
36901SOL     OW19670   4.325   2.400   5.698 -0.3936 -0.0415  0.8208
36901SOL    HW119671   4.351   2.334   5.633  0.9580 -0.2372  1.5371
36901SOL    HW219672   4.237   2.373   5.725 -0.1823 -1.0974  0.5147
36902SOL     OW19673   1.726   4.500   0.993 -0.2440 -0.0833 -0.2505
36902SOL    HW119674   1.784   4.451   1.051  1.3176  1.4408 -0.4674
36902SOL    HW219675   1.783   4.534   0.924 -1.2415  2.0171 -0.1209
36903SOL     OW19676  12.411   9.453   8.325  0.1402 -0.6318  0.6564
36903SOL    HW119677  12.442   9.543   8.320 -0.2222 -0.4382  1.6944
36903SOL    HW219678  12.491   9.400   8.325  0.3794 -0.2683  0.8349
36904SOL     OW19679   3.886   6.831   6.690  0.2529  0.5956 -0.0222
36904SOL    HW119680   3.937   6.872   6.620 -0.4865 -1.5836 -1.9348
36904SOL    HW219681   3.807   6.799   6.648 -1.6955  1.8528  2.4475
36905SOL     OW19682  10.162   6.238   0.670 -0.1758  0.7180  0.0174
36905SOL    HW119683  10.221   6.210   0.739 -2.2228  1.8796  2.3886
36905SOL    HW219684  10.138   6.328   0.693 -3.7082 -0.0372 -0.0721
36906SOL     OW19685   8.388   8.533   1.460 -0.3025 -0.6495 -0.1088
36906SOL    HW119686   8.444   8.456   1.472  0.9176  0.3467  0.7171
36906SOL    HW219687   8.411   8.592   1.531 -0.3382  1.0066 -1.3958
36907SOL     OW19688   9.025   1.955   8.817  0.3978 -0.3875 -0.6021
36907SOL    HW119689   9.039   1.923   8.906  0.1161  1.2875  0.0861
36907SOL    HW219690   9.094   1.914   8.765  1.4001 -0.3613  0.6655
36908SOL     OW19691   5.991   0.069   7.184  0.2751 -0.2695 -0.1279
36908SOL    HW119692   5.939   0.045   7.260  1.9138  2.0458  1.8599
36908SOL    HW219693   6.056  -0.001   7.176  0.9436  0.1255  1.5144
36909SOL     OW19694   9.111   4.060   8.475 -0.5217 -0.2747 -0.3303
36909SOL    HW119695   9.087   4.150   8.454 -2.1122 -0.4279  0.6385
36909SOL    HW219696   9.146   4.065   8.564  0.1325 -0.5056 -0.5729
36910SOL     OW19697   7.804   7.274   6.298 -0.0034  0.0606 -0.0291
36910SOL    HW119698   7.736   7.325   6.341  2.1774  1.0739  2.4554
36910SOL    HW219699   7.810   7.312   6.210 -2.2038  0.2882 -0.1400
36911SOL     OW19700   3.423   5.724   9.263 -0.2612 -0.3313 -0.4695
36911SOL    HW119701   3.509   5.711   9.224  0.3188  2.4937 -0.3921
36911SOL    HW219702   3.433   5.698   9.354  0.3272 -0.6005 -0.6089
36912SOL     OW19703   4.679  11.805   8.176 -0.4782 -0.1716 -0.2027
36912SOL    HW119704   4.617  11.870   8.208 -1.4610 -0.9349 -0.5151
36912SOL    HW219705   4.663  11.801   8.082 -0.3997 -0.8363 -0.1912
36913SOL     OW19706   8.707  11.393   4.536  0.5952  0.8914  0.0984
36913SOL    HW119707   8.759  11.365   4.611  1.2937  0.8897 -0.3801
36913SOL    HW219708   8.630  11.337   4.538  0.2022  1.4494  1.2946
36914SOL     OW19709  11.885   5.336   5.868 -0.4278  0.6198 -0.2506
36914SOL    HW119710  11.791   5.352   5.864 -0.2194  1.9923 -0.0448
36914SOL    HW219711  11.921   5.414   5.910  0.8507  0.2882 -0.6908
36915SOL     OW19712   2.306   8.887   2.640 -0.2466  0.3837  0.6002
36915SOL    HW119713   2.318   8.917   2.550  0.0538  0.2124  0.5797
36915SOL    HW219714   2.366   8.941   2.691  1.9835 -1.6031  0.2813
36916SOL     OW19715  11.011  10.730   1.237  0.2326 -0.5195  0.3881
36916SOL    HW119716  11.040  10.760   1.151  0.5672 -0.3260  0.5670
36916SOL    HW219717  10.924  10.768   1.247  0.0195 -0.8857 -0.0405
36917SOL     OW19718  10.111  11.839   9.462 -0.6591 -0.1393  0.3414
36917SOL    HW119719  10.023  11.826   9.498 -0.3668 -0.7482  0.8566
36917SOL    HW219720  10.137  11.925   9.494 -1.4185  0.4478 -0.5691
36918SOL     OW19721   9.261  10.047   2.845 -0.2064 -0.0664 -0.2164
36918SOL    HW119722   9.229  10.075   2.931  0.2844  1.2655 -0.4579
36918SOL    HW219723   9.270  10.127   2.795 -1.2100 -0.8839 -1.7904
36919SOL     OW19724   2.558   8.068   3.196  0.2277  0.3259 -0.3839
36919SOL    HW119725   2.526   8.129   3.129  0.0968  1.3830  0.6005
36919SOL    HW219726   2.536   8.110   3.279  0.7484 -0.7604  0.3353
36920SOL     OW19727   4.457  12.044   5.012  0.1629 -0.4506  0.0465
36920SOL    HW119728   4.429  11.979   4.948 -1.3715 -0.1277  0.3659
36920SOL    HW219729   4.482  11.993   5.089 -1.7255 -0.6812  0.5560
36921SOL     OW19730   9.628   2.512  11.706 -0.3626 -0.4497  0.1281
36921SOL    HW119731   9.615   2.431  11.657  0.1724  0.0419 -0.8381
36921SOL    HW219732   9.626   2.581  11.640  1.0857  0.1676  0.6875
36922SOL     OW19733   5.619  12.570   6.667  0.0808  0.1280  0.2323
36922SOL    HW119734   5.659  12.641   6.617 -1.3471  1.1047  0.4260
36922SOL    HW219735   5.693  12.514   6.692  1.0230  0.5622 -1.4438
36923SOL     OW19736  12.173   7.077   4.779 -0.2275  0.1783  0.3570
36923SOL    HW119737  12.214   7.156   4.743 -1.8068  1.1168  0.5132
36923SOL    HW219738  12.103   7.057   4.717 -1.1144  0.0864  1.3682
36924SOL     OW19739   9.768   3.408   0.086  0.1517 -0.0732  1.0892
36924SOL    HW119740   9.723   3.475   0.137 -2.1840  0.2708 -1.1987
36924SOL    HW219741   9.705   3.336   0.079  0.5882 -0.3267 -0.7770
36925SOL     OW19742   3.997   9.834   9.619 -0.2733 -0.3225  0.7014
36925SOL    HW119743   4.040   9.863   9.538  1.7334 -1.3292  1.3358
36925SOL    HW219744   3.936   9.904   9.640  0.4114  0.7709 -0.7656
36926SOL     OW19745  11.060   0.672   8.036  0.3484 -0.5444 -0.2334
36926SOL    HW119746  10.990   0.662   8.100  1.3875  0.2055  1.0557
36926SOL    HW219747  11.077   0.766   8.033  0.3650 -0.5707 -1.5826
36927SOL     OW19748   0.364   1.812   2.124  0.2883  0.4207  0.5469
36927SOL    HW119749   0.277   1.849   2.140 -1.5459 -1.7942 -2.9491
36927SOL    HW219750   0.355   1.720   2.149  2.0247  0.3596  1.0986
36928SOL     OW19751  12.547  10.023   0.187  0.3264  0.3567 -0.1714
36928SOL    HW119752  12.459  10.019   0.148  0.3518 -1.9021 -0.1381
36928SOL    HW219753  12.531  10.044   0.279 -0.1124  0.8136 -0.3465
36929SOL     OW19754   6.120  12.477  10.284  0.8547 -0.1155  0.6138
36929SOL    HW119755   6.139  12.384  10.298  0.0870 -0.1690  1.3388
36929SOL    HW219756   6.172  12.500  10.206 -0.3617 -1.6071 -0.7269
36930SOL     OW19757   8.545   6.566   8.039  0.1471  0.2399  0.5018
36930SOL    HW119758   8.509   6.590   7.954  0.3351 -1.0312  0.0487
36930SOL    HW219759   8.493   6.616   8.102  1.0255  2.4010 -0.4152
36931SOL     OW19760   5.496  11.263   8.086  0.0967  0.3242  0.1638
36931SOL    HW119761   5.494  11.173   8.052  1.4144 -0.4079  1.8931
36931SOL    HW219762   5.405  11.292   8.080 -0.2043 -0.7582 -1.2891
36932SOL     OW19763   1.371   2.809  11.101 -0.0171 -0.2701 -0.2085
36932SOL    HW119764   1.340   2.861  11.028 -1.7325 -0.9408 -0.0017
36932SOL    HW219765   1.466   2.823  11.102 -0.1945  1.2335 -1.3656
36933SOL     OW19766   9.352   8.020   0.750  0.2359 -0.2518 -0.0032
36933SOL    HW119767   9.350   7.929   0.779  0.2340 -0.9333 -1.9590
36933SOL    HW219768   9.300   8.068   0.815 -0.3641 -1.7651  0.6715
36934SOL     OW19769   5.823   4.799   4.684 -0.1276  0.1898  0.2467
36934SOL    HW119770   5.839   4.892   4.701 -1.5144  0.3411  0.8172
36934SOL    HW219771   5.737   4.796   4.643  0.0022 -0.8315  0.0106
36935SOL     OW19772   8.700   8.721   8.986  0.2079  0.3478 -0.0961
36935SOL    HW119773   8.718   8.639   8.939  0.2130  0.9054 -1.0998
36935SOL    HW219774   8.785   8.746   9.023  0.1084 -0.3349  0.6209
36936SOL     OW19775  11.367   8.059   5.819 -0.2054  0.4201  0.0565
36936SOL    HW119776  11.432   8.092   5.880 -0.7110 -0.3577  1.0485
36936SOL    HW219777  11.409   8.066   5.733  0.8078  0.8290  0.5675
36937SOL     OW19778   1.825   3.175   2.651 -0.0576  0.3702  0.1018
36937SOL    HW119779   1.751   3.168   2.591  0.6471 -1.0929 -0.6664
36937SOL    HW219780   1.817   3.262   2.690 -1.6433  0.5926 -0.6483
36938SOL     OW19781   0.189   0.106   0.419  0.5065 -0.0004  0.9081
36938SOL    HW119782   0.265   0.080   0.471  1.4829  0.8115 -0.0884
36938SOL    HW219783   0.218   0.182   0.369  0.1376 -1.7069 -2.1094
36939SOL     OW19784   3.052  11.393   0.207  0.2134 -0.4385 -0.2307
36939SOL    HW119785   3.112  11.461   0.178  1.3958 -1.1099  0.5452
36939SOL    HW219786   3.029  11.417   0.297 -0.2167 -0.4923 -0.3230
36940SOL     OW19787  11.687   4.222   7.851 -0.6542  0.6453  0.1196
36940SOL    HW119788  11.691   4.144   7.908 -0.8822  1.3167  1.0814
36940SOL    HW219789  11.593   4.240   7.844 -0.6068  0.7681 -0.2077
36941SOL     OW19790  10.243   3.456  10.355 -0.2439  0.2233 -0.2359
36941SOL    HW119791  10.181   3.529  10.354  1.2735  1.6681  1.8720
36941SOL    HW219792  10.305   3.476  10.284 -0.8672 -0.0220 -0.8587
36942SOL     OW19793   6.533   3.299   8.080 -0.7581  0.4508  0.4931
36942SOL    HW119794   6.475   3.243   8.028  0.5605 -0.3095 -0.2404
36942SOL    HW219795   6.547   3.251   8.161 -0.2553  0.0656  0.1884
36943SOL     OW19796   6.737  11.710   5.859  0.1215 -0.3770  0.2970
36943SOL    HW119797   6.780  11.637   5.904  0.3104 -1.1749 -1.1265
36943SOL    HW219798   6.680  11.749   5.926  1.2812 -0.7651  1.5556
36944SOL     OW19799   5.657   3.504   5.796 -0.0701 -0.3202 -0.4882
36944SOL    HW119800   5.676   3.493   5.703 -2.1618  1.4860 -1.1881
36944SOL    HW219801   5.717   3.574   5.824  1.9475 -2.1593  0.0932
36945SOL     OW19802   3.328   3.970   3.363 -0.4711  0.5924  0.1513
36945SOL    HW119803   3.265   4.022   3.413  2.1421  0.7407  3.7026
36945SOL    HW219804   3.317   3.881   3.396  0.1658  0.3412 -0.2963
36946SOL     OW19805  12.584   3.473   2.900  0.0276  0.8667 -0.0062
36946SOL    HW119806  12.507   3.440   2.947  0.6423 -0.7018 -0.0397
36946SOL    HW219807  12.575   3.437   2.811  0.1131  1.8152 -0.4150
36947SOL     OW19808   3.791   2.089  10.109 -0.8000  0.0984  0.2519
36947SOL    HW119809   3.734   2.166  10.124 -2.0356 -0.5820 -0.6943
36947SOL    HW219810   3.775   2.033  10.184  0.2782  0.8445  1.0626
36948SOL     OW19811   2.329   6.613   8.307  0.4456 -0.4003 -0.1111
36948SOL    HW119812   2.274   6.660   8.370 -1.1008 -0.5114 -1.3312
36948SOL    HW219813   2.328   6.667   8.229  1.2555 -0.9174 -0.4893
36949SOL     OW19814   4.832   1.676   3.816  0.2238 -0.1198  0.3443
36949SOL    HW119815   4.834   1.635   3.729  0.1796 -0.7283  0.6247
36949SOL    HW219816   4.779   1.755   3.804 -0.0604 -0.3736 -0.1045
36950SOL     OW19817   3.725  11.700   0.731 -0.2294 -0.3459 -0.0160
36950SOL    HW119818   3.741  11.776   0.676  1.3514 -0.9906 -0.5022
36950SOL    HW219819   3.754  11.727   0.818  4.0863 -1.5286 -0.8997
36951SOL     OW19820   6.395   7.382  10.686  0.2108 -0.1795  0.2329
36951SOL    HW119821   6.472   7.420  10.727  1.1787  0.3938 -1.9662
36951SOL    HW219822   6.416   7.289  10.677  0.1529 -0.2349  0.6429
36952SOL     OW19823   4.942   0.936   1.160 -0.5483  0.0742 -0.3310
36952SOL    HW119824   4.887   0.968   1.232  0.0724  0.3129  0.0382
36952SOL    HW219825   5.004   0.876   1.202  0.0761  0.5268 -0.6024
36953SOL     OW19826   1.894   9.399   9.552 -0.0189  0.3968 -0.0135
36953SOL    HW119827   1.948   9.462   9.505 -0.2269  0.5733 -0.0117
36953SOL    HW219828   1.816   9.388   9.499  0.5480 -0.8044 -0.6617
36954SOL     OW19829   1.363  10.436   3.083  0.2569  0.0711  0.6692
36954SOL    HW119830   1.405  10.409   3.001  0.9020  0.5221  0.8371
36954SOL    HW219831   1.336  10.355   3.125  0.0340 -0.1678  0.0691
36955SOL     OW19832   7.344   1.057  10.809  0.9726  0.1729  0.3662
36955SOL    HW119833   7.336   1.147  10.778  0.9932  0.6613  1.7114
36955SOL    HW219834   7.324   1.062  10.902 -0.3981 -1.4328  0.2118
36956SOL     OW19835   1.116  12.504   2.527  0.2591 -0.1002 -0.8926
36956SOL    HW119836   1.088  12.482   2.438 -0.9549  0.5743 -0.7068
36956SOL    HW219837   1.143  12.596   2.521 -1.6074  0.5338 -0.2155
36957SOL     OW19838   9.435  12.231   5.714  0.5277  0.4738  0.0961
36957SOL    HW119839   9.376  12.156   5.726  0.3190  0.8526  1.5927
36957SOL    HW219840   9.484  12.209   5.635 -0.4514 -0.6273 -0.2442
36958SOL     OW19841   1.254   9.867   1.660 -0.2762 -0.3639 -0.3959
36958SOL    HW119842   1.279   9.882   1.751 -1.4291  0.3121 -0.1602
36958SOL    HW219843   1.175   9.812   1.666 -0.5112 -0.0974 -0.9677
36959SOL     OW19844   7.050  11.208   9.222  0.3898 -0.4563  0.2497
36959SOL    HW119845   6.984  11.277   9.213 -0.9782 -1.7593 -0.0045
36959SOL    HW219846   7.118  11.248   9.276 -0.4782  1.0114  0.3210
36960SOL     OW19847   0.353   8.210   5.836 -0.3025 -0.1661 -0.1865
36960SOL    HW119848   0.271   8.175   5.870  0.7157 -2.4215  0.0797
36960SOL    HW219849   0.345   8.202   5.741 -1.3240  1.9198 -0.3268
36961SOL     OW19850   2.792   4.739   4.421  0.0341 -0.4019 -0.5301
36961SOL    HW119851   2.803   4.704   4.332  0.5287 -1.3536 -0.1050
36961SOL    HW219852   2.839   4.678   4.477 -0.5337  0.0194  0.4313
36962SOL     OW19853   1.628  11.291  11.520  0.5777 -0.2181  0.0217
36962SOL    HW119854   1.558  11.229  11.541  0.8300 -0.1462  1.1790
36962SOL    HW219855   1.671  11.307  11.604  1.8637 -0.1040 -0.6306
36963SOL     OW19856   3.268  11.152   4.790 -0.1361 -0.8081 -0.0748
36963SOL    HW119857   3.273  11.066   4.832  1.1175 -0.0447  1.4595
36963SOL    HW219858   3.177  11.179   4.803 -0.3751 -1.6238  0.0113
36964SOL     OW19859   2.395   0.979   2.441 -0.5952 -0.3712 -0.0672
36964SOL    HW119860   2.302   0.984   2.464 -0.4931  0.9390  0.1615
36964SOL    HW219861   2.419   0.888   2.457 -0.9496  0.0268  3.4604
36965SOL     OW19862   9.012   1.714   1.346  0.3876  0.3580  0.3123
36965SOL    HW119863   9.042   1.751   1.263  0.6194 -0.5483 -0.0245
36965SOL    HW219864   8.920   1.692   1.331 -0.0991  1.8922  0.9075
36966SOL     OW19865   6.561  11.317   4.176  0.4554 -0.3593 -0.2533
36966SOL    HW119866   6.557  11.399   4.226 -1.7182 -1.6244  1.8499
36966SOL    HW219867   6.566  11.248   4.242 -1.7175 -2.1156 -1.7492
36967SOL     OW19868  12.006  11.349   9.073 -0.3211  0.2077  0.0895
36967SOL    HW119869  12.052  11.406   9.134 -0.6401 -0.5492  1.0585
36967SOL    HW219870  12.057  11.268   9.073 -0.1221  0.3236 -0.9306
36968SOL     OW19871   0.734  12.132   6.870 -0.0204  0.2926 -0.1542
36968SOL    HW119872   0.802  12.139   6.936 -0.8288 -1.1334  0.8685
36968SOL    HW219873   0.671  12.070   6.906 -1.7877  1.4151 -1.1445
36969SOL     OW19874   1.450   8.308   4.812  0.4756  0.2234  0.2359
36969SOL    HW119875   1.392   8.330   4.739  0.4730  0.6713  0.3742
36969SOL    HW219876   1.538   8.328   4.780  0.6642 -1.2801 -0.2996
36970SOL     OW19877   0.620  11.358   7.079 -0.1620 -0.5931  0.2937
36970SOL    HW119878   0.535  11.337   7.118 -0.5536 -0.9275 -0.7236
36970SOL    HW219879   0.639  11.285   7.021 -0.4816  0.7212 -1.5747
36971SOL     OW19880   8.129   5.328   0.795  0.2697  0.3404 -0.2009
36971SOL    HW119881   8.119   5.364   0.884  0.9909  1.6523 -0.6134
36971SOL    HW219882   8.220   5.297   0.792  0.2907  0.4330 -0.5211
36972SOL     OW19883  10.432   0.204   5.644 -0.8071  0.4025  0.1908
36972SOL    HW119884  10.427   0.297   5.666  0.1850  0.7976 -1.1401
36972SOL    HW219885  10.478   0.165   5.719  1.0077  1.4286 -0.3243
36973SOL     OW19886   2.479   1.012   0.872  0.5729 -0.3145 -0.1372
36973SOL    HW119887   2.385   0.996   0.867  0.2752  1.2607 -0.1143
36973SOL    HW219888   2.515   0.932   0.911 -0.7416 -0.9591 -0.1891
36974SOL     OW19889   0.030   7.798   0.434 -0.6895  0.0038  0.1854
36974SOL    HW119890  -0.033   7.816   0.504  0.2425  0.0297  1.0415
36974SOL    HW219891   0.007   7.859   0.365 -1.6307 -0.0228  0.4559
36975SOL     OW19892  11.869   8.702   3.929  0.2613 -0.5432 -0.7087
36975SOL    HW119893  11.957   8.739   3.933 -0.7217  2.0351 -0.9083
36975SOL    HW219894  11.869   8.629   3.991  1.9145  0.7864  0.9119
36976SOL     OW19895   4.993  12.246   3.125  0.1702  0.0043 -0.5362
36976SOL    HW119896   5.076  12.206   3.151  0.2957  0.5518 -0.0832
36976SOL    HW219897   4.972  12.205   3.041  0.6194 -0.5379 -0.3911
36977SOL     OW19898   1.788   2.309  10.808  0.4161  1.1072  0.6148
36977SOL    HW119899   1.737   2.388  10.791  0.7083  0.9582 -1.1286
36977SOL    HW219900   1.726   2.250  10.851 -0.6416  1.2723 -0.6006
36978SOL     OW19901   7.567  10.855   2.970 -0.1994 -0.4183  0.2090
36978SOL    HW119902   7.556  10.884   3.061 -0.9844 -0.1896  0.0462
36978SOL    HW219903   7.651  10.809   2.970  1.5076  2.4347  0.3443
36979SOL     OW19904   8.864   2.741   5.589  0.6282  0.2165 -0.0556
36979SOL    HW119905   8.846   2.707   5.677  1.3788 -0.8996 -0.3098
36979SOL    HW219906   8.826   2.829   5.589 -0.2672 -0.1456  1.0480
36980SOL     OW19907   6.104   5.473   0.347 -0.5979 -0.1467  0.2798
36980SOL    HW119908   6.071   5.458   0.435 -0.4152  0.9635  0.5598
36980SOL    HW219909   6.082   5.565   0.329 -0.3674 -0.2750 -0.7106
36981SOL     OW19910   4.777  11.050  10.906 -0.1004 -0.1244 -0.6007
36981SOL    HW119911   4.703  11.046  10.845 -2.2958  0.2032  1.8825
36981SOL    HW219912   4.775  10.965  10.951  0.3808  0.2759  0.1915
36982SOL     OW19913   2.689   1.431   4.692  0.0164 -0.4377 -0.1340
36982SOL    HW119914   2.603   1.472   4.703  0.4995  1.0658 -1.5389
36982SOL    HW219915   2.671   1.337   4.693 -1.7735 -0.1542 -1.1951
36983SOL     OW19916   0.307  10.320  10.961 -0.0374  0.7266  0.0812
36983SOL    HW119917   0.374  10.300  11.027 -1.1543  0.3123  1.1114
36983SOL    HW219918   0.226  10.327  11.010 -0.8788  0.5774 -1.2461
36984SOL     OW19919   4.071   8.315   4.684 -0.7687 -0.4720  0.2578
36984SOL    HW119920   4.163   8.288   4.684 -0.9658 -1.5455  3.2275
36984SOL    HW219921   4.024   8.240   4.646 -0.3982  0.8160 -3.0847
36985SOL     OW19922   7.812  10.976   6.358  0.5745  0.1524  0.0377
36985SOL    HW119923   7.791  10.931   6.276 -3.4148  3.2039 -0.9158
36985SOL    HW219924   7.750  10.941   6.421  1.3413  0.2324  0.8482
36986SOL     OW19925   3.019   3.462   6.262  0.3766  0.5553  0.3918
36986SOL    HW119926   2.992   3.376   6.294  1.0836  0.1710 -0.0083
36986SOL    HW219927   3.079   3.496   6.328  0.9658  0.2472  0.0266
36987SOL     OW19928   1.863   7.119   7.434  0.5815 -0.0419  0.1965
36987SOL    HW119929   1.897   7.047   7.489 -2.2300 -0.7046  1.2357
36987SOL    HW219930   1.808   7.075   7.369 -1.6302  1.1279  1.1904
36988SOL     OW19931   1.241   7.092   3.410 -0.3829  0.3119 -0.4753
36988SOL    HW119932   1.316   7.124   3.460 -0.2014 -0.1561 -0.4381
36988SOL    HW219933   1.263   7.111   3.318 -0.4185  0.5774 -0.4272
36989SOL     OW19934   8.214   9.790  11.337 -0.0423 -0.4660 -0.2701
36989SOL    HW119935   8.230   9.832  11.422 -1.1199  0.3017 -0.4315
36989SOL    HW219936   8.250   9.702  11.347  0.2260 -0.2448  0.8401
36990SOL     OW19937  10.290  12.412   0.208 -0.7425 -0.0057 -0.3404
36990SOL    HW119938  10.231  12.426   0.133  0.1297 -0.3392 -1.1007
36990SOL    HW219939  10.364  12.470   0.191 -1.1181  0.9068  0.9472
36991SOL     OW19940   1.616   7.384   7.524  0.1331 -0.1856 -0.6854
36991SOL    HW119941   1.681   7.387   7.455  2.1548  1.9647  1.1197
36991SOL    HW219942   1.583   7.474   7.531  1.6504  0.2929  2.4400
36992SOL     OW19943  11.317   1.049  11.768 -0.2876 -0.5113  0.1484
36992SOL    HW119944  11.393   1.102  11.793  0.0182 -1.1388  0.5959
36992SOL    HW219945  11.354   0.977  11.717 -0.6457 -0.5175 -0.1004
36993SOL     OW19946  12.426   0.275  12.030 -0.3764 -0.2848  0.2890
36993SOL    HW119947  12.498   0.334  12.050 -1.7190  0.6945  2.5412
36993SOL    HW219948  12.380   0.316  11.956  0.7441 -0.4031 -0.4936
36994SOL     OW19949   2.368   9.324  12.090 -0.3479  0.0035  0.2499
36994SOL    HW119950   2.356   9.314  12.185 -0.4322 -1.6134  0.1037
36994SOL    HW219951   2.280   9.312  12.054 -0.4098  1.1877 -0.0015
36995SOL     OW19952   6.261   5.963  10.749  0.4951  0.3733  0.0889
36995SOL    HW119953   6.288   6.053  10.769 -0.7957  1.4307 -2.3825
36995SOL    HW219954   6.259   5.960  10.653 -3.6251 -0.8774  0.0323
36996SOL     OW19955   3.986   4.169   1.759 -0.0955  0.2156  0.2805
36996SOL    HW119956   3.964   4.079   1.783 -1.1637  0.3868 -0.0113
36996SOL    HW219957   3.946   4.182   1.673  0.6552  0.7500 -0.0003
36997SOL     OW19958  11.027   9.730   8.459 -0.2818 -0.4871  0.4034
36997SOL    HW119959  11.078   9.696   8.385  0.6996  0.7058  0.4837
36997SOL    HW219960  11.054   9.676   8.533  0.8675  0.0828  0.4313
36998SOL     OW19961   1.647   3.673  11.947  0.1862  0.0146  0.0229
36998SOL    HW119962   1.591   3.660  12.024  0.0025  0.0594 -0.1019
36998SOL    HW219963   1.602   3.626  11.877 -0.4365  1.2162 -0.4102
36999SOL     OW19964   1.234   0.655  11.995  0.7236  0.1030  0.1153
36999SOL    HW119965   1.259   0.597  11.923 -0.3407  1.1875 -1.1869
36999SOL    HW219966   1.229   0.742  11.956 -0.8611  0.5838  1.2390
37000SOL     OW19967   3.214   6.902   5.447  0.2504  0.9651  0.1848
37000SOL    HW119968   3.144   6.838   5.432  1.1518  0.2173 -1.1105
37000SOL    HW219969   3.196   6.938   5.534 -1.3009  0.2485  0.1947
37001SOL     OW19970   9.595  11.537   5.358 -0.5211 -0.0398  0.0220
37001SOL    HW119971   9.561  11.590   5.430  0.1190  1.0330 -0.4390
37001SOL    HW219972   9.619  11.454   5.399 -1.2305  0.1358  0.8253
37002SOL     OW19973  11.424   5.000   2.706  0.2219  0.4465 -0.3311
37002SOL    HW119974  11.372   4.981   2.784 -0.6996  0.4644 -0.9155
37002SOL    HW219975  11.496   5.056   2.737 -0.3238  0.7370  0.4432
37003SOL     OW19976   7.332   0.758   3.706 -0.3943 -0.1294 -0.0676
37003SOL    HW119977   7.382   0.812   3.645  3.4905 -1.7712  1.3769
37003SOL    HW219978   7.297   0.821   3.770  2.0286  0.9772  0.2853
37004SOL     OW19979   9.543   2.486   9.915 -0.0078 -0.0025  0.3709
37004SOL    HW119980   9.538   2.569   9.962  0.7780 -0.1143  0.6619
37004SOL    HW219981   9.637   2.465   9.912 -0.1700 -0.7169  0.0208
37005SOL     OW19982  11.336  11.388   6.674 -0.2561  0.7233 -0.8995
37005SOL    HW119983  11.425  11.401   6.706 -0.8143  0.7580  0.7373
37005SOL    HW219984  11.319  11.294   6.687 -1.3154  1.1444  1.3013
37006SOL     OW19985   6.791   3.866   2.150 -0.3948  0.2439 -0.3324
37006SOL    HW119986   6.817   3.932   2.085 -0.1257 -1.3254 -1.8888
37006SOL    HW219987   6.723   3.815   2.106  1.3577 -2.2915 -0.3424
37007SOL     OW19988  12.106   0.710   7.625  0.0115  0.2055 -0.4034
37007SOL    HW119989  12.158   0.632   7.645  0.1852  0.7909  1.6348
37007SOL    HW219990  12.168   0.783   7.630 -0.8808  0.9118  2.0707
37008SOL     OW19991   6.085   0.979  11.343  0.4833 -0.7673  0.5133
37008SOL    HW119992   6.071   0.931  11.262  0.9065 -0.8427  0.4850
37008SOL    HW219993   6.096   0.911  11.410  0.9264 -0.7133  0.4991
37009SOL     OW19994   0.708   3.630   0.966  0.3021  0.1078  0.1224
37009SOL    HW119995   0.623   3.663   0.996  0.0408 -1.3810  1.1532
37009SOL    HW219996   0.696   3.535   0.962  2.1799 -0.2122  1.2029
37010SOL     OW19997   1.469   5.733  12.148  0.2130  0.0523 -0.4187
37010SOL    HW119998   1.505   5.716  12.235  1.5478 -0.0651 -0.9737
37010SOL    HW219999   1.419   5.653  12.127 -0.6319  0.3218  0.4581
37011SOL     OW20000   0.841   4.264   2.092  0.4044 -0.2170 -0.9693
37011SOL    HW120001   0.924   4.227   2.062  0.0450 -0.7007 -1.3932
37011SOL    HW220002   0.819   4.330   2.026  0.0214 -0.7114 -1.3546
37012SOL     OW20003   2.146   1.660   6.373  0.2610 -0.3536 -0.0068
37012SOL    HW120004   2.086   1.649   6.447 -1.9996  1.3070 -1.4721
37012SOL    HW220005   2.148   1.755   6.358  0.8467 -0.6316 -1.9277
37013SOL     OW20006   7.170   8.046   8.447  0.3152  0.1084  0.3898
37013SOL    HW120007   7.226   7.968   8.438  1.1873  0.8149 -0.5655
37013SOL    HW220008   7.128   8.054   8.362  1.6738  1.7222 -0.1868
37014SOL     OW20009   3.723   2.722   9.200 -0.4308  0.3072  0.2766
37014SOL    HW120010   3.655   2.664   9.165  0.4557 -0.3962 -0.3180
37014SOL    HW220011   3.785   2.732   9.128  2.1766 -2.3122  1.9422
37015SOL     OW20012   6.934   0.229   3.097 -0.1721 -0.2365 -0.2482
37015SOL    HW120013   6.864   0.294   3.103 -0.5453 -0.7217  0.7345
37015SOL    HW220014   6.904   0.155   3.149  0.7505 -0.7552 -0.4183
37016SOL     OW20015   9.135   3.181  12.343  0.0714 -0.2154  0.2225
37016SOL    HW120016   9.186   3.259  12.365  0.4190 -0.2016 -0.6114
37016SOL    HW220017   9.153   3.166  12.250 -1.8163  0.0802 -0.2233
37017SOL     OW20018   8.440   1.283   6.142 -0.0477 -0.2082 -0.9267
37017SOL    HW120019   8.353   1.259   6.172  0.6248 -1.4531  0.1725
37017SOL    HW220020   8.467   1.210   6.086  1.5877 -1.6452  1.5408
37018SOL     OW20021  10.678   8.643   4.444 -0.4027 -0.5907 -0.5591
37018SOL    HW120022  10.595   8.620   4.403 -0.9508 -0.2941  0.3560
37018SOL    HW220023  10.666   8.622   4.536 -0.2517  1.4868 -0.0208
37019SOL     OW20024   1.625  12.132   1.578  0.0948  0.9843 -0.0980
37019SOL    HW120025   1.694  12.073   1.609  1.1671  1.9304 -0.6264
37019SOL    HW220026   1.669  12.190   1.516 -1.7515 -0.1587 -2.6380
37020SOL     OW20027   4.060   2.443   0.187  0.7340 -0.0130  0.7035
37020SOL    HW120028   3.996   2.479   0.249  0.0753  4.1967 -2.0129
37020SOL    HW220029   4.008   2.391   0.126  0.9796 -1.7926  1.9265
37021SOL     OW20030   3.778  11.634   3.125  0.0418  0.0736  0.1233
37021SOL    HW120031   3.731  11.683   3.192  0.6719 -0.2434  0.7995
37021SOL    HW220032   3.859  11.683   3.111  0.7513 -0.8458  0.9221
37022SOL     OW20033  12.518   2.606   8.172  0.3431 -0.3265 -0.2628
37022SOL    HW120034  12.539   2.519   8.139  0.2208  0.0241 -1.2945
37022SOL    HW220035  12.589   2.662   8.140  0.1572  0.0486 -0.0316
37023SOL     OW20036   7.216   8.586   2.435 -0.3664 -0.3168 -0.3427
37023SOL    HW120037   7.270   8.559   2.509 -1.1376 -0.0160  0.3416
37023SOL    HW220038   7.278   8.611   2.367  0.3547  0.3101  0.5332
37024SOL     OW20039   4.874   2.462   1.734 -0.1126 -0.4842  0.2969
37024SOL    HW120040   4.835   2.379   1.706  0.7469 -1.2571  1.2990
37024SOL    HW220041   4.816   2.494   1.803 -0.3916 -0.2980 -0.0219
37025SOL     OW20042   5.209   6.477   5.356 -0.0870 -0.0315 -0.0173
37025SOL    HW120043   5.147   6.420   5.310 -1.2252 -0.2582  1.7295
37025SOL    HW220044   5.180   6.566   5.334  1.2869 -0.0493 -2.2019
37026SOL     OW20045   0.359  11.117   6.279  0.1872 -0.2536  0.0502
37026SOL    HW120046   0.436  11.173   6.292 -0.2636 -0.1238  2.6623
37026SOL    HW220047   0.293  11.152   6.339 -0.8082 -2.3136  0.2532
37027SOL     OW20048   3.747   3.856   3.460  0.4475  0.1826  0.1874
37027SOL    HW120049   3.667   3.805   3.470  0.5772 -0.4766 -1.7102
37027SOL    HW220050   3.795   3.841   3.541 -1.0885  0.1571  1.1281
37028SOL     OW20051   9.102   0.919   9.457 -0.6441  0.1829  0.1720
37028SOL    HW120052   9.138   0.959   9.537 -0.6114 -0.6095  0.5602
37028SOL    HW220053   9.009   0.942   9.458 -0.6785  0.0417  0.5303
37029SOL     OW20054  11.945   0.257   7.770 -0.4331  0.2117 -0.0250
37029SOL    HW120055  11.889   0.281   7.696  0.2639 -1.0715 -1.0097
37029SOL    HW220056  11.885   0.221   7.835 -1.2602  2.7333  0.7427
37030SOL     OW20057   6.577  11.066   1.194 -0.1436 -0.1905 -0.3339
37030SOL    HW120058   6.537  11.097   1.113  0.7921  0.9715 -0.3830
37030SOL    HW220059   6.646  11.006   1.166 -0.4107 -0.4933 -0.3485
37031SOL     OW20060   5.169  10.344   2.699 -0.4452  0.1377 -0.3573
37031SOL    HW120061   5.175  10.436   2.675 -0.7986 -0.1801 -1.7414
37031SOL    HW220062   5.079  10.319   2.677 -0.1993 -0.6610 -0.5027
37032SOL     OW20063  11.700  11.649   2.071  0.8954 -0.4062 -0.4399
37032SOL    HW120064  11.619  11.630   2.119  0.2233  1.1080 -0.8955
37032SOL    HW220065  11.755  11.694   2.136 -0.1431  1.9409 -1.0803
37033SOL     OW20066   2.002   5.274  12.275  0.1756  0.3646 -0.7836
37033SOL    HW120067   1.912   5.245  12.286 -0.5037  2.1260 -1.3655
37033SOL    HW220068   2.038   5.217  12.207 -0.7095  0.1233 -1.0512
37034SOL     OW20069  10.434   4.761   8.724 -0.4737  0.1528 -0.7384
37034SOL    HW120070  10.433   4.669   8.700  0.7526 -0.0074 -0.2345
37034SOL    HW220071  10.520   4.775   8.764 -1.4892  0.9949  1.2539
37035SOL     OW20072   7.949   2.674   6.527 -0.4245  0.2880  0.2271
37035SOL    HW120073   7.906   2.620   6.594 -0.5953 -0.3480 -0.3867
37035SOL    HW220074   7.891   2.669   6.451  0.0931  0.4773 -0.1858
37036SOL     OW20075   7.514   9.478   6.532 -0.5841 -0.5850 -0.9002
37036SOL    HW120076   7.591   9.512   6.487  0.5814 -1.3284  0.4628
37036SOL    HW220077   7.467   9.429   6.464  0.5560 -0.7868 -1.5718
37037SOL     OW20078   5.201   5.274   6.723  0.2055 -0.0680  0.2319
37037SOL    HW120079   5.110   5.243   6.721  0.5297 -1.1598 -2.1402
37037SOL    HW220080   5.246   5.217   6.661  2.5118  0.5107  1.2902
37038SOL     OW20081   6.145  12.029   5.622 -0.8058  0.5767 -0.2283
37038SOL    HW120082   6.184  11.993   5.702 -0.7308  0.2125 -0.4237
37038SOL    HW220083   6.205  12.001   5.552 -0.4047  1.6243 -0.3198
37039SOL     OW20084   0.542   4.389  10.640  0.1870  0.1458 -0.3809
37039SOL    HW120085   0.503   4.371  10.725  1.4895 -0.8666  0.0316
37039SOL    HW220086   0.612   4.452  10.658 -1.4381  2.2787 -1.1702
37040SOL     OW20087   8.220  11.031   5.610  0.2253  0.2444  0.5058
37040SOL    HW120088   8.146  11.021   5.550 -0.0965 -1.6133  1.1370
37040SOL    HW220089   8.184  11.010   5.696  1.4520 -0.5175  0.8559
37041SOL     OW20090   7.514   1.754   6.922  0.1541 -0.5236  0.6279
37041SOL    HW120091   7.527   1.831   6.978 -2.0762 -1.1631  2.1880
37041SOL    HW220092   7.500   1.789   6.835 -2.2092  1.0380  1.5384
37042SOL     OW20093   1.415   5.570   8.824 -0.4287 -0.5528  0.5776
37042SOL    HW120094   1.461   5.654   8.824  1.7440 -1.6548  0.2103
37042SOL    HW220095   1.483   5.506   8.802 -2.1722 -2.3315  0.0856
37043SOL     OW20096   9.990   2.583   7.900  0.0630 -0.1039 -0.3360
37043SOL    HW120097  10.049   2.558   7.829  1.8870 -1.1016  1.4131
37043SOL    HW220098  10.014   2.674   7.919  0.5584 -0.2688 -0.1324
37044SOL     OW20099   3.452   8.999   9.491  0.0774  0.0362 -0.9974
37044SOL    HW120100   3.486   8.972   9.576 -1.2158 -1.9141 -1.0213
37044SOL    HW220101   3.375   9.051   9.511 -0.0015 -0.0902 -0.9713
37045SOL     OW20102   1.950   8.147   5.627  0.3411 -0.2857 -0.3449
37045SOL    HW120103   1.866   8.194   5.629 -0.0180 -0.8484 -1.2797
37045SOL    HW220104   1.988   8.162   5.713 -1.2411 -0.9368  0.5168
37046SOL     OW20105   7.989   4.024   0.883  0.4420 -0.4986  0.1505
37046SOL    HW120106   7.970   4.101   0.937  3.3158  0.2129  0.3223
37046SOL    HW220107   8.065   3.984   0.924  1.6565 -0.9316 -2.3322
37047SOL     OW20108   6.997   0.001  11.249 -0.9990 -0.4712 -0.1895
37047SOL    HW120109   7.073   0.001  11.192 -1.3928  0.0652 -0.7279
37047SOL    HW220110   7.017  -0.064  11.316  0.1280 -0.0195 -0.0638
37048SOL     OW20111   5.701   9.973   0.463 -0.1200 -0.1949 -0.0333
37048SOL    HW120112   5.690  10.019   0.546 -1.9153 -1.6151  0.5900
37048SOL    HW220113   5.734  10.039   0.403 -1.0525  1.4793  1.2109
37049SOL     OW20114   5.962   0.532   5.057 -0.2494 -0.1663  0.3953
37049SOL    HW120115   5.932   0.455   5.009  0.4130 -0.7807  0.9362
37049SOL    HW220116   5.905   0.603   5.028 -0.7750 -0.8316 -0.2202
37050SOL     OW20117   5.404   6.561   4.375  0.0941 -0.2301 -0.3929
37050SOL    HW120118   5.365   6.529   4.456  1.6514  1.5908  1.1690
37050SOL    HW220119   5.434   6.481   4.331  1.4588 -1.1882  2.0550
37051SOL     OW20120   0.152   7.522   3.993  0.2201  0.4309 -0.8495
37051SOL    HW120121   0.177   7.493   3.905  2.4196  0.2288 -0.2170
37051SOL    HW220122   0.225   7.495   4.049 -1.6772 -0.6371  1.3115
37052SOL     OW20123  12.291   0.482   7.078 -0.4187 -0.1724 -0.1836
37052SOL    HW120124  12.266   0.530   6.999 -0.1646  1.3804  0.6430
37052SOL    HW220125  12.325   0.549   7.137 -0.5779 -1.3077  1.2470
37053SOL     OW20126   7.460   0.722   8.054  0.0441  0.2139 -0.3247
37053SOL    HW120127   7.434   0.814   8.045  1.5878  0.6844 -0.1592
37053SOL    HW220128   7.434   0.682   7.971 -1.4949  0.5588 -0.0474
37054SOL     OW20129  11.654   7.004  11.859 -0.1092 -0.0923  0.1117
37054SOL    HW120130  11.696   7.065  11.919  1.4142 -1.0177  0.0301
37054SOL    HW220131  11.680   6.917  11.889 -1.1003 -0.6680 -0.6025
37055SOL     OW20132   8.640   0.059  11.239  0.2625  0.0556  0.1465
37055SOL    HW120133   8.639   0.140  11.290  3.4495  1.3737 -1.5805
37055SOL    HW220134   8.726   0.020  11.258 -0.1449 -1.5783 -1.0585
37056SOL     OW20135   3.440   4.433   4.969 -0.5418  0.1263 -0.0957
37056SOL    HW120136   3.441   4.360   5.031  0.3475 -2.0544 -2.4796
37056SOL    HW220137   3.532   4.459   4.962 -0.6805  0.5664 -0.2778
37057SOL     OW20138  11.818   2.097   5.972  0.1070 -0.5125 -0.4954
37057SOL    HW120139  11.853   2.169   6.024 -0.0372 -0.5045 -0.4089
37057SOL    HW220140  11.735   2.129   5.939  0.3211 -0.4236 -0.9483
37058SOL     OW20141   8.705   9.942   1.921  0.1546 -0.5872 -0.0469
37058SOL    HW120142   8.785   9.912   1.878  1.3803  0.9941  1.0095
37058SOL    HW220143   8.640   9.874   1.902  0.9985 -0.6741 -3.0802
37059SOL     OW20144   4.912   9.250   4.711  0.0159  0.7372  0.0396
37059SOL    HW120145   4.986   9.222   4.764  0.7158 -3.4511 -2.6385
37059SOL    HW220146   4.840   9.192   4.737 -0.2690  0.1268 -1.9203
37060SOL     OW20147   6.711   3.818   3.931 -0.3327  0.3545 -0.3182
37060SOL    HW120148   6.792   3.832   3.882  0.8967 -1.0151  1.1791
37060SOL    HW220149   6.738   3.818   4.023 -2.4843  2.4809  0.4365
37061SOL     OW20150   0.587  10.445   0.274 -0.0918  0.4358 -0.2909
37061SOL    HW120151   0.552  10.390   0.204  0.0894  0.2932 -0.2680
37061SOL    HW220152   0.675  10.412   0.290 -0.6032 -0.4343  0.9357
37062SOL     OW20153   6.538   1.511  12.395 -1.0114 -0.5751 -0.0916
37062SOL    HW120154   6.558   1.429  12.441 -0.9699 -0.2468  0.4803
37062SOL    HW220155   6.444   1.522  12.405 -1.1072 -0.8201 -0.6322
37063SOL     OW20156   2.515  12.474   2.187 -0.0804  0.4249 -0.0023
37063SOL    HW120157   2.535  12.524   2.108 -0.1840  0.2424 -0.1432
37063SOL    HW220158   2.601  12.446   2.220 -0.1313 -1.0371 -1.0430
37064SOL     OW20159   6.937   3.939   0.242 -0.4073  0.4453 -0.5685
37064SOL    HW120160   6.921   3.938   0.336  0.9276 -1.2110 -0.3061
37064SOL    HW220161   6.865   3.991   0.206 -0.5374  1.7447  1.4138
37065SOL     OW20162   8.137   5.388  11.839  0.6217 -0.1773  0.5280
37065SOL    HW120163   8.062   5.327  11.841  0.8121 -0.3965  1.5315
37065SOL    HW220164   8.097   5.475  11.835  0.3297 -0.3270  0.0999
37066SOL     OW20165   0.009   4.643   3.529  0.1824  0.1316 -0.0498
37066SOL    HW120166  -0.061   4.673   3.472 -0.0958 -0.5798 -0.0891
37066SOL    HW220167  -0.034   4.584   3.591  0.8183 -0.6778 -0.3645
37067SOL     OW20168   6.180   4.288   5.767  0.2316 -0.3070  0.2697
37067SOL    HW120169   6.219   4.232   5.699 -0.7599  0.0277 -0.6020
37067SOL    HW220170   6.118   4.343   5.719 -0.2216  0.1909  1.4106
37068SOL     OW20171   8.182   8.008  12.065  0.0199  0.0765  0.2027
37068SOL    HW120172   8.125   8.081  12.043 -0.1069  0.1604  0.7944
37068SOL    HW220173   8.269   8.047  12.074  0.2215 -0.0868 -0.9087
37069SOL     OW20174   5.034  12.536   8.051 -0.6399  0.2680 -0.1272
37069SOL    HW120175   4.989  12.612   8.016 -0.0598  0.2299 -0.9737
37069SOL    HW220176   5.031  12.548   8.146 -2.0370  0.4790 -0.1818
37070SOL     OW20177  10.987   1.571   2.839 -0.4089  0.3655  0.3335
37070SOL    HW120178  11.038   1.490   2.833  0.9799  1.2647 -0.5392
37070SOL    HW220179  11.022   1.627   2.770 -1.0535  1.8855  1.1853
37071SOL     OW20180   4.192  10.352   5.375 -0.0430 -0.0826 -0.0827
37071SOL    HW120181   4.189  10.350   5.471  1.6294  2.0067  0.0975
37071SOL    HW220182   4.226  10.266   5.350  2.0470  0.2332  1.4193
37072SOL     OW20183  12.169   0.697   1.740  0.4301  0.2627  0.1106
37072SOL    HW120184  12.236   0.651   1.791  0.9560  0.9306  0.0409
37072SOL    HW220185  12.086   0.670   1.779  0.7374 -0.5222  0.2449
37073SOL     OW20186   1.570   0.486   5.619  0.2212  0.5891 -0.4973
37073SOL    HW120187   1.594   0.442   5.700 -1.6136 -0.8911 -0.6917
37073SOL    HW220188   1.556   0.577   5.644  0.1057  0.2399  0.7656
37074SOL     OW20189   1.665   3.149   5.754 -0.4672  0.3543 -0.0774
37074SOL    HW120190   1.578   3.168   5.789 -0.9889 -0.2032 -1.0376
37074SOL    HW220191   1.656   3.062   5.715  0.2563  0.6964 -1.0287
37075SOL     OW20192   8.885   5.431  10.364 -0.0268 -0.2448  0.3684
37075SOL    HW120193   8.812   5.491  10.347  1.0217  0.4492 -2.3589
37075SOL    HW220194   8.874   5.403  10.454 -3.0164  0.6962  0.3874
37076SOL     OW20195   2.905  12.152   7.302 -0.6305 -0.1413  0.3201
37076SOL    HW120196   2.929  12.236   7.264  0.0976 -0.9904 -1.2122
37076SOL    HW220197   2.823  12.128   7.258 -1.0343 -0.0688  1.0219
37077SOL     OW20198   1.783   2.441   4.549 -0.3227 -0.6905 -0.3400
37077SOL    HW120199   1.877   2.447   4.568 -0.3429  0.0446 -0.4474
37077SOL    HW220200   1.763   2.522   4.503 -0.9096 -1.0795 -0.7826
37078SOL     OW20201   8.014   6.558  11.041  0.2219  0.5479  0.3082
37078SOL    HW120202   8.081   6.599  11.096 -1.5244  0.3537  2.7113
37078SOL    HW220203   7.985   6.628  10.982  0.7267  1.3569  0.9984
37079SOL     OW20204   8.364   4.999   8.674 -0.2288 -0.0154 -0.5094
37079SOL    HW120205   8.425   4.946   8.725 -2.9125 -2.1335  0.7434
37079SOL    HW220206   8.358   5.082   8.722  0.5270 -0.3281  0.1432
37080SOL     OW20207   2.663   2.562   6.052 -0.4718 -0.1591 -0.4699
37080SOL    HW120208   2.612   2.631   6.093  1.4573  1.0149  0.0898
37080SOL    HW220209   2.623   2.551   5.965 -0.5348  2.0394 -0.7867
37081SOL     OW20210   7.238   3.760  11.195  0.0313  0.5587  0.2739
37081SOL    HW120211   7.149   3.768  11.229 -0.6306  0.8282 -1.4197
37081SOL    HW220212   7.227   3.714  11.111  1.4964  0.5699  0.0542
37082SOL     OW20213   6.855   3.693  12.065 -0.4411  0.5815  0.1353
37082SOL    HW120214   6.880   3.783  12.085  0.4765  0.2354  0.6097
37082SOL    HW220215   6.783   3.702  12.002  0.7444  1.6413 -1.1571
37083SOL     OW20216   6.473   5.073   2.609 -0.3976 -0.3522  0.0521
37083SOL    HW120217   6.549   5.045   2.558 -0.3794 -0.1958 -0.0079
37083SOL    HW220218   6.484   5.030   2.694 -0.3680 -0.5214 -0.0377
37084SOL     OW20219   8.580  12.114   8.768 -0.3151 -0.1420 -0.0913
37084SOL    HW120220   8.606  12.105   8.860  0.3286  0.1283 -0.2421
37084SOL    HW220221   8.623  12.041   8.724  1.9861  1.4823 -0.7046
37085SOL     OW20222   8.975   3.388   8.552 -0.2977 -0.4272  0.0231
37085SOL    HW120223   9.017   3.307   8.521 -1.3419 -1.0776  0.2582
37085SOL    HW220224   8.961   3.440   8.473 -0.1125 -0.7156 -0.2003
37086SOL     OW20225   4.221   0.260   6.879  0.1452 -0.5318  0.2858
37086SOL    HW120226   4.222   0.309   6.797 -1.1639  0.5750  0.8882
37086SOL    HW220227   4.280   0.186   6.864 -0.1850 -0.4369 -1.6989
37087SOL     OW20228   1.630   4.059   5.044  0.1307  0.1995 -0.1689
37087SOL    HW120229   1.702   4.061   4.981  0.8661  1.8094  0.6904
37087SOL    HW220230   1.669   4.083   5.128 -0.4691 -3.5401  1.3938
37088SOL     OW20231   1.699   8.680   8.945 -0.5222 -0.0008  0.0717
37088SOL    HW120232   1.720   8.629   9.022 -0.3751 -0.1728 -0.0822
37088SOL    HW220233   1.784   8.708   8.910 -0.5565  3.8762  2.4734
37089SOL     OW20234   1.752   9.521   6.077 -0.8843 -0.1890 -0.5981
37089SOL    HW120235   1.822   9.468   6.116  0.4429  1.1976 -1.0187
37089SOL    HW220236   1.750   9.601   6.130 -0.6572  0.7062 -1.8895
37090SOL     OW20237   0.684   9.478   1.497  0.0660  0.0218 -0.3950
37090SOL    HW120238   0.671   9.400   1.442 -0.0894  0.2061 -0.6215
37090SOL    HW220239   0.596   9.511   1.513  0.1671  0.5297 -0.8493
37091SOL     OW20240  10.931   9.975   5.924 -0.3026 -0.1146  0.5134
37091SOL    HW120241  10.963   9.886   5.933  1.0216  0.3596  0.6554
37091SOL    HW220242  11.001  10.022   5.879 -1.1207  0.7833  0.1296
37092SOL     OW20243   8.418   2.542   7.876 -0.2556 -0.4180  0.0288
37092SOL    HW120244   8.450   2.477   7.813 -0.4235  0.2979 -0.8096
37092SOL    HW220245   8.467   2.621   7.856 -0.1686 -0.2242  0.9461
37093SOL     OW20246  12.366   0.208   2.076  0.1068  0.3901 -0.5597
37093SOL    HW120247  12.377   0.145   2.005  1.0662 -0.2343  0.1237
37093SOL    HW220248  12.279   0.190   2.111  1.2919 -2.4434  1.3453
37094SOL     OW20249   6.433   0.709   6.206 -0.1778 -0.2055 -0.1256
37094SOL    HW120250   6.528   0.705   6.218  0.2324  2.8191 -1.5430
37094SOL    HW220251   6.420   0.779   6.142 -3.4637  0.4266  1.0801
37095SOL     OW20252  10.635   6.877   7.147  0.4255  0.3170 -0.2789
37095SOL    HW120253  10.618   6.798   7.096  1.0699  1.0457 -1.6881
37095SOL    HW220254  10.681   6.845   7.225 -0.3985 -0.8096 -0.2283
37096SOL     OW20255   6.706  12.158   7.389  0.4784  0.1982 -0.0004
37096SOL    HW120256   6.663  12.140   7.473  0.5666  0.6008  0.1324
37096SOL    HW220257   6.786  12.105   7.391 -0.2928 -1.0477 -0.5081
37097SOL     OW20258   5.614   2.128  11.439 -0.4465  0.2474 -0.3134
37097SOL    HW120259   5.684   2.080  11.483  0.4963  2.1533  0.3942
37097SOL    HW220260   5.536   2.111  11.492  0.0473  0.1880  0.4140
37098SOL     OW20261   4.477   4.220   1.557 -0.1247 -0.7396 -0.0303
37098SOL    HW120262   4.501   4.131   1.583  1.3037  0.2464  2.3064
37098SOL    HW220263   4.559   4.268   1.557 -1.1736  1.2061  1.6029
37099SOL     OW20264  10.938   8.636   7.441  0.6437  0.5182 -0.3405
37099SOL    HW120265  10.972   8.550   7.465 -0.1778  0.5948  1.1958
37099SOL    HW220266  11.011   8.679   7.396  1.7162 -0.2547  0.6126
37100SOL     OW20267   3.210  10.522   6.401  0.4729 -0.2763  0.4045
37100SOL    HW120268   3.129  10.496   6.359  0.7619 -1.4375  0.5383
37100SOL    HW220269   3.269  10.448   6.388  1.8234  0.8858 -0.4845
37101SOL     OW20270   1.096   9.533   1.463 -0.2679  0.5687  0.4532
37101SOL    HW120271   1.080   9.605   1.524 -0.4879  0.3983  0.5993
37101SOL    HW220272   1.136   9.574   1.386 -1.5370  1.0416  0.0109
37102SOL     OW20273   4.647  11.569   3.382 -0.3905  0.4251 -0.3732
37102SOL    HW120274   4.705  11.643   3.365  1.8704 -1.0746  0.3698
37102SOL    HW220275   4.579  11.604   3.439  0.8074  1.8527  0.2330
37103SOL     OW20276   3.223   3.644   0.944  0.2081 -0.4586  0.4219
37103SOL    HW120277   3.194   3.735   0.944 -1.9623 -1.0364 -2.1416
37103SOL    HW220278   3.319   3.650   0.938  0.1441  1.6292  0.7517
37104SOL     OW20279  11.106   0.284   8.348  0.2507 -0.2159  0.1944
37104SOL    HW120280  11.186   0.243   8.316  0.0318  0.6934 -1.6589
37104SOL    HW220281  11.097   0.252   8.437  2.1160 -1.1529  0.1022
37105SOL     OW20282  10.996   4.873  11.606  0.3045 -0.0493  0.4955
37105SOL    HW120283  10.974   4.959  11.569 -0.5834 -0.7099 -0.6160
37105SOL    HW220284  10.925   4.816  11.575  1.3970 -1.3845  0.3901
37106SOL     OW20285   1.064   1.017  12.020 -0.5465  0.2924  0.2699
37106SOL    HW120286   1.059   0.995  12.114 -1.7494  1.5889  0.5357
37106SOL    HW220287   0.975   1.040  11.996  0.0964  1.8539 -0.7375
37107SOL     OW20288   8.162   7.694   7.506 -0.6756  0.1603  0.0026
37107SOL    HW120289   8.135   7.695   7.414  0.0844 -1.7219 -0.2870
37107SOL    HW220290   8.254   7.721   7.503 -0.5069 -0.3986  0.1439
37108SOL     OW20291   8.473   6.684   4.673  0.0995  0.5386 -0.1083
37108SOL    HW120292   8.450   6.771   4.706 -0.7358 -0.1420  1.1568
37108SOL    HW220293   8.537   6.702   4.603  0.6535  2.1230  0.7393
37109SOL     OW20294   7.318   4.444   0.216 -0.4463 -0.0929  0.5854
37109SOL    HW120295   7.235   4.411   0.183  0.0675 -0.8272 -0.0286
37109SOL    HW220296   7.366   4.365   0.243  0.1639  0.2876  0.6375
37110SOL     OW20297   4.654   5.316   8.564  0.0644  0.2908  0.3887
37110SOL    HW120298   4.719   5.380   8.537  1.2544 -1.4074 -0.9649
37110SOL    HW220299   4.579   5.331   8.506  0.6666 -0.0578 -0.5000
37111SOL     OW20300   2.859   2.418   8.309 -0.3179 -0.6642 -0.0324
37111SOL    HW120301   2.896   2.454   8.390 -0.7300  1.1592 -0.6041
37111SOL    HW220302   2.934   2.382   8.262  0.0530 -0.9506  0.7493
37112SOL     OW20303   7.866   6.996   1.870  0.4867 -0.3736 -0.0115
37112SOL    HW120304   7.948   6.973   1.827  1.0981  0.3936  0.7098
37112SOL    HW220305   7.820   7.051   1.806  1.1749  0.3600  0.1033
37113SOL     OW20306   2.858   1.971  12.349  0.5542  0.0226 -0.6152
37113SOL    HW120307   2.888   1.981  12.259  1.7425 -0.4032 -0.2862
37113SOL    HW220308   2.936   1.986  12.402  0.2316 -1.3025  0.2855
37114SOL     OW20309   4.254   1.320   1.859  0.4365 -0.2080 -0.6190
37114SOL    HW120310   4.220   1.293   1.774  0.0808 -2.0558  0.0697
37114SOL    HW220311   4.193   1.388   1.888 -1.4130 -1.8582 -0.4272
37115SOL     OW20312   7.940   0.913   8.959  0.7368 -0.5464  0.4015
37115SOL    HW120313   7.852   0.876   8.944  0.7670 -0.7471  0.7064
37115SOL    HW220314   7.950   0.911   9.054  1.0685 -0.5137  0.3664
37116SOL     OW20315   2.114   5.055   7.388 -0.5441  0.4471  0.0744
37116SOL    HW120316   2.180   5.045   7.457 -0.5976  1.3693  0.2666
37116SOL    HW220317   2.108   5.149   7.374 -1.0531  0.3044 -0.6946
37117SOL     OW20318   7.515   8.697   3.475  0.2358  0.1574  0.4705
37117SOL    HW120319   7.514   8.615   3.426 -0.9091  0.5517 -0.2066
37117SOL    HW220320   7.604   8.704   3.509  1.5465  0.5423 -2.7044
37118SOL     OW20321   7.039   1.090   0.254 -0.2916  0.0002  0.3414
37118SOL    HW120322   7.059   1.004   0.216 -1.4171 -0.0778 -0.1092
37118SOL    HW220323   7.124   1.121   0.286  0.3581 -0.7692 -0.5329
37119SOL     OW20324   4.320  11.526   8.646 -0.1892 -0.0056 -0.0938
37119SOL    HW120325   4.408  11.529   8.608  0.5382 -0.9326  1.4000
37119SOL    HW220326   4.334  11.493   8.735 -2.0831 -0.3183  0.1261
37120SOL     OW20327  10.369   1.845   6.627  0.0701  0.1678 -0.3968
37120SOL    HW120328  10.344   1.830   6.536  0.4797  0.2844 -0.5321
37120SOL    HW220329  10.289   1.874   6.670 -0.0609  0.3974 -0.7897
37121SOL     OW20330   0.096   2.392   2.653  0.6828 -0.1788  0.1214
37121SOL    HW120331   0.071   2.480   2.626 -1.0073 -0.6133  0.1492
37121SOL    HW220332   0.112   2.345   2.572  2.0355  0.2498  0.1173
37122SOL     OW20333   2.509   5.193   7.140  0.3258 -0.0298 -0.4912
37122SOL    HW120334   2.572   5.264   7.132 -0.4069  0.6233 -0.5928
37122SOL    HW220335   2.425   5.233   7.117 -0.5263 -0.2360  1.9772
37123SOL     OW20336   8.497   9.135   8.037  0.1525  0.3623  0.1009
37123SOL    HW120337   8.489   9.166   8.127  1.1816  0.8746  0.0260
37123SOL    HW220338   8.524   9.212   7.987  0.5948 -0.1471 -0.4645
37124SOL     OW20339   7.041   6.062   6.117 -0.0761 -0.2774 -0.0807
37124SOL    HW120340   7.049   5.979   6.163  0.3843 -0.7316 -0.9689
37124SOL    HW220341   7.130   6.085   6.093 -0.3632 -0.3307 -1.2274
37125SOL     OW20342  11.122   2.501  11.929 -0.2752 -0.1326  0.4728
37125SOL    HW120343  11.204   2.467  11.966 -0.3344 -1.0587 -0.2396
37125SOL    HW220344  11.146   2.534  11.843 -0.6336 -0.3363  0.2923
37126SOL     OW20345   6.160  12.454   3.736  0.2859 -0.4471 -0.4367
37126SOL    HW120346   6.227  12.518   3.761  0.6848 -0.5358 -1.2242
37126SOL    HW220347   6.196  12.413   3.657 -1.1161  0.1638 -1.4318
37127SOL     OW20348   5.187   3.788  11.181 -0.0336  0.1681  0.8968
37127SOL    HW120349   5.207   3.866  11.130 -0.7477  1.2100  2.1677
37127SOL    HW220350   5.252   3.723  11.152 -0.1899  0.8176 -1.0431
37128SOL     OW20351   9.023   0.328  12.538 -0.0180  0.5126  0.3035
37128SOL    HW120352   9.036   0.360  12.627  1.0642  0.3281  0.2320
37128SOL    HW220353   9.041   0.403  12.482  0.6749  0.2778  0.2017
37129SOL     OW20354   1.469   3.971   2.456  0.0176  0.4837 -0.1895
37129SOL    HW120355   1.559   3.999   2.436  0.0446  0.5172 -0.0237
37129SOL    HW220356   1.422   4.053   2.474  0.5496  0.3403  2.1700
37130SOL     OW20357   7.116  10.157   3.316 -0.1031 -0.5442 -0.6217
37130SOL    HW120358   7.115  10.065   3.342  1.9320 -0.0612  1.5556
37130SOL    HW220359   7.055  10.200   3.376  0.2063 -0.2736 -0.4921
37131SOL     OW20360   0.191   3.724   4.961 -1.1523  0.1165 -0.0778
37131SOL    HW120361   0.154   3.811   4.945  0.0675  0.7994  0.6844
37131SOL    HW220362   0.159   3.702   5.049 -0.6167  0.2545  0.1536
37132SOL     OW20363   9.877   2.256  10.869 -0.4618  0.2058  0.0240
37132SOL    HW120364   9.811   2.324  10.856 -0.5187  0.0711 -0.4329
37132SOL    HW220365   9.909   2.269  10.958  0.2078  1.4261 -0.3761
37133SOL     OW20366   3.482   3.305   0.478  0.4070 -0.2439  0.4427
37133SOL    HW120367   3.478   3.390   0.522  0.4877  0.0672 -0.1472
37133SOL    HW220368   3.509   3.244   0.547 -0.2690  0.0954  1.0253
37134SOL     OW20369   8.006  10.076   9.542  0.1806  0.2292  0.3254
37134SOL    HW120370   7.946  10.091   9.469  0.7083 -0.8910 -0.3665
37134SOL    HW220371   7.973  10.132   9.613 -1.1135  0.3363 -0.3395
37135SOL     OW20372   9.896  11.307   9.278 -0.7740  0.4602 -0.4766
37135SOL    HW120373   9.890  11.345   9.190 -2.6778 -0.2364 -0.6876
37135SOL    HW220374   9.812  11.327   9.319 -0.7435 -1.1029  0.4212
37136SOL     OW20375   2.886   1.382   5.746 -0.1707  0.1804  0.4938
37136SOL    HW120376   2.886   1.287   5.734  0.4043  0.2089  0.2497
37136SOL    HW220377   2.802   1.411   5.710  1.0524  0.1604 -2.7271
37137SOL     OW20378  12.500   6.630   6.408  0.5521  0.2620 -0.0900
37137SOL    HW120379  12.423   6.686   6.414  0.7866  0.5374  0.3648
37137SOL    HW220380  12.574   6.690   6.412  0.8303 -0.1313  1.3105
37138SOL     OW20381   1.082   5.864   9.732  0.7912  0.4031 -0.2445
37138SOL    HW120382   1.054   5.778   9.763 -0.3546  0.1449 -1.8506
37138SOL    HW220383   1.177   5.856   9.721  0.6572 -0.7780 -0.6791
37139SOL     OW20384   2.367   7.808  11.312 -0.4144  0.0947 -0.4717
37139SOL    HW120385   2.381   7.747  11.384 -1.7829  0.3890  0.0777
37139SOL    HW220386   2.451   7.853  11.302 -0.2265  0.1224  1.0149
37140SOL     OW20387   2.147   2.016  11.042  0.2422  0.1150  0.5622
37140SOL    HW120388   2.079   2.061  11.092 -0.1911  0.0144  0.0725
37140SOL    HW220389   2.127   2.036  10.951  0.8266  0.0210  0.4112
37141SOL     OW20390  10.573   0.985   7.060  0.0046 -0.6360 -0.0002
37141SOL    HW120391  10.601   0.896   7.038 -0.3717 -1.2805  1.9318
37141SOL    HW220392  10.654   1.036   7.063  0.1816 -0.7648 -1.5766
37142SOL     OW20393   6.030  10.703   7.607  0.0922 -0.4603 -0.2030
37142SOL    HW120394   6.012  10.785   7.560 -1.0618  0.2715  1.4285
37142SOL    HW220395   6.017  10.635   7.541 -1.1580  0.5524 -1.0630
37143SOL     OW20396   2.068   3.342   4.041 -0.2428 -0.0375  0.2234
37143SOL    HW120397   2.133   3.357   4.110 -0.3043  0.4527  0.1779
37143SOL    HW220398   2.050   3.248   4.046  1.4260 -0.4443 -0.6273
37144SOL     OW20399   6.591   4.772   4.563  0.5387 -0.0865  0.1628
37144SOL    HW120400   6.638   4.771   4.479  2.8385 -0.5192  1.3661
37144SOL    HW220401   6.595   4.863   4.592  2.6395 -0.4686  1.2503
37145SOL     OW20402   2.434   1.408   4.286  0.7750  0.5059  0.4816
37145SOL    HW120403   2.406   1.433   4.374  1.3273  0.0864  0.7838
37145SOL    HW220404   2.526   1.434   4.282  0.4572  1.5649 -0.3797
37146SOL     OW20405  11.949  11.903   4.328  0.5779  0.1157  0.2736
37146SOL    HW120406  11.913  11.816   4.344 -1.0096  0.9270  1.3291
37146SOL    HW220407  11.882  11.947   4.275  2.6100 -0.1786 -2.7931
37147SOL     OW20408   1.727   6.808   9.726 -0.8543 -0.4011  0.2003
37147SOL    HW120409   1.758   6.851   9.806  1.0182 -0.5463 -0.4083
37147SOL    HW220410   1.644   6.852   9.706 -0.5301  0.7729  1.2968
37148SOL     OW20411   2.517   0.712   1.280  0.1465  0.5587 -0.0714
37148SOL    HW120412   2.513   0.754   1.366  3.5219  0.2500  0.3870
37148SOL    HW220413   2.609   0.719   1.254 -0.0534 -2.3782 -2.1004
37149SOL     OW20414  10.809  10.304   4.746 -0.2162 -0.1159 -0.1137
37149SOL    HW120415  10.791  10.271   4.658 -1.0901 -0.9507  0.3548
37149SOL    HW220416  10.854  10.232   4.790  0.8327  0.5520 -0.0811
37150SOL     OW20417  11.252   1.791  10.847  0.2375 -0.1079 -0.9455
37150SOL    HW120418  11.174   1.737  10.831  0.1552  0.4721 -2.6549
37150SOL    HW220419  11.259   1.794  10.942 -2.3986  0.5981 -0.6828
37151SOL     OW20420   9.939   5.287   1.450  0.0629  0.4223 -0.1379
37151SOL    HW120421  10.004   5.235   1.495 -0.3935 -0.7275 -0.7698
37151SOL    HW220422   9.879   5.316   1.518  1.5937  2.1535  0.5864
37152SOL     OW20423   5.888   0.453   1.007 -0.1575 -0.2932 -0.3279
37152SOL    HW120424   5.857   0.543   1.008  0.9495  0.1056 -0.2871
37152SOL    HW220425   5.912   0.434   1.098 -0.4948 -0.6671 -0.3146
37153SOL     OW20426   0.674   8.360   7.597  0.2510  0.0668  0.1503
37153SOL    HW120427   0.706   8.404   7.676 -0.7400  0.0243  0.5899
37153SOL    HW220428   0.675   8.267   7.619 -1.3168  0.1280  0.6404
37154SOL     OW20429   9.916   2.594   2.484  0.1253  0.2080  0.3027
37154SOL    HW120430   9.960   2.655   2.426 -0.4155  0.1727 -0.1609
37154SOL    HW220431   9.982   2.570   2.549  0.6383  0.5115 -0.0969
37155SOL     OW20432   1.050   1.581   2.424 -0.1569  0.2602  0.3596
37155SOL    HW120433   1.111   1.643   2.384  0.9062 -0.4547  0.8151
37155SOL    HW220434   1.000   1.633   2.487  1.8236  0.3947  1.8952
37156SOL     OW20435  10.083   5.307   5.106  0.3619 -0.4858  0.5827
37156SOL    HW120436  10.090   5.338   5.016 -0.7400  3.3208  1.6453
37156SOL    HW220437   9.991   5.281   5.115  0.0563  0.7161  1.0246
37157SOL     OW20438  12.182   4.388   0.197  0.1931 -0.3808 -0.0431
37157SOL    HW120439  12.101   4.387   0.147 -1.0771  0.7929  1.8462
37157SOL    HW220440  12.163   4.336   0.275  0.6199  1.3200  1.2602
37158SOL     OW20441   6.810   9.686   0.334 -0.0447  0.1453 -0.2747
37158SOL    HW120442   6.748   9.751   0.303 -0.4007 -0.2302 -0.3632
37158SOL    HW220443   6.767   9.602   0.318  0.5712 -0.1282 -0.5230
37159SOL     OW20444   7.340   5.826   3.671  0.1667 -0.2368  0.2612
37159SOL    HW120445   7.380   5.871   3.596 -0.1170  0.4682  0.5262
37159SOL    HW220446   7.246   5.823   3.651 -0.1229  1.2758  1.2389
37160SOL     OW20447  11.731   7.831  10.006  0.4048  0.4542  0.4015
37160SOL    HW120448  11.697   7.841  10.095  2.0558 -1.6701  1.3449
37160SOL    HW220449  11.781   7.912   9.991  0.1399  0.8191  1.4112
37161SOL     OW20450   1.717   3.538   1.158  0.1470  0.1460  0.0103
37161SOL    HW120451   1.786   3.480   1.126  0.6297 -0.6682  2.3618
37161SOL    HW220452   1.674   3.570   1.079  2.1151 -0.6613 -1.4589
37162SOL     OW20453  11.086   0.400   6.327  0.4960  0.2854  0.3185
37162SOL    HW120454  11.002   0.405   6.372  0.2089 -1.4580  0.0570
37162SOL    HW220455  11.076   0.458   6.252 -0.7388 -0.3995 -0.0772
37163SOL     OW20456   0.164   4.855  11.577 -0.1842  0.5120  0.1410
37163SOL    HW120457   0.167   4.866  11.672  2.0714  0.2080  0.1723
37163SOL    HW220458   0.117   4.932  11.545  0.3740  1.4319  1.4330
37164SOL     OW20459   1.981  12.302   7.439 -0.3222  0.2613  0.0112
37164SOL    HW120460   1.929  12.222   7.450  0.5596 -0.5065 -1.1666
37164SOL    HW220461   1.963  12.331   7.350  1.3209 -0.1080 -0.4828
37165SOL     OW20462  11.735   3.138   4.486  0.1601 -0.0316  0.0808
37165SOL    HW120463  11.735   3.107   4.576 -0.3832 -0.8034 -0.1763
37165SOL    HW220464  11.812   3.097   4.446  1.2298  1.4191  0.5366
37166SOL     OW20465  10.328   2.030   4.240 -0.0525  0.1837 -0.3545
37166SOL    HW120466  10.324   1.938   4.265 -0.4077  0.3842  0.3301
37166SOL    HW220467  10.246   2.046   4.193  0.3149 -0.0180 -1.0862
37167SOL     OW20468  10.398   6.027   5.913 -0.0242 -0.3568  0.0877
37167SOL    HW120469  10.430   5.963   5.849 -0.2853 -0.0422 -0.3674
37167SOL    HW220470  10.436   6.110   5.883  0.2145 -0.2794  0.6015
37168SOL     OW20471  12.011   5.357   9.962  0.1514 -0.2741  0.4602
37168SOL    HW120472  12.061   5.435   9.984  2.0091 -1.0349 -0.8589
37168SOL    HW220473  11.923   5.389   9.942  1.0917  1.6070 -0.9203
37169SOL     OW20474   4.493  10.586   8.140  0.5225 -0.4414 -0.0955
37169SOL    HW120475   4.417  10.636   8.112  0.6679 -0.5666 -0.7206
37169SOL    HW220476   4.476  10.497   8.110 -0.1747 -1.0007  1.8198
37170SOL     OW20477   4.089   8.690   0.817  0.6657  0.2072 -0.4643
37170SOL    HW120478   4.105   8.784   0.805  0.7318  0.1904 -0.5133
37170SOL    HW220479   4.009   8.685   0.870  0.9638  0.3020  0.0033
37171SOL     OW20480   7.880  11.791  10.224  0.1065 -0.6176  0.2330
37171SOL    HW120481   7.969  11.817  10.247 -0.1160 -0.0583  0.4923
37171SOL    HW220482   7.827  11.819  10.299 -0.4688  0.1758 -0.4506
37172SOL     OW20483   0.770  10.828   6.148 -0.3340 -0.0210 -0.1746
37172SOL    HW120484   0.731  10.741   6.155 -1.7774  0.6407  0.3438
37172SOL    HW220485   0.768  10.848   6.055 -1.1278 -0.0513 -0.1677
37173SOL     OW20486   2.899  10.278   7.143 -0.1115 -0.0498  0.3349
37173SOL    HW120487   2.986  10.241   7.158 -0.4641 -1.1029 -0.1258
37173SOL    HW220488   2.905  10.367   7.178  0.2700 -1.0542  3.0619
37174SOL     OW20489   7.018  11.085   9.000  0.6724  0.2098  0.2665
37174SOL    HW120490   7.035  11.111   9.091  2.3366  0.2207 -0.0120
37174SOL    HW220491   7.002  11.168   8.954  0.0327  0.2206  0.5031
37175SOL     OW20492   0.502   9.894   2.890 -0.3109 -0.1553  0.0781
37175SOL    HW120493   0.563   9.911   2.818 -2.3394 -3.1528 -2.6577
37175SOL    HW220494   0.504   9.798   2.901 -2.7974 -0.1394  1.4756
37176SOL     OW20495   2.202   2.963   1.257  0.7515  0.0350 -0.1986
37176SOL    HW120496   2.290   2.926   1.252  0.6736 -0.0470 -1.1402
37176SOL    HW220497   2.168   2.932   1.341  1.9164  0.7605  0.5650
37177SOL     OW20498   2.946   7.950   0.266  0.0264  0.2717 -0.0776
37177SOL    HW120499   2.967   8.028   0.317  2.7448 -0.9799  0.9447
37177SOL    HW220500   2.913   7.887   0.331  0.0891 -0.1716 -0.4670
37178SOL     OW20501   9.508   5.486   0.442 -0.2188 -0.2467  0.6017
37178SOL    HW120502   9.565   5.507   0.516 -0.0960  0.6980  0.2523
37178SOL    HW220503   9.549   5.528   0.367 -0.2944 -1.2751 -0.0388
37179SOL     OW20504  10.667   6.552   9.895  0.0868  0.1253 -0.1249
37179SOL    HW120505  10.755   6.521   9.877 -0.3808 -0.8950 -0.7658
37179SOL    HW220506  10.678   6.644   9.918  1.1474  0.5556 -2.1175
37180SOL     OW20507   0.034  10.718  11.258  0.2376 -0.0341 -0.1337
37180SOL    HW120508   0.125  10.704  11.283  0.2283 -1.2491 -0.7168
37180SOL    HW220509  -0.015  10.652  11.307  0.0805 -1.6291 -2.2963
37181SOL     OW20510   2.199   5.693   5.985  0.3917  0.2088 -0.4091
37181SOL    HW120511   2.282   5.688   6.032  1.6621 -2.5584 -2.6262
37181SOL    HW220512   2.213   5.761   5.918  0.3399  0.7270  0.1010
37182SOL     OW20513   4.191   8.285  11.752 -0.1877  0.5680 -0.0182
37182SOL    HW120514   4.234   8.217  11.803 -0.4118  1.1684  1.0047
37182SOL    HW220515   4.255   8.356  11.746  0.1009  0.2138 -1.2071
37183SOL     OW20516   5.488   7.718   4.257  0.0717 -0.4374  0.3004
37183SOL    HW120517   5.426   7.782   4.292 -0.2240 -1.5601  1.9415
37183SOL    HW220518   5.551   7.770   4.208 -1.0053  0.9466  0.3132
37184SOL     OW20519   3.804  11.789   7.961 -0.3841 -0.4139  0.0204
37184SOL    HW120520   3.769  11.791   8.050 -2.2513 -0.8912 -0.6409
37184SOL    HW220521   3.737  11.742   7.911  0.6661 -0.2340 -1.6214
37185SOL     OW20522  10.815   7.996   7.936 -0.0046 -0.1244  0.3604
37185SOL    HW120523  10.741   7.963   7.886  0.6725 -0.5406 -0.3897
37185SOL    HW220524  10.777   8.063   7.993 -0.6751  0.9794 -1.2992
37186SOL     OW20525   9.551   5.699   7.192 -0.0728 -0.3302 -0.3304
37186SOL    HW120526   9.483   5.733   7.250  1.2976 -0.1742  1.2548
37186SOL    HW220527   9.565   5.769   7.128 -0.9484 -0.1258 -0.3136
37187SOL     OW20528   8.542   1.417   4.917 -0.0901 -0.2476 -0.4836
37187SOL    HW120529   8.543   1.323   4.931 -0.6927  0.1954  3.8878
37187SOL    HW220530   8.450   1.441   4.921  0.1018  0.6038 -0.8930
37188SOL     OW20531   8.335  12.067   7.124 -0.6020  0.1002 -0.0188
37188SOL    HW120532   8.346  12.106   7.211 -1.5263 -0.7597  0.5024
37188SOL    HW220533   8.318  11.974   7.141  0.5372 -0.3577 -1.1894
37189SOL     OW20534   6.884   8.264   8.860 -0.4506  0.7754  0.2694
37189SOL    HW120535   6.808   8.256   8.917 -1.8250 -0.3198 -1.5957
37189SOL    HW220536   6.876   8.190   8.799  1.3801  1.4106 -0.8317
37190SOL     OW20537   3.373  10.684   8.266 -0.5868  0.0186  0.1603
37190SOL    HW120538   3.344  10.660   8.354  1.0605  1.0240  1.0371
37190SOL    HW220539   3.436  10.616   8.243 -1.0509 -0.2675 -0.2554
37191SOL     OW20540   1.509   3.285   3.889  0.2817 -0.0861  0.1024
37191SOL    HW120541   1.490   3.196   3.917 -0.5303 -0.9072 -2.7336
37191SOL    HW220542   1.429   3.334   3.909 -0.9538 -1.0563 -2.1673
37192SOL     OW20543   3.207   5.189   3.489  0.7707  0.1509  0.7199
37192SOL    HW120544   3.257   5.265   3.518 -0.7346  0.8664  1.6019
37192SOL    HW220545   3.270   5.134   3.443  2.2410  1.1997  1.4057
37193SOL     OW20546   2.620   7.797   3.375 -0.3945  0.4579 -0.2568
37193SOL    HW120547   2.575   7.878   3.353 -0.4399  0.7816  0.9623
37193SOL    HW220548   2.571   7.761   3.449 -0.5774 -0.8652 -0.9825
37194SOL     OW20549   1.864   8.002   3.856  0.1712  0.2594  0.2231
37194SOL    HW120550   1.846   8.086   3.899 -0.8264  0.4398 -0.5258
37194SOL    HW220551   1.938   7.966   3.906  0.7837  1.6821  0.4152
37195SOL     OW20552   2.411  12.185  11.152  0.0180 -0.2041 -0.0466
37195SOL    HW120553   2.479  12.127  11.117  0.8643  0.0417  1.1135
37195SOL    HW220554   2.354  12.127  11.203  0.7312 -0.0838  0.9217
37196SOL     OW20555   9.090   2.942   3.150  0.3598  0.5734 -0.3673
37196SOL    HW120556   9.012   2.961   3.097 -0.9861  0.8577  1.5797
37196SOL    HW220557   9.120   3.028   3.180  0.6952  0.3701 -0.1153
37197SOL     OW20558   4.916  10.642  11.450  0.0867  0.3245 -0.1452
37197SOL    HW120559   4.958  10.565  11.412  0.8223  0.7375 -0.1860
37197SOL    HW220560   4.839  10.607  11.495 -0.4936 -0.2494 -1.4997
37198SOL     OW20561   4.931  12.550   5.343 -0.0445  0.2218 -0.4785
37198SOL    HW120562   4.987  12.547   5.265  1.8821  0.1881  0.8281
37198SOL    HW220563   4.927  12.642   5.366  2.6702 -0.0216  1.5067
37199SOL     OW20564   3.058   2.610   5.895 -0.1684  0.4257 -0.5030
37199SOL    HW120565   3.036   2.617   5.988  0.1903  0.3553 -0.4130
37199SOL    HW220566   3.151   2.632   5.890 -0.1446  0.2591 -0.8221
37200SOL     OW20567   7.756   1.201  11.775  0.5479 -0.4492  0.4212
37200SOL    HW120568   7.838   1.165  11.808  1.4836 -1.5417 -2.7932
37200SOL    HW220569   7.770   1.295  11.773  1.9009 -0.6532 -0.4518
37201SOL     OW20570   5.893  10.151   6.253 -0.2526 -0.3329 -0.0302
37201SOL    HW120571   5.926  10.133   6.165  2.2327 -0.8162  0.9171
37201SOL    HW220572   5.881  10.065   6.293 -1.0870 -0.1068  0.2348
37202SOL     OW20573   6.785  10.805   6.784  0.1924 -0.0087  0.0570
37202SOL    HW120574   6.771  10.718   6.822  0.5488  0.4286  1.2447
37202SOL    HW220575   6.697  10.841   6.774  0.0967 -0.0668  0.6543
37203SOL     OW20576   7.627   2.355   9.683  0.4157  0.2828  0.0045
37203SOL    HW120577   7.656   2.357   9.592  1.5114 -3.2769  0.1199
37203SOL    HW220578   7.609   2.262   9.700 -1.1187  1.0156  3.0423
37204SOL     OW20579   1.433   5.397   7.931  0.0900  0.1337 -0.0133
37204SOL    HW120580   1.358   5.428   7.881  1.5331  1.9183 -1.2020
37204SOL    HW220581   1.447   5.307   7.901 -1.7673 -0.3943  0.5475
37205SOL     OW20582   5.626   1.954   9.970 -0.0750  0.3781  0.1672
37205SOL    HW120583   5.641   2.006   9.891  0.3238  0.5628  0.3650
37205SOL    HW220584   5.547   1.992  10.009  0.6991  1.4029  0.7721
37206SOL     OW20585   4.369   4.452   1.060 -0.7973 -0.1259 -0.0441
37206SOL    HW120586   4.399   4.507   0.988 -0.5218 -0.3237 -0.0820
37206SOL    HW220587   4.401   4.496   1.139 -0.1855 -0.4684 -0.0966
37207SOL     OW20588   7.297  12.152   1.112  0.2985  0.2297  0.1149
37207SOL    HW120589   7.210  12.118   1.088 -0.4983  2.0679  0.2372
37207SOL    HW220590   7.299  12.147   1.207  0.3962  0.0095  0.1004
37208SOL     OW20591   9.070   0.648   9.698  0.3187  1.1309 -0.4832
37208SOL    HW120592   9.111   0.631   9.783  0.1982  0.4482 -0.5538
37208SOL    HW220593   9.135   0.617   9.634 -0.5328 -0.5463 -0.5850
37209SOL     OW20594  10.509   1.849   2.723 -0.1504 -0.5337 -0.0812
37209SOL    HW120595  10.417   1.842   2.748 -0.1420  0.2401  0.1778
37209SOL    HW220596  10.548   1.767   2.755 -0.9035 -1.2610 -0.9414
37210SOL     OW20597  10.714   7.532   2.061  0.3098 -0.0569  0.4936
37210SOL    HW120598  10.720   7.458   2.000 -0.4956  0.4977 -0.2882
37210SOL    HW220599  10.672   7.602   2.011 -0.9331  0.2309  1.8376
37211SOL     OW20600  10.059   4.394  10.050  0.4106  0.1616  0.0482
37211SOL    HW120601  10.099   4.437   9.974  0.8214 -0.0332  0.1496
37211SOL    HW220602   9.980   4.445  10.068  0.2765  0.1767 -0.5461
37212SOL     OW20603   3.387   9.214   7.099  0.2378  0.2421 -0.4839
37212SOL    HW120604   3.410   9.171   7.181  1.2805  1.8928  0.1464
37212SOL    HW220605   3.312   9.270   7.122  1.2076  1.5212 -0.3652
37213SOL     OW20606   6.067   9.891  11.878 -0.4586 -0.2772 -0.4808
37213SOL    HW120607   6.012   9.918  11.951 -0.0361 -0.8036  0.0373
37213SOL    HW220608   6.042   9.949  11.806 -0.1730  0.9179  0.3586
37214SOL     OW20609   2.923   4.032   3.811  0.1230 -0.7578  0.4668
37214SOL    HW120610   2.959   4.025   3.723 -0.5607 -0.7485  0.1819
37214SOL    HW220611   2.939   3.946   3.850 -0.7118 -1.1844 -0.1116
37215SOL     OW20612  12.450   9.831   9.866  0.1543  0.2474 -0.1134
37215SOL    HW120613  12.541   9.801   9.859  0.1180  0.5402 -2.4741
37215SOL    HW220614  12.403   9.779   9.802 -1.0653  1.1912 -0.0076
37216SOL     OW20615   8.274   7.948  12.456 -0.4296  0.0777 -0.5491
37216SOL    HW120616   8.300   7.884  12.522  1.0282  1.5351  0.3739
37216SOL    HW220617   8.189   7.980  12.486 -0.6513 -0.6174 -0.4176
37217SOL     OW20618   6.007  11.302   4.450 -0.0554 -0.4713 -0.1946
37217SOL    HW120619   6.093  11.338   4.431  0.3577 -1.5600 -0.4656
37217SOL    HW220620   5.960  11.307   4.366 -0.3208  0.2649 -0.0094
37218SOL     OW20621   4.751   8.174   0.092  0.1071 -0.4960  0.1747
37218SOL    HW120622   4.772   8.096   0.040  1.6678 -0.3531  0.5178
37218SOL    HW220623   4.691   8.224   0.037  1.8359 -0.2541 -1.6284
37219SOL     OW20624   6.077  11.538   7.411 -0.0474  0.1768  0.0618
37219SOL    HW120625   6.099  11.630   7.420  0.1826  0.0843  0.4727
37219SOL    HW220626   6.090  11.501   7.499 -1.2362 -0.0047  0.1840
37220SOL     OW20627   2.552   5.750   6.381  0.1297 -0.1896 -0.0496
37220SOL    HW120628   2.603   5.827   6.355  0.0483  0.1840  0.8769
37220SOL    HW220629   2.496   5.780   6.453 -0.0488 -1.0613  0.1944
37221SOL     OW20630   2.056   7.840   4.368  0.4752  0.3036  0.0199
37221SOL    HW120631   2.115   7.894   4.421  1.3093  2.3617 -2.7516
37221SOL    HW220632   2.110   7.766   4.340  1.2724  1.2186 -0.9865
37222SOL     OW20633   0.255   6.233   0.205 -0.1957  0.2184  0.0936
37222SOL    HW120634   0.334   6.253   0.255  0.0340 -5.3837  2.7473
37222SOL    HW220635   0.183   6.253   0.266 -0.2615 -1.1906  0.5256
37223SOL     OW20636   8.982   2.963   9.248  0.1648  0.8394 -0.7300
37223SOL    HW120637   9.018   2.941   9.334 -0.8041  3.3723  0.4264
37223SOL    HW220638   9.042   3.029   9.213 -0.9120  1.8333 -0.7486
37224SOL     OW20639   7.234   8.221   1.773  0.0803  0.1982  0.1840
37224SOL    HW120640   7.252   8.158   1.703 -1.8726  0.9598 -1.1127
37224SOL    HW220641   7.206   8.168   1.847 -0.4080 -0.5352 -0.5027
37225SOL     OW20642   7.517  11.371   1.260  0.0065  0.1413 -0.7496
37225SOL    HW120643   7.519  11.339   1.350  2.4272  1.9953 -0.0080
37225SOL    HW220644   7.447  11.436   1.259 -0.0506  0.0933 -0.1779
37226SOL     OW20645   0.334   8.076   3.583  0.7824 -0.0756 -0.4344
37226SOL    HW120646   0.332   8.007   3.649  0.3232  0.8738  0.5720
37226SOL    HW220647   0.390   8.144   3.621 -0.3792  0.9630 -0.5020
37227SOL     OW20648  10.746   9.371   4.455 -0.3958  0.2160 -0.2698
37227SOL    HW120649  10.788   9.429   4.519 -0.8287 -0.0673  0.2822
37227SOL    HW220650  10.765   9.411   4.370  1.2865 -0.0925 -0.0661
37228SOL     OW20651   6.422   2.360   8.235 -0.3848  0.7712 -0.3894
37228SOL    HW120652   6.362   2.309   8.181 -0.4789  0.4327  0.0287
37228SOL    HW220653   6.476   2.408   8.173  2.0605 -2.4331 -0.9892
37229SOL     OW20654  11.357  11.996   1.975  0.4203 -0.3839  0.1608
37229SOL    HW120655  11.420  11.987   1.904  0.5477 -0.2586  0.2588
37229SOL    HW220656  11.293  12.059   1.943 -0.4004 -1.4968 -0.4766
37230SOL     OW20657  12.072   8.355  12.041 -0.2426  0.9360 -0.0502
37230SOL    HW120658  12.011   8.380  11.971 -0.7695  1.9185  0.7285
37230SOL    HW220659  12.070   8.260  12.042 -2.8627  0.9282  0.8517
37231SOL     OW20660   1.798   9.782   3.722  0.3078  0.3021 -0.0790
37231SOL    HW120661   1.711   9.792   3.684  0.5413  0.9503 -0.4638
37231SOL    HW220662   1.858   9.791   3.648  0.6745 -1.0500  0.0316
37232SOL     OW20663   1.390   7.440  11.634 -0.0482 -0.1155 -0.3473
37232SOL    HW120664   1.388   7.509  11.701 -0.1380 -0.2043 -0.2587
37232SOL    HW220665   1.362   7.485  11.553  1.4676  0.3370 -0.6533
37233SOL     OW20666   5.423   2.858   0.625  0.1506  0.1298 -0.0880
37233SOL    HW120667   5.493   2.841   0.561  0.7006  4.0749 -0.7780
37233SOL    HW220668   5.469   2.866   0.709  0.1284  0.0916 -0.0719
37234SOL     OW20669   0.466   8.916   4.208 -0.3213 -0.5886 -0.6045
37234SOL    HW120670   0.538   8.860   4.178  0.3179 -0.6376  0.9572
37234SOL    HW220671   0.409   8.924   4.131  1.9564  0.4998 -2.2796
37235SOL     OW20672   8.807   5.815  11.901 -0.5570  0.4363 -0.4321
37235SOL    HW120673   8.864   5.739  11.888 -0.7086  0.1182  0.6721
37235SOL    HW220674   8.861   5.890  11.877  0.5599  0.1944  1.2324
37236SOL     OW20675   2.788   6.406   2.306 -0.0913  0.2191  0.4291
37236SOL    HW120676   2.837   6.486   2.289 -0.4262 -0.0651 -2.2004
37236SOL    HW220677   2.697   6.434   2.309 -0.1515  0.0372  0.2948
37237SOL     OW20678   5.022   1.051   6.725  0.2506  0.1099 -0.0006
37237SOL    HW120679   5.021   1.084   6.635 -0.2740  0.6771  0.2080
37237SOL    HW220680   5.106   1.081   6.760  1.0173 -1.1585 -0.6675
37238SOL     OW20681   1.074  11.290   0.611 -0.7922  0.2437  0.2637
37238SOL    HW120682   1.055  11.356   0.678  0.4917  0.3407  0.5641
37238SOL    HW220683   0.990  11.273   0.569 -1.1967  1.9624  0.2939
37239SOL     OW20684   4.665   6.928   1.844 -0.0060  0.0678 -0.1313
37239SOL    HW120685   4.722   6.998   1.877  0.7851 -0.8617  0.5123
37239SOL    HW220686   4.581   6.972   1.828  0.5178  1.1978  0.1054
37240SOL     OW20687   0.759  10.613   2.832 -0.1103 -0.7448 -0.0568
37240SOL    HW120688   0.830  10.552   2.811  0.2467 -0.5249  0.4912
37240SOL    HW220689   0.778  10.691   2.780  0.9699 -0.0659  1.2851
37241SOL     OW20690   4.084   5.944   8.365  0.2138 -0.0744  0.1784
37241SOL    HW120691   4.106   6.034   8.391  1.6371 -0.2260 -0.4268
37241SOL    HW220692   4.023   5.955   8.293 -1.9206  0.3582  1.9490
37242SOL     OW20693   3.495   0.424   8.518 -0.3501  0.2082  0.1418
37242SOL    HW120694   3.484   0.466   8.604 -2.9993 -0.4747  0.1951
37242SOL    HW220695   3.507   0.331   8.538  1.5252  0.3264 -0.1831
37243SOL     OW20696  10.189  12.175   2.412 -0.0923 -0.4009 -0.5801
37243SOL    HW120697  10.259  12.203   2.353  1.5498  0.4523  1.6059
37243SOL    HW220698  10.129  12.250   2.414  0.3348 -0.0490 -0.5086
37244SOL     OW20699   6.865  11.819   1.811  0.0295 -0.2646 -0.0399
37244SOL    HW120700   6.885  11.896   1.865  0.2881 -0.1180 -0.3384
37244SOL    HW220701   6.774  11.798   1.832  0.6925 -1.4386  1.9558
37245SOL     OW20702   4.793   9.652   2.333 -0.0300  0.1471 -0.2521
37245SOL    HW120703   4.743   9.586   2.382 -0.7895 -0.4338 -1.7502
37245SOL    HW220704   4.884   9.635   2.356 -0.4374  1.2770  2.6205
37246SOL     OW20705   7.926   4.381  11.918  0.0869  0.7141 -0.2474
37246SOL    HW120706   7.960   4.296  11.946 -1.2198 -0.0755 -0.9244
37246SOL    HW220707   7.997   4.421  11.868  1.7400  1.2828  2.3443
37247SOL     OW20708   8.792  12.080   0.450 -0.0290  0.1209 -0.3180
37247SOL    HW120709   8.787  11.986   0.463  1.4923 -0.2360 -1.9098
37247SOL    HW220710   8.748  12.096   0.366 -0.1937  0.8336 -0.1115
37248SOL     OW20711   8.648   6.409   0.088  0.1096 -0.2214 -0.0106
37248SOL    HW120712   8.601   6.404   0.171 -0.1241 -2.8063 -0.2258
37248SOL    HW220713   8.738   6.385   0.110  0.0271 -1.0049 -0.4822
37249SOL     OW20714   3.321  11.083   0.768  0.4248 -0.0193 -0.6599
37249SOL    HW120715   3.331  11.178   0.777  1.4889 -0.1329 -0.4738
37249SOL    HW220716   3.338  11.066   0.676 -1.5052  0.1388 -1.0935
37250SOL     OW20717   8.951  11.905   8.167 -0.4057  0.4104  0.3276
37250SOL    HW120718   8.991  11.992   8.163 -0.2400  0.5843  3.6672
37250SOL    HW220719   8.860  11.921   8.191 -0.5713 -0.3319  0.2215
37251SOL     OW20720   6.676  11.668   3.787 -0.7646 -0.2944  0.1181
37251SOL    HW120721   6.622  11.611   3.733 -0.5897 -1.0384  0.7030
37251SOL    HW220722   6.766  11.643   3.766 -0.6382  0.7303 -0.6295
37252SOL     OW20723   7.785  10.922   0.494 -0.2210  0.0160  0.6429
37252SOL    HW120724   7.714  10.952   0.551 -0.0377  0.1912  0.7777
37252SOL    HW220725   7.747  10.847   0.447 -0.3941 -0.0874  0.9444
37253SOL     OW20726  10.958   5.257   0.343  0.3931  0.3403 -0.4654
37253SOL    HW120727  10.913   5.254   0.258 -0.7699  0.8445  0.1066
37253SOL    HW220728  10.898   5.213   0.403  0.6592  1.0375  0.3248
37254SOL     OW20729   4.919   9.994   7.008  0.4358 -0.1568  0.1709
37254SOL    HW120730   5.001   9.947   7.017 -0.0382 -1.2895 -1.1047
37254SOL    HW220731   4.868   9.970   7.086  1.6481  1.3756  1.5136
37255SOL     OW20732  11.183   0.937   1.491 -0.2833 -0.3135  0.2555
37255SOL    HW120733  11.167   0.864   1.552 -0.9003 -1.2934 -1.0350
37255SOL    HW220734  11.185   0.896   1.405 -1.3135  1.2875 -0.5755
37256SOL     OW20735   2.704   1.457   9.246 -0.0966 -0.5324  0.2500
37256SOL    HW120736   2.655   1.527   9.202 -0.8243 -0.2531  1.4575
37256SOL    HW220737   2.795   1.485   9.240 -0.1165 -0.7046 -1.4007
37257SOL     OW20738   9.435   8.044  12.209 -0.1607 -0.2732  0.0522
37257SOL    HW120739   9.411   8.052  12.302 -0.2403  0.4496 -0.0215
37257SOL    HW220740   9.393   7.963  12.180 -0.0628 -0.5496  0.6703
37258SOL     OW20741  10.960  10.741   2.926  0.5709  0.4809 -0.2690
37258SOL    HW120742  10.930  10.727   2.836  0.1536 -1.2136  0.0957
37258SOL    HW220743  10.903  10.685   2.979  3.0823 -1.3289  0.6699
37259SOL     OW20744   0.120   7.446   5.581 -0.1208 -0.1028  0.1059
37259SOL    HW120745   0.088   7.527   5.540  0.5112 -0.5372 -1.3195
37259SOL    HW220746   0.125   7.384   5.509 -0.3829 -1.3663  1.1479
37260SOL     OW20747   7.695   7.036   1.547  0.4380 -0.2725 -0.0049
37260SOL    HW120748   7.707   7.078   1.632 -1.0256 -1.4155  0.8184
37260SOL    HW220749   7.672   7.108   1.487 -0.0033  0.3629  0.9062
37261SOL     OW20750   1.089   1.510   1.105  0.3975  0.4290 -0.4979
37261SOL    HW120751   1.047   1.587   1.066 -0.6996 -0.6470 -1.5259
37261SOL    HW220752   1.043   1.496   1.187  0.8876  1.0989 -0.0966
37262SOL     OW20753   3.904  10.533  11.267  0.0555 -0.3481  0.3500
37262SOL    HW120754   3.845  10.458  11.253 -0.3815 -0.2947  1.7701
37262SOL    HW220755   3.976  10.518  11.206 -0.6133 -1.2981 -0.2338
37263SOL     OW20756   1.605   9.124   0.205 -0.6573  0.3658 -0.1808
37263SOL    HW120757   1.691   9.149   0.241 -0.6235  1.7869 -1.1414
37263SOL    HW220758   1.595   9.032   0.227  0.5156  0.5244  1.1389
37264SOL     OW20759  10.306   7.886   2.375 -0.2376 -0.2774 -0.3301
37264SOL    HW120760  10.302   7.867   2.281 -0.8214 -1.2371 -0.1308
37264SOL    HW220761  10.236   7.950   2.390 -2.5527 -2.7083 -0.0239
37265SOL     OW20762   1.877   2.191   4.977  0.2198 -0.0355  0.3851
37265SOL    HW120763   1.791   2.149   4.973  0.6676 -0.9844  0.6494
37265SOL    HW220764   1.940   2.119   4.972  0.9966  0.5538  1.3028
37266SOL     OW20765   3.756   4.934   8.854 -0.5054 -0.3979  0.0721
37266SOL    HW120766   3.715   5.016   8.829 -2.0302 -0.5518  1.8432
37266SOL    HW220767   3.683   4.873   8.864  0.5483 -1.8265 -0.6437
37267SOL     OW20768   3.082   1.000  10.507  0.0606 -0.1468  0.1410
37267SOL    HW120769   3.130   1.080  10.487 -3.5773  1.8752 -1.3292
37267SOL    HW220770   3.038   1.019  10.590 -1.4439 -0.2135 -0.6010
37268SOL     OW20771  11.489   4.714   4.899  0.3147  0.0377  0.1577
37268SOL    HW120772  11.565   4.669   4.861 -0.5935 -2.4920  1.0942
37268SOL    HW220773  11.461   4.657   4.970 -2.1789  1.1300  0.1524
37269SOL     OW20774   8.665   7.614   7.526  0.5780 -0.1291  0.2874
37269SOL    HW120775   8.634   7.578   7.609 -0.7456 -2.3628 -1.0559
37269SOL    HW220776   8.725   7.547   7.493  0.8493  0.5848 -0.7060
37270SOL     OW20777   3.058   1.961   3.422 -0.0520  0.0338  0.4959
37270SOL    HW120778   2.986   1.971   3.360  0.9851 -0.6362 -0.8748
37270SOL    HW220779   3.025   1.902   3.489 -0.0808 -2.2139 -1.3643
37271SOL     OW20780   4.665   7.707  10.355  0.1520  0.3424  0.3284
37271SOL    HW120781   4.716   7.628  10.366  0.0530  0.2299  0.0119
37271SOL    HW220782   4.578   7.676  10.330  0.1464  0.5521  0.0794
37272SOL     OW20783   0.602   1.140   7.188  0.1382  0.2921  0.6814
37272SOL    HW120784   0.604   1.159   7.282 -0.2596  2.2453  0.3468
37272SOL    HW220785   0.650   1.213   7.149 -1.5318  0.6673 -0.7761
37273SOL     OW20786   2.214  12.055   1.615  0.5310  0.2905 -0.3331
37273SOL    HW120787   2.236  11.963   1.629  3.3482  0.8231 -0.7023
37273SOL    HW220788   2.192  12.088   1.702 -0.1391 -0.6066 -0.1394
37274SOL     OW20789   5.856   8.997   1.338 -0.2256  0.4823 -0.0740
37274SOL    HW120790   5.884   8.942   1.264 -0.0748  1.5196 -0.8065
37274SOL    HW220791   5.819   8.935   1.401  1.0631 -0.6153 -0.3348
37275SOL     OW20792  10.203   4.294   5.254 -0.4393 -0.2823 -0.2988
37275SOL    HW120793  10.148   4.218   5.273  0.5365 -0.3121  2.9837
37275SOL    HW220794  10.284   4.258   5.218 -0.9245 -0.5683 -1.1151
37276SOL     OW20795   6.433   0.456   6.392  0.3017  0.3528  0.5505
37276SOL    HW120796   6.361   0.519   6.399  0.2955  0.4883 -0.5354
37276SOL    HW220797   6.507   0.507   6.360  0.0424 -0.3119 -1.2981
37277SOL     OW20798   9.924  12.307   0.308  0.4648  0.6512 -0.3612
37277SOL    HW120799   9.915  12.236   0.244 -0.8029  1.1205 -0.7263
37277SOL    HW220800   9.938  12.385   0.255  1.2009  0.7925  0.0191
37278SOL     OW20801   1.194  12.365  10.301  0.6293  0.0949 -0.4361
37278SOL    HW120802   1.257  12.412  10.245  0.7711  0.2199 -0.1698
37278SOL    HW220803   1.109  12.379  10.257  0.8725 -0.6519 -1.1752
37279SOL     OW20804   7.421  10.608   4.455  0.2410  0.3859  0.3658
37279SOL    HW120805   7.468  10.671   4.400 -2.8999  0.8889 -1.9989
37279SOL    HW220806   7.383  10.661   4.525  0.9411  0.4103  0.7342
37280SOL     OW20807  12.278   6.252   2.614  0.6530  0.0614 -0.2181
37280SOL    HW120808  12.322   6.178   2.655  1.6071  1.2888  1.0557
37280SOL    HW220809  12.326   6.267   2.533  0.1027 -1.0238 -0.7782
37281SOL     OW20810   7.524   7.388   0.616  0.4933 -0.4008 -0.2356
37281SOL    HW120811   7.603   7.419   0.572  0.4025 -0.8822 -0.7632
37281SOL    HW220812   7.455   7.397   0.550  0.3893 -1.3014 -0.2637
37282SOL     OW20813   3.353   0.397   3.799  0.1964 -1.0849 -0.8233
37282SOL    HW120814   3.359   0.469   3.737 -0.4730 -1.8522 -1.8213
37282SOL    HW220815   3.429   0.342   3.779  0.0836 -1.2370 -0.8327
37283SOL     OW20816   9.741  12.247   8.872 -0.4611 -0.1842 -0.1066
37283SOL    HW120817   9.696  12.269   8.954 -0.7839  2.2664 -0.8650
37283SOL    HW220818   9.825  12.293   8.879  0.6099 -2.0427 -0.1116
37284SOL     OW20819   9.843   3.219   4.917 -0.0463 -0.2087  0.5705
37284SOL    HW120820   9.883   3.257   4.995 -1.0666 -2.3424  2.2504
37284SOL    HW220821   9.899   3.247   4.844  2.0314  0.2921  2.2812
37285SOL     OW20822  10.105   3.783   7.198 -0.0331 -0.1650 -0.7100
37285SOL    HW120823  10.098   3.727   7.121 -1.8549  0.8056 -1.3184
37285SOL    HW220824  10.025   3.836   7.196  0.1938  0.3546  1.4901
37286SOL     OW20825  10.027   4.049   2.069 -0.5914  0.7141 -0.4669
37286SOL    HW120826   9.993   3.987   2.005  0.2356 -0.2334 -0.0140
37286SOL    HW220827  10.120   4.057   2.049  0.0487 -0.8383  1.5623
37287SOL     OW20828   8.435   3.437  11.235  0.2766 -0.0479  0.2317
37287SOL    HW120829   8.507   3.477  11.284  0.5888 -0.4491  0.1135
37287SOL    HW220830   8.474   3.415  11.151  0.6503 -2.2527  0.9093
37288SOL     OW20831   1.129  10.378   9.068 -0.8155  0.1600 -0.0345
37288SOL    HW120832   1.169  10.402   8.984  0.9351 -0.4619  0.5819
37288SOL    HW220833   1.189  10.411   9.134 -0.7314 -1.7214  0.9166
37289SOL     OW20834   4.273   6.172   1.317 -0.2947  0.4690 -0.2780
37289SOL    HW120835   4.266   6.264   1.290  0.6319  0.5241 -0.3458
37289SOL    HW220836   4.366   6.158   1.331 -0.5575 -0.1172  0.9993
37290SOL     OW20837   9.029   9.120   9.694  0.9975 -0.2327 -0.6395
37290SOL    HW120838   9.007   9.091   9.605 -0.0366  0.7026 -0.7090
37290SOL    HW220839   8.948   9.157   9.728  1.1924 -1.2143  0.9702
37291SOL     OW20840  10.004   9.540  10.561 -0.2227 -0.1985  0.2743
37291SOL    HW120841  10.071   9.473  10.577 -0.5985 -0.1420  2.3331
37291SOL    HW220842   9.951   9.504  10.489 -0.1650 -1.9343  1.0434
37292SOL     OW20843  10.231   2.266   9.702  0.4956  0.3800  0.1944
37292SOL    HW120844  10.177   2.345   9.707  0.9285  0.6124  1.5423
37292SOL    HW220845  10.206   2.226   9.619 -1.2639  0.8301  0.4604
37293SOL     OW20846   5.430   2.729   3.070 -0.9775  0.1574  0.2115
37293SOL    HW120847   5.482   2.694   2.997 -0.1761  2.5624 -0.4771
37293SOL    HW220848   5.347   2.754   3.031 -1.6321 -1.0832  0.7447
37294SOL     OW20849   6.520  10.483   3.056  0.2252 -0.4120  0.5190
37294SOL    HW120850   6.567  10.493   2.974  2.2267 -0.3108  1.6075
37294SOL    HW220851   6.428  10.499   3.034  1.0305  2.8819 -1.1463
37295SOL     OW20852  11.341   6.484   2.416  0.1083  0.2957 -0.0307
37295SOL    HW120853  11.344   6.431   2.495 -1.3078 -1.3558 -1.0197
37295SOL    HW220854  11.421   6.538   2.420  0.4345 -0.2617  2.1178
37296SOL     OW20855   0.731   0.863   2.511  0.8623 -0.0827  0.0067
37296SOL    HW120856   0.823   0.852   2.487  1.4454  1.1694  1.5317
37296SOL    HW220857   0.729   0.940   2.567 -1.5280  1.6087 -2.1440
37297SOL     OW20858   1.572   4.554   7.177 -0.0790 -0.0162 -0.2811
37297SOL    HW120859   1.643   4.533   7.117  0.1722 -0.6007  0.2203
37297SOL    HW220860   1.535   4.636   7.142  0.0170 -0.3816 -1.2676
37298SOL     OW20861   1.665   8.318   1.241  0.5057  0.2145  0.0804
37298SOL    HW120862   1.756   8.287   1.236  0.3645 -0.4679  1.2564
37298SOL    HW220863   1.635   8.319   1.151  2.0736  1.7112 -0.4857
37299SOL     OW20864   5.581  11.757   2.135  0.2280  0.0078  0.4015
37299SOL    HW120865   5.655  11.774   2.077 -2.3732  1.4639 -2.8210
37299SOL    HW220866   5.567  11.841   2.180 -0.4793  0.2640 -0.2898
37300SOL     OW20867  12.204  12.274   5.716 -1.0643 -0.0285  0.0826
37300SOL    HW120868  12.140  12.325   5.765 -0.5856 -1.2487  2.0926
37300SOL    HW220869  12.196  12.305   5.626 -2.0168  2.2853  0.9003
37301SOL     OW20870   3.875   7.736   1.262  0.4047  0.0615 -0.2238
37301SOL    HW120871   3.807   7.746   1.329  0.5160 -2.6007  0.4024
37301SOL    HW220872   3.827   7.727   1.180  0.1119  0.3010 -0.0818
37302SOL     OW20873   6.395   2.500   7.351 -0.1860 -0.2288 -0.1855
37302SOL    HW120874   6.372   2.513   7.443  0.5960 -1.0535  0.1457
37302SOL    HW220875   6.475   2.447   7.354  0.3589  0.4864 -1.3221
37303SOL     OW20876   5.339   9.775   3.721 -0.7026  0.5143  0.4296
37303SOL    HW120877   5.390   9.796   3.643 -0.6887  1.6501  0.7174
37303SOL    HW220878   5.387   9.703   3.763  0.0330  0.7983  0.0922
37304SOL     OW20879   1.183  10.087   7.763  0.1215 -0.3010  0.1581
37304SOL    HW120880   1.118  10.141   7.716 -0.9541 -0.9218  0.8829
37304SOL    HW220881   1.132  10.016   7.801  1.2312 -0.7657  0.8301
37305SOL     OW20882  11.685  10.615   7.543  0.2146 -0.1785 -0.2890
37305SOL    HW120883  11.779  10.603   7.551  0.1779 -0.5527 -0.3900
37305SOL    HW220884  11.659  10.559   7.470  0.0704  0.7405 -0.9705
37306SOL     OW20885   3.135   2.752   3.190 -0.2221 -0.1052 -0.2898
37306SOL    HW120886   3.066   2.794   3.138 -0.5233  1.2535  1.1181
37306SOL    HW220887   3.168   2.682   3.134 -1.5876  0.2907 -1.6690
37307SOL     OW20888  10.435  10.164   3.935 -0.5471 -0.1530  0.2196
37307SOL    HW120889  10.373  10.171   3.863 -0.7509 -2.5586  0.0637
37307SOL    HW220890  10.395  10.213   4.007 -1.4029  0.4271 -0.6336
37308SOL     OW20891   8.398   1.530   6.540  0.4005 -0.2432  0.5521
37308SOL    HW120892   8.471   1.482   6.502  0.5598  1.1989 -1.1023
37308SOL    HW220893   8.320   1.484   6.508  0.5577 -0.4079  0.4033
37309SOL     OW20894   4.224   7.535   2.589  0.1618 -0.1187  0.1283
37309SOL    HW120895   4.312   7.498   2.602 -1.0801 -3.5153 -0.3306
37309SOL    HW220896   4.210   7.530   2.494 -1.2339 -1.5120  0.3718
37310SOL     OW20897   8.218   4.632   0.849 -0.0895 -0.1059  0.0434
37310SOL    HW120898   8.127   4.662   0.843 -0.0643 -0.1491 -0.6414
37310SOL    HW220899   8.269   4.710   0.870 -0.2062  0.0327 -0.1987
37311SOL     OW20900   1.667   0.434  10.202  0.6726 -0.3468  0.7594
37311SOL    HW120901   1.636   0.523  10.219 -1.4910 -0.3359 -2.4238
37311SOL    HW220902   1.733   0.445  10.134 -0.8871 -1.2053 -0.9778
37312SOL     OW20903   7.501  10.722   6.208 -0.1846 -0.2109 -0.3062
37312SOL    HW120904   7.528  10.811   6.187 -0.9874  0.1755  0.2670
37312SOL    HW220905   7.430  10.703   6.147  0.3808 -0.6896 -0.8326
37313SOL     OW20906   5.927  11.616   2.819  0.1635  0.7054  0.5113
37313SOL    HW120907   5.997  11.663   2.773 -0.1910  0.3862 -0.3602
37313SOL    HW220908   5.851  11.673   2.812  0.1205  0.6763  0.7459
37314SOL     OW20909  11.463   7.156  11.720  0.3162 -0.3606  0.8931
37314SOL    HW120910  11.509   7.202  11.649 -0.2239 -0.3243  0.5635
37314SOL    HW220911  11.533   7.110  11.767  0.7378 -0.0300  0.6085
37315SOL     OW20912   5.933   9.198   1.921  0.1257  0.2038 -0.0206
37315SOL    HW120913   5.891   9.136   1.981 -1.5822 -1.2082 -2.4971
37315SOL    HW220914   6.014   9.155   1.895  0.8404  0.7922  1.1327
37316SOL     OW20915   5.791   6.965  10.406  0.3080 -0.7655 -0.4061
37316SOL    HW120916   5.781   6.989  10.314 -1.6314  2.0717  0.4006
37316SOL    HW220917   5.818   7.047  10.449 -0.3108 -1.6292  1.7610
37317SOL     OW20918   0.493  11.932   8.284  0.0837  0.1112  0.6633
37317SOL    HW120919   0.492  11.879   8.364 -1.3360 -0.0633  0.5563
37317SOL    HW220920   0.567  11.898   8.233  0.1064 -0.7468  1.2574
37318SOL     OW20921   0.718  10.348   8.770  0.6425  0.3729 -0.4569
37318SOL    HW120922   0.760  10.264   8.789 -1.1641 -0.5632 -0.3070
37318SOL    HW220923   0.675  10.335   8.685  1.8191  1.7826 -1.3126
37319SOL     OW20924  11.924  10.539   3.950 -0.2919 -0.5507  0.4689
37319SOL    HW120925  11.978  10.569   3.876 -0.5903  4.2142  1.8498
37319SOL    HW220926  11.834  10.551   3.921 -0.4652 -0.9409  0.8301
37320SOL     OW20927   3.223   2.629   2.144 -0.1453  0.0023 -0.2053
37320SOL    HW120928   3.212   2.560   2.209 -0.6759  1.2493  1.0512
37320SOL    HW220929   3.139   2.674   2.141  0.6733  1.6337  0.2271
37321SOL     OW20930  10.508   3.325   0.470 -0.0084  0.2457  0.3165
37321SOL    HW120931  10.456   3.287   0.399 -1.3486  2.3603  0.0829
37321SOL    HW220932  10.582   3.366   0.425 -0.1937  0.5071  0.2433
37322SOL     OW20933   6.830   8.274   6.926  0.0810  0.3466  0.3935
37322SOL    HW120934   6.796   8.201   6.875 -1.7892  0.5074  1.3376
37322SOL    HW220935   6.779   8.350   6.896  1.1842  1.0590  0.2551
37323SOL     OW20936  10.996   2.924  11.203  0.2519  0.0573 -0.1828
37323SOL    HW120937  10.936   2.966  11.141  0.8184 -1.6414 -1.9917
37323SOL    HW220938  11.081   2.925  11.159  0.9182 -0.2679  1.0371
37324SOL     OW20939  10.147   8.760   1.428 -0.4788 -0.0427  0.3225
37324SOL    HW120940  10.205   8.701   1.476 -0.8826 -0.6063  0.1303
37324SOL    HW220941  10.059   8.736   1.456 -0.8255 -1.3271 -1.6602
37325SOL     OW20942  12.404   8.307   9.841 -0.2018 -0.3543  0.0801
37325SOL    HW120943  12.322   8.264   9.866 -0.1685 -0.7642 -0.4762
37325SOL    HW220944  12.437   8.346   9.922 -0.6231 -0.7350  0.4415
37326SOL     OW20945   5.833   8.229  10.310 -0.2167  0.1692 -0.4120
37326SOL    HW120946   5.751   8.214  10.262  0.8464 -1.1645 -1.9041
37326SOL    HW220947   5.862   8.316  10.282 -0.0623 -0.2317 -1.5690
37327SOL     OW20948  11.314   4.120  10.137 -0.1695 -0.1830 -0.1077
37327SOL    HW120949  11.268   4.190  10.091 -2.5564 -1.0767  0.7428
37327SOL    HW220950  11.340   4.159  10.220 -1.1726 -0.1514  0.2109
37328SOL     OW20951   3.614   1.106   9.096  0.6829  0.1571 -0.5632
37328SOL    HW120952   3.525   1.076   9.076  0.3408  0.6630  0.1658
37328SOL    HW220953   3.632   1.173   9.030  0.7437 -0.3445 -1.0615
37329SOL     OW20954   2.611   2.455   6.901 -0.0752 -0.2342 -0.0614
37329SOL    HW120955   2.552   2.524   6.872 -0.5948 -0.4543  0.4446
37329SOL    HW220956   2.646   2.418   6.820 -1.6829 -0.9998 -0.4442
37330SOL     OW20957   3.917  10.845   4.283 -0.0994 -0.4677 -0.3998
37330SOL    HW120958   3.829  10.813   4.263 -1.0851  1.3209  0.7998
37330SOL    HW220959   3.935  10.909   4.213 -0.5480  0.4790  0.3160
37331SOL     OW20960   6.228   1.736   3.015  0.1506 -0.5752  0.0063
37331SOL    HW120961   6.182   1.673   2.960 -0.4830 -0.3150  0.2314
37331SOL    HW220962   6.320   1.727   2.989  0.0434 -1.4173 -0.1327
37332SOL     OW20963   1.367   8.392   8.318 -0.5584 -0.0429 -0.2875
37332SOL    HW120964   1.301   8.336   8.276 -0.7917 -0.9296  1.1697
37332SOL    HW220965   1.327   8.418   8.401  1.8299 -2.9203  2.0328
37333SOL     OW20966  10.010   3.797   0.131  0.2683  0.1809  0.2614
37333SOL    HW120967   9.924   3.836   0.114  0.6275  1.7950  1.9113
37333SOL    HW220968  10.065   3.870   0.159  2.2017 -0.8206 -0.7056
37334SOL     OW20969   2.681   2.017   3.847  0.5031  0.0107  0.5060
37334SOL    HW120970   2.703   2.088   3.787  1.3069  0.0845  0.8829
37334SOL    HW220971   2.620   1.962   3.797 -0.8982  1.4513  0.5337
37335SOL     OW20972   6.942   6.837  11.597 -0.4426 -0.0980 -0.0313
37335SOL    HW120973   6.916   6.847  11.505  1.4919 -2.1368 -0.9067
37335SOL    HW220974   6.995   6.915  11.616 -0.2495 -0.0101 -0.8949
37336SOL     OW20975   6.015   7.487   2.022  0.0856  0.4602  0.1977
37336SOL    HW120976   5.970   7.536   1.953 -0.4711  1.8550  1.4720
37336SOL    HW220977   5.945   7.461   2.082  0.6184 -0.2198  0.5367
37337SOL     OW20978   4.366   5.933   2.773 -0.1389 -0.0286  0.0329
37337SOL    HW120979   4.437   5.890   2.724 -1.5409 -1.7417 -0.5905
37337SOL    HW220980   4.312   5.974   2.705 -0.3296  0.3609  0.4154
37338SOL     OW20981  10.946   8.700  11.525 -1.0915  0.0130  0.1146
37338SOL    HW120982  11.003   8.636  11.483  0.1893  0.7197  0.7268
37338SOL    HW220983  10.857   8.667  11.509 -0.6127 -0.3508 -2.1290
37339SOL     OW20984   9.913  10.746   0.909  1.0451 -0.1495 -0.0103
37339SOL    HW120985   9.960  10.829   0.903 -2.2733  1.9064  0.4196
37339SOL    HW220986   9.954  10.701   0.983  1.9181  1.8092  0.7707
37340SOL     OW20987   8.724   6.541  10.371  0.3965  0.3697 -0.2353
37340SOL    HW120988   8.792   6.515  10.309 -2.1421  0.5770 -3.3146
37340SOL    HW220989   8.737   6.636  10.382  2.1359  0.0135  1.3529
37341SOL     OW20990   2.015   8.710  10.127 -0.8306 -0.2117 -0.0666
37341SOL    HW120991   1.973   8.718  10.042 -0.4862 -1.1487 -0.3275
37341SOL    HW220992   2.079   8.781  10.129 -1.7703  0.6676 -0.0250
37342SOL     OW20993   6.476   4.736   7.848 -0.3193 -0.2147  0.0108
37342SOL    HW120994   6.455   4.782   7.929 -2.3695 -2.8983  1.1681
37342SOL    HW220995   6.478   4.804   7.781 -1.6872  1.7045  1.7905
37343SOL     OW20996   5.444   4.402   4.586  0.1751 -0.0096 -0.1746
37343SOL    HW120997   5.359   4.400   4.540 -0.3469  0.0594  0.7663
37343SOL    HW220998   5.486   4.320   4.560 -0.9234 -0.8809  0.6941
37344SOL     OW20999   3.170   1.251   8.125  0.5790 -0.5390 -0.4553
37344SOL    HW121000   3.082   1.254   8.162  1.1373  1.0349  0.8862
37344SOL    HW221001   3.167   1.314   8.052  0.7759  0.1402  0.1063
37345SOL     OW21002   6.360   4.626   4.491  0.0221 -0.1157 -0.2773
37345SOL    HW121003   6.434   4.669   4.533 -0.9362  0.6136  0.7280
37345SOL    HW221004   6.306   4.697   4.458 -0.1830 -0.6435 -1.1003
37346SOL     OW21005   1.058  11.774   3.385 -0.3908 -0.3676 -0.4529
37346SOL    HW121006   1.150  11.768   3.411  0.0951 -0.2888 -2.0392
37346SOL    HW221007   1.010  11.774   3.467  1.0476 -0.0575  0.4234
37347SOL     OW21008  11.610   8.517   5.469  0.2659 -0.4646  0.2551
37347SOL    HW121009  11.648   8.582   5.528  1.5172 -0.0313 -0.9652
37347SOL    HW221010  11.636   8.432   5.506  3.0227 -0.1887 -0.8078
37348SOL     OW21011  11.324  10.756   0.630  0.5493  0.5135 -0.4339
37348SOL    HW121012  11.333  10.662   0.618  0.7772  0.3341  1.0309
37348SOL    HW221013  11.320  10.791   0.540 -0.0899 -0.9171 -0.9918
37349SOL     OW21014   4.652   1.748   6.268  0.9134  0.4050  0.1922
37349SOL    HW121015   4.733   1.699   6.249  2.0598  1.4012  2.1748
37349SOL    HW221016   4.664   1.831   6.222 -1.0435 -0.9751 -3.1935
37350SOL     OW21017  12.086   7.427   6.409  0.3556  0.4236 -0.3617
37350SOL    HW121018  12.049   7.481   6.339 -0.2032 -1.0382 -1.2357
37350SOL    HW221019  12.169   7.470   6.431  0.2215  1.2865 -1.4613
37351SOL     OW21020   5.178   7.033   0.422 -0.2330  0.1294  0.4619
37351SOL    HW121021   5.274   7.029   0.425 -0.2485 -1.1198 -0.3061
37351SOL    HW221022   5.150   6.942   0.417 -1.4023  0.5407 -1.1001
37352SOL     OW21023  11.628   2.533   9.366  0.2377 -0.3436 -0.3819
37352SOL    HW121024  11.697   2.497   9.422 -0.6706 -0.8712  0.4270
37352SOL    HW221025  11.621   2.471   9.294 -0.5121 -1.2085  0.3987
37353SOL     OW21026   0.093   0.121   6.028  0.1043  0.4666 -0.6887
37353SOL    HW121027   0.048   0.179   5.966  1.0597  2.2167  0.1680
37353SOL    HW221028   0.023   0.066   6.064 -0.6589  0.3044 -2.3450
37354SOL     OW21029   0.743   5.053   6.376 -0.1821 -0.0710 -0.0966
37354SOL    HW121030   0.773   4.965   6.350 -2.0235 -0.1828 -2.0924
37354SOL    HW221031   0.676   5.037   6.442  1.5179  0.0417  1.7680
37355SOL     OW21032   4.765   8.559  11.056  0.2741 -0.1315 -0.3176
37355SOL    HW121033   4.827   8.629  11.036 -0.4921  0.0776 -2.1592
37355SOL    HW221034   4.765   8.553  11.152  0.5199  2.2407 -0.1124
37356SOL     OW21035   7.919   2.019   7.976  0.7209 -0.0684 -0.2894
37356SOL    HW121036   7.993   2.021   8.037  0.7846  1.0963 -0.3802
37356SOL    HW221037   7.904   1.926   7.961  1.8578 -0.3434  0.1060
37357SOL     OW21038   0.079  10.275   7.954  0.5546 -0.0001  0.2303
37357SOL    HW121039   0.068  10.357   8.003 -0.9010 -0.2004  0.2730
37357SOL    HW221040   0.012  10.278   7.886 -0.6516 -1.8699  1.2567
37358SOL     OW21041   5.414  10.904   9.515  0.1339 -0.3866  0.2127
37358SOL    HW121042   5.490  10.845   9.517 -0.0487 -0.7984 -2.1164
37358SOL    HW221043   5.452  10.992   9.518  1.1686 -0.4196 -4.3224
37359SOL     OW21044   0.165  11.288   2.000  0.4479 -0.7727  0.2376
37359SOL    HW121045   0.074  11.278   1.972  0.4510 -2.2491  0.6915
37359SOL    HW221046   0.169  11.377   2.034 -0.2702  0.0690 -1.7311
37360SOL     OW21047   2.016   0.823   2.804 -0.6030 -0.2177  0.1900
37360SOL    HW121048   1.947   0.878   2.768  0.5726  2.6583  2.0067
37360SOL    HW221049   1.977   0.784   2.882  0.0085  2.4421  1.9761
37361SOL     OW21050   7.546   2.962   0.843  0.1764 -0.7668  0.2928
37361SOL    HW121051   7.516   2.951   0.753 -1.3364 -2.8090  0.9671
37361SOL    HW221052   7.631   2.917   0.845  1.6684  1.8067 -0.7335
37362SOL     OW21053   3.849  12.549   2.747  0.4747  0.4363 -0.0347
37362SOL    HW121054   3.818  12.561   2.657 -0.8698 -1.6611  0.0821
37362SOL    HW221055   3.942  12.527   2.737  0.1942 -0.4198 -0.9867
37363SOL     OW21056   2.966   0.524   3.823  0.8508 -0.5846 -0.6771
37363SOL    HW121057   3.016   0.582   3.880  0.6879 -1.9782  0.9480
37363SOL    HW221058   3.025   0.451   3.804  0.5848 -0.5858 -1.5770
37364SOL     OW21059   6.329   8.343  11.241  0.1118  0.1805  0.6131
37364SOL    HW121060   6.346   8.436  11.228 -0.0285  0.1459  0.1524
37364SOL    HW221061   6.351   8.327  11.332  1.6301  0.3384  0.2894
37365SOL     OW21062   2.731   0.405  10.031 -0.4858 -0.8032 -0.2499
37365SOL    HW121063   2.739   0.470   9.960  0.4672 -1.1900 -0.5182
37365SOL    HW221064   2.637   0.400  10.049 -0.6114  0.3713 -0.4836
37366SOL     OW21065   3.942   5.399   1.866 -0.2959  0.4053 -0.2201
37366SOL    HW121066   3.890   5.479   1.856  0.9302  1.1048 -1.3290
37366SOL    HW221067   4.009   5.406   1.798  0.7488 -0.8501  0.6489
37367SOL     OW21068   2.638   2.271   1.954 -0.2273 -0.2034 -0.0375
37367SOL    HW121069   2.668   2.183   1.977  0.5238  0.4336  1.5451
37367SOL    HW221070   2.624   2.268   1.860  0.7442 -1.7416 -0.1574
37368SOL     OW21071   3.739   9.360  11.912 -0.0221 -0.5913  0.1011
37368SOL    HW121072   3.751   9.265  11.913 -0.6927 -0.7082  2.0268
37368SOL    HW221073   3.755   9.386  11.821  1.7629 -2.3268 -0.1335
37369SOL     OW21074   5.858  10.143   0.995  0.2437 -0.3660  0.5313
37369SOL    HW121075   5.846  10.055   1.028  0.7802 -0.4916  0.4090
37369SOL    HW221076   5.953  10.151   0.981  0.2385  0.3236  0.8093
37370SOL     OW21077   9.943   9.050   3.451 -0.1596  0.7851  0.1824
37370SOL    HW121078   9.862   9.075   3.408  0.7263  1.0201 -1.4040
37370SOL    HW221079  10.009   9.108   3.415  1.0708 -0.6580 -0.0115
37371SOL     OW21080   8.524   6.863   2.232 -0.0891 -0.2809  0.5102
37371SOL    HW121081   8.504   6.952   2.262 -0.8881  0.2322 -1.3939
37371SOL    HW221082   8.439   6.818   2.231 -0.3456  0.1116 -2.0202
37372SOL     OW21083   8.564   5.601   3.750 -0.4666  0.0655 -0.1485
37372SOL    HW121084   8.555   5.549   3.829  1.4509 -2.3312 -1.3685
37372SOL    HW221085   8.655   5.630   3.750  0.7886 -3.0780 -3.0135
37373SOL     OW21086   6.393   4.765   4.838  0.3409 -0.4869 -0.2158
37373SOL    HW121087   6.303   4.738   4.854  0.6857 -0.2553  2.6837
37373SOL    HW221088   6.386   4.846   4.787 -1.1052 -0.1925  0.4249
37374SOL     OW21089   5.541   3.126   4.075  0.5005  0.0885 -0.1119
37374SOL    HW121090   5.613   3.176   4.116  2.0535 -1.5001 -0.7755
37374SOL    HW221091   5.492   3.090   4.149 -0.7249  2.5745  0.3972
37375SOL     OW21092  11.255  11.232   1.688 -0.2011 -0.0187 -0.4752
37375SOL    HW121093  11.241  11.322   1.658  0.8153  0.0910 -0.6583
37375SOL    HW221094  11.300  11.241   1.772  1.7480 -0.3239 -1.4208
37376SOL     OW21095   0.945   1.101  10.201 -0.5812 -0.1631 -0.1710
37376SOL    HW121096   0.890   1.031  10.165  0.5363 -0.8539 -0.5853
37376SOL    HW221097   0.990   1.138  10.125  1.5076 -1.3712  0.4015
37377SOL     OW21098   3.691   0.630   2.455 -0.1970 -0.1494 -0.2140
37377SOL    HW121099   3.693   0.548   2.505 -1.1809 -0.4671 -0.6648
37377SOL    HW221100   3.733   0.610   2.372  1.1976  0.3073  0.3596
37378SOL     OW21101   1.777   0.052   5.627  0.6132 -0.5029 -0.0993
37378SOL    HW121102   1.689   0.036   5.661  0.9810 -5.0674 -0.6849
37378SOL    HW221103   1.763   0.082   5.537 -0.3770 -1.3977 -0.2619
37379SOL     OW21104   4.764   7.891   0.214  0.1387  0.2365  0.3558
37379SOL    HW121105   4.770   7.873   0.120 -1.0096  0.0058  0.3024
37379SOL    HW221106   4.760   7.986   0.220  0.2324  0.2531  0.1656
37380SOL     OW21107   4.022   3.072   5.088  0.1873 -0.3187 -0.5882
37380SOL    HW121108   3.973   3.129   5.148 -1.4306  0.6465 -2.6696
37380SOL    HW221109   3.986   2.985   5.103 -1.2673  0.1544 -1.1122
37381SOL     OW21110   0.706   0.329   1.636  0.4905  0.4450 -0.2935
37381SOL    HW121111   0.789   0.370   1.662  0.2923  1.0495 -0.6140
37381SOL    HW221112   0.649   0.339   1.713  0.7507 -0.0915 -0.0229
37382SOL     OW21113   2.405   9.144   6.978  0.4135 -0.2865 -0.2306
37382SOL    HW121114   2.349   9.085   7.029  0.0156 -0.3024 -0.6747
37382SOL    HW221115   2.443   9.088   6.910  1.3016 -0.3634  0.3093
37383SOL     OW21116   9.490   2.925   4.686  0.7583  0.3400  0.0104
37383SOL    HW121117   9.531   2.919   4.773  1.2152 -0.9886 -0.2779
37383SOL    HW221118   9.563   2.915   4.625  0.2324 -0.4028 -0.5146
37384SOL     OW21119  11.743   4.940   6.986 -0.8071 -0.0616  0.2849
37384SOL    HW121120  11.788   5.011   6.940 -0.6859  1.2450  2.2949
37384SOL    HW221121  11.650   4.962   6.978 -0.7168  1.0249  1.9105
37385SOL     OW21122   3.702   0.127   9.476 -0.3898  0.1192 -0.5900
37385SOL    HW121123   3.739   0.042   9.452  2.9434  1.2132  0.2294
37385SOL    HW221124   3.671   0.115   9.566 -1.1777 -0.5208 -0.9256
37386SOL     OW21125   2.897   9.460   8.401 -0.1305 -0.4041  0.4698
37386SOL    HW121126   2.807   9.483   8.380 -0.2737 -0.4572  1.0138
37386SOL    HW221127   2.946   9.542   8.393 -0.4135 -0.1594  1.1748
37387SOL     OW21128   0.327  11.749  10.904 -0.1674 -0.3136 -0.0447
37387SOL    HW121129   0.270  11.755  10.828 -1.3073  0.7981  0.8684
37387SOL    HW221130   0.268  11.755  10.979  1.0613  0.0053  0.9257
37388SOL     OW21131   1.035   6.016   8.062  0.5153 -0.3829 -0.3177
37388SOL    HW121132   1.068   5.993   8.149  0.2263  1.4262  0.2994
37388SOL    HW221133   0.998   5.934   8.028 -0.1895 -0.9114  1.6186
37389SOL     OW21134   4.457   5.788   1.777  0.1468  0.3326 -0.0850
37389SOL    HW121135   4.414   5.768   1.694 -0.7372  0.0967  0.4087
37389SOL    HW221136   4.400   5.852   1.818  1.3692  1.6042 -0.3055
37390SOL     OW21137   0.831   1.494  12.098 -0.2516 -0.4083  0.4166
37390SOL    HW121138   0.873   1.463  12.019  0.4491  1.2773  0.0753
37390SOL    HW221139   0.820   1.416  12.152  1.3101 -1.2339 -0.3936
37391SOL     OW21140   4.314  12.078   4.626  0.0454 -0.0985 -0.2876
37391SOL    HW121141   4.232  12.094   4.578  0.1944 -0.1993 -0.5799
37391SOL    HW221142   4.377  12.137   4.586 -0.4794  1.9478  1.6697
37392SOL     OW21143   6.324   7.215   8.336 -0.5459 -0.5816 -0.5694
37392SOL    HW121144   6.293   7.301   8.306  1.7602 -0.2887 -2.4520
37392SOL    HW221145   6.398   7.195   8.278  1.0909 -2.3534  1.9201
37393SOL     OW21146   9.962   3.785   4.554 -0.0617  0.0212  0.0027
37393SOL    HW121147   9.877   3.829   4.554 -1.0999 -1.8436 -1.3046
37393SOL    HW221148   9.941   3.691   4.551  2.0475 -0.5347  0.6426
37394SOL     OW21149   0.857   0.612   1.455 -0.6048 -0.3103 -0.2099
37394SOL    HW121150   0.859   0.650   1.544 -0.0716 -1.3211  0.2232
37394SOL    HW221151   0.772   0.569   1.450  0.0672 -1.7834  0.4902
37395SOL     OW21152   8.874   7.739   8.745 -0.2466 -0.1403 -0.1520
37395SOL    HW121153   8.868   7.646   8.721 -0.3626 -0.0207 -0.5939
37395SOL    HW221154   8.840   7.785   8.668  1.0794  0.3245 -0.4870
37396SOL     OW21155   9.072  12.383   3.296  0.1340 -0.3092  0.1511
37396SOL    HW121156   9.141  12.333   3.339  2.2110  1.3779 -0.9981
37396SOL    HW221157   9.072  12.349   3.206 -0.8488 -0.5578  0.2352
37397SOL     OW21158  11.687   4.309   6.229 -0.2489  0.6336 -0.3505
37397SOL    HW121159  11.771   4.284   6.190  0.2542 -2.0579  2.1485
37397SOL    HW221160  11.712   4.365   6.303 -0.5407 -0.5893  0.7117
37398SOL     OW21161   0.782   7.750   8.294 -0.0502 -0.5102  0.0196
37398SOL    HW121162   0.695   7.790   8.295  0.9105  1.7145  0.8208
37398SOL    HW221163   0.771   7.670   8.346 -1.3249  0.4479  1.3428
37399SOL     OW21164  11.200   9.180   6.320 -0.2286 -0.6729  0.9515
37399SOL    HW121165  11.107   9.158   6.329 -0.2310 -0.3793  1.7582
37399SOL    HW221166  11.214   9.190   6.226 -0.7825 -1.6971  0.7510
37400SOL     OW21167  11.481  11.735   7.375  0.3198 -0.1823  0.2235
37400SOL    HW121168  11.392  11.757   7.348  0.5385  0.6270  0.1390
37400SOL    HW221169  11.485  11.762   7.467  1.0394  1.5711 -0.2777
37401SOL     OW21170   5.007   3.517  11.100  0.0992 -0.3452  0.6100
37401SOL    HW121171   4.984   3.602  11.063 -0.3007 -0.6316  0.1733
37401SOL    HW221172   5.044   3.536  11.185 -0.7684  0.2240  0.8741
37402SOL     OW21173   4.061   1.533   4.138  0.3236 -0.3401  0.4648
37402SOL    HW121174   3.997   1.603   4.155 -0.7019 -1.0989 -0.1765
37402SOL    HW221175   4.142   1.579   4.118  0.1460  0.6492  1.8372
37403SOL     OW21176   2.310   0.192   3.180  0.1210 -0.4625 -0.3094
37403SOL    HW121177   2.221   0.173   3.148  0.3512  0.5180 -1.6315
37403SOL    HW221178   2.325   0.128   3.250 -2.3993  0.6691  1.4077
37404SOL     OW21179   2.063   4.501   4.323 -0.2054  0.5324 -0.5106
37404SOL    HW121180   2.044   4.593   4.304  2.3509  1.7348  2.1373
37404SOL    HW221181   2.157   4.498   4.337 -0.0484 -2.7453 -1.4393
37405SOL     OW21182  10.127   4.253  12.486 -0.1063  0.4532  0.3871
37405SOL    HW121183  10.083   4.274  12.569 -2.0310  0.6495 -0.6085
37405SOL    HW221184  10.094   4.318  12.425 -0.1149 -0.7455 -0.9392
37406SOL     OW21185   8.913   4.735   9.369 -0.1268 -0.0241  0.6320
37406SOL    HW121186   8.967   4.808   9.400  0.8102 -0.4643  0.1118
37406SOL    HW221187   8.957   4.707   9.288  0.1098 -1.7687  1.3215
37407SOL     OW21188   9.877  12.440   5.903  0.4054  0.1415  0.2889
37407SOL    HW121189   9.867  12.494   5.981 -1.0703  0.9546 -0.4282
37407SOL    HW221190   9.814  12.368   5.914 -0.0427  0.4371 -0.2877
37408SOL     OW21191   5.855   5.480  12.272 -0.1233  0.0368  0.0682
37408SOL    HW121192   5.820   5.554  12.223 -1.0770 -0.7371 -0.4670
37408SOL    HW221193   5.778   5.437  12.307  0.4622 -0.3155  0.9506
37409SOL     OW21194   0.876   7.136   3.546 -0.0435  0.3934 -0.0889
37409SOL    HW121195   0.836   7.102   3.466 -0.7661  1.6408 -0.2880
37409SOL    HW221196   0.963   7.096   3.549 -0.4453 -0.5763 -0.8656
37410SOL     OW21197  10.792   5.858   4.383 -0.3088 -0.3914 -0.1464
37410SOL    HW121198  10.877   5.890   4.412 -0.6009 -0.5193  0.8679
37410SOL    HW221199  10.803   5.763   4.376 -0.2392 -0.3614 -0.4834
37411SOL     OW21200   3.676   6.574  12.057 -0.0843 -0.0979  0.4150
37411SOL    HW121201   3.730   6.571  12.136  0.4210 -0.1483  0.0709
37411SOL    HW221202   3.720   6.637  12.000  1.2539 -2.2240 -1.0408
37412SOL     OW21203   2.585  12.447   1.568 -0.6472  0.8394 -0.3961
37412SOL    HW121204   2.565  12.473   1.658 -1.0769  2.5115 -0.9285
37412SOL    HW221205   2.628  12.362   1.576  1.3396  1.9268  1.5606
37413SOL     OW21206   7.417   3.070   5.711  0.0836  0.0187  0.2794
37413SOL    HW121207   7.345   3.007   5.720  0.0162  0.1280  0.5210
37413SOL    HW221208   7.374   3.155   5.713  0.4234  0.2850  3.7101
37414SOL     OW21209   3.735   4.154  10.060  0.0582 -0.0518 -0.2868
37414SOL    HW121210   3.716   4.135  10.152  0.6154  0.1006 -0.1305
37414SOL    HW221211   3.650   4.152  10.017 -0.1524 -0.6442  0.1366
37415SOL     OW21212   0.880   9.576   5.859 -0.3015  0.3634 -0.0603
37415SOL    HW121213   0.834   9.497   5.831 -0.9769  0.3631  0.9859
37415SOL    HW221214   0.832   9.605   5.937 -0.0840  1.8294 -0.4495
37416SOL     OW21215   9.344   0.336   9.814 -0.2546 -0.1526  0.6103
37416SOL    HW121216   9.336   0.422   9.856  2.8453 -0.1398  1.4134
37416SOL    HW221217   9.307   0.349   9.727  1.9811  2.6826 -0.0625
37417SOL     OW21218  10.647   6.256   6.605  0.4789 -0.3919 -0.1903
37417SOL    HW121219  10.610   6.281   6.520  1.1383  3.0438  0.4035
37417SOL    HW221220  10.576   6.272   6.667  1.0950  0.5463  0.2835
37418SOL     OW21221   4.430   5.504   0.508  1.2517 -0.0399 -0.1893
37418SOL    HW121222   4.442   5.460   0.424 -0.5723  1.6940 -1.4568
37418SOL    HW221223   4.442   5.597   0.488 -1.6919  0.6605  0.8629
37419SOL     OW21224  10.917   9.573  11.217 -0.6646  0.0220  0.1607
37419SOL    HW121225  10.958   9.558  11.132  0.8459  1.4588  0.5777
37419SOL    HW221226  10.942   9.496  11.269 -1.2617 -0.6686 -0.5459
37420SOL     OW21227   8.049   8.963  10.456 -0.8939 -0.2006 -0.1706
37420SOL    HW121228   7.977   8.966  10.393 -1.2244  0.9877  0.2469
37420SOL    HW221229   8.106   9.036  10.431 -1.4807  0.8443  1.4207
37421SOL     OW21230   5.064   5.695  12.449  0.3296  0.2733 -0.3123
37421SOL    HW121231   5.138   5.713  12.390  1.6385 -0.0883  1.1367
37421SOL    HW221232   5.105   5.678  12.534 -1.4630  0.3166  0.6101
37422SOL     OW21233   8.052   4.141   7.767 -0.4263  0.3054 -0.6350
37422SOL    HW121234   8.106   4.067   7.738 -0.3173  0.6781 -1.3999
37422SOL    HW221235   8.114   4.210   7.787 -0.5539  0.3353 -0.3458
37423SOL     OW21236   7.662  12.574   5.878  0.2493 -0.0648  0.1865
37423SOL    HW121237   7.739  12.523   5.905  0.2211  0.7268  1.9156
37423SOL    HW221238   7.684  12.664   5.904  0.0729  0.7478 -2.2832
37424SOL     OW21239   8.009   9.144  12.261  0.1004 -0.0580  0.2430
37424SOL    HW121240   7.998   9.063  12.211  0.5928  1.9904 -3.5400
37424SOL    HW221241   7.920   9.179  12.268  0.3646  1.6208 -3.0895
37425SOL     OW21242   0.873   7.625   9.558 -0.2696  0.2086  0.0568
37425SOL    HW121243   0.849   7.583   9.641  0.5929  0.3614  0.3895
37425SOL    HW221244   0.968   7.627   9.558 -0.2434 -0.0901 -1.0987
37426SOL     OW21245   3.980   8.772   8.966 -0.6033 -0.5075  0.0079
37426SOL    HW121246   4.008   8.684   8.940 -1.7516 -1.2313  1.0667
37426SOL    HW221247   3.905   8.791   8.910 -0.8213 -0.5310  0.2888
37427SOL     OW21248   5.124   7.311   4.554  0.1858  0.1789 -0.4362
37427SOL    HW121249   5.177   7.389   4.568  0.9962 -0.3855 -0.2894
37427SOL    HW221250   5.034   7.339   4.573  0.4852  1.0201 -0.2155
37428SOL     OW21251   9.324  11.150  11.910 -0.0971 -0.1946 -0.3275
37428SOL    HW121252   9.311  11.190  11.996 -1.4244  2.4483 -1.6325
37428SOL    HW221253   9.335  11.056  11.928  2.6539  0.5553  2.9237
37429SOL     OW21254   5.089   0.510   5.736 -0.6162  0.1473  0.1960
37429SOL    HW121255   5.118   0.583   5.791  2.0715 -0.7829  0.1463
37429SOL    HW221256   5.078   0.548   5.649  1.3476  0.4315  0.0326
37430SOL     OW21257  10.185  11.329  10.528  0.2862  0.3663  0.7624
37430SOL    HW121258  10.233  11.388  10.470 -1.3223  2.3217  1.2897
37430SOL    HW221259  10.174  11.379  10.609 -0.8489 -0.7936  1.3606
37431SOL     OW21260   8.007   1.198  10.856  0.1836 -0.1513 -0.1001
37431SOL    HW121261   7.945   1.199  10.783 -0.0368  0.8998  0.0930
37431SOL    HW221262   7.954   1.215  10.933  0.6143  0.0830  0.1492
37432SOL     OW21263   3.023   6.938   9.423 -0.1339  0.2399 -0.2029
37432SOL    HW121264   2.949   6.914   9.479 -0.1864 -1.9053 -1.0788
37432SOL    HW221265   3.009   7.031   9.404 -1.5021  0.3796  1.2335
37433SOL     OW21266   1.528   3.224   2.992 -0.2064 -0.4041  0.0840
37433SOL    HW121267   1.450   3.189   3.034 -0.1763 -0.3655  0.1710
37433SOL    HW221268   1.497   3.254   2.906  0.0532 -1.9676 -0.5777
37434SOL     OW21269   2.363   1.531   1.388  0.0088  0.5220  0.4740
37434SOL    HW121270   2.374   1.623   1.410 -0.6427  0.8165 -0.3443
37434SOL    HW221271   2.441   1.488   1.422 -0.3576  1.1220  2.1887
37435SOL     OW21272   8.707   4.968   4.885  0.0326  0.4775 -0.4057
37435SOL    HW121273   8.744   4.905   4.947 -0.5985  0.1066 -0.4003
37435SOL    HW221274   8.776   4.983   4.821 -0.2017 -1.0986 -1.0614
37436SOL     OW21275   1.098   0.788  10.674  0.1437  0.3013  0.4092
37436SOL    HW121276   1.049   0.759  10.751 -2.3235  2.9182  0.0051
37436SOL    HW221277   1.159   0.854  10.709  1.1046 -0.5716  0.4433
37437SOL     OW21278   3.877   5.847   0.645 -0.4986  0.3204  0.0868
37437SOL    HW121279   3.943   5.801   0.697 -0.4874  0.5960  0.3171
37437SOL    HW221280   3.876   5.801   0.561  0.0749  0.3893  0.0390
37438SOL     OW21281   8.750  11.932   6.275  0.1230 -0.6198  0.7684
37438SOL    HW121282   8.692  11.878   6.222  0.9537 -1.1117  0.3427
37438SOL    HW221283   8.832  11.882   6.279  0.2390 -0.3542  2.0946
37439SOL     OW21284   5.927   5.370   3.214  0.3325  0.1497 -0.1983
37439SOL    HW121285   5.994   5.382   3.147 -1.5233 -0.2745 -2.2311
37439SOL    HW221286   5.931   5.277   3.237  1.2876  0.3900  0.6884
37440SOL     OW21287   9.000   2.677   1.798  0.3064  0.3612 -0.4694
37440SOL    HW121288   9.003   2.766   1.764 -0.7481  0.6579  0.1653
37440SOL    HW221289   8.907   2.655   1.802  0.4989 -0.4159  0.2707
37441SOL     OW21290   6.401   6.724   2.285 -0.0695  0.1540 -0.0469
37441SOL    HW121291   6.362   6.775   2.215  0.3088  0.3879 -0.0898
37441SOL    HW221292   6.342   6.737   2.360 -0.2120  0.2894 -0.1821
37442SOL     OW21293  12.403   5.019  12.051 -0.4333 -0.1373  0.1782
37442SOL    HW121294  12.379   5.017  11.959 -0.5333  2.2633  0.1071
37442SOL    HW221295  12.445   4.934  12.067 -1.0540 -0.8681 -1.8759
37443SOL     OW21296   6.994   2.510   1.104  0.2309 -0.1128  0.0213
37443SOL    HW121297   6.941   2.446   1.152 -0.4059 -0.1454 -0.7196
37443SOL    HW221298   6.944   2.530   1.025  1.1543  0.1323 -0.5223
37444SOL     OW21299   4.482   9.453   9.928  0.3610 -0.4918  0.2681
37444SOL    HW121300   4.571   9.461   9.961  0.4244  0.5255 -0.1326
37444SOL    HW221301   4.452   9.543   9.915 -0.9580 -0.7832  0.9990
37445SOL     OW21302   9.184   0.694   7.423  0.0946  0.0846  0.4305
37445SOL    HW121303   9.241   0.710   7.498 -1.3455  0.0639  1.5584
37445SOL    HW221304   9.186   0.776   7.373  0.8946  0.1697  0.5954
37446SOL     OW21305   9.168   5.896   0.997  0.1616  0.3167 -0.0465
37446SOL    HW121306   9.185   5.830   0.930  1.6482  0.0359  0.5718
37446SOL    HW221307   9.208   5.860   1.077  0.2085  1.5690  0.5123
37447SOL     OW21308   6.693   0.624   4.777 -0.0924  0.3387 -0.4564
37447SOL    HW121309   6.692   0.569   4.699  0.3363  3.5618 -2.9355
37447SOL    HW221310   6.644   0.573   4.843  2.5389 -4.0820 -1.5245
37448SOL     OW21311  11.523   6.513   8.978  0.0685 -0.2688  0.3506
37448SOL    HW121312  11.435   6.547   8.990  0.9021  1.2013  3.4975
37448SOL    HW221313  11.522   6.428   9.023  0.2141 -0.3539  0.1942
37449SOL     OW21314   1.739   1.503   6.045  0.0696 -0.1479  0.0512
37449SOL    HW121315   1.793   1.555   6.104 -0.1616  0.5458 -0.3400
37449SOL    HW221316   1.801   1.447   5.998  0.3464 -0.0225  0.2669
37450SOL     OW21317   0.831   3.626  11.668 -0.0125 -0.1759 -0.3225
37450SOL    HW121318   0.776   3.672  11.604  1.0584  0.5244 -0.7824
37450SOL    HW221319   0.818   3.675  11.750 -0.9237 -0.7057 -0.1401
37451SOL     OW21320   0.317   3.426   2.906  0.5006 -0.3367  0.2889
37451SOL    HW121321   0.310   3.384   2.820  0.7343  1.5579 -0.7124
37451SOL    HW221322   0.227   3.450   2.929  0.3800 -1.2572  0.8111
37452SOL     OW21323   4.993   1.262   3.025 -0.0546  0.2208  0.3681
37452SOL    HW121324   5.066   1.211   3.059 -1.0409  0.0856  2.4244
37452SOL    HW221325   4.916   1.207   3.040 -0.8621  1.3387  0.4973
37453SOL     OW21326   9.205   4.112   4.042 -0.1375  0.6338 -0.0032
37453SOL    HW121327   9.188   4.107   3.947 -0.2134  1.5150 -0.0396
37453SOL    HW221328   9.259   4.190   4.053 -0.7023  0.9244  0.7682
37454SOL     OW21329   6.788   2.117   1.430 -0.1441  0.0092  0.0361
37454SOL    HW121330   6.742   2.034   1.446 -2.3765  0.7837 -1.7655
37454SOL    HW221331   6.840   2.131   1.509 -1.2082 -2.1451  1.2186
37455SOL     OW21332   1.718   4.286   0.678  0.0765  0.0949 -0.2085
37455SOL    HW121333   1.677   4.364   0.641 -0.2472  1.2454  2.3922
37455SOL    HW221334   1.811   4.294   0.654 -0.0116  1.1044 -0.2441
37456SOL     OW21335   4.605   6.669   4.774 -0.6815 -0.4425 -0.2670
37456SOL    HW121336   4.664   6.733   4.814 -0.6252  0.0763 -1.1568
37456SOL    HW221337   4.646   6.649   4.690 -1.2785 -0.8174 -0.4712
37457SOL     OW21338   0.141   3.097   5.099  0.5239  0.1204  0.0332
37457SOL    HW121339   0.125   3.023   5.041 -1.5791 -1.1464  2.0502
37457SOL    HW221340   0.208   3.066   5.160 -0.3770 -0.1518  0.8969
37458SOL     OW21341  11.996   8.125   7.673 -0.2150 -0.2664  0.1630
37458SOL    HW121342  11.955   8.054   7.624 -0.4186  0.4728 -0.7846
37458SOL    HW221343  12.025   8.187   7.605  1.1981 -0.0961  0.8830
37459SOL     OW21344   3.073   8.535  10.057  0.2823  0.2675 -0.5514
37459SOL    HW121345   3.007   8.590  10.098  1.6513  1.0469  0.7438
37459SOL    HW221346   3.073   8.455  10.110 -1.6656 -1.0708 -2.3951
37460SOL     OW21347  11.642  12.593   6.159  0.4618 -0.3036  0.0845
37460SOL    HW121348  11.638  12.514   6.213 -1.6965  0.4185  1.0618
37460SOL    HW221349  11.717  12.642   6.194  0.8327 -1.1557  0.5167
37461SOL     OW21350   3.306   4.819   0.750  0.9968  0.2938 -0.4555
37461SOL    HW121351   3.317   4.724   0.749 -2.2935 -0.2621 -2.9524
37461SOL    HW221352   3.267   4.837   0.835  1.5597 -0.6257  0.0122
37462SOL     OW21353   7.390   1.536   6.957 -0.0268  0.1979 -0.3996
37462SOL    HW121354   7.442   1.467   6.914 -0.2480 -0.7550  0.8107
37462SOL    HW221355   7.438   1.617   6.939  2.0780 -0.6790  0.9160
37463SOL     OW21356   6.622   6.496  10.686 -0.0255 -0.1729  0.3422
37463SOL    HW121357   6.601   6.542  10.768  1.4674  0.2697  0.4955
37463SOL    HW221358   6.717   6.504  10.677 -0.2049  0.1985 -1.6896
37464SOL     OW21359   9.915  11.099   6.022  0.0635  0.3270  0.2310
37464SOL    HW121360   9.911  11.032   6.091  2.6319 -0.0823  0.0953
37464SOL    HW221361   9.873  11.176   6.061  0.2570 -0.2994  1.7650
37465SOL     OW21362   0.430   0.523   7.857  0.2483 -0.1073 -0.2453
37465SOL    HW121363   0.495   0.466   7.897 -0.3844 -2.0126 -1.7402
37465SOL    HW221364   0.364   0.538   7.925  1.1556  0.0717  0.6069
37466SOL     OW21365  10.747   2.015   1.455  0.8830 -0.8825 -0.6599
37466SOL    HW121366  10.695   2.086   1.418  1.0007 -0.2629  0.3344
37466SOL    HW221367  10.833   2.024   1.416  0.5463 -1.2638 -1.5057
37467SOL     OW21368   4.877  10.797  10.162 -0.3858 -0.1912 -0.0243
37467SOL    HW121369   4.883  10.704  10.186  0.0667 -0.3300 -0.6575
37467SOL    HW221370   4.887  10.798  10.067 -1.4427  0.4159 -0.1416
37468SOL     OW21371   3.237   2.732  11.856 -0.4959 -0.3883  0.4817
37468SOL    HW121372   3.160   2.747  11.911 -0.0794  1.2969  0.6639
37468SOL    HW221373   3.204   2.687  11.779 -1.9863  1.6994 -0.1920
37469SOL     OW21374   0.690   5.547   3.413  0.1219  0.8461  0.3949
37469SOL    HW121375   0.695   5.487   3.339  1.9054 -0.2849  1.3727
37469SOL    HW221376   0.765   5.606   3.403  0.6562  0.3878  1.5152
37470SOL     OW21377   7.197   8.099   5.455 -0.0983  0.7468  0.1045
37470SOL    HW121378   7.283   8.078   5.491 -1.0240 -0.9089  1.4849
37470SOL    HW221379   7.160   8.163   5.517 -0.2291  0.7283  0.0466
37471SOL     OW21380   2.948   3.633   6.635 -0.1833 -0.2920 -0.3788
37471SOL    HW121381   2.926   3.693   6.564  0.1139 -0.1673 -0.3692
37471SOL    HW221382   2.915   3.548   6.607 -1.3478  0.0315 -0.0246
37472SOL     OW21383   3.218   9.260   4.476 -0.1926 -0.5518 -0.0298
37472SOL    HW121384   3.144   9.243   4.534  0.0465 -1.0031  0.1496
37472SOL    HW221385   3.183   9.317   4.407 -1.6646 -3.5557 -1.9798
37473SOL     OW21386   6.864   2.016  10.168  0.3257  0.1916 -0.2024
37473SOL    HW121387   6.873   1.955  10.096  0.9987 -2.3082  1.8580
37473SOL    HW221388   6.859   2.102  10.126 -1.5131 -1.2430 -3.3082
37474SOL     OW21389   7.462   2.469   3.994  0.2304  0.5641  0.3659
37474SOL    HW121390   7.408   2.527   3.939  0.6189 -1.0861 -1.9141
37474SOL    HW221391   7.551   2.482   3.961  0.5534 -0.0745  0.9742
37475SOL     OW21392   7.772   0.555   8.671  0.1685 -0.1037 -0.3949
37475SOL    HW121393   7.681   0.571   8.647  0.7417  1.9938 -1.4939
37475SOL    HW221394   7.772   0.469   8.713 -2.0867 -0.7695 -1.5958
37476SOL     OW21395   4.089   9.850  10.507  0.3557 -0.3657 -0.5988
37476SOL    HW121396   4.177   9.864  10.473  0.7389 -0.9071  0.1507
37476SOL    HW221397   4.087   9.899  10.589  0.4178 -1.4456  0.0686
37477SOL     OW21398   2.077  11.364   6.746  0.4408 -0.1363  0.0711
37477SOL    HW121399   2.104  11.272   6.748  0.5204 -0.1234 -0.3629
37477SOL    HW221400   1.996  11.364   6.696 -0.6439 -0.2337  1.7607
37478SOL     OW21401  11.724   6.489   7.408  0.2199 -0.0504  0.6043
37478SOL    HW121402  11.807   6.532   7.386  0.7620 -0.3238  1.9693
37478SOL    HW221403  11.750   6.413   7.461 -0.8070 -1.1820 -0.4308
37479SOL     OW21404   0.820  11.146  10.104 -0.5378 -0.2086 -0.0881
37479SOL    HW121405   0.787  11.236  10.110  2.1140  1.0010 -1.6978
37479SOL    HW221406   0.836  11.121  10.195 -2.8709  0.2544  0.5103
37480SOL     OW21407  11.236   1.817  12.211  0.1870  0.2412  0.4166
37480SOL    HW121408  11.292   1.885  12.248 -0.0728  2.0539 -2.2448
37480SOL    HW221409  11.151   1.859  12.200 -0.1847 -0.7356 -0.6627
37481SOL     OW21410   3.074   1.831   2.886  0.1300 -0.6581 -0.1427
37481SOL    HW121411   3.102   1.752   2.933 -1.1470 -1.5990 -0.9021
37481SOL    HW221412   2.997   1.861   2.935  0.2231 -0.2657 -0.2377
37482SOL     OW21413   0.643   2.783   9.682 -0.2027 -0.1304 -0.0994
37482SOL    HW121414   0.629   2.860   9.626  1.3802 -1.5698 -2.6927
37482SOL    HW221415   0.578   2.720   9.652  0.5592 -0.8728 -0.2061
37483SOL     OW21416   1.672   2.547  10.771 -0.0380 -0.6619  0.1429
37483SOL    HW121417   1.583   2.583  10.768  0.1774 -0.1545 -0.3966
37483SOL    HW221418   1.715   2.583  10.693  1.1905  0.5691  1.3353
37484SOL     OW21419   6.090   0.584   7.321  0.4645 -0.1533 -0.5017
37484SOL    HW121420   6.084   0.535   7.403  1.5130 -0.7284 -0.7509
37484SOL    HW221421   6.166   0.641   7.332  0.0822  0.4155 -0.7461
37485SOL     OW21422   4.204   4.458   7.048 -0.2832  0.0505  0.1957
37485SOL    HW121423   4.226   4.424   6.961 -2.7873  1.1652 -0.9705
37485SOL    HW221424   4.215   4.553   7.040 -0.9565  0.1994  0.9767
37486SOL     OW21425   9.280   8.876   7.548  0.2279  0.0714  0.6905
37486SOL    HW121426   9.218   8.873   7.475 -1.5304 -5.0647  1.9310
37486SOL    HW221427   9.231   8.916   7.620  0.1843  0.6514  0.3398
37487SOL     OW21428   0.945   9.764   8.076  0.1876 -0.1427  0.0580
37487SOL    HW121429   0.941   9.669   8.078  0.2089 -0.1312  2.0801
37487SOL    HW221430   0.872   9.793   8.131  1.2289  0.9440  0.9333
37488SOL     OW21431  10.725  10.952   3.155 -0.0427  0.1576  0.2783
37488SOL    HW121432  10.730  11.038   3.196  0.2587  0.2582  0.0426
37488SOL    HW221433  10.817  10.925   3.146 -0.0990  0.1544 -0.3439
37489SOL     OW21434   2.133  10.253   1.526 -0.1314 -0.1142  0.4175
37489SOL    HW121435   2.040  10.230   1.520  0.0293 -0.6490 -0.0727
37489SOL    HW221436   2.165  10.205   1.602 -0.5976  1.2992  1.5637
37490SOL     OW21437   7.062   1.090  10.228 -0.4241  0.6008 -0.0082
37490SOL    HW121438   7.099   1.169  10.188  1.3459  0.3955  1.1146
37490SOL    HW221439   7.052   1.112  10.320 -1.3532 -0.0071  0.0510
37491SOL     OW21440   1.150   1.904   8.797  0.2214 -0.2422  0.4298
37491SOL    HW121441   1.138   1.988   8.842  0.0839 -0.2937  0.4904
37491SOL    HW221442   1.066   1.859   8.808  0.3640 -0.4741  0.5744
37492SOL     OW21443   2.054   4.160  12.561  0.1360 -0.1284  0.3787
37492SOL    HW121444   2.040   4.081  12.613  1.8544 -0.2449  0.7216
37492SOL    HW221445   2.005   4.145  12.481 -0.5252 -1.0214  0.9322
37493SOL     OW21446   8.571  10.243  11.799  0.5502 -0.1907  0.4720
37493SOL    HW121447   8.576  10.293  11.880  0.5312  1.0071 -0.2462
37493SOL    HW221448   8.563  10.152  11.827  1.4667  0.1236  1.8007
37494SOL     OW21449   6.032   5.937  11.258  0.0964  0.2199  0.4757
37494SOL    HW121450   6.078   5.963  11.178  0.4552 -0.3700  0.4840
37494SOL    HW221451   5.968   5.872  11.229  2.2841 -2.3946  1.0005
37495SOL     OW21452   6.298  12.000   8.193 -0.0470 -0.0392 -0.0052
37495SOL    HW121453   6.378  12.048   8.215  0.0176 -0.7630  1.4552
37495SOL    HW221454   6.306  11.917   8.239 -1.5288 -0.2371 -0.0468
37496SOL     OW21455   5.656   0.974  12.506 -0.4358 -0.1301 -0.1676
37496SOL    HW121456   5.663   1.028  12.427 -1.4505  0.7540  0.3103
37496SOL    HW221457   5.684   0.887  12.478 -0.5734  0.2101 -1.4542
37497SOL     OW21458   4.199   7.447   2.090  0.0244 -0.2507 -0.1450
37497SOL    HW121459   4.203   7.389   2.014 -0.4710  0.3044 -0.6038
37497SOL    HW221460   4.193   7.535   2.053  0.2541  0.0661  0.5416
37498SOL     OW21461   8.648   6.811   0.501 -0.0756 -0.2255 -0.4834
37498SOL    HW121462   8.736   6.841   0.523  0.3747 -0.0870 -2.3036
37498SOL    HW221463   8.645   6.816   0.406 -0.8793 -3.4553 -0.7320
37499SOL     OW21464   7.651   5.968   7.999  0.4480 -0.0024 -0.6104
37499SOL    HW121465   7.659   6.062   8.016 -3.2654  0.2554  0.6450
37499SOL    HW221466   7.704   5.927   8.068  1.2070  1.1564 -0.4823
37500SOL     OW21467   2.842  10.749   6.188  0.5941  0.2155  0.0469
37500SOL    HW121468   2.826  10.710   6.273 -0.7981  0.6247  0.0001
37500SOL    HW221469   2.813  10.683   6.125  1.0764  0.1421 -0.1028
37501SOL     OW21470   0.799  10.355   8.157  0.1182  0.4368 -0.3381
37501SOL    HW121471   0.863  10.285   8.167  1.0459  1.3955  0.7034
37501SOL    HW221472   0.785  10.388   8.246  0.2051  2.0048 -0.8775
37502SOL     OW21473  11.070   3.521  12.401 -0.3957 -0.1811 -0.2757
37502SOL    HW121474  11.120   3.447  12.437 -1.4987 -0.9584 -0.2751
37502SOL    HW221475  11.091   3.595  12.459 -1.0522 -1.0677  1.1666
37503SOL     OW21476  10.173   5.194   8.963 -0.0244  0.0449  0.7442
37503SOL    HW121477  10.256   5.226   8.998  0.0716  2.1689 -1.2224
37503SOL    HW221478  10.112   5.267   8.976  0.0566  1.0694 -3.4240
37504SOL     OW21479   5.976   0.016   4.823 -0.1168  0.7974  0.1628
37504SOL    HW121480   6.025   0.022   4.741  0.0404  1.6917  0.3167
37504SOL    HW221481   6.040   0.035   4.891 -0.0760 -0.6337  0.5714
37505SOL     OW21482   0.522  10.702  11.592 -0.6164  0.1236  0.1089
37505SOL    HW121483   0.535  10.731  11.502 -1.9471 -0.2256 -0.2133
37505SOL    HW221484   0.571  10.620  11.598  0.9840  1.0375  0.2657
37506SOL     OW21485   9.794   9.730   1.102 -0.0567  0.2634 -0.3927
37506SOL    HW121486   9.756   9.784   1.032  1.2286  1.8795  0.0928
37506SOL    HW221487   9.723   9.720   1.166 -1.1305 -0.9157 -1.7051
37507SOL     OW21488   8.726  10.017  12.155  0.5229 -0.4562  0.1094
37507SOL    HW121489   8.767  10.083  12.211  1.2992  0.4538 -1.4639
37507SOL    HW221490   8.638  10.006  12.191  0.5412  1.0867  0.7025
37508SOL     OW21491   3.753   5.298   7.957  0.3419  0.3720 -0.0675
37508SOL    HW121492   3.787   5.248   8.031  0.7277  1.6633  0.6621
37508SOL    HW221493   3.781   5.249   7.880 -0.1648 -1.0576  0.6289
37509SOL     OW21494   2.967   1.829   4.762  0.0158  0.2187  0.3004
37509SOL    HW121495   3.032   1.898   4.778  0.0925  0.5932 -1.4404
37509SOL    HW221496   2.911   1.830   4.840  1.5774  0.4589  1.4569
37510SOL     OW21497   3.755   5.768   2.705  0.1727  0.2561  0.1261
37510SOL    HW121498   3.729   5.726   2.787  0.9868  1.0688  0.8091
37510SOL    HW221499   3.849   5.782   2.713  0.1382  1.0111 -0.6443
37511SOL     OW21500   2.168  11.376   8.851  0.2183  0.0871 -0.4413
37511SOL    HW121501   2.168  11.309   8.782  2.5829  0.0678 -0.4986
37511SOL    HW221502   2.132  11.331   8.928 -0.0805 -0.6391 -0.9893
37512SOL     OW21503   7.278   2.469   1.048  0.0637  0.3525  0.5911
37512SOL    HW121504   7.189   2.494   1.076  0.0621 -0.4591  1.3250
37512SOL    HW221505   7.264   2.424   0.964 -0.1999  0.3974  0.6077
37513SOL     OW21506   3.737  10.827   8.211 -0.1028  0.0511 -0.0204
37513SOL    HW121507   3.664  10.889   8.224  0.4391  0.3272  2.1179
37513SOL    HW221508   3.725  10.762   8.280  2.5884  1.0468  1.5355
37514SOL     OW21509   0.394  10.618   5.957 -0.0316 -0.0846  0.0889
37514SOL    HW121510   0.349  10.683   6.010  0.7382  0.5876 -0.0557
37514SOL    HW221511   0.329  10.590   5.893 -0.8919 -0.7301  1.2165
37515SOL     OW21512   0.503   9.197   3.593  0.2523  0.2706  0.4896
37515SOL    HW121513   0.474   9.127   3.652  0.2561  0.0405  0.2184
37515SOL    HW221514   0.428   9.255   3.586 -0.8721 -1.2811 -1.6841
37516SOL     OW21515  10.397  10.401   2.184  0.0593  0.0741 -0.1585
37516SOL    HW121516  10.353  10.318   2.206  0.7465 -0.2011  0.2033
37516SOL    HW221517  10.490  10.384   2.199  0.1341  1.1836  0.8016
37517SOL     OW21518   0.271   7.976  11.171  0.2222 -0.2053  0.8711
37517SOL    HW121519   0.305   8.010  11.254 -2.5106 -0.3295  2.1345
37517SOL    HW221520   0.192   8.027  11.155 -1.2147 -2.5118  0.1876
37518SOL     OW21521  10.910   6.644  10.148  0.6518  0.1634 -0.5405
37518SOL    HW121522  10.958   6.568  10.116  0.1885  0.4449 -1.9963
37518SOL    HW221523  10.926   6.645  10.243  0.1565 -2.0910 -0.3781
37519SOL     OW21524   1.292   8.438   3.193 -0.0874 -0.5796  0.1173
37519SOL    HW121525   1.208   8.485   3.194  0.1695 -0.1105  1.2029
37519SOL    HW221526   1.268   8.346   3.204 -0.7284 -1.0550 -3.7874
37520SOL     OW21527   5.476   6.947   2.597 -0.2538  0.4244  0.1416
37520SOL    HW121528   5.565   6.919   2.618  0.7111  1.8463 -1.7324
37520SOL    HW221529   5.483   7.042   2.589 -2.0113  0.5785  0.1947
37521SOL     OW21530   7.629   0.214   7.977 -0.6496  0.1007 -0.3946
37521SOL    HW121531   7.720   0.242   7.983 -0.7185  0.5286 -1.2033
37521SOL    HW221532   7.633   0.122   7.950 -0.4593  0.1661 -0.5924
37522SOL     OW21533   5.748  11.491   1.695  0.3091 -0.0675  0.3376
37522SOL    HW121534   5.821  11.440   1.730  0.5740  0.9075  1.2692
37522SOL    HW221535   5.789  11.551   1.633  0.0633 -0.6211 -0.3772
37523SOL     OW21536  11.900   7.204  12.420  0.0628  0.3777 -0.3058
37523SOL    HW121537  11.902   7.228  12.328  0.5324  0.4725 -0.2746
37523SOL    HW221538  11.910   7.109  12.421 -2.6046  0.0304 -0.4667
37524SOL     OW21539   9.653   7.202   8.226 -0.2789 -0.3988 -0.0781
37524SOL    HW121540   9.565   7.169   8.240  0.3969 -2.1261  0.4016
37524SOL    HW221541   9.709   7.143   8.277  1.0434  1.5045  0.8157
37525SOL     OW21542   0.149   9.834  11.467  0.0398  0.2911  0.3892
37525SOL    HW121543   0.126   9.745  11.493  0.4798 -0.0900 -0.4911
37525SOL    HW221544   0.083   9.890  11.508 -0.9617 -0.5476 -0.0655
37526SOL     OW21545   7.828   9.734   6.195 -0.1901 -0.2748 -0.0413
37526SOL    HW121546   7.761   9.801   6.207 -0.7184 -0.8476  0.2789
37526SOL    HW221547   7.911   9.780   6.208 -0.5811  0.0773  1.3199
37527SOL     OW21548   0.566   0.056  10.766  0.4457 -0.3401  0.4444
37527SOL    HW121549   0.578   0.151  10.759  0.6721 -0.5002 -3.4645
37527SOL    HW221550   0.648   0.024  10.803  0.7731  0.9045  0.8310
37528SOL     OW21551  10.823   7.078  11.312  0.0172 -0.3417 -0.2130
37528SOL    HW121552  10.890   7.033  11.364  1.1530 -0.1693 -1.4891
37528SOL    HW221553  10.741   7.057  11.357  1.0535  1.0916  2.5935
37529SOL     OW21554  10.292   0.739   0.177  0.4891 -0.5871 -0.1091
37529SOL    HW121555  10.302   0.799   0.251 -1.5238 -0.9557  0.5117
37529SOL    HW221556  10.355   0.771   0.112 -0.2380  1.9897  0.3388
37530SOL     OW21557   9.899   8.368   7.851 -0.4887  0.2136  0.1719
37530SOL    HW121558   9.949   8.422   7.912  1.1050 -0.4637 -0.4781
37530SOL    HW221559   9.861   8.430   7.789  0.3449  0.6881  0.1227
37531SOL     OW21560   8.850  11.563   3.773 -0.4520 -0.4217  0.1161
37531SOL    HW121561   8.862  11.581   3.680  0.9208 -0.5706  0.2404
37531SOL    HW221562   8.764  11.521   3.779 -0.6907 -0.1099 -1.0339
37532SOL     OW21563   2.192   5.097   1.636 -0.2287 -0.4500 -0.0495
37532SOL    HW121564   2.240   5.098   1.553  0.6531  0.1527  0.4414
37532SOL    HW221565   2.257   5.124   1.701 -1.4024  1.0322  0.5666
37533SOL     OW21566   5.550   3.410  11.510  0.6657 -0.4070 -0.0441
37533SOL    HW121567   5.556   3.413  11.605  1.1995  1.7779 -0.0923
37533SOL    HW221568   5.580   3.322  11.486 -1.8768 -1.9541  1.8888
37534SOL     OW21569  10.134   7.712   0.397  0.5209 -0.3029  0.3948
37534SOL    HW121570  10.078   7.717   0.319  2.6744  1.1685 -1.1838
37534SOL    HW221571  10.099   7.778   0.456 -0.6417 -0.8456  0.3371
37535SOL     OW21572  11.719   9.351   9.754  0.8003 -0.3670  0.7756
37535SOL    HW121573  11.657   9.381   9.688  0.2295  0.9106  1.8291
37535SOL    HW221574  11.803   9.387   9.727  0.3891  1.0022  1.2359
37536SOL     OW21575  12.262  11.075   3.933  0.0144  0.0526  0.4388
37536SOL    HW121576  12.257  11.034   3.846  0.6165  0.4467  0.2131
37536SOL    HW221577  12.213  11.016   3.990 -0.4636 -0.1713 -0.1813
37537SOL     OW21578  11.250  12.535   5.873  0.8518 -0.1232  0.0034
37537SOL    HW121579  11.340  12.546   5.842  0.0566  0.5375 -2.2923
37537SOL    HW221580  11.196  12.556   5.797 -1.2368 -2.1804  0.7930
37538SOL     OW21581   4.859   0.866   7.664 -0.4825 -0.5840  0.0674
37538SOL    HW121582   4.825   0.777   7.657 -0.1189 -0.6303 -1.5862
37538SOL    HW221583   4.954   0.856   7.666 -0.4171 -0.3516  2.9144
37539SOL     OW21584   6.420  11.014   8.463 -0.0693 -0.3958  0.3864
37539SOL    HW121585   6.336  10.981   8.493 -1.0916  0.4683 -1.3917
37539SOL    HW221586   6.480  10.995   8.535 -1.3654 -2.6639  0.9607
37540SOL     OW21587   6.754   1.472   7.128  0.0992 -0.6332  0.2550
37540SOL    HW121588   6.818   1.544   7.127  0.5171 -0.9956  0.4403
37540SOL    HW221589   6.759   1.437   7.217 -2.8690  1.5264  1.4082
37541SOL     OW21590   5.413   8.749   5.486  0.1167 -0.3067  0.1596
37541SOL    HW121591   5.362   8.779   5.411  1.1456  1.1170 -0.0235
37541SOL    HW221592   5.483   8.695   5.447 -0.7003 -1.5448  0.3367
37542SOL     OW21593  10.350   5.311  11.489  1.0191 -0.3438 -0.1999
37542SOL    HW121594  10.297   5.239  11.523 -0.6607 -0.4587 -2.8143
37542SOL    HW221595  10.387   5.351  11.567 -2.3161 -0.7514  1.8089
37543SOL     OW21596   7.145   7.568  10.541  0.4031 -0.2852  0.0219
37543SOL    HW121597   7.149   7.473  10.526 -0.0682 -0.1066 -1.3471
37543SOL    HW221598   7.064   7.595  10.498  0.6902  0.7914  0.1464
37544SOL     OW21599  12.195   9.582   2.368 -0.2700  0.0866  0.2899
37544SOL    HW121600  12.187   9.664   2.320 -0.0716  0.4452  0.8597
37544SOL    HW221601  12.198   9.514   2.300 -0.0644  0.5782 -0.1952
37545SOL     OW21602   4.415  12.119   7.096  0.4050  0.5841 -0.2352
37545SOL    HW121603   4.510  12.112   7.087  0.4152  1.2749 -0.7415
37545SOL    HW221604   4.401  12.180   7.168  0.3329 -0.1855  0.4183
37546SOL     OW21605   1.185   6.192   2.667  0.4031 -0.4135 -0.1778
37546SOL    HW121606   1.124   6.193   2.593  0.9425 -0.1147 -0.6173
37546SOL    HW221607   1.201   6.099   2.683  0.3270 -0.4788 -0.4713
37547SOL     OW21608  11.141  10.517  10.425  0.7654  0.2769  0.4238
37547SOL    HW121609  11.169  10.559  10.343  0.5552 -0.2700  0.0664
37547SOL    HW221610  11.218  10.523  10.482  1.8015 -1.5517 -0.6827
37548SOL     OW21611   9.108   0.265   1.397 -0.5097 -0.0820 -0.3789
37548SOL    HW121612   9.152   0.281   1.481  0.8063 -1.3912 -0.7736
37548SOL    HW221613   9.044   0.197   1.415 -1.0588  0.4733 -0.2035
37549SOL     OW21614  11.981   2.689   6.984  0.1715 -0.2287  0.1901
37549SOL    HW121615  11.890   2.716   6.975  0.2984 -0.3807 -2.0450
37549SOL    HW221616  11.994   2.680   7.078 -2.2152 -0.5436  0.5542
37550SOL     OW21617   2.591   0.493   6.216  0.0714  0.2030 -0.4428
37550SOL    HW121618   2.662   0.497   6.280 -0.5506 -2.8023  0.5790
37550SOL    HW221619   2.519   0.451   6.263 -0.8876 -0.8042 -2.7056
37551SOL     OW21620   2.667  11.283   7.840  0.1507  0.1110  0.8256
37551SOL    HW121621   2.705  11.318   7.759 -0.1881  1.5510  1.2611
37551SOL    HW221622   2.667  11.357   7.901 -1.8509 -0.2454  1.3481
37552SOL     OW21623   7.983   3.551   0.810  0.4049 -0.3226 -0.1779
37552SOL    HW121624   8.046   3.577   0.878 -0.9337  0.0393  0.9834
37552SOL    HW221625   7.948   3.634   0.777  0.5258 -0.5192 -0.8169
37553SOL     OW21626   7.413   0.939   2.273 -0.1242 -0.8277  0.0375
37553SOL    HW121627   7.381   0.849   2.271 -2.6680 -0.0075  0.3877
37553SOL    HW221628   7.338   0.992   2.246  0.2365  1.4511  2.9977
37554SOL     OW21629   1.108  12.256   3.074  0.0301  0.0550  0.3456
37554SOL    HW121630   1.013  12.251   3.083  0.1526 -1.4308  1.2157
37554SOL    HW221631   1.140  12.274   3.163  0.5319  1.7842 -0.1442
37555SOL     OW21632   5.008   3.117   2.865 -0.2208 -0.0295 -0.0595
37555SOL    HW121633   4.961   3.181   2.919  1.2154  0.5082  0.6105
37555SOL    HW221634   5.061   3.068   2.928  0.2613 -0.4694 -0.8082
37556SOL     OW21635   6.686  11.868  12.219  0.0479  0.5655 -0.0778
37556SOL    HW121636   6.776  11.866  12.187  0.6355 -0.1339  1.5089
37556SOL    HW221637   6.642  11.797  12.171  0.2537  1.0826 -1.0506
37557SOL     OW21638   7.117   5.314  11.005 -0.3351 -0.1961  0.4342
37557SOL    HW121639   7.143   5.242  11.063  0.9901  1.1368  1.6055
37557SOL    HW221640   7.172   5.387  11.033 -0.1489  0.7131 -2.1049
37558SOL     OW21641   5.907   9.057   8.990  0.5363  0.3968 -0.0944
37558SOL    HW121642   5.819   9.092   8.982  0.0926 -0.6814 -0.0543
37558SOL    HW221643   5.901   8.992   9.061  0.9421 -0.9301 -1.2366
37559SOL     OW21644   7.659   0.119   3.198 -0.2644  0.0926 -0.0917
37559SOL    HW121645   7.587   0.180   3.183 -0.9377 -0.7506 -0.3510
37559SOL    HW221646   7.731   0.174   3.229 -1.4585  0.7827  1.5881
37560SOL     OW21647   3.022   9.145   3.768  0.4871 -0.5762 -0.4107
37560SOL    HW121648   2.941   9.175   3.728  0.9733  1.8317  0.2225
37560SOL    HW221649   2.995   9.103   3.850 -0.2835 -2.7444 -1.7144
37561SOL     OW21650  11.226   6.876  10.485  0.3622 -0.1575 -0.6313
37561SOL    HW121651  11.143   6.842  10.451 -0.5534  2.1706 -0.9275
37561SOL    HW221652  11.287   6.869  10.412 -0.0773 -0.2189 -0.9967
37562SOL     OW21653   6.462  10.606  11.887 -0.7511  0.1749  0.1499
37562SOL    HW121654   6.520  10.676  11.917  0.0627 -0.1448 -0.6173
37562SOL    HW221655   6.469  10.538  11.953  0.6190 -0.3134 -0.4676
37563SOL     OW21656   0.829  10.446   4.042 -0.4409 -0.2633 -0.1045
37563SOL    HW121657   0.779  10.478   4.117  1.7587 -0.7913  1.6728
37563SOL    HW221658   0.764  10.440   3.971 -2.6712 -0.0341  1.7992
37564SOL     OW21659   7.466   1.578   8.717 -0.1383  0.0673  0.6777
37564SOL    HW121660   7.394   1.633   8.748 -1.3408 -2.3948  2.7200
37564SOL    HW221661   7.530   1.580   8.788  0.1526 -0.5273  0.4420
37565SOL     OW21662   4.297   1.053   2.913 -0.1980 -0.2085 -0.1284
37565SOL    HW121663   4.376   1.106   2.922  0.7713 -1.2842 -1.9592
37565SOL    HW221664   4.289   1.009   2.998  0.1517  1.2090  0.6876
37566SOL     OW21665   6.387   0.512   8.357  0.3495 -0.6142 -0.2800
37566SOL    HW121666   6.367   0.600   8.324  1.4202  0.8920  2.7466
37566SOL    HW221667   6.315   0.492   8.416  0.6521 -1.3376 -0.1447
37567SOL     OW21668   0.706   7.108   4.784 -0.4125  0.5946 -0.0095
37567SOL    HW121669   0.715   7.013   4.790  1.9433  0.6698 -1.2478
37567SOL    HW221670   0.708   7.138   4.875  1.7723 -0.3813  0.3301
37568SOL     OW21671   5.410  11.998  12.533 -0.1488 -0.6564  0.0072
37568SOL    HW121672   5.353  12.071  12.509  0.5517 -0.1119 -0.0240
37568SOL    HW221673   5.385  11.928  12.474 -1.5843 -0.8088  0.7594
37569SOL     OW21674   5.391   3.580   0.565 -0.4222 -0.0713 -0.2926
37569SOL    HW121675   5.431   3.590   0.652  0.1435  0.1343 -0.5729
37569SOL    HW221676   5.371   3.487   0.558 -0.8109 -0.0318  0.2054
37570SOL     OW21677  10.178   6.628   0.265 -0.0132 -0.3476  0.1742
37570SOL    HW121678  10.113   6.677   0.316 -0.6645  1.5317 -2.2785
37570SOL    HW221679  10.157   6.536   0.282 -1.8023  0.2167  1.2877
37571SOL     OW21680   5.246   1.284   6.492 -0.2609  0.6161 -0.2257
37571SOL    HW121681   5.259   1.356   6.554  3.9444 -1.3107  1.5298
37571SOL    HW221682   5.267   1.322   6.407 -0.0969  1.9367  0.3715
37572SOL     OW21683   9.965   5.825   1.168  0.0013 -0.4250  0.1752
37572SOL    HW121684  10.047   5.809   1.121 -0.8594 -0.1597 -1.5060
37572SOL    HW221685   9.972   5.915   1.198  1.1661 -1.0356  1.9184
37573SOL     OW21686  11.719   5.435   8.393 -0.3884 -0.1627 -0.4745
37573SOL    HW121687  11.776   5.444   8.317 -1.2229  0.1336 -1.0892
37573SOL    HW221688  11.693   5.342   8.392 -1.3139  0.0857 -1.2543
37574SOL     OW21689   0.846   6.981   2.139  0.6598 -0.1527 -0.7791
37574SOL    HW121690   0.857   6.893   2.102  0.9988  0.0125 -1.0854
37574SOL    HW221691   0.934   7.020   2.133  0.2786  0.6035 -1.6689
37575SOL     OW21692  12.089  11.701   5.549  0.1045 -0.1117  0.2614
37575SOL    HW121693  12.013  11.734   5.598  1.1999  0.1163  1.9155
37575SOL    HW221694  12.096  11.760   5.474 -1.7268 -0.5578 -0.3173
37576SOL     OW21695   9.358  12.501  10.443 -0.1380  0.2123  0.3125
37576SOL    HW121696   9.325  12.416  10.414 -0.1510  0.7275 -1.2652
37576SOL    HW221697   9.448  12.504  10.409 -0.2653  0.9756  0.0235
37577SOL     OW21698   0.367  11.585   6.155  0.2819  0.2061 -0.1338
37577SOL    HW121699   0.337  11.669   6.120  0.8014  0.1581 -0.7154
37577SOL    HW221700   0.324  11.577   6.240 -0.0596  0.8886 -0.2400
37578SOL     OW21701  11.959   8.465   7.543  0.4383  0.3027 -0.0470
37578SOL    HW121702  11.927   8.524   7.474  0.3292  1.9316  1.3079
37578SOL    HW221703  12.040   8.506   7.574 -0.9995  1.3068  2.7340
37579SOL     OW21704   2.127   5.262   7.687 -0.3823  0.4952  0.0565
37579SOL    HW121705   2.044   5.243   7.643 -1.3063  1.5661  1.2524
37579SOL    HW221706   2.189   5.200   7.648 -2.2417 -1.9782  0.7430
37580SOL     OW21707   0.316   1.080  10.819  0.6970  0.0795 -0.3677
37580SOL    HW121708   0.349   1.023  10.889  0.9013 -1.1598 -1.4208
37580SOL    HW221709   0.221   1.068  10.822  0.6926  0.1449 -0.2155
37581SOL     OW21710   0.892   8.748   1.030  0.1256 -0.1168 -0.1344
37581SOL    HW121711   0.836   8.810   1.077 -0.1570  0.5969 -1.3835
37581SOL    HW221712   0.954   8.803   0.982  2.0580 -0.8756  1.3338
37582SOL     OW21713  10.389   3.974   4.798  0.0381  0.6996  0.1038
37582SOL    HW121714  10.437   3.892   4.801  0.0240  0.7011  0.4806
37582SOL    HW221715  10.306   3.955   4.842  0.2735  1.0648  0.7293
37583SOL     OW21716   5.991   3.078   1.130  0.4343  0.0837 -0.2272
37583SOL    HW121717   6.086   3.075   1.121  0.6242 -0.6893  1.5751
37583SOL    HW221718   5.960   3.002   1.081  0.9353 -0.8809  0.9176
37584SOL     OW21719  11.162   5.900  10.787  0.1092 -0.1022  0.9082
37584SOL    HW121720  11.199   5.813  10.769 -0.2945 -0.4394  1.6690
37584SOL    HW221721  11.226   5.941  10.845  2.4772  1.7834 -2.6579
37585SOL     OW21722   0.002   4.386   1.781  0.0551 -0.0332 -0.1918
37585SOL    HW121723   0.066   4.370   1.851 -0.2235 -0.2668  0.0125
37585SOL    HW221724  -0.010   4.481   1.781  0.5507  0.0300 -0.3647
37586SOL     OW21725   7.691   1.047   8.805 -0.4471 -0.0706 -0.7415
37586SOL    HW121726   7.696   0.971   8.863  1.7440  0.0475 -0.6962
37586SOL    HW221727   7.698   1.122   8.863 -2.5390  0.2299 -0.7922
37587SOL     OW21728   0.843  11.196   0.893  0.6716  0.1542 -0.3646
37587SOL    HW121729   0.817  11.184   0.984 -1.1412  0.7502 -0.7647
37587SOL    HW221730   0.925  11.244   0.897  0.4618  0.4291  0.9503
37588SOL     OW21731  10.780   3.597  10.601  0.0096  0.3583 -0.4114
37588SOL    HW121732  10.817   3.665  10.658 -2.8265  1.3841  0.4016
37588SOL    HW221733  10.709   3.641  10.555 -0.3384 -1.4878 -1.7498
37589SOL     OW21734  11.858  11.921  10.622  0.2692 -0.1482 -0.7904
37589SOL    HW121735  11.779  11.923  10.568  0.8754  0.0071 -1.6898
37589SOL    HW221736  11.855  12.004  10.671  0.0469  0.0087 -1.0655
37590SOL     OW21737   3.877   2.316   9.438  0.5207 -0.0082 -0.7111
37590SOL    HW121738   3.836   2.334   9.354 -1.3084  2.0008  0.5012
37590SOL    HW221739   3.831   2.373   9.500  2.1108 -1.0486  1.5792
37591SOL     OW21740   2.229   3.296   4.275  0.4074 -0.4037 -0.1107
37591SOL    HW121741   2.172   3.369   4.296 -0.5023 -1.2567  0.4518
37591SOL    HW221742   2.317   3.333   4.276 -0.1241  0.9922 -1.2521
37592SOL     OW21743   6.108   7.934   1.948  0.2105 -0.2877 -0.1689
37592SOL    HW121744   6.150   7.954   2.032  1.6153  0.5968 -1.0487
37592SOL    HW221745   6.157   7.859   1.914  0.0852 -0.2106 -0.5148
37593SOL     OW21746  10.643   5.569   8.394  0.1667 -0.1507 -0.1293
37593SOL    HW121747  10.679   5.628   8.461  1.8858 -0.0617 -1.0798
37593SOL    HW221748  10.636   5.485   8.438  1.7083 -0.1986  0.0702
37594SOL     OW21749   6.328   5.122   1.353  0.1442 -0.2224  0.4816
37594SOL    HW121750   6.264   5.073   1.301  2.0060 -0.7680 -1.4460
37594SOL    HW221751   6.353   5.062   1.423  0.4121 -1.0051 -0.2703
37595SOL     OW21752   0.876   1.866   4.173  0.2033  0.2612  0.5954
37595SOL    HW121753   0.900   1.948   4.216  2.1611 -0.9690  2.0779
37595SOL    HW221754   0.851   1.892   4.085  0.0823  2.5057  1.2153
37596SOL     OW21755   8.838   4.613   4.386  0.2757  0.6456 -0.1219
37596SOL    HW121756   8.864   4.704   4.374  1.1424  0.5574  0.9007
37596SOL    HW221757   8.909   4.575   4.439  0.1918 -0.7588 -0.9784
37597SOL     OW21758  10.881   9.964  11.796  0.1191 -0.2820 -0.2823
37597SOL    HW121759  10.906  10.007  11.878 -1.4321  1.2156 -0.5373
37597SOL    HW221760  10.957   9.973  11.740  0.4571  0.5388  0.2924
37598SOL     OW21761  11.698   2.203   2.542  0.2157  0.2291 -0.0663
37598SOL    HW121762  11.604   2.187   2.538  0.3330 -1.3153  1.9013
37598SOL    HW221763  11.706   2.291   2.580 -0.3579  2.3046 -4.1552
37599SOL     OW21764   7.070   4.231   7.809 -0.1727 -0.0431 -0.2714
37599SOL    HW121765   6.994   4.194   7.854 -0.1701  0.2146 -0.0486
37599SOL    HW221766   7.131   4.158   7.800 -0.0308 -0.0197  0.4517
37600SOL     OW21767   6.540   8.124   2.037  0.1467  0.3319  0.1154
37600SOL    HW121768   6.532   8.033   2.063  2.2945  0.4090  1.3048
37600SOL    HW221769   6.531   8.123   1.942 -0.4357 -1.0347  0.1716
37601SOL     OW21770   7.210   2.204   1.778 -0.1750 -0.0710  0.0194
37601SOL    HW121771   7.166   2.289   1.787 -2.2320 -1.2101  1.5590
37601SOL    HW221772   7.272   2.201   1.852 -1.2802 -0.5198  0.9611
37602SOL     OW21773   9.466   8.301   6.352  0.1048 -0.5200 -0.1030
37602SOL    HW121774   9.533   8.255   6.301 -0.0616 -2.9111  1.7125
37602SOL    HW221775   9.385   8.288   6.302  0.7683  2.0571 -2.1029
37603SOL     OW21776   8.756   6.719   1.074 -0.4376 -0.4220 -0.0482
37603SOL    HW121777   8.818   6.709   1.146  0.8756 -1.2857 -1.2401
37603SOL    HW221778   8.704   6.796   1.096  0.7112 -0.0019  1.2468
37604SOL     OW21779   2.111   9.892   1.604  0.1041  0.0007  0.2712
37604SOL    HW121780   2.155   9.954   1.663  0.7039 -0.6785  0.5626
37604SOL    HW221781   2.019   9.918   1.606 -0.0675 -0.5493  2.2552
37605SOL     OW21782   0.213  10.486  10.744 -0.2227  0.1903  0.5781
37605SOL    HW121783   0.169  10.407  10.714  1.2867 -0.1257 -0.9543
37605SOL    HW221784   0.250  10.462  10.830 -1.2611 -0.1779  0.9289
37606SOL     OW21785   8.521   0.328   4.772  0.1443  0.6690 -0.0602
37606SOL    HW121786   8.484   0.249   4.732 -1.0920  0.1768  1.9111
37606SOL    HW221787   8.481   0.400   4.724 -0.8348  0.0996 -0.1294
37607SOL     OW21788   3.844   8.104   0.590  0.0723  0.0028 -0.0235
37607SOL    HW121789   3.784   8.068   0.656  1.8135 -1.3985  0.8907
37607SOL    HW221790   3.848   8.197   0.609 -0.3762 -0.1935  1.1175
37608SOL     OW21791   5.410   1.423   4.263  0.0551  0.0879  0.2107
37608SOL    HW121792   5.432   1.434   4.171  1.2918 -1.2369  0.3122
37608SOL    HW221793   5.494   1.405   4.306 -0.1612  2.7111  1.9624
37609SOL     OW21794   1.752   8.616   9.483 -0.3054 -0.4864 -0.0577
37609SOL    HW121795   1.723   8.571   9.562  0.8119 -0.9760  0.0910
37609SOL    HW221796   1.839   8.650   9.505  0.7433 -2.0330 -1.5609
37610SOL     OW21797   0.170  11.094   3.718 -0.5400  0.1431 -0.8958
37610SOL    HW121798   0.112  11.101   3.794  1.2836 -1.3355  0.7500
37610SOL    HW221799   0.237  11.162   3.733  1.2137 -1.7259  0.2044
37611SOL     OW21800  11.336  10.410   0.262  0.3206 -0.0717 -0.6880
37611SOL    HW121801  11.376  10.475   0.204  2.4302 -0.5512  0.1288
37611SOL    HW221802  11.403  10.343   0.273 -0.5384 -0.7060  1.1674
37612SOL     OW21803   1.922   2.227   9.910 -0.0332  0.1922  0.0213
37612SOL    HW121804   1.897   2.166   9.840  1.7943 -0.9554  0.2717
37612SOL    HW221805   1.886   2.311   9.883 -2.3463 -0.9029 -0.5335
37613SOL     OW21806   9.988  10.117   0.273 -0.1562  0.0663  0.2345
37613SOL    HW121807   9.996  10.083   0.362  0.0472 -0.2622  0.0913
37613SOL    HW221808   9.987  10.039   0.218  1.7916  0.3282 -0.2122
37614SOL     OW21809   6.412   7.494  12.042 -0.0824 -0.7769  0.2297
37614SOL    HW121810   6.418   7.457  12.130 -0.6906  0.3335  0.7498
37614SOL    HW221811   6.464   7.575  12.046 -1.7149  0.3163  0.1470
37615SOL     OW21812   0.910   8.465   3.924 -0.1462  0.0009  0.3973
37615SOL    HW121813   0.924   8.374   3.948  0.6976  0.3488  1.2984
37615SOL    HW221814   0.943   8.515   3.999  0.5095  1.0707 -0.5703
37616SOL     OW21815  10.343   8.172   0.900 -0.6532 -0.0559  0.2606
37616SOL    HW121816  10.331   8.082   0.929 -0.8060 -0.3841 -0.7939
37616SOL    HW221817  10.392   8.165   0.818  1.1596  0.9292  1.2012
37617SOL     OW21818  12.470   1.369   6.561 -0.9412 -0.1610  0.3805
37617SOL    HW121819  12.473   1.450   6.510  1.0233  0.8722  2.0200
37617SOL    HW221820  12.548   1.321   6.535 -1.1795 -0.7337  0.7008
37618SOL     OW21821   1.758   9.761   7.932 -0.3941 -0.4288  0.1816
37618SOL    HW121822   1.691   9.765   8.001  0.8245 -0.2821  1.3984
37618SOL    HW221823   1.715   9.797   7.855 -1.9662 -1.0713  0.7081
37619SOL     OW21824  10.192   1.797   6.210  0.0184 -0.0842  0.4292
37619SOL    HW121825  10.228   1.886   6.219 -1.5628  0.7411 -0.8252
37619SOL    HW221826  10.198   1.760   6.298  0.4622  1.3806  1.0495
37620SOL     OW21827   6.261   6.405   6.189  0.1719  0.1851 -0.2188
37620SOL    HW121828   6.353   6.412   6.215  0.8222  0.8578 -2.4443
37620SOL    HW221829   6.240   6.491   6.153 -2.6959  1.5140  3.9108
37621SOL     OW21830   3.576  12.008   6.904 -0.6973 -0.1490  0.1045
37621SOL    HW121831   3.542  11.918   6.910 -1.8508  0.2236 -0.5511
37621SOL    HW221832   3.523  12.057   6.967  1.3705 -0.2979  2.0699
37622SOL     OW21833  10.694  12.562  10.194 -0.0678 -0.1698 -0.1496
37622SOL    HW121834  10.633  12.601  10.131  1.9072  1.5086 -1.1360
37622SOL    HW221835  10.714  12.476  10.157 -0.6803 -0.1300 -0.5925
37623SOL     OW21836   3.751   5.250   1.359  0.1102 -0.2807  0.3890
37623SOL    HW121837   3.748   5.162   1.396 -0.8124 -0.4367 -0.0173
37623SOL    HW221838   3.797   5.240   1.276 -1.3811 -0.7023 -0.4248
37624SOL     OW21839   9.947   6.396   1.587  0.0740 -0.0905  0.1326
37624SOL    HW121840  10.010   6.419   1.519 -1.2244  1.1454 -0.7206
37624SOL    HW221841   9.970   6.451   1.662  0.1093  0.2602 -0.1307
37625SOL     OW21842  10.117   9.896   7.139  0.5666  0.3130  0.6240
37625SOL    HW121843  10.202   9.865   7.169  0.2006 -1.6136 -0.1508
37625SOL    HW221844  10.132   9.927   7.049  0.1094 -2.2372 -0.4229
37626SOL     OW21845  10.037   5.244   6.285 -0.3104  0.1345  0.1671
37626SOL    HW121846  10.107   5.281   6.232 -2.9778  1.6720 -2.6096
37626SOL    HW221847  10.015   5.161   6.243 -1.0293  0.3136  0.1649
37627SOL     OW21848   2.393   5.895   9.708  0.2287  0.0998 -0.0463
37627SOL    HW121849   2.463   5.947   9.747  0.1799 -0.4055  0.7435
37627SOL    HW221850   2.328   5.886   9.778 -0.7298  0.7276 -0.8244
37628SOL     OW21851  12.547   4.885   1.944  0.0315  0.1054  0.4258
37628SOL    HW121852  12.528   4.971   1.906 -0.6813 -0.4839 -0.6166
37628SOL    HW221853  12.505   4.888   2.030 -0.6299  0.5545  0.1020
37629SOL     OW21854   8.145  12.558   4.419  0.4653  0.0352 -0.2529
37629SOL    HW121855   8.085  12.509   4.473  0.1645 -1.8974 -2.2105
37629SOL    HW221856   8.230  12.515   4.431  0.6414  0.3268 -0.4229
37630SOL     OW21857   1.354   4.207   2.547 -0.6530  0.3078  0.3795
37630SOL    HW121858   1.368   4.266   2.473  1.5765 -0.6602 -0.0677
37630SOL    HW221859   1.347   4.264   2.623  0.3407  1.2207 -0.1851
37631SOL     OW21860  10.825   8.269   3.394 -0.1529  0.5695 -0.1142
37631SOL    HW121861  10.732   8.247   3.393 -0.4486  1.7155  0.3463
37631SOL    HW221862  10.851   8.260   3.485  0.3891 -0.4428 -0.3468
37632SOL     OW21863   2.636   0.537  12.077  0.5247 -0.4443 -0.1592
37632SOL    HW121864   2.557   0.496  12.040 -0.2276  2.3329 -1.8899
37632SOL    HW221865   2.708   0.492  12.034 -0.0764 -2.3757  0.7238
37633SOL     OW21866  12.263   4.793   8.808 -0.1827 -1.0880 -0.2939
37633SOL    HW121867  12.260   4.787   8.903  0.0929  0.7673 -0.1313
37633SOL    HW221868  12.172   4.788   8.780 -0.9292  3.3976  0.5440
37634SOL     OW21869   6.567   6.900  11.641 -0.0224  0.4032 -0.0038
37634SOL    HW121870   6.628   6.959  11.596 -0.8220 -0.1392 -1.8947
37634SOL    HW221871   6.619   6.863  11.713  1.7402  0.3527 -1.2287
37635SOL     OW21872   4.881   0.097   5.070  0.0379  0.3486  0.1977
37635SOL    HW121873   4.968   0.095   5.108  0.7262  0.0254 -1.3348
37635SOL    HW221874   4.863   0.190   5.056  0.1949  0.4068  0.3901
37636SOL     OW21875   0.795   1.240   5.700  0.0569 -0.0467  0.0282
37636SOL    HW121876   0.859   1.270   5.765  0.3517 -0.1937 -0.1900
37636SOL    HW221877   0.823   1.281   5.619 -0.6486  0.5939  0.1051
37637SOL     OW21878   6.562   3.059   1.906  0.6632  0.2547  0.1524
37637SOL    HW121879   6.543   3.150   1.884 -1.8271 -0.4617 -1.0715
37637SOL    HW221880   6.480   3.025   1.941  2.0968 -1.0502  2.4630
37638SOL     OW21881   0.156   1.124   1.469 -0.1522  0.2275  0.8300
37638SOL    HW121882   0.069   1.162   1.483  0.9228  2.8587  0.9422
37638SOL    HW221883   0.179   1.149   1.379  0.1062 -1.3592  0.4209
37639SOL     OW21884   1.991   0.813   5.273  0.1330  0.0629  0.1631
37639SOL    HW121885   1.920   0.877   5.271  0.7277  0.7388 -2.4546
37639SOL    HW221886   2.070   0.862   5.252  1.2241 -0.9218  1.7179
37640SOL     OW21887  12.543   6.264   1.595  0.9324 -0.6443  0.5980
37640SOL    HW121888  12.589   6.183   1.576  0.9053 -1.0294  2.0128
37640SOL    HW221889  12.552   6.275   1.690  0.2399  0.5832  0.5512
37641SOL     OW21890   3.639   3.938  11.668  0.3184  0.1857 -0.9338
37641SOL    HW121891   3.558   3.928  11.616  0.2120 -0.7644 -0.5992
37641SOL    HW221892   3.608   3.961  11.755  0.2103 -2.7306 -0.1003
37642SOL     OW21893   8.572   2.273   4.268 -0.3521  0.2062  0.1658
37642SOL    HW121894   8.610   2.219   4.198  0.2989 -0.2830  0.8831
37642SOL    HW221895   8.491   2.308   4.230 -0.0419 -0.0991 -0.8111
37643SOL     OW21896  10.277   6.584   1.222 -0.3519 -0.6475 -0.5139
37643SOL    HW121897  10.328   6.571   1.141 -0.2446 -0.3924 -0.4899
37643SOL    HW221898  10.208   6.646   1.197  2.1142  2.8385  0.5247
37644SOL     OW21899  10.601   4.074   0.262 -0.1363  0.4920 -0.5684
37644SOL    HW121900  10.592   4.168   0.276  1.9574  1.0043 -2.1494
37644SOL    HW221901  10.515   4.047   0.229 -0.9715  1.7048  0.5258
37645SOL     OW21902   3.641   3.241   1.349  0.1417 -0.1543 -0.1475
37645SOL    HW121903   3.641   3.210   1.440 -0.4786 -0.2268 -0.1636
37645SOL    HW221904   3.629   3.336   1.357 -2.5938 -0.4008 -0.1746
37646SOL     OW21905   5.119   4.628   8.509 -0.5471  0.3365 -0.0141
37646SOL    HW121906   5.156   4.696   8.453  1.0224 -0.6088 -0.1870
37646SOL    HW221907   5.192   4.599   8.564 -0.9578 -1.6998 -0.4561
37647SOL     OW21908   5.943   9.131   2.501 -0.0207 -0.0611 -0.0511
37647SOL    HW121909   6.004   9.089   2.561  0.7408  1.5596  0.3779
37647SOL    HW221910   5.989   9.132   2.417  0.2913  0.6058  0.1251
37648SOL     OW21911   8.882   8.670   7.311 -0.1698  0.3667 -0.0248
37648SOL    HW121912   8.915   8.661   7.222 -0.8217  0.5275 -0.2886
37648SOL    HW221913   8.951   8.632   7.366  0.4425  0.6784 -0.5529
37649SOL     OW21914   7.951  12.230   0.140 -0.1542  0.1054 -0.2695
37649SOL    HW121915   7.967  12.305   0.083 -0.0649 -0.6012 -1.1975
37649SOL    HW221916   7.986  12.256   0.225  2.7733 -0.0587 -1.3308
37650SOL     OW21917   5.952   0.706   1.355 -0.3935  0.4100  0.2141
37650SOL    HW121918   5.890   0.756   1.408 -0.1802  1.4179 -0.4603
37650SOL    HW221919   6.000   0.652   1.418 -0.6608  1.0335  0.9644
37651SOL     OW21920   8.525   1.916   7.062  0.0467  0.3048 -0.2133
37651SOL    HW121921   8.586   1.846   7.036 -0.6210 -0.2740 -0.2568
37651SOL    HW221922   8.499   1.957   6.980  1.2666  1.3260 -0.1095
37652SOL     OW21923   3.229   6.033   6.310 -0.3482  0.3152  0.4202
37652SOL    HW121924   3.263   6.058   6.224  0.8122  0.6321  0.9400
37652SOL    HW221925   3.138   6.007   6.294 -0.5847  1.7014 -0.6793
37653SOL     OW21926   4.770   9.300   5.134  0.0720 -0.4975 -0.2638
37653SOL    HW121927   4.692   9.338   5.175  0.9450  0.7334  0.3254
37653SOL    HW221928   4.842   9.328   5.190  0.8935 -2.2215 -0.3826
37654SOL     OW21929   9.020   3.159   8.806 -0.1911 -0.2024  0.3767
37654SOL    HW121930   8.977   3.230   8.854  0.0611  0.7218 -0.7203
37654SOL    HW221931   9.096   3.200   8.765 -0.1819 -1.0551 -0.4916
37655SOL     OW21932   8.862   0.682   4.619 -0.6485 -0.6840 -0.3388
37655SOL    HW121933   8.888   0.602   4.575 -1.9918  0.0611 -2.6796
37655SOL    HW221934   8.944   0.728   4.637  0.0399 -1.9144 -0.2535
37656SOL     OW21935   4.740   8.728   4.974  0.1015  0.2440  0.1463
37656SOL    HW121936   4.770   8.806   4.929  0.2157 -0.1555 -0.4807
37656SOL    HW221937   4.743   8.659   4.908 -1.9980  0.1324  0.0981
37657SOL     OW21938  11.429   0.730  10.923  0.1801  0.4299  0.2269
37657SOL    HW121939  11.468   0.657  10.969  1.0776  1.5831  1.3510
37657SOL    HW221940  11.372   0.773  10.987 -1.6770 -0.2071 -0.8844
37658SOL     OW21941  12.130  11.685   7.841 -0.2829 -0.0011  0.4034
37658SOL    HW121942  12.083  11.747   7.897 -1.0322  0.1530 -0.3682
37658SOL    HW221943  12.200  11.737   7.802  0.0197 -0.0204  0.9064
37659SOL     OW21944   3.289  10.189  10.549 -0.1426 -0.0865  0.2143
37659SOL    HW121945   3.251  10.122  10.605 -1.3742  1.1194  0.8829
37659SOL    HW221946   3.232  10.265  10.560  1.4711  1.2488 -0.1295
37660SOL     OW21947   0.377   5.847   1.110 -0.1367  0.1532  0.1510
37660SOL    HW121948   0.334   5.776   1.061  0.3088  0.7382 -1.1378
37660SOL    HW221949   0.423   5.802   1.181 -3.1788 -0.4739  1.8987
37661SOL     OW21950  11.783   5.533   3.776 -0.0984 -0.2010  0.0521
37661SOL    HW121951  11.877   5.541   3.757  0.0138  2.7820  1.3078
37661SOL    HW221952  11.778   5.531   3.871 -1.2817 -2.1755 -0.0044
37662SOL     OW21953   2.119  10.541   6.965 -0.1383 -0.4616  0.1540
37662SOL    HW121954   2.077  10.487   6.898 -0.2361 -0.8521  0.5202
37662SOL    HW221955   2.093  10.500   7.048  1.3162 -1.0059  0.3806
37663SOL     OW21956  10.059   2.305   5.706 -0.1984  0.2369  0.2708
37663SOL    HW121957   9.964   2.315   5.707 -0.1008  1.3769  1.1880
37663SOL    HW221958  10.074   2.214   5.683 -1.4871  0.2963 -0.9198
37664SOL     OW21959   3.334   5.156   3.059  0.0687 -0.0588  0.1117
37664SOL    HW121960   3.349   5.249   3.078 -0.4727  0.4249 -1.5982
37664SOL    HW221961   3.246   5.139   3.092 -0.4382  0.4796 -0.8848
37665SOL     OW21962   2.909   6.687   2.316  0.5554  0.3671  0.0947
37665SOL    HW121963   2.882   6.713   2.228  2.7581 -0.1344 -0.7894
37665SOL    HW221964   2.992   6.642   2.303  0.4575 -0.5762  2.3550
37666SOL     OW21965  10.292   0.073   9.048  0.0084 -0.6333 -0.2588
37666SOL    HW121966  10.374   0.119   9.066  1.0825 -1.2443 -3.0897
37666SOL    HW221967  10.302  -0.012   9.092  0.6415 -0.4880 -0.1155
37667SOL     OW21968   9.234   2.758  10.517  0.1374  0.1601 -0.4057
37667SOL    HW121969   9.323   2.774  10.550  1.3278 -0.5159 -2.9986
37667SOL    HW221970   9.248   2.708  10.437 -2.5997  0.5242 -1.1866
37668SOL     OW21971   4.270   5.040   9.354 -0.2106  0.5493 -0.1472
37668SOL    HW121972   4.214   5.059   9.279 -1.1374  0.3984  0.4874
37668SOL    HW221973   4.260   5.116   9.412  0.2091  0.5017 -0.0045
37669SOL     OW21974   0.727   3.330  10.237  0.1904  0.0540 -0.2720
37669SOL    HW121975   0.798   3.386  10.269 -0.5503  0.4010  0.8233
37669SOL    HW221976   0.672   3.315  10.314 -1.3207  0.3930 -1.2411
37670SOL     OW21977   6.096   6.516   4.364 -0.5665 -0.1878  0.0547
37670SOL    HW121978   6.132   6.590   4.414 -1.6987  0.3371  0.1111
37670SOL    HW221979   6.086   6.549   4.275  1.2972 -1.0752 -0.5420
37671SOL     OW21980   6.253  12.347  12.145 -0.4912 -0.2162  0.0926
37671SOL    HW121981   6.240  12.340  12.240  0.9890  0.9853  0.4219
37671SOL    HW221982   6.293  12.264  12.121  2.1235  0.6443  1.1358
37672SOL     OW21983   8.871   6.408   6.154  0.7113 -0.4141 -0.1082
37672SOL    HW121984   8.939   6.418   6.222  0.9209  0.2694 -0.4064
37672SOL    HW221985   8.890   6.323   6.115 -0.0538 -1.3179  1.3734
37673SOL     OW21986   9.670   8.747   8.560 -0.1786  0.0142  0.2248
37673SOL    HW121987   9.705   8.658   8.563 -0.1564 -0.0546 -1.2572
37673SOL    HW221988   9.745   8.802   8.539 -0.1110  0.4476  1.5541
37674SOL     OW21989   7.151   4.441   4.548  0.0853 -0.2983 -0.3058
37674SOL    HW121990   7.066   4.453   4.589 -0.3678 -0.9269 -1.0357
37674SOL    HW221991   7.190   4.368   4.594  0.1614 -0.1174 -0.0818
37675SOL     OW21992  11.786  11.861   2.272 -0.1259  0.0096  0.3937
37675SOL    HW121993  11.794  11.935   2.212  0.0415  0.2150  0.6633
37675SOL    HW221994  11.696  11.868   2.306  0.3965  1.0689  1.6548
37676SOL     OW21995   8.533   3.885  10.098 -0.2395  0.1760 -0.2754
37676SOL    HW121996   8.565   3.796  10.089 -0.9647  0.0069 -1.4391
37676SOL    HW221997   8.523   3.898  10.192 -0.4867 -1.1033 -0.1126
37677SOL     OW21998   4.824   4.898  12.260 -0.4606 -0.0517  0.7612
37677SOL    HW121999   4.865   4.864  12.180  0.8665 -0.5036  1.6011
37677SOL    HW222000   4.743   4.848  12.268 -0.9626  0.4795 -0.6531
37678SOL     OW22001   1.508  12.197   4.956 -0.2830  0.1010  0.2832
37678SOL    HW122002   1.592  12.181   4.914  0.6431  2.0065  1.2984
37678SOL    HW222003   1.453  12.234   4.886 -0.4477 -1.4678 -0.4685
37679SOL     OW22004   4.386   8.501   6.276  0.3453  0.0514  0.0998
37679SOL    HW122005   4.441   8.540   6.343 -2.8066  0.3163  2.7883
37679SOL    HW222006   4.390   8.407   6.293 -0.4068  0.1150  0.7295
37680SOL     OW22007   3.937   8.859   0.579  0.2567  0.4895 -0.0490
37680SOL    HW122008   3.889   8.885   0.658  1.0638 -0.6365  0.8338
37680SOL    HW222009   3.897   8.776   0.553  1.1954 -0.0751  0.2559
37681SOL     OW22010  11.217   9.852   8.210  0.1737  0.1904 -0.5552
37681SOL    HW122011  11.308   9.828   8.228  0.4118  0.7988 -0.9303
37681SOL    HW222012  11.213   9.946   8.227 -0.6713 -0.0328  0.5681
37682SOL     OW22013   2.300   3.512  12.035 -0.4094 -0.2725 -0.0238
37682SOL    HW122014   2.262   3.451  11.971  1.4717 -1.9877  0.3878
37682SOL    HW222015   2.251   3.496  12.116 -0.9492 -0.1066 -0.3125
37683SOL     OW22016   3.198   0.861   4.932 -0.2738  0.3846 -0.0254
37683SOL    HW122017   3.214   0.889   4.842  2.1267 -1.2129 -0.1726
37683SOL    HW222018   3.252   0.918   4.986  1.3460 -1.0861  0.0088
37684SOL     OW22019   7.069   9.830   0.732 -0.0642  0.1577 -0.2477
37684SOL    HW122020   7.122   9.838   0.653  0.7615  0.9602  0.3670
37684SOL    HW222021   6.991   9.781   0.705  0.4933 -0.0950 -1.4072
37685SOL     OW22022   4.584   6.508   8.692  0.0495  0.3612 -0.3975
37685SOL    HW122023   4.647   6.578   8.674  2.8537 -1.1854  2.3272
37685SOL    HW222024   4.546   6.531   8.777  0.5301 -1.0240  0.2230
37686SOL     OW22025  10.565   8.962   1.404 -0.6250 -0.0972  0.0103
37686SOL    HW122026  10.658   8.943   1.414 -0.5780 -0.4171 -0.9094
37686SOL    HW222027  10.523   8.876   1.404 -0.7439 -0.0528 -1.1455
37687SOL     OW22028   7.272   9.998  11.107 -0.2247  0.2961  0.0823
37687SOL    HW122029   7.347  10.012  11.165  1.2164 -2.4308 -0.9186
37687SOL    HW222030   7.204   9.962  11.164  0.2533  0.0695  0.5160
37688SOL     OW22031   7.071   7.333   5.580 -0.0409 -0.1806  0.4321
37688SOL    HW122032   7.005   7.263   5.584  0.1348 -0.4385 -0.6642
37688SOL    HW222033   7.134   7.310   5.648  0.6672 -1.8091 -0.6876
37689SOL     OW22034   2.852   2.787   6.606  0.3569  0.3044 -0.0850
37689SOL    HW122035   2.853   2.702   6.651  1.5752 -0.5411 -1.5952
37689SOL    HW222036   2.800   2.844   6.662  1.8687 -0.6495  2.4270
37690SOL     OW22037   5.469   9.481   6.704 -0.6900  0.5796 -0.1954
37690SOL    HW122038   5.397   9.420   6.718 -0.8776  0.4542 -1.5710
37690SOL    HW222039   5.452   9.552   6.766 -0.8477 -0.4151  0.9318
37691SOL     OW22040   6.766   4.601   5.699  0.3191  0.4130 -0.4312
37691SOL    HW122041   6.764   4.696   5.711 -2.9919  0.4527 -0.4902
37691SOL    HW222042   6.775   4.589   5.605 -1.5489  0.7788 -0.6898
37692SOL     OW22043   2.041   0.464  11.797 -0.1612 -0.1100 -0.0531
37692SOL    HW122044   1.949   0.460  11.820  0.0731 -1.1856  0.7812
37692SOL    HW222045   2.070   0.373  11.797  0.8411  0.1843 -0.5952
37693SOL     OW22046   1.215   1.463   5.818 -0.0803 -0.1662  0.4597
37693SOL    HW122047   1.130   1.494   5.847 -1.3087 -3.1538  0.4049
37693SOL    HW222048   1.263   1.444   5.898 -0.1813 -0.2664  0.4957
37694SOL     OW22049   8.949   2.917   7.570 -0.3111 -0.3989 -0.1555
37694SOL    HW122050   8.871   2.945   7.522 -1.3398 -1.4932  0.8174
37694SOL    HW222051   9.021   2.930   7.508 -1.1252  1.4049 -0.8001
37695SOL     OW22052  10.379   0.257  12.050  0.2883 -0.6199  0.0691
37695SOL    HW122053  10.334   0.341  12.038  1.2950 -0.3753 -2.7759
37695SOL    HW222054  10.314   0.201  12.093 -3.1729 -0.4829 -4.2712
37696SOL     OW22055   2.716   3.866   0.424 -0.2202  0.5549 -0.0553
37696SOL    HW122056   2.777   3.807   0.467  2.4512  1.8220 -1.8443
37696SOL    HW222057   2.703   3.829   0.337  1.1660  2.2615 -1.0587
37697SOL     OW22058   7.089  12.031   5.949  0.5875 -0.1989 -0.1800
37697SOL    HW122059   7.026  11.969   5.985 -0.1947  0.4689 -0.3789
37697SOL    HW222060   7.148  11.978   5.896 -0.0866 -0.7636 -0.3681
37698SOL     OW22061   9.590   5.712   7.647  0.6851  0.6455  0.4109
37698SOL    HW122062   9.648   5.711   7.571  1.3491  1.2744  0.8877
37698SOL    HW222063   9.589   5.622   7.679  0.6084  0.4320 -0.1876
37699SOL     OW22064   6.700   3.029   2.508 -0.6101 -0.3556 -0.5032
37699SOL    HW122065   6.689   2.959   2.573  0.5115 -0.7611 -0.7292
37699SOL    HW222066   6.640   3.098   2.537 -0.0483 -0.4719  1.0414
37700SOL     OW22067   2.599  12.116   9.177  0.3361 -0.2007  0.1701
37700SOL    HW122068   2.667  12.051   9.197 -0.7071 -1.6508 -0.7497
37700SOL    HW222069   2.646  12.191   9.141  1.4017 -1.6174 -1.5343
37701SOL     OW22070   3.896   6.325   2.903 -0.1493  0.6636 -0.1631
37701SOL    HW122071   3.827   6.390   2.915 -0.7273 -0.1569  1.1513
37701SOL    HW222072   3.854   6.241   2.922  0.4137 -0.2160 -2.3791
37702SOL     OW22073   2.553  10.418  10.901  0.1013 -0.4730  0.4277
37702SOL    HW122074   2.567  10.382  10.989  2.2499  1.0614  0.7802
37702SOL    HW222075   2.458  10.409  10.887 -0.0808 -2.1322  2.2436
37703SOL     OW22076   1.209   3.047   4.190 -0.0225 -0.1441 -0.7068
37703SOL    HW122077   1.237   2.956   4.181  1.4383  0.2640 -0.6243
37703SOL    HW222078   1.181   3.073   4.102 -1.5028 -0.9746 -0.5054
37704SOL     OW22079  10.979   9.787  11.391  0.1499 -0.2573 -0.4677
37704SOL    HW122080  10.939   9.714  11.438 -0.6093  0.4753  0.0615
37704SOL    HW222081  10.998   9.752  11.304 -1.0485 -0.8299 -0.5212
37705SOL     OW22082   6.542   9.666   0.679  0.6694  0.1395 -0.1856
37705SOL    HW122083   6.542   9.671   0.584  0.0655  0.8812 -0.1526
37705SOL    HW222084   6.497   9.745   0.708 -2.0741 -1.5691  0.6345
37706SOL     OW22085   9.461  10.479  10.122 -0.1499  0.2631  0.1560
37706SOL    HW122086   9.515  10.554  10.097 -0.7689  0.6729  0.0008
37706SOL    HW222087   9.409  10.511  10.196  0.7113 -0.5192  1.1195
37707SOL     OW22088   7.109   3.279  11.447  0.2724  0.1101  0.6345
37707SOL    HW122089   7.113   3.324  11.531  1.1648  1.4585 -0.1014
37707SOL    HW222090   7.167   3.203  11.459  0.9727  0.6910  1.0045
37708SOL     OW22091   8.361   8.167   9.131  0.9066 -0.3297 -0.3214
37708SOL    HW122092   8.400   8.243   9.175  0.7002 -0.9068  0.8963
37708SOL    HW222093   8.360   8.191   9.039  0.5718  1.2837  0.0653
37709SOL     OW22094   2.292   5.828   7.297  0.6026 -0.0353  0.5729
37709SOL    HW122095   2.304   5.752   7.241 -3.2682  0.7112 -1.6340
37709SOL    HW222096   2.228   5.799   7.363  1.1308  0.5876  1.3802
37710SOL     OW22097   8.913   1.281   8.237 -0.5283 -0.3404  0.1754
37710SOL    HW122098   9.007   1.296   8.234 -0.8416  2.5758  1.0744
37710SOL    HW222099   8.899   1.229   8.316  0.3612 -1.3617 -0.3321
37711SOL     OW22100   6.922  10.784   2.425 -0.0804  0.0153 -0.3842
37711SOL    HW122101   7.012  10.808   2.446  0.4090 -0.1062 -2.1848
37711SOL    HW222102   6.869  10.825   2.493  1.1159  2.1975 -0.7040
37712SOL     OW22103  12.244   9.125  11.217  0.4303  0.3616  0.3175
37712SOL    HW122104  12.270   9.039  11.251 -0.0670  1.2988  3.3634
37712SOL    HW222105  12.325   9.160  11.179  1.4065 -0.3160  1.6720
37713SOL     OW22106   5.513   5.216   1.401 -0.2298 -0.4924 -0.3095
37713SOL    HW122107   5.490   5.288   1.460  0.4781  0.7243 -1.4614
37713SOL    HW222108   5.497   5.251   1.313  1.0455 -1.3835 -0.9351
37714SOL     OW22109   9.376   0.906   8.740  0.1585  0.2933  0.0216
37714SOL    HW122110   9.447   0.845   8.721 -1.3163 -1.1788 -1.0641
37714SOL    HW222111   9.322   0.860   8.804 -1.0362  0.3613 -0.8995
37715SOL     OW22112   8.673  11.229  10.508  0.0994  0.5643 -0.0387
37715SOL    HW122113   8.599  11.174  10.484 -1.0398  2.2238 -0.4661
37715SOL    HW222114   8.689  11.284  10.432  0.9310  1.1347  0.5233
37716SOL     OW22115   0.273  10.210   8.740  0.0084 -0.0708  0.3373
37716SOL    HW122116   0.244  10.291   8.697 -2.1793 -0.7111  0.5287
37716SOL    HW222117   0.310  10.158   8.669  0.7375  0.7667  0.0822
37717SOL     OW22118   8.738   0.545   6.432  0.4950 -0.2967 -0.0088
37717SOL    HW122119   8.781   0.584   6.508 -0.0382 -0.4150  0.3600
37717SOL    HW222120   8.674   0.610   6.404 -0.8935 -1.1359  1.0353
37718SOL     OW22121  11.716   5.734  11.794 -0.2843 -0.6653  0.8414
37718SOL    HW122122  11.718   5.773  11.707  0.1554  0.2838  1.2650
37718SOL    HW222123  11.786   5.669  11.792  0.8754  0.5409  1.0102
37719SOL     OW22124   4.432   8.902   3.307 -0.1549  0.2778 -0.0501
37719SOL    HW122125   4.496   8.846   3.351  0.8146 -0.0511 -1.8114
37719SOL    HW222126   4.461   8.991   3.324 -1.1330  0.2741  1.9120
37720SOL     OW22127   7.784  12.321   5.227  0.0455 -0.2021  0.0504
37720SOL    HW122128   7.861  12.364   5.191 -0.4144  0.5551 -0.0508
37720SOL    HW222129   7.818  12.266   5.298  0.5425  1.0477  0.8049
37721SOL     OW22130   1.897   6.814   7.505  0.0222  0.9788 -0.3802
37721SOL    HW122131   1.841   6.786   7.433  1.4745  1.1898 -1.6450
37721SOL    HW222132   1.841   6.871   7.558 -1.5591 -0.4813 -0.4012
37722SOL     OW22133  11.310   8.203   2.541  0.0839 -0.1530 -0.2271
37722SOL    HW122134  11.338   8.199   2.633  0.1403  1.5270 -0.1513
37722SOL    HW222135  11.265   8.119   2.526 -0.0697 -0.3835  1.3793
37723SOL     OW22136   8.179   1.299   2.835  0.1637 -0.3447  0.2568
37723SOL    HW122137   8.199   1.325   2.745  0.9445 -1.2638  0.1504
37723SOL    HW222138   8.128   1.219   2.826 -0.3100 -0.0918  0.6280
37724SOL     OW22139  11.319   1.411   9.767  0.0257 -0.0513 -0.0780
37724SOL    HW122140  11.303   1.487   9.710 -1.1627  0.0812  0.4140
37724SOL    HW222141  11.253   1.418   9.836 -0.0132 -1.4631  0.0522
37725SOL     OW22142  11.398   0.015   1.611 -0.6380 -0.3442 -0.3308
37725SOL    HW122143  11.350   0.098   1.610  0.6922  0.6054 -4.1683
37725SOL    HW222144  11.357  -0.037   1.541  1.2306 -1.1376 -0.9002
37726SOL     OW22145   0.064   5.754   3.367 -0.0770 -0.0183 -0.0625
37726SOL    HW122146   0.035   5.665   3.389 -0.5035 -0.0156 -0.5693
37726SOL    HW222147   0.127   5.777   3.435  1.0092 -1.2031 -0.6431
37727SOL     OW22148   7.460   2.240  12.298  0.5767  0.4017 -0.3993
37727SOL    HW122149   7.537   2.222  12.244 -0.6224  0.1577 -2.1235
37727SOL    HW222150   7.386   2.224  12.239 -0.7890  0.8228  1.1443
37728SOL     OW22151  11.973   0.461   6.902  0.5107  0.8307 -0.3226
37728SOL    HW122152  12.048   0.519   6.888  0.0663  1.4367 -0.2252
37728SOL    HW222153  11.918   0.507   6.966 -1.7110  2.1373 -2.9656
37729SOL     OW22154   4.587   3.842   6.445  0.0583 -0.2034  0.2459
37729SOL    HW122155   4.612   3.754   6.472  0.3205 -0.6622 -1.3606
37729SOL    HW222156   4.543   3.830   6.360  0.5015  1.2339 -0.2276
37730SOL     OW22157  10.649   0.942   9.472  0.0298  0.2426  0.4236
37730SOL    HW122158  10.636   0.850   9.450  0.8125  0.1504  0.3289
37730SOL    HW222159  10.606   0.952   9.557  2.6070 -1.0027  2.0163
37731SOL     OW22160  11.388   4.027   7.872  0.4973  0.0330 -0.5245
37731SOL    HW122161  11.312   4.000   7.923 -0.2877  0.1772 -1.5642
37731SOL    HW222162  11.357   4.023   7.781  1.6639  0.3365 -0.9448
37732SOL     OW22163   1.402   2.515   8.673  0.2181 -0.2570  0.5089
37732SOL    HW122164   1.308   2.507   8.654 -0.2730  1.4946  1.8798
37732SOL    HW222165   1.445   2.489   8.591 -1.3869 -2.0764  0.1496
37733SOL     OW22166  10.802   7.584  11.361  0.7211 -0.0176 -0.6326
37733SOL    HW122167  10.800   7.497  11.402 -2.0760  0.0685 -0.3927
37733SOL    HW222168  10.850   7.639  11.423 -0.2801 -0.7036  0.7860
37734SOL     OW22169   4.143  10.228  11.542 -0.4622  0.3445 -0.5360
37734SOL    HW122170   4.225  10.185  11.518 -0.8853 -0.3329 -0.7963
37734SOL    HW222171   4.076  10.162  11.527 -1.0327  0.8062 -0.0815
37735SOL     OW22172   0.266  12.542   0.225 -0.0897  0.1702  0.6058
37735SOL    HW122173   0.239  12.603   0.294  0.9159  0.8691  0.4144
37735SOL    HW222174   0.316  12.475   0.272 -0.6981 -0.1905  0.7432
37736SOL     OW22175   9.895  10.470   9.714  0.1272  0.3012 -0.2940
37736SOL    HW122176   9.911  10.376   9.723  0.8582  0.3472 -1.0652
37736SOL    HW222177   9.902  10.487   9.620 -1.6876  0.8378 -0.3752
37737SOL     OW22178   2.709  10.827  10.852 -0.4542 -0.0564 -0.2413
37737SOL    HW122179   2.715  10.920  10.827 -2.3140  0.0418 -0.4700
37737SOL    HW222180   2.703  10.781  10.768 -1.1685 -0.2223 -0.1048
37738SOL     OW22181  10.816  11.359   9.036 -0.1735 -0.8249  0.3843
37738SOL    HW122182  10.801  11.321   9.122  0.9439  0.3161  1.1211
37738SOL    HW222183  10.860  11.442   9.053 -0.1123 -0.4666 -1.2802
37739SOL     OW22184  10.823   3.430   8.544 -0.1201  0.1027  0.2637
37739SOL    HW122185  10.799   3.366   8.611 -1.5404  0.9334  0.5884
37739SOL    HW222186  10.821   3.380   8.462  2.2683 -1.0880  0.8244
37740SOL     OW22187   7.497   2.977   0.378 -0.6529 -0.6315  0.0319
37740SOL    HW122188   7.412   3.018   0.361 -0.2929  0.2388  0.2543
37740SOL    HW222189   7.544   3.042   0.431  0.5311 -0.6467 -0.9598
37741SOL     OW22190   2.341   4.018   2.140  0.8659 -0.0027  0.1045
37741SOL    HW122191   2.282   4.065   2.200 -0.1060 -1.0904  0.0363
37741SOL    HW222192   2.343   4.073   2.061  0.7385  0.5510  0.4836
37742SOL     OW22193   4.030   7.271   6.543 -0.4778 -0.2660 -0.3375
37742SOL    HW122194   3.966   7.249   6.610  0.3550 -0.6851  0.3284
37742SOL    HW222195   4.109   7.293   6.591 -0.2239  0.6645 -1.1323
37743SOL     OW22196   6.516   6.598   4.580  0.7050  0.0926 -0.0464
37743SOL    HW122197   6.454   6.662   4.546 -0.4251 -1.4642 -1.0352
37743SOL    HW222198   6.601   6.643   4.578  0.4885  0.6011 -3.6043
37744SOL     OW22199   7.997  10.139   2.185  0.0995  0.6069  0.4700
37744SOL    HW122200   7.906  10.149   2.213 -0.5076 -0.3199 -1.0205
37744SOL    HW222201   8.036  10.080   2.250 -0.2826  1.1869  1.2415
37745SOL     OW22202   3.522  11.472   3.155  0.3696 -0.5284 -0.3406
37745SOL    HW122203   3.590  11.539   3.149 -0.1823  0.0123 -0.6900
37745SOL    HW222204   3.441  11.521   3.169  0.1322 -1.1923  0.7861
37746SOL     OW22205   4.814   2.164   5.510 -0.5003 -0.2998 -0.4903
37746SOL    HW122206   4.792   2.232   5.447  2.5017  1.5186  0.2357
37746SOL    HW222207   4.753   2.178   5.583 -0.2797  1.2935 -0.5863
37747SOL     OW22208   2.011   8.911   4.836  0.3723 -0.1343 -0.0266
37747SOL    HW122209   2.043   8.873   4.755  0.3434 -1.4372  0.5492
37747SOL    HW222210   2.031   8.846   4.903 -0.7452  0.3525  0.8176
37748SOL     OW22211   1.439   9.122  11.898 -0.5767  0.3901  0.3988
37748SOL    HW122212   1.419   9.124  11.991 -0.2400  0.9465  0.4669
37748SOL    HW222213   1.503   9.051  11.889 -1.8034 -0.7354  0.3274
37749SOL     OW22214   3.380   8.699   5.786 -0.2494 -0.2282  0.2755
37749SOL    HW122215   3.307   8.712   5.848 -0.9248 -1.6017 -0.2019
37749SOL    HW222216   3.440   8.771   5.805 -1.0493  0.1127  1.6655
37750SOL     OW22217   8.126   6.439  12.292 -0.4134 -0.2459 -0.0520
37750SOL    HW122218   8.075   6.475  12.364  0.9538  2.5151 -0.3299
37750SOL    HW222219   8.061   6.418  12.225 -1.3535  1.5478  0.2380
37751SOL     OW22220   1.930  11.668   5.085 -0.3785  0.0540 -0.0078
37751SOL    HW122221   1.934  11.764   5.091 -1.6057  0.0245  2.9542
37751SOL    HW222222   2.021  11.640   5.079  0.1689  1.3465  1.6744
37752SOL     OW22223   6.151  10.018   2.372 -0.2434  0.3588 -0.1787
37752SOL    HW122224   6.086   9.951   2.352  0.2584 -0.4551  0.8681
37752SOL    HW222225   6.165  10.011   2.466  2.3505 -0.4150 -0.5409
37753SOL     OW22226   1.043   8.413   8.675 -0.1502 -0.6593 -0.3556
37753SOL    HW122227   1.047   8.508   8.675  1.6707 -0.6674 -1.6269
37753SOL    HW222228   0.969   8.392   8.618 -0.0703  0.0062 -0.7162
37754SOL     OW22229   5.113  10.529   2.397 -0.0180 -0.8151  0.6058
37754SOL    HW122230   5.114  10.622   2.420  0.5719 -0.3128 -1.2670
37754SOL    HW222231   5.021  10.504   2.403 -0.2024 -0.0769  0.9824
37755SOL     OW22232   0.937   5.947   8.705  0.2669  0.1406 -0.2814
37755SOL    HW122233   1.015   6.000   8.687  2.1299 -2.5712 -0.7884
37755SOL    HW222234   0.956   5.904   8.788  0.1079 -1.8329 -1.2200
37756SOL     OW22235   8.036   6.398   8.139 -0.2102 -0.0145 -0.1660
37756SOL    HW122236   7.976   6.443   8.199 -0.0490  1.2760 -0.9222
37756SOL    HW222237   8.096   6.466   8.110  0.5155 -0.8982 -0.7990
37757SOL     OW22238   7.615   3.559   3.194 -0.2158 -0.0569 -0.5617
37757SOL    HW122239   7.587   3.504   3.120  2.3047  0.6791 -2.1981
37757SOL    HW222240   7.626   3.646   3.156 -1.7169  1.0720  1.4273
37758SOL     OW22241   4.706  11.873  11.283 -0.1991  0.1995  0.8547
37758SOL    HW122242   4.797  11.861  11.307  0.1153  2.0942  0.7414
37758SOL    HW222243   4.704  11.856  11.188  0.1209  0.5806  0.7792
37759SOL     OW22244   8.904  11.718   1.276  0.3533 -0.2236  0.7285
37759SOL    HW122245   8.883  11.727   1.369  0.6896 -0.0514  0.7880
37759SOL    HW222246   8.824  11.744   1.230  0.8092  1.6746  0.9229
37760SOL     OW22247   1.295   3.751   8.366 -0.0493 -0.1314 -0.3552
37760SOL    HW122248   1.340   3.672   8.337 -1.1842 -0.0646 -2.4983
37760SOL    HW222249   1.205   3.722   8.385  0.1317  0.2331  1.1705
37761SOL     OW22250   8.460  10.720   7.962  1.4294 -0.2544  0.5906
37761SOL    HW122251   8.394  10.677   7.907 -0.1920  1.6674  0.9369
37761SOL    HW222252   8.510  10.774   7.900 -0.4339  1.9549  0.8932
37762SOL     OW22253   3.269   9.790   9.189  0.0505 -0.2003 -0.6575
37762SOL    HW122254   3.309   9.862   9.238  0.8724  0.1444 -1.7946
37762SOL    HW222255   3.326   9.715   9.206  0.7375  0.0931 -1.6368
37763SOL     OW22256   4.638   5.153   1.101  0.5023 -0.0849 -0.6799
37763SOL    HW122257   4.607   5.214   1.034  0.0160  1.0503  0.5490
37763SOL    HW222258   4.728   5.180   1.119 -0.4679  1.9795  1.6451
37764SOL     OW22259   5.330   3.832   6.705 -0.1602  0.2364  0.2258
37764SOL    HW122260   5.243   3.835   6.664  0.1682 -1.2320 -0.6669
37764SOL    HW222261   5.360   3.742   6.692  0.3973 -0.0599  2.9024
37765SOL     OW22262   4.250  11.836   7.237  0.2435 -0.4134 -0.4731
37765SOL    HW122263   4.214  11.919   7.268  2.1756  0.6589 -0.9191
37765SOL    HW222264   4.269  11.850   7.144  2.1794 -0.7062 -0.1776
37766SOL     OW22265   9.186   8.362   6.478  0.0025 -0.3421  0.3346
37766SOL    HW122266   9.271   8.332   6.510  0.3991  1.1224  0.7547
37766SOL    HW222267   9.178   8.322   6.391  1.1818 -0.4207  0.2416
37767SOL     OW22268   0.506   9.445   9.979  0.0796  0.3423  0.2954
37767SOL    HW122269   0.597   9.432   9.951 -0.4826 -1.5705 -0.8030
37767SOL    HW222270   0.469   9.501   9.911  0.1455  0.1765  0.1205
37768SOL     OW22271   3.314   6.373   2.034 -0.4883  0.2462 -0.0188
37768SOL    HW122272   3.266   6.314   2.091 -0.9033  1.9696  1.5133
37768SOL    HW222273   3.246   6.428   1.994 -0.1807 -0.6998 -1.9984
37769SOL     OW22274  12.028   7.467   8.584 -0.0636  0.1729 -0.2897
37769SOL    HW122275  12.035   7.376   8.557 -1.7379  0.0433 -0.3685
37769SOL    HW222276  11.941   7.475   8.622  0.9246  1.1961  1.9042
37770SOL     OW22277  10.190  11.728   6.995 -0.1829  0.2663 -0.0819
37770SOL    HW122278  10.220  11.773   6.917  4.7027  0.0627  1.3276
37770SOL    HW222279  10.223  11.781   7.068 -0.3596 -1.9574  1.7482
37771SOL     OW22280   3.916   4.322   9.396  0.2038 -0.1436 -0.5600
37771SOL    HW122281   3.829   4.316   9.435  0.4510 -2.0130 -0.2185
37771SOL    HW222282   3.902   4.365   9.312 -1.0805 -0.6283 -0.6060
37772SOL     OW22283   1.295   4.433  10.928 -0.3878 -0.5637  0.3997
37772SOL    HW122284   1.388   4.453  10.913  0.0482 -3.0303 -0.6749
37772SOL    HW222285   1.263   4.506  10.981  1.6974  1.2895 -0.7028
37773SOL     OW22286   1.613   9.304  12.311 -0.1400 -0.2995 -0.3618
37773SOL    HW122287   1.587   9.265  12.394 -1.3396 -1.8586 -1.4342
37773SOL    HW222288   1.689   9.359  12.334 -2.4013  2.0246  2.3325
37774SOL     OW22289   6.026   0.087   6.242  0.5819 -0.4515 -0.7224
37774SOL    HW122290   5.959   0.153   6.260 -0.3320 -1.7675  0.9881
37774SOL    HW222291   6.109   0.131   6.260 -0.0638 -0.1082  1.6739
37775SOL     OW22292   5.913   5.161  10.091  0.0562 -0.0480 -0.2837
37775SOL    HW122293   5.824   5.159  10.126 -0.1652 -1.1005 -0.8840
37775SOL    HW222294   5.955   5.233  10.138 -0.3605 -1.1007  1.8240
37776SOL     OW22295   2.544   2.211   7.004 -0.5022  0.4335 -0.1778
37776SOL    HW122296   2.587   2.292   6.976  0.2834  0.3277  0.6533
37776SOL    HW222297   2.458   2.238   7.036  0.3876  1.2367  1.7445
37777SOL     OW22298  11.652   2.120   6.676 -0.1085 -0.6017 -0.2477
37777SOL    HW122299  11.641   2.177   6.752 -0.6398 -0.5949 -0.3265
37777SOL    HW222300  11.564   2.111   6.639  0.0568 -1.0361 -0.5518
37778SOL     OW22301   5.116   0.796   0.079  0.2671  0.4042 -0.0912
37778SOL    HW122302   5.022   0.788   0.060  0.4005 -0.3225 -0.4682
37778SOL    HW222303   5.120   0.859   0.151 -0.3176  2.6299 -1.8819
37779SOL     OW22304   1.158   4.260  10.750 -0.1957 -0.4089  0.3128
37779SOL    HW122305   1.118   4.307  10.676 -2.0323 -1.3824  0.6345
37779SOL    HW222306   1.214   4.326  10.792 -0.9570  0.8513 -0.5535
37780SOL     OW22307   1.225   7.880   3.752  0.7264 -0.4661 -0.0693
37780SOL    HW122308   1.311   7.890   3.794  0.5258 -0.2631  0.2991
37780SOL    HW222309   1.223   7.789   3.723  1.4104 -0.2403 -0.8507
37781SOL     OW22310   1.511   0.281   8.082  0.2017  0.2094 -0.5873
37781SOL    HW122311   1.605   0.269   8.068  0.3986 -0.9897  1.4337
37781SOL    HW222312   1.477   0.192   8.092 -0.1930  0.6426  3.9908
37782SOL     OW22313   1.249   8.137   6.151 -0.0083  1.0847  0.1852
37782SOL    HW122314   1.201   8.160   6.230  1.5577  1.3776  1.0845
37782SOL    HW222315   1.264   8.220   6.106 -0.7995  0.9312 -0.4097
37783SOL     OW22316   6.939   9.103   2.894 -0.1587  0.0698 -0.2520
37783SOL    HW122317   6.925   9.080   2.986  1.2935 -1.8936 -0.4683
37783SOL    HW222318   7.032   9.126   2.889 -0.1295 -0.2440 -1.3014
37784SOL     OW22319   8.506   6.149   9.776  0.3540 -0.5774  0.6683
37784SOL    HW122320   8.572   6.085   9.747 -0.2125 -1.0887  0.4900
37784SOL    HW222321   8.466   6.109   9.854 -0.3672 -0.6894  0.2493
37785SOL     OW22322   3.310  12.107   3.731  0.0796  0.0809  0.5051
37785SOL    HW122323   3.269  12.072   3.652 -0.5259 -0.2597  0.9656
37785SOL    HW222324   3.378  12.166   3.698 -0.0687 -0.1672 -0.2694
37786SOL     OW22325   4.070   8.182  10.878 -0.7471  0.6156  0.1361
37786SOL    HW122326   4.102   8.240  10.809  0.8193 -0.8383 -0.4355
37786SOL    HW222327   4.058   8.240  10.953  1.2668  1.6478 -0.2429
37787SOL     OW22328  12.054   3.614   9.199 -0.1270  0.4198  0.3439
37787SOL    HW122329  12.073   3.705   9.177  0.6677  0.2317  0.2134
37787SOL    HW222330  12.138   3.569   9.187 -0.7429 -0.5276 -0.6086
37788SOL     OW22331   4.250  10.817   2.161 -0.3391 -0.1988  0.1920
37788SOL    HW122332   4.321  10.808   2.098 -1.1439 -2.3704 -0.5118
37788SOL    HW222333   4.198  10.890   2.128  1.4031  1.3178  0.6354
37789SOL     OW22334   2.480  11.673   3.083 -0.2656  0.5342 -0.4543
37789SOL    HW122335   2.472  11.733   3.009  0.2098 -0.0128 -0.9663
37789SOL    HW222336   2.527  11.597   3.047 -1.5556 -0.5008 -0.0480
37790SOL     OW22337  12.249   9.065   2.294  0.0344  0.1720 -0.2963
37790SOL    HW122338  12.317   9.000   2.280  0.0818  0.1260  0.1240
37790SOL    HW222339  12.178   9.039   2.236 -0.2309 -0.6800  0.3858
37791SOL     OW22340   9.414   5.969   6.565 -0.0979 -0.5990  0.1154
37791SOL    HW122341   9.347   5.944   6.502 -0.2208  1.0974 -0.4975
37791SOL    HW222342   9.479   6.016   6.513  0.3761 -0.1670  1.0622
37792SOL     OW22343  10.131   6.180   8.786 -0.2963 -0.0294  0.1045
37792SOL    HW122344  10.143   6.085   8.779 -2.1605 -0.3468  0.4709
37792SOL    HW222345  10.197   6.209   8.849 -1.4758 -1.5701  2.1901
37793SOL     OW22346   7.374   6.488   7.786  0.1243 -0.2443  0.0049
37793SOL    HW122347   7.450   6.453   7.739  1.3563 -0.3066  1.9261
37793SOL    HW222348   7.361   6.575   7.749  0.4891 -0.6133 -1.0387
37794SOL     OW22349   6.587   1.024  12.194 -0.3402  0.5403  0.0483
37794SOL    HW122350   6.558   0.934  12.180 -0.1814  0.6856 -1.3508
37794SOL    HW222351   6.656   1.018  12.259 -0.2007 -0.3783 -0.1770
37795SOL     OW22352   8.331  12.492   7.866 -0.2284 -0.5067 -0.2213
37795SOL    HW122353   8.331  12.438   7.945 -0.3210  0.9310  0.8103
37795SOL    HW222354   8.408  12.464   7.818 -0.0039 -1.2117  0.5193
37796SOL     OW22355   6.789   4.903   1.106  0.0521 -0.1856  0.3406
37796SOL    HW122356   6.878   4.939   1.107  0.0174 -0.0286  2.1947
37796SOL    HW222357   6.791   4.835   1.039  1.2890  0.4697 -0.3190
37797SOL     OW22358  12.267   5.807   3.592  0.1201  0.2280 -0.4304
37797SOL    HW122359  12.310   5.858   3.523  1.1792  1.6007  1.1580
37797SOL    HW222360  12.338   5.754   3.629 -0.4067 -0.3644 -0.2634
37798SOL     OW22361   8.057   5.726   9.807 -0.7243 -0.2418 -0.2271
37798SOL    HW122362   8.107   5.781   9.747 -1.6380  0.4316 -0.3815
37798SOL    HW222363   8.091   5.637   9.791  1.7494  0.3873  1.0046
37799SOL     OW22364   4.374   0.077   2.876  0.1944  0.1403 -0.0032
37799SOL    HW122365   4.414  -0.011   2.875  0.0868  0.0888  0.1507
37799SOL    HW222366   4.324   0.079   2.957  0.3298  0.4046  0.0747
37800SOL     OW22367  11.381   8.985   0.609 -0.5957 -0.3986 -0.6505
37800SOL    HW122368  11.398   9.055   0.672 -0.8152 -1.6741  0.8987
37800SOL    HW222369  11.458   8.929   0.615 -2.2092 -2.5841  1.3903
37801SOL     OW22370   8.986   9.322   9.955 -0.1564  0.0762 -0.1988
37801SOL    HW122371   8.938   9.373  10.020  1.2121  0.4120  0.6089
37801SOL    HW222372   8.924   9.257   9.924 -1.3174  0.9246  0.2835
37802SOL     OW22373   4.728   2.093  11.018 -0.7721 -0.2132  0.1124
37802SOL    HW122374   4.771   2.087  10.932  1.5428 -1.0978  1.2377
37802SOL    HW222375   4.651   2.037  11.009  0.0431 -1.2290 -1.0909
37803SOL     OW22376   9.712  11.231   0.095 -0.0833  0.0533 -0.0977
37803SOL    HW122377   9.765  11.171   0.043  1.0518  0.4997  0.5178
37803SOL    HW222378   9.626  11.189   0.099  0.6297 -1.4582  0.1866
37804SOL     OW22379  11.322   9.037   5.824  0.1698 -0.4436 -0.4295
37804SOL    HW122380  11.286   8.952   5.849 -2.4998  0.6198 -0.4021
37804SOL    HW222381  11.281   9.057   5.740  1.7426  0.3029 -1.0780
37805SOL     OW22382  12.586   4.475   9.955  0.0284 -0.4670 -0.5282
37805SOL    HW122383  12.636   4.403   9.916  2.0160 -0.5287  1.9072
37805SOL    HW222384  12.632   4.554   9.928  1.0880 -0.4792  1.1221
37806SOL     OW22385   0.689   3.212  11.922  0.8039  0.6887  0.7822
37806SOL    HW122386   0.603   3.253  11.928  0.2080  0.1395 -2.3561
37806SOL    HW222387   0.694   3.155  11.999 -2.2929 -0.3900  0.3382
37807SOL     OW22388   3.845  10.389   0.083 -0.1629 -0.2589 -0.0756
37807SOL    HW122389   3.904  10.425   0.017  0.2750 -1.9229 -0.6558
37807SOL    HW222390   3.784  10.460   0.103  0.4563  0.6702 -1.3670
37808SOL     OW22391   2.524   8.987   4.989 -0.1212  0.0614  0.1531
37808SOL    HW122392   2.587   8.916   4.976 -1.3762 -1.0600  0.0082
37808SOL    HW222393   2.572   9.053   5.039  1.7825  0.1268 -1.6054
37809SOL     OW22394  12.134   3.376   6.549  0.2350  0.3657 -0.5373
37809SOL    HW122395  12.057   3.428   6.528 -1.6821 -0.7391  2.9381
37809SOL    HW222396  12.184   3.431   6.610  0.6786 -0.0146 -0.5520
37810SOL     OW22397   2.440   6.007   1.988  0.9214 -0.4641  0.3486
37810SOL    HW122398   2.393   6.081   2.027  0.0218 -1.6811  1.6567
37810SOL    HW222399   2.505   6.048   1.931  0.4224  1.3318  0.9929
37811SOL     OW22400   2.796   5.394  10.043  0.2148  0.0904 -0.0749
37811SOL    HW122401   2.716   5.373  10.090  0.0649  0.1674 -0.2931
37811SOL    HW222402   2.800   5.490  10.044  1.3197  0.0727  1.6354
37812SOL     OW22403   3.094  12.258   0.608  0.1057 -0.0877 -0.0026
37812SOL    HW122404   3.044  12.290   0.533 -0.8847 -0.5930  0.4254
37812SOL    HW222405   3.069  12.316   0.680 -0.4295 -0.7697  0.3787
37813SOL     OW22406   6.110   8.309  10.206 -0.0912  0.4020 -0.3090
37813SOL    HW122407   6.145   8.223  10.227  0.1393  0.1789 -1.5187
37813SOL    HW222408   6.155   8.334  10.125 -0.2335  1.6134 -0.0407
37814SOL     OW22409   4.286   8.595   3.604 -0.2725 -0.2395 -0.5303
37814SOL    HW122410   4.350   8.619   3.671 -0.8887 -1.0787  0.3792
37814SOL    HW222411   4.218   8.662   3.611 -0.9500 -1.0136  0.5601
37815SOL     OW22412   1.497   8.844   8.066  0.0352  0.9750 -0.8195
37815SOL    HW122413   1.486   8.900   8.143 -2.5647 -0.2123 -0.2210
37815SOL    HW222414   1.452   8.890   7.995 -1.2234  0.1879 -0.5685
37816SOL     OW22415   1.289   0.999   5.561  0.3048  0.6090 -0.0276
37816SOL    HW122416   1.219   1.040   5.509  0.2070  1.6742  0.8959
37816SOL    HW222417   1.276   1.033   5.650 -0.2695 -2.0768  1.0236
37817SOL     OW22418  11.961   6.110   2.086 -0.3253  0.3380 -0.3146
37817SOL    HW122419  11.940   6.075   2.000 -1.2705  1.0893 -0.4064
37817SOL    HW222420  12.053   6.087   2.100 -0.0616  0.4988 -1.6631
37818SOL     OW22421  12.000   6.015   9.846  0.2802 -0.0971  0.2641
37818SOL    HW122422  11.963   6.037   9.931 -1.9690 -3.1013  0.2218
37818SOL    HW222423  11.927   5.977   9.797  2.2179 -1.2735 -1.8952
37819SOL     OW22424   1.469   4.079  12.541  0.9355  0.0616  0.1711
37819SOL    HW122425   1.399   4.044  12.486  1.7873  0.5035 -1.2668
37819SOL    HW222426   1.425   4.140  12.600  0.2080  1.2015 -1.4697
37820SOL     OW22427   8.213  10.754   6.626  0.2724  0.2582 -0.4687
37820SOL    HW122428   8.286  10.778   6.569  0.0987 -1.1755 -1.3527
37820SOL    HW222429   8.189  10.835   6.670  1.5021  1.0453 -1.1972
37821SOL     OW22430   8.254   6.677   5.243 -0.1911 -0.8317  0.1475
37821SOL    HW122431   8.265   6.582   5.241  2.5579 -0.6037  0.5856
37821SOL    HW222432   8.240   6.701   5.152 -0.6288 -1.6239 -0.0054
37822SOL     OW22433   9.775   4.763  12.532 -0.2442 -0.4572  0.1873
37822SOL    HW122434   9.781   4.728  12.443 -1.5868  0.3337 -0.2401
37822SOL    HW222435   9.701   4.716  12.571 -0.1331 -0.2633  0.6341
37823SOL     OW22436   3.467   0.391   1.415 -0.4749  0.1892  0.0222
37823SOL    HW122437   3.549   0.371   1.460 -0.5927  0.5445  0.3965
37823SOL    HW222438   3.429   0.462   1.466 -1.0785 -0.0613 -0.0739
37824SOL     OW22439   5.018  11.841  11.572  0.1516 -0.4541  0.1012
37824SOL    HW122440   4.988  11.879  11.654 -0.6749 -0.3889 -0.2179
37824SOL    HW222441   5.106  11.807  11.591 -0.0622 -0.5051  1.0175
37825SOL     OW22442   5.642   8.592   3.012  0.5847 -0.5544  0.1931
37825SOL    HW122443   5.606   8.515   3.054  0.4970 -1.6249 -1.7282
37825SOL    HW222444   5.607   8.590   2.923  1.5027  1.0638 -0.2552
37826SOL     OW22445  11.489  10.038   1.232  0.2909 -0.1791  0.4329
37826SOL    HW122446  11.555   9.969   1.244 -0.3589 -0.7805  0.6412
37826SOL    HW222447  11.468  10.068   1.320  1.3372  1.0523  0.2915
37827SOL     OW22448   3.416   1.332  11.513 -0.1950 -0.3100  0.1530
37827SOL    HW122449   3.381   1.330  11.602  0.8995 -0.3939  0.6050
37827SOL    HW222450   3.411   1.241  11.483 -1.6874 -0.0818 -0.3442
37828SOL     OW22451   5.868   9.702   5.040  0.0090 -0.0263  0.2776
37828SOL    HW122452   5.779   9.669   5.028 -0.1929  0.9354 -1.0954
37828SOL    HW222453   5.924   9.625   5.030 -0.5762 -0.3435 -0.6075
37829SOL     OW22454   7.199  11.857  12.535 -0.3060 -0.2955 -0.3589
37829SOL    HW122455   7.165  11.770  12.558 -3.5617  0.5926 -1.1409
37829SOL    HW222456   7.149  11.917  12.589  2.8448  1.1500  1.1618
37830SOL     OW22457   9.219   9.175   9.926  0.2419 -0.3844  0.3391
37830SOL    HW122458   9.137   9.224   9.928  0.6918  0.3819  0.4309
37830SOL    HW222459   9.196   9.091   9.886 -0.9625 -0.9208  2.0462
37831SOL     OW22460   6.819   3.289   7.290  0.2599 -0.0488  0.3716
37831SOL    HW122461   6.892   3.293   7.228  3.1463  1.2756  3.6052
37831SOL    HW222462   6.802   3.195   7.299  2.9501 -0.5805  0.9020
37832SOL     OW22463   1.867   2.082   5.744 -0.4207 -0.5745 -0.3494
37832SOL    HW122464   1.922   2.102   5.668  0.9066 -0.7142  0.5338
37832SOL    HW222465   1.924   2.098   5.819 -1.0491 -2.3152  0.5572
37833SOL     OW22466   9.224   6.173  11.828 -0.5198 -0.4614 -0.0486
37833SOL    HW122467   9.147   6.203  11.781 -1.4062 -0.8908  1.0757
37833SOL    HW222468   9.261   6.252  11.867  0.4202 -0.0510 -1.6924
37834SOL     OW22469   5.243   6.181   0.725  0.0935 -0.1954 -0.3544
37834SOL    HW122470   5.271   6.238   0.653  2.2140 -0.1651  0.4152
37834SOL    HW222471   5.247   6.237   0.802  1.7879 -1.2049  0.3487
37835SOL     OW22472   7.220   8.052   2.936 -0.4608 -0.4186  0.4363
37835SOL    HW122473   7.127   8.034   2.946 -1.0664  2.8320  1.6440
37835SOL    HW222474   7.226   8.147   2.927  2.7227 -0.5561 -0.1875
37836SOL     OW22475   5.510   8.430   2.771 -0.2028  0.1211  0.3060
37836SOL    HW122476   5.562   8.490   2.717  0.5775  0.5177  1.4551
37836SOL    HW222477   5.563   8.351   2.777 -1.8186 -1.3137 -2.3316
37837SOL     OW22478   6.006   2.998   8.805 -0.2669 -0.2817  0.6214
37837SOL    HW122479   6.053   2.945   8.869  1.3551  1.9483  1.3868
37837SOL    HW222480   6.033   2.963   8.720  0.8346 -0.6308  1.0999
37838SOL     OW22481  10.502   9.217   8.300  0.3406  0.3014 -0.7134
37838SOL    HW122482  10.444   9.293   8.310  0.1404 -0.0546  1.1451
37838SOL    HW222483  10.586   9.245   8.337  0.2289 -0.3965  0.1068
37839SOL     OW22484   1.841  11.369   0.424 -0.0965  0.3200  0.3132
37839SOL    HW122485   1.825  11.451   0.470 -0.6180  0.2920  0.1822
37839SOL    HW222486   1.809  11.301   0.484 -1.4780  0.3183 -0.3772
37840SOL     OW22487   8.518  11.514   3.436 -0.3016  0.8468 -0.2192
37840SOL    HW122488   8.523  11.419   3.448  0.4620  1.0146  1.0853
37840SOL    HW222489   8.455  11.527   3.366  1.0053 -0.6951 -1.7745
37841SOL     OW22490   0.471   3.263   5.562  0.1507 -0.3043 -0.2141
37841SOL    HW122491   0.505   3.179   5.593 -1.5151 -0.8122  0.3350
37841SOL    HW222492   0.421   3.297   5.636 -2.5511 -0.7761 -1.6895
37842SOL     OW22493   0.314  10.536   4.694 -0.0648  0.7585 -0.6656
37842SOL    HW122494   0.314  10.610   4.754  0.6924  0.1847  0.0685
37842SOL    HW222495   0.390  10.551   4.637  0.8828 -0.0875  0.3291
37843SOL     OW22496   7.874  10.164   2.993 -0.0072 -0.4260  0.1992
37843SOL    HW122497   7.838  10.080   2.968 -0.4871 -0.7109  1.7770
37843SOL    HW222498   7.947  10.178   2.932 -1.4080 -0.8065 -1.6651
37844SOL     OW22499  12.435   0.819  10.286  0.1972  0.0416  0.4794
37844SOL    HW122500  12.393   0.736  10.263  2.4169 -0.9227 -0.3246
37844SOL    HW222501  12.387   0.885  10.236  0.4456 -1.1677 -1.4597
37845SOL     OW22502  10.986  11.955   2.088 -0.0159  0.6515  0.9971
37845SOL    HW122503  11.072  11.948   2.129 -0.5653 -0.9317  1.9293
37845SOL    HW222504  10.925  11.970   2.161 -0.6805  0.4963  0.4883
37846SOL     OW22505   3.249  10.459  11.916 -0.0002  0.1054  0.2046
37846SOL    HW122506   3.249  10.366  11.939  0.2596  0.3953  1.4749
37846SOL    HW222507   3.174  10.470  11.858 -0.0945 -0.8769  0.1306
37847SOL     OW22508   0.325   3.028  10.656 -0.4279  0.0071  0.4537
37847SOL    HW122509   0.404   3.082  10.650 -0.4444 -0.0485 -0.4801
37847SOL    HW222510   0.324   2.978  10.574 -0.6993 -1.0154  1.0555
37848SOL     OW22511   2.132  12.044   9.342  0.3548  0.0526 -0.9246
37848SOL    HW122512   2.055  11.988   9.344 -0.2411  0.8103  1.4854
37848SOL    HW222513   2.098  12.133   9.335  1.0172  0.3549 -0.5076
37849SOL     OW22514  11.851   0.809   2.256  0.2479  0.4697  0.3378
37849SOL    HW122515  11.809   0.724   2.266  0.8415 -0.0473 -1.2974
37849SOL    HW222516  11.781   0.873   2.271 -0.3784 -0.3086  0.7786
37850SOL     OW22517   1.593  11.064   4.572  0.4399  0.0709  0.0899
37850SOL    HW122518   1.609  11.105   4.657  2.5097 -1.5961  0.5834
37850SOL    HW222519   1.508  11.020   4.583  0.7276 -0.2240  1.3590
37851SOL     OW22520   7.107  11.851   9.770  0.4577 -0.1589 -0.4022
37851SOL    HW122521   7.043  11.921   9.759  0.7907  0.1365 -0.4760
37851SOL    HW222522   7.064  11.773   9.734  0.7350  0.3659 -1.9457
37852SOL     OW22523   9.008   2.634   3.835  0.4458 -0.1079 -0.2008
37852SOL    HW122524   9.042   2.721   3.853  0.8359 -0.2441 -0.2623
37852SOL    HW222525   9.020   2.623   3.740 -0.1047 -0.0183 -0.2848
37853SOL     OW22526   1.991   7.616   8.503 -0.5202 -0.2332  0.1155
37853SOL    HW122527   1.930   7.594   8.432 -2.2310 -0.2701  1.5288
37853SOL    HW222528   1.936   7.653   8.572  1.3041  1.4572  0.7889
37854SOL     OW22529  11.562   0.665   0.682 -0.0829 -0.7197  0.4035
37854SOL    HW122530  11.615   0.585   0.691  1.2122 -0.1382 -1.4702
37854SOL    HW222531  11.492   0.640   0.622  0.5593 -0.3686 -0.5117
37855SOL     OW22532   6.597   6.778  10.174  0.2073  0.0043  0.4801
37855SOL    HW122533   6.529   6.840  10.148  0.1988 -0.3578 -0.3916
37855SOL    HW222534   6.650   6.765  10.095  1.3302  0.3134  1.1499
37856SOL     OW22535   1.962   2.793   2.427 -0.5853 -0.7469 -0.2510
37856SOL    HW122536   1.936   2.848   2.354 -0.3285  0.5521  0.5975
37856SOL    HW222537   2.058   2.790   2.421 -0.5344 -0.2780  0.2694
37857SOL     OW22538   8.482  11.697   7.832 -0.0210  0.5404  0.2108
37857SOL    HW122539   8.407  11.756   7.821 -1.6123 -0.4494  3.9436
37857SOL    HW222540   8.455  11.616   7.788  1.3350  1.7724 -3.1943
37858SOL     OW22541   3.041  11.875   8.154 -0.2049  0.3203 -0.1778
37858SOL    HW122542   2.988  11.840   8.083  0.2692  0.0383 -0.3938
37858SOL    HW222543   3.092  11.801   8.186  0.2598  0.6460 -0.1455
37859SOL     OW22544  10.290  11.139  10.994  0.2806 -0.2858 -0.4329
37859SOL    HW122545  10.206  11.174  11.025 -1.2738 -2.5469 -1.7428
37859SOL    HW222546  10.331  11.212  10.948  0.1700  1.5436  2.1601
37860SOL     OW22547   3.120   6.280   0.022 -0.1974 -0.6556 -0.7072
37860SOL    HW122548   3.040   6.240  -0.011 -0.0531 -1.9408  0.4302
37860SOL    HW222549   3.191   6.230  -0.019  0.0132 -0.3277 -0.7480
37861SOL     OW22550   2.817  11.733   6.805 -0.1832 -0.6098 -0.5390
37861SOL    HW122551   2.763  11.786   6.863 -0.7163 -1.4489 -0.2489
37861SOL    HW222552   2.807  11.773   6.719  1.8356  1.5941  0.1566
37862SOL     OW22553   7.880   2.117   2.250 -0.5326 -0.1040 -0.4992
37862SOL    HW122554   7.809   2.167   2.291 -1.0084 -1.2822  0.1722
37862SOL    HW222555   7.838   2.075   2.174  0.0381  1.0534 -1.4925
37863SOL     OW22556   0.642   4.676  12.023 -0.2554  0.7311  0.6131
37863SOL    HW122557   0.727   4.688  12.067  1.7785  0.0256 -2.7770
37863SOL    HW222558   0.608   4.595  12.060  0.3727  1.1694  2.2560
37864SOL     OW22559  11.679  11.875   6.201 -0.2871  0.4943 -0.3048
37864SOL    HW122560  11.706  11.967   6.209  2.1513 -0.1467 -0.3372
37864SOL    HW222561  11.664  11.846   6.291  0.2250  0.5936 -0.1825
37865SOL     OW22562  10.739   1.299   6.075 -0.1474  0.2013 -0.1919
37865SOL    HW122563  10.703   1.212   6.090 -1.1527  0.7940  1.0980
37865SOL    HW222564  10.737   1.341   6.162 -0.1829  1.6758 -0.8652
37866SOL     OW22565   5.090   1.564   9.105 -0.2250  0.3540  0.4587
37866SOL    HW122566   5.018   1.605   9.056  0.8855 -0.4978 -2.0451
37866SOL    HW222567   5.049   1.532   9.185 -2.6800 -0.2114 -0.9203
37867SOL     OW22568   3.169  11.746   5.012 -0.6665  0.0843 -1.0403
37867SOL    HW122569   3.198  11.836   5.028 -0.7240  0.1219 -1.1494
37867SOL    HW222570   3.073  11.752   5.013 -0.6713 -0.0306 -0.7422
37868SOL     OW22571   3.422   4.505   2.562 -0.6197  0.2981  0.1049
37868SOL    HW122572   3.438   4.527   2.654  0.2384  1.3436 -0.2738
37868SOL    HW222573   3.389   4.415   2.565 -0.9875  0.4532  1.4594
37869SOL     OW22574   0.444  10.069  11.118  0.3631 -0.1555 -0.2038
37869SOL    HW122575   0.473  10.009  11.188  1.3269  0.7734  0.2199
37869SOL    HW222576   0.508  10.057  11.048  0.2213 -0.0364 -0.3554
37870SOL     OW22577   9.243   8.165  11.755  0.0060 -0.0021 -0.1361
37870SOL    HW122578   9.294   8.087  11.777  1.1242  0.4944 -0.8903
37870SOL    HW222579   9.164   8.131  11.713  0.4203 -0.7387 -0.3336
37871SOL     OW22580   8.070   5.675   2.642 -0.4809 -0.9373  0.4080
37871SOL    HW122581   8.152   5.667   2.593 -1.6541 -0.4479 -1.8088
37871SOL    HW222582   8.052   5.586   2.673  0.6505 -1.1301  0.5668
37872SOL     OW22583   4.032   2.286   2.724  0.2400 -0.2791 -0.2160
37872SOL    HW122584   3.973   2.331   2.785 -0.3464 -0.8482 -0.3537
37872SOL    HW222585   4.118   2.294   2.764  0.0397  0.3678  0.1042
37873SOL     OW22586  11.075   8.616   3.447  0.8391 -0.0320 -0.1055
37873SOL    HW122587  11.062   8.571   3.364  0.6936  0.2265 -0.2267
37873SOL    HW222588  11.056   8.708   3.427  1.1792  0.0896  0.1235
37874SOL     OW22589  11.071   9.224  10.674 -1.0230 -0.6763  0.4794
37874SOL    HW122590  11.009   9.251  10.742  0.3504  2.2328  0.7277
37874SOL    HW222591  11.135   9.170  10.721 -0.4451  0.7782  1.4477
37875SOL     OW22592   6.874   0.714   5.932  0.0898 -0.3558  0.2579
37875SOL    HW122593   6.940   0.712   5.863 -0.4462 -0.2604 -0.2782
37875SOL    HW222594   6.918   0.680   6.010  1.4539  1.8525  0.5362
37876SOL     OW22595   0.136   8.372   5.597 -0.3749 -0.2733  0.8645
37876SOL    HW122596   0.062   8.317   5.623 -0.6892  0.4093  1.4446
37876SOL    HW222597   0.190   8.315   5.542 -0.4485 -1.3034  1.8324
37877SOL     OW22598  12.584   0.046   7.570  0.7896  0.2452 -0.0356
37877SOL    HW122599  12.544   0.029   7.485  2.3992  0.3388 -0.8481
37877SOL    HW222600  12.664  -0.007   7.571 -0.1390 -1.2698  2.2303
37878SOL     OW22601  10.094   1.383  10.880  0.0037  0.0453  0.1635
37878SOL    HW122602  10.174   1.406  10.927  0.8233 -0.0256 -1.1415
37878SOL    HW222603  10.054   1.468  10.859  0.0710  0.1013  0.2568
37879SOL     OW22604  11.907   8.984   4.408 -0.2378  0.1646 -0.2646
37879SOL    HW122605  11.983   9.011   4.459  0.4359 -0.1831 -1.0576
37879SOL    HW222606  11.916   9.033   4.325 -0.9281  0.1887 -0.3311
37880SOL     OW22607   8.286   3.241  11.338  1.0824 -0.4137 -0.0047
37880SOL    HW122608   8.289   3.275  11.428 -0.2738  0.3228 -0.2200
37880SOL    HW222609   8.338   3.304  11.288 -1.8130  1.8040 -0.4897
37881SOL     OW22610   3.800   7.359   8.037  0.4994 -0.0450  0.2602
37881SOL    HW122611   3.767   7.276   8.003 -0.3772  0.7066 -0.7906
37881SOL    HW222612   3.895   7.352   8.027  0.3627 -0.4660 -0.9489
37882SOL     OW22613   9.843   2.184   5.207 -0.0209  0.1040 -0.1323
37882SOL    HW122614   9.829   2.114   5.271 -0.3696 -1.1038 -1.4611
37882SOL    HW222615   9.766   2.240   5.215 -0.1226 -0.1072  0.4020
37883SOL     OW22616   6.404   1.598   4.233  0.1251 -0.1102  0.1921
37883SOL    HW122617   6.435   1.673   4.285 -1.4986  1.0424 -0.4189
37883SOL    HW222618   6.424   1.621   4.143  1.3605 -1.3294  0.1198
37884SOL     OW22619   3.155  12.171   3.082 -0.0350  0.2317  0.0537
37884SOL    HW122620   3.213  12.220   3.023  0.0312  0.5896  0.4106
37884SOL    HW222621   3.189  12.190   3.170 -0.7333  0.5026  0.2698
37885SOL     OW22622   5.347  12.399  10.698  0.0866 -0.0812 -0.2039
37885SOL    HW122623   5.377  12.490  10.691 -1.0008  0.3734  0.5909
37885SOL    HW222624   5.297  12.397  10.780  1.6571 -1.8842  0.7888
37886SOL     OW22625   0.562  10.671   7.163  0.1457  0.1902  0.5196
37886SOL    HW122626   0.629  10.732   7.195  1.3844 -1.2987  0.9050
37886SOL    HW222627   0.612  10.597   7.128 -1.2592  0.1615 -1.6160
37887SOL     OW22628   2.720   3.775  11.954  0.5982  0.2113 -0.4715
37887SOL    HW122629   2.763   3.785  12.039 -0.4180 -3.7061  0.6991
37887SOL    HW222630   2.646   3.835  11.957  1.2768  1.0306  0.8963
37888SOL     OW22631   1.981  10.334   6.844  0.3318  0.3074  0.1179
37888SOL    HW122632   2.047  10.308   6.780 -1.2090 -1.1311 -0.9703
37888SOL    HW222633   1.985  10.268   6.913  0.4039  0.5347  0.3345
37889SOL     OW22634   9.920   3.322  10.191 -0.5417  0.2909  0.2527
37889SOL    HW122635   9.971   3.400  10.171  1.6476 -1.1252 -0.0652
37889SOL    HW222636   9.903   3.281  10.106  0.8181 -1.0158  0.5713
37890SOL     OW22637   8.746  11.676   3.411  0.0417  0.5410  0.4596
37890SOL    HW122638   8.772  11.638   3.327  0.9279 -0.5817  1.2125
37890SOL    HW222639   8.694  11.608   3.453 -1.2608  1.4744  0.4280
37891SOL     OW22640  10.556   6.909   0.209  0.1725 -0.0163 -0.3438
37891SOL    HW122641  10.626   6.938   0.267 -0.3668 -1.6154  1.1965
37891SOL    HW222642  10.501   6.853   0.264 -1.6782  0.2588 -1.8052
37892SOL     OW22643  10.567   6.602  10.172 -0.6309  0.3303  0.0793
37892SOL    HW122644  10.495   6.593  10.108 -0.7881 -1.3169  0.4254
37892SOL    HW222645  10.630   6.660  10.129 -0.2559 -1.4982 -2.0758
37893SOL     OW22646   4.139   1.339   5.122 -0.3534  0.1603 -0.4058
37893SOL    HW122647   4.227   1.337   5.084  0.0213  1.3845  0.3529
37893SOL    HW222648   4.116   1.432   5.126 -1.9395 -0.1729 -1.1450
37894SOL     OW22649   3.566   4.490  10.849  0.1080 -0.4447  0.2036
37894SOL    HW122650   3.618   4.568  10.872 -0.7455  0.7590 -1.6889
37894SOL    HW222651   3.610   4.454  10.772 -0.3711 -0.9295  0.1540
37895SOL     OW22652   6.081  10.499   2.863 -0.3413 -0.2918 -0.1225
37895SOL    HW122653   5.992  10.484   2.832 -0.6234  0.2844  0.3821
37895SOL    HW222654   6.070  10.540   2.949  0.4050 -2.2901  0.9990
37896SOL     OW22655   7.275  10.455   8.038 -0.5329  0.1899  0.1341
37896SOL    HW122656   7.263  10.361   8.049 -0.1556 -0.1935 -2.0803
37896SOL    HW222657   7.186  10.489   8.025 -0.6714  0.1527  0.9527
37897SOL     OW22658  10.799   3.894  11.994 -0.2796  0.7520 -0.2101
37897SOL    HW122659  10.799   3.880  11.899 -0.2230 -0.0527 -0.1008
37897SOL    HW222660  10.723   3.949  12.011 -1.2862 -0.5053 -0.5305
37898SOL     OW22661  11.189  11.532   6.387  0.0915  0.0925 -0.1335
37898SOL    HW122662  11.097  11.508   6.395 -0.1324  0.8686 -0.3202
37898SOL    HW222663  11.204  11.595   6.457  0.7493 -0.7591  0.5299
37899SOL     OW22664   2.671   0.332  12.523 -0.1936  0.2687  0.4115
37899SOL    HW122665   2.723   0.376  12.456 -0.3200 -1.0673 -0.6041
37899SOL    HW222666   2.716   0.248  12.536 -0.5067  0.2694  1.5901
37900SOL     OW22667   9.636   8.611   4.238 -0.6489 -0.8474  0.1125
37900SOL    HW122668   9.675   8.608   4.151  1.1692 -0.4729  0.8787
37900SOL    HW222669   9.553   8.564   4.228 -0.7529 -0.3393 -1.9332
37901SOL     OW22670   3.976   3.639   5.239 -0.3881 -0.1811  0.6426
37901SOL    HW122671   4.041   3.595   5.185  0.5635  0.8830  0.8706
37901SOL    HW222672   3.900   3.648   5.182 -0.1157 -0.8887  0.1576
37902SOL     OW22673   2.906   7.545  10.499  0.2009 -0.8003 -1.0195
37902SOL    HW122674   2.942   7.535  10.587  0.5879  1.5419 -0.8367
37902SOL    HW222675   2.824   7.496  10.501  0.0204 -0.4895  0.7750
37903SOL     OW22676  10.382   7.252   8.315  0.3134  0.1364  0.1503
37903SOL    HW122677  10.290   7.268   8.293  0.5072 -0.7783 -1.4968
37903SOL    HW222678  10.398   7.307   8.392 -1.6049  0.2991  0.4860
37904SOL     OW22679   7.048   3.575   5.140  0.5858 -0.3174 -0.6674
37904SOL    HW122680   7.076   3.492   5.102  0.1260 -0.8058  0.0435
37904SOL    HW222681   7.120   3.601   5.198  1.4601  0.6180 -2.0853
37905SOL     OW22682   0.098   7.555  11.287 -0.5078  0.0907 -0.7069
37905SOL    HW122683   0.032   7.487  11.276 -0.1202 -0.3079 -0.5633
37905SOL    HW222684   0.047   7.633  11.311 -0.8457 -0.4343  0.3376
37906SOL     OW22685  11.221  10.677   4.956 -0.4999  0.0210  0.4123
37906SOL    HW122686  11.167  10.710   5.028  0.0831  0.7323  0.5332
37906SOL    HW222687  11.292  10.629   4.999  0.4223  1.3032  0.3814
37907SOL     OW22688   6.666  11.624   0.544  0.2845 -0.3798 -0.7174
37907SOL    HW122689   6.733  11.651   0.606  0.8133 -2.1385 -0.4631
37907SOL    HW222690   6.590  11.679   0.565  0.3713 -1.0350  1.6518
37908SOL     OW22691   5.814   9.888   7.625 -0.6096 -0.1360  0.0782
37908SOL    HW122692   5.813   9.965   7.682  1.0762 -0.0960  0.1050
37908SOL    HW222693   5.777   9.920   7.543 -1.4682  0.2584  0.6101
37909SOL     OW22694   0.194   2.716   7.270  0.3447  0.6710 -0.5178
37909SOL    HW122695   0.273   2.668   7.294 -0.1816  0.0008 -0.0880
37909SOL    HW222696   0.139   2.712   7.348 -0.2112  0.9222 -0.8910
37910SOL     OW22697   9.929   3.521   7.756 -0.1737  0.8015  0.3946
37910SOL    HW122698   9.888   3.497   7.673  0.0805 -0.9588  0.7374
37910SOL    HW222699   9.855   3.541   7.814 -0.3581  1.8016 -0.1767
37911SOL     OW22700   9.695  12.070   0.382  0.6480  0.3054 -0.6131
37911SOL    HW122701   9.731  12.158   0.379 -1.7360  1.3552 -0.6712
37911SOL    HW222702   9.619  12.077   0.439  0.1339 -1.6313 -0.9643
37912SOL     OW22703   8.705  10.793  11.898 -0.0846  0.2965  0.2045
37912SOL    HW122704   8.682  10.878  11.937  1.8010  0.4490  1.1124
37912SOL    HW222705   8.715  10.734  11.972  2.7052  0.3634 -0.0028
37913SOL     OW22706   1.607   9.837   3.044  0.3301  0.0472 -0.3490
37913SOL    HW122707   1.618   9.896   3.119  1.3459 -0.5229 -0.0311
37913SOL    HW222708   1.696   9.819   3.015 -0.0319 -0.2816 -1.2813
37914SOL     OW22709  12.147   6.899   8.053 -0.3298 -0.2853 -0.5713
37914SOL    HW122710  12.173   6.980   8.010  1.6360 -0.0987  0.8606
37914SOL    HW222711  12.211   6.834   8.025 -0.4213 -0.7338  0.2167
37915SOL     OW22712   8.609   2.109  10.389 -0.3408 -0.1722 -0.0879
37915SOL    HW122713   8.536   2.151  10.344 -0.4490 -0.0438  0.2052
37915SOL    HW222714   8.568   2.050  10.451 -0.1949 -0.1299  0.0489
37916SOL     OW22715   0.751  10.310   6.694  0.5263 -0.5348  0.3472
37916SOL    HW122716   0.710  10.224   6.691  0.7035 -0.5988 -1.3715
37916SOL    HW222717   0.678  10.372   6.695  0.3944 -0.6707  1.8678
37917SOL     OW22718   5.684   3.381   3.327  0.3709 -0.2233 -0.1324
37917SOL    HW122719   5.626   3.330   3.383 -1.2979 -1.1132 -2.4793
37917SOL    HW222720   5.695   3.328   3.248  1.0358  1.7226 -1.4545
37918SOL     OW22721  11.998   6.705  12.305  0.2240 -0.2742  0.6155
37918SOL    HW122722  11.956   6.621  12.325  1.5990 -0.9755  0.6320
37918SOL    HW222723  12.045   6.729  12.385  1.3809 -0.4330 -0.0074
37919SOL     OW22724   4.707   3.642  11.938  0.3850 -0.4839 -0.1865
37919SOL    HW122725   4.683   3.618  11.848  0.2710 -1.2174  0.0294
37919SOL    HW222726   4.793   3.681  11.930 -0.3652  1.1206 -0.8303
37920SOL     OW22727  10.364  11.363   6.242 -0.5187 -0.6792 -0.7546
37920SOL    HW122728  10.300  11.393   6.307 -0.4293 -2.4291  0.2094
37920SOL    HW222729  10.420  11.439   6.227 -1.4200  0.1968  0.1354
37921SOL     OW22730   0.988   4.069   1.195 -0.0117  0.3017 -0.0726
37921SOL    HW122731   0.919   4.128   1.226  0.2793  1.5674 -1.7182
37921SOL    HW222732   0.942   3.991   1.166 -0.5297  0.2474  0.8380
37922SOL     OW22733   0.380   6.950   4.162  0.3203 -0.2580 -0.1916
37922SOL    HW122734   0.458   7.005   4.159  0.9324 -1.1215 -0.6320
37922SOL    HW222735   0.307   7.012   4.157  0.9694  0.4545 -3.0980
37923SOL     OW22736   8.168   2.564  10.814  0.4319  0.1523  0.0421
37923SOL    HW122737   8.094   2.532  10.866  0.6607  1.4135  1.2099
37923SOL    HW222738   8.140   2.553  10.723 -0.2004 -1.6052  0.4094
37924SOL     OW22739   0.345   3.117   1.369  0.5710 -0.5515  0.2656
37924SOL    HW122740   0.328   3.023   1.362 -2.0244 -0.0328 -2.2815
37924SOL    HW222741   0.374   3.143   1.282  1.3920  1.0252  0.9654
37925SOL     OW22742  10.014  12.379   4.343 -0.0959  0.0699 -0.4361
37925SOL    HW122743  10.106  12.367   4.367 -0.4952 -0.9825  0.6831
37925SOL    HW222744   9.990  12.297   4.299 -1.8606 -2.1509  4.0169
37926SOL     OW22745   9.532  11.568  10.075 -0.1401 -0.0428  0.2815
37926SOL    HW122746   9.497  11.540   9.990  0.7698 -2.3636  0.5895
37926SOL    HW222747   9.627  11.558  10.067  0.0042  0.2997  1.3643
37927SOL     OW22748   0.482   1.675   9.774  0.2185  0.4428  0.0524
37927SOL    HW122749   0.523   1.711   9.853 -1.2312 -1.8602  2.0119
37927SOL    HW222750   0.554   1.662   9.713  1.6218  0.9368  1.5463
37928SOL     OW22751   0.815   3.184   2.467 -0.4705  0.2650 -0.6974
37928SOL    HW122752   0.732   3.194   2.420 -0.5449 -1.1305 -0.9047
37928SOL    HW222753   0.855   3.106   2.429  1.1867  1.1900 -0.9505
37929SOL     OW22754   0.663   7.983  10.645 -0.0576 -0.2400 -0.5162
37929SOL    HW122755   0.649   7.970  10.738 -0.7477 -0.4829 -0.6483
37929SOL    HW222756   0.745   8.032  10.639  0.0766 -0.3779  0.2046
37930SOL     OW22757   7.332   1.811   6.138 -0.1155  0.2392 -0.3909
37930SOL    HW122758   7.364   1.890   6.181 -0.4474 -0.2084  0.7071
37930SOL    HW222759   7.282   1.765   6.206 -2.2261  0.4137 -1.7492
37931SOL     OW22760   1.499   5.188   4.754 -0.1745  0.2826  0.3549
37931SOL    HW122761   1.422   5.133   4.740 -0.1592 -0.1736  1.8779
37931SOL    HW222762   1.573   5.131   4.735 -0.1820  0.3276  0.1845
37932SOL     OW22763  12.359   2.064   6.655  0.8604  0.0131  0.1577
37932SOL    HW122764  12.421   2.015   6.709 -1.3416 -0.5784  2.2949
37932SOL    HW222765  12.322   2.129   6.714  0.8454  1.6924 -1.6146
37933SOL     OW22766   1.917  10.795   6.571 -0.2428 -0.2545  0.9987
37933SOL    HW122767   1.974  10.868   6.547 -1.0727 -0.1696 -0.9059
37933SOL    HW222768   1.839  10.836   6.608 -1.9976  0.1587 -2.7203
37934SOL     OW22769  10.525  11.881  10.639 -0.1238  0.5844  0.0588
37934SOL    HW122770  10.601  11.898  10.584 -0.9002 -1.0227 -1.6367
37934SOL    HW222771  10.561  11.846  10.721  1.0280  2.5218  0.4342
37935SOL     OW22772   1.709  10.276   3.055  0.1697  0.1628 -0.5871
37935SOL    HW122773   1.634  10.251   3.001  0.4776 -0.1531 -0.8817
37935SOL    HW222774   1.685  10.360   3.093 -0.5362 -0.1646 -0.2863
37936SOL     OW22775   1.743   2.852   5.351  0.2146  0.3805 -0.5616
37936SOL    HW122776   1.682   2.800   5.404  1.4636 -1.1159 -0.4917
37936SOL    HW222777   1.709   2.846   5.262  0.8542 -1.4943 -0.7337
37937SOL     OW22778   5.748  12.201   2.895 -0.2757 -0.2234 -0.0488
37937SOL    HW122779   5.835  12.219   2.931 -0.0269 -0.4928 -0.5125
37937SOL    HW222780   5.697  12.279   2.918 -0.2945 -0.6377  1.4143
37938SOL     OW22781   5.385   6.378   8.995  0.5071  0.4276  0.2384
37938SOL    HW122782   5.311   6.318   9.007  1.9252 -1.4167  0.0680
37938SOL    HW222783   5.410   6.368   8.903  1.9609 -0.1934  0.6714
37939SOL     OW22784   1.939   0.553   3.821 -0.2119  0.4929 -0.6309
37939SOL    HW122785   1.955   0.537   3.729  0.0949 -0.3879 -0.4311
37939SOL    HW222786   1.860   0.503   3.841  1.0354 -1.2715  0.1158
37940SOL     OW22787   2.485   4.142   1.186  0.4271  0.2557 -0.2207
37940SOL    HW122788   2.531   4.077   1.134  0.3278  0.5281 -0.6491
37940SOL    HW222789   2.489   4.223   1.135  0.6536  0.6211  0.3624
37941SOL     OW22790   8.863  11.641   2.664 -0.4328 -0.0305 -0.3418
37941SOL    HW122791   8.906  11.628   2.580 -1.6014 -1.8109 -0.7175
37941SOL    HW222792   8.930  11.680   2.720  0.6254  0.3557 -1.8295
37942SOL     OW22793   0.662   7.799   5.959 -0.3789  0.2458  0.0502
37942SOL    HW122794   0.674   7.885   5.999  1.3918  0.6857 -1.3114
37942SOL    HW222795   0.747   7.756   5.967 -1.5190 -1.9381  1.7822
37943SOL     OW22796   7.941  11.398   9.793  0.0060  0.2735 -0.4311
37943SOL    HW122797   7.846  11.385   9.789 -0.0755 -0.4179  2.1007
37943SOL    HW222798   7.951  11.491   9.816  0.0399  0.7142 -2.0887
37944SOL     OW22799   5.017   9.257   8.916 -0.0810 -0.6167  0.1496
37944SOL    HW122800   4.956   9.292   8.982  0.1053  0.2636 -0.1347
37944SOL    HW222801   4.977   9.280   8.832  0.3669 -0.5140 -0.0372
37945SOL     OW22802  10.859   6.262   7.166 -0.2974  0.1384  0.6911
37945SOL    HW122803  10.888   6.193   7.225 -0.0170  0.2637  0.7009
37945SOL    HW222804  10.852   6.340   7.221 -0.4438  0.1574  0.6451
37946SOL     OW22805   7.596   6.259   4.310 -0.7480 -0.4707  0.0483
37946SOL    HW122806   7.655   6.241   4.383  0.1534 -1.5390 -0.8974
37946SOL    HW222807   7.569   6.172   4.279 -1.9702 -0.0209 -0.2296
37947SOL     OW22808   8.751   7.506  10.495 -0.4219  0.9070 -0.4889
37947SOL    HW122809   8.747   7.564  10.571 -1.1474  2.7851 -1.8501
37947SOL    HW222810   8.743   7.566  10.420 -0.9353 -0.9627 -2.0013
37948SOL     OW22811   1.986   1.636   9.046  0.3747 -0.1562 -1.0549
37948SOL    HW122812   1.988   1.625   9.141  1.4555 -1.5914 -1.2129
37948SOL    HW222813   1.898   1.609   9.020  0.3408 -0.5315 -0.5522
37949SOL     OW22814   3.443   1.375  11.232 -0.0534  0.1467 -0.1500
37949SOL    HW122815   3.417   1.296  11.186  0.4928 -1.6738  2.4862
37949SOL    HW222816   3.362   1.411  11.267 -0.1281 -0.1021 -0.0704
37950SOL     OW22817  10.968  11.894   4.037  0.5134 -0.2804  0.3191
37950SOL    HW122818  11.005  11.925   3.955  0.2469  1.8637  0.9572
37950SOL    HW222819  11.022  11.935   4.105 -0.6782 -0.1648  1.2278
37951SOL     OW22820   8.765   2.271   2.064  0.3588  0.0498  0.1048
37951SOL    HW122821   8.680   2.314   2.055  0.6230  0.3668 -1.1214
37951SOL    HW222822   8.781   2.233   1.978  1.5398  0.1489  0.2686
37952SOL     OW22823   0.258   6.830   1.245 -0.3517 -0.6772  0.0193
37952SOL    HW122824   0.192   6.877   1.193  0.5915 -0.9685 -1.5171
37952SOL    HW222825   0.215   6.748   1.270 -1.2638  0.0340  0.8340
37953SOL     OW22826   0.133   1.386   5.051 -0.3079 -0.4804  0.2176
37953SOL    HW122827   0.052   1.335   5.057  0.2103 -1.3159  0.1843
37953SOL    HW222828   0.103   1.476   5.038 -1.2456 -0.6421  1.1339
37954SOL     OW22829   6.818  10.942   1.377 -0.7352  0.2008  0.2462
37954SOL    HW122830   6.828  10.992   1.458  0.2530  0.4076  0.0040
37954SOL    HW222831   6.810  10.851   1.406  0.7239  0.1452  0.5359
37955SOL     OW22832  11.521   3.279  12.029  0.2937 -0.0247  0.2758
37955SOL    HW122833  11.476   3.266  12.112  0.4753  0.7230  0.4999
37955SOL    HW222834  11.543   3.372  12.027  0.0546  0.0287 -0.7289
37956SOL     OW22835   5.273   9.062   7.497 -0.1555  0.2987 -0.5901
37956SOL    HW122836   5.248   8.989   7.439  0.3052 -0.0202 -0.3960
37956SOL    HW222837   5.359   9.037   7.530 -0.7328  0.1141  0.8227
37957SOL     OW22838   6.866   3.605   5.639 -0.2568 -0.3162  0.0791
37957SOL    HW122839   6.954   3.633   5.615  0.0852 -0.5058  1.0591
37957SOL    HW222840   6.810   3.640   5.570  0.3016  1.8232  0.6234
37958SOL     OW22841   1.588   9.215  11.683  0.2227  0.4087 -0.2763
37958SOL    HW122842   1.656   9.150  11.663 -0.5606 -0.2271 -0.8948
37958SOL    HW222843   1.559   9.193  11.772  0.0280 -0.0216 -0.4481
37959SOL     OW22844  10.918   1.214   4.164 -0.4762 -0.0458  0.1239
37959SOL    HW122845  10.951   1.264   4.239  0.8341 -1.0830  0.2728
37959SOL    HW222846  10.867   1.277   4.114  0.4427  1.2387  0.7442
37960SOL     OW22847   7.765  11.983   0.491  0.0522  0.3064  0.2699
37960SOL    HW122848   7.859  11.976   0.506 -0.1036  0.9503  1.6403
37960SOL    HW222849   7.727  11.993   0.578 -1.2796  0.1690 -0.2750
37961SOL     OW22850   3.893   0.605   3.210  0.1061  0.1777  0.1573
37961SOL    HW122851   3.804   0.604   3.246 -0.1108 -0.4019 -0.3882
37961SOL    HW222852   3.911   0.698   3.195 -0.4912  0.2840  0.0694
37962SOL     OW22853   1.504   9.120   9.924 -0.2655 -0.4913  0.3598
37962SOL    HW122854   1.586   9.099   9.880  0.3905 -0.2285  1.4123
37962SOL    HW222855   1.512   9.213   9.946 -1.7642  0.1215 -1.3944
37963SOL     OW22856   7.445   0.127   8.233 -0.2584 -0.4973  0.2735
37963SOL    HW122857   7.531   0.149   8.198 -0.9377  0.6850 -0.7290
37963SOL    HW222858   7.429   0.191   8.302 -1.8055  1.6991 -1.9636
37964SOL     OW22859   4.992   0.741   3.553 -0.3548 -0.5404  1.0328
37964SOL    HW122860   4.943   0.784   3.484  1.4177  0.2282  0.2065
37964SOL    HW222861   4.930   0.736   3.627 -2.0191 -0.6745 -0.3140
37965SOL     OW22862   7.536   1.558   8.454  0.0352 -0.8432  0.1303
37965SOL    HW122863   7.499   1.580   8.539  0.7845  0.1059  0.2377
37965SOL    HW222864   7.478   1.600   8.391  0.5269  0.0807  0.2702
37966SOL     OW22865   2.403  11.008   6.653  0.1466  0.2238 -0.3020
37966SOL    HW122866   2.411  11.074   6.584 -1.7653  0.8086 -0.0151
37966SOL    HW222867   2.361  10.934   6.610 -0.5970  0.4051  0.0873
37967SOL     OW22868   4.627   5.443   3.009 -0.1171 -0.0545 -0.1695
37967SOL    HW122869   4.540   5.479   2.990 -0.7999 -1.8714 -0.6458
37967SOL    HW222870   4.688   5.504   2.966 -1.2686  0.0116 -1.8008
37968SOL     OW22871   8.098   0.008   7.710 -0.1650  0.4176 -0.3695
37968SOL    HW122872   8.043  -0.010   7.786 -0.9895  1.2069 -0.7586
37968SOL    HW222873   8.182  -0.033   7.731 -0.2881  0.8549  1.0853
37969SOL     OW22874  11.004   6.453  12.090  0.0031 -0.1781  0.5111
37969SOL    HW122875  10.956   6.475  12.170  1.1983  0.9270  0.9568
37969SOL    HW222876  11.084   6.504  12.096  0.7561 -1.1791 -0.7258
37970SOL     OW22877  12.080  10.121  12.246  0.0661  0.5131 -0.0271
37970SOL    HW122878  12.052  10.212  12.250 -1.9928 -0.1137  2.8127
37970SOL    HW222879  12.175  10.126  12.234  0.1711  3.0628  1.2601
37971SOL     OW22880  10.088   5.701   8.801  0.3014 -0.1969 -0.1589
37971SOL    HW122881  10.145   5.768   8.764 -1.0517 -0.4852 -3.0176
37971SOL    HW222882  10.066   5.644   8.728 -3.9295  0.1086  0.6006
37972SOL     OW22883   7.457   1.474   9.404 -0.2108 -0.3255  0.3328
37972SOL    HW122884   7.444   1.390   9.361 -2.3895 -0.9029  1.9517
37972SOL    HW222885   7.552   1.484   9.410  0.2857 -0.4365 -3.9802
37973SOL     OW22886   8.598   4.094  11.850  0.3199  0.2428 -0.0313
37973SOL    HW122887   8.551   4.039  11.788  0.8082  0.0024 -0.1935
37973SOL    HW222888   8.669   4.133  11.799  0.7412  0.0230  0.3776
37974SOL     OW22889   7.824  10.728   2.779  0.3433 -0.0336  0.2384
37974SOL    HW122890   7.918  10.742   2.769  0.5057 -1.5335 -0.4693
37974SOL    HW222891   7.786  10.766   2.699  0.3719  0.2023  0.3342
37975SOL     OW22892  11.091   7.078   3.445  0.5641  0.8641 -0.0581
37975SOL    HW122893  11.049   7.067   3.359  1.0731  4.3342 -0.9104
37975SOL    HW222894  11.184   7.091   3.425  0.4865  3.2675  0.7532
37976SOL     OW22895   4.671   6.460   7.259  0.7107  0.1118 -0.3455
37976SOL    HW122896   4.764   6.466   7.238  1.0710 -0.4295  1.0096
37976SOL    HW222897   4.637   6.396   7.196  1.2282  0.3902 -0.9191
37977SOL     OW22898  10.133  11.944   2.127 -0.0877 -0.3258 -0.6136
37977SOL    HW122899  10.078  11.968   2.202  0.3378  1.0743 -0.7150
37977SOL    HW222900  10.122  11.849   2.118  0.5634 -0.7142  1.8078
37978SOL     OW22901  11.337   7.250   6.835  0.3537  0.2190  0.8153
37978SOL    HW122902  11.269   7.261   6.769  2.0008 -0.1212 -1.0360
37978SOL    HW222903  11.294   7.273   6.918 -1.8987  0.2663 -0.2882
37979SOL     OW22904   8.920   4.257   7.729 -0.4838  0.0965 -0.4407
37979SOL    HW122905   8.843   4.245   7.784 -1.0242 -1.7210 -1.5175
37979SOL    HW222906   8.894   4.325   7.666 -1.1576 -0.3899 -0.6966
37980SOL     OW22907   0.974   7.614   2.415 -0.1722 -0.2591  0.3000
37980SOL    HW122908   1.020   7.645   2.493 -1.0471  0.6064  0.4979
37980SOL    HW222909   0.881   7.615   2.439 -0.4602  0.0561 -0.7518
37981SOL     OW22910   6.546   1.564   7.934  0.9513 -0.1583  0.0312
37981SOL    HW122911   6.616   1.598   7.990  0.9204  0.8492 -0.5152
37981SOL    HW222912   6.500   1.642   7.902  0.3372 -0.7522 -0.5867
37982SOL     OW22913   9.787  10.145   7.860 -0.6150  0.6711 -0.4633
37982SOL    HW122914   9.734  10.207   7.910  0.1659  0.5757  0.5098
37982SOL    HW222915   9.783  10.064   7.911  1.4107  0.9855  0.3006
37983SOL     OW22916  11.322   0.850   3.876  0.7008 -0.1233 -0.4138
37983SOL    HW122917  11.279   0.932   3.852  0.0656 -0.4649 -0.4701
37983SOL    HW222918  11.379   0.831   3.802 -0.1695 -0.4218 -1.0268
37984SOL     OW22919  10.022  10.573   3.832 -0.0596 -0.4624  0.4474
37984SOL    HW122920  10.002  10.597   3.923 -0.0075 -2.2762  0.9701
37984SOL    HW222921   9.956  10.619   3.780  0.2578  1.0607  1.3165
37985SOL     OW22922   6.870   7.074   2.481 -0.2897  0.3254 -0.3291
37985SOL    HW122923   6.914   7.148   2.438 -0.2543 -0.2290 -1.2621
37985SOL    HW222924   6.839   7.019   2.409 -5.3151  2.1684  0.0005
37986SOL     OW22925   0.023   1.958   6.069  0.4305 -0.2417  0.6996
37986SOL    HW122926   0.075   1.912   6.135  1.4299 -0.7915 -0.4396
37986SOL    HW222927   0.042   1.912   5.987  0.2250  1.2196 -0.1971
37987SOL     OW22928   2.109   3.764   6.392  0.1629 -0.3904 -0.1722
37987SOL    HW122929   2.157   3.699   6.340  0.5977 -0.6233  0.5065
37987SOL    HW222930   2.017   3.745   6.376  0.2943 -0.6830 -0.5815
37988SOL     OW22931   6.916   3.396   0.299  0.4184 -0.5019 -0.1668
37988SOL    HW122932   6.979   3.338   0.341 -0.2170 -1.8025 -0.9278
37988SOL    HW222933   6.841   3.340   0.279 -1.4921  1.2007  1.6952
37989SOL     OW22934   4.566   9.459   5.474 -0.1709  0.5088 -0.6069
37989SOL    HW122935   4.554   9.373   5.515 -0.0776  1.4110  1.4327
37989SOL    HW222936   4.577   9.439   5.381 -0.3620 -1.6626 -0.2364
37990SOL     OW22937   2.023   1.146   5.040 -0.3257  0.3152 -0.7547
37990SOL    HW122938   1.999   1.096   5.118 -2.7107 -1.1643 -2.3148
37990SOL    HW222939   2.046   1.233   5.073 -0.6808 -0.4187  1.6148
37991SOL     OW22940   1.590   1.131  12.023 -0.4447 -0.9030  0.3672
37991SOL    HW122941   1.680   1.160  12.036 -0.3180 -0.4674 -1.3194
37991SOL    HW222942   1.584   1.049  12.073  0.3416 -0.0532  1.9458
37992SOL     OW22943   1.035   6.821   3.923 -0.3434 -0.6631 -0.6792
37992SOL    HW122944   1.092   6.791   3.852 -1.7961 -0.6549 -1.9079
37992SOL    HW222945   0.991   6.742   3.954 -0.5981 -0.5026 -0.6212
37993SOL     OW22946   8.678   2.597   6.910 -0.8226 -0.3374  0.2651
37993SOL    HW122947   8.723   2.661   6.965  0.5754 -0.5057 -0.6302
37993SOL    HW222948   8.710   2.614   6.821 -3.2828  0.1660 -0.6204
37994SOL     OW22949  12.138   4.644  10.481 -0.5899 -0.1630 -0.5201
37994SOL    HW122950  12.216   4.607  10.440  0.0060  0.2088  0.2732
37994SOL    HW222951  12.162   4.659  10.572 -0.6687  2.5101 -0.8590
37995SOL     OW22952   1.148   7.610   9.621 -0.0184  0.0337 -0.2090
37995SOL    HW122953   1.211   7.549   9.582 -1.3241 -1.9165  0.5817
37995SOL    HW222954   1.171   7.612   9.714 -0.2670  0.4029 -0.1542
37996SOL     OW22955  12.076   5.990  12.041  0.4148 -0.1378 -0.9186
37996SOL    HW122956  12.145   5.980  12.106 -2.3152 -1.2484  2.1112
37996SOL    HW222957  12.058   5.901  12.011  0.0321  0.0815 -1.3568
37997SOL     OW22958   4.993  11.328   0.951 -0.1523  0.2469 -0.4392
37997SOL    HW122959   4.918  11.287   0.907  1.3912 -1.1265 -1.9512
37997SOL    HW222960   5.057  11.343   0.881  0.6636  2.2254  0.6518
37998SOL     OW22961  10.623  11.285   2.347  0.4869  0.0832 -0.1082
37998SOL    HW122962  10.574  11.203   2.337 -0.2133  0.1996  1.8800
37998SOL    HW222963  10.582  11.345   2.284 -1.1981 -0.1739  0.6745
37999SOL     OW22964   6.787   7.076   7.965  0.5717  0.2395  0.5770
37999SOL    HW122965   6.790   7.171   7.950  0.7570 -0.1001 -1.9241
37999SOL    HW222966   6.850   7.062   8.036  2.4901  1.7506 -0.7000
38000SOL     OW22967   9.315  10.634   9.640  0.0295 -0.5166  0.3090
38000SOL    HW122968   9.322  10.591   9.555  1.1728  1.0196 -0.4251
38000SOL    HW222969   9.310  10.562   9.703  1.0600 -1.7104 -0.9118
38001SOL     OW22970  10.094   5.409   4.843 -0.5977 -0.1175  0.1109
38001SOL    HW122971  10.176   5.378   4.805 -0.4375 -0.8902  1.0397
38001SOL    HW222972  10.092   5.502   4.822 -0.1779 -0.3684 -1.1419
38002SOL     OW22973  11.729   2.762   8.572 -0.2697 -0.1516  0.2665
38002SOL    HW122974  11.744   2.831   8.507  0.6560 -0.0383  0.5905
38002SOL    HW222975  11.635   2.768   8.592 -0.4885  0.0821 -0.7415
38003SOL     OW22976   3.480   4.822   1.620  0.0187  0.1224 -0.4440
38003SOL    HW122977   3.524   4.737   1.620 -1.0444 -0.4754 -1.8528
38003SOL    HW222978   3.449   4.833   1.710  0.7975 -0.6396 -0.0649
38004SOL     OW22979   4.912   1.997  10.072 -0.2154 -0.4845  0.6366
38004SOL    HW122980   4.985   2.031  10.123 -0.7761 -0.2164  1.2736
38004SOL    HW222981   4.919   1.902  10.081 -1.2566 -0.4261  2.6223
38005SOL     OW22982   6.574  10.922   5.882  0.1961 -0.2613  0.5181
38005SOL    HW122983   6.584  10.999   5.825  0.7406  0.1944  1.2189
38005SOL    HW222984   6.645  10.863   5.854 -1.8446 -1.8032 -1.9471
38006SOL     OW22985   2.147   1.503   8.731  0.2403  0.0310  0.3929
38006SOL    HW122986   2.096   1.468   8.658  0.1885  0.4822  0.2101
38006SOL    HW222987   2.226   1.449   8.734  0.0192 -0.3006  0.3110
38007SOL     OW22988   6.986   3.732   3.419  0.0444 -0.1921 -0.3526
38007SOL    HW122989   6.924   3.693   3.481  0.9580 -0.0447  0.6870
38007SOL    HW222990   7.058   3.669   3.414 -0.2589 -0.4656 -1.7140
38008SOL     OW22991   9.663  10.170   9.802  0.1420  0.0590  0.2966
38008SOL    HW122992   9.619  10.092   9.768  1.6488 -0.4428 -0.6327
38008SOL    HW222993   9.690  10.218   9.724 -0.1414  1.1690  0.8577
38009SOL     OW22994   2.926   9.517   2.321 -0.6371  0.4924  0.4458
38009SOL    HW122995   2.993   9.465   2.366  0.6452  2.2815  0.7004
38009SOL    HW222996   2.920   9.477   2.234  0.6227  0.1480  0.4865
38010SOL     OW22997   6.689   0.392   3.144 -0.2556  0.2261 -0.3104
38010SOL    HW122998   6.669   0.412   3.236 -0.1159  0.7922 -0.4018
38010SOL    HW222999   6.645   0.460   3.094 -0.3898 -0.1235 -0.6744
38011SOL     OW23000   5.006   9.012   2.484  0.1422  0.6812 -1.1344
38011SOL    HW123001   5.100   9.011   2.505  0.1759  0.3458 -1.2962
38011SOL    HW223002   4.966   9.059   2.557  0.6260  2.3235 -1.8822
38012SOL     OW23003   3.562   9.324   2.679 -0.5715 -0.4414  0.2829
38012SOL    HW123004   3.603   9.279   2.753  0.0645 -0.3205  0.0101
38012SOL    HW223005   3.633   9.374   2.639 -0.7578 -1.0003 -0.7931
38013SOL     OW23006   0.900   5.532  10.504  0.1444  0.3366  0.2380
38013SOL    HW123007   0.857   5.478  10.569  1.8858 -2.1159 -0.5192
38013SOL    HW223008   0.858   5.509  10.421 -0.4206  1.6417  0.1374
38014SOL     OW23009   4.057  10.072   7.514 -0.5175 -0.1019  0.0251
38014SOL    HW123010   4.080  10.089   7.422  1.1370  1.4717  0.6754
38014SOL    HW223011   3.983  10.129   7.531 -0.5057 -0.0211 -0.1877
38015SOL     OW23012   2.887   7.900   4.646 -0.3224  0.0924  0.4035
38015SOL    HW123013   2.937   7.819   4.653 -0.7433 -0.1368  0.8182
38015SOL    HW223014   2.823   7.895   4.717 -0.2480  0.8609  0.5344
38016SOL     OW23015   6.465  11.600  10.780  0.2268  0.0579  0.0022
38016SOL    HW123016   6.538  11.542  10.802  0.5245  0.0865 -0.8380
38016SOL    HW223017   6.502  11.688  10.787 -0.3790  0.1949  1.8211
38017SOL     OW23018   6.045   3.066   5.383  0.5571 -0.7692 -0.7571
38017SOL    HW123019   6.114   3.101   5.326  1.5038  0.9184  1.2709
38017SOL    HW223020   5.998   3.144   5.413 -0.4228 -1.6729  0.1093
38018SOL     OW23021  11.682   6.307   1.476 -0.1037 -0.3122  0.2986
38018SOL    HW123022  11.688   6.220   1.434 -0.6940 -0.9464  1.4782
38018SOL    HW223023  11.627   6.292   1.553  1.2583  0.7475  1.5064
38019SOL     OW23024   6.933  12.510   4.084 -0.0665  0.2267 -0.0055
38019SOL    HW123025   6.895  12.588   4.044 -1.0918 -0.2777 -0.0320
38019SOL    HW223026   6.864  12.444   4.080  1.0671 -0.9574 -0.7656
38020SOL     OW23027   2.785  11.549   0.768  0.4632  0.5064 -0.7852
38020SOL    HW123028   2.843  11.486   0.726 -0.0137  1.2899 -2.7425
38020SOL    HW223029   2.749  11.503   0.844  0.9812 -1.1759 -1.5191
38021SOL     OW23030   6.567   2.039  11.994  0.3691  0.3876  0.2827
38021SOL    HW123031   6.661   2.026  12.007  0.5368  0.5552 -0.6635
38021SOL    HW223032   6.545   2.111  12.053  0.6674 -0.1836  1.1001
38022SOL     OW23033   3.978   1.666   3.676  0.1103 -0.1362 -0.1015
38022SOL    HW123034   4.054   1.664   3.735  0.6502  0.8702 -0.7338
38022SOL    HW223035   4.010   1.627   3.595 -0.4663 -0.9958  0.0798
38023SOL     OW23036   3.502   0.908   4.231  0.2622  0.2606  0.5410
38023SOL    HW123037   3.524   0.815   4.226  0.4612  0.3436 -0.3051
38023SOL    HW223038   3.587   0.953   4.231  0.1780  0.4376  1.3181
38024SOL     OW23039   3.403   3.823  11.179 -0.5468  0.4098  0.1254
38024SOL    HW123040   3.387   3.784  11.093 -0.3838  1.5925 -0.4661
38024SOL    HW223041   3.358   3.907  11.176  1.2060  1.4179  0.4032
38025SOL     OW23042   2.040   1.418  12.263 -0.4221 -0.1191  0.0780
38025SOL    HW123043   1.956   1.372  12.270 -0.5420  0.3461  3.2718
38025SOL    HW223044   2.105   1.349  12.249 -0.9248 -1.0201  1.8751
38026SOL     OW23045  11.411   6.856   4.875  0.3692 -0.1575 -0.3092
38026SOL    HW123046  11.373   6.940   4.850 -1.4865 -0.9762 -0.3512
38026SOL    HW223047  11.434   6.815   4.791  0.0317 -0.2602 -0.3497
38027SOL     OW23048   8.799   3.639   0.284 -0.4094 -0.1949 -0.2558
38027SOL    HW123049   8.816   3.560   0.336  0.4196 -0.6975 -1.2589
38027SOL    HW223050   8.706   3.634   0.264 -0.4622 -0.6877  0.0768
38028SOL     OW23051   8.960   6.550   0.763 -0.3304 -0.2682 -0.2149
38028SOL    HW123052   8.867   6.564   0.778 -0.2164 -1.2901  1.8150
38028SOL    HW223053   8.967   6.458   0.737  0.1142 -0.2561 -0.1534
38029SOL     OW23054   7.016   7.083   3.328 -0.3464 -0.6414  0.6204
38029SOL    HW123055   6.951   7.143   3.291  0.1553  1.4386  2.8420
38029SOL    HW223056   7.061   7.046   3.252 -3.4365 -1.4584 -0.9584
38030SOL     OW23057   5.474  11.901   7.864  0.8646 -0.0057 -0.2459
38030SOL    HW123058   5.402  11.963   7.870  0.2866 -0.6384 -0.4575
38030SOL    HW223059   5.468  11.866   7.775  0.6668 -0.9665  0.1312
38031SOL     OW23060   1.634   7.444  11.983 -1.1953  0.2923  0.1970
38031SOL    HW123061   1.661   7.518  11.928 -0.9752 -0.0145 -0.1130
38031SOL    HW223062   1.634   7.369  11.924  0.6855 -0.3694  0.9518
38032SOL     OW23063   8.796  11.534   6.063 -0.0320 -0.0011  0.4953
38032SOL    HW123064   8.798  11.565   5.972 -0.7936  0.4318  0.6141
38032SOL    HW223065   8.837  11.605   6.113  0.4759 -0.2824  0.4802
38033SOL     OW23066   9.044   8.446   0.016 -0.2620 -0.4743  0.2682
38033SOL    HW123067   9.021   8.392  -0.060 -0.0590 -2.2641  1.4314
38033SOL    HW223068   9.134   8.420   0.037  0.9528  2.4088 -0.8318
38034SOL     OW23069   8.121   5.319   4.445  0.0466  0.3625 -0.0640
38034SOL    HW123070   8.038   5.365   4.429 -0.4388  0.2475  1.8663
38034SOL    HW223071   8.187   5.388   4.448 -0.2280  0.6231 -0.0011
38035SOL     OW23072   6.998   7.161   4.049  0.9154 -0.5343 -0.7646
38035SOL    HW123073   6.953   7.173   3.965  1.2345 -1.3557 -1.0616
38035SOL    HW223074   6.930   7.127   4.107  0.9128 -0.8510 -0.9483
38036SOL     OW23075  10.192   4.612   3.773 -0.5801 -0.0944  0.4599
38036SOL    HW123076  10.257   4.565   3.824  0.9360 -4.4817 -4.5533
38036SOL    HW223077  10.108   4.574   3.800 -0.3533  0.6793  2.3428
38037SOL     OW23078   8.145   5.171   0.244  0.5373 -0.1215 -0.5290
38037SOL    HW123079   8.097   5.220   0.177 -0.6318 -1.0321 -0.3829
38037SOL    HW223080   8.126   5.217   0.326 -1.8767 -1.6408 -0.1370
38038SOL     OW23081  10.852   6.219  12.034 -0.0696  0.1124 -0.3103
38038SOL    HW123082  10.843   6.167  12.113 -1.1405  1.0676  0.2153
38038SOL    HW223083  10.906   6.293  12.060 -1.0572  0.8266 -0.2647
38039SOL     OW23084   8.148  10.868   3.967 -0.6104  0.1691 -0.2976
38039SOL    HW123085   8.211  10.880   4.038  1.2352 -0.6948 -1.7263
38039SOL    HW223086   8.079  10.813   4.006  0.6542 -0.7860  0.6761
38040SOL     OW23087   0.158   1.028   5.142  0.3543 -0.5374 -0.3839
38040SOL    HW123088   0.182   1.095   5.206 -2.3672 -0.2605  0.4719
38040SOL    HW223089   0.197   0.948   5.177 -1.5903 -0.5286  2.1053
38041SOL     OW23090   6.157   0.489   7.566  0.0783  0.0780 -0.0427
38041SOL    HW123091   6.160   0.482   7.662 -1.1279 -1.4708 -0.0702
38041SOL    HW223092   6.157   0.398   7.536  1.8822  0.5329 -1.6204
38042SOL     OW23093   9.194  10.342   4.345 -0.2923 -0.0834 -1.0048
38042SOL    HW123094   9.179  10.425   4.302 -1.0549  0.5936  0.4668
38042SOL    HW223095   9.266  10.301   4.297  0.9463  1.9787 -1.0047
38043SOL     OW23096   7.119   8.786   3.912 -0.7280  0.3180 -0.2112
38043SOL    HW123097   7.082   8.697   3.918  0.7738 -0.2595  1.6736
38043SOL    HW223098   7.206   8.778   3.951 -0.8966  2.8116  0.8442
38044SOL     OW23099  11.281   2.762   6.238  0.3639 -0.2835  0.0346
38044SOL    HW123100  11.219   2.697   6.206 -0.2651  0.3930 -0.1511
38044SOL    HW223101  11.319   2.800   6.158  2.7858 -2.2870  0.1059
38045SOL     OW23102   4.629   4.868   0.478 -0.5179  0.0488 -0.6445
38045SOL    HW123103   4.559   4.810   0.450 -0.3325 -1.1006  1.0661
38045SOL    HW223104   4.626   4.865   0.574  0.5479  1.6048 -0.5116
38046SOL     OW23105   6.181   0.111   9.008 -1.0653 -0.1418 -0.8143
38046SOL    HW123106   6.108   0.092   9.067 -0.3819  4.5526  2.0131
38046SOL    HW223107   6.151   0.184   8.954  1.2398  1.6088  0.1111
38047SOL     OW23108   9.392   7.737   3.665  0.3767 -0.1548 -0.3199
38047SOL    HW123109   9.393   7.831   3.645 -0.6605 -0.3454 -1.4066
38047SOL    HW223110   9.386   7.695   3.579 -0.5055 -1.1622  0.2133
38048SOL     OW23111   6.870   0.621  11.499 -0.5430  0.0171  0.4154
38048SOL    HW123112   6.835   0.710  11.493  0.4647  0.3446 -1.5693
38048SOL    HW223113   6.964   0.632  11.507 -0.2336 -0.8257 -1.5117
38049SOL     OW23114  12.495  11.660   8.719  0.1533  0.5168 -0.5896
38049SOL    HW123115  12.548  11.676   8.797  0.7613  0.0510 -0.8875
38049SOL    HW223116  12.406  11.652   8.751  0.5389 -0.9686  0.2515
38050SOL     OW23117  10.184   1.480  12.338  0.1535 -0.0135  0.6132
38050SOL    HW123118  10.142   1.566  12.337  0.6707  0.2427  0.3819
38050SOL    HW223119  10.274   1.497  12.311 -0.3697 -0.9445 -2.0789
38051SOL     OW23120   4.130   7.171  10.361  0.0944 -0.0127  0.0872
38051SOL    HW123121   4.210   7.172  10.413 -0.4865  0.6353  1.0047
38051SOL    HW223122   4.138   7.093  10.306  1.3311  0.0266  0.1898
38052SOL     OW23123   4.024   3.457  12.382  0.0535 -0.0687 -0.5536
38052SOL    HW123124   4.022   3.385  12.319 -0.7725  0.1539 -0.8035
38052SOL    HW223125   3.935   3.459  12.418  0.2000  0.5351 -0.2151
38053SOL     OW23126   6.267   3.813   4.523 -0.0781  0.1507 -0.3252
38053SOL    HW123127   6.323   3.797   4.599 -0.9914  1.5439  0.6945
38053SOL    HW223128   6.185   3.845   4.560 -1.9508 -2.6680 -1.7296
38054SOL     OW23129   9.420   1.415   2.180  0.2093  0.4670  0.0209
38054SOL    HW123130   9.383   1.360   2.110 -0.6111  1.2142 -0.1610
38054SOL    HW223131   9.396   1.370   2.261  1.4193 -0.5596 -0.1619
38055SOL     OW23132   9.756   0.464   8.887  0.3497  0.2700  0.0956
38055SOL    HW123133   9.845   0.480   8.857 -0.1993  0.1965 -1.7016
38055SOL    HW223134   9.704   0.534   8.848 -0.9425 -1.7563 -2.1036
38056SOL     OW23135   4.927   7.661   3.682 -0.3858  0.0023  0.9916
38056SOL    HW123136   4.978   7.648   3.762 -0.6818  1.1006  1.3764
38056SOL    HW223137   4.992   7.669   3.612 -0.1423 -1.6124  0.9978
38057SOL     OW23138   9.939  11.091   7.775  0.2805  0.1695 -0.1676
38057SOL    HW123139  10.017  11.053   7.816  0.8065  1.2893 -0.0994
38057SOL    HW223140   9.928  11.176   7.818 -0.9308  0.0602 -0.2391
38058SOL     OW23141   8.580   6.183   7.486  0.0952  0.0804  0.4821
38058SOL    HW123142   8.507   6.156   7.542 -0.1399 -2.0502 -0.7680
38058SOL    HW223143   8.656   6.138   7.523  0.7323  1.7795  1.3815
38059SOL     OW23144   4.195   1.003   7.151 -0.4137  0.6221  0.7964
38059SOL    HW123145   4.131   1.037   7.213 -1.1676  1.7091 -0.5198
38059SOL    HW223146   4.182   1.056   7.072 -0.4913 -1.6260 -0.7862
38060SOL     OW23147   8.879  12.006   1.521 -0.6187  0.0221 -0.2470
38060SOL    HW123148   8.821  12.069   1.563  0.5898  0.2707  1.1421
38060SOL    HW223149   8.954  12.058   1.492 -0.1304 -0.5974 -0.1223
38061SOL     OW23150   8.546   7.091  10.423  0.3716  0.3177  0.0060
38061SOL    HW123151   8.622   7.148  10.409  0.0053  0.5030 -1.3250
38061SOL    HW223152   8.577   7.003  10.402  0.4815  0.2506  0.4370
38062SOL     OW23153  11.240   7.512  10.606 -0.2189  1.0260 -0.3417
38062SOL    HW123154  11.194   7.588  10.572 -0.8345  0.1842 -1.4395
38062SOL    HW223155  11.299   7.485  10.535  1.1321  1.3762  0.6000
38063SOL     OW23156   7.854   1.354   2.521  0.1181  0.5281  0.1557
38063SOL    HW123157   7.911   1.300   2.466 -0.9408  1.0408 -1.5119
38063SOL    HW223158   7.784   1.294   2.548 -0.2399  0.6725 -0.4348
38064SOL     OW23159   0.858   1.771   1.460 -0.9844 -0.2097 -0.0514
38064SOL    HW123160   0.851   1.705   1.528  0.6289  1.7773  2.2026
38064SOL    HW223161   0.930   1.741   1.404 -2.0879 -1.6801 -0.7423
38065SOL     OW23162   7.285   9.248   5.620  0.4617 -0.0548  0.9582
38065SOL    HW123163   7.274   9.240   5.526 -0.8862  0.0025  1.0941
38065SOL    HW223164   7.218   9.310   5.648 -0.4315 -1.5005  2.1868
38066SOL     OW23165   1.901   2.877   1.986  0.5729  0.1580  0.0483
38066SOL    HW123166   1.852   2.795   1.987 -0.1514  0.5831  1.0130
38066SOL    HW223167   1.941   2.880   1.899 -1.1765 -0.1753 -0.8140
38067SOL     OW23168   5.661   9.427   7.799  0.0381  0.3506  0.0014
38067SOL    HW123169   5.644   9.342   7.841  0.7792  0.2578  0.1227
38067SOL    HW223170   5.684   9.485   7.871  1.3727  0.1763 -0.2646
38068SOL     OW23171   9.874   3.033  11.551 -0.1308  0.2095 -0.0716
38068SOL    HW123172   9.874   3.055  11.458  2.9097 -0.7124 -0.3890
38068SOL    HW223173   9.941   3.089  11.589  0.0176 -0.7800  1.1863
38069SOL     OW23174   8.789   2.494  10.843 -0.1513 -0.0061  0.3064
38069SOL    HW123175   8.760   2.462  10.928 -3.3335 -1.2737 -1.1223
38069SOL    HW223176   8.738   2.444  10.779  0.4813  2.4300 -2.3136
38070SOL     OW23177   1.172   5.138   4.738 -0.0756  0.1883 -0.3516
38070SOL    HW123178   1.103   5.072   4.733  0.2259 -0.2168  0.6116
38070SOL    HW223179   1.171   5.181   4.652 -1.6508  0.3206 -0.2925
38071SOL     OW23180  10.002   1.648  12.593  0.2699  0.1105 -0.1097
38071SOL    HW123181   9.925   1.703  12.609  0.6003  0.6324 -0.3217
38071SOL    HW223182   9.984   1.568  12.643 -0.4478  0.1919 -0.2240
38072SOL     OW23183   0.214  10.835   6.087 -0.0425 -0.3004 -0.0069
38072SOL    HW123184   0.291  10.818   6.141  0.2912 -1.9638 -0.9563
38072SOL    HW223185   0.240  10.908   6.030  1.1050 -1.3059 -0.8002
38073SOL     OW23186   1.570  11.709   3.141 -0.3574  0.4537 -0.3455
38073SOL    HW123187   1.513  11.663   3.203  0.3431 -1.1513 -0.8427
38073SOL    HW223188   1.597  11.788   3.187  0.4098 -0.8504  1.5452
38074SOL     OW23189  11.596   0.570   7.509 -0.0343  0.4349  0.1407
38074SOL    HW123190  11.616   0.554   7.601  0.4442  0.4576  0.0401
38074SOL    HW223191  11.658   0.637   7.481 -2.3019  2.9473  0.6762
38075SOL     OW23192  12.176   0.875   8.384 -0.0240  0.3573  0.4516
38075SOL    HW123193  12.100   0.857   8.328 -0.7743  1.8541  0.9523
38075SOL    HW223194  12.139   0.880   8.473  0.4322  2.3296  0.5633
38076SOL     OW23195  10.644   7.989   5.652 -0.1280 -0.2164  0.0496
38076SOL    HW123196  10.645   7.916   5.715  1.3816  0.0791  0.4180
38076SOL    HW223197  10.617   7.949   5.569  0.9338 -1.2806  0.1840
38077SOL     OW23198   8.970  12.051   2.041 -0.0408  0.3790  0.0536
38077SOL    HW123199   8.902  12.102   1.998 -0.1315  0.9081  0.8044
38077SOL    HW223200   8.969  11.966   1.996 -0.8649  0.5448 -0.2583
38078SOL     OW23201  10.010   1.339   5.652  0.0820  0.3449 -0.5402
38078SOL    HW123202  10.047   1.421   5.684  0.4657  0.0304 -0.1616
38078SOL    HW223203   9.932   1.324   5.705 -0.6963  1.0940 -1.4508
38079SOL     OW23204   7.321   9.998   7.531 -0.2555 -0.4436  0.1302
38079SOL    HW123205   7.375  10.063   7.485  0.5476 -2.9725 -2.9283
38079SOL    HW223206   7.355   9.997   7.620  3.2692 -0.2075 -1.0467
38080SOL     OW23207   4.924   1.360   4.601  0.0423 -0.5548  0.4637
38080SOL    HW123208   4.830   1.363   4.618  0.2044 -0.8939  1.5306
38080SOL    HW223209   4.933   1.310   4.520 -0.7921  1.1244 -0.7358
38081SOL     OW23210   5.667   8.324   4.797  0.0786 -0.3001  0.1771
38081SOL    HW123211   5.645   8.232   4.812 -0.1344 -0.0668  1.4344
38081SOL    HW223212   5.653   8.366   4.882  3.0646  0.3196  0.4632
38082SOL     OW23213  10.358   9.474  10.398 -0.0323  0.1251 -0.5072
38082SOL    HW123214  10.356   9.452  10.491 -0.9888  1.2080 -0.2486
38082SOL    HW223215  10.335   9.567  10.395 -0.2675  0.0401 -1.8518
38083SOL     OW23216   3.543   9.569   4.367  0.1354  0.3418  0.4303
38083SOL    HW123217   3.549   9.485   4.321  0.3436  1.4622 -1.6783
38083SOL    HW223218   3.450   9.590   4.366  0.4280  1.8173 -2.3139
38084SOL     OW23219   3.153   9.390   9.373  0.3741  0.2503  0.1390
38084SOL    HW123220   3.235   9.353   9.405  0.5503  0.4258 -0.1060
38084SOL    HW223221   3.171   9.412   9.282 -0.1585 -0.3387 -0.1139
38085SOL     OW23222   8.686   1.952   0.093  0.3298  0.3298 -0.0723
38085SOL    HW123223   8.706   1.920   0.005  0.7035 -1.2557  0.5571
38085SOL    HW223224   8.757   2.013   0.112  0.8360 -0.1265 -0.4658
38086SOL     OW23225   9.257   9.192   6.425 -0.2954  0.3088  0.5536
38086SOL    HW123226   9.227   9.278   6.455  0.6077  0.6253  0.5654
38086SOL    HW223227   9.275   9.204   6.332 -0.5316  0.0270  0.4708
38087SOL     OW23228  11.290   2.238   9.123  0.3991  0.3070 -0.5123
38087SOL    HW123229  11.234   2.272   9.054  1.4119  1.3675 -0.8519
38087SOL    HW223230  11.379   2.255   9.092  0.9925  3.9003  2.3853
38088SOL     OW23231  10.192   5.105   7.545 -0.1075 -0.1921  0.2300
38088SOL    HW123232  10.228   5.097   7.633  0.4971 -0.0914 -0.0067
38088SOL    HW223233  10.259   5.152   7.495 -0.8359  0.5721 -0.0531
38089SOL     OW23234   7.248   6.624  11.256 -0.1326  0.1289 -0.6443
38089SOL    HW123235   7.156   6.650  11.254 -0.2779 -0.4059 -1.0329
38089SOL    HW223236   7.257   6.572  11.336 -0.1945  0.0805 -0.6691
38090SOL     OW23237  10.983   6.913   4.909  0.2518  0.1121 -0.1428
38090SOL    HW123238  11.031   6.872   4.981  0.5326 -0.1598 -0.4869
38090SOL    HW223239  11.007   7.006   4.914  0.6123  0.0202 -0.1604
38091SOL     OW23240   1.286   0.306   6.702 -0.3996 -0.1943  0.5704
38091SOL    HW123241   1.272   0.238   6.636 -1.3531  0.7230 -0.2139
38091SOL    HW223242   1.379   0.302   6.721 -0.5174 -2.0296  0.9019
38092SOL     OW23243   1.021  11.716   5.083 -0.2892 -0.2781  0.4853
38092SOL    HW123244   0.929  11.743   5.085 -0.5662 -1.1671  2.2468
38092SOL    HW223245   1.046  11.712   5.175  1.3482 -0.6533  0.0499
38093SOL     OW23246   8.474   0.867   3.374 -0.3521 -0.1581 -0.3219
38093SOL    HW123247   8.551   0.811   3.362 -0.5755 -0.7068  0.7088
38093SOL    HW223248   8.493   0.945   3.321  1.1087 -0.0988  0.2323
38094SOL     OW23249   4.013   6.374   1.894  0.3233  0.5498  0.4353
38094SOL    HW123250   4.019   6.287   1.934  0.7015  0.8232  0.9900
38094SOL    HW223251   3.937   6.369   1.836  1.6658 -0.8676 -1.3193
38095SOL     OW23252   9.561   4.822   7.776  0.1125 -0.0294  0.7398
38095SOL    HW123253   9.621   4.853   7.708  0.3951 -0.0282  0.9938
38095SOL    HW223254   9.578   4.878   7.851  0.2056 -0.4139  1.0046
38096SOL     OW23255   1.469   9.579   1.297  0.6561 -0.0707 -0.0798
38096SOL    HW123256   1.516   9.660   1.317 -0.2967  0.7020 -0.8720
38096SOL    HW223257   1.462   9.579   1.202  0.4420 -0.9835 -0.0674
38097SOL     OW23258   3.172   4.485   5.087 -0.3431 -0.3424  0.0876
38097SOL    HW123259   3.174   4.546   5.160 -0.2886 -1.5544  1.1226
38097SOL    HW223260   3.252   4.503   5.038  0.1406 -0.2199  0.9076
38098SOL     OW23261  11.834   3.405   6.976 -0.0105  0.1656  0.8005
38098SOL    HW123262  11.855   3.497   6.960 -0.2412 -0.1501 -1.6580
38098SOL    HW223263  11.791   3.375   6.896  1.7512 -2.5849  0.7264
38099SOL     OW23264   8.215   4.320   7.887  0.0401 -0.1365  0.3887
38099SOL    HW123265   8.160   4.393   7.914 -0.4430 -1.3881  3.2140
38099SOL    HW223266   8.267   4.298   7.965  2.0102 -1.2442 -1.1099
38100SOL     OW23267   7.254   8.755   4.391  0.2880 -0.6554  0.7400
38100SOL    HW123268   7.289   8.692   4.454  2.2584  0.9462  1.3919
38100SOL    HW223269   7.329   8.813   4.372 -1.0337  0.6206 -0.8951
38101SOL     OW23270   4.428  11.000   6.465  0.1445 -0.4049  0.5785
38101SOL    HW123271   4.500  11.043   6.420  0.3289  2.2778  3.0991
38101SOL    HW223272   4.470  10.945   6.530 -0.0258  0.2275  1.2453
38102SOL     OW23273  10.376   0.419   5.983  1.3289 -0.1400 -0.3195
38102SOL    HW123274  10.400   0.500   6.029  3.0563 -1.1516  0.6550
38102SOL    HW223275  10.281   0.423   5.977  1.3141  1.6098  0.3796
38103SOL     OW23276   2.220   0.433   3.667  0.1974 -0.2587  0.0601
38103SOL    HW123277   2.252   0.358   3.717  1.0552  0.0404 -0.0207
38103SOL    HW223278   2.177   0.395   3.590 -0.0129 -0.6843  0.3853
38104SOL     OW23279   2.714   2.139   4.840 -0.2625 -0.0183 -0.0386
38104SOL    HW123280   2.764   2.220   4.824 -1.1022  0.6789  0.7384
38104SOL    HW223281   2.781   2.072   4.854  0.4504  0.4730 -1.0143
38105SOL     OW23282   8.962   9.528  12.090 -0.0034 -0.2776 -0.0723
38105SOL    HW123283   8.982   9.564  12.176  0.0393  0.6601 -0.4617
38105SOL    HW223284   9.024   9.572  12.031 -0.2022 -0.7198 -0.6203
38106SOL     OW23285   0.201   2.981  10.381 -0.0888  0.3258  0.5665
38106SOL    HW123286   0.221   2.945  10.294 -1.0887 -1.0104  0.8435
38106SOL    HW223287   0.229   3.072  10.377  1.8448 -0.2607 -0.4503
38107SOL     OW23288   1.882  11.855  11.672 -0.1671  0.4947 -0.3964
38107SOL    HW123289   1.868  11.937  11.720  2.3093  0.4794  0.4910
38107SOL    HW223290   1.832  11.790  11.722  0.7661  0.8414  1.0549
38108SOL     OW23291   5.743   0.304   7.810  0.7323 -0.0135 -0.4215
38108SOL    HW123292   5.825   0.255   7.801  0.7995 -0.1068  0.5789
38108SOL    HW223293   5.734   0.352   7.728  0.4732 -1.9830 -1.6283
38109SOL     OW23294   7.020  11.450  12.401 -0.5239  0.3829 -0.4867
38109SOL    HW123295   6.979  11.496  12.474 -0.0178 -0.9180  0.6403
38109SOL    HW223296   6.947  11.429  12.342 -1.5162 -1.7156  1.3819
38110SOL     OW23297  10.000   1.744  12.073 -0.1298  0.2556  0.5924
38110SOL    HW123298  10.023   1.762  11.982  0.1882  1.1328  0.8404
38110SOL    HW223299  10.059   1.799  12.124  0.7154 -1.3075  1.3876
38111SOL     OW23300   4.061   6.564   9.038 -0.4488  0.0665  0.1174
38111SOL    HW123301   4.109   6.644   9.062  0.6143 -0.9088  1.3917
38111SOL    HW223302   4.130   6.498   9.027 -1.1777 -0.4032 -2.2824
38112SOL     OW23303   0.955  11.232   6.244 -0.0411  0.6537 -0.5211
38112SOL    HW123304   0.915  11.177   6.177 -0.9141  1.0988 -0.3766
38112SOL    HW223305   0.910  11.207   6.325  1.0280  0.0911 -0.0836
38113SOL     OW23306  12.132   9.979   4.113 -0.2361  0.1169  0.4615
38113SOL    HW123307  12.056   9.966   4.170  0.5149 -1.0028  1.2534
38113SOL    HW223308  12.095   9.997   4.027 -1.3964  0.4585  1.0107
38114SOL     OW23309   2.164   1.440   4.189  0.2000 -0.6045 -0.4028
38114SOL    HW123310   2.079   1.398   4.198 -0.3964  0.3640 -1.2955
38114SOL    HW223311   2.215   1.408   4.264 -1.1171 -0.7807  0.4470
38115SOL     OW23312   2.619   6.022   9.791 -0.6812  0.1660 -0.7135
38115SOL    HW123313   2.630   6.112   9.822 -1.7632 -0.1952  0.8154
38115SOL    HW223314   2.708   5.990   9.778 -0.2052  0.7447  0.9332
38116SOL     OW23315  11.739   0.560  10.343  0.2070  0.1120 -0.6277
38116SOL    HW123316  11.716   0.621  10.413  0.8862 -0.2868 -0.0445
38116SOL    HW223317  11.709   0.603  10.263  1.5229  1.6568 -0.3381
38117SOL     OW23318   4.141   6.647   1.795 -0.3282 -0.3161 -0.3446
38117SOL    HW123319   4.095   6.675   1.716 -0.8678 -0.6267 -0.1459
38117SOL    HW223320   4.131   6.720   1.856  0.5051  0.1311 -0.7138
38118SOL     OW23321   3.107  10.436  10.389  0.2417 -0.2357  0.1052
38118SOL    HW123322   3.064  10.358  10.353 -0.9063  1.3601 -2.2792
38118SOL    HW223323   3.049  10.466  10.458  0.9139 -1.6569  1.3570
38119SOL     OW23324   9.546  12.291   9.359 -0.1606 -0.4419  0.8649
38119SOL    HW123325   9.541  12.320   9.450 -0.5249 -1.6738  1.2660
38119SOL    HW223326   9.486  12.216   9.355  0.6815 -1.0954 -0.1062
38120SOL     OW23327   5.736   0.848   9.405  0.5752  0.5198 -0.4093
38120SOL    HW123328   5.736   0.938   9.373  1.3415  0.9667  0.7846
38120SOL    HW223329   5.660   0.843   9.463  0.6973  0.4820 -0.2527
38121SOL     OW23330   9.809   8.200   9.130  0.0593  0.4905 -0.2140
38121SOL    HW123331   9.902   8.222   9.133  0.1670  0.0049  0.1572
38121SOL    HW223332   9.779   8.209   9.221  0.3579 -1.8666  0.2014
38122SOL     OW23333   4.286  12.467   0.615  0.3315  0.1494 -0.6702
38122SOL    HW123334   4.206  12.484   0.665  0.2272  0.1924 -0.8547
38122SOL    HW223335   4.354  12.457   0.682  0.2973  0.7616 -0.5432
38123SOL     OW23336  10.660  11.765  10.889  0.2454  0.3030 -0.0837
38123SOL    HW123337  10.666  11.817  10.969 -0.2594 -2.1268  1.6459
38123SOL    HW223338  10.749  11.735  10.873  0.3006  0.5783 -0.3027
38124SOL     OW23339   0.725   6.020   6.766 -0.0470 -0.0442 -0.1138
38124SOL    HW123340   0.755   5.932   6.745 -1.3662 -0.4047 -0.5463
38124SOL    HW223341   0.635   6.010   6.794  0.2771  0.9909  1.4681
38125SOL     OW23342   3.746   4.458   9.925 -0.0200 -0.3080 -0.3799
38125SOL    HW123343   3.751   4.369   9.960 -0.1602 -0.1029  0.1867
38125SOL    HW223344   3.706   4.508   9.996  1.3926  0.5016 -0.1139
38126SOL     OW23345   7.655   8.336   0.586 -0.1761 -0.2657 -0.6646
38126SOL    HW123346   7.686   8.411   0.536  0.4418 -0.6811 -0.9296
38126SOL    HW223347   7.575   8.366   0.628 -0.3865  0.2807 -1.4244
38127SOL     OW23348   2.863   2.738   0.370 -0.1629 -0.5758  0.2561
38127SOL    HW123349   2.877   2.724   0.464 -0.5243 -0.0351  0.3978
38127SOL    HW223350   2.908   2.665   0.328  1.3095 -0.0009  0.7667
38128SOL     OW23351   6.392   8.399   4.384  0.3217  0.6985 -0.3037
38128SOL    HW123352   6.319   8.436   4.434 -0.6203  0.0074 -1.1309
38128SOL    HW223353   6.419   8.322   4.433  0.5090  0.9543  0.0011
38129SOL     OW23354  10.226   2.713   2.836 -0.3043 -0.2687 -0.1158
38129SOL    HW123355  10.306   2.662   2.834 -0.8628 -1.1542 -0.8354
38129SOL    HW223356  10.178   2.680   2.912  1.4575  2.6574  2.5243
38130SOL     OW23357  10.297   7.796  11.713 -0.3140 -0.0803 -0.4958
38130SOL    HW123358  10.351   7.838  11.647 -0.3205 -0.5605 -0.8126
38130SOL    HW223359  10.216   7.847  11.714  0.7580  1.7136  1.1995
38131SOL     OW23360  10.349  10.062   8.826  0.1746  0.2382 -0.1960
38131SOL    HW123361  10.279  10.116   8.862 -2.7575 -3.6570  0.6378
38131SOL    HW223362  10.335  10.065   8.732 -1.8327 -1.1369 -0.0116
38132SOL     OW23363   8.531  10.447   1.339 -0.0691  0.0958 -0.6107
38132SOL    HW123364   8.582  10.392   1.279  1.3219  1.3313 -0.6270
38132SOL    HW223365   8.537  10.402   1.423 -0.3278 -0.6059 -0.9587
38133SOL     OW23366   3.630   4.214   1.766  0.2721  0.3606 -0.3702
38133SOL    HW123367   3.568   4.216   1.839  0.5892 -1.5691  0.0309
38133SOL    HW223368   3.712   4.247   1.804  0.3257 -0.2335  0.0455
38134SOL     OW23369  12.080   1.378  11.632 -0.5635  0.0674  0.4030
38134SOL    HW123370  12.175   1.384  11.621 -0.5633 -1.3990 -0.6895
38134SOL    HW223371  12.045   1.381  11.543 -1.3880 -1.3228  0.6528
38135SOL     OW23372   7.044   9.047   3.817 -0.6478  0.3904 -0.2014
38135SOL    HW123373   7.124   9.078   3.776 -0.7384 -0.2975 -0.9025
38135SOL    HW223374   7.063   8.958   3.845 -1.2637  0.1011 -0.6684
38136SOL     OW23375   9.359   5.083   3.734 -0.6201  0.2871 -0.0376
38136SOL    HW123376   9.437   5.082   3.789 -0.6805  0.5013  0.0552
38136SOL    HW223377   9.381   5.027   3.660 -0.3504  0.4006 -0.0463
38137SOL     OW23378  10.873   1.535  10.089  0.0753 -0.0937  0.4203
38137SOL    HW123379  10.884   1.553  10.183  0.7552 -0.4688  0.4229
38137SOL    HW223380  10.886   1.440  10.081 -0.4913 -0.1428  0.0106
38138SOL     OW23381   3.247   0.212   5.205  0.2305  0.6658 -0.4634
38138SOL    HW123382   3.264   0.118   5.195 -0.0839  0.5667 -0.0994
38138SOL    HW223383   3.240   0.245   5.115 -1.0937  0.0714 -0.5900
38139SOL     OW23384  11.777  12.586   2.391 -0.2721 -0.1903 -0.3327
38139SOL    HW123385  11.734  12.524   2.450  0.4652 -0.4622 -0.0798
38139SOL    HW223386  11.825  12.530   2.330  1.6813  0.1309  0.8480
38140SOL     OW23387   1.113   4.102   8.163  0.0500  0.2538  0.1971
38140SOL    HW123388   1.136   4.130   8.251  1.1264  0.5296 -0.1631
38140SOL    HW223389   1.188   4.051   8.132 -1.0680 -1.4529  0.1174
38141SOL     OW23390   3.023   4.075   2.468 -0.3021 -0.0690 -0.0925
38141SOL    HW123391   3.090   4.034   2.414  0.5655  0.5940  0.4516
38141SOL    HW223392   2.997   4.006   2.530 -0.8740 -0.6451 -0.9588
38142SOL     OW23393   1.297  10.759   5.871 -0.7926 -0.3782  0.0302
38142SOL    HW123394   1.353  10.722   5.939  1.0088  0.4357 -0.9450
38142SOL    HW223395   1.286  10.689   5.808  2.1487  0.3989 -1.5334
38143SOL     OW23396  11.736   3.283   0.225 -0.0119 -0.0387  0.1326
38143SOL    HW123397  11.671   3.291   0.295 -1.6346 -0.4620 -1.2295
38143SOL    HW223398  11.704   3.343   0.157  1.1996 -0.0549 -0.4672
38144SOL     OW23399   4.336   7.300   6.782 -0.3805  0.3237 -0.1167
38144SOL    HW123400   4.298   7.220   6.746 -1.1134  0.8405 -0.5241
38144SOL    HW223401   4.430   7.290   6.768 -0.4525 -0.4940 -0.0903
38145SOL     OW23402   2.944   2.940   1.974 -0.0160 -0.6971 -0.5322
38145SOL    HW123403   3.033   2.976   1.982  0.0178 -0.3053 -2.3309
38145SOL    HW223404   2.893   2.986   2.040  0.6084  0.8190 -1.0668
38146SOL     OW23405   4.571   4.247  11.460 -0.3133  0.3050 -0.2924
38146SOL    HW123406   4.631   4.230  11.387  0.3899  0.0384  0.3302
38146SOL    HW223407   4.519   4.322  11.431 -0.2210  0.0454 -1.1654
38147SOL     OW23408   8.517   7.008   6.669 -0.0307 -0.5482  0.1546
38147SOL    HW123409   8.566   7.012   6.587  1.6018 -2.4929  0.9519
38147SOL    HW223410   8.428   7.034   6.644  0.0612 -2.3174 -2.5474
38148SOL     OW23411   5.774   9.288   3.700  0.4882 -0.2741  0.0975
38148SOL    HW123412   5.858   9.316   3.736  0.5842  0.6862 -0.8068
38148SOL    HW223413   5.781   9.306   3.606  0.1694 -2.5107 -0.3965
38149SOL     OW23414   3.042   9.688   8.352  0.4149 -0.6542  0.2077
38149SOL    HW123415   3.059   9.729   8.437 -0.1750  0.1039 -0.0336
38149SOL    HW223416   3.093   9.740   8.290 -0.9340  0.2217 -0.2042
38150SOL     OW23417   9.577   1.280   6.792  0.2932 -0.1127 -0.0450
38150SOL    HW123418   9.543   1.357   6.746 -1.3792 -0.5410  0.4040
38150SOL    HW223419   9.668   1.273   6.762  0.1199  1.3017 -1.0390
38151SOL     OW23420   0.219   7.465   8.879 -0.0577  0.2897 -0.2557
38151SOL    HW123421   0.139   7.439   8.925  0.7592 -0.6736  0.6753
38151SOL    HW223422   0.191   7.535   8.820 -0.9289  2.7463  2.8000
38152SOL     OW23423   9.692   2.184   1.334  0.0584 -0.0480  0.0324
38152SOL    HW123424   9.740   2.122   1.279 -0.3582  0.5093 -0.9909
38152SOL    HW223425   9.679   2.261   1.278 -3.3124 -0.6980 -0.3289
38153SOL     OW23426  12.206   8.544  11.634 -0.1661 -0.0643 -0.2487
38153SOL    HW123427  12.293   8.580  11.617  0.2663 -0.5818  0.8069
38153SOL    HW223428  12.172   8.596  11.707  0.0838 -1.1406  0.6612
38154SOL     OW23429   6.179   3.070   4.025  0.2510  0.2609 -0.2049
38154SOL    HW123430   6.248   3.019   3.982  1.1535  2.0340 -1.0159
38154SOL    HW223431   6.101   3.016   4.020  1.0687 -0.8541 -1.3628
38155SOL     OW23432  10.361   0.013   7.026 -0.6002 -0.1866 -0.7645
38155SOL    HW123433  10.420  -0.025   7.091 -1.9919 -1.2381 -0.0620
38155SOL    HW223434  10.400   0.098   7.005 -0.5463  0.5979  2.0855
38156SOL     OW23435  11.427   3.685   5.180  0.0217  0.1276  0.3885
38156SOL    HW123436  11.464   3.670   5.093 -1.0942  1.9880 -0.4904
38156SOL    HW223437  11.501   3.675   5.240  0.6124 -2.1810 -0.6379
38157SOL     OW23438   5.405   9.462   4.307  0.2821  0.1884  0.1616
38157SOL    HW123439   5.389   9.516   4.384 -0.1500 -1.1763  1.0719
38157SOL    HW223440   5.354   9.383   4.322  1.0871 -0.5968 -1.0057
38158SOL     OW23441   8.816   1.456   3.221  0.0894 -0.4171  0.1246
38158SOL    HW123442   8.769   1.538   3.203  1.4897  0.0003 -1.9263
38158SOL    HW223443   8.753   1.387   3.197  0.0295  0.1119 -1.3193
38159SOL     OW23444   3.434   7.264   1.417 -0.7148 -0.5676 -0.1065
38159SOL    HW123445   3.437   7.357   1.394  0.4318 -0.6709 -0.4667
38159SOL    HW223446   3.505   7.225   1.366 -0.5152 -1.4615  0.8265
38160SOL     OW23447   4.075   8.395   9.656  0.0770  0.4300 -0.1372
38160SOL    HW123448   4.144   8.459   9.637  0.8331 -0.8733 -2.0470
38160SOL    HW223449   3.993   8.445   9.645  0.6274  1.8885  1.7623
38161SOL     OW23450   4.005  12.509   7.085  0.1295  0.1001  0.0006
38161SOL    HW123451   3.927  12.510   7.141 -0.0145 -0.3060 -0.1894
38161SOL    HW223452   4.010  12.598   7.049  0.2024  0.3558  0.6234
38162SOL     OW23453   9.429   2.885   3.298  0.5390 -0.0598 -0.1467
38162SOL    HW123454   9.489   2.825   3.342 -0.5316  0.3809  2.0872
38162SOL    HW223455   9.347   2.877   3.347 -0.3792  1.3790 -1.3510
38163SOL     OW23456   2.237   0.806   7.304 -0.6943 -0.3143 -0.2950
38163SOL    HW123457   2.248   0.901   7.296 -1.1989 -0.2690 -0.4588
38163SOL    HW223458   2.241   0.774   7.214 -0.8913 -0.4058 -0.2714
38164SOL     OW23459   9.295  11.883  10.145 -0.5072  0.1504  0.0246
38164SOL    HW123460   9.356  11.821  10.104 -0.2323  0.5476 -0.1714
38164SOL    HW223461   9.269  11.942  10.074  0.5944  1.3455  0.5625
38165SOL     OW23462  11.778   1.695  12.368 -0.2704  0.1349 -0.0753
38165SOL    HW123463  11.804   1.659  12.283 -0.9019  1.5276 -0.8893
38165SOL    HW223464  11.852   1.751  12.394 -0.2984  0.1208  0.0357
38166SOL     OW23465  11.320   9.525   9.530 -0.1469  0.0536  0.0555
38166SOL    HW123466  11.300   9.590   9.597  2.5131  0.2396  0.7977
38166SOL    HW223467  11.280   9.444   9.562 -1.7055  0.8403  0.1695
38167SOL     OW23468   8.372   2.007   8.659  0.3128  0.8079 -0.3134
38167SOL    HW123469   8.295   2.036   8.708 -0.1973 -0.0508 -0.5813
38167SOL    HW223470   8.445   2.016   8.721 -0.4698 -1.2529  1.0221
38168SOL     OW23471   1.040  11.232   1.477  0.1420  0.3835 -0.5275
38168SOL    HW123472   1.083  11.258   1.559 -1.0991  1.7699 -0.2820
38168SOL    HW223473   0.988  11.308   1.452 -0.0811 -0.2863 -2.2346
38169SOL     OW23474   9.053  12.255  12.317  0.2560 -0.2143  0.6218
38169SOL    HW123475   9.042  12.323  12.251 -2.5280 -1.2362 -0.0943
38169SOL    HW223476   9.083  12.179  12.267  1.2474 -0.1358  1.0794
38170SOL     OW23477   6.438   7.804  11.679 -0.4979  0.1895  0.3714
38170SOL    HW123478   6.451   7.832  11.589 -1.2390  1.3292  0.5904
38170SOL    HW223479   6.372   7.864  11.713 -1.4240 -1.2366  1.2028
38171SOL     OW23480   8.232   2.200   6.071 -0.0426 -0.2468  0.1460
38171SOL    HW123481   8.280   2.241   6.144 -0.6508 -1.2318  1.1289
38171SOL    HW223482   8.296   2.142   6.030 -0.2417 -1.2176  1.1703
38172SOL     OW23483   9.450   3.421   0.160  0.0066 -0.2060  0.0481
38172SOL    HW123484   9.438   3.513   0.184 -0.3091  0.0303 -0.9925
38172SOL    HW223485   9.386   3.405   0.091  0.5244 -1.0171 -0.2604
38173SOL     OW23486   0.620   6.314  11.687 -0.0823  0.1367  0.0059
38173SOL    HW123487   0.656   6.402  11.673  0.6958 -0.1818 -0.0436
38173SOL    HW223488   0.583   6.289  11.603 -0.2798  0.4094  0.0125
38174SOL     OW23489   3.948   4.690   1.179 -0.1930 -0.4799 -0.0120
38174SOL    HW123490   3.911   4.760   1.125 -0.4448  0.1648  0.9796
38174SOL    HW223491   3.994   4.735   1.250 -1.2076 -1.2924  1.2050
38175SOL     OW23492   6.677   5.402   8.170  0.2744 -0.0646  0.3698
38175SOL    HW123493   6.591   5.418   8.131  0.8035 -0.3299 -0.9590
38175SOL    HW223494   6.668   5.317   8.212 -0.0198 -0.2654 -0.0826
38176SOL     OW23495   2.627   0.954   8.669 -0.2361 -0.2367  0.2859
38176SOL    HW123496   2.616   0.898   8.593 -0.8680 -1.2958  1.1216
38176SOL    HW223497   2.623   1.043   8.635 -0.8940 -0.6877 -0.8568
38177SOL     OW23498   2.593   8.079   1.560 -0.7493  0.4711  0.7542
38177SOL    HW123499   2.636   8.142   1.618 -1.3580  0.9240  0.7266
38177SOL    HW223500   2.652   8.071   1.485 -1.5358  2.4817 -0.1542
38178SOL     OW23501   8.221   5.741   3.788 -0.1957 -0.7150 -0.0290
38178SOL    HW123502   8.292   5.765   3.729 -0.5284  0.1376 -0.0904
38178SOL    HW223503   8.214   5.645   3.780  0.0391 -0.6538 -1.0448
38179SOL     OW23504   9.669   2.561   2.096 -0.3059 -0.2289  0.4732
38179SOL    HW123505   9.673   2.478   2.142 -2.5069 -0.5561  0.2158
38179SOL    HW223506   9.731   2.553   2.024  1.6263 -0.5042  2.0894
38180SOL     OW23507   5.678   6.211  10.987  0.8521 -0.6076 -0.4281
38180SOL    HW123508   5.640   6.289  11.026  2.2651  0.9262 -1.9792
38180SOL    HW223509   5.645   6.211  10.896  2.1449 -0.9047 -0.9158
38181SOL     OW23510   8.049  10.754   7.861 -0.1734  0.2397 -1.2781
38181SOL    HW123511   8.100  10.673   7.855 -1.1632 -0.3465 -2.2659
38181SOL    HW223512   8.049  10.789   7.772 -0.7362  0.7006 -1.1029
38182SOL     OW23513   6.598   6.203   6.661  0.8461 -0.5625 -0.0028
38182SOL    HW123514   6.532   6.198   6.729  1.4048 -2.0086  0.4776
38182SOL    HW223515   6.550   6.185   6.580  0.3645  0.1348  0.1189
38183SOL     OW23516   5.079   2.808  10.893 -0.9742 -0.5287 -0.3037
38183SOL    HW123517   5.006   2.830  10.835 -0.2952 -0.6278 -1.2173
38183SOL    HW223518   5.050   2.730  10.939 -1.8822  0.0612  0.1557
38184SOL     OW23519   7.758   4.993   4.019  0.0392  0.1218  0.2357
38184SOL    HW123520   7.693   5.041   3.967 -0.2689 -0.6490 -0.0943
38184SOL    HW223521   7.710   4.918   4.054 -0.0113  1.0817  2.3741
38185SOL     OW23522   2.199  11.236   5.894 -0.7036 -0.9951 -0.3911
38185SOL    HW123523   2.180  11.298   5.824  0.1354  1.3883  1.3625
38185SOL    HW223524   2.291  11.212   5.881 -0.2556  0.2081  0.3841
38186SOL     OW23525   3.374   0.090   7.267  0.1414 -0.5512 -0.0240
38186SOL    HW123526   3.452   0.110   7.319  0.5201  0.3062 -0.9010
38186SOL    HW223527   3.384   0.141   7.187 -2.0891  0.8711  0.5152
38187SOL     OW23528  10.443   3.008   9.071 -0.1626 -0.5542  0.2558
38187SOL    HW123529  10.396   2.950   9.130  1.9443 -0.7959  1.8161
38187SOL    HW223530  10.425   2.974   8.983 -1.7650 -1.3983  0.8900
38188SOL     OW23531   9.065   8.970   2.099  0.5458 -0.2021  0.2769
38188SOL    HW123532   9.023   8.942   2.017  0.3283 -1.2618  0.7343
38188SOL    HW223533   8.993   8.993   2.157  0.6818  3.6998 -0.7847
38189SOL     OW23534   3.725   1.108  11.499 -0.1499  0.3266  0.2021
38189SOL    HW123535   3.660   1.058  11.549 -1.9425 -0.0040 -2.2790
38189SOL    HW223536   3.693   1.198  11.502 -0.3292  0.2860 -0.4129
38190SOL     OW23537  10.349   1.554   2.245  0.4202 -0.5507 -0.0501
38190SOL    HW123538  10.350   1.593   2.332  0.3376 -1.1168  0.2153
38190SOL    HW223539  10.395   1.470   2.257 -0.2103 -0.9516 -0.3850
38191SOL     OW23540   3.087  11.533   6.149  0.1999  0.0968 -0.0961
38191SOL    HW123541   3.045  11.535   6.235  0.2919  1.3738 -0.0656
38191SOL    HW223542   3.180  11.520   6.168  0.4607  2.0726  0.1130
38192SOL     OW23543   0.698   3.416   2.603  0.0941  1.0076  0.0999
38192SOL    HW123544   0.661   3.483   2.660  0.9491  2.0165 -0.4822
38192SOL    HW223545   0.627   3.393   2.543 -0.7609  0.0522  1.4315
38193SOL     OW23546   9.198   2.943   3.453  0.4626  0.5282  0.0741
38193SOL    HW123547   9.114   2.968   3.415  0.1723  0.5503  0.7122
38193SOL    HW223548   9.200   2.990   3.537  0.1709 -1.0911  1.0281
38194SOL     OW23549   3.734   6.419   8.361 -0.5769  0.3313 -0.2592
38194SOL    HW123550   3.771   6.377   8.284 -1.3371 -3.0529  1.0629
38194SOL    HW223551   3.810   6.439   8.416 -0.2204  0.3199 -0.7431
38195SOL     OW23552   5.476   5.967   5.004  0.2151  0.0096 -0.0469
38195SOL    HW123553   5.455   5.891   4.950  0.1450 -0.0824  0.1089
38195SOL    HW223554   5.557   5.943   5.048 -0.0645 -0.1709  0.3733
38196SOL     OW23555  11.172   3.631  11.626  0.2148 -0.3728  0.0895
38196SOL    HW123556  11.208   3.641  11.715 -1.8001 -0.7410  1.0111
38196SOL    HW223557  11.085   3.594  11.640  0.1327 -1.1586 -2.1169
38197SOL     OW23558   5.753  11.796   7.061  0.1076  0.4954  0.4366
38197SOL    HW123559   5.762  11.808   7.156  0.3000  1.4199  0.3124
38197SOL    HW223560   5.660  11.778   7.048  0.2584 -0.6386  0.8970
38198SOL     OW23561   9.101  11.960   0.445  0.2189 -0.0183  0.1002
38198SOL    HW123562   9.133  11.879   0.403  0.4146 -1.3347  2.5959
38198SOL    HW223563   9.013  11.937   0.476 -1.0221  1.7857 -1.7742
38199SOL     OW23564  11.936  11.245  10.847 -0.6615 -0.2114  0.1931
38199SOL    HW123565  11.879  11.181  10.804 -0.3127 -0.0987 -0.4587
38199SOL    HW223566  12.009  11.257  10.785 -0.4231  0.3648  0.5780
38200SOL     OW23567   7.630  10.185   4.716  0.0156 -0.0839  0.4928
38200SOL    HW123568   7.606  10.208   4.626  0.2633 -1.7104 -0.0116
38200SOL    HW223569   7.693  10.114   4.707 -2.2854 -2.5121  1.9577
38201SOL     OW23570   1.980  10.026   7.714  0.6339  0.1965 -0.2729
38201SOL    HW123571   1.898  10.056   7.675 -0.4638 -1.3966  0.6743
38201SOL    HW223572   1.983   9.932   7.693  1.5436 -0.0516  0.8520
38202SOL     OW23573   9.880   3.194   5.542 -0.0472  0.2738 -0.0900
38202SOL    HW123574   9.812   3.178   5.608  0.1083 -0.4806 -0.0988
38202SOL    HW223575   9.836   3.182   5.458  0.1107 -0.3384 -0.0946
38203SOL     OW23576   3.655   2.736   2.228 -0.1461  0.2709 -0.0806
38203SOL    HW123577   3.623   2.808   2.174 -0.2010  0.5907  0.3742
38203SOL    HW223578   3.608   2.745   2.311 -0.9707 -0.9463 -0.3990
38204SOL     OW23579   4.285  10.603  12.133  0.0909  0.4460  0.0231
38204SOL    HW123580   4.376  10.626  12.151  0.3487  0.6243 -1.4044
38204SOL    HW223581   4.287  10.562  12.046 -1.2080  0.6050 -0.1011
38205SOL     OW23582   9.432   4.170  11.544 -0.2334  0.2133  0.0749
38205SOL    HW123583   9.338   4.157  11.558 -0.1025 -0.1264  0.6503
38205SOL    HW223584   9.454   4.110  11.473 -0.1722 -0.7349  0.8854
38206SOL     OW23585   3.744   8.006   0.101 -0.2703 -0.2770 -0.0391
38206SOL    HW123586   3.713   8.071   0.165  0.1133  1.3433 -1.4411
38206SOL    HW223587   3.800   7.948   0.152 -1.8868 -0.5147  1.5942
38207SOL     OW23588  12.581   4.323   4.609 -0.1922  0.1013  0.4122
38207SOL    HW123589  12.577   4.399   4.551  1.4429  1.5477  2.0734
38207SOL    HW223590  12.515   4.340   4.676 -0.8345 -0.7015  0.0119
38208SOL     OW23591   3.498   1.408   3.235 -0.4472  0.6290 -0.5187
38208SOL    HW123592   3.471   1.478   3.294 -1.3299  0.4099 -0.6453
38208SOL    HW223593   3.425   1.346   3.237  1.0574 -1.2308  1.0577
38209SOL     OW23594   5.452   0.480   6.754  0.5212 -0.0805 -0.3266
38209SOL    HW123595   5.461   0.407   6.691 -4.2604 -1.3692  0.1135
38209SOL    HW223596   5.437   0.557   6.699 -0.5186 -0.6240 -0.8327
38210SOL     OW23597  10.745  11.874   8.684 -1.1854 -0.1928  0.1141
38210SOL    HW123598  10.785  11.904   8.602 -1.6352 -0.5727 -0.2518
38210SOL    HW223599  10.670  11.823   8.656 -1.7802  0.2968  0.7895
38211SOL     OW23600   4.281   5.758   1.550 -0.5078  0.5031 -0.2410
38211SOL    HW123601   4.192   5.724   1.551 -0.2876 -0.0734  0.9912
38211SOL    HW223602   4.309   5.748   1.459 -1.7681  0.9007 -0.6966
38212SOL     OW23603   7.969   5.513   7.988  0.2965  0.1758 -0.1795
38212SOL    HW123604   7.949   5.549   7.901  0.9640  3.1189  0.7729
38212SOL    HW223605   7.885   5.512   8.033  0.3259  0.9982 -0.0893
38213SOL     OW23606  10.334   2.383   4.538  0.0539 -0.2518  0.1551
38213SOL    HW123607  10.358   2.361   4.448 -0.6645 -1.4108  0.2216
38213SOL    HW223608  10.406   2.437   4.570  0.9879 -0.9631 -0.6777
38214SOL     OW23609   5.158   7.945   6.610 -0.2883 -0.3168  0.4992
38214SOL    HW123610   5.172   7.960   6.516  0.2861  0.4301  0.6946
38214SOL    HW223611   5.205   7.864   6.628 -0.9465 -0.8189  0.0155
38215SOL     OW23612   9.114   5.554   6.314  0.4382  0.6097  0.4830
38215SOL    HW123613   9.204   5.521   6.314  0.2180  0.0002  0.8065
38215SOL    HW223614   9.060   5.475   6.323 -0.0983  1.0635  1.3240
38216SOL     OW23615   2.426   2.358   3.275  0.0918 -0.4728 -0.1121
38216SOL    HW123616   2.515   2.364   3.311 -0.3191 -1.7768  1.2780
38216SOL    HW223617   2.390   2.445   3.286  0.7697 -0.2616  0.5844
38217SOL     OW23618   0.445   5.812   6.590 -0.3084 -0.2999 -0.3645
38217SOL    HW123619   0.511   5.787   6.525 -0.6707 -0.3815 -0.7008
38217SOL    HW223620   0.411   5.729   6.623 -0.7426 -0.2628 -0.7036
38218SOL     OW23621   5.184  12.015   7.655  0.9519  0.7074 -0.2647
38218SOL    HW123622   5.096  12.053   7.647  0.7516  0.1069 -1.0982
38218SOL    HW223623   5.242  12.083   7.620  1.3588  2.8230  3.8929
38219SOL     OW23624   8.977   7.594   2.828 -0.0614  0.3959 -0.4888
38219SOL    HW123625   8.891   7.554   2.812 -1.3287  2.6149  0.3199
38219SOL    HW223626   8.973   7.677   2.781  1.4038  0.8336  0.1228
38220SOL     OW23627   5.580  12.225   0.679  0.3353 -0.2951  0.0095
38220SOL    HW123628   5.585  12.135   0.709 -1.0392 -0.1261  0.7977
38220SOL    HW223629   5.530  12.220   0.597 -1.4781 -0.0822  1.0397
38221SOL     OW23630  11.391  10.931   5.083  0.0930 -0.2969 -0.4719
38221SOL    HW123631  11.350  10.983   5.152  0.3457  0.1519 -0.6541
38221SOL    HW223632  11.432  10.858   5.129  1.4506  0.7424  0.0163
38222SOL     OW23633   5.103   3.079   6.213  0.1465  0.2326 -0.6875
38222SOL    HW123634   5.171   3.013   6.201 -0.3753 -0.3898 -0.3031
38222SOL    HW223635   5.147   3.150   6.259  0.0912 -1.0567  1.5267
38223SOL     OW23636  11.339  10.247  11.817  0.1454  0.1450 -0.7574
38223SOL    HW123637  11.253  10.210  11.836  1.0425 -0.7606  2.1508
38223SOL    HW223638  11.323  10.317  11.754 -2.6507 -0.2473 -0.5763
38224SOL     OW23639   6.340   3.763  11.183 -0.5354  0.3770  0.7410
38224SOL    HW123640   6.359   3.670  11.178 -0.5114  0.3740  0.8785
38224SOL    HW223641   6.418   3.802  11.223  1.7075  1.1778 -3.8637
38225SOL     OW23642   6.557  12.375  10.048 -0.1893 -0.0903  0.6097
38225SOL    HW123643   6.645  12.382  10.009 -1.3289  1.8597 -1.9858
38225SOL    HW223644   6.561  12.433  10.124  0.8207 -0.0914  0.5825
38226SOL     OW23645   6.497   6.542   9.239 -0.9011 -0.0178 -0.1697
38226SOL    HW123646   6.519   6.472   9.179 -0.5630 -0.1713  0.1310
38226SOL    HW223647   6.548   6.524   9.318 -1.8829 -0.2240  0.4334
38227SOL     OW23648   5.290   7.968   7.563  0.0274  0.0837 -0.0794
38227SOL    HW123649   5.270   8.062   7.568  0.1069  0.0966  0.0047
38227SOL    HW223650   5.283   7.947   7.470 -0.3497  0.0943 -0.0559
38228SOL     OW23651   0.992   4.215   2.606  0.3108 -0.7553 -0.3911
38228SOL    HW123652   0.968   4.142   2.663  1.4950  0.4476  1.7569
38228SOL    HW223653   0.920   4.278   2.615  1.1042  0.0142  0.9094
38229SOL     OW23654   3.395   8.948   2.276 -0.3410 -0.1178 -0.1028
38229SOL    HW123655   3.416   8.855   2.266 -0.5115 -0.0633 -1.1524
38229SOL    HW223656   3.477   8.987   2.306 -0.0716 -0.5088 -0.3060
38230SOL     OW23657   1.746  11.575   1.364  0.4646  0.1271 -0.1757
38230SOL    HW123658   1.792  11.634   1.304  0.1954 -0.8381 -1.3612
38230SOL    HW223659   1.668  11.548   1.316  0.0524 -0.3783  0.7602
38231SOL     OW23660   5.377   3.823   1.971  0.5621 -0.1840  0.1829
38231SOL    HW123661   5.426   3.900   1.999  0.1392  0.1377  0.0522
38231SOL    HW223662   5.366   3.771   2.051 -1.4055  1.1569  0.8622
38232SOL     OW23663   8.566   9.546   9.881  0.7591  0.4292 -0.2539
38232SOL    HW123664   8.556   9.640   9.891 -1.2049  0.2686 -0.3802
38232SOL    HW223665   8.544   9.528   9.790 -1.4462 -0.3824  0.3642
38233SOL     OW23666   3.627  12.511   7.750 -0.1312 -0.3968  0.5555
38233SOL    HW123667   3.554  12.564   7.718  1.3776  0.7539 -1.2039
38233SOL    HW223668   3.632  12.532   7.843 -1.0143  0.8011  0.3657
38234SOL     OW23669  11.343  10.945   0.811  0.2120  0.2671 -0.0115
38234SOL    HW123670  11.408  11.001   0.769  0.3527 -0.0124 -0.1689
38234SOL    HW223671  11.299  10.899   0.739 -0.5941  0.9141  0.0506
38235SOL     OW23672   5.537   2.969   9.101  0.1470 -0.2773  0.9093
38235SOL    HW123673   5.566   3.034   9.166  0.0859  2.5889 -1.6588
38235SOL    HW223674   5.594   2.985   9.025 -2.5916 -0.3300 -1.2958
38236SOL     OW23675   7.291   9.338   2.213 -0.0597  0.0321  0.3710
38236SOL    HW123676   7.278   9.250   2.248  2.0077 -0.1349  0.8508
38236SOL    HW223677   7.224   9.346   2.145 -0.0709 -2.0723  0.0396
38237SOL     OW23678  12.084   3.790  12.337 -0.4345 -0.3232 -0.8366
38237SOL    HW123679  12.055   3.870  12.381 -3.9012 -2.7382  1.8237
38237SOL    HW223680  12.029   3.784  12.259  1.1756  0.7154 -2.1170
38238SOL     OW23681   6.783   6.389  12.281  0.0197 -0.5057  0.5779
38238SOL    HW123682   6.759   6.303  12.246 -0.2748 -0.3176  0.3099
38238SOL    HW223683   6.708   6.413  12.336 -0.5837  0.2398 -0.5321
38239SOL     OW23684   8.277   0.986   5.644  0.1113 -0.2898  0.1573
38239SOL    HW123685   8.305   0.918   5.583 -1.7239  0.9418 -2.2200
38239SOL    HW223686   8.271   1.065   5.592 -0.4124  1.1326  2.2268
38240SOL     OW23687   7.619  10.922   0.714 -0.1724 -0.5177 -0.1927
38240SOL    HW123688   7.659  10.839   0.741 -1.7438 -0.5171  2.5116
38240SOL    HW223689   7.655  10.987   0.774  0.9055  0.8279 -2.1689
38241SOL     OW23690   6.200   8.298   5.109  0.4013  0.4323  0.1500
38241SOL    HW123691   6.136   8.276   5.041  1.2236 -0.2447 -0.4276
38241SOL    HW223692   6.258   8.222   5.112  2.1289  1.6594 -0.4679
38242SOL     OW23693   8.844  12.534   4.220 -0.5093 -0.7056  0.2052
38242SOL    HW123694   8.857  12.530   4.315 -0.6206 -1.9038  0.1826
38242SOL    HW223695   8.910  12.474   4.184 -0.4248 -0.2118 -0.4816
38243SOL     OW23696  11.602   6.159  10.165  0.1826  0.2414  0.4921
38243SOL    HW123697  11.571   6.149  10.254  2.4165  1.2745  1.4628
38243SOL    HW223698  11.694   6.134  10.168  0.0199 -0.9653 -1.8337
38244SOL     OW23699   0.206   5.308   7.328 -0.6511  0.0802 -0.1657
38244SOL    HW123700   0.200   5.400   7.351  2.2353  0.3563 -0.1612
38244SOL    HW223701   0.232   5.264   7.409 -1.9809 -0.7659 -0.1730
38245SOL     OW23702   7.944   7.857   3.186 -0.4368 -0.4514  0.1013
38245SOL    HW123703   7.893   7.894   3.258  0.9624  0.9991  0.4147
38245SOL    HW223704   7.920   7.911   3.110 -0.0964 -0.3902  0.0368
38246SOL     OW23705   3.143   7.848   0.994 -0.0422  0.2705  0.8025
38246SOL    HW123706   3.175   7.759   1.004  1.1778  0.8466  2.5130
38246SOL    HW223707   3.222   7.901   0.979 -0.5859  1.2292  1.1978
38247SOL     OW23708   0.710   8.795   8.735  0.3016 -0.1620 -0.3584
38247SOL    HW123709   0.637   8.811   8.795 -0.1425 -1.6883 -0.4569
38247SOL    HW223710   0.789   8.816   8.787 -0.0854 -1.1635  0.6786
38248SOL     OW23711  10.431   0.486   0.217 -0.1883 -0.1018 -0.3099
38248SOL    HW123712  10.370   0.430   0.267  0.4607 -1.5559 -1.0793
38248SOL    HW223713  10.376   0.557   0.183 -0.9861 -0.0940  0.9416
38249SOL     OW23714  12.083   2.604   6.461 -0.0334  0.1890  0.4582
38249SOL    HW123715  12.042   2.620   6.546  0.2361 -0.2059  0.6638
38249SOL    HW223716  12.127   2.520   6.471  0.1841  0.2460 -0.0037
38250SOL     OW23717   7.015   3.043   1.756  0.0733  0.3473  1.0758
38250SOL    HW123718   7.045   3.040   1.847  2.6491  0.7776  0.3254
38250SOL    HW223719   7.044   2.960   1.718  0.3166  0.7787  0.2929
38251SOL     OW23720   1.459   0.463  10.559 -0.2596 -0.2509 -0.2077
38251SOL    HW123721   1.535   0.503  10.516 -0.0326 -1.5858 -1.0933
38251SOL    HW223722   1.417   0.411  10.490  0.1544 -2.5222  1.1866
38252SOL     OW23723   1.847   0.240   8.355  0.7164 -0.5290  0.4128
38252SOL    HW123724   1.816   0.260   8.444  0.3928 -1.2605  0.4697
38252SOL    HW223725   1.791   0.168   8.326 -0.1114  0.5854 -0.9111
38253SOL     OW23726   6.199   9.154   0.184  0.4196 -0.0325 -0.1288
38253SOL    HW123727   6.232   9.098   0.114  2.3115  1.1735 -0.2635
38253SOL    HW223728   6.156   9.227   0.140  0.4197  0.0476  0.0016
38254SOL     OW23729   6.168   8.324   5.527  0.2819  0.0776 -0.3061
38254SOL    HW123730   6.170   8.245   5.581 -1.4859 -0.8389 -1.4670
38254SOL    HW223731   6.137   8.393   5.586 -1.5314 -0.8799 -0.0667
38255SOL     OW23732  11.611   6.816   9.423  0.3832 -0.6465 -0.6755
38255SOL    HW123733  11.671   6.742   9.426  1.2553  0.0669  1.1063
38255SOL    HW223734  11.655   6.881   9.368  1.1988 -0.1880  0.4954
38256SOL     OW23735  10.433   1.004   5.359  0.6346 -0.5628 -0.1792
38256SOL    HW123736  10.407   0.956   5.438  1.1439  0.8926  0.9087
38256SOL    HW223737  10.507   0.954   5.324  1.7215 -0.1295  1.4197
38257SOL     OW23738  11.862  10.876   8.560 -0.1882 -0.0788 -0.3396
38257SOL    HW123739  11.908  10.960   8.555 -0.9300  0.3265 -0.4888
38257SOL    HW223740  11.923  10.818   8.606  0.5415  0.3910 -0.6966
38258SOL     OW23741   4.870   5.709   2.063 -0.4097  0.4569 -0.5775
38258SOL    HW123742   4.929   5.753   2.124  0.8878 -1.3692 -0.4366
38258SOL    HW223743   4.799   5.771   2.048 -0.5547  1.1355  2.4503
38259SOL     OW23744   3.383  10.844  12.118 -0.3721  0.2775 -0.2072
38259SOL    HW123745   3.467  10.875  12.152 -0.7314  0.6700  0.3538
38259SOL    HW223746   3.346  10.921  12.073  0.3387 -0.3834 -2.0114
38260SOL     OW23747   2.868   1.501  11.419 -0.3285 -0.6722 -0.1201
38260SOL    HW123748   2.902   1.582  11.455 -2.5083  1.2701 -2.0647
38260SOL    HW223749   2.946   1.452  11.393  1.0544  1.0479  0.5745
38261SOL     OW23750   5.534  11.475  10.633 -0.6427 -0.0012 -0.5869
38261SOL    HW123751   5.448  11.437  10.653  0.1607 -1.1266  1.0194
38261SOL    HW223752   5.535  11.559  10.679 -0.8094 -0.0735 -0.4528
38262SOL     OW23753   3.407   1.179   2.364  0.1015  0.0062 -0.0493
38262SOL    HW123754   3.388   1.221   2.280 -1.9735 -0.6905  0.0305
38262SOL    HW223755   3.503   1.179   2.369  0.2447  1.2571 -1.7843
38263SOL     OW23756   2.023  11.066   0.626 -0.3461  0.4436  0.3227
38263SOL    HW123757   1.990  11.061   0.716 -0.6004  1.9630  0.3393
38263SOL    HW223758   2.110  11.027   0.630 -0.6012 -0.0559  1.1042
38264SOL     OW23759   7.238   9.335   0.337  0.4763  0.0122  0.2131
38264SOL    HW123760   7.300   9.293   0.277  1.2644 -1.0657  1.7039
38264SOL    HW223761   7.293   9.368   0.409 -0.4305  1.2743  0.3612
38265SOL     OW23762   5.194   7.429  10.845 -0.2688 -0.5385 -0.5415
38265SOL    HW123763   5.265   7.390  10.793  1.0014  1.1921 -0.1984
38265SOL    HW223764   5.170   7.360  10.908  1.9311 -0.7987  0.1002
38266SOL     OW23765   3.997   1.257   7.512  0.0862  0.4757 -0.0473
38266SOL    HW123766   4.066   1.315   7.478  1.0508 -0.3315  0.4917
38266SOL    HW223767   3.916   1.301   7.487  0.7800  1.9042  0.0633
38267SOL     OW23768  12.212  10.794   3.402 -0.1306 -0.3093  0.1518
38267SOL    HW123769  12.153  10.728   3.438  0.4703 -1.5807 -1.0780
38267SOL    HW223770  12.204  10.869   3.461 -0.8971 -1.4540  1.5641
38268SOL     OW23771   4.447   9.435   6.469  0.2228 -1.1055  0.2920
38268SOL    HW123772   4.448   9.530   6.478  0.3290 -1.2600  2.1518
38268SOL    HW223773   4.369   9.406   6.516  0.2412 -1.9621 -0.1688
38269SOL     OW23774   1.305   2.121   1.225 -0.1636 -0.8369  0.0624
38269SOL    HW123775   1.396   2.145   1.239 -0.3260 -1.2203  1.9731
38269SOL    HW223776   1.258   2.204   1.226 -0.0124 -0.7565  0.5929
38270SOL     OW23777   3.240   6.329   3.747  0.2260  0.1950  0.2152
38270SOL    HW123778   3.146   6.338   3.762  0.5356  0.9122  2.0779
38270SOL    HW223779   3.250   6.243   3.708 -1.2773  0.4959 -0.9327
38271SOL     OW23780   3.346   7.092   6.860  0.5147 -0.3833 -0.1642
38271SOL    HW123781   3.322   7.018   6.917 -2.2260 -2.5758 -3.7181
38271SOL    HW223782   3.430   7.068   6.823  0.3674 -0.9489 -0.1344
38272SOL     OW23783   8.920   9.509   2.357  0.1480 -0.3767  0.3456
38272SOL    HW123784   8.955   9.574   2.418  1.2732 -1.9173  1.4031
38272SOL    HW223785   8.933   9.425   2.401 -1.8937 -1.2964 -0.6800
38273SOL     OW23786   2.964   5.542   3.672 -0.4833  0.5470 -0.2983
38273SOL    HW123787   2.948   5.631   3.642 -2.4443 -0.6376 -3.2050
38273SOL    HW223788   2.877   5.503   3.678  0.4097 -2.0070 -2.1687
38274SOL     OW23789   3.337   5.693   0.997  0.3500  0.4824 -0.2112
38274SOL    HW123790   3.254   5.649   0.980  0.5397  0.9242 -2.6848
38274SOL    HW223791   3.312   5.780   1.030 -0.2308  0.7762 -1.3692
38275SOL     OW23792  11.624   4.569   9.757  0.3327 -0.2863  0.1376
38275SOL    HW123793  11.590   4.550   9.844  1.5179 -1.8434  0.3056
38275SOL    HW223794  11.705   4.618   9.773 -0.7586  1.7282 -0.2000
38276SOL     OW23795   9.950  12.308   2.310  0.2956 -0.1409 -0.0305
38276SOL    HW123796   9.862  12.344   2.298 -0.0638 -1.1163 -0.4461
38276SOL    HW223797  10.000  12.379   2.350 -0.6427  0.4724  0.0846
38277SOL     OW23798  10.334   5.210   2.166  0.0494 -0.4306  0.0483
38277SOL    HW123799  10.272   5.137   2.168 -0.4031 -0.0789 -0.9062
38277SOL    HW223800  10.411   5.176   2.120 -0.4362 -0.1081 -1.0267
38278SOL     OW23801   5.332   5.876   0.390  0.2802  0.6658  0.3513
38278SOL    HW123802   5.289   5.878   0.475  0.6805 -0.7843  0.6194
38278SOL    HW223803   5.284   5.939   0.337 -3.3867 -1.9850  0.0993
38279SOL     OW23804   8.494  11.325   8.011  0.3006  0.1717 -0.6430
38279SOL    HW123805   8.507  11.231   8.003  1.6497  0.0610  1.8620
38279SOL    HW223806   8.576  11.364   7.981  0.3149  0.4529 -0.2511
38280SOL     OW23807   7.078   2.999   8.424  0.0422 -0.2997  0.3834
38280SOL    HW123808   7.098   2.911   8.391 -1.4618  0.4449 -2.9670
38280SOL    HW223809   7.163   3.040   8.437  0.7726 -1.0414 -1.7262
38281SOL     OW23810   6.983   0.365   9.524  0.2431  0.2681  0.6809
38281SOL    HW123811   6.982   0.421   9.446 -1.0393 -1.3653 -0.5628
38281SOL    HW223812   6.949   0.420   9.594  1.6864  1.8726  0.1937
38282SOL     OW23813  10.706   7.514  10.047  0.1832  0.5445  0.4296
38282SOL    HW123814  10.723   7.551   9.961  1.0277  1.9801  1.1744
38282SOL    HW223815  10.674   7.425  10.030  0.4559  0.7627 -1.3353
38283SOL     OW23816  11.218   3.544   0.586 -0.0067 -0.0688  0.0422
38283SOL    HW123817  11.285   3.494   0.632 -1.6100 -2.0414  0.3802
38283SOL    HW223818  11.223   3.632   0.623  0.6744 -0.8440  1.9071
38284SOL     OW23819   4.814   6.581   8.888  0.2582  1.0662  0.1598
38284SOL    HW123820   4.804   6.613   8.798 -0.9733 -1.4912 -0.7181
38284SOL    HW223821   4.902   6.544   8.890  1.0197  2.7927  0.6556
38285SOL     OW23822   4.415  12.337   5.592  0.6332 -0.0059  0.0708
38285SOL    HW123823   4.372  12.301   5.669 -0.5636 -0.2696 -0.6858
38285SOL    HW223824   4.502  12.363   5.622  0.1765 -0.0675  1.5067
38286SOL     OW23825   3.041   5.087   9.785  0.2698 -0.5694  0.2370
38286SOL    HW123826   3.125   5.107   9.742 -1.2690  0.6543 -2.4494
38286SOL    HW223827   3.000   5.173   9.798 -1.8297 -1.2781 -1.3033
38287SOL     OW23828   8.032   5.328   0.452  0.0021  0.0425 -0.0091
38287SOL    HW123829   7.942   5.348   0.426 -0.1832 -1.7924 -0.9022
38287SOL    HW223830   8.024   5.296   0.542 -0.1539  0.4431  0.1227
38288SOL     OW23831  11.310   8.589  11.439  0.7321 -0.1165 -0.2983
38288SOL    HW123832  11.387   8.629  11.400 -0.4936  2.8798  0.0563
38288SOL    HW223833  11.292   8.643  11.516 -1.7477 -0.6786 -0.4088
38289SOL     OW23834  11.046   5.655   0.617  0.4743 -0.1924 -0.1870
38289SOL    HW123835  11.065   5.569   0.579  3.1045 -0.4298  1.4034
38289SOL    HW223836  11.127   5.680   0.661 -0.9851  2.0203  1.4655
38290SOL     OW23837   8.710   5.560   4.375 -0.6967  0.5700 -0.2519
38290SOL    HW123838   8.791   5.604   4.347  1.2503 -2.4863  0.0369
38290SOL    HW223839   8.717   5.472   4.337 -3.5872 -0.0303  0.4074
38291SOL     OW23840   2.700   9.235   8.210  1.1365  0.4947 -0.0146
38291SOL    HW123841   2.641   9.256   8.138 -0.8093 -0.8088  1.1012
38291SOL    HW223842   2.656   9.268   8.288  3.2163  1.9200  0.6553
38292SOL     OW23843  11.071   8.225   8.115  0.1180 -0.1260 -0.0889
38292SOL    HW123844  10.989   8.273   8.130  0.0851  0.2758 -1.4750
38292SOL    HW223845  11.140   8.289   8.129  0.0563  0.5823 -2.5988
38293SOL     OW23846   7.971   0.894   4.488  0.0366 -0.5017 -0.4218
38293SOL    HW123847   7.886   0.892   4.445 -0.1803  3.0666 -0.4591
38293SOL    HW223848   8.028   0.842   4.431 -1.8458 -2.1524 -0.9080
38294SOL     OW23849   0.501  11.097   7.762  0.2065 -0.1219  0.6866
38294SOL    HW123850   0.522  11.039   7.835  2.3045  0.4933  0.6567
38294SOL    HW223851   0.575  11.087   7.701 -1.0468  0.0618 -0.9381
38295SOL     OW23852   2.237   1.870   0.906 -0.1534  0.0444 -0.1279
38295SOL    HW123853   2.230   1.889   0.813  0.5276  2.1992  0.2190
38295SOL    HW223854   2.190   1.787   0.916 -0.6639 -0.0008 -2.2887
38296SOL     OW23855   5.237   5.657   5.453  0.6173 -0.2850  0.0550
38296SOL    HW123856   5.313   5.618   5.409  0.2516 -0.0021 -0.8516
38296SOL    HW223857   5.249   5.636   5.546  1.4882 -0.7622 -0.1592
38297SOL     OW23858   9.780   1.417  11.736 -0.2897 -0.1301  0.3834
38297SOL    HW123859   9.729   1.360  11.793  0.4458  0.4539  1.6617
38297SOL    HW223860   9.724   1.429  11.658  0.3566 -4.1607 -0.9109
38298SOL     OW23861   0.172  10.602   0.360 -0.0027  0.5057  0.2001
38298SOL    HW123862   0.159  10.515   0.397  3.1264  0.2660  0.9985
38298SOL    HW223863   0.151  10.662   0.432  0.3498  0.2910  0.4855
38299SOL     OW23864   1.990   8.063   8.834  0.1698 -0.5862 -0.3678
38299SOL    HW123865   1.896   8.047   8.838 -0.0973  0.8267 -0.2734
38299SOL    HW223866   2.018   8.063   8.926  0.2053 -0.7579 -0.3794
38300SOL     OW23867   1.396   1.252   2.650  0.0065  0.2826 -0.0692
38300SOL    HW123868   1.310   1.251   2.609  0.6574  1.8702 -1.6487
38300SOL    HW223869   1.410   1.344   2.674  1.6296  0.2440 -0.7259
38301SOL     OW23870   5.268   0.925   3.379 -0.0136 -0.3091 -0.3019
38301SOL    HW123871   5.279   0.998   3.439 -0.4548 -0.2656 -0.2757
38301SOL    HW223872   5.288   0.962   3.292 -2.0197  0.3267 -0.5425
38302SOL     OW23873   1.678  12.076   7.845 -0.2798  0.4404  0.2449
38302SOL    HW123874   1.716  12.163   7.861  0.5051  0.2012 -0.2573
38302SOL    HW223875   1.754  12.019   7.835 -0.7958 -0.3001  0.5448
38303SOL     OW23876   0.590   3.526   9.332 -0.1170 -0.2929 -0.4242
38303SOL    HW123877   0.659   3.463   9.352  0.4435  0.6776  0.8041
38303SOL    HW223878   0.579   3.576   9.412 -0.6672  1.0503 -1.3040
38304SOL     OW23879   1.341  11.773   0.933 -0.3963 -0.4362  0.2910
38304SOL    HW123880   1.336  11.681   0.909  1.5898 -0.3519 -0.6451
38304SOL    HW223881   1.363  11.773   1.026 -2.0382 -0.8429  0.7165
38305SOL     OW23882   8.411   1.710   5.588 -0.4169  0.4606 -0.4754
38305SOL    HW123883   8.386   1.801   5.600  0.5719  0.7136 -0.1827
38305SOL    HW223884   8.333   1.659   5.611 -0.5361  1.1839  0.8094
38306SOL     OW23885   9.097   3.365   5.791 -0.0537  0.3766  0.8560
38306SOL    HW123886   9.041   3.442   5.789  0.8089  1.0027 -1.0635
38306SOL    HW223887   9.180   3.396   5.824  0.2441  0.2455  0.2443
38307SOL     OW23888   3.400   2.064  12.019 -0.1837 -0.1868  0.1193
38307SOL    HW123889   3.424   2.106  11.936 -0.1611  1.2070  0.7869
38307SOL    HW223890   3.481   2.027  12.052 -0.0072  0.0168 -0.0801
38308SOL     OW23891  10.202   5.434   5.863  0.0708 -0.3619  0.4169
38308SOL    HW123892  10.110   5.452   5.884  0.2988  1.0280  0.3285
38308SOL    HW223893  10.230   5.509   5.811  1.4545 -0.4256  1.0238
38309SOL     OW23894  10.172  11.780   4.131 -0.3961 -0.3478 -0.1602
38309SOL    HW123895  10.098  11.755   4.075 -0.8400  0.0919  0.2193
38309SOL    HW223896  10.167  11.875   4.136 -0.0975 -0.3511  0.2644
38310SOL     OW23897  10.601  11.177   2.008  0.0708  0.4019 -0.7484
38310SOL    HW123898  10.521  11.192   2.059 -0.3133 -1.8634 -0.5727
38310SOL    HW223899  10.570  11.161   1.919  0.5125  1.4537 -1.1025
38311SOL     OW23900  11.316  11.790   6.489 -0.7816 -0.1020 -0.5278
38311SOL    HW123901  11.339  11.707   6.530 -1.0619  0.0884  0.0348
38311SOL    HW223902  11.384  11.851   6.517 -1.1765  0.1195 -0.0138
38312SOL     OW23903   6.011  10.396   6.278  0.4191 -0.2990 -0.6974
38312SOL    HW123904   5.945  10.421   6.343 -0.1244  0.8813 -1.6802
38312SOL    HW223905   5.988  10.306   6.253  0.1899 -0.4937  0.1699
38313SOL     OW23906   3.989   7.257   9.506 -0.5871  0.5678 -0.0983
38313SOL    HW123907   4.070   7.206   9.502  0.6460  2.4293 -0.2771
38313SOL    HW223908   3.962   7.252   9.598 -0.0381  0.2656  0.0481
38314SOL     OW23909   0.452   0.445   6.299 -0.0110 -0.1816 -0.1468
38314SOL    HW123910   0.489   0.520   6.345  1.7356 -0.7798 -0.4650
38314SOL    HW223911   0.379   0.481   6.248  0.6760  1.2698 -0.1685
38315SOL     OW23912   6.211   6.255   8.952 -0.2213 -0.0078  0.1781
38315SOL    HW123913   6.186   6.335   9.000 -0.8176 -0.2793  0.3279
38315SOL    HW223914   6.220   6.284   8.861  1.7827  0.7050  0.5404
38316SOL     OW23915  12.027  10.606   0.714 -0.7480  0.5114  0.2533
38316SOL    HW123916  11.949  10.584   0.765 -0.1561 -0.3476  0.8253
38316SOL    HW223917  12.049  10.525   0.669 -0.0370  0.6659  0.3160
38317SOL     OW23918  10.243   3.138  10.330 -0.3237 -0.2714 -0.2440
38317SOL    HW123919  10.295   3.176  10.260 -0.7248 -0.1024 -0.4556
38317SOL    HW223920  10.163   3.191  10.332  0.0583  0.2872  0.9343
38318SOL     OW23921   0.460   4.491   3.151 -0.3850  0.4479  0.4942
38318SOL    HW123922   0.551   4.521   3.156 -0.5914  0.8780  2.8380
38318SOL    HW223923   0.438   4.497   3.059  2.0971 -0.0991 -0.2194
38319SOL     OW23924   3.902   4.935   9.376 -0.0936  0.4231 -0.1448
38319SOL    HW123925   3.914   5.029   9.389 -1.2721  0.5175  0.4342
38319SOL    HW223926   3.807   4.924   9.367  0.0132 -0.7252 -0.0580
38320SOL     OW23927   0.401   6.754   3.947 -0.1369  0.0443  0.1337
38320SOL    HW123928   0.315   6.717   3.967 -0.4301  0.1279 -0.8917
38320SOL    HW223929   0.403   6.837   3.996 -1.0723  0.5447 -0.6365
38321SOL     OW23930  12.557  10.262   6.410 -0.4771  0.0527 -0.3538
38321SOL    HW123931  12.575  10.208   6.334 -0.4006 -0.6944  0.1905
38321SOL    HW223932  12.575  10.351   6.380 -1.6580 -0.0786 -1.5918
38322SOL     OW23933   1.005   7.571   7.906 -0.1354  1.1822 -0.0252
38322SOL    HW123934   0.983   7.502   7.844 -2.1496 -0.4170  2.2634
38322SOL    HW223935   1.050   7.637   7.854  0.9098 -1.3263 -2.5528
38323SOL     OW23936   6.795   9.267   9.215 -0.2625  0.6545  0.5761
38323SOL    HW123937   6.790   9.351   9.169 -0.3353  1.9064  2.7565
38323SOL    HW223938   6.885   9.237   9.202  0.9924  3.0399  2.9367
38324SOL     OW23939  10.204   6.328  11.012  0.6266  0.1674  0.2049
38324SOL    HW123940  10.257   6.296  10.938  0.6410 -0.3356  0.4235
38324SOL    HW223941  10.221   6.422  11.016  1.2342  0.0668  0.0520
38325SOL     OW23942   3.242   2.256   3.040  0.4158  0.1983 -0.4967
38325SOL    HW123943   3.257   2.169   3.005  0.3807  0.5108 -1.3025
38325SOL    HW223944   3.289   2.257   3.124  0.6978 -0.4738 -0.6452
38326SOL     OW23945   9.229   9.162   3.080  0.2138  0.3425  0.3121
38326SOL    HW123946   9.216   9.184   3.172 -0.0102 -0.6451  0.5257
38326SOL    HW223947   9.172   9.224   3.033 -1.5269 -0.6774  0.9700
38327SOL     OW23948  10.174   3.847   2.672  0.0163 -0.2407  0.1241
38327SOL    HW123949  10.121   3.775   2.707 -0.1864  0.7083  1.8784
38327SOL    HW223950  10.264   3.823   2.693  0.2041 -1.1850 -1.6122
38328SOL     OW23951   9.326   6.427  11.845 -0.1037  0.7985 -0.4826
38328SOL    HW123952   9.261   6.431  11.916 -0.6576 -0.5633 -0.8770
38328SOL    HW223953   9.350   6.519  11.830  0.7501  1.0808  2.0852
38329SOL     OW23954   3.299   3.135  10.225 -0.1524  0.2128 -0.0863
38329SOL    HW123955   3.372   3.195  10.209 -0.2798  0.2970 -0.3496
38329SOL    HW223956   3.265   3.114  10.138 -1.8889  1.9622  0.1020
38330SOL     OW23957  12.165   8.875   8.073 -0.0530  0.4651 -0.4224
38330SOL    HW123958  12.094   8.935   8.050 -0.0889  0.3035 -0.7397
38330SOL    HW223959  12.173   8.817   7.997  1.0662  1.0928 -0.8051
38331SOL     OW23960   9.623   5.141  11.073  0.4301 -0.3317  0.2978
38331SOL    HW123961   9.634   5.229  11.037  0.9133  0.3675  2.0676
38331SOL    HW223962   9.542   5.109  11.034 -0.3793  1.3569  0.5006
38332SOL     OW23963   4.033   1.733   6.575 -0.4801 -0.2203 -0.4901
38332SOL    HW123964   4.063   1.738   6.665 -3.1817 -0.3938  0.5239
38332SOL    HW223965   4.058   1.645   6.546  0.5247 -0.1171  0.0115
38333SOL     OW23966   8.048   3.131   1.638  0.1751 -0.8200  0.3471
38333SOL    HW123967   8.107   3.095   1.705 -0.5532 -0.9011  0.9630
38333SOL    HW223968   7.962   3.095   1.661 -0.5168  1.0000  0.7779
38334SOL     OW23969   0.557   3.748   2.357 -0.5097 -0.2182 -0.1505
38334SOL    HW123970   0.465   3.767   2.340 -0.5810 -1.1052 -0.9005
38334SOL    HW223971   0.589   3.710   2.275  0.0434 -1.6265  0.6767
38335SOL     OW23972   0.087  11.282   0.959  0.1278  0.3061 -0.0139
38335SOL    HW123973   0.055  11.198   0.928 -0.1732  0.5218 -0.2974
38335SOL    HW223974   0.124  11.324   0.881  0.6979  0.2428  0.2208
38336SOL     OW23975   0.504   9.264  12.445  0.1323 -1.1305 -0.1019
38336SOL    HW123976   0.412   9.238  12.454 -0.4066  0.1388 -1.6040
38336SOL    HW223977   0.544   9.239  12.529 -1.8977 -0.3523  1.1810
38337SOL     OW23978  12.495   8.739   9.187 -0.6809  0.3827 -0.4583
38337SOL    HW123979  12.535   8.812   9.234 -1.4264  0.1617  0.5492
38337SOL    HW223980  12.569   8.685   9.158 -0.1877  0.7650  0.0609
38338SOL     OW23981   1.990   2.325   7.014  0.6022 -0.1994  0.1201
38338SOL    HW123982   2.005   2.420   7.020 -0.0511 -0.1246  0.7981
38338SOL    HW223983   1.900   2.313   7.045  0.4929 -0.9876 -0.4772
38339SOL     OW23984   3.960   3.727   2.056 -0.2783 -0.8808  0.1804
38339SOL    HW123985   4.035   3.671   2.037  1.9571  1.4460  1.4134
38339SOL    HW223986   3.965   3.742   2.150 -0.0253  2.2118 -0.2181
38340SOL     OW23987   9.669  10.440   3.164  0.3721  0.2491 -0.0492
38340SOL    HW123988   9.615  10.426   3.086 -0.8714  1.7204  0.4932
38340SOL    HW223989   9.689  10.352   3.195  0.5546 -0.3562 -1.7893
38341SOL     OW23990  11.915   7.148   7.059  0.1229 -0.3550  0.8031
38341SOL    HW123991  11.890   7.103   6.979  1.4009 -1.5153  1.0067
38341SOL    HW223992  11.919   7.241   7.035 -1.8680 -0.3861  0.1861
38342SOL     OW23993   4.720  10.274   3.175 -0.1352 -0.1760  0.0462
38342SOL    HW123994   4.704  10.183   3.200 -0.3756  0.2319  1.5101
38342SOL    HW223995   4.743  10.270   3.083 -1.7777 -1.5552 -0.3657
38343SOL     OW23996  11.859   1.544   0.231 -0.0988  0.0007 -0.0321
38343SOL    HW123997  11.953   1.558   0.245 -0.7519  1.5372  3.9770
38343SOL    HW223998  11.829   1.499   0.309 -2.9616  0.8507 -0.5182
38344SOL     OW23999   7.298   0.771   9.867 -0.0030  0.5208  0.4315
38344SOL    HW124000   7.303   0.839   9.800  0.0556  0.0686 -0.0293
38344SOL    HW224001   7.227   0.800   9.925 -1.3245  0.0220 -0.8653
38345SOL     OW24002   8.847   6.351   3.517  0.0427  0.0273 -0.1810
38345SOL    HW124003   8.857   6.445   3.531  0.0330 -0.1557  1.2000
38345SOL    HW224004   8.874   6.337   3.426 -2.3737  1.7030 -1.2382
38346SOL     OW24005   8.776   0.290  10.994 -0.1815 -0.8936 -0.2481
38346SOL    HW124006   8.848   0.306  11.056 -0.5220  0.2814 -0.1226
38346SOL    HW224007   8.816   0.305  10.908  0.1652 -2.0303 -0.3000
38347SOL     OW24008  12.313  11.115   0.144 -0.1483  0.0529  0.2764
38347SOL    HW124009  12.280  11.159   0.066  0.4242 -0.2251 -0.1239
38347SOL    HW224010  12.251  11.044   0.159 -1.6109  1.4848  1.4559
38348SOL     OW24011   3.670  10.797   4.140  0.0783 -0.4717  0.0266
38348SOL    HW124012   3.604  10.748   4.092 -1.9320  0.6523  1.4803
38348SOL    HW224013   3.653  10.889   4.117  0.2536 -0.0637  1.4156
38349SOL     OW24014   5.850   2.104   8.562 -0.6404  0.7605  0.5115
38349SOL    HW124015   5.832   2.117   8.655 -1.2222 -3.2273  1.1263
38349SOL    HW224016   5.944   2.089   8.558 -0.7207  0.1946  0.6117
38350SOL     OW24017   4.642   3.579   6.567  0.1293 -0.3435  0.2033
38350SOL    HW124018   4.635   3.562   6.661  2.8738 -1.2298  0.3255
38350SOL    HW224019   4.647   3.492   6.527 -0.4804  0.0331 -0.7406
38351SOL     OW24020   9.942   9.920  11.794  0.0697 -0.4043 -0.2057
38351SOL    HW124021   9.891   9.984  11.744 -1.0987 -0.8835  0.3331
38351SOL    HW224022   9.882   9.847  11.808  0.6763 -0.6914  1.0621
38352SOL     OW24023   9.001  10.607   8.321  0.1574  0.2395  0.2804
38352SOL    HW124024   9.046  10.671   8.375  0.6654  0.0503  0.0887
38352SOL    HW224025   8.909  10.612   8.349  0.6044 -0.7407  2.0263
38353SOL     OW24026   8.341  10.730   9.708  0.2044 -0.3450  0.3461
38353SOL    HW124027   8.420  10.727   9.654 -0.3499 -2.0288 -0.4400
38353SOL    HW224028   8.370  10.701   9.794  0.9009  1.4516  0.7751
38354SOL     OW24029   4.137  11.100   2.144  0.3959  0.5167  0.3146
38354SOL    HW124030   4.119  11.133   2.056  1.0387 -1.4919 -0.6364
38354SOL    HW224031   4.112  11.172   2.203 -0.8985  1.5794 -1.4425
38355SOL     OW24032   9.823   3.650  10.859  0.2103 -0.2771  0.6895
38355SOL    HW124033   9.757   3.646  10.790  0.4255 -1.3878  0.5320
38355SOL    HW224034   9.773   3.670  10.939 -0.6421 -2.9386  0.9189
38356SOL     OW24035   0.519  10.415   9.134  0.4484  0.2830 -0.0657
38356SOL    HW124036   0.523  10.345   9.069  0.2303  1.8561 -1.8428
38356SOL    HW224037   0.439  10.399   9.183 -0.3871  0.1073 -1.4499
38357SOL     OW24038   1.883   9.461   0.541 -0.1250  0.9123  0.3522
38357SOL    HW124039   1.822   9.501   0.603  0.8089  2.3289  0.3973
38357SOL    HW224040   1.969   9.472   0.581  0.2776 -0.1569 -0.1810
38358SOL     OW24041   2.207  11.904   4.631 -0.4270 -0.4965  0.0989
38358SOL    HW124042   2.128  11.955   4.648 -1.4339 -1.6832 -0.9216
38358SOL    HW224043   2.176  11.818   4.605  1.1883 -0.8378 -0.8468
38359SOL     OW24044   3.956   2.559  10.666 -0.2118 -0.2383  1.0009
38359SOL    HW124045   3.903   2.536  10.590  0.5176  2.0210 -0.2976
38359SOL    HW224046   4.012   2.484  10.680  0.9801 -0.0549 -1.9700
38360SOL     OW24047   4.916   1.162  11.775 -0.3619  0.0529 -0.0305
38360SOL    HW124048   4.887   1.073  11.753  2.3684 -0.8388 -0.4641
38360SOL    HW224049   4.920   1.207  11.690 -1.0315  0.3620  0.0998
38361SOL     OW24050   3.681   6.064   3.132 -0.4450 -0.2524  0.2345
38361SOL    HW124051   3.709   5.998   3.196 -0.8163 -2.2795 -1.5609
38361SOL    HW224052   3.614   6.114   3.177  0.3831 -0.5865  1.9308
38362SOL     OW24053   4.557   1.221   3.016  0.5449 -0.0799 -0.0336
38362SOL    HW124054   4.571   1.193   3.106  1.7514  0.1642 -0.1207
38362SOL    HW224055   4.594   1.310   3.013  0.3043  0.0033 -0.7037
38363SOL     OW24056   9.822   4.053   4.056  0.2580  0.5465  0.9073
38363SOL    HW124057   9.820   3.969   4.102 -0.6566 -0.9394 -1.6591
38363SOL    HW224058   9.732   4.084   4.057  0.4152  1.0159  0.9687
38364SOL     OW24059  11.766   2.863   7.312 -0.4407  0.2792 -0.1549
38364SOL    HW124060  11.758   2.862   7.216 -2.0262  0.4693 -0.0431
38364SOL    HW224061  11.843   2.809   7.330 -0.5840 -0.4210 -1.4923
38365SOL     OW24062   9.507   0.662   6.470 -0.3098 -0.5461  0.7960
38365SOL    HW124063   9.574   0.719   6.505  0.8063 -0.3594 -1.4554
38365SOL    HW224064   9.454   0.719   6.413 -0.6335 -1.2546  0.3691
38366SOL     OW24065  11.271   7.061  10.974 -0.3678 -1.1442 -0.6591
38366SOL    HW124066  11.334   7.093  10.909  0.6481  0.7751  1.1553
38366SOL    HW224067  11.305   7.092  11.057 -2.5881 -1.9806  0.6311
38367SOL     OW24068   7.949   7.724   3.695  0.0590 -0.1771  0.2783
38367SOL    HW124069   8.004   7.797   3.722  0.2481  0.0268 -0.6237
38367SOL    HW224070   7.982   7.649   3.745  2.0784 -0.3601 -1.1843
38368SOL     OW24071   7.819   1.501   2.740 -0.0430 -0.5649 -0.4845
38368SOL    HW124072   7.836   1.443   2.814  0.0825 -0.8544 -0.7371
38368SOL    HW224073   7.818   1.443   2.664 -0.7801 -0.3506 -0.6381
38369SOL     OW24074   2.306   5.065   7.578  0.1221 -0.1835  0.5202
38369SOL    HW124075   2.337   4.998   7.639 -0.5395 -0.1537  0.8996
38369SOL    HW224076   2.383   5.087   7.525  1.1362  0.8631  2.3178
38370SOL     OW24077   9.641   6.833   5.894 -0.3451  0.0024 -0.2248
38370SOL    HW124078   9.722   6.843   5.843  1.1731  0.4473  2.1133
38370SOL    HW224079   9.666   6.778   5.969 -2.4326 -0.5007  0.1747
38371SOL     OW24080   3.604   1.662  11.742  0.1601  0.5098 -0.2624
38371SOL    HW124081   3.572   1.651  11.832  1.0469 -0.8183 -0.0911
38371SOL    HW224082   3.526   1.685  11.692 -0.7631 -0.8620  0.4758
38372SOL     OW24083   1.002   8.482   2.878 -0.0652  0.5718 -0.4536
38372SOL    HW124084   1.067   8.481   2.948  0.8954  0.3632 -1.3283
38372SOL    HW224085   0.924   8.522   2.918  1.0437  2.1402  0.2026
38373SOL     OW24086   6.917  12.085   3.118 -0.5080  0.0714 -0.0843
38373SOL    HW124087   6.864  12.162   3.098  0.0774  0.8139  1.0548
38373SOL    HW224088   6.977  12.115   3.187 -0.0318 -1.3141  0.1402
38374SOL     OW24089   5.384   9.225   1.085  0.5067  0.2856  0.2771
38374SOL    HW124090   5.456   9.286   1.102 -0.1330  1.2813 -0.4762
38374SOL    HW224091   5.375   9.176   1.167  0.9822  1.2691  0.9485
38375SOL     OW24092   0.200   4.754   3.680 -0.0879 -0.1237 -0.2777
38375SOL    HW124093   0.241   4.834   3.647  1.0931 -0.7895 -0.4962
38375SOL    HW224094   0.158   4.715   3.604 -0.2843  0.0652 -0.2661
38376SOL     OW24095   7.129  12.342   0.844  0.0093  0.3046  0.4352
38376SOL    HW124096   7.043  12.345   0.886  0.5982 -0.3841  1.7586
38376SOL    HW224097   7.111  12.314   0.755 -1.3696  2.6099 -0.0904
38377SOL     OW24098   3.528   8.078   0.520 -0.2423 -0.6124  0.4030
38377SOL    HW124099   3.612   8.066   0.476 -0.5801  1.4764 -0.9715
38377SOL    HW224100   3.549   8.077   0.613  1.2825 -0.2810  0.0780
38378SOL     OW24101   3.985   4.069   9.045  0.9625 -0.7470  0.1364
38378SOL    HW124102   4.025   4.046   9.129 -0.4625 -0.7911  0.8359
38378SOL    HW224103   3.891   4.063   9.061  0.6124  1.1516 -0.9285
38379SOL     OW24104   7.165   7.284   2.946  0.1283  0.0941 -0.3821
38379SOL    HW124105   7.147   7.320   2.859 -0.3393  1.9968  0.4520
38379SOL    HW224106   7.138   7.353   3.007  2.0625 -0.4704  1.2233
38380SOL     OW24107   9.277  11.610   1.045 -0.8630  0.0281  0.3250
38380SOL    HW124108   9.279  11.693   1.091 -0.6602  0.4187 -0.3780
38380SOL    HW224109   9.307  11.546   1.110  1.8620  0.9048  0.0549
38381SOL     OW24110   1.148  10.492   2.903  0.0291  0.3353 -0.1797
38381SOL    HW124111   1.100  10.424   2.856 -0.5589  1.3200 -1.0418
38381SOL    HW224112   1.178  10.449   2.983 -1.0483 -0.7063 -0.3051
38382SOL     OW24113   4.933   9.393   3.498 -0.1741 -0.2412 -0.0809
38382SOL    HW124114   5.009   9.392   3.555 -0.2892  0.6918  0.1123
38382SOL    HW224115   4.881   9.468   3.528 -1.1259 -0.8035 -0.2632
38383SOL     OW24116   0.272   0.189   4.817  0.4726  0.4214  0.0121
38383SOL    HW124117   0.290   0.282   4.830  2.3990  0.2194 -0.9481
38383SOL    HW224118   0.347   0.156   4.768 -0.0776 -1.6980  0.4916
38384SOL     OW24119  11.007   6.697  10.938  0.3301  0.3216  0.2166
38384SOL    HW124120  10.972   6.615  10.971  0.2998 -0.5377 -1.7800
38384SOL    HW224121  10.994   6.760  11.009 -1.5001 -0.9168  1.0463
38385SOL     OW24122   6.133   5.328  11.755 -0.5337 -0.6839 -0.1731
38385SOL    HW124123   6.217   5.358  11.721  0.0597 -0.3821  1.4499
38385SOL    HW224124   6.067   5.380  11.708  0.4019  2.4926  1.7313
38386SOL     OW24125  11.259   3.879  12.360 -0.3241 -0.1522  0.0275
38386SOL    HW124126  11.251   3.868  12.266 -1.7123  1.5589 -0.1147
38386SOL    HW224127  11.353   3.892  12.375  0.0280 -1.4450 -0.9677
38387SOL     OW24128   8.366   1.098   4.427  0.3478 -0.2055  0.5828
38387SOL    HW124129   8.382   1.049   4.347 -1.1984 -3.8823  2.2649
38387SOL    HW224130   8.273   1.119   4.424  0.4132  0.1904  1.1458
38388SOL     OW24131   9.871   1.295   4.022  0.1078 -0.4593  0.8557
38388SOL    HW124132   9.811   1.351   4.072 -1.7604 -1.0246 -0.6077
38388SOL    HW224133   9.898   1.228   4.084 -0.7649 -0.1482  1.6005
38389SOL     OW24134   9.578   7.109   2.861 -0.3549  0.0748 -0.1468
38389SOL    HW124135   9.666   7.132   2.891 -0.7145  1.3633 -0.0438
38389SOL    HW224136   9.563   7.021   2.896  1.2134 -0.5160 -0.8765
38390SOL     OW24137   8.446   2.282   0.417  0.1739 -0.2112 -0.0646
38390SOL    HW124138   8.431   2.195   0.381  1.5065 -0.8679  0.8873
38390SOL    HW224139   8.402   2.281   0.502 -0.8746  0.5061 -0.5630
38391SOL     OW24140   5.607   0.454   8.477 -0.4051 -0.4290 -0.0053
38391SOL    HW124141   5.648   0.369   8.464 -1.9802 -1.1564 -0.4355
38391SOL    HW224142   5.514   0.435   8.487 -0.5231  0.9943  2.5924
38392SOL     OW24143   4.560   7.501  10.171  0.2899  0.2092  0.6577
38392SOL    HW124144   4.505   7.450  10.112  0.5315  0.4739  0.1951
38392SOL    HW224145   4.636   7.525  10.117 -0.1829  1.7117  0.6390
38393SOL     OW24146  11.870  12.428  11.731  0.6832  0.1687  0.2181
38393SOL    HW124147  11.959  12.393  11.731  0.4462 -0.4462 -0.1836
38393SOL    HW224148  11.838  12.412  11.642  0.2034  0.4665  0.3342
38394SOL     OW24149  10.182   4.944   0.094 -0.0250 -0.0026 -0.1190
38394SOL    HW124150  10.271   4.931   0.125 -0.1460 -2.6913 -0.6661
38394SOL    HW224151  10.192   4.974   0.003  0.2827  1.2504  0.3089
38395SOL     OW24152  12.562   7.253   6.626  0.8479 -0.5034  0.2601
38395SOL    HW124153  12.487   7.214   6.582  0.8062 -2.4435  1.9242
38395SOL    HW224154  12.638   7.223   6.576  0.7875 -2.5180  1.3005
38396SOL     OW24155   0.092  10.637   8.401  0.3280  0.1954  0.4823
38396SOL    HW124156   0.043  10.595   8.330 -0.9667  2.1603  0.1525
38396SOL    HW224157   0.162  10.574   8.422 -1.2531 -1.9185 -0.2332
38397SOL     OW24158   0.299   6.385  12.223 -0.1929 -0.3890 -0.3449
38397SOL    HW124159   0.315   6.306  12.172 -0.1820 -0.5607 -0.0760
38397SOL    HW224160   0.234   6.434  12.172 -0.3469 -0.6632 -0.4109
38398SOL     OW24161  11.572  11.477   4.481  0.1260  0.1537  0.0131
38398SOL    HW124162  11.550  11.546   4.544 -1.3793 -0.3986  0.1383
38398SOL    HW224163  11.498  11.475   4.421  0.2650 -1.1756 -0.1367
38399SOL     OW24164   6.443   4.020   9.858  0.0298 -0.7522 -0.3443
38399SOL    HW124165   6.427   4.102   9.811  0.1424 -1.5822 -1.8934
38399SOL    HW224166   6.519   3.982   9.815 -0.3132 -1.9174  0.0331
38400SOL     OW24167   5.048   4.751   0.334 -0.2834  0.0506 -0.4110
38400SOL    HW124168   5.136   4.768   0.368  0.2315 -0.4390 -1.4400
38400SOL    HW224169   5.025   4.664   0.368 -1.3315  1.0942  1.7055
38401SOL     OW24170   5.267   6.034  12.184 -0.0154 -0.2689 -0.5378
38401SOL    HW124171   5.238   6.038  12.093 -0.5901 -0.8701 -0.3829
38401SOL    HW224172   5.196   6.074  12.234 -0.1597 -0.8711 -0.2549
38402SOL     OW24173   1.581   5.051   7.149 -0.3739  0.2330  0.3735
38402SOL    HW124174   1.500   5.092   7.180 -0.7294  0.9081 -1.3306
38402SOL    HW224175   1.565   5.031   7.057  0.8783 -1.0115  0.3920
38403SOL     OW24176   8.699   2.734  10.961  0.4162  0.0940  0.3686
38403SOL    HW124177   8.610   2.713  10.990  0.3391 -0.3328 -0.1747
38403SOL    HW224178   8.727   2.657  10.913  1.0766  0.2372  0.5199
38404SOL     OW24179   7.623   8.302  11.953 -0.0533  1.1620 -0.1150
38404SOL    HW124180   7.661   8.231  12.004  0.7556  1.3096 -0.4837
38404SOL    HW224181   7.537   8.317  11.991 -0.2098  0.0296  0.0059
38405SOL     OW24182   1.133   1.607  11.856 -0.9202  0.2318  0.2220
38405SOL    HW124183   1.125   1.592  11.950  0.8076  0.7349  0.4799
38405SOL    HW224184   1.051   1.650  11.832 -0.4162  2.3944  1.9896
38406SOL     OW24185   8.320  11.153   3.235  0.5725 -0.3567  0.1623
38406SOL    HW124186   8.356  11.127   3.150 -0.0156  1.4095 -0.6811
38406SOL    HW224187   8.395  11.183   3.285  0.6022  1.1282 -0.7402
38407SOL     OW24188   8.038   1.519   7.867  0.1134 -0.2118 -0.0104
38407SOL    HW124189   8.055   1.553   7.779 -0.1005 -0.8192 -0.2912
38407SOL    HW224190   7.995   1.435   7.852  2.5956 -1.7051  0.6153
38408SOL     OW24191   7.083   2.248   2.548 -0.6195  0.0737 -0.9338
38408SOL    HW124192   7.052   2.335   2.576  0.0465  0.0681 -0.1263
38408SOL    HW224193   7.132   2.215   2.624 -1.0487 -1.1023 -1.1477
38409SOL     OW24194   8.748   8.834   5.812  0.1557  0.1391  0.0941
38409SOL    HW124195   8.793   8.774   5.870 -0.4466 -2.2316 -1.7408
38409SOL    HW224196   8.749   8.791   5.726 -3.5745  0.9659 -0.5455
38410SOL     OW24197  10.271   0.166   1.141 -0.2685  0.0815 -0.0993
38410SOL    HW124198  10.314   0.252   1.140 -0.6198  0.2692 -1.4375
38410SOL    HW224199  10.304   0.122   1.063  0.5277 -1.3426  0.9982
38411SOL     OW24200   9.192  11.167   5.249  0.2613 -0.4943 -0.3217
38411SOL    HW124201   9.144  11.103   5.197  0.2537 -0.6669 -0.1017
38411SOL    HW224202   9.277  11.174   5.206  0.0855 -0.2783 -0.6402
38412SOL     OW24203   7.825  10.224   8.554  0.1968 -0.4056 -0.0697
38412SOL    HW124204   7.738  10.207   8.518  0.5852 -1.7483 -0.4453
38412SOL    HW224205   7.809  10.258   8.642 -0.6943 -1.5726  0.2409
38413SOL     OW24206   8.220   4.205   5.695  0.4031 -0.2582  0.5477
38413SOL    HW124207   8.275   4.143   5.648  1.1991  1.3126 -0.6552
38413SOL    HW224208   8.202   4.275   5.632 -2.4441 -0.3578  1.0949
38414SOL     OW24209   7.152   9.168  11.768  0.4371 -0.3428  0.0572
38414SOL    HW124210   7.243   9.137  11.758  0.6226  0.5157 -1.1408
38414SOL    HW224211   7.100   9.104  11.719  0.6643  0.3976 -1.1946
38415SOL     OW24212   0.890   0.209   8.509 -0.1829 -0.6350  0.0824
38415SOL    HW124213   0.913   0.226   8.600 -0.3939 -0.1717  0.0501
38415SOL    HW224214   0.798   0.183   8.511 -0.5744  0.6844 -0.1380
38416SOL     OW24215   2.518   4.612  12.461 -0.3541  0.0245  0.3853
38416SOL    HW124216   2.471   4.652  12.387 -0.1945 -0.4024  0.0460
38416SOL    HW224217   2.539   4.685  12.519 -0.5460  0.3558  0.0410
38417SOL     OW24218  12.534   6.378   0.125  0.3989 -0.0361 -0.1599
38417SOL    HW124219  12.538   6.341   0.214  0.1037 -0.6653 -0.4056
38417SOL    HW224220  12.624   6.370   0.092  0.9557  1.8866  0.7383
38418SOL     OW24221   9.239   4.251   5.310 -0.7994 -0.1352  0.0281
38418SOL    HW124222   9.273   4.339   5.298 -0.6707 -0.1837  0.0362
38418SOL    HW224223   9.193   4.254   5.394  0.6996 -0.5325  0.9050
38419SOL     OW24224   5.670   3.170  11.441 -0.3216  0.1620  0.1978
38419SOL    HW124225   5.741   3.130  11.390 -0.2326 -0.0487  0.4882
38419SOL    HW224226   5.654   3.109  11.513 -0.2126  0.6246  0.6178
38420SOL     OW24227  11.108  10.478   4.323  0.3926  0.6694  0.4131
38420SOL    HW124228  11.142  10.419   4.255  1.5365  1.0008  0.6681
38420SOL    HW224229  11.170  10.469   4.396 -1.0365  0.0232  1.5810
38421SOL     OW24230   6.336   0.992   8.062  0.2990 -0.1093  0.2303
38421SOL    HW124231   6.293   0.917   8.103  0.6464 -0.7589 -0.5536
38421SOL    HW224232   6.408   1.015   8.121  1.4051 -1.6555 -0.4614
38422SOL     OW24233   5.239  10.885   0.083  0.0148  0.1512 -0.2769
38422SOL    HW124234   5.233  10.981   0.078 -1.0808  0.0995 -0.2172
38422SOL    HW224235   5.149  10.855   0.074  0.1178 -0.7977  1.3566
38423SOL     OW24236   5.019   9.181  10.846 -0.0486 -0.3462  0.0560
38423SOL    HW124237   5.030   9.225  10.931  1.4604 -1.0078  0.2426
38423SOL    HW224238   5.083   9.223  10.789 -0.2554 -0.6862 -0.4335
38424SOL     OW24239   3.960   8.931  11.773 -0.2334 -0.6038  0.0553
38424SOL    HW124240   3.947   8.842  11.807  0.8846 -0.4395  0.9324
38424SOL    HW224241   4.045   8.958  11.807  0.0874  0.2733 -1.3690
38425SOL     OW24242   5.953  10.483   7.436 -0.2191 -0.1804  0.1176
38425SOL    HW124243   5.982  10.411   7.492  0.2971  0.1195  0.2445
38425SOL    HW224244   5.857  10.480   7.441 -0.1847 -0.0787  1.1303
38426SOL     OW24245   2.854   1.450  10.585  0.4267  0.1555  0.1929
38426SOL    HW124246   2.792   1.480  10.650  0.5672  0.7509  0.0547
38426SOL    HW224247   2.815   1.473  10.500  1.3010  1.5230  0.1201
38427SOL     OW24248   0.938   2.652   6.847 -0.0652 -0.0489  0.1983
38427SOL    HW124249   0.992   2.676   6.923  0.1738 -0.6380  0.2198
38427SOL    HW224250   1.002   2.621   6.782 -0.3032  0.1132 -0.1182
38428SOL     OW24251   9.135   0.014   7.943 -0.5128 -0.5434 -0.4284
38428SOL    HW124252   9.083  -0.011   7.867 -0.8419 -0.3582 -0.2719
38428SOL    HW224253   9.182  -0.066   7.968  0.4932 -0.3151 -1.5043
38429SOL     OW24254   5.595   9.244  11.442  0.7975  0.2147  0.5150
38429SOL    HW124255   5.625   9.155  11.460  1.1004 -0.1606 -1.5481
38429SOL    HW224256   5.665   9.282  11.388  0.1105  1.2889  0.3492
38430SOL     OW24257   7.557  10.016   0.507 -0.6241 -0.6026 -0.6955
38430SOL    HW124258   7.625  10.049   0.566  0.7125 -2.1628 -1.2802
38430SOL    HW224259   7.551  10.083   0.438 -0.7126  0.2265  0.0940
38431SOL     OW24260   4.721  10.783   7.065  0.2537  0.2810 -0.0161
38431SOL    HW124261   4.712  10.850   7.133 -1.6646  0.9353 -0.8602
38431SOL    HW224262   4.814  10.758   7.068  0.0814 -0.4740  3.5273
38432SOL     OW24263   8.004  11.440   0.454 -0.7682 -0.1966 -0.7436
38432SOL    HW124264   7.959  11.524   0.466  0.5868  0.3259  1.3415
38432SOL    HW224265   7.991  11.418   0.362 -3.1297  1.1225 -0.8052
38433SOL     OW24266   2.903   1.460   7.973 -0.0849 -0.4614  0.6257
38433SOL    HW124267   2.949   1.379   7.950  0.9992  0.6211 -1.2649
38433SOL    HW224268   2.831   1.465   7.911  1.8098  1.6048 -1.5821
38434SOL     OW24269   5.518   6.897   2.071  0.0951  0.1273 -0.2430
38434SOL    HW124270   5.531   6.829   2.136 -0.9649 -0.4268 -0.6017
38434SOL    HW224271   5.585   6.963   2.092  0.4636 -0.5370  0.7244
38435SOL     OW24272   3.664   2.043   2.872 -0.7437  0.2293  0.4840
38435SOL    HW124273   3.635   1.952   2.881 -1.7955  0.2143 -2.2857
38435SOL    HW224274   3.601   2.083   2.813  1.6215  1.8378 -1.1213
38436SOL     OW24275   4.379   0.405   2.390 -0.5337  0.5214 -0.7494
38436SOL    HW124276   4.343   0.362   2.467 -1.2547  0.1237 -1.3001
38436SOL    HW224277   4.447   0.463   2.425 -1.6011  1.1809  0.2984
38437SOL     OW24278  11.560   2.053   6.328 -0.1611  0.0365 -0.3053
38437SOL    HW124279  11.578   2.008   6.245  1.1723 -0.2726  0.1313
38437SOL    HW224280  11.606   2.001   6.394 -3.0263 -1.0373  1.0122
38438SOL     OW24281   4.298   3.555  11.037  0.4318  0.0822 -0.0660
38438SOL    HW124282   4.252   3.472  11.045 -2.0318  1.1800 -1.6749
38438SOL    HW224283   4.281   3.584  10.947  0.5672  2.6642  0.6581
38439SOL     OW24284   6.456  11.797   7.423  0.3063  0.3922  0.1987
38439SOL    HW124285   6.368  11.832   7.410  0.0649 -0.4565 -0.4967
38439SOL    HW224286   6.492  11.787   7.335  0.3405 -1.1571  0.3601
38440SOL     OW24287   0.317   1.276   6.787 -0.3843  0.0330 -0.3075
38440SOL    HW124288   0.314   1.346   6.722 -0.0039 -0.1203 -0.4949
38440SOL    HW224289   0.247   1.298   6.849 -1.6191 -0.4896 -1.4517
38441SOL     OW24290   6.968   2.571  10.649  0.4349  0.1531 -0.2482
38441SOL    HW124291   6.988   2.545  10.739  0.2872 -0.0089 -0.2613
38441SOL    HW224292   7.034   2.637  10.627  1.5453 -1.0598 -0.6372
38442SOL     OW24293  11.147   1.725  10.218 -0.7322 -0.4524 -0.4401
38442SOL    HW124294  11.152   1.812  10.257 -0.7152 -0.2175 -0.9513
38442SOL    HW224295  11.092   1.737  10.140  0.4781 -0.5654 -1.3516
38443SOL     OW24296  11.299  12.004   4.102  0.1233  0.2075 -0.6703
38443SOL    HW124297  11.215  12.024   4.142 -0.8229 -0.6207 -2.1740
38443SOL    HW224298  11.345  12.088   4.098 -0.6523  0.6755  0.0894
38444SOL     OW24299   1.210   6.860   9.199 -0.4909 -0.5430 -0.1444
38444SOL    HW124300   1.142   6.914   9.158 -0.3775 -0.1468  0.1852
38444SOL    HW224301   1.254   6.818   9.125  1.4215  2.1612 -0.7023
38445SOL     OW24302   7.634   5.875   0.750 -0.2208  0.4394  0.2992
38445SOL    HW124303   7.636   5.939   0.679 -0.9871  1.2360  0.9834
38445SOL    HW224304   7.568   5.812   0.723  0.3794  0.0395 -0.2725
38446SOL     OW24305   5.523   7.757   8.686 -0.2580  0.1074 -0.0949
38446SOL    HW124306   5.607   7.713   8.676  0.7387  1.7435  0.5872
38446SOL    HW224307   5.470   7.697   8.739  0.4138 -1.0214 -0.6786
38447SOL     OW24308   5.253   1.876   2.223  0.0804 -0.0754 -0.1718
38447SOL    HW124309   5.275   1.809   2.287  0.9790 -0.2431 -0.6515
38447SOL    HW224310   5.336   1.903   2.186 -0.3755  0.4625 -0.8315
38448SOL     OW24311   6.547  12.285   6.393  0.2172 -0.1291  0.1427
38448SOL    HW124312   6.635  12.322   6.385  0.6583 -1.3836 -1.2244
38448SOL    HW224313   6.507  12.300   6.308 -1.8551  2.6129  1.4525
38449SOL     OW24314   2.816   9.455   2.598 -0.2524 -0.8128  0.2156
38449SOL    HW124315   2.855   9.530   2.554 -0.5200 -1.1334 -0.5853
38449SOL    HW224316   2.763   9.493   2.668 -0.9950 -0.2036 -0.6621
38450SOL     OW24317   0.193  12.330   8.396  0.0719  0.5965  0.7304
38450SOL    HW124318   0.213  12.386   8.471  0.9275 -0.2365  1.1405
38450SOL    HW224319   0.277  12.292   8.371 -0.1093  1.2071 -0.9514
38451SOL     OW24320   8.868   9.898   6.452  0.8031  0.4023  0.3719
38451SOL    HW124321   8.919   9.964   6.499  1.4522  1.1071 -1.2364
38451SOL    HW224322   8.923   9.875   6.378  0.3381 -1.5610  0.5877
38452SOL     OW24323   3.786   6.183   4.270  0.3105 -0.1356 -0.6807
38452SOL    HW124324   3.838   6.190   4.350  0.3301  0.0309 -0.7065
38452SOL    HW224325   3.840   6.131   4.210  1.0477  1.1654 -1.1844
38453SOL     OW24326   6.540   4.421   2.757  0.5239  0.0181 -0.8926
38453SOL    HW124327   6.631   4.391   2.762  0.1202 -1.2755 -1.0308
38453SOL    HW224328   6.494   4.351   2.710 -0.8516 -0.1276  0.5772
38454SOL     OW24329  11.361   2.794   2.690 -0.1708  0.0479  0.0681
38454SOL    HW124330  11.399   2.789   2.602 -0.2994  0.5225 -0.0154
38454SOL    HW224331  11.315   2.878   2.691 -0.4756 -0.1249  0.4666
38455SOL     OW24332   8.117   2.245   7.864 -0.2972  0.2505 -0.0934
38455SOL    HW124333   8.046   2.181   7.858  1.9517 -2.4479  0.1433
38455SOL    HW224334   8.120   2.286   7.778 -1.8513  0.1362 -0.2284
38456SOL     OW24335   5.487   9.590   6.982  0.1819 -0.0952 -0.5673
38456SOL    HW124336   5.511   9.498   6.996  0.2805 -0.0004 -0.0890
38456SOL    HW224337   5.537   9.638   7.047  2.7968  0.6848 -2.9520
38457SOL     OW24338   3.057   1.127   4.769  0.2670 -0.0486 -0.6575
38457SOL    HW124339   3.081   1.043   4.730 -0.6119  0.0138 -1.3814
38457SOL    HW224340   2.980   1.154   4.720 -0.3048  0.5090  0.5211
38458SOL     OW24341   6.535   3.941   7.603 -0.1855 -0.3555 -0.1886
38458SOL    HW124342   6.617   3.929   7.651  0.0231  0.9170 -0.1794
38458SOL    HW224343   6.548   4.021   7.553 -0.6163 -1.3355 -1.9515
38459SOL     OW24344   5.970   0.669  11.947  0.0614  0.2575 -0.0718
38459SOL    HW124345   5.955   0.650  12.039 -0.4544 -0.6729 -0.3311
38459SOL    HW224346   5.987   0.584  11.907  1.1042  0.7414 -0.6926
38460SOL     OW24347   9.277   0.961   4.759 -0.0687 -0.5515  0.2057
38460SOL    HW124348   9.263   0.988   4.668  0.1613  1.6219  0.7714
38460SOL    HW224349   9.212   1.010   4.809  1.3895  0.1671  1.4709
38461SOL     OW24350   4.808   9.332   5.801 -0.0268  0.2517  0.2722
38461SOL    HW124351   4.844   9.294   5.881  0.0722 -0.0910  0.0703
38461SOL    HW224352   4.886   9.354   5.749  0.1577  4.2151  1.8753
38462SOL     OW24353   3.495  11.313   8.407  0.2700  0.0362  0.0007
38462SOL    HW124354   3.482  11.267   8.325  0.8095  0.8681 -0.5589
38462SOL    HW224355   3.586  11.344   8.404  0.3346 -0.0166  0.9554
38463SOL     OW24356   3.324   8.154   7.566  0.1942  0.3543 -0.1739
38463SOL    HW124357   3.254   8.125   7.624 -1.1739  1.4021 -1.2387
38463SOL    HW224358   3.404   8.132   7.613 -0.8147 -1.4694  0.7869
38464SOL     OW24359  12.545   5.263   3.869  0.4170 -0.3409 -0.6570
38464SOL    HW124360  12.501   5.182   3.893  1.1854 -0.2816  1.1220
38464SOL    HW224361  12.551   5.260   3.773 -0.8363 -1.6861 -0.7213
38465SOL     OW24362   5.670   5.021   2.068 -0.2919 -0.0094  0.2453
38465SOL    HW124363   5.595   5.017   2.010 -1.5245  2.0500  1.5480
38465SOL    HW224364   5.711   4.935   2.061 -0.5909 -0.0167 -3.2619
38466SOL     OW24365  10.766   5.759   6.303  0.5687 -0.2921 -0.0725
38466SOL    HW124366  10.759   5.788   6.213 -1.8883  0.7751  0.3823
38466SOL    HW224367  10.855   5.782   6.329  0.6413  1.3486 -1.5784
38467SOL     OW24368  10.374   1.756   2.017  0.6831  0.1785  0.5483
38467SOL    HW124369  10.417   1.699   2.080  1.4148  1.4116  1.2166
38467SOL    HW224370  10.389   1.844   2.051  2.0251  0.9748 -1.9111
38468SOL     OW24371   3.059   2.945  11.590  0.2175  0.0042 -0.8601
38468SOL    HW124372   2.993   2.964  11.656  1.3567 -2.2175  1.0510
38468SOL    HW224373   3.136   2.994  11.619  0.4698 -0.2749 -1.0604
38469SOL     OW24374   4.909  11.922   2.630 -0.9054 -0.2235 -0.1292
38469SOL    HW124375   4.850  11.995   2.648  0.8194  0.8287  1.5786
38469SOL    HW224376   4.973  11.924   2.701  1.2664 -1.2300 -1.9374
38470SOL     OW24377   6.228   8.979  11.003  0.3294  0.3262  0.2157
38470SOL    HW124378   6.276   9.017  11.077 -0.5726 -0.3878  1.1982
38470SOL    HW224379   6.183   9.054  10.963 -1.1931  0.4074  1.9446
38471SOL     OW24380   7.618   6.725   2.221 -0.8915 -0.1223 -0.4408
38471SOL    HW124381   7.574   6.654   2.175 -0.3781 -1.3003  0.8097
38471SOL    HW224382   7.696   6.743   2.167 -0.9533 -0.5952 -0.6962
38472SOL     OW24383   4.113  11.856  10.251  0.2043  0.2081  0.5443
38472SOL    HW124384   4.195  11.817  10.223  0.4438  1.4574 -0.5670
38472SOL    HW224385   4.052  11.836  10.180  0.4536  2.1953 -0.2852
38473SOL     OW24386   9.389  12.040  10.694 -0.5158  0.9363 -0.3672
38473SOL    HW124387   9.349  11.960  10.728  0.5048  1.0738  1.2944
38473SOL    HW224388   9.444  12.011  10.621  0.4668 -0.0428  0.7064
38474SOL     OW24389  10.786   7.069  11.864 -0.2799  0.5546  0.0938
38474SOL    HW124390  10.729   7.035  11.794  0.7754 -0.8277 -0.1408
38474SOL    HW224391  10.874   7.040  11.839  0.4020  1.8258  0.9415
38475SOL     OW24392   8.097   4.332   2.764  0.2637 -0.0776 -0.0433
38475SOL    HW124393   8.103   4.290   2.850 -0.3124  0.7443  0.4052
38475SOL    HW224394   8.164   4.401   2.767  0.1668  0.0217 -0.2143
38476SOL     OW24395  12.452   7.033   4.580  0.2204  0.3248  0.4524
38476SOL    HW124396  12.364   7.065   4.563 -0.1422 -1.0154 -0.3654
38476SOL    HW224397  12.440   6.962   4.643  0.8851  1.0394  1.4155
38477SOL     OW24398  12.346  10.570   9.855 -0.3641 -0.0206  0.4141
38477SOL    HW124399  12.403  10.646   9.866  3.1314 -2.0485 -1.6954
38477SOL    HW224400  12.315  10.575   9.765 -2.1060  0.0308  0.9669
38478SOL     OW24401  12.007  10.783   6.512 -0.4865  0.1397 -0.4451
38478SOL    HW124402  12.009  10.755   6.603  1.2730 -2.5721 -1.2048
38478SOL    HW224403  11.941  10.726   6.471  1.1926 -1.1551 -1.4872
38479SOL     OW24404   1.944   4.975   6.754  0.5774 -0.4237  0.5354
38479SOL    HW124405   1.890   4.985   6.675  2.6163 -0.4444 -0.9290
38479SOL    HW224406   1.950   5.064   6.790 -1.3666 -0.6014  1.4303
38480SOL     OW24407   2.685  12.210   0.571 -0.4320  0.1866  0.0916
38480SOL    HW124408   2.701  12.266   0.647 -0.8789  0.8043 -0.2715
38480SOL    HW224409   2.733  12.129   0.591 -1.3796 -0.0499  1.4911
38481SOL     OW24410   2.398   8.287   4.597  0.6970  0.0500 -0.5774
38481SOL    HW124411   2.436   8.219   4.540  0.9330  0.4093 -0.8562
38481SOL    HW224412   2.398   8.366   4.543 -2.7385 -0.4288 -1.5099
38482SOL     OW24413   0.099   9.020   7.100  0.4264  0.0562 -0.2185
38482SOL    HW124414   0.187   8.990   7.125  0.7921  2.0856  1.1796
38482SOL    HW224415   0.041   8.978   7.164  0.8406  1.5519  1.2063
38483SOL     OW24416   8.873   6.142  12.513 -0.4335 -0.3162 -0.6545
38483SOL    HW124417   8.778   6.125  12.512 -0.2370 -1.4974 -0.3099
38483SOL    HW224418   8.900   6.122  12.603  0.0263  0.7675 -0.5365
38484SOL     OW24419  12.480   1.890  11.870 -0.1092 -0.3577 -0.3087
38484SOL    HW124420  12.566   1.863  11.836 -0.3188  1.1692 -2.2644
38484SOL    HW224421  12.418   1.827  11.832 -0.0670 -0.1346 -0.7625
38485SOL     OW24422   8.750   6.986  11.046  0.2698 -0.0736  0.3309
38485SOL    HW124423   8.717   6.988  10.957  0.4959  1.7110  0.2464
38485SOL    HW224424   8.804   7.065  11.054 -0.8745  0.5812  2.4627
38486SOL     OW24425   3.575   4.745   3.285 -0.0215  0.1592  0.3263
38486SOL    HW124426   3.610   4.758   3.197  0.0670  0.2631  0.3768
38486SOL    HW224427   3.559   4.651   3.291  1.4290 -0.0776  0.7473
38487SOL     OW24428   7.115   4.384   7.292  0.8345 -0.3010  0.0917
38487SOL    HW124429   7.086   4.344   7.374 -1.1666 -1.5549 -1.1323
38487SOL    HW224430   7.188   4.329   7.263  1.0496 -0.3121  0.6461
38488SOL     OW24431   8.410  11.821  10.110 -0.1499 -0.6736 -0.0191
38488SOL    HW124432   8.414  11.755  10.179 -0.4281  2.7410  3.6217
38488SOL    HW224433   8.319  11.821  10.082 -0.6051 -0.5763  1.3893
38489SOL     OW24434   0.866   3.558   1.258 -0.0456  0.0049  0.8506
38489SOL    HW124435   0.834   3.544   1.169 -0.5661  1.3968  0.7950
38489SOL    HW224436   0.935   3.492   1.269  0.5811  0.3142 -0.8654
38490SOL     OW24437  11.871   6.015   5.188  0.6534 -0.4388  0.1506
38490SOL    HW124438  11.832   5.954   5.125  1.8204 -0.6780 -0.3673
38490SOL    HW224439  11.805   6.084   5.198  0.0704 -0.8595 -0.6516
38491SOL     OW24440   9.867   6.608   1.129  0.1124 -0.4435  0.2877
38491SOL    HW124441   9.815   6.589   1.208  0.4507 -1.6029  0.2584
38491SOL    HW224442   9.802   6.636   1.064  0.0249  2.4919  1.4961
38492SOL     OW24443  12.103  11.238  11.087  0.0859  0.2832  0.1328
38492SOL    HW124444  12.040  11.208  11.151  0.0781  0.3711  0.1652
38492SOL    HW224445  12.062  11.219  11.002  1.0394 -1.9622  0.0997
38493SOL     OW24446  12.546   8.127   4.331  1.0964  0.2043  0.2224
38493SOL    HW124447  12.543   8.098   4.422 -0.8159  0.2506  0.2312
38493SOL    HW224448  12.634   8.107   4.301  1.3370 -1.0804  1.6824
38494SOL     OW24449  10.952   8.311   6.302  0.0922  0.0273  0.2269
38494SOL    HW124450  10.885   8.330   6.368 -0.8819 -2.0193 -0.1007
38494SOL    HW224451  10.906   8.260   6.235  1.2907  1.1620 -1.5560
38495SOL     OW24452   2.210   7.642   3.838 -0.0397 -0.7431 -0.8948
38495SOL    HW124453   2.129   7.634   3.788  0.5096 -1.8841 -1.6534
38495SOL    HW224454   2.213   7.562   3.891 -0.1469  0.0064  0.2900
38496SOL     OW24455   0.142   7.119   4.197  0.0868 -0.1739  0.3845
38496SOL    HW124456   0.099   7.054   4.252  0.9185 -0.2784  0.9162
38496SOL    HW224457   0.072   7.182   4.176 -0.5615 -0.8738  0.4019
38497SOL     OW24458   4.520   0.748   6.564  0.1291 -0.7640 -0.0224
38497SOL    HW124459   4.462   0.776   6.634  1.6652 -0.3969  1.1643
38497SOL    HW224460   4.539   0.828   6.515 -0.4607 -0.9158 -0.5248
38498SOL     OW24461   2.245  12.518   6.585 -0.0998  0.1392 -0.1434
38498SOL    HW124462   2.272  12.610   6.579 -1.8747  0.9384  2.5264
38498SOL    HW224463   2.154  12.518   6.557 -0.4093 -0.6216  0.8177
38499SOL     OW24464  10.712   0.415   0.431  0.7187 -0.2777 -0.4547
38499SOL    HW124465  10.679   0.505   0.433  1.1405 -0.1317  1.4746
38499SOL    HW224466  10.806   0.424   0.419  0.6951 -0.4980 -0.8315
38500SOL     OW24467  12.551   5.880  11.129 -0.0201 -0.1210 -0.0273
38500SOL    HW124468  12.480   5.862  11.190  0.5347 -2.2391  0.0937
38500SOL    HW224469  12.518   5.848  11.045 -0.2601  1.5192 -0.5894
38501SOL     OW24470   8.059  10.775  11.338 -0.1819 -0.5304  0.1267
38501SOL    HW124471   8.057  10.837  11.264  1.0002 -0.6655 -0.0237
38501SOL    HW224472   8.111  10.819  11.405 -0.2347 -0.9241  0.4286
38502SOL     OW24473   7.205   7.497   4.183 -0.5493  0.0271 -0.4246
38502SOL    HW124474   7.247   7.492   4.269 -0.4701  0.3021 -0.4481
38502SOL    HW224475   7.114   7.471   4.200 -0.2893 -0.9405 -0.4413
38503SOL     OW24476   8.377   1.748  11.691 -0.0373  0.7283 -0.3010
38503SOL    HW124477   8.372   1.759  11.786 -0.9094  0.1121 -0.2648
38503SOL    HW224478   8.469   1.729  11.674  0.0975  0.6982  0.4355
38504SOL     OW24479   5.862   6.750   3.898 -0.8134 -0.5006  0.3367
38504SOL    HW124480   5.864   6.841   3.866  1.3584  0.0547  1.8431
38504SOL    HW224481   5.827   6.700   3.824  0.0722  1.2586 -1.3678
38505SOL     OW24482   6.090   9.946   2.633  0.3405 -0.0259 -0.4413
38505SOL    HW124483   6.005   9.903   2.639  0.0844  0.5370  0.0999
38505SOL    HW224484   6.077  10.031   2.675  1.1450  0.1029 -0.4364
38506SOL     OW24485   3.663   6.532   3.982  0.4587  0.0152  0.0106
38506SOL    HW124486   3.692   6.482   3.906  1.6049 -0.8648  0.9762
38506SOL    HW224487   3.570   6.510   3.992  0.4822 -0.4206 -0.7050
38507SOL     OW24488  12.315   3.168   6.556 -0.0962  0.3487 -0.0521
38507SOL    HW124489  12.244   3.231   6.544 -0.7185 -0.6603 -2.2288
38507SOL    HW224490  12.282   3.107   6.622 -1.0794  0.1782 -0.6761
38508SOL     OW24491   7.078   2.746   6.335 -0.4986 -0.0012 -0.0192
38508SOL    HW124492   7.075   2.815   6.401  0.2961  0.2935 -0.2799
38508SOL    HW224493   7.066   2.792   6.252  0.1839 -0.1597 -0.2059
38509SOL     OW24494  11.916   0.799   0.963  0.2497  0.5424  0.6501
38509SOL    HW124495  11.935   0.712   0.997  0.7565 -0.7148 -2.5128
38509SOL    HW224496  11.821   0.809   0.975  0.0204 -0.8891  0.1926
38510SOL     OW24497   4.287   4.412  10.406  0.1967  0.3273 -0.0754
38510SOL    HW124498   4.352   4.346  10.382 -0.8201 -0.5546 -0.4869
38510SOL    HW224499   4.329   4.496  10.384  2.5695  0.0803  2.9332
38511SOL     OW24500   5.255   4.767   0.968  0.3200  0.2845  0.1920
38511SOL    HW124501   5.319   4.726   1.025 -1.0265 -1.8976  0.2441
38511SOL    HW224502   5.238   4.702   0.899 -0.0693  1.7693 -1.1992
38512SOL     OW24503  12.092   9.194   5.327 -0.0395 -0.0141  0.0556
38512SOL    HW124504  12.061   9.285   5.324 -0.3124 -0.1147 -0.3004
38512SOL    HW224505  12.120   9.176   5.237 -1.2941 -0.7270 -0.2101
38513SOL     OW24506   1.292  11.149   4.485 -0.1966 -0.0743 -0.2291
38513SOL    HW124507   1.305  11.102   4.567 -0.4925  1.1276  0.5363
38513SOL    HW224508   1.206  11.121   4.455 -0.5195  0.2118  0.3970
38514SOL     OW24509   6.296   0.394   1.178 -0.7748  0.5794 -0.2891
38514SOL    HW124510   6.225   0.413   1.116 -1.1335 -0.0374 -0.0727
38514SOL    HW224511   6.371   0.372   1.122 -0.7765  1.1100 -0.5149
38515SOL     OW24512   7.357   0.569   2.834 -0.3091  0.1473 -0.4604
38515SOL    HW124513   7.411   0.621   2.774 -0.1512  0.5770  0.0425
38515SOL    HW224514   7.361   0.480   2.799  1.1547  0.0640 -0.1670
38516SOL     OW24515   3.816   9.890  10.484 -0.4075  0.5828  0.3414
38516SOL    HW124516   3.818   9.911  10.391 -2.2530 -2.1140 -0.4574
38516SOL    HW224517   3.906   9.868  10.505 -0.1056  0.2484 -1.1329
38517SOL     OW24518   6.268   3.785   8.595 -0.0045  0.1771 -0.0096
38517SOL    HW124519   6.302   3.814   8.680  0.4969 -2.4380  0.7870
38517SOL    HW224520   6.280   3.861   8.538  3.4757  0.7812  1.2298
38518SOL     OW24521   7.072   0.615   8.415 -0.0752  0.3887 -0.5450
38518SOL    HW124522   7.122   0.552   8.467  0.9029  0.0631 -1.8336
38518SOL    HW224523   7.121   0.623   8.333 -2.4129 -0.3380 -2.0999
38519SOL     OW24524  12.038   3.050  11.337 -0.1330 -0.0997  0.3635
38519SOL    HW124525  11.966   3.035  11.276 -0.4858  1.0365  0.4805
38519SOL    HW224526  12.087   2.968  11.337 -0.6708 -0.4339 -0.7238
38520SOL     OW24527  11.913   4.765   8.996  0.4165 -0.4793  0.2717
38520SOL    HW124528  11.875   4.831   8.938  0.5973 -0.9048 -0.3444
38520SOL    HW224529  11.966   4.816   9.058  0.3540 -0.0267 -0.0379
38521SOL     OW24530   4.022   2.337   9.781  0.1731 -0.1980 -0.4600
38521SOL    HW124531   3.986   2.251   9.804 -0.8269  0.2718 -0.2099
38521SOL    HW224532   4.073   2.363   9.858  0.4413 -0.5438 -0.5191
38522SOL     OW24533   3.393  10.947   8.534 -0.0771  0.6881  0.1167
38522SOL    HW124534   3.447  11.011   8.581 -1.5437  0.4363  2.3408
38522SOL    HW224535   3.333  10.914   8.601 -0.7954 -1.4465 -1.4729
38523SOL     OW24536  10.294   6.774   7.863  0.0239  0.2941 -0.0203
38523SOL    HW124537  10.239   6.753   7.787 -0.7913  0.5748  0.4821
38523SOL    HW224538  10.358   6.836   7.830  0.4349 -0.5036 -0.7634
38524SOL     OW24539  11.962   1.107  10.257 -0.0093  0.5448 -0.4273
38524SOL    HW124540  11.900   1.109  10.184 -0.6964  1.0375  0.1568
38524SOL    HW224541  11.934   1.033  10.310  0.2814  0.3950 -0.4794
38525SOL     OW24542   6.292   6.037   5.801  0.0318 -0.6023 -0.0537
38525SOL    HW124543   6.281   6.091   5.879 -1.6357 -0.5993 -0.2647
38525SOL    HW224544   6.329   5.955   5.834 -1.7771 -1.0636  0.9492
38526SOL     OW24545  11.802   6.235   4.581  0.1587  0.4347  0.5213
38526SOL    HW124546  11.818   6.288   4.504  0.3071 -0.7053 -0.2587
38526SOL    HW224547  11.738   6.169   4.553  1.0159 -0.6672  1.0341
38527SOL     OW24548   1.953  10.446  10.092  0.2548  0.2974 -0.2367
38527SOL    HW124549   2.020  10.514  10.083  1.2502 -0.6264  0.0003
38527SOL    HW224550   1.903  10.472  10.169  0.0835  1.2130 -0.6491
38528SOL     OW24551   5.942   5.430   8.514 -0.4908  0.3521  0.2062
38528SOL    HW124552   5.891   5.509   8.500 -0.7015  0.2692  0.4885
38528SOL    HW224553   6.021   5.460   8.559  0.7071  0.7749 -2.0270
38529SOL     OW24554  11.758   1.684   2.025 -0.1900  0.1449  0.5161
38529SOL    HW124555  11.813   1.605   2.024 -0.1541  0.1642 -1.5646
38529SOL    HW224556  11.672   1.653   1.999 -0.5542  0.5641  1.1878
38530SOL     OW24557   0.148   0.809  12.591 -0.0418  0.3942 -0.2957
38530SOL    HW124558   0.103   0.726  12.605 -1.1120  0.8379 -1.0030
38530SOL    HW224559   0.113   0.867  12.658  0.5079  0.3728  0.0236
38531SOL     OW24560   8.566  11.748  11.844 -0.1296 -0.4952 -0.6226
38531SOL    HW124561   8.552  11.699  11.925  0.1748  0.8309  0.2529
38531SOL    HW224562   8.485  11.797  11.831 -0.0526 -0.4495 -0.9440
38532SOL     OW24563   3.435   5.698   1.644 -0.3477  0.5515  0.2048
38532SOL    HW124564   3.434   5.793   1.636  0.2985  0.4903 -0.7416
38532SOL    HW224565   3.464   5.667   1.559 -1.0437 -0.5204  0.3327
38533SOL     OW24566   3.620  10.509   6.658  0.2960 -0.5214 -0.5062
38533SOL    HW124567   3.599  10.570   6.728 -1.4612 -1.3972 -0.2268
38533SOL    HW224568   3.688  10.452   6.695  0.2540 -0.2150  0.0536
38534SOL     OW24569   9.508   8.547  10.918 -0.2676  0.5300 -0.2699
38534SOL    HW124570   9.426   8.595  10.905  0.3518  1.0356 -2.6495
38534SOL    HW224571   9.513   8.486  10.845  1.2653  0.1814  0.0805
38535SOL     OW24572   2.146  11.824   8.019  0.7183 -0.8170 -0.4588
38535SOL    HW124573   2.131  11.750   7.960 -0.1490 -0.7372 -0.3562
38535SOL    HW224574   2.164  11.783   8.104 -1.7406 -0.9715  0.0869
38536SOL     OW24575  11.882   1.363   6.965  0.4535  0.4878  0.1536
38536SOL    HW124576  11.844   1.446   6.938 -1.5522 -0.3042  0.3469
38536SOL    HW224577  11.845   1.298   6.905 -0.2979 -0.6292  1.7326
38537SOL     OW24578   9.274   8.617   8.053 -0.6308 -0.4687  0.2944
38537SOL    HW124579   9.338   8.671   8.007  0.2198  0.2802  2.2450
38537SOL    HW224580   9.322   8.580   8.127 -2.1198 -0.9286  1.0852
38538SOL     OW24581   4.940   4.788   5.976  0.0906 -0.3344 -0.5080
38538SOL    HW124582   4.937   4.698   6.007  0.2020  0.8671  3.5439
38538SOL    HW224583   4.855   4.801   5.933 -0.8371 -1.7717  0.7875
38539SOL     OW24584   6.693   4.758   8.753  0.0146  0.0766 -0.3402
38539SOL    HW124585   6.758   4.693   8.726  0.0249  0.1840 -0.5819
38539SOL    HW224586   6.609   4.713   8.744  0.1598 -0.7660  1.9976
38540SOL     OW24587   9.038   0.064  10.855  0.3223  0.2572 -0.5830
38540SOL    HW124588   8.956   0.039  10.897 -0.6105  1.6200 -1.5222
38540SOL    HW224589   9.106   0.038  10.917 -0.7831 -1.1002  0.1192
38541SOL     OW24590   8.849   3.903   2.878 -0.4050  0.3972 -0.3702
38541SOL    HW124591   8.780   3.933   2.818  1.1674  0.5494 -2.2208
38541SOL    HW224592   8.879   3.983   2.921 -0.8845  0.4336 -0.0940
38542SOL     OW24593   4.194   9.851   9.822  0.0238 -0.1182  0.0617
38542SOL    HW124594   4.113   9.825   9.778 -0.0399 -0.0121  0.1184
38542SOL    HW224595   4.165   9.901   9.898  0.1885  1.7565 -1.0495
38543SOL     OW24596   1.931   3.571   9.614 -0.1625 -0.3475  0.0181
38543SOL    HW124597   1.911   3.581   9.521 -0.5675  1.4797  0.2717
38543SOL    HW224598   1.979   3.650   9.637 -0.8015 -0.3788  1.5653
38544SOL     OW24599   7.523  10.338   2.133  0.4529  0.4461 -0.0094
38544SOL    HW124600   7.454  10.382   2.183  0.3535  0.0381  0.2187
38544SOL    HW224601   7.596  10.400   2.133  0.5315  0.3626  0.8396
38545SOL     OW24602   1.209   2.270  11.920  0.4724  0.1048  0.1437
38545SOL    HW124603   1.153   2.316  11.982  0.6912 -0.9841  1.2108
38545SOL    HW224604   1.268   2.337  11.886 -0.3799  0.9376  0.2689
38546SOL     OW24605   0.171   8.838   5.857 -0.1330 -0.1281 -0.6694
38546SOL    HW124606   0.207   8.757   5.822 -0.6187 -0.2147 -0.9717
38546SOL    HW224607   0.138   8.815   5.944  3.3352  0.6118  1.0237
38547SOL     OW24608   6.286   6.630  12.552 -0.0252 -0.2958  0.0745
38547SOL    HW124609   6.322   6.561  12.607 -0.2932 -0.3625  0.1680
38547SOL    HW224610   6.342   6.632  12.475  0.8633  0.3608  0.7211
38548SOL     OW24611   5.146   6.669   1.238 -0.1775 -0.2600 -0.0597
38548SOL    HW124612   5.161   6.608   1.310  1.0164 -0.9393 -0.8639
38548SOL    HW224613   5.050   6.678   1.234 -0.2627  0.0674  1.8128
38549SOL     OW24614   0.580   1.653  10.076 -0.3176 -0.4858 -0.6615
38549SOL    HW124615   0.509   1.590  10.068 -0.5975 -0.3223  0.4213
38549SOL    HW224616   0.556   1.709  10.150  2.0728 -1.9674  1.3964
38550SOL     OW24617   5.579   4.063   0.678  0.0069  0.0583  0.5229
38550SOL    HW124618   5.650   4.058   0.614 -2.4099 -0.0973 -2.4350
38550SOL    HW224619   5.621   4.088   0.760  3.2636  1.1966 -1.3137
38551SOL     OW24620  11.879   1.796   5.139 -0.1304  0.2959  0.1924
38551SOL    HW124621  11.845   1.828   5.223 -0.7628 -1.5289  0.6756
38551SOL    HW224622  11.940   1.864   5.111 -1.6246  2.0635  0.9816
38552SOL     OW24623  11.035   1.378   2.505  0.2434  0.5157  0.1428
38552SOL    HW124624  11.015   1.472   2.504  0.6369  0.5946 -0.8349
38552SOL    HW224625  11.097   1.365   2.434 -1.7282 -0.9014 -1.4394
38553SOL     OW24626   2.372   7.939  12.406  0.3218 -0.5040 -0.1974
38553SOL    HW124627   2.415   8.023  12.387 -0.1821 -0.2313 -0.1606
38553SOL    HW224628   2.307   7.960  12.473 -0.1409 -0.8300 -0.5359
38554SOL     OW24629   1.552   0.015   8.148  0.5157  0.1077  0.3717
38554SOL    HW124630   1.644   0.008   8.121  0.7051 -0.3014  1.0948
38554SOL    HW224631   1.556   0.033   8.242 -0.1399  0.6947  0.2924
38555SOL     OW24632  10.736   2.187  11.606 -0.2724  0.6999 -0.4541
38555SOL    HW124633  10.737   2.105  11.655  0.1363  1.0104  0.0600
38555SOL    HW224634  10.747   2.160  11.514 -0.2802  0.1714 -0.3022
38556SOL     OW24635   0.628   7.274  10.045 -0.1080 -0.1104  0.5568
38556SOL    HW124636   0.585   7.241   9.966  0.0722 -0.1424  0.4731
38556SOL    HW224637   0.630   7.198  10.103  1.1465 -0.5137  0.0179
38557SOL     OW24638   5.167   6.940   3.169 -0.0431  0.2561 -0.1754
38557SOL    HW124639   5.102   6.991   3.122 -0.4404 -1.0260 -1.0868
38557SOL    HW224640   5.149   6.956   3.262 -0.7008  1.0665 -0.4411
38558SOL     OW24641  12.450   4.313  10.791 -0.1470  0.1156 -0.4346
38558SOL    HW124642  12.498   4.352  10.719  0.9332 -0.6961 -0.1851
38558SOL    HW224643  12.388   4.253  10.749  2.0123 -2.0711 -0.6905
38559SOL     OW24644   7.865   0.434   8.201  0.6539 -0.0277 -0.4902
38559SOL    HW124645   7.893   0.411   8.290  1.9658  0.4590 -0.7620
38559SOL    HW224646   7.810   0.512   8.213 -0.2146 -0.6881 -0.0039
38560SOL     OW24647   9.341   1.264   2.673 -0.0416 -0.3919  0.1048
38560SOL    HW124648   9.413   1.201   2.681  1.3080  0.8008 -1.7358
38560SOL    HW224649   9.327   1.296   2.762 -0.9125 -3.3358  1.1594
38561SOL     OW24650   4.563   1.891   0.290 -0.3268 -0.4797 -0.0766
38561SOL    HW124651   4.597   1.829   0.225  1.3592  0.1147  0.1887
38561SOL    HW224652   4.560   1.841   0.372  2.2649  0.0313  0.4334
38562SOL     OW24653   3.956   9.581   6.943 -0.1941 -0.0853 -0.0084
38562SOL    HW124654   3.994   9.669   6.935 -0.7192  0.0617 -1.0262
38562SOL    HW224655   3.900   9.572   6.866 -0.7579 -1.0195  0.4956
38563SOL     OW24656   6.036   6.962   1.110  0.3737  0.0730  0.5750
38563SOL    HW124657   6.025   7.038   1.053  2.1554 -0.3336 -0.4004
38563SOL    HW224658   6.017   6.994   1.198 -0.8431  1.1211 -0.0377
38564SOL     OW24659   1.193  10.971   3.303  0.1867 -0.2719  0.4762
38564SOL    HW124660   1.141  10.891   3.305 -0.3501  0.0811  2.1251
38564SOL    HW224661   1.274  10.946   3.259 -1.5651 -0.6469 -2.9107
38565SOL     OW24662   1.318   1.736   9.747  0.5128  0.7556  0.1541
38565SOL    HW124663   1.356   1.660   9.702  0.1481  0.4188  0.4142
38565SOL    HW224664   1.224   1.726   9.736  0.3557  0.1876  1.7509
38566SOL     OW24665  12.559   4.629   4.463  0.2431 -0.1336 -0.2475
38566SOL    HW124666  12.606   4.708   4.436  2.0184 -0.3594  1.8550
38566SOL    HW224667  12.583   4.563   4.397  0.4429  0.5424 -0.8631
38567SOL     OW24668   7.492  10.077   2.690  0.1786  0.0205  0.2491
38567SOL    HW124669   7.558  10.138   2.657  0.3513 -1.0923 -1.6488
38567SOL    HW224670   7.409  10.112   2.659  0.4168 -1.5470 -2.4861
38568SOL     OW24671  11.417   6.226   3.185 -0.1371  0.7599 -0.1023
38568SOL    HW124672  11.495   6.236   3.241 -0.2886 -0.7178  0.4067
38568SOL    HW224673  11.431   6.143   3.140 -1.9205 -0.0787  0.8173
38569SOL     OW24674   1.265   0.320   4.551 -0.0612 -0.1568  0.6309
38569SOL    HW124675   1.305   0.236   4.572  0.8207 -0.1356 -0.7979
38569SOL    HW224676   1.335   0.384   4.568  0.2124 -0.0137 -0.8707
38570SOL     OW24677  10.317   5.652  12.111 -0.1995 -0.1194 -0.1388
38570SOL    HW124678  10.371   5.599  12.171  0.2801  0.3491 -0.1498
38570SOL    HW224679  10.238   5.599  12.097 -0.3821 -0.1803  1.0184
38571SOL     OW24680  12.574   9.833   6.474 -1.1722 -0.6798  0.0265
38571SOL    HW124681  12.584   9.739   6.493 -1.9920 -1.0673 -1.3289
38571SOL    HW224682  12.497   9.838   6.417 -0.0983  0.6198 -1.3938
38572SOL     OW24683   4.960   5.765   2.578 -0.3662 -0.6849 -0.0901
38572SOL    HW124684   4.903   5.835   2.547 -0.2376  0.2334  1.6157
38572SOL    HW224685   5.043   5.809   2.599 -0.8510 -0.9265  2.7218
38573SOL     OW24686   3.971   2.706   4.962 -0.2329  0.0991 -0.3145
38573SOL    HW124687   3.914   2.774   4.926  1.9223  1.5583 -1.1734
38573SOL    HW224688   3.936   2.690   5.050 -0.4520  2.8790  0.2126
38574SOL     OW24689   6.039   6.647   4.090 -0.5291  0.5836 -0.1098
38574SOL    HW124690   6.133   6.665   4.092 -0.4298  0.1363 -0.5767
38574SOL    HW224691   6.004   6.712   4.029 -0.8458  2.1064  1.5879
38575SOL     OW24692  11.308   6.918   3.269 -0.2800 -0.5121  0.0479
38575SOL    HW124693  11.383   6.894   3.214  0.0634  0.3377  0.1260
38575SOL    HW224694  11.254   6.974   3.212 -0.0947  0.0981  0.4740
38576SOL     OW24695   8.911   7.014   4.475  0.3494  0.5749  0.1698
38576SOL    HW124696   8.967   6.980   4.406 -0.4209 -0.6477  0.1136
38576SOL    HW224697   8.971   7.037   4.546  1.1402  1.7707 -0.8424
38577SOL     OW24698   1.960   2.869  10.861 -0.0889  0.2098 -0.6519
38577SOL    HW124699   1.874   2.836  10.888  0.3930  0.5294  1.4181
38577SOL    HW224700   2.021   2.801  10.888  0.5664  1.1863  0.3962
38578SOL     OW24701   5.173   4.148   1.748 -0.4608 -0.4301  0.2273
38578SOL    HW124702   5.172   4.141   1.843  2.1783  1.1591  0.4871
38578SOL    HW224703   5.138   4.235   1.730  0.8203  0.0615 -0.0407
38579SOL     OW24704   6.736   0.041  10.601  0.7636  0.1306  0.0153
38579SOL    HW124705   6.749   0.057  10.695  2.9299  1.8843 -0.5092
38579SOL    HW224706   6.801  -0.025  10.578 -0.2456 -0.8366 -0.1630
38580SOL     OW24707  11.838   3.379   1.904  0.1164  0.1747  0.8939
38580SOL    HW124708  11.788   3.426   1.838 -0.5103 -0.9972  0.5063
38580SOL    HW224709  11.791   3.394   1.986  0.6043  1.2040  0.9988
38581SOL     OW24710   2.451   0.280   0.112 -0.3067  0.4466  0.3368
38581SOL    HW124711   2.527   0.316   0.066 -0.7977 -0.6940 -1.4690
38581SOL    HW224712   2.483   0.262   0.200  1.4959  0.1485 -0.3365
38582SOL     OW24713  11.374   1.256  11.221  0.2150  0.0520  0.8151
38582SOL    HW124714  11.314   1.190  11.187 -0.2555  1.1679 -0.6184
38582SOL    HW224715  11.429   1.208  11.283  1.7528 -2.4255 -2.1482
38583SOL     OW24716   1.712   4.605   7.520 -0.4643 -0.0043  0.1534
38583SOL    HW124717   1.708   4.564   7.606 -0.9429 -1.6303 -0.5953
38583SOL    HW224718   1.626   4.645   7.508 -0.1398  0.8954  0.7141
38584SOL     OW24719   8.109   0.572   3.912  0.1597  0.3025  0.4582
38584SOL    HW124720   8.062   0.656   3.908 -0.2011  0.1127 -3.5310
38584SOL    HW224721   8.042   0.509   3.939 -0.0132  1.0220  1.7808
38585SOL     OW24722  11.333  11.418   7.295  0.2490  0.5183 -0.4124
38585SOL    HW124723  11.346  11.324   7.307 -0.2517  0.2741 -1.5447
38585SOL    HW224724  11.240  11.426   7.270  0.3267  1.2874 -0.4842
38586SOL     OW24725   3.246   7.936   6.651 -0.0488  0.4367 -0.1351
38586SOL    HW124726   3.188   7.984   6.593 -0.6250  0.2263  0.2607
38586SOL    HW224727   3.194   7.920   6.730  1.0444  1.6092  0.8641
38587SOL     OW24728   0.279   1.644   3.872  0.1199 -0.1773 -0.1222
38587SOL    HW124729   0.198   1.617   3.830  0.0869  0.0802 -0.2220
38587SOL    HW224730   0.320   1.562   3.900 -0.7261 -0.2601  0.9555
38588SOL     OW24731   8.348  11.636   8.751 -0.1306  0.7187 -0.0870
38588SOL    HW124732   8.266  11.592   8.729 -0.9313  0.9869  2.0899
38588SOL    HW224733   8.321  11.722   8.782  0.9120  0.6522  1.0711
38589SOL     OW24734  10.795   9.173  12.490  0.0739  0.0561 -0.1897
38589SOL    HW124735  10.760   9.214  12.410  0.0297  0.6696  0.1388
38589SOL    HW224736  10.805   9.246  12.551 -1.4705 -0.6342  0.9528
38590SOL     OW24737   0.288   2.803   3.177 -0.1322 -0.1898 -0.0749
38590SOL    HW124738   0.379   2.784   3.201 -0.3007 -2.3312 -0.8901
38590SOL    HW224739   0.259   2.868   3.241  2.0587  0.7868 -0.0049
38591SOL     OW24740   2.527   7.885   5.114  0.0346 -0.3933  0.1435
38591SOL    HW124741   2.501   7.950   5.049  0.3762  1.4559  1.7544
38591SOL    HW224742   2.613   7.914   5.144 -0.1197 -1.1664  1.4202
38592SOL     OW24743   4.785  11.542   5.535  0.1840 -0.0191  0.6678
38592SOL    HW124744   4.732  11.513   5.461 -0.5488 -0.5304  1.3794
38592SOL    HW224745   4.730  11.605   5.581  0.4068 -0.1324  1.0962
38593SOL     OW24746   7.359   7.110   8.851 -0.2070 -0.5238  0.2932
38593SOL    HW124747   7.342   7.041   8.787 -1.9761 -1.5397  1.7714
38593SOL    HW224748   7.415   7.069   8.917 -0.7549 -0.3653  0.8666
38594SOL     OW24749   2.809   6.272   1.930 -0.2868  0.4352 -0.1937
38594SOL    HW124750   2.836   6.287   2.020  0.7742  0.2872 -0.4842
38594SOL    HW224751   2.844   6.347   1.882 -1.1404  0.6942 -0.4400
38595SOL     OW24752   0.579   4.073   9.662 -0.5453  0.3986  0.2428
38595SOL    HW124753   0.532   4.006   9.711  0.0193 -0.7419 -0.7212
38595SOL    HW224754   0.517   4.103   9.595 -1.8112  2.9511  2.3917
38596SOL     OW24755   5.822   7.065   4.381 -0.7700  0.0363 -0.1754
38596SOL    HW124756   5.829   6.971   4.397 -0.4322  0.4053  2.2469
38596SOL    HW224757   5.728   7.083   4.384 -0.7648 -0.0457  0.7166
38597SOL     OW24758   1.084   3.392  11.073  0.2084 -0.3774  0.6787
38597SOL    HW124759   1.134   3.334  11.130 -0.0028 -0.5517  0.6899
38597SOL    HW224760   1.002   3.407  11.120  1.0701  1.6315  1.6566
38598SOL     OW24761   3.165   0.116   5.700  0.1196  0.4121 -0.3516
38598SOL    HW124762   3.233   0.050   5.713 -1.3302 -0.9907  0.5040
38598SOL    HW224763   3.113   0.083   5.627  0.1538  1.3104 -0.7985
38599SOL     OW24764   6.127   3.275   5.802  0.0674 -0.3309  0.5973
38599SOL    HW124765   6.067   3.332   5.851  1.2564  1.9380 -0.4255
38599SOL    HW224766   6.191   3.245   5.867 -1.1321 -1.3598  1.3422
38600SOL     OW24767   0.142   5.342   9.075 -0.9799 -0.0338  0.5375
38600SOL    HW124768   0.069   5.357   9.014 -1.6703 -0.6108  1.2106
38600SOL    HW224769   0.157   5.248   9.072  1.7068  0.3186 -1.8086
38601SOL     OW24770   5.513   2.391   5.194  0.2793  0.6455 -0.3437
38601SOL    HW124771   5.426   2.352   5.183  0.7136 -0.6913  0.6630
38601SOL    HW224772   5.564   2.354   5.121  0.5416 -0.2682  0.2855
38602SOL     OW24773   6.956   9.443   4.700  0.1829 -0.7366 -0.3293
38602SOL    HW124774   7.038   9.481   4.668  0.8722 -0.8634  1.2257
38602SOL    HW224775   6.890   9.510   4.682  0.6757 -0.4715 -1.2284
38603SOL     OW24776   0.690   7.002  10.439  0.6570  0.1462 -0.1126
38603SOL    HW124777   0.739   6.967  10.365 -0.0783  2.8013 -1.9963
38603SOL    HW224778   0.746   7.072  10.474  0.6950 -0.6194  1.4568
38604SOL     OW24779   5.397   2.412   3.274 -0.4290  0.3589 -0.5131
38604SOL    HW124780   5.469   2.473   3.262 -1.3291  1.6304  0.2601
38604SOL    HW224781   5.318   2.465   3.260 -1.2565 -0.4204  0.9418
38605SOL     OW24782   0.487   1.161   9.692  0.1375  0.2792 -0.2876
38605SOL    HW124783   0.404   1.122   9.664 -0.3793  1.4600 -0.4830
38605SOL    HW224784   0.484   1.155   9.788 -0.0812  0.1407 -0.3016
38606SOL     OW24785   3.823   1.018   4.131  0.4159 -0.4391 -0.0914
38606SOL    HW124786   3.755   1.085   4.132  0.9775  0.1706 -0.8560
38606SOL    HW224787   3.834   0.996   4.038  0.8786 -0.9212  0.0715
38607SOL     OW24788   4.523   8.160   1.765  0.1563 -0.5714 -0.4470
38607SOL    HW124789   4.602   8.165   1.712 -0.3305 -0.0360 -1.1401
38607SOL    HW224790   4.522   8.071   1.799  1.7644 -0.1947  0.7003
38608SOL     OW24791   9.161  10.788  10.883 -0.6740  0.6057 -0.0508
38608SOL    HW124792   9.116  10.871  10.865  1.0723  1.5140 -0.4673
38608SOL    HW224793   9.253  10.806  10.865 -0.0518 -1.0513  1.2025
38609SOL     OW24794   0.711   5.253   2.400  0.3824  0.1843  0.4793
38609SOL    HW124795   0.708   5.339   2.442 -0.5338  0.1582  0.4751
38609SOL    HW224796   0.642   5.203   2.443 -0.4432  0.0931 -0.9182
38610SOL     OW24797   9.556   3.620   9.885  0.1016 -0.5985  0.0698
38610SOL    HW124798   9.557   3.525   9.898  0.4025 -0.4358  1.4758
38610SOL    HW224799   9.611   3.654   9.957 -1.0706  0.7138  0.3907
38611SOL     OW24800  12.309   4.676   4.394  0.1306  0.2213  0.7906
38611SOL    HW124801  12.394   4.658   4.435 -0.0559  0.7191  1.3969
38611SOL    HW224802  12.280   4.758   4.433 -0.6171  0.0781  0.5517
38612SOL     OW24803   8.368   7.116   4.036  0.6061 -0.1519  0.1203
38612SOL    HW124804   8.462   7.119   4.052  0.8117 -3.3001  0.0372
38612SOL    HW224805   8.359   7.067   3.954 -1.1334 -2.5379  1.6370
38613SOL     OW24806   6.314   4.732  12.215  0.2251  0.0277  0.7857
38613SOL    HW124807   6.393   4.686  12.185 -0.7237 -1.1313 -0.0264
38613SOL    HW224808   6.303   4.704  12.306 -0.8787 -2.2269  0.0281
38614SOL     OW24809   2.910  11.390   4.246  0.4920 -0.1683 -0.0667
38614SOL    HW124810   2.992  11.380   4.293 -0.0565 -0.1495  0.9343
38614SOL    HW224811   2.925  11.464   4.186  1.1082  0.0079  0.2982
38615SOL     OW24812   7.872   8.080   4.030 -0.3069  0.0857  0.2363
38615SOL    HW124813   7.929   8.121   4.095 -0.1715  1.3610 -0.6413
38615SOL    HW224814   7.783   8.098   4.060 -0.2507  1.1875 -0.2019
38616SOL     OW24815   3.785   8.345   8.492 -0.3203 -0.7780  0.1976
38616SOL    HW124816   3.833   8.407   8.437  0.1159 -1.1239  0.1866
38616SOL    HW224817   3.795   8.379   8.581  2.3576 -2.3236  0.5966
38617SOL     OW24818   5.335   3.891   7.496 -0.1617 -0.1448  0.2814
38617SOL    HW124819   5.419   3.851   7.474 -0.2605 -0.1161 -0.1581
38617SOL    HW224820   5.322   3.957   7.428 -0.0541  0.5584  0.9315
38618SOL     OW24821   6.602  10.340   9.950  0.0841 -0.2728 -0.7386
38618SOL    HW124822   6.587  10.277  10.021 -0.8664  0.5507 -0.1836
38618SOL    HW224823   6.552  10.417   9.976  0.1707  0.2402 -2.0528
38619SOL     OW24824  10.369   7.328   3.283 -0.5933  0.4575  0.0743
38619SOL    HW124825  10.405   7.388   3.218 -0.6288  1.0699  0.6026
38619SOL    HW224826  10.444   7.301   3.335 -0.8584  1.7009  1.1493
38620SOL     OW24827  10.516  10.977  10.442 -0.0878 -0.6313  0.1314
38620SOL    HW124828  10.483  11.046  10.499  0.6722  1.0368 -1.3536
38620SOL    HW224829  10.438  10.938  10.402 -0.4761  1.2051 -1.0213
38621SOL     OW24830   5.660   6.040   6.694 -0.7714 -0.4674  0.4584
38621SOL    HW124831   5.673   6.041   6.789 -0.4007  1.5061  0.4425
38621SOL    HW224832   5.574   6.000   6.682 -1.7326  1.0224  1.8059
38622SOL     OW24833   8.781   2.307   4.971 -0.4449 -0.3711 -0.4700
38622SOL    HW124834   8.713   2.362   5.010  1.3588  1.1242  0.7727
38622SOL    HW224835   8.782   2.333   4.879 -0.2698  1.0470 -0.0992
38623SOL     OW24836   4.086   8.713   6.872 -0.1711 -0.4383 -0.0421
38623SOL    HW124837   4.036   8.786   6.839 -0.0827 -0.4954 -0.3047
38623SOL    HW224838   4.090   8.651   6.799  0.1029 -0.5232  0.0417
38624SOL     OW24839   2.532   4.406   2.247  0.2127 -0.0602 -0.1044
38624SOL    HW124840   2.443   4.439   2.233 -0.3992 -1.1231  1.0241
38624SOL    HW224841   2.529   4.367   2.335  1.3068 -1.6457 -0.7348
38625SOL     OW24842   9.932   1.504   3.194  0.2623  0.5212  0.3205
38625SOL    HW124843   9.925   1.567   3.266 -0.9229  1.3029 -0.4470
38625SOL    HW224844   9.845   1.502   3.154  0.4679 -1.0654 -0.1444
38626SOL     OW24845   1.972   6.848  10.618 -0.3609  0.4731  0.1074
38626SOL    HW124846   2.055   6.803  10.632 -1.0389 -0.8966 -0.1231
38626SOL    HW224847   1.982   6.891  10.533  0.8070  2.0190  0.9627
38627SOL     OW24848  10.992   3.611   2.038  0.1258 -0.2803  0.5778
38627SOL    HW124849  11.035   3.591   1.955 -0.0511  0.1076  0.3877
38627SOL    HW224850  10.899   3.611   2.018  0.0061 -1.5672  1.0936
38628SOL     OW24851   9.366  10.048   9.109 -0.2508  0.3261  0.2390
38628SOL    HW124852   9.334  10.018   9.194 -3.9128 -1.3781 -1.5011
38628SOL    HW224853   9.324  10.133   9.096  1.6812  1.4151  0.7527
38629SOL     OW24854   8.851   4.985   6.628  0.0964 -0.4444 -0.5213
38629SOL    HW124855   8.936   5.016   6.661 -0.9979  1.2718  0.8817
38629SOL    HW224856   8.837   4.901   6.672 -0.1549  0.5871  1.5179
38630SOL     OW24857   8.201   9.728   0.118 -0.3170  0.0949 -0.3201
38630SOL    HW124858   8.151   9.767   0.046 -0.4593  1.5641  0.5299
38630SOL    HW224859   8.153   9.648   0.140 -0.2591 -0.3972 -1.8400
38631SOL     OW24860   3.387   8.426   4.419  0.1353  0.1894  0.2591
38631SOL    HW124861   3.330   8.404   4.345 -0.1773  1.0405  0.2345
38631SOL    HW224862   3.389   8.346   4.472 -0.4067 -0.1218 -0.1737
38632SOL     OW24863   5.214  12.275  12.036  0.3613  0.0299 -0.0580
38632SOL    HW124864   5.125  12.256  12.067  1.1985 -1.5376  1.5991
38632SOL    HW224865   5.265  12.289  12.116  2.0110 -1.0790 -0.8554
38633SOL     OW24866   3.589   5.621   0.678 -0.0772  0.1922  0.4713
38633SOL    HW124867   3.538   5.558   0.729  1.3934 -0.7907  0.8072
38633SOL    HW224868   3.593   5.699   0.733 -0.0791 -0.2016  1.0398
38634SOL     OW24869   8.672   5.995  11.290  0.1747 -0.1173  0.7153
38634SOL    HW124870   8.664   6.070  11.349  1.0971 -0.8988  1.8720
38634SOL    HW224871   8.665   5.919  11.347  2.6535 -0.9046  0.0813
38635SOL     OW24872   6.330  10.711   2.191  0.2299 -0.4205  0.2368
38635SOL    HW124873   6.235  10.703   2.189  0.1697  0.1902  0.3821
38635SOL    HW224874   6.362  10.628   2.156 -0.3610 -0.5026 -0.1182
38636SOL     OW24875   6.303   5.353   6.464  0.3594  0.2598  0.1141
38636SOL    HW124876   6.321   5.372   6.556  1.2851  0.8261 -0.1686
38636SOL    HW224877   6.226   5.406   6.444  2.1155  2.8539 -0.2886
38637SOL     OW24878  10.548   6.287   2.743  0.8962  0.2261  0.0532
38637SOL    HW124879  10.548   6.197   2.713  2.0236  0.8367 -1.9188
38637SOL    HW224880  10.477   6.290   2.808  0.9088 -2.0676  0.2610
38638SOL     OW24881  11.029   8.584   0.079 -0.1675  0.3052  0.5887
38638SOL    HW124882  11.027   8.593  -0.017  0.1143  0.3382  0.5856
38638SOL    HW224883  10.947   8.623   0.108 -1.7195 -2.3530  0.1572
38639SOL     OW24884   1.346   7.872   0.684  0.1739 -0.3579  0.5948
38639SOL    HW124885   1.275   7.933   0.703  0.4286 -0.3538  1.5594
38639SOL    HW224886   1.404   7.921   0.624  0.1459  0.1879  1.0081
38640SOL     OW24887   1.662   1.957   6.236  0.1939 -0.0802  0.4667
38640SOL    HW124888   1.606   1.880   6.227 -1.2324  0.5868  2.8034
38640SOL    HW224889   1.606   2.030   6.210  0.4338  0.4696  1.4772
38641SOL     OW24890   4.281   2.453   0.314 -0.2660 -0.2174 -0.4411
38641SOL    HW124891   4.198   2.470   0.269  0.2166 -0.9698 -1.6717
38641SOL    HW224892   4.279   2.510   0.391 -0.8944  1.5272 -1.6857
38642SOL     OW24893   0.338   1.138   1.863 -0.3113  0.5408 -0.2631
38642SOL    HW124894   0.414   1.140   1.805  0.0194  0.7055  0.1696
38642SOL    HW224895   0.271   1.089   1.815  0.5488 -0.8666 -0.0612
38643SOL     OW24896   1.388  10.488   2.686  0.4827  0.5849  0.2131
38643SOL    HW124897   1.375  10.462   2.595 -1.2590  0.0457  0.5798
38643SOL    HW224898   1.306  10.467   2.729  1.4312  0.3927  2.0359
38644SOL     OW24899   2.112   1.855   3.613 -0.1602 -0.2347 -0.0450
38644SOL    HW124900   2.051   1.926   3.631  0.4634 -0.0643  1.5417
38644SOL    HW224901   2.063   1.775   3.635 -0.1293 -0.1540  0.3237
38645SOL     OW24902   5.341   6.544  12.196 -0.2609 -0.0257 -0.4552
38645SOL    HW124903   5.266   6.487  12.179 -0.1960 -0.6136  1.0493
38645SOL    HW224904   5.368   6.575  12.109 -2.3006  0.3092 -1.0182
38646SOL     OW24905   4.692   5.828   1.068 -0.3347  0.5745  0.5379
38646SOL    HW124906   4.711   5.830   1.161 -0.9581 -0.6002  0.7169
38646SOL    HW224907   4.630   5.756   1.058 -0.3701  0.7593 -0.7643
38647SOL     OW24908   8.671  10.007   0.428 -0.4392 -0.2923 -0.0428
38647SOL    HW124909   8.695  10.077   0.488 -0.5320 -1.7106  1.7644
38647SOL    HW224910   8.576  10.002   0.433 -0.4890 -0.0858 -0.7211
38648SOL     OW24911   3.958  10.639   1.134 -0.5312  0.6484 -0.1266
38648SOL    HW124912   4.049  10.614   1.146 -0.3031  0.2791 -2.3244
38648SOL    HW224913   3.959  10.735   1.139  0.1123  0.6878 -0.8150
38649SOL     OW24914   8.765   4.037   4.824 -0.0979  0.5194  0.1345
38649SOL    HW124915   8.816   4.116   4.844  1.7338 -0.5059 -0.2219
38649SOL    HW224916   8.755   3.993   4.908  0.0951  0.4368  0.1132
38650SOL     OW24917   5.039   8.117   6.348 -0.4912  0.2434  0.3183
38650SOL    HW124918   4.985   8.063   6.406  1.0263 -0.9484  0.6935
38650SOL    HW224919   5.034   8.072   6.263 -0.3874  0.3442  0.2596
38651SOL     OW24920   7.427   4.565   0.416 -0.0910 -0.2318 -0.0855
38651SOL    HW124921   7.511   4.576   0.373 -0.8056  1.2938 -1.1823
38651SOL    HW224922   7.371   4.525   0.349 -0.3978 -0.7231  0.4540
38652SOL     OW24923   4.951  12.104   0.344 -0.0738 -0.0327 -0.1986
38652SOL    HW124924   4.935  12.167   0.274  0.5036 -0.6658 -0.9225
38652SOL    HW224925   4.883  12.121   0.409 -2.5213 -1.3806 -2.2581
38653SOL     OW24926   0.615   9.188   4.638  0.2116 -0.6029 -0.2688
38653SOL    HW124927   0.686   9.144   4.684  0.1097 -0.3275  0.1632
38653SOL    HW224928   0.535   9.146   4.671  0.1502 -0.5531 -0.3525
38654SOL     OW24929   6.949   8.489   3.848 -0.4928  0.4342  0.3325
38654SOL    HW124930   6.886   8.503   3.777 -0.5069  0.2032  0.2983
38654SOL    HW224931   7.009   8.422   3.814  0.1792  1.1397  0.1049
38655SOL     OW24932  11.663   0.308  10.464  0.2784 -0.0923  0.6762
38655SOL    HW124933  11.660   0.384  10.406  0.2095  0.0897  0.9184
38655SOL    HW224934  11.613   0.334  10.541  1.8530  0.3136  1.5927
38656SOL     OW24935   4.259   1.721   2.875  0.5013 -0.5962  1.0596
38656SOL    HW124936   4.235   1.813   2.880 -1.3198 -1.0001  0.5614
38656SOL    HW224937   4.253   1.700   2.782 -1.8018 -1.8216  1.4037
38657SOL     OW24938  10.906   2.551   9.871  0.2371 -0.0681  0.0851
38657SOL    HW124939  10.848   2.622   9.898  0.5779 -0.0117  0.6815
38657SOL    HW224940  10.964   2.538   9.946  0.1079 -1.0508  0.0304
38658SOL     OW24941   2.984   0.662   7.396  0.0517 -0.2153 -0.0279
38658SOL    HW124942   2.990   0.615   7.313 -0.7421 -0.0160 -0.2002
38658SOL    HW224943   3.061   0.719   7.397  0.1044 -0.2773 -0.5881
38659SOL     OW24944   9.366   8.088   5.985 -0.1336  1.1027 -0.3669
38659SOL    HW124945   9.453   8.057   5.959 -0.6322  1.1382 -2.2484
38659SOL    HW224946   9.376   8.182   5.996  0.3911  0.9110  0.9641
38660SOL     OW24947   2.752   3.804   3.666 -0.0878 -0.3441 -0.2743
38660SOL    HW124948   2.707   3.760   3.737 -0.1439  0.9974  0.5656
38660SOL    HW224949   2.712   3.769   3.586  0.7235 -2.6672  0.2642
38661SOL     OW24950  10.672  12.001   5.166 -0.4391  0.5461 -0.0639
38661SOL    HW124951  10.707  11.941   5.232  0.2328  1.7448  0.7021
38661SOL    HW224952  10.598  11.954   5.128  0.2746 -0.9017  0.2612
38662SOL     OW24953   8.865   8.136   1.662 -0.0195  0.0449  0.1058
38662SOL    HW124954   8.845   8.062   1.720 -2.3129 -0.3981 -1.1440
38662SOL    HW224955   8.822   8.211   1.703 -1.1175 -0.1452 -0.6834
38663SOL     OW24956   9.528   6.112   0.325  0.3263 -0.2000 -0.0641
38663SOL    HW124957   9.524   6.034   0.270 -0.4684  0.2995 -0.7233
38663SOL    HW224958   9.614   6.151   0.305  1.3310 -1.6034  1.2728
38664SOL     OW24959   4.993   3.243   4.472 -1.0374 -0.0898 -0.1181
38664SOL    HW124960   4.938   3.309   4.430 -0.0346  1.4909  0.9740
38664SOL    HW224961   5.072   3.290   4.498 -0.1424 -1.8054  0.3960
38665SOL     OW24962  11.630  10.062   2.040 -0.2895  0.1826 -0.0598
38665SOL    HW124963  11.606  10.153   2.026 -2.3733 -0.2552  0.3687
38665SOL    HW224964  11.616  10.047   2.133  0.9382 -0.3496  0.0621
38666SOL     OW24965   0.342   8.867   7.084 -0.6801 -0.5086 -0.3718
38666SOL    HW124966   0.384   8.903   7.162 -0.8076  1.2067 -1.0397
38666SOL    HW224967   0.388   8.785   7.067  0.4266 -0.1055  0.5780
38667SOL     OW24968   0.629   3.521   6.069  0.5811  0.2256 -0.0140
38667SOL    HW124969   0.668   3.557   6.148 -1.5159 -1.2638  1.8314
38667SOL    HW224970   0.560   3.463   6.101 -1.0775  0.3857 -2.9755
38668SOL     OW24971   8.939   6.309   7.588  0.2932 -0.3111  0.8663
38668SOL    HW124972   8.989   6.348   7.660 -0.1830  2.4392 -0.1566
38668SOL    HW224973   8.856   6.356   7.588  0.3573 -0.0377 -1.5795
38669SOL     OW24974   0.951   8.915   8.518 -0.3844 -0.2672 -0.1150
38669SOL    HW124975   1.038   8.887   8.489  0.1943 -0.1298  1.3941
38669SOL    HW224976   0.893   8.895   8.444  0.7202 -1.4769 -0.6848
38670SOL     OW24977   3.226  12.528   6.530 -0.4187 -0.4436 -0.0876
38670SOL    HW124978   3.164  12.562   6.465  1.1966  1.8883 -0.5488
38670SOL    HW224979   3.311  12.563   6.502  0.8271 -2.0193  1.5313
38671SOL     OW24980  10.200   9.644   1.318 -0.1999  0.3778 -0.0300
38671SOL    HW124981  10.233   9.672   1.403 -1.8882 -0.8314  1.0822
38671SOL    HW224982  10.124   9.700   1.302  1.1504  1.8363 -1.6468
38672SOL     OW24983   8.001   0.806   3.671 -0.6401  0.2193 -0.7338
38672SOL    HW124984   7.986   0.714   3.650  2.1470 -1.7419  4.1427
38672SOL    HW224985   7.918   0.837   3.706 -0.8211 -1.6003  0.5868
38673SOL     OW24986   5.408   9.048  12.106 -0.5310 -0.7320 -0.3583
38673SOL    HW124987   5.388   9.041  12.013  0.9615 -0.7523 -0.7141
38673SOL    HW224988   5.475   9.117  12.111  0.5387 -1.7764  0.4870
38674SOL     OW24989   0.008   6.698   3.445  0.4112  0.6690  0.0674
38674SOL    HW124990   0.007   6.750   3.526 -0.7661  1.2279 -0.2831
38674SOL    HW224991   0.039   6.758   3.378  1.8757  0.0638  0.1610
38675SOL     OW24992  10.274   4.206   0.612  0.2325  0.3273 -0.8064
38675SOL    HW124993  10.349   4.186   0.668  0.8851  1.4468 -1.2472
38675SOL    HW224994  10.205   4.148   0.643  1.2573 -0.6843 -0.3422
38676SOL     OW24995   8.643   6.815  10.326  0.1410 -0.3751  1.0279
38676SOL    HW124996   8.589   6.842  10.252 -0.2033  1.0195  1.7451
38676SOL    HW224997   8.729   6.852  10.309  0.3250 -0.8629  0.8751
38677SOL     OW24998   8.700   0.393   7.514 -0.6025 -0.0426  0.5053
38677SOL    HW124999   8.789   0.427   7.505 -1.0918  1.0919 -0.2964
38677SOL    HW225000   8.706   0.301   7.487 -0.1727  0.7214 -2.3249
38678SOL     OW25001  12.003   1.480   2.564 -0.3641  0.7535 -0.1981
38678SOL    HW125002  12.092   1.504   2.590  0.7961 -2.7308 -0.4553
38678SOL    HW225003  11.957   1.465   2.647 -0.1408  0.7307 -0.0776
38679SOL     OW25004   8.707  10.569   8.979  0.4519 -0.3277 -0.0586
38679SOL    HW125005   8.728  10.608   8.894 -0.8589 -2.1788 -1.2977
38679SOL    HW225006   8.615  10.594   8.995  0.7526  0.2057  0.9665
38680SOL     OW25007   2.824  10.409   0.446  0.2798 -0.2525  0.0385
38680SOL    HW125008   2.794  10.492   0.484 -0.3523 -0.1939 -0.5618
38680SOL    HW225009   2.779  10.404   0.362  1.2486 -0.6270 -0.4804
38681SOL     OW25010   6.213  10.103   0.856  0.1824  0.7114 -0.4558
38681SOL    HW125011   6.133  10.089   0.805 -1.8107  3.2766  1.6717
38681SOL    HW225012   6.255  10.179   0.816 -0.4027  1.5814  0.5409
38682SOL     OW25013   8.432   6.018   0.163 -0.1213  0.2553 -0.9066
38682SOL    HW125014   8.495   5.974   0.220  1.3347 -1.0549 -3.3880
38682SOL    HW225015   8.357   6.034   0.220  1.5533 -0.0894  1.6169
38683SOL     OW25016   1.136   4.317   7.271 -0.1347  0.2635 -0.3468
38683SOL    HW125017   1.177   4.239   7.308 -0.1573 -0.0116 -0.8848
38683SOL    HW225018   1.045   4.312   7.299 -0.6062 -0.9419 -1.9599
38684SOL     OW25019  11.955   9.040   3.036  0.6688 -0.1009  0.1106
38684SOL    HW125020  11.956   8.972   3.103 -0.8478 -3.0086 -2.5287
38684SOL    HW225021  12.046   9.047   3.008  1.0072 -0.2980  1.1091
38685SOL     OW25022   3.823   6.770   1.546  0.2566  0.0654  0.0627
38685SOL    HW125023   3.763   6.700   1.521 -0.5701  0.8357 -0.1760
38685SOL    HW225024   3.793   6.796   1.633  0.6080  0.0770  0.1802
38686SOL     OW25025   6.219   5.563   8.296 -0.2021  0.2617 -0.0278
38686SOL    HW125026   6.204   5.572   8.202  0.4771  1.8789 -0.0191
38686SOL    HW225027   6.166   5.488   8.322  1.1337 -1.5087 -2.0484
38687SOL     OW25028   6.567  11.378   1.227  0.2164 -0.1209 -0.0845
38687SOL    HW125029   6.600  11.334   1.149  0.3366  0.4711 -0.3705
38687SOL    HW225030   6.638  11.372   1.291  0.5976  0.4744 -0.4408
38688SOL     OW25031  11.101   7.300   1.327  0.2975 -0.0901 -0.6706
38688SOL    HW125032  11.159   7.250   1.384  0.3752 -0.2589 -0.8989
38688SOL    HW225033  11.017   7.299   1.372  0.6921  0.9537  0.1289
38689SOL     OW25034  11.488   6.982   8.215  0.0790  0.2981 -0.6511
38689SOL    HW125035  11.543   6.906   8.234  0.6264  0.6566 -0.7866
38689SOL    HW225036  11.525   7.052   8.269 -1.9713 -0.1297  1.4435
38690SOL     OW25037  12.060   5.494  11.317  0.3381  0.1799  0.0569
38690SOL    HW125038  12.056   5.575  11.367  0.5893  0.4487 -0.3552
38690SOL    HW225039  11.988   5.441  11.352  1.5177 -0.3113  1.8531
38691SOL     OW25040   5.433   0.791   6.297  0.1863  0.4882  0.1284
38691SOL    HW125041   5.440   0.749   6.212  0.7793  1.0582 -0.1146
38691SOL    HW225042   5.357   0.750   6.338  0.3439 -0.3191 -0.3672
38692SOL     OW25043   9.878   1.177  10.458 -0.1883 -0.6241 -0.8284
38692SOL    HW125044   9.929   1.250  10.422  0.9936 -1.0914 -0.1374
38692SOL    HW225045   9.833   1.214  10.533 -2.1432  0.1857 -2.3119
38693SOL     OW25046  11.586  10.382   9.225  0.3736 -0.3737  0.3269
38693SOL    HW125047  11.547  10.378   9.138  1.9471 -0.1014 -0.4084
38693SOL    HW225048  11.523  10.336   9.281 -0.2249 -1.3404 -1.0910
38694SOL     OW25049   6.502   6.231   3.999 -0.3695  0.2616 -0.1757
38694SOL    HW125050   6.429   6.287   3.973 -2.5015 -1.5684  1.4938
38694SOL    HW225051   6.522   6.179   3.921 -0.8882  0.7217 -0.6270
38695SOL     OW25052   9.698   9.816  12.082 -0.2466 -0.3728 -0.1384
38695SOL    HW125053   9.667   9.757  12.151 -0.5813  0.9997  0.9274
38695SOL    HW225054   9.621   9.865  12.055 -0.0793 -0.7686 -1.3942
38696SOL     OW25055   6.571   9.619   8.960  0.0365  0.2795 -0.2524
38696SOL    HW125056   6.508   9.553   8.931  2.0154 -1.9268  0.1378
38696SOL    HW225057   6.517   9.690   8.995 -2.2178 -0.8813 -1.1660
38697SOL     OW25058   6.624   4.999   1.906 -0.4898  0.4466  0.2194
38697SOL    HW125059   6.672   5.063   1.854 -1.5092  0.3394 -0.9107
38697SOL    HW225060   6.648   5.018   1.996  1.2544  0.7054 -0.2734
38698SOL     OW25061   0.802   3.445   2.947  0.1309  0.2155  0.0440
38698SOL    HW125062   0.846   3.440   3.033  0.1141 -2.6277 -0.0001
38698SOL    HW225063   0.712   3.468   2.967  0.5828  1.6093  0.5694
38699SOL     OW25064   6.994  11.661   2.002 -0.2339  0.4150  0.4086
38699SOL    HW125065   7.053  11.616   1.940 -0.4513 -1.6159  1.5955
38699SOL    HW225066   6.930  11.705   1.946 -0.1627 -0.9968 -0.8541
38700SOL     OW25067  11.670   9.065   4.104 -0.1275 -0.8719  0.1177
38700SOL    HW125068  11.701   9.124   4.173  2.8223 -1.7419 -0.3179
38700SOL    HW225069  11.641   9.123   4.034 -1.3634  0.0130  1.3094
38701SOL     OW25070  12.442   3.826  11.856  0.6053 -0.4779  0.0918
38701SOL    HW125071  12.500   3.841  11.931 -0.8600  1.2862  0.9621
38701SOL    HW225072  12.476   3.883  11.787 -0.1694  0.7186  0.6706
38702SOL     OW25073  10.724   8.663   5.985  0.0488 -0.2491  0.3823
38702SOL    HW125074  10.810   8.636   6.015  1.2785  0.6737 -2.0204
38702SOL    HW225075  10.733   8.756   5.965 -0.6613 -0.6868 -2.4208
38703SOL     OW25076   3.167   0.245   5.949 -0.4005  0.2906  0.0166
38703SOL    HW125077   3.255   0.269   5.921  0.4789 -2.2458  0.3750
38703SOL    HW225078   3.130   0.198   5.875 -0.8132 -0.1367  0.4871
38704SOL     OW25079  11.176   7.133   7.150 -0.8678 -0.5292  0.0148
38704SOL    HW125080  11.159   7.226   7.134 -0.6964 -0.5670 -0.4034
38704SOL    HW225081  11.164   7.091   7.064  1.4930 -0.5399 -0.3727
38705SOL     OW25082   0.010   2.309   7.184 -0.3663  0.0581  0.2066
38705SOL    HW125083   0.051   2.365   7.118 -1.4383  0.7598  0.1174
38705SOL    HW225084  -0.067   2.358   7.213 -1.8156 -1.7164 -0.4907
38706SOL     OW25085   3.107  11.269  12.002 -0.4492 -0.5900 -0.2384
38706SOL    HW125086   3.028  11.236  12.045 -0.7227  1.6789  1.1662
38706SOL    HW225087   3.077  11.300  11.917 -1.0291 -0.1558  0.1134
38707SOL     OW25088   2.818   1.103   9.054  0.1749  0.0560 -0.1400
38707SOL    HW125089   2.888   1.168   9.048  1.4616 -1.2545  0.1612
38707SOL    HW225090   2.844   1.033   8.994 -1.1908 -0.1948 -0.4837
38708SOL     OW25091   2.040   2.586   1.969 -0.3210 -0.8984  0.4045
38708SOL    HW125092   2.025   2.501   2.010 -2.1471 -0.0293  1.6908
38708SOL    HW225093   1.970   2.595   1.904  1.0157 -1.1585 -1.1310
38709SOL     OW25094   9.513   5.000   5.707 -0.2729  0.3014 -0.2550
38709SOL    HW125095   9.607   4.985   5.704 -0.3436 -0.4381  0.8022
38709SOL    HW225096   9.499   5.075   5.648  0.8308 -0.1925 -1.1904
38710SOL     OW25097   1.415   9.231  11.043 -0.3388  0.4156  0.0243
38710SOL    HW125098   1.369   9.217  10.960  1.4022 -0.6396 -0.8368
38710SOL    HW225099   1.482   9.163  11.045 -1.0352 -0.3207  2.8816
38711SOL     OW25100   3.658   9.644  10.520  0.1743 -0.5864  0.0845
38711SOL    HW125101   3.708   9.726  10.516  1.0656 -1.0674  0.9324
38711SOL    HW225102   3.672   9.612  10.609 -0.3650 -1.5481 -0.1632
38712SOL     OW25103   0.987   7.876   6.186  0.2561  0.4061 -0.1140
38712SOL    HW125104   0.956   7.811   6.123 -0.1023  0.1979  0.2746
38712SOL    HW225105   1.048   7.828   6.243  2.7569  1.1777 -1.9293
38713SOL     OW25106  11.947   3.979  10.741 -0.0737 -0.0273  0.3521
38713SOL    HW125107  11.924   3.887  10.751  1.2976 -0.5144 -0.5947
38713SOL    HW225108  12.029   3.977  10.691  0.6284  1.6542  1.3696
38714SOL     OW25109  11.885   4.405  11.146  0.4464  0.3731 -0.2107
38714SOL    HW125110  11.966   4.433  11.188 -0.3086  1.0036  0.8850
38714SOL    HW225111  11.846   4.486  11.112  1.7423 -0.2591 -3.5617
38715SOL     OW25112  10.126   8.046   8.170  0.1977 -0.0916 -0.3537
38715SOL    HW125113  10.212   8.054   8.128  0.1697 -0.5447 -0.5081
38715SOL    HW225114  10.139   8.081   8.259  0.9389 -1.5065  0.1337
38716SOL     OW25115   1.929  12.417   0.022 -0.0184 -0.0614  0.1915
38716SOL    HW125116   2.017  12.435   0.054 -0.0799  2.5083 -0.8644
38716SOL    HW225117   1.941  12.346  -0.041  1.4062  0.5791 -0.2987
38717SOL     OW25118   1.651   1.281   8.793 -0.0086  0.3548  0.3699
38717SOL    HW125119   1.609   1.197   8.809  0.6416  0.1075  0.8494
38717SOL    HW225120   1.722   1.285   8.857  0.7608  0.7080 -0.4779
38718SOL     OW25121   4.735  11.263  12.201  0.1925  0.2891  0.3178
38718SOL    HW125122   4.700  11.300  12.120 -0.8978 -1.7854 -0.2297
38718SOL    HW225123   4.782  11.335  12.242  0.2053  1.5842 -1.8251
38719SOL     OW25124   6.738   5.439   5.355  0.5909  0.3113  0.3744
38719SOL    HW125125   6.718   5.461   5.265  0.6277 -1.0020  0.0211
38719SOL    HW225126   6.656   5.453   5.403  0.6487  1.2790  0.2022
38720SOL     OW25127   0.764  11.203   6.457  0.4361  0.3550 -0.3622
38720SOL    HW125128   0.715  11.199   6.539 -0.4709  2.8685 -0.7007
38720SOL    HW225129   0.714  11.148   6.397 -1.8685  2.4942 -0.5699
38721SOL     OW25130   4.178   4.134   4.744 -0.5863 -0.3022 -0.4121
38721SOL    HW125131   4.257   4.183   4.719 -0.8427  0.4951  0.3032
38721SOL    HW225132   4.173   4.143   4.839  0.1765 -2.9767 -0.0357
38722SOL     OW25133  10.648   6.477   3.655  0.3157  0.0262  0.0374
38722SOL    HW125134  10.623   6.511   3.741 -0.9638 -0.5825 -0.0734
38722SOL    HW225135  10.740   6.452   3.665  0.0215 -0.6253  1.4394
38723SOL     OW25136   4.153  11.298   8.036 -0.1325 -0.0329 -0.2020
38723SOL    HW125137   4.208  11.282   7.960  1.6471  2.1738  0.5211
38723SOL    HW225138   4.109  11.381   8.018 -0.2139  0.1798  0.8838
38724SOL     OW25139   4.993   7.998  11.876  0.2479  0.2311  0.0124
38724SOL    HW125140   4.972   7.953  11.794 -1.2144 -1.7684  1.3996
38724SOL    HW225141   5.089   7.997  11.880  0.4934  2.3235 -2.6443
38725SOL     OW25142   4.028   2.475   2.954  0.2999  0.1655 -0.0317
38725SOL    HW125143   4.111   2.453   2.913 -0.3657  0.0278 -1.3677
38725SOL    HW225144   4.041   2.563   2.989  1.9656 -0.9817  2.5552
38726SOL     OW25145   7.406  12.182   2.342  0.2023 -0.0788 -0.3167
38726SOL    HW125146   7.396  12.135   2.259 -0.1346  0.0457 -0.3452
38726SOL    HW225147   7.501  12.190   2.353  0.2441  1.0926 -1.3510
38727SOL     OW25148   3.132   5.872   6.914  0.1412  0.4109 -0.2964
38727SOL    HW125149   3.158   5.835   6.998  2.7196 -0.6632 -1.4558
38727SOL    HW225150   3.108   5.962   6.933 -1.7813 -0.4697  1.9054
38728SOL     OW25151   1.059   5.833   7.167  0.0751 -0.1781 -0.4599
38728SOL    HW125152   1.077   5.896   7.237  1.2032 -0.9616 -0.0305
38728SOL    HW225153   1.003   5.882   7.106 -0.7410  0.5980  0.8395
38729SOL     OW25154   9.028   0.904  11.612  0.4215 -0.2119 -0.5912
38729SOL    HW125155   9.016   0.877  11.521  0.0279 -0.1047 -0.5706
38729SOL    HW225156   9.032   0.999  11.609 -2.3013 -0.0030 -0.2110
38730SOL     OW25157   1.592  12.360   5.176  0.1724  0.9165  0.2822
38730SOL    HW125158   1.588  12.296   5.105  2.0230  0.7372  0.2883
38730SOL    HW225159   1.675  12.405   5.163  1.1373  0.0955  2.9886
38731SOL     OW25160   5.699   3.530   2.059  0.3494 -0.7104  0.0725
38731SOL    HW125161   5.623   3.567   2.013 -0.4898 -0.1997  1.7669
38731SOL    HW225162   5.724   3.453   2.008 -0.7080 -0.3322 -1.0495
38732SOL     OW25163   8.158   6.343   9.123 -0.4670  0.3985 -0.0778
38732SOL    HW125164   8.220   6.364   9.194 -0.5712 -2.0099  0.8246
38732SOL    HW225165   8.195   6.385   9.046  1.5626  0.1983  0.7221
38733SOL     OW25166  10.349  10.335   5.582  0.6390 -0.0405  0.0031
38733SOL    HW125167  10.425  10.341   5.639 -0.0810 -2.3424  1.3032
38733SOL    HW225168  10.385  10.338   5.493  2.1214 -0.0231  0.5811
38734SOL     OW25169  11.486   4.956   5.573  0.3308  0.3098 -0.6222
38734SOL    HW125170  11.500   5.035   5.626  0.1719 -0.2493  0.2798
38734SOL    HW225171  11.566   4.905   5.584  0.0735 -0.0685 -0.4556
38735SOL     OW25172  10.581   8.388   2.796  0.4063  0.1779  0.1216
38735SOL    HW125173  10.653   8.429   2.747 -0.0291  1.2479  0.3661
38735SOL    HW225174  10.618   8.370   2.883  0.2859  1.0320  0.3536
38736SOL     OW25175  10.331  11.131   6.832 -0.3635  0.0694  0.0305
38736SOL    HW125176  10.365  11.158   6.918  0.7519  1.3627 -0.7775
38736SOL    HW225177  10.269  11.062   6.852 -0.3072  0.5001  1.9121
38737SOL     OW25178   3.344  10.082   6.826  0.6191  0.0912  0.1569
38737SOL    HW125179   3.385  10.165   6.801 -0.1981  0.4147 -0.1294
38737SOL    HW225180   3.398  10.015   6.784  1.7891  0.4198  1.0723
38738SOL     OW25181   8.112   0.688   4.348  0.3475 -0.5021 -0.1443
38738SOL    HW125182   8.170   0.652   4.416 -0.9298 -2.2270  0.0941
38738SOL    HW225183   8.081   0.612   4.300  2.1886  0.6991 -3.6160
38739SOL     OW25184  10.716   5.480   7.945 -0.4340  1.0264 -0.0066
38739SOL    HW125185  10.775   5.542   7.988  0.4514  1.4414 -1.7203
38739SOL    HW225186  10.723   5.501   7.852 -0.4946 -1.2992 -0.6093
38740SOL     OW25187   1.340   8.714  11.885  0.4208 -0.4915 -0.2137
38740SOL    HW125188   1.397   8.790  11.891 -1.5910  1.0769  0.1021
38740SOL    HW225189   1.311   8.712  11.794 -3.0583  2.0002  0.6252
38741SOL     OW25190   1.018  11.815  10.218 -0.0380  0.1795 -0.7279
38741SOL    HW125191   0.946  11.808  10.280 -0.3112  0.6794 -0.9855
38741SOL    HW225192   1.033  11.909  10.208  0.0859  0.1011 -1.3198
38742SOL     OW25193   9.443   9.382   2.839  0.5971 -0.1245 -0.1936
38742SOL    HW125194   9.465   9.469   2.806 -0.2937  0.1906  0.0087
38742SOL    HW225195   9.354   9.391   2.873 -0.6708 -1.7553 -2.7315
38743SOL     OW25196   5.558  12.192  12.221  0.2170  0.1615 -0.4855
38743SOL    HW125197   5.580  12.249  12.295  0.7594 -2.0301  1.1500
38743SOL    HW225198   5.643  12.162  12.188 -0.0732  0.0120 -1.1028
38744SOL     OW25199   5.975   6.709  12.381 -0.8179 -0.1906  0.0585
38744SOL    HW125200   5.933   6.627  12.357 -0.8311  0.1721 -1.2156
38744SOL    HW225201   5.903   6.770  12.396 -0.7940 -0.2642  0.4961
38745SOL     OW25202   1.282   7.535  12.015  0.0576  0.1065 -0.1601
38745SOL    HW125203   1.237   7.452  12.030  1.0627 -0.3263  0.6141
38745SOL    HW225204   1.211   7.599  12.001 -0.7496 -0.7240  0.0329
38746SOL     OW25205   9.731   6.492   5.450  0.6278  0.2010 -0.3406
38746SOL    HW125206   9.650   6.518   5.494 -0.6928  0.1005 -2.5435
38746SOL    HW225207   9.797   6.554   5.482 -1.0073  2.2835 -0.7514
38747SOL     OW25208   1.556   7.031  11.118 -0.0500 -0.1872  0.1307
38747SOL    HW125209   1.494   7.077  11.062  0.1471 -0.4691 -0.3276
38747SOL    HW225210   1.544   7.070  11.204 -1.1357 -0.4936  0.1376
38748SOL     OW25211   8.339   1.435   0.018  0.3640  0.1858 -0.7897
38748SOL    HW125212   8.426   1.413   0.051  0.7762  0.7717 -1.4576
38748SOL    HW225213   8.297   1.482   0.090  0.2597 -0.8766 -0.1356
38749SOL     OW25214  10.189  10.687   5.302 -0.2821  0.2615 -0.4286
38749SOL    HW125215  10.191  10.605   5.351  0.3603  0.6220  0.1583
38749SOL    HW225216  10.271  10.731   5.325  1.5886 -0.8658 -4.1253
38750SOL     OW25217   3.182   7.219  10.909  0.4363  0.5925 -0.3245
38750SOL    HW125218   3.193   7.311  10.883 -0.8983  0.3587 -1.9180
38750SOL    HW225219   3.247   7.172  10.856 -0.0067  0.4657 -0.7669
38751SOL     OW25220   2.792   2.856   5.184  0.2620  0.2502 -0.6048
38751SOL    HW125221   2.862   2.918   5.203 -0.0375  0.7715 -1.1596
38751SOL    HW225222   2.772   2.815   5.268  2.2452 -1.0164 -0.6963
38752SOL     OW25223   6.557   5.433   2.492  0.3513 -0.4519  0.5259
38752SOL    HW125224   6.539   5.373   2.564  0.9793 -1.3798 -0.0676
38752SOL    HW225225   6.515   5.393   2.416 -0.1261  0.4101  0.3212
38753SOL     OW25226  11.301   1.097   0.553 -0.2304 -0.2553  0.7059
38753SOL    HW125227  11.375   1.038   0.539 -0.0561  0.1882 -0.4039
38753SOL    HW225228  11.327   1.178   0.510 -1.7072 -0.3644 -0.4713
38754SOL     OW25229   9.057   1.510   1.780  0.0043 -0.2452 -0.1939
38754SOL    HW125230   8.964   1.511   1.755 -0.1751 -1.1081  0.3797
38754SOL    HW225231   9.100   1.569   1.717 -1.0331  0.7171 -0.0387
38755SOL     OW25232   1.550   2.387   9.473  0.0617 -0.0133  0.5944
38755SOL    HW125233   1.577   2.478   9.464  0.0127 -0.1408 -1.1965
38755SOL    HW225234   1.468   2.382   9.423 -0.0855 -0.9653  0.9182
38756SOL     OW25235   8.268   8.224   1.766  0.1971  0.0099 -0.2375
38756SOL    HW125236   8.175   8.239   1.750 -0.1719 -2.5240 -0.8694
38756SOL    HW225237   8.288   8.280   1.841 -1.8332  0.6388 -0.0933
38757SOL     OW25238  12.371  11.815   3.307  0.7933 -0.5888  0.3779
38757SOL    HW125239  12.405  11.770   3.230  0.9737 -1.5488  0.9957
38757SOL    HW225240  12.365  11.747   3.374 -1.4220 -0.2437  0.6007
38758SOL     OW25241   4.216   0.651   2.930  0.6054 -0.1817  0.0653
38758SOL    HW125242   4.249   0.565   2.902  1.3558 -1.0339  3.1486
38758SOL    HW225243   4.231   0.652   3.025 -2.1635  2.1792  0.6041
38759SOL     OW25244   6.251   5.021   4.378  0.3474  0.0041  0.0272
38759SOL    HW125245   6.205   4.940   4.400  2.5176 -1.1633  0.5939
38759SOL    HW225246   6.320   4.993   4.318  1.0732  1.4624  0.1475
38760SOL     OW25247   7.749   5.339   7.098 -0.0685  0.4129  0.2052
38760SOL    HW125248   7.736   5.431   7.122  1.6765  1.0479 -1.0784
38760SOL    HW225249   7.843   5.333   7.078 -0.1847 -1.6213  0.1206
38761SOL     OW25250   9.357   1.783   6.137 -0.1134  0.1507  0.3734
38761SOL    HW125251   9.291   1.774   6.206 -1.0796 -1.9776 -0.7519
38761SOL    HW225252   9.414   1.854   6.168 -1.3465  0.2351  2.6543
38762SOL     OW25253  10.836   4.563   9.732  0.1704  0.1361 -0.0103
38762SOL    HW125254  10.849   4.656   9.713  0.9019  0.3121  1.2545
38762SOL    HW225255  10.904   4.542   9.796 -1.5505 -0.6388  1.6654
38763SOL     OW25256   3.801  10.188   5.165  0.0179 -0.3006  0.1258
38763SOL    HW125257   3.852  10.134   5.106  0.6750  0.6866 -0.2300
38763SOL    HW225258   3.736  10.231   5.109 -0.6557 -0.8865  0.4410
38764SOL     OW25259   4.270   8.258   7.406  0.7398 -0.2966  0.2544
38764SOL    HW125260   4.310   8.292   7.326  1.0667  1.8630  1.2545
38764SOL    HW225261   4.341   8.255   7.469  0.2638 -0.9417  0.7765
38765SOL     OW25262  11.551   8.068   5.527  0.2011  0.0055  0.0177
38765SOL    HW125263  11.546   8.160   5.555  0.7182 -0.1450  0.6275
38765SOL    HW225264  11.546   8.072   5.432  1.0560  0.7311 -0.0065
38766SOL     OW25265   6.923   5.904  11.678 -0.5466  0.1457  0.0716
38766SOL    HW125266   6.892   5.870  11.594  0.6513 -0.5249 -0.1070
38766SOL    HW225267   6.999   5.851  11.700  0.9654  2.1928  0.1463
38767SOL     OW25268   0.728   9.413   1.944  0.1761  0.3792  0.2685
38767SOL    HW125269   0.798   9.441   2.003  0.1405 -0.2228  0.6108
38767SOL    HW225270   0.696   9.331   1.983 -0.5505  0.5215 -0.0146
38768SOL     OW25271   4.527   1.425   7.064  0.2463  0.3501 -0.0082
38768SOL    HW125272   4.593   1.424   7.133 -0.7931  0.0724  1.0073
38768SOL    HW225273   4.540   1.343   7.017 -1.3220 -1.2378  2.1315
38769SOL     OW25274   0.306   4.800  10.931  0.9297  0.1580 -0.1419
38769SOL    HW125275   0.284   4.714  10.896  1.7235 -0.9962  2.0345
38769SOL    HW225276   0.223   4.836  10.962  0.9793 -1.3037  1.9224
38770SOL     OW25277   8.966   8.392   7.808 -0.1789  0.0474  0.5143
38770SOL    HW125278   9.003   8.326   7.749 -0.2342  0.9811 -0.6037
38770SOL    HW225279   8.914   8.449   7.751 -2.4499 -0.5525  1.8586
38771SOL     OW25280   2.200   9.518  10.283 -0.0806  0.7391  0.3077
38771SOL    HW125281   2.167   9.468  10.357 -0.3948 -0.1054 -0.3811
38771SOL    HW225282   2.153   9.484  10.207  1.7268  0.0814 -0.5931
38772SOL     OW25283   0.639   6.752  11.096  0.0679  0.0686  0.1184
38772SOL    HW125284   0.581   6.799  11.037  1.4798  2.9076  0.8198
38772SOL    HW225285   0.693   6.697  11.039 -2.0872 -1.3486 -0.6619
38773SOL     OW25286   9.179  10.952  10.078 -0.0281  0.3910 -0.5970
38773SOL    HW125287   9.100  11.000  10.053 -0.0779  0.9912  0.6568
38773SOL    HW225288   9.246  11.019  10.087  0.2936  0.0403 -0.3431
38774SOL     OW25289   3.154   1.479   0.866 -0.3353  0.0053  0.6604
38774SOL    HW125290   3.181   1.501   0.777  1.0748  2.0629  1.5329
38774SOL    HW225291   3.074   1.530   0.881 -0.0532  0.3853  0.8809
38775SOL     OW25292   5.333  11.659   0.618  0.3381 -0.4237 -0.5401
38775SOL    HW125293   5.266  11.721   0.648 -0.2943 -1.2208 -0.2689
38775SOL    HW225294   5.322  11.656   0.523  0.3548 -0.1396 -0.5518
38776SOL     OW25295   8.101   9.885   4.382  0.1432  0.1843  0.6637
38776SOL    HW125296   8.075   9.840   4.301  0.3699  1.2671 -0.0370
38776SOL    HW225297   8.080   9.823   4.452 -2.9060  0.3610  0.0545
38777SOL     OW25298   9.439   9.476   4.664  0.0918 -0.3047 -0.1992
38777SOL    HW125299   9.408   9.495   4.576  0.0520 -2.2008 -0.6304
38777SOL    HW225300   9.362   9.440   4.710 -0.0660  1.2586  0.8352
38778SOL     OW25301   0.637   9.120   4.220 -0.8753 -0.4407 -0.4339
38778SOL    HW125302   0.578   9.172   4.166 -0.4907 -0.4053 -0.8246
38778SOL    HW225303   0.582   9.049   4.253 -2.0970  1.5894  2.2446
38779SOL     OW25304   0.144   6.388   2.271  0.0395 -0.2963 -0.4303
38779SOL    HW125305   0.139   6.298   2.303  0.0936 -0.4910 -0.9645
38779SOL    HW225306   0.234   6.397   2.238  0.3397  0.2517  0.4865
38780SOL     OW25307   7.112   2.464   1.845 -0.3841 -0.9185 -0.3121
38780SOL    HW125308   7.048   2.422   1.903 -1.6314  1.5565  0.2694
38780SOL    HW225309   7.164   2.519   1.903 -0.5615  0.3397 -1.3073
38781SOL     OW25310   4.633   3.137   7.083  0.2368 -0.1835  0.3600
38781SOL    HW125311   4.699   3.097   7.139  0.9525  1.3243  0.6485
38781SOL    HW225312   4.594   3.064   7.036  2.5193 -1.0768 -0.2739
38782SOL     OW25313   5.269   4.888   3.458 -0.1169 -0.1700 -0.1980
38782SOL    HW125314   5.344   4.831   3.475  0.5870  0.7299 -0.2073
38782SOL    HW225315   5.194   4.842   3.497  0.5072 -0.8733  0.1939
38783SOL     OW25316   2.767  12.007  10.305  0.4627  0.5929  0.3936
38783SOL    HW125317   2.715  12.038  10.379  0.2460  1.3457 -0.0649
38783SOL    HW225318   2.748  11.913  10.300  0.7993  0.4462  1.5400
38784SOL     OW25319   9.373   3.740   1.114 -0.0261 -0.7088 -0.7571
38784SOL    HW125320   9.313   3.691   1.170 -0.5850 -0.3975 -1.0816
38784SOL    HW225321   9.316   3.790   1.055  0.4896  0.9499  0.0691
38785SOL     OW25322   3.520   7.360   2.750 -0.1819  0.0268  0.2722
38785SOL    HW125323   3.480   7.278   2.779 -0.7267  0.0164 -0.4849
38785SOL    HW225324   3.614   7.341   2.745 -0.1414 -0.1537  1.3896
38786SOL     OW25325  10.260   6.678   6.125  0.1908  0.1018 -0.4792
38786SOL    HW125326  10.238   6.645   6.212 -0.1793  1.4927 -0.0138
38786SOL    HW225327  10.175   6.688   6.081  0.3214  0.0754 -0.7362
38787SOL     OW25328   6.341   9.091   8.782 -0.2292  0.0293  0.6286
38787SOL    HW125329   6.316   9.087   8.689 -1.8746 -1.9413  1.0928
38787SOL    HW225330   6.264   9.126   8.826 -1.0469 -2.8366  1.6753
38788SOL     OW25331   1.397   0.510   1.983 -0.2650 -0.1851  0.2177
38788SOL    HW125332   1.342   0.536   2.057  1.0464 -0.8198  1.4792
38788SOL    HW225333   1.389   0.581   1.920 -3.1473 -0.6356 -0.0338
38789SOL     OW25334   6.970   9.497   1.503  0.5090  0.0179  0.0356
38789SOL    HW125335   6.974   9.402   1.491  0.9208  0.1857 -1.3506
38789SOL    HW225336   6.890   9.524   1.457 -0.6428  0.1706  1.9951
38790SOL     OW25337   3.466   7.009   4.540 -0.1328 -0.1310  0.6537
38790SOL    HW125338   3.551   7.039   4.508 -0.0896 -0.5325  0.3804
38790SOL    HW225339   3.474   7.010   4.636  0.1265 -0.0177  0.6301
38791SOL     OW25340  12.043   8.577   2.944 -0.0087  0.0837  0.0802
38791SOL    HW125341  11.962   8.530   2.964  0.5719 -1.1550 -0.3632
38791SOL    HW225342  12.099   8.560   3.020  0.2573 -0.0782 -0.1484
38792SOL     OW25343   8.083   7.409  11.055  0.4189  0.0998  0.0570
38792SOL    HW125344   7.988   7.402  11.051  0.3059  0.8807  0.9868
38792SOL    HW225345   8.101   7.446  11.142  1.5103  0.9902 -0.5223
38793SOL     OW25346   0.419   5.662   4.011 -0.0353 -0.1655  0.0925
38793SOL    HW125347   0.457   5.631   4.093 -0.9189 -1.5552  0.0109
38793SOL    HW225348   0.347   5.720   4.037  0.0792 -0.1111  0.2846
38794SOL     OW25349   8.513   7.308   8.450 -0.0649  0.2629 -0.3261
38794SOL    HW125350   8.522   7.224   8.406  0.2995 -0.1333  0.4849
38794SOL    HW225351   8.596   7.353   8.434 -0.4402  0.6823 -1.1677
38795SOL     OW25352  10.368   7.680   4.496 -0.2044  0.1858  0.7842
38795SOL    HW125353  10.461   7.691   4.516 -0.1418 -0.2951  0.7622
38795SOL    HW225354  10.347   7.754   4.438  1.2178 -1.9129 -2.7568
38796SOL     OW25355   0.230   4.391   3.960  0.2433  0.2387 -0.1447
38796SOL    HW125356   0.240   4.355   4.048  1.1270  0.5575 -0.1090
38796SOL    HW225357   0.197   4.480   3.975  0.0779  0.1817 -0.1576
38797SOL     OW25358   6.078   2.167   7.522 -0.4478 -0.0838  0.2047
38797SOL    HW125359   6.077   2.097   7.456 -0.7281  0.7627 -0.7195
38797SOL    HW225360   5.985   2.186   7.538 -0.3697  0.6480 -0.1842
38798SOL     OW25361  12.370   0.568   0.504  0.7086 -0.0884  0.2177
38798SOL    HW125362  12.297   0.511   0.527 -0.3836  0.9168 -0.5910
38798SOL    HW225363  12.442   0.509   0.484 -0.0486 -1.1383  0.5125
38799SOL     OW25364   1.391   8.659   5.085  1.1863 -0.1263  0.2311
38799SOL    HW125365   1.485   8.658   5.099  0.9209  0.0529  2.3261
38799SOL    HW225366   1.377   8.732   5.024  2.4078 -0.3038 -0.2862
38800SOL     OW25367   8.752   3.263   4.574 -0.0196  0.1853  0.0552
38800SOL    HW125368   8.767   3.238   4.665 -1.5584  0.1776  0.3301
38800SOL    HW225369   8.662   3.237   4.556  0.3951 -0.2161 -1.6209
38801SOL     OW25370   3.429   1.475   8.991  0.4064 -0.4247 -0.3661
38801SOL    HW125371   3.513   1.430   8.981  0.2521 -0.6755 -0.5505
38801SOL    HW225372   3.417   1.481   9.086  1.3446  0.9765 -0.3015
38802SOL     OW25373   0.624   1.428   5.415  0.3675  0.4558 -0.5808
38802SOL    HW125374   0.598   1.439   5.324  0.1179 -0.0035 -0.5666
38802SOL    HW225375   0.644   1.335   5.423 -1.1881  0.1660  0.2377
38803SOL     OW25376  11.053   9.822   9.071 -0.0180  0.1164  0.1225
38803SOL    HW125377  11.011   9.762   9.009  0.2629  1.5781 -1.5471
38803SOL    HW225378  10.981   9.871   9.110 -0.1370 -0.2610  0.3846
38804SOL     OW25379  10.053   9.208   3.248  0.2524 -0.1250  0.2770
38804SOL    HW125380  10.137   9.223   3.206 -0.5088 -0.2258 -1.3532
38804SOL    HW225381  10.004   9.153   3.187 -1.9554  2.0731 -0.1073
38805SOL     OW25382   7.845   2.170   6.307 -0.0869 -0.2260  0.6540
38805SOL    HW125383   7.868   2.090   6.354  0.5841  0.6580  1.8765
38805SOL    HW225384   7.865   2.241   6.368 -1.0665  0.8667 -0.2424
38806SOL     OW25385   1.957   7.303   1.990  0.3712 -0.4871  0.2225
38806SOL    HW125386   1.969   7.251   1.911  1.1816  1.4458 -1.0183
38806SOL    HW225387   2.043   7.301   2.033  0.1514 -0.8985  0.6443
38807SOL     OW25388   8.582   3.127   3.988 -0.2625 -0.0252 -0.2288
38807SOL    HW125389   8.562   3.220   4.002 -0.7969  0.2279 -2.3062
38807SOL    HW225390   8.535   3.105   3.908 -0.5830 -2.2632  0.5089
38808SOL     OW25391   1.049   4.151   6.869  0.3403  0.3613 -0.8070
38808SOL    HW125392   1.029   4.130   6.778  0.1639  2.7138 -1.3849
38808SOL    HW225393   1.137   4.188   6.866 -0.6045  2.8282 -0.4994
38809SOL     OW25394   0.093  11.143  12.121 -0.5291  0.3022  0.0454
38809SOL    HW125395   0.001  11.121  12.130 -0.4075 -1.4096 -2.0492
38809SOL    HW225396   0.139  11.059  12.134  0.7602  1.1372  1.1664
38810SOL     OW25397  10.552   3.313   5.415  0.1015 -0.0703 -0.3958
38810SOL    HW125398  10.493   3.302   5.341  2.0337  1.7939 -2.3460
38810SOL    HW225399  10.594   3.227   5.425 -1.6033 -0.9084 -0.1012
38811SOL     OW25400   5.483   5.161   0.214 -0.3934  0.3555 -0.4566
38811SOL    HW125401   5.499   5.216   0.291 -0.6561 -0.4258  0.1762
38811SOL    HW225402   5.447   5.220   0.149 -0.8314  0.9054  0.2624
38812SOL     OW25403   7.960  10.492   3.356  0.2197 -0.5753 -0.1454
38812SOL    HW125404   7.983  10.579   3.389  1.7249 -1.8509  2.4571
38812SOL    HW225405   7.866  10.485   3.373 -0.4862  1.3526 -2.6415
38813SOL     OW25406   4.962   9.092  11.413 -0.4561  0.1167  0.4081
38813SOL    HW125407   5.003   9.148  11.347  2.7885 -0.9996  1.3411
38813SOL    HW225408   5.012   9.106  11.493 -1.2600 -2.0989  1.3899
38814SOL     OW25409   8.959  10.267   8.597 -0.3538  0.0427  0.3688
38814SOL    HW125410   9.009  10.188   8.618  0.7573  0.5168 -0.3429
38814SOL    HW225411   9.003  10.302   8.519 -0.5669  1.5663  0.9048
38815SOL     OW25412   2.709  11.148   9.113 -0.0066 -0.1251  0.2963
38815SOL    HW125413   2.614  11.151   9.101 -0.0238  0.8198  0.5602
38815SOL    HW225414   2.742  11.224   9.065  0.9716 -2.1362 -2.4477
38816SOL     OW25415   2.105   0.914   9.381  0.4415 -0.7963 -0.2309
38816SOL    HW125416   2.129   0.946   9.295 -2.3687  0.9148 -0.5134
38816SOL    HW225417   2.024   0.864   9.366  1.5159 -3.1240  1.0685
38817SOL     OW25418   8.795  11.051  10.219  0.4725  0.2908  0.0551
38817SOL    HW125419   8.700  11.043  10.215  0.3791  1.4817 -0.4245
38817SOL    HW225420   8.826  11.014  10.136  0.3839  0.4203 -0.0366
38818SOL     OW25421   1.468   3.758  12.146  0.2205  0.2847 -0.4191
38818SOL    HW125422   1.417   3.810  12.208  1.9860  1.0082  0.5066
38818SOL    HW225423   1.449   3.667  12.169  0.3087  0.5429  0.7354
38819SOL     OW25424   5.471  12.246   0.447 -0.0059  0.1156  0.3463
38819SOL    HW125425   5.423  12.207   0.374  0.6296  0.0395 -0.0328
38819SOL    HW225426   5.440  12.337   0.451 -0.8745 -0.1865  0.7061
38820SOL     OW25427  11.881   9.684   9.175  0.6781 -0.1266  0.2153
38820SOL    HW125428  11.837   9.650   9.097 -1.4352  1.1169  0.7775
38820SOL    HW225429  11.854   9.625   9.245  1.7982 -0.6848  0.1869
38821SOL     OW25430  11.443   2.025  11.166 -0.4556  0.1433  0.4956
38821SOL    HW125431  11.350   2.013  11.143 -0.3055 -0.5751  0.2314
38821SOL    HW225432  11.489   1.959  11.114  0.0903 -0.2362  1.4326
38822SOL     OW25433   4.007   8.451   6.751  0.0093  0.3871 -0.4756
38822SOL    HW125434   3.939   8.428   6.687 -0.3060  2.1011 -0.8065
38822SOL    HW225435   4.089   8.440   6.703 -0.1123 -0.1858 -0.5636
38823SOL     OW25436   6.659   6.843   1.833 -0.0411  0.2002  0.1537
38823SOL    HW125437   6.596   6.911   1.855  0.5173  0.5837  0.5855
38823SOL    HW225438   6.653   6.780   1.906  0.7110  0.6942  0.6544
38824SOL     OW25439  10.698   5.538   5.135  0.2817  0.3098  0.5090
38824SOL    HW125440  10.725   5.484   5.061  1.4116  1.1482  0.2645
38824SOL    HW225441  10.687   5.477   5.207  0.0860 -0.4074 -0.1180
38825SOL     OW25442   7.328   8.799   1.777 -0.2674  0.2624  0.3757
38825SOL    HW125443   7.297   8.714   1.808 -2.2223  0.6999 -0.2510
38825SOL    HW225444   7.394   8.778   1.711  1.2930 -0.7000  2.1537
38826SOL     OW25445   3.275   9.519  12.412  0.0282  0.2118  0.7268
38826SOL    HW125446   3.202   9.459  12.397  0.5099 -0.2333  0.1197
38826SOL    HW225447   3.288   9.562  12.327 -0.9683  1.9475  1.3905
38827SOL     OW25448   1.301  10.369   0.872  0.2836  0.3106  0.0252
38827SOL    HW125449   1.326  10.341   0.784 -1.6823 -1.2583 -0.1076
38827SOL    HW225450   1.209  10.392   0.865  0.0968  0.1996  1.6546
38828SOL     OW25451  12.390   8.580  11.285 -0.0823  0.1579 -0.2079
38828SOL    HW125452  12.432   8.567  11.370  0.5581  1.2929 -0.3223
38828SOL    HW225453  12.371   8.674  11.282 -1.1755 -0.0643 -0.8374
38829SOL     OW25454  11.219  12.210   5.919  0.4902  0.4471  0.2072
38829SOL    HW125455  11.299  12.251   5.953  0.5291 -0.8358  1.7991
38829SOL    HW225456  11.164  12.283   5.893  2.1112  1.3776 -0.7972
38830SOL     OW25457   3.202   6.511   0.109  0.3537 -0.1799 -0.7150
38830SOL    HW125458   3.173   6.429   0.069 -0.3207 -0.5792  0.5327
38830SOL    HW225459   3.162   6.579   0.056 -1.5401 -0.7076 -0.0457
38831SOL     OW25460   9.960  11.326  12.457  0.2939 -0.2226 -0.1679
38831SOL    HW125461   9.908  11.249  12.477  1.1506 -1.1700 -1.4510
38831SOL    HW225462   9.922  11.396  12.511  0.0120 -1.6928  1.6263
38832SOL     OW25463  12.274  11.320  12.471 -0.1097  0.2663 -0.1993
38832SOL    HW125464  12.327  11.396  12.443  0.7694 -0.6635 -1.1524
38832SOL    HW225465  12.200  11.359  12.517  1.4989  1.6371  1.3821
38833SOL     OW25466   4.415   5.262   9.867  0.4484  0.6246 -0.4113
38833SOL    HW125467   4.402   5.286   9.959 -0.1598  1.0049 -0.5966
38833SOL    HW225468   4.369   5.329   9.817 -0.8162 -0.5836 -0.9493
38834SOL     OW25469   3.883   1.925   4.725  0.1460  0.2439  0.2625
38834SOL    HW125470   3.796   1.927   4.685  0.7991  0.5418 -1.2252
38834SOL    HW225471   3.930   1.857   4.677  0.8564  0.3716  0.7618
38835SOL     OW25472   3.151   5.793  10.444 -0.8899  0.3901 -0.0616
38835SOL    HW125473   3.231   5.741  10.436 -0.5224  0.5691  1.8364
38835SOL    HW225474   3.108   5.785  10.359  0.0745 -1.4690 -0.4243
38836SOL     OW25475   0.411   0.916   2.737  0.3645  0.0052  0.5195
38836SOL    HW125476   0.348   0.870   2.793  0.3009 -0.9118 -0.3023
38836SOL    HW225477   0.446   0.849   2.679  2.6467  0.3410  1.4122
38837SOL     OW25478   0.797   7.957  10.214 -0.1493 -0.2828  0.4987
38837SOL    HW125479   0.842   8.038  10.188  1.0448 -1.0758 -0.0171
38837SOL    HW225480   0.704   7.977  10.203  0.1759 -0.1569 -3.5052
38838SOL     OW25481   9.402  11.507   8.857 -0.0838 -0.8182 -0.1096
38838SOL    HW125482   9.335  11.452   8.818 -1.4760  0.6283  0.1433
38838SOL    HW225483   9.429  11.566   8.787 -0.7080  0.0707  0.3853
38839SOL     OW25484   0.860  10.005  11.887  0.4359  0.3050  0.1499
38839SOL    HW125485   0.948  10.010  11.925  1.2770  2.1064 -1.8415
38839SOL    HW225486   0.828  10.096  11.889 -0.7630 -0.0806 -0.5394
38840SOL     OW25487   9.717   7.658   1.946  0.3561  0.1934  0.4941
38840SOL    HW125488   9.693   7.695   2.032 -0.1572  0.8039  0.0944
38840SOL    HW225489   9.672   7.574   1.943 -1.3367  1.0757 -0.0075
38841SOL     OW25490   3.584   3.322   5.037  0.2246 -0.2807 -0.0018
38841SOL    HW125491   3.495   3.304   5.006 -0.0890 -0.2753  0.8663
38841SOL    HW225492   3.575   3.333   5.132  1.5351 -3.1537  0.5965
38842SOL     OW25493   8.887   7.895   3.949 -0.0419  0.7554 -0.8337
38842SOL    HW125494   8.925   7.887   3.862 -1.5354  3.9099 -1.9238
38842SOL    HW225495   8.800   7.856   3.941  1.1990 -2.7640  0.5616
38843SOL     OW25496   2.507   3.135   1.870 -0.1415  0.8525 -0.3604
38843SOL    HW125497   2.600   3.155   1.887 -0.2704  0.0016  1.6054
38843SOL    HW225498   2.509   3.078   1.793  0.9860  0.7545 -0.2848
38844SOL     OW25499   1.999   8.505   9.865 -0.1691 -0.9809  0.3575
38844SOL    HW125500   2.058   8.433   9.889 -0.1057 -0.6060  1.3723
38844SOL    HW225501   1.925   8.496   9.925 -0.7705 -0.9646 -0.3788
38845SOL     OW25502   1.461   1.350   7.941  0.1281 -0.0740 -0.1245
38845SOL    HW125503   1.551   1.340   7.910  0.6010  0.4230  1.0471
38845SOL    HW225504   1.469   1.373   8.033 -1.2144 -0.2953  0.0743
38846SOL     OW25505   1.650   8.659   0.124  0.4814 -0.1632 -0.3187
38846SOL    HW125506   1.560   8.683   0.103  0.0793 -0.7788  0.6365
38846SOL    HW225507   1.697   8.743   0.126 -0.2762  0.2638  0.1192
38847SOL     OW25508   4.296   9.168   7.719  0.4973  0.3153  0.1716
38847SOL    HW125509   4.384   9.205   7.718  0.4643  0.3858 -0.3674
38847SOL    HW225510   4.303   9.091   7.775  1.2182 -0.4390 -0.9142
38848SOL     OW25511   9.046   1.122   1.987  0.6961  0.3685  0.0803
38848SOL    HW125512   8.980   1.190   2.004  0.4492 -0.2973  2.0961
38848SOL    HW225513   9.017   1.079   1.907 -0.6275  0.8966  0.2548
38849SOL     OW25514   7.286   6.407   4.187 -0.2091 -0.1533  0.1548
38849SOL    HW125515   7.307   6.371   4.274 -1.1895 -3.5329 -0.8495
38849SOL    HW225516   7.343   6.359   4.127  0.0399  1.7167 -1.1995
38850SOL     OW25517   8.854   3.035   5.246  0.2648 -0.7002 -0.4964
38850SOL    HW125518   8.813   3.098   5.186  1.5363  1.5748  0.8711
38850SOL    HW225519   8.886   2.965   5.190 -0.2144  0.4286 -2.2480
38851SOL     OW25520   0.036   1.689   1.522 -0.1340 -0.1006 -0.6063
38851SOL    HW125521   0.042   1.618   1.457 -0.7897 -1.5695  0.8592
38851SOL    HW225522   0.113   1.676   1.578  1.9260  2.7595 -2.4977
38852SOL     OW25523   5.846   2.582   1.836  0.3616  0.1293 -0.8767
38852SOL    HW125524   5.807   2.511   1.785  3.4158 -2.5752  0.2545
38852SOL    HW225525   5.924   2.607   1.786 -0.4933  2.6342 -1.1040
38853SOL     OW25526  11.148   8.068   2.818 -0.1730 -0.2799 -0.3905
38853SOL    HW125527  11.203   8.067   2.896  1.9237 -1.3825 -1.8063
38853SOL    HW225528  11.145   7.977   2.789  0.3795  0.3110 -2.4493
38854SOL     OW25529   2.426   7.877   5.358 -0.2228 -0.7388 -0.0389
38854SOL    HW125530   2.494   7.936   5.392 -0.8239 -0.4785  0.7521
38854SOL    HW225531   2.426   7.893   5.263  1.3415 -1.3221 -0.1636
38855SOL     OW25532  11.947   1.135   9.737 -0.5334 -0.2907 -0.0639
38855SOL    HW125533  11.905   1.153   9.821  0.8492 -1.4239  0.9407
38855SOL    HW225534  11.888   1.172   9.671 -1.7856  0.3961  1.3861
38856SOL     OW25535   9.150   1.823   6.305 -0.1665  0.3213 -0.7710
38856SOL    HW125536   9.075   1.797   6.253 -1.0483 -0.7691  0.9447
38856SOL    HW225537   9.113   1.870   6.380  0.8650  0.0119 -0.0297
38857SOL     OW25538  11.541   0.066   9.657 -0.0614 -0.2179  0.4281
38857SOL    HW125539  11.611   0.129   9.673 -0.0369 -0.0756 -0.2145
38857SOL    HW225540  11.569   0.019   9.578 -1.5563  1.1267 -0.9898
38858SOL     OW25541   6.471   0.344   6.647  0.1150  0.3351 -0.1837
38858SOL    HW125542   6.553   0.305   6.617  0.2049  1.6445 -1.7787
38858SOL    HW225543   6.434   0.385   6.569 -1.7660  0.3140  0.6429
38859SOL     OW25544   0.292   8.562   6.757  0.4009  0.1856 -0.3206
38859SOL    HW125545   0.305   8.555   6.851 -0.0445 -3.1320 -0.3846
38859SOL    HW225546   0.372   8.525   6.719 -0.1826 -0.2477 -1.1667
38860SOL     OW25547  11.503   0.507   5.340 -0.1606 -0.3786 -0.0563
38860SOL    HW125548  11.588   0.468   5.320 -0.2136 -0.8155  0.5340
38860SOL    HW225549  11.478   0.552   5.260  1.1036  0.6315  0.0926
38861SOL     OW25550  12.552   8.535   3.668  0.4759 -0.4874  0.2326
38861SOL    HW125551  12.626   8.522   3.609  0.2878 -0.9692  0.0996
38861SOL    HW225552  12.556   8.628   3.692 -0.3701  0.1441 -1.8134
38862SOL     OW25553   1.015   8.172   2.936  0.2831  0.3358  0.2612
38862SOL    HW125554   0.999   8.263   2.910  1.0624  0.5765  0.5991
38862SOL    HW225555   0.939   8.149   2.989 -0.4336  0.4379 -0.6919
38863SOL     OW25556   7.735   3.040   3.457  0.1677 -0.0397 -0.2464
38863SOL    HW125557   7.659   2.986   3.434  1.8157 -2.5494 -0.2710
38863SOL    HW225558   7.796   3.025   3.385  1.0721  1.1222  0.2638
38864SOL     OW25559   8.552   4.135   0.038 -0.1517  0.2316  0.2119
38864SOL    HW125560   8.594   4.195   0.099  0.7111 -0.4488  0.3152
38864SOL    HW225561   8.591   4.050   0.059 -2.0936 -0.5780  0.7886
38865SOL     OW25562   5.609   4.149   8.479  0.0300 -0.2845 -0.2087
38865SOL    HW125563   5.627   4.104   8.562  0.8964 -1.3717 -0.9655
38865SOL    HW225564   5.688   4.201   8.463 -0.6079  0.8438  0.2147
38866SOL     OW25565   1.146   0.423   5.155 -0.4759  0.7884 -0.4467
38866SOL    HW125566   1.147   0.423   5.059 -0.8285  1.5553 -0.4607
38866SOL    HW225567   1.220   0.479   5.180  0.2477 -0.2420 -0.2455
38867SOL     OW25568   6.085   0.430   4.053  0.4012 -0.2590 -0.0572
38867SOL    HW125569   6.098   0.410   4.146  1.2750 -2.0653 -0.5242
38867SOL    HW225570   6.048   0.519   4.053  2.4429  0.7014  1.9109
38868SOL     OW25571   3.313  12.380   7.746  0.1746 -0.4813 -0.1382
38868SOL    HW125572   3.378  12.357   7.814 -0.8133 -1.6649  0.4515
38868SOL    HW225573   3.236  12.407   7.796  1.1245  4.1095 -0.7858
38869SOL     OW25574  10.217   2.430   1.428  0.0533 -0.0916 -0.4032
38869SOL    HW125575  10.260   2.499   1.377 -0.7508  0.1166 -0.8164
38869SOL    HW225576  10.149   2.475   1.477 -0.4234 -0.5746 -0.6107
38870SOL     OW25577   1.243   3.384  12.121 -0.2611 -0.7605 -0.0360
38870SOL    HW125578   1.160   3.371  12.075 -0.0360  1.6723 -1.2379
38870SOL    HW225579   1.310   3.354  12.059 -0.0888  0.3136 -0.3839
38871SOL     OW25580   4.124   0.309   7.253  0.2938 -0.0402 -0.0034
38871SOL    HW125581   4.184   0.298   7.327  0.6092  3.1741  0.3644
38871SOL    HW225582   4.175   0.356   7.187 -0.6748 -0.8153 -1.3521
38872SOL     OW25583   7.866  10.981   3.198 -0.0095 -0.2354 -0.4802
38872SOL    HW125584   7.785  10.989   3.250  1.1945  0.7305  1.3590
38872SOL    HW225585   7.876  10.887   3.183 -0.0096 -0.6499  1.7692
38873SOL     OW25586   4.079   8.831   1.100 -0.2624  0.6200  0.8983
38873SOL    HW125587   4.148   8.888   1.067  1.1992  0.2058  3.0126
38873SOL    HW225588   4.125   8.762   1.147 -1.9787 -2.1217 -1.1239
38874SOL     OW25589   7.633   3.499  11.828  0.5144 -0.1161 -0.3822
38874SOL    HW125590   7.617   3.563  11.758 -0.2677 -1.7468 -1.7548
38874SOL    HW225591   7.678   3.427  11.785  0.0472 -1.1545  0.8123
38875SOL     OW25592   4.393   6.833  12.374 -0.0213  0.2664  0.3961
38875SOL    HW125593   4.434   6.920  12.368  0.8799 -0.2302 -1.8052
38875SOL    HW225594   4.460   6.778  12.415  0.3373  0.1314 -0.3507
38876SOL     OW25595   2.656  11.148   5.405  0.3530 -0.2407 -0.6533
38876SOL    HW125596   2.657  11.072   5.346  0.8602  0.7221 -1.9327
38876SOL    HW225597   2.711  11.213   5.361 -0.0537  0.8709  0.4281
38877SOL     OW25598   9.847   4.077   0.810 -0.1154  0.0014 -0.2062
38877SOL    HW125599   9.771   4.021   0.794  0.3028 -0.4289 -0.7153
38877SOL    HW225600   9.871   4.059   0.901  0.0005 -0.6326 -0.3582
38878SOL     OW25601  10.264   6.744   4.558  0.2123  0.0902 -0.7605
38878SOL    HW125602  10.279   6.754   4.651  1.1996  1.3773 -1.0421
38878SOL    HW225603  10.217   6.823   4.532 -0.1586 -0.3094 -1.3402
38879SOL     OW25604   5.034   8.440   3.578 -0.3629  0.2925 -0.0894
38879SOL    HW125605   5.062   8.360   3.533 -1.7166 -1.3622  1.8000
38879SOL    HW225606   4.962   8.473   3.526 -1.3052 -1.0758  0.2759
38880SOL     OW25607  12.242  11.642   2.102  0.0095 -0.4851  0.5210
38880SOL    HW125608  12.337  11.645   2.089  0.0148 -1.3456  0.3212
38880SOL    HW225609  12.207  11.703   2.036  0.3407 -1.2366 -0.3692
38881SOL     OW25610   3.694   4.957   2.410 -0.0106  0.1677 -0.6919
38881SOL    HW125611   3.652   5.042   2.423 -0.1621 -0.1052  0.6684
38881SOL    HW225612   3.768   4.956   2.471  0.4747 -0.3657 -1.2671
38882SOL     OW25613   0.295   2.124   6.405  0.0357  0.4202  0.3048
38882SOL    HW125614   0.347   2.059   6.453 -2.1899 -1.8275 -0.0934
38882SOL    HW225615   0.249   2.072   6.338  1.4836  3.0950 -3.0563
38883SOL     OW25616   7.758   2.783   8.244 -0.2588 -0.2969  0.2413
38883SOL    HW125617   7.759   2.878   8.251 -2.2135 -0.2502  0.4308
38883SOL    HW225618   7.699   2.754   8.313 -1.7652 -1.4511 -1.4270
38884SOL     OW25619   2.543  10.993  11.113  0.3011  0.1894 -0.2985
38884SOL    HW125620   2.473  10.957  11.059  0.8914  0.1150 -1.0346
38884SOL    HW225621   2.498  11.037  11.185 -0.5688  1.3611 -1.5034
38885SOL     OW25622   9.907   3.907   9.116 -0.6451 -0.1000  0.7337
38885SOL    HW125623   9.989   3.881   9.075 -1.6411 -1.0995 -0.7270
38885SOL    HW225624   9.868   3.825   9.145 -1.1304  0.3620  1.4072
38886SOL     OW25625   6.627   7.378   7.736  0.0692  0.0673  0.1762
38886SOL    HW125626   6.664   7.427   7.662  3.2363  1.7668  2.6234
38886SOL    HW225627   6.624   7.287   7.705  1.4244  0.6712 -1.9606
38887SOL     OW25628   0.733  11.438  10.870 -0.1377  0.2821  0.2455
38887SOL    HW125629   0.677  11.506  10.833 -1.1522 -0.8455 -0.3629
38887SOL    HW225630   0.683  11.405  10.945  1.4065  1.7925  2.0719
38888SOL     OW25631   1.733   7.171   2.055 -0.2330 -0.1142 -0.0322
38888SOL    HW125632   1.656   7.213   2.094 -0.3406 -0.0079 -0.3550
38888SOL    HW225633   1.771   7.238   1.997  0.9442  0.3327  1.2152
38889SOL     OW25634  10.310   7.305   5.358 -0.0725  0.1591 -0.5793
38889SOL    HW125635  10.258   7.378   5.323  1.1562  0.6250 -1.5080
38889SOL    HW225636  10.294   7.308   5.453 -2.0029  0.0530 -0.8663
38890SOL     OW25637   8.980   3.282   7.941 -0.2205 -0.3100 -0.0690
38890SOL    HW125638   8.977   3.198   7.896 -1.0608 -0.1795 -0.2921
38890SOL    HW225639   9.028   3.265   8.022  1.3092 -0.5559 -0.9851
38891SOL     OW25640   3.141   2.130   6.254  0.4407  0.4262 -0.9038
38891SOL    HW125641   3.177   2.193   6.192  1.0849  0.7040 -0.2672
38891SOL    HW225642   3.190   2.049   6.238 -0.4388  0.0408 -1.7736
38892SOL     OW25643  11.534   7.901   0.045  0.4360  0.0890 -0.5476
38892SOL    HW125644  11.449   7.878   0.083  0.3976  0.0005 -0.6854
38892SOL    HW225645  11.519   7.984  -0.000  0.9912  1.3221  1.4266
38893SOL     OW25646   2.493   0.456   3.231 -0.1738 -0.1308  0.1565
38893SOL    HW125647   2.399   0.437   3.227  0.1497 -1.8033 -0.4280
38893SOL    HW225648   2.535   0.370   3.229  1.4295  0.6072 -1.7660
38894SOL     OW25649   0.493   8.850   6.709  0.0521  0.3986  0.4444
38894SOL    HW125650   0.475   8.944   6.711 -1.5695  0.1487 -0.4308
38894SOL    HW225651   0.516   8.828   6.800 -0.4710  1.4690  0.8562
38895SOL     OW25652   1.096   5.144   6.166  0.5506 -0.6484 -0.1733
38895SOL    HW125653   1.036   5.176   6.233 -1.3734 -2.9940 -0.6533
38895SOL    HW225654   1.047   5.077   6.119  2.8035 -1.0876 -2.1096
38896SOL     OW25655   8.865   1.260   4.212 -0.2688 -0.3613 -0.3689
38896SOL    HW125656   8.938   1.246   4.152  0.8395 -2.0935  1.2548
38896SOL    HW225657   8.843   1.353   4.203  1.3518 -0.0671 -1.7415
38897SOL     OW25658   2.040  11.105   8.410  0.0671 -0.2059 -0.1333
38897SOL    HW125659   2.028  11.193   8.448 -0.9694 -0.6182  0.5136
38897SOL    HW225660   2.043  11.120   8.315  0.7777  0.6184 -0.0011
38898SOL     OW25661   9.684   4.004   1.822  0.1559 -0.4053  0.1903
38898SOL    HW125662   9.611   4.063   1.801  0.2746 -0.4663 -0.4260
38898SOL    HW225663   9.712   3.970   1.737  0.0967 -1.3472  0.5385
38899SOL     OW25664   1.067   0.121   9.580 -0.3955  0.1012 -0.3362
38899SOL    HW125665   1.087   0.078   9.497 -1.9554  0.2021 -0.7946
38899SOL    HW225666   1.150   0.157   9.610  0.1639  0.1616 -1.9161
38900SOL     OW25667   0.291   1.746  12.012 -0.3367 -0.7081  0.0748
38900SOL    HW125668   0.271   1.799  11.935  0.2240 -0.6556 -0.0390
38900SOL    HW225669   0.357   1.797  12.059  0.2025 -1.2934 -0.0292
38901SOL     OW25670   1.673   9.650   8.443  0.3475  0.2419  0.3799
38901SOL    HW125671   1.728   9.593   8.498  0.8092 -0.0568 -0.3690
38901SOL    HW225672   1.585   9.615   8.453  0.8125 -1.5688 -1.1793
38902SOL     OW25673   4.922  10.199   2.642  0.3868 -0.4680  0.1237
38902SOL    HW125674   4.945  10.122   2.591 -0.1089 -1.0959  0.8104
38902SOL    HW225675   4.838  10.227   2.606 -0.1407 -1.1267  0.7991
38903SOL     OW25676  10.002   9.523   5.898  0.1297 -0.2959 -1.0322
38903SOL    HW125677   9.925   9.568   5.862  0.0046  2.3204  1.9954
38903SOL    HW225678  10.077   9.574   5.867  0.3913 -0.8270 -1.2845
38904SOL     OW25679   5.584   4.993  10.685 -0.4202  0.5687 -0.1566
38904SOL    HW125680   5.678   4.988  10.666 -0.5677  1.1086 -1.1198
38904SOL    HW225681   5.542   4.976  10.600 -1.1739  1.0733  0.1046
38905SOL     OW25682   8.834   0.364   1.458 -0.1085  0.1094 -0.0316
38905SOL    HW125683   8.886   0.428   1.409 -0.7983  0.8421  0.1729
38905SOL    HW225684   8.759   0.346   1.402 -0.2584 -0.0182  0.2066
38906SOL     OW25685   9.870   4.221   1.967  0.4990  0.2659  0.3718
38906SOL    HW125686   9.795   4.174   1.931 -2.1106  2.0286  3.1014
38906SOL    HW225687   9.914   4.156   2.022 -0.2821 -0.2355  0.4151
38907SOL     OW25688   6.161   8.068  10.685 -0.0005 -0.3299 -0.6631
38907SOL    HW125689   6.126   8.106  10.604  1.2342  1.0490 -0.5861
38907SOL    HW225690   6.145   8.134  10.752 -0.7058 -1.3232  0.1803
38908SOL     OW25691   2.229  10.920   2.646 -0.0020 -0.7431  0.0944
38908SOL    HW125692   2.171  10.983   2.688 -0.0233 -1.5856  1.3657
38908SOL    HW225693   2.172  10.871   2.587 -0.0829  0.0701 -0.5192
38909SOL     OW25694   5.838   5.996   2.517  0.3805 -0.2288  0.1656
38909SOL    HW125695   5.894   5.923   2.542 -0.8849 -1.8372 -1.5028
38909SOL    HW225696   5.800   5.971   2.433 -0.9461  1.8860  0.0463
38910SOL     OW25697   2.856   9.744   2.483 -0.0045 -0.0893 -0.6230
38910SOL    HW125698   2.902   9.695   2.416 -0.3081 -0.4099 -0.6001
38910SOL    HW225699   2.863   9.835   2.454  1.7327  0.0198  0.0484
38911SOL     OW25700   2.870   9.406   0.686 -0.8519 -0.0679 -0.1696
38911SOL    HW125701   2.820   9.485   0.663  0.7077  0.9314 -0.2359
38911SOL    HW225702   2.813   9.359   0.747 -1.3563  1.6841  0.7716
38912SOL     OW25703  11.771   6.972   3.964 -0.5797 -0.5056 -0.2182
38912SOL    HW125704  11.857   7.009   3.983 -1.5816  1.1332  1.4727
38912SOL    HW225705  11.766   6.893   4.017 -0.2639 -0.3593  0.0323
38913SOL     OW25706   5.173   0.713   9.649  0.1949 -0.2732 -0.1083
38913SOL    HW125707   5.198   0.793   9.696 -0.8433  0.1338 -0.2395
38913SOL    HW225708   5.150   0.743   9.561 -0.1532 -0.7217 -0.1719
38914SOL     OW25709   0.114   8.090   2.507 -0.1846  0.2337 -0.3595
38914SOL    HW125710   0.208   8.080   2.498 -0.1333  1.3305 -1.4149
38914SOL    HW225711   0.104   8.157   2.575 -0.2285 -0.4182  0.2778
38915SOL     OW25712   2.331   2.078   2.651 -0.5827  0.8710  0.7364
38915SOL    HW125713   2.259   2.017   2.636 -0.6942  1.0474  0.5491
38915SOL    HW225714   2.344   2.077   2.746  0.3666 -0.5292  0.6215
38916SOL     OW25715   6.036   0.790   8.708 -0.1599  0.0544 -0.0523
38916SOL    HW125716   6.108   0.829   8.758 -1.9851  1.1436  1.9042
38916SOL    HW225717   6.034   0.840   8.627  1.0948  0.1875 -0.0268
38917SOL     OW25718   8.644   5.509   0.976  0.0183  0.0326 -0.3127
38917SOL    HW125719   8.674   5.424   1.009 -2.5340  0.2495  3.1171
38917SOL    HW225720   8.718   5.568   0.990  0.4412 -0.8043  1.2693
38918SOL     OW25721   7.753   5.941   4.241 -0.0795  0.3844 -0.7047
38918SOL    HW125722   7.789   6.006   4.180  1.2656  0.7897  0.4594
38918SOL    HW225723   7.659   5.940   4.223  0.3077  0.1861 -3.0542
38919SOL     OW25724   9.747   0.902   4.122  0.5274 -1.1785 -0.1175
38919SOL    HW125725   9.699   0.945   4.052  2.3295 -0.9382 -1.2588
38919SOL    HW225726   9.722   0.810   4.116 -1.6237 -0.7289  0.9086
38920SOL     OW25727   9.827   4.483  10.192  0.6264  0.6336 -0.3247
38920SOL    HW125728   9.779   4.496  10.274  0.3004  0.3995 -0.4719
38920SOL    HW225729   9.759   4.489  10.124  0.8865  0.7846 -0.5735
38921SOL     OW25730   4.193   7.958   6.478  0.5602  0.8603  0.3133
38921SOL    HW125731   4.156   8.001   6.401 -0.3649 -0.3924  0.0269
38921SOL    HW225732   4.285   7.984   6.478 -0.0401  3.2557  0.4707
38922SOL     OW25733   9.223   0.567  12.027 -0.4742 -0.0900  0.2717
38922SOL    HW125734   9.214   0.650  11.981 -2.4904 -1.0281 -1.1793
38922SOL    HW225735   9.232   0.502  11.957 -1.0592 -1.3060  1.2831
38923SOL     OW25736   8.209   4.312   8.822 -0.4125  0.3882 -0.6307
38923SOL    HW125737   8.209   4.408   8.831 -0.0910  0.2488  1.1872
38923SOL    HW225738   8.295   4.292   8.786 -0.2375  0.7478 -0.4262
38924SOL     OW25739   0.968   3.687   9.822 -0.0179 -0.2339 -0.2810
38924SOL    HW125740   0.885   3.727   9.797  0.9908  1.0200 -1.8478
38924SOL    HW225741   1.003   3.746   9.890 -0.0754 -0.3538 -0.1471
38925SOL     OW25742   2.496   2.992   0.832 -0.5012 -0.3191 -0.1501
38925SOL    HW125743   2.539   2.907   0.847  0.7002  0.0371 -1.3504
38925SOL    HW225744   2.509   3.040   0.914  2.1420  0.0373 -0.6659
38926SOL     OW25745   9.742   9.110   6.804  0.3342 -1.3633  0.1806
38926SOL    HW125746   9.779   9.073   6.884 -2.0705 -2.7600  0.7223
38926SOL    HW225747   9.700   9.037   6.759  1.3518 -0.5704 -2.2853
38927SOL     OW25748   6.205   9.610   7.725 -0.6091  0.3657  0.0535
38927SOL    HW125749   6.266   9.537   7.726 -1.9539 -0.8337 -0.6023
38927SOL    HW225750   6.132   9.579   7.671 -1.5297  1.9513  0.3186
38928SOL     OW25751   5.126   7.971   7.902 -0.1674  0.1487  0.4544
38928SOL    HW125752   5.178   8.048   7.877 -2.2841  0.7352 -2.5554
38928SOL    HW225753   5.168   7.898   7.857  0.4988 -0.1326  1.4906
38929SOL     OW25754   9.769   2.788   0.805  0.4040 -0.2535 -0.1741
38929SOL    HW125755   9.777   2.846   0.881  2.5040 -1.1147  0.3300
38929SOL    HW225756   9.739   2.845   0.734 -1.1172  0.6741  1.1275
38930SOL     OW25757  11.335   7.161   0.846  0.1933 -0.5077  0.8977
38930SOL    HW125758  11.326   7.166   0.751 -1.1480  0.4174  1.0609
38930SOL    HW225759  11.430   7.154   0.860  0.3623 -1.6100 -0.5230
38931SOL     OW25760  10.848   0.086  10.641  0.5154 -0.1946  0.5493
38931SOL    HW125761  10.898   0.011  10.674  0.2665 -0.0077  1.3436
38931SOL    HW225762  10.791   0.048  10.574  2.7691 -0.2014 -1.5191
38932SOL     OW25763   1.507  10.161   3.468  0.3302  0.1057 -0.0966
38932SOL    HW125764   1.511  10.224   3.540 -1.5789  1.9046 -1.4444
38932SOL    HW225765   1.450  10.202   3.403  1.2909 -1.8091 -2.3013
38933SOL     OW25766  12.189   0.338   4.120  0.0419  0.2670  0.1234
38933SOL    HW125767  12.145   0.423   4.120 -0.5121 -0.0134  1.0498
38933SOL    HW225768  12.121   0.275   4.141  0.6868 -0.2737  0.6564
38934SOL     OW25769   2.235   8.800   9.308  0.2708 -0.1892  0.3090
38934SOL    HW125770   2.146   8.777   9.284  1.4239 -2.6802 -2.1634
38934SOL    HW225771   2.269   8.848   9.233  1.1277  0.5532  1.1354
38935SOL     OW25772   9.587   4.284   2.462 -0.1793  0.0559 -0.5199
38935SOL    HW125773   9.550   4.371   2.445 -0.4169 -0.2125 -1.4798
38935SOL    HW225774   9.538   4.226   2.403  0.7493 -0.5493 -0.7064
38936SOL     OW25775   3.774   0.487   4.713  0.0843 -0.0982 -0.4266
38936SOL    HW125776   3.784   0.496   4.619  1.6535 -0.7099 -0.3465
38936SOL    HW225777   3.859   0.513   4.749 -0.9625  1.7109  0.9520
38937SOL     OW25778   0.818   8.340   2.037  0.6061 -0.0379  0.0290
38937SOL    HW125779   0.819   8.339   1.941  1.7351  0.2683  0.0235
38937SOL    HW225780   0.886   8.402   2.061  0.6708 -0.4811  1.0386
38938SOL     OW25781  10.270   8.073   2.655  0.1086 -0.1581  0.1802
38938SOL    HW125782  10.353   8.092   2.611 -0.5445  0.7558 -0.7094
38938SOL    HW225783  10.211   8.048   2.584 -1.9293  4.5663 -0.1340
38939SOL     OW25784   2.676   2.838   0.163 -1.2367  0.4428 -0.2020
38939SOL    HW125785   2.754   2.826   0.218 -2.6894  0.3741  1.9715
38939SOL    HW225786   2.698   2.912   0.107 -0.5093  2.1171  2.1630
38940SOL     OW25787   0.064   8.789   8.797 -0.3832  0.3611 -0.3195
38940SOL    HW125788   0.134   8.752   8.744  1.1809  1.1526  1.1347
38940SOL    HW225789   0.090   8.880   8.811 -0.3877  0.0108  2.3401
38941SOL     OW25790   5.754   0.037  10.728  0.3024  0.3146 -0.5173
38941SOL    HW125791   5.846   0.015  10.709  0.3743  2.0078 -2.4909
38941SOL    HW225792   5.759   0.107  10.793  0.2862 -0.8601  0.8073
38942SOL     OW25793  12.197   8.084  12.379  0.0672  0.2523 -0.5439
38942SOL    HW125794  12.277   8.086  12.431 -1.2463  2.0793  1.5899
38942SOL    HW225795  12.156   8.170  12.394 -2.3004 -0.6035 -1.5375
38943SOL     OW25796   0.817   2.249   5.668  0.2377 -0.1660  0.1919
38943SOL    HW125797   0.725   2.248   5.695 -0.3757 -1.6881 -1.7659
38943SOL    HW225798   0.860   2.190   5.730 -0.0540  0.6433  1.1921
38944SOL     OW25799   0.534   7.916   6.978  0.6586  0.0943 -0.2280
38944SOL    HW125800   0.529   7.854   7.051 -0.5979  1.5803  1.0362
38944SOL    HW225801   0.624   7.948   6.979  0.4769  0.6282  1.1851
38945SOL     OW25802  10.761  11.214   9.284  0.5145 -0.0571 -0.6505
38945SOL    HW125803  10.836  11.235   9.338 -0.2120  0.7569  0.0760
38945SOL    HW225804  10.787  11.136   9.235  1.3260 -0.6002  0.6006
38946SOL     OW25805   0.874   0.074  10.821 -0.4164  0.2938 -0.3385
38946SOL    HW125806   0.965   0.073  10.793 -0.2512 -0.0829  0.2046
38946SOL    HW225807   0.871   0.019  10.899 -1.4311 -1.0864 -1.3091
38947SOL     OW25808   9.057   8.835   3.078 -0.6435 -0.5018 -0.0954
38947SOL    HW125809   9.148   8.812   3.097 -0.7387 -0.1309  0.8573
38947SOL    HW225810   9.010   8.751   3.082 -0.2099 -0.8513 -1.5752
38948SOL     OW25811   7.977   7.759   0.106  0.6408 -0.2052  0.6520
38948SOL    HW125812   7.997   7.822   0.037  0.2311 -2.1383 -1.3345
38948SOL    HW225813   7.944   7.812   0.179 -2.0440  1.7261 -1.7612
38949SOL     OW25814  11.619   7.027   1.403 -0.4381  1.4083  0.1562
38949SOL    HW125815  11.582   7.084   1.470 -2.5751  1.1477 -0.7235
38949SOL    HW225816  11.606   7.075   1.321 -0.1434  0.6632 -0.3383
38950SOL     OW25817   1.131   2.913   9.248 -0.1134 -0.4555 -0.0684
38950SOL    HW125818   1.102   3.002   9.268 -0.4155 -0.4487 -0.5344
38950SOL    HW225819   1.204   2.925   9.188 -1.2053 -0.5491 -1.4711
38951SOL     OW25820   1.300   9.549   9.251 -0.2700 -0.2936 -0.4137
38951SOL    HW125821   1.246   9.537   9.173  0.3819  0.3217 -0.9758
38951SOL    HW225822   1.346   9.465   9.261 -1.0993 -0.7226 -0.0903
38952SOL     OW25823  10.086   2.640   7.444 -0.6473  0.6708 -0.4132
38952SOL    HW125824  10.032   2.565   7.418 -0.4450  0.9585 -1.7488
38952SOL    HW225825  10.025   2.701   7.484 -0.7854 -0.2690  0.8705
38953SOL     OW25826  10.933   5.156   2.726  0.0595 -0.0039  0.6327
38953SOL    HW125827  10.950   5.078   2.674  1.6967  0.6890  0.0475
38953SOL    HW225828  10.970   5.136   2.812 -0.4136 -0.2398  0.7805
38954SOL     OW25829   9.599   1.303   5.949  0.4088 -0.1577  0.1838
38954SOL    HW125830   9.555   1.224   5.918 -1.0622  0.2841  1.0332
38954SOL    HW225831   9.540   1.338   6.017  1.6966  0.9140  0.7904
38955SOL     OW25832   3.183   1.749   6.720 -0.0215  0.3933 -0.1316
38955SOL    HW125833   3.105   1.739   6.774  0.7425 -0.6235  0.8367
38955SOL    HW225834   3.169   1.691   6.646 -0.2794  0.3828 -0.0733
38956SOL     OW25835   9.715   6.228   1.544 -0.3178 -0.3053  0.7752
38956SOL    HW125836   9.792   6.286   1.537  0.9704 -2.0284  0.0820
38956SOL    HW225837   9.651   6.280   1.593  0.5069  1.9648 -0.4010
38957SOL     OW25838   1.575   2.170   1.523  0.1584  0.5927  0.5078
38957SOL    HW125839   1.568   2.265   1.519 -0.1470  0.6055  1.1796
38957SOL    HW225840   1.484   2.139   1.522  0.2082  0.3806  1.7227
38958SOL     OW25841   9.188   2.935   8.596 -0.7462 -0.3625 -0.0802
38958SOL    HW125842   9.218   2.974   8.678 -0.7307 -0.3884 -0.0733
38958SOL    HW225843   9.205   2.841   8.607 -0.0078 -0.2755 -0.4223
38959SOL     OW25844   4.991   4.084   3.934  0.2648 -0.0474  0.1304
38959SOL    HW125845   5.066   4.125   3.893 -0.5346  0.1642 -1.1591
38959SOL    HW225846   5.023   3.999   3.964  1.2072  0.3695  0.3204
38960SOL     OW25847   1.771   3.930   3.497  0.4747  0.0445 -0.4232
38960SOL    HW125848   1.857   3.890   3.493  0.3161 -0.9310  2.8288
38960SOL    HW225849   1.784   4.010   3.548 -0.5625 -0.2772  0.3737
38961SOL     OW25850  11.578  11.224   2.107  0.5359 -0.2494 -0.6812
38961SOL    HW125851  11.644  11.275   2.059  0.0587 -0.7084 -1.8543
38961SOL    HW225852  11.515  11.197   2.040 -0.1542 -0.9108  0.2127
38962SOL     OW25853   9.310   8.293  10.011  0.4812  0.4227  0.1641
38962SOL    HW125854   9.316   8.362   9.944  1.4543  1.2504  1.0511
38962SOL    HW225855   9.401   8.270  10.029  0.1678 -0.9901  0.0190
38963SOL     OW25856   0.635   6.998   7.510  0.0444 -0.1172 -0.2951
38963SOL    HW125857   0.634   7.020   7.417  0.5096 -2.0811 -0.8120
38963SOL    HW225858   0.543   6.998   7.535 -0.0378  1.2485 -0.5214
38964SOL     OW25859   4.212   8.367   5.563 -0.0203 -0.2305 -0.4146
38964SOL    HW125860   4.169   8.430   5.622  5.2498  1.9554  1.7440
38964SOL    HW225861   4.240   8.420   5.488  1.4161 -0.7481 -0.2769
38965SOL     OW25862   8.621   3.256   7.383  0.1401  0.0600 -0.0496
38965SOL    HW125863   8.549   3.236   7.444 -0.4838 -1.6094 -1.2669
38965SOL    HW225864   8.577   3.288   7.304  0.7094 -0.8960 -0.7764
38966SOL     OW25865   0.814   7.999   6.937 -0.2396 -0.2736  0.4028
38966SOL    HW125866   0.867   7.935   6.985  0.7699 -0.6051 -1.0967
38966SOL    HW225867   0.850   7.999   6.848 -1.4099  1.0459 -0.1138
38967SOL     OW25868   7.960   6.909   2.713 -1.0059 -0.0448 -0.0637
38967SOL    HW125869   8.047   6.870   2.715 -1.1703 -0.5763 -1.6122
38967SOL    HW225870   7.909   6.850   2.657 -1.4196  2.0442 -2.0434
38968SOL     OW25871   7.972   4.617  12.587 -0.5437 -0.0431  0.2849
38968SOL    HW125872   8.063   4.630  12.615 -0.3598 -0.2028 -0.2104
38968SOL    HW225873   7.927   4.697  12.612  0.4123  1.3507 -2.1435
38969SOL     OW25874  10.778   2.547   4.810 -0.1268 -0.6206 -0.1482
38969SOL    HW125875  10.803   2.637   4.828 -1.2139 -0.4216  0.4478
38969SOL    HW225876  10.705   2.554   4.748 -0.6873 -1.0434  0.4479
38970SOL     OW25877  10.933  12.276   2.009 -0.1804  0.0863  0.1459
38970SOL    HW125878  10.967  12.255   2.096  1.7373 -0.8224 -0.7549
38970SOL    HW225879  10.911  12.191   1.971 -0.3450  0.4075 -0.4925
38971SOL     OW25880   4.996  11.561   4.633 -0.0248 -0.5350 -0.5950
38971SOL    HW125881   5.057  11.497   4.596  1.1522 -0.0293  0.4058
38971SOL    HW225882   5.044  11.601   4.705 -0.7005  1.5342 -1.2377
38972SOL     OW25883   5.836   2.809   5.972 -0.1066  0.0298 -0.4646
38972SOL    HW125884   5.811   2.795   5.881 -1.0969  1.9235 -0.5131
38972SOL    HW225885   5.821   2.902   5.988 -1.3162 -0.5095  2.0386
38973SOL     OW25886   8.840   0.112   3.172 -0.3336  0.0962 -0.2500
38973SOL    HW125887   8.746   0.099   3.179 -0.1539 -0.7574  0.8439
38973SOL    HW225888   8.868   0.048   3.106 -0.3132 -0.7660  0.5807
38974SOL     OW25889   0.243   4.608   0.615 -0.2315 -0.6088 -0.4505
38974SOL    HW125890   0.196   4.557   0.550 -0.4387 -0.2196 -0.6078
38974SOL    HW225891   0.175   4.658   0.660 -0.2959 -1.9976  1.1062
38975SOL     OW25892   9.825   3.555   1.889  0.2445  0.4045 -0.0626
38975SOL    HW125893   9.767   3.615   1.843  1.1953  0.9020 -0.6256
38975SOL    HW225894   9.784   3.544   1.975 -0.7219  0.6729 -0.4697
38976SOL     OW25895   4.698   9.668   0.466  0.0311 -0.0156  0.3209
38976SOL    HW125896   4.763   9.667   0.396  1.6029 -1.1309  1.6943
38976SOL    HW225897   4.684   9.575   0.487 -1.4955  0.2349  0.5553
38977SOL     OW25898   0.599  11.139  12.208 -0.0367  0.0991 -0.0106
38977SOL    HW125899   0.540  11.064  12.218 -0.4243  0.5561  1.3954
38977SOL    HW225900   0.686  11.103  12.226 -0.2304  0.0009  0.7436
38978SOL     OW25901   4.389   1.421  12.318 -0.1084  0.1826 -0.0379
38978SOL    HW125902   4.455   1.397  12.252  0.4397  2.1583 -0.2616
38978SOL    HW225903   4.438   1.424  12.400 -0.7366 -2.0015  0.5054
38979SOL     OW25904   7.612   6.679   0.132  0.5151 -0.1608 -0.4643
38979SOL    HW125905   7.582   6.769   0.119 -0.1128 -0.4437 -1.0392
38979SOL    HW225906   7.677   6.665   0.063 -0.0863 -0.4470 -0.9877
38980SOL     OW25907   3.128   0.809   8.618 -0.4247 -0.7967 -0.5953
38980SOL    HW125908   3.041   0.839   8.646 -1.2018 -0.9993 -2.6471
38980SOL    HW225909   3.115   0.778   8.529  1.4188 -2.5108 -0.3198
38981SOL     OW25910  10.426   5.926   6.528 -0.5763 -0.2679  0.0213
38981SOL    HW125911  10.345   5.880   6.547 -1.0734  0.4270 -0.3643
38981SOL    HW225912  10.399   6.016   6.511  0.2481 -0.0833 -0.3658
38982SOL     OW25913   2.093   6.057   3.920 -0.2729 -0.0696  0.7664
38982SOL    HW125914   2.105   6.067   4.014 -0.5863  0.3076  0.7683
38982SOL    HW225915   2.073   5.964   3.908 -0.2985 -0.1051  1.0774
38983SOL     OW25916  10.232   6.958   5.081  0.0258 -0.2681 -0.1241
38983SOL    HW125917  10.164   6.927   5.021 -1.1514  0.2741  0.8891
38983SOL    HW225918  10.231   6.896   5.154 -0.1189  0.3238  0.3867
38984SOL     OW25919  12.266   5.931   0.172  0.0532  0.0570 -0.3451
38984SOL    HW125920  12.251   6.022   0.145  2.5308  0.3705 -0.8998
38984SOL    HW225921  12.195   5.912   0.233 -2.1326  1.4107 -2.3166
38985SOL     OW25922  10.355   1.127  10.155 -0.6222 -0.0378  0.3822
38985SOL    HW125923  10.327   1.192  10.091 -0.8192  1.0144  1.5150
38985SOL    HW225924  10.388   1.178  10.229  0.6482 -1.2343  0.6871
38986SOL     OW25925   7.653  11.340   0.064 -0.2938  0.1514  0.8431
38986SOL    HW125926   7.604  11.311  -0.013  2.3368 -3.3367  0.1914
38986SOL    HW225927   7.636  11.272   0.130  1.8974 -0.0669  1.2646
38987SOL     OW25928  11.089   1.296  10.765  0.0084 -0.0173  0.7720
38987SOL    HW125929  11.171   1.330  10.730 -0.5316  2.4278  1.7437
38987SOL    HW225930  11.111   1.262  10.852  0.3602 -1.4146  0.1723
38988SOL     OW25931  10.472   6.047   0.265 -0.0384 -0.5293  0.4572
38988SOL    HW125932  10.499   6.096   0.342  0.8452  1.1072 -0.8461
38988SOL    HW225933  10.505   5.958   0.280  0.4368 -0.1450  1.7686
38989SOL     OW25934   9.830   6.972   4.172  0.3482  0.3785  0.7177
38989SOL    HW125935   9.868   7.049   4.130 -0.3863  0.3357 -0.0740
38989SOL    HW225936   9.758   7.006   4.224 -0.8587  0.1402 -0.7118
38990SOL     OW25937   7.957   0.645   5.963  0.1023 -0.2877  0.6537
38990SOL    HW125938   8.020   0.671   6.029 -1.0817 -1.8316  2.4776
38990SOL    HW225939   8.010   0.620   5.887  1.5403  0.5102  1.3718
38991SOL     OW25940   8.183   8.163   5.496  0.5074 -0.0099  0.2783
38991SOL    HW125941   8.148   8.089   5.545  0.6445 -0.4238 -0.2327
38991SOL    HW225942   8.276   8.164   5.516  0.3923  0.4560  0.8256
38992SOL     OW25943  10.408   3.123   2.039  0.1940 -0.3485 -0.1377
38992SOL    HW125944  10.479   3.165   1.990  0.4486 -0.7641 -0.1256
38992SOL    HW225945  10.410   3.167   2.125  0.9447 -0.8878  0.1360
38993SOL     OW25946   4.748  11.110   5.249  0.2251 -0.3574 -0.0683
38993SOL    HW125947   4.722  11.148   5.165  0.0653 -0.7489 -0.1966
38993SOL    HW225948   4.698  11.159   5.315 -0.0173 -0.3786 -0.2372
38994SOL     OW25949   0.479   4.699   2.667 -0.5583  0.0265 -0.7249
38994SOL    HW125950   0.523   4.722   2.749 -0.4317  1.3237 -1.1434
38994SOL    HW225951   0.410   4.764   2.657  0.8666  1.3754 -2.7757
38995SOL     OW25952   6.966  12.594   4.332 -0.0709 -0.2990 -0.0891
38995SOL    HW125953   6.941  12.561   4.246  1.2706  1.0189 -1.0300
38995SOL    HW225954   7.045  12.546   4.355 -0.3818 -0.5926  0.4033
38996SOL     OW25955   7.305   9.498   0.679 -0.1438 -0.0261  0.4423
38996SOL    HW125956   7.341   9.584   0.702  0.3573 -0.2740  0.6001
38996SOL    HW225957   7.235   9.485   0.743  0.2137 -0.0191  0.8474
38997SOL     OW25958   5.500   3.846   7.005 -0.1589  0.1630  0.3695
38997SOL    HW125959   5.464   3.922   6.960 -0.0726  0.2859  0.5077
38997SOL    HW225960   5.466   3.852   7.095  1.7571  1.3673  1.0719
38998SOL     OW25961   4.731   7.317   3.501  0.4229  0.0014 -0.1210
38998SOL    HW125962   4.670   7.288   3.434  0.1611 -1.0711  0.5522
38998SOL    HW225963   4.712   7.410   3.514 -0.6025 -0.1682 -0.3932
38999SOL     OW25964   5.239   2.146   6.946  0.2213 -0.1362  0.2251
38999SOL    HW125965   5.194   2.077   6.898  0.9076 -0.2136 -0.3244
38999SOL    HW225966   5.323   2.157   6.900  0.7314  0.0533  1.1712
39000SOL     OW25967   8.075   6.644   0.521 -0.0321  0.2286  0.5390
39000SOL    HW125968   8.152   6.592   0.543  1.6877  2.7687  0.9518
39000SOL    HW225969   8.026   6.649   0.603 -0.8970 -1.6772  0.1932
39001SOL     OW25970  11.692  10.944   4.360  0.7816 -0.4771 -0.1083
39001SOL    HW125971  11.688  10.848   4.362  0.8048 -0.4837 -0.2940
39001SOL    HW225972  11.653  10.967   4.275  1.0935 -0.3398 -0.2168
39002SOL     OW25973   1.705   9.463   1.347  0.3784 -0.2836 -0.0248
39002SOL    HW125974   1.708   9.418   1.431 -1.5176 -2.2909 -0.9612
39002SOL    HW225975   1.613   9.484   1.333  0.8051  1.0963 -1.0914
39003SOL     OW25976   3.937  10.678  12.020 -0.0451 -0.0075 -0.0425
39003SOL    HW125977   4.003  10.686  12.090 -2.2022  2.6583  1.8707
39003SOL    HW225978   3.868  10.624  12.059 -0.7579  0.5426 -0.5175
39004SOL     OW25979   4.334   1.907   7.174  0.3945  0.0946  0.1548
39004SOL    HW125980   4.353   1.928   7.083 -1.1056 -1.4979 -0.5981
39004SOL    HW225981   4.298   1.988   7.211  0.8682  0.7096 -0.7183
39005SOL     OW25982  12.202  12.288   7.976 -0.5167  0.0748  0.1851
39005SOL    HW125983  12.193  12.247   8.061  2.2183 -1.4758 -0.1401
39005SOL    HW225984  12.261  12.230   7.927 -0.1179  2.0945 -1.9397
39006SOL     OW25985   8.784   3.692   7.084  0.2374 -0.4755  0.4976
39006SOL    HW125986   8.747   3.780   7.077  0.1606 -0.6219 -4.7869
39006SOL    HW225987   8.710   3.636   7.105 -0.8281  0.2655 -1.0841
39007SOL     OW25988   5.050   7.120   7.380  0.6830  0.5394  0.2821
39007SOL    HW125989   5.099   7.129   7.462  2.6509 -0.7330 -0.6944
39007SOL    HW225990   4.958   7.119   7.408  1.3138 -1.2730  2.6403
39008SOL     OW25991   2.028   3.646  10.112 -0.2475 -0.0806 -0.4049
39008SOL    HW125992   1.973   3.575  10.078 -1.4616  1.0027 -0.7426
39008SOL    HW225993   1.972   3.723  10.113  1.8857  1.7292 -3.2614
39009SOL     OW25994   9.083   7.148   1.211 -0.2910  0.1508  0.3791
39009SOL    HW125995   9.104   7.057   1.189  0.3176  0.6528 -1.3221
39009SOL    HW225996   9.169   7.189   1.225 -0.5549  0.4861  1.0113
39010SOL     OW25997   0.963   4.732   0.510  0.0532 -0.4149 -0.2653
39010SOL    HW125998   0.906   4.754   0.584 -2.2340 -4.3761 -0.5888
39010SOL    HW225999   0.949   4.804   0.447 -1.4274  0.7773  1.3211
39011SOL     OW26000   6.871  11.609  10.511  0.5256 -0.1051  0.2708
39011SOL    HW126001   6.903  11.651  10.431  2.3861 -1.4635  0.2285
39011SOL    HW226002   6.921  11.652  10.582  2.3611 -1.9970  0.2370
39012SOL     OW26003  10.895   8.895   9.388 -0.3703  0.0627  0.1237
39012SOL    HW126004  10.822   8.933   9.339  0.0329  0.6714 -0.0054
39012SOL    HW226005  10.968   8.893   9.326 -0.0942  0.0542  0.4461
39013SOL     OW26006  12.535   2.095   3.197  0.1745  0.0248  0.0869
39013SOL    HW126007  12.526   2.122   3.289  0.6905 -1.2504  0.5316
39013SOL    HW226008  12.573   2.172   3.154 -0.3432  0.7412  0.8731
39014SOL     OW26009   3.339   6.220   2.672  0.8648 -0.0444 -0.0646
39014SOL    HW126010   3.394   6.205   2.749 -0.4725 -1.5417  0.6796
39014SOL    HW226011   3.356   6.145   2.615  1.1444  0.5719 -0.8067
39015SOL     OW26012   8.792   5.724   8.565 -0.4072  0.1908 -0.0752
39015SOL    HW126013   8.729   5.677   8.511 -1.0924 -1.0935  1.7559
39015SOL    HW226014   8.739   5.765   8.634  0.5500  0.9216  0.2549
39016SOL     OW26015   2.303   3.458  10.659 -0.5224  0.4601  0.6221
39016SOL    HW126016   2.290   3.553  10.652 -2.1575  0.3479  1.4128
39016SOL    HW226017   2.294   3.440  10.753 -0.2937 -0.4831  0.4730
39017SOL     OW26018  12.489   3.276   0.813  0.1289  0.0851  0.4024
39017SOL    HW126019  12.543   3.350   0.841 -0.0998  0.1951  0.5523
39017SOL    HW226020  12.503   3.209   0.880 -0.3920  0.3362  0.7690
39018SOL     OW26021  11.646   4.470  11.947  0.5125  0.0564 -0.2231
39018SOL    HW126022  11.604   4.398  11.994 -0.0163  0.3134 -0.2918
39018SOL    HW226023  11.722   4.493  12.001  1.3154 -1.2655 -0.7546
39019SOL     OW26024   7.249   8.596   0.937 -0.0198 -0.0935  0.0499
39019SOL    HW126025   7.296   8.665   0.982 -0.7417 -0.5049  1.4848
39019SOL    HW226026   7.312   8.524   0.930  0.1642  0.0553  0.1917
39020SOL     OW26027   7.349  10.839   0.575 -0.1728  0.5557 -0.5480
39020SOL    HW126028   7.429  10.854   0.627  0.5823  3.0153 -2.2564
39020SOL    HW226029   7.299  10.775   0.627  3.1524 -1.6748  0.2767
39021SOL     OW26030   3.691   3.237   0.317  0.0883  0.4637  0.3119
39021SOL    HW126031   3.633   3.290   0.371 -0.5476 -2.4151  2.6739
39021SOL    HW226032   3.769   3.292   0.304 -0.1841  1.7113  3.2845
39022SOL     OW26033   7.820  11.860   0.923 -0.3324 -0.0618 -0.3453
39022SOL    HW126034   7.827  11.771   0.891  0.9749 -0.5299  1.0932
39022SOL    HW226035   7.803  11.850   1.017 -1.7859  1.2201 -0.4365
39023SOL     OW26036   5.636   7.222   8.494  0.4779 -0.4049 -0.0930
39023SOL    HW126037   5.722   7.201   8.457  1.3317  1.6772  0.5243
39023SOL    HW226038   5.628   7.317   8.482 -2.1955 -0.6535 -1.0165
39024SOL     OW26039   1.768   2.622   3.017 -0.3581  0.2901  0.2375
39024SOL    HW126040   1.792   2.700   3.066  0.2708 -0.2448  0.7896
39024SOL    HW226041   1.849   2.594   2.974 -1.1664  1.6113 -2.4244
39025SOL     OW26042  10.915   0.141   6.116 -0.5271 -0.1130 -0.9188
39025SOL    HW126043  11.003   0.133   6.152 -0.6731 -0.8278 -0.7009
39025SOL    HW226044  10.889   0.051   6.094 -1.8272 -0.1394  0.5425
39026SOL     OW26045  11.110  11.857   0.406 -0.3795  0.4290 -0.3060
39026SOL    HW126046  11.134  11.874   0.497  1.6629  2.1715 -1.0834
39026SOL    HW226047  11.155  11.775   0.384  0.7178  0.9968 -0.2549
39027SOL     OW26048  11.544   9.119   7.701 -0.4048  0.3811  0.2018
39027SOL    HW126049  11.516   9.177   7.629  0.0730 -0.5589 -0.7655
39027SOL    HW226050  11.462   9.086   7.737 -0.7523  2.4316  1.4788
39028SOL     OW26051   5.023   5.164   4.561 -0.0877  0.1639 -0.5803
39028SOL    HW126052   4.984   5.174   4.474 -3.1962  0.5964  0.7085
39028SOL    HW226053   5.056   5.074   4.563  0.1718  0.1990 -2.2208
39029SOL     OW26054  12.399   7.229   4.367  0.0879  0.3697  0.5024
39029SOL    HW126055  12.430   7.143   4.336 -1.6710  0.3017 -1.2347
39029SOL    HW226056  12.437   7.291   4.305  0.9247  0.8282  1.4497
39030SOL     OW26057   6.144   1.649  10.136 -0.3198 -0.0921  0.5834
39030SOL    HW126058   6.237   1.673  10.139 -0.1518 -0.0570 -2.2499
39030SOL    HW226059   6.140   1.561  10.172  1.4702 -1.5473 -2.3861
39031SOL     OW26060   9.172   8.354   2.031 -0.1558  0.0630 -0.3796
39031SOL    HW126061   9.201   8.267   2.059 -1.8519  0.1759  2.0311
39031SOL    HW226062   9.233   8.414   2.074 -0.3208  0.1208 -0.2245
39032SOL     OW26063   6.441   9.083   4.716 -0.1132  0.0568 -0.4582
39032SOL    HW126064   6.428   8.991   4.737 -1.2462  0.1295 -0.7859
39032SOL    HW226065   6.479   9.083   4.628 -1.1596 -0.0773 -0.9234
39033SOL     OW26066  11.898  12.071   0.133 -0.0716 -0.8178 -0.4939
39033SOL    HW126067  11.979  12.029   0.161 -1.1374 -2.7632 -0.1567
39033SOL    HW226068  11.926  12.153   0.093  2.1194 -1.7911 -1.1010
39034SOL     OW26069   3.358   0.819   1.445  0.2326 -0.5796  0.2157
39034SOL    HW126070   3.300   0.864   1.507  0.1075 -0.5999  0.1136
39034SOL    HW226071   3.375   0.733   1.485  0.3261 -0.5103  0.3243
39035SOL     OW26072  12.379  11.184   2.340  0.4592 -0.4622 -1.0512
39035SOL    HW126073  12.376  11.189   2.244  0.4561 -0.2393 -1.0406
39035SOL    HW226074  12.330  11.105   2.362 -0.0551 -0.1873 -1.2018
39036SOL     OW26075  12.189   0.234   7.911 -0.5644  0.1587  0.5952
39036SOL    HW126076  12.141   0.234   7.828 -0.7397  2.6489  0.6113
39036SOL    HW226077  12.121   0.241   7.978 -0.3139  0.8613  0.7796
39037SOL     OW26078   6.971   1.113   8.040  0.0717  0.1925  0.2144
39037SOL    HW126079   7.038   1.110   8.108 -0.3947  0.7259  0.7100
39037SOL    HW226080   7.015   1.081   7.961  0.0952 -2.4400  1.1985
39038SOL     OW26081  11.212   9.555  11.915 -0.6581 -0.3209 -0.3746
39038SOL    HW126082  11.189   9.463  11.925  2.2978 -0.9774  1.7195
39038SOL    HW226083  11.160   9.600  11.982 -0.8029 -0.7309 -0.2109
39039SOL     OW26084  11.419   5.203   5.221  0.6844 -0.3763 -0.0017
39039SOL    HW126085  11.435   5.165   5.135 -0.7261 -0.4732 -0.2493
39039SOL    HW226086  11.506   5.227   5.253  1.1859  0.3224 -1.7434
39040SOL     OW26087   8.977   9.561  11.033 -0.3243 -0.0633 -0.1473
39040SOL    HW126088   8.974   9.470  11.063 -1.4683 -0.2376 -0.7310
39040SOL    HW226089   9.030   9.558  10.953 -2.0248 -0.6009 -1.3132
39041SOL     OW26090   1.992  10.009   9.638  0.4492  0.0964 -0.2794
39041SOL    HW126091   1.914  10.032   9.589  0.6763 -2.0048 -1.7591
39041SOL    HW226092   1.959   9.983   9.725 -0.2016  1.5272 -0.0702
39042SOL     OW26093   9.883   9.876   9.507 -0.0393 -0.0757 -0.0015
39042SOL    HW126094   9.885   9.955   9.561  4.0799 -1.9055  3.1248
39042SOL    HW226095   9.949   9.891   9.439  0.3630 -0.5620  0.2713
39043SOL     OW26096   6.985   3.220   8.211  0.0520 -0.1264  0.2467
39043SOL    HW126097   7.051   3.155   8.233 -0.9873 -0.9944  0.8623
39043SOL    HW226098   7.030   3.304   8.222  1.5328 -0.7202 -0.9801
39044SOL     OW26099   8.621   7.696   3.938  0.1408 -0.4224  0.3025
39044SOL    HW126100   8.556   7.730   3.877 -0.0189 -1.6093 -0.2176
39044SOL    HW226101   8.580   7.618   3.976  0.5953 -0.2110  1.2570
39045SOL     OW26102   3.018   1.486   8.420 -0.4549 -0.5884  0.4875
39045SOL    HW126103   2.961   1.531   8.357  0.0614 -2.1468 -1.1827
39045SOL    HW226104   2.961   1.421   8.461 -0.6838  0.1393  1.3535
39046SOL     OW26105   4.445   8.324  10.785 -0.0487 -0.2352 -0.1466
39046SOL    HW126106   4.517   8.367  10.739  0.6387 -1.5240 -0.3174
39046SOL    HW226107   4.471   8.325  10.877  0.2920 -0.8626 -0.2291
39047SOL     OW26108   8.176   4.036   4.858 -0.2335 -0.0136 -0.0350
39047SOL    HW126109   8.211   4.040   4.769 -0.6652  1.0342 -0.1689
39047SOL    HW226110   8.253   4.042   4.914 -0.1079  1.7663 -0.3330
39048SOL     OW26111   7.708   8.255   2.186 -0.1811  0.3185  0.1553
39048SOL    HW126112   7.646   8.311   2.233 -0.7036 -1.3383  1.5638
39048SOL    HW226113   7.786   8.309   2.175 -0.8011  1.4574  1.1159
39049SOL     OW26114   3.183   0.462   8.817  0.0932 -0.5315 -0.1696
39049SOL    HW126115   3.148   0.376   8.839 -0.3457 -0.2847  0.1359
39049SOL    HW226116   3.156   0.477   8.726 -0.5586 -0.3732  0.0406
39050SOL     OW26117   6.756  11.121   4.647 -0.3944  0.3085 -0.0661
39050SOL    HW126118   6.685  11.160   4.596  0.3105 -0.0941 -1.4156
39050SOL    HW226119   6.804  11.067   4.584  1.1387  0.6170  0.7695
39051SOL     OW26120   3.110   4.870   9.296  0.4011 -0.4383 -0.2307
39051SOL    HW126121   3.057   4.915   9.230 -1.6283 -0.7737  1.0828
39051SOL    HW226122   3.157   4.941   9.341 -1.0431  0.2103  0.3410
39052SOL     OW26123  12.369  11.159   5.927 -0.0551 -0.0294  0.4057
39052SOL    HW126124  12.284  11.159   5.970 -0.2644 -0.2962  0.0024
39052SOL    HW226125  12.422  11.099   5.978 -0.2695 -0.2628  0.3592
39053SOL     OW26126  10.844  10.413   5.720 -0.6511  0.1379 -0.1971
39053SOL    HW126127  10.870  10.374   5.803  0.7802 -0.9713 -1.1273
39053SOL    HW226128  10.787  10.348   5.678 -1.7353  0.8760  0.0710
39054SOL     OW26129   7.381   2.525   3.229  0.8086 -0.0969 -0.1639
39054SOL    HW126130   7.369   2.430   3.222  1.9541 -0.2331 -0.4929
39054SOL    HW226131   7.382   2.542   3.323  0.5666 -0.3944 -0.1031
39055SOL     OW26132   4.677  10.866   2.865 -0.4011 -0.6732 -0.1564
39055SOL    HW126133   4.651  10.819   2.944  0.2575 -1.8411 -0.6012
39055SOL    HW226134   4.605  10.850   2.803 -0.9484  0.2972  0.2093
39056SOL     OW26135   4.202  11.688   5.554 -0.4760 -0.3261 -0.3210
39056SOL    HW126136   4.186  11.782   5.547  2.9796  0.3491 -1.1510
39056SOL    HW226137   4.229  11.661   5.466  0.5663 -1.6200  0.3493
39057SOL     OW26138   0.229   8.121   2.041 -0.8296 -0.0109 -0.5245
39057SOL    HW126139   0.189   8.043   2.079 -0.7865  0.8185  1.3219
39057SOL    HW226140   0.163   8.156   1.982 -1.1311 -1.0389 -0.7992
39058SOL     OW26141   8.644  11.061  12.041  0.0413 -0.2319  0.1020
39058SOL    HW126142   8.613  10.996  12.104 -0.1167 -0.9094 -0.6574
39058SOL    HW226143   8.718  11.104  12.084 -0.5574 -0.1344  1.0502
39059SOL     OW26144   4.670   5.309   9.802 -0.2795 -0.2360 -0.2477
39059SOL    HW126145   4.577   5.289   9.813 -0.1244 -1.7298 -1.3203
39059SOL    HW226146   4.672   5.401   9.778 -1.3229  0.3240  1.5983
39060SOL     OW26147   4.285   6.049  10.992 -0.6935 -0.2839 -0.3607
39060SOL    HW126148   4.245   6.013  10.913 -0.1985 -1.1207 -0.2478
39060SOL    HW226149   4.268   6.143  10.988 -0.5765 -0.3001 -1.5234
39061SOL     OW26150  11.678   0.284   1.195 -0.1797 -0.5790 -0.4341
39061SOL    HW126151  11.622   0.265   1.271  1.4918 -0.9410  0.7643
39061SOL    HW226152  11.685   0.201   1.149  0.2047 -0.8020  0.0131
39062SOL     OW26153   9.452  12.071   1.089 -0.0158  0.2224  0.6473
39062SOL    HW126154   9.432  11.978   1.103  0.9312 -0.3432 -1.3197
39062SOL    HW226155   9.373  12.106   1.048 -0.6438  0.5050  2.0296
39063SOL     OW26156   2.269   7.624   8.488 -0.5481  0.1538  0.0306
39063SOL    HW126157   2.175   7.609   8.500 -0.3539 -2.7125 -1.3025
39063SOL    HW226158   2.310   7.539   8.504  2.1042  1.6717  2.2578
39064SOL     OW26159   8.872  11.326   1.919 -0.7024 -0.1784 -0.2670
39064SOL    HW126160   8.904  11.352   1.833 -0.6152  3.6858  0.7402
39064SOL    HW226161   8.951  11.300   1.967 -0.3991  0.0436 -0.6392
39065SOL     OW26162   2.696   1.670   0.975 -0.4192  0.1609 -0.1966
39065SOL    HW126163   2.693   1.715   1.060  0.0051 -1.0917  0.5169
39065SOL    HW226164   2.605   1.655   0.953 -0.5279  0.1760  0.2264
39066SOL     OW26165   0.419  11.801   9.616 -0.1080  0.3059 -0.1110
39066SOL    HW126166   0.444  11.885   9.577  0.8601 -0.5861 -1.4513
39066SOL    HW226167   0.418  11.819   9.711 -0.7628  2.0351 -0.3993
39067SOL     OW26168   4.353   7.985   8.371  0.3147 -1.0518  0.1466
39067SOL    HW126169   4.284   7.954   8.431 -0.2811 -0.5259 -0.2550
39067SOL    HW226170   4.355   7.919   8.302 -1.9913  0.4765 -1.4983
39068SOL     OW26171   4.628   2.125   0.451 -0.1107  0.0078  0.3434
39068SOL    HW126172   4.574   2.203   0.439 -1.3909 -0.9995 -0.7447
39068SOL    HW226173   4.578   2.054   0.409  1.1698 -1.3370  0.9907
39069SOL     OW26174   4.456   7.108   7.426  0.4043  0.0220 -0.1260
39069SOL    HW126175   4.456   7.118   7.331  0.5129  2.2353  0.0593
39069SOL    HW226176   4.365   7.123   7.452  0.2396 -1.2351  0.1001
39070SOL     OW26177   1.407   0.906   4.059  0.1389  0.3623 -0.1318
39070SOL    HW126178   1.382   0.827   4.011 -0.6225  0.2902  0.3741
39070SOL    HW226179   1.489   0.883   4.103 -0.1165 -0.1724  0.0678
39071SOL     OW26180   9.102   3.678   9.802  0.1535 -0.0048 -0.6401
39071SOL    HW126181   9.040   3.748   9.783  1.5436  1.3458 -0.3644
39071SOL    HW226182   9.188   3.718   9.790  1.0011 -1.9886 -1.6040
39072SOL     OW26183   3.591  11.298   6.360 -0.4285  0.3721  0.3380
39072SOL    HW126184   3.578  11.231   6.294  1.5562 -0.6158  0.8567
39072SOL    HW226185   3.636  11.369   6.314  1.9533 -0.7667  0.7497
39073SOL     OW26186   1.995   8.468   5.582 -0.3788 -0.1863  0.0298
39073SOL    HW126187   1.999   8.497   5.673  0.8890  1.3076 -0.4533
39073SOL    HW226188   2.062   8.400   5.576 -0.5450 -0.3712  0.2258
39074SOL     OW26189   2.544   6.556   4.347 -0.2007 -0.7827  0.3294
39074SOL    HW126190   2.633   6.555   4.382  0.4865 -1.2435 -1.3783
39074SOL    HW226191   2.548   6.505   4.267 -1.2569  1.7848 -1.5015
39075SOL     OW26192   7.586   1.747   6.505  0.4209  0.2492  0.5091
39075SOL    HW126193   7.669   1.728   6.463  1.0905 -0.7644  2.1799
39075SOL    HW226194   7.551   1.662   6.531 -2.2313  0.4176 -1.9612
39076SOL     OW26195   1.603   7.869   1.030  0.0956 -0.4357 -0.4623
39076SOL    HW126196   1.621   7.896   0.940 -0.4778 -0.8629 -0.7146
39076SOL    HW226197   1.520   7.912   1.051  0.9221  0.8268  0.3788
39077SOL     OW26198   0.198  11.738   1.813 -0.4908  0.3614 -0.8103
39077SOL    HW126199   0.178  11.831   1.807  1.4574  0.8751 -0.1500
39077SOL    HW226200   0.124  11.695   1.771 -2.2670  2.0899  0.4082
39078SOL     OW26201   7.877   4.647   3.722 -0.4530  0.0432 -0.0909
39078SOL    HW126202   7.957   4.650   3.671 -0.9607 -2.9904 -1.2695
39078SOL    HW226203   7.902   4.679   3.808  1.8853 -0.2737 -0.5942
39079SOL     OW26204   0.874   7.748   7.131 -0.9814  0.1373 -0.2239
39079SOL    HW126205   0.790   7.755   7.175 -0.4798 -1.4665  1.0953
39079SOL    HW226206   0.860   7.685   7.060 -0.4326 -1.9195  1.3977
39080SOL     OW26207   9.501   3.663   6.489  0.3214 -0.1584  0.2010
39080SOL    HW126208   9.483   3.723   6.416  1.2849 -2.0102 -1.6363
39080SOL    HW226209   9.415   3.647   6.528 -0.0257  1.9752  0.4352
39081SOL     OW26210   9.163  10.101   8.413 -0.4341 -0.1084  0.2249
39081SOL    HW126211   9.156  10.090   8.508  0.7805  2.0581  0.6242
39081SOL    HW226212   9.180  10.194   8.401 -2.5759  0.0831 -2.2669
39082SOL     OW26213   1.742   3.117   5.398 -0.0328 -0.0783  0.9500
39082SOL    HW126214   1.744   3.024   5.375 -0.1137  0.3139 -0.7834
39082SOL    HW226215   1.720   3.162   5.316  2.4875  1.6618  1.1289
39083SOL     OW26216   8.672  10.522  10.597  0.0110 -0.1176  0.4907
39083SOL    HW126217   8.681  10.615  10.619 -2.7800 -0.0238  1.6115
39083SOL    HW226218   8.742  10.480  10.647  0.4089  1.2349  1.1359
39084SOL     OW26219   4.964  12.263  12.140  0.1733 -0.4150  0.0816
39084SOL    HW126220   4.957  12.210  12.219 -0.2641  0.8248  0.9239
39084SOL    HW226221   4.902  12.335  12.154  1.3386  0.7904 -0.6029
39085SOL     OW26222  10.451   4.907   0.544  0.3747 -0.6230 -0.1847
39085SOL    HW126223  10.439   4.867   0.630  1.0571 -1.0927 -0.2970
39085SOL    HW226224  10.438   5.000   0.558 -2.1072 -0.9194 -0.0716
39086SOL     OW26225   1.309   9.072   0.458  0.3393 -0.4606 -0.2399
39086SOL    HW126226   1.266   8.994   0.495  1.5413 -1.1299 -0.1997
39086SOL    HW226227   1.399   9.044   0.442  1.3058  1.4598  1.4656
39087SOL     OW26228   8.661   2.324   1.471  0.2455 -0.3858 -0.0617
39087SOL    HW126229   8.642   2.305   1.563  1.9336 -0.4685  0.3104
39087SOL    HW226230   8.734   2.266   1.449  0.7017  0.5288 -1.0763
39088SOL     OW26231  10.980  11.053   4.723 -0.0068  0.5968 -0.1530
39088SOL    HW126232  10.886  11.033   4.728  0.0134  0.1793 -1.1911
39088SOL    HW226233  10.987  11.111   4.647  0.8308 -1.0463 -1.3839
39089SOL     OW26234   2.319   8.610  10.027 -0.1308 -0.5908 -0.3043
39089SOL    HW126235   2.282   8.547   9.964  0.2374  0.7365 -1.8984
39089SOL    HW226236   2.342   8.686   9.975  0.4435  0.4789  1.4222
39090SOL     OW26237   3.579   6.291   4.135 -0.2655  0.2907  0.3801
39090SOL    HW126238   3.646   6.260   4.195 -2.6662  0.9967  3.7265
39090SOL    HW226239   3.615   6.372   4.098  1.3643 -0.2392  0.7517
39091SOL     OW26240   5.370   8.292  10.278 -0.2294  0.0660 -0.1467
39091SOL    HW126241   5.278   8.277  10.256 -0.2008  0.9193 -0.8853
39091SOL    HW226242   5.374   8.383  10.307  0.8079  0.9083 -2.6584
39092SOL     OW26243   0.899   7.735   6.736 -0.6987  0.1196  0.0338
39092SOL    HW126244   0.988   7.742   6.771 -0.2045 -0.4359 -1.0950
39092SOL    HW226245   0.857   7.669   6.791 -0.6737  0.9096  1.0492
39093SOL     OW26246   6.467   5.612   8.396 -0.1358 -0.2291 -0.4804
39093SOL    HW126247   6.380   5.595   8.359  0.7284 -2.9602 -1.5071
39093SOL    HW226248   6.502   5.525   8.415  2.4603  0.7778 -0.2729
39094SOL     OW26249   5.468   8.507   9.664 -0.4015 -0.0501 -0.3536
39094SOL    HW126250   5.552   8.480   9.627 -0.8404 -0.8659 -0.7710
39094SOL    HW226251   5.489   8.583   9.719  0.8387 -1.1370  0.7223
39095SOL     OW26252   0.292   1.487   2.754 -0.3037  0.1027  0.4174
39095SOL    HW126253   0.280   1.476   2.660  1.8065 -0.4213  0.1539
39095SOL    HW226254   0.383   1.461   2.770 -0.3498  0.9743  2.4757
39096SOL     OW26255   7.220   4.287   3.009 -0.0233  0.0555  0.3538
39096SOL    HW126256   7.222   4.231   2.931 -1.6739 -1.4973  1.3512
39096SOL    HW226257   7.292   4.255   3.064  1.0583  1.0665 -0.4141
39097SOL     OW26258   9.101   7.466   1.514  0.0731 -0.5401  0.4655
39097SOL    HW126259   9.036   7.508   1.570  1.5161 -0.1738  1.9798
39097SOL    HW226260   9.072   7.375   1.507 -0.1697 -0.5947  1.8377
39098SOL     OW26261  10.860   7.448   6.444  0.6157 -0.7653  0.3560
39098SOL    HW126262  10.926   7.510   6.476  0.7014 -0.5747 -0.1838
39098SOL    HW226263  10.786   7.458   6.504 -0.1367  1.2504 -0.8173
39099SOL     OW26264  10.728   6.194   1.758 -0.0243  0.1042 -0.1664
39099SOL    HW126265  10.671   6.267   1.782  1.7389  1.2666  0.7030
39099SOL    HW226266  10.803   6.202   1.817  0.8011 -1.6808 -0.9054
39100SOL     OW26267  10.577  11.158   1.494  0.0875 -0.2277 -0.0619
39100SOL    HW126268  10.592  11.064   1.496  1.5716 -0.0101  0.0170
39100SOL    HW226269  10.565  11.178   1.401  0.9041 -0.3377 -0.1964
39101SOL     OW26270   4.295   3.304   2.898 -0.2176 -0.1448 -0.1633
39101SOL    HW126271   4.365   3.270   2.954 -0.0593  1.8940  0.9411
39101SOL    HW226272   4.330   3.295   2.809 -0.0100 -2.3610  0.0833
39102SOL     OW26273   7.082   0.907   8.865 -0.1546  0.0783 -0.0332
39102SOL    HW126274   7.157   0.848   8.874  1.0926  1.3049 -1.6575
39102SOL    HW226275   7.005   0.852   8.881  1.0809 -1.1341  2.0876
39103SOL     OW26276   4.371  11.632   1.102  0.2209  0.5424  0.3795
39103SOL    HW126277   4.441  11.636   1.167  0.5634  0.1523  0.0398
39103SOL    HW226278   4.405  11.574   1.034 -1.0305 -0.9022  0.9364
39104SOL     OW26279   3.722   8.742   2.939  0.0507 -0.4090 -0.0624
39104SOL    HW126280   3.637   8.701   2.954  0.0865 -0.6356 -0.4670
39104SOL    HW226281   3.705   8.811   2.875  0.0601 -0.0346  0.3303
39105SOL     OW26282   4.143  10.486   6.766 -0.5842  0.1294  0.0809
39105SOL    HW126283   4.233  10.457   6.786 -1.6168 -1.1179  3.8149
39105SOL    HW226284   4.108  10.416   6.710  0.1265 -0.5137  0.4116
39106SOL     OW26285   8.836  12.194  11.700 -0.1938 -0.9525 -0.3100
39106SOL    HW126286   8.757  12.141  11.708 -2.2191  1.5005 -2.3785
39106SOL    HW226287   8.821  12.269  11.758  1.0657 -0.9418  0.0262
39107SOL     OW26288   0.476   2.403  12.393 -0.6408  0.3564 -0.4463
39107SOL    HW126289   0.493   2.314  12.422 -0.7508  0.3048 -0.5417
39107SOL    HW226290   0.383   2.404  12.370 -0.7640  0.6299  0.0351
39108SOL     OW26291   7.023   5.689   1.223  0.1282 -0.6706  0.5496
39108SOL    HW126292   7.013   5.739   1.142  2.1432  0.4919  0.9334
39108SOL    HW226293   6.980   5.743   1.290  0.0489 -0.7314  0.5475
39109SOL     OW26294   4.080   0.140   4.211 -0.1758 -0.2362 -0.0672
39109SOL    HW126295   4.155   0.185   4.251 -1.6485  1.3061  1.1012
39109SOL    HW226296   4.081   0.053   4.249  1.8227 -0.7567 -1.1623
39110SOL     OW26297   6.985   6.226   2.342 -0.1714  0.3963  0.3739
39110SOL    HW126298   6.893   6.254   2.337 -1.0667 -1.8575  2.2874
39110SOL    HW226299   7.001   6.179   2.261 -1.3285 -0.7699  0.7938
39111SOL     OW26300   5.546  10.160  12.273  0.1651  0.7686 -0.4317
39111SOL    HW126301   5.624  10.209  12.299  0.4890 -0.0742  0.2112
39111SOL    HW226302   5.497  10.148  12.354 -0.0052  0.1964 -0.6141
39112SOL     OW26303   1.181   2.196   8.302 -0.3091 -0.6823  0.3983
39112SOL    HW126304   1.212   2.125   8.245 -1.6254 -2.1544  1.4232
39112SOL    HW226305   1.235   2.271   8.278  1.8633 -2.2794 -0.0297
39113SOL     OW26306   8.837   2.439   1.122  0.6434 -0.3419  0.2741
39113SOL    HW126307   8.852   2.533   1.110  1.8016 -0.3086  1.6085
39113SOL    HW226308   8.924   2.404   1.142 -0.1263 -1.2371  2.3455
39114SOL     OW26309  11.049  10.044   3.306  0.0096 -0.4240  0.5233
39114SOL    HW126310  11.014  10.132   3.323 -0.1903 -0.6961  1.5899
39114SOL    HW226311  11.128  10.040   3.360  0.4161 -0.6400 -0.0898
39115SOL     OW26312   5.677   1.059   7.802 -0.3293  0.1996 -0.1526
39115SOL    HW126313   5.727   1.040   7.881 -0.5723 -1.2558 -0.3190
39115SOL    HW226314   5.601   1.000   7.807 -2.3912  2.7118  0.3681
39116SOL     OW26315  10.282  10.779  12.211 -0.2749 -0.1822  0.0104
39116SOL    HW126316  10.217  10.848  12.227  1.1135  1.2567 -0.2382
39116SOL    HW226317  10.322  10.803  12.127 -0.7182 -2.1047 -0.7957
39117SOL     OW26318   9.245   4.221   7.972 -0.2880 -0.2877  0.0146
39117SOL    HW126319   9.221   4.175   7.891  1.2032 -0.7568 -0.1927
39117SOL    HW226320   9.272   4.308   7.942  1.1414 -0.7514 -0.1442
39118SOL     OW26321   1.946  12.033   4.698 -0.4183 -0.2104  0.3734
39118SOL    HW126322   1.950  12.016   4.604  0.1723  4.0189 -0.5753
39118SOL    HW226323   1.856  12.064   4.712  0.2053  1.5510  0.6309
39119SOL     OW26324  10.724   2.156   4.584 -0.0847  0.1903 -0.0791
39119SOL    HW126325  10.642   2.106   4.586 -0.0613  0.0943 -1.1698
39119SOL    HW226326  10.793   2.089   4.587 -0.0318  0.2643  0.6499
39120SOL     OW26327   3.074   1.123   1.666 -0.0102 -0.6101  0.5006
39120SOL    HW126328   2.991   1.102   1.623  0.4914 -1.1798 -0.2397
39120SOL    HW226329   3.054   1.125   1.759 -1.0931  0.4423  0.2694
39121SOL     OW26330  11.816   6.957   9.278  0.8109  0.1291  0.5460
39121SOL    HW126331  11.850   6.952   9.188  1.8695 -0.4718  0.9597
39121SOL    HW226332  11.849   7.040   9.311  1.9178 -0.4371  0.9354
39122SOL     OW26333   5.273   8.759   3.026  0.4965  0.5750  0.2134
39122SOL    HW126334   5.296   8.852   3.020  0.9709  0.4320 -0.3051
39122SOL    HW226335   5.286   8.737   3.118  2.3157  0.5435 -0.0200
39123SOL     OW26336   4.697   0.931   8.953 -0.2559  0.4764  0.5097
39123SOL    HW126337   4.716   0.891   9.038 -0.0990  0.0416  0.2733
39123SOL    HW226338   4.654   1.013   8.974 -1.4917 -0.2673  0.9986
39124SOL     OW26339   5.746   8.218   5.144  0.3657 -0.0605 -0.3931
39124SOL    HW126340   5.811   8.246   5.209 -0.3180  0.4012  0.1083
39124SOL    HW226341   5.743   8.123   5.151 -0.4335  0.0459  0.9890
39125SOL     OW26342   4.077   1.819   5.318  0.1170 -0.3348  0.1202
39125SOL    HW126343   4.035   1.891   5.271 -0.5960 -0.3797  0.6679
39125SOL    HW226344   4.170   1.824   5.294  0.2535  1.3674  0.8922
39126SOL     OW26345   9.273   9.849   6.865 -0.0874  0.2869  0.3796
39126SOL    HW126346   9.287   9.786   6.935  3.0517 -0.5767 -0.8551
39126SOL    HW226347   9.187   9.827   6.829  0.0766 -2.0166  1.2444
39127SOL     OW26348  11.226   8.172   0.211  0.3853 -0.3937 -0.3016
39127SOL    HW126349  11.185   8.151   0.295 -3.7632 -1.1263 -2.2579
39127SOL    HW226350  11.208   8.265   0.198 -0.8467 -0.7149 -1.1581
39128SOL     OW26351  10.130   3.342   7.419  0.0275  0.6918  0.0339
39128SOL    HW126352  10.055   3.286   7.397  0.8837 -0.5105  0.0838
39128SOL    HW226353  10.095   3.431   7.417 -0.6596  0.4818 -3.3919
39129SOL     OW26354   0.917  10.014  11.220 -0.2928 -0.2140 -0.1857
39129SOL    HW126355   0.926   9.998  11.314  1.4998  0.1404 -0.2630
39129SOL    HW226356   0.877  10.101  11.215  1.3543  0.6140  0.2946
39130SOL     OW26357   1.118   1.678   2.111 -0.5197  0.2519 -0.0855
39130SOL    HW126358   1.119   1.704   2.019 -0.3728  0.8167  0.0707
39130SOL    HW226359   1.194   1.723   2.149 -0.1478 -0.5568  0.1583
39131SOL     OW26360   3.613  10.260   0.225 -0.4307 -0.2032  0.5929
39131SOL    HW126361   3.564  10.339   0.250 -1.3979 -0.3403 -0.7813
39131SOL    HW226362   3.704  10.282   0.245 -0.8300  0.7276  1.5245
39132SOL     OW26363   9.960   4.603  11.662  0.2422 -0.6122  0.3919
39132SOL    HW126364   9.908   4.528  11.633  0.2092 -0.5716  0.3461
39132SOL    HW226365   9.948   4.606  11.757 -1.0152  0.2680  0.2325
39133SOL     OW26366   0.964   9.725   0.638 -0.0178 -0.5060 -0.4744
39133SOL    HW126367   0.896   9.725   0.705  1.5230 -2.2885  1.2421
39133SOL    HW226368   0.941   9.797   0.580 -1.7907  0.7511  1.6241
39134SOL     OW26369   9.000  12.084   7.649  0.5382  0.1586  0.3493
39134SOL    HW126370   9.053  12.118   7.576  0.7625  1.9764  1.3016
39134SOL    HW226371   8.991  11.991   7.630  1.6457  0.3440 -1.3511
39135SOL     OW26372   3.267   6.970   2.187  0.3141 -0.2602  0.1524
39135SOL    HW126373   3.261   6.959   2.092  0.1428  1.2195 -0.0415
39135SOL    HW226374   3.354   6.939   2.210  0.3016 -0.7630 -0.4688
39136SOL     OW26375   6.897   5.160   9.826 -0.2475 -0.6834 -0.5386
39136SOL    HW126376   6.929   5.177   9.738  1.2399 -0.7792 -0.0449
39136SOL    HW226377   6.870   5.069   9.825  0.8426 -1.0157 -0.6018
39137SOL     OW26378   2.011   2.845   5.326 -0.2377 -0.7063  0.5103
39137SOL    HW126379   2.056   2.895   5.395 -0.9324  1.5341 -0.5790
39137SOL    HW226380   1.919   2.846   5.352 -0.4523 -0.1557 -0.2546
39138SOL     OW26381  11.906   1.512   0.994  0.1000  0.5429 -0.0020
39138SOL    HW126382  11.903   1.482   1.085  1.3853 -0.5148 -0.2789
39138SOL    HW226383  11.821   1.554   0.980 -0.2639  0.4008  1.5664
39139SOL     OW26384   1.427   8.102   2.506 -0.4292 -0.0431  0.3537
39139SOL    HW126385   1.520   8.122   2.495 -0.0300 -1.0657  1.5991
39139SOL    HW226386   1.424   8.007   2.511 -1.5026  0.0028  0.7301
39140SOL     OW26387   6.738  11.879   9.262  0.5687  0.0239  0.6108
39140SOL    HW126388   6.821  11.925   9.272  1.6589 -1.4529 -1.0377
39140SOL    HW226389   6.708  11.901   9.174  2.1181 -3.6868 -1.0770
39141SOL     OW26390   4.766   4.082   1.255  0.3286  0.5984 -0.1380
39141SOL    HW126391   4.674   4.102   1.238  0.3856 -0.8896 -2.6913
39141SOL    HW226392   4.767   4.049   1.345 -2.2699 -2.4097 -1.0016
39142SOL     OW26393  11.535   8.238   1.108  0.1993 -0.1832  0.2712
39142SOL    HW126394  11.545   8.149   1.141  0.0899  0.0630  0.9913
39142SOL    HW226395  11.450   8.238   1.064  0.4334 -0.5665 -0.1897
39143SOL     OW26396  10.739  12.585   9.407  0.0777 -0.3717 -0.6680
39143SOL    HW126397  10.801  12.541   9.349  0.4925 -0.3761 -0.2242
39143SOL    HW226398  10.755  12.548   9.493  1.5080  1.6848  0.0450
39144SOL     OW26399   1.494   1.704  10.988 -0.2679  0.3952 -1.0615
39144SOL    HW126400   1.484   1.765  11.061  0.8586 -0.4602 -0.1437
39144SOL    HW226401   1.439   1.740  10.918 -1.3266  1.2715  0.1760
39145SOL     OW26402   2.228   1.478   2.223  0.5488  0.5657  0.5716
39145SOL    HW126403   2.322   1.466   2.236  0.6857 -0.9356 -1.3179
39145SOL    HW226404   2.221   1.538   2.150  0.1063 -0.7495 -0.5006
39146SOL     OW26405   3.390   1.903   4.327 -0.2919  0.0592 -0.0910
39146SOL    HW126406   3.396   1.954   4.246 -1.2366  0.1563 -0.1096
39146SOL    HW226407   3.429   1.818   4.304 -0.4831  0.1107 -0.6347
39147SOL     OW26408  12.124   5.582   1.206  0.1285  0.4806 -0.3060
39147SOL    HW126409  12.031   5.579   1.230  0.1513  0.6053 -0.1950
39147SOL    HW226410  12.132   5.523   1.132  0.7156 -2.8153  2.1879
39148SOL     OW26411   1.482   2.868   1.194  0.1580 -0.2399  0.2061
39148SOL    HW126412   1.501   2.782   1.154  0.2591  0.4203 -1.2284
39148SOL    HW226413   1.567   2.911   1.197 -0.0956  0.3158 -0.3573
39149SOL     OW26414  11.445  12.174   8.820 -0.4815  0.0665  0.2423
39149SOL    HW126415  11.436  12.081   8.801  1.1184 -0.3672  1.4294
39149SOL    HW226416  11.498  12.177   8.900  0.9025  2.0407 -0.6789
39150SOL     OW26417   8.581   3.151   3.441 -0.4102 -0.5422 -0.1823
39150SOL    HW126418   8.579   3.247   3.448 -1.8823 -0.5225 -0.6331
39150SOL    HW226419   8.641   3.135   3.368 -2.1361  0.1959 -1.8525
39151SOL     OW26420   0.552   3.507  11.154  0.2050 -0.2557  0.3497
39151SOL    HW126421   0.513   3.579  11.203 -1.5879  0.5353 -2.0614
39151SOL    HW226422   0.646   3.518  11.166 -0.1083  1.0947  1.8825
39152SOL     OW26423  12.172   7.298  11.495  0.5056  0.4932 -0.6848
39152SOL    HW126424  12.134   7.354  11.427  0.2819 -0.8826 -1.7503
39152SOL    HW226425  12.224   7.233  11.446 -0.2798 -1.0111  0.3952
39153SOL     OW26426   0.591   5.341   2.157 -0.1353  0.3412  0.0045
39153SOL    HW126427   0.496   5.333   2.169 -0.1406  0.5187  0.0746
39153SOL    HW226428   0.629   5.300   2.235 -0.1658  1.2562  0.5074
39154SOL     OW26429   9.939   2.148   8.744  0.5821  0.4793 -0.3334
39154SOL    HW126430   9.942   2.114   8.655 -0.3225 -0.8417  0.0966
39154SOL    HW226431   9.858   2.110   8.781  0.7594  1.2694  0.9292
39155SOL     OW26432   1.321   7.217   5.136  0.1865  0.2365 -0.5685
39155SOL    HW126433   1.280   7.280   5.195  0.8359  0.4726 -0.3685
39155SOL    HW226434   1.352   7.270   5.062  0.2205  0.0737 -0.6719
39156SOL     OW26435   7.564   1.522   2.843  0.0314 -0.7388 -0.8135
39156SOL    HW126436   7.660   1.521   2.851 -0.0140 -1.3828 -0.2215
39156SOL    HW226437   7.548   1.531   2.750  0.6679 -0.2627 -0.8847
39157SOL     OW26438   1.316   6.031   0.638  0.1146 -0.0803 -0.0548
39157SOL    HW126439   1.235   6.079   0.621 -1.7926 -1.9533  2.8312
39157SOL    HW226440   1.293   5.939   0.622  2.0852 -0.5402 -0.4452
39158SOL     OW26441   6.463   9.336   6.846  0.4867  0.9134 -0.0254
39158SOL    HW126442   6.529   9.277   6.808 -0.7171 -0.8800  0.5576
39158SOL    HW226443   6.514   9.400   6.896  1.7704 -1.3571  1.7253
39159SOL     OW26444   9.560   7.726  11.921  0.2173 -0.0006  0.1452
39159SOL    HW126445   9.635   7.696  11.972  0.3457  0.6872  0.3784
39159SOL    HW226446   9.529   7.648  11.876  0.5075 -0.4835  0.7619
39160SOL     OW26447   7.028  10.986   9.378 -0.1744  0.1069  0.2641
39160SOL    HW126448   7.009  11.028   9.461  0.6490 -0.1860  0.6086
39160SOL    HW226449   7.013  11.055   9.313  0.6380  0.7882  0.7769
39161SOL     OW26450   3.399   3.845   3.020 -0.6212  0.6856  0.2456
39161SOL    HW126451   3.387   3.772   3.081  1.1462 -1.2579 -1.5509
39161SOL    HW226452   3.340   3.825   2.947 -0.3171  1.1933 -0.1416
39162SOL     OW26453   0.412  11.768   4.766 -0.2220  0.4320 -0.6303
39162SOL    HW126454   0.355  11.750   4.692 -0.4025 -0.5903 -0.2548
39162SOL    HW226455   0.468  11.840   4.736  0.4035 -0.6411 -2.1381
39163SOL     OW26456   7.262   7.201   6.195  0.3498 -0.1063 -0.4308
39163SOL    HW126457   7.179   7.223   6.153 -1.1368 -0.8285  1.9551
39163SOL    HW226458   7.264   7.105   6.196  0.5306 -0.1097  0.7158
39164SOL     OW26459   8.408   4.572  11.572  0.3898 -0.2538 -0.0610
39164SOL    HW126460   8.341   4.582  11.639  1.3851 -0.5458  0.9988
39164SOL    HW226461   8.485   4.615  11.607  0.6431  0.5283 -1.4850
39165SOL     OW26462  11.090  10.218   4.863 -0.0341  0.5378 -0.1238
39165SOL    HW126463  11.100  10.228   4.768 -2.1643  0.6819 -0.3725
39165SOL    HW226464  11.027  10.147   4.873 -2.0175  2.3677  1.0800
39166SOL     OW26465   6.358   5.616   2.627  0.3489  0.3314 -0.1433
39166SOL    HW126466   6.438   5.581   2.589  0.0656  0.8438 -1.2511
39166SOL    HW226467   6.298   5.542   2.630  0.0092  0.5116 -1.7531
39167SOL     OW26468  11.885   2.012   6.784  0.6737  0.4038  0.2208
39167SOL    HW126469  11.970   2.029   6.743  0.6752 -2.9533 -1.4500
39167SOL    HW226470  11.821   2.052   6.725  0.9345  0.1177 -0.2554
39168SOL     OW26471   9.100   0.423   0.548  0.0600 -0.1057  0.3833
39168SOL    HW126472   9.112   0.337   0.508 -0.7689 -0.2485  0.4157
39168SOL    HW226473   9.167   0.427   0.616  1.4939  0.1540 -1.0051
39169SOL     OW26474   6.396   3.365   5.080  0.4333 -0.2882 -0.3047
39169SOL    HW126475   6.395   3.351   4.985 -0.2917  0.2343 -0.3790
39169SOL    HW226476   6.470   3.424   5.094  0.2954 -0.0442 -0.5950
39170SOL     OW26477   8.138  11.438  11.766 -0.0316 -0.2365  1.0235
39170SOL    HW126478   8.129  11.409  11.857 -1.1987 -0.3876  0.8728
39170SOL    HW226479   8.049  11.454  11.736 -0.0090 -3.1824 -1.0668
39171SOL     OW26480  12.289   0.306   5.539 -0.0021 -0.1540 -0.1371
39171SOL    HW126481  12.207   0.343   5.571  0.0661 -0.8685  0.9238
39171SOL    HW226482  12.266   0.216   5.514  0.0793  0.2034 -1.5790
39172SOL     OW26483   8.333   8.801   8.158 -0.2594  0.5806 -0.1139
39172SOL    HW126484   8.323   8.860   8.232 -0.9085 -0.1159  0.3657
39172SOL    HW226485   8.253   8.811   8.107 -0.8722 -0.6722  0.5603
39173SOL     OW26486   1.668   8.599   6.275  0.3906  0.6195 -0.0943
39173SOL    HW126487   1.633   8.516   6.244  0.8221 -0.0293  1.0994
39173SOL    HW226488   1.621   8.665   6.225  0.2057 -0.3399 -1.2346
39174SOL     OW26489   6.192   3.973  11.550 -0.4454  0.0672 -0.1504
39174SOL    HW126490   6.265   4.036  11.551 -0.7325  0.4040 -0.1108
39174SOL    HW226491   6.175   3.958  11.457 -0.2293 -0.1244 -0.1583
39175SOL     OW26492  10.710   5.028   1.158 -0.1258 -0.8499 -0.1841
39175SOL    HW126493  10.655   5.095   1.118  2.1883  2.4819  1.7036
39175SOL    HW226494  10.779   5.012   1.093 -0.6427 -1.4322 -0.6081
39176SOL     OW26495   3.185   3.645   2.549 -0.3172  0.4865  0.4192
39176SOL    HW126496   3.148   3.558   2.564  0.7029 -0.0988 -0.3964
39176SOL    HW226497   3.145   3.674   2.467  0.9659 -0.1372 -0.4522
39177SOL     OW26498   8.580   8.040   7.616  0.2345  0.0654  0.6824
39177SOL    HW126499   8.670   8.071   7.607 -0.6852  3.1838  1.0248
39177SOL    HW226500   8.547   8.035   7.527 -0.0356  1.6759  0.6660
39178SOL     OW26501   1.533   9.491   5.635  0.1813  0.4964 -0.6766
39178SOL    HW126502   1.560   9.493   5.727 -0.1923 -1.1201 -0.5006
39178SOL    HW226503   1.485   9.573   5.622  0.5895  0.9352  0.4504
39179SOL     OW26504   9.546  12.328   4.351  0.2709  0.3281  0.1102
39179SOL    HW126505   9.523  12.419   4.336 -0.2110  0.1794 -0.0578
39179SOL    HW226506   9.486  12.299   4.420  0.4855  0.1646  0.2307
39180SOL     OW26507   3.646   0.335   8.011  0.2468 -0.7832 -0.0342
39180SOL    HW126508   3.633   0.384   8.092 -0.8587 -1.0593 -0.0241
39180SOL    HW226509   3.558   0.323   7.976  0.7897  0.4261 -1.9544
39181SOL     OW26510   0.660   8.940   1.851  0.8495 -0.6632 -0.3518
39181SOL    HW126511   0.731   8.893   1.806  1.4776 -1.1402  1.0901
39181SOL    HW226512   0.634   9.009   1.789  1.8638 -1.1276 -1.3278
39182SOL     OW26513  11.844   3.306   3.076  0.4549 -0.5636  0.7526
39182SOL    HW126514  11.903   3.377   3.050 -0.8621  0.2173 -0.1900
39182SOL    HW226515  11.853   3.241   3.007  0.9779 -0.9146  1.1463
39183SOL     OW26516   6.457   5.683   7.404 -0.1216  0.4346  0.2223
39183SOL    HW126517   6.367   5.682   7.372 -0.0910 -2.3808 -0.0993
39183SOL    HW226518   6.459   5.750   7.471 -1.1657  4.0339 -2.9661
39184SOL     OW26519  11.277   4.695   7.675  0.1002 -0.0844  0.4891
39184SOL    HW126520  11.259   4.672   7.766  0.6261 -2.6318  0.0244
39184SOL    HW226521  11.217   4.641   7.624  0.0026  1.0986 -0.7059
39185SOL     OW26522   1.205   6.715   3.762 -0.1487  0.7985 -0.2649
39185SOL    HW126523   1.265   6.694   3.690 -0.2034  1.8516 -0.6408
39185SOL    HW226524   1.135   6.651   3.754  0.1067  0.5839 -0.8365
39186SOL     OW26525  12.243   4.688   4.854 -0.1962  0.3482 -0.1373
39186SOL    HW126526  12.277   4.626   4.918  0.8924  2.2538  1.2616
39186SOL    HW226527  12.161   4.720   4.893  0.3173  1.2874  0.2296
39187SOL     OW26528  11.552   4.083   0.511  0.6505  0.2058 -0.1595
39187SOL    HW126529  11.630   4.031   0.527  2.0490  2.2089 -0.2094
39187SOL    HW226530  11.479   4.022   0.527  2.1591 -1.3186  1.2943
39188SOL     OW26531  10.025  10.916   5.334  0.1700 -0.5661 -0.1951
39188SOL    HW126532  10.044  10.984   5.269 -0.6059  0.4583  0.6110
39188SOL    HW226533  10.094  10.850   5.321  2.1833  1.3113  0.3043
39189SOL     OW26534  11.199   7.319   9.450 -0.2508 -0.2272 -0.2228
39189SOL    HW126535  11.251   7.299   9.528 -0.0998  1.5584  0.1655
39189SOL    HW226536  11.226   7.254   9.386 -0.3606 -1.7231  1.1865
39190SOL     OW26537   1.127   8.495   6.588  0.3906 -0.8247  0.0028
39190SOL    HW126538   1.142   8.514   6.680  0.4301 -1.2105  0.0754
39190SOL    HW226539   1.125   8.581   6.546  1.9797 -0.7188  0.1100
39191SOL     OW26540   2.455   7.726   5.944  0.1847 -0.1425  0.0492
39191SOL    HW126541   2.380   7.670   5.959 -1.5383  1.7882 -0.8843
39191SOL    HW226542   2.448   7.752   5.852  2.0481  0.0443 -0.0907
39192SOL     OW26543   1.894   1.590  10.076  0.6421 -0.0273  0.5241
39192SOL    HW126544   1.981   1.616  10.045 -0.2486  0.3955 -1.7987
39192SOL    HW226545   1.834   1.651  10.034 -0.9520 -1.5400  0.4691
39193SOL     OW26546   1.267   1.355   1.372 -0.6741  0.0826 -0.2926
39193SOL    HW126547   1.252   1.333   1.280 -0.5982  0.8066 -0.4832
39193SOL    HW226548   1.349   1.405   1.371 -0.9471  0.5328  0.1041
39194SOL     OW26549   3.924   7.294   0.152 -0.0861  0.1871  0.0881
39194SOL    HW126550   3.883   7.237   0.087 -0.6177  1.5965 -0.8694
39194SOL    HW226551   3.961   7.234   0.216 -1.7823 -1.2047 -0.1486
39195SOL     OW26552   9.181   7.453   7.426  0.0791 -0.1760  0.5050
39195SOL    HW126553   9.236   7.376   7.443 -1.1276 -1.3054 -0.4992
39195SOL    HW226554   9.225   7.497   7.353 -0.8086 -1.6236 -0.9694
39196SOL     OW26555   3.167  11.801  10.663 -0.4032  0.6654 -0.2168
39196SOL    HW126556   3.257  11.808  10.694 -0.9964 -1.4073  2.2758
39196SOL    HW226557   3.120  11.870  10.710 -0.5041  0.4184  0.0396
39197SOL     OW26558   6.363   7.184   5.515  0.0198 -0.0416  0.1185
39197SOL    HW126559   6.382   7.167   5.423 -1.2467 -1.0610  0.0049
39197SOL    HW226560   6.286   7.241   5.513 -1.1405 -1.5098  0.4906
39198SOL     OW26561   2.250   2.852   4.680 -0.0976  0.1976 -1.0513
39198SOL    HW126562   2.178   2.873   4.621 -0.7196 -0.2074 -0.4512
39198SOL    HW226563   2.276   2.763   4.655 -0.4569 -0.0298 -0.6317
39199SOL     OW26564   8.850   5.939   9.342 -0.0615 -0.0804  0.1826
39199SOL    HW126565   8.875   5.847   9.332 -0.7074 -0.3852  1.2164
39199SOL    HW226566   8.875   5.961   9.432  0.9638  1.0587 -0.3381
39200SOL     OW26567  11.343   7.532  10.864 -0.3962 -0.3121  0.3679
39200SOL    HW126568  11.281   7.485  10.920 -2.6042  0.5634 -1.1988
39200SOL    HW226569  11.294   7.552  10.785  1.8348  0.7165 -0.8606
39201SOL     OW26570   5.028   0.568   4.769  0.3193 -0.2751  0.0692
39201SOL    HW126571   5.055   0.482   4.801  1.3015 -0.2837 -0.7030
39201SOL    HW226572   4.969   0.549   4.696 -0.4099 -0.2695  0.6438
39202SOL     OW26573  10.614  10.404   7.495 -0.5177  0.5111  0.1239
39202SOL    HW126574  10.582  10.488   7.529  0.6174  0.6303  0.9541
39202SOL    HW226575  10.589  10.340   7.562  1.7658  0.7545  1.2940
39203SOL     OW26576   0.672   5.595   5.237 -0.5169  0.3896  0.7856
39203SOL    HW126577   0.600   5.545   5.198  0.0435  0.8627 -0.9596
39203SOL    HW226578   0.634   5.681   5.255 -0.7916  0.1544  1.3516
39204SOL     OW26579  11.928   7.580   7.279  0.1048 -0.0209 -0.3624
39204SOL    HW126580  11.908   7.654   7.221  0.8652  2.3242  2.0962
39204SOL    HW226581  11.858   7.582   7.344  0.5850 -0.9314  0.2036
39205SOL     OW26582  10.914  12.454   1.586 -0.7250 -0.7340  0.0368
39205SOL    HW126583  10.884  12.415   1.668 -1.4497  1.2337  0.7723
39205SOL    HW226584  11.007  12.433   1.581 -0.7807 -1.2895  1.1164
39206SOL     OW26585  12.178  11.001   5.253  0.1930  0.9594 -0.4015
39206SOL    HW126586  12.212  10.979   5.340  0.0230  2.2564  0.0106
39206SOL    HW226587  12.090  11.036   5.269  0.6765  2.4877 -0.9396
39207SOL     OW26588   6.889   4.148   4.575  0.0120  0.3027  0.5331
39207SOL    HW126589   6.909   4.158   4.668  1.2853  0.6361  0.2299
39207SOL    HW226590   6.872   4.237   4.544  1.5767  0.4457  0.0206
39208SOL     OW26591   3.158  11.893   3.992  0.6048 -0.2802 -0.1103
39208SOL    HW126592   3.131  11.984   3.977  0.9928 -0.1434 -0.0093
39208SOL    HW226593   3.237  11.901   4.046  1.6376 -0.6190 -1.5304
39209SOL     OW26594  12.547   5.731   9.376 -0.1061  0.0909  0.2546
39209SOL    HW126595  12.594   5.656   9.338 -0.9142 -1.2688  1.8363
39209SOL    HW226596  12.556   5.800   9.310 -1.0886 -2.0075 -2.2702
39210SOL     OW26597   4.949   5.575   4.977  0.7754 -0.2207 -0.3415
39210SOL    HW126598   4.918   5.551   4.890  0.3978  0.2615 -0.3423
39210SOL    HW226599   5.044   5.575   4.969  0.7340  0.2997 -0.8831
39211SOL     OW26600   8.563  10.656   5.103 -0.0512 -0.0820  0.6222
39211SOL    HW126601   8.473  10.633   5.083 -0.3548  2.2734 -1.1024
39211SOL    HW226602   8.556  10.726   5.169  0.6500 -1.5019  2.2773
39212SOL     OW26603   3.921  11.083   2.547  0.1478 -0.5277  0.3180
39212SOL    HW126604   3.958  11.120   2.467 -1.0159 -1.5988 -0.7645
39212SOL    HW226605   3.903  11.159   2.603  0.8907  0.2445 -0.4556
39213SOL     OW26606   9.403  11.253   6.253 -0.3243  0.1901 -0.2039
39213SOL    HW126607   9.459  11.326   6.228  2.4753 -1.1280  1.7332
39213SOL    HW226608   9.427  11.183   6.193 -1.3493  0.1513 -0.5904
39214SOL     OW26609   0.142   5.213   6.817  0.8088 -0.3001 -0.3892
39214SOL    HW126610   0.058   5.183   6.854  0.8152 -0.3378 -0.4050
39214SOL    HW226611   0.190   5.247   6.891  1.1647 -1.1565 -0.2124
39215SOL     OW26612   7.567   3.840  10.590  0.0395  0.3368  0.4963
39215SOL    HW126613   7.525   3.763  10.628 -0.4314 -0.0358 -0.7321
39215SOL    HW226614   7.502   3.910  10.598  0.4820  0.6325  1.6473
39216SOL     OW26615   3.832   4.148   1.507 -0.4153  0.3451  0.2070
39216SOL    HW126616   3.746   4.184   1.486 -0.0126  0.1104 -2.1582
39216SOL    HW226617   3.835   4.064   1.460  0.9038  0.1198  0.6493
39217SOL     OW26618   1.303   1.277   5.185 -0.0485 -0.0647  0.5799
39217SOL    HW126619   1.327   1.271   5.277 -0.4119  0.6068  0.7304
39217SOL    HW226620   1.365   1.340   5.148 -0.6598  0.6167  0.6616
39218SOL     OW26621   2.496   1.613  10.480 -0.0126 -0.2804  0.2429
39218SOL    HW126622   2.463   1.541  10.426  0.2303 -0.0060 -0.2701
39218SOL    HW226623   2.521   1.681  10.418 -1.3458  0.7332  0.7690
39219SOL     OW26624   7.217   5.103  11.145  0.1849  0.7944  0.2665
39219SOL    HW126625   7.231   5.024  11.196 -2.3615 -0.9346 -1.5241
39219SOL    HW226626   7.305   5.138  11.130  1.2962 -1.1766  1.8435
39220SOL     OW26627   5.307   4.765  10.991 -0.1087 -0.0184  0.1536
39220SOL    HW126628   5.266   4.824  11.054 -0.7515  0.2067 -0.4693
39220SOL    HW226629   5.234   4.721  10.948  0.3613 -1.3616  0.6819
39221SOL     OW26630  11.396  11.492   1.765  0.3063  0.5716 -0.0066
39221SOL    HW126631  11.392  11.569   1.821  1.3129  0.5726  0.0785
39221SOL    HW226632  11.406  11.527   1.676 -2.5865  0.6146 -0.4128
39222SOL     OW26633   0.141   5.701   8.667 -0.4909  0.6536 -0.1087
39222SOL    HW126634   0.186   5.636   8.720 -0.6625  0.6138 -0.0149
39222SOL    HW226635   0.057   5.662   8.646  0.6838 -0.6487 -2.9473
39223SOL     OW26636   4.513   2.348   0.331  0.0416  0.0155  0.4272
39223SOL    HW126637   4.567   2.415   0.290 -1.0088  0.8835  0.4021
39223SOL    HW226638   4.424   2.382   0.325 -0.8697 -2.4171 -1.6572
39224SOL     OW26639   7.183   8.385   9.479  0.2775  0.4937 -0.0894
39224SOL    HW126640   7.216   8.469   9.448 -2.0771  1.5797  0.1860
39224SOL    HW226641   7.102   8.405   9.525  0.1784 -1.8283  0.9126
39225SOL     OW26642   4.430   8.319  11.066 -0.1342  0.0390  0.2334
39225SOL    HW126643   4.381   8.401  11.077 -1.5841 -0.9211  1.2927
39225SOL    HW226644   4.401   8.264  11.139  0.8125 -1.4232 -0.4594
39226SOL     OW26645  10.928  10.350   1.237  0.0242 -0.2883  0.5341
39226SOL    HW126646  10.985  10.337   1.162  0.1220  0.2795  0.5028
39226SOL    HW226647  10.886  10.265   1.251  0.8622 -0.7114  0.5492
39227SOL     OW26648   4.709   9.557  12.090 -0.2187  0.3293 -0.1439
39227SOL    HW126649   4.729   9.520  12.176  2.1653 -0.1163 -0.8031
39227SOL    HW226650   4.706   9.651  12.105 -0.4096  0.2242  0.5160
39228SOL     OW26651  10.808   5.230  11.602 -0.9776 -0.2523 -0.5019
39228SOL    HW126652  10.734   5.191  11.556 -1.4996  0.6459 -0.4441
39228SOL    HW226653  10.863   5.268  11.533 -0.3628 -1.2340 -0.5741
39229SOL     OW26654   9.249   4.130   2.876  0.1860  0.2617  0.1149
39229SOL    HW126655   9.279   4.072   2.806 -1.5114 -0.6252  0.0811
39229SOL    HW226656   9.329   4.172   2.908  1.1376 -0.1518 -1.5864
39230SOL     OW26657   8.331   7.365   8.623  0.1612  0.2613  0.3904
39230SOL    HW126658   8.396   7.343   8.556 -1.6049 -1.3259 -0.9003
39230SOL    HW226659   8.334   7.461   8.629 -1.6010  0.8611 -4.2279
39231SOL     OW26660  11.512   3.119   6.829  0.1972 -0.4665  0.3239
39231SOL    HW126661  11.529   3.041   6.776  1.0720  0.1540 -0.3346
39231SOL    HW226662  11.589   3.127   6.884 -0.0800 -0.2992  0.6854
39232SOL     OW26663   2.762   6.132  12.311  0.3808  0.5286 -0.1703
39232SOL    HW126664   2.698   6.125  12.382 -0.1081  0.0220 -0.6517
39232SOL    HW226665   2.711   6.117  12.231  1.2048 -0.5120 -0.5236
39233SOL     OW26666   9.317   5.961   7.435  0.6021 -0.2429  0.0495
39233SOL    HW126667   9.239   6.009   7.464  2.8294  2.8274  1.4598
39233SOL    HW226668   9.342   6.005   7.354  0.3449 -1.9436 -1.0076
39234SOL     OW26669   2.157   9.472  11.516 -0.9829 -0.8832 -0.8595
39234SOL    HW126670   2.187   9.506  11.600  1.1122  0.3062 -2.0077
39234SOL    HW226671   2.127   9.383  11.535  0.3465 -0.9819  0.9752
39235SOL     OW26672  10.651   7.747   7.564  0.0999 -0.1174  0.2808
39235SOL    HW126673  10.679   7.791   7.484  0.1768  0.6215  0.7077
39235SOL    HW226674  10.727   7.695   7.591 -0.0093 -0.5599 -0.2551
39236SOL     OW26675  12.426   4.189   7.696 -0.0309  0.4792  0.0768
39236SOL    HW126676  12.414   4.096   7.714  1.2177  0.4780  1.1027
39236SOL    HW226677  12.414   4.197   7.602 -1.4681 -0.4874  0.1499
39237SOL     OW26678   9.410   6.499   9.158  0.2940  0.2117  0.4313
39237SOL    HW126679   9.453   6.424   9.116 -0.0834  1.6096 -2.7220
39237SOL    HW226680   9.459   6.512   9.239  1.8252 -2.0220 -0.0278
39238SOL     OW26681  12.184   4.281   3.826 -0.8650 -0.1599  0.2670
39238SOL    HW126682  12.237   4.329   3.762  2.7976 -2.3819  1.3359
39238SOL    HW226683  12.156   4.202   3.780 -0.1483 -0.6957  0.7386
39239SOL     OW26684  10.225   8.798  11.423  0.5668 -0.5142  0.4287
39239SOL    HW126685  10.259   8.846  11.498  0.3690 -1.1420  0.9295
39239SOL    HW226686  10.302   8.778  11.369  0.5970  0.7214 -0.0032
39240SOL     OW26687   4.758   1.382   6.111 -0.5709  0.1474 -0.4081
39240SOL    HW126688   4.679   1.419   6.151  0.0010  1.2904 -0.2813
39240SOL    HW226689   4.820   1.455   6.111  1.0920 -1.1811  1.0980
39241SOL     OW26690   8.443  12.152  10.816  0.0323  0.4503 -0.0121
39241SOL    HW126691   8.489  12.070  10.799  0.0007  0.0477  1.6382
39241SOL    HW226692   8.352  12.133  10.795 -0.0337 -0.0760  0.6916
39242SOL     OW26693   4.609   0.335   7.697  0.1676  0.1374 -0.6328
39242SOL    HW126694   4.685   0.288   7.664  0.0329  0.5557 -1.5626
39242SOL    HW226695   4.642   0.382   7.774  0.2439 -1.6462  0.5010
39243SOL     OW26696  11.147   8.465   8.879  0.8374  0.0785  0.2678
39243SOL    HW126697  11.240   8.445   8.876  0.9901  0.5271  1.5348
39243SOL    HW226698  11.108   8.388   8.922  0.6287 -0.0784 -0.1970
39244SOL     OW26699  12.031   7.983   6.015  0.4870  0.1102  0.3172
39244SOL    HW126700  11.941   7.990   6.046  0.6890  0.9751  0.7478
39244SOL    HW226701  12.036   8.043   5.941  0.6669 -0.0605  0.1891
39245SOL     OW26702   2.446   3.879   9.382 -0.1746 -0.1617 -0.3093
39245SOL    HW126703   2.421   3.896   9.473  1.7220 -0.9612  0.4161
39245SOL    HW226704   2.365   3.847   9.341 -1.1686  0.5807  0.9653
39246SOL     OW26705  12.347   7.664   4.469 -0.0980  0.2218  0.1628
39246SOL    HW126706  12.268   7.611   4.475 -0.4674  0.8751  1.1922
39246SOL    HW226707  12.408   7.625   4.532  0.0370  0.3340  0.1035
39247SOL     OW26708   3.315  11.556   8.859 -0.4501  0.4573  0.6638
39247SOL    HW126709   3.341  11.480   8.912 -0.4295  1.0856  1.5745
39247SOL    HW226710   3.239  11.526   8.809  1.8964 -1.4628 -2.0830
39248SOL     OW26711   8.065   9.284   3.591 -0.0987 -0.6665 -0.4734
39248SOL    HW126712   8.031   9.226   3.522  0.9702  0.1938 -1.7829
39248SOL    HW226713   8.116   9.227   3.648 -1.7597 -1.5652  0.2017
39249SOL     OW26714   3.209   6.687   1.367 -0.0841  0.0538  0.1880
39249SOL    HW126715   3.291   6.685   1.417 -0.1522 -0.5001  0.2797
39249SOL    HW226716   3.187   6.595   1.354 -0.7173  0.2030  0.2002
39250SOL     OW26717   2.570   6.586   5.928  0.0491 -0.2856 -0.2038
39250SOL    HW126718   2.515   6.655   5.890 -0.7845 -1.0171 -0.3664
39250SOL    HW226719   2.599   6.534   5.853  1.3003  0.3117 -0.1565
39251SOL     OW26720   8.522   4.989   3.244 -0.1684  0.5561  0.0345
39251SOL    HW126721   8.477   5.069   3.218 -2.0381 -0.6005 -0.4120
39251SOL    HW226722   8.609   4.996   3.204 -0.1142  2.5481  0.3981
39252SOL     OW26723   7.758  10.795  10.866 -0.1673 -0.1286 -0.7948
39252SOL    HW126724   7.807  10.831  10.792  0.1245  0.7996 -0.1675
39252SOL    HW226725   7.666  10.814  10.846 -0.0313  0.8666 -0.5515
39253SOL     OW26726   6.583   4.000   5.639 -0.1180  0.6938  0.0406
39253SOL    HW126727   6.548   3.944   5.570  1.8540 -0.8634  0.2092
39253SOL    HW226728   6.530   3.980   5.716 -0.2683  0.0333 -0.2325
39254SOL     OW26729   1.309   7.829   0.239 -0.2844  0.0638 -1.1575
39254SOL    HW126730   1.291   7.891   0.310  0.5114  0.0607 -0.9425
39254SOL    HW226731   1.358   7.758   0.281  2.3998  1.2086 -2.0956
39255SOL     OW26732   2.668   4.748   1.741 -0.2258 -0.0171  0.1898
39255SOL    HW126733   2.653   4.696   1.820  2.3805  2.0971  2.2765
39255SOL    HW226734   2.747   4.709   1.702 -0.9350 -0.4358 -0.8567
39256SOL     OW26735   3.400  11.827   4.833  1.0991  0.6966  0.9933
39256SOL    HW126736   3.410  11.768   4.908  0.2968  0.7887  1.1833
39256SOL    HW226737   3.350  11.901   4.868 -2.6228 -0.8853 -0.4015
39257SOL     OW26738   9.052   8.264   9.261 -0.0531  0.3797  0.1869
39257SOL    HW126739   9.023   8.174   9.249  1.1910  0.0481 -0.5270
39257SOL    HW226740   9.062   8.273   9.356 -1.5951  0.2527  0.3853
39258SOL     OW26741   5.919   9.562   0.204 -0.0143  0.3995 -0.0941
39258SOL    HW126742   5.935   9.526   0.291  2.3959  1.2286 -0.1350
39258SOL    HW226743   6.001   9.551   0.157 -0.9344  0.9371 -1.9317
39259SOL     OW26744   7.219  11.167  11.375 -0.2180 -0.7021 -0.4234
39259SOL    HW126745   7.206  11.073  11.384 -1.2379 -0.5649 -0.4041
39259SOL    HW226746   7.134  11.201  11.348 -0.0189  0.2864  0.1416
39260SOL     OW26747   2.378   1.986   5.626  0.5889 -0.1276  0.1000
39260SOL    HW126748   2.402   1.942   5.544  2.1818  0.2249  0.3403
39260SOL    HW226749   2.435   2.063   5.630 -0.0058  0.2825  1.1635
39261SOL     OW26750   9.563  12.104   5.478 -0.0424  0.0730  0.2099
39261SOL    HW126751   9.616  12.161   5.423 -0.2452  1.7016  1.6199
39261SOL    HW226752   9.611  12.021   5.480  0.5778  0.3579 -1.3984
39262SOL     OW26753  11.062  12.317   0.562  0.1267 -0.1531 -0.0123
39262SOL    HW126754  11.154  12.335   0.581  0.5089 -0.7515 -1.1813
39262SOL    HW226755  11.064  12.260   0.485 -1.1023 -2.5173  1.5793
39263SOL     OW26756   4.749  10.250   6.168 -0.3644  0.2972  0.2225
39263SOL    HW126757   4.835  10.257   6.128  0.3293 -1.2536  1.3698
39263SOL    HW226758   4.755  10.303   6.248 -1.0248  1.5285 -0.5126
39264SOL     OW26759   7.043   1.060  12.245 -0.4716 -0.0881  0.2258
39264SOL    HW126760   6.980   1.113  12.196 -0.2672 -1.9025 -2.1894
39264SOL    HW226761   7.129   1.094  12.219 -0.3747  0.2702  0.9832
39265SOL     OW26762   9.084   6.362   8.697 -0.3144  0.3268  0.4621
39265SOL    HW126763   9.159   6.363   8.757  0.5768 -1.1298 -0.5485
39265SOL    HW226764   9.098   6.438   8.640  0.7555 -0.2626 -0.0976
39266SOL     OW26765  10.512  11.982   6.764  0.3868  0.0461  0.4323
39266SOL    HW126766  10.562  11.901   6.754  1.0081  0.7284 -3.0993
39266SOL    HW226767  10.423  11.952   6.781  0.9437 -1.2883  1.2747
39267SOL     OW26768   4.080   3.664   7.329  0.7334  0.7131 -0.2153
39267SOL    HW126769   4.144   3.615   7.381 -2.0707 -1.7747  1.2408
39267SOL    HW226770   4.048   3.732   7.389 -0.5042 -0.3887  0.4361
39268SOL     OW26771   3.605   2.838   4.273  0.3777  0.1878 -0.0791
39268SOL    HW126772   3.525   2.784   4.277  1.8246 -2.1066 -0.0785
39268SOL    HW226773   3.667   2.784   4.223  2.7869  0.6901  2.1796
39269SOL     OW26774   2.981  10.193  10.253 -0.7223  0.0165 -0.1323
39269SOL    HW126775   3.056  10.148  10.215  1.1707  0.2760  2.9911
39269SOL    HW226776   2.921  10.124  10.280  0.3615 -0.4779  1.0915
39270SOL     OW26777   0.387  10.499   5.513  0.0304  0.0657 -0.1527
39270SOL    HW126778   0.480  10.492   5.493  0.2296 -0.7368  0.9181
39270SOL    HW226779   0.347  10.424   5.469 -0.0085  0.0571 -0.1013
39271SOL     OW26780   3.122   9.310   0.763  0.4358 -0.4495 -0.1449
39271SOL    HW126781   3.165   9.395   0.774  0.6475 -0.2479 -2.2102
39271SOL    HW226782   3.032   9.331   0.740 -0.3678 -0.8662  2.2679
39272SOL     OW26783   9.223   3.572   6.296 -0.2740  0.2115 -0.3542
39272SOL    HW126784   9.197   3.484   6.267 -0.4155  0.1383 -0.0077
39272SOL    HW226785   9.250   3.560   6.387 -0.4989  0.5636 -0.2371
39273SOL     OW26786   4.340  12.125   2.794  0.6381 -0.1378  0.0835
39273SOL    HW126787   4.320  12.050   2.738 -3.4173  0.3751  0.5055
39273SOL    HW226788   4.385  12.087   2.870  1.1173 -1.6994 -0.9311
39274SOL     OW26789   0.179   7.159  10.652 -0.9979 -0.4258  0.1146
39274SOL    HW126790   0.207   7.087  10.595 -0.5043  0.4735 -0.8167
39274SOL    HW226791   0.157   7.116  10.735 -0.2470 -1.5939 -0.2512
39275SOL     OW26792   7.428   6.166   7.331  0.1391  0.5994  0.2497
39275SOL    HW126793   7.357   6.230   7.322 -1.9698 -1.7438 -1.1810
39275SOL    HW226794   7.387   6.090   7.371  2.3739 -0.1700  1.2197
39276SOL     OW26795  10.982   2.840   9.893 -0.0388  0.4960 -0.5244
39276SOL    HW126796  10.902   2.788   9.904  0.0470  0.1063 -1.6423
39276SOL    HW226797  10.954   2.930   9.911 -0.3978  0.1989  0.5034
39277SOL     OW26798   9.299   0.445   3.757  0.6098 -0.4492 -0.2903
39277SOL    HW126799   9.293   0.501   3.679 -3.1009  1.2036  0.9795
39277SOL    HW226800   9.287   0.356   3.724  1.4277 -0.0362 -1.8003
39278SOL     OW26801   1.432   6.440   6.192 -0.0405  0.3054 -0.2527
39278SOL    HW126802   1.452   6.360   6.143 -1.9019 -1.2790  1.3684
39278SOL    HW226803   1.516   6.484   6.202  1.1637 -1.7258 -0.7623
39279SOL     OW26804  12.422   3.989   5.207  0.1106  0.3687 -0.0594
39279SOL    HW126805  12.447   3.979   5.299  0.2719  0.7201 -0.0625
39279SOL    HW226806  12.401   3.901   5.178  1.6870 -0.0082 -0.1528
39280SOL     OW26807   7.917   4.509   7.416 -0.3725 -0.2043 -0.2755
39280SOL    HW126808   7.830   4.498   7.455  0.0636 -1.4994  0.3733
39280SOL    HW226809   7.953   4.421   7.412  1.2832  0.4138  0.2975
39281SOL     OW26810   6.969   6.548  10.323  0.2439  0.1425 -0.1173
39281SOL    HW126811   7.000   6.602  10.250 -1.0583 -1.0776 -1.6635
39281SOL    HW226812   6.900   6.601  10.364 -0.7306 -0.0950 -1.3573
39282SOL     OW26813   2.458   8.144   5.666 -0.3405  0.4772 -0.7128
39282SOL    HW126814   2.502   8.089   5.602 -0.8483  1.3164 -1.8226
39282SOL    HW226815   2.528   8.175   5.724 -0.0392 -1.1847 -0.1392
39283SOL     OW26816  10.834  10.050  11.420 -0.0717  0.3520 -0.6569
39283SOL    HW126817  10.757  10.051  11.476  0.2858  1.0545 -0.1598
39283SOL    HW226818  10.886   9.976  11.452  0.1443  0.7671 -0.0433
39284SOL     OW26819   3.181   4.841   3.093 -0.8677 -0.2222  0.4153
39284SOL    HW126820   3.201   4.836   3.186 -0.5319 -1.4579  0.2932
39284SOL    HW226821   3.103   4.897   3.088 -1.6513 -1.1601  1.5669
39285SOL     OW26822   1.357   2.217   2.383 -0.4364 -0.6603  0.2286
39285SOL    HW126823   1.280   2.173   2.346  0.4406 -1.5562 -0.5907
39285SOL    HW226824   1.324   2.259   2.463 -1.6231 -1.6174  0.2809
39286SOL     OW26825  11.195   7.493  11.758 -0.3766 -0.0085 -0.4886
39286SOL    HW126826  11.170   7.404  11.781  0.8143 -0.0877  0.6300
39286SOL    HW226827  11.116   7.545  11.775 -0.7271 -0.6713 -0.0362
39287SOL     OW26828   0.625  10.516  11.095  0.2832 -0.2991  0.4851
39287SOL    HW126829   0.704  10.569  11.089 -1.2837  2.7208  3.3886
39287SOL    HW226830   0.620  10.471  11.010  1.5899  4.5689 -2.5581
39288SOL     OW26831   0.112   5.121  10.246  0.1570  0.1140 -0.2898
39288SOL    HW126832   0.108   5.044  10.190  0.2841 -0.6525  0.7290
39288SOL    HW226833   0.045   5.106  10.313 -0.0194  1.0303 -0.2381
39289SOL     OW26834   2.684   3.753   9.372  0.2646  0.0997  0.3219
39289SOL    HW126835   2.598   3.792   9.354  0.5514  0.5668 -0.0466
39289SOL    HW226836   2.672   3.659   9.356 -0.4985 -0.0255  1.4490
39290SOL     OW26837  10.306   5.833   5.439  0.3414  0.2924  0.1581
39290SOL    HW126838  10.282   5.745   5.469  2.3594 -0.0304  1.0029
39290SOL    HW226839  10.223   5.880   5.434 -0.7469 -1.5473  0.0316
39291SOL     OW26840  12.103   5.175   9.191  0.6033 -0.5053  0.0876
39291SOL    HW126841  12.066   5.119   9.123 -0.8691 -0.6345  0.9645
39291SOL    HW226842  12.067   5.142   9.273 -1.6864  2.6491  0.5464
39292SOL     OW26843   5.542   3.348   2.364  0.6622 -0.1529  0.1974
39292SOL    HW126844   5.566   3.342   2.456  2.9680  3.7825  0.0474
39292SOL    HW226845   5.572   3.265   2.326  1.4882 -1.0394  2.6157
39293SOL     OW26846   0.164   1.826   6.282 -0.3261  0.4384  0.0850
39293SOL    HW126847   0.177   1.861   6.371 -1.5669 -0.7558  0.7729
39293SOL    HW226848   0.200   1.738   6.286  0.4279  0.6818 -0.8937
39294SOL     OW26849   7.877   7.266  10.521 -0.6556  0.3216 -0.4005
39294SOL    HW126850   7.893   7.276  10.615  2.0769  0.0844 -0.7335
39294SOL    HW226851   7.956   7.302  10.481 -1.9375  0.7708 -2.6518
39295SOL     OW26852   5.841  12.533   4.169  0.4026  0.6946  0.0731
39295SOL    HW126853   5.889  12.492   4.242  0.7168  0.3594 -0.3147
39295SOL    HW226854   5.753  12.496   4.175 -0.3036  2.5078  1.7540
39296SOL     OW26855  10.061  10.473   1.839 -0.7492  0.5459 -0.1369
39296SOL    HW126856  10.102  10.520   1.912 -1.2849 -1.6405  1.6629
39296SOL    HW226857   9.975  10.513   1.829 -1.4262 -0.3369  1.7626
39297SOL     OW26858   4.720   3.979  10.127  0.0659 -0.4039  0.3798
39297SOL    HW126859   4.630   3.974  10.093  0.1962  0.4375 -0.1221
39297SOL    HW226860   4.728   3.904  10.185 -0.9697 -0.4915  0.4276
39298SOL     OW26861   5.124   2.218   9.714  0.2916 -0.0192 -0.3797
39298SOL    HW126862   5.197   2.251   9.766 -0.8668 -0.6477  1.7665
39298SOL    HW226863   5.053   2.207   9.776 -2.7601  3.4860 -2.8295
39299SOL     OW26864   8.132   1.183   1.301 -0.1143 -0.0550  0.1921
39299SOL    HW126865   8.071   1.256   1.311 -0.6082 -0.3361 -0.6871
39299SOL    HW226866   8.091   1.126   1.236  0.0283 -1.3755  1.2224
39300SOL     OW26867   0.955  11.820   3.647  0.4521 -0.0717  0.2645
39300SOL    HW126868   1.046  11.799   3.667  0.8484  1.6782  0.4511
39300SOL    HW226869   0.935  11.897   3.700 -1.6550 -1.2834  1.4049
39301SOL     OW26870   3.296   3.091  11.628 -0.5990  0.4396  0.1871
39301SOL    HW126871   3.280   3.163  11.568 -0.2846 -1.4853 -2.4082
39301SOL    HW226872   3.385   3.106  11.662 -0.1580  0.7880 -1.0804
39302SOL     OW26873  12.596   9.053   3.847 -0.0541 -0.1903  0.3743
39302SOL    HW126874  12.559   9.098   3.923  1.7696  1.1625  0.5287
39302SOL    HW226875  12.552   9.093   3.772 -2.0084 -1.6686  0.6408
39303SOL     OW26876   6.730   6.508   5.599  0.2084  0.4112  0.3855
39303SOL    HW126877   6.662   6.500   5.666  0.8327  1.6880  1.2010
39303SOL    HW226878   6.777   6.424   5.603 -0.7096 -0.1149  0.4649
39304SOL     OW26879   9.807   8.146   5.173  0.5520  0.4940 -0.1615
39304SOL    HW126880   9.822   8.241   5.173 -0.1588  0.7100 -3.0066
39304SOL    HW226881   9.869   8.112   5.109 -0.7781 -0.6043 -0.9204
39305SOL     OW26882   6.352   8.975  11.928 -0.3390  0.3671  0.1791
39305SOL    HW126883   6.273   8.938  11.966  0.7089 -0.8755  1.2383
39305SOL    HW226884   6.424   8.929  11.972  0.9629  0.5304 -1.6623
39306SOL     OW26885   6.735   5.957   1.831  0.6812 -0.4288  0.0291
39306SOL    HW126886   6.714   6.047   1.853 -0.0655 -0.8914  1.3191
39306SOL    HW226887   6.724   5.909   1.913 -0.2730 -1.9287 -0.9219
39307SOL     OW26888   7.224   9.742   7.348  0.0574 -0.0923  0.0121
39307SOL    HW126889   7.133   9.759   7.373  0.2809 -1.1212  1.7409
39307SOL    HW226890   7.268   9.826   7.361 -0.5100  0.2403 -0.1719
39308SOL     OW26891   9.618   3.687   1.745  0.3305  0.1618 -0.0131
39308SOL    HW126892   9.630   3.722   1.657 -0.7785 -1.0312 -0.6906
39308SOL    HW226893   9.532   3.719   1.772  0.1082 -0.5023  0.1013
39309SOL     OW26894   9.117  10.211   4.579 -0.3637 -0.0184 -0.6946
39309SOL    HW126895   9.153  10.276   4.518 -0.7779 -0.3534 -1.3052
39309SOL    HW226896   9.055  10.260   4.632 -1.2313 -0.0580 -1.6551
39310SOL     OW26897   8.409   1.827   6.309  0.1181 -0.3275  0.0435
39310SOL    HW126898   8.414   1.768   6.234 -0.2648 -1.3847  0.8235
39310SOL    HW226899   8.315   1.840   6.324  0.1376  2.2416 -1.4166
39311SOL     OW26900   4.392   2.167   9.383  0.2619  0.1277  0.3526
39311SOL    HW126901   4.379   2.254   9.420 -1.1569  0.1046 -0.0361
39311SOL    HW226902   4.347   2.109   9.444  2.8072 -0.6339  1.6849
39312SOL     OW26903   5.473   7.270   2.815 -0.3991 -0.3366 -0.0905
39312SOL    HW126904   5.455   7.275   2.721  1.6017 -0.6476 -0.5324
39312SOL    HW226905   5.548   7.211   2.822  0.4177  0.8266  1.5670
39313SOL     OW26906   8.661  10.848   6.760  0.1605 -0.1788 -0.1400
39313SOL    HW126907   8.706  10.907   6.821  0.7369 -0.0393 -0.6873
39313SOL    HW226908   8.688  10.760   6.787 -0.8437 -0.2084  0.7921
39314SOL     OW26909   0.326   6.686   7.724 -0.0480  0.0816 -0.4813
39314SOL    HW126910   0.320   6.620   7.793 -2.7514  1.3448  0.6069
39314SOL    HW226911   0.274   6.650   7.652  0.5035 -0.0003 -0.8539
39315SOL     OW26912   2.178   1.769   5.295 -0.5421  0.0242 -0.3203
39315SOL    HW126913   2.247   1.816   5.250  1.1931 -0.1099  2.0010
39315SOL    HW226914   2.192   1.677   5.271 -0.4058  0.0810 -0.4610
39316SOL     OW26915   4.571  11.884   7.294  0.0673  0.2149  0.2542
39316SOL    HW126916   4.630  11.955   7.266  1.3284 -0.5073  0.9901
39316SOL    HW226917   4.490  11.929   7.318  0.5455  1.3211 -0.1098
39317SOL     OW26918   4.977   6.840  10.279 -0.1967  0.1816 -0.0969
39317SOL    HW126919   5.014   6.752  10.280  0.6436  0.5148 -0.7780
39317SOL    HW226920   5.026   6.889  10.345  0.0309  0.4059 -0.4277
39318SOL     OW26921   8.255  11.268  10.468  0.7373  0.2283 -0.0862
39318SOL    HW126922   8.311  11.196  10.439  0.3723 -0.1214  0.0640
39318SOL    HW226923   8.231  11.245  10.558 -0.0912  0.0857 -0.3316
39319SOL     OW26924   1.655  11.167   8.976  0.2639 -0.7189 -0.2747
39319SOL    HW126925   1.666  11.148   8.882 -0.7840  0.4053 -0.6450
39319SOL    HW226926   1.699  11.251   8.989 -1.7066  0.3809 -0.3284
39320SOL     OW26927   2.547   1.713   3.758  0.1474  0.1819 -0.9541
39320SOL    HW126928   2.514   1.775   3.694  0.3099  1.2639 -0.0278
39320SOL    HW226929   2.621   1.670   3.715  2.7099  3.5365 -0.3497
39321SOL     OW26930  10.874   1.337  12.466 -0.3619  0.1561 -0.1218
39321SOL    HW126931  10.916   1.277  12.528 -1.8660 -1.7320 -0.8456
39321SOL    HW226932  10.831   1.402  12.521 -0.1917 -0.4465  0.7463
39322SOL     OW26933  10.203   7.716   3.693  0.0314 -0.2216 -0.1943
39322SOL    HW126934  10.283   7.663   3.691  1.1806  1.4394 -1.7585
39322SOL    HW226935  10.230   7.799   3.734 -1.2427 -0.1247  0.4964
39323SOL     OW26936   5.238   0.591   2.843 -0.2459 -0.3940 -0.8277
39323SOL    HW126937   5.144   0.611   2.838 -0.6781 -1.5408  1.1916
39323SOL    HW226938   5.272   0.652   2.909 -0.0882 -1.4378  0.0996
39324SOL     OW26939   4.139   6.950   4.517  0.1093  0.1066 -0.1274
39324SOL    HW126940   4.157   6.886   4.586 -1.5701  1.1542  1.3711
39324SOL    HW226941   4.188   7.028   4.543 -1.2359  0.8027  0.4234
39325SOL     OW26942   0.634   2.664   1.843  0.4770  0.0886  0.3723
39325SOL    HW126943   0.648   2.669   1.937 -2.3838 -0.9101  0.9624
39325SOL    HW226944   0.548   2.704   1.829  0.5155 -0.4068 -1.7076
39326SOL     OW26945   0.432  10.324   0.853  0.8636  0.2030 -0.0316
39326SOL    HW126946   0.492  10.375   0.908 -0.8884 -0.5444  2.7279
39326SOL    HW226947   0.346  10.363   0.867  0.0307 -1.3082 -0.6630
39327SOL     OW26948   4.332   7.858   2.173  0.0719 -0.3397  0.1714
39327SOL    HW126949   4.278   7.879   2.250 -1.2681  0.7585 -0.9954
39327SOL    HW226950   4.308   7.925   2.109  0.6623 -1.6044 -1.4406
39328SOL     OW26951   3.653   0.324   6.989 -0.0798 -0.2085  0.4628
39328SOL    HW126952   3.629   0.318   6.896 -0.8909 -0.1393  0.6597
39328SOL    HW226953   3.630   0.414   7.014  0.9979  0.0752  0.5109
39329SOL     OW26954   5.383   4.796   1.322  0.0666  0.5260  0.2887
39329SOL    HW126955   5.401   4.816   1.230  0.5624  2.4228  0.7464
39329SOL    HW226956   5.418   4.708   1.335  1.0032  0.6647 -1.0576
39330SOL     OW26957   7.735   9.836   2.330  0.3139  0.5461 -0.6270
39330SOL    HW126958   7.761   9.753   2.370  1.9063  1.3472  0.1191
39330SOL    HW226959   7.719   9.894   2.404  0.0029  1.1343 -1.1466
39331SOL     OW26960  11.808   7.903  10.735  0.5844 -0.0334  0.2485
39331SOL    HW126961  11.869   7.912  10.662  1.8571  0.4648  1.3428
39331SOL    HW226962  11.832   7.972  10.796 -0.0245 -0.8456  1.4587
39332SOL     OW26963   4.294  11.666   2.187  0.3586 -0.2747 -0.0349
39332SOL    HW126964   4.268  11.614   2.111  0.8572  0.5410 -0.7919
39332SOL    HW226965   4.371  11.714   2.157 -0.0487  0.8415  0.6505
39333SOL     OW26966   1.307   1.734   3.908 -0.5214 -0.0344 -0.1019
39333SOL    HW126967   1.390   1.686   3.903  0.6958  1.8186  1.1922
39333SOL    HW226968   1.315   1.790   3.985 -2.7888  0.6045 -0.2356
39334SOL     OW26969   0.231   3.247  10.438 -0.5192 -0.0151 -0.0745
39334SOL    HW126970   0.280   3.274  10.516 -0.6736  0.1534 -0.0379
39334SOL    HW226971   0.251   3.314  10.373 -2.0076  0.9672  0.4358
39335SOL     OW26972  10.683   8.309   6.446 -0.4761  0.1417  0.4082
39335SOL    HW126973  10.599   8.264   6.436 -0.9119  1.2820 -1.7852
39335SOL    HW226974  10.664   8.384   6.502 -0.8720  0.2033  0.1992
39336SOL     OW26975   6.809   5.006   8.693  0.2264  0.2293  0.5289
39336SOL    HW126976   6.904   5.008   8.691  0.2798 -1.3537  0.2170
39336SOL    HW226977   6.787   4.917   8.718 -1.1805  0.8570  1.6733
39337SOL     OW26978   2.444   9.272  11.766 -0.5194  0.0113 -0.3374
39337SOL    HW126979   2.389   9.209  11.720  0.8001 -1.5134  0.0788
39337SOL    HW226980   2.465   9.229  11.849  0.1042  1.1790  0.1348
39338SOL     OW26981   5.031   2.637   0.908  0.3915 -0.1539 -0.5446
39338SOL    HW126982   5.047   2.730   0.893 -0.5765 -0.0638 -1.0796
39338SOL    HW226983   4.936   2.627   0.900  0.2910 -0.9059  1.1776
39339SOL     OW26984   1.788  10.791  11.217  0.6541  0.1537 -0.2921
39339SOL    HW126985   1.847  10.762  11.286  0.2753  0.9465  0.3887
39339SOL    HW226986   1.826  10.757  11.136  1.6279  0.0279  0.2072
39340SOL     OW26987   0.856  10.300   7.788 -0.2435 -0.1939 -0.0055
39340SOL    HW126988   0.832  10.388   7.815 -1.9182  0.2283 -2.5195
39340SOL    HW226989   0.925  10.313   7.722 -0.1148 -0.7875  0.0080
39341SOL     OW26990   2.296   7.186   1.662 -0.4014 -0.1170  0.6122
39341SOL    HW126991   2.381   7.230   1.651  0.5982 -2.1679 -0.5044
39341SOL    HW226992   2.297   7.154   1.752  0.3660 -0.7199  0.4067
39342SOL     OW26993   6.397   0.084   6.765 -0.0229  0.4866 -0.0984
39342SOL    HW126994   6.414   0.175   6.741  2.3370  0.2059  0.2853
39342SOL    HW226995   6.484   0.046   6.777 -0.9848 -1.4633  1.0957
39343SOL     OW26996  11.260   0.927   8.727  0.1353  0.1015  0.6181
39343SOL    HW126997  11.196   0.921   8.656  3.4571  0.2056 -2.6774
39343SOL    HW226998  11.262   0.840   8.766 -1.6670 -0.0061  0.5391
39344SOL     OW26999   2.871   8.696   3.575  1.0278  0.4019 -0.7688
39344SOL    HW127000   2.839   8.683   3.486  2.6308  0.1074 -1.3466
39344SOL    HW227001   2.928   8.773   3.569  0.1246  1.1914  0.3049
39345SOL     OW27002   7.286   7.349   6.425 -0.4132  0.0959 -0.3300
39345SOL    HW127003   7.276   7.299   6.344  2.1674 -1.6064  0.2743
39345SOL    HW227004   7.196   7.361   6.458 -1.2767 -2.3471 -1.5892
39346SOL     OW27005   9.496   6.038   5.985 -0.5045  0.3848 -0.2085
39346SOL    HW127006   9.495   6.002   6.074 -0.0238  2.2207  0.6011
39346SOL    HW227007   9.587   6.067   5.973 -0.6069  0.2914 -1.2469
39347SOL     OW27008   2.669  10.815   1.867 -0.4763 -0.4729  0.1416
39347SOL    HW127009   2.720  10.758   1.808 -0.7907  0.6288 -1.2408
39347SOL    HW227010   2.734  10.877   1.901 -0.5899 -0.0733 -0.3600
39348SOL     OW27011  12.120   2.421   3.411 -0.0055 -0.0054 -0.2316
39348SOL    HW127012  12.178   2.493   3.387  0.1410 -0.1730 -0.3820
39348SOL    HW227013  12.090   2.443   3.499  0.1228  0.1856 -0.2356
39349SOL     OW27014   7.003  10.916   2.052  0.2725  0.0036 -0.2851
39349SOL    HW127015   7.085  10.867   2.044  1.2430  1.4089  0.7163
39349SOL    HW227016   7.027  11.006   2.031 -0.8702  0.5622  0.7015
39350SOL     OW27017   1.022   4.863  10.388  0.1602 -0.1479 -0.0670
39350SOL    HW127018   1.104   4.900  10.354  0.4365  0.7847  1.4921
39350SOL    HW227019   0.981   4.821  10.313  2.6747 -1.7775 -0.6505
39351SOL     OW27020   7.164  12.064   1.400  0.8170  0.2441 -0.2801
39351SOL    HW127021   7.257  12.048   1.417  0.4354  0.3921  2.2398
39351SOL    HW227022   7.133  11.983   1.360  1.7590 -0.2929  0.0340
39352SOL     OW27023  10.881   1.369  12.099  0.1556  1.1437 -0.1014
39352SOL    HW127024  10.965   1.382  12.143 -1.0076  1.4016  2.2167
39352SOL    HW227025  10.826   1.326  12.164 -1.2695  0.1385 -1.8647
39353SOL     OW27026  11.085   4.227   8.940 -0.5269  0.3686  0.1307
39353SOL    HW127027  11.010   4.176   8.911 -0.0755  0.1467 -0.6877
39353SOL    HW227028  11.070   4.315   8.905  0.8038 -0.2812 -2.3027
39354SOL     OW27029   4.716   9.700   1.644  0.2263  0.1290  0.4010
39354SOL    HW127030   4.780   9.771   1.652 -0.1347  0.4234  0.7265
39354SOL    HW227031   4.726   9.651   1.726  1.7318 -1.2737 -0.5702
39355SOL     OW27032  11.164   2.400   2.402 -0.3990 -0.0132  0.2022
39355SOL    HW127033  11.212   2.463   2.455 -0.6265 -0.1171  0.5286
39355SOL    HW227034  11.230   2.363   2.343 -0.1922  0.2556  0.2678
39356SOL     OW27035   0.577   4.088   8.437 -0.1162  0.0979 -0.0183
39356SOL    HW127036   0.662   4.127   8.458  1.4072 -2.8785 -0.2170
39356SOL    HW227037   0.597   4.022   8.371 -2.5870 -0.8256  0.0648
39357SOL     OW27038   0.247  12.504   7.550  0.5862  0.2116 -0.4416
39357SOL    HW127039   0.297  12.526   7.472  1.1426  0.0166 -0.1557
39357SOL    HW227040   0.264  12.410   7.563  1.1287  0.3970  0.3303
39358SOL     OW27041  12.315  11.835  10.874 -0.3709 -0.1995 -0.6743
39358SOL    HW127042  12.296  11.903  10.809 -0.5615 -0.7178 -1.1624
39358SOL    HW227043  12.395  11.865  10.917 -0.0921  0.0093 -1.3306
39359SOL     OW27044  10.363   5.760  10.431  0.3069 -0.0881 -0.4094
39359SOL    HW127045  10.332   5.850  10.439  0.2039 -0.0896 -0.7679
39359SOL    HW227046  10.312   5.723  10.358 -0.9576 -1.0022  0.8834
39360SOL     OW27047   4.203  11.654  11.548 -1.0531 -0.5160 -0.4721
39360SOL    HW127048   4.254  11.683  11.473  0.6331  0.7943  1.0874
39360SOL    HW227049   4.115  11.689  11.532 -0.1246  1.9592 -0.7054
39361SOL     OW27050   2.044   9.589   3.432 -0.5023  0.0827  0.0091
39361SOL    HW127051   2.019   9.669   3.477 -4.2856 -0.9152  0.0561
39361SOL    HW227052   2.078   9.532   3.500  1.9365  1.4273  0.0233
39362SOL     OW27053   5.072   7.306   1.943 -0.1454  0.0382 -0.1136
39362SOL    HW127054   5.087   7.361   1.866  0.4219 -0.2700 -0.2264
39362SOL    HW227055   5.061   7.368   2.015 -0.2318  0.3169 -0.3647
39363SOL     OW27056   4.042  11.646   0.329 -0.8294  0.1667  0.1835
39363SOL    HW127057   4.039  11.611   0.240  1.9291  1.1344 -0.3762
39363SOL    HW227058   4.076  11.574   0.382 -1.7418 -0.1600  0.3426
39364SOL     OW27059   9.683   6.986   2.075 -0.4727 -0.4327  0.0055
39364SOL    HW127060   9.639   7.044   2.137 -0.4506  0.8467 -1.1122
39364SOL    HW227061   9.750   7.041   2.034 -0.6145 -1.1730 -1.2793
39365SOL     OW27062  10.500   6.661   9.222 -0.4200  0.5014  0.2113
39365SOL    HW127063  10.556   6.587   9.247 -1.8808 -0.5175  0.5512
39365SOL    HW227064  10.556   6.738   9.236  1.0240 -0.4953  0.1600
39366SOL     OW27065  11.059  12.139   0.331  0.0038 -0.4793 -0.1148
39366SOL    HW127066  11.085  12.047   0.324 -0.2944 -0.5267 -0.6575
39366SOL    HW227067  11.105  12.181   0.258  0.2908 -0.1618  0.2475
39367SOL     OW27068  11.471   7.808   7.347  0.2466 -0.2979  0.1118
39367SOL    HW127069  11.445   7.746   7.279  1.2251 -0.8397  0.2223
39367SOL    HW227070  11.505   7.884   7.299  1.1697 -0.7825 -0.0063
39368SOL     OW27071   8.512   3.115   9.402 -0.3996  0.5082 -0.3087
39368SOL    HW127072   8.503   3.158   9.317 -0.6588  1.3307  0.1230
39368SOL    HW227073   8.427   3.128   9.444 -0.7484 -1.0898 -0.4512
39369SOL     OW27074   8.250   4.756   1.194  0.3554 -0.3220 -0.5761
39369SOL    HW127075   8.170   4.703   1.195  0.0897  0.0735 -0.4860
39369SOL    HW227076   8.258   4.789   1.283 -0.3691  1.0762 -1.0020
39370SOL     OW27077   0.184  11.278   8.167  0.0905 -0.2438 -0.6976
39370SOL    HW127078   0.116  11.342   8.147  0.4110  0.1755 -0.4559
39370SOL    HW227079   0.136  11.196   8.180 -0.4170  0.1267 -0.1352
39371SOL     OW27080   0.061  12.224  11.934  0.2020  0.2700  0.7285
39371SOL    HW127081  -0.005  12.280  11.892  0.4394 -0.2571 -0.3631
39371SOL    HW227082   0.142  12.273  11.928  0.3183  0.0191  0.1822
39372SOL     OW27083   7.363   6.995   8.461 -0.3079 -0.0644 -0.5272
39372SOL    HW127084   7.355   7.081   8.502  0.0533  0.0960 -0.7802
39372SOL    HW227085   7.353   6.932   8.532 -2.1371  0.1360 -0.5659
39373SOL     OW27086   7.792   7.782  10.210  0.6432 -0.5374 -0.5138
39373SOL    HW127087   7.873   7.790  10.159 -0.6580  0.7073 -2.5354
39373SOL    HW227088   7.722   7.787  10.145 -1.1022 -0.8360  1.2372
39374SOL     OW27089   9.816   7.271   9.561 -0.6822 -0.2691 -0.7304
39374SOL    HW127090   9.786   7.203   9.500 -0.2878  0.0918 -1.3350
39374SOL    HW227091   9.749   7.274   9.629 -1.4110 -0.2880 -1.4431
39375SOL     OW27092  12.125   8.363  12.411  0.6701 -0.4378  0.6095
39375SOL    HW127093  12.110   8.410  12.493 -1.6373 -0.4511  0.2799
39375SOL    HW227094  12.203   8.404  12.373  1.2095  0.2024  2.3302
39376SOL     OW27095   6.710   9.333   2.815 -0.1987 -0.0410  0.3416
39376SOL    HW127096   6.688   9.244   2.842  0.5169 -0.4269 -0.3187
39376SOL    HW227097   6.700   9.385   2.895  1.3838 -1.0821  1.2788
39377SOL     OW27098   1.573   7.710  11.072 -0.0041  0.2645 -0.0144
39377SOL    HW127099   1.631   7.774  11.113  1.1014 -0.7579  0.0755
39377SOL    HW227100   1.626   7.668  11.005 -1.4380  1.0910 -1.7837
39378SOL     OW27101  11.098   4.962  10.064  0.0900 -0.4007  0.3594
39378SOL    HW127102  11.128   4.934   9.978  2.4890 -0.8667  1.2835
39378SOL    HW227103  11.044   4.889  10.095  0.1366 -0.7160 -0.2960
39379SOL     OW27104   8.556   9.477   6.923  0.1455  0.4812  0.1693
39379SOL    HW127105   8.566   9.440   7.010 -0.7188  0.3974  0.2334
39379SOL    HW227106   8.516   9.563   6.938  2.0823  1.4771  0.0255
39380SOL     OW27107   2.006   2.988   3.415 -0.3562  0.2425  0.5267
39380SOL    HW127108   2.084   3.014   3.367 -0.7416  0.3615 -0.0526
39380SOL    HW227109   2.039   2.940   3.491  0.2221 -2.6775 -1.4421
39381SOL     OW27110   6.247   5.435   4.000  0.3708  0.3240 -0.2873
39381SOL    HW127111   6.159   5.456   3.969  1.2622  2.2889 -1.6954
39381SOL    HW227112   6.294   5.407   3.922  1.0078 -0.7271  0.4544
39382SOL     OW27113   8.279   0.156   8.820 -0.1613  0.0758  0.5343
39382SOL    HW127114   8.279   0.087   8.753 -0.1459 -1.1920  1.7787
39382SOL    HW227115   8.310   0.111   8.899 -2.7716  0.8293  2.0711
39383SOL     OW27116   1.115   4.584   1.700 -0.3523 -0.0246  0.3243
39383SOL    HW127117   1.115   4.518   1.630 -0.2927  0.7688 -0.4436
39383SOL    HW227118   1.203   4.622   1.696  0.0522 -0.7643  1.6199
39384SOL     OW27119   3.982   7.983   3.583 -0.3024 -0.7480 -0.6165
39384SOL    HW127120   4.014   7.918   3.645 -0.4035  0.1253  0.3884
39384SOL    HW227121   3.915   7.936   3.532 -1.2901 -1.1198  0.9390
39385SOL     OW27122   3.941   9.096   5.372 -0.0169 -0.0238  0.0402
39385SOL    HW127123   3.902   9.011   5.390 -1.4612  0.2620 -1.4607
39385SOL    HW227124   3.996   9.082   5.295 -1.9376  0.7635 -1.5593
39386SOL     OW27125   0.135   3.688   8.973 -0.0868 -0.3700  0.5889
39386SOL    HW127126   0.144   3.768   8.921 -1.0410 -0.4310  0.3226
39386SOL    HW227127   0.093   3.625   8.914  1.2791 -1.3064  0.5622
39387SOL     OW27128   7.154   4.692   2.242  0.3938 -0.1543  0.2722
39387SOL    HW127129   7.231   4.734   2.282  0.4737 -0.9761  1.0112
39387SOL    HW227130   7.190   4.638   2.172  0.5259 -0.6983  0.7483
39388SOL     OW27131  10.493   1.426  10.852 -0.7481  0.2591  0.0551
39388SOL    HW127132  10.477   1.351  10.794  0.1842 -0.4060  0.6294
39388SOL    HW227133  10.407   1.447  10.888 -1.0861 -0.2876 -0.4069
39389SOL     OW27134   0.354   4.823  12.374 -0.1494 -0.2847 -0.0805
39389SOL    HW127135   0.326   4.752  12.432  1.6945 -1.1746 -0.1945
39389SOL    HW227136   0.281   4.836  12.314 -0.9019 -1.4308  0.5606
39390SOL     OW27137   6.081   9.582   6.039 -0.3982 -0.1841 -0.1406
39390SOL    HW127138   6.070   9.549   5.950  1.5138 -0.9297 -0.1421
39390SOL    HW227139   6.166   9.627   6.038 -0.5954  0.2700  1.1726
39391SOL     OW27140   2.212  10.893   1.047 -0.0283 -0.3075  0.0406
39391SOL    HW127141   2.169  10.979   1.051 -1.1177 -0.7501 -1.3293
39391SOL    HW227142   2.144  10.831   1.071 -0.2001 -1.0160 -2.0461
39392SOL     OW27143   2.362  11.393   7.326 -0.0756 -0.6303  0.0495
39392SOL    HW127144   2.278  11.377   7.369 -0.0157 -1.4010 -0.1035
39392SOL    HW227145   2.390  11.478   7.359 -1.1643 -0.1140 -0.3014
39393SOL     OW27146  11.896   9.575  11.082 -0.0024 -0.2044  0.6017
39393SOL    HW127147  11.833   9.585  11.011  0.4108 -0.0321  0.2517
39393SOL    HW227148  11.849   9.603  11.160 -0.0213  0.9995  0.1771
39394SOL     OW27149   4.461   7.542   6.466 -0.2152 -0.3327  0.5748
39394SOL    HW127150   4.375   7.584   6.479  0.6085  1.5012  0.4774
39394SOL    HW227151   4.465   7.527   6.371  0.2177  1.1647  0.3258
39395SOL     OW27152  12.238   3.512   1.314  0.6571 -0.7870  0.7330
39395SOL    HW127153  12.223   3.428   1.270 -0.6022 -0.5370  0.6280
39395SOL    HW227154  12.307   3.555   1.263 -1.2510 -0.1928 -1.5286
39396SOL     OW27155   4.918   3.010   1.394  0.1572 -0.0122  0.0531
39396SOL    HW127156   4.985   2.959   1.440  0.9753  2.0457  1.2476
39396SOL    HW227157   4.835   2.981   1.433  0.8063  1.5416  2.8304
39397SOL     OW27158   8.639   0.805  11.271  0.1518  0.1533 -0.1398
39397SOL    HW127159   8.686   0.762  11.199  0.7767  2.1442 -0.9764
39397SOL    HW227160   8.547   0.799  11.245  0.3332  0.4438 -0.8979
39398SOL     OW27161   8.358   7.568  10.288  0.6978 -0.2925  0.2484
39398SOL    HW127162   8.323   7.524  10.365  1.1267 -3.0743 -1.0387
39398SOL    HW227163   8.424   7.508  10.253  0.1149  0.5476 -2.5946
39399SOL     OW27164   9.308   2.041   6.415  0.3642 -0.2837 -0.0718
39399SOL    HW127165   9.242   2.037   6.483 -0.4636 -1.0122 -0.8958
39399SOL    HW227166   9.259   2.051   6.334  1.2230 -1.3984 -0.7643
39400SOL     OW27167   7.069   9.649   9.106  0.1360 -0.4719  1.1817
39400SOL    HW127168   7.077   9.554   9.112 -2.1835 -0.8084  0.0477
39400SOL    HW227169   6.976   9.665   9.093  0.7083  1.7898 -0.9875
39401SOL     OW27170  12.562   5.084   0.287  0.0708 -0.4170  0.3106
39401SOL    HW127171  12.539   5.055   0.198  0.2012  2.5752 -0.8074
39401SOL    HW227172  12.612   5.164   0.273 -0.1090  0.2648  3.1265
39402SOL     OW27173  11.581   8.320   4.433  0.3916  0.0030 -0.1351
39402SOL    HW127174  11.575   8.370   4.515 -0.4670 -1.1046  0.5099
39402SOL    HW227175  11.490   8.300   4.412  0.4428  1.6246 -2.2619
39403SOL     OW27176   1.354   9.397   3.905  0.1656  0.3114  0.1048
39403SOL    HW127177   1.427   9.383   3.966 -0.1959 -0.1313  0.4362
39403SOL    HW227178   1.373   9.483   3.865  2.0269 -0.7209 -1.4134
39404SOL     OW27179  11.970   0.722   3.754 -0.1084 -0.1499  0.7513
39404SOL    HW127180  11.898   0.785   3.754 -0.5457 -0.5877 -1.6928
39404SOL    HW227181  12.042   0.768   3.711  0.2681 -0.5973  0.8925
39405SOL     OW27182   2.630   3.321   7.245 -0.1039  0.3326 -0.4782
39405SOL    HW127183   2.721   3.318   7.215 -0.2799 -0.8376 -0.9614
39405SOL    HW227184   2.585   3.375   7.180 -0.5108 -2.2931 -2.5667
39406SOL     OW27185   5.903   8.464   4.213 -0.1984 -0.0067  0.2966
39406SOL    HW127186   5.906   8.553   4.178 -0.1823 -0.7330 -1.6448
39406SOL    HW227187   5.816   8.432   4.191  0.1032 -0.7789  0.1783
39407SOL     OW27188   1.411   6.168   3.060 -0.3729  0.2983 -0.2530
39407SOL    HW127189   1.389   6.094   3.004  0.0265 -0.9932  1.2229
39407SOL    HW227190   1.401   6.134   3.149  0.0210  1.9668  0.4657
39408SOL     OW27191   9.040   9.667  12.297  0.5728 -0.1038  0.3986
39408SOL    HW127192   9.037   9.739  12.233 -1.7560 -1.1767 -0.8034
39408SOL    HW227193   9.003   9.705  12.377 -0.5941  0.0885 -0.2104
39409SOL     OW27194   3.335   9.474   1.622 -0.0928 -0.1804 -0.4330
39409SOL    HW127195   3.394   9.400   1.607  1.2486  0.7582  0.0173
39409SOL    HW227196   3.283   9.449   1.698 -1.1257 -1.5070 -1.5392
39410SOL     OW27197   6.954   5.391   7.418  0.1499 -0.3773 -0.1069
39410SOL    HW127198   6.980   5.332   7.489  2.7985 -1.5651 -1.8839
39410SOL    HW227199   6.890   5.342   7.367 -0.1633 -0.3542  0.2572
39411SOL     OW27200  12.356   8.918   9.909  0.1032  0.0631 -0.0782
39411SOL    HW127201  12.393   8.996   9.950  1.2064 -0.5542  0.1223
39411SOL    HW227202  12.262   8.925   9.927  0.2170  1.2009  0.1718
39412SOL     OW27203  12.135  10.747   6.126  0.3963  0.6939  0.0420
39412SOL    HW127204  12.056  10.794   6.150 -1.0411 -1.3507 -0.4146
39412SOL    HW227205  12.150  10.770   6.034  0.1160  0.8004  0.0237
39413SOL     OW27206   5.950   8.278   5.349 -0.6524  0.2073 -0.1857
39413SOL    HW127207   6.043   8.268   5.370 -0.6477 -0.5810 -0.5421
39413SOL    HW227208   5.930   8.369   5.369 -0.0518  0.1185  0.8520
39414SOL     OW27209   1.155   6.250   8.143 -0.0119 -0.3930 -0.0100
39414SOL    HW127210   1.092   6.313   8.177 -1.9247 -2.1535 -0.1303
39414SOL    HW227211   1.102   6.175   8.114  2.1445 -2.0838  0.1308
39415SOL     OW27212   4.556  11.528   4.788 -0.0240 -0.3679  0.6046
39415SOL    HW127213   4.551  11.433   4.797 -0.8498 -0.3001  0.9388
39415SOL    HW227214   4.544  11.561   4.877  0.2887  0.0529  0.4959
39416SOL     OW27215   8.666  11.100   6.218 -0.3661  0.3735 -0.1873
39416SOL    HW127216   8.644  11.156   6.293  1.9831  0.5877  0.4270
39416SOL    HW227217   8.667  11.160   6.143 -0.5499  0.6018 -0.0090
39417SOL     OW27218   9.922   4.548   9.416 -0.9047 -0.2257  0.4229
39417SOL    HW127219  10.014   4.544   9.441 -0.7320  0.6082 -0.0659
39417SOL    HW227220   9.878   4.488   9.477  0.2043 -2.0636 -0.5062
39418SOL     OW27221   9.126   6.501  10.948  0.0434  0.3331 -0.3779
39418SOL    HW127222   9.121   6.407  10.963  0.0830  0.4768  0.6090
39418SOL    HW227223   9.052   6.520  10.891  0.0052 -0.2924 -0.5442
39419SOL     OW27224   1.918  11.039   9.972 -0.0103  0.2874  0.3012
39419SOL    HW127225   1.837  11.054   9.923 -0.0134  1.9705  0.7733
39419SOL    HW227226   1.988  11.046   9.907 -0.1503  0.2851  0.1507
39420SOL     OW27227  10.250   1.272  11.870  0.0423 -1.1047 -0.6286
39420SOL    HW127228  10.186   1.209  11.837 -0.0902 -1.1943 -0.2076
39420SOL    HW227229  10.212   1.357  11.850 -1.0425 -1.1177  1.1104
39421SOL     OW27230   2.106   1.077   4.474  0.4326 -0.5098 -0.1130
39421SOL    HW127231   2.152   1.062   4.556  1.3264  0.9679 -0.2982
39421SOL    HW227232   2.173   1.064   4.406  0.6263  1.5387 -0.3974
39422SOL     OW27233   9.319   2.173   1.223 -0.1910 -0.1238  0.1541
39422SOL    HW127234   9.398   2.127   1.194  0.3062  0.5470  0.4277
39422SOL    HW227235   9.350   2.258   1.253 -0.8701 -0.2603  1.3134
39423SOL     OW27236   3.535   3.142   5.334 -0.3229 -0.4906  0.0433
39423SOL    HW127237   3.537   3.105   5.422 -0.6041  1.9576  1.1653
39423SOL    HW227238   3.442   3.139   5.309 -0.2737 -0.9734 -0.0977
39424SOL     OW27239   2.409  12.297   0.450 -0.5721 -0.7844 -0.3536
39424SOL    HW127240   2.504  12.287   0.460 -0.1706  2.3926  0.3901
39424SOL    HW227241   2.375  12.296   0.539 -0.6246  1.8213 -0.2614
39425SOL     OW27242   4.279   0.361   9.526  0.0005 -0.1640 -0.0226
39425SOL    HW127243   4.254   0.441   9.481  1.0837  0.7285  0.9019
39425SOL    HW227244   4.356   0.330   9.479  0.5768  0.2611  0.6281
39426SOL     OW27245   3.832   7.554   5.388 -0.3840  0.3986 -0.3150
39426SOL    HW127246   3.744   7.525   5.367 -0.5517  0.4562  0.2912
39426SOL    HW227247   3.825   7.649   5.397 -0.5111  0.2770  0.9158
39427SOL     OW27248  12.298   9.291   3.804 -0.1854 -0.2762 -0.4673
39427SOL    HW127249  12.324   9.381   3.786 -0.7610  0.3770  1.6337
39427SOL    HW227250  12.203   9.294   3.808 -0.2074 -0.9678 -0.3096
39428SOL     OW27251   6.041   0.083   8.092  0.1454 -1.1245 -0.3483
39428SOL    HW127252   6.121   0.135   8.079 -0.6667  0.1043 -0.5593
39428SOL    HW227253   6.070   0.009   8.145  1.1231  0.1840  1.0581
39429SOL     OW27254   8.816   2.718   0.579 -0.4012 -0.3138 -0.5908
39429SOL    HW127255   8.791   2.647   0.638  0.9066  1.3294  2.1280
39429SOL    HW227256   8.897   2.686   0.538 -0.7792 -1.0808 -0.7628
39430SOL     OW27257   6.759   9.768  11.006  0.0403 -0.6577  0.3477
39430SOL    HW127258   6.854   9.763  11.017  0.2668  1.6536  0.0304
39430SOL    HW227259   6.742   9.731  10.919  0.8463  0.1949 -0.1901
39431SOL     OW27260   0.632   0.007   9.051 -0.5237  0.4364  0.3310
39431SOL    HW127261   0.691   0.080   9.071  0.7619 -0.8271  1.3146
39431SOL    HW227262   0.577  -0.003   9.129 -0.4820  0.1529  0.3262
39432SOL     OW27263   8.358   2.790   0.225  0.2633  0.0177  0.0022
39432SOL    HW127264   8.421   2.823   0.160  1.7513 -1.6729  0.5007
39432SOL    HW227265   8.343   2.864   0.283  1.5424  0.5842 -0.3374
39433SOL     OW27266   5.312   1.397   5.668  0.0198  0.0935  0.0308
39433SOL    HW127267   5.224   1.425   5.694 -0.1692 -0.1806 -0.3094
39433SOL    HW227268   5.327   1.440   5.584  0.7646  1.2497  0.7223
39434SOL     OW27269   4.478   0.175   5.553  0.0943  0.1461  0.1820
39434SOL    HW127270   4.396   0.223   5.566 -1.1040 -1.2552 -1.6542
39434SOL    HW227271   4.506   0.200   5.464  1.5042  0.3284  0.6470
39435SOL     OW27272  10.982  11.589   9.414 -0.3305  0.4302  0.1661
39435SOL    HW127273  10.887  11.599   9.425 -0.4834  0.2751 -0.9606
39435SOL    HW227274  10.993  11.503   9.375  0.2216  0.7234 -0.3488
39436SOL     OW27275   6.175  12.302   1.140 -0.2607 -0.5271  1.0207
39436SOL    HW127276   6.236  12.229   1.134  0.0230 -0.2460 -3.7080
39436SOL    HW227277   6.227  12.380   1.121 -1.4755  0.0999  0.0291
39437SOL     OW27278  10.453   7.159  12.145  0.3720  0.6532 -0.4025
39437SOL    HW127279  10.392   7.184  12.215 -0.8888 -3.4444  0.2038
39437SOL    HW227280  10.537   7.197  12.171 -0.2824  0.1310  2.8171
39438SOL     OW27281   2.022   1.169   6.456 -0.4144  0.3633  0.0518
39438SOL    HW127282   1.948   1.207   6.409 -1.2953 -0.9443  0.3197
39438SOL    HW227283   2.070   1.120   6.389  0.2653  1.2646 -0.1354
39439SOL     OW27284   1.914   5.582   1.290 -0.9181  0.0106 -0.1136
39439SOL    HW127285   1.821   5.589   1.267 -0.8678 -0.5955 -0.5185
39439SOL    HW227286   1.945   5.673   1.289 -1.3893  0.1722 -0.4764
39440SOL     OW27287   6.354   2.359  10.182 -0.1636  0.2920  0.1253
39440SOL    HW127288   6.443   2.338  10.210 -0.2117 -0.0842 -0.0037
39440SOL    HW227289   6.364   2.393  10.093 -0.2732 -1.0196 -0.4184
39441SOL     OW27290   0.481  10.324  10.596  0.0057  0.2745  0.3499
39441SOL    HW127291   0.494  10.263  10.523 -3.3669  0.8586 -0.9122
39441SOL    HW227292   0.441  10.401  10.556  2.1992  2.5584  2.2274
39442SOL     OW27293   2.455   1.943   0.117 -0.1405 -0.0689  0.1467
39442SOL    HW127294   2.413   1.910   0.038 -0.8362 -0.2775  0.5931
39442SOL    HW227295   2.436   1.877   0.183  1.7916 -0.7142  0.1270
39443SOL     OW27296  11.569   8.354   7.532  0.8384 -0.0640 -0.2530
39443SOL    HW127297  11.611   8.289   7.589  0.8282 -2.1273 -2.4448
39443SOL    HW227298  11.475   8.343   7.550  0.8933  0.0897  0.1337
39444SOL     OW27299   5.255  11.225   8.416 -0.1295 -0.5936 -0.0834
39444SOL    HW127300   5.291  11.218   8.505  3.1529 -0.2461 -1.2391
39444SOL    HW227301   5.214  11.311   8.414  1.0108  0.0057  0.7475
39445SOL     OW27302   2.389   5.431  10.636  0.0935 -0.8787 -0.8072
39445SOL    HW127303   2.423   5.424  10.725 -1.5282 -1.8628 -0.2269
39445SOL    HW227304   2.336   5.511  10.637 -0.9297 -1.5471 -0.5144
39446SOL     OW27305   1.910   8.466   2.823 -0.0615 -0.0122  0.3103
39446SOL    HW127306   1.995   8.475   2.779 -0.9951  1.3988 -1.2942
39446SOL    HW227307   1.929   8.486   2.915  1.1330  1.6264 -0.2366
39447SOL     OW27308   4.615   0.837   5.610 -0.9269 -0.5597  0.7585
39447SOL    HW127309   4.649   0.877   5.691 -0.4722  0.5522  0.0373
39447SOL    HW227310   4.691   0.790   5.574  0.5997  3.3815 -1.7863
39448SOL     OW27311   0.999   6.935   1.545  0.2450 -0.0628  0.1212
39448SOL    HW127312   1.066   6.926   1.478 -0.3418  1.4551 -0.7322
39448SOL    HW227313   0.979   7.029   1.546  0.2568 -0.0327  2.4641
39449SOL     OW27314   2.299   1.539   5.482  0.0194 -0.0933  0.3763
39449SOL    HW127315   2.386   1.549   5.443 -0.3929 -0.2637 -0.6015
39449SOL    HW227316   2.316   1.532   5.576  1.2240 -2.0904  0.0617
39450SOL     OW27317   2.185   0.154   4.488 -0.4414 -0.7332 -0.0618
39450SOL    HW127318   2.275   0.158   4.519 -0.2813 -2.0160 -0.3457
39450SOL    HW227319   2.165   0.245   4.463  1.3560 -0.7052 -1.6645
39451SOL     OW27320   6.141   0.348  12.477  0.2518  0.5361 -0.4040
39451SOL    HW127321   6.227   0.384  12.454  0.4605  0.1069 -0.3127
39451SOL    HW227322   6.160   0.259  12.506 -0.3566  0.0230 -1.5213
39452SOL     OW27323   3.279   1.093   3.592  0.4430  0.3817  0.5420
39452SOL    HW127324   3.224   1.101   3.515 -0.2857  0.3115  1.0443
39452SOL    HW227325   3.337   1.169   3.588 -1.1376  1.6795  1.1338
39453SOL     OW27326  12.379   7.853   0.574  0.3754 -0.3651 -0.0729
39453SOL    HW127327  12.339   7.924   0.524 -2.2449 -1.2870  0.5676
39453SOL    HW227328  12.337   7.773   0.541  0.9554 -1.3113  1.3771
39454SOL     OW27329  11.037   1.814   0.017  0.0072  0.6281 -0.5172
39454SOL    HW127330  11.044   1.886  -0.046  0.4606  0.9926 -0.0590
39454SOL    HW227331  11.088   1.744  -0.023 -0.1285  0.6847 -0.7940
39455SOL     OW27332   7.250   7.295   3.995 -0.0047 -0.2909  0.3038
39455SOL    HW127333   7.199   7.221   4.029 -0.6157  0.9563  2.2768
39455SOL    HW227334   7.245   7.361   4.065  0.3942  1.6737 -1.4405
39456SOL     OW27335  10.110   9.634   2.454 -0.2725 -0.1937  0.3088
39456SOL    HW127336  10.103   9.556   2.509  0.7907 -0.3376  0.2436
39456SOL    HW227337  10.194   9.672   2.477 -0.7609  0.9213  0.3035
39457SOL     OW27338   6.458   1.359   3.054  0.1459  0.1873  0.3480
39457SOL    HW127339   6.521   1.355   2.981  1.2441 -0.2116  1.2767
39457SOL    HW227340   6.461   1.450   3.082 -0.6897  0.4683 -0.4331
39458SOL     OW27341   0.630   0.346   2.571  0.1023  0.2846  0.2334
39458SOL    HW127342   0.601   0.421   2.623 -1.7272  0.2102 -0.5863
39458SOL    HW227343   0.647   0.383   2.484 -1.4526 -0.2949 -0.3612
39459SOL     OW27344  10.065   9.129  10.837  0.1250 -0.0015  0.1984
39459SOL    HW127345   9.989   9.080  10.869  0.1319 -0.2311 -0.1281
39459SOL    HW227346  10.061   9.213  10.883 -0.4344  0.0615  0.0456
39460SOL     OW27347   2.974  11.790   0.454  0.2640  0.1582 -0.1594
39460SOL    HW127348   2.956  11.850   0.382  1.3430  1.1078  0.3255
39460SOL    HW227349   3.016  11.844   0.521  0.0800 -0.8771  0.8327
39461SOL     OW27350   0.514   1.719   5.133 -0.2232  0.0195  0.3718
39461SOL    HW127351   0.559   1.804   5.134  0.3509 -0.2821  0.3661
39461SOL    HW227352   0.486   1.706   5.224  2.6313 -1.3142  1.1774
39462SOL     OW27353   8.575   5.415   4.947 -0.1772  0.4070 -0.0761
39462SOL    HW127354   8.587   5.501   4.987  1.1769  0.5418 -0.7351
39462SOL    HW227355   8.654   5.366   4.970 -1.3002 -0.9921  1.0175
39463SOL     OW27356  10.342   4.129   2.748 -0.0015 -0.1927  0.4066
39463SOL    HW127357  10.250   4.117   2.725 -0.0983  2.5674 -1.0911
39463SOL    HW227358  10.389   4.068   2.692 -0.8281 -0.3236 -0.1650
39464SOL     OW27359  12.380   5.735   4.720  0.3278  0.6802 -0.1938
39464SOL    HW127360  12.321   5.669   4.755  0.0792  0.4799 -0.9592
39464SOL    HW227361  12.422   5.774   4.797  1.3334 -1.1560  0.2478
39465SOL     OW27362  10.600   9.619   1.610 -0.3757 -0.6927 -0.0749
39465SOL    HW127363  10.540   9.676   1.657 -0.8129 -0.7161 -0.5972
39465SOL    HW227364  10.573   9.530   1.635 -0.8558 -0.7168 -0.6554
39466SOL     OW27365   7.970   0.500   9.969 -0.4942 -0.5277  0.3141
39466SOL    HW127366   7.926   0.473   9.889 -1.7902 -3.0415  1.7572
39466SOL    HW227367   7.908   0.481  10.039 -0.0149  2.9734  1.9260
39467SOL     OW27368  10.113   1.853   0.637 -0.6091  0.1449  0.1098
39467SOL    HW127369  10.178   1.849   0.707  0.5367  0.0400 -0.9181
39467SOL    HW227370  10.119   1.942   0.604 -2.4804  0.7847  1.3158
39468SOL     OW27371   7.351   7.402   1.206 -0.1696  0.2559 -0.1729
39468SOL    HW127372   7.355   7.354   1.123 -0.5252 -0.3794  0.1684
39468SOL    HW227373   7.385   7.489   1.185  1.4809 -0.4391 -0.5866
39469SOL     OW27374   2.082   1.376   0.675 -0.3641 -0.4767  0.2550
39469SOL    HW127375   2.015   1.407   0.614 -0.9587 -0.3785  0.9371
39469SOL    HW227376   2.043   1.389   0.762 -0.1651 -2.0464  0.6175
39470SOL     OW27377   3.888   6.806   4.513  0.6774  0.3466 -0.1816
39470SOL    HW127378   3.979   6.834   4.521  0.7398 -0.1944  1.4965
39470SOL    HW227379   3.842   6.854   4.582 -0.1531 -0.0183 -0.4623
39471SOL     OW27380  11.080   4.346   1.542  0.0514 -0.2551  0.6632
39471SOL    HW127381  11.118   4.366   1.457 -1.3696 -2.6311 -0.6486
39471SOL    HW227382  10.988   4.327   1.523 -0.2842 -0.9579  2.7253
39472SOL     OW27383   8.420   4.820   5.090  0.3256  0.0373 -0.3592
39472SOL    HW127384   8.345   4.863   5.131 -0.3633  1.2228 -2.6488
39472SOL    HW227385   8.388   4.732   5.069 -0.1284  0.2286 -0.4971
39473SOL     OW27386  12.075  11.677   5.249 -0.2260  0.0584  0.0313
39473SOL    HW127387  11.990  11.651   5.214 -0.4273  0.3581  0.2890
39473SOL    HW227388  12.137  11.617   5.208 -0.3702  0.8301 -1.3556
39474SOL     OW27389   7.045   2.700   2.803  0.2255 -0.6546 -0.1015
39474SOL    HW127390   7.071   2.620   2.848 -0.0112 -0.1749  0.9347
39474SOL    HW227391   7.128   2.742   2.778  0.3684 -0.8543  0.0342
39475SOL     OW27392   2.502   1.414  10.025 -0.2562 -1.2131 -0.6465
39475SOL    HW127393   2.435   1.406   9.957 -2.3520  0.7957  1.0184
39475SOL    HW227394   2.563   1.343  10.007 -2.6552 -2.9792 -2.4810
39476SOL     OW27395   6.886   4.422   4.183  0.3904  0.3017  1.2219
39476SOL    HW127396   6.957   4.476   4.148 -0.2552  0.8552  0.7161
39476SOL    HW227397   6.874   4.353   4.118  0.6635  0.0298  1.4581
39477SOL     OW27398   9.539  10.602   0.151 -0.3062 -0.3519 -0.5850
39477SOL    HW127399   9.497  10.688   0.147 -0.8219 -0.5114  0.8311
39477SOL    HW227400   9.578  10.599   0.238  0.6557 -1.1417 -1.0250
39478SOL     OW27401  11.933   8.518   3.735 -0.6496  0.2384  0.1523
39478SOL    HW127402  11.923   8.451   3.802  2.3324 -0.3465  0.1891
39478SOL    HW227403  11.902   8.599   3.775 -0.8045 -0.4699  1.4980
39479SOL     OW27404   0.051   3.033   9.534  0.2462  0.1509 -0.1124
39479SOL    HW127405   0.055   3.009   9.441  0.2874  1.7346 -0.5667
39479SOL    HW227406  -0.037   3.069   9.544  0.4139  0.4341  0.3418
39480SOL     OW27407  10.249  11.452   6.942 -0.2833  0.6085  0.2444
39480SOL    HW127408  10.325  11.448   7.001  0.9395  1.3074 -1.2399
39480SOL    HW227409  10.221  11.543   6.945 -0.0621  0.6997 -0.4405
39481SOL     OW27410   0.778   2.353   1.065  0.0434 -0.1886 -0.2787
39481SOL    HW127411   0.792   2.282   1.002 -1.2947 -0.1548 -0.6314
39481SOL    HW227412   0.861   2.401   1.066  0.6456 -1.1884 -0.7423
39482SOL     OW27413   6.644   2.701   2.741 -0.1645 -0.4291  0.4786
39482SOL    HW127414   6.658   2.624   2.685  1.7064 -0.0511  0.3586
39482SOL    HW227415   6.550   2.703   2.756 -0.5774 -1.2302 -1.6885
39483SOL     OW27416   2.029   8.745   2.182 -0.2702  0.2732  0.5317
39483SOL    HW127417   2.019   8.652   2.203 -0.1802  0.1118 -0.0940
39483SOL    HW227418   2.075   8.745   2.098  2.1448  0.9197  1.7525
39484SOL     OW27419  11.828  11.884   3.376  0.3179 -0.1640 -0.2442
39484SOL    HW127420  11.754  11.842   3.331  0.0532 -1.6728  1.4725
39484SOL    HW227421  11.890  11.813   3.391  1.3035  0.7227 -0.0164
39485SOL     OW27422   0.170   9.136   4.904  0.0658  0.6431 -0.0953
39485SOL    HW127423   0.180   9.155   4.997 -0.3080  0.0084  0.0822
39485SOL    HW227424   0.123   9.212   4.868 -0.7635  0.4061  0.4540
39486SOL     OW27425   0.778   6.512   7.544  0.1065  0.3651 -0.5557
39486SOL    HW127426   0.813   6.438   7.592  1.4851  0.8366 -0.7983
39486SOL    HW227427   0.694   6.530   7.586  0.5073 -0.2878  0.5721
39487SOL     OW27428   5.776   5.298   8.340  0.5133  0.2303  0.2485
39487SOL    HW127429   5.842   5.328   8.403  0.8152 -1.2379  0.6858
39487SOL    HW227430   5.827   5.270   8.264  0.2839  0.4384  0.0194
39488SOL     OW27431   5.556   7.082   9.741 -0.4949 -0.0535  0.5252
39488SOL    HW127432   5.561   6.990   9.769  0.8808  0.5177  2.3400
39488SOL    HW227433   5.530   7.077   9.649  0.8750 -2.3245  0.1735
39489SOL     OW27434   1.430   7.686   6.716  0.6721  0.3201 -0.9814
39489SOL    HW127435   1.459   7.660   6.629 -0.6486 -1.0421 -1.0605
39489SOL    HW227436   1.338   7.660   6.719  1.0501 -1.0378  1.3360
39490SOL     OW27437   9.443   0.981   5.411  0.1211 -0.5150  0.1182
39490SOL    HW127438   9.467   0.995   5.502 -1.1399 -1.5546  0.6521
39490SOL    HW227439   9.478   1.056   5.364  1.3382 -0.2850  1.3567
39491SOL     OW27440   8.257   7.793   5.934  0.3376  0.2138 -0.1033
39491SOL    HW127441   8.170   7.832   5.929  0.7519  1.1789  0.0759
39491SOL    HW227442   8.294   7.805   5.846  0.6349  0.6470  0.0762
39492SOL     OW27443   3.435  11.771   8.773  0.3822 -0.2042  0.2919
39492SOL    HW127444   3.375  11.830   8.819 -0.1154  0.0514 -0.6489
39492SOL    HW227445   3.393  11.685   8.780 -0.3429  0.0391 -0.7111
39493SOL     OW27446  12.184  10.350   2.110  0.0552  0.1158 -0.5325
39493SOL    HW127447  12.196  10.419   2.045 -1.2714  1.7676  0.8683
39493SOL    HW227448  12.120  10.386   2.172  1.9071 -0.9556  2.2144
39494SOL     OW27449  10.572  12.518   0.896  0.5916  0.2531  0.3054
39494SOL    HW127450  10.603  12.495   0.809 -0.3583 -1.0180  0.2647
39494SOL    HW227451  10.619  12.460   0.955 -1.4500 -1.5816  0.2540
39495SOL     OW27452   8.816   2.215   9.470 -0.5901  0.4238  0.1993
39495SOL    HW127453   8.809   2.126   9.507  0.4455  1.6417  3.7656
39495SOL    HW227454   8.876   2.205   9.396  2.1805 -1.5392  2.4347
39496SOL     OW27455   4.567   0.575   2.465 -0.0411 -0.7735 -0.4867
39496SOL    HW127456   4.612   0.587   2.381 -0.4068  1.0487 -0.4520
39496SOL    HW227457   4.603   0.643   2.521 -3.1069  1.1451 -0.5974
39497SOL     OW27458   4.008   6.474   9.787  0.2070  0.0995  0.5862
39497SOL    HW127459   3.924   6.519   9.780 -0.8304 -1.8444 -0.1785
39497SOL    HW227460   4.006   6.432   9.873  0.2971 -0.1222  0.4809
39498SOL     OW27461   5.396  11.683   7.244  0.0860  0.0709 -0.3397
39498SOL    HW127462   5.461  11.739   7.286 -0.4880  0.6845 -0.2391
39498SOL    HW227463   5.313  11.727   7.261 -0.3469 -0.6699 -0.5127
39499SOL     OW27464   0.388   3.398   8.289 -0.3004  0.1408  0.8322
39499SOL    HW127465   0.446   3.360   8.224  0.5174  1.9099  0.4595
39499SOL    HW227466   0.302   3.359   8.272 -0.1261  0.6374 -1.4017
39500SOL     OW27467  11.233   1.127  12.243  0.1640  0.5503 -0.2645
39500SOL    HW127468  11.180   1.156  12.168  1.0306 -0.5572 -1.3506
39500SOL    HW227469  11.256   1.037  12.222  1.5459  0.6570  0.7142
39501SOL     OW27470   8.417  10.701  10.225  0.5962  0.3983  0.6293
39501SOL    HW127471   8.462  10.617  10.237  0.8258  0.3423 -0.5229
39501SOL    HW227472   8.354  10.705  10.297 -1.3046 -1.9954 -0.7393
39502SOL     OW27473   8.837  11.301   7.206 -0.3127  0.4330 -0.1253
39502SOL    HW127474   8.748  11.274   7.182 -0.0673  0.4828 -1.0967
39502SOL    HW227475   8.873  11.341   7.127  1.2810 -1.3562 -0.3920
39503SOL     OW27476   5.859   9.873   9.207 -0.2040 -0.3161  0.1493
39503SOL    HW127477   5.807   9.830   9.275  0.0258 -0.4528  0.2396
39503SOL    HW227478   5.941   9.894   9.250 -0.8863  1.6659  0.5695
39504SOL     OW27479   2.695   0.328   5.968  0.2989  0.3933 -0.5343
39504SOL    HW127480   2.624   0.280   5.926 -0.6573  0.2514  1.1625
39504SOL    HW227481   2.652   0.379   6.037  1.5288  2.2822 -1.0921
39505SOL     OW27482   5.757   6.231   4.743 -0.3822 -0.2510  0.5945
39505SOL    HW127483   5.794   6.277   4.668 -0.7296 -1.0660 -0.0946
39505SOL    HW227484   5.832   6.212   4.799 -0.1363  0.4493  0.5097
39506SOL     OW27485   1.709  10.358   7.711 -0.0405  0.1796 -0.3927
39506SOL    HW127486   1.618  10.354   7.741  0.3849 -3.0377  0.8006
39506SOL    HW227487   1.723  10.275   7.665  2.6570 -0.0102  0.6018
39507SOL     OW27488  10.206   2.804  10.643 -0.3840 -0.3086 -0.0656
39507SOL    HW127489  10.284   2.816  10.697 -0.9913 -0.3793  0.8470
39507SOL    HW227490  10.180   2.892  10.618 -0.3342 -0.2454  0.1023
39508SOL     OW27491   3.214   5.546   5.740 -0.0242 -0.2310  0.1067
39508SOL    HW127492   3.184   5.459   5.714 -0.7309 -0.2998  1.1076
39508SOL    HW227493   3.272   5.531   5.814  1.1434  0.0428 -0.7370
39509SOL     OW27494   6.297   7.914   6.596  0.2462 -0.2735  0.0259
39509SOL    HW127495   6.321   7.908   6.688 -0.9474 -0.3243  0.3486
39509SOL    HW227496   6.317   8.004   6.571 -0.9578  0.2412  0.8101
39510SOL     OW27497  10.573   8.504   3.780 -0.3749  0.3775  0.4025
39510SOL    HW127498  10.642   8.544   3.727 -0.3411 -0.4773 -0.2276
39510SOL    HW227499  10.616   8.483   3.864 -0.6747  2.6084  1.1755
39511SOL     OW27500   0.637   9.332   9.323  0.1934  0.0837  0.3017
39511SOL    HW127501   0.612   9.321   9.231 -0.0921 -0.9023  0.4957
39511SOL    HW227502   0.708   9.269   9.336 -0.9119 -0.9961  1.2112
39512SOL     OW27503   4.742   9.158   6.817 -0.0299  0.0056 -0.1736
39512SOL    HW127504   4.748   9.203   6.902  0.4956  1.2429 -0.8405
39512SOL    HW227505   4.653   9.173   6.788 -0.1316 -0.1929  0.0319
39513SOL     OW27506   7.724   9.884   3.783  0.4538  0.5765  0.1457
39513SOL    HW127507   7.713   9.840   3.698 -1.0040  1.5942 -0.2294
39513SOL    HW227508   7.677   9.828   3.845 -1.8703  1.7991 -0.4216
39514SOL     OW27509   7.498   8.278  10.659 -0.3651  0.3447 -0.0757
39514SOL    HW127510   7.508   8.190  10.621 -2.0964  0.6477 -1.3620
39514SOL    HW227511   7.579   8.292  10.707  1.2106 -0.8538 -2.1703
39515SOL     OW27512   5.823   6.572   6.274  0.3058  0.5695 -0.7435
39515SOL    HW127513   5.891   6.640   6.272  0.4518  0.5362  1.1719
39515SOL    HW227514   5.872   6.490   6.269  0.7585  0.4406  2.8917
39516SOL     OW27515  11.988  10.435   4.285  0.1457 -0.3933 -0.0522
39516SOL    HW127516  11.930  10.498   4.328 -0.6585 -2.1452  1.5745
39516SOL    HW227517  12.034  10.486   4.219 -1.6368  1.5347  0.0965
39517SOL     OW27518   5.532   1.823   0.504 -0.1204  0.3341  0.6402
39517SOL    HW127519   5.624   1.805   0.524 -0.8318 -2.5131  1.7628
39517SOL    HW227520   5.524   1.808   0.410  0.7302  1.5980  0.3453
39518SOL     OW27521   5.101   0.452  10.352  0.5351  0.2468  0.2958
39518SOL    HW127522   5.119   0.464  10.445  1.7119 -1.3186  0.3164
39518SOL    HW227523   5.109   0.357  10.338  2.2089  0.6178 -1.7494
39519SOL     OW27524   6.560   2.059  10.192  0.3534  0.1468  0.0301
39519SOL    HW127525   6.601   1.973  10.195 -0.8379 -0.4784 -0.9187
39519SOL    HW227526   6.580   2.092  10.105  1.0520  0.9840  0.4871
39520SOL     OW27527   8.450   4.766   3.954  0.3152 -0.0138 -0.0228
39520SOL    HW127528   8.416   4.676   3.955  0.2341  0.0157 -0.0564
39520SOL    HW227529   8.521   4.764   3.890  1.2629 -0.3874  1.0216
39521SOL     OW27530   2.697   2.746   5.436 -0.1547  0.3138 -0.1632
39521SOL    HW127531   2.736   2.694   5.507  1.1557  0.5136 -0.7074
39521SOL    HW227532   2.660   2.681   5.376 -1.6273  0.1508  0.8529
39522SOL     OW27533   1.766  11.843   4.304 -0.4042  0.1353  0.2725
39522SOL    HW127534   1.757  11.748   4.313 -1.4241  0.1786 -0.2240
39522SOL    HW227535   1.752  11.860   4.211 -2.2978  0.9683  0.6692
39523SOL     OW27536  12.014   8.185   5.219 -0.6888  0.3160 -0.6188
39523SOL    HW127537  11.945   8.221   5.275 -1.5698 -0.2750 -1.2897
39523SOL    HW227538  11.984   8.096   5.199  1.9823 -1.3725  1.9905
39524SOL     OW27539   6.716   5.841   0.380 -0.6139  0.0280 -0.3913
39524SOL    HW127540   6.806   5.848   0.347 -0.8822  1.1474 -0.9084
39524SOL    HW227541   6.709   5.908   0.447 -0.9248 -0.3715 -0.0187
39525SOL     OW27542   1.628  12.438   1.999  0.6608  0.2112  1.0325
39525SOL    HW127543   1.654  12.478   1.916  0.4135 -3.8084 -1.1988
39525SOL    HW227544   1.710  12.425   2.046  0.9434  1.3120  0.8782
39526SOL     OW27545  10.549   8.349   1.683 -0.1050  0.1933 -0.2081
39526SOL    HW127546  10.518   8.435   1.710 -0.2681  0.4136 -1.0475
39526SOL    HW227547  10.574   8.361   1.591  0.5164 -0.4892 -0.1397
39527SOL     OW27548  11.262   2.751   9.427  0.0488 -0.6197  0.1554
39527SOL    HW127549  11.280   2.662   9.458 -0.5250 -1.0073 -0.6081
39527SOL    HW227550  11.171   2.768   9.451  0.6881  0.5190  2.0397
39528SOL     OW27551   1.536   0.715   6.410 -0.2343  0.1766 -0.4995
39528SOL    HW127552   1.578   0.697   6.494 -0.4575  1.3631 -0.1102
39528SOL    HW227553   1.462   0.654   6.406  1.3328 -1.8076 -1.1038
39529SOL     OW27554  12.359   4.246   1.083 -0.0900 -0.1051 -0.0552
39529SOL    HW127555  12.415   4.270   1.009 -1.5087  0.2031 -1.0806
39529SOL    HW227556  12.270   4.252   1.048 -0.7621 -0.7813  1.4571
39530SOL     OW27557  12.491  11.502  10.726 -0.3599  0.0299 -0.0433
39530SOL    HW127558  12.396  11.516  10.722 -0.7513 -0.4388  3.6394
39530SOL    HW227559  12.500  11.413  10.761  1.5366 -0.3982 -1.4410
39531SOL     OW27560   9.135   4.264   7.039 -0.0047 -0.2137 -0.6811
39531SOL    HW127561   9.092   4.233   6.960  0.7149 -0.8627 -0.8268
39531SOL    HW227562   9.120   4.194   7.103 -0.8040  0.4205 -0.1581
39532SOL     OW27563   6.168   7.388   5.584 -0.2864  0.5244 -0.0466
39532SOL    HW127564   6.176   7.468   5.635  1.3073  1.1561 -1.1902
39532SOL    HW227565   6.159   7.418   5.494  2.1376 -0.5267 -0.7104
39533SOL     OW27566   5.133   8.617   5.629  0.2377 -0.2516 -0.1138
39533SOL    HW127567   5.076   8.621   5.552 -0.5472  0.4480  0.4972
39533SOL    HW227568   5.220   8.598   5.592 -0.1969 -0.3600 -1.1317
39534SOL     OW27569   1.461   9.481   8.487 -0.3540  0.6188  0.4040
39534SOL    HW127570   1.469   9.431   8.569 -1.0750 -0.1347  0.0364
39534SOL    HW227571   1.367   9.482   8.469 -0.0986 -0.7479 -1.3012
39535SOL     OW27572  12.431   8.528  12.077 -0.2894  0.1533 -0.2927
39535SOL    HW127573  12.493   8.600  12.079 -1.0916  0.8487  1.2561
39535SOL    HW227574  12.471   8.463  12.019  0.7354  1.5674 -1.2345
39536SOL     OW27575   9.919   6.903   9.344  0.2601  0.2575 -0.4961
39536SOL    HW127576   9.985   6.874   9.281  1.1154  2.1577 -0.5388
39536SOL    HW227577   9.961   6.974   9.392 -1.7262  1.4731 -0.4555
39537SOL     OW27578   6.978   6.329  12.499  0.5474  0.5770  0.0842
39537SOL    HW127579   6.913   6.318  12.429 -0.6609 -0.6499  1.3193
39537SOL    HW227580   6.970   6.249  12.551  2.5130  0.7596  0.7529
39538SOL     OW27581   5.127   7.634  11.499 -0.6201 -0.2979  0.0487
39538SOL    HW127582   5.044   7.586  11.506 -0.1239 -1.3891 -0.9894
39538SOL    HW227583   5.166   7.628  11.585 -1.2170 -0.5478  0.3081
39539SOL     OW27584   9.256  10.535   5.459 -0.0262  0.5236 -0.3370
39539SOL    HW127585   9.253  10.624   5.494  1.1462  0.6220 -0.4477
39539SOL    HW227586   9.164  10.514   5.439 -0.6182  0.8062  1.8564
39540SOL     OW27587   8.729   1.916   4.568 -0.1361 -0.4629  0.6649
39540SOL    HW127588   8.650   1.968   4.553  0.0021 -0.0333  1.3951
39540SOL    HW227589   8.729   1.852   4.497 -0.2396  0.6123 -0.3442
39541SOL     OW27590   3.520  11.877  12.429 -0.1358  0.4815  0.8382
39541SOL    HW127591   3.479  11.963  12.439 -2.2033 -0.4560  0.7902
39541SOL    HW227592   3.614  11.896  12.426 -0.5334  2.7211  0.8949
39542SOL     OW27593  11.769   4.008  12.360  0.8340  0.4486 -0.1185
39542SOL    HW127594  11.832   3.962  12.305  1.1483  0.2983  0.3677
39542SOL    HW227595  11.802   4.098  12.363  1.3655  0.2352  0.6327
39543SOL     OW27596   0.505  11.707   5.574 -0.1582  0.0338 -0.2393
39543SOL    HW127597   0.442  11.676   5.640 -1.2680  1.4910 -0.5559
39543SOL    HW227598   0.571  11.753   5.625 -1.0871  1.2790 -0.1015
39544SOL     OW27599   1.044   3.417  12.356 -0.3073  0.2848 -0.2584
39544SOL    HW127600   0.972   3.403  12.295  0.1656  0.8954 -0.9628
39544SOL    HW227601   1.121   3.428  12.301  0.2991 -0.1331  0.4819
39545SOL     OW27602   1.449   3.510  12.265  0.0937 -0.8638  0.7043
39545SOL    HW127603   1.533   3.501  12.310  1.0502 -1.4395 -1.1249
39545SOL    HW227604   1.425   3.421  12.239 -0.1961 -0.5040 -0.3198
39546SOL     OW27605  10.458  12.049   7.554 -0.2267  0.1259  0.9924
39546SOL    HW127606  10.401  11.989   7.505 -0.4680  0.6021  0.6695
39546SOL    HW227607  10.426  12.136   7.529  1.2982  0.4393 -0.0164
39547SOL     OW27608   8.907   4.136   3.016 -0.2829  0.3997  0.1313
39547SOL    HW127609   8.842   4.156   3.083 -0.8709 -0.6508 -0.0957
39547SOL    HW227610   8.991   4.148   3.060 -0.6605 -1.1305  1.3563
39548SOL     OW27611   5.785   0.485   3.710 -0.4990 -0.1053 -0.0615
39548SOL    HW127612   5.729   0.494   3.787 -1.0055 -1.9949 -0.1446
39548SOL    HW227613   5.846   0.414   3.734 -0.1047 -0.1289 -1.0820
39549SOL     OW27614   3.985   4.399   4.871 -0.1766 -0.0643 -0.2560
39549SOL    HW127615   4.064   4.453   4.879 -1.4074  1.8031 -0.0308
39549SOL    HW227616   3.971   4.363   4.958  0.1361  0.0500 -0.1590
39550SOL     OW27617  10.927   5.222  12.046  0.1258  0.1043  0.4983
39550SOL    HW127618  11.006   5.272  12.026 -0.5417  0.8007 -0.4903
39550SOL    HW227619  10.917   5.163  11.971 -0.8533  0.7621  0.0844
39551SOL     OW27620   7.226  10.016   9.896 -0.8941 -0.4238 -0.4166
39551SOL    HW127621   7.228  10.088   9.832 -0.6830 -0.5997 -0.6072
39551SOL    HW227622   7.142   9.973   9.880 -1.7305  0.6955  0.7171
39552SOL     OW27623   4.957   0.318   0.792  0.0746  0.1520  0.1010
39552SOL    HW127624   4.991   0.279   0.872  0.1239 -0.6113 -0.2797
39552SOL    HW227625   4.916   0.245   0.745 -0.4841  0.7028 -0.2929
39553SOL     OW27626   0.161   4.434   2.242  0.5140 -0.1671 -0.0335
39553SOL    HW127627   0.203   4.505   2.290 -1.0180  0.7848 -0.0422
39553SOL    HW227628   0.140   4.369   2.310 -0.5272  0.6194  0.4198
39554SOL     OW27629   0.690   2.717   0.240 -0.0918  0.5670 -0.0240
39554SOL    HW127630   0.781   2.688   0.233  0.0698  1.2904 -1.4841
39554SOL    HW227631   0.639   2.645   0.204 -0.1144  0.0941  0.9464
39555SOL     OW27632   3.703  11.151   5.076 -0.7639  0.1724 -0.6170
39555SOL    HW127633   3.637  11.220   5.083 -0.0084  1.1934 -2.7539
39555SOL    HW227634   3.754  11.158   5.157 -2.4808  0.1554  0.5126
39556SOL     OW27635  12.564   9.635   1.455 -0.1588 -0.4892  0.4555
39556SOL    HW127636  12.610   9.718   1.467 -0.2446 -0.0178 -1.8935
39556SOL    HW227637  12.616   9.589   1.389 -2.3745 -0.3928 -1.4954
39557SOL     OW27638  11.785   4.307   9.092  0.4679  0.4286 -0.1677
39557SOL    HW127639  11.806   4.240   9.156  3.3222  0.5306 -0.8785
39557SOL    HW227640  11.813   4.389   9.132  0.3150  0.7639 -0.7235
39558SOL     OW27641   7.911   4.604   6.825  0.3086  0.9076 -0.4027
39558SOL    HW127642   7.910   4.615   6.730  0.6790  1.7907 -0.3092
39558SOL    HW227643   7.874   4.517   6.839 -1.3906  1.4543 -1.2510
39559SOL     OW27644  11.978   4.438   6.666  0.0606 -0.5795 -0.0489
39559SOL    HW127645  12.055   4.485   6.698  1.8797 -1.8153 -2.3661
39559SOL    HW227646  11.956   4.377   6.737  0.4102  0.6122  1.1317
39560SOL     OW27647   7.110  10.007   6.471  0.0809 -0.2051 -0.1849
39560SOL    HW127648   7.182   9.979   6.528 -0.9230 -1.0056  0.7218
39560SOL    HW227649   7.073   9.926   6.437 -1.0548  0.1412  0.1901
39561SOL     OW27650   1.414   0.353   1.106  0.0251 -0.2447 -0.0544
39561SOL    HW127651   1.440   0.401   1.184 -0.6861  0.0486  0.0042
39561SOL    HW227652   1.390   0.266   1.137  1.6712 -0.8019 -0.2039
39562SOL     OW27653   2.875   2.584   1.014 -0.0162  0.4073  0.4768
39562SOL    HW127654   2.930   2.523   1.063  0.7439  1.1987  0.6251
39562SOL    HW227655   2.787   2.546   1.018  0.8618 -2.1966 -1.8000
39563SOL     OW27656   8.965   7.701   4.655  0.3543  0.1658  0.3158
39563SOL    HW127657   8.928   7.769   4.712 -1.6973  1.5602 -2.4429
39563SOL    HW227658   8.927   7.718   4.569  4.4504 -0.7898 -1.9736
39564SOL     OW27659   6.460   5.010   0.824 -0.6985  0.5341  0.5471
39564SOL    HW127660   6.381   4.962   0.850 -0.5089  1.3877  2.8850
39564SOL    HW227661   6.445   5.030   0.731 -1.3788 -2.7716 -0.1923
39565SOL     OW27662   6.252  10.361   4.840  0.2330  0.1372 -0.1582
39565SOL    HW127663   6.258  10.450   4.873 -0.4355  0.4116 -0.7694
39565SOL    HW227664   6.189  10.365   4.768  1.6892 -0.4312 -1.5233
39566SOL     OW27665   0.080  11.681   5.026  0.2622  0.2506  0.1451
39566SOL    HW127666   0.124  11.625   4.962 -1.0628  0.3869 -0.9318
39566SOL    HW227667   0.149  11.704   5.089  1.8003  0.7195 -1.6222
39567SOL     OW27668   6.489   2.327   3.110  0.1208  0.2005 -0.6842
39567SOL    HW127669   6.533   2.394   3.162 -2.6169  1.1728  0.5887
39567SOL    HW227670   6.525   2.338   3.022  3.1136  0.1564  0.4112
39568SOL     OW27671   0.071  12.424   0.687 -0.6195 -0.1491  0.1702
39568SOL    HW127672   0.029  12.471   0.614 -0.9880 -1.4756 -0.4983
39568SOL    HW227673   0.086  12.492   0.753  1.4461  1.4878 -1.8402
39569SOL     OW27674   3.296   5.345   5.927  0.2387 -0.4010 -0.0221
39569SOL    HW127675   3.380   5.370   5.965  0.5659 -0.5747 -0.6223
39569SOL    HW227676   3.311   5.257   5.892  0.3649  0.2881 -1.7844
39570SOL     OW27677   3.930  12.000   8.277 -0.2433 -0.8725 -0.0542
39570SOL    HW127678   3.919  12.085   8.320  0.3436 -0.4483 -0.7060
39570SOL    HW227679   3.847  11.955   8.291 -0.7565  0.0125 -0.1327
39571SOL     OW27680   0.384   3.764  10.833  0.2883  0.1502 -0.3014
39571SOL    HW127681   0.370   3.777  10.926 -0.7154  0.1612 -0.4409
39571SOL    HW227682   0.391   3.852  10.796 -2.3927  0.3166 -0.6495
39572SOL     OW27683   1.580   2.691   9.877  0.3548  0.3754 -0.4877
39572SOL    HW127684   1.632   2.732   9.807  0.2727 -1.4453 -1.6731
39572SOL    HW227685   1.570   2.600   9.849  0.9656 -0.6320  2.2686
39573SOL     OW27686   5.393   4.484   1.889  0.8059 -0.1627  0.3896
39573SOL    HW127687   5.408   4.445   1.975 -1.2674 -2.5024 -0.1964
39573SOL    HW227688   5.386   4.578   1.907 -1.5648 -0.7084  3.1614
39574SOL     OW27689   5.515   9.322   7.063 -0.2158  0.0914  0.1649
39574SOL    HW127690   5.490   9.348   7.151  1.2402 -0.8413  0.9018
39574SOL    HW227691   5.514   9.226   7.065  0.2943  0.0522 -0.6908
39575SOL     OW27692  11.936   4.978   0.007 -0.4667  0.2275  0.0794
39575SOL    HW127693  11.862   4.925  -0.025  0.4113  1.0305 -3.6994
39575SOL    HW227694  11.943   5.050  -0.056  3.1632  0.4989  0.6011
39576SOL     OW27695   8.039   7.648   1.458  0.0238 -0.0643  0.1837
39576SOL    HW127696   8.079   7.586   1.520 -1.3969 -1.1792  0.0294
39576SOL    HW227697   8.016   7.724   1.512  0.5372 -0.2263  0.6438
39577SOL     OW27698   9.400   1.417   2.925 -0.0975 -0.2532 -0.3223
39577SOL    HW127699   9.329   1.432   2.988 -1.5230 -1.9842 -1.4138
39577SOL    HW227700   9.439   1.334   2.952  1.2918  0.4820  0.0153
39578SOL     OW27701   1.721  10.949   6.646  0.4699  0.6732 -0.1135
39578SOL    HW127702   1.651  10.890   6.674  0.4336  0.6775 -0.1952
39578SOL    HW227703   1.730  11.012   6.718  0.1621  0.8766 -0.2515
39579SOL     OW27704   2.468   3.269  10.541  0.5178  0.3603 -0.6116
39579SOL    HW127705   2.410   3.243  10.469 -1.9029 -0.3074  1.4294
39579SOL    HW227706   2.418   3.335  10.589  1.8565  0.4412  0.7277
39580SOL     OW27707   1.799  11.168  10.509  0.4636  0.1797  0.3871
39580SOL    HW127708   1.838  11.173  10.596 -0.6330 -1.9464  1.0714
39580SOL    HW227709   1.873  11.170  10.448  1.4289 -0.7693  1.4988
39581SOL     OW27710  10.876   3.691   6.655 -0.2875  0.3720  0.2151
39581SOL    HW127711  10.785   3.673   6.629 -0.7850 -0.8173  2.5268
39581SOL    HW227712  10.875   3.783   6.682 -0.4752  0.7346 -0.9778
39582SOL     OW27713  10.125   0.949   0.823 -0.1905 -0.0624 -0.5644
39582SOL    HW127714  10.075   0.879   0.780  0.5537 -1.4472  0.7429
39582SOL    HW227715  10.183   0.903   0.884 -0.4742  1.7653  1.1648
39583SOL     OW27716   7.785  12.296  11.335 -0.1506  0.1431  0.2178
39583SOL    HW127717   7.691  12.308  11.345  0.0839  0.3280  2.6034
39583SOL    HW227718   7.822  12.384  11.341  0.2555 -0.0381  0.4465
39584SOL     OW27719   7.864   3.834   5.516 -0.1856 -0.4913 -0.3308
39584SOL    HW127720   7.893   3.911   5.565 -0.1370  0.1213 -1.2840
39584SOL    HW227721   7.866   3.862   5.424  0.2589 -1.7740 -0.7367
39585SOL     OW27722   6.162   9.149  11.820  0.8449 -0.1354 -0.2626
39585SOL    HW127723   6.221   9.107  11.882 -1.2053 -2.0949  0.5242
39585SOL    HW227724   6.148   9.084  11.752  0.4575  0.7220 -1.0298
39586SOL     OW27725   2.029   8.632   8.413  0.2478 -0.5937  0.1756
39586SOL    HW127726   1.959   8.585   8.458  0.0114 -0.5629 -0.1567
39586SOL    HW227727   1.986   8.675   8.339  0.4342  0.2253  0.5217
39587SOL     OW27728   3.064   2.466   1.188 -0.2750 -0.0234 -0.3046
39587SOL    HW127729   3.131   2.533   1.205  0.4304 -0.7583 -0.1197
39587SOL    HW227730   3.104   2.410   1.122 -1.0957  0.0668 -0.8805
39588SOL     OW27731   7.947   2.670   4.335 -0.9175  0.2926  0.3077
39588SOL    HW127732   7.924   2.753   4.292 -0.5208  0.5308  0.5471
39588SOL    HW227733   7.882   2.607   4.302  0.0204  0.1976 -1.5081
39589SOL     OW27734  10.517   7.419   7.719  0.1262  0.1622  0.3011
39589SOL    HW127735  10.477   7.464   7.645  0.8800  1.9810  0.9543
39589SOL    HW227736  10.457   7.433   7.792 -0.1103 -0.7502  0.2977
39590SOL     OW27737   3.455   3.984   5.910  0.2311 -0.6441  0.4743
39590SOL    HW127738   3.408   3.953   5.987 -1.5516 -2.7831 -1.3361
39590SOL    HW227739   3.393   4.040   5.864  0.8275 -0.4259 -0.0820
39591SOL     OW27740  11.916  11.979   4.792 -0.6372  0.5761  0.6573
39591SOL    HW127741  11.978  11.946   4.858  0.8090  0.4446 -0.7005
39591SOL    HW227742  11.831  11.974   4.834  0.2553  0.6791  2.5893
39592SOL     OW27743   7.288   9.811   9.223 -0.3385 -0.2726 -0.4534
39592SOL    HW127744   7.217   9.764   9.181  0.0137 -0.6306 -0.6465
39592SOL    HW227745   7.245   9.885   9.267 -0.5314  1.2251 -2.9579
39593SOL     OW27746   8.004  11.182   6.803 -0.2905  0.1844 -0.3371
39593SOL    HW127747   7.936  11.118   6.824  2.8317 -4.4529 -2.5897
39593SOL    HW227748   7.989  11.204   6.711  1.0624 -0.7432 -0.8049
39594SOL     OW27749   9.823  12.346   3.298  0.2289 -0.0307  0.1775
39594SOL    HW127750   9.882  12.349   3.223 -0.4926  3.7185 -0.4465
39594SOL    HW227751   9.751  12.289   3.271  0.1856  0.9321 -1.8794
39595SOL     OW27752   3.137   2.358   2.254  0.1948 -0.9570 -0.3691
39595SOL    HW127753   3.126   2.361   2.159  1.3449  0.9594 -0.4830
39595SOL    HW227754   3.215   2.305   2.268  0.9722  0.0944 -0.6179
39596SOL     OW27755   9.580   8.522   1.024 -0.5965 -0.2933 -0.0094
39596SOL    HW127756   9.537   8.597   1.064  0.4365  0.2075  0.1972
39596SOL    HW227757   9.588   8.545   0.931  0.3313  0.1560  0.1764
39597SOL     OW27758   7.032   4.344   8.113  0.2065 -0.1333  0.4307
39597SOL    HW127759   7.114   4.392   8.097  0.8262 -0.6584  1.8376
39597SOL    HW227760   6.973   4.409   8.151  1.2677 -0.5349  2.9717
39598SOL     OW27761   4.326  10.498   0.183 -0.2959 -0.5874 -0.2861
39598SOL    HW127762   4.258  10.555   0.147  0.7059  0.6968 -0.2331
39598SOL    HW227763   4.370  10.461   0.107 -0.3811 -0.5898 -0.3334
39599SOL     OW27764   9.923   0.757  10.870  0.4201  0.1860  0.8472
39599SOL    HW127765   9.932   0.794  10.783 -3.3873 -0.5819 -0.0508
39599SOL    HW227766   9.909   0.832  10.928  0.4737  0.5462  0.3911
39600SOL     OW27767   5.666   2.137   3.741 -0.2012 -0.1967 -0.5758
39600SOL    HW127768   5.695   2.218   3.700  0.0924 -0.5512 -1.0863
39600SOL    HW227769   5.702   2.140   3.829 -1.0796  0.7110 -0.2340
39601SOL     OW27770   9.594   4.687   8.168 -0.0201 -0.2374 -0.1411
39601SOL    HW127771   9.642   4.764   8.136  0.1249 -1.0818 -2.1132
39601SOL    HW227772   9.663   4.628   8.199  0.0548 -0.4373 -0.6672
39602SOL     OW27773   9.170   5.208   5.170 -0.0180  0.4331  0.5674
39602SOL    HW127774   9.112   5.284   5.160  0.0126  0.4133  0.2032
39602SOL    HW227775   9.120   5.135   5.135  1.3296  0.9209 -2.7447
39603SOL     OW27776   5.502  10.030  10.416 -0.5459  0.5119 -0.2931
39603SOL    HW127777   5.491   9.974  10.493  0.2358 -0.0646 -0.5850
39603SOL    HW227778   5.457   9.983  10.346 -0.3730  0.5235 -0.4118
39604SOL     OW27779   8.705   5.760  12.234  0.1213  0.0168  0.1959
39604SOL    HW127780   8.651   5.710  12.173  0.4050  1.0561 -0.9438
39604SOL    HW227781   8.647   5.828  12.268  0.3027  0.2043  0.1327
39605SOL     OW27782   2.583   6.074   6.826 -0.2261 -0.0195  0.0029
39605SOL    HW127783   2.521   6.108   6.890  0.2251  1.1686 -0.1558
39605SOL    HW227784   2.614   6.152   6.780 -0.0297 -0.7793 -1.1936
39606SOL     OW27785   8.511   1.098  12.574 -0.5707 -0.9674  0.6114
39606SOL    HW127786   8.525   1.148  12.654  0.8795 -1.2438  0.5553
39606SOL    HW227787   8.577   1.131  12.513 -0.2973 -2.1864  0.2204
39607SOL     OW27788   7.234   4.471   8.470  0.4060 -0.2208  0.9378
39607SOL    HW127789   7.205   4.389   8.509 -1.2312  0.0936  0.4522
39607SOL    HW227790   7.199   4.539   8.528 -1.2597  0.2185 -0.4936
39608SOL     OW27791   3.818  10.506   5.830  0.3859  0.1075  0.2060
39608SOL    HW127792   3.744  10.460   5.790  1.6051 -1.9730  0.1923
39608SOL    HW227793   3.870  10.538   5.757  0.4283  0.0007  0.1898
39609SOL     OW27794   8.958   5.925   4.079 -0.8035  0.4896  0.6986
39609SOL    HW127795   8.928   5.940   4.169 -0.1687 -1.3866  1.2691
39609SOL    HW227796   8.949   5.831   4.066  1.6879  0.2911 -0.2277
39610SOL     OW27797   2.343   2.634   3.341 -0.6591 -0.3220  0.0993
39610SOL    HW127798   2.372   2.723   3.360 -0.6737 -0.5063  1.0500
39610SOL    HW227799   2.299   2.606   3.422 -0.1888 -1.3797  0.0000
39611SOL     OW27800   2.251   9.135   6.194  0.3544  0.0812  0.1161
39611SOL    HW127801   2.182   9.180   6.242  0.0545 -0.4023  0.1499
39611SOL    HW227802   2.264   9.187   6.115 -0.4933 -0.1695 -0.1921
39612SOL     OW27803   4.106   5.331   1.193 -0.6146  0.2587  0.3976
39612SOL    HW127804   4.142   5.266   1.133  0.1455 -0.8577  1.9916
39612SOL    HW227805   4.013   5.337   1.170 -0.4685 -0.5987 -0.4556
39613SOL     OW27806   4.929  11.727   9.801 -0.4127  0.3209  0.3057
39613SOL    HW127807   4.891  11.755   9.718  0.0460 -0.4265 -0.1688
39613SOL    HW227808   4.971  11.644   9.781  0.3749  0.5138  1.1105
39614SOL     OW27809   4.489  10.156   9.164 -0.1819 -0.0997 -0.2347
39614SOL    HW127810   4.559  10.127   9.105 -0.0449 -1.1962  0.4547
39614SOL    HW227811   4.428  10.083   9.166 -0.4601  0.1542  0.5594
39615SOL     OW27812   8.387   0.611   6.157 -0.1259  0.1966 -0.3513
39615SOL    HW127813   8.367   0.525   6.121  0.4281 -0.4172  0.7948
39615SOL    HW227814   8.453   0.647   6.097  1.2836 -1.0875  0.3565
39616SOL     OW27815   7.169   5.577   5.648 -0.5013 -0.5275  0.3167
39616SOL    HW127816   7.096   5.534   5.604  0.6078 -2.0588 -0.1053
39616SOL    HW227817   7.179   5.661   5.602 -1.0859 -0.9284 -0.5590
39617SOL     OW27818   4.528   2.256   4.116  0.3442  0.4407 -0.4497
39617SOL    HW127819   4.594   2.205   4.071 -1.4091 -3.5909  1.0831
39617SOL    HW227820   4.567   2.277   4.202  0.6326  0.6671 -0.6339
39618SOL     OW27821  11.184   3.573   4.777 -0.1345  0.4825 -0.3499
39618SOL    HW127822  11.145   3.503   4.725  2.4051 -0.8472 -0.6561
39618SOL    HW227823  11.151   3.560   4.865 -1.7079  0.5412 -0.9055
39619SOL     OW27824   4.871   0.132  12.140  0.4383 -0.7139  0.4295
39619SOL    HW127825   4.944   0.122  12.079  3.0365 -1.0998  3.3323
39619SOL    HW227826   4.881   0.220  12.176  0.1038 -1.1100  1.5517
39620SOL     OW27827   2.507  12.520   4.650  0.5459  0.3396 -0.2370
39620SOL    HW127828   2.497  12.454   4.581  3.6897  0.0140 -0.5596
39620SOL    HW227829   2.529  12.469   4.728 -1.4628  0.8058  0.6872
39621SOL     OW27830   9.064   5.314   9.079  0.8912 -0.2041 -0.3905
39621SOL    HW127831   9.151   5.335   9.043  0.7547  0.7229 -0.1844
39621SOL    HW227832   9.082   5.284   9.168  0.8861  1.6260  0.2729
39622SOL     OW27833   0.138   5.971   8.761 -0.3848  0.0700 -0.0409
39622SOL    HW127834   0.100   6.033   8.698  2.0147  0.1516 -1.5419
39622SOL    HW227835   0.138   5.887   8.715  1.9949  0.2614 -0.5376
39623SOL     OW27836   4.515  10.847  10.118  0.6343  0.5638 -0.0586
39623SOL    HW127837   4.526  10.932  10.075  1.5147  0.4038 -0.1663
39623SOL    HW227838   4.503  10.868  10.210  3.6715  0.7449  0.4058
39624SOL     OW27839   8.540  12.067  10.182  0.6483 -0.4126 -0.1725
39624SOL    HW127840   8.503  11.986  10.146  2.5361 -0.6465 -1.7070
39624SOL    HW227841   8.518  12.063  10.275 -1.7433 -1.2837 -0.6962
39625SOL     OW27842   6.029  10.063   7.865  0.3466 -0.5280  0.5504
39625SOL    HW127843   6.089   9.999   7.827  0.7161 -0.2613  0.6838
39625SOL    HW227844   6.069  10.088   7.948  0.9773  0.9833 -0.1684
39626SOL     OW27845   3.150   3.071   2.612  0.0359  0.5590  0.2110
39626SOL    HW127846   3.096   3.132   2.560 -1.3991 -1.2977 -0.6197
39626SOL    HW227847   3.091   3.040   2.680  0.7366  0.0779  0.6048
39627SOL     OW27848   7.935   0.314   7.970 -0.1831  0.2321 -0.1650
39627SOL    HW127849   8.003   0.248   7.983 -0.4426 -0.2606 -1.1919
39627SOL    HW227850   7.907   0.338   8.058 -0.2576 -1.2213  0.2269
39628SOL     OW27851   3.465   8.946  11.724  0.5663  0.5036  0.6202
39628SOL    HW127852   3.433   9.012  11.786  1.2786  1.5121 -0.0571
39628SOL    HW227853   3.387   8.896  11.700  0.0914  0.7847  1.5077
39629SOL     OW27854  12.505   0.849   5.124 -0.1618  0.4013 -0.2195
39629SOL    HW127855  12.597   0.833   5.145  0.1410  0.0827 -1.6553
39629SOL    HW227856  12.470   0.895   5.200 -0.0305 -3.4705  2.4675
39630SOL     OW27857   8.973  11.245   8.308  0.2760  0.0244 -0.1907
39630SOL    HW127858   8.892  11.195   8.321  0.4521 -0.5438 -1.1933
39630SOL    HW227859   8.957  11.328   8.354 -0.8809 -0.0678 -0.3863
39631SOL     OW27860   3.367   1.695  11.028 -0.2826 -0.7053  0.2226
39631SOL    HW127861   3.382   1.711  10.935 -1.3943 -1.6233 -0.1321
39631SOL    HW227862   3.455   1.698  11.067  0.1622 -0.0392 -0.8050
39632SOL     OW27863   9.680   4.082  12.128  0.4235 -0.7016  0.5029
39632SOL    HW127864   9.743   4.029  12.176  1.9392  1.8908  1.5698
39632SOL    HW227865   9.731   4.119  12.056 -0.7008 -0.9532 -0.4514
39633SOL     OW27866  12.390   2.241   1.979 -0.0859  0.3682  0.1050
39633SOL    HW127867  12.483   2.221   1.991  0.2951  0.3680 -2.4153
39633SOL    HW227868  12.346   2.158   1.998  0.2915  0.5596  2.0848
39634SOL     OW27869   8.090   2.902   3.871  0.2103  0.0869 -0.5105
39634SOL    HW127870   8.131   2.872   3.952  0.7635 -0.6754 -1.0611
39634SOL    HW227871   7.998   2.915   3.894  0.4841  0.4939  0.3910
39635SOL     OW27872   0.722   4.931   3.221  0.0584  0.2951 -0.2171
39635SOL    HW127873   0.646   4.905   3.169  0.5350  1.4904 -1.5628
39635SOL    HW227874   0.785   4.964   3.158  0.2887  2.7202  1.1558
39636SOL     OW27875  10.713  11.104  11.249 -0.0700 -0.0362  0.3492
39636SOL    HW127876  10.651  11.165  11.289  0.0170 -0.6399  1.4604
39636SOL    HW227877  10.717  11.130  11.157 -3.2339 -0.9736 -0.1830
39637SOL     OW27878  10.451   1.872   5.835 -0.3935 -0.3519 -0.1981
39637SOL    HW127879  10.452   1.892   5.929  0.4172  1.5575 -0.5580
39637SOL    HW227880  10.432   1.957   5.793  0.7334 -0.8586 -1.8081
39638SOL     OW27881   0.243  12.483   3.396 -0.2308  0.2480 -0.2994
39638SOL    HW127882   0.260  12.539   3.321 -1.2145 -0.5671 -1.1600
39638SOL    HW227883   0.157  12.445   3.380 -0.4116 -0.0602  1.1768
39639SOL     OW27884  10.380   7.538   3.760  0.0594  0.6114 -0.4417
39639SOL    HW127885  10.336   7.492   3.689  0.6956 -0.3863 -0.2059
39639SOL    HW227886  10.358   7.488   3.838 -0.8344  1.8382  0.1358
39640SOL     OW27887   8.012   5.252   5.980  0.2144 -0.4508  0.6669
39640SOL    HW127888   8.100   5.284   6.002  0.0354  1.2350 -0.8810
39640SOL    HW227889   8.028   5.175   5.925  0.7088 -0.3527  0.6700
39641SOL     OW27890   6.343   3.992   6.875 -0.4624 -0.4973  0.2555
39641SOL    HW127891   6.409   4.023   6.936 -0.7896 -0.2791  0.5010
39641SOL    HW227892   6.317   4.070   6.826  0.3318 -0.7928 -0.6942
39642SOL     OW27893   3.153   7.854  10.891  0.0370 -0.1936 -0.2945
39642SOL    HW127894   3.087   7.903  10.841  0.3537  1.0195  0.4339
39642SOL    HW227895   3.217   7.825  10.826  0.3082  1.1414 -0.6435
39643SOL     OW27896   0.990   9.190   5.300 -0.1371 -0.2082  0.2955
39643SOL    HW127897   1.051   9.136   5.351  2.0670  0.8929 -1.0148
39643SOL    HW227898   0.982   9.271   5.350  2.0165  0.8681 -0.9541
39644SOL     OW27899  11.328   3.911   1.779 -0.1541  0.0839  0.8560
39644SOL    HW127900  11.272   3.977   1.739 -1.2607  0.6996  3.2388
39644SOL    HW227901  11.292   3.827   1.750  1.1662  0.4241 -2.0694
39645SOL     OW27902   6.781   9.594   1.324 -0.0180 -0.4642 -0.2560
39645SOL    HW127903   6.686   9.588   1.312  0.1084  0.4201 -1.9569
39645SOL    HW227904   6.801   9.687   1.319  0.7672 -0.4427  2.0151
39646SOL     OW27905  10.512   1.792   0.220 -0.1412  0.3612  0.3367
39646SOL    HW127906  10.500   1.705   0.182 -0.4412 -1.5363  4.2886
39646SOL    HW227907  10.589   1.783   0.277  0.6511  3.1277 -0.1704
39647SOL     OW27908   3.949   4.475   5.945  0.0165 -0.6041 -0.4532
39647SOL    HW127909   4.017   4.534   5.976  0.3325 -1.0350 -0.3178
39647SOL    HW227910   3.878   4.533   5.917  0.1979 -0.1731 -0.0330
39648SOL     OW27911   6.324   4.006   4.871  0.4373  0.7397  0.3854
39648SOL    HW127912   6.408   3.979   4.834 -0.6327  1.0339 -2.5126
39648SOL    HW227913   6.274   4.040   4.796 -2.2016  0.7796  2.0248
39649SOL     OW27914  11.853   1.585   7.326  0.1527 -0.0126 -0.5302
39649SOL    HW127915  11.808   1.511   7.366 -0.7978  1.1839  0.7430
39649SOL    HW227916  11.791   1.657   7.333  1.4997  1.2041 -0.6118
39650SOL     OW27917  12.400  10.327   0.023 -0.5540 -0.0038 -0.0253
39650SOL    HW127918  12.394  10.328   0.118 -1.2155  0.4942 -0.0726
39650SOL    HW227919  12.384  10.235  -0.001 -1.1541  0.0129  0.2942
39651SOL     OW27920   3.887   3.349   4.955 -0.6057  0.4933  0.0495
39651SOL    HW127921   3.867   3.277   4.895  2.7030 -0.5391  0.0181
39651SOL    HW227922   3.882   3.310   5.042 -0.8790  0.8168  0.1834
39652SOL     OW27923   6.975   5.128   2.076 -0.8560  0.3832 -0.3721
39652SOL    HW127924   7.001   5.176   1.997  0.4699  0.1301 -0.1181
39652SOL    HW227925   7.009   5.040   2.062 -1.0065  0.2220  0.2860
39653SOL     OW27926   2.633   8.661   0.808 -0.5772  0.0679 -0.3824
39653SOL    HW127927   2.691   8.704   0.746  0.0990  0.9932  0.8329
39653SOL    HW227928   2.587   8.594   0.757  0.1704  0.5914 -1.7793
39654SOL     OW27929  11.396   7.197   2.795 -0.1019 -0.3364  0.0620
39654SOL    HW127930  11.441   7.114   2.781  0.5902 -0.0256  0.4083
39654SOL    HW227931  11.311   7.172   2.832 -0.0282 -0.9048 -0.1422
39655SOL     OW27932   9.066   0.368  10.846 -0.3733  0.0484 -0.1373
39655SOL    HW127933   9.105   0.284  10.867 -0.2930  0.5061  1.6561
39655SOL    HW227934   9.115   0.398  10.769 -1.5379 -2.2583 -1.9137
39656SOL     OW27935   2.188   5.673   7.509 -0.2708 -0.5411  0.6950
39656SOL    HW127936   2.155   5.752   7.551  0.5058  1.0748 -1.5193
39656SOL    HW227937   2.110   5.627   7.479 -0.6992  0.9252 -0.5387
39657SOL     OW27938   2.188  11.405   7.587  1.0991  0.2410  0.0261
39657SOL    HW127939   2.283  11.415   7.591  1.2071 -0.4286 -0.6969
39657SOL    HW227940   2.168  11.345   7.659  1.6244 -2.1756 -1.7385
39658SOL     OW27941  12.529   1.504   4.671 -0.1581  0.3795  0.2975
39658SOL    HW127942  12.594   1.543   4.730  1.2644 -0.2920 -0.7678
39658SOL    HW227943  12.576   1.432   4.628 -0.5599  1.8426 -2.8906
39659SOL     OW27944  12.229  11.304   3.363  0.2062 -0.0692  0.0560
39659SOL    HW127945  12.165  11.344   3.422  1.0671  0.6043  0.5597
39659SOL    HW227946  12.231  11.361   3.286 -0.0806 -0.3123 -0.1349
39660SOL     OW27947   9.661   3.057   5.633  0.0388  0.4051  0.3229
39660SOL    HW127948   9.674   3.047   5.727 -0.2402 -0.7707  0.2522
39660SOL    HW227949   9.567   3.042   5.620 -0.0081  1.0230 -0.0932
39661SOL     OW27950  11.716   2.723   8.274  0.3970 -0.2100  0.5325
39661SOL    HW127951  11.728   2.682   8.360 -0.8077 -0.3283  0.6645
39661SOL    HW227952  11.721   2.650   8.213 -0.2246 -0.3456  0.6367
39662SOL     OW27953   7.504   7.430   1.441  0.0943  0.0755  0.2258
39662SOL    HW127954   7.449   7.415   1.519 -0.1230 -1.7239 -0.2334
39662SOL    HW227955   7.441   7.438   1.369  0.3660 -0.9952 -0.1516
39663SOL     OW27956  10.136   6.083   6.019 -0.2903  0.1319 -0.3969
39663SOL    HW127957  10.221   6.060   5.980 -0.3925  0.6815 -0.9710
39663SOL    HW227958  10.075   6.020   5.981 -0.1638 -0.1726 -0.0965
39664SOL     OW27959   5.390   5.077  11.370 -0.0528  0.2927 -0.2942
39664SOL    HW127960   5.345   5.034  11.297 -0.7620 -0.7729  0.7281
39664SOL    HW227961   5.465   5.119  11.330  1.0052 -2.3605 -1.3325
39665SOL     OW27962   1.439   9.129   1.283 -0.2339  0.1182  0.0550
39665SOL    HW127963   1.446   9.090   1.370  1.1812  0.9955  0.3607
39665SOL    HW227964   1.417   9.220   1.299  0.8078  0.4738 -0.4582
39666SOL     OW27965  10.367   0.728   7.698 -0.1851  0.1622 -0.0778
39666SOL    HW127966  10.296   0.675   7.662 -0.6904  0.5117  0.3944
39666SOL    HW227967  10.329   0.770   7.775  0.7898 -0.3359  0.7043
39667SOL     OW27968  10.808   0.725   8.710  0.0510 -0.2158 -0.3541
39667SOL    HW127969  10.776   0.649   8.661  1.4160 -0.2995 -1.1452
39667SOL    HW227970  10.733   0.784   8.714 -1.8100 -2.5054  2.2629
39668SOL     OW27971   5.317   2.383   0.172 -0.1293  0.2446  0.0031
39668SOL    HW127972   5.269   2.302   0.155 -0.6520  0.7779 -1.2236
39668SOL    HW227973   5.290   2.442   0.101  1.1736  1.0771  0.1618
39669SOL     OW27974   8.990   3.134   5.970 -0.2064 -0.5851 -0.3106
39669SOL    HW127975   8.955   3.061   6.021  1.1299 -1.7749 -1.0181
39669SOL    HW227976   8.914   3.170   5.925 -0.7167 -2.4737 -1.0566
39670SOL     OW27977  12.396   4.108   9.370 -0.3326 -0.2945  0.0781
39670SOL    HW127978  12.365   4.136   9.456  0.2640  2.7063 -0.5920
39670SOL    HW227979  12.356   4.169   9.308 -0.1833 -1.9260 -1.7390
39671SOL     OW27980   0.674   2.374   4.920  0.0684 -0.0653  0.1538
39671SOL    HW127981   0.721   2.447   4.879 -2.7521  2.2475  0.7512
39671SOL    HW227982   0.683   2.389   5.014 -1.6852  0.3584  0.2790
39672SOL     OW27983   4.565   6.164   2.849 -0.2689  0.5500  0.7205
39672SOL    HW127984   4.537   6.122   2.768  0.2420  2.0932 -0.3117
39672SOL    HW227985   4.646   6.120   2.872 -0.0224  0.5852 -0.0366
39673SOL     OW27986   0.787  10.951   4.308 -0.3734 -0.1002 -0.3929
39673SOL    HW127987   0.731  10.875   4.320 -0.7754  0.3471  0.6727
39673SOL    HW227988   0.834  10.934   4.225 -0.0828 -1.7192  0.0734
39674SOL     OW27989   6.606   1.159   6.145 -0.0208 -0.4024  0.0891
39674SOL    HW127990   6.548   1.233   6.126  0.8293  0.5529  1.0503
39674SOL    HW227991   6.682   1.174   6.089  0.3148 -0.3432  0.5590
39675SOL     OW27992   1.282   4.515   5.563 -0.0215 -0.0017 -0.3794
39675SOL    HW127993   1.349   4.464   5.609 -0.6115 -1.2403 -0.8465
39675SOL    HW227994   1.208   4.455   5.554 -0.8458  1.0307 -0.7281
39676SOL     OW27995   7.031   7.064  12.493  0.1635  0.1371 -0.1676
39676SOL    HW127996   6.988   7.125  12.553  3.7973  3.8347 -0.8236
39676SOL    HW227997   7.103   7.027  12.545  1.4529  0.9813 -1.2814
39677SOL     OW27998   3.768   0.779   6.111  0.1075 -0.3994 -0.7885
39677SOL    HW127999   3.749   0.800   6.202  1.5571 -1.0197 -0.3163
39677SOL    HW228000   3.776   0.683   6.109  2.7843 -0.2426 -0.9585
39678SOL     OW28001   5.203   5.423   2.103  0.4082 -0.2294  0.4797
39678SOL    HW128002   5.227   5.334   2.075 -0.2621 -0.6780  1.2897
39678SOL    HW228003   5.121   5.411   2.151  0.0751  0.8932  0.2153
39679SOL     OW28004   6.464   0.198   6.134  0.0059 -0.1207  0.8486
39679SOL    HW128005   6.464   0.195   6.038  0.4150  1.2837  0.7862
39679SOL    HW228006   6.529   0.265   6.156  1.6034 -1.9802  2.1873
39680SOL     OW28007   2.158   5.420   1.307  0.1320 -0.0034 -0.3728
39680SOL    HW128008   2.086   5.462   1.354  1.1344  2.1594 -0.6492
39680SOL    HW228009   2.133   5.425   1.214  0.2301 -0.0807 -0.4041
39681SOL     OW28010   2.161  12.476   6.981  0.0893 -0.5174  0.1946
39681SOL    HW128011   2.206  12.436   6.906 -2.2458 -0.7255 -1.1875
39681SOL    HW228012   2.075  12.434   6.983 -0.5415  0.7127  1.9776
39682SOL     OW28013   4.566   0.155   7.088 -0.0995 -0.5615  0.0764
39682SOL    HW128014   4.491   0.127   7.139  0.2512 -0.2395  0.7877
39682SOL    HW228015   4.640   0.149   7.148  0.3702 -0.4444 -0.4762
39683SOL     OW28016  11.082   5.364   0.558  0.1302 -0.4583 -0.2207
39683SOL    HW128017  11.031   5.339   0.481 -1.3478 -0.1406  0.6361
39683SOL    HW228018  11.056   5.303   0.626  0.5812 -0.0225  0.3562
39684SOL     OW28019   9.108   8.609   5.770  0.6136 -0.5601 -0.2573
39684SOL    HW128020   9.097   8.539   5.835  0.3755 -1.1924 -0.9695
39684SOL    HW228021   9.103   8.690   5.822  1.7683 -1.0650  0.7050
39685SOL     OW28022   1.860  11.513  11.090  0.4082 -0.3494  0.6209
39685SOL    HW128023   1.860  11.572  11.165  0.1488  0.2714  0.1377
39685SOL    HW228024   1.871  11.426  11.129  0.0361 -0.0623  1.3956
39686SOL     OW28025  10.597  11.520   6.180  0.0452 -0.0184  0.5539
39686SOL    HW128026  10.665  11.454   6.169  0.1896  0.2953 -0.5895
39686SOL    HW228027  10.568  11.540   6.090 -1.2286  0.1839  0.9931
39687SOL     OW28028   3.245   7.959   2.293  0.4896 -0.3997  0.5192
39687SOL    HW128029   3.180   7.980   2.361 -0.5513 -0.2633 -0.4849
39687SOL    HW228030   3.242   8.033   2.233  1.2327 -0.6210  0.1972
39688SOL     OW28031   1.262   7.028   8.940  0.0737 -0.4360  0.2194
39688SOL    HW128032   1.268   6.937   8.909 -0.3909 -0.3003 -0.2957
39688SOL    HW228033   1.175   7.057   8.911  0.7764  0.6439 -0.9360
39689SOL     OW28034  11.060   0.946   7.232  0.2067 -0.0107 -0.0360
39689SOL    HW128035  10.997   0.906   7.293  0.1156  0.9430  0.5091
39689SOL    HW228036  11.121   0.875   7.211  1.2288  0.0239  2.4822
39690SOL     OW28037   5.984   9.391   1.116  0.4684 -0.6905  0.0917
39690SOL    HW128038   6.007   9.326   1.182  1.0586  0.1543  0.7413
39690SOL    HW228039   6.006   9.475   1.156  1.2743 -0.1695 -1.3391
39691SOL     OW28040   9.038   2.306   8.967 -0.2231 -0.3598  0.5688
39691SOL    HW128041   9.129   2.275   8.970 -0.4460 -1.0016  0.7645
39691SOL    HW228042   8.999   2.261   8.893 -1.0409 -1.9525  1.9023
39692SOL     OW28043  11.700   1.968   7.186  0.9645  0.3584  0.0455
39692SOL    HW128044  11.715   1.904   7.256 -1.2319 -0.9809 -0.6032
39692SOL    HW228045  11.700   1.917   7.106 -0.1762  1.2711 -0.5646
39693SOL     OW28046  12.505   6.657  11.957  0.4795  0.0374 -0.3651
39693SOL    HW128047  12.489   6.662  11.863  1.6259 -2.0138 -0.7151
39693SOL    HW228048  12.424   6.621  11.993 -0.2615  1.5688 -0.4199
39694SOL     OW28049   7.393   3.481   7.230  0.2582 -0.2138  0.0063
39694SOL    HW128050   7.444   3.423   7.287  2.0076 -0.0165 -1.2418
39694SOL    HW228051   7.383   3.431   7.149  1.5726  1.0366 -1.0002
39695SOL     OW28052   2.674   3.182   4.889  0.3755  0.2720 -0.5556
39695SOL    HW128053   2.676   3.087   4.881 -0.2937  0.1137  0.8815
39695SOL    HW228054   2.581   3.204   4.894  0.5206  1.0077 -0.9080
39696SOL     OW28055  10.129   8.779   4.006  0.0549  0.3968 -0.0861
39696SOL    HW128056  10.223   8.767   3.993 -0.0036  0.6295 -0.8169
39696SOL    HW228057  10.090   8.753   3.922 -0.4282  1.4204 -0.1913
39697SOL     OW28058  11.541   6.341   6.120 -0.9864 -0.2861  0.0670
39697SOL    HW128059  11.587   6.424   6.104  0.1893 -1.0673 -0.6865
39697SOL    HW228060  11.489   6.358   6.199 -0.9653  1.2431 -0.2188
39698SOL     OW28061  12.020   7.675   5.962  0.6340 -0.0682  0.5337
39698SOL    HW128062  12.061   7.756   5.931  0.8069 -0.3437  0.0533
39698SOL    HW228063  11.928   7.683   5.935  0.3509  0.5468  1.6068
39699SOL     OW28064   7.601  11.205   7.843  0.5215 -0.3435 -0.1291
39699SOL    HW128065   7.684  11.254   7.847  0.5703 -0.2431 -1.8736
39699SOL    HW228066   7.559  11.225   7.927  2.1204 -0.1685  0.6831
39700SOL     OW28067  10.748   0.532   0.955  0.1212 -0.0512 -0.1165
39700SOL    HW128068  10.778   0.561   1.041 -1.2601 -0.9103  0.6750
39700SOL    HW228069  10.799   0.452   0.938  1.3113  0.8001 -0.6935
39701SOL     OW28070  12.588   4.737   6.271  0.1089 -0.3883  0.7103
39701SOL    HW128071  12.505   4.729   6.317 -0.6376 -1.1790 -0.6825
39701SOL    HW228072  12.628   4.651   6.278  1.5130  0.3637  2.5606
39702SOL     OW28073  12.277   4.793   3.728 -0.3117  0.4073 -0.3743
39702SOL    HW128074  12.192   4.773   3.689 -0.2289  1.0736 -0.9053
39702SOL    HW228075  12.322   4.846   3.662  0.1128  0.9313  0.3216
39703SOL     OW28076   2.959   5.991   5.610  0.0345 -0.2551  0.1970
39703SOL    HW128077   2.937   6.053   5.540  1.6234 -1.1662 -1.2141
39703SOL    HW228078   2.879   5.941   5.625 -0.9752  1.4309  0.6402
39704SOL     OW28079   2.069  11.092   6.791 -0.2095  0.3252  0.1781
39704SOL    HW128080   1.992  11.098   6.848 -1.3620  0.0773 -1.3043
39704SOL    HW228081   2.124  11.025   6.833 -0.3031  1.2025  1.7879
39705SOL     OW28082   3.473   0.737  10.265 -0.3372 -0.4068  0.2905
39705SOL    HW128083   3.507   0.741  10.355  0.9334  0.8959 -0.1981
39705SOL    HW228084   3.378   0.733  10.276 -0.1479 -3.5737  1.7219
39706SOL     OW28085   7.964   1.560   6.050 -0.1152 -0.5549  0.4005
39706SOL    HW128086   8.026   1.488   6.040 -0.9446 -1.2976  0.5701
39706SOL    HW228087   7.891   1.538   5.993 -1.2124 -0.7900  1.8186
39707SOL     OW28088   9.334   5.753   4.375  0.6071  0.4708  0.2815
39707SOL    HW128089   9.384   5.780   4.452  0.4410  0.2582  0.4668
39707SOL    HW228090   9.248   5.794   4.386  0.7253  0.8067 -0.0175
39708SOL     OW28091   0.408   8.416  12.237  0.1788  0.0636 -0.3264
39708SOL    HW128092   0.349   8.476  12.283  0.2766 -0.5616  0.6441
39708SOL    HW228093   0.390   8.432  12.144 -1.3320  0.0795 -0.0660
39709SOL     OW28094  11.923   7.639   1.768  0.1918 -0.1783 -0.3437
39709SOL    HW128095  11.846   7.599   1.728 -0.2230 -0.3460  0.5820
39709SOL    HW228096  11.995   7.580   1.746  0.0711  0.0062 -1.2626
39710SOL     OW28097  10.274   9.744  12.347 -0.2177 -0.1190  0.2231
39710SOL    HW128098  10.234   9.828  12.368  2.2736  1.3621 -0.5499
39710SOL    HW228099  10.311   9.714  12.430 -2.3041 -1.2595  0.8304
39711SOL     OW28100   2.539  10.865   4.387  0.1948  0.2094 -0.0025
39711SOL    HW128101   2.486  10.938   4.419  0.2985 -0.0171  0.6996
39711SOL    HW228102   2.586  10.900   4.312  0.4189  0.9361  0.4710
39712SOL     OW28103  10.544  11.556  10.750 -0.2610 -0.3520 -0.2260
39712SOL    HW128104  10.578  11.621  10.811 -0.5480  0.2214 -0.6684
39712SOL    HW228105  10.622  11.521  10.707 -0.1305 -0.0096 -0.2742
39713SOL     OW28106   0.595   2.577   3.331 -0.4650  0.1349  0.3398
39713SOL    HW128107   0.612   2.575   3.425 -0.0473  1.8843  0.3457
39713SOL    HW228108   0.572   2.669   3.313 -1.9992 -0.4763 -1.0322
39714SOL     OW28109   5.324  11.634   5.360 -0.2844  0.0020 -0.2543
39714SOL    HW128110   5.253  11.660   5.302 -1.0162 -2.9476 -0.8595
39714SOL    HW228111   5.394  11.605   5.301 -0.4839 -1.6473  0.2604
39715SOL     OW28112   8.280   4.866   1.437  0.1987 -0.2504  0.6411
39715SOL    HW128113   8.375   4.859   1.438  0.1460 -1.7024 -0.6758
39715SOL    HW228114   8.262   4.958   1.458  1.8767  0.0380  0.9178
39716SOL     OW28115   0.655   8.794   4.069  0.2386  0.3007  0.0008
39716SOL    HW128116   0.633   8.702   4.078  0.1327  0.2869 -0.3817
39716SOL    HW228117   0.719   8.797   3.997  1.2800  0.3716  0.9071
39717SOL     OW28118  11.137   3.869   3.746  0.0867  0.0499  0.3806
39717SOL    HW128119  11.174   3.955   3.725 -0.2701  0.3594  0.9706
39717SOL    HW228120  11.145   3.819   3.665  1.2345  0.3021  0.3241
39718SOL     OW28121   3.612   8.231   6.426 -0.0208  0.1634 -0.1023
39718SOL    HW128122   3.526   8.193   6.406  0.7762 -0.2949 -3.1351
39718SOL    HW228123   3.641   8.269   6.343  1.6724  2.5285  1.4369
39719SOL     OW28124  11.722   1.943   8.657  0.0908  0.5088 -0.9255
39719SOL    HW128125  11.796   1.883   8.657 -0.6808 -0.4809 -0.9567
39719SOL    HW228126  11.760   2.029   8.673  1.0233 -0.2471  1.2592
39720SOL     OW28127   2.440   3.048  11.992 -0.2806  0.7218  0.2643
39720SOL    HW128128   2.359   3.005  12.019 -0.2475  0.0199 -0.7296
39720SOL    HW228129   2.462   3.105  12.066 -1.6152  0.8452  0.5985
39721SOL     OW28130   1.135   5.364   9.431 -0.4393 -0.0566  0.2757
39721SOL    HW128131   1.095   5.277   9.433  0.0217 -0.2838 -0.2016
39721SOL    HW228132   1.105   5.406   9.512 -2.9012  0.3656 -0.7721
39722SOL     OW28133   6.636   7.347   0.139 -0.1128 -1.1243 -0.2797
39722SOL    HW128134   6.670   7.315   0.222 -3.3106  1.0092  2.1370
39722SOL    HW228135   6.659   7.440   0.138 -0.8239 -0.9409 -1.3941
39723SOL     OW28136   9.190   3.391   3.671  0.2038 -0.5938 -0.0689
39723SOL    HW128137   9.189   3.367   3.578 -1.1087  0.7552 -0.4631
39723SOL    HW228138   9.281   3.384   3.697  0.6265 -0.8467 -1.5177
39724SOL     OW28139   0.918   1.475  11.600  0.0087  0.0374 -0.4040
39724SOL    HW128140   0.941   1.526  11.678 -0.2074 -0.5497  0.0607
39724SOL    HW228141   0.998   1.471  11.548 -0.5538  2.8392 -1.6342
39725SOL     OW28142   5.619   8.283  11.533  0.2858  0.0415 -0.1119
39725SOL    HW128143   5.687   8.241  11.586 -0.7128 -1.8690 -0.2554
39725SOL    HW228144   5.625   8.239  11.448 -0.6331  0.3723 -0.3567
39726SOL     OW28145   9.285   2.276  12.127 -0.0540 -0.1813  0.4803
39726SOL    HW128146   9.263   2.368  12.111  0.5065 -0.2246 -0.6077
39726SOL    HW228147   9.370   2.264  12.084 -0.6576 -1.5053 -0.3754
39727SOL     OW28148   2.885   0.370  11.173  0.5163 -0.1420 -0.2892
39727SOL    HW128149   2.820   0.440  11.164  0.4842 -0.2139 -0.6426
39727SOL    HW228150   2.864   0.329  11.257  0.1582 -0.1082 -0.3579
39728SOL     OW28151   9.045  10.416   0.887 -0.1689  0.4638  0.1504
39728SOL    HW128152   9.055  10.427   0.792 -0.2432 -1.3709 -0.1120
39728SOL    HW228153   9.023  10.503   0.919 -0.9065  0.9850 -1.6232
39729SOL     OW28154   2.238   8.994   4.233  0.0075  0.3736  0.7961
39729SOL    HW128155   2.200   9.028   4.152  1.0984  0.6735  0.4078
39729SOL    HW228156   2.196   8.908   4.244 -1.6031  1.1388  0.9683
39730SOL     OW28157  10.838   1.369  10.663  0.3396  0.0549 -0.3998
39730SOL    HW128158  10.925   1.363  10.702 -0.0738 -0.8856  0.4258
39730SOL    HW228159  10.822   1.282  10.626  1.0791  1.1083 -3.5849
39731SOL     OW28160   1.378   1.141   3.905 -0.1196 -0.2616  0.2158
39731SOL    HW128161   1.384   1.051   3.938 -0.8326  0.1575  1.5716
39731SOL    HW228162   1.422   1.194   3.971  0.6012  0.3805 -0.7402
39732SOL     OW28163   3.370   8.608   6.795  0.5974  0.2935 -0.0735
39732SOL    HW128164   3.426   8.597   6.871  0.8008  0.8029 -0.1471
39732SOL    HW228165   3.377   8.701   6.772  0.9662  0.0428 -1.0373
39733SOL     OW28166   1.655   5.451   8.782  0.2399  0.0027 -0.1288
39733SOL    HW128167   1.694   5.374   8.825 -0.2172  0.8381  1.8499
39733SOL    HW228168   1.668   5.523   8.844 -1.5779  1.0040 -0.8387
39734SOL     OW28169   9.158   7.547  12.014  0.2279  0.2379  0.4669
39734SOL    HW128170   9.204   7.484  12.070 -3.2540 -0.4691  2.8641
39734SOL    HW228171   9.111   7.492  11.950  0.2068  0.6951  0.0850
39735SOL     OW28172  10.563   2.904   0.634  0.5490 -0.2455 -0.3147
39735SOL    HW128173  10.587   2.996   0.624  0.7280 -0.1859  0.5987
39735SOL    HW228174  10.615   2.858   0.567  0.3936  0.3157 -0.8309
39736SOL     OW28175   0.036   9.556   4.658 -0.2346  0.1502  0.2499
39736SOL    HW128176  -0.056   9.562   4.683 -0.1344  1.3144  0.3885
39736SOL    HW228177   0.066   9.647   4.656  0.4740 -0.0903 -1.4709
39737SOL     OW28178   4.046   1.587   8.613 -0.1904  0.1140 -0.7586
39737SOL    HW128179   4.006   1.501   8.624  0.2664  0.1482  1.5730
39737SOL    HW228180   3.972   1.645   8.591 -0.9861 -0.3400  0.6183
39738SOL     OW28181  10.659   4.005   5.085 -0.2087 -0.3146  0.6340
39738SOL    HW128182  10.570   4.000   5.119 -0.2916  0.7378  0.5870
39738SOL    HW228183  10.652   4.060   5.007  0.4870 -0.2053  0.6423
39739SOL     OW28184   9.643   1.165   7.491  0.0376 -0.7804 -0.6917
39739SOL    HW128185   9.647   1.149   7.585 -2.2541 -0.9625 -0.5702
39739SOL    HW228186   9.721   1.217   7.472 -0.3382  0.7615  1.6327
39740SOL     OW28187   6.218   5.823  10.493 -0.6866 -0.2625  0.1808
39740SOL    HW128188   6.255   5.741  10.460 -1.6172 -0.0143 -1.6215
39740SOL    HW228189   6.240   5.888  10.426 -2.2679  0.3838  0.2385
39741SOL     OW28190   2.796   8.487  11.067  0.0393  0.7324  0.3927
39741SOL    HW128191   2.747   8.420  11.115 -0.4311 -0.0275 -1.0799
39741SOL    HW228192   2.866   8.513  11.127 -0.3163 -0.4176  1.3541
39742SOL     OW28193  10.142   5.848  11.024  0.4940  0.1795  0.0065
39742SOL    HW128194  10.102   5.880  10.943 -1.7115 -0.2063  0.8582
39742SOL    HW228195  10.200   5.918  11.052  1.1030  0.4221 -1.7609
39743SOL     OW28196   1.548   0.747   1.212  0.0838  0.0025  0.2596
39743SOL    HW128197   1.491   0.823   1.202  0.4937  0.3762  0.7031
39743SOL    HW228198   1.629   0.772   1.167 -0.3528 -0.8230 -1.0381
39744SOL     OW28199   4.911   1.308   2.077  0.5050 -0.0491  0.1529
39744SOL    HW128200   4.969   1.377   2.106  0.4347 -0.0293  0.2486
39744SOL    HW228201   4.969   1.239   2.043  0.5741  0.0537  0.0632
39745SOL     OW28202  10.653   8.427   5.340  0.5205  0.1072  0.1056
39745SOL    HW128203  10.623   8.511   5.307 -0.7988 -1.2467 -2.4887
39745SOL    HW228204  10.610   8.362   5.283  0.8501 -2.3560  2.4450
39746SOL     OW28205  11.300   5.398   9.485 -0.0083  0.2944 -0.5661
39746SOL    HW128206  11.262   5.380   9.399  0.1470  1.1409 -0.8213
39746SOL    HW228207  11.247   5.469   9.520  2.3906  2.8707 -1.7395
39747SOL     OW28208   0.913   1.331   2.357  0.0647 -0.2864 -0.5817
39747SOL    HW128209   0.962   1.335   2.275 -0.1695  0.2073 -0.6994
39747SOL    HW228210   0.912   1.421   2.389 -0.4594 -0.3521 -0.4042
39748SOL     OW28211   3.846   9.230   7.865 -0.3873  0.3647  0.0059
39748SOL    HW128212   3.862   9.286   7.941  1.5911 -1.7802  1.3081
39748SOL    HW228213   3.924   9.243   7.810  1.1614 -2.4467  1.3196
39749SOL     OW28214   4.495   2.819   1.947  0.5855  0.1645 -0.3874
39749SOL    HW128215   4.551   2.889   1.914 -0.1204  1.3177  0.7873
39749SOL    HW228216   4.519   2.811   2.039 -0.9112  0.4335  0.0527
39750SOL     OW28217  12.536   6.631  10.982 -0.4283 -0.1043 -0.5355
39750SOL    HW128218  12.551   6.701  10.919  0.8344  0.4945  0.3897
39750SOL    HW228219  12.622   6.592  10.995 -0.9379 -1.1918 -0.2752
39751SOL     OW28220   6.909   2.283   9.517  0.1880 -0.8017  0.0046
39751SOL    HW128221   6.920   2.228   9.594 -0.4093 -1.1516 -0.1556
39751SOL    HW228222   6.842   2.347   9.542 -0.6523 -1.4550 -0.4986
39752SOL     OW28223  10.794  12.539   1.335  0.2484  0.1872  0.4279
39752SOL    HW128224  10.779  12.623   1.378  2.2131  1.6186 -1.5004
39752SOL    HW228225  10.808  12.477   1.406  1.2766  2.0237  1.8933
39753SOL     OW28226   5.785   4.030  11.730  0.6231  0.5274  0.4437
39753SOL    HW128227   5.763   4.096  11.796  2.0585 -0.2392  1.7591
39753SOL    HW228228   5.721   3.961  11.743  0.8248  0.4356  0.9707
39754SOL     OW28229  11.500   6.225   9.089  0.3133 -0.2902  0.2756
39754SOL    HW128230  11.451   6.145   9.068  0.5546 -0.2503 -0.4438
39754SOL    HW228231  11.504   6.226   9.185 -1.2476 -0.1990  0.3634
39755SOL     OW28232   5.367  11.406  12.267  0.7369  0.5460  0.0838
39755SOL    HW128233   5.361  11.473  12.199  0.0693  2.0565  1.5617
39755SOL    HW228234   5.386  11.455  12.347  2.5981 -1.2635  0.8421
39756SOL     OW28235   8.035   0.256   1.199  0.0558 -0.1267  0.8608
39756SOL    HW128236   7.945   0.232   1.221  0.0565 -0.7287  0.2412
39756SOL    HW228237   8.054   0.206   1.120  1.4381 -1.1432  1.7915
39757SOL     OW28238   4.865   5.260   4.289 -0.3441 -0.5044 -0.3863
39757SOL    HW128239   4.849   5.175   4.247 -0.6659 -0.5338 -0.2047
39757SOL    HW228240   4.779   5.290   4.315 -0.0803 -0.7989  0.8606
39758SOL     OW28241   9.793   6.829  11.410 -0.6725 -0.0735  0.5693
39758SOL    HW128242   9.802   6.797  11.321  1.1977  1.0315  0.3166
39758SOL    HW228243   9.700   6.818  11.430 -0.9246 -1.3344 -1.1113
39759SOL     OW28244   9.154   5.971   7.946 -0.1489  0.0044 -0.2530
39759SOL    HW128245   9.175   5.916   8.021  2.1105  0.6326 -0.3292
39759SOL    HW228246   9.078   6.022   7.974  0.3387 -0.1224  1.4432
39760SOL     OW28247   0.254   8.258   4.198  0.5766 -0.3535 -0.2299
39760SOL    HW128248   0.334   8.311   4.203 -1.3661  2.7580  1.6295
39760SOL    HW228249   0.277   8.175   4.238  3.2605 -0.1882 -1.2558
39761SOL     OW28250   8.689   9.578   4.640 -0.4688 -0.1745 -0.7800
39761SOL    HW128251   8.754   9.646   4.620 -0.7233  0.7848  1.4146
39761SOL    HW228252   8.679   9.581   4.735 -3.7572 -0.2738 -1.0160
39762SOL     OW28253   6.457  10.074  10.392 -0.6933  0.2338  0.2525
39762SOL    HW128254   6.383  10.078  10.453  0.3728  1.5048  1.5129
39762SOL    HW228255   6.475   9.980  10.382 -0.5006  0.0040  2.3953
39763SOL     OW28256  11.747   6.286   0.365  0.1876 -0.5110 -0.8343
39763SOL    HW128257  11.699   6.308   0.445 -3.7822  0.2397 -3.1299
39763SOL    HW228258  11.812   6.356   0.356 -2.0003  1.7563 -0.2137
39764SOL     OW28259   6.154   2.015   4.608  0.0535  0.5731  0.2245
39764SOL    HW128260   6.240   1.988   4.577 -0.3407  0.0598 -0.4407
39764SOL    HW228261   6.171   2.057   4.692  0.9601  0.5505  0.0603
39765SOL     OW28262   9.627   7.896  10.671 -0.1566  0.5552  0.7031
39765SOL    HW128263   9.551   7.928  10.622  1.5421  1.5691 -1.4450
39765SOL    HW228264   9.653   7.816  10.626 -1.4673 -1.3572  3.0971
39766SOL     OW28265  10.445   2.015   9.624 -0.2436  0.6766  0.4128
39766SOL    HW128266  10.493   2.084   9.671 -1.0148  1.6068 -0.1266
39766SOL    HW228267  10.365   2.058   9.594  0.2895  0.1537 -1.8924
39767SOL     OW28268   1.365   6.602   2.933  0.1173 -0.1273 -0.1608
39767SOL    HW128269   1.437   6.597   2.871 -1.5595  1.2182 -2.3897
39767SOL    HW228270   1.345   6.695   2.941  0.0461 -0.2708  2.2174
39768SOL     OW28271  11.027   1.659  11.961 -0.4565  0.2556 -0.8184
39768SOL    HW128272  10.994   1.665  12.050 -0.3666 -3.5666 -0.3711
39768SOL    HW228273  10.951   1.675  11.905 -0.9665  0.6513 -0.0266
39769SOL     OW28274   6.616   3.859   6.394  0.1880  0.5607 -0.4112
39769SOL    HW128275   6.623   3.842   6.300 -1.1307  0.0310 -0.4290
39769SOL    HW228276   6.537   3.912   6.403 -1.8275 -2.3783  0.7024
39770SOL     OW28277   7.563  10.138   9.867 -0.1128  0.0601  0.3398
39770SOL    HW128278   7.578  10.074   9.936 -1.7486 -0.0633  0.6209
39770SOL    HW228279   7.493  10.194   9.901 -2.3890 -1.1801 -1.8791
39771SOL     OW28280   5.946   1.607   6.810  0.6078  0.4128  0.3697
39771SOL    HW128281   5.962   1.514   6.827  0.0023 -0.0661 -1.4388
39771SOL    HW228282   5.853   1.619   6.832  0.1726  0.1013 -1.1908
39772SOL     OW28283  11.100   8.347   1.072  0.5270  0.4201  0.3590
39772SOL    HW128284  11.020   8.295   1.064  1.1058 -0.2893 -0.9942
39772SOL    HW228285  11.162   8.306   1.013  1.8009  1.1809  1.1252
39773SOL     OW28286   2.162  11.545   7.035  0.5072 -0.3132  0.2998
39773SOL    HW128287   2.167  11.450   7.048 -0.5782 -0.4441 -0.0884
39773SOL    HW228288   2.218  11.562   6.960 -0.5534 -0.9034 -0.6605
39774SOL     OW28289   9.833   4.481   9.870 -0.2151  0.3467  0.1298
39774SOL    HW128290   9.862   4.570   9.848 -1.1928  1.0614  1.5698
39774SOL    HW228291   9.749   4.493   9.915 -1.0849 -1.4180 -0.8764
39775SOL     OW28292   0.697   1.116  10.536  0.1525 -0.3165  0.3127
39775SOL    HW128293   0.705   1.159  10.452  1.4592 -1.7461 -0.3366
39775SOL    HW228294   0.687   1.187  10.599 -2.9869  0.7601 -1.1850
39776SOL     OW28295   9.974   1.399   0.999  0.4234 -0.4344  0.3297
39776SOL    HW128296   9.930   1.314   1.000  0.5549 -0.6602 -2.7164
39776SOL    HW228297  10.060   1.382   1.036  0.5411 -1.7286 -0.4810
39777SOL     OW28298   9.720  10.709   7.657  0.3886 -0.1304 -0.1344
39777SOL    HW128299   9.798  10.756   7.626 -0.8787  2.4847  0.3218
39777SOL    HW228300   9.724  10.716   7.753  0.4605 -1.5676 -0.0050
39778SOL     OW28301   4.937   2.022   6.023  0.0105  0.3758 -0.2402
39778SOL    HW128302   4.900   2.108   6.001  0.9786  1.1165  0.8667
39778SOL    HW228303   5.032   2.035   6.014  0.2859 -0.0336  1.6510
39779SOL     OW28304   8.576   6.628  11.930 -0.5080  0.1968  0.1444
39779SOL    HW128305   8.578   6.547  11.983  2.8553 -1.1708 -1.7375
39779SOL    HW228306   8.523   6.606  11.854  2.2143 -1.1993 -1.4840
39780SOL     OW28307  11.338   3.553   6.818 -0.3523 -0.0135  0.0939
39780SOL    HW128308  11.263   3.569   6.761  0.0503 -1.4898 -0.9033
39780SOL    HW228309  11.396   3.498   6.766  0.5096 -0.5692  1.5858
39781SOL     OW28310   0.679   7.188   2.102  0.4146  0.0937 -0.3240
39781SOL    HW128311   0.721   7.104   2.117 -0.8022 -0.5066 -0.1680
39781SOL    HW228312   0.586   7.168   2.095 -0.0734  1.5965  1.1766
39782SOL     OW28313   5.965   4.195   2.249  0.0952 -0.7837  0.4881
39782SOL    HW128314   5.925   4.213   2.164  0.6604  0.1788  0.4139
39782SOL    HW228315   6.027   4.267   2.262  0.4452 -1.2442  1.4447
39783SOL     OW28316   9.220   2.234   5.410 -0.1114 -0.3080  0.0288
39783SOL    HW128317   9.160   2.251   5.338 -0.0282 -1.4279 -0.3142
39783SOL    HW228318   9.208   2.309   5.469 -0.6303  0.3055 -0.8320
39784SOL     OW28319   4.035  11.733   9.195  0.3845  0.3285 -0.3183
39784SOL    HW128320   3.994  11.813   9.162 -0.4672 -0.2376 -0.6694
39784SOL    HW228321   3.969  11.665   9.182  1.9791 -0.9651 -2.4882
39785SOL     OW28322  10.687  10.254   5.559  0.0746  0.2650  0.3190
39785SOL    HW128323  10.614  10.197   5.534  0.3313  0.2639 -0.4433
39785SOL    HW228324  10.668  10.338   5.518  0.2634  0.4060  0.5177
39786SOL     OW28325   3.576   1.843   0.999 -0.4034  0.0163  0.2878
39786SOL    HW128326   3.671   1.845   0.982 -0.5369  1.0144 -0.4255
39786SOL    HW228327   3.542   1.778   0.938 -0.2262 -0.0781  0.2875
39787SOL     OW28328  11.584   0.604  11.535  0.3488 -0.0399  0.0269
39787SOL    HW128329  11.628   0.561  11.609 -0.4408  0.0878  0.5837
39787SOL    HW228330  11.535   0.676  11.575 -1.7857 -1.2180 -0.3079
39788SOL     OW28331   0.625   4.976  11.101 -0.2781 -0.3228 -0.2663
39788SOL    HW128332   0.702   4.931  11.067  0.6256  0.6231  0.4662
39788SOL    HW228333   0.583   4.912  11.158  0.5317 -0.5190  0.1220
39789SOL     OW28334  12.017   3.975   2.369 -0.0445 -0.1833  0.7339
39789SOL    HW128335  11.940   3.975   2.311  0.0762  0.4207  0.5660
39789SOL    HW228336  11.984   3.942   2.453 -0.0300 -1.9375  0.0944
39790SOL     OW28337  12.175   9.504  10.050  0.2567 -0.5227 -0.6880
39790SOL    HW128338  12.210   9.546  10.129  0.2131 -1.5405 -0.1101
39790SOL    HW228339  12.156   9.577   9.991  0.4934  0.2469  0.1545
39791SOL     OW28340   6.139  11.252   1.923 -0.3525  0.4999  0.2338
39791SOL    HW128341   6.076  11.276   1.990 -0.6034  1.2066 -0.2413
39791SOL    HW228342   6.172  11.166   1.950 -0.8810  0.5132  0.9371
39792SOL     OW28343   9.557   4.577   3.304 -0.1337  0.6810  0.3316
39792SOL    HW128344   9.542   4.515   3.376 -0.2462 -1.5349 -1.5054
39792SOL    HW228345   9.652   4.578   3.294 -0.2243 -1.2143 -1.2306
39793SOL     OW28346  11.509   5.918   6.844 -0.5331  0.5136 -0.0144
39793SOL    HW128347  11.417   5.909   6.820 -0.7500  0.1999  0.8913
39793SOL    HW228348  11.523   6.012   6.854 -1.0816  0.4944  1.0461
39794SOL     OW28349   1.257   1.979   6.004  0.1340 -0.1126  0.1333
39794SOL    HW128350   1.224   1.919   5.937 -1.0416  2.5152 -1.8023
39794SOL    HW228351   1.233   1.937   6.087 -1.5002 -1.8490 -1.1290
39795SOL     OW28352   4.790   1.415   9.150  0.1679  0.0726  0.1138
39795SOL    HW128353   4.835   1.331   9.161 -0.1746 -0.2956 -1.1648
39795SOL    HW228354   4.703   1.400   9.186  0.0599 -0.1675 -0.2448
39796SOL     OW28355   0.179   7.814   0.842  0.4419  0.3121  0.5825
39796SOL    HW128356   0.115   7.864   0.893  0.4067  1.4186 -0.5110
39796SOL    HW228357   0.132   7.734   0.816 -0.7006  1.3306 -0.6350
39797SOL     OW28358   2.647   6.475   7.017 -0.3017  0.4554  0.1604
39797SOL    HW128359   2.614   6.487   6.928 -0.6940  1.3580  0.4185
39797SOL    HW228360   2.736   6.510   7.015 -0.3146  0.4865  0.1262
39798SOL     OW28361  10.371   8.910   0.935  1.0144 -0.2099  0.0748
39798SOL    HW128362  10.394   8.894   1.026  1.1147  0.4488  0.1709
39798SOL    HW228363  10.334   8.827   0.905  0.9493 -0.4225  0.7226
39799SOL     OW28364   3.406   8.884   6.739 -0.2568  0.1576  0.2501
39799SOL    HW128365   3.388   8.955   6.801  1.2367  1.3984 -0.6739
39799SOL    HW228366   3.498   8.895   6.715  0.3783 -2.8306  0.9444
39800SOL     OW28367   1.040  10.000   4.047  0.0930 -0.3717 -0.5196
39800SOL    HW128368   1.057  10.050   3.967 -1.2862  0.8568 -0.0904
39800SOL    HW228369   1.108  10.028   4.108  0.8369 -0.9285 -1.0683
39801SOL     OW28370   3.365   8.836  12.075 -0.5395 -0.5764  0.4414
39801SOL    HW128371   3.352   8.803  12.164  0.0797  2.8932  1.9923
39801SOL    HW228372   3.282   8.879  12.053 -0.5426 -1.0465 -0.5165
39802SOL     OW28373  11.746   4.168   0.340 -0.1395 -0.1150  0.3864
39802SOL    HW128374  11.752   4.262   0.357 -0.2545  0.0222 -0.2836
39802SOL    HW228375  11.665   4.141   0.383 -0.0132  0.0557  0.7321
39803SOL     OW28376   9.938   9.197   9.262 -0.4110  0.0861  0.1480
39803SOL    HW128377   9.966   9.270   9.206  0.5914 -0.1405  0.3382
39803SOL    HW228378   9.941   9.232   9.351 -1.6875  0.3462  0.1077
39804SOL     OW28379   2.494   8.237   9.988  0.1861 -0.0570  0.0612
39804SOL    HW128380   2.500   8.199  10.076  0.9133  1.3235  0.6371
39804SOL    HW228381   2.400   8.237   9.969  0.0294 -0.4807  0.7952
39805SOL     OW28382   9.352   5.152  11.947 -0.6714  0.0461  0.1224
39805SOL    HW128383   9.369   5.130  11.855 -0.3263  0.2334  0.1372
39805SOL    HW228384   9.319   5.071  11.985 -1.3937  0.1359 -0.3072
39806SOL     OW28385   3.507   6.833   0.851 -0.1075  0.1261 -0.1141
39806SOL    HW128386   3.590   6.832   0.900 -0.2097 -0.3838  0.0568
39806SOL    HW228387   3.453   6.767   0.894 -1.2822  1.6931  0.9141
39807SOL     OW28388   9.606   9.635   1.686 -0.6809  0.1331  0.3345
39807SOL    HW128389   9.586   9.725   1.660  2.7623  1.2397  0.9552
39807SOL    HW228390   9.613   9.639   1.782 -2.0083 -1.2314  0.5329
39808SOL     OW28391   0.615   6.200   4.148  0.4902 -0.2703 -0.8763
39808SOL    HW128392   0.562   6.123   4.125  0.3122 -0.6861  0.8174
39808SOL    HW228393   0.646   6.182   4.236  0.8060  1.4264 -0.6105
39809SOL     OW28394   5.012   4.537   3.809 -0.6015 -0.1540 -0.3936
39809SOL    HW128395   4.978   4.499   3.891 -1.5398 -0.3026 -0.8466
39809SOL    HW228396   4.949   4.511   3.742 -1.3868  2.3496 -0.7243
39810SOL     OW28397   7.163  10.388   0.932 -0.4111  0.1640 -0.0622
39810SOL    HW128398   7.094  10.454   0.935 -1.2808 -0.7281  0.2919
39810SOL    HW228399   7.153  10.339   1.014  1.1024  0.4470  0.3237
39811SOL     OW28400   3.556   3.112   0.676  0.6494 -0.9954  0.2734
39811SOL    HW128401   3.495   3.170   0.721  1.1096  0.2204 -0.6269
39811SOL    HW228402   3.624   3.093   0.741  0.7961 -0.0605  0.4039
39812SOL     OW28403  11.914   2.995   0.204  0.2612 -0.1220 -0.6757
39812SOL    HW128404  11.823   2.966   0.203  0.4158 -0.8199  1.1783
39812SOL    HW228405  11.951   2.963   0.122 -1.4050  1.0862 -1.9668
39813SOL     OW28406   0.059   9.045  10.990  0.4745  0.2420  0.1508
39813SOL    HW128407   0.016   9.063  10.906  0.6307 -0.6853 -0.1346
39813SOL    HW228408   0.151   9.033  10.968  0.4721 -0.2826  0.4116
39814SOL     OW28409   2.216   8.599   6.154 -0.2333 -0.3152  0.8606
39814SOL    HW128410   2.179   8.564   6.073 -0.8579  0.0013  1.0023
39814SOL    HW228411   2.309   8.612   6.135 -0.9405  3.3113 -1.1194
39815SOL     OW28412   6.946   1.224   3.531  0.3905  0.2864  0.7001
39815SOL    HW128413   6.853   1.211   3.545  0.3209  1.0587  1.0386
39815SOL    HW228414   6.960   1.208   3.438  0.1809 -1.2285  0.9083
39816SOL     OW28415   0.347   9.313   9.727  0.5620 -0.2914  0.0178
39816SOL    HW128416   0.351   9.406   9.752 -2.0733 -0.1165  0.1275
39816SOL    HW228417   0.394   9.309   9.644  1.9691  0.8327  0.7211
39817SOL     OW28418   5.734   0.246   5.845 -0.4213 -0.0492  0.1448
39817SOL    HW128419   5.653   0.237   5.896 -0.7581  1.1605 -0.1599
39817SOL    HW228420   5.706   0.241   5.754 -0.1466  0.3076  0.0387
39818SOL     OW28421  10.930   4.689   1.299 -0.3398  0.2371  0.6485
39818SOL    HW128422  10.957   4.598   1.284 -0.6459  0.4933 -1.7566
39818SOL    HW228423  11.011   4.739   1.296 -0.3754  0.2599  0.0279
39819SOL     OW28424   2.069  10.148   2.468  0.1985  0.3899  0.3767
39819SOL    HW128425   2.119  10.172   2.389 -0.2415  1.4372  0.3985
39819SOL    HW228426   2.100  10.208   2.535 -1.0969  1.0781  0.3842
39820SOL     OW28427   5.011   3.666   2.008 -0.6747 -0.0661  0.6322
39820SOL    HW128428   5.052   3.743   1.969 -2.7785  0.6159 -0.4034
39820SOL    HW228429   5.048   3.592   1.959  0.9371  0.2840  1.2520
39821SOL     OW28430  11.416   6.444   9.333  0.2524 -0.3712 -0.1815
39821SOL    HW128431  11.355   6.420   9.402  0.2307 -1.7935 -0.6559
39821SOL    HW228432  11.361   6.476   9.262  0.0997 -0.9837 -0.3444
39822SOL     OW28433   7.925   9.640   4.957  0.4854  0.1285  0.0797
39822SOL    HW128434   7.917   9.551   4.991  0.0429  0.5274  1.0351
39822SOL    HW228435   7.927   9.696   5.034  1.1841  0.9261 -0.4967
39823SOL     OW28436  11.848  11.702   3.704  0.5335  0.3925  0.1631
39823SOL    HW128437  11.896  11.687   3.623  1.1339  1.1438  0.3620
39823SOL    HW228438  11.912  11.687   3.773 -0.0321 -0.4696  0.5142
39824SOL     OW28439   5.820  11.866   4.294  0.0557  0.3680  1.0341
39824SOL    HW128440   5.834  11.893   4.203 -0.5647  1.6252  1.2928
39824SOL    HW228441   5.865  11.782   4.301  0.0521  0.2104 -0.4583
39825SOL     OW28442   7.853   3.771   0.119 -0.6202 -0.0397 -0.5203
39825SOL    HW128443   7.779   3.770   0.058 -1.1926 -0.0007  0.1537
39825SOL    HW228444   7.884   3.861   0.117 -1.6004  0.3481  0.3462
39826SOL     OW28445   2.367   8.117  11.088  0.0407 -0.1570 -0.6803
39826SOL    HW128446   2.326   8.068  11.160  1.8768 -1.1277 -0.2321
39826SOL    HW228447   2.379   8.206  11.123 -0.4554 -0.2212 -0.3456
39827SOL     OW28448  11.781   7.924   5.096  0.5533  0.4785 -0.3037
39827SOL    HW128449  11.742   7.867   5.029  1.0493  0.7426 -0.8279
39827SOL    HW228450  11.843   7.867   5.142 -1.7184 -0.4761  1.7835
39828SOL     OW28451  11.357  10.462  10.920  0.4574  0.2218 -0.3444
39828SOL    HW128452  11.423  10.490  10.983 -0.4318  1.6158  0.0166
39828SOL    HW228453  11.316  10.386  10.961  2.8100 -1.6666 -1.2650
39829SOL     OW28454   7.541   7.651   3.556  0.5770  0.3699  0.3436
39829SOL    HW128455   7.633   7.632   3.572  0.5861 -1.1140 -1.2526
39829SOL    HW228456   7.493   7.583   3.603  0.3769 -0.0817 -0.5023
39830SOL     OW28457   3.720   5.069   8.120 -0.2195 -0.3232  0.2365
39830SOL    HW128458   3.721   5.104   8.210  0.6565 -1.6091  0.7563
39830SOL    HW228459   3.631   5.036   8.108 -0.1837 -0.6677  0.8611
39831SOL     OW28460   1.901   4.797   4.519 -0.4351  0.2292  0.2717
39831SOL    HW128461   1.996   4.806   4.509 -0.4926 -1.6975 -3.5316
39831SOL    HW228462   1.891   4.731   4.587  1.1330 -1.5224 -1.0807
39832SOL     OW28463  10.775  10.591   3.042 -0.2932 -0.0604 -0.4251
39832SOL    HW128464  10.794  10.498   3.045  0.7028  0.1563  1.1202
39832SOL    HW228465  10.700  10.603   3.099 -1.4064 -0.0858 -1.8192
39833SOL     OW28466   0.786   2.958   8.655 -0.6063 -0.3244  0.8443
39833SOL    HW128467   0.770   2.872   8.695  0.3610 -1.6553 -1.4169
39833SOL    HW228468   0.701   2.986   8.623 -0.6351 -1.3819 -0.0673
39834SOL     OW28469   1.299   6.409  10.144 -0.1421  0.1100 -0.5970
39834SOL    HW128470   1.221   6.452  10.178  0.0241 -1.0376  1.3687
39834SOL    HW228471   1.371   6.468  10.167 -0.0905 -0.4085  0.6055
39835SOL     OW28472  12.334   7.447   3.538 -0.6908 -0.1791  0.0166
39835SOL    HW128473  12.303   7.368   3.495  0.0335 -0.1805 -0.5362
39835SOL    HW228474  12.387   7.491   3.471 -0.7312  0.5553  0.4515
39836SOL     OW28475   4.642   5.082   3.982  0.1361 -0.3213  0.2931
39836SOL    HW128476   4.596   5.035   3.913  1.4423 -1.4853  0.1751
39836SOL    HW228477   4.634   5.174   3.959  0.4112 -0.6835 -1.3225
39837SOL     OW28478   0.763   1.749  12.053 -0.3828 -0.3302  0.3632
39837SOL    HW128479   0.850   1.787  12.045 -0.6087 -0.0233 -0.8643
39837SOL    HW228480   0.779   1.654  12.056  0.0364 -0.2426  0.9835
39838SOL     OW28481   7.436   6.810   8.654 -0.2082  0.1165 -0.4989
39838SOL    HW128482   7.496   6.741   8.622  0.1490 -0.3827  1.1232
39838SOL    HW228483   7.484   6.850   8.727 -0.3559  2.2252 -1.4920
39839SOL     OW28484   1.303   4.641   3.989 -0.3271  0.0076  0.4159
39839SOL    HW128485   1.273   4.559   3.950 -0.2859  0.8561 -1.5127
39839SOL    HW228486   1.370   4.614   4.052 -0.5380 -1.4547  0.0553
39840SOL     OW28487  11.568  10.819   5.564 -0.2052  0.1054  0.1038
39840SOL    HW128488  11.498  10.863   5.612  0.6687  0.1100  1.4348
39840SOL    HW228489  11.597  10.883   5.499 -0.9584  0.3558  0.0001
39841SOL     OW28490  11.696   5.953   3.025 -0.5160 -0.5487 -0.1515
39841SOL    HW128491  11.772   5.900   2.999 -0.9507 -1.0344 -0.4431
39841SOL    HW228492  11.721   6.042   3.002 -0.0882 -0.7218 -0.3811
39842SOL     OW28493   8.752  11.813   0.894 -0.1947  0.7091  0.7866
39842SOL    HW128494   8.717  11.807   0.983  0.9022  0.6265  1.2270
39842SOL    HW228495   8.781  11.903   0.885  0.7017  0.4471  0.9157
39843SOL     OW28496   5.921   7.854   5.268  0.0143 -0.0808  0.4849
39843SOL    HW128497   5.839   7.812   5.241  0.2042  0.7558 -1.5742
39843SOL    HW228498   5.894   7.929   5.320 -0.7678  1.6394 -2.1659
39844SOL     OW28499   1.311  11.082   2.909  0.0328 -0.5086  0.0658
39844SOL    HW128500   1.269  11.152   2.958  0.2969 -2.0824  2.7721
39844SOL    HW228501   1.371  11.126   2.849 -0.7060  1.5663  0.7840
39845SOL     OW28502   9.194   3.707   1.646 -0.1064 -0.2654  0.2351
39845SOL    HW128503   9.250   3.731   1.720 -0.8318 -0.4861  0.8669
39845SOL    HW228504   9.241   3.636   1.603 -0.0483 -0.6720  0.9526
39846SOL     OW28505   4.746  12.502   6.540 -0.0357  0.2306 -0.5715
39846SOL    HW128506   4.703  12.499   6.454 -1.4570  2.4895 -0.0341
39846SOL    HW228507   4.771  12.594   6.551  1.4617 -0.3003  0.8299
39847SOL     OW28508   6.407   1.659  10.196  0.2318 -0.8145  0.2106
39847SOL    HW128509   6.489   1.707  10.211 -0.2305 -0.4662  1.7704
39847SOL    HW228510   6.434   1.582  10.146  1.2194  0.2418 -0.9565
39848SOL     OW28511  11.431  10.745   5.977 -0.0184  0.2288 -0.2551
39848SOL    HW128512  11.401  10.719   6.065  1.6754 -2.8013 -0.4334
39848SOL    HW228513  11.357  10.725   5.920 -0.5020  0.5271  0.2580
39849SOL     OW28514   8.601   4.806   2.066  0.2464  0.4886 -0.4741
39849SOL    HW128515   8.660   4.882   2.067  1.5663 -0.5164  0.7692
39849SOL    HW228516   8.593   4.784   1.973  0.4678  1.6422 -0.7908
39850SOL     OW28517   0.888  11.673  11.219 -0.4176 -0.6603 -0.0785
39850SOL    HW128518   0.973  11.682  11.263  0.6835 -2.8007 -1.5377
39850SOL    HW228519   0.830  11.733  11.266  1.5906  0.0093  1.7457
39851SOL     OW28520   4.349   2.900  12.513  0.5399 -0.0347 -0.0232
39851SOL    HW128521   4.440   2.924  12.495  0.5539 -0.1548 -0.1169
39851SOL    HW228522   4.298   2.949  12.449  0.7140 -1.7789 -1.5895
39852SOL     OW28523   8.821   2.532   0.326 -0.2719 -0.7431  0.0740
39852SOL    HW128524   8.777   2.458   0.283 -0.0510 -1.3414  0.8516
39852SOL    HW228525   8.912   2.525   0.299 -0.6695  0.7405 -1.8749
39853SOL     OW28526   6.308   2.521  12.310 -0.5693  0.1399 -0.0456
39853SOL    HW128527   6.278   2.561  12.228 -0.0022 -1.2921 -1.0025
39853SOL    HW228528   6.355   2.442  12.282 -1.5348 -1.1385  1.7151
39854SOL     OW28529  12.200   3.028   3.436 -0.2739  0.2547  0.4247
39854SOL    HW128530  12.173   3.120   3.440 -1.7659  0.0865 -2.8381
39854SOL    HW228531  12.295   3.030   3.452 -0.1378  2.4592 -0.3847
39855SOL     OW28532   6.990   7.533  11.830  0.2731 -0.0897 -0.3102
39855SOL    HW128533   7.002   7.500  11.919 -0.5910  0.4873  0.0338
39855SOL    HW228534   7.079   7.545  11.797  0.5980 -0.9513  0.2262
39856SOL     OW28535   0.915   3.727   3.084  0.2851  0.2366  0.0270
39856SOL    HW128536   0.823   3.709   3.099 -0.1385  1.5226 -0.8265
39856SOL    HW228537   0.928   3.816   3.117  1.2481  0.0198  0.2679
39857SOL     OW28538  10.178  12.572   4.536 -0.8443  0.0605 -0.6376
39857SOL    HW128539  10.266  12.592   4.506 -0.8711  1.5284  0.1693
39857SOL    HW228540  10.179  12.477   4.552  1.1129  0.3049  1.0181
39858SOL     OW28541   6.859   1.902   4.923  0.2066  0.1891  0.0539
39858SOL    HW128542   6.825   1.865   5.004  1.7221 -2.4630 -0.4128
39858SOL    HW228543   6.806   1.862   4.854 -1.3645  2.7546 -0.3614
39859SOL     OW28544  10.563   0.708   9.351 -0.6188  0.1200  0.1371
39859SOL    HW128545  10.556   0.773   9.281 -1.0498 -0.4116 -0.3214
39859SOL    HW228546  10.596   0.629   9.307  0.6570  0.2392  0.8205
39860SOL     OW28547   1.396   8.990   7.860  0.5997 -0.4384 -0.2123
39860SOL    HW128548   1.438   9.075   7.842 -0.1171 -0.0146  0.0893
39860SOL    HW228549   1.332   8.980   7.789 -1.6631  0.8532  1.5017
39861SOL     OW28550   4.348   9.917  12.457 -0.2408 -0.5942 -0.3097
39861SOL    HW128551   4.297   9.927  12.537 -0.4582  0.6759 -0.5866
39861SOL    HW228552   4.301   9.850  12.407 -1.2301  0.0153 -0.2305
39862SOL     OW28553   2.751   1.622   5.473 -0.1423 -0.2015  0.0153
39862SOL    HW128554   2.731   1.643   5.382 -1.1599  0.0639  0.2898
39862SOL    HW228555   2.699   1.544   5.492 -0.5140  0.1717  0.5761
39863SOL     OW28556   1.177   1.093   3.536  0.0849  0.0577  0.1517
39863SOL    HW128557   1.127   1.107   3.455 -0.2239 -2.7174 -0.2637
39863SOL    HW228558   1.265   1.072   3.506  0.0974 -0.4692  0.5291
39864SOL     OW28559   6.452  11.534   9.919  0.2110  0.2118 -0.2039
39864SOL    HW128560   6.391  11.571   9.856 -0.2350  1.7035  1.0450
39864SOL    HW228561   6.427  11.441   9.924  0.0951  0.1109 -1.9755
39865SOL     OW28562   5.126   3.861   1.867  0.2539  0.3775  0.1227
39865SOL    HW128563   5.139   3.884   1.775  1.3021  1.7764  0.5858
39865SOL    HW228564   5.213   3.837   1.899 -0.1281 -0.2630  0.7221
39866SOL     OW28565   8.417   3.027   0.833 -0.0165  0.1249  0.4045
39866SOL    HW128566   8.442   3.042   0.742 -0.7636  0.5327  0.2595
39866SOL    HW228567   8.325   3.003   0.829 -0.2859  0.9672  1.1088
39867SOL     OW28568   3.018   5.562  10.250  0.4496 -0.0864  0.1808
39867SOL    HW128569   3.031   5.484  10.304  0.2119 -0.2917 -0.0505
39867SOL    HW228570   2.947   5.609  10.293  0.9464  0.2795  0.6185
39868SOL     OW28571   7.907   7.069   0.654 -0.3141  0.1348  0.3093
39868SOL    HW128572   7.922   7.144   0.596 -0.5195  0.5712  0.8196
39868SOL    HW228573   7.966   7.001   0.620 -0.4655  0.3667 -0.4431
39869SOL     OW28574  10.444   2.563   0.838 -0.3771  0.0755  0.3957
39869SOL    HW128575  10.463   2.582   0.746 -1.3653 -2.7797 -0.5097
39869SOL    HW228576  10.363   2.610   0.857  0.7242  2.0891  0.4230
39870SOL     OW28577  10.070   3.673  10.374 -0.3488 -0.1743 -0.1166
39870SOL    HW128578   9.993   3.692  10.428 -0.0289 -2.4667  1.3348
39870SOL    HW228579  10.037   3.671  10.284 -1.6384  0.4222  0.3185
39871SOL     OW28580   3.901   6.470   6.384 -0.2945 -0.0336 -0.1639
39871SOL    HW128581   3.903   6.564   6.404 -1.2679  0.1605 -0.8808
39871SOL    HW228582   3.987   6.438   6.409 -0.3424  0.8171  1.2330
39872SOL     OW28583   5.259  10.703   6.481 -0.0859 -0.1550  0.4048
39872SOL    HW128584   5.290  10.779   6.433 -0.1706  0.9529  2.0349
39872SOL    HW228585   5.171  10.687   6.446  0.3845 -0.2630 -0.7713
39873SOL     OW28586   5.785   3.378  12.220  0.0552  0.4258 -0.0267
39873SOL    HW128587   5.869   3.394  12.263  0.7985 -0.0330 -1.2371
39873SOL    HW228588   5.805   3.314  12.151 -1.1178  0.9399 -0.8891
39874SOL     OW28589   7.061   2.039  12.471  0.3332 -0.1964  0.1757
39874SOL    HW128590   7.153   2.023  12.452  1.2515  0.9638  3.1295
39874SOL    HW228591   7.036   1.968  12.530 -1.0443 -1.1209 -1.4380
39875SOL     OW28592   8.829   6.832   3.162 -0.1348 -0.2336  0.4746
39875SOL    HW128593   8.887   6.760   3.188  1.0941  1.2463  2.1047
39875SOL    HW228594   8.888   6.896   3.122 -0.8121  0.8295  1.1346
39876SOL     OW28595   2.506   2.164   4.677 -0.8443 -0.2819  0.6432
39876SOL    HW128596   2.461   2.221   4.739  1.1119 -0.9805  2.8367
39876SOL    HW228597   2.584   2.134   4.723  0.6248 -1.0591 -2.0922
39877SOL     OW28598   0.608   2.894   1.114 -0.4042  0.0740  0.5769
39877SOL    HW128599   0.602   2.803   1.086 -1.1980  0.3761 -0.3133
39877SOL    HW228600   0.661   2.892   1.193 -2.0684 -1.4095  1.7300
39878SOL     OW28601   2.412   3.174  12.425  0.5501  0.1271  0.0837
39878SOL    HW128602   2.482   3.228  12.460  1.5812 -2.2473  2.0482
39878SOL    HW228603   2.365   3.143  12.503 -0.7585 -0.8017 -1.0189
39879SOL     OW28604  11.602   0.045  10.459  0.3149 -0.6584  0.3282
39879SOL    HW128605  11.549   0.035  10.379 -1.2475 -0.0712  1.2472
39879SOL    HW228606  11.646   0.129  10.447 -0.0313 -0.4989  0.1378
39880SOL     OW28607  11.242   5.992   3.557 -0.1752  0.3330  0.1352
39880SOL    HW128608  11.165   6.030   3.599  0.0613 -0.0993  0.9893
39880SOL    HW228609  11.271   6.058   3.494 -0.8138  0.7954  0.3184
39881SOL     OW28610  11.747  10.654   6.774 -0.5238  0.0287  0.4108
39881SOL    HW128611  11.684  10.617   6.836  1.0372 -1.5153  1.1445
39881SOL    HW228612  11.728  10.610   6.692 -0.9465  0.2042  0.4114
39882SOL     OW28613   8.158   1.575  11.046  0.1388 -0.1298 -0.1936
39882SOL    HW128614   8.192   1.492  11.079  0.7709 -0.0910 -0.7214
39882SOL    HW228615   8.189   1.580  10.955  0.0369  0.6428 -0.1973
39883SOL     OW28616  11.733  10.572   3.274 -0.3878 -0.4537 -0.0406
39883SOL    HW128617  11.814  10.523   3.276 -1.1683 -1.8240 -0.9291
39883SOL    HW228618  11.671  10.518   3.324 -1.0497  0.0282 -0.3271
39884SOL     OW28619   3.887   2.882   0.873  0.1753  0.3895  0.1150
39884SOL    HW128620   3.981   2.872   0.860  0.2110  1.3866 -0.5223
39884SOL    HW228621   3.875   2.975   0.890 -0.9510  0.8482 -2.5973
39885SOL     OW28622   2.568   7.845   6.775 -0.2897  0.4001  0.0221
39885SOL    HW128623   2.616   7.814   6.698  0.9477  1.5057  0.3124
39885SOL    HW228624   2.545   7.765   6.822  2.4436 -0.1736  0.5297
39886SOL     OW28625   0.539   1.122   9.436  0.3691  0.2635 -0.4052
39886SOL    HW128626   0.536   1.215   9.412  1.4809  0.1369 -1.1495
39886SOL    HW228627   0.528   1.121   9.531 -1.6888  0.9831 -0.5891
39887SOL     OW28628  10.738   6.909   4.204  0.0773 -0.3748 -0.0428
39887SOL    HW128629  10.834   6.918   4.204  0.1214 -0.8116 -0.2003
39887SOL    HW228630  10.720   6.839   4.266 -0.1128 -0.5640 -0.3094
39888SOL     OW28631  10.940   3.419   4.423  0.1562 -0.4652  0.0793
39888SOL    HW128632  10.915   3.499   4.376  0.9449 -0.3952 -0.2385
39888SOL    HW228633  10.993   3.369   4.360 -0.3097 -1.2301  0.2831
39889SOL     OW28634   0.622   7.090   7.254  0.1592 -0.0961 -0.0391
39889SOL    HW128635   0.607   7.040   7.174  1.4897 -0.4596 -0.0827
39889SOL    HW228636   0.699   7.144   7.235  0.9218 -0.6993  1.2206
39890SOL     OW28637  12.229  11.766   3.844 -0.2410 -0.1456  0.4306
39890SOL    HW128638  12.138  11.747   3.864 -0.3602  0.2233  0.2360
39890SOL    HW228639  12.257  11.692   3.789 -0.2548 -0.5499  0.9569
39891SOL     OW28640   2.764   7.975  12.594 -0.4899 -0.4300  0.3998
39891SOL    HW128641   2.714   8.036  12.648 -0.6585 -1.2525  1.2095
39891SOL    HW228642   2.826   7.934  12.655  0.2473 -0.4081 -0.3154
39892SOL     OW28643   6.599   0.409   1.499 -0.1530 -0.0765 -0.3011
39892SOL    HW128644   6.524   0.438   1.550 -1.0943 -1.5190 -0.8028
39892SOL    HW228645   6.582   0.442   1.410 -0.6637 -1.1149 -0.6128
39893SOL     OW28646   0.632   4.527   8.034  0.0053 -0.2314  0.2049
39893SOL    HW128647   0.656   4.435   8.036 -0.6747 -0.4080  0.5627
39893SOL    HW228648   0.683   4.564   7.962 -0.1043 -0.9943 -0.2641
39894SOL     OW28649   5.356   9.183   0.112  0.2797 -0.4546 -0.6573
39894SOL    HW128650   5.401   9.105   0.146  0.9057 -0.5596 -1.6938
39894SOL    HW228651   5.279   9.150   0.068  0.0423 -0.4085 -0.2775
39895SOL     OW28652   5.243  12.206   1.969  0.8264 -0.0298  0.6242
39895SOL    HW128653   5.160  12.236   2.007  1.2184  0.2929  1.2541
39895SOL    HW228654   5.230  12.112   1.955  0.1038  0.1578  0.0309
39896SOL     OW28655   6.920   9.599   4.226  0.5333 -0.2484 -0.1956
39896SOL    HW128656   6.858   9.531   4.198  0.9260 -0.5926 -0.2422
39896SOL    HW228657   6.911   9.668   4.161  1.6326 -1.1543 -1.3582
39897SOL     OW28658   5.132   5.117  10.898 -0.3365 -0.0081 -0.4436
39897SOL    HW128659   5.193   5.061  10.850  0.7148  0.5386  0.2088
39897SOL    HW228660   5.150   5.098  10.990 -0.4226  0.9128 -0.2264
39898SOL     OW28661   4.798   5.985   2.914 -0.0364 -0.1636 -0.1722
39898SOL    HW128662   4.738   5.911   2.926 -0.7240  0.3196 -0.6163
39898SOL    HW228663   4.844   5.991   2.998  0.2528 -1.2835 -0.2281
39899SOL     OW28664   2.581   8.543   9.990 -0.5957  0.6358  0.1891
39899SOL    HW128665   2.488   8.552  10.007 -0.6440 -0.6473  0.7107
39899SOL    HW228666   2.615   8.494  10.065  0.1177 -0.7003 -0.9567
39900SOL     OW28667   8.584   4.543   7.157 -0.3259  0.8212  0.0523
39900SOL    HW128668   8.530   4.564   7.234  0.7501 -0.3542  1.1888
39900SOL    HW228669   8.673   4.565   7.184  0.1014  0.1582 -0.7771
39901SOL     OW28670   4.766  11.711   0.312  0.3334 -0.6379  0.2203
39901SOL    HW128671   4.699  11.711   0.244  0.5344 -0.1883  0.0141
39901SOL    HW228672   4.840  11.756   0.272 -0.0955  1.0713  1.2415
39902SOL     OW28673  10.478   9.330   4.497 -0.1663  0.3566  0.2641
39902SOL    HW128674  10.573   9.325   4.490 -0.1245  0.8148  0.4541
39902SOL    HW228675  10.452   9.393   4.429 -0.4276 -0.4751 -0.4195
39903SOL     OW28676   6.332   8.490   0.802  0.0868  0.3033 -0.2388
39903SOL    HW128677   6.390   8.472   0.728  0.9733 -0.0215  0.5204
39903SOL    HW228678   6.244   8.485   0.765  0.5372  1.0462 -1.4571
39904SOL     OW28679   3.835   1.015  11.285 -0.7611  0.3739 -0.1805
39904SOL    HW128680   3.799   1.069  11.355 -2.0255  0.9447 -1.2349
39904SOL    HW228681   3.783   0.935  11.287 -1.2274  0.6440 -0.8332
39905SOL     OW28682   3.019  12.136   3.779  0.1927 -1.0062 -0.1302
39905SOL    HW128683   3.017  12.127   3.684  0.8742 -2.4346 -0.0330
39905SOL    HW228684   3.113  12.137   3.801  0.0486 -0.3230  0.4994
39906SOL     OW28685  12.426   0.967   0.383 -0.2806 -0.2309 -0.7741
39906SOL    HW128686  12.335   0.966   0.412 -0.3616 -1.9759 -0.9996
39906SOL    HW228687  12.477   0.979   0.463 -0.6963  3.3900 -0.8726
39907SOL     OW28688   2.464  10.211   4.177  0.1099  0.6135  1.1160
39907SOL    HW128689   2.515  10.286   4.148  1.4758 -0.5491  0.3646
39907SOL    HW228690   2.422  10.178   4.098 -1.5226  1.2823  1.6489
39908SOL     OW28691   6.031  10.669   9.699 -0.0771  0.3199 -0.2194
39908SOL    HW128692   5.948  10.623   9.704  0.6588 -1.0730 -0.1956
39908SOL    HW228693   6.089  10.610   9.650  1.3334  0.5157  1.1141
39909SOL     OW28694   5.829   9.093   3.236 -0.0148  0.3596 -0.2502
39909SOL    HW128695   5.848   9.176   3.280 -0.2969  0.4002 -0.2087
39909SOL    HW228696   5.824   9.115   3.143  2.3058 -0.0035 -0.5240
39910SOL     OW28697   2.394   1.980  10.589 -0.1878  0.3136 -0.2948
39910SOL    HW128698   2.460   2.024  10.643  0.2064  0.2208 -0.6896
39910SOL    HW228699   2.359   1.910  10.644 -0.6881  1.0077  0.2728
39911SOL     OW28700  12.509  10.997   2.095 -0.5844 -0.0084 -0.1507
39911SOL    HW128701  12.429  10.968   2.139 -1.6000  1.4444 -0.9376
39911SOL    HW228702  12.550  10.916   2.064 -3.2869 -0.7164 -2.3219
39912SOL     OW28703   6.316   5.547  12.585  0.4364  0.4909  0.1715
39912SOL    HW128704   6.271   5.628  12.609 -1.0650 -0.3892  0.4770
39912SOL    HW228705   6.359   5.566  12.502 -0.7757  1.2964 -0.2985
39913SOL     OW28706   6.137   8.792   0.801 -0.0515  0.4779  0.0843
39913SOL    HW128707   6.066   8.731   0.819 -0.1563 -0.2243 -2.3945
39913SOL    HW228708   6.104   8.877   0.831 -1.0730 -0.1809  0.8682
39914SOL     OW28709   0.011  10.009   3.744 -0.8268 -0.1250 -0.1140
39914SOL    HW128710   0.075   9.938   3.737 -1.6023 -1.0491  1.5218
39914SOL    HW228711   0.040  10.074   3.680 -0.0075 -1.8403 -1.5892
39915SOL     OW28712   8.465   0.561   3.496  0.3230 -0.1863  0.4428
39915SOL    HW128713   8.538   0.601   3.543  0.1451  1.3547 -0.5213
39915SOL    HW228714   8.390   0.570   3.555  0.3807  0.5317  0.4107
39916SOL     OW28715   5.645   6.899   8.969  0.2227  0.1894 -0.4788
39916SOL    HW128716   5.650   6.815   8.924 -0.7167  0.0037 -0.2590
39916SOL    HW228717   5.693   6.959   8.913  1.1093 -0.5352 -0.5212
39917SOL     OW28718   8.739   2.147   4.054  0.2900  0.2340 -0.3547
39917SOL    HW128719   8.745   2.071   4.111  0.8437  0.2694 -0.3617
39917SOL    HW228720   8.761   2.113   3.967  2.1328  0.6964 -0.1056
39918SOL     OW28721   8.798   7.150   3.694  0.4489  0.0996  0.5250
39918SOL    HW128722   8.724   7.114   3.742  0.2333  0.5176  0.5022
39918SOL    HW228723   8.781   7.126   3.603  0.6435 -0.3192  0.5938
39919SOL     OW28724   9.903  11.728   2.357  0.0471 -0.4042  0.3631
39919SOL    HW128725   9.923  11.722   2.450  1.4937  1.6304  0.2495
39919SOL    HW228726   9.901  11.822   2.339  2.1840 -0.6920 -2.0767
39920SOL     OW28727   5.048  10.369   4.829 -0.5007 -0.2948 -0.0624
39920SOL    HW128728   5.048  10.288   4.881 -2.5690 -0.3040  0.0095
39920SOL    HW228729   5.009  10.434   4.887 -0.2589  0.3953 -0.6652
39921SOL     OW28730  12.533   5.885   4.879  0.2051 -0.5578  0.3536
39921SOL    HW128731  12.558   5.896   4.970  0.8670 -1.4280  0.2856
39921SOL    HW228732  12.526   5.974   4.844  2.6501 -0.2528  0.5262
39922SOL     OW28733   3.852   6.349   5.967  0.3819 -0.0070  0.6486
39922SOL    HW128734   3.904   6.429   5.972  1.0734 -0.3611 -0.4459
39922SOL    HW228735   3.898   6.295   5.903 -0.8659 -0.6953  0.3084
39923SOL     OW28736   5.932   6.861   9.117  1.0837 -0.1236 -0.3510
39923SOL    HW128737   5.936   6.826   9.028  0.8124  0.4729 -0.6042
39923SOL    HW228738   5.963   6.951   9.109  1.2712 -0.1382  0.1978
39924SOL     OW28739   9.756  11.120   1.661 -0.1210 -0.6865 -0.2570
39924SOL    HW128740   9.719  11.073   1.736  0.4754  1.0042  1.1664
39924SOL    HW228741   9.843  11.146   1.691 -0.4310  1.2866 -0.9673
39925SOL     OW28742  11.133   1.576   1.923  0.5204 -0.0948  0.4851
39925SOL    HW128743  11.180   1.498   1.953  0.2218  0.3226  2.1739
39925SOL    HW228744  11.193   1.619   1.863  1.0066 -1.2055  0.1458
39926SOL     OW28745   4.182   2.907  10.544  0.2409 -0.1938 -0.0502
39926SOL    HW128746   4.271   2.933  10.520  0.2540  0.9557  1.1631
39926SOL    HW228747   4.195   2.833  10.604  0.3564 -0.4748 -0.4225
39927SOL     OW28748   9.524   3.018   7.102  0.2262  0.2805 -0.9363
39927SOL    HW128749   9.464   2.944   7.087 -1.4005  1.1438  0.8421
39927SOL    HW228750   9.573   2.994   7.180  0.0825  0.8179 -0.6749
39928SOL     OW28751   2.715   4.430   5.852 -0.3502 -0.7999 -0.2842
39928SOL    HW128752   2.784   4.412   5.788  0.3371  1.5584 -0.2989
39928SOL    HW228753   2.760   4.437   5.935 -0.5819  0.5601 -0.2574
39929SOL     OW28754  12.468  10.548   3.408  0.1070 -0.5289 -0.0752
39929SOL    HW128755  12.480  10.639   3.383 -2.4820  0.0186  0.3278
39929SOL    HW228756  12.405  10.514   3.343 -0.4684 -1.4223  0.9249
39930SOL     OW28757   6.614   2.405   2.890 -0.1321 -0.3386 -0.3768
39930SOL    HW128758   6.613   2.500   2.899 -2.2822 -0.2571 -1.0329
39930SOL    HW228759   6.609   2.389   2.796 -1.7922 -1.0369 -0.2145
39931SOL     OW28760   5.095  10.358   7.684 -0.3452 -0.3262 -0.1825
39931SOL    HW128761   5.053  10.275   7.664 -2.6324  0.6357  0.3748
39931SOL    HW228762   5.024  10.417   7.707  1.4454  0.8801  2.8071
39932SOL     OW28763   2.562   1.167   9.671  0.5689  0.3649 -0.3275
39932SOL    HW128764   2.579   1.077   9.700  1.1965  0.8505  0.8695
39932SOL    HW228765   2.498   1.201   9.733  0.6356  0.8719 -0.5362
39933SOL     OW28766   3.225  10.325   5.985  0.0519  0.8282  0.1943
39933SOL    HW128767   3.135  10.336   5.954  0.0051 -1.6714 -0.7975
39933SOL    HW228768   3.245  10.232   5.969  2.6188  1.1750  0.9055
39934SOL     OW28769   7.810   4.424   2.806  0.6319  0.5592 -0.1472
39934SOL    HW128770   7.900   4.399   2.786  0.1571 -0.5007 -1.1045
39934SOL    HW228771   7.792   4.383   2.891  0.6136 -0.4408 -0.6200
39935SOL     OW28772   2.995   6.762   5.411 -0.3507 -0.2582 -0.4631
39935SOL    HW128773   2.974   6.739   5.502  0.1713  1.0342  0.0121
39935SOL    HW228774   2.909   6.774   5.370 -0.6244  1.0943  0.4130
39936SOL     OW28775  12.238   2.174   0.662  0.1079 -1.1390 -0.5871
39936SOL    HW128776  12.144   2.174   0.642  0.0481  2.2364 -0.8306
39936SOL    HW228777  12.280   2.188   0.577  1.0544 -4.0804 -0.7269
39937SOL     OW28778   5.738   5.948   6.041 -0.3218  0.3941  0.1770
39937SOL    HW128779   5.736   6.014   5.971 -2.5125  0.4972  0.2545
39937SOL    HW228780   5.828   5.915   6.040  0.3913  2.1792 -0.9841
39938SOL     OW28781   8.213   0.316   6.952  0.2202  0.4329 -0.0419
39938SOL    HW128782   8.296   0.298   6.909  0.7337  0.4278  0.9248
39938SOL    HW228783   8.229   0.394   7.005 -0.6417  0.9462 -0.5049
39939SOL     OW28784   9.704   5.561  12.021  0.0238  0.0579  1.1788
39939SOL    HW128785   9.659   5.495  11.968 -0.3386  0.8036  0.5482
39939SOL    HW228786   9.659   5.558  12.105 -0.0592 -0.4199  1.1207
39940SOL     OW28787   7.073  11.648   0.054  0.1833  0.3007 -0.3295
39940SOL    HW128788   6.984  11.616   0.041  0.1759 -0.2144  0.8023
39940SOL    HW228789   7.128  11.570   0.050  0.3404  0.3125  0.9019
39941SOL     OW28790   6.041  11.336   3.849  0.1456 -0.6448  0.6678
39941SOL    HW128791   6.110  11.271   3.864 -0.6726 -1.6159  0.3750
39941SOL    HW228792   5.961  11.292   3.876 -0.0945  1.5396  3.9848
39942SOL     OW28793   3.554  12.158  10.256  0.7141  0.4508 -0.6857
39942SOL    HW128794   3.486  12.143  10.323 -0.1915  0.7074 -1.5209
39942SOL    HW228795   3.573  12.072  10.221  0.1740  0.4810 -1.0583
39943SOL     OW28796   8.381   0.757   9.806  0.4530  0.1712 -0.0567
39943SOL    HW128797   8.289   0.751   9.779  0.4945  0.0349 -0.1728
39943SOL    HW228798   8.426   0.696   9.748  0.5019 -0.3473  0.5144
39944SOL     OW28799  10.668   2.507   7.967 -0.4074  0.1750  0.4215
39944SOL    HW128800  10.762   2.523   7.975 -0.4968  1.1806 -0.3504
39944SOL    HW228801  10.657   2.472   7.879 -0.9110  1.4445 -0.0443
39945SOL     OW28802  10.684   5.282  10.445  0.1123 -0.4140  0.5878
39945SOL    HW128803  10.711   5.190  10.438  1.5127 -0.0779  1.1094
39945SOL    HW228804  10.644   5.302  10.361 -1.1058 -1.7511  0.7995
39946SOL     OW28805   9.020   4.041  10.856  0.6903 -0.2730 -0.1376
39946SOL    HW128806   9.092   3.998  10.903  1.9003  0.2997 -1.3844
39946SOL    HW228807   9.061   4.116  10.814 -0.6727  0.1034 -0.8386
39947SOL     OW28808  11.438  12.526  12.241  0.2176 -0.0085  0.0592
39947SOL    HW128809  11.369  12.573  12.193 -1.8582  0.3208  3.0701
39947SOL    HW228810  11.433  12.436  12.207  0.2656  0.6073 -1.7013
39948SOL     OW28811   6.446   5.416   5.694 -0.2688  0.1227  0.0588
39948SOL    HW128812   6.428   5.480   5.762 -0.5036  0.4159 -0.2786
39948SOL    HW228813   6.531   5.378   5.718  0.0632  0.8482  0.0357
39949SOL     OW28814   3.974  10.191   8.844 -0.4512  0.2581  0.1553
39949SOL    HW128815   3.967  10.284   8.868 -0.4516  0.2808  0.0696
39949SOL    HW228816   3.883  10.162   8.837 -0.5352  0.8401 -2.0308
39950SOL     OW28817   2.298  12.504   1.420  0.4904  0.3984  0.0096
39950SOL    HW128818   2.278  12.538   1.333  0.3649 -0.6457 -0.3794
39950SOL    HW228819   2.330  12.416   1.405 -0.3990 -0.1402  1.0789
39951SOL     OW28820  10.156   0.532   5.311 -0.1751 -0.4399  0.7082
39951SOL    HW128821  10.250   0.521   5.303  0.1648  1.3825  1.7510
39951SOL    HW228822  10.137   0.519   5.404 -0.8896 -0.4033  0.5773
39952SOL     OW28823   7.224  10.747   8.783  0.3630  0.6789  0.3433
39952SOL    HW128824   7.202  10.833   8.747  0.1384  1.5229  2.3277
39952SOL    HW228825   7.152  10.690   8.757 -0.5135  1.6130  0.6682
39953SOL     OW28826   9.495   8.731   7.059  0.6240 -0.4344 -0.7188
39953SOL    HW128827   9.545   8.718   6.978 -0.5858  0.2960 -1.6261
39953SOL    HW228828   9.553   8.781   7.116  0.7964  0.7852 -1.9105
39954SOL     OW28829  11.264   6.855   2.552  0.3882  0.3372 -0.6903
39954SOL    HW128830  11.350   6.830   2.517  0.8519  0.8066  0.0799
39954SOL    HW228831  11.265   6.951   2.553  0.2848  0.3448  0.3224
39955SOL     OW28832   9.395   9.002  11.512 -0.5662 -0.3839  0.2225
39955SOL    HW128833   9.458   9.018  11.442  0.5317 -0.5346  1.1324
39955SOL    HW228834   9.421   8.918  11.549 -1.3570 -0.4827  0.5722
39956SOL     OW28835   7.926   9.538   1.691 -0.3160  0.6342 -0.0533
39956SOL    HW128836   7.912   9.484   1.769  0.9793  1.8765  1.0949
39956SOL    HW228837   7.914   9.478   1.618  0.8223 -1.1570  1.1569
39957SOL     OW28838   4.577  10.640   6.513  0.3348 -0.0698 -0.0881
39957SOL    HW128839   4.571  10.613   6.604  0.6502 -0.4880 -0.1927
39957SOL    HW228840   4.608  10.731   6.516 -0.4674  0.2014  0.2488
39958SOL     OW28841   3.882   0.648   0.443 -0.6132 -0.8109 -0.0647
39958SOL    HW128842   3.809   0.686   0.493 -1.6346  0.2731 -2.2380
39958SOL    HW228843   3.950   0.715   0.446 -1.0497 -0.3053 -0.8751
39959SOL     OW28844   8.300  11.742   4.226  0.3892  0.0176  0.2169
39959SOL    HW128845   8.326  11.832   4.207  1.0620 -0.1840  0.1587
39959SOL    HW228846   8.204  11.742   4.217  0.3601  0.7883  0.4943
39960SOL     OW28847   0.073  10.324   2.036 -0.0178 -0.2459 -0.2965
39960SOL    HW128848   0.056  10.247   1.982 -0.1305  0.3905 -1.1817
39960SOL    HW228849   0.026  10.396   1.993 -0.9412  0.0948  1.1958
39961SOL     OW28850   0.493   0.266  11.216  0.1194  0.5760 -0.5377
39961SOL    HW128851   0.529   0.177  11.223 -0.4450  0.3047 -1.0017
39961SOL    HW228852   0.554   0.320  11.267 -0.4689 -0.3387  1.2390
39962SOL     OW28853  11.816  12.054   3.156 -0.1178 -0.6872  0.8168
39962SOL    HW128854  11.811  12.011   3.241  2.0787  0.6532  1.7209
39962SOL    HW228855  11.759  12.131   3.164  0.1467 -0.5205  1.1151
39963SOL     OW28856   5.608   3.059   2.368 -0.0333 -0.4596  0.1857
39963SOL    HW128857   5.640   2.973   2.394  1.4193  0.3534  1.2449
39963SOL    HW228858   5.531   3.041   2.313  0.8557 -2.4399 -0.5038
39964SOL     OW28859   8.148  10.820  10.003 -0.2319  0.2325 -0.4290
39964SOL    HW128860   8.103  10.873   9.937 -0.5933  0.1807 -0.2246
39964SOL    HW228861   8.213  10.771   9.954  0.3267  1.1002 -0.5848
39965SOL     OW28862   2.211  10.225   1.254 -0.6812  0.6940  0.0652
39965SOL    HW128863   2.188  10.133   1.237  2.6881 -0.2892  0.1472
39965SOL    HW228864   2.198  10.235   1.349 -2.2105  0.7192 -0.1228
39966SOL     OW28865   1.911  10.029   4.211  0.5025 -0.0947  0.3149
39966SOL    HW128866   1.839  10.015   4.150 -2.7455  2.0754  3.2158
39966SOL    HW228867   1.893   9.968   4.283  1.2617  0.8068  1.2933
39967SOL     OW28868   1.396   9.453   5.172  0.2693 -0.2267  0.1739
39967SOL    HW128869   1.339   9.390   5.128  0.3186  0.0451 -0.2975
39967SOL    HW228870   1.459   9.478   5.104  0.1805  0.4068  0.3210
39968SOL     OW28871   5.692   0.779  10.065 -0.7125  0.3697  0.1932
39968SOL    HW128872   5.685   0.719  10.139 -1.5802 -0.8978 -0.8753
39968SOL    HW228873   5.680   0.724   9.988 -0.1190  1.7031 -0.8981
39969SOL     OW28874  11.103   1.854   4.201  0.0226 -0.2537 -0.0515
39969SOL    HW128875  11.075   1.818   4.285 -0.9512 -0.3864 -0.4174
39969SOL    HW228876  11.031   1.834   4.141  0.7224 -0.2065 -0.9356
39970SOL     OW28877  10.421   2.815   4.701  1.0060 -0.1261 -0.4854
39970SOL    HW128878  10.462   2.900   4.715  2.2349 -0.7316 -0.2640
39970SOL    HW228879  10.379   2.795   4.785  2.6919 -0.7480  0.2642
39971SOL     OW28880   7.255   6.386   7.334  0.1390  0.0755 -0.3744
39971SOL    HW128881   7.168   6.425   7.323 -0.6657 -1.6626 -0.5313
39971SOL    HW228882   7.305   6.417   7.259 -0.2283  1.3259 -0.1363
39972SOL     OW28883   7.113  10.041   3.850  0.0875 -0.5638  0.5107
39972SOL    HW128884   7.084   9.967   3.797  4.4589 -1.5150 -1.0545
39972SOL    HW228885   7.094  10.015   3.940 -2.3903 -1.5127 -0.1970
39973SOL     OW28886   6.667   0.481   3.399 -0.4433  0.5096  0.4459
39973SOL    HW128887   6.719   0.561   3.398 -0.9185  0.8720  1.8747
39973SOL    HW228888   6.689   0.439   3.483  0.1684 -1.1320 -0.4762
39974SOL     OW28889   4.939   6.093  11.375 -0.1957 -0.2340  0.1331
39974SOL    HW128890   5.001   6.046  11.319 -2.0321 -0.0426 -2.2468
39974SOL    HW228891   4.963   6.185  11.364  0.3294 -0.2759  0.8517
39975SOL     OW28892  10.450   1.564   6.577 -0.2635 -0.0562  0.2962
39975SOL    HW128893  10.400   1.539   6.654 -1.3986  1.3416  0.0541
39975SOL    HW228894  10.487   1.650   6.600 -0.7173  0.4304 -0.7397
39976SOL     OW28895   9.385   0.145   3.051  0.2193 -0.2556 -0.0202
39976SOL    HW128896   9.451   0.180   3.111 -0.2848  0.3894  0.1642
39976SOL    HW228897   9.301   0.167   3.091 -0.1234 -1.7889  0.1596
39977SOL     OW28898   1.496   0.954   3.135 -0.3314 -0.0115 -0.0961
39977SOL    HW128899   1.521   1.003   3.057 -0.0139  0.1885  0.1249
39977SOL    HW228900   1.400   0.953   3.134 -0.3203 -0.7124 -0.9129
39978SOL     OW28901   1.742   0.470   2.720  0.4645 -0.3548  0.6931
39978SOL    HW128902   1.736   0.565   2.736  1.5787 -0.1908  0.2725
39978SOL    HW228903   1.726   0.430   2.805  1.8118  0.3041  1.2940
39979SOL     OW28904   4.257   2.021   0.563 -0.5638  0.5841  0.7513
39979SOL    HW128905   4.193   1.950   0.560 -0.0962  0.1570  0.7160
39979SOL    HW228906   4.247   2.066   0.479 -0.2450  0.0027  0.3943
39980SOL     OW28907   4.062   3.493   5.692 -0.8109 -0.7459 -0.5116
39980SOL    HW128908   4.019   3.487   5.606 -2.4253 -0.4300  0.2348
39980SOL    HW228909   4.045   3.407   5.732  0.8517 -1.2889 -0.8722
39981SOL     OW28910   9.625  10.521   9.743 -0.3112  0.2128  0.3861
39981SOL    HW128911   9.598  10.540   9.833  1.4080 -2.4354  1.5972
39981SOL    HW228912   9.717  10.497   9.751 -0.4328 -1.2633 -1.8834
39982SOL     OW28913   9.619   2.819  12.595 -0.0504 -0.1888  0.8315
39982SOL    HW128914   9.541   2.804  12.540 -0.6802 -0.2050  1.7107
39982SOL    HW228915   9.690   2.828  12.532 -0.5353 -1.4775  0.0316
39983SOL     OW28916   5.912   1.169   0.955 -0.4574  0.3964 -0.1884
39983SOL    HW128917   5.828   1.186   0.912 -0.2938  1.8639  0.0196
39983SOL    HW228918   5.889   1.132   1.040 -0.8088 -1.4770 -1.0430
39984SOL     OW28919   0.921   0.310   6.449  0.3269 -0.2711 -0.2429
39984SOL    HW128920   0.910   0.328   6.356 -1.7244  0.4397  0.1058
39984SOL    HW228921   0.865   0.235   6.466 -0.6246  0.6220  0.7187
39985SOL     OW28922   3.940  10.003   2.151  0.7299  0.3206  0.3247
39985SOL    HW128923   3.863   9.945   2.157  1.0917 -0.1736  0.2566
39985SOL    HW228924   3.985   9.973   2.072  0.8435  0.7966  0.2105
39986SOL     OW28925   9.563   0.064  11.770  0.0119 -0.5724  0.0702
39986SOL    HW128926   9.472   0.090  11.761  0.3935  0.6443 -0.4975
39986SOL    HW228927   9.610   0.116  11.704  1.2906 -0.1809  1.2324
39987SOL     OW28928   8.187  12.131   6.892  0.2023  0.2595  0.1661
39987SOL    HW128929   8.248  12.112   6.964 -1.5342  1.0442  1.9652
39987SOL    HW228930   8.155  12.219   6.911 -2.1360 -0.4546 -0.1754
39988SOL     OW28931  10.253  10.590  11.505 -0.2241  0.1065 -0.3577
39988SOL    HW128932  10.299  10.522  11.553 -0.2885  0.0170 -0.4217
39988SOL    HW228933  10.310  10.667  11.511 -0.5911  0.3131  0.5027
39989SOL     OW28934  10.684   2.809  10.585  0.0447  0.0654 -0.7009
39989SOL    HW128935  10.693   2.714  10.587  1.7712  0.0870 -3.1545
39989SOL    HW228936  10.772   2.842  10.601 -0.5380  1.2876  0.1633
39990SOL     OW28937   4.220   7.251  11.962 -0.1977  0.2266  0.3272
39990SOL    HW128938   4.224   7.339  12.000 -1.5067  0.5580 -0.2724
39990SOL    HW228939   4.284   7.254  11.891  1.3303 -0.0003  1.6340
39991SOL     OW28940   0.335   4.184   5.831  0.2799  0.0024 -0.7781
39991SOL    HW128941   0.407   4.229   5.875  0.3280  1.2157 -2.0636
39991SOL    HW228942   0.374   4.102   5.800  0.7625  0.0753 -0.3861
39992SOL     OW28943   6.280  10.807   6.562 -0.0593 -0.0992 -0.0110
39992SOL    HW128944   6.226  10.755   6.503  0.5265 -0.3050 -0.3675
39992SOL    HW228945   6.234  10.891   6.569 -0.4986 -0.3222 -0.1934
39993SOL     OW28946  12.109   1.120   1.378 -0.3165  0.2518 -0.7087
39993SOL    HW128947  12.083   1.196   1.430  0.7694 -0.3665  0.8229
39993SOL    HW228948  12.028   1.070   1.367 -0.5055  0.1916  0.7837
39994SOL     OW28949   7.156   5.432   5.249 -0.7657  0.0970 -0.0133
39994SOL    HW128950   7.226   5.496   5.245 -0.3724 -0.2470  1.1824
39994SOL    HW228951   7.096   5.466   5.315  1.2348 -2.4315  3.4370
39995SOL     OW28952  11.868   6.363   3.950  0.2297  0.2271 -0.0175
39995SOL    HW128953  11.960   6.338   3.940  0.1923 -0.7777  1.7518
39995SOL    HW228954  11.822   6.314   3.881  0.7327 -1.2155  0.6272
39996SOL     OW28955  10.294   6.128   9.773 -0.5262 -0.0984 -0.0151
39996SOL    HW128956  10.336   6.050   9.736 -1.0081 -1.5357  2.2277
39996SOL    HW228957  10.221   6.147   9.714  1.7858  1.1050 -2.7478
39997SOL     OW28958   5.191   6.545   3.786  0.3387  0.2731 -0.2355
39997SOL    HW128959   5.278   6.582   3.801  0.5858 -0.4659  0.2137
39997SOL    HW228960   5.173   6.495   3.865 -1.1206  1.5773  0.3009
39998SOL     OW28961  12.436   4.600   8.634  0.1352 -0.2208  0.1777
39998SOL    HW128962  12.504   4.618   8.699  1.2197  0.0245 -0.9953
39998SOL    HW228963  12.354   4.622   8.679  0.9139  0.7651  1.1816
39999SOL     OW28964   9.787  12.166  11.881 -0.0259 -0.1587 -0.0619
39999SOL    HW128965   9.859  12.137  11.824 -0.5342 -0.4400 -0.5714
39999SOL    HW228966   9.750  12.242  11.836 -1.0789 -0.9872 -0.6522
40000SOL     OW28967   1.156   1.160   0.960 -0.0450 -0.3203 -0.3894
40000SOL    HW128968   1.144   1.066   0.966  1.8883 -0.6564 -1.1464
40000SOL    HW228969   1.245   1.171   0.925 -0.3619  1.7693 -0.6699
40001SOL     OW28970   8.045   8.607   2.724 -0.4191 -0.1052  0.1316
40001SOL    HW128971   8.096   8.678   2.686  1.2484 -0.8461  0.8562
40001SOL    HW228972   8.106   8.562   2.783 -1.5504 -1.8096  0.0998
40002SOL     OW28973   3.125  10.645   5.938  0.5822  0.1515  0.0410
40002SOL    HW128974   3.103  10.726   5.983  1.0238  0.3692 -0.1256
40002SOL    HW228975   3.204  10.613   5.982  0.2954 -0.2975  0.2382
40003SOL     OW28976   4.909   7.094   3.234 -0.1780 -0.1158  0.1546
40003SOL    HW128977   4.860   7.033   3.178  1.0327 -0.5748 -0.4367
40003SOL    HW228978   4.870   7.179   3.215  0.3936 -0.2130 -1.6435
40004SOL     OW28979   8.140   1.249   4.346  0.1566 -0.0599  0.0729
40004SOL    HW128980   8.152   1.258   4.252 -1.0427 -2.0407 -0.3313
40004SOL    HW228981   8.072   1.313   4.367  1.3545  1.3304 -0.1159
40005SOL     OW28982   3.851   7.594   0.143  0.2774 -0.1534  0.0445
40005SOL    HW128983   3.904   7.517   0.161  2.0769  1.0961  0.4779
40005SOL    HW228984   3.905   7.647   0.084  0.4097  2.0192  1.9462
40006SOL     OW28985   4.126   1.205  11.162  0.0433  0.3426  0.1444
40006SOL    HW128986   4.033   1.218  11.182 -0.3513 -1.2620 -0.5365
40006SOL    HW228987   4.135   1.234  11.071  0.2741  0.7137  0.2819
40007SOL     OW28988   3.836  12.458  10.606  0.5707 -0.0949  0.8258
40007SOL    HW128989   3.918  12.460  10.556  0.6775 -0.1015  1.0008
40007SOL    HW228990   3.788  12.535  10.575 -0.6290 -1.6450 -1.3888
40008SOL     OW28991   7.804   2.835   2.474 -0.3197 -0.0033  0.0944
40008SOL    HW128992   7.827   2.758   2.422  0.7526  1.6953 -2.1442
40008SOL    HW228993   7.885   2.856   2.521 -0.5392 -0.1340  0.5237
40009SOL     OW28994   5.919   3.946   5.082  1.0142  0.3987 -0.2376
40009SOL    HW128995   5.955   3.881   5.143  0.6301  0.8878  0.5159
40009SOL    HW228996   5.827   3.922   5.073  0.1635  2.3477  2.1368
40010SOL     OW28997  11.118   7.598   0.415 -0.0137 -0.4204  1.0358
40010SOL    HW128998  11.062   7.548   0.355 -0.9723 -0.2469  1.7557
40010SOL    HW228999  11.178   7.533   0.451 -1.2171 -1.0922  1.9238
40011SOL     OW29000   3.336   7.839   5.086 -0.2520 -0.5355 -0.1584
40011SOL    HW129001   3.382   7.922   5.080  1.4508 -1.4595 -0.4842
40011SOL    HW229002   3.405   7.772   5.084 -1.5217 -1.9536  0.6298
40012SOL     OW29003   8.110   2.206   1.574  0.3488  0.5819 -0.0851
40012SOL    HW129004   8.123   2.268   1.646  0.4776  0.5978 -0.1209
40012SOL    HW229005   8.195   2.164   1.564  0.2615  0.4024 -0.0632
40013SOL     OW29006   8.376   6.749   3.124 -0.2971 -0.1056  0.2531
40013SOL    HW129007   8.336   6.699   3.196 -0.8114  0.7476  0.5735
40013SOL    HW229008   8.437   6.688   3.084  1.0336 -0.1843  2.2706
40014SOL     OW29009  12.380   6.690   7.528 -0.6400  0.2589  1.0789
40014SOL    HW129010  12.336   6.736   7.600 -1.5506  0.7695  0.2162
40014SOL    HW229011  12.457   6.744   7.508 -1.1404  0.8659  0.7593
40015SOL     OW29012  10.259  11.001   2.104 -0.5836 -0.0043  0.4184
40015SOL    HW129013  10.236  11.058   2.031 -0.5780  0.7755  1.0127
40015SOL    HW229014  10.184  11.006   2.163 -0.9236 -1.2525  0.1033
40016SOL     OW29015   1.330   1.178   4.328 -0.0562  0.0925 -0.6532
40016SOL    HW129016   1.404   1.124   4.300  0.0607 -0.5354  0.7842
40016SOL    HW229017   1.306   1.143   4.413 -0.9754  1.3395 -0.3752
40017SOL     OW29018   5.899   6.527   6.777  0.0987  0.1571  0.0135
40017SOL    HW129019   5.879   6.569   6.861 -0.6536  0.4166 -0.2957
40017SOL    HW229020   5.943   6.446   6.802 -1.9944 -0.8175  0.7483
40018SOL     OW29021   5.242   2.945   0.210 -0.4892 -0.2560  0.2709
40018SOL    HW129022   5.199   2.866   0.243  1.4463 -0.9293  1.3780
40018SOL    HW229023   5.239   3.007   0.284  0.7484 -0.4773  0.5381
40019SOL     OW29024   7.450  10.969   7.996  0.6059 -0.4932 -0.1725
40019SOL    HW129025   7.358  10.985   7.976  0.8711 -0.6305 -1.6271
40019SOL    HW229026   7.488  11.056   8.008  0.1941 -0.4554  0.9522
40020SOL     OW29027   1.431   5.745   8.465  0.0970  0.0891 -0.2313
40020SOL    HW129028   1.389   5.692   8.397 -0.6489  0.2008  0.1408
40020SOL    HW229029   1.503   5.689   8.497  0.2296 -0.1059 -0.8588
40021SOL     OW29030   4.805  11.195  11.136 -0.3147  0.0290  0.1294
40021SOL    HW129031   4.796  11.172  11.044 -0.9860  0.1584  0.1597
40021SOL    HW229032   4.776  11.286  11.142 -3.1899 -0.8332  0.9348
40022SOL     OW29033  10.252   4.980   5.062  0.4433  0.7780  0.3832
40022SOL    HW129034  10.159   4.967   5.078  0.5906  0.4850  1.0036
40022SOL    HW229035  10.271   4.925   4.986  0.0983  0.8976  0.2095
40023SOL     OW29036   4.438  10.698   1.335  0.3478 -0.6480 -0.0211
40023SOL    HW129037   4.412  10.759   1.404  1.3630 -0.1081 -0.0965
40023SOL    HW229038   4.439  10.750   1.256 -0.7521 -1.2526 -0.4582
40024SOL     OW29039   2.860   4.157  10.982  0.0555  0.1649  0.4531
40024SOL    HW129040   2.843   4.177  11.074  0.8823  0.5393  0.5295
40024SOL    HW229041   2.781   4.187  10.937 -0.5404 -0.4136  1.0793
40025SOL     OW29042   1.275   2.274   0.950  0.3941  0.7604  0.0583
40025SOL    HW129043   1.193   2.249   0.907 -0.1653 -0.0994  1.5291
40025SOL    HW229044   1.248   2.305   1.036  1.5870  0.8712  0.4106
40026SOL     OW29045   9.647   2.929   3.086 -0.4887 -0.6210 -0.3625
40026SOL    HW129046   9.641   2.958   2.995 -2.4425 -0.2367 -0.1596
40026SOL    HW229047   9.558   2.938   3.119  0.3870  0.2302  1.9033
40027SOL     OW29048   4.657  10.658  12.305 -0.2529  0.5190  0.3340
40027SOL    HW129049   4.598  10.684  12.234  1.8572  1.2584 -1.2679
40027SOL    HW229050   4.720  10.730  12.311  1.4524 -0.9591  0.8076
40028SOL     OW29051  11.967   4.209  11.564 -0.1475  0.0093  0.0397
40028SOL    HW129052  12.004   4.141  11.507  0.0396  0.0004  0.1702
40028SOL    HW229053  11.967   4.288  11.511 -0.0263 -0.0121  0.0071
40029SOL     OW29054   3.537   6.518   0.832 -0.0811 -0.2000  0.3888
40029SOL    HW129055   3.550   6.466   0.752  0.8993 -1.5129  1.3592
40029SOL    HW229056   3.626   6.542   0.859 -0.3872 -0.0140  1.2407
40030SOL     OW29057  12.078  10.811   2.897  0.1075  0.3438 -0.1542
40030SOL    HW129058  12.098  10.721   2.924  0.7956  0.9296  1.3940
40030SOL    HW229059  12.004  10.836   2.951 -1.0377  0.2510 -1.6141
40031SOL     OW29060   8.906   1.725   6.189  0.3173  0.3476 -0.3680
40031SOL    HW129061   8.906   1.634   6.159 -0.8329  0.7118 -1.5725
40031SOL    HW229062   8.836   1.729   6.254  1.7505 -0.0717  1.2695
40032SOL     OW29063  11.101   1.839  11.501  0.3999 -0.1379  0.4492
40032SOL    HW129064  11.188   1.827  11.463  0.6604 -1.4924  1.4058
40032SOL    HW229065  11.050   1.766  11.464 -0.1831  0.3362  0.3154
40033SOL     OW29066  10.575   7.042   2.353  0.3863 -0.2456 -0.3443
40033SOL    HW129067  10.608   7.049   2.443 -0.8492  1.5343  0.0362
40033SOL    HW229068  10.652   7.017   2.301  1.1498 -1.2262  1.1693
40034SOL     OW29069  10.437   7.175   6.902  0.3400  0.1060  0.6539
40034SOL    HW129070  10.358   7.137   6.941  0.2285 -0.2244  0.1174
40034SOL    HW229071  10.412   7.194   6.812  0.1082  2.3235  1.1292
40035SOL     OW29072  10.881   7.640   1.491  0.4404  0.1727 -0.3539
40035SOL    HW129073  10.928   7.622   1.572  1.6940  0.1567 -1.0595
40035SOL    HW229074  10.913   7.725   1.462 -1.9508  1.4421  0.4874
40036SOL     OW29075   7.488   6.326   3.625  0.0170  0.5591 -0.4180
40036SOL    HW129076   7.465   6.396   3.563  0.2253 -0.9198 -2.2627
40036SOL    HW229077   7.419   6.327   3.690 -0.7473  1.5732 -1.2137
40037SOL     OW29078   8.113   2.853   6.677  0.0797  0.1976 -0.5405
40037SOL    HW129079   8.060   2.814   6.607  1.8279 -0.6717 -1.4674
40037SOL    HW229080   8.055   2.857   6.752 -1.7262  0.6928 -1.8942
40038SOL     OW29081  10.306   2.528  11.353  0.4543  0.0506  0.0968
40038SOL    HW129082  10.268   2.442  11.366 -0.1544 -0.2696 -2.9450
40038SOL    HW229083  10.366   2.540  11.427 -1.0014 -2.0293  1.7264
40039SOL     OW29084  11.762  10.125   8.304 -0.6898 -0.6030 -0.4367
40039SOL    HW129085  11.676  10.083   8.312 -0.9201  0.0285  0.5018
40039SOL    HW229086  11.742  10.216   8.282 -0.2451 -0.5204 -0.5122
40040SOL     OW29087   2.433   9.362   0.654 -0.2063 -0.1811 -0.0446
40040SOL    HW129088   2.468   9.375   0.742  1.9581 -1.4885 -0.6017
40040SOL    HW229089   2.369   9.292   0.664  1.0737 -1.3517  0.3464
40041SOL     OW29090  12.060   3.375   3.719  0.3167 -0.1806  0.5081
40041SOL    HW129091  12.090   3.341   3.803 -0.2340  0.0374  0.8019
40041SOL    HW229092  11.965   3.385   3.730 -0.3502 -3.2616 -1.2013
40042SOL     OW29093   5.313   5.214   7.506 -0.3354  0.0425 -0.1346
40042SOL    HW129094   5.309   5.122   7.532  0.2382  0.0825  0.1153
40042SOL    HW229095   5.403   5.241   7.526 -0.5930  0.7512  0.1181
40043SOL     OW29096   2.657   0.195   6.334  0.4820 -0.5542 -0.3093
40043SOL    HW129097   2.698   0.175   6.418  0.1048 -0.7761 -0.1742
40043SOL    HW229098   2.625   0.111   6.302  2.2658 -0.7967 -1.5832
40044SOL     OW29099   1.262   3.519   3.520  0.2893  0.2448 -0.4788
40044SOL    HW129100   1.176   3.504   3.482  0.3440  0.7525 -0.8129
40044SOL    HW229101   1.267   3.614   3.532  0.9002  0.2488 -0.7018
40045SOL     OW29102   5.388   8.509   3.615 -0.0718 -0.0641  0.1589
40045SOL    HW129103   5.478   8.521   3.584 -0.3049  0.5818 -0.3097
40045SOL    HW229104   5.380   8.415   3.631  0.6293 -0.1537  0.0300
40046SOL     OW29105   8.788   1.152   8.890 -0.5887 -0.2622  0.3597
40046SOL    HW129106   8.861   1.211   8.873 -0.5481 -0.2564  0.5491
40046SOL    HW229107   8.815   1.103   8.967 -1.2249  0.4692  1.0656
40047SOL     OW29108  10.387   2.923   5.933 -0.4057  0.7284  0.4210
40047SOL    HW129109  10.373   2.829   5.929  0.6917  0.5413  0.4917
40047SOL    HW229110  10.312   2.957   5.982 -0.7350 -0.1231  0.5235
40048SOL     OW29111   7.363   9.841   2.350 -0.2748 -0.2085 -0.7724
40048SOL    HW129112   7.335   9.751   2.335 -0.2063 -0.2884 -0.4446
40048SOL    HW229113   7.360   9.851   2.445 -2.6895  0.9114 -0.8994
40049SOL     OW29114   7.370  11.434   4.079 -0.0138  0.0151  0.4941
40049SOL    HW129115   7.300  11.395   4.026 -0.2324  2.1506 -0.9173
40049SOL    HW229116   7.324  11.483   4.147  0.2373 -1.2012  1.5848
40050SOL     OW29117   5.798   5.978   4.635 -0.0183  0.5713 -0.0518
40050SOL    HW129118   5.785   6.067   4.669  0.0705  1.2651 -1.7208
40050SOL    HW229119   5.832   5.929   4.710  0.0634  1.9727  0.8814
40051SOL     OW29120   1.777   9.959   1.448 -0.1745  0.1491  0.1734
40051SOL    HW129121   1.790   9.868   1.419 -2.0994  0.5868 -2.3969
40051SOL    HW229122   1.682   9.968   1.455 -0.0584  2.1653 -0.3738
40052SOL     OW29123  11.340   1.429  11.718 -0.0053  0.4616  0.5660
40052SOL    HW129124  11.244   1.430  11.721 -0.0301 -0.2000  0.2651
40052SOL    HW229125  11.367   1.493  11.783 -0.6364 -0.7114  2.0359
40053SOL     OW29126   6.901   0.475   3.889  0.5399 -0.1670  0.0071
40053SOL    HW129127   6.950   0.394   3.905  0.1579 -0.5098 -0.5238
40053SOL    HW229128   6.968   0.537   3.861  0.8324 -0.3090  0.3741
40054SOL     OW29129   1.773  12.408   9.619 -0.2485 -0.0792  0.0400
40054SOL    HW129130   1.697  12.466   9.628  0.4943  0.7712  0.9956
40054SOL    HW229131   1.749  12.349   9.547 -2.3994 -0.7456  1.2039
40055SOL     OW29132  11.303   0.010   7.244 -0.4968  0.1701 -0.1109
40055SOL    HW129133  11.311  -0.085   7.252  0.2715  0.2261 -0.1082
40055SOL    HW229134  11.259   0.023   7.160  2.1919 -0.1464 -1.7051
40056SOL     OW29135   6.248  12.401   0.628 -0.1428 -0.2114  0.0200
40056SOL    HW129136   6.292  12.464   0.570 -1.5724 -1.7892 -3.0315
40056SOL    HW229137   6.191  12.456   0.682 -0.7227  1.2779 -1.9450
40057SOL     OW29138   7.198   1.299   3.572 -0.1410 -0.1415 -0.2308
40057SOL    HW129139   7.113   1.261   3.549 -0.5522  0.3320  0.4894
40057SOL    HW229140   7.256   1.273   3.499 -0.7514 -0.9459 -0.4469
40058SOL     OW29141   9.639   4.102   6.518 -0.5285 -0.1012  0.3745
40058SOL    HW129142   9.710   4.166   6.514 -1.6168  1.1329 -0.3474
40058SOL    HW229143   9.664   4.035   6.454  0.0696  0.2201  0.2591
40059SOL     OW29144  10.952  12.304   8.421  0.1149  0.3137  0.1093
40059SOL    HW129145  10.921  12.284   8.333 -0.4997  1.4284  0.0535
40059SOL    HW229146  11.011  12.379   8.410  2.2204 -1.2138  0.3301
40060SOL     OW29147   9.636   2.837   8.872  0.3024  0.1800  0.1474
40060SOL    HW129148   9.548   2.827   8.834 -0.3376  2.1967  0.9742
40060SOL    HW229149   9.687   2.766   8.832 -1.2961 -0.1064 -1.5512
40061SOL     OW29150   9.189   4.468   7.269 -0.3162 -0.2683 -0.0197
40061SOL    HW129151   9.156   4.394   7.219  0.2972 -1.0417  0.6821
40061SOL    HW229152   9.234   4.428   7.344 -0.3676  0.8237  0.6213
40062SOL     OW29153  10.304   9.224   4.034  0.2751 -0.4179  0.1944
40062SOL    HW129154  10.247   9.268   3.972 -1.3076 -3.4571 -0.6796
40062SOL    HW229155  10.245   9.184   4.098  1.5194 -1.8758  0.5053
40063SOL     OW29156   5.506   8.560  11.308  0.0170  0.4180 -0.5060
40063SOL    HW129157   5.576   8.501  11.281  1.1043  1.4370  0.0340
40063SOL    HW229158   5.480   8.528  11.395 -0.1518  0.0770 -0.6815
40064SOL     OW29159   7.513   1.766   1.279 -0.0936  0.4090  0.4991
40064SOL    HW129160   7.431   1.804   1.312  1.0175  0.7975  3.1209
40064SOL    HW229161   7.576   1.779   1.351  1.2445 -3.4880  0.3027
40065SOL     OW29162  10.588   8.947   6.267 -0.2645 -0.1556  0.2799
40065SOL    HW129163  10.492   8.947   6.268 -0.2935 -0.5503 -0.7263
40065SOL    HW229164  10.613   8.973   6.356 -1.2981 -1.6991  1.0665
40066SOL     OW29165   1.772   3.128   6.678 -0.4235  0.0657 -0.4121
40066SOL    HW129166   1.709   3.101   6.611  0.9850  0.4080 -1.9470
40066SOL    HW229167   1.805   3.212   6.646  0.1440  0.3359  0.8385
40067SOL     OW29168   9.560  11.192   2.190  0.1052 -0.5696 -0.2987
40067SOL    HW129169   9.564  11.248   2.267 -1.8237  1.1678 -1.3807
40067SOL    HW229170   9.546  11.104   2.225 -1.7301  0.3053  1.3710
40068SOL     OW29171  10.379   6.985   3.277 -0.5224  0.1846 -0.2504
40068SOL    HW129172  10.336   6.903   3.301  1.1141 -0.6072  0.1383
40068SOL    HW229173  10.457   6.957   3.229 -0.1557  1.5439 -0.4771
40069SOL     OW29174   0.196   0.143   6.757 -0.0265 -0.3984  0.5790
40069SOL    HW129175   0.266   0.081   6.738  0.7938  1.1323 -1.9052
40069SOL    HW229176   0.115   0.098   6.732  0.6157 -0.3172 -1.8715
40070SOL     OW29177   4.516   8.070   7.982 -0.7389 -0.5264 -0.2809
40070SOL    HW129178   4.494   8.111   7.899 -0.7173  0.8676  0.3607
40070SOL    HW229179   4.471   8.124   8.048  0.5221 -0.6168  0.7079
40071SOL     OW29180   9.514   1.388   8.059  0.6143 -0.1450  0.5682
40071SOL    HW129181   9.432   1.428   8.032 -0.2829 -1.5798  1.0523
40071SOL    HW229182   9.532   1.426   8.146  0.6826  0.4570  0.2967
40072SOL     OW29183   4.662   5.127   3.048  0.5101 -0.7295  0.1432
40072SOL    HW129184   4.631   5.216   3.034 -0.2670 -1.0655 -0.2820
40072SOL    HW229185   4.711   5.105   2.969  2.4181  0.0137  1.0482
40073SOL     OW29186   8.866  11.177  10.984 -0.1379 -0.3686  0.0673
40073SOL    HW129187   8.949  11.222  10.999  0.1621 -1.0196  0.3736
40073SOL    HW229188   8.861  11.166  10.889  1.2047 -2.3240  0.1788
40074SOL     OW29189   7.061   6.620   2.478  0.2528  0.3374  0.6587
40074SOL    HW129190   7.026   6.696   2.523  0.5099  0.6938  0.2698
40074SOL    HW229191   7.004   6.607   2.403  0.9535  0.9393  0.0068
40075SOL     OW29192   7.246   3.190   2.528 -0.4301  0.2024  0.2331
40075SOL    HW129193   7.165   3.140   2.533 -0.8710  1.0381  2.7244
40075SOL    HW229194   7.305   3.147   2.590 -0.0768  1.4743  0.8172
40076SOL     OW29195  10.498   9.449   7.629 -0.5769  0.5914 -0.3854
40076SOL    HW129196  10.431   9.399   7.582 -0.5522 -1.3588  1.4868
40076SOL    HW229197  10.508   9.402   7.712  0.6903  2.8007  0.7872
40077SOL     OW29198   6.305   6.955  11.583  0.0178  0.2327 -0.3015
40077SOL    HW129199   6.399   6.935  11.584 -0.2544 -1.1918 -0.9220
40077SOL    HW229200   6.285   6.978  11.674  1.1133  1.4128 -0.3274
40078SOL     OW29201   8.231   6.704   9.063 -0.2041  0.4462  0.7290
40078SOL    HW129202   8.272   6.673   8.982  2.0671 -0.9456  2.2758
40078SOL    HW229203   8.148   6.657   9.068 -0.9693  1.4520 -1.3082
40079SOL     OW29204  10.947   5.970   8.334  0.0680  0.2648 -0.5035
40079SOL    HW129205  10.857   5.987   8.360  0.2446 -1.3438  1.4061
40079SOL    HW229206  11.000   6.030   8.387  0.2240 -0.4817  0.2117
40080SOL     OW29207   3.609   3.554   5.222 -0.2439  0.0215 -0.4671
40080SOL    HW129208   3.558   3.628   5.254 -0.6514 -0.1018 -0.8177
40080SOL    HW229209   3.620   3.498   5.298 -2.1386 -0.8046 -0.7448
40081SOL     OW29210  12.441   7.871   7.278  0.3455  0.5295 -0.4623
40081SOL    HW129211  12.535   7.854   7.272  0.0476 -2.5148  1.4541
40081SOL    HW229212  12.407   7.852   7.190  1.0932 -2.3658 -0.2301
40082SOL     OW29213   1.258   8.116  10.091 -0.3949 -0.1639  0.2040
40082SOL    HW129214   1.188   8.179  10.105  0.8224  1.1886  0.5113
40082SOL    HW229215   1.281   8.126   9.998  1.1474  1.3725  0.7048
40083SOL     OW29216   4.588   6.253   8.090  0.2560 -0.4335  0.1428
40083SOL    HW129217   4.682   6.247   8.075  0.1921 -1.7527  0.1624
40083SOL    HW229218   4.576   6.218   8.179 -0.3543 -1.3230 -0.2718
40084SOL     OW29219   7.204  11.986  10.283  0.1093 -0.0942  0.1227
40084SOL    HW129220   7.260  11.970  10.206  0.8972  2.1362  0.1667
40084SOL    HW229221   7.164  12.071  10.266  0.2420  0.4197  2.1574
40085SOL     OW29222  11.702   1.869   4.785  0.4685 -0.3195  0.0052
40085SOL    HW129223  11.617   1.829   4.767  0.2264 -0.0420  0.5166
40085SOL    HW229224  11.765   1.808   4.747  0.0231 -0.2006 -0.9561
40086SOL     OW29225   3.438   0.134   9.378  0.7623  0.1065  0.1390
40086SOL    HW129226   3.527   0.133   9.412  0.8934 -1.3304 -0.1575
40086SOL    HW229227   3.441   0.079   9.300  0.3283  2.7641 -1.8965
40087SOL     OW29228   6.527   5.318   7.032 -0.7871 -0.6289  0.3968
40087SOL    HW129229   6.580   5.257   6.980 -0.4920  1.1374 -1.5146
40087SOL    HW229230   6.475   5.262   7.088 -0.9595 -2.7079 -1.6777
40088SOL     OW29231   9.068  10.437   3.540 -0.1794 -0.3438 -0.2136
40088SOL    HW129232   8.978  10.450   3.568 -0.3312  1.2284 -1.2832
40088SOL    HW229233   9.063  10.367   3.476 -0.4998 -0.8624  0.3718
40089SOL     OW29234   8.358   0.837  11.229 -0.4355  0.7782 -0.5559
40089SOL    HW129235   8.347   0.759  11.174  1.9325  0.8629 -1.2782
40089SOL    HW229236   8.293   0.899  11.197 -1.0541 -0.2129 -1.2770
40090SOL     OW29237  11.968  12.406   7.888  0.4884  0.0506 -0.1288
40090SOL    HW129238  12.055  12.392   7.926  0.7605 -1.2856 -1.1910
40090SOL    HW229239  11.926  12.468   7.948  2.4004  1.2709  0.0564
40091SOL     OW29240   2.392   6.830  11.209 -0.2627  0.0340  0.5315
40091SOL    HW129241   2.374   6.743  11.245  0.2366  0.0138  0.7510
40091SOL    HW229242   2.308   6.875  11.211 -1.0910 -1.2315 -1.8594
40092SOL     OW29243   1.691   5.889   7.740  0.3919  0.0194  0.1958
40092SOL    HW129244   1.679   5.811   7.687 -1.3558  0.5633 -0.2684
40092SOL    HW229245   1.628   5.953   7.705  0.8260  1.1821  1.4157
40093SOL     OW29246  10.236  10.841   0.577  0.0302  0.3774  0.1285
40093SOL    HW129247  10.178  10.915   0.558  0.2441  0.9050  1.4574
40093SOL    HW229248  10.293  10.834   0.499 -1.7046 -0.0957 -1.1560
40094SOL     OW29249   7.080   5.847   2.273  0.3479  0.2268  0.5240
40094SOL    HW129250   7.088   5.775   2.210  1.4249 -0.3488  1.2839
40094SOL    HW229251   7.007   5.820   2.329 -0.6883  0.7941 -0.5062
40095SOL     OW29252   6.711  11.069   9.047 -0.0546 -0.0985 -0.3329
40095SOL    HW129253   6.757  10.987   9.030  1.0821  0.2908  0.6640
40095SOL    HW229254   6.730  11.124   8.971  0.1619 -0.3467 -0.4599
40096SOL     OW29255   7.110   7.489   3.559 -1.2103 -0.1607  0.9888
40096SOL    HW129256   7.127   7.408   3.511 -1.4685 -0.8361  2.0002
40096SOL    HW229257   7.194   7.535   3.560 -0.8931 -0.7323  0.9781
40097SOL     OW29258   4.130   9.386   0.205  0.1000 -0.5434  0.5284
40097SOL    HW129259   4.108   9.322   0.137 -0.5273 -1.5458  1.6535
40097SOL    HW229260   4.050   9.437   0.216 -0.4558 -1.6460  1.8537
40098SOL     OW29261   7.735   1.456   5.949  0.1226 -0.0464  0.4145
40098SOL    HW129262   7.747   1.380   5.892 -1.2468  0.0921 -0.1012
40098SOL    HW229263   7.722   1.530   5.889 -3.7827 -0.2697  0.6985
40099SOL     OW29264  10.922   1.786   4.755 -0.6881  0.3732 -0.8186
40099SOL    HW129265  10.970   1.719   4.803 -0.1803  1.2173 -0.1027
40099SOL    HW229266  10.864   1.826   4.820 -0.2269  1.3179 -0.9649
40100SOL     OW29267   3.905   9.073   7.559 -0.4345 -0.1336 -0.2321
40100SOL    HW129268   3.869   9.161   7.550 -0.5732 -0.2197 -0.5257
40100SOL    HW229269   3.903   9.036   7.471 -0.2468 -0.3819 -0.1368
40101SOL     OW29270   1.055  11.329   0.303 -0.3647  0.6429 -0.3449
40101SOL    HW129271   0.983  11.390   0.320  0.6649  2.4471 -1.9824
40101SOL    HW229272   1.013  11.252   0.264 -1.5363  1.0002  0.1735
40102SOL     OW29273   1.817   6.175   4.143 -0.0031 -0.3517 -0.4700
40102SOL    HW129274   1.865   6.221   4.212  0.8177 -1.4504 -0.2720
40102SOL    HW229275   1.747   6.236   4.117  0.2612  0.4632  0.6508
40103SOL     OW29276   9.870   9.442   6.921  0.0052 -0.3960 -0.1051
40103SOL    HW129277   9.909   9.519   6.879 -0.5911  0.2157  0.4460
40103SOL    HW229278   9.838   9.389   6.848  1.5659 -0.7588 -0.5549
40104SOL     OW29279  12.011   4.071   0.340 -0.3571  0.2114  0.7642
40104SOL    HW129280  11.986   3.983   0.312  0.0210  0.4534 -0.4067
40104SOL    HW229281  11.931   4.109   0.376 -0.4446 -0.7156  1.5695
40105SOL     OW29282   2.043   9.852   8.946 -0.4433  0.0357 -0.8484
40105SOL    HW129283   1.977   9.921   8.951 -1.7482 -1.2208  0.6522
40105SOL    HW229284   1.993   9.773   8.923  0.3059 -1.1640  1.3674
40106SOL     OW29285   9.075  11.515   6.397  0.3027  0.1211 -0.1008
40106SOL    HW129286   9.097  11.586   6.459 -0.0690 -0.4076  0.6519
40106SOL    HW229287   8.986  11.489   6.422  0.8678 -1.4111  0.4127
40107SOL     OW29288   5.850  11.088   6.428  0.0873  0.5123  0.1353
40107SOL    HW129289   5.804  11.004   6.428 -0.2788  0.7080  0.9624
40107SOL    HW229290   5.799  11.143   6.368 -2.1167  1.4241  2.6576
40108SOL     OW29291   9.099  11.305  12.528  0.6791  0.6285 -1.0986
40108SOL    HW129292   9.137  11.346  12.451  0.5766  1.3915 -0.7493
40108SOL    HW229293   9.171  11.302  12.591  0.4568  1.0725 -0.8212
40109SOL     OW29294   8.378  10.023   7.647 -0.0265 -0.1187  0.2157
40109SOL    HW129295   8.299   9.992   7.691 -1.8038  3.8535  0.2084
40109SOL    HW229296   8.354  10.028   7.554  0.2248  1.0397  0.1988
40110SOL     OW29297  12.424   4.419  11.479 -0.0037  0.2787  0.1469
40110SOL    HW129298  12.413   4.437  11.385  1.6540  0.0298 -0.1318
40110SOL    HW229299  12.424   4.505  11.520  0.2830  0.4640 -0.2262
40111SOL     OW29300   5.169   8.449   0.193  0.2053 -0.2946 -0.6104
40111SOL    HW129301   5.137   8.428   0.281 -1.1405 -0.2970 -1.0810
40111SOL    HW229302   5.188   8.365   0.153  2.1834 -0.2598  0.1225
40112SOL     OW29303   4.424   1.789   8.292  0.9109  0.8581 -0.3613
40112SOL    HW129304   4.406   1.836   8.373  1.3248 -0.5961  0.6108
40112SOL    HW229305   4.338   1.759   8.261  0.9051  0.0626  0.4038
40113SOL     OW29306   0.897   2.419   8.190  0.4204  0.0575  0.1911
40113SOL    HW129307   0.906   2.503   8.235  0.8151 -0.5416  1.2635
40113SOL    HW229308   0.941   2.432   8.106  1.3809  0.6198  0.7670
40114SOL     OW29309   4.492   4.541   7.439 -0.5234  0.3451  0.2833
40114SOL    HW129310   4.455   4.546   7.527  1.0435 -1.2832  1.1064
40114SOL    HW229311   4.443   4.471   7.397 -2.0379  1.8533 -0.6133
40115SOL     OW29312  10.716   2.170   1.735 -0.4723  0.0997  0.0986
40115SOL    HW129313  10.675   2.084   1.728 -1.0819  0.4194 -0.3083
40115SOL    HW229314  10.730   2.197   1.644 -0.0083  0.3038  0.2273
40116SOL     OW29315   9.688   0.979   0.745  0.0286  1.0306  0.0022
40116SOL    HW129316   9.695   1.070   0.772  0.8626  1.1152 -0.4874
40116SOL    HW229317   9.596   0.957   0.761  0.0852  1.5834  1.2706
40117SOL     OW29318   1.349   1.269   9.872 -0.2775  0.2396  0.6477
40117SOL    HW129319   1.435   1.230   9.882 -0.4659  0.0038  1.4748
40117SOL    HW229320   1.365   1.353   9.829 -0.1315 -1.8549 -3.8642
40118SOL     OW29321   3.220   8.271   8.930 -0.1357  0.1733 -1.0186
40118SOL    HW129322   3.137   8.310   8.957  0.1300  0.9292 -1.2624
40118SOL    HW229323   3.196   8.209   8.860 -0.7232 -1.1829  0.3186
40119SOL     OW29324  12.312   7.805  11.575  0.1879  0.3853 -0.2720
40119SOL    HW129325  12.367   7.879  11.602  0.1157 -0.2660  1.8823
40119SOL    HW229326  12.225   7.827  11.608 -0.1021 -0.1325 -0.6843
40120SOL     OW29327   7.312   2.893   3.897 -0.6307  0.6631 -0.3926
40120SOL    HW129328   7.371   2.942   3.955 -0.3707 -1.2303  1.0695
40120SOL    HW229329   7.226   2.900   3.939 -0.4953 -0.4707  0.1398
40121SOL     OW29330   7.170   5.475   5.901  0.4727 -0.1018 -0.8327
40121SOL    HW129331   7.132   5.532   5.967  0.6847 -0.3806 -0.4675
40121SOL    HW229332   7.138   5.510   5.818  0.1084  0.1755 -0.5783
40122SOL     OW29333   3.634   7.120   1.274 -0.3821 -0.4970 -0.0109
40122SOL    HW129334   3.630   7.189   1.208 -1.9177 -3.0480 -2.8210
40122SOL    HW229335   3.724   7.087   1.268 -0.2490 -0.1034 -0.1789
40123SOL     OW29336   6.975  11.843  12.235  1.0749 -0.0074  0.4642
40123SOL    HW129337   7.053  11.887  12.270  1.3281 -0.6905  0.7886
40123SOL    HW229338   6.909  11.853  12.304  0.6520  1.1462 -0.0860
40124SOL     OW29339   4.981  11.581   8.557 -0.3144  0.0292 -0.1986
40124SOL    HW129340   5.015  11.528   8.628  1.9221  0.5364 -0.8190
40124SOL    HW229341   4.944  11.518   8.495 -0.9886 -0.5003  0.7161
40125SOL     OW29342   4.313   0.610  10.472 -0.4519  0.2664 -0.3006
40125SOL    HW129343   4.277   0.587  10.557  0.2132  1.3180  0.2862
40125SOL    HW229344   4.361   0.532  10.444 -1.3390 -0.3684 -0.0915
40126SOL     OW29345   9.770   0.298   0.030  0.0686 -0.9168  1.0032
40126SOL    HW129346   9.691   0.299   0.085 -0.1684 -0.4052  0.6638
40126SOL    HW229347   9.785   0.206   0.013 -1.1564 -0.9779  0.1028
40127SOL     OW29348   9.124   1.074   0.951 -0.2958 -0.3255  0.0812
40127SOL    HW129349   9.065   1.121   0.892 -0.9881  1.8340  2.3313
40127SOL    HW229350   9.203   1.128   0.956 -0.9173  0.4870  2.3543
40128SOL     OW29351   6.906   8.410  10.003 -0.3293 -0.2074 -0.2537
40128SOL    HW129352   7.001   8.396   9.996 -0.3459 -1.9741  1.9152
40128SOL    HW229353   6.871   8.373   9.921  0.7301 -1.4460 -0.1915
40129SOL     OW29354  12.272   1.029   4.506  0.1919 -0.5790  0.0440
40129SOL    HW129355  12.204   1.091   4.477  2.0545  1.3648 -0.4135
40129SOL    HW229356  12.236   0.943   4.487 -2.1530  0.3694 -0.1397
40130SOL     OW29357   8.044   0.523   2.791  0.3420 -0.0767  0.1736
40130SOL    HW129358   7.987   0.512   2.867  0.1184 -1.9943 -0.2246
40130SOL    HW229359   8.129   0.548   2.828 -0.2430  0.8969  0.8955
40131SOL     OW29360   1.119   6.524  10.494 -0.5117  0.1699  0.5990
40131SOL    HW129361   1.191   6.563  10.443  0.5422 -0.4161  1.5781
40131SOL    HW229362   1.047   6.585  10.483 -0.4163 -0.0159 -1.7376
40132SOL     OW29363   8.044   9.122   3.941 -0.0700  0.2549  0.5531
40132SOL    HW129364   8.031   9.209   3.979 -1.5585  0.5816 -0.6205
40132SOL    HW229365   8.100   9.077   4.004 -1.7009  1.0645  2.7041
40133SOL     OW29366   4.132  12.537   3.555  0.3004 -0.2994 -0.4948
40133SOL    HW129367   4.056  12.503   3.603 -0.1123 -2.2527 -2.3646
40133SOL    HW229368   4.204  12.479   3.580  0.7019  0.2631 -0.3188
40134SOL     OW29369  12.419   0.968   1.582 -0.0359  0.2586 -0.1192
40134SOL    HW129370  12.345   0.959   1.642  0.2851  0.4079  0.3089
40134SOL    HW229371  12.442   0.877   1.560  0.1164  0.1867  0.3283
40135SOL     OW29372   5.031  12.545   2.992  0.4096  0.3746  0.1342
40135SOL    HW129373   5.103  12.511   3.045 -0.2816  1.2960  1.7409
40135SOL    HW229374   5.073  12.580   2.913  1.4889 -0.8433  0.1421
40136SOL     OW29375  10.782   6.707   2.324 -0.9522  0.2205  0.2959
40136SOL    HW129376  10.784   6.788   2.273  0.5754 -0.6044 -1.0489
40136SOL    HW229377  10.872   6.694   2.353 -1.5764  0.1007  2.3790
40137SOL     OW29378   9.733   8.272  11.482 -0.3016  0.1623  0.0039
40137SOL    HW129379   9.718   8.208  11.552  0.5138  0.2370  0.2484
40137SOL    HW229380   9.818   8.310  11.501 -1.4212  2.5113  0.7944
40138SOL     OW29381   3.847   3.959   2.623 -0.2191 -0.0474 -0.9442
40138SOL    HW129382   3.922   3.993   2.671  0.0336 -0.7374 -0.8378
40138SOL    HW229383   3.842   4.013   2.544  0.3514  0.0470 -0.9174
40139SOL     OW29384   7.810   7.788   7.716 -0.0671  0.8149  0.6235
40139SOL    HW129385   7.715   7.774   7.711  0.3334 -2.4625 -0.1208
40139SOL    HW229386   7.832   7.831   7.634 -0.5919 -1.6064 -0.9038
40140SOL     OW29387   7.577   6.134   1.239  0.0639  0.0028  0.4587
40140SOL    HW129388   7.599   6.066   1.175 -1.0584 -0.3120  0.3945
40140SOL    HW229389   7.599   6.095   1.324  1.2581  0.3057  0.3177
40141SOL     OW29390   4.483   5.080   7.993 -0.2186  0.0719 -0.6102
40141SOL    HW129391   4.505   5.164   7.953 -0.0724 -0.1879 -1.0864
40141SOL    HW229392   4.501   5.016   7.924 -0.0677 -0.3748 -0.1568
40142SOL     OW29393   2.646  11.039   3.192  0.0958 -0.0411 -0.1012
40142SOL    HW129394   2.732  11.033   3.151  0.4300 -0.6851  0.6870
40142SOL    HW229395   2.637  11.131   3.216  0.9768 -0.1552  0.6994
40143SOL     OW29396  12.132   1.511   6.695  0.2962  0.3346 -0.3605
40143SOL    HW129397  12.163   1.532   6.784 -0.3974  0.9964 -0.2630
40143SOL    HW229398  12.076   1.435   6.707  1.3140 -0.4538 -0.4442
40144SOL     OW29399  10.201   8.668   2.002  0.8642  0.3709 -0.8594
40144SOL    HW129400  10.127   8.696   2.055  0.0168 -1.4972 -1.0014
40144SOL    HW229401  10.202   8.573   2.009  4.0283  0.3543  0.1273
40145SOL     OW29402   5.111   1.395   3.702 -0.5408  0.1257  0.7324
40145SOL    HW129403   5.060   1.322   3.738  1.1430 -0.8733  1.2354
40145SOL    HW229404   5.200   1.378   3.731 -0.0642  2.3451  0.7299
40146SOL     OW29405   9.617   9.388   7.836  0.3978 -0.0515 -0.2207
40146SOL    HW129406   9.668   9.428   7.766  0.4464  0.1322 -0.0824
40146SOL    HW229407   9.565   9.320   7.793 -0.5286  0.8969 -0.6457
40147SOL     OW29408   8.768   3.909  12.049 -0.4172 -0.2777 -0.3951
40147SOL    HW129409   8.838   3.955  12.002 -0.4337  0.0173 -0.1344
40147SOL    HW229410   8.687   3.939  12.007 -0.3922 -0.5719 -0.6563
40148SOL     OW29411   3.027   3.658   2.926 -0.1018  0.1249  0.4690
40148SOL    HW129412   3.047   3.706   3.007 -1.5164  1.4542  0.1000
40148SOL    HW229413   2.932   3.644   2.931  0.0631 -1.2902 -0.1878
40149SOL     OW29414   9.496  12.097  11.595  0.2379 -0.1666 -0.5666
40149SOL    HW129415   9.540  12.012  11.587  0.8779  0.1670 -0.6771
40149SOL    HW229416   9.436  12.087  11.668  0.8378 -0.4958 -0.1135
40150SOL     OW29417   6.094   2.832   2.677 -0.3351  0.3777 -0.3394
40150SOL    HW129418   6.029   2.901   2.694 -0.0342  0.3433  1.1114
40150SOL    HW229419   6.047   2.768   2.624 -1.2016  0.8249 -0.1406
40151SOL     OW29420   1.799   7.736  10.147  0.5373  0.2027  0.6768
40151SOL    HW129421   1.715   7.730  10.102  1.4976  1.7662 -1.4912
40151SOL    HW229422   1.864   7.721  10.078  2.0699  0.6171  1.9707
40152SOL     OW29423  10.004  10.357   2.178  0.1995 -0.0881  0.1189
40152SOL    HW129424   9.940  10.346   2.107  0.8204  0.6325 -0.5772
40152SOL    HW229425  10.079  10.306   2.150 -0.4750 -1.9302  1.5078
40153SOL     OW29426   9.135   2.251  10.095 -0.0288 -0.5364  0.0551
40153SOL    HW129427   9.125   2.293  10.180  1.6913 -0.3232  0.1934
40153SOL    HW229428   9.142   2.323  10.033  3.4300 -0.4442  0.3517
40154SOL     OW29429   0.293  11.313  12.012 -0.6419  0.0420  0.3079
40154SOL    HW129430   0.221  11.256  12.039 -1.1767  0.3989 -0.3238
40154SOL    HW229431   0.254  11.372  11.948 -0.1278  1.1824  1.0003
40155SOL     OW29432   9.177  12.467   6.130 -0.6266  0.1755  0.2542
40155SOL    HW129433   9.200  12.378   6.106  0.8703  0.6184 -0.0491
40155SOL    HW229434   9.207  12.477   6.220  1.9962  1.2361 -0.6354
40156SOL     OW29435   9.669   7.108   7.074  0.2148  0.5166  0.8270
40156SOL    HW129436   9.641   7.104   7.165  2.3084  0.4188  1.5207
40156SOL    HW229437   9.740   7.044   7.068 -0.4821 -0.1625 -1.1349
40157SOL     OW29438   5.068   2.666   6.533 -0.3683  0.1747 -0.4614
40157SOL    HW129439   5.025   2.681   6.617 -0.5066  0.2218 -0.5400
40157SOL    HW229440   5.145   2.614   6.555 -1.9182 -2.4025 -0.5977
40158SOL     OW29441   0.305   7.558  11.461  0.0457  0.4245  0.1753
40158SOL    HW129442   0.367   7.516  11.400  0.3731  0.3990  0.5230
40158SOL    HW229443   0.221   7.552  11.416  0.5910  2.2205 -1.2225
40159SOL     OW29444  10.205   6.751   9.818  0.3129 -0.1885  0.0145
40159SOL    HW129445  10.159   6.668   9.806  1.0686 -0.3957 -1.8220
40159SOL    HW229446  10.142   6.817   9.789  0.6816 -0.3768 -1.2903
40160SOL     OW29447   9.149   2.002  11.027 -0.1749 -0.3074  0.2235
40160SOL    HW129448   9.151   1.928  10.966 -2.1597 -0.9624  0.8579
40160SOL    HW229449   9.087   1.974  11.096  0.0290  1.4257  1.1621
40161SOL     OW29450   1.436   2.342   2.865 -0.6431 -0.2436  0.2727
40161SOL    HW129451   1.436   2.349   2.960  0.9266  0.6280  0.2390
40161SOL    HW229452   1.425   2.249   2.848 -0.6015 -0.4509  1.3019
40162SOL     OW29453   4.983  11.353  10.736 -0.2634  0.1505  0.0300
40162SOL    HW129454   4.984  11.267  10.694  0.2628 -0.0792  0.5018
40162SOL    HW229455   4.890  11.375  10.743 -0.3724 -0.0141 -0.8254
40163SOL     OW29456  12.268  11.314   8.386 -0.2514 -0.0317  0.2234
40163SOL    HW129457  12.300  11.405   8.390 -1.8366  0.6211 -0.7983
40163SOL    HW229458  12.332  11.264   8.436  1.7274  1.3505 -0.7669
40164SOL     OW29459   2.013  11.706   5.448  0.0021  0.0774  0.0885
40164SOL    HW129460   2.026  11.791   5.406  2.0442 -0.4223 -0.3849
40164SOL    HW229461   2.100  11.667   5.452 -0.4017 -0.7633  3.0216
40165SOL     OW29462  11.154   7.774   6.006 -0.4434 -0.0115  0.2545
40165SOL    HW129463  11.127   7.856   5.964 -0.1842 -0.1840 -0.2504
40165SOL    HW229464  11.078   7.749   6.059 -0.2981  0.8760  0.9122
40166SOL     OW29465   5.872   3.958   6.132 -0.2837 -0.3761  0.6695
40166SOL    HW129466   5.860   3.892   6.064 -0.9890 -2.6615  2.8728
40166SOL    HW229467   5.787   4.001   6.140  0.0255  0.4886 -0.3852
40167SOL     OW29468   8.810   0.693   2.662 -0.5026 -0.6015  0.0646
40167SOL    HW129469   8.856   0.668   2.582 -2.8084  1.9626 -2.2778
40167SOL    HW229470   8.855   0.773   2.692 -1.3421  0.0522 -0.3636
40168SOL     OW29471  12.034   7.740  12.501 -0.1461  0.4840 -0.2263
40168SOL    HW129472  11.949   7.781  12.521 -0.4919 -0.7584  1.1057
40168SOL    HW229473  12.013   7.647  12.491  1.0393  0.1701  0.0365
40169SOL     OW29474  11.487  11.359  10.608 -0.0804 -0.4908  0.0167
40169SOL    HW129475  11.392  11.364  10.618  0.0092 -0.8237  1.0406
40169SOL    HW229476  11.510  11.271  10.637  0.8397  0.4496  2.3329
40170SOL     OW29477   6.076   2.588   1.329 -0.3519 -0.4288 -0.0772
40170SOL    HW129478   6.144   2.631   1.380 -0.6244  1.0891 -0.9429
40170SOL    HW229479   6.005   2.572   1.392 -0.3906  0.7410  0.1880
40171SOL     OW29480   9.989   9.062   0.625  0.0516 -0.1380 -0.3200
40171SOL    HW129481  10.082   9.069   0.646  0.0813 -2.2244  0.5630
40171SOL    HW229482   9.956   8.994   0.684 -2.2910  1.2571  0.1367
40172SOL     OW29483   8.976   5.420   9.338 -0.4488  0.1708 -0.3912
40172SOL    HW129484   8.901   5.379   9.381 -0.5313 -1.0404 -1.6350
40172SOL    HW229485   8.944   5.507   9.313 -1.3537 -0.2250 -0.6562
40173SOL     OW29486   7.985   6.331   5.765 -0.0661 -0.1137 -0.0140
40173SOL    HW129487   8.056   6.333   5.700 -0.0807 -1.6914 -0.1299
40173SOL    HW229488   7.926   6.262   5.733 -1.5519  1.0258  0.1911
40174SOL     OW29489   5.267   0.979   5.537 -0.3962  0.2924 -0.4963
40174SOL    HW129490   5.300   1.027   5.613  0.4293 -1.1646  0.0907
40174SOL    HW229491   5.340   0.981   5.474  0.5342 -2.0348  0.3981
40175SOL     OW29492   7.200  10.907  11.441 -0.5205 -0.2538 -0.1245
40175SOL    HW129493   7.267  10.903  11.509  0.9788 -0.4402 -1.5317
40175SOL    HW229494   7.125  10.859  11.477  0.1169 -0.0957  1.4742
40176SOL     OW29495   4.379  10.522   3.531  0.3803  0.2882  0.1158
40176SOL    HW129496   4.321  10.446   3.531 -0.1872  0.7134  0.6571
40176SOL    HW229497   4.440  10.506   3.459 -0.5538 -0.0564 -0.6029
40177SOL     OW29498   9.065   2.275   1.348  0.1076 -0.7975 -0.2551
40177SOL    HW129499   9.135   2.335   1.374  0.3325 -1.7304  1.4578
40177SOL    HW229500   9.106   2.213   1.288 -0.0579  0.5402 -1.8099
40178SOL     OW29501   5.909   6.286   0.589 -0.0671 -0.5887  0.6044
40178SOL    HW129502   5.959   6.336   0.654 -0.5772 -0.8484  1.2050
40178SOL    HW229503   5.818   6.294   0.618 -0.3517 -0.3315 -0.3387
40179SOL     OW29504   9.728   3.615   3.054  0.4082 -0.4662 -0.2009
40179SOL    HW129505   9.788   3.557   3.008  0.8847 -0.5690  0.5258
40179SOL    HW229506   9.785   3.674   3.103 -0.0672  0.7067 -1.0207
40180SOL     OW29507   9.891   8.509   9.826  0.5078  0.1730  0.6815
40180SOL    HW129508   9.960   8.566   9.861 -0.4141 -0.1040  3.1056
40180SOL    HW229509   9.927   8.421   9.834 -0.0347  0.0434  1.7716
40181SOL     OW29510   3.541   0.559  11.266 -0.1134  0.3819  0.1672
40181SOL    HW129511   3.556   0.496  11.196  0.3974  0.4247  0.2355
40181SOL    HW229512   3.624   0.563  11.313 -0.0462  1.3253 -0.0153
40182SOL     OW29513   5.724   7.138   2.873 -0.0187  0.6490  0.2540
40182SOL    HW129514   5.744   7.213   2.929 -2.5852  2.5825 -1.2501
40182SOL    HW229515   5.777   7.151   2.795 -0.0001  0.5333  0.2465
40183SOL     OW29516   4.802   6.545   0.420 -0.2355  0.7372 -0.0613
40183SOL    HW129517   4.794   6.606   0.493 -0.6544  0.7739 -0.1339
40183SOL    HW229518   4.896   6.541   0.402 -0.1142  0.6082  0.5785
40184SOL     OW29519   9.066   7.278   3.674 -0.6833  0.1150  0.5431
40184SOL    HW129520   9.151   7.258   3.633 -0.6073  0.4056  0.5624
40184SOL    HW229521   9.012   7.202   3.653 -1.0110  0.7660 -1.1097
40185SOL     OW29522   9.418  10.020  10.536  0.2473 -0.3590 -0.3615
40185SOL    HW129523   9.428   9.990  10.446 -2.3928  0.2180 -0.9279
40185SOL    HW229524   9.361   9.955  10.577  0.1780  0.1730  0.4192
40186SOL     OW29525  11.804   8.559   4.635  0.4639  0.7693  0.2424
40186SOL    HW129526  11.867   8.529   4.701 -0.4451 -0.9045  0.4042
40186SOL    HW229527  11.855   8.618   4.579  1.5576  1.3092  1.7259
40187SOL     OW29528   4.865  12.398   0.476 -0.2099  0.1512  0.1358
40187SOL    HW129529   4.861  12.481   0.523  2.2616 -0.0927  0.8667
40187SOL    HW229530   4.864  12.331   0.544  0.1728 -0.3302 -0.3242
40188SOL     OW29531   2.236   2.771   2.389  0.5786 -0.0288  0.3566
40188SOL    HW129532   2.320   2.725   2.386  1.1250  0.9598  0.1743
40188SOL    HW229533   2.253   2.855   2.346 -0.6758 -0.0851 -0.2893
40189SOL     OW29534   1.270   2.257   1.587  0.0799 -0.2521  0.3780
40189SOL    HW129535   1.239   2.321   1.651 -1.0947 -0.6509  0.2294
40189SOL    HW229536   1.190   2.219   1.550  0.6948 -2.4321  1.1068
40190SOL     OW29537  10.922   8.597   1.067 -0.2411  0.2328  0.2376
40190SOL    HW129538  10.969   8.513   1.062 -1.7531 -0.7346  1.3336
40190SOL    HW229539  10.919   8.628   0.977 -2.0449 -2.3181 -0.7081
40191SOL     OW29540  10.173  11.799   9.040  0.2381 -0.3397 -0.2655
40191SOL    HW129541  10.090  11.822   9.082  0.2580  0.3809 -0.5944
40191SOL    HW229542  10.151  11.786   8.948  0.3657 -0.8811 -0.2178
40192SOL     OW29543  12.089   6.318   4.317  0.5848 -0.5596  0.3180
40192SOL    HW129544  12.023   6.387   4.311  0.7348 -0.3620  0.8365
40192SOL    HW229545  12.038   6.237   4.329  0.3483 -0.7798 -1.8853
40193SOL     OW29546   7.009   0.258   5.079  0.5021 -0.1816 -0.1541
40193SOL    HW129547   7.047   0.345   5.083 -0.4069  0.1978  0.6166
40193SOL    HW229548   6.918   0.270   5.107  0.3370 -1.3549 -0.1351
40194SOL     OW29549   8.044   4.736   5.412  0.3253  0.4070  0.4628
40194SOL    HW129550   8.137   4.727   5.390  0.1635  1.4143 -0.7076
40194SOL    HW229551   8.042   4.806   5.477  0.2498  1.6103 -0.7894
40195SOL     OW29552   1.671  11.022  11.125 -0.2175 -0.5198  0.3435
40195SOL    HW129553   1.682  10.927  11.125 -2.1703 -0.8001  1.3073
40195SOL    HW229554   1.587  11.036  11.080  0.5243  0.8453 -0.6726
40196SOL     OW29555   6.120   7.703   9.342 -0.5508 -0.1912 -0.4473
40196SOL    HW129556   6.184   7.773   9.347 -0.7001 -0.0328 -0.7598
40196SOL    HW229557   6.087   7.694   9.432  2.6158 -2.8589  0.6460
40197SOL     OW29558   2.993   1.188   7.206  0.2513 -0.5810  0.2402
40197SOL    HW129559   3.028   1.101   7.190 -2.2371 -1.7533  0.7227
40197SOL    HW229560   3.031   1.214   7.290  0.2860 -1.6073  0.5479
40198SOL     OW29561   6.469   1.525   7.082 -0.2811 -0.1200 -0.2220
40198SOL    HW129562   6.443   1.503   7.172 -1.3941  2.2638  0.1217
40198SOL    HW229563   6.563   1.545   7.089 -0.5061  0.7407  0.6027
40199SOL     OW29564   8.909   1.434   5.815  0.1035  0.6555 -0.1560
40199SOL    HW129565   8.830   1.479   5.785 -0.8939  0.3176  1.7926
40199SOL    HW229566   8.929   1.475   5.899  0.4779 -1.0165  0.5948
40200SOL     OW29567   4.227   2.136   7.266  0.1956  0.2363 -0.5835
40200SOL    HW129568   4.212   2.120   7.359  2.4612  0.5025 -0.1050
40200SOL    HW229569   4.287   2.211   7.264  0.7510 -0.2113 -2.2182
40201SOL     OW29570   4.766   1.578   3.572  0.5471 -0.3710  0.9391
40201SOL    HW129571   4.835   1.566   3.506  0.6242  0.0274  0.9416
40201SOL    HW229572   4.736   1.668   3.558 -0.9395 -0.9644  0.0105
40202SOL     OW29573   4.854   9.629   9.199  0.2033 -0.1590  0.4610
40202SOL    HW129574   4.893   9.657   9.282  3.3185 -1.2730 -0.4792
40202SOL    HW229575   4.888   9.541   9.185  1.0654  0.5475 -2.6682
40203SOL     OW29576   3.790   9.113  11.311 -0.2048 -0.0960  0.6017
40203SOL    HW129577   3.737   9.039  11.341 -0.4931 -0.4206 -0.6733
40203SOL    HW229578   3.743   9.146  11.234  2.0504 -1.1550 -1.3418
40204SOL     OW29579   3.906  11.463   9.079  0.1657 -0.0285  0.4580
40204SOL    HW129580   3.890  11.521   9.005  2.3169  0.7647  0.5373
40204SOL    HW229581   3.981  11.410   9.053  0.6384 -0.0989  1.8565
40205SOL     OW29582   9.030   5.218  10.258 -0.3124  0.0722  0.0921
40205SOL    HW129583   9.108   5.241  10.307 -0.5438  0.2679  0.3716
40205SOL    HW229584   8.991   5.303  10.234 -0.7901 -0.0160  0.5250
40206SOL     OW29585   8.769   5.881   7.953  0.0698 -1.0267 -0.1965
40206SOL    HW129586   8.848   5.841   7.991  1.9438  2.1497 -0.2926
40206SOL    HW229587   8.697   5.846   8.005  1.7863 -2.3708  1.4357
40207SOL     OW29588  10.527   1.464  12.013  0.3360 -0.1206 -0.1585
40207SOL    HW129589  10.516   1.456  12.107 -1.1422 -0.0457 -0.3033
40207SOL    HW229590  10.444   1.433  11.976  1.0680 -0.6338 -1.4610
40208SOL     OW29591   7.547   6.054   9.810 -1.0570 -0.2647 -0.1253
40208SOL    HW129592   7.595   5.971   9.799 -0.8156 -0.2336  0.6682
40208SOL    HW229593   7.613   6.115   9.841 -1.3061  0.1524 -0.4120
40209SOL     OW29594   3.229   4.530   3.460 -0.4992  0.3878  0.0525
40209SOL    HW129595   3.195   4.557   3.375  0.6779 -0.5063 -0.7278
40209SOL    HW229596   3.321   4.509   3.444 -0.4055 -0.3631  1.4195
40210SOL     OW29597   8.604   5.560   7.038  0.3694  0.0166 -0.2402
40210SOL    HW129598   8.624   5.629   6.975  1.6300 -0.9950 -1.0018
40210SOL    HW229599   8.625   5.479   6.992 -0.7107 -0.8598  0.7703
40211SOL     OW29600   9.526   8.160   1.450  0.3346  0.2399  0.4469
40211SOL    HW129601   9.561   8.238   1.406 -1.7063  2.7312  2.9088
40211SOL    HW229602   9.604   8.111   1.475  1.8008  2.0593 -0.2638
40212SOL     OW29603  11.557   1.318   8.243 -0.4340 -0.1781 -0.1927
40212SOL    HW129604  11.606   1.381   8.296 -1.3498  0.3117  0.0776
40212SOL    HW229605  11.596   1.325   8.156 -0.3568  0.5769 -0.1072
40213SOL     OW29606  12.428   3.377  11.305 -0.1621  0.0105 -0.4523
40213SOL    HW129607  12.392   3.458  11.342 -0.1623 -0.4546  0.5776
40213SOL    HW229608  12.363   3.349  11.240 -0.5021  0.4442 -0.2991
40214SOL     OW29609   4.867   7.935   6.427  0.0523 -0.1716 -0.1434
40214SOL    HW129610   4.828   7.887   6.500  1.5112 -1.2072 -0.0083
40214SOL    HW229611   4.838   7.888   6.349 -0.0385 -0.1517 -0.1213
40215SOL     OW29612   5.754   7.362   9.304 -0.0158 -0.0696  0.5718
40215SOL    HW129613   5.728   7.272   9.282 -0.2433 -0.0704  0.8447
40215SOL    HW229614   5.829   7.379   9.247  1.2174 -1.0839  1.8178
40216SOL     OW29615   3.295   7.829  10.117  0.3234 -0.8007  0.5420
40216SOL    HW129616   3.228   7.877  10.167  1.4499  0.6113  0.7557
40216SOL    HW229617   3.283   7.738  10.142 -1.4237 -0.5700  0.6879
40217SOL     OW29618   6.103  11.290   7.731 -0.1445  0.2297 -0.1152
40217SOL    HW129619   6.080  11.355   7.797 -2.0027  1.0979 -1.5247
40217SOL    HW229620   6.039  11.304   7.661 -0.2081 -2.6936 -0.7533
40218SOL     OW29621   0.616   6.848   4.820  0.4088 -0.1995  0.3343
40218SOL    HW129622   0.535   6.878   4.861  1.0984  2.4604 -0.0685
40218SOL    HW229623   0.586   6.794   4.747 -0.9749 -0.2024  0.8654
40219SOL     OW29624   1.527   0.769   8.923 -0.6751 -0.2265  0.3700
40219SOL    HW129625   1.560   0.711   8.855 -1.0353  1.1126 -1.0181
40219SOL    HW229626   1.492   0.711   8.990  0.3204 -1.5975 -0.2608
40220SOL     OW29627   7.680   7.391  10.407  0.2639 -0.9030  0.0108
40220SOL    HW129628   7.725   7.326  10.462 -0.4517 -1.1219  0.3458
40220SOL    HW229629   7.597   7.406  10.452  1.3101  1.9692  1.2251
40221SOL     OW29630   2.049   8.730   0.200 -0.1189 -0.5114  0.4100
40221SOL    HW129631   1.963   8.735   0.158  0.2081 -0.1469 -0.2243
40221SOL    HW229632   2.098   8.804   0.163 -0.2439  0.6296  2.3712
40222SOL     OW29633   5.426   5.934   6.611 -0.1115 -0.3216  0.8078
40222SOL    HW129634   5.376   5.889   6.680 -0.7076 -0.6876  0.1462
40222SOL    HW229635   5.430   5.871   6.539  0.1978  0.1922  0.3679
40223SOL     OW29636   6.782   0.682   7.032 -0.1212  0.4149 -0.6928
40223SOL    HW129637   6.753   0.757   6.980  0.5417 -0.2512 -2.0508
40223SOL    HW229638   6.877   0.689   7.034 -0.0388 -0.5180 -1.0281
40224SOL     OW29639   6.741  12.346   8.539 -0.5697 -0.1318 -0.1649
40224SOL    HW129640   6.708  12.390   8.617 -0.5906 -1.7111  0.7585
40224SOL    HW229641   6.799  12.411   8.498 -1.3765  1.0964  0.5725
40225SOL     OW29642   3.382   9.718   4.636 -0.8614 -0.0516 -0.0608
40225SOL    HW129643   3.463   9.713   4.688  0.1800  0.1345 -1.5933
40225SOL    HW229644   3.340   9.799   4.665  0.8000  1.2081 -0.9902
40226SOL     OW29645   5.083  10.381   9.601  0.2566 -0.0815  0.5807
40226SOL    HW129646   5.070  10.391   9.506  0.1623  0.4816  0.6486
40226SOL    HW229647   5.021  10.313   9.627 -0.9705  0.9727  0.5191
40227SOL     OW29648   7.106   0.313   2.934 -0.4311  0.2325 -0.0286
40227SOL    HW129649   7.044   0.282   3.001  0.3001  0.4107  0.7506
40227SOL    HW229650   7.188   0.267   2.954 -0.0082  0.8321 -0.3539
40228SOL     OW29651   1.033   7.013  10.976  0.0944 -0.4662  0.6653
40228SOL    HW129652   1.059   6.989  10.887 -1.1847 -0.8126  0.3736
40228SOL    HW229653   1.013   7.107  10.971  1.2840 -0.1815  0.9062
40229SOL     OW29654   1.233   0.124   8.734 -0.2602 -0.2326 -0.1143
40229SOL    HW129655   1.192   0.042   8.705 -1.1377  0.2133 -0.1802
40229SOL    HW229656   1.260   0.167   8.653 -1.5966  0.4439 -0.2270
40230SOL     OW29657   4.905  11.743   8.833 -0.0453 -0.0120  0.2587
40230SOL    HW129658   4.898  11.838   8.833  0.4259  0.0216  0.0848
40230SOL    HW229659   4.981  11.724   8.888 -0.5496 -0.3228  0.8804
40231SOL     OW29660   4.275   9.001   5.488  0.2614  0.1799 -0.2960
40231SOL    HW129661   4.221   8.959   5.422 -0.3047 -0.1448  0.3652
40231SOL    HW229662   4.226   8.992   5.570  0.8519  0.7523  0.1396
40232SOL     OW29663  10.680  10.926  11.475  0.0401  0.4626 -0.1668
40232SOL    HW129664  10.687  11.009  11.430  1.1906 -0.0082 -0.8761
40232SOL    HW229665  10.679  10.860  11.406 -3.5725 -0.0688  0.1649
40233SOL     OW29666  10.099   2.083  11.465  0.0263  0.2867  0.9720
40233SOL    HW129667  10.194   2.080  11.472  0.2283 -0.7512 -1.3475
40233SOL    HW229668  10.071   1.992  11.472 -0.6201  0.3858 -0.1430
40234SOL     OW29669   6.798   1.521   8.076 -0.2791  0.2652 -0.2371
40234SOL    HW129670   6.818   1.527   8.169 -1.7479  1.5230  0.0352
40234SOL    HW229671   6.779   1.428   8.061 -0.4441  0.1225  0.8103
40235SOL     OW29672  10.148  11.516   4.933  0.6903  0.1669 -0.2929
40235SOL    HW129673  10.121  11.433   4.893  1.2055  0.0931 -0.4950
40235SOL    HW229674  10.067  11.565   4.942  0.2661 -0.6468  0.5033
40236SOL     OW29675   6.918   4.608   9.919  0.1472 -0.1085 -0.2810
40236SOL    HW129676   6.910   4.523   9.962 -0.5389  0.3397  0.5066
40236SOL    HW229677   7.006   4.607   9.881  1.3368 -0.0785  2.2204
40237SOL     OW29678   5.874   1.394   8.162 -0.4882 -0.2357 -0.0538
40237SOL    HW129679   5.968   1.389   8.142 -0.1480  2.3944  0.5630
40237SOL    HW229680   5.832   1.401   8.077 -0.2739 -2.3847 -0.3958
40238SOL     OW29681   7.123   9.794   7.714 -0.2157  0.0424  0.0023
40238SOL    HW129682   7.211   9.830   7.702 -0.9801  1.4540 -1.8351
40238SOL    HW229683   7.109   9.795   7.809  1.6785 -0.0954  0.3190
40239SOL     OW29684   3.984   1.622   5.143  0.1539 -0.2766 -0.1841
40239SOL    HW129685   4.006   1.686   5.211 -0.3612  0.9939 -1.1752
40239SOL    HW229686   3.925   1.560   5.187  0.7051 -0.1141  0.8121
40240SOL     OW29687   2.790   5.258  11.204  0.3731 -0.2418 -0.0203
40240SOL    HW129688   2.752   5.171  11.203 -0.8874  0.2915 -0.3118
40240SOL    HW229689   2.749   5.302  11.278  1.3769 -0.0380  0.4415
40241SOL     OW29690   5.926   1.858   2.467 -0.1799 -0.2421  0.2428
40241SOL    HW129691   5.866   1.933   2.456  0.5320  0.5904  1.7534
40241SOL    HW229692   5.935   1.848   2.561  3.3731  0.8128  0.1797
40242SOL     OW29693   0.809  11.436  10.203  0.4661 -0.1341  0.0526
40242SOL    HW129694   0.894  11.410  10.167  0.9515  0.4656  0.7470
40242SOL    HW229695   0.799  11.527  10.176  0.5868  0.1575  0.9704
40243SOL     OW29696   5.432   6.468   3.340 -0.3883 -0.2120 -0.1997
40243SOL    HW129697   5.440   6.557   3.305  1.0107 -0.0860  0.3738
40243SOL    HW229698   5.340   6.460   3.364 -0.3636  1.4154  0.6055
40244SOL     OW29699   3.756   7.586   6.146 -0.0424  0.3056  0.1473
40244SOL    HW129700   3.719   7.626   6.067  0.4664  1.4036  0.4439
40244SOL    HW229701   3.695   7.515   6.167  0.3790 -0.7064 -1.8167
40245SOL     OW29702  12.223   3.778   2.867  0.7613 -0.4471  0.0325
40245SOL    HW129703  12.189   3.838   2.801  0.4130 -0.5234  0.1434
40245SOL    HW229704  12.239   3.696   2.820  1.3889 -0.2277 -0.1554
40246SOL     OW29705   3.145   4.526   2.538  0.2890  0.0396 -0.1525
40246SOL    HW129706   3.158   4.431   2.541 -1.9747 -0.3184  0.0017
40246SOL    HW229707   3.114   4.548   2.626 -0.4428  0.6952 -0.5650
40247SOL     OW29708   3.227   8.998  10.497 -0.6337 -0.0500  0.1860
40247SOL    HW129709   3.206   8.929  10.434  0.0831  1.8242 -2.2032
40247SOL    HW229710   3.158   9.063  10.485  1.4433  2.0027 -1.3398
40248SOL     OW29711  11.944   2.866   9.895 -0.2663 -0.2280 -0.3969
40248SOL    HW129712  11.886   2.794   9.873 -0.3528 -0.5207  0.7492
40248SOL    HW229713  12.031   2.826   9.901 -0.4866 -0.5109  1.4529
40249SOL     OW29714   4.956  10.685   7.341 -0.3762 -0.4164 -0.2522
40249SOL    HW129715   4.939  10.765   7.390  0.9494  0.2912 -0.8803
40249SOL    HW229716   5.037  10.650   7.378 -0.5561 -1.0738 -0.4603
40250SOL     OW29717   5.804   3.066   4.214 -0.4841 -0.1619  0.3379
40250SOL    HW129718   5.771   3.042   4.301  1.7822 -0.7313  1.1014
40250SOL    HW229719   5.833   2.983   4.176  0.6784  0.3938 -0.0047
40251SOL     OW29720   3.347   5.770  11.842  0.6824  0.0525 -0.2135
40251SOL    HW129721   3.310   5.703  11.785 -1.6541  0.3240  0.8437
40251SOL    HW229722   3.389   5.831  11.783 -0.8619 -0.1421 -1.6071
40252SOL     OW29723   2.712   6.299   0.639  0.4143 -0.3037  0.1222
40252SOL    HW129724   2.747   6.210   0.639  0.6842 -0.2022  0.4800
40252SOL    HW229725   2.623   6.290   0.606  0.6220 -0.6302 -0.3676
40253SOL     OW29726  11.776  10.939  11.202  0.1350  0.0998 -0.1114
40253SOL    HW129727  11.811  10.855  11.174 -0.9481 -0.3377 -0.1780
40253SOL    HW229728  11.734  10.975  11.124 -0.3513  0.1989  0.1910
40254SOL     OW29729   2.986   9.981  12.254  0.3291 -0.1486 -0.0732
40254SOL    HW129730   3.018  10.002  12.341  1.9550  0.7975 -0.8515
40254SOL    HW229731   3.043  10.030  12.195 -0.8981 -0.5532 -1.6660
40255SOL     OW29732  10.777  10.992   9.144 -0.2387 -0.3141  0.2507
40255SOL    HW129733  10.692  10.976   9.102 -0.3234 -0.3298  0.4268
40255SOL    HW229734  10.839  10.999   9.071 -0.6115  1.1142  0.0381
40256SOL     OW29735   0.739   8.253   1.050 -0.1552  0.1118  0.3750
40256SOL    HW129736   0.681   8.322   1.081 -0.5579 -0.0471 -0.0244
40256SOL    HW229737   0.761   8.203   1.129 -1.5055 -0.5462  0.3561
40257SOL     OW29738  10.479   3.985   3.875  0.0827 -0.1913  0.0018
40257SOL    HW129739  10.504   3.901   3.838  1.2816 -0.1487  0.6606
40257SOL    HW229740  10.562   4.030   3.892 -0.5303  1.2714 -0.6484
40258SOL     OW29741   4.104  10.217   1.713  0.4059  0.5462  0.3334
40258SOL    HW129742   4.010  10.199   1.711  0.5052  0.0159  0.3486
40258SOL    HW229743   4.114  10.290   1.775 -0.1434  1.5461 -0.7169
40259SOL     OW29744  12.448   9.445  10.015 -0.0781  0.9984  0.1164
40259SOL    HW129745  12.353   9.450  10.023 -0.1670 -0.9681  0.8636
40259SOL    HW229746  12.474   9.375  10.076  1.5227 -0.5843 -2.1907
40260SOL     OW29747  10.148   4.858   8.655  0.0011 -0.2662  0.1786
40260SOL    HW129748  10.101   4.934   8.691 -0.7134 -0.9417  0.7107
40260SOL    HW229749  10.202   4.827   8.728  0.6686  0.0135 -0.1874
40261SOL     OW29750   5.586  12.204   6.639 -0.1821  0.1804 -0.3138
40261SOL    HW129751   5.677  12.178   6.626 -0.0705  1.0985 -1.4942
40261SOL    HW229752   5.570  12.271   6.573 -1.8368 -0.2575 -0.4057
40262SOL     OW29753   3.990   0.569   5.260  0.1664 -0.3799 -0.1214
40262SOL    HW129754   3.894   0.576   5.261  0.1250 -0.8814  0.1325
40262SOL    HW229755   4.020   0.649   5.303 -0.0643  0.6260 -1.7731
40263SOL     OW29756   7.114   0.427  11.308 -0.1870  0.2004 -0.1546
40263SOL    HW129757   7.208   0.422  11.292 -0.0843  1.2780  0.0670
40263SOL    HW229758   7.103   0.405  11.400  0.1585  2.6577  0.5477
40264SOL     OW29759   5.763   7.451   1.224  0.1947  0.2049  0.2783
40264SOL    HW129760   5.732   7.461   1.134 -1.9161  0.7757  1.0099
40264SOL    HW229761   5.798   7.537   1.247  0.8300  0.0300 -0.0102
40265SOL     OW29762   1.152   5.746  12.482  0.6290 -0.0678 -0.2557
40265SOL    HW129763   1.203   5.666  12.493 -0.9747 -0.8823  1.9165
40265SOL    HW229764   1.065   5.725  12.517  0.3282  2.8194  1.0829
40266SOL     OW29765   5.878   1.189   3.432 -0.1431  0.1001 -0.3125
40266SOL    HW129766   5.863   1.247   3.506 -1.7517 -0.4921 -0.1266
40266SOL    HW229767   5.856   1.102   3.465  1.1266 -0.4694 -0.9092
40267SOL     OW29768  10.383  11.320  10.806 -0.3604 -0.4275 -0.1491
40267SOL    HW129769  10.349  11.402  10.771 -0.4535  0.1135  1.1422
40267SOL    HW229770  10.465  11.344  10.849 -0.4812 -0.9631  0.4103
40268SOL     OW29771   9.559   7.823  12.431  0.4605 -0.2388 -0.5591
40268SOL    HW129772   9.604   7.835  12.348  1.1030 -1.4721 -0.4257
40268SOL    HW229773   9.510   7.741  12.420  0.6602 -0.4846  0.3038
40269SOL     OW29774   2.331   3.661   3.361 -0.0615  0.3411  0.5296
40269SOL    HW129775   2.341   3.699   3.273  1.6528  1.0603  0.9811
40269SOL    HW229776   2.362   3.571   3.351 -2.7544 -0.5855 -0.2229
40270SOL     OW29777   5.303   4.227   9.751  0.1791  0.3118 -0.3389
40270SOL    HW129778   5.253   4.308   9.737 -0.0499  0.0195 -1.3350
40270SOL    HW229779   5.380   4.237   9.695  0.0086 -0.2636 -0.6939
40271SOL     OW29780   7.237   6.257   0.342  0.2527  0.7236 -0.2781
40271SOL    HW129781   7.149   6.293   0.337  0.1623  0.6515  0.6152
40271SOL    HW229782   7.229   6.169   0.305  0.0454  0.8829 -0.6087
40272SOL     OW29783  11.751  11.002   1.404  0.2208 -0.0317 -0.1198
40272SOL    HW129784  11.840  11.039   1.406 -0.3334  1.3779 -0.4282
40272SOL    HW229785  11.718  11.017   1.493  0.2131 -0.3491 -0.0709
40273SOL     OW29786   4.854   0.089   0.252 -0.3259 -0.0711 -0.1610
40273SOL    HW129787   4.857   0.180   0.222  1.0559  0.6453  1.8864
40273SOL    HW229788   4.874   0.094   0.346 -0.3756 -2.4754  0.0465
40274SOL     OW29789   1.171   0.643   8.052  0.0816 -0.9552 -0.3992
40274SOL    HW129790   1.160   0.561   8.100  3.1943 -1.6362 -0.6669
40274SOL    HW229791   1.200   0.706   8.118 -1.2361 -0.2994 -0.4026
40275SOL     OW29792  11.984   5.887   8.574  0.5577  0.2945 -0.3313
40275SOL    HW129793  11.898   5.858   8.544  1.0857 -1.3188 -0.3785
40275SOL    HW229794  11.974   5.894   8.669  0.5666 -0.7172 -0.2358
40276SOL     OW29795   7.270  11.367   6.491 -0.1640  0.0578 -0.3421
40276SOL    HW129796   7.324  11.415   6.554  0.3647 -1.6960  0.6360
40276SOL    HW229797   7.187  11.413   6.490  0.5318  1.3620  0.0302
40277SOL     OW29798  10.184   6.693  11.383 -0.1761  0.2828  0.1170
40277SOL    HW129799  10.262   6.648  11.350 -1.2970 -1.7981  0.1543
40277SOL    HW229800  10.215   6.780  11.408  1.9371 -0.1866 -0.6987
40278SOL     OW29801   6.791   0.142   4.532  0.3950 -0.3387 -0.5656
40278SOL    HW129802   6.877   0.116   4.499  0.0599 -0.8844 -1.0264
40278SOL    HW229803   6.729   0.106   4.469 -0.1959 -0.3007 -0.0175
40279SOL     OW29804   9.949   1.351   4.419 -0.2190 -0.5013  0.7119
40279SOL    HW129805   9.855   1.332   4.421 -0.8032  2.1043  1.4834
40279SOL    HW229806   9.990   1.266   4.436 -2.2983 -2.1435 -1.6437
40280SOL     OW29807  11.133  12.508   8.353  0.0566  0.7662 -0.7332
40280SOL    HW129808  11.165  12.522   8.442 -0.9994  3.5198 -0.6944
40280SOL    HW229809  11.205  12.537   8.297 -0.2089  1.4541 -0.7247
40281SOL     OW29810   9.466   8.634   5.984 -0.3420  0.0345  0.2501
40281SOL    HW129811   9.412   8.712   5.976 -0.6749 -0.3141 -1.0355
40281SOL    HW229812   9.546   8.656   5.936 -0.3380 -0.3257  0.0913
40282SOL     OW29813   2.364   1.112   4.103  0.1528 -0.1689 -0.3217
40282SOL    HW129814   2.403   1.100   4.190  0.8535  0.6302 -0.5095
40282SOL    HW229815   2.338   1.204   4.101  0.1140 -0.1906 -0.9458
40283SOL     OW29816  11.449   4.267   7.153  0.0644 -0.3691  0.0375
40283SOL    HW129817  11.411   4.323   7.085  1.9190  0.8577 -0.0682
40283SOL    HW229818  11.534   4.308   7.172  1.0381 -2.5816  0.7176
40284SOL     OW29819   0.524   7.152   4.569  0.6219 -0.0491  0.3216
40284SOL    HW129820   0.454   7.112   4.621  1.5398 -0.5062  1.2631
40284SOL    HW229821   0.592   7.173   4.634  1.7506 -0.5138 -0.6732
40285SOL     OW29822  10.003   1.125   7.746 -0.3711 -0.0842 -0.2503
40285SOL    HW129823  10.045   1.200   7.702 -1.9262  2.0506  1.7034
40285SOL    HW229824  10.048   1.049   7.709  0.2473  1.6586 -3.5023
40286SOL     OW29825  10.938  12.506   1.898  0.3259  0.5606  0.3500
40286SOL    HW129826  10.867  12.544   1.950 -1.5926 -1.2058 -0.7976
40286SOL    HW229827  10.949  12.418   1.934  0.4408  0.0755 -0.8382
40287SOL     OW29828   7.277   1.495   9.674  0.0424  0.1591  0.2814
40287SOL    HW129829   7.344   1.490   9.606  1.0344  1.1066  1.1559
40287SOL    HW229830   7.260   1.404   9.698 -0.4372 -0.2068 -1.3119
40288SOL     OW29831   4.521  11.011   2.497 -0.5061 -0.2694  0.8141
40288SOL    HW129832   4.527  10.954   2.420  0.0063  0.7310  0.0900
40288SOL    HW229833   4.480  11.091   2.464  2.1619  1.2464  0.9260
40289SOL     OW29834   8.886   0.377   3.102 -0.6077 -0.4440  0.5629
40289SOL    HW129835   8.857   0.286   3.104  1.4251 -1.1457  1.8959
40289SOL    HW229836   8.917   0.391   3.012  1.5077 -1.9851  0.9700
40290SOL     OW29837   1.063   3.064   3.927 -0.0096 -0.2899 -0.2235
40290SOL    HW129838   1.003   2.993   3.948  0.6291 -1.4599 -2.0833
40290SOL    HW229839   1.018   3.114   3.858  0.8972 -0.9044 -1.3009
40291SOL     OW29840   9.860   3.631  12.177  0.2830  0.1414 -0.2265
40291SOL    HW129841   9.824   3.579  12.249 -1.6376 -0.9240 -1.8203
40291SOL    HW229842   9.902   3.566  12.120 -0.3851  0.5660 -1.2467
40292SOL     OW29843   7.816   5.101   6.099  0.2818 -0.3217  0.7378
40292SOL    HW129844   7.900   5.138   6.071  0.0700 -0.5995 -0.3343
40292SOL    HW229845   7.754   5.173   6.092 -0.0551 -0.7283 -0.9782
40293SOL     OW29846   9.737   3.183   4.133  0.0949 -0.3454 -0.1260
40293SOL    HW129847   9.765   3.096   4.162  0.0182 -0.5056 -0.5389
40293SOL    HW229848   9.806   3.241   4.166  0.5973 -0.6663 -0.5845
40294SOL     OW29849   9.928  11.816  10.024  0.5259 -0.7511  0.2500
40294SOL    HW129850  10.010  11.776   9.997  0.1912 -1.8067  0.7454
40294SOL    HW229851   9.953  11.878  10.093  1.0380 -0.1297 -0.4776
40295SOL     OW29852  12.166   4.055   3.667  0.9081 -0.0744 -0.0581
40295SOL    HW129853  12.258   4.062   3.645  1.2752 -1.5904  0.8445
40295SOL    HW229854  12.123   4.029   3.585  1.3288  0.3216 -0.4060
40296SOL     OW29855   0.238   1.901   0.753  0.1166 -0.5354  0.9775
40296SOL    HW129856   0.214   1.811   0.733 -0.5318 -0.5564  1.8062
40296SOL    HW229857   0.155   1.946   0.769  0.4425  0.1707  0.7746
40297SOL     OW29858  10.495   5.922   8.029  0.2869  0.6272  0.1328
40297SOL    HW129859  10.400   5.919   8.026  0.3134 -0.7114  0.3925
40297SOL    HW229860  10.519   5.876   8.109  1.2362 -1.0986 -1.0858
40298SOL     OW29861   4.237  10.675   9.458 -0.7101  0.2872 -0.4887
40298SOL    HW129862   4.325  10.654   9.489 -1.0363  2.0937  1.8813
40298SOL    HW229863   4.213  10.600   9.403  1.5622 -1.1063  0.2799
40299SOL     OW29864   1.849   2.826   3.245 -0.0265  0.4418 -0.0585
40299SOL    HW129865   1.843   2.879   3.165  0.5178 -0.0740 -0.4572
40299SOL    HW229866   1.886   2.885   3.310 -1.6252  1.2412  0.1848
40300SOL     OW29867   4.947   6.697   3.364  0.2572  0.0897 -0.1791
40300SOL    HW129868   4.936   6.780   3.410 -0.8690  0.3716 -0.9223
40300SOL    HW229869   4.900   6.709   3.281  1.4132 -0.7453 -0.9801
40301SOL     OW29870  10.420   4.640   9.773  0.0016  1.0918  0.4020
40301SOL    HW129871  10.467   4.570   9.727 -1.4415 -0.4386  1.1219
40301SOL    HW229872  10.411   4.710   9.708  0.7005  0.2476 -0.6417
40302SOL     OW29873   0.321   8.732   9.946 -0.2544  0.3492 -0.1445
40302SOL    HW129874   0.273   8.654   9.975 -0.6420  0.5533 -0.2207
40302SOL    HW229875   0.412   8.704   9.941  0.0442  0.6634  2.5512
40303SOL     OW29876  11.803  10.966  11.750  0.5185 -0.1865  0.1778
40303SOL    HW129877  11.885  10.942  11.794  0.6437  0.8683  0.5633
40303SOL    HW229878  11.814  10.935  11.660  2.1192  1.4754 -0.2787
40304SOL     OW29879  10.183   1.217   0.830 -0.1616 -0.0865  0.1515
40304SOL    HW129880  10.222   1.219   0.917 -1.6515  0.5163  0.8554
40304SOL    HW229881  10.175   1.124   0.809  0.0458 -0.2429  0.7355
40305SOL     OW29882  10.694   6.131  12.492  0.5266 -0.2554  0.6436
40305SOL    HW129883  10.654   6.203  12.443 -0.3804 -0.4758  1.0438
40305SOL    HW229884  10.750   6.174  12.557  0.8146  0.0577  0.1971
40306SOL     OW29885   5.746   7.820  10.940 -0.0185 -0.0615  0.1554
40306SOL    HW129886   5.732   7.903  10.895  0.0303  0.4682  1.0863
40306SOL    HW229887   5.776   7.845  11.027 -1.0198 -1.0205  0.8146
40307SOL     OW29888   0.187   6.159   2.043 -0.0584 -0.5321 -0.2704
40307SOL    HW129889   0.102   6.202   2.053 -0.9382 -2.0018 -1.0682
40307SOL    HW229890   0.220   6.190   1.958  0.7244  0.8634  0.5208
40308SOL     OW29891  10.211   4.742   5.219 -0.2308 -0.2985 -0.4980
40308SOL    HW129892  10.237   4.821   5.172  0.3508 -0.1833  0.0041
40308SOL    HW229893  10.192   4.678   5.151  0.9800 -0.2548 -0.8995
40309SOL     OW29894   9.441   2.133   5.246  0.1714  0.0767 -0.1422
40309SOL    HW129895   9.381   2.136   5.321 -0.9744 -0.2864 -1.0287
40309SOL    HW229896   9.459   2.040   5.234  1.2564  0.2062  0.3650
40310SOL     OW29897   6.727  10.289   2.575  0.4184  0.0347  0.0109
40310SOL    HW129898   6.765  10.232   2.508  1.9096  1.4287 -0.3983
40310SOL    HW229899   6.641  10.313   2.540  0.4284 -0.6980 -0.5406
40311SOL     OW29900   1.467   9.662   9.445  0.1422  0.8730 -0.5424
40311SOL    HW129901   1.540   9.601   9.439 -0.1919  0.2397  1.3474
40311SOL    HW229902   1.407   9.634   9.377  1.0550  0.5926 -1.2587
40312SOL     OW29903   0.013   3.850   7.095 -0.4235  0.2368 -0.1669
40312SOL    HW129904  -0.024   3.779   7.147  1.0657 -0.9530 -0.6641
40312SOL    HW229905  -0.019   3.834   7.006  0.9772 -0.5984 -0.5314
40313SOL     OW29906   4.989   0.246  11.843  0.0739 -0.1704  0.0334
40313SOL    HW129907   4.924   0.306  11.805  1.8242  1.8601  0.0220
40313SOL    HW229908   5.039   0.301  11.903  3.3901 -0.8896 -1.8187
40314SOL     OW29909   8.144  11.997   9.679  0.5325 -0.2615  0.0205
40314SOL    HW129910   8.131  11.990   9.584  1.9771 -2.1513 -0.1040
40314SOL    HW229911   8.066  11.956   9.716 -1.1254  2.4339 -0.2026
40315SOL     OW29912  12.245   0.541   9.317 -0.5311  0.3460  0.0161
40315SOL    HW129913  12.278   0.466   9.267 -1.9607 -0.7631  0.6455
40315SOL    HW229914  12.205   0.502   9.395  0.1830  1.9067  1.2246
40316SOL     OW29915   4.306   7.114   8.389 -0.0512  0.0775 -0.4325
40316SOL    HW129916   4.285   7.050   8.320 -0.1709  0.2054 -0.5137
40316SOL    HW229917   4.286   7.068   8.471  1.1934 -0.5088 -0.4211
40317SOL     OW29918   4.661   2.165  10.087 -0.4241 -0.8682  0.4906
40317SOL    HW129919   4.741   2.117  10.104 -0.5952 -0.9108  1.2107
40317SOL    HW229920   4.674   2.250  10.129 -1.3397 -1.4207  1.9806
40318SOL     OW29921   1.446  10.519   3.490  0.2923 -0.2247 -0.4254
40318SOL    HW129922   1.359  10.481   3.506 -0.0667 -0.6143 -2.9025
40318SOL    HW229923   1.485  10.526   3.577 -2.3504  0.3290  0.8169
40319SOL     OW29924  12.045   4.752   1.593 -0.4552  0.5332  0.1639
40319SOL    HW129925  12.138   4.757   1.571 -0.1142  1.5855  1.6490
40319SOL    HW229926  12.019   4.664   1.568  0.2350  1.0726 -2.7861
40320SOL     OW29927   4.810   5.009   4.187 -0.6119  0.0585 -0.3834
40320SOL    HW129928   4.745   5.029   4.120 -0.6344  1.7951  0.1238
40320SOL    HW229929   4.872   4.951   4.143 -1.1846  0.3251 -1.5912
40321SOL     OW29930   6.415   8.401   8.255 -0.3199  0.0988 -0.0219
40321SOL    HW129931   6.479   8.334   8.278 -0.9415 -0.3181  0.5037
40321SOL    HW229932   6.345   8.392   8.320 -1.7994 -0.6546 -1.6238
40322SOL     OW29933  10.373  10.233   9.830  0.0747 -0.1007  0.6787
40322SOL    HW129934  10.459  10.256   9.864  0.5273  0.9196 -1.0312
40322SOL    HW229935  10.322  10.314   9.836 -0.1654 -0.1886 -0.0330
40323SOL     OW29936   8.034   2.612   9.070  0.3954 -0.5101  0.2373
40323SOL    HW129937   8.078   2.536   9.108  1.6464 -0.3896 -0.8777
40323SOL    HW229938   8.081   2.628   8.988  0.1673  1.4547  0.4385
40324SOL     OW29939   2.276   6.229   2.057 -0.3176  0.5619  0.4685
40324SOL    HW129940   2.267   6.298   1.992 -2.7339 -2.0060 -2.2016
40324SOL    HW229941   2.194   6.179   2.051  1.2022 -2.4588  2.2746
40325SOL     OW29942   4.635   7.963   5.153 -0.5015  0.3014  0.2073
40325SOL    HW129943   4.695   8.004   5.090 -0.0703  0.2735  0.5969
40325SOL    HW229944   4.659   7.870   5.153 -0.2196  0.3707  0.7203
40326SOL     OW29945   0.842   5.904   4.302 -0.3329  0.0218  0.2098
40326SOL    HW129946   0.766   5.961   4.292  1.0155  1.7826 -0.7070
40326SOL    HW229947   0.909   5.960   4.341  0.8572 -1.1159 -0.1330
40327SOL     OW29948   0.880   3.150   6.613 -0.2298 -0.0941  0.3150
40327SOL    HW129949   0.820   3.075   6.614 -1.1215  0.6025  0.8313
40327SOL    HW229950   0.918   3.149   6.525 -0.4227 -0.9980  0.2289
40328SOL     OW29951   9.772   5.390   8.644 -0.0993  0.3086 -0.7509
40328SOL    HW129952   9.760   5.309   8.693  1.1272  0.3591 -0.3341
40328SOL    HW229953   9.705   5.449   8.678  0.7187  0.3421  0.9056
40329SOL     OW29954   9.306   2.208   9.039  0.2834  0.0405  0.1003
40329SOL    HW129955   9.330   2.184   9.129 -0.1020  0.5836  0.3561
40329SOL    HW229956   9.314   2.127   8.990 -2.2528 -0.9992  1.2016
40330SOL     OW29957   4.381   1.764  12.545  0.4689  0.5874  0.7042
40330SOL    HW129958   4.355   1.848  12.507  0.1839 -0.3405 -1.2233
40330SOL    HW229959   4.299   1.720  12.565  0.5971  0.0119 -0.0207
40331SOL     OW29960  11.113   9.378   2.377 -0.2332 -0.0022 -0.2829
40331SOL    HW129961  11.178   9.308   2.371  1.6571  1.2564  2.9419
40331SOL    HW229962  11.035   9.336   2.412  0.5995 -0.6909  0.7963
40332SOL     OW29963   1.375   5.662   3.774  0.4084  0.0006  0.1763
40332SOL    HW129964   1.380   5.591   3.710 -0.7553 -0.8122  0.9480
40332SOL    HW229965   1.282   5.685   3.777  0.3465 -0.3602  1.9792
40333SOL     OW29966  12.029   1.133   0.375  0.1799 -0.2662  0.7641
40333SOL    HW129967  11.955   1.180   0.336  0.4429  0.9033  1.6311
40333SOL    HW229968  12.067   1.084   0.302 -0.9099 -0.1841  0.1221
40334SOL     OW29969  12.268   2.614  12.396 -0.2480 -0.1027  0.3193
40334SOL    HW129970  12.358   2.644  12.390 -0.1588  0.0434  1.9130
40334SOL    HW229971  12.217   2.678  12.346  0.4611  0.0537 -0.2176
40335SOL     OW29972   3.732   2.680  10.369  0.1374  0.2646  0.6220
40335SOL    HW129973   3.769   2.606  10.322  0.1966 -0.0492  1.1573
40335SOL    HW229974   3.802   2.745  10.371  0.2853  0.1040  0.6619
40336SOL     OW29975   3.170   8.746   2.969 -0.0948  0.1426  0.6337
40336SOL    HW129976   3.135   8.726   2.882  0.6524 -0.1386  0.3892
40336SOL    HW229977   3.105   8.709   3.030  0.1162 -0.9897  0.1915
40337SOL     OW29978   4.162   2.328  11.234 -0.2905 -0.0791  0.0198
40337SOL    HW129979   4.238   2.319  11.177  0.3146  0.1755  0.7670
40337SOL    HW229980   4.087   2.315  11.177  0.2914  0.4644 -0.8940
40338SOL     OW29981   0.550  11.807   4.110 -0.0299  0.2941 -0.2116
40338SOL    HW129982   0.637  11.797   4.148  0.4390 -0.1059 -1.3613
40338SOL    HW229983   0.492  11.815   4.186  1.0967  1.4879  0.5653
40339SOL     OW29984   8.325  10.355  10.304  0.1835 -0.0335  0.2226
40339SOL    HW129985   8.250  10.411  10.326  0.6691  0.5398  0.4311
40339SOL    HW229986   8.401  10.405  10.331  0.8094  0.5697 -2.3995
40340SOL     OW29987   5.375   3.999   6.323  0.4211 -0.1413  0.2726
40340SOL    HW129988   5.455   4.046   6.345  0.6471  0.0991 -1.0138
40340SOL    HW229989   5.405   3.911   6.301  0.0170 -0.9262  2.5292
40341SOL     OW29990   3.003   2.887   6.130  0.7071  0.2327  0.2603
40341SOL    HW129991   3.062   2.812   6.130  1.8555  1.0859 -1.1487
40341SOL    HW229992   2.925   2.856   6.178  0.5465 -2.3021 -1.4168
40342SOL     OW29993   3.943  10.340   8.209 -0.3658  0.1858  0.1053
40342SOL    HW129994   3.956  10.250   8.179  3.2744  0.4150  0.5816
40342SOL    HW229995   3.998  10.393   8.151 -1.6974  2.0318  0.4320
40343SOL     OW29996   3.352  11.481  10.163 -0.1557 -0.3647  0.6418
40343SOL    HW129997   3.281  11.544  10.177 -0.4252 -0.3868 -0.4924
40343SOL    HW229998   3.313  11.396  10.186 -0.7988 -0.4854 -0.7839
40344SOL     OW29999   3.121   9.041   2.927 -0.3096  0.2104  0.2998
40344SOL    HW130000   3.150   8.951   2.942 -1.5052 -0.3421 -0.5103
40344SOL    HW230001   3.184   9.077   2.865 -0.3016 -0.3724 -0.0376
40345SOL     OW30002   7.248   0.712   5.369  0.4927  0.1528  0.5441
40345SOL    HW130003   7.311   0.684   5.302 -0.4840 -1.4825  0.2558
40345SOL    HW230004   7.289   0.687   5.452  0.9433  0.6062  0.4615
40346SOL     OW30005   6.160   1.577   6.224  0.5339 -0.1036 -0.2488
40346SOL    HW130006   6.179   1.532   6.307 -0.2121  1.9251  1.0962
40346SOL    HW230007   6.095   1.521   6.182 -0.8861 -0.0389  1.6871
40347SOL     OW30008   9.996  10.698   4.076  1.1070  0.4322 -0.0299
40347SOL    HW130009   9.932  10.768   4.059  0.0132 -0.9569 -2.1916
40347SOL    HW230010   9.962  10.651   4.152 -0.0820  0.1869 -0.6888
40348SOL     OW30011   2.151   3.849   2.874  0.2014 -0.0675  0.2770
40348SOL    HW130012   2.186   3.796   2.803  0.8345 -0.9984  1.2538
40348SOL    HW230013   2.095   3.913   2.831 -0.0769 -1.1200 -0.9934
40349SOL     OW30014  10.004   4.948   2.620 -0.5205  0.3509  0.2787
40349SOL    HW130015   9.920   4.967   2.577 -1.7817  0.7553  2.7160
40349SOL    HW230016   9.985   4.875   2.679  1.4598 -1.0648 -0.7334
40350SOL     OW30017   1.303   1.594   7.863  0.0003 -0.1381 -0.3695
40350SOL    HW130018   1.290   1.532   7.935 -1.6817  0.5421 -0.0593
40350SOL    HW230019   1.258   1.554   7.788  0.7683 -0.2953 -0.7632
40351SOL     OW30020   5.103  10.146   8.334  0.4355 -0.1985 -0.4016
40351SOL    HW130021   5.062  10.186   8.257  0.2746  1.3394  0.4497
40351SOL    HW230022   5.182  10.104   8.300 -1.7649 -3.4322 -2.1478
40352SOL     OW30023   4.319   4.111  11.181 -0.2224  0.6460 -0.2742
40352SOL    HW130024   4.274   4.037  11.141 -0.3207  0.3414  0.3768
40352SOL    HW230025   4.262   4.137  11.254  0.8199  0.0049  0.7993
40353SOL     OW30026   9.465   1.878   5.442  0.1209  0.2363  0.3238
40353SOL    HW130027   9.371   1.891   5.432 -0.1270 -1.5899  0.0672
40353SOL    HW230028   9.484   1.799   5.392  1.6276  0.0539  1.1245
40354SOL     OW30029  10.416   0.107   4.446  0.2658  0.0863  0.3087
40354SOL    HW130030  10.440   0.158   4.523  0.4065 -0.0944  0.3863
40354SOL    HW230031  10.465   0.147   4.374 -3.3941  3.3388 -0.6796
40355SOL     OW30032   4.338  10.161   5.149  0.2671 -0.1460  0.1153
40355SOL    HW130033   4.314  10.248   5.183  0.1337 -0.2528  0.2938
40355SOL    HW230034   4.434  10.162   5.146  0.2472  0.2475 -0.5087
40356SOL     OW30035   1.219   8.134   2.316 -0.3286 -0.1826  0.1270
40356SOL    HW130036   1.240   8.130   2.222 -0.3179 -2.8036  0.1707
40356SOL    HW230037   1.305   8.130   2.359 -0.2962  1.5283  0.3136
40357SOL     OW30038  10.869   0.009   3.376 -0.0282 -0.5922 -0.0552
40357SOL    HW130039  10.932   0.035   3.309 -0.6615 -0.7652 -0.7381
40357SOL    HW230040  10.922  -0.010   3.453  0.6570  0.2973 -0.2902
40358SOL     OW30041   1.299   7.239   4.549 -0.3194 -0.5538 -0.2203
40358SOL    HW130042   1.230   7.180   4.521 -0.6868 -0.0150 -0.4644
40358SOL    HW230043   1.344   7.263   4.467 -0.2641 -0.3753 -0.1371
40359SOL     OW30044  11.934  12.566   6.433  0.0368 -0.1010 -0.2612
40359SOL    HW130045  11.926  12.529   6.521 -0.0944 -0.1102 -0.2771
40359SOL    HW230046  12.004  12.515   6.392 -0.6320 -0.8246 -0.5293
40360SOL     OW30047   8.558   0.953   0.467  0.2434  0.0648  0.1240
40360SOL    HW130048   8.499   0.997   0.528 -0.9046 -0.2890 -0.7025
40360SOL    HW230049   8.557   0.861   0.493  0.5174  0.0731  0.1698
40361SOL     OW30050   5.506   6.924   8.673  0.6898 -0.1084  0.1548
40361SOL    HW130051   5.537   6.999   8.724 -0.0285 -0.3635  0.9769
40361SOL    HW230052   5.446   6.877   8.731 -0.3212 -0.2871 -0.9735
40362SOL     OW30053   1.531   0.080   7.790 -0.0747 -0.5406 -0.2177
40362SOL    HW130054   1.574   0.164   7.779 -0.0507 -0.3965  0.9315
40362SOL    HW230055   1.439   0.101   7.806  0.1622 -0.6541  1.4102
40363SOL     OW30056   8.968   8.321   3.326 -0.3730 -0.3437  0.0984
40363SOL    HW130057   8.940   8.262   3.256  1.1030 -2.0154  0.8453
40363SOL    HW230058   8.968   8.267   3.405  0.2167  0.8776  0.9699
40364SOL     OW30059   5.492   5.892   2.898  0.0177 -0.3308  0.4111
40364SOL    HW130060   5.504   5.860   2.809 -1.2931 -0.4226  0.2523
40364SOL    HW230061   5.527   5.981   2.897 -0.2788 -0.2155 -0.2829
40365SOL     OW30062   5.162   3.140   0.400 -0.1217 -0.1560 -0.1435
40365SOL    HW130063   5.248   3.180   0.403 -0.4492  0.5349  1.8076
40365SOL    HW230064   5.163   3.077   0.472 -0.6139 -1.5600 -1.3209
40366SOL     OW30065   1.512   3.535  11.759 -0.3084  0.1770 -0.2857
40366SOL    HW130066   1.435   3.588  11.777 -0.6721 -0.0917 -1.0126
40366SOL    HW230067   1.522   3.537  11.664  1.7138  1.7779 -0.1087
40367SOL     OW30068  11.170  10.148   8.300 -0.1798 -0.1665 -0.0629
40367SOL    HW130069  11.168  10.182   8.390 -1.0256  0.5185 -0.3279
40367SOL    HW230070  11.244  10.192   8.259 -0.0142 -0.2064  0.1895
40368SOL     OW30071  10.542  10.762  11.986  0.0492  0.0876 -0.1088
40368SOL    HW130072  10.561  10.676  11.947 -0.2460 -0.0239 -0.0146
40368SOL    HW230073  10.610  10.820  11.951  0.6946 -0.3464  0.4032
40369SOL     OW30074   1.844   4.213   7.433 -0.9897 -0.2547  0.3501
40369SOL    HW130075   1.815   4.192   7.345  0.6828 -0.5621 -0.1597
40369SOL    HW230076   1.803   4.146   7.488 -0.9299 -0.9056 -0.3818
40370SOL     OW30077  12.314   5.637   3.224 -0.6248 -0.3971  0.1557
40370SOL    HW130078  12.241   5.624   3.164  0.5978  0.4054 -1.5866
40370SOL    HW230079  12.350   5.722   3.201  1.7535 -1.3691 -0.0620
40371SOL     OW30080   4.651   4.221   0.469  0.0909  1.3235  0.0722
40371SOL    HW130081   4.631   4.134   0.437 -0.3995  1.7605 -0.8588
40371SOL    HW230082   4.699   4.207   0.550 -1.5274  0.2098  0.8941
40372SOL     OW30083  10.550  11.771  11.341 -0.1114  0.9073 -0.9323
40372SOL    HW130084  10.615  11.757  11.409 -0.2165  0.5349 -0.9103
40372SOL    HW230085  10.471  11.799  11.388 -0.1246  0.8441 -0.9174
40373SOL     OW30086  11.562   5.844   7.102 -0.2379 -0.0162 -0.3354
40373SOL    HW130087  11.621   5.919   7.102  0.2683 -0.3800 -2.3924
40373SOL    HW230088  11.514   5.851   7.020 -0.6298 -1.6131 -0.2671
40374SOL     OW30089   9.697   7.883   0.880 -0.4144  0.0691  0.1820
40374SOL    HW130090   9.667   7.834   0.803  0.7354  0.7527 -0.7379
40374SOL    HW230091   9.624   7.878   0.941 -1.7967  0.3812 -1.3582
40375SOL     OW30092  10.077  12.181   3.130 -0.1905  0.4506  0.8714
40375SOL    HW130093  10.168  12.206   3.118  0.2169 -0.4544  1.8807
40375SOL    HW230094  10.067  12.100   3.080  0.1802 -0.6401  2.4896
40376SOL     OW30095   3.927   1.457  11.486 -0.8260  0.9655 -0.4888
40376SOL    HW130096   3.852   1.415  11.445  0.1988 -1.3757 -0.1261
40376SOL    HW230097   3.898   1.474  11.576 -0.7357 -0.5598 -0.1494
40377SOL     OW30098   8.003   5.341   7.320  0.3479  0.1402  0.0627
40377SOL    HW130099   7.962   5.298   7.395 -1.3410  0.8283 -0.4022
40377SOL    HW230100   7.959   5.426   7.315  0.5792  0.1870 -1.5546
40378SOL     OW30101   9.209   5.844   6.393  0.3241  0.5033  0.4128
40378SOL    HW130102   9.238   5.835   6.303  0.4482  1.1777  0.3793
40378SOL    HW230103   9.228   5.759   6.433 -1.2448 -0.3724 -0.5953
40379SOL     OW30104  10.755   7.074   6.659  0.5623  0.3090  0.3335
40379SOL    HW130105  10.799   7.049   6.578  0.0435 -1.7950  0.6422
40379SOL    HW230106  10.733   7.166   6.647  1.3072  0.2797 -1.5385
40380SOL     OW30107   3.601  11.852   3.868  0.5315 -0.0078 -0.2234
40380SOL    HW130108   3.570  11.943   3.863  0.7356  0.0455 -0.5492
40380SOL    HW230109   3.693  11.860   3.891  0.0963 -0.1912  1.7640
40381SOL     OW30110  11.080   3.363   4.658  0.5120  0.1142 -0.1304
40381SOL    HW130111  11.035   3.283   4.682  1.1886 -0.3902 -0.5057
40381SOL    HW230112  11.030   3.397   4.584  1.1461 -0.8292 -1.0166
40382SOL     OW30113   6.627   1.508  10.436  0.4646 -0.1313 -0.7183
40382SOL    HW130114   6.716   1.491  10.468  0.5681 -1.0195 -1.4421
40382SOL    HW230115   6.622   1.460  10.353 -0.8470 -0.4728 -0.4605
40383SOL     OW30116   1.938   7.807   2.069  0.0225  0.4053  0.5168
40383SOL    HW130117   1.899   7.721   2.061  1.9145 -0.4604  0.0468
40383SOL    HW230118   1.895   7.846   2.145 -1.7626 -0.4267 -0.0263
40384SOL     OW30119   8.540   9.088   0.838 -0.1268 -0.0868 -0.2321
40384SOL    HW130120   8.458   9.091   0.788  0.5644 -0.6728 -1.4456
40384SOL    HW230121   8.604   9.131   0.782  0.0520  2.0806  1.5023
40385SOL     OW30122  10.893   7.171   6.117 -0.2932 -0.6024 -0.1387
40385SOL    HW130123  10.840   7.142   6.191 -1.4877  0.1936 -0.6530
40385SOL    HW230124  10.833   7.169   6.042 -0.3437  2.6772 -0.3114
40386SOL     OW30125   8.722   3.777   2.041 -0.1402  0.0052  0.1974
40386SOL    HW130126   8.805   3.770   2.089  0.2397  0.4758 -0.3858
40386SOL    HW230127   8.667   3.708   2.080  0.2732  0.1467  1.0706
40387SOL     OW30128  12.103   5.775   4.927 -0.3354  0.2964  0.2731
40387SOL    HW130129  12.149   5.698   4.894 -0.2607  0.3221  0.3159
40387SOL    HW230130  12.029   5.739   4.976 -0.2651  0.2494  0.3450
40388SOL     OW30131   5.909   9.363   5.033  0.3924  0.4168  0.4322
40388SOL    HW130132   5.839   9.371   4.968 -1.5532  1.9035  2.5471
40388SOL    HW230133   5.919   9.269   5.047 -0.8523  0.1577 -0.2973
40389SOL     OW30134   3.717  10.113   8.811 -0.0212  0.0708 -0.5681
40389SOL    HW130135   3.665  10.124   8.890 -0.5084 -0.4177 -0.8150
40389SOL    HW230136   3.654  10.088   8.744  0.5908 -1.0723 -0.7494
40390SOL     OW30137   5.140   9.735   3.044  0.0681  0.2185  0.3112
40390SOL    HW130138   5.204   9.718   2.975 -0.9450  1.2337 -0.9228
40390SOL    HW230139   5.142   9.656   3.099  0.0954 -1.0981 -1.5110
40391SOL     OW30140   1.157   3.099   7.422 -0.1104  0.2201  0.1270
40391SOL    HW130141   1.101   3.175   7.438 -0.8958 -0.3195  0.0164
40391SOL    HW230142   1.230   3.134   7.370  0.6892  1.3075  1.9031
40392SOL     OW30143   0.142   1.700   9.437  0.1865  0.0939 -0.2596
40392SOL    HW130144   0.052   1.671   9.420 -0.0013  0.4961  0.0349
40392SOL    HW230145   0.192   1.668   9.362  0.2515 -2.1194  0.6588
40393SOL     OW30146   3.765  12.440   9.067 -0.2377  0.7014 -0.3204
40393SOL    HW130147   3.798  12.400   9.148 -1.1633  1.1068  0.2796
40393SOL    HW230148   3.843  12.467   9.020  0.2989  2.1015  1.2833
40394SOL     OW30149  10.280   4.093   1.941  0.4689  0.3143 -0.3170
40394SOL    HW130150  10.338   4.145   1.997 -1.2364  0.5577  1.3488
40394SOL    HW230151  10.239   4.156   1.883  1.6381  0.1781 -1.3145
40395SOL     OW30152   1.769   5.647   7.628  0.2549  0.8955  0.2228
40395SOL    HW130153   1.833   5.577   7.613  0.1368  1.1912 -1.8713
40395SOL    HW230154   1.702   5.606   7.683  0.2091 -0.6573 -0.9324
40396SOL     OW30155  12.534   6.116   9.556  0.2110  0.2496 -0.1492
40396SOL    HW130156  12.629   6.114   9.568  0.5324 -0.4939 -2.3982
40396SOL    HW230157  12.511   6.028   9.527 -1.3495  0.1335  1.2940
40397SOL     OW30158  10.403   3.638   6.845  0.8782 -0.2746  0.5756
40397SOL    HW130159  10.453   3.714   6.816  0.2544 -0.0266  0.1214
40397SOL    HW230160  10.397   3.647   6.940  0.6230  0.3543  0.4979
40398SOL     OW30161   5.472   4.188   7.040 -0.2247  0.3098  0.2112
40398SOL    HW130162   5.499   4.258   6.981  0.2580  0.0885  0.1674
40398SOL    HW230163   5.377   4.184   7.030 -0.2098  0.6658 -0.1119
40399SOL     OW30164   1.397  12.126   8.440  0.1631  0.3640  0.2371
40399SOL    HW130165   1.427  12.056   8.498  3.6752  0.3714 -1.3383
40399SOL    HW230166   1.321  12.163   8.485  0.9996 -1.3972  3.4160
40400SOL     OW30167   7.189  11.586   6.883 -0.1247  0.5976  0.8812
40400SOL    HW130168   7.186  11.681   6.897 -0.5371  0.4230  2.0456
40400SOL    HW230169   7.102  11.556   6.911 -0.3539 -0.0093 -0.4164
40401SOL     OW30170   4.869  11.971  10.704  0.1538  0.4349  0.3673
40401SOL    HW130171   4.894  12.057  10.668 -0.3703  0.4661  0.0729
40401SOL    HW230172   4.942  11.914  10.682 -0.0978  0.4827 -0.6493
40402SOL     OW30173   1.587  12.499   4.882 -0.4062  0.2719 -0.1729
40402SOL    HW130174   1.657  12.546   4.836  0.0375 -1.4773 -1.3906
40402SOL    HW230175   1.591  12.410   4.847 -1.6358 -0.5181  1.5673
40403SOL     OW30176   6.591   0.975   0.025  0.2298 -0.0107 -0.0536
40403SOL    HW130177   6.516   1.000   0.078  0.5766  0.2518  0.3260
40403SOL    HW230178   6.666   1.014   0.070  0.3933  1.5833 -1.5978
40404SOL     OW30179   1.481   3.430  10.849 -0.0630  0.4936  0.3889
40404SOL    HW130180   1.386   3.429  10.860 -0.0212  1.8560  1.0235
40404SOL    HW230181   1.512   3.358  10.905 -0.8287 -1.3733 -1.4621
40405SOL     OW30182   9.593   3.110  12.129 -0.2686 -0.1456 -0.3223
40405SOL    HW130183   9.607   3.062  12.048  1.0128 -0.6164  0.1564
40405SOL    HW230184   9.550   3.048  12.187  0.1902 -0.2994 -0.1429
40406SOL     OW30185   7.395   3.115   6.738 -0.2540  0.1669 -0.3367
40406SOL    HW130186   7.305   3.094   6.713 -0.7794  0.3190  1.2734
40406SOL    HW230187   7.435   3.150   6.659 -1.1180 -1.4077 -1.5110
40407SOL     OW30188   6.859  11.681   1.139 -0.1830  0.7751  0.6479
40407SOL    HW130189   6.780  11.629   1.133 -0.1032  0.6494  0.6940
40407SOL    HW230190   6.829  11.772   1.130 -0.0281  0.6326 -2.6460
40408SOL     OW30191   3.247   4.218   7.576 -0.3054  0.2391 -0.2357
40408SOL    HW130192   3.291   4.216   7.661  1.8169  1.2878 -1.2496
40408SOL    HW230193   3.249   4.127   7.546 -1.9289 -0.3307  1.1727
40409SOL     OW30194   8.468   3.777   1.810  0.3590 -0.0015  0.1540
40409SOL    HW130195   8.431   3.843   1.868  1.8897 -1.5085  3.0721
40409SOL    HW230196   8.394   3.748   1.756 -1.1037  1.6465  1.1785
40410SOL     OW30197   3.453   5.397   4.549 -0.3484  0.3840 -0.4451
40410SOL    HW130198   3.363   5.385   4.578 -0.5405  1.7109 -0.4695
40410SOL    HW230199   3.460   5.490   4.527  1.8804  1.0765  2.5658
40411SOL     OW30200   8.844  10.990   9.458  0.0473  0.9842 -0.0646
40411SOL    HW130201   8.929  11.033   9.465  0.0692  0.9059  0.1676
40411SOL    HW230202   8.800  11.010   9.540  1.0045 -1.4129  1.1411
40412SOL     OW30203   6.536   1.402   8.248  0.2787  0.2917 -0.5051
40412SOL    HW130204   6.622   1.373   8.278  0.3384  1.5260  0.6452
40412SOL    HW230205   6.542   1.399   8.153  1.8682  1.0450 -0.4665
40413SOL     OW30206   4.336   2.165   2.659 -0.1611  0.2389 -0.1189
40413SOL    HW130207   4.371   2.077   2.649  0.2540  0.2126  1.4049
40413SOL    HW230208   4.298   2.185   2.573  1.0252 -0.8411 -0.9335
40414SOL     OW30209   5.521   1.936   3.012  0.1595 -0.1536  0.3475
40414SOL    HW130210   5.527   1.851   3.055  0.5083 -0.0168  0.5759
40414SOL    HW230211   5.524   2.000   3.084  3.5628  0.2122  0.0530
40415SOL     OW30212   4.574   4.684  10.941  0.0734 -0.7224 -0.4017
40415SOL    HW130213   4.632   4.609  10.926  0.0001 -0.9953  0.6276
40415SOL    HW230214   4.554   4.680  11.034  0.8154  1.1221 -0.1245
40416SOL     OW30215   8.723  12.103   4.362  0.4996 -0.0592 -0.2997
40416SOL    HW130216   8.658  12.134   4.299 -1.4218 -0.4976  1.3560
40416SOL    HW230217   8.690  12.018   4.391  1.5311 -0.0581  0.9811
40417SOL     OW30218   7.352   8.024   0.279  0.0910  0.0270  0.2281
40417SOL    HW130219   7.299   7.988   0.208 -1.0197  2.3635 -0.2111
40417SOL    HW230220   7.299   8.013   0.358  0.1069  0.0041  0.2358
40418SOL     OW30221  11.060   8.424   9.992 -0.1659  0.1320  0.1256
40418SOL    HW130222  11.103   8.339   9.978  1.1760  0.7347  0.4213
40418SOL    HW230223  11.096   8.457  10.074  0.9238  1.8961 -0.9836
40419SOL     OW30224  10.093   4.644   7.917  0.2326  0.0489  0.3349
40419SOL    HW130225  10.021   4.591   7.952  1.7789 -2.0633  0.5434
40419SOL    HW230226  10.157   4.647   7.988  1.2440  0.0911 -0.5576
40420SOL     OW30227   6.975  10.994   0.538  0.3042  0.5467  0.1546
40420SOL    HW130228   6.897  11.048   0.529 -0.6203 -1.0808 -2.4098
40420SOL    HW230229   6.948  10.920   0.591  0.5332  0.6836  0.4708
40421SOL     OW30230  11.543   0.989   1.262  0.0953  0.4974 -0.1632
40421SOL    HW130231  11.601   1.064   1.249  0.4637  0.2452  0.0293
40421SOL    HW230232  11.457   1.028   1.277  0.3874  0.8982  0.4999
40422SOL     OW30233  11.285   4.997  10.572  0.1496 -0.2875  0.0667
40422SOL    HW130234  11.271   4.942  10.649 -1.0120  0.7889  0.6581
40422SOL    HW230235  11.205   4.988  10.521  1.2581 -1.7129 -1.5273
40423SOL     OW30236  11.869   4.945   9.606 -0.3197  0.2963  0.1896
40423SOL    HW130237  11.826   4.886   9.668  0.2554  0.0284  0.3403
40423SOL    HW230238  11.883   5.026   9.656 -0.4287  0.3011  0.2130
40424SOL     OW30239   8.808   7.020   1.334 -0.1384  0.6768 -0.5019
40424SOL    HW130240   8.733   7.008   1.277 -0.3227  0.6718 -0.2594
40424SOL    HW230241   8.772   7.017   1.423  0.1050  0.9532 -0.3896
40425SOL     OW30242   6.393   0.875   4.228  0.3502  0.1530  0.6989
40425SOL    HW130243   6.455   0.809   4.259  1.6275  1.4349  0.9907
40425SOL    HW230244   6.377   0.930   4.304 -0.3475  0.4480  0.3474
40426SOL     OW30245  11.299  10.276   9.934  0.1530  0.3471  0.3214
40426SOL    HW130246  11.280  10.360   9.893 -0.0453  0.0350 -0.2527
40426SOL    HW230247  11.375  10.243   9.886  0.2398  0.2118  0.5523
40427SOL     OW30248   2.319  10.691   9.401 -0.0511 -0.0512 -0.1839
40427SOL    HW130249   2.379  10.755   9.438  1.0088 -0.7291 -0.6835
40427SOL    HW230250   2.293  10.637   9.476 -1.5590  1.3889  0.3852
40428SOL     OW30251   3.962  10.963   8.912 -0.0514  0.3512  0.0698
40428SOL    HW130252   3.934  11.053   8.891  0.1760  0.6285  0.9318
40428SOL    HW230253   3.995  10.968   9.001  0.6870 -0.4397 -0.1488
40429SOL     OW30254   5.507   6.523  10.099 -0.1148 -0.3498  0.3420
40429SOL    HW130255   5.470   6.608  10.072 -0.1038 -0.2462  0.6473
40429SOL    HW230256   5.576   6.505  10.035  0.5109  0.3183  0.8076
40430SOL     OW30257   7.493   6.540   3.952 -0.1616  0.0225 -0.6658
40430SOL    HW130258   7.474   6.449   3.975 -0.8834  0.4724  0.6180
40430SOL    HW230259   7.438   6.557   3.875 -1.0513 -0.2421 -0.1022
40431SOL     OW30260  10.141  11.861   3.835  0.5743 -0.5008  0.7181
40431SOL    HW130261  10.132  11.794   3.767  0.0037  0.1580  0.1265
40431SOL    HW230262  10.051  11.875   3.867  0.5703  0.4724  0.3327
40432SOL     OW30263   4.437   1.548   3.820  0.0391 -0.0538 -0.7650
40432SOL    HW130264   4.517   1.496   3.817  0.6990  0.7468  1.1536
40432SOL    HW230265   4.445   1.609   3.747  1.5091  0.4220 -0.2438
40433SOL     OW30266   9.259   0.395   1.655 -0.3988  0.1673 -0.0716
40433SOL    HW130267   9.246   0.490   1.645 -2.0611 -0.1709 -1.7349
40433SOL    HW230268   9.206   0.372   1.732  0.4812  0.6404  0.7004
40434SOL     OW30269   7.567   4.611   4.626  0.3630  0.4261 -0.6685
40434SOL    HW130270   7.613   4.611   4.709  0.6793  0.7835 -0.8397
40434SOL    HW230271   7.479   4.643   4.647  0.0068 -0.7707 -0.2516
40435SOL     OW30272   5.780   6.427   3.065  0.3376 -0.1923 -0.1755
40435SOL    HW130273   5.800   6.520   3.077  2.4732 -0.5829 -0.3863
40435SOL    HW230274   5.797   6.410   2.972  1.0893 -1.0432  0.1059
40436SOL     OW30275   2.725   2.126   3.213  0.0718 -0.4498 -0.1856
40436SOL    HW130276   2.756   2.184   3.284  1.0885 -0.2855 -0.7392
40436SOL    HW230277   2.631   2.118   3.228  0.0670  0.5971  0.4505
40437SOL     OW30278   0.108   1.424   9.834 -0.2783 -0.0002 -0.3655
40437SOL    HW130279   0.171   1.475   9.886  0.9405 -1.6746 -0.1057
40437SOL    HW230280   0.044   1.488   9.803 -0.4272  1.2359  2.2795
40438SOL     OW30281   6.360   1.565   0.435 -0.2003 -0.3393  0.2430
40438SOL    HW130282   6.282   1.520   0.468 -2.2298  1.7049 -1.3833
40438SOL    HW230283   6.357   1.550   0.340  1.0180  0.3112  0.0875
40439SOL     OW30284   6.045  11.071   9.284 -0.3181 -0.1787  1.0639
40439SOL    HW130285   6.035  11.163   9.261  1.3221 -0.2712 -0.1952
40439SOL    HW230286   6.007  11.023   9.210 -0.2585 -0.5176  1.2511
40440SOL     OW30287  11.868   0.415  12.245  0.1648 -0.2614  0.5899
40440SOL    HW130288  11.913   0.461  12.316 -0.2891  0.7746  0.2208
40440SOL    HW230289  11.909   0.448  12.165 -1.0583  0.5069  0.2584
40441SOL     OW30290   4.305   8.641   1.605 -0.3214 -0.0654 -1.2370
40441SOL    HW130291   4.219   8.630   1.644  0.2321 -2.0501 -0.4098
40441SOL    HW230292   4.347   8.555   1.617  1.4831  0.6215 -2.2830
40442SOL     OW30293   8.306   6.105   7.440  0.4732 -0.3967 -0.3883
40442SOL    HW130294   8.331   6.084   7.350  2.2926  0.1716 -0.0669
40442SOL    HW230295   8.323   6.025   7.490  2.9753  0.3204  0.0353
40443SOL     OW30296  10.889   2.024   8.405 -0.0112 -0.2250  0.0079
40443SOL    HW130297  10.942   2.101   8.383 -0.3426  0.0707  0.2417
40443SOL    HW230298  10.944   1.949   8.379  0.3880  0.0838 -0.0502
40444SOL     OW30299   7.253  12.365  12.024 -0.0750  0.0337  0.3138
40444SOL    HW130300   7.180  12.415  11.987  0.3530  0.2129 -0.3057
40444SOL    HW230301   7.211  12.305  12.086 -0.6188  0.9789  0.8902
40445SOL     OW30302   0.936   9.608   1.918 -0.2121 -0.5300  0.0957
40445SOL    HW130303   0.898   9.627   2.004  0.3705  0.3204  0.1685
40445SOL    HW230304   0.861   9.607   1.859 -0.4420  0.4887  0.3496
40446SOL     OW30305   4.084   3.611  11.770  0.2456  0.3887 -0.1174
40446SOL    HW130306   4.073   3.677  11.701  1.3797 -0.8050 -1.5079
40446SOL    HW230307   4.036   3.646  11.845  0.7986  2.7609 -0.8037
40447SOL     OW30308   7.724   0.176   0.011 -0.1881 -0.0062  0.3145
40447SOL    HW130309   7.675   0.253  -0.017 -0.5735 -1.0103 -1.9408
40447SOL    HW230310   7.775   0.207   0.087 -1.7547  1.9264  0.6739
40448SOL     OW30311   8.691   9.504   2.502 -0.1019  0.2967 -0.4176
40448SOL    HW130312   8.687   9.594   2.534 -1.3934  0.2215 -0.2840
40448SOL    HW230313   8.747   9.507   2.425  1.5298  0.8268  0.7429
40449SOL     OW30314   3.440   9.891   6.241  0.2508 -0.6129  0.5062
40449SOL    HW130315   3.362   9.857   6.197 -0.1105 -0.9569  1.3750
40449SOL    HW230316   3.431   9.986   6.235  1.2761 -0.6219 -1.9496
40450SOL     OW30317   7.401   7.117   2.929 -0.2223  0.0930 -0.0321
40450SOL    HW130318   7.333   7.177   2.959  0.6483 -0.1082  2.6851
40450SOL    HW230319   7.463   7.173   2.881 -0.9789  0.7546 -0.2546
40451SOL     OW30320   2.044   8.084   3.674 -0.2184  0.4414 -0.7041
40451SOL    HW130321   1.969   8.074   3.732 -0.5048  0.5459 -1.0520
40451SOL    HW230322   2.118   8.051   3.724 -0.4509  0.5988 -0.2547
40452SOL     OW30323   1.690   1.448   3.321 -0.7613 -0.3196  0.1799
40452SOL    HW130324   1.696   1.356   3.348 -2.5635 -0.7623 -0.7728
40452SOL    HW230325   1.694   1.497   3.403  1.6837 -1.1029  0.6172
40453SOL     OW30326  12.286   4.698   5.832  0.9044 -0.0138 -0.2504
40453SOL    HW130327  12.250   4.624   5.783  0.9229  0.4015 -0.9095
40453SOL    HW230328  12.283   4.670   5.924 -0.1255 -0.3989 -0.3845
40454SOL     OW30329   8.489   3.983  11.019 -0.0495  0.1270 -0.8668
40454SOL    HW130330   8.580   3.958  11.009 -0.0290  0.0017 -0.4144
40454SOL    HW230331   8.452   3.916  11.077 -0.4638  0.0938 -1.1565
40455SOL     OW30332   8.808   8.624   5.126  0.6939  0.3523 -0.1045
40455SOL    HW130333   8.814   8.571   5.206 -1.2726 -2.8628 -1.8731
40455SOL    HW230334   8.888   8.605   5.078 -0.3153 -1.7223 -1.0489
40456SOL     OW30335  11.458  11.766   2.146 -0.1098 -0.5204  0.7296
40456SOL    HW130336  11.477  11.806   2.062 -1.7197  0.6497  0.8637
40456SOL    HW230337  11.401  11.692   2.125 -2.4630  1.1235  0.8397
40457SOL     OW30338   9.067   5.720   2.822  0.4350  0.4871  0.2597
40457SOL    HW130339   9.080   5.699   2.915 -0.5605  1.3235  0.6122
40457SOL    HW230340   9.094   5.641   2.775 -0.3924 -0.4800  1.3501
40458SOL     OW30341   3.411   8.628   2.311 -0.4335 -0.2824  0.0677
40458SOL    HW130342   3.495   8.584   2.320 -0.4540 -0.1799  0.8267
40458SOL    HW230343   3.358   8.568   2.259  0.2345 -0.1600 -0.7812
40459SOL     OW30344  10.805   6.145  11.623  0.1564 -1.2301 -0.1144
40459SOL    HW130345  10.826   6.231  11.658 -0.0246 -1.0743 -0.3827
40459SOL    HW230346  10.810   6.086  11.698 -0.8926 -0.7927  0.3173
40460SOL     OW30347   3.495   3.676   8.902 -0.1718 -0.0162  0.1492
40460SOL    HW130348   3.571   3.640   8.948 -0.3375  1.1088  1.3282
40460SOL    HW230349   3.447   3.598   8.873  0.1629 -0.7661  1.4991
40461SOL     OW30350   5.543  10.479   0.455  0.1493  0.3950  0.3569
40461SOL    HW130351   5.611  10.464   0.521  2.1399 -1.0317 -1.8333
40461SOL    HW230352   5.526  10.393   0.419 -1.2463  1.0639 -0.6560
40462SOL     OW30353  11.151   6.941  11.989 -0.1698 -0.2802  0.5654
40462SOL    HW130354  11.094   6.884  12.040 -0.5223 -2.5873 -2.1729
40462SOL    HW230355  11.215   6.882  11.949  1.1697  1.6212 -0.2632
40463SOL     OW30356   2.746  10.734  11.354 -0.4364  0.0441 -0.0367
40463SOL    HW130357   2.769  10.785  11.276 -0.1923  1.1969  0.7616
40463SOL    HW230358   2.757  10.643  11.327 -1.6357  0.3629 -1.7364
40464SOL     OW30359  11.998  10.202   0.999  0.2328 -0.6115  0.0171
40464SOL    HW130360  12.011  10.211   1.093  0.2005 -3.0765  0.3173
40464SOL    HW230361  11.914  10.157   0.990  0.9825 -1.8871 -1.0927
40465SOL     OW30362   6.338   3.109   3.240 -0.6683  0.3394  0.1798
40465SOL    HW130363   6.274   3.084   3.308 -0.2113 -1.1647  0.0854
40465SOL    HW230364   6.314   3.056   3.164  2.5070 -2.7414  1.0624
40466SOL     OW30365   9.730   6.961  10.220  0.6480 -0.0181 -0.6956
40466SOL    HW130366   9.746   6.940  10.311  0.5228  1.3452 -0.3412
40466SOL    HW230367   9.642   6.998  10.219  0.5323 -0.2910 -1.4211
40467SOL     OW30368  11.362   1.827  11.390  0.2420 -0.0643  0.1644
40467SOL    HW130369  11.427   1.892  11.416  0.5301 -0.6011  0.8092
40467SOL    HW230370  11.411   1.746  11.379  0.1234  0.0780 -1.9753
40468SOL     OW30371   8.954  11.042  10.460 -0.0097 -0.3628 -0.0277
40468SOL    HW130372   8.887  11.035  10.392 -0.3672  1.7904  0.0508
40468SOL    HW230373   9.032  11.074  10.415 -0.4121  1.6264  0.6162
40469SOL     OW30374   6.675   6.389  11.329  0.2857  0.9558 -0.2189
40469SOL    HW130375   6.682   6.425  11.241  0.6293  1.7665  0.1185
40469SOL    HW230376   6.764   6.362  11.351  0.0347 -0.0896 -0.4527
40470SOL     OW30377   1.570  12.562  11.711  0.0711 -0.8075 -0.4922
40470SOL    HW130378   1.663  12.546  11.728  0.0628 -1.4859 -1.0459
40470SOL    HW230379   1.569  12.636  11.650  0.2315 -0.5953 -0.2401
40471SOL     OW30380   9.012   8.580   5.346  0.0277  0.3171  0.0392
40471SOL    HW130381   9.058   8.540   5.420 -1.3972 -2.1735 -0.3016
40471SOL    HW230382   9.032   8.522   5.272 -2.5120 -0.1247 -0.3905
40472SOL     OW30383   5.920   5.786   8.720  0.3485  0.0782 -0.3724
40472SOL    HW130384   5.883   5.718   8.664  3.0320 -0.5525 -1.5635
40472SOL    HW230385   6.002   5.749   8.751 -0.0536  1.2480  2.3422
40473SOL     OW30386   3.948   2.675   7.733  0.1304 -0.6854 -0.2165
40473SOL    HW130387   3.863   2.632   7.730 -1.4196  1.8914  1.9939
40473SOL    HW230388   3.938   2.753   7.679  1.0816 -0.3575  0.0596
40474SOL     OW30389  10.622   3.866   9.955  0.1383  0.5702  0.5766
40474SOL    HW130390  10.652   3.926  10.022  0.3080  1.6977 -0.4817
40474SOL    HW230391  10.670   3.891   9.876 -0.3591 -0.4508 -0.0794
40475SOL     OW30392   9.641   4.636   3.952  0.1050 -0.0502  0.0729
40475SOL    HW130393   9.703   4.653   4.023 -0.0296 -3.0626  1.0503
40475SOL    HW230394   9.697   4.611   3.878  0.1563  1.0363 -0.2749
40476SOL     OW30395   4.924   8.816  12.400  0.2752 -0.0611 -0.3415
40476SOL    HW130396   4.882   8.888  12.353 -0.0978  2.0948  2.9410
40476SOL    HW230397   5.017   8.837  12.398  0.3022 -0.2015 -0.5031
40477SOL     OW30398  11.998   8.203   6.860  0.1587  0.2543  0.5975
40477SOL    HW130399  11.989   8.291   6.824 -1.0815 -0.4456 -0.8760
40477SOL    HW230400  12.081   8.206   6.908  0.1826  2.1910  0.5234
40478SOL     OW30401   1.244   5.248   4.364  0.6086 -0.1380 -0.0857
40478SOL    HW130402   1.245   5.335   4.325  0.5091 -0.6241 -1.1901
40478SOL    HW230403   1.206   5.262   4.451 -1.0177  0.6844 -0.8806
40479SOL     OW30404   2.285   6.019   3.372 -0.4926  0.1562 -0.2501
40479SOL    HW130405   2.250   5.992   3.456  0.1504 -0.5203 -0.1966
40479SOL    HW230406   2.215   6.002   3.309 -0.7041 -0.0236  0.0380
40480SOL     OW30407   8.386   8.395  11.537  0.2118  0.3446  0.4552
40480SOL    HW130408   8.384   8.424  11.629 -0.7798  2.4425 -0.1509
40480SOL    HW230409   8.453   8.450  11.496  1.1612 -1.0799  0.0367
40481SOL     OW30410   0.083   6.326   0.791  0.3915  0.2768 -0.4240
40481SOL    HW130411   0.056   6.417   0.782 -0.4721  0.4199  2.6133
40481SOL    HW230412   0.004   6.276   0.772 -0.0797  0.3550  1.2327
40482SOL     OW30413   1.642   8.172   6.515  0.1057 -0.3289 -0.6471
40482SOL    HW130414   1.611   8.085   6.493 -1.3201 -0.1750  0.5689
40482SOL    HW230415   1.563   8.227   6.514  0.8334  0.7500 -0.5153
40483SOL     OW30416   2.078   8.479   1.118  0.5089  0.1744  0.1057
40483SOL    HW130417   2.121   8.531   1.050  0.1706  2.4824  1.5572
40483SOL    HW230418   2.148   8.429   1.158  0.9537 -0.0633 -0.9501
40484SOL     OW30419   1.812   5.602   4.801 -0.3611  0.5321 -0.0480
40484SOL    HW130420   1.890   5.657   4.805 -0.3391  0.4815  0.3246
40484SOL    HW230421   1.810   5.559   4.887 -0.0776 -0.4600 -0.5266
40485SOL     OW30422   4.966   4.315   1.822 -0.0108 -0.4240  0.0358
40485SOL    HW130423   4.892   4.257   1.806  0.4725 -0.5794 -1.9581
40485SOL    HW230424   4.976   4.316   1.917 -2.3918 -0.5913  0.3526
40486SOL     OW30425   6.558  10.677   1.219 -0.4373  0.1340  0.0813
40486SOL    HW130426   6.517  10.668   1.305  0.8007 -0.0598  0.6699
40486SOL    HW230427   6.618  10.602   1.213  0.5503  0.9356 -0.3342
40487SOL     OW30428   8.575   9.695  11.173 -0.0686 -0.2626  0.2633
40487SOL    HW130429   8.667   9.719  11.161 -0.4486  1.0298 -0.2178
40487SOL    HW230430   8.578   9.617  11.229  1.2958  0.0246  0.6357
40488SOL     OW30431   8.322   3.284   4.458  0.2295 -0.2337 -0.0195
40488SOL    HW130432   8.245   3.226   4.459  2.2813 -3.1811  1.2208
40488SOL    HW230433   8.289   3.367   4.491 -2.7394 -0.8635 -1.0643
40489SOL     OW30434  10.414   2.705   9.728 -0.0150  0.7944  0.4426
40489SOL    HW130435  10.485   2.770   9.722  0.8608 -0.1063  0.7850
40489SOL    HW230436  10.408   2.685   9.822  0.4011 -0.3307  0.2435
40490SOL     OW30437   9.301  11.460  10.195  0.4100  0.0456  0.5251
40490SOL    HW130438   9.280  11.505  10.276  1.7438 -1.2040  1.6306
40490SOL    HW230439   9.391  11.486  10.175  0.7641 -1.1181  0.5105
40491SOL     OW30440  11.574   9.516   1.728 -0.7123 -0.1111  0.8238
40491SOL    HW130441  11.519   9.594   1.732  1.5795  1.7825 -0.9742
40491SOL    HW230442  11.553   9.476   1.643  1.1670  1.1790 -0.3438
40492SOL     OW30443  10.883   1.476   3.681  0.1151  0.0248  0.5268
40492SOL    HW130444  10.975   1.456   3.696  0.4478  1.4976  0.5183
40492SOL    HW230445  10.878   1.504   3.590 -0.6325 -1.5264  0.0414
40493SOL     OW30446   3.218  11.957  10.089  0.5262  0.3280  0.7512
40493SOL    HW130447   3.148  11.982  10.150  1.5727  1.4763  1.5331
40493SOL    HW230448   3.289  11.927  10.146  0.7526 -0.6538 -0.0258
40494SOL     OW30449  10.469   7.191   4.375 -0.0440  0.0695 -0.2172
40494SOL    HW130450  10.396   7.153   4.326  0.1460  0.6067 -0.9329
40494SOL    HW230451  10.496   7.122   4.435  0.1452 -0.8446 -1.3337
40495SOL     OW30452  12.162   5.246   9.613 -0.2172 -0.0690 -0.0871
40495SOL    HW130453  12.080   5.236   9.662 -1.3283  0.6143 -1.7315
40495SOL    HW230454  12.206   5.321   9.654  0.2622 -1.2565  1.6594
40496SOL     OW30455  11.989  10.079   4.564 -0.0464  0.0555  0.0234
40496SOL    HW130456  11.895  10.075   4.546  0.4069 -2.2981 -2.4922
40496SOL    HW230457  12.010  10.172   4.560 -1.8800  0.4611 -1.8646
40497SOL     OW30458   8.942  10.398  10.681 -0.0961  0.0113 -0.0650
40497SOL    HW130459   9.030  10.376  10.650 -0.1875  2.6157 -2.7038
40497SOL    HW230460   8.956  10.459  10.753  0.2156 -0.6178  0.4139
40498SOL     OW30461  12.396   6.941  11.046 -0.6119  0.4745  0.1658
40498SOL    HW130462  12.466   6.901  11.097 -0.2222  2.8762  1.6441
40498SOL    HW230463  12.317   6.891  11.070  0.2273 -1.0510 -0.1067
40499SOL     OW30464   1.257  11.604   8.009 -0.6506 -0.0856 -0.2034
40499SOL    HW130465   1.186  11.568   8.063 -1.4856  0.2864 -1.0246
40499SOL    HW230466   1.227  11.592   7.919  0.8701 -1.0271 -0.6297
40500SOL     OW30467  11.978   7.870   3.563  0.1570 -0.3340 -0.2498
40500SOL    HW130468  11.907   7.817   3.600 -0.9724  1.0317 -0.3166
40500SOL    HW230469  12.010   7.820   3.488 -0.5865 -1.0896 -0.0805
40501SOL     OW30470   8.232   7.657  11.531 -0.6977 -0.3735 -0.1374
40501SOL    HW130471   8.318   7.666  11.572 -0.7997  2.2792 -0.3624
40501SOL    HW230472   8.249   7.603  11.453  0.2863 -1.8276  1.0347
40502SOL     OW30473   2.104   1.667   0.515 -0.3536 -0.1428 -0.3897
40502SOL    HW130474   2.012   1.651   0.494 -0.1827 -0.8749 -0.5919
40502SOL    HW230475   2.129   1.739   0.457 -1.3587  1.5117  1.1192
40503SOL     OW30476  11.451  12.241   6.920 -0.2669 -0.1409  0.0477
40503SOL    HW130477  11.462  12.331   6.950 -0.6070  0.1052 -0.5444
40503SOL    HW230478  11.364  12.239   6.880  0.2540 -0.3762 -1.1174
40504SOL     OW30479   2.707   1.311   6.707 -0.2462  0.3800 -0.4612
40504SOL    HW130480   2.657   1.356   6.775 -2.2524 -0.5098 -1.2559
40504SOL    HW230481   2.665   1.337   6.625 -0.7778 -2.0036 -1.0219
40505SOL     OW30482   2.395   4.855  10.494  0.3457  0.5254  0.0661
40505SOL    HW130483   2.434   4.939  10.519  0.5628  1.2927 -2.5788
40505SOL    HW230484   2.467   4.792  10.503  1.9615  1.6661 -3.2977
40506SOL     OW30485   4.139   1.243   8.482 -0.6248 -0.3953 -0.5035
40506SOL    HW130486   4.093   1.164   8.452  2.6211 -2.4135 -0.6739
40506SOL    HW230487   4.186   1.274   8.405  1.0250 -0.5434  0.4005
40507SOL     OW30488   7.180   8.926   1.277 -0.1478  0.0342 -0.3006
40507SOL    HW130489   7.099   8.882   1.253  0.1207 -0.8787  0.4179
40507SOL    HW230490   7.175   8.937   1.372 -0.3462  1.8685 -0.4943
40508SOL     OW30491  10.319   7.226   6.656 -0.6530 -0.1739 -0.1972
40508SOL    HW130492  10.264   7.281   6.712  0.5639  0.2307  0.6482
40508SOL    HW230493  10.377   7.287   6.611  1.3810 -0.7312  1.4823
40509SOL     OW30494   0.209   9.274  10.433  0.6191  0.2053  0.7878
40509SOL    HW130495   0.218   9.298  10.341  1.3608 -0.2271  0.7401
40509SOL    HW230496   0.137   9.328  10.465  0.2665  0.2652 -0.0763
40510SOL     OW30497   4.415  11.510   9.468 -0.2331 -0.0406  0.3310
40510SOL    HW130498   4.440  11.591   9.424  0.3912  0.5804  1.7616
40510SOL    HW230499   4.497  11.463   9.481 -0.5669 -0.8220 -0.2994
40511SOL     OW30500   1.021   1.164   6.019  0.3581  0.5039 -0.2740
40511SOL    HW130501   0.981   1.249   6.034  0.1081  0.6242 -1.5072
40511SOL    HW230502   1.041   1.131   6.106  1.6566  2.3809  0.1911
40512SOL     OW30503   6.927  11.549   6.954  0.0173  0.2196 -0.1567
40512SOL    HW130504   6.891  11.633   6.983 -0.5068 -0.0674  0.0417
40512SOL    HW230505   6.885  11.484   7.011  2.3383  0.0128  1.4903
40513SOL     OW30506  11.423   3.934  11.436  0.0817 -0.5041 -0.4271
40513SOL    HW130507  11.377   3.854  11.413 -0.1242 -0.6993  0.6511
40513SOL    HW230508  11.357   3.990  11.476  0.7537 -0.8160  1.2061
40514SOL     OW30509  11.836  12.277   9.707 -0.6910 -0.1005  0.5841
40514SOL    HW130510  11.840  12.192   9.663 -0.1346  0.2730 -0.0905
40514SOL    HW230511  11.760  12.320   9.668  0.4096  0.6506 -0.8040
40515SOL     OW30512   0.997   1.083   3.916 -0.1733 -0.0708 -0.0233
40515SOL    HW130513   1.003   1.133   3.835 -1.3444  0.8567  0.4303
40515SOL    HW230514   1.040   1.138   3.981  3.5143 -2.1071 -0.4837
40516SOL     OW30515  10.778   1.839   3.489 -0.6652 -0.6358 -0.0011
40516SOL    HW130516  10.815   1.750   3.487 -0.3769 -0.5579  1.0762
40516SOL    HW230517  10.799   1.875   3.403 -0.8088 -1.6166 -0.4658
40517SOL     OW30518  12.131   5.484   5.301 -0.0753  0.1921  0.0603
40517SOL    HW130519  12.184   5.408   5.325 -0.9889 -0.5185 -0.1275
40517SOL    HW230520  12.187   5.534   5.241  1.0681  0.4206  1.2558
40518SOL     OW30521   3.795   3.455  12.123 -0.0733  0.4001  0.1128
40518SOL    HW130522   3.717   3.504  12.097  0.0454  1.2763  1.2797
40518SOL    HW230523   3.782   3.439  12.217  1.4790  1.2556  0.5208
40519SOL     OW30524  10.738  10.589   4.718  0.1939  0.1074 -0.2568
40519SOL    HW130525  10.751  10.495   4.733  1.7755  0.5158  1.2462
40519SOL    HW230526  10.819  10.617   4.676 -1.0308  0.4989 -2.4937
40520SOL     OW30527   6.356   0.525  11.940 -0.6015  0.5097 -0.1019
40520SOL    HW130528   6.448   0.519  11.915 -0.9285 -1.6122 -1.0646
40520SOL    HW230529   6.326   0.607  11.900  0.8921  1.3435  0.4184
40521SOL     OW30530   8.969   7.175  11.257 -0.4427 -0.0896  0.7167
40521SOL    HW130531   8.973   7.270  11.258  0.3311 -0.1091  0.3352
40521SOL    HW230532   8.971   7.152  11.164  1.7443 -0.5432  0.8259
40522SOL     OW30533  10.635   3.161   0.633  0.2667 -0.0303  0.0790
40522SOL    HW130534  10.649   3.220   0.707  0.6168  0.1184 -0.1019
40522SOL    HW230535  10.590   3.214   0.567  2.5520  0.7567 -0.9905
40523SOL     OW30536   9.726   8.974   2.207 -0.7589  0.0777  0.1948
40523SOL    HW130537   9.758   8.964   2.296  0.8137  0.1819 -0.3317
40523SOL    HW230538   9.781   9.042   2.169  0.3919 -1.7820 -1.6522
40524SOL     OW30539   8.263   9.649  12.440  0.1704 -0.3725  0.0212
40524SOL    HW130540   8.225   9.600  12.513 -0.8335  0.7443  0.2748
40524SOL    HW230541   8.331   9.703  12.480 -0.4253  0.2900  0.1704
40525SOL     OW30542   4.455  11.288   6.136 -0.1602 -0.3600 -0.4413
40525SOL    HW130543   4.437  11.381   6.148  1.2656 -0.0407 -0.5646
40525SOL    HW230544   4.381  11.244   6.178  0.0530  0.8189  1.3069
40526SOL     OW30545   9.677   4.733   5.520 -0.1963  0.5431  0.3556
40526SOL    HW130546   9.594   4.746   5.567 -1.1495  0.6334 -1.2823
40526SOL    HW230547   9.708   4.822   5.503  0.4362  0.5056  1.2933
40527SOL     OW30548   8.940   4.883   4.051  0.4162  0.5873 -0.3346
40527SOL    HW130549   8.870   4.826   4.082  0.7778  1.1093  1.5877
40527SOL    HW230550   8.897   4.948   3.996 -0.6358  0.9074  0.8252
40528SOL     OW30551   7.294  10.050   1.355  0.0448 -0.3261 -0.3920
40528SOL    HW130552   7.238  10.089   1.422  0.5416 -2.2591  1.2686
40528SOL    HW230553   7.250   9.968   1.333  0.5144 -0.2760 -1.5713
40529SOL     OW30554   5.871  11.249   0.311 -0.3862 -0.3404 -0.0499
40529SOL    HW130555   5.847  11.274   0.222  3.9535  1.9344 -0.8597
40529SOL    HW230556   5.834  11.317   0.367 -1.1406 -0.4715 -0.3883
40530SOL     OW30557   9.254   3.715   8.670 -0.5227 -0.5245  0.5388
40530SOL    HW130558   9.297   3.750   8.748 -0.3030  0.0045  0.1876
40530SOL    HW230559   9.185   3.659   8.704  1.8406 -3.3166  1.1672
40531SOL     OW30560  10.845  10.898   1.800 -0.0617  0.0228 -0.0764
40531SOL    HW130561  10.891  10.888   1.716 -0.3187 -0.9850 -0.1101
40531SOL    HW230562  10.877  10.980   1.835  1.7891 -0.6464 -0.0954
40532SOL     OW30563   2.752   8.066   0.639  0.0752 -0.3655 -0.3914
40532SOL    HW130564   2.803   8.119   0.578 -0.0544 -0.8121 -0.8931
40532SOL    HW230565   2.816   8.036   0.704  0.2550 -0.0774 -0.4335
40533SOL     OW30566  12.312   5.323   7.786  0.0724 -0.1251  0.0727
40533SOL    HW130567  12.319   5.419   7.786  1.5406 -0.2079  0.3343
40533SOL    HW230568  12.403   5.293   7.789 -0.3620 -1.5340 -0.3481
40534SOL     OW30569   4.382   9.094   6.538  0.5029 -0.4586  0.0703
40534SOL    HW130570   4.377   9.014   6.486 -0.1395 -0.4450  0.0966
40534SOL    HW230571   4.311   9.149   6.503  0.4513 -0.2074  0.5620
40535SOL     OW30572   8.270   5.691   4.500  0.3606 -0.3552 -0.1901
40535SOL    HW130573   8.301   5.605   4.471  3.0726  0.3956  0.1661
40535SOL    HW230574   8.323   5.711   4.578  0.2175  1.8477 -0.5729
40536SOL     OW30575   2.843   0.632   7.941 -0.3002  0.1672 -0.0331
40536SOL    HW130576   2.826   0.639   7.847  1.4031  0.0395 -0.3867
40536SOL    HW230577   2.845   0.538   7.958 -0.0460  0.1837  0.0239
40537SOL     OW30578  10.902  11.988   8.015 -0.5508 -0.8121 -0.4131
40537SOL    HW130579  10.853  11.913   7.982  0.1387 -0.4588 -2.3741
40537SOL    HW230580  10.963  12.010   7.944  0.5123  0.4826  0.8366
40538SOL     OW30581   6.645   8.227   8.992  0.2729 -0.6403  0.0105
40538SOL    HW130582   6.662   8.263   9.079  0.5228  1.2541 -0.7724
40538SOL    HW230583   6.552   8.205   8.993 -0.3125  1.5677  0.0712
40539SOL     OW30584   7.775   2.228  11.154  0.2626  0.1750 -0.8962
40539SOL    HW130585   7.831   2.154  11.177 -0.8834 -1.1257 -2.1452
40539SOL    HW230586   7.722   2.197  11.081 -1.4964  1.6448 -0.3196
40540SOL     OW30587   9.148   9.306   9.190 -0.1225  0.1805  0.0593
40540SOL    HW130588   9.132   9.340   9.278 -0.8613 -1.0669  0.4277
40540SOL    HW230589   9.180   9.217   9.203 -0.0759  0.0328 -0.9332
40541SOL     OW30590   5.905   3.960   0.979  0.2681 -0.2394 -0.0625
40541SOL    HW130591   5.903   4.055   0.992  0.5147  0.0708 -1.9008
40541SOL    HW230592   5.985   3.931   1.022 -1.0369 -0.0376  2.6777
40542SOL     OW30593   9.759   0.746   3.338 -0.0818 -0.2402 -0.5347
40542SOL    HW130594   9.842   0.698   3.339 -0.3150 -0.6467  0.7860
40542SOL    HW230595   9.692   0.677   3.339 -0.4291  0.0359  2.3554
40543SOL     OW30596   7.545   7.322   4.003 -0.2273  0.0314  0.3523
40543SOL    HW130597   7.548   7.370   4.086  1.8210  2.0021 -0.7590
40543SOL    HW230598   7.455   7.333   3.972 -0.2989  1.6038  1.0119
40544SOL     OW30599  10.749   6.733   7.364  0.3362  0.5698 -0.2410
40544SOL    HW130600  10.814   6.748   7.434  2.4591 -0.5922 -1.8336
40544SOL    HW230601  10.751   6.638   7.351  0.3823  0.8119 -2.2043
40545SOL     OW30602   5.592   3.572   9.336 -0.0338 -0.4883  0.0030
40545SOL    HW130603   5.571   3.501   9.397  0.2520  0.0430  0.7326
40545SOL    HW230604   5.507   3.602   9.304 -0.2009 -0.6365  0.3037
40546SOL     OW30605   3.872   9.908   2.511  0.2191 -0.3686 -0.1351
40546SOL    HW130606   3.941   9.928   2.575 -0.2559  1.6791 -0.1731
40546SOL    HW230607   3.804   9.864   2.562 -0.1064  1.1472  0.8138
40547SOL     OW30608   1.726   9.936  10.027  0.1670 -0.4759 -0.1735
40547SOL    HW130609   1.679   9.910  10.106  1.4182 -2.7139 -0.0596
40547SOL    HW230610   1.703  10.028  10.014 -2.2355 -0.7902  1.2120
40548SOL     OW30611   3.886   9.997  12.012 -0.3430  0.0848  0.1724
40548SOL    HW130612   3.871   9.931  12.080 -0.5752  0.5102  0.5415
40548SOL    HW230613   3.799  10.025  11.987 -0.3262 -1.2183 -1.4668
40549SOL     OW30614   4.701   7.289   7.283  0.0340  0.2443  0.1444
40549SOL    HW130615   4.681   7.254   7.197  2.1734  2.1513 -1.2370
40549SOL    HW230616   4.739   7.216   7.331 -1.6676 -0.9803 -0.2904
40550SOL     OW30617   5.478  11.530   9.267 -0.3582 -0.3568  0.0153
40550SOL    HW130618   5.419  11.527   9.342 -0.2032  0.3194  0.1704
40550SOL    HW230619   5.535  11.454   9.279 -0.9877 -0.8329  0.0309
40551SOL     OW30620  10.872   9.348   0.079 -0.1978  0.2374  0.3251
40551SOL    HW130621  10.949   9.389   0.042  0.8494 -1.3987  0.5669
40551SOL    HW230622  10.826   9.418   0.124  0.2573  1.5830 -1.1941
40552SOL     OW30623   8.917   5.445   2.632  0.0689  0.4850 -0.3800
40552SOL    HW130624   9.009   5.466   2.646  0.2979  0.1639 -1.3335
40552SOL    HW230625   8.896   5.380   2.699  0.7722 -0.0649 -0.6861
40553SOL     OW30626   1.982   7.734   0.323 -0.6361  0.0515  0.0105
40553SOL    HW130627   1.957   7.801   0.386  0.4607  0.9670 -0.4970
40553SOL    HW230628   2.065   7.765   0.286 -0.6755 -1.0343 -1.0487
40554SOL     OW30629   5.508   2.201   3.131 -0.0015 -0.6882  0.0176
40554SOL    HW130630   5.446   2.221   3.061 -0.2907 -0.4001  0.3564
40554SOL    HW230631   5.496   2.271   3.195  0.2585 -0.9541  0.3613
40555SOL     OW30632   2.663  10.470  11.268  0.2286  0.4335  0.1746
40555SOL    HW130633   2.649  10.388  11.222 -0.6087  1.7592 -2.1236
40555SOL    HW230634   2.604  10.466  11.344  0.2169 -1.0615  0.1006
40556SOL     OW30635  12.278  12.234   8.917 -0.0880 -0.2565 -0.3378
40556SOL    HW130636  12.264  12.144   8.887  3.3927 -0.6657 -1.1343
40556SOL    HW230637  12.331  12.225   8.996  0.1202  1.0800 -0.2978
40557SOL     OW30638  11.043   2.369   1.037  0.3756  0.3162 -0.1674
40557SOL    HW130639  10.994   2.330   0.964 -0.6624 -2.1659  1.6908
40557SOL    HW230640  11.008   2.458   1.045 -0.9648 -0.0579 -1.4075
40558SOL     OW30641   3.617  12.170  11.441  0.3652 -0.6502 -0.0954
40558SOL    HW130642   3.704  12.181  11.478  0.5015 -0.2257 -0.5283
40558SOL    HW230643   3.630  12.113  11.365  0.1084 -1.4085  0.4242
40559SOL     OW30644  12.489   1.970   8.397 -0.4410 -0.0943  0.2300
40559SOL    HW130645  12.451   2.032   8.335  0.5084  0.3928  0.1124
40559SOL    HW230646  12.484   1.886   8.353  1.4107  0.4314 -1.1024
40560SOL     OW30647   2.269   0.045   5.768 -0.0014 -0.5804 -0.1270
40560SOL    HW130648   2.237  -0.043   5.789 -0.4707 -0.5082 -0.5159
40560SOL    HW230649   2.263   0.050   5.672  2.5259 -1.0738 -0.3670
40561SOL     OW30650   6.177  10.434   9.961  0.0772  0.6072 -0.5665
40561SOL    HW130651   6.187  10.482   9.878  0.6739 -0.5958 -1.2177
40561SOL    HW230652   6.116  10.364   9.940  0.0297  0.4565  0.0863
40562SOL     OW30653  11.450   0.845   1.597 -0.0468 -0.0265 -0.1401
40562SOL    HW130654  11.369   0.824   1.551  0.0638  0.1409 -0.4165
40562SOL    HW230655  11.431   0.827   1.689  0.5535 -2.9282 -0.4900
40563SOL     OW30656   4.849  12.491   9.170 -1.2493  0.5251  0.0222
40563SOL    HW130657   4.850  12.420   9.106  0.1353  0.2331  0.3263
40563SOL    HW230658   4.787  12.463   9.237 -0.1874 -0.7718  0.5058
40564SOL     OW30659   9.968  11.296   2.136  0.1234 -0.3274  0.5781
40564SOL    HW130660   9.915  11.356   2.188 -0.1917 -1.1640  1.2411
40564SOL    HW230661  10.055  11.302   2.175  0.0233 -0.5099  0.8379
40565SOL     OW30662   9.977   0.387   2.034  0.3344  0.3269  0.2120
40565SOL    HW130663   9.902   0.348   2.078  0.2974 -0.5543 -0.6063
40565SOL    HW230664   9.976   0.348   1.947  1.6331  0.4453  0.1310
40566SOL     OW30665   7.571   7.359   2.583  0.3318  0.0918 -0.4974
40566SOL    HW130666   7.630   7.284   2.575 -0.7801 -0.7831 -0.7186
40566SOL    HW230667   7.494   7.335   2.532 -0.0122  1.4345 -0.6509
40567SOL     OW30668   8.793   7.489   6.398 -0.0692  0.4506  0.6414
40567SOL    HW130669   8.766   7.454   6.483  1.0730  1.8944  1.6620
40567SOL    HW230670   8.782   7.416   6.337 -0.7657 -0.6749  2.0508
40568SOL     OW30671   0.750   0.117   6.692 -0.2675 -0.2547 -0.2378
40568SOL    HW130672   0.736   0.042   6.634 -2.8652 -0.2264  0.2535
40568SOL    HW230673   0.803   0.082   6.764 -1.6075 -1.7112  0.0884
40569SOL     OW30674   8.131  12.002   3.689  0.1203 -0.1416  0.3420
40569SOL    HW130675   8.085  11.918   3.690 -0.6937  0.2940 -0.0448
40569SOL    HW230676   8.105  12.043   3.607  1.0962  0.1788  0.1850
40570SOL     OW30677   0.477   0.629   5.608  0.2410 -0.0215  0.4484
40570SOL    HW130678   0.569   0.622   5.582 -0.0397 -0.7526 -0.4250
40570SOL    HW230679   0.452   0.540   5.632 -0.2976  0.1252  0.4430
40571SOL     OW30680   4.839  10.853   3.751  0.0979 -0.4877  0.0182
40571SOL    HW130681   4.821  10.827   3.661  1.2503 -0.5438 -0.2108
40571SOL    HW230682   4.827  10.773   3.802 -1.8558 -0.1772  0.1426
40572SOL     OW30683   5.505   9.686   0.950  0.0436 -0.3073  0.4338
40572SOL    HW130684   5.521   9.619   1.016  0.0499  0.0136  0.7605
40572SOL    HW230685   5.583   9.685   0.894  1.2572  1.2386  1.9985
40573SOL     OW30686   0.957   1.420   0.049 -0.1832  0.9030  0.1306
40573SOL    HW130687   0.863   1.431   0.034 -0.1822 -0.6735 -1.4841
40573SOL    HW230688   0.962   1.353   0.117 -0.2489  0.5284 -0.2275
40574SOL     OW30689  11.090   5.173   6.861 -0.0572  0.3293 -0.6294
40574SOL    HW130690  11.076   5.079   6.877 -1.5993  0.4142 -1.3507
40574SOL    HW230691  11.071   5.214   6.946 -0.6518  0.0981 -0.6420
40575SOL     OW30692   3.025   6.677   1.573  0.6257 -0.3632  0.3084
40575SOL    HW130693   3.093   6.714   1.517  1.2748 -0.3553  1.0691
40575SOL    HW230694   2.977   6.752   1.607  2.0390 -0.1450  1.9723
40576SOL     OW30695   2.533   0.853   2.145  0.0434 -0.1229 -0.2532
40576SOL    HW130696   2.437   0.853   2.149  0.0851 -0.7660  1.7080
40576SOL    HW230697   2.554   0.775   2.093 -0.4900 -0.4422  0.0003
40577SOL     OW30698   5.522   8.312   5.432  0.1190 -0.6861 -0.5132
40577SOL    HW130699   5.577   8.318   5.511  0.7996 -0.6293 -0.9878
40577SOL    HW230700   5.512   8.218   5.417  1.7066 -0.7125 -1.5332
40578SOL     OW30701   2.004   2.234   0.387 -0.1416  0.8505 -0.6686
40578SOL    HW130702   1.957   2.232   0.304  0.7602  1.0261 -1.2030
40578SOL    HW230703   2.017   2.327   0.405  0.2932  0.8031 -0.7131
40579SOL     OW30704   6.242   4.751   8.305  0.1764  0.2043  0.0005
40579SOL    HW130705   6.321   4.773   8.255 -1.3286 -0.0805 -2.7471
40579SOL    HW230706   6.171   4.789   8.253 -1.6573 -1.6103  1.0523
40580SOL     OW30707   6.278   9.838  10.269 -0.1880  0.6962  0.2855
40580SOL    HW130708   6.224   9.810  10.343  1.7473  0.0551  1.5368
40580SOL    HW230709   6.260   9.774  10.200  2.3816 -2.5318  2.2899
40581SOL     OW30710  10.398   7.431  10.321  0.2457 -0.0039 -0.3831
40581SOL    HW130711  10.364   7.364  10.379  0.7194  1.4540  1.7030
40581SOL    HW230712  10.335   7.434  10.248 -1.5604 -0.4785  1.0803
40582SOL     OW30713   7.808   3.604   8.905  0.4059  0.0241 -0.0296
40582SOL    HW130714   7.799   3.623   8.812 -0.2483  0.0515  0.0315
40582SOL    HW230715   7.727   3.638   8.944 -0.1871 -1.6402  0.2842
40583SOL     OW30716   2.784   2.263   9.767 -0.1481  0.1750  0.6297
40583SOL    HW130717   2.878   2.244   9.766  0.3757  2.2723  2.5889
40583SOL    HW230718   2.745   2.187   9.811  0.7916 -0.1535  0.9216
40584SOL     OW30719   9.722   5.087   0.094  0.2358  0.1668  0.0396
40584SOL    HW130720   9.744   5.038   0.174 -0.8830 -0.8751 -0.2652
40584SOL    HW230721   9.627   5.080   0.087  0.2131  1.1976 -0.7967
40585SOL     OW30722   7.060   6.487   2.886 -0.3189 -0.1545  0.2366
40585SOL    HW130723   7.108   6.566   2.862  2.3607 -1.7093  0.1016
40585SOL    HW230724   6.978   6.493   2.837  0.2646  1.9789 -0.6108
40586SOL     OW30725  11.506   5.507   3.174  0.1388  0.2257  0.1548
40586SOL    HW130726  11.452   5.500   3.253 -1.3118  1.1094 -0.7132
40586SOL    HW230727  11.534   5.599   3.172 -0.4412  0.4006 -0.7020
40587SOL     OW30728   9.805   8.575   2.381 -0.4256 -0.4694  0.8682
40587SOL    HW130729   9.891   8.610   2.358 -0.0765 -1.8487 -0.0268
40587SOL    HW230730   9.748   8.603   2.309 -0.4251 -0.6938  0.7808
40588SOL     OW30731   1.244  10.536   8.737 -0.3634 -0.3814 -0.1192
40588SOL    HW130732   1.302  10.460   8.730  0.1280  0.0205 -0.4373
40588SOL    HW230733   1.286  10.593   8.800 -0.4050 -0.0794 -0.3642
40589SOL     OW30734   2.094   3.651   3.934 -0.0004  0.0896 -0.2879
40589SOL    HW130735   2.102   3.660   4.029 -1.0040 -1.2221 -0.0460
40589SOL    HW230736   2.071   3.739   3.903  0.9768  0.6788  0.5925
40590SOL     OW30737  10.406   6.708  12.375 -0.3757 -0.3827 -0.2469
40590SOL    HW130738  10.391   6.798  12.401 -1.7422 -0.6863  0.0905
40590SOL    HW230739  10.465   6.673  12.442 -2.0895 -0.5169  1.2791
40591SOL     OW30740  10.028  10.219   2.438 -0.0987  0.2882  0.2869
40591SOL    HW130741  10.023  10.291   2.375 -0.7034  1.1207  1.2450
40591SOL    HW230742   9.955  10.162   2.416 -1.4617  1.5464  1.3278
40592SOL     OW30743   1.719   4.793   5.424 -0.0095 -0.1159 -0.0889
40592SOL    HW130744   1.648   4.740   5.389 -0.7983  0.6376  0.3328
40592SOL    HW230745   1.692   4.884   5.408  1.5009  0.1878 -1.1810
40593SOL     OW30746  10.804   6.917   1.385 -0.6755 -0.4396  0.1558
40593SOL    HW130747  10.739   6.980   1.415 -2.0738 -1.8615  0.2650
40593SOL    HW230748  10.885   6.942   1.429 -0.5796  2.5905 -1.4976
40594SOL     OW30749   4.737   2.024   5.116  0.5164  0.3460 -0.8934
40594SOL    HW130750   4.791   2.005   5.039  2.3696  0.1663  0.3743
40594SOL    HW230751   4.757   1.952   5.177  0.2323  1.2402  0.2985
40595SOL     OW30752   9.509   7.773   1.251  0.0387 -0.1814 -0.4072
40595SOL    HW130753   9.599   7.777   1.218 -0.0505  1.1194 -0.5549
40595SOL    HW230754   9.504   7.690   1.298  0.8678 -0.9822 -1.6723
40596SOL     OW30755   9.632  10.182   0.978 -0.6231 -0.0877  0.2922
40596SOL    HW130756   9.686  10.260   0.964 -1.8006  0.4054 -1.8221
40596SOL    HW230757   9.680  10.111   0.936  0.0504 -0.3841  1.5091
40597SOL     OW30758   4.351   0.773   3.532 -0.1336  0.8427 -0.2570
40597SOL    HW130759   4.391   0.687   3.540 -0.1427  0.5924 -2.3936
40597SOL    HW230760   4.271   0.767   3.585  0.1847 -0.2405  0.1312
40598SOL     OW30761   6.878   2.118   0.704  0.6880  0.9218 -0.2810
40598SOL    HW130762   6.825   2.060   0.759  0.7724  0.2699 -0.8712
40598SOL    HW230763   6.827   2.127   0.623  1.0124  1.0897 -0.4665
40599SOL     OW30764  10.951   5.791  12.558  0.3026 -0.2673 -0.4207
40599SOL    HW130765  11.009   5.721  12.529  1.5450  0.3858  0.4103
40599SOL    HW230766  10.913   5.759  12.640  0.3048 -0.2654 -0.4197
40600SOL     OW30767   8.554   8.623   2.561  0.6228 -0.3319 -0.3004
40600SOL    HW130768   8.541   8.717   2.573  4.1760  0.5195 -1.8905
40600SOL    HW230769   8.569   8.590   2.650 -1.6154  0.3244  0.3929
40601SOL     OW30770   9.070  11.925   3.106 -0.1416  0.0742  0.2599
40601SOL    HW130771   9.022  11.857   3.058 -0.0240  0.3922 -0.3183
40601SOL    HW230772   9.070  11.894   3.196 -2.2427  0.4783  0.4684
40602SOL     OW30773   9.828   6.207   7.164 -0.1053  0.5103  0.3313
40602SOL    HW130774   9.887   6.204   7.089 -2.9006  2.1177 -2.1781
40602SOL    HW230775   9.797   6.117   7.174  0.6665  0.1895 -0.1017
40603SOL     OW30776  10.912  10.199   1.703 -0.3731  0.3345 -0.3841
40603SOL    HW130777  10.966  10.248   1.640 -0.0724  2.3128  1.2966
40603SOL    HW230778  10.822  10.217   1.676 -0.2459  0.1044 -0.9865
40604SOL     OW30779  11.294   5.588   6.036 -0.3518 -0.1382 -0.2289
40604SOL    HW130780  11.298   5.639   5.955 -0.2139 -0.5308 -0.4721
40604SOL    HW230781  11.354   5.515   6.021 -1.0193 -0.7154 -0.1358
40605SOL     OW30782  10.983   6.972   7.256 -0.0030  0.8888  0.3075
40605SOL    HW130783  11.057   7.005   7.205 -0.8769  2.9241  0.2697
40605SOL    HW230784  10.936   6.915   7.196  1.0141  0.3038  0.0443
40606SOL     OW30785   9.549   0.742  10.953  0.4612  0.1818 -0.2009
40606SOL    HW130786   9.543   0.757  10.858 -0.2845  0.7620 -0.0675
40606SOL    HW230787   9.551   0.829  10.991  1.5790 -0.0388  0.2916
40607SOL     OW30788  11.437   6.959   5.654 -0.7330 -0.1710  0.2300
40607SOL    HW130789  11.486   6.884   5.621 -0.9184 -0.2904  0.2238
40607SOL    HW230790  11.504   7.016   5.691 -0.5130  0.0094 -0.4307
40608SOL     OW30791   7.256   2.049   7.203  0.2782 -1.0716 -0.2714
40608SOL    HW130792   7.184   2.033   7.142  0.8415 -0.2590 -1.1663
40608SOL    HW230793   7.330   2.071   7.147  0.4501  1.1503  0.7256
40609SOL     OW30794  10.286   5.349   6.161 -0.2062 -0.2397 -0.2699
40609SOL    HW130795  10.382   5.353   6.156 -0.1804 -0.4193  0.0564
40609SOL    HW230796  10.256   5.406   6.091  0.1390 -1.4290 -1.4438
40610SOL     OW30797   0.498   7.912   1.232 -0.4480 -0.3489  0.4759
40610SOL    HW130798   0.562   7.872   1.173  1.5130 -0.8631  2.8165
40610SOL    HW230799   0.414   7.896   1.189  0.6089 -3.2179 -0.7971
40611SOL     OW30800   0.696   4.554   2.664 -0.3607  0.4911 -0.0258
40611SOL    HW130801   0.604   4.581   2.658 -0.3637  0.5366  0.1813
40611SOL    HW230802   0.694   4.459   2.665 -0.5828  0.4603  2.0690
40612SOL     OW30803   7.435   6.042   4.245  0.1241 -0.0646 -0.1035
40612SOL    HW130804   7.425   5.954   4.209  0.6254  0.7047 -2.2565
40612SOL    HW230805   7.414   6.033   4.338  2.0579 -2.8185  0.1544
40613SOL     OW30806   0.434   5.945   7.456 -0.3653 -0.4306  0.6143
40613SOL    HW130807   0.417   5.854   7.431  0.6102 -0.1778 -1.1045
40613SOL    HW230808   0.392   5.954   7.541 -0.3898 -2.5294  0.8900
40614SOL     OW30809   1.437   2.425   8.006  0.0888  0.0509  0.0545
40614SOL    HW130810   1.469   2.413   8.095  0.4384 -1.7647 -0.2888
40614SOL    HW230811   1.490   2.496   7.971 -0.1757  0.9220  1.3230
40615SOL     OW30812   8.875   8.953   4.674  0.0703 -0.2269 -0.3900
40615SOL    HW130813   8.885   8.936   4.581  0.7240  0.4395 -0.4516
40615SOL    HW230814   8.860   9.047   4.680 -0.1824 -0.2992  0.1617
40616SOL     OW30815   9.639   0.794   5.599 -0.0300 -0.2702  0.2142
40616SOL    HW130816   9.656   0.830   5.512 -0.5242 -2.3228 -0.7722
40616SOL    HW230817   9.609   0.869   5.650 -1.3825  0.6806 -1.8416
40617SOL     OW30818  10.678   4.137   5.990 -0.1972 -0.2638 -0.5419
40617SOL    HW130819  10.687   4.088   6.071 -0.5875  0.3977 -0.0871
40617SOL    HW230820  10.723   4.220   6.006 -0.7675  0.1014 -0.7908
40618SOL     OW30821   1.360   3.689   4.567  0.2796  0.6379  0.3730
40618SOL    HW130822   1.297   3.736   4.513  1.2588  2.4623  0.7185
40618SOL    HW230823   1.309   3.623   4.612 -1.2035  1.4178 -0.0986
40619SOL     OW30824   4.889   1.506   8.316  0.0975  0.0782  0.0080
40619SOL    HW130825   4.952   1.469   8.254 -0.1497  0.4575 -0.4731
40619SOL    HW230826   4.928   1.489   8.402  0.1540 -1.0010 -0.2077
40620SOL     OW30827   3.516   9.368   6.610 -0.3254 -0.4226  0.3250
40620SOL    HW130828   3.521   9.446   6.554  0.3553 -1.2909 -0.8795
40620SOL    HW230829   3.435   9.380   6.660 -0.4818  0.8225 -0.1810
40621SOL     OW30830  10.310   5.984   7.241 -0.5129 -0.7142  0.0346
40621SOL    HW130831  10.215   5.994   7.238 -0.6357 -1.7477  0.2043
40621SOL    HW230832  10.327   5.925   7.315  0.4123  0.9944  1.2670
40622SOL     OW30833  11.746  11.392  11.299  0.3793 -0.4076 -0.0780
40622SOL    HW130834  11.666  11.341  11.306  0.1011 -0.2176 -1.5876
40622SOL    HW230835  11.777  11.377  11.210  1.8356 -0.1844  0.3578
40623SOL     OW30836   8.228   0.612   3.647  0.4294 -0.4332  0.0033
40623SOL    HW130837   8.218   0.615   3.742 -0.7543 -0.4741 -0.1086
40623SOL    HW230838   8.197   0.697   3.616  0.8111 -0.4191 -0.3491
40624SOL     OW30839   4.692  10.943   4.581  0.5156  0.5594  0.1858
40624SOL    HW130840   4.737  11.023   4.610  0.7051  0.0037  1.5077
40624SOL    HW230841   4.754  10.873   4.602 -0.2016 -0.0516  0.2887
40625SOL     OW30842   2.212   0.149  11.156  0.5741  0.0096  0.1038
40625SOL    HW130843   2.204   0.201  11.236  2.3830  1.3478 -0.5212
40625SOL    HW230844   2.156   0.194  11.093  1.7474  0.9633 -0.2935
40626SOL     OW30845   1.518   6.639   0.871  0.7608 -0.7459  0.4296
40626SOL    HW130846   1.564   6.555   0.862  0.1666 -1.2756  1.9400
40626SOL    HW230847   1.431   6.616   0.902 -0.3276  0.3041 -1.6661
40627SOL     OW30848   5.485   4.265   6.135 -0.1317  0.6942  0.0716
40627SOL    HW130849   5.511   4.356   6.132 -0.1729  0.6839 -1.0243
40627SOL    HW230850   5.391   4.266   6.119 -0.2105  0.4937  0.5144
40628SOL     OW30851   8.350  11.765  11.235 -0.6420  0.3238  0.5179
40628SOL    HW130852   8.390  11.691  11.280  0.7712  0.4255 -0.4998
40628SOL    HW230853   8.257  11.744  11.231 -0.3025 -1.2516  0.5419
40629SOL     OW30854   3.722  11.813   8.227 -0.3434  0.0158  0.1753
40629SOL    HW130855   3.655  11.880   8.243 -2.0788 -1.6459  0.2298
40629SOL    HW230856   3.709  11.749   8.297  2.1692  0.2144  0.9316
40630SOL     OW30857   6.259   1.666   5.983 -0.3593  0.0528 -0.1171
40630SOL    HW130858   6.214   1.650   6.066  2.1123  0.0039  1.3275
40630SOL    HW230859   6.233   1.754   5.957 -1.0396  0.1357  0.8145
40631SOL     OW30860   8.565   0.139   5.397  0.4961  0.1656 -0.0329
40631SOL    HW130861   8.514   0.206   5.444  0.9511  0.2420  0.3590
40631SOL    HW230862   8.624   0.189   5.340 -0.0916  0.0729 -0.7427
40632SOL     OW30863   7.049  11.688   3.532  0.3567  0.3179 -0.2530
40632SOL    HW130864   7.111  11.631   3.486 -0.8656  0.0278 -1.6182
40632SOL    HW230865   7.081  11.776   3.514  0.7262  0.1561 -0.4157
40633SOL     OW30866  11.106   8.897   3.026  0.0791 -0.0567  0.2984
40633SOL    HW130867  11.174   8.876   2.963  1.3919  1.7078  1.0810
40633SOL    HW230868  11.039   8.942   2.975  2.0939  3.3489  0.3856
40634SOL     OW30869   3.658  10.156   5.740 -0.5754 -0.3475 -0.6629
40634SOL    HW130870   3.744  10.185   5.711 -0.6428  1.1895  0.5100
40634SOL    HW230871   3.601  10.232   5.725 -1.6979 -1.2784 -1.2505
40635SOL     OW30872   5.633   8.193   8.785  0.0559  1.1756  0.4125
40635SOL    HW130873   5.692   8.196   8.860  0.4862 -0.2453  0.1642
40635SOL    HW230874   5.606   8.283   8.772  0.2261  1.4971  2.0713
40636SOL     OW30875   4.077   9.298   3.817 -0.4591  0.0687 -0.2664
40636SOL    HW130876   4.063   9.251   3.899  1.6249 -2.2172 -1.0715
40636SOL    HW230877   4.007   9.268   3.759 -0.1908 -0.6965 -0.2060
40637SOL     OW30878   7.548   1.107   7.679  0.2737 -0.5121  0.2223
40637SOL    HW130879   7.528   1.017   7.656 -1.7397 -0.5155  1.6756
40637SOL    HW230880   7.596   1.101   7.762 -0.8224 -0.2750  0.9064
40638SOL     OW30881   9.249  11.464  12.350  0.4103 -0.2498  0.3537
40638SOL    HW130882   9.335  11.497  12.376  0.0972 -0.2586  1.4495
40638SOL    HW230883   9.235  11.499  12.262  1.1860  0.4152  0.4840
40639SOL     OW30884   3.519   9.858  12.549  0.2925  0.0459 -0.9131
40639SOL    HW130885   3.464   9.926  12.510 -1.0911  0.0852  0.9862
40639SOL    HW230886   3.539   9.890  12.637  0.5601 -1.4822 -0.3842
40640SOL     OW30887   5.317  10.662   5.059 -1.1640  0.3200  0.1792
40640SOL    HW130888   5.396  10.711   5.079 -0.4693 -1.2342  1.4493
40640SOL    HW230889   5.245  10.719   5.086 -0.6343  2.4039 -2.4221
40641SOL     OW30890   0.255  10.839  12.582 -0.1778 -0.0484  0.1785
40641SOL    HW130891   0.180  10.808  12.533  0.2592  0.9709 -1.2320
40641SOL    HW230892   0.321  10.771  12.572  0.0957  0.3765 -1.1918
40642SOL     OW30893  12.266   2.601   7.093  0.5008  0.5343 -0.2951
40642SOL    HW130894  12.231   2.663   7.157 -0.0471 -1.0850  1.0326
40642SOL    HW230895  12.357   2.588   7.120  0.9370  1.5389 -1.2180
40643SOL     OW30896   4.041  11.196   3.717  0.1223  0.2774  0.4409
40643SOL    HW130897   4.074  11.118   3.674  1.9798  0.8195  0.7704
40643SOL    HW230898   3.949  11.202   3.690  0.2897 -1.2844 -0.6061
40644SOL     OW30899   1.242   6.304   5.041  0.2889 -0.3761 -0.2769
40644SOL    HW130900   1.189   6.347   4.974  0.0859 -0.9316 -0.4752
40644SOL    HW230901   1.182   6.242   5.083  0.9728 -1.5679 -1.0175
40645SOL     OW30902   2.030   6.660  11.386  0.0644  0.1282 -0.7572
40645SOL    HW130903   2.042   6.728  11.451 -0.7172 -2.4477  2.3409
40645SOL    HW230904   1.935   6.653  11.375  0.0197 -1.5719  0.3720
40646SOL     OW30905  11.317   8.311  10.365 -0.4697 -0.3109 -0.4764
40646SOL    HW130906  11.401   8.266  10.355  1.1326  1.7842  2.2222
40646SOL    HW230907  11.274   8.266  10.437  0.1380  0.9648  0.7284
40647SOL     OW30908   6.082   1.112   7.539 -0.6416 -0.0061  0.0421
40647SOL    HW130909   6.112   1.104   7.449 -0.5741 -0.3477  0.0927
40647SOL    HW230910   6.016   1.043   7.549  1.1463 -1.6999  0.9828
40648SOL     OW30911   7.745   6.977   4.532  0.0377  0.3505 -0.7416
40648SOL    HW130912   7.757   6.883   4.517 -0.1213  0.2290 -0.1391
40648SOL    HW230913   7.707   7.010   4.450 -1.0050 -0.3199 -0.5474
40649SOL     OW30914   0.818   6.202   5.575 -0.4059 -0.0342  0.0484
40649SOL    HW130915   0.905   6.241   5.567 -0.4117 -0.3887 -3.5521
40649SOL    HW230916   0.830   6.130   5.637  2.3440 -1.0569 -1.4614
40650SOL     OW30917  11.350   6.567  10.834  0.4911  0.4164 -0.0984
40650SOL    HW130918  11.402   6.639  10.869  1.0851  0.1665 -0.4522
40650SOL    HW230919  11.272   6.609  10.798  1.0359  0.9318 -0.6950
40651SOL     OW30920  10.596   5.664  10.943  0.0441 -0.3542 -0.3537
40651SOL    HW130921  10.517   5.704  10.906 -1.1589 -0.7254  1.6596
40651SOL    HW230922  10.622   5.723  11.015  0.2242 -1.4156  0.4782
40652SOL     OW30923   3.909   3.403   6.717 -0.2497  0.2824 -0.1805
40652SOL    HW130924   3.987   3.374   6.672 -0.4866  1.3257 -1.3150
40652SOL    HW230925   3.939   3.426   6.805  0.9634  1.7054 -0.9190
40653SOL     OW30926   8.780  12.496   5.844  0.0127 -0.2309  0.5483
40653SOL    HW130927   8.741  12.550   5.775 -0.3969  0.5248  1.3509
40653SOL    HW230928   8.872  12.490   5.821 -0.0081  0.5057  0.2455
40654SOL     OW30929  10.331  10.747  12.482  0.1073 -0.3893  0.3653
40654SOL    HW130930  10.257  10.798  12.514 -0.7330 -0.2263 -1.6868
40654SOL    HW230931  10.314  10.735  12.389  1.6705 -2.0688  0.2216
40655SOL     OW30932   6.791   1.633   1.076  0.8366 -0.2607 -0.1594
40655SOL    HW130933   6.787   1.566   1.145  0.7781  0.0466  0.1356
40655SOL    HW230934   6.726   1.605   1.012 -0.5886  0.5359  0.8923
40656SOL     OW30935   8.267  12.424  11.928 -0.7885 -0.3614 -0.2399
40656SOL    HW130936   8.232  12.511  11.908  1.0001  0.3469 -0.4521
40656SOL    HW230937   8.304  12.394  11.845  2.0690  0.3855  0.6582
40657SOL     OW30938   8.946   9.810   5.588 -0.0485  0.1998  0.0645
40657SOL    HW130939   8.994   9.768   5.659  0.0302 -0.3776 -0.3275
40657SOL    HW230940   8.854   9.793   5.609 -0.0996  1.2121  0.7562
40658SOL     OW30941   3.073   5.580   0.968 -0.3080  0.1015 -0.6313
40658SOL    HW130942   3.087   5.496   0.925  0.5475 -0.5256  0.8035
40658SOL    HW230943   2.983   5.604   0.946 -0.6146 -1.2635 -0.9380
40659SOL     OW30944   5.018  10.912   5.951  0.1684  0.2354  0.2836
40659SOL    HW130945   5.107  10.887   5.924  0.2725 -0.5792  1.3349
40659SOL    HW230946   4.961  10.860   5.894  0.3646  0.4279 -0.0927
40660SOL     OW30947   2.184   0.861  11.786  0.2591 -0.0397 -0.3486
40660SOL    HW130948   2.105   0.862  11.734  0.5724  0.4318 -0.8200
40660SOL    HW230949   2.174   0.785  11.844 -0.5353  0.0341 -0.3916
40661SOL     OW30950   6.515  12.413   0.330 -0.0307  0.4481  0.2697
40661SOL    HW130951   6.445  12.453   0.381  0.1983  1.7258 -0.3665
40661SOL    HW230952   6.475  12.394   0.245  0.0257 -0.1343  0.3699
40662SOL     OW30953  10.544   7.080   1.943  0.0583  0.7564 -0.0218
40662SOL    HW130954  10.588   7.166   1.940 -0.1020  0.8207 -0.8688
40662SOL    HW230955  10.615   7.017   1.938  0.1593  0.8418  0.3061
40663SOL     OW30956   1.165   1.948   3.474  0.3980  0.1847  0.6774
40663SOL    HW130957   1.134   1.940   3.384  1.5997  0.2170  0.2413
40663SOL    HW230958   1.152   1.860   3.512 -1.3298  0.5018  0.9163
40664SOL     OW30959   2.472   6.429   3.503 -0.3721 -0.1728  0.5300
40664SOL    HW130960   2.378   6.448   3.508 -0.7071 -1.6722  0.3075
40664SOL    HW230961   2.494   6.440   3.410 -0.0740  1.2077  0.7424
40665SOL     OW30962   9.990   0.811   0.437  0.3889 -0.4474 -0.1069
40665SOL    HW130963  10.025   0.724   0.414 -0.4437 -1.2195  1.3856
40665SOL    HW230964   9.996   0.814   0.532 -0.0798  0.9444 -0.1069
40666SOL     OW30965  11.521  10.109  11.675 -0.6418 -0.1090  0.5954
40666SOL    HW130966  11.466  10.160  11.735  0.0859  0.4007  0.8317
40666SOL    HW230967  11.463  10.091  11.601 -2.7925 -3.7919  2.8587
40667SOL     OW30968   1.278   4.915   6.378 -0.0241 -0.3133  0.4819
40667SOL    HW130969   1.312   4.967   6.451 -0.9683 -0.7016  1.2250
40667SOL    HW230970   1.300   4.966   6.300  1.1425  0.0380  1.0171
40668SOL     OW30971   2.958   6.018   6.217  0.0146 -0.3286 -0.3759
40668SOL    HW130972   2.875   6.051   6.252  0.1202 -0.1696 -0.2733
40668SOL    HW230973   2.946   5.923   6.210  0.4152 -0.5261  1.2342
40669SOL     OW30974  10.457   4.022   4.242  0.3186 -0.4681  0.1053
40669SOL    HW130975  10.550   4.036   4.257  0.4535 -0.0862 -1.0298
40669SOL    HW230976  10.416   4.038   4.328  1.1243  0.8392  0.2607
40670SOL     OW30977   3.284   0.481   7.082  0.0903  0.1397  0.0383
40670SOL    HW130978   3.303   0.500   6.990  0.1428 -0.1382 -0.0095
40670SOL    HW230979   3.370   0.465   7.121  0.0243 -0.3087  0.0051
40671SOL     OW30980  11.644   4.443   3.761  0.1356 -0.2182  0.2911
40671SOL    HW130981  11.707   4.444   3.834  1.6243  0.3866 -0.9391
40671SOL    HW230982  11.575   4.504   3.789  1.0548  0.5816  0.8980
40672SOL     OW30983   2.953  12.168   9.770  0.2008 -0.3575 -0.2358
40672SOL    HW130984   3.047  12.164   9.750  0.3154  0.3925  0.1210
40672SOL    HW230985   2.930  12.260   9.756 -0.3699 -0.4356  0.1803
40673SOL     OW30986   8.045   5.997   1.620  0.1418 -0.0406  0.2793
40673SOL    HW130987   8.043   6.067   1.686 -1.8126  1.3065 -1.1297
40673SOL    HW230988   7.983   5.932   1.653  0.9842 -0.5327  0.9382
40674SOL     OW30989   8.688   7.126   5.170 -0.1028 -0.3792  0.5475
40674SOL    HW130990   8.740   7.048   5.192 -0.3786 -0.3016  1.4771
40674SOL    HW230991   8.719   7.194   5.230  0.3169  0.3218 -0.4256
40675SOL     OW30992   6.779   2.702  12.052  0.1059 -0.0300 -0.2822
40675SOL    HW130993   6.808   2.668  11.967 -2.2926 -1.4869 -0.6073
40675SOL    HW230994   6.719   2.774  12.029 -0.6552 -0.5181  0.1534
40676SOL     OW30995   6.138   0.017   4.592 -0.1831 -0.1144  0.3483
40676SOL    HW130996   6.173   0.089   4.540 -1.8359  0.8878  0.5240
40676SOL    HW230997   6.051   0.001   4.556 -0.1198 -1.5772  0.7646
40677SOL     OW30998   2.821   0.979  11.233 -0.4790  0.5856 -0.4783
40677SOL    HW130999   2.752   0.935  11.185  0.8285 -0.6720 -1.2706
40677SOL    HW231000   2.887   0.912  11.248  0.0930  1.4662  1.2589
40678SOL     OW31001   2.233   7.477  12.082  0.3447  0.0921  0.0447
40678SOL    HW131002   2.277   7.538  12.140  3.0948  0.2666 -2.0002
40678SOL    HW231003   2.200   7.531  12.010 -0.4936 -0.4236  0.0269
40679SOL     OW31004   1.282   9.191   3.248 -0.1425  0.3745 -0.0055
40679SOL    HW131005   1.309   9.276   3.282  1.0661  0.0444 -0.0769
40679SOL    HW231006   1.283   9.133   3.324  2.1566 -0.2685 -0.4423
40680SOL     OW31007   9.547   7.878  11.587  0.0508 -0.0716  0.3444
40680SOL    HW131008   9.482   7.887  11.517  0.9086  1.6053 -0.2952
40680SOL    HW231009   9.495   7.870  11.667 -0.9540 -2.4327 -0.4708
40681SOL     OW31010   9.480   4.128   2.268  0.4865  0.6952  0.4154
40681SOL    HW131011   9.434   4.185   2.206  1.2927  0.9347  0.0213
40681SOL    HW231012   9.510   4.054   2.214  0.5466  0.5359  0.6672
40682SOL     OW31013   4.821   1.349  12.095  0.2546 -0.0704 -0.1831
40682SOL    HW131014   4.760   1.286  12.056  1.2852 -0.7116 -0.8213
40682SOL    HW231015   4.793   1.434  12.061  0.2904 -0.4648 -1.2455
40683SOL     OW31016  11.737  11.421   9.963 -0.2713 -0.1580  0.4072
40683SOL    HW131017  11.655  11.371   9.967  0.0833 -0.7106  0.8910
40683SOL    HW231018  11.764  11.428  10.054  0.5540 -0.5339  0.1971
40684SOL     OW31019   7.155   8.752  10.348  0.2306  0.0743 -0.2460
40684SOL    HW131020   7.090   8.730  10.415  1.4515  0.9367  1.3047
40684SOL    HW231021   7.157   8.847  10.347  1.6253  0.0738 -0.0471
40685SOL     OW31022   5.210   3.272   0.121  0.1701  0.0840 -0.4572
40685SOL    HW131023   5.280   3.208   0.128  0.0496  0.0376  0.6345
40685SOL    HW231024   5.190   3.278   0.028  0.1681 -1.4829 -0.5783
40686SOL     OW31025   5.935  12.513   2.723 -0.3948 -0.4109 -0.3969
40686SOL    HW131026   5.964  12.545   2.637  0.3105 -0.3870 -0.1539
40686SOL    HW231027   5.858  12.460   2.703  0.7068 -1.7739 -1.2509
40687SOL     OW31028   7.502   8.456   5.182  0.7040  0.1759 -0.0242
40687SOL    HW131029   7.578   8.418   5.136  0.5277 -0.0987 -0.0878
40687SOL    HW231030   7.475   8.388   5.243 -0.5678 -0.4262 -1.2105
40688SOL     OW31031   8.354   1.715   9.233  0.4858 -0.1783  0.3668
40688SOL    HW131032   8.416   1.749   9.297  0.6658  2.3047 -0.9850
40688SOL    HW231033   8.280   1.776   9.237 -0.2848 -1.0158 -0.5256
40689SOL     OW31034   8.190   2.190   2.717  0.2511  0.0099  0.0633
40689SOL    HW131035   8.135   2.208   2.640 -0.1890  1.9802  0.7962
40689SOL    HW231036   8.210   2.097   2.710 -1.3294 -0.2712 -1.4413
40690SOL     OW31037   6.363   3.404   2.416  0.0271 -0.3446  0.2811
40690SOL    HW131038   6.317   3.445   2.343 -0.3193  0.0938  0.7437
40690SOL    HW231039   6.364   3.470   2.485  0.5662 -0.6668  0.5934
40691SOL     OW31040   0.479  11.191   3.632  0.4398 -0.2002  0.1727
40691SOL    HW131041   0.487  11.161   3.723  1.3634 -0.1095  0.1298
40691SOL    HW231042   0.464  11.111   3.582 -0.3959 -0.2156  0.4381
40692SOL     OW31043   3.772   4.835   2.775  0.2460  0.0795  0.2688
40692SOL    HW131044   3.819   4.753   2.792 -0.0003  0.0998  1.0729
40692SOL    HW231045   3.831   4.885   2.719  0.2389 -0.8020 -0.5680
40693SOL     OW31046   7.684   2.759   5.825 -0.0222  0.3645  0.4417
40693SOL    HW131047   7.630   2.814   5.768  0.1614  1.5507  1.3780
40693SOL    HW231048   7.774   2.778   5.799  0.0299  0.2508  0.5374
40694SOL     OW31049   3.893   4.654   4.783 -0.5242 -0.0380 -0.5164
40694SOL    HW131050   3.879   4.583   4.846 -0.6777 -1.2979 -1.9240
40694SOL    HW231051   3.806   4.694   4.773 -0.0447  1.8195  1.8877
40695SOL     OW31052   2.136   6.396  10.641  0.4259 -0.1951  0.0921
40695SOL    HW131053   2.150   6.476  10.692 -0.1217  0.9906 -1.4961
40695SOL    HW231054   2.129   6.427  10.551  0.3326 -2.0782 -0.5911
40696SOL     OW31055   7.544  12.335  10.501  0.5646 -0.3101  0.5232
40696SOL    HW131056   7.580  12.347  10.589  1.8810  0.9166 -0.1515
40696SOL    HW231057   7.452  12.362  10.508  0.6064 -0.4037  1.5514
40697SOL     OW31058   1.716   1.644   8.280  0.7652 -0.3052  0.6411
40697SOL    HW131059   1.767   1.712   8.235  2.0210 -0.6982  1.4013
40697SOL    HW231060   1.748   1.647   8.370  0.2587 -1.3623  0.8662
40698SOL     OW31061  12.262   0.463  10.086  0.1344 -0.6076 -0.1024
40698SOL    HW131062  12.279   0.385  10.033  0.2730  0.4809 -1.7665
40698SOL    HW231063  12.174   0.491  10.059  0.1715 -0.0829  0.3156
40699SOL     OW31064   0.970  11.600   6.596 -0.0032 -0.3648  0.5990
40699SOL    HW131065   0.986  11.694   6.590  0.6083 -0.3639  1.8883
40699SOL    HW231066   0.931  11.577   6.512 -1.5207  1.2967  0.7987
40700SOL     OW31067   3.363  10.366  12.221  0.3387  0.0082 -0.0637
40700SOL    HW131068   3.428  10.300  12.243  1.1934  1.3612  1.7367
40700SOL    HW231069   3.413  10.448  12.213 -1.0557  1.0687  1.3052
40701SOL     OW31070   3.511   4.206   1.006 -0.9225  0.1273 -0.2044
40701SOL    HW131071   3.440   4.269   0.991 -1.7711 -1.0425 -1.2265
40701SOL    HW231072   3.585   4.241   0.955 -0.0057  2.4246  2.4199
40702SOL     OW31073   4.465   6.715   1.324 -0.4317 -0.3722 -0.2863
40702SOL    HW131074   4.469   6.785   1.390 -0.2523  1.1091 -1.7998
40702SOL    HW231075   4.452   6.761   1.241  0.9955 -2.0470 -1.5192
40703SOL     OW31076   2.772   5.193   4.517 -0.2699 -0.1411 -0.3019
40703SOL    HW131077   2.827   5.245   4.459  0.6649 -1.8529 -1.0380
40703SOL    HW231078   2.773   5.240   4.600  1.3834  0.4835 -0.6299
40704SOL     OW31079   9.278   7.184   1.528 -0.2540 -0.5120  0.5009
40704SOL    HW131080   9.314   7.200   1.615 -0.1881  1.6397  0.1354
40704SOL    HW231081   9.354   7.159   1.474  0.0510  0.1371  0.6200
40705SOL     OW31082   8.674  11.328   5.773  0.3595 -0.3530 -0.3312
40705SOL    HW131083   8.708  11.412   5.745  4.0193 -2.1530 -2.0069
40705SOL    HW231084   8.605  11.307   5.709 -0.0249  0.9608 -0.3746
40706SOL     OW31085   2.578  12.164  10.047 -0.4275  0.0030 -0.2629
40706SOL    HW131086   2.555  12.203   9.963  0.1163 -0.9778 -0.8836
40706SOL    HW231087   2.494  12.153  10.092 -0.6545  1.2396 -0.3322
40707SOL     OW31088   6.553   5.716  10.437  0.0384 -0.1543 -0.0981
40707SOL    HW131089   6.569   5.759  10.353 -0.2779  1.5666  0.6936
40707SOL    HW231090   6.463   5.685  10.431 -0.7686  1.9739  0.4137
40708SOL     OW31091   2.756  10.809   1.155 -0.1921  0.1918 -0.4462
40708SOL    HW131092   2.725  10.867   1.224  1.4764  1.8014 -0.9695
40708SOL    HW231093   2.710  10.838   1.076 -0.0221  0.1826 -0.5484
40709SOL     OW31094   1.454   9.014   4.124 -0.2662  0.9171 -0.2045
40709SOL    HW131095   1.405   9.078   4.176  1.2609  2.2783 -0.3283
40709SOL    HW231096   1.519   9.067   4.077  1.0551 -0.7378 -0.3418
40710SOL     OW31097   6.309   2.513   7.620  0.2541 -0.0970  0.0965
40710SOL    HW131098   6.329   2.493   7.711 -1.3900  1.5687  0.9033
40710SOL    HW231099   6.216   2.490   7.611  0.7323 -1.5384 -1.5893
40711SOL     OW31100  11.900  11.508   8.744 -0.1579  0.0086 -0.4802
40711SOL    HW131101  11.945  11.445   8.688  0.6210  0.2017 -0.0858
40711SOL    HW231102  11.814  11.519   8.703 -0.0015 -0.6798 -1.0131
40712SOL     OW31103  12.049  11.406   2.092 -0.1994  0.1078  0.1874
40712SOL    HW131104  12.117  11.473   2.098  0.7947 -0.8189 -0.3410
40712SOL    HW231105  12.042  11.372   2.182 -0.4969  0.6991  0.3939
40713SOL     OW31106   5.605   6.744   1.328  0.4101  0.1957  0.2879
40713SOL    HW131107   5.557   6.661   1.322  2.9260 -1.3717  0.3221
40713SOL    HW231108   5.587   6.775   1.416 -0.0858 -0.6368  0.4992
40714SOL     OW31109   3.716   3.281   4.354  0.0034  0.7687  0.1662
40714SOL    HW131110   3.694   3.212   4.292 -0.2308 -0.2852  1.3670
40714SOL    HW231111   3.792   3.247   4.402  0.7925  1.9780 -0.1959
40715SOL     OW31112  10.401   9.060   4.477  0.0670 -0.5267  0.6154
40715SOL    HW131113  10.395   9.018   4.563  0.1225 -0.4892  0.6377
40715SOL    HW231114  10.452   9.140   4.493 -0.6755 -0.0683  0.7143
40716SOL     OW31115   3.556   0.962   0.017  0.2428  0.4417  0.1480
40716SOL    HW131116   3.644   0.945   0.052  0.2000  0.8103  0.4445
40716SOL    HW231117   3.521   0.876  -0.005  0.3238  0.2153  0.8956
40717SOL     OW31118   7.161   0.134   1.596  0.2107  0.0077 -0.4255
40717SOL    HW131119   7.102   0.059   1.590  0.5086 -0.1549 -1.4240
40717SOL    HW231120   7.165   0.154   1.690  1.1354 -2.0172  0.0168
40718SOL     OW31121   3.450   3.526   2.512 -0.0717 -0.2881  0.3996
40718SOL    HW131122   3.377   3.478   2.551 -1.3327  0.6610 -0.7107
40718SOL    HW231123   3.430   3.618   2.527 -0.2997  0.0957 -1.8736
40719SOL     OW31124   7.333   7.697   6.077 -0.3634  0.2739 -0.0190
40719SOL    HW131125   7.341   7.744   6.160 -0.2677  0.4406 -0.1229
40719SOL    HW231126   7.341   7.605   6.101 -1.6815  0.2248  0.3410
40720SOL     OW31127   7.119   1.060  12.531  0.3966 -0.0954  0.3920
40720SOL    HW131128   7.088   1.102  12.451  0.0956 -1.6218 -0.3382
40720SOL    HW231129   7.207   1.030  12.510  0.2142 -0.7438  0.5279
40721SOL     OW31130   9.843   9.357   1.193  0.1181  1.0006  0.1270
40721SOL    HW131131   9.925   9.402   1.216  0.5214  0.8309 -0.9119
40721SOL    HW231132   9.866   9.304   1.117 -0.3138 -1.0732  1.3839
40722SOL     OW31133   5.622   6.553  10.445 -0.2132 -0.5531  0.7383
40722SOL    HW131134   5.702   6.607  10.450 -0.6664  0.0843  1.2486
40722SOL    HW231135   5.551   6.616  10.434 -0.7598 -1.0487  1.3364
40723SOL     OW31136   4.693   0.346   1.856  0.3301  0.3438  1.0937
40723SOL    HW131137   4.608   0.325   1.815 -0.0789  1.1117  1.5295
40723SOL    HW231138   4.755   0.344   1.783 -0.4381  2.0530  0.3147
40724SOL     OW31139   7.340   5.315   5.438 -0.0895 -0.0848 -0.1212
40724SOL    HW131140   7.293   5.374   5.379  0.1749 -0.6707 -0.9263
40724SOL    HW231141   7.271   5.266   5.483 -0.2676 -1.1141 -1.4745
40725SOL     OW31142   6.795  11.986   8.202  0.1718  0.2103 -0.5094
40725SOL    HW131143   6.803  12.053   8.270  2.9496  0.5347 -1.0404
40725SOL    HW231144   6.805  12.034   8.120  0.5041 -0.6409 -0.9782
40726SOL     OW31145   9.663  11.123  11.932  0.2732  0.0228  0.4445
40726SOL    HW131146   9.651  11.178  12.009 -2.2930  1.3768 -0.7856
40726SOL    HW231147   9.585  11.067  11.929  0.8211 -0.7348 -0.6066
40727SOL     OW31148   0.065   4.184   0.533 -0.0571  0.4065 -0.2161
40727SOL    HW131149   0.083   4.248   0.464  1.0917 -1.3424 -1.6228
40727SOL    HW231150   0.020   4.112   0.488  0.3439 -0.5978  0.9291
40728SOL     OW31151   2.714   8.238   3.901  0.0653 -0.3205  0.3098
40728SOL    HW131152   2.773   8.169   3.933  1.6069  1.2844  1.0891
40728SOL    HW231153   2.677   8.276   3.981 -1.1216 -0.4883 -0.1326
40729SOL     OW31154   6.953   4.493   2.012 -0.2748 -0.1415 -0.1792
40729SOL    HW131155   6.911   4.552   2.075  0.0255 -0.7847  0.6456
40729SOL    HW231156   7.045   4.521   2.011 -0.5210  0.6733 -1.2904
40730SOL     OW31157   5.145  11.801   3.508 -0.2473  0.6329 -0.2331
40730SOL    HW131158   5.099  11.787   3.426  0.8619 -0.2773 -0.7225
40730SOL    HW231159   5.234  11.824   3.483 -0.6003  3.3758  0.6776
40731SOL     OW31160   8.880  11.768   0.520  0.1677  0.4351  0.4364
40731SOL    HW131161   8.821  11.693   0.522 -1.2112  1.4642 -0.2834
40731SOL    HW231162   8.957  11.739   0.569 -0.6136 -1.2012  0.7559
40732SOL     OW31163  11.072   4.355   6.140  0.1156  0.1697  0.0783
40732SOL    HW131164  11.055   4.407   6.219  0.6139 -0.1606  0.4092
40732SOL    HW231165  11.075   4.264   6.172 -1.4500 -0.1563 -0.5893
40733SOL     OW31166   1.611  10.633   1.023  0.3459  0.3838  0.1930
40733SOL    HW131167   1.627  10.558   1.080  1.4616  0.2176 -0.3160
40733SOL    HW231168   1.607  10.708   1.083  0.1676  0.0359  0.6165
40734SOL     OW31169  10.041   4.794   9.142  0.8310 -0.0615 -0.0559
40734SOL    HW131170   9.996   4.710   9.131 -0.8631  0.8617 -0.5071
40734SOL    HW231171  10.120   4.786   9.089  1.0613 -1.6018  0.4628
40735SOL     OW31172   8.788   3.984   4.565 -0.0406  0.3799  0.0003
40735SOL    HW131173   8.760   3.992   4.656  0.7013 -0.6060  0.3278
40735SOL    HW231174   8.825   3.896   4.558  2.2602  1.3236 -0.5945
40736SOL     OW31175   1.836   6.049   4.872  0.2701  0.0409 -0.2584
40736SOL    HW131176   1.806   6.140   4.870 -1.1349 -0.3013  2.0449
40736SOL    HW231177   1.764   6.000   4.832 -1.1123 -0.4616  2.5962
40737SOL     OW31178   7.108  10.118   7.362 -0.1012 -0.1005 -0.6398
40737SOL    HW131179   7.190  10.080   7.394 -0.5650 -0.0544  0.6607
40737SOL    HW231180   7.114  10.211   7.383 -0.9376 -0.2795  0.5050
40738SOL     OW31181   4.098   0.407   3.212 -0.1038  0.2273  0.4179
40738SOL    HW131182   4.099   0.325   3.162  2.5269  0.4565 -0.0554
40738SOL    HW231183   4.012   0.445   3.195 -0.9758 -1.9176 -0.2095
40739SOL     OW31184   9.822   0.377   4.541 -0.3166 -0.0020 -0.8277
40739SOL    HW131185   9.771   0.445   4.498  0.0385  0.0516 -1.1703
40739SOL    HW231186   9.903   0.371   4.490 -0.1325 -0.3356 -0.5078
40740SOL     OW31187   6.739  10.179   0.474  0.1920 -0.0745 -0.4644
40740SOL    HW131188   6.826  10.139   0.483  1.4795  1.7355 -3.5264
40740SOL    HW231189   6.696  10.160   0.557  3.5722 -0.9065  1.2892
40741SOL     OW31190   1.785   8.738   6.506 -0.1846  0.2639  0.1507
40741SOL    HW131191   1.879   8.730   6.494 -0.1106 -1.9619  1.5242
40741SOL    HW231192   1.747   8.684   6.436 -0.3915  0.1769  0.3285
40742SOL     OW31193   6.936  10.252   1.683 -0.4234  0.5048  0.6565
40742SOL    HW131194   6.848  10.282   1.662 -0.4249 -0.0525 -0.1738
40742SOL    HW231195   6.924  10.167   1.725 -0.3644  1.2050  2.1728
40743SOL     OW31196  11.244  11.033   6.421  1.1972 -0.0073 -0.5101
40743SOL    HW131197  11.237  10.961   6.484 -0.8106 -0.4111 -1.1260
40743SOL    HW231198  11.334  11.029   6.391  0.9902 -2.7844 -1.0616
40744SOL     OW31199   5.747   4.434   9.589  0.1129 -0.1639 -0.2763
40744SOL    HW131200   5.726   4.526   9.607  1.6389  0.4300 -1.2625
40744SOL    HW231201   5.789   4.436   9.503  2.1172 -1.4654  0.5877
40745SOL     OW31202   2.413   2.585   2.516  0.0661 -0.0900 -0.3462
40745SOL    HW131203   2.406   2.520   2.586 -1.0276 -1.3366 -1.5728
40745SOL    HW231204   2.501   2.573   2.480  1.1499  1.4271  1.5554
40746SOL     OW31205   4.529   4.507   8.538  0.1812 -0.6780  0.4702
40746SOL    HW131206   4.501   4.533   8.450 -0.6004 -2.0291  0.2908
40746SOL    HW231207   4.559   4.588   8.578 -0.1173  0.0910 -0.7965
40747SOL     OW31208   1.783  10.715   4.349 -0.5740 -0.1229 -0.3431
40747SOL    HW131209   1.706  10.666   4.375 -0.6124  0.6818  1.1925
40747SOL    HW231210   1.808  10.765   4.428  0.6680  0.7094 -1.2144
40748SOL     OW31211   6.924   6.438   6.907  0.9732 -0.3500 -0.1677
40748SOL    HW131212   6.924   6.461   7.000 -0.1284  0.5200 -0.3567
40748SOL    HW231213   7.016   6.435   6.883  1.2524  0.6200  0.6810
40749SOL     OW31214   4.883   0.026   6.930  0.1781 -0.0068 -0.7454
40749SOL    HW131215   4.794  -0.010   6.920  0.4641 -1.0064  0.1257
40749SOL    HW231216   4.935  -0.047   6.963  1.8522 -0.0489 -3.2682
40750SOL     OW31217  12.382   6.184   8.846 -0.3396  0.3762 -0.3188
40750SOL    HW131218  12.429   6.173   8.763 -1.1218  0.3611 -0.7680
40750SOL    HW231219  12.374   6.095   8.881  0.6992  0.4685  0.1787
40751SOL     OW31220   7.934   1.151   0.691  0.1170  0.3539 -0.2778
40751SOL    HW131221   8.008   1.112   0.739  0.0699 -0.5585 -0.9180
40751SOL    HW231222   7.857   1.107   0.726 -0.0103  0.4045 -0.4942
40752SOL     OW31223  10.623  10.380   9.110  0.1047 -0.3233 -0.3795
40752SOL    HW131224  10.694  10.363   9.172  0.2302 -0.9027 -0.6740
40752SOL    HW231225  10.583  10.295   9.095  0.4553 -0.3071 -1.5375
40753SOL     OW31226  11.149  10.531  12.476  0.1463  0.4537  0.3058
40753SOL    HW131227  11.108  10.617  12.475  0.3292  0.5367 -0.4605
40753SOL    HW231228  11.191  10.523  12.390 -0.9074 -0.8935 -0.1308
40754SOL     OW31229  11.388   7.093   0.113 -0.1479 -0.7092 -0.1098
40754SOL    HW131230  11.400   7.102   0.208 -1.6083  0.6029  0.0017
40754SOL    HW231231  11.333   7.015   0.103 -0.5562 -0.4697  0.1989
40755SOL     OW31232   1.790   8.180  11.276 -0.7690 -0.3443 -0.4462
40755SOL    HW131233   1.870   8.221  11.244  0.0645  0.3843  2.2799
40755SOL    HW231234   1.720   8.226  11.230  0.3199  0.4581 -1.3717
40756SOL     OW31235   4.361   3.749   0.862 -0.4988 -0.2062  0.0997
40756SOL    HW131236   4.363   3.706   0.776  2.4522 -1.8722  0.8655
40756SOL    HW231237   4.275   3.728   0.898 -0.1809 -3.3046 -0.6770
40757SOL     OW31238  11.133   4.927  11.039 -0.1248 -0.0130  0.2462
40757SOL    HW131239  11.206   4.865  11.032  0.0540  0.0713  1.2373
40757SOL    HW231240  11.055   4.874  11.024  0.1042 -0.1991 -0.3294
40758SOL     OW31241   7.476   2.154   5.178 -0.0267  0.4111  0.2550
40758SOL    HW131242   7.447   2.064   5.192  0.0213  0.3372 -0.1308
40758SOL    HW231243   7.418   2.207   5.233 -0.8604  0.2647 -0.4802
40759SOL     OW31244  12.147   3.434   4.906  0.2479  0.2681 -0.0433
40759SOL    HW131245  12.118   3.394   4.824  1.2993 -0.3780 -0.1211
40759SOL    HW231246  12.118   3.373   4.974  0.3677  0.2232 -0.0314
40760SOL     OW31247   9.899   6.794   3.844 -0.0154 -0.1078 -0.1263
40760SOL    HW131248   9.883   6.763   3.933 -0.1767 -1.0820 -0.4795
40760SOL    HW231249   9.904   6.714   3.792 -0.1721  0.4626 -1.0314
40761SOL     OW31250   1.387   4.373   3.344 -0.1747  0.0905  0.2526
40761SOL    HW131251   1.404   4.330   3.261 -0.0073  0.3613  0.1469
40761SOL    HW231252   1.293   4.392   3.343 -0.4364 -1.1054  0.6954
40762SOL     OW31253   8.807   6.214   1.525  0.0811  0.1920 -0.1881
40762SOL    HW131254   8.723   6.196   1.567 -0.6906  0.3374 -1.6045
40762SOL    HW231255   8.803   6.306   1.501  0.3823  0.0506 -0.8062
40763SOL     OW31256   2.293  11.782   1.642  0.4263  0.6992  0.0143
40763SOL    HW131257   2.353  11.710   1.620  2.1153  1.5346  1.5472
40763SOL    HW231258   2.220  11.739   1.687  3.2622 -0.0149  4.6690
40764SOL     OW31259   0.080   8.647   4.885  0.0981 -0.4112  0.7359
40764SOL    HW131260   0.164   8.681   4.855  0.0718 -0.4754  0.5880
40764SOL    HW231261   0.026   8.724   4.900 -0.3484 -0.4037 -0.7180
40765SOL     OW31262   5.455   0.096   7.672 -0.0941 -0.3922  0.0081
40765SOL    HW131263   5.412   0.041   7.607 -0.8087 -1.1583  1.0925
40765SOL    HW231264   5.541   0.055   7.685 -0.5419 -1.1417  0.6533
40766SOL     OW31265   5.615   4.491   4.875 -0.3031 -0.1542  0.2162
40766SOL    HW131266   5.551   4.549   4.834 -0.5596 -1.8059 -1.8996
40766SOL    HW231267   5.582   4.403   4.858  0.2905 -1.0055  2.9541
40767SOL     OW31268   2.196   0.234   2.248 -0.4185 -0.3298 -0.2782
40767SOL    HW131269   2.190   0.278   2.164 -1.3962 -1.5055 -0.8430
40767SOL    HW231270   2.251   0.157   2.231 -0.7667 -0.6685  0.1089
40768SOL     OW31271   1.593   8.949  11.325  0.2284 -0.2343 -0.3877
40768SOL    HW131272   1.601   8.867  11.277 -1.9055 -1.5348  1.2984
40768SOL    HW231273   1.503   8.978  11.308 -0.0858  0.0440  1.5314
40769SOL     OW31274   0.151  10.748   4.295  0.5870  0.1851  0.1869
40769SOL    HW131275   0.089  10.743   4.368  1.8211  0.4395  1.2940
40769SOL    HW231276   0.171  10.656   4.275 -0.5254  0.0830 -0.5402
40770SOL     OW31277  12.290  12.539  11.522  0.3226 -0.1713 -0.1650
40770SOL    HW131278  12.363  12.508  11.469 -0.3030  0.0129 -1.1636
40770SOL    HW231279  12.231  12.581  11.459 -0.8918 -0.7869  0.5369
40771SOL     OW31280  10.751   6.086   7.670 -0.2045 -0.0212 -0.3719
40771SOL    HW131281  10.700   6.054   7.595 -0.8377 -0.4264  0.2210
40771SOL    HW231282  10.818   6.019   7.683 -1.1100 -0.7950  0.4413
40772SOL     OW31283  12.386   0.802   2.148 -0.2180  0.0206  0.4662
40772SOL    HW131284  12.470   0.825   2.188 -0.2873 -0.6390  1.0018
40772SOL    HW231285  12.387   0.846   2.063  0.0566  1.2068  1.0593
40773SOL     OW31286   8.802   6.240   9.570 -0.5197  0.0764  0.5775
40773SOL    HW131287   8.810   6.225   9.664  1.5742  1.3458  0.6631
40773SOL    HW231288   8.885   6.209   9.534 -0.5059  1.3552 -0.5858
40774SOL     OW31289  11.059   4.067  11.358  0.3629 -0.1341  0.0850
40774SOL    HW131290  10.968   4.095  11.363  0.3035  0.4436 -2.6054
40774SOL    HW231291  11.059   3.977  11.389 -0.4103  0.9353  3.6098
40775SOL     OW31292   0.615  10.873  11.099  0.0049  0.5996  0.4053
40775SOL    HW131293   0.634  10.789  11.142 -1.0845 -0.0663 -0.3533
40775SOL    HW231294   0.683  10.932  11.130  0.9348 -0.6295  0.7836
40776SOL     OW31295  10.987  12.406   9.311  0.2332 -0.1791 -0.3503
40776SOL    HW131296  11.063  12.383   9.259  1.4430 -1.0556  1.6928
40776SOL    HW231297  11.021  12.458   9.384 -1.4612  1.4647 -0.6495
40777SOL     OW31298   4.269  11.833   4.130  0.2531  0.1352 -0.7294
40777SOL    HW131299   4.318  11.798   4.204 -1.4262  0.4866  0.6153
40777SOL    HW231300   4.183  11.791   4.137 -0.4735  1.4534 -1.4913
40778SOL     OW31301   2.564  11.184  12.179 -0.0727  0.2125  0.5740
40778SOL    HW131302   2.498  11.123  12.212  0.3443 -1.2762 -1.1952
40778SOL    HW231303   2.517  11.237  12.115  0.0819  0.2853  0.5207
40779SOL     OW31304   0.383   8.387   5.186  0.1004 -0.0325  0.2963
40779SOL    HW131305   0.408   8.458   5.245  0.0783 -0.0290  0.3017
40779SOL    HW231306   0.294   8.363   5.213  0.5168 -0.8209  1.0355
40780SOL     OW31307  11.489   3.346   6.672 -0.4037 -0.1087 -0.1730
40780SOL    HW131308  11.571   3.361   6.625  0.4702 -0.7202  1.0857
40780SOL    HW231309  11.503   3.265   6.720 -1.4950  0.1423  0.6191
40781SOL     OW31310   5.731  10.926   2.063  0.2365 -0.0886  0.1123
40781SOL    HW131311   5.693  10.944   1.976  1.2154 -1.3672 -0.6072
40781SOL    HW231312   5.821  10.957   2.057  1.0403 -2.2853 -0.1623
40782SOL     OW31313   2.769   5.868   1.458  0.0322 -0.1042 -0.4584
40782SOL    HW131314   2.733   5.781   1.471  0.5764 -0.0197  2.0130
40782SOL    HW231315   2.814   5.863   1.373 -0.4041 -2.0371 -0.6141
40783SOL     OW31316   2.829   2.130   4.047  0.3521  0.2065  0.3466
40783SOL    HW131317   2.835   2.058   4.110  1.5482 -0.6945 -0.7365
40783SOL    HW231318   2.776   2.095   3.976  0.3199  0.6575  0.1467
40784SOL     OW31319  10.814  11.097  10.077  0.1493  0.2042 -0.1681
40784SOL    HW131320  10.768  11.142  10.148  1.7250 -0.0036  1.0305
40784SOL    HW231321  10.894  11.148  10.064 -0.3633  0.5837 -2.2457
40785SOL     OW31322   9.572   4.586   2.749 -0.1883  0.0515 -0.0874
40785SOL    HW131323   9.478   4.579   2.728 -0.1636  0.2336 -0.2707
40785SOL    HW231324   9.598   4.669   2.709  0.3607 -0.6428 -1.2427
40786SOL     OW31325   6.853   4.269  12.520 -0.2387  0.2590  0.6556
40786SOL    HW131326   6.890   4.347  12.478 -1.2175  0.5989  0.4136
40786SOL    HW231327   6.785   4.239  12.460 -1.5720  0.6652  1.9116
40787SOL     OW31328   1.726   6.468   2.430  0.3524 -0.1358  0.3323
40787SOL    HW131329   1.754   6.548   2.386 -0.7952 -0.7459 -1.6458
40787SOL    HW231330   1.802   6.410   2.425  1.1301  0.7341  1.6183
40788SOL     OW31331   9.211   1.088   8.604  0.1949 -0.4080  0.1897
40788SOL    HW131332   9.280   1.051   8.659  1.6255 -0.9963 -1.8853
40788SOL    HW231333   9.174   1.013   8.557  0.3753  0.2894 -1.1041
40789SOL     OW31334   9.264   8.379   1.066  0.3229 -0.2324 -0.0954
40789SOL    HW131335   9.266   8.371   0.970  1.0927  2.4270 -0.3750
40789SOL    HW231336   9.173   8.402   1.086  0.3943  0.2426 -0.3078
40790SOL     OW31337   6.570   1.010   6.743 -0.5525 -0.4036  0.4689
40790SOL    HW131338   6.598   0.983   6.656 -0.0277  0.2585  0.4240
40790SOL    HW231339   6.492   0.957   6.761 -1.3438  0.2400 -0.8785
40791SOL     OW31340   4.503   3.132   1.365  0.2206 -0.0415 -0.1852
40791SOL    HW131341   4.469   3.059   1.313  0.6666 -0.0384 -0.4820
40791SOL    HW231342   4.516   3.202   1.302  2.8393 -0.7151 -0.5041
40792SOL     OW31343   1.651  11.529   5.221  0.1666 -0.4151 -0.5676
40792SOL    HW131344   1.732  11.573   5.194 -0.7151  0.6782 -1.5498
40792SOL    HW231345   1.663  11.438   5.194  0.1673  0.1987 -2.9159
40793SOL     OW31346   2.493   5.144   3.816 -0.0505 -0.8769  0.3555
40793SOL    HW131347   2.480   5.236   3.792 -2.1852 -1.0124  0.7832
40793SOL    HW231348   2.586   5.138   3.838  0.4831  0.7950 -1.1943
40794SOL     OW31349   6.990   1.553   8.308 -0.1944 -0.6266 -0.2157
40794SOL    HW131350   7.041   1.617   8.258 -0.0135  0.0200  0.7472
40794SOL    HW231351   6.921   1.605   8.349 -0.6810 -1.2335 -0.2587
40795SOL     OW31352  11.427   4.599   8.577 -0.4494 -0.8368  0.0552
40795SOL    HW131353  11.463   4.667   8.635 -2.2736 -1.2635  1.8017
40795SOL    HW231354  11.493   4.530   8.578 -0.2980 -0.7005  1.4277
40796SOL     OW31355   9.844   9.636   8.071  0.2078 -0.3387 -0.0912
40796SOL    HW131356   9.758   9.667   8.098  1.4635  1.0872  2.6165
40796SOL    HW231357   9.845   9.544   8.096 -0.5539 -0.4027 -0.2620
40797SOL     OW31358   8.446   9.641   2.799 -0.0759  0.4483  0.6960
40797SOL    HW131359   8.468   9.559   2.842 -2.8916 -0.1597  1.1290
40797SOL    HW231360   8.371   9.620   2.743  1.5921  1.8588 -2.3605
40798SOL     OW31361   0.245   6.334   7.025 -0.9534  0.0440 -0.2548
40798SOL    HW131362   0.275   6.375   6.944 -0.2218 -1.2987 -0.6875
40798SOL    HW231363   0.313   6.270   7.047 -0.7579  0.8735  1.8377
40799SOL     OW31364  10.296   5.708   2.792  0.2743 -0.8027  0.0451
40799SOL    HW131365  10.250   5.790   2.809  1.1584 -0.7054  2.3336
40799SOL    HW231366  10.229   5.651   2.753 -1.3150 -0.0812  1.5718
40800SOL     OW31367   7.567  11.325   4.324 -0.0210 -0.1777 -0.3193
40800SOL    HW131368   7.611  11.247   4.359 -1.4423 -0.7499  0.2693
40800SOL    HW231369   7.583  11.393   4.390  0.5387 -0.1862 -0.4408
40801SOL     OW31370   5.965   9.583  11.411  0.1659  0.3512 -0.2271
40801SOL    HW131371   5.994   9.657  11.358  1.8876 -0.6847 -0.7919
40801SOL    HW231372   6.040   9.560  11.466 -0.8777  0.0421  1.1425
40802SOL     OW31373  11.690   2.507   1.320 -0.0428 -0.3525 -0.0025
40802SOL    HW131374  11.759   2.543   1.376  1.1317  1.1426 -2.2265
40802SOL    HW231375  11.629   2.579   1.308  1.2660  0.4249 -2.8768
40803SOL     OW31376   3.170   9.668   7.965 -0.2762  0.5619  0.4275
40803SOL    HW131377   3.161   9.607   8.039  0.2991  0.5005  0.4508
40803SOL    HW231378   3.187   9.753   8.006 -2.2903  1.0072  0.4433
40804SOL     OW31379   6.734   4.843  12.339 -0.0503 -1.0541 -0.3952
40804SOL    HW131380   6.705   4.882  12.422 -0.7469  0.9522 -1.5116
40804SOL    HW231381   6.825   4.818  12.355  0.2881  0.6298  0.5612
40805SOL     OW31382   6.886  12.169   8.397 -0.2794 -0.1842 -0.2362
40805SOL    HW131383   6.819  12.221   8.441  1.8723  2.2991  0.3983
40805SOL    HW231384   6.960  12.168   8.458  2.1140  1.6808 -2.7992
40806SOL     OW31385  11.282   9.659   9.261 -0.2937  0.9165 -0.2863
40806SOL    HW131386  11.331   9.628   9.185 -0.5573  0.3524 -0.2325
40806SOL    HW231387  11.320   9.611   9.335 -1.8012 -0.5559 -0.4173
40807SOL     OW31388   5.485  11.994  10.276  0.3484 -0.3607  0.1177
40807SOL    HW131389   5.559  12.051  10.297  0.0937 -0.1070  0.3282
40807SOL    HW231390   5.497  11.973  10.183 -0.6634  1.7146 -0.5587
40808SOL     OW31391  10.694   8.579   8.497  0.1825 -0.3447  0.0289
40808SOL    HW131392  10.645   8.595   8.578  0.2856  0.1680 -0.0067
40808SOL    HW231393  10.770   8.528   8.525  1.1491  1.3160  0.5528
40809SOL     OW31394   0.704   1.565   4.929  0.3870 -0.2262  0.3700
40809SOL    HW131395   0.614   1.594   4.916 -0.7072 -1.3940  4.2581
40809SOL    HW231396   0.712   1.485   4.876 -0.6505  0.1475 -0.3814
40810SOL     OW31397   6.153  12.473   0.052 -0.2015  0.4085  0.2280
40810SOL    HW131398   6.138  12.437   0.139 -0.6971 -0.7119 -0.3069
40810SOL    HW231399   6.085  12.434  -0.003 -0.0676  1.3134 -0.6137
40811SOL     OW31400   1.921   8.252   2.349 -0.4065 -0.0848 -1.0537
40811SOL    HW131401   2.016   8.250   2.361 -0.6325 -0.3519  1.2072
40811SOL    HW231402   1.904   8.336   2.305  0.6394  2.1467  2.3557
40812SOL     OW31403   7.354   8.472  11.081 -0.3309 -0.3299  0.3605
40812SOL    HW131404   7.334   8.379  11.083 -1.7018 -0.1116 -1.1962
40812SOL    HW231405   7.321   8.502  10.996  0.7149  1.4363  0.5354
40813SOL     OW31406   4.007   6.865   1.943  0.1180 -0.0744 -0.2056
40813SOL    HW131407   4.025   6.812   2.021 -0.6589  0.3631  0.2766
40813SOL    HW231408   3.918   6.840   1.918 -0.1694  0.8374 -0.1078
40814SOL     OW31409   2.632  11.724   4.923 -0.3839 -0.5160 -0.0052
40814SOL    HW131410   2.588  11.798   4.964 -0.0913 -0.5904  0.4509
40814SOL    HW231411   2.572  11.650   4.936 -0.8570 -0.2802 -0.8109
40815SOL     OW31412   8.353   2.937   2.846  0.2032  0.3211  0.4184
40815SOL    HW131413   8.383   3.000   2.781 -0.5974  0.3096  0.0171
40815SOL    HW231414   8.416   2.865   2.841 -0.3233 -0.0724 -0.9779
40816SOL     OW31415   9.425  11.961   3.667 -0.3089 -0.5530  0.4700
40816SOL    HW131416   9.442  11.906   3.743  0.3930 -2.0814 -0.7453
40816SOL    HW231417   9.366  11.909   3.612 -0.6080  0.4200 -0.1594
40817SOL     OW31418   3.914   5.878   2.419  0.5137  0.5531  0.3980
40817SOL    HW131419   3.947   5.905   2.505  0.2146 -1.3252  1.1530
40817SOL    HW231420   3.992   5.870   2.365  0.6741  2.0785  0.3826
40818SOL     OW31421   3.555   2.736   3.152 -0.0480 -0.2249  0.2875
40818SOL    HW131422   3.641   2.768   3.179 -0.2015 -0.1042  0.6287
40818SOL    HW231423   3.495   2.807   3.173 -0.0043  0.4112 -1.5403
40819SOL     OW31424   0.464   9.410   1.133 -0.2315 -0.0873  0.4436
40819SOL    HW131425   0.395   9.475   1.120 -0.3578 -0.0093  1.4568
40819SOL    HW231426   0.544   9.461   1.144 -0.3105 -0.1057  1.1154
40820SOL     OW31427  10.301   2.458   9.278 -0.1884  0.1226 -0.3712
40820SOL    HW131428  10.319   2.515   9.203 -0.9645  1.6554  0.5579
40820SOL    HW231429  10.301   2.517   9.353 -0.7449 -1.1689  0.6671
40821SOL     OW31430  10.052   4.160   9.297 -0.4519  0.7612  0.2979
40821SOL    HW131431  10.042   4.232   9.234 -1.5819 -0.0417 -0.4773
40821SOL    HW231432  10.015   4.084   9.253 -0.9069  0.0776  1.7779
40822SOL     OW31433   7.617   8.658   2.120  0.3248 -0.3228  0.0918
40822SOL    HW131434   7.684   8.721   2.096  1.1107 -1.9839 -2.4422
40822SOL    HW231435   7.632   8.641   2.213  0.2564  2.8708  0.8190
40823SOL     OW31436   4.531  11.790   2.174  0.1270  0.1174 -0.2396
40823SOL    HW131437   4.607  11.847   2.164  0.6054 -0.5711 -0.5559
40823SOL    HW231438   4.530  11.768   2.267  0.1068  0.4195 -0.1694
40824SOL     OW31439   5.923   1.654   4.449 -0.0223  0.4044  0.0236
40824SOL    HW131440   5.982   1.647   4.374  0.3618 -2.3033  0.4888
40824SOL    HW231441   5.980   1.673   4.523 -0.2519  1.7551 -0.1185
40825SOL     OW31442   7.385   7.594  12.409 -0.2204 -0.5820  0.7468
40825SOL    HW131443   7.398   7.545  12.491  0.1395  0.2169  1.1774
40825SOL    HW231444   7.458   7.655  12.406  0.1385 -1.0569 -0.5200
40826SOL     OW31445  12.488   6.150  11.141  0.4198 -0.1010 -0.1210
40826SOL    HW131446  12.394   6.133  11.132  0.4429 -0.0087 -0.5485
40826SOL    HW231447  12.526   6.065  11.161  0.2694 -0.1718 -0.1327
40827SOL     OW31448   8.468   6.515   2.154  0.1259  0.3298  0.1779
40827SOL    HW131449   8.394   6.475   2.109 -0.6307  0.0932  1.5810
40827SOL    HW231450   8.428   6.564   2.226  1.2807  0.9056  0.4420
40828SOL     OW31451   3.006   1.755  10.730 -0.2241  0.4236 -0.5052
40828SOL    HW131452   2.956   1.819  10.680  0.5502  0.2547 -1.5275
40828SOL    HW231453   2.950   1.734  10.805 -1.0014  1.3843 -0.7982
40829SOL     OW31454   9.712   2.406   0.344 -0.4237 -0.1271 -0.6201
40829SOL    HW131455   9.763   2.446   0.274 -0.6388 -0.0137 -0.7121
40829SOL    HW231456   9.769   2.337   0.378  1.7607  2.7990  2.3169
40830SOL     OW31457   6.154  11.762  10.054  0.2619  0.1027 -0.4610
40830SOL    HW131458   6.222  11.706  10.092  0.4365 -0.3203 -1.3688
40830SOL    HW231459   6.188  11.784   9.967 -0.7457 -0.0771 -0.9094
40831SOL     OW31460  11.434  10.559   2.036  0.4877 -0.1425  0.1792
40831SOL    HW131461  11.522  10.579   2.068  1.4496 -1.2961 -1.6443
40831SOL    HW231462  11.376  10.587   2.108  2.2829  0.9657  1.2696
40832SOL     OW31463  10.257   9.731   5.336 -0.0072  0.2159 -0.3324
40832SOL    HW131464  10.191   9.774   5.282  1.2407 -0.7137 -2.7789
40832SOL    HW231465  10.241   9.637   5.324  1.2025 -0.0223 -0.3015
40833SOL     OW31466   8.364   6.370   3.774  0.0839  0.4648  0.4201
40833SOL    HW131467   8.424   6.407   3.838  0.6717  0.6280 -0.2147
40833SOL    HW231468   8.321   6.298   3.820  2.5147 -1.2535  0.1702
40834SOL     OW31469   8.717   7.491   9.547 -0.1225 -0.1287 -0.1513
40834SOL    HW131470   8.808   7.520   9.545  0.2328 -1.2268 -1.0283
40834SOL    HW231471   8.721   7.402   9.582 -0.8581 -0.1800 -0.1877
40835SOL     OW31472   4.806   2.083   1.432 -0.3093  0.0172  0.1057
40835SOL    HW131473   4.765   1.997   1.424 -0.2043 -0.2360  1.9213
40835SOL    HW231474   4.876   2.082   1.366  1.7034 -2.5271  2.1023
40836SOL     OW31475  10.188   6.300   3.376  0.0645  0.1293  0.2383
40836SOL    HW131476  10.248   6.229   3.400  1.1678  0.9548  0.0181
40836SOL    HW231477  10.226   6.378   3.416 -1.7752  0.4448  1.4883
40837SOL     OW31478  11.736   0.766   4.020  0.2562  0.7230  0.1189
40837SOL    HW131479  11.704   0.785   3.932  2.6272  2.1791 -0.5328
40837SOL    HW231480  11.812   0.709   4.006  0.3416  0.5397  1.2456
40838SOL     OW31481   5.495   9.088  11.086 -0.7268  0.3597 -0.2475
40838SOL    HW131482   5.563   9.035  11.127 -0.6811 -1.5423 -2.5902
40838SOL    HW231483   5.437   9.113  11.159 -0.4152 -2.4121  1.0895
40839SOL     OW31484   6.523   3.546   3.210 -0.1447 -0.0437  0.6678
40839SOL    HW131485   6.514   3.633   3.172  0.7071  0.0535  0.6750
40839SOL    HW231486   6.612   3.543   3.244  1.1889 -2.1177 -2.4781
40840SOL     OW31487   4.599   6.426   2.895 -0.1835  0.5655  0.4026
40840SOL    HW131488   4.584   6.332   2.885  0.7624  0.3268  1.0161
40840SOL    HW231489   4.543   6.467   2.830 -0.6113 -0.4261  0.1305
40841SOL     OW31490   6.539   0.759   7.685  0.5337 -0.5014  0.1497
40841SOL    HW131491   6.531   0.782   7.592 -1.4525 -1.6295 -0.0146
40841SOL    HW231492   6.498   0.831   7.732  1.3335 -0.0408  0.1632
40842SOL     OW31493   9.623   0.654   0.756 -0.2311 -0.8952  0.0201
40842SOL    HW131494   9.595   0.565   0.733  0.9700 -0.9743 -1.2817
40842SOL    HW231495   9.708   0.643   0.799 -0.8029 -0.4596  1.3319
40843SOL     OW31496   9.700   9.557  10.124  0.6362 -0.2950  0.2347
40843SOL    HW131497   9.688   9.570  10.030  1.9915 -1.9230 -0.2087
40843SOL    HW231498   9.789   9.585  10.141  0.2853  0.3284  1.1305
40844SOL     OW31499   1.706   7.699   2.702  0.2883 -0.4145 -0.0967
40844SOL    HW131500   1.735   7.720   2.613  2.8591  1.2337  1.0038
40844SOL    HW231501   1.724   7.605   2.712  3.0547  0.0005 -0.3745
40845SOL     OW31502   8.307   7.176   2.905  0.5485 -0.9013  0.1798
40845SOL    HW131503   8.274   7.164   2.994  1.6319 -1.0926  0.5776
40845SOL    HW231504   8.366   7.251   2.911 -0.5187  0.0458 -0.7183
40846SOL     OW31505  11.801   2.067   4.984  0.5694  0.4472 -0.4024
40846SOL    HW131506  11.847   2.093   4.904 -1.6493 -0.9324 -2.2448
40846SOL    HW231507  11.750   1.990   4.959 -0.2300 -0.0620  2.3812
40847SOL     OW31508   8.011   2.530  11.799  0.2224 -0.0630  0.0351
40847SOL    HW131509   8.007   2.443  11.839 -1.2681  1.2500  3.0576
40847SOL    HW231510   8.092   2.529  11.748 -0.1797 -3.4480 -0.7925
40848SOL     OW31511   9.377   9.409   1.942  0.2588  0.4600  0.3812
40848SOL    HW131512   9.333   9.327   1.962 -0.1079  0.8239  1.0981
40848SOL    HW231513   9.465   9.398   1.978  0.4275  0.1374 -0.1153
40849SOL     OW31514   5.691   4.675   3.847  0.1592 -0.6728 -0.0653
40849SOL    HW131515   5.720   4.708   3.762 -0.6006 -0.6881 -0.3345
40849SOL    HW231516   5.618   4.731   3.871  2.5317  1.7422  2.2917
40850SOL     OW31517   8.303   1.534   1.412  0.3827  0.1454  0.1236
40850SOL    HW131518   8.223   1.530   1.359  0.0698  1.1384  0.4900
40850SOL    HW231519   8.287   1.474   1.484 -0.2263  0.6455  0.4229
40851SOL     OW31520   5.901  12.494   6.656  0.5266 -0.5738  0.6613
40851SOL    HW131521   5.929  12.499   6.747  0.3085 -1.8439  0.8072
40851SOL    HW231522   5.983  12.497   6.606  0.7128 -0.9006  0.9425
40852SOL     OW31523   7.808   3.473   8.264 -0.0106 -0.5490 -0.4245
40852SOL    HW131524   7.854   3.487   8.182 -2.1403  1.6998 -1.3478
40852SOL    HW231525   7.877   3.460   8.329  1.7670 -0.6771 -2.2617
40853SOL     OW31526   9.589  11.274   2.924 -0.1108 -0.2862  0.0534
40853SOL    HW131527   9.546  11.191   2.944  0.7820 -0.7401  0.1315
40853SOL    HW231528   9.619  11.264   2.834 -1.2158  0.4946 -0.4244
40854SOL     OW31529  10.987   9.250   8.650 -0.1145 -0.2029 -0.8897
40854SOL    HW131530  10.960   9.194   8.722  0.7879  1.1352  0.5456
40854SOL    HW231531  10.924   9.322   8.650  1.8853  1.7030  0.9785
40855SOL     OW31532   7.577   5.228   1.626 -0.1784 -0.3068 -0.1324
40855SOL    HW131533   7.633   5.275   1.564  0.1118  1.9651  1.7142
40855SOL    HW231534   7.494   5.217   1.580  0.0050  1.3571 -0.9185
40856SOL     OW31535  11.344   8.832   1.077  0.9821 -0.3912 -0.6798
40856SOL    HW131536  11.257   8.852   1.042 -0.5235 -2.2452  1.6567
40856SOL    HW231537  11.385   8.917   1.090 -1.5810  0.7764  0.6202
40857SOL     OW31538   7.631   2.227   5.893  1.1090 -0.1798  0.2094
40857SOL    HW131539   7.705   2.287   5.886  0.9973  0.3078  2.4551
40857SOL    HW231540   7.625   2.206   5.986 -1.8224  0.1400  0.2103
40858SOL     OW31541   9.297   8.082  12.453 -0.2640  0.5229 -0.0615
40858SOL    HW131542   9.261   8.102  12.539 -1.8931  0.0302 -0.5996
40858SOL    HW231543   9.288   7.987  12.444  1.3645  0.3508 -0.1579
40859SOL     OW31544   2.983   5.136   1.462 -0.3009 -0.2628  0.0626
40859SOL    HW131545   2.933   5.088   1.529 -0.5724 -1.3026 -0.8576
40859SOL    HW231546   3.074   5.127   1.489 -0.4542 -0.0546  0.6757
40860SOL     OW31547   5.231   1.277   9.545  0.6248 -0.0027 -0.0068
40860SOL    HW131548   5.213   1.345   9.609 -0.6224 -1.5260  1.3687
40860SOL    HW231549   5.284   1.213   9.593  1.3747 -0.2508 -1.1236
40861SOL     OW31550   4.464   8.250   5.547 -0.8165  0.2151  0.4419
40861SOL    HW131551   4.466   8.180   5.481  0.1581  0.0451  0.6411
40861SOL    HW231552   4.372   8.277   5.550 -1.0248 -0.3648 -0.3656
40862SOL     OW31553   2.843   6.048   5.227  0.7739  0.1244  1.3028
40862SOL    HW131554   2.754   6.076   5.205  1.3263  0.5555 -0.5755
40862SOL    HW231555   2.899   6.115   5.189  1.9439 -0.5762  1.7406
40863SOL     OW31556   3.542   3.373   9.046 -0.0425  0.0130  0.6365
40863SOL    HW131557   3.474   3.350   9.109 -2.0394  0.3043 -1.2839
40863SOL    HW231558   3.577   3.289   9.015 -0.2778 -0.1643  0.8573
40864SOL     OW31559  11.125  12.148   8.544 -0.4344 -0.3361 -0.2146
40864SOL    HW131560  11.053  12.186   8.495 -1.0215 -2.6117 -1.2841
40864SOL    HW231561  11.107  12.054   8.544  2.0776 -0.9058  0.2150
40865SOL     OW31562  12.220   6.825  11.487  0.5094  0.4277  0.1672
40865SOL    HW131563  12.217   6.756  11.420 -1.8487  0.1656  0.4545
40865SOL    HW231564  12.266   6.784  11.561  1.3834  0.0469 -0.5689
40866SOL     OW31565  12.406   6.239   5.651 -0.1452  0.1841 -0.5503
40866SOL    HW131566  12.351   6.270   5.723  0.6831  0.9110 -0.2212
40866SOL    HW231567  12.398   6.143   5.655  0.2062  0.1937  0.7647
40867SOL     OW31568   8.875   0.620   7.074  0.4928  0.1752 -0.0527
40867SOL    HW131569   8.915   0.609   6.988  0.3987  0.6421 -0.1597
40867SOL    HW231570   8.792   0.665   7.056 -0.3970 -1.3401  0.0996
40868SOL     OW31571   2.952   4.174   4.061 -0.3288 -0.6125  0.6020
40868SOL    HW131572   2.880   4.154   4.120 -0.9794 -0.8982 -0.2666
40868SOL    HW231573   2.936   4.119   3.984  0.1673  0.1996 -0.0932
40869SOL     OW31574   6.935   3.917   9.689 -0.0622  0.2427  0.3736
40869SOL    HW131575   6.890   3.844   9.646 -1.3068  1.1236  0.1286
40869SOL    HW231576   6.985   3.960   9.620 -1.0065  0.8646  0.0611
40870SOL     OW31577   1.224  10.033   1.926 -0.2112 -0.2345  0.0328
40870SOL    HW131578   1.163  10.106   1.933 -0.7681 -0.8108  1.9046
40870SOL    HW231579   1.305  10.072   1.896 -0.8636  0.9275 -0.2789
40871SOL     OW31580   1.319  10.031   9.093 -0.2192 -0.0133 -0.3899
40871SOL    HW131581   1.395  10.086   9.076  0.6377 -0.5011  1.6525
40871SOL    HW231582   1.257  10.088   9.139  0.5388 -0.6017  1.4388
40872SOL     OW31583   8.842   9.413   4.432  0.0783  0.0919 -0.0278
40872SOL    HW131584   8.787   9.449   4.502  0.2638  0.0726  0.1320
40872SOL    HW231585   8.817   9.462   4.354  0.9883  1.2472  0.3776
40873SOL     OW31586   8.068  11.369   5.176 -0.0921  0.6653  0.1549
40873SOL    HW131587   8.017  11.403   5.102  2.8887 -0.1322 -2.4685
40873SOL    HW231588   8.093  11.448   5.225 -0.1587  1.4878 -1.0768
40874SOL     OW31589   4.631   6.395   0.877 -0.1289  0.0281  0.2169
40874SOL    HW131590   4.686   6.473   0.881  1.3966 -1.0391  3.2795
40874SOL    HW231591   4.542   6.429   0.873  0.5577  1.8541 -0.8241
40875SOL     OW31592   1.560   0.619  11.001  0.2261  0.2495 -0.0504
40875SOL    HW131593   1.530   0.620  10.910  1.0804 -1.0262 -0.3680
40875SOL    HW231594   1.480   0.627  11.052 -0.3652 -0.0136 -0.9084
40876SOL     OW31595   2.744   0.410   3.918 -0.0700 -0.1369  0.3287
40876SOL    HW131596   2.690   0.457   3.855  1.4874 -1.4185 -2.1313
40876SOL    HW231597   2.833   0.441   3.902  0.6163 -1.8516  0.5869
40877SOL     OW31598   7.184   7.989  11.011 -0.1663  0.5536  0.0450
40877SOL    HW131599   7.207   7.908  10.965  2.3159  0.0736  1.9265
40877SOL    HW231600   7.097   7.971  11.048 -1.1235  0.0629 -2.2717
40878SOL     OW31601   8.944  12.563   7.399 -0.4071 -0.1971  0.2303
40878SOL    HW131602   8.905  12.650   7.399 -2.3776 -1.0359 -0.1773
40878SOL    HW231603   8.905  12.519   7.324  3.7168 -0.1653 -2.2252
40879SOL     OW31604  11.465   5.131   3.505 -0.0102 -0.1876  0.7308
40879SOL    HW131605  11.488   5.044   3.473 -1.2853  0.2836 -1.7092
40879SOL    HW231606  11.375   5.123   3.535 -0.6368  0.5477 -0.8377
40880SOL     OW31607  11.124  10.022   3.928  0.1679 -0.2840  0.1593
40880SOL    HW131608  11.171   9.939   3.926 -0.3385 -0.6198  1.1844
40880SOL    HW231609  11.189  10.087   3.900  0.4239 -1.0769 -1.1260
40881SOL     OW31610  11.260   7.887  10.456 -0.4620 -0.7685  0.0111
40881SOL    HW131611  11.231   7.799  10.430  0.6632 -0.5971 -2.0783
40881SOL    HW231612  11.180   7.939  10.456 -0.8270 -1.2968 -1.0994
40882SOL     OW31613   2.824   0.732   0.072 -0.1354 -0.1621  0.4032
40882SOL    HW131614   2.801   0.798   0.006  1.1123 -1.0056 -0.9192
40882SOL    HW231615   2.827   0.781   0.154  1.5897  1.6480 -0.6496
40883SOL     OW31616  12.280   5.902   2.465 -0.3815 -0.8304 -0.3460
40883SOL    HW131617  12.306   5.884   2.375 -2.1208 -0.7298 -0.8998
40883SOL    HW231618  12.292   5.819   2.511  0.9548 -0.7605 -0.5362
40884SOL     OW31619   2.325  12.205   1.411  0.0125  0.2019  0.0562
40884SOL    HW131620   2.325  12.159   1.327 -0.3605  1.2163 -0.5174
40884SOL    HW231621   2.282  12.144   1.472  0.2852 -0.5389 -0.4826
40885SOL     OW31622   7.565   9.464   8.408  0.1036 -0.0176  0.0961
40885SOL    HW131623   7.649   9.502   8.433 -0.1417  0.1652  0.6477
40885SOL    HW231624   7.580   9.427   8.321  0.6232  0.4273 -0.0017
40886SOL     OW31625   2.070   1.161   6.734  0.7791  0.3043 -0.1406
40886SOL    HW131626   2.004   1.222   6.769 -0.5481 -1.6218  0.8938
40886SOL    HW231627   2.060   1.167   6.639 -1.1327 -0.1155 -0.0145
40887SOL     OW31628  11.441   1.701   6.697  0.0637  0.5243  0.0495
40887SOL    HW131629  11.402   1.781   6.731 -1.7940  0.5619 -1.9649
40887SOL    HW231630  11.418   1.634   6.762 -0.1695  1.2379  0.7130
40888SOL     OW31631   1.094   9.977  12.027 -0.1380  0.0282  0.1183
40888SOL    HW131632   1.123   9.976  12.119 -1.2901  1.2375  0.5298
40888SOL    HW231633   1.166  10.020  11.980 -0.4969  1.5061  0.8532
40889SOL     OW31634   9.462   0.537   4.961  0.2804 -0.6699 -0.5571
40889SOL    HW131635   9.523   0.528   5.034  0.0146 -1.6996 -0.4387
40889SOL    HW231636   9.489   0.469   4.899  1.0776  0.7765 -1.8610
40890SOL     OW31637   7.673   4.957  11.789 -0.0890 -0.1383 -0.0362
40890SOL    HW131638   7.631   4.961  11.875  1.6573 -2.9480  1.0881
40890SOL    HW231639   7.766   4.947  11.809  0.6239  1.1985 -2.3465
40891SOL     OW31640  10.523  10.160  12.312  0.0726  0.3692 -0.3014
40891SOL    HW131641  10.430  10.180  12.298  0.2978  2.1582  0.5102
40891SOL    HW231642  10.550  10.218  12.383  1.2874 -1.7126  1.0373
40892SOL     OW31643   9.829   3.221  10.445  0.1912 -0.2553 -0.2666
40892SOL    HW131644   9.842   3.238  10.352 -0.4610 -0.3870 -0.3851
40892SOL    HW231645   9.907   3.257  10.487  1.0529 -1.2101 -0.9715
40893SOL     OW31646   3.769   6.440  10.596 -0.0278  0.1900 -0.0017
40893SOL    HW131647   3.853   6.451  10.551  0.5706  0.6748  1.2084
40893SOL    HW231648   3.791   6.436  10.689 -1.2717 -0.5738  0.2796
40894SOL     OW31649   3.690  11.774  11.294 -0.2386 -0.1458  0.0601
40894SOL    HW131650   3.721  11.710  11.230 -0.3553 -0.9235  0.7567
40894SOL    HW231651   3.609  11.737  11.328 -0.8839  0.9069 -0.2977
40895SOL     OW31652   6.254   9.004  12.570  0.4345 -0.4508 -0.2142
40895SOL    HW131653   6.252   9.057  12.491  0.6706  1.0038  0.7017
40895SOL    HW231654   6.319   8.936  12.552  0.9104  0.2089 -1.0717
40896SOL     OW31655   8.306   2.831   5.429  0.1860  0.6130  0.4067
40896SOL    HW131656   8.270   2.893   5.365  0.2897 -0.3035 -0.5792
40896SOL    HW231657   8.394   2.864   5.447 -0.6220  2.1215  1.8097
40897SOL     OW31658   1.863   2.531   2.443  0.1535  0.6079 -0.1974
40897SOL    HW131659   1.899   2.620   2.449  0.9941  0.3471 -1.1001
40897SOL    HW231660   1.828   2.526   2.354  0.2931 -0.0302 -0.2177
40898SOL     OW31661  11.768   9.756   6.730 -0.8612 -0.0375  0.3705
40898SOL    HW131662  11.779   9.769   6.636 -1.6968 -0.7453  0.1587
40898SOL    HW231663  11.839   9.697   6.754  0.1980  1.2398  0.4709
40899SOL     OW31664   6.339   1.619   1.921  0.1331 -0.0558  0.1800
40899SOL    HW131665   6.257   1.669   1.919 -0.2664 -0.6730 -2.1486
40899SOL    HW231666   6.367   1.623   2.012 -1.9848  0.9715  0.8631
40900SOL     OW31667   7.200   4.202   0.437 -0.1079  0.0552  0.3577
40900SOL    HW131668   7.273   4.197   0.375  0.3132  0.9792  0.7609
40900SOL    HW231669   7.191   4.114   0.472  0.7029 -0.1039  0.1720
40901SOL     OW31670   8.879   5.912   9.964  0.2586  0.3678 -0.1537
40901SOL    HW131671   8.903   5.820   9.971  0.7007  0.4566 -0.4830
40901SOL    HW231672   8.946   5.958  10.016  0.8874  0.6277 -1.1711
40902SOL     OW31673  11.535   1.620   8.009 -0.6087  0.1023  0.5463
40902SOL    HW131674  11.526   1.669   8.091  0.1706  0.2755  0.5340
40902SOL    HW231675  11.629   1.612   7.995 -0.7263  0.1084 -0.3528
40903SOL     OW31676   8.881  10.721   5.171  0.0106  0.0258  0.1997
40903SOL    HW131677   8.787  10.712   5.157  0.0871  1.2663 -1.4363
40903SOL    HW231678   8.889  10.764   5.256 -0.7532 -2.1981  1.4971
40904SOL     OW31679   7.557   2.235   1.025  0.2147  0.1576  0.0407
40904SOL    HW131680   7.573   2.273   1.112 -0.6545 -0.1315  0.3322
40904SOL    HW231681   7.538   2.143   1.042 -1.1027  0.3396 -0.3386
40905SOL     OW31682   0.801   3.129   2.888 -0.1350 -0.4585 -0.4877
40905SOL    HW131683   0.856   3.051   2.893  0.4468 -0.0331 -0.0272
40905SOL    HW231684   0.856   3.199   2.924 -0.4787  0.2586 -1.3117
40906SOL     OW31685   9.635   0.666   2.477  0.1404  0.1580 -0.4707
40906SOL    HW131686   9.590   0.666   2.393  1.1570  1.6189 -1.0536
40906SOL    HW231687   9.725   0.641   2.455 -0.1180 -1.8495  0.5451
40907SOL     OW31688   8.951   4.904   3.619  0.5087  0.3450 -0.5354
40907SOL    HW131689   8.901   4.842   3.565  1.6147 -1.7112  0.6986
40907SOL    HW231690   8.979   4.853   3.695  2.8774  1.9102 -0.2535
40908SOL     OW31691   0.611   5.253   7.290 -0.0443  0.0705 -0.3747
40908SOL    HW131692   0.531   5.265   7.240 -0.9905  1.0126  1.2869
40908SOL    HW231693   0.591   5.182   7.351  0.9956 -0.8796 -1.0946
40909SOL     OW31694   0.837   1.625   5.151  0.3635 -0.0697 -0.2047
40909SOL    HW131695   0.819   1.626   5.057  1.0870  1.5264 -0.3505
40909SOL    HW231696   0.771   1.682   5.189  0.1875 -0.5681  0.2479
40910SOL     OW31697   6.134   9.651   2.834  0.1385 -0.6355  0.0019
40910SOL    HW131698   6.072   9.710   2.791 -1.3048 -0.0684  2.6346
40910SOL    HW231699   6.168   9.701   2.908  2.5442 -1.5290 -0.3958
40911SOL     OW31700   8.355   4.530   5.152 -0.5244 -0.6261  0.2834
40911SOL    HW131701   8.397   4.484   5.080 -0.6057 -1.3588  0.6933
40911SOL    HW231702   8.262   4.533   5.128 -0.7608 -2.0255  0.9433
40912SOL     OW31703   0.999   0.711   9.342 -0.0498  0.6270  0.4714
40912SOL    HW131704   0.929   0.692   9.279 -0.7901  1.0223  1.1577
40912SOL    HW231705   0.957   0.704   9.427  0.3624  2.3820  0.8572
40913SOL     OW31706   5.134   9.571  11.338  0.1638  0.2210  0.4227
40913SOL    HW131707   5.102   9.495  11.290  2.7541 -1.9281  1.8538
40913SOL    HW231708   5.103   9.559  11.427 -0.2991  1.4710  0.4554
40914SOL     OW31709   8.392   4.069   9.498 -0.8298  0.1033 -0.4232
40914SOL    HW131710   8.469   4.025   9.461 -1.3034 -2.9471  1.8040
40914SOL    HW231711   8.320   4.042   9.441 -0.7024  0.5203 -0.7906
40915SOL     OW31712   4.506  10.917  11.691 -0.5443 -0.3715  0.1029
40915SOL    HW131713   4.561  10.953  11.761 -1.8048  0.5789  0.6307
40915SOL    HW231714   4.473  10.834  11.726 -0.4988 -0.3106  0.2875
40916SOL     OW31715   0.200  12.118  10.955 -0.2539 -0.4645 -0.4621
40916SOL    HW131716   0.284  12.074  10.969 -1.0599 -1.6554  0.8810
40916SOL    HW231717   0.172  12.089  10.868  0.1703 -1.0168 -0.4204
40917SOL     OW31718   1.937  12.064   7.673  0.4505 -0.1424 -0.3727
40917SOL    HW131719   1.867  12.123   7.646  0.3053  0.3665  1.0030
40917SOL    HW231720   1.905  11.977   7.648  0.1393  0.2410 -1.3584
40918SOL     OW31721   1.579   2.596  12.361 -0.3234 -0.1587 -0.1651
40918SOL    HW131722   1.539   2.602  12.275  0.1695 -0.4427 -0.4161
40918SOL    HW231723   1.550   2.511  12.395 -1.5667  0.4925  0.4913
40919SOL     OW31724  12.180   5.935   1.938  0.5875  0.3025 -0.2569
40919SOL    HW131725  12.175   6.017   1.888  0.6819  0.8561  0.6295
40919SOL    HW231726  12.245   5.883   1.890  1.7105  1.3778  0.0518
40920SOL     OW31727   1.879  10.384  11.284  0.1396 -0.5165 -0.6984
40920SOL    HW131728   1.969  10.413  11.271 -0.0191  0.2097 -0.2114
40920SOL    HW231729   1.882  10.331  11.364  0.3624 -1.6066 -1.3934
40921SOL     OW31730   9.717  11.153   1.974 -0.6238 -0.2530  0.1068
40921SOL    HW131731   9.759  11.236   1.952 -1.1612 -0.6551 -2.7280
40921SOL    HW231732   9.649  11.177   2.036  0.5933  1.0791  0.9992
40922SOL     OW31733   6.900   3.545   7.639  0.2899 -0.1303  0.1638
40922SOL    HW131734   6.952   3.599   7.580  0.5149  0.7934  1.1897
40922SOL    HW231735   6.906   3.457   7.602 -0.6250  0.6066 -1.9177
40923SOL     OW31736   7.631   3.742  12.056  0.0430 -0.0694  0.7369
40923SOL    HW131737   7.575   3.682  12.106  0.2293 -0.6553  0.2513
40923SOL    HW231738   7.606   3.829  12.087  0.8477 -0.4504  2.5834
40924SOL     OW31739   6.720  11.183   7.063 -0.3683  0.8077  0.3528
40924SOL    HW131740   6.675  11.193   6.978  1.2908 -2.5589 -1.1103
40924SOL    HW231741   6.660  11.129   7.115 -0.4275  1.0422  0.5321
40925SOL     OW31742   5.803   2.365   0.679  0.0226 -0.0689  0.1485
40925SOL    HW131743   5.764   2.437   0.729  1.0845  1.4838 -1.1481
40925SOL    HW231744   5.820   2.403   0.593  0.9889 -1.7779 -0.4541
40926SOL     OW31745  11.628  11.433   0.734 -0.0419  0.0715  0.0465
40926SOL    HW131746  11.683  11.481   0.796 -1.1097 -0.0957  1.1676
40926SOL    HW231747  11.539  11.443   0.768 -0.6075 -0.3929 -1.2331
40927SOL     OW31748   6.644   9.722   9.795  0.0223 -0.2484  0.3974
40927SOL    HW131749   6.649   9.643   9.742 -0.6648  1.3360 -2.1778
40927SOL    HW231750   6.687   9.698   9.878  0.9755 -2.8959 -0.7639
40928SOL     OW31751   6.459   0.206  10.848 -0.3784 -0.2967  0.4311
40928SOL    HW131752   6.449   0.246  10.762 -2.2788  0.4942  0.9612
40928SOL    HW231753   6.384   0.146  10.855 -0.5358  0.0224  1.7044
40929SOL     OW31754   5.318   3.546   9.813  0.3671  0.0172  0.1577
40929SOL    HW131755   5.403   3.580   9.785  1.0121 -0.6384  1.2577
40929SOL    HW231756   5.333   3.514   9.902 -1.3426  1.0165  0.8459
40930SOL     OW31757   1.139   7.736   2.590 -0.1381  0.6557  0.5513
40930SOL    HW131758   1.222   7.764   2.552 -0.4872  1.2643  0.2237
40930SOL    HW231759   1.095   7.818   2.616 -0.3861  0.3122  1.2545
40931SOL     OW31760   5.161   2.929   0.591 -0.0994 -0.0985  0.1257
40931SOL    HW131761   5.138   2.895   0.678  0.3230  1.0460  0.7124
40931SOL    HW231762   5.255   2.911   0.583  0.4346  1.9739  0.9974
40932SOL     OW31763   3.403  12.144  12.033 -0.6359 -0.7589 -0.2152
40932SOL    HW131764   3.336  12.116  12.094  0.0659 -0.0748  0.9103
40932SOL    HW231765   3.479  12.163  12.088  0.1364 -0.4745 -1.3415
40933SOL     OW31766  11.741   7.143   1.059 -0.1889  0.3550 -0.1861
40933SOL    HW131767  11.700   7.229   1.072  0.2561  1.0638 -2.9063
40933SOL    HW231768  11.823   7.148   1.110  0.4234  2.0506 -1.2475
40934SOL     OW31769  11.537  11.978   0.518 -0.5552  0.7596  0.0470
40934SOL    HW131770  11.471  12.029   0.564 -1.4435  0.4614 -0.8614
40934SOL    HW231771  11.597  12.043   0.482 -0.7615  1.0682  0.2606
40935SOL     OW31772   9.128   5.204   6.278  0.4244  0.5127  0.0866
40935SOL    HW131773   9.212   5.191   6.235  0.5057  1.3945 -0.0569
40935SOL    HW231774   9.105   5.119   6.314  0.6514 -0.1015 -1.1750
40936SOL     OW31775   1.034   1.700   1.834  0.2963 -0.2848 -0.0826
40936SOL    HW131776   1.089   1.770   1.798 -0.5480  0.6949  0.4493
40936SOL    HW231777   0.957   1.746   1.868 -1.6897 -1.7371 -2.3099
40937SOL     OW31778   1.686   3.502   3.529 -0.3594  0.5560 -0.1113
40937SOL    HW131779   1.612   3.464   3.577 -0.9485  0.8451 -0.7743
40937SOL    HW231780   1.716   3.431   3.473 -0.3100  0.5224 -0.0427
40938SOL     OW31781   8.027  10.415   5.927 -0.0999  0.6522 -0.0820
40938SOL    HW131782   8.000  10.487   5.869 -1.6504 -1.4244 -2.1086
40938SOL    HW231783   7.965  10.419   5.999 -0.7149  0.8590 -0.6075
40939SOL     OW31784   9.142   1.280   5.346 -0.2997  0.2469 -0.2459
40939SOL    HW131785   9.211   1.271   5.411 -0.9355  1.7305  0.6897
40939SOL    HW231786   9.132   1.192   5.309  1.9053 -0.0546 -0.2534
40940SOL     OW31787   1.618   3.682   4.666  0.4441  0.2004 -0.5885
40940SOL    HW131788   1.669   3.644   4.594  0.9268  1.6915 -1.0680
40940SOL    HW231789   1.530   3.692   4.630  0.4570  0.0765 -0.6548
40941SOL     OW31790   5.955   3.052   3.216 -0.0197 -0.4933 -0.2029
40941SOL    HW131791   5.896   3.001   3.272  0.4467 -1.2600 -0.3951
40941SOL    HW231792   6.001   3.110   3.276 -0.5478 -0.2992  0.0214
40942SOL     OW31793   6.556   1.041  10.681  0.3847 -0.0407 -0.0389
40942SOL    HW131794   6.518   1.055  10.594  0.1236  2.0608  0.3725
40942SOL    HW231795   6.650   1.031  10.665  0.3934  0.7515 -0.5334
40943SOL     OW31796  12.594   7.354   3.061  0.2388 -0.1414  0.0112
40943SOL    HW131797  12.676   7.322   3.100  0.3150  0.6274  0.5012
40943SOL    HW231798  12.617   7.371   2.969  0.6765  0.2284  0.1860
40944SOL     OW31799   4.907   1.565  11.653 -0.2276  0.6417 -0.6818
40944SOL    HW131800   4.998   1.583  11.677 -0.5331  2.3816 -0.7442
40944SOL    HW231801   4.903   1.469  11.649  1.7101  0.5272 -1.1321
40945SOL     OW31802   0.983   5.404  10.836  0.7433  0.1627 -0.2336
40945SOL    HW131803   1.034   5.343  10.890 -2.4369 -0.9201  1.8741
40945SOL    HW231804   0.907   5.353  10.807 -0.2429  2.1700 -1.4225
40946SOL     OW31805  11.829  12.153   7.853  0.1136  0.2113  0.0576
40946SOL    HW131806  11.754  12.190   7.900 -0.4447 -0.1295 -0.5558
40946SOL    HW231807  11.868  12.228   7.808  0.6887  0.5562  1.0829
40947SOL     OW31808   7.002  10.704   7.142  0.7578  0.4875  0.1777
40947SOL    HW131809   7.042  10.686   7.057 -1.2417 -0.1674 -0.6790
40947SOL    HW231810   6.959  10.622   7.166 -1.8070  1.7028  0.0241
40948SOL     OW31811   8.536   7.381   2.426 -0.0715  0.2080 -0.1480
40948SOL    HW131812   8.593   7.322   2.475 -1.2854 -0.9599 -0.0802
40948SOL    HW231813   8.510   7.448   2.490  0.1898  0.0164  0.1631
40949SOL     OW31814   5.986   4.850   9.128  0.4477  0.1523 -0.5348
40949SOL    HW131815   5.906   4.840   9.076 -1.1398 -1.5425  1.9704
40949SOL    HW231816   6.000   4.763   9.166  1.8458  1.1249  1.3229
40950SOL     OW31817  11.684   0.722   6.805 -0.2998  0.4821 -0.4832
40950SOL    HW131818  11.644   0.802   6.839  2.1393  1.7159 -0.3480
40950SOL    HW231819  11.676   0.659   6.877 -1.7287  0.7461 -0.3859
40951SOL     OW31820   1.124   2.250   6.016 -0.0345  0.4631 -0.0078
40951SOL    HW131821   1.190   2.318   6.031 -0.5981  1.5685 -2.0802
40951SOL    HW231822   1.152   2.177   6.070  3.5942  0.4313 -1.6578
40952SOL     OW31823   2.177  10.640   8.555 -0.1499  0.4475 -0.6251
40952SOL    HW131824   2.091  10.641   8.512  0.6711  1.2804 -2.3922
40952SOL    HW231825   2.239  10.648   8.482  1.3622  1.2494  0.7052
40953SOL     OW31826   8.411   8.234  12.416  0.1161  0.4107  0.0415
40953SOL    HW131827   8.491   8.274  12.450  2.0918 -1.7025 -1.7866
40953SOL    HW231828   8.394   8.161  12.476 -0.8951  1.2620  0.8221
40954SOL     OW31829  11.510   3.206   4.356  0.4397  0.8058  0.3159
40954SOL    HW131830  11.583   3.186   4.414 -0.0886 -0.9019  0.4667
40954SOL    HW231831  11.536   3.167   4.272 -0.2014  0.3437  0.3246
40955SOL     OW31832   1.918   7.798   8.044 -0.7271 -0.8546  0.2158
40955SOL    HW131833   1.911   7.776   7.951 -2.9129 -0.8597  0.3398
40955SOL    HW231834   1.872   7.881   8.053  1.6109  0.4464  0.9118
40956SOL     OW31835   1.647   6.069  12.354  0.1109 -0.9259 -0.0702
40956SOL    HW131836   1.643   5.979  12.386  0.8983 -1.3432 -1.0740
40956SOL    HW231837   1.724   6.106  12.397  1.0892 -1.4453 -1.2730
40957SOL     OW31838   5.081   2.214   2.816  0.0141 -0.3114  0.0925
40957SOL    HW131839   5.026   2.235   2.891 -0.1533 -0.3029 -0.0323
40957SOL    HW231840   5.045   2.132   2.782 -0.5703  0.2266 -0.6099
40958SOL     OW31841   3.430  10.864   7.703 -0.4703  0.5735  0.1146
40958SOL    HW131842   3.473  10.885   7.786 -2.3242  0.9112  1.0479
40958SOL    HW231843   3.398  10.948   7.671 -1.9279  0.1438  0.3564
40959SOL     OW31844   7.118   5.593   3.968  0.3151  0.0166 -0.4560
40959SOL    HW131845   7.130   5.685   3.991 -0.3119  0.0418 -0.2037
40959SOL    HW231846   7.083   5.595   3.879  0.2555  0.0257 -0.4324
40960SOL     OW31847   3.027  10.714   2.378 -0.5368  0.2724 -0.6482
40960SOL    HW131848   2.974  10.788   2.407 -0.1530  0.1603  0.3964
40960SOL    HW231849   2.966  10.656   2.333 -1.4845 -0.1728  1.0966
40961SOL     OW31850   3.512   6.213  11.459 -0.2819  0.0355 -0.2927
40961SOL    HW131851   3.519   6.209  11.555  1.3701  1.7304 -0.2826
40961SOL    HW231852   3.534   6.126  11.429 -1.4253 -0.6980  0.8744
40962SOL     OW31853   8.630  10.361  11.265  0.2029  0.1099 -0.6352
40962SOL    HW131854   8.672  10.324  11.187 -0.4248  1.1142 -1.4818
40962SOL    HW231855   8.539  10.330  11.260  0.7514 -2.0148  1.1561
40963SOL     OW31856   5.349  12.534   4.633 -0.2397 -0.3432  0.6953
40963SOL    HW131857   5.422  12.595   4.644 -0.9211  0.5727  0.3620
40963SOL    HW231858   5.389  12.451   4.611  0.7194  0.0168  1.0291
40964SOL     OW31859   2.486  10.785   4.650  0.2849 -0.3331  0.7121
40964SOL    HW131860   2.511  10.822   4.565 -1.2078  1.3998  0.9764
40964SOL    HW231861   2.449  10.699   4.629 -0.5266  0.2788 -0.4767
40965SOL     OW31862   8.958   6.932   8.109  0.0843  0.1140 -0.0540
40965SOL    HW131863   8.967   6.837   8.116 -0.8292 -0.1013 -1.3994
40965SOL    HW231864   9.048   6.964   8.106  0.4043 -0.6921  0.4787
40966SOL     OW31865   0.425  10.259   4.357  0.4743 -0.1452 -0.3377
40966SOL    HW131866   0.503  10.214   4.323 -0.4342 -2.7167  0.7303
40966SOL    HW231867   0.429  10.346   4.318  2.5582 -1.0062 -2.2907
40967SOL     OW31868   2.871  11.578   1.289  0.5853 -0.3986  0.1592
40967SOL    HW131869   2.849  11.578   1.383  1.8976  0.3635  0.4937
40967SOL    HW231870   2.917  11.495   1.275  3.2721  0.8357  0.9750
40968SOL     OW31871   3.885   0.106  11.420 -0.0615  0.0771  0.1824
40968SOL    HW131872   3.917   0.084  11.333  0.1623  0.5185  0.1513
40968SOL    HW231873   3.800   0.146  11.406  0.2608  0.7504  0.1133
40969SOL     OW31874  10.588   5.897   4.612 -0.3633 -0.0278 -0.3422
40969SOL    HW131875  10.639   5.821   4.641  0.1008  0.5715  0.4400
40969SOL    HW231876  10.646   5.943   4.551  1.0742  1.9897  2.3796
40970SOL     OW31877  11.302   9.275  12.562 -0.2131 -0.3932 -0.3069
40970SOL    HW131878  11.283   9.323  12.642 -0.4939 -1.8699  0.5372
40970SOL    HW231879  11.224   9.222  12.546  1.3340 -3.2727  0.8287
40971SOL     OW31880  11.012   9.843   6.426  0.6216  0.4886  0.4844
40971SOL    HW131881  10.956   9.765   6.426  0.2188  0.7760  0.0517
40971SOL    HW231882  10.999   9.881   6.513  1.2044 -0.1874  0.8866
40972SOL     OW31883   8.202   5.714   7.826  0.3923 -0.1568 -0.4167
40972SOL    HW131884   8.190   5.751   7.739  0.4322 -1.4770 -0.9969
40972SOL    HW231885   8.279   5.658   7.819  1.0326  0.5246  0.7474
40973SOL     OW31886   8.586   9.579   8.912 -0.2286  0.3816 -0.7223
40973SOL    HW131887   8.675   9.610   8.896 -0.0010  0.0736 -0.0852
40973SOL    HW231888   8.597   9.506   8.973 -0.8017 -0.5923 -1.7571
40974SOL     OW31889   9.380   1.509   1.460 -0.1747 -0.7052 -0.5303
40974SOL    HW131890   9.441   1.453   1.507 -1.3961 -1.1547  0.5834
40974SOL    HW231891   9.329   1.449   1.405 -0.2120 -0.4536 -0.7735
40975SOL     OW31892  10.996   8.453   3.226 -0.2039  0.2931 -0.5692
40975SOL    HW131893  11.027   8.373   3.183 -0.7529 -0.4476  0.3584
40975SOL    HW231894  10.911   8.428   3.263  1.1258  0.1758  2.7834
40976SOL     OW31895   0.795   9.249   8.338  0.3163  0.3039 -0.3956
40976SOL    HW131896   0.713   9.213   8.302  1.6000 -1.1924 -2.0020
40976SOL    HW231897   0.851   9.261   8.261  1.6034  1.3412  0.6696
40977SOL     OW31898   1.872   0.973   1.097  1.3135  0.4235  0.3296
40977SOL    HW131899   1.819   0.970   1.177 -1.0106 -0.5932 -1.1310
40977SOL    HW231900   1.935   0.902   1.108 -0.0954 -0.8415  0.5917
40978SOL     OW31901   6.792  10.365   2.921 -0.1070 -0.3441 -0.1997
40978SOL    HW131902   6.787  10.279   2.879 -2.5361 -0.2335 -0.2916
40978SOL    HW231903   6.829  10.347   3.007 -0.5764 -1.5106 -0.2207
40979SOL     OW31904  12.237   8.664   1.646  0.5431 -0.8059  0.6088
40979SOL    HW131905  12.242   8.720   1.569  2.3916 -2.2436 -0.3761
40979SOL    HW231906  12.144   8.668   1.671 -0.0768 -0.1319 -1.5354
40980SOL     OW31907   7.906   6.447   0.212 -0.4883  0.1722 -0.1413
40980SOL    HW131908   7.896   6.402   0.128  0.2684 -0.6570  0.1911
40980SOL    HW231909   8.001   6.457   0.221 -0.5888  0.5954  0.4398
40981SOL     OW31910  11.795   1.665   3.597  0.2785 -0.0746  0.0644
40981SOL    HW131911  11.883   1.698   3.612 -0.2384  1.5167 -0.1119
40981SOL    HW231912  11.807   1.576   3.565  1.7869 -0.0627  0.5375
40982SOL     OW31913  12.198  10.105   2.232  0.4699  0.0332 -0.0278
40982SOL    HW131914  12.261  10.119   2.302  1.9691 -1.5152 -0.9722
40982SOL    HW231915  12.164  10.192   2.211  0.0404  0.5327  2.4990
40983SOL     OW31916   7.579   1.664   3.085  0.4410  0.0793 -0.2940
40983SOL    HW131917   7.593   1.607   3.009 -2.7441  0.0623 -1.0149
40983SOL    HW231918   7.604   1.610   3.160 -0.3901 -1.4978 -1.1051
40984SOL     OW31919   6.786   5.963   9.524  0.1880  0.0088 -0.1938
40984SOL    HW131920   6.878   5.988   9.526  0.0024  0.7024  1.8466
40984SOL    HW231921   6.746   6.026   9.465  1.3501 -1.8464 -3.1925
40985SOL     OW31922  10.015   6.090   7.940  0.4827 -0.2748 -0.5595
40985SOL    HW131923   9.983   6.002   7.920  2.8410 -1.5308  0.8430
40985SOL    HW231924   9.966   6.117   8.017  1.5912 -1.5022  0.6026
40986SOL     OW31925   3.889   7.163   6.286  0.4726  0.6892 -0.0656
40986SOL    HW131926   3.917   7.234   6.228 -0.9163  0.3973 -1.1589
40986SOL    HW231927   3.797   7.150   6.264  0.4941 -0.9154  0.6896
40987SOL     OW31928   3.226   0.040   0.374  0.0064  0.0318  0.0011
40987SOL    HW131929   3.264  -0.027   0.317  0.3003 -0.0046  0.2314
40987SOL    HW231930   3.299   0.100   0.391 -0.4709  0.8750 -0.8765
40988SOL     OW31931   9.974  11.551   0.594  0.0861  0.0124 -0.0137
40988SOL    HW131932   9.972  11.469   0.643  0.7840  0.1392  0.2341
40988SOL    HW231933   9.883  11.581   0.595 -0.1376 -0.6514  0.0730
40989SOL     OW31934   1.440   7.323   0.167 -0.2071  0.2929 -0.0305
40989SOL    HW131935   1.531   7.294   0.164 -0.1197  0.6255 -2.0009
40989SOL    HW231936   1.400   7.268   0.234  1.1863 -0.6293  0.0997
40990SOL     OW31937  11.900   5.569   8.174 -0.1558  0.1018 -0.0789
40990SOL    HW131938  11.832   5.623   8.134  0.4918  1.1446  0.1851
40990SOL    HW231939  11.954   5.539   8.100 -1.7975 -2.0971 -0.4784
40991SOL     OW31940   1.647  11.081  11.859  0.2560 -0.2037  0.1043
40991SOL    HW131941   1.657  10.999  11.906  0.2931 -1.9331 -2.6982
40991SOL    HW231942   1.557  11.080  11.826  0.2824  0.8282 -0.0428
40992SOL     OW31943   4.675   3.403   6.197  0.4300 -1.2029 -0.8511
40992SOL    HW131944   4.675   3.310   6.176 -0.8397 -1.1061 -1.3718
40992SOL    HW231945   4.755   3.437   6.155  1.1543 -2.1176 -0.2540
40993SOL     OW31946   5.476   5.171   8.566  0.4570  0.3000 -0.2141
40993SOL    HW131947   5.494   5.261   8.537 -0.0572  0.4457 -0.1061
40993SOL    HW231948   5.402   5.181   8.626  0.6896 -0.1470  0.1480
40994SOL     OW31949   3.246  12.167   1.215 -0.8616  0.0992 -0.0962
40994SOL    HW131950   3.170  12.111   1.227 -1.1584  0.8692  2.0965
40994SOL    HW231951   3.288  12.168   1.301  1.1127  0.4498 -1.0123
40995SOL     OW31952   7.309   4.530   9.721 -0.5166  0.0312 -0.2855
40995SOL    HW131953   7.400   4.513   9.745 -0.6854  0.3451  0.6209
40995SOL    HW231954   7.302   4.497   9.632  0.0949 -1.3579  0.1372
40996SOL     OW31955  12.354   1.770   3.372 -0.0569  0.0598 -0.5616
40996SOL    HW131956  12.448   1.760   3.389  0.4140  0.4081 -2.6502
40996SOL    HW231957  12.313   1.697   3.419  1.6442 -2.2699 -2.4518
40997SOL     OW31958   4.656   4.256   2.404  0.2489  0.0794  0.3639
40997SOL    HW131959   4.748   4.282   2.411  0.8883 -2.1095  0.9011
40997SOL    HW231960   4.652   4.169   2.444 -1.9450 -0.1522 -0.2058
40998SOL     OW31961  12.271   9.005   6.899  0.6498  0.5095  1.0286
40998SOL    HW131962  12.349   8.976   6.851  0.5108  0.4905  0.8134
40998SOL    HW231963  12.235   9.076   6.846 -0.3845 -0.5285  0.2856
40999SOL     OW31964   1.413   9.750   9.009 -0.8454 -0.0578  0.2144
40999SOL    HW131965   1.368   9.827   9.044 -0.2325 -0.5033  2.0585
40999SOL    HW231966   1.455   9.710   9.084  0.8343 -0.8896 -1.0949
41000SOL     OW31967  12.237   8.256   0.183  0.3616  0.3845  0.4603
41000SOL    HW131968  12.185   8.292   0.254  0.3005  0.8375  0.1912
41000SOL    HW231969  12.229   8.161   0.192 -0.4833  0.4494  0.4348
41001SOL     OW31970  10.080   8.010   4.829 -0.1107 -0.0737  0.3498
41001SOL    HW131971  10.008   8.068   4.854  0.6273  1.0742 -0.1098
41001SOL    HW231972  10.106   8.040   4.742  0.9652 -0.4359  0.5280
41002SOL     OW31973   7.813   2.837   8.697 -0.4012 -0.0967  0.0131
41002SOL    HW131974   7.874   2.766   8.720 -0.1290  0.2740  0.4465
41002SOL    HW231975   7.781   2.869   8.781 -1.1256 -0.2210 -0.2089
41003SOL     OW31976   2.243   8.034   0.030  0.0807  0.1200 -0.0329
41003SOL    HW131977   2.232   7.983   0.109 -0.6490  1.5904  0.8667
41003SOL    HW231978   2.156   8.072   0.013  0.9268  2.4324  0.3736
41004SOL     OW31979  10.164  11.750   8.757 -0.2447  0.3144  0.3092
41004SOL    HW131980  10.222  11.680   8.728  0.3592  0.5760  0.8838
41004SOL    HW231981  10.203  11.830   8.722 -1.3324  0.3195 -0.9816
41005SOL     OW31982   6.201   6.907  12.395 -0.1791 -0.1291  0.0983
41005SOL    HW131983   6.226   6.934  12.307  0.6578 -0.0398  0.3531
41005SOL    HW231984   6.178   6.988  12.440 -1.1124 -0.2274 -0.1832
41006SOL     OW31985   3.018   3.176   9.204  0.9951 -0.0306  0.1294
41006SOL    HW131986   3.050   3.181   9.114  1.7317 -0.8494  0.3303
41006SOL    HW231987   3.085   3.219   9.257 -0.4781  2.4904  0.1038
41007SOL     OW31988  11.178   8.764  10.408  0.8499 -0.2389 -0.3155
41007SOL    HW131989  11.146   8.852  10.388 -0.0312 -0.2836  0.7937
41007SOL    HW231990  11.235   8.775  10.484 -0.1860 -0.7534  0.5654
41008SOL     OW31991   5.968  11.778   5.719  0.2195 -0.4935  0.0261
41008SOL    HW131992   5.953  11.857   5.667 -0.6325 -0.6618  0.0004
41008SOL    HW231993   5.895  11.721   5.697  1.5901 -1.8967 -1.0788
41009SOL     OW31994  10.225  12.518   6.597 -0.3957 -0.1910 -0.8945
41009SOL    HW131995  10.268  12.472   6.669  0.6276 -0.3429 -1.5831
41009SOL    HW231996  10.274  12.493   6.519 -0.1366  1.6284 -1.3699
41010SOL     OW31997   3.591   4.812   4.526  0.2130 -0.4777  0.5183
41010SOL    HW131998   3.685   4.809   4.504 -0.0685  1.1183 -1.1540
41010SOL    HW231999   3.548   4.772   4.451 -0.5331  0.7086  0.2838
41011SOL     OW32000  10.229   0.326  10.475  0.0676 -0.3711  0.7558
41011SOL    HW132001  10.165   0.307  10.543  0.3118 -2.3112  0.4942
41011SOL    HW232002  10.262   0.413  10.498 -1.9172  0.2591  1.4372
41012SOL     OW32003   2.907   9.706  12.373 -0.1396 -0.5162  0.3639
41012SOL    HW132004   2.903   9.783  12.317 -1.4995 -0.3224  0.6886
41012SOL    HW232005   2.907   9.632  12.313 -0.9435 -0.2998  0.0978
41013SOL     OW32006  10.094   8.535   6.101  0.3313 -0.4982  0.3811
41013SOL    HW132007  10.016   8.588   6.088  0.4292 -0.3701  0.3086
41013SOL    HW232008  10.066   8.464   6.158  0.5185  0.3726  1.6052
41014SOL     OW32009   0.807   7.962   2.472  0.1848  0.0286 -0.1772
41014SOL    HW132010   0.833   8.033   2.531 -1.2343 -0.0472  0.5927
41014SOL    HW232011   0.868   7.968   2.399  1.6340  0.5042  1.0108
41015SOL     OW32012   9.053   4.079   5.140 -0.0785 -0.2587 -0.0268
41015SOL    HW132013   8.991   4.089   5.213 -0.3768 -2.7852  0.1306
41015SOL    HW232014   9.139   4.082   5.182 -0.0717  1.6610 -0.0574
41016SOL     OW32015   9.649   8.599  12.450  0.3127  0.0246 -0.4754
41016SOL    HW132016   9.644   8.686  12.413  1.0008  0.3088  0.0796
41016SOL    HW232017   9.586   8.600  12.522  0.3482  0.0749 -0.4461
41017SOL     OW32018   1.151   1.184   5.748 -0.2728  0.2074  0.6239
41017SOL    HW132019   1.118   1.197   5.837  0.8322 -0.0301  1.0933
41017SOL    HW232020   1.185   1.269   5.722  0.1050  0.0910  0.7338
41018SOL     OW32021   3.369   7.698   5.797  0.1868 -0.1007 -0.6174
41018SOL    HW132022   3.338   7.672   5.710  0.6989  0.3099 -0.9267
41018SOL    HW232023   3.407   7.785   5.784  0.2022 -0.0044  0.0340
41019SOL     OW32024   7.544  12.507   2.094 -0.0047 -0.6265 -0.0785
41019SOL    HW132025   7.628  12.461   2.098  0.8360  0.8543 -0.1198
41019SOL    HW232026   7.518  12.516   2.185 -1.0861 -2.7026 -0.1119
41020SOL     OW32027   4.042   8.785   6.078 -0.2755  0.3425  0.8202
41020SOL    HW132028   4.049   8.723   6.151 -0.1633  0.3785  0.8408
41020SOL    HW232029   4.133   8.806   6.056 -0.2462 -0.8143 -0.3023
41021SOL     OW32030   1.780   9.536   7.626  0.2669  0.5455 -0.4352
41021SOL    HW132031   1.788   9.444   7.601 -0.3942  0.4558 -0.3250
41021SOL    HW232032   1.686   9.551   7.632  0.3737  1.2178 -0.4026
41022SOL     OW32033   4.043  12.172   3.151 -0.3441  0.9375  0.2070
41022SOL    HW132034   3.983  12.227   3.201  0.5353  2.0261  0.1013
41022SOL    HW232035   4.012  12.179   3.060  0.7808  2.6831 -0.0728
41023SOL     OW32036   0.441   6.888   3.363 -0.0471 -0.4846 -0.3127
41023SOL    HW132037   0.379   6.828   3.322 -0.2883 -1.0442  0.8239
41023SOL    HW232038   0.522   6.837   3.370  0.2887 -0.0556 -0.9872
41024SOL     OW32039   4.275   0.545   8.305 -0.0750 -0.6246  0.3421
41024SOL    HW132040   4.287   0.472   8.366 -0.5936  0.9724  2.4714
41024SOL    HW232041   4.247   0.618   8.360  0.5306  1.2437 -1.6823
41025SOL     OW32042  11.583   6.055   4.557  0.3487 -0.3652 -0.3523
41025SOL    HW132043  11.539   6.109   4.623  0.1010  0.4325 -1.1580
41025SOL    HW232044  11.513   6.001   4.520  0.1723  0.3317 -1.0695
41026SOL     OW32045  12.062   8.828   4.182 -0.6802 -0.0086  0.3905
41026SOL    HW132046  12.131   8.874   4.136 -0.2151 -0.9837  0.0844
41026SOL    HW232047  11.986   8.886   4.176  0.1857  1.2570  1.0629
41027SOL     OW32048   0.198   7.890  12.126  1.1297  0.6438 -0.1305
41027SOL    HW132049   0.264   7.958  12.120 -0.0401  1.8365  0.1377
41027SOL    HW232050   0.133   7.924  12.187  1.1810 -1.3099  1.1070
41028SOL     OW32051   5.392  11.436   6.107  0.0691 -0.4174 -0.3927
41028SOL    HW132052   5.298  11.448   6.092 -0.0101  0.8874  0.9192
41028SOL    HW232053   5.433  11.495   6.044  0.0844 -1.7674 -1.7038
41029SOL     OW32054   8.889   3.178   2.397 -0.0876 -0.0584 -0.4701
41029SOL    HW132055   8.975   3.137   2.403  0.2704  0.7548  0.0512
41029SOL    HW232056   8.898   3.262   2.442 -1.0059  0.2859 -0.8950
41030SOL     OW32057  12.518   1.930   8.655  0.8618 -0.7201 -0.8167
41030SOL    HW132058  12.506   1.957   8.563  1.4853  0.4882 -0.5638
41030SOL    HW232059  12.593   1.982   8.685  0.3335 -0.7166  0.5305
41031SOL     OW32060   3.333   7.701   6.537 -0.5729  0.3541 -0.5128
41031SOL    HW132061   3.274   7.771   6.566  0.0542  0.5785  0.2524
41031SOL    HW232062   3.353   7.724   6.446 -2.6250 -0.4022 -1.2151
41032SOL     OW32063   2.240   9.063   1.020  0.2083  0.0120  0.4463
41032SOL    HW132064   2.282   9.112   1.091  0.2342  2.7040 -1.2588
41032SOL    HW232065   2.147   9.079   1.031  0.3095  2.6535 -1.4015
41033SOL     OW32066   4.887   1.388   9.755 -0.7205  0.2951 -0.5042
41033SOL    HW132067   4.875   1.316   9.817  1.1561 -0.6226 -1.1383
41033SOL    HW232068   4.811   1.445   9.770 -0.4734 -0.0077  2.4245
41034SOL     OW32069   6.293   2.524   2.561  0.1774 -0.4169 -0.2085
41034SOL    HW132070   6.244   2.556   2.484 -1.5674 -0.5140  0.8030
41034SOL    HW232071   6.309   2.602   2.613 -0.6546 -0.6369  0.3984
41035SOL     OW32072   6.084  10.452  10.432  0.6404 -0.0978  0.2477
41035SOL    HW132073   6.061  10.404  10.512 -0.8180  1.5711  0.8759
41035SOL    HW232074   6.172  10.486  10.448  1.6156 -2.2361 -0.1139
41036SOL     OW32075  12.415   8.043   7.991  0.2807 -0.6457 -0.5286
41036SOL    HW132076  12.343   8.106   7.980  1.0079  0.3068 -0.0161
41036SOL    HW232077  12.434   8.011   7.903  0.7718  0.8679 -0.9975
41037SOL     OW32078   2.471  10.727  11.242 -0.4722 -0.3337  0.0511
41037SOL    HW132079   2.553  10.702  11.284 -0.0201  0.8201 -0.1077
41037SOL    HW232080   2.489  10.722  11.148 -0.2135  0.9893  0.0068
41038SOL     OW32081   8.611  11.366   0.244 -0.5854 -0.4529  0.1467
41038SOL    HW132082   8.596  11.339   0.153 -2.3995  1.4746 -0.1854
41038SOL    HW232083   8.631  11.459   0.239  0.9165 -0.6576  1.6205
41039SOL     OW32084   2.326  11.996   4.054  1.0011  0.2733 -0.3118
41039SOL    HW132085   2.382  12.042   3.991  1.0747  0.6732  0.0430
41039SOL    HW232086   2.320  11.907   4.019  2.5608 -0.0175  0.0815
41040SOL     OW32087   7.815   4.451  11.526 -0.3602 -0.5497  0.2271
41040SOL    HW132088   7.910   4.453  11.534 -0.3075  0.0191 -0.4311
41040SOL    HW232089   7.786   4.393  11.596  0.4624 -0.6404  0.5015
41041SOL     OW32090   0.036   1.701   5.254 -0.1950 -0.0846 -0.1364
41041SOL    HW132091   0.015   1.779   5.202  0.6322  0.1132 -0.1889
41041SOL    HW232092  -0.033   1.696   5.320  0.2622  1.2435  0.4751
41042SOL     OW32093   7.633   9.900   1.210 -0.1624  0.4902  0.4993
41042SOL    HW132094   7.666   9.819   1.247  0.7898  1.4598  1.8824
41042SOL    HW232095   7.626   9.959   1.285 -1.6119  1.4418 -0.3398
41043SOL     OW32096   0.375   5.932   8.329  0.3254 -0.3092 -0.3213
41043SOL    HW132097   0.323   5.860   8.366 -0.9811  0.1885 -1.1006
41043SOL    HW232098   0.435   5.889   8.268  2.1920 -1.0849  1.9306
41044SOL     OW32099   1.118   0.151   1.565 -0.2252 -0.0630 -0.4390
41044SOL    HW132100   1.202   0.147   1.611 -0.7209 -0.5264  0.4632
41044SOL    HW232101   1.054   0.117   1.628 -1.0004 -0.3175 -1.3281
41045SOL     OW32102  12.241  10.737   5.626  0.0485 -0.3353 -0.1134
41045SOL    HW132103  12.310  10.678   5.655 -0.3264 -0.8042 -0.1686
41045SOL    HW232104  12.200  10.768   5.706  0.2264 -0.1748 -0.0850
41046SOL     OW32105   0.929   1.408   5.294  0.3299  0.2936 -0.5198
41046SOL    HW132106   0.877   1.337   5.256 -1.0907  0.3100  1.2407
41046SOL    HW232107   0.900   1.487   5.246  1.0627 -0.1100 -1.6780
41047SOL     OW32108  11.311   6.426   3.554 -0.1399 -0.2999  0.1600
41047SOL    HW132109  11.313   6.387   3.467  0.5831  0.7066 -0.2987
41047SOL    HW232110  11.270   6.511   3.541 -1.8744 -0.9369  1.1758
41048SOL     OW32111   6.695   6.800   4.679  0.1838 -0.1677  0.2963
41048SOL    HW132112   6.755   6.727   4.697 -0.4601 -1.1659 -1.3414
41048SOL    HW232113   6.622   6.786   4.739 -0.0912 -1.1062 -0.2315
41049SOL     OW32114   4.600   1.459   9.531 -0.4229  0.6490 -0.7193
41049SOL    HW132115   4.680   1.440   9.483 -0.3445 -1.1750  0.0473
41049SOL    HW232116   4.627   1.524   9.597 -0.2401  2.1367 -2.1922
41050SOL     OW32117   7.642   0.016  11.483 -0.5496  0.3003 -0.8692
41050SOL    HW132118   7.683   0.091  11.440 -1.0663  0.8078 -0.4772
41050SOL    HW232119   7.557   0.006  11.440 -0.7315  0.3114 -0.5175
41051SOL     OW32120   0.928  12.002   6.420 -0.2294  0.5138  0.1387
41051SOL    HW132121   0.939  12.047   6.503 -0.8557  0.8024  0.0732
41051SOL    HW232122   1.016  11.998   6.382  0.0318  0.5179  0.7406
41052SOL     OW32123   5.949  10.119   4.896  0.6153 -0.1995 -0.2158
41052SOL    HW132124   5.958  10.154   4.808 -1.6576 -0.3525 -0.5841
41052SOL    HW232125   5.916  10.193   4.948  0.2478 -0.5652  0.0800
41053SOL     OW32126   1.397   3.935   7.614  0.0873  0.0834 -0.0121
41053SOL    HW132127   1.390   4.029   7.597 -1.3187 -0.1359 -0.7712
41053SOL    HW232128   1.322   3.914   7.670  0.6674 -0.5060  0.5656
41054SOL     OW32129   8.123   6.785  11.439  0.5972 -0.5522  0.1130
41054SOL    HW132130   8.198   6.792  11.498  1.6906 -0.6239 -1.2208
41054SOL    HW232131   8.064   6.854  11.468  1.7030  0.2822  0.4615
41055SOL     OW32132   5.630   9.785   1.854 -0.0716  0.0837 -0.3971
41055SOL    HW132133   5.539   9.783   1.883  0.0756  1.8503  0.3180
41055SOL    HW232134   5.626   9.824   1.766 -0.0727 -0.7189 -0.7623
41056SOL     OW32135   9.377  12.057   9.348 -0.5910  0.1812  0.3516
41056SOL    HW132136   9.290  12.074   9.384 -0.3691 -1.0826  1.5312
41056SOL    HW232137   9.383  11.962   9.342  0.3527  0.2790 -0.6454
41057SOL     OW32138  11.016   3.566  11.269  0.5678 -0.0268 -0.0080
41057SOL    HW132139  11.016   3.547  11.363  0.3707  1.3924  0.3095
41057SOL    HW232140  10.994   3.483  11.227 -1.5025 -0.2186  1.3232
41058SOL     OW32141   9.740   8.961   1.137 -0.0071 -0.0093  0.5408
41058SOL    HW132142   9.786   8.877   1.130 -0.2465 -0.1460  0.5958
41058SOL    HW232143   9.764   9.007   1.057  0.9692  0.2998  0.9989
41059SOL     OW32144   5.726   4.371   8.641 -0.5856 -0.2526  0.1990
41059SOL    HW132145   5.799   4.433   8.637 -0.2077 -0.7401 -2.1429
41059SOL    HW232146   5.768   4.285   8.647 -1.0896 -0.3992  2.3778
41060SOL     OW32147   8.812   5.330   0.348 -0.2481 -0.0590  0.0633
41060SOL    HW132148   8.746   5.382   0.392 -0.3080  0.0461 -0.1502
41060SOL    HW232149   8.778   5.317   0.259  0.1138  0.1737 -0.1121
41061SOL     OW32150   4.125  10.976   0.747 -0.4643  0.2929  1.5947
41061SOL    HW132151   4.202  10.919   0.737 -0.1926  0.8557  0.3846
41061SOL    HW232152   4.055  10.930   0.701  0.1821  1.7070 -0.9825
41062SOL     OW32153   1.948   0.688   9.320 -0.6268  0.4306  0.3399
41062SOL    HW132154   2.018   0.627   9.340 -0.2820  0.6438 -0.1933
41062SOL    HW232155   1.899   0.647   9.249  0.5387  1.4468 -1.1058
41063SOL     OW32156  10.848   3.339   4.944  0.0555 -0.1835 -0.5861
41063SOL    HW132157  10.896   3.256   4.932  1.9219  0.7485  0.0530
41063SOL    HW232158  10.912   3.407   4.921 -1.0738  1.1164  0.0000
41064SOL     OW32159   0.313   2.308   0.309  0.5301 -0.0206 -0.2491
41064SOL    HW132160   0.361   2.228   0.332  1.9716  0.7829 -0.2997
41064SOL    HW232161   0.318   2.311   0.213  0.2416 -0.0090 -0.2630
41065SOL     OW32162   3.745   1.643   1.354  0.3299  0.4175  0.1157
41065SOL    HW132163   3.713   1.564   1.310  1.0219  1.1819 -1.8437
41065SOL    HW232164   3.682   1.711   1.330  0.4310  0.7417  0.7481
41066SOL     OW32165  11.972   1.704   9.870 -0.1923 -0.4786 -0.3814
41066SOL    HW132166  11.969   1.609   9.881 -1.3499 -0.6532 -1.9510
41066SOL    HW232167  12.028   1.718   9.794 -1.1232  0.0041 -0.9952
41067SOL     OW32168  12.340   7.070   6.536 -0.2533 -0.2849 -0.2544
41067SOL    HW132169  12.246   7.057   6.535 -0.4208  0.6947  0.5978
41067SOL    HW232170  12.373   7.015   6.465 -1.5463  0.0129 -1.1177
41068SOL     OW32171   2.692  12.091   7.740 -0.2835  0.6045  0.1887
41068SOL    HW132172   2.711  12.024   7.673 -4.2558  1.0936 -1.6933
41068SOL    HW232173   2.727  12.172   7.703  0.3531  0.3579  0.2363
41069SOL     OW32174   7.138  10.592  11.269 -0.5020  0.1092  0.1456
41069SOL    HW132175   7.052  10.594  11.311 -0.1666  0.3626  0.8299
41069SOL    HW232176   7.200  10.589  11.341  0.0545 -0.7353 -0.3568
41070SOL     OW32177  10.339   3.725   0.192  0.0680 -0.0930 -0.5744
41070SOL    HW132178  10.278   3.653   0.178 -0.0880 -0.4791  1.6621
41070SOL    HW232179  10.361   3.756   0.104 -0.8680 -2.0058 -1.5430
41071SOL     OW32180  10.036  10.616   5.092  0.3318 -0.1920  0.4392
41071SOL    HW132181   9.996  10.532   5.114 -0.4954  0.0408 -0.1205
41071SOL    HW232182  10.077  10.645   5.174  2.0341 -1.8788  0.2308
41072SOL     OW32183   3.605   1.871   1.262  0.2375 -0.2328  0.1973
41072SOL    HW132184   3.589   1.844   1.171 -0.9744 -3.0621  1.1377
41072SOL    HW232185   3.530   1.925   1.284 -0.9659 -1.8949  0.3274
41073SOL     OW32186  10.416   4.640   5.373 -0.3289  0.0255  0.2615
41073SOL    HW132187  10.383   4.564   5.422 -1.8077  1.3390  1.4113
41073SOL    HW232188  10.338   4.677   5.332  0.0789  1.8229  1.0322
41074SOL     OW32189   1.410  10.937   3.096 -0.6249  0.3632 -0.0726
41074SOL    HW132190   1.366  10.854   3.077 -1.7034  0.3644  2.1485
41074SOL    HW232191   1.377  10.997   3.029  0.2645 -0.9626 -1.7945
41075SOL     OW32192   2.478   4.344  10.117 -0.1668 -0.0223  0.0170
41075SOL    HW132193   2.526   4.358  10.199 -2.4757 -0.5882  1.5652
41075SOL    HW232194   2.542   4.303  10.058  0.9271 -2.1117  2.4435
41076SOL     OW32195  11.941  10.413   3.335  0.6172 -0.2517  0.4750
41076SOL    HW132196  12.008  10.402   3.268  0.6443 -1.0794  0.6173
41076SOL    HW232197  11.959  10.343   3.399 -1.1417 -1.3522 -0.1451
41077SOL     OW32198  11.158  10.485   2.727  0.7391  0.9587  0.5346
41077SOL    HW132199  11.157  10.580   2.728  0.2942  1.0767 -2.5501
41077SOL    HW232200  11.233  10.462   2.671  0.8717 -0.5150  1.2502
41078SOL     OW32201   6.416   0.720   9.235 -0.1850 -0.1600 -0.0044
41078SOL    HW132202   6.347   0.667   9.276 -0.2221 -0.0107  0.1259
41078SOL    HW232203   6.444   0.668   9.160 -0.0678 -0.4703  0.2486
41079SOL     OW32204   6.445   6.429  10.305 -0.0399  0.2339  0.1699
41079SOL    HW132205   6.408   6.373  10.373 -0.1057 -1.0686 -0.9082
41079SOL    HW232206   6.539   6.410  10.307 -0.2666 -1.2790 -1.3536
41080SOL     OW32207  12.234   3.203   1.334 -0.1627  0.2244 -0.2087
41080SOL    HW132208  12.275   3.117   1.348 -1.4196 -0.3965 -0.0983
41080SOL    HW232209  12.179   3.215   1.412 -1.1453  0.4329 -0.9192
41081SOL     OW32210   4.213   6.519   6.815 -0.1114 -0.4702  0.1141
41081SOL    HW132211   4.146   6.498   6.750 -1.1978 -0.2836  1.1318
41081SOL    HW232212   4.266   6.440   6.821  1.5003  0.2618 -2.6487
41082SOL     OW32213   6.610   7.280   4.773  0.1431 -0.1373  0.6142
41082SOL    HW132214   6.600   7.238   4.687 -1.4496  0.4626  0.4749
41082SOL    HW232215   6.619   7.373   4.753  1.5437 -0.1713  1.0288
41083SOL     OW32216   3.235   0.486   2.906  0.0245 -0.2969 -0.3345
41083SOL    HW132217   3.241   0.554   2.840 -0.5234 -1.5881 -1.7600
41083SOL    HW232218   3.165   0.428   2.876  0.8086 -1.7885  0.5498
41084SOL     OW32219  10.113   1.165   6.994 -0.1239 -0.7247 -0.1252
41084SOL    HW132220  10.081   1.122   6.915  0.6008 -0.2144 -0.7170
41084SOL    HW232221  10.200   1.127   7.009 -0.0929 -0.5352  0.1859
41085SOL     OW32222   3.279   3.862  12.490  0.1825 -0.3705 -0.3104
41085SOL    HW132223   3.351   3.923  12.506  0.0683 -0.5591  0.9551
41085SOL    HW232224   3.207   3.895  12.544  0.1547 -1.6730  0.4786
41086SOL     OW32225   0.912   4.478   9.133  0.2187 -0.5523 -0.3489
41086SOL    HW132226   0.891   4.444   9.046  0.2530  0.9800 -0.9933
41086SOL    HW232227   0.993   4.434   9.157 -0.0127 -1.3079 -0.8940
41087SOL     OW32228   9.463   8.095   3.881 -0.0355  0.5386 -0.0609
41087SOL    HW132229   9.484   8.085   3.788  0.5919 -1.4600  0.2463
41087SOL    HW232230   9.372   8.067   3.888 -0.3503  1.4863 -0.1684
41088SOL     OW32231   5.239   5.866   4.683 -0.2553 -0.5693  0.0486
41088SOL    HW132232   5.318   5.868   4.629  0.3017 -0.8727  0.8419
41088SOL    HW232233   5.267   5.826   4.765 -1.5194 -1.8393 -0.1000
41089SOL     OW32234   2.380   5.553   9.947  0.3851 -0.3582  0.3935
41089SOL    HW132235   2.427   5.561  10.031  0.8598 -0.3033  0.1282
41089SOL    HW232236   2.294   5.590   9.964  0.1256 -1.2728  1.1444
41090SOL     OW32237   9.853   4.081   9.739  0.6126 -0.1775  0.2680
41090SOL    HW132238   9.910   4.158   9.730  0.2981 -0.1172 -1.6028
41090SOL    HW232239   9.908   4.015   9.780  0.7024  1.2013  2.5554
41091SOL     OW32240  12.419  10.402  10.502 -0.1617 -0.4449  0.5139
41091SOL    HW132241  12.449  10.377  10.415  0.0932  3.6905 -0.8065
41091SOL    HW232242  12.494  10.385  10.559  0.1904 -1.8410 -0.3309
41092SOL     OW32243   7.725   4.999  11.494  0.4818  0.7094 -0.3784
41092SOL    HW132244   7.708   4.905  11.485 -2.0631  1.2060 -1.6639
41092SOL    HW232245   7.695   5.021  11.583 -0.1248  0.5142 -0.5325
41093SOL     OW32246  10.506   1.673  11.206 -0.0933 -0.4281  0.5660
41093SOL    HW132247  10.574   1.728  11.246  0.7094 -0.9168 -0.0902
41093SOL    HW232248  10.546   1.641  11.126 -2.0644  1.4807 -1.3212
41094SOL     OW32249   4.854   5.189   9.090  0.0559 -0.0665  0.3468
41094SOL    HW132250   4.875   5.270   9.044 -0.1254 -0.5429 -0.6073
41094SOL    HW232251   4.904   5.194   9.171  1.8452 -0.0021 -0.7048
41095SOL     OW32252   2.187   2.591   1.620 -0.3741  0.5587  0.2657
41095SOL    HW132253   2.137   2.527   1.670 -1.5700  1.1573 -0.1252
41095SOL    HW232254   2.214   2.545   1.541 -1.7976  0.6925 -0.3285
41096SOL     OW32255   4.524   0.914   1.775 -0.2592 -0.4942  0.1178
41096SOL    HW132256   4.461   0.979   1.804  1.5181  1.3762 -0.0202
41096SOL    HW232257   4.546   0.939   1.685  1.5587 -0.3615  0.5700
41097SOL     OW32258  12.131   0.934   5.008  0.1031  0.0624  0.1652
41097SOL    HW132259  12.187   1.007   5.033  0.2558 -0.0129  0.0508
41097SOL    HW232260  12.178   0.891   4.936 -0.5822  0.6171 -0.6467
41098SOL     OW32261   0.084   9.230   9.161  0.8410  0.2666 -0.2425
41098SOL    HW132262   0.161   9.270   9.119 -0.2353  3.2987  0.4518
41098SOL    HW232263   0.010   9.269   9.116 -0.3184 -0.6609  0.8071
41099SOL     OW32264   7.291   1.527   2.515 -0.1543 -0.1435  0.1349
41099SOL    HW132265   7.248   1.581   2.448 -2.0386 -0.2135  1.2001
41099SOL    HW232266   7.372   1.574   2.535 -0.4619  0.8635 -0.8678
41100SOL     OW32267   5.723   7.134   2.050  0.6013 -0.2727 -0.3847
41100SOL    HW132268   5.813   7.100   2.055  0.8868  0.6415  1.4698
41100SOL    HW232269   5.728   7.205   1.987  1.6307  0.9479  1.0093
41101SOL     OW32270   6.748  10.289   4.828  0.7011  0.0380 -0.4395
41101SOL    HW132271   6.723  10.225   4.894 -0.8785  0.6347 -0.4294
41101SOL    HW232272   6.778  10.365   4.879  1.2968 -0.1887 -0.4418
41102SOL     OW32273   9.204   1.043   5.234 -0.0518  0.5668 -0.1440
41102SOL    HW132274   9.298   1.054   5.248 -0.0114 -1.2187  1.6178
41102SOL    HW232275   9.197   0.981   5.161  0.2605 -0.7060  0.8582
41103SOL     OW32276  11.779   7.453   3.114  0.0195 -0.0885 -0.0799
41103SOL    HW132277  11.750   7.362   3.115 -0.1983 -0.0176  0.0335
41103SOL    HW232278  11.702   7.503   3.086  0.7572 -0.1632 -2.4569
41104SOL     OW32279  10.639   5.586   5.686  0.3780  0.3952 -0.1078
41104SOL    HW132280  10.719   5.598   5.635  1.7624  0.4432  1.9607
41104SOL    HW232281  10.607   5.499   5.662  1.5209  0.0346 -0.3513
41105SOL     OW32282   7.132   9.949   3.487  0.4983 -0.1990  0.5412
41105SOL    HW132283   7.094   9.901   3.560 -0.6992 -1.3425 -0.7673
41105SOL    HW232284   7.225   9.928   3.489  1.0176  1.8010  3.1745
41106SOL     OW32285   8.094   0.770   9.851 -0.3841  0.2779 -0.0670
41106SOL    HW132286   8.078   0.845   9.909 -1.2178  0.3256 -0.3467
41106SOL    HW232287   8.036   0.702   9.883 -2.7146  1.0681 -2.2569
41107SOL     OW32288   5.570   3.981   9.521 -0.4269  0.3521 -0.0017
41107SOL    HW132289   5.644   3.987   9.460 -0.4801  5.2114  0.0674
41107SOL    HW232290   5.495   4.014   9.472 -1.1549  1.3944  1.7067
41108SOL     OW32291   6.550   1.284  12.569 -0.5545  0.3559  0.5536
41108SOL    HW132292   6.554   1.258  12.661 -1.3702  0.7589  0.7095
41108SOL    HW232293   6.492   1.219  12.528  0.2111 -0.1277  0.2054
41109SOL     OW32294   7.680  12.309   7.602 -0.3819 -0.1347 -0.1578
41109SOL    HW132295   7.718  12.395   7.619 -0.1722 -0.4306  0.9501
41109SOL    HW232296   7.591  12.328   7.573 -0.8669  0.4450  1.5640
41110SOL     OW32297   1.535   0.318   0.387  0.1214  0.6393  0.3647
41110SOL    HW132298   1.480   0.379   0.339 -0.4362  0.2422  0.4875
41110SOL    HW232299   1.513   0.332   0.479  0.3127  0.5646  0.4230
41111SOL     OW32300   3.124   1.542   1.798  0.0726  0.4291 -0.6381
41111SOL    HW132301   3.140   1.635   1.784  1.0055  0.5960  1.1931
41111SOL    HW232302   3.196   1.498   1.752  0.6996  0.7394  0.0132
41112SOL     OW32303  11.257  10.433   7.128  0.3034 -0.5503  0.5568
41112SOL    HW132304  11.299  10.354   7.095 -0.8023 -0.8215 -0.2176
41112SOL    HW232305  11.284  10.437   7.220  1.5665 -1.0074  0.2285
41113SOL     OW32306  11.606   8.618   1.734  0.1416  0.1051 -0.1744
41113SOL    HW132307  11.526   8.575   1.763  0.7080 -0.5672  0.4343
41113SOL    HW232308  11.626   8.579   1.649 -1.4342  1.9650 -1.5072
41114SOL     OW32309  10.194  10.043   9.544 -0.3119  0.3746  0.0063
41114SOL    HW132310  10.158  10.117   9.591 -0.2263  0.6438 -0.3492
41114SOL    HW232311  10.189   9.970   9.606 -0.4948  0.6507  0.3159
41115SOL     OW32312   5.115   5.049   9.695  0.3058 -0.8650  1.3491
41115SOL    HW132313   5.160   5.118   9.647 -0.7372 -1.1261 -0.0655
41115SOL    HW232314   5.027   5.085   9.711  0.0526 -1.5040  1.4165
41116SOL     OW32315  12.095   8.917  11.925 -0.1155 -0.3579 -0.1319
41116SOL    HW132316  12.050   8.885  12.002  0.1980  0.4227  0.3913
41116SOL    HW232317  12.127   9.004  11.950  1.5925 -0.8286 -0.4924
41117SOL     OW32318   9.536   4.341   7.617  0.3629  0.1397 -0.1189
41117SOL    HW132319   9.563   4.433   7.614 -0.4425  0.3594 -1.5263
41117SOL    HW232320   9.563   4.306   7.532 -0.4606 -0.5868 -0.0830
41118SOL     OW32321  10.476   4.068   9.663  0.3980  0.6551  0.6388
41118SOL    HW132322  10.546   4.004   9.674 -1.0466 -1.4783 -1.6995
41118SOL    HW232323  10.398   4.024   9.695 -0.6953  1.0653 -1.3170
41119SOL     OW32324   0.799   9.532  10.445  0.0852 -0.0675 -0.4187
41119SOL    HW132325   0.883   9.487  10.430 -0.1071 -0.9839  1.0863
41119SOL    HW232326   0.740   9.464  10.476 -0.1918  1.1942  2.0601
41120SOL     OW32327  12.123   4.227   0.910  0.0494 -0.0012  0.4023
41120SOL    HW132328  12.083   4.204   0.994 -0.3942  0.8264  0.4273
41120SOL    HW232329  12.055   4.211   0.846 -0.3972  1.5452  0.4597
41121SOL     OW32330   8.856   5.299   7.311 -0.0727 -0.3355  0.0708
41121SOL    HW132331   8.772   5.258   7.292 -0.7922  0.4858  1.3820
41121SOL    HW232332   8.897   5.311   7.225 -1.1596 -0.9828 -0.5586
41122SOL     OW32333   0.022   1.566   3.813  0.4653  0.3750  0.2695
41122SOL    HW132334  -0.015   1.535   3.731  2.2986 -0.6085 -0.2530
41122SOL    HW232335  -0.051   1.607   3.859 -0.9129 -0.2860 -1.2391
41123SOL     OW32336  12.160  10.472   1.459 -0.3111  0.5392 -0.0863
41123SOL    HW132337  12.254  10.477   1.474 -0.1049  0.5782 -1.2505
41123SOL    HW232338  12.122  10.460   1.546  0.8984 -1.3762  0.2441
41124SOL     OW32339  10.030  10.783  10.253 -0.5377 -0.1513 -0.0078
41124SOL    HW132340  10.062  10.696  10.227 -0.5780  0.4901 -2.4974
41124SOL    HW232341   9.960  10.765  10.315 -0.2139 -1.8661 -0.0767
41125SOL     OW32342   5.591   6.224   9.256  0.3184  0.3590  0.0705
41125SOL    HW132343   5.615   6.134   9.230 -1.5488 -0.4928  1.0905
41125SOL    HW232344   5.495   6.222   9.260  0.2991  2.1360  1.1110
41126SOL     OW32345   7.198   5.230   0.757 -0.1959 -0.4243 -0.0607
41126SOL    HW132346   7.188   5.311   0.807  0.5051 -0.4416  0.1225
41126SOL    HW232347   7.120   5.225   0.703  0.0468  0.7110 -0.5563
41127SOL     OW32348  11.349   5.711  11.019  0.1334 -0.0279 -0.4631
41127SOL    HW132349  11.334   5.717  10.925 -0.1844  0.9237 -0.3664
41127SOL    HW232350  11.271   5.667  11.053 -1.2934  2.4325 -0.2995
41128SOL     OW32351   1.005  12.377   1.915  0.0540 -0.1499  0.8612
41128SOL    HW132352   0.917  12.343   1.904  0.0923  0.3897 -1.7661
41128SOL    HW232353   1.063  12.303   1.896  0.2347 -0.5643  2.7943
41129SOL     OW32354   8.091   4.682   3.470  0.0271  0.0195 -0.7149
41129SOL    HW132355   8.055   4.608   3.422  0.2171  0.7887 -2.1057
41129SOL    HW232356   8.186   4.670   3.466  0.0312 -0.5082  0.4898
41130SOL     OW32357  12.373  12.588  11.929  0.7993  0.6184  0.4644
41130SOL    HW132358  12.341  12.635  12.006 -0.5007 -0.8093  0.8450
41130SOL    HW232359  12.363  12.651  11.857  0.1656  1.2956  1.1254
41131SOL     OW32360   7.879   3.476   1.140  0.3388 -0.1652 -0.2194
41131SOL    HW132361   7.858   3.387   1.167 -2.3639  1.0148  2.0393
41131SOL    HW232362   7.966   3.493   1.176  0.8708 -1.8358 -0.6516
41132SOL     OW32363  11.322   5.751   0.391  0.5167  0.3505  0.3655
41132SOL    HW132364  11.241   5.704   0.373 -0.5956  1.7923  1.4332
41132SOL    HW232365  11.366   5.697   0.457 -0.2623  0.2720  0.8315
41133SOL     OW32366   4.307  11.852   6.973 -0.1658 -0.2668  0.2068
41133SOL    HW132367   4.225  11.893   6.943 -0.8251 -0.8946  1.0890
41133SOL    HW232368   4.367  11.926   6.985 -2.0349  0.8895  4.0041
41134SOL     OW32369  11.506   3.425   8.351 -0.4890 -0.0850 -0.0344
41134SOL    HW132370  11.593   3.448   8.320 -0.3759 -0.4938 -0.0342
41134SOL    HW232371  11.517   3.407   8.444 -0.6030  0.0144 -0.0016
41135SOL     OW32372  12.359  12.557   1.162  0.2204 -0.5136  0.0128
41135SOL    HW132373  12.436  12.575   1.109  0.2825 -0.8766 -0.0239
41135SOL    HW232374  12.357  12.462   1.170  1.3348 -0.4088  2.3204
41136SOL     OW32375   8.874   6.131  11.462  0.4640  0.2968  0.3493
41136SOL    HW132376   8.871   6.212  11.411 -0.5081 -0.4469 -0.8381
41136SOL    HW232377   8.785   6.119  11.495  0.0972 -1.1919 -1.0367
41137SOL     OW32378  12.097   5.897  11.348 -0.5555  0.6970  0.0126
41137SOL    HW132379  12.037   5.839  11.395 -2.4513  2.3704 -0.2198
41137SOL    HW232380  12.058   5.984  11.355  1.4300  1.7478 -0.8948
41138SOL     OW32381   5.311   7.906   1.624 -0.5247  0.6511 -0.1283
41138SOL    HW132382   5.247   7.884   1.556  0.1139 -0.1354 -0.4905
41138SOL    HW232383   5.304   7.834   1.687  0.0763  0.4986 -0.2283
41139SOL     OW32384   2.164   9.524   6.068  0.3041  0.6218 -0.6222
41139SOL    HW132385   2.123   9.573   5.997 -2.2306  2.7445  2.0278
41139SOL    HW232386   2.190   9.592   6.131  0.4081 -1.2203  1.4359
41140SOL     OW32387  10.761   8.617   0.178 -0.4972  1.0436 -0.0143
41140SOL    HW132388  10.721   8.541   0.220 -2.4148  2.4476  0.8705
41140SOL    HW232389  10.789   8.672   0.251 -0.8146  1.9968 -0.5981
41141SOL     OW32390   4.518   4.050   9.435  0.1257 -0.0566  0.6609
41141SOL    HW132391   4.434   4.063   9.479  0.0161 -0.6319  0.6254
41141SOL    HW232392   4.556   4.138   9.430 -1.8228  0.7711 -2.0882
41142SOL     OW32393   6.484   2.387   1.078 -0.3832  0.3057  0.7089
41142SOL    HW132394   6.444   2.463   1.120  0.2227  0.6293  0.7091
41142SOL    HW232395   6.410   2.332   1.053 -0.9644  1.7729 -1.0191
41143SOL     OW32396   7.870   4.578   7.769 -0.2541 -0.5006 -0.6832
41143SOL    HW132397   7.940   4.544   7.713  0.1222 -1.2758  0.2309
41143SOL    HW232398   7.862   4.513   7.839 -2.5890 -0.9721 -1.3064
41144SOL     OW32399   5.925   3.854  12.274  0.4860  0.1725  0.1289
41144SOL    HW132400   5.918   3.944  12.306 -0.4284  0.2312 -0.2072
41144SOL    HW232401   5.995   3.815  12.325  1.0593  1.1538  0.1020
41145SOL     OW32402   1.159   0.851   7.693  0.0681  0.3877 -0.0380
41145SOL    HW132403   1.133   0.876   7.604 -0.4697  2.5244  0.6590
41145SOL    HW232404   1.229   0.787   7.681  0.2409  0.8912 -1.9950
41146SOL     OW32405   2.986   5.045   4.684  0.2325  0.1006  0.3960
41146SOL    HW132406   3.010   5.121   4.738 -1.7327  0.2577  1.1362
41146SOL    HW232407   2.910   5.075   4.634  1.7705 -0.1435 -2.3114
41147SOL     OW32408   7.383  12.501   1.877 -0.0710  0.0481  0.0773
41147SOL    HW132409   7.424  12.484   1.962  0.6202 -0.3270 -0.3241
41147SOL    HW232410   7.429  12.577   1.843  0.4569 -0.5082 -0.4736
41148SOL     OW32411   1.882   9.499   5.479  0.1365 -0.5749  0.1144
41148SOL    HW132412   1.948   9.560   5.447  1.1119 -1.0403  1.1864
41148SOL    HW232413   1.862   9.529   5.568 -0.8381 -0.6589 -0.0587
41149SOL     OW32414   9.690  11.817   6.443  0.1918 -0.3809 -0.1034
41149SOL    HW132415   9.673  11.759   6.518 -1.4358 -0.2161 -0.3081
41149SOL    HW232416   9.778  11.851   6.458 -0.3478  0.1818  2.0981
41150SOL     OW32417  10.097   5.213  11.202 -0.0477 -0.5651 -0.7842
41150SOL    HW132418  10.101   5.203  11.297 -0.0675 -1.3143 -0.8573
41150SOL    HW232419  10.061   5.301  11.189  0.7409 -0.1158 -0.1049
41151SOL     OW32420   8.675   1.963   1.452 -0.1272  0.4965  0.3414
41151SOL    HW132421   8.674   2.023   1.526 -1.2825  0.1619  0.6175
41151SOL    HW232422   8.621   2.005   1.385  0.1366  0.3670  0.0430
41152SOL     OW32423   7.636   4.919   0.834  0.1719  0.1264  0.3832
41152SOL    HW132424   7.569   4.854   0.857 -1.0418  1.3124  0.3650
41152SOL    HW232425   7.713   4.892   0.883  0.4261 -2.5487 -1.2784
41153SOL     OW32426   6.834   5.786  11.446  0.9013 -0.0831 -0.3846
41153SOL    HW132427   6.848   5.728  11.371  0.4982 -0.4291 -0.1923
41153SOL    HW232428   6.774   5.738  11.503 -0.2848  0.9523 -0.7212
41154SOL     OW32429   3.136   5.389   2.013 -0.2521  0.8112  0.5323
41154SOL    HW132430   3.180   5.425   1.936  0.0121  0.1079  0.3486
41154SOL    HW232431   3.072   5.328   1.978 -2.4907  2.8947  0.7014
41155SOL     OW32432   7.064   2.284  11.867  0.0083 -0.2808  0.1363
41155SOL    HW132433   7.069   2.203  11.815  0.9383  0.4188 -0.8864
41155SOL    HW232434   7.142   2.282  11.922  0.3938  0.2518 -0.3872
41156SOL     OW32435   1.020   4.636   0.241 -0.0924  0.1055 -0.4846
41156SOL    HW132436   1.001   4.653   0.333  0.6074  0.8407 -0.4612
41156SOL    HW232437   0.935   4.621   0.201 -0.4849  0.6846  0.1152
41157SOL     OW32438   1.275   9.235  10.510  0.4975  0.4586  0.0255
41157SOL    HW132439   1.186   9.209  10.484 -0.5339  1.8122  1.9411
41157SOL    HW232440   1.328   9.157  10.495 -1.4141 -1.0631  0.6783
41158SOL     OW32441  11.122   4.491   7.544  0.1447  0.0901  0.1572
41158SOL    HW132442  11.170   4.409   7.555  0.7189  0.5654  1.4165
41158SOL    HW232443  11.030   4.465   7.536  0.3047 -0.6734  0.6665
41159SOL     OW32444  12.044   1.931   7.726  0.2104 -0.4390 -0.1604
41159SOL    HW132445  11.963   1.883   7.708  0.4566 -1.4525  1.2924
41159SOL    HW232446  12.114   1.872   7.697  0.4737  0.2446 -0.9850
41160SOL     OW32447   2.401   8.665   7.140 -0.0280  0.4514  0.0202
41160SOL    HW132448   2.391   8.700   7.051  2.1118  0.0303 -0.4483
41160SOL    HW232449   2.345   8.588   7.141 -1.2180  1.2826 -0.4592
41161SOL     OW32450   7.920   1.623   5.531 -0.3070 -0.1334 -0.1925
41161SOL    HW132451   7.909   1.692   5.466 -0.1138  0.2494  0.1721
41161SOL    HW232452   7.830   1.600   5.556 -0.5315 -2.4115 -2.7518
41162SOL     OW32453   0.649  11.024   5.031 -0.3560 -0.3896  0.0257
41162SOL    HW132454   0.720  11.071   4.988 -0.7090 -0.9025 -1.1675
41162SOL    HW232455   0.651  11.055   5.121 -0.4226  1.7098 -0.6489
41163SOL     OW32456   4.344  11.137  10.939  0.0252 -0.0446 -0.1711
41163SOL    HW132457   4.425  11.142  10.991  0.5953  0.5178 -1.0828
41163SOL    HW232458   4.374  11.139  10.848 -1.0179  0.0647 -0.5244
41164SOL     OW32459   6.250   1.073   0.617 -0.0780  0.1752 -0.0022
41164SOL    HW132460   6.247   1.091   0.711 -0.0499  1.4847 -0.2367
41164SOL    HW232461   6.222   1.155   0.576  0.1014 -0.3198 -1.1454
41165SOL     OW32462   1.265  12.299  11.877 -0.2357 -0.1477  0.0744
41165SOL    HW132463   1.299  12.380  11.914  1.2940 -0.5194 -0.4429
41165SOL    HW232464   1.310  12.230  11.925 -0.1169 -0.6586 -0.7445
41166SOL     OW32465   3.233   8.671  10.667  0.3461  0.3216  0.2280
41166SOL    HW132466   3.323   8.652  10.692  1.0022  2.0169 -0.6782
41166SOL    HW232467   3.205   8.595  10.616  1.1256 -0.3685  0.8043
41167SOL     OW32468   5.902   5.387  11.633 -0.4221 -0.5864 -0.5850
41167SOL    HW132469   5.837   5.318  11.644 -1.5513  0.2779 -1.6323
41167SOL    HW232470   5.873   5.436  11.556  0.7804  0.5957 -0.3247
41168SOL     OW32471   9.503  10.420   5.459  0.1782  0.2225  0.0895
41168SOL    HW132472   9.414  10.453   5.448  0.2208  0.2409 -0.2209
41168SOL    HW232473   9.501  10.334   5.417  0.4991  0.5364 -0.5856
41169SOL     OW32474   9.362  11.320   4.576 -0.1907  0.2931 -0.3721
41169SOL    HW132475   9.288  11.329   4.516 -0.5537  0.3413  0.0694
41169SOL    HW232476   9.333  11.365   4.656 -0.2658 -0.9194  0.3148
41170SOL     OW32477   0.896   4.360  12.593  0.2544  0.4138 -0.2763
41170SOL    HW132478   0.847   4.409  12.527 -2.8584 -0.7732  1.0043
41170SOL    HW232479   0.889   4.413  12.672 -2.4469 -1.5209  0.9137
41171SOL     OW32480   2.609  10.310   2.433  0.3027 -0.0776  0.4925
41171SOL    HW132481   2.594  10.222   2.467 -0.0923 -0.0984  0.2686
41171SOL    HW232482   2.693  10.337   2.471 -0.2545  0.0077  1.7227
41172SOL     OW32483   0.902   3.235   8.174  0.1159 -0.3976 -0.2001
41172SOL    HW132484   0.973   3.294   8.197 -1.6501  2.1377 -0.8311
41172SOL    HW232485   0.925   3.203   8.086 -0.0411  1.3614 -0.9203
41173SOL     OW32486  11.642   7.260   0.440 -0.1308  0.4921 -0.0155
41173SOL    HW132487  11.645   7.294   0.351 -1.4251  1.3506  0.2409
41173SOL    HW232488  11.733   7.265   0.471  0.5912 -1.0259 -1.6813
41174SOL     OW32489  11.339   3.384  11.279 -0.5540  0.0549 -0.0044
41174SOL    HW132490  11.421   3.434  11.284 -0.6363  0.1852  0.0477
41174SOL    HW232491  11.307   3.399  11.190 -1.5379  1.6368  0.5772
41175SOL     OW32492   1.709   5.870  10.758  0.0331  0.2164  0.0822
41175SOL    HW132493   1.679   5.890  10.670 -0.0672  0.2673  0.1269
41175SOL    HW232494   1.628   5.858  10.809  0.0847 -0.8764 -0.0674
41176SOL     OW32495   6.578   5.555   0.380 -0.2772 -0.2962  0.4006
41176SOL    HW132496   6.660   5.508   0.396 -0.3795 -0.6066  0.0461
41176SOL    HW232497   6.510   5.488   0.389 -0.5330  0.0585  1.1541
41177SOL     OW32498   2.590   9.313  10.968 -0.1879 -0.3228 -0.4492
41177SOL    HW132499   2.606   9.242  10.906 -1.9437  0.3091 -1.7075
41177SOL    HW232500   2.499   9.338  10.952  0.2908  2.0089  0.1542
41178SOL     OW32501  10.367   5.348   3.003 -0.4771  0.5702  0.2702
41178SOL    HW132502  10.452   5.368   2.963 -0.2793  0.5561  0.6781
41178SOL    HW232503  10.390   5.301   3.084 -0.8812  0.2950  0.2257
41179SOL     OW32504   7.543   7.099   0.425 -0.2431  0.1815  0.1987
41179SOL    HW132505   7.547   7.116   0.519 -2.4200  0.4492  0.3066
41179SOL    HW232506   7.620   7.046   0.406 -0.6814 -1.4091  2.4790
41180SOL     OW32507   1.729   1.513   9.175 -0.2987  0.0298 -0.0959
41180SOL    HW132508   1.687   1.428   9.189 -0.5587  0.5603  3.0711
41180SOL    HW232509   1.656   1.574   9.161 -0.3847  0.2587  1.1998
41181SOL     OW32510   7.153   2.339   3.869 -0.0919 -0.1155  0.2788
41181SOL    HW132511   7.125   2.359   3.958 -1.2317  1.4290 -0.3870
41181SOL    HW232512   7.075   2.350   3.816  0.6170 -0.8060 -0.9571
41182SOL     OW32513   9.479   5.471   9.290 -0.4739  0.2983  0.3738
41182SOL    HW132514   9.523   5.525   9.225 -2.7342  2.5763  0.5750
41182SOL    HW232515   9.530   5.483   9.370  0.6785 -0.2224 -0.2561
41183SOL     OW32516   9.001   4.813   0.613  0.0170  0.0291 -0.5456
41183SOL    HW132517   8.934   4.804   0.546 -0.2074  0.7422 -0.4236
41183SOL    HW232518   8.995   4.732   0.664 -2.3981  1.0591  0.9723
41184SOL     OW32519   4.957  11.838   1.620 -0.4648  0.2600 -0.3486
41184SOL    HW132520   4.903  11.767   1.653 -1.0400  1.2572  0.9582
41184SOL    HW232521   5.038  11.796   1.593 -0.8301 -0.8978  0.2945
41185SOL     OW32522   9.532   5.921  10.689  0.0114  0.6117 -0.2867
41185SOL    HW132523   9.515   6.000  10.739 -2.1901 -0.3152  0.5815
41185SOL    HW232524   9.488   5.935  10.605  0.8200  0.8477 -0.6752
41186SOL     OW32525  10.112   9.182  10.482  0.7396  0.4486 -0.5654
41186SOL    HW132526  10.112   9.091  10.512 -3.7940  0.5243  0.3431
41186SOL    HW232527  10.157   9.230  10.552  0.5157 -0.7483  0.4390
41187SOL     OW32528  10.436   5.632   1.164  0.1204  0.2881  0.4334
41187SOL    HW132529  10.439   5.586   1.081 -0.5919  1.7968 -0.4765
41187SOL    HW232530  10.520   5.612   1.206  0.0926 -1.2600 -0.1970
41188SOL     OW32531   2.540   5.719   8.746  0.2188 -0.0603  0.2621
41188SOL    HW132532   2.503   5.663   8.814 -0.9524 -0.1491 -0.4121
41188SOL    HW232533   2.566   5.799   8.791  0.5560 -0.5803  1.0002
41189SOL     OW32534   4.830   3.334   8.738 -0.1048  0.5277  0.5594
41189SOL    HW132535   4.790   3.323   8.652  0.1078  0.1195  0.5091
41189SOL    HW232536   4.923   3.318   8.724  0.0300  1.1217  0.7413
41190SOL     OW32537   1.775   2.037  10.432  0.3352  0.1031 -0.6042
41190SOL    HW132538   1.724   1.987  10.495  1.8392 -1.2713 -0.4122
41190SOL    HW232539   1.715   2.105  10.401 -1.2245 -0.7447  0.4244
41191SOL     OW32540  11.139  11.740  11.861 -0.1639 -0.2500 -0.3914
41191SOL    HW132541  11.093  11.720  11.780 -0.8161  0.0184 -0.0892
41191SOL    HW232542  11.076  11.721  11.931 -0.6783  2.3364 -0.0520
41192SOL     OW32543   8.112   9.421   6.721  0.1475 -0.1273  0.0118
41192SOL    HW132544   8.179   9.356   6.744 -0.3091 -1.3656 -1.8783
41192SOL    HW232545   8.158   9.505   6.723  1.3542 -0.7663  0.2816
41193SOL     OW32546  11.716   9.352   7.784 -0.3924  0.4891 -0.0571
41193SOL    HW132547  11.668   9.269   7.785  0.7397 -0.3005 -2.4881
41193SOL    HW232548  11.790   9.338   7.843  0.5806 -0.8171 -1.5150
41194SOL     OW32549  12.428   7.533  11.549 -0.3836 -0.3172  0.0496
41194SOL    HW132550  12.374   7.475  11.603 -1.6178 -1.6275 -2.3887
41194SOL    HW232551  12.383   7.617  11.552 -1.4542 -0.8602 -0.3510
41195SOL     OW32552   4.728   2.550   8.185  0.5244 -0.2099 -0.3014
41195SOL    HW132553   4.709   2.641   8.164  2.2303  0.2214 -0.1559
41195SOL    HW232554   4.823   2.548   8.202  0.0319 -1.3917  2.9358
41196SOL     OW32555   6.024   8.799   5.725  0.3550  0.4568 -0.4573
41196SOL    HW132556   6.027   8.885   5.682 -2.5276  1.1740  0.5465
41196SOL    HW232557   6.062   8.814   5.811 -0.8988  0.9889  0.0274
41197SOL     OW32558   1.556   0.422  12.401 -0.1206 -0.0010 -0.4530
41197SOL    HW132559   1.625   0.477  12.438 -0.5615 -0.7033  1.5839
41197SOL    HW232560   1.528   0.468  12.322  2.4441  0.4468 -1.2101
41198SOL     OW32561   0.330   9.660   6.238  0.2582  0.3835 -0.4580
41198SOL    HW132562   0.298   9.623   6.320  0.9863  0.0947 -0.2985
41198SOL    HW232563   0.252   9.670   6.184 -0.4988  2.1258  0.8456
41199SOL     OW32564   9.306  10.654   6.036 -0.5518 -0.2149  0.3132
41199SOL    HW132565   9.351  10.685   5.957  0.7246  1.2712  1.5604
41199SOL    HW232566   9.218  10.632   6.007 -0.1895  0.5524 -1.4726
41200SOL     OW32567   2.713   1.479  10.350  0.6365 -0.3091  0.0908
41200SOL    HW132568   2.618   1.471  10.347  0.7429 -1.3345 -1.7765
41200SOL    HW232569   2.735   1.544  10.284  1.2594 -0.4897  0.1082
41201SOL     OW32570   5.041   7.114   6.920 -0.2377 -0.1373 -0.0533
41201SOL    HW132571   5.095   7.193   6.926 -0.1901 -0.0921 -0.9974
41201SOL    HW232572   5.095   7.052   6.871 -0.2337 -0.8091  0.7678
41202SOL     OW32573   4.961   9.287  10.482  0.3027 -0.0546  0.4310
41202SOL    HW132574   4.934   9.218  10.543 -3.0991  0.5712 -0.1637
41202SOL    HW232575   5.052   9.306  10.506  0.6902 -3.2175  2.0059
41203SOL     OW32576   2.590   2.811   8.511  0.1890  0.0796 -0.6496
41203SOL    HW132577   2.587   2.776   8.421  1.1927 -0.1072 -0.6212
41203SOL    HW232578   2.641   2.891   8.504  0.5727 -0.1224 -0.1840
41204SOL     OW32579   9.420   5.479  12.401 -0.2855  0.5613  0.1845
41204SOL    HW132580   9.466   5.462  12.320  0.0222 -0.7455  0.6078
41204SOL    HW232581   9.470   5.548  12.444 -0.7596  1.6552 -0.9567
41205SOL     OW32582   7.384   8.068   1.606 -0.4155 -0.1505 -0.1872
41205SOL    HW132583   7.407   8.008   1.534 -0.1886  0.6080 -0.7630
41205SOL    HW232584   7.438   8.038   1.679  0.9420  0.3457 -0.9467
41206SOL     OW32585  12.371   9.162   0.308 -0.4953  0.9253 -0.0509
41206SOL    HW132586  12.361   9.098   0.237  0.7144 -0.5950  1.0676
41206SOL    HW232587  12.301   9.226   0.293 -0.2416  0.6901 -2.6093
41207SOL     OW32588   3.493   7.310  10.397  0.2778  0.1329 -0.6355
41207SOL    HW132589   3.581   7.272  10.403  0.4428  0.4910 -0.7061
41207SOL    HW232590   3.508   7.397  10.359  0.1794  1.2392  1.6895
41208SOL     OW32591   3.540   7.579  12.535  0.1495 -0.2978 -0.1827
41208SOL    HW132592   3.522   7.533  12.617  0.1889 -0.4402 -0.2524
41208SOL    HW232593   3.469   7.554  12.477 -0.0006 -0.0167 -0.1200
41209SOL     OW32594   0.719   7.367   1.683 -0.3175 -0.3018 -0.7088
41209SOL    HW132595   0.644   7.383   1.741  0.1049  0.8909 -0.4744
41209SOL    HW232596   0.745   7.277   1.703 -0.4677 -0.0672  0.6322
41210SOL     OW32597   8.405   6.543   8.897 -0.8696 -0.0745 -0.0584
41210SOL    HW132598   8.476   6.512   8.954 -0.3958 -1.2688 -1.2419
41210SOL    HW232599   8.449   6.601   8.834 -1.5564  2.1299  1.3793
41211SOL     OW32600   0.930  11.447   2.538 -0.2387  0.5827 -0.2727
41211SOL    HW132601   0.861  11.436   2.603 -0.3151  0.9039 -0.2983
41211SOL    HW232602   0.924  11.538   2.511 -0.3308  0.4059 -0.8715
41212SOL     OW32603   0.823   1.320   7.733 -0.0780 -0.1801 -0.1732
41212SOL    HW132604   0.817   1.382   7.661  1.1699  0.3001  0.1137
41212SOL    HW232605   0.823   1.234   7.692  0.1641  0.0782 -0.7156
41213SOL     OW32606   5.404   5.733   4.855 -0.0725  0.1070 -0.4980
41213SOL    HW132607   5.357   5.650   4.845  0.0422  0.1775 -1.7484
41213SOL    HW232608   5.494   5.712   4.829  0.0177  0.5643 -0.5482
41214SOL     OW32609  11.855   1.276   7.225 -0.2674  0.0063 -0.0509
41214SOL    HW132610  11.853   1.321   7.140 -0.6265 -0.0706 -0.0877
41214SOL    HW232611  11.774   1.224   7.225  0.0765 -0.5323  0.0466
41215SOL     OW32612  12.376  11.117  10.151 -0.0186  0.3876 -0.3693
41215SOL    HW132613  12.426  11.050  10.197  0.4840  1.1620  0.2455
41215SOL    HW232614  12.416  11.121  10.064  0.4007  0.3630 -0.1825
41216SOL     OW32615  12.400   4.769   0.894 -0.3550 -0.2891  0.5631
41216SOL    HW132616  12.414   4.849   0.843  1.3795 -1.0994 -0.3389
41216SOL    HW232617  12.345   4.796   0.967  0.2437  1.7504  0.3294
41217SOL     OW32618   8.430   5.890  12.273  0.2935  0.2539  0.0648
41217SOL    HW132619   8.412   5.921  12.362  1.2025 -0.5781  0.5530
41217SOL    HW232620   8.393   5.958  12.216 -0.5527  0.6551  1.0686
41218SOL     OW32621   3.306   5.427   5.284  0.0511 -0.5237 -0.8669
41218SOL    HW132622   3.233   5.442   5.224 -0.9093 -0.1697  0.3625
41218SOL    HW232623   3.314   5.332   5.287  0.3071 -0.5441 -1.7711
41219SOL     OW32624   3.139   3.157   3.617 -0.0658 -0.7568  0.1919
41219SOL    HW132625   3.115   3.247   3.637 -0.6529 -1.0346  0.7725
41219SOL    HW232626   3.233   3.161   3.598 -0.0634 -0.0451  0.3297
41220SOL     OW32627   1.579   7.657   8.181  0.4883  0.2034  0.3989
41220SOL    HW132628   1.644   7.631   8.245  0.2874 -0.8263  0.2010
41220SOL    HW232629   1.507   7.694   8.233  0.6951  0.1784  0.7032
41221SOL     OW32630   1.571   2.471   0.800 -0.2870 -0.4790 -0.2556
41221SOL    HW132631   1.630   2.397   0.792 -0.3242 -0.4932 -0.4213
41221SOL    HW232632   1.488   2.439   0.763 -0.6043 -0.6886  0.6245
41222SOL     OW32633   0.742   4.112   1.322 -0.8664 -0.0509  0.3757
41222SOL    HW132634   0.744   4.016   1.324 -0.3365 -0.1622 -2.1019
41222SOL    HW232635   0.665   4.133   1.269  0.9478  0.6990 -2.1466
41223SOL     OW32636  11.430   0.298  10.876 -0.2230  0.2746  0.3556
41223SOL    HW132637  11.503   0.291  10.937 -0.9645  0.8576  1.3338
41223SOL    HW232638  11.368   0.231  10.905  0.4325 -1.0948 -1.2428
41224SOL     OW32639  10.000   7.055  12.061 -0.2645  0.0813  0.5765
41224SOL    HW132640  10.071   7.035  12.122  1.0751 -1.8745 -1.4289
41224SOL    HW232641  10.038   7.114  11.997 -0.2840 -1.1922 -0.6738
41225SOL     OW32642   2.919   2.152  11.039  0.5665  0.2357 -0.1877
41225SOL    HW132643   2.870   2.177  11.118  0.6760  2.1374 -0.6701
41225SOL    HW232644   2.943   2.060  11.054 -1.9694 -0.3708  0.6470
41226SOL     OW32645   6.337   6.750   5.517  0.0627 -0.4443  0.0109
41226SOL    HW132646   6.338   6.657   5.540 -0.5044 -0.8253 -1.4012
41226SOL    HW232647   6.250   6.765   5.481  0.0493  0.7158  0.4885
41227SOL     OW32648   4.571   8.032   0.574 -0.3195 -0.4203  0.1642
41227SOL    HW132649   4.607   8.081   0.500 -1.1027  0.0101  0.0550
41227SOL    HW232650   4.546   7.947   0.537 -0.1157 -0.4391  0.0734
41228SOL     OW32651  10.661  10.018  11.171 -0.0691 -0.4433  0.8741
41228SOL    HW132652  10.588  10.028  11.233  0.7175 -1.8045  2.1166
41228SOL    HW232653  10.738  10.050  11.220  0.4772 -0.9904  0.3880
41229SOL     OW32654   7.674   2.757   9.315  0.3594 -0.4106 -0.5575
41229SOL    HW132655   7.709   2.679   9.359 -2.7537 -0.9290  1.2820
41229SOL    HW232656   7.716   2.756   9.229  3.1210 -2.0597  0.6465
41230SOL     OW32657   1.426   6.473   3.402 -0.1282  0.3035  0.3739
41230SOL    HW132658   1.452   6.449   3.313  0.6172 -0.1082  0.6933
41230SOL    HW232659   1.476   6.553   3.420 -0.2276  0.3500  0.4399
41231SOL     OW32660  11.693  11.481   3.767 -0.1798  0.1916  0.3436
41231SOL    HW132661  11.730  11.566   3.742  1.2379 -0.2142  0.9404
41231SOL    HW232662  11.767  11.433   3.804 -0.6524 -1.7766 -1.0965
41232SOL     OW32663  12.087   5.108  11.205  0.2530 -0.7273  0.0234
41232SOL    HW132664  12.104   5.050  11.131 -1.6691 -1.8087  0.3752
41232SOL    HW232665  12.011   5.159  11.178  0.5744  0.0889  0.6132
41233SOL     OW32666   8.689  12.362   0.110 -0.1951  0.2515  0.2148
41233SOL    HW132667   8.763  12.421   0.125 -0.1779 -0.1701  1.9096
41233SOL    HW232668   8.637  12.406   0.042  0.9053  1.1911 -0.0530
41234SOL     OW32669   0.039   8.145  11.119  0.0833 -0.0668  0.4157
41234SOL    HW132670   0.023   8.116  11.029 -0.0442  1.6648 -0.1484
41234SOL    HW232671  -0.038   8.198  11.141  0.5147  0.2265  1.2326
41235SOL     OW32672  12.092   1.079   6.972  0.2042 -0.0157 -0.0630
41235SOL    HW132673  12.178   1.110   7.002  0.3634  0.2735 -0.7935
41235SOL    HW232674  12.040   1.159   6.963  0.4129  0.0062 -1.3201
41236SOL     OW32675   8.364   8.045   0.649 -0.0536 -0.3057  0.5741
41236SOL    HW132676   8.314   8.125   0.665  1.0654  0.2028  1.7134
41236SOL    HW232677   8.446   8.057   0.698 -0.1013 -2.4006  1.2727
41237SOL     OW32678   1.537   5.418   4.578 -0.4661 -0.4724 -0.1469
41237SOL    HW132679   1.518   5.341   4.632 -1.4270 -0.6369 -0.6977
41237SOL    HW232680   1.465   5.478   4.596 -0.4097 -0.2326 -0.7138
41238SOL     OW32681   9.497   4.642  11.169 -0.4736 -0.4118 -0.2700
41238SOL    HW132682   9.568   4.578  11.163 -1.0717 -1.2871  1.4124
41238SOL    HW232683   9.538   4.718  11.213 -0.0449 -0.0340 -1.2894
41239SOL     OW32684  10.911   6.485   0.096  0.1494 -0.2346  0.4156
41239SOL    HW132685  10.887   6.501   0.004 -0.8052 -0.8250  0.5563
41239SOL    HW232686  10.879   6.397   0.115  1.2752 -0.5399  1.0191
41240SOL     OW32687   1.945   0.395  11.478 -0.0387 -0.5278 -0.4668
41240SOL    HW132688   1.892   0.442  11.414 -0.7090  0.4829  0.7793
41240SOL    HW232689   2.004   0.461  11.513  0.5835 -1.1563 -0.3250
41241SOL     OW32690   8.088  11.015   5.887 -0.7624 -0.4432  0.2039
41241SOL    HW132691   8.096  11.110   5.883 -0.1628 -0.5091 -0.4113
41241SOL    HW232692   8.135  10.990   5.967 -0.2746 -0.2802 -0.0288
41242SOL     OW32693   1.357   1.818  10.027 -0.1273  0.2412  0.3380
41242SOL    HW132694   1.336   1.781   9.941 -0.0540 -0.6662  0.6914
41242SOL    HW232695   1.413   1.752  10.068 -2.8209 -0.9821  2.3733
41243SOL     OW32696   4.110   3.065   9.526 -0.6058  0.1903 -0.0568
41243SOL    HW132697   4.057   3.026   9.457 -2.4436  0.8860  0.8835
41243SOL    HW232698   4.116   2.996   9.593  0.0486 -0.0321 -0.3419
41244SOL     OW32699   8.574   0.634   9.619 -0.0382 -0.4165 -0.4895
41244SOL    HW132700   8.625   0.658   9.697 -2.3089 -0.3570  1.0749
41244SOL    HW232701   8.636   0.642   9.547  1.8329  0.8269  1.1345
41245SOL     OW32702   2.804   1.386   1.071 -0.1210 -0.2579  0.1800
41245SOL    HW132703   2.748   1.452   1.112 -0.6307 -1.1346  0.9214
41245SOL    HW232704   2.755   1.357   0.994  0.2378  0.4225 -0.3188
41246SOL     OW32705   8.684   6.150   3.525 -0.4159  0.7897 -0.4182
41246SOL    HW132706   8.711   6.236   3.555  0.3170  0.8045 -1.0704
41246SOL    HW232707   8.724   6.141   3.438  2.7799 -1.6795  1.0928
41247SOL     OW32708   0.617  10.236   1.912 -0.6339 -0.6638 -0.2822
41247SOL    HW132709   0.570  10.155   1.894 -0.7531 -0.4201 -1.1193
41247SOL    HW232710   0.703  10.208   1.941 -0.6069 -1.0894 -0.7670
41248SOL     OW32711   6.554   6.178   2.179  0.4552  0.1454  0.3008
41248SOL    HW132712   6.479   6.157   2.122  0.1167  0.8222  0.4816
41248SOL    HW232713   6.520   6.245   2.239  1.1640  0.3438  0.4898
41249SOL     OW32714   4.814   1.338   3.278  0.1074  0.5129 -0.2401
41249SOL    HW132715   4.731   1.292   3.270  0.0144  0.1955  2.0826
41249SOL    HW232716   4.870   1.280   3.329  1.7256  0.8265 -1.5475
41250SOL     OW32717   1.635   9.942   7.750  0.1341 -0.1604 -0.2661
41250SOL    HW132718   1.568   9.944   7.682  0.7161 -1.0635 -0.8944
41250SOL    HW232719   1.677  10.028   7.745 -1.3248  0.6239  0.5153
41251SOL     OW32720   9.515   9.864   1.530  0.1294 -0.4498 -0.3728
41251SOL    HW132721   9.432   9.882   1.575  0.7935  0.6565  0.4583
41251SOL    HW232722   9.550   9.950   1.509  2.6818 -0.6632  2.3455
41252SOL     OW32723  12.172  10.879   4.970 -0.2316 -0.0751  0.1001
41252SOL    HW132724  12.198  10.940   5.038  1.5679  0.1743 -0.7479
41252SOL    HW232725  12.076  10.880   4.971 -0.2275  1.3943  1.2883
41253SOL     OW32726   1.244   0.397   0.591  0.0759 -0.3126  0.2720
41253SOL    HW132727   1.294   0.367   0.667  0.1261 -0.6181  0.1187
41253SOL    HW232728   1.161   0.349   0.597 -0.0712 -0.0521  0.3434
41254SOL     OW32729  11.882   5.442   0.645 -0.6570 -0.5479  0.5684
41254SOL    HW132730  11.938   5.448   0.567 -0.0601  1.7463  1.0951
41254SOL    HW232731  11.867   5.349   0.657  1.5228 -1.1120 -0.6848
41255SOL     OW32732   9.558   9.082  12.295 -0.8954  0.0787  0.6931
41255SOL    HW132733   9.595   9.137  12.226 -2.2911 -2.0049 -1.8898
41255SOL    HW232734   9.621   9.089  12.367 -0.3225  3.8576  0.0629
41256SOL     OW32735   1.668   6.632   9.504  0.1783 -0.5452  0.4742
41256SOL    HW132736   1.679   6.662   9.594 -0.3906  1.0265  0.0529
41256SOL    HW232737   1.620   6.702   9.461  3.0714  0.1833 -1.8568
41257SOL     OW32738   6.543  12.189   2.789  0.1857  0.2769 -0.0482
41257SOL    HW132739   6.620  12.138   2.766 -0.6610 -1.3955  0.6485
41257SOL    HW232740   6.571  12.280   2.782  1.3515 -0.2068 -2.7460
41258SOL     OW32741   5.182   5.244   3.145 -0.2165  0.2332 -0.4730
41258SOL    HW132742   5.267   5.274   3.176  0.0225  1.0124 -1.8171
41258SOL    HW232743   5.194   5.231   3.051 -1.1987 -1.0290 -0.4528
41259SOL     OW32744   9.166   5.167   3.974 -0.0971 -0.1928 -0.3805
41259SOL    HW132745   9.178   5.147   3.881 -2.6703  0.7815 -1.0142
41259SOL    HW232746   9.197   5.258   3.983 -0.2284 -0.1487 -0.3741
41260SOL     OW32747  11.086   9.291  12.167 -0.0719 -0.1988 -0.1411
41260SOL    HW132748  11.114   9.256  12.083 -0.7898 -0.0067 -0.4677
41260SOL    HW232749  11.160   9.345  12.196  0.3462 -0.6031 -0.4485
41261SOL     OW32750  10.019   2.344   9.040  0.2647  0.2139  0.2569
41261SOL    HW132751  10.061   2.262   9.014 -1.7069 -0.8193  0.0820
41261SOL    HW232752   9.928   2.333   9.014 -0.1677  2.2683  0.7341
41262SOL     OW32753   9.566   7.918   4.221 -0.0782 -0.0905 -0.0497
41262SOL    HW132754   9.531   7.867   4.294 -1.1938 -0.2435 -0.6790
41262SOL    HW232755   9.492   7.971   4.191  0.5460  0.4505 -0.6569
41263SOL     OW32756   9.395   3.848   4.484  0.9350 -0.7253  0.3576
41263SOL    HW132757   9.431   3.933   4.458 -0.5791  0.4326  1.7984
41263SOL    HW232758   9.394   3.850   4.579 -2.1029 -0.9401  0.4408
41264SOL     OW32759  12.311   1.578   9.962 -0.0284  0.5383 -0.4361
41264SOL    HW132760  12.294   1.485   9.944  1.0194 -0.0089  1.1954
41264SOL    HW232761  12.263   1.597  10.042 -1.2862  1.8080 -1.4274
41265SOL     OW32762   6.964   3.759   9.163  0.0571  0.0800  0.1777
41265SOL    HW132763   6.911   3.824   9.210  0.0299  0.4272 -0.3277
41265SOL    HW232764   6.900   3.696   9.129 -0.1016  0.7579 -0.8421
41266SOL     OW32765   3.691   7.424   0.767  0.4672 -0.1826  0.7177
41266SOL    HW132766   3.728   7.436   0.679  3.1280  1.0328  1.9057
41266SOL    HW232767   3.616   7.366   0.753  1.5689 -1.1029 -2.1728
41267SOL     OW32768  10.720   8.794  12.377  0.3098  0.3986 -0.3380
41267SOL    HW132769  10.736   8.833  12.291 -2.7603  1.5532 -0.4739
41267SOL    HW232770  10.690   8.867  12.431  1.0705 -0.5455  1.4279
41268SOL     OW32771  10.353   2.949   0.278 -0.4577  0.1797  0.4709
41268SOL    HW132772  10.419   2.881   0.275  1.8252  2.2219  1.3320
41268SOL    HW232773  10.278   2.908   0.322  1.4081 -1.3545  2.4428
41269SOL     OW32774   8.052   2.662   7.572  0.0608 -0.3059 -0.2885
41269SOL    HW132775   7.989   2.728   7.543  1.2698  1.5775  1.0842
41269SOL    HW232776   8.105   2.645   7.494  0.7877  1.6928 -0.3065
41270SOL     OW32777   8.142   9.686   9.080 -0.1137  1.1394  0.0063
41270SOL    HW132778   8.083   9.696   9.005  1.4404 -1.0418 -1.6288
41270SOL    HW232779   8.109   9.610   9.127  0.1401  1.2315  0.3404
41271SOL     OW32780   1.784   3.111   6.071  0.2292  0.2769  0.2035
41271SOL    HW132781   1.848   3.180   6.057  0.3340  0.5401  1.8509
41271SOL    HW232782   1.833   3.030   6.057  0.2062  0.4851 -1.3075
41272SOL     OW32783   9.019   3.494  12.230 -0.0954 -0.2662 -0.4781
41272SOL    HW132784   9.020   3.524  12.139 -0.7410  2.0149  0.2055
41272SOL    HW232785   8.960   3.419  12.230  1.3804 -1.4966 -2.2471
41273SOL     OW32786   8.285   7.427  12.271 -0.1424 -0.0769  0.5440
41273SOL    HW132787   8.251   7.368  12.339  0.6187 -1.3591 -0.1549
41273SOL    HW232788   8.343   7.487  12.319 -0.7224 -0.0419  1.2264
41274SOL     OW32789   5.389  11.366   7.670 -1.0196  0.2202 -0.2466
41274SOL    HW132790   5.307  11.357   7.622 -1.4439  0.6940  0.3676
41274SOL    HW232791   5.365  11.412   7.750  0.0353  1.4498 -0.5849
41275SOL     OW32792   5.329   0.001   8.386 -0.2162  0.7917  0.2881
41275SOL    HW132793   5.342   0.054   8.307 -0.3359 -0.4555 -0.6055
41275SOL    HW232794   5.240  -0.034   8.376  0.1834 -0.2827  0.4069
41276SOL     OW32795   1.556   9.913   5.533 -0.3227 -0.6770 -0.4257
41276SOL    HW132796   1.551   9.830   5.487 -0.3485  0.0575 -1.7912
41276SOL    HW232797   1.466   9.945   5.538 -0.2274 -0.3659 -0.6174
41277SOL     OW32798   9.633   8.184   6.175  0.0568  0.0231 -0.2297
41277SOL    HW132799   9.610   8.103   6.129 -1.2436  0.4919 -0.4518
41277SOL    HW232800   9.714   8.214   6.133 -0.4856 -0.1674 -1.4412
41278SOL     OW32801   3.937   2.273  11.135 -0.1827 -0.0152 -0.0142
41278SOL    HW132802   3.855   2.305  11.173 -0.5495 -1.7248  0.7541
41278SOL    HW232803   3.947   2.185  11.173  1.3189 -0.3532 -1.1342
41279SOL     OW32804   4.183   2.192   4.911 -0.2371 -0.5374 -0.1711
41279SOL    HW132805   4.234   2.178   4.831 -0.0882 -1.1461  0.0305
41279SOL    HW232806   4.196   2.285   4.931 -0.4631 -0.3201 -0.9809
41280SOL     OW32807   9.087   1.827   4.012 -0.7374 -0.4538  0.0241
41280SOL    HW132808   9.070   1.854   4.102 -1.6886  1.7773 -0.7587
41280SOL    HW232809   9.002   1.799   3.978  0.1205 -4.6058  0.6947
41281SOL     OW32810  11.594   7.020   2.734  0.3619 -0.0213 -0.3083
41281SOL    HW132811  11.553   6.947   2.779  0.7880 -0.5286 -0.7243
41281SOL    HW232812  11.676   6.984   2.699 -0.3421  0.1010 -2.2285
41282SOL     OW32813  12.066   2.248   7.271  0.7270 -0.0050 -0.2517
41282SOL    HW132814  12.069   2.177   7.335 -1.5972  0.7941  0.8353
41282SOL    HW232815  12.047   2.205   7.188  0.9272 -0.8004  0.1058
41283SOL     OW32816   6.001   2.166   1.330  0.2967 -0.1334 -0.3194
41283SOL    HW132817   5.936   2.137   1.266  1.9604 -3.7386 -0.6450
41283SOL    HW232818   6.063   2.218   1.279 -0.8562  1.0776 -0.5506
41284SOL     OW32819   9.716   1.529  12.002 -0.9015  0.3171  0.8093
41284SOL    HW132820   9.749   1.555  11.917 -0.1637  1.4267  1.4160
41284SOL    HW232821   9.786   1.474  12.039 -0.6758  0.8444  1.1850
41285SOL     OW32822   8.217  11.892  10.414 -0.2483 -0.4146  0.4966
41285SOL    HW132823   8.172  11.855  10.490 -0.1155 -0.4795  0.5442
41285SOL    HW232824   8.240  11.817  10.360  0.4232 -0.4546  0.8157
41286SOL     OW32825   0.800   6.141   1.261  0.3055 -0.1152  0.2537
41286SOL    HW132826   0.788   6.093   1.179 -1.8536  0.2472  0.3112
41286SOL    HW232827   0.808   6.233   1.234  0.7270 -0.1127  0.3811
41287SOL     OW32828   1.861   6.267   2.106 -0.0096  0.3014 -0.0904
41287SOL    HW132829   1.779   6.218   2.095 -0.3698  0.8197  0.2484
41287SOL    HW232830   1.930   6.203   2.088 -0.5003  0.1937 -1.7700
41288SOL     OW32831   6.177   3.421   9.285 -0.0873 -0.0510 -0.2320
41288SOL    HW132832   6.086   3.413   9.311 -0.1990  1.1822 -0.1589
41288SOL    HW232833   6.184   3.374   9.202 -0.3938 -1.5592  0.5800
41289SOL     OW32834   7.127  11.693   0.588  0.4937 -0.1827  0.2661
41289SOL    HW132835   7.124  11.716   0.495  1.8534 -0.1539  0.2034
41289SOL    HW232836   7.041  11.717   0.621  0.7685  2.1532 -0.4567
41290SOL     OW32837   1.857   1.296   8.206  0.8494  0.3109 -0.9220
41290SOL    HW132838   1.861   1.347   8.287 -1.5788 -0.5170 -0.1874
41290SOL    HW232839   1.853   1.205   8.236 -0.3239  0.0095 -1.9318
41291SOL     OW32840  11.109   3.098   5.971 -0.5294  0.1848  0.5545
41291SOL    HW132841  11.126   3.174   6.027 -0.1678 -0.5582  1.4771
41291SOL    HW232842  11.144   3.123   5.886  1.4551  0.2856  1.3574
41292SOL     OW32843   8.819   2.876  11.762 -0.1683 -0.4702 -0.1045
41292SOL    HW132844   8.823   2.953  11.819  0.9598  0.2155 -1.0812
41292SOL    HW232845   8.754   2.819  11.804 -0.0410  0.4175  1.3566
41293SOL     OW32846   2.466   2.732   2.207 -0.0907  0.0771 -0.3624
41293SOL    HW132847   2.431   2.791   2.140 -1.0411 -0.8859 -0.7435
41293SOL    HW232848   2.424   2.648   2.189  1.6194 -0.8805 -0.1680
41294SOL     OW32849   2.234   3.916   6.594  0.7222 -0.4915 -0.5584
41294SOL    HW132850   2.173   3.906   6.667  0.3035 -0.1453 -0.8549
41294SOL    HW232851   2.189   3.876   6.520 -0.2545  1.9289 -1.3763
41295SOL     OW32852   5.827  10.593   5.466  0.1189 -0.0917  0.0432
41295SOL    HW132853   5.756  10.594   5.530  0.5095  1.2718  0.4982
41295SOL    HW232854   5.805  10.664   5.405  1.5590  1.0269  0.7650
41296SOL     OW32855   1.796   3.009   3.893  0.6588 -0.2080  0.0931
41296SOL    HW132856   1.843   3.068   3.833  0.2787  1.0926  1.0407
41296SOL    HW232857   1.839   3.021   3.977 -0.2943 -0.2702  0.5991
41297SOL     OW32858   3.046   9.913   7.406 -0.3039  0.2773 -0.0232
41297SOL    HW132859   3.110   9.868   7.461 -0.7314  0.5127  0.6677
41297SOL    HW232860   3.088   9.996   7.383  0.4646 -0.4130 -1.2573
41298SOL     OW32861  12.052   6.552   8.426 -0.5186  0.1405 -0.4136
41298SOL    HW132862  11.978   6.549   8.366 -1.9958 -1.0825  1.3750
41298SOL    HW232863  12.034   6.626   8.484  0.5386  0.8708 -0.9712
41299SOL     OW32864   5.911  12.405   2.208 -0.4553  0.5050  0.0917
41299SOL    HW132865   5.999  12.406   2.247 -0.0736 -0.2748 -0.7158
41299SOL    HW232866   5.906  12.485   2.157 -0.2548  0.6027  0.2230
41300SOL     OW32867  11.141   4.269   3.310  0.3836  0.1800 -0.1616
41300SOL    HW132868  11.213   4.325   3.279  0.8632 -0.0750  0.4868
41300SOL    HW232869  11.069   4.287   3.248  0.7523  0.9980 -0.3697
41301SOL     OW32870  11.837   9.649   2.947  0.0957  0.2745  0.2781
41301SOL    HW132871  11.762   9.708   2.961  0.0885  0.7775 -1.6527
41301SOL    HW232872  11.900   9.674   3.015 -0.4970  1.5359  0.3930
41302SOL     OW32873   2.294   3.314   6.051  0.1051 -0.7196  0.1351
41302SOL    HW132874   2.341   3.293   5.970 -0.2761 -0.4384 -0.1673
41302SOL    HW232875   2.360   3.350   6.109  0.0416  0.9774 -0.7782
41303SOL     OW32876   1.051   0.677  11.550  0.4441  0.1901  0.0581
41303SOL    HW132877   1.048   0.586  11.521 -1.1581  0.5529 -1.0530
41303SOL    HW232878   1.047   0.728  11.469 -1.1916  1.2414  0.7636
41304SOL     OW32879   5.932  10.204   1.562 -0.1297  0.4940  0.0589
41304SOL    HW132880   5.866  10.136   1.573 -2.4085  2.1322 -2.3760
41304SOL    HW232881   5.994  10.168   1.498 -1.7802  0.8944 -1.8635
41305SOL     OW32882  10.630   6.295   4.664 -0.1631 -0.1482  0.1748
41305SOL    HW132883  10.653   6.269   4.575  2.2050 -1.2149  1.0311
41305SOL    HW232884  10.711   6.328   4.702 -1.3578  1.2937  1.6499
41306SOL     OW32885   8.749   2.941   4.124 -0.0261  0.1076  0.4700
41306SOL    HW132886   8.676   2.991   4.086 -1.0882 -0.6780  1.4242
41306SOL    HW232887   8.737   2.949   4.218  0.7093 -0.6579  0.6365
41307SOL     OW32888   9.823   8.979   9.591 -0.1419 -0.8883  0.2246
41307SOL    HW132889   9.739   8.941   9.566 -2.1638  1.5822  2.6884
41307SOL    HW232890   9.824   8.976   9.687  0.6335  2.7868  0.4721
41308SOL     OW32891   7.172  12.148   0.322 -0.1036 -0.5748 -0.6891
41308SOL    HW132892   7.227  12.216   0.283  3.3697 -2.0447  1.2674
41308SOL    HW232893   7.135  12.190   0.401  0.2317 -0.3047 -0.6721
41309SOL     OW32894  10.931  10.287   5.438  0.2508  0.4679  0.2535
41309SOL    HW132895  10.846  10.302   5.481 -0.6683  0.2498 -1.4103
41309SOL    HW232896  10.928  10.195   5.412  1.0609  0.4321  0.2677
41310SOL     OW32897   5.149   6.084   3.576  0.0927 -0.9220 -0.6862
41310SOL    HW132898   5.162   6.177   3.593  1.0632 -0.7225 -2.3232
41310SOL    HW232899   5.230   6.042   3.605 -0.3257 -1.2533  0.0104
41311SOL     OW32900   3.144   6.361   9.609  0.4710 -0.1383 -0.1309
41311SOL    HW132901   3.208   6.411   9.558 -0.5536 -1.3192 -2.7772
41311SOL    HW232902   3.063   6.369   9.559 -0.2516 -2.6330  0.5190
41312SOL     OW32903   7.824  10.440  12.419  0.4826  0.6308  0.3049
41312SOL    HW132904   7.833  10.464  12.327 -2.1801  3.0764  0.5449
41312SOL    HW232905   7.886  10.497  12.464  2.3301 -1.0770  0.0946
41313SOL     OW32906   4.334   1.095  10.079 -0.2545  0.5463 -0.2193
41313SOL    HW132907   4.340   1.002  10.058 -1.1685  0.7078 -1.2768
41313SOL    HW232908   4.256   1.102  10.135  0.4832  0.5326  0.8433
41314SOL     OW32909  10.939   2.579   8.004  0.7858 -0.3208  0.0869
41314SOL    HW132910  11.003   2.514   7.975  1.4536  1.2941 -2.3221
41314SOL    HW232911  10.990   2.655   8.030 -0.0675  0.4995 -0.5453
41315SOL     OW32912   8.394  12.488   3.720  0.5155 -0.0166 -0.0245
41315SOL    HW132913   8.343  12.535   3.653  0.5235 -0.4619 -0.3530
41315SOL    HW232914   8.413  12.403   3.679  0.3060 -0.3885  0.6425
41316SOL     OW32915   0.525   0.342   8.601 -0.3486  0.3124 -0.1661
41316SOL    HW132916   0.440   0.387   8.602 -0.0655  0.9323 -1.7921
41316SOL    HW232917   0.574   0.384   8.531  0.9689 -0.6833  0.1172
41317SOL     OW32918   9.894   3.218   3.564  0.7930 -0.1777  0.4962
41317SOL    HW132919   9.833   3.195   3.494  0.4342  0.4113  0.6055
41317SOL    HW232920   9.865   3.305   3.594  1.5735  0.0308  0.6752
41318SOL     OW32921   4.549   8.556   9.577 -0.5146  0.0246 -0.4360
41318SOL    HW132922   4.557   8.608   9.658  2.3239  0.9546 -1.2306
41318SOL    HW232923   4.611   8.484   9.588 -3.2935 -2.5214 -0.0175
41319SOL     OW32924   4.386   2.813   6.295 -0.4355 -0.2989 -0.0924
41319SOL    HW132925   4.305   2.793   6.247 -0.8992  0.6070  0.3016
41319SOL    HW232926   4.376   2.768   6.379 -0.9507  0.5845  0.3250
41320SOL     OW32927   6.359   5.285  12.298  0.1185 -0.2644  0.5011
41320SOL    HW132928   6.383   5.274  12.206  0.0031 -2.0922  0.6471
41320SOL    HW232929   6.296   5.357  12.299  1.6327  1.1448 -0.5618
41321SOL     OW32930   6.985   6.706   6.721  0.3147  0.2066 -0.0253
41321SOL    HW132931   6.941   6.623   6.738  1.4473 -0.6499 -1.0581
41321SOL    HW232932   6.922   6.773   6.750 -1.0693 -0.9753 -0.1545
41322SOL     OW32933   1.413   8.975   2.630 -0.4473 -0.1900 -0.4285
41322SOL    HW132934   1.418   8.941   2.720 -1.5309 -1.0348 -0.6636
41322SOL    HW232935   1.454   9.062   2.635 -1.4024  0.2181  1.1081
41323SOL     OW32936   6.097   6.111   3.469 -0.0803 -0.4051  0.2923
41323SOL    HW132937   6.104   6.132   3.562 -0.5643 -0.3446  0.3175
41323SOL    HW232938   6.179   6.066   3.448 -0.1576 -0.8114  0.8504
41324SOL     OW32939   6.632  10.852   7.070 -0.1522  0.3508  0.5712
41324SOL    HW132940   6.570  10.918   7.040  1.5321  1.5555 -0.4110
41324SOL    HW232941   6.660  10.807   6.990  0.6640  0.2399  0.9033
41325SOL     OW32942   1.429   5.984   3.325 -0.4373  0.6253  0.0044
41325SOL    HW132943   1.391   6.062   3.365 -1.2780  0.2272  0.0017
41325SOL    HW232944   1.522   5.988   3.347 -0.0954  2.5851 -1.5354
41326SOL     OW32945   2.616  10.107  11.719  0.3343  0.5062  0.5821
41326SOL    HW132946   2.541  10.071  11.766  1.4157 -1.8963  0.5908
41326SOL    HW232947   2.692  10.075  11.767  1.4262 -0.1552 -1.4875
41327SOL     OW32948   7.087   9.661   0.304  0.2037 -0.3035  0.1845
41327SOL    HW132949   7.061   9.573   0.331  0.8213 -0.2495  0.9857
41327SOL    HW232950   7.004   9.709   0.296 -0.1059 -0.8224  0.2143
41328SOL     OW32951   1.715   2.457   5.724  0.1300  0.6896 -0.3638
41328SOL    HW132952   1.751   2.498   5.646 -0.7601  0.2051 -1.0353
41328SOL    HW232953   1.720   2.363   5.707 -2.3094  0.5924 -0.9090
41329SOL     OW32954  11.849   5.621   3.171 -0.0245  0.4914 -0.3839
41329SOL    HW132955  11.781   5.673   3.213  0.8750 -0.0791  1.9582
41329SOL    HW232956  11.809   5.588   3.091 -2.6254 -0.0798  1.0378
41330SOL     OW32957   6.603   4.017   1.171  0.1699  0.6705 -0.0713
41330SOL    HW132958   6.538   4.086   1.155 -1.7650 -1.4744 -2.3485
41330SOL    HW232959   6.589   3.992   1.262 -0.4947  1.9101  0.1964
41331SOL     OW32960   5.859   4.932   7.586 -0.3395 -0.2096  0.4785
41331SOL    HW132961   5.901   4.864   7.638 -0.5735  1.1843  2.5913
41331SOL    HW232962   5.926   4.999   7.575 -0.5644 -0.1009 -0.3180
41332SOL     OW32963   8.598  11.196   9.560 -0.1000 -0.2997 -0.1021
41332SOL    HW132964   8.530  11.263   9.565  0.7986  0.5595  1.4512
41332SOL    HW232965   8.649  11.220   9.482 -1.4489 -0.8836 -1.2108
41333SOL     OW32966   8.053   7.176   2.735 -0.4808  0.3539  0.1721
41333SOL    HW132967   8.140   7.179   2.775 -1.2430 -0.6533  2.0580
41333SOL    HW232968   8.033   7.082   2.728 -2.1504  0.5323  1.6207
41334SOL     OW32969   5.113   7.320  11.137  0.4773  0.6504 -0.4238
41334SOL    HW132970   5.207   7.310  11.152  0.2917  1.6918  1.8750
41334SOL    HW232971   5.093   7.409  11.167 -1.3231  0.2713 -0.3864
41335SOL     OW32972   8.787   0.377   5.177 -0.3148  0.2527  0.1572
41335SOL    HW132973   8.833   0.311   5.228 -2.0900 -0.7228  0.5608
41335SOL    HW232974   8.731   0.327   5.118  2.3060  1.2876 -3.5574
41336SOL     OW32975   7.585   6.952   3.700 -0.0184  0.1304 -0.3473
41336SOL    HW132976   7.590   7.024   3.763  1.2947 -0.4744  0.2730
41336SOL    HW232977   7.596   6.994   3.615  1.3504  0.6233  0.0444
41337SOL     OW32978  11.127  11.695   7.887 -0.7196  0.1212  0.3602
41337SOL    HW132979  11.186  11.647   7.830  0.6979  2.5388 -0.3645
41337SOL    HW232980  11.093  11.630   7.948 -0.5318 -2.1189 -1.7965
41338SOL     OW32981  12.019   9.325   1.046 -0.1759 -0.4001 -0.6422
41338SOL    HW132982  11.991   9.367   0.964 -1.2245  0.3541  0.0763
41338SOL    HW232983  12.076   9.388   1.087  0.1201 -0.6612 -0.6487
41339SOL     OW32984   5.072   2.215  12.585  0.1817  0.2122 -0.1981
41339SOL    HW132985   5.096   2.142  12.642 -0.0758  0.7253  0.5813
41339SOL    HW232986   5.138   2.213  12.515  0.2266 -0.7076 -0.1447
41340SOL     OW32987   9.117   9.968  10.653 -0.5267  0.5248  0.2288
41340SOL    HW132988   9.075   9.890  10.688  0.0008 -0.1746 -0.6620
41340SOL    HW232989   9.052  10.037  10.663 -0.9637  0.0001  1.1031
41341SOL     OW32990   0.112   1.586   8.164  0.2240 -0.4531  0.7978
41341SOL    HW132991   0.079   1.497   8.154  0.4835 -0.3756 -1.1527
41341SOL    HW232992   0.042   1.641   8.130  1.2256 -0.1348 -0.8941
41342SOL     OW32993  10.112   6.487  10.247  0.2259  0.1188  0.3633
41342SOL    HW132994  10.137   6.571  10.208  0.2116  0.0733  0.2563
41342SOL    HW232995  10.163   6.423  10.198 -0.5105 -0.0304 -0.2310
41343SOL     OW32996   8.721   0.773  11.936 -0.1466 -0.1618  0.0597
41343SOL    HW132997   8.648   0.824  11.900 -0.9778 -0.6723  0.9548
41343SOL    HW232998   8.679   0.694  11.970  0.5433  0.3864  2.3224
41344SOL     OW32999   0.478   4.463   5.183  0.6125  0.1637  0.4388
41344SOL    HW133000   0.427   4.383   5.167  0.9968 -0.2045  1.0069
41344SOL    HW233001   0.527   4.476   5.102  2.1055 -1.3547  1.0356
41345SOL     OW33002  12.391  11.079   6.889  0.8741 -0.2991  0.6828
41345SOL    HW133003  12.352  11.072   6.802 -2.1909  1.3921  1.7683
41345SOL    HW233004  12.358  11.003   6.936  0.4214  0.1362  1.0770
41346SOL     OW33005   4.806   3.284  12.472  0.1366 -0.1616 -0.1670
41346SOL    HW133006   4.773   3.280  12.382  1.8160 -1.0062 -0.7943
41346SOL    HW233007   4.851   3.368  12.478 -0.6971  0.2656  0.1609
41347SOL     OW33008   2.517   3.996   0.093  0.0880  0.2583 -0.3568
41347SOL    HW133009   2.441   4.054   0.091 -1.2161 -1.3656 -0.2882
41347SOL    HW233010   2.533   3.975   0.001 -0.8629 -0.9898 -0.2619
41348SOL     OW33011  12.339  11.987  10.300 -0.2630 -0.0361 -0.3358
41348SOL    HW133012  12.319  11.919  10.364 -0.1360  0.0935 -0.1584
41348SOL    HW233013  12.375  12.059  10.351  0.2990 -0.1177 -0.6051
41349SOL     OW33014  12.564   2.329   6.559  0.5610  0.6709  0.6146
41349SOL    HW133015  12.621   2.404   6.572  0.1262  0.9614  0.8998
41349SOL    HW233016  12.542   2.331   6.466  1.8021 -0.0293  0.2824
41350SOL     OW33017   3.718   1.423   9.051 -0.4037  0.3697 -0.1248
41350SOL    HW133018   3.727   1.518   9.038  0.7848  0.3871  0.6957
41350SOL    HW233019   3.670   1.415   9.134  0.4556  0.2666  0.3725
41351SOL     OW33020   3.725   0.000   3.639  0.1526 -0.1168 -0.1795
41351SOL    HW133021   3.765  -0.043   3.564  1.4071  0.1510  0.3083
41351SOL    HW233022   3.767  -0.040   3.715 -2.0983 -1.4091  0.4901
41352SOL     OW33023   3.164   8.952   5.069 -0.3242 -0.3303  0.3130
41352SOL    HW133024   3.173   8.896   4.992 -0.5819 -1.4655  1.0815
41352SOL    HW233025   3.254   8.968   5.097 -0.1831  0.7835 -0.6770
41353SOL     OW33026  11.754   7.305   8.823  0.4730 -0.4017 -0.0618
41353SOL    HW133027  11.664   7.302   8.789 -0.3343 -0.9225  1.9846
41353SOL    HW233028  11.784   7.394   8.802 -0.2400 -0.4436 -1.3839
41354SOL     OW33029   9.522   4.877   2.897  0.0774  0.1290 -1.0382
41354SOL    HW133030   9.470   4.806   2.933  0.7358 -0.6363 -1.5578
41354SOL    HW233031   9.474   4.957   2.920 -0.4106 -0.4493 -0.0174
41355SOL     OW33032   5.381   6.223   1.817  0.3470 -0.5514 -0.5202
41355SOL    HW133033   5.393   6.314   1.842  2.0570 -1.0118  0.4709
41355SOL    HW233034   5.286   6.211   1.815  0.1115  0.9420  0.4736
41356SOL     OW33035   3.889   4.489   6.888 -0.5330 -0.3234  0.1488
41356SOL    HW133036   3.909   4.447   6.805 -1.8920 -0.5088 -0.1135
41356SOL    HW233037   3.952   4.561   6.895  0.8205 -1.4571 -0.1209
41357SOL     OW33038   2.111  10.881   4.019  0.2586  0.1930 -0.2855
41357SOL    HW133039   2.151  10.966   4.001  0.7945  0.5203  2.1196
41357SOL    HW233040   2.133  10.828   3.943  1.1309  1.7798 -1.2036
41358SOL     OW33041   4.918  12.106   9.359  0.7617 -0.2165  0.4446
41358SOL    HW133042   4.995  12.109   9.303  2.0587  0.3352  2.1451
41358SOL    HW233043   4.924  12.186   9.411 -1.0180 -0.1376  0.5585
41359SOL     OW33044   9.664   3.673  10.148  0.6940  0.0177 -0.0675
41359SOL    HW133045   9.600   3.619  10.195 -1.1737  1.4278 -0.8251
41359SOL    HW233046   9.641   3.763  10.171  1.7333  0.6087 -1.2042
41360SOL     OW33047   7.776   2.479   4.188  0.4494 -0.3464 -0.6732
41360SOL    HW133048   7.827   2.407   4.225 -1.1187 -0.4011  1.5500
41360SOL    HW233049   7.690   2.470   4.228 -0.6664  1.0819 -2.5849
41361SOL     OW33050  10.583   9.182   9.924  0.2104  0.6243 -0.3851
41361SOL    HW133051  10.630   9.189  10.007 -0.4762 -0.4447  0.1079
41361SOL    HW233052  10.524   9.258   9.924  0.5231  0.8730 -0.1110
41362SOL     OW33053   0.617   9.541   3.844  0.1326  0.4041 -0.1358
41362SOL    HW133054   0.580   9.560   3.930  1.5466  2.8725  0.0334
41362SOL    HW233055   0.549   9.568   3.782 -2.3720 -4.5826 -0.0221
41363SOL     OW33056   7.296   7.730  10.027  0.5660  0.4230 -0.1524
41363SOL    HW133057   7.279   7.638  10.047 -2.4171  0.3669 -2.2819
41363SOL    HW233058   7.256   7.778  10.100  0.5639  0.0564  0.0881
41364SOL     OW33059   5.539   8.867   3.629  0.2492  0.6191  0.5611
41364SOL    HW133060   5.565   8.921   3.555  0.3137 -0.3143 -0.1105
41364SOL    HW233061   5.619   8.824   3.657  0.2320  0.9955  1.2011
41365SOL     OW33062   4.340  10.807   0.756  0.2411 -0.0736 -0.4781
41365SOL    HW133063   4.399  10.752   0.807  0.5407  1.5361  1.0055
41365SOL    HW233064   4.361  10.786   0.665  1.3012 -1.3699  0.0218
41366SOL     OW33065   2.943   0.246  10.933 -0.5370  0.2373 -0.4383
41366SOL    HW133066   2.920   0.304  11.006  0.0704  0.3852 -0.3562
41366SOL    HW233067   3.003   0.298  10.879  1.1870 -0.7687  0.4047
41367SOL     OW33068   4.539  12.266   2.529 -0.2319  0.5148 -0.6683
41367SOL    HW133069   4.557  12.359   2.539  1.8470  0.2151 -1.1767
41367SOL    HW233070   4.563  12.246   2.439 -0.3959 -0.5664 -0.4911
41368SOL     OW33071   4.457   0.290   9.748  0.8457  0.4788  0.3861
41368SOL    HW133072   4.376   0.325   9.711  0.2351 -0.9072  0.3723
41368SOL    HW233073   4.525   0.316   9.686  0.1871  0.2932 -0.4311
41369SOL     OW33074   1.415   0.491   8.266 -0.6450 -0.1018 -0.1791
41369SOL    HW133075   1.326   0.478   8.232  0.1683 -0.7484 -2.2834
41369SOL    HW233076   1.466   0.422   8.224  1.0359  0.8351  0.2364
41370SOL     OW33077   5.651   8.988   1.694  0.0417  0.0926 -0.1111
41370SOL    HW133078   5.565   9.021   1.723  0.6117  0.3622  1.4054
41370SOL    HW233079   5.631   8.910   1.643 -1.0817 -0.5845  1.2795
41371SOL     OW33080   9.606   6.948  12.502  0.4351  0.1336  0.5569
41371SOL    HW133081   9.654   6.999  12.566  0.3359  1.6215 -0.4889
41371SOL    HW233082   9.537   7.007  12.471 -0.8451 -1.2719  0.6103
41372SOL     OW33083   0.780   4.090   6.671  0.3941  0.3372  0.0946
41372SOL    HW133084   0.718   4.157   6.640  0.2962  0.5825  0.8046
41372SOL    HW233085   0.850   4.140   6.713 -0.0409 -0.0281  1.2846
41373SOL     OW33086   8.310   5.864  12.525  0.4706 -0.1166 -0.1571
41373SOL    HW133087   8.230   5.840  12.571 -0.8126  1.9528 -1.1755
41373SOL    HW233088   8.361   5.913  12.590  1.0684 -1.6177  0.5579
41374SOL     OW33089   4.732   5.451   3.366 -0.7978  0.0929  0.0019
41374SOL    HW133090   4.804   5.476   3.423 -1.6887  0.8988  0.7866
41374SOL    HW233091   4.735   5.355   3.365 -0.5445  0.0796  1.1068
41375SOL     OW33092   0.280   7.504  10.371 -0.4116  0.2623 -0.2142
41375SOL    HW133093   0.358   7.511  10.317  0.1876  0.1188  0.6090
41375SOL    HW233094   0.207   7.506  10.309  0.2806 -0.6135 -1.0759
41376SOL     OW33095   7.356   5.261   1.487 -0.1364  0.0058  0.6570
41376SOL    HW133096   7.400   5.239   1.404 -0.1990  0.5461  0.4807
41376SOL    HW233097   7.346   5.356   1.485 -2.3163 -0.1701  0.1795
41377SOL     OW33098   2.726   6.350   8.230 -0.2526 -0.2795  0.1493
41377SOL    HW133099   2.746   6.404   8.153  0.8615  0.8769  1.1948
41377SOL    HW233100   2.792   6.281   8.229 -0.1417 -0.1745  0.1440
41378SOL     OW33101   1.142  12.593   9.344  0.4803 -0.0322 -0.1061
41378SOL    HW133102   1.215  12.531   9.354 -0.8531 -1.5690  0.3853
41378SOL    HW233103   1.095  12.562   9.267 -0.9168 -0.4003  0.8688
41379SOL     OW33104   1.031   9.271   4.347 -0.3914  0.4177 -0.4616
41379SOL    HW133105   1.054   9.313   4.264 -1.2615  0.6410 -0.6025
41379SOL    HW233106   0.971   9.200   4.323 -1.6936  1.2967  0.0555
41380SOL     OW33107   7.619  10.565  11.085  0.0384 -0.1376 -0.0434
41380SOL    HW133108   7.540  10.586  11.135  0.4554 -0.3637  0.7247
41380SOL    HW233109   7.655  10.487  11.127  1.2176  0.5404  0.2530
41381SOL     OW33110   3.298  10.290  10.978 -0.4397  0.7122  0.0870
41381SOL    HW133111   3.285  10.342  11.057 -2.2281 -0.2386  0.4857
41381SOL    HW233112   3.252  10.338  10.909 -0.1490  0.7953 -0.0513
41382SOL     OW33113  10.083   5.894   9.417 -0.2426  0.0496 -0.3243
41382SOL    HW133114  10.062   5.886   9.510 -1.0024 -0.8911 -0.5635
41382SOL    HW233115  10.028   5.966   9.386  0.9910  1.2587  0.2209
41383SOL     OW33116   5.662   0.854   9.115  0.5460 -0.3918 -0.0578
41383SOL    HW133117   5.576   0.846   9.157 -0.1705  0.9241 -1.1649
41383SOL    HW233118   5.723   0.814   9.176 -0.3861  1.6738  2.3952
41384SOL     OW33119  10.936   7.622  11.794 -0.3371  0.5002 -0.5287
41384SOL    HW133120  10.907   7.663  11.875 -1.4796  0.8024 -1.0806
41384SOL    HW233121  10.884   7.541  11.788 -2.4348  1.8749 -2.3814
41385SOL     OW33122   3.107   2.373   3.697  0.5386  0.5019  1.2296
41385SOL    HW133123   3.194   2.390   3.661  0.6024 -0.5435  0.8688
41385SOL    HW233124   3.094   2.279   3.686 -1.5141  0.9205 -0.7541
41386SOL     OW33125   0.106   5.526   9.286  0.2821  0.7410  0.2287
41386SOL    HW133126   0.084   5.501   9.376 -1.9578 -0.2456 -0.5357
41386SOL    HW233127   0.170   5.460   9.259 -1.5700 -1.0798  0.0352
41387SOL     OW33128   6.422   3.057   4.460  0.3875 -0.3754 -0.1064
41387SOL    HW133129   6.381   2.971   4.461 -0.0965 -0.2172 -2.1632
41387SOL    HW233130   6.438   3.077   4.552  1.7854 -3.2203  0.3658
41388SOL     OW33131  11.196   8.654   9.593  0.5205  0.1639  0.6058
41388SOL    HW133132  11.225   8.722   9.532 -1.4079  1.4956  1.0765
41388SOL    HW233133  11.238   8.677   9.676 -1.3246  1.8147  1.1691
41389SOL     OW33134   1.189   0.666   0.656 -0.0110 -0.0901 -0.5825
41389SOL    HW133135   1.101   0.637   0.680  0.8150 -1.4674  0.9375
41389SOL    HW233136   1.234   0.587   0.627  1.2596  0.2574  0.3482
41390SOL     OW33137   9.424   8.087   8.729  0.2542  0.2158  0.3432
41390SOL    HW133138   9.463   8.171   8.707  1.3203 -0.3932 -0.1959
41390SOL    HW233139   9.480   8.052   8.799  0.5633 -0.5665 -0.2705
41391SOL     OW33140   5.060  10.780  12.252 -0.1472  0.2406 -0.7234
41391SOL    HW133141   5.069  10.739  12.166 -0.0858 -1.9102  0.2485
41391SOL    HW233142   5.150  10.800  12.279 -0.1060  0.2130 -0.8419
41392SOL     OW33143   2.287   0.744   3.288  0.6645  0.3906 -0.2373
41392SOL    HW133144   2.225   0.680   3.255 -1.6200  2.2668  0.1686
41392SOL    HW233145   2.270   0.748   3.382  1.3063  1.0347 -0.1338
41393SOL     OW33146  11.562   9.386  10.943 -0.3549  0.3419  0.4058
41393SOL    HW133147  11.489   9.448  10.936 -1.2773 -0.7922 -0.3189
41393SOL    HW233148  11.631   9.436  10.987 -0.8733  2.0567 -0.6345
41394SOL     OW33149   0.216   5.484   8.815 -0.1034  0.8504  0.1996
41394SOL    HW133150   0.217   5.412   8.752 -0.1385  0.8479  0.2015
41394SOL    HW233151   0.129   5.479   8.855  0.3135  0.1705  1.0318
41395SOL     OW33152  10.964   0.291  10.794  0.3005  0.3667  0.2140
41395SOL    HW133153  10.916   0.218  10.754 -0.6122  2.2895 -2.5254
41395SOL    HW233154  10.895   0.348  10.829  0.7757  1.4081 -0.5114
41396SOL     OW33155   5.779   8.872   5.089  0.3441  0.7917 -0.0723
41396SOL    HW133156   5.801   8.779   5.086 -0.6066  0.4592  1.9960
41396SOL    HW233157   5.684   8.876   5.076  0.0783  1.2758  1.7801
41397SOL     OW33158  11.627   3.315   2.549 -0.0825 -0.5146 -0.0072
41397SOL    HW133159  11.667   3.230   2.528  0.6045  0.5250 -3.5433
41397SOL    HW233160  11.533   3.299   2.543 -0.0566 -1.4066  1.3808
41398SOL     OW33161   5.727   2.635  10.178  0.3462 -0.0119 -0.1187
41398SOL    HW133162   5.798   2.666  10.234 -0.2458 -1.3382  1.4562
41398SOL    HW233163   5.726   2.540  10.191 -0.6721 -0.2011 -1.3702
41399SOL     OW33164   1.130   0.320   5.833 -0.5523 -0.4487 -0.2557
41399SOL    HW133165   1.063   0.376   5.874  0.6418  0.7990  0.0617
41399SOL    HW233166   1.145   0.360   5.747  3.1003  2.2586  1.3948
41400SOL     OW33167   5.507  11.239   1.911 -0.3630 -0.4006  0.3407
41400SOL    HW133168   5.483  11.207   1.825  0.3770  0.4020 -0.1786
41400SOL    HW233169   5.602  11.230   1.915 -0.2457  0.7728  0.5621
41401SOL     OW33170   3.644   3.207   7.405 -0.3489  0.1993  0.3025
41401SOL    HW133171   3.624   3.252   7.488  0.3628 -0.4191  0.8281
41401SOL    HW233172   3.737   3.184   7.413  0.8606  3.4507 -2.2547
41402SOL     OW33173  11.825   6.622   3.803  0.0350 -0.1451  0.7035
41402SOL    HW133174  11.743   6.651   3.843 -1.1606 -1.3259 -0.7600
41402SOL    HW233175  11.852   6.547   3.856 -0.7115 -0.7442  0.2584
41403SOL     OW33176   6.864   9.798   4.036  0.0202  0.1049 -0.7723
41403SOL    HW133177   6.802   9.853   4.084 -0.5336  0.1398 -1.5115
41403SOL    HW233178   6.827   9.791   3.948  0.7033 -0.4642 -1.0247
41404SOL     OW33179   2.772  10.879   6.485 -0.1883 -0.1170  0.0265
41404SOL    HW133180   2.743  10.941   6.418  2.4913  2.0250  0.6545
41404SOL    HW233181   2.751  10.921   6.568 -0.5753 -1.2454  0.5166
41405SOL     OW33182  10.249   5.666  11.471  0.0525  0.1656  0.3369
41405SOL    HW133183  10.176   5.680  11.411 -1.1150  0.6458  1.8231
41405SOL    HW233184  10.312   5.616  11.420 -1.8697 -1.4254 -0.6192
41406SOL     OW33185  10.233   4.170   1.022  0.3415  0.2935  0.0035
41406SOL    HW133186  10.214   4.258   0.990 -2.4194 -0.7359 -1.5288
41406SOL    HW233187  10.189   4.166   1.107  0.0948  0.2827 -0.1223
41407SOL     OW33188   6.503   6.420   1.782 -0.2097  1.0157 -0.0775
41407SOL    HW133189   6.441   6.489   1.810 -1.0159  0.8067 -1.2548
41407SOL    HW233190   6.451   6.364   1.724  0.7120 -0.0227  0.0801
41408SOL     OW33191   7.142   8.281   2.348  0.2596 -0.1699  0.0259
41408SOL    HW133192   7.109   8.226   2.419  3.8079 -2.5440  0.0637
41408SOL    HW233193   7.140   8.370   2.385 -0.7163 -0.9241  1.9751
41409SOL     OW33194  11.036   4.233   2.232 -0.3101  0.9689 -0.9565
41409SOL    HW133195  11.072   4.150   2.264  0.2346  1.2662 -0.7819
41409SOL    HW233196  11.101   4.265   2.169 -0.4115  1.3670 -0.8607
41410SOL     OW33197  10.179   6.051   5.114  0.5647  0.0495 -0.5784
41410SOL    HW133198  10.159   5.986   5.046  0.7040  0.5676 -1.1245
41410SOL    HW233199  10.177   6.135   5.068  0.8364  0.3920  0.0260
41411SOL     OW33200  12.597   2.849   8.647 -0.2147  0.0009  0.4457
41411SOL    HW133201  12.644   2.792   8.708 -0.6852 -0.8155  0.0759
41411SOL    HW233202  12.577   2.792   8.573 -1.5024  0.4056  0.4602
41412SOL     OW33203  10.533   2.270   4.811  0.3969 -0.5881 -0.2831
41412SOL    HW133204  10.571   2.224   4.887 -0.3417  0.1832  0.5824
41412SOL    HW233205  10.602   2.267   4.745  1.4281 -0.4620  0.7458
41413SOL     OW33206   6.698   2.221   4.987  0.2088 -0.1259 -0.5186
41413SOL    HW133207   6.637   2.199   5.058  0.3155  1.7061  0.1953
41413SOL    HW233208   6.732   2.136   4.958 -0.4529 -0.9874  1.0777
41414SOL     OW33209   6.511   0.741   1.615  0.4367 -0.3082 -0.1402
41414SOL    HW133210   6.521   0.719   1.522  0.0682 -0.4867 -0.1398
41414SOL    HW233211   6.539   0.832   1.621 -0.6627  0.0738 -0.6405
41415SOL     OW33212   7.077  10.673   9.109 -0.7058 -0.5902  0.5640
41415SOL    HW133213   7.130  10.599   9.138  1.0957  0.3861 -0.0573
41415SOL    HW233214   7.118  10.750   9.149 -1.2031  0.2738 -0.5068
41416SOL     OW33215   0.548  11.077   2.064  0.1185  0.2153 -0.2971
41416SOL    HW133216   0.495  11.105   1.988  0.7812 -2.0631 -1.7163
41416SOL    HW233217   0.514  11.128   2.137 -1.2830  1.7610 -1.9291
41417SOL     OW33218   7.007   8.746   0.156  0.8315  0.3311 -0.2200
41417SOL    HW133219   7.042   8.665   0.120 -1.4865 -0.5314 -0.7556
41417SOL    HW233220   7.004   8.732   0.250  0.4178 -0.2428 -0.3120
41418SOL     OW33221   9.045   8.482   0.609 -0.4909  0.6033 -0.7037
41418SOL    HW133222   9.065   8.555   0.551  1.4899 -0.0134 -0.8634
41418SOL    HW233223   8.988   8.426   0.557 -0.5579  1.1443 -1.2334
41419SOL     OW33224   3.289   5.733   6.728 -0.1354  0.1714 -0.1856
41419SOL    HW133225   3.362   5.781   6.689 -0.5163  0.5052 -0.4964
41419SOL    HW233226   3.259   5.789   6.801  0.2065 -0.1781  0.2246
41420SOL     OW33227   7.286  11.964  10.592 -0.5385  0.3620  0.3597
41420SOL    HW133228   7.264  11.947  10.501 -1.6786  0.8308  0.5269
41420SOL    HW233229   7.378  11.990  10.590 -0.0307 -1.3239 -0.4228
41421SOL     OW33230  10.597   8.324  11.659  0.2713  0.8955 -0.2819
41421SOL    HW133231  10.502   8.330  11.673 -0.2547 -1.3989 -2.0883
41421SOL    HW233232  10.629   8.275  11.734 -0.6993 -1.6680 -1.3977
41422SOL     OW33233   9.732   0.397  10.644 -0.7433 -0.1193  0.3277
41422SOL    HW133234   9.797   0.437  10.586 -0.9831 -1.2322 -0.7502
41422SOL    HW233235   9.737   0.448  10.725  2.2815 -0.8589  0.7174
41423SOL     OW33236   2.410   5.341  12.575  0.2761 -0.6950 -0.1618
41423SOL    HW133237   2.497   5.323  12.539  0.1837 -2.1359  0.2681
41423SOL    HW233238   2.350   5.294  12.518 -0.4071  1.3791 -1.2773
41424SOL     OW33239   1.600   2.453   1.258 -0.0362  0.2313  0.5367
41424SOL    HW133240   1.648   2.533   1.281 -0.0192 -0.2185  2.2226
41424SOL    HW233241   1.534   2.444   1.327 -1.7523  0.1463 -1.0504
41425SOL     OW33242   5.675   9.585  10.034  0.0669  0.5849  0.0372
41425SOL    HW133243   5.688   9.491  10.018 -2.6843 -0.1938  1.7598
41425SOL    HW233244   5.735   9.605  10.106  0.8387  0.2451 -0.4884
41426SOL     OW33245   8.212  12.510   1.629  0.3479 -0.0199  0.7272
41426SOL    HW133246   8.250  12.597   1.620 -2.2437  1.0287 -1.0432
41426SOL    HW233247   8.172  12.510   1.716  2.4989 -0.4578  1.8025
41427SOL     OW33248   9.845   8.675   9.336  0.0562 -0.3976  0.2661
41427SOL    HW133249   9.881   8.748   9.286  0.3142  0.1934  1.2688
41427SOL    HW233250   9.868   8.695   9.427 -1.4037 -0.8240  0.7614
41428SOL     OW33251   7.996   3.703   2.312 -0.6296 -0.6525  0.1281
41428SOL    HW133252   7.968   3.650   2.386 -1.5640  1.9404  1.7526
41428SOL    HW233253   8.074   3.658   2.278  0.4984 -1.3843  3.3740
41429SOL     OW33254   3.648   5.212   8.825  0.4789 -0.1845 -0.0496
41429SOL    HW133255   3.707   5.287   8.826  0.7226 -0.3181 -1.9319
41429SOL    HW233256   3.598   5.222   8.744 -0.2164 -1.5038  0.1926
41430SOL     OW33257   7.123   5.880   3.999  0.3821 -0.0812 -0.6426
41430SOL    HW133258   7.084   5.950   3.948  1.5835  1.0358 -0.0742
41430SOL    HW233259   7.217   5.897   3.997  0.7977 -2.1420 -1.1570
41431SOL     OW33260   7.302   6.101   6.089  0.1698  0.0174  0.1359
41431SOL    HW133261   7.353   6.116   6.168  0.8133 -1.7385  0.1077
41431SOL    HW233262   7.340   6.022   6.050 -1.0461  0.0198 -1.1643
41432SOL     OW33263   9.404   6.402   7.269 -0.2404  0.3885  0.0025
41432SOL    HW133264   9.445   6.396   7.183 -0.5932  1.7263 -0.2800
41432SOL    HW233265   9.474   6.377   7.330 -0.2496 -1.4534 -0.6923
41433SOL     OW33266   6.866   1.141   6.982  0.5112 -0.4280  0.3537
41433SOL    HW133267   6.835   1.197   6.912  1.6674 -1.2070 -0.8453
41433SOL    HW233268   6.834   1.181   7.062  0.3715  1.3039 -0.5338
41434SOL     OW33269  12.237  12.585  10.318 -0.1708 -0.2054  0.2037
41434SOL    HW133270  12.196  12.499  10.314 -2.1711  0.7009 -0.1898
41434SOL    HW233271  12.163  12.647  10.323  1.1930  1.4783  0.7055
41435SOL     OW33272   7.646   6.816  11.497 -0.0579 -0.6187  0.6408
41435SOL    HW133273   7.592   6.866  11.436  1.3591 -1.0473 -1.0600
41435SOL    HW233274   7.632   6.724  11.473  1.1314 -0.7516  0.3701
41436SOL     OW33275   9.180   8.597  10.520  0.0764  0.2435 -0.2828
41436SOL    HW133276   9.153   8.509  10.547 -0.1488  0.6085  0.7413
41436SOL    HW233277   9.189   8.591  10.425  0.2671 -0.9358 -0.2119
41437SOL     OW33278   5.233   5.617   2.287  0.3335  0.3033  0.1266
41437SOL    HW133279   5.186   5.698   2.265 -0.3525 -0.3463 -0.9321
41437SOL    HW233280   5.217   5.560   2.211  2.1490 -0.2554  0.1303
41438SOL     OW33281   8.887   6.400   6.535  0.3826  0.1639  0.2518
41438SOL    HW133282   8.884   6.305   6.519  3.7282  0.1328 -0.9593
41438SOL    HW233283   8.818   6.415   6.600  0.2016 -3.2185  1.0668
41439SOL     OW33284   6.892  10.342   1.370  0.4703  0.0768 -0.3129
41439SOL    HW133285   6.966  10.396   1.400 -1.1107  1.3358  1.5641
41439SOL    HW233286   6.832  10.340   1.444 -0.0773 -3.4582 -0.6697
41440SOL     OW33287   2.923   1.834   0.462  0.5730  0.3238  0.6290
41440SOL    HW133288   2.945   1.741   0.454  0.0281  0.2486 -0.0714
41440SOL    HW233289   2.889   1.858   0.376  1.2593  1.3225  0.6113
41441SOL     OW33290  11.548   9.031   1.096  0.3542 -0.1239  0.1424
41441SOL    HW133291  11.610   8.959   1.081  0.8001  0.4437 -0.8013
41441SOL    HW233292  11.591   9.108   1.059  0.2104  0.8000  1.8049
41442SOL     OW33293  10.922   8.069  11.707 -0.0631  0.2786 -0.0955
41442SOL    HW133294  10.943   8.126  11.781 -0.5634 -0.6079  0.7500
41442SOL    HW233295  10.827   8.060  11.711 -0.2796  1.3762 -1.7353
41443SOL     OW33296   5.841   3.698  12.058 -0.1100  0.1468  0.4657
41443SOL    HW133297   5.871   3.759  12.125  0.2054 -1.3759  1.7691
41443SOL    HW233298   5.920   3.655  12.026 -0.3573  0.1946 -0.2414
41444SOL     OW33299  11.782  12.511   5.514 -0.0700 -0.0690  0.6940
41444SOL    HW133300  11.788  12.604   5.539 -0.4445 -0.1473  1.0819
41444SOL    HW233301  11.713  12.476   5.570 -1.5631 -0.0429 -1.0555
41445SOL     OW33302  10.044   6.761   1.228 -0.4602  0.3662 -0.1569
41445SOL    HW133303   9.971   6.705   1.201 -2.2528  1.3332  2.2560
41445SOL    HW233304  10.001   6.837   1.268  1.9144  1.1017  1.1453
41446SOL     OW33305   8.139   2.196   3.268  0.9043  0.5850 -0.4045
41446SOL    HW133306   8.114   2.120   3.216  1.1192  0.1590  0.1123
41446SOL    HW233307   8.233   2.186   3.282  0.8560  0.7074  0.0430
41447SOL     OW33308   9.444  10.180   3.090  0.1270  0.1123 -0.0707
41447SOL    HW133309   9.434  10.226   3.174 -0.4158 -0.9013  0.4395
41447SOL    HW233310   9.433  10.248   3.024  1.3147  1.0766  0.6706
41448SOL     OW33311  12.450   3.301   7.484 -0.3383  0.2099 -0.7696
41448SOL    HW133312  12.475   3.237   7.551  0.9841  1.2103 -0.2751
41448SOL    HW233313  12.409   3.373   7.533 -0.0839  0.5918 -1.1113
41449SOL     OW33314   5.727   1.011   7.401  0.1131  0.5362 -0.6020
41449SOL    HW133315   5.673   0.933   7.386 -0.5291  0.7904  0.3682
41449SOL    HW233316   5.757   1.036   7.313 -1.4499  0.4689 -1.1881
41450SOL     OW33317   7.064  11.692  10.846 -0.1081  0.1939 -0.0174
41450SOL    HW133318   7.103  11.617  10.802 -1.4345 -1.3880  1.4153
41450SOL    HW233319   6.989  11.657  10.894 -0.5580  2.3678  1.0087
41451SOL     OW33320   8.459  12.317   6.334  0.1376  0.3684 -0.3261
41451SOL    HW133321   8.427  12.245   6.280  0.1294 -0.9225  1.3042
41451SOL    HW233322   8.537  12.282   6.378 -0.4176  0.9820  1.2470
41452SOL     OW33323  11.051  11.874   9.484 -0.0490  0.3514  0.5464
41452SOL    HW133324  10.984  11.926   9.440  0.3283  0.4010  0.0192
41452SOL    HW233325  11.029  11.784   9.462  0.2082  0.3833  0.1553
41453SOL     OW33326   8.743   9.102   7.913 -0.9118 -0.2613 -0.1899
41453SOL    HW133327   8.782   9.148   7.988 -0.3902  0.2382 -0.7623
41453SOL    HW233328   8.726   9.014   7.947  0.7825 -0.5179  0.0742
41454SOL     OW33329   2.633   0.366  10.366  0.1684  0.0252  0.3005
41454SOL    HW133330   2.718   0.411  10.359  0.0094  0.7385  2.3316
41454SOL    HW233331   2.569   0.437  10.370 -0.5180 -0.5081 -0.8510
41455SOL     OW33332   1.756   7.954  12.083  0.3372 -0.3158 -0.4875
41455SOL    HW133333   1.779   7.969  11.991 -0.1849 -0.3957 -0.6288
41455SOL    HW233334   1.717   7.867  12.084 -0.6200  0.1051 -0.3632
41456SOL     OW33335   4.493   9.992   9.983 -0.6906  0.4664  0.4721
41456SOL    HW133336   4.506   9.922  10.047 -0.9442 -0.7351 -0.7458
41456SOL    HW233337   4.400  10.016   9.992 -0.9203 -0.2375  0.0376
41457SOL     OW33338   1.310   5.867   5.308 -0.0495 -0.3263 -0.2822
41457SOL    HW133339   1.325   5.838   5.218 -1.5784  2.4981 -1.5762
41457SOL    HW233340   1.388   5.917   5.330  0.2702 -0.9139 -0.0476
41458SOL     OW33341   4.167  10.479   2.316  0.0389 -0.4368  0.0556
41458SOL    HW133342   4.168  10.492   2.411  0.4747 -0.5289  0.0641
41458SOL    HW233343   4.077  10.502   2.290  0.4416  1.4921  0.2105
41459SOL     OW33344   6.409   6.909  10.482 -0.3066  0.0455  0.4232
41459SOL    HW133345   6.376   6.963  10.411  1.1762  0.4428 -0.0016
41459SOL    HW233346   6.436   6.827  10.439 -0.7041 -0.2635  0.7534
41460SOL     OW33347   0.831   8.481  10.547  0.5772 -0.3075  0.1800
41460SOL    HW133348   0.914   8.435  10.559 -0.2392 -1.2883  2.5798
41460SOL    HW233349   0.824   8.538  10.623 -0.9888 -0.3067  0.0626
41461SOL     OW33350   0.596  12.274   2.640  0.0215  0.0763  0.0880
41461SOL    HW133351   0.682  12.314   2.653  0.2829  0.9280 -3.3873
41461SOL    HW233352   0.615  12.180   2.633  0.5012  0.1369  0.5181
41462SOL     OW33353   7.844  10.208  11.090  0.1365 -0.7616 -0.0425
41462SOL    HW133354   7.795  10.281  11.128  1.0663 -0.0383 -0.2048
41462SOL    HW233355   7.855  10.147  11.163 -1.3099 -1.1219 -0.0934
41463SOL     OW33356   6.439   0.352   5.232  0.0967 -0.2352 -0.2197
41463SOL    HW133357   6.472   0.441   5.219 -0.0731 -0.1184  0.1381
41463SOL    HW233358   6.353   0.353   5.191 -0.7266  0.3275  1.4293
41464SOL     OW33359   0.697   5.092  10.791  0.6469  0.6070  0.2259
41464SOL    HW133360   0.607   5.080  10.823 -0.3833  1.8490 -1.9706
41464SOL    HW233361   0.730   5.003  10.780 -1.6895 -0.0849 -2.3243
41465SOL     OW33362   9.836   5.732   4.697  0.0609  0.1191 -0.0951
41465SOL    HW133363   9.856   5.783   4.618  1.3044 -0.2315 -0.0273
41465SOL    HW233364   9.805   5.797   4.760  0.6916  0.6578 -0.3297
41466SOL     OW33365   7.760  11.779   3.644 -0.7345 -0.0064 -0.3046
41466SOL    HW133366   7.731  11.742   3.560 -0.4085 -0.0498 -0.4005
41466SOL    HW233367   7.706  11.858   3.655 -2.7652 -1.4653  0.8022
41467SOL     OW33368   8.785   3.655   7.922  0.0712 -0.0965 -0.3073
41467SOL    HW133369   8.750   3.568   7.943 -0.3207 -0.2714 -1.6020
41467SOL    HW233370   8.755   3.710   7.995  3.3093 -1.6619  2.4988
41468SOL     OW33371  11.305   7.792   4.725 -0.1189 -0.2108  0.2559
41468SOL    HW133372  11.242   7.764   4.658 -0.5546 -0.3556  0.7265
41468SOL    HW233373  11.386   7.747   4.701 -0.0896  0.2665 -0.5682
41469SOL     OW33374   2.221   5.182   6.315 -0.0467  0.1409  0.1889
41469SOL    HW133375   2.164   5.194   6.239  1.3811  1.5061 -0.7448
41469SOL    HW233376   2.309   5.205   6.284  1.8991 -5.3341  0.4982
41470SOL     OW33377   6.643  11.380  10.676  0.1412  0.0926  0.0183
41470SOL    HW133378   6.621  11.420  10.592  0.8939 -0.6903 -0.5705
41470SOL    HW233379   6.579  11.309  10.687 -0.2836  0.5255  0.3621
41471SOL     OW33380  12.081   2.933   6.003  0.1397 -0.3494  0.3277
41471SOL    HW133381  12.069   2.949   6.097  0.2264 -0.0971  0.2948
41471SOL    HW233382  11.993   2.918   5.970  0.1378 -0.7475  0.5068
41472SOL     OW33383   2.955  12.420  12.487  0.2604 -0.6470  0.1779
41472SOL    HW133384   2.916  12.466  12.412 -0.0450 -0.2841  0.5590
41472SOL    HW233385   2.974  12.332  12.453 -1.4427 -1.0387  0.1478
41473SOL     OW33386   4.834   4.526   3.127 -0.7546 -0.3195  0.5835
41473SOL    HW133387   4.833   4.444   3.077  0.9692  0.0420 -0.0962
41473SOL    HW233388   4.779   4.586   3.076 -0.8451 -0.6192  0.3289
41474SOL     OW33389   1.097   9.701  10.638 -0.1877 -0.0179  0.0006
41474SOL    HW133390   1.015   9.731  10.599  0.1357  0.4641 -0.3240
41474SOL    HW233391   1.148   9.668  10.564 -1.1649 -3.0081  0.5201
41475SOL     OW33392  10.153   7.924  11.252  0.8933  0.3049 -0.3989
41475SOL    HW133393  10.078   7.981  11.233  0.6037  0.4979  1.1457
41475SOL    HW233394  10.216   7.943  11.183  0.0514  1.1218 -0.9700
41476SOL     OW33395  12.519   8.843   8.434  0.7117 -0.4976  0.2131
41476SOL    HW133396  12.483   8.920   8.478 -1.3586 -1.6831  0.7808
41476SOL    HW233397  12.602   8.872   8.397  0.1534  1.8933  0.6752
41477SOL     OW33398   0.038   2.573   7.458  0.0703 -0.0971 -0.2279
41477SOL    HW133399   0.075   2.554   7.545 -0.4807  0.6340  0.1848
41477SOL    HW233400  -0.045   2.619   7.477 -0.1594 -0.1152 -1.1394
41478SOL     OW33401   8.141   7.567   0.521 -0.1160  0.7213  0.3304
41478SOL    HW133402   8.150   7.547   0.428 -1.7160  1.2911  0.0110
41478SOL    HW233403   8.207   7.634   0.539  2.0854 -1.3189  0.2995
41479SOL     OW33404   9.365  11.372   4.182 -0.0888 -0.6147  0.0125
41479SOL    HW133405   9.429  11.376   4.253 -1.4320 -0.6381  1.2718
41479SOL    HW233406   9.409  11.414   4.108  1.2232 -0.2673  0.9450
41480SOL     OW33407  10.431   8.109   5.485 -0.3881 -0.1725 -0.3349
41480SOL    HW133408  10.445   8.024   5.443 -2.0082 -0.5096 -0.2896
41480SOL    HW233409  10.388   8.087   5.568  2.5287  0.4832  1.5037
41481SOL     OW33410   7.962   8.955   4.292 -0.1709 -0.2132 -0.1200
41481SOL    HW133411   8.016   8.877   4.301 -0.7215 -0.7057 -0.9231
41481SOL    HW233412   7.888   8.940   4.350  0.9915  0.9011  1.7529
41482SOL     OW33413   8.556   6.786   4.103  0.0048 -0.0411 -0.0449
41482SOL    HW133414   8.648   6.770   4.125  0.2447 -1.3479 -1.8281
41482SOL    HW233415   8.552   6.880   4.085  0.7880  0.1835  0.8372
41483SOL     OW33416   4.759   3.653   1.372 -0.8333  0.3445 -0.4816
41483SOL    HW133417   4.846   3.652   1.411 -1.2147 -0.4971  0.4024
41483SOL    HW233418   4.773   3.679   1.281  0.4214 -0.5331 -0.5587
41484SOL     OW33419   2.470   1.856  12.090  0.0641  0.0886 -0.0294
41484SOL    HW133420   2.504   1.862  12.179  0.6449  2.7012 -0.3677
41484SOL    HW233421   2.547   1.853  12.034 -0.2999  0.0090 -0.5356
41485SOL     OW33422   3.223   9.425   0.211  0.4879  0.2041 -0.0573
41485SOL    HW133423   3.246   9.492   0.147  1.9073 -0.4163 -0.2377
41485SOL    HW233424   3.237   9.467   0.296 -0.6138  0.7693 -0.1410
41486SOL     OW33425   6.783   4.111   6.296 -0.4162 -0.1603  0.4009
41486SOL    HW133426   6.689   4.097   6.308 -0.2252 -0.0802  2.3963
41486SOL    HW233427   6.822   4.025   6.311 -0.0812  0.1209  1.2361
41487SOL     OW33428   2.596   9.485  11.875 -0.0674 -0.2576  0.6547
41487SOL    HW133429   2.679   9.442  11.857  0.6672  1.3708 -0.1140
41487SOL    HW233430   2.530   9.427  11.837  0.6675 -1.6857  1.4680
41488SOL     OW33431  11.459   9.114   2.119  0.3875 -0.3812 -0.1710
41488SOL    HW133432  11.500   9.045   2.067  0.9586 -0.1383 -0.0461
41488SOL    HW233433  11.402   9.160   2.057 -0.8961 -1.6681 -0.0034
41489SOL     OW33434  12.339   9.610   0.374  0.4670 -0.5988  0.1109
41489SOL    HW133435  12.378   9.620   0.287  1.7511 -1.8151  0.5052
41489SOL    HW233436  12.311   9.519   0.377 -0.6799 -0.2485  0.5583
41490SOL     OW33437   3.202   7.527  10.958 -0.0552 -0.1607  0.3604
41490SOL    HW133438   3.261   7.506  11.030  0.2534 -0.1456  0.1156
41490SOL    HW233439   3.240   7.605  10.918 -0.8944  0.5483  0.9269
41491SOL     OW33440   7.832   6.123   5.674 -0.5037 -0.0923 -0.0558
41491SOL    HW133441   7.830   6.072   5.754 -2.0319  0.5795  0.3784
41491SOL    HW233442   7.901   6.084   5.621  1.4279  0.2606  2.0865
41492SOL     OW33443   5.710   1.898   1.208 -0.3524 -0.0529 -0.4013
41492SOL    HW133444   5.677   1.846   1.134 -1.8157  1.8124 -1.1184
41492SOL    HW233445   5.711   1.988   1.176 -3.0892  1.1774  2.4588
41493SOL     OW33446   8.435   7.281   2.061 -0.2302  0.8381 -0.5301
41493SOL    HW133447   8.440   7.363   2.110 -2.0186  0.9071 -0.3714
41493SOL    HW233448   8.395   7.305   1.977  2.0175  0.5814 -1.7506
41494SOL     OW33449   0.969  12.464   2.909  0.1791 -0.4122  0.1294
41494SOL    HW133450   0.953  12.422   2.994 -1.3836  0.6753  0.4272
41494SOL    HW233451   0.963  12.393   2.846  0.5996 -1.1184  0.8718
41495SOL     OW33452   6.179   5.979  11.754  0.1268 -0.2671 -0.0067
41495SOL    HW133453   6.241   5.913  11.723 -1.1468 -1.2073 -0.6694
41495SOL    HW233454   6.233   6.054  11.777  1.5141 -1.1098 -0.3904
41496SOL     OW33455  10.381  10.349  10.187 -0.0700 -0.2220  0.4410
41496SOL    HW133456  10.294  10.379  10.162 -0.4424 -1.6394 -0.0934
41496SOL    HW233457  10.411  10.412  10.253 -1.6377  0.1002  0.8830
41497SOL     OW33458   8.969   2.981   6.213  0.4057 -0.0575  0.3928
41497SOL    HW133459   9.059   2.953   6.228  0.7886  0.6604 -0.4949
41497SOL    HW233460   8.916   2.904   6.236  1.2366 -0.4878  0.9050
41498SOL     OW33461   1.665   9.314   5.450 -0.4505 -0.1553 -0.1860
41498SOL    HW133462   1.741   9.373   5.446 -0.2061 -0.5469 -1.9092
41498SOL    HW233463   1.603   9.359   5.508  0.6417  0.6988  0.3503
41499SOL     OW33464   1.537  10.926   0.346  0.0324 -0.0353  0.5460
41499SOL    HW133465   1.504  10.971   0.425 -1.0744  0.8379 -0.3663
41499SOL    HW233466   1.604  10.985   0.311 -1.1106  0.7536 -0.4088
41500SOL     OW33467   4.037   2.099   1.029  0.0841  0.1012 -0.5342
41500SOL    HW133468   4.079   2.138   0.953  0.4562  0.6454 -0.0565
41500SOL    HW233469   4.107   2.091   1.094 -0.0976 -0.8803 -0.4359
41501SOL     OW33470   5.461  11.091  11.519 -0.0189  0.1947 -0.1269
41501SOL    HW133471   5.381  11.047  11.490  0.5832 -1.7561  0.9528
41501SOL    HW233472   5.529  11.023  11.514  1.4141  1.5723 -0.2440
41502SOL     OW33473  12.591   8.888   4.932 -0.2974 -0.0407  0.2169
41502SOL    HW133474  12.638   8.972   4.934  0.4716 -0.4258 -0.9121
41502SOL    HW233475  12.535   8.891   5.009 -1.0722  1.9664 -0.3632
41503SOL     OW33476   4.455   4.478   6.327 -0.3310 -0.2761 -0.3807
41503SOL    HW133477   4.455   4.452   6.419  0.5124  1.1359  0.0650
41503SOL    HW233478   4.532   4.434   6.290 -0.3700 -0.4311 -0.2779
41504SOL     OW33479   5.655   5.553   0.930 -0.0018 -0.3380  0.1244
41504SOL    HW133480   5.737   5.595   0.906  0.1001  0.2251  1.3922
41504SOL    HW233481   5.591   5.590   0.870  0.6043 -0.5162 -0.6418
41505SOL     OW33482   1.397   3.373   5.975  0.7467 -0.0209  0.6207
41505SOL    HW133483   1.468   3.389   6.036  0.4910  3.1588  0.2439
41505SOL    HW233484   1.323   3.347   6.030  2.0048 -3.2093  1.0258
41506SOL     OW33485   5.881   7.014   4.793  0.3469  0.2248 -0.3047
41506SOL    HW133486   5.962   7.043   4.751  0.8512  2.7576  2.0967
41506SOL    HW233487   5.818   7.082   4.772 -0.9703 -1.2586 -1.3664
41507SOL     OW33488   2.854   1.592   7.065 -0.3066  0.6580 -0.6501
41507SOL    HW133489   2.885   1.575   7.154 -2.0428  1.7618  0.2233
41507SOL    HW233490   2.769   1.548   7.061 -0.5175  1.1350 -1.5551
41508SOL     OW33491   5.323   1.554   7.267 -0.2026 -0.1922  0.3006
41508SOL    HW133492   5.265   1.489   7.306 -1.3209  0.2504 -0.5798
41508SOL    HW233493   5.399   1.504   7.238 -0.8602 -1.0573  0.0246
41509SOL     OW33494   9.844   9.951   1.906  0.8306 -0.5956  0.4264
41509SOL    HW133495   9.881  10.032   1.940 -1.4799  0.4454  0.6003
41509SOL    HW233496   9.908   9.921   1.841  0.5350  2.8229 -1.6569
41510SOL     OW33497  11.794   0.251   5.458  0.3017 -0.1072 -0.2927
41510SOL    HW133498  11.723   0.200   5.419 -0.4106  0.4464  0.2473
41510SOL    HW233499  11.759   0.279   5.543  0.3732  1.9085 -0.8914
41511SOL     OW33500   8.783   5.374   9.824 -0.0335 -0.4022  0.2004
41511SOL    HW133501   8.703   5.364   9.875 -0.1915  0.7280  0.2017
41511SOL    HW233502   8.783   5.466   9.796  1.0499 -0.4880 -0.1549
41512SOL     OW33503  11.334   2.379  12.044 -0.6115  0.2257 -0.3750
41512SOL    HW133504  11.394   2.336  12.106  0.3128 -0.9072 -1.9876
41512SOL    HW233505  11.386   2.448  12.004 -0.4419 -0.5631 -1.5626
41513SOL     OW33506   5.332   8.030   3.171  0.3579 -0.2439 -0.4610
41513SOL    HW133507   5.353   7.974   3.096  0.1371 -0.1721 -0.5781
41513SOL    HW233508   5.250   8.073   3.146 -0.1060 -0.7739  0.1241
41514SOL     OW33509  10.004   6.756  10.907 -0.0486  0.2989 -0.4476
41514SOL    HW133510  10.017   6.835  10.855 -0.7658  0.2985 -0.6402
41514SOL    HW233511  10.006   6.685  10.844  0.6361  0.1453 -0.2690
41515SOL     OW33512  10.323   7.779   7.865  0.5002 -0.3021  0.7392
41515SOL    HW133513  10.289   7.716   7.802  0.0513  2.2817 -1.8012
41515SOL    HW233514  10.405   7.740   7.896  0.4650 -1.9493 -1.0327
41516SOL     OW33515   4.604  10.837   7.694 -0.1023 -0.4251  0.3823
41516SOL    HW133516   4.583  10.848   7.601  0.2250  0.5341  0.4109
41516SOL    HW233517   4.525  10.800   7.732 -0.2887 -0.6974 -0.2574
41517SOL     OW33518   2.646  10.309   7.874 -0.2648  0.4976 -0.2891
41517SOL    HW133519   2.738  10.286   7.861 -0.8533 -2.0518 -0.4518
41517SOL    HW233520   2.608  10.303   7.786 -0.5947  1.6967 -0.2460
41518SOL     OW33521   4.721   9.147   1.590 -0.1191  0.0956  0.0993
41518SOL    HW133522   4.780   9.216   1.620  0.1006  1.2875 -2.7234
41518SOL    HW233523   4.650   9.194   1.546 -1.9576 -1.4110  1.3108
41519SOL     OW33524  11.070   7.287  11.997 -0.3128 -0.8038  0.3537
41519SOL    HW133525  10.983   7.253  11.976 -0.7385  0.0025  0.7477
41519SOL    HW233526  11.053   7.374  12.035  0.7879  0.3515 -1.6542
41520SOL     OW33527   5.322  11.529  12.502 -0.6746 -0.0062 -0.5742
41520SOL    HW133528   5.340  11.598  12.566 -0.0191 -0.6196 -0.0834
41520SOL    HW233529   5.259  11.472  12.546 -1.2216  0.2794 -0.9819
41521SOL     OW33530   1.535   4.353   9.558  0.1069  0.1291  0.1833
41521SOL    HW133531   1.574   4.422   9.612  1.1994 -1.9651  2.2561
41521SOL    HW233532   1.441   4.369   9.563  0.3324  1.4628  0.5988
41522SOL     OW33533   8.674   1.939   2.909 -0.0852 -0.0609  0.3923
41522SOL    HW133534   8.608   1.978   2.965 -0.1946  0.4549 -0.0898
41522SOL    HW233535   8.749   1.922   2.967 -0.3397  0.0975  0.7681
41523SOL     OW33536   1.558   6.936   1.984 -0.2680 -0.3118 -0.2829
41523SOL    HW133537   1.503   6.968   1.912  1.0585  0.9638 -0.7873
41523SOL    HW233538   1.597   7.016   2.021 -0.7363 -0.9607  1.7209
41524SOL     OW33539   8.573   9.451   5.404  0.3049 -0.0871  0.1735
41524SOL    HW133540   8.644   9.449   5.468 -0.1928  0.5981  0.7613
41524SOL    HW233541   8.570   9.362   5.369  0.3979 -0.5628  1.3293
41525SOL     OW33542   5.604  12.293   7.901  0.3414 -0.2973 -0.0669
41525SOL    HW133543   5.544  12.292   7.827  0.1651  0.5612  0.0448
41525SOL    HW233544   5.629  12.202   7.914 -0.4158 -0.5773 -0.5391
41526SOL     OW33545   0.616   2.266   7.188  0.1640 -0.3966 -0.2015
41526SOL    HW133546   0.523   2.246   7.199  0.4550 -0.8381  1.8534
41526SOL    HW233547   0.618   2.336   7.123 -1.5313 -0.9778 -0.9352
41527SOL     OW33548   3.859   6.794   4.931  0.5136  0.0700 -0.3143
41527SOL    HW133549   3.944   6.780   4.889  0.8015  0.4080  0.1387
41527SOL    HW233550   3.869   6.877   4.977 -0.1154  0.1826 -0.3730
41528SOL     OW33551   9.230   4.714  11.133  0.7313  0.0663 -0.0671
41528SOL    HW133552   9.215   4.720  11.039  2.4071  0.4713 -0.3306
41528SOL    HW233553   9.317   4.674  11.141  0.3957 -0.4273  1.3185
41529SOL     OW33554   0.884   3.242   8.474  0.0495  0.3390 -0.3669
41529SOL    HW133555   0.971   3.275   8.497 -0.7495  2.0351  0.4508
41529SOL    HW233556   0.896   3.197   8.391  2.0290 -1.1015  0.6275
41530SOL     OW33557   0.766  10.541   5.315 -0.1635 -0.5453 -0.4575
41530SOL    HW133558   0.679  10.502   5.314 -0.7681  0.7495 -0.4635
41530SOL    HW233559   0.803  10.520   5.230 -0.3686 -1.3030 -0.3678
41531SOL     OW33560   0.845  11.029  12.262  0.0574 -0.5088 -0.1592
41531SOL    HW133561   0.907  11.013  12.191  2.9070 -0.2975  2.0902
41531SOL    HW233562   0.851  10.951  12.318 -0.8509  0.0256  0.7263
41532SOL     OW33563  11.789   5.499   7.779 -0.2428  0.1786  0.0266
41532SOL    HW133564  11.826   5.472   7.695 -2.1730 -1.9390 -0.2392
41532SOL    HW233565  11.861   5.486   7.842  0.3447 -1.0856 -0.8668
41533SOL     OW33566   7.752   5.191   5.707  0.3098  0.6383  0.6495
41533SOL    HW133567   7.664   5.170   5.739  0.1528  0.9531  0.4257
41533SOL    HW233568   7.756   5.286   5.710  0.3603  0.6641 -0.0928
41534SOL     OW33569   3.523   5.358   6.532  0.1721 -0.4089  0.7165
41534SOL    HW133570   3.449   5.416   6.549  1.8897  1.9220  0.8390
41534SOL    HW233571   3.484   5.276   6.501 -2.4654  0.1752  2.2142
41535SOL     OW33572   2.094  10.102  10.770 -0.4940  0.3752  0.0487
41535SOL    HW133573   2.002  10.119  10.790  0.0477  2.3054  1.1843
41535SOL    HW233574   2.140  10.123  10.851  0.9288 -0.9701 -0.3628
41536SOL     OW33575   8.775   1.325   2.814 -0.2805  0.2737 -0.5012
41536SOL    HW133576   8.740   1.237   2.826  1.1521 -0.0470  2.0435
41536SOL    HW233577   8.699   1.382   2.819 -0.9668 -0.6765  0.2994
41537SOL     OW33578   1.334   8.963   4.499 -0.1152  0.3985 -0.1822
41537SOL    HW133579   1.336   9.044   4.447 -1.2944 -0.0326 -0.9545
41537SOL    HW233580   1.425   8.934   4.502  0.0193  0.4956 -1.9426
41538SOL     OW33581   2.616   4.415  11.286 -0.4271  0.1644 -0.2513
41538SOL    HW133582   2.667   4.483  11.328 -0.2517  0.9198 -1.6269
41538SOL    HW233583   2.542   4.400  11.345  0.3270  0.4638  0.7881
41539SOL     OW33584   2.008   3.084   0.290 -0.5366 -0.5375 -0.5262
41539SOL    HW133585   1.959   3.115   0.214  1.2615  2.7926 -0.5331
41539SOL    HW233586   1.942   3.047   0.348 -2.5105  0.3286 -2.0784
41540SOL     OW33587  12.293   7.342  12.523  0.3557 -0.6637 -0.3399
41540SOL    HW133588  12.221   7.281  12.540 -0.9339  0.3269 -1.9640
41540SOL    HW233589  12.370   7.285  12.513 -0.8427 -2.1201 -2.0682
41541SOL     OW33590   9.334   4.716   7.298 -0.0434  0.0616  0.3585
41541SOL    HW133591   9.282   4.796   7.293  0.0041  0.0643 -0.0680
41541SOL    HW233592   9.270   4.645   7.286  0.0565  0.0669 -0.2303
41542SOL     OW33593  10.837  11.800  10.385 -0.1924  0.2744  0.1981
41542SOL    HW133594  10.768  11.837  10.441 -0.0876  1.0234 -0.1562
41542SOL    HW233595  10.919  11.832  10.423 -0.1196  0.7471 -0.3620
41543SOL     OW33596   0.558   1.338   6.148 -0.1970  0.2999  0.0621
41543SOL    HW133597   0.534   1.284   6.223  1.0061 -0.4001 -0.0251
41543SOL    HW233598   0.534   1.285   6.071 -2.4930  1.4883 -0.1139
41544SOL     OW33599   9.257   6.416   3.284 -0.6289  0.2888  0.2285
41544SOL    HW133600   9.256   6.492   3.343  3.3487 -0.5371  1.6601
41544SOL    HW233601   9.343   6.419   3.243 -1.4108 -1.9957 -1.7680
41545SOL     OW33602   4.178   3.956  10.954 -0.1668  1.0692  0.2283
41545SOL    HW133603   4.125   4.015  11.009  0.9364  0.4814  2.0179
41545SOL    HW233604   4.124   3.878  10.946 -0.6847  1.4655 -0.2333
41546SOL     OW33605   8.493   2.296   8.727 -0.9175 -0.2216 -0.1699
41546SOL    HW133606   8.463   2.294   8.818 -0.3805  0.4689  0.0311
41546SOL    HW233607   8.429   2.351   8.682 -0.5130  0.4460  0.0547
41547SOL     OW33608   2.171   4.935   8.027  0.1443  0.1924 -0.3004
41547SOL    HW133609   2.105   4.991   7.985  1.7084  2.6426  0.2845
41547SOL    HW233610   2.127   4.851   8.039 -1.7958  0.7325 -2.7882
41548SOL     OW33611   0.854   4.550   1.047 -0.0873 -0.1200  0.0297
41548SOL    HW133612   0.917   4.613   1.082 -1.7354 -0.1604  3.4079
41548SOL    HW233613   0.909   4.484   1.003  1.9837  1.2991  0.3191
41549SOL     OW33614  11.383   2.918   7.620 -0.0551 -0.5337 -0.1613
41549SOL    HW133615  11.302   2.873   7.642  0.3813 -1.2742 -0.0307
41549SOL    HW233616  11.443   2.899   7.692 -0.4029  1.7862  0.8376
41550SOL     OW33617   6.057   1.651   8.434  0.4715 -0.4836 -0.5957
41550SOL    HW133618   6.007   1.676   8.357 -0.5883  0.0459  0.2284
41550SOL    HW233619   6.136   1.609   8.400 -0.4772 -1.2378 -1.9332
41551SOL     OW33620   2.505   3.998   7.843  0.0506 -0.0868 -0.6965
41551SOL    HW133621   2.524   3.919   7.894 -0.7268 -0.3811 -0.8402
41551SOL    HW233622   2.466   4.058   7.907 -1.2085 -0.5674 -0.9701
41552SOL     OW33623   8.009   7.239   5.514  0.3595  0.5997 -0.6414
41552SOL    HW133624   8.003   7.309   5.578  1.0825 -0.6712  0.8895
41552SOL    HW233625   7.955   7.268   5.440 -0.0037  2.3691  0.2805
41553SOL     OW33626   9.510   7.118   1.415  0.2655 -0.2347  0.4175
41553SOL    HW133627   9.564   7.153   1.344 -0.6463  1.2893  0.4245
41553SOL    HW233628   9.573   7.086   1.479  1.2604  2.3775  0.8655
41554SOL     OW33629   7.585  10.992   6.101  0.5051  0.3120  0.0704
41554SOL    HW133630   7.493  11.010   6.121  0.5883  1.1358 -0.2706
41554SOL    HW233631   7.592  11.007   6.006  0.9239 -0.0494  0.0421
41555SOL     OW33632   9.438  11.337   6.517  0.0945  0.3933 -0.0754
41555SOL    HW133633   9.390  11.315   6.437  0.8595  0.4035 -0.5436
41555SOL    HW233634   9.475  11.423   6.499  1.7209 -0.3359 -0.4083
41556SOL     OW33635   6.227   5.207   0.959 -0.0570  0.4179 -0.4902
41556SOL    HW133636   6.215   5.138   1.024  3.3777  0.3486  0.2827
41556SOL    HW233637   6.314   5.189   0.922 -0.4677  2.4517 -2.6479
41557SOL     OW33638   1.296   8.089   9.779  0.1954  0.8428  0.2765
41557SOL    HW133639   1.371   8.039   9.812  0.3456  1.0153  0.2017
41557SOL    HW233640   1.291   8.066   9.686  0.0673  0.7220  0.3132
41558SOL     OW33641   6.201   0.323   6.559  0.2981 -0.4956  0.0880
41558SOL    HW133642   6.134   0.281   6.614  3.4481 -2.3713  2.8750
41558SOL    HW233643   6.249   0.249   6.521  0.9467  0.7814 -1.6559
41559SOL     OW33644   6.361  10.594   2.487  0.3087  0.0606  0.0300
41559SOL    HW133645   6.373  10.635   2.401 -0.1473 -1.0587 -0.5856
41559SOL    HW233646   6.267  10.594   2.501  0.4379  1.5719  1.2358
41560SOL     OW33647   8.777   0.173   6.797  0.2429 -0.1063 -0.0721
41560SOL    HW133648   8.788   0.145   6.706  0.7408 -0.3818  0.0704
41560SOL    HW233649   8.852   0.231   6.813  0.3185 -0.2912  0.2527
41561SOL     OW33650  12.277   6.972   2.327  0.0172 -0.7691  0.1008
41561SOL    HW133651  12.292   6.886   2.289 -1.5574 -1.0046 -0.0256
41561SOL    HW233652  12.222   6.956   2.404 -2.5294  0.2830 -1.3639
41562SOL     OW33653   2.134   8.220  10.987 -0.2042 -0.5070  0.0426
41562SOL    HW133654   2.218   8.192  11.022 -0.2987  0.5825  1.2130
41562SOL    HW233655   2.154   8.255  10.900  0.4755 -0.6676  0.1334
41563SOL     OW33656   0.638  11.992   2.667  0.1970  0.0727  0.1804
41563SOL    HW133657   0.550  12.013   2.700  0.5368  1.1337  0.4626
41563SOL    HW233658   0.623  11.927   2.598 -0.6056 -1.5861  1.8190
41564SOL     OW33659   5.938   0.433  11.245 -0.6020  0.0114 -0.0450
41564SOL    HW133660   5.888   0.514  11.235 -1.3764 -0.4623 -0.0402
41564SOL    HW233661   5.872   0.364  11.252 -0.1132 -0.2561  3.7380
41565SOL     OW33662  12.398   5.435   6.777 -0.4574 -0.5031  0.3497
41565SOL    HW133663  12.375   5.346   6.748 -0.8949 -0.2772 -0.0102
41565SOL    HW233664  12.316   5.485   6.768 -0.1793 -0.0317  0.4231
41566SOL     OW33665   3.547   4.815  10.710  0.1900 -0.4987  0.3358
41566SOL    HW133666   3.537   4.762  10.630  0.5887 -1.5052  0.9278
41566SOL    HW233667   3.637   4.847  10.706  0.0324 -0.0841  0.1081
41567SOL     OW33668  10.043  11.022  11.390  0.8437  0.2151  0.6432
41567SOL    HW133669  10.048  10.935  11.429  0.0286 -0.2169 -0.1886
41567SOL    HW233670   9.991  11.073  11.453 -0.6789 -0.5443  0.0462
41568SOL     OW33671   9.713   8.679   5.864 -0.0584  0.0694 -0.0053
41568SOL    HW133672   9.736   8.772   5.869  1.1410 -0.2370  0.5737
41568SOL    HW233673   9.713   8.659   5.770  1.0005  0.3590 -0.0825
41569SOL     OW33674  10.937   1.145   4.625 -0.0438 -0.0298 -0.6009
41569SOL    HW133675  11.024   1.140   4.663 -0.2241  1.8575  0.2076
41569SOL    HW233676  10.946   1.209   4.553 -0.6476 -0.2123 -0.8460
41570SOL     OW33677  11.564   0.655   8.422 -0.1498  0.4094 -0.3659
41570SOL    HW133678  11.659   0.659   8.415 -0.1985  1.7474 -0.6682
41570SOL    HW233679  11.543   0.709   8.498 -0.4944 -2.8022  2.0379
41571SOL     OW33680  11.313   4.412   6.001  0.2151  0.3676  0.4402
41571SOL    HW133681  11.288   4.367   5.921 -1.2908 -0.0603  1.1235
41571SOL    HW233682  11.250   4.382   6.066  1.5203  0.5603  1.8413
41572SOL     OW33683   9.897   3.890  12.225  0.3811  0.8396 -0.1677
41572SOL    HW133684   9.957   3.927  12.160  0.9080 -0.5041 -0.4880
41572SOL    HW233685   9.882   3.800  12.195 -1.2210  0.9091  0.3124
41573SOL     OW33686   1.411   3.497   5.570 -0.3077  0.5037  0.0284
41573SOL    HW133687   1.501   3.484   5.599  1.0465  1.8602 -3.1085
41573SOL    HW233688   1.402   3.440   5.493 -2.2982  0.1144  0.4839
41574SOL     OW33689   3.410   7.564  12.049 -0.2899  0.0778  0.2301
41574SOL    HW133690   3.490   7.518  12.020 -0.1185  0.0037  0.7986
41574SOL    HW233691   3.339   7.516  12.007 -0.0247  0.2867 -0.4712
41575SOL     OW33692   3.134   7.527   7.568  0.3970 -0.1867 -0.6672
41575SOL    HW133693   3.178   7.610   7.588 -0.9738  0.4587 -0.2384
41575SOL    HW233694   3.206   7.467   7.546  1.4209  1.0769 -0.9049
41576SOL     OW33695  11.286  10.423   4.524  0.3028  0.2328 -1.2009
41576SOL    HW133696  11.379  10.426   4.505  0.3404 -1.0211 -1.3437
41576SOL    HW233697  11.277  10.457   4.613  1.0787 -0.9460 -0.6561
41577SOL     OW33698   0.331   1.467   8.600  0.3766  0.3603 -0.2697
41577SOL    HW133699   0.334   1.372   8.602  0.0117  0.3499 -0.2644
41577SOL    HW233700   0.404   1.492   8.543  1.1513  0.1187  0.5959
41578SOL     OW33701   7.461   9.697   3.631 -0.1459 -0.2338 -0.6177
41578SOL    HW133702   7.396   9.694   3.701  0.4505 -1.9908 -0.0716
41578SOL    HW233703   7.533   9.642   3.663  1.2183  0.8816 -1.5951
41579SOL     OW33704   1.072   6.606  11.820  0.4703 -0.3156 -0.4486
41579SOL    HW133705   0.985   6.604  11.860  0.7547 -1.0405  0.1631
41579SOL    HW233706   1.061   6.657  11.740 -0.3232  0.3412  0.0743
41580SOL     OW33707   8.708   0.875   4.407 -0.3152  0.2077  0.3291
41580SOL    HW133708   8.725   0.786   4.438  0.6237 -0.6128 -2.2560
41580SOL    HW233709   8.615   0.875   4.383 -0.0959 -0.4662 -0.6259
41581SOL     OW33710   0.336  11.813   2.889 -0.1007 -0.1161  0.4453
41581SOL    HW133711   0.346  11.889   2.832 -0.8977 -0.3489 -0.0192
41581SOL    HW233712   0.360  11.845   2.976  1.7397  0.0710 -0.1060
41582SOL     OW33713   5.821  10.708   1.771 -0.1097  0.1527 -0.7627
41582SOL    HW133714   5.833  10.673   1.683  2.5562  2.1046 -1.2924
41582SOL    HW233715   5.748  10.769   1.763 -0.8694 -0.7854 -1.2179
41583SOL     OW33716   3.721  10.251   4.401  0.3415  0.0277  0.8755
41583SOL    HW133717   3.802  10.228   4.447  0.3102  0.5443  1.1989
41583SOL    HW233718   3.694  10.334   4.440  0.6893  0.8502 -0.5393
41584SOL     OW33719   7.584   0.981   6.683  0.2335  0.2287 -0.2496
41584SOL    HW133720   7.540   0.943   6.760 -0.3679 -1.5414 -1.4104
41584SOL    HW233721   7.675   0.991   6.710  0.3038 -1.5809  0.3176
41585SOL     OW33722  11.481  12.579   7.962 -0.3092  0.1453 -0.1906
41585SOL    HW133723  11.422  12.572   7.887 -0.3242  1.6012 -0.3343
41585SOL    HW233724  11.562  12.615   7.926 -0.1186  0.3090  0.3895
41586SOL     OW33725   0.917   2.485   5.811 -0.3195  0.4876  0.1173
41586SOL    HW133726   1.010   2.469   5.795 -0.2536  1.1985 -0.2457
41586SOL    HW233727   0.871   2.431   5.746 -0.0822  2.2467 -1.6171
41587SOL     OW33728   1.908   4.462   7.360 -0.0650 -0.4809 -0.3150
41587SOL    HW133729   1.848   4.530   7.391 -0.2823 -0.9402  0.3031
41587SOL    HW233730   1.869   4.380   7.392  0.3645 -0.8633 -0.7692
41588SOL     OW33731   0.918   3.145   0.619  0.6361  0.2594 -0.3304
41588SOL    HW133732   0.836   3.194   0.612  0.2166 -0.3085  0.4662
41588SOL    HW233733   0.946   3.131   0.529  1.0286  2.3763 -0.6000
41589SOL     OW33734   8.656   8.324   7.391 -0.0084 -0.1579 -0.1405
41589SOL    HW133735   8.742   8.353   7.363 -0.0105 -0.8130 -0.8436
41589SOL    HW233736   8.673   8.271   7.470  0.1010  0.7436  0.4533
41590SOL     OW33737   6.441   0.136   2.810 -0.0344 -0.1261  0.0526
41590SOL    HW133738   6.387   0.075   2.861 -1.8507  0.6678 -0.8210
41590SOL    HW233739   6.429   0.220   2.854 -1.2234  0.4669 -1.3258
41591SOL     OW33740   2.896   8.031   7.097  0.0128  0.0001 -0.5043
41591SOL    HW133741   2.826   7.972   7.068 -0.4110 -0.5860  1.5116
41591SOL    HW233742   2.955   7.975   7.147 -0.9925  1.3793  2.4563
41592SOL     OW33743  10.012  10.912   8.608  0.0490  0.6251 -0.4761
41592SOL    HW133744  10.087  10.970   8.623 -0.5281  1.7364 -1.6748
41592SOL    HW233745   9.936  10.967   8.627 -0.4911 -0.1465 -0.3802
41593SOL     OW33746   7.898   8.248  11.120  1.0836 -0.3081 -0.4428
41593SOL    HW133747   7.904   8.160  11.158 -2.7512 -1.5935 -2.2364
41593SOL    HW233748   7.819   8.285  11.158 -0.1473  0.2801 -3.3255
41594SOL     OW33749  10.751   9.653   4.681 -0.4662  0.0509  0.6885
41594SOL    HW133750  10.751   9.584   4.747  0.5620  2.4036  3.3398
41594SOL    HW233751  10.844   9.664   4.659 -0.6757  0.2470 -0.1116
41595SOL     OW33752  10.775   6.926   2.744 -0.2196  0.0582 -0.3701
41595SOL    HW133753  10.693   6.882   2.765 -0.5699  1.6355  1.9709
41595SOL    HW233754  10.835   6.901   2.814 -0.4042  3.0292  1.0346
41596SOL     OW33755   1.644   5.749   5.227  0.4963  0.0886  0.4935
41596SOL    HW133756   1.565   5.745   5.173 -0.8013  1.2130  2.1828
41596SOL    HW233757   1.643   5.666   5.276  0.6893 -0.1580  0.0783
41597SOL     OW33758   4.420   0.658  11.258  0.3230 -0.1039 -0.3169
41597SOL    HW133759   4.346   0.635  11.313  1.8046 -1.3716  1.2793
41597SOL    HW233760   4.494   0.663  11.319  1.7147  0.2211 -1.9527
41598SOL     OW33761   5.512   4.585   5.626  0.3570  0.7538 -0.2286
41598SOL    HW133762   5.519   4.651   5.557 -1.3263  1.3082  0.1013
41598SOL    HW233763   5.440   4.529   5.599  0.1796  0.5120  0.7045
41599SOL     OW33764  11.822   6.950   8.071  0.0032 -0.5436  1.0947
41599SOL    HW133765  11.908   6.907   8.063 -0.2924 -0.9936  0.2121
41599SOL    HW233766  11.762   6.879   8.091 -0.2106 -0.2697  1.4232
41600SOL     OW33767   5.131   0.329   4.853 -0.1148  0.1233  0.5574
41600SOL    HW133768   5.099   0.246   4.818  0.7955  0.4934 -1.2839
41600SOL    HW233769   5.187   0.304   4.927  0.5321 -0.9613 -0.2664
41601SOL     OW33770   8.236   6.440   0.834 -0.0867 -0.1562  0.0644
41601SOL    HW133771   8.262   6.418   0.923 -1.2586 -1.2704  0.1581
41601SOL    HW233772   8.151   6.484   0.845  0.2269  0.6025 -0.4498
41602SOL     OW33773  11.964  10.655   5.435  0.0294  0.0588 -0.4497
41602SOL    HW133774  12.054  10.655   5.403  0.0265  1.1125 -0.5171
41602SOL    HW233775  11.928  10.738   5.404 -1.0717 -0.4887 -0.6871
41603SOL     OW33776   4.896  10.890   2.574  0.2776 -0.0799  0.7512
41603SOL    HW133777   4.832  10.818   2.576  2.7121 -2.5066 -0.9266
41603SOL    HW233778   4.914  10.909   2.666 -0.7477 -1.3399  1.2393
41604SOL     OW33779   4.478   2.006   1.292  0.3418 -0.0343 -0.2038
41604SOL    HW133780   4.454   2.066   1.362 -0.8241  0.2965 -0.8466
41604SOL    HW233781   4.534   1.941   1.334  2.4088  1.9806  0.3121
41605SOL     OW33782   0.198   7.938   9.806 -0.2377  0.3623  0.0011
41605SOL    HW133783   0.183   7.912   9.715  2.1869 -1.2135 -0.0339
41605SOL    HW233784   0.275   7.995   9.803 -0.3306  0.5742  1.0497
41606SOL     OW33785   5.587  12.293   5.008  0.2393  0.5700 -0.3819
41606SOL    HW133786   5.636  12.327   4.933 -1.6422  2.2278 -0.9483
41606SOL    HW233787   5.495  12.299   4.981 -0.3905 -1.0053  1.2013
41607SOL     OW33788  12.468   5.870   7.671  0.5715  0.2569 -0.0553
41607SOL    HW133789  12.450   5.914   7.587  0.1604 -1.0263 -0.6624
41607SOL    HW233790  12.557   5.838   7.663  0.3971 -0.2017 -0.1505
41608SOL     OW33791   3.724   2.510   6.135 -0.0877 -0.1091  0.1007
41608SOL    HW133792   3.807   2.482   6.174  2.2770  2.4042 -2.5884
41608SOL    HW233793   3.716   2.458   6.055 -0.2449  0.7600 -0.4640
41609SOL     OW33794   2.245   4.385   5.887  0.4422 -0.5377 -0.1715
41609SOL    HW133795   2.325   4.435   5.877 -0.3762  1.2976  1.6311
41609SOL    HW233796   2.260   4.333   5.966 -0.4321  0.5566  0.7545
41610SOL     OW33797  12.432   4.665   7.114  0.4283 -0.2637 -0.2842
41610SOL    HW133798  12.498   4.734   7.117 -0.4049  0.5768 -0.8094
41610SOL    HW233799  12.402   4.657   7.205 -0.1969  0.8012 -0.3832
41611SOL     OW33800   8.655   1.528  12.162  0.2311 -0.6451 -0.1318
41611SOL    HW133801   8.726   1.478  12.201 -0.1375 -0.8303  0.3167
41611SOL    HW233802   8.611   1.569  12.237 -0.9978 -1.6758 -0.2408
41612SOL     OW33803   7.776   2.962   1.173  0.0310  0.3005 -0.2457
41612SOL    HW133804   7.804   2.893   1.233  0.6802  0.0867 -0.7838
41612SOL    HW233805   7.788   2.924   1.086 -1.0153  0.5633 -0.5180
41613SOL     OW33806   2.127   7.331   6.662 -0.6376  0.2029  0.2681
41613SOL    HW133807   2.162   7.242   6.656 -0.4465  0.1774  1.6196
41613SOL    HW233808   2.079   7.343   6.579 -0.5237 -1.0844 -0.0028
41614SOL     OW33809   6.867  11.389   1.026 -0.3195  0.2495 -0.1272
41614SOL    HW133810   6.941  11.437   1.064 -0.0800  0.4728 -0.8638
41614SOL    HW233811   6.872  11.302   1.067  1.5235 -0.3985 -1.5763
41615SOL     OW33812   2.620   4.206   0.311 -0.6475 -0.9403  0.1012
41615SOL    HW133813   2.619   4.268   0.384 -0.5261 -2.3266  1.3422
41615SOL    HW233814   2.543   4.228   0.259 -0.6387  0.2062  0.5572
41616SOL     OW33815   3.658   2.214   0.308  0.1059  0.4837 -0.0180
41616SOL    HW133816   3.671   2.129   0.351  3.7149  0.4421 -0.8336
41616SOL    HW233817   3.668   2.278   0.378 -0.6859  0.2927  0.2762
41617SOL     OW33818   8.605   5.601   0.147 -0.2642 -0.7151 -0.5926
41617SOL    HW133819   8.605   5.567   0.237  1.1997  0.5404 -0.0741
41617SOL    HW233820   8.518   5.579   0.113 -1.3065 -0.2115  1.5398
41618SOL     OW33821   9.013   6.046   5.789 -0.4369 -0.5874 -0.1496
41618SOL    HW133822   9.039   5.975   5.731  0.0296 -2.0684  1.7931
41618SOL    HW233823   9.096   6.086   5.817 -0.6585  0.1038 -0.4421
41619SOL     OW33824   1.167   7.611   9.906 -0.0598 -0.0267 -0.4179
41619SOL    HW133825   1.260   7.599   9.921 -0.2272 -0.1056  0.6352
41619SOL    HW233826   1.135   7.652   9.986 -1.0622 -0.7140 -0.4489
41620SOL     OW33827   8.944   1.688   9.808 -0.3194  0.5674  0.2890
41620SOL    HW133828   9.020   1.673   9.865 -0.8158  0.4855  0.9311
41620SOL    HW233829   8.885   1.741   9.860 -0.4324  1.1758 -0.4465
41621SOL     OW33830  11.180   9.304   9.605 -0.3791 -0.6720 -0.5319
41621SOL    HW133831  11.164   9.226   9.659  1.7738 -1.0730 -0.3793
41621SOL    HW233832  11.195   9.270   9.517 -0.9475 -0.2845 -0.7799
41622SOL     OW33833   7.740   8.097   0.668 -0.7122 -0.2921 -0.3214
41622SOL    HW133834   7.717   8.186   0.640 -2.9246 -1.4508 -2.5182
41622SOL    HW233835   7.826   8.108   0.710  0.1036  2.5983 -2.3485
41623SOL     OW33836   3.425   1.214   4.756  0.1783 -0.3160 -0.2724
41623SOL    HW133837   3.386   1.302   4.752 -1.3423 -0.9882 -2.3944
41623SOL    HW233838   3.369   1.161   4.700  0.9287 -2.7322  1.1139
41624SOL     OW33839   4.701   3.744   0.280 -0.0060 -0.3529 -0.0807
41624SOL    HW133840   4.767   3.686   0.317 -0.6317 -0.3481  1.0927
41624SOL    HW233841   4.677   3.702   0.197  0.0880 -1.3827  0.3955
41625SOL     OW33842   0.046  12.063   3.775 -0.2589 -0.0129  0.1365
41625SOL    HW133843  -0.034  12.107   3.748 -0.0919  0.5985  0.6065
41625SOL    HW233844   0.053  12.080   3.869  1.1639  1.2171 -0.1388
41626SOL     OW33845  10.021   0.810   8.143  0.4422  0.0960 -0.0235
41626SOL    HW133846  10.093   0.815   8.080  1.5136 -0.4092  1.1172
41626SOL    HW233847   9.956   0.871   8.109  0.3994 -1.0951 -2.3091
41627SOL     OW33848   5.443   0.342   1.175 -0.1688  0.4168  0.3965
41627SOL    HW133849   5.485   0.265   1.138 -0.3413  0.0539  0.9469
41627SOL    HW233850   5.513   0.387   1.223 -0.3099  0.0191  0.9869
41628SOL     OW33851   1.344   6.705  12.555  0.2876 -0.1345  0.2232
41628SOL    HW133852   1.272   6.708  12.617  0.7807  0.0257  0.8043
41628SOL    HW233853   1.412   6.654  12.600  0.4232 -0.5468 -0.4340
41629SOL     OW33854   6.115   2.037   2.088 -0.3084  0.0420 -0.0372
41629SOL    HW133855   6.144   2.006   2.002 -1.3183 -0.0574 -0.3538
41629SOL    HW233856   6.021   2.017   2.090 -0.5868  1.3351  0.5276
41630SOL     OW33857   5.009   3.711   2.495 -0.4691  0.0214  0.9670
41630SOL    HW133858   4.940   3.734   2.432  1.5065  0.0541 -1.3133
41630SOL    HW233859   5.015   3.615   2.490  1.0234  0.1596 -0.4506
41631SOL     OW33860   9.754  11.788   9.818  0.0051  0.1438 -0.3215
41631SOL    HW133861   9.677  11.763   9.871  0.5435 -1.0629 -0.0790
41631SOL    HW233862   9.820  11.812   9.883  0.6262 -1.2155 -0.4245
41632SOL     OW33863   0.970   5.677  10.947 -0.2140 -0.1677 -0.2424
41632SOL    HW133864   0.968   5.589  10.910 -0.0261 -0.4163  0.3247
41632SOL    HW233865   0.986   5.735  10.872  1.3758 -0.7562 -0.3911
41633SOL     OW33866   1.302   1.459  11.097 -0.0315  0.2364 -0.1957
41633SOL    HW133867   1.372   1.467  11.162  0.0892  0.5926 -0.3652
41633SOL    HW233868   1.324   1.380  11.048  0.9125  0.9965 -1.0236
41634SOL     OW33869   3.050   7.695   8.204  0.2644  0.2900 -0.1680
41634SOL    HW133870   3.036   7.749   8.126  0.6927  1.5450  0.6152
41634SOL    HW233871   2.976   7.634   8.204 -0.0693  0.6732 -1.2114
41635SOL     OW33872  10.949   0.212   5.669  0.0871 -0.4486  0.5136
41635SOL    HW133873  11.005   0.271   5.719  3.2351 -1.0874 -1.9514
41635SOL    HW233874  10.997   0.130   5.665 -0.7878 -0.9320 -2.0383
41636SOL     OW33875   6.600   4.595  11.916  0.2160  0.1011 -0.0690
41636SOL    HW133876   6.682   4.546  11.915 -0.3733 -0.9094 -1.2541
41636SOL    HW233877   6.583   4.611  12.009  0.6488 -1.5658  0.3246
41637SOL     OW33878   6.959   1.209   1.413  0.6878 -0.3967 -0.5348
41637SOL    HW133879   6.981   1.257   1.493 -1.2927  2.5296 -1.5837
41637SOL    HW233880   6.876   1.166   1.432  1.0417 -1.1078 -0.5332
41638SOL     OW33881   7.758   0.404  10.155 -0.2843  0.1203 -0.4026
41638SOL    HW133882   7.764   0.357  10.238 -0.7644  0.3825 -0.2155
41638SOL    HW233883   7.668   0.390  10.126 -0.0039 -0.3051 -1.0807
41639SOL     OW33884   2.173   1.940  10.096  0.0268 -0.3495  0.1392
41639SOL    HW133885   2.162   1.871  10.031 -2.3842  2.1947 -2.4244
41639SOL    HW233886   2.106   1.922  10.162  1.5069 -2.1001  1.2714
41640SOL     OW33887   7.712   3.895   0.979  0.1035 -0.1045 -0.3160
41640SOL    HW133888   7.659   3.823   1.014 -0.3901 -0.0144 -0.8756
41640SOL    HW233889   7.716   3.958   1.050  1.4437 -1.1402  0.5901
41641SOL     OW33890   5.698   1.026  10.186 -0.5114  0.2061  0.3519
41641SOL    HW133891   5.690   0.942  10.139 -1.6616  0.3788  0.2070
41641SOL    HW233892   5.624   1.027  10.246 -1.2998  1.6867 -0.5826
41642SOL     OW33893  11.620   0.223   7.099  0.7976  0.1826 -0.3125
41642SOL    HW133894  11.561   0.187   7.033  0.8184 -0.3928 -0.0206
41642SOL    HW233895  11.567   0.233   7.177  1.3170 -1.3428  0.2695
41643SOL     OW33896   6.158  11.854  12.115  0.4490  0.3685 -0.1628
41643SOL    HW133897   6.169  11.916  12.043  0.7710  0.7858  0.2369
41643SOL    HW233898   6.163  11.908  12.194 -1.7905  0.2127  0.1582
41644SOL     OW33899  12.439   0.670   3.348 -0.4411  0.2695 -0.7513
41644SOL    HW133900  12.425   0.725   3.271  0.7555 -1.6409 -2.4325
41644SOL    HW233901  12.370   0.604   3.344 -0.6159  0.3902  0.0695
41645SOL     OW33902   3.348   3.133   1.143  0.2968  0.1570 -0.2439
41645SOL    HW133903   3.258   3.161   1.156  0.0040 -1.1269  0.6206
41645SOL    HW233904   3.397   3.215   1.135 -0.4919  1.0207  2.4628
41646SOL     OW33905   2.977   1.319   6.746 -0.4427  0.1297 -0.3357
41646SOL    HW133906   2.882   1.322   6.758 -0.4423  1.4313 -0.5345
41646SOL    HW233907   2.990   1.325   6.652 -0.1459  0.6185 -0.2673
41647SOL     OW33908   5.895   7.407  11.575 -0.2467  0.4347  0.4591
41647SOL    HW133909   5.821   7.468  11.580 -0.4361  0.2458  0.0694
41647SOL    HW233910   5.859   7.331  11.528  0.0310  0.0930  0.7957
41648SOL     OW33911   0.911   7.671   1.117 -0.1496  0.8587 -0.0492
41648SOL    HW133912   0.849   7.598   1.125 -2.4368  2.5877 -0.8750
41648SOL    HW233913   0.887   7.730   1.188  0.4888  1.6412 -0.4764
41649SOL     OW33914   8.505  11.640   6.759 -0.0632  0.4258 -0.0914
41649SOL    HW133915   8.442  11.710   6.741  0.7488  1.1679 -0.1093
41649SOL    HW233916   8.512  11.592   6.676 -1.7356 -0.6313  0.3220
41650SOL     OW33917   9.884   4.634   7.706 -0.4557  0.0489  0.2352
41650SOL    HW133918   9.908   4.543   7.723 -1.7401 -0.5982 -1.1318
41650SOL    HW233919   9.850   4.666   7.790  2.8890  0.3290  1.6021
41651SOL     OW33920   9.008   7.437  10.405  0.7961  0.1555  0.3420
41651SOL    HW133921   9.075   7.374  10.432 -0.0046 -1.3202 -0.9696
41651SOL    HW233922   8.933   7.418  10.462  0.5577 -0.1118 -0.0501
41652SOL     OW33923   8.755   7.557   6.687  0.3071  0.3542 -0.4041
41652SOL    HW133924   8.744   7.495   6.759  0.2060  0.1145 -0.6234
41652SOL    HW233925   8.849   7.561   6.673  0.3780  0.8865  0.1575
41653SOL     OW33926   5.494   2.173   0.043  0.0586  0.5335  0.0227
41653SOL    HW133927   5.496   2.268   0.030 -0.2188  0.5973  0.4117
41653SOL    HW233928   5.583   2.150   0.072  0.3281  0.5653 -0.7551
41654SOL     OW33929   7.991   2.618   0.262 -0.4045  0.3935  0.1120
41654SOL    HW133930   8.073   2.622   0.312 -0.7670  1.2630  0.6634
41654SOL    HW233931   7.948   2.538   0.294 -1.2016  1.5586  2.1597
41655SOL     OW33932   0.983   8.575   0.211 -0.3196 -0.0143  0.1966
41655SOL    HW133933   0.982   8.560   0.116  1.2622  0.3924  0.0826
41655SOL    HW233934   1.036   8.503   0.246 -0.9429 -0.1949  0.7860
41656SOL     OW33935  10.808  12.269   9.125 -0.3665 -0.2440  0.4645
41656SOL    HW133936  10.860  12.320   9.186 -1.0435 -0.1234  0.9494
41656SOL    HW233937  10.813  12.318   9.043  0.5890 -0.4361  0.3964
41657SOL     OW33938   1.859   3.545   7.775  0.6706 -0.3797  0.3421
41657SOL    HW133939   1.807   3.548   7.855  0.4510  0.3554  0.1794
41657SOL    HW233940   1.894   3.456   7.772 -1.6872 -1.3736 -0.2444
41658SOL     OW33941   4.804  10.553   4.509 -0.1947 -0.0424  1.0260
41658SOL    HW133942   4.848  10.635   4.530 -1.2592  0.5141  1.1543
41658SOL    HW233943   4.840  10.528   4.423  1.0979 -0.1493  1.5783
41659SOL     OW33944  10.052   4.893   4.604  0.4915 -0.5180 -0.2442
41659SOL    HW133945   9.988   4.824   4.589  2.0556 -1.9277 -0.7177
41659SOL    HW233946  10.040   4.953   4.531  0.1670 -1.1264 -0.7010
41660SOL     OW33947   2.084   4.441   0.045 -0.0382 -0.1471 -0.0629
41660SOL    HW133948   2.026   4.373   0.081 -0.3396  1.4596  2.7507
41660SOL    HW233949   2.162   4.438   0.101  0.0710  1.6122 -0.0745
41661SOL     OW33950   1.741   5.913   3.169 -0.3854 -0.1346  0.3435
41661SOL    HW133951   1.730   5.979   3.238  0.7035  0.0029  0.4075
41661SOL    HW233952   1.835   5.894   3.169 -0.1899  0.5296 -1.7050
41662SOL     OW33953  11.378   5.589  11.522 -0.5091 -0.0662 -0.4143
41662SOL    HW133954  11.381   5.629  11.609  0.3119 -1.1358  0.0716
41662SOL    HW233955  11.293   5.616  11.487 -1.5949 -0.9104  1.3746
41663SOL     OW33956   5.161   6.449   7.634 -0.4358  0.0547 -0.4601
41663SOL    HW133957   5.222   6.419   7.701 -0.1277 -1.0604 -1.1994
41663SOL    HW233958   5.081   6.400   7.651 -0.8499  0.8641 -0.0250
41664SOL     OW33959   0.181   7.000   2.403  0.3214 -0.1379 -0.0371
41664SOL    HW133960   0.093   7.026   2.375  0.4034  0.8723  0.5897
41664SOL    HW233961   0.198   7.054   2.480  1.0120 -1.2015  0.5838
41665SOL     OW33962   4.965   2.275   1.923 -0.2694  0.8307 -0.3747
41665SOL    HW133963   5.050   2.234   1.939 -0.7568 -0.2562 -0.4912
41665SOL    HW233964   4.986   2.358   1.879  0.8350  1.6752  1.6345
41666SOL     OW33965   0.572   1.797  10.511  0.5337 -0.4604  0.2494
41666SOL    HW133966   0.585   1.771  10.602 -0.4713  1.1162  0.8899
41666SOL    HW233967   0.648   1.852  10.491  0.9840 -1.1728 -0.0251
41667SOL     OW33968   7.754  10.603   9.014  0.1689 -0.0638 -0.6579
41667SOL    HW133969   7.807  10.671   9.057  1.7923 -1.7606  0.1407
41667SOL    HW233970   7.816  10.533   8.995 -1.9515 -2.7003  1.4419
41668SOL     OW33971   0.463  11.664   1.848  0.4464 -0.2877 -0.4527
41668SOL    HW133972   0.376  11.704   1.838  0.4198 -0.0343  0.5878
41668SOL    HW233973   0.446  11.582   1.894  0.6683 -0.7128 -1.1194
41669SOL     OW33974  11.114   3.538   9.904  0.0218  0.3838 -0.3930
41669SOL    HW133975  11.208   3.555   9.901 -0.0673  0.7609 -1.6014
41669SOL    HW233976  11.105   3.465   9.964  1.0494  0.5994  0.0428
41670SOL     OW33977  10.197  10.677   8.548 -0.2394  0.0480  0.5055
41670SOL    HW133978  10.140  10.709   8.618 -1.6645 -0.2039 -0.4940
41670SOL    HW233979  10.176  10.583   8.542 -0.2970  0.1130 -0.4016
41671SOL     OW33980   3.842   8.191   7.589  0.3063  0.3185 -0.0733
41671SOL    HW133981   3.927   8.236   7.580  2.2300 -2.2270  3.0215
41671SOL    HW233982   3.859   8.102   7.558 -1.9494  0.2835 -1.4153
41672SOL     OW33983  11.842   2.382   6.708 -0.2512  0.0304  0.4011
41672SOL    HW133984  11.804   2.352   6.626  1.3046 -1.3150  0.1105
41672SOL    HW233985  11.922   2.329   6.718  2.3846  3.6116  0.1970
41673SOL     OW33986   4.838   8.251   6.142 -0.0239 -0.1362 -0.6334
41673SOL    HW133987   4.913   8.275   6.087  2.3523  0.4071  2.5834
41673SOL    HW233988   4.847   8.156   6.154  0.1943 -0.0619 -0.2053
41674SOL     OW33989   1.822   6.965   9.010 -0.0080 -0.1481  0.1706
41674SOL    HW133990   1.849   6.875   8.995 -0.0468 -0.1447  0.0753
41674SOL    HW233991   1.731   6.968   8.981 -0.2753 -0.2823  0.9769
41675SOL     OW33992   9.669   1.364   1.262  0.1468  0.0938  0.2166
41675SOL    HW133993   9.674   1.434   1.198  1.2468 -0.6498 -0.5382
41675SOL    HW233994   9.701   1.403   1.343  1.5378  0.2628 -0.3868
41676SOL     OW33995   4.752   8.956  11.921  0.3668 -0.0051 -0.3866
41676SOL    HW133996   4.669   8.946  11.968  0.6820  0.8949  0.3995
41676SOL    HW233997   4.727   8.993  11.836 -0.0135  0.7496  0.0376
41677SOL     OW33998   3.961   5.555   2.552 -0.1364  0.5383 -0.2382
41677SOL    HW133999   3.929   5.645   2.559 -0.7262  0.3390 -0.3054
41677SOL    HW234000   3.885   5.500   2.574  0.6283  0.0669  1.4372
41678SOL     OW34001   8.763   2.529   3.473 -0.4192 -0.1915  0.9082
41678SOL    HW134002   8.731   2.557   3.559 -1.4138 -0.1289  0.5253
41678SOL    HW234003   8.797   2.610   3.433 -1.1750  0.0375  0.7190
41679SOL     OW34004  12.019   4.011   8.732  0.0929 -0.0286 -0.3978
41679SOL    HW134005  12.059   3.996   8.818 -0.6428 -0.8512 -0.1789
41679SOL    HW234006  12.068   4.084   8.694  1.5215 -0.7359  0.0272
41680SOL     OW34007   5.179   8.403   2.617 -0.4401  0.6132 -0.2989
41680SOL    HW134008   5.122   8.448   2.556 -1.0854 -1.5219 -1.3701
41680SOL    HW234009   5.182   8.313   2.585  0.5970 -0.1787  1.8352
41681SOL     OW34010   5.697  10.831   5.944  0.0734  0.0535  0.7679
41681SOL    HW134011   5.713  10.837   5.850  1.9968 -1.1067  0.9603
41681SOL    HW234012   5.709  10.921   5.976 -1.2300  0.5814 -0.1347
41682SOL     OW34013   5.486   2.063  11.001  0.5832 -0.0661  0.1835
41682SOL    HW134014   5.426   2.099  10.936 -0.8962  0.9969  2.0380
41682SOL    HW234015   5.503   2.136  11.061  3.0590 -0.5899  0.2316
41683SOL     OW34016   6.088   1.845   7.736  0.3555  0.6005  0.0680
41683SOL    HW134017   6.161   1.843   7.798  0.0244  0.3159  0.4558
41683SOL    HW234018   6.127   1.872   7.654  1.4465 -2.1436 -0.4241
41684SOL     OW34019   5.216   3.071   4.481 -0.5214 -0.4082 -0.6016
41684SOL    HW134020   5.141   3.119   4.448 -1.5247 -1.3616  0.1865
41684SOL    HW234021   5.250   3.125   4.552 -1.1176 -0.4618 -0.2709
41685SOL     OW34022  11.171   7.453   0.811  0.1818  0.2234 -0.5545
41685SOL    HW134023  11.127   7.431   0.892 -1.8377  1.2142 -1.3266
41685SOL    HW234024  11.243   7.389   0.805 -0.4286 -0.7139  1.3081
41686SOL     OW34025   9.393  10.786   8.507  0.2569  0.0447 -0.0364
41686SOL    HW134026   9.354  10.772   8.421  0.3874 -1.7028  0.1448
41686SOL    HW234027   9.482  10.815   8.489 -0.0260  0.6518 -0.4735
41687SOL     OW34028   9.669   9.708   9.343 -1.0778 -0.6241 -0.1915
41687SOL    HW134029   9.698   9.734   9.256 -0.2900  0.6646  0.4214
41687SOL    HW234030   9.580   9.742   9.350 -0.4330  1.0881  0.2087
41688SOL     OW34031  11.969   5.140   3.267  0.2613  0.2376  0.4044
41688SOL    HW134032  11.892   5.196   3.269 -1.6331 -1.9184 -2.9070
41688SOL    HW234033  12.040   5.197   3.239 -0.3438  1.9610  2.1123
41689SOL     OW34034  10.311  10.864   6.672 -0.0429 -0.3808  0.1259
41689SOL    HW134035  10.252  10.869   6.597 -0.2848  0.3737  0.3580
41689SOL    HW234036  10.390  10.821   6.638  0.1940  0.7519 -0.7966
41690SOL     OW34037   9.093   3.843   2.364 -0.2356 -0.0944 -0.1983
41690SOL    HW134038   9.075   3.864   2.455  1.4971  1.1419 -0.0934
41690SOL    HW234039   9.095   3.928   2.319  2.0496 -0.3624 -0.7357
41691SOL     OW34040   0.374   6.845  12.318 -0.1839  0.0126 -0.5200
41691SOL    HW134041   0.460   6.863  12.356 -0.4746  0.9907 -0.2905
41691SOL    HW234042   0.394   6.811  12.231  0.4429  0.4860 -0.5752
41692SOL     OW34043  10.372   5.359   3.932  0.5969  0.0882 -0.0643
41692SOL    HW134044  10.406   5.394   3.850  0.2838 -0.1218 -0.2835
41692SOL    HW234045  10.283   5.331   3.912  0.3550  0.4509  0.4545
41693SOL     OW34046  11.458   0.730   3.668 -0.7246 -0.2024  0.3341
41693SOL    HW134047  11.388   0.755   3.608  0.4083 -1.3384 -1.5624
41693SOL    HW234048  11.446   0.635   3.681 -1.4381  0.1415  2.6409
41694SOL     OW34049  10.614   5.299   4.698  1.0218 -0.2957  0.3945
41694SOL    HW134050  10.564   5.352   4.636  1.8586 -0.3112 -0.3094
41694SOL    HW234051  10.549   5.240   4.737  0.6267 -0.9035 -1.1228
41695SOL     OW34052   2.520   1.858   7.743 -0.2942 -0.2959 -0.0155
41695SOL    HW134053   2.490   1.910   7.818 -0.6319  0.1771 -0.4714
41695SOL    HW234054   2.560   1.780   7.783  1.7301  1.0405  0.7517
41696SOL     OW34055   4.177   6.745  12.528 -0.4725  0.3972  0.2713
41696SOL    HW134056   4.235   6.677  12.562 -2.2512 -0.9109  0.8363
41696SOL    HW234057   4.232   6.796  12.468  1.0838 -1.1264  0.3349
41697SOL     OW34058   8.941  10.309  10.372 -0.4063  0.3625 -0.1955
41697SOL    HW134059   8.988  10.282  10.293 -1.2302  0.2936 -0.6726
41697SOL    HW234060   9.004  10.364  10.419 -0.5869  2.1464 -1.9107
41698SOL     OW34061   9.712   4.990   5.280  0.6762  0.2095  0.3840
41698SOL    HW134062   9.764   4.913   5.255  1.2542  1.1832 -1.6295
41698SOL    HW234063   9.623   4.968   5.255  0.4624 -0.5640  1.7170
41699SOL     OW34064   4.634   5.088   6.581 -0.5760 -0.9920 -0.2561
41699SOL    HW134065   4.547   5.050   6.596 -1.0417  0.0834 -0.1059
41699SOL    HW234066   4.640   5.100   6.487 -1.2442  0.3470 -0.1585
41700SOL     OW34067   9.829   2.918   6.913  0.1647 -0.6205  0.4636
41700SOL    HW134068   9.885   2.965   6.851 -0.7387 -0.8395 -0.5540
41700SOL    HW234069   9.836   2.826   6.887 -0.5336 -0.6665  0.4317
41701SOL     OW34070   7.391   0.387   1.139  0.1205 -0.0431 -0.1979
41701SOL    HW134071   7.335   0.410   1.065  0.0957  0.2083 -0.1027
41701SOL    HW234072   7.473   0.359   1.099  1.2716  3.0412 -0.3253
41702SOL     OW34073   4.366  10.761   6.131  0.2435 -0.5824 -0.1868
41702SOL    HW134074   4.282  10.723   6.102 -0.7051  2.0243 -1.1275
41702SOL    HW234075   4.399  10.808   6.055  1.6663 -0.0415  0.7172
41703SOL     OW34076   2.535   2.833   7.789 -0.3527 -0.0107 -0.0675
41703SOL    HW134077   2.572   2.751   7.756  1.1579  0.0765  1.2395
41703SOL    HW234078   2.589   2.854   7.866  0.1880  2.8889 -1.1167
41704SOL     OW34079   6.111   7.108   9.072  0.5402  0.4278 -0.3096
41704SOL    HW134080   6.068   7.182   9.028 -0.2003 -0.2824 -0.8087
41704SOL    HW234081   6.115   7.134   9.164  0.8782  1.3616 -0.5736
41705SOL     OW34082  10.585   7.714   4.032 -0.0656 -0.1822 -0.1527
41705SOL    HW134083  10.494   7.733   4.009  0.4953 -0.9053 -3.4749
41705SOL    HW234084  10.626   7.801   4.038 -0.5109  0.0966 -0.9398
41706SOL     OW34085  11.291   6.329   7.337 -0.0448 -0.6690  0.5441
41706SOL    HW134086  11.295   6.314   7.431 -0.3990  0.0609  0.6813
41706SOL    HW234087  11.368   6.382   7.317 -0.5788  0.1455  0.6168
41707SOL     OW34088   7.890  10.995  12.413 -0.2474 -0.1745  0.3065
41707SOL    HW134089   7.852  10.966  12.330 -0.2735  0.9053 -0.0716
41707SOL    HW234090   7.973  11.037  12.389  0.0552 -0.4221  0.8903
41708SOL     OW34091   1.593   0.875  12.123  0.5644  0.7150  0.0355
41708SOL    HW134092   1.629   0.859  12.210 -0.8844 -2.4585  0.1823
41708SOL    HW234093   1.646   0.821  12.065 -2.2066 -2.1517 -0.0657
41709SOL     OW34094   6.504   4.923   9.214 -0.1412  0.3129  0.3761
41709SOL    HW134095   6.420   4.962   9.190 -0.6286 -0.8159  0.1443
41709SOL    HW234096   6.551   4.914   9.131  0.3701  1.2608  0.5476
41710SOL     OW34097   4.437   2.420   1.353 -0.0175  0.2176  0.0386
41710SOL    HW134098   4.359   2.366   1.338 -0.4689  0.5462  1.1346
41710SOL    HW234099   4.506   2.356   1.371 -0.1498 -0.0609 -0.4251
41711SOL     OW34100   3.555   2.010   8.355  0.7889 -0.0975  0.0643
41711SOL    HW134101   3.514   1.989   8.439 -2.7745 -1.1115 -1.7089
41711SOL    HW234102   3.583   1.926   8.320  0.3157  0.0370 -0.6507
41712SOL     OW34103  12.539  10.025   7.676 -0.1656  0.0133 -0.0442
41712SOL    HW134104  12.568  10.039   7.586 -1.4394  0.3735 -0.4152
41712SOL    HW234105  12.557   9.932   7.693  1.7097  0.3435 -0.0411
41713SOL     OW34106  10.950  12.254   1.082  0.3239  0.0589  0.2502
41713SOL    HW134107  10.976  12.234   0.993 -1.8536  0.4638 -0.5468
41713SOL    HW234108  10.922  12.170   1.119  0.3362  0.0505  0.2393
41714SOL     OW34109   1.237  11.908   5.952 -0.3405  0.1284  0.3835
41714SOL    HW134110   1.227  11.860   6.034 -1.1213 -0.8953 -0.2806
41714SOL    HW234111   1.290  11.984   5.974 -1.0419  0.1901  1.9610
41715SOL     OW34112   3.913   4.083  11.362  0.0622 -0.3125 -0.2102
41715SOL    HW134113   4.003   4.107  11.342  0.3834 -1.1327  0.2190
41715SOL    HW234114   3.914   4.057  11.454 -0.7319  0.2265 -0.0329
41716SOL     OW34115  11.166   5.314  11.906 -0.5596 -0.1412  0.1141
41716SOL    HW134116  11.217   5.395  11.919 -1.6869  0.4578  1.0409
41716SOL    HW234117  11.161   5.304  11.811  2.0153 -0.7198 -0.0239
41717SOL     OW34118  11.424   9.937   6.812 -0.4909  0.9030 -0.1490
41717SOL    HW134119  11.453   9.927   6.721  0.4707  1.5473  0.0700
41717SOL    HW234120  11.453   9.857   6.855 -0.0296  1.0489 -0.1852
41718SOL     OW34121  11.025  10.049   9.339  0.2104 -0.5641  0.8625
41718SOL    HW134122  11.115  10.040   9.308  0.8429 -2.5642  2.9714
41718SOL    HW234123  10.971  10.046   9.260  1.9159 -0.9260 -0.3232
41719SOL     OW34124   8.466   0.655  10.357 -0.2189  0.4771 -0.1624
41719SOL    HW134125   8.476   0.675  10.264  0.9622  0.2741 -0.0919
41719SOL    HW234126   8.518   0.576  10.370  0.6474  1.1989  0.9020
41720SOL     OW34127   1.996   0.781  11.180  0.3053 -0.1432 -0.5226
41720SOL    HW134128   2.086   0.754  11.201  0.3828 -0.1149 -0.8236
41720SOL    HW234129   1.953   0.701  11.151  0.0835 -0.2640  0.1223
41721SOL     OW34130   4.132   5.447   8.454  0.0839 -0.2614  0.6606
41721SOL    HW134131   4.221   5.448   8.487  0.1553 -1.9187  0.5881
41721SOL    HW234132   4.086   5.382   8.508 -0.7851 -0.2263 -0.0058
41722SOL     OW34133  10.857   6.160  10.097 -0.2608 -0.1588 -0.0070
41722SOL    HW134134  10.802   6.207  10.159 -1.2713 -0.3779 -0.7172
41722SOL    HW234135  10.828   6.191  10.011  1.8215  0.9374 -0.3781
41723SOL     OW34136  11.150   9.026   8.865 -0.5221  0.0512  0.0700
41723SOL    HW134137  11.217   8.998   8.926 -0.7176  0.2720  0.3907
41723SOL    HW234138  11.073   8.973   8.886 -0.6449  0.2519  0.1372
41724SOL     OW34139   9.168  10.455  10.446  0.1501  0.4657  0.2309
41724SOL    HW134140   9.209  10.531  10.404  0.4133  1.0586  1.4997
41724SOL    HW234141   9.241  10.396  10.464  0.0532  0.2646 -0.0301
41725SOL     OW34142   4.799  11.189  11.562 -0.5092 -0.4627 -0.2243
41725SOL    HW134143   4.812  11.265  11.619 -0.6785 -1.4295  1.1765
41725SOL    HW234144   4.853  11.206  11.485 -0.6853  1.1389 -0.0094
41726SOL     OW34145   1.391   0.179   1.583 -0.3804  0.5886  0.2380
41726SOL    HW134146   1.380   0.265   1.624  0.3708  0.6668  0.2876
41726SOL    HW234147   1.461   0.137   1.633  0.6887  0.7568 -1.0847
41727SOL     OW34148   1.608  12.176   1.941 -0.1487 -0.6924  1.4271
41727SOL    HW134149   1.514  12.163   1.952 -0.4523  0.9162  1.0088
41727SOL    HW234150   1.623  12.268   1.965  1.1546 -0.6423  0.5410
41728SOL     OW34151   4.698   2.874   7.080  0.0068 -0.1025  0.1837
41728SOL    HW134152   4.638   2.874   7.005  1.8224 -0.6045 -1.3278
41728SOL    HW234153   4.705   2.783   7.106  2.9814 -0.6940 -2.1516
41729SOL     OW34154  12.010  11.992   7.549  0.1785 -0.5191  0.5380
41729SOL    HW134155  12.051  12.010   7.634  0.6203  0.3909  0.1398
41729SOL    HW234156  12.083  11.972   7.491 -0.1305 -1.2229  0.3839
41730SOL     OW34157   1.203  10.044  12.513  0.0082  0.6239 -0.1877
41730SOL    HW134158   1.183  10.077  12.600 -0.3236 -0.7839  0.2973
41730SOL    HW234159   1.299  10.037  12.511  0.0108  0.5693  0.1036
41731SOL     OW34160  10.481   7.209   6.144  0.7429  0.0003  0.2582
41731SOL    HW134161  10.407   7.147   6.143 -0.3479  1.1656 -2.3494
41731SOL    HW234162  10.540   7.175   6.077  0.4867  1.2868 -0.6706
41732SOL     OW34163   5.264   3.031   9.032  0.1823  0.0349 -0.2647
41732SOL    HW134164   5.338   2.985   8.992  0.0733 -0.0076 -0.4209
41732SOL    HW234165   5.304   3.103   9.081  0.3085  0.1876 -0.5884
41733SOL     OW34166   1.641   0.207  10.312  0.4472  0.1230 -0.3799
41733SOL    HW134167   1.662   0.290  10.270 -2.3241  0.7728 -0.6727
41733SOL    HW234168   1.647   0.224  10.406 -1.5452  1.1478 -0.3947
41734SOL     OW34169   7.755   1.382   0.051 -0.4749  0.0462  0.7406
41734SOL    HW134170   7.847   1.406   0.040 -0.4718  0.2562  1.1865
41734SOL    HW234171   7.707   1.463   0.033 -0.5681 -0.0511  0.5570
41735SOL     OW34172   3.910   4.629  10.403  0.3089 -0.0893  0.0282
41735SOL    HW134173   4.002   4.651  10.389 -0.0419  2.5101  1.1179
41735SOL    HW234174   3.863   4.711  10.387 -1.7431 -1.1533  0.2620
41736SOL     OW34175   3.280   9.101  11.141  0.0426  0.7755 -0.6479
41736SOL    HW134176   3.318   9.092  11.228 -1.4895 -1.3038 -0.1161
41736SOL    HW234177   3.225   9.179  11.147 -0.4083  0.3920  0.3942
41737SOL     OW34178   7.713   7.574   3.281  0.1726 -0.3187  0.2638
41737SOL    HW134179   7.800   7.555   3.246  1.3093  1.6674  1.8102
41737SOL    HW234180   7.730   7.612   3.367 -2.2826 -0.6212  0.9316
41738SOL     OW34181  10.886   5.958   6.068 -0.1248  0.2244 -0.1768
41738SOL    HW134182  10.947   5.885   6.083 -0.3424 -0.0034 -0.3945
41738SOL    HW234183  10.804   5.916   6.044 -0.2828  0.5420 -0.1965
41739SOL     OW34184  10.364   3.935  11.366 -0.3701 -0.2909 -0.3559
41739SOL    HW134185  10.402   3.872  11.427  1.6957 -0.4525 -1.6829
41739SOL    HW234186  10.299   3.885  11.317 -0.4204 -0.7500  0.1660
41740SOL     OW34187  10.102   5.994   5.375  0.1761  0.5862  0.2774
41740SOL    HW134188  10.150   6.016   5.295  1.4046 -3.6992 -0.4278
41740SOL    HW234189  10.015   5.967   5.345  0.6558 -1.0838  0.3146
41741SOL     OW34190   9.705   6.777   9.999 -0.8306 -0.4782  0.4552
41741SOL    HW134191   9.744   6.845  10.054  0.7117 -0.7997 -0.1799
41741SOL    HW234192   9.682   6.823   9.917 -0.7661 -0.5105  0.4191
41742SOL     OW34193   0.399   9.210   1.484 -0.1323  0.4107 -0.3296
41742SOL    HW134194   0.403   9.124   1.526 -0.4598  0.4682 -0.1755
41742SOL    HW234195   0.484   9.221   1.442 -0.1847 -0.1086 -0.5805
41743SOL     OW34196  10.828  10.020  12.337  0.2214  0.3356 -0.6136
41743SOL    HW134197  10.746   9.976  12.359  0.6465 -0.8203 -1.2561
41743SOL    HW234198  10.801  10.098  12.288 -0.5517  0.9424  0.7354
41744SOL     OW34199   1.918   4.539  11.595 -0.2292 -0.6025 -0.1126
41744SOL    HW134200   1.862   4.580  11.661  1.2966  0.0546  0.8266
41744SOL    HW234201   1.989   4.602  11.582  1.5104 -2.3448  0.4247
41745SOL     OW34202   9.363   0.139   3.750  0.0675  0.1095  0.4430
41745SOL    HW134203   9.333   0.061   3.702 -0.3154  0.5379 -0.0344
41745SOL    HW234204   9.458   0.130   3.754  0.0504 -0.2457  0.1400
41746SOL     OW34205   2.766   3.377   9.649  0.0510  0.0507 -0.1541
41746SOL    HW134206   2.791   3.285   9.637 -0.1064 -0.2345  1.5516
41746SOL    HW234207   2.682   3.373   9.694 -0.0029  1.0440 -0.1600
41747SOL     OW34208   0.410   0.540   2.151 -0.3901  0.1571 -0.8298
41747SOL    HW134209   0.493   0.544   2.104  0.0605 -0.3809 -0.1181
41747SOL    HW234210   0.364   0.621   2.128  1.3694  1.6649  0.6528
41748SOL     OW34211   4.033   9.482   1.173  0.1958  0.2785 -0.1191
41748SOL    HW134212   3.970   9.466   1.103  1.3614 -1.4126 -0.8457
41748SOL    HW234213   4.073   9.567   1.149 -0.6969  0.6094 -0.4846
41749SOL     OW34214  10.523   6.782   8.865 -0.3041 -0.6058  0.3530
41749SOL    HW134215  10.479   6.711   8.818 -0.2606  1.0179 -2.3567
41749SOL    HW234216  10.612   6.750   8.880 -0.4404 -1.3301 -0.3517
41750SOL     OW34217   1.491   1.125  10.227 -0.1419 -0.0671 -0.1160
41750SOL    HW134218   1.449   1.202  10.265  1.5283  1.1861 -0.6983
41750SOL    HW234219   1.463   1.052  10.282 -1.2675  1.0283  0.8185
41751SOL     OW34220  10.905   0.158  10.008 -0.1633 -0.1030  0.0654
41751SOL    HW134221  10.820   0.143  10.050 -0.2998  0.6996  0.0908
41751SOL    HW234222  10.956   0.205  10.074 -0.4958  1.4901 -0.7648
41752SOL     OW34223   0.683   2.901  11.702 -0.3397 -0.1292  0.1839
41752SOL    HW134224   0.776   2.890  11.718 -0.2924 -0.3350 -0.2147
41752SOL    HW234225   0.676   2.987  11.660 -0.4093  0.1915  0.8406
41753SOL     OW34226   1.381   2.195   5.861  0.1157  0.6657 -0.0376
41753SOL    HW134227   1.316   2.138   5.903  0.1982  1.2327  0.8843
41753SOL    HW234228   1.435   2.136   5.810 -0.5775  0.0723 -0.1054
41754SOL     OW34229  10.886  11.827   5.549  0.0901 -0.5053  0.7099
41754SOL    HW134230  10.951  11.865   5.489 -0.2362 -0.9600  0.0588
41754SOL    HW234231  10.888  11.734   5.529 -1.9722 -0.3332 -0.5390
41755SOL     OW34232   0.919   1.899  11.456 -0.6179 -0.1887  0.5985
41755SOL    HW134233   0.872   1.920  11.375 -1.0668 -0.8613  0.6737
41755SOL    HW234234   0.852   1.905  11.524 -0.9268 -2.4039  0.5520
41756SOL     OW34235   9.177   1.704  11.143 -0.0475  0.5473 -0.2864
41756SOL    HW134236   9.244   1.743  11.199  0.4879 -0.2299 -0.3795
41756SOL    HW234237   9.206   1.724  11.054  0.9716 -1.2273 -0.3825
41757SOL     OW34238   5.370   8.794   2.324  0.1578 -0.0055 -0.3895
41757SOL    HW134239   5.306   8.864   2.308  0.6296  0.1486 -1.7239
41757SOL    HW234240   5.324   8.714   2.297 -0.0848 -0.1173  0.3382
41758SOL     OW34241   7.624  11.536   4.504  0.0000 -0.2165 -0.5510
41758SOL    HW134242   7.575  11.618   4.496 -2.6979 -1.6090  0.4107
41758SOL    HW234243   7.684  11.551   4.578  0.8710  1.4108 -1.5210
41759SOL     OW34244   2.619   2.739   1.419 -0.0909 -0.2701  0.0246
41759SOL    HW134245   2.714   2.753   1.416  0.0566 -1.1836  0.1850
41759SOL    HW234246   2.600   2.721   1.511 -0.5831  0.9066  0.1764
41760SOL     OW34247   5.597   0.614   2.112  0.0496 -0.3545  0.4478
41760SOL    HW134248   5.554   0.654   2.188  1.5874  1.6667  0.3470
41760SOL    HW234249   5.536   0.629   2.039 -0.2943  0.0179  0.8050
41761SOL     OW34250   4.707   3.901   1.979  0.1171  0.2021  0.1198
41761SOL    HW134251   4.624   3.923   2.021  0.1580  0.4204  0.0844
41761SOL    HW234252   4.769   3.889   2.052  0.1943  0.6061  0.1199
41762SOL     OW34253   0.736   4.139   3.070 -0.3976  0.2990 -0.1235
41762SOL    HW134254   0.751   4.203   3.139  0.8794  1.7275 -1.6327
41762SOL    HW234255   0.668   4.178   3.015  0.6744  0.5960 -1.2811
41763SOL     OW34256   9.789   6.463   0.772  0.0731  0.8027  0.4163
41763SOL    HW134257   9.740   6.469   0.854  1.6824  0.9670  1.3950
41763SOL    HW234258   9.799   6.369   0.757 -0.7599  0.7596  0.0480
41764SOL     OW34259   9.192   7.284   5.339 -0.0269 -0.0825  0.2942
41764SOL    HW134260   9.177   7.189   5.348 -0.3275  0.0949  2.2317
41764SOL    HW234261   9.282   7.291   5.307  0.3783 -1.0387  1.1485
41765SOL     OW34262   3.495   1.727  12.005  0.6529 -0.7130 -0.2994
41765SOL    HW134263   3.437   1.733  12.081  2.9688 -0.2026  1.5668
41765SOL    HW234264   3.464   1.794  11.945 -0.9560 -0.7873  0.4019
41766SOL     OW34265   2.301   0.692   2.799 -0.6516  0.3388  0.1175
41766SOL    HW134266   2.320   0.654   2.884  0.6220 -0.7243 -0.6077
41766SOL    HW234267   2.220   0.742   2.812  1.0139  2.6434  2.6485
41767SOL     OW34268   6.515   0.010  12.500  0.6959 -0.8366 -0.0668
41767SOL    HW134269   6.513   0.044  12.410  1.1137 -0.2543  0.1363
41767SOL    HW234270   6.599  -0.035  12.508 -0.1424 -2.5731 -0.5479
41768SOL     OW34271   2.485   3.536   4.819  0.1985  0.1745  0.3749
41768SOL    HW134272   2.411   3.487   4.854  0.3389 -0.0421  0.3684
41768SOL    HW234273   2.560   3.507   4.871  0.3237  0.2052  0.2131
41769SOL     OW34274   4.332   3.288   2.630 -0.8222  0.0113  0.5378
41769SOL    HW134275   4.278   3.319   2.557  0.8067 -1.5509 -1.4371
41769SOL    HW234276   4.407   3.246   2.589 -0.2529 -1.7614  3.1284
41770SOL     OW34277   5.622   9.276   1.961  0.4688  0.2801  0.3677
41770SOL    HW134278   5.670   9.193   1.958  0.1299  0.1021 -0.7929
41770SOL    HW234279   5.568   9.275   1.882 -0.4242  1.0894  0.9376
41771SOL     OW34280   0.030   4.038   2.145 -0.0005  0.3698 -0.4318
41771SOL    HW134281  -0.000   3.948   2.158  0.3018  0.0860 -1.6401
41771SOL    HW234282   0.007   4.082   2.227  2.8351 -1.6082  1.6588
41772SOL     OW34283   8.952   7.292   9.596 -0.3421 -0.1573 -0.6622
41772SOL    HW134284   8.909   7.253   9.520  0.5860  0.3629 -1.4730
41772SOL    HW234285   8.988   7.374   9.564 -1.2620  0.8383  0.7355
41773SOL     OW34286   9.116   9.397   5.960 -0.0461  0.0166 -0.2259
41773SOL    HW134287   9.181   9.467   5.967 -2.1513  2.0052  1.2298
41773SOL    HW234288   9.142   9.348   5.882  1.8085  2.1673 -1.0904
41774SOL     OW34289   3.798   8.027   5.151  0.7889 -0.0127  0.1146
41774SOL    HW134290   3.728   7.965   5.132  1.2885  0.0525 -2.2827
41774SOL    HW234291   3.753   8.103   5.188 -0.1710 -0.6769  0.3509
41775SOL     OW34292   4.952  10.179   9.721  0.3594  0.0968  0.2273
41775SOL    HW134293   4.974  10.086   9.727 -1.9452 -0.4402  1.9046
41775SOL    HW234294   4.928  10.204   9.810 -1.7382  1.5417 -0.6611
41776SOL     OW34295  11.403  10.569   7.693  0.6113  0.8872  0.3870
41776SOL    HW134296  11.404  10.646   7.749  1.1758 -0.5488  2.4743
41776SOL    HW234297  11.489  10.530   7.704  0.0710 -0.4805  0.0089
41777SOL     OW34298  10.621   2.767   8.054 -0.0684 -0.3587  0.1405
41777SOL    HW134299  10.641   2.681   8.017  1.7083  0.5535 -1.1934
41777SOL    HW234300  10.658   2.829   7.991 -0.3681  1.3656  1.5799
41778SOL     OW34301   8.766   9.717   6.815  0.5364 -0.2698 -0.2441
41778SOL    HW134302   8.700   9.785   6.809  0.7221  0.4170  3.2845
41778SOL    HW234303   8.750   9.676   6.900  2.2580 -2.7187 -0.9822
41779SOL     OW34304   1.160   1.781  11.509  0.3201 -0.0539  0.3888
41779SOL    HW134305   1.071   1.812  11.526  0.2652 -0.7297  1.4230
41779SOL    HW234306   1.193   1.839  11.440 -0.7961  0.4181  0.2298
41780SOL     OW34307   2.296   2.264   8.800  0.1983  0.1842 -0.4071
41780SOL    HW134308   2.315   2.293   8.889  1.3938  0.7420 -0.8276
41780SOL    HW234309   2.242   2.186   8.812  0.9320 -0.1705  0.8296
41781SOL     OW34310   0.182   9.110   8.520  0.7612 -0.1299 -0.2130
41781SOL    HW134311   0.230   9.034   8.487  1.2517  0.5609 -1.1286
41781SOL    HW234312   0.096   9.103   8.479  1.1015  0.2852 -1.0113
41782SOL     OW34313   7.899   9.372   2.832  0.0487 -0.2210  0.0620
41782SOL    HW134314   7.836   9.300   2.835  0.5340 -0.6345  0.7044
41782SOL    HW234315   7.969   9.340   2.774 -0.8453  0.6855 -1.5831
41783SOL     OW34316  10.761   7.436   5.850  0.5220 -0.5455  0.4022
41783SOL    HW134317  10.787   7.403   5.936  1.3598 -1.1863 -0.0776
41783SOL    HW234318  10.829   7.499   5.827 -0.3647  0.5640  0.7320
41784SOL     OW34319   1.511   0.986   0.352 -0.6377 -0.4533  0.5144
41784SOL    HW134320   1.521   0.935   0.433  1.7636 -1.6379 -0.4370
41784SOL    HW234321   1.482   0.922   0.287 -2.9357  0.5679  0.4297
41785SOL     OW34322   5.412  11.808   8.980  0.1149  0.0232  0.1010
41785SOL    HW134323   5.336  11.778   8.930  0.0216  2.0067 -1.0576
41785SOL    HW234324   5.462  11.728   8.997 -0.5754 -0.9442 -1.9668
41786SOL     OW34325   7.390   6.286   8.993 -0.4528 -0.1726  0.5820
41786SOL    HW134326   7.316   6.344   9.011 -0.6293 -0.6444  1.4837
41786SOL    HW234327   7.349   6.202   8.971 -0.1931 -0.6002  1.6817
41787SOL     OW34328   7.148   8.503   9.745 -0.4761 -0.1084  0.7798
41787SOL    HW134329   7.058   8.491   9.715  0.2928  0.6150 -2.0965
41787SOL    HW234330   7.167   8.596   9.731  1.6373 -0.7850 -1.8671
41788SOL     OW34331   5.624   5.018   4.290  0.3659  0.0807 -0.3826
41788SOL    HW134332   5.548   5.015   4.232  1.1915  3.7187 -1.8952
41788SOL    HW234333   5.593   5.064   4.368  0.6358  0.2956 -0.3987
41789SOL     OW34334  10.420   0.637   1.774  0.7041 -0.1947  0.0712
41789SOL    HW134335  10.365   0.715   1.779  0.1745 -0.5104 -0.7690
41789SOL    HW234336  10.359   0.565   1.763  1.1296 -0.8457  1.6565
41790SOL     OW34337   7.803   9.281   2.149  0.1731  0.0202  0.6116
41790SOL    HW134338   7.816   9.300   2.057  1.7214  1.3813  1.0642
41790SOL    HW234339   7.720   9.324   2.171 -0.4792 -0.7620 -0.2281
41791SOL     OW34340  11.591   6.307   2.550  0.3521 -0.1134 -0.1253
41791SOL    HW134341  11.665   6.299   2.610  0.5978  0.9353 -0.2615
41791SOL    HW234342  11.528   6.362   2.596 -0.0925 -0.5185 -0.2439
41792SOL     OW34343   8.794   4.400  11.241  0.4305 -0.3951  0.3426
41792SOL    HW134344   8.790   4.491  11.270 -0.0690 -0.1528 -0.4435
41792SOL    HW234345   8.853   4.401  11.166  2.2115 -1.1209  1.6643
41793SOL     OW34346  11.715   9.130   2.264  0.1238 -0.1098  0.6265
41793SOL    HW134347  11.637   9.096   2.219 -0.3828  0.1199  1.3068
41793SOL    HW234348  11.695   9.223   2.277 -1.9474 -0.8898  5.5170
41794SOL     OW34349   1.847  11.732   8.233  0.3399 -0.5423 -0.9806
41794SOL    HW134350   1.819  11.816   8.197 -0.1493 -1.0583 -1.8421
41794SOL    HW234351   1.796  11.722   8.313 -2.3636 -1.6257 -2.6935
41795SOL     OW34352   9.345   7.019  11.199 -0.0555  0.4673  0.1017
41795SOL    HW134353   9.282   6.995  11.266  0.1207  0.5436  0.2967
41795SOL    HW234354   9.292   7.047  11.125 -0.2466  1.5392  0.6272
41796SOL     OW34355   0.920   5.342   2.241  0.1009  0.1701 -0.1669
41796SOL    HW134356   0.834   5.322   2.279  0.6928  1.0076  1.7904
41796SOL    HW234357   0.900   5.392   2.162 -1.2117 -0.8455 -0.5236
41797SOL     OW34358   2.353  11.191   6.259  0.0371 -0.2143 -0.1533
41797SOL    HW134359   2.277  11.245   6.281  0.5227 -0.2115  1.6844
41797SOL    HW234360   2.326  11.102   6.280  0.7653 -0.1271  1.3806
41798SOL     OW34361  11.165   3.021   7.016  0.2936 -0.1536  0.1448
41798SOL    HW134362  11.082   3.013   6.969  1.9070 -0.5926 -2.8383
41798SOL    HW234363  11.212   3.091   6.971  2.5947 -1.7071 -0.0508
41799SOL     OW34364   8.707   6.671   4.525 -0.0042  0.6165  0.0427
41799SOL    HW134365   8.708   6.605   4.594  0.6257  0.9603  0.3712
41799SOL    HW234366   8.777   6.646   4.465 -0.2763  0.5521 -0.2529
41800SOL     OW34367  10.249   8.900   7.213  0.0699  0.3027 -0.2230
41800SOL    HW134368  10.273   8.821   7.261 -1.1147  1.0469  1.7051
41800SOL    HW234369  10.161   8.881   7.180  0.3635  0.2921 -1.0302
41801SOL     OW34370   1.487   3.001   4.895  0.3172 -0.0741  0.3329
41801SOL    HW134371   1.459   2.952   4.817 -0.5082  1.9251 -0.7127
41801SOL    HW234372   1.570   3.040   4.870 -0.2976  1.1719  0.1286
41802SOL     OW34373   1.881   9.942   0.954  0.2138 -0.0165  0.4747
41802SOL    HW134374   1.827   9.877   0.999  0.8475 -0.3518  0.7647
41802SOL    HW234375   1.856  10.026   0.993 -0.3732 -0.1194  0.3289
41803SOL     OW34376   8.234   3.353   3.430 -0.5270  0.1519  0.5876
41803SOL    HW134377   8.174   3.426   3.421 -1.1911 -0.4678 -0.2103
41803SOL    HW234378   8.288   3.356   3.350 -0.4674 -0.1392  0.6149
41804SOL     OW34379   8.797   9.134   9.841 -0.1673 -0.0731 -0.1211
41804SOL    HW134380   8.742   9.089   9.777 -0.6439  1.7264 -1.0529
41804SOL    HW234381   8.763   9.105   9.926 -0.6795 -1.1757 -0.6854
41805SOL     OW34382   2.033   7.988  12.194  0.7043  0.2619  0.0996
41805SOL    HW134383   2.009   7.902  12.229 -1.2220  1.1061  0.9714
41805SOL    HW234384   1.957   8.015  12.142  1.0844  1.6621  0.2484
41806SOL     OW34385  10.770   3.647   4.559 -0.4464  0.3489 -0.1371
41806SOL    HW134386  10.683   3.609   4.542  0.2475 -1.3702 -0.0914
41806SOL    HW234387  10.829   3.571   4.560  0.7464  1.2159  1.9861
41807SOL     OW34388   0.734   9.530   4.647 -0.6341 -0.1306 -0.1276
41807SOL    HW134389   0.785   9.549   4.726  0.2851  0.8608 -0.9398
41807SOL    HW234390   0.777   9.454   4.608  0.4974  0.9039 -0.9908
41808SOL     OW34391   7.847   8.874   2.627  0.3236  0.3705  0.1624
41808SOL    HW134392   7.758   8.866   2.660  0.6597  1.1612  1.3160
41808SOL    HW234393   7.902   8.844   2.700  1.0330  0.7276 -0.2212
41809SOL     OW34394   0.822  12.401   9.079 -0.4683  0.9024  0.5483
41809SOL    HW134395   0.786  12.475   9.030  0.7067  1.0921 -0.0783
41809SOL    HW234396   0.911  12.429   9.101  0.0330 -0.3834  0.1941
41810SOL     OW34397   5.137   4.569  12.158  0.2085 -0.2975  0.1512
41810SOL    HW134398   5.132   4.476  12.139  0.9028 -0.0848 -1.2170
41810SOL    HW234399   5.046   4.597  12.171 -0.1927 -0.7944 -1.4117
41811SOL     OW34400   4.159   1.440  12.025 -0.1962 -0.1936 -0.0212
41811SOL    HW134401   4.101   1.503  11.982 -0.0187  0.3168  0.4784
41811SOL    HW234402   4.119   1.424  12.111  0.9137  0.9355  0.7358
41812SOL     OW34403  12.362   4.798   5.214  0.3459 -0.1303  0.3343
41812SOL    HW134404  12.359   4.753   5.299  0.5308  0.1546  0.4946
41812SOL    HW234405  12.454   4.824   5.204  0.4122 -0.5416 -0.1558
41813SOL     OW34406   0.037   8.771  10.245 -0.3023 -0.3748  0.0056
41813SOL    HW134407   0.079   8.843  10.199  0.8466 -1.0991 -0.1008
41813SOL    HW234408   0.004   8.714  10.176  3.5208 -2.7226 -0.1284
41814SOL     OW34409   1.348   9.061   4.807  0.4222 -0.2832  0.8136
41814SOL    HW134410   1.331   8.967   4.811 -0.0560 -0.2050  0.6830
41814SOL    HW234411   1.441   9.068   4.787 -0.0536 -0.7834 -2.0496
41815SOL     OW34412   5.998   7.499   0.435 -0.0278  0.2992  0.2903
41815SOL    HW134413   5.993   7.591   0.407  0.0762 -0.1211 -1.1639
41815SOL    HW234414   5.923   7.489   0.493  0.7834  1.6751  1.6535
41816SOL     OW34415  10.207   8.828   8.263  0.3727  0.2134  0.4442
41816SOL    HW134416  10.251   8.816   8.347  2.0872 -0.8106 -0.5422
41816SOL    HW234417  10.232   8.916   8.235 -0.3894  0.6439  1.1040
41817SOL     OW34418  11.263   7.224   1.520  0.3481 -0.6522 -0.3890
41817SOL    HW134419  11.300   7.242   1.607 -0.1285 -0.1922 -0.2809
41817SOL    HW234420  11.222   7.138   1.529  0.7488 -0.8405 -0.3075
41818SOL     OW34421   5.761  10.256   3.671  0.4824 -0.2553  0.1480
41818SOL    HW134422   5.690  10.319   3.658  0.3357 -0.2064  1.1369
41818SOL    HW234423   5.816  10.295   3.740 -0.7375 -2.1212  2.3079
41819SOL     OW34424   0.200   9.914   5.165 -0.1594  0.0753  0.3000
41819SOL    HW134425   0.208   9.911   5.261  0.3274 -0.1766  0.2510
41819SOL    HW234426   0.108   9.938   5.150 -0.1255  0.5728  0.8353
41820SOL     OW34427   2.843   6.041   0.957 -0.3393 -0.0680 -0.2482
41820SOL    HW134428   2.798   6.027   0.874  1.2808  2.0182 -1.5672
41820SOL    HW234429   2.786   6.101   1.006 -0.6393 -0.2191 -0.4066
41821SOL     OW34430   5.941   9.217   6.687  0.1122 -0.0513  0.2881
41821SOL    HW134431   5.878   9.289   6.680  0.7022  0.3826 -0.7591
41821SOL    HW234432   5.887   9.138   6.687 -0.4673  0.3398  0.1536
41822SOL     OW34433   1.559   0.153   9.813  0.3306  0.3466 -0.6122
41822SOL    HW134434   1.578   0.162   9.907  0.2183  0.0214 -0.5586
41822SOL    HW234435   1.555   0.059   9.798  0.9289  0.3878 -1.0664
41823SOL     OW34436   3.459   9.050   9.873 -0.1208  0.0514 -0.0036
41823SOL    HW134437   3.457   9.050   9.969  1.2890 -0.0470  0.0555
41823SOL    HW234438   3.417   9.132   9.848 -0.0268  0.3288  0.7278
41824SOL     OW34439   1.341  12.452  10.091 -0.0595 -0.5083  0.3000
41824SOL    HW134440   1.413  12.393  10.067  0.0891  0.0193 -0.5881
41824SOL    HW234441   1.378  12.540  10.083 -0.8492 -0.2221 -0.3603
41825SOL     OW34442   4.728   0.305   2.992 -0.0459  0.9520 -0.2550
41825SOL    HW134443   4.775   0.306   2.909  1.1164  0.6588  0.3608
41825SOL    HW234444   4.683   0.220   2.993 -0.1197  0.9865 -0.6090
41826SOL     OW34445  11.553  10.516   6.592  0.2631  0.3895 -0.2604
41826SOL    HW134446  11.497  10.503   6.515  1.3422 -0.2744 -0.9546
41826SOL    HW234447  11.496  10.497   6.666 -0.5322  0.0738 -0.9365
41827SOL     OW34448   1.538   8.307  11.174 -0.4695 -0.0568  0.0312
41827SOL    HW134449   1.468   8.274  11.117  0.2661  1.0054 -1.5441
41827SOL    HW234450   1.575   8.381  11.127  0.7220  0.3695  1.5473
41828SOL     OW34451  10.907   1.023  10.213  0.0720  0.3301 -0.1441
41828SOL    HW134452  10.919   0.966  10.137 -2.0647  0.0702 -0.3542
41828SOL    HW234453  10.826   0.992  10.253  2.2922 -1.2039  3.7328
41829SOL     OW34454  10.997  11.130   4.986 -0.5051 -0.0751  0.2134
41829SOL    HW134455  11.071  11.185   5.013 -1.4848  1.2808  0.2648
41829SOL    HW234456  11.014  11.111   4.894  0.5207 -0.8290  0.5416
41830SOL     OW34457   9.590   3.497   2.808 -0.4119  0.1579 -0.3990
41830SOL    HW134458   9.574   3.559   2.737  1.2983 -0.4808 -1.4212
41830SOL    HW234459   9.630   3.549   2.877  0.8581  0.2729 -1.1838
41831SOL     OW34460  12.082  12.006   4.537 -0.3823  0.0387 -0.2520
41831SOL    HW134461  12.049  11.966   4.457 -0.3226  0.5329 -0.5294
41831SOL    HW234462  12.177  12.003   4.527 -0.3510  2.3470 -1.3786
41832SOL     OW34463  10.002   9.797  10.690  0.8339 -0.2082  0.3215
41832SOL    HW134464  10.060   9.852  10.637  1.9945 -0.2914  1.4761
41832SOL    HW234465   9.978   9.725  10.631 -0.4432  1.2842 -1.1060
41833SOL     OW34466   7.233  10.941  10.747  0.3080 -0.4384  0.2505
41833SOL    HW134467   7.162  11.000  10.722 -1.0355 -2.1554 -0.2033
41833SOL    HW234468   7.193  10.879  10.808  1.2683 -1.7334 -0.3750
41834SOL     OW34469   0.528   0.848  12.432  0.6390 -0.0503  0.4475
41834SOL    HW134470   0.558   0.930  12.470 -1.1881 -0.3450  2.7728
41834SOL    HW234471   0.578   0.781  12.478  1.7820 -0.3212 -1.1042
41835SOL     OW34472   5.044   9.767   8.966 -0.1061  0.3825  0.1975
41835SOL    HW134473   5.020   9.702   8.901  2.9226 -1.6356  0.8646
41835SOL    HW234474   4.976   9.761   9.034 -0.4888 -1.3037 -0.3010
41836SOL     OW34475   4.871   8.046   8.580  0.0724  0.1327 -0.1350
41836SOL    HW134476   4.803   8.040   8.513 -0.8646  0.4415  0.7579
41836SOL    HW234477   4.951   8.065   8.531 -0.7754  1.4286 -1.0860
41837SOL     OW34478   3.430  10.966   2.326  0.6323  0.4861  0.0010
41837SOL    HW134479   3.493  10.915   2.275 -0.6356  0.0423 -1.1808
41837SOL    HW234480   3.484  11.013   2.390  1.9771 -1.1926  0.1814
41838SOL     OW34481   8.043   7.504   1.897  0.5612  0.1181 -0.0348
41838SOL    HW134482   7.997   7.546   1.824  0.9783 -1.0893 -1.0186
41838SOL    HW234483   8.124   7.554   1.906  0.1026  0.8376  0.2191
41839SOL     OW34484   8.719   6.084  12.102  0.3099 -0.0303  0.0316
41839SOL    HW134485   8.798   6.051  12.147  0.2175 -0.0827  0.1555
41839SOL    HW234486   8.679   6.005  12.065  1.1887  0.1741 -1.4385
41840SOL     OW34487   3.634   8.646   1.645  0.2303  0.1967  0.3557
41840SOL    HW134488   3.563   8.651   1.709 -2.5465 -0.2819 -2.4554
41840SOL    HW234489   3.622   8.724   1.590  1.5703 -0.1858 -0.5204
41841SOL     OW34490   6.909   9.042   5.041  0.2257  0.3500 -0.4186
41841SOL    HW134491   6.841   8.980   5.068  1.3504 -0.4538  0.6650
41841SOL    HW234492   6.979   9.030   5.105  1.7444  0.5688 -1.9787
41842SOL     OW34493  12.318  11.132   3.108 -0.2070 -0.4601 -0.2701
41842SOL    HW134494  12.308  11.140   3.203 -0.6144 -1.4243 -0.2244
41842SOL    HW234495  12.246  11.184   3.072  0.0396  0.0337 -0.0584
41843SOL     OW34496   0.749   8.756  10.973  0.3653 -0.0539 -0.3130
41843SOL    HW134497   0.748   8.702  11.053  1.4553 -0.3412 -0.4662
41843SOL    HW234498   0.742   8.846  11.005 -0.7570 -0.2462 -0.0023
41844SOL     OW34499   0.359   6.711   7.397 -0.1819 -0.3190  0.4195
41844SOL    HW134500   0.454   6.699   7.402 -0.0023  0.4622 -0.8852
41844SOL    HW234501   0.345   6.804   7.411 -0.8252 -0.5057  1.1461
41845SOL     OW34502   7.930   6.496   1.946 -0.4475 -0.1662 -0.3895
41845SOL    HW134503   7.986   6.450   1.884  2.8062  0.1875  2.0329
41845SOL    HW234504   7.886   6.427   1.995 -2.9090 -0.4474 -2.7661
41846SOL     OW34505   5.942  10.366   8.436  0.5650 -0.5348  0.2061
41846SOL    HW134506   5.914  10.322   8.516 -2.8208 -0.3451 -0.7198
41846SOL    HW234507   6.027  10.403   8.457 -0.5262  0.2156  4.0226
41847SOL     OW34508   9.719  10.099   4.292 -0.0001  0.0605 -0.1217
41847SOL    HW134509   9.626  10.084   4.309 -0.3723  1.3387 -0.9143
41847SOL    HW234510   9.740  10.038   4.221  0.0294 -0.9017  0.6843
41848SOL     OW34511   9.326  10.629  10.325 -0.1537  0.2598 -0.7693
41848SOL    HW134512   9.351  10.719  10.347 -0.1467  0.0591  0.0723
41848SOL    HW234513   9.278  10.637  10.242  0.3082  0.9700 -0.9796
41849SOL     OW34514   6.963   7.465   6.444  0.1684 -0.0754 -1.2706
41849SOL    HW134515   6.989   7.539   6.389 -0.0081  0.5089 -0.5904
41849SOL    HW234516   6.975   7.497   6.533  0.4583 -1.0090 -0.9654
41850SOL     OW34517   5.222   8.959   6.558  0.0881  0.6904  0.0502
41850SOL    HW134518   5.166   8.967   6.481 -0.5077 -1.3390  0.2043
41850SOL    HW234519   5.163   8.929   6.627  0.9742  0.5454  0.7612
41851SOL     OW34520  10.219   3.175   4.806 -0.2257  0.1887 -0.0394
41851SOL    HW134521  10.146   3.228   4.775  1.1967  0.9472 -2.3252
41851SOL    HW234522  10.185   3.086   4.808 -1.3937  0.6115 -0.4616
41852SOL     OW34523   5.024   2.642  12.502  0.6578 -0.0615  0.0106
41852SOL    HW134524   4.973   2.581  12.555  0.4077  1.1575  1.2327
41852SOL    HW234525   5.034   2.720  12.557  1.3238  0.8552 -1.3294
41853SOL     OW34526  11.128   0.108   3.294 -0.8462 -0.8696 -0.7243
41853SOL    HW134527  11.180   0.116   3.215 -1.0321 -0.4491 -0.8076
41853SOL    HW234528  11.157   0.026   3.334  0.4279 -0.2527 -0.3557
41854SOL     OW34529   8.033   8.113  10.884  0.1768 -0.1514  0.0741
41854SOL    HW134530   8.097   8.184  10.891  0.2308 -0.1534 -0.3284
41854SOL    HW234531   8.086   8.033  10.882  0.0391 -0.3776  2.5267
41855SOL     OW34532   9.649   4.848   1.018 -0.2849  0.4833 -0.3821
41855SOL    HW134533   9.674   4.893   0.937  0.0731  0.1105 -0.4882
41855SOL    HW234534   9.629   4.759   0.989 -0.5829  0.4656 -0.1207
41856SOL     OW34535   1.419   2.910   6.421  0.0450  0.0197  0.4735
41856SOL    HW134536   1.479   2.842   6.451  0.9191 -0.1348 -1.5295
41856SOL    HW234537   1.332   2.871   6.429  0.2831 -0.2527  2.0674
41857SOL     OW34538   2.054  12.461   9.597 -0.0470 -0.2005  0.1242
41857SOL    HW134539   1.962  12.437   9.605 -0.0491 -0.4970 -0.6452
41857SOL    HW234540   2.096  12.426   9.675 -0.9393  1.8026  1.5923
41858SOL     OW34541  11.282  12.295   2.814 -0.1225 -0.3903  0.6847
41858SOL    HW134542  11.192  12.271   2.793 -0.4715 -0.3674  2.0640
41858SOL    HW234543  11.332  12.273   2.735 -1.0521 -2.0030  0.5110
41859SOL     OW34544   2.804   6.870   4.221 -0.0420  0.7106 -0.6352
41859SOL    HW134545   2.837   6.784   4.193 -2.1668  0.0659 -1.3335
41859SOL    HW234546   2.861   6.933   4.177 -0.2275 -0.3481 -2.4993
41860SOL     OW34547   1.975   4.267   0.296 -0.1354  0.0289 -0.1877
41860SOL    HW134548   1.964   4.174   0.275 -1.2059 -0.0914  0.8330
41860SOL    HW234549   1.886   4.301   0.301  0.2500  1.4713 -1.9674
41861SOL     OW34550   5.643  12.071   6.313  0.1214 -0.1814 -0.2203
41861SOL    HW134551   5.698  12.148   6.328  0.0347 -0.1492 -0.0618
41861SOL    HW234552   5.685  12.001   6.363 -0.4153  0.0347  0.5472
41862SOL     OW34553   5.345  12.543   9.238  0.1822  0.2485 -0.6038
41862SOL    HW134554   5.271  12.566   9.181  1.3256  1.1347 -1.7717
41862SOL    HW234555   5.416  12.520   9.178  1.1754  0.3815  0.4836
41863SOL     OW34556   0.147   8.697   6.337  0.2844  0.4143  0.0050
41863SOL    HW134557   0.155   8.718   6.430 -1.5494 -1.1447  0.5977
41863SOL    HW234558   0.172   8.605   6.331  0.4008  0.4993 -1.0603
41864SOL     OW34559   4.126   3.721  11.169  0.5048  0.1594  0.3404
41864SOL    HW134560   4.188   3.765  11.228  0.2545  1.6055 -0.4442
41864SOL    HW234561   4.182   3.679  11.104  0.6982  0.7329  0.1317
41865SOL     OW34562   0.556   0.289   1.877 -0.5102 -0.4695  0.8753
41865SOL    HW134563   0.594   0.239   1.949 -0.3969 -0.9584  0.4903
41865SOL    HW234564   0.476   0.242   1.855 -0.0297 -0.9401  0.0233
41866SOL     OW34565   9.677   9.092   3.347 -0.1037 -0.0049  0.4276
41866SOL    HW134566   9.600   9.147   3.334 -1.0660 -1.7222 -2.0872
41866SOL    HW234567   9.642   9.011   3.385  0.4984 -0.6067 -0.2686
41867SOL     OW34568   2.913   3.447   8.481 -0.1232  0.4393 -0.6768
41867SOL    HW134569   2.828   3.438   8.526 -0.6218  0.3140 -1.6272
41867SOL    HW234570   2.901   3.403   8.397  1.0792 -0.0857 -0.5922
41868SOL     OW34571   4.433   4.740   8.148 -0.2765  0.1461 -0.0925
41868SOL    HW134572   4.520   4.707   8.126  0.0589  1.0147 -0.0664
41868SOL    HW234573   4.448   4.804   8.217 -0.8174  1.1511 -0.8931
41869SOL     OW34574   5.200   5.905   2.596 -0.3316 -0.1314 -0.5969
41869SOL    HW134575   5.283   5.857   2.595 -0.6582 -0.8187  1.1896
41869SOL    HW234576   5.207   5.964   2.671 -1.0568  0.5431 -1.0478
41870SOL     OW34577   9.056   7.006   6.121 -0.4027  0.4456  0.0531
41870SOL    HW134578   9.044   7.014   6.026  0.0788 -1.9367 -0.2673
41870SOL    HW234579   9.148   6.982   6.131 -0.4015  0.8670  1.1622
41871SOL     OW34580   9.833   8.276   2.149 -0.1850  0.5943 -0.0710
41871SOL    HW134581   9.831   8.211   2.079  1.2496  0.6021 -0.1354
41871SOL    HW234582   9.896   8.341   2.120  0.6245  0.4725  1.3362
41872SOL     OW34583   3.738   5.671  11.766  0.1516  0.1160 -0.4686
41872SOL    HW134584   3.740   5.701  11.856  1.8939  0.5639 -0.6296
41872SOL    HW234585   3.722   5.577  11.773 -1.5172  0.4122  0.1953
41873SOL     OW34586   0.805   8.855   2.347  0.0684 -0.0519 -0.1090
41873SOL    HW134587   0.816   8.945   2.378  1.0110 -0.3782  0.5577
41873SOL    HW234588   0.727   8.823   2.393  0.4861  0.0142  0.6592
41874SOL     OW34589  10.170   7.094   6.966 -0.1894 -0.9843  0.8572
41874SOL    HW134590  10.115   7.154   7.015 -0.2146 -1.4522  1.4098
41874SOL    HW234591  10.124   7.080   6.884  0.3120  0.5516  0.2690
41875SOL     OW34592   1.650   3.757   2.832  0.1897  0.4968 -0.5843
41875SOL    HW134593   1.580   3.751   2.767 -0.1345 -0.3092 -0.1783
41875SOL    HW234594   1.626   3.694   2.899  2.7621 -2.0474 -1.8336
41876SOL     OW34595   3.747   1.111   0.754 -0.0076 -0.2168 -0.0492
41876SOL    HW134596   3.665   1.131   0.798  0.3109 -0.5090  0.7165
41876SOL    HW234597   3.812   1.110   0.825  0.4299 -1.2668 -0.4393
41877SOL     OW34598   6.527   5.347   7.650 -0.3131 -0.3714 -0.5219
41877SOL    HW134599   6.562   5.387   7.570 -0.2561  1.0785  0.1940
41877SOL    HW234600   6.601   5.303   7.690 -0.2080 -0.6019 -0.9674
41878SOL     OW34601   0.982  12.413   7.182 -0.4279 -0.0506  0.7499
41878SOL    HW134602   0.916  12.415   7.251 -2.1914 -0.8262 -0.8170
41878SOL    HW234603   0.991  12.321   7.158  1.2126  0.0440  0.8787
41879SOL     OW34604   2.623   8.363   5.548  0.1766  0.3522  0.6016
41879SOL    HW134605   2.535   8.325   5.557  0.5483 -0.2409  1.9436
41879SOL    HW234606   2.666   8.309   5.482  0.2711 -0.8006  1.5761
41880SOL     OW34607   8.163   1.524  11.704  0.5095 -0.4008  0.1734
41880SOL    HW134608   8.204   1.609  11.715  0.1989 -0.3112  0.6818
41880SOL    HW234609   8.190   1.495  11.617 -0.6952  0.9307 -0.6914
41881SOL     OW34610   7.836   9.441   4.581  0.5874  0.0185  0.4659
41881SOL    HW134611   7.777   9.448   4.506  0.1727  1.0634  0.8658
41881SOL    HW234612   7.893   9.367   4.560 -0.4248 -0.5864 -0.2312
41882SOL     OW34613   9.522   3.962   3.083  0.0301 -0.1427 -0.2709
41882SOL    HW134614   9.543   3.930   2.995  1.2093 -0.1259 -0.0145
41882SOL    HW234615   9.500   3.883   3.132  0.3268 -0.2675 -0.3327
41883SOL     OW34616   1.447  11.400   8.013  0.2350  0.2895  0.3872
41883SOL    HW134617   1.375  11.461   8.001 -0.1381 -0.1433  0.3789
41883SOL    HW234618   1.509  11.445   8.070 -0.1416  0.5842  0.5612
41884SOL     OW34619   1.238   5.522   0.206 -0.0381 -0.5349  0.0306
41884SOL    HW134620   1.315   5.504   0.260 -0.4915 -1.5770  0.3665
41884SOL    HW234621   1.204   5.605   0.239  2.3417  1.3083 -1.7957
41885SOL     OW34622   4.518   6.069   1.106 -0.3409  0.2573 -0.2514
41885SOL    HW134623   4.534   6.112   1.190 -0.4155  1.6377 -0.9184
41885SOL    HW234624   4.601   6.025   1.085 -0.4780 -0.5136  0.7565
41886SOL     OW34625   3.860   8.507   1.758 -0.2276  0.2909  0.1284
41886SOL    HW134626   3.912   8.585   1.777  0.3381 -0.4676  1.9348
41886SOL    HW234627   3.779   8.541   1.720 -0.7465  1.9493  2.4742
41887SOL     OW34628   0.180  11.274  10.135 -0.2843  0.1414  0.1167
41887SOL    HW134629   0.102  11.317  10.100 -0.6382 -0.1556  0.5306
41887SOL    HW234630   0.244  11.281  10.064 -0.4107  1.1287  0.0951
41888SOL     OW34631   2.640   9.057   6.534 -0.6866 -0.2713 -0.2297
41888SOL    HW134632   2.595   9.096   6.459 -1.7615 -0.2111  0.4248
41888SOL    HW234633   2.672   9.133   6.584  2.4429 -0.3079 -1.9859
41889SOL     OW34634   3.623   6.937   4.011 -0.3922 -0.2935 -0.0768
41889SOL    HW134635   3.701   6.916   4.061 -1.0276 -0.8109  0.7152
41889SOL    HW234636   3.552   6.889   4.054 -0.9442 -0.8698 -1.5480
41890SOL     OW34637   1.943   9.639  11.536  0.3443 -0.4163 -0.4171
41890SOL    HW134638   2.002   9.564  11.529 -2.3112 -2.6231 -0.7355
41890SOL    HW234639   1.888   9.634  11.459  0.8973  2.7503 -1.1491
41891SOL     OW34640   1.859   6.595   1.070  0.4964 -0.2855 -0.6402
41891SOL    HW134641   1.859   6.600   1.165 -1.0902 -0.6027 -0.6020
41891SOL    HW234642   1.918   6.523   1.050  0.4326 -0.5569  0.1256
41892SOL     OW34643  11.990   4.633   2.963 -0.6234  0.0431  0.8692
41892SOL    HW134644  11.976   4.584   3.043  1.5052 -0.3701  1.0578
41892SOL    HW234645  11.998   4.724   2.992  0.5726 -0.1534  1.2297
41893SOL     OW34646   6.821  11.556   6.676 -0.5803  0.1183 -0.2174
41893SOL    HW134647   6.748  11.614   6.696  0.7125  1.1400  2.0470
41893SOL    HW234648   6.868  11.548   6.759  0.9678 -1.8092 -1.1910
41894SOL     OW34649   8.944   7.721   6.411 -0.0997 -0.2565  0.2728
41894SOL    HW134650   8.890   7.642   6.405  1.4260 -1.4649  1.5715
41894SOL    HW234651   8.909   7.768   6.486 -0.8234  0.1693 -0.3230
41895SOL     OW34652   2.059  11.986   8.261 -0.5419 -0.5396  0.2624
41895SOL    HW134653   2.075  12.027   8.176 -0.2101  0.9480  0.9970
41895SOL    HW234654   1.970  12.012   8.283 -0.1283  0.3450  0.9959
41896SOL     OW34655   3.446   7.256   8.029 -0.1716 -0.3565 -0.2026
41896SOL    HW134656   3.418   7.166   8.017 -2.9439  0.6042 -1.8928
41896SOL    HW234657   3.497   7.277   7.951 -1.2456  0.0585 -0.8251
41897SOL     OW34658  10.293   2.919   1.343  0.4803 -0.1790 -0.2336
41897SOL    HW134659  10.299   2.959   1.257 -1.0400 -0.4150 -0.4651
41897SOL    HW234660  10.297   2.992   1.405 -1.4836  0.2862 -0.6225
41898SOL     OW34661   0.743   8.899  10.597 -0.6898  0.0243 -0.0012
41898SOL    HW134662   0.830   8.935  10.615  0.0028 -2.1818  1.4256
41898SOL    HW234663   0.690   8.925  10.673 -0.7990 -0.1013 -0.0343
41899SOL     OW34664  11.236   0.273   0.811  0.4334 -0.1133  0.1138
41899SOL    HW134665  11.181   0.346   0.781  0.0922 -0.6990 -0.7233
41899SOL    HW234666  11.191   0.240   0.889  1.0609  1.1127  1.0212
41900SOL     OW34667   8.100   9.392   4.040 -0.4970  0.1702 -0.1304
41900SOL    HW134668   8.105   9.344   4.123 -1.6089  1.4734  0.7285
41900SOL    HW234669   8.191   9.411   4.018 -0.1787 -0.2795  0.7381
41901SOL     OW34670  12.085   8.639   2.020 -0.8756 -0.1860  0.3581
41901SOL    HW134671  12.077   8.673   2.109 -0.3051  0.1118  0.3023
41901SOL    HW234672  12.048   8.551   2.025 -0.8931 -0.1547  0.8813
41902SOL     OW34673  10.687   6.386   0.629 -0.3142  0.2134 -0.1518
41902SOL    HW134674  10.651   6.442   0.698  0.2959  0.1947  0.1838
41902SOL    HW234675  10.684   6.441   0.550 -3.1314 -0.4951 -0.6591
41903SOL     OW34676   1.051   6.328   6.738  0.3047  0.2058  0.0095
41903SOL    HW134677   1.043   6.302   6.829  1.1438 -0.5709 -0.1176
41903SOL    HW234678   1.011   6.415   6.733 -0.5126 -0.1124  0.9282
41904SOL     OW34679   7.552   9.253   5.703  0.9786 -0.3564  0.0097
41904SOL    HW134680   7.466   9.251   5.661  0.5456 -0.4097  0.8716
41904SOL    HW234681   7.603   9.188   5.656  0.1943 -1.1453  0.2134
41905SOL     OW34682   1.396   3.575   9.489  0.0650 -0.0330  0.0006
41905SOL    HW134683   1.423   3.488   9.521 -0.0001  0.2266  0.7805
41905SOL    HW234684   1.305   3.583   9.515  0.0141  0.1877 -0.2475
41906SOL     OW34685   8.635  10.391   4.684  0.4597  0.0509 -0.1202
41906SOL    HW134686   8.718  10.420   4.648  0.6815 -0.5341 -0.0854
41906SOL    HW234687   8.570  10.449   4.645  0.7857 -0.0409 -0.8052
41907SOL     OW34688   8.696   8.730   4.452 -0.3392  0.1830  0.1387
41907SOL    HW134689   8.773   8.781   4.426 -1.0617  0.9045 -0.6131
41907SOL    HW234690   8.622   8.774   4.412 -0.9437 -1.8174 -1.1206
41908SOL     OW34691  11.723   9.266   7.293 -0.0647 -0.4267 -0.4119
41908SOL    HW134692  11.754   9.180   7.263  1.9421 -0.2253  0.9396
41908SOL    HW234693  11.671   9.299   7.219 -0.5485 -2.6013 -1.1223
41909SOL     OW34694  11.669   8.322   3.051 -0.2822 -0.3245  0.3047
41909SOL    HW134695  11.632   8.248   3.003  1.6454 -0.4373 -1.1086
41909SOL    HW234696  11.739   8.354   2.995 -0.5566  2.1124  1.2373
41910SOL     OW34697  12.199   9.503   4.102 -0.3018 -0.6572 -0.4329
41910SOL    HW134698  12.242   9.532   4.021 -1.0838 -1.0535 -1.0112
41910SOL    HW234699  12.116   9.551   4.103 -0.0100 -0.1407  0.5037
41911SOL     OW34700  11.882   3.599   7.256  0.4413  0.3780 -0.2847
41911SOL    HW134701  11.812   3.656   7.286  3.0083  3.1570  0.8731
41911SOL    HW234702  11.892   3.620   7.163 -0.7114 -0.6001 -0.6465
41912SOL     OW34703   6.261   4.652   4.160 -0.0712 -0.2348  0.0071
41912SOL    HW134704   6.219   4.664   4.075 -1.3810 -1.7920  0.3920
41912SOL    HW234705   6.286   4.560   4.162  2.3186  0.3515  0.3112
41913SOL     OW34706  10.770   4.469   2.772 -0.1080 -0.0918 -0.9386
41913SOL    HW134707  10.709   4.395   2.762  0.7849 -0.7273 -2.0074
41913SOL    HW234708  10.756   4.500   2.861 -0.4202 -1.6459 -0.4152
41914SOL     OW34709   0.997   4.884   3.763 -0.2758 -0.1276  0.1898
41914SOL    HW134710   0.956   4.828   3.829  0.0104 -1.4096 -0.6935
41914SOL    HW234711   1.044   4.950   3.814 -2.5115  0.7471  1.2301
41915SOL     OW34712   4.764   2.227   1.650 -0.0282 -0.1923  0.1476
41915SOL    HW134713   4.688   2.201   1.701 -0.7836  0.9879 -0.3310
41915SOL    HW234714   4.761   2.171   1.573  0.3555 -1.0605  0.7551
41916SOL     OW34715   4.735  10.326   2.885 -0.5113  0.3899 -0.5756
41916SOL    HW134716   4.677  10.401   2.896  0.3058  1.0327 -0.5738
41916SOL    HW234717   4.800  10.355   2.822  0.7657  0.2600  0.6485
41917SOL     OW34718  10.745   1.366  11.871  0.5725  0.1257  0.8018
41917SOL    HW134719  10.804   1.387  11.943  1.1730  1.5769 -0.0874
41917SOL    HW234720  10.661   1.405  11.896  1.0339  1.4790  0.2952
41918SOL     OW34721   9.184   0.378  10.332 -0.1190  0.0917  0.4289
41918SOL    HW134722   9.164   0.288  10.356 -0.0918  0.9201  4.3262
41918SOL    HW234723   9.278   0.379  10.316 -0.2223 -0.6505 -0.2816
41919SOL     OW34724   3.442   5.371  11.234  0.2127 -0.7535  0.5775
41919SOL    HW134725   3.500   5.447  11.237  0.3735 -0.8320 -0.3306
41919SOL    HW234726   3.471   5.322  11.157 -1.6776 -0.3029 -0.4628
41920SOL     OW34727   2.870   7.849   9.424 -0.2859 -0.1819 -0.2068
41920SOL    HW134728   2.855   7.864   9.331  3.5422  0.5798 -0.8431
41920SOL    HW234729   2.828   7.923   9.467 -2.4081 -0.7233 -1.2083
41921SOL     OW34730   6.387   0.193   2.538 -0.3273 -0.5541  0.1201
41921SOL    HW134731   6.457   0.193   2.473 -2.0559 -0.2090 -1.8638
41921SOL    HW234732   6.431   0.176   2.621  1.7905 -2.9984 -1.3452
41922SOL     OW34733   9.053  10.989   6.079 -0.5846 -0.3101 -0.0211
41922SOL    HW134734   9.055  11.071   6.129 -0.1777 -0.3358  0.0056
41922SOL    HW234735   9.140  10.982   6.040 -0.6572 -0.6700 -0.1242
41923SOL     OW34736   6.565   7.982  10.567  0.1366 -0.4907 -0.2877
41923SOL    HW134737   6.511   8.025  10.634 -0.4506  0.6567 -1.4352
41923SOL    HW234738   6.567   8.045  10.495 -0.2680 -2.1579 -1.8370
41924SOL     OW34739   2.280   6.722   1.208 -0.2856  0.2090 -0.0416
41924SOL    HW134740   2.195   6.749   1.172 -0.5737  0.7427  1.0056
41924SOL    HW234741   2.297   6.637   1.167  0.4189  1.6452 -3.0901
41925SOL     OW34742   9.021   7.544   9.531 -0.1457  0.7038  0.5157
41925SOL    HW134743   9.060   7.587   9.455 -0.3838  1.4946  0.8345
41925SOL    HW234744   9.020   7.611   9.599  0.5465 -0.1419  1.3854
41926SOL     OW34745   9.933  11.364   5.649  0.3755 -0.0754  0.0222
41926SOL    HW134746   9.987  11.415   5.588  2.9951 -1.4176  1.0669
41926SOL    HW234747   9.941  11.409   5.732  0.6652 -0.8171  0.4033
41927SOL     OW34748   2.576   1.077   5.199 -0.1538 -0.3372 -0.1414
41927SOL    HW134749   2.612   1.062   5.286  1.1797  1.4065 -0.3345
41927SOL    HW234750   2.608   1.004   5.147  2.1716  0.4981  0.0069
41928SOL     OW34751   5.457   6.433   0.179  0.1312 -0.0719  0.1684
41928SOL    HW134752   5.457   6.407   0.087  0.4121  1.7634 -0.3910
41928SOL    HW234753   5.534   6.389   0.216  1.1720  0.7110 -0.9699
41929SOL     OW34754   1.307   8.268   6.837  0.4643  0.1975  0.1341
41929SOL    HW134755   1.312   8.179   6.872  0.8882  0.6531  1.2510
41929SOL    HW234756   1.342   8.260   6.748  0.7689 -0.7005  0.3191
41930SOL     OW34757   5.907  12.155   9.990 -0.4215 -0.3462 -0.4172
41930SOL    HW134758   5.850  12.080   9.971 -1.1005  0.2160 -0.6219
41930SOL    HW234759   5.994  12.127   9.962 -0.2202 -1.9104  1.5596
41931SOL     OW34760   0.975   1.322  10.368  0.2946  0.5080  0.3369
41931SOL    HW134761   0.976   1.249  10.306  1.0175 -0.3677  1.3394
41931SOL    HW234762   1.058   1.367  10.354 -0.4939  1.6630 -0.8398
41932SOL     OW34763   4.137   0.240   1.880  0.3748 -0.0232 -0.1393
41932SOL    HW134764   4.141   0.157   1.927  1.6191 -0.7135 -1.4028
41932SOL    HW234765   4.182   0.303   1.937 -0.2594 -0.2723  0.6557
41933SOL     OW34766   0.538   1.139   7.474  0.6004  0.5539  0.2554
41933SOL    HW134767   0.549   1.062   7.529  1.2970  0.3427 -0.1727
41933SOL    HW234768   0.461   1.184   7.511  1.8273  1.1448  2.2743
41934SOL     OW34769   3.844  12.292   0.439 -0.0605 -0.5267  0.3839
41934SOL    HW134770   3.780  12.226   0.413  0.4478 -2.2892  3.2001
41934SOL    HW234771   3.850  12.284   0.534  5.0933 -1.2640  0.2740
41935SOL     OW34772   8.516   0.839   8.623  0.1951 -0.0421  0.0282
41935SOL    HW134773   8.490   0.748   8.610 -1.7615  0.4814 -0.0172
41935SOL    HW234774   8.562   0.839   8.707 -2.4124 -0.6509  1.5663
41936SOL     OW34775   6.493  11.544   8.722  0.2381 -0.2976  0.0633
41936SOL    HW134776   6.511  11.475   8.786  1.9684  0.5774  0.5884
41936SOL    HW234777   6.579  11.564   8.684 -0.3263  1.1668 -0.4927
41937SOL     OW34778   6.896   8.551   2.849  0.0059 -0.2606  0.2858
41937SOL    HW134779   6.813   8.528   2.808 -0.8852 -0.9816  2.3554
41937SOL    HW234780   6.891   8.646   2.860 -0.1121 -0.1744 -0.4597
41938SOL     OW34781   1.015   9.516   7.225  0.2962 -0.0891 -0.1270
41938SOL    HW134782   0.931   9.478   7.249  0.7079 -1.1620 -0.3061
41938SOL    HW234783   1.005   9.538   7.132  0.1427 -0.0208 -0.0946
41939SOL     OW34784   9.249  12.155   5.070  0.2070 -0.2048 -0.1383
41939SOL    HW134785   9.289  12.070   5.051  0.5090 -0.0502 -0.1933
41939SOL    HW234786   9.309  12.196   5.131 -0.5935 -0.5646  0.9139
41940SOL     OW34787  10.635   0.363  10.050 -0.1310 -0.2998 -0.7038
41940SOL    HW134788  10.630   0.341   9.957  0.7985 -0.4564 -0.7232
41940SOL    HW234789  10.560   0.318  10.089 -0.9778  0.3875 -1.4847
41941SOL     OW34790   1.441   9.385  11.500  0.4885  0.3225 -0.3459
41941SOL    HW134791   1.485   9.310  11.538  0.8485  1.0615  0.7333
41941SOL    HW234792   1.398   9.351  11.421  3.9876 -0.1759 -2.2120
41942SOL     OW34793   6.073   5.066   2.085 -0.2332  0.0246  0.6364
41942SOL    HW134794   6.003   5.056   2.149 -1.2738 -0.6317 -0.5449
41942SOL    HW234795   6.129   5.135   2.120 -0.7554 -0.3206  2.2344
41943SOL     OW34796   9.071   6.483   3.025 -0.0504  0.5179  0.0038
41943SOL    HW134797   9.080   6.511   3.116  2.4578  0.2171 -0.0972
41943SOL    HW234798   9.083   6.388   3.027  2.2240  0.7228 -0.8070
41944SOL     OW34799   0.803  10.335   1.307 -0.3917 -0.0922  0.5177
41944SOL    HW134800   0.813  10.263   1.369  1.0777  1.1971  1.8723
41944SOL    HW234801   0.809  10.414   1.361  2.0107  1.1293 -1.3373
41945SOL     OW34802   1.448  10.665   2.296 -0.1586 -0.3545 -0.0305
41945SOL    HW134803   1.386  10.612   2.345  0.0448  0.1209  0.7515
41945SOL    HW234804   1.534  10.635   2.325 -0.0330 -0.1771 -0.2116
41946SOL     OW34805  10.893  10.103  10.799 -0.3181  0.1394  0.3103
41946SOL    HW134806  10.920  10.162  10.869 -1.7940  1.4485 -0.1619
41946SOL    HW234807  10.948  10.127  10.724 -0.5552  0.5748  0.2724
41947SOL     OW34808   3.048  12.479  10.881 -0.7212 -0.5849  0.0999
41947SOL    HW134809   3.095  12.401  10.850 -0.4857 -0.1875 -0.5612
41947SOL    HW234810   3.117  12.536  10.915 -0.9157 -0.7490  0.7769
41948SOL     OW34811  12.281  11.003   6.635  0.0565 -0.4925  0.0641
41948SOL    HW134812  12.262  10.936   6.701  0.3143 -0.3389  0.2936
41948SOL    HW234813  12.206  10.999   6.575  0.6623 -1.8825 -0.6556
41949SOL     OW34814   6.187   0.544   9.272 -0.5119  0.2855 -0.0550
41949SOL    HW134815   6.110   0.525   9.219 -0.5074  1.5711 -0.5702
41949SOL    HW234816   6.196   0.468   9.329 -2.7793  0.5549  0.7597
41950SOL     OW34817   1.772   0.275   9.187 -0.0663 -0.1812 -0.0235
41950SOL    HW134818   1.752   0.312   9.273 -1.8571  0.9212 -0.8603
41950SOL    HW234819   1.693   0.291   9.135 -0.0726 -3.2125 -1.1358
41951SOL     OW34820   9.982   9.283   0.965 -0.5326 -0.5145  0.2506
41951SOL    HW134821   9.961   9.354   0.905 -1.2386  0.1745  1.2677
41951SOL    HW234822  10.074   9.297   0.988 -0.2855 -0.7290 -0.5685
41952SOL     OW34823   0.914   4.734  12.094 -0.7435 -0.4093  0.2998
41952SOL    HW134824   0.943   4.748  12.184  0.5541 -0.7250 -0.0386
41952SOL    HW234825   0.918   4.639  12.082 -2.0050 -0.4667  0.2429
41953SOL     OW34826   6.085   6.754   5.422 -0.2143 -0.8181  0.5053
41953SOL    HW134827   6.001   6.799   5.433  0.4503  1.0375 -1.3020
41953SOL    HW234828   6.099   6.752   5.327  1.5838 -1.4858  0.7480
41954SOL     OW34829  10.665   5.597   0.527 -0.1784  0.3601 -0.2369
41954SOL    HW134830  10.640   5.511   0.561  0.2645 -0.4601 -1.8839
41954SOL    HW234831  10.721   5.578   0.452 -1.1308  2.0426 -1.4589
41955SOL     OW34832   1.334  10.843   1.401  0.6920 -0.2520  0.0881
41955SOL    HW134833   1.309  10.936   1.403  2.0083  0.1231  0.1198
41955SOL    HW234834   1.264  10.801   1.351 -0.0364  0.7183  0.2524
41956SOL     OW34835   5.105   3.952   2.614  0.1871  0.0772  0.1542
41956SOL    HW134836   5.073   3.875   2.567  0.0940 -0.6549  1.3776
41956SOL    HW234837   5.027   4.007   2.624 -0.7624 -1.5536  2.8411
41957SOL     OW34838   1.627   2.211   4.557  0.0660 -0.1752  0.4206
41957SOL    HW134839   1.693   2.273   4.528 -2.0830  1.8661 -0.4528
41957SOL    HW234840   1.567   2.264   4.611 -2.3396 -1.1789 -1.0859
41958SOL     OW34841   2.928  11.698   8.500 -0.3347 -0.3347 -0.2700
41958SOL    HW134842   2.884  11.751   8.567  0.3031  2.3093 -1.7864
41958SOL    HW234843   3.019  11.693   8.529 -0.6555 -1.9327  0.5873
41959SOL     OW34844   9.913   7.258   1.022  0.1291  0.2208 -0.5494
41959SOL    HW134845   9.975   7.298   0.960  1.2280 -0.3341  0.1563
41959SOL    HW234846   9.908   7.167   0.995  0.4047  0.0390 -0.0005
41960SOL     OW34847   3.578   9.857   8.614  0.0078  0.2866  0.1215
41960SOL    HW134848   3.500   9.856   8.669  1.1617  0.2804  1.8273
41960SOL    HW234849   3.550   9.901   8.534 -2.1872 -1.2499 -0.0441
41961SOL     OW34850   3.078   7.981   2.904  0.3663  0.5833  0.3391
41961SOL    HW134851   3.063   8.008   2.995  0.4956 -0.2284  0.6048
41961SOL    HW234852   3.171   7.958   2.902  0.1296 -0.4083  0.2713
41962SOL     OW34853   4.293   3.591   6.436 -0.1054 -0.2040 -0.3654
41962SOL    HW134854   4.221   3.621   6.491  1.3280  1.4875  0.6874
41962SOL    HW234855   4.337   3.524   6.488 -0.0321 -0.1706 -0.3843
41963SOL     OW34856   1.189   4.141  12.207 -0.2614 -0.4391 -0.0617
41963SOL    HW134857   1.132   4.082  12.158  2.3321 -3.6674  0.4847
41963SOL    HW234858   1.131   4.186  12.268 -2.5609 -1.4042 -1.4061
41964SOL     OW34859   2.465   0.233   5.838 -0.3328  0.1897 -0.0229
41964SOL    HW134860   2.404   0.306   5.853  1.1369  2.2472 -3.1872
41964SOL    HW234861   2.408   0.159   5.816 -1.7699  0.9955  0.7725
41965SOL     OW34862   9.330   3.269   6.826 -0.0486 -0.2525  0.3632
41965SOL    HW134863   9.381   3.320   6.763  1.5846 -0.7202  1.2429
41965SOL    HW234864   9.244   3.312   6.828  0.5515  1.0666 -0.5747
41966SOL     OW34865   5.277   7.076  10.918  0.0870  0.3342  0.2879
41966SOL    HW134866   5.346   7.066  10.984  0.9165  0.0658 -0.5986
41966SOL    HW234867   5.205   7.021  10.950 -0.4271  1.9505  2.1024
41967SOL     OW34868   9.549   3.091  11.391  0.0487 -0.0568 -0.2804
41967SOL    HW134869   9.504   3.020  11.436  0.6300  0.0548  0.4875
41967SOL    HW234870   9.509   3.171  11.425  1.5526  0.0941  1.2724
41968SOL     OW34871   9.143   6.295   2.249 -0.7762  0.1269  0.5134
41968SOL    HW134872   9.142   6.276   2.343  0.2468  0.7451  0.6692
41968SOL    HW234873   9.099   6.379   2.241 -3.4073 -1.2022  0.0729
41969SOL     OW34874   9.759   7.173   0.763 -0.3748  0.1518  0.3535
41969SOL    HW134875   9.732   7.243   0.704  1.6854  0.7738  0.0653
41969SOL    HW234876   9.702   7.181   0.839 -1.1587  1.1720 -0.3288
41970SOL     OW34877   2.398  12.242   2.211 -0.1609 -0.4350 -0.3174
41970SOL    HW134878   2.443  12.325   2.199  1.1465 -0.7169  1.9812
41970SOL    HW234879   2.420  12.191   2.133 -0.1168  0.9732 -1.2564
41971SOL     OW34880  11.918   8.073   1.407  0.3304  0.2940 -0.0872
41971SOL    HW134881  11.921   8.063   1.312 -0.0028  0.9826 -0.1795
41971SOL    HW234882  11.835   8.119   1.423 -1.0415 -2.2694  0.7732
41972SOL     OW34883   9.933   3.491   9.815  0.5775 -0.1333  0.3630
41972SOL    HW134884   9.878   3.562   9.846  1.0148 -0.7837  2.8786
41972SOL    HW234885   9.933   3.500   9.720  0.1817  2.8615  0.5539
41973SOL     OW34886   7.704   9.803   5.002  0.2237 -0.2833  0.3209
41973SOL    HW134887   7.763   9.851   5.059  1.2732  2.7849 -2.9645
41973SOL    HW234888   7.761   9.758   4.940 -0.8165 -0.6367 -0.4191
41974SOL     OW34889   6.838   2.956  12.386  0.2334  0.1519  0.3175
41974SOL    HW134890   6.878   2.947  12.300 -1.0203 -0.9305 -0.1769
41974SOL    HW234891   6.839   2.868  12.423 -0.3658  0.3835  0.8992
41975SOL     OW34892   2.232   3.679   2.620 -0.0556 -0.3136  0.1899
41975SOL    HW134893   2.323   3.707   2.630  0.3993 -0.4242 -2.8377
41975SOL    HW234894   2.237   3.591   2.582 -1.4021  0.1186 -1.0916
41976SOL     OW34895  11.758  10.803   3.415  0.5308 -0.2950  0.3451
41976SOL    HW134896  11.780  10.874   3.354  1.8691  0.3058  1.4808
41976SOL    HW234897  11.750  10.725   3.359  2.6203  0.0519 -0.5107
41977SOL     OW34898   3.663  10.021   2.821  0.1078 -0.3684  0.0818
41977SOL    HW134899   3.667   9.942   2.766 -0.5675 -0.2035 -0.2095
41977SOL    HW234900   3.703   9.993   2.904  0.8490 -0.7082 -0.3733
41978SOL     OW34901   7.356   5.555   0.899 -0.3818 -0.0712  0.3618
41978SOL    HW134902   7.404   5.475   0.879 -0.0840 -0.1298  1.2578
41978SOL    HW234903   7.293   5.564   0.827 -0.4021 -1.0904  0.2295
41979SOL     OW34904   1.427  11.142  11.598  0.6390  0.7874 -0.1759
41979SOL    HW134905   1.407  11.050  11.613  1.1965  0.8960  1.5168
41979SOL    HW234906   1.360  11.172  11.537  0.2281 -0.6409 -0.4603
41980SOL     OW34907   4.817  11.714  10.052  1.1719  0.3689 -0.2074
41980SOL    HW134908   4.865  11.709   9.969  1.0049 -0.6998 -0.2481
41980SOL    HW234909   4.730  11.745  10.027  1.6437  1.7763 -0.2001
41981SOL     OW34910   3.371   0.013   4.483 -0.2146 -0.4094  0.0106
41981SOL    HW134911   3.431   0.046   4.550  0.3669 -1.0602 -0.1764
41981SOL    HW234912   3.421  -0.054   4.436 -1.3944 -1.7223  0.5145
41982SOL     OW34913   6.678   2.339   4.251 -0.4827  0.4733 -0.6784
41982SOL    HW134914   6.677   2.338   4.347  0.9892  3.1803 -0.5568
41982SOL    HW234915   6.744   2.274   4.227  0.8658  1.4293  0.2886
41983SOL     OW34916   8.901   0.119   9.643 -0.4884 -0.2269  0.0632
41983SOL    HW134917   8.885   0.209   9.615  0.8193 -0.4235 -1.5104
41983SOL    HW234918   8.819   0.091   9.684 -0.6252  1.9282  1.3567
41984SOL     OW34919   0.295   3.504   9.443  0.0674  0.2783  0.2838
41984SOL    HW134920   0.216   3.488   9.494 -0.2129  0.2310 -0.1622
41984SOL    HW234921   0.263   3.521   9.354  0.4086  2.1805  0.4798
41985SOL     OW34922   4.949   4.716   3.268  0.1366 -0.3197 -0.0661
41985SOL    HW134923   4.914   4.638   3.224 -1.1850  0.2890 -0.1333
41985SOL    HW234924   4.921   4.789   3.214  1.6675  0.2047 -0.1868
41986SOL     OW34925   0.201   3.794   7.746 -0.6812 -0.5714  0.5452
41986SOL    HW134926   0.115   3.782   7.707 -0.3564 -1.5018  0.0896
41986SOL    HW234927   0.240   3.867   7.697 -0.3863 -1.5360 -0.7180
41987SOL     OW34928   4.499  10.138  12.384  0.0337  0.1584  0.8376
41987SOL    HW134929   4.575  10.083  12.396  1.0811  1.4538  0.4470
41987SOL    HW234930   4.424  10.083  12.407  0.9787 -1.5458 -0.0106
41988SOL     OW34931   9.746   6.708   2.476  0.5624 -0.3609 -0.2213
41988SOL    HW134932   9.807   6.761   2.425 -0.2214  1.0646  0.2744
41988SOL    HW234933   9.759   6.737   2.566 -0.1961 -0.7013  0.0055
41989SOL     OW34934   1.817   3.778   4.188 -0.4406  0.2582  0.2943
41989SOL    HW134935   1.726   3.804   4.202 -1.0635 -1.6920  0.0714
41989SOL    HW234936   1.867   3.859   4.202 -2.2191  1.4618  0.0081
41990SOL     OW34937   1.368   1.840  10.703 -0.3104  0.3116 -0.7366
41990SOL    HW134938   1.383   1.933  10.684  1.2849  0.1205 -0.5432
41990SOL    HW234939   1.272   1.831  10.706 -0.5100  2.2917  0.9250
41991SOL     OW34940   9.594  10.828   8.858 -0.7329 -0.6537  0.1347
41991SOL    HW134941   9.574  10.800   8.768  1.0239  1.1399 -0.8842
41991SOL    HW234942   9.660  10.766   8.889  0.9094  0.4629 -0.9907
41992SOL     OW34943  10.360  12.510   9.522  0.0804 -0.2662 -0.0110
41992SOL    HW134944  10.357  12.466   9.436 -1.8115  0.2063 -0.2361
41992SOL    HW234945  10.345  12.602   9.502 -2.6938 -0.4261  0.9417
41993SOL     OW34946   4.894   9.631  10.680  0.6273  0.2945 -0.0034
41993SOL    HW134947   4.807   9.610  10.647  1.1107 -2.0052  0.0496
41993SOL    HW234948   4.884   9.638  10.775  0.6094 -0.7030  0.0770
41994SOL     OW34949   7.049   2.926   4.004  0.0714 -0.0076  0.0464
41994SOL    HW134950   7.009   2.853   3.956 -1.4082  0.4505  0.5115
41994SOL    HW234951   7.063   2.891   4.092 -2.3630  0.7243  0.8228
41995SOL     OW34952   4.133   5.579  10.423 -0.4433  0.2386 -0.3710
41995SOL    HW134953   4.103   5.560  10.512 -0.1672 -1.3568 -0.5783
41995SOL    HW234954   4.162   5.494  10.389 -0.3811  0.8402 -1.9278
41996SOL     OW34955   3.868   8.613   4.538  0.1196  0.5111 -0.1985
41996SOL    HW134956   3.909   8.624   4.452 -0.0143  2.3872 -0.0575
41996SOL    HW234957   3.784   8.569   4.519  1.1026 -1.2290 -0.7317
41997SOL     OW34958   5.900   4.549   1.049  0.5335  0.0422  0.2182
41997SOL    HW134959   5.875   4.495   1.125  1.3392  1.9737  1.9652
41997SOL    HW234960   5.977   4.506   1.013 -0.6760 -1.6811 -0.4119
41998SOL     OW34961   8.737   9.672  10.719 -0.2590 -0.0701 -0.1778
41998SOL    HW134962   8.712   9.636  10.804  0.8313 -0.6399 -0.0773
41998SOL    HW234963   8.688   9.754  10.712 -0.2483  0.0610  1.0754
41999SOL     OW34964   5.955  12.312   3.031 -0.5518  0.8578  0.5693
41999SOL    HW134965   6.051  12.309   3.038 -0.4864  0.1863 -0.3645
41999SOL    HW234966   5.924  12.287   3.118  0.1328  0.2344  0.6516
42000SOL     OW34967   1.050   5.962   2.006 -0.3323  0.0383 -0.0011
42000SOL    HW134968   1.046   5.914   1.923 -0.3457  1.5689 -0.9277
42000SOL    HW234969   1.010   6.047   1.986  0.0222  0.5707  1.4710
42001SOL     OW34970  10.352   8.211   4.896  0.2306 -0.3793 -0.0351
42001SOL    HW134971  10.291   8.145   4.864 -2.0065  1.0380  1.0730
42001SOL    HW234972  10.319   8.293   4.861  2.7004  0.2855 -1.0180
42002SOL     OW34973  11.318   4.927   9.029  0.2680  0.1369 -0.1508
42002SOL    HW134974  11.301   5.021   9.028 -2.1061 -0.1751  1.8056
42002SOL    HW234975  11.257   4.892   8.964  0.3101 -0.1315 -0.0446
42003SOL     OW34976   8.933   9.820   8.097 -0.4692  0.2093  0.1797
42003SOL    HW134977   8.935   9.729   8.127 -1.6676 -0.0507 -0.4595
42003SOL    HW234978   8.857   9.858   8.141  0.8847  1.3713  1.6499
42004SOL     OW34979   9.473   3.526  11.380  0.5888  0.8060  0.1058
42004SOL    HW134980   9.443   3.523  11.290  0.8886 -0.0675  0.0206
42004SOL    HW234981   9.494   3.434  11.401 -3.0770  0.2884  2.3022
42005SOL     OW34982  11.130   5.603  11.434 -0.1015 -0.3255 -0.1813
42005SOL    HW134983  11.071   5.533  11.458 -0.1198 -0.5689 -0.9012
42005SOL    HW234984  11.074   5.680  11.423 -0.1768 -0.3700 -0.1042
42006SOL     OW34985   6.744   1.869   3.670 -0.4861  0.1718 -0.1901
42006SOL    HW134986   6.757   1.906   3.757 -0.2140 -1.2701  0.3966
42006SOL    HW234987   6.833   1.853   3.637 -0.5755 -2.3892  0.6508
42007SOL     OW34988   9.465  11.213   0.614  0.1422 -0.5960  0.3183
42007SOL    HW134989   9.529  11.283   0.629 -0.6158  0.5398 -1.4126
42007SOL    HW234990   9.381  11.259   0.603 -0.3877 -1.7781 -0.8173
42008SOL     OW34991   6.618  12.454   8.994 -0.2344  0.1249  0.3568
42008SOL    HW134992   6.552  12.491   9.053  1.3917 -1.1444  3.1202
42008SOL    HW234993   6.595  12.362   8.988  1.3137 -0.3634  1.4794
42009SOL     OW34994   4.580   1.028   1.533  0.5202 -0.1772 -0.8655
42009SOL    HW134995   4.521   1.051   1.462  0.8920 -1.9702 -1.8203
42009SOL    HW234996   4.635   0.959   1.497  0.5871 -1.3004  1.2116
42010SOL     OW34997   6.500   2.937   9.929  0.0787  0.0696 -0.1015
42010SOL    HW134998   6.580   2.976   9.892 -0.3333  2.4333  1.2891
42010SOL    HW234999   6.532   2.871   9.990  0.9478  0.4066 -0.1726
42011SOL     OW35000   9.578   2.346   4.511 -0.3368  0.3531 -0.2619
42011SOL    HW135001   9.559   2.316   4.423 -2.2870  0.0985  0.2026
42011SOL    HW235002   9.535   2.283   4.569  0.6140  0.6989  0.8798
42012SOL     OW35003   5.711   5.486   2.188  0.2791  1.0343  0.2395
42012SOL    HW135004   5.645   5.425   2.221 -1.4447  1.7918 -1.6256
42012SOL    HW235005   5.794   5.441   2.202 -0.7131 -0.5345  1.4313
42013SOL     OW35006   6.518   4.890   7.049 -0.0154  0.1625  0.7745
42013SOL    HW135007   6.435   4.911   7.007 -0.4223 -0.5734  1.2010
42013SOL    HW235008   6.521   4.947   7.126 -0.9414 -1.0003  1.7161
42014SOL     OW35009   6.672   6.514   6.422  0.6054  0.3299  0.1859
42014SOL    HW135010   6.591   6.492   6.467  0.9844  2.0261  1.8560
42014SOL    HW235011   6.738   6.520   6.492  1.8891  0.2352 -0.9615
42015SOL     OW35012   9.340  11.045   2.458 -0.4434 -0.1235 -0.0421
42015SOL    HW135013   9.341  11.140   2.446  0.6437 -0.0736  0.2763
42015SOL    HW235014   9.404  11.012   2.395  0.6289 -0.4429  1.1723
42016SOL     OW35015   8.251  11.645  10.254 -0.2490 -0.1955  0.1371
42016SOL    HW135016   8.308  11.580  10.297  0.4838  1.0399  1.0923
42016SOL    HW235017   8.168  11.599  10.240  0.0573 -1.1588  1.3335
42017SOL     OW35018   4.339   2.297  11.028  0.1474 -0.5062 -0.3126
42017SOL    HW135019   4.432   2.309  11.047 -0.0313  0.0776  0.2038
42017SOL    HW235020   4.332   2.206  10.999  0.4663 -1.4536  2.3396
42018SOL     OW35021   0.956   8.208   4.026 -0.0014  0.3335  0.0163
42018SOL    HW135022   0.907   8.130   3.998 -0.2337  0.4698  0.0383
42018SOL    HW235023   0.890   8.263   4.068  0.2048  0.4503  0.1883
42019SOL     OW35024   7.956  10.886  10.702 -0.0897 -0.1213 -0.1088
42019SOL    HW135025   8.036  10.916  10.745 -0.8094  1.3174  0.2913
42019SOL    HW235026   7.964  10.915  10.611 -0.3255  0.4150  0.0341
42020SOL     OW35027  10.547   0.241   2.894  0.5647 -0.1615 -0.0932
42020SOL    HW135028  10.544   0.335   2.910  1.1196 -0.1789  0.1582
42020SOL    HW235029  10.496   0.228   2.815  0.8471  0.4087 -0.3760
42021SOL     OW35030   5.253   5.481   1.168 -0.3725 -0.9768  0.5070
42021SOL    HW135031   5.228   5.547   1.103 -0.1501  0.5382  1.8820
42021SOL    HW235032   5.184   5.415   1.162  0.1185 -1.3596 -1.8551
42022SOL     OW35033   1.189   0.288  12.137  0.0962 -0.4324 -0.0880
42022SOL    HW135034   1.124   0.338  12.185 -2.0232 -2.4866 -0.6573
42022SOL    HW235035   1.268   0.294  12.191 -2.1045 -2.6197  3.8076
42023SOL     OW35036  11.820   1.330   6.237  0.1579  0.1010  0.5447
42023SOL    HW135037  11.909   1.366   6.243  0.0924  0.3554 -0.0059
42023SOL    HW235038  11.784   1.344   6.325  0.3430  0.8403  0.5116
42024SOL     OW35039   0.193   8.382   3.814 -0.2848 -0.2211  0.3805
42024SOL    HW135040   0.179   8.410   3.723 -0.2359 -0.3199  0.3431
42024SOL    HW235041   0.198   8.464   3.863  0.6757 -0.1311  0.1559
42025SOL     OW35042   8.146   7.869   4.393  0.1846  0.4786  0.4883
42025SOL    HW135043   8.070   7.851   4.338 -0.7033 -0.5679  1.9798
42025SOL    HW235044   8.180   7.782   4.416  0.7699  0.9024  1.2758
42026SOL     OW35045   5.416   7.007  11.183  0.4534  1.1190 -0.0792
42026SOL    HW135046   5.399   7.101  11.185 -2.6193  0.6800  0.2204
42026SOL    HW235047   5.338   6.968  11.223  1.5147 -1.5844 -0.4249
42027SOL     OW35048   1.396  10.726  11.822 -0.2367  0.1604 -0.3374
42027SOL    HW135049   1.453  10.675  11.764  3.1393 -0.6825  3.2920
42027SOL    HW235050   1.325  10.666  11.845 -1.5278  0.4385 -3.1370
42028SOL     OW35051   8.497  11.610  12.280 -0.1320  0.1698 -0.1132
42028SOL    HW135052   8.440  11.551  12.329  1.5423 -0.5383  1.0866
42028SOL    HW235053   8.534  11.555  12.210 -1.3358  0.7814 -1.2712
42029SOL     OW35054   6.533   9.296   3.824 -0.5762 -0.0572  0.2134
42029SOL    HW135055   6.539   9.371   3.764 -1.9952  0.6245  0.8888
42029SOL    HW235056   6.487   9.229   3.773 -0.0564 -0.1747 -0.1080
42030SOL     OW35057   0.941   3.131  10.433  0.1145  0.1554 -0.1257
42030SOL    HW135058   0.931   3.182  10.353 -0.6725 -3.2647 -2.4539
42030SOL    HW235059   1.024   3.084  10.422  0.5777  0.5101  1.6476
42031SOL     OW35060  11.165   1.303   9.997  0.2430  0.1588 -0.2307
42031SOL    HW135061  11.203   1.219   9.971  1.7269 -0.6811  3.9573
42031SOL    HW235062  11.074   1.283  10.018 -0.0523  0.1529 -1.4639
42032SOL     OW35063   4.385   5.148   3.524  0.5278  0.2525 -0.5508
42032SOL    HW135064   4.407   5.174   3.435 -2.4220  1.2048 -1.0787
42032SOL    HW235065   4.416   5.221   3.578 -0.5913  1.2080 -1.1740
42033SOL     OW35066   0.411   6.153   7.165  0.3750 -0.7636 -0.1376
42033SOL    HW135067   0.409   6.162   7.261 -0.5428  0.6295 -0.2532
42033SOL    HW235068   0.498   6.118   7.146  0.4317 -1.4361  1.2305
42034SOL     OW35069   0.844  10.696   3.379  0.5102 -0.1865  0.0170
42034SOL    HW135070   0.830  10.685   3.473  1.2115 -1.4167 -0.0095
42034SOL    HW235071   0.757  10.683   3.341  0.6252 -2.0648  0.3180
42035SOL     OW35072  11.904   4.149   0.774 -0.6092 -0.8694  0.4886
42035SOL    HW135073  11.811   4.170   0.783 -0.5110  0.1916 -0.7081
42035SOL    HW235074  11.905   4.071   0.720 -0.7735  0.9484 -2.3381
42036SOL     OW35075   6.147   4.560  12.079 -0.7317  0.2555  0.2819
42036SOL    HW135076   6.070   4.537  12.131 -0.7251  0.3034  0.3137
42036SOL    HW235077   6.200   4.613  12.138  1.2288 -2.9166  1.6155
42037SOL     OW35078   8.461   0.135   9.342  0.2631 -0.0720 -0.6840
42037SOL    HW135079   8.539   0.082   9.357 -0.1924 -0.6400 -0.2826
42037SOL    HW235080   8.492   0.209   9.289  0.9176 -0.6950 -1.1881
42038SOL     OW35081   1.640   0.733  12.360 -0.2673 -0.1153  0.5525
42038SOL    HW135082   1.727   0.700  12.380  0.6678  2.1788  0.6532
42038SOL    HW235083   1.614   0.782  12.438  0.2338  2.7381 -0.9273
42039SOL     OW35084   4.906  12.206   5.094 -0.1201  0.2406 -0.0612
42039SOL    HW135085   4.849  12.160   5.031  0.7127  0.1782 -0.7978
42039SOL    HW235086   4.876  12.297   5.091  1.9459  0.9912 -3.0831
42040SOL     OW35087   1.275   6.611   7.145 -1.0955  0.1533 -0.3264
42040SOL    HW135088   1.334   6.616   7.069 -0.5832  0.4674  0.0864
42040SOL    HW235089   1.190   6.636   7.110 -1.2039 -1.2647 -1.1493
42041SOL     OW35090   7.718   3.465  12.084 -0.0617  0.0878  0.3609
42041SOL    HW135091   7.783   3.535  12.095  2.2893 -1.3663 -2.8379
42041SOL    HW235092   7.689   3.474  11.993  0.0712 -2.8463 -0.0410
42042SOL     OW35093   4.632   1.493   2.929 -0.0902 -0.3770  0.7239
42042SOL    HW135094   4.638   1.494   2.834 -0.4344 -0.5096  0.7000
42042SOL    HW235095   4.671   1.576   2.957  0.6475 -0.6438  0.5067
42043SOL     OW35096   4.707   3.025  12.140  0.1582  0.2065 -0.0387
42043SOL    HW135097   4.780   2.974  12.173  0.6031  1.2232  0.5979
42043SOL    HW235098   4.632   2.999  12.195  0.2990 -0.0077  0.0519
42044SOL     OW35099   8.621   3.642   1.182  0.4645  0.1977 -0.0969
42044SOL    HW135100   8.610   3.736   1.165  1.2397  0.3011 -0.0684
42044SOL    HW235101   8.710   3.623   1.152  1.0914 -0.0832  1.8228
42045SOL     OW35102  12.172   4.587   7.548 -0.1257  0.1745  0.4195
42045SOL    HW135103  12.179   4.670   7.595 -1.0035 -0.0492  0.9569
42045SOL    HW235104  12.223   4.525   7.600  1.2663  0.5600 -0.4496
42046SOL     OW35105   1.401   4.860   3.558 -0.2074  0.2441  0.6240
42046SOL    HW135106   1.392   4.840   3.651 -0.8106  0.6345  0.6535
42046SOL    HW235107   1.427   4.952   3.555  0.4732  0.0564  0.4188
42047SOL     OW35108   9.117  10.845  11.895  0.0985  0.1298  0.2087
42047SOL    HW135109   9.062  10.902  11.841 -1.3968 -1.2538  0.1976
42047SOL    HW235110   9.125  10.890  11.978 -1.5449  0.1382  0.3989
42048SOL     OW35111   1.470   9.317   7.366  0.2180 -0.2599 -0.8476
42048SOL    HW135112   1.503   9.241   7.414  1.3847  0.3018 -0.7164
42048SOL    HW235113   1.546   9.350   7.319 -0.0578  1.3000 -0.2680
42049SOL     OW35114   0.245   3.968   7.440  0.2429  0.6557  0.1689
42049SOL    HW135115   0.339   3.973   7.457  0.7391  1.0949 -2.3156
42049SOL    HW235116   0.232   3.881   7.403 -0.2405  0.7872  0.0257
42050SOL     OW35117   6.442   7.257   1.301  0.2909  0.2127 -0.0252
42050SOL    HW135118   6.520   7.200   1.300 -0.7383 -1.2488 -0.5864
42050SOL    HW235119   6.445   7.303   1.217 -0.4999 -1.3862 -0.9717
42051SOL     OW35120  11.372   7.208   3.508 -0.8733  0.5728  0.5673
42051SOL    HW135121  11.455   7.179   3.546 -1.2333 -0.8817  0.3247
42051SOL    HW235122  11.311   7.208   3.581 -0.9091  0.5473  0.5379
42052SOL     OW35123   3.379   8.827   4.114  0.0398 -0.3760 -0.5447
42052SOL    HW135124   3.351   8.849   4.026 -0.3774 -1.5444 -0.7302
42052SOL    HW235125   3.436   8.750   4.102  0.4703 -0.1755  0.1462
42053SOL     OW35126  10.706   1.255   2.516 -0.2424  0.0587  0.5035
42053SOL    HW135127  10.715   1.289   2.427 -2.0875 -3.2166 -1.1203
42053SOL    HW235128  10.796   1.239   2.545  0.3756 -0.0671 -1.3432
42054SOL     OW35129   9.787   7.749  10.420 -0.5008  0.4403 -0.1525
42054SOL    HW135130   9.710   7.706  10.382  0.1066 -1.1909  0.3801
42054SOL    HW235131   9.860   7.718  10.367  0.1424 -0.5008  1.2296
42055SOL     OW35132   5.113   1.999  11.030 -0.4411  0.5578  0.4306
42055SOL    HW135133   5.120   2.092  11.054 -1.5396  0.6891  0.2744
42055SOL    HW235134   5.056   1.962  11.097  0.2911 -0.1003  0.7067
42056SOL     OW35135   3.971  10.834   8.562 -0.2116  0.0299  0.1411
42056SOL    HW135136   4.031  10.873   8.625 -0.0705 -0.5171  0.3560
42056SOL    HW235137   3.960  10.743   8.592  1.2974 -0.8034 -1.6391
42057SOL     OW35138   2.308  10.579   9.012  0.0259 -0.2196  0.0675
42057SOL    HW135139   2.356  10.519   8.956  1.0637  0.6865 -0.0398
42057SOL    HW235140   2.308  10.662   8.964 -2.0137 -0.2785 -0.1275
42058SOL     OW35141   8.135   5.758   5.178 -0.2949  0.0481 -0.1214
42058SOL    HW135142   8.080   5.690   5.218 -1.2078 -0.0349 -1.4773
42058SOL    HW235143   8.134   5.738   5.085  2.3354 -0.1508 -0.1638
42059SOL     OW35144   0.510   2.495   0.169 -0.4358  0.2787 -0.0944
42059SOL    HW135145   0.522   2.410   0.126 -0.0193  1.0958 -1.6538
42059SOL    HW235146   0.492   2.473   0.261  1.3099 -1.4461 -0.0947
42060SOL     OW35147  11.675  12.220   8.093  0.4745  0.1551  0.4730
42060SOL    HW135148  11.674  12.292   8.156 -1.3782 -0.5218  1.2705
42060SOL    HW235149  11.600  12.165   8.117  0.4916 -0.8278 -1.5061
42061SOL     OW35150   6.017  12.596   9.324  0.4244  0.0690  0.5393
42061SOL    HW135151   6.034  12.563   9.412  0.2461 -1.3369  0.0806
42061SOL    HW235152   6.059  12.682   9.321 -0.9812  0.9089  2.5284
42062SOL     OW35153  10.028   6.393   6.604  0.2213 -0.2418 -0.1849
42062SOL    HW135154  10.091   6.364   6.669  0.5661  0.8616 -0.0038
42062SOL    HW235155  10.045   6.487   6.594 -0.9315 -0.0588 -0.6332
42063SOL     OW35156   7.203  11.361   4.618  0.1532 -0.3009  0.0229
42063SOL    HW135157   7.121  11.312   4.626  0.7306 -1.1503  0.8949
42063SOL    HW235158   7.242  11.330   4.536 -0.3557  0.0719 -0.3717
42064SOL     OW35159   8.076   4.245   3.025  0.3089 -0.3033  0.1195
42064SOL    HW135160   7.990   4.252   3.065  0.5941  2.9308  0.4880
42064SOL    HW235161   8.136   4.280   3.091  1.2318  1.8574 -1.7074
42065SOL     OW35162   5.376   0.372   7.608 -0.1644 -0.1892 -0.7811
42065SOL    HW135163   5.445   0.306   7.604 -1.4759 -1.6267 -0.5605
42065SOL    HW235164   5.374   0.400   7.699  0.8065  0.6593 -0.9954
42066SOL     OW35165   8.062   4.097   5.114  0.0959  0.1138 -0.2575
42066SOL    HW135166   8.137   4.129   5.164 -0.3993  0.3954  0.3076
42066SOL    HW235167   8.101   4.052   5.039  0.8467 -0.1483  0.2753
42067SOL     OW35168   8.374   0.759   9.465 -0.2048  0.7890 -0.0328
42067SOL    HW135169   8.428   0.802   9.399  0.2190  1.6843  0.8864
42067SOL    HW235170   8.435   0.703   9.513 -0.3527  0.7894  0.1546
42068SOL     OW35171  10.181   1.786   0.306 -0.2903 -0.1184  0.0770
42068SOL    HW135172  10.242   1.842   0.355  0.5028 -0.9102  0.0083
42068SOL    HW235173  10.234   1.743   0.240 -1.0502 -0.3233 -0.4171
42069SOL     OW35174   7.736   0.727   2.967  0.1222 -0.1026 -0.8573
42069SOL    HW135175   7.662   0.739   3.026  2.9850 -0.3556  3.1454
42069SOL    HW235176   7.738   0.632   2.951 -0.5758 -0.0522 -1.2976
42070SOL     OW35177   9.575   9.954   8.947 -0.0735  0.2173  0.4211
42070SOL    HW135178   9.512  10.010   8.993  0.2640  1.8899 -1.0595
42070SOL    HW235179   9.523   9.904   8.885 -0.2162 -0.1614  0.8412
42071SOL     OW35180  12.372   0.777  11.980  0.6552  0.3067 -0.2857
42071SOL    HW135181  12.462   0.758  11.953 -0.0227 -1.8551 -1.2469
42071SOL    HW235182  12.330   0.810  11.900  0.4039  0.5567 -0.0514
42072SOL     OW35183   2.597   1.969   1.467  0.2110  0.6404  0.4253
42072SOL    HW135184   2.683   1.987   1.505 -0.5988  1.0813  2.1234
42072SOL    HW235185   2.544   2.045   1.490 -1.0954 -0.3747  0.8652
42073SOL     OW35186   8.732   9.499   4.178  0.1519 -0.1286  0.1673
42073SOL    HW135187   8.724   9.582   4.132  1.2330  1.8226  3.1927
42073SOL    HW235188   8.786   9.444   4.120 -1.3053  0.8548 -2.2894
42074SOL     OW35189   9.028   8.682  10.805  0.8044  0.4734 -0.0053
42074SOL    HW135190   9.121   8.663  10.792  0.3246 -1.4828 -1.0267
42074SOL    HW235191   9.026   8.752  10.870  2.9958  1.0485 -0.4841
42075SOL     OW35192   5.164   0.299   0.553 -0.0851 -0.2444  0.1603
42075SOL    HW135193   5.087   0.246   0.532 -1.8961  1.5142  1.9485
42075SOL    HW235194   5.149   0.381   0.506  0.2353  0.4363  1.2147
42076SOL     OW35195   8.425   8.556   3.006  0.3180 -1.1406  0.3032
42076SOL    HW135196   8.354   8.494   3.017  0.4444 -1.2176  0.7262
42076SOL    HW235197   8.392   8.621   2.944 -0.2451 -0.9922  0.7454
42077SOL     OW35198  10.106   0.658   3.893 -0.3397  0.7871 -0.0552
42077SOL    HW135199  10.100   0.598   3.818 -0.8319  0.9192 -0.1247
42077SOL    HW235200  10.017   0.664   3.926 -0.0103  0.1621  0.9953
42078SOL     OW35201   9.255   8.776  12.397  0.5335 -0.0652 -0.1740
42078SOL    HW135202   9.349   8.755  12.396  0.5365 -0.0746  0.3055
42078SOL    HW235203   9.249   8.862  12.356  0.7411 -0.0941 -0.2673
42079SOL     OW35204   4.547   4.911   6.149  0.1641  0.6233 -0.1710
42079SOL    HW135205   4.519   4.999   6.125  0.1601  0.2644 -1.6003
42079SOL    HW235206   4.492   4.887   6.224  0.9131  2.2275  0.9205
42080SOL     OW35207  11.468   7.650   3.639  0.0209  0.1364 -0.0132
42080SOL    HW135208  11.388   7.676   3.683 -1.4801 -2.1619 -1.1640
42080SOL    HW235209  11.439   7.611   3.556  2.2391 -1.3887 -0.1816
42081SOL     OW35210  11.885   1.526   1.298 -0.8526 -0.1567  0.3295
42081SOL    HW135211  11.970   1.569   1.307 -0.5537 -0.5518 -0.5415
42081SOL    HW235212  11.824   1.586   1.341 -0.4714  1.2528 -1.0391
42082SOL     OW35213   1.351  10.077   2.448  0.7637 -0.2372  0.8768
42082SOL    HW135214   1.334   9.987   2.421  0.0776 -0.1481  1.0166
42082SOL    HW235215   1.417  10.108   2.385  1.9626 -1.2271  1.5822
42083SOL     OW35216  10.841   0.203   6.943  0.8137  1.0447  1.0991
42083SOL    HW135217  10.750   0.231   6.939  1.0979  2.0216  1.2796
42083SOL    HW235218  10.837   0.112   6.973 -0.0878  1.1562  1.3391
42084SOL     OW35219   1.421  12.550   0.484  0.4794  0.7743  0.0872
42084SOL    HW135220   1.444  12.613   0.416 -0.5257 -0.3914 -1.4027
42084SOL    HW235221   1.403  12.469   0.436 -2.5632  0.5146  1.4918
42085SOL     OW35222   7.807   5.709   5.789 -0.3175  0.2327 -1.2088
42085SOL    HW135223   7.863   5.710   5.866  0.4959 -0.5747 -1.7685
42085SOL    HW235224   7.856   5.759   5.724 -0.9677  0.8521 -1.2283
42086SOL     OW35225   1.966   1.183   5.533 -0.2692 -0.4401 -0.3578
42086SOL    HW135226   1.977   1.275   5.556 -0.7570 -0.2529 -0.8426
42086SOL    HW235227   1.959   1.183   5.437  1.1138 -1.1313 -0.4745
42087SOL     OW35228   2.966   9.028   6.141 -0.1804  0.1842 -0.7649
42087SOL    HW135229   2.882   8.985   6.127 -0.5391  1.0499 -1.3223
42087SOL    HW235230   2.950   9.120   6.123  0.3975  0.7079  1.1678
42088SOL     OW35231   5.747   8.289   1.140  0.5934 -0.4394 -0.1992
42088SOL    HW135232   5.799   8.312   1.216 -2.5077  2.3007  1.3209
42088SOL    HW235233   5.744   8.369   1.087 -3.8178  0.4986  1.0576
42089SOL     OW35234   7.503  12.324   5.287 -0.0319  0.0361  0.3726
42089SOL    HW135235   7.595  12.307   5.265 -0.2276 -0.1459 -0.3472
42089SOL    HW235236   7.498  12.419   5.294  0.2401  0.0397  0.5390
42090SOL     OW35237  12.229   0.846   4.036  0.0192 -0.4708  0.3396
42090SOL    HW135238  12.156   0.907   4.027 -0.7993 -1.2087  1.5588
42090SOL    HW235239  12.244   0.841   4.130  0.5108 -1.6158  0.2158
42091SOL     OW35240   1.372  10.294   0.621  0.6917 -0.3266  0.0902
42091SOL    HW135241   1.445  10.321   0.566  0.8693  0.5924  0.7538
42091SOL    HW235242   1.294  10.311   0.568  0.9051 -0.3117 -0.2172
42092SOL     OW35243   0.422   9.525   1.471  0.2940 -0.3729  0.3282
42092SOL    HW135244   0.385   9.437   1.480  0.3873 -0.5995 -1.3348
42092SOL    HW235245   0.346   9.583   1.469  0.1505 -0.5894 -0.4435
42093SOL     OW35246   8.195   3.085   3.698 -0.6438  0.0306 -0.2034
42093SOL    HW135247   8.282   3.046   3.702 -1.0359 -0.8968 -0.2486
42093SOL    HW235248   8.142   3.030   3.756 -1.3917  0.0232 -0.8710
42094SOL     OW35249   1.957  12.246  11.499 -0.4151 -0.0126 -0.1623
42094SOL    HW135250   2.039  12.262  11.452 -0.0425 -1.7275 -0.1764
42094SOL    HW235251   1.985  12.226  11.589 -0.7997 -0.8401 -0.2237
42095SOL     OW35252   6.857   4.151   3.545  0.4826  0.1100  0.0055
42095SOL    HW135253   6.837   4.178   3.456  0.3584 -1.4313 -0.4741
42095SOL    HW235254   6.915   4.219   3.579 -0.0694  1.1021 -0.9795
42096SOL     OW35255   1.015   0.604   5.799 -0.3893 -0.0842  0.5123
42096SOL    HW135256   1.022   0.637   5.889  0.3088 -0.7672  0.7118
42096SOL    HW235257   1.093   0.638   5.756 -0.8598  0.4695  0.0763
42097SOL     OW35258   3.392   9.727   1.518  0.5467  0.1811 -0.2880
42097SOL    HW135259   3.384   9.718   1.423 -1.0885 -1.1596 -0.0722
42097SOL    HW235260   3.393   9.637   1.551 -1.6535  0.5971  1.1091
42098SOL     OW35261   1.377   3.509   2.133 -1.0958  0.6121 -0.3707
42098SOL    HW135262   1.456   3.455   2.125 -1.2971  0.4393 -1.2596
42098SOL    HW235263   1.394   3.564   2.209 -0.2057  0.4313 -0.4237
42099SOL     OW35264   6.028  10.582  11.512  0.7747  0.1398 -0.0391
42099SOL    HW135265   6.098  10.571  11.447  1.2943  1.4715  0.2597
42099SOL    HW235266   5.958  10.628  11.464  1.1539  1.1146  0.3018
42100SOL     OW35267   5.050   9.795   1.198  0.6839  0.4148  0.5629
42100SOL    HW135268   5.052   9.703   1.222 -0.2915  0.2914  0.2119
42100SOL    HW235269   4.966   9.807   1.154  1.5445  1.0914 -0.9683
42101SOL     OW35270   9.733   9.992   4.958 -0.2014  0.3786 -0.3461
42101SOL    HW135271   9.792   9.917   4.955  1.0848  1.3841 -2.0005
42101SOL    HW235272   9.716  10.013   4.866 -1.3068  1.5350  0.0847
42102SOL     OW35273  12.228  10.087   6.657 -0.2238  0.2046 -0.0188
42102SOL    HW135274  12.250  10.146   6.585 -2.5203  0.2536 -0.7476
42102SOL    HW235275  12.216  10.145   6.732 -1.0996  0.5526 -0.4079
42103SOL     OW35276  11.759   3.341   5.906 -0.4895  0.0951 -1.2109
42103SOL    HW135277  11.788   3.389   5.983 -1.0452 -2.0975  0.4937
42103SOL    HW235278  11.837   3.332   5.852 -0.0901  1.6873 -0.9237
42104SOL     OW35279   6.225  10.750   1.418  0.2038 -0.2666  0.0214
42104SOL    HW135280   6.266  10.835   1.405  0.4090 -0.5192 -1.0840
42104SOL    HW235281   6.131  10.767   1.413  0.1954  0.0980  1.1834
42105SOL     OW35282   5.434  11.212   0.805 -0.4219 -0.1441  0.6412
42105SOL    HW135283   5.438  11.224   0.900 -1.5192 -2.2331  1.0146
42105SOL    HW235284   5.354  11.257   0.779  0.1038  0.8005  0.6102
42106SOL     OW35285   2.642   2.516   5.329  0.3941  0.9747  0.0554
42106SOL    HW135286   2.666   2.492   5.240  0.6458  0.0828  0.3569
42106SOL    HW235287   2.698   2.463   5.385  0.0391  1.3123  0.7510
42107SOL     OW35288   0.768  12.427  12.155 -0.2655  0.4262 -0.4848
42107SOL    HW135289   0.808  12.376  12.226 -0.0781  0.3757 -0.6271
42107SOL    HW235290   0.726  12.362  12.100 -1.2687  0.5437  0.1137
42108SOL     OW35291  11.238   6.201   2.960  0.5071 -0.2768  0.3843
42108SOL    HW135292  11.278   6.269   3.013 -0.2737 -1.0520  2.0296
42108SOL    HW235293  11.301   6.185   2.890  0.7088  2.0912 -0.0357
42109SOL     OW35294   7.885  12.539  11.616  0.1490 -0.4323 -0.1828
42109SOL    HW135295   7.791  12.554  11.623  0.4383  0.8884  1.6651
42109SOL    HW235296   7.918  12.612  11.565  0.3243 -0.1622  0.3083
42110SOL     OW35297   9.031   3.403   6.461  0.4653  0.1132 -0.2595
42110SOL    HW135298   9.089   3.326   6.466 -0.4629 -0.6045 -0.2058
42110SOL    HW235299   8.946   3.366   6.438 -0.7417  0.7420  2.7855
42111SOL     OW35300  10.198   0.813   5.987 -0.6381 -0.9112  0.4916
42111SOL    HW135301  10.266   0.872   5.953 -0.5390 -1.9213 -1.1858
42111SOL    HW235302  10.146   0.868   6.046  1.1569  0.0832  1.2199
42112SOL     OW35303   4.719   2.382   0.868 -0.3421  0.1129  0.4350
42112SOL    HW135304   4.730   2.453   0.805  1.2641  0.1102  0.6800
42112SOL    HW235305   4.624   2.377   0.881 -0.4961  2.5694  0.8168
42113SOL     OW35306   1.740  10.955   9.561  0.0112 -0.3211  0.5047
42113SOL    HW135307   1.785  10.947   9.477  0.1110  0.5391  0.4630
42113SOL    HW235308   1.659  10.905   9.551 -0.7855  1.1292 -0.6895
42114SOL     OW35309   1.827   7.986   4.498  0.7577 -0.3476  0.5581
42114SOL    HW135310   1.737   8.014   4.510  0.7192 -0.8060  1.4071
42114SOL    HW235311   1.855   8.028   4.417  0.0487  0.4587  0.7256
42115SOL     OW35312   9.640   9.153   5.783 -0.3391  0.0981  0.4986
42115SOL    HW135313   9.712   9.097   5.813 -1.2793 -1.7758 -0.5442
42115SOL    HW235314   9.683   9.231   5.749  1.2172 -0.9427 -0.0471
42116SOL     OW35315   0.540  10.392   5.247  0.0600 -0.2794  0.1323
42116SOL    HW135316   0.448  10.413   5.264 -0.4721 -2.0638 -0.2541
42116SOL    HW235317   0.536  10.309   5.198  1.8621 -0.0842 -0.4006
42117SOL     OW35318  12.346  12.257  11.390  0.0555  0.3796  0.3648
42117SOL    HW135319  12.278  12.213  11.441 -0.1146  0.0903 -0.1028
42117SOL    HW235320  12.325  12.236  11.299 -0.3248  1.8582  0.0897
42118SOL     OW35321   9.806   3.557  12.450 -0.5819  0.7687  0.3336
42118SOL    HW135322   9.899   3.574  12.443 -0.6016  0.3323 -1.6856
42118SOL    HW235323   9.798   3.496  12.524  1.0365 -0.9613 -0.8156
42119SOL     OW35324   6.111  10.209  12.469  0.3946 -0.0712  0.1294
42119SOL    HW135325   6.107  10.227  12.375  0.7359 -0.8842 -0.0527
42119SOL    HW235326   6.202  10.183  12.484  0.3666  0.1513  0.7059
42120SOL     OW35327   2.695   0.584  11.165 -0.1332  0.1168  0.3684
42120SOL    HW135328   2.643   0.539  11.232  0.1040 -0.6290  0.0510
42120SOL    HW235329   2.653   0.670  11.157 -1.6653 -0.6521 -0.2560
42121SOL     OW35330  11.582   9.843   0.750 -0.0446  0.1031 -0.3687
42121SOL    HW135331  11.501   9.809   0.788  0.4734 -0.6231  0.1017
42121SOL    HW235332  11.613   9.773   0.693  0.8794 -0.1258  0.3911
42122SOL     OW35333   7.980   6.870   4.653 -0.2814  0.1624  0.1356
42122SOL    HW135334   7.911   6.932   4.628  1.2587  1.7149 -0.3912
42122SOL    HW235335   8.042   6.871   4.581  0.2806 -1.2908  0.5580
42123SOL     OW35336   5.901   7.268   4.101  0.3546 -0.0468 -0.7168
42123SOL    HW135337   5.891   7.284   4.194 -1.2234  0.9338 -1.0164
42123SOL    HW235338   5.972   7.204   4.095  0.5884 -0.0087  1.1272
42124SOL     OW35339   8.570   8.447   5.501  0.1664  0.0612 -0.5500
42124SOL    HW135340   8.551   8.406   5.586 -0.8404  0.8512 -0.3765
42124SOL    HW235341   8.502   8.514   5.491 -1.5329 -1.8477 -3.2455
42125SOL     OW35342   1.352   4.608   4.388 -0.3148  1.3593 -0.3298
42125SOL    HW135343   1.272   4.586   4.339  0.8207  0.1241 -1.7415
42125SOL    HW235344   1.328   4.685   4.440 -2.4317  0.9812 -0.6427
42126SOL     OW35345   7.647   5.444   7.486 -0.6920 -0.1412 -0.1619
42126SOL    HW135346   7.711   5.374   7.497 -1.1322 -0.6165 -0.6077
42126SOL    HW235347   7.623   5.469   7.576 -0.6565 -0.6762 -0.0032
42127SOL     OW35348   1.787   7.978   9.829  0.3553  0.1577 -0.2640
42127SOL    HW135349   1.860   8.006   9.884  0.5796  1.9459 -1.4067
42127SOL    HW235350   1.829   7.945   9.749 -0.0597  1.6616 -1.1327
42128SOL     OW35351  11.902   0.049   3.125 -0.2265 -0.9804 -0.1994
42128SOL    HW135352  11.940  -0.009   3.192  0.6913  1.4085  1.4906
42128SOL    HW235353  11.946   0.023   3.044  2.7507 -0.4538  1.1132
42129SOL     OW35354   2.260   1.706   4.116 -0.1829 -0.0126 -0.1980
42129SOL    HW135355   2.208   1.672   4.188 -1.5646  1.1201 -0.6179
42129SOL    HW235356   2.237   1.650   4.041  0.8283 -0.8334  0.0791
42130SOL     OW35357   4.423   6.265  10.735  0.6503  0.2576  0.2413
42130SOL    HW135358   4.387   6.342  10.779  1.4889 -0.8188  2.9599
42130SOL    HW235359   4.485   6.301  10.671  0.5488  1.8596  1.0067
42131SOL     OW35360   3.726   7.441   2.155  0.0304  0.5434 -0.0976
42131SOL    HW135361   3.685   7.404   2.233  0.7681  0.8557  0.4492
42131SOL    HW235362   3.766   7.523   2.185  1.9718 -0.2600 -0.3459
42132SOL     OW35363   0.221  10.726   3.189  0.6300  0.4064 -0.4517
42132SOL    HW135364   0.189  10.638   3.168  0.9459 -0.2116  1.4498
42132SOL    HW235365   0.161  10.785   3.142 -0.4562 -0.7900 -0.6404
42133SOL     OW35366   4.558   9.304   8.688  0.0433  0.4347 -0.3118
42133SOL    HW135367   4.505   9.224   8.695 -0.3581  0.7544  0.4685
42133SOL    HW235368   4.520   9.363   8.752  1.4395  0.6339  0.3665
42134SOL     OW35369  12.327   5.516   1.655  0.3342 -0.0737 -0.8974
42134SOL    HW135370  12.415   5.477   1.651 -0.6878 -2.5695 -1.1677
42134SOL    HW235371  12.277   5.468   1.588 -0.9051  2.2805 -1.7665
42135SOL     OW35372   3.320   9.045   4.719  0.0635  0.5775  0.0607
42135SOL    HW135373   3.390   8.991   4.755 -0.3669  0.8727  1.3936
42135SOL    HW235374   3.346   9.062   4.629  1.1392 -0.2662  0.2023
42136SOL     OW35375   9.944   9.394   3.499 -0.0979  0.4639  0.0757
42136SOL    HW135376  10.001   9.397   3.422  0.5466  0.6045  0.5530
42136SOL    HW235377   9.989   9.447   3.564  0.3487 -1.2554  1.2187
42137SOL     OW35378   0.381   5.393   8.209 -0.1825  0.4030 -0.3750
42137SOL    HW135379   0.443   5.465   8.201  0.6352 -0.2796 -0.3157
42137SOL    HW235380   0.417   5.324   8.153 -0.8401 -0.0391 -0.2652
42138SOL     OW35381   1.864  10.908   2.754  0.0262 -0.4524 -0.2797
42138SOL    HW135382   1.803  10.981   2.766 -0.6658 -0.6674 -2.1525
42138SOL    HW235383   1.950  10.948   2.757 -0.1259 -0.1001  2.1606
42139SOL     OW35384   3.629   4.594   0.722 -0.3032  0.3880 -0.0039
42139SOL    HW135385   3.700   4.550   0.768 -0.7236  0.4346  0.7075
42139SOL    HW235386   3.671   4.665   0.673  0.4561 -1.0698 -1.5682
42140SOL     OW35387   2.006  10.040   7.400 -0.1082 -0.3046 -0.0547
42140SOL    HW135388   1.981  10.084   7.319  0.1079  0.2459  0.1690
42140SOL    HW235389   2.087   9.993   7.378  0.0713  0.0239 -0.1053
42141SOL     OW35390   5.639   9.119   1.190 -0.0946 -0.4380  0.2813
42141SOL    HW135391   5.720   9.114   1.242  0.4846 -0.1691 -0.5844
42141SOL    HW235392   5.569   9.108   1.255  0.6485 -3.2373  0.7720
42142SOL     OW35393  11.903  10.805   0.322  0.4218 -0.4150 -0.3838
42142SOL    HW135394  11.819  10.765   0.344 -0.1044  1.1418  0.5471
42142SOL    HW235395  11.966  10.732   0.328 -0.3494 -0.9629  2.1612
42143SOL     OW35396   2.960   0.585   5.734  0.6891 -0.2212 -0.6565
42143SOL    HW135397   2.946   0.666   5.784 -0.0175  1.0258 -2.7157
42143SOL    HW235398   2.890   0.586   5.668  0.3088 -2.8436 -0.4044
42144SOL     OW35399   2.626  10.390   4.051 -0.6721  0.4545 -0.2398
42144SOL    HW135400   2.692  10.414   3.986 -1.4999 -1.8201 -2.0617
42144SOL    HW235401   2.543  10.399   4.006 -1.3282 -0.5938  0.6925
42145SOL     OW35402   2.617   3.503   7.524  0.2292 -0.1788  0.5785
42145SOL    HW135403   2.543   3.442   7.515 -0.7116  1.0660 -0.7080
42145SOL    HW235404   2.674   3.483   7.450 -0.0554  0.4289  0.1816
42146SOL     OW35405  10.943   2.331   6.769  0.6545 -0.2684 -0.6717
42146SOL    HW135406  10.891   2.368   6.840  1.2839 -1.2021  0.3094
42146SOL    HW235407  10.881   2.280   6.717  0.4531 -0.8278  0.1013
42147SOL     OW35408  12.583   9.364   7.074 -0.4874  0.3644  0.2269
42147SOL    HW135409  12.537   9.284   7.097 -0.5488  0.9604  2.4898
42147SOL    HW235410  12.515   9.432   7.074 -0.0196  0.8568  1.1861
42148SOL     OW35411   9.198   6.565   8.126  0.4141 -0.4463 -0.6156
42148SOL    HW135412   9.206   6.617   8.046  1.1316  0.6210  0.1232
42148SOL    HW235413   9.167   6.480   8.096 -0.8820  0.4131 -1.8539
42149SOL     OW35414   2.020   0.836   5.930  0.5260 -0.3992 -0.2514
42149SOL    HW135415   1.998   0.840   5.837  1.3228  1.0930 -0.4127
42149SOL    HW235416   1.939   0.859   5.975  0.8398  1.8850 -0.7241
42150SOL     OW35417   0.972   9.038   7.093  0.1487 -0.0753 -0.3414
42150SOL    HW135418   0.915   9.003   7.161  1.5152 -0.7730  0.5080
42150SOL    HW235419   0.983   8.966   7.031  0.7421 -0.2227 -0.0698
42151SOL     OW35420  11.788   6.489   0.999  0.2122 -0.3281 -0.1359
42151SOL    HW135421  11.703   6.533   1.000 -0.2192 -1.0760 -1.2817
42151SOL    HW235422  11.812   6.478   1.091 -0.8896 -0.0289  0.1931
42152SOL     OW35423   0.770  12.128   6.233  0.8156 -0.2013 -0.2994
42152SOL    HW135424   0.683  12.089   6.219 -0.0499  1.5049  0.0048
42152SOL    HW235425   0.819  12.061   6.281 -0.7846 -0.6924  0.7267
42153SOL     OW35426  10.672  11.110   3.369 -0.2955  0.1153 -0.1914
42153SOL    HW135427  10.584  11.121   3.406 -0.4290  0.6591 -0.6514
42153SOL    HW235428  10.706  11.199   3.362  0.1482 -0.0656 -0.3782
42154SOL     OW35429   8.621   7.530   8.845 -0.4284 -0.2889  0.4130
42154SOL    HW135430   8.702   7.499   8.807 -0.0145  1.2421 -0.0281
42154SOL    HW235431   8.562   7.454   8.842  0.5152 -1.0096 -0.5911
42155SOL     OW35432   6.222   0.286   9.940 -0.2283  0.1194  0.1790
42155SOL    HW135433   6.183   0.347  10.002 -0.3151 -0.1367  0.3823
42155SOL    HW235434   6.148   0.244   9.896 -0.2083 -0.7134  0.9050
42156SOL     OW35435   1.954   2.163   4.345  0.0578  0.6797  0.3559
42156SOL    HW135436   2.026   2.189   4.402 -0.0629 -0.0999  0.8774
42156SOL    HW235437   1.989   2.092   4.292 -0.4849 -0.0934  1.0121
42157SOL     OW35438  10.392   4.987   3.893 -0.4303  0.1623 -0.0992
42157SOL    HW135439  10.484   4.990   3.866  0.0322  1.0660  1.4835
42157SOL    HW235440  10.345   5.033   3.823  0.7899  2.8123  0.6980
42158SOL     OW35441   7.091   2.558   4.951 -0.1077  0.1712  0.0265
42158SOL    HW135442   7.043   2.475   4.957  4.5283 -2.7927  2.4358
42158SOL    HW235443   7.066   2.606   5.030 -0.8804 -0.1112 -0.0337
42159SOL     OW35444   8.550   3.561   3.197  0.6161 -0.2828 -0.0887
42159SOL    HW135445   8.553   3.511   3.278 -0.7485 -2.3664 -1.2348
42159SOL    HW235446   8.467   3.537   3.156 -0.3323  3.2301 -0.6094
42160SOL     OW35447   5.863  10.658  10.933  0.0033  0.2055 -0.0333
42160SOL    HW135448   5.861  10.754  10.939 -2.0991  0.1296  1.9228
42160SOL    HW235449   5.946  10.633  10.975 -1.1744  1.1149  3.1424
42161SOL     OW35450   0.701   9.822   8.433 -0.1894 -0.4935  0.2960
42161SOL    HW135451   0.706   9.836   8.338 -2.0718  2.3316  0.4775
42161SOL    HW235452   0.790   9.841   8.464  0.4567 -1.4713 -0.8707
42162SOL     OW35453  10.606   5.560   5.992 -0.6785 -0.1929 -0.0336
42162SOL    HW135454  10.599   5.555   6.087  1.8524 -2.1501  0.1574
42162SOL    HW235455  10.630   5.472   5.965 -0.8036  0.4381 -2.4657
42163SOL     OW35456   5.317  11.169   6.990 -0.3995  0.2287  0.3496
42163SOL    HW135457   5.324  11.074   7.000  0.6703  0.0983 -1.2717
42163SOL    HW235458   5.403  11.202   7.016 -0.2682  0.5979 -0.5282
42164SOL     OW35459   9.658   1.257  10.188  0.4308  0.0924 -0.9619
42164SOL    HW135460   9.657   1.330  10.126  4.1215  0.2098 -1.1176
42164SOL    HW235461   9.702   1.187  10.140 -0.8135 -1.4435  0.0398
42165SOL     OW35462   1.459   2.392   4.686  0.3044 -1.1373 -0.3432
42165SOL    HW135463   1.484   2.460   4.748  1.1117 -0.1269 -1.7125
42165SOL    HW235464   1.381   2.352   4.724 -0.9887  1.4297 -0.0923
42166SOL     OW35465  12.280   6.259   9.251  0.1592 -0.2749  0.2233
42166SOL    HW135466  12.283   6.250   9.347 -0.2668 -0.0807  0.2562
42166SOL    HW235467  12.245   6.175   9.220 -1.4392  0.3110  0.3630
42167SOL     OW35468   1.767   8.372   8.779 -0.4378  0.5256 -0.5188
42167SOL    HW135469   1.727   8.459   8.788 -2.1793 -0.0113 -2.2434
42167SOL    HW235470   1.745   8.328   8.861  0.6933  1.7648  0.4886
42168SOL     OW35471   4.046   2.213   5.184  0.4497  0.6939  0.3583
42168SOL    HW135472   4.071   2.302   5.208  0.7768  0.1091  2.4630
42168SOL    HW235473   4.104   2.190   5.112  2.0179  1.3930  1.3401
42169SOL     OW35474   9.267   3.666   0.461 -0.4084 -0.3429 -0.7685
42169SOL    HW135475   9.235   3.634   0.377  0.5756 -2.4882 -0.3779
42169SOL    HW235476   9.346   3.616   0.478 -0.3403  0.3437  1.2390
42170SOL     OW35477   6.227   2.705  12.074 -0.1089 -0.4799 -0.3193
42170SOL    HW135478   6.267   2.633  12.024  0.3664  0.1484 -0.8540
42170SOL    HW235479   6.233   2.781  12.016 -2.4739 -0.4465 -0.5816
42171SOL     OW35480   8.157   7.518  12.046 -0.3276 -0.1681  0.3470
42171SOL    HW135481   8.186   7.609  12.046  0.8579 -0.5186 -0.6757
42171SOL    HW235482   8.185   7.484  12.131  2.0644 -0.3975 -0.4650
42172SOL     OW35483   9.971  11.530   6.995 -0.6623 -0.0386 -0.4763
42172SOL    HW135484   9.991  11.615   6.957 -0.7035 -0.3124 -1.1200
42172SOL    HW235485  10.023  11.468   6.944 -1.4151 -0.5073 -0.6862
42173SOL     OW35486  11.143   6.598   5.484 -0.1049 -0.1537 -0.7567
42173SOL    HW135487  11.152   6.692   5.500 -0.0535 -0.2444 -0.2427
42173SOL    HW235488  11.123   6.591   5.390 -0.1878  0.3722 -0.7786
42174SOL     OW35489   3.667   9.039   2.457 -0.3887 -0.1821 -0.1053
42174SOL    HW135490   3.721   9.013   2.382 -0.1758 -0.6218  0.1935
42174SOL    HW235491   3.707   9.120   2.488 -0.1731 -0.2635 -0.1666
42175SOL     OW35492   7.347   9.529   1.257 -0.1666 -0.3431 -0.0634
42175SOL    HW135493   7.419   9.487   1.209 -0.0988  1.7211 -1.9010
42175SOL    HW235494   7.365   9.509   1.349  2.3258 -0.5558 -0.5268
42176SOL     OW35495   5.622  12.034   6.042  0.3936 -0.5809  0.3830
42176SOL    HW135496   5.638  12.120   6.005  0.8851 -0.5956  0.5580
42176SOL    HW235497   5.618  12.049   6.136 -0.2462 -0.6384  0.3701
42177SOL     OW35498   3.742  12.111   4.703 -0.4675 -0.4888  0.6370
42177SOL    HW135499   3.677  12.160   4.653  0.2503 -1.3923 -1.2857
42177SOL    HW235500   3.827  12.143   4.670  0.1179  0.2162  2.6421
42178SOL     OW35501   5.336   9.878   0.190  0.0497  0.0233  0.1958
42178SOL    HW135502   5.373   9.856   0.275  0.4891 -0.4267 -0.1093
42178SOL    HW235503   5.412   9.897   0.135 -0.2192  0.0792 -0.1594
42179SOL     OW35504   7.812  10.880   7.944  0.2664 -0.9079  0.4985
42179SOL    HW135505   7.867  10.808   7.914  1.3771 -0.6701  1.8534
42179SOL    HW235506   7.821  10.879   8.039 -2.4285 -1.1168  0.8425
42180SOL     OW35507   0.547   9.793   4.629  0.1448 -0.2035  0.0675
42180SOL    HW135508   0.556   9.709   4.673 -0.0635 -1.3081 -1.8933
42180SOL    HW235509   0.523   9.771   4.539 -2.9693  2.0043  0.1856
42181SOL     OW35510   5.081  11.166   5.863  0.5350 -0.9958 -0.0306
42181SOL    HW135511   4.998  11.214   5.860  1.1657  0.1279  0.0846
42181SOL    HW235512   5.055  11.075   5.882 -0.5619 -0.3426  1.8875
42182SOL     OW35513   3.923  11.025   5.555 -0.3495 -0.1790  0.2712
42182SOL    HW135514   3.953  10.934   5.552  0.7527  0.0085  3.0740
42182SOL    HW235515   4.003  11.077   5.544 -1.0617  0.5410 -2.0537
42183SOL     OW35516  10.311  12.394   0.741 -0.4026  0.7389  0.2528
42183SOL    HW135517  10.257  12.434   0.672 -0.6214 -0.9887 -0.6272
42183SOL    HW235518  10.397  12.385   0.701  0.0348  1.6388  0.9596
42184SOL     OW35519   1.330   8.967  12.575  0.0081 -0.2532  0.1754
42184SOL    HW135520   1.269   9.033  12.609 -0.6420 -0.4229 -0.6319
42184SOL    HW235521   1.298   8.949  12.486 -0.2492 -2.1618  0.6125
42185SOL     OW35522   5.819  10.816   1.179 -0.2133  0.2850  0.2400
42185SOL    HW135523   5.733  10.829   1.218 -0.8656  0.8717 -1.3048
42185SOL    HW235524   5.828  10.887   1.115  1.1174 -0.1725 -0.1184
42186SOL     OW35525  10.500   3.440   7.699  0.0301 -0.2064 -0.5432
42186SOL    HW135526  10.538   3.362   7.740 -2.1910 -1.0239  0.1156
42186SOL    HW235527  10.513   3.510   7.764 -0.5916 -0.7451  0.1835
42187SOL     OW35528  11.074   9.195  12.456  0.4201  0.2748 -0.7519
42187SOL    HW135529  10.982   9.171  12.467  0.9038 -0.8661  1.2968
42187SOL    HW235530  11.088   9.192  12.361 -1.6557  0.5916 -1.1241
42188SOL     OW35531  11.740   7.182   7.267  0.1305 -0.4620 -0.2080
42188SOL    HW135532  11.815   7.208   7.214 -1.6742  1.5112 -1.9674
42188SOL    HW235533  11.664   7.215   7.219 -1.7441 -0.2601  2.6572
42189SOL     OW35534   8.139   3.911   2.212  0.4083 -0.1484 -0.0044
42189SOL    HW135535   8.064   3.870   2.256  0.2288 -1.9530 -1.8253
42189SOL    HW235536   8.114   4.003   2.204 -0.5089 -0.2138  1.6195
42190SOL     OW35537  12.149  11.254  10.091  0.4265  0.2395 -0.3370
42190SOL    HW135538  12.230  11.212  10.119  0.2855 -0.1979 -0.5816
42190SOL    HW235539  12.177  11.341  10.062  0.8856 -0.0891 -0.9108
42191SOL     OW35540   6.614   9.509  11.529  0.4395  0.2365 -0.0511
42191SOL    HW135541   6.614   9.600  11.499  1.7864 -0.2515 -1.6712
42191SOL    HW235542   6.703   9.478  11.511 -0.6676 -2.1330 -1.9420
42192SOL     OW35543  10.545   0.932   7.458 -0.2146 -0.0437 -0.2962
42192SOL    HW135544  10.469   0.969   7.411  1.1378  0.4801 -2.1835
42192SOL    HW235545  10.545   0.840   7.433 -1.4507 -0.5648  1.4659
42193SOL     OW35546   6.667   2.308  10.279  0.3542 -0.5428 -0.4982
42193SOL    HW135547   6.742   2.320  10.220  0.7772 -1.3981 -0.1590
42193SOL    HW235548   6.645   2.215  10.271  1.3931 -1.0573  1.7748
42194SOL     OW35549   6.917   7.893   4.487  0.2957 -0.2158  0.0167
42194SOL    HW135550   6.848   7.954   4.461  0.1092 -0.4990 -0.1587
42194SOL    HW235551   6.894   7.810   4.444  0.8562 -0.2587 -0.2100
42195SOL     OW35552  10.646   5.351   2.937  0.0146 -0.0045 -0.3931
42195SOL    HW135553  10.675   5.275   2.887 -0.7968 -0.7566  0.2337
42195SOL    HW235554  10.679   5.426   2.889  0.9689 -0.7533 -0.9523
42196SOL     OW35555   7.163  12.225   9.567  0.4042 -0.1346  0.0447
42196SOL    HW135556   7.144  12.268   9.484 -0.5468 -0.6016  0.0120
42196SOL    HW235557   7.258  12.211   9.566  0.6210  1.2046 -0.3053
42197SOL     OW35558  11.640   0.831   9.644  0.0418 -0.2758 -0.1487
42197SOL    HW135559  11.612   0.740   9.648 -0.0177 -0.2110  2.9679
42197SOL    HW235560  11.559   0.881   9.633  0.0445 -0.5174 -1.5056
42198SOL     OW35561   3.912   4.432  12.132  0.1052 -0.3103  0.1353
42198SOL    HW135562   3.969   4.467  12.201 -1.6129 -0.6315  1.7897
42198SOL    HW235563   3.972   4.386  12.073  2.1348  2.9892 -0.6647
42199SOL     OW35564   4.561   6.925   0.599 -0.4870  0.0469  0.5200
42199SOL    HW135565   4.595   6.856   0.657 -1.3560  0.1746  1.2090
42199SOL    HW235566   4.628   6.994   0.602 -0.7070  0.2361  1.7452
42200SOL     OW35567   6.345   0.407   0.505 -0.2983  0.2042  0.6499
42200SOL    HW135568   6.257   0.395   0.540 -0.6417 -1.2649 -0.5675
42200SOL    HW235569   6.342   0.363   0.420  0.9651  2.1403 -0.4627
42201SOL     OW35570   5.803   2.245   7.466  0.0453 -0.0558 -0.3527
42201SOL    HW135571   5.792   2.162   7.420  1.0323 -0.6367  0.4041
42201SOL    HW235572   5.787   2.312   7.400  1.3799 -0.8520 -1.5483
42202SOL     OW35573   6.336   8.477  11.909 -0.1337 -0.0598 -0.0214
42202SOL    HW135574   6.364   8.415  11.842 -1.2829 -0.9772  0.3179
42202SOL    HW235575   6.286   8.425  11.971 -2.0840  1.3561 -0.3054
42203SOL     OW35576   2.514   2.909   1.257  0.1784  0.1459 -0.2562
42203SOL    HW135577   2.524   2.985   1.315  0.6922 -1.4025  1.8170
42203SOL    HW235578   2.557   2.837   1.305  0.8530 -1.1943 -2.6986
42204SOL     OW35579   6.890  12.095   6.700  0.7149  0.0747  0.2246
42204SOL    HW135580   6.890  12.079   6.795 -0.9652 -0.2725  0.2053
42204SOL    HW235581   6.829  12.030   6.665  0.8029  0.6374 -1.0107
42205SOL     OW35582   1.531   5.713   2.182 -0.1440 -0.1257  0.1828
42205SOL    HW135583   1.545   5.779   2.250  0.5329  1.7107 -1.6232
42205SOL    HW235584   1.596   5.646   2.199  0.8116  0.8957  0.6848
42206SOL     OW35585   1.292   3.280   9.788  0.4057 -0.2270 -0.1546
42206SOL    HW135586   1.210   3.327   9.804  0.5356 -0.0037 -0.1385
42206SOL    HW235587   1.352   3.347   9.756 -0.6493 -1.0971 -4.6289
42207SOL     OW35588  12.151   6.194   1.858  0.3089 -0.1238  0.1674
42207SOL    HW135589  12.195   6.244   1.789  1.7027 -0.8180  0.5093
42207SOL    HW235590  12.117   6.260   1.918 -0.3339  0.4675 -0.8168
42208SOL     OW35591   7.689   2.647   2.044 -0.0965  0.1402  0.2031
42208SOL    HW135592   7.614   2.597   2.075  0.5256 -0.5646  0.5919
42208SOL    HW235593   7.654   2.734   2.026 -0.5596  0.4771  2.5313
42209SOL     OW35594   9.842   5.444   0.084 -0.0804  0.2381 -0.1352
42209SOL    HW135595   9.883   5.517   0.038  2.2413 -0.6909  0.2970
42209SOL    HW235596   9.795   5.396   0.016  1.5574  0.0507 -1.1848
42210SOL     OW35597   4.276   7.091   8.670  0.3154 -0.4550 -0.1452
42210SOL    HW135598   4.305   7.028   8.736  1.4566 -0.5304 -0.6983
42210SOL    HW235599   4.184   7.107   8.692  0.3600 -1.3238  0.7807
42211SOL     OW35600   9.606   2.485   7.023 -0.2840 -0.2329  0.3274
42211SOL    HW135601   9.541   2.552   7.005 -1.1492 -1.1648 -0.1340
42211SOL    HW235602   9.648   2.513   7.105 -1.6731  0.0973  0.9577
42212SOL     OW35603   3.354   5.382   1.416 -0.1641  0.5157 -0.1480
42212SOL    HW135604   3.263   5.388   1.444 -0.3237 -0.3363 -0.4630
42212SOL    HW235605   3.375   5.470   1.385 -0.6250  0.9262  0.6879
42213SOL     OW35606  10.129  12.172  11.386  1.2334  0.8145 -0.0985
42213SOL    HW135607  10.098  12.262  11.370  0.7033  0.7526  0.5275
42213SOL    HW235608  10.140  12.168  11.481  2.2225  0.5187 -0.2184
42214SOL     OW35609  12.510   9.088  12.587 -0.1569  0.3306  0.3214
42214SOL    HW135610  12.499   9.088  12.491 -0.6183  1.7659  0.3555
42214SOL    HW235611  12.567   9.013  12.604  1.1594  0.9094 -1.2326
42215SOL     OW35612   6.999   7.609   1.196  0.1042  0.2501 -0.2101
42215SOL    HW135613   6.909   7.585   1.174  0.5179 -0.2423 -1.4608
42215SOL    HW235614   7.028   7.541   1.257  0.5258 -1.2754 -1.9988
42216SOL     OW35615   7.843   3.894   3.467  0.3868  0.2198  0.5416
42216SOL    HW135616   7.835   3.940   3.551  1.4549  0.6977  0.4070
42216SOL    HW235617   7.755   3.861   3.449 -0.0745  0.9349  1.3796
42217SOL     OW35618   8.768   1.467  11.018 -0.7263 -0.2102 -0.9039
42217SOL    HW135619   8.862   1.460  11.036 -0.5935  2.0719 -0.4804
42217SOL    HW235620   8.729   1.394  11.066  0.5484  0.5297  1.4145
42218SOL     OW35621   5.765   5.043  10.337  0.2195  0.2774  0.0200
42218SOL    HW135622   5.839   5.034  10.397  0.9189  0.9792 -0.7166
42218SOL    HW235623   5.727   4.955  10.332  2.0138 -0.4999 -0.8709
42219SOL     OW35624   5.934   8.827   1.117 -0.3724 -0.0240 -0.1546
42219SOL    HW135625   5.938   8.757   1.052 -0.1566 -0.5392  0.4002
42219SOL    HW235626   5.978   8.901   1.076 -0.6409 -0.1973 -0.7646
42220SOL     OW35627   9.597  11.296  12.133 -0.0350  0.3367  0.0354
42220SOL    HW135628   9.550  11.371  12.096  2.5785  0.9628 -2.3818
42220SOL    HW235629   9.682  11.332  12.160  0.9312 -1.5692 -0.3104
42221SOL     OW35630   7.162   4.470   2.451 -0.9053 -0.3781  0.4877
42221SOL    HW135631   7.126   4.521   2.380  1.4055 -0.4429 -0.8302
42221SOL    HW235632   7.156   4.379   2.421  2.3580 -0.2601 -0.8862
42222SOL     OW35633   6.761   4.086   8.724 -0.0371 -0.5222  0.0930
42222SOL    HW135634   6.696   4.030   8.682 -0.2365 -1.0527  1.0831
42222SOL    HW235635   6.802   4.134   8.652 -0.8727 -0.8726 -0.6278
42223SOL     OW35636   3.557   2.130   6.716  0.1972 -0.4465  0.0199
42223SOL    HW135637   3.621   2.202   6.719 -0.8747  0.7041 -2.0896
42223SOL    HW235638   3.556   2.103   6.624 -0.6842 -2.0209  0.4612
42224SOL     OW35639   5.831  10.249   5.135 -0.0786 -0.6291 -0.1744
42224SOL    HW135640   5.763  10.314   5.119 -0.5401 -0.6849  1.3280
42224SOL    HW235641   5.892  10.293   5.195 -0.6771 -1.7141  1.2905
42225SOL     OW35642   9.253   3.783   8.392 -0.0362 -0.4592 -0.3558
42225SOL    HW135643   9.266   3.776   8.487 -1.2692 -0.8787 -0.2095
42225SOL    HW235644   9.162   3.809   8.381  0.7449  2.2082 -1.3724
42226SOL     OW35645   5.753   7.397   5.457  0.9728 -0.1278  0.3910
42226SOL    HW135646   5.747   7.392   5.361 -0.7659 -1.3594  0.5025
42226SOL    HW235647   5.742   7.490   5.477  2.2525  0.2756 -0.6118
42227SOL     OW35648  10.701  10.307   1.590  0.0669  0.4891 -0.2525
42227SOL    HW135649  10.713  10.398   1.618  0.0103  0.2671  0.5182
42227SOL    HW235650  10.650  10.313   1.509 -0.7127  1.1099  0.2689
42228SOL     OW35651   7.995   4.641   1.279  0.5708 -0.1027  0.1401
42228SOL    HW135652   8.038   4.618   1.361 -0.1893  1.1940  0.9446
42228SOL    HW235653   7.911   4.678   1.306 -0.0793 -0.4674 -1.2781
42229SOL     OW35654   0.987   9.756  12.398  0.4629  0.1846  0.4306
42229SOL    HW135655   1.071   9.746  12.442  0.9993 -1.3234 -0.8851
42229SOL    HW235656   1.008   9.754  12.305 -0.7131  2.8012  0.0149
42230SOL     OW35657   5.895   4.690   4.195  0.0240  0.3378  0.0358
42230SOL    HW135658   5.804   4.675   4.220 -0.2030  1.5371 -0.0059
42230SOL    HW235659   5.899   4.663   4.103 -0.3280  0.4289 -0.0089
42231SOL     OW35660  10.646   3.909   5.796  0.2876  0.0125 -0.3342
42231SOL    HW135661  10.738   3.901   5.771 -0.0624 -1.1488 -1.3245
42231SOL    HW235662  10.643   3.987   5.852  2.1605 -0.8595  1.1012
42232SOL     OW35663   3.828   2.358   9.179 -0.0617 -0.1147  0.4095
42232SOL    HW135664   3.770   2.332   9.108 -0.5133  0.0238  0.7224
42232SOL    HW235665   3.913   2.372   9.137  0.2380 -2.1710  0.2523
42233SOL     OW35666   3.908   0.617   8.877 -0.0102  0.4085  0.0872
42233SOL    HW135667   3.842   0.607   8.945 -1.0185  0.5008 -0.8397
42233SOL    HW235668   3.966   0.542   8.889  0.2616  0.8269  1.4907
42234SOL     OW35669   8.955   8.812  11.198 -0.1398 -0.2817 -0.8631
42234SOL    HW135670   8.985   8.828  11.109 -2.5981  2.3090 -1.3678
42234SOL    HW235671   9.023   8.849  11.254  0.6658 -0.4734 -1.6928
42235SOL     OW35672  12.382   0.683   5.458  0.0050  0.0995  0.7673
42235SOL    HW135673  12.462   0.657   5.505 -0.3369 -1.5082  0.5242
42235SOL    HW235674  12.373   0.618   5.389 -0.0101  1.9043 -1.0081
42236SOL     OW35675   6.908   7.266   0.057  0.0056 -0.5720  0.2259
42236SOL    HW135676   6.953   7.339   0.013  2.2942 -0.6267  2.2667
42236SOL    HW235677   6.821   7.300   0.078 -0.0723  0.4661 -1.5599
42237SOL     OW35678   6.120   1.671   4.252 -0.1911 -0.1940 -0.0537
42237SOL    HW135679   6.140   1.764   4.260 -2.3137  0.6154 -2.4831
42237SOL    HW235680   6.204   1.630   4.230  0.5033  1.4266 -0.5723
42238SOL     OW35681   6.352   8.207   3.118  0.6716 -0.1191  0.3156
42238SOL    HW135682   6.257   8.192   3.111  0.8674 -1.7200  0.6548
42238SOL    HW235683   6.363   8.299   3.097 -1.2282  0.7097  2.4924
42239SOL     OW35684   3.221   7.531   2.769  0.4468  0.9133 -0.5636
42239SOL    HW135685   3.241   7.457   2.827  0.2423  0.8741 -0.5428
42239SOL    HW235686   3.205   7.490   2.684 -1.1670  0.7778 -0.2287
42240SOL     OW35687   3.270   9.940   1.900 -0.2326 -0.6383  0.1510
42240SOL    HW135688   3.207   9.986   1.955 -0.4135 -0.2556 -0.3662
42240SOL    HW235689   3.339  10.004   1.882 -0.5384 -0.5231 -0.6541
42241SOL     OW35690   7.964   4.174   3.452 -0.2252  0.2134 -0.3061
42241SOL    HW135691   7.878   4.151   3.487 -0.5788  1.2834 -0.4466
42241SOL    HW235692   7.998   4.092   3.416 -1.4897 -0.0771 -0.8969
42242SOL     OW35693   8.232   3.666   1.686  0.6613 -0.1023 -0.1971
42242SOL    HW135694   8.278   3.592   1.647  0.3758 -0.6096  0.4104
42242SOL    HW235695   8.145   3.632   1.708 -1.2013  1.6039 -4.0732
42243SOL     OW35696   8.848  11.675   7.137  0.4393  0.7658 -0.0447
42243SOL    HW135697   8.895  11.700   7.217 -0.2485 -0.4547  0.7676
42243SOL    HW235698   8.768  11.727   7.139  0.2332  0.4356  0.2697
42244SOL     OW35699   1.589   7.794   0.505  0.2453 -0.4109 -0.0793
42244SOL    HW135700   1.572   7.710   0.463  0.6015 -0.7617  0.4642
42244SOL    HW235701   1.588   7.858   0.433 -1.4458 -0.6643 -0.3074
42245SOL     OW35702   8.969   8.535  10.288 -0.1396 -0.0598 -0.8654
42245SOL    HW135703   9.019   8.615  10.297  0.1502 -0.2239 -0.9986
42245SOL    HW235704   9.026   8.476  10.238  0.2370 -0.8589  0.4652
42246SOL     OW35705   7.242  11.136   1.039 -0.0992  0.1721  0.2094
42246SOL    HW135706   7.314  11.199   1.030  0.6985 -0.8276 -0.7561
42246SOL    HW235707   7.176  11.166   0.977 -0.1146  0.5619  0.4098
42247SOL     OW35708  10.097   0.458   3.707  0.0128  0.3880  0.2096
42247SOL    HW135709  10.031   0.469   3.638  1.0624  0.1387 -0.8685
42247SOL    HW235710  10.179   0.448   3.660  0.7930  0.3983  1.5223
42248SOL     OW35711  11.719   7.763   7.679  0.0565  0.0430 -0.0092
42248SOL    HW135712  11.763   7.679   7.666 -0.1996 -0.0947 -0.0000
42248SOL    HW235713  11.629   7.746   7.653 -0.0028  0.3082  0.0265
42249SOL     OW35714  11.937  10.280   9.885  0.3379  0.2061 -0.0348
42249SOL    HW135715  12.032  10.286   9.898  0.3640  0.3023 -0.2595
42249SOL    HW235716  11.925  10.296   9.791  0.1559 -0.4676 -0.1322
42250SOL     OW35717  10.583   3.298   1.043  0.1410  0.0479 -0.0354
42250SOL    HW135718  10.639   3.307   0.966 -0.1003  0.1770 -0.1939
42250SOL    HW235719  10.560   3.387   1.068  1.5363  0.1278  1.1645
42251SOL     OW35720   9.483   7.471   8.977  0.0108 -0.2251 -0.2640
42251SOL    HW135721   9.465   7.384   8.942  2.1293 -0.7546 -0.1823
42251SOL    HW235722   9.569   7.494   8.941  0.2721  1.0804  1.0911
42252SOL     OW35723   2.393   9.180  10.693  0.2128  0.1211  0.4549
42252SOL    HW135724   2.480   9.170  10.732  0.0051  0.4348  1.0154
42252SOL    HW235725   2.395   9.265  10.651 -0.3090  0.8313  1.8001
42253SOL     OW35726   4.391   8.251   4.468  0.3526  0.1094 -0.0036
42253SOL    HW135727   4.320   8.281   4.411  0.9271  1.0498 -0.2460
42253SOL    HW235728   4.417   8.167   4.431 -1.7702 -1.1209  1.1048
42254SOL     OW35729   9.989   4.874   6.215  0.7154  0.6873 -0.2781
42254SOL    HW135730   9.938   4.895   6.137 -0.0011  3.4819  0.8271
42254SOL    HW235731  10.080   4.884   6.187  0.5847 -0.7664 -1.3328
42255SOL     OW35732   8.710   9.903   8.219 -0.8109  0.1656 -0.8466
42255SOL    HW135733   8.689   9.981   8.168 -1.2216  1.4413  1.1587
42255SOL    HW235734   8.709   9.933   8.310  0.1825 -1.9332 -0.0831
42256SOL     OW35735   2.639   2.335  10.140  0.2403  0.0819 -0.2920
42256SOL    HW135736   2.702   2.327  10.212 -0.8883  0.1950  0.7508
42256SOL    HW235737   2.672   2.408  10.088 -0.3377  1.8848  1.6899
42257SOL     OW35738  12.286  11.856   5.300  0.1639 -0.6210  0.3088
42257SOL    HW135739  12.202  11.813   5.285  0.3506 -1.1921  0.8296
42257SOL    HW235740  12.336  11.793   5.353  1.3913 -0.8366 -1.0462
42258SOL     OW35741   5.817   8.171   5.692  0.1009  0.3065  0.0031
42258SOL    HW135742   5.901   8.212   5.715  1.2069 -1.7963  0.0028
42258SOL    HW235743   5.752   8.241   5.703  1.8939  2.1711 -0.5356
42259SOL     OW35744   2.458   3.410   8.193  0.1461  0.0951  0.5469
42259SOL    HW135745   2.489   3.392   8.105 -0.2033 -1.2808  0.6787
42259SOL    HW235746   2.459   3.505   8.201  0.4722  0.2148 -0.8264
42260SOL     OW35747  11.363   9.591   0.443 -0.4153 -0.0588 -0.5827
42260SOL    HW135748  11.304   9.560   0.511  0.8916 -3.9351 -0.9632
42260SOL    HW235749  11.388   9.680   0.470 -3.6960  0.4481  1.2777
42261SOL     OW35750   0.809   2.619   4.807  0.0405  0.4714 -0.2450
42261SOL    HW135751   0.897   2.588   4.784 -0.3499 -0.5994 -0.3797
42261SOL    HW235752   0.774   2.656   4.726 -0.7685 -1.9274 -1.0929
42262SOL     OW35753   9.373   9.062  12.008 -0.4485  0.0890 -0.7259
42262SOL    HW135754   9.409   8.982  12.047  0.9897  0.3114 -1.5064
42262SOL    HW235755   9.415   9.067  11.922  0.0575  2.0560 -0.4069
42263SOL     OW35756   0.116   4.442   0.415  0.0919 -0.7881 -0.4262
42263SOL    HW135757   0.174   4.459   0.341  0.3881 -0.1538 -0.0596
42263SOL    HW235758   0.031   4.478   0.388  0.7127  1.4331  0.3420
42264SOL     OW35759   4.165  10.320   4.941 -0.3375  0.2327  0.0005
42264SOL    HW135760   4.187  10.251   5.004  2.3266 -0.3243 -1.3869
42264SOL    HW235761   4.198  10.400   4.982  0.8937 -0.0527 -0.3754
42265SOL     OW35762   9.022   6.067   9.538  0.0290  0.0315  0.4967
42265SOL    HW135763   9.103   6.043   9.494  0.4175 -0.6979  1.5526
42265SOL    HW235764   9.040   6.052   9.631 -0.7424  1.5263  0.9290
42266SOL     OW35765   8.525   3.202   1.239 -0.5613 -0.7385 -0.2476
42266SOL    HW135766   8.513   3.219   1.146 -2.0353 -1.8365 -0.2959
42266SOL    HW235767   8.457   3.137   1.261 -0.6026 -0.1112  1.6969
42267SOL     OW35768   4.868   9.077  10.642  0.0185  0.3852 -0.0507
42267SOL    HW135769   4.911   9.113  10.719 -0.7721 -0.2968  0.7324
42267SOL    HW235770   4.776   9.072  10.666 -0.2365  0.1629 -1.0391
42268SOL     OW35771   8.788   0.025   1.469 -0.1053 -0.0976  0.7129
42268SOL    HW135772   8.828  -0.027   1.540 -0.2016 -0.5088  0.4719
42268SOL    HW235773   8.769   0.109   1.509  0.2502 -0.1776  1.0570
42269SOL     OW35774   7.945   0.154   4.359  0.0974  0.2049 -0.5501
42269SOL    HW135775   7.997   0.084   4.397 -0.1254  1.1117  1.5763
42269SOL    HW235776   7.922   0.123   4.271  1.1768 -1.7364 -0.1861
42270SOL     OW35777   6.809   6.144  12.028  0.0419 -0.7708  0.3906
42270SOL    HW135778   6.724   6.162  11.988  0.1463 -0.9307  0.0898
42270SOL    HW235779   6.788   6.113  12.116 -0.1066  2.3398  1.5663
42271SOL     OW35780   2.548  10.170   0.192 -0.0363 -0.1569 -0.6148
42271SOL    HW135781   2.610  10.241   0.175 -1.2625  1.0248 -0.2926
42271SOL    HW235782   2.480  10.180   0.125 -0.9535 -0.1380  0.2920
42272SOL     OW35783  11.707   9.667   6.055  0.1680 -0.3137 -0.0064
42272SOL    HW135784  11.612   9.677   6.047 -0.1039 -3.5310 -2.5860
42272SOL    HW235785  11.743   9.741   6.005 -1.1052 -0.8371 -1.8010
42273SOL     OW35786  10.807  11.356   3.428 -0.4003 -0.6235  0.0142
42273SOL    HW135787  10.793  11.445   3.461 -0.1624 -1.0615  1.3225
42273SOL    HW235788  10.860  11.313   3.495  0.0948 -1.5434 -0.9400
42274SOL     OW35789   4.533   3.381   9.314 -0.2963  0.0230 -0.2360
42274SOL    HW135790   4.454   3.427   9.284 -0.2999 -0.5910 -1.2506
42274SOL    HW235791   4.545   3.311   9.249  0.3419 -0.6991  0.6336
42275SOL     OW35792   6.270  11.898   1.418  0.8186 -0.5217 -0.5122
42275SOL    HW135793   6.364  11.896   1.438  1.0729  1.0320 -1.3631
42275SOL    HW235794   6.263  11.960   1.345 -0.9270 -0.2003 -0.1031
42276SOL     OW35795   3.547   3.602  12.123  0.4210 -0.0170 -0.0564
42276SOL    HW135796   3.493   3.536  12.168  0.5543 -0.3007 -0.3038
42276SOL    HW235797   3.497   3.683  12.131 -0.6840 -0.5223 -1.3852
42277SOL     OW35798   9.094   2.422   0.238 -0.0928  0.1665 -0.2835
42277SOL    HW135799   9.133   2.508   0.227 -0.9602  0.7159  0.7395
42277SOL    HW235800   9.124   2.372   0.162  1.5250  0.9437 -0.2030
42278SOL     OW35801  10.102   1.226   3.574  0.3406  0.1259  0.0192
42278SOL    HW135802  10.133   1.199   3.488 -0.2425  1.1072 -0.5116
42278SOL    HW235803  10.073   1.317   3.562  0.2782  0.2889  1.2534
42279SOL     OW35804   3.578   0.837   2.217 -0.1417 -0.4405  0.2199
42279SOL    HW135805   3.627   0.908   2.174 -0.7230 -0.4500 -0.4622
42279SOL    HW235806   3.622   0.827   2.302  1.2693 -0.7002 -0.5147
42280SOL     OW35807   2.292   5.665   5.307  0.0494  0.0076 -0.2082
42280SOL    HW135808   2.265   5.610   5.380  0.6257 -0.5938 -0.4433
42280SOL    HW235809   2.318   5.748   5.347 -0.7013  0.0755  0.1578
42281SOL     OW35810   9.109   0.994   1.592 -0.3579  0.0494  0.1458
42281SOL    HW135811   9.188   0.965   1.639 -0.2858 -0.5922 -0.3545
42281SOL    HW235812   9.135   1.076   1.551 -0.0358 -0.0126  0.2185
42282SOL     OW35813   1.301  12.461   9.669  0.0986 -0.4000 -0.4393
42282SOL    HW135814   1.217  12.457   9.714  1.1218  0.6465  1.7576
42282SOL    HW235815   1.312  12.374   9.631 -2.0957 -0.4495 -1.0880
42283SOL     OW35816   9.282  11.237   7.107  0.2333 -0.2627 -0.2939
42283SOL    HW135817   9.248  11.315   7.064  0.9774 -0.0837 -0.5676
42283SOL    HW235818   9.219  11.168   7.086  0.0560  0.0543 -0.8069
42284SOL     OW35819   9.481  12.073   0.525 -0.3643 -0.3535 -0.6480
42284SOL    HW135820   9.453  11.981   0.526 -0.9466 -0.1745 -0.6420
42284SOL    HW235821   9.536  12.082   0.602  1.4482 -1.2413 -1.7604
42285SOL     OW35822   1.248   5.221  12.503  0.1060 -0.1150 -0.5062
42285SOL    HW135823   1.325   5.213  12.558  1.0596  0.0597 -1.7719
42285SOL    HW235824   1.249   5.144  12.447 -1.8283 -1.2092  0.8520
42286SOL     OW35825   0.676  11.900   5.944 -0.7508  0.4131 -0.5298
42286SOL    HW135826   0.677  11.956   6.021 -1.4887 -0.8772  0.4568
42286SOL    HW235827   0.593  11.920   5.900  0.7236  2.9248 -2.4213
42287SOL     OW35828   6.595   3.562   5.071 -0.0535  0.3096 -0.0288
42287SOL    HW135829   6.676   3.564   5.122  0.0086  0.3089 -0.1281
42287SOL    HW235830   6.622   3.585   4.982 -0.1248  0.0594 -0.1136
42288SOL     OW35831   2.311   1.265  11.519 -0.2554  0.2536  0.3547
42288SOL    HW135832   2.227   1.276  11.564 -1.4854 -2.7539 -0.9667
42288SOL    HW235833   2.312   1.336  11.454 -2.3663 -0.2940 -0.3736
42289SOL     OW35834   1.604   9.858   7.406 -0.1517 -0.1500 -0.0024
42289SOL    HW135835   1.573   9.822   7.323 -0.8104 -0.7027  0.4783
42289SOL    HW235836   1.585   9.952   7.399 -1.3530 -0.3823  0.0239
42290SOL     OW35837   9.633   3.895   2.817  0.1878  0.8232  0.2622
42290SOL    HW135838   9.643   3.985   2.785  3.8815  0.8090  0.9811
42290SOL    HW235839   9.591   3.849   2.744 -0.1472  2.7479 -0.8278
42291SOL     OW35840   7.516   4.682   7.489  0.0477  0.2384  0.2055
42291SOL    HW135841   7.523   4.730   7.407  0.1878  0.1251  0.1498
42291SOL    HW235842   7.603   4.687   7.528  0.2108 -0.4318 -0.0645
42292SOL     OW35843   5.495   0.279   4.894  0.1629  0.1638 -0.1092
42292SOL    HW135844   5.555   0.213   4.928  1.5776  0.4943 -1.8023
42292SOL    HW235845   5.478   0.252   4.803 -0.4167  1.3294 -0.3716
42293SOL     OW35846   4.874  11.657  11.398  0.1472  0.6272 -0.2381
42293SOL    HW135847   4.814  11.609  11.455  2.2826 -0.2842  1.3726
42293SOL    HW235848   4.912  11.724  11.454 -0.4516  2.2456 -1.6565
42294SOL     OW35849  12.108   7.418   9.041 -0.2339 -0.0946 -0.0071
42294SOL    HW135850  12.160   7.473   8.983 -0.1549 -1.6493 -1.4685
42294SOL    HW235851  12.163   7.406   9.118  1.1726 -0.8421 -1.0745
42295SOL     OW35852   6.751   8.485   6.769 -0.0274  0.1451 -0.7599
42295SOL    HW135853   6.754   8.528   6.683 -0.0466 -0.9024 -1.3047
42295SOL    HW235854   6.662   8.500   6.800 -0.0114  0.5578 -0.9120
42296SOL     OW35855   8.537  11.804   3.584 -0.2065 -0.2316  0.1734
42296SOL    HW135856   8.490  11.733   3.539  0.7060  0.0875 -1.3204
42296SOL    HW235857   8.619  11.814   3.536  0.2946  0.9282  1.2065
42297SOL     OW35858   4.519  11.048   1.316  0.0191 -0.1313 -0.3196
42297SOL    HW135859   4.614  11.045   1.325  0.0366  0.2070 -0.3794
42297SOL    HW235860   4.486  11.032   1.404  0.1200 -0.7285 -0.3819
42298SOL     OW35861  11.769   7.459   4.617  0.3191 -0.2115 -0.1998
42298SOL    HW135862  11.827   7.508   4.675 -0.5713  0.7520 -0.0896
42298SOL    HW235863  11.703   7.421   4.675  0.3477 -0.5959 -0.4144
42299SOL     OW35864  12.026   4.849   1.849  0.1445 -0.3383  0.5661
42299SOL    HW135865  12.010   4.802   1.767  0.5088  0.0770  0.2507
42299SOL    HW235866  12.062   4.783   1.908  0.5725 -0.4784  0.1521
42300SOL     OW35867   1.545   5.062   4.454  0.4089  0.0610  0.3820
42300SOL    HW135868   1.519   5.150   4.428 -1.4427 -0.4268  0.3975
42300SOL    HW235869   1.468   5.027   4.500 -0.4772 -2.9087 -2.9023
42301SOL     OW35870   5.362  10.909   4.047 -0.6306 -0.0109 -0.1913
42301SOL    HW135871   5.435  10.965   4.072 -0.5860 -0.7045  1.3273
42301SOL    HW235872   5.394  10.820   4.062 -1.2675 -0.3844 -0.9749
42302SOL     OW35873   1.530   9.627   4.216  0.4638  0.0983 -0.0650
42302SOL    HW135874   1.607   9.608   4.161  0.4982 -0.8424  0.2872
42302SOL    HW235875   1.559   9.697   4.275  1.1816 -0.4994  0.3081
42303SOL     OW35876   6.319   4.272   7.553  0.6855  0.7433  0.1355
42303SOL    HW135877   6.258   4.321   7.608  0.9442  0.6703  0.4957
42303SOL    HW235878   6.346   4.333   7.485 -0.7422  0.4013 -0.7724
42304SOL     OW35879   6.909   2.483  11.948 -0.1206 -0.2270 -0.0735
42304SOL    HW135880   6.987   2.536  11.964 -0.4092  0.0043  0.6002
42304SOL    HW235881   6.943   2.398  11.921  0.3454  0.3367 -1.3611
42305SOL     OW35882   8.705   7.829  12.200 -0.2226 -0.3245 -0.1111
42305SOL    HW135883   8.612   7.843  12.218 -0.3995 -0.5429 -0.8427
42305SOL    HW235884   8.724   7.742  12.234 -0.0346  0.1216  0.9654
42306SOL     OW35885   5.148   5.088   8.369 -0.2442  0.0126  0.2023
42306SOL    HW135886   5.182   5.159   8.315 -0.4810 -0.0001  0.0366
42306SOL    HW235887   5.061   5.117   8.396 -0.1823 -0.0412  0.4632
42307SOL     OW35888   8.884  12.349   0.509 -0.1221 -0.4622  0.8874
42307SOL    HW135889   8.978  12.338   0.500  0.3089  1.1874  2.7585
42307SOL    HW235890   8.848  12.261   0.496  1.4175 -0.7615 -1.9984
42308SOL     OW35891   8.879   2.563   5.184  0.0135  0.0603 -0.1291
42308SOL    HW135892   8.952   2.593   5.238  1.3590  1.1827 -2.3869
42308SOL    HW235893   8.918   2.496   5.127 -1.0316 -0.2033 -0.5650
42309SOL     OW35894  11.621   6.110   7.081  0.1463  0.2701  0.3858
42309SOL    HW135895  11.652   6.172   7.015 -1.3907 -0.7471 -1.3804
42309SOL    HW235896  11.671   6.132   7.160  0.8732  2.6048 -0.6351
42310SOL     OW35897   4.674   4.124   4.224 -0.2059 -0.4182  0.2347
42310SOL    HW135898   4.764   4.111   4.254 -0.0892  1.3510  0.7869
42310SOL    HW235899   4.682   4.174   4.143 -0.6457 -2.3895 -1.0882
42311SOL     OW35900   6.482   7.925   9.952 -0.2986  0.4370  0.2246
42311SOL    HW135901   6.392   7.919   9.921 -1.3991 -0.2524  3.1919
42311SOL    HW235902   6.491   8.015   9.984 -0.5840  0.0171  1.5584
42312SOL     OW35903   3.802   4.450   2.624 -0.0547  0.0998  0.1701
42312SOL    HW135904   3.880   4.405   2.593 -0.1649  1.0964 -1.6696
42312SOL    HW235905   3.834   4.513   2.689  0.7615  0.8177 -0.8961
42313SOL     OW35906   4.767   4.973  10.301 -0.2076  0.3059 -0.3110
42313SOL    HW135907   4.764   4.986  10.396 -0.5987 -0.5976 -0.1837
42313SOL    HW235908   4.799   5.056  10.266  2.1929 -0.0865  0.7856
42314SOL     OW35909   0.211   6.537  10.346  0.1879 -0.0006  0.4290
42314SOL    HW135910   0.144   6.550  10.413  0.7833 -1.5993  1.3822
42314SOL    HW235911   0.184   6.594  10.274 -0.7201  1.4217  1.8302
42315SOL     OW35912   4.778   6.062  10.272 -0.0918  0.0834  0.1696
42315SOL    HW135913   4.703   6.008  10.297 -0.5557  1.5102  2.0777
42315SOL    HW235914   4.792   6.042  10.179 -2.9300 -0.1084 -0.3106
42316SOL     OW35915   1.471  10.933   9.949 -0.0442 -0.1212  0.1137
42316SOL    HW135916   1.545  10.993   9.947 -0.1992  0.0493 -1.8010
42316SOL    HW235917   1.511  10.847   9.960  0.4989 -0.0778 -1.3367
42317SOL     OW35918   9.524   9.775   6.412  0.1729  0.1342  0.4946
42317SOL    HW135919   9.582   9.851   6.410 -2.0465  1.9316  0.3786
42317SOL    HW235920   9.444   9.808   6.452 -0.2982 -2.6236  2.0335
42318SOL     OW35921  10.817   3.705   6.292  0.3689 -0.1607 -0.5909
42318SOL    HW135922  10.883   3.681   6.357 -0.8437  0.1200  0.7781
42318SOL    HW235923  10.736   3.667   6.324 -0.7080  1.9029 -0.7051
42319SOL     OW35924  11.049   8.858  12.074 -0.2487 -0.0968  0.6793
42319SOL    HW135925  10.968   8.896  12.107 -0.6685 -0.0911 -0.3316
42319SOL    HW235926  11.027   8.823  11.988  1.0822  0.9601 -0.1448
42320SOL     OW35927   1.285  11.515   0.775 -0.3310 -0.4765  0.1379
42320SOL    HW135928   1.275  11.523   0.680 -1.5559 -0.0476  0.2828
42320SOL    HW235929   1.212  11.458   0.801  0.4894 -1.2741  0.7296
42321SOL     OW35930  10.376   9.586  10.685 -0.5747  0.1228  0.1036
42321SOL    HW135931  10.464   9.562  10.715 -1.4601 -0.5355  2.4403
42321SOL    HW235932  10.390   9.630  10.602  1.6623 -3.4067 -1.6406
42322SOL     OW35933   6.340  10.992  11.740 -0.0916 -0.4853 -0.5132
42322SOL    HW135934   6.316  10.934  11.812  0.2807 -1.6266 -1.2931
42322SOL    HW235935   6.306  10.949  11.662  0.0935  0.4031 -1.0955
42323SOL     OW35936  11.156   0.495   9.020 -0.8709  0.2237 -0.7806
42323SOL    HW135937  11.116   0.465   8.938 -0.9370 -0.9516 -0.3418
42323SOL    HW235938  11.222   0.429   9.039 -0.7347  0.5856  0.0231
42324SOL     OW35939   1.850   0.605  11.036  0.0885  0.2792  0.4969
42324SOL    HW135940   1.773   0.655  11.008 -1.4311 -0.8251  2.3855
42324SOL    HW235941   1.864   0.542  10.966 -2.1714 -0.9139  1.0002
42325SOL     OW35942   6.413   4.137   2.012  0.1378  0.6299 -0.3566
42325SOL    HW135943   6.489   4.184   2.046 -0.1741 -0.3184  1.8094
42325SOL    HW235944   6.403   4.168   1.922  3.3116  0.4839 -0.8407
42326SOL     OW35945   0.939   7.023   2.776 -0.1325 -0.5633  0.3134
42326SOL    HW135946   0.935   6.928   2.775  0.3903 -0.6516 -2.3958
42326SOL    HW235947   0.930   7.047   2.868 -0.7023 -3.1852  1.0230
42327SOL     OW35948   9.582   8.375   1.292  0.6522  0.6330  0.8706
42327SOL    HW135949   9.566   8.350   1.201  0.7781 -0.0284  1.0280
42327SOL    HW235950   9.500   8.413   1.321  0.7545  1.3000  0.3406
42328SOL     OW35951  12.220   2.183  11.166 -0.5186 -0.5775 -0.6836
42328SOL    HW135952  12.212   2.240  11.242  0.6460 -1.1832 -0.0849
42328SOL    HW235953  12.144   2.125  11.172 -1.0623  0.1199 -0.6493
42329SOL     OW35954   1.016   6.587   3.620 -1.1427 -0.3593 -0.4057
42329SOL    HW135955   1.058   6.562   3.538  0.5748 -0.1151  0.3561
42329SOL    HW235956   0.964   6.511   3.644  3.1718 -3.1519  1.3700
42330SOL     OW35957  11.317   5.757   4.040 -0.4009  0.0828  0.2983
42330SOL    HW135958  11.326   5.832   3.981 -0.0633 -0.1858  0.0073
42330SOL    HW235959  11.229   5.724   4.023 -0.9596  1.0361  1.1708
42331SOL     OW35960   8.802   2.241   7.421 -0.3866  0.1905  0.4959
42331SOL    HW135961   8.730   2.179   7.416 -0.7613  0.7383 -1.9988
42331SOL    HW235962   8.815   2.255   7.515 -0.8299 -2.9697  1.1489
42332SOL     OW35963   8.012  11.998  10.934  0.1160  0.0217 -0.7992
42332SOL    HW135964   7.922  12.022  10.957  1.0717  0.8710  2.6360
42332SOL    HW235965   8.055  12.081  10.917  1.3192  0.1560  2.3720
42333SOL     OW35966  11.812   9.684   5.100 -0.4070  0.4345  0.1716
42333SOL    HW135967  11.784   9.672   5.009 -1.5626  0.5867  0.4922
42333SOL    HW235968  11.874   9.613   5.115  0.2656  0.7669 -0.9119
42334SOL     OW35969   6.018   3.877   0.157 -0.0889 -0.1804  0.8317
42334SOL    HW135970   5.993   3.790   0.190  1.0626 -1.2197 -0.8430
42334SOL    HW235971   5.936   3.916   0.128 -0.7178 -0.4138  2.2366
42335SOL     OW35972   6.630   8.379  12.147 -0.3451  0.4368 -0.3833
42335SOL    HW135973   6.622   8.328  12.066 -0.8242  0.3262 -0.2651
42335SOL    HW235974   6.557   8.350  12.201 -0.9952  1.6919 -0.5539
42336SOL     OW35975   0.639   1.682   2.863  0.0562 -0.1315  0.1766
42336SOL    HW135976   0.592   1.764   2.849  0.8033  0.6664  2.1230
42336SOL    HW235977   0.575   1.614   2.839 -0.9711  0.9724 -0.3211
42337SOL     OW35978  12.567  11.448  10.156 -0.0238 -0.1554 -0.1008
42337SOL    HW135979  12.576  11.470  10.248  0.9253 -1.7356  0.2102
42337SOL    HW235980  12.473  11.434  10.143 -0.5105  2.4459  0.0009
42338SOL     OW35981   1.181  11.256   3.076 -0.0087  0.3563  0.0934
42338SOL    HW135982   1.094  11.259   3.038 -0.6162 -2.0938  1.0583
42338SOL    HW235983   1.176  11.185   3.141  2.2151  1.3144  1.4364
42339SOL     OW35984   2.843   8.338  10.812 -0.2387 -0.2947 -0.0304
42339SOL    HW135985   2.812   8.344  10.902 -0.6498 -1.8888 -0.0387
42339SOL    HW235986   2.769   8.303  10.762 -0.5258  1.9453 -1.3134
42340SOL     OW35987   9.296   4.391   7.534 -0.0851 -0.2030 -0.0582
42340SOL    HW135988   9.382   4.363   7.567  2.0491  0.2025 -4.5580
42340SOL    HW235989   9.250   4.309   7.517  0.4592 -0.5364  0.0347
42341SOL     OW35990   3.587   8.496   5.146 -0.0258  0.1350 -0.5226
42341SOL    HW135991   3.640   8.526   5.072  1.5933 -0.0562  0.5195
42341SOL    HW235992   3.525   8.566   5.161  0.6237  0.8522 -1.1206
42342SOL     OW35993   7.309  10.998   8.899 -0.1329 -0.6419 -0.9865
42342SOL    HW135994   7.357  10.923   8.934 -1.6848 -1.0046  0.5078
42342SOL    HW235995   7.276  10.968   8.815 -0.6177 -1.6040 -0.4641
42343SOL     OW35996   7.213   8.482  10.839 -0.1354 -0.3628 -0.5520
42343SOL    HW135997   7.125   8.446  10.834 -0.1723 -0.1366 -2.0550
42343SOL    HW235998   7.256   8.452  10.759  1.1765 -0.5183  0.1822
42344SOL     OW35999   8.163   1.255   4.855 -0.0147 -0.1787  0.0366
42344SOL    HW136000   8.081   1.221   4.820 -0.1219 -0.0708  0.1851
42344SOL    HW236001   8.163   1.229   4.947  1.2818 -2.4002 -0.5227
42345SOL     OW36002   7.449   2.701   7.446 -0.1756 -0.1169  0.2844
42345SOL    HW136003   7.410   2.779   7.406 -0.4277 -0.5453 -0.3004
42345SOL    HW236004   7.529   2.734   7.488  0.8914  0.1027 -1.8116
42346SOL     OW36005  11.714  10.588   0.867 -0.0119 -0.1915 -0.0474
42346SOL    HW136006  11.690  10.556   0.955 -1.2246  0.2422 -0.2011
42346SOL    HW236007  11.697  10.514   0.809  1.8838 -0.8703  0.1931
42347SOL     OW36008   2.231   1.875  11.686 -0.0123  0.5781 -0.3563
42347SOL    HW136009   2.223   1.857  11.592 -0.0691  1.7157 -0.5820
42347SOL    HW236010   2.250   1.969  11.691 -0.4523  0.6189  0.7851
42348SOL     OW36011  10.344   4.865   5.534  0.2541  0.2088 -0.3750
42348SOL    HW136012  10.402   4.841   5.606 -0.5518  0.1721  0.2832
42348SOL    HW236013  10.360   4.799   5.467 -0.1217 -0.6942  0.4097
42349SOL     OW36014   8.139   8.070   2.559 -0.1028  0.5833  0.2787
42349SOL    HW136015   8.074   8.134   2.530 -0.7819  0.2390  1.0064
42349SOL    HW236016   8.095   8.020   2.628  0.7763  0.0325  0.4616
42350SOL     OW36017   7.313   4.440   1.210 -0.2365  0.0150  1.3659
42350SOL    HW136018   7.364   4.409   1.135 -0.0376 -0.0963  1.5443
42350SOL    HW236019   7.222   4.427   1.184 -0.1670 -0.1084  1.1813
42351SOL     OW36020   4.264   0.903   9.367  0.0426  0.3194  0.2268
42351SOL    HW136021   4.174   0.922   9.394 -0.3898  0.8237 -1.4742
42351SOL    HW236022   4.295   0.985   9.329  1.5701  0.4318  1.5771
42352SOL     OW36023  12.451   7.438   8.109 -0.4460  0.0630  0.1923
42352SOL    HW136024  12.361   7.412   8.091 -0.9361  0.8719  1.3240
42352SOL    HW236025  12.466   7.413   8.200  0.6816 -0.5928 -0.1561
42353SOL     OW36026   0.751   1.585   3.085  0.2230 -0.4029 -0.0650
42353SOL    HW136027   0.719   1.625   3.004 -0.0710  0.0597  0.2774
42353SOL    HW236028   0.675   1.584   3.143  0.5209 -0.4137  0.3288
42354SOL     OW36029   4.258  12.379   1.032 -0.1071  0.1849 -0.0726
42354SOL    HW136030   4.284  12.471   1.029  4.0896 -0.7983 -0.0791
42354SOL    HW236031   4.269  12.355   1.124  0.5141 -0.6603 -0.3531
42355SOL     OW36032  10.628  12.046  11.991  0.2756 -0.2471 -0.0650
42355SOL    HW136033  10.573  12.124  11.985 -0.8129 -0.8970  1.0964
42355SOL    HW236034  10.591  11.985  11.927 -1.7062 -1.4234  2.0230
42356SOL     OW36035   3.266  12.057   4.942 -0.0651 -0.1493 -0.2208
42356SOL    HW136036   3.325  12.063   5.017  0.4393 -2.0551 -0.4097
42356SOL    HW236037   3.181  12.083   4.976 -0.1063 -2.0989  1.3906
42357SOL     OW36038   9.547   4.755   2.382 -0.4415  0.3497 -0.0551
42357SOL    HW136039   9.512   4.832   2.336  0.9722  1.9189  1.3369
42357SOL    HW236040   9.565   4.787   2.471  2.5846 -0.8600 -0.1295
42358SOL     OW36041   8.480   4.587   1.540 -0.3297  0.2684 -0.0170
42358SOL    HW136042   8.533   4.535   1.480 -0.0004 -0.8267  1.1671
42358SOL    HW236043   8.441   4.523   1.600  0.5545  1.4028  1.8666
42359SOL     OW36044  11.958   3.465   1.619 -0.5862 -0.0305 -0.8179
42359SOL    HW136045  12.038   3.517   1.621 -1.1684  0.8763 -0.6888
42359SOL    HW236046  11.897   3.512   1.677 -0.8172 -1.3691  0.0635
42360SOL     OW36047   4.509  12.033   8.274  0.3268 -0.0998  0.2327
42360SOL    HW136048   4.539  12.106   8.328 -0.0412  0.3959 -0.2181
42360SOL    HW236049   4.423  12.061   8.242 -0.9939 -1.7519  2.0759
42361SOL     OW36050   6.286   8.853   5.107 -0.2605 -0.3313  1.0115
42361SOL    HW136051   6.301   8.792   5.179 -1.3266 -1.0316  0.6659
42361SOL    HW236052   6.260   8.935   5.150  0.4985 -0.3084  1.4505
42362SOL     OW36053   1.696   4.429   6.749  0.3639  0.1955  0.2564
42362SOL    HW136054   1.637   4.460   6.679 -1.0910  1.9682  2.1328
42362SOL    HW236055   1.637   4.409   6.822  1.7808 -2.2499  0.8378
42363SOL     OW36056   2.368  11.933  11.487 -0.4690  0.1242  0.3298
42363SOL    HW136057   2.289  11.900  11.530 -0.2647  1.4805  1.8315
42363SOL    HW236058   2.426  11.958  11.559  0.0282  2.1766 -0.7226
42364SOL     OW36059   3.790   0.510   6.134  0.2537  0.1223  0.1501
42364SOL    HW136060   3.699   0.484   6.152 -0.4373  1.3239 -1.3547
42364SOL    HW236061   3.843   0.436   6.165 -1.2459 -0.6923  0.8766
42365SOL     OW36062  11.917   5.747  11.016 -0.5296 -0.0763 -0.0399
42365SOL    HW136063  11.880   5.828  11.051  1.0156  0.3518  0.7094
42365SOL    HW236064  11.849   5.682  11.029 -1.1049  0.7168  1.1127
42366SOL     OW36065   9.214   3.900  10.972 -0.3878 -0.1698  0.3905
42366SOL    HW136066   9.279   3.880  11.040  0.8059 -0.1904 -0.7138
42366SOL    HW236067   9.202   3.818  10.925  0.9746  0.4796 -1.1944
42367SOL     OW36068   3.082   7.009  10.260 -0.2197 -0.1619 -0.4492
42367SOL    HW136069   3.136   7.047  10.329  0.4696  0.0779 -1.1035
42367SOL    HW236070   3.120   6.922  10.244 -0.2239 -0.1182 -0.7003
42368SOL     OW36071   0.023  10.310   8.560  0.1180  0.0228  0.5096
42368SOL    HW136072   0.104  10.331   8.513  0.4233 -0.9830  0.5812
42368SOL    HW236073  -0.037  10.278   8.493 -0.4534  1.3238  0.3540
42369SOL     OW36074   3.161  11.578   8.557  0.1458 -0.4427 -0.1882
42369SOL    HW136075   3.189  11.492   8.526  0.0600 -0.1559 -1.0885
42369SOL    HW236076   3.210  11.640   8.503  0.5913  0.0896  0.7968
42370SOL     OW36077   8.718   0.647  10.763 -0.7705  0.1790 -0.0649
42370SOL    HW136078   8.640   0.702  10.753 -1.2291 -0.4233  0.1639
42370SOL    HW236079   8.754   0.640  10.674 -1.1371  0.2174 -0.2164
42371SOL     OW36080   5.846   9.392  11.556 -0.7368 -0.3240 -0.2543
42371SOL    HW136081   5.875   9.434  11.475  1.9838 -0.0820  0.7507
42371SOL    HW236082   5.913   9.326  11.575 -2.9148 -2.5822  0.2334
42372SOL     OW36083   6.759  11.950   4.939 -0.1111 -0.6135  0.4465
42372SOL    HW136084   6.679  11.908   4.971 -0.0210 -2.3507 -1.4079
42372SOL    HW236085   6.826  11.926   5.004 -0.9597  0.4852  1.7729
42373SOL     OW36086   4.596   1.938   5.484  0.5914  0.5174  0.3376
42373SOL    HW136087   4.566   1.924   5.574  0.5181  1.3522  0.4439
42373SOL    HW236088   4.690   1.918   5.487  0.9559  2.1858  0.9908
42374SOL     OW36089   8.097  12.088   7.342  0.8021 -0.2405 -0.1347
42374SOL    HW136090   8.191  12.084   7.324  0.7917 -1.6143  0.0434
42374SOL    HW236091   8.058  12.119   7.260  1.3770  0.0628 -0.3008
42375SOL     OW36092   8.430   7.882   2.501 -0.1772  0.0743 -0.3718
42375SOL    HW136093   8.339   7.902   2.481 -0.6420  0.1141  1.5892
42375SOL    HW236094   8.478   7.962   2.480 -0.8333  0.5837  0.0335
42376SOL     OW36095   5.821  10.458   6.485 -0.2454 -0.5172 -0.3617
42376SOL    HW136096   5.800  10.530   6.545 -0.7494 -0.1428 -0.9741
42376SOL    HW236097   5.775  10.383   6.522 -1.4145 -0.0567 -0.8213
42377SOL     OW36098   6.554   2.673   0.847  0.8641 -0.6796  0.0382
42377SOL    HW136099   6.552   2.729   0.925 -0.6346  0.0688 -0.5079
42377SOL    HW236100   6.645   2.642   0.842  1.8857  2.0267  0.1389
42378SOL     OW36101   8.584   8.435  12.504 -0.1826  0.3284 -0.0768
42378SOL    HW136102   8.587   8.502  12.436  0.1200 -1.1941 -1.6291
42378SOL    HW236103   8.530   8.474  12.573  0.2647  2.2832 -0.7603
42379SOL     OW36104  10.152   3.388  10.854  0.1999 -0.4471  0.0910
42379SOL    HW136105  10.167   3.393  10.949 -1.7005  0.3732  0.3951
42379SOL    HW236106  10.139   3.295  10.837 -2.2659 -0.3826  1.1854
42380SOL     OW36107  10.731  10.011   8.749  0.0847  0.1897  0.2380
42380SOL    HW136108  10.768  10.033   8.664 -1.3427  1.9718  0.0086
42380SOL    HW236109  10.641   9.986   8.730  0.3828 -1.6257  1.0230
42381SOL     OW36110  12.262   7.194  11.854 -0.6417 -0.1716  0.3062
42381SOL    HW136111  12.207   7.222  11.927 -0.1417  0.3487  0.4878
42381SOL    HW236112  12.300   7.275  11.819  1.0874 -0.6174  1.0456
42382SOL     OW36113   9.987   3.090  12.284  0.0627 -0.1796  0.1051
42382SOL    HW136114  10.062   3.073  12.342  1.3125 -0.5359 -1.5374
42382SOL    HW236115   9.963   3.181  12.303 -0.4360 -0.6683  2.0852
42383SOL     OW36116   3.109  10.407  10.791  0.0237  0.3287 -0.1189
42383SOL    HW136117   3.073  10.477  10.737 -3.4312 -0.4200  0.9613
42383SOL    HW236118   3.048  10.334  10.779  1.6473 -1.3787  1.3775
42384SOL     OW36119   3.573  11.971   1.910  0.4331  0.0467  0.1645
42384SOL    HW136120   3.655  11.988   1.865  0.1409  1.4105  0.1068
42384SOL    HW236121   3.565  12.041   1.974 -0.3513 -0.4673  0.6564
42385SOL     OW36122   8.832  11.778   7.390 -0.5159  0.1604 -0.0024
42385SOL    HW136123   8.908  11.788   7.447  0.7288  1.0994 -1.7477
42385SOL    HW236124   8.763  11.829   7.434  1.1619  3.1558 -0.5860
42386SOL     OW36125   0.173   6.527  12.004 -0.4364 -0.4044 -0.1117
42386SOL    HW136126   0.158   6.477  11.924  0.9212 -1.0285  0.0049
42386SOL    HW236127   0.090   6.573  12.020 -0.6528 -0.0642 -2.0126
42387SOL     OW36128   7.670   3.553   0.308 -0.3702 -0.0501  0.7107
42387SOL    HW136129   7.726   3.628   0.288 -0.5923 -0.2199 -0.5803
42387SOL    HW236130   7.662   3.555   0.404  0.0824  1.2320  0.7430
42388SOL     OW36131  10.934   5.066   3.542 -0.6151  0.0725  0.2091
42388SOL    HW136132  10.893   5.084   3.626 -0.8575  0.5053  0.0019
42388SOL    HW236133  10.870   5.095   3.477 -0.4745 -0.3534 -0.1262
42389SOL     OW36134   8.132   5.041   6.195  0.8578 -0.1251 -0.6054
42389SOL    HW136135   8.076   5.101   6.245 -0.3684 -1.2510 -0.5716
42389SOL    HW236136   8.135   5.078   6.107  0.4046  0.1716 -0.4965
42390SOL     OW36137   8.152   0.115   9.935  0.1079  0.2010 -0.4585
42390SOL    HW136138   8.231   0.062   9.941 -0.3492 -0.2809  2.5228
42390SOL    HW236139   8.160   0.178  10.007 -1.6482  0.9451 -0.8762
42391SOL     OW36140   9.219  10.404   2.423  0.1336 -0.2151 -0.8128
42391SOL    HW136141   9.270  10.480   2.396  1.4556 -0.8945 -0.3327
42391SOL    HW236142   9.194  10.361   2.341 -1.3012  1.1261 -1.1180
42392SOL     OW36143   5.342  12.227   1.228 -0.1177 -0.2707  0.0522
42392SOL    HW136144   5.272  12.281   1.265  1.5397  1.0711  1.4141
42392SOL    HW236145   5.313  12.208   1.139 -1.5349  1.5442  0.0629
42393SOL     OW36146   0.772   5.053  12.428 -0.4890 -0.3934  0.6435
42393SOL    HW136147   0.708   5.105  12.477 -0.8343  0.8908 -1.1119
42393SOL    HW236148   0.739   4.963  12.433 -1.5385  0.0111  1.1215
42394SOL     OW36149   5.261   3.517   6.316  0.0968 -0.0401 -0.0564
42394SOL    HW136150   5.228   3.450   6.376  0.4207  0.4434  0.6757
42394SOL    HW236151   5.356   3.504   6.314  0.1424  0.2711 -0.0557
42395SOL     OW36152   5.135   2.677   9.839 -0.1309 -0.2237 -0.3394
42395SOL    HW136153   5.128   2.677   9.743 -1.7947  0.0840 -0.2422
42395SOL    HW236154   5.221   2.716   9.856  0.3948 -0.7097 -1.7047
42396SOL     OW36155   2.397  11.076   4.471 -0.6233 -0.2934 -0.0526
42396SOL    HW136156   2.333  11.089   4.401 -0.3846 -2.4127 -0.7325
42396SOL    HW236157   2.439  11.162   4.481 -1.8003  0.4797 -1.3584
42397SOL     OW36158  10.597   1.838   8.715 -0.5516  0.0717  0.4287
42397SOL    HW136159  10.607   1.844   8.810 -2.3019  0.1488  0.6422
42397SOL    HW236160  10.586   1.744   8.697  2.5546 -0.2844 -0.0701
42398SOL     OW36161   0.452  10.969   1.408  0.1227 -0.2577 -0.1319
42398SOL    HW136162   0.528  10.913   1.422  0.9462  1.0332  0.8054
42398SOL    HW236163   0.482  11.057   1.431 -2.0214  0.0955  1.6453
42399SOL     OW36164   7.270   6.102   3.360  0.5077  0.2107  0.4745
42399SOL    HW136165   7.222   6.019   3.350  1.6776 -0.4885  0.4908
42399SOL    HW236166   7.303   6.121   3.272  0.7494  0.3377  0.5934
42400SOL     OW36167   5.182   7.142   7.626  0.6223 -0.1363  0.4683
42400SOL    HW136168   5.230   7.060   7.627  0.2912 -0.3605 -0.7484
42400SOL    HW236169   5.159   7.157   7.718  0.2294 -1.6801  0.6520
42401SOL     OW36170   1.331   4.941   0.705  0.3412 -0.4843  0.1127
42401SOL    HW136171   1.356   4.911   0.618  1.2598 -2.0159  0.8756
42401SOL    HW236172   1.235   4.949   0.701  0.3924 -0.2474 -1.0963
42402SOL     OW36173   0.251   3.807   4.468  0.0855  0.0182  0.2063
42402SOL    HW136174   0.263   3.806   4.373 -1.4850 -1.1160 -0.0220
42402SOL    HW236175   0.233   3.716   4.492  1.2229  0.1521  1.7206
42403SOL     OW36176   0.378   1.413   1.282 -0.2007  0.3336  0.6099
42403SOL    HW136177   0.406   1.391   1.194  0.1151  3.0193 -0.0408
42403SOL    HW236178   0.429   1.355   1.339 -1.2680 -2.2843 -0.9342
42404SOL     OW36179   0.280   4.727   4.148 -1.3237 -0.0187  0.2893
42404SOL    HW136180   0.222   4.702   4.076 -0.7346  0.7699 -0.4873
42404SOL    HW236181   0.272   4.655   4.211  0.3448 -2.2516 -1.8423
42405SOL     OW36182  10.190   9.944   4.834 -0.2054  0.6849 -0.1126
42405SOL    HW136183  10.221   9.993   4.910 -2.8695  1.1914  0.7534
42405SOL    HW236184  10.149  10.010   4.778  0.7931  0.1563 -1.5442
42406SOL     OW36185  10.335   3.021   5.479  0.4413 -0.3295 -0.1233
42406SOL    HW136186  10.374   3.072   5.551  0.0927 -0.4986  0.1843
42406SOL    HW236187  10.297   3.087   5.421  1.3626 -0.1435 -0.5396
42407SOL     OW36188  10.401  10.881   5.789  0.1393 -0.0086  0.2365
42407SOL    HW136189  10.328  10.942   5.799  0.4323  0.1962  1.1918
42407SOL    HW236190  10.468  10.931   5.743 -0.1681 -0.0733 -0.2875
42408SOL     OW36191   2.916   1.861   5.460  0.5014 -0.5039 -0.0787
42408SOL    HW136192   2.866   1.906   5.392  1.4386 -0.8479 -1.0173
42408SOL    HW236193   2.861   1.787   5.486 -1.1648  1.2143  1.6441
42409SOL     OW36194   2.669   9.065   4.050 -0.4667 -0.0238  0.1590
42409SOL    HW136195   2.657   9.138   4.112 -0.8687  1.4249 -1.5287
42409SOL    HW236196   2.754   9.082   4.010 -0.9214 -0.0166 -0.8160
42410SOL     OW36197   0.149   0.588   9.514  0.3173  0.1052  0.4343
42410SOL    HW136198   0.173   0.526   9.583  0.5766 -0.3185 -0.0287
42410SOL    HW236199   0.228   0.596   9.461  0.1262  0.4509  0.1996
42411SOL     OW36200   0.224   7.254   4.455 -0.6879 -0.2589 -0.3540
42411SOL    HW136201   0.289   7.293   4.397 -0.6981 -0.6999 -0.6596
42411SOL    HW236202   0.254   7.164   4.468  1.0439  0.6145  2.7776
42412SOL     OW36203   3.153  10.550   7.976 -0.2721 -0.5363 -0.0517
42412SOL    HW136204   3.138  10.614   7.907 -0.7088  0.6646  1.1287
42412SOL    HW236205   3.099  10.579   8.049 -1.6962 -3.1203  0.0329
42413SOL     OW36206   3.301   3.889  10.727  0.3107 -0.0278 -0.5008
42413SOL    HW136207   3.289   3.983  10.714  1.0876  0.2286  0.5055
42413SOL    HW236208   3.314   3.854  10.639  1.6060  1.0477 -0.7595
42414SOL     OW36209   3.551  10.198  10.932  0.3488 -0.2367 -0.3400
42414SOL    HW136210   3.583  10.263  10.870 -0.0356 -0.9113 -1.2728
42414SOL    HW236211   3.457  10.194  10.915 -0.2244  1.4026  2.0550
42415SOL     OW36212   5.149   8.863   4.688  0.4977  0.0639  0.3645
42415SOL    HW136213   5.064   8.823   4.675  0.4411  0.4312 -0.4768
42415SOL    HW236214   5.208   8.790   4.706  0.2951 -0.3575 -0.6192
42416SOL     OW36215   0.240   7.439  12.545  0.2321  0.1929 -0.2006
42416SOL    HW136216   0.194   7.390  12.476 -0.0262  0.1468  0.0042
42416SOL    HW236217   0.274   7.516  12.500  2.0402 -0.9455 -0.9143
42417SOL     OW36218   4.234  11.921   9.839 -0.0989 -0.5801  0.2495
42417SOL    HW136219   4.195  11.836   9.859  0.5737 -0.8594  0.4219
42417SOL    HW236220   4.320  11.900   9.801  0.1976  0.0237  0.5627
42418SOL     OW36221   0.228  12.312   7.906 -0.4536 -0.1186  0.1108
42418SOL    HW136222   0.218  12.392   7.957  0.3201 -0.2707  0.5073
42418SOL    HW236223   0.138  12.286   7.884 -0.7222  0.7051  0.2052
42419SOL     OW36224  10.264  12.364   8.853 -0.2514  0.0762  0.1736
42419SOL    HW136225  10.279  12.292   8.914 -1.2819 -0.9179 -0.6799
42419SOL    HW236226  10.351  12.398   8.832  0.0841  1.1587  2.9591
42420SOL     OW36227  12.171   9.100   2.858 -0.3904 -0.0003 -0.1197
42420SOL    HW136228  12.241   9.090   2.794  0.0238  1.0828  0.1498
42420SOL    HW236229  12.178   9.190   2.888 -0.9951 -0.2972  0.9684
42421SOL     OW36230   2.088   0.847   0.001 -0.0346  0.3654 -0.0156
42421SOL    HW136231   2.123   0.917   0.056 -0.5338  1.8660 -1.5451
42421SOL    HW236232   2.162   0.789  -0.014 -0.3151 -1.3291  3.9106
42422SOL     OW36233   1.142  11.262   3.774  0.3868 -0.1385 -0.3252
42422SOL    HW136234   1.183  11.267   3.860 -0.1570  1.9533 -0.1453
42422SOL    HW236235   1.061  11.213   3.789  1.0369 -1.1424  0.0176
42423SOL     OW36236  11.598   8.601   8.863 -0.5308  0.0458 -0.2786
42423SOL    HW136237  11.639   8.676   8.820  2.7151 -0.5440  1.4593
42423SOL    HW236238  11.666   8.533   8.861 -2.7339 -2.2881 -0.2703
42424SOL     OW36239  10.128   3.663   7.439 -0.0259  1.0578  0.0225
42424SOL    HW136240  10.203   3.605   7.445  0.5840  1.8811  0.5839
42424SOL    HW236241  10.140   3.710   7.356  0.1835  1.3306  0.2073
42425SOL     OW36242   9.154   3.830   7.979 -0.0597  0.0707 -0.0841
42425SOL    HW136243   9.120   3.897   8.037  1.1284 -0.2437  1.0244
42425SOL    HW236244   9.134   3.861   7.891 -1.1361  0.9705  0.4636
42426SOL     OW36245  11.570   8.894   1.785  0.2657 -0.2906  0.9753
42426SOL    HW136246  11.475   8.887   1.797 -0.0159  0.2191 -0.6004
42426SOL    HW236247  11.599   8.804   1.769  0.3581 -0.6949  3.2000
42427SOL     OW36248   7.852   8.308  10.297 -0.6742  0.0848 -0.2977
42427SOL    HW136249   7.932   8.360  10.295  0.1162 -1.1297 -1.4141
42427SOL    HW236250   7.876   8.224  10.258 -2.3129 -0.5732  0.0060
42428SOL     OW36251   1.705   5.319   6.727 -0.2061  0.1041 -0.0663
42428SOL    HW136252   1.661   5.239   6.695 -1.3528  1.0959 -1.0658
42428SOL    HW236253   1.688   5.384   6.660  2.3382  0.7430 -0.1898
42429SOL     OW36254   8.196   2.915   6.155  0.2674  0.8597  0.1456
42429SOL    HW136255   8.278   2.916   6.106  0.2593 -0.6976  0.0437
42429SOL    HW236256   8.220   2.887   6.243 -0.0347  1.3170  0.3781
42430SOL     OW36257   2.152   2.842  10.327 -0.4598  0.3565  0.4739
42430SOL    HW136258   2.163   2.928  10.286  0.6476  0.3690  0.7644
42430SOL    HW236259   2.227   2.791  10.296 -0.7135 -0.2751  0.8859
42431SOL     OW36260  12.551  11.148   1.507  0.2847 -0.2274 -0.0768
42431SOL    HW136261  12.633  11.169   1.462  0.1696  0.6184  0.0961
42431SOL    HW236262  12.578  11.123   1.595  0.3728 -0.1491 -0.0814
42432SOL     OW36263   2.722  10.145   2.696  0.4250 -0.0342  0.2358
42432SOL    HW136264   2.790  10.211   2.712  0.9356 -0.4464 -0.1736
42432SOL    HW236265   2.719  10.094   2.777 -1.5408  1.8260  1.4290
42433SOL     OW36266   4.875   0.264   6.208  0.1800 -0.1668  0.4358
42433SOL    HW136267   4.962   0.224   6.206 -0.5577 -1.9001 -1.4902
42433SOL    HW236268   4.868   0.309   6.123 -0.5317  0.6311  0.9013
42434SOL     OW36269  10.595   2.627   7.107 -0.3332  0.3932  0.0603
42434SOL    HW136270  10.611   2.670   7.192 -0.3437 -0.8992  0.7452
42434SOL    HW236271  10.503   2.643   7.090  0.0613  2.1651 -0.6004
42435SOL     OW36272   3.906   0.851  10.445 -0.0287 -0.4183 -0.2016
42435SOL    HW136273   3.864   0.927  10.486 -2.0401 -3.1419  3.4017
42435SOL    HW236274   3.983   0.835  10.499  1.1840 -0.2106 -1.8108
42436SOL     OW36275   3.843  12.044   1.901  0.1811  0.6207  0.3436
42436SOL    HW136276   3.893  12.075   1.825 -0.0185 -0.5797 -0.3037
42436SOL    HW236277   3.868  12.104   1.972  1.2208  1.0922 -0.3883
42437SOL     OW36278   8.660   3.066   1.695  0.0474 -0.3635 -0.2533
42437SOL    HW136279   8.740   3.117   1.710 -0.1487 -0.1234 -0.0141
42437SOL    HW236280   8.598   3.129   1.659 -0.4024 -0.2760  0.6490
42438SOL     OW36281  10.255   0.632   9.712 -0.4047 -0.1421 -0.0658
42438SOL    HW136282  10.304   0.687   9.772 -1.5034 -0.8517  1.5624
42438SOL    HW236283  10.320   0.572   9.675  0.0044 -1.0657  2.0379
42439SOL     OW36284   6.568   9.462  11.256 -0.0133  0.2536 -0.1835
42439SOL    HW136285   6.646   9.455  11.310 -0.5922 -0.1308  0.6161
42439SOL    HW236286   6.550   9.373  11.227  0.5570  0.5124 -1.4254
42440SOL     OW36287   7.034   2.763   0.074 -0.0953  0.0473  0.2793
42440SOL    HW136288   7.046   2.672   0.049 -0.1338  0.1262 -0.0272
42440SOL    HW236289   6.939   2.773   0.083 -0.2602  0.5648 -1.6417
42441SOL     OW36290   9.220   5.353  11.135 -0.4966  0.1280  0.1813
42441SOL    HW136291   9.239   5.417  11.204 -0.9807 -1.1928  1.6069
42441SOL    HW236292   9.126   5.339  11.142 -0.2060 -1.7631  0.8800
42442SOL     OW36293   5.665   1.837  10.814  0.4399 -0.3732 -0.3583
42442SOL    HW136294   5.673   1.799  10.902  0.6399  0.8518  0.1755
42442SOL    HW236295   5.579   1.807  10.784 -0.7991  1.2500  1.3194
42443SOL     OW36296  12.079   1.712   2.376  0.3011 -0.5797 -0.5820
42443SOL    HW136297  12.030   1.629   2.373  1.0556 -1.0274 -0.8600
42443SOL    HW236298  12.012   1.779   2.372 -0.5051 -1.1362  1.9094
42444SOL     OW36299   8.861   6.399  11.386  0.2590 -0.0302 -0.0073
42444SOL    HW136300   8.802   6.442  11.447 -0.9539 -0.1792 -1.0336
42444SOL    HW236301   8.845   6.442  11.302 -1.5238 -2.7772 -1.2548
42445SOL     OW36302  10.207   8.230   6.580 -0.3185 -0.7340 -0.2898
42445SOL    HW136303  10.241   8.145   6.609 -1.0234 -0.3331  1.8860
42445SOL    HW236304  10.112   8.219   6.578 -0.3039 -0.9528 -3.3534
42446SOL     OW36305   5.140   1.249  10.117 -0.2267 -0.0787  0.4466
42446SOL    HW136306   5.173   1.337  10.098 -0.4053  0.0107  0.5425
42446SOL    HW236307   5.116   1.252  10.210 -0.7293 -0.0673  0.3198
42447SOL     OW36308   3.718   5.112   3.806  0.1298 -0.0390  0.1203
42447SOL    HW136309   3.771   5.179   3.765 -1.2353  1.0612  0.0719
42447SOL    HW236310   3.775   5.036   3.813  2.4703  1.7451  2.1935
42448SOL     OW36311   0.178  11.854   0.786  0.3105 -0.3398 -0.3035
42448SOL    HW136312   0.136  11.806   0.858  1.1319  2.0762  1.9551
42448SOL    HW236313   0.272  11.840   0.798  0.5982  1.9266  0.6145
42449SOL     OW36314   6.841   2.745   8.929 -0.2025 -0.1750  0.8785
42449SOL    HW136315   6.790   2.743   9.010 -0.2595 -2.0478  0.8349
42449SOL    HW236316   6.913   2.685   8.945  0.0775 -0.1638 -0.2851
42450SOL     OW36317  11.442   9.274   4.866  0.0016  0.3895  0.0272
42450SOL    HW136318  11.482   9.330   4.933  0.3580  0.5949 -0.3508
42450SOL    HW236319  11.348   9.278   4.884  0.1308  0.0987  0.7763
42451SOL     OW36320  10.162   9.815  11.617  0.3616  0.1147 -0.2337
42451SOL    HW136321  10.074   9.851  11.611  0.3592 -0.0134 -1.1227
42451SOL    HW236322  10.168   9.780  11.706 -1.0927 -1.4230 -0.6938
42452SOL     OW36323   2.259  10.539   0.934  0.3083  1.0370 -0.1245
42452SOL    HW136324   2.335  10.528   0.877  0.0015 -1.0785 -0.1844
42452SOL    HW236325   2.196  10.589   0.880  0.8281  0.9136 -0.8656
42453SOL     OW36326   3.306   6.823   1.112 -0.3791  0.0771 -0.7622
42453SOL    HW136327   3.273   6.789   1.195  1.5425  2.4429  1.1218
42453SOL    HW236328   3.316   6.746   1.056 -0.5936 -1.7809  1.6191
42454SOL     OW36329   1.032   0.542  11.157  1.0309 -0.0155  0.9059
42454SOL    HW136330   0.969   0.613  11.164 -0.3002 -1.2618  2.5454
42454SOL    HW236331   1.009   0.483  11.229  0.2933 -3.4561 -1.8410
42455SOL     OW36332   6.206  11.634  11.356  0.4915 -0.3240 -0.2911
42455SOL    HW136333   6.239  11.632  11.266 -0.4049 -0.7721 -0.6198
42455SOL    HW236334   6.132  11.575  11.355 -1.1429  1.6130  0.0969
42456SOL     OW36335  10.630  11.661   1.783 -0.1881 -0.2715  0.7103
42456SOL    HW136336  10.604  11.603   1.854  1.2304  0.5034  1.9096
42456SOL    HW236337  10.719  11.688   1.805 -0.1861  1.0172 -0.6956
42457SOL     OW36338   8.544  12.420   7.688  0.4815 -0.0312  0.0223
42457SOL    HW136339   8.624  12.372   7.667 -0.3316 -1.3571 -0.1398
42457SOL    HW236340   8.474  12.354   7.685 -0.5468  0.9802  0.7203
42458SOL     OW36341   8.474   6.972   5.251 -0.2185 -0.0406  0.4677
42458SOL    HW136342   8.405   6.974   5.185 -1.8655  2.2065  2.1032
42458SOL    HW236343   8.525   7.051   5.234 -0.4602  0.3845  1.6260
42459SOL     OW36344   0.009  10.018  11.943 -0.2853 -0.2848 -0.7221
42459SOL    HW136345   0.021  10.093  12.001  2.3830  0.9097 -2.6048
42459SOL    HW236346  -0.033   9.951  11.998 -0.0915  1.5569  1.8336
42460SOL     OW36347   9.773   1.398   7.980 -0.1740  0.5505  0.3878
42460SOL    HW136348   9.764   1.319   7.928  2.3515  0.3652  0.0728
42460SOL    HW236349   9.685   1.418   8.010 -0.9765 -2.0543  0.0206
42461SOL     OW36350   5.434   4.082   2.664  0.0140 -0.3476  0.4358
42461SOL    HW136351   5.414   4.128   2.746 -0.7108 -0.7084  0.4687
42461SOL    HW236352   5.396   4.138   2.596 -0.6750 -0.7808  0.4595
42462SOL     OW36353   5.778   0.193   6.578 -0.1020  0.4854  0.1980
42462SOL    HW136354   5.860   0.188   6.626 -0.0291  0.2166  0.0455
42462SOL    HW236355   5.801   0.230   6.493 -0.1952  0.7420  0.2816
42463SOL     OW36356   4.710   1.649   2.217 -0.1378  0.0660  0.3337
42463SOL    HW136357   4.711   1.742   2.195 -0.4347 -0.2672 -1.2348
42463SOL    HW236358   4.756   1.643   2.301 -0.3939  1.6529  0.6103
42464SOL     OW36359   8.401   6.042   6.240  0.0351  0.4359 -0.0590
42464SOL    HW136360   8.375   6.090   6.318  1.1043 -0.5739  0.9477
42464SOL    HW236361   8.321   5.997   6.212 -0.0242 -0.3295  1.2932
42465SOL     OW36362  10.865   6.566   0.954  0.2783 -0.1321  0.0458
42465SOL    HW136363  10.840   6.612   1.034 -3.1246 -1.7116  0.0790
42465SOL    HW236364  10.927   6.499   0.984  0.1896  0.2311  1.0971
42466SOL     OW36365   7.029   7.541   2.309 -0.0152 -0.3971  0.2950
42466SOL    HW136366   6.984   7.588   2.238 -1.1757 -0.6036  0.8703
42466SOL    HW236367   7.120   7.570   2.303  0.0286 -0.7573 -1.5714
42467SOL     OW36368   5.290  12.431   8.917  0.5078 -0.3996 -0.0214
42467SOL    HW136369   5.195  12.439   8.927  0.6843  0.8424  0.9771
42467SOL    HW236370   5.316  12.510   8.870  1.1215 -0.3699  0.3573
42468SOL     OW36371   9.408   2.990  12.301 -0.0572  0.3214 -0.6795
42468SOL    HW136372   9.405   3.046  12.378 -1.8779  1.2742 -1.3942
42468SOL    HW236373   9.334   2.930  12.311  1.1511 -1.2294 -0.5191
42469SOL     OW36374   0.208   8.835   3.754 -0.4771 -0.2362  0.0103
42469SOL    HW136375   0.114   8.816   3.761 -0.2835 -1.5860 -0.5760
42469SOL    HW236376   0.215   8.896   3.681 -0.8163 -0.9995 -0.6731
42470SOL     OW36377  11.962   5.200   5.316  0.3526  0.5752  0.0962
42470SOL    HW136378  11.976   5.253   5.395  0.5503  0.2444  0.2834
42470SOL    HW236379  11.931   5.116   5.348  1.2281  0.1565 -0.1165
42471SOL     OW36380   5.461   8.554   1.230  0.3099  0.2086 -0.1833
42471SOL    HW136381   5.440   8.496   1.157 -1.1259  0.4234  0.0188
42471SOL    HW236382   5.436   8.505   1.308  0.4585  0.5339  0.0728
42472SOL     OW36383   2.664   6.939   9.153  0.1962  0.6016 -0.3093
42472SOL    HW136384   2.597   7.007   9.142 -0.5640  0.2977  1.9725
42472SOL    HW236385   2.655   6.911   9.244  2.6732 -0.2833 -0.2673
42473SOL     OW36386   3.402   0.423   4.816  0.5398 -0.0011  0.3467
42473SOL    HW136387   3.323   0.419   4.870 -0.4189 -2.2978 -1.1213
42473SOL    HW236388   3.414   0.517   4.799 -1.4315  0.4580  1.2088
42474SOL     OW36389   9.461   0.346  10.592  0.2581 -0.2531  0.3741
42474SOL    HW136390   9.553   0.348  10.619  0.7160  2.4091 -1.0165
42474SOL    HW236391   9.442   0.437  10.568 -2.7141 -0.7697  0.4760
42475SOL     OW36392   0.260   3.485   0.575 -0.0500 -0.4185  0.0045
42475SOL    HW136393   0.225   3.527   0.654  2.0025 -1.6098  1.6720
42475SOL    HW236394   0.294   3.558   0.523 -0.4374  0.3167  0.7473
42476SOL     OW36395  11.270   3.732   8.708 -0.8312 -0.7717 -0.2074
42476SOL    HW136396  11.268   3.798   8.778 -0.5555  0.5077 -1.3709
42476SOL    HW236397  11.237   3.652   8.750 -1.0153  0.0490  1.2851
42477SOL     OW36398   8.118   0.260   3.955  0.1903 -0.3864  0.2944
42477SOL    HW136399   8.187   0.249   3.890 -0.0451 -0.5808  0.0751
42477SOL    HW236400   8.107   0.173   3.994 -0.1806 -0.4400  0.0737
42478SOL     OW36401   8.351  10.250   8.607  0.1879  0.0634 -0.0446
42478SOL    HW136402   8.406  10.182   8.645  0.5862  0.7011  0.5617
42478SOL    HW236403   8.371  10.248   8.513  0.8145 -0.1018  0.0904
42479SOL     OW36404   1.424  11.685   7.108  0.1300  0.8223  0.0322
42479SOL    HW136405   1.369  11.676   7.186  0.7580 -0.1697  0.3817
42479SOL    HW236406   1.505  11.639   7.130 -0.3530 -1.1332 -1.8458
42480SOL     OW36407  11.740   3.189   0.993 -0.1837  0.0142 -0.9309
42480SOL    HW136408  11.651   3.175   0.959 -0.8444 -0.4383  0.8482
42480SOL    HW236409  11.728   3.248   1.067  1.0934  0.4450 -1.0497
42481SOL     OW36410  11.857   2.332  10.432  0.6246 -0.2248 -0.3938
42481SOL    HW136411  11.844   2.427  10.437  2.0011 -0.0608  1.9894
42481SOL    HW236412  11.952   2.322  10.425  0.4072 -1.4468 -2.0921
42482SOL     OW36413  12.071   3.609  12.089 -0.1318 -0.2746  0.3016
42482SOL    HW136414  12.066   3.598  11.994  0.0221 -0.3851  0.3058
42482SOL    HW236415  12.113   3.694  12.100  2.9069 -1.6488  0.2650
42483SOL     OW36416  11.207   4.386   9.726  0.0724 -0.3528  0.2132
42483SOL    HW136417  11.202   4.439   9.647 -2.0297 -0.5959  0.1156
42483SOL    HW236418  11.144   4.315   9.711  1.6978 -2.0341  0.9532
42484SOL     OW36419   5.784  10.648   9.970  0.2213 -0.6364 -0.2552
42484SOL    HW136420   5.815  10.614   9.887  0.7671  0.2872 -0.4404
42484SOL    HW236421   5.776  10.570  10.026  0.8861 -1.1300 -0.8303
42485SOL     OW36422   1.301   9.397  12.353 -0.0585 -0.2694  0.4077
42485SOL    HW136423   1.378   9.385  12.409  0.1108 -0.1477  0.2011
42485SOL    HW236424   1.229   9.359  12.404  0.0056  0.2858  0.9221
42486SOL     OW36425   2.949   6.344  11.436  0.1290 -0.1113 -0.0314
42486SOL    HW136426   2.895   6.352  11.515 -1.5218 -0.7287 -1.0305
42486SOL    HW236427   3.005   6.269  11.452 -0.3216 -0.3463  0.4723
42487SOL     OW36428   6.833   7.430   8.355  0.4545 -0.0337  0.0524
42487SOL    HW136429   6.797   7.517   8.374  2.1554  0.7840 -0.3349
42487SOL    HW236430   6.761   7.385   8.310 -1.1770  0.4137  2.0447
42488SOL     OW36431   3.732   4.202   3.035  0.1913  0.0594  0.5791
42488SOL    HW136432   3.662   4.189   3.099 -0.5504 -0.5129 -0.3122
42488SOL    HW236433   3.696   4.168   2.953  1.4765 -0.1362  0.0660
42489SOL     OW36434  10.348   8.218   4.168  0.3897 -0.6671  0.0381
42489SOL    HW136435  10.406   8.263   4.229 -0.2180 -2.2132  1.8528
42489SOL    HW236436  10.286   8.285   4.140  1.9416  0.5935 -0.6137
42490SOL     OW36437   5.296   9.613   8.818 -0.3489  0.0728 -0.4607
42490SOL    HW136438   5.265   9.539   8.870 -0.4650 -0.4635 -1.2721
42490SOL    HW236439   5.321   9.679   8.883 -1.1968 -0.2826  0.2511
42491SOL     OW36440   0.860   2.886   2.639 -0.6296 -0.0722 -0.3149
42491SOL    HW136441   0.797   2.947   2.676 -0.7966 -0.7934  0.6305
42491SOL    HW236442   0.934   2.888   2.700 -0.2696 -0.1677 -0.7449
42492SOL     OW36443   4.701   4.534   1.726 -0.8240  0.1630  0.4328
42492SOL    HW136444   4.786   4.560   1.762 -0.9184  0.6188  0.3244
42492SOL    HW236445   4.720   4.456   1.673 -0.6792 -0.5287  1.4659
42493SOL     OW36446   7.180   0.152   1.190  0.3934  0.0729  0.2333
42493SOL    HW136447   7.257   0.209   1.201  0.2452 -0.0951  2.7854
42493SOL    HW236448   7.106   0.213   1.189  0.2704  0.0652  2.5181
42494SOL     OW36449   7.247   6.559  11.958 -0.1430  0.1966 -0.5176
42494SOL    HW136450   7.219   6.582  11.869 -1.4203  0.9336  0.0489
42494SOL    HW236451   7.166   6.530  12.001  0.6024 -0.8845  0.1900
42495SOL     OW36452  10.019   6.594   6.287  0.2655  0.4148 -0.1703
42495SOL    HW136453   9.926   6.573   6.279  0.2469 -0.1964  1.3967
42495SOL    HW236454  10.021   6.673   6.342  0.5208  2.7259 -3.2370
42496SOL     OW36455   3.693   7.528  11.437  0.0831  0.5438 -0.1720
42496SOL    HW136456   3.725   7.438  11.445 -0.8238  0.2468  0.1493
42496SOL    HW236457   3.706   7.550  11.345  0.4106  0.1261 -0.2277
42497SOL     OW36458   2.350   1.191   4.829 -0.2403  0.3166  0.3223
42497SOL    HW136459   2.371   1.218   4.918 -2.0789 -0.1719  0.9665
42497SOL    HW236460   2.433   1.165   4.790  0.7378  1.5646  1.5347
42498SOL     OW36461   2.782   5.122   1.799 -0.0489  0.2912  0.2878
42498SOL    HW136462   2.822   5.207   1.819  0.6204  0.5762 -1.9343
42498SOL    HW236463   2.689   5.142   1.786  0.4660  1.2337 -2.6215
42499SOL     OW36464   2.312   6.982   4.864 -0.0840  0.5303 -0.2515
42499SOL    HW136465   2.345   6.899   4.829 -0.2467  0.4657 -0.2531
42499SOL    HW236466   2.339   7.047   4.799  1.6987  0.7615  0.6771
42500SOL     OW36467  11.195   0.438   8.034 -0.0766 -0.2061  0.4875
42500SOL    HW136468  11.146   0.509   8.076  1.1716 -0.4841  2.4981
42500SOL    HW236469  11.286   0.469   8.033 -0.0355 -0.1651 -2.1842
42501SOL     OW36470   9.699  11.935  10.491 -0.0738  0.3201  0.0658
42501SOL    HW136471   9.720  11.970  10.577 -1.6642  0.4825  0.4120
42501SOL    HW236472   9.715  11.841  10.498 -0.3797  0.3033  0.6128
42502SOL     OW36473  12.327   4.675   1.580  0.3677 -0.6959 -0.3500
42502SOL    HW136474  12.409   4.724   1.585  0.5136 -1.0071  0.4318
42502SOL    HW236475  12.345   4.604   1.518  0.3830 -0.2055 -0.9200
42503SOL     OW36476  10.232  12.179   5.897  0.5278  0.1680 -0.3562
42503SOL    HW136477  10.149  12.141   5.866  0.5762 -0.7359  0.5646
42503SOL    HW236478  10.290  12.172   5.821  0.2677 -0.7958 -0.4826
42504SOL     OW36479   4.398   9.715   9.756 -0.0957 -0.1124 -0.5293
42504SOL    HW136480   4.343   9.789   9.783  0.3964 -0.0374  0.2763
42504SOL    HW236481   4.335   9.648   9.729 -0.6944 -0.6080  1.8647
42505SOL     OW36482   2.787   7.488   6.406 -0.1531  0.5596  0.3677
42505SOL    HW136483   2.794   7.439   6.488  4.4633 -0.7918 -0.5720
42505SOL    HW236484   2.801   7.423   6.338  0.2413  2.2846 -1.2630
42506SOL     OW36485   9.072   6.365   4.088  0.3804 -0.1190  0.3017
42506SOL    HW136486   9.136   6.314   4.037 -1.2210 -0.7717 -1.1392
42506SOL    HW236487   9.112   6.452   4.095  1.8524 -0.7504  0.2772
42507SOL     OW36488   6.061  11.995   1.662 -0.1023 -0.2998 -0.0101
42507SOL    HW136489   5.993  11.968   1.601  0.9308 -0.3408 -1.1840
42507SOL    HW236490   6.138  11.942   1.638  0.4774  0.0435  1.0001
42508SOL     OW36491   6.792  10.639  12.178  0.1044  0.1295 -0.0035
42508SOL    HW136492   6.744  10.710  12.136 -2.2626 -1.8432 -0.8263
42508SOL    HW236493   6.740  10.616  12.255  2.4200  1.1638  2.0396
42509SOL     OW36494   0.539   0.472   9.625  0.2012  0.0736 -0.3862
42509SOL    HW136495   0.501   0.537   9.567  1.4209  1.3881  0.2212
42509SOL    HW236496   0.592   0.416   9.568 -2.8634 -2.1054 -1.3257
42510SOL     OW36497   2.399   8.186   0.781 -0.4402  0.1901  0.1895
42510SOL    HW136498   2.333   8.117   0.783  0.0971 -0.3582 -0.3709
42510SOL    HW236499   2.473   8.152   0.832  0.7516 -0.6736 -1.9704
42511SOL     OW36500  11.093   1.140   3.759 -0.5233  0.0416 -0.7629
42511SOL    HW136501  11.033   1.177   3.694 -0.7685 -1.7130 -1.5968
42511SOL    HW236502  11.173   1.121   3.709 -0.7346 -1.3792 -0.6146
42512SOL     OW36503   8.222   2.959   7.526 -0.1652 -0.2876 -0.4048
42512SOL    HW136504   8.171   2.969   7.606  1.5618 -0.4448  0.7951
42512SOL    HW236505   8.252   2.868   7.529  2.8626  0.6158  0.7325
42513SOL     OW36506   3.491   9.853   6.709  0.2684  0.4664 -0.0990
42513SOL    HW136507   3.514   9.774   6.660 -0.6247 -0.9285  1.6487
42513SOL    HW236508   3.401   9.838   6.738  0.6469  1.4057  1.6449
42514SOL     OW36509  10.525   4.877   8.483 -0.1958 -0.1812  0.0087
42514SOL    HW136510  10.615   4.901   8.507  0.0840 -0.8812 -0.2924
42514SOL    HW236511  10.494   4.825   8.557 -0.6132  0.6501  0.4280
42515SOL     OW36512   1.320   4.679   8.756  0.3101 -0.2861 -0.3594
42515SOL    HW136513   1.291   4.597   8.717 -0.0009 -0.4954  0.2919
42515SOL    HW236514   1.373   4.721   8.688 -0.7603 -0.3196 -1.2472
42516SOL     OW36515   9.519   6.415   8.155  0.0245 -0.5731 -0.7804
42516SOL    HW136516   9.476   6.329   8.155 -0.8752 -0.1369 -0.9236
42516SOL    HW236517   9.572   6.415   8.075  1.5272 -1.6922  0.1532
42517SOL     OW36518   5.722   1.902   1.822  0.4813 -0.3145 -0.5731
42517SOL    HW136519   5.684   1.852   1.750 -0.8061 -0.6743  0.3138
42517SOL    HW236520   5.682   1.989   1.814  2.2552  0.4340 -1.7543
42518SOL     OW36521   2.030   1.062  11.990 -0.6707 -0.0749 -0.1304
42518SOL    HW136522   2.024   0.986  12.048  0.9776  0.6450  1.0732
42518SOL    HW236523   2.116   1.054  11.949  0.1425  1.7929  1.0627
42519SOL     OW36524   9.693  11.678  12.167 -0.3410  0.3981 -0.2718
42519SOL    HW136525   9.762  11.616  12.143  0.3271  1.1169 -0.2605
42519SOL    HW236526   9.727  11.763  12.140 -1.0721  0.8081  0.0729
42520SOL     OW36527  11.744   3.831   0.882 -0.0998  0.3412  0.5366
42520SOL    HW136528  11.795   3.867   0.955  1.0255 -0.1224  0.0027
42520SOL    HW236529  11.729   3.740   0.905  2.0681 -0.3971 -0.7017
42521SOL     OW36530   3.916   5.667   3.424 -0.4798 -0.7124  0.2967
42521SOL    HW136531   3.943   5.719   3.500  1.0929  1.2195 -1.4501
42521SOL    HW236532   3.982   5.599   3.417 -1.0011 -1.3096  1.0020
42522SOL     OW36533   1.274   7.824   2.098 -0.1861  0.5038 -0.3317
42522SOL    HW136534   1.262   7.821   2.003 -0.5451  2.5413 -0.3974
42522SOL    HW236535   1.185   7.823   2.134 -0.0699  0.4974 -0.0420
42523SOL     OW36536   5.229   3.453   7.593  0.1170 -0.0045  0.0763
42523SOL    HW136537   5.313   3.480   7.628  0.3837 -0.5270 -0.1422
42523SOL    HW236538   5.206   3.520   7.529  0.2082  0.3104  0.3723
42524SOL     OW36539   7.869   0.526   6.318 -0.3369  0.7746 -0.2561
42524SOL    HW136540   7.896   0.617   6.315  0.8402  0.5277  1.2660
42524SOL    HW236541   7.859   0.507   6.411 -0.1765 -0.7332 -0.5144
42525SOL     OW36542   1.984   9.601   8.812 -0.1774  0.4014  0.2672
42525SOL    HW136543   1.940   9.547   8.746  0.6647 -0.8964  0.7269
42525SOL    HW236544   1.913   9.637   8.865 -0.7695 -0.0922 -0.1698
42526SOL     OW36545   2.644   9.382   5.904 -0.0311 -0.0973  0.8531
42526SOL    HW136546   2.707   9.383   5.832  2.1778  0.2335  2.6883
42526SOL    HW236547   2.564   9.420   5.867  1.4889  1.4715 -1.0128
42527SOL     OW36548   3.872   6.033   5.972 -0.1525 -0.0051  0.4568
42527SOL    HW136549   3.884   5.938   5.965 -0.0412  0.0809 -0.8468
42527SOL    HW236550   3.841   6.047   6.061 -1.4287 -1.4065  0.2824
42528SOL     OW36551  10.907   2.901   7.168  0.2867  0.1496  0.3036
42528SOL    HW136552  10.915   2.865   7.080 -0.0442  1.0675 -0.1076
42528SOL    HW236553  10.991   2.882   7.210  0.3152 -0.6114 -0.0735
42529SOL     OW36554   1.307   8.835   9.487 -0.0227 -0.5685  0.7298
42529SOL    HW136555   1.333   8.748   9.519  0.1489  0.4949  3.7912
42529SOL    HW236556   1.249   8.869   9.555 -2.8662  0.4693 -2.0071
42530SOL     OW36557  12.514   0.132  12.591  1.3409  0.3597  0.0108
42530SOL    HW136558  12.563   0.181  12.657  0.4765  1.0053  0.1781
42530SOL    HW236559  12.464   0.068  12.641  1.3467  0.2726 -0.0951
42531SOL     OW36560   5.048   2.220   8.670 -0.0373  0.1434  0.0837
42531SOL    HW136561   4.993   2.206   8.592 -0.4075  0.7480  0.2312
42531SOL    HW236562   5.094   2.302   8.653  1.0087 -0.4767 -0.1383
42532SOL     OW36563   2.706   8.115   6.182 -1.4210 -0.1326  0.5714
42532SOL    HW136564   2.630   8.061   6.160 -0.0883 -1.8765 -0.0914
42532SOL    HW236565   2.743   8.139   6.097 -0.2096 -0.9030  0.8499
42533SOL     OW36566   1.242   6.826   3.475 -0.1073 -0.4706  0.2063
42533SOL    HW136567   1.230   6.921   3.467  0.1663 -0.3432  1.1491
42533SOL    HW236568   1.165   6.796   3.522 -0.5031 -0.8197 -0.6509
42534SOL     OW36569   8.542   8.394   2.358  0.3606  0.4377  0.1004
42534SOL    HW136570   8.472   8.405   2.294 -0.5556  0.2681  1.0413
42534SOL    HW236571   8.521   8.455   2.428  0.8363 -0.0284  0.6640
42535SOL     OW36572   9.536   1.733   9.922 -0.0651 -0.2014  0.2183
42535SOL    HW136573   9.485   1.766   9.995  1.8879 -0.3173  1.7264
42535SOL    HW236574   9.567   1.811   9.876 -0.4179 -0.1075  0.1374
42536SOL     OW36575   7.786   9.364   9.837 -0.3236 -0.5621 -0.1178
42536SOL    HW136576   7.757   9.366   9.746 -0.2831 -1.7755 -0.1696
42536SOL    HW236577   7.774   9.454   9.868 -0.1493 -0.0899 -1.3701
42537SOL     OW36578  10.856   2.867   2.670  0.0678 -0.0945  0.0935
42537SOL    HW136579  10.770   2.824   2.674  0.4690 -1.0952 -1.3679
42537SOL    HW236580  10.915   2.804   2.711  0.1119  0.7058  1.3388
42538SOL     OW36581   9.707   2.142  10.157  0.0515 -0.2029  0.8136
42538SOL    HW136582   9.647   2.107  10.092  1.1966 -0.6207 -0.0528
42538SOL    HW236583   9.738   2.064  10.204  0.8177 -0.1184  0.4564
42539SOL     OW36584   2.502   7.828   4.002 -0.3526  0.3368  0.0718
42539SOL    HW136585   2.521   7.849   3.911  0.1192 -1.2369 -0.2248
42539SOL    HW236586   2.540   7.741   4.015 -1.2238  0.1357  1.5053
42540SOL     OW36587   2.302   4.902  10.236  0.0200 -0.2908  0.2108
42540SOL    HW136588   2.368   4.959  10.195  0.2650  0.4017  1.5051
42540SOL    HW236589   2.320   4.909  10.329 -2.2438  0.3829  0.6588
42541SOL     OW36590  11.803   8.191   0.295 -0.1090 -0.0579  0.2202
42541SOL    HW136591  11.743   8.227   0.229  1.1907  1.1878 -0.3155
42541SOL    HW236592  11.745   8.151   0.360 -1.4664 -0.4277 -1.1395
42542SOL     OW36593  10.852   2.318   2.089  0.2122  0.5933  0.1225
42542SOL    HW136594  10.864   2.393   2.148  0.5012  1.8338 -1.4450
42542SOL    HW236595  10.827   2.246   2.147 -0.6087  2.0190  1.6434
42543SOL     OW36596   8.902   6.046   1.822  0.2876 -0.2804  0.2073
42543SOL    HW136597   8.838   6.117   1.835 -1.0293 -1.4529  0.3956
42543SOL    HW236598   8.965   6.057   1.893  0.3711  0.9643 -0.0338
42544SOL     OW36599   8.166  10.216  10.600  0.3085 -0.1281 -0.4613
42544SOL    HW136600   8.129  10.272  10.668 -3.7272 -1.7645 -1.0511
42544SOL    HW236601   8.223  10.155  10.648  1.0644  1.4615  0.7600
42545SOL     OW36602  11.732   4.503   0.326 -0.0736  0.7361  0.7893
42545SOL    HW136603  11.686   4.512   0.243  0.8084 -0.9484  0.0553
42545SOL    HW236604  11.664   4.485   0.390 -0.7597  1.9917  0.4443
42546SOL     OW36605   8.129   6.731   7.058 -0.1706  0.4628  0.5235
42546SOL    HW136606   8.154   6.705   7.147 -0.3484  2.2142  1.1450
42546SOL    HW236607   8.034   6.743   7.063 -0.2745 -0.0864 -0.0956
42547SOL     OW36608   3.324   3.107  10.760 -0.1910 -0.1271  0.1097
42547SOL    HW136609   3.403   3.122  10.812  0.0230 -0.9555  0.0345
42547SOL    HW236610   3.347   3.136  10.672 -0.2159  0.3060  0.2415
42548SOL     OW36611   1.106   6.398  12.220 -0.3749  0.3778  0.4952
42548SOL    HW136612   1.063   6.384  12.305 -0.2616  0.2054  0.5254
42548SOL    HW236613   1.089   6.490  12.200 -0.4822  0.3960  0.6614
42549SOL     OW36614   9.126   4.140   2.503 -0.2034 -0.3108 -0.1437
42549SOL    HW136615   9.048   4.190   2.481 -0.8656 -1.9356 -1.7436
42549SOL    HW236616   9.092   4.059   2.542  0.6451 -1.0951 -0.9744
42550SOL     OW36617   8.762   0.524   8.447  0.4756  0.3930 -0.5278
42550SOL    HW136618   8.817   0.531   8.369  0.3168  1.7117 -0.5316
42550SOL    HW236619   8.783   0.601   8.499  0.2955 -0.2721  0.5594
42551SOL     OW36620  12.040   7.510   3.176 -0.2605 -0.1493  0.4799
42551SOL    HW136621  12.041   7.605   3.186 -0.8639 -0.0141 -0.5819
42551SOL    HW236622  11.951   7.489   3.146  0.3202 -0.8520 -0.8579
42552SOL     OW36623   9.936   8.138   6.625  0.2161  0.5992 -0.1169
42552SOL    HW136624   9.880   8.149   6.548  0.6997  1.3982 -0.3719
42552SOL    HW236625   9.881   8.163   6.699 -0.2542 -0.1737 -0.1941
42553SOL     OW36626   4.715   2.136   0.714  0.2064  0.0092  0.1132
42553SOL    HW136627   4.696   2.155   0.622 -1.4408  0.7668  0.5678
42553SOL    HW236628   4.732   2.222   0.753 -1.0679 -0.0612  0.8969
42554SOL     OW36629   3.797   7.803   5.472 -0.2419 -0.3652 -0.2650
42554SOL    HW136630   3.836   7.869   5.530 -1.1403 -0.2840  0.2730
42554SOL    HW236631   3.704   7.825   5.471 -0.4563 -1.2542 -0.5796
42555SOL     OW36632   7.947   6.343   1.290  0.0737  0.3335  0.2799
42555SOL    HW136633   7.881   6.399   1.330 -1.4936 -1.8635  0.9502
42555SOL    HW236634   7.993   6.400   1.229 -1.1011  2.4324  1.2555
42556SOL     OW36635  10.139  10.045   0.581  0.0150 -0.0349  0.3452
42556SOL    HW136636  10.056  10.014   0.617 -1.0647  0.4205 -1.5837
42556SOL    HW236637  10.127  10.139   0.569  1.4453  0.3375  1.5569
42557SOL     OW36638   1.409   7.770  11.941  0.6151 -0.5775  0.1402
42557SOL    HW136639   1.370   7.810  11.863  1.0918 -0.0574  0.1593
42557SOL    HW236640   1.373   7.682  11.943 -1.5317  0.2547  0.8723
42558SOL     OW36641   8.994   2.874   4.042  0.8920 -0.2891 -0.7126
42558SOL    HW136642   8.903   2.903   4.052  0.7094  0.2532 -3.3513
42558SOL    HW236643   8.998   2.793   4.092 -0.1756  1.1675  1.9917
42559SOL     OW36644   2.237   1.269  11.154  0.4129 -0.4336 -0.2618
42559SOL    HW136645   2.187   1.343  11.122  2.1529  1.4511  1.1425
42559SOL    HW236646   2.172   1.213  11.197 -0.7131  1.1558  0.1858
42560SOL     OW36647   2.951   2.240   0.985 -0.1649 -0.0722 -0.8034
42560SOL    HW136648   3.027   2.183   0.972  0.8274  1.2168 -0.7967
42560SOL    HW236649   2.940   2.284   0.900 -1.5820 -1.0170 -1.1470
42561SOL     OW36650  12.381   0.936   0.006  0.0270 -0.0498 -0.6319
42561SOL    HW136651  12.405   1.027   0.024  1.5229 -0.7438  1.0805
42561SOL    HW236652  12.308   0.918   0.066 -0.0380 -0.0859 -0.7210
42562SOL     OW36653   2.358   8.411   3.708 -0.2544  1.0947 -0.2371
42562SOL    HW136654   2.432   8.471   3.718 -0.3535  1.1198  0.4223
42562SOL    HW236655   2.322   8.403   3.797 -0.4873  0.3740 -0.3888
42563SOL     OW36656   6.388   5.010   5.186 -0.5402 -0.2344 -0.2152
42563SOL    HW136657   6.448   4.936   5.199 -0.1025  0.1200 -0.1919
42563SOL    HW236658   6.303   4.969   5.169 -0.3932 -0.7412  0.2309
42564SOL     OW36659   2.933   4.291   1.130 -0.4188  0.1490 -0.7784
42564SOL    HW136660   3.013   4.268   1.177 -0.7072  0.2175 -0.2403
42564SOL    HW236661   2.885   4.208   1.124 -0.9384  0.3641  0.1483
42565SOL     OW36662   8.167   0.886   8.510  0.0981 -0.4556 -0.3080
42565SOL    HW136663   8.219   0.907   8.433 -2.9432  1.9564 -1.9476
42565SOL    HW236664   8.109   0.815   8.482  0.1844 -0.7992  0.3554
42566SOL     OW36665   3.427   4.079   4.702  0.5039 -0.5303 -0.0753
42566SOL    HW136666   3.459   4.055   4.789  1.3327 -0.8294 -0.4562
42566SOL    HW236667   3.408   4.172   4.707 -0.4736 -0.7527  0.7297
42567SOL     OW36668   0.243   4.569   9.120 -0.0944 -0.4438  0.4111
42567SOL    HW136669   0.304   4.599   9.187  0.5212  1.1320 -0.7755
42567SOL    HW236670   0.158   4.566   9.164  0.1700  1.2726  1.1306
42568SOL     OW36671   9.353   9.167   8.966 -0.0629  0.0221  0.2335
42568SOL    HW136672   9.291   9.220   8.915 -1.2539 -2.0895 -0.6599
42568SOL    HW236673   9.436   9.176   8.920 -0.7716 -0.6333 -1.2479
42569SOL     OW36674   2.715   3.293   8.291 -0.1284 -0.1989 -1.0036
42569SOL    HW136675   2.742   3.352   8.220  0.0791  2.4660  1.1178
42569SOL    HW236676   2.622   3.279   8.276 -0.2744  1.0250 -1.4083
42570SOL     OW36677   2.183   8.772   6.508 -0.0241  0.3870  0.4718
42570SOL    HW136678   2.181   8.747   6.601 -1.5396  1.1795  0.6901
42570SOL    HW236679   2.270   8.747   6.478 -0.0824 -1.4040  1.6790
42571SOL     OW36680   8.387   8.270   7.365 -0.0823 -0.2865 -0.2013
42571SOL    HW136681   8.451   8.340   7.373 -1.6055  0.9747  1.6405
42571SOL    HW236682   8.318   8.306   7.309 -0.2277 -0.8288 -0.3832
42572SOL     OW36683   5.381  10.488  10.616 -0.2038  0.3791 -0.3335
42572SOL    HW136684   5.442  10.439  10.561  0.1227 -0.2822  0.5948
42572SOL    HW236685   5.395  10.454  10.704 -0.7035  1.4272  0.1749
42573SOL     OW36686  12.572   7.992   6.941 -0.2105  0.5718 -0.1985
42573SOL    HW136687  12.495   7.969   6.993  0.7182 -0.9969  0.5502
42573SOL    HW236688  12.548   7.971   6.851 -0.5997 -0.0839  0.0526
42574SOL     OW36689  10.849   5.982  11.409 -0.6226 -0.1869 -0.1566
42574SOL    HW136690  10.771   5.983  11.354 -1.6030 -2.3153  1.0378
42574SOL    HW236691  10.827   6.038  11.483 -0.5829  0.0589 -0.3290
42575SOL     OW36692   8.694   8.671   9.849  0.1573 -0.2174 -0.0260
42575SOL    HW136693   8.632   8.737   9.880  1.7741  1.7005 -0.6486
42575SOL    HW236694   8.745   8.647   9.926 -0.5592 -0.8947  0.2420
42576SOL     OW36695   7.939   4.477  10.294 -0.0131 -0.1367 -0.5698
42576SOL    HW136696   7.871   4.543  10.300  1.8428  1.7384  1.1699
42576SOL    HW236697   7.944   4.456  10.201 -2.7961 -0.2688 -0.7730
42577SOL     OW36698  10.921   5.627   9.948 -0.7222 -0.2026  0.1067
42577SOL    HW136699  10.884   5.621  10.036 -1.4754 -2.2875 -0.2887
42577SOL    HW236700  10.999   5.681   9.958 -1.8537  1.2622  1.6653
42578SOL     OW36701   2.281   2.070   1.707 -0.1212 -1.0069 -0.0691
42578SOL    HW136702   2.328   1.992   1.735  2.0125  0.8548  1.9261
42578SOL    HW236703   2.197   2.065   1.752  0.8285 -1.1557  1.7499
42579SOL     OW36704   4.292   3.242  10.896 -0.1944 -0.0488  0.1949
42579SOL    HW136705   4.275   3.152  10.868  0.6296 -0.0551 -0.3008
42579SOL    HW236706   4.373   3.266  10.852  1.1073 -0.0167  2.4718
42580SOL     OW36707   4.910   4.649   8.163  0.1417 -0.2591  0.0565
42580SOL    HW136708   4.878   4.610   8.244  1.3200  1.5247  1.4689
42580SOL    HW236709   4.835   4.697   8.128 -0.5517 -1.5433 -0.3005
42581SOL     OW36710   2.830  10.026   3.867 -0.0811  0.2446  0.7887
42581SOL    HW136711   2.897  10.084   3.904  0.0931 -0.8561  2.3098
42581SOL    HW236712   2.753  10.041   3.922 -0.2322 -0.4614  0.7763
42582SOL     OW36713   5.712   8.398   0.784  0.5606  0.3543  0.3217
42582SOL    HW136714   5.681   8.482   0.749  1.7849  0.2541 -1.1298
42582SOL    HW236715   5.800   8.388   0.747  0.4226 -1.5934  0.4271
42583SOL     OW36716   0.346  10.921   2.278  0.5047 -0.1676 -0.1821
42583SOL    HW136717   0.340  10.906   2.373  0.3388  2.6585  0.3303
42583SOL    HW236718   0.278  10.986   2.260  2.1115  1.1448 -1.7843
42584SOL     OW36719  11.586   1.063  12.206  0.2301 -0.1297 -0.4836
42584SOL    HW136720  11.511   1.005  12.218 -2.3963  2.4920 -2.5414
42584SOL    HW236721  11.602   1.100  12.293  0.1048 -1.7504  0.2651
42585SOL     OW36722   0.296   2.125   2.638  0.1774  0.3112 -0.0959
42585SOL    HW136723   0.223   2.138   2.578 -0.0868  0.0111  0.1510
42585SOL    HW236724   0.322   2.213   2.665 -1.2874  0.3980  1.2120
42586SOL     OW36725   2.061   4.149  12.208  0.5191  0.2064 -0.5932
42586SOL    HW136726   2.117   4.204  12.153  1.5761  0.2041  0.4447
42586SOL    HW236727   1.973   4.185  12.196  0.7786  0.4441 -1.9648
42587SOL     OW36728  10.562   3.899   4.557  0.2719 -0.7504  0.3706
42587SOL    HW136729  10.575   3.844   4.480  0.2623  0.0161 -0.1836
42587SOL    HW236730  10.555   3.837   4.629 -1.1640 -1.5745 -0.4252
42588SOL     OW36731   8.513   3.586   6.811 -0.2758  0.2193  0.3247
42588SOL    HW136732   8.534   3.634   6.731 -0.1586 -0.7914 -0.2728
42588SOL    HW236733   8.476   3.651   6.870 -0.9833  0.8440 -0.7939
42589SOL     OW36734   5.654   4.047   3.188  0.6666  0.4144 -0.4683
42589SOL    HW136735   5.683   4.005   3.269 -1.7126  0.8025  0.6661
42589SOL    HW236736   5.635   3.974   3.129 -0.8564 -0.0487  0.5505
42590SOL     OW36737  10.579   0.132   7.401 -0.6782 -0.2073  0.1413
42590SOL    HW136738  10.625   0.192   7.343 -2.8797  0.0578 -1.4413
42590SOL    HW236739  10.574   0.050   7.352 -0.1151 -0.8568  1.1433
42591SOL     OW36740   8.633   2.433   3.229 -0.4060 -0.1447 -0.1959
42591SOL    HW136741   8.640   2.459   3.321 -2.1810 -0.6171  0.0961
42591SOL    HW236742   8.702   2.368   3.218 -0.8695 -0.8980  1.1062
42592SOL     OW36743   5.829  10.463   4.445  0.0224 -0.0319 -0.0829
42592SOL    HW136744   5.813  10.537   4.503  0.2342 -0.1778  0.1616
42592SOL    HW236745   5.849  10.503   4.360 -2.3184  0.1688 -0.6121
42593SOL     OW36746   4.887   6.183   9.610  0.1950 -0.1281 -0.1208
42593SOL    HW136747   4.918   6.202   9.698 -0.9316 -0.9887  0.5035
42593SOL    HW236748   4.815   6.245   9.596  0.1399 -0.2297 -0.2911
42594SOL     OW36749   7.347   1.207   4.214  0.4379 -0.1483 -0.2597
42594SOL    HW136750   7.418   1.143   4.203  0.6969 -0.4315  2.3174
42594SOL    HW236751   7.273   1.155   4.245  0.4631  0.6547  1.2709
42595SOL     OW36752   1.391  11.799   1.189 -0.3549  0.3364 -0.3541
42595SOL    HW136753   1.356  11.718   1.226 -0.6901  0.0753 -1.2280
42595SOL    HW236754   1.426  11.846   1.264  0.4302 -0.9073  0.0821
42596SOL     OW36755  11.187   8.793   5.823 -0.3075  0.1515  0.2970
42596SOL    HW136756  11.115   8.771   5.764  0.1340  0.6581 -0.4531
42596SOL    HW236757  11.211   8.710   5.865 -0.2590 -0.3264 -0.6579
42597SOL     OW36758   4.646  11.887   1.632  0.1494 -0.4002 -0.1656
42597SOL    HW136759   4.709  11.815   1.631 -2.1321 -2.5550 -0.4372
42597SOL    HW236760   4.618  11.893   1.723  0.3124  0.1339 -0.1496
42598SOL     OW36761   4.606   6.290   4.592  0.2416  0.3970  0.1802
42598SOL    HW136762   4.701   6.284   4.585  0.1544 -0.6484 -0.3896
42598SOL    HW236763   4.575   6.202   4.569 -0.8885  0.8913 -0.2719
42599SOL     OW36764  10.227  10.822   8.343  0.6028  0.4893  0.0952
42599SOL    HW136765  10.219  10.773   8.425  0.7845 -0.5884 -0.5129
42599SOL    HW236766  10.321  10.832   8.330  0.5620  1.6284  0.5618
42600SOL     OW36767   0.004  10.030   1.350 -0.4451 -0.0923  0.0929
42600SOL    HW136768   0.018   9.969   1.278 -1.8922  1.2440 -1.4168
42600SOL    HW236769  -0.088  10.057   1.340 -0.0648  1.7377  1.1420
42601SOL     OW36770   3.621   2.085   3.229  0.4361 -0.6083  0.5898
42601SOL    HW136771   3.694   2.091   3.167  0.0860 -1.7694  0.0302
42601SOL    HW236772   3.600   1.991   3.231  0.8805 -0.7112  2.9925
42602SOL     OW36773   8.591   0.317   8.141 -0.0512  0.4703 -0.1374
42602SOL    HW136774   8.584   0.395   8.196  0.0499  0.6514 -0.3813
42602SOL    HW236775   8.552   0.343   8.058 -1.2192 -0.1454  0.1966
42603SOL     OW36776   4.331   9.132   8.852  0.2612  0.0394  0.2867
42603SOL    HW136777   4.416   9.092   8.835 -0.0267 -0.4997  0.0883
42603SOL    HW236778   4.306   9.171   8.768  0.6343  0.8334  0.5323
42604SOL     OW36779   7.685   1.701   0.190  0.3871 -0.1311  0.4677
42604SOL    HW136780   7.611   1.758   0.212 -2.0176 -3.0653  0.5992
42604SOL    HW236781   7.673   1.681   0.097  1.2265 -0.3520  0.4051
42605SOL     OW36782   8.636   1.823   5.185 -0.1641 -0.4825 -0.0048
42605SOL    HW136783   8.693   1.816   5.261 -1.7355  0.9954  1.3863
42605SOL    HW236784   8.661   1.906   5.144  1.2457 -1.6516 -1.6837
42606SOL     OW36785   2.870   2.273   0.359  0.1998  0.4888  0.0800
42606SOL    HW136786   2.935   2.244   0.296 -1.3788 -1.7810 -0.6418
42606SOL    HW236787   2.886   2.219   0.437  0.5806  1.5267  0.7368
42607SOL     OW36788   8.763   7.298   7.773 -0.1348 -0.1487  0.3046
42607SOL    HW136789   8.769   7.237   7.847  1.8432  0.0053  0.3120
42607SOL    HW236790   8.853   7.329   7.760 -0.3295 -0.5343 -2.4718
42608SOL     OW36791   0.004  10.359   9.406 -0.1536 -0.3517  0.3847
42608SOL    HW136792   0.003  10.277   9.356 -0.3475 -0.2661  0.2445
42608SOL    HW236793  -0.089  10.381   9.418 -0.1233  0.7319 -1.0675
42609SOL     OW36794  12.561  12.553   5.300 -0.0735  0.5291  0.2362
42609SOL    HW136795  12.615  12.534   5.224  1.1097  0.1387  1.1395
42609SOL    HW236796  12.587  12.640   5.328  1.6070 -0.3984  1.8350
42610SOL     OW36797   6.243   0.887   3.985 -0.1639  0.2743 -0.5408
42610SOL    HW136798   6.297   0.904   4.062 -0.3049 -0.6723 -0.2220
42610SOL    HW236799   6.169   0.948   3.993 -0.8920 -0.7522  0.7968
42611SOL     OW36800   9.755   2.972   5.916 -0.3242 -0.4701 -0.0243
42611SOL    HW136801   9.743   2.877   5.921 -1.0690 -0.4363 -0.8561
42611SOL    HW236802   9.849   2.984   5.911 -0.2440 -1.2011 -0.4490
42612SOL     OW36803  10.005  11.558   8.853  0.2538  0.7420  0.4048
42612SOL    HW136804  10.060  11.632   8.827  0.8534  0.5267  1.0399
42612SOL    HW236805   9.975  11.521   8.770  2.4696 -0.1854 -0.0459
42613SOL     OW36806   9.431   6.290   1.398  0.2712  0.2743  0.4958
42613SOL    HW136807   9.402   6.199   1.393 -0.8986  0.6649 -0.3411
42613SOL    HW236808   9.450   6.305   1.491  1.2488 -1.0302  0.5259
42614SOL     OW36809  11.222   6.319   9.564  0.3804  0.5105 -0.0925
42614SOL    HW136810  11.275   6.274   9.630 -1.6566 -0.5720  0.9156
42614SOL    HW236811  11.191   6.398   9.608  2.1540  1.8415 -1.1230
42615SOL     OW36812  12.579   2.414   4.135  0.4773  0.7280  0.0852
42615SOL    HW136813  12.631   2.394   4.057 -1.1260  0.8160 -1.0536
42615SOL    HW236814  12.643   2.416   4.207  1.6595 -1.8940 -0.7790
42616SOL     OW36815   9.865   3.328   4.343  0.1823 -0.6750  0.1605
42616SOL    HW136816   9.939   3.325   4.282 -0.9240 -2.4012 -1.1824
42616SOL    HW236817   9.873   3.248   4.394 -0.1283 -0.2935  0.8242
42617SOL     OW36818   9.421   1.688  10.347 -0.7180  0.4804 -0.7921
42617SOL    HW136819   9.490   1.633  10.385 -1.8304 -1.6859 -1.7321
42617SOL    HW236820   9.417   1.764  10.405  3.1730  1.3047 -1.2912
42618SOL     OW36821  11.707   6.793  12.063 -0.0401 -0.0496 -0.4541
42618SOL    HW136822  11.768   6.758  11.997  0.8648 -0.9858  0.8047
42618SOL    HW236823  11.686   6.717  12.118  0.3959  0.9588  1.1941
42619SOL     OW36824   2.718   0.220  11.882  0.1562  0.4961  0.4236
42619SOL    HW136825   2.756   0.172  11.809 -1.0350  0.3983 -0.1556
42619SOL    HW236826   2.759   0.306  11.879  2.1450 -0.3583  1.3283
42620SOL     OW36827   5.984   7.595   2.937  0.0711  0.1592  0.1613
42620SOL    HW136828   6.044   7.531   2.975 -0.5561  0.0809  1.0506
42620SOL    HW236829   6.038   7.672   2.922  0.2408  0.4199  1.8312
42621SOL     OW36830   5.794   9.960  10.047 -0.4716  0.1266 -0.2624
42621SOL    HW136831   5.867   9.989   9.993 -0.0497  1.7506  1.1244
42621SOL    HW236832   5.824   9.877  10.085 -0.0509 -0.0831 -1.0210
42622SOL     OW36833   0.229  10.989   2.814 -0.2337 -0.1371  0.3547
42622SOL    HW136834   0.312  10.952   2.786  0.0608  0.4856  0.3961
42622SOL    HW236835   0.191  10.922   2.871  0.7411  0.0222  1.2159
42623SOL     OW36836   5.644   4.769  11.948  0.8173  0.4949 -0.7491
42623SOL    HW136837   5.589   4.832  11.996 -0.7304 -1.3560  0.0513
42623SOL    HW236838   5.582   4.708  11.909  2.2612 -1.1832 -0.5724
42624SOL     OW36839  10.780   0.574   6.674  0.1284 -0.2832 -0.0977
42624SOL    HW136840  10.816   0.565   6.762  1.6796  1.9785 -0.4187
42624SOL    HW236841  10.706   0.513   6.672  1.9870 -2.8127  1.6649
42625SOL     OW36842  11.855   7.010   5.084  0.2611 -0.2418  0.1366
42625SOL    HW136843  11.925   6.945   5.079 -0.3190 -0.8513 -0.3988
42625SOL    HW236844  11.871   7.069   5.011  0.1933 -0.4088 -0.0143
42626SOL     OW36845   7.889   2.702  11.612  0.8644 -0.2766 -0.2426
42626SOL    HW136846   7.908   2.779  11.666  1.2304 -1.1710  0.9414
42626SOL    HW236847   7.931   2.630  11.658  2.3928 -0.8958 -2.4504
42627SOL     OW36848   6.120   1.419   2.407  0.4777  0.5843 -0.5639
42627SOL    HW136849   6.152   1.359   2.340 -1.7766 -0.9983 -0.3335
42627SOL    HW236850   6.036   1.450   2.373  0.0458  1.0093  0.8228
42628SOL     OW36851  11.433   1.887   7.013  0.1258  0.1735 -0.1700
42628SOL    HW136852  11.443   1.978   7.040  1.9613 -0.3410  1.0415
42628SOL    HW236853  11.410   1.893   6.920 -0.3881  1.8699  0.0266
42629SOL     OW36854  10.894  11.879   0.211 -0.6229  0.0743  0.5407
42629SOL    HW136855  10.864  11.812   0.150 -3.2851 -1.0796  2.9180
42629SOL    HW236856  10.967  11.838   0.257 -1.5796 -0.8575  1.2677
42630SOL     OW36857   9.621  12.179   3.280  0.0684  0.5166 -0.0424
42630SOL    HW136858   9.539  12.179   3.232 -0.3476  1.5428  0.6208
42630SOL    HW236859   9.614  12.104   3.340  0.8965 -1.2142 -2.0002
42631SOL     OW36860   5.016   4.852   1.948 -0.0456 -0.2851  0.1282
42631SOL    HW136861   5.046   4.857   1.857  1.5149  1.6623  0.6666
42631SOL    HW236862   5.076   4.790   1.990  0.6496  0.4910  0.2975
42632SOL     OW36863   1.228   2.351   7.627 -0.1576  0.1756  0.2918
42632SOL    HW136864   1.237   2.443   7.603 -1.1341 -0.0675 -1.1558
42632SOL    HW236865   1.294   2.305   7.575 -0.2566 -0.0304  0.3437
42633SOL     OW36866   1.946  10.416   8.910  0.3958 -0.0237 -0.2833
42633SOL    HW136867   1.874  10.450   8.857  0.7936  0.8688 -0.2771
42633SOL    HW236868   2.018  10.407   8.847  0.5295 -0.0697 -0.1232
42634SOL     OW36869   4.615   1.509   2.622 -0.0826  0.5079 -0.1363
42634SOL    HW136870   4.600   1.464   2.538  0.3609 -0.4863  0.2975
42634SOL    HW236871   4.678   1.578   2.601  2.6761 -1.7881 -0.0781
42635SOL     OW36872  12.535  12.307   4.394 -0.1700  0.4061 -0.7226
42635SOL    HW136873  12.532  12.400   4.374 -0.7736  0.6607  0.4797
42635SOL    HW236874  12.448  12.275   4.371  0.0108  0.1490 -1.0603
42636SOL     OW36875   2.917   4.351   3.800 -0.1793 -0.6462  0.1364
42636SOL    HW136876   2.944   4.259   3.801 -0.9272 -0.8799 -0.1507
42636SOL    HW236877   2.847   4.354   3.735  0.0232  0.1866 -0.0588
42637SOL     OW36878   5.335   7.813   0.306 -0.4238  0.0633  0.3921
42637SOL    HW136879   5.306   7.848   0.391 -0.2436  1.4511 -0.0943
42637SOL    HW236880   5.270   7.844   0.244 -0.5463 -0.9414 -0.0014
42638SOL     OW36881   3.975   7.510   6.404  0.2324  0.5049  0.6346
42638SOL    HW136882   3.981   7.415   6.410  1.2679  0.4194 -1.0235
42638SOL    HW236883   3.894   7.532   6.449 -1.0344 -1.3629 -0.5772
42639SOL     OW36884   2.467   3.405   3.351  0.1144 -0.2757  0.2527
42639SOL    HW136885   2.380   3.370   3.328  0.6759 -2.5536  1.3001
42639SOL    HW236886   2.453   3.454   3.432 -0.7739  2.5446 -1.4804
42640SOL     OW36887   1.293  12.417   2.921 -0.7779  0.7069  0.1462
42640SOL    HW136888   1.270  12.399   2.830  1.0278 -0.6197 -0.1024
42640SOL    HW236889   1.226  12.372   2.973 -1.1640  0.5021 -0.5256
42641SOL     OW36890   4.217  10.559   3.082 -0.3914 -0.3959 -0.0107
42641SOL    HW136891   4.249  10.614   3.010  0.5676 -0.0919  0.6307
42641SOL    HW236892   4.289  10.499   3.099 -1.1544 -1.3891 -0.2180
42642SOL     OW36893   3.155   3.720   9.762 -0.6869 -0.3245  0.1627
42642SOL    HW136894   3.086   3.776   9.727 -1.4610 -1.9054 -0.9440
42642SOL    HW236895   3.132   3.709   9.854 -1.8867 -0.7498 -0.1686
42643SOL     OW36896   9.443   6.929  11.714 -0.5766  0.4137  0.8019
42643SOL    HW136897   9.454   6.835  11.695  0.7312  1.0386 -2.0611
42643SOL    HW236898   9.367   6.932  11.772 -0.2037 -2.4540  1.6255
42644SOL     OW36899  12.547   9.131  10.768  0.1649 -0.4570 -0.0474
42644SOL    HW136900  12.515   9.055  10.718  0.8231 -0.3097 -0.7100
42644SOL    HW236901  12.474   9.192  10.767  0.6453  0.1854 -2.1981
42645SOL     OW36902   5.116   6.041   5.259  0.1003  0.2758 -0.6307
42645SOL    HW136903   5.137   5.994   5.340  0.0139 -0.2656 -0.9182
42645SOL    HW236904   5.115   5.973   5.192 -0.8527  0.5595 -0.9144
42646SOL     OW36905  10.526   9.290   4.761 -0.7268  0.1925 -0.1725
42646SOL    HW136906  10.475   9.355   4.809  0.4993  2.2264 -1.4398
42646SOL    HW236907  10.508   9.308   4.669  0.0698 -0.9343 -0.5788
42647SOL     OW36908   6.521   2.014   0.344  0.3029 -0.1187  0.0924
42647SOL    HW136909   6.488   1.943   0.400 -3.4386  0.3159 -1.3096
42647SOL    HW236910   6.458   2.085   0.356  1.1482  1.1325 -2.2615
42648SOL     OW36911  11.302   4.086   3.724  0.3555  0.1163 -0.6193
42648SOL    HW136912  11.387   4.057   3.692  1.1072  0.8399  0.6498
42648SOL    HW236913  11.296   4.177   3.697  0.5810  0.4547  0.4510
42649SOL     OW36914   3.112   1.058   6.748  0.6615  0.2539  1.0190
42649SOL    HW136915   3.088   1.150   6.748 -2.8617 -0.5215  0.9667
42649SOL    HW236916   3.129   1.037   6.656 -0.3538  0.4874  0.7667
42650SOL     OW36917  11.676   9.623   2.648  0.4949 -0.1283 -0.1870
42650SOL    HW136918  11.708   9.542   2.689  0.4948  0.5049  1.1287
42650SOL    HW236919  11.752   9.681   2.650 -0.9470  2.1507  4.9018
42651SOL     OW36920   2.048  10.412   4.083 -0.1129  0.5169 -0.1047
42651SOL    HW136921   2.137  10.413   4.047  0.2995  0.6312  0.8737
42651SOL    HW236922   2.025  10.505   4.092  0.6403  0.5669  1.8779
42652SOL     OW36923   4.606   4.106   5.200  0.1008 -0.3820 -0.0590
42652SOL    HW136924   4.632   4.106   5.292 -2.1335 -1.1109  0.6273
42652SOL    HW236925   4.637   4.021   5.167 -0.6431 -0.8985  0.5295
42653SOL     OW36926   4.423  10.979   7.236 -0.0167 -0.4407 -0.3415
42653SOL    HW136927   4.357  10.962   7.169 -0.3902 -0.5906  0.0567
42653SOL    HW236928   4.385  11.048   7.290  0.2471 -0.3740 -0.2371
42654SOL     OW36929  11.834   4.575   8.237 -0.0669 -0.0164 -0.1009
42654SOL    HW136930  11.916   4.621   8.256 -0.1864 -0.5283  2.0137
42654SOL    HW236931  11.768   4.623   8.286 -1.2544  0.9258 -2.5038
42655SOL     OW36932   4.694   9.717  11.334 -0.2775  0.1119 -0.0870
42655SOL    HW136933   4.673   9.624  11.345 -0.5436  0.1099 -0.5827
42655SOL    HW236934   4.779   9.727  11.376 -0.2591 -0.3518 -0.0056
42656SOL     OW36935   2.024  11.520   6.199  0.2428  0.2554  0.3903
42656SOL    HW136936   2.044  11.429   6.177  0.0611  0.3622 -0.2486
42656SOL    HW236937   2.108  11.565   6.191  0.4052  0.0792  1.0675
42657SOL     OW36938  11.355   6.024   0.453  0.3113  0.2371 -0.0314
42657SOL    HW136939  11.447   5.996   0.446  0.4679  0.5931  0.5075
42657SOL    HW236940  11.306   5.942   0.464  0.7591  0.1472  1.4836
42658SOL     OW36941  11.302   7.966   0.451 -0.0062 -0.0430  0.8474
42658SOL    HW136942  11.320   7.923   0.368  0.2605  2.2668 -0.3711
42658SOL    HW236943  11.388   7.977   0.492 -0.0264 -0.1818  0.9322
42659SOL     OW36944  10.747   2.729   4.364  0.6692 -0.3093 -0.1471
42659SOL    HW136945  10.805   2.731   4.288 -0.3412 -0.7858 -0.9490
42659SOL    HW236946  10.712   2.640   4.364 -0.0414 -0.0344  0.3467
42660SOL     OW36947   6.599   1.955   6.083 -0.3496 -0.8769  0.4017
42660SOL    HW136948   6.580   2.012   6.009 -0.7221 -0.0254  1.1489
42660SOL    HW236949   6.554   1.873   6.062 -2.1691  0.0156  0.6176
42661SOL     OW36950   2.098   5.164  10.722  0.1984 -0.0108 -0.5363
42661SOL    HW136951   2.081   5.100  10.653 -1.3979  1.2427 -1.3475
42661SOL    HW236952   2.044   5.240  10.700  2.8335  2.1195 -0.2344
42662SOL     OW36953   3.804  10.233   1.809  0.2752  0.2678 -0.5275
42662SOL    HW136954   3.767  10.260   1.725 -3.2020 -1.2843  0.3556
42662SOL    HW236955   3.788  10.139   1.813 -0.3512  0.4262  2.1623
42663SOL     OW36956   9.239  10.615  11.548  0.1995 -0.3029  0.1031
42663SOL    HW136957   9.242  10.681  11.478  0.9579  0.8695  1.1962
42663SOL    HW236958   9.216  10.534  11.503  2.1310  0.0938 -1.7684
42664SOL     OW36959   3.333   1.931   1.730 -0.5808  1.1848  0.3138
42664SOL    HW136960   3.415   1.980   1.736 -0.2035  0.4361  2.4900
42664SOL    HW236961   3.336   1.888   1.645  2.6156 -0.9289  1.3293
42665SOL     OW36962  10.617   0.271   4.236  0.3485 -0.0900 -0.2035
42665SOL    HW136963  10.680   0.316   4.292  0.2213  0.5573 -0.5621
42665SOL    HW236964  10.669   0.208   4.187  0.4488 -0.7159  0.6923
42666SOL     OW36965   7.499   5.609   5.069 -0.3262 -0.2612  0.3754
42666SOL    HW136966   7.551   5.594   5.148 -1.2983  3.0417  1.8355
42666SOL    HW236967   7.550   5.671   5.017  0.0005 -1.8985 -1.3811
42667SOL     OW36968   7.497  10.676  10.158  0.2523 -0.0148  0.6513
42667SOL    HW136969   7.405  10.695  10.172 -0.4174 -1.5252 -1.3200
42667SOL    HW236970   7.527  10.640  10.242 -0.5509  1.7136  1.7313
42668SOL     OW36971   9.044   6.849   0.633  0.0772 -0.5965  0.7586
42668SOL    HW136972   9.119   6.893   0.672 -0.7431 -0.2869  2.0610
42668SOL    HW236973   9.049   6.759   0.664 -1.2165 -0.0752  2.6383
42669SOL     OW36974   4.927   8.311   1.112 -0.0770 -0.0673 -0.0867
42669SOL    HW136975   4.885   8.247   1.169  0.6060 -1.6439 -1.2681
42669SOL    HW236976   5.011   8.271   1.088  1.5396  2.3542  1.0549
42670SOL     OW36977   1.210   4.092   7.447  0.8609  0.5829 -0.0524
42670SOL    HW136978   1.202   4.006   7.407  0.1217  0.2427  0.7802
42670SOL    HW236979   1.160   4.085   7.528  0.4043  1.9273 -0.1893
42671SOL     OW36980  12.119  11.870   0.545  0.3153  0.1111 -0.3476
42671SOL    HW136981  12.064  11.797   0.572  0.0294  0.3916 -0.1668
42671SOL    HW236982  12.058  11.936   0.514  0.5764  0.2452 -0.5807
42672SOL     OW36983   5.866   5.635  10.842 -0.2878 -0.0355  0.3009
42672SOL    HW136984   5.917   5.683  10.777 -1.2529 -0.7394 -1.0276
42672SOL    HW236985   5.924   5.565  10.871 -0.0695 -0.1131 -0.3091
42673SOL     OW36986   9.508   6.139   1.768  0.4899  0.1233  0.4050
42673SOL    HW136987   9.551   6.056   1.749 -0.8600 -0.3060 -0.9263
42673SOL    HW236988   9.449   6.120   1.841 -0.3595 -0.2930 -0.3757
42674SOL     OW36989   9.815   6.085  11.849 -0.0767  0.2375 -0.4376
42674SOL    HW136990   9.872   6.009  11.840 -1.0767 -0.7096  0.7601
42674SOL    HW236991   9.740   6.053  11.900 -0.4462  2.0654  0.2606
42675SOL     OW36992  10.866   1.663   8.621 -0.1262  0.1422 -0.1381
42675SOL    HW136993  10.785   1.664   8.570 -0.3778 -2.9393  0.0071
42675SOL    HW236994  10.852   1.728   8.690 -2.0976  0.3291 -0.6663
42676SOL     OW36995   7.349   1.433   7.430  0.2320 -0.2886 -0.3010
42676SOL    HW136996   7.359   1.500   7.363 -1.1493  1.2221  0.9108
42676SOL    HW236997   7.304   1.478   7.502 -0.3149 -2.4095  0.7575
42677SOL     OW36998   9.138   6.813   3.328  0.3979  0.0450  0.4635
42677SOL    HW136999   9.118   6.721   3.311 -1.3048  0.4192  0.2580
42677SOL    HW237000   9.145   6.852   3.241  2.5229 -0.1265  0.5124
42678SOL     OW37001  11.245   3.231   1.511 -0.2978  0.0421  0.4390
42678SOL    HW137002  11.182   3.205   1.445 -0.1060  1.4547 -0.3377
42678SOL    HW237003  11.242   3.327   1.512  2.0603  0.1867  0.1225
42679SOL     OW37004   6.658  10.141   2.162  0.2962 -0.2128 -0.3718
42679SOL    HW137005   6.692  10.186   2.239  0.0679 -1.4462  0.4778
42679SOL    HW237006   6.565  10.126   2.181 -0.9735  3.3389 -2.7675
42680SOL     OW37007   4.984   1.193   0.837  0.2200 -0.2330  0.1336
42680SOL    HW137008   4.947   1.212   0.924  0.1928 -1.3935  0.3949
42680SOL    HW237009   5.072   1.159   0.856  0.9159  1.1809 -0.4101
42681SOL     OW37010   3.840   9.537   5.053  0.0641 -0.6912  0.2564
42681SOL    HW137011   3.923   9.490   5.042  0.1516 -0.8359  1.3507
42681SOL    HW237012   3.843   9.569   5.143 -1.4803 -1.5049  0.6339
42682SOL     OW37013   7.702   6.051  10.956  0.1839  0.1419  0.5562
42682SOL    HW137014   7.767   5.988  10.925 -0.8832 -0.0982 -1.3022
42682SOL    HW237015   7.641   5.999  11.008  0.1322 -0.0740  0.2792
42683SOL     OW37016   9.781   5.446  11.454  0.3115  0.4625 -0.0505
42683SOL    HW137017   9.698   5.397  11.453  0.3573  0.3703 -1.7397
42683SOL    HW237018   9.771   5.508  11.526 -0.2784 -1.1008  1.3006
42684SOL     OW37019   1.272  12.188   2.299 -0.2419 -0.8864 -0.3853
42684SOL    HW137020   1.301  12.264   2.250 -0.6444  0.0449  0.7585
42684SOL    HW237021   1.186  12.212   2.333 -0.8600 -2.2742 -0.8782
42685SOL     OW37022   5.789  12.079   8.791  0.0676 -0.2767  0.3148
42685SOL    HW137023   5.830  11.996   8.769  0.1637 -0.8772  2.5456
42685SOL    HW237024   5.695  12.063   8.779  0.1985  0.0516 -1.4715
42686SOL     OW37025   5.911   7.706   0.206 -0.5579  0.4916 -0.2025
42686SOL    HW137026   5.855   7.781   0.187 -0.4719  0.3453 -1.0424
42686SOL    HW237027   5.929   7.713   0.300 -0.7668  1.3667 -0.2250
42687SOL     OW37028  12.212   3.750   2.099 -0.4029 -0.1884  0.1098
42687SOL    HW137029  12.141   3.690   2.079 -0.2058 -0.6212  0.6562
42687SOL    HW237030  12.175   3.837   2.087 -0.2676 -0.4011 -2.1333
42688SOL     OW37031   7.104  12.302   7.378 -0.5283 -0.6534  0.3802
42688SOL    HW137032   7.157  12.351   7.314  1.4019 -0.9543  1.6651
42688SOL    HW237033   7.018  12.343   7.374 -0.2782 -0.2068 -1.8912
42689SOL     OW37034  12.100   0.033   1.084  0.0405 -0.4922  0.5441
42689SOL    HW137035  12.078   0.117   1.123  0.3872  0.3081 -0.9211
42689SOL    HW237036  12.190   0.016   1.112 -0.4624 -1.0599  1.9338
42690SOL     OW37037   7.438  12.275   4.644  0.1349 -0.1843  0.2443
42690SOL    HW137038   7.499  12.348   4.642  0.8706 -0.7824  0.3406
42690SOL    HW237039   7.359  12.309   4.686  0.6337  0.4212  0.6811
42691SOL     OW37040  10.777  10.784   5.727  0.3213 -0.0332  0.0490
42691SOL    HW137041  10.815  10.827   5.803 -1.8742  2.7047 -0.2391
42691SOL    HW237042  10.717  10.718   5.764  1.6312 -0.9721  0.5640
42692SOL     OW37043   4.370   1.476   1.608  0.7996 -0.6243 -0.0332
42692SOL    HW137044   4.414   1.473   1.523  2.6996 -0.1065  0.8758
42692SOL    HW237045   4.424   1.421   1.665 -0.3522 -0.8456  0.8893
42693SOL     OW37046   1.712  11.122   0.208 -0.0437  0.3142  0.0788
42693SOL    HW137047   1.790  11.072   0.182 -1.4510 -1.0155 -1.9346
42693SOL    HW237048   1.739  11.213   0.200  1.1993 -0.1076 -1.0337
42694SOL     OW37049   3.238   9.846  10.901  0.2937 -0.2642  0.3198
42694SOL    HW137050   3.283   9.776  10.855 -1.1239 -1.2525  0.3704
42694SOL    HW237051   3.171   9.802  10.954  0.7643  0.9600  2.0445
42695SOL     OW37052   9.602   6.576   4.697  0.1428 -0.5456  0.2514
42695SOL    HW137053   9.557   6.653   4.663 -0.1133  0.0262  1.8176
42695SOL    HW237054   9.652   6.608   4.771  1.0861 -1.6640  0.1282
42696SOL     OW37055   7.560   9.132   2.458 -0.3321 -0.2260 -0.0094
42696SOL    HW137056   7.495   9.072   2.496  0.6197 -1.5567 -0.4024
42696SOL    HW237057   7.627   9.075   2.421  1.2554  1.0865  0.6760
42697SOL     OW37058  10.651   9.296   9.640 -0.3751 -0.2345 -0.2907
42697SOL    HW137059  10.650   9.273   9.547 -0.4232  0.1218 -0.3770
42697SOL    HW237060  10.574   9.352   9.652 -1.5872 -1.9537  0.3906
42698SOL     OW37061   8.800  12.102   5.472  0.0088  0.1559  0.1984
42698SOL    HW137062   8.705  12.088   5.468  0.0371 -0.1188  0.5114
42698SOL    HW237063   8.836  12.017   5.497  0.2923  0.4130  0.6749
42699SOL     OW37064   4.806   8.145   1.679 -0.5362  0.5299  0.0479
42699SOL    HW137065   4.857   8.170   1.602 -0.6238 -0.8046 -0.4747
42699SOL    HW237066   4.871   8.109   1.740 -0.8307 -1.6133 -0.8057
42700SOL     OW37067   3.982   8.930   7.790 -0.1011 -0.2266  0.0231
42700SOL    HW137068   3.979   8.842   7.754  0.9612 -0.4154  0.3590
42700SOL    HW237069   3.959   8.987   7.717 -1.0478 -0.7847 -0.1288
42701SOL     OW37070   3.754   6.719   8.229  0.0343 -0.3917  0.4104
42701SOL    HW137071   3.822   6.653   8.220 -0.9590 -1.4907  0.7232
42701SOL    HW237072   3.725   6.713   8.320 -0.5094  0.0313  0.2778
42702SOL     OW37073   1.174  11.912   0.545 -0.0290 -0.0894  0.5595
42702SOL    HW137074   1.112  11.871   0.605 -0.6939  0.6521  0.3850
42702SOL    HW237075   1.165  11.862   0.464 -0.2695 -0.1013  0.5915
42703SOL     OW37076   1.338  10.010   0.672  0.1747 -0.3707  0.0370
42703SOL    HW137077   1.359  10.101   0.649 -0.2060 -0.1780  0.4448
42703SOL    HW237078   1.383   9.958   0.605  0.9452  0.0873  0.1863
42704SOL     OW37079   9.207   2.706   0.128 -0.1399  0.6249 -0.9712
42704SOL    HW137080   9.124   2.674   0.093  1.0354 -1.0106 -2.3763
42704SOL    HW237081   9.262   2.720   0.052  1.3984  0.1523  0.0063
42705SOL     OW37082  10.182   8.977   7.618  0.5607  0.3140 -0.4152
42705SOL    HW137083  10.098   8.933   7.630 -1.0065  2.0646 -3.6354
42705SOL    HW237084  10.232   8.918   7.562  0.6581  0.1790 -0.1860
42706SOL     OW37085   1.805   6.131  10.556 -0.5325  0.5763  0.8343
42706SOL    HW137086   1.820   6.218  10.594 -0.4079  0.8873  0.0974
42706SOL    HW237087   1.892   6.096  10.540 -0.5773  0.6245  0.4590
42707SOL     OW37088   2.112   8.454  10.215 -0.0553  0.3717 -0.1592
42707SOL    HW137089   2.100   8.549  10.209  0.7829  0.4683 -0.4903
42707SOL    HW237090   2.193   8.437  10.165  0.1225 -0.4380  0.3864
42708SOL     OW37091   4.748   9.099   9.516 -0.0015  0.2713  0.2988
42708SOL    HW137092   4.748   9.106   9.611 -2.4518 -0.6152  0.4364
42708SOL    HW237093   4.666   9.140   9.488 -1.2508 -2.7688 -1.0369
42709SOL     OW37094   4.058   7.066   7.151 -0.3454 -0.5830 -0.0174
42709SOL    HW137095   4.084   7.054   7.059  2.2030  0.0716  0.5444
42709SOL    HW237096   4.012   7.150   7.151 -0.6384 -0.7303 -0.7326
42710SOL     OW37097   0.706   0.591   8.021  0.1366 -0.1895 -0.0811
42710SOL    HW137098   0.774   0.588   7.953  1.3553  1.6957  0.9411
42710SOL    HW237099   0.671   0.502   8.024  1.3422 -0.7870 -1.8653
42711SOL     OW37100   5.417   5.891   8.251 -0.3307  0.0162 -0.1206
42711SOL    HW137101   5.424   5.943   8.170 -1.0220 -0.2408 -0.3520
42711SOL    HW237102   5.323   5.885   8.268 -0.1511  1.1789  1.4441
42712SOL     OW37103   8.843   9.625   5.274  0.3748 -0.1213  0.5264
42712SOL    HW137104   8.782   9.570   5.225  0.6949  0.2633 -0.3230
42712SOL    HW237105   8.844   9.587   5.362  0.2507 -1.1873  0.0804
42713SOL     OW37106   0.897   3.861   8.789 -0.1952 -0.4747  0.1348
42713SOL    HW137107   0.875   3.948   8.754  0.7372 -0.7560 -1.2400
42713SOL    HW237108   0.830   3.844   8.855 -0.9244  0.9099 -0.2102
42714SOL     OW37109   2.478   3.775   4.178  0.6735 -0.1707 -0.0852
42714SOL    HW137110   2.467   3.870   4.171  1.1485  0.1859  2.8716
42714SOL    HW237111   2.571   3.760   4.157  0.3425 -0.1939 -1.6942
42715SOL     OW37112   1.708   5.616   4.498 -0.1806 -0.5150 -0.1832
42715SOL    HW137113   1.801   5.616   4.522  0.1900  0.1084 -1.4993
42715SOL    HW237114   1.671   5.541   4.544  0.6352  0.0851  1.5739
42716SOL     OW37115   3.704  11.655   8.465 -0.4220 -0.5991  0.1522
42716SOL    HW137116   3.725  11.675   8.556 -0.7105 -1.2010  0.3576
42716SOL    HW237117   3.767  11.587   8.440  0.1730  0.1220 -0.3523
42717SOL     OW37118   6.677  11.272   2.307  0.1498 -0.1720 -0.9349
42717SOL    HW137119   6.699  11.179   2.307 -0.0361 -0.2276 -0.1876
42717SOL    HW237120   6.742  11.313   2.251  0.2427 -0.7508 -1.2547
42718SOL     OW37121  10.797   1.355   1.152  0.1199  0.1565  0.1874
42718SOL    HW137122  10.812   1.262   1.135  0.1944 -0.3015  2.4783
42718SOL    HW237123  10.799   1.363   1.247  0.4155  2.5734  0.0418
42719SOL     OW37124  12.033   1.089   4.038 -0.2810  0.3231 -0.0021
42719SOL    HW137125  12.000   1.141   4.111  0.0666  1.3011 -0.5131
42719SOL    HW237126  12.057   1.155   3.972  1.6255 -0.3927 -0.0815
42720SOL     OW37127   4.081  12.520   9.932  0.5674  0.3853 -0.7117
42720SOL    HW137128   3.999  12.473   9.918 -0.9602  2.6990 -0.0891
42720SOL    HW237129   4.096  12.569   9.851  0.9425  0.5507 -0.5489
42721SOL     OW37130   8.774  10.185  11.085  0.4834 -0.4982  0.3961
42721SOL    HW137131   8.777  10.108  11.029  0.5129 -1.0604  1.1485
42721SOL    HW237132   8.852  10.236  11.060  1.7264 -1.8194  1.4135
42722SOL     OW37133  12.127   3.240   6.139  0.7052  0.1976 -0.2965
42722SOL    HW137134  12.127   3.319   6.085 -0.4711 -1.3495 -2.7530
42722SOL    HW237135  12.217   3.207   6.133  1.4358  1.7186  1.4573
42723SOL     OW37136   7.294   6.686   1.077  0.0178  0.1899 -0.5897
42723SOL    HW137137   7.369   6.687   1.136  1.1738  2.3292 -1.9848
42723SOL    HW237138   7.314   6.616   1.015  0.6484  0.4328 -0.6719
42724SOL     OW37139  11.414   2.674   4.978  0.1624  0.3441 -0.4128
42724SOL    HW137140  11.360   2.741   4.937  1.8918  2.4199  0.5098
42724SOL    HW237141  11.353   2.624   5.032 -0.7959  3.2859  1.4603
42725SOL     OW37142   6.358  12.592   4.774 -0.3615  0.1137  0.6008
42725SOL    HW137143   6.307  12.593   4.693 -1.3373 -1.3414  1.1607
42725SOL    HW237144   6.443  12.629   4.749  0.7543 -3.5767 -2.0393
42726SOL     OW37145   4.299   5.158   2.551  0.1147  0.4651 -0.1463
42726SOL    HW137146   4.214   5.127   2.521 -0.3137  0.1894  1.3190
42726SOL    HW237147   4.356   5.148   2.475 -0.3308 -2.5675 -0.1773
42727SOL     OW37148   7.877   1.638  11.072  0.1923  0.4315  0.6890
42727SOL    HW137149   7.970   1.619  11.085 -0.0132 -0.1121  1.4515
42727SOL    HW237150   7.870   1.667  10.981  1.1914  1.0111  0.7876
42728SOL     OW37151   9.821   9.649   7.112 -0.0033  0.5775 -0.0205
42728SOL    HW137152   9.761   9.604   7.172  1.4653  0.5576  1.5164
42728SOL    HW237153   9.828   9.590   7.037 -0.5810 -0.2180  0.5301
42729SOL     OW37154  11.490  11.016   2.542  0.1831  0.2431 -0.6503
42729SOL    HW137155  11.540  11.065   2.607  1.8222  0.4126 -1.9685
42729SOL    HW237156  11.469  11.080   2.474 -1.0360 -0.0521 -0.5908
42730SOL     OW37157   9.532  12.491   7.363 -0.1506  0.1195  0.5026
42730SOL    HW137158   9.537  12.408   7.316 -0.3419 -1.2359  2.7053
42730SOL    HW237159   9.601  12.545   7.325 -0.0258 -1.0277 -0.9958
42731SOL     OW37160   3.140  10.724   7.735 -0.3133  0.6076 -0.1510
42731SOL    HW137161   3.087  10.651   7.701  0.4880 -0.5454  0.9903
42731SOL    HW237162   3.230  10.698   7.719  0.0487  0.5210  1.8196
42732SOL     OW37163   5.454   0.112   0.367 -0.4116 -0.0003  0.1432
42732SOL    HW137164   5.532   0.118   0.311 -0.8661 -1.0524 -0.6287
42732SOL    HW237165   5.463   0.185   0.429  0.0856  1.2043 -1.3070
42733SOL     OW37166   5.679   8.948   3.388  0.2568  0.5895  0.2360
42733SOL    HW137167   5.607   8.931   3.328  2.2840 -1.5775 -1.8179
42733SOL    HW237168   5.733   9.013   3.344  1.1762 -0.1871  0.1628
42734SOL     OW37169  11.277   9.741   4.540  0.4612 -0.3123  0.3785
42734SOL    HW137170  11.320   9.749   4.455  0.5320  0.1547  0.4536
42734SOL    HW237171  11.291   9.826   4.581  0.8184 -0.6863  1.0402
42735SOL     OW37172   3.453   6.619   5.109 -0.3919 -0.0525 -0.8540
42735SOL    HW137173   3.449   6.679   5.183  0.6622  0.3158 -1.0807
42735SOL    HW237174   3.546   6.599   5.099 -0.3926  0.7421 -2.7435
42736SOL     OW37175   8.363   1.765  11.100 -0.1539  0.2071  0.3510
42736SOL    HW137176   8.293   1.700  11.097 -1.1261  1.1666  1.2280
42736SOL    HW237177   8.318   1.847  11.119  1.0346  1.1578 -0.7687
42737SOL     OW37178   5.677   8.296   3.324 -0.0799 -0.1909 -0.2005
42737SOL    HW137179   5.631   8.214   3.339 -1.1024  0.2299 -0.9239
42737SOL    HW237180   5.625   8.341   3.257  1.0375  0.5848 -0.5763
42738SOL     OW37181   9.947   4.542   3.001 -0.0271  0.3616  0.1157
42738SOL    HW137182   9.974   4.504   2.918  1.5282  1.5908  0.0123
42738SOL    HW237183  10.021   4.526   3.060 -0.8825 -0.0038  1.1234
42739SOL     OW37184   9.480  11.296   6.865 -0.7567  0.3129  0.1483
42739SOL    HW137185   9.540  11.325   6.934 -0.9137  1.4036 -0.1541
42739SOL    HW237186   9.410  11.250   6.912  1.4311 -3.1743  0.3568
42740SOL     OW37187   9.460   5.611   1.019 -0.2202 -0.1446  0.0117
42740SOL    HW137188   9.428   5.649   0.937 -0.8099  0.5331  0.5404
42740SOL    HW237189   9.438   5.519   1.013  0.0858 -0.1762 -0.7545
42741SOL     OW37190   5.849   7.359  11.285 -0.1617 -0.0825 -0.2979
42741SOL    HW137191   5.768   7.309  11.292  0.6130 -1.5769 -1.4202
42741SOL    HW237192   5.822   7.450  11.293 -2.3160 -0.3843 -2.9163
42742SOL     OW37193   8.217  10.718   8.713  0.0214  0.1618  0.0706
42742SOL    HW137194   8.121  10.720   8.705  0.0736 -0.6728 -1.1025
42742SOL    HW237195   8.245  10.796   8.665 -0.0802  0.7510  0.9454
42743SOL     OW37196   2.571   2.341   0.840  0.1718 -0.0785  0.3974
42743SOL    HW137197   2.594   2.325   0.749 -1.1183 -0.2797  0.0959
42743SOL    HW237198   2.525   2.262   0.868  0.2678  0.1150  1.1311
42744SOL     OW37199  12.083  11.801   5.883  0.2438  0.4907  0.1986
42744SOL    HW137200  12.172  11.789   5.848  0.3307  1.1025  0.1982
42744SOL    HW237201  12.042  11.864   5.823 -0.4890 -0.4556 -0.3094
42745SOL     OW37202   9.689   4.866   4.639 -0.2370  0.0294  0.2233
42745SOL    HW137203   9.641   4.938   4.598 -0.2174 -0.1315 -0.0826
42745SOL    HW237204   9.638   4.844   4.717  0.0449  0.7426  0.6240
42746SOL     OW37205   1.549  12.160   9.221  0.5618  0.3811 -0.0244
42746SOL    HW137206   1.496  12.081   9.220  0.9405  0.0834  1.6226
42746SOL    HW237207   1.553  12.187   9.129  0.5072 -1.5547 -0.6465
42747SOL     OW37208  10.341   1.464   3.722 -0.0540 -0.3075  0.2608
42747SOL    HW137209  10.427   1.423   3.720 -0.7051 -1.9090  2.0574
42747SOL    HW237210  10.359   1.558   3.730  1.4820 -0.4721 -0.7634
42748SOL     OW37211  10.655   7.437  11.140  0.4364  0.7237 -0.2933
42748SOL    HW137212  10.701   7.518  11.164  0.5754  0.3060  0.9127
42748SOL    HW237213  10.633   7.396  11.224 -2.2567  0.9485 -0.8052
42749SOL     OW37214   7.134  10.321   3.067 -0.4640  0.3177 -0.4755
42749SOL    HW137215   7.134  10.275   3.151  0.1012  0.0438 -0.6230
42749SOL    HW237216   7.043  10.348   3.055 -0.3989  1.1177  0.6308
42750SOL     OW37217   2.261  11.998  10.772 -0.0308  0.3105  0.1921
42750SOL    HW137218   2.193  12.047  10.817 -1.0492  1.1336 -2.0879
42750SOL    HW237219   2.333  12.060  10.760  0.6734 -0.2053  1.5069
42751SOL     OW37220   7.713   2.298   9.425  0.3833 -0.1033 -0.3093
42751SOL    HW137221   7.766   2.378   9.430  1.0176 -0.5185 -0.1364
42751SOL    HW237222   7.703   2.282   9.331  0.4487  0.0518 -0.3443
42752SOL     OW37223   1.648   8.003   5.892 -0.5331  0.2473  0.2355
42752SOL    HW137224   1.611   8.027   5.977  0.5235 -0.0333  0.7828
42752SOL    HW237225   1.606   8.063   5.830 -2.1085 -0.2401  0.7872
42753SOL     OW37226  10.820  12.394   5.787  0.2470  0.2041 -0.3298
42753SOL    HW137227  10.727  12.387   5.766  0.1663 -0.5196  0.2337
42753SOL    HW237228  10.865  12.352   5.714 -0.0092 -1.8923  0.6574
42754SOL     OW37229   7.791  11.960   7.173  0.3709 -0.3899 -0.3069
42754SOL    HW137230   7.779  11.980   7.266 -0.3415 -2.8510  0.1842
42754SOL    HW237231   7.816  12.044   7.134 -3.1373  1.6588  1.3866
42755SOL     OW37232   1.919   5.631   5.998  0.1009 -1.0621 -0.5269
42755SOL    HW137233   1.873   5.690   6.057  1.4157  1.0792 -1.5173
42755SOL    HW237234   2.012   5.651   6.010  0.5421 -2.3704 -1.4791
42756SOL     OW37235   5.930   7.611  11.887  0.2508 -0.3643 -0.2490
42756SOL    HW137236   5.923   7.516  11.874 -0.1022 -0.1558 -1.8680
42756SOL    HW237237   6.014   7.623  11.931  1.0464 -1.3460 -1.4071
42757SOL     OW37238   5.756   2.521   0.419 -0.1578  0.1789  0.3028
42757SOL    HW137239   5.695   2.449   0.401  0.3772 -0.1857 -0.0610
42757SOL    HW237240   5.765   2.566   0.335 -0.7581  0.8927  0.6062
42758SOL     OW37241   8.449   7.609   1.193  0.1644  0.3594 -0.1611
42758SOL    HW137242   8.465   7.526   1.149 -1.2754  0.7189 -1.4742
42758SOL    HW237243   8.367   7.641   1.154  0.2073  1.9532  0.9613
42759SOL     OW37244  12.450   4.997   7.886 -0.3725  0.0305  0.2856
42759SOL    HW137245  12.360   4.998   7.916  0.2657  1.1776  2.3433
42759SOL    HW237246  12.503   4.989   7.965  1.3562 -0.6116 -0.8564
42760SOL     OW37247  11.986   3.356  11.720  0.0689  0.1362 -0.2040
42760SOL    HW137248  12.009   3.263  11.718  1.1678  0.4085 -1.7174
42760SOL    HW237249  11.906   3.361  11.667 -1.0830 -0.1609  1.4007
42761SOL     OW37250   0.110   2.054   7.954 -0.1470 -0.2094 -0.7029
42761SOL    HW137251   0.145   2.062   7.866 -1.9109 -0.4092 -1.4692
42761SOL    HW237252   0.178   2.008   8.003  0.6273 -0.6086 -2.1086
42762SOL     OW37253  11.178   9.157   2.647 -0.9233 -0.1495 -0.7303
42762SOL    HW137254  11.127   9.113   2.579 -1.6356 -1.1813  0.4412
42762SOL    HW237255  11.261   9.109   2.649 -2.0994 -2.2570  1.2902
42763SOL     OW37256  10.790   9.015   5.548  0.0306 -0.5553  0.2354
42763SOL    HW137257  10.844   8.990   5.472 -1.8742 -0.0877 -1.3509
42763SOL    HW237258  10.851   9.061   5.606  1.0337  1.6896 -2.3597
42764SOL     OW37259   2.068  12.179  10.189  0.5235  0.1792 -0.3119
42764SOL    HW137260   1.992  12.121  10.191  0.4162  0.3319  1.5423
42764SOL    HW237261   2.030  12.267  10.178  0.5541  0.1063 -1.0449
42765SOL     OW37262  12.032   7.095   2.713  0.1290 -0.0140 -0.8114
42765SOL    HW137263  11.960   7.133   2.662  0.4949  0.2519 -1.1395
42765SOL    HW237264  12.078   7.039   2.651 -0.8471 -1.6216 -0.1436
42766SOL     OW37265   5.779  10.139   7.771  0.1719  0.3345  0.1949
42766SOL    HW137266   5.736  10.162   7.854 -0.0595 -0.4003  0.2908
42766SOL    HW237267   5.870  10.119   7.797  0.1515  0.3037  0.2436
42767SOL     OW37268   3.580   6.998   3.560  0.9133  0.2394  0.1407
42767SOL    HW137269   3.600   7.060   3.630  0.8966 -0.3218  0.6448
42767SOL    HW237270   3.666   6.970   3.528  0.9644 -1.2386  1.4836
42768SOL     OW37271   4.677   9.578   0.943 -0.5744  0.3245 -0.5292
42768SOL    HW137272   4.765   9.556   0.913 -1.0166  0.9403 -2.3533
42768SOL    HW237273   4.676   9.548   1.035  2.0833  1.8652  0.1102
42769SOL     OW37274   2.814   7.281   8.886 -0.0545 -0.2067  0.1760
42769SOL    HW137275   2.834   7.206   8.831 -1.2465 -0.2663 -0.1929
42769SOL    HW237276   2.847   7.356   8.838 -0.8015 -0.2902 -0.4845
42770SOL     OW37277   3.773   3.951   5.617 -0.3122 -0.0244  0.1710
42770SOL    HW137278   3.761   4.033   5.571 -1.7766 -0.2871  0.0505
42770SOL    HW237279   3.846   3.908   5.572  1.8424  2.0307  1.4658
42771SOL     OW37280   3.987   2.211   1.459 -0.0992  0.0539  0.1110
42771SOL    HW137281   3.927   2.263   1.512  0.3705 -1.1213  1.8677
42771SOL    HW237282   3.932   2.144   1.419 -0.3228  0.4312 -0.2197
42772SOL     OW37283  10.653   0.943   2.023  0.4619 -0.1470 -0.0486
42772SOL    HW137284  10.732   0.894   2.003 -0.0874 -1.3778  0.7381
42772SOL    HW237285  10.597   0.932   1.946 -0.0324 -1.5540  0.4890
42773SOL     OW37286   6.499   4.892   2.797 -0.5793 -0.8429  0.1739
42773SOL    HW137287   6.505   4.799   2.778  0.3490 -0.4566 -1.7026
42773SOL    HW237288   6.584   4.915   2.836 -0.2011 -0.5219 -0.8011
42774SOL     OW37289   7.343   4.963   0.013 -0.0662  0.1639 -0.6362
42774SOL    HW137290   7.413   4.983  -0.048  0.1199  0.3269 -0.3709
42774SOL    HW237291   7.384   4.965   0.099 -0.8733  2.5767 -0.2434
42775SOL     OW37292   0.794   9.846   5.771  0.5516 -0.3604 -0.3929
42775SOL    HW137293   0.724   9.847   5.706  0.0445 -1.3108  0.1276
42775SOL    HW237294   0.862   9.790   5.733 -0.5683 -2.5800  0.6911
42776SOL     OW37295   8.452   4.847   5.910 -0.0436  0.0195 -0.4422
42776SOL    HW137296   8.523   4.901   5.944 -1.7852  0.4259  3.0570
42776SOL    HW237297   8.391   4.910   5.871 -0.1904  0.1115 -0.0667
42777SOL     OW37298   4.953   8.537   9.895 -0.4825  0.0498 -0.6235
42777SOL    HW137299   4.996   8.513   9.813 -0.5191 -0.1198 -0.5948
42777SOL    HW237300   5.021   8.530   9.962 -0.0854  1.5583 -0.8332
42778SOL     OW37301   7.431   5.569   1.135  0.8963 -0.1175 -0.0825
42778SOL    HW137302   7.385   5.571   1.052  0.2103  0.7006  0.3010
42778SOL    HW237303   7.363   5.548   1.200  0.9607  1.4841  0.5354
42779SOL     OW37304   7.199   7.479   6.912 -0.0492 -0.1349 -0.2918
42779SOL    HW137305   7.173   7.388   6.897 -1.7339  0.2462  0.1656
42779SOL    HW237306   7.199   7.489   7.007  0.1792  0.3211 -0.3368
42780SOL     OW37307  12.220   2.685   4.652  0.4916  0.6205 -0.2259
42780SOL    HW137308  12.221   2.670   4.557 -1.1815  0.7104 -0.2984
42780SOL    HW237309  12.184   2.773   4.661 -2.5759 -0.5556  0.5118
42781SOL     OW37310   1.399   5.659   2.862 -0.2107 -0.2507  0.7654
42781SOL    HW137311   1.466   5.620   2.806 -0.3748  0.6078 -0.0439
42781SOL    HW237312   1.439   5.659   2.949  0.2744 -1.0715  0.5535
42782SOL     OW37313  10.296   3.886   0.411  0.1954 -0.1709 -0.6495
42782SOL    HW137314  10.223   3.932   0.370 -1.2123 -0.9643  0.8797
42782SOL    HW237315  10.328   3.828   0.342 -0.0235  0.7926 -1.6099
42783SOL     OW37316   3.124   0.365   5.586 -0.4875 -0.3023 -0.0235
42783SOL    HW137317   3.150   0.296   5.646  0.4057 -0.8343 -0.9780
42783SOL    HW237318   3.074   0.426   5.639 -0.8129 -1.3938  0.9677
42784SOL     OW37319   2.874   9.573   6.298 -0.7669 -0.0648  0.0929
42784SOL    HW137320   2.813   9.614   6.236  0.6027  0.0307 -1.2286
42784SOL    HW237321   2.938   9.641   6.317 -0.1448 -0.6671  0.1912
42785SOL     OW37322   0.597  10.301   9.820 -0.5544  0.4137  0.5331
42785SOL    HW137323   0.633  10.366   9.881 -2.4768  2.0089  0.0787
42785SOL    HW237324   0.639  10.321   9.737  0.8649 -0.7163  0.9501
42786SOL     OW37325   9.113   6.433   7.826  0.0185 -0.0637 -0.0287
42786SOL    HW137326   9.126   6.385   7.908 -0.3416  0.2064  0.1851
42786SOL    HW237327   9.172   6.508   7.832  0.6003 -0.4807 -0.3741
42787SOL     OW37328   7.077   4.772  11.068 -0.4965 -0.1919  0.2000
42787SOL    HW137329   7.121   4.805  11.146  1.4706  0.0425 -0.9295
42787SOL    HW237330   7.081   4.677  11.076 -0.2938 -0.1693  0.3766
42788SOL     OW37331   7.141   9.294   8.773 -0.0525  0.4314  0.2062
42788SOL    HW137332   7.205   9.362   8.797 -0.1357  0.3420  0.6876
42788SOL    HW237333   7.103   9.325   8.691  0.7710  0.3738 -0.2095
42789SOL     OW37334  12.044   8.782   7.293  0.4686 -0.2983 -0.7670
42789SOL    HW137335  11.979   8.712   7.294 -1.8308  1.7179 -0.4472
42789SOL    HW237336  12.089   8.771   7.210 -1.0064 -1.1380 -1.5030
42790SOL     OW37337   1.451   9.047   1.783 -0.4936 -0.0500  0.1318
42790SOL    HW137338   1.479   9.139   1.785 -0.5467 -0.0452  0.6554
42790SOL    HW237339   1.392   9.038   1.858 -1.4116 -0.2193 -0.5882
42791SOL     OW37340   6.338  11.343   5.973 -0.2929 -0.1054  0.5420
42791SOL    HW137341   6.419  11.290   5.975  0.6391  1.2375  2.7445
42791SOL    HW237342   6.269  11.281   5.997 -0.1007 -1.4379 -2.0488
42792SOL     OW37343  12.471   9.883   7.204 -0.1163 -0.3373 -0.4445
42792SOL    HW137344  12.435   9.912   7.288  0.9983  1.2493 -0.4701
42792SOL    HW237345  12.522   9.805   7.225  0.6649  0.3943  0.4958
42793SOL     OW37346   2.818   9.902   6.979 -0.2134 -0.5377  0.2857
42793SOL    HW137347   2.852   9.982   6.940 -0.2154  0.0620  1.4491
42793SOL    HW237348   2.743   9.878   6.924  0.0818 -0.0177 -0.3529
42794SOL     OW37349  12.018   1.416   5.273 -0.0726 -0.3593  0.5287
42794SOL    HW137350  12.068   1.336   5.289  0.9376  0.2236  0.3333
42794SOL    HW237351  12.015   1.423   5.178  0.4405  0.2073  0.5552
42795SOL     OW37352   2.707   6.998   6.686  0.6652 -0.3597 -0.7520
42795SOL    HW137353   2.636   6.972   6.627  0.3409  1.5675 -1.2782
42795SOL    HW237354   2.768   7.047   6.631  1.7772 -0.8724 -0.0265
42796SOL     OW37355   5.300  10.060  12.189  0.2270 -0.0199 -0.3042
42796SOL    HW137356   5.377  10.117  12.183  0.3925 -0.3011 -0.8867
42796SOL    HW237357   5.237  10.098  12.128 -0.2523  0.4413  0.4696
42797SOL     OW37358   6.668   3.165  10.932 -0.1121 -0.9126 -0.8465
42797SOL    HW137359   6.634   3.163  10.842 -0.4865  1.6322 -0.8425
42797SOL    HW237360   6.756   3.202  10.923 -1.2280  2.2297  0.0009
42798SOL     OW37361  12.545   0.774   7.755  0.7359  0.1463  0.1441
42798SOL    HW137362  12.637   0.790   7.774  0.8193  1.0093 -0.8842
42798SOL    HW237363  12.498   0.815   7.828  1.1172  1.1331 -0.1514
42799SOL     OW37364   5.676   7.852   0.147 -0.2925 -0.0832 -0.1328
42799SOL    HW137365   5.595   7.817   0.111 -0.2219  0.4552 -0.8374
42799SOL    HW237366   5.669   7.947   0.135  0.5337 -0.0485 -0.4118
42800SOL     OW37367   2.822  11.072   4.358 -0.5655  0.4366 -0.1827
42800SOL    HW137368   2.905  11.047   4.397 -0.7664  1.3539  0.8727
42800SOL    HW237369   2.841  11.154   4.312 -0.3781 -0.5230 -1.8959
42801SOL     OW37370   6.721  12.087   8.684 -0.2995 -0.2791 -0.0260
42801SOL    HW137371   6.717  12.176   8.649 -0.8992  0.3372  1.5002
42801SOL    HW237372   6.813  12.074   8.706 -0.2561  0.0975  0.0306
42802SOL     OW37373  11.862  11.496   6.933  0.1921 -0.2621 -0.2716
42802SOL    HW137374  11.838  11.589   6.939  0.4307 -0.1874 -0.4738
42802SOL    HW237375  11.826  11.468   6.848  0.7141 -0.1801 -0.5216
42803SOL     OW37376  10.910   9.799   5.559  0.1950  0.2444 -0.9965
42803SOL    HW137377  10.939   9.741   5.629  0.5392 -0.2213 -1.5188
42803SOL    HW237378  10.838   9.849   5.598  0.7616  0.4076 -0.1287
42804SOL     OW37379   1.153   1.915   1.697  0.3943  0.0783  0.1562
42804SOL    HW137380   1.075   1.898   1.644  1.7234 -0.0280 -1.8757
42804SOL    HW237381   1.179   2.004   1.673 -0.0676  0.7861  2.1531
42805SOL     OW37382  11.756   3.940   1.670  0.2516  0.3789  0.3536
42805SOL    HW137383  11.800   4.013   1.626 -1.1676  0.9094 -0.2148
42805SOL    HW237384  11.735   3.973   1.757  1.3240 -0.0229  0.7845
42806SOL     OW37385  12.369   2.548   5.772  0.1502  0.1506 -0.7238
42806SOL    HW137386  12.448   2.520   5.818 -0.5679 -0.4604  0.1537
42806SOL    HW237387  12.339   2.625   5.819  1.9441  2.3582 -2.9465
42807SOL     OW37388  11.049   7.042   2.219 -0.0052 -0.2600 -0.2262
42807SOL    HW137389  11.116   7.015   2.157 -0.3882 -2.3668  0.2083
42807SOL    HW237390  11.097   7.091   2.286  0.6266  0.7200 -1.3624
42808SOL     OW37391   7.961   0.381  11.233  0.1987  0.4482 -0.0716
42808SOL    HW137392   7.969   0.400  11.140 -0.6304 -2.2917 -0.7830
42808SOL    HW237393   8.048   0.350  11.258  0.3232  0.8373 -0.0182
42809SOL     OW37394  10.121   8.940  11.808 -0.4303 -0.2799  0.2885
42809SOL    HW137395  10.037   8.946  11.762 -1.4433  1.6390  2.2064
42809SOL    HW237396  10.187   8.964  11.743 -1.4058 -1.2250 -1.0880
42810SOL     OW37397  11.512   2.671   7.902 -0.0129 -0.2488  0.7089
42810SOL    HW137398  11.569   2.633   7.969  0.2727  0.5087  0.9100
42810SOL    HW237399  11.530   2.765   7.906 -0.5724 -0.1082  0.1057
42811SOL     OW37400   3.950  10.836   6.305 -0.8656 -0.6937 -0.1386
42811SOL    HW137401   3.951  10.931   6.294  0.6652 -0.6971 -0.3306
42811SOL    HW237402   3.870  10.818   6.354 -1.1039  0.7060  0.0359
42812SOL     OW37403   6.709   6.660   3.326  0.5685  0.3354  0.5767
42812SOL    HW137404   6.645   6.590   3.341 -0.2626 -0.0226 -3.3988
42812SOL    HW237405   6.720   6.701   3.411 -1.6976 -2.3016  2.3323
42813SOL     OW37406   5.605   0.566   0.702  0.2453  0.5190  0.2928
42813SOL    HW137407   5.528   0.547   0.648 -0.1952 -0.8161  1.3361
42813SOL    HW237408   5.573   0.628   0.768 -0.8366 -2.2333  2.5688
42814SOL     OW37409   9.129   8.126   5.367 -0.0479 -0.2625  0.1262
42814SOL    HW137410   9.121   8.058   5.300  0.5419 -0.1695 -0.0420
42814SOL    HW237411   9.175   8.197   5.323  0.9232 -0.4526  0.8029
42815SOL     OW37412   2.133   7.903   3.948  0.3438 -0.1639 -0.3150
42815SOL    HW137413   2.163   7.814   3.929 -0.0012 -0.0410 -1.5218
42815SOL    HW237414   2.209   7.958   3.931  0.6756 -0.2481  0.8166
42816SOL     OW37415   2.669   5.750   5.344  0.7322 -0.0961  0.2671
42816SOL    HW137416   2.671   5.786   5.433  1.3542  0.2654  0.1127
42816SOL    HW237417   2.758   5.762   5.311  0.0314  1.7068 -1.1617
42817SOL     OW37418   0.107   0.965   6.501  0.0184  0.2543 -0.2738
42817SOL    HW137419   0.192   0.933   6.470 -1.6116 -3.3285 -1.5657
42817SOL    HW237420   0.107   0.947   6.595  0.7908  0.5811 -0.2061
42818SOL     OW37421   8.410   5.249   2.192 -0.5556  0.2635 -0.2906
42818SOL    HW137422   8.320   5.264   2.221 -0.0203 -0.9600  2.3167
42818SOL    HW237423   8.431   5.160   2.223  2.4058  1.4934  1.6919
42819SOL     OW37424  10.294   9.948   8.014 -0.0661 -0.3408  0.7948
42819SOL    HW137425  10.222   9.894   8.046  0.7770 -1.1150  1.4699
42819SOL    HW237426  10.370   9.918   8.065  1.0215 -0.5630 -0.8983
42820SOL     OW37427  11.534   1.925  12.248  0.1456 -0.4194  0.7121
42820SOL    HW137428  11.569   1.989  12.186 -0.9329  0.9686  1.4862
42820SOL    HW237429  11.574   1.842  12.222  1.3880  0.5128 -0.4759
42821SOL     OW37430   6.700  10.434   7.463 -0.2468  0.1878  0.2530
42821SOL    HW137431   6.656  10.417   7.380  1.4088  0.8726 -0.8074
42821SOL    HW237432   6.637  10.487   7.513 -2.0349 -1.8204  0.2732
42822SOL     OW37433   2.352   7.711   0.786 -0.2365  0.0736 -0.0131
42822SOL    HW137434   2.293   7.785   0.775 -0.8068 -0.4585 -0.5343
42822SOL    HW237435   2.440   7.751   0.788 -0.2657  0.5291 -3.3352
42823SOL     OW37436   7.186   3.042  12.100  0.2930  0.2474  0.0737
42823SOL    HW137437   7.105   2.991  12.094  0.2357 -0.0880  2.6750
42823SOL    HW237438   7.227   3.032  12.014 -1.6251 -0.9100 -0.7733
42824SOL     OW37439  11.436   8.139   8.941 -0.0428 -0.4911  0.5100
42824SOL    HW137440  11.437   8.225   8.897  2.6717 -0.5681  0.2340
42824SOL    HW237441  11.361   8.094   8.903 -0.5863  1.1896 -0.5382
42825SOL     OW37442   9.133   7.146   0.452  0.5683  0.0601  0.1004
42825SOL    HW137443   9.199   7.206   0.418 -0.4626  1.8226  1.0222
42825SOL    HW237444   9.072   7.133   0.379  0.7216  0.2537 -0.0621
42826SOL     OW37445  10.546   0.944  11.933  0.2873 -0.2594  0.7491
42826SOL    HW137446  10.572   0.853  11.917  0.4813 -0.3557  1.5405
42826SOL    HW237447  10.453   0.946  11.913 -0.0809 -1.0308  2.1989
42827SOL     OW37448  11.789   1.736   2.305  0.4984  0.0027  0.1007
42827SOL    HW137449  11.790   1.826   2.338 -1.5364 -0.5274  1.9000
42827SOL    HW237450  11.764   1.744   2.213 -1.2423  1.2429  0.6321
42828SOL     OW37451   3.297   5.382   2.462  0.8191 -0.1463 -0.0150
42828SOL    HW137452   3.222   5.368   2.519  1.1839 -1.4736  0.1603
42828SOL    HW237453   3.349   5.450   2.506  0.8520 -0.8108  0.9985
42829SOL     OW37454   0.371   1.194   5.792 -0.2772 -0.9115  0.4645
42829SOL    HW137455   0.424   1.167   5.717 -0.7368 -0.7597  0.0783
42829SOL    HW237456   0.416   1.157   5.868  1.2581  0.4972  0.3105
42830SOL     OW37457   0.657  10.274   5.681  0.3081 -0.4660 -0.0359
42830SOL    HW137458   0.733  10.279   5.623 -0.2431 -0.9631 -0.8274
42830SOL    HW237459   0.585  10.249   5.623 -0.1488 -1.5288  0.9666
42831SOL     OW37460   5.276  12.463   1.343  0.4585  0.3944 -0.0068
42831SOL    HW137461   5.372  12.465   1.343  0.5404 -1.4947  0.1861
42831SOL    HW237462   5.252  12.468   1.435  0.4980 -1.1678  0.1212
42832SOL     OW37463   7.908  10.445   8.842  0.5858  0.3198 -0.0902
42832SOL    HW137464   7.990  10.407   8.811 -0.2674  0.2404 -2.4303
42832SOL    HW237465   7.892  10.520   8.784 -0.4108  1.0595  1.0852
42833SOL     OW37466   9.962   2.643   6.874 -0.3320  0.5960  0.4318
42833SOL    HW137467   9.918   2.607   6.796  1.0587  1.2318 -0.6952
42833SOL    HW237468  10.049   2.668   6.843  0.3096  0.7424  2.2505
42834SOL     OW37469   2.985   2.255   1.350  0.1660  0.3164  0.0548
42834SOL    HW137470   2.996   2.330   1.291  0.4781  0.2771  0.0596
42834SOL    HW237471   3.035   2.185   1.308 -2.4951 -0.7923 -1.5066
42835SOL     OW37472  11.491  10.656   1.280 -0.4311 -0.1435 -0.5027
42835SOL    HW137473  11.440  10.576   1.286 -0.0106 -0.4823 -1.2560
42835SOL    HW237474  11.480  10.699   1.365  1.8551 -2.5041  1.1062
42836SOL     OW37475  11.773   4.521   0.955  0.4032 -0.2739  0.3053
42836SOL    HW137476  11.859   4.486   0.932  0.8363  1.6921 -1.3430
42836SOL    HW237477  11.790   4.577   1.031  0.4199 -0.5678  0.5184
42837SOL     OW37478   2.952   1.056   6.199  0.0527  0.2204 -0.0351
42837SOL    HW137479   2.939   0.966   6.168 -2.0289  0.1815  0.7918
42837SOL    HW237480   2.899   1.062   6.278 -0.8321  2.5070 -0.7226
42838SOL     OW37481   7.591  10.911   3.698  0.6121 -0.1567 -0.0282
42838SOL    HW137482   7.564  10.821   3.681  0.4094  0.0097 -0.5893
42838SOL    HW237483   7.663  10.902   3.761 -0.6368 -0.6068  1.4186
42839SOL     OW37484   9.205   5.417   2.425 -0.0201  0.3779  0.0325
42839SOL    HW137485   9.141   5.485   2.405 -0.4154  0.4708  1.4867
42839SOL    HW237486   9.173   5.340   2.377 -0.2930  0.8545 -0.5754
42840SOL     OW37487  11.206   3.623   6.048  0.4162 -0.3859 -0.1773
42840SOL    HW137488  11.285   3.570   6.045 -0.7935 -2.3785  1.1115
42840SOL    HW237489  11.141   3.574   5.997 -0.8319 -0.4134  1.3363
42841SOL     OW37490  10.365   9.242   5.139 -0.5206  0.5435  0.0984
42841SOL    HW137491  10.348   9.168   5.081  1.3457 -0.0586  0.2608
42841SOL    HW237492  10.363   9.318   5.081 -1.7222  0.3071 -0.1934
42842SOL     OW37493   0.661   8.311   6.158  0.1910 -0.2513  0.0628
42842SOL    HW137494   0.719   8.372   6.112 -0.0583  1.3253  1.7046
42842SOL    HW237495   0.648   8.351   6.244 -2.8630 -0.8131 -0.0196
42843SOL     OW37496  11.667   5.697   1.464  0.6430  0.0305  0.3363
42843SOL    HW137497  11.733   5.646   1.417  0.8711  1.5100 -1.0380
42843SOL    HW237498  11.717   5.754   1.522  0.8284  2.5923 -2.1394
42844SOL     OW37499   8.318  10.581   5.934 -0.0053 -0.6890 -0.1739
42844SOL    HW137500   8.230  10.608   5.959 -0.1696 -1.3134 -0.0411
42844SOL    HW237501   8.359  10.553   6.017  0.4881  0.0579 -0.1570
42845SOL     OW37502   1.755  11.857   2.383  0.2568 -0.2728 -0.3380
42845SOL    HW137503   1.836  11.846   2.433  0.8402  1.5582 -0.8085
42845SOL    HW237504   1.688  11.872   2.449  0.7912  0.8553 -0.0250
42846SOL     OW37505   6.245  10.625   5.282 -0.0520  0.0998 -0.3981
42846SOL    HW137506   6.212  10.675   5.357  0.1801  0.5615 -0.6022
42846SOL    HW237507   6.285  10.690   5.225  1.6719 -0.4975  0.0707
42847SOL     OW37508   6.619   2.163  11.251  0.1672  0.3755  0.0948
42847SOL    HW137509   6.563   2.154  11.328  1.1404  0.1934  0.7882
42847SOL    HW237510   6.559   2.147  11.177 -0.6861  0.1222  0.8190
42848SOL     OW37511  12.361   5.298   2.771 -0.4538 -0.0219 -0.5064
42848SOL    HW137512  12.318   5.250   2.841 -0.5982  0.4602 -0.2643
42848SOL    HW237513  12.291   5.319   2.710 -0.4087 -0.0161 -0.5559
42849SOL     OW37514   1.486  12.491   3.097 -0.3867  0.5238  0.6328
42849SOL    HW137515   1.414  12.487   3.034 -1.4404 -0.8231  1.8176
42849SOL    HW237516   1.447  12.457   3.179  2.0062 -1.9824  0.8845
42850SOL     OW37517   0.052   6.636   4.930  0.0815 -0.1281  0.5745
42850SOL    HW137518   0.110   6.561   4.918 -0.4445 -0.6657  1.2675
42850SOL    HW237519   0.088   6.682   5.006  0.3560  0.2790  0.1999
42851SOL     OW37520   5.439   8.162   4.526  0.2679  0.5089 -0.0423
42851SOL    HW137521   5.460   8.073   4.555  0.1787  0.5306  0.0897
42851SOL    HW237522   5.360   8.185   4.574  0.6504  0.9011  0.4113
42852SOL     OW37523   1.531  11.255   7.247 -0.2787 -0.3675 -0.4205
42852SOL    HW137524   1.461  11.321   7.246  0.4078  0.3957  0.0312
42852SOL    HW237525   1.598  11.290   7.188 -0.2859 -1.0978 -0.8632
42853SOL     OW37526   1.979   0.695   4.327 -0.3789  0.0581 -0.0208
42853SOL    HW137527   1.920   0.766   4.303 -0.0603 -0.0227 -1.1036
42853SOL    HW237528   2.054   0.705   4.269 -0.0907 -0.8549  0.1651
42854SOL     OW37529   2.090   6.550   6.542 -0.5220  0.8695 -0.0541
42854SOL    HW137530   2.173   6.554   6.493 -0.4833 -0.0238 -0.0852
42854SOL    HW237531   2.115   6.569   6.632  0.5818 -3.5633  0.8445
42855SOL     OW37532   9.080   3.920   6.522 -0.3198  0.6344 -0.3884
42855SOL    HW137533   8.997   3.929   6.570  0.2407  0.8127  0.5801
42855SOL    HW237534   9.083   3.997   6.465 -1.0233  0.3980 -0.7520
42856SOL     OW37535   3.872   6.163   3.867  0.0022  0.3594 -0.2383
42856SOL    HW137536   3.921   6.136   3.790 -1.6069  1.5388 -1.7573
42856SOL    HW237537   3.868   6.085   3.922  1.5484 -0.3877 -1.1180
42857SOL     OW37538  12.198   8.491   3.145  0.3498 -0.0515  0.7244
42857SOL    HW137539  12.196   8.401   3.179  2.2380 -0.2857  0.3401
42857SOL    HW237540  12.201   8.546   3.224  1.5846 -0.4601  0.9949
42858SOL     OW37541   4.647   6.153  10.911  0.0269  0.1590  0.3601
42858SOL    HW137542   4.671   6.080  10.854  1.2696  1.8695 -1.4285
42858SOL    HW237543   4.552   6.157  10.905  0.0074 -0.7554 -0.2328
42859SOL     OW37544   6.716   2.993   9.641 -0.6500  0.3346 -0.1032
42859SOL    HW137545   6.662   2.916   9.660 -0.1701 -0.3188 -1.2881
42859SOL    HW237546   6.763   2.970   9.561  0.3078  1.4537  0.1164
42860SOL     OW37547   7.657  11.217   6.895  0.2189  0.5148  0.8627
42860SOL    HW137548   7.609  11.217   6.978  1.0911 -0.2725  1.3895
42860SOL    HW237549   7.725  11.150   6.907  0.8579  0.9532 -0.1973
42861SOL     OW37550   4.037   0.956   5.611  0.0120 -0.6108 -0.0718
42861SOL    HW137551   4.046   0.974   5.705  3.8367 -1.9860  0.0110
42861SOL    HW237552   4.048   1.042   5.570  3.9152 -0.5543  0.7124
42862SOL     OW37553   5.614   0.108  10.199 -0.0660 -0.2663 -0.1398
42862SOL    HW137554   5.640   0.160  10.274 -1.4035 -0.8483  0.7592
42862SOL    HW237555   5.528   0.073  10.222 -1.5151  1.2286 -2.7940
42863SOL     OW37556  11.738   1.417   0.043 -0.3014 -0.2006  0.7025
42863SOL    HW137557  11.778   1.471   0.111 -1.6042  1.9057 -0.1014
42863SOL    HW237558  11.799   1.421  -0.030  0.1776 -0.8270  1.0689
42864SOL     OW37559   4.048   7.479   1.774 -0.3114 -0.4968 -0.0288
42864SOL    HW137560   4.090   7.547   1.721  0.1347 -0.9649 -0.2921
42864SOL    HW237561   4.118   7.415   1.790 -0.3933 -0.2773  1.2767
42865SOL     OW37562   9.201   2.035  10.238  0.0160  0.1567  0.0764
42865SOL    HW137563   9.152   2.031  10.320 -0.4105 -3.0280 -0.2176
42865SOL    HW237564   9.150   2.093  10.182 -1.0740  0.3182  1.2004
42866SOL     OW37565   5.635   8.729   2.463  0.3613 -0.0254  0.0775
42866SOL    HW137566   5.708   8.676   2.431 -0.2384 -0.3202 -0.8513
42866SOL    HW237567   5.560   8.669   2.464  0.1035  0.2902  0.9343
42867SOL     OW37568  11.473   4.280   1.862 -0.4837 -0.3393 -0.2969
42867SOL    HW137569  11.398   4.310   1.811 -0.5696 -0.5969 -0.3230
42867SOL    HW237570  11.436   4.222   1.928 -0.2932 -0.5899 -0.4071
42868SOL     OW37571   0.156   4.908  12.191 -0.7528  0.3464  0.4337
42868SOL    HW137572   0.128   4.998  12.208 -0.0489  0.4788  0.9471
42868SOL    HW237573   0.085   4.854  12.227 -0.2984  0.6726  1.9121
42869SOL     OW37574  12.464   8.063   2.067 -0.0067 -0.0560 -0.2259
42869SOL    HW137575  12.456   8.101   1.980  0.1280 -0.3433 -0.3663
42869SOL    HW237576  12.514   8.127   2.117  1.0002 -0.4454 -0.7130
42870SOL     OW37577   1.559   1.760   1.157 -0.0934  0.8171  0.1257
42870SOL    HW137578   1.464   1.753   1.161  0.0534 -1.4057  0.8843
42870SOL    HW237579   1.582   1.816   1.231 -0.7230  0.1332  0.8512
42871SOL     OW37580  11.167   0.956   2.958 -0.2914  0.6934  0.5319
42871SOL    HW137581  11.082   0.912   2.952 -0.7750  1.7867 -3.3393
42871SOL    HW237582  11.145   1.049   2.968  0.1788  1.3396 -3.1683
42872SOL     OW37583   8.599   7.636   0.235 -0.2305  0.3756 -0.1372
42872SOL    HW137584   8.655   7.559   0.240 -1.3012 -0.4923 -1.0528
42872SOL    HW237585   8.528   7.619   0.297 -0.7323  0.3948 -0.6975
42873SOL     OW37586   2.309   6.968   5.488 -0.1441  0.6006 -0.5230
42873SOL    HW137587   2.233   6.984   5.433 -0.8538 -1.2958 -0.1690
42873SOL    HW237588   2.277   6.982   5.577  0.1387  0.5923 -0.4195
42874SOL     OW37589  10.108   5.212   7.008 -0.2064  1.1051  0.0909
42874SOL    HW137590  10.153   5.287   7.047  1.8656 -0.4640  0.9396
42874SOL    HW237591  10.015   5.234   7.013  0.2326  2.8195  2.0366
42875SOL     OW37592  11.314   4.118  11.002  0.6380 -0.2310  0.3360
42875SOL    HW137593  11.388   4.178  11.013  0.2214  0.9227 -2.4442
42875SOL    HW237594  11.342   4.038  11.047  2.3833  1.0776  1.7330
42876SOL     OW37595  10.749  12.304  12.282  0.3307  0.9444 -0.1547
42876SOL    HW137596  10.721  12.365  12.351 -1.6678  0.0297 -0.0920
42876SOL    HW237597  10.767  12.222  12.329 -3.0558 -0.3315 -0.7824
42877SOL     OW37598   7.285   0.342   9.621  0.3560  0.1169  0.1733
42877SOL    HW137599   7.317   0.312   9.535  0.0239  1.4194 -0.4332
42877SOL    HW237600   7.244   0.264   9.660  0.1538 -0.4003 -1.0240
42878SOL     OW37601   8.566   1.760   9.403 -0.2030 -0.3483  0.0997
42878SOL    HW137602   8.615   1.726   9.329  1.3078  0.1344  0.8431
42878SOL    HW237603   8.600   1.712   9.479 -0.1171  0.7422  0.7733
42879SOL     OW37604   9.925   6.708   4.140 -0.1408  0.1183  0.1908
42879SOL    HW137605   9.858   6.656   4.184 -0.8639 -1.1767 -2.2696
42879SOL    HW237606   9.881   6.792   4.121 -0.4862 -0.0610  0.1852
42880SOL     OW37607   1.039  11.798   4.168 -0.3292  0.5286  0.3151
42880SOL    HW137608   1.058  11.724   4.227 -0.2986  0.9984  0.9056
42880SOL    HW237609   1.081  11.873   4.209 -0.0247  0.8063 -0.4930
42881SOL     OW37610   1.309   6.716  10.067 -0.2141 -0.4518  0.5311
42881SOL    HW137611   1.236   6.693  10.126 -1.7442  1.3525 -0.5383
42881SOL    HW237612   1.296   6.660   9.991  0.3552 -1.0965  0.8972
42882SOL     OW37613   6.535  10.540   1.725  0.3327 -0.7032 -0.1697
42882SOL    HW137614   6.529  10.628   1.762 -1.5082 -0.4505 -0.9401
42882SOL    HW237615   6.496  10.483   1.792  1.7645 -1.0024  0.4423
42883SOL     OW37616  11.263  10.473   0.600  0.4189  0.1849 -0.0807
42883SOL    HW137617  11.195  10.501   0.661  0.4113 -0.9383  0.4526
42883SOL    HW237618  11.223  10.402   0.550  1.1663 -0.4732  0.2258
42884SOL     OW37619   3.188  10.570   5.260 -1.0842  0.0079 -0.4394
42884SOL    HW137620   3.251  10.499   5.244 -1.1841  0.0916 -1.2674
42884SOL    HW237621   3.197  10.590   5.353 -0.9852 -1.0282 -0.2120
42885SOL     OW37622   3.638   1.109   6.586 -0.3900  0.1378 -0.6815
42885SOL    HW137623   3.696   1.179   6.558  1.7602  0.1378  3.0345
42885SOL    HW237624   3.553   1.150   6.595  0.7675  2.3444  1.1928
42886SOL     OW37625  10.065   2.379   8.690 -0.0377  0.4761  0.0968
42886SOL    HW137626  10.032   2.399   8.603 -0.5861 -0.6707  0.0174
42886SOL    HW237627  10.017   2.301   8.717  1.9813 -0.7804  0.3386
42887SOL     OW37628  10.130   4.724  10.140  0.2833  0.5171 -0.0156
42887SOL    HW137629  10.164   4.807  10.107 -1.2181  1.2877  0.2796
42887SOL    HW237630  10.148   4.727  10.235  0.4809  0.3643 -0.0465
42888SOL     OW37631   9.244   4.312   9.509  0.0080  0.2076  0.2272
42888SOL    HW137632   9.263   4.384   9.569  1.3492  0.1782 -0.1363
42888SOL    HW237633   9.329   4.290   9.470 -0.0622 -2.4752  1.3395
42889SOL     OW37634   3.658   8.531   1.397 -0.1921  0.0894 -0.1059
42889SOL    HW137635   3.679   8.596   1.464 -0.3959  0.4129 -0.3563
42889SOL    HW237636   3.611   8.463   1.444  0.2923 -0.0307  0.2168
42890SOL     OW37637   3.419  12.459   2.354 -0.4069 -0.0709 -0.2167
42890SOL    HW137638   3.336  12.427   2.320 -1.1854  2.6361 -1.1643
42890SOL    HW237639   3.417  12.553   2.337  2.1997  0.3361  1.1627
42891SOL     OW37640  11.843   4.427  10.724  0.1855 -0.5736  0.2142
42891SOL    HW137641  11.857   4.458  10.635 -0.9768 -1.4644 -0.3063
42891SOL    HW237642  11.811   4.337  10.713 -3.2195  0.3559  1.3229
42892SOL     OW37643  10.348   8.952  11.637  0.1527 -0.2723 -0.1203
42892SOL    HW137644  10.358   9.046  11.625  1.1069 -0.6147 -2.5910
42892SOL    HW237645  10.437   8.917  11.635 -0.1594 -1.8201 -6.5527
42893SOL     OW37646   0.345  12.098   0.809  0.1059  0.0343  0.0050
42893SOL    HW137647   0.359  12.127   0.899 -0.0913  0.1020  0.0138
42893SOL    HW237648   0.282  12.026   0.817 -0.2545  0.3347 -0.1210
42894SOL     OW37649   8.098   0.937  10.824 -0.1176 -0.2189  0.4112
42894SOL    HW137650   8.105   0.955  10.730  2.7768  1.8189  0.8934
42894SOL    HW237651   8.035   1.002  10.856 -0.0249  0.0176  0.1164
42895SOL     OW37652  11.035   6.097  11.154  0.1629  0.3966 -0.2500
42895SOL    HW137653  11.043   6.130  11.243 -1.1934  2.4790 -0.8222
42895SOL    HW237654  10.948   6.125  11.126 -0.9017 -3.2168 -1.0988
42896SOL     OW37655  11.904   8.412   0.416  0.1916  0.8455  0.1713
42896SOL    HW137656  11.871   8.331   0.377 -1.2905  1.2779  0.4694
42896SOL    HW237657  11.879   8.480   0.354 -0.3887  1.3000  0.8890
42897SOL     OW37658   3.222  11.643   4.135  0.0687 -0.3672 -0.0631
42897SOL    HW137659   3.312  11.652   4.103 -0.1188  0.0440 -0.4811
42897SOL    HW237660   3.177  11.722   4.104  0.0802  0.4622  1.8985
42898SOL     OW37661   7.248   1.553  10.888  0.4159  0.3986  0.4524
42898SOL    HW137662   7.201   1.637  10.887 -0.3434  0.0006 -1.2696
42898SOL    HW237663   7.205   1.503  10.957 -0.9403  0.4945 -0.2739
42899SOL     OW37664  11.236   3.461  10.385 -0.2846 -0.6352  0.2523
42899SOL    HW137665  11.164   3.418  10.338 -0.8834  1.2233 -0.6457
42899SOL    HW237666  11.195   3.501  10.461 -0.2697  0.5099 -0.3109
42900SOL     OW37667  12.539  10.474   8.750  0.5501 -0.4213  0.2566
42900SOL    HW137668  12.515  10.414   8.821 -1.1633  0.1448  0.2066
42900SOL    HW237669  12.581  10.418   8.685  1.9534 -0.9826  1.5933
42901SOL     OW37670  10.707   4.045   7.099 -0.1064  0.4194 -0.4733
42901SOL    HW137671  10.634   4.088   7.143  0.6008  2.0483 -0.8258
42901SOL    HW237672  10.721   3.964   7.150 -1.5147  0.5438  0.1620
42902SOL     OW37673  10.986   8.662  12.393 -0.7222  0.0228  0.4848
42902SOL    HW137674  11.025   8.735  12.441 -0.6031 -1.1352  2.2714
42902SOL    HW237675  10.892   8.678  12.397 -0.6718  0.3554  0.3838
42903SOL     OW37676   9.077   4.892   5.656  0.0769  0.0177 -0.4252
42903SOL    HW137677   9.159   4.862   5.696 -0.8866 -2.7563 -0.3477
42903SOL    HW237678   9.099   4.907   5.564  0.7464 -0.5041 -0.3577
42904SOL     OW37679   8.610  10.201   0.162 -0.2444 -0.1144 -0.3822
42904SOL    HW137680   8.554  10.246   0.225  0.3966 -2.0015  1.7026
42904SOL    HW237681   8.688  10.178   0.212 -0.2720 -2.9201 -1.4068
42905SOL     OW37682   8.876   1.749   2.763 -0.1963  0.1457 -0.0553
42905SOL    HW137683   8.785   1.728   2.740 -0.1887  0.3375 -0.2661
42905SOL    HW237684   8.898   1.824   2.708  1.1951 -1.8997 -2.4787
42906SOL     OW37685   5.241  11.646   6.289  0.1909 -0.3640 -0.1052
42906SOL    HW137686   5.315  11.644   6.229 -0.0834 -0.7042 -0.4293
42906SOL    HW237687   5.281  11.664   6.375  0.6141 -0.2307 -0.3283
42907SOL     OW37688   1.298  10.208   3.287 -0.2108 -0.3442 -0.1845
42907SOL    HW137689   1.238  10.135   3.300 -1.3622  0.8275  1.4914
42907SOL    HW237690   1.242  10.285   3.284  1.0651  0.6026 -0.6940
42908SOL     OW37691   0.302   9.036   2.363  0.2170 -0.0423  0.1330
42908SOL    HW137692   0.346   8.968   2.313  2.1563  0.1343  1.4856
42908SOL    HW237693   0.265   8.991   2.439  1.2703  0.3184  0.8906
42909SOL     OW37694   8.418   0.957   5.089 -0.3792 -0.6188 -0.4781
42909SOL    HW137695   8.325   0.963   5.110 -0.2433  1.0739 -0.1705
42909SOL    HW237696   8.431   0.867   5.061 -2.1089 -0.8821 -0.5416
42910SOL     OW37697  12.027  10.223   7.759  0.1552  0.0597 -0.0269
42910SOL    HW137698  12.079  10.280   7.816 -0.9223  0.2099  0.8482
42910SOL    HW237699  11.950  10.275   7.737 -0.6037 -0.8630  0.3712
42911SOL     OW37700  11.776   1.180   0.216  0.0990  0.1849  0.1174
42911SOL    HW137701  11.770   1.238   0.139  0.9556  0.9665  0.6219
42911SOL    HW237702  11.809   1.097   0.181 -0.7009  0.1248 -0.5430
42912SOL     OW37703  10.052   2.314   3.188 -0.5042  0.2600 -0.1545
42912SOL    HW137704  10.035   2.301   3.282  0.7648 -1.6996 -0.1258
42912SOL    HW237705   9.981   2.266   3.145 -0.0183 -0.4710 -0.1545
42913SOL     OW37706   2.048   1.985   6.899  0.0896  0.1032  0.0452
42913SOL    HW137707   1.978   2.045   6.924  0.6134  0.8621 -0.2744
42913SOL    HW237708   2.007   1.924   6.837 -0.4075  0.2157  0.2576
42914SOL     OW37709   2.217   9.037   2.942  0.1929  0.1396 -0.5328
42914SOL    HW137710   2.123   9.045   2.955 -0.1409 -0.5738 -2.2823
42914SOL    HW237711   2.239   8.951   2.977  0.3223  0.5387  0.4026
42915SOL     OW37712   6.835   1.504  11.641  0.1634  0.0348 -0.1795
42915SOL    HW137713   6.908   1.546  11.686  1.5200 -1.1340 -1.2106
42915SOL    HW237714   6.766   1.499  11.708  1.5422 -0.1913  1.2966
42916SOL     OW37715  10.604   4.144   4.852  0.3598 -0.5809 -0.0330
42916SOL    HW137716  10.536   4.078   4.844  0.0341 -0.6373  2.3716
42916SOL    HW237717  10.557   4.227   4.859  0.3829 -0.6991  2.4893
42917SOL     OW37718   7.089   0.854  10.054  0.1528 -0.2979  0.4122
42917SOL    HW137719   7.040   0.790  10.105  1.2546 -0.7703  0.9195
42917SOL    HW237720   7.093   0.932  10.109  0.3445 -0.4091  0.5559
42918SOL     OW37721   7.874   6.939   5.495 -0.2270 -0.1895  0.2897
42918SOL    HW137722   7.907   6.855   5.463 -3.4296 -1.3282 -0.4116
42918SOL    HW237723   7.855   6.990   5.416  1.0737  0.9859  0.6990
42919SOL     OW37724   9.741   2.881   9.308  0.7542 -0.4301  0.1144
42919SOL    HW137725   9.684   2.955   9.328  0.8315 -0.4104  0.2673
42919SOL    HW237726   9.720   2.816   9.375  0.6678 -0.5572 -0.0365
42920SOL     OW37727  10.975   6.669   3.191  0.5161  0.0044 -0.3628
42920SOL    HW137728  10.918   6.652   3.266 -0.3478 -0.5707 -1.1210
42920SOL    HW237729  11.012   6.583   3.169  0.3544  0.0645 -0.8994
42921SOL     OW37730  11.466   5.995   2.298  0.3238  0.3319  0.0819
42921SOL    HW137731  11.516   5.915   2.286 -0.0372  0.1861 -0.4756
42921SOL    HW237732  11.402   5.995   2.226 -0.8751  0.2210  1.1203
42922SOL     OW37733   9.898   5.525   9.109 -0.2573 -0.3773 -0.3002
42922SOL    HW137734   9.942   5.606   9.133  0.1426 -0.6417 -0.1274
42922SOL    HW237735   9.860   5.493   9.191  0.5662 -0.9504 -0.1267
42923SOL     OW37736   1.904   0.197   7.636 -0.3400  0.0182  0.0821
42923SOL    HW137737   1.916   0.232   7.548  0.0784 -0.1896  0.0509
42923SOL    HW237738   1.954   0.115   7.635  2.2833  1.4824  1.4413
42924SOL     OW37739   8.893   5.522   8.996 -0.4728  0.0217  0.8044
42924SOL    HW137740   8.956   5.453   9.017  1.8134  1.7306 -0.0534
42924SOL    HW237741   8.834   5.482   8.933  2.0106 -0.6583 -1.2687
42925SOL     OW37742   9.510   7.266   4.254  0.3222 -0.6420 -1.4049
42925SOL    HW137743   9.537   7.179   4.223  1.6656 -1.1487  0.9452
42925SOL    HW237744   9.590   7.304   4.289 -0.9952 -0.0935  1.1961
42926SOL     OW37745   4.219   6.116   2.590  0.0822  0.0573  0.0247
42926SOL    HW137746   4.208   6.209   2.609 -2.0485 -0.0998 -0.1891
42926SOL    HW237747   4.130   6.084   2.576  0.9073 -1.5000 -2.3704
42927SOL     OW37748   5.242   0.994   6.235  0.4060 -0.0957 -0.2812
42927SOL    HW137749   5.190   1.041   6.300  0.8479  0.2035 -0.1346
42927SOL    HW237750   5.285   0.924   6.284  1.3542  0.6072 -0.0819
42928SOL     OW37751   2.714   1.583   9.807 -0.1408 -0.2963  0.1088
42928SOL    HW137752   2.690   1.559   9.718  0.5388  1.1492 -0.4916
42928SOL    HW237753   2.753   1.670   9.799 -0.6179  0.1254  1.8955
42929SOL     OW37754  11.969  10.477  11.131  0.6514  0.0254  0.0163
42929SOL    HW137755  11.947  10.562  11.168 -0.3902  0.2527 -1.0443
42929SOL    HW237756  11.890  10.451  11.083  1.8121 -0.3633 -1.7877
42930SOL     OW37757  11.403   8.762   2.088  0.2270 -0.3583  0.4075
42930SOL    HW137758  11.464   8.834   2.072  0.4246 -0.8527 -1.2982
42930SOL    HW237759  11.404   8.712   2.007 -0.8985 -1.5520  1.0964
42931SOL     OW37760   4.310   2.667   5.604  0.0614 -0.4622 -0.0287
42931SOL    HW137761   4.326   2.589   5.552  0.0886  0.3023 -1.1872
42931SOL    HW237762   4.237   2.642   5.662 -2.1035 -0.4231 -2.5356
42932SOL     OW37763  12.231   5.380   8.855  0.3354 -0.1205 -0.2461
42932SOL    HW137764  12.203   5.310   8.797  1.3069  0.2033 -1.1257
42932SOL    HW237765  12.149   5.416   8.890 -0.3469  0.3883 -2.2404
42933SOL     OW37766   3.950  12.407   6.534 -0.7391  0.1386 -0.4474
42933SOL    HW137767   3.961  12.312   6.528  2.5038  0.4005 -0.6549
42933SOL    HW237768   4.034  12.438   6.568 -1.8996  2.9079  0.1289
42934SOL     OW37769   8.411   4.906  11.591  0.1748  0.0109  0.4456
42934SOL    HW137770   8.435   4.847  11.662 -0.8935  1.2596  1.9242
42934SOL    HW237771   8.391   4.989  11.634 -2.0674  0.3913 -1.1108
42935SOL     OW37772   3.433   4.552   1.731 -0.0206  0.1955 -0.1283
42935SOL    HW137773   3.492   4.581   1.800  0.1530 -1.5358  0.5063
42935SOL    HW237774   3.490   4.522   1.661 -0.1973  1.8608 -1.0413
42936SOL     OW37775   4.280   5.246   0.287  0.4101  0.0830 -0.1804
42936SOL    HW137776   4.337   5.269   0.214  0.5712  1.0173  0.2169
42936SOL    HW237777   4.321   5.170   0.327  1.7048  1.0664  0.4315
42937SOL     OW37778  11.694   4.103   2.919 -0.1262  0.1545 -0.0746
42937SOL    HW137779  11.684   4.158   2.997 -0.8975  1.8753 -1.3287
42937SOL    HW237780  11.734   4.022   2.952 -0.5290  0.7786  2.1057
42938SOL     OW37781   5.523   5.802   4.256  0.0647 -0.2360  0.2097
42938SOL    HW137782   5.546   5.889   4.289  1.1569 -0.8995  1.2804
42938SOL    HW237783   5.505   5.751   4.335  0.9530 -1.3955 -0.3150
42939SOL     OW37784   9.154   4.229  10.718  0.4773 -0.4967 -0.1155
42939SOL    HW137785   9.156   4.227  10.623  0.2513 -1.8586 -0.1070
42939SOL    HW237786   9.171   4.320  10.741 -2.1013  0.4063 -1.4962
42940SOL     OW37787   7.854   8.744   6.085  0.2131  0.1523  0.5520
42940SOL    HW137788   7.923   8.796   6.126  0.9848 -0.3254 -0.1139
42940SOL    HW237789   7.893   8.658   6.071 -1.3638 -0.9939  2.5966
42941SOL     OW37790   8.461  11.077   2.505 -0.2341 -0.3573 -0.0134
42941SOL    HW137791   8.414  11.156   2.479  0.8033 -0.2981 -1.8422
42941SOL    HW237792   8.548  11.108   2.529  0.2837 -0.9603 -1.0653
42942SOL     OW37793  12.063   2.103   6.226  0.1995 -0.0981  0.4449
42942SOL    HW137794  12.028   2.039   6.163  2.5993  0.0001 -1.1515
42942SOL    HW237795  12.123   2.053   6.280 -2.1330 -0.2645  3.1219
42943SOL     OW37796  10.529  11.317   4.168 -0.0486 -0.1474  0.8946
42943SOL    HW137797  10.600  11.306   4.231  0.0779 -0.3712  0.7143
42943SOL    HW237798  10.489  11.401   4.191  0.2388 -0.0478  1.0316
42944SOL     OW37799   9.240   0.607   9.913  0.9205 -0.1141  0.0371
42944SOL    HW137800   9.174   0.563   9.967 -0.2288  0.1034 -1.1287
42944SOL    HW237801   9.237   0.698   9.940  1.6472 -0.3205  0.8470
42945SOL     OW37802   5.354   3.756   5.315 -0.3053  0.2990 -0.4586
42945SOL    HW137803   5.412   3.680   5.323 -0.7139 -0.1031 -1.1952
42945SOL    HW237804   5.290   3.730   5.249 -0.7942  1.0741 -0.3019
42946SOL     OW37805   0.308   7.076   3.522 -0.1275 -0.0256  0.2917
42946SOL    HW137806   0.271   7.150   3.475  0.3016 -0.3405 -0.5662
42946SOL    HW237807   0.346   7.020   3.454 -1.1398 -1.4396  0.8187
42947SOL     OW37808   8.871  12.148   4.977 -0.1588  0.3251  0.3140
42947SOL    HW137809   8.939  12.092   5.014 -0.6477 -0.9315 -0.6200
42947SOL    HW237810   8.820  12.177   5.053  0.7682  0.4223  0.9171
42948SOL     OW37811   2.212   5.545   5.571 -0.6960  0.2947  0.1541
42948SOL    HW137812   2.158   5.487   5.625 -0.7227  0.7415  0.6172
42948SOL    HW237813   2.154   5.619   5.551 -0.8513 -0.0934 -0.9115
42949SOL     OW37814   3.774  11.615   7.073  0.0797  0.3971  0.0139
42949SOL    HW137815   3.792  11.533   7.026  2.6527  0.2004  1.2191
42949SOL    HW237816   3.742  11.588   7.158 -0.5653  0.7014 -0.1227
42950SOL     OW37817   1.682   8.091   7.654  0.6540 -0.1255 -0.5231
42950SOL    HW137818   1.684   8.096   7.558  1.0442 -1.9248 -0.6338
42950SOL    HW237819   1.588   8.088   7.675  0.5631 -1.9343 -1.0274
42951SOL     OW37820   3.483   8.238   8.635  0.1382  0.7877 -0.7027
42951SOL    HW137821   3.415   8.301   8.657 -0.0834  0.3689 -0.1785
42951SOL    HW237822   3.557   8.261   8.691 -1.0798 -1.5019  2.1225
42952SOL     OW37823   7.433   4.734  11.437  0.0348 -0.3871 -0.0117
42952SOL    HW137824   7.357   4.690  11.476 -1.6706  1.9985 -0.4220
42952SOL    HW237825   7.502   4.726  11.503 -1.4196 -0.2202  1.6007
42953SOL     OW37826  10.513   3.167   7.544 -0.0479  0.1133  0.5653
42953SOL    HW137827  10.482   3.094   7.597 -2.7801  0.0137 -0.9377
42953SOL    HW237828  10.479   3.245   7.588 -0.8891  0.1347 -0.0859
42954SOL     OW37829   8.487   5.534  10.643 -0.5786  0.1870 -0.0865
42954SOL    HW137830   8.399   5.496  10.644 -0.4684 -0.1054 -0.8947
42954SOL    HW237831   8.481   5.608  10.703 -2.4216  2.4775 -2.8386
42955SOL     OW37832   3.218   3.649  11.961 -0.2120 -0.2376 -0.3444
42955SOL    HW137833   3.230   3.560  11.993 -1.3452 -0.0525  0.6384
42955SOL    HW237834   3.296   3.696  11.990  0.9217 -1.1387 -1.8065
42956SOL     OW37835   0.447   7.491  10.146 -0.6529  0.2598  0.1606
42956SOL    HW137836   0.533   7.469  10.110 -0.2660 -0.7992  1.6237
42956SOL    HW237837   0.400   7.407  10.147 -1.8212  0.8696 -0.8464
42957SOL     OW37838   0.777   0.907   1.579 -0.2952 -0.1445  0.7607
42957SOL    HW137839   0.780   0.826   1.630 -2.3327  0.4010  1.8524
42957SOL    HW237840   0.725   0.884   1.502 -0.1474 -0.0952  0.6466
42958SOL     OW37841   6.403   1.342  11.888 -0.3252 -0.2367 -0.4499
42958SOL    HW137842   6.492   1.357  11.919 -0.3218  1.5159 -1.2119
42958SOL    HW237843   6.364   1.286  11.955  1.1737 -0.5735  0.1780
42959SOL     OW37844   6.703   9.703   6.735  0.0247  0.5532 -0.4244
42959SOL    HW137845   6.691   9.709   6.640 -1.2437  2.1390 -0.2056
42959SOL    HW237846   6.776   9.763   6.754 -0.1288  0.7084 -0.3280
42960SOL     OW37847   0.731   9.640   1.740  0.5411 -0.4870  0.7575
42960SOL    HW137848   0.643   9.678   1.735  1.2192  1.1712  0.7079
42960SOL    HW237849   0.735   9.580   1.665  0.3597  1.4810 -0.9324
42961SOL     OW37850   8.324   2.316   1.273  0.1432  0.2398 -0.5290
42961SOL    HW137851   8.281   2.382   1.328  0.8658  0.3575 -0.0898
42961SOL    HW237852   8.285   2.328   1.187  0.9469  1.9142 -0.7083
42962SOL     OW37853   7.828   5.709   0.379  0.3106 -0.0367  0.0397
42962SOL    HW137854   7.750   5.765   0.374  0.0588 -0.5087 -2.5215
42962SOL    HW237855   7.897   5.759   0.336  1.4793  0.3262  2.1817
42963SOL     OW37856   5.202   5.433   9.779 -0.1661 -0.3561 -0.3764
42963SOL    HW137857   5.193   5.361   9.717  0.8441  0.8082 -1.9416
42963SOL    HW237858   5.297   5.446   9.788 -0.2319 -1.0087  2.0890
42964SOL     OW37859   0.151   0.195   4.577  0.1858  0.8134 -0.1925
42964SOL    HW137860   0.141   0.290   4.569  0.4873  0.8000 -0.8231
42964SOL    HW237861   0.205   0.184   4.655 -0.5902  1.1092  0.3997
42965SOL     OW37862  11.684   3.448   7.611 -0.7249 -0.3086 -0.2957
42965SOL    HW137863  11.743   3.427   7.539  0.5887 -0.6430  0.8430
42965SOL    HW237864  11.698   3.541   7.627 -2.1608  0.1444 -1.4447
42966SOL     OW37865   0.850   5.064   0.595 -0.2813  0.2704 -0.3087
42966SOL    HW137866   0.792   5.140   0.598  0.7230  1.0360  0.5051
42966SOL    HW237867   0.792   4.988   0.603 -1.1732  1.0078  0.2816
42967SOL     OW37868   0.267   0.341   2.785 -0.0513  0.4650 -0.1049
42967SOL    HW137869   0.190   0.344   2.730 -0.4192  0.2657  0.3915
42967SOL    HW237870   0.252   0.268   2.845 -0.2382  1.4388  1.0830
42968SOL     OW37871   6.811   8.093  10.046 -0.7004 -0.2195  0.0516
42968SOL    HW137872   6.833   8.111  10.137  1.3524 -1.9678 -0.0238
42968SOL    HW237873   6.807   7.997  10.040  1.2662 -0.2677 -2.0695
42969SOL     OW37874   2.319   6.993  10.051 -0.0120  0.0952  0.1583
42969SOL    HW137875   2.271   6.926  10.099 -0.2946 -1.0517 -1.6316
42969SOL    HW237876   2.263   7.070  10.055 -1.4931 -0.8884 -0.9128
42970SOL     OW37877   9.013   0.398   4.514  0.4977  0.8679  0.4210
42970SOL    HW137878   8.919   0.380   4.509  0.7403 -0.3350 -3.2253
42970SOL    HW237879   9.044   0.344   4.587 -0.9895 -2.9434 -1.4942
42971SOL     OW37880   3.613   8.318  12.488  0.1978 -0.1299 -0.3540
42971SOL    HW137881   3.690   8.333  12.433  1.2775  0.3349  1.1833
42971SOL    HW237882   3.592   8.226  12.475  3.2309 -1.3011  1.7309
42972SOL     OW37883   9.978   0.818   7.071  0.4060 -0.7970  0.2281
42972SOL    HW137884  10.061   0.772   7.062  1.3103  0.8844 -0.4121
42972SOL    HW237885   9.976   0.879   6.998 -0.8179  0.0727  0.9460
42973SOL     OW37886   9.898   7.315   9.132  0.4255  0.2972 -0.4273
42973SOL    HW137887   9.810   7.298   9.166  1.6194 -0.5337  2.5652
42973SOL    HW237888   9.900   7.410   9.119 -0.6976  0.4127  0.1017
42974SOL     OW37889   2.801   6.169   7.673 -0.2308  0.1326 -0.2427
42974SOL    HW137890   2.888   6.147   7.639 -0.0426 -1.2696  1.0354
42974SOL    HW237891   2.751   6.088   7.665 -1.7812  1.2012 -1.9242
42975SOL     OW37892   9.142  12.142   7.371 -0.0054 -0.2648 -0.4683
42975SOL    HW137893   9.047  12.152   7.366  0.2275  2.3257 -1.1976
42975SOL    HW237894   9.169  12.130   7.280  0.3977 -0.7173 -0.2914
42976SOL     OW37895  10.906   2.852   1.017 -0.1874 -0.1182 -0.1684
42976SOL    HW137896  10.833   2.911   1.038  0.5913  1.0499 -0.6804
42976SOL    HW237897  10.909   2.850   0.922  0.7309  0.2115 -0.1568
42977SOL     OW37898   7.291   7.472  10.088  0.3663  0.3239 -0.0803
42977SOL    HW137899   7.215   7.441  10.138  1.9408 -1.9957  1.1044
42977SOL    HW237900   7.366   7.438  10.137  2.0751 -0.7997 -3.2168
42978SOL     OW37901   2.306   3.728   3.647  0.0953  0.4317  0.0467
42978SOL    HW137902   2.350   3.740   3.563 -0.6759 -0.3677 -0.4821
42978SOL    HW237903   2.365   3.671   3.697  1.8344  2.9491  1.0806
42979SOL     OW37904   5.197   9.638   0.897  0.6797 -0.6895  0.2996
42979SOL    HW137905   5.205   9.595   0.982 -3.6401  0.2501  1.4399
42979SOL    HW237906   5.267   9.703   0.896 -0.0885  0.4308  3.9812
42980SOL     OW37907   7.159   0.513   0.158 -0.2754 -0.1756  0.3599
42980SOL    HW137908   7.119   0.538   0.075 -0.7546  2.4451  1.2870
42980SOL    HW237909   7.238   0.567   0.163  2.2036 -3.4299 -0.2789
42981SOL     OW37910   4.954   3.190   4.179 -0.3445  0.2164 -0.2421
42981SOL    HW137911   4.964   3.097   4.200  1.4184  0.7181  1.4153
42981SOL    HW237912   5.043   3.221   4.162 -0.5586  2.0692  1.5200
42982SOL     OW37913  10.118   5.730   4.317 -0.1715  0.3781 -0.3875
42982SOL    HW137914  10.179   5.800   4.293  0.5242  0.0920  0.4778
42982SOL    HW237915  10.112   5.676   4.238  0.8516  0.3142 -0.4394
42983SOL     OW37916  11.192  11.384  11.326 -0.6077 -0.6916 -0.1523
42983SOL    HW137917  11.142  11.302  11.318  0.3623 -1.1662 -2.1109
42983SOL    HW237918  11.273  11.358  11.369  0.1332 -1.0196 -1.6731
42984SOL     OW37919  12.361  12.478   1.967  0.3939  0.4976 -0.3590
42984SOL    HW137920  12.412  12.402   1.937  0.2675  0.7269 -1.1684
42984SOL    HW237921  12.333  12.522   1.887 -0.6260  0.6816  0.0785
42985SOL     OW37922   8.501   3.517   7.692 -0.0131 -0.0087 -0.3787
42985SOL    HW137923   8.417   3.476   7.673  0.4152 -0.8231 -0.5527
42985SOL    HW237924   8.559   3.444   7.714  0.0479  0.7005  2.1238
42986SOL     OW37925   6.275   7.076   3.586  0.0794 -0.6056  0.0261
42986SOL    HW137926   6.332   7.000   3.576  0.1838 -0.5686  0.3404
42986SOL    HW237927   6.212   7.068   3.514  0.5498 -0.5783 -0.3940
42987SOL     OW37928   4.849   9.565   4.795 -0.3239  0.8620  0.5253
42987SOL    HW137929   4.815   9.633   4.852 -1.2329 -0.1903  1.2992
42987SOL    HW237930   4.780   9.498   4.794  0.4521  0.0380 -0.3485
42988SOL     OW37931   8.624   7.515   7.792  0.5243 -0.0208  0.1129
42988SOL    HW137932   8.599   7.517   7.885 -0.9004 -0.4386 -0.2269
42988SOL    HW237933   8.679   7.437   7.784  0.8979  0.1864  0.6696
42989SOL     OW37934   8.532   3.912   0.597  0.4106  0.0026 -0.1286
42989SOL    HW137935   8.495   3.837   0.551 -0.0815 -0.0277  0.3061
42989SOL    HW237936   8.610   3.935   0.547 -0.0444 -0.1094 -0.8957
42990SOL     OW37937   1.199   1.756   5.689 -0.3850  0.1078 -0.5748
42990SOL    HW137938   1.118   1.718   5.655 -0.3621 -0.8771  0.3992
42990SOL    HW237939   1.183   1.764   5.783  0.2325  0.9913 -0.5370
42991SOL     OW37940   0.878   1.621   4.545 -0.3612 -0.3340  0.1315
42991SOL    HW137941   0.792   1.605   4.585 -0.9777  1.3308 -0.4263
42991SOL    HW237942   0.941   1.602   4.615 -1.0884 -2.4083  0.3038
42992SOL     OW37943   9.263   3.525   8.309  0.1917 -0.2926  0.0601
42992SOL    HW137944   9.189   3.523   8.249 -0.0046 -1.8575  0.2991
42992SOL    HW237945   9.270   3.616   8.338  0.1554  0.4655 -2.1491
42993SOL     OW37946   7.297   4.520   0.735  0.0902  0.7762  0.0348
42993SOL    HW137947   7.362   4.476   0.681 -0.0549  0.6930 -0.0720
42993SOL    HW237948   7.339   4.602   0.760 -1.1153  2.5564 -3.1700
42994SOL     OW37949   4.561  10.128   9.650  0.1214  0.0183  0.6536
42994SOL    HW137950   4.602  10.164   9.728  1.0869 -0.8726  0.5745
42994SOL    HW237951   4.596  10.039   9.642  0.6942  0.3582 -1.2358
42995SOL     OW37952  11.982   7.662  12.226  0.4855 -0.0902 -0.1998
42995SOL    HW137953  12.053   7.615  12.269 -0.1525 -0.7122  0.2019
42995SOL    HW237954  12.026   7.724  12.168  1.3612  0.2034  0.7373
42996SOL     OW37955  10.245   3.205   9.145  0.4842 -0.3147 -0.8468
42996SOL    HW137956  10.284   3.291   9.162  0.1058 -0.3945  0.6103
42996SOL    HW237957  10.318   3.150   9.118  0.6497  0.5706 -2.2787
42997SOL     OW37958   3.516   6.465   6.270 -0.5844  0.2265  0.3332
42997SOL    HW137959   3.470   6.437   6.191 -0.8855 -2.9422  1.4938
42997SOL    HW237960   3.594   6.410   6.273 -2.1931 -2.1873  3.7863
42998SOL     OW37961   9.892   3.912   9.512  0.5027 -0.4587 -0.2907
42998SOL    HW137962   9.971   3.871   9.547  1.2748  0.4177 -0.9976
42998SOL    HW237963   9.862   3.970   9.583  1.8505  1.0246 -0.8945
42999SOL     OW37964   2.729   2.157   7.650  0.0545 -0.0120  0.1089
42999SOL    HW137965   2.800   2.123   7.596  0.8715  3.4034 -1.1968
42999SOL    HW237966   2.649   2.140   7.599  0.2594 -0.9466  0.0743
43000SOL     OW37967   7.126   4.009   9.504  0.9611 -0.1977 -0.0066
43000SOL    HW137968   7.191   4.067   9.545 -1.3274  1.8423  0.9820
43000SOL    HW237969   7.147   4.012   9.411  2.1408  0.5932  0.2543
43001SOL     OW37970   5.245   7.251   7.135  0.1345 -0.0548  0.2636
43001SOL    HW137971   5.299   7.319   7.094 -0.2885  0.5077  0.6124
43001SOL    HW237972   5.156   7.285   7.129 -0.0294 -0.3642  0.8744
43002SOL     OW37973   0.931   9.779   6.974 -0.6200  0.5819  0.0071
43002SOL    HW137974   0.982   9.701   6.954 -1.9798 -0.2145 -0.4544
43002SOL    HW237975   0.980   9.822   7.045 -0.0604 -0.8980  0.5589
43003SOL     OW37976   6.852   8.078   4.734  0.0864 -0.0980 -0.1285
43003SOL    HW137977   6.878   7.988   4.715 -0.7692 -0.5477  0.7783
43003SOL    HW237978   6.931   8.129   4.718 -0.1216 -0.5642 -3.5130
43004SOL     OW37979   6.228   8.016   9.837 -0.0692  0.0487  0.7885
43004SOL    HW137980   6.206   8.105   9.867 -1.7418  0.5281 -1.4935
43004SOL    HW237981   6.189   7.958   9.903  1.2971  0.9588  2.4714
43005SOL     OW37982  10.185   9.415   9.349  0.0315  0.2913 -0.6031
43005SOL    HW137983  10.214   9.337   9.396  0.0880  1.0458  0.6569
43005SOL    HW237984  10.234   9.412   9.267  1.7078  0.1453  0.3584
43006SOL     OW37985   4.117   4.574   0.268 -0.0596 -0.4345 -0.2116
43006SOL    HW137986   4.036   4.530   0.293  0.1810 -0.8226 -0.1110
43006SOL    HW237987   4.149   4.524   0.193 -0.2224  0.0773 -0.6302
43007SOL     OW37988  11.554   0.944   2.118  0.4224 -0.0224  0.1693
43007SOL    HW137989  11.593   0.960   2.204 -0.4743 -0.2159  0.6313
43007SOL    HW237990  11.464   0.976   2.127  0.3529  0.0411 -0.7263
43008SOL     OW37991   1.842   6.794   1.666  0.1896  0.0981  0.4309
43008SOL    HW137992   1.857   6.822   1.575 -2.2296 -1.2961 -0.4692
43008SOL    HW237993   1.924   6.816   1.711  1.5654  0.6050 -2.1199
43009SOL     OW37994   9.734   2.902   3.516 -0.2093 -0.6340 -0.1677
43009SOL    HW137995   9.715   2.989   3.481  0.6536 -0.1328  0.5644
43009SOL    HW237996   9.680   2.896   3.595  2.4425  0.7789  1.8967
43010SOL     OW37997   7.118   6.842   4.443  0.1514 -0.2850 -0.0785
43010SOL    HW137998   7.085   6.774   4.384  0.3012 -0.4060 -0.0222
43010SOL    HW237999   7.089   6.924   4.403  0.6470 -0.3422 -0.5648
43011SOL     OW38000   6.423   7.479   3.325 -0.7805  0.5256  0.0857
43011SOL    HW138001   6.444   7.418   3.396  2.4283  0.2163 -0.9787
43011SOL    HW238002   6.363   7.430   3.268  0.2616 -0.9822  0.2175
43012SOL     OW38003   1.043   8.740   7.538 -0.9577  0.2705 -0.0544
43012SOL    HW138004   1.039   8.649   7.567 -0.0180 -0.2138 -1.3456
43012SOL    HW238005   1.106   8.740   7.466 -0.0043  2.1612  0.6867
43013SOL     OW38006   4.984   6.076   6.886  0.3530  0.1579 -0.2606
43013SOL    HW138007   5.030   6.111   6.962  0.1303 -0.8705  0.3545
43013SOL    HW238008   4.894   6.061   6.915 -0.2241  1.4768 -1.2555
43014SOL     OW38009   6.780   0.187   2.809 -0.2266 -0.3784  0.1411
43014SOL    HW138010   6.780   0.282   2.800  1.6017 -0.1527  1.7116
43014SOL    HW238011   6.781   0.154   2.720  1.2870  1.1534 -0.4750
43015SOL     OW38012   8.014  11.961   2.485 -0.0858  0.6425  0.5904
43015SOL    HW138013   8.082  12.028   2.494  0.2628  0.6788 -1.7286
43015SOL    HW238014   7.935  12.001   2.521  0.5275  1.5779  0.9268
43016SOL     OW38015   0.395   7.833   8.485  0.1886 -0.2147  0.3880
43016SOL    HW138016   0.372   7.924   8.467  0.4881 -0.2455 -0.1699
43016SOL    HW238017   0.447   7.806   8.410 -1.3263 -1.3755 -0.2881
43017SOL     OW38018   9.588   6.072   4.293  0.0445  0.6166  0.1457
43017SOL    HW138019   9.509   6.095   4.342  0.4518  0.3994  0.9234
43017SOL    HW238020   9.646   6.147   4.304  0.0120  0.7072 -0.2880
43018SOL     OW38021   0.010   4.717  10.354 -0.0203 -0.1537  0.3295
43018SOL    HW138022   0.088   4.697  10.406  0.8009  0.8727 -0.4427
43018SOL    HW238023   0.038   4.705  10.263 -0.8709 -0.0890  0.0471
43019SOL     OW38024   1.355   2.522  11.031  0.0760 -0.3933 -0.1117
43019SOL    HW138025   1.437   2.542  11.077  0.1596 -0.6094 -0.1660
43019SOL    HW238026   1.340   2.599  10.976  0.9429 -0.9000 -1.0963
43020SOL     OW38027   3.219   2.086   5.933  0.4711  0.2430  0.4643
43020SOL    HW138028   3.200   2.179   5.919 -0.1238 -0.1121 -1.3547
43020SOL    HW238029   3.133   2.044   5.936  0.7626 -0.3896  0.1220
43021SOL     OW38030   2.834   3.020   2.233 -0.1510  0.3312  0.1944
43021SOL    HW138031   2.877   3.075   2.298 -0.9308 -0.3521  1.3315
43021SOL    HW238032   2.763   2.978   2.281 -0.4820 -0.5264 -1.0052
43022SOL     OW38033   1.805   0.334   9.441  0.2825 -0.1482 -0.0206
43022SOL    HW138034   1.857   0.256   9.458 -1.6508 -1.3337  0.8731
43022SOL    HW238035   1.781   0.367   9.528 -0.6134  0.2265 -0.3906
43023SOL     OW38036   5.540   6.358   4.861  0.2386 -0.0558  0.4246
43023SOL    HW138037   5.487   6.325   4.933  0.1324 -0.3760  0.2021
43023SOL    HW238038   5.621   6.307   4.865  0.5513  0.4610  0.7908
43024SOL     OW38039   2.737   6.783   8.252  0.0782  0.3438  0.1424
43024SOL    HW138040   2.690   6.852   8.205 -0.4690 -1.4358 -2.1341
43024SOL    HW238041   2.676   6.753   8.319 -1.0752 -0.1632 -1.0763
43025SOL     OW38042  11.372   5.994   3.846  0.0826 -0.1696  0.1241
43025SOL    HW138043  11.309   6.011   3.776  0.8538  0.4786 -0.4309
43025SOL    HW238044  11.453   5.971   3.801  0.9088  1.3528  0.7463
43026SOL     OW38045   8.224  10.601   3.183 -0.5498 -0.3417 -0.1021
43026SOL    HW138046   8.205  10.695   3.173  1.4730 -0.0136 -1.5874
43026SOL    HW238047   8.145  10.557   3.152 -1.3805  0.8864  0.2272
43027SOL     OW38048   3.615   1.252   5.979 -0.2072  0.4343  0.0353
43027SOL    HW138049   3.640   1.255   5.887  0.9339 -0.0469  0.3158
43027SOL    HW238050   3.692   1.282   6.027 -1.1107  1.6303  0.8032
43028SOL     OW38051   3.515   7.525   1.289  0.4257  0.4382  0.5652
43028SOL    HW138052   3.514   7.536   1.194  0.5790  0.0810  0.5217
43028SOL    HW238053   3.551   7.607   1.323  1.1964  0.2242  0.2703
43029SOL     OW38054   8.834   0.253   5.582  0.4754  0.6177  0.6686
43029SOL    HW138055   8.827   0.334   5.531  0.8030  1.5923  2.1056
43029SOL    HW238056   8.926   0.227   5.572  0.4939  0.7071  0.5959
43030SOL     OW38057  10.566   2.279   3.805 -0.4382 -0.2382 -0.1237
43030SOL    HW138058  10.533   2.231   3.728  0.0841  0.2997 -0.6913
43030SOL    HW238059  10.628   2.218   3.845 -1.2814 -0.8232  0.3204
43031SOL     OW38060  12.382  10.019   3.894  0.5754  0.4129  1.1668
43031SOL    HW138061  12.456   9.990   3.842 -0.6134 -1.6250  0.5061
43031SOL    HW238062  12.343   9.938   3.928 -0.7901  1.4821  2.2740
43032SOL     OW38063   4.336   1.927  11.200  0.3745  0.1140  0.0639
43032SOL    HW138064   4.354   1.997  11.137  2.2079 -0.2736  0.1123
43032SOL    HW238065   4.334   1.847  11.147 -1.8128  0.1387 -0.0070
43033SOL     OW38066   9.739   2.503   3.516 -0.7698  0.3244  0.6145
43033SOL    HW138067   9.726   2.408   3.515 -2.1212  0.4788  1.2525
43033SOL    HW238068   9.730   2.527   3.608 -0.6658  1.0923  0.4304
43034SOL     OW38069   9.787  10.791   5.385 -0.6768 -0.5121  0.0550
43034SOL    HW138070   9.856  10.852   5.357 -0.8305 -0.4863 -0.2794
43034SOL    HW238071   9.821  10.751   5.465  0.8053 -2.2986 -1.3824
43035SOL     OW38072   1.662   8.208   9.684 -0.4848  0.3118 -0.0707
43035SOL    HW138073   1.584   8.264   9.685 -0.7989  0.1012 -2.8215
43035SOL    HW238074   1.634   8.127   9.726 -1.2254  0.8242  0.4517
43036SOL     OW38075  10.455  11.230   5.492 -0.3235  0.2841 -0.0665
43036SOL    HW138076  10.527  11.203   5.436 -0.9960  0.5131 -1.0530
43036SOL    HW238077  10.490  11.303   5.543 -0.6340  2.1531 -2.4107
43037SOL     OW38078   8.108   3.394   1.577 -0.1584  0.7967 -0.3799
43037SOL    HW138079   8.154   3.391   1.493  0.2483  0.8001 -0.1624
43037SOL    HW238080   8.084   3.303   1.594  1.6766  0.4315  0.5257
43038SOL     OW38081   1.902   8.604  11.180  0.7145  0.6147  0.5453
43038SOL    HW138082   1.974   8.665  11.195  1.2213  0.1149  0.1768
43038SOL    HW238083   1.855   8.601  11.264  1.6342  0.2742  1.0557
43039SOL     OW38084  10.958   6.024   8.062 -0.3145 -0.0804  0.6325
43039SOL    HW138085  10.969   6.024   8.157  1.7660  3.3134  0.5659
43039SOL    HW238086  10.874   6.069   8.048 -0.1951  0.2186  0.8712
43040SOL     OW38087   6.564   5.407   3.658 -0.0653  0.2452 -0.7771
43040SOL    HW138088   6.610   5.326   3.681 -2.4108 -1.6001 -2.0348
43040SOL    HW238089   6.604   5.474   3.712  0.1841 -2.2725  2.4650
43041SOL     OW38090   8.740   5.565  10.924  0.5155 -0.0103  0.2176
43041SOL    HW138091   8.787   5.602  10.849  1.0068  1.0761  1.0257
43041SOL    HW238092   8.806   5.512  10.970  0.5565  0.3175  0.5440
43042SOL     OW38093   1.654   7.359   9.533 -0.5675 -0.7181  0.8965
43042SOL    HW138094   1.620   7.296   9.469  0.2903 -0.0178 -0.2809
43042SOL    HW238095   1.613   7.333   9.616 -1.9054 -1.4915  0.0364
43043SOL     OW38096   2.169   0.406   7.656  0.0549  0.0352 -0.1899
43043SOL    HW138097   2.257   0.410   7.694  0.4951 -1.2892 -0.9815
43043SOL    HW238098   2.177   0.343   7.585 -1.4772  0.1171 -0.4693
43044SOL     OW38099  10.918   8.299   0.761 -0.0851  0.1007 -0.7549
43044SOL    HW138100  10.835   8.271   0.800  0.4552 -0.4632  0.0541
43044SOL    HW238101  10.932   8.238   0.689 -0.7016  0.6383 -1.3441
43045SOL     OW38102   5.604   2.543   8.826 -0.1284 -0.1579 -0.0247
43045SOL    HW138103   5.587   2.467   8.771  1.5138 -0.1036 -0.6797
43045SOL    HW238104   5.659   2.510   8.897 -1.7283 -0.1063  1.2894
43046SOL     OW38105   2.220   2.074   9.718  0.1749 -0.2732 -0.0781
43046SOL    HW138106   2.132   2.054   9.687  0.3716  1.4800 -1.9461
43046SOL    HW238107   2.209   2.100   9.810 -1.1427 -0.6246 -0.1266
43047SOL     OW38108  11.557   2.806   1.376 -0.4204  0.6930 -0.0138
43047SOL    HW138109  11.593   2.846   1.297  0.6206 -0.4068 -0.1109
43047SOL    HW238110  11.596   2.855   1.448  0.2439  0.3609 -0.1459
43048SOL     OW38111   5.842   5.221   6.072  0.4362  0.1802  0.0597
43048SOL    HW138112   5.874   5.274   6.145 -0.0698  1.7143 -0.7825
43048SOL    HW238113   5.815   5.285   6.006 -4.1890 -0.9061  0.5756
43049SOL     OW38114   0.959   5.560   3.326 -0.4166 -0.4073 -0.3121
43049SOL    HW138115   1.055   5.559   3.327 -0.3994  0.5416  0.4007
43049SOL    HW238116   0.937   5.600   3.241 -0.1623  0.0218 -0.1799
43050SOL     OW38117  11.447  11.358   2.299 -0.1425 -0.4202 -0.1959
43050SOL    HW138118  11.485  11.288   2.247 -0.5237 -0.9536  0.2288
43050SOL    HW238119  11.517  11.386   2.358 -0.0959 -0.6967 -0.1183
43051SOL     OW38120  11.999   4.423   7.070 -0.4921  0.7020 -0.0320
43051SOL    HW138121  12.089   4.430   7.102  0.0870  1.0386 -1.6516
43051SOL    HW238122  11.958   4.505   7.096 -0.4470  0.4382  0.9523
43052SOL     OW38123  11.356   2.097   1.361 -0.4687  0.7230  0.2958
43052SOL    HW138124  11.387   2.013   1.394  1.4683  1.1957 -0.2116
43052SOL    HW238125  11.418   2.120   1.292 -1.9429  1.7862 -0.7294
43053SOL     OW38126   1.172  12.372   8.939 -0.4616  0.4272 -0.2541
43053SOL    HW138127   1.249  12.361   8.883 -0.0474 -0.6215  0.4853
43053SOL    HW238128   1.107  12.312   8.903 -0.7186  0.8598 -0.5107
43054SOL     OW38129   6.062   5.239   5.818  0.5958  0.3971  0.4467
43054SOL    HW138130   6.098   5.153   5.841  1.5650  0.4877 -0.6736
43054SOL    HW238131   6.068   5.289   5.900 -0.0363 -0.5926  1.1320
43055SOL     OW38132   3.242   3.209   5.310 -0.2854  0.0956 -0.1024
43055SOL    HW138133   3.262   3.300   5.285 -1.2482  0.2677 -0.2964
43055SOL    HW238134   3.235   3.211   5.405  1.2528 -0.1162  0.0452
43056SOL     OW38135   9.664   7.220   1.209 -0.4244 -0.2797  0.4658
43056SOL    HW138136   9.685   7.306   1.247 -0.6929 -0.4321  0.9779
43056SOL    HW238137   9.723   7.211   1.135 -0.2504  0.2605  0.5353
43057SOL     OW38138   6.700   9.447   2.071  0.5176 -0.4933 -0.9557
43057SOL    HW138139   6.735   9.481   1.989  1.1512 -0.4033 -0.6538
43057SOL    HW238140   6.631   9.386   2.044 -0.3214  0.6536 -1.5116
43058SOL     OW38141   6.812  10.036  12.085 -0.5497 -0.1003 -0.2342
43058SOL    HW138142   6.734   9.981  12.084 -0.0857 -0.7935 -1.6769
43058SOL    HW238143   6.863  10.003  12.160 -1.0457 -0.5099 -0.0707
43059SOL     OW38144   9.149   4.047   4.638 -0.1865  0.1049  0.5412
43059SOL    HW138145   9.160   4.022   4.729 -0.2882 -0.8851  0.2961
43059SOL    HW238146   9.229   4.095   4.616  0.4202 -0.7556  0.8034
43060SOL     OW38147   8.055   0.254   7.585 -0.5631  0.7840  0.2525
43060SOL    HW138148   8.011   0.214   7.510 -1.4422  0.3005  1.0017
43060SOL    HW238149   8.103   0.182   7.626  0.3708  1.1601 -0.1419
43061SOL     OW38150   7.429   9.234   4.898  0.1707  0.0756  0.3342
43061SOL    HW138151   7.381   9.171   4.845 -0.2809 -1.3365  2.2896
43061SOL    HW238152   7.424   9.316   4.849 -1.3269 -0.8379 -1.1354
43062SOL     OW38153   6.445   5.882   5.180  0.1276  0.6000  0.1141
43062SOL    HW138154   6.485   5.967   5.197 -0.0935  0.5766  0.8186
43062SOL    HW238155   6.495   5.820   5.234  0.5436  0.2123 -0.6994
43063SOL     OW38156   8.735  11.173   8.350 -0.0508  0.5467 -0.6678
43063SOL    HW138157   8.697  11.102   8.298 -0.1420 -1.8439  2.3544
43063SOL    HW238158   8.664  11.235   8.363 -0.8729 -0.2956 -0.9947
43064SOL     OW38159   6.424   8.716   2.822  0.7125  0.2462  0.6626
43064SOL    HW138160   6.459   8.761   2.745 -1.0903  0.0593 -0.3189
43064SOL    HW238161   6.497   8.714   2.884  2.2927  0.2046 -1.1167
43065SOL     OW38162   3.738   0.818  10.194  0.7056 -0.0752 -0.0740
43065SOL    HW138163   3.767   0.864  10.272  0.4628  1.1703 -0.6919
43065SOL    HW238164   3.650   0.786  10.215 -0.2852  2.1324 -0.5212
43066SOL     OW38165   4.792   5.620   2.861 -0.3507  0.3796 -0.1019
43066SOL    HW138166   4.737   5.586   2.790  0.4079 -0.7738 -0.1691
43066SOL    HW238167   4.880   5.621   2.825 -0.0507  0.3941  0.6097
43067SOL     OW38168   9.941   4.032  11.365  0.7041 -0.0609  0.0086
43067SOL    HW138169   9.997   3.958  11.390 -1.3087 -1.1325  1.7136
43067SOL    HW238170   9.871   3.991  11.314 -0.9415  0.4433  1.7532
43068SOL     OW38171  10.926  10.678  11.480  0.8385 -0.0758  0.0828
43068SOL    HW138172  10.928  10.754  11.538  0.9018  2.2042 -2.6486
43068SOL    HW238173  10.883  10.710  11.400 -0.4697 -3.3727 -0.7014
43069SOL     OW38174  11.430   5.406   3.419  0.5736 -0.0766  0.0295
43069SOL    HW138175  11.485   5.458   3.476  0.1598  0.0008  0.3607
43069SOL    HW238176  11.467   5.318   3.423  1.0827  0.1169 -0.2872
43070SOL     OW38177  10.071   0.907  11.178  1.0661  0.2841  0.4779
43070SOL    HW138178   9.978   0.898  11.157  1.0321 -2.8863  1.5855
43070SOL    HW238179  10.072   0.957  11.260  0.2648 -0.4768  0.9628
43071SOL     OW38180   1.738   5.046   4.137  0.0074  0.2754  0.1447
43071SOL    HW138181   1.739   5.041   4.233  0.7445 -0.4581  0.1147
43071SOL    HW238182   1.675   4.978   4.111 -0.0881  0.3797  0.1048
43072SOL     OW38183   7.941  11.675   4.939  0.0589  0.0726 -0.1018
43072SOL    HW138184   7.882  11.742   4.973 -1.6306 -0.1548 -2.3640
43072SOL    HW238185   7.903  11.592   4.966 -0.1032 -0.0532 -0.7017
43073SOL     OW38186  10.045   3.783  10.983 -0.9726 -0.4159  0.2355
43073SOL    HW138187  10.006   3.743  11.061 -1.2122  0.1762  0.4237
43073SOL    HW238188   9.996   3.745  10.910  0.3751 -2.2769  0.2421
43074SOL     OW38189  11.998   7.095   1.238 -0.1841 -0.0715 -0.1824
43074SOL    HW138190  12.041   7.014   1.268  2.0588  0.8121 -0.7984
43074SOL    HW238191  12.059   7.164   1.261 -2.0254  1.4901  0.2464
43075SOL     OW38192   9.773   0.885   9.835  0.1040 -0.1265  0.2012
43075SOL    HW138193   9.801   0.809   9.783 -0.0237  0.1675 -0.3012
43075SOL    HW238194   9.725   0.847   9.908 -1.2206 -0.4978 -0.8058
43076SOL     OW38195   0.268   9.641   5.937  0.0398 -0.4009  0.3090
43076SOL    HW138196   0.248   9.726   5.977  1.2983  1.0305 -1.8596
43076SOL    HW238197   0.183   9.606   5.912 -0.4542  0.8023  0.2177
43077SOL     OW38198   9.645   8.866   7.290 -0.2245  0.5583 -0.8039
43077SOL    HW138199   9.572   8.918   7.323 -0.0451  0.1260  0.3027
43077SOL    HW238200   9.723   8.913   7.319 -0.0361 -1.0532  1.5116
43078SOL     OW38201   6.336   9.421   0.929  0.6104 -0.3319 -0.0723
43078SOL    HW138202   6.407   9.468   0.973 -0.0449 -1.4620  2.3260
43078SOL    HW238203   6.257   9.469   0.955  0.3260  0.1188 -1.6437
43079SOL     OW38204  11.597   1.880   6.069 -0.8525 -0.0834  0.4896
43079SOL    HW138205  11.664   1.933   6.025 -0.5860  0.4793  1.5404
43079SOL    HW238206  11.633   1.791   6.068 -1.1537 -0.2104 -0.9924
43080SOL     OW38207  10.656   7.599   3.283  0.1157 -0.0923 -0.3735
43080SOL    HW138208  10.611   7.682   3.266  0.9895  0.6625  0.8614
43080SOL    HW238209  10.615   7.537   3.222 -1.1962  1.0186 -0.6758
43081SOL     OW38210  12.596  12.017   5.573  0.6154  0.0066 -0.2975
43081SOL    HW138211  12.675  12.066   5.596  0.2591  0.3842  0.1579
43081SOL    HW238212  12.619  11.969   5.493  1.1988  0.3694 -0.3511
43082SOL     OW38213   7.945   1.727   7.364  0.1613  0.2160 -0.1861
43082SOL    HW138214   8.004   1.751   7.292  0.1209  0.0255 -0.2837
43082SOL    HW238215   7.894   1.806   7.380 -0.4648 -0.0167 -0.9811
43083SOL     OW38216  10.168   2.588   9.027  0.3408  0.4133  0.5621
43083SOL    HW138217  10.119   2.506   9.026  1.5506 -0.3222 -1.0182
43083SOL    HW238218  10.179   2.608   9.120  1.1128 -1.8776  1.0102
43084SOL     OW38219   2.622  10.704   7.861 -0.0637 -0.2226  0.4966
43084SOL    HW138220   2.678  10.646   7.912  0.8909  0.2444  0.0034
43084SOL    HW238221   2.655  10.792   7.879  2.8691 -0.1471 -3.6947
43085SOL     OW38222   7.898  12.476   4.171 -0.4140  0.3601 -0.1480
43085SOL    HW138223   7.807  12.469   4.143 -0.1932 -1.6626 -0.5443
43085SOL    HW238224   7.947  12.424   4.107  0.5818 -1.2465  1.7711
43086SOL     OW38225  10.306  10.069   8.551 -0.6254  0.3188 -0.1476
43086SOL    HW138226  10.215  10.063   8.581 -0.2910 -0.3965  0.7624
43086SOL    HW238227  10.334   9.978   8.541  0.2250  0.5272  0.2911
43087SOL     OW38228  11.177   7.762   0.617  0.0458  0.2768  0.2780
43087SOL    HW138229  11.227   7.830   0.572  0.8405 -0.3440  0.1997
43087SOL    HW238230  11.157   7.697   0.549  0.7246 -0.3652  0.6709
43088SOL     OW38231  11.836   9.368  12.091  0.0955 -0.0380 -0.2403
43088SOL    HW138232  11.812   9.277  12.110 -1.2610  0.6132  1.4436
43088SOL    HW238233  11.754   9.408  12.061  1.1397  0.1607 -3.1286
43089SOL     OW38234   9.861   6.546  12.457 -0.2029  0.0632  0.2854
43089SOL    HW138235   9.836   6.555  12.365 -0.5179 -1.6150  0.1785
43089SOL    HW238236   9.779   6.552  12.505 -0.2031 -0.3310  0.3410
43090SOL     OW38237  11.941   9.288   6.618  0.1140  0.0362 -0.2386
43090SOL    HW138238  11.992   9.264   6.541 -0.2212 -0.8662 -0.1951
43090SOL    HW238239  11.873   9.221   6.623 -0.9937  1.1316 -0.2144
43091SOL     OW38240   4.186   8.366   4.297 -0.3412  0.1068 -0.3616
43091SOL    HW138241   4.166   8.457   4.271  2.3685  1.1825  0.9257
43091SOL    HW238242   4.155   8.313   4.224  1.0742  2.3985 -2.7874
43092SOL     OW38243   9.337   0.924   9.030 -0.4915 -0.0274 -0.0470
43092SOL    HW138244   9.420   0.971   9.027 -0.9957  0.9189  0.2615
43092SOL    HW238245   9.361   0.831   9.031  0.4959  0.0594 -3.6085
43093SOL     OW38246   7.270   5.372   2.784 -0.2640 -0.4428  0.0931
43093SOL    HW138247   7.344   5.312   2.779 -0.0927 -0.4989  2.3153
43093SOL    HW238248   7.310   5.459   2.785 -0.2479 -0.4557  0.8351
43094SOL     OW38249  10.100   6.943   4.458  0.4780 -0.1770 -0.4992
43094SOL    HW138250  10.118   7.004   4.529  1.1727 -0.5488 -0.3420
43094SOL    HW238251  10.164   6.964   4.391 -0.0598  0.0552 -0.9490
43095SOL     OW38252   1.067  10.322   7.633  0.3145 -0.7840  0.1544
43095SOL    HW138253   1.044  10.355   7.546 -1.0518 -0.3737  0.6547
43095SOL    HW238254   1.153  10.362   7.651  1.2068 -1.8474 -1.4908
43096SOL     OW38255   8.727   4.078   1.315  0.9604 -0.2774 -0.6948
43096SOL    HW138256   8.813   4.108   1.343  0.1599  2.1302 -0.5779
43096SOL    HW238257   8.680   4.157   1.290 -1.9386 -1.1716  1.2541
43097SOL     OW38258   2.762   8.865  10.432 -0.1025 -0.1530  0.2064
43097SOL    HW138259   2.684   8.813  10.454  0.0246 -0.9480 -1.1087
43097SOL    HW238260   2.825   8.843  10.500 -1.1683  0.8804  1.5781
43098SOL     OW38261   3.552   9.086   0.890  0.3541 -0.0651  0.2076
43098SOL    HW138262   3.493   9.107   0.818  0.4878 -1.4019 -0.3202
43098SOL    HW238263   3.624   9.037   0.850  0.9389  0.0321  1.1010
43099SOL     OW38264   3.115   7.978   5.764 -0.0808 -0.0185 -0.3830
43099SOL    HW138265   3.169   7.988   5.842  1.5606 -1.0088 -1.3138
43099SOL    HW238266   3.145   8.047   5.705  1.2015 -1.3665 -1.4066
43100SOL     OW38267   2.481   5.290   9.978  0.1210 -0.0990  0.4967
43100SOL    HW138268   2.430   5.370   9.967  1.0044  0.4726  0.4583
43100SOL    HW238269   2.497   5.260   9.888 -0.6836 -0.6447  0.5207
43101SOL     OW38270   5.791   7.932   2.902  0.0093  0.0036  0.3699
43101SOL    HW138271   5.705   7.964   2.875  0.1923  1.0098  0.9180
43101SOL    HW238272   5.847   7.947   2.826  0.0804  0.9890  0.5982
43102SOL     OW38273   4.595   4.201   4.848  0.0511  0.0787 -0.1505
43102SOL    HW138274   4.529   4.231   4.784  1.1366 -0.6601 -1.6791
43102SOL    HW238275   4.592   4.105   4.841 -1.0861 -0.1196  2.2863
43103SOL     OW38276   1.491  10.784   5.108 -0.0841  0.2109  0.6772
43103SOL    HW138277   1.472  10.830   5.190 -2.3188  1.8007 -0.6216
43103SOL    HW238278   1.506  10.693   5.135  0.4624  0.8958  2.9304
43104SOL     OW38279  12.508  10.104   0.447 -1.2413 -0.5303 -0.2634
43104SOL    HW138280  12.589  10.061   0.475 -1.0283 -0.3379 -0.5788
43104SOL    HW238281  12.441  10.035   0.453 -0.5028 -1.6184 -2.9543
43105SOL     OW38282   0.842   1.611   7.130 -0.0582  0.5016  0.4094
43105SOL    HW138283   0.760   1.614   7.080  0.1057  2.2786  0.1870
43105SOL    HW238284   0.903   1.665   7.080  1.2481 -0.7091  0.6279
43106SOL     OW38285   0.588  10.626   4.685 -0.1348  0.0547  0.3569
43106SOL    HW138286   0.587  10.705   4.739  1.5056  1.7997 -1.9502
43106SOL    HW238287   0.625  10.558   4.742  1.2806  1.7299  1.5412
43107SOL     OW38288  12.529   2.707   1.226 -0.1792 -0.0803 -0.2895
43107SOL    HW138289  12.595   2.741   1.286 -1.6035  0.1487  1.2281
43107SOL    HW238290  12.468   2.659   1.283 -1.1787 -0.5084 -1.6695
43108SOL     OW38291   8.213   0.208   2.425  0.2235 -0.1469  0.2959
43108SOL    HW138292   8.130   0.171   2.458  0.6870 -0.4223  1.1891
43108SOL    HW238293   8.199   0.302   2.425  0.0040 -0.1766  0.7240
43109SOL     OW38294   6.537  12.196  12.374  0.9828 -0.4289  0.0787
43109SOL    HW138295   6.612  12.246  12.405  0.7852 -0.2889  0.3331
43109SOL    HW238296   6.560  12.171  12.285  1.7664 -1.2469  0.4954
43110SOL     OW38297   6.816   4.949   7.653  0.1911  0.3623  0.8056
43110SOL    HW138298   6.888   4.993   7.608 -0.9126  1.0868 -0.3168
43110SOL    HW238299   6.765   5.019   7.692 -1.0479  0.0339 -0.1701
43111SOL     OW38300   7.723   2.363   8.771 -0.4069 -0.4825  0.2697
43111SOL    HW138301   7.798   2.397   8.722 -0.2773 -1.1280  0.0039
43111SOL    HW238302   7.692   2.437   8.822 -0.2589  0.0827 -0.4419
43112SOL     OW38303  11.884   7.684   4.418 -0.1210 -0.1009  0.5124
43112SOL    HW138304  11.790   7.696   4.403 -0.1201  0.3466  0.8342
43112SOL    HW238305  11.917   7.772   4.433  0.7075 -0.0306 -1.4642
43113SOL     OW38306   3.196   2.372   5.805  0.4743  0.1888 -0.0423
43113SOL    HW138307   3.147   2.298   5.769  2.4408 -0.6198 -1.2378
43113SOL    HW238308   3.138   2.447   5.792 -0.9137 -0.8774 -0.3038
43114SOL     OW38309   8.186   0.061  11.835 -0.4851  0.3456  0.4264
43114SOL    HW138310   8.214   0.040  11.746  0.3164  1.2622  0.4444
43114SOL    HW238311   8.094   0.087  11.826 -0.4208  0.3927 -0.1226
43115SOL     OW38312   5.865   0.084   1.543  0.0033 -0.5369  0.3797
43115SOL    HW138313   5.800   0.026   1.582  0.6707 -0.7662  1.1824
43115SOL    HW238314   5.875   0.053   1.454 -1.8352  0.2332 -0.1384
43116SOL     OW38315   1.196   7.256   9.234 -0.6925  0.5342 -0.0400
43116SOL    HW138316   1.126   7.227   9.176  0.8084 -0.0181 -1.6611
43116SOL    HW238317   1.212   7.182   9.292 -0.1312 -0.0882 -0.9749
43117SOL     OW38318   3.830  11.029  10.702  1.2224 -0.3118 -0.3424
43117SOL    HW138319   3.908  11.003  10.751  0.5731 -1.0892  0.2952
43117SOL    HW238320   3.842  11.123  10.688  1.9639 -0.2904  0.3191
43118SOL     OW38321   8.448   9.330   2.121 -0.0983  0.3612  0.2436
43118SOL    HW138322   8.388   9.355   2.051 -0.0049  0.8657  0.3403
43118SOL    HW238323   8.400   9.265   2.172  0.4385 -1.2615 -1.2293
43119SOL     OW38324   1.105  11.797   9.546 -0.1148 -0.5114  0.0821
43119SOL    HW138325   1.172  11.735   9.516 -1.1713 -0.5501 -2.4827
43119SOL    HW238326   1.027  11.773   9.497 -1.3888  0.9875  1.2748
43120SOL     OW38327  11.843   3.373   2.385 -0.0274 -0.0305 -0.0736
43120SOL    HW138328  11.921   3.340   2.430 -0.6023 -0.5116  0.6102
43120SOL    HW238329  11.776   3.378   2.454 -0.4692  0.8308 -0.5474
43121SOL     OW38330   6.862  10.281   7.689 -0.6221 -0.2599 -0.2355
43121SOL    HW138331   6.849  10.333   7.610  0.7941 -0.6298 -0.7499
43121SOL    HW238332   6.921  10.210   7.662  1.3615  0.5965  1.5242
43122SOL     OW38333   8.687   4.696   8.609 -0.4197 -0.5165  0.2672
43122SOL    HW138334   8.639   4.616   8.631 -0.0200 -1.0509 -0.7755
43122SOL    HW238335   8.761   4.697   8.670 -0.4406 -0.9196  0.2978
43123SOL     OW38336   0.388   9.055   5.554  0.1314  0.0065 -0.3366
43123SOL    HW138337   0.398   8.993   5.482  0.0484 -0.9502  0.4545
43123SOL    HW238338   0.464   9.112   5.546  1.5785 -1.7115  0.3291
43124SOL     OW38339   9.481   6.891   1.809  0.2082  0.3353  0.2922
43124SOL    HW138340   9.510   6.870   1.898 -3.7649  0.3806  1.8238
43124SOL    HW238341   9.440   6.809   1.778 -0.7692  1.0593 -0.3884
43125SOL     OW38342   6.548   5.852   7.622 -0.0895 -0.0071  0.0347
43125SOL    HW138343   6.577   5.944   7.623  2.6511 -0.6761  3.8014
43125SOL    HW238344   6.476   5.849   7.685 -0.9073 -0.3323 -0.8841
43126SOL     OW38345   3.815   4.129   4.415 -0.4783 -0.6120 -0.4087
43126SOL    HW138346   3.794   4.190   4.486 -1.0476 -0.2145 -0.9129
43126SOL    HW238347   3.910   4.116   4.423 -0.3884  0.1441 -0.1409
43127SOL     OW38348   0.670   7.203   3.868  1.1175 -0.3053  0.0637
43127SOL    HW138349   0.608   7.229   3.936  0.5562 -1.0046 -0.1800
43127SOL    HW238350   0.720   7.132   3.907 -0.4622 -2.0028 -0.8766
43128SOL     OW38351   2.091   5.432  10.413 -0.7085  0.4274 -0.0846
43128SOL    HW138352   2.175   5.386  10.402 -0.6642  0.1008  1.3673
43128SOL    HW238353   2.045   5.417  10.331  0.0009 -0.7761 -0.2971
43129SOL     OW38354   7.090   7.898   7.533 -0.5066  0.0839 -0.0178
43129SOL    HW138355   7.065   7.987   7.506  1.1091  1.0398  1.4064
43129SOL    HW238356   7.024   7.873   7.597 -1.6727 -0.2933 -1.3143
43130SOL     OW38357   0.480   4.981   5.702  0.3682  0.1700 -0.1754
43130SOL    HW138358   0.469   4.894   5.663  0.7241 -0.8302  1.7851
43130SOL    HW238359   0.573   4.985   5.724  0.0505  0.3006  1.2776
43131SOL     OW38360   2.856  11.986   9.994 -0.3801 -1.0957  0.1950
43131SOL    HW138361   2.882  11.897   9.970  1.6735  0.0196 -2.1784
43131SOL    HW238362   2.872  12.038   9.915  0.6723  1.8015  2.1429
43132SOL     OW38363   9.190   0.904   2.076  0.7615 -0.3745  0.2723
43132SOL    HW138364   9.109   0.955   2.068  1.3828  0.6091 -0.0001
43132SOL    HW238365   9.259   0.965   2.051  1.6943 -0.8755  1.4771
43133SOL     OW38366  10.959  10.604  11.175 -0.0216  0.0202 -0.1398
43133SOL    HW138367  11.019  10.602  11.250 -0.7604  0.7406  0.4740
43133SOL    HW238368  10.901  10.529  11.189 -0.0128  0.0183 -0.1154
43134SOL     OW38369  10.315   6.334   7.870  0.5434 -0.1431  0.2394
43134SOL    HW138370  10.350   6.246   7.855  0.1687 -0.0815 -1.1519
43134SOL    HW238371  10.300   6.338   7.964 -1.0899 -2.2455  0.1610
43135SOL     OW38372   1.007   7.746   1.939 -0.4616 -0.2649 -0.4634
43135SOL    HW138373   1.064   7.678   1.903 -0.9481 -0.6343 -0.5544
43135SOL    HW238374   1.018   7.738   2.034  0.1993  0.1622 -0.5011
43136SOL     OW38375  10.169   2.325   0.741 -1.2152 -0.2259  0.4791
43136SOL    HW138376  10.163   2.399   0.680 -0.3252  1.6933  2.5596
43136SOL    HW238377  10.192   2.251   0.686 -2.0135  1.0370 -1.7106
43137SOL     OW38378   2.424   0.895   9.946  0.2189  0.5321 -0.1856
43137SOL    HW138379   2.353   0.927  10.002  0.9282  1.5757  0.1482
43137SOL    HW238380   2.403   0.928   9.859  0.4355  1.0896 -0.0310
43138SOL     OW38381   0.444   6.547  10.866 -0.1233  0.1111  0.3944
43138SOL    HW138382   0.389   6.510  10.797 -1.0124  0.4390  0.9099
43138SOL    HW238383   0.526   6.570  10.821 -0.4938 -0.1544 -0.4435
43139SOL     OW38384   8.673   6.175   8.998 -0.1007  0.4612 -0.3374
43139SOL    HW138385   8.706   6.085   8.999  1.2419  0.9051 -1.3290
43139SOL    HW238386   8.624   6.183   9.080  2.9918 -0.0644  1.7508
43140SOL     OW38387   4.156   6.085  12.510 -0.4970  0.5453 -0.2035
43140SOL    HW138388   4.205   6.074  12.592  1.6330  0.6973 -1.3990
43140SOL    HW238389   4.127   5.996  12.489 -0.0310  0.3142  0.1031
43141SOL     OW38390   4.206   5.474   0.897 -0.0105 -0.1146  0.0820
43141SOL    HW138391   4.209   5.421   0.977  2.3321  0.4234  0.4059
43141SOL    HW238392   4.188   5.411   0.827  0.4118 -0.9721  0.7299
43142SOL     OW38393   1.071   3.609   7.486  0.0161  0.4722  1.4894
43142SOL    HW138394   1.065   3.643   7.575 -0.3222  1.4602  1.1017
43142SOL    HW238395   1.154   3.563   7.484  0.5522  1.3902  2.0025
43143SOL     OW38396   7.017   4.742   6.725 -0.1710  0.4489 -0.4734
43143SOL    HW138397   7.077   4.813   6.701 -0.3698  1.5312  1.9421
43143SOL    HW238398   7.067   4.688   6.787 -1.3641  0.8965  0.9405
43144SOL     OW38399   3.515   4.277  12.386 -0.3198 -0.3570 -0.5327
43144SOL    HW138400   3.531   4.364  12.349  1.2080 -0.2583  0.2742
43144SOL    HW238401   3.422   4.261  12.369 -0.2183  0.6489 -2.2829
43145SOL     OW38402   3.365   4.003   5.078  0.1317  0.3066 -0.1979
43145SOL    HW138403   3.323   4.059   5.013 -3.1585 -2.2624 -0.5393
43145SOL    HW238404   3.303   4.001   5.151  1.9847  0.1283  1.4667
43146SOL     OW38405  10.187   2.716   0.864  0.0385  0.1616  0.0752
43146SOL    HW138406  10.110   2.672   0.828  1.2857 -1.4443 -0.7856
43146SOL    HW238407  10.208   2.783   0.798  1.0929 -1.4035 -1.2743
43147SOL     OW38408   8.869  10.355  11.948 -0.0207  0.0786 -0.6350
43147SOL    HW138409   8.926  10.418  11.992  0.4644  1.1606 -2.6854
43147SOL    HW238410   8.781  10.378  11.977  0.3353  0.2086  0.3937
43148SOL     OW38411   7.713   0.234   9.076 -0.2106 -0.3838  0.2502
43148SOL    HW138412   7.766   0.301   9.118 -3.5480  1.8559  1.2579
43148SOL    HW238413   7.739   0.237   8.984  1.1282  0.8696  0.6386
43149SOL     OW38414   9.431   0.813   3.922 -0.1475  0.5770  0.3089
43149SOL    HW138415   9.457   0.765   3.843 -1.5573 -0.2477  0.3105
43149SOL    HW238416   9.474   0.767   3.994  0.4241  0.7915  0.1102
43150SOL     OW38417   5.221   7.977   3.518  0.5054  0.2886  0.2699
43150SOL    HW138418   5.260   8.064   3.533 -2.9339  2.4871 -2.1914
43150SOL    HW238419   5.136   7.982   3.561 -0.0856 -1.5793 -0.6095
43151SOL     OW38420   0.350   8.183   5.513 -0.4352 -0.6497 -0.3529
43151SOL    HW138421   0.445   8.184   5.499 -0.3714 -0.2800  0.0801
43151SOL    HW238422   0.316   8.128   5.442 -0.1735  1.4139 -2.2007
43152SOL     OW38423  10.670   0.003   3.845  0.2604 -0.1973 -0.2440
43152SOL    HW138424  10.764   0.020   3.837  0.5939 -1.7878 -0.0997
43152SOL    HW238425  10.643  -0.024   3.757  0.4434 -1.9381  0.2102
43153SOL     OW38426   3.439   2.816   6.187  0.0826 -0.4471  0.2337
43153SOL    HW138427   3.516   2.767   6.216  0.8801  1.5386  1.7341
43153SOL    HW238428   3.474   2.902   6.163 -1.6910  0.6374  1.3403
43154SOL     OW38429   1.378  12.462  11.571  0.3248 -0.6099  0.1536
43154SOL    HW138430   1.335  12.545  11.549 -0.5006 -1.0417  0.0949
43154SOL    HW238431   1.442  12.486  11.638  0.4866  0.1658 -0.2732
43155SOL     OW38432   8.534   9.076   2.912 -0.7672 -0.2492 -0.5734
43155SOL    HW138433   8.587   9.020   2.968  0.4458  1.5610  0.1783
43155SOL    HW238434   8.560   9.053   2.823  0.8240  0.1401 -0.2328
43156SOL     OW38435   8.804   3.533   6.085  0.2459 -0.3965 -0.3465
43156SOL    HW138436   8.769   3.614   6.122 -1.3859 -0.6420 -1.2456
43156SOL    HW238437   8.898   3.548   6.080 -0.0106  1.4266 -0.4401
43157SOL     OW38438   3.241   0.930   6.953 -0.0787  0.4944 -0.5128
43157SOL    HW138439   3.294   0.862   6.913 -1.3574 -0.2209 -1.0646
43157SOL    HW238440   3.208   0.982   6.880 -2.1082 -0.5816 -0.4469
43158SOL     OW38441   9.956   9.749  12.344  0.6262  0.0277 -0.0621
43158SOL    HW138442   9.959   9.686  12.271  1.0277  0.9166 -0.8292
43158SOL    HW238443   9.999   9.827  12.310  1.0656  0.3670  1.2370
43159SOL     OW38444  10.816   1.692  11.774 -0.2914  0.4834  0.2424
43159SOL    HW138445  10.732   1.701  11.819 -0.4134  0.8341 -0.0555
43159SOL    HW238446  10.794   1.648  11.692 -0.0962  0.0293  0.4272
43160SOL     OW38447   1.117   5.629  10.713  0.2867  0.0836 -0.4571
43160SOL    HW138448   1.093   5.540  10.736  1.0004 -0.6525 -2.4013
43160SOL    HW238449   1.051   5.657  10.649  0.0456  0.9835  0.1558
43161SOL     OW38450   0.421   9.671   3.208  0.3747 -0.2057  0.2527
43161SOL    HW138451   0.459   9.668   3.120  0.3615 -0.0407  0.2397
43161SOL    HW238452   0.472   9.738   3.254  0.9038 -0.8612  0.6254
43162SOL     OW38453   4.343   9.456   1.622 -0.3530  0.1109  0.2196
43162SOL    HW138454   4.353   9.440   1.716 -0.2693 -0.3665  0.1374
43162SOL    HW238455   4.303   9.542   1.615 -0.1123  0.2599  0.6867
43163SOL     OW38456   1.632  10.558   2.815 -0.2051 -0.0210  0.0850
43163SOL    HW138457   1.555  10.545   2.760 -0.5356 -1.5888  0.8644
43163SOL    HW238458   1.663  10.470   2.835  1.4910  0.5642  0.2376
43164SOL     OW38459   7.638   4.847   3.498 -0.8825 -0.0630  0.3001
43164SOL    HW138460   7.719   4.858   3.449 -2.1272  0.4172 -1.7581
43164SOL    HW238461   7.629   4.929   3.547 -2.0889  1.7316 -2.6491
43165SOL     OW38462   3.539   2.642   1.195  0.2899  0.1743  0.5081
43165SOL    HW138463   3.477   2.588   1.146  2.0729 -1.2633 -0.2791
43165SOL    HW238464   3.594   2.682   1.128  1.6333 -0.3874  1.2445
43166SOL     OW38465   5.706   0.069   4.885 -0.3509 -0.5708  0.0032
43166SOL    HW138466   5.674  -0.016   4.856 -0.1778 -0.3366 -0.9127
43166SOL    HW238467   5.800   0.057   4.897 -0.5489 -0.9069  1.4027
43167SOL     OW38468   3.385   7.436   3.692 -0.2158  0.4704  0.2724
43167SOL    HW138469   3.366   7.343   3.699 -0.1264  0.4425  0.1424
43167SOL    HW238470   3.353   7.461   3.605 -0.2345  0.5592  0.3043
43168SOL     OW38471   3.911   4.542   5.187 -0.1424 -0.1057  0.4585
43168SOL    HW138472   3.916   4.446   5.184 -0.2506 -0.1660  1.8766
43168SOL    HW238473   4.002   4.570   5.189 -0.1194 -0.2063  0.8089
43169SOL     OW38474  10.467  11.479   1.403  0.9444  0.0551  0.1629
43169SOL    HW138475  10.412  11.540   1.453  0.8602 -1.7790  2.4714
43169SOL    HW238476  10.556  11.506   1.423  0.9114  0.4886 -0.2544
43170SOL     OW38477   7.780   6.864  11.926  0.1531 -0.1721  0.1825
43170SOL    HW138478   7.761   6.957  11.943 -1.2425  0.1206 -2.4256
43170SOL    HW238479   7.755   6.819  12.006 -2.4459  1.3676  0.3517
43171SOL     OW38480   6.159   8.437   3.505 -0.0904 -0.5008 -0.4356
43171SOL    HW138481   6.210   8.507   3.463  0.4772 -0.7962 -0.2486
43171SOL    HW238482   6.088   8.419   3.444  0.0693 -0.1340 -0.7335
43172SOL     OW38483   6.953   2.891  12.132  0.2695  0.0487 -0.2342
43172SOL    HW138484   6.945   2.920  12.041  2.0829  0.1175 -0.4104
43172SOL    HW238485   6.888   2.821  12.140 -0.6569  0.7374 -1.2501
43173SOL     OW38486   0.412   8.864   5.359  0.1815 -0.7166 -0.6225
43173SOL    HW138487   0.454   8.783   5.330  0.8950 -1.0982  1.3189
43173SOL    HW238488   0.324   8.837   5.384  0.3110 -0.8270 -0.2858
43174SOL     OW38489  10.799   6.016   5.768  0.1138  0.4829 -0.4874
43174SOL    HW138490  10.818   5.947   5.832 -1.3064  0.4952 -0.0152
43174SOL    HW238491  10.817   5.975   5.683 -2.7389 -1.2718 -0.3746
43175SOL     OW38492   9.783   2.657   9.146 -0.1156 -0.1784  0.2115
43175SOL    HW138493   9.735   2.728   9.189  0.5867  0.4901 -0.0857
43175SOL    HW238494   9.837   2.701   9.080 -2.3406 -1.2642 -2.5767
43176SOL     OW38495   0.800   1.483   6.541 -0.3457  0.5223  0.9534
43176SOL    HW138496   0.816   1.490   6.635  1.4490  2.0235  0.5996
43176SOL    HW238497   0.882   1.449   6.506 -0.4342  1.4553 -0.2200
43177SOL     OW38498   9.517   3.412   6.701  0.8126 -0.3301 -0.3782
43177SOL    HW138499   9.477   3.496   6.679  0.9398 -0.5293 -1.4218
43177SOL    HW238500   9.561   3.384   6.621  1.8803 -0.7766  0.3405
43178SOL     OW38501   8.887   9.015   6.922 -0.4439 -0.1614 -0.7577
43178SOL    HW138502   8.917   8.964   6.846 -0.1376  0.1116 -0.8241
43178SOL    HW238503   8.814   9.067   6.888 -1.2052 -1.0574 -0.5192
43179SOL     OW38504   7.238   5.844   9.183  0.6214 -0.4600 -0.3045
43179SOL    HW138505   7.288   5.763   9.188  0.0990 -0.7927 -0.4689
43179SOL    HW238506   7.220   5.867   9.274  3.9963  1.5131  0.0347
43180SOL     OW38507  11.298   7.538   4.002 -0.1943  0.4507 -0.2147
43180SOL    HW138508  11.223   7.481   3.988  0.3812 -0.8668  1.6425
43180SOL    HW238509  11.367   7.501   3.947 -0.2711  0.2798 -0.1968
43181SOL     OW38510   3.617  10.092   0.475 -0.3974  0.3348 -1.0036
43181SOL    HW138511   3.592  10.184   0.468  0.7010  0.9382  1.5540
43181SOL    HW238512   3.707  10.089   0.441  0.4213  0.7604  0.9628
43182SOL     OW38513  10.162  12.084   9.606  0.6027 -0.8320 -0.6717
43182SOL    HW138514  10.100  12.155   9.589  1.0921 -0.5267 -1.2748
43182SOL    HW238515  10.142  12.054   9.694 -0.3804 -0.7277 -0.8470
43183SOL     OW38516   9.140   8.835   7.924  0.5520 -0.2470  0.0820
43183SOL    HW138517   9.222   8.813   7.968  0.4427 -0.2220  0.3027
43183SOL    HW238518   9.157   8.918   7.882  0.9891 -0.7765 -0.8045
43184SOL     OW38519  10.151   4.454   0.652 -0.4362  0.1726  0.2672
43184SOL    HW138520  10.095   4.440   0.576 -0.5264  0.7430  0.2208
43184SOL    HW238521  10.218   4.387   0.645 -1.9102 -1.4840  1.1071
43185SOL     OW38522  10.914   5.181  11.109 -0.1982 -0.0397 -0.1427
43185SOL    HW138523  10.916   5.107  11.048 -0.6108 -0.5976  0.5116
43185SOL    HW238524  10.822   5.189  11.134 -0.2392  1.0042 -0.5695
43186SOL     OW38525  10.561  12.152   0.305 -0.2514  0.1646  0.4067
43186SOL    HW138526  10.506  12.176   0.231 -2.1282  1.5669  2.1209
43186SOL    HW238527  10.646  12.192   0.286 -1.1097  1.7157 -0.3446
43187SOL     OW38528   1.371   5.506   5.020  0.2803  0.4469 -0.5586
43187SOL    HW138529   1.429   5.534   4.949  0.9630  1.5213  0.4031
43187SOL    HW238530   1.364   5.411   5.008  0.4251  0.5882 -2.0152
43188SOL     OW38531   2.110   4.254   7.929  0.1821  0.6897 -0.1385
43188SOL    HW138532   2.154   4.335   7.904 -0.0311  0.5635 -0.9523
43188SOL    HW238533   2.051   4.236   7.856 -0.8838  0.6060  0.7196
43189SOL     OW38534   9.914   0.434   9.802 -0.1124 -0.2016  0.4688
43189SOL    HW138535   9.938   0.374   9.732 -0.4557  1.6873 -1.3390
43189SOL    HW238536   9.908   0.520   9.761 -0.0645  1.0548  2.8662
43190SOL     OW38537  11.098  10.624   5.970  0.5005 -0.2315  0.1670
43190SOL    HW138538  11.061  10.585   5.891  0.1008 -1.1061  0.7757
43190SOL    HW238539  11.157  10.558   6.005  0.0211 -0.2052  1.0610
43191SOL     OW38540   3.326   8.081   5.341  0.2677 -0.3833  0.5719
43191SOL    HW138541   3.367   8.156   5.297 -0.4063 -0.1926  0.2530
43191SOL    HW238542   3.316   8.109   5.432  1.0764 -0.5333  0.7138
43192SOL     OW38543   1.194   4.432  12.374  0.5408  0.3656  0.6772
43192SOL    HW138544   1.204   4.524  12.351  0.4788  0.3206  0.4690
43192SOL    HW238545   1.269   4.389  12.334  1.1307  0.4755  1.6385
43193SOL     OW38546   4.036   3.939   5.522  0.1014 -0.9844 -0.4089
43193SOL    HW138547   4.101   3.899   5.464  1.1080 -0.2208  0.1505
43193SOL    HW238548   4.052   3.898   5.607  1.2254  0.6174  0.2043
43194SOL     OW38549   2.760   0.990   0.996  0.8007 -0.0374  0.4548
43194SOL    HW138550   2.721   1.076   1.009  2.2015  0.6115  0.5722
43194SOL    HW238551   2.743   0.943   1.078 -0.6527 -0.1782  0.0955
43195SOL     OW38552   8.169   1.743  11.980  0.1484  0.6021  0.5488
43195SOL    HW138553   8.128   1.657  11.989 -0.4565  0.5179 -2.1360
43195SOL    HW238554   8.263   1.725  11.987 -0.0259  0.1288  2.2772
43196SOL     OW38555   1.730   4.118   2.741 -0.1509 -0.6234  0.5335
43196SOL    HW138556   1.798   4.071   2.693  1.2472  0.4211  1.4110
43196SOL    HW238557   1.725   4.204   2.699  1.3131  0.4249  2.3228
43197SOL     OW38558   0.270   2.808   6.638  0.1718 -0.4372  0.1527
43197SOL    HW138559   0.319   2.755   6.700 -1.0634 -1.1165  0.5829
43197SOL    HW238560   0.212   2.862   6.692 -1.4779 -1.5937 -0.3942
43198SOL     OW38561   0.351   3.236   0.492  0.2956 -0.2327  0.7285
43198SOL    HW138562   0.417   3.240   0.423 -0.5972 -0.6510 -0.1677
43198SOL    HW238563   0.342   3.326   0.522  1.9141 -0.2993  1.4972
43199SOL     OW38564   0.728   7.348   0.685 -0.2916 -0.0076 -0.2312
43199SOL    HW138565   0.790   7.417   0.663 -1.0560  0.8757  0.2864
43199SOL    HW238566   0.782   7.271   0.705  0.5855  0.5602 -0.3893
43200SOL     OW38567   2.194   4.593   5.611 -0.7026  0.3859 -0.7276
43200SOL    HW138568   2.113   4.625   5.571 -1.0310  0.5478  0.0600
43200SOL    HW238569   2.200   4.640   5.694  0.7020  1.1065 -1.2079
43201SOL     OW38570   1.339   7.338   1.407  0.4219  0.1397  0.0424
43201SOL    HW138571   1.420   7.385   1.385  0.0378  0.0418 -1.7443
43201SOL    HW238572   1.367   7.247   1.418  0.4406 -0.0894 -1.6384
43202SOL     OW38573  11.226  12.020  11.834 -0.5376 -0.0328 -0.0621
43202SOL    HW138574  11.288  12.091  11.853 -0.2966 -0.2014 -0.2162
43202SOL    HW238575  11.169  12.055  11.765  0.0108 -0.2288 -0.6245
43203SOL     OW38576   0.193   4.312   9.845  0.0150  0.1243  0.3889
43203SOL    HW138577   0.162   4.259   9.772  0.2444 -0.8298  0.9715
43203SOL    HW238578   0.262   4.367   9.807  0.4599 -0.7008 -0.0181
43204SOL     OW38579   7.362   5.941   4.503 -0.7392 -0.0106 -0.0238
43204SOL    HW138580   7.281   5.964   4.548  0.3379  0.6927  1.6442
43204SOL    HW238581   7.389   5.858   4.542 -0.3899  0.0187 -0.1996
43205SOL     OW38582   7.851  11.659   8.768  0.2820  0.1356 -0.3174
43205SOL    HW138583   7.772  11.681   8.817  0.4202  1.0343 -0.4758
43205SOL    HW238584   7.827  11.669   8.676  0.6112  0.5625 -0.3628
43206SOL     OW38585  12.125  11.999  10.120  0.3813  0.1779 -0.6563
43206SOL    HW138586  12.138  12.091  10.094  0.1253  0.1798 -0.7804
43206SOL    HW238587  12.213  11.967  10.138  0.4708  0.4618 -0.5704
43207SOL     OW38588   3.957   3.215   9.711 -0.2793 -0.3863 -0.6340
43207SOL    HW138589   4.030   3.179   9.661  0.3623 -0.6165  0.4431
43207SOL    HW238590   3.879   3.178   9.669  0.2151 -0.2873 -1.6785
43208SOL     OW38591   1.875   2.951   9.922  0.6016  0.8205 -0.4104
43208SOL    HW138592   1.890   2.870   9.874 -2.0864  1.4697 -2.6279
43208SOL    HW238593   1.806   2.929   9.985  0.0825  1.2930 -0.8071
43209SOL     OW38594  10.081   5.218   0.807 -0.3132 -0.0689  0.4459
43209SOL    HW138595  10.085   5.138   0.860 -0.6396 -1.8269 -2.0326
43209SOL    HW238596  10.172   5.237   0.784 -0.3491 -0.6389 -0.2016
43210SOL     OW38597   1.355   9.158  12.169 -0.3360  0.1589  0.3569
43210SOL    HW138598   1.385   9.238  12.212  0.6337  0.3680 -0.6556
43210SOL    HW238599   1.333   9.099  12.241  0.0584  0.9285  1.1292
43211SOL     OW38600   9.554   2.389   0.914 -0.1229  0.1380  0.1314
43211SOL    HW138601   9.624   2.438   0.957  0.5392 -0.1157 -0.6413
43211SOL    HW238602   9.476   2.443   0.926  0.2072  0.4512  0.9536
43212SOL     OW38603  10.128  11.488  11.792  0.1717  0.1455 -0.0814
43212SOL    HW138604  10.201  11.452  11.741  0.9170 -0.9336  1.6786
43212SOL    HW238605  10.163  11.567  11.833  0.4046 -0.4380  0.8610
43213SOL     OW38606   5.625   3.126   3.762 -0.2521 -0.2853  0.5218
43213SOL    HW138607   5.669   3.150   3.844  0.4149  1.5429 -0.3103
43213SOL    HW238608   5.536   3.104   3.788 -0.5811  1.9874  1.5857
43214SOL     OW38609   5.929   0.866   7.517  0.4315 -0.0775  0.0884
43214SOL    HW138610   5.861   0.817   7.563  1.0799 -1.2688 -0.1973
43214SOL    HW238611   5.881   0.919   7.453 -0.2730 -0.3710  0.3576
43215SOL     OW38612   9.419  10.845  10.842 -0.2816 -0.8865 -0.0727
43215SOL    HW138613   9.497  10.799  10.814 -0.1092 -0.9965  0.5645
43215SOL    HW238614   9.436  10.868  10.934 -0.1167  0.9631 -0.5239
43216SOL     OW38615   8.498   0.991   9.872 -0.1034 -0.4293  0.0328
43216SOL    HW138616   8.457   0.905   9.869  2.9251 -2.1852  2.6693
43216SOL    HW238617   8.572   0.985   9.811  0.8660 -0.2094  1.1485
43217SOL     OW38618   1.969   3.220   3.202 -0.7402  0.4882  0.2335
43217SOL    HW138619   1.889   3.267   3.174  0.5796  1.1303 -2.8793
43217SOL    HW238620   1.944   3.128   3.200 -1.8371  0.7480  0.9136
43218SOL     OW38621   7.467   2.521   2.140  0.0303 -1.4055 -0.5281
43218SOL    HW138622   7.438   2.545   2.228  0.8200 -1.2680 -0.2912
43218SOL    HW238623   7.392   2.540   2.083  0.1910  0.4841 -0.1728
43219SOL     OW38624  10.795  12.374   9.774  0.0826 -0.1877  0.0485
43219SOL    HW138625  10.707  12.378   9.737  0.4616  0.3975 -0.8218
43219SOL    HW238626  10.831  12.461   9.757  0.5095 -0.1235  1.2201
43220SOL     OW38627  10.785  10.201   8.934  0.3813 -0.6215 -0.2391
43220SOL    HW138628  10.792  10.166   8.846  0.8346 -1.6564  0.1916
43220SOL    HW238629  10.697  10.176   8.963 -0.0544  0.3734 -0.6529
43221SOL     OW38630   8.705   1.486   9.365  0.4000  0.3058 -0.1869
43221SOL    HW138631   8.641   1.504   9.433 -0.6174 -2.6730 -0.2005
43221SOL    HW238632   8.708   1.390   9.359  2.9884  0.3759 -1.9756
43222SOL     OW38633   1.095  11.855   5.724  0.3651 -0.3867 -0.1556
43222SOL    HW138634   1.174  11.827   5.677 -0.6419 -2.2628 -0.8397
43222SOL    HW238635   1.124  11.869   5.814  2.1583  2.3840 -1.0347
43223SOL     OW38636   9.625  11.944   7.492  0.5805 -0.3638  0.3065
43223SOL    HW138637   9.534  11.912   7.491  0.9639 -1.5343 -0.7485
43223SOL    HW238638   9.656  11.926   7.580 -0.3117  0.3920  0.7972
43224SOL     OW38639   0.786  12.464   8.752 -0.1926 -0.1682 -0.1211
43224SOL    HW138640   0.720  12.402   8.722 -1.0450 -1.0667  3.1799
43224SOL    HW238641   0.740  12.548   8.754 -0.6477 -0.4139  0.1982
43225SOL     OW38642   0.306   1.276   7.899 -0.6684  0.2134  0.1794
43225SOL    HW138643   0.400   1.272   7.881 -0.8674  3.2740 -2.4327
43225SOL    HW238644   0.300   1.303   7.990  0.8938 -1.1352  0.7315
43226SOL     OW38645  11.401   4.416  11.799  0.3639 -0.4075 -0.2858
43226SOL    HW138646  11.488   4.450  11.820  0.3419 -0.5223 -0.0081
43226SOL    HW238647  11.359   4.403  11.884 -0.5716  1.3326 -0.4432
43227SOL     OW38648   5.119   9.528   7.874 -0.0551 -0.0219  0.2779
43227SOL    HW138649   5.161   9.540   7.789  0.3412  0.0444  0.4785
43227SOL    HW238650   5.031   9.498   7.853  0.0145  0.0680 -0.1577
43228SOL     OW38651  10.925   4.238   5.824  0.0659 -0.1482  0.2804
43228SOL    HW138652  10.925   4.146   5.851 -0.7552  0.1707  1.4458
43228SOL    HW238653  10.959   4.236   5.734  0.4363 -1.5366  0.4150
43229SOL     OW38654   5.352   3.216   4.693  0.1747 -0.1854  0.3635
43229SOL    HW138655   5.354   3.167   4.775  1.2703 -1.4475 -0.3738
43229SOL    HW238656   5.310   3.299   4.715  0.0868 -0.6593  2.0978
43230SOL     OW38657   1.455   0.953   9.771 -0.2378 -0.0533 -0.3829
43230SOL    HW138658   1.506   0.910   9.702  0.2457  1.9579 -1.3638
43230SOL    HW238659   1.512   1.025   9.800 -0.9244 -0.1628  1.3125
43231SOL     OW38660   5.020   3.260  11.019 -0.2039 -0.0384  0.5460
43231SOL    HW138661   5.025   3.265  10.924 -2.2725 -1.5523  0.2802
43231SOL    HW238662   4.993   3.347  11.047 -0.8704  0.0637 -0.3804
43232SOL     OW38663  10.087   2.479   0.551  0.2035  0.1813 -0.2434
43232SOL    HW138664  10.079   2.446   0.461 -0.0176  0.7568 -0.4412
43232SOL    HW238665  10.026   2.554   0.554 -0.4170 -0.3455  0.6300
43233SOL     OW38666   5.583   0.280   2.183 -0.4485  0.2066 -0.1000
43233SOL    HW138667   5.627   0.227   2.116 -0.0132 -0.7265  0.8813
43233SOL    HW238668   5.589   0.370   2.150  2.8375  0.2532  0.2336
43234SOL     OW38669   8.947  11.313  10.232 -0.0586  0.3742  0.5309
43234SOL    HW138670   8.976  11.281  10.146  1.0586 -0.1755  1.0972
43234SOL    HW238671   8.913  11.235  10.276  0.9433  0.3001  1.2128
43235SOL     OW38672   3.109   5.114   3.240  0.1074  0.0723  0.3255
43235SOL    HW138673   3.102   5.094   3.333 -1.0197  0.4360  0.3435
43235SOL    HW238674   3.058   5.195   3.229 -0.7942 -0.6051 -0.7944
43236SOL     OW38675   4.314   9.012  10.094 -0.8273  0.2984  0.0437
43236SOL    HW138676   4.369   9.037  10.168 -0.0822  0.5524 -0.5816
43236SOL    HW238677   4.355   9.055  10.018 -3.1023  2.3400 -0.1599
43237SOL     OW38678  10.100   0.051   4.264  0.1361 -0.2860 -0.0266
43237SOL    HW138679  10.011   0.018   4.258 -0.1239  0.3198  0.3170
43237SOL    HW238680  10.131   0.022   4.350  0.1563 -0.2301 -0.0146
43238SOL     OW38681   5.220   0.235   3.158  0.1223 -0.3978 -0.1436
43238SOL    HW138682   5.210   0.147   3.122 -0.0824  0.3479 -2.0000
43238SOL    HW238683   5.311   0.257   3.142 -0.1542  0.2236 -0.8874
43239SOL     OW38684  11.264   4.441   9.450 -0.5283  0.0761 -0.5448
43239SOL    HW138685  11.326   4.513   9.458 -0.9822  0.6363 -1.7493
43239SOL    HW238686  11.198   4.474   9.389 -2.4837 -0.1645  1.3211
43240SOL     OW38687   6.261   0.336   1.457  0.1829 -0.1353  0.1490
43240SOL    HW138688   6.249   0.242   1.450  1.8343 -0.4993  1.5216
43240SOL    HW238689   6.278   0.365   1.367 -0.7225 -1.0613 -0.3368
43241SOL     OW38690   4.794   3.994   5.435 -0.0735 -0.1018 -0.3651
43241SOL    HW138691   4.848   3.951   5.368  0.0579 -0.4171 -0.0581
43241SOL    HW238692   4.771   3.924   5.496 -1.0608 -0.0328 -0.6367
43242SOL     OW38693   5.362   4.865   0.170 -0.3349  0.2837  0.5286
43242SOL    HW138694   5.411   4.938   0.207 -0.5507  0.9750 -0.5068
43242SOL    HW238695   5.389   4.861   0.079 -0.0883 -1.1519  0.6465
43243SOL     OW38696   7.052   8.140   0.381 -0.3636 -0.5115  0.3829
43243SOL    HW138697   7.130   8.112   0.429  0.6974  0.6116 -0.6253
43243SOL    HW238698   6.979   8.104   0.432  0.7644 -0.7827  1.8842
43244SOL     OW38699  10.349   3.102   8.590  0.4119 -0.4225 -0.2877
43244SOL    HW138700  10.274   3.117   8.648  0.1965 -0.0891 -0.6474
43244SOL    HW238701  10.364   3.186   8.547 -0.2072 -0.9638 -1.6299
43245SOL     OW38702   0.429   8.977  11.985  0.2514 -0.1190 -0.2965
43245SOL    HW138703   0.432   9.017  11.898 -0.0407  0.8733  0.1219
43245SOL    HW238704   0.395   8.889  11.971  2.1794 -0.7244 -1.4181
43246SOL     OW38705  10.276   8.445   6.421  0.4038  0.4827 -0.2954
43246SOL    HW138706  10.238   8.392   6.492  3.0980 -1.5511 -0.2176
43246SOL    HW238707  10.316   8.520   6.465 -2.3921  2.1097 -0.2900
43247SOL     OW38708   3.457   7.965   5.670  0.0541 -0.0532  0.0994
43247SOL    HW138709   3.492   8.001   5.751  0.5783 -0.4487  0.0510
43247SOL    HW238710   3.378   8.016   5.654 -0.4955 -0.5021  1.2731
43248SOL     OW38711   8.520   4.417   0.293  0.1298  0.2936 -0.5251
43248SOL    HW138712   8.574   4.355   0.343  0.5375  0.3666 -0.8643
43248SOL    HW238713   8.430   4.399   0.321  0.3984  0.7244  0.6486
43249SOL     OW38714   1.386   9.612   6.913  0.0930 -0.4947  0.5705
43249SOL    HW138715   1.366   9.703   6.932  0.3169 -0.5906  1.3113
43249SOL    HW238716   1.463   9.592   6.966  0.9537 -0.7030 -0.7179
43250SOL     OW38717  11.128   4.336   0.620 -0.1678  0.6141 -0.1548
43250SOL    HW138718  11.123   4.390   0.541  0.6266 -0.7625 -1.1817
43250SOL    HW238719  11.119   4.246   0.589  1.2069 -0.0412  1.1866
43251SOL     OW38720   7.472   7.286  11.698 -0.7205  0.1206  0.3211
43251SOL    HW138721   7.549   7.299  11.755  0.0283  0.5110 -0.7334
43251SOL    HW238722   7.465   7.191  11.689 -1.0831  0.0335  1.3543
43252SOL     OW38723   9.191   2.478   9.515 -0.2489 -0.4346 -0.5420
43252SOL    HW138724   9.227   2.512   9.597 -0.6636 -1.2706 -0.0006
43252SOL    HW238725   9.206   2.384   9.519 -1.4786 -0.6595 -0.8120
43253SOL     OW38726   0.933   9.861   6.035 -0.2058 -1.1671  0.2906
43253SOL    HW138727   0.876   9.810   6.092 -0.3640 -1.2913  0.0259
43253SOL    HW238728   0.888   9.860   5.950 -1.1827  0.9641  0.6968
43254SOL     OW38729   7.179   8.395   9.987  0.2965  0.1878 -0.8404
43254SOL    HW138730   7.163   8.441   9.904 -3.3929 -0.2943 -0.5730
43254SOL    HW238731   7.252   8.443  10.027 -0.8030  3.4210 -2.3016
43255SOL     OW38732   2.789   5.378   6.749  0.0546  0.6251  0.3813
43255SOL    HW138733   2.701   5.344   6.765 -0.3457  1.5942  0.3039
43255SOL    HW238734   2.817   5.412   6.834 -0.5014  2.2080 -0.0322
43256SOL     OW38735   2.299  12.218  12.400 -0.4793 -0.2704  0.1481
43256SOL    HW138736   2.325  12.239  12.489  0.2094  1.5269 -0.4263
43256SOL    HW238737   2.205  12.234  12.398 -0.2811  0.9753  0.2338
43257SOL     OW38738   4.261   1.009  11.315  0.8111  0.0709 -0.4422
43257SOL    HW138739   4.277   0.958  11.236  0.8411 -0.5742 -0.0300
43257SOL    HW238740   4.219   1.089  11.284 -2.3247 -1.5922 -0.8539
43258SOL     OW38741  10.195   0.624   8.609 -0.3271  0.2819 -0.1347
43258SOL    HW138742  10.245   0.637   8.690 -1.5040 -0.3601  0.7123
43258SOL    HW238743  10.263   0.614   8.541  0.7585  4.4696  0.0469
43259SOL     OW38744   0.713   5.097   8.258 -0.3763  0.1165  0.2285
43259SOL    HW138745   0.744   5.012   8.289 -1.3268 -0.0439  0.7590
43259SOL    HW238746   0.786   5.130   8.205  0.5701 -0.3890  1.1643
43260SOL     OW38747   5.925   3.861  10.352  0.0413  0.3514 -0.3886
43260SOL    HW138748   5.958   3.951  10.358  2.3896 -0.5288  1.4618
43260SOL    HW238749   5.955   3.831  10.266  0.8606  0.7931 -0.2720
43261SOL     OW38750   1.289   9.438   3.389 -0.5635  0.2954 -0.0461
43261SOL    HW138751   1.259   9.484   3.468 -0.2366  0.3124  0.0697
43261SOL    HW238752   1.375   9.403   3.413 -1.1097 -1.0075  0.1226
43262SOL     OW38753   7.495  11.419   7.651 -0.3133 -0.1317 -0.3890
43262SOL    HW138754   7.557  11.487   7.625 -0.5810  0.4912  0.5262
43262SOL    HW238755   7.539  11.373   7.723 -0.7631  0.0908  0.0342
43263SOL     OW38756  11.943   9.895  10.919  0.1029 -0.3133 -0.3636
43263SOL    HW138757  11.976   9.832  10.855 -0.6194  0.3182 -1.3930
43263SOL    HW238758  11.932   9.976  10.869  1.3560  0.7628  1.0031
43264SOL     OW38759  12.459   2.733   4.008  0.0107  0.7315 -0.3869
43264SOL    HW138760  12.526   2.731   3.939  0.2940  0.2927 -0.1046
43264SOL    HW238761  12.419   2.646   4.005  0.2755  0.5816  0.2434
43265SOL     OW38762   1.417   7.978   8.472 -0.7051  0.9923 -0.5119
43265SOL    HW138763   1.484   7.915   8.496 -3.3428 -1.9850 -0.4359
43265SOL    HW238764   1.429   8.051   8.533  2.0890  0.3935 -0.2301
43266SOL     OW38765   4.769  12.022   4.930 -0.2596 -0.0022  0.6550
43266SOL    HW138766   4.708  12.011   5.003  1.6490 -1.2228  2.1699
43266SOL    HW238767   4.763  11.940   4.882 -0.7856  0.4140 -0.0060
43267SOL     OW38768   5.977   9.818   1.533 -0.0410 -0.0215 -0.2639
43267SOL    HW138769   5.885   9.845   1.544 -0.1807 -0.2200 -0.9189
43267SOL    HW238770   6.012   9.879   1.468  0.2418 -0.0662 -0.1529
43268SOL     OW38771   0.812   8.823   8.012 -0.0595 -0.0515 -0.7056
43268SOL    HW138772   0.757   8.780   7.947 -0.5046 -2.4233  1.1027
43268SOL    HW238773   0.899   8.786   7.998 -0.5861 -2.3212  1.3227
43269SOL     OW38774   3.589   7.742   7.630  0.0658  0.0279 -0.5952
43269SOL    HW138775   3.657   7.804   7.657  1.4027 -1.1468 -1.1694
43269SOL    HW238776   3.568   7.769   7.540 -0.2291  0.3848 -0.4219
43270SOL     OW38777   7.895   7.593  10.788  0.0009  0.3037 -0.5669
43270SOL    HW138778   7.978   7.616  10.829  1.1186 -0.4397 -2.3260
43270SOL    HW238779   7.875   7.666  10.730 -0.5211  0.4107 -0.2667
43271SOL     OW38780   1.129  11.642   1.905 -0.1514  0.3590 -0.2243
43271SOL    HW138781   1.044  11.612   1.939  0.0838 -0.2890 -0.1909
43271SOL    HW238782   1.191  11.622   1.975 -0.1645  2.1726  0.3676
43272SOL     OW38783   7.415   9.186   0.234  0.1069  0.3115  0.1124
43272SOL    HW138784   7.486   9.182   0.169 -0.5082 -1.0762 -0.5143
43272SOL    HW238785   7.416   9.100   0.276 -2.2720 -0.3867 -1.1089
43273SOL     OW38786   3.934   9.781   1.532 -0.4223 -0.0937 -0.1037
43273SOL    HW138787   3.869   9.710   1.534  0.4237 -0.8889 -0.0730
43273SOL    HW238788   3.926   9.818   1.444 -2.2268  1.1012  0.5015
43274SOL     OW38789   7.072   2.025  11.740  0.5782  0.1727  0.0090
43274SOL    HW138790   7.148   1.976  11.707  0.7447  0.2971  0.2028
43274SOL    HW238791   7.051   1.983  11.824 -1.1074 -1.4535 -1.1626
43275SOL     OW38792   7.707   8.919   8.363  0.0083  0.0445 -0.2895
43275SOL    HW138793   7.747   8.900   8.448  1.0563  2.5171 -0.1267
43275SOL    HW238794   7.658   9.001   8.378 -0.3573  0.1511 -1.9084
43276SOL     OW38795   0.653  10.774   2.207  0.1937  0.1829  0.8068
43276SOL    HW138796   0.559  10.757   2.214  0.1976 -0.9668 -1.1962
43276SOL    HW238797   0.694  10.689   2.226  0.8039  0.5329  1.0765
43277SOL     OW38798   1.992   4.156   5.696 -0.1799  0.2739  0.2192
43277SOL    HW138799   1.933   4.123   5.765 -0.4066  0.1232 -0.0441
43277SOL    HW238800   2.076   4.116   5.715 -0.3832 -0.2305  0.0710
43278SOL     OW38801   5.864   4.245   3.894 -0.2518  0.4592  0.2674
43278SOL    HW138802   5.776   4.278   3.875  0.4745  1.6019 -1.3673
43278SOL    HW238803   5.923   4.312   3.858  1.2969 -0.8454  0.2542
43279SOL     OW38804  12.311  10.077   6.043  0.4220  0.2952 -0.1972
43279SOL    HW138805  12.316   9.982   6.050  0.1983  0.2911 -0.0975
43279SOL    HW238806  12.227  10.093   6.000  0.6921  0.4246 -0.6875
43280SOL     OW38807  10.509   9.618   5.557  0.6105  0.3019  0.4460
43280SOL    HW138808  10.560   9.564   5.497  0.4332  0.7427 -0.1022
43280SOL    HW238809  10.427   9.634   5.512  0.5392  0.7731  0.7322
43281SOL     OW38810   5.693   7.122   9.138  0.8726 -0.0208 -0.4872
43281SOL    HW138811   5.698   7.187   9.067 -0.9103 -0.4331 -1.0369
43281SOL    HW238812   5.709   7.038   9.095 -0.3181 -0.2827 -0.4610
43282SOL     OW38813   1.977   9.214   4.178  0.2936  0.2607 -0.0960
43282SOL    HW138814   2.033   9.215   4.256  0.4060 -1.2764 -0.1432
43282SOL    HW238815   2.038   9.210   4.105  0.1794  1.4804 -0.2849
43283SOL     OW38816   5.685  11.105   4.494 -0.1073 -0.0773 -0.4952
43283SOL    HW138817   5.745  11.042   4.454  0.5592 -0.0140  0.3667
43283SOL    HW238818   5.630  11.051   4.551 -2.1330 -0.3994 -2.6406
43284SOL     OW38819  10.202   2.282   7.105  0.0589 -0.4206 -0.0573
43284SOL    HW138820  10.217   2.192   7.135 -0.3895 -1.3710 -2.4605
43284SOL    HW238821  10.108   2.287   7.088 -0.0444  0.7614  0.7072
43285SOL     OW38822   4.084   1.309   5.812  0.7711 -0.2654  0.5587
43285SOL    HW138823   4.131   1.384   5.775 -0.8293  0.4673 -0.0811
43285SOL    HW238824   4.009   1.348   5.857 -0.5305 -1.5046 -0.4571
43286SOL     OW38825   0.369  12.321   3.586 -0.2695  0.2821 -0.1546
43286SOL    HW138826   0.328  12.367   3.513  0.3490  0.6377 -0.2904
43286SOL    HW238827   0.383  12.389   3.652  1.4998  0.5225 -0.7215
43287SOL     OW38828   4.894   7.102   1.908  0.0681 -0.2327  0.1176
43287SOL    HW138829   4.943   7.030   1.868 -1.4466 -0.4269 -1.4918
43287SOL    HW238830   4.952   7.177   1.903  1.2955 -1.0910  0.9155
43288SOL     OW38831   3.036  10.542   2.921  0.0861  0.0124  0.6024
43288SOL    HW138832   2.996  10.488   2.989  2.5051 -0.2541  1.9671
43288SOL    HW238833   2.999  10.629   2.935  0.1681 -0.1509  1.9733
43289SOL     OW38834   2.405   4.632  11.651 -0.5972 -0.0308  0.0243
43289SOL    HW138835   2.393   4.694  11.579 -0.1360  0.9010  0.7471
43289SOL    HW238836   2.450   4.557  11.610  0.2314  0.7536 -0.5360
43290SOL     OW38837   0.502   7.579   9.387 -0.7219  0.3437 -0.1693
43290SOL    HW138838   0.497   7.627   9.470 -1.6413  2.0846 -1.1960
43290SOL    HW238839   0.595   7.578   9.365 -0.8282  3.4662 -1.1094
43291SOL     OW38840   3.647  11.266  10.260  0.0380 -0.0514 -0.3545
43291SOL    HW138841   3.682  11.243  10.347 -0.0080  1.5045  0.0946
43291SOL    HW238842   3.625  11.181  10.221  0.1930 -0.7959  1.0904
43292SOL     OW38843   1.115  10.521   9.362  0.2200 -0.2313  0.4949
43292SOL    HW138844   1.125  10.426   9.366  2.1269 -0.0761  0.3116
43292SOL    HW238845   1.189  10.551   9.309 -0.1638  1.3788  0.8112
43293SOL     OW38846   2.467   0.163  10.426 -0.2783  0.2300  0.3266
43293SOL    HW138847   2.529   0.221  10.383 -1.7212  1.4351 -0.2413
43293SOL    HW238848   2.503   0.150  10.514  1.8625 -0.9245 -0.6691
43294SOL     OW38849   4.195   7.632   6.512  0.0778  0.2565  0.3208
43294SOL    HW138850   4.127   7.566   6.496  0.3073 -0.1644  1.0159
43294SOL    HW238851   4.165   7.710   6.465 -0.5742 -0.1109  0.1139
43295SOL     OW38852   6.134   5.252   7.005  0.0115  0.2488  0.1372
43295SOL    HW138853   6.196   5.242   7.077 -0.5748  0.3402  0.6511
43295SOL    HW238854   6.097   5.339   7.016  0.4786  0.5781 -0.7263
43296SOL     OW38855  12.529   0.217   3.385 -0.1017 -0.5520 -0.2754
43296SOL    HW138856  12.524   0.270   3.465 -2.3837 -2.9704  1.3266
43296SOL    HW238857  12.504   0.278   3.315 -1.1656  0.8842  1.2680
43297SOL     OW38858   0.986   8.399   3.175 -0.4320  0.2004  0.1792
43297SOL    HW138859   0.984   8.457   3.252  1.1337  1.2248 -0.4891
43297SOL    HW238860   0.894   8.385   3.153 -0.8783  1.1222  1.3439
43298SOL     OW38861   0.561   5.864   9.936 -0.3674  0.2047  0.2905
43298SOL    HW138862   0.645   5.874   9.891 -0.3264 -0.9711  0.0873
43298SOL    HW238863   0.568   5.781   9.982 -2.6600 -1.7507 -2.5431
43299SOL     OW38864  11.119   0.572  10.398 -0.5483  0.4454 -0.2236
43299SOL    HW138865  11.109   0.609  10.486  1.8619 -0.4740  0.5255
43299SOL    HW238866  11.092   0.481  10.407 -0.3410  0.3614 -0.4540
43300SOL     OW38867   7.873   4.250   6.431 -0.3070 -0.1310  0.0148
43300SOL    HW138868   7.805   4.280   6.370  1.1201  2.0952 -0.5995
43300SOL    HW238869   7.912   4.174   6.389 -1.3552 -0.4646 -0.3797
43301SOL     OW38870   3.147   2.287   7.711  0.1188  0.8151  0.2199
43301SOL    HW138871   3.187   2.307   7.627  1.5642  0.8936  0.8983
43301SOL    HW238872   3.158   2.192   7.721 -0.3571  0.7506  0.1859
43302SOL     OW38873   3.436   8.598   8.583  0.0166  0.5540  0.5321
43302SOL    HW138874   3.524   8.593   8.620  1.2855 -0.9153 -2.3611
43302SOL    HW238875   3.395   8.515   8.608  0.2983  0.2448 -0.0268
43303SOL     OW38876  10.854   5.569   5.512  0.3048 -0.1517  0.3063
43303SOL    HW138877  10.908   5.490   5.511  1.8815  0.8823  0.2636
43303SOL    HW238878  10.862   5.605   5.424  1.9435  1.5216  1.0710
43304SOL     OW38879   9.326  12.141   7.726 -0.5307 -0.2386 -0.5037
43304SOL    HW138880   9.383  12.128   7.650 -0.1498  1.6455 -0.5902
43304SOL    HW238881   9.341  12.064   7.781  1.5504 -0.1585 -0.8860
43305SOL     OW38882   5.347  10.257   5.675 -0.0857 -0.4280 -0.3582
43305SOL    HW138883   5.356  10.164   5.697  2.4174 -0.5353 -1.5329
43305SOL    HW238884   5.363  10.303   5.757  0.2917 -0.9995 -0.1048
43306SOL     OW38885   2.820   4.858   1.092  0.4773 -0.3595  0.5704
43306SOL    HW138886   2.842   4.950   1.104 -0.2664 -0.1685  0.4796
43306SOL    HW238887   2.818   4.821   1.180 -2.5885  0.4910  0.9545
43307SOL     OW38888   4.197   1.162   7.960 -0.0746  0.5122  0.0001
43307SOL    HW138889   4.163   1.073   7.948  1.7754 -0.1046 -1.0334
43307SOL    HW238890   4.188   1.203   7.874  0.3650  0.8412  0.1066
43308SOL     OW38891   3.601   1.283   8.493 -0.0972  0.4642  0.2091
43308SOL    HW138892   3.545   1.305   8.568  0.1281  0.0162  0.5131
43308SOL    HW238893   3.582   1.192   8.474 -1.0984  0.9308 -1.1224
43309SOL     OW38894   6.767   0.408   4.584 -0.2502  0.0917 -0.2794
43309SOL    HW138895   6.743   0.444   4.498 -0.7131  0.2382 -0.0934
43309SOL    HW238896   6.759   0.313   4.574 -1.2241  0.1486 -0.1388
43310SOL     OW38897   2.543  12.499   6.399  0.1078  0.1838  1.0300
43310SOL    HW138898   2.604  12.437   6.440  0.0307  0.3725  1.4331
43310SOL    HW238899   2.512  12.554   6.471 -1.0757 -0.3563  0.9609
43311SOL     OW38900   9.335   7.655  10.186  0.1099  0.2800  0.2987
43311SOL    HW138901   9.376   7.726  10.235 -0.9388  0.9895  0.1690
43311SOL    HW238902   9.243   7.680  10.180 -0.2450 -1.0055  0.0960
43312SOL     OW38903   1.120   3.446   7.723  0.3229 -0.0214 -0.1743
43312SOL    HW138904   1.154   3.449   7.812 -0.0362 -1.1485  0.0090
43312SOL    HW238905   1.194   3.414   7.670 -0.1894 -1.7630  0.1132
43313SOL     OW38906   4.837   8.267   3.121 -1.1286  0.0333  0.1532
43313SOL    HW138907   4.843   8.336   3.055 -1.3573 -0.6184 -0.5594
43313SOL    HW238908   4.810   8.189   3.072  0.0519 -0.7949  0.7913
43314SOL     OW38909   0.845   3.089   7.137  0.6527  0.1237  0.0490
43314SOL    HW138910   0.759   3.105   7.099  0.3197 -0.5232  0.5184
43314SOL    HW238911   0.864   2.998   7.117  2.1337  0.7737 -1.8030
43315SOL     OW38912   3.336  10.219   0.792 -0.5235  0.3942 -0.3726
43315SOL    HW138913   3.412  10.209   0.849 -0.7906  2.1423  0.3510
43315SOL    HW238914   3.261  10.214   0.851 -0.9371 -0.2737 -0.9381
43316SOL     OW38915   9.099   7.404   9.081 -0.0344 -0.0028  0.0754
43316SOL    HW138916   9.092   7.491   9.121 -0.7363  0.4658 -1.0077
43316SOL    HW238917   9.122   7.421   8.990 -2.0172 -0.8227 -0.6398
43317SOL     OW38918   1.892  11.512  10.265  0.3394 -0.0061 -0.2246
43317SOL    HW138919   1.909  11.605  10.281 -1.7064  0.6109 -1.2229
43317SOL    HW238920   1.806  11.497  10.304  0.9612 -1.7099  0.5870
43318SOL     OW38921  11.235   4.392   4.808  0.2535  0.9096  0.0532
43318SOL    HW138922  11.196   4.447   4.875  0.8502  0.4224  0.8288
43318SOL    HW238923  11.288   4.452   4.755  1.6171  0.9983  1.4270
43319SOL     OW38924   3.480   9.006   1.160 -0.0490  0.4024 -0.1383
43319SOL    HW138925   3.386   9.024   1.162  0.1128  1.2280  0.4118
43319SOL    HW238926   3.508   9.037   1.074 -0.0767  1.3050  0.1608
43320SOL     OW38927   9.363  11.322  10.521 -0.7530  0.4940  0.8834
43320SOL    HW138928   9.310  11.401  10.515 -1.8416 -0.1384  1.7017
43320SOL    HW238929   9.309  11.253  10.481 -0.5222 -0.1302  1.6035
43321SOL     OW38930   0.925  12.519   5.444  0.0092  0.3244  0.5683
43321SOL    HW138931   0.930  12.577   5.368 -1.2610 -0.1370  0.0961
43321SOL    HW238932   0.900  12.434   5.407  1.2348 -0.3925  1.3060
43322SOL     OW38933   1.622   6.899   6.158  0.6027  0.2217 -0.1204
43322SOL    HW138934   1.699   6.851   6.128 -0.8971 -2.1111 -0.5395
43322SOL    HW238935   1.633   6.905   6.253  1.0573 -0.5927 -0.1127
43323SOL     OW38936   5.358   5.238  11.128 -0.2738  0.3854 -0.8578
43323SOL    HW138937   5.286   5.175  11.131 -1.7883  2.0786  0.6201
43323SOL    HW238938   5.425   5.201  11.185 -0.5438 -0.5409 -1.1268
43324SOL     OW38939   3.038  10.177   5.575 -0.1096  0.0112  0.5194
43324SOL    HW138940   2.998  10.172   5.661 -0.8165 -0.6718  0.1580
43324SOL    HW238941   2.977  10.230   5.523  0.2254  0.2736  0.3915
43325SOL     OW38942   4.457   2.350   3.563 -0.0388 -0.1954 -0.8187
43325SOL    HW138943   4.484   2.260   3.545 -0.1544 -0.0864 -1.5911
43325SOL    HW238944   4.449   2.355   3.658  2.2801 -0.3217 -0.5694
43326SOL     OW38945   7.839   0.450   0.115  0.0928 -0.0082 -0.1897
43326SOL    HW138946   7.812   0.394   0.188  0.8831  1.6393  1.4432
43326SOL    HW238947   7.757   0.487   0.083 -0.1980 -0.1586  0.3541
43327SOL     OW38948   2.194   7.947   2.402 -0.6328 -0.3005  0.1459
43327SOL    HW138949   2.149   7.941   2.486 -0.3876  1.3008  0.4200
43327SOL    HW238950   2.139   8.005   2.349  0.9991  1.6807  0.4737
43328SOL     OW38951   7.360   6.945   3.189  0.2955  0.0851  0.3918
43328SOL    HW138952   7.266   6.934   3.205  0.0186 -0.4961 -1.4671
43328SOL    HW238953   7.364   6.995   3.107  1.6134 -0.6654 -0.0138
43329SOL     OW38954   8.990   1.475   6.479 -0.6229 -0.2549  0.5090
43329SOL    HW138955   8.960   1.525   6.555 -0.3416  0.0891  0.3958
43329SOL    HW238956   8.980   1.383   6.505  0.1345 -0.1455  1.2284
43330SOL     OW38957  11.730   1.101  10.501 -0.0794  0.5234 -0.1301
43330SOL    HW138958  11.780   1.019  10.505 -0.2931  0.3611 -0.6869
43330SOL    HW238959  11.690   1.100  10.414 -0.8084  0.7971  0.1949
43331SOL     OW38960   1.532   4.576   3.080 -0.2303  0.2701 -0.7055
43331SOL    HW138961   1.533   4.488   3.118  1.8070  0.0816 -1.0676
43331SOL    HW238962   1.480   4.628   3.142  1.1524 -0.5168  1.2414
43332SOL     OW38963   0.105  12.460   5.113 -0.6945 -0.4890  0.5876
43332SOL    HW138964   0.198  12.446   5.129 -0.9090 -3.0580 -0.0080
43332SOL    HW238965   0.091  12.430   5.023 -1.8106  1.5504  0.0271
43333SOL     OW38966  11.310   0.800   6.634 -0.1922  0.4731 -0.0577
43333SOL    HW138967  11.277   0.825   6.548  0.8712  0.8166 -0.3851
43333SOL    HW238968  11.328   0.706   6.626 -2.0255  0.0365  0.4562
43334SOL     OW38969   5.051   1.830   1.050  0.0391  0.3074 -0.2735
43334SOL    HW138970   5.027   1.887   0.977  0.3187  0.6746 -0.0852
43334SOL    HW238971   4.968   1.813   1.095  0.0766  1.4156  0.2614
43335SOL     OW38972   1.676  11.608  11.727 -0.2974 -0.2862  0.3727
43335SOL    HW138973   1.694  11.514  11.732 -1.1227 -0.4567  0.4011
43335SOL    HW238974   1.705  11.642  11.811 -4.5839 -1.4090  2.6033
43336SOL     OW38975   3.713   7.525   3.257  0.1404  0.0971  0.2398
43336SOL    HW138976   3.741   7.497   3.170 -1.1490  2.1743 -0.9459
43336SOL    HW238977   3.793   7.549   3.302  0.8409 -1.1139 -0.3266
43337SOL     OW38978   0.868   5.038   3.005 -0.0872 -0.5304 -0.2146
43337SOL    HW138979   0.884   4.992   2.923  0.1038 -0.8804  0.0189
43337SOL    HW238980   0.949   5.029   3.054 -0.1248 -0.1358 -0.0741
43338SOL     OW38981  10.772  12.533   6.934 -0.2258 -0.4798  0.1395
43338SOL    HW138982  10.805  12.457   6.981 -2.4230 -2.2649 -0.9972
43338SOL    HW238983  10.808  12.524   6.846 -1.2567 -0.7567 -0.2643
43339SOL     OW38984  11.244   7.412   4.999 -0.3497  0.3647  0.2677
43339SOL    HW138985  11.282   7.446   4.918  0.5766  0.1113  0.5811
43339SOL    HW238986  11.300   7.448   5.068 -1.9071  1.6530  0.9015
43340SOL     OW38987  12.184   2.648  12.096 -0.2683 -0.4357 -0.1589
43340SOL    HW138988  12.153   2.706  12.166 -2.3187 -1.0566 -0.4724
43340SOL    HW238989  12.265   2.688  12.065 -0.8717  1.4623  0.5826
43341SOL     OW38990   1.953   0.039   6.442  0.3719  0.2325 -0.6738
43341SOL    HW138991   1.861   0.050   6.467  0.9459  0.6713  1.5536
43341SOL    HW238992   1.982   0.128   6.420  0.0905 -0.0286 -2.2054
43342SOL     OW38993   7.622   6.222   5.225 -0.1864 -0.0242 -0.1156
43342SOL    HW138994   7.640   6.186   5.139  0.7445  0.2051 -0.0255
43342SOL    HW238995   7.677   6.171   5.285  0.8022  1.2169  0.0668
43343SOL     OW38996   3.635  10.354   4.876 -0.2201 -0.2933 -0.4583
43343SOL    HW138997   3.579  10.417   4.831 -1.8335 -2.4734 -1.7289
43343SOL    HW238998   3.693  10.407   4.931 -0.6268  2.3106 -2.3689
43344SOL     OW38999  12.430   6.651   0.414  0.1110  0.1740  0.2262
43344SOL    HW139000  12.469   6.586   0.355 -0.5106 -0.2248  0.2511
43344SOL    HW239001  12.506   6.694   0.455  0.5690  0.7032 -1.1111
43345SOL     OW39002  10.947   6.686   6.333  0.5913  0.0641 -0.7518
43345SOL    HW139003  10.939   6.616   6.398 -1.6838  0.5788 -0.3995
43345SOL    HW239004  10.912   6.649   6.253 -0.5825  0.7216 -0.5758
43346SOL     OW39005   5.937   6.023   6.690 -0.1206  1.4143 -0.3442
43346SOL    HW139006   5.953   5.964   6.763 -0.5192 -1.1694 -2.2113
43346SOL    HW239007   5.843   6.015   6.673  0.0734  1.4327 -1.5356
43347SOL     OW39008   8.674   8.412   8.491 -0.6072 -0.0066  0.4618
43347SOL    HW139009   8.722   8.329   8.490 -1.7591 -0.7022 -1.0953
43347SOL    HW239010   8.582   8.387   8.500 -0.8685  1.1894  1.4072
43348SOL     OW39011   1.598   7.583   0.732  0.4361  0.1307 -0.0740
43348SOL    HW139012   1.612   7.667   0.688  0.8651  0.5094  0.7644
43348SOL    HW239013   1.599   7.604   0.826  0.8518 -0.8454  0.1565
43349SOL     OW39014   9.331   7.826  11.433 -0.4116  0.0179 -0.0979
43349SOL    HW139015   9.347   7.738  11.399 -0.9314  0.3354 -1.1974
43349SOL    HW239016   9.236   7.836  11.430 -0.8206 -0.8379  3.8047
43350SOL     OW39017   9.015   6.590   7.220  0.1949  0.4237 -0.2694
43350SOL    HW139018   8.956   6.567   7.292  0.5430  0.9182  0.1772
43350SOL    HW239019   9.032   6.506   7.177  0.1733  0.0812  0.3693
43351SOL     OW39020   5.128   7.120   7.892  0.2824 -0.2088  0.4163
43351SOL    HW139021   5.106   7.204   7.932  0.2329 -0.6151  1.2626
43351SOL    HW239022   5.070   7.057   7.933  0.2916 -0.6623 -0.2428
43352SOL     OW39023   3.445  10.804   1.876 -0.5929 -0.0865 -0.0934
43352SOL    HW139024   3.360  10.762   1.871 -0.5298 -0.2074 -0.1561
43352SOL    HW239025   3.447  10.863   1.800  0.1769 -1.5716 -1.2846
43353SOL     OW39026   6.353   7.058   2.406  0.4199 -0.0410  0.4810
43353SOL    HW139027   6.370   7.117   2.479  1.7277  0.7854 -0.4325
43353SOL    HW239028   6.356   6.971   2.444  0.6619  0.3874  1.4783
43354SOL     OW39029   2.934  12.210  12.132  0.2561  0.5365 -0.3870
43354SOL    HW139030   3.013  12.193  12.183 -0.0644  1.4424  0.4563
43354SOL    HW239031   2.862  12.176  12.186  0.0068  0.4337 -0.7801
43355SOL     OW39032   0.936   0.755   6.230  0.0568 -0.1120 -0.2583
43355SOL    HW139033   0.899   0.737   6.317 -1.9145  0.8296 -0.8474
43355SOL    HW239034   1.031   0.757   6.244 -0.0863 -1.9690  1.4691
43356SOL     OW39035   6.904   5.501   1.885  0.6517 -0.2115 -0.5554
43356SOL    HW139036   6.921   5.455   1.967 -0.2434  2.5581  1.3279
43356SOL    HW239037   6.987   5.542   1.863  0.6041  0.0015 -0.3498
43357SOL     OW39038   8.061   7.221   7.733 -0.2392 -0.1038  0.7720
43357SOL    HW139039   7.971   7.243   7.755 -0.9093 -2.0891  0.2015
43357SOL    HW239040   8.058   7.129   7.708  1.9791 -0.2495  0.8615
43358SOL     OW39041   2.158   3.165   4.969  0.1419 -0.2451  0.1329
43358SOL    HW139042   2.086   3.190   5.026  0.1791 -0.7871  0.4212
43358SOL    HW239043   2.119   3.162   4.881  0.3643  1.8294 -0.0964
43359SOL     OW39044   3.163   9.198   5.614  0.0769 -0.9506  0.3421
43359SOL    HW139045   3.084   9.224   5.566  0.1085  1.9447  1.6185
43359SOL    HW239046   3.228   9.264   5.589  0.6745 -0.5512  2.7264
43360SOL     OW39047   8.637   9.942   7.628 -0.1363  0.5830  0.0237
43360SOL    HW139048   8.664   9.940   7.719  0.8263  1.7947 -0.2025
43360SOL    HW239049   8.543   9.959   7.630 -0.4148 -0.9528  0.7980
43361SOL     OW39050   0.906   2.822   1.192  0.1899 -0.1279 -0.2957
43361SOL    HW139051   0.903   2.728   1.173  0.2684 -0.4713  1.2519
43361SOL    HW239052   0.999   2.843   1.193  0.2213 -0.2721  0.3703
43362SOL     OW39053   3.252   0.506   4.062 -0.3097 -0.9889 -0.2093
43362SOL    HW139054   3.239   0.581   4.003  3.0662  1.1292  1.4106
43362SOL    HW239055   3.315   0.451   4.016 -0.2495 -1.0952 -0.0005
43363SOL     OW39056   9.615   8.600  10.412 -0.5332  0.2195 -0.9007
43363SOL    HW139057   9.621   8.686  10.453 -0.3877 -0.1313 -0.1826
43363SOL    HW239058   9.684   8.549  10.453 -2.6018 -1.1973  1.0081
43364SOL     OW39059   8.349   5.504   8.281  0.0969  0.1673 -0.4769
43364SOL    HW139060   8.301   5.550   8.212  0.1569  0.4220 -0.3515
43364SOL    HW239061   8.366   5.417   8.245  0.2658  0.3514 -0.8468
43365SOL     OW39062   6.862   2.276   2.957  0.1067 -0.4815  0.2759
43365SOL    HW139063   6.772   2.308   2.953  0.0191 -0.6159  1.0134
43365SOL    HW239064   6.862   2.197   2.903 -0.4516 -1.0044  1.0226
43366SOL     OW39065   6.331   8.403   5.311  0.2062 -0.2431  0.5293
43366SOL    HW139066   6.324   8.330   5.373  0.2008  0.3148  1.1893
43366SOL    HW239067   6.264   8.385   5.246  0.5038 -1.0723  0.4272
43367SOL     OW39068   9.790   9.076  11.073  0.2644 -0.2922  0.0891
43367SOL    HW139069   9.879   9.078  11.109  0.5285  0.6922 -0.5812
43367SOL    HW239070   9.768   9.168  11.059 -0.1051 -0.6116 -1.6061
43368SOL     OW39071   8.490   6.494  10.254 -0.2112  0.1267  0.4658
43368SOL    HW139072   8.577   6.499  10.294  0.0592  0.5784 -0.1583
43368SOL    HW239073   8.431   6.530  10.320  0.0439 -0.3692  0.9716
43369SOL     OW39074   7.524   0.711   9.534  0.6820  0.4470  0.0312
43369SOL    HW139075   7.540   0.716   9.628  2.2027 -1.0325 -0.1018
43369SOL    HW239076   7.435   0.677   9.526  0.6100  0.4014  0.9258
43370SOL     OW39077   4.873   9.611   3.041 -0.4240  1.0133  0.0507
43370SOL    HW139078   4.801   9.650   2.991 -0.6296  2.2635  1.2445
43370SOL    HW239079   4.946   9.672   3.030  0.3042  0.0340 -0.7026
43371SOL     OW39080   6.580   2.082   5.823  0.2851 -0.4673  0.5388
43371SOL    HW139081   6.495   2.039   5.824 -0.1984  0.4631  0.2488
43371SOL    HW239082   6.570   2.155   5.761  1.7152 -1.1945 -0.6083
43372SOL     OW39083   5.179   9.130   7.846  0.2813 -0.1302 -0.2776
43372SOL    HW139084   5.269   9.154   7.824  0.4629 -0.0425  0.5241
43372SOL    HW239085   5.125   9.180   7.785  0.7291  0.8827  0.1330
43373SOL     OW39086   3.714   3.600   0.877  0.2180  0.0074 -0.1299
43373SOL    HW139087   3.743   3.599   0.968  0.0049  2.2145  0.0084
43373SOL    HW239088   3.637   3.657   0.876  0.9701  1.0833 -1.8923
43374SOL     OW39089   0.657   7.837   1.665 -0.4464  0.6015  0.0069
43374SOL    HW139090   0.693   7.821   1.753 -0.6610  0.7709  0.1241
43374SOL    HW239091   0.576   7.885   1.680  0.2176  1.8647 -0.3447
43375SOL     OW39092  10.870   8.819   8.611 -0.5437  0.1820  0.1533
43375SOL    HW139093  10.791   8.822   8.666  0.3379  0.0274  1.4821
43375SOL    HW239094  10.871   8.730   8.576 -0.4435 -0.1457  0.9552
43376SOL     OW39095   0.376   8.347   0.385  0.5414  0.1581 -0.3125
43376SOL    HW139096   0.395   8.386   0.471 -2.6511  0.5747  0.3243
43376SOL    HW239097   0.283   8.326   0.388  0.1643  0.6573 -3.8943
43377SOL     OW39098   9.392   6.037   2.249  0.5337  0.0166 -0.3899
43377SOL    HW139099   9.362   6.110   2.303 -0.4654 -0.3724 -0.3934
43377SOL    HW239100   9.480   6.019   2.280  0.4137  0.5725  0.3058
43378SOL     OW39101   3.968   9.273   4.725 -0.3064  0.4417 -0.5246
43378SOL    HW139102   3.919   9.302   4.801 -0.2104  1.1276 -0.7160
43378SOL    HW239103   3.921   9.310   4.650  0.3935  0.9548 -0.7195
43379SOL     OW39104   0.516   5.327  11.656  0.7375 -0.1667  0.3607
43379SOL    HW139105   0.534   5.238  11.686 -0.2920 -0.0048  1.5355
43379SOL    HW239106   0.471   5.316  11.572 -0.6683 -0.8279  1.1679
43380SOL     OW39107   3.777   3.586   5.022  0.4701 -0.1326  0.2827
43380SOL    HW139108   3.792   3.501   4.982  0.2135  0.1872 -0.5052
43380SOL    HW239109   3.702   3.572   5.080 -1.6436  0.2504 -2.1916
43381SOL     OW39110   1.485   6.739  11.017  0.2270 -0.2823 -0.0595
43381SOL    HW139111   1.485   6.813  11.078  2.9440 -0.0589 -0.2414
43381SOL    HW239112   1.423   6.765  10.948  0.8012  1.6288  0.1043
43382SOL     OW39113  10.654   4.954   0.369  0.3143 -0.2344  0.1261
43382SOL    HW139114  10.594   4.913   0.431  0.9628 -1.0382  0.2350
43382SOL    HW239115  10.722   4.888   0.354 -1.1508 -1.1841 -3.4632
43383SOL     OW39116  12.333   3.881   5.615  0.6164  1.0105 -0.3241
43383SOL    HW139117  12.306   3.946   5.679 -1.8238 -0.6536  0.4584
43383SOL    HW239118  12.266   3.886   5.546 -0.2655 -1.3428  0.2860
43384SOL     OW39119   6.122  10.875  10.648 -0.0574  0.9748  0.5497
43384SOL    HW139120   6.206  10.875  10.602 -0.9804  2.1656 -1.2752
43384SOL    HW239121   6.121  10.958  10.695 -0.9636  1.9202 -1.0384
43385SOL     OW39122   1.490   7.890   9.577  0.4093 -0.4461 -0.0543
43385SOL    HW139123   1.483   7.931   9.664  2.3515 -0.6481  0.2498
43385SOL    HW239124   1.492   7.796   9.595  0.5950 -0.4947 -0.3259
43386SOL     OW39125   0.445   4.770  10.170  0.7404  0.1994 -0.1600
43386SOL    HW139126   0.511   4.827  10.208  0.2993  0.3792  0.3532
43386SOL    HW239127   0.492   4.718  10.105  0.8271  2.5042 -2.1028
43387SOL     OW39128   9.859   8.173   8.749  0.3108  0.2845 -0.1164
43387SOL    HW139129   9.907   8.110   8.696  0.3967  0.8824 -0.7660
43387SOL    HW239130   9.913   8.252   8.748  0.0499  0.4786  0.4245
43388SOL     OW39131   9.464   4.013  11.313 -0.1586 -0.1111 -0.4152
43388SOL    HW139132   9.547   3.986  11.273  0.3409 -2.0192  1.7517
43388SOL    HW239133   9.397   3.976  11.256  0.4928 -0.5449 -0.9146
43389SOL     OW39134  11.368   3.447   7.077  0.1360  0.3954 -0.0557
43389SOL    HW139135  11.351   3.462   6.984  1.6910 -0.5784 -0.5214
43389SOL    HW239136  11.283   3.419   7.112 -0.1074 -0.7817 -1.5129
43390SOL     OW39137  11.845   7.592  11.119  0.0822  0.0119  0.4276
43390SOL    HW139138  11.768   7.551  11.158  0.7209 -1.3893  0.2515
43390SOL    HW239139  11.867   7.537  11.044  1.6822 -0.0282  0.8951
43391SOL     OW39140  12.320   6.717   2.238 -0.0873 -0.0187 -0.4891
43391SOL    HW139141  12.398   6.667   2.214  0.0114 -0.4698  0.7144
43391SOL    HW239142  12.279   6.666   2.308  0.1413  1.6759  0.9485
43392SOL     OW39143   5.853   3.568   8.851  0.2810  0.3903 -0.3954
43392SOL    HW139144   5.874   3.481   8.885  2.3827  0.2386 -1.8535
43392SOL    HW239145   5.929   3.621   8.874 -0.7054  1.7072 -0.0802
43393SOL     OW39146   5.443  12.050   9.142 -0.1695 -0.4527 -0.4162
43393SOL    HW139147   5.359  12.002   9.139 -0.9008  0.8184 -0.9955
43393SOL    HW239148   5.423  12.128   9.194  0.3761  0.3912 -1.4604
43394SOL     OW39149   9.469   5.142   2.970 -0.0908  0.1180 -0.6181
43394SOL    HW139150   9.407   5.168   2.902  0.4707  0.1441 -1.1359
43394SOL    HW239151   9.493   5.224   3.013 -1.4367 -0.0439  0.5045
43395SOL     OW39152   6.237   2.468   7.980 -0.2139 -0.1155  0.0258
43395SOL    HW139153   6.242   2.473   8.075  0.7419  0.5183 -0.0412
43395SOL    HW239154   6.154   2.510   7.958 -0.0579  0.4890  0.5451
43396SOL     OW39155   1.411   1.229  12.335  0.1912  0.2768 -0.1239
43396SOL    HW139156   1.319   1.254  12.339 -0.3493 -1.3884 -1.2900
43396SOL    HW239157   1.411   1.141  12.297  2.3866  1.1732 -2.5392
43397SOL     OW39158   2.077   6.076   4.719  0.0676 -0.8771  0.5571
43397SOL    HW139159   2.051   6.167   4.734 -0.0565 -0.9172  0.5890
43397SOL    HW239160   1.994   6.029   4.707  0.1610 -0.8325 -0.3506
43398SOL     OW39161  11.180  11.052   1.072 -0.3724 -0.0939 -0.1581
43398SOL    HW139162  11.160  10.960   1.093 -1.5341  0.3840  0.9339
43398SOL    HW239163  11.120  11.073   1.001 -2.9978  0.9118  2.1674
43399SOL     OW39164  11.482  10.739   3.961  0.2042  0.0060  0.1758
43399SOL    HW139165  11.557  10.679   3.969  0.8165  0.4701 -1.6209
43399SOL    HW239166  11.446  10.720   3.874  0.4709  2.2678 -0.4825
43400SOL     OW39167   9.044   4.804   5.164 -0.0591  0.3617 -0.6019
43400SOL    HW139168   9.041   4.818   5.070 -1.7282 -2.1230 -1.0059
43400SOL    HW239169   9.048   4.709   5.174  0.3885  0.5700  1.8541
43401SOL     OW39170   9.521   0.802   3.174  0.3563  0.2290 -0.1653
43401SOL    HW139171   9.591   0.806   3.109  2.6686  1.0597  2.2401
43401SOL    HW239172   9.529   0.715   3.213  0.4235  0.5334  0.5071
43402SOL     OW39173   9.577  11.881   3.270 -0.0107 -0.2263  0.5111
43402SOL    HW139174   9.589  11.918   3.357  0.5059  0.0774  0.3074
43402SOL    HW239175   9.660  11.894   3.226  0.4948 -2.3308  0.6959
43403SOL     OW39176  10.991  11.190  11.749  0.8730  0.6230  0.2779
43403SOL    HW139177  11.040  11.253  11.696 -2.0773  1.0165 -2.2811
43403SOL    HW239178  10.917  11.240  11.783 -0.0851 -0.8320  0.4152
43404SOL     OW39179   1.848   6.779   5.275 -0.0554  0.0670  0.0893
43404SOL    HW139180   1.757   6.749   5.272  0.2675 -0.8816 -0.8690
43404SOL    HW239181   1.895   6.708   5.320  0.1384  0.7986  1.0786
43405SOL     OW39182   3.212  11.329   7.577  0.1774  0.0182  0.2364
43405SOL    HW139183   3.161  11.248   7.568  0.5167 -0.2260  0.4936
43405SOL    HW239184   3.303  11.301   7.568  0.2434  0.5290 -0.7447
43406SOL     OW39185   2.311  10.562   7.550 -0.6363  0.8231 -0.1721
43406SOL    HW139186   2.313  10.596   7.639 -0.7848  2.1990 -0.6546
43406SOL    HW239187   2.389  10.601   7.508  0.1450 -0.8098 -0.3197
43407SOL     OW39188   7.096   3.594   7.112 -0.6198 -0.4218  0.3957
43407SOL    HW139189   7.179   3.641   7.119  0.4601 -2.2833  0.6515
43407SOL    HW239190   7.051   3.635   7.038  0.6042  0.4985  0.1368
43408SOL     OW39191  10.415   8.640  12.216  0.1104 -0.6498 -0.3662
43408SOL    HW139192  10.412   8.734  12.236  0.7255 -0.3063 -1.7391
43408SOL    HW239193  10.507   8.624  12.196 -0.0410 -1.5047 -0.3807
43409SOL     OW39194  11.275   9.776   3.987 -0.4092 -0.1409 -0.0259
43409SOL    HW139195  11.337   9.722   4.037 -3.0066 -0.8720  2.8023
43409SOL    HW239196  11.223   9.712   3.938 -0.2401  0.2653 -0.7341
43410SOL     OW39197   1.768  11.199   8.720 -0.1672  0.0381 -0.3463
43410SOL    HW139198   1.756  11.124   8.662 -0.2795  0.6563 -1.1418
43410SOL    HW239199   1.813  11.264   8.666  1.3669 -0.0094  0.7791
43411SOL     OW39200   6.894   8.916   2.626  0.0616  0.2179 -0.0511
43411SOL    HW139201   6.836   8.908   2.550  2.0036 -2.5990 -1.4404
43411SOL    HW239202   6.979   8.887   2.593  1.3915  0.5679  2.8122
43412SOL     OW39203   5.939   5.559   7.718 -0.1174  0.0114  0.2001
43412SOL    HW139204   5.896   5.526   7.797 -2.9730 -0.6910 -1.4990
43412SOL    HW239205   5.970   5.646   7.742 -0.7939 -0.2365  2.1347
43413SOL     OW39206   5.341  10.408   3.846  0.3541  0.3088 -0.2984
43413SOL    HW139207   5.428  10.375   3.868  0.0007 -0.0378  0.6527
43413SOL    HW239208   5.344  10.422   3.752  2.1371  2.3650 -0.0149
43414SOL     OW39209   9.497   6.759   6.981 -0.3587 -0.4444  0.7448
43414SOL    HW139210   9.462   6.847   6.992  0.2741 -0.2308  1.0766
43414SOL    HW239211   9.589   6.765   7.007  0.3630 -0.6605 -1.4950
43415SOL     OW39212   1.449   5.764   3.461  0.2850  0.0070  0.0181
43415SOL    HW139213   1.525   5.707   3.450 -0.2364 -0.5625 -0.7190
43415SOL    HW239214   1.458   5.831   3.394 -1.1197 -1.4930 -1.7631
43416SOL     OW39215  12.461   6.991  11.734 -0.0581  0.3911 -0.2823
43416SOL    HW139216  12.395   7.041  11.781  0.6796 -0.8958  2.3403
43416SOL    HW239217  12.438   6.899  11.750  3.0994 -0.1890  2.2235
43417SOL     OW39218   4.475   6.553   2.280 -0.0546  0.9218 -0.7818
43417SOL    HW139219   4.482   6.489   2.208 -1.2008  0.2397 -0.3166
43417SOL    HW239220   4.506   6.506   2.357  0.7721  1.5167 -0.7432
43418SOL     OW39221   7.075   2.347   5.386  0.0710 -0.5501 -0.2121
43418SOL    HW139222   7.039   2.387   5.465 -0.7319 -1.6498 -0.0092
43418SOL    HW239223   7.001   2.301   5.347 -0.0646  1.4965 -2.6442
43419SOL     OW39224   9.405   4.236   6.457 -0.2243 -0.2056 -0.1100
43419SOL    HW139225   9.477   4.174   6.454  0.7384  0.8876 -0.7072
43419SOL    HW239226   9.342   4.204   6.392  0.1174 -0.7038 -0.1946
43420SOL     OW39227   7.729   3.783   2.231  0.2446 -0.3648  0.5802
43420SOL    HW139228   7.819   3.755   2.249  0.3334  0.1941  1.0201
43420SOL    HW239229   7.732   3.814   2.140  0.4141 -0.6703  0.4791
43421SOL     OW39230   2.982   9.413   3.940  0.9401  0.5041  0.1352
43421SOL    HW139231   3.042   9.487   3.948  1.1601  0.5195 -1.3663
43421SOL    HW239232   3.015   9.363   3.864 -0.9291  0.5199 -0.7321
43422SOL     OW39233   2.228  10.632   3.344  0.8194  0.1820 -0.3293
43422SOL    HW139234   2.220  10.543   3.309  0.2489 -0.0053  0.2727
43422SOL    HW239235   2.230  10.687   3.266 -2.0647 -0.0921 -0.6989
43423SOL     OW39236   6.148   4.988   1.183  0.1666 -0.3832  0.1051
43423SOL    HW139237   6.204   4.921   1.144  0.4995  0.1434 -0.3236
43423SOL    HW239238   6.058   4.957   1.167  0.3211 -0.8863  0.1975
43424SOL     OW39239  10.352   2.632  10.490 -0.2152 -0.1244  0.4465
43424SOL    HW139240  10.358   2.654  10.397  0.1009 -2.3117 -0.1043
43424SOL    HW239241  10.291   2.696  10.526  0.9789  1.8746 -0.8663
43425SOL     OW39242   4.739   7.077   7.444 -0.3868 -0.3804  0.1714
43425SOL    HW139243   4.646   7.097   7.440 -0.3480  0.0755  1.2158
43425SOL    HW239244   4.751   7.033   7.528  0.5082  0.5139  0.5336
43426SOL     OW39245   1.491   9.527   7.602 -0.2114  0.0789 -0.5224
43426SOL    HW139246   1.480   9.499   7.511  0.6605 -0.8178 -0.3655
43426SOL    HW239247   1.441   9.463   7.653 -0.0824  0.1437 -0.3129
43427SOL     OW39248   4.725   0.060   8.624 -0.1499 -0.4923  0.0722
43427SOL    HW139249   4.700   0.150   8.604 -0.9089 -0.8215 -0.4899
43427SOL    HW239250   4.820   0.063   8.633  0.1056 -0.0489 -2.1946
43428SOL     OW39251   7.423   3.693   8.166  0.6674  0.0771 -0.6346
43428SOL    HW139252   7.437   3.668   8.075  1.6360 -1.6016 -0.0651
43428SOL    HW239253   7.512   3.698   8.203  0.3316  1.4709  0.0444
43429SOL     OW39254   3.052   9.361  12.352  0.3550  0.1661 -0.5269
43429SOL    HW139255   3.070   9.368  12.258 -1.6928  2.2080 -0.8512
43429SOL    HW239256   2.956   9.358  12.358  0.4629 -1.6728  1.4461
43430SOL     OW39257   3.234   2.350   0.417 -0.2310  0.5843 -0.2963
43430SOL    HW139258   3.155   2.297   0.413  0.3867 -0.3213 -1.3940
43430SOL    HW239259   3.204   2.440   0.409 -1.1549  0.2547 -0.6605
43431SOL     OW39260   7.403   3.184   2.299  0.3612 -0.1775  0.1663
43431SOL    HW139261   7.377   3.235   2.222  1.7823 -0.1796 -0.3462
43431SOL    HW239262   7.358   3.227   2.372 -0.6121  0.1392 -0.5901
43432SOL     OW39263   4.799   0.919  11.717 -0.3683  0.4194  0.8458
43432SOL    HW139264   4.749   0.911  11.635  0.2201  0.7488  0.4460
43432SOL    HW239265   4.754   0.861  11.778 -0.9693  0.3601  0.3630
43433SOL     OW39266   9.978   0.578  10.291  0.3469 -0.5725  0.0294
43433SOL    HW139267   9.997   0.550  10.201 -0.7544 -0.3936 -0.2784
43433SOL    HW239268   9.898   0.631  10.283  1.1211  0.7812  0.8979
43434SOL     OW39269   8.457   3.962  11.307  0.2035 -0.3759  0.3026
43434SOL    HW139270   8.505   4.044  11.303 -0.8277  0.2893  1.0325
43434SOL    HW239271   8.365   3.987  11.299 -0.1210 -1.4887  0.2826
43435SOL     OW39272   2.878   0.285   1.103  0.3168  0.1574 -0.1802
43435SOL    HW139273   2.922   0.201   1.086 -1.9965 -1.2975  0.5694
43435SOL    HW239274   2.787   0.269   1.081  0.1424  3.2376 -2.2625
43436SOL     OW39275   9.758   2.030   0.622 -0.0992 -0.1383 -0.2909
43436SOL    HW139276   9.764   1.949   0.671  0.4307  1.1889  1.9980
43436SOL    HW239277   9.831   2.083   0.654 -1.5016  1.9409 -0.2958
43437SOL     OW39278   8.996  10.365   7.218 -0.5379 -0.6328  0.1220
43437SOL    HW139279   9.019  10.308   7.291  1.2754 -1.2856 -0.8932
43437SOL    HW239280   9.080  10.394   7.183 -1.3819  1.3831 -0.4195
43438SOL     OW39281   2.154   7.001   8.119  0.1567 -0.1246  0.6253
43438SOL    HW139282   2.222   7.052   8.162 -1.6729  0.7829  2.6072
43438SOL    HW239283   2.072   7.034   8.156 -1.3776 -1.3013 -1.5194
43439SOL     OW39284   1.849   2.330   1.191  0.2137  0.2595  0.1382
43439SOL    HW139285   1.759   2.359   1.205  0.2264 -0.4079  1.9303
43439SOL    HW239286   1.902   2.410   1.203 -0.1622  0.9188 -2.1526
43440SOL     OW39287   7.473   5.988   2.431 -0.0772 -0.1857 -0.4565
43440SOL    HW139288   7.384   6.015   2.407 -0.4977 -1.1522 -0.0004
43440SOL    HW239289   7.530   6.046   2.379 -0.9592  0.7975 -0.3573
43441SOL     OW39290   2.892   7.335   1.863  0.2429 -0.3132 -0.2996
43441SOL    HW139291   2.941   7.382   1.796 -0.7490  0.6655 -0.3706
43441SOL    HW239292   2.924   7.371   1.946 -0.0669  0.0454 -0.3328
43442SOL     OW39293   4.244   2.823   0.624 -0.0957 -0.6630 -0.0580
43442SOL    HW139294   4.221   2.850   0.713  1.4148  0.1125  0.1348
43442SOL    HW239295   4.307   2.889   0.595 -1.5064 -0.1579 -2.1972
43443SOL     OW39296   8.007   9.790   9.515 -0.6470 -0.1902 -0.4665
43443SOL    HW139297   7.995   9.752   9.602  3.6300 -1.5151 -0.2292
43443SOL    HW239298   8.003   9.885   9.530 -1.6441 -0.4049  0.8063
43444SOL     OW39299  11.334   5.938   4.431  0.3731 -0.1408  0.3121
43444SOL    HW139300  11.305   5.850   4.407 -0.4258 -0.1890  1.3926
43444SOL    HW239301  11.265   5.971   4.488 -1.0934  2.5169 -2.6628
43445SOL     OW39302   6.519   0.111  10.022 -0.0516 -0.1501  0.2228
43445SOL    HW139303   6.588   0.155   9.972  0.3489 -1.3577 -0.3371
43445SOL    HW239304   6.558   0.027  10.047 -0.5493  0.0496  1.8359
43446SOL     OW39305   8.606   2.650   8.423 -0.0278 -0.3107  0.1640
43446SOL    HW139306   8.666   2.630   8.496 -0.8945  1.0187  1.2782
43446SOL    HW239307   8.550   2.573   8.416 -0.0856 -0.3576  1.0682
43447SOL     OW39308   3.529   4.523   9.315 -0.2780  0.1057  0.0545
43447SOL    HW139309   3.520   4.467   9.238 -0.7874 -0.5695  0.5990
43447SOL    HW239310   3.467   4.594   9.300 -2.0301 -1.1967  0.8522
43448SOL     OW39311   2.703   6.777   5.299  0.1557  0.2312 -0.3223
43448SOL    HW139312   2.666   6.806   5.382  0.9709  0.4524 -0.0275
43448SOL    HW239313   2.627   6.751   5.246 -0.3901  0.4240  0.3586
43449SOL     OW39314   9.993  12.472  10.801  0.2289 -0.1220 -0.0615
43449SOL    HW139315   9.956  12.472  10.712 -1.3552 -0.2904  0.5682
43449SOL    HW239316   9.992  12.564  10.827  0.2340 -0.1260 -0.0470
43450SOL     OW39317   0.953   1.410   1.342 -0.8840  0.2498  0.6338
43450SOL    HW139318   0.969   1.318   1.322  0.0037 -0.1245  2.8345
43450SOL    HW239319   0.861   1.423   1.322 -1.1811 -1.2812  0.9001
43451SOL     OW39320   5.392   0.539   7.406 -0.9212 -0.4530  0.2380
43451SOL    HW139321   5.376   0.482   7.481 -0.7741 -0.5659  0.1838
43451SOL    HW239322   5.432   0.482   7.340  0.3806 -0.0269  0.6294
43452SOL     OW39323   3.926   0.634  11.853  0.6288  0.1057  0.5376
43452SOL    HW139324   4.012   0.611  11.818  1.9438  0.7367  3.0935
43452SOL    HW239325   3.911   0.572  11.924 -0.8911  0.2322  0.3736
43453SOL     OW39326   5.319  10.927   6.298  0.1235 -0.3462 -0.0256
43453SOL    HW139327   5.340  11.019   6.316  1.7691 -0.6631 -0.1738
43453SOL    HW239328   5.234  10.930   6.255  0.1029  1.1033  0.0641
43454SOL     OW39329   5.896   7.242   5.631 -0.1895 -0.5102  0.3825
43454SOL    HW139330   5.852   7.300   5.568  1.6107 -0.8301 -1.2823
43454SOL    HW239331   5.989   7.262   5.621  0.1749 -0.3776  3.2267
43455SOL     OW39332   7.137   4.764   5.131 -0.0975 -0.3056 -0.4290
43455SOL    HW139333   7.204   4.832   5.120 -1.1692  0.8753  0.1758
43455SOL    HW239334   7.188   4.683   5.141  1.3140  0.6993  1.1341
43456SOL     OW39335   1.860   9.299   2.355  0.3724  1.2067  0.6386
43456SOL    HW139336   1.944   9.343   2.370  1.3180 -0.4216  0.4125
43456SOL    HW239337   1.809   9.318   2.434  0.8973  2.3258  0.7293
43457SOL     OW39338  10.926   2.138   1.909  0.0469 -0.4347  0.8397
43457SOL    HW139339  10.936   2.222   1.954 -0.6403 -1.1196  2.3334
43457SOL    HW239340  10.846   2.149   1.857 -0.2212 -0.2734  1.2813
43458SOL     OW39341   6.264   4.802  10.412 -0.4627 -0.2586  0.2922
43458SOL    HW139342   6.204   4.760  10.350  1.3401 -1.1078 -1.0011
43458SOL    HW239343   6.226   4.888  10.427  0.2499  1.1584 -4.2480
43459SOL     OW39344   5.355   1.516   8.037  0.5953  0.3307 -0.2497
43459SOL    HW139345   5.444   1.496   8.065  0.9468 -0.8543 -2.0339
43459SOL    HW239346   5.335   1.449   7.972 -0.8687  1.7443 -1.3408
43460SOL     OW39347   8.670   9.283   0.363  0.4909 -0.3332  0.1215
43460SOL    HW139348   8.690   9.351   0.298 -0.2454 -0.1859  0.0398
43460SOL    HW239349   8.610   9.224   0.318  0.0096 -0.2542  0.6476
43461SOL     OW39350   3.117   7.963   4.125 -0.3212 -0.2820 -0.7232
43461SOL    HW139351   3.055   8.000   4.188  0.7237 -2.1229  1.5424
43461SOL    HW239352   3.174   8.037   4.103 -1.7882  0.8418 -0.9726
43462SOL     OW39353   3.229   0.479  11.004 -0.0300  0.5730 -0.3010
43462SOL    HW139354   3.199   0.450  11.090 -0.0347  0.4807 -0.3340
43462SOL    HW239355   3.277   0.405  10.968 -1.3074  0.0679 -1.0071
43463SOL     OW39356   4.984   8.150   0.380  0.6385 -0.1323  0.4726
43463SOL    HW139357   5.023   8.238   0.376 -2.3558  1.3094 -0.2569
43463SOL    HW239358   4.969   8.135   0.473 -1.0982  1.3100  0.4741
43464SOL     OW39359   9.560   9.863   9.545  0.6415 -0.1847  0.3445
43464SOL    HW139360   9.588   9.932   9.484  1.3056 -0.2870  0.5282
43464SOL    HW239361   9.533   9.910   9.624  2.7767 -0.2003  1.1361
43465SOL     OW39362   0.383   6.928   5.029 -0.2275  0.3754  0.2408
43465SOL    HW139363   0.432   7.010   5.041 -0.4964  0.3303  1.9392
43465SOL    HW239364   0.303   6.955   4.984  0.5657  0.7145 -1.0063
43466SOL     OW39365   8.745   9.359   6.270  0.2718 -0.4448  0.7836
43466SOL    HW139366   8.802   9.322   6.202 -1.8055  1.7152 -2.4071
43466SOL    HW239367   8.797   9.430   6.307  0.0540  1.1920 -1.7515
43467SOL     OW39368   9.108   0.180   5.523  0.0798  0.0110 -0.3659
43467SOL    HW139369   9.192   0.151   5.486  0.0093 -1.2535  0.3773
43467SOL    HW239370   9.124   0.182   5.617 -0.5738  0.2885 -0.2612
43468SOL     OW39371   6.483  12.258   0.706 -0.2275  0.0791 -0.1364
43468SOL    HW139372   6.552  12.323   0.693  0.2445 -0.7822 -2.5653
43468SOL    HW239373   6.404  12.300   0.673 -1.0477  1.1656  2.8926
43469SOL     OW39374   7.794   4.978   1.925  0.4956  0.2780  0.3128
43469SOL    HW139375   7.785   4.999   2.018  2.4830  0.8838  0.3952
43469SOL    HW239376   7.844   5.050   1.889 -2.2227  1.3050 -1.7936
43470SOL     OW39377   7.726   2.102   7.360 -0.2931 -0.1036 -0.1734
43470SOL    HW139378   7.787   2.057   7.418 -0.1172 -0.4330 -0.6043
43470SOL    HW239379   7.701   2.181   7.407 -1.9955 -1.5010  1.4028
43471SOL     OW39380   3.502   4.539   7.080  0.2782 -0.0577  0.1191
43471SOL    HW139381   3.580   4.489   7.055  0.1284  0.1078 -0.6816
43471SOL    HW239382   3.431   4.475   7.078  0.2041  0.0341 -0.2403
43472SOL     OW39383   6.246   6.178   9.518  0.5027  0.2320 -0.0483
43472SOL    HW139384   6.298   6.178   9.437  1.1160 -1.2254  0.3129
43472SOL    HW239385   6.158   6.204   9.490  1.3708  2.7530 -0.6762
43473SOL     OW39386   6.056   3.484   2.538  0.1873  0.0066  0.2167
43473SOL    HW139387   6.059   3.391   2.514  1.2708  0.1312 -0.1719
43473SOL    HW239388   6.129   3.495   2.598 -0.4546  0.4352  0.9295
43474SOL     OW39389   3.012  11.815  10.989  0.0550  0.0616 -0.5644
43474SOL    HW139390   3.090  11.765  10.964 -0.4027 -1.4584  0.8675
43474SOL    HW239391   3.005  11.803  11.083 -2.2062 -0.2765 -0.7243
43475SOL     OW39392  11.700   6.361   6.994 -0.0495 -0.3506 -0.6271
43475SOL    HW139393  11.772   6.424   6.997 -1.4509  1.4972 -2.9016
43475SOL    HW239394  11.687   6.343   6.901 -1.5684 -1.7903 -0.1810
43476SOL     OW39395  12.535   0.902   8.716 -0.4669 -0.5244 -0.2907
43476SOL    HW139396  12.600   0.973   8.718  1.5691 -2.2978 -0.5110
43476SOL    HW239397  12.452   0.946   8.733  0.8381  1.7835  0.6175
43477SOL     OW39398   7.254   0.950   8.013 -0.1123  0.8382 -0.1304
43477SOL    HW139399   7.291   1.031   8.047  0.3913  1.3186 -1.7367
43477SOL    HW239400   7.189   0.924   8.079  3.0867 -0.1503  2.9273
43478SOL     OW39401   0.230   1.337  11.618  0.0697  0.0840 -0.3015
43478SOL    HW139402   0.223   1.365  11.709 -0.2808 -0.0419 -0.2864
43478SOL    HW239403   0.315   1.294  11.612 -1.1211 -2.6808  0.7484
43479SOL     OW39404   2.488  10.468  11.514 -0.6416 -0.1442 -0.2038
43479SOL    HW139405   2.425  10.396  11.516  0.0266 -0.7773  2.7277
43479SOL    HW239406   2.439  10.545  11.543 -0.5615 -0.1755  0.0173
43480SOL     OW39407   7.847   0.690   7.979 -0.6272 -0.2252 -0.1829
43480SOL    HW139408   7.880   0.702   8.068 -0.2771  0.4493 -0.4021
43480SOL    HW239409   7.857   0.596   7.963 -0.3609 -0.2928  0.3573
43481SOL     OW39410  10.333   7.662  11.969  0.1077 -1.0721  0.0934
43481SOL    HW139411  10.334   7.731  11.903  1.1837 -0.1366  1.0599
43481SOL    HW239412  10.264   7.601  11.939  0.7843 -0.8545 -2.0467
43482SOL     OW39413   1.244   9.838   3.104 -0.6701  0.4867  0.0825
43482SOL    HW139414   1.212   9.902   3.169 -0.0676 -0.4491  1.3469
43482SOL    HW239415   1.201   9.756   3.129 -2.8461  0.6904 -2.6035
43483SOL     OW39416   3.265   9.126   3.142  0.3344  0.1444  0.0621
43483SOL    HW139417   3.345   9.137   3.090  0.7565  1.3479  0.9299
43483SOL    HW239418   3.195   9.116   3.077  1.0554  0.0388 -0.7189
43484SOL     OW39419  12.591  10.065   2.741 -0.1107  0.6086 -0.0272
43484SOL    HW139420  12.531   9.995   2.714 -0.4603  1.4076 -1.4437
43484SOL    HW239421  12.678  10.028   2.728 -0.2605  0.8811 -2.2143
43485SOL     OW39422   3.437   5.953   8.876  0.1078 -0.3584  0.1667
43485SOL    HW139423   3.399   6.004   8.804 -3.2774 -0.6637  1.5370
43485SOL    HW239424   3.440   5.863   8.842  1.2566 -0.0811 -0.5174
43486SOL     OW39425   3.624  11.356   2.684 -0.2478  0.3438  0.3566
43486SOL    HW139426   3.586  11.339   2.598 -1.3341 -0.5477  0.9821
43486SOL    HW239427   3.557  11.326   2.746  0.6226  0.7136  1.5140
43487SOL     OW39428   2.470  12.395   3.255 -0.2541 -0.4254 -0.8298
43487SOL    HW139429   2.376  12.387   3.271 -0.1825  1.7635  1.3147
43487SOL    HW239430   2.506  12.311   3.282 -1.5119 -1.0150 -0.9327
43488SOL     OW39431  11.062   9.997   9.995  0.2857  0.2675 -0.5254
43488SOL    HW139432  11.141   9.947   9.974  0.0942  0.4604 -1.7818
43488SOL    HW239433  11.069  10.014  10.089  1.8299  0.4238 -0.6394
43489SOL     OW39434   7.986  11.744   5.264 -0.2892 -0.0872 -0.2479
43489SOL    HW139435   8.046  11.696   5.321  0.5154  2.8280  1.5367
43489SOL    HW239436   8.039  11.765   5.187 -0.6279 -1.8270 -1.0215
43490SOL     OW39437   6.674   9.109   6.750 -0.7035 -0.2366  0.3302
43490SOL    HW139438   6.630   9.041   6.700 -0.2748  0.4973 -1.1121
43490SOL    HW239439   6.763   9.077   6.762 -0.1274  0.5418 -1.4502
43491SOL     OW39440   3.170   6.112   8.295 -0.2566 -0.6683  0.5319
43491SOL    HW139441   3.213   6.174   8.236  0.2038  0.4268  1.9395
43491SOL    HW239442   3.229   6.036   8.298 -0.7466 -1.1366 -1.0921
43492SOL     OW39443  12.152  12.106   6.958  0.4518  0.3968 -0.1314
43492SOL    HW139444  12.077  12.165   6.951 -0.7987 -0.8101  1.9842
43492SOL    HW239445  12.206  12.143   7.027  1.4839  0.8681 -1.1575
43493SOL     OW39446   6.495   5.876   4.806 -0.0647  0.3521  0.1619
43493SOL    HW139447   6.452   5.790   4.798  1.1308 -0.4799  1.9086
43493SOL    HW239448   6.509   5.904   4.716 -0.5685 -1.2651 -0.4669
43494SOL     OW39449   8.474   8.974  12.012  0.2670  0.5508  1.0186
43494SOL    HW139450   8.417   8.901  12.035  1.3796 -0.5442  0.4536
43494SOL    HW239451   8.508   9.006  12.096  0.8335 -0.4966  1.1997
43495SOL     OW39452  10.497   3.030  11.215  0.0655 -0.3252 -0.7542
43495SOL    HW139453  10.504   3.044  11.120  1.8576 -0.9366 -0.7557
43495SOL    HW239454  10.531   2.941  11.228  1.4260  0.3699  0.6390
43496SOL     OW39455  11.985  12.035  12.112  0.0445  0.1242  0.6018
43496SOL    HW139456  12.059  12.052  12.055 -0.3194  1.7783  0.5676
43496SOL    HW239457  12.023  12.003  12.193  0.8905  1.8429  0.9173
43497SOL     OW39458   8.369   0.327  11.706 -0.4010  0.1357  0.4258
43497SOL    HW139459   8.458   0.325  11.672  0.6382 -1.4556  2.9474
43497SOL    HW239460   8.314   0.334  11.628  1.8811  0.9201 -1.2370
43498SOL     OW39461   4.941   1.857  11.838  0.0847 -0.3780  0.0818
43498SOL    HW139462   4.906   1.782  11.885  0.7127  0.2485  1.6160
43498SOL    HW239463   5.025   1.827  11.804  0.4076 -0.3381  0.8268
43499SOL     OW39464  11.091   9.018   2.129  0.7728 -0.0637  0.0729
43499SOL    HW139465  11.073   9.009   2.222 -2.8644 -0.1017 -0.4585
43499SOL    HW239466  11.090   8.929   2.095  0.8891  0.0234 -0.1658
43500SOL     OW39467  10.989  11.180   7.756 -0.0336 -0.2572 -0.3160
43500SOL    HW139468  10.943  11.105   7.718 -1.3510 -0.3746  1.3924
43500SOL    HW239469  11.069  11.142   7.793  0.1803 -0.5018 -1.0083
43501SOL     OW39470   8.657   9.668   0.736  0.7148 -0.1555 -0.5931
43501SOL    HW139471   8.723   9.684   0.669  0.5923 -0.8440 -0.8926
43501SOL    HW239472   8.651   9.573   0.741 -0.4140 -0.1117 -0.7490
43502SOL     OW39473   3.611   6.300   9.250  0.0276  0.2337 -0.1344
43502SOL    HW139474   3.582   6.326   9.162  1.5358 -2.3798 -1.5270
43502SOL    HW239475   3.671   6.369   9.277 -1.8131  1.9931 -0.3080
43503SOL     OW39476   0.384   3.354   6.376  0.0170 -0.1574 -0.4944
43503SOL    HW139477   0.453   3.408   6.416  0.3432  0.5653 -1.9643
43503SOL    HW239478   0.303   3.400   6.396  0.0837 -0.2761  0.0702
43504SOL     OW39479   9.747   3.761   3.629 -0.2997  0.0659  0.0364
43504SOL    HW139480   9.832   3.783   3.592 -0.1549 -0.9879 -0.2688
43504SOL    HW239481   9.686   3.770   3.555 -0.1577 -1.0816 -0.2289
43505SOL     OW39482  10.787   6.466   7.360  0.2164 -0.2284 -0.4339
43505SOL    HW139483  10.832   6.432   7.438 -0.7629 -0.3408  0.1049
43505SOL    HW239484  10.697   6.434   7.368 -0.3580  1.2098 -0.6879
43506SOL     OW39485   7.381  11.054  10.353 -0.2213  0.3551  0.4198
43506SOL    HW139486   7.393  11.059  10.448 -0.7638  3.5663  0.4133
43506SOL    HW239487   7.466  11.026  10.319  0.9596  2.1853  1.7070
43507SOL     OW39488   7.391   1.188   0.138 -0.1767  0.2988 -0.7873
43507SOL    HW139489   7.377   1.220   0.049  1.2461  1.7142 -0.5624
43507SOL    HW239490   7.438   1.105   0.127  0.0680  0.5074 -1.3562
43508SOL     OW39491   7.839   1.233   2.095 -0.1556 -0.4643 -0.5474
43508SOL    HW139492   7.891   1.304   2.133  0.0700 -2.1254  2.6885
43508SOL    HW239493   7.749   1.266   2.095  0.0987  0.2541 -0.2253
43509SOL     OW39494   4.980   7.726   5.560  0.3363  0.2953 -0.3919
43509SOL    HW139495   5.067   7.741   5.523  0.1548  1.6150 -0.3275
43509SOL    HW239496   4.995   7.669   5.635  1.1195  0.3099 -0.5279
43510SOL     OW39497   7.809   6.043   6.935  0.6039  1.0690  0.2853
43510SOL    HW139498   7.731   5.997   6.965  2.1622 -0.4959  2.1750
43510SOL    HW239499   7.786   6.075   6.848 -1.7868 -0.2098  0.3806
43511SOL     OW39500   4.365   0.455  11.858  0.2455 -0.2601 -0.0011
43511SOL    HW139501   4.318   0.513  11.798 -2.9478 -2.3480  0.2334
43511SOL    HW239502   4.334   0.480  11.945 -0.3607 -1.5761  0.1808
43512SOL     OW39503   7.014  10.764   8.509 -0.4652 -0.5446  0.0226
43512SOL    HW139504   6.999  10.700   8.579  0.0799 -1.9642 -1.0963
43512SOL    HW239505   6.927  10.782   8.474 -0.9626  1.4033  2.0115
43513SOL     OW39506   9.305   4.323   3.480  0.0152  0.1594  0.1895
43513SOL    HW139507   9.305   4.228   3.490 -0.0639  0.3604  2.3793
43513SOL    HW239508   9.373   4.354   3.539 -0.5731  1.5307  0.1855
43514SOL     OW39509  11.123   8.433   4.401  0.1528 -0.5435  0.5693
43514SOL    HW139510  11.210   8.417   4.437  0.7576  0.0975 -0.5617
43514SOL    HW239511  11.093   8.348   4.369  1.5293 -0.3039 -1.5146
43515SOL     OW39512   4.269  11.602   8.109  0.2831  0.0647  0.0185
43515SOL    HW139513   4.183  11.603   8.065 -0.9103  0.0660  2.1935
43515SOL    HW239514   4.251  11.637   8.197  2.5934  0.3099  0.4501
43516SOL     OW39515   6.719   9.942   7.814  0.3011  0.1359 -0.1737
43516SOL    HW139516   6.771   9.931   7.893  1.5677 -1.7353 -1.1981
43516SOL    HW239517   6.783   9.967   7.746 -0.9579  3.3199 -0.3836
43517SOL     OW39518   8.249   1.495   4.968  0.0064  0.2303 -0.3885
43517SOL    HW139519   8.194   1.535   5.034  0.7423  0.7966 -0.1090
43517SOL    HW239520   8.194   1.427   4.928 -0.5948  0.2046  0.4723
43518SOL     OW39521  11.163   3.141   6.528  0.1788 -0.2142  0.1099
43518SOL    HW139522  11.168   3.046   6.529  0.2875 -0.2431 -1.5611
43518SOL    HW239523  11.230   3.169   6.466 -2.2751  0.7198 -2.3766
43519SOL     OW39524   5.120   7.475   2.147  0.6744  0.1965  0.2952
43519SOL    HW139525   5.129   7.492   2.241  0.0827  0.8403  0.2420
43519SOL    HW239526   5.201   7.430   2.123  1.4140  1.1812  0.8589
43520SOL     OW39527  11.298   1.963   6.318 -0.1623  0.4210  0.1718
43520SOL    HW139528  11.384   2.004   6.308  0.5277 -0.8472  0.6722
43520SOL    HW239529  11.280   1.922   6.233  0.0296  0.1250  0.2747
43521SOL     OW39530   2.890  10.694  12.318  0.2826  0.0645  0.2282
43521SOL    HW139531   2.823  10.754  12.285  2.0491  1.7922 -0.3945
43521SOL    HW239532   2.937  10.665  12.240 -0.1327 -1.6641  0.5916
43522SOL     OW39533   4.227   5.014   8.883  1.3684  0.4372 -0.3878
43522SOL    HW139534   4.142   5.035   8.845  1.1954 -0.2045 -0.3589
43522SOL    HW239535   4.246   4.925   8.854  0.5124 -0.7113  2.2378
43523SOL     OW39536   1.098  10.756   5.143 -0.3995  0.3814 -0.3863
43523SOL    HW139537   1.092  10.796   5.230 -0.1679 -1.8237  0.7103
43523SOL    HW239538   1.008  10.752   5.111 -0.8505 -1.1581  0.9411
43524SOL     OW39539   5.825   7.443   4.874  0.2299  0.2559  0.2940
43524SOL    HW139540   5.761   7.374   4.855 -1.0073  1.5223 -0.3310
43524SOL    HW239541   5.903   7.417   4.825  0.0301 -1.0536  0.6305
43525SOL     OW39542   2.574  10.713   1.518 -0.5294 -0.1903 -0.7656
43525SOL    HW139543   2.628  10.771   1.465 -0.2575  0.3639  0.1106
43525SOL    HW239544   2.504  10.768   1.552  0.2903 -0.1119  0.8884
43526SOL     OW39545  12.049  10.129   1.585 -0.3207  0.4895  0.3083
43526SOL    HW139546  12.002  10.172   1.513 -1.1320 -0.1644  0.4356
43526SOL    HW239547  12.054  10.196   1.653 -0.1169  0.9082 -0.1107
43527SOL     OW39548   2.579   2.541  10.782  0.4269 -0.0649 -0.0101
43527SOL    HW139549   2.500   2.539  10.727  0.7374 -1.0083 -0.4406
43527SOL    HW239550   2.617   2.454  10.772  1.8053  0.5417 -0.2034
43528SOL     OW39551  10.900   1.888   5.172  0.6511 -0.2294  0.1362
43528SOL    HW139552  10.983   1.934   5.163 -0.5702  1.9514 -0.6887
43528SOL    HW239553  10.876   1.864   5.083 -0.0479 -0.0248  0.2673
43529SOL     OW39554   2.110   7.180  10.086 -0.2097  0.6116 -0.2645
43529SOL    HW139555   2.077   7.150  10.001 -0.5591 -0.4621  0.2311
43529SOL    HW239556   2.035   7.222  10.129 -0.1326  0.8199 -0.3316
43530SOL     OW39557  11.175   6.404   0.063 -0.8950 -0.1025 -0.3545
43530SOL    HW139558  11.196   6.495   0.085 -1.3968 -0.3823  1.4832
43530SOL    HW239559  11.080   6.404   0.049 -1.1525 -0.6056  1.2507
43531SOL     OW39560   0.983   0.904  10.467  0.3909  0.0513  0.0656
43531SOL    HW139561   0.938   0.987  10.481 -1.2242 -0.9634  1.3097
43531SOL    HW239562   1.028   0.886  10.549  1.6273  0.1745 -0.5589
43532SOL     OW39563   5.690   1.553   1.815  0.3145 -0.4138 -0.3978
43532SOL    HW139564   5.675   1.598   1.732 -1.5955 -1.2302 -0.5334
43532SOL    HW239565   5.647   1.608   1.880  2.4214  0.6087  0.2199
43533SOL     OW39566   7.750   9.600  11.569  0.5322  0.0523  0.4855
43533SOL    HW139567   7.781   9.616  11.480 -1.9313  0.9280 -0.2979
43533SOL    HW239568   7.742   9.505  11.576 -1.4160  0.0266 -1.1127
43534SOL     OW39569  12.077  10.069  11.799  0.1952 -0.5331  0.3013
43534SOL    HW139570  11.989  10.090  11.768 -0.4050  0.5524  2.6037
43534SOL    HW239571  12.132  10.139  11.762 -0.6202  1.1266  2.0241
43535SOL     OW39572   0.401   4.018  10.728 -0.4857  0.3511  0.1745
43535SOL    HW139573   0.415   4.085  10.795 -0.0933 -1.0505  1.5786
43535SOL    HW239574   0.373   4.066  10.650  0.9122  2.2279  0.7664
43536SOL     OW39575   8.553   6.121   1.633 -0.5612  0.0281 -0.1853
43536SOL    HW139576   8.581   6.030   1.644 -0.6595 -0.0367 -0.4556
43536SOL    HW239577   8.466   6.115   1.593 -1.5699  0.1991  1.8832
43537SOL     OW39578   3.158   4.153   0.006  0.3998 -0.0719 -0.1609
43537SOL    HW139579   3.206   4.155  -0.077  0.6715 -0.2734 -0.0074
43537SOL    HW239580   3.067   4.135  -0.020 -0.0451  2.5577 -0.6435
43538SOL     OW39581   4.246   8.536   0.462 -0.3329 -0.0733 -0.6639
43538SOL    HW139582   4.338   8.523   0.484 -0.2802 -1.9226 -1.7487
43538SOL    HW239583   4.199   8.471   0.514 -0.8335 -0.2457 -1.3064
43539SOL     OW39584   0.454   6.224   7.449 -0.2327  0.2330  0.6846
43539SOL    HW139585   0.468   6.130   7.460  0.1155  0.3506  1.2836
43539SOL    HW239586   0.437   6.256   7.537 -0.6804  0.6797  0.4349
43540SOL     OW39587  11.552   8.814  10.045 -0.1320  0.4427 -0.0867
43540SOL    HW139588  11.607   8.819  10.123 -0.5745  1.1788  0.1929
43540SOL    HW239589  11.581   8.735  10.000  0.0102 -0.0873  0.9102
43541SOL     OW39590   4.766   4.030   1.536 -0.0097  0.0223 -0.1526
43541SOL    HW139591   4.811   4.024   1.620  1.2755 -1.0089 -0.8716
43541SOL    HW239592   4.680   3.991   1.553  0.3575 -0.4952  0.6167
43542SOL     OW39593   5.774   1.385   7.895  0.5958 -0.1792  0.1446
43542SOL    HW139594   5.695   1.413   7.849  0.5725  0.5196  0.5907
43542SOL    HW239595   5.821   1.331   7.831  0.2685  0.2608 -0.4804
43543SOL     OW39596   9.909  10.867   8.355 -0.0731  0.2699 -0.5003
43543SOL    HW139597   9.942  10.777   8.355  0.1289  0.3434 -0.5240
43543SOL    HW239598   9.969  10.914   8.413  0.9379  0.7990 -1.9356
43544SOL     OW39599   2.426   3.114   5.001 -0.1092  0.1865 -0.5439
43544SOL    HW139600   2.333   3.127   4.986 -0.4092  0.0209  0.9612
43544SOL    HW239601   2.433   3.098   5.095  1.3572 -0.5586 -0.7457
43545SOL     OW39602  10.529  12.154   9.753  0.3144  0.5214 -0.4089
43545SOL    HW139603  10.612  12.128   9.713  0.0413  0.4362 -0.9205
43545SOL    HW239604  10.505  12.080   9.809  0.1408  0.1718 -0.9412
43546SOL     OW39605   5.675   6.113   8.133  0.2496 -0.2124  0.3974
43546SOL    HW139606   5.761   6.114   8.089 -0.2490 -1.1573 -0.6486
43546SOL    HW239607   5.682   6.042   8.197  1.5284  2.1542  3.1579
43547SOL     OW39608   9.254   0.409   4.104  0.4973  0.1727  0.0564
43547SOL    HW139609   9.256   0.496   4.065 -0.3173  0.6101  0.9395
43547SOL    HW239610   9.233   0.350   4.032 -1.1812  0.9772 -0.1733
43548SOL     OW39611   8.980   1.791   9.567 -0.0062 -0.3714 -0.2764
43548SOL    HW139612   8.989   1.734   9.490  1.5243 -2.3801  1.2583
43548SOL    HW239613   8.965   1.730   9.639 -0.3872  1.3769  1.1771
43549SOL     OW39614   5.993  10.411   2.235 -0.1508 -0.4443 -0.3697
43549SOL    HW139615   5.960  10.501   2.233  0.0022 -0.3929 -0.7200
43549SOL    HW239616   5.962  10.376   2.318 -0.1238 -0.0340 -0.1843
43550SOL     OW39617   8.737   9.202   8.924  0.1592 -0.3480 -0.0078
43550SOL    HW139618   8.786   9.266   8.976 -1.0219 -1.0881  2.1589
43550SOL    HW239619   8.800   9.170   8.859  2.0458 -0.0835  1.5915
43551SOL     OW39620   4.550   2.467  10.602  0.3392  0.2608  0.3783
43551SOL    HW139621   4.636   2.509  10.598  0.3466  0.1834 -1.1184
43551SOL    HW239622   4.512   2.496  10.685  2.6358 -1.4002  2.1071
43552SOL     OW39623   9.411  10.403   7.873  0.0183 -0.4662 -0.3397
43552SOL    HW139624   9.423  10.491   7.839  0.0927  0.0857  1.0622
43552SOL    HW239625   9.370  10.415   7.958 -0.6445 -1.8293 -0.4414
43553SOL     OW39626   4.408   0.976  11.974  0.7166  0.2228  0.2543
43553SOL    HW139627   4.371   1.057  12.011 -1.1869  0.1353 -1.3123
43553SOL    HW239628   4.371   0.906  12.027 -0.0111  0.2336 -0.2305
43554SOL     OW39629   9.379   7.748   7.002 -0.6011 -0.0864 -0.6957
43554SOL    HW139630   9.461   7.794   6.983 -0.9373  1.5084  1.3201
43554SOL    HW239631   9.311   7.806   6.969 -0.9582 -0.6928 -1.0229
43555SOL     OW39632  10.883   3.819  12.483  0.3179 -0.7702 -0.6092
43555SOL    HW139633  10.897   3.838  12.390 -0.3806 -1.3072 -0.8339
43555SOL    HW239634  10.857   3.903  12.521  1.1213 -0.4330 -0.7829
43556SOL     OW39635   1.147  12.159   1.821  0.9556 -0.0957  0.5772
43556SOL    HW139636   1.154  12.064   1.827 -0.2726 -0.3505 -1.0614
43556SOL    HW239637   1.221  12.185   1.765  1.6907  0.0244  1.5777
43557SOL     OW39638   1.312  10.702   1.884  0.4475 -0.4202 -0.2393
43557SOL    HW139639   1.397  10.704   1.927 -0.6641  2.3562  2.1408
43557SOL    HW239640   1.320  10.766   1.813  0.2928 -0.0232  0.1008
43558SOL     OW39641   7.557   6.501   5.188  0.2565 -0.4553  0.5722
43558SOL    HW139642   7.511   6.520   5.270  1.6131 -2.4663  1.8575
43558SOL    HW239643   7.592   6.413   5.199  3.2390  0.4304 -0.8949
43559SOL     OW39644   7.618   1.605  12.534 -0.2580  0.2180  0.6700
43559SOL    HW139645   7.641   1.645  12.451 -1.2091  1.5411  1.0036
43559SOL    HW239646   7.552   1.664  12.571  0.0583 -0.4072  2.3028
43560SOL     OW39647   2.814   7.135   2.580  0.3959 -0.6120 -0.7168
43560SOL    HW139648   2.722   7.121   2.556  0.5483 -2.0564 -0.5551
43560SOL    HW239649   2.854   7.048   2.572  1.4265 -0.2843  0.5777
43561SOL     OW39650   0.453  10.033   4.719 -0.2305 -0.7010  0.0220
43561SOL    HW139651   0.495   9.973   4.658  0.9545 -1.6199  1.6518
43561SOL    HW239652   0.395   9.978   4.772 -1.0899  0.0336 -0.1333
43562SOL     OW39653  11.605   4.183   5.780 -0.4972 -0.1929  0.0367
43562SOL    HW139654  11.588   4.137   5.863  0.2321 -0.4317  0.0607
43562SOL    HW239655  11.650   4.263   5.806  0.5891 -0.7174 -0.1878
43563SOL     OW39656   0.186   9.775   2.009  0.1720 -0.6431  0.0973
43563SOL    HW139657   0.264   9.804   2.058 -1.7936  2.9252  1.5605
43563SOL    HW239658   0.221   9.729   1.933  3.7246  0.8505  0.6189
43564SOL     OW39659   0.781   0.826   4.459 -0.3933 -0.1857 -0.5737
43564SOL    HW139660   0.821   0.764   4.398  0.9271 -1.1777  1.1978
43564SOL    HW239661   0.831   0.907   4.448 -0.1274 -0.3745 -0.7592
43565SOL     OW39662   2.458   2.179   1.141  0.7331  0.1565 -0.1611
43565SOL    HW139663   2.539   2.217   1.176  0.5385 -0.0447  0.5335
43565SOL    HW239664   2.390   2.207   1.203  0.3594 -0.1157 -0.4460
43566SOL     OW39665  12.452   7.139  10.877 -0.4596 -0.1811 -0.0254
43566SOL    HW139666  12.402   7.072  10.925  0.0147 -0.9053 -0.5148
43566SOL    HW239667  12.396   7.161  10.803 -0.0921 -0.9631 -0.5520
43567SOL     OW39668   2.637   4.211   5.226  0.3938 -0.0823 -0.2697
43567SOL    HW139669   2.578   4.227   5.152  1.8085 -0.8222 -1.6281
43567SOL    HW239670   2.664   4.298   5.255 -1.6520  0.2953  0.6858
43568SOL     OW39671   4.095   3.615   8.967  0.8027 -0.4018  0.0990
43568SOL    HW139672   4.003   3.593   8.981  0.1301  0.2357 -2.6716
43568SOL    HW239673   4.094   3.708   8.946  1.8569 -0.6834 -1.3643
43569SOL     OW39674   2.811  10.314   5.673 -0.5615 -0.6604 -0.2364
43569SOL    HW139675   2.737  10.259   5.698 -1.6671  0.6075 -0.5619
43569SOL    HW239676   2.796  10.335   5.581 -1.2008  1.6084  0.3139
43570SOL     OW39677   0.086   0.987   1.112 -0.0015  0.5912  0.4256
43570SOL    HW139678   0.140   0.947   1.043 -1.6400 -1.0220  0.0093
43570SOL    HW239679   0.146   0.995   1.187  0.6907 -1.9144  0.2470
43571SOL     OW39680   8.599   0.075  12.320 -0.1128 -0.3029  0.1719
43571SOL    HW139681   8.588   0.011  12.250 -0.0354 -1.3244  1.0734
43571SOL    HW239682   8.692   0.070  12.343  0.1429  0.9761 -0.5325
43572SOL     OW39683  10.723   8.043   4.579 -0.0272  0.6968 -0.6109
43572SOL    HW139684  10.745   8.100   4.505 -1.8300  1.7444 -0.3906
43572SOL    HW239685  10.654   8.090   4.625  0.1587 -0.5533  1.0095
43573SOL     OW39686   3.941   4.548  11.748  0.1881 -0.0510 -0.1016
43573SOL    HW139687   3.860   4.598  11.758  0.0836 -0.0613 -0.8406
43573SOL    HW239688   3.930   4.499  11.666  1.3831  0.7944 -0.7961
43574SOL     OW39689   9.588   2.362   5.276  0.0207  0.2911  0.3793
43574SOL    HW139690   9.570   2.422   5.349  0.6582 -0.3263  1.0650
43574SOL    HW239691   9.521   2.294   5.284 -1.6050  1.6144 -1.2597
43575SOL     OW39692  10.455   5.996   2.645  0.7106  0.0172  0.2839
43575SOL    HW139693  10.450   6.054   2.569  2.9516  0.2862  0.2574
43575SOL    HW239694  10.364   5.982   2.671  0.0029  1.8921 -0.9502
43576SOL     OW39695   2.845  10.602   4.681 -0.5631  0.2885 -0.4805
43576SOL    HW139696   2.807  10.645   4.759 -1.5453 -0.3027 -0.6144
43576SOL    HW239697   2.830  10.664   4.610 -3.5659 -0.8677 -1.0349
43577SOL     OW39698   9.261   1.606   3.946  0.6617 -0.1137 -0.3652
43577SOL    HW139699   9.178   1.653   3.946  0.4042 -0.5566 -0.2547
43577SOL    HW239700   9.315   1.652   4.009 -0.1303 -0.8938  0.9423
43578SOL     OW39701   7.429   0.299   9.171  0.1006 -0.3030  0.0134
43578SOL    HW139702   7.391   0.235   9.230 -0.0910  0.4645  0.7418
43578SOL    HW239703   7.507   0.256   9.135 -0.2854 -1.1066  0.1226
43579SOL     OW39704  10.341   5.233   6.786  0.1845 -0.0037 -0.3655
43579SOL    HW139705  10.280   5.258   6.856 -0.0785  0.1713 -0.6551
43579SOL    HW239706  10.341   5.137   6.787  0.5676 -0.0027  0.2065
43580SOL     OW39707   7.774   6.110   5.986  0.2793  0.4763  0.2306
43580SOL    HW139708   7.759   6.024   6.026  1.6099  0.3618  0.5309
43580SOL    HW239709   7.687   6.148   5.978 -0.2617 -0.5892  0.8040
43581SOL     OW39710   6.584   1.149   7.842 -0.0450 -0.3833  0.2530
43581SOL    HW139711   6.514   1.195   7.796  2.2994  0.9338 -2.2852
43581SOL    HW239712   6.568   1.056   7.823 -0.9103 -0.0796 -0.5800
43582SOL     OW39713  10.059   5.995   3.667  0.7073  0.4013 -0.5206
43582SOL    HW139714  10.084   6.056   3.737  1.4602 -1.2993  0.8067
43582SOL    HW239715  10.143   5.964   3.632  0.3980 -0.9355 -0.1408
43583SOL     OW39716   7.710   3.989   7.558  0.0614 -0.4290  0.2579
43583SOL    HW139717   7.778   3.958   7.498  1.2166  2.2650  0.0270
43583SOL    HW239718   7.647   4.035   7.503  1.3055  2.3686  0.9899
43584SOL     OW39719   2.163   3.003   6.952 -0.6067 -0.2036 -0.1674
43584SOL    HW139720   2.223   3.058   7.002 -0.7700 -0.0544 -0.1357
43584SOL    HW239721   2.138   2.934   7.013 -1.6080  0.5491  0.3005
43585SOL     OW39722  10.054   1.011   3.739  0.1140 -0.4919  0.0252
43585SOL    HW139723  10.065   1.092   3.691 -1.9423  0.4430  0.9908
43585SOL    HW239724   9.992   0.960   3.687  0.2392 -0.7931  0.1675
43586SOL     OW39725   4.226  12.056   2.005  0.8064  0.4507  0.3445
43586SOL    HW139726   4.189  11.968   2.014  2.9299 -0.8145 -1.9863
43586SOL    HW239727   4.293  12.061   2.072  1.8142 -0.4314 -0.5489
43587SOL     OW39728   9.015  12.537   6.681  0.0799 -0.1087 -0.1988
43587SOL    HW139729   8.964  12.461   6.654  1.6822 -0.9298 -0.9865
43587SOL    HW239730   8.976  12.610   6.633 -0.2794 -0.7289 -0.8612
43588SOL     OW39731   1.412   7.051   4.847 -0.3485  0.5344  0.2890
43588SOL    HW139732   1.444   7.025   4.934  0.9645  0.1145 -0.3025
43588SOL    HW239733   1.477   7.017   4.786 -0.3217  2.3676 -0.7642
43589SOL     OW39734   9.878   3.907   2.948  0.3208  0.4479 -0.1992
43589SOL    HW139735   9.791   3.867   2.952  1.3860 -2.0510 -0.0760
43589SOL    HW239736   9.867   3.982   2.890 -1.5766 -0.7287 -1.5033
43590SOL     OW39737   7.356   9.639   6.697 -0.3495 -0.0641 -0.5624
43590SOL    HW139738   7.409   9.594   6.632  3.3302  0.8190  1.5342
43590SOL    HW239739   7.325   9.718   6.653  0.6776 -0.2756 -1.7178
43591SOL     OW39740   5.038   0.027   4.155  0.1220 -0.3251 -0.0807
43591SOL    HW139741   5.083   0.089   4.098 -0.5925  1.0624  0.7966
43591SOL    HW239742   5.077   0.042   4.242 -0.9910 -0.1359  0.4038
43592SOL     OW39743   6.345  10.693   9.019  0.4859  0.4241 -0.3564
43592SOL    HW139744   6.327  10.776   8.975  1.5904  0.6479 -0.4066
43592SOL    HW239745   6.437  10.697   9.042  0.9484 -1.3724 -1.6216
43593SOL     OW39746   7.071   2.216   5.104  0.2051 -0.0222 -0.0006
43593SOL    HW139747   7.127   2.144   5.133  0.8794 -0.6234 -2.5425
43593SOL    HW239748   6.991   2.207   5.156  0.9386 -1.5651  0.9164
43594SOL     OW39749   2.689   7.120   7.927 -0.4996  0.7677  0.2752
43594SOL    HW139750   2.637   7.163   7.859 -0.8685  1.9925  1.2804
43594SOL    HW239751   2.774   7.105   7.887  0.0676  3.5813  0.1866
43595SOL     OW39752   3.708   3.393   5.989  0.1009 -0.0106 -0.2808
43595SOL    HW139753   3.736   3.442   5.912 -0.2291 -1.9285 -1.6908
43595SOL    HW239754   3.640   3.335   5.958 -1.7988  0.8117  1.9989
43596SOL     OW39755   1.362   3.965   3.288 -0.1427 -0.2573  0.0627
43596SOL    HW139756   1.380   3.902   3.218 -0.6723  0.1828 -0.4804
43596SOL    HW239757   1.436   4.025   3.285  0.0609 -0.4987  0.1829
43597SOL     OW39758   1.138   2.129  11.625  0.4788  0.0698 -0.0625
43597SOL    HW139759   1.216   2.145  11.679  0.2898 -0.6451  0.4480
43597SOL    HW239760   1.065   2.133  11.687  0.3906 -2.3917  0.1172
43598SOL     OW39761   6.634   1.579   1.907  0.2277  0.0350 -0.6536
43598SOL    HW139762   6.560   1.590   1.967  1.3561 -3.0328  1.5189
43598SOL    HW239763   6.704   1.631   1.946  0.1444  0.3748 -0.9511
43599SOL     OW39764  11.258   0.256   1.656  0.4440  0.3061 -0.4456
43599SOL    HW139765  11.176   0.212   1.679  0.2262  1.1486  0.4342
43599SOL    HW239766  11.309   0.257   1.736  1.0937  0.2736 -0.8505
43600SOL     OW39767   2.143  12.354   5.803 -0.5056 -0.0782 -0.3297
43600SOL    HW139768   2.236  12.334   5.806 -0.5592 -0.2399  0.2878
43600SOL    HW239769   2.112  12.341   5.892 -1.2907 -0.8376 -0.6922
43601SOL     OW39770   7.603   5.581   7.734 -0.0788 -0.2046 -0.6052
43601SOL    HW139771   7.624   5.674   7.743 -0.4675 -0.2153  0.6358
43601SOL    HW239772   7.687   5.538   7.722  0.7600 -0.2004  3.7882
43602SOL     OW39773   4.319   0.290   8.382  0.0000 -0.0429 -0.2742
43602SOL    HW139774   4.303   0.228   8.311  1.7005 -0.5428 -0.2492
43602SOL    HW239775   4.414   0.292   8.391 -0.0603  1.9942  0.2498
43603SOL     OW39776   5.557   0.701  10.382  0.4455  0.4640  0.4074
43603SOL    HW139777   5.541   0.608  10.368 -0.6343  0.6910 -0.0084
43603SOL    HW239778   5.484   0.730  10.437  0.7370  1.0647  0.4844
43604SOL     OW39779  12.166   0.730   6.288  0.3846  0.5339 -0.3484
43604SOL    HW139780  12.075   0.700   6.294  0.5264 -0.2981 -2.0514
43604SOL    HW239781  12.165   0.816   6.331 -1.0787  0.3065  0.1330
43605SOL     OW39782   2.266   8.325   3.230 -0.9547  0.9101  0.0674
43605SOL    HW139783   2.294   8.291   3.315 -2.2431  2.3055  1.1023
43605SOL    HW239784   2.286   8.254   3.169 -1.9632 -1.0187  1.8379
43606SOL     OW39785   1.132   9.576   9.445  0.0582 -0.3650 -0.4749
43606SOL    HW139786   1.122   9.668   9.466  0.7938 -0.4661  0.3765
43606SOL    HW239787   1.202   9.574   9.380 -0.0057 -0.3212 -0.5457
43607SOL     OW39788   7.470  10.822   8.569 -0.4140 -0.2169  0.3828
43607SOL    HW139789   7.465  10.739   8.522  1.0664 -0.5401  0.7509
43607SOL    HW239790   7.400  10.818   8.634 -1.4661 -0.4235 -0.7182
43608SOL     OW39791   9.753   4.475  11.129 -0.0313  0.0444  0.0605
43608SOL    HW139792   9.796   4.425  11.198 -0.2854  1.5164  1.3326
43608SOL    HW239793   9.689   4.414  11.092  1.6322 -1.4931 -0.4495
43609SOL     OW39794   6.323   4.960   8.506  0.2867  0.4264  0.0691
43609SOL    HW139795   6.349   4.923   8.590 -2.5331  0.2232  0.9538
43609SOL    HW239796   6.322   4.885   8.446 -3.1313 -0.7482  1.3123
43610SOL     OW39797   5.104   0.777   2.114  0.1918  0.1472  0.3802
43610SOL    HW139798   5.149   0.827   2.182 -0.6011  0.5172  0.6482
43610SOL    HW239799   5.011   0.787   2.135 -0.1733  1.5386 -1.6063
43611SOL     OW39800   4.919   1.782   9.734  0.1115 -0.2341 -0.7487
43611SOL    HW139801   5.005   1.822   9.717  0.3769 -0.7742 -0.6965
43611SOL    HW239802   4.862   1.818   9.666 -0.0763  1.5112  0.2539
43612SOL     OW39803   9.948   6.409   2.499  0.2957  0.3109  0.7587
43612SOL    HW139804   9.930   6.354   2.423  2.3756 -0.5185  0.8101
43612SOL    HW239805   9.909   6.494   2.477 -0.8220 -0.4559 -0.3687
43613SOL     OW39806   7.212  11.050   2.742 -0.6842 -0.5213 -0.0349
43613SOL    HW139807   7.272  10.983   2.776  0.4483 -0.4559 -1.8010
43613SOL    HW239808   7.150  11.065   2.814  0.9464 -1.1401  1.5722
43614SOL     OW39809   2.408   8.781  10.214 -0.1714  0.2685  0.1061
43614SOL    HW139810   2.480   8.828  10.172 -0.3890 -0.0693 -0.6605
43614SOL    HW239811   2.379   8.717  10.149  0.4459 -1.2940  1.2997
43615SOL     OW39812   0.126   8.256  12.441 -0.3180 -0.0623  0.2977
43615SOL    HW139813   0.101   8.239  12.350  1.2050  0.8585 -0.3308
43615SOL    HW239814   0.205   8.203  12.454  2.2812  3.3335 -0.4939
43616SOL     OW39815  12.053   1.462  10.518 -0.2723 -0.5281  0.1320
43616SOL    HW139816  12.058   1.546  10.564 -2.2689 -0.9379  1.2052
43616SOL    HW239817  12.017   1.484  10.432 -1.5004 -0.3321  0.6743
43617SOL     OW39818   0.805   2.458   6.103  0.5159  0.0666 -0.1235
43617SOL    HW139819   0.873   2.439   6.168 -0.0759 -2.7570 -0.2205
43617SOL    HW239820   0.855   2.476   6.023  1.1786  0.6179  0.3916
43618SOL     OW39821   9.806  12.045   9.601 -0.2878 -0.0295  0.3692
43618SOL    HW139822   9.762  12.053   9.516 -0.9939 -0.2201  0.7017
43618SOL    HW239823   9.837  11.955   9.604  2.9583  0.8958 -1.1662
43619SOL     OW39824   0.743   9.512   8.063 -0.1089  0.1559 -0.5732
43619SOL    HW139825   0.735   9.491   7.970  0.4918 -2.5436 -0.0929
43619SOL    HW239826   0.714   9.433   8.108  0.3198  1.1369  1.5195
43620SOL     OW39827  10.566   4.106  11.259 -0.6116 -0.1591  0.6478
43620SOL    HW139828  10.591   4.056  11.182  1.2589  1.5988  0.0223
43620SOL    HW239829  10.491   4.059  11.295 -1.4883 -1.1090 -2.1595
43621SOL     OW39830   2.186  10.511   6.118  0.1278  0.0742 -0.0656
43621SOL    HW139831   2.227  10.547   6.039  0.1185  0.8289  0.2588
43621SOL    HW239832   2.094  10.537   6.110  0.3661  1.2954  0.7959
43622SOL     OW39833   6.305   6.290  11.904 -0.0120 -0.0937  0.0724
43622SOL    HW139834   6.384   6.318  11.949  0.4626 -1.4364  0.1142
43622SOL    HW239835   6.252   6.249  11.973 -0.0872 -0.5094 -0.2288
43623SOL     OW39836   6.350  12.378   9.715  0.1352  0.8239  0.2852
43623SOL    HW139837   6.407  12.451   9.736  1.4351 -0.5794  1.9260
43623SOL    HW239838   6.317  12.348   9.800 -1.1328  0.0780 -0.4295
43624SOL     OW39839  10.984   7.369   8.509  0.3738  0.3669 -0.0340
43624SOL    HW139840  10.984   7.388   8.603  2.1337 -0.8671  0.2681
43624SOL    HW239841  10.915   7.303   8.498  0.0772  0.6066  0.3488
43625SOL     OW39842   3.850   2.219   6.373  0.2161  0.2536 -0.2251
43625SOL    HW139843   3.915   2.276   6.413  0.9114 -0.8346  0.2365
43625SOL    HW239844   3.865   2.132   6.411 -0.5665 -0.3395 -1.1699
43626SOL     OW39845  11.871   7.330   5.415 -0.3254  0.3114 -0.2817
43626SOL    HW139846  11.807   7.388   5.373 -0.6066  0.3999  0.2587
43626SOL    HW239847  11.872   7.358   5.507 -0.8168 -0.8605  0.0938
43627SOL     OW39848  11.692   7.085   7.517 -0.0196  0.1448 -0.2671
43627SOL    HW139849  11.709   7.099   7.423 -1.4904 -1.3622 -0.8184
43627SOL    HW239850  11.597   7.091   7.525  0.0553 -0.1522  1.0591
43628SOL     OW39851   7.245  11.495   2.460  0.0858  0.4152  0.4435
43628SOL    HW139852   7.172  11.471   2.402 -0.3399  0.4113  0.9763
43628SOL    HW239853   7.203  11.522   2.541  0.5816  2.3405  0.0988
43629SOL     OW39854   4.219   2.405   2.084  0.3022  0.0359  0.2704
43629SOL    HW139855   4.148   2.376   2.028 -1.6227  1.1509  1.9644
43629SOL    HW239856   4.178   2.469   2.143  2.4200 -0.2660  2.2146
43630SOL     OW39857   0.931   0.126   5.619  0.0327  0.4950 -0.1627
43630SOL    HW139858   1.008   0.167   5.579  0.5120 -0.0148  0.2207
43630SOL    HW239859   0.917   0.047   5.566 -1.0762  1.2772 -1.0984
43631SOL     OW39860   7.584   0.836   6.976 -0.0578 -0.3822 -0.0315
43631SOL    HW139861   7.523   0.883   7.033  1.8740  0.3828  1.5099
43631SOL    HW239862   7.598   0.752   7.019  0.3501 -0.3553 -0.1073
43632SOL     OW39863   6.469  12.193   4.844 -0.7104 -0.2079  0.7796
43632SOL    HW139864   6.559  12.191   4.878 -0.2808  4.4788  0.5509
43632SOL    HW239865   6.479  12.168   4.752  0.8173  2.1520  0.2275
43633SOL     OW39866  11.525   5.936   1.289  0.3753  0.4371  0.2908
43633SOL    HW139867  11.517   5.987   1.369 -0.9856  0.3506  0.2381
43633SOL    HW239868  11.565   5.853   1.317 -0.3302  0.3046  0.9322
43634SOL     OW39869   7.054   4.501   0.856 -0.6063  0.2739 -0.1917
43634SOL    HW139870   7.135   4.494   0.805 -1.4933 -1.7873 -1.4280
43634SOL    HW239871   7.015   4.584   0.827 -0.2701 -0.0432 -1.6403
43635SOL     OW39872   2.481   1.969  11.841 -0.2551 -0.1739  0.6967
43635SOL    HW139873   2.567   1.927  11.834  0.6015  1.2647  2.1143
43635SOL    HW239874   2.444   1.935  11.923 -1.0934 -0.8338  0.0648
43636SOL     OW39875  11.543   4.804   0.477 -0.4586 -0.4009  0.4296
43636SOL    HW139876  11.499   4.887   0.496 -0.4463 -0.3350  0.1876
43636SOL    HW239877  11.613   4.799   0.542 -0.2938 -0.0900  0.2817
43637SOL     OW39878  12.553   5.542   5.002 -0.2208 -0.0455  0.0578
43637SOL    HW139879  12.596   5.554   4.917 -2.3682  1.3124 -0.9158
43637SOL    HW239880  12.621   5.559   5.066  0.8181  1.6155 -1.3992
43638SOL     OW39881   4.516   1.409   0.717  0.4506 -0.2520 -0.1331
43638SOL    HW139882   4.608   1.415   0.741  0.0467 -1.1223  1.7486
43638SOL    HW239883   4.471   1.468   0.778 -0.2161  0.5583 -1.3578
43639SOL     OW39884   9.308   5.164   1.916  0.2113  0.1958  0.5614
43639SOL    HW139885   9.402   5.167   1.895  0.4889  0.7390  1.7736
43639SOL    HW239886   9.266   5.213   1.846  0.4930 -2.3411 -1.5351
43640SOL     OW39887  11.261   5.719   3.526  0.4621 -0.1463 -0.1482
43640SOL    HW139888  11.220   5.706   3.441 -0.7764  1.2647  0.2061
43640SOL    HW239889  11.269   5.814   3.536  0.4477 -0.2743  1.3611
43641SOL     OW39890   1.428   1.607   5.601 -0.6720  0.1072  0.3146
43641SOL    HW139891   1.469   1.582   5.683 -0.0816 -2.5583 -0.7244
43641SOL    HW239892   1.337   1.626   5.625 -0.4731 -0.4632  1.5826
43642SOL     OW39893   5.499  10.029   9.970  0.2801  0.3314  0.3581
43642SOL    HW139894   5.580  10.004  10.015  0.4485  0.8483  0.3484
43642SOL    HW239895   5.429   9.996  10.027  0.4847 -1.1920 -0.2318
43643SOL     OW39896   5.833   9.716  12.239 -0.1314 -0.2698 -0.0100
43643SOL    HW139897   5.879   9.727  12.155  2.5938 -0.1389  1.3930
43643SOL    HW239898   5.864   9.632  12.272 -0.8978 -0.1529  1.0606
43644SOL     OW39899   5.985  11.766   6.001  0.7240  0.4646  0.1662
43644SOL    HW139900   6.008  11.733   5.914  0.2869  1.0383 -0.1746
43644SOL    HW239901   6.027  11.705   6.061 -0.4659 -1.0336 -0.4271
43645SOL     OW39902   1.982   6.875  11.576 -0.1146  0.6557  0.0325
43645SOL    HW139903   2.011   6.910  11.660 -0.3202  0.1177  0.3382
43645SOL    HW239904   1.892   6.846  11.592 -0.5018  1.4446 -0.6432
43646SOL     OW39905   9.594   8.242  10.074 -0.4412 -0.5369  0.3033
43646SOL    HW139906   9.687   8.264  10.068 -1.0083  1.8428 -1.2324
43646SOL    HW239907   9.586   8.193  10.155  2.0331 -0.1582  0.8634
43647SOL     OW39908   7.973   8.710  12.211  0.3476 -0.7153 -0.4912
43647SOL    HW139909   7.939   8.771  12.276 -0.6857  1.4916 -2.9207
43647SOL    HW239910   7.908   8.640  12.208  0.9535 -1.4162  1.5301
43648SOL     OW39911   9.745  10.180   5.418  0.0058 -0.1201  0.0634
43648SOL    HW139912   9.765  10.107   5.358 -0.3509  1.1760 -1.7131
43648SOL    HW239913   9.665  10.218   5.383  1.1215  2.2029 -0.1160
43649SOL     OW39914   2.341   1.088   1.591  0.0264  0.1270  0.4105
43649SOL    HW139915   2.307   1.124   1.510  0.6771  0.9050  0.4659
43649SOL    HW239916   2.336   1.161   1.654 -0.9026 -0.5947  1.1991
43650SOL     OW39917   7.933  11.402   4.216 -0.4379 -0.2566  0.0010
43650SOL    HW139918   7.891  11.488   4.218 -0.9872 -0.5405  1.1901
43650SOL    HW239919   7.901  11.357   4.294  0.1042 -1.4253 -0.4264
43651SOL     OW39920   2.929  11.130   6.078  0.3470 -0.4720 -0.4787
43651SOL    HW139921   2.931  11.135   6.174  0.8892 -0.1668 -0.5031
43651SOL    HW239922   2.853  11.182   6.053  0.4786 -0.1626 -0.2353
43652SOL     OW39923  12.310   1.142  10.088 -0.1375  0.3919  0.2404
43652SOL    HW139924  12.327   1.056  10.050 -0.2994  1.7107 -3.2109
43652SOL    HW239925  12.350   1.204  10.026 -0.8318  2.8477  2.0826
43653SOL     OW39926   1.922   8.421   6.182 -0.2978  0.5306 -0.2716
43653SOL    HW139927   1.892   8.488   6.244 -0.4314  1.0211 -0.8538
43653SOL    HW239928   1.863   8.429   6.108 -2.2507 -2.2587  0.8149
43654SOL     OW39929   0.063   7.711   3.009 -0.4814 -0.4472 -0.2598
43654SOL    HW139930   0.153   7.681   2.995 -0.3431 -0.6071  0.8454
43654SOL    HW239931   0.054   7.788   2.954  0.7780  0.3600  0.6181
43655SOL     OW39932  11.019   6.245   5.261 -0.3264  0.2898 -0.3088
43655SOL    HW139933  10.975   6.226   5.178 -0.8819 -1.6225  0.3667
43655SOL    HW239934  11.027   6.160   5.304 -0.1157  1.2419  1.6546
43656SOL     OW39935   6.620   3.782   8.911  0.7918  0.0622 -0.8082
43656SOL    HW139936   6.561   3.856   8.901  1.4803  0.7227 -0.1140
43656SOL    HW239937   6.598   3.723   8.839  0.8033  1.3383 -1.8782
43657SOL     OW39938  11.674   2.912  12.142 -0.1784 -0.1299 -0.3568
43657SOL    HW139939  11.723   2.902  12.061 -0.7048  0.7228 -0.7897
43657SOL    HW239940  11.584   2.932  12.114 -0.4351 -0.1321  0.4310
43658SOL     OW39941  10.026  10.829   7.906 -0.4353  0.0639 -0.0024
43658SOL    HW139942  10.067  10.866   7.985  1.9378 -2.5772  0.1721
43658SOL    HW239943  10.099  10.793   7.856 -2.2671 -2.4237 -1.1276
43659SOL     OW39944   5.983   9.491   6.824 -0.4194  0.2572 -0.0848
43659SOL    HW139945   5.919   9.462   6.889 -0.5809  1.4104  0.2860
43659SOL    HW239946   5.937   9.484   6.741 -0.5828 -0.1609  0.0353
43660SOL     OW39947   8.612   1.357   8.900 -0.2853  0.8559  0.8133
43660SOL    HW139948   8.521   1.329   8.888 -0.4680  2.3819 -2.2897
43660SOL    HW239949   8.662   1.276   8.897 -1.4404  0.0743  1.6554
43661SOL     OW39950  10.329   2.048   1.713  0.2267 -0.4196 -0.2835
43661SOL    HW139951  10.324   1.956   1.739 -0.7547 -0.7913 -1.6910
43661SOL    HW239952  10.421   2.070   1.721  0.4014 -1.3691  0.5680
43662SOL     OW39953   0.901   4.473  12.124  0.7875 -0.2765 -0.7298
43662SOL    HW139954   0.871   4.391  12.084  0.8620  0.5810 -2.6694
43662SOL    HW239955   0.906   4.454  12.218  0.6115 -2.4193 -1.1057
43663SOL     OW39956   5.415  10.021   6.678  0.7317 -0.2754 -0.1923
43663SOL    HW139957   5.492  10.034   6.622 -0.4673  1.9583 -1.4610
43663SOL    HW239958   5.367  10.103   6.672 -1.2130 -1.2198  1.4391
43664SOL     OW39959   8.910  10.711   9.107  0.5073  0.1783  0.2719
43664SOL    HW139960   8.915  10.702   9.202  1.3854 -1.2538  0.1179
43664SOL    HW239961   8.854  10.638   9.079 -0.6919  1.2651 -0.2286
43665SOL     OW39962   6.011   9.493   5.284 -0.2586  0.2677  0.1094
43665SOL    HW139963   6.024   9.585   5.263 -1.0539  0.4893  0.5526
43665SOL    HW239964   5.980   9.454   5.203  1.7131  0.0045 -0.5849
43666SOL     OW39965   5.069   5.840   4.181 -0.4115  0.5693  0.9071
43666SOL    HW139966   5.124   5.829   4.258 -0.3580  0.8666  0.9127
43666SOL    HW239967   5.076   5.758   4.133  1.4908  1.2444 -0.0535
43667SOL     OW39968   0.315   0.973   8.695  0.8096 -0.3015 -0.0859
43667SOL    HW139969   0.245   1.038   8.694 -0.5777 -1.7004  0.4873
43667SOL    HW239970   0.395   1.023   8.705 -0.3393  1.2126  2.4455
43668SOL     OW39971   6.382  10.993   8.054 -0.4939  0.0871 -0.4620
43668SOL    HW139972   6.306  11.047   8.032 -0.3992  0.3989 -0.0246
43668SOL    HW239973   6.405  10.950   7.972 -1.1104  0.0346 -0.6118
43669SOL     OW39974   1.123   9.540   9.065  0.0600  0.0761  0.2850
43669SOL    HW139975   1.081   9.605   9.121  1.4415  1.4662 -0.2059
43669SOL    HW239976   1.132   9.585   8.980  2.0688 -0.3254  0.2543
43670SOL     OW39977  10.198   7.573   0.643 -0.0576 -0.3271  0.5594
43670SOL    HW139978  10.216   7.613   0.558  1.8918  0.1725  1.1551
43670SOL    HW239979  10.142   7.498   0.623  0.9079 -0.6165 -1.2332
43671SOL     OW39980   4.658   0.431   1.288  0.1795 -1.0099 -0.9614
43671SOL    HW139981   4.745   0.438   1.329 -0.4839  0.9710  0.2403
43671SOL    HW239982   4.664   0.487   1.211  0.4905 -2.3474 -1.9493
43672SOL     OW39983   6.289   5.032   4.761 -0.0036 -0.1665 -0.2922
43672SOL    HW139984   6.219   5.002   4.703 -0.3035 -0.8379  0.4028
43672SOL    HW239985   6.243   5.083   4.828  0.0193 -1.5163  0.7851
43673SOL     OW39986   2.210   6.532   4.204 -0.0861 -0.6683  0.2078
43673SOL    HW139987   2.115   6.517   4.200 -0.3237  0.2802  1.3812
43673SOL    HW239988   2.223   6.577   4.288  1.6052 -2.0614  0.7526
43674SOL     OW39989   7.541  11.203   8.120 -0.5952 -0.9709 -0.6228
43674SOL    HW139990   7.539  11.274   8.184 -1.0264 -0.7236 -0.9070
43674SOL    HW239991   7.594  11.135   8.161 -0.4686 -0.6217 -0.2049
43675SOL     OW39992   0.202   4.871   1.523  0.3462  0.7162 -0.2806
43675SOL    HW139993   0.235   4.782   1.505 -2.7945 -0.6508  0.0256
43675SOL    HW239994   0.251   4.899   1.600 -0.3540 -1.9102  1.2568
43676SOL     OW39995  10.157   0.710   2.929  0.1500  0.5001 -0.7579
43676SOL    HW139996  10.108   0.660   2.864 -0.3682 -1.6060  1.0995
43676SOL    HW239997  10.249   0.692   2.910 -0.0278 -1.2334 -0.1580
43677SOL     OW39998   3.209   4.266   0.258  0.4188 -0.0699 -0.3027
43677SOL    HW139999   3.183   4.228   0.174 -1.9756  2.3779 -0.8097
43677SOL    HW240000   3.303   4.249   0.264  0.5368 -0.9716 -3.1100
43678SOL     OW40001   3.966   8.711   2.747 -0.3550  0.2058 -0.2671
43678SOL    HW140002   4.059   8.708   2.770 -0.5990 -0.5338  0.6493
43678SOL    HW240003   3.928   8.775   2.807 -0.7221 -0.6713  0.4659
43679SOL     OW40004   6.066  12.213   0.537 -0.1779  0.3222  0.3871
43679SOL    HW140005   5.981  12.193   0.575  0.5444  1.2340  2.6457
43679SOL    HW240006   6.099  12.286   0.588  1.5675  0.6260 -1.0677
43680SOL     OW40007   0.605   7.347   3.536  0.1970  0.2115 -0.2530
43680SOL    HW140008   0.633   7.417   3.477  0.7047  0.5673  0.3934
43680SOL    HW240009   0.539   7.300   3.487  1.5368 -0.3228 -1.6388
43681SOL     OW40010  10.633  10.982   1.032 -0.2049 -0.6415  0.1452
43681SOL    HW140011  10.692  10.951   0.964 -1.5099 -1.6875 -0.5675
43681SOL    HW240012  10.556  10.925   1.025 -2.1141  1.7841 -0.2301
43682SOL     OW40013   1.996   6.143   1.351  0.0052 -0.4263 -0.6009
43682SOL    HW140014   2.021   6.235   1.362 -0.4847 -0.1990 -1.3471
43682SOL    HW240015   2.047   6.097   1.418  0.5265  0.3398 -0.4522
43683SOL     OW40016   4.595   5.652   7.940 -0.1729 -0.0120 -0.2138
43683SOL    HW140017   4.529   5.684   7.878 -0.9702 -0.2630  0.4742
43683SOL    HW240018   4.594   5.716   8.011  0.2845 -0.0525 -0.1717
43684SOL     OW40019   9.903   1.445   5.888  0.1295  0.0711 -0.0991
43684SOL    HW140020   9.826   1.488   5.925  0.0352 -0.2357  0.0590
43684SOL    HW240021   9.950   1.516   5.844 -0.9145  0.0322 -1.3389
43685SOL     OW40022   2.729   6.559   5.581 -0.5530  0.0031 -0.6398
43685SOL    HW140023   2.745   6.654   5.584 -0.7987  0.0500 -0.7556
43685SOL    HW240024   2.753   6.534   5.491 -1.2435  0.0971 -0.8538
43686SOL     OW40025   7.258   0.027   2.858 -0.0999 -0.1366 -0.3365
43686SOL    HW140026   7.310   0.069   2.789  0.1030 -1.8110 -1.2508
43686SOL    HW240027   7.259  -0.066   2.836 -0.9407 -0.5875  1.3501
43687SOL     OW40028   7.219   1.339   4.840 -0.3111  0.0263  0.0170
43687SOL    HW140029   7.141   1.292   4.808 -0.2637 -0.2024  0.2290
43687SOL    HW240030   7.184   1.403   4.903 -0.2348 -0.8878  1.0273
43688SOL     OW40031   2.839   1.372   3.443  0.3418  0.9501 -0.0091
43688SOL    HW140032   2.834   1.295   3.499 -0.4055  1.1162  0.1719
43688SOL    HW240033   2.913   1.356   3.385 -1.7749 -1.4892 -2.3190
43689SOL     OW40034  11.202   3.625   0.959 -0.4725  0.4768  0.1836
43689SOL    HW140035  11.180   3.631   1.052 -2.0976  0.5708 -0.1813
43689SOL    HW240036  11.205   3.717   0.930 -2.4493  0.4036 -0.3724
43690SOL     OW40037   6.121   4.987  10.756  0.2969 -0.3766  0.2473
43690SOL    HW140038   6.212   4.968  10.777  0.7263  0.7148 -0.5613
43690SOL    HW240039   6.117   4.987  10.661 -0.8733 -1.7953  0.2508
43691SOL     OW40040   0.274   4.741   3.272  0.3822  0.8203  0.3239
43691SOL    HW140041   0.317   4.687   3.205 -0.4650 -0.8116  1.0324
43691SOL    HW240042   0.341   4.753   3.339  0.2854 -0.2404  0.6254
43692SOL     OW40043   7.231   8.369   0.528 -0.0054 -0.1392 -0.6987
43692SOL    HW140044   7.141   8.347   0.504 -1.1913  1.0546  2.2115
43692SOL    HW240045   7.256   8.439   0.468 -1.6033  0.5537 -0.5963
43693SOL     OW40046  11.864   0.145   8.615 -0.3795  0.1470 -0.1901
43693SOL    HW140047  11.811   0.080   8.661 -2.2909  1.8174  0.1357
43693SOL    HW240048  11.901   0.200   8.684  0.8036 -0.2630 -0.4750
43694SOL     OW40049   7.400   5.590   8.753  0.2899  0.2160  0.1231
43694SOL    HW140050   7.356   5.674   8.767  1.3826  0.6138  1.4284
43694SOL    HW240051   7.446   5.600   8.670 -2.5763 -0.4759 -1.6892
43695SOL     OW40052   3.364   0.136   2.285  0.6790 -0.0917  0.0922
43695SOL    HW140053   3.294   0.176   2.337 -0.6128 -0.8146 -1.0110
43695SOL    HW240054   3.342   0.159   2.194  2.1578  0.0661 -0.2483
43696SOL     OW40055   1.190  12.037   6.370 -0.5967 -0.2140  0.3164
43696SOL    HW140056   1.185  12.121   6.323 -0.3088  0.3971  1.3624
43696SOL    HW240057   1.195  11.972   6.300 -0.8751  0.6268 -0.5212
43697SOL     OW40058   0.174   2.064   5.484 -0.3710  0.2608 -0.2831
43697SOL    HW140059   0.102   2.003   5.502 -0.7814  1.0159  0.7253
43697SOL    HW240060   0.130   2.144   5.456 -0.0263  1.1402  1.5310
43698SOL     OW40061   6.462   3.116   0.141  0.2546  0.1482  0.1392
43698SOL    HW140062   6.398   3.160   0.198 -1.6679 -0.9101 -1.1114
43698SOL    HW240063   6.477   3.031   0.182  1.5765  0.7023  0.8789
43699SOL     OW40064  11.175   0.059  11.806 -0.0972  0.2794 -0.0965
43699SOL    HW140065  11.167  -0.024  11.759 -1.1874  0.3519 -0.0783
43699SOL    HW240066  11.105   0.114  11.769 -0.8476  0.4072  1.4475
43700SOL     OW40067   0.370   3.831  11.116  0.0391 -0.5053  0.7376
43700SOL    HW140068   0.455   3.819  11.073 -0.5449 -0.3107 -0.5252
43700SOL    HW240069   0.374   3.774  11.193  0.9430 -1.2679  0.1525
43701SOL     OW40070   2.363  11.045   2.238  0.9025 -0.0713 -0.2830
43701SOL    HW140071   2.277  11.008   2.219 -0.4031  2.2067  0.7391
43701SOL    HW240072   2.391  11.001   2.318  0.7099 -0.8201 -0.6184
43702SOL     OW40073   2.761   2.285  10.882  0.1000  0.3550  0.4576
43702SOL    HW140074   2.815   2.226  10.935 -0.0114 -0.9979 -0.8611
43702SOL    HW240075   2.824   2.335  10.830  0.1944 -1.4066 -1.2744
43703SOL     OW40076   7.412  11.096  11.731 -0.6302 -0.8583  0.8788
43703SOL    HW140077   7.445  11.007  11.718  0.1075 -0.4171 -0.4467
43703SOL    HW240078   7.324  11.084  11.767 -0.3591 -2.1047  1.1624
43704SOL     OW40079   4.278   0.988   1.546 -0.5420  0.7441  0.4264
43704SOL    HW140080   4.258   0.899   1.574  1.8144  0.5029  1.6226
43704SOL    HW240081   4.343   0.976   1.476 -1.1327  1.5148 -0.2734
43705SOL     OW40082  10.949  12.302  10.382  0.0100 -0.0570  0.1570
43705SOL    HW140083  10.889  12.302  10.457 -0.2590  1.0550 -0.0381
43705SOL    HW240084  11.001  12.222  10.393 -0.3771 -0.1785  1.2430
43706SOL     OW40085   6.451  10.105  11.283 -1.1492  0.0547 -0.3222
43706SOL    HW140086   6.508  10.169  11.326  0.7836 -1.7612 -0.0090
43706SOL    HW240087   6.500  10.078  11.205 -2.2513 -0.5279 -0.8358
43707SOL     OW40088   6.993  11.334   6.215  0.1769 -0.4078 -0.1902
43707SOL    HW140089   7.000  11.297   6.304 -0.5109 -0.3422 -0.1042
43707SOL    HW240090   7.028  11.422   6.223  3.5636 -1.5663 -0.7833
43708SOL     OW40091  10.069   5.814  10.754  0.5291  0.3533 -0.7180
43708SOL    HW140092   9.982   5.799  10.717 -0.4029 -0.4497  1.5777
43708SOL    HW240093  10.120   5.737  10.727 -0.5037 -0.8486  0.6082
43709SOL     OW40094   4.588   9.115   0.682  0.2464  0.0277  0.1720
43709SOL    HW140095   4.603   9.130   0.775  0.2219  1.7001 -0.0695
43709SOL    HW240096   4.497   9.141   0.667 -0.8416 -3.2388  0.2316
43710SOL     OW40097   0.547   2.131  10.888 -0.2883  0.3168 -0.0353
43710SOL    HW140098   0.479   2.116  10.822 -1.4687  0.2245  1.1504
43710SOL    HW240099   0.542   2.224  10.908 -0.8985  0.0966  0.9005
43711SOL     OW40100  10.314   6.910   8.957 -0.6227  0.7370 -0.2528
43711SOL    HW140101  10.358   6.978   9.008 -1.2603  0.4943  0.6402
43711SOL    HW240102  10.385   6.860   8.917 -0.1351  2.0764 -1.1498
43712SOL     OW40103   7.311   8.238   9.769  0.2188 -0.4943 -0.3440
43712SOL    HW140104   7.232   8.261   9.817  1.6178 -0.3174  2.0016
43712SOL    HW240105   7.338   8.319   9.726 -0.5720 -0.4365 -0.7501
43713SOL     OW40106   0.156   3.716   6.816  0.2514 -0.2818 -0.3953
43713SOL    HW140107   0.169   3.650   6.884 -0.8462 -1.7053 -1.4998
43713SOL    HW240108   0.062   3.733   6.815  0.5779  1.8467  0.3101
43714SOL     OW40109   4.477   6.823   2.393  0.2848  0.3774  0.0394
43714SOL    HW140110   4.431   6.759   2.447  2.2448 -0.4625  0.8237
43714SOL    HW240111   4.507   6.774   2.317 -2.1901  1.4888 -1.7879
43715SOL     OW40112   1.841   1.414   7.929 -0.4864  0.4395  0.9249
43715SOL    HW140113   1.832   1.322   7.905  2.3190  0.3225 -0.0716
43715SOL    HW240114   1.859   1.413   8.023 -1.5066  0.0739  1.1238
43716SOL     OW40115  11.475   2.108   3.922  0.0842 -0.6980 -0.2743
43716SOL    HW140116  11.535   2.044   3.885  0.2205 -0.8867  0.2667
43716SOL    HW240117  11.446   2.069   4.005 -0.2185 -0.2856 -0.1817
43717SOL     OW40118   5.250   8.998   4.902  0.2593  0.1756 -0.1170
43717SOL    HW140119   5.186   9.053   4.949  0.9553  0.0629  0.9977
43717SOL    HW240120   5.211   8.984   4.816 -1.3177 -0.0415  0.5969
43718SOL     OW40121   9.139   6.151  11.402 -0.3040  0.7698  0.5023
43718SOL    HW140122   9.142   6.223  11.339  1.4051  0.9889  0.7943
43718SOL    HW240123   9.045   6.139  11.421 -0.6349  2.8003  0.3299
43719SOL     OW40124  12.114  12.407   6.258  0.0287  0.5321  0.1258
43719SOL    HW140125  12.143  12.375   6.173 -0.0600 -0.7060  0.5372
43719SOL    HW240126  12.192  12.446   6.297  0.1758  0.7054 -0.3421
43720SOL     OW40127   8.957  11.282   0.226  0.5043  0.5856  0.2576
43720SOL    HW140128   8.879  11.336   0.229 -0.8056 -1.2029  0.1822
43720SOL    HW240129   8.969  11.251   0.315  0.8282  0.4690  0.1759
43721SOL     OW40130   1.067   5.941   8.319 -0.0192 -0.0181  0.2847
43721SOL    HW140131   1.150   5.970   8.357 -0.0708  0.2048  0.2279
43721SOL    HW240132   1.046   5.861   8.367  0.4973 -0.3758 -0.0618
43722SOL     OW40133   3.924   7.114  12.016  0.1386  0.1164 -0.2162
43722SOL    HW140134   3.892   7.044  12.073 -1.7387  0.4845 -0.7236
43722SOL    HW240135   3.882   7.097  11.932  0.8723  1.0016 -0.7807
43723SOL     OW40136   2.600   4.309  11.619 -0.1896  0.5178  0.1039
43723SOL    HW140137   2.541   4.311  11.544  0.2411  0.3221 -0.2387
43723SOL    HW240138   2.552   4.356  11.688 -1.4866 -1.1102  0.3759
43724SOL     OW40139   4.426   4.677   3.028  0.1148 -0.9167 -0.1666
43724SOL    HW140140   4.520   4.680   3.010 -0.0830 -1.6054 -1.4318
43724SOL    HW240141   4.386   4.722   2.953 -0.6323 -1.7310 -0.2734
43725SOL     OW40142   6.855   9.981   7.384  0.5661  0.0597 -0.0006
43725SOL    HW140143   6.916  10.053   7.368  0.5065  0.6483  2.1624
43725SOL    HW240144   6.849   9.975   7.479 -1.0100 -1.4779 -0.1481
43726SOL     OW40145  10.194  12.408   5.173  0.1610  0.5542 -0.3324
43726SOL    HW140146  10.134  12.463   5.223 -1.4086  0.4465 -1.9682
43726SOL    HW240147  10.210  12.333   5.229 -3.4388 -0.7303 -0.7350
43727SOL     OW40148   4.730  12.114   6.840  0.1733  0.1784 -0.6167
43727SOL    HW140149   4.808  12.122   6.895  0.0559  0.3154 -0.4699
43727SOL    HW240150   4.745  12.176   6.769  0.8976 -0.8845 -1.4305
43728SOL     OW40151   0.997  10.738  10.789 -0.4544 -0.2481  0.5526
43728SOL    HW140152   1.019  10.692  10.870  0.4212 -2.0587 -0.6587
43728SOL    HW240153   0.902  10.739  10.787 -0.4810 -1.0338  1.1332
43729SOL     OW40154  11.021   6.668  12.432 -0.1238 -0.3630 -0.0149
43729SOL    HW140155  11.108   6.680  12.471  0.0266  0.4986 -0.5635
43729SOL    HW240156  10.967   6.737  12.472  0.1378  0.8009 -1.5502
43730SOL     OW40157   5.283   2.561  12.556 -0.1821  0.0210  0.3915
43730SOL    HW140158   5.318   2.497  12.494 -0.1914  1.1006 -0.7658
43730SOL    HW240159   5.197   2.584  12.520  0.0790  1.1306  0.4554
43731SOL     OW40160   0.707   4.540   5.554  0.4149 -0.3847  0.0157
43731SOL    HW140161   0.663   4.578   5.478  0.6030  0.2603  0.2238
43731SOL    HW240162   0.651   4.563   5.628  0.3593 -0.7987  0.1031
43732SOL     OW40163   8.170   3.987  11.349 -0.1306 -0.3598  0.2819
43732SOL    HW140164   8.080   3.974  11.380 -0.0539 -3.7014 -0.5172
43732SOL    HW240165   8.208   4.048  11.412 -2.5935  0.2292  1.3250
43733SOL     OW40166   0.799   1.764   9.932 -0.5039 -0.5169  0.1789
43733SOL    HW140167   0.736   1.736   9.997  1.3310  0.7196  2.6511
43733SOL    HW240168   0.824   1.853   9.958  1.9810 -0.8196 -0.8072
43734SOL     OW40169   2.091  11.042   9.468  0.7158 -0.2997  0.0829
43734SOL    HW140170   1.996  11.040   9.455  0.1953  1.6185  2.7323
43734SOL    HW240171   2.102  11.026   9.562  2.8025  2.0147  0.3101
43735SOL     OW40172   0.370   9.180   3.323 -0.3137  0.5823  0.0597
43735SOL    HW140173   0.346   9.159   3.233 -1.7628 -1.0201  0.7498
43735SOL    HW240174   0.431   9.111   3.348  0.0253  0.9773  0.3291
43736SOL     OW40175   2.225   5.578  11.336 -0.7339  0.9314 -0.3934
43736SOL    HW140176   2.250   5.492  11.302  0.7087  1.5764 -1.0152
43736SOL    HW240177   2.153   5.559  11.396  0.1338 -0.8159  0.1665
43737SOL     OW40178   4.094   8.724   1.762 -0.4162 -0.0494 -0.3583
43737SOL    HW140179   4.041   8.762   1.692 -1.1868 -1.8649 -0.8041
43737SOL    HW240180   4.039   8.730   1.840 -0.8416 -0.8559 -0.5801
43738SOL     OW40181   8.443   6.297   5.037  0.1369 -0.4615 -0.0487
43738SOL    HW140182   8.389   6.219   5.023  0.0910 -0.5602  0.6561
43738SOL    HW240183   8.453   6.335   4.950 -0.6099 -0.7491 -0.2682
43739SOL     OW40184   4.629   5.678   6.913 -0.5301  0.0906  0.0598
43739SOL    HW140185   4.583   5.596   6.929 -0.5867 -0.4161 -2.2567
43739SOL    HW240186   4.721   5.652   6.903 -0.7037  0.0542 -1.8858
43740SOL     OW40187   0.050   4.907   3.261  0.1221 -0.6320 -0.1759
43740SOL    HW140188   0.057   4.940   3.351  1.9578  1.3256 -0.9559
43740SOL    HW240189   0.130   4.856   3.248  0.1602 -0.4011 -0.8770
43741SOL     OW40190   6.968   7.190  12.245  0.7101 -0.4343 -0.0466
43741SOL    HW140191   6.980   7.131  12.319  1.8873  0.5840  0.6101
43741SOL    HW240192   7.042   7.251  12.251  0.0664  0.4987 -1.2687
43742SOL     OW40193   9.504  12.168  10.179  0.1427  0.2279 -0.5810
43742SOL    HW140194   9.509  12.089  10.124  2.2151  0.0849 -0.2819
43742SOL    HW240195   9.586  12.214  10.161 -0.3226  1.4989  0.4604
43743SOL     OW40196   1.186   3.584   1.717 -0.1317  0.3008  0.1525
43743SOL    HW140197   1.099   3.620   1.696 -0.5671  1.3982  3.2779
43743SOL    HW240198   1.173   3.489   1.713 -1.2980  0.4485 -0.1644
43744SOL     OW40199   6.649   9.934   0.263 -0.4580  0.5864  0.1362
43744SOL    HW140200   6.680   9.967   0.178 -1.0699 -0.5576 -0.5440
43744SOL    HW240201   6.617  10.012   0.308 -1.0941  1.0604 -1.1057
43745SOL     OW40202   0.425   3.473   7.529  0.1613  0.0266 -0.1181
43745SOL    HW140203   0.475   3.391   7.536  0.0629  0.0533  1.2752
43745SOL    HW240204   0.339   3.452   7.565  0.0045  0.6381 -0.1229
43746SOL     OW40205   5.962   4.570   0.391 -0.1393  0.5592  0.0441
43746SOL    HW140206   6.033   4.506   0.384  0.0388  0.8759 -1.2717
43746SOL    HW240207   6.006   4.655   0.391 -0.4314  0.7196  0.8461
43747SOL     OW40208   3.872   1.348   1.840  0.0671 -0.1960  0.7225
43747SOL    HW140209   3.787   1.391   1.847  0.5768  1.0514 -0.2171
43747SOL    HW240210   3.876   1.316   1.750  0.1322 -1.2733  1.1039
43748SOL     OW40211   9.435  11.591   7.397  0.0041 -0.1478 -0.4387
43748SOL    HW140212   9.450  11.552   7.311 -0.8127 -0.3056 -0.5107
43748SOL    HW240213   9.518  11.579   7.443 -0.0177 -1.3601 -0.6956
43749SOL     OW40214   2.049  12.354  10.895 -0.3239  0.0296 -0.0920
43749SOL    HW140215   2.083  12.265  10.907 -1.1430 -0.0641  1.8413
43749SOL    HW240216   1.970  12.357  10.948  0.2960  2.2625  0.8237
43750SOL     OW40217   4.810   4.447  11.447  0.2965  0.1574  0.3959
43750SOL    HW140218   4.867   4.523  11.462  0.7631  0.1942 -1.2771
43750SOL    HW240219   4.722   4.478  11.466  0.5842  0.8218  0.6783
43751SOL     OW40220  11.427   9.607   4.132 -0.8015  0.1947 -0.2493
43751SOL    HW140221  11.422   9.571   4.221 -1.0448  1.3317  0.2195
43751SOL    HW240222  11.381   9.544   4.078  0.1991 -1.0219  0.2570
43752SOL     OW40223   5.257  12.580   7.519 -0.1216  0.3584  0.1237
43752SOL    HW140224   5.172  12.616   7.493  0.4123  1.4354 -0.2083
43752SOL    HW240225   5.235  12.510   7.580 -1.2346  1.5397  1.1667
43753SOL     OW40226   3.905   5.003   3.298 -0.1275 -0.0520 -0.0258
43753SOL    HW140227   3.830   5.052   3.331 -0.4278  1.3624 -2.5020
43753SOL    HW240228   3.909   5.026   3.205  2.2765 -1.5291 -0.3748
43754SOL     OW40229  11.249   2.423   3.002  0.3363  0.2210 -0.7038
43754SOL    HW140230  11.249   2.517   3.020  0.0137  0.6321 -2.6006
43754SOL    HW240231  11.204   2.383   3.077 -1.7256  1.8409 -1.0033
43755SOL     OW40232   5.992   8.097   6.074 -0.3319 -0.4022  0.9981
43755SOL    HW140233   6.046   8.067   6.148 -0.2332 -0.0769  1.0593
43755SOL    HW240234   6.053   8.103   6.001 -0.3269 -0.2406  1.0146
43756SOL     OW40235   8.574   5.215  10.222  0.1129 -0.2468 -0.2079
43756SOL    HW140236   8.582   5.269  10.143  2.7200  1.0004  0.7708
43756SOL    HW240237   8.506   5.258  10.273 -0.0272  0.2819 -0.8201
43757SOL     OW40238   5.930   5.723   3.660  0.1410 -0.1728 -0.4540
43757SOL    HW140239   5.958   5.652   3.603  0.9020  0.1170 -0.4420
43757SOL    HW240240   5.950   5.691   3.749 -1.7357 -0.9477 -0.2556
43758SOL     OW40241  12.172   2.280   9.702  0.1189 -0.5604  0.0800
43758SOL    HW140242  12.165   2.206   9.642  2.8387 -1.0961  0.2891
43758SOL    HW240243  12.175   2.240   9.789 -0.3480 -0.0604  0.3267
43759SOL     OW40244   9.548   7.938   2.094 -0.1333  0.3816  0.0393
43759SOL    HW140245   9.455   7.952   2.076 -0.3728 -0.0741  0.8856
43759SOL    HW240246   9.593   7.991   2.028 -0.9895  1.7312  0.4863
43760SOL     OW40247   8.470   5.629   6.582 -0.9083 -0.1020  0.6647
43760SOL    HW140248   8.431   5.716   6.577  0.3938  0.5050  0.6556
43760SOL    HW240249   8.441   5.594   6.667 -1.8070  0.1479  0.4664
43761SOL     OW40250   1.914   0.458  12.282  0.6245  0.2147 -0.2152
43761SOL    HW140251   1.874   0.509  12.352  1.0333 -1.6720  1.4971
43761SOL    HW240252   1.897   0.367  12.307 -0.5700 -0.5544 -3.3886
43762SOL     OW40253   7.162  11.779  12.031 -0.4226 -0.1460  0.0165
43762SOL    HW140254   7.097  11.811  12.094 -0.7089  1.3332 -0.9714
43762SOL    HW240255   7.158  11.842  11.958  1.2454 -0.7220 -0.6274
43763SOL     OW40256   4.746   7.393   2.919 -0.2163 -0.3382 -0.2813
43763SOL    HW140257   4.666   7.393   2.865  1.3481  0.6195 -2.7747
43763SOL    HW240258   4.804   7.330   2.875  1.6045  1.4299 -0.5557
43764SOL     OW40259   1.411   8.855   3.272 -0.3592  0.2434 -0.3067
43764SOL    HW140260   1.316   8.844   3.266 -0.6662  2.7120 -1.3073
43764SOL    HW240261   1.441   8.846   3.182  0.4451 -0.8245  0.0461
43765SOL     OW40262   3.665  10.567   0.130  0.5541 -0.3687 -0.6622
43765SOL    HW140263   3.645  10.638   0.069  4.4995  0.8092 -0.8813
43765SOL    HW240264   3.699  10.612   0.208  0.4796 -1.9625  0.3393
43766SOL     OW40265   1.588   4.230   9.873  0.1043 -0.2401 -0.1497
43766SOL    HW140266   1.549   4.143   9.867  0.5539 -0.3690 -1.6111
43766SOL    HW240267   1.513   4.289   9.883 -0.2386 -0.7387  0.2901
43767SOL     OW40268   2.427   5.257   9.626  0.0758  0.3295 -0.2750
43767SOL    HW140269   2.337   5.288   9.613 -0.9938 -1.0366  2.8187
43767SOL    HW240270   2.469   5.328   9.674  0.8583  1.1557 -2.1061
43768SOL     OW40271   4.459   4.505   1.638  0.0599  0.6408 -0.0486
43768SOL    HW140272   4.455   4.411   1.620 -0.9881  0.8253 -0.8535
43768SOL    HW240273   4.541   4.517   1.685 -0.3711 -0.8632  1.1679
43769SOL     OW40274  12.035   6.317   1.331 -0.0653  0.1661 -0.2956
43769SOL    HW140275  12.055   6.358   1.247  1.9225  1.5493  0.7737
43769SOL    HW240276  11.950   6.353   1.356  1.0069  2.6758 -0.0402
43770SOL     OW40277   6.348  11.767   8.342 -0.3962  0.5498  0.4635
43770SOL    HW140278   6.328  11.674   8.331  0.4626  0.6646 -3.0430
43770SOL    HW240279   6.437  11.776   8.309 -0.6834  2.7266  0.1882
43771SOL     OW40280  11.736   9.024   0.747 -0.1892 -0.0999 -0.1923
43771SOL    HW140281  11.814   9.003   0.696  1.2188  2.4015  0.7598
43771SOL    HW240282  11.716   9.114   0.724 -2.3398 -0.4104  0.2393
43772SOL     OW40283   5.981  11.235   2.159  0.1406  0.3331 -0.2989
43772SOL    HW140284   5.920  11.292   2.205  0.3841 -0.3367  0.9000
43772SOL    HW240285   6.058  11.232   2.216 -0.1348 -1.7190  0.0374
43773SOL     OW40286   8.350  11.227   1.645  0.0519 -0.3093 -0.1756
43773SOL    HW140287   8.439  11.208   1.675  0.1004  0.0902 -0.0621
43773SOL    HW240288   8.362  11.276   1.564 -0.0519  0.4968  0.2933
43774SOL     OW40289   6.739   1.008   6.503  0.0733 -0.1507  0.2886
43774SOL    HW140290   6.709   1.099   6.503 -0.9440 -0.4766  0.2921
43774SOL    HW240291   6.829   1.013   6.534 -0.2830  0.7602  1.2614
43775SOL     OW40292  12.441   9.980   9.155 -0.5555 -0.5760  0.5747
43775SOL    HW140293  12.399   9.973   9.069 -1.5567 -1.7830  1.1207
43775SOL    HW240294  12.532   9.953   9.139 -0.1560  1.2380 -0.4636
43776SOL     OW40295   6.914  11.390  10.692  0.0381  0.3382  0.1107
43776SOL    HW140296   6.920  11.453  10.620 -0.1537  0.0664 -0.1459
43776SOL    HW240297   6.821  11.367  10.696  0.2721 -0.8109 -0.5609
43777SOL     OW40298   1.592  10.397  11.240 -0.6357 -0.0121 -0.3309
43777SOL    HW140299   1.687  10.392  11.228 -0.5630 -0.6728  0.4463
43777SOL    HW240300   1.582  10.433  11.328 -1.0860 -1.3132  0.1688
43778SOL     OW40301   1.687   3.127  10.585  0.3847 -0.9750 -0.0066
43778SOL    HW140302   1.617   3.118  10.521 -0.3578  2.0472  0.2154
43778SOL    HW240303   1.765   3.145  10.534 -0.6380  4.0051 -0.3384
43779SOL     OW40304   9.171   0.315   2.502  0.3008  0.0186  0.1638
43779SOL    HW140305   9.163   0.386   2.438 -0.1141  0.0309  0.2238
43779SOL    HW240306   9.227   0.251   2.459  0.2711  0.1611 -0.0952
43780SOL     OW40307   0.049   4.697   2.931 -0.1010  0.4679 -0.1041
43780SOL    HW140308   0.061   4.629   2.866 -2.1666  0.2782 -0.3570
43780SOL    HW240309   0.049   4.650   3.015  1.2990  0.5607 -0.0184
43781SOL     OW40310   0.105   4.098  12.323 -0.0187  0.0207  0.3544
43781SOL    HW140311   0.096   4.107  12.229  0.3959 -1.2143  0.1737
43781SOL    HW240312   0.131   4.185  12.354 -0.1590  0.4278 -0.6597
43782SOL     OW40313   5.382  11.403   2.754 -0.7488 -0.0343  0.2703
43782SOL    HW140314   5.403  11.340   2.685  0.6734  0.1765  0.4859
43782SOL    HW240315   5.349  11.349   2.826  0.0071 -0.4880  0.2834
43783SOL     OW40316   1.438   1.062   2.317 -0.3901  0.0209 -0.0757
43783SOL    HW140317   1.416   1.153   2.295  1.4475  0.8224  1.1781
43783SOL    HW240318   1.354   1.022   2.339 -1.8447  0.2481 -4.2668
43784SOL     OW40319   3.349  10.441   4.479 -0.2772  0.3856  0.3901
43784SOL    HW140320   3.435  10.458   4.440  0.1427  1.1457  1.6091
43784SOL    HW240321   3.320  10.526   4.512 -0.7886 -0.1706  1.4110
43785SOL     OW40322  12.306   7.995   7.679 -0.1110 -0.0300 -0.1212
43785SOL    HW140323  12.229   7.965   7.728 -1.0620  0.9805 -0.9502
43785SOL    HW240324  12.329   7.921   7.623 -1.5829  0.2428 -1.1382
43786SOL     OW40325   3.094  11.978   2.493 -0.2941  0.1838 -0.3049
43786SOL    HW140326   3.177  12.018   2.468  1.8430 -3.0237  0.9295
43786SOL    HW240327   3.076  12.013   2.580 -0.8329  1.6219 -0.9628
43787SOL     OW40328  12.211  10.320   3.930  0.3114 -0.3477  0.1909
43787SOL    HW140329  12.200  10.411   3.902  1.7377  0.1802  1.2390
43787SOL    HW240330  12.277  10.285   3.870  0.7029 -0.3057  0.5962
43788SOL     OW40331   3.007   8.330   4.400  0.4785 -0.1834  0.2946
43788SOL    HW140332   3.020   8.397   4.467  2.7733 -1.6522  1.4242
43788SOL    HW240333   3.071   8.351   4.332  0.8171 -0.8850  0.3902
43789SOL     OW40334   4.173   5.441   1.419  0.2266  0.2862  0.5292
43789SOL    HW140335   4.146   5.531   1.436  0.5307  0.3427  0.7254
43789SOL    HW240336   4.126   5.416   1.340 -0.9684  0.1198  1.2790
43790SOL     OW40337   1.856   2.707  12.284  0.2605  0.0390  0.2291
43790SOL    HW140338   1.876   2.642  12.352  0.7484 -0.1405 -0.0867
43790SOL    HW240339   1.760   2.710  12.282  0.2293 -0.9213  0.0039
43791SOL     OW40340  11.111   7.708   8.979  0.8912  0.6989 -0.6229
43791SOL    HW140341  11.152   7.639   9.031  1.4080  1.6316  0.2531
43791SOL    HW240342  11.053   7.754   9.040 -0.7553  0.0079 -1.6146
43792SOL     OW40343  12.233   3.412   2.112  0.2473  0.3885  0.1344
43792SOL    HW140344  12.301   3.440   2.173  1.0870 -0.7624 -0.2364
43792SOL    HW240345  12.281   3.378   2.037 -0.6878 -1.7696  0.4471
43793SOL     OW40346   9.649  12.413   0.288 -0.3507  0.0760 -0.0021
43793SOL    HW140347   9.663  12.390   0.380  1.8581  0.3521 -0.2279
43793SOL    HW240348   9.597  12.494   0.291 -1.5491 -0.6923  0.9319
43794SOL     OW40349   9.344  11.814   1.417 -0.1136  0.0082  0.3607
43794SOL    HW140350   9.414  11.762   1.457  0.5817  0.1363 -0.6460
43794SOL    HW240351   9.269  11.755   1.414  0.4452 -0.7104 -0.0630
43795SOL     OW40352   7.880   8.584   1.929 -0.1574 -0.0904 -0.0004
43795SOL    HW140353   7.888   8.678   1.948  2.0268 -0.2686  0.2522
43795SOL    HW240354   7.790   8.562   1.954 -0.7601  1.9419 -0.1706
43796SOL     OW40355   1.425   5.357   5.645 -0.4199  0.0412 -0.1293
43796SOL    HW140356   1.402   5.348   5.737  0.0228  0.6057  0.0441
43796SOL    HW240357   1.521   5.360   5.644 -0.3605 -1.1476 -0.7269
43797SOL     OW40358   0.528   8.877  12.377  0.6965  0.9351 -0.2143
43797SOL    HW140359   0.602   8.839  12.331 -1.0063 -2.6949 -0.2622
43797SOL    HW240360   0.562   8.896  12.465  1.1786 -3.3394  0.7150
43798SOL     OW40361   9.335   9.326  10.564  0.2104 -0.0229  0.4472
43798SOL    HW140362   9.424   9.334  10.530  0.1091  1.5671  0.4455
43798SOL    HW240363   9.293   9.408  10.538 -1.1436 -0.5948  0.7680
43799SOL     OW40364   6.348   1.210   2.579 -0.4078 -0.5301  0.2507
43799SOL    HW140365   6.332   1.119   2.554 -1.2244  0.0016 -1.3414
43799SOL    HW240366   6.264   1.240   2.615  0.3392 -0.8559  2.3717
43800SOL     OW40367   8.233   6.392   8.661 -0.7135  0.2446 -0.3953
43800SOL    HW140368   8.162   6.455   8.676 -0.2340  0.4739  0.9857
43800SOL    HW240369   8.287   6.397   8.740 -0.0756 -1.1458 -0.7258
43801SOL     OW40370   1.730   4.022   2.345 -0.2111 -0.2501  0.1065
43801SOL    HW140371   1.722   3.945   2.289 -0.1567  0.5601 -1.0571
43801SOL    HW240372   1.822   4.022   2.372 -0.3608 -0.9389  0.6678
43802SOL     OW40373   4.551   4.864   9.963  0.4604  0.2510 -0.3899
43802SOL    HW140374   4.646   4.855   9.970  0.8110  2.7347 -0.7981
43802SOL    HW240375   4.517   4.836  10.048  1.7267  0.8862  0.3496
43803SOL     OW40376   1.360  10.868   1.675  0.2488  1.1242  0.0700
43803SOL    HW140377   1.455  10.870   1.663  0.2126  1.7797 -0.1355
43803SOL    HW240378   1.325  10.860   1.586  0.1103  0.8279  0.1495
43804SOL     OW40379   6.122   2.229   6.650 -0.0657 -0.0754 -0.7032
43804SOL    HW140380   6.125   2.139   6.617  1.7947 -0.2439 -0.1573
43804SOL    HW240381   6.081   2.222   6.736  0.4977 -0.4672 -0.4659
43805SOL     OW40382   8.894   4.284   2.450  0.2618  0.2897 -0.0497
43805SOL    HW140383   8.859   4.372   2.465  2.0687  0.9221  0.8120
43805SOL    HW240384   8.850   4.229   2.515 -2.0813  0.1674 -1.6447
43806SOL     OW40385   7.439   0.277  11.523 -0.5462  0.4192 -0.0687
43806SOL    HW140386   7.407   0.344  11.463  0.1333  0.3851 -0.4765
43806SOL    HW240387   7.438   0.319  11.609  2.1808  1.8472 -0.6091
43807SOL     OW40388   5.456   6.611   7.799  0.6343  0.0594 -0.0189
43807SOL    HW140389   5.473   6.530   7.752 -0.9104 -1.8034  2.3672
43807SOL    HW240390   5.405   6.584   7.876 -0.7032  3.3990  0.4496
43808SOL     OW40391   9.472   2.821   7.381 -0.0007 -0.2073  0.1267
43808SOL    HW140392   9.563   2.839   7.357 -0.1670  0.6494  0.0928
43808SOL    HW240393   9.460   2.728   7.364  0.8087 -0.2778 -0.0745
43809SOL     OW40394  11.657   0.274   2.776  0.0882  0.0381  0.2743
43809SOL    HW140395  11.706   0.196   2.802  1.2759  0.4819 -0.5284
43809SOL    HW240396  11.565   0.249   2.783  0.3723 -2.3718 -2.6224
43810SOL     OW40397   0.674   4.586   3.650 -0.3629 -0.1515 -0.4585
43810SOL    HW140398   0.598   4.537   3.618 -0.2591 -0.3973 -0.3336
43810SOL    HW240399   0.701   4.639   3.575 -1.4759  0.9611 -0.0993
43811SOL     OW40400  12.087   5.756   1.463 -0.6128 -0.2765 -0.0954
43811SOL    HW140401  12.050   5.759   1.551  2.0230 -0.0139  1.0894
43811SOL    HW240402  12.119   5.667   1.454 -1.0512 -0.3582 -0.8812
43812SOL     OW40403   6.805   4.987   0.233  0.0168 -0.3727  0.5265
43812SOL    HW140404   6.829   5.074   0.202 -0.8163 -0.2886  0.0804
43812SOL    HW240405   6.888   4.946   0.259  0.4585  0.3925  0.3344
43813SOL     OW40406  10.343  10.268   5.297  0.3002  0.0549 -0.2357
43813SOL    HW140407  10.262  10.259   5.248  1.7711 -0.4806 -2.6986
43813SOL    HW240408  10.385  10.346   5.260  0.8761  0.4189  1.1176
43814SOL     OW40409   9.180  12.245   6.504  0.3093  0.6627  0.2629
43814SOL    HW140410   9.211  12.208   6.587  1.1021  1.4394  0.3301
43814SOL    HW240411   9.085  12.249   6.513  0.3545  0.2611  0.9319
43815SOL     OW40412   1.509   1.183   1.685  0.0701  0.1106 -0.2536
43815SOL    HW140413   1.440   1.148   1.628  0.0153  1.1845 -0.8522
43815SOL    HW240414   1.569   1.229   1.627 -0.7447  2.4622  0.6468
43816SOL     OW40415   5.762   5.307   1.448 -0.0104 -0.2105 -0.1882
43816SOL    HW140416   5.675   5.269   1.437  0.6734 -2.0638  0.4345
43816SOL    HW240417   5.752   5.368   1.521 -0.6538 -0.8576  0.2751
43817SOL     OW40418   1.122   7.402   3.833  0.1059 -0.2763  0.6322
43817SOL    HW140419   1.145   7.452   3.912 -1.0011  0.0811  0.7437
43817SOL    HW240420   1.036   7.436   3.808 -0.0310 -1.1488 -0.1118
43818SOL     OW40421   2.919   8.404   9.451  0.6112 -0.2292  0.3555
43818SOL    HW140422   2.902   8.494   9.480 -1.4506 -0.2164 -0.7569
43818SOL    HW240423   2.907   8.351   9.530 -0.4285  0.2672  0.5496
43819SOL     OW40424   7.547   0.235   9.473 -0.7523  0.4466  0.3011
43819SOL    HW140425   7.637   0.209   9.491 -0.6680  0.4386 -0.1234
43819SOL    HW240426   7.555   0.315   9.420 -0.9364 -0.8461 -1.7951
43820SOL     OW40427   9.316   6.831   5.496  0.0164  0.2571 -0.2143
43820SOL    HW140428   9.318   6.807   5.589 -1.2888  0.0679 -0.2082
43820SOL    HW240429   9.400   6.873   5.480 -0.0075  0.9046  1.2269
43821SOL     OW40430   7.756  11.817   0.273  0.2476 -0.0417  0.0881
43821SOL    HW140431   7.665  11.791   0.282  0.3477  0.1724  2.2835
43821SOL    HW240432   7.763  11.897   0.326  2.0453 -1.0250  1.4750
43822SOL     OW40433   5.580  11.132   9.497 -0.0389 -0.2558 -0.2101
43822SOL    HW140434   5.670  11.164   9.485 -0.4397  1.0167  0.0733
43822SOL    HW240435   5.525  11.203   9.463 -0.9372 -1.5320 -1.5613
43823SOL     OW40436   8.998   0.444   0.190  0.4544  0.5996 -0.4305
43823SOL    HW140437   8.904   0.442   0.207 -0.1110 -0.3435 -3.0971
43823SOL    HW240438   9.038   0.412   0.271 -1.5502  0.3750  0.5342
43824SOL     OW40439  11.447   5.049   0.456 -0.4417  0.0771  0.1216
43824SOL    HW140440  11.520   5.103   0.426 -0.0426 -0.0962  0.7688
43824SOL    HW240441  11.369   5.095   0.424 -0.0613  0.3068 -0.5042
43825SOL     OW40442  11.474   6.523   3.283  0.2034 -0.0434 -0.5555
43825SOL    HW140443  11.457   6.590   3.216 -0.1830  0.0056 -0.4106
43825SOL    HW240444  11.513   6.571   3.356  0.8595 -0.1347 -0.8337
43826SOL     OW40445   8.574  11.647   8.078  0.3223 -0.1014 -0.6277
43826SOL    HW140446   8.545  11.665   7.989 -1.8889 -0.6082 -0.0535
43826SOL    HW240447   8.619  11.563   8.071  0.4961  0.0375 -1.3172
43827SOL     OW40448  12.330   5.138   5.292  0.3578 -0.0189 -0.4349
43827SOL    HW140449  12.320   5.068   5.356 -0.0931  0.2821 -0.1703
43827SOL    HW240450  12.261   5.123   5.228 -0.7385  1.0432  0.4411
43828SOL     OW40451   0.954  12.428   5.701 -0.1756 -0.9888 -0.0072
43828SOL    HW140452   1.026  12.364   5.701 -1.0395 -1.9858 -0.2927
43828SOL    HW240453   0.946  12.455   5.610  1.2285  0.7803  0.3339
43829SOL     OW40454   3.908  12.506   1.989  0.3011 -0.1257 -0.7383
43829SOL    HW140455   3.906  12.594   2.025 -2.3976  0.2531 -1.6080
43829SOL    HW240456   3.930  12.519   1.896 -1.5310 -0.1591 -1.2131
43830SOL     OW40457   8.043   5.935   2.967 -0.2467 -0.2673 -0.2123
43830SOL    HW140458   7.980   5.951   3.038 -0.3282  1.0117 -0.5391
43830SOL    HW240459   8.094   5.860   2.997  0.8324  1.2254  2.0314
43831SOL     OW40460   1.350  11.945   3.816 -0.4547 -0.0917 -0.4550
43831SOL    HW140461   1.388  11.951   3.903  1.2397 -2.7942 -0.9138
43831SOL    HW240462   1.276  11.884   3.826  0.8610 -1.8835 -1.1611
43832SOL     OW40463   3.526   8.942   0.116  0.2513  0.0577  0.2397
43832SOL    HW140464   3.557   9.032   0.128 -1.3573  0.7428 -0.4182
43832SOL    HW240465   3.436   8.943   0.150  0.8309 -1.8235  2.0352
43833SOL     OW40466   6.065   4.629   9.264 -0.7314 -0.0033 -0.7261
43833SOL    HW140467   6.132   4.564   9.283 -1.2541 -0.8602 -1.7027
43833SOL    HW240468   5.983   4.581   9.266 -1.1575  0.6802 -1.1623
43834SOL     OW40469  11.413   6.127   5.047 -0.0908  0.4022 -0.6009
43834SOL    HW140470  11.439   6.202   5.100 -0.3820  0.8394 -1.0657
43834SOL    HW240471  11.484   6.064   5.059 -0.3610  0.3056  0.6604
43835SOL     OW40472   8.578   0.713   2.551 -0.4866  0.2051 -0.1474
43835SOL    HW140473   8.502   0.761   2.583 -0.4679 -0.3791  0.8089
43835SOL    HW240474   8.648   0.736   2.612 -0.0994  0.1008 -0.5450
43836SOL     OW40475   2.642   7.479   3.738 -0.2177 -0.2093 -0.3228
43836SOL    HW140476   2.663   7.426   3.661 -0.2636 -0.9040  0.1339
43836SOL    HW240477   2.574   7.539   3.709  0.0504 -0.1926 -0.9299
43837SOL     OW40478  10.479  11.400   9.624 -0.6437  0.2161  0.6239
43837SOL    HW140479  10.423  11.327   9.598 -0.4947 -1.0565  3.4823
43837SOL    HW240480  10.464  11.409   9.718  1.5255  1.9907  0.8806
43838SOL     OW40481  10.097   6.455   3.805  0.3389  0.0131 -0.1247
43838SOL    HW140482  10.158   6.528   3.805 -0.6877  0.9258 -1.8896
43838SOL    HW240483  10.025   6.483   3.748 -0.0654 -2.3759 -0.9168
43839SOL     OW40484  11.123   0.002   0.655  0.4337 -0.0214  0.1014
43839SOL    HW140485  11.156  -0.077   0.613  2.0236  0.4301  0.4218
43839SOL    HW240486  11.196   0.064   0.649 -0.6735  1.3347  0.1049
43840SOL     OW40487   4.146   2.799   7.436  0.1119 -0.2192 -0.4662
43840SOL    HW140488   4.203   2.731   7.473  0.8783  1.0141  0.7083
43840SOL    HW240489   4.085   2.751   7.380  0.5148 -1.8928  0.4542
43841SOL     OW40490   0.810  10.895  12.508 -0.2778 -0.5454 -0.4441
43841SOL    HW140491   0.820  10.975  12.559  0.3142 -0.1727 -1.1325
43841SOL    HW240492   0.743  10.845  12.555 -0.5733  0.2979  0.0526
43842SOL     OW40493   6.906   8.876  11.095 -0.2932  0.0400 -0.6562
43842SOL    HW140494   6.953   8.797  11.070 -0.7555  0.2554 -2.3684
43842SOL    HW240495   6.906   8.930  11.015 -0.7724  1.3644  0.1984
43843SOL     OW40496   4.986  12.249   2.731  0.6406  0.0849 -0.3024
43843SOL    HW140497   4.970  12.343   2.727 -0.6889  0.0244  1.9828
43843SOL    HW240498   4.898  12.210   2.726  1.1966 -1.1049 -1.7041
43844SOL     OW40499   1.016  11.976   8.003  0.0208  0.0546 -0.2227
43844SOL    HW140500   1.039  11.968   8.095  1.7719  0.5675 -0.5708
43844SOL    HW240501   0.946  11.912   7.990 -0.8293  0.5429  1.6225
43845SOL     OW40502   5.618   9.857   4.227 -0.4774 -0.4124  0.1098
43845SOL    HW140503   5.568   9.937   4.211  0.2426  0.2389  0.9842
43845SOL    HW240504   5.595   9.832   4.316 -0.4740 -1.0244 -0.0559
43846SOL     OW40505   1.747  12.278   8.785  0.3436 -0.2602  0.1831
43846SOL    HW140506   1.799  12.279   8.705 -0.2463  0.5902 -0.1976
43846SOL    HW240507   1.688  12.204   8.773 -1.1019  1.0343 -1.0776
43847SOL     OW40508   7.311   9.481  11.770 -0.0113  0.4767 -0.0370
43847SOL    HW140509   7.244   9.453  11.707 -0.9987 -0.1268  1.2424
43847SOL    HW240510   7.264   9.536  11.833  1.0588  1.4547 -0.0677
43848SOL     OW40511   5.830  11.690   3.336 -0.2399 -0.2499 -0.3093
43848SOL    HW140512   5.921  11.681   3.364 -0.1465 -0.7359 -0.7677
43848SOL    HW240513   5.827  11.654   3.248 -1.2613 -2.0705  0.3942
43849SOL     OW40514   9.285   7.305   2.639 -0.0669  0.3885  0.8734
43849SOL    HW140515   9.252   7.358   2.567 -0.1588  0.8193  1.2342
43849SOL    HW240516   9.263   7.215   2.614  0.6329  0.4576 -0.0256
43850SOL     OW40517   9.080   9.433   1.850 -0.2524  0.3502  0.0738
43850SOL    HW140518   9.014   9.405   1.786 -0.0670 -2.2763  0.9434
43850SOL    HW240519   9.162   9.433   1.800 -0.1920 -1.1592  0.1280
43851SOL     OW40520   1.612   5.094  10.937 -0.0133 -0.1397 -0.2525
43851SOL    HW140521   1.674   5.080  11.009  0.3080 -1.0583 -0.6928
43851SOL    HW240522   1.656   5.156  10.879  0.0681 -0.0161 -0.0585
43852SOL     OW40523   5.235   7.105   2.303 -0.4701 -0.4740  0.6375
43852SOL    HW140524   5.310   7.046   2.311  0.2348  0.5970  2.6362
43852SOL    HW240525   5.264   7.173   2.243 -0.4494 -0.9422  0.1143
43853SOL     OW40526   7.379   6.293  10.820 -0.2895  0.1592  0.6332
43853SOL    HW140527   7.399   6.320  10.910  2.1745  1.3227 -0.1922
43853SOL    HW240528   7.387   6.372  10.768  0.2425 -0.8536 -0.8959
43854SOL     OW40529   8.539   0.958   7.477  0.2370 -0.2768  0.0143
43854SOL    HW140530   8.580   1.015   7.412  0.2256  1.1208  1.1821
43854SOL    HW240531   8.495   1.018   7.537 -0.7595 -1.5864  0.6482
43855SOL     OW40532   3.523  10.333  12.538  0.0838 -0.3005 -0.9634
43855SOL    HW140533   3.449  10.275  12.519 -0.6131 -0.5962  2.0971
43855SOL    HW240534   3.562  10.297  12.618  0.8703  2.2761 -0.0748
43856SOL     OW40535   3.843   0.679   5.723  0.5056  0.2262 -0.2725
43856SOL    HW140536   3.934   0.670   5.749  0.5771 -0.9470 -0.8815
43856SOL    HW240537   3.846   0.715   5.634  0.3490  0.8246 -0.0420
43857SOL     OW40538   2.568   5.344   8.262  0.2286  0.3013  0.3335
43857SOL    HW140539   2.647   5.338   8.208 -0.0313 -1.3108  0.0866
43857SOL    HW240540   2.520   5.263   8.244 -0.6581  0.4697  1.7646
43858SOL     OW40541  10.576   4.578   0.704  0.0266 -0.2220 -0.1273
43858SOL    HW140542  10.583   4.498   0.755 -0.5983  1.4261  2.8073
43858SOL    HW240543  10.644   4.635   0.740 -0.0008  0.8349 -1.6460
43859SOL     OW40544   6.828   2.155  11.642 -0.1470  0.0775  0.4131
43859SOL    HW140545   6.744   2.112  11.654 -0.7413  1.5385  1.9446
43859SOL    HW240546   6.891   2.101  11.690 -0.3018 -0.7176 -0.2711
43860SOL     OW40547   1.883   6.305   9.623  0.2895  0.2600 -0.8433
43860SOL    HW140548   1.957   6.291   9.682 -1.0216 -1.1887  0.5637
43860SOL    HW240549   1.810   6.329   9.680 -0.3686  1.6549 -2.1934
43861SOL     OW40550  11.926  12.313   5.392 -0.5390  0.5317 -0.1830
43861SOL    HW140551  11.892  12.379   5.454 -0.7860 -0.5178  0.8390
43861SOL    HW240552  12.021  12.314   5.406 -0.5742  0.4482  0.0767
43862SOL     OW40553   0.044   7.672  10.634 -0.0984 -0.8758 -0.4182
43862SOL    HW140554   0.075   7.744  10.579 -0.1572  0.6368  1.4183
43862SOL    HW240555   0.119   7.651  10.690 -0.1109 -2.2137 -0.8837
43863SOL     OW40556  10.227   4.413   6.273  0.9265  0.1446  0.0601
43863SOL    HW140557  10.315   4.381   6.254  0.6284 -0.3403 -0.5953
43863SOL    HW240558  10.176   4.387   6.196 -0.0423 -0.6191  0.9380
43864SOL     OW40559   7.965   0.854  11.768 -0.2199  0.1300 -0.4173
43864SOL    HW140560   7.961   0.905  11.849  1.8936  1.9016 -1.3212
43864SOL    HW240561   8.048   0.807  11.773 -0.6922 -0.8092 -0.9937
43865SOL     OW40562   1.716  11.810   7.350 -0.4297  0.2314 -1.0922
43865SOL    HW140563   1.629  11.832   7.383 -0.3846 -0.4747 -0.4713
43865SOL    HW240564   1.704  11.728   7.303  0.2770 -1.1409  0.9909
43866SOL     OW40565   4.440   5.366  11.696 -0.7796 -1.1278  0.0422
43866SOL    HW140566   4.501   5.332  11.630 -1.5460 -0.8284 -0.8315
43866SOL    HW240567   4.365   5.307  11.693 -1.0136 -0.8530  0.3377
43867SOL     OW40568  10.598   0.125   3.372 -0.2505  0.4432 -0.6218
43867SOL    HW140569  10.692   0.144   3.362 -0.1224 -0.4038 -1.0693
43867SOL    HW240570  10.593   0.071   3.451 -0.6209  2.2723  0.6756
43868SOL     OW40571   8.655   1.088   4.143  0.4607  0.3154  0.2857
43868SOL    HW140572   8.709   1.029   4.091 -1.9698  0.5357 -2.7332
43868SOL    HW240573   8.716   1.155   4.175  2.2587 -0.4519 -1.3549
43869SOL     OW40574   4.355   3.304  10.563  0.2350 -0.0113 -0.4178
43869SOL    HW140575   4.343   3.390  10.524 -3.4557 -0.2536 -0.1839
43869SOL    HW240576   4.422   3.317  10.629 -0.2000  2.7025 -0.3837
43870SOL     OW40577   4.177  11.145   5.311 -0.2382  0.3263 -0.3137
43870SOL    HW140578   4.180  11.183   5.399  0.1763  1.3663 -0.7499
43870SOL    HW240579   4.164  11.221   5.254  3.9959  0.3440 -1.5327
43871SOL     OW40580   4.949   2.342   4.096  0.4172 -0.1661 -0.0536
43871SOL    HW140581   4.987   2.349   4.184  0.1271 -1.0909  0.1633
43871SOL    HW240582   4.886   2.414   4.092  0.6823  0.0993  0.3664
43872SOL     OW40583   3.598  10.979   1.141 -0.0640  0.1557 -0.1963
43872SOL    HW140584   3.673  10.977   1.081 -0.2173 -1.1122 -0.3928
43872SOL    HW240585   3.636  10.965   1.228 -0.0951 -1.0632 -0.3576
43873SOL     OW40586  10.129   9.794   6.589  0.0676  0.1772 -0.4466
43873SOL    HW140587  10.074   9.723   6.556  0.1441  0.5280 -1.3610
43873SOL    HW240588  10.070   9.849   6.640  0.2509 -1.1779  1.3261
43874SOL     OW40589   3.197  10.753   1.771 -0.0534 -0.7810 -0.2007
43874SOL    HW140590   3.129  10.691   1.799  0.5062 -0.3531  2.4303
43874SOL    HW240591   3.175  10.834   1.817  0.2142  0.5176 -2.2252
43875SOL     OW40592   0.541   0.554   1.806  0.0849 -0.6074 -0.0725
43875SOL    HW140593   0.577   0.605   1.879  0.7161 -1.3274  0.1350
43875SOL    HW240594   0.577   0.466   1.819  0.5948 -0.6378 -1.5153
43876SOL     OW40595   5.717   0.214   5.555  0.4175  0.0931  0.4326
43876SOL    HW140596   5.802   0.213   5.511 -0.1643 -0.1106 -0.7282
43876SOL    HW240597   5.654   0.237   5.486 -0.5848 -0.6743  1.0570
43877SOL     OW40598   8.885   2.396  12.196  0.0218 -0.1315  0.2086
43877SOL    HW140599   8.860   2.315  12.151 -1.4578  0.4669 -0.1200
43877SOL    HW240600   8.965   2.425  12.153 -0.6436 -0.2687 -1.1669
43878SOL     OW40601   0.547   4.970   9.399 -0.1852  0.0939 -0.1930
43878SOL    HW140602   0.514   5.059   9.392  1.1311  0.5936 -0.3091
43878SOL    HW240603   0.541   4.949   9.493 -0.9010  0.1296 -0.2257
43879SOL     OW40604   5.702   4.259   4.164 -0.2744 -0.0309  0.1343
43879SOL    HW140605   5.780   4.259   4.109  0.1806  2.3187  0.6576
43879SOL    HW240606   5.716   4.332   4.224 -3.3230  1.1375 -0.4111
43880SOL     OW40607   5.006   2.800   5.972  0.3713  0.4786 -0.6401
43880SOL    HW140608   5.097   2.774   5.987  0.2088 -0.0583 -0.5647
43880SOL    HW240609   4.956   2.752   6.037 -0.0205  0.4111 -0.9864
43881SOL     OW40610   7.833  12.506   3.575 -0.2294 -0.2087 -0.4339
43881SOL    HW140611   7.758  12.509   3.516 -1.1247 -2.6144  0.4593
43881SOL    HW240612   7.882  12.428   3.548 -0.3564 -1.0446  1.5923
43882SOL     OW40613  10.984   9.811   0.663 -0.3022  0.0776 -0.3091
43882SOL    HW140614  10.923   9.783   0.731  0.2621 -0.0801  0.1493
43882SOL    HW240615  10.941   9.884   0.619  0.1883  1.6104  1.6146
43883SOL     OW40616   1.142   7.015   1.227  0.2452  0.1582  0.1091
43883SOL    HW140617   1.172   6.965   1.151  0.8829  0.5306  0.1097
43883SOL    HW240618   1.046   7.015   1.219  0.3058  0.2143 -0.7083
43884SOL     OW40619  12.326   0.905   5.647 -0.1447 -0.0011  0.3263
43884SOL    HW140620  12.246   0.957   5.637 -0.4060 -0.3077  0.7904
43884SOL    HW240621  12.326   0.845   5.572 -1.1454 -1.0420  1.1322
43885SOL     OW40622   0.836   1.813   3.572 -0.5834 -0.0237 -0.0932
43885SOL    HW140623   0.873   1.901   3.564 -2.1097  0.6921  0.3691
43885SOL    HW240624   0.778   1.804   3.496  0.1933 -0.9665 -0.5910
43886SOL     OW40625   3.942   3.187   7.372 -0.3635 -0.3040 -0.2370
43886SOL    HW140626   3.970   3.113   7.318  1.1213  0.5822 -0.7529
43886SOL    HW240627   3.962   3.264   7.319 -0.3735  0.5204  0.9269
43887SOL     OW40628  12.568   3.844   8.609 -0.7196 -0.4094  0.3957
43887SOL    HW140629  12.495   3.894   8.573 -0.5075  0.0732  0.6271
43887SOL    HW240630  12.579   3.878   8.697  2.3357  2.4031 -0.8826
43888SOL     OW40631   9.899   7.100   2.359  0.3089 -0.3322  0.4285
43888SOL    HW140632   9.976   7.152   2.381  0.3762 -0.1918 -0.1405
43888SOL    HW240633   9.933   7.015   2.333  0.3245 -0.0498 -0.5076
43889SOL     OW40634   1.205   6.930  11.169 -0.3539 -0.9623  0.3341
43889SOL    HW140635   1.155   6.947  11.090 -1.0293  0.0612  0.9613
43889SOL    HW240636   1.254   7.010  11.186 -0.2011 -1.1738  0.9449
43890SOL     OW40637   9.899   0.647  11.357 -0.3790 -0.7277 -0.0061
43890SOL    HW140638   9.810   0.674  11.334  0.1044  0.3955 -0.6173
43890SOL    HW240639   9.928   0.712  11.421 -0.4763 -1.8869  1.2679
43891SOL     OW40640   0.851   5.962   5.758 -0.1489  0.3434 -0.3730
43891SOL    HW140641   0.927   5.963   5.817 -0.1232 -0.9073 -0.3537
43891SOL    HW240642   0.780   5.926   5.811 -0.2645 -0.2717 -0.9303
43892SOL     OW40643   6.402   6.843   3.932 -0.0319  0.1871 -0.9445
43892SOL    HW140644   6.327   6.901   3.921 -0.4454 -0.1038  0.1946
43892SOL    HW240645   6.397   6.781   3.859 -1.4015 -0.3640 -0.4073
43893SOL     OW40646   3.068  11.058  10.551  0.8381 -0.0772 -0.3383
43893SOL    HW140647   3.084  11.103  10.633 -2.0372  1.3187 -0.4021
43893SOL    HW240648   3.155  11.043  10.513  2.3920 -2.0717  3.5126
43894SOL     OW40649  11.795  10.516   8.940  0.2473  0.0515  0.2396
43894SOL    HW140650  11.753  10.500   8.855  1.5186  0.9214 -0.5836
43894SOL    HW240651  11.880  10.473   8.934  0.3634  0.1403  1.0742
43895SOL     OW40652  11.531   7.523   6.518 -0.3956  0.4380 -0.4520
43895SOL    HW140653  11.561   7.437   6.490  0.9266  0.7956 -0.2249
43895SOL    HW240654  11.511   7.512   6.611 -0.1994  0.3846 -0.4165
43896SOL     OW40655   4.603   1.494  11.877  0.3196 -0.0157 -0.0817
43896SOL    HW140656   4.559   1.535  11.803 -1.3969  0.9644  1.4069
43896SOL    HW240657   4.604   1.400  11.855  1.0117  0.3679 -1.8749
43897SOL     OW40658   3.804  11.721   0.991  0.2785  0.0740 -0.2874
43897SOL    HW140659   3.893  11.718   0.957  0.5782  0.9547  0.3882
43897SOL    HW240660   3.812  11.765   1.075 -0.3138 -2.9190  1.4399
43898SOL     OW40661   2.163  10.460   9.729  0.0239  1.1577  0.7253
43898SOL    HW140662   2.148  10.384   9.784 -0.3222  0.2534 -0.5902
43898SOL    HW240663   2.082  10.510   9.735 -0.8758 -0.0660 -0.6790
43899SOL     OW40664  11.708   5.821  10.386 -0.0630 -0.0411  0.0365
43899SOL    HW140665  11.769   5.808  10.313 -0.7375 -1.9534 -0.2504
43899SOL    HW240666  11.707   5.736  10.431 -1.9917  0.1425  0.4075
43900SOL     OW40667   6.889   7.230  10.603 -0.5622  0.4586  0.5161
43900SOL    HW140668   6.851   7.176  10.534 -0.5821  0.8082  0.2511
43900SOL    HW240669   6.943   7.169  10.654 -0.4619  0.2211  0.1301
43901SOL     OW40670  11.308   7.764   0.242 -0.0854  0.7102 -0.3348
43901SOL    HW140671  11.275   7.817   0.170 -2.0485  1.9892  1.3824
43901SOL    HW240672  11.229   7.725   0.280  1.1298 -2.0530 -0.3983
43902SOL     OW40673   4.096  10.621   7.151  0.4681  0.0465 -0.2666
43902SOL    HW140674   4.053  10.653   7.230 -0.4869 -1.8493  0.0366
43902SOL    HW240675   4.174  10.576   7.182  1.5065  1.5034 -0.6464
43903SOL     OW40676   7.169   4.218   0.989 -1.4609  0.5470  0.6858
43903SOL    HW140677   7.112   4.284   1.030 -0.6876  1.4153  0.3898
43903SOL    HW240678   7.164   4.237   0.896 -2.7473 -1.0569  0.3734
43904SOL     OW40679   9.890   5.649   5.466  0.1267 -0.3297  0.4159
43904SOL    HW140680   9.815   5.706   5.480  0.1991 -0.0080 -0.4190
43904SOL    HW240681   9.887   5.630   5.372  1.5221  0.2939  0.2322
43905SOL     OW40682   8.233   5.367   4.084 -0.0487 -0.0243  0.0315
43905SOL    HW140683   8.158   5.423   4.104  0.3560  0.4614  0.2220
43905SOL    HW240684   8.252   5.387   3.992  3.0890  3.9080  1.2357
43906SOL     OW40685   5.852   8.901   0.724  0.1087 -0.1702  0.2750
43906SOL    HW140686   5.872   8.841   0.796 -1.2671  1.9273  2.5494
43906SOL    HW240687   5.788   8.962   0.760  2.3068  3.5170 -1.3637
43907SOL     OW40688  10.213  10.880   4.243  1.0053  0.2720  0.2284
43907SOL    HW140689  10.242  10.966   4.213 -1.4161  0.6743 -1.2149
43907SOL    HW240690  10.240  10.820   4.173  1.1850  0.1283  0.4203
43908SOL     OW40691   6.300   7.946   1.268  0.2910  0.3587  0.2607
43908SOL    HW140692   6.329   7.937   1.177 -0.7890 -0.8306  0.0038
43908SOL    HW240693   6.220   7.894   1.273 -0.5488  1.7116  1.5082
43909SOL     OW40694   8.895   1.158   8.468 -0.1190  0.1964  0.0037
43909SOL    HW140695   8.859   1.118   8.547 -0.8670 -1.8136 -1.2659
43909SOL    HW240696   8.987   1.130   8.466  0.2555  1.3023  0.7645
43910SOL     OW40697   8.314   4.643   5.391 -0.1258  0.0370  0.8293
43910SOL    HW140698   8.387   4.609   5.443 -1.8938 -1.7099  2.3736
43910SOL    HW240699   8.339   4.628   5.300  1.2754 -0.8971  1.3409
43911SOL     OW40700  12.477   9.115   2.487  0.6196  0.8902 -0.6584
43911SOL    HW140701  12.387   9.130   2.514  0.3719 -0.1398 -0.8598
43911SOL    HW240702  12.478   9.134   2.393 -0.0511 -1.5985 -1.2448
43912SOL     OW40703  10.003   8.410  11.488  0.4743 -0.3389 -0.2235
43912SOL    HW140704  10.095   8.398  11.462 -0.3517 -2.9144 -2.5107
43912SOL    HW240705   9.993   8.505  11.494  3.8781  0.0716  2.9449
43913SOL     OW40706   4.434   6.795   3.764  0.5595  0.2092 -0.6358
43913SOL    HW140707   4.442   6.780   3.858 -1.6134  0.2924 -0.3873
43913SOL    HW240708   4.493   6.731   3.724 -0.6051 -1.8162  0.7074
43914SOL     OW40709   2.090   9.166   3.626 -0.2737 -0.3400  0.0241
43914SOL    HW140710   2.136   9.248   3.643 -0.0114 -0.4745 -0.0193
43914SOL    HW240711   2.136   9.127   3.551 -0.3340 -0.5709  0.1038
43915SOL     OW40712   9.476   0.355   6.032 -0.1157  0.1823  0.0959
43915SOL    HW140713   9.509   0.267   6.013  1.3423  0.9108 -0.9581
43915SOL    HW240714   9.520   0.379   6.114  0.4757  0.3859 -0.2705
43916SOL     OW40715   3.237   2.663   9.773  0.8156 -0.2391  0.5466
43916SOL    HW140716   3.167   2.629   9.828 -1.3293 -0.4440 -2.0790
43916SOL    HW240717   3.293   2.588   9.756 -0.4177 -1.0284 -0.2120
43917SOL     OW40718  11.907  11.550  10.770 -0.4351 -0.5164 -0.4258
43917SOL    HW140719  11.934  11.560  10.861 -0.9772 -0.5567 -0.2595
43917SOL    HW240720  11.813  11.537  10.774 -0.7150  1.0566 -1.0875
43918SOL     OW40721   3.750   9.765  10.903  0.0616  0.0981  0.3764
43918SOL    HW140722   3.699   9.818  10.842  1.0846 -1.1978 -1.7218
43918SOL    HW240723   3.730   9.802  10.990 -1.8134  1.7157 -0.6610
43919SOL     OW40724  12.230  10.605  10.560  0.3481 -0.2522  0.5235
43919SOL    HW140725  12.262  10.665  10.492 -1.3751 -1.8521 -1.8839
43919SOL    HW240726  12.291  10.532  10.558  1.5213  0.6089  2.3173
43920SOL     OW40727   8.687   9.838   1.631 -0.6392 -0.2842 -0.2457
43920SOL    HW140728   8.615   9.788   1.593 -1.6154  1.1166 -0.3324
43920SOL    HW240729   8.695   9.915   1.574 -0.1394  0.3631  0.6712
43921SOL     OW40730  12.501   9.107   3.378 -0.0639 -0.2232 -0.9432
43921SOL    HW140731  12.452   9.109   3.460 -1.4309  0.7712 -1.7463
43921SOL    HW240732  12.541   9.194   3.372  0.4347 -0.4589 -1.1005
43922SOL     OW40733  10.440   2.945   2.997  0.3647 -0.2080 -0.3544
43922SOL    HW140734  10.461   3.036   2.974 -0.6267  0.2159  0.3499
43922SOL    HW240735  10.350   2.949   3.029  0.2683 -1.4682 -0.4316
43923SOL     OW40736   3.029   6.900   9.749 -0.2718  0.0620 -0.0344
43923SOL    HW140737   2.936   6.881   9.736  0.0254 -0.6852 -1.2455
43923SOL    HW240738   3.035   6.995   9.740 -0.7286 -0.0152 -1.3398
43924SOL     OW40739  10.674  12.386   1.770 -0.1214 -0.7960 -0.6235
43924SOL    HW140740  10.655  12.435   1.849  1.5288 -1.0721 -0.0241
43924SOL    HW240741  10.674  12.294   1.798  1.0863 -0.8569 -0.7925
43925SOL     OW40742   9.280  11.387   5.978  0.0207 -0.0909 -0.0203
43925SOL    HW140743   9.355  11.421   5.929 -0.0533  0.5694  0.3138
43925SOL    HW240744   9.253  11.460   6.034 -0.2905 -0.6260  0.5366
43926SOL     OW40745  12.143   1.224   4.804  0.4793 -0.0637 -0.4086
43926SOL    HW140746  12.231   1.255   4.822  0.5053 -0.6694  0.5555
43926SOL    HW240747  12.147   1.129   4.814 -0.4491 -0.0333  0.4165
43927SOL     OW40748   7.845   6.399  10.032  0.1874 -0.5751 -0.3718
43927SOL    HW140749   7.861   6.325  10.091  0.1024 -0.1653  0.1717
43927SOL    HW240750   7.896   6.471  10.068 -1.3617  0.2269  0.3272
43928SOL     OW40751   5.250  11.368   8.127  0.4054 -0.0406  0.6643
43928SOL    HW140752   5.181  11.424   8.091 -0.0130 -1.8089 -1.5089
43928SOL    HW240753   5.207  11.318   8.196  0.1094  0.3921  0.7996
43929SOL     OW40754   3.436   2.419   5.970 -0.8330  0.6485  0.0831
43929SOL    HW140755   3.381   2.426   5.892 -1.6582  0.3898  0.6289
43929SOL    HW240756   3.501   2.489   5.959 -0.2084 -0.1190 -1.3799
43930SOL     OW40757   6.221   5.922   6.921 -0.0990 -0.0686  0.4309
43930SOL    HW140758   6.242   5.933   6.829 -0.5891 -1.7592  0.0985
43930SOL    HW240759   6.138   5.874   6.922 -0.0362 -0.1988  1.7449
43931SOL     OW40760   9.766   4.194   8.461 -0.2505  1.0528  0.3619
43931SOL    HW140761   9.753   4.204   8.555  2.6925 -0.1636  1.0166
43931SOL    HW240762   9.847   4.242   8.443  0.9789 -1.2923 -0.8614
43932SOL     OW40763   5.382   0.335   5.496 -0.2530  0.2642  0.2654
43932SOL    HW140764   5.457   0.343   5.436  0.3157 -0.6340  0.8375
43932SOL    HW240765   5.405   0.390   5.571 -0.2145  0.0616  0.4011
43933SOL     OW40766  12.231   1.989   6.406 -0.2018  0.1439  0.6240
43933SOL    HW140767  12.303   1.949   6.357 -0.0918 -0.7056  1.4550
43933SOL    HW240768  12.274   2.034   6.479 -0.5475 -1.0689  1.6016
43934SOL     OW40769   8.299   4.908  12.202 -0.0834  0.0478 -0.0811
43934SOL    HW140770   8.290   4.956  12.284  0.6343  0.0255  0.0180
43934SOL    HW240771   8.323   4.976  12.138 -2.6023  0.4201 -0.7309
43935SOL     OW40772   0.551   5.591  11.556  0.2540 -0.1087 -0.0508
43935SOL    HW140773   0.501   5.639  11.621 -1.1763  0.8275 -1.7496
43935SOL    HW240774   0.514   5.502  11.558 -0.8864  0.3248 -0.6130
43936SOL     OW40775   7.004   5.128  12.476  0.5031 -0.3942  0.1354
43936SOL    HW140776   6.962   5.193  12.421  0.5093  0.3271  0.9692
43936SOL    HW240777   7.097   5.148  12.470  0.5929 -0.9250 -0.3531
43937SOL     OW40778   2.869   7.781  12.392 -0.0301 -0.2593 -0.2497
43937SOL    HW140779   2.901   7.836  12.321 -2.9884 -0.2000 -1.7086
43937SOL    HW240780   2.824   7.841  12.452 -1.8610 -0.7740 -1.0128
43938SOL     OW40781  11.824   5.260   8.635  0.3284 -0.1201 -0.6043
43938SOL    HW140782  11.902   5.274   8.688  0.2673 -0.6944 -0.3469
43938SOL    HW240783  11.855   5.257   8.545  0.6427 -0.5693 -0.4856
43939SOL     OW40784   1.516   1.461   8.207  0.1204  0.1236 -0.4830
43939SOL    HW140785   1.424   1.480   8.228  0.3453 -0.8584  1.6460
43939SOL    HW240786   1.565   1.530   8.252  0.5302 -0.8759  0.6469
43940SOL     OW40787  10.700   6.497   2.776  0.4504  0.1481  0.6926
43940SOL    HW140788  10.652   6.418   2.749  0.7189 -0.1378  1.0535
43940SOL    HW240789  10.657   6.568   2.727  2.0985 -0.5485 -2.0096
43941SOL     OW40790   5.053  10.451  11.809 -0.4341  0.1304 -0.3977
43941SOL    HW140791   5.073  10.526  11.754 -1.2459  0.8391  0.2584
43941SOL    HW240792   5.055  10.485  11.899  0.2617 -0.8689 -0.0168
43942SOL     OW40793   0.456   6.804   5.544  0.0555  0.0954 -0.5973
43942SOL    HW140794   0.385   6.778   5.485 -2.1800  0.6693  1.6329
43942SOL    HW240795   0.470   6.897   5.525 -2.4235  0.9687  1.2641
43943SOL     OW40796   4.274   5.963   3.921  0.0024  0.3789 -0.0473
43943SOL    HW140797   4.309   5.964   4.010 -3.5459 -0.8751  1.5493
43943SOL    HW240798   4.272   6.055   3.896 -0.0232  0.8885  1.6638
43944SOL     OW40799   4.240   0.010   4.515 -0.2786  0.1721 -0.4417
43944SOL    HW140800   4.249  -0.042   4.595  1.4779  0.3421 -0.4830
43944SOL    HW240801   4.167  -0.031   4.468 -0.0354 -1.1885  0.3114
43945SOL     OW40802   0.330   4.612   2.376 -0.5188 -0.3293 -0.2830
43945SOL    HW140803   0.402   4.624   2.314 -0.4923  0.9557 -0.0300
43945SOL    HW240804   0.323   4.696   2.422 -2.2501 -0.3823 -0.3758
43946SOL     OW40805   8.801   7.818   7.631 -0.8822 -0.0114 -0.1788
43946SOL    HW140806   8.740   7.888   7.651  0.3716  0.7455  1.2612
43946SOL    HW240807   8.747   7.740   7.624 -2.1252  0.8184 -0.1777
43947SOL     OW40808  10.361   9.795   9.309  0.0895 -0.1185  0.1424
43947SOL    HW140809  10.369   9.816   9.403 -1.3677 -1.1397  0.5226
43947SOL    HW240810  10.268   9.804   9.291  0.0213 -2.0830 -0.6806
43948SOL     OW40811   3.706   7.589   4.071 -0.0162 -0.6272  0.2176
43948SOL    HW140812   3.795   7.558   4.053  0.4296 -0.3540  1.7693
43948SOL    HW240813   3.655   7.565   3.993  1.3146 -1.1715 -0.5109
43949SOL     OW40814   1.523  11.154   9.211 -0.1703 -0.0278  0.6308
43949SOL    HW140815   1.574  11.197   9.142 -0.1655 -1.7311 -0.4834
43949SOL    HW240816   1.572  11.172   9.291  1.0582  0.1304 -0.1237
43950SOL     OW40817  10.937   3.103   9.925 -0.0211  0.3965  0.4549
43950SOL    HW140818  10.943   3.147  10.009  1.0300 -0.0134  0.6051
43950SOL    HW240819  10.982   3.161   9.864 -1.3864  1.0358  0.0117
43951SOL     OW40820   4.041   6.105   3.686  0.1920 -0.0359  0.1086
43951SOL    HW140821   3.999   6.187   3.661 -0.1076  0.2353  1.4136
43951SOL    HW240822   4.106   6.089   3.617  1.5176  2.2356  0.7214
43952SOL     OW40823   9.376   0.891   6.914 -0.0866  0.2076 -0.4540
43952SOL    HW140824   9.301   0.904   6.972  0.8334 -1.8129  1.2812
43952SOL    HW240825   9.412   0.979   6.902 -1.9890  1.0589 -0.3599
43953SOL     OW40826  10.760  11.170   5.125 -0.1319  0.3312  0.0694
43953SOL    HW140827  10.719  11.230   5.062  0.2451  0.6014  0.0804
43953SOL    HW240828  10.852  11.168   5.100 -0.2132 -0.6075 -0.2138
43954SOL     OW40829  11.340   8.843   9.432  0.2939 -0.1410 -0.4257
43954SOL    HW140830  11.342   8.937   9.445 -0.8314  0.3236 -3.0374
43954SOL    HW240831  11.430   8.819   9.411  0.2053  0.7597 -1.9410
43955SOL     OW40832  10.898   2.988  10.538  0.2655 -0.7242 -0.1273
43955SOL    HW140833  10.869   3.079  10.546 -0.0478 -0.6287 -1.9238
43955SOL    HW240834  10.988   2.994  10.507  0.1039 -1.0096 -0.6706
43956SOL     OW40835   9.963  11.423   2.927 -0.1666  0.4402 -0.3134
43956SOL    HW140836   9.903  11.419   3.002 -1.6236  2.7720 -1.2641
43956SOL    HW240837   9.910  11.455   2.855  1.6939  0.2213 -1.8550
43957SOL     OW40838   0.043   5.295   5.556 -0.0293  0.2532  0.8578
43957SOL    HW140839   0.014   5.226   5.616  0.5512 -2.0082 -1.3034
43957SOL    HW240840   0.138   5.294   5.562 -0.0063  0.6337  0.5676
43958SOL     OW40841   3.269   8.462   1.457 -0.8093  0.0422 -0.9910
43958SOL    HW140842   3.205   8.397   1.429 -2.8014  2.0134 -1.3508
43958SOL    HW240843   3.300   8.502   1.376 -0.4506  0.2895 -0.7386
43959SOL     OW40844   2.163  11.869   3.734 -0.3752  0.0638 -0.1000
43959SOL    HW140845   2.084  11.920   3.749 -0.6963  0.2913 -2.2608
43959SOL    HW240846   2.134  11.778   3.739 -0.7007  0.1431 -0.5716
43960SOL     OW40847   2.844   5.908   6.560  0.4595  0.0383 -0.2051
43960SOL    HW140848   2.765   5.942   6.518 -0.5251  1.1037  2.3299
43960SOL    HW240849   2.882   5.982   6.606  0.6781 -1.3126  1.9347
43961SOL     OW40850  11.418   7.450   6.272 -0.0672 -0.6769  0.2559
43961SOL    HW140851  11.493   7.422   6.219 -0.1081  0.7272 -0.5776
43961SOL    HW240852  11.457   7.501   6.343 -0.2520  0.9743 -0.7744
43962SOL     OW40853   9.492  10.330   3.373  0.1661  0.1014 -0.3890
43962SOL    HW140854   9.560  10.340   3.439 -0.8539  0.9789  0.5727
43962SOL    HW240855   9.415  10.302   3.422 -0.3780 -0.1377 -1.3460
43963SOL     OW40856   6.609   3.517  10.401 -0.1310  0.8241 -0.2698
43963SOL    HW140857   6.600   3.610  10.384  1.2818  0.8870 -0.8360
43963SOL    HW240858   6.683   3.490  10.347  0.1905 -0.3879  0.7299
43964SOL     OW40859   2.522   6.420   3.151  0.3347  0.0486 -0.0654
43964SOL    HW140860   2.463   6.402   3.078 -0.7057  2.3084  0.1506
43964SOL    HW240861   2.536   6.334   3.192 -2.3220 -0.6713 -0.4840
43965SOL     OW40862  10.226   5.419   5.305 -0.0091 -0.4059 -0.2572
43965SOL    HW140863  10.166   5.369   5.250 -0.3906 -1.2943  0.9150
43965SOL    HW240864  10.267   5.353   5.362  1.0637  0.3557 -0.1049
43966SOL     OW40865   5.834   6.032   4.023 -0.0206  0.0217 -0.6212
43966SOL    HW140866   5.858   6.027   4.115 -2.2787 -0.3267  0.0340
43966SOL    HW240867   5.854   5.945   3.988 -1.0876 -0.5398  0.1161
43967SOL     OW40868   7.359   6.336   2.673  0.3293  0.1293 -0.7817
43967SOL    HW140869   7.291   6.398   2.646  0.3923  1.2392  1.3656
43967SOL    HW240870   7.313   6.272   2.727  0.7590  0.0338 -0.5278
43968SOL     OW40871   3.499  12.462   0.528  0.3082  0.4012 -0.1246
43968SOL    HW140872   3.455  12.386   0.488 -0.0008  0.9268 -0.7930
43968SOL    HW240873   3.450  12.478   0.608  0.0588  0.2082 -0.2366
43969SOL     OW40874   5.193   0.593  11.106 -0.3567 -0.1058 -0.2894
43969SOL    HW140875   5.190   0.499  11.118  1.2335  0.0340  1.5233
43969SOL    HW240876   5.125   0.627  11.164 -0.4993 -0.0895 -0.4644
43970SOL     OW40877   9.914   2.006   4.938  0.0939  0.0136  0.7529
43970SOL    HW140878   9.913   2.018   4.843  2.3455 -0.4179  0.6118
43970SOL    HW240879   9.915   2.095   4.973  1.8943  0.2401  0.2331
43971SOL     OW40880   3.146   2.896   5.506  0.0910  0.4254  1.1922
43971SOL    HW140881   3.089   2.820   5.495 -0.2284  0.8146 -0.0608
43971SOL    HW240882   3.174   2.892   5.597 -1.2018 -0.2891  1.5826
43972SOL     OW40883   3.592   0.522   2.062 -0.0769  0.0175 -0.3559
43972SOL    HW140884   3.572   0.578   2.137  0.4117 -0.2611 -0.0119
43972SOL    HW240885   3.639   0.580   2.001  0.0094  0.1041 -0.2083
43973SOL     OW40886   6.711   9.256   3.567 -0.1098 -0.2561  0.1048
43973SOL    HW140887   6.632   9.309   3.563  0.9118  1.3665  0.6548
43973SOL    HW240888   6.686   9.180   3.619 -1.2363  0.3274  0.4521
43974SOL     OW40889   2.610   9.918   9.157  0.1887 -0.5980  0.0006
43974SOL    HW140890   2.516   9.914   9.138  0.4193  1.4159 -1.9284
43974SOL    HW240891   2.634   9.828   9.179 -1.5215 -1.9863 -3.1320
43975SOL     OW40892  12.586  11.865   1.043  0.0597 -0.4169  0.0405
43975SOL    HW140893  12.644  11.913   1.101 -2.0778  1.0549  1.1144
43975SOL    HW240894  12.509  11.846   1.096 -0.7419 -1.7021 -1.4809
43976SOL     OW40895   5.880   6.361   7.203  0.2364 -0.0088 -0.4422
43976SOL    HW140896   5.832   6.308   7.140 -0.5133  0.1546 -0.0256
43976SOL    HW240897   5.933   6.299   7.252 -0.3739 -0.3453 -0.1871
43977SOL     OW40898   1.277   4.019   2.848  0.4152 -0.2114  0.0247
43977SOL    HW140899   1.305   3.933   2.880  0.1516 -0.5604 -0.6568
43977SOL    HW240900   1.321   4.028   2.763  0.3015  0.2481  0.0116
43978SOL     OW40901   1.585   0.389   6.476 -0.9567  0.0191  0.2176
43978SOL    HW140902   1.522   0.360   6.410  0.0558 -1.5196 -0.1223
43978SOL    HW240903   1.589   0.317   6.539 -0.8003  0.8324  1.1681
43979SOL     OW40904   9.917  11.964  12.497  0.1095 -0.0800  0.3575
43979SOL    HW140905  10.008  11.952  12.470  0.6741  0.2553  2.0142
43979SOL    HW240906   9.904  12.059  12.495 -1.4101 -0.1842 -3.4459
43980SOL     OW40907   4.476   2.496   2.028 -0.2234 -0.4252  0.1396
43980SOL    HW140908   4.531   2.471   2.103  0.9063 -0.3416 -0.6378
43980SOL    HW240909   4.389   2.465   2.051  0.3628 -1.5438  0.9289
43981SOL     OW40910   6.234  11.977   0.556  0.4041 -0.0559 -0.4505
43981SOL    HW140911   6.149  12.016   0.535  0.0665 -0.6996 -0.3148
43981SOL    HW240912   6.289  11.997   0.480 -0.2100 -0.6337 -1.0641
43982SOL     OW40913   6.060   7.874   3.531  0.6663  0.2908  0.5218
43982SOL    HW140914   6.130   7.853   3.592 -0.1538 -1.2989  0.9794
43982SOL    HW240915   5.980   7.867   3.583 -0.0868 -1.4172 -0.7433
43983SOL     OW40916   9.845   2.027   9.823 -0.0035 -0.1618 -0.0037
43983SOL    HW140917   9.776   2.003   9.762  0.4874 -0.7690 -0.3221
43983SOL    HW240918   9.926   2.023   9.772  0.1696  1.6134  0.0764
43984SOL     OW40919   2.808   7.318   6.186  0.0690 -0.2564  0.6492
43984SOL    HW140920   2.895   7.287   6.162 -0.7069 -2.0517 -0.0075
43984SOL    HW240921   2.770   7.352   6.105 -0.3195 -0.7194  0.6289
43985SOL     OW40922   9.430   3.818   8.885  0.5436 -0.4003 -0.0845
43985SOL    HW140923   9.469   3.768   8.957  0.2974 -1.9820 -1.0185
43985SOL    HW240924   9.502   3.874   8.854  0.9767 -0.5356  0.6430
43986SOL     OW40925   4.013   3.276   5.856  0.0647 -0.1563  0.0113
43986SOL    HW140926   4.056   3.356   5.888 -0.5923  1.0006 -1.8169
43986SOL    HW240927   4.057   3.205   5.903  1.9173  1.1582  0.4079
43987SOL     OW40928  10.587   8.233   9.663  0.1719  0.4324 -0.2018
43987SOL    HW140929  10.530   8.303   9.632 -1.0422  0.8319  2.6675
43987SOL    HW240930  10.659   8.279   9.708 -0.5612 -0.0778  1.5772
43988SOL     OW40931   8.986   9.723  10.375  0.4777 -0.1725  0.1457
43988SOL    HW140932   8.908   9.680  10.411  0.6615 -0.2765  0.4226
43988SOL    HW240933   8.962   9.815  10.369  1.3234  0.3665  3.1039
43989SOL     OW40934   3.974   2.520   8.634 -0.0244 -0.1047 -0.3940
43989SOL    HW140935   3.887   2.511   8.673 -0.0330  0.4415 -0.2819
43989SOL    HW240936   3.965   2.589   8.569  0.3036 -0.1087 -0.4490
43990SOL     OW40937  11.839   0.174  10.243 -0.6190 -0.1358 -0.4122
43990SOL    HW140938  11.839   0.095  10.296 -0.9010 -0.8481 -1.4327
43990SOL    HW240939  11.922   0.217  10.262  0.2709 -1.5319 -1.0562
43991SOL     OW40940   7.094   6.658   7.821  0.0713 -0.2220  0.2685
43991SOL    HW140941   7.051   6.736   7.858  0.4369  0.1629 -0.1049
43991SOL    HW240942   7.183   6.687   7.802  0.3960 -0.9217  0.7154
43992SOL     OW40943  11.213  10.048   1.749  0.6876  0.2039 -0.5669
43992SOL    HW140944  11.134  10.031   1.697 -0.0987  1.4176  0.1774
43992SOL    HW240945  11.227   9.968   1.799 -0.6532  0.2991  0.0029
43993SOL     OW40946   9.372   9.469   5.416  0.2228  0.5053  0.6150
43993SOL    HW140947   9.406   9.532   5.479  0.2421  0.1390  0.9795
43993SOL    HW240948   9.350   9.521   5.339 -2.2008  1.3946  1.7813
43994SOL     OW40949   2.867  10.458  12.491 -0.1346  0.2011  0.6317
43994SOL    HW140950   2.946  10.412  12.462  0.3780  1.2606  0.3016
43994SOL    HW240951   2.863  10.536  12.435 -0.6986  0.8223  1.5213
43995SOL     OW40952   4.250   7.503  10.790  0.5078 -0.6325  0.3486
43995SOL    HW140953   4.279   7.427  10.840 -1.3155 -2.0470 -0.6412
43995SOL    HW240954   4.211   7.561  10.855  0.4395 -1.2812  0.8893
43996SOL     OW40955   5.386   6.399   7.276  0.4610  0.0522  0.0772
43996SOL    HW140956   5.345   6.432   7.197  0.4630  0.5644  0.2831
43996SOL    HW240957   5.397   6.477   7.331  1.8833 -0.0354 -0.0534
43997SOL     OW40958  11.144   7.683  11.456 -0.3065  0.5317  0.0970
43997SOL    HW140959  11.072   7.721  11.506 -1.2044 -2.1956  1.0028
43997SOL    HW240960  11.213   7.750  11.459 -1.2522  1.5169  2.7840
43998SOL     OW40961   9.531   1.648   3.504 -0.2474 -0.0111  0.0366
43998SOL    HW140962   9.540   1.555   3.524  0.4302 -0.0848 -0.5675
43998SOL    HW240963   9.437   1.666   3.512 -0.4003 -0.7797  0.0082
43999SOL     OW40964   9.135   3.897   6.858 -0.1391  0.6642 -0.6135
43999SOL    HW140965   9.211   3.944   6.823 -0.5169  2.6733  1.0721
43999SOL    HW240966   9.065   3.915   6.795  0.3028  0.3133 -1.2230
44000SOL     OW40967   3.568   7.503   1.007 -0.0423  0.6712 -0.1098
44000SOL    HW140968   3.498   7.481   0.946 -1.5697  1.9593  1.0802
44000SOL    HW240969   3.638   7.537   0.952 -0.1016 -1.1015 -1.3793
44001SOL     OW40970   6.637  11.746   8.124 -0.3751 -0.4899 -0.1698
44001SOL    HW140971   6.722  11.720   8.091 -0.5111  0.2734 -1.1686
44001SOL    HW240972   6.651  11.833   8.163 -0.6127 -0.5216 -0.0078
44002SOL     OW40973   4.363   0.861  11.096 -0.0358 -0.4046 -0.2579
44002SOL    HW140974   4.411   0.805  11.157 -1.4056  0.0301  1.2946
44002SOL    HW240975   4.344   0.805  11.021 -0.3732 -1.7110  0.7664
44003SOL     OW40976   7.305   0.323   2.056 -0.5814  0.2021  0.9086
44003SOL    HW140977   7.363   0.289   2.124  1.0981 -0.3441 -0.7118
44003SOL    HW240978   7.361   0.380   2.003 -1.2055 -1.1413 -1.3363
44004SOL     OW40979   2.027   2.050  11.332  0.0862 -0.2927  0.1248
44004SOL    HW140980   2.006   2.087  11.417  2.7014 -0.2775  0.8327
44004SOL    HW240981   1.942   2.030  11.293 -1.1879  0.2308  2.4798
44005SOL     OW40982   9.482   7.175  12.065 -0.2843 -0.0128  0.3780
44005SOL    HW140983   9.505   7.126  11.986 -1.4631 -0.5006  0.3196
44005SOL    HW240984   9.565   7.212  12.095 -0.0041  1.3726 -1.8612
44006SOL     OW40985   4.368  10.383   9.732 -0.2444 -0.0343 -0.3097
44006SOL    HW140986   4.389  10.407   9.641  1.7584  1.2704  0.4316
44006SOL    HW240987   4.318  10.458   9.765  0.2551  0.1393  0.0643
44007SOL     OW40988  10.683   5.811   2.665 -0.0756  0.0733  0.5073
44007SOL    HW140989  10.659   5.730   2.708 -0.1814 -1.0071 -1.4751
44007SOL    HW240990  10.600   5.857   2.652 -0.2059 -0.2426  0.2151
44008SOL     OW40991   8.128  12.333   5.696 -0.0502  0.0261  0.2336
44008SOL    HW140992   8.195  12.360   5.759  0.2887 -0.7788  0.2279
44008SOL    HW240993   8.111  12.412   5.644  1.4644  0.0636 -0.2712
44009SOL     OW40994  10.704   6.497   8.946 -0.7069 -0.8644 -0.5652
44009SOL    HW140995  10.794   6.464   8.944 -0.9123 -1.5064  0.2749
44009SOL    HW240996  10.669   6.469   9.031 -1.2897  0.4965 -0.3228
44010SOL     OW40997  11.265   3.840  11.798 -0.7982  0.3639 -0.9559
44010SOL    HW140998  11.299   3.810  11.714 -2.5185 -0.8119 -1.2808
44010SOL    HW240999  11.222   3.924  11.778  0.0839  0.8433 -0.9223
44011SOL     OW41000  10.195   0.784  10.822  0.8173 -0.4822  0.5532
44011SOL    HW141001  10.237   0.765  10.906 -2.1363 -0.0127  2.2756
44011SOL    HW241002  10.112   0.737  10.826 -0.3324  1.2671 -1.2143
44012SOL     OW41003   7.592  11.841   3.098 -0.6666 -0.0557  0.0873
44012SOL    HW141004   7.646  11.900   3.151 -2.2218  0.9202  0.6503
44012SOL    HW241005   7.653  11.805   3.034  0.4787  1.6797  0.1222
44013SOL     OW41006   2.996   7.425   5.753  0.6043 -0.1794 -0.3228
44013SOL    HW141007   2.963   7.514   5.759 -1.5841 -0.8588 -1.2033
44013SOL    HW241008   3.054   7.425   5.677  0.1837  0.3608 -0.6455
44014SOL     OW41009   4.747   3.456   9.475  0.1552 -0.4887 -0.2070
44014SOL    HW141010   4.802   3.530   9.449 -0.1360 -0.4714 -0.7965
44014SOL    HW241011   4.687   3.444   9.401 -0.4443 -0.6838  0.2981
44015SOL     OW41012   4.277   6.344   3.649 -0.2110 -0.0397 -0.6727
44015SOL    HW141013   4.363   6.386   3.654  0.9250 -2.3802  1.6166
44015SOL    HW241014   4.281   6.290   3.570 -0.5138  1.5827 -1.8537
44016SOL     OW41015   7.211   9.112  12.052 -0.2810  0.0528  0.2666
44016SOL    HW141016   7.190   9.173  11.982  0.0869 -2.5973 -2.3595
44016SOL    HW241017   7.126   9.081  12.084 -0.4462  0.4927  0.2486
44017SOL     OW41018   3.013   1.692  10.134  0.0894 -0.2737 -0.2955
44017SOL    HW141019   3.029   1.627  10.203  0.2534 -0.6209 -0.6568
44017SOL    HW241020   2.957   1.647  10.071  0.3127 -0.1074 -0.6134
44018SOL     OW41021   3.265   7.160   4.792 -0.1716  0.0539  0.0196
44018SOL    HW141022   3.335   7.218   4.761  1.5207 -1.3677  0.9514
44018SOL    HW241023   3.249   7.188   4.882 -0.4180  0.0325 -0.0180
44019SOL     OW41024   9.204   6.728   9.547  0.3056  0.3919  0.0344
44019SOL    HW141025   9.287   6.690   9.575 -0.7691 -1.1023  1.4214
44019SOL    HW241026   9.139   6.660   9.566 -1.1099  1.0552 -2.1000
44020SOL     OW41027   1.287   0.947   2.057  0.2490 -0.3847 -0.2576
44020SOL    HW141028   1.336   0.904   2.127  2.4278 -0.0013 -1.4570
44020SOL    HW241029   1.353   0.996   2.008 -1.8119  3.1729  0.1215
44021SOL     OW41030   3.034   0.743   8.357 -0.3508  0.1642 -0.1251
44021SOL    HW141031   3.067   0.654   8.345 -0.3569  0.3364 -1.4870
44021SOL    HW241032   3.025   0.778   8.269 -0.3777  1.5150  0.3869
44022SOL     OW41033   7.235  10.059  10.182 -0.0342 -0.0984 -0.3073
44022SOL    HW141034   7.262  10.070  10.091 -0.0515  0.2135 -0.2754
44022SOL    HW241035   7.301  10.106  10.233  0.8655 -1.5984 -0.0468
44023SOL     OW41036   3.992   8.436   2.697 -0.3256  0.0580  0.2366
44023SOL    HW141037   3.995   8.531   2.698 -0.6690  0.1267 -1.6978
44023SOL    HW241038   3.903   8.414   2.727 -0.2794  0.3568  0.5841
44024SOL     OW41039   4.752   5.744  11.764  0.3322 -0.3497 -0.0426
44024SOL    HW141040   4.701   5.801  11.707 -0.3248  0.0002  0.8764
44024SOL    HW241041   4.730   5.655  11.735  0.2197 -0.1725 -0.5049
44025SOL     OW41042   8.008   7.901   8.527  0.2640  0.7927  0.1010
44025SOL    HW141043   8.058   7.884   8.607 -1.3824 -0.0607  0.9986
44025SOL    HW241044   7.919   7.918   8.557 -0.5129 -0.0629 -1.5859
44026SOL     OW41045   6.098   3.229   7.671  0.1302  0.2883  0.4466
44026SOL    HW141046   6.034   3.159   7.660  0.6573 -0.0789 -0.4255
44026SOL    HW241047   6.183   3.186   7.656  0.4144  1.2727 -1.0649
44027SOL     OW41048  12.365   4.242   4.458  0.3175 -0.6889  0.0813
44027SOL    HW141049  12.452   4.273   4.483  0.4415  1.8016 -2.8354
44027SOL    HW241050  12.374   4.147   4.451  3.2644 -0.4004 -1.4513
44028SOL     OW41051   1.970   0.078   3.740 -0.0831 -0.6891 -0.0373
44028SOL    HW141052   1.973   0.097   3.646  0.4805 -0.2494  0.0612
44028SOL    HW241053   1.986  -0.016   3.747 -0.2197 -0.7383 -0.3883
44029SOL     OW41054   0.640   2.076  11.938  0.1706 -0.0774 -0.6152
44029SOL    HW141055   0.581   2.007  11.907  0.0352 -0.5115  0.5733
44029SOL    HW241056   0.594   2.157  11.916 -0.0537 -0.3685 -1.2727
44030SOL     OW41057  11.343   4.405   6.922  0.1270  0.0547 -0.4471
44030SOL    HW141058  11.361   4.375   6.833 -0.1109  0.6868 -0.7145
44030SOL    HW241059  11.258   4.366   6.944  0.3473 -0.3863 -0.3579
44031SOL     OW41060   2.114  11.283   0.842 -0.5114 -0.3778 -0.1397
44031SOL    HW141061   2.112  11.271   0.747 -0.6046 -4.0946  0.2061
44031SOL    HW241062   2.026  11.315   0.864 -1.3004 -1.7904 -1.1120
44032SOL     OW41063   0.709   7.299   6.600  0.7056 -0.1104  0.1774
44032SOL    HW141064   0.702   7.256   6.515 -0.0987  0.4686 -0.0658
44032SOL    HW241065   0.719   7.392   6.578  0.3532  0.0572  0.7205
44033SOL     OW41066   8.921  11.422   1.658 -0.0444 -0.1826  0.4387
44033SOL    HW141067   8.865  11.385   1.589  2.5518 -0.3331 -1.7569
44033SOL    HW241068   8.905  11.516   1.653 -1.1768 -0.3235  0.9316
44034SOL     OW41069   5.370   5.273   0.766 -0.0132 -0.0186  0.0560
44034SOL    HW141070   5.362   5.355   0.716  0.7594 -1.0797 -1.9190
44034SOL    HW241071   5.280   5.243   0.778 -0.2130  0.2013 -0.8342
44035SOL     OW41072   1.182   2.826   6.643 -1.2079 -0.2527  0.1522
44035SOL    HW141073   1.141   2.752   6.688 -0.5683 -0.3442  0.6027
44035SOL    HW241074   1.197   2.794   6.554  2.0179 -1.9225  1.1265
44036SOL     OW41075   2.806   2.312  12.358  0.0067 -0.0591 -0.1557
44036SOL    HW141076   2.901   2.317  12.360 -0.0378  1.4270 -0.4927
44036SOL    HW241077   2.777   2.400  12.382 -1.3162 -0.8905  1.5376
44037SOL     OW41078   8.722   5.517   0.686 -0.0505  0.0540  0.0849
44037SOL    HW141079   8.724   5.429   0.726 -0.3424  0.4295  0.9623
44037SOL    HW241080   8.683   5.572   0.754  3.4121  1.6042  1.0222
44038SOL     OW41081  11.906   2.430   7.762  0.2670  0.1336 -0.1154
44038SOL    HW141082  11.945   2.486   7.829  2.5949 -0.7192 -0.6737
44038SOL    HW241083  11.936   2.342   7.784 -0.2458 -0.3748 -1.3726
44039SOL     OW41084   6.286  11.512   6.778 -0.3197 -0.8132  0.1318
44039SOL    HW141085   6.201  11.522   6.735  0.0287 -1.2077 -0.6978
44039SOL    HW241086   6.276  11.554   6.863 -1.1218 -0.2170 -0.2416
44040SOL     OW41087   3.630   7.477  10.793 -0.1330 -0.1780 -0.9161
44040SOL    HW141088   3.623   7.547  10.727 -0.7775  0.2358 -0.4169
44040SOL    HW241089   3.719   7.487  10.828 -0.5160  0.9703 -0.2261
44041SOL     OW41090   1.509   3.115   0.709 -0.3664  0.2077 -0.5570
44041SOL    HW141091   1.512   3.186   0.774 -0.7977  0.9061 -1.2769
44041SOL    HW241092   1.600   3.104   0.682 -0.3197  0.6346 -0.5853
44042SOL     OW41093   2.186   5.427   1.948 -0.1977  0.2793 -0.2247
44042SOL    HW141094   2.092   5.431   1.931  0.0060  0.3780 -1.4270
44042SOL    HW241095   2.222   5.502   1.901  0.4036  0.6564  0.8299
44043SOL     OW41096   8.283   2.626  12.593  0.0264 -0.1970 -0.0645
44043SOL    HW141097   8.342   2.645  12.520 -0.8104  1.5619 -0.3142
44043SOL    HW241098   8.319   2.675  12.667  0.3811 -1.2949  0.5317
44044SOL     OW41099  10.330   0.825   9.908 -0.9121  0.1017 -0.4063
44044SOL    HW141100  10.417   0.820   9.947 -0.9709  0.5142 -0.2176
44044SOL    HW241101  10.343   0.875   9.827 -1.1384  1.0383  0.1233
44045SOL     OW41102   6.870   2.022   8.333 -0.7753 -0.2286  0.4765
44045SOL    HW141103   6.960   1.996   8.313 -0.7318  0.2053  0.0971
44045SOL    HW241104   6.878   2.107   8.374 -0.8666 -1.0734  2.3579
44046SOL     OW41105   4.912   0.085   9.983  0.2412 -0.4675  0.3504
44046SOL    HW141106   4.993   0.041  10.007 -0.3547 -0.8562  1.7623
44046SOL    HW241107   4.872   0.110  10.067 -0.4174  0.9743 -0.3538
44047SOL     OW41108   3.191   2.651   7.023  0.2227 -0.0646 -0.4677
44047SOL    HW141109   3.151   2.570   6.995 -2.9903  1.0987  0.3590
44047SOL    HW241110   3.232   2.630   7.107 -0.7954 -0.7975 -0.1400
44048SOL     OW41111   2.906   2.710   1.400 -0.4214 -0.3544 -0.0219
44048SOL    HW141112   2.932   2.772   1.468 -0.7486  0.4406 -0.6169
44048SOL    HW241113   2.936   2.625   1.434 -1.6900 -0.1698  1.7134
44049SOL     OW41114   9.578   1.417  12.267  0.1280 -0.1941 -0.3458
44049SOL    HW141115   9.584   1.430  12.173  1.6118  0.3896 -0.1923
44049SOL    HW241116   9.558   1.503  12.302  1.3321 -0.0348 -0.0041
44050SOL     OW41117   1.348   4.218   4.082 -0.1532  0.0033  0.1425
44050SOL    HW141118   1.283   4.272   4.037 -1.2014 -1.3545  0.0020
44050SOL    HW241119   1.432   4.261   4.061 -0.7530  0.3913 -1.7060
44051SOL     OW41120  10.990   4.457   8.670  0.1005 -0.1588  0.7140
44051SOL    HW141121  10.900   4.489   8.664  0.5636  1.2238  0.6947
44051SOL    HW241122  10.988   4.371   8.628 -1.1661 -0.0532  0.5245
44052SOL     OW41123   9.895   8.912  10.896  0.4130 -0.0063  0.4340
44052SOL    HW141124   9.848   8.967  10.958 -1.8598 -0.6645 -0.5952
44052SOL    HW241125   9.836   8.838  10.880  2.3013 -1.4879 -0.1000
44053SOL     OW41126   1.512  10.569  12.465 -0.3963  0.5106  0.5597
44053SOL    HW141127   1.424  10.598  12.439 -0.4363 -0.3811 -0.3733
44053SOL    HW241128   1.571  10.623  12.413 -0.4409  0.0421  0.0050
44054SOL     OW41129   8.872   5.767   6.074  1.0876 -0.1738 -0.8511
44054SOL    HW141130   8.820   5.847   6.079  2.2453  0.5921 -0.8007
44054SOL    HW241131   8.907   5.767   5.985  1.5269 -0.3455 -0.6814
44055SOL     OW41132   0.703   9.881   1.132 -0.3992 -0.7690  0.4576
44055SOL    HW141133   0.718   9.973   1.109 -0.3734 -1.1574 -1.2747
44055SOL    HW241134   0.786   9.852   1.170  0.0973 -0.4227 -0.3174
44056SOL     OW41135  11.902   1.274  12.065  0.3392 -0.2018  0.3417
44056SOL    HW141136  11.826   1.267  12.007  0.7954 -1.0461 -0.1728
44056SOL    HW241137  11.961   1.335  12.020 -0.0177  0.4437  0.7352
44057SOL     OW41138   1.135   7.203   2.951 -0.3655 -0.7206 -0.8318
44057SOL    HW141139   1.201   7.159   2.897 -1.7282 -0.9818 -2.3697
44057SOL    HW241140   1.081   7.132   2.985  0.2634 -0.5279  0.6463
44058SOL     OW41141   0.891   1.703  11.781 -0.1238  0.0731 -0.1249
44058SOL    HW141142   0.871   1.762  11.708 -0.1270  0.2584  0.0259
44058SOL    HW241143   0.814   1.706  11.836 -0.2434 -0.3025 -0.2685
44059SOL     OW41144   4.984   9.335   9.430  0.2585 -0.6560  0.0511
44059SOL    HW141145   4.966   9.428   9.447  0.4725 -0.9652  2.3427
44059SOL    HW241146   4.984   9.295   9.517 -3.2118 -3.4898 -1.0391
44060SOL     OW41147   7.908   1.381   6.454 -0.1373  0.1112  0.3677
44060SOL    HW141148   7.877   1.303   6.408  0.3143  1.0177 -1.5936
44060SOL    HW241149   7.886   1.365   6.546 -1.1266 -1.7826 -0.1396
44061SOL     OW41150   6.983   3.486   4.632 -0.4367 -0.2146  0.3151
44061SOL    HW141151   7.055   3.436   4.594 -2.4367 -0.4365 -3.7668
44061SOL    HW241152   6.960   3.438   4.711  4.0551  0.2038  2.1867
44062SOL     OW41153  12.301   8.500   0.894 -0.0076  0.0664 -0.5535
44062SOL    HW141154  12.390   8.515   0.925  0.0243 -0.2190 -0.5037
44062SOL    HW241155  12.260   8.447   0.962 -0.6702  1.3762  0.1169
44063SOL     OW41156   7.546   6.633   7.303  0.2392  0.4004 -0.0702
44063SOL    HW141157   7.628   6.656   7.258 -0.6519  3.5177 -0.2928
44063SOL    HW241158   7.505   6.568   7.245  1.6568  0.2201 -0.9241
44064SOL     OW41159  10.928   9.292   1.990  0.4709 -0.5608 -0.2617
44064SOL    HW141160  11.009   9.327   2.027 -0.1443  0.1151  0.4758
44064SOL    HW241161  10.918   9.205   2.030 -0.0341  0.0453  0.9635
44065SOL     OW41162   9.207   2.966   0.631 -0.1943  0.3212 -0.2471
44065SOL    HW141163   9.181   2.899   0.567  1.5422 -0.4028 -0.2313
44065SOL    HW241164   9.223   2.918   0.712 -1.4532  1.1191  0.5057
44066SOL     OW41165  11.028   4.226   3.556 -0.0034  0.3787  0.2029
44066SOL    HW141166  10.942   4.185   3.542  0.6289 -0.6737 -0.8071
44066SOL    HW241167  11.071   4.219   3.471  1.0051  1.0904  0.6450
44067SOL     OW41168   8.908   2.422   4.319  0.1935 -0.3037 -0.3903
44067SOL    HW141169   8.828   2.421   4.372 -0.6044  0.4713 -1.5152
44067SOL    HW241170   8.878   2.402   4.230  1.5809 -2.2347 -0.4931
44068SOL     OW41171   6.348   9.969  11.493 -0.1425  0.1749 -0.0709
44068SOL    HW141172   6.392  10.000  11.414 -0.2445  1.1342  0.2461
44068SOL    HW241173   6.255   9.986  11.478 -0.0265  1.7923  0.8725
44069SOL     OW41174   7.662  11.751   6.382 -0.5022 -0.1542 -0.3353
44069SOL    HW141175   7.666  11.819   6.450 -1.1855 -1.3620  0.9697
44069SOL    HW241176   7.739  11.697   6.397  1.1685  1.4120 -2.6546
44070SOL     OW41177   8.876   6.628   3.548 -0.2981  0.1059 -0.6222
44070SOL    HW141178   8.841   6.713   3.522  1.0147  0.7837 -0.2128
44070SOL    HW241179   8.915   6.642   3.634  2.5043 -0.1592 -1.7377
44071SOL     OW41180   2.320   7.120   3.868 -0.3100  0.0981  0.3247
44071SOL    HW141181   2.266   7.095   3.943  0.1040 -2.0515 -0.0587
44071SOL    HW241182   2.362   7.202   3.895 -1.2681  0.1185  1.8563
44072SOL     OW41183   6.586   5.642   1.790  0.2198  0.3547  0.1712
44072SOL    HW141184   6.615   5.697   1.718 -0.0154  0.9629  0.5369
44072SOL    HW241185   6.497   5.616   1.766  0.3558  0.0700 -0.0340
44073SOL     OW41186  10.200  12.387   0.485  0.0632  0.5366  0.7926
44073SOL    HW141187  10.199  12.408   0.392 -1.6287 -0.9950  0.3956
44073SOL    HW241188  10.198  12.291   0.488 -4.2823  0.4532  2.2553
44074SOL     OW41189   1.461   3.058   4.368  0.2046  0.6201 -0.1598
44074SOL    HW141190   1.390   3.017   4.317 -1.1873  1.5065  0.9844
44074SOL    HW241191   1.461   3.149   4.339 -0.7933  1.2059  1.5615
44075SOL     OW41192   5.065   2.568   4.584 -0.1225  0.0515 -0.0661
44075SOL    HW141193   5.094   2.658   4.597  0.8951  0.0489 -2.0187
44075SOL    HW241194   5.080   2.526   4.669 -3.7155  2.4054  1.9843
44076SOL     OW41195  11.006   7.382   1.837 -0.6784 -0.0908 -0.0005
44076SOL    HW141196  11.039   7.328   1.909  0.0929 -0.5161 -0.6581
44076SOL    HW241197  10.914   7.357   1.829 -0.5066 -0.8201  0.1641
44077SOL     OW41198   3.883   5.671   0.436 -0.4055 -0.6445 -0.2347
44077SOL    HW141199   3.853   5.675   0.345 -1.7077 -1.7663  0.1191
44077SOL    HW241200   3.974   5.640   0.429 -0.2178  0.0707 -1.1799
44078SOL     OW41201   0.042   8.752   6.957  0.4202 -0.6858  0.2265
44078SOL    HW141202   0.117   8.808   6.980  0.1981  0.9019 -2.4755
44078SOL    HW241203   0.023   8.704   7.037  0.7378  2.9841  2.7619
44079SOL     OW41204   1.900  12.008   3.620  0.5640 -0.2420 -0.0121
44079SOL    HW141205   1.829  11.947   3.638 -1.4299  1.8790 -0.3260
44079SOL    HW241206   1.883  12.040   3.532  2.6128 -0.5278 -0.5694
44080SOL     OW41207   7.774  12.473   1.788  0.4730  0.5402 -0.1584
44080SOL    HW141208   7.788  12.563   1.819 -0.0901  0.3109  0.8112
44080SOL    HW241209   7.761  12.422   1.868  0.5447 -0.3654 -0.7125
44081SOL     OW41210   5.292   6.887   8.167 -0.1938  0.3614  0.2205
44081SOL    HW141211   5.340   6.921   8.092  0.8316  0.5888  0.9547
44081SOL    HW241212   5.234   6.959   8.193  1.5852  1.4572  1.4403
44082SOL     OW41213   6.472  11.669   1.920 -0.2202 -0.0488 -0.3440
44082SOL    HW141214   6.501  11.697   1.833 -1.3937  2.8932  0.1028
44082SOL    HW241215   6.434  11.582   1.905 -0.1290  0.2356 -2.7073
44083SOL     OW41216   9.194   1.957   6.000  0.3717 -0.2365 -0.2920
44083SOL    HW141217   9.217   2.020   6.068  0.8395  1.1520 -1.6943
44083SOL    HW241218   9.240   1.877   6.026  0.3122  0.1605  1.1614
44084SOL     OW41219   6.557   0.479   7.862 -0.2748  0.0276  0.4295
44084SOL    HW141220   6.631   0.523   7.821  0.4455 -0.3217  1.3078
44084SOL    HW241221   6.529   0.414   7.798  0.2660  0.0820  0.1338
44085SOL     OW41222  10.306  10.763  11.830  0.1717 -0.1446 -0.0437
44085SOL    HW141223  10.335  10.672  11.835  0.2127 -0.0864  0.9527
44085SOL    HW241224  10.373  10.813  11.877 -0.0220  0.3546 -0.2926
44086SOL     OW41225   8.599   2.529   7.387 -0.3408 -0.0970  0.2605
44086SOL    HW141226   8.674   2.524   7.328  0.1275 -1.2651  0.9089
44086SOL    HW241227   8.637   2.554   7.471 -0.6672 -0.6332  0.5770
44087SOL     OW41228   3.744   7.768   0.645  0.0836  0.5350  0.0967
44087SOL    HW141229   3.717   7.812   0.726 -1.9182 -1.2271  0.4861
44087SOL    HW241230   3.835   7.741   0.662  0.2692  1.6596  1.0640
44088SOL     OW41231   6.762  10.992   7.970  0.4046  0.1459 -0.0431
44088SOL    HW141232   6.715  10.911   7.954 -1.2388  1.2546 -1.0976
44088SOL    HW241233   6.707  11.061   7.933  2.1428  1.6874  0.0338
44089SOL     OW41234  11.860   0.644   6.197  0.1775 -0.3403  0.4046
44089SOL    HW141235  11.901   0.606   6.275  2.9845  1.1398 -0.2242
44089SOL    HW241236  11.892   0.589   6.125  0.9437  0.7078 -0.0805
44090SOL     OW41237   1.029  12.576   8.415 -0.0364 -0.2815  0.3139
44090SOL    HW141238   1.099  12.598   8.353  0.4635 -1.1472  0.5483
44090SOL    HW241239   0.987  12.660   8.434  1.2461  0.3411  0.5379
44091SOL     OW41240   5.725   5.629   1.382  0.3046  0.3533 -0.3976
44091SOL    HW141241   5.677   5.566   1.328 -0.9548  0.3382  0.6923
44091SOL    HW241242   5.703   5.606   1.472 -0.4912  2.5682  0.0402
44092SOL     OW41243   6.385  10.262  10.968  0.0336 -0.1540 -0.3573
44092SOL    HW141244   6.429  10.238  11.049 -1.5138  1.2881  0.9900
44092SOL    HW241245   6.405  10.355  10.956 -2.2326  0.4599  0.1134
44093SOL     OW41246   4.331   0.839  10.708 -0.3478 -0.0722  0.1653
44093SOL    HW141247   4.363   0.927  10.728 -1.5555  0.2559  0.7557
44093SOL    HW241248   4.410   0.786  10.699  0.5384  1.4582 -2.2560
44094SOL     OW41249   5.264   8.270   5.187  0.3159  0.2126  0.0331
44094SOL    HW141250   5.340   8.242   5.238  1.1531  0.7658 -0.8626
44094SOL    HW241251   5.247   8.196   5.127 -0.0529 -0.0372  0.4410
44095SOL     OW41252   2.900   9.047   7.475 -0.1810  0.1758  0.5515
44095SOL    HW141253   2.855   9.053   7.559 -1.9273  0.9694 -0.3924
44095SOL    HW241254   2.831   9.027   7.411  1.3355 -2.1728 -0.5104
44096SOL     OW41255   1.437   1.404   6.432 -0.1687  0.0835  0.3703
44096SOL    HW141256   1.386   1.484   6.434  1.1592  0.9611  1.2616
44096SOL    HW241257   1.467   1.396   6.341 -0.7448  0.3095  0.1615
44097SOL     OW41258   5.250   2.252  10.139  0.2848 -0.0954  0.7612
44097SOL    HW141259   5.163   2.224  10.167  0.6778  0.4771  2.7047
44097SOL    HW241260   5.253   2.345  10.159  0.7893  0.2487 -0.8214
44098SOL     OW41261   4.405  11.907   8.548 -0.1024 -0.1201 -0.2729
44098SOL    HW141262   4.359  11.990   8.562  0.1845  0.1312 -0.7824
44098SOL    HW241263   4.455  11.893   8.629  0.8579  0.8599 -0.6722
44099SOL     OW41264   9.475   5.126   8.451 -0.4711  0.3577 -0.1359
44099SOL    HW141265   9.487   5.198   8.389  0.4656  0.8637  0.6190
44099SOL    HW241266   9.474   5.168   8.537  0.2888 -0.5524  0.3284
44100SOL     OW41267   7.043   4.484  11.045 -0.3038 -0.6004  0.0286
44100SOL    HW141268   6.998   4.476  10.961  0.7855  0.4791 -0.6894
44100SOL    HW241269   6.977   4.458  11.110 -1.5415 -0.3179 -1.0718
44101SOL     OW41270  11.352   8.019   9.933 -0.6180 -0.2988  0.3508
44101SOL    HW141271  11.321   8.063  10.012 -2.4836 -0.7238 -0.0923
44101SOL    HW241272  11.398   7.941   9.965 -0.1094  0.2807  1.0404
44102SOL     OW41273   7.093   4.864   1.841  0.2444  0.0698  0.3430
44102SOL    HW141274   7.141   4.929   1.893  0.3650  0.5061 -0.2955
44102SOL    HW241275   7.027   4.829   1.900  0.0789  0.8943  0.6568
44103SOL     OW41276  10.340   2.557   1.892  0.1247 -0.0299 -0.0490
44103SOL    HW141277  10.309   2.466   1.898 -0.0629  0.0531  0.3010
44103SOL    HW241278  10.260   2.609   1.891  0.2361  0.2318  1.6457
44104SOL     OW41279   7.490   4.993  12.295  0.6379 -0.0799  0.6048
44104SOL    HW141280   7.563   4.932  12.307  0.9327 -0.3416 -1.9032
44104SOL    HW241281   7.416   4.936  12.271  0.5153  0.4199 -0.2253
44105SOL     OW41282   3.495   1.227   5.523  0.3301 -0.1528 -0.1073
44105SOL    HW141283   3.463   1.231   5.433 -0.3494  0.9341  0.1674
44105SOL    HW241284   3.551   1.304   5.532  0.7596 -0.5013  0.2704
44106SOL     OW41285   2.676   5.255   5.454 -0.0212  0.6152 -0.1279
44106SOL    HW141286   2.617   5.305   5.399 -0.6442 -1.0059 -0.9853
44106SOL    HW241287   2.749   5.315   5.472 -0.7577  1.8244 -1.0546
44107SOL     OW41288   4.840   9.801   3.391 -0.2177 -0.0655  0.3876
44107SOL    HW141289   4.903   9.749   3.341  0.0859  0.8032 -0.1618
44107SOL    HW241290   4.838   9.760   3.477  0.1473 -0.8657  0.0306
44108SOL     OW41291   8.029   7.593  12.480 -0.0438 -0.2555 -0.2449
44108SOL    HW141292   8.016   7.511  12.528 -0.5635  0.6307  1.2170
44108SOL    HW241293   8.031   7.660  12.549  0.8292  0.9108 -1.3717
44109SOL     OW41294   5.870   0.011   5.917  0.1707 -0.0137 -0.7880
44109SOL    HW141295   5.847  -0.017   5.828 -2.0581 -0.9149  0.0180
44109SOL    HW241296   5.839   0.101   5.923 -0.0188 -0.0755 -0.8212
44110SOL     OW41297  12.086  12.555   7.678  0.7730  0.4233  0.3360
44110SOL    HW141298  12.036  12.542   7.597  1.3165 -0.3257  0.0916
44110SOL    HW241299  12.051  12.490   7.739  1.3391 -0.0304  0.1993
44111SOL     OW41300   5.025   7.101   2.945  0.1197  0.1837  0.2285
44111SOL    HW141301   4.956   7.136   2.889  1.0808 -0.2342 -1.2770
44111SOL    HW241302   5.058   7.025   2.898 -0.2612 -1.3210  2.2631
44112SOL     OW41303   4.146   6.630   1.003 -0.3621  0.1388 -0.1968
44112SOL    HW141304   4.115   6.604   0.917  1.3908 -1.1350 -0.5085
44112SOL    HW241305   4.068   6.631   1.058 -1.0684 -2.5018 -0.9979
44113SOL     OW41306   8.043   4.763  10.946  0.2528 -0.8432  0.0241
44113SOL    HW141307   8.090   4.713  11.013 -0.5171 -1.7270 -0.0718
44113SOL    HW241308   7.955   4.726  10.945 -0.4666  0.8047  0.2033
44114SOL     OW41309   0.725  12.011   8.852 -0.3161  0.5581 -0.2207
44114SOL    HW141310   0.785  11.947   8.814 -1.2312 -0.0755 -0.6412
44114SOL    HW241311   0.670  12.038   8.779 -0.4390  1.2513  0.1212
44115SOL     OW41312   0.917   5.284   3.699 -0.0180 -0.0038 -0.0476
44115SOL    HW141313   0.925   5.297   3.605  0.3723 -0.9671 -0.1603
44115SOL    HW241314   1.006   5.292   3.733 -0.2358  0.9069  0.3224
44116SOL     OW41315  10.338   9.801   6.403  0.1813  0.1071 -0.0931
44116SOL    HW141316  10.272   9.788   6.472 -0.3997 -2.3727 -0.9909
44116SOL    HW241317  10.348   9.896   6.396 -0.6520  0.4665  2.5205
44117SOL     OW41318   0.079   9.393   5.771  0.1031  0.0873 -0.0488
44117SOL    HW141319   0.002   9.431   5.814 -0.2371 -0.6877  0.0290
44117SOL    HW241320   0.080   9.302   5.799  2.0363  0.4661  1.3287
44118SOL     OW41321   2.525   6.347   4.561  0.1756 -0.7709 -0.2742
44118SOL    HW141322   2.446   6.345   4.616  0.3455 -0.5186 -0.0184
44118SOL    HW241323   2.510   6.421   4.502 -0.0850 -1.1495 -0.6894
44119SOL     OW41324   3.366  10.835   7.207 -0.1709  0.7042  0.1318
44119SOL    HW141325   3.318  10.753   7.197  0.1463  0.5414 -0.0580
44119SOL    HW241326   3.411  10.827   7.291 -2.3374  1.8184  1.5190
44120SOL     OW41327  10.453   1.076   9.324  0.1398  0.5290  0.5791
44120SOL    HW141328  10.364   1.055   9.353 -0.0109  1.5723  0.9387
44120SOL    HW241329  10.510   1.019   9.376 -0.2063  1.4493  2.0307
44121SOL     OW41330   7.528   3.292   3.315  0.1881 -0.4117 -0.3158
44121SOL    HW141331   7.575   3.316   3.235  0.3366  0.5038  0.0338
44121SOL    HW241332   7.594   3.254   3.372 -0.2893 -3.0126 -1.3750
44122SOL     OW41333  10.904   3.371   5.322  0.2008 -0.1947  0.3900
44122SOL    HW141334  10.831   3.373   5.260  1.0574 -1.5879 -0.7397
44122SOL    HW241335  10.928   3.463   5.334 -0.1595  0.1252 -1.1470
44123SOL     OW41336   4.711  10.676   9.093  0.0905  0.2540  0.1726
44123SOL    HW141337   4.696  10.604   9.154 -0.6336  0.6767  0.5056
44123SOL    HW241338   4.651  10.745   9.121 -0.4274  0.3784 -1.1520
44124SOL     OW41339   6.201   6.972   8.004 -0.0163 -0.2574  0.1888
44124SOL    HW141340   6.217   6.879   8.018  1.0112  0.0812  1.4149
44124SOL    HW241341   6.107   6.977   7.984 -0.3163 -1.4495  1.1604
44125SOL     OW41342   9.145  12.230   2.798  0.4790 -0.1377 -0.2709
44125SOL    HW141343   9.072  12.185   2.756 -1.6978  2.2676  0.6773
44125SOL    HW241344   9.173  12.295   2.733  1.2906 -0.5297 -0.3256
44126SOL     OW41345  12.429   1.981  11.175 -0.2025  0.2013 -0.3099
44126SOL    HW141346  12.472   2.064  11.195 -0.2932  0.2108 -0.1466
44126SOL    HW241347  12.338   2.005  11.158  0.2272  0.4281 -2.5687
44127SOL     OW41348   1.311   7.601  11.423 -0.3146 -0.0116 -0.1971
44127SOL    HW141349   1.250   7.615  11.495  0.1383  0.7284  0.0540
44127SOL    HW241350   1.281   7.660  11.354 -0.3589 -0.2361 -0.3699
44128SOL     OW41351   8.819   8.413  12.336 -0.4966  0.0454 -0.1382
44128SOL    HW141352   8.754   8.466  12.381 -0.0716  0.3108  0.1756
44128SOL    HW241353   8.886   8.475  12.308  1.1447 -0.5009  2.1883
44129SOL     OW41354  11.740   2.750   6.180  0.4414 -0.0599 -0.0673
44129SOL    HW141355  11.690   2.823   6.217  1.7108  0.2841  1.0566
44129SOL    HW241356  11.679   2.706   6.121 -0.8952  0.8532  0.5917
44130SOL     OW41357   3.843   2.431   1.553 -0.6148 -0.4410  0.5734
44130SOL    HW141358   3.923   2.483   1.545 -0.3708 -1.0144 -1.3415
44130SOL    HW241359   3.787   2.462   1.482 -2.3387  0.2842  2.1813
44131SOL     OW41360  10.905   0.223   5.397  0.2447  0.7223 -0.2583
44131SOL    HW141361  10.845   0.149   5.400  3.5870 -2.2228  0.6668
44131SOL    HW241362  10.930   0.238   5.488  1.2723  1.4970 -0.6413
44132SOL     OW41363  10.863  10.470   4.424 -0.1138  0.1489 -0.4038
44132SOL    HW141364  10.956  10.475   4.403 -0.5937  2.4105 -2.4241
44132SOL    HW241365  10.853  10.521   4.505  0.3578 -0.0374 -0.2260
44133SOL     OW41366   4.722  11.480   1.547 -0.2708 -0.0405  0.4726
44133SOL    HW141367   4.726  11.551   1.612 -1.6517  0.1765  0.3466
44133SOL    HW241368   4.813  11.454   1.535  0.3020  1.8313  0.3932
44134SOL     OW41369   7.964   2.917   8.034 -0.2066  0.3538 -0.0672
44134SOL    HW141370   8.042   2.927   8.089 -0.4988  1.5928  0.1510
44134SOL    HW241371   7.891   2.914   8.095 -0.2889 -1.8527 -0.2077
44135SOL     OW41372   5.184   7.917   8.592 -0.2122  0.3334 -0.3131
44135SOL    HW141373   5.267   7.964   8.584  0.0893 -0.2994 -0.9502
44135SOL    HW241374   5.135   7.941   8.514  0.0002 -0.5030 -0.7167
44136SOL     OW41375  11.530  11.761   7.905 -0.4376  0.1318  0.4172
44136SOL    HW141376  11.491  11.744   7.990  1.0301  1.1905  1.3472
44136SOL    HW241377  11.521  11.855   7.893  0.7786  0.2274  0.1404
44137SOL     OW41378   5.100   3.694   4.215 -0.1415  0.0072  0.8057
44137SOL    HW141379   5.191   3.691   4.246 -0.1247  0.9482  0.8719
44137SOL    HW241380   5.084   3.607   4.179 -0.0017 -0.9913  3.0102
44138SOL     OW41381   2.142   5.912   6.180  0.0021  0.0989 -0.9422
44138SOL    HW141382   2.156   5.892   6.087 -2.4072 -3.0338 -0.7993
44138SOL    HW241383   2.167   5.832   6.226  2.9340  2.1408  1.5110
44139SOL     OW41384   6.384   7.452   2.403  0.3107  0.5707  0.3191
44139SOL    HW141385   6.421   7.437   2.315 -0.6114  0.3081 -0.0342
44139SOL    HW241386   6.456   7.492   2.452  0.5775  1.5506 -0.8083
44140SOL     OW41387   6.703  11.967   9.951  0.2239  0.1417 -0.2684
44140SOL    HW141388   6.643  11.893   9.960 -1.2423  1.5337  2.6998
44140SOL    HW241389   6.648  12.038   9.916  0.0459  1.3486  2.2223
44141SOL     OW41390   1.977   4.542  11.948  0.2961 -0.1502  0.4868
44141SOL    HW141391   1.986   4.594  12.029 -1.1237 -2.0902  1.9891
44141SOL    HW241392   2.011   4.456  11.971 -0.6888 -0.9139 -0.8175
44142SOL     OW41393   6.360   6.647   1.591  0.2780 -0.4873  0.1037
44142SOL    HW141394   6.444   6.694   1.591 -0.2096  0.3971 -0.6786
44142SOL    HW241395   6.296   6.711   1.563 -0.6874 -1.1517  0.7266
44143SOL     OW41396   1.593  10.066  11.800  0.4478  0.3235 -0.2516
44143SOL    HW141397   1.620  10.009  11.872 -2.6551  0.1272  0.9154
44143SOL    HW241398   1.639  10.032  11.724  1.1439 -1.7158  0.9917
44144SOL     OW41399   9.558   5.948   8.042  0.3380  0.0492  0.0269
44144SOL    HW141400   9.572   5.968   7.949  1.5444  0.7036  0.3235
44144SOL    HW241401   9.571   5.854   8.048  0.2012 -0.0070 -0.4752
44145SOL     OW41402  12.505   0.434  10.954  0.2428  0.2008  0.2238
44145SOL    HW141403  12.507   0.519  10.998  1.1608 -0.3782  1.3811
44145SOL    HW241404  12.570   0.381  11.002 -0.5804 -1.2625 -0.2178
44146SOL     OW41405   3.105   8.432   2.459  0.0413  0.9584 -0.0353
44146SOL    HW141406   3.093   8.523   2.431 -1.8113  0.3791 -1.3087
44146SOL    HW241407   3.018   8.405   2.489  0.7378 -0.1883  1.0220
44147SOL     OW41408  11.610   6.428  11.159 -0.3868  0.1604  0.0615
44147SOL    HW141409  11.558   6.399  11.084  1.3905  0.7062 -1.4735
44147SOL    HW241410  11.594   6.522  11.164  0.2482  0.2926 -0.2819
44148SOL     OW41411   8.246   4.172   9.056 -0.7046 -0.4466 -0.2114
44148SOL    HW141412   8.339   4.192   9.066 -0.8241  0.6193 -1.0239
44148SOL    HW241413   8.219   4.222   8.978 -1.8607 -1.0623 -0.2269
44149SOL     OW41414   8.518  10.619  10.817  0.3570 -0.3287 -0.0720
44149SOL    HW141415   8.445  10.569  10.781  0.5875  0.1972 -1.3110
44149SOL    HW241416   8.581  10.553  10.845  0.2599 -0.7591 -0.8353
44150SOL     OW41417   9.420   2.204   5.633  0.2135  0.0747 -0.7538
44150SOL    HW141418   9.370   2.183   5.712  0.1738 -0.3749 -0.8976
44150SOL    HW241419   9.365   2.174   5.561 -0.1692  1.3119 -0.9999
44151SOL     OW41420   7.518   4.585   2.232  0.5733  0.4797 -0.1865
44151SOL    HW141421   7.611   4.603   2.216  0.7548  0.7742  1.1371
44151SOL    HW241422   7.486   4.662   2.277  0.1476 -0.4061  1.0713
44152SOL     OW41423   8.223   1.883   4.044 -0.2106 -0.1252 -0.9050
44152SOL    HW141424   8.256   1.953   3.988 -1.9683 -0.3133 -2.2759
44152SOL    HW241425   8.128   1.886   4.033 -0.6021 -0.6151  1.6088
44153SOL     OW41426   0.387   6.475   4.826 -0.3767  0.0371 -0.0581
44153SOL    HW141427   0.308   6.421   4.829 -0.6996  0.5177  0.1934
44153SOL    HW241428   0.430   6.459   4.910  0.1143 -0.6982 -0.4448
44154SOL     OW41429   7.829   8.006   0.234  0.2200 -0.1001 -0.0439
44154SOL    HW141430   7.744   7.997   0.277 -0.4037  0.3962 -1.1006
44154SOL    HW241431   7.858   8.095   0.257 -0.0635  0.1263 -0.5415
44155SOL     OW41432   8.873   0.399   2.586 -0.0280 -0.4875  0.0831
44155SOL    HW141433   8.859   0.329   2.522  2.0369 -0.6019 -0.3097
44155SOL    HW241434   8.898   0.475   2.534 -0.6276  0.0905  0.6222
44156SOL     OW41435  10.053  11.772   1.126 -0.1478  0.3837 -0.2249
44156SOL    HW141436  10.089  11.787   1.214 -1.4284  0.7865  0.2463
44156SOL    HW241437  10.052  11.676   1.117  3.4543  0.3068 -1.3120
44157SOL     OW41438   3.962   3.241   4.480 -0.8490  0.3365 -0.5579
44157SOL    HW141439   4.028   3.257   4.413 -1.8493  0.1983 -1.6167
44157SOL    HW241440   3.995   3.287   4.558  1.0217 -0.6818 -0.6967
44158SOL     OW41441   2.566  11.755   1.526 -0.1886 -0.1387 -0.1268
44158SOL    HW141442   2.639  11.696   1.544  0.2220  0.3250 -0.2379
44158SOL    HW241443   2.581  11.830   1.583  0.5505  0.8714 -1.5817
44159SOL     OW41444   0.919  10.928  11.477  0.1878  0.1189 -0.0979
44159SOL    HW141445   1.011  10.903  11.474 -0.0518 -0.9234  0.5293
44159SOL    HW241446   0.895  10.946  11.386  0.3559 -2.1799 -0.6717
44160SOL     OW41447   1.148   3.343   1.769  0.5167  0.7523  0.0120
44160SOL    HW141448   1.068   3.357   1.819  1.5311  0.6708  1.7413
44160SOL    HW241449   1.184   3.262   1.803  0.5212 -0.1371 -1.9370
44161SOL     OW41450   3.427   3.637   8.445 -0.2306  0.7068  0.0985
44161SOL    HW141451   3.492   3.625   8.375 -1.3549  1.6722 -1.1497
44161SOL    HW241452   3.377   3.714   8.418 -1.5384  0.3170  1.3286
44162SOL     OW41453   8.000   2.475   7.987 -0.6250  0.2940  0.3197
44162SOL    HW141454   8.029   2.397   7.939 -0.1208 -1.2464  2.9401
44162SOL    HW241455   8.055   2.545   7.954  0.4163 -0.9017 -0.6121
44163SOL     OW41456  10.881  12.496   6.688 -0.2601  0.2552  0.1259
44163SOL    HW141457  10.881  12.400   6.697  0.3919  0.2354 -0.0760
44163SOL    HW241458  10.945  12.513   6.619 -1.3508  0.7481 -0.7964
44164SOL     OW41459   5.331   3.790   3.684 -0.6254  0.4061  0.1393
44164SOL    HW141460   5.389   3.719   3.656  0.1862  0.2613  2.0059
44164SOL    HW241461   5.363   3.867   3.637  1.0987  0.3158  1.0635
44165SOL     OW41462  10.577  11.043   6.748 -0.5181  0.4529  0.4622
44165SOL    HW141463  10.555  11.136   6.742  0.0647  0.5152 -3.2693
44165SOL    HW241464  10.492  10.998   6.756 -0.7560  1.2330  3.2034
44166SOL     OW41465   9.195  11.251   3.907  0.0322  0.0984 -0.1486
44166SOL    HW141466   9.123  11.265   3.968 -0.0863 -0.3515 -0.1841
44166SOL    HW241467   9.220  11.339   3.879  1.1550  0.4588  1.7705
44167SOL     OW41468   0.832   8.857   9.822  0.3320 -0.0231  0.3786
44167SOL    HW141469   0.738   8.874   9.817  0.3791 -0.1444 -1.2839
44167SOL    HW241470   0.873   8.941   9.802  0.5813 -0.1996  0.1467
44168SOL     OW41471   0.358   9.642   2.400 -0.3700 -0.5763 -0.6714
44168SOL    HW141472   0.346   9.586   2.476 -1.4306 -0.1122 -0.4831
44168SOL    HW241473   0.427   9.599   2.350  0.6286 -0.6901  0.7277
44169SOL     OW41474   1.400  10.708   9.733  0.3454 -0.2320 -0.5111
44169SOL    HW141475   1.474  10.707   9.795  1.3730 -0.9903 -1.7125
44169SOL    HW241476   1.366  10.619   9.736 -0.6110  0.1442  0.1134
44170SOL     OW41477   5.895   1.414   1.134  0.1244 -0.4323  0.0355
44170SOL    HW141478   5.905   1.324   1.164  0.2995 -0.4661 -0.1211
44170SOL    HW241479   5.933   1.468   1.203  0.7098 -0.5197 -0.2146
44171SOL     OW41480   6.211   8.229  12.020 -0.5225 -0.4598  0.1085
44171SOL    HW141481   6.222   8.140  11.988  0.7184  0.3374 -1.8454
44171SOL    HW241482   6.139   8.264  11.968 -0.0308  0.1378 -0.1750
44172SOL     OW41483   0.228   2.055   8.231 -0.2459 -0.3777  0.2811
44172SOL    HW141484   0.274   2.094   8.157 -0.8662  0.1836  0.1760
44172SOL    HW241485   0.235   2.120   8.301 -2.8452  0.8394 -0.4491
44173SOL     OW41486   4.679   0.977   6.446  0.0360 -0.1353  0.4141
44173SOL    HW141487   4.721   1.044   6.393  1.1975 -0.2162  1.1939
44173SOL    HW241488   4.723   0.896   6.421 -0.4209 -0.4048  0.4610
44174SOL     OW41489   8.416  11.273   9.151  0.3098 -0.0723 -0.3849
44174SOL    HW141490   8.432  11.317   9.067 -0.0185  0.5783 -0.1129
44174SOL    HW241491   8.446  11.336   9.217 -4.1373  1.7635  0.2508
44175SOL     OW41492   1.956   9.500   1.549 -0.1002 -0.6405 -0.1234
44175SOL    HW141493   1.993   9.419   1.585 -0.2408 -0.7916 -0.3231
44175SOL    HW241494   1.896   9.531   1.617  1.1426  0.1442  0.6510
44176SOL     OW41495   2.322   8.067   4.760  0.1313 -0.1419  0.6260
44176SOL    HW141496   2.280   8.093   4.678  0.7020 -0.3602  0.2610
44176SOL    HW241497   2.267   7.995   4.792  0.2640 -0.4805  0.1096
44177SOL     OW41498   1.535   0.601   9.462  0.1155 -0.4840  0.0346
44177SOL    HW141499   1.444   0.572   9.472  0.3043 -0.7866  0.9404
44177SOL    HW241500   1.586   0.542   9.517  0.9679 -0.8088 -1.0523
44178SOL     OW41501   6.783   7.474  10.970  0.1543  0.3628 -0.0254
44178SOL    HW141502   6.765   7.412  11.041  0.4096  0.3374  0.0166
44178SOL    HW241503   6.696   7.500  10.938  0.0384  0.4179  0.3320
44179SOL     OW41504   6.131   8.204   6.532  0.0814 -0.3255  0.6926
44179SOL    HW141505   6.207   8.234   6.581  0.0684 -0.0237  0.5365
44179SOL    HW241506   6.119   8.271   6.464 -1.5156  0.7295  1.9235
44180SOL     OW41507  10.027   2.817   6.453 -0.3920 -0.3493  0.3878
44180SOL    HW141508  10.037   2.828   6.358  0.1919  0.4160  0.5281
44180SOL    HW241509   9.995   2.902   6.484 -1.5087 -0.8869  0.7660
44181SOL     OW41510   4.165   1.250   2.731 -0.0636  0.6966 -0.0098
44181SOL    HW141511   4.220   1.183   2.772 -0.1263  0.8555  0.3389
44181SOL    HW241512   4.227   1.318   2.705  0.1170  0.1089 -1.1912
44182SOL     OW41513   5.075  10.804   4.044 -0.4813 -0.5024 -0.1694
44182SOL    HW141514   5.133  10.873   4.011 -1.5489  2.9748  4.3113
44182SOL    HW241515   5.132  10.748   4.098 -0.6255  1.0930  1.7351
44183SOL     OW41516   9.598   3.698   1.459  0.1222  0.2405  0.6627
44183SOL    HW141517   9.651   3.634   1.412 -0.8064 -0.0724 -0.0002
44183SOL    HW241518   9.519   3.707   1.405 -0.5827  0.5384  1.7214
44184SOL     OW41519   0.780   2.738   5.746 -0.3225  0.1456 -0.2143
44184SOL    HW141520   0.807   2.798   5.676  1.1292  1.1128  1.0937
44184SOL    HW241521   0.838   2.662   5.735 -1.8267 -0.8605 -1.5687
44185SOL     OW41522   6.738   5.256   7.260 -0.3405  0.0574  0.0029
44185SOL    HW141523   6.685   5.198   7.315 -1.0566 -0.1297 -0.8630
44185SOL    HW241524   6.771   5.200   7.191 -0.1228  0.4558 -0.2180
44186SOL     OW41525  11.712  10.866  11.986  0.0673 -0.9633  0.4197
44186SOL    HW141526  11.786  10.900  12.037  0.0947 -0.6784  0.1927
44186SOL    HW241527  11.719  10.911  11.901 -0.0672 -1.3205  0.2198
44187SOL     OW41528   3.127   4.279   7.291  0.3055 -0.0643 -0.6148
44187SOL    HW141529   3.108   4.367   7.323 -2.8543 -0.8631  0.0722
44187SOL    HW241530   3.122   4.223   7.368  0.1605 -1.1012 -1.3527
44188SOL     OW41531   5.315   8.733   8.656  0.2785  0.0847 -0.4457
44188SOL    HW141532   5.285   8.678   8.583 -0.5838 -0.2893  0.1682
44188SOL    HW241533   5.273   8.818   8.641  0.5604  0.1831 -0.6883
44189SOL     OW41534   4.892   2.743   3.956 -0.5714 -0.0448  0.3048
44189SOL    HW141535   4.913   2.671   4.016 -0.2673 -0.0473  0.1972
44189SOL    HW241536   4.807   2.775   3.986  0.7420  1.7438  2.4987
44190SOL     OW41537   0.692   0.735   6.099 -0.0175  0.4889 -0.0095
44190SOL    HW141538   0.723   0.666   6.041 -1.4415  0.0212 -0.2564
44190SOL    HW241539   0.764   0.749   6.160 -0.2768 -2.4379  1.1440
44191SOL     OW41540   6.799   7.923   3.440  0.1101 -0.3455 -0.3004
44191SOL    HW141541   6.835   7.835   3.446  2.7706  0.6739  0.4098
44191SOL    HW241542   6.755   7.937   3.523 -0.4709 -1.0386 -0.4834
44192SOL     OW41543   1.089   9.615   2.436  1.4510 -0.0114 -0.5074
44192SOL    HW141544   1.041   9.557   2.495  1.3033  0.4424 -0.1780
44192SOL    HW241545   1.177   9.577   2.432  1.6430  0.2964  0.5072
44193SOL     OW41546   0.584   7.559   1.961 -0.2513  0.4223 -0.5679
44193SOL    HW141547   0.660   7.512   1.995  0.0104  0.0049 -1.6915
44193SOL    HW241548   0.617   7.648   1.944  0.5753 -0.2587 -2.9097
44194SOL     OW41549   2.799   0.645   9.883 -0.0532 -0.6654 -0.0980
44194SOL    HW141550   2.797   0.652   9.787 -1.5109  0.1900 -0.0367
44194SOL    HW241551   2.892   0.637   9.904  0.6748  2.5556 -1.4015
44195SOL     OW41552   7.968   6.841   6.203  0.1856  0.5784  0.0900
44195SOL    HW141553   7.947   6.891   6.124 -1.3512 -1.6543 -1.0079
44195SOL    HW241554   7.981   6.752   6.172  0.9859 -0.0812  2.1999
44196SOL     OW41555  11.842   9.911   1.949  0.3234  0.7568  0.4140
44196SOL    HW141556  11.773   9.951   2.002 -1.7300  0.2191 -1.6474
44196SOL    HW241557  11.845   9.964   1.869  0.0501 -1.0031 -0.8437
44197SOL     OW41558   7.224   0.444   9.025 -0.8032  0.0834  0.2677
44197SOL    HW141559   7.172   0.372   8.990 -0.4999  0.7681 -1.7440
44197SOL    HW241560   7.311   0.407   9.037 -1.4468 -0.8174  2.7729
44198SOL     OW41561   1.077   2.828   0.029  0.0687  0.2643 -0.0733
44198SOL    HW141562   1.118   2.888   0.091 -1.2272 -0.6499  1.7826
44198SOL    HW241563   1.069   2.746   0.077  0.1736 -0.8860 -1.9196
44199SOL     OW41564  10.492   3.059   8.190 -0.2047  0.2736  0.1597
44199SOL    HW141565  10.400   3.046   8.213 -0.3954  0.4732 -0.4675
44199SOL    HW241566  10.490   3.080   8.096  0.2597  2.4583  0.5817
44200SOL     OW41567   5.450   0.789  12.467 -0.4545 -0.0156  0.1256
44200SOL    HW141568   5.406   0.808  12.385 -0.1891  0.6807  0.1378
44200SOL    HW241569   5.496   0.870  12.489  1.1336 -0.8166 -0.0801
44201SOL     OW41570   3.651   0.749   3.940 -0.5587 -0.3112 -0.1543
44201SOL    HW141571   3.624   0.713   3.856  2.5016  1.4258 -2.0821
44201SOL    HW241572   3.716   0.687   3.973 -0.8376 -0.3643  0.2977
44202SOL     OW41573  11.186   2.718   3.114  0.3306  0.5459 -0.1224
44202SOL    HW141574  11.274   2.743   3.088  0.0988  2.3681  0.6571
44202SOL    HW241575  11.169   2.770   3.193 -0.6708 -1.3286  0.9833
44203SOL     OW41576  10.568   0.532  12.569  0.8937 -0.1723  0.1366
44203SOL    HW141577  10.541   0.523  12.660  1.5248  1.1221  0.4883
44203SOL    HW241578  10.650   0.483  12.563  1.2246  0.3243  0.4706
44204SOL     OW41579   1.891   5.004   5.948 -0.1926  0.3165 -0.5424
44204SOL    HW141580   1.896   5.056   5.868 -3.2147 -1.6420 -2.1809
44204SOL    HW241581   1.954   4.933   5.934  3.5056  2.8182  1.4552
44205SOL     OW41582   3.386   3.741   3.544 -0.0843 -0.0239 -0.3851
44205SOL    HW141583   3.422   3.678   3.607 -0.4285  0.0807 -0.0808
44205SOL    HW241584   3.299   3.707   3.524 -0.4413  0.5923  0.1106
44206SOL     OW41585  10.812   2.348   3.157  0.5878  0.1048  0.3138
44206SOL    HW141586  10.882   2.333   3.222  0.2035  1.0076  0.9539
44206SOL    HW241587  10.732   2.322   3.202  0.3293  0.6208  0.1564
44207SOL     OW41588   8.146   6.327   4.061 -0.3458 -0.0269 -0.8051
44207SOL    HW141589   8.235   6.361   4.055 -0.4500  0.5249  0.4666
44207SOL    HW241590   8.144   6.255   3.998  0.8686  0.2169 -1.1546
44208SOL     OW41591   0.025   7.920   3.218 -0.3269 -0.4742  0.1314
44208SOL    HW141592   0.090   7.981   3.255  0.3065 -1.0571  0.0002
44208SOL    HW241593  -0.026   7.974   3.158  0.6710 -0.1969 -0.5043
44209SOL     OW41594  11.951  11.011   0.553  0.5128 -0.3998 -0.3191
44209SOL    HW141595  11.937  11.085   0.494 -1.4289 -1.2465 -1.0063
44209SOL    HW241596  11.952  10.934   0.496  0.3329 -1.0858  0.5736
44210SOL     OW41597   3.167   6.167   6.529 -0.4109  0.1892  0.4596
44210SOL    HW141598   3.193   6.102   6.464  4.0665  1.2982  0.7928
44210SOL    HW241599   3.168   6.250   6.481  0.0905  0.6743  1.2833
44211SOL     OW41600   0.783  11.209   3.665 -0.0550 -0.3524 -0.0236
44211SOL    HW141601   0.789  11.304   3.655 -0.9472 -0.4747 -2.2708
44211SOL    HW241602   0.697  11.195   3.705 -1.4908 -0.2576 -2.7719
44212SOL     OW41603   1.360   5.511   9.434 -0.1625  0.0612  0.3782
44212SOL    HW141604   1.289   5.447   9.439  1.3471 -2.0436 -2.2771
44212SOL    HW241605   1.414   5.493   9.511 -0.8458 -0.4766  0.7431
44213SOL     OW41606   2.736  10.453   9.553  0.2123 -0.2600  0.0570
44213SOL    HW141607   2.730  10.358   9.539  1.3755 -0.0931 -1.9704
44213SOL    HW241608   2.748  10.462   9.648  1.1133 -2.2085  0.1864
44214SOL     OW41609   2.357   8.324   0.136  0.4238  0.2767 -0.4730
44214SOL    HW141610   2.327   8.237   0.110  0.0298  0.5873 -1.0811
44214SOL    HW241611   2.292   8.384   0.100  1.2091  0.8900 -0.9207
44215SOL     OW41612  10.064   6.425   5.984 -0.4231  0.0326 -0.5606
44215SOL    HW141613  10.040   6.518   5.989 -0.7315 -0.0938  1.1301
44215SOL    HW241614   9.989   6.383   5.942 -0.6371  0.4470 -0.5975
44216SOL     OW41615   1.320   2.623   1.219  0.5451  0.1850  0.2495
44216SOL    HW141616   1.306   2.586   1.132  1.7567  0.0400  0.0989
44216SOL    HW241617   1.301   2.716   1.209  0.4039  0.1188 -0.1019
44217SOL     OW41618   2.387   2.246   1.476 -0.0504 -0.3843 -0.0978
44217SOL    HW141619   2.389   2.340   1.454 -1.2216 -0.0556  1.1099
44217SOL    HW241620   2.384   2.244   1.571  0.9166 -1.6966 -0.0748
44218SOL     OW41621   7.080   8.307   5.625 -0.6985  0.3709 -0.0262
44218SOL    HW141622   7.033   8.368   5.568 -1.2280  0.8821  0.9289
44218SOL    HW241623   7.154   8.358   5.658  0.3777 -0.3270 -1.2540
44219SOL     OW41624  10.062   1.615   5.743  0.0473 -0.1786 -0.3055
44219SOL    HW141625  10.060   1.681   5.812 -0.0053 -0.4217 -0.0705
44219SOL    HW241626  10.044   1.663   5.662  1.3917  0.3245 -0.3250
44220SOL     OW41627  11.480   8.582  12.312  0.0842  0.0988 -0.2944
44220SOL    HW141628  11.566   8.545  12.295 -0.5896 -1.6050 -0.1369
44220SOL    HW241629  11.429   8.563  12.233 -0.5760 -0.2832  0.2092
44221SOL     OW41630   7.983   2.974   9.923 -0.2287 -0.2562  0.5981
44221SOL    HW141631   8.049   2.936   9.981 -0.1933 -1.2940 -0.0962
44221SOL    HW241632   7.932   2.899   9.892 -1.8139  0.5217  1.1805
44222SOL     OW41633   3.217  12.286   8.393  0.0040  0.2453  0.3586
44222SOL    HW141634   3.205  12.191   8.393  0.5589  0.1559 -1.1359
44222SOL    HW241635   3.310  12.299   8.411  0.3611  0.3905 -1.3721
44223SOL     OW41636  12.354  10.271   5.158  0.1349 -0.1122 -0.1009
44223SOL    HW141637  12.391  10.359   5.150  0.9762 -0.4625 -0.1565
44223SOL    HW241638  12.404  10.218   5.096  1.0222 -1.0693  1.3705
44224SOL     OW41639  12.354   4.065   6.791 -0.3568 -0.2649 -0.5025
44224SOL    HW141640  12.322   4.084   6.703 -0.5993  1.6273 -0.0543
44224SOL    HW241641  12.281   4.090   6.849  0.4582  0.3117  0.3158
44225SOL     OW41642   0.734  10.072   2.778 -0.2355 -0.1529  0.1347
44225SOL    HW141643   0.700  10.146   2.727 -0.1484 -0.4849 -0.4110
44225SOL    HW241644   0.732  10.103   2.868 -3.2544 -0.6057  0.3258
44226SOL     OW41645  11.717  10.039  11.450  0.2075  0.8028  0.5000
44226SOL    HW141646  11.772   9.963  11.436 -0.8805 -0.1902  1.4119
44226SOL    HW241647  11.628  10.006  11.444 -0.2940  2.0712  0.5907
44227SOL     OW41648   2.140   5.402  10.128  0.5517 -0.4254 -0.4739
44227SOL    HW141649   2.216   5.449  10.163 -0.0877 -0.5843  1.2135
44227SOL    HW241650   2.088   5.469  10.084  1.5469 -0.2803 -1.4792
44228SOL     OW41651   2.487  11.142  12.529 -0.1457 -0.0747 -0.7461
44228SOL    HW141652   2.407  11.153  12.580 -0.0393  0.7224 -0.7426
44228SOL    HW241653   2.465  11.074  12.465 -0.4125 -0.7904  0.0735
44229SOL     OW41654   6.919  11.863   5.173  0.1472  0.4451 -0.0986
44229SOL    HW141655   6.999  11.916   5.176  1.5254 -1.5373  1.4648
44229SOL    HW241656   6.892  11.856   5.265 -1.6964  0.8402 -0.5761
44230SOL     OW41657   3.805   7.192   6.680  0.2873  0.2360  0.3469
44230SOL    HW141658   3.747   7.253   6.635  0.8062 -0.4696 -1.3540
44230SOL    HW241659   3.749   7.120   6.708 -0.4225  1.6171  2.7987
44231SOL     OW41660   5.968   1.412   6.124  0.1975  0.3230 -0.2017
44231SOL    HW141661   5.975   1.398   6.030  1.8142  0.4510 -0.1267
44231SOL    HW241662   5.990   1.327   6.163  1.3190  0.7404  0.0880
44232SOL     OW41663  11.949  12.012   0.889  0.6624 -0.4681  0.3118
44232SOL    HW141664  12.003  12.091   0.899  0.0886 -0.0546  0.1175
44232SOL    HW241665  11.895  12.011   0.968 -0.0390 -0.1231 -0.1610
44233SOL     OW41666   3.301   1.739  12.202  0.8595  0.0781 -0.0494
44233SOL    HW141667   3.253   1.700  12.276  0.6327  2.2484  1.0337
44233SOL    HW241668   3.298   1.833  12.219  2.4852  0.5121 -1.8442
44234SOL     OW41669   6.400   9.345   8.532  0.1240 -0.0323  0.0522
44234SOL    HW141670   6.384   9.299   8.450 -1.3283 -0.0716  0.3342
44234SOL    HW241671   6.489   9.379   8.524  0.8583 -1.9520 -0.6132
44235SOL     OW41672   8.501   2.711   1.951  0.5471  0.8789 -0.0509
44235SOL    HW141673   8.566   2.682   2.015  1.2629  1.0134 -0.7082
44235SOL    HW241674   8.517   2.805   1.941 -1.2749  1.4186  1.5090
44236SOL     OW41675  10.532  10.124   9.021 -0.0189  1.0207  0.1210
44236SOL    HW141676  10.483  10.092   8.945 -1.2640  0.8376  0.9760
44236SOL    HW241677  10.491  10.081   9.096  0.6176  1.8794  0.9806
44237SOL     OW41678   0.436   0.902   3.304  0.3287  0.0709  0.0331
44237SOL    HW141679   0.410   0.830   3.246  0.7671  0.8253 -1.1376
44237SOL    HW241680   0.358   0.957   3.311  0.1231 -0.2756  0.5892
44238SOL     OW41681   5.035   9.880   0.409  0.6289 -0.0828 -0.1737
44238SOL    HW141682   5.067   9.925   0.332 -0.7146  0.5086 -0.4136
44238SOL    HW241683   4.955   9.835   0.380 -0.0756  0.4024  0.9235
44239SOL     OW41684  11.850   0.799   9.198 -0.6297  0.3396 -0.5505
44239SOL    HW141685  11.814   0.745   9.128  1.6337 -1.2806 -0.5903
44239SOL    HW241686  11.935   0.828   9.165 -0.8996  2.2651  0.2974
44240SOL     OW41687   2.245   2.257   5.718  0.2484  0.3466 -0.6565
44240SOL    HW141688   2.339   2.238   5.724 -0.0527 -1.4219 -1.1774
44240SOL    HW241689   2.216   2.265   5.809  1.1666  2.5689 -0.4796
44241SOL     OW41690   1.647   7.717  10.798 -0.0295 -0.7284  0.3788
44241SOL    HW141691   1.557   7.692  10.775 -0.6462  1.5516  0.0490
44241SOL    HW241692   1.688   7.737  10.714  0.2002 -0.0360  0.6493
44242SOL     OW41693   4.643   2.551   3.172 -0.4177 -0.6157 -0.0311
44242SOL    HW141694   4.637   2.487   3.101 -1.7890 -0.3807 -0.1356
44242SOL    HW241695   4.714   2.610   3.145  0.1952 -1.4972 -0.3989
44243SOL     OW41696   6.701   0.123   3.320 -0.0188  0.1208 -0.2273
44243SOL    HW141697   6.641   0.105   3.248 -0.4327  0.6964 -0.0294
44243SOL    HW241698   6.682   0.055   3.385 -0.8986  0.6501  0.0966
44244SOL     OW41699   3.136  12.384  11.623  0.0557 -0.6891  0.0557
44244SOL    HW141700   3.153  12.366  11.715  0.8767 -1.0681 -0.1631
44244SOL    HW241701   3.214  12.354  11.577 -0.6643 -1.2315 -0.8530
44245SOL     OW41702   1.474   2.107   7.764 -0.2491  0.2298 -0.3238
44245SOL    HW141703   1.457   2.014   7.779  0.7295  0.3040  1.5754
44245SOL    HW241704   1.415   2.152   7.825  0.1849  0.7972 -0.3139
44246SOL     OW41705   8.890   8.727  11.850  0.6076 -0.2987 -0.2001
44246SOL    HW141706   8.878   8.633  11.863  0.5372 -0.1233  1.2013
44246SOL    HW241707   8.983   8.736  11.826  0.7367 -0.6908  0.1280
44247SOL     OW41708   5.013   0.849   4.099  0.7010  0.2192  0.1315
44247SOL    HW141709   4.998   0.864   4.192  2.7097 -4.5206  1.5389
44247SOL    HW241710   4.959   0.772   4.078  0.2799  1.1556 -2.6790
44248SOL     OW41711  12.074   7.245   8.775  0.5916  0.2003 -0.8924
44248SOL    HW141712  12.086   7.330   8.732  2.4140  0.1332 -0.5832
44248SOL    HW241713  12.067   7.266   8.868 -2.5208  0.2692 -1.0493
44249SOL     OW41714   6.709   7.373   4.240 -0.0486  0.0928 -0.2472
44249SOL    HW141715   6.644   7.442   4.230  0.1504  0.2504 -0.4787
44249SOL    HW241716   6.660   7.297   4.269 -0.1023  0.7040  1.4133
44250SOL     OW41717  12.321   6.638   3.920  0.1436 -0.4904 -0.1192
44250SOL    HW141718  12.247   6.596   3.964 -0.1707  1.3503  1.2504
44250SOL    HW241719  12.281   6.687   3.849  0.4245 -1.8336 -1.2418
44251SOL     OW41720   2.286  11.485   3.579  0.3318 -0.4753 -0.1339
44251SOL    HW141721   2.338  11.427   3.523 -0.1075 -1.5164  0.4993
44251SOL    HW241722   2.326  11.571   3.569  1.8558 -1.1428 -0.0523
44252SOL     OW41723   7.121   8.574   1.527 -0.1392  0.5696 -0.0771
44252SOL    HW141724   7.122   8.571   1.622  0.2018  1.5500 -0.0378
44252SOL    HW241725   7.108   8.483   1.500 -2.1026  0.5252  0.9105
44253SOL     OW41726   1.766   3.214   0.192  0.1427 -0.1985  0.5707
44253SOL    HW141727   1.713   3.261   0.257  0.0297 -1.1470  1.1882
44253SOL    HW241728   1.706   3.195   0.120 -0.2485 -0.8200  1.0441
44254SOL     OW41729  10.462   4.310   0.087 -0.5109  0.2775 -0.3782
44254SOL    HW141730  10.434   4.356   0.166 -2.5988  0.4398 -1.1397
44254SOL    HW241731  10.411   4.229   0.087  0.3186 -0.2584 -0.9874
44255SOL     OW41732   4.727  10.016  10.719 -0.0029  0.1682 -0.0743
44255SOL    HW141733   4.715   9.972  10.635  0.9524  0.0172 -0.1527
44255SOL    HW241734   4.682   9.960  10.782  2.4256 -1.8250  0.0676
44256SOL     OW41735   4.647   2.968   8.751 -0.2469 -0.1814 -0.1806
44256SOL    HW141736   4.681   3.005   8.669  0.2777  0.9550  0.5382
44256SOL    HW241737   4.563   2.929   8.726 -0.6450  1.1547 -1.0585
44257SOL     OW41738   0.896   2.629   9.127 -0.0749 -0.1128 -0.0871
44257SOL    HW141739   0.873   2.674   9.208 -0.1474 -2.7929  1.4845
44257SOL    HW241740   0.814   2.629   9.076 -0.5412 -0.0391  0.6479
44258SOL     OW41741   6.494   7.855   2.055  0.4871  0.2765 -0.0172
44258SOL    HW141742   6.441   7.825   1.981  1.0803  1.3610 -0.9065
44258SOL    HW241743   6.517   7.775   2.102 -0.8652 -0.3263 -0.3366
44259SOL     OW41744   8.672   2.428  11.083 -0.3448  0.2092 -0.1732
44259SOL    HW141745   8.712   2.392  11.162 -2.2718  0.3147  0.9176
44259SOL    HW241746   8.578   2.427  11.101 -0.9118 -0.2787 -2.6864
44260SOL     OW41747  10.908   0.125  11.707 -0.3587 -0.1487 -0.1942
44260SOL    HW141748  10.864   0.193  11.759 -0.9294 -0.8884  0.3107
44260SOL    HW241749  10.891   0.044  11.754  1.0004 -0.5484 -0.3642
44261SOL     OW41750   1.446   2.711   8.847 -0.4935 -0.4521 -0.2166
44261SOL    HW141751   1.501   2.776   8.803 -0.5673  0.3819  0.8590
44261SOL    HW241752   1.421   2.650   8.778  0.3689  0.1225 -1.0718
44262SOL     OW41753  11.916   4.488   9.563 -0.1669 -0.2226 -0.0526
44262SOL    HW141754  11.945   4.551   9.629  0.9776 -0.5632 -0.2023
44262SOL    HW241755  11.868   4.541   9.499  2.3709  0.9164 -1.1831
44263SOL     OW41756  11.257   9.754  10.195  0.0972  0.5068 -0.4253
44263SOL    HW141757  11.352   9.740  10.197  0.1374  0.7932 -0.3621
44263SOL    HW241758  11.234   9.743  10.103  0.0802 -0.3086 -0.3281
44264SOL     OW41759  10.851  10.834   5.363  0.2320 -0.4719 -0.3198
44264SOL    HW141760  10.836  10.925   5.388  1.6246 -0.0239 -0.9982
44264SOL    HW241761  10.771  10.809   5.317 -0.0476  0.5203 -0.4145
44265SOL     OW41762   8.842   4.855  12.509 -0.6699 -0.2266  0.5419
44265SOL    HW141763   8.898   4.913  12.561 -2.8362  1.1635  1.4852
44265SOL    HW241764   8.868   4.767  12.535  1.4217  0.3277  0.5027
44266SOL     OW41765   1.349   1.783   6.961 -0.0392  0.1206 -0.5846
44266SOL    HW141766   1.366   1.712   6.900  0.8104  1.6658 -2.2202
44266SOL    HW241767   1.432   1.796   7.006  0.4630  1.4901 -1.8612
44267SOL     OW41768   3.493   6.338   2.224 -0.3588 -0.5558 -0.4578
44267SOL    HW141769   3.553   6.266   2.205 -0.2429 -0.3097 -1.0363
44267SOL    HW241770   3.414   6.318   2.173 -2.0300 -2.4819  2.5819
44268SOL     OW41771   9.364  10.495   3.167 -0.1783 -0.1899 -0.8574
44268SOL    HW141772   9.437  10.467   3.223  0.5293  0.3259 -1.4971
44268SOL    HW241773   9.290  10.503   3.226  0.4690 -0.0026 -0.0503
44269SOL     OW41774   1.970   0.222   7.362  0.2313 -0.6590 -0.1440
44269SOL    HW141775   2.050   0.183   7.327 -0.3983 -0.8204 -1.4611
44269SOL    HW241776   1.984   0.316   7.353 -0.0164 -0.7050 -1.0599
44270SOL     OW41777  12.279   4.203   9.576 -0.6392  0.6599  0.1717
44270SOL    HW141778  12.266   4.234   9.666  1.0778  0.4371  0.5279
44270SOL    HW241779  12.212   4.248   9.525 -1.3540  1.1341  1.4862
44271SOL     OW41780   0.167   0.624   2.364 -0.0965  0.4331  0.6876
44271SOL    HW141781   0.227   0.648   2.293 -0.8201  0.8726  0.2138
44271SOL    HW241782   0.213   0.555   2.411 -0.5864 -1.6335 -1.6363
44272SOL     OW41783  10.658   9.339  11.442 -0.0116 -0.4352 -0.1223
44272SOL    HW141784  10.730   9.307  11.387  0.1806 -0.5135  0.1687
44272SOL    HW241785  10.604   9.261  11.458 -0.5393 -0.2391 -0.9003
44273SOL     OW41786   3.887   8.852   9.513 -0.2182  0.0231  0.2330
44273SOL    HW141787   3.898   8.937   9.555 -0.5725  0.0490  0.2764
44273SOL    HW241788   3.809   8.862   9.458 -0.8361 -0.5626  0.9792
44274SOL     OW41789   2.207  12.488   4.018  0.0659  0.1179 -0.0654
44274SOL    HW141790   2.274  12.447   4.072 -0.4570 -0.3015  0.2688
44274SOL    HW241791   2.251  12.505   3.934  0.1962 -1.4126 -0.3242
44275SOL     OW41792   9.833   7.258   6.719 -0.9410  0.3333 -0.8416
44275SOL    HW141793   9.916   7.290   6.754 -0.8933 -0.5405 -0.1273
44275SOL    HW241794   9.770   7.276   6.789 -0.9804 -0.7868 -0.5797
44276SOL     OW41795  10.340  10.420  12.189 -0.3335  0.7092 -0.4640
44276SOL    HW141796  10.346  10.330  12.157  1.4990  1.2317 -1.7304
44276SOL    HW241797  10.363  10.474  12.114  1.3025  2.1130  0.9530
44277SOL     OW41798   6.947  10.342   1.981  0.2770  0.2431  0.0087
44277SOL    HW141799   6.948  10.374   1.891 -0.8539  0.5032  0.0720
44277SOL    HW241800   6.883  10.397   2.026  0.3912 -0.2637  0.8277
44278SOL     OW41801   0.598   4.794   4.636 -0.1048 -0.0884 -0.2659
44278SOL    HW141802   0.542   4.782   4.712 -1.5878  1.9990 -0.9228
44278SOL    HW241803   0.658   4.865   4.661  0.2896 -0.3005 -0.5932
44279SOL     OW41804   5.538   1.110   2.553  0.1757 -0.3972 -0.2788
44279SOL    HW141805   5.590   1.049   2.606  0.9858  1.1811  0.8257
44279SOL    HW241806   5.447   1.091   2.577  0.3751 -1.5127 -0.3547
44280SOL     OW41807   7.752   8.045   5.346 -0.0070  0.4867  0.5678
44280SOL    HW141808   7.692   7.976   5.373  2.1984 -1.3108  1.1334
44280SOL    HW241809   7.753   8.040   5.251 -1.2623  1.0504  0.4982
44281SOL     OW41810   6.569   0.435   1.026  0.3431  0.1428  0.3876
44281SOL    HW141811   6.514   0.509   0.999 -0.7995 -0.6832  0.3644
44281SOL    HW241812   6.633   0.425   0.956 -0.4943  0.1226 -0.3929
44282SOL     OW41813   5.745   9.451   6.974  0.4726  0.0643  0.3147
44282SOL    HW141814   5.768   9.483   7.062 -0.1346 -0.9127  0.8490
44282SOL    HW241815   5.664   9.402   6.987  0.6371 -0.5032 -0.7160
44283SOL     OW41816   6.122   2.697   3.369  0.4680  0.1901 -0.1343
44283SOL    HW141817   6.167   2.628   3.321  2.0484  1.1352 -0.0858
44283SOL    HW241818   6.189   2.734   3.427 -0.8934  0.3382  1.4276
44284SOL     OW41819   7.334   3.187  10.962  0.2894  0.1510  0.3654
44284SOL    HW141820   7.410   3.172  11.019  0.6362  3.3105  0.9134
44284SOL    HW241821   7.367   3.245  10.894 -1.1129 -0.2948 -0.7316
44285SOL     OW41822  11.840  10.244   8.623 -0.2271 -0.2093  0.0011
44285SOL    HW141823  11.792  10.184   8.564 -1.1035 -0.7874  1.2609
44285SOL    HW241824  11.931  10.236   8.595 -0.5836 -0.6387 -1.1332
44286SOL     OW41825  11.316  11.032   5.823  0.6287  0.0917  0.4682
44286SOL    HW141826  11.237  10.993   5.783  0.5187 -0.1788  0.9471
44286SOL    HW241827  11.367  10.957   5.853  1.9971  0.1521 -1.5195
44287SOL     OW41828  12.311   4.685   2.387  0.4298 -0.3070 -0.0825
44287SOL    HW141829  12.292   4.696   2.480  0.5500  0.5427 -0.1516
44287SOL    HW241830  12.404   4.662   2.384  0.0899 -1.8199  0.0859
44288SOL     OW41831  10.001   5.472   3.261 -0.5864  0.7006 -0.5993
44288SOL    HW141832  10.030   5.513   3.180  2.0596 -0.9921 -0.6219
44288SOL    HW241833  10.056   5.511   3.329 -1.1964  0.4489  0.0529
44289SOL     OW41834   3.867   2.465   4.594  0.3508  0.0269  0.0761
44289SOL    HW141835   3.806   2.513   4.649  0.7704 -0.0248  0.5877
44289SOL    HW241836   3.846   2.373   4.610  0.2693  0.0158 -0.0879
44290SOL     OW41837   8.457   8.087   0.134 -0.2953  0.2761  0.0110
44290SOL    HW141838   8.538   8.101   0.086  1.0306 -1.8815  1.4371
44290SOL    HW241839   8.485   8.056   0.220 -2.5523 -2.3434 -0.0317
44291SOL     OW41840   9.167   5.622   7.000 -0.1173  0.7495 -0.1621
44291SOL    HW141841   9.212   5.706   6.995  0.0095  0.7629  1.0339
44291SOL    HW241842   9.197   5.583   7.082 -2.2259  0.7443  0.6663
44292SOL     OW41843   0.298   8.268   2.735 -0.3441 -0.5074  0.1501
44292SOL    HW141844   0.343   8.225   2.807 -0.4379 -0.9715 -0.0665
44292SOL    HW241845   0.205   8.262   2.758 -0.3600 -0.4601  0.0993
44293SOL     OW41846   1.142   1.967  10.605  0.7838  0.2927 -0.3710
44293SOL    HW141847   1.152   2.011  10.689  0.1715  0.2796 -0.2891
44293SOL    HW241848   1.184   2.025  10.542 -0.6658  1.3842 -0.3838
44294SOL     OW41849   9.624   1.837  11.922  0.1131  0.2154  0.3172
44294SOL    HW141850   9.627   1.783  12.000 -0.2450  0.2427  0.3520
44294SOL    HW241851   9.691   1.903  11.935 -0.2910  0.5291  0.8309
44295SOL     OW41852  11.539   8.320  10.642  0.4112 -0.2903  0.1272
44295SOL    HW141853  11.535   8.376  10.564  1.4101 -0.5846 -0.1521
44295SOL    HW241854  11.447   8.305  10.666  0.0609  3.1128  1.4359
44296SOL     OW41855   3.295   2.559   7.563 -0.6227  0.1985  0.1485
44296SOL    HW141856   3.344   2.641   7.556 -0.7147  0.1729 -1.0496
44296SOL    HW241857   3.346   2.505   7.623  0.6629  0.2957 -0.8181
44297SOL     OW41858   4.336   0.061   2.131  0.2491  0.3321 -0.4656
44297SOL    HW141859   4.251   0.076   2.173  0.4613  2.7051 -0.7241
44297SOL    HW241860   4.394   0.125   2.171  1.2027  0.6553 -2.2427
44298SOL     OW41861   2.150  12.070   3.515 -0.3067  0.4761 -0.0394
44298SOL    HW141862   2.178  12.041   3.428 -1.3121  1.0737 -0.5777
44298SOL    HW241863   2.112  11.991   3.555 -0.3712  0.3371 -0.3718
44299SOL     OW41864   1.412   1.484   9.699  0.0260 -0.3080 -0.4544
44299SOL    HW141865   1.507   1.479   9.697  0.1622  1.2746  0.1968
44299SOL    HW241866   1.384   1.450   9.614  1.1662 -0.8206 -0.6342
44300SOL     OW41867  11.019   4.845   4.768 -0.3788  0.1598  0.1849
44300SOL    HW141868  10.927   4.826   4.787 -0.8173  1.1354 -0.8278
44300SOL    HW241869  11.029   4.938   4.787 -0.3288  0.7119 -2.1559
44301SOL     OW41870   3.138   8.966   2.320  0.0338 -0.0407  0.2907
44301SOL    HW141871   3.233   8.959   2.306  0.1306  0.8174  0.4321
44301SOL    HW241872   3.127   9.049   2.366 -0.6086 -1.0611  2.0618
44302SOL     OW41873   3.062   6.685   6.242 -0.5579  0.4644 -0.3423
44302SOL    HW141874   2.982   6.675   6.190 -1.0905  0.5454  0.4518
44302SOL    HW241875   3.126   6.630   6.197 -0.8161  1.0423 -1.4704
44303SOL     OW41876   7.929   9.899  10.492  0.0206  0.2144 -0.4033
44303SOL    HW141877   7.968   9.979  10.457  0.4491 -0.2297 -0.9699
44303SOL    HW241878   7.897   9.924  10.579  0.8774  0.7895 -0.2406
44304SOL     OW41879   9.883  12.244  12.532  0.8119  0.6162 -0.0054
44304SOL    HW141880   9.788  12.246  12.527  0.5890 -3.3562 -0.2782
44304SOL    HW241881   9.902  12.249  12.626  0.3084  0.6827  0.0966
44305SOL     OW41882   0.073   3.131   5.676 -0.1861 -1.3179 -0.1732
44305SOL    HW141883   0.144   3.121   5.613  2.3967  1.6982  1.9644
44305SOL    HW241884   0.104   3.087   5.755 -0.8505 -0.3411  0.6672
44306SOL     OW41885   6.112  11.212   5.040  0.3237 -0.3743  0.4354
44306SOL    HW141886   6.158  11.170   5.113  0.1533 -0.3012  0.5844
44306SOL    HW241887   6.126  11.305   5.053  0.6472 -0.3758  0.1385
44307SOL     OW41888   4.597  12.425   1.085  0.5001  0.0464 -0.0894
44307SOL    HW141889   4.597  12.509   1.039 -2.5036  0.3419  0.2498
44307SOL    HW241890   4.609  12.447   1.177 -0.7925  0.2172  0.0620
44308SOL     OW41891   7.246   6.252  11.638  0.0755  0.0481 -0.0693
44308SOL    HW141892   7.288   6.213  11.715  0.2370 -1.0889 -0.6983
44308SOL    HW241893   7.215   6.177  11.587  1.6266  0.6483 -2.0345
44309SOL     OW41894   9.155   1.646   1.574  0.3290 -0.3481  1.0711
44309SOL    HW141895   9.101   1.674   1.501 -0.8001 -1.5129  1.4163
44309SOL    HW241896   9.224   1.592   1.534  0.3025 -0.1602  0.7713
44310SOL     OW41897   7.229   6.505   5.252 -0.3279 -0.4019  0.3419
44310SOL    HW141898   7.270   6.427   5.290  1.7430  0.2728 -0.3365
44310SOL    HW241899   7.216   6.483   5.160 -3.5649 -1.3457  0.9072
44311SOL     OW41900   8.148   0.216  10.222 -0.1337  0.1313  0.7654
44311SOL    HW141901   8.054   0.197  10.233 -0.1335  1.0231  2.6682
44311SOL    HW241902   8.153   0.311  10.224  0.8000  0.0937  0.4685
44312SOL     OW41903   4.848   1.097   0.085 -0.0551 -0.4613  0.2456
44312SOL    HW141904   4.824   1.141   0.167 -0.0773 -0.1542  0.0744
44312SOL    HW241905   4.815   1.154   0.016 -0.4171 -0.9369  0.0221
44313SOL     OW41906   3.833  11.575   9.652  0.3349  0.1702 -0.1808
44313SOL    HW141907   3.909  11.625   9.623 -0.0954 -0.0911 -1.8708
44313SOL    HW241908   3.764  11.599   9.591 -0.4922 -0.8309  0.3281
44314SOL     OW41909   3.532   5.719   8.559  0.6166  0.1845 -0.2045
44314SOL    HW141910   3.599   5.769   8.605  1.2834 -1.4654  0.6989
44314SOL    HW241911   3.490   5.782   8.501  2.5262  1.3950 -0.3334
44315SOL     OW41912   3.196   2.554   9.134  0.2263  0.2854  0.8390
44315SOL    HW141913   3.158   2.608   9.204 -0.7133 -0.9838  1.3598
44315SOL    HW241914   3.224   2.474   9.179 -1.9593 -1.3016 -0.4089
44316SOL     OW41915   0.790   2.692   8.256  0.0102 -0.5009  0.1430
44316SOL    HW141916   0.745   2.693   8.172 -1.2134 -0.9020  0.7682
44316SOL    HW241917   0.732   2.740   8.315 -0.6127 -2.7240  1.4514
44317SOL     OW41918   6.107  11.447   3.609  0.1575 -0.1385 -0.4354
44317SOL    HW141919   6.025  11.449   3.561 -0.3071 -1.5543  0.2610
44317SOL    HW241920   6.084  11.413   3.695  1.1589  1.2651  0.4363
44318SOL     OW41921   4.810   6.632  10.668  0.0822  0.1138 -0.2655
44318SOL    HW141922   4.818   6.707  10.726  0.5785 -0.0158 -0.1631
44318SOL    HW241923   4.887   6.578  10.688  0.1763 -0.0041 -0.9355
44319SOL     OW41924  11.855   8.257  12.320 -0.0444  0.4033  0.4685
44319SOL    HW141925  11.946   8.285  12.328  0.6476 -1.2694 -0.7681
44319SOL    HW241926  11.860   8.161  12.320 -1.6968  0.2832 -0.6019
44320SOL     OW41927   0.623   0.333  10.418 -0.0698  0.2806 -0.4009
44320SOL    HW141928   0.643   0.243  10.443  3.4782  0.0161 -3.4179
44320SOL    HW241929   0.575   0.325  10.336 -0.1720  1.1870 -0.4454
44321SOL     OW41930  12.556   3.577   0.861 -0.6110  0.1118 -0.2295
44321SOL    HW141931  12.519   3.597   0.775 -0.6122  0.4714 -0.1503
44321SOL    HW241932  12.646   3.611   0.856 -0.5154 -0.1370 -0.1905
44322SOL     OW41933   7.686   4.297  11.706 -0.5274 -0.0942  0.2478
44322SOL    HW141934   7.669   4.347  11.786 -4.0395  0.8577 -0.9418
44322SOL    HW241935   7.650   4.210  11.725 -2.0325  0.3413 -0.4551
44323SOL     OW41936   1.252   2.759   2.914  0.0382 -0.5454  0.3356
44323SOL    HW141937   1.298   2.678   2.933  1.1306 -0.0663 -0.1616
44323SOL    HW241938   1.318   2.815   2.873 -0.8944  0.3099 -0.0486
44324SOL     OW41939   7.029   2.896   6.892  0.2000 -0.1950 -0.1856
44324SOL    HW141940   6.943   2.881   6.853 -0.0341  0.0065  0.2416
44324SOL    HW241941   7.033   2.832   6.963 -0.8454  1.7117  1.7193
44325SOL     OW41942   8.766   3.606  12.069 -0.5091 -0.3630  0.7176
44325SOL    HW141943   8.789   3.584  11.978 -0.1235 -0.2699  0.7901
44325SOL    HW241944   8.748   3.700  12.067  0.3292 -0.1921  0.8981
44326SOL     OW41945   9.184   2.036   2.690  0.1770  0.2941  0.0615
44326SOL    HW141946   9.198   2.016   2.783 -1.0381  0.4864  0.3027
44326SOL    HW241947   9.094   2.010   2.673 -0.3661  2.3104 -0.4726
44327SOL     OW41948   1.032  10.117  12.292  0.1487 -0.2931  0.6805
44327SOL    HW141949   0.969  10.056  12.330  0.1175 -0.5877  0.1613
44327SOL    HW241950   1.113  10.102  12.340 -0.3949  0.7281  1.9994
44328SOL     OW41951   1.458   8.374   7.428  0.5076  0.0992  0.1605
44328SOL    HW141952   1.460   8.342   7.338  1.1375 -1.4118  0.6764
44328SOL    HW241953   1.410   8.306   7.476  0.5644  0.6666  1.0432
44329SOL     OW41954   2.060   9.923  11.825  0.5391 -0.1936 -0.4413
44329SOL    HW141955   2.099   9.900  11.910  1.7385  0.4743 -0.7919
44329SOL    HW241956   1.999   9.852  11.807  0.5054 -0.5122  0.8310
44330SOL     OW41957  12.304   2.817   6.148 -0.2262 -0.4313 -0.5679
44330SOL    HW141958  12.226   2.765   6.168  0.5657 -1.1719  0.7128
44330SOL    HW241959  12.330   2.856   6.231 -0.5257  1.7136 -1.4050
44331SOL     OW41960   6.137   0.721   9.884 -0.3074 -0.0068  0.1468
44331SOL    HW141961   6.080   0.687   9.953 -0.0779  1.2611  0.9764
44331SOL    HW241962   6.102   0.807   9.863  0.2960  0.0828 -0.5366
44332SOL     OW41963   9.080   3.442  10.618 -0.1632 -0.0701  0.1554
44332SOL    HW141964   9.103   3.371  10.558  2.1423  0.9679 -0.3025
44332SOL    HW241965   9.003   3.482  10.578 -0.4730 -1.2437 -0.4851
44333SOL     OW41966   7.295   7.471  11.741  0.1941  0.1379  0.1148
44333SOL    HW141967   7.352   7.397  11.724  1.2609  1.1398 -0.7691
44333SOL    HW241968   7.331   7.543  11.689 -0.5541  1.4062  1.2708
44334SOL     OW41969   6.120   3.783   0.763 -0.3200  0.0949 -0.5900
44334SOL    HW141970   6.026   3.775   0.748 -0.4774 -3.3834  1.3928
44334SOL    HW241971   6.159   3.771   0.676 -1.6403  0.7595 -1.3063
44335SOL     OW41972   2.161   5.312   3.750  0.8935 -0.0222  0.3096
44335SOL    HW141973   2.156   5.306   3.845  0.8590  2.2039  0.5018
44335SOL    HW241974   2.076   5.281   3.719  0.9987 -0.9995  0.9706
44336SOL     OW41975   7.352  11.636   9.463 -0.4244  0.2110  0.3144
44336SOL    HW141976   7.261  11.629   9.491 -0.2081 -0.1033  0.9682
44336SOL    HW241977   7.356  11.717   9.413 -1.0383  0.2906  0.3893
44337SOL     OW41978  10.022   3.390   9.093 -0.0790  0.1252 -0.2995
44337SOL    HW141979  10.060   3.399   9.006 -0.9953  0.0457 -0.7248
44337SOL    HW241980  10.055   3.307   9.126 -1.9297 -1.2658 -1.7421
44338SOL     OW41981   0.240   0.756   2.062  0.2428 -0.2456 -0.0804
44338SOL    HW141982   0.209   0.832   2.111 -0.2034  0.1817 -1.0193
44338SOL    HW241983   0.205   0.767   1.974 -0.2588 -1.7993 -0.1059
44339SOL     OW41984   6.637   6.708   2.438 -0.1296 -0.0163 -0.2574
44339SOL    HW141985   6.552   6.702   2.393 -0.2783  3.1551 -0.6305
44339SOL    HW241986   6.619   6.676   2.527 -0.6915 -2.9859 -1.3085
44340SOL     OW41987   9.078   9.361  11.804  0.6039  0.0031  0.1246
44340SOL    HW141988   9.089   9.385  11.712  1.2366  1.0924  0.4775
44340SOL    HW241989   9.005   9.415  11.835  1.2504  0.6005  0.6104
44341SOL     OW41990   8.732  12.212  12.293  0.6135 -0.2078 -0.3351
44341SOL    HW141991   8.787  12.209  12.372 -0.5493 -2.3463  0.4822
44341SOL    HW241992   8.767  12.144  12.236  0.3260  0.0830 -0.8673
44342SOL     OW41993   0.204  12.444   6.888 -0.2973  0.7341  0.2174
44342SOL    HW141994   0.120  12.401   6.871  0.7341 -1.2958 -0.0056
44342SOL    HW241995   0.249  12.444   6.804  1.1216 -0.9728  0.9172
44343SOL     OW41996  11.087  11.761  11.528 -0.1851 -0.2551 -0.0813
44343SOL    HW141997  10.996  11.739  11.549 -0.3749 -0.2623 -0.8594
44343SOL    HW241998  11.102  11.720  11.443  0.6456 -0.4965  0.1722
44344SOL     OW41999  12.530   9.943   5.093  0.1232  0.4312 -0.3211
44344SOL    HW142000  12.445   9.950   5.135  0.7559  0.4107  1.0466
44344SOL    HW242001  12.511   9.930   5.000 -1.3215  1.5106 -0.1969
44345SOL     OW42002   6.939  10.942   6.035 -0.4527  0.1130 -0.5919
44345SOL    HW142003   6.928  10.849   6.015 -1.9384  0.5178 -1.8506
44345SOL    HW242004   6.904  10.951   6.124 -2.7352 -0.1302 -1.4070
44346SOL     OW42005   6.515   1.893   5.475  0.2663  0.0957 -0.6435
44346SOL    HW142006   6.431   1.928   5.507  0.3237  0.8247 -1.2739
44346SOL    HW242007   6.581   1.953   5.511  0.5479 -0.5795 -0.0009
44347SOL     OW42008   6.586  11.505   7.049 -0.6306 -0.0387 -0.4274
44347SOL    HW142009   6.595  11.445   6.975 -1.0223  0.4323 -0.8629
44347SOL    HW242010   6.630  11.461   7.121 -0.6398 -0.7075 -0.8244
44348SOL     OW42011   4.679   8.458   1.716 -0.0145  0.5804 -0.0114
44348SOL    HW142012   4.647   8.403   1.787  1.6396 -0.3035  0.0788
44348SOL    HW242013   4.763   8.421   1.691 -0.9129  0.2723 -3.0689
44349SOL     OW42014   0.300   1.754   3.190 -0.5176 -0.0775 -0.3580
44349SOL    HW142015   0.239   1.821   3.159 -0.0589  0.3345 -0.3928
44349SOL    HW242016   0.278   1.676   3.140 -2.0112 -0.3707  0.7015
44350SOL     OW42017   5.198   9.664   4.709  0.2013 -0.1763  0.5453
44350SOL    HW142018   5.246   9.740   4.740  1.0725 -0.6762  0.4460
44350SOL    HW242019   5.109   9.696   4.694  0.7800  1.0426 -0.3964
44351SOL     OW42020   8.652   9.346   4.828 -0.2894  0.5893  0.2935
44351SOL    HW142021   8.721   9.304   4.776 -1.3560  0.7797 -1.3385
44351SOL    HW242022   8.586   9.278   4.839  0.0025  0.4943  1.6090
44352SOL     OW42023  10.351   9.430   2.673  0.2709 -0.0820 -1.0373
44352SOL    HW142024  10.361   9.422   2.579 -1.6830 -1.0868 -1.2298
44352SOL    HW242025  10.409   9.363   2.710 -0.5860 -1.2104 -1.6694
44353SOL     OW42026   7.311   7.971   0.923  0.3800  0.3076  0.4263
44353SOL    HW142027   7.346   7.925   0.847  0.3151 -1.3214  1.3328
44353SOL    HW242028   7.239   7.915   0.953  0.3817  0.9481  1.6623
44354SOL     OW42029   0.824   8.342   0.371  0.8812 -0.2057  0.8483
44354SOL    HW142030   0.852   8.321   0.282 -0.5713  0.4574  0.2113
44354SOL    HW242031   0.770   8.267   0.396 -1.0033  0.8274  0.0818
44355SOL     OW42032   2.313   9.267   8.544 -0.4277  0.3636  0.2228
44355SOL    HW142033   2.296   9.360   8.554  0.1389  0.5159 -0.1909
44355SOL    HW242034   2.283   9.228   8.627  0.9625  1.1399  1.1299
44356SOL     OW42035   8.319  10.054  10.300 -0.6154 -0.5275  0.3429
44356SOL    HW142036   8.308  10.041  10.206 -2.8731  0.3730  0.4201
44356SOL    HW242037   8.347  10.145  10.309 -0.3114 -0.6396  0.5438
44357SOL     OW42038   5.681   6.515  11.842  0.2027 -0.4188 -0.4478
44357SOL    HW142039   5.720   6.461  11.773  0.6602  0.1798 -0.6657
44357SOL    HW242040   5.706   6.471  11.923  0.6565 -0.4875 -0.6190
44358SOL     OW42041   1.958   4.861   9.276 -0.1522 -0.3790  0.2245
44358SOL    HW142042   1.950   4.788   9.214  2.3222  1.1005 -2.0067
44358SOL    HW242043   2.047   4.892   9.265 -1.7436  4.6332 -0.9053
44359SOL     OW42044  12.070   8.258   9.580 -0.3782 -0.1874  0.3579
44359SOL    HW142045  12.068   8.353   9.578  0.1259 -0.1765 -0.6320
44359SOL    HW242046  12.008   8.233   9.648 -0.3566  0.8506  0.7638
44360SOL     OW42047   4.409   1.547   3.095  0.4898  0.0020  0.3268
44360SOL    HW142048   4.356   1.533   3.016  0.4631  1.4696  0.0592
44360SOL    HW242049   4.497   1.518   3.070  0.1851 -0.9109  0.2497
44361SOL     OW42050  11.429   1.017   3.091  0.7556 -0.2331  0.1223
44361SOL    HW142051  11.504   0.970   3.054  0.5732 -1.0804  0.7968
44361SOL    HW242052  11.353   0.979   3.046  0.4302 -2.0737  2.0729
44362SOL     OW42053  10.566  11.754  12.415  0.5000  0.4800  0.5778
44362SOL    HW142054  10.478  11.728  12.443  0.8140  0.9193  2.0649
44362SOL    HW242055  10.552  11.834  12.364  0.0539  0.6766  1.0011
44363SOL     OW42056  11.508  10.704   4.317 -0.7238 -0.5502 -0.5409
44363SOL    HW142057  11.592  10.671   4.350 -2.2549 -2.2755  1.8676
44363SOL    HW242058  11.451  10.628   4.313 -3.2354  1.0515  1.3684
44364SOL     OW42059   1.393   4.873   9.406 -0.1771 -0.2449 -0.2633
44364SOL    HW142060   1.451   4.932   9.358  1.5093 -0.8724  0.8766
44364SOL    HW242061   1.367   4.923   9.483 -0.7849 -0.1261 -0.5448
44365SOL     OW42062   0.947   6.752   2.644  0.3709 -0.6096  0.3470
44365SOL    HW142063   0.979   6.702   2.569  0.5028 -0.1728  0.1123
44365SOL    HW242064   0.906   6.829   2.606 -1.0306 -1.1730  0.6274
44366SOL     OW42065   1.056   1.923   7.709  0.0765  0.1221 -0.5236
44366SOL    HW142066   1.132   1.907   7.764  1.5873  1.4285 -2.1157
44366SOL    HW242067   1.088   1.910   7.620 -1.4570  1.1684 -1.2757
44367SOL     OW42068   0.392   1.792   1.489  0.4746 -0.0993  0.0006
44367SOL    HW142069   0.436   1.715   1.526 -0.5029 -1.3797 -1.3876
44367SOL    HW242070   0.314   1.757   1.446  0.4044  1.5751 -1.3419
44368SOL     OW42071   0.151  12.412  11.002 -0.4606  0.2985  0.1636
44368SOL    HW142072   0.227  12.463  11.030 -0.1365 -0.0761 -0.0422
44368SOL    HW242073   0.172  12.322  11.025 -0.1307 -0.0467 -1.4118
44369SOL     OW42074   2.521   5.196   2.072  0.4609 -0.1441  0.7756
44369SOL    HW142075   2.487   5.285   2.072 -1.1019 -0.7123  0.7025
44369SOL    HW242076   2.536   5.176   2.164 -0.7764 -0.3565  0.9513
44370SOL     OW42077   7.434   0.389  12.113 -0.2877 -0.0042  0.3959
44370SOL    HW142078   7.389   0.370  12.031  1.0201  0.0688 -0.3706
44370SOL    HW242079   7.482   0.470  12.095 -0.1324  0.1145  1.2964
44371SOL     OW42080   1.960   1.316   1.510 -0.2089  0.5877 -0.4016
44371SOL    HW142081   1.987   1.245   1.452 -1.6294 -0.3269 -0.0036
44371SOL    HW242082   2.037   1.372   1.517  0.7018 -0.4894 -1.3564
44372SOL     OW42083  11.290   5.883   4.826  0.0915 -0.2146 -0.4596
44372SOL    HW142084  11.293   5.867   4.920 -0.1415 -1.1896 -0.6106
44372SOL    HW242085  11.319   5.801   4.787  1.1250  0.4801 -1.2280
44373SOL     OW42086   0.449  10.366   0.506  0.5372 -0.3001 -0.1566
44373SOL    HW142087   0.495  10.395   0.428 -1.2815 -0.5127 -1.3601
44373SOL    HW242088   0.357  10.368   0.482 -0.1217  0.1849  2.1809
44374SOL     OW42089   5.236   8.522   8.183  0.6579 -0.5272 -0.1155
44374SOL    HW142090   5.167   8.585   8.205  0.8443 -0.3226 -0.1074
44374SOL    HW242091   5.263   8.546   8.095  1.3670 -0.0079  0.2337
44375SOL     OW42092   1.346   3.932   1.317 -0.0241  0.5196  0.2814
44375SOL    HW142093   1.347   3.898   1.228 -1.8844  1.4693 -0.1588
44375SOL    HW242094   1.388   3.864   1.370 -1.9381 -1.6552 -0.8064
44376SOL     OW42095   6.642   1.438   1.676  0.2560 -0.7146  0.1454
44376SOL    HW142096   6.647   1.485   1.759 -0.3799 -2.1492  1.0265
44376SOL    HW242097   6.628   1.347   1.701 -1.7316 -0.9464 -1.5586
44377SOL     OW42098   7.763   5.435   8.159  0.3173 -0.1803 -0.3497
44377SOL    HW142099   7.668   5.422   8.163 -0.1649  2.4602 -1.0029
44377SOL    HW242100   7.778   5.512   8.214  2.0921 -0.5186 -0.3199
44378SOL     OW42101   9.439   2.318   0.318 -0.4716  0.1901  0.1074
44378SOL    HW142102   9.529   2.350   0.322  0.1258 -1.1764 -1.4642
44378SOL    HW242103   9.412   2.310   0.410  1.5458 -0.8347  0.6615
44379SOL     OW42104   6.396   5.204   0.616 -0.5160  0.3442 -0.3646
44379SOL    HW142105   6.390   5.259   0.694  0.7599 -2.3980  1.8418
44379SOL    HW242106   6.490   5.200   0.597 -0.7178 -0.0047 -1.3240
44380SOL     OW42107  10.813   2.548  10.754 -0.4780  0.3419  0.0782
44380SOL    HW142108  10.745   2.528  10.689 -0.0940 -0.5890 -0.0555
44380SOL    HW242109  10.785   2.501  10.833 -0.3870  0.5937  0.2617
44381SOL     OW42110   8.541   2.367   2.348 -0.1653  0.1601  0.2538
44381SOL    HW142111   8.498   2.286   2.323  0.8186  0.5709 -3.3112
44381SOL    HW242112   8.482   2.436   2.317  1.4036  0.7253 -1.6419
44382SOL     OW42113   5.453  11.953   9.792  0.3376  0.2866 -0.4390
44382SOL    HW142114   5.446  11.934   9.699  1.2559  2.0678 -0.9266
44382SOL    HW242115   5.546  11.944   9.811  0.1429 -0.1494  0.3380
44383SOL     OW42116  11.781  11.189  11.545  0.2152 -0.7669 -0.5119
44383SOL    HW142117  11.800  11.277  11.578 -4.8582  0.1992  0.6552
44383SOL    HW242118  11.790  11.132  11.621  0.5105 -0.7548 -0.5348
44384SOL     OW42119   6.079   7.033  11.447 -0.0399  0.0712  1.0984
44384SOL    HW142120   6.149   6.994  11.500 -1.1771 -0.4395  2.2848
44384SOL    HW242121   6.082   6.985  11.365  2.8254  1.9600 -0.0755
44385SOL     OW42122   2.290   9.268   2.543 -0.3767  0.3456 -0.4414
44385SOL    HW142123   2.384   9.280   2.559 -0.2673 -2.1093  1.3280
44385SOL    HW242124   2.285   9.192   2.485 -1.2954  0.3882 -0.4338
44386SOL     OW42125   7.972   0.928  11.478  0.0384 -0.2223 -0.1880
44386SOL    HW142126   8.046   0.876  11.447  1.8007  1.0601  1.5520
44386SOL    HW242127   7.924   0.870  11.537  0.0113 -0.8909 -0.8675
44387SOL     OW42128   6.605   8.620   9.689  0.1914  0.9054 -0.1290
44387SOL    HW142129   6.539   8.550   9.691 -0.6705  1.7027  1.9327
44387SOL    HW242130   6.678   8.582   9.640 -1.0281 -0.7163 -0.7909
44388SOL     OW42131   6.240   1.754  11.653 -0.0155 -0.2939  0.9195
44388SOL    HW142132   6.257   1.663  11.679  0.1361 -0.1287  1.4128
44388SOL    HW242133   6.154   1.774  11.690 -0.5063 -0.5615 -0.0632
44389SOL     OW42134   5.520   5.997   1.824  0.1851  0.2237  0.1206
44389SOL    HW142135   5.472   6.078   1.843  1.2983  0.7965  0.6452
44389SOL    HW242136   5.459   5.927   1.845 -1.0558  0.9164 -1.0019
44390SOL     OW42137   4.618   2.832   4.613  0.3651 -0.3090 -0.3528
44390SOL    HW142138   4.567   2.823   4.693  0.9920 -1.3719 -0.0494
44390SOL    HW242139   4.642   2.742   4.589  2.2328  0.1529 -0.3717
44391SOL     OW42140   4.187  12.115  12.334  0.1545 -0.5069 -0.2323
44391SOL    HW142141   4.118  12.155  12.386  0.5316  0.1433 -0.2196
44391SOL    HW242142   4.163  12.022  12.329 -1.4546 -0.0613 -1.4320
44392SOL     OW42143   9.311   9.663   9.702 -0.6675  0.0731 -0.0708
44392SOL    HW142144   9.388   9.648   9.756 -0.8616  0.1590  0.2278
44392SOL    HW242145   9.237   9.644   9.759 -0.9182  1.8631  0.2370
44393SOL     OW42146   3.823   4.112   3.527 -0.1462 -0.0019 -0.1074
44393SOL    HW142147   3.778   4.195   3.509  0.9140  0.9973  1.5654
44393SOL    HW242148   3.759   4.045   3.505 -0.2195  1.0855 -3.8964
44394SOL     OW42149  12.100   7.850   7.827  0.0178 -0.6061  0.2135
44394SOL    HW142150  12.029   7.890   7.877  0.2766 -2.0192  1.7753
44394SOL    HW242151  12.079   7.757   7.826  0.9561 -0.8267 -0.8348
44395SOL     OW42152   7.371   8.669   9.445 -0.3459  0.3201  0.2593
44395SOL    HW142153   7.293   8.682   9.390  0.1675  1.3459 -0.2670
44395SOL    HW242154   7.440   8.646   9.384 -0.3789 -1.3573  0.8119
44396SOL     OW42155   4.808   7.847  10.200 -0.5127 -0.3300 -0.3708
44396SOL    HW142156   4.747   7.788  10.244  0.3369 -0.5581  0.5379
44396SOL    HW242157   4.874   7.790  10.162 -1.6948 -0.2035 -2.7574
44397SOL     OW42158   5.459   8.421  10.036 -0.3443  0.4630 -0.5427
44397SOL    HW142159   5.518   8.496  10.038  1.7825 -1.1449 -0.1702
44397SOL    HW242160   5.458   8.388  10.125 -0.1830 -0.7364 -0.9652
44398SOL     OW42161   7.528   3.446   8.954 -0.2296 -0.3030  1.0451
44398SOL    HW142162   7.526   3.431   8.860  1.7642 -0.4658  1.0043
44398SOL    HW242163   7.436   3.458   8.978 -0.8680 -1.3342 -0.7319
44399SOL     OW42164   6.938  11.797   8.357 -0.0742  0.0562  0.4222
44399SOL    HW142165   6.968  11.868   8.299 -0.7434 -0.3402 -0.4371
44399SOL    HW242166   6.849  11.824   8.382 -0.1996 -0.3150  0.3732
44400SOL     OW42167   3.258   1.821   3.327  0.4664  0.4482  1.1524
44400SOL    HW142168   3.283   1.834   3.236 -0.2271 -2.6861  0.3999
44400SOL    HW242169   3.182   1.878   3.340 -0.5770 -0.4026 -0.8310
44401SOL     OW42170   0.592   1.852   9.470 -0.0492 -0.4570 -0.0086
44401SOL    HW142171   0.635   1.801   9.538 -2.1490 -0.0334  1.7428
44401SOL    HW242172   0.664   1.896   9.424  1.4211  0.1973  2.6984
44402SOL     OW42173   8.555  10.810   2.622  0.5509  0.5485 -0.1075
44402SOL    HW142174   8.560  10.797   2.528  2.4666  3.0737 -0.4640
44402SOL    HW242175   8.516  10.896   2.633 -0.9894 -0.2770  1.5411
44403SOL     OW42176   4.529  10.768   6.782  0.1628 -0.3345  0.4856
44403SOL    HW142177   4.437  10.795   6.783  0.4735  0.9743 -1.4899
44403SOL    HW242178   4.577  10.845   6.751  1.6562 -1.7088 -0.8229
44404SOL     OW42179  11.950   8.469   6.792  0.3782 -0.5691 -0.0891
44404SOL    HW142180  11.867   8.517   6.793 -0.3260 -1.7171  1.5869
44404SOL    HW242181  12.008   8.520   6.848  1.4129  1.0891 -2.4932
44405SOL     OW42182   7.338  11.599   1.191  0.1099  0.0787  0.5789
44405SOL    HW142183   7.390  11.675   1.212 -0.6320  0.6015  0.5673
44405SOL    HW242184   7.308  11.614   1.101 -0.3951 -0.0178  0.7272
44406SOL     OW42185   7.978   8.237   9.711  0.4112  0.3924 -0.4672
44406SOL    HW142186   7.980   8.333   9.709  0.6496  0.4670  1.4673
44406SOL    HW242187   8.070   8.211   9.702  0.2973  0.3056 -1.4966
44407SOL     OW42188   3.156  10.557   7.414 -0.3169  0.3453 -0.1333
44407SOL    HW142189   3.144  10.642   7.458 -2.4136 -0.1489  0.3459
44407SOL    HW242190   3.208  10.506   7.476 -0.9548  0.5596  0.6054
44408SOL     OW42191  11.315   4.153   0.929  0.6775 -0.0926 -0.2003
44408SOL    HW142192  11.352   4.070   0.899 -0.0282  0.3134 -2.3510
44408SOL    HW242193  11.241   4.169   0.870 -0.9327  0.7317  1.9183
44409SOL     OW42194   3.514   4.082   3.180 -0.7650  0.4019  0.2864
44409SOL    HW142195   3.487   4.035   3.101  2.7040 -2.4159  0.5421
44409SOL    HW242196   3.476   4.031   3.252 -0.4054  0.4250  0.4965
44410SOL     OW42197   4.214  10.623   8.416 -0.1477 -0.3065 -0.0347
44410SOL    HW142198   4.273  10.692   8.447  0.6873 -0.5100 -1.1001
44410SOL    HW242199   4.136  10.670   8.386 -0.2454  0.0262  0.6999
44411SOL     OW42200   6.838  10.426  11.466 -0.3554  0.6203  0.2640
44411SOL    HW142201   6.833  10.404  11.559 -0.1051  2.3743  0.7274
44411SOL    HW242202   6.920  10.386  11.436  0.1722  1.0491  1.1034
44412SOL     OW42203   2.816  10.870   3.444  0.0942  0.1456 -0.1315
44412SOL    HW142204   2.734  10.893   3.400 -0.5440 -1.2201  0.3049
44412SOL    HW242205   2.795  10.870   3.537  1.2641  2.3052  0.2036
44413SOL     OW42206   5.821   7.352   4.418 -0.2364  0.0921 -0.1219
44413SOL    HW142207   5.731   7.322   4.404 -0.5477  1.3173 -0.9400
44413SOL    HW242208   5.871   7.272   4.432 -1.0445 -0.8363 -2.1000
44414SOL     OW42209   0.553  12.581  11.261 -0.0918  0.1448  0.6030
44414SOL    HW142210   0.647  12.586  11.245  0.1085 -0.7452  1.4196
44414SOL    HW242211   0.545  12.553  11.353 -1.1464  0.2778  0.5673
44415SOL     OW42212   8.143  10.386   1.620 -0.1676 -0.2816 -0.0784
44415SOL    HW142213   8.186  10.421   1.542  0.0712  1.0945  0.6433
44415SOL    HW242214   8.050  10.396   1.602 -0.1086  0.3617 -0.0477
44416SOL     OW42215   2.785  10.811   6.924 -0.6185 -0.1619  0.0671
44416SOL    HW142216   2.878  10.798   6.907 -0.4534 -0.8661  1.3737
44416SOL    HW242217   2.748  10.832   6.838  0.4891 -1.3807 -0.7564
44417SOL     OW42218   9.784   1.023   3.103  0.0472  0.4870 -0.2900
44417SOL    HW142219   9.748   0.971   3.174  1.1210  0.6427  0.3888
44417SOL    HW242220   9.866   1.058   3.138  1.6313 -1.0188 -2.2197
44418SOL     OW42221   6.066  11.980  11.875  0.2882  0.3392 -0.6355
44418SOL    HW142222   6.004  11.908  11.874  0.8097 -0.1396  0.1549
44418SOL    HW242223   6.126  11.962  11.802  0.6087 -0.2119 -0.2453
44419SOL     OW42224   1.278  11.591   2.131  0.0920  0.2310  0.1223
44419SOL    HW142225   1.353  11.595   2.190  0.1958  0.5502 -0.0274
44419SOL    HW242226   1.209  11.639   2.177 -0.5186 -1.3592  0.9531
44420SOL     OW42227  11.205   6.324   1.700 -0.2646  0.0582  0.3621
44420SOL    HW142228  11.251   6.320   1.616  0.7714  0.7342  0.8737
44420SOL    HW242229  11.191   6.418   1.715  0.5558  0.0222  1.4549
44421SOL     OW42230  10.662   5.269  10.839  0.5785 -0.3770  0.1750
44421SOL    HW142231  10.691   5.357  10.815  1.9259 -0.5663  0.9730
44421SOL    HW242232  10.591   5.283  10.902 -0.2145  0.1083 -0.7940
44422SOL     OW42233   2.413   5.503   0.893  0.0898 -0.0429 -0.3703
44422SOL    HW142234   2.322   5.528   0.906 -0.0042  0.6477 -2.0552
44422SOL    HW242235   2.416   5.409   0.906 -0.5755  0.1188  1.0718
44423SOL     OW42236   7.179   5.393  11.360  0.0533 -0.0400  0.0003
44423SOL    HW142237   7.183   5.447  11.281 -0.5167  0.3293  0.2128
44423SOL    HW242238   7.241   5.322  11.344 -0.9773 -0.6964 -1.3393
44424SOL     OW42239  10.287   4.471  12.266  0.4667 -0.2334 -0.2582
44424SOL    HW142240  10.218   4.538  12.275 -0.1150 -0.7446 -0.7702
44424SOL    HW242241  10.344   4.484  12.341 -0.6831 -0.3567  0.6653
44425SOL     OW42242  10.536   3.418   9.916  0.3701  0.2335  0.4769
44425SOL    HW142243  10.489   3.411   9.999 -0.2280 -1.2868  0.0270
44425SOL    HW242244  10.626   3.440   9.942  0.2559 -0.4875  1.5532
44426SOL     OW42245   2.233   3.269   5.591  0.2333 -0.1081  0.0125
44426SOL    HW142246   2.211   3.176   5.582 -0.6921 -0.0732  1.5236
44426SOL    HW242247   2.151   3.315   5.576  0.2934  0.3418  0.9694
44427SOL     OW42248   8.831   5.298   4.990  0.1271  0.5162 -0.2350
44427SOL    HW142249   8.909   5.353   5.001  1.2549 -1.1474  0.5257
44427SOL    HW242250   8.858   5.230   4.929 -0.3166 -0.7657  0.9339
44428SOL     OW42251   0.524   6.984   7.016 -0.3630  0.4787  0.3851
44428SOL    HW142252   0.429   6.985   7.030 -0.3902  3.0579  0.6752
44428SOL    HW242253   0.534   7.000   6.922 -0.2052  0.0891  0.3344
44429SOL     OW42254   4.048   7.960   5.743  0.6983 -0.4465  0.1252
44429SOL    HW142255   3.966   8.008   5.746  1.1872  0.3695  1.0269
44429SOL    HW242256   4.104   8.012   5.685  0.5872 -1.0006 -0.4906
44430SOL     OW42257  10.633   7.957   2.685 -0.2231  0.2771  0.8095
44430SOL    HW142258  10.582   7.931   2.762  0.8225  2.9089  2.5557
44430SOL    HW242259  10.609   8.049   2.671  0.5705  0.2201 -1.2490
44431SOL     OW42260   9.034   6.051   6.974  0.0654 -0.3597  0.3835
44431SOL    HW142261   8.965   6.009   6.924 -0.4222 -0.3318  1.0259
44431SOL    HW242262   9.074   6.113   6.912 -0.1777 -0.6965 -0.1204
44432SOL     OW42263   6.953   9.992   7.645 -0.3385 -0.2113  0.1583
44432SOL    HW142264   6.993   9.906   7.659  1.4307  0.4364 -0.6035
44432SOL    HW242265   7.021  10.055   7.667 -1.7375  1.0459  1.1116
44433SOL     OW42266   8.528   2.925   5.549 -0.4173  0.6658 -0.0782
44433SOL    HW142267   8.547   2.893   5.638 -1.2045 -2.4926 -0.9422
44433SOL    HW242268   8.612   2.961   5.519  1.0312 -1.9258  0.5473
44434SOL     OW42269   9.269   3.854   5.426 -0.1733 -0.3380  1.1327
44434SOL    HW142270   9.287   3.894   5.511  2.2068  0.4038  0.3496
44434SOL    HW242271   9.320   3.773   5.426 -0.7422 -0.7071  0.6701
44435SOL     OW42272   5.862   9.478  12.016  1.0115 -0.0359 -0.0957
44435SOL    HW142273   5.816   9.465  12.099  2.4671 -1.8752  0.4916
44435SOL    HW242274   5.943   9.523  12.040  0.4215  1.5264 -0.8790
44436SOL     OW42275   0.883   5.781   1.287 -0.2388  0.2725 -0.7709
44436SOL    HW142276   0.924   5.781   1.373 -1.1694  2.9059 -0.2298
44436SOL    HW242277   0.954   5.806   1.227 -0.2536  1.6171 -0.2747
44437SOL     OW42278   2.640   2.929   4.772  0.0053  0.4358  0.4414
44437SOL    HW142279   2.581   2.961   4.704  0.4586  0.0409 -0.1440
44437SOL    HW242280   2.582   2.908   4.846 -0.4276  1.3745  0.3775
44438SOL     OW42281  11.024   5.238   9.879 -0.1574  0.0288  0.6883
44438SOL    HW142282  10.982   5.159   9.845 -1.6715  1.0665  0.0367
44438SOL    HW242283  11.115   5.232   9.849 -0.0946 -1.7240  1.1476
44439SOL     OW42284   7.075   8.068   5.871  0.2866  0.4741 -0.2360
44439SOL    HW142285   7.091   8.159   5.846  0.8125  0.1124 -1.2882
44439SOL    HW242286   7.036   8.028   5.794  0.3227 -0.2661  0.1200
44440SOL     OW42287   6.648   4.492   9.302 -0.5251 -0.0360  0.2684
44440SOL    HW142288   6.607   4.462   9.221 -0.6555 -0.2477  0.4116
44440SOL    HW242289   6.589   4.559   9.335 -0.6156 -0.1457  0.3311
44441SOL     OW42290  12.429   6.182   7.712 -0.0565 -0.0044  0.6020
44441SOL    HW142291  12.378   6.102   7.730  0.2685 -0.2094  0.6306
44441SOL    HW242292  12.466   6.206   7.797  0.4884 -0.2744  0.4448
44442SOL     OW42293   7.904  10.167   1.409 -0.3643  0.1758  0.2337
44442SOL    HW142294   7.880  10.204   1.494 -0.7480  2.6660 -0.8639
44442SOL    HW242295   7.821  10.161   1.361 -0.0691 -0.6033 -0.2059
44443SOL     OW42296  12.094   5.896   0.369 -0.0309  0.3174  0.1024
44443SOL    HW142297  12.057   5.878   0.456  1.3820  2.7715  1.3199
44443SOL    HW242298  12.022   5.937   0.321 -0.9172 -1.3408 -0.0589
44444SOL     OW42299   2.489   7.313   3.943  0.5781 -0.9178 -0.2653
44444SOL    HW142300   2.547   7.365   3.888  0.2731  0.9089  1.0498
44444SOL    HW242301   2.547   7.281   4.013  0.3014 -0.3036  0.2521
44445SOL     OW42302   5.617   9.608   1.651  0.2377 -0.6119 -0.1607
44445SOL    HW142303   5.626   9.682   1.591 -1.7984 -0.2582 -0.0876
44445SOL    HW242304   5.634   9.645   1.738  0.4436 -0.5074 -0.2459
44446SOL     OW42305  12.283   4.105   0.372 -0.2715  0.3824 -0.2371
44446SOL    HW142306  12.316   4.015   0.366  1.9498  1.2265 -1.8374
44446SOL    HW242307  12.192   4.098   0.344 -0.1428 -1.3636 -0.3587
44447SOL     OW42308   9.437   6.353  10.703  0.9918  0.5385 -0.5531
44447SOL    HW142309   9.429   6.411  10.778  0.7118  0.4251 -0.4941
44447SOL    HW242310   9.473   6.271  10.739 -1.4260 -0.3969 -0.0845
44448SOL     OW42311   5.105  10.416   4.006  0.2241 -0.3941  0.5404
44448SOL    HW142312   5.164  10.373   3.944  1.0402 -0.6596  1.4700
44448SOL    HW242313   5.076  10.346   4.064  0.3389  0.0315  1.1200
44449SOL     OW42314   9.162   2.344   6.313  0.5380  0.0711  0.3207
44449SOL    HW142315   9.135   2.273   6.371 -1.3063  0.5064  0.0556
44449SOL    HW242316   9.081   2.378   6.277  1.5664 -1.4635 -4.1528
44450SOL     OW42317  10.015   3.720   1.714  0.4255 -0.2644  0.1366
44450SOL    HW142318  10.099   3.758   1.686  0.6665  0.1987  1.4351
44450SOL    HW242319   9.950   3.766   1.661  0.7906  1.3862  1.0471
44451SOL     OW42320   5.741  12.573   9.302  0.6015 -0.3499 -0.1283
44451SOL    HW142321   5.832  12.587   9.328  0.3744  2.5193 -0.5362
44451SOL    HW242322   5.746  12.546   9.211  1.0751  1.3789 -0.6648
44452SOL     OW42323  12.465   2.024   3.788 -0.7273 -0.2011  0.4140
44452SOL    HW142324  12.506   1.989   3.867  2.0801  0.0131 -0.8315
44452SOL    HW242325  12.453   1.948   3.731  0.3748  0.0514 -0.1950
44453SOL     OW42326   8.910   9.672   1.673  0.1079 -0.5745  0.3768
44453SOL    HW142327   8.895   9.620   1.751  0.0475  0.3001  0.9674
44453SOL    HW242328   8.828   9.720   1.660  0.5890  0.3501  0.6195
44454SOL     OW42329   4.730  10.948   9.815 -0.2982 -0.4921  0.1044
44454SOL    HW142330   4.751  10.863   9.854  2.0266 -0.2101 -0.3852
44454SOL    HW242331   4.815  10.985   9.792 -1.3169  1.5912 -0.5194
44455SOL     OW42332  12.285   6.507   0.121 -0.1648  0.1164  0.1194
44455SOL    HW142333  12.245   6.524   0.036 -2.0655 -0.2675  0.8912
44455SOL    HW242334  12.375   6.482   0.100 -0.3142  0.9084 -1.7021
44456SOL     OW42335   6.239  12.294   6.835 -0.0985 -0.3804 -0.4813
44456SOL    HW142336   6.272  12.217   6.788 -0.0075  0.2668 -1.5072
44456SOL    HW242337   6.219  12.357   6.766 -0.3311  0.4583  0.3403
44457SOL     OW42338   6.088  12.377   1.873 -0.7406  0.4438 -0.2757
44457SOL    HW142339   6.108  12.397   1.782 -1.4876 -1.8238 -1.0171
44457SOL    HW242340   6.124  12.289   1.886  0.7489  1.2985  2.1381
44458SOL     OW42341   1.025   7.790   2.203  0.6619  0.3144 -0.3762
44458SOL    HW142342   0.980   7.873   2.219 -0.2146 -0.0181 -1.0519
44458SOL    HW242343   0.998   7.734   2.276  1.1121  0.5550 -0.0178
44459SOL     OW42344   2.981  10.288  11.079  0.1143 -0.3317 -0.3193
44459SOL    HW142345   2.952  10.246  10.998 -0.1652  0.1316 -0.4609
44459SOL    HW242346   3.025  10.368  11.050  1.6097 -1.0453 -0.1161
44460SOL     OW42347  10.571   3.813   9.111  0.1896  0.3810  0.2883
44460SOL    HW142348  10.586   3.886   9.051 -1.5644  0.3485 -0.2469
44460SOL    HW242349  10.614   3.738   9.069 -3.0272 -0.2216 -2.3104
44461SOL     OW42350   9.790   1.221   1.072 -0.1867  0.0791 -0.3814
44461SOL    HW142351   9.753   1.273   1.144  1.6952  1.6957 -0.4990
44461SOL    HW242352   9.728   1.233   1.000 -0.9992  0.2028  0.3193
44462SOL     OW42353   8.064   2.870   1.028  0.0247  0.1754  0.1125
44462SOL    HW142354   7.992   2.905   1.082  0.1970 -0.3162  0.6755
44462SOL    HW242355   8.079   2.782   1.063 -1.3193 -1.0415 -2.1808
44463SOL     OW42356   5.372  12.077   3.556  0.3354  0.5816 -0.2089
44463SOL    HW142357   5.467  12.079   3.571  0.3382 -0.5421  0.0214
44463SOL    HW242358   5.359  12.009   3.490 -0.3753  0.0393  0.4561
44464SOL     OW42359   7.976   8.681   0.079 -0.0237  0.0731 -0.0242
44464SOL    HW142360   8.049   8.682   0.140 -0.6018 -0.1099  0.6866
44464SOL    HW242361   7.969   8.590   0.050 -0.8782 -0.2077  1.0348
44465SOL     OW42362   2.046   3.779   9.850  0.0535  0.0084  0.1056
44465SOL    HW142363   2.048   3.706   9.911  0.9273 -0.1962 -0.1497
44465SOL    HW242364   1.955   3.807   9.848 -0.0624 -0.2795  1.1413
44466SOL     OW42365   9.685   0.246   3.866  0.0023  0.3881 -0.8125
44466SOL    HW142366   9.716   0.223   3.779 -1.2464 -0.1483 -1.1431
44466SOL    HW242367   9.642   0.167   3.898  1.8946  0.0109  1.0051
44467SOL     OW42368  11.655  11.294   1.783  0.4104  0.5946  0.0295
44467SOL    HW142369  11.693  11.344   1.855 -0.5851 -1.2169  1.9274
44467SOL    HW242370  11.565  11.325   1.777  0.7232  1.3572 -1.0906
44468SOL     OW42371   1.315  11.850   5.560  0.4203  0.0149  0.8781
44468SOL    HW142372   1.261  11.895   5.495 -0.7716  0.7862  2.3346
44468SOL    HW242373   1.397  11.899   5.561  0.4228  0.0405  0.0249
44469SOL     OW42374   2.981   4.743   0.894 -0.4436  0.5092 -0.1165
44469SOL    HW142375   2.900   4.770   0.937  0.2692  0.8533  1.0776
44469SOL    HW242376   2.960   4.660   0.852 -0.5105 -1.4674  3.4070
44470SOL     OW42377   7.720   9.561   7.636  0.2463 -0.1204  0.2799
44470SOL    HW142378   7.778   9.534   7.707 -0.7045  0.9089  1.5074
44470SOL    HW242379   7.633   9.534   7.665 -0.1878  0.5086 -0.3939
44471SOL     OW42380   8.248   1.044   4.010  0.0245 -0.7107 -0.5200
44471SOL    HW142381   8.188   1.116   3.987  0.7023  0.4965  1.2706
44471SOL    HW242382   8.200   0.994   4.076  0.1718 -0.9736 -0.6136
44472SOL     OW42383   9.092   2.406  11.615  0.3784  0.1223 -0.3096
44472SOL    HW142384   9.075   2.500  11.605 -1.7195 -0.0804  0.7360
44472SOL    HW242385   9.019   2.374  11.669  1.7040 -1.8937  0.4099
44473SOL     OW42386   3.088   6.516   7.872  0.4975 -0.0350  0.7590
44473SOL    HW142387   3.144   6.581   7.915  0.1270  0.1144  1.0266
44473SOL    HW242388   3.034   6.480   7.943  0.8841 -0.8272  0.6539
44474SOL     OW42389  11.310   8.502   5.462 -0.1882 -0.0358  0.0302
44474SOL    HW142390  11.396   8.543   5.474  0.2148 -0.5741 -0.8529
44474SOL    HW242391  11.305   8.435   5.530 -0.2399  0.5021  0.5656
44475SOL     OW42392   8.593   9.055   9.092  0.1596 -0.2473  0.1044
44475SOL    HW142393   8.571   9.124   9.154  1.9686  1.1543 -0.7372
44475SOL    HW242394   8.617   9.101   9.012  1.9677 -1.7937 -0.3178
44476SOL     OW42395   9.452   3.161   6.524 -0.1815  0.0889 -0.4873
44476SOL    HW142396   9.501   3.180   6.444  0.4894 -0.3227 -0.1824
44476SOL    HW242397   9.494   3.084   6.561 -0.4407  0.3080  0.3053
44477SOL     OW42398   3.589   0.843   6.641 -0.0827 -0.0243 -0.2545
44477SOL    HW142399   3.530   0.800   6.580  0.3049  0.8968 -1.3314
44477SOL    HW242400   3.579   0.936   6.623  0.0145  0.2854  1.1402
44478SOL     OW42401   7.272   8.024   7.718  0.4068  0.3678  0.1770
44478SOL    HW142402   7.343   7.975   7.759  1.3266  0.8320 -0.8217
44478SOL    HW242403   7.245   7.969   7.644  0.7904  0.9039 -0.3686
44479SOL     OW42404   7.769   1.970   8.491 -0.6088  0.1769  0.1480
44479SOL    HW142405   7.686   1.983   8.536 -1.1085 -2.1916  0.0355
44479SOL    HW242406   7.776   1.875   8.480  2.1807  0.2766  0.2752
44480SOL     OW42407   4.031  10.859   4.538  0.1739 -0.4188  0.4415
44480SOL    HW142408   3.937  10.857   4.557 -0.0984 -1.9889 -0.7855
44480SOL    HW242409   4.036  10.850   4.443  1.5425 -3.8210  0.6821
44481SOL     OW42410   0.587  12.483   0.436 -0.4120 -0.1121 -0.2264
44481SOL    HW142411   0.644  12.420   0.480  0.4415 -0.5544 -1.8853
44481SOL    HW242412   0.648  12.538   0.386 -1.2905  0.8523 -0.2577
44482SOL     OW42413   6.290   5.860   3.104  0.2207  0.5444 -0.5864
44482SOL    HW142414   6.319   5.789   3.161  2.6936  0.6373 -1.5975
44482SOL    HW242415   6.268   5.932   3.163 -3.2500 -1.1945  0.5450
44483SOL     OW42416  10.766   8.692   0.686 -0.4444  0.1840 -0.1092
44483SOL    HW142417  10.745   8.703   0.593 -1.6920  0.9609  0.2406
44483SOL    HW242418  10.690   8.728   0.732 -1.1853 -2.8201  1.2128
44484SOL     OW42419   8.675   7.247   2.621  0.6337  0.0725 -0.1199
44484SOL    HW142420   8.663   7.162   2.664  1.7829 -0.0979 -0.1223
44484SOL    HW242421   8.769   7.256   2.611  0.5411  1.4469  0.0550
44485SOL     OW42422   8.508   5.254   6.418 -0.0400 -0.5753  0.2123
44485SOL    HW142423   8.565   5.321   6.381  0.2024  0.0806  1.7141
44485SOL    HW242424   8.561   5.175   6.420  0.1734 -0.4442 -0.1691
44486SOL     OW42425   9.787  10.523   1.845 -1.1166  0.2973  0.1837
44486SOL    HW142426   9.727  10.540   1.773 -1.6281  0.0889  0.5488
44486SOL    HW242427   9.751  10.445   1.888 -0.2947 -0.1254  0.1082
44487SOL     OW42428   1.012   0.581   1.227 -0.2527 -0.0671  0.1265
44487SOL    HW142429   1.084   0.524   1.252  0.0465  0.2846  0.0713
44487SOL    HW242430   0.949   0.573   1.299  0.5783  0.8940  1.0088
44488SOL     OW42431   6.424   2.206   2.481  0.2138  0.4872  0.2490
44488SOL    HW142432   6.419   2.221   2.576  1.6596  1.2240  0.2285
44488SOL    HW242433   6.333   2.189   2.455 -0.2684  0.7376  1.6934
44489SOL     OW42434   1.988   2.206   7.739  0.0859 -0.0781 -0.2604
44489SOL    HW142435   1.953   2.196   7.651  0.8054  2.5960 -0.9327
44489SOL    HW242436   2.055   2.274   7.731  0.0529  0.3768  2.3810
44490SOL     OW42437   4.133   8.740   1.383 -0.3187 -0.1137  0.3035
44490SOL    HW142438   4.087   8.824   1.380  1.3527  0.8342  0.0943
44490SOL    HW242439   4.065   8.675   1.366 -1.2868  1.3421 -1.8393
44491SOL     OW42440  11.575   8.456   4.721  0.0614 -0.0009 -0.0780
44491SOL    HW142441  11.662   8.489   4.697 -0.5112  1.0889 -0.7781
44491SOL    HW242442  11.546   8.514   4.791 -0.4903  0.2602 -0.5158
44492SOL     OW42443   4.820   5.925   1.327  0.2873  0.0607  0.0976
44492SOL    HW142444   4.913   5.908   1.311  0.3991  0.9537 -0.2676
44492SOL    HW242445   4.811   6.020   1.317 -0.4643  0.1231  1.2004
44493SOL     OW42446  10.232   8.030   4.597  0.8943  0.4266  0.9124
44493SOL    HW142447  10.271   7.993   4.518 -0.4930  0.6990  0.0681
44493SOL    HW242448  10.213   8.121   4.574 -2.8161 -0.3634  0.2276
44494SOL     OW42449   0.722  12.319   7.448 -0.2084 -0.5957  0.6151
44494SOL    HW142450   0.679  12.380   7.508 -1.4323 -0.9289  0.1147
44494SOL    HW242451   0.814  12.322   7.473 -0.1395  1.7621  0.3523
44495SOL     OW42452  10.738   1.144   0.884 -0.3054 -0.2468 -0.1119
44495SOL    HW142453  10.822   1.191   0.885 -0.1766 -0.4665  0.9478
44495SOL    HW242454  10.698   1.167   0.800  0.1217  1.1084  0.0367
44496SOL     OW42455   3.718  11.185   3.719 -0.6356  0.5002 -0.1723
44496SOL    HW142456   3.704  11.213   3.810  1.8603  1.1095  0.0877
44496SOL    HW242457   3.722  11.089   3.724  0.1582  0.5607  0.4856
44497SOL     OW42458   9.167   0.655   1.620  0.1015  0.5695  0.0288
44497SOL    HW142459   9.223   0.724   1.655  1.1279  1.8365 -3.6771
44497SOL    HW242460   9.082   0.697   1.606  0.3383  0.7579 -0.9518
44498SOL     OW42461   8.650   9.104   4.250  0.6436  0.3546 -0.4857
44498SOL    HW142462   8.619   9.192   4.229  1.6809  0.5246 -1.4423
44498SOL    HW242463   8.577   9.062   4.295 -0.4660  1.1632 -1.4778
44499SOL     OW42464   5.077  12.012   2.087 -0.1772 -0.4138 -0.3553
44499SOL    HW142465   5.018  12.057   2.148  1.7771  2.9037 -0.7241
44499SOL    HW242466   5.072  11.920   2.114  0.3100  0.7447  4.6763
44500SOL     OW42467   7.777   5.950   8.301 -0.0202 -0.0958  0.0385
44500SOL    HW142468   7.858   5.978   8.344 -0.6135 -1.1425  1.9783
44500SOL    HW242469   7.744   6.028   8.258  1.5493  0.5622 -0.0514
44501SOL     OW42470  11.886   0.319   4.863  0.1402  0.1354 -0.2951
44501SOL    HW142471  11.823   0.290   4.797 -0.5698  0.1981  0.3483
44501SOL    HW242472  11.971   0.308   4.820 -0.2699 -0.3740 -1.0134
44502SOL     OW42473   1.180   4.412   7.754  0.1999 -0.2663 -0.1102
44502SOL    HW142474   1.217   4.415   7.666 -0.2677  0.4130 -0.2911
44502SOL    HW242475   1.256   4.411   7.812  0.6088  2.8417 -0.4069
44503SOL     OW42476   2.957   1.307   1.354  0.1480  0.4127 -0.0141
44503SOL    HW142477   2.910   1.234   1.395  0.6330  0.8639  1.4118
44503SOL    HW242478   2.926   1.308   1.264 -1.3914 -0.2794  0.4789
44504SOL     OW42479   1.569  10.822  11.420 -0.1216 -0.2229  0.1334
44504SOL    HW142480   1.626  10.808  11.344 -0.6082 -0.1200 -0.2553
44504SOL    HW242481   1.520  10.901  11.399  0.0742  0.0711  0.7662
44505SOL     OW42482   5.412  11.242   8.631 -0.4894  0.1858  0.1696
44505SOL    HW142483   5.457  11.277   8.708 -2.9400  1.2978  1.2017
44505SOL    HW242484   5.394  11.151   8.654 -3.5532  1.1422  2.2508
44506SOL     OW42485   8.100  11.634   3.150 -0.2573 -0.0214 -0.5581
44506SOL    HW142486   8.134  11.623   3.061  0.1144 -0.2227 -0.3951
44506SOL    HW242487   8.125  11.723   3.174  0.2295 -0.1976 -0.4082
44507SOL     OW42488   7.539   0.929  11.013  0.1943  0.0764 -0.2770
44507SOL    HW142489   7.447   0.943  11.033 -0.1895 -0.9175 -1.2472
44507SOL    HW242490   7.576   1.017  11.003  0.1649  0.6555  3.3747
44508SOL     OW42491   2.227   9.668   2.628  0.4531  1.0435 -0.8146
44508SOL    HW142492   2.320   9.655   2.612  0.4818  1.5345 -1.0771
44508SOL    HW242493   2.205   9.748   2.579 -0.0880  0.9704 -0.7012
44509SOL     OW42494  12.053  11.275   4.520  0.0415  0.4110  0.1496
44509SOL    HW142495  12.032  11.318   4.437  0.9012 -1.7223 -1.2459
44509SOL    HW242496  11.983  11.211   4.532 -0.0654  0.6856  1.0977
44510SOL     OW42497   6.664  10.180   5.806 -0.1398  0.5289 -0.5091
44510SOL    HW142498   6.632  10.092   5.785  1.0410  0.7063 -3.5081
44510SOL    HW242499   6.588  10.226   5.840 -0.9018 -1.4662  0.6679
44511SOL     OW42500   5.241   1.098   2.629 -0.6586 -0.1720  0.6384
44511SOL    HW142501   5.167   1.095   2.568 -1.3226  0.2561  1.4172
44511SOL    HW242502   5.207   1.062   2.711 -0.0742  0.2587  1.0795
44512SOL     OW42503   4.401   1.385  11.322 -0.0129 -0.0427  0.0247
44512SOL    HW142504   4.373   1.348  11.406  1.5128 -1.5795 -0.0678
44512SOL    HW242505   4.481   1.433  11.343  0.1564 -0.1000 -0.4904
44513SOL     OW42506   3.469   5.838   4.369  0.1603 -0.4010 -0.6281
44513SOL    HW142507   3.378   5.836   4.399  0.5627 -0.4093  0.6383
44513SOL    HW242508   3.502   5.923   4.398  0.4899 -0.2896 -1.3133
44514SOL     OW42509   9.183  12.420  11.538 -0.6089  0.1791  0.1755
44514SOL    HW142510   9.248  12.374  11.486  0.2435 -0.5181  1.7693
44514SOL    HW242511   9.099  12.383  11.511 -0.0568 -1.2293  0.3289
44515SOL     OW42512   9.238   6.244   5.329  0.0407 -0.3806 -0.4107
44515SOL    HW142513   9.160   6.283   5.290  0.6585  0.4092 -0.9006
44515SOL    HW242514   9.295   6.225   5.254  0.7360  0.0166  0.0006
44516SOL     OW42515  12.253   7.374   9.272  0.8339  0.2812 -0.4779
44516SOL    HW142516  12.343   7.401   9.287  0.1560  1.5050  1.9557
44516SOL    HW242517  12.215   7.366   9.360 -0.7773 -2.7037 -1.2879
44517SOL     OW42518   5.833   7.382   0.768  0.1509 -0.2235 -0.8717
44517SOL    HW142519   5.905   7.321   0.751 -0.7261 -2.1407  1.6288
44517SOL    HW242520   5.783   7.383   0.687  1.0133 -1.7285 -1.4774
44518SOL     OW42521  12.538  11.684   9.208  0.3391  0.3424 -0.2907
44518SOL    HW142522  12.504  11.737   9.136 -0.7862  1.4713  1.0313
44518SOL    HW242523  12.487  11.602   9.202  1.7884 -0.5160 -2.0701
44519SOL     OW42524   8.194  11.362   4.303 -0.2600  0.5075 -0.1664
44519SOL    HW142525   8.132  11.411   4.248  0.2413  2.4660  0.8976
44519SOL    HW242526   8.138  11.315   4.365 -0.8004 -1.1768 -1.8520
44520SOL     OW42527  11.142   8.899   8.607  0.2886  0.4971 -0.6382
44520SOL    HW142528  11.125   8.953   8.685 -1.7575  0.1358 -0.7842
44520SOL    HW242529  11.055   8.878   8.574  0.9894 -2.8105 -0.6803
44521SOL     OW42530   7.064   9.938   9.263  0.3098 -0.1895  0.6016
44521SOL    HW142531   7.021   9.963   9.181 -1.5064  1.4414  1.9623
44521SOL    HW242532   7.063  10.017   9.316  1.1536 -1.2778  2.3457
44522SOL     OW42533   5.038   1.210  10.411  0.5724  0.1413 -0.1013
44522SOL    HW142534   5.089   1.186  10.489 -0.7149  0.5170  0.8845
44522SOL    HW242535   5.016   1.126  10.370 -0.6279 -0.2088  1.1918
44523SOL     OW42536   9.251  10.362  10.806  0.3834 -0.4247  0.2892
44523SOL    HW142537   9.281  10.379  10.717  0.2758 -1.8728 -0.0417
44523SOL    HW242538   9.325  10.389  10.861  1.0886 -1.0254 -0.3375
44524SOL     OW42539   6.038   7.739   6.468  0.4276  0.4226  0.2197
44524SOL    HW142540   6.134   7.738   6.470  0.5743 -0.5377 -2.5278
44524SOL    HW242541   6.012   7.648   6.480 -0.0728  0.5301 -0.0087
44525SOL     OW42542   5.195  10.121   9.112  0.5062 -0.4659  0.2179
44525SOL    HW142543   5.289  10.123   9.094  0.6247 -0.8845  0.7599
44525SOL    HW242544   5.189  10.102   9.206 -0.1104  0.1978  0.3166
44526SOL     OW42545   8.176   9.064   1.832  0.3025  0.5059 -0.2387
44526SOL    HW142546   8.222   9.013   1.766 -0.1569 -1.5713  0.9565
44526SOL    HW242547   8.084   9.059   1.807  0.1339 -0.2304  0.4917
44527SOL     OW42548   1.690   3.970   4.704 -0.3141  0.6595 -0.1511
44527SOL    HW142549   1.694   3.947   4.612 -1.6280  0.9701 -0.3108
44527SOL    HW242550   1.676   3.886   4.749 -0.9981  0.6493 -0.3664
44528SOL     OW42551   2.670  10.963   6.709 -0.2591  0.1656  0.0397
44528SOL    HW142552   2.653  11.034   6.771  0.5844 -1.1784  1.9236
44528SOL    HW242553   2.584  10.923   6.694 -0.2070 -1.0532  2.4383
44529SOL     OW42554   2.006   0.213   5.634 -0.2176  0.1039  0.6154
44529SOL    HW142555   1.950   0.144   5.599  3.6015 -2.7638 -0.5287
44529SOL    HW242556   2.021   0.188   5.725 -0.1008  0.3211  0.6561
44530SOL     OW42557   5.339   1.879   4.310  0.5593 -0.4596 -0.1950
44530SOL    HW142558   5.354   1.833   4.227  1.1512  1.3293 -1.1580
44530SOL    HW242559   5.252   1.852   4.338  0.6504 -1.6667 -1.0079
44531SOL     OW42560   4.702  12.535   3.493 -0.7176 -0.5168 -0.6530
44531SOL    HW142561   4.684  12.617   3.447  0.3184  0.8552  1.2223
44531SOL    HW242562   4.786  12.505   3.456 -0.4321 -0.0016 -0.4345
44532SOL     OW42563   0.677  12.572   3.632  0.3935  0.0344 -0.3749
44532SOL    HW142564   0.642  12.491   3.668  0.8842 -0.4616 -0.9962
44532SOL    HW242565   0.632  12.642   3.681 -2.4191 -0.5077 -1.9252
44533SOL     OW42566  12.445   0.803  12.378 -0.3063  0.3326  0.0989
44533SOL    HW142567  12.420   0.851  12.457  2.3123  0.5396  0.9102
44533SOL    HW242568  12.415   0.713  12.394  0.2050  0.3725  1.3733
44534SOL     OW42569   8.994  10.218   2.285 -0.0778  0.7353 -0.6407
44534SOL    HW142570   8.956  10.147   2.337 -1.3017  1.6504 -0.2336
44534SOL    HW242571   8.996  10.183   2.196 -0.1517 -0.0026 -0.3608
44535SOL     OW42572   6.221   1.986   8.165 -0.4337  0.5492  0.0616
44535SOL    HW142573   6.127   1.984   8.180 -0.6074 -1.3318 -0.9761
44535SOL    HW242574   6.237   1.918   8.100  1.6418  0.8740  0.1457
44536SOL     OW42575   2.960   0.875   5.285 -0.9990 -1.1337  0.4590
44536SOL    HW142576   2.959   0.931   5.207  0.0992  0.3086  1.4095
44536SOL    HW242577   3.008   0.797   5.257  0.5028 -0.0924 -0.0041
44537SOL     OW42578   6.305  11.311  12.518 -0.1089  0.5105 -0.7206
44537SOL    HW142579   6.336  11.372  12.452 -2.6140  1.8489 -0.7873
44537SOL    HW242580   6.336  11.348  12.601 -1.6330  2.0147 -0.7523
44538SOL     OW42581   8.426   3.938  11.683  0.1236 -0.4253  0.1800
44538SOL    HW142582   8.392   3.909  11.768 -1.3904  0.7124  0.0067
44538SOL    HW242583   8.352   3.984  11.642  0.9113 -0.7065 -1.6397
44539SOL     OW42584   1.648  11.889   6.206  0.0218  0.0847  0.0631
44539SOL    HW142585   1.617  11.854   6.123  0.5634 -0.3476  0.0389
44539SOL    HW242586   1.739  11.859   6.212  0.0496  0.2888  0.7124
44540SOL     OW42587  11.481  10.299   2.010  0.3033 -0.0582  0.0980
44540SOL    HW142588  11.395  10.282   1.971 -0.7444  0.6077  1.9824
44540SOL    HW242589  11.485  10.394   2.018  1.2960 -0.0762 -0.0903
44541SOL     OW42590  11.757   9.944   7.506 -0.0973  0.2038 -0.4624
44541SOL    HW142591  11.797   9.925   7.421 -0.8624 -1.1620 -0.5582
44541SOL    HW242592  11.674   9.987   7.485 -0.6657 -0.8604 -0.4660
44542SOL     OW42593   9.716   2.850   4.537  0.8591  0.0943 -0.3484
44542SOL    HW142594   9.675   2.764   4.526  0.7557  0.1154 -0.1399
44542SOL    HW242595   9.789   2.834   4.598 -0.6423  0.5826  1.6945
44543SOL     OW42596   1.531  11.511   4.169  0.2130  0.3837 -0.0343
44543SOL    HW142597   1.473  11.452   4.216  1.0577  0.2980  0.9220
44543SOL    HW242598   1.602  11.456   4.136  1.5524  0.9520  1.7301
44544SOL     OW42599   6.182  12.093   9.150 -0.3923  0.0993  0.1840
44544SOL    HW142600   6.158  12.175   9.194 -2.2398 -0.5868  0.5528
44544SOL    HW242601   6.120  12.087   9.077 -0.8235 -1.3348  0.6383
44545SOL     OW42602  10.131  11.539  10.146 -0.6136  0.1026  0.2378
44545SOL    HW142603  10.102  11.475  10.082 -1.6679  0.3622  0.4458
44545SOL    HW242604  10.151  11.617  10.093 -1.1650  0.2107  0.1801
44546SOL     OW42605   9.329  10.039   5.926 -0.1453 -0.0799  0.1106
44546SOL    HW142606   9.329   9.956   5.878  2.3052  0.4822 -1.0057
44546SOL    HW242607   9.334  10.106   5.858  0.7931  0.8547  1.0711
44547SOL     OW42608   5.635  11.340   0.656  0.0304 -0.5013 -0.0593
44547SOL    HW142609   5.617  11.415   0.712 -1.3086  0.4208 -1.6161
44547SOL    HW242610   5.581  11.270   0.692  1.9384 -1.0345  1.9240
44548SOL     OW42611   8.303   0.547   5.664  0.3184 -0.4724  0.2780
44548SOL    HW142612   8.294   0.521   5.756  0.6082 -1.2229  0.1023
44548SOL    HW242613   8.384   0.504   5.635  1.7744  1.9643  0.4220
44549SOL     OW42614   1.045   5.582  11.673  0.0260  0.1339  0.1178
44549SOL    HW142615   0.984   5.508  11.675  0.3066 -0.1049  2.1926
44549SOL    HW242616   1.123   5.547  11.631 -0.0020 -0.6631  0.6960
44550SOL     OW42617  10.195   3.319   8.279 -0.0344 -0.6902  0.0672
44550SOL    HW142618  10.205   3.225   8.266 -1.3587 -1.0072  1.0686
44550SOL    HW242619  10.115   3.327   8.331  1.1261  0.8465  1.7313
44551SOL     OW42620   2.703   8.108  11.000  0.6446 -0.2237  0.5437
44551SOL    HW142621   2.693   8.195  11.038 -0.5287 -0.0478 -0.0937
44551SOL    HW242622   2.784   8.073  11.038  1.1161  1.1317  0.8142
44552SOL     OW42623   7.220  12.494   1.044  0.3094  0.3677 -0.1443
44552SOL    HW142624   7.135  12.539   1.043 -0.4195 -0.9268  0.8343
44552SOL    HW242625   7.207  12.417   0.989  0.7024 -0.0956  0.4068
44553SOL     OW42626  12.452   7.929  10.390 -0.3942 -0.6730  0.2816
44553SOL    HW142627  12.449   7.969  10.303  2.0283  0.0652  0.4567
44553SOL    HW242628  12.479   7.839  10.374 -0.1106 -0.5837  0.2589
44554SOL     OW42629   7.733   5.632   7.316 -0.5419 -0.0935 -0.7851
44554SOL    HW142630   7.694   5.715   7.344  0.7607  0.7482 -1.3876
44554SOL    HW242631   7.714   5.571   7.387 -0.7731  0.9423  0.0614
44555SOL     OW42632   6.466   9.145   2.347  0.2804 -0.0846  0.3474
44555SOL    HW142633   6.455   9.181   2.435  0.1914  1.1495 -0.1476
44555SOL    HW242634   6.448   9.051   2.357 -2.0011  0.3943  1.2163
44556SOL     OW42635   7.972  12.447   9.556  0.5942 -0.2342  0.4158
44556SOL    HW142636   7.992  12.457   9.649  0.0327  2.8534  0.2965
44556SOL    HW242637   7.877  12.440   9.552  0.4259  1.7991 -0.0024
44557SOL     OW42638  11.853   2.151   9.709  0.0289 -0.6287 -0.1233
44557SOL    HW142639  11.820   2.172   9.796  0.3220  0.0958 -0.1863
44557SOL    HW242640  11.820   2.221   9.653  0.9036 -0.3990 -0.3618
44558SOL     OW42641   9.708   3.904   4.583 -0.0094  1.0863 -0.0586
44558SOL    HW142642   9.725   3.958   4.660 -1.6215  0.2099  0.9531
44558SOL    HW242643   9.668   3.964   4.520  2.3925  2.0873 -0.7431
44559SOL     OW42644  10.647   3.675   0.790 -0.8426 -0.1599  0.1035
44559SOL    HW142645  10.633   3.766   0.815 -1.0995  0.1222 -0.9768
44559SOL    HW242646  10.691   3.681   0.705  0.9290 -1.0582  0.9110
44560SOL     OW42647  10.313   2.820   4.962  0.2589 -0.3346 -0.2430
44560SOL    HW142648  10.360   2.869   5.029  1.5577 -0.8181 -0.7847
44560SOL    HW242649  10.233   2.791   5.005  0.8426 -0.2188  0.9389
44561SOL     OW42650   6.290   1.727   7.459 -0.0106  0.2391 -0.0505
44561SOL    HW142651   6.311   1.693   7.546 -0.6074  0.3739  0.1482
44561SOL    HW242652   6.291   1.822   7.470 -0.1153  0.2556 -0.1875
44562SOL     OW42653   8.491   4.774   2.318 -0.3509  0.4624 -0.0885
44562SOL    HW142654   8.550   4.785   2.244  0.0183  0.2343  0.1670
44562SOL    HW242655   8.520   4.840   2.382 -0.7649  0.7628 -0.2031
44563SOL     OW42656   6.757   7.837  10.453  0.2110 -0.1609  0.4066
44563SOL    HW142657   6.687   7.885  10.498  0.5815  0.7908  0.0014
44563SOL    HW242658   6.792   7.900  10.390  1.5824 -0.5311  0.7583
44564SOL     OW42659   6.553   4.051   9.347 -1.1105 -0.0401  0.4182
44564SOL    HW142660   6.597   4.097   9.419 -0.2090 -0.0668 -0.1032
44564SOL    HW242661   6.492   3.991   9.391  0.5897 -1.2464  1.2361
44565SOL     OW42662   3.319  11.993   0.326  0.7508  0.1120  0.3378
44565SOL    HW142663   3.331  11.909   0.371 -0.0200  0.3998  1.1082
44565SOL    HW242664   3.385  11.992   0.256  1.3437 -0.7523  0.8812
44566SOL     OW42665   9.494   1.915   3.385 -0.4928 -0.0411 -0.3745
44566SOL    HW142666   9.480   1.955   3.470  1.6606  0.6146 -0.2706
44566SOL    HW242667   9.523   1.826   3.405 -0.9599 -0.2226 -0.4783
44567SOL     OW42668   2.269   0.194   3.758  0.0409  0.3759  0.3173
44567SOL    HW142669   2.197   0.135   3.735  0.2812  0.0653  0.3591
44567SOL    HW242670   2.287   0.176   3.850 -1.6472  2.3833  1.1269
44568SOL     OW42671   8.289   4.922   7.883  0.0569 -0.3522  0.1903
44568SOL    HW142672   8.238   4.967   7.951  0.4963 -0.2760  0.4770
44568SOL    HW242673   8.342   4.858   7.931 -1.8402 -2.4523 -0.3653
44569SOL     OW42674   6.989   3.294   1.145 -0.7827 -0.3941  0.8664
44569SOL    HW142675   6.973   3.300   1.051  0.3548  2.4128  0.7395
44569SOL    HW242676   6.906   3.320   1.185 -0.8699 -0.2447  0.5933
44570SOL     OW42677   4.649  11.621   6.899 -0.2417 -0.0116 -0.2353
44570SOL    HW142678   4.556  11.603   6.909 -0.1218 -1.4156 -1.4327
44570SOL    HW242679   4.652  11.713   6.873 -1.2960 -0.0146 -0.4208
44571SOL     OW42680   6.655   7.086   1.297  0.0255 -0.1847  0.3580
44571SOL    HW142681   6.665   7.045   1.212  1.0112  0.2651  0.2377
44571SOL    HW242682   6.724   7.154   1.299 -1.6468  1.5978  0.4639
44572SOL     OW42683   9.496  11.533   1.345  0.1702 -0.0542 -0.2782
44572SOL    HW142684   9.455  11.462   1.297  0.1996  0.1815 -0.6584
44572SOL    HW242685   9.529  11.493   1.425 -0.2059 -0.3772 -0.2843
44573SOL     OW42686  11.946  10.485   4.943  0.4468  0.6256 -0.1352
44573SOL    HW142687  11.964  10.519   4.855  1.6534 -1.3576 -0.7096
44573SOL    HW242688  12.016  10.521   4.997  0.7002  0.4675 -0.3568
44574SOL     OW42689   5.203   0.422   6.255  0.8840 -0.1157 -0.1719
44574SOL    HW142690   5.193   0.342   6.306 -2.3096  1.3865  1.9483
44574SOL    HW242691   5.169   0.400   6.168  1.0105 -1.2892  0.0633
44575SOL     OW42692   8.861   7.791   0.220  0.0843  0.2457 -0.0330
44575SOL    HW142693   8.769   7.777   0.198  0.2601 -0.7062 -0.2316
44575SOL    HW242694   8.864   7.783   0.316  0.0353 -0.2750 -0.0687
44576SOL     OW42695   4.560   0.967  12.354 -0.1443 -0.5758  0.0367
44576SOL    HW142696   4.483   0.965  12.298 -0.3926 -1.0881  0.3956
44576SOL    HW242697   4.593   0.877  12.354  0.7717 -0.2572 -0.5429
44577SOL     OW42698   5.777   0.436   7.571  0.5961  0.3458 -0.2144
44577SOL    HW142699   5.859   0.388   7.587  0.0338 -0.1932  1.1635
44577SOL    HW242700   5.743   0.397   7.490  0.0386 -1.8194  0.9802
44578SOL     OW42701   0.238   8.221   4.839  0.5007  0.2872  0.3145
44578SOL    HW142702   0.304   8.284   4.869 -0.0843  0.5171  1.1401
44578SOL    HW242703   0.154   8.264   4.853  0.1585  0.0508 -0.8625
44579SOL     OW42704   3.136   1.178   0.335  0.1295  0.5876  0.3955
44579SOL    HW142705   3.167   1.088   0.332 -0.4380  0.3758  0.8270
44579SOL    HW242706   3.207   1.226   0.380 -0.6012 -0.0944  2.3747
44580SOL     OW42707   6.128   7.834   9.991  0.0615 -0.1750  0.0228
44580SOL    HW142708   6.084   7.850  10.075  0.2237 -0.9906  0.2688
44580SOL    HW242709   6.071   7.771   9.947  0.7628 -0.9149  0.1664
44581SOL     OW42710   0.031   2.806   5.239  0.0186  0.1453 -0.0041
44581SOL    HW142711   0.115   2.803   5.285 -0.4987  0.0330  0.9478
44581SOL    HW242712   0.055   2.826   5.148  0.9831  1.4844  0.5017
44582SOL     OW42713   5.319   9.637   5.138 -0.1660 -0.0715 -0.2980
44582SOL    HW142714   5.291   9.566   5.080  2.6021 -1.6205  0.0787
44582SOL    HW242715   5.252   9.640   5.206  0.1798 -3.2362  0.3558
44583SOL     OW42716   3.685   2.493   2.358 -0.2780  0.4782  0.2667
44583SOL    HW142717   3.738   2.435   2.304  0.0373  1.1679 -0.1593
44583SOL    HW242718   3.682   2.576   2.311  1.2705  1.5900  2.0019
44584SOL     OW42719  12.066   3.677   6.169 -0.0202  0.5075 -0.5216
44584SOL    HW142720  12.127   3.746   6.193  1.5546 -0.7175 -0.8016
44584SOL    HW242721  12.115   3.622   6.107 -1.4123 -0.5285 -0.7605
44585SOL     OW42722   4.423   4.847   0.195  0.4929  0.0102  0.6617
44585SOL    HW142723   4.473   4.908   0.140  0.4005 -1.8187 -1.5952
44585SOL    HW242724   4.486   4.778   0.218 -0.4574 -1.3335 -0.6073
44586SOL     OW42725   0.743  11.391   2.728  0.0657  0.0018  0.1790
44586SOL    HW142726   0.691  11.320   2.767 -0.0931  0.1226  0.1880
44586SOL    HW242727   0.754  11.454   2.799  2.1763 -1.0554  0.8876
44587SOL     OW42728   6.801   1.360   8.335  0.3903  0.2945 -0.3036
44587SOL    HW142729   6.841   1.276   8.357 -0.1517 -0.0466 -0.5818
44587SOL    HW242730   6.875   1.420   8.326  0.6622  0.4106  2.1513
44588SOL     OW42731   9.520   6.378  10.050 -0.1424  0.3320 -0.0519
44588SOL    HW142732   9.512   6.471  10.073  1.3440  0.3047  0.7131
44588SOL    HW242733   9.440   6.338  10.083 -1.0698  1.4099 -0.8827
44589SOL     OW42734   0.195   0.369   0.582 -0.1480 -0.1108  0.2851
44589SOL    HW142735   0.131   0.299   0.568 -0.3573  0.2906 -0.8507
44589SOL    HW242736   0.143   0.447   0.599  0.0875 -0.2438  1.7135
44590SOL     OW42737   9.371   9.621   5.193  0.4275 -0.1439 -0.1547
44590SOL    HW142738   9.357   9.713   5.215 -1.3506 -0.4885  0.3261
44590SOL    HW242739   9.363   9.617   5.098 -0.3711  0.0894 -0.1053
44591SOL     OW42740   2.128   4.311   7.459 -0.0744 -0.9814 -0.0011
44591SOL    HW142741   2.191   4.376   7.428  1.8877 -3.3696 -1.4436
44591SOL    HW242742   2.060   4.309   7.391 -1.1396  0.7241  0.9413
44592SOL     OW42743   4.123   0.675   8.096  0.3155 -0.1686  0.3072
44592SOL    HW142744   4.028   0.676   8.086  0.2679 -0.1923  0.7533
44592SOL    HW242745   4.139   0.625   8.175  0.7177 -0.4035  0.0793
44593SOL     OW42746   2.764  10.162   6.577 -0.2351  0.5164  0.5435
44593SOL    HW142747   2.679  10.178   6.536 -0.9153 -0.9631  1.2862
44593SOL    HW242748   2.786  10.072   6.552  1.0205  0.7961  0.5569
44594SOL     OW42749   3.595   0.852   4.709  0.2776 -0.8053  0.0326
44594SOL    HW142750   3.552   0.798   4.776  0.5449 -0.7696  0.2355
44594SOL    HW242751   3.523   0.890   4.659  0.0729 -3.2415 -1.6678
44595SOL     OW42752   4.248   1.849   0.857 -0.4381 -0.3652 -0.0975
44595SOL    HW142753   4.264   1.847   0.952 -2.0943  1.3321  0.2757
44595SOL    HW242754   4.315   1.908   0.823 -0.6522  0.0646  0.2147
44596SOL     OW42755   7.460   0.940   1.960  0.6262 -0.1227 -0.2461
44596SOL    HW142756   7.498   0.925   2.046  0.7781  2.8276  0.2994
44596SOL    HW242757   7.382   0.994   1.977  0.9233  0.9311 -1.9433
44597SOL     OW42758   1.806   7.979   1.233 -0.4515  0.2527 -0.1696
44597SOL    HW142759   1.745   7.944   1.169 -0.6477  0.5736 -0.1562
44597SOL    HW242760   1.831   8.065   1.199 -1.6487  1.0503  0.8779
44598SOL     OW42761   6.494   5.900  10.942  0.3878 -0.6196  0.2930
44598SOL    HW142762   6.465   5.814  10.912  1.4898 -1.3845  1.3273
44598SOL    HW242763   6.574   5.918  10.893  1.5515 -1.3544  1.8268
44599SOL     OW42764   4.245  12.308   2.590 -0.3372 -0.2905 -0.0473
44599SOL    HW142765   4.318  12.319   2.529  0.7567  1.9216  1.5513
44599SOL    HW242766   4.277  12.245   2.655  0.3303  0.9581  0.8595
44600SOL     OW42767   9.509   9.010   7.036  0.5209  0.2074 -0.0829
44600SOL    HW142768   9.451   8.994   7.111  2.0058 -2.5776  0.6195
44600SOL    HW242769   9.450   9.016   6.961 -0.9303  2.0121  1.0888
44601SOL     OW42770   9.843   0.154   2.718 -0.2892  0.6733 -0.3157
44601SOL    HW142771   9.787   0.227   2.690  0.6542  1.5950  0.1222
44601SOL    HW242772   9.789   0.106   2.781 -1.8016 -0.4313 -2.3397
44602SOL     OW42773  11.394  11.618   9.370 -0.3882  0.0445  0.2916
44602SOL    HW142774  11.443  11.681   9.422  1.5870 -1.4729  0.3616
44602SOL    HW242775  11.394  11.538   9.423 -0.8219 -0.7050 -0.8027
44603SOL     OW42776   7.222  12.433  10.452  0.3007  0.1354 -0.2661
44603SOL    HW142777   7.197  12.340  10.458 -1.2674  0.2355 -3.3538
44603SOL    HW242778   7.234  12.449  10.359  0.4821  3.0790  0.1627
44604SOL     OW42779   8.533   2.992   3.089  0.2227  0.7186 -0.0714
44604SOL    HW142780   8.571   2.966   3.005  0.7446  1.3441 -0.0312
44604SOL    HW242781   8.456   2.936   3.098 -0.1829  1.0522 -1.2457
44605SOL     OW42782   0.524   8.670  10.840  0.1318  0.4524  0.3783
44605SOL    HW142783   0.587   8.724  10.887  0.4396  0.3240  0.1104
44605SOL    HW242784   0.440   8.713  10.856  0.2056  0.3134  1.1881
44606SOL     OW42785   9.633  11.709   1.011 -0.1995  0.4070  0.5322
44606SOL    HW142786   9.637  11.613   1.011  1.3593  0.3528 -1.9150
44606SOL    HW242787   9.548  11.730   0.973  0.3646 -0.1455 -1.1596
44607SOL     OW42788  12.530   0.541   4.220 -0.3762  0.0646  0.1021
44607SOL    HW142789  12.624   0.537   4.202 -0.2819 -0.2194  0.6482
44607SOL    HW242790  12.524   0.588   4.303 -0.9163  3.2058 -1.5626
44608SOL     OW42791   7.786   8.647   1.389  0.0192  0.3081 -1.1604
44608SOL    HW142792   7.876   8.627   1.366  0.4497  0.3506  0.3706
44608SOL    HW242793   7.749   8.688   1.311  1.7222  1.5342 -1.3588
44609SOL     OW42794   9.166   6.713   6.675 -0.2138  0.0697  0.2964
44609SOL    HW142795   9.135   6.623   6.681  0.1376 -0.1045 -0.4114
44609SOL    HW242796   9.215   6.727   6.756 -2.0153  0.3242  1.3997
44610SOL     OW42797   2.186  10.444  11.345  0.3031  0.0387  0.1193
44610SOL    HW142798   2.175  10.538  11.328  0.0423 -0.2460 -1.4257
44610SOL    HW242799   2.251  10.416  11.280  0.9940 -0.7136  1.1046
44611SOL     OW42800   5.934   0.349  10.730  0.0774 -0.1900 -0.2709
44611SOL    HW142801   5.971   0.437  10.742  0.5946  0.0785 -3.0636
44611SOL    HW242802   5.938   0.309  10.816 -0.2567  2.5533  1.1234
44612SOL     OW42803   8.732   3.361   4.293 -0.7482  0.3907  0.2477
44612SOL    HW142804   8.807   3.305   4.273 -0.5165  0.4734  0.8637
44612SOL    HW242805   8.741   3.381   4.386 -2.0595 -0.3756  0.5654
44613SOL     OW42806   1.482   3.566   7.951 -0.3243  0.0964 -0.0471
44613SOL    HW142807   1.463   3.472   7.955 -0.3774  0.0469 -1.1337
44613SOL    HW242808   1.469   3.589   7.859 -0.0705  1.1228  0.1620
44614SOL     OW42809   9.968   5.067   6.763 -0.1139 -0.3675  0.1824
44614SOL    HW142810  10.028   5.053   6.690  0.1353 -0.8130  0.4697
44614SOL    HW242811  10.024   5.095   6.836 -0.2666 -0.6886  0.4242
44615SOL     OW42812   3.515   3.194   2.267  0.0536  0.0673  0.1133
44615SOL    HW142813   3.558   3.120   2.226  1.6875  0.2252  1.4005
44615SOL    HW242814   3.506   3.259   2.197  1.7374 -0.0856 -0.2965
44616SOL     OW42815   2.472   6.752   6.792 -0.6264  0.3771 -0.1171
44616SOL    HW142816   2.505   6.810   6.861 -0.0821 -0.5024  0.3759
44616SOL    HW242817   2.403   6.803   6.749  0.3215  1.6759 -0.1729
44617SOL     OW42818  11.629   7.574   8.297 -0.0068  0.0480 -0.0860
44617SOL    HW142819  11.673   7.548   8.216 -1.3121 -0.0743 -0.7872
44617SOL    HW242820  11.659   7.663   8.313  2.5916 -0.9118  0.9893
44618SOL     OW42821   6.304   6.677   4.125 -0.7934 -0.2362 -0.0183
44618SOL    HW142822   6.346   6.757   4.094 -0.5490  0.0734  1.0609
44618SOL    HW242823   6.292   6.691   4.219 -0.5336 -1.5564  0.2334
44619SOL     OW42824   2.904   4.302   2.868 -0.5210  0.2711 -0.0949
44619SOL    HW142825   2.990   4.272   2.898 -0.0294 -0.2474 -1.9088
44619SOL    HW242826   2.905   4.397   2.882 -0.2077  0.1013  1.1670
44620SOL     OW42827  10.610   7.770   9.593 -0.8054 -0.3488  0.1236
44620SOL    HW142828  10.580   7.794   9.505 -1.8201 -0.5724  0.3881
44620SOL    HW242829  10.566   7.832   9.651 -1.6283 -1.3530  0.6179
44621SOL     OW42830   6.701   7.578   7.237 -0.1913 -0.4396  0.0660
44621SOL    HW142831   6.743   7.664   7.244  0.9248 -1.0039  0.7382
44621SOL    HW242832   6.652   7.581   7.155 -0.0236  0.7677 -0.0069
44622SOL     OW42833   6.593   7.830   4.835  0.4627 -0.5156  0.1302
44622SOL    HW142834   6.636   7.902   4.880 -0.3029  0.2458 -0.3165
44622SOL    HW242835   6.582   7.861   4.745  3.2878 -2.5613 -1.0726
44623SOL     OW42836  10.462   3.819  12.574 -0.0357 -0.2549 -0.1178
44623SOL    HW142837  10.415   3.762  12.513  0.8792 -0.2715 -0.8328
44623SOL    HW242838  10.512   3.878  12.518 -0.1505  0.5575  0.6244
44624SOL     OW42839   3.278   0.623   0.261  0.5096 -0.1889 -0.0308
44624SOL    HW142840   3.202   0.598   0.209  0.6438 -0.7434  0.0275
44624SOL    HW242841   3.259   0.712   0.290  0.0138 -0.2168 -0.2548
44625SOL     OW42842   2.023   5.809  10.034  0.6524 -0.0728 -0.3159
44625SOL    HW142843   1.945   5.860  10.054  1.3238  1.1640 -0.7298
44625SOL    HW242844   1.990   5.734   9.984 -0.4157 -0.3829  0.8028
44626SOL     OW42845   2.489   3.998   2.990 -0.4807  0.5295 -0.0830
44626SOL    HW142846   2.513   4.085   2.958  1.6588 -0.0708 -0.3162
44626SOL    HW242847   2.524   3.994   3.079 -1.4597  0.2411  0.3027
44627SOL     OW42848   5.546   5.812   7.729  0.3534  0.1625  0.2943
44627SOL    HW142849   5.566   5.799   7.821 -1.6083 -1.0227  0.6126
44627SOL    HW242850   5.627   5.848   7.691  1.6393 -0.5933  2.1824
44628SOL     OW42851  11.200   9.343   6.528 -0.2927 -0.2597  0.0635
44628SOL    HW142852  11.119   9.327   6.577 -0.6615 -0.5341 -0.6163
44628SOL    HW242853  11.199   9.277   6.459 -0.0012  0.3859 -0.5713
44629SOL     OW42854   2.472   3.567   8.447  1.0861  0.0863 -0.1558
44629SOL    HW142855   2.425   3.633   8.395  0.7166  0.0397  0.1129
44629SOL    HW242856   2.461   3.486   8.397  0.6283  0.0170  0.0511
44630SOL     OW42857   8.025   2.320   9.188  0.3993  0.2258 -0.3764
44630SOL    HW142858   7.956   2.254   9.196  1.3129 -0.7352 -0.1062
44630SOL    HW242859   8.073   2.314   9.271  1.0401  0.5902 -0.7144
44631SOL     OW42860   7.877   9.241  10.070  0.0906 -0.6755 -0.0741
44631SOL    HW142861   7.885   9.261   9.977 -1.0155 -2.0569 -0.4908
44631SOL    HW242862   7.963   9.264  10.107  0.8958 -1.1076 -1.6115
44632SOL     OW42863   9.693  10.130  10.319 -0.3403  0.0314  0.1943
44632SOL    HW142864   9.699  10.197  10.251 -1.0534 -0.2576 -0.1556
44632SOL    HW242865   9.653  10.055  10.276 -0.8350 -0.1404  0.9371
44633SOL     OW42866   0.216   5.173   9.793  0.2143 -0.2514  0.2962
44633SOL    HW142867   0.300   5.126   9.796  0.2859 -0.1675 -0.2511
44633SOL    HW242868   0.184   5.158   9.704  1.0396  2.1150 -0.4745
44634SOL     OW42869   5.677  11.372   0.128  0.0255  0.5032  0.0420
44634SOL    HW142870   5.678  11.415   0.043 -2.4069  0.1510 -0.2553
44634SOL    HW242871   5.622  11.429   0.183 -0.8804 -0.7211  0.4737
44635SOL     OW42872   5.365  10.408  12.407 -0.3287 -0.3754 -0.2571
44635SOL    HW142873   5.426  10.440  12.339 -0.9160  0.9475 -0.1966
44635SOL    HW242874   5.421  10.362  12.469  0.4404 -0.2561 -0.8396
44636SOL     OW42875   9.377  12.546  10.703  0.4470 -0.0695 -0.5064
44636SOL    HW142876   9.362  12.461  10.744  1.2137 -0.3099 -0.6962
44636SOL    HW242877   9.357  12.532  10.610 -0.4981  0.2593 -0.3613
44637SOL     OW42878   2.856   6.011  10.454 -0.1110  0.7332  0.3019
44637SOL    HW142879   2.842   5.994  10.548  0.7162 -0.7080  0.1957
44637SOL    HW242880   2.772   5.988  10.414 -0.3248  0.9059  0.6391
44638SOL     OW42881   7.528   9.095   2.163 -0.3352 -0.3129  0.6818
44638SOL    HW142882   7.585   9.105   2.086 -2.0481  1.9026 -0.4044
44638SOL    HW242883   7.559   9.162   2.224 -0.4682 -0.4896  0.9417
44639SOL     OW42884   3.033   4.575   5.507  0.2941  0.1474 -0.1362
44639SOL    HW142885   3.017   4.617   5.591  1.5900 -0.2957  0.3584
44639SOL    HW242886   2.952   4.526   5.489 -0.6811  1.6571 -0.0405
44640SOL     OW42887   9.696   5.000   6.884 -0.1345 -0.5826  0.2915
44640SOL    HW142888   9.775   5.006   6.830  0.4838  1.0532  1.2908
44640SOL    HW242889   9.710   4.920   6.936  1.2302  0.0399  0.9475
44641SOL     OW42890  10.301   2.327  11.113 -0.0612  0.3693  0.5442
44641SOL    HW142891  10.236   2.258  11.108 -1.7672  1.9487 -0.6206
44641SOL    HW242892  10.262   2.394  11.169 -0.2948  2.1022 -1.5420
44642SOL     OW42893   9.980   8.522   2.742  0.4273 -0.4448 -0.0735
44642SOL    HW142894  10.043   8.485   2.681 -1.0386 -1.5106 -1.0002
44642SOL    HW242895  10.026   8.597   2.781  1.2739  0.6447 -2.8657
44643SOL     OW42896  11.620   7.120   0.818  0.2460 -0.7683  0.1051
44643SOL    HW142897  11.626   7.031   0.783  1.5842  0.0001 -1.8006
44643SOL    HW242898  11.669   7.116   0.901  1.8177 -1.4529 -0.7957
44644SOL     OW42899   1.198   1.711   3.656 -0.3864  0.4578  0.2004
44644SOL    HW142900   1.254   1.720   3.733  0.6832  3.2620 -0.7731
44644SOL    HW242901   1.110   1.703   3.691  0.1704  0.7391  1.7472
44645SOL     OW42902  11.076   1.385   3.219 -0.2272 -0.1277 -0.2279
44645SOL    HW142903  11.171   1.401   3.217 -0.2230 -0.1663 -1.6904
44645SOL    HW242904  11.044   1.439   3.291  0.9408 -0.3141  0.4568
44646SOL     OW42905   4.871   5.255   3.853 -0.0730  0.3334  0.5515
44646SOL    HW142906   4.878   5.314   3.778 -1.0847  0.9313  0.9106
44646SOL    HW242907   4.853   5.169   3.814  1.2176  0.2646  0.0374
44647SOL     OW42908   3.174   1.437   3.513 -0.1926 -0.2732 -0.3684
44647SOL    HW142909   3.102   1.426   3.576 -1.7858  0.6828 -1.9411
44647SOL    HW242910   3.170   1.530   3.490 -0.5378 -0.8580 -2.8665
44648SOL     OW42911   6.605   1.297   9.410  0.2766  0.1025 -0.3293
44648SOL    HW142912   6.530   1.240   9.430  0.0518  0.4838 -0.0647
44648SOL    HW242913   6.672   1.272   9.473 -0.2355  0.9201  0.5783
44649SOL     OW42914   7.742   3.207   0.909 -0.1385 -0.0179 -0.3628
44649SOL    HW142915   7.750   3.184   0.816 -1.0034  0.1944 -0.4985
44649SOL    HW242916   7.677   3.147   0.943 -0.0719  0.1313  0.0329
44650SOL     OW42917   8.267  10.269   0.882  0.2998  0.3490  0.0799
44650SOL    HW142918   8.185  10.284   0.929  0.7607 -0.1847  1.0838
44650SOL    HW242919   8.297  10.357   0.859 -0.5427  0.5512 -0.2961
44651SOL     OW42920   2.362   1.696   9.981 -0.2487 -0.6041  0.3176
44651SOL    HW142921   2.410   1.768  10.020  0.4619  0.5271 -2.4658
44651SOL    HW242922   2.396   1.618  10.025  2.5329  0.3503  0.0359
44652SOL     OW42923   3.727   7.534   8.709 -0.1252 -0.4843  0.0597
44652SOL    HW142924   3.660   7.466   8.707  0.7020 -1.3237 -0.1102
44652SOL    HW242925   3.801   7.496   8.661 -0.3826  1.3692 -1.9496
44653SOL     OW42926   6.201  11.842   0.107 -0.5801 -0.5892  0.2706
44653SOL    HW142927   6.245  11.927   0.105  0.1741 -0.9832 -0.8264
44653SOL    HW242928   6.191  11.822   0.200 -0.2877  0.4601  0.5333
44654SOL     OW42929   4.008  10.437   3.203 -0.0846 -0.5243 -0.6719
44654SOL    HW142930   4.048  10.474   3.124  0.3879  3.6558  1.2480
44654SOL    HW242931   4.079  10.435   3.267 -1.0709 -1.0209  0.4506
44655SOL     OW42932   1.534   5.283  12.077  0.2557 -0.0724  0.5446
44655SOL    HW142933   1.540   5.209  12.017 -0.9211 -0.0310  0.3492
44655SOL    HW242934   1.585   5.257  12.153 -0.5607 -1.3084  0.6980
44656SOL     OW42935   7.583   9.760   5.875  0.1697  0.4614 -0.2773
44656SOL    HW142936   7.530   9.680   5.872  2.0594 -1.0192  2.2270
44656SOL    HW242937   7.673   9.730   5.863  0.8851  2.3051  0.1134
44657SOL     OW42938   4.018   7.014   1.086  0.0378 -0.2843 -0.2671
44657SOL    HW142939   3.951   6.949   1.103  0.2257 -0.3109  0.4090
44657SOL    HW242940   3.989   7.058   1.006 -0.5086 -0.6456 -0.2738
44658SOL     OW42941  10.442  10.961  10.733 -0.1397 -0.4089 -0.1273
44658SOL    HW142942  10.349  10.984  10.723 -0.4511 -1.0025  1.2058
44658SOL    HW242943  10.466  10.994  10.820  0.4106 -1.7871  0.2761
44659SOL     OW42944   7.523   3.773   3.672  0.0138  0.2529 -0.8101
44659SOL    HW142945   7.462   3.712   3.714  3.6520 -3.2218  0.0625
44659SOL    HW242946   7.515   3.853   3.723 -3.5217 -0.0072 -0.6492
44660SOL     OW42947  11.598  11.802   4.160  0.3723  0.3537 -0.2396
44660SOL    HW142948  11.671  11.811   4.099 -0.6022 -1.0490 -1.6857
44660SOL    HW242949  11.583  11.708   4.167 -1.6800  0.6167 -0.4778
44661SOL     OW42950   6.416   9.982   7.639 -0.4501  0.1085  0.0913
44661SOL    HW142951   6.470  10.035   7.697  0.5791 -1.0877  0.2780
44661SOL    HW242952   6.362  10.045   7.592  0.5506  1.2992  0.4709
44662SOL     OW42953   8.414   7.491   3.957  0.0669 -0.7363 -0.6552
44662SOL    HW142954   8.356   7.511   4.030  0.5510  2.8942 -1.1030
44662SOL    HW242955   8.355   7.460   3.887 -0.9957  0.2918 -0.2370
44663SOL     OW42956   1.127   4.151   3.582 -0.2175  0.0314  0.3505
44663SOL    HW142957   1.150   4.222   3.523  0.6551 -0.7553 -0.2789
44663SOL    HW242958   1.042   4.120   3.550 -1.1451  1.4884  1.3123
44664SOL     OW42959   3.826   3.476   7.628 -0.0785  0.4339 -0.0137
44664SOL    HW142960   3.893   3.467   7.697  0.7904  1.1628 -0.7367
44664SOL    HW242961   3.754   3.522   7.670  0.5740  1.1582  0.3418
44665SOL     OW42962   2.707  10.543   6.996  0.4849  0.0330 -0.3475
44665SOL    HW142963   2.638  10.542   7.062  0.6575 -1.4359 -0.1613
44665SOL    HW242964   2.711  10.635   6.967 -1.7433  0.1201 -0.5801
44666SOL     OW42965  10.012   7.871   6.664  0.5698  0.4138 -0.7552
44666SOL    HW142966  10.087   7.893   6.720  0.5868  1.0921 -1.0247
44666SOL    HW242967   9.984   7.956   6.629 -0.1502  0.1275 -0.8771
44667SOL     OW42968   6.654   8.333   1.846  0.2127  0.1764  0.5974
44667SOL    HW142969   6.573   8.382   1.829 -0.7124 -1.3109  0.5828
44667SOL    HW242970   6.721   8.378   1.794 -0.9014  0.5829 -0.5140
44668SOL     OW42971   8.451   2.895   6.061 -0.5533  0.4876 -0.3708
44668SOL    HW142972   8.462   2.960   6.130  0.4366 -1.2109  1.1805
44668SOL    HW242973   8.504   2.928   5.988  2.0474  0.2736  1.2716
44669SOL     OW42974   2.708  10.597   3.060  0.0483 -0.7900  0.8382
44669SOL    HW142975   2.643  10.529   3.075  0.4411 -0.7817  2.8009
44669SOL    HW242976   2.784  10.570   3.111  0.6742  0.4740  0.6160
44670SOL     OW42977   0.855  10.468   7.101 -0.3593 -0.3595  0.1278
44670SOL    HW142978   0.862  10.412   7.024 -1.6703 -0.1940 -0.1353
44670SOL    HW242979   0.839  10.409   7.174 -1.8927 -0.3537 -0.1720
44671SOL     OW42980   3.354   5.406   9.071 -0.3773  0.1384 -0.0403
44671SOL    HW142981   3.414   5.413   9.145 -0.2116 -1.1833 -0.0427
44671SOL    HW242982   3.290   5.340   9.097 -0.3556 -0.3028 -1.0402
44672SOL     OW42983  10.994   8.444   7.141  0.2961 -0.2181 -0.2671
44672SOL    HW142984  11.069   8.426   7.084 -0.2570 -0.1002 -1.0532
44672SOL    HW242985  10.994   8.539   7.151 -0.0694 -0.1682 -0.7230
44673SOL     OW42986   5.266  11.265   1.306 -0.6264 -0.1317 -0.2431
44673SOL    HW142987   5.320  11.220   1.241 -0.0362 -1.5524  1.1567
44673SOL    HW242988   5.208  11.321   1.255  2.2078  1.5688 -1.8492
44674SOL     OW42989   1.375   5.429   1.092  0.6417  0.7377 -0.4746
44674SOL    HW142990   1.421   5.372   1.030  0.1875 -0.9139  0.6336
44674SOL    HW242991   1.423   5.511   1.090  2.9615 -0.5520 -0.1911
44675SOL     OW42992   6.553  10.768   1.893  0.7138  0.0814  0.1350
44675SOL    HW142993   6.584  10.794   1.980  2.9154  0.7245 -0.7636
44675SOL    HW242994   6.541  10.851   1.847  2.2307 -0.2731 -0.9788
44676SOL     OW42995   6.239   7.383  12.487  0.2242  0.7161 -0.3649
44676SOL    HW142996   6.146   7.377  12.509  0.3762  0.8142  0.3149
44676SOL    HW242997   6.263   7.295  12.461 -0.2381  0.8467 -1.2891
44677SOL     OW42998   6.519   7.310  11.206  0.3666 -0.5614  0.1729
44677SOL    HW142999   6.464   7.252  11.258  3.9906 -3.2761  1.4268
44677SOL    HW243000   6.523   7.268  11.120 -0.8438  0.6396 -0.5116
44678SOL     OW43001   0.463   8.095  10.504 -0.1234  0.4019  0.0906
44678SOL    HW143002   0.421   8.027  10.453  0.5813  0.5972 -0.7754
44678SOL    HW243003   0.526   8.049  10.559  0.3638  0.3428 -0.5063
44679SOL     OW43004   0.276   3.099   6.131 -0.2576  0.6855 -0.0612
44679SOL    HW143005   0.215   3.026   6.139 -2.4342  2.3657 -0.6376
44679SOL    HW243006   0.264   3.148   6.212 -0.0054  1.2878 -0.3898
44680SOL     OW43007  12.173   5.101   4.747 -0.2997 -0.2419  0.3332
44680SOL    HW143008  12.215   5.185   4.727  1.4351 -1.1946 -0.2536
44680SOL    HW243009  12.099   5.124   4.803  0.5487  1.6149  0.7757
44681SOL     OW43010  10.336   7.255   0.941  0.0158 -0.6313 -0.7293
44681SOL    HW143011  10.350   7.292   1.028  2.0146 -1.2716 -0.7246
44681SOL    HW243012  10.255   7.295   0.910 -0.8878 -0.5873  1.5091
44682SOL     OW43013  10.269  11.709   2.563 -0.2102 -0.0596  0.8558
44682SOL    HW143014  10.207  11.766   2.608 -0.8444  0.0371 -0.1058
44682SOL    HW243015  10.334  11.768   2.526 -1.5422  0.2207 -1.1993
44683SOL     OW43016   4.762  11.573  11.003  0.0757 -0.3193 -0.2274
44683SOL    HW143017   4.855  11.593  10.992 -0.1535  1.2236  0.4747
44683SOL    HW243018   4.762  11.485  11.041  1.1901 -0.8498 -1.3678
44684SOL     OW43019  10.114   3.935   0.964 -0.2058  0.1413 -0.5696
44684SOL    HW143020  10.047   3.954   1.030  0.5061  0.1597  0.1615
44684SOL    HW243021  10.161   4.018   0.953  0.9676 -0.3692  0.4001
44685SOL     OW43022   6.473  11.426   2.179  0.0052  0.3090 -0.0809
44685SOL    HW143023   6.543  11.370   2.211  2.0558  1.8275 -1.6020
44685SOL    HW243024   6.446  11.386   2.096  0.0052  0.4351 -0.1424
44686SOL     OW43025  12.332   0.040   1.759 -0.1304 -0.7394  0.4883
44686SOL    HW143026  12.417   0.081   1.742 -0.7402 -0.0263 -1.0064
44686SOL    HW243027  12.268   0.106   1.734 -1.1340 -1.5588  0.8394
44687SOL     OW43028   2.724   8.198   7.369 -0.1931  0.4872  0.0546
44687SOL    HW143029   2.810   8.177   7.332 -0.4023  0.2689 -0.3155
44687SOL    HW243030   2.663   8.187   7.296 -0.5927  0.2076  0.4249
44688SOL     OW43031   7.368   3.364   6.981  0.0324 -0.4861  0.0953
44688SOL    HW143032   7.357   3.429   6.912 -2.0168  0.8689  1.5687
44688SOL    HW243033   7.322   3.286   6.948  0.5540 -0.4403 -0.7592
44689SOL     OW43034   5.900   2.778   7.029  0.4253 -1.0409 -0.1711
44689SOL    HW143035   5.832   2.710   7.023  0.7654 -1.2980 -1.3895
44689SOL    HW243036   5.977   2.732   7.062  0.6929 -1.3006 -1.1175
44690SOL     OW43037   6.143   3.538   4.714 -0.1943  0.1479 -0.4024
44690SOL    HW143038   6.180   3.481   4.781 -0.4265  1.6647  1.0802
44690SOL    HW243039   6.064   3.575   4.754 -0.3238  1.1043 -1.4938
44691SOL     OW43040   5.933  11.643   6.923  0.4341 -0.3710  0.9057
44691SOL    HW143041   5.957  11.691   6.843  0.4883 -0.6942  0.7286
44691SOL    HW243042   5.857  11.690   6.956  0.9620  0.3183  1.1635
44692SOL     OW43043  12.193   6.730   1.947 -0.0700 -0.1974  0.1506
44692SOL    HW143044  12.187   6.700   2.037 -1.6543 -1.2514 -0.2719
44692SOL    HW243045  12.118   6.788   1.935 -0.5719 -1.0136 -0.8100
44693SOL     OW43046   9.852   2.932   8.679 -0.1361  0.2620  0.1922
44693SOL    HW143047   9.807   2.872   8.740  0.6368 -1.0174 -0.4546
44693SOL    HW243048   9.782   2.965   8.622 -0.3999 -1.1230 -0.3205
44694SOL     OW43049  12.116   3.365   2.500 -0.1475  0.2435  0.0844
44694SOL    HW143050  12.099   3.359   2.594 -2.7146 -0.9369 -0.3487
44694SOL    HW243051  12.126   3.274   2.472  0.9307  0.6019 -0.7545
44695SOL     OW43052  12.165  10.262  10.860  0.1895 -0.1386 -0.1803
44695SOL    HW143053  12.070  10.266  10.871  0.0718  1.6292 -1.3815
44695SOL    HW243054  12.198  10.334  10.913  0.8640 -0.6283  0.0824
44696SOL     OW43055  11.394  10.258   9.417  0.0946 -0.7237  0.0001
44696SOL    HW143056  11.303  10.271   9.442  0.4633 -0.2960  1.1448
44696SOL    HW243057  11.415  10.169   9.448  0.2709 -0.5572  0.3608
44697SOL     OW43058   7.777   0.650   7.316  0.3755  0.5016 -0.1462
44697SOL    HW143059   7.851   0.593   7.294  0.0077  0.2433 -0.7571
44697SOL    HW243060   7.771   0.646   7.411  0.0827 -0.8512 -0.2000
44698SOL     OW43061   9.355  11.862  12.111 -0.3467 -0.0612  0.5366
44698SOL    HW143062   9.388  11.867  12.201 -1.9513  1.4852  1.0936
44698SOL    HW243063   9.396  11.783  12.075 -0.7043 -1.4929  3.0448
44699SOL     OW43064   7.046   8.708   0.451 -0.8449  0.1204 -0.2244
44699SOL    HW143065   7.135   8.737   0.471 -0.3858 -0.4018 -1.4200
44699SOL    HW243066   6.991   8.758   0.511  0.1743  1.1626 -0.1126
44700SOL     OW43067   5.747   8.786  12.377 -1.1057  0.4147  0.3805
44700SOL    HW143068   5.788   8.787  12.464  0.6649  3.0538 -0.3517
44700SOL    HW243069   5.738   8.878  12.355 -1.5192 -0.1974 -2.2385
44701SOL     OW43070   4.582  10.457   0.844  0.5602  0.2195  0.3513
44701SOL    HW143071   4.576  10.498   0.758  0.3222  0.3789  0.4421
44701SOL    HW243072   4.657  10.500   0.885  0.6645  0.1536  0.2278
44702SOL     OW43073   4.684  11.306   9.924 -0.1371 -0.1516  0.0402
44702SOL    HW143074   4.699  11.276  10.014  0.0232 -0.7641 -0.1900
44702SOL    HW243075   4.679  11.226   9.872  0.0605  0.2143 -0.5454
44703SOL     OW43076   9.414   0.466   4.360  0.0098  0.4299  0.0250
44703SOL    HW143077   9.488   0.413   4.389  2.2799  2.1668 -2.1453
44703SOL    HW243078   9.397   0.437   4.270 -1.3960  0.6903  0.1718
44704SOL     OW43079   9.290   8.961   7.203  0.2568 -0.1521 -0.3668
44704SOL    HW143080   9.251   9.033   7.154  0.6423 -0.7069 -1.5186
44704SOL    HW243081   9.217   8.919   7.247 -0.2101 -0.1103 -1.0913
44705SOL     OW43082   6.105   8.124   4.453  0.5686  0.0720 -0.3062
44705SOL    HW143083   6.066   8.208   4.429 -1.8143 -1.0860 -0.7818
44705SOL    HW243084   6.164   8.104   4.380  1.5353  1.4892  0.0331
44706SOL     OW43085  11.529  10.121   9.855 -0.1275 -0.4913 -0.0035
44706SOL    HW143086  11.501  10.030   9.861 -0.1667 -0.5407 -0.7800
44706SOL    HW243087  11.623  10.119   9.871  0.1108 -0.8576 -1.3034
44707SOL     OW43088   4.442   4.548   5.247 -1.0288 -0.1389  0.3447
44707SOL    HW143089   4.433   4.453   5.254  1.3003 -0.5520 -1.0571
44707SOL    HW243090   4.526   4.567   5.289 -0.1870  0.8704 -1.6356
44708SOL     OW43091   0.258   2.734   5.628  0.5227 -0.0769 -0.0003
44708SOL    HW143092   0.338   2.723   5.680  0.7701 -1.0227 -0.5591
44708SOL    HW243093   0.190   2.691   5.679  0.5817 -0.2053 -0.0297
44709SOL     OW43094   2.612   6.379   5.713 -0.0338  0.0441  0.6071
44709SOL    HW143095   2.580   6.314   5.650  0.4640 -1.3248  1.7126
44709SOL    HW243096   2.663   6.440   5.660  0.9849 -1.4694 -0.2572
44710SOL     OW43097  10.465   9.937   0.156 -0.4479  0.0170 -0.2189
44710SOL    HW143098  10.544   9.889   0.181  0.7478  1.9183 -0.1160
44710SOL    HW243099  10.417   9.948   0.237  0.5329  1.1247  0.2464
44711SOL     OW43100   4.340   5.846  11.363  0.4337  0.3778 -0.4740
44711SOL    HW143101   4.252   5.878  11.383  1.1236  1.7433  0.5400
44711SOL    HW243102   4.365   5.895  11.284  0.7213  0.9060 -0.0673
44712SOL     OW43103   4.806  10.788   0.198 -0.3375  0.5232  0.5382
44712SOL    HW143104   4.753  10.867   0.200 -0.3925  0.4808  0.7784
44712SOL    HW243105   4.871  10.805   0.129  0.1676  1.1128  1.1438
44713SOL     OW43106   6.151   5.420   2.506 -0.3787  0.4285  0.3573
44713SOL    HW143107   6.221   5.369   2.463  0.1324  1.0204  0.4670
44713SOL    HW243108   6.076   5.361   2.507  0.2203 -0.3507  0.5500
44714SOL     OW43109   0.973   1.391   5.568  0.7432  0.3470 -0.3981
44714SOL    HW143110   0.946   1.403   5.477  2.5571 -0.3885 -1.0924
44714SOL    HW243111   0.971   1.480   5.605 -0.2884  0.6116 -1.0618
44715SOL     OW43112   6.472   1.068   9.155  0.2986 -0.2873 -0.0969
44715SOL    HW143113   6.409   1.033   9.092 -0.0022 -1.6383  0.8934
44715SOL    HW243114   6.468   1.163   9.143 -2.3118 -0.2669  0.2443
44716SOL     OW43115   5.855   7.845   6.253 -0.2734  0.5353  0.1393
44716SOL    HW143116   5.879   7.844   6.345 -1.7639  0.5269  0.5564
44716SOL    HW243117   5.920   7.788   6.211  0.6895  0.9002  1.0945
44717SOL     OW43118  11.003   0.836  11.288  0.2465 -0.0926  0.0888
44717SOL    HW143119  10.925   0.792  11.255  0.9246 -0.6931 -0.7512
44717SOL    HW243120  10.982   0.929  11.285 -1.0796 -0.2911  1.5502
44718SOL     OW43121   2.345   0.908   1.803  0.0583 -0.0274  0.2556
44718SOL    HW143122   2.328   0.976   1.738  0.4088 -2.2710 -2.3593
44718SOL    HW243123   2.440   0.895   1.800  0.1515  0.1676  1.6390
44719SOL     OW43124   9.102   3.576   8.091 -0.3159  0.4452  0.2222
44719SOL    HW143125   9.094   3.531   8.007  0.8201 -1.3954  1.0207
44719SOL    HW243126   9.108   3.669   8.069  1.5260 -0.1015 -1.8850
44720SOL     OW43127   7.879   3.625   1.974 -0.1026  0.0900  0.0198
44720SOL    HW143128   7.935   3.547   1.972  0.9403  0.5332  3.6345
44720SOL    HW243129   7.793   3.591   1.999 -0.7934 -0.2730 -2.6347
44721SOL     OW43130   7.458   8.688   0.687 -0.1935 -0.1662 -0.1843
44721SOL    HW143131   7.547   8.693   0.652 -0.5184  1.2250 -0.8774
44721SOL    HW243132   7.453   8.601   0.725  1.1641 -0.6259 -0.9643
44722SOL     OW43133   6.428   3.001   6.352 -0.3078 -0.3337 -0.1069
44722SOL    HW143134   6.350   3.048   6.378 -1.1354 -1.4183 -0.5249
44722SOL    HW243135   6.459   2.959   6.432 -0.4801 -0.3582 -0.0531
44723SOL     OW43136   7.666   5.731   7.047 -0.4252  0.3360 -0.0601
44723SOL    HW143137   7.587   5.678   7.057 -0.6572  0.9360  1.7473
44723SOL    HW243138   7.731   5.687   7.103 -0.4942  1.6461  1.1109
44724SOL     OW43139   7.480   8.521  11.484  0.7005  0.2618  0.2118
44724SOL    HW143140   7.546   8.508  11.552  0.8955  1.6174  0.3118
44724SOL    HW243141   7.505   8.602  11.441 -1.0048  0.9308  0.3799
44725SOL     OW43142   9.490   4.054   0.519  0.0551  0.0424  0.3573
44725SOL    HW143143   9.536   4.019   0.596 -0.0887 -0.9804 -0.0082
44725SOL    HW243144   9.547   4.031   0.445 -0.8993 -1.0220 -0.0725
44726SOL     OW43145   2.181  11.826   2.771  0.1110 -0.1213 -0.3882
44726SOL    HW143146   2.276  11.823   2.782  0.3161 -0.6871 -2.1142
44726SOL    HW243147   2.147  11.791   2.853  1.3843 -0.1445  0.1630
44727SOL     OW43148  10.648   7.533   6.252 -0.3920  0.6719  0.0929
44727SOL    HW143149  10.742   7.519   6.261 -0.3132 -0.0268 -1.4883
44727SOL    HW243150  10.607   7.461   6.299 -0.1394  0.7663  0.4597
44728SOL     OW43151  12.124   9.987   9.717 -0.3191 -0.1052  0.6302
44728SOL    HW143152  12.032   9.964   9.701 -1.1087  1.6876  2.0892
44728SOL    HW243153  12.174   9.921   9.669 -2.3532 -1.4505  0.1946
44729SOL     OW43154   1.624   0.165   3.099 -0.0620 -0.7071 -0.0992
44729SOL    HW143155   1.561   0.162   3.171  0.1090  0.5324  0.1317
44729SOL    HW243156   1.700   0.117   3.131 -0.5759 -1.5352 -0.0819
44730SOL     OW43157   2.448   4.086  11.265  0.5718 -0.3905 -0.1264
44730SOL    HW143158   2.356   4.102  11.289  0.2629 -2.5623  0.3644
44730SOL    HW243159   2.448   3.998  11.227  2.4487 -0.3718 -0.2733
44731SOL     OW43160   6.040   4.217   9.435 -0.2865  0.6759  0.1373
44731SOL    HW143161   6.082   4.303   9.427  1.2347  0.1142  1.4688
44731SOL    HW243162   5.994   4.221   9.519  3.2079 -1.0674  2.3656
44732SOL     OW43163   1.238   6.452   4.244 -0.2086  0.0155  0.0148
44732SOL    HW143164   1.261   6.440   4.152  3.1107 -0.5666  0.8151
44732SOL    HW243165   1.241   6.364   4.282  2.5115  0.6102  1.4266
44733SOL     OW43166   4.568  12.433   2.071 -0.3646 -0.6765 -0.3460
44733SOL    HW143167   4.589  12.355   2.122  0.9223  0.5882  1.1943
44733SOL    HW243168   4.480  12.458   2.101  0.1720 -0.2361  0.9779
44734SOL     OW43169  12.194   9.297  11.485 -0.6984 -0.6003 -0.1470
44734SOL    HW143170  12.279   9.302  11.440 -0.0501 -0.6773  1.0441
44734SOL    HW243171  12.130   9.292  11.414  0.1646  1.0485 -1.0915
44735SOL     OW43172  10.965   1.564  10.352 -0.1327  0.2796 -0.6075
44735SOL    HW143173  11.023   1.622  10.303 -0.1449  0.8361  0.0096
44735SOL    HW243174  11.024   1.509  10.404 -0.1099  1.8271  1.1393
44736SOL     OW43175   6.392   9.883  10.751 -0.1289  0.2477 -0.4226
44736SOL    HW143176   6.398   9.846  10.663  0.7066  1.0785 -0.7334
44736SOL    HW243177   6.453   9.957  10.751  0.0185  0.1631  0.9080
44737SOL     OW43178   2.097   2.483   0.539  0.0685 -0.2403  0.3699
44737SOL    HW143179   2.080   2.571   0.573  0.5162  0.2063 -0.5176
44737SOL    HW243180   2.067   2.424   0.608  0.1317  0.6135  1.1433
44738SOL     OW43181   2.408   9.613  12.329 -0.6107 -0.0720  0.5924
44738SOL    HW143182   2.449   9.563  12.399 -0.8614 -2.6701 -0.9626
44738SOL    HW243183   2.481   9.657  12.285  0.2128 -2.0270 -0.1494
44739SOL     OW43184  12.253   9.859   0.673 -0.2206  0.2418 -0.3580
44739SOL    HW143185  12.222   9.943   0.708  1.3674  0.3828  0.7835
44739SOL    HW243186  12.281   9.880   0.584 -3.8416 -0.0233 -1.7626
44740SOL     OW43187   5.680   0.449   1.259 -0.1577  0.2124  0.1046
44740SOL    HW143188   5.702   0.533   1.219 -1.8317  0.9140  0.5777
44740SOL    HW243189   5.758   0.425   1.308  1.0940  0.4629 -1.6596
44741SOL     OW43190   9.695  11.534   5.084  0.2473  0.3200 -0.0321
44741SOL    HW143191   9.756  11.606   5.083  2.1058 -1.1461 -2.1996
44741SOL    HW243192   9.649  11.542   5.167  2.3420  2.3419  1.0252
44742SOL     OW43193   8.247   9.011   4.656 -0.0112  0.3531  0.4001
44742SOL    HW143194   8.157   9.040   4.638 -0.5028  0.1837  2.3330
44742SOL    HW243195   8.236   8.926   4.700  1.1487 -0.1040 -0.1649
44743SOL     OW43196   0.230  10.346   0.210  0.1648  0.0999 -0.0986
44743SOL    HW143197   0.214  10.342   0.304  0.7481  0.4027  0.0145
44743SOL    HW243198   0.199  10.432   0.183 -0.3848 -0.1446 -0.2589
44744SOL     OW43199  11.783   0.229   3.950 -0.0190 -0.3212 -0.1548
44744SOL    HW143200  11.692   0.249   3.972 -0.4235 -1.7091 -0.4687
44744SOL    HW243201  11.819   0.313   3.920 -1.2628  0.1951 -0.2885
44745SOL     OW43202  10.040   2.672  12.406 -0.1069 -0.7538  0.9967
44745SOL    HW143203  10.063   2.702  12.318 -0.5682  0.7370  1.3502
44745SOL    HW243204  10.123   2.645  12.445  0.2773 -0.2789  0.5194
44746SOL     OW43205  11.602  12.044  10.908  0.9852  0.1886  0.3288
44746SOL    HW143206  11.693  12.066  10.888  0.5701  1.0969 -0.6707
44746SOL    HW243207  11.558  12.129  10.912 -0.2246 -0.3268 -1.2678
44747SOL     OW43208  10.034   0.531   1.212 -0.5507 -0.3497 -0.8278
44747SOL    HW143209  10.044   0.613   1.163 -1.5461 -0.4471 -1.2089
44747SOL    HW243210  10.118   0.521   1.257 -0.5944  1.1447 -0.3517
44748SOL     OW43211   7.437   4.847   4.396 -0.5272 -0.5631 -0.5360
44748SOL    HW143212   7.505   4.796   4.351 -0.2914 -0.0345 -0.7871
44748SOL    HW243213   7.377   4.781   4.431 -0.4048 -0.9997 -1.1375
44749SOL     OW43214  12.111   9.040   1.739  0.3071  0.2738 -0.0479
44749SOL    HW143215  12.073   9.120   1.776 -1.0817  0.8284 -2.4388
44749SOL    HW243216  12.175   9.011   1.804 -1.0408  1.8393  2.1073
44750SOL     OW43217  10.576   0.216   8.173  0.1032  0.1820 -0.5722
44750SOL    HW143218  10.540   0.135   8.136  0.2120 -0.5683  0.8644
44750SOL    HW243219  10.667   0.217   8.144 -0.1509  0.2996 -1.3950
44751SOL     OW43220   3.887   1.151  12.571  0.5344  0.3395 -0.5192
44751SOL    HW143221   3.854   1.208  12.501  2.0739  1.9819  0.0317
44751SOL    HW243222   3.870   1.200  12.652 -0.1577 -1.0166  0.1814
44752SOL     OW43223  10.085   8.032   6.949 -0.1394  0.2060  0.1639
44752SOL    HW143224  10.154   7.986   6.901  1.3448  0.3446  2.0388
44752SOL    HW243225  10.016   7.966   6.961 -0.3306  0.0375 -1.6315
44753SOL     OW43226   9.118   3.811  10.492  0.0938  0.2711 -0.6606
44753SOL    HW143227   9.060   3.797  10.567 -0.5161 -0.3732 -1.2310
44753SOL    HW243228   9.174   3.733  10.490  0.5944  0.6191 -0.4611
44754SOL     OW43229   8.167   0.466   9.418  0.5444  0.1586  0.1805
44754SOL    HW143230   8.098   0.452   9.483  0.2844  0.3059 -0.0589
44754SOL    HW243231   8.248   0.444   9.464  0.2359 -1.3483  0.0656
44755SOL     OW43232  12.202   5.426   0.067 -0.3822  0.0738 -0.4035
44755SOL    HW143233  12.231   5.353   0.122 -0.2130  0.6304  0.2549
44755SOL    HW243234  12.282   5.474   0.047 -0.6848  1.0817  0.6456
44756SOL     OW43235   7.762  12.061   0.038  0.4998 -0.0469 -0.2457
44756SOL    HW143236   7.833  12.113   0.074 -0.0048 -0.0552  0.8013
44756SOL    HW243237   7.699  12.125   0.005  0.7214 -0.0291 -0.6334
44757SOL     OW43238  10.433   7.571   1.363  0.2508  0.4966 -0.0713
44757SOL    HW143239  10.504   7.543   1.421 -0.2745 -2.9893 -0.8585
44757SOL    HW243240  10.359   7.586   1.422  0.9235  1.6328  0.5186
44758SOL     OW43241   9.932   9.758   1.331  0.4009  0.2411  0.1571
44758SOL    HW143242   9.905   9.769   1.239  4.0298  0.5433 -1.0184
44758SOL    HW243243   9.867   9.698   1.368 -1.4685  0.4871 -2.4330
44759SOL     OW43244   7.037   9.134   7.596  0.2988 -0.5470 -0.1294
44759SOL    HW143245   6.979   9.143   7.672  1.0078 -0.3431  0.3999
44759SOL    HW243246   7.015   9.209   7.540  0.3386 -0.2369  0.2653
44760SOL     OW43247   3.013   9.152  10.458  0.2537  0.3264  0.3129
44760SOL    HW143248   2.936   9.127  10.406 -0.5343  0.4436  1.3882
44760SOL    HW243249   3.026   9.245  10.437  0.5763  0.1234 -0.4382
44761SOL     OW43250  11.678   0.727   0.237  0.6024 -0.4190 -0.2030
44761SOL    HW143251  11.748   0.670   0.268  0.4991 -1.5493 -1.9265
44761SOL    HW243252  11.603   0.707   0.294  0.4470 -2.3669 -1.0217
44762SOL     OW43253   3.144   1.934   8.350 -0.0643 -0.0616 -0.0730
44762SOL    HW143254   3.145   1.921   8.445  1.7345  0.1835 -0.0142
44762SOL    HW243255   3.057   1.969   8.331 -0.8710 -1.2046  1.3100
44763SOL     OW43256   7.955   4.078   5.582 -0.3092  0.3770 -0.1644
44763SOL    HW143257   7.889   4.087   5.513 -0.9309  1.5878  0.5371
44763SOL    HW243258   8.024   4.140   5.557 -0.5417  0.8275  0.2764
44764SOL     OW43259   5.806  11.807   0.223 -0.5994  0.0862 -0.0599
44764SOL    HW143260   5.748  11.877   0.192  0.8649  1.6194  0.5290
44764SOL    HW243261   5.762  11.772   0.301 -0.2132  2.0455  1.0976
44765SOL     OW43262   9.726   5.028  12.380  0.3507  0.1345 -0.3364
44765SOL    HW143263   9.708   5.007  12.471 -0.6104 -3.2295 -1.1665
44765SOL    HW243264   9.804   4.977  12.358  0.4304  0.7004 -1.4694
44766SOL     OW43265   4.977   7.410   1.537 -0.1318 -0.3095  0.1512
44766SOL    HW143266   4.932   7.331   1.508 -2.3390  0.4971  1.2161
44766SOL    HW243267   5.010   7.449   1.456  1.2406 -2.3771 -0.3879
44767SOL     OW43268   2.743   2.195   6.443 -0.4202 -0.1137  0.0544
44767SOL    HW143269   2.652   2.219   6.461 -0.5394  1.5066 -2.2519
44767SOL    HW243270   2.738   2.103   6.415 -1.1872 -0.3435  0.8855
44768SOL     OW43271  11.493   8.490   8.548 -0.3491  0.1149  0.5249
44768SOL    HW143272  11.426   8.557   8.560  0.4992  0.7308  2.0879
44768SOL    HW243273  11.546   8.521   8.475 -2.0303 -0.6545 -1.1107
44769SOL     OW43274   9.002   3.404   0.113 -0.3908 -0.0482  0.1687
44769SOL    HW143275   8.987   3.318   0.152 -0.8336  0.5488  1.3492
44769SOL    HW243276   8.918   3.427   0.073 -0.3908  0.0086  0.2015
44770SOL     OW43277  10.906  11.910   3.605 -0.2995 -0.0355  0.4283
44770SOL    HW143278  10.867  11.896   3.691 -1.7429 -0.0826 -0.2097
44770SOL    HW243279  10.854  11.980   3.566  0.1473 -0.2099 -0.5167
44771SOL     OW43280  11.082   7.443  10.988  0.3808 -0.2624  0.3849
44771SOL    HW143281  11.014   7.503  11.017  0.0816 -1.2216  1.7587
44771SOL    HW243282  11.037   7.359  10.977  0.8443 -0.3364 -1.2340
44772SOL     OW43283   3.879  10.002   4.277  0.1548 -0.5393  0.1496
44772SOL    HW143284   3.903  10.073   4.337 -1.6107  0.1907  0.0776
44772SOL    HW243285   3.789  10.023   4.251  0.5205 -1.3990 -1.9718
44773SOL     OW43286   7.158   4.133   2.067 -0.0566  0.2326 -0.6049
44773SOL    HW143287   7.251   4.112   2.060  0.2662  1.0339  0.9744
44773SOL    HW243288   7.135   4.169   1.981  0.7108 -1.3237 -1.4979
44774SOL     OW43289   9.993   2.171   6.899  0.2681 -0.1017  0.2674
44774SOL    HW143290   9.939   2.162   6.978  0.0150 -0.8181  0.0169
44774SOL    HW243291   9.959   2.106   6.839  0.9088 -0.0277 -0.1853
44775SOL     OW43292   4.255   6.272   4.357 -0.0855  0.3503 -0.2995
44775SOL    HW143293   4.192   6.262   4.286 -0.6940 -1.1116  0.4074
44775SOL    HW243294   4.339   6.249   4.318 -0.5461 -1.3580 -0.3513
44776SOL     OW43295   1.959  11.533   8.570  0.1637 -0.1825 -0.2526
44776SOL    HW143296   1.888  11.537   8.505 -0.9578  0.0829  0.9459
44776SOL    HW243297   1.957  11.618   8.614  1.0189 -0.2959  0.0246
44777SOL     OW43298   2.397   7.749   9.347  0.1111 -0.2880 -0.2456
44777SOL    HW143299   2.411   7.824   9.406 -0.0424 -0.1620 -0.3657
44777SOL    HW243300   2.478   7.699   9.352  0.1376 -0.2243 -0.0031
44778SOL     OW43301  12.545  11.657   1.742 -0.0519 -0.6198  0.1822
44778SOL    HW143302  12.584  11.634   1.658 -1.0222 -2.0934  0.0969
44778SOL    HW243303  12.477  11.591   1.755 -1.4026  0.8863  1.0778
44779SOL     OW43304   9.173  11.507  10.462 -0.5144 -0.4993 -0.4930
44779SOL    HW143305   9.080  11.484  10.473 -0.7427  0.4244 -0.4200
44779SOL    HW243306   9.172  11.599  10.438  0.4332 -0.2520  0.3460
44780SOL     OW43307   9.820   6.402  10.775  0.4274  0.3581  0.1882
44780SOL    HW143308   9.844   6.366  10.861 -0.1297  0.6673  0.4775
44780SOL    HW243309   9.789   6.326  10.725  1.1660  0.1027  0.1036
44781SOL     OW43310   7.999  12.427   5.114  0.2215  0.0993 -0.0134
44781SOL    HW143311   7.994  12.442   5.019 -0.1939  3.7784  0.4337
44781SOL    HW243312   8.092  12.413   5.131  0.0491 -3.4497 -1.1419
44782SOL     OW43313   8.005   4.495   4.402  0.4694  0.3303 -0.0655
44782SOL    HW143314   7.951   4.556   4.453 -0.2820 -0.5765  0.2541
44782SOL    HW243315   7.943   4.452   4.343  0.4120 -2.2358  1.7317
44783SOL     OW43316   7.124   8.489   0.086  0.4203 -0.5639  0.6736
44783SOL    HW143317   7.191   8.520   0.026  0.0645  0.3353  0.7210
44783SOL    HW243318   7.138   8.394   0.092  1.0662 -0.5203 -0.0595
44784SOL     OW43319   3.625   7.404   0.178 -0.2364  0.0209  0.1053
44784SOL    HW143320   3.687   7.476   0.182  0.1132 -0.2886  0.2919
44784SOL    HW243321   3.672   7.333   0.135 -0.5358 -0.1422  0.0396
44785SOL     OW43322   3.921   7.146   5.432  0.0674  0.1799 -0.3526
44785SOL    HW143323   4.006   7.150   5.476  1.0147 -1.1428 -1.9341
44785SOL    HW243324   3.936   7.189   5.347 -0.8614 -0.0251 -0.6302
44786SOL     OW43325   1.505   8.135   9.124  0.1083 -0.1137  0.1335
44786SOL    HW143326   1.522   8.061   9.065  0.9994  0.1879 -0.0159
44786SOL    HW243327   1.438   8.103   9.185 -0.1069 -0.7651 -0.4288
44787SOL     OW43328   4.586   3.944   2.387  0.8744  0.4355 -0.8738
44787SOL    HW143329   4.661   3.886   2.402  0.7859  0.2204 -1.2219
44787SOL    HW243330   4.513   3.898   2.428  0.9488  0.6808 -0.4715
44788SOL     OW43331  11.337  10.189   7.055  0.2355 -0.2807  0.2924
44788SOL    HW143332  11.390  10.156   7.127 -1.3070  0.5338  1.8716
44788SOL    HW243333  11.259  10.135   7.055 -0.7746  1.1207  0.7015
44789SOL     OW43334   5.661   1.463   4.844 -0.3219  0.4662  0.0056
44789SOL    HW143335   5.703   1.467   4.758  0.3794 -1.8527  0.1554
44789SOL    HW243336   5.726   1.499   4.904 -0.3412  1.0000 -0.2872
44790SOL     OW43337  10.454   9.544   8.119  0.6292  0.3175  0.3883
44790SOL    HW143338  10.531   9.501   8.083  0.2885 -0.6807  0.8406
44790SOL    HW243339  10.384   9.526   8.056  0.8278  1.5574 -0.2287
44791SOL     OW43340   5.449  10.905   7.993 -0.3546 -0.7487  0.5640
44791SOL    HW143341   5.394  10.828   7.974 -0.4568 -1.4883  3.3874
44791SOL    HW243342   5.388  10.979   7.987 -0.4200 -0.9067 -1.4675
44792SOL     OW43343   2.333   2.757  10.830 -0.5536 -0.5481 -0.2425
44792SOL    HW143344   2.419   2.716  10.827 -0.3226 -0.1217  0.3903
44792SOL    HW243345   2.325   2.802  10.745  0.5452  0.7860  0.3116
44793SOL     OW43346   9.994   5.081   8.763  0.4433 -0.2852  0.2630
44793SOL    HW143347  10.031   5.132   8.835 -0.5420  0.1281  0.4982
44793SOL    HW243348  10.030   5.121   8.684 -1.3405  1.7332  0.3676
44794SOL     OW43349   5.205  12.325   7.974 -0.6602 -0.3956  0.1649
44794SOL    HW143350   5.148  12.395   8.006 -0.4890 -0.1408 -0.0863
44794SOL    HW243351   5.270  12.313   8.044 -1.7602 -1.5718  1.0408
44795SOL     OW43352   9.846   6.845   4.761 -0.5543 -0.1266 -0.2585
44795SOL    HW143353   9.803   6.775   4.811 -1.9222  0.1122 -1.0513
44795SOL    HW243354   9.851   6.811   4.672 -0.5421  0.4820 -0.4954
44796SOL     OW43355   9.202   5.955   9.721 -0.2343  0.8332  0.4264
44796SOL    HW143356   9.185   5.894   9.793 -2.0406  1.3476  0.4803
44796SOL    HW243357   9.226   5.899   9.648 -1.1347  0.0881  0.6758
44797SOL     OW43358   8.378  11.684   0.655  0.2627  0.0580  0.5491
44797SOL    HW143359   8.349  11.641   0.575  1.0445  0.0517  0.2566
44797SOL    HW243360   8.405  11.612   0.712  1.4681  0.1348  0.1011
44798SOL     OW43361  12.214   6.096   7.060  0.4122 -0.2791  0.1362
44798SOL    HW143362  12.195   6.126   6.971 -1.0735 -0.4287  0.3831
44798SOL    HW243363  12.287   6.152   7.088  0.5486  0.1319 -0.9773
44799SOL     OW43364   9.495   7.277   3.181 -0.3897  0.4469  0.3125
44799SOL    HW143365   9.579   7.285   3.226 -0.6427  3.1883  0.4575
44799SOL    HW243366   9.461   7.192   3.208  1.7890 -0.2053  1.1713
44800SOL     OW43367   0.649   9.749   5.126 -0.4308 -0.1574  0.2648
44800SOL    HW143368   0.662   9.838   5.094  1.3054 -0.8018 -0.9575
44800SOL    HW243369   0.582   9.713   5.068  1.1268 -0.6122 -1.3396
44801SOL     OW43370   3.472  11.785   5.898  0.5719  0.0219 -0.3274
44801SOL    HW143371   3.465  11.787   5.993  1.9786  0.8856 -0.2168
44801SOL    HW243372   3.519  11.704   5.879  0.2874 -0.1521 -0.2899
44802SOL     OW43373   2.855   4.210   6.808  0.3724 -0.5694 -0.0202
44802SOL    HW143374   2.765   4.238   6.795  0.7608  0.1911 -1.2488
44802SOL    HW243375   2.851   4.147   6.879 -0.8826  0.7474  1.1291
44803SOL     OW43376   7.263   7.824   3.074 -0.1583 -0.1912  0.0605
44803SOL    HW143377   7.210   7.850   3.150  2.2403  1.6781  1.2205
44803SOL    HW243378   7.277   7.906   3.026 -2.4760 -1.4509 -3.1509
44804SOL     OW43379  10.252   1.919   4.804 -0.0811 -0.1997 -0.2114
44804SOL    HW143380  10.268   2.012   4.818  1.4410 -0.5262  0.4807
44804SOL    HW243381  10.316   1.875   4.861 -1.1005 -1.6685 -0.1388
44805SOL     OW43382   1.010   8.453   7.631 -0.2402  0.3936  0.7438
44805SOL    HW143383   1.029   8.392   7.560  2.5579  1.8971  0.0575
44805SOL    HW243384   1.037   8.406   7.710 -0.8645 -0.3008  0.5559
44806SOL     OW43385   2.949   6.997   8.471 -0.0533  0.1224 -0.1809
44806SOL    HW143386   2.954   6.980   8.377 -0.8798 -0.0911 -0.1936
44806SOL    HW243387   2.955   6.911   8.511 -0.1155  0.1748 -0.0584
44807SOL     OW43388  11.835  10.011  10.672  0.1475  0.0444 -0.4646
44807SOL    HW143389  11.912  10.018  10.615  0.8075 -3.4328 -0.2565
44807SOL    HW243390  11.766   9.978  10.614 -0.8742  1.8700 -0.3546
44808SOL     OW43391   7.776   9.426   9.554  0.2006 -0.3160  0.8902
44808SOL    HW143392   7.847   9.368   9.527  0.2244 -0.6336  1.6272
44808SOL    HW243393   7.781   9.500   9.493  3.2697  1.3326  2.8474
44809SOL     OW43394   2.646  12.510  11.575  0.5303  0.3871 -0.3936
44809SOL    HW143395   2.684  12.489  11.490 -0.4252  1.4278 -1.1215
44809SOL    HW243396   2.617  12.426  11.610  2.9391 -0.3586 -0.0411
44810SOL     OW43397   9.372   1.951   8.938  0.0123  0.3854  0.5266
44810SOL    HW143398   9.312   1.926   8.868  1.8094 -0.2410 -0.8854
44810SOL    HW243399   9.394   1.869   8.981  1.6186  0.2236 -0.5067
44811SOL     OW43400   8.679   5.916   1.934  0.1332 -0.5857 -0.3642
44811SOL    HW143401   8.767   5.921   1.898  0.1011 -0.3453 -0.4106
44811SOL    HW243402   8.681   5.971   2.012  0.4460 -1.8133  0.5213
44812SOL     OW43403   3.155   7.952  10.313 -0.5161  0.4733 -0.2280
44812SOL    HW143404   3.129   8.042  10.330 -0.9399  0.2138  0.5737
44812SOL    HW243405   3.083   7.899  10.348  0.6589 -0.2356  1.2458
44813SOL     OW43406   3.395  10.018   0.609 -0.3944  0.3735 -0.1118
44813SOL    HW143407   3.484  10.040   0.583  0.3543 -0.8757  1.2075
44813SOL    HW243408   3.360  10.098   0.647 -0.1155  1.0806 -1.2991
44814SOL     OW43409   9.210   2.871   2.231  0.2370  0.3392 -0.9219
44814SOL    HW143410   9.139   2.885   2.169  0.5273  1.6659 -0.9831
44814SOL    HW243411   9.279   2.828   2.180 -0.6959 -1.4814 -0.7229
44815SOL     OW43412   6.745   9.117   3.091 -0.6652  0.1357  0.2550
44815SOL    HW143413   6.694   9.059   3.147 -0.3773  1.8550  2.4314
44815SOL    HW243414   6.766   9.192   3.146  2.8866  0.2583 -0.9657
44816SOL     OW43415   0.932  10.370  11.254 -0.1869 -0.4147 -0.2208
44816SOL    HW143416   0.998  10.331  11.196  0.0371 -1.7284  0.8652
44816SOL    HW243417   0.854  10.316  11.239 -0.5049  0.0520 -0.2379
44817SOL     OW43418   4.033   8.152   0.363  0.1673  0.1875 -0.7664
44817SOL    HW143419   3.967   8.119   0.424  0.3653  1.7662  0.3742
44817SOL    HW243420   4.031   8.247   0.375 -0.3248  0.6635 -3.8282
44818SOL     OW43421   7.589   5.003   9.982  0.0630 -0.0216 -0.4064
44818SOL    HW143422   7.602   5.092  10.014  0.1397  0.2273 -1.1140
44818SOL    HW243423   7.653   4.951  10.029 -0.9345  0.0351  1.0800
44819SOL     OW43424   2.510  10.883   4.965 -0.1941  0.5190  0.3517
44819SOL    HW143425   2.568  10.810   4.942  1.0304  1.7533 -0.6681
44819SOL    HW243426   2.423  10.853   4.940  0.0730 -1.1231  1.2838
44820SOL     OW43427   5.332   9.378  10.982 -0.0701  0.0454 -0.2282
44820SOL    HW143428   5.421   9.387  11.015  0.2139  0.9099 -1.1944
44820SOL    HW243429   5.290   9.316  11.042  1.4731 -1.1712 -0.3531
44821SOL     OW43430   6.449   4.394   2.380 -0.4280  0.2488 -0.4309
44821SOL    HW143431   6.433   4.309   2.422  0.1843  0.6412  0.6215
44821SOL    HW243432   6.521   4.377   2.320 -0.3464  0.0089 -0.2700
44822SOL     OW43433   8.801   8.262   0.842 -0.7019  0.0612  0.1167
44822SOL    HW143434   8.860   8.337   0.837 -0.1690 -0.4438 -2.1205
44822SOL    HW243435   8.849   8.197   0.892 -0.8208  0.8460  1.3192
44823SOL     OW43436   5.116   3.172   7.462  0.0860 -0.0053  0.4890
44823SOL    HW143437   5.079   3.123   7.389  2.7266  0.4444 -1.3240
44823SOL    HW243438   5.172   3.238   7.420  3.1483 -0.8520  2.8372
44824SOL     OW43439   3.558   0.922   3.549 -0.4837 -0.1526 -0.3543
44824SOL    HW143440   3.495   0.958   3.486  0.8603 -0.1366 -1.7599
44824SOL    HW243441   3.568   0.990   3.615 -1.3202  0.1784 -0.5596
44825SOL     OW43442   2.590   1.246   0.945 -0.5395  0.1600  0.0104
44825SOL    HW143443   2.535   1.236   1.023 -0.7774  0.5400 -0.1058
44825SOL    HW243444   2.571   1.169   0.892  0.3014 -0.5776  0.7303
44826SOL     OW43445   3.660   2.822   2.518  0.3173  0.0966  0.2371
44826SOL    HW143446   3.661   2.917   2.518 -2.3554  0.2006  0.7571
44826SOL    HW243447   3.686   2.798   2.607 -2.1048  0.5448  1.1518
44827SOL     OW43448   9.589  11.817   2.675 -0.3391 -0.2386 -0.3249
44827SOL    HW143449   9.552  11.836   2.761  0.8257 -1.0528  0.3773
44827SOL    HW243450   9.549  11.882   2.617  1.3487  2.5312  1.4051
44828SOL     OW43451  11.083   4.072  10.859 -0.3874 -0.2112  0.1105
44828SOL    HW143452  11.019   4.015  10.901 -1.4354  1.4970  0.9243
44828SOL    HW243453  11.157   4.074  10.920 -0.8571  0.2721  0.6670
44829SOL     OW43454   8.444   3.459  12.575  0.0249 -0.0064 -0.4414
44829SOL    HW143455   8.395   3.398  12.520  0.6862 -0.6269 -0.3486
44829SOL    HW243456   8.397   3.542  12.565 -1.3739 -0.6867  0.0537
44830SOL     OW43457   6.219   2.866   7.439  0.3737  0.2802  0.4439
44830SOL    HW143458   6.136   2.821   7.424  1.4074 -1.3664 -0.6127
44830SOL    HW243459   6.244   2.902   7.354  1.1166  0.0765  0.5648
44831SOL     OW43460  10.418   0.099  11.752 -0.0785  0.2124  0.4356
44831SOL    HW143461  10.367   0.117  11.673 -1.4800  2.1899  1.7068
44831SOL    HW243462  10.466   0.180  11.769  2.5499 -1.1375  0.0695
44832SOL     OW43463   9.411   1.107   8.030  0.2236  0.1446 -0.1225
44832SOL    HW143464   9.328   1.114   8.076  0.1183 -0.5690 -0.1930
44832SOL    HW243465   9.456   1.190   8.048  0.8194 -0.6602  2.4739
44833SOL     OW43466  10.829  11.139   2.186 -0.2084  0.6523  0.6420
44833SOL    HW143467  10.873  11.205   2.239 -0.3226  0.9827  0.3211
44833SOL    HW243468  10.742  11.174   2.169 -0.4325  0.2162  0.8585
44834SOL     OW43469   7.152   8.304   4.089  0.3001 -0.2010  0.9416
44834SOL    HW143470   7.209   8.378   4.113  0.5077  0.7603 -2.0846
44834SOL    HW243471   7.064   8.335   4.109  0.5015  0.1846  1.2575
44835SOL     OW43472   0.806   3.035   0.989 -1.0270 -0.4297  0.6441
44835SOL    HW143473   0.721   2.995   1.004 -1.2854 -0.1896 -0.1483
44835SOL    HW243474   0.861   2.964   0.956 -1.0963 -0.4445  0.5604
44836SOL     OW43475   4.701  11.267   8.669 -0.1313  0.0770  0.2748
44836SOL    HW143476   4.770  11.220   8.716 -0.0857  1.1922  1.3775
44836SOL    HW243477   4.740  11.289   8.584  1.0588  1.0820  1.0449
44837SOL     OW43478  10.888  11.570   0.536  0.7557 -0.0319 -0.1254
44837SOL    HW143479  10.920  11.482   0.557 -1.8226 -0.4103  3.0611
44837SOL    HW243480  10.940  11.628   0.592  0.4266  0.0854  0.0652
44838SOL     OW43481   3.489   1.226   7.430  0.0718  0.1069 -0.4295
44838SOL    HW143482   3.429   1.263   7.365 -0.8159  0.5960  0.6349
44838SOL    HW243483   3.549   1.171   7.379 -1.4544 -0.6319 -1.5068
44839SOL     OW43484   8.249   6.603   3.350 -0.0775 -0.9698  0.5627
44839SOL    HW143485   8.344   6.618   3.351  0.0160 -1.3906 -0.6445
44839SOL    HW243486   8.227   6.588   3.442  0.7681  0.6035  1.0680
44840SOL     OW43487   3.514   6.352  10.563  0.1032  0.6843 -0.6371
44840SOL    HW143488   3.476   6.395  10.639  2.1648  2.7483 -0.6597
44840SOL    HW243489   3.609   6.356  10.577  0.4746 -0.8082 -2.3178
44841SOL     OW43490   8.115  12.146   1.859 -0.6693 -0.0019  0.6159
44841SOL    HW143491   8.119  12.112   1.770 -2.2445  0.0058  0.5130
44841SOL    HW243492   8.199  12.190   1.872 -0.5361  0.2535 -0.9649
44842SOL     OW43493  10.245   5.693   2.290 -0.1320 -0.1315  0.0458
44842SOL    HW143494  10.246   5.600   2.313 -2.4683 -0.3176 -0.4087
44842SOL    HW243495  10.161   5.725   2.324 -0.0814  1.4415 -1.2187
44843SOL     OW43496   5.454  10.100   9.043  0.1011  0.2659  0.0960
44843SOL    HW143497   5.476  10.061   8.959  0.4002  0.4234  0.0978
44843SOL    HW243498   5.514  10.059   9.106 -0.6494 -0.4274  0.3741
44844SOL     OW43499   0.921   2.583   5.507  0.7446 -0.0241  0.1405
44844SOL    HW143500   0.999   2.559   5.557 -0.3272 -1.5661  1.1274
44844SOL    HW243501   0.928   2.678   5.497  1.6327  0.1684  2.1407
44845SOL     OW43502   8.949  11.612   8.154 -0.3838  0.0688  0.3646
44845SOL    HW143503   8.963  11.707   8.158 -1.8799  0.3053  0.2288
44845SOL    HW243504   8.958  11.584   8.246  0.6061  0.2329  0.3372
44846SOL     OW43505   5.444   2.820  12.539  0.3868  0.8349 -0.2231
44846SOL    HW143506   5.394   2.739  12.551  1.0634  0.0710 -2.0472
44846SOL    HW243507   5.447   2.860  12.625 -3.2904  0.9243  0.0155
44847SOL     OW43508   8.443   5.187   9.091 -0.3350  0.1971  0.1460
44847SOL    HW143509   8.504   5.175   9.019 -1.1390 -2.5222 -0.1691
44847SOL    HW243510   8.365   5.138   9.066 -1.8257  1.7363  1.5280
44848SOL     OW43511   1.288   3.536   5.047  0.4151  0.2582  0.0651
44848SOL    HW143512   1.269   3.592   4.973  1.6095 -0.4870 -0.8544
44848SOL    HW243513   1.310   3.596   5.119  2.6901  1.0320 -1.1683
44849SOL     OW43514  11.772   1.063   6.402 -0.7213 -0.1427 -0.2574
44849SOL    HW143515  11.769   1.130   6.470 -2.5799 -0.6319  0.1973
44849SOL    HW243516  11.819   0.990   6.442  0.6735  0.5959 -0.5052
44850SOL     OW43517   0.458   4.058  10.298 -0.0453  0.6954  0.1770
44850SOL    HW143518   0.521   4.127  10.319 -0.0268  0.8837 -0.4686
44850SOL    HW243519   0.409   4.045  10.379 -0.6785  2.1413  0.0568
44851SOL     OW43520   3.399   3.045   3.987  0.4324 -0.9186 -0.6279
44851SOL    HW143521   3.398   2.958   3.946 -1.0125 -0.2423 -2.1114
44851SOL    HW243522   3.483   3.048   4.033 -0.1341 -3.7047  0.8314
44852SOL     OW43523   1.013   1.778   3.069  0.7473  0.4264  0.1761
44852SOL    HW143524   1.096   1.817   3.096  1.2625 -0.6272  0.1664
44852SOL    HW243525   0.981   1.733   3.147  1.4602 -1.2944 -0.4735
44853SOL     OW43526   9.633   2.700  11.512 -0.2800 -0.2259 -0.2607
44853SOL    HW143527   9.554   2.749  11.489 -0.7335 -0.8867 -0.1309
44853SOL    HW243528   9.688   2.706  11.434 -0.1113  0.9000 -0.0777
44854SOL     OW43529   4.342   0.051   4.130 -0.2610 -0.2475  0.6099
44854SOL    HW143530   4.331   0.031   4.223  1.1318  2.3158  1.3888
44854SOL    HW243531   4.420   0.003   4.104  1.1524  1.3932  1.6197
44855SOL     OW43532   8.822   1.279   3.846 -0.2830  0.5011  0.0745
44855SOL    HW143533   8.916   1.272   3.865  0.2722  0.6053 -2.3099
44855SOL    HW243534   8.789   1.339   3.913  1.0720 -0.4747  1.7127
44856SOL     OW43535   7.893   5.270   2.564 -0.6968  0.3461 -0.0520
44856SOL    HW143536   7.963   5.326   2.596  0.1955 -1.2575  0.9422
44856SOL    HW243537   7.839   5.327   2.509  0.9072  1.8225 -0.1698
44857SOL     OW43538   9.494   9.746   4.702  0.3825  0.0471 -0.5579
44857SOL    HW143539   9.495   9.680   4.633 -2.1841  0.6326 -1.2447
44857SOL    HW243540   9.546   9.818   4.667 -1.0586  0.4260 -2.0395
44858SOL     OW43541   9.911   3.635  11.199  0.4628  0.6021  0.1135
44858SOL    HW143542   9.943   3.641  11.289  1.3219 -1.3470  0.0087
44858SOL    HW243543   9.842   3.700  11.193  1.0440  1.4433  1.8916
44859SOL     OW43544  10.637   9.165   9.038  0.6078  0.7150 -0.0782
44859SOL    HW143545  10.726   9.154   9.070  0.9525  1.0258 -0.9119
44859SOL    HW243546  10.636   9.120   8.954 -0.5970 -1.1068  0.8346
44860SOL     OW43547   9.280   7.579   5.131 -0.0789  0.1327 -0.4335
44860SOL    HW143548   9.325   7.527   5.198 -0.0438  0.0852 -0.4928
44860SOL    HW243549   9.241   7.513   5.073 -0.6796  0.1717 -0.0809
44861SOL     OW43550   0.855   7.818  10.473 -0.0604  0.1592  0.2768
44861SOL    HW143551   0.776   7.804  10.525 -0.3540 -0.0591 -0.2166
44861SOL    HW243552   0.824   7.858  10.392  0.5631  1.9985  0.8915
44862SOL     OW43553   9.830   0.884   3.568  0.9523 -0.0378  0.2351
44862SOL    HW143554   9.791   0.825   3.633  0.8652 -0.8695 -0.5568
44862SOL    HW243555   9.820   0.838   3.485  1.3917  0.8550 -0.3229
44863SOL     OW43556   8.190   8.820  11.071 -0.0193 -0.3687 -0.4645
44863SOL    HW143557   8.189   8.783  11.159 -2.4454  0.4357 -0.0741
44863SOL    HW243558   8.210   8.913  11.084 -1.7291  0.0418 -0.5716
44864SOL     OW43559   3.121   2.513   8.878  0.4165  0.0347 -0.1845
44864SOL    HW143560   3.153   2.534   8.966  1.8582  0.2093 -0.7152
44864SOL    HW243561   3.045   2.569   8.866 -0.9699 -1.3500  1.6415
44865SOL     OW43562   5.095   9.337   0.082 -0.1788  0.5884 -0.1556
44865SOL    HW143563   5.024   9.312   0.023 -0.8099  0.5470  0.6176
44865SOL    HW243564   5.172   9.344   0.024 -0.9722  1.4654 -1.1466
44866SOL     OW43565   0.973   4.867   2.429  0.1852  0.1854 -0.4366
44866SOL    HW143566   1.007   4.898   2.345  0.1746  0.8203 -0.2077
44866SOL    HW243567   0.890   4.824   2.406 -0.2837  1.1741 -0.6438
44867SOL     OW43568   0.659  12.207   4.030  0.1972  0.4639  0.3233
44867SOL    HW143569   0.707  12.124   4.027  2.2854  1.3844  3.3230
44867SOL    HW243570   0.591  12.193   4.096  0.9175  1.2134  1.2673
44868SOL     OW43571   5.721   5.407  10.184 -0.6569  0.1432 -0.0986
44868SOL    HW143572   5.683   5.332  10.138 -1.2702 -0.8911  1.9431
44868SOL    HW243573   5.803   5.373  10.221  0.8466  1.5167 -2.0050
44869SOL     OW43574   0.884  11.659  10.047 -0.1651 -0.4510  0.0703
44869SOL    HW143575   0.930  11.720  10.105  1.3032 -1.2003 -0.2487
44869SOL    HW243576   0.878  11.705   9.964  1.9357 -1.1006 -0.4914
44870SOL     OW43577   0.559   4.301  10.377  0.1680  0.0053 -0.2730
44870SOL    HW143578   0.540   4.293  10.471 -3.1003 -0.1707 -0.8210
44870SOL    HW243579   0.568   4.395  10.362  1.1348  0.0070  0.2668
44871SOL     OW43580   7.179   1.926   2.926 -0.6972  0.4321  0.2077
44871SOL    HW143581   7.118   1.852   2.929 -0.7988  0.5166  0.1792
44871SOL    HW243582   7.265   1.884   2.919 -0.6567  0.2792  1.4280
44872SOL     OW43583   6.266   2.417   1.726  0.0174  0.4909 -0.2538
44872SOL    HW143584   6.318   2.440   1.649 -0.6553  0.4127 -0.7305
44872SOL    HW243585   6.298   2.330   1.752  1.4352  1.2136  0.5926
44873SOL     OW43586   2.739  11.725   3.996 -0.5134  0.2834  0.0552
44873SOL    HW143587   2.802  11.762   3.934  0.1462  1.4630  1.3736
44873SOL    HW243588   2.699  11.652   3.949 -0.2980  1.3495 -1.8757
44874SOL     OW43589   1.877   2.649   1.727  0.0428 -0.3146 -0.3476
44874SOL    HW143590   1.903   2.635   1.636 -0.4105 -2.4440 -0.2118
44874SOL    HW243591   1.782   2.653   1.724 -0.0073 -1.0361  0.0856
44875SOL     OW43592   2.038   1.095   0.890 -0.5629 -0.0757 -0.1058
44875SOL    HW143593   2.012   1.085   0.982 -3.1256  1.1028 -0.6097
44875SOL    HW243594   1.962   1.065   0.840  0.0598  1.0102 -1.7883
44876SOL     OW43595   1.165   8.351   0.254 -0.6250  0.3316 -0.2198
44876SOL    HW143596   1.198   8.292   0.187  0.9642  0.4427  0.4196
44876SOL    HW243597   1.168   8.301   0.335 -1.5401  0.5371 -0.0356
44877SOL     OW43598   0.421   6.645  11.741  0.4469  0.2636 -0.5505
44877SOL    HW143599   0.399   6.553  11.729  0.1310  0.3911 -0.9563
44877SOL    HW243600   0.358   6.693  11.688 -0.7438  0.8402  1.3073
44878SOL     OW43601  10.465   4.335   1.692 -0.2571 -0.3688 -0.2903
44878SOL    HW143602  10.416   4.416   1.682 -0.3530 -0.2885  0.7018
44878SOL    HW243603  10.554   4.363   1.714 -0.1133 -0.5252 -0.6710
44879SOL     OW43604   5.868   2.336   5.152  0.2005 -0.2366  0.2929
44879SOL    HW143605   5.885   2.405   5.216  0.3109 -0.5974  0.6511
44879SOL    HW243606   5.889   2.255   5.197  1.1904 -0.4417 -0.5043
44880SOL     OW43607   7.540   5.740   5.698 -0.3087 -0.6375 -0.3854
44880SOL    HW143608   7.549   5.711   5.607 -0.4636  0.6475 -0.8227
44880SOL    HW243609   7.628   5.731   5.734 -0.2377 -1.1214 -0.6560
44881SOL     OW43610   2.248   6.968   6.023  0.1147 -0.3875  0.4096
44881SOL    HW143611   2.313   6.979   6.092  1.8982  2.2150 -1.4887
44881SOL    HW243612   2.269   6.884   5.982  1.5433 -0.1351  0.5851
44882SOL     OW43613   1.931   1.099   9.075 -0.2292 -0.2444  0.8143
44882SOL    HW143614   1.893   1.064   8.995  3.4215  0.5041 -1.4868
44882SOL    HW243615   1.929   1.194   9.064  0.2071 -0.1171  1.7033
44883SOL     OW43616   7.900   6.538   8.315  0.1219  0.1738 -0.0667
44883SOL    HW143617   7.866   6.489   8.390  1.0369 -0.8629 -0.3185
44883SOL    HW243618   7.959   6.603   8.354 -1.3122  1.3194  0.2905
44884SOL     OW43619   2.056   4.374   4.751  0.0233  0.0155  0.2517
44884SOL    HW143620   1.966   4.342   4.740 -0.6285  1.9167 -0.4505
44884SOL    HW243621   2.093   4.319   4.819 -2.3956  0.5278  2.1160
44885SOL     OW43622  10.350   3.801   4.080 -0.8309  0.1924 -0.5524
44885SOL    HW143623  10.359   3.846   3.996  1.2357 -0.4987 -0.7571
44885SOL    HW243624  10.392   3.860   4.143  0.8568 -0.8563 -0.6370
44886SOL     OW43625   0.868   9.267  10.175  0.2532  0.1274 -0.3185
44886SOL    HW143626   0.860   9.348  10.125 -1.1624  0.9662  1.1722
44886SOL    HW243627   0.799   9.211  10.140  0.0239  0.2717 -0.0994
44887SOL     OW43628   0.201   5.964   6.544 -0.2428  0.2546 -0.2899
44887SOL    HW143629   0.280   5.926   6.584 -0.9322 -0.8545  0.0549
44887SOL    HW243630   0.129   5.911   6.579 -0.9471 -0.2328 -2.3599
44888SOL     OW43631   7.795   2.843   4.188  0.4385 -0.1905  0.4144
44888SOL    HW143632   7.713   2.833   4.236 -0.2543 -0.6074 -0.8133
44888SOL    HW243633   7.809   2.938   4.182 -0.2651 -0.0995  0.1354
44889SOL     OW43634   2.361   5.559   1.519 -0.6553  0.3032  0.7476
44889SOL    HW143635   2.454   5.544   1.540 -0.6644 -1.5772 -0.3038
44889SOL    HW243636   2.324   5.471   1.516 -2.2590  0.9758  0.1406
44890SOL     OW43637   2.622  11.016   6.277 -0.1687  0.2708  0.1679
44890SOL    HW143638   2.676  11.009   6.199 -1.0511  2.7169 -0.7618
44890SOL    HW243639   2.546  10.960   6.259  1.2220 -1.9594  0.8437
44891SOL     OW43640   8.394   4.083   8.434  0.8131 -0.2415  0.0367
44891SOL    HW143641   8.469   4.052   8.382  1.1356  0.8306 -0.1665
44891SOL    HW243642   8.338   4.128   8.370  0.5430 -0.0859  0.3801
44892SOL     OW43643   3.994  12.209   8.017  0.0125 -0.2085 -0.0354
44892SOL    HW143644   4.044  12.259   8.082 -1.1762 -0.6223  1.2421
44892SOL    HW243645   4.027  12.120   8.025 -0.5993 -0.3936  0.4920
44893SOL     OW43646   7.430  11.239   8.730 -0.1122  0.1097 -0.5422
44893SOL    HW143647   7.388  11.238   8.816  0.2119  1.3383 -0.3456
44893SOL    HW243648   7.472  11.153   8.723 -1.4140 -0.5953 -0.1404
44894SOL     OW43649   7.711   4.329  11.162 -0.2580  0.0397 -0.7074
44894SOL    HW143650   7.782   4.374  11.209 -0.6279  1.4466 -1.4342
44894SOL    HW243651   7.669   4.274  11.228  0.2763  0.7007  0.2047
44895SOL     OW43652   5.943   4.943   8.352 -0.5916 -0.0181 -0.1024
44895SOL    HW143653   5.848   4.931   8.353 -0.3126 -2.8160  0.5760
44895SOL    HW243654   5.965   4.966   8.443 -0.3783 -2.6380  0.5917
44896SOL     OW43655   9.916   3.401   8.154 -0.0086  0.0540  0.4402
44896SOL    HW143656  10.004   3.436   8.143 -0.0875 -0.2546 -1.7173
44896SOL    HW243657   9.922   3.340   8.227  1.5015  0.2711  0.5188
44897SOL     OW43658   8.332   6.264   3.501 -0.6224  0.1495  0.5126
44897SOL    HW143659   8.414   6.271   3.452 -0.2551 -2.8904  0.4640
44897SOL    HW243660   8.353   6.300   3.588  1.4706 -2.2863  1.1431
44898SOL     OW43661   1.839   6.140   5.423 -0.2659  0.4420 -0.3468
44898SOL    HW143662   1.846   6.184   5.339 -0.0540  1.0939  0.0073
44898SOL    HW243663   1.921   6.162   5.469  0.9836 -2.2465 -1.0658
44899SOL     OW43664   2.825   9.886   2.214  0.3281  0.5280  0.9193
44899SOL    HW143665   2.808   9.969   2.259  1.8720  1.3691  0.0919
44899SOL    HW243666   2.753   9.877   2.152 -0.1451  0.9906  1.3970
44900SOL     OW43667   9.447   6.128   3.765  0.0133 -0.0986  0.4609
44900SOL    HW143668   9.529   6.081   3.746  0.8478  0.5788  2.1759
44900SOL    HW243669   9.443   6.131   3.860 -1.5089  0.7909  0.3961
44901SOL     OW43670  10.565  11.402   7.380 -0.0885 -0.0100 -0.1111
44901SOL    HW143671  10.591  11.331   7.439 -0.3733 -0.2478 -0.2696
44901SOL    HW243672  10.646  11.451   7.364  0.4630 -1.2540 -1.2922
44902SOL     OW43673   2.931   8.101  11.137 -0.0603  0.4750 -0.2929
44902SOL    HW143674   2.996   8.144  11.082 -0.4488  0.7538 -0.5379
44902SOL    HW243675   2.935   8.148  11.220  0.3262  0.2360 -0.1721
44903SOL     OW43676  10.248   9.423   3.587  0.3617 -0.4175  0.0739
44903SOL    HW143677  10.263   9.509   3.547 -0.5638 -0.9452 -1.4647
44903SOL    HW243678  10.224   9.444   3.678 -1.9746  1.1454 -0.7960
44904SOL     OW43679   0.089   7.153  12.554 -0.2623 -0.4563 -0.7932
44904SOL    HW143680   0.134   7.182  12.633 -0.1795 -0.8403 -0.6995
44904SOL    HW243681   0.118   7.063  12.541  0.5328 -0.0786 -1.8361
44905SOL     OW43682   9.598   5.512   3.270 -0.1959 -0.3324 -0.4749
44905SOL    HW143683   9.663   5.478   3.208  0.1038  0.4465 -0.6013
44905SOL    HW243684   9.607   5.607   3.264  0.1634 -0.2468  1.1136
44906SOL     OW43685  10.033   8.476   9.122 -0.0593  0.5422  0.2975
44906SOL    HW143686  10.048   8.441   9.034  0.3906  3.5458 -0.9360
44906SOL    HW243687   9.947   8.517   9.117  0.0647  0.9354  1.2069
44907SOL     OW43688   5.634   1.729   2.681 -0.3432  0.2859 -0.1876
44907SOL    HW143689   5.570   1.683   2.628  1.4744 -0.9961 -1.3940
44907SOL    HW243690   5.713   1.675   2.677  1.6377  2.9795 -0.9104
44908SOL     OW43691   7.014   9.161   8.963 -0.0700  0.2883 -0.1681
44908SOL    HW143692   6.950   9.117   8.908 -0.6654  0.9687 -0.0355
44908SOL    HW243693   7.085   9.185   8.903 -0.5464  0.6983 -0.5768
44909SOL     OW43694   9.939   7.121   1.974  0.5668 -0.3291 -0.0794
44909SOL    HW143695  10.016   7.084   2.018  0.6574 -0.7149 -0.5465
44909SOL    HW243696   9.967   7.209   1.948  0.4043  0.0222  0.9000
44910SOL     OW43697   1.759   0.398   8.587 -0.1281 -0.1754  0.3560
44910SOL    HW143698   1.833   0.450   8.556 -0.2250  0.5002  1.2148
44910SOL    HW243699   1.702   0.461   8.631 -1.5967 -0.5641 -0.9130
44911SOL     OW43700   1.005   6.175   5.140  0.1316 -0.1460 -0.3076
44911SOL    HW143701   0.940   6.149   5.206  0.6342  1.6856  0.9783
44911SOL    HW243702   0.976   6.261   5.111  0.4288 -0.5398 -1.8620
44912SOL     OW43703   3.822   5.140   1.933  0.5661 -0.1648 -0.0578
44912SOL    HW143704   3.840   5.232   1.915 -0.8584 -0.1856 -1.9333
44912SOL    HW243705   3.834   5.096   1.848  1.4930 -1.7756  0.8519
44913SOL     OW43706  11.729   0.402   8.565 -0.4235 -0.2585 -0.2805
44913SOL    HW143707  11.644   0.383   8.526 -0.8889 -0.0847  0.6270
44913SOL    HW243708  11.786   0.332   8.532 -1.2682 -1.2329  0.2371
44914SOL     OW43709   0.574   6.693   0.116  0.0227  0.6131  0.3282
44914SOL    HW143710   0.583   6.739   0.032  1.9068  1.2024  0.8063
44914SOL    HW243711   0.650   6.721   0.167 -1.3951  0.7457  2.4895
44915SOL     OW43712   0.090   2.995  11.796 -0.0653  0.2035 -0.0974
44915SOL    HW143713   0.062   2.909  11.765  0.2861 -0.5918  1.6901
44915SOL    HW243714   0.009   3.038  11.824  0.0134 -0.6791  1.6367
44916SOL     OW43715   1.369  12.082  10.071  0.5684 -0.2503 -0.2455
44916SOL    HW143716   1.348  12.142  10.000  1.3440 -1.4969 -1.5758
44916SOL    HW243717   1.463  12.070  10.067  0.7253  0.0786  1.3900
44917SOL     OW43718   6.975   8.575   5.587 -0.9821 -0.3483 -0.0160
44917SOL    HW143719   6.942   8.665   5.576  0.4566  0.1470 -0.5667
44917SOL    HW243720   7.065   8.579   5.553 -0.0074 -1.4029  2.2663
44918SOL     OW43721   1.168   5.373  11.969 -0.0499 -0.4030  0.5247
44918SOL    HW143722   1.236   5.405  12.029 -0.3067  1.1494  0.0188
44918SOL    HW243723   1.145   5.449  11.916 -2.6623 -0.6885  1.1221
44919SOL     OW43724   1.920   1.313   8.906 -0.1078 -0.0412 -0.3383
44919SOL    HW143725   1.979   1.267   8.847  1.6805 -0.6169  1.7616
44919SOL    HW243726   1.924   1.404   8.878  2.8851  0.1710  0.4898
44920SOL     OW43727   9.293  11.161   9.453  0.3624 -0.2996 -0.1790
44920SOL    HW143728   9.214  11.163   9.508  2.1821 -0.2949  2.6529
44920SOL    HW243729   9.298  11.070   9.422 -0.6795 -0.3209 -0.3286
44921SOL     OW43730   8.295   8.821   9.165 -0.8270  0.1539  0.0317
44921SOL    HW143731   8.268   8.730   9.157 -0.3024  0.0851 -1.4095
44921SOL    HW243732   8.360   8.821   9.235 -1.0366 -0.5306  0.2329
44922SOL     OW43733   6.345   8.485   7.151  0.6137 -0.0463  0.0206
44922SOL    HW143734   6.286   8.554   7.181  2.4294  0.9908  1.3857
44922SOL    HW243735   6.365   8.509   7.060 -0.8891 -0.3414 -0.4180
44923SOL     OW43736   2.743  10.365  11.956  0.0013  0.4144  0.2797
44923SOL    HW143737   2.701  10.331  11.877 -1.6087 -2.0276  2.0528
44923SOL    HW243738   2.757  10.288  12.011  0.3177  2.1092  2.7303
44924SOL     OW43739  12.108   4.096  11.990 -0.1369  0.2639 -0.1737
44924SOL    HW143740  12.145   4.089  12.078 -2.6915 -0.0775  0.9537
44924SOL    HW243741  12.140   4.180  11.958 -0.2190  1.0361  1.6257
44925SOL     OW43742  11.223   5.022   3.563 -0.0127 -0.4621  0.2458
44925SOL    HW143743  11.205   4.931   3.539 -0.1402 -1.0211  2.2803
44925SOL    HW243744  11.137   5.061   3.577  0.0724 -0.7719  1.8171
44926SOL     OW43745  12.500  12.387   6.949  0.3205  0.2842 -0.1662
44926SOL    HW143746  12.483  12.421   7.037 -2.2480  0.9731 -0.8539
44926SOL    HW243747  12.537  12.300   6.965  0.2812  0.5383  1.5958
44927SOL     OW43748  11.942   6.432  12.325 -0.1475  0.0015  0.4060
44927SOL    HW143749  11.979   6.355  12.283 -0.8643  0.0835 -0.3983
44927SOL    HW243750  11.873   6.397  12.382  0.4457 -0.0574  1.1122
44928SOL     OW43751   4.273   9.137   6.145  0.0095 -0.3147 -0.1448
44928SOL    HW143752   4.208   9.128   6.215 -0.0180 -2.6935 -0.4077
44928SOL    HW243753   4.298   9.229   6.148 -2.0681  0.2800  1.1200
44929SOL     OW43754   8.616   4.332   5.957  0.0885  0.2643 -0.9165
44929SOL    HW143755   8.521   4.334   5.953 -0.0158  2.2390  0.6130
44929SOL    HW243756   8.643   4.419   5.928  1.4694 -0.4106 -1.7757
44930SOL     OW43757   6.283  10.522   9.732  0.1560  0.2862 -0.1114
44930SOL    HW143758   6.338  10.467   9.677  0.5394 -0.1438  0.6834
44930SOL    HW243759   6.344  10.575   9.782 -0.2053  2.1524 -1.5213
44931SOL     OW43760   2.864  11.680   3.010  0.3288 -0.2361 -0.2767
44931SOL    HW143761   2.805  11.714   3.076 -0.3344 -1.9251  0.0408
44931SOL    HW243762   2.950  11.716   3.033 -0.3479  1.2923 -0.0640
44932SOL     OW43763   9.621  11.745   6.719  0.2403  0.0817  0.2199
44932SOL    HW143764   9.622  11.775   6.810 -1.6370  1.6958 -0.2062
44932SOL    HW243765   9.563  11.669   6.720 -1.1437  1.0952  0.1658
44933SOL     OW43766   6.796   5.407   9.897  0.2402 -0.1659 -0.0206
44933SOL    HW143767   6.700   5.405   9.906  0.2549  0.0321  0.1674
44933SOL    HW243768   6.819   5.317   9.874  0.2488 -0.8313  2.3161
44934SOL     OW43769   5.106   9.510   8.574  0.3086  0.2323  0.1288
44934SOL    HW143770   5.043   9.578   8.550  0.4336  0.0828 -0.6400
44934SOL    HW243771   5.170   9.555   8.629  1.1240  1.0681 -1.4352
44935SOL     OW43772   0.661   8.485   6.388  0.2084 -0.5438  0.1094
44935SOL    HW143773   0.658   8.569   6.432 -0.3328  0.3483 -1.5274
44935SOL    HW243774   0.652   8.420   6.458 -0.5938  0.7856  1.2880
44936SOL     OW43775   2.370   2.679   0.785  0.1111  0.3126 -0.2659
44936SOL    HW143776   2.443   2.651   0.729 -0.2766 -2.0233  0.3181
44936SOL    HW243777   2.413   2.715   0.863  0.7073 -1.5309  0.3083
44937SOL     OW43778   7.794   7.223   2.804  0.1715  0.5749 -0.1461
44937SOL    HW143779   7.798   7.314   2.833 -1.7123  0.6874 -0.0936
44937SOL    HW243780   7.880   7.206   2.765  0.2704  2.6348 -0.9421
44938SOL     OW43781   8.609  12.283   8.364 -0.0809  0.2747 -0.1090
44938SOL    HW143782   8.698  12.317   8.357 -0.6883  2.7882  2.4949
44938SOL    HW243783   8.555  12.350   8.322 -0.8446 -0.8713 -1.0038
44939SOL     OW43784   7.750  11.474   1.668  0.3021  0.2926 -0.4543
44939SOL    HW143785   7.737  11.503   1.759 -1.0694 -0.3885 -0.3985
44939SOL    HW243786   7.845  11.474   1.656  0.5342  0.0005  1.1230
44940SOL     OW43787   2.994  10.089   5.999 -0.1373 -0.1979 -0.4126
44940SOL    HW143788   2.993  10.017   5.935  0.4534  0.8936 -1.7067
44940SOL    HW243789   2.901  10.105   6.018 -0.3643 -0.1479 -1.4834
44941SOL     OW43790   8.651   6.248   0.772 -0.4867 -0.0111  0.7899
44941SOL    HW143791   8.674   6.341   0.764 -1.1458  0.0357 -0.6837
44941SOL    HW243792   8.683   6.224   0.859  0.5954  1.3370  0.8037
44942SOL     OW43793  11.090   8.143   0.586 -0.4968 -0.3955 -0.2831
44942SOL    HW143794  11.068   8.111   0.673 -1.7800 -1.4738 -0.9561
44942SOL    HW243795  11.138   8.072   0.545 -0.4683 -0.1562 -0.6718
44943SOL     OW43796   9.876   7.448   1.254  0.0147 -0.5021  0.7336
44943SOL    HW143797   9.882   7.404   1.339  1.8550  0.7803  1.3246
44943SOL    HW243798   9.940   7.403   1.199  0.8678  0.4580  0.9105
44944SOL     OW43799  12.429   5.315   4.924 -0.1668 -0.7424 -0.3213
44944SOL    HW143800  12.500   5.271   4.877  0.7954 -0.4715  0.8243
44944SOL    HW243801  12.465   5.400   4.948 -0.6101 -0.8881  0.9308
44945SOL     OW43802  11.535   6.617   1.878  0.1307  0.2902 -0.2633
44945SOL    HW143803  11.558   6.534   1.920 -1.1296 -1.7541 -3.2198
44945SOL    HW243804  11.607   6.676   1.901  1.3334 -1.7412  1.5898
44946SOL     OW43805   9.204   0.796  10.636  0.3499  0.0561  0.7579
44946SOL    HW143806   9.140   0.825  10.570  2.3179  2.2562 -0.3441
44946SOL    HW243807   9.224   0.875  10.686  1.8515 -0.6642  1.3446
44947SOL     OW43808   3.316   7.644   5.544 -0.5395 -0.1042  0.2539
44947SOL    HW143809   3.302   7.550   5.547  0.3458 -0.4310 -2.8826
44947SOL    HW243810   3.253   7.676   5.479  0.6640  1.1089 -0.3818
44948SOL     OW43811   3.931   2.909  12.107 -0.2256  0.3641  0.7239
44948SOL    HW143812   3.983   2.841  12.151 -0.9004 -0.1332  0.7723
44948SOL    HW243813   3.915   2.974  12.175 -1.8339 -0.7199  1.4511
44949SOL     OW43814   3.631  10.500   1.614 -0.1728  0.4748 -0.6460
44949SOL    HW143815   3.544  10.482   1.651  0.3012  1.3298  0.9695
44949SOL    HW243816   3.678  10.544   1.684  1.1496  1.2168 -1.9512
44950SOL     OW43817   1.407  11.818   7.997  0.3682 -0.1013  0.8409
44950SOL    HW143818   1.369  11.732   8.014 -0.0917  0.2074  1.4335
44950SOL    HW243819   1.339  11.880   8.023  0.2113  0.4401 -0.7333
44951SOL     OW43820   6.162   9.122   5.246  0.0044  0.0847  0.4064
44951SOL    HW143821   6.072   9.120   5.216 -0.1187 -1.5697  0.7979
44951SOL    HW243822   6.156   9.145   5.339 -0.1219 -1.0887  0.7035
44952SOL     OW43823   3.109   9.644   9.474  0.1274 -0.1056 -0.3088
44952SOL    HW143824   3.125   9.557   9.439 -1.4356 -1.0544  1.2410
44952SOL    HW243825   3.127   9.637   9.568 -0.0302  1.2514 -0.1469
44953SOL     OW43826  10.647   3.566  11.082  0.0943 -0.1513 -0.6368
44953SOL    HW143827  10.603   3.564  10.997 -1.7783 -0.9833  0.2870
44953SOL    HW243828  10.698   3.646  11.081 -0.8723  0.4889 -2.0818
44954SOL     OW43829   3.383   6.222  12.458 -0.0677 -0.0801  0.7449
44954SOL    HW143830   3.468   6.256  12.429 -0.5790  0.7624  0.1957
44954SOL    HW243831   3.400   6.130  12.479  0.6310 -0.3634 -0.8993
44955SOL     OW43832  12.488   0.744   9.076 -0.1690 -1.0154  0.5011
44955SOL    HW143833  12.583   0.756   9.068 -0.3579 -0.3416 -1.1902
44955SOL    HW243834  12.451   0.829   9.052 -1.2382 -1.9082 -1.2204
44956SOL     OW43835   7.129  10.172   9.414 -0.2484  0.6851  0.9809
44956SOL    HW143836   7.105  10.107   9.479 -0.9570 -0.2654 -0.1851
44956SOL    HW243837   7.080  10.250   9.438 -0.1436  0.4952  1.8303
44957SOL     OW43838   9.271  12.228   9.131 -0.5193  0.7505 -0.2590
44957SOL    HW143839   9.307  12.157   9.184 -0.4430  1.4183  0.6041
44957SOL    HW243840   9.179  12.232   9.157 -0.7279  0.4103 -0.9363
44958SOL     OW43841   5.883   1.521   1.397 -0.6705  0.2174  0.2334
44958SOL    HW143842   5.800   1.473   1.403 -0.0661 -0.6519  2.8092
44958SOL    HW243843   5.880   1.584   1.469  0.6236  0.6544 -0.0636
44959SOL     OW43844   7.788  10.050   4.239 -0.3780 -0.1166 -0.1639
44959SOL    HW143845   7.864   9.992   4.235 -0.0486  0.3545 -1.0853
44959SOL    HW243846   7.767  10.067   4.147  1.1658  3.3485 -0.0045
44960SOL     OW43847   5.640   5.272   4.510 -0.6129 -0.1317 -0.1278
44960SOL    HW143848   5.595   5.332   4.570  1.4547 -0.1563  1.5828
44960SOL    HW243849   5.704   5.327   4.464  1.5228 -0.9387  1.6831
44961SOL     OW43850   6.624   7.778   8.128 -0.7212 -0.0638  0.2623
44961SOL    HW143851   6.670   7.859   8.105 -2.1161  0.0629 -2.4470
44961SOL    HW243852   6.647   7.717   8.058 -1.9375 -1.0871  0.7355
44962SOL     OW43853   2.345  11.885   2.154  0.4353 -0.5386 -0.1054
44962SOL    HW143854   2.427  11.836   2.145  0.6739 -0.0190 -0.8333
44962SOL    HW243855   2.325  11.881   2.248  2.1344  0.6468  0.3642
44963SOL     OW43856   0.131  12.113   2.677  0.1590  0.3684 -0.1159
44963SOL    HW143857   0.150  12.084   2.587 -0.0174  0.4980 -0.1964
44963SOL    HW243858   0.131  12.032   2.728  0.3482  0.3036 -0.2180
44964SOL     OW43859   8.952   0.914   5.955 -0.8114  0.1129  0.6945
44964SOL    HW143860   8.895   0.990   5.962 -0.4045  0.4284  0.5670
44964SOL    HW243861   8.948   0.890   5.862  0.5862  1.1648  0.3346
44965SOL     OW43862   3.626  11.072  11.425  0.3703 -0.0047 -0.0028
44965SOL    HW143863   3.687  11.087  11.352 -1.4989  0.6338 -1.5183
44965SOL    HW243864   3.654  10.988  11.462  1.3262 -0.4223 -1.5526
44966SOL     OW43865   3.314   7.928   9.845 -0.0608  0.3870  0.4432
44966SOL    HW143866   3.276   7.898   9.928  1.8841  0.8040  1.5465
44966SOL    HW243867   3.239   7.942   9.788 -1.4213 -0.4633  1.9517
44967SOL     OW43868   5.997   0.294   7.704 -0.2313  0.8547  0.2596
44967SOL    HW143869   6.046   0.214   7.684  0.0065  1.6121 -2.6412
44967SOL    HW243870   6.051   0.340   7.768  0.6501 -0.3179  0.4023
44968SOL     OW43871   9.500   2.446   9.328  0.2279  0.5280  0.0441
44968SOL    HW143872   9.450   2.367   9.308  0.4027  0.0601  1.3234
44968SOL    HW243873   9.496   2.453   9.424  1.8830  0.9480  0.1132
44969SOL     OW43874   2.069   4.211   4.288 -0.0539  0.0182 -0.4451
44969SOL    HW143875   2.095   4.169   4.370  1.2236  0.4844 -0.5811
44969SOL    HW243876   2.061   4.303   4.309 -0.8051 -0.0084 -0.6056
44970SOL     OW43877   8.035   7.392   2.534  0.4888  0.5034  0.2020
44970SOL    HW143878   8.125   7.392   2.503  1.1017  0.9571  1.8986
44970SOL    HW243879   8.032   7.324   2.601 -1.2262 -1.6143 -1.8171
44971SOL     OW43880   8.834   8.068   5.407  0.0373 -0.3422 -0.7656
44971SOL    HW143881   8.803   8.154   5.435 -0.2952 -1.1084  1.4734
44971SOL    HW243882   8.929   8.072   5.418 -0.0738 -0.5704  0.3947
44972SOL     OW43883   1.778   5.411  11.633 -0.7377 -0.0898  0.0150
44972SOL    HW143884   1.777   5.318  11.613 -0.2655  0.0001 -0.4858
44972SOL    HW243885   1.712   5.423  11.701 -0.6193 -0.8260  0.2614
44973SOL     OW43886   1.939   2.179  10.193 -0.0173 -0.2828 -0.8490
44973SOL    HW143887   1.944   2.083  10.192 -0.6317 -0.3208 -2.4624
44973SOL    HW243888   1.926   2.203  10.102 -0.9781  1.2881 -0.3225
44974SOL     OW43889  12.322   0.155  11.710 -0.2209  1.1222  0.2566
44974SOL    HW143890  12.272   0.233  11.689 -0.0428  1.2012  0.1259
44974SOL    HW243891  12.300   0.092  11.641  1.8562  2.0349 -1.3133
44975SOL     OW43892   7.757  10.166   7.485  0.0306 -0.1737  0.1160
44975SOL    HW143893   7.841  10.133   7.455 -0.4331 -1.6837  0.3643
44975SOL    HW243894   7.732  10.106   7.556 -1.5711 -0.2111 -0.4367
44976SOL     OW43895  11.089   8.825   3.783  0.2570 -0.0911 -0.1730
44976SOL    HW143896  11.141   8.745   3.793  0.7971  0.4323  1.4044
44976SOL    HW243897  11.002   8.794   3.757  0.6214 -1.1446 -0.1777
44977SOL     OW43898   5.773   8.662   6.361 -0.7038  0.0428  0.2077
44977SOL    HW143899   5.743   8.571   6.372 -1.0461  0.1281 -0.0023
44977SOL    HW243900   5.821   8.662   6.278 -1.2931  0.1982 -0.1406
44978SOL     OW43901   2.398   3.981   2.709 -0.0370  0.3901  0.9996
44978SOL    HW143902   2.400   4.022   2.796 -1.4709 -1.1101  1.7937
44978SOL    HW243903   2.445   3.899   2.719 -0.1595  0.2286  0.3290
44979SOL     OW43904   4.574  11.157   7.047 -0.0703 -0.5517 -0.4646
44979SOL    HW143905   4.521  11.103   7.105  1.1667 -1.6603 -0.3197
44979SOL    HW243906   4.619  11.095   6.989  0.4906  0.3865 -1.0799
44980SOL     OW43907   5.786   3.484   4.027  0.4801  0.1767  0.0750
44980SOL    HW143908   5.831   3.558   3.987  0.0188  0.7555  0.6106
44980SOL    HW243909   5.804   3.491   4.120 -0.4644  0.2539  0.2655
44981SOL     OW43910   7.288   1.331  10.712  0.3607  0.3006  0.1045
44981SOL    HW143911   7.227   1.287  10.654 -0.9474 -0.0010  1.6432
44981SOL    HW243912   7.239   1.405  10.748  0.9149  0.1239  1.2929
44982SOL     OW43913   0.091   0.290   8.626 -0.5159  0.1124 -0.3706
44982SOL    HW143914   0.037   0.273   8.549 -0.7106 -0.6713 -0.0686
44982SOL    HW243915   0.153   0.357   8.598 -0.3368 -0.4460 -1.3216
44983SOL     OW43916  10.219   4.783   2.710 -0.3624  0.0645  0.8686
44983SOL    HW143917  10.137   4.744   2.743 -1.2035 -0.5572 -1.7658
44983SOL    HW243918  10.249   4.722   2.643  1.5803  0.9655  0.8639
44984SOL     OW43919   2.721   5.445   3.481 -0.0335 -0.2186  0.1924
44984SOL    HW143920   2.672   5.487   3.410 -0.0459 -0.1709  0.2297
44984SOL    HW243921   2.761   5.368   3.439 -2.5408 -1.9892  0.7681
44985SOL     OW43922   6.268   9.834   3.945  0.1500  0.2280 -0.3724
44985SOL    HW143923   6.261   9.929   3.948 -0.1371  0.1973  0.0466
44985SOL    HW243924   6.206   9.807   3.876 -0.1727  0.3073 -0.1144
44986SOL     OW43925   0.018   1.083  11.886  0.2469  0.3397  0.0901
44986SOL    HW143926   0.037   0.989  11.880  2.5295  0.7086  0.6936
44986SOL    HW243927  -0.046   1.099  11.818 -0.4491 -1.7199  0.1974
44987SOL     OW43928   8.070   6.704   3.965  0.5141  0.3456  0.4775
44987SOL    HW143929   8.080   6.703   3.870  0.1101 -1.2703  0.4236
44987SOL    HW243930   7.976   6.695   3.979  0.6987 -0.9786  1.0154
44988SOL     OW43931   3.255   0.039   3.962  0.4340 -0.0691 -0.4209
44988SOL    HW143932   3.318   0.006   3.898  0.8961 -0.2350  0.1107
44988SOL    HW243933   3.307   0.090   4.024  0.3159 -1.4129  0.8640
44989SOL     OW43934   9.962   0.200   5.568 -0.2887  0.8889 -0.1991
44989SOL    HW143935   9.867   0.201   5.583 -0.4988 -0.9601 -1.1626
44989SOL    HW243936   9.997   0.151   5.643 -0.1235  1.2233 -0.0552
44990SOL     OW43937  12.273   9.154   1.265 -0.2035 -0.1072 -0.3848
44990SOL    HW143938  12.253   9.205   1.343 -0.7890 -0.4493 -0.3007
44990SOL    HW243939  12.341   9.093   1.293 -3.0125 -2.9297  1.0606
44991SOL     OW43940   5.745   9.550   8.013  0.8733  0.3177 -0.3355
44991SOL    HW143941   5.785   9.513   8.091 -0.2172  0.0211  0.1111
44991SOL    HW243942   5.770   9.642   8.015 -1.1132  0.9085  1.7522
44992SOL     OW43943   0.602  10.865   4.819 -0.0778 -0.0785 -0.7003
44992SOL    HW143944   0.625  10.896   4.906 -0.4176 -0.5148 -0.4517
44992SOL    HW243945   0.600  10.944   4.765  0.6957  0.1217 -0.4414
44993SOL     OW43946  10.190   2.134   2.989 -0.3723 -0.0424  0.2207
44993SOL    HW143947  10.163   2.185   2.913 -0.0914 -0.0241  0.1343
44993SOL    HW243948  10.240   2.195   3.043 -2.1199  0.4917  1.3400
44994SOL     OW43949  10.921   8.670  11.185 -0.0178  0.6008 -0.1368
44994SOL    HW143950  10.944   8.603  11.121  1.2332 -0.5715  1.4891
44994SOL    HW243951  10.895   8.622  11.263 -1.2684  2.0070  0.3717
44995SOL     OW43952   8.215  12.162   5.478  0.1158  0.4543 -0.3136
44995SOL    HW143953   8.302  12.175   5.441  1.9597 -1.3562  2.9088
44995SOL    HW243954   8.216  12.213   5.559 -1.7155  0.1081 -0.0333
44996SOL     OW43955  10.575  10.920   5.535 -0.0766 -0.4048  0.4059
44996SOL    HW143956  10.641  10.877   5.590  0.5595 -0.4002 -0.3272
44996SOL    HW243957  10.614  11.005   5.514 -0.3662 -0.3586  0.0514
44997SOL     OW43958   8.051   5.038  11.111 -0.3061  0.1426  0.5940
44997SOL    HW143959   8.053   5.073  11.200  0.2198  0.0397  0.6282
44997SOL    HW243960   8.132   4.988  11.103  0.9185  2.1564 -0.7271
44998SOL     OW43961  11.478   3.111   3.233  0.1822 -0.0709 -0.5199
44998SOL    HW143962  11.440   3.185   3.280 -0.4865 -0.3523 -0.6013
44998SOL    HW243963  11.520   3.150   3.156  3.3033  0.6841  1.3815
44999SOL     OW43964   3.072  10.078  12.516 -0.1507 -0.1489 -0.1374
44999SOL    HW143965   3.029  10.105  12.597 -0.4281  0.7867 -0.5800
44999SOL    HW243966   3.139  10.016  12.544 -0.2859  0.1157  0.8083
45000SOL     OW43967   5.339   9.640   2.849  0.3860 -0.7402 -0.1745
45000SOL    HW143968   5.431   9.620   2.867  0.2919  0.3980  1.8269
45000SOL    HW243969   5.343   9.722   2.799  0.4688 -1.0432 -0.6713
45001SOL     OW43970   7.168   0.953   5.437  0.3588  0.4992  0.0207
45001SOL    HW143971   7.199   0.866   5.411  1.4202  1.2068 -1.2405
45001SOL    HW243972   7.155   0.999   5.354 -0.7710  1.3653  0.6503
45002SOL     OW43973   6.298  11.232   1.122 -0.1578 -0.9137  0.1799
45002SOL    HW143974   6.296  11.312   1.069  1.3157 -0.5578  0.6270
45002SOL    HW243975   6.336  11.259   1.205 -0.5362 -1.9044  0.6862
45003SOL     OW43976   7.360  10.153  12.039 -0.3162  0.0264 -0.5696
45003SOL    HW143977   7.357  10.121  12.129 -2.0885 -0.6434 -0.8254
45003SOL    HW243978   7.442  10.119  12.004 -0.1739 -0.7150  0.4374
45004SOL     OW43979   0.473   9.758  10.269  0.4707 -0.2328  0.3933
45004SOL    HW143980   0.553   9.733  10.223  0.7031  0.1230  0.5989
45004SOL    HW243981   0.439   9.676  10.305  0.8603 -0.3530  0.4913
45005SOL     OW43982   6.994  11.291   7.326 -0.2266  0.2761  0.1861
45005SOL    HW143983   7.082  11.252   7.317 -0.3995  0.1581 -1.2444
45005SOL    HW243984   7.011  11.381   7.354  0.4325  0.5685 -1.0570
45006SOL     OW43985   4.316  10.223  11.785  0.1410 -0.2547  0.1221
45006SOL    HW143986   4.249  10.249  11.721  1.2638  0.4272 -0.8114
45006SOL    HW243987   4.311  10.127  11.788 -1.2208 -0.1959  0.4751
45007SOL     OW43988  11.232   7.398   5.905  0.2345 -0.0900  0.4326
45007SOL    HW143989  11.264   7.452   5.833 -2.9733  1.0703 -0.2637
45007SOL    HW243990  11.205   7.316   5.863  0.3851 -0.2789  0.6964
45008SOL     OW43991   0.800   6.428   0.119 -0.1975 -0.1211  0.0121
45008SOL    HW143992   0.735   6.454   0.184  0.5458  0.2535  0.6152
45008SOL    HW243993   0.752   6.430   0.036 -1.2008 -0.7865  0.5521
45009SOL     OW43994   6.535   6.522  12.036  0.0400 -0.0098 -0.0678
45009SOL    HW143995   6.488   6.599  12.002  2.0233  0.8274 -1.1096
45009SOL    HW243996   6.625   6.533  12.003  1.2539 -0.9954  2.6318
45010SOL     OW43997   4.737   4.854   1.945 -0.0464 -0.3257 -0.4146
45010SOL    HW143998   4.830   4.832   1.941  0.3997  1.3763 -0.0625
45010SOL    HW243999   4.715   4.849   2.038 -0.5597 -1.5976 -0.5810
45011SOL     OW44000   9.712   4.464   6.010  0.3446  0.4832 -0.0854
45011SOL    HW144001   9.777   4.525   6.043  0.7836  0.6465 -1.2010
45011SOL    HW244002   9.763   4.389   5.978 -0.1138 -0.0036  0.3057
45012SOL     OW44003  11.433   3.783   7.661  0.2052  0.1626 -0.9557
45012SOL    HW144004  11.399   3.801   7.574 -0.6146  0.1680 -0.6486
45012SOL    HW244005  11.382   3.708   7.692 -0.0514  0.6394 -0.1880
45013SOL     OW44006   5.094   1.770  12.378  0.5957  0.0241 -0.7597
45013SOL    HW144007   5.071   1.680  12.355 -1.7691  0.3485 -0.0051
45013SOL    HW244008   5.121   1.765  12.470  1.7456 -0.0836 -1.0963
45014SOL     OW44009   0.088  12.180   7.597 -0.2696  0.3263 -0.2978
45014SOL    HW144010   0.011  12.158   7.545  0.3414 -2.3069 -0.1909
45014SOL    HW244011   0.161  12.170   7.536  0.3710 -1.9185  0.7442
45015SOL     OW44012   8.347   4.614   5.781  0.4509  0.5471 -0.3279
45015SOL    HW144013   8.348   4.700   5.822  0.9895 -0.3052  1.5483
45015SOL    HW244014   8.263   4.610   5.735 -0.0433  1.6777  0.4277
45016SOL     OW44015  10.537   7.165   5.326  0.2556 -0.4004  0.2060
45016SOL    HW144016  10.518   7.089   5.381 -2.0482 -0.7067 -0.8789
45016SOL    HW244017  10.462   7.223   5.339  2.0304  1.8544  1.1526
45017SOL     OW44018   7.958  10.414   4.581  0.2257 -0.2560 -0.2343
45017SOL    HW144019   7.982  10.325   4.554 -1.4334 -0.4029 -1.3224
45017SOL    HW244020   7.866  10.423   4.560 -0.1658  1.0730  1.7168
45018SOL     OW44021   4.922   5.214   1.194  0.1596  0.3666  0.5608
45018SOL    HW144022   4.998   5.231   1.138  0.6744  1.8103  1.6307
45018SOL    HW244023   4.945   5.136   1.244  0.7132  0.4829  0.4906
45019SOL     OW44024   1.741   1.937   0.906 -0.2441 -0.2184  0.2379
45019SOL    HW144025   1.771   1.906   0.820 -1.5382 -3.1758  0.7033
45019SOL    HW244026   1.657   1.978   0.888  0.6985  1.6377 -0.1745
45020SOL     OW44027  10.636   7.828   0.794  0.0204  0.1002 -0.2502
45020SOL    HW144028  10.696   7.756   0.810  0.1722  0.3507  0.3376
45020SOL    HW244029  10.550   7.794   0.822  0.2127  0.3868  0.7142
45021SOL     OW44030   0.319   4.314   7.428  0.1082 -0.0362 -0.3699
45021SOL    HW144031   0.326   4.291   7.335  1.5724  1.2324 -0.6091
45021SOL    HW244032   0.385   4.260   7.471  2.5093  2.4102 -0.7309
45022SOL     OW44033  10.412   0.959   0.310 -0.0547 -0.4177  0.1259
45022SOL    HW144034  10.362   1.023   0.259  0.6768 -1.2764 -1.7736
45022SOL    HW244035  10.502   0.991   0.308  0.0822 -0.7839  0.3269
45023SOL     OW44036   3.808  10.066   4.004 -0.5627 -0.6029 -0.5983
45023SOL    HW144037   3.871  10.122   4.049 -0.3722 -0.9154 -0.4709
45023SOL    HW244038   3.732  10.063   4.063  0.0989 -1.8877  0.2525
45024SOL     OW44039   3.066  12.430   9.794 -0.2473 -0.2538  0.3031
45024SOL    HW144040   3.134  12.390   9.740  0.0902 -0.1438  0.6363
45024SOL    HW244041   3.114  12.495   9.846 -0.4245 -0.9220  1.3261
45025SOL     OW44042   2.848   0.839   3.454  0.2868  0.6988  1.1311
45025SOL    HW144043   2.768   0.891   3.447 -0.2200 -0.0425  1.2816
45025SOL    HW244044   2.859   0.825   3.548  0.6945  0.9402  1.1232
45026SOL     OW44045   3.971  10.336   9.733 -0.2281 -0.1134  0.1008
45026SOL    HW144046   3.948  10.245   9.715  0.7885 -0.2635 -0.5956
45026SOL    HW244047   4.061  10.331   9.766 -0.5104  0.5658  1.0080
45027SOL     OW44048   7.449   2.078   6.949 -0.3783  0.4501  0.2006
45027SOL    HW144049   7.485   2.102   6.863  1.0145 -0.0240  0.6132
45027SOL    HW244050   7.376   2.019   6.929 -1.0330  1.5324 -0.6814
45028SOL     OW44051   5.532   0.847   7.703 -0.0856  0.3756 -0.0507
45028SOL    HW144052   5.513   0.847   7.609  0.5265 -0.0229 -0.1781
45028SOL    HW244053   5.620   0.810   7.710 -0.0043  0.6846  0.6580
45029SOL     OW44054   8.854   6.107   6.326 -0.6545 -0.0672  0.2454
45029SOL    HW144055   8.863   6.143   6.237 -2.8289 -2.0446 -0.8901
45029SOL    HW244056   8.770   6.141   6.357 -0.2740 -0.0227  1.2493
45030SOL     OW44057  11.258   7.177   6.297 -0.2011 -0.3152  0.1893
45030SOL    HW144058  11.190   7.191   6.363 -0.9133 -0.2449 -0.5432
45030SOL    HW244059  11.301   7.262   6.290 -0.0582 -0.3466  0.6226
45031SOL     OW44060  11.432   9.167   5.200  0.2627  0.4650 -0.1234
45031SOL    HW144061  11.493   9.099   5.227 -0.2726  0.5995  1.5343
45031SOL    HW244062  11.470   9.248   5.234 -0.3919  0.6503  0.1961
45032SOL     OW44063   6.021  10.238  11.375 -0.1447  0.2563 -0.0631
45032SOL    HW144064   6.103  10.255  11.421 -0.3127  2.1734 -0.4253
45032SOL    HW244065   5.954  10.280  11.428 -0.5141  1.2936 -1.3136
45033SOL     OW44066  12.583   4.898   5.881 -0.4424 -0.2579 -0.4482
45033SOL    HW144067  12.628   4.922   5.800 -1.0955  0.0914 -0.7196
45033SOL    HW244068  12.628   4.820   5.912 -0.0689 -0.2868 -1.0542
45034SOL     OW44069   9.724  10.241   0.699 -0.2224 -0.4623 -0.0415
45034SOL    HW144070   9.701  10.283   0.616  1.1851 -0.1803 -0.3139
45034SOL    HW244071   9.787  10.300   0.740  1.2111 -1.8971 -0.0622
45035SOL     OW44072   5.975  10.369   5.332  0.1068 -0.4459  0.2919
45035SOL    HW144073   5.953  10.461   5.320 -2.1072 -0.8165  1.0391
45035SOL    HW244074   6.068  10.369   5.354 -0.4207  1.8926  3.0969
45036SOL     OW44075   2.473   6.499   1.088 -0.3563  0.3852  0.0446
45036SOL    HW144076   2.516   6.429   1.039  1.0687  2.0471 -1.2140
45036SOL    HW244077   2.532   6.516   1.162 -0.4203  0.6157  0.0428
45037SOL     OW44078   3.392   4.216   5.386  0.1713 -0.2709 -0.0020
45037SOL    HW144079   3.356   4.129   5.368  0.1836 -0.7875  2.2451
45037SOL    HW244080   3.321   4.262   5.430  0.8355  0.1362  0.6629
45038SOL     OW44081  10.305   5.306   7.347  0.2640  0.4758 -0.3452
45038SOL    HW144082  10.373   5.240   7.340 -1.1393 -1.0594  0.0195
45038SOL    HW244083  10.300   5.345   7.260 -0.7237 -1.8281 -1.4083
45039SOL     OW44084   2.739   1.549   8.846 -0.6444 -0.0174  0.0954
45039SOL    HW144085   2.799   1.623   8.834  0.7579 -0.4552  3.1778
45039SOL    HW244086   2.679   1.579   8.915  0.3656 -1.8492  1.8853
45040SOL     OW44087   0.784   9.555   4.931  0.1812 -0.1074 -0.2522
45040SOL    HW144088   0.847   9.514   4.990  0.7514  1.6718  0.4482
45040SOL    HW244089   0.755   9.633   4.978  0.4478  1.2326 -2.1974
45041SOL     OW44090   3.866  11.506   3.478  0.1906  0.2462  0.0481
45041SOL    HW144091   3.876  11.446   3.403 -0.9261  0.7341 -0.5137
45041SOL    HW244092   3.912  11.585   3.451  1.4022 -0.2195  0.6662
45042SOL     OW44093   2.729  10.495  11.638  0.2461  0.6634  0.2530
45042SOL    HW144094   2.773  10.410  11.628 -0.7120  0.1335  0.4409
45042SOL    HW244095   2.645  10.484  11.593 -0.2374  1.2403  0.9904
45043SOL     OW44096  10.450   6.681   4.159  0.1939 -0.5793  0.0872
45043SOL    HW144097  10.471   6.772   4.138  1.4832 -0.6792  0.8215
45043SOL    HW244098  10.354   6.677   4.158  0.1415  0.2782 -1.9674
45044SOL     OW44099   5.191   5.587   6.123 -0.1212 -0.6031 -0.4184
45044SOL    HW144100   5.191   5.673   6.164  0.0732  0.0138 -1.6660
45044SOL    HW244101   5.117   5.541   6.164  0.4506 -0.2616  1.0520
45045SOL     OW44102  10.717   5.370   3.633  0.0247  0.1310 -0.3093
45045SOL    HW144103  10.639   5.352   3.685  1.1970 -1.4984  1.0426
45045SOL    HW244104  10.696   5.339   3.545 -1.1039  0.4378 -0.1530
45046SOL     OW44105   5.280   9.412   4.912 -0.4036 -0.1607  0.1473
45046SOL    HW144106   5.242   9.480   4.855 -2.3507 -0.5649  0.8597
45046SOL    HW244107   5.374   9.427   4.909 -0.7164  1.9886 -0.4635
45047SOL     OW44108   3.809   1.282   4.382  0.2910 -0.0746  0.4325
45047SOL    HW144109   3.840   1.219   4.446 -1.0303 -0.9301  0.2857
45047SOL    HW244110   3.856   1.261   4.301 -0.1068 -0.8731  0.3982
45048SOL     OW44111  12.355   3.194   8.472 -0.1795  0.4213 -0.2785
45048SOL    HW144112  12.388   3.141   8.545 -2.1606 -0.6071 -0.0665
45048SOL    HW244113  12.277   3.237   8.507 -0.4245  0.9478 -1.4214
45049SOL     OW44114   7.651   9.380  11.930 -0.3860  0.1932  0.5127
45049SOL    HW144115   7.626   9.361  12.021  1.0301 -1.1973  0.6435
45049SOL    HW244116   7.583   9.339  11.877  0.1425 -1.2679  0.9168
45050SOL     OW44117   3.488   9.381   9.362 -0.1658 -0.2845  0.5244
45050SOL    HW144118   3.563   9.359   9.417 -1.5881 -0.0739  2.6873
45050SOL    HW244119   3.425   9.420   9.423 -1.8360 -0.0101 -1.2953
45051SOL     OW44120   2.012   9.664   7.260  0.7875 -0.2145 -0.2830
45051SOL    HW144121   2.058   9.584   7.286  0.0406 -0.4305  0.4336
45051SOL    HW244122   1.969   9.694   7.340 -0.8714 -0.4073 -1.0516
45052SOL     OW44123   0.348  12.004   0.324 -0.4210 -0.2121 -0.5632
45052SOL    HW144124   0.382  12.060   0.394  0.9824 -0.3690 -1.0801
45052SOL    HW244125   0.288  12.060   0.276 -1.4116 -0.0966  0.7396
45053SOL     OW44126   4.147  10.013   8.995  0.3605  0.2572  0.2838
45053SOL    HW144127   4.173   9.987   8.907  0.6885  0.4218  0.3307
45053SOL    HW244128   4.097  10.094   8.984  0.7090  0.4746  0.2783
45054SOL     OW44129   5.168   5.633   4.046 -0.4453  0.1333 -0.4107
45054SOL    HW144130   5.254   5.673   4.045 -0.1030 -0.5870 -0.9352
45054SOL    HW244131   5.181   5.547   4.005 -1.2654 -0.2806  0.1614
45055SOL     OW44132   3.045   4.778   5.711 -0.3385  0.3745 -0.0673
45055SOL    HW144133   3.030   4.872   5.721  1.9548  1.2000 -3.0335
45055SOL    HW244134   2.993   4.738   5.781 -1.7684  3.7763  1.0192
45056SOL     OW44135   5.918   1.066  12.552 -0.0168  0.1520 -0.1034
45056SOL    HW144136   5.827   1.035  12.555  0.6421 -1.8956  2.7998
45056SOL    HW244137   5.911   1.155  12.517 -2.9759 -0.3512 -1.1037
45057SOL     OW44138   4.741  12.139   2.704  0.1848  0.2351  0.8063
45057SOL    HW144139   4.675  12.187   2.655 -1.2640 -2.3861 -0.0561
45057SOL    HW244140   4.691  12.087   2.767  1.4464 -1.1787  0.7251
45058SOL     OW44141   5.767   9.502   7.241 -0.1306 -0.6528 -0.0352
45058SOL    HW144142   5.843   9.555   7.219  0.5498 -1.3928  0.4976
45058SOL    HW244143   5.756   9.513   7.335 -2.7177  2.0777 -0.4851
45059SOL     OW44144  11.638   1.423   7.482 -0.2797  0.2453 -0.1086
45059SOL    HW144145  11.555   1.442   7.439 -0.3199 -1.4895 -0.8609
45059SOL    HW244146  11.640   1.483   7.557 -2.2524  0.2681 -0.0192
45060SOL     OW44147   1.928  10.179  10.235  0.2201  0.1536 -0.1326
45060SOL    HW144148   1.948  10.239  10.162 -0.4277 -0.3444 -0.7327
45060SOL    HW244149   1.838  10.200  10.259  0.4517  0.3584  0.5805
45061SOL     OW44150   6.348   4.629   6.160 -0.3884 -0.3151 -0.6037
45061SOL    HW144151   6.254   4.640   6.173 -0.1411 -1.0075  2.8082
45061SOL    HW244152   6.382   4.719   6.162 -0.7490 -0.1607  1.5734
45062SOL     OW44153   2.264   6.767  11.899 -0.1862  0.2656  0.0418
45062SOL    HW144154   2.326   6.773  11.973 -0.3584  3.8657  0.0379
45062SOL    HW244155   2.320   6.747  11.824  0.7182  1.4524  0.3676
45063SOL     OW44156   0.757   9.147   9.637  0.2603 -0.0787  0.4245
45063SOL    HW144157   0.670   9.118   9.666 -0.5994  1.5635 -0.3163
45063SOL    HW244158   0.761   9.119   9.545 -0.4093  1.6068 -0.1737
45064SOL     OW44159   7.373   9.593   7.511 -0.5575 -0.7590  0.2659
45064SOL    HW144160   7.320   9.646   7.453 -0.6041  0.0461  1.0201
45064SOL    HW244161   7.460   9.592   7.470 -1.0694 -1.9149 -0.8633
45065SOL     OW44162   1.504   0.188   4.910  0.2923 -0.5699  0.2817
45065SOL    HW144163   1.511   0.227   4.997  0.5512  0.8515 -0.3349
45065SOL    HW244164   1.551   0.105   4.917 -2.9922 -2.4547  2.5187
45066SOL     OW44165  11.925   3.691   4.474  0.0100  0.1248  0.2419
45066SOL    HW144166  11.837   3.723   4.454 -0.9887 -2.2025  0.6711
45066SOL    HW244167  11.958   3.752   4.540 -3.2788 -1.6341  3.8981
45067SOL     OW44168   4.758   5.917  10.553  0.2527  0.3451  0.1998
45067SOL    HW144169   4.673   5.887  10.521 -0.1130 -0.3372  1.7141
45067SOL    HW244170   4.821   5.853  10.518  0.0652  0.4526 -0.3459
45068SOL     OW44171  10.789  10.456   5.239  0.0801  0.0810  0.2540
45068SOL    HW144172  10.858  10.401   5.276  1.0781  0.6647 -0.7011
45068SOL    HW244173  10.807  10.457   5.145 -0.0243  1.8738  0.2234
45069SOL     OW44174   1.032   6.096   4.409  0.1352 -0.0896 -0.0351
45069SOL    HW144175   0.981   6.177   4.416 -1.6068 -1.1823  0.5218
45069SOL    HW244176   1.121   6.126   4.388 -0.7082  1.8916 -1.0968
45070SOL     OW44177   1.810   0.251  11.692 -0.0078 -0.3197 -0.4358
45070SOL    HW144178   1.793   0.167  11.650 -1.0410 -0.5928  0.4842
45070SOL    HW244179   1.871   0.296  11.633 -0.3356 -1.2466 -1.4999
45071SOL     OW44180   3.471   0.405  11.463 -0.4684 -0.1357  0.5899
45071SOL    HW144181   3.472   0.441  11.374  2.2365  0.5922  0.8547
45071SOL    HW244182   3.469   0.481  11.520  0.0228 -0.5473  1.1639
45072SOL     OW44183   4.248   2.265   5.979 -0.0620 -0.6828 -0.1295
45072SOL    HW144184   4.156   2.262   6.004  0.0348  0.3828  0.4272
45072SOL    HW244185   4.283   2.342   6.026  1.3048 -1.5684  0.3661
45073SOL     OW44186   9.751   5.267  12.510 -0.2695 -0.0228 -0.1008
45073SOL    HW144187   9.789   5.225  12.433 -2.0831 -1.1916 -0.4255
45073SOL    HW244188   9.770   5.207  12.582  0.3244  0.4462  0.1425
45074SOL     OW44189   7.774   4.167   5.388 -0.1613  0.0171 -0.0300
45074SOL    HW144190   7.809   4.097   5.333  3.3188  0.1286  1.7626
45074SOL    HW244191   7.746   4.235   5.326 -0.7838 -1.6811 -1.7001
45075SOL     OW44192   2.027  10.245  12.432 -0.1987  0.3622  0.9744
45075SOL    HW144193   2.073  10.162  12.444 -0.1238 -0.1176 -1.9562
45075SOL    HW244194   1.937  10.226  12.456 -0.1506 -0.5423  0.4853
45076SOL     OW44195   1.437   6.202   4.632 -0.4093 -0.3658  0.2445
45076SOL    HW144196   1.486   6.222   4.712  0.8184 -1.0304 -0.3317
45076SOL    HW244197   1.347   6.191   4.663 -0.1817  0.5671  1.3622
45077SOL     OW44198   4.799   1.283   5.341  0.1065 -0.2438 -0.2728
45077SOL    HW144199   4.827   1.279   5.250  0.3862 -0.1403 -0.1920
45077SOL    HW244200   4.843   1.209   5.383 -0.8174 -0.9064 -0.4330
45078SOL     OW44201   7.776  10.280   9.067  0.0212 -0.2535 -0.0241
45078SOL    HW144202   7.806  10.309   8.981 -0.4022  1.6441  0.4155
45078SOL    HW244203   7.688  10.316   9.075  0.4882  0.6221  1.6559
45079SOL     OW44204   5.757   1.077   3.694  0.0160 -0.2053 -0.1998
45079SOL    HW144205   5.789   1.044   3.778 -0.7329 -1.6774 -0.4553
45079SOL    HW244206   5.801   1.161   3.683 -1.8273  1.3618  2.8966
45080SOL     OW44207   4.422   7.949   4.668 -0.0866 -0.1930 -0.1184
45080SOL    HW144208   4.421   7.907   4.582 -2.0613 -0.2810 -0.1064
45080SOL    HW244209   4.330   7.972   4.685  0.5047  1.5255  1.1507
45081SOL     OW44210  12.471   6.775   0.030 -0.1958 -0.2204 -0.0895
45081SOL    HW144211  12.393   6.819   0.065 -1.2657 -0.8726 -1.5508
45081SOL    HW244212  12.523   6.755   0.108 -2.2116 -1.1511  1.1200
45082SOL     OW44213   2.091   7.639   1.671 -0.0096 -0.2135 -0.2070
45082SOL    HW144214   2.027   7.676   1.611  0.4714  1.9844  0.5563
45082SOL    HW244215   2.171   7.689   1.655  0.8924 -1.4121  0.4010
45083SOL     OW44216  12.157   7.998   9.568  0.6549  0.8174 -0.0640
45083SOL    HW144217  12.135   8.084   9.602 -1.0676  0.6054 -0.5629
45083SOL    HW244218  12.120   7.996   9.480  0.0062 -0.6747  0.2052
45084SOL     OW44219   2.966   8.426   8.032 -0.3483  0.1659  0.6345
45084SOL    HW144220   3.019   8.350   8.008 -1.0310 -0.4408  0.9934
45084SOL    HW244221   2.933   8.404   8.119 -0.3603  0.9879  0.8427
45085SOL     OW44222   6.010   0.938   9.799  0.0790  0.5741 -0.4011
45085SOL    HW144223   6.026   1.032   9.813  1.9996  0.4193 -1.3025
45085SOL    HW244224   5.997   0.930   9.705  1.8816 -0.2898 -0.6173
45086SOL     OW44225   2.723   3.500   5.018 -0.3639 -0.0341 -0.4240
45086SOL    HW144226   2.653   3.442   5.048 -1.5242  1.6453  0.3087
45086SOL    HW244227   2.699   3.586   5.053  1.3068  0.8870 -1.4116
45087SOL     OW44228   0.687  11.804   2.988 -0.3602 -0.1641  0.0343
45087SOL    HW144229   0.747  11.734   3.012 -0.1322  0.4493  1.3676
45087SOL    HW244230   0.640  11.771   2.912 -1.3954 -2.4093  1.5755
45088SOL     OW44231  12.331   7.077  11.421  0.0443 -0.0762  0.0224
45088SOL    HW144232  12.301   7.001  11.472  1.4654 -0.3367  0.5027
45088SOL    HW244233  12.422   7.089  11.447  0.3328  0.7812 -1.2960
45089SOL     OW44234   8.768  10.708  11.658  0.0841 -0.1046  0.1332
45089SOL    HW144235   8.781  10.614  11.672 -0.1296 -0.1149  0.2621
45089SOL    HW244236   8.755  10.744  11.746 -0.7984 -0.0948  0.0068
45090SOL     OW44237  11.340   1.123   2.204  0.0640  0.5914  0.3797
45090SOL    HW144238  11.393   1.199   2.226  0.9471 -0.0809  0.6416
45090SOL    HW244239  11.338   1.071   2.285  1.6974 -0.9459 -0.4942
45091SOL     OW44240   8.545  11.033   1.088  0.4936 -0.3533 -0.0300
45091SOL    HW144241   8.551  11.009   0.996  3.0191 -1.0277  0.2207
45091SOL    HW244242   8.491  10.964   1.127 -1.1729  0.3068 -1.0451
45092SOL     OW44243   5.544   0.502   5.041 -0.0478 -0.2396 -0.0798
45092SOL    HW144244   5.451   0.484   5.043  0.0028 -0.8035 -1.5631
45092SOL    HW244245   5.579   0.443   4.974  1.4858 -0.5197  0.9064
45093SOL     OW44246   3.568  11.635   7.506  0.7152  0.2602 -0.2071
45093SOL    HW144247   3.502  11.684   7.555 -0.0077  2.0628 -2.7741
45093SOL    HW244248   3.651  11.657   7.547  0.1865  2.0666 -0.0294
45094SOL     OW44249   2.527   4.337   2.509 -0.0971 -0.2968 -0.4431
45094SOL    HW144250   2.449   4.376   2.548  0.3408 -1.2031  1.4515
45094SOL    HW244251   2.599   4.369   2.563  0.8507  0.2650 -1.9613
45095SOL     OW44252   8.745   2.286   0.213 -0.9285  0.2759 -0.4113
45095SOL    HW144253   8.802   2.243   0.149 -0.0395  1.1908 -0.2631
45095SOL    HW244254   8.662   2.296   0.168 -0.1526  1.4377 -1.6715
45096SOL     OW44255  10.893   4.129   2.810  0.0533 -0.4340 -0.0215
45096SOL    HW144256  10.880   4.192   2.739 -0.5119 -0.1092  0.3603
45096SOL    HW244257  10.982   4.146   2.841 -0.3000  0.6061  0.4785
45097SOL     OW44258   6.326   3.369   6.256  0.0794 -0.0956 -0.2025
45097SOL    HW144259   6.329   3.325   6.170  0.8596  0.0151 -0.2412
45097SOL    HW244260   6.273   3.311   6.311 -1.9388  0.6863 -1.2220
45098SOL     OW44261  10.534  11.342   8.701  0.2307  0.0224  0.4092
45098SOL    HW144262  10.452  11.353   8.654  1.1144 -2.5880 -2.0262
45098SOL    HW244263  10.577  11.427   8.694 -1.4192  0.8686  0.0396
45099SOL     OW44264   5.278  11.535  11.494 -0.0294 -0.0644 -1.4954
45099SOL    HW144265   5.307  11.568  11.410  2.1936  0.7332 -0.4831
45099SOL    HW244266   5.343  11.469  11.518  0.4672  1.0383  0.3962
45100SOL     OW44267   8.280   3.708   5.317  0.1588 -0.5873  0.1165
45100SOL    HW144268   8.203   3.711   5.260  1.2750 -1.6506 -1.5522
45100SOL    HW244269   8.244   3.715   5.405 -1.8535 -0.9267 -0.6020
45101SOL     OW44270  10.049  10.441   6.358 -0.5934  0.2283 -0.1980
45101SOL    HW144271   9.985  10.403   6.297  0.0970  0.9080 -1.3816
45101SOL    HW244272  10.114  10.483   6.301  0.8516 -0.3369  0.9850
45102SOL     OW44273   0.407   5.669   4.483 -0.3042 -0.3704 -0.0010
45102SOL    HW144274   0.348   5.734   4.521 -0.7664 -1.0686  0.4926
45102SOL    HW244275   0.482   5.667   4.543  0.2109  0.4718 -0.5945
45103SOL     OW44276  11.488  12.460   5.558  0.2246 -0.3491  0.1706
45103SOL    HW144277  11.489  12.498   5.645 -1.2678  0.8815 -0.3057
45103SOL    HW244278  11.415  12.398   5.559 -0.0556 -0.0418 -0.2835
45104SOL     OW44279  11.193   4.919   5.897  0.2714 -0.1336 -0.1545
45104SOL    HW144280  11.167   4.827   5.896 -0.6457  0.1008  0.2443
45104SOL    HW244281  11.182   4.948   5.807 -2.5193  0.3527  0.2301
45105SOL     OW44282   0.497   8.286   3.901 -0.4240 -0.4429  0.3411
45105SOL    HW144283   0.484   8.372   3.940  2.6087  0.6598 -0.8206
45105SOL    HW244284   0.490   8.301   3.806  0.7044 -1.3301  0.0926
45106SOL     OW44285   2.947  12.215  10.545  0.0474 -0.4077 -0.5225
45106SOL    HW144286   2.961  12.149  10.613 -0.0689 -1.0330 -1.0987
45106SOL    HW244287   2.870  12.264  10.575 -1.8618 -2.5730 -1.6156
45107SOL     OW44288   6.427   7.377   2.108  0.4204 -0.2881  0.3891
45107SOL    HW144289   6.424   7.288   2.145 -0.1388 -0.3204  0.2747
45107SOL    HW244290   6.391   7.368   2.020 -0.8701  0.2756  0.8443
45108SOL     OW44291   4.207  10.510   1.210  0.2674 -0.7104 -0.1802
45108SOL    HW144292   4.251  10.509   1.125 -0.7910 -1.2626 -0.7422
45108SOL    HW244293   4.277  10.528   1.273  1.1223 -0.6042 -1.1321
45109SOL     OW44294   7.611   6.520   1.489  0.0711 -0.2171  0.2283
45109SOL    HW144295   7.675   6.537   1.420 -0.6215 -1.0777 -0.6506
45109SOL    HW244296   7.589   6.606   1.523  0.0850  0.2691 -0.9366
45110SOL     OW44297   9.112   6.642   3.776  0.0795 -0.0862 -0.4524
45110SOL    HW144298   9.023   6.624   3.806 -1.2846 -0.0906 -4.0796
45110SOL    HW244299   9.165   6.573   3.817 -1.8130 -1.0054  0.6061
45111SOL     OW44300  11.493   9.431   8.809 -0.2605  0.0293  0.0231
45111SOL    HW144301  11.424   9.369   8.789 -0.2793  0.3940 -1.0851
45111SOL    HW244302  11.575   9.384   8.791 -0.2287 -0.1680  0.6550
45112SOL     OW44303   7.169   8.717  10.084 -0.2421  0.2223 -0.1816
45112SOL    HW144304   7.168   8.717  10.180  0.4906  0.0673 -0.1678
45112SOL    HW244305   7.078   8.698  10.059 -0.2816 -0.5547  0.4906
45113SOL     OW44306   0.175   5.259   4.426 -0.2250  0.6657 -0.6935
45113SOL    HW144307   0.221   5.304   4.354  1.1901 -0.9802 -0.8946
45113SOL    HW244308   0.095   5.309   4.438  0.8208  2.6671 -1.5162
45114SOL     OW44309   4.173   6.995  10.606 -0.2232  0.3100  0.0089
45114SOL    HW144310   4.084   7.008  10.571  0.1666 -1.9049 -2.0992
45114SOL    HW244311   4.223   6.964  10.531  2.2708  1.0495  1.2714
45115SOL     OW44312   5.271   0.040   9.665  0.0223 -0.3096 -0.2448
45115SOL    HW144313   5.365   0.035   9.650  0.5352  2.0210  1.5461
45115SOL    HW244314   5.231   0.020   9.581  2.1694  0.0275 -1.3995
45116SOL     OW44315   8.733   1.035  11.400 -0.0997 -0.6603  0.4384
45116SOL    HW144316   8.646   1.042  11.438 -0.4315 -2.1092 -0.0366
45116SOL    HW244317   8.728   0.961  11.340 -0.1033  2.4591 -3.8396
45117SOL     OW44318   7.002  10.328   4.947 -0.4815  0.6726 -0.6104
45117SOL    HW144319   7.067  10.369   5.003  0.5942 -0.1441 -1.2279
45117SOL    HW244320   6.949  10.275   5.007  1.6558 -1.4882 -0.4700
45118SOL     OW44321   5.064   8.376   0.691 -0.3935  0.6135 -0.1414
45118SOL    HW144322   5.126   8.435   0.734  0.4283 -1.2098  1.3105
45118SOL    HW244323   4.993   8.366   0.754 -0.9289  0.6747 -0.7266
45119SOL     OW44324   6.320   8.580   0.221  0.3068  0.1438  0.3451
45119SOL    HW144325   6.317   8.669   0.255 -0.0741  0.5401 -0.6808
45119SOL    HW244326   6.249   8.534   0.265 -0.4568  0.7652 -0.2156
45120SOL     OW44327   9.240   0.185   2.147  0.3190  0.0586 -0.6029
45120SOL    HW144328   9.327   0.207   2.114  0.4150  0.3248 -0.1921
45120SOL    HW244329   9.257   0.131   2.224  0.1273  0.2174 -0.4473
45121SOL     OW44330   9.622   3.387   6.428 -0.0426  0.0332  0.1196
45121SOL    HW144331   9.576   3.423   6.352  0.6714  1.2797  0.2534
45121SOL    HW244332   9.677   3.459   6.459  0.8427 -0.9461  0.8880
45122SOL     OW44333  10.296  10.590   4.993 -0.0933 -0.0171  0.1996
45122SOL    HW144334  10.207  10.604   5.025  0.3377  1.5361  0.7730
45122SOL    HW244335  10.288  10.518   4.930 -1.7913  0.2939  0.0315
45123SOL     OW44336   4.295   8.576   6.985 -0.9855  0.6609 -0.0358
45123SOL    HW144337   4.232   8.625   6.933 -0.4109  0.7571 -0.6486
45123SOL    HW244338   4.372   8.632   6.988 -0.4238 -0.0767 -0.5004
45124SOL     OW44339   1.945   9.883   2.539  0.0779  0.4788 -0.1500
45124SOL    HW144340   2.024   9.882   2.593  0.6011  0.1724 -0.9042
45124SOL    HW244341   1.943   9.972   2.502 -1.0098  1.1467  1.3813
45125SOL     OW44342   4.405  12.257  12.428  0.2236 -0.7130 -0.9519
45125SOL    HW144343   4.475  12.283  12.368 -0.0708 -0.1100 -1.0493
45125SOL    HW244344   4.358  12.188  12.382  1.1360 -1.5756 -0.6157
45126SOL     OW44345   1.503  12.188   8.025 -0.1326  0.0437  0.3505
45126SOL    HW144346   1.415  12.157   8.007  0.6324 -2.1617  0.1311
45126SOL    HW244347   1.560  12.131   7.974  1.5943 -0.5895  2.8068
45127SOL     OW44348   3.203   2.461   4.071 -0.1122 -0.2335 -0.4114
45127SOL    HW144349   3.235   2.529   4.010  1.1700 -0.1152  0.3610
45127SOL    HW244350   3.131   2.420   4.024  1.0912 -0.4115 -2.2033
45128SOL     OW44351   4.857   0.427  11.656 -0.6405  0.2716 -0.1124
45128SOL    HW144352   4.895   0.501  11.610  0.6323  0.0245  0.4879
45128SOL    HW244353   4.785   0.464  11.707  0.4869  1.2831  0.8179
45129SOL     OW44354   6.305   8.965   2.114  0.5209 -0.2341  0.4482
45129SOL    HW144355   6.287   8.916   2.194  1.4947 -0.0320  0.8100
45129SOL    HW244356   6.311   8.898   2.046  2.3827 -0.7341  1.0310
45130SOL     OW44357   7.844   0.417  12.047  0.5065 -0.6967  0.3489
45130SOL    HW144358   7.764   0.367  12.065 -0.4530  1.1670  1.5976
45130SOL    HW244359   7.915   0.354  12.059 -0.7011 -2.0797  0.5128
45131SOL     OW44360  11.093   3.855   4.869  0.2382  0.4060  0.3709
45131SOL    HW144361  11.112   3.916   4.797 -1.1785 -0.8003 -1.1031
45131SOL    HW244362  11.123   3.770   4.838 -0.3605 -0.1336  1.2245
45132SOL     OW44363   3.759  10.661   3.624 -0.0055 -0.1644  0.0069
45132SOL    HW144364   3.846  10.673   3.584  0.0568 -1.8000 -0.4241
45132SOL    HW244365   3.701  10.648   3.549 -1.1152  3.0569  0.1265
45133SOL     OW44366   4.997  11.033   7.770  0.3487  0.5092  0.5115
45133SOL    HW144367   4.994  11.095   7.842 -0.7699 -0.0995  1.0330
45133SOL    HW244368   5.017  11.086   7.692  2.4448  1.0487  1.3585
45134SOL     OW44369   9.547   6.370   7.840 -0.1319 -0.3584 -0.4490
45134SOL    HW144370   9.559   6.338   7.751 -0.0932  0.5134 -0.7604
45134SOL    HW244371   9.481   6.312   7.878 -0.0879 -0.7809 -1.0110
45135SOL     OW44372   8.629   9.781   4.125 -0.0983 -0.4477  0.4230
45135SOL    HW144373   8.580   9.824   4.054 -0.0149  1.1881  1.2958
45135SOL    HW244374   8.565   9.773   4.195  0.3315 -0.2235  0.8423
45136SOL     OW44375   9.124   9.672   5.734  0.1372 -0.2666  0.2248
45136SOL    HW144376   9.184   9.744   5.716  0.0749  0.0378  1.1658
45136SOL    HW244377   9.149   9.642   5.822 -1.1450 -0.0637  0.6771
45137SOL     OW44378  10.747   3.786   8.293  0.6980  0.0837 -0.5331
45137SOL    HW144379  10.759   3.769   8.387  2.8729 -0.3184 -0.8215
45137SOL    HW244380  10.655   3.766   8.277  0.2507  0.2261  1.5187
45138SOL     OW44381   4.755   6.467   1.556 -0.0936  0.0200  0.2313
45138SOL    HW144382   4.780   6.542   1.502 -2.2082  0.1621 -0.6453
45138SOL    HW244383   4.801   6.393   1.517  0.5238  0.5554 -0.0730
45139SOL     OW44384   2.430   2.972   8.791  0.5351  0.0238 -0.4824
45139SOL    HW144385   2.510   2.920   8.794 -0.1469 -1.0401  2.2617
45139SOL    HW244386   2.370   2.927   8.851 -1.7856  1.3597 -1.6589
45140SOL     OW44387   5.100  12.372   4.306 -0.0814 -0.7203  0.6589
45140SOL    HW144388   5.089  12.437   4.236 -1.3379 -1.9481 -0.3513
45140SOL    HW244389   5.101  12.423   4.387 -0.1613  0.6126 -0.1533
45141SOL     OW44390  11.225  12.049   2.603  0.1266 -0.0094  0.1696
45141SOL    HW144391  11.137  12.040   2.565  0.1081  1.3582 -0.1776
45141SOL    HW244392  11.223  11.994   2.681 -0.4586 -1.3686 -0.7670
45142SOL     OW44393   0.291   7.342  11.863 -0.3138 -0.1720 -0.4032
45142SOL    HW144394   0.259   7.289  11.936 -1.1944  0.1811 -0.5155
45142SOL    HW244395   0.360   7.289  11.823  0.5061 -0.1757  0.9485
45143SOL     OW44396  10.258   9.347   7.549 -0.2022  0.7451  0.0568
45143SOL    HW144397  10.271   9.269   7.495 -1.4800 -0.0313  0.8272
45143SOL    HW244398  10.166   9.343   7.575 -0.0537  2.0325  0.8746
45144SOL     OW44399   2.236   7.542  10.697  0.3457  0.4957 -0.7235
45144SOL    HW144400   2.182   7.475  10.740 -0.9479  1.0171 -1.4736
45144SOL    HW244401   2.218   7.622  10.746  2.0101  0.3007  0.2682
45145SOL     OW44402  11.859  12.289  11.095 -0.0236 -0.6227 -0.0132
45145SOL    HW144403  11.879  12.312  11.004  0.8549 -0.1293  0.2903
45145SOL    HW244404  11.929  12.228  11.119  0.0941 -0.2800  0.5205
45146SOL     OW44405   5.560   5.365   4.039 -0.8829 -0.7135  0.2198
45146SOL    HW144406   5.506   5.410   3.975  0.3804 -0.4433 -0.6927
45146SOL    HW244407   5.498   5.316   4.094 -2.0575 -0.0530 -0.4984
45147SOL     OW44408  10.683  12.084  10.371 -0.2755  0.5403  0.0437
45147SOL    HW144409  10.592  12.100  10.349 -0.1834 -0.6479 -1.3584
45147SOL    HW244410  10.713  12.165  10.413 -2.0133  0.8524  0.7437
45148SOL     OW44411   3.875   0.966   7.735 -0.0960 -0.2649 -0.3614
45148SOL    HW144412   3.805   0.912   7.698 -0.4839  0.0842 -0.1436
45148SOL    HW244413   3.935   0.981   7.662 -0.3387 -0.4237 -0.5937
45149SOL     OW44414  11.755  10.065   9.632  0.2289 -0.3006  0.0141
45149SOL    HW144415  11.792  10.153   9.631  0.0617 -0.2318 -0.2178
45149SOL    HW244416  11.751  10.039   9.540 -2.1367  0.4776 -0.1839
45150SOL     OW44417   1.331   7.775   1.832  0.4313 -0.1827  0.4385
45150SOL    HW144418   1.318   7.722   1.753 -0.1430  0.2483  0.2338
45150SOL    HW244419   1.353   7.862   1.799 -0.2018  0.0987  0.7372
45151SOL     OW44420   3.342   1.546   2.362  0.4605  0.5952 -0.4763
45151SOL    HW144421   3.340   1.637   2.394 -2.4576  0.2864  0.5618
45151SOL    HW244422   3.316   1.494   2.438 -0.2575 -0.8376 -1.6655
45152SOL     OW44423   3.852   1.781   8.539 -0.0261  0.7851  0.0346
45152SOL    HW144424   3.757   1.785   8.531 -0.0586 -0.1663 -0.1648
45152SOL    HW244425   3.883   1.750   8.454  0.5494  1.9541 -0.2092
45153SOL     OW44426  11.273   8.614   0.731 -0.1226  0.0133  0.1018
45153SOL    HW144427  11.278   8.639   0.823  1.4287 -2.0137  0.6391
45153SOL    HW244428  11.189   8.568   0.723  0.6611 -1.7039  1.0937
45154SOL     OW44429  12.392  11.073   6.275  0.4458 -0.7688  0.4715
45154SOL    HW144430  12.382  11.166   6.296 -0.1453 -1.2154  2.3312
45154SOL    HW244431  12.303  11.040   6.267  0.6452 -1.3031  0.3983
45155SOL     OW44432   9.077   6.454   6.352  0.2258 -0.2108  0.5175
45155SOL    HW144433   9.159   6.414   6.379  0.6640 -0.0158 -0.4730
45155SOL    HW244434   9.011   6.416   6.409  1.1403  0.3766  2.0152
45156SOL     OW44435   5.367   5.172   3.759 -0.0464  0.0652 -0.0166
45156SOL    HW144436   5.447   5.119   3.765  1.3021  1.9102 -0.4567
45156SOL    HW244437   5.378   5.221   3.677 -1.7776  0.1743 -0.2133
45157SOL     OW44438   7.162   2.838   9.472 -0.6900  0.2145  0.0745
45157SOL    HW144439   7.207   2.765   9.429  1.2295  0.3012  1.8243
45157SOL    HW244440   7.195   2.916   9.427  1.6465  0.3361  1.8344
45158SOL     OW44441   3.314   8.724   9.297 -0.2766 -0.3043  0.2889
45158SOL    HW144442   3.281   8.698   9.384 -2.3419  1.9027  0.2809
45158SOL    HW244443   3.330   8.818   9.305  1.5833 -0.4402 -1.1673
45159SOL     OW44444   8.662   5.640   1.276  0.5508 -0.3296 -0.0750
45159SOL    HW144445   8.708   5.633   1.192 -0.0406  0.6088 -0.4952
45159SOL    HW244446   8.616   5.724   1.271 -1.2891 -1.2712  0.2903
45160SOL     OW44447   0.029  11.601   8.486 -0.1302  0.0834 -0.3554
45160SOL    HW144448   0.026  11.505   8.477  1.5951 -0.1085  0.6390
45160SOL    HW244449  -0.025  11.620   8.562 -0.9288 -0.0199 -0.8803
45161SOL     OW44450   2.436   4.673   2.754 -0.4510 -0.6542  0.1250
45161SOL    HW144451   2.352   4.634   2.776 -0.2643 -0.2924  1.5930
45161SOL    HW244452   2.419   4.724   2.675 -1.4860 -0.9725  0.1293
45162SOL     OW44453   9.373   8.354   8.914 -0.2047 -0.2070 -0.1450
45162SOL    HW144454   9.458   8.347   8.871 -0.5855 -1.6403 -0.7311
45162SOL    HW244455   9.338   8.265   8.911 -1.5504  0.2823  0.4544
45163SOL     OW44456  12.198  11.870   9.090 -0.4075 -0.2753  0.1622
45163SOL    HW144457  12.227  11.877   8.999 -1.0446 -3.9976 -0.4782
45163SOL    HW244458  12.109  11.906   9.089 -0.8450 -1.3173 -0.9946
45164SOL     OW44459   1.676  10.280   5.701  0.7899  0.1341 -0.0603
45164SOL    HW144460   1.713  10.324   5.778  1.4224  1.8593 -1.2781
45164SOL    HW244461   1.600  10.232   5.734  2.4588 -1.2249  2.0457
45165SOL     OW44462   3.074   2.707   9.330 -0.2527  0.7305  0.1710
45165SOL    HW144463   3.006   2.770   9.306  0.1403  1.2489  0.3985
45165SOL    HW244464   3.035   2.656   9.402 -0.6500  0.5712 -0.1579
45166SOL     OW44465   8.330   3.004   9.788 -0.6683 -0.1735  0.0501
45166SOL    HW144466   8.303   3.005   9.880 -2.1336 -1.9601 -0.3038
45166SOL    HW244467   8.424   2.990   9.791 -0.7684 -0.7361  1.2925
45167SOL     OW44468   3.116   7.222   6.145  0.0596 -0.1137 -0.4744
45167SOL    HW144469   3.208   7.240   6.129 -0.0440 -0.4274 -1.5338
45167SOL    HW244470   3.112   7.128   6.163  0.1469  0.1989  1.3500
45168SOL     OW44471   3.973   0.353   5.086  0.1703  0.2421  0.0901
45168SOL    HW144472   3.946   0.428   5.139 -0.2757  0.6892 -0.7518
45168SOL    HW244473   3.902   0.290   5.097  0.9958 -0.4949  1.5847
45169SOL     OW44474   9.477   6.376   4.959 -0.1697  0.4964  0.1964
45169SOL    HW144475   9.387   6.375   4.927 -0.5369  2.6246  0.9802
45169SOL    HW244476   9.522   6.438   4.900  0.2494  0.9986  1.0285
45170SOL     OW44477  11.810   7.218   6.207 -0.4329  0.1232 -0.9810
45170SOL    HW144478  11.896   7.182   6.230 -0.0256 -0.4079 -3.1120
45170SOL    HW244479  11.760   7.142   6.176 -1.2994  0.6059 -0.7774
45171SOL     OW44480  10.699  10.056   4.030 -0.2567 -0.3838 -0.0804
45171SOL    HW144481  10.672   9.964   4.036 -1.6336 -0.0193 -0.4526
45171SOL    HW244482  10.621  10.102   4.002  0.2135  1.0289  0.8437
45172SOL     OW44483   7.841   4.572   2.176 -0.1589 -0.3297  0.3090
45172SOL    HW144484   7.930   4.590   2.147 -0.4590  0.6641 -0.0468
45172SOL    HW244485   7.822   4.642   2.240 -1.7537  1.4398 -1.9237
45173SOL     OW44486  11.581   0.588   5.648  0.1577 -0.7263  0.1166
45173SOL    HW144487  11.614   0.652   5.712 -0.3434 -1.8645  1.5605
45173SOL    HW244488  11.639   0.512   5.658 -0.0507 -0.9987 -0.6515
45174SOL     OW44489  12.504   0.622   4.477 -0.2915  0.0050 -0.0299
45174SOL    HW144490  12.520   0.714   4.498  0.6371 -0.0387 -0.4733
45174SOL    HW244491  12.413   0.607   4.502 -0.4347  1.0208  0.1190
45175SOL     OW44492   5.785   8.152   7.717 -0.3603 -0.1643 -0.3152
45175SOL    HW144493   5.698   8.114   7.735  0.1729 -2.3593 -1.9699
45175SOL    HW244494   5.843   8.108   7.778 -0.0254 -0.5478 -0.9118
45176SOL     OW44495   1.280   5.082   4.148  0.2351 -0.1165  0.3061
45176SOL    HW144496   1.263   5.133   4.227  1.1401 -1.1663  1.2140
45176SOL    HW244497   1.362   5.037   4.166 -0.4152 -1.7298 -0.5273
45177SOL     OW44498   3.207  12.151   9.655  1.0115 -0.7638 -0.4306
45177SOL    HW144499   3.244  12.073   9.615  1.4832  0.1442 -1.8400
45177SOL    HW244500   3.225  12.141   9.749  2.5394 -1.5689 -0.7764
45178SOL     OW44501   4.490  12.174   4.188 -0.2928  0.3058 -0.1800
45178SOL    HW144502   4.567  12.213   4.229  0.5009 -0.8113 -0.5271
45178SOL    HW244503   4.501  12.193   4.094 -1.5488  1.9349 -0.0470
45179SOL     OW44504   9.491   2.349   7.286 -0.5597  0.0938  0.2720
45179SOL    HW144505   9.480   2.313   7.374  0.3648 -1.5399 -0.2401
45179SOL    HW244506   9.576   2.394   7.290 -0.9003  0.7305  0.4296
45180SOL     OW44507   5.215  12.071   9.510  0.4104 -0.2116  0.1732
45180SOL    HW144508   5.197  12.157   9.474  0.5089 -0.1164  0.3517
45180SOL    HW244509   5.302  12.048   9.477  0.6138 -0.0087  0.5679
45181SOL     OW44510   0.826   0.398   5.707  0.2463  0.4463  0.1904
45181SOL    HW144511   0.864   0.483   5.689  0.3964 -0.0044 -1.8079
45181SOL    HW244512   0.882   0.336   5.660 -0.0219 -0.7474  1.3621
45182SOL     OW44513   4.001   7.547   4.841  0.0858 -0.0765  0.2681
45182SOL    HW144514   3.934   7.561   4.908 -1.2364 -1.0685 -0.8198
45182SOL    HW244515   3.975   7.603   4.768  1.9677  1.6342  0.8155
45183SOL     OW44516   8.783   5.718   2.851 -0.2743 -0.3274 -0.0710
45183SOL    HW144517   8.758   5.702   2.759  0.9439  0.7101 -0.6077
45183SOL    HW244518   8.878   5.727   2.849 -0.3950  1.6483  0.9834
45184SOL     OW44519   3.536  11.590   1.516 -0.5275 -0.2588  0.1865
45184SOL    HW144520   3.509  11.628   1.432 -2.5428  1.0511  1.3356
45184SOL    HW244521   3.466  11.528   1.538  0.9126 -1.9812  0.0653
45185SOL     OW44522   6.189   1.771  10.902 -0.4705  0.3466  0.0600
45185SOL    HW144523   6.162   1.736  10.987 -0.9851  0.7000  0.0525
45185SOL    HW244524   6.173   1.865  10.909 -3.2376  0.0835 -1.3671
45186SOL     OW44525   0.859   6.058   4.705  0.1085  0.7971  0.2073
45186SOL    HW144526   0.790   5.996   4.727  0.2073  0.1898 -1.0915
45186SOL    HW244527   0.816   6.123   4.650  0.5883  0.2900 -0.7981
45187SOL     OW44528   0.048  11.981   4.345  0.1890 -0.5143 -0.0710
45187SOL    HW144529   0.001  11.901   4.323 -1.4148  0.2887  0.2445
45187SOL    HW244530  -0.007  12.024   4.411  0.9366  0.8951 -0.3127
45188SOL     OW44531   5.687   3.158   0.940 -0.1755  0.7163  0.2686
45188SOL    HW144532   5.687   3.254   0.938 -0.1603  0.7024 -0.4441
45188SOL    HW244533   5.755   3.133   0.878 -1.2678  0.2321 -0.7792
45189SOL     OW44534   3.448   0.856   2.907 -0.1596  0.1291  0.2252
45189SOL    HW144535   3.465   0.813   2.823 -0.3190 -0.1275  0.3241
45189SOL    HW244536   3.533   0.895   2.931  0.7303 -2.3175  1.3781
45190SOL     OW44537   9.218   0.250   0.989 -0.5123 -0.2069 -0.2110
45190SOL    HW144538   9.151   0.292   1.042 -0.9254 -0.9969 -0.0929
45190SOL    HW244539   9.227   0.306   0.912  0.4513  1.2273  0.8983
45191SOL     OW44540  10.176   9.726  11.889 -0.2605  0.2612  0.2724
45191SOL    HW144541  10.108   9.775  11.935  1.4306  1.4431  1.6701
45191SOL    HW244542  10.253   9.732  11.947  1.8085  1.2619 -2.3737
45192SOL     OW44543   7.401   1.720   7.678  0.3297 -1.0738 -0.8135
45192SOL    HW144544   7.384   1.786   7.611  0.3327 -1.5293 -1.2624
45192SOL    HW244545   7.402   1.770   7.760 -1.2815 -0.7320 -0.9537
45193SOL     OW44546   6.955   2.122   2.368  0.2465  0.0096 -0.1927
45193SOL    HW144547   6.996   2.055   2.313  0.1353 -0.2561  0.0468
45193SOL    HW244548   7.028   2.161   2.416  0.5622  1.3070 -1.6417
45194SOL     OW44549   1.066   1.154   1.258  0.7212  0.1283  0.4149
45194SOL    HW144550   1.082   1.166   1.165  0.3782  0.3291  0.3805
45194SOL    HW244551   1.045   1.061   1.267  0.1611  0.2309  0.2021
45195SOL     OW44552   8.938  11.858   5.523  0.5730 -0.6208 -0.1734
45195SOL    HW144553   9.013  11.811   5.485  0.7345 -0.0940 -0.5168
45195SOL    HW244554   8.951  11.850   5.618  0.4192 -1.5464 -0.2172
45196SOL     OW44555  10.723   3.374   8.128 -0.5407 -0.1697 -0.0106
45196SOL    HW144556  10.795   3.418   8.173 -1.1391 -1.9623  2.9820
45196SOL    HW244557  10.761   3.341   8.047  1.4294  0.6893  0.5036
45197SOL     OW44558   0.231   1.657   1.276 -0.3479 -0.2290 -0.1677
45197SOL    HW144559   0.271   1.573   1.254 -1.5672 -0.7132 -0.5627
45197SOL    HW244560   0.164   1.670   1.210 -0.5405  0.8039  0.2106
45198SOL     OW44561   5.064   4.120  10.670  0.1537 -0.5090 -0.1263
45198SOL    HW144562   4.998   4.149  10.733 -0.1214  1.5571 -1.2719
45198SOL    HW244563   5.106   4.045  10.712 -0.8910 -0.0187  1.9253
45199SOL     OW44564   8.528   3.706   6.168  0.8098 -0.3593  0.0031
45199SOL    HW144565   8.502   3.764   6.097  1.2022 -0.2424 -0.0497
45199SOL    HW244566   8.609   3.744   6.203  1.5385 -1.3106 -0.5801
45200SOL     OW44567  10.878   8.275   3.668  0.2885 -0.0687 -0.6861
45200SOL    HW144568  10.906   8.218   3.739  2.7187  0.3001 -1.2345
45200SOL    HW244569  10.914   8.361   3.691 -0.5672  0.5128 -1.4225
45201SOL     OW44570   4.506   9.950   2.411 -0.1649  0.8546  0.4276
45201SOL    HW144571   4.428  10.004   2.403  0.7302  2.5921  2.4188
45201SOL    HW244572   4.488   9.890   2.483 -0.1028  0.3875  0.0657
45202SOL     OW44573   5.612   4.725   7.884 -0.0788 -0.3400 -0.4114
45202SOL    HW144574   5.697   4.727   7.929 -1.3738 -1.9534  2.3484
45202SOL    HW244575   5.606   4.811   7.842  2.8989 -0.1886 -0.7836
45203SOL     OW44576   8.054   5.784   0.034  0.3475  0.3378  0.5348
45203SOL    HW144577   8.035   5.730   0.111 -0.1943  0.3500  0.4142
45203SOL    HW244578   8.007   5.741  -0.038  1.5485 -0.1792  0.0155
45204SOL     OW44579   7.338   2.307   5.359 -0.0295 -0.0515  0.5011
45204SOL    HW144580   7.374   2.378   5.412 -3.3663 -1.3373  5.0348
45204SOL    HW244581   7.244   2.320   5.361 -0.5519 -1.3423 -3.8849
45205SOL     OW44582   2.329   8.699   0.597 -0.0512  0.0532 -0.3212
45205SOL    HW144583   2.284   8.634   0.544 -0.1670  0.1729 -0.3716
45205SOL    HW244584   2.261   8.763   0.619  0.5371  1.4273 -2.2250
45206SOL     OW44585   9.883   2.538   3.147 -0.3912  0.0498 -0.4869
45206SOL    HW144586   9.942   2.527   3.221 -0.7176  0.3811 -0.1813
45206SOL    HW244587   9.928   2.494   3.074 -0.5060 -1.1317  0.1260
45207SOL     OW44588   6.079   1.741  11.192 -0.0472  0.7063  0.4348
45207SOL    HW144589   6.158   1.686  11.190 -0.3565  0.2749 -0.3290
45207SOL    HW244590   6.009   1.682  11.219 -0.2920  0.8367  0.0977
45208SOL     OW44591   2.205   8.937   5.803 -0.4251  0.3671 -0.1363
45208SOL    HW144592   2.242   8.935   5.891 -0.3334  0.1118 -0.1809
45208SOL    HW244593   2.112   8.952   5.816 -0.3657  0.6358 -0.0085
45209SOL     OW44594   3.501   1.285  12.191 -0.9634  0.3015  0.1879
45209SOL    HW144595   3.479   1.214  12.131  0.5676 -1.1301  1.2241
45209SOL    HW244596   3.417   1.316  12.224 -1.6701 -1.9938  0.7227
45210SOL     OW44597   5.727   6.893   0.965 -0.2911 -0.4091 -0.5207
45210SOL    HW144598   5.765   6.919   0.882 -2.8926  1.8202 -1.1597
45210SOL    HW244599   5.731   6.972   1.019  0.3315 -1.5006  1.1262
45211SOL     OW44600  10.566  12.517   7.204 -0.3685 -0.0240  0.0723
45211SOL    HW144601  10.535  12.428   7.223  0.4716 -0.2087  0.6486
45211SOL    HW244602  10.661  12.509   7.203 -0.2965  0.7727 -0.4065
45212SOL     OW44603  12.591  11.834  10.976 -0.3336 -0.2909 -0.4452
45212SOL    HW144604  12.620  11.810  10.888 -0.2465 -0.1962 -0.4428
45212SOL    HW244605  12.672  11.847  11.025 -0.3701 -1.3546 -0.0722
45213SOL     OW44606  11.179   8.561   6.253 -0.0693 -0.1107  0.1457
45213SOL    HW144607  11.104   8.570   6.311  0.3010  1.8182  0.4038
45213SOL    HW244608  11.250   8.606   6.299  0.4800  0.6172 -1.3430
45214SOL     OW44609   2.279   3.217   3.588  0.4010 -0.1424  0.1199
45214SOL    HW144610   2.293   3.179   3.501 -0.0675 -1.5684  0.6280
45214SOL    HW244611   2.362   3.203   3.634  0.0868 -1.0402  0.4541
45215SOL     OW44612   8.433   3.145   7.542  0.1289 -0.0011  0.0393
45215SOL    HW144613   8.437   3.153   7.638  1.7709  0.8515 -0.0774
45215SOL    HW244614   8.351   3.097   7.526 -0.2603 -0.0178  1.8519
45216SOL     OW44615   5.047   0.908   1.880  0.0654 -0.5316 -0.5759
45216SOL    HW144616   5.062   0.849   1.954  0.8343  0.0316 -0.2710
45216SOL    HW244617   5.049   0.996   1.918  1.0936 -0.1961 -1.3443
45217SOL     OW44618   3.750   4.737   5.246 -0.3434  0.2612 -0.5592
45217SOL    HW144619   3.807   4.663   5.229 -0.9538 -0.5986  0.9371
45217SOL    HW244620   3.668   4.698   5.275  0.2775  1.4202  3.3543
45218SOL     OW44621  12.200   9.141   5.080  0.3132 -0.0042  0.0150
45218SOL    HW144622  12.257   9.066   5.097 -1.6084 -1.1451  1.8489
45218SOL    HW244623  12.117   9.102   5.052 -0.5074  1.4617  0.3026
45219SOL     OW44624   6.016  11.426  12.525  0.1491 -0.0428 -0.0932
45219SOL    HW144625   5.991  11.474  12.604 -2.3497  0.7497 -1.2451
45219SOL    HW244626   6.106  11.397  12.541 -0.2501  0.0831  3.0080
45220SOL     OW44627   1.509   9.467   2.047 -0.3423 -0.2923 -0.6325
45220SOL    HW144628   1.589   9.443   2.093 -0.4594  1.1861  0.4113
45220SOL    HW244629   1.457   9.515   2.112 -2.0375 -1.1223 -1.3124
45221SOL     OW44630   5.145   4.849   5.478 -0.2917  0.2571  0.2587
45221SOL    HW144631   5.152   4.779   5.544 -0.8824  0.4579  0.5447
45221SOL    HW244632   5.074   4.905   5.510 -0.8885  0.1201 -0.7747
45222SOL     OW44633  10.907   5.878   9.780  0.0042  0.0904 -0.0270
45222SOL    HW144634  10.984   5.913   9.736 -0.6705  1.4262 -0.1786
45222SOL    HW244635  10.928   5.786   9.795  1.0683  0.0999 -1.2967
45223SOL     OW44636   5.632   1.463   1.153 -0.4485  0.2388  0.2074
45223SOL    HW144637   5.728   1.457   1.150 -0.4063 -0.1376  1.5285
45223SOL    HW244638   5.611   1.458   1.247 -1.7229  0.9605 -0.0153
45224SOL     OW44639   7.020  12.555  10.597 -0.7379 -0.5466  0.5474
45224SOL    HW144640   7.030  12.619  10.667 -0.4228  2.0163 -1.6824
45224SOL    HW244641   7.109  12.535  10.569 -0.8790 -0.9830  0.3930
45225SOL     OW44642   9.329   6.465   1.228 -0.1207 -0.3947  0.0043
45225SOL    HW144643   9.379   6.408   1.287 -1.3812  0.6637  2.2121
45225SOL    HW244644   9.238   6.447   1.248 -0.5667  1.0613 -0.5847
45226SOL     OW44645  10.574  10.369   3.772  0.1065 -0.1068 -0.0924
45226SOL    HW144646  10.538  10.297   3.824 -1.0016  1.4506  1.4252
45226SOL    HW244647  10.583  10.441   3.835  2.6209  0.6620 -1.2123
45227SOL     OW44648  12.329   3.648   1.838 -0.6460 -0.0727 -0.1880
45227SOL    HW144649  12.288   3.693   1.912  0.8783  1.7109 -0.3322
45227SOL    HW244650  12.369   3.718   1.787  0.2565 -1.4662 -1.4824
45228SOL     OW44651   8.064  10.085   9.831 -0.3983 -0.0192 -0.2777
45228SOL    HW144652   8.052   9.999   9.871  1.2588 -0.6232 -0.9655
45228SOL    HW244653   8.004  10.143   9.878  0.5439 -0.9448  2.2080
45229SOL     OW44654   8.066   1.605   4.224  0.5672  0.4467 -0.2984
45229SOL    HW144655   8.020   1.521   4.227 -0.5615  1.0661  0.1810
45229SOL    HW244656   8.078   1.629   4.316  1.8867  0.2860 -0.4135
45230SOL     OW44657  11.851   4.539   2.022 -0.0169  0.3306 -0.1410
45230SOL    HW144658  11.912   4.612   2.028 -1.3593  1.5404 -0.7073
45230SOL    HW244659  11.880   4.490   1.945  1.7612 -0.6200  1.0617
45231SOL     OW44660   3.599   4.922   2.101 -0.2043  0.8431  0.0632
45231SOL    HW144661   3.622   4.898   2.191 -1.4076 -1.3431 -0.1438
45231SOL    HW244662   3.575   5.014   2.106  1.0645  1.1196  1.7123
45232SOL     OW44663   0.772   4.228  12.067  0.1764 -0.1886 -0.2327
45232SOL    HW144664   0.786   4.178  11.987  0.4743  0.3730 -0.5370
45232SOL    HW244665   0.679   4.215  12.087 -0.2067  0.6066 -1.3359
45233SOL     OW44666   1.563   1.626   2.105  0.3817  0.0511 -0.2910
45233SOL    HW144667   1.656   1.630   2.128  0.0673 -0.4902  1.2013
45233SOL    HW244668   1.517   1.656   2.184 -0.7916 -2.2055 -0.0397
45234SOL     OW44669  10.306   9.532   3.010 -0.1525 -0.1046 -0.0065
45234SOL    HW144670  10.322   9.595   3.081 -0.7886  0.5879 -0.4577
45234SOL    HW244671  10.263   9.583   2.942  0.1221 -0.8462 -0.7548
45235SOL     OW44672   3.830  10.036   0.275  0.2642 -0.2630 -0.6678
45235SOL    HW144673   3.911  10.000   0.311  0.0180  1.1961  1.5352
45235SOL    HW244674   3.856  10.073   0.190  1.2632 -2.2671 -1.2915
45236SOL     OW44675   0.434   7.209  12.591 -0.1231  0.3932 -0.7485
45236SOL    HW144676   0.391   7.294  12.580 -0.4397  0.3971  0.3934
45236SOL    HW244677   0.433   7.194  12.685  1.8397  0.0988 -0.7386
45237SOL     OW44678   6.263  10.811  12.572 -0.0518  0.1120  0.2322
45237SOL    HW144679   6.353  10.826  12.601 -0.7919  0.0009  2.8255
45237SOL    HW244680   6.228  10.898  12.557 -0.3148  0.3641  2.0443
45238SOL     OW44681   1.389   8.934   1.528 -0.3279 -0.1619 -0.1010
45238SOL    HW144682   1.442   8.923   1.607 -1.6270 -0.9437  0.7132
45238SOL    HW244683   1.312   8.983   1.558 -0.5985 -0.0127 -1.0051
45239SOL     OW44684   6.577   3.944   5.309 -0.8157  0.3715 -0.2262
45239SOL    HW144685   6.544   3.981   5.227 -0.5829 -2.3627 -1.6717
45239SOL    HW244686   6.671   3.933   5.294 -0.8546 -0.6376  0.1759
45240SOL     OW44687   4.779   1.032   5.467 -0.1852  0.4464 -0.1820
45240SOL    HW144688   4.717   0.965   5.495  0.1248 -0.0612 -0.6737
45240SOL    HW244689   4.854   1.021   5.526  0.4624 -0.6140 -1.1343
45241SOL     OW44690  12.480   9.724   8.272  0.2456 -0.3819  0.1641
45241SOL    HW144691  12.424   9.769   8.208  0.8918  0.7894  0.3990
45241SOL    HW244692  12.569   9.744   8.244  0.5384  0.0442  1.3459
45242SOL     OW44693  10.772  12.474  12.515 -0.5579  0.4466  0.5061
45242SOL    HW144694  10.862  12.472  12.483 -0.0751 -1.9990  1.8295
45242SOL    HW244695  10.752  12.567  12.524  2.6594  1.1093  2.3527
45243SOL     OW44696   5.900  11.099  11.951  0.5132 -0.4531  0.3059
45243SOL    HW144697   5.830  11.146  11.906  0.9970  0.4293  0.4609
45243SOL    HW244698   5.928  11.158  12.021  1.9502 -0.4589 -0.2408
45244SOL     OW44699   9.731   7.998   0.577  0.1325  0.0636 -0.3269
45244SOL    HW144700   9.686   8.062   0.633  0.4104 -1.2741  1.5193
45244SOL    HW244701   9.698   7.913   0.607  2.3927 -0.8560 -0.2599
45245SOL     OW44702   0.370  11.929   4.263  0.1919 -0.0856 -0.6009
45245SOL    HW144703   0.328  11.892   4.341  1.3377 -0.5644 -0.1944
45245SOL    HW244704   0.297  11.962   4.210 -0.5414  2.0926  1.5763
45246SOL     OW44705   9.250   8.027   4.444 -0.0743  0.2177 -0.3322
45246SOL    HW144706   9.229   8.038   4.351  0.9737  0.2394 -0.5865
45246SOL    HW244707   9.262   7.933   4.455 -0.1849  0.2170 -0.2247
45247SOL     OW44708   7.635   8.715   9.259  0.3759 -0.5653 -0.1193
45247SOL    HW144709   7.682   8.651   9.313 -0.2867 -0.4926  0.5545
45247SOL    HW244710   7.704   8.758   9.208  1.1192 -0.0448  1.2771
45248SOL     OW44711   1.510  11.721  10.706  0.4615  0.0941 -0.2637
45248SOL    HW144712   1.490  11.813  10.686  0.3602 -0.1657 -1.3983
45248SOL    HW244713   1.599  11.724  10.742  0.4596  0.6370 -0.2921
45249SOL     OW44714  10.778   9.888   2.063  0.0083  0.5992  0.3603
45249SOL    HW144715  10.852   9.934   2.025  1.3121 -1.1902  0.5847
45249SOL    HW244716  10.764   9.812   2.006  0.1800 -0.5965  1.8282
45250SOL     OW44717   9.159   5.681  11.520 -0.2553 -0.0502  0.3275
45250SOL    HW144718   9.164   5.733  11.599 -0.4927 -1.1386  1.0864
45250SOL    HW244719   9.093   5.725  11.466  0.8564  1.4500  0.1193
45251SOL     OW44720   7.735   2.303  10.572  0.4833 -0.7470  0.3938
45251SOL    HW144721   7.748   2.371  10.506 -2.1732 -0.8114 -0.3102
45251SOL    HW244722   7.698   2.229  10.524  0.0328 -1.4024  1.6931
45252SOL     OW44723   3.116   2.205   8.059 -1.0723 -0.6534  0.8005
45252SOL    HW144724   3.207   2.225   8.038 -0.8039 -1.2149  1.3669
45252SOL    HW244725   3.067   2.231   7.982 -0.1768 -2.2975 -0.3844
45253SOL     OW44726   3.277   9.768   7.471  0.0519  0.2379 -0.0335
45253SOL    HW144727   3.289   9.694   7.412  0.0163  0.5886 -0.4880
45253SOL    HW244728   3.364   9.806   7.480  0.1393 -0.0753  0.4953
45254SOL     OW44729   1.203   6.977   0.439  0.5702 -0.5903 -0.6927
45254SOL    HW144730   1.135   6.984   0.372  0.5383 -1.2029 -0.7343
45254SOL    HW244731   1.273   7.034   0.409  0.6527 -1.0333 -1.3668
45255SOL     OW44732   3.677   1.768   5.529  0.1703 -0.3899 -0.2165
45255SOL    HW144733   3.739   1.771   5.602 -0.6938  0.0316  0.5218
45255SOL    HW244734   3.601   1.816   5.560  0.2000  0.7920 -1.8037
45256SOL     OW44735   3.255   4.006  11.019 -0.2050 -0.2617  0.4051
45256SOL    HW144736   3.268   3.976  10.929 -0.1923  0.9967 -0.0207
45256SOL    HW244737   3.259   4.101  11.014 -2.8902 -0.0188  1.2840
45257SOL     OW44738  10.295  10.832   1.327  0.2360  0.1648  0.3771
45257SOL    HW144739  10.347  10.769   1.377 -0.2826  0.2949  1.0887
45257SOL    HW244740  10.210  10.789   1.314  0.8989 -0.5986 -1.9188
45258SOL     OW44741  11.215   6.695   4.607 -0.2120  0.6912  0.7817
45258SOL    HW144742  11.141   6.658   4.655 -1.3296  0.7089 -0.8356
45258SOL    HW244743  11.198   6.789   4.605 -0.4317  0.6463 -0.0011
45259SOL     OW44744   7.916   9.023   1.781  0.3860 -0.9869 -0.2706
45259SOL    HW144745   7.870   9.107   1.773  0.0629 -1.1668 -0.2997
45259SOL    HW244746   7.846   8.957   1.783  0.6477 -1.2777 -0.5334
45260SOL     OW44747   5.378   7.418   4.832  0.1591 -0.1708  0.3362
45260SOL    HW144748   5.411   7.367   4.758  0.7598  0.0068  0.4702
45260SOL    HW244749   5.440   7.491   4.839  0.6120 -0.6419  1.5468
45261SOL     OW44750  10.008   8.559   4.204  0.5738  0.0159  0.5191
45261SOL    HW144751   9.961   8.480   4.180  1.0684  0.1147 -0.9353
45261SOL    HW244752   9.993   8.619   4.130  0.9184  0.9554  1.1874
45262SOL     OW44753   7.186   1.020   9.103 -0.2974 -0.3014 -0.0443
45262SOL    HW144754   7.157   1.015   9.012 -2.2949  1.2430  0.4538
45262SOL    HW244755   7.275   1.054   9.098 -1.0515  1.6310 -1.3848
45263SOL     OW44756   6.832   4.207   3.224 -0.3015  0.3826  0.1718
45263SOL    HW144757   6.755   4.157   3.196 -0.8459  0.7233  1.0067
45263SOL    HW244758   6.906   4.149   3.208 -0.8201 -0.2906  0.1626
45264SOL     OW44759   0.948   4.543   5.345  0.0356 -0.4763 -0.8238
45264SOL    HW144760   0.969   4.637   5.343  0.5062 -0.5838 -1.3028
45264SOL    HW244761   0.871   4.537   5.401  0.5792  0.0874  0.0097
45265SOL     OW44762   5.107   0.567   1.216 -0.3281  0.3550  0.6282
45265SOL    HW144763   5.193   0.543   1.180  0.0810  0.3208  1.5816
45265SOL    HW244764   5.050   0.575   1.140  0.7767  1.4597 -0.1214
45266SOL     OW44765   0.948  10.546   4.644  0.1348 -0.0367 -0.1394
45266SOL    HW144766   0.886  10.497   4.697  0.7093  0.5779  1.1290
45266SOL    HW244767   0.893  10.589   4.578 -0.7345  0.1216  0.6665
45267SOL     OW44768  11.188   2.217   5.265  0.6924 -0.3706  0.1812
45267SOL    HW144769  11.114   2.210   5.325  0.4144 -1.3435 -0.2562
45267SOL    HW244770  11.183   2.138   5.211  1.0633  0.3658 -0.9707
45268SOL     OW44771  10.407   2.216  11.988  0.0267  0.3571  0.4267
45268SOL    HW144772  10.498   2.210  12.017  0.7531  1.0497 -1.4925
45268SOL    HW244773  10.385   2.309  11.998 -0.3053  0.2773  0.4383
45269SOL     OW44774   9.743   4.338   5.257 -0.2060  0.1680  0.0980
45269SOL    HW144775   9.795   4.262   5.231  0.0360 -0.4315  2.1952
45269SOL    HW244776   9.807   4.409   5.265 -0.0537 -0.0106  0.4815
45270SOL     OW44777  11.609   4.146   8.935  0.0160 -0.0015 -0.2801
45270SOL    HW144778  11.652   4.227   8.962 -0.1726  0.1956 -0.5581
45270SOL    HW244779  11.520   4.154   8.970  0.4251 -0.7647  0.9789
45271SOL     OW44780   9.393   1.003  10.091  0.5940 -0.0918 -0.3128
45271SOL    HW144781   9.442   1.045  10.021 -0.0657  2.0306  0.4033
45271SOL    HW244782   9.458   0.955  10.142  1.6127  1.0195 -0.5335
45272SOL     OW44783  11.476   2.061   8.109  0.0550  0.4059 -0.4003
45272SOL    HW144784  11.499   1.972   8.081 -3.3298 -0.4274 -0.9930
45272SOL    HW244785  11.503   2.064   8.201  0.8905 -0.9585 -0.5636
45273SOL     OW44786   5.058   0.605   3.311 -0.7639  0.6335  0.0163
45273SOL    HW144787   5.049   0.616   3.406 -1.2918 -0.7709  0.1558
45273SOL    HW244788   5.134   0.547   3.301 -0.8365  0.6098 -0.4069
45274SOL     OW44789  10.511   3.684   9.593  0.5881  0.3516  0.1824
45274SOL    HW144790  10.442   3.624   9.622  0.9644 -0.5403 -0.7170
45274SOL    HW244791  10.485   3.709   9.504  0.7706  1.0194  0.3118
45275SOL     OW44792  10.605   6.610   3.883  0.2747  0.0847 -0.2172
45275SOL    HW144793  10.665   6.592   3.955  0.0370 -0.9186 -0.2520
45275SOL    HW244794  10.529   6.650   3.926  0.8623  1.1656 -0.1504
45276SOL     OW44795   8.009  10.028   4.847 -0.1495  0.3275  0.1309
45276SOL    HW144796   7.933  10.000   4.797  0.6626 -1.7909 -0.0240
45276SOL    HW244797   8.059  10.084   4.787 -1.2068  1.1893  0.0204
45277SOL     OW44798   0.627  11.152   9.869 -0.1127 -0.2667  0.8259
45277SOL    HW144799   0.679  11.206   9.810  1.1631 -0.0114  2.1252
45277SOL    HW244800   0.680  11.146   9.949 -1.7461 -0.6336  1.9314
45278SOL     OW44801   2.972  10.508   4.351  0.0887  0.0201 -0.2350
45278SOL    HW144802   2.879  10.532   4.351  0.4799  1.6778  0.0400
45278SOL    HW244803   3.013  10.573   4.407  1.6389  0.3346 -1.6481
45279SOL     OW44804   3.169   5.177   0.564 -0.1139  0.4562 -0.4209
45279SOL    HW144805   3.135   5.127   0.638  1.7222  1.0192  0.8586
45279SOL    HW244806   3.238   5.121   0.528 -1.5994 -0.2381 -2.3708
45280SOL     OW44807   3.438   4.538  10.425  0.6528  0.2731  0.2403
45280SOL    HW144808   3.375   4.466  10.427  0.5551  0.3094 -1.1278
45280SOL    HW244809   3.425   4.583  10.509 -2.3498  1.3011 -0.6484
45281SOL     OW44810   5.876   4.889   1.422  0.0881 -0.0052  0.1656
45281SOL    HW144811   5.887   4.877   1.328  2.1703  2.1114  0.0440
45281SOL    HW244812   5.881   4.801   1.459  0.0390 -0.7949 -1.6171
45282SOL     OW44813   2.260  10.827  10.216 -0.4842 -0.1902 -0.4176
45282SOL    HW144814   2.245  10.736  10.242  0.3233  0.0175  0.8072
45282SOL    HW244815   2.351  10.844  10.238  0.3387  0.0091 -3.4784
45283SOL     OW44816  11.906   3.718   8.158  0.4884  0.2642 -0.2368
45283SOL    HW144817  11.874   3.638   8.200 -0.3066 -0.3900 -1.9894
45283SOL    HW244818  11.981   3.689   8.105  0.7091  0.8398 -0.2496
45284SOL     OW44819   9.085  11.418   9.430 -0.2053  0.0572 -0.6079
45284SOL    HW144820   9.117  11.508   9.437 -0.5942  0.1404  0.1752
45284SOL    HW244821   8.992  11.423   9.451 -0.4226 -0.4049 -1.4208
45285SOL     OW44822   9.491   6.275   9.009 -0.0758 -0.2139  0.5366
45285SOL    HW144823   9.567   6.267   8.950  0.7371  0.1538  1.5096
45285SOL    HW244824   9.516   6.224   9.086 -0.5424  0.4557  1.1410
45286SOL     OW44825  12.348   1.890   7.253  0.0318 -0.0519  0.4600
45286SOL    HW144826  12.336   1.805   7.296 -3.6367  0.2479  0.3540
45286SOL    HW244827  12.332   1.872   7.160  1.6711  0.3826  0.0689
45287SOL     OW44828   3.041   0.761   0.493 -0.0487 -0.0111  0.5052
45287SOL    HW144829   3.040   0.674   0.452  0.4457 -0.1182  0.7120
45287SOL    HW244830   3.007   0.746   0.581 -0.3810  0.0867  0.3967
45288SOL     OW44831   1.297   9.600  11.623 -0.6363  0.1222  0.0230
45288SOL    HW144832   1.280   9.549  11.702 -0.2287 -0.3172 -0.1702
45288SOL    HW244833   1.320   9.535  11.557  0.9219  0.6215  0.0460
45289SOL     OW44834  10.120   2.523   2.644 -0.1292 -0.1295  0.3452
45289SOL    HW144835  10.114   2.570   2.726 -1.1580 -0.0390  0.2247
45289SOL    HW244836  10.185   2.572   2.593  0.6508 -0.2930  1.1552
45290SOL     OW44837   1.059   7.932   2.754 -0.5842 -0.1077 -0.5443
45290SOL    HW144838   0.998   7.996   2.792  0.4366  0.8327 -0.4481
45290SOL    HW244839   1.072   7.868   2.823 -1.1175 -0.0745 -0.4062
45291SOL     OW44840   1.006   7.605   0.862 -0.3030 -0.2869 -0.7540
45291SOL    HW144841   1.099   7.621   0.850 -0.1530 -0.8661 -0.3867
45291SOL    HW244842   0.989   7.629   0.953 -0.5274 -0.1383 -0.8325
45292SOL     OW44843   0.158   5.806   2.964 -0.1158  0.2532 -0.0846
45292SOL    HW144844   0.152   5.798   3.060 -0.9421  0.6902 -0.0900
45292SOL    HW244845   0.150   5.900   2.948 -0.2163  0.1593 -0.5933
45293SOL     OW44846   7.039   6.190   2.746  0.2423 -0.2691 -0.0668
45293SOL    HW144847   7.076   6.254   2.684 -1.4175 -0.2683 -1.1322
45293SOL    HW244848   7.003   6.121   2.690 -1.7715 -0.0248  0.8314
45294SOL     OW44849   5.373   4.356   2.147  0.2568  0.3251  0.4580
45294SOL    HW144850   5.454   4.313   2.173  1.1046  2.6066  1.8657
45294SOL    HW244851   5.321   4.361   2.228 -0.6450  0.2513 -0.0975
45295SOL     OW44852  11.008   2.132   4.138  0.3316  0.2489  0.0516
45295SOL    HW144853  11.049   2.052   4.174  0.8678 -0.2604 -1.5933
45295SOL    HW244854  10.925   2.139   4.184  1.2724  0.0605  1.8994
45296SOL     OW44855  12.053   6.459   5.521  0.0784  0.1664 -0.1217
45296SOL    HW144856  12.144   6.470   5.494  0.0967 -0.1774 -0.2094
45296SOL    HW244857  12.012   6.414   5.447 -0.0325 -0.1704  0.1442
45297SOL     OW44858   6.136   5.503   4.320 -0.1858  0.1022  0.1223
45297SOL    HW144859   6.177   5.433   4.268 -0.3714  0.8528 -1.0692
45297SOL    HW244860   6.200   5.522   4.389  0.4185 -0.3815 -0.2948
45298SOL     OW44861  11.563  12.493   4.357  0.2720  0.3197  0.1686
45298SOL    HW144862  11.508  12.420   4.329  1.1581 -0.5145  0.5518
45298SOL    HW244863  11.637  12.492   4.297  0.6441  0.4532  0.6229
45299SOL     OW44864   2.093  11.079   6.525  0.8052 -0.1084  0.1056
45299SOL    HW144865   2.064  11.096   6.615  1.3063 -1.5770  0.5673
45299SOL    HW244866   2.171  11.134   6.514  1.0528 -0.3253  0.7563
45300SOL     OW44867   3.283   4.196   9.517  0.0620 -0.2274 -0.3270
45300SOL    HW144868   3.310   4.280   9.554  0.3705 -0.6938  0.5237
45300SOL    HW244869   3.322   4.195   9.429 -0.2362  0.6601 -0.4831
45301SOL     OW44870   5.642  12.541   3.160 -0.0432  0.1775 -0.4745
45301SOL    HW144871   5.666  12.464   3.109 -0.7636 -0.1428 -0.3415
45301SOL    HW244872   5.665  12.519   3.250  0.6873  0.5173 -0.5701
45302SOL     OW44873  11.561   2.933   5.522 -0.2639 -0.4955 -0.0402
45302SOL    HW144874  11.603   2.849   5.541 -1.1368 -0.8344  0.4514
45302SOL    HW244875  11.574   2.945   5.428 -0.8200 -1.5732 -0.2735
45303SOL     OW44876   5.933   5.088   9.279 -0.3906 -0.2034  0.0790
45303SOL    HW144877   5.969   5.082   9.367 -0.2356  1.3592  0.1405
45303SOL    HW244878   5.954   5.004   9.238  1.6019 -0.0686  0.7514
45304SOL     OW44879   3.887  12.255   9.270 -0.1159 -0.2372  0.5294
45304SOL    HW144880   3.858  12.172   9.231  1.5270 -0.1646 -0.9999
45304SOL    HW244881   3.952  12.230   9.335 -1.2634 -0.2293  1.7244
45305SOL     OW44882   8.587   4.039   3.896 -0.0886  0.0606  0.2500
45305SOL    HW144883   8.674   4.007   3.921  0.3924  0.3974 -0.9470
45305SOL    HW244884   8.527   3.969   3.921  0.3164  0.4337  2.4862
45306SOL     OW44885   6.601  12.116   4.595 -0.2727 -0.1936  0.3131
45306SOL    HW144886   6.579  12.079   4.509 -0.5189  1.1604 -0.2303
45306SOL    HW244887   6.694  12.137   4.588 -0.4231  0.4614  0.1449
45307SOL     OW44888   2.598  11.130   2.706  0.3063  0.1668  0.4059
45307SOL    HW144889   2.561  11.066   2.646 -0.2763 -0.0378  0.9709
45307SOL    HW244890   2.692  11.126   2.691  0.8947 -4.1062  3.5222
45308SOL     OW44891   2.270   4.150   0.425  0.0685 -0.1585  0.7181
45308SOL    HW144892   2.213   4.192   0.361  1.1873  0.4914  0.1097
45308SOL    HW244893   2.307   4.075   0.379  0.0040 -0.3490  0.9771
45309SOL     OW44894   7.254   8.060  12.101 -0.2933  0.4690 -0.2934
45309SOL    HW144895   7.186   8.027  12.160 -0.3885  0.7348 -0.2536
45309SOL    HW244896   7.239   8.014  12.018  1.7013 -2.2338  0.7226
45310SOL     OW44897   7.722   2.085   5.655  0.0298  0.1333  0.3993
45310SOL    HW144898   7.671   2.098   5.574 -1.5220  0.5504  1.3901
45310SOL    HW244899   7.689   2.152   5.715 -1.1661 -2.0987  2.4257
45311SOL     OW44900   9.874   4.171   1.573 -0.1110 -0.1781  0.0904
45311SOL    HW144901   9.789   4.188   1.533 -0.5719  0.2049  1.1977
45311SOL    HW244902   9.926   4.249   1.552 -0.0973 -0.3142 -0.3940
45312SOL     OW44903   3.085   2.220  11.795  0.1813  0.1449 -0.6206
45312SOL    HW144904   3.159   2.267  11.834  0.1867 -1.1302  0.9896
45312SOL    HW244905   3.013   2.284  11.795  0.6535  0.6834 -0.0965
45313SOL     OW44906   4.556  10.909   9.119 -0.3086  0.0451  0.5353
45313SOL    HW144907   4.467  10.893   9.150 -0.6901 -0.5397 -0.7793
45313SOL    HW244908   4.572  11.001   9.137 -1.4401  0.3197  0.1932
45314SOL     OW44909  11.085   3.744  11.068 -0.0850 -0.3214 -0.0644
45314SOL    HW144910  11.057   3.669  11.120 -4.0602  1.7728  1.2142
45314SOL    HW244911  11.175   3.760  11.095  0.3049 -3.4619  0.9121
45315SOL     OW44912   3.153   4.761   4.312  0.4030  0.0061 -0.1538
45315SOL    HW144913   3.165   4.666   4.309 -0.3636 -0.2024  1.7909
45315SOL    HW244914   3.111   4.782   4.229  1.7529 -1.1269 -1.2000
45316SOL     OW44915   2.838  10.868   9.084  0.1899  0.4795  0.1832
45316SOL    HW144916   2.820  10.950   9.038  2.3501  0.7193 -0.3549
45316SOL    HW244917   2.805  10.800   9.026  1.4927  0.8476 -1.0432
45317SOL     OW44918   4.259   4.717   2.580 -0.4745  0.0908 -0.3391
45317SOL    HW144919   4.265   4.629   2.544 -1.3321  0.7708 -2.2658
45317SOL    HW244920   4.200   4.763   2.521 -0.7061  1.7410  1.0970
45318SOL     OW44921   4.138   2.309   3.588  0.1956  0.8605 -0.2589
45318SOL    HW144922   4.155   2.296   3.495  1.2151  1.4893 -0.1781
45318SOL    HW244923   4.062   2.254   3.607  0.7660 -0.2914 -1.1818
45319SOL     OW44924  10.093  10.376   1.423 -0.1218 -0.1633 -0.2572
45319SOL    HW144925  10.178  10.371   1.465 -1.3632  0.6030  2.6202
45319SOL    HW244926  10.038  10.314   1.471 -1.1437 -0.9301 -2.2917
45320SOL     OW44927   6.498   1.107   1.581 -0.5496  0.2182  0.5422
45320SOL    HW144928   6.433   1.101   1.651 -1.1677  0.7607  0.0227
45320SOL    HW244929   6.452   1.148   1.508  0.4565  0.8952  0.2598
45321SOL     OW44930   3.922   2.782   4.145 -0.3657  0.0457 -1.0262
45321SOL    HW144931   3.873   2.726   4.085 -2.7194  0.6132  0.2896
45321SOL    HW244932   3.903   2.871   4.115 -0.5160  0.2870 -0.2318
45322SOL     OW44933  12.368   8.304  10.856  0.1764 -0.0085  0.3819
45322SOL    HW144934  12.462   8.289  10.845  0.2319  0.2411  0.5284
45322SOL    HW244935  12.360   8.350  10.939  0.1669  2.4495 -0.9006
45323SOL     OW44936   5.175   9.090   3.523  0.6450 -0.0736  0.6296
45323SOL    HW144937   5.201   9.133   3.604  0.2626 -1.7450  1.6821
45323SOL    HW244938   5.089   9.052   3.541  0.8089 -0.9837 -0.3390
45324SOL     OW44939   1.438  12.287  10.494 -0.1572 -0.0767 -0.0545
45324SOL    HW144940   1.345  12.263  10.491 -0.3259  0.0110  2.5118
45324SOL    HW244941   1.441  12.376  10.457 -1.9074  1.7756  3.6730
45325SOL     OW44942   6.030   2.105  12.361 -0.3904 -0.6924  0.3305
45325SOL    HW144943   6.093   2.174  12.383 -1.7066  0.0666  1.9321
45325SOL    HW244944   5.959   2.151  12.317 -0.7285 -1.2392  0.2999
45326SOL     OW44945   9.351   2.900   9.115  0.3405 -0.0915 -0.4106
45326SOL    HW144946   9.430   2.948   9.142  1.3677 -2.3278  0.8180
45326SOL    HW244947   9.345   2.827   9.176 -0.5410 -2.1845 -2.8322
45327SOL     OW44948   2.652   4.819   5.988 -0.4900 -0.0420 -0.5948
45327SOL    HW144949   2.652   4.913   6.007  1.0953 -0.3924  1.4267
45327SOL    HW244950   2.570   4.787   6.025 -0.8568  0.4635 -0.9531
45328SOL     OW44951   1.979   0.910   3.194  0.0675 -0.0147 -0.4703
45328SOL    HW144952   2.069   0.920   3.163 -0.0040  1.0095 -0.3675
45328SOL    HW244953   1.934   0.990   3.165 -0.5471 -0.0301  0.3874
45329SOL     OW44954   0.971  10.973   7.825  0.3093  0.4529  0.2683
45329SOL    HW144955   0.911  11.035   7.866 -1.4143 -1.9673  1.6813
45329SOL    HW244956   1.048  10.973   7.882  0.3934  1.3289  0.1739
45330SOL     OW44957   0.126   5.128   4.192 -0.5216 -0.2133  0.0686
45330SOL    HW144958   0.036   5.096   4.185 -0.1917 -1.2772  0.4870
45330SOL    HW244959   0.136   5.152   4.284 -0.8506  1.4272 -0.2922
45331SOL     OW44960   3.324  11.716  12.532 -0.2349 -0.0634  0.0555
45331SOL    HW144961   3.390  11.762  12.482 -1.0254  1.3085  0.2370
45331SOL    HW244962   3.331  11.625  12.503  0.7780  0.3134 -0.9366
45332SOL     OW44963   7.496   3.892   2.366 -0.0967 -0.7170  1.0794
45332SOL    HW144964   7.589   3.874   2.352 -0.1786 -0.2671 -0.2571
45332SOL    HW244965   7.491   3.987   2.375 -0.5852 -0.5206 -0.7087
45333SOL     OW44966   6.374   3.980  12.060 -0.9691  0.3274 -0.1500
45333SOL    HW144967   6.363   3.885  12.056 -1.0536  0.3705 -1.3930
45333SOL    HW244968   6.286   4.015  12.045 -0.8068  0.5983 -0.4976
45334SOL     OW44969   5.408   2.273   4.097  0.1421 -0.4502  0.0607
45334SOL    HW144970   5.456   2.194   4.121 -0.2175 -0.4372  0.8202
45334SOL    HW244971   5.358   2.297   4.175  0.5069  0.7199 -0.0414
45335SOL     OW44972   8.365  12.292  12.456 -0.3804  0.2984  0.3652
45335SOL    HW144973   8.312  12.351  12.402 -0.7879 -0.4156 -0.0243
45335SOL    HW244974   8.432  12.349  12.494 -0.7446  1.0080 -0.0238
45336SOL     OW44975   4.811   1.759   5.458 -0.1172  0.3356 -1.0723
45336SOL    HW144976   4.854   1.732   5.376 -0.5135 -1.2167 -0.7983
45336SOL    HW244977   4.746   1.690   5.475  0.6676  0.0379  1.0937
45337SOL     OW44978   9.027   3.331   0.620 -0.2521 -0.4845 -0.2220
45337SOL    HW144979   9.016   3.392   0.693 -1.8141 -1.1025  0.0891
45337SOL    HW244980   8.958   3.354   0.559 -2.6088 -3.4763  1.0423
45338SOL     OW44981   6.943   7.409   8.621  0.7364 -0.3213 -0.2476
45338SOL    HW144982   6.854   7.381   8.643  0.8139 -0.8866 -0.6312
45338SOL    HW244983   6.947   7.404   8.525  1.0965 -0.0404 -0.2496
45339SOL     OW44984   6.980  10.888  11.933 -0.4902 -0.4068  0.4826
45339SOL    HW144985   6.984  10.827  12.007  0.6006 -1.6966 -0.5583
45339SOL    HW244986   6.888  10.887  11.906 -0.9589  0.3154  1.9726
45340SOL     OW44987  10.068   1.460  11.782 -0.0103  0.1218  0.0168
45340SOL    HW144988   9.979   1.428  11.773  0.4164 -0.4222 -3.7583
45340SOL    HW244989  10.069   1.542  11.733  1.0739  1.4310  2.0670
45341SOL     OW44990   3.530   0.806   2.612 -0.4435  0.4119 -0.2597
45341SOL    HW144991   3.546   0.900   2.605 -0.2029  0.2731 -1.8993
45341SOL    HW244992   3.608   0.765   2.574  0.1178 -0.5238  1.7120
45342SOL     OW44993   1.350   8.465  12.003 -0.2023 -0.5153 -0.0337
45342SOL    HW144994   1.337   8.547  11.957 -2.2783 -0.3844  0.6691
45342SOL    HW244995   1.401   8.411  11.943  0.7934  1.0862 -0.6941
45343SOL     OW44996  11.065   4.604   9.861  0.5285 -0.0745 -0.4420
45343SOL    HW144997  11.045   4.653   9.940 -1.2841 -1.1171 -0.1799
45343SOL    HW244998  11.127   4.537   9.889  2.3609  1.4748 -0.6292
45344SOL     OW44999   4.866   5.446   8.942  0.0826  0.1715 -0.3023
45344SOL    HW145000   4.828   5.502   8.874  1.5785 -1.0952 -2.2896
45344SOL    HW245001   4.899   5.507   9.007 -1.0182  1.4604 -0.8929
45345SOL     OW45002  12.395   2.968   2.724  0.6643 -0.1667  0.1139
45345SOL    HW145003  12.348   2.901   2.675 -0.8985 -0.5368  1.9827
45345SOL    HW245004  12.420   3.033   2.658 -3.2022  0.4646 -0.9973
45346SOL     OW45005   0.972   7.226   9.522  0.0413  0.0208  0.9631
45346SOL    HW145006   1.032   7.216   9.448  0.2677  3.8114  0.4381
45346SOL    HW245007   0.909   7.155   9.511  0.1102  0.3320 -2.8799
45347SOL     OW45008   1.483   7.654   7.517  0.6073 -0.3159  0.5082
45347SOL    HW145009   1.400   7.607   7.521  0.6986 -0.4697  0.5899
45347SOL    HW245010   1.459   7.744   7.494  0.4491 -0.4443  0.1677
45348SOL     OW45011  10.731  11.326  11.904 -0.0778 -0.4713 -0.2013
45348SOL    HW145012  10.696  11.346  11.991 -0.3581 -0.5072 -0.3032
45348SOL    HW245013  10.655  11.296  11.854 -0.1671  0.7267 -0.8267
45349SOL     OW45014   1.436   4.842   3.829 -0.0498  0.0984 -0.5680
45349SOL    HW145015   1.379   4.789   3.886  0.5139 -1.1202 -1.0932
45349SOL    HW245016   1.442   4.926   3.873 -0.9280 -0.2891  0.3444
45350SOL     OW45017  12.350   0.035   8.667  0.5309  0.0113  0.2022
45350SOL    HW145018  12.261  -0.001   8.669  0.9751 -1.1342  2.0148
45350SOL    HW245019  12.345   0.112   8.723  0.7584 -0.3048  0.6645
45351SOL     OW45020   1.872   2.913   9.141  0.0113  0.0740 -0.2440
45351SOL    HW145021   1.790   2.961   9.137 -0.9541 -1.5131 -0.0176
45351SOL    HW245022   1.847   2.821   9.134  1.7520 -0.4532  0.0134
45352SOL     OW45023  10.456   9.925   2.766  0.1505  0.5419 -0.4986
45352SOL    HW145024  10.445   9.873   2.687 -2.1090 -1.7212  1.1266
45352SOL    HW245025  10.453   9.861   2.837  3.4859  2.2975  1.4662
45353SOL     OW45026   0.562   2.704   6.600 -0.4680 -0.2480  0.4361
45353SOL    HW145027   0.643   2.755   6.608 -0.4478 -0.2763  0.4101
45353SOL    HW245028   0.547   2.698   6.506 -0.4309 -0.3533  0.4370
45354SOL     OW45029   6.589  11.156   5.729  0.6086 -0.2191  0.2071
45354SOL    HW145030   6.673  11.169   5.775 -0.3991  0.4146  1.9732
45354SOL    HW245031   6.586  11.226   5.664  0.8671  0.6161  1.0679
45355SOL     OW45032   7.851   4.393   3.654 -0.5331  0.3036  0.2815
45355SOL    HW145033   7.828   4.382   3.746 -1.2253  0.3147  0.1106
45355SOL    HW245034   7.843   4.487   3.638  1.3694  0.5759  0.6700
45356SOL     OW45035   6.670   0.850  10.023  0.1687  0.2540  0.0129
45356SOL    HW145036   6.639   0.791  10.090  2.3862 -0.1980  0.7414
45356SOL    HW245037   6.651   0.806   9.940 -3.7955  1.4081  0.1192
45357SOL     OW45038   5.070   9.649  10.369 -0.2035 -0.4219  0.3074
45357SOL    HW145039   5.138   9.583  10.383 -1.1584 -1.0891  1.9676
45357SOL    HW245040   5.049   9.681  10.456 -0.8223  1.0305 -0.3473
45358SOL     OW45041   6.037  10.700   8.079 -0.3445  0.3591 -0.1399
45358SOL    HW145042   5.967  10.701   8.013 -1.1186 -0.3237  0.6450
45358SOL    HW245043   6.114  10.671   8.032 -0.7080  0.6060 -0.9106
45359SOL     OW45044   6.809   8.194   3.365  0.3840  0.1483  0.5251
45359SOL    HW145045   6.718   8.221   3.373  0.7776  1.2577  1.6394
45359SOL    HW245046   6.810   8.103   3.392 -0.5462 -0.2043 -0.5503
45360SOL     OW45047   9.517   7.484  10.596 -0.1305  0.2512  0.5064
45360SOL    HW145048   9.559   7.467  10.680  2.6675  0.2423 -0.7964
45360SOL    HW245049   9.465   7.563  10.610  1.9129  1.4578  1.7663
45361SOL     OW45050  11.667   3.466   2.805 -0.2277  0.4350  0.2010
45361SOL    HW145051  11.578   3.462   2.771 -0.0592 -1.4777 -0.1315
45361SOL    HW245052  11.717   3.409   2.747  1.1036  1.0217  0.7295
45362SOL     OW45053   5.405   4.017   8.322  0.3844 -0.1919 -0.1684
45362SOL    HW145054   5.347   4.079   8.277 -0.5452 -0.8038  0.1587
45362SOL    HW245055   5.456   4.071   8.382 -0.1989  0.2986 -0.1075
45363SOL     OW45056  11.812   9.396  12.383 -0.2234  0.0549 -0.1166
45363SOL    HW145057  11.786   9.468  12.326  1.0645  1.3628  0.8669
45363SOL    HW245058  11.730   9.366  12.423 -0.8356  0.6367 -0.9166
45364SOL     OW45059   9.467   7.210   1.849  0.8347  0.1619  0.3129
45364SOL    HW145060   9.376   7.234   1.830  0.6194  0.5455  1.7406
45364SOL    HW245061   9.473   7.118   1.825 -0.0366  0.0276  0.5750
45365SOL     OW45062   7.876   1.462   8.744 -0.0133  0.3937 -0.2070
45365SOL    HW145063   7.930   1.450   8.822 -0.3358  0.1047 -0.0251
45365SOL    HW245064   7.900   1.388   8.687 -1.9645 -1.1678  0.8932
45366SOL     OW45065  10.240   7.114   7.932  0.0738 -0.1448  0.0462
45366SOL    HW145066  10.265   7.200   7.966  1.1712 -0.8647  1.1345
45366SOL    HW245067  10.169   7.133   7.870  0.4562  1.5562  0.0715
45367SOL     OW45068   2.860   2.847   9.196 -0.0883 -0.4501 -0.0262
45367SOL    HW145069   2.789   2.902   9.161 -0.0868 -1.2180 -1.3331
45367SOL    HW245070   2.892   2.799   9.119  1.3915 -0.6322  0.6779
45368SOL     OW45071   6.138   4.652   1.354 -0.1986  0.3422  0.4801
45368SOL    HW145072   6.124   4.661   1.260  0.0069  2.1893  0.5855
45368SOL    HW245073   6.233   4.641   1.363 -0.3979 -2.0219  0.3885
45369SOL     OW45074  12.529   1.068   8.014 -0.0277  0.0669  0.1272
45369SOL    HW145075  12.441   1.030   8.014 -0.7038  1.4736 -1.2746
45369SOL    HW245076  12.584   1.002   8.056 -1.9070 -0.4310  1.9854
45370SOL     OW45077   7.912  10.779   4.742 -0.0322 -0.0770  0.5696
45370SOL    HW145078   7.891  10.687   4.724  0.2631 -0.5633  2.4472
45370SOL    HW245079   7.872  10.797   4.827  1.0359  1.1288  0.8623
45371SOL     OW45080   9.669   3.616   0.523  0.3710 -0.4624  0.0931
45371SOL    HW145081   9.736   3.592   0.587  0.5175  1.3142  0.6643
45371SOL    HW245082   9.589   3.575   0.556  0.6092 -0.2251  1.0186
45372SOL     OW45083  11.846   4.673   6.979 -0.5997  0.5566  0.0995
45372SOL    HW145084  11.820   4.765   6.982 -1.3758  0.3301  0.6025
45372SOL    HW245085  11.817   4.642   6.893 -1.6100  0.4235  0.4812
45373SOL     OW45086  10.669   0.657   7.969 -0.6094 -0.2404 -0.2492
45373SOL    HW145087  10.705   0.744   7.982  0.1196 -0.6518  0.6086
45373SOL    HW245088  10.736   0.598   8.005 -1.3038 -1.1202 -0.3697
45374SOL     OW45089   1.299   1.348   7.459 -0.3496 -0.0024  0.3311
45374SOL    HW145090   1.264   1.335   7.371  1.0230 -1.8082 -0.0119
45374SOL    HW245091   1.393   1.336   7.449 -0.0941  0.4778  1.9459
45375SOL     OW45092   1.521   0.299   0.670 -0.2338  0.3111  0.1420
45375SOL    HW145093   1.586   0.239   0.705 -0.5641 -0.6783 -0.8795
45375SOL    HW245094   1.453   0.303   0.738 -0.3752 -0.7487  0.0768
45376SOL     OW45095  10.450   5.418   3.630  0.1430  0.1139 -0.5840
45376SOL    HW145096  10.468   5.490   3.691 -2.3383 -0.5707  1.1189
45376SOL    HW245097  10.440   5.461   3.545  0.8802  1.4806 -0.0192
45377SOL     OW45098   3.268  10.294   1.998 -0.1178  0.3556 -0.6363
45377SOL    HW145099   3.362  10.299   1.980  0.0871 -2.7263 -0.8488
45377SOL    HW245100   3.229  10.260   1.918 -1.0394 -0.8255  0.2626
45378SOL     OW45101   8.466   0.888   1.286 -0.3605  0.1768 -0.3483
45378SOL    HW145102   8.504   0.976   1.292 -0.9748  0.3841  0.8874
45378SOL    HW245103   8.488   0.846   1.369  0.3691 -1.0429 -1.1271
45379SOL     OW45104   4.653   9.488   4.488 -0.0485 -0.6335  0.3316
45379SOL    HW145105   4.600   9.487   4.408  0.5639  0.0746 -0.1034
45379SOL    HW245106   4.739   9.455   4.461 -0.2026 -1.5920  0.9857
45380SOL     OW45107  10.337  10.007   4.356  0.2656 -0.0369 -0.3502
45380SOL    HW145108  10.287  10.088   4.368  0.6384  0.2976 -0.9728
45380SOL    HW245109  10.321   9.983   4.264  1.1895  0.0447 -0.5445
45381SOL     OW45110   0.551   3.874   8.621  0.0992  0.0211 -0.0561
45381SOL    HW145111   0.458   3.896   8.625  0.0852  0.3240 -1.4606
45381SOL    HW245112   0.585   3.926   8.548  1.4476  0.1598  0.6400
45382SOL     OW45113   5.730  12.041   7.654  0.3864 -0.1609  0.4875
45382SOL    HW145114   5.752  12.035   7.747 -0.4458 -0.1039  0.6964
45382SOL    HW245115   5.689  11.958   7.633  1.0933 -0.4048  0.0113
45383SOL     OW45116   6.290  11.772   3.180  0.1849  0.4034 -0.4928
45383SOL    HW145117   6.263  11.864   3.175 -0.0953  0.3035 -0.8677
45383SOL    HW245118   6.278  11.739   3.091 -0.1643 -0.1250 -0.2514
45384SOL     OW45119  11.986   8.798   8.650  0.0553 -0.3069  0.3389
45384SOL    HW145120  12.077   8.808   8.625  0.5680 -1.6150  1.5605
45384SOL    HW245121  11.969   8.703   8.645 -1.3709 -0.0523 -0.3183
45385SOL     OW45122   9.151   3.832   9.175  0.0575  0.1945  0.0650
45385SOL    HW145123   9.181   3.912   9.217  0.3760 -0.6410  1.5189
45385SOL    HW245124   9.227   3.774   9.177 -0.5361 -0.5933  0.2175
45386SOL     OW45125   3.984   0.074   7.946  0.0984  0.0600  0.0292
45386SOL    HW145126   4.023   0.063   7.859  3.3991  0.1274  1.3402
45386SOL    HW245127   3.991   0.168   7.964  0.5038 -0.1049  0.7832
45387SOL     OW45128   9.723  11.560   1.776 -0.2130  0.1411  0.2387
45387SOL    HW145129   9.674  11.507   1.714 -1.5448  1.2527  0.2853
45387SOL    HW245130   9.785  11.500   1.817 -2.2560 -1.6031  0.9323
45388SOL     OW45131   3.919  11.370  11.289  0.2299  0.6138 -0.5276
45388SOL    HW145132   3.961  11.391  11.373  1.6132  1.0004 -1.2712
45388SOL    HW245133   3.985  11.318  11.243 -0.8940 -0.4020 -1.0072
45389SOL     OW45134   2.592  10.760   8.646  0.6345  0.1244 -0.0963
45389SOL    HW145135   2.646  10.694   8.603 -0.9545 -0.6172 -1.0627
45389SOL    HW245136   2.593  10.835   8.586  0.5152  0.0714 -0.1652
45390SOL     OW45137   4.036   2.683   2.653  0.2539  0.1490  0.3443
45390SOL    HW145138   4.007   2.630   2.578  1.6632  0.7313 -0.6486
45390SOL    HW245139   3.954   2.718   2.690 -0.4587  0.3625 -1.3111
45391SOL     OW45140   7.287   6.105   2.983  0.3889  0.3953  0.2256
45391SOL    HW145141   7.200   6.080   2.952  0.9963 -0.1695 -1.1045
45391SOL    HW245142   7.346   6.047   2.936  1.4316  0.0213  1.9319
45392SOL     OW45143   6.703   4.633   2.864  0.1959  0.0677  0.0993
45392SOL    HW145144   6.724   4.587   2.945 -0.9423  1.3244  1.1636
45392SOL    HW245145   6.617   4.599   2.839  0.5093 -0.2565 -0.5311
45393SOL     OW45146   5.068  11.662   9.080 -0.5329 -0.3813  0.2005
45393SOL    HW145147   5.079  11.639   9.172  1.9101 -0.6698 -0.1029
45393SOL    HW245148   5.123  11.600   9.033 -0.3144  0.8843 -1.3076
45394SOL     OW45149  10.797  10.899   1.251 -0.6709 -0.3440  0.8091
45394SOL    HW145150  10.846  10.981   1.262 -1.2791  0.2507 -0.6050
45394SOL    HW245151  10.731  10.920   1.184 -2.0465 -1.4828  1.7663
45395SOL     OW45152   4.428   9.295   0.950  0.1597 -0.3323 -0.2964
45395SOL    HW145153   4.371   9.347   1.006  2.9300  0.4293  2.0528
45395SOL    HW245154   4.428   9.341   0.866  1.3396  2.7488  1.2444
45396SOL     OW45155   0.687   1.935   5.171 -0.2061  0.6286 -0.1004
45396SOL    HW145156   0.720   1.996   5.106 -1.8514  2.6661  0.8260
45396SOL    HW245157   0.719   1.969   5.255 -1.5952  0.6037  0.4802
45397SOL     OW45158  11.326   2.700   5.807 -0.5359  0.0883 -0.3743
45397SOL    HW145159  11.327   2.795   5.803  2.5917  0.1855  0.4429
45397SOL    HW245160  11.315   2.680   5.900 -1.1988 -0.3699 -0.5419
45398SOL     OW45161   7.903   8.413   2.947 -0.2984 -0.5583 -0.9848
45398SOL    HW145162   7.817   8.449   2.926  0.2436  0.3189 -1.7818
45398SOL    HW245163   7.895   8.384   3.037 -1.0602  0.6902 -0.6220
45399SOL     OW45164   5.596  10.621  10.408 -0.3571 -0.2003 -0.7470
45399SOL    HW145165   5.615  10.620  10.502 -1.2921 -2.4478 -0.5269
45399SOL    HW245166   5.674  10.585  10.367  0.1459  1.0027 -0.8871
45400SOL     OW45167   5.345  10.465   8.065 -0.2793  0.6356  0.4438
45400SOL    HW145168   5.436  10.437   8.073 -0.2031  0.9546  0.6843
45400SOL    HW245169   5.301  10.390   8.024  0.4551  1.1633 -1.4234
45401SOL     OW45170   0.121   1.883  10.135  0.0822  0.1735 -0.3244
45401SOL    HW145171   0.028   1.907  10.139 -0.0935 -0.3992 -0.9382
45401SOL    HW245172   0.165   1.964  10.109 -0.3598  0.1806 -1.0678
45402SOL     OW45173   1.525   3.241   9.998  0.0545  0.3181  0.0575
45402SOL    HW145174   1.482   3.185   9.933 -0.6008  1.1444 -0.2362
45402SOL    HW245175   1.497   3.330   9.976  0.9114  0.7487  0.6475
45403SOL     OW45176   9.671   4.196   9.224 -0.0650 -0.2330  0.4433
45403SOL    HW145177   9.617   4.274   9.208 -0.5759 -0.5893  0.4298
45403SOL    HW245178   9.717   4.181   9.141 -0.2037 -0.1311  0.3479
45404SOL     OW45179   9.908   7.493   6.898  0.2912 -0.2491  0.0667
45404SOL    HW145180   9.884   7.430   6.966 -0.1146 -0.9750 -0.7357
45404SOL    HW245181   9.825   7.527   6.865  0.4080 -1.1347 -1.1976
45405SOL     OW45182   5.509   2.992   2.120  0.4230  0.6304 -0.0283
45405SOL    HW145183   5.597   2.961   2.097 -0.2322 -0.5475 -1.0428
45405SOL    HW245184   5.461   2.912   2.142 -0.6593  1.1771 -0.3801
45406SOL     OW45185   9.960   0.803  12.111 -0.6438  0.2237  0.1435
45406SOL    HW145186  10.024   0.774  12.176 -0.1237 -0.8165 -0.8090
45406SOL    HW245187   9.929   0.887  12.145  0.9566  0.5827  0.8242
45407SOL     OW45188   7.913   6.666   2.571  0.1153  0.0928  0.1660
45407SOL    HW145189   7.904   6.609   2.647  0.8532  0.1143  0.2743
45407SOL    HW245190   7.848   6.633   2.508  1.5026 -1.8088 -0.3646
45408SOL     OW45191   4.827   0.841   5.242  0.2615  0.9362  0.2827
45408SOL    HW145192   4.848   0.908   5.308 -0.1731  0.9984  0.3644
45408SOL    HW245193   4.734   0.854   5.224 -0.0672 -0.2739  1.0084
45409SOL     OW45194   6.147  10.864   6.264  0.2753  0.2782 -0.6799
45409SOL    HW145195   6.201  10.845   6.188 -0.1111 -0.5621 -0.7596
45409SOL    HW245196   6.162  10.790   6.323 -1.3880 -0.3847 -1.0433
45410SOL     OW45197   3.986   9.140   1.599 -0.2874 -0.5356  0.0794
45410SOL    HW145198   4.057   9.203   1.609 -0.8234  0.4976 -2.0706
45410SOL    HW245199   3.935   9.172   1.525 -1.9187 -2.2831  0.3514
45411SOL     OW45200  11.136   4.915  12.352 -0.0058  0.3009 -0.1535
45411SOL    HW145201  11.096   5.002  12.340 -0.8941 -0.1217 -0.3474
45411SOL    HW245202  11.086   4.876  12.424  0.0872 -0.2246 -0.3713
45412SOL     OW45203  10.675   5.206   0.918  0.0930  0.0128 -0.1302
45412SOL    HW145204  10.620   5.270   0.964  0.7985 -0.0921  0.9022
45412SOL    HW245205  10.646   5.209   0.827 -1.5287  0.0460  0.3642
45413SOL     OW45206  12.252   7.395   7.849 -0.0371 -0.3529 -0.0802
45413SOL    HW145207  12.286   7.456   7.785  1.0452 -0.7404  0.1089
45413SOL    HW245208  12.277   7.309   7.816 -1.5000 -0.7149 -0.3234
45414SOL     OW45209   4.479   5.199   6.131 -0.2281 -0.2996  0.4314
45414SOL    HW145210   4.390   5.233   6.116 -1.1167 -1.8342  1.8210
45414SOL    HW245211   4.519   5.198   6.044 -1.9231 -0.4702 -0.3979
45415SOL     OW45212   5.167   0.942   1.407 -0.2232  0.1976  0.1444
45415SOL    HW145213   5.132   0.885   1.476  0.4085  0.8190  1.0076
45415SOL    HW245214   5.123   1.026   1.423  2.2544  1.2775  1.8472
45416SOL     OW45215   8.369   3.701  11.476  0.2980  0.5014 -0.1423
45416SOL    HW145216   8.361   3.609  11.501  1.1201  0.0501 -1.4175
45416SOL    HW245217   8.283   3.723  11.439  0.1229  0.2205  0.1000
45417SOL     OW45218  10.057   7.913  11.712  0.3105 -0.2079 -0.3378
45417SOL    HW145219  10.039   7.964  11.791  0.7041 -0.4392 -0.0983
45417SOL    HW245220   9.970   7.891  11.678  0.1279  1.1655 -0.8107
45418SOL     OW45221   3.918   3.052  10.237  0.0608 -0.0370  0.2602
45418SOL    HW145222   3.996   3.105  10.220 -0.1771 -0.1167 -1.2614
45418SOL    HW245223   3.848   3.098  10.191 -0.2634 -1.3407 -0.6069
45419SOL     OW45224  10.794  12.388   8.643  0.3545 -0.1504 -0.2732
45419SOL    HW145225  10.845  12.337   8.581  1.4880 -0.4909  0.8865
45419SOL    HW245226  10.777  12.328   8.716 -1.2439  0.1308 -0.3630
45420SOL     OW45227   1.120   3.064   1.392 -0.0440 -0.2322 -0.1141
45420SOL    HW145228   1.153   3.004   1.326  2.7455  1.7818 -0.7381
45420SOL    HW245229   1.042   3.104   1.352  0.8729  0.0399 -1.6985
45421SOL     OW45230   4.654   2.531   6.314  0.2400  0.5871  0.0517
45421SOL    HW145231   4.579   2.486   6.352 -1.1475  2.3940 -0.4253
45421SOL    HW245232   4.726   2.513   6.374 -0.6857 -0.7545  0.8039
45422SOL     OW45233  12.302   4.264   9.906 -0.2798 -0.0091 -0.1452
45422SOL    HW145234  12.379   4.320   9.911  0.4390 -0.9816  4.3879
45422SOL    HW245235  12.228   4.324   9.915  0.2890  0.5657  0.9030
45423SOL     OW45236  10.559  11.839   5.856  0.4614 -0.4179  0.0392
45423SOL    HW145237  10.520  11.831   5.769  0.6745 -0.2993 -0.0682
45423SOL    HW245238  10.554  11.751   5.893  3.4585 -1.3373 -1.4056
45424SOL     OW45239   6.757   8.998  12.115 -0.0864 -0.0905  0.2807
45424SOL    HW145240   6.706   8.918  12.119 -1.3549  0.6847  0.0124
45424SOL    HW245241   6.840   8.975  12.158 -1.4777 -0.7693  2.8073
45425SOL     OW45242  12.299   7.419   1.984 -0.2300 -0.3518  0.1005
45425SOL    HW145243  12.208   7.419   1.953 -0.9557 -0.2680  2.0464
45425SOL    HW245244  12.327   7.510   1.976 -0.3324 -0.3647 -0.4470
45426SOL     OW45245   2.917   7.563   4.072  0.3856 -0.5220  0.8972
45426SOL    HW145246   2.900   7.624   4.144  0.9949  0.7325  0.0187
45426SOL    HW245247   2.998   7.595   4.032 -0.8930 -0.0268 -1.5073
45427SOL     OW45248   5.686   6.885   2.795 -0.4347  0.0880  0.0409
45427SOL    HW145249   5.636   6.826   2.850  1.4292 -0.2139  1.5199
45427SOL    HW245250   5.701   6.962   2.850 -1.7569  1.4408 -1.4167
45428SOL     OW45251   9.669   8.380   9.717  0.0887 -0.2497 -0.2369
45428SOL    HW145252   9.625   8.453   9.673  1.3219  0.8260  0.2640
45428SOL    HW245253   9.755   8.414   9.741  0.1437 -1.3947  1.3576
45429SOL     OW45254  10.600   1.353   5.805 -0.4458  0.0511 -0.3701
45429SOL    HW145255  10.568   1.263   5.816  1.9029 -1.1335 -2.3109
45429SOL    HW245256  10.582   1.373   5.713  0.1367  1.1258 -0.2578
45430SOL     OW45257  12.428  11.894   5.081  0.0047 -0.3426  0.4147
45430SOL    HW145258  12.438  11.989   5.093 -2.0944 -0.3535  3.3314
45430SOL    HW245259  12.382  11.865   5.160 -1.2225 -3.5177 -1.3156
45431SOL     OW45260  12.363   1.728  11.678 -0.6816 -0.0735  0.0568
45431SOL    HW145261  12.389   1.734  11.586 -1.1316 -0.0574 -0.0745
45431SOL    HW245262  12.376   1.636  11.701  0.1772  0.0765  0.2117
45432SOL     OW45263  10.439  10.773   2.464  0.7415  0.5666 -0.3334
45432SOL    HW145264  10.500  10.785   2.391  0.4622  0.7735 -0.5331
45432SOL    HW245265  10.490  10.725   2.530  1.2530  1.0885 -0.3386
45433SOL     OW45266   1.832   5.755   7.056 -0.8635 -0.4881 -0.3530
45433SOL    HW145267   1.844   5.767   6.962 -1.2880 -0.4236 -0.4055
45433SOL    HW245268   1.808   5.843   7.088 -0.4610 -0.4538 -0.1414
45434SOL     OW45269   8.609   9.989  11.900  0.0393 -0.2081  0.1960
45434SOL    HW145270   8.550   9.918  11.926  0.7644 -1.4501 -1.4461
45434SOL    HW245271   8.646  10.020  11.983 -0.9496 -1.1293  1.0175
45435SOL     OW45272  11.674   5.565  10.794  0.0484  0.1486  0.0906
45435SOL    HW145273  11.700   5.545  10.704 -2.1440 -1.1788 -0.3254
45435SOL    HW245274  11.724   5.505  10.848 -0.9662 -1.3353 -0.5579
45436SOL     OW45275   3.974  11.782   4.841  0.2534 -0.0184 -0.2503
45436SOL    HW145276   3.879  11.791   4.842  0.1037 -1.1002 -1.6108
45436SOL    HW245277   3.990  11.700   4.796  1.8558  0.2768 -0.2896
45437SOL     OW45278   7.501  10.076   9.558 -0.0883 -0.0540  0.5292
45437SOL    HW145279   7.431  10.015   9.537 -0.2539 -0.4131  1.9724
45437SOL    HW245280   7.499  10.083   9.654  1.8942 -0.1461  0.6318
45438SOL     OW45281  10.109   4.568   7.268  0.6580 -0.4188 -0.1893
45438SOL    HW145282  10.114   4.604   7.357 -2.1723 -0.6986  0.1844
45438SOL    HW245283  10.091   4.644   7.212  1.9521 -0.3144 -0.5074
45439SOL     OW45284   5.626   0.352   2.505  0.8901 -0.2009 -0.1380
45439SOL    HW145285   5.628   0.363   2.410  2.7249  0.4751 -0.0715
45439SOL    HW245286   5.699   0.405   2.536 -0.3287  0.4674  1.7658
45440SOL     OW45287   4.642   3.381  10.257 -0.3724  0.1598  0.0293
45440SOL    HW145288   4.646   3.450  10.323  1.7864  1.0704 -0.9387
45440SOL    HW245289   4.699   3.312  10.291  0.2051  0.3448 -0.5269
45441SOL     OW45290   1.384   5.898   7.455  0.3029 -0.0575 -0.2048
45441SOL    HW145291   1.353   5.956   7.386 -0.5409 -0.0369  0.1785
45441SOL    HW245292   1.457   5.944   7.495 -1.6096  1.7315  1.4483
45442SOL     OW45293   9.059   5.258   6.551 -0.1098 -1.0219  0.0551
45442SOL    HW145294   9.105   5.289   6.473 -0.7029 -0.3988 -0.0572
45442SOL    HW245295   9.119   5.278   6.623 -0.1169 -0.3876 -0.1059
45443SOL     OW45296   9.877   1.221   9.481 -0.2444  0.4175 -0.4715
45443SOL    HW145297   9.877   1.174   9.564  0.9020 -0.4347 -0.9242
45443SOL    HW245298   9.797   1.193   9.437  0.0286 -0.5078 -0.3971
45444SOL     OW45299   4.017   4.046   3.348  0.3103 -0.6214  0.2021
45444SOL    HW145300   3.941   4.068   3.402 -0.0375 -1.1311 -0.0867
45444SOL    HW245301   4.057   4.131   3.329  0.3259 -0.4176  1.0988
45445SOL     OW45302  12.182  11.208   1.185  0.2160 -0.5228  0.4525
45445SOL    HW145303  12.275  11.197   1.208  0.5925 -0.3532 -0.8899
45445SOL    HW245304  12.171  11.302   1.176  0.1211 -0.5866 -0.1496
45446SOL     OW45305  12.206   2.336  12.507  0.2259 -0.3826 -0.3917
45446SOL    HW145306  12.192   2.405  12.441  0.8411  0.0387 -0.0895
45446SOL    HW245307  12.288   2.361  12.550 -0.1276 -0.7113  0.4749
45447SOL     OW45308   8.290   8.228   4.950  0.1923 -0.0986 -0.0951
45447SOL    HW145309   8.254   8.198   5.034 -0.9558  0.1952 -0.4668
45447SOL    HW245310   8.384   8.235   4.966 -0.1544  1.4395  1.6455
45448SOL     OW45311   9.303  11.703  11.714 -0.4430  0.3845  0.1770
45448SOL    HW145312   9.378  11.643  11.708  0.3224  1.2056  1.2205
45448SOL    HW245313   9.323  11.772  11.651  0.1796  1.1057  1.1343
45449SOL     OW45314   8.975   5.665   9.232  0.0583 -0.2929  0.0063
45449SOL    HW145315   8.939   5.621   9.155  0.2068 -1.4310  0.5640
45449SOL    HW245316   9.064   5.689   9.206  0.0258 -0.4630 -0.2680
45450SOL     OW45317   1.539   7.696   2.062 -0.0372 -0.2819 -0.1361
45450SOL    HW145318   1.472   7.757   2.032 -2.1173 -2.4340 -0.1660
45450SOL    HW245319   1.594   7.680   1.985 -0.0398  0.7783 -0.3732
45451SOL     OW45320   6.794   0.997  10.248  0.1056  0.2459  0.2367
45451SOL    HW145321   6.859   1.053  10.206 -0.4989  0.4166 -0.4886
45451SOL    HW245322   6.749   0.954  10.176 -4.0094  3.8723  0.2030
45452SOL     OW45323   1.069   8.632   5.936 -0.0805  0.4794 -0.5202
45452SOL    HW145324   1.084   8.716   5.981 -0.9669  1.6857 -2.3412
45452SOL    HW245325   0.994   8.594   5.982  1.7281 -0.5009  1.8099
45453SOL     OW45326   2.073  12.076   6.150  0.6372 -1.0468 -0.6698
45453SOL    HW145327   2.109  12.053   6.236 -1.8018 -0.8538  0.5051
45453SOL    HW245328   2.078  11.995   6.099  2.5587 -1.0384 -0.5725
45454SOL     OW45329  12.024  10.928   9.811 -0.0380  0.2743 -0.6286
45454SOL    HW145330  12.013  10.873   9.889 -0.0384 -1.1840 -1.6247
45454SOL    HW245331  12.107  10.974   9.826 -0.9319  1.4585  1.0403
45455SOL     OW45332   0.014   8.621   1.592  0.0257  0.1259 -0.0410
45455SOL    HW145333  -0.041   8.543   1.599  1.1723 -0.8702 -1.5043
45455SOL    HW245334   0.044   8.622   1.501  2.5876  0.4677  0.7155
45456SOL     OW45335   8.622   7.433  10.240 -0.0741 -0.2912  0.3253
45456SOL    HW145336   8.639   7.430  10.146 -1.1299  2.3783 -0.0426
45456SOL    HW245337   8.641   7.523  10.265 -2.6157 -0.1221  2.0415
45457SOL     OW45338   3.039   8.784  11.831 -0.2868  0.1527  0.3232
45457SOL    HW145339   2.951   8.782  11.869  0.6428  0.7851  2.6783
45457SOL    HW245340   3.082   8.858  11.875  1.7132 -0.6965 -0.1113
45458SOL     OW45341   7.181   6.154   7.923  0.3038  0.2256 -0.1373
45458SOL    HW145342   7.183   6.091   7.995  0.4918  0.2169 -0.1496
45458SOL    HW245343   7.226   6.109   7.851  0.0584  0.2084 -0.2808
45459SOL     OW45344  10.774  10.200   7.007  0.6078  0.4698 -0.3902
45459SOL    HW145345  10.836  10.230   7.073 -0.3066  0.4085  0.5231
45459SOL    HW245346  10.691  10.241   7.031  0.1198 -0.0551 -1.1277
45460SOL     OW45347   9.032   3.456  11.564 -0.5922 -0.2855  0.1304
45460SOL    HW145348   9.121   3.488  11.577 -0.6245  0.5004 -1.4698
45460SOL    HW245349   9.043   3.373  11.518 -0.6987  0.4286 -1.2295
45461SOL     OW45350  11.134   5.536   6.805 -0.2757  0.4357 -0.1350
45461SOL    HW145351  11.164   5.547   6.895 -0.7726 -0.8521  0.2151
45461SOL    HW245352  11.199   5.583   6.752 -0.2027  1.5616  0.9055
45462SOL     OW45353  12.212   8.048   1.720  0.1165  0.2317  0.2355
45462SOL    HW145354  12.306   8.048   1.739 -0.0169  0.4762  0.9045
45462SOL    HW245355  12.185   8.139   1.728  0.1182  0.4325 -1.5380
45463SOL     OW45356   7.000   2.114  12.210  0.2242 -0.1116  0.5029
45463SOL    HW145357   7.016   2.108  12.304  1.7755 -0.0486  0.2652
45463SOL    HW245358   7.084   2.140  12.173 -0.2883 -0.4317 -0.9447
45464SOL     OW45359   8.909   6.342   0.568 -0.3780 -0.2889 -0.0900
45464SOL    HW145360   8.883   6.250   0.563 -0.3973 -0.3836  1.3653
45464SOL    HW245361   8.910   6.372   0.477 -0.4751 -1.6951 -0.5697
45465SOL     OW45362   7.816   4.061   1.868 -0.0522 -0.1280 -0.4465
45465SOL    HW145363   7.787   4.051   1.958  0.1952  0.7705 -0.2540
45465SOL    HW245364   7.874   3.986   1.853 -1.0734 -0.9847 -0.2858
45466SOL     OW45365  10.814   1.204   7.046 -0.5026  0.4022 -0.2892
45466SOL    HW145366  10.874   1.187   7.118 -0.7009 -0.8647 -0.3840
45466SOL    HW245367  10.864   1.182   6.967 -0.4066  1.4228 -0.5293
45467SOL     OW45368   7.699   3.219   3.069  0.4323 -0.0183 -0.7944
45467SOL    HW145369   7.758   3.246   2.999  0.0388 -0.1649 -1.1819
45467SOL    HW245370   7.750   3.233   3.149  0.3544  1.6117 -0.9889
45468SOL     OW45371   3.092  10.916   3.637 -0.4745 -0.1949 -0.0487
45468SOL    HW145372   3.116  10.991   3.581  0.6780 -0.8107 -0.4127
45468SOL    HW245373   3.049  10.956   3.712  1.7956  1.0664  0.6953
45469SOL     OW45374   3.909   7.101  10.649  0.5458 -0.3104  0.0198
45469SOL    HW145375   3.815   7.117  10.647  0.2749 -1.8097 -1.5661
45469SOL    HW245376   3.948   7.189  10.643 -0.7874  0.2157 -2.4242
45470SOL     OW45377   5.739   8.874  10.537 -0.1282  0.0690  0.3025
45470SOL    HW145378   5.701   8.877  10.625 -0.9297 -0.1283 -0.0278
45470SOL    HW245379   5.832   8.854  10.551  0.2972  2.3669  1.2348
45471SOL     OW45380   0.935   3.507   9.175 -0.3707 -0.1385  0.3045
45471SOL    HW145381   1.001   3.555   9.124 -1.4341 -0.8770 -1.8984
45471SOL    HW245382   0.852   3.546   9.150 -0.9473 -0.6997  1.3082
45472SOL     OW45383   5.978   3.279   5.556  0.4539 -0.1330  0.0340
45472SOL    HW145384   5.995   3.358   5.506  0.9811 -0.8178 -0.8983
45472SOL    HW245385   6.027   3.292   5.638  0.8211  0.3587 -0.2555
45473SOL     OW45386   7.311   3.322   1.282  0.2796  0.3420  0.3772
45473SOL    HW145387   7.361   3.241   1.289  2.0603  1.3847  0.1326
45473SOL    HW245388   7.268   3.316   1.196  1.1057  0.0417 -0.0215
45474SOL     OW45389   2.778  12.254   1.527 -0.4227 -0.0846  0.0646
45474SOL    HW145390   2.774  12.256   1.432 -0.4877  3.0761  0.0174
45474SOL    HW245391   2.869  12.273   1.547 -0.8020  1.2820  0.5844
45475SOL     OW45392   3.401   0.338  10.523  0.2028 -0.6180  0.4002
45475SOL    HW145393   3.473   0.276  10.513  1.0758  0.5515 -0.9655
45475SOL    HW245394   3.424   0.390  10.600 -1.0377 -2.5500  2.1875
45476SOL     OW45395   7.559  10.003   1.442  0.5050  0.0262 -0.1239
45476SOL    HW145396   7.471  10.031   1.415  0.1263  1.1219  2.0106
45476SOL    HW245397   7.544   9.937   1.509  1.4122 -2.8788 -2.5736
45477SOL     OW45398  11.828   9.652   8.214  0.0159  0.0929 -0.1303
45477SOL    HW145399  11.825   9.563   8.179 -2.4020 -0.0467  0.2691
45477SOL    HW245400  11.880   9.644   8.294 -0.7050 -1.1122  0.2490
45478SOL     OW45401   0.770   5.166   1.999  0.0530  0.5749 -0.6400
45478SOL    HW145402   0.695   5.224   1.999 -0.1084  0.4202  1.0553
45478SOL    HW245403   0.788   5.149   1.906 -1.9483  0.6540 -1.0890
45479SOL     OW45404   7.864  11.534  11.726 -0.0896 -0.5894  0.5906
45479SOL    HW145405   7.827  11.622  11.715 -2.4478 -1.7819 -2.6624
45479SOL    HW245406   7.810  11.494  11.794 -0.4335 -0.2144  0.5457
45480SOL     OW45407   6.250  10.858   8.287  0.2942 -0.1218  0.1601
45480SOL    HW145408   6.222  10.882   8.376  1.0548  1.8847 -0.0794
45480SOL    HW245409   6.169  10.844   8.239 -0.1338 -1.9358  1.3014
45481SOL     OW45410  11.340   5.272   1.464  0.4129  0.4704 -0.5094
45481SOL    HW145411  11.375   5.343   1.412  0.3773  1.6203  0.9762
45481SOL    HW245412  11.245   5.283   1.461  0.4512  1.5797  1.1226
45482SOL     OW45413  11.733   0.966  12.454 -0.4134  0.1818  0.0566
45482SOL    HW145414  11.773   1.007  12.377 -2.3381 -1.7194 -2.1451
45482SOL    HW245415  11.660   1.024  12.477 -0.7930 -0.0108 -0.6138
45483SOL     OW45416  10.959   0.038   2.259  0.3268 -0.0765 -0.6385
45483SOL    HW145417  10.937   0.105   2.325  0.4812 -0.0991 -0.5651
45483SOL    HW245418  10.999   0.087   2.188  1.0055 -0.1691 -0.3213
45484SOL     OW45419  12.396  10.719   4.991 -0.5128  0.1351 -0.3693
45484SOL    HW145420  12.304  10.740   4.979 -0.1410  0.8876 -2.3204
45484SOL    HW245421  12.438  10.745   4.909  1.2618 -1.2390  0.0230
45485SOL     OW45422   5.172   3.443   4.524 -0.1272  0.4746  0.5250
45485SOL    HW145423   5.120   3.522   4.507  0.4826  0.7401 -0.1730
45485SOL    HW245424   5.200   3.452   4.615  1.6363  2.1084 -0.1171
45486SOL     OW45425  12.345   6.733   2.689 -0.4126 -0.0116 -0.3568
45486SOL    HW145426  12.420   6.726   2.630  1.4584 -0.1999  1.8973
45486SOL    HW245427  12.366   6.806   2.747 -2.0435  0.0142  0.2532
45487SOL     OW45428  11.454  10.260   4.195  0.3180 -0.3340 -0.1208
45487SOL    HW145429  11.517  10.220   4.136  0.5972 -1.2089  0.7309
45487SOL    HW245430  11.410  10.326   4.142  0.7585 -0.8814 -1.2110
45488SOL     OW45431  11.116   9.981  10.271  0.1290 -0.3144  0.0858
45488SOL    HW145432  11.171   9.909  10.242  1.6689  1.1747 -0.9435
45488SOL    HW245433  11.166  10.025  10.339  0.4411  1.2644 -1.0908
45489SOL     OW45434   8.201   0.732  10.414  0.2818 -0.7550  0.2189
45489SOL    HW145435   8.279   0.677  10.409  0.4002 -0.6972  1.2861
45489SOL    HW245436   8.135   0.676  10.455  0.3169 -0.2122  1.0439
45490SOL     OW45437   8.304   2.652   2.126 -0.0609 -0.3527 -0.1950
45490SOL    HW145438   8.373   2.652   2.059 -0.5642 -1.4620 -0.7383
45490SOL    HW245439   8.351   2.663   2.209  1.0146 -3.0200 -0.3775
45491SOL     OW45440  12.230   3.656   7.589  0.0600  0.4217 -0.6229
45491SOL    HW145441  12.274   3.574   7.612  0.5261  1.2258  1.5957
45491SOL    HW245442  12.141   3.646   7.623 -0.9826 -0.3922 -3.3046
45492SOL     OW45443   2.939   9.491  11.197  0.8860  0.3871  0.1714
45492SOL    HW145444   2.875   9.556  11.226 -0.0689  0.3939 -1.7333
45492SOL    HW245445   2.886   9.419  11.164  1.7355  0.9330 -2.6870
45493SOL     OW45446   0.586  11.102   9.341  0.6275 -0.3529  0.2538
45493SOL    HW145447   0.577  11.083   9.434  1.4270 -0.9661  0.2166
45493SOL    HW245448   0.586  11.017   9.299  1.6418 -0.1633 -0.1644
45494SOL     OW45449   0.722   6.632   6.911 -0.3275  0.0769 -0.3707
45494SOL    HW145450   0.718   6.728   6.915  0.0849  0.1847 -2.0495
45494SOL    HW245451   0.718   6.605   7.003  3.8978  1.8858  0.6154
45495SOL     OW45452   3.082  11.790  10.358  0.3503 -0.4427  0.1102
45495SOL    HW145453   3.061  11.707  10.317  2.1589 -0.6051 -0.5874
45495SOL    HW245454   3.069  11.775  10.452  0.0880 -1.3220 -0.0591
45496SOL     OW45455   6.647   1.576   6.095  0.0189 -0.2174 -0.6461
45496SOL    HW145456   6.740   1.591   6.083 -0.0960  0.0659 -1.2445
45496SOL    HW245457   6.625   1.622   6.176  0.3034  0.1229 -0.7618
45497SOL     OW45458   8.331  10.253  11.669  0.4483 -0.1417  0.4553
45497SOL    HW145459   8.420  10.255  11.704  1.2056 -1.4241 -1.2174
45497SOL    HW245460   8.339  10.291  11.582  0.2115 -3.4672 -1.2102
45498SOL     OW45461   5.480  12.441   0.130  0.4592  0.4266 -0.7935
45498SOL    HW145462   5.450  12.505   0.066  0.4609  1.4330  0.1855
45498SOL    HW245463   5.571  12.465   0.147  0.5872 -0.0952 -0.7036
45499SOL     OW45464   0.250  11.009  10.086 -0.0223 -0.2604 -0.3922
45499SOL    HW145465   0.302  11.070  10.138 -1.5504  1.1296 -0.4086
45499SOL    HW245466   0.256  11.042   9.996 -0.0881 -0.6866 -0.5534
45500SOL     OW45467   4.361  10.615   6.983  0.4148  0.8053  0.3038
45500SOL    HW145468   4.278  10.664   6.981 -0.0971 -0.0577  0.1795
45500SOL    HW245469   4.338  10.530   7.020  1.4071  0.8323  1.0181
45501SOL     OW45470  11.957   0.534   1.062  0.1470  0.6252  0.7225
45501SOL    HW145471  12.013   0.507   0.989  1.6385 -1.3070  2.4748
45501SOL    HW245472  12.017   0.545   1.135 -1.2318  3.0225  1.6289
45502SOL     OW45473   9.122   5.759   5.040  0.2592 -0.8410  0.0339
45502SOL    HW145474   9.188   5.777   4.973  0.5105 -0.7155  0.3104
45502SOL    HW245475   9.038   5.770   4.995  0.4094  0.2363 -0.0263
45503SOL     OW45476  11.121   0.389   3.745  0.5275  0.2501 -0.1381
45503SOL    HW145477  11.153   0.452   3.809  0.3150  1.8537 -1.5451
45503SOL    HW245478  11.033   0.366   3.775  0.9670 -0.1059  0.8901
45504SOL     OW45479   9.421   0.497  12.209  0.7654  0.6617 -0.1389
45504SOL    HW145480   9.398   0.569  12.267  0.1383  0.0850  0.3457
45504SOL    HW245481   9.351   0.496  12.144  1.5282  1.3848 -1.0104
45505SOL     OW45482  10.035   0.298   9.526 -0.0792 -0.1662  0.0435
45505SOL    HW145483  10.014   0.381   9.483  1.4035 -0.6395 -1.7677
45505SOL    HW245484  10.131   0.291   9.518  0.0718 -1.0239  2.1404
45506SOL     OW45485  10.227   9.819   4.571  0.6691  0.4988 -0.7474
45506SOL    HW145486  10.266   9.859   4.493  1.3922  2.6309  0.6215
45506SOL    HW245487  10.243   9.882   4.641 -0.5573 -1.0311  1.0126
45507SOL     OW45488   8.267   0.313  12.422  0.9929  0.3236  0.4026
45507SOL    HW145489   8.317   0.363  12.358  0.5249  0.3325  0.0342
45507SOL    HW245490   8.197   0.373  12.449 -0.0345 -0.3697 -0.6137
45508SOL     OW45491   1.329   1.985   0.776 -0.1316 -0.6535  0.4896
45508SOL    HW145492   1.314   1.892   0.759  3.2005 -1.4400  1.2022
45508SOL    HW245493   1.323   2.027   0.690 -2.7690 -1.2438  0.2991
45509SOL     OW45494   7.289   9.808   8.622  0.3299 -0.7746  0.2993
45509SOL    HW145495   7.343   9.813   8.701  0.2574  0.2939  0.2962
45509SOL    HW245496   7.348   9.774   8.555  0.3159 -1.9680  0.8629
45510SOL     OW45497  10.351   0.134  10.326 -0.3257  0.7598 -0.2198
45510SOL    HW145498  10.312   0.133  10.238  0.4268  0.2218 -0.5662
45510SOL    HW245499  10.299   0.197  10.375 -2.8744 -1.2834 -0.0757
45511SOL     OW45500  10.382  10.956   9.876  0.2243 -0.4858 -0.4414
45511SOL    HW145501  10.383  10.861   9.886 -0.1405 -0.5820 -1.2230
45511SOL    HW245502  10.377  10.990   9.965  1.3690 -1.1711 -0.0882
45512SOL     OW45503   8.338   4.337   2.197  0.0898  0.3962 -0.1971
45512SOL    HW145504   8.328   4.266   2.260  0.3252 -1.7083 -2.4012
45512SOL    HW245505   8.249   4.373   2.188  0.3448  2.1270  2.6722
45513SOL     OW45506   9.486   4.107   4.429 -0.1268 -0.6913  0.0326
45513SOL    HW145507   9.474   4.189   4.381  1.2984 -0.3380  0.2309
45513SOL    HW245508   9.547   4.056   4.376  2.2815  0.1155  1.8140
45514SOL     OW45509   9.354   8.440   9.526  0.7248  0.4743 -0.0403
45514SOL    HW145510   9.337   8.372   9.592  1.0583  0.9851  0.5780
45514SOL    HW245511   9.374   8.390   9.446 -0.8346 -0.1450 -0.0734
45515SOL     OW45512   7.920   5.937   8.769  0.4809 -0.0083  0.3932
45515SOL    HW145513   7.861   5.874   8.727  1.2457  0.9354 -2.3715
45515SOL    HW245514   8.002   5.889   8.779 -0.1975 -0.8193  2.7440
45516SOL     OW45515   5.306   9.098  10.006 -0.1327  0.2116  0.0648
45516SOL    HW145516   5.377   9.138   9.957  0.6943  2.4143  2.7659
45516SOL    HW245517   5.239   9.166  10.012 -1.5833 -1.0938 -0.6153
45517SOL     OW45518   1.095  12.575   4.168 -0.3403  0.4309 -0.1749
45517SOL    HW145519   1.177  12.586   4.118 -0.4559  0.8388 -0.2834
45517SOL    HW245520   1.027  12.603   4.107 -0.5156  0.5880  0.0942
45518SOL     OW45521   1.735  10.030   8.209  0.1020 -0.5251  0.0008
45518SOL    HW145522   1.777  10.041   8.295 -0.2906 -2.0581  0.4217
45518SOL    HW245523   1.686  10.111   8.197  1.6761  0.5361  0.3287
45519SOL     OW45524  12.188   0.926   0.489  0.3988  0.2185  0.2958
45519SOL    HW145525  12.193   0.858   0.556  0.6703  1.5515  1.6825
45519SOL    HW245526  12.097   0.957   0.492  0.1916 -0.2789 -0.5500
45520SOL     OW45527   1.574  12.585   9.428 -0.6516  0.7391 -0.4939
45520SOL    HW145528   1.484  12.551   9.430 -0.8314  1.2373  1.2744
45520SOL    HW245529   1.564  12.680   9.427 -0.1423  0.8008  0.0752
45521SOL     OW45530   0.682   6.335   7.354  0.1649  0.3132 -0.1532
45521SOL    HW145531   0.595   6.308   7.381 -0.1422  0.4308 -1.0004
45521SOL    HW245532   0.712   6.393   7.424 -0.5065  0.4127  0.0585
45522SOL     OW45533   8.590  11.508   3.743  0.4477 -0.0177  0.4970
45522SOL    HW145534   8.573  11.522   3.836 -1.8516 -0.9923  0.2913
45522SOL    HW245535   8.543  11.579   3.699 -0.9359 -1.2038 -0.0053
45523SOL     OW45536   0.602   1.656   7.804  0.1458 -0.1943  0.4185
45523SOL    HW145537   0.608   1.719   7.732 -0.7684  0.8128  1.1857
45523SOL    HW245538   0.543   1.588   7.772  0.1301 -0.0040  0.0425
45524SOL     OW45539   1.415   1.655   4.387 -0.6269 -0.0081 -0.4868
45524SOL    HW145540   1.397   1.577   4.334 -4.6303  1.0885 -1.1303
45524SOL    HW245541   1.380   1.634   4.473 -1.0810  0.7598 -0.4713
45525SOL     OW45542   0.382   7.718   5.280  0.0129 -0.4373 -0.4442
45525SOL    HW145543   0.367   7.634   5.322  1.6770 -0.7841 -0.4582
45525SOL    HW245544   0.421   7.696   5.195  0.6664  0.3289 -0.3632
45526SOL     OW45545   9.814  12.463  11.161  0.0886 -0.6987  0.3388
45526SOL    HW145546   9.728  12.445  11.197  0.0292  1.2709  1.3313
45526SOL    HW245547   9.802  12.544  11.110  1.7633  1.0222  2.4735
45527SOL     OW45548   5.756   8.043   5.946  0.6534 -0.1686 -0.5092
45527SOL    HW145549   5.768   8.097   5.868  2.4574 -0.4851 -0.5116
45527SOL    HW245550   5.831   8.065   6.002 -0.9480  0.5555  1.4870
45528SOL     OW45551   6.580  12.116   6.891 -0.7008  0.3090  0.5581
45528SOL    HW145552   6.610  12.123   6.800 -0.0160 -0.0920  0.7435
45528SOL    HW245553   6.508  12.052   6.887 -1.1730  0.8484  0.1943
45529SOL     OW45554   2.918   1.454   3.019  0.8016  0.1889 -0.6064
45529SOL    HW145555   2.996   1.476   2.968  0.4084  0.1240 -1.2509
45529SOL    HW245556   2.855   1.522   2.996  0.2533 -0.4638 -1.0484
45530SOL     OW45557   5.322   4.217   1.391 -0.0007 -0.3276  0.0812
45530SOL    HW145558   5.245   4.271   1.372 -0.1054 -0.4455  0.1691
45530SOL    HW245559   5.292   4.127   1.377  0.5252 -0.3114 -1.3412
45531SOL     OW45560  11.775   2.856   2.247  0.1061  0.2356  0.1258
45531SOL    HW145561  11.752   2.802   2.323 -2.5196 -2.4825 -2.3458
45531SOL    HW245562  11.707   2.923   2.244 -0.3239 -0.2157 -0.3078
45532SOL     OW45563   9.462   6.651  11.175  0.1642  0.2372  0.4924
45532SOL    HW145564   9.489   6.650  11.267  1.6695 -1.8923  0.1010
45532SOL    HW245565   9.531   6.604  11.129 -1.8636 -1.1215 -1.3580
45533SOL     OW45566   0.943   2.134   7.864 -0.3886 -0.4449  0.2454
45533SOL    HW145567   0.971   2.068   7.800 -0.3144  1.0040 -1.2978
45533SOL    HW245568   0.872   2.092   7.912  0.0394 -1.8415 -0.2784
45534SOL     OW45569   1.666   5.869  10.482 -0.7137 -0.4484  0.2830
45534SOL    HW145570   1.738   5.922  10.449  0.3523 -2.3903 -0.6602
45534SOL    HW245571   1.627   5.829  10.404 -1.7482 -0.7408  0.9209
45535SOL     OW45572   8.127   4.624   1.567  0.2100  0.5974 -0.1036
45535SOL    HW145573   8.176   4.693   1.523 -1.7785  2.1722 -0.0120
45535SOL    HW245574   8.058   4.670   1.614 -1.6561 -1.4773 -0.6269
45536SOL     OW45575  10.459   9.814   9.926 -0.0218  0.3663  0.1644
45536SOL    HW145576  10.390   9.871   9.961 -0.3544  0.1380 -0.1109
45536SOL    HW245577  10.473   9.749   9.995  1.0359  1.3287  0.8885
45537SOL     OW45578   4.424   1.717   3.612  0.7405 -0.3085 -0.4650
45537SOL    HW145579   4.486   1.765   3.556  0.9092  0.1601  0.1041
45537SOL    HW245580   4.377   1.659   3.552  1.4362 -0.3627 -0.9755
45538SOL     OW45581   4.701   8.621  10.474 -0.4248  0.6039  0.1662
45538SOL    HW145582   4.754   8.661  10.543 -0.3898 -0.5773  0.8480
45538SOL    HW245583   4.611   8.632  10.504 -0.4060  0.0306  0.4304
45539SOL     OW45584   3.839   7.599   1.876  0.5359  0.2420  0.4214
45539SOL    HW145585   3.800   7.561   1.955  1.1935  0.6420  0.9498
45539SOL    HW245586   3.899   7.532   1.844 -1.7640 -1.1102 -1.3879
45540SOL     OW45587   4.471  10.963   0.456 -0.0773  0.2104  0.1584
45540SOL    HW145588   4.456  10.978   0.363  2.3519 -0.6227 -0.4459
45540SOL    HW245589   4.419  10.886   0.477 -1.6014  1.1172 -0.1751
45541SOL     OW45590   0.993  11.488   4.192  0.3068 -0.4964  0.6474
45541SOL    HW145591   1.020  11.464   4.281 -0.7353 -0.3839  1.0138
45541SOL    HW245592   0.904  11.521   4.203  0.7483  1.0746 -0.2134
45542SOL     OW45593   5.814   6.747   1.990 -0.3545 -0.4889  0.1042
45542SOL    HW145594   5.729   6.767   2.030 -0.5075  0.2239 -0.5697
45542SOL    HW245595   5.827   6.654   2.008 -0.5433 -0.2583  1.5759
45543SOL     OW45596  12.407   9.829   5.789  0.2385  0.3682 -0.5927
45543SOL    HW145597  12.387   9.792   5.875  1.8871  0.5460 -0.1085
45543SOL    HW245598  12.342   9.898   5.777  0.8358  1.2730  1.1321
45544SOL     OW45599   5.471   7.262   6.508 -0.5235  0.0679  0.6113
45544SOL    HW145600   5.465   7.170   6.534 -1.2317  0.0543  0.4388
45544SOL    HW245601   5.564   7.282   6.510 -0.2063 -1.0669 -0.7339
45545SOL     OW45602   0.006   1.185  11.531 -0.1225 -0.4103  0.5247
45545SOL    HW145603   0.065   1.257  11.554 -0.1881 -0.2137  0.0888
45545SOL    HW245604   0.063   1.110  11.519 -0.0094 -0.3349  0.5912
45546SOL     OW45605   7.822  11.973  11.292  0.0586 -0.4931 -0.5318
45546SOL    HW145606   7.742  11.933  11.257 -0.6548  1.0163 -0.7247
45546SOL    HW245607   7.824  12.061  11.253 -0.5522  1.1567  2.7316
45547SOL     OW45608   0.430  10.501   4.224 -0.3009 -0.0943 -0.6424
45547SOL    HW145609   0.485  10.527   4.150  0.5854 -1.0478 -0.3477
45547SOL    HW245610   0.342  10.530   4.200 -0.3474 -1.7315 -2.8009
45548SOL     OW45611   1.928   2.352   8.759 -0.0200  0.4429  0.9421
45548SOL    HW145612   2.020   2.336   8.737  0.0826  2.0495  0.0897
45548SOL    HW245613   1.881   2.279   8.718  0.6906  0.6518 -0.3167
45549SOL     OW45614   2.065   9.705   5.394  0.3099  0.3461 -0.1005
45549SOL    HW145615   2.041   9.783   5.344 -2.7039 -1.5398 -1.8984
45549SOL    HW245616   2.093   9.739   5.479 -1.0092  3.3799 -0.7360
45550SOL     OW45617   3.790   2.593   8.046 -0.1546  0.3236  0.4639
45550SOL    HW145618   3.834   2.510   8.028 -1.7150 -0.9729  2.3006
45550SOL    HW245619   3.755   2.620   7.961 -0.7720 -1.6190  0.0426
45551SOL     OW45620   1.940   2.672   0.965  0.3219  0.4986  0.1822
45551SOL    HW145621   1.998   2.748   0.958 -1.2548  2.0108  2.4034
45551SOL    HW245622   1.930   2.642   0.875  2.3919  1.8187 -0.5602
45552SOL     OW45623  11.752   8.606   8.113  0.2075 -0.1813  0.5683
45552SOL    HW145624  11.823   8.633   8.171  0.9592  2.1685 -1.2745
45552SOL    HW245625  11.797   8.573   8.035 -0.7412 -0.3435  0.0738
45553SOL     OW45626   3.411   7.486   5.051 -0.0872  0.2291  0.2287
45553SOL    HW145627   3.442   7.456   5.137 -0.1921 -1.8821 -0.4132
45553SOL    HW245628   3.316   7.473   5.054 -0.3893  2.1358  0.4814
45554SOL     OW45629   8.607   1.475   1.973 -0.0566 -0.3816  0.3303
45554SOL    HW145630   8.532   1.500   1.919  1.9065  1.6854 -1.6212
45554SOL    HW245631   8.591   1.517   2.058 -0.4799  1.2276 -0.5068
45555SOL     OW45632   3.273   2.461   8.294  0.0338  0.4903 -0.2676
45555SOL    HW145633   3.261   2.366   8.290 -1.7745  0.6796 -0.0570
45555SOL    HW245634   3.345   2.473   8.356  0.7254 -0.7508 -0.7938
45556SOL     OW45635   1.299   5.621   2.044 -0.4515 -0.5034  0.2345
45556SOL    HW145636   1.233   5.649   2.107  1.5577  2.3923  1.3130
45556SOL    HW245637   1.381   5.657   2.078  1.2100 -1.2683 -2.5846
45557SOL     OW45638   9.310   3.554   5.026  0.2703 -0.1759 -1.0859
45557SOL    HW145639   9.375   3.606   5.073  0.1431  0.1391 -1.2553
45557SOL    HW245640   9.253   3.619   4.985 -0.8215 -0.4202 -0.0181
45558SOL     OW45641  10.607   5.046   7.646 -0.2958 -0.6262 -0.7057
45558SOL    HW145642  10.626   5.085   7.732  0.1576 -2.0342 -0.1357
45558SOL    HW245643  10.540   4.980   7.664 -0.5960 -0.5560 -1.5290
45559SOL     OW45644   6.076   6.264   8.241  0.3681 -0.1935 -0.1960
45559SOL    HW145645   6.036   6.220   8.166  1.7284 -0.9033 -0.5347
45559SOL    HW245646   6.143   6.320   8.203  2.4707 -2.0590  0.5445
45560SOL     OW45647   5.027   6.789   8.779  0.1237  0.0461  0.1826
45560SOL    HW145648   4.999   6.745   8.859  1.5312 -2.0487 -0.3947
45560SOL    HW245649   5.064   6.719   8.724  2.0468  1.8653 -1.0131
45561SOL     OW45650   3.134   7.230   5.362  0.3005  0.5480  0.0514
45561SOL    HW145651   3.096   7.155   5.316 -0.0481 -0.3946  1.7932
45561SOL    HW245652   3.077   7.242   5.439  2.3261  0.3628  1.6647
45562SOL     OW45653   6.383   4.331   1.790  0.1401  0.6995  0.0365
45562SOL    HW145654   6.409   4.371   1.873  0.0803  1.7789 -0.4571
45562SOL    HW245655   6.398   4.398   1.724 -0.1348 -0.0284 -0.7933
45563SOL     OW45656   7.239   4.216   8.585 -0.0803  0.4678  0.0945
45563SOL    HW145657   7.251   4.194   8.678 -0.0033  1.3780  0.3118
45563SOL    HW245658   7.146   4.200   8.569 -0.1610  0.5888  0.4160
45564SOL     OW45659   8.362   4.695   4.525  0.3038 -0.2128  0.6231
45564SOL    HW145660   8.365   4.756   4.451  0.3464  0.8240  1.4647
45564SOL    HW245661   8.430   4.726   4.585  0.0367 -0.8360  1.2614
45565SOL     OW45662   3.439   8.135   4.384 -0.0834 -0.0594 -0.1151
45565SOL    HW145663   3.348   8.134   4.414  0.4068  0.9977  1.5618
45565SOL    HW245664   3.466   8.043   4.389 -0.9045 -0.3110 -0.1248
45566SOL     OW45665   5.249   1.955   2.603  0.0364  0.7291 -0.1972
45566SOL    HW145666   5.216   1.879   2.555 -0.3675  0.3925  0.5974
45566SOL    HW245667   5.205   2.030   2.563  0.5059  0.5634 -1.0460
45567SOL     OW45668  11.701   0.548   7.762 -0.3558 -0.4272  0.2796
45567SOL    HW145669  11.789   0.527   7.732  0.1915 -0.3871  1.7688
45567SOL    HW245670  11.711   0.568   7.855 -1.8366  0.2398  0.3365
45568SOL     OW45671   9.753  11.880   2.046 -0.5352 -0.2828 -0.3208
45568SOL    HW145672   9.728  11.946   2.111 -4.0619 -1.9414  0.2289
45568SOL    HW245673   9.750  11.927   1.963  1.3281  1.2058  0.3683
45569SOL     OW45674   0.921   5.781   4.845 -0.0212 -0.4556 -0.4582
45569SOL    HW145675   0.947   5.797   4.754  2.2262 -0.4217  0.1217
45569SOL    HW245676   0.965   5.700   4.869 -0.9247 -0.6936  0.4857
45570SOL     OW45677   3.921   3.837  10.977  0.2158  0.1471 -0.1508
45570SOL    HW145678   3.945   3.805  11.064  2.1875  4.0848  0.9738
45570SOL    HW245679   3.826   3.830  10.974  0.1520 -0.7669  2.0026
45571SOL     OW45680   8.131   8.911   2.670 -0.6209 -0.0064  0.6541
45571SOL    HW145681   8.088   8.991   2.701  0.4621  0.2853  1.4634
45571SOL    HW245682   8.126   8.916   2.575 -1.5257  0.4747  0.7124
45572SOL     OW45683   1.528  10.414   9.669 -0.2285 -0.4149  0.0486
45572SOL    HW145684   1.571  10.385   9.750 -1.0446 -0.2714  0.5524
45572SOL    HW245685   1.434  10.411   9.690 -0.4218  0.3049 -0.6708
45573SOL     OW45686   4.596   7.293   3.786  0.0312 -0.7006 -0.0112
45573SOL    HW145687   4.637   7.314   3.702  0.8075 -1.0771  0.2582
45573SOL    HW245688   4.670   7.289   3.848 -0.6696  1.0088  0.9915
45574SOL     OW45689   6.104  11.013   6.571 -0.2786  0.2305  0.3007
45574SOL    HW145690   6.034  11.072   6.601 -0.3795  0.6942 -0.7934
45574SOL    HW245691   6.058  10.932   6.547 -0.2118 -0.0986  1.2615
45575SOL     OW45692   8.185   3.544   4.511 -0.1987 -0.2206 -0.2179
45575SOL    HW145693   8.158   3.611   4.448  1.3652  0.2081 -0.4644
45575SOL    HW245694   8.207   3.593   4.591  2.1814 -0.2323 -0.7933
45576SOL     OW45695   0.185   5.066   1.933 -0.0159  0.6069 -0.3396
45576SOL    HW145696   0.100   5.041   1.969  0.8162 -1.5259  0.3492
45576SOL    HW245697   0.190   5.161   1.946 -1.4205  0.4879  1.5557
45577SOL     OW45698   5.352   9.266   2.138 -0.0830  0.4710  0.1923
45577SOL    HW145699   5.416   9.199   2.161 -0.9801  0.3219  2.5356
45577SOL    HW245700   5.401   9.349   2.144  0.2463  0.2599  0.4410
45578SOL     OW45701   9.626   7.329   6.888  0.7466 -0.8080 -0.7411
45578SOL    HW145702   9.545   7.309   6.840 -0.0482 -0.9374  0.6111
45578SOL    HW245703   9.627   7.266   6.960  0.2888  1.3579  1.2567
45579SOL     OW45704  11.611   3.410   8.589 -0.1522 -0.6898  0.2520
45579SOL    HW145705  11.607   3.459   8.671 -0.3871 -1.1282  0.5036
45579SOL    HW245706  11.684   3.349   8.601  0.3640 -0.1749 -0.1919
45580SOL     OW45707  10.918   0.543   9.590 -0.1115  0.6019 -0.6900
45580SOL    HW145708  11.003   0.536   9.633  0.7657  0.3555 -2.3844
45580SOL    HW245709  10.871   0.609   9.641  1.2500  1.0427  0.0392
45581SOL     OW45710   5.925   8.446   8.057 -0.2968  0.2655  0.2510
45581SOL    HW145711   5.855   8.385   8.036  1.2750 -1.7754  0.6052
45581SOL    HW245712   5.887   8.505   8.122 -2.7082  1.5225 -2.0740
45582SOL     OW45713   8.744  11.401   7.959 -0.0824 -0.2179 -0.2699
45582SOL    HW145714   8.828  11.368   7.992 -0.6291 -1.0419  0.3316
45582SOL    HW245715   8.768  11.453   7.882  1.1029  0.7676  0.7247
45583SOL     OW45716  10.491   5.425  11.673 -0.3022  0.3094  0.4896
45583SOL    HW145717  10.568   5.481  11.673  0.1642 -0.3157  0.8276
45583SOL    HW245718  10.518   5.347  11.722 -1.0638 -0.0301  0.3869
45584SOL     OW45719   8.156   9.738  10.578  1.0948 -0.4183 -0.3301
45584SOL    HW145720   8.065   9.758  10.554 -0.0219 -3.0781  1.1989
45584SOL    HW245721   8.150   9.656  10.627  4.1008  0.4741  1.8100
45585SOL     OW45722  10.622   2.658   5.943  0.2547 -0.2955 -0.4031
45585SOL    HW145723  10.654   2.692   6.026  0.3063  0.1211 -0.5904
45585SOL    HW245724  10.698   2.664   5.884 -0.0860  0.4422 -0.7744
45586SOL     OW45725   5.589   2.741   3.750  0.2029 -0.2156 -0.2433
45586SOL    HW145726   5.580   2.659   3.701 -1.2476 -0.0871 -0.2309
45586SOL    HW245727   5.500   2.765   3.773  0.5739  1.4970 -0.4446
45587SOL     OW45728   7.576   5.924   8.535 -0.2235  0.2301  0.0472
45587SOL    HW145729   7.607   5.908   8.446  0.0488  0.4533  0.1036
45587SOL    HW245730   7.595   5.842   8.581  0.4467  0.4291  0.1284
45588SOL     OW45731   8.225   2.977   0.565  0.3174  0.1281 -0.7368
45588SOL    HW145732   8.171   2.995   0.642 -0.1315 -0.2944 -0.9575
45588SOL    HW245733   8.198   2.891   0.535 -0.5022  0.8499 -2.1970
45589SOL     OW45734  11.405  11.411   5.487  0.5766  0.0285  0.2482
45589SOL    HW145735  11.402  11.322   5.451  0.2215 -0.4099  1.3257
45589SOL    HW245736  11.450  11.401   5.571 -0.0988  0.7490  0.7068
45590SOL     OW45737   4.418  11.894  10.975  0.3808  0.4752 -0.3987
45590SOL    HW145738   4.497  11.944  10.992  1.3980 -0.5533 -1.8118
45590SOL    HW245739   4.441  11.803  10.996 -1.4975  0.5195  2.3756
45591SOL     OW45740   2.038  12.316   3.573 -0.3509  0.6741 -0.5261
45591SOL    HW145741   2.064  12.348   3.487 -1.9473  0.8254 -0.9821
45591SOL    HW245742   2.051  12.221   3.568 -0.6127  0.6634 -0.9863
45592SOL     OW45743   3.166   1.874  10.482  0.6721  0.0148 -0.1997
45592SOL    HW145744   3.227   1.825  10.426 -0.1852 -0.7040 -0.5407
45592SOL    HW245745   3.086   1.822  10.480  0.3531  0.4360  1.0229
45593SOL     OW45746   4.295  10.116   4.430 -0.0342  0.3857 -0.3180
45593SOL    HW145747   4.288  10.131   4.525 -0.1092 -0.2926 -0.2162
45593SOL    HW245748   4.389  10.120   4.412  0.0163  0.0534 -0.1373
45594SOL     OW45749   9.538  12.546   4.785  0.5542  0.1697  0.4624
45594SOL    HW145750   9.570  12.616   4.728  0.9753  0.5216  1.1276
45594SOL    HW245751   9.614  12.489   4.799  0.9648  1.0573  2.1222
45595SOL     OW45752   6.752   4.370   1.565 -0.1735 -0.2160 -0.0483
45595SOL    HW145753   6.748   4.357   1.660 -0.6951 -0.1352 -0.0581
45595SOL    HW245754   6.761   4.465   1.554  3.4262 -0.4147  0.0153
45596SOL     OW45755  11.144   4.110   0.492  0.4647 -0.5779  0.4257
45596SOL    HW145756  11.183   4.120   0.405 -0.4842 -0.2225  0.0256
45596SOL    HW245757  11.073   4.046   0.479 -0.7545  0.6978  0.5628
45597SOL     OW45758   2.616   7.555   9.338 -0.4938 -0.6646  0.1720
45597SOL    HW145759   2.619   7.519   9.427 -1.2055 -1.0721  0.0302
45597SOL    HW245760   2.613   7.479   9.281 -0.2940 -0.3982 -0.1949
45598SOL     OW45761   2.447   1.745   5.954 -0.0600  0.2063 -0.5214
45598SOL    HW145762   2.425   1.820   6.009 -1.1517 -0.8001  0.4719
45598SOL    HW245763   2.543   1.742   5.955  0.0165 -0.5623  2.5334
45599SOL     OW45764   8.335   9.798  10.362 -0.3863  0.2284 -0.7651
45599SOL    HW145765   8.320   9.891  10.345  0.1243  0.0592 -2.2941
45599SOL    HW245766   8.294   9.783  10.447  0.8472  2.1828  0.2510
45600SOL     OW45767   8.001   1.002  11.984 -0.5914 -0.0661 -0.0147
45600SOL    HW145768   7.952   0.998  12.067 -0.3317  0.3198  0.1609
45600SOL    HW245769   8.007   1.096  11.965 -2.0941 -0.1934 -1.3433
45601SOL     OW45770   5.359   0.020   8.689 -0.5700 -0.1293 -0.2309
45601SOL    HW145771   5.265   0.041   8.685 -0.7946 -0.7010  1.3424
45601SOL    HW245772   5.383   0.003   8.598 -1.9779  0.1044 -0.6803
45602SOL     OW45773   3.119  10.707   4.504  0.4027  1.0413  0.1625
45602SOL    HW145774   3.100  10.764   4.429 -0.8509  0.3503 -0.0755
45602SOL    HW245775   3.211  10.723   4.524  0.4469  2.0961 -0.7913
45603SOL     OW45776  11.091   6.582   1.702 -0.6333  0.1704 -0.3938
45603SOL    HW145777  11.080   6.677   1.698 -0.8201  0.1098 -1.4744
45603SOL    HW245778  11.027   6.548   1.639 -0.8648 -0.6996  0.2864
45604SOL     OW45779  10.659   8.175   8.082  0.1644 -0.2398 -0.0680
45604SOL    HW145780  10.706   8.233   8.141  0.6552  0.8241 -1.4433
45604SOL    HW245781  10.602   8.233   8.031 -2.7515 -1.4572  1.5374
45605SOL     OW45782   0.568   4.040   3.696  0.0250 -0.1832 -0.2296
45605SOL    HW145783   0.615   4.112   3.654 -0.5726  0.7110  0.6031
45605SOL    HW245784   0.508   4.082   3.758  0.7161 -1.4381  1.3771
45606SOL     OW45785   6.950   3.498   9.439  0.7228 -0.5226  0.5180
45606SOL    HW145786   6.900   3.468   9.364 -0.8193  0.7840  0.9486
45606SOL    HW245787   6.946   3.594   9.434  1.9479 -0.3960  1.3982
45607SOL     OW45788   4.807   6.342   0.035 -0.7401 -0.4594  0.2888
45607SOL    HW145789   4.732   6.304   0.081 -2.3380  0.2580 -1.5913
45607SOL    HW245790   4.774   6.362  -0.053  2.1309 -1.7421 -1.2333
45608SOL     OW45791   8.800   5.864   5.784 -0.3976  0.8308  0.1097
45608SOL    HW145792   8.750   5.874   5.865 -0.2335 -0.9068  0.4724
45608SOL    HW245793   8.828   5.953   5.762 -0.7328  1.3896  1.7763
45609SOL     OW45794  11.785   3.125   0.476  0.2051 -0.3480  0.4154
45609SOL    HW145795  11.815   3.144   0.565 -0.6022 -1.8566  1.0538
45609SOL    HW245796  11.751   3.036   0.481 -0.0045 -0.4049 -1.3854
45610SOL     OW45797   6.972   9.840   3.261 -0.7072  0.0495  0.6177
45610SOL    HW145798   6.879   9.854   3.277 -0.5666 -0.3139  1.9030
45610SOL    HW245799   7.014   9.854   3.346  0.2666 -0.9210  0.3351
45611SOL     OW45800   8.682   2.635   2.166  0.5238 -0.3854  0.1600
45611SOL    HW145801   8.765   2.681   2.178  0.5953 -0.4605 -0.0506
45611SOL    HW245802   8.706   2.543   2.157  0.4567 -0.3476 -0.4049
45612SOL     OW45803   0.273  12.556   8.056 -0.0414  0.3301  0.3643
45612SOL    HW145804   0.183  12.570   8.086  0.6858  1.8008  2.0428
45612SOL    HW245805   0.304  12.480   8.106 -0.5962 -0.7740 -0.9011
45613SOL     OW45806   4.351   1.138   5.694  0.6954 -0.2773  0.1644
45613SOL    HW145807   4.363   1.095   5.778  1.4890  0.4986  0.4631
45613SOL    HW245808   4.264   1.177   5.699  1.1599  0.6825  1.0660
45614SOL     OW45809  11.635   5.587   2.429  0.0967  0.2229 -0.0518
45614SOL    HW145810  11.581   5.609   2.354 -0.8823  1.1016  0.8872
45614SOL    HW245811  11.704   5.531   2.393 -0.7262  0.0808 -1.4786
45615SOL     OW45812  10.120  11.222   8.894 -0.4070 -0.1452 -0.4182
45615SOL    HW145813  10.139  11.222   8.800 -2.9663  0.3660 -0.9981
45615SOL    HW245814  10.180  11.287   8.930  0.8933 -0.6242 -1.6045
45616SOL     OW45815   2.380   5.594   5.054  0.4117  0.2574  0.5909
45616SOL    HW145816   2.351   5.621   5.140 -0.7010  1.8173 -0.2330
45616SOL    HW245817   2.429   5.513   5.069  0.1446  0.4430  2.6433
45617SOL     OW45818  10.272   4.914   4.140 -0.0350 -0.1979  0.2336
45617SOL    HW145819  10.304   4.976   4.205  0.3720 -0.8693  0.6874
45617SOL    HW245820  10.320   4.936   4.060  0.2807 -0.0857  0.4549
45618SOL     OW45821  10.506   7.585   8.847 -0.2912  0.1503  0.7003
45618SOL    HW145822  10.415   7.565   8.829 -0.4371  0.9386  0.5479
45618SOL    HW245823  10.516   7.677   8.823  0.8362 -0.2362 -0.4397
45619SOL     OW45824   6.947   9.504   7.275  0.4376 -0.0000  0.1845
45619SOL    HW145825   6.904   9.450   7.208  1.3348  0.1979 -0.5717
45619SOL    HW245826   6.876   9.557   7.312 -0.0446  0.0531 -0.7720
45620SOL     OW45827   2.593  10.512  10.321  0.2832 -0.3013 -0.1357
45620SOL    HW145828   2.558  10.449  10.383  0.1555  1.5565  1.7723
45620SOL    HW245829   2.653  10.461  10.266 -1.2790 -2.4419  0.0032
45621SOL     OW45830  11.994   7.683   3.857 -0.5284  0.2636 -0.1385
45621SOL    HW145831  11.990   7.779   3.847 -0.7877  0.2826  0.1245
45621SOL    HW245832  12.073   7.668   3.909  0.0703  0.2583 -1.0092
45622SOL     OW45833   2.866   6.057   1.643  0.1313 -0.4841  0.3029
45622SOL    HW145834   2.832   5.990   1.585  1.4414 -0.1219 -0.9262
45622SOL    HW245835   2.928   6.011   1.700 -1.9378 -1.0590  2.2569
45623SOL     OW45836   0.510   5.921   4.167 -0.1976 -0.3415 -0.1144
45623SOL    HW145837   0.456   5.947   4.242 -0.2521 -0.7137 -0.0213
45623SOL    HW245838   0.536   5.831   4.187 -2.2766 -1.3960 -1.7040
45624SOL     OW45839   8.970  10.489   2.236  0.4194 -0.3165  0.0967
45624SOL    HW145840   8.961  10.405   2.282  0.8933 -0.3380  0.1606
45624SOL    HW245841   8.994  10.465   2.146 -0.9062 -0.2876 -0.2766
45625SOL     OW45842   7.591   6.927  10.665 -0.1785  0.2383 -0.3640
45625SOL    HW145843   7.631   6.931  10.752 -1.9982  2.3962  0.4782
45625SOL    HW245844   7.618   6.842  10.630  2.0095  0.0226  1.5899
45626SOL     OW45845   1.453   5.619   5.454  0.0069  0.3454  0.0295
45626SOL    HW145846   1.407   5.667   5.385  1.0999  1.5563  0.0959
45626SOL    HW245847   1.467   5.685   5.523  0.6285 -0.3402  0.5717
45627SOL     OW45848   6.196   3.976   9.941 -0.1226  0.6180 -0.4195
45627SOL    HW145849   6.160   3.930   9.866 -0.9967  0.8410 -0.1506
45627SOL    HW245850   6.289   3.984   9.922 -0.1360 -0.3211 -0.9542
45628SOL     OW45851  10.768   2.021   9.313 -0.3456 -0.2853 -0.1802
45628SOL    HW145852  10.750   2.087   9.246  0.8106 -1.9916 -2.2881
45628SOL    HW245853  10.759   2.068   9.396 -1.9756  1.8844 -1.4941
45629SOL     OW45854   2.626   4.912   2.561 -0.5433  0.3875  0.0151
45629SOL    HW145855   2.658   4.841   2.617  1.4971  1.2596  0.0092
45629SOL    HW245856   2.542   4.879   2.528 -0.0629 -1.6687  0.6690
45630SOL     OW45857   6.109  10.624   2.559 -0.4500 -0.0230  0.1412
45630SOL    HW145858   6.124  10.585   2.644  1.4110 -0.4037 -0.3163
45630SOL    HW245859   6.018  10.602   2.538 -1.1830  0.7008  2.3012
45631SOL     OW45860   0.445  10.564  10.406  0.2547 -0.0667 -0.2690
45631SOL    HW145861   0.426  10.627  10.476 -0.4356 -1.1777  0.5795
45631SOL    HW245862   0.363  10.516  10.394  0.8901 -1.0814 -0.6075
45632SOL     OW45863   3.938   4.381   4.585  0.0052  0.0358 -0.0508
45632SOL    HW145864   3.959   4.414   4.672  1.1177 -0.7686  0.0102
45632SOL    HW245865   3.974   4.292   4.584 -1.1305 -0.4412 -0.8922
45633SOL     OW45866   8.360   7.798   4.709 -0.4425  0.1544  0.3337
45633SOL    HW145867   8.344   7.779   4.801 -0.3272 -0.5021  0.2259
45633SOL    HW245868   8.328   7.887   4.696  1.8902  1.2744  1.6252
45634SOL     OW45869   2.245   1.647   8.483 -0.6752 -0.2720 -0.0195
45634SOL    HW145870   2.291   1.567   8.506 -1.7068 -0.7924  0.2686
45634SOL    HW245871   2.153   1.629   8.502 -1.0877  0.5423 -1.1283
45635SOL     OW45872   6.145   6.063   1.012  0.1298 -0.1244  0.2023
45635SOL    HW145873   6.141   5.985   1.068 -3.4102 -1.4031 -1.4899
45635SOL    HW245874   6.066   6.112   1.035 -0.7741 -0.0648 -2.6768
45636SOL     OW45875   1.232   9.418   1.873  0.0361 -0.6634  0.1668
45636SOL    HW145876   1.181   9.338   1.863 -2.3855  0.3645  2.8508
45636SOL    HW245877   1.216   9.446   1.963  2.7201  1.6054  0.0894
45637SOL     OW45878   9.757   0.396   4.199 -0.0524  0.9070 -0.4630
45637SOL    HW145879   9.766   0.455   4.273  0.3868 -0.1288  0.3367
45637SOL    HW245880   9.847   0.372   4.177 -0.2341  0.3400 -0.6070
45638SOL     OW45881   0.309   3.623  10.619  0.3676  0.1325 -0.2219
45638SOL    HW145882   0.344   3.698  10.667  1.3536  0.0524 -0.7941
45638SOL    HW245883   0.253   3.578  10.683 -0.1511  1.2830  0.1496
45639SOL     OW45884   5.804   1.637   6.359 -0.4075 -0.6640 -0.3755
45639SOL    HW145885   5.858   1.559   6.374 -0.6538 -0.6854  0.4742
45639SOL    HW245886   5.862   1.697   6.313  0.3620 -0.6796  0.5385
45640SOL     OW45887   3.870   7.083   2.696  0.6051  0.0280  0.0053
45640SOL    HW145888   3.796   7.046   2.648  1.4411 -0.7288 -0.7528
45640SOL    HW245889   3.904   7.152   2.638  0.1393  0.7849  0.6182
45641SOL     OW45890   3.702   4.388   4.901  0.1891 -0.0254  0.0605
45641SOL    HW145891   3.726   4.295   4.891 -1.2402 -0.5382  1.0703
45641SOL    HW245892   3.748   4.415   4.981  1.1259  0.3463 -0.5853
45642SOL     OW45893  12.185   9.052   3.464  0.3348 -0.1531  0.1913
45642SOL    HW145894  12.106   9.106   3.456 -2.0951 -3.5364 -0.8263
45642SOL    HW245895  12.221   9.049   3.376 -0.3727 -1.2284 -0.0861
45643SOL     OW45896   3.250  12.345  10.131  0.2656 -0.7922  0.0916
45643SOL    HW145897   3.300  12.284  10.184 -1.7177 -1.5592  1.1970
45643SOL    HW245898   3.261  12.430  10.174  2.1824 -0.5152 -0.8523
45644SOL     OW45899   4.549   5.385   5.661  0.3643  0.6642  0.2753
45644SOL    HW145900   4.592   5.317   5.609 -0.8932 -0.9778  1.2915
45644SOL    HW245901   4.514   5.446   5.596 -2.0429 -1.8496 -0.9874
45645SOL     OW45902   6.035   5.372  10.510 -0.5056  0.0399 -0.0993
45645SOL    HW145903   6.094   5.389  10.584  1.2168 -0.8767 -1.1811
45645SOL    HW245904   6.050   5.279  10.489  0.5488  0.7178 -2.7758
45646SOL     OW45905   7.639  10.839   8.924 -0.7013 -0.1705 -0.5831
45646SOL    HW145906   7.689  10.762   8.900  0.0603 -0.0781  0.6323
45646SOL    HW245907   7.548  10.808   8.930 -0.5302 -0.7584 -0.9903
45647SOL     OW45908  12.140   8.565   0.714 -0.2262  0.2957 -0.9051
45647SOL    HW145909  12.206   8.544   0.780 -1.3854 -1.6044 -0.2709
45647SOL    HW245910  12.064   8.595   0.765 -0.4344  0.8349 -1.5182
45648SOL     OW45911   2.918   3.853  10.087 -0.1199  0.4441  0.4258
45648SOL    HW145912   2.991   3.913  10.106  0.1816 -0.0586  0.8946
45648SOL    HW245913   2.961   3.769  10.070 -0.6096  0.0402  1.1295
45649SOL     OW45914   8.191  11.650   8.463 -0.2638  0.0650  0.1796
45649SOL    HW145915   8.262  11.628   8.522 -0.5448 -0.0222  0.4873
45649SOL    HW245916   8.113  11.651   8.518 -0.5655 -0.2620 -0.2346
45650SOL     OW45917  12.423   6.090   0.999 -0.1297 -0.1767 -0.1250
45650SOL    HW145918  12.432   6.072   1.093  0.6829  0.0117 -0.1611
45650SOL    HW245919  12.512   6.084   0.965 -0.2701  0.8042 -0.6912
45651SOL     OW45920  12.338  10.255   7.463  0.1151  0.1733  0.2426
45651SOL    HW145921  12.278  10.201   7.513  1.3434 -3.1927 -1.6056
45651SOL    HW245922  12.282  10.308   7.407 -1.1654 -0.4392  0.8972
45652SOL     OW45923   5.885  10.846   3.052 -0.1437  0.3007  0.1777
45652SOL    HW145924   5.839  10.921   3.090 -0.1986 -0.9090  2.7827
45652SOL    HW245925   5.978  10.867   3.061 -0.1662  0.3010  0.4317
45653SOL     OW45926   0.918  10.966   6.585  0.1106  0.4077  0.0209
45653SOL    HW145927   0.895  11.059   6.593  1.3744  0.9611 -1.9225
45653SOL    HW245928   0.869  10.936   6.509 -0.3987 -0.5768  0.7249
45654SOL     OW45929  11.597  11.906   0.817  0.0166  0.6675 -0.5013
45654SOL    HW145930  11.553  11.861   0.890  2.0020  0.9079  0.9319
45654SOL    HW245931  11.566  11.996   0.822  1.6457  1.2172  1.4684
45655SOL     OW45932   9.745   7.932   5.552 -0.0410 -0.1990  0.6216
45655SOL    HW145933   9.760   7.854   5.606 -3.6023 -0.9164  0.7984
45655SOL    HW245934   9.725   7.896   5.465  0.3455  0.6759  0.1602
45656SOL     OW45935   8.839   7.722  10.686  0.3754  0.2578 -0.2781
45656SOL    HW145936   8.902   7.789  10.715  0.4732 -0.4712  1.2977
45656SOL    HW245937   8.763   7.772  10.656  0.5976  1.1038  0.5139
45657SOL     OW45938   8.768   9.276   2.933  0.2681  0.1113 -0.4162
45657SOL    HW145939   8.751   9.228   3.014 -0.9864 -0.9708 -1.2588
45657SOL    HW245940   8.774   9.367   2.960 -0.3660 -0.1957  0.8774
45658SOL     OW45941   2.449  11.895   7.961 -0.0696  0.2739  0.5021
45658SOL    HW145942   2.420  11.985   7.947 -0.0294  0.0055 -1.6414
45658SOL    HW245943   2.406  11.868   8.041 -1.4069  1.6609  0.2960
45659SOL     OW45944   5.838   7.949   3.994 -0.1532 -0.0146  0.2088
45659SOL    HW145945   5.810   7.935   4.085 -1.0518  1.5537  0.2220
45659SOL    HW245946   5.796   8.032   3.969 -0.2801 -0.6245 -1.7855
45660SOL     OW45947   5.630   6.639   0.507  0.3446 -0.3647  0.1365
45660SOL    HW145948   5.648   6.728   0.537 -2.4934  0.4765 -0.3647
45660SOL    HW245949   5.700   6.620   0.445  0.0865  2.2792 -1.1176
45661SOL     OW45950   6.845   4.623   7.916 -0.4013 -0.2856 -0.0876
45661SOL    HW145951   6.790   4.636   7.838 -0.4911  1.2010  0.1879
45661SOL    HW245952   6.871   4.712   7.941  2.1314 -0.9246 -0.1911
45662SOL     OW45953   3.710   7.142   4.450  0.4649 -1.2151  0.8395
45662SOL    HW145954   3.670   7.229   4.456 -0.7098 -1.7254  0.7611
45662SOL    HW245955   3.802   7.159   4.433  0.0274  0.0180 -0.5277
45663SOL     OW45956   5.885   5.058   2.777  0.1900 -0.2312 -0.3480
45663SOL    HW145957   5.849   4.974   2.804 -0.6667  0.6928  1.5651
45663SOL    HW245958   5.901   5.105   2.859 -1.2216  2.2176 -1.3589
45664SOL     OW45959   3.735   1.383   7.556  0.3780 -0.0641  0.2393
45664SOL    HW145960   3.656   1.333   7.578  0.6720 -1.0655 -0.8790
45664SOL    HW245961   3.744   1.445   7.628 -1.6038  0.3030  0.2389
45665SOL     OW45962   4.020   5.681   9.297  0.4404 -0.4304 -0.4241
45665SOL    HW145963   4.100   5.642   9.334  0.2751 -0.3799 -0.0070
45665SOL    HW245964   3.958   5.682   9.370 -0.2794 -1.3696 -1.0024
45666SOL     OW45965   7.942   9.612   3.953 -0.0639  0.4157  0.1869
45666SOL    HW145966   7.997   9.649   3.884 -0.1485 -2.2794 -1.4864
45666SOL    HW245967   7.994   9.541   3.990 -1.4013 -0.4874  0.4103
45667SOL     OW45968  11.767   5.801   5.749  0.3974  0.3252 -0.1381
45667SOL    HW145969  11.850   5.849   5.751  0.6522  0.0029 -1.4577
45667SOL    HW245970  11.751   5.788   5.655 -0.1010 -1.3862  0.1620
45668SOL     OW45971   5.578   4.960   9.567 -0.7939 -0.0262 -0.3496
45668SOL    HW145972   5.484   4.945   9.567 -1.1541  1.8239 -1.8938
45668SOL    HW245973   5.594   5.015   9.490  1.5043  0.0111  0.0717
45669SOL     OW45974   7.006   9.274  10.458 -0.4898 -0.4543  0.1877
45669SOL    HW145975   7.054   9.192  10.449  1.5506  0.6303  0.5143
45669SOL    HW245976   6.931   9.253  10.514  0.7882 -1.7843  1.4724
45670SOL     OW45977  12.067   6.186   4.664 -0.3121 -0.4937  0.3375
45670SOL    HW145978  11.974   6.203   4.650 -0.7979 -1.9245  1.5707
45670SOL    HW245979  12.096   6.255   4.723 -0.2725  0.6454 -0.9642
45671SOL     OW45980  10.711   4.045   0.858 -0.1613  0.2083  0.1964
45671SOL    HW145981  10.745   4.132   0.834  0.0089  0.1053  0.0603
45671SOL    HW245982  10.617   4.050   0.841 -0.0312  0.1119 -0.5697
45672SOL     OW45983   1.331   8.868   8.722  0.4959 -0.1057 -0.2526
45672SOL    HW145984   1.266   8.854   8.791 -0.7503 -0.7304 -1.4982
45672SOL    HW245985   1.373   8.951   8.744 -1.1868  0.6557  0.2504
45673SOL     OW45986   8.203   8.703   0.265  0.1615  0.4830 -0.0951
45673SOL    HW145987   8.265   8.739   0.202 -0.1409 -0.9225 -1.2434
45673SOL    HW245988   8.245   8.624   0.297 -0.2931  0.4531  0.4305
45674SOL     OW45989   8.127   7.862  10.940 -0.1704  0.1541  0.1817
45674SOL    HW145990   8.137   7.813  11.022 -1.3995 -1.4422 -0.5481
45674SOL    HW245991   8.205   7.841  10.889 -0.4154 -0.5978  0.1085
45675SOL     OW45992   3.269   2.716   8.167  0.0529 -0.5279  0.2103
45675SOL    HW145993   3.345   2.746   8.218  0.1606  0.6723 -0.5989
45675SOL    HW245994   3.268   2.621   8.179  2.2280 -0.7108 -0.4301
45676SOL     OW45995   8.408   6.995   6.936  0.1914  0.4600 -0.2575
45676SOL    HW145996   8.465   7.003   6.859 -0.8892  0.3995 -1.0823
45676SOL    HW245997   8.414   6.902   6.960  2.7533  0.9872  1.5198
45677SOL     OW45998   4.833   3.325   9.004 -0.0963  0.0648  0.2888
45677SOL    HW145999   4.831   3.316   8.908  0.7851 -0.2004  0.2901
45677SOL    HW246000   4.900   3.390   9.021 -0.1382 -0.0067  0.7438
45678SOL     OW46001  10.516   4.026   8.392 -0.3729  0.3543  0.0441
45678SOL    HW146002  10.496   3.946   8.343 -0.5319  1.1821 -1.3030
45678SOL    HW246003  10.602   4.011   8.430  0.4112  0.2233 -1.7157
45679SOL     OW46004   6.586   8.716   3.040 -0.0630 -0.2129 -0.4506
45679SOL    HW146005   6.538   8.798   3.032  0.6541  0.1578 -1.0879
45679SOL    HW246006   6.678   8.741   3.030  0.2718 -0.9120  0.6754
45680SOL     OW46007   3.419  10.400   5.270 -0.0068  0.1804  1.0134
45680SOL    HW146008   3.373  10.323   5.303 -0.1336  0.2842  1.0864
45680SOL    HW246009   3.501  10.402   5.319 -0.6308  0.9022  2.0793
45681SOL     OW46010  11.589   7.418  11.921 -0.1548 -0.4991  0.1532
45681SOL    HW146011  11.500   7.389  11.941 -1.2725  1.5935 -1.3728
45681SOL    HW246012  11.587   7.513  11.934  1.2306 -0.1193 -1.9046
45682SOL     OW46013  12.402   7.861   9.658 -0.4412  0.7644  0.2428
45682SOL    HW146014  12.424   7.945   9.697 -1.8864  1.6261 -0.7062
45682SOL    HW246015  12.321   7.877   9.609 -1.9166 -1.6535  1.6760
45683SOL     OW46016   8.895  10.121  10.699 -0.0896  0.4481  0.2862
45683SOL    HW146017   8.836  10.110  10.625  2.6209  0.7751 -2.1125
45683SOL    HW246018   8.900  10.216  10.713 -0.3378  0.4062  0.6758
45684SOL     OW46019   1.432   5.127   1.221  0.2465 -0.1846  0.2081
45684SOL    HW146020   1.361   5.076   1.182 -0.2850  0.9313 -0.3385
45684SOL    HW246021   1.448   5.198   1.158  2.8815 -1.2092 -0.4333
45685SOL     OW46022   8.115   5.121   3.387 -0.1974  0.5799 -0.2610
45685SOL    HW146023   8.070   5.206   3.389 -1.0198  0.1682 -0.6412
45685SOL    HW246024   8.162   5.120   3.304 -1.6367 -0.0361 -1.1084
45686SOL     OW46025   1.016   1.605   7.336  0.2604  0.1400 -0.6451
45686SOL    HW146026   0.940   1.605   7.278  1.1453  0.6665 -1.8433
45686SOL    HW246027   1.081   1.551   7.290  1.0485  0.7352 -0.2524
45687SOL     OW46028   0.707   8.500   9.740 -0.1442  0.0497  0.0738
45687SOL    HW146029   0.636   8.551   9.779  0.0469  1.2993 -1.1397
45687SOL    HW246030   0.767   8.482   9.813 -0.8963  0.3793  0.7845
45688SOL     OW46031   7.699   7.287   0.206 -0.5819 -0.5489 -0.1430
45688SOL    HW146032   7.731   7.319   0.290 -1.0787  0.4597 -0.3294
45688SOL    HW246033   7.778   7.276   0.153 -0.4583  1.5121 -0.4577
45689SOL     OW46034   5.112  11.372   8.730 -0.0527  0.2817 -0.2201
45689SOL    HW146035   5.127  11.278   8.736 -1.8282 -0.0821 -0.8054
45689SOL    HW246036   5.199  11.410   8.721  0.7321 -1.2483  0.5757
45690SOL     OW46037   8.320   4.967   7.529  0.8246 -0.3570 -0.0818
45690SOL    HW146038   8.335   5.033   7.597  1.1723 -1.3005  0.7813
45690SOL    HW246039   8.281   5.016   7.457 -1.3492  0.3770  1.4885
45691SOL     OW46040   2.151   3.862   2.449 -0.1463  0.0998  0.3008
45691SOL    HW146041   2.161   3.802   2.523 -0.3107  0.6664  0.7868
45691SOL    HW246042   2.240   3.887   2.425 -0.1312  0.6678  0.9329
45692SOL     OW46043   7.372   1.015  12.430  0.4334 -0.0549  0.4042
45692SOL    HW146044   7.439   0.976  12.486 -0.8344 -0.8007  1.4619
45692SOL    HW246045   7.384   0.972  12.345  1.3952 -0.0416  0.5251
45693SOL     OW46046   7.094   9.022   9.549  0.0428 -0.1831  0.2298
45693SOL    HW146047   7.136   8.950   9.596  2.8070  1.1750  0.0648
45693SOL    HW246048   7.120   9.011   9.458 -2.1233 -0.6517 -0.3963
45694SOL     OW46049   6.030   8.911   3.072 -0.1179  0.1743 -0.3098
45694SOL    HW146050   6.022   8.935   3.165  1.1681 -0.1667 -0.0884
45694SOL    HW246051   5.940   8.899   3.043 -0.5050 -1.3155  1.3297
45695SOL     OW46052   3.618   0.077   2.210  0.0215  0.3251  0.0733
45695SOL    HW146053   3.529   0.108   2.224 -0.0109 -0.1308  0.9675
45695SOL    HW246054   3.655   0.137   2.146 -0.7267  0.9016  0.1733
45696SOL     OW46055   7.501   2.730   7.907 -0.2566 -0.2145 -0.2905
45696SOL    HW146056   7.579   2.705   7.958  0.0350 -0.4882 -0.8641
45696SOL    HW246057   7.497   2.825   7.916  1.3955  0.0892 -1.9662
45697SOL     OW46058   3.750   6.070  11.984 -0.3851  0.4737  0.2267
45697SOL    HW146059   3.783   6.081  12.073  0.1240 -0.8991  0.2290
45697SOL    HW246060   3.716   6.156  11.960 -2.8632  0.3352  2.6599
45698SOL     OW46061   2.972   8.099  12.463 -0.6624 -0.7432  0.5198
45698SOL    HW146062   2.951   8.190  12.440  3.2931  0.1190 -0.4043
45698SOL    HW246063   2.889   8.063  12.494 -3.1426  2.2614 -1.8697
45699SOL     OW46064   1.376   4.037  11.953 -0.2930  0.2692 -0.5280
45699SOL    HW146065   1.444   4.011  11.891  0.1734 -3.6669  1.2921
45699SOL    HW246066   1.294   4.010  11.912 -0.0924 -1.1981 -0.0103
45700SOL     OW46067  11.114   6.984   0.169  0.2632  0.0828  0.0968
45700SOL    HW146068  11.181   6.924   0.200 -0.3294 -1.0297 -0.7012
45700SOL    HW246069  11.034   6.931   0.166 -0.4914  1.1805  0.3049
45701SOL     OW46070   0.950  12.043  11.474 -0.6886 -0.0665  0.3224
45701SOL    HW146071   0.923  12.120  11.524 -2.0707  1.2113 -2.2002
45701SOL    HW246072   1.006  12.077  11.405  0.3945 -1.6526  0.3557
45702SOL     OW46073  10.717   0.831   4.095  0.3207 -0.6733  0.5926
45702SOL    HW146074  10.683   0.867   4.014  0.3987 -0.2092  0.7597
45702SOL    HW246075  10.646   0.777   4.130  0.4371 -1.2118  0.0115
45703SOL     OW46076   8.535   3.561   0.228 -0.2999  0.1687 -0.0938
45703SOL    HW146077   8.471   3.514   0.281 -0.8899 -0.6058 -1.4364
45703SOL    HW246078   8.532   3.518   0.143  0.7524  1.2433 -0.7093
45704SOL     OW46079   8.733   1.016   8.661 -0.0956  0.0093  0.7501
45704SOL    HW146080   8.646   0.979   8.647 -0.3439  0.8958 -0.1887
45704SOL    HW246081   8.740   1.026   8.756 -0.1341 -2.0912  1.0246
45705SOL     OW46082   4.035   1.131  12.087 -0.2526  0.0582  0.6907
45705SOL    HW146083   3.968   1.184  12.043  0.2832 -1.1210 -1.7239
45705SOL    HW246084   4.007   1.041  12.074  0.5525 -0.3852  1.8296
45706SOL     OW46085  10.251   4.836  11.443 -0.2690  0.0617 -0.0831
45706SOL    HW146086  10.269   4.792  11.360 -0.6634  2.4583 -1.5254
45706SOL    HW246087  10.161   4.867  11.434  0.4355  2.3562  0.2370
45707SOL     OW46088   1.192   2.751   3.427  0.8086  0.6814 -0.7362
45707SOL    HW146089   1.277   2.734   3.468  0.5656 -1.3184 -0.9367
45707SOL    HW246090   1.138   2.788   3.496  1.1288 -0.3730  0.1094
45708SOL     OW46091   1.051  12.529   8.680 -0.2995  0.0618 -0.2047
45708SOL    HW146092   1.026  12.566   8.595  0.5876 -1.1257 -1.0128
45708SOL    HW246093   0.973  12.485   8.711  0.0500 -1.6905 -1.6440
45709SOL     OW46094   0.857  12.275   5.366  0.3419  0.0852  0.3122
45709SOL    HW146095   0.798  12.204   5.391 -0.0351  0.8303  1.6368
45709SOL    HW246096   0.939  12.255   5.412  0.7196 -0.2509 -0.4825
45710SOL     OW46097   7.836   9.143   5.303  0.1609  0.3998 -0.5967
45710SOL    HW146098   7.833   9.092   5.222 -0.5058  0.7718 -0.8144
45710SOL    HW246099   7.854   9.232   5.275 -0.2508  0.5618 -0.3506
45711SOL     OW46100   9.643  11.611   9.005 -0.5981  0.3913  0.1259
45711SOL    HW146101   9.572  11.587   8.945 -1.9299  3.1403  0.4838
45711SOL    HW246102   9.602  11.614   9.091  0.4960 -0.0317  0.6945
45712SOL     OW46103   0.393   2.310   9.943 -0.1327 -0.0474  0.0686
45712SOL    HW146104   0.426   2.396   9.919  0.4197 -0.4216 -0.5502
45712SOL    HW246105   0.469   2.252   9.936 -0.4667 -0.5714  0.5860
45713SOL     OW46106   1.604   7.108   2.408 -0.2825 -0.1265  0.2439
45713SOL    HW146107   1.581   7.168   2.337 -0.0964  0.4323  0.6498
45713SOL    HW246108   1.674   7.054   2.371 -0.9980 -0.6410 -0.3912
45714SOL     OW46109  11.779   8.825  11.194  0.0042  0.2180 -0.2125
45714SOL    HW146110  11.848   8.889  11.212  0.7634 -0.7036  0.1723
45714SOL    HW246111  11.698   8.876  11.201  0.6029  1.1992 -0.1630
45715SOL     OW46112   3.015  11.321   5.099 -0.5460 -0.0705  0.2971
45715SOL    HW146113   3.085  11.382   5.074  1.4448 -1.7764  1.4037
45715SOL    HW246114   3.001  11.267   5.021 -2.5045  1.8263 -0.7794
45716SOL     OW46115   0.738  11.881  11.342  0.0883  0.1641  0.5092
45716SOL    HW146116   0.811  11.921  11.390 -0.1460 -0.7745  1.6946
45716SOL    HW246117   0.690  11.956  11.306  1.4736  0.8125 -0.1055
45717SOL     OW46118   8.426   8.812   6.968 -0.5220  0.4021  0.2766
45717SOL    HW146119   8.463   8.728   6.995 -0.7301  0.6779  1.4628
45717SOL    HW246120   8.498   8.856   6.921 -0.4549 -0.4732 -0.4718
45718SOL     OW46121   5.681   7.227   4.818  0.0945 -0.6078  0.1669
45718SOL    HW146122   5.678   7.211   4.913 -1.8214 -0.2570  0.1848
45718SOL    HW246123   5.617   7.167   4.781 -0.3015  0.3524 -0.7524
45719SOL     OW46124   2.418   9.258   4.220  0.1860  0.0030  0.3258
45719SOL    HW146125   2.433   9.164   4.234 -1.3841 -0.2123  0.7790
45719SOL    HW246126   2.341   9.261   4.163 -0.7236  1.0198  1.5678
45720SOL     OW46127   8.823   3.063   8.114 -0.8360 -0.3233  0.1879
45720SOL    HW146128   8.753   3.018   8.067 -0.9740  0.5084 -0.4338
45720SOL    HW246129   8.801   3.156   8.106  1.3156  0.1149 -1.6947
45721SOL     OW46130   4.959   4.056  10.117 -0.9152 -0.1389 -0.2774
45721SOL    HW146131   4.868   4.028  10.110 -1.0417  0.0731  0.5005
45721SOL    HW246132   4.956   4.150  10.096 -1.0120  0.0626  0.5942
45722SOL     OW46133   8.977   3.566   7.247  0.0278 -0.3685 -0.3139
45722SOL    HW146134   8.933   3.569   7.332  0.4405  1.6554 -0.1074
45722SOL    HW246135   8.929   3.630   7.194  1.5748  0.5653 -0.6452
45723SOL     OW46136   3.477   7.448   2.002  0.1445  0.3534 -0.1557
45723SOL    HW146137   3.562   7.428   2.040  0.1590 -0.2664 -0.5066
45723SOL    HW246138   3.414   7.406   2.061  0.1661 -0.5995 -0.7831
45724SOL     OW46139   2.838  11.348  10.872  0.3639  0.3083 -0.8284
45724SOL    HW146140   2.871  11.371  10.959  1.0089  0.8592 -1.2067
45724SOL    HW246141   2.754  11.306  10.889  0.1374  1.0699  0.0163
45725SOL     OW46142   0.728   3.660   3.412  0.0868 -0.0027  0.8120
45725SOL    HW146143   0.819   3.685   3.428  0.6503 -2.5671  2.1058
45725SOL    HW246144   0.730   3.564   3.407 -2.4036 -0.0653 -0.1490
45726SOL     OW46145  11.344   1.692   3.810  0.6573  0.1521 -0.6065
45726SOL    HW146146  11.433   1.660   3.823  1.0429  1.3333 -0.1613
45726SOL    HW246147  11.316   1.723   3.896 -0.6243 -1.2152 -0.4946
45727SOL     OW46148   4.522   3.724   1.502  0.0592 -0.7131  0.2255
45727SOL    HW146149   4.602   3.688   1.465 -0.3796 -1.4691 -0.0087
45727SOL    HW246150   4.458   3.653   1.495 -1.0091  0.3177 -0.8517
45728SOL     OW46151  11.878  11.816   7.400 -0.0723  0.3610  0.3128
45728SOL    HW146152  11.797  11.833   7.351  0.0988  0.5684  0.1000
45728SOL    HW246153  11.899  11.899   7.440  0.7420  0.6555 -0.6920
45729SOL     OW46154   6.672  11.083   9.737 -0.3184 -0.3911  1.2104
45729SOL    HW146155   6.640  10.993   9.744 -0.0024 -0.6713 -0.4548
45729SOL    HW246156   6.682  11.112   9.828  0.1375 -2.2432  1.7989
45730SOL     OW46157   9.000   7.694   8.458 -0.5310  0.0189  0.1299
45730SOL    HW146158   8.997   7.614   8.511  1.0813 -0.1924 -0.0558
45730SOL    HW246159   9.050   7.670   8.380 -0.3170  1.1173 -0.0893
45731SOL     OW46160   9.057   6.991   5.852  0.1182  0.2663  0.0048
45731SOL    HW146161   9.140   6.944   5.842 -0.5606 -0.7691 -1.0877
45731SOL    HW246162   9.055   7.052   5.778 -1.0778 -1.3462 -1.3874
45732SOL     OW46163   5.730   4.847   6.373 -0.3818 -0.2653 -0.0358
45732SOL    HW146164   5.775   4.825   6.292  0.5975 -1.1995  0.7486
45732SOL    HW246165   5.674   4.771   6.391  0.4969 -0.6939  0.9213
45733SOL     OW46166   1.465  10.945   7.594 -0.1570  0.3967  0.2129
45733SOL    HW146167   1.400  10.900   7.541 -0.4172 -0.7451  1.4426
45733SOL    HW246168   1.536  10.965   7.533 -0.6420 -0.4600 -0.6667
45734SOL     OW46169   0.099   2.204   2.449 -0.4032  0.5695 -0.1657
45734SOL    HW146170   0.110   2.216   2.355  0.7917  0.7001 -0.0252
45734SOL    HW246171   0.026   2.142   2.457 -0.0669  0.0196 -1.1948
45735SOL     OW46172   8.451   3.097   8.231 -0.4118 -0.3862 -0.0860
45735SOL    HW146173   8.504   3.023   8.261  1.6719  1.0037 -0.1266
45735SOL    HW246174   8.465   3.099   8.136 -1.6167 -0.7703 -0.2867
45736SOL     OW46175   6.100  10.393   4.609 -0.1915 -0.1932 -0.0947
45736SOL    HW146176   6.080  10.348   4.527  0.8585  1.8113 -1.5183
45736SOL    HW246177   6.133  10.479   4.583  1.8657 -0.1150  2.3543
45737SOL     OW46178  10.919  10.493   0.544  0.4518 -0.2285  0.0269
45737SOL    HW146179  10.999  10.453   0.510  0.2561 -1.0553  0.5115
45737SOL    HW246180  10.875  10.422   0.591 -1.5733 -0.3736 -1.9280
45738SOL     OW46181   2.752   8.813   1.396 -0.3086  0.5147  0.0927
45738SOL    HW146182   2.774   8.783   1.485  0.2984  1.5077  0.2883
45738SOL    HW246183   2.799   8.752   1.339  0.6409  0.8526  0.4809
45739SOL     OW46184   9.865   2.149  11.676  0.2808  0.6276 -0.6106
45739SOL    HW146185   9.877   2.243  11.667  0.2990  0.4457 -3.1350
45739SOL    HW246186   9.912   2.111  11.601  1.7663 -1.5474  1.2549
45740SOL     OW46187   0.611   5.829   0.921  0.5972  0.1282 -0.3791
45740SOL    HW146188   0.645   5.895   0.861  0.9004 -0.6616 -1.0874
45740SOL    HW246189   0.551   5.877   0.978  0.6038  0.9600 -1.0574
45741SOL     OW46190   0.520   0.405   4.002 -0.0302 -0.2486 -0.1255
45741SOL    HW146191   0.455   0.390   3.933  0.3645  0.5223 -0.6813
45741SOL    HW246192   0.552   0.494   3.986  1.7744 -0.9001 -0.4030
45742SOL     OW46193   1.293   2.726  11.936  0.5882 -0.2564 -0.2701
45742SOL    HW146194   1.313   2.819  11.938  1.4670 -0.3991 -1.3751
45742SOL    HW246195   1.337   2.694  11.857  0.4863 -1.6474  0.2144
45743SOL     OW46196   9.891   1.518   9.406 -0.6547 -0.1336  0.2664
45743SOL    HW146197   9.899   1.423   9.406  0.5411 -0.0529 -0.2332
45743SOL    HW246198   9.922   1.545   9.319  2.8565  0.9497  1.6491
45744SOL     OW46199   0.777   8.635   5.309 -0.1129  0.5629  0.1685
45744SOL    HW146200   0.791   8.542   5.293 -0.7335  0.7404 -1.5703
45744SOL    HW246201   0.737   8.639   5.396  2.2917 -0.5600  1.4333
45745SOL     OW46202  10.307   2.636   2.488 -0.0927 -0.2189 -0.1200
45745SOL    HW146203  10.305   2.729   2.463 -0.4833 -0.4512 -0.9826
45745SOL    HW246204  10.335   2.591   2.408 -0.4873 -0.9003  0.1220
45746SOL     OW46205   0.224  12.334   6.295 -0.2986 -0.0495  0.3141
45746SOL    HW146206   0.193  12.418   6.329  0.8197  0.0181  1.2318
45746SOL    HW246207   0.284  12.302   6.362  0.5883 -0.7813 -0.7917
45747SOL     OW46208   8.516   2.499  11.384  0.4563 -0.1630  0.3433
45747SOL    HW146209   8.474   2.439  11.445 -0.4355  0.4838  0.3994
45747SOL    HW246210   8.609   2.495  11.406  0.1514  0.1008  1.8062
45748SOL     OW46211   6.785   2.555   7.833  0.4423 -0.0391  0.3165
45748SOL    HW146212   6.865   2.567   7.782  0.1389  1.0492  0.0726
45748SOL    HW246213   6.755   2.467   7.810  0.6690  0.1787 -0.9005
45749SOL     OW46214   5.533   2.877   4.966 -0.0841 -0.0077  0.3619
45749SOL    HW146215   5.616   2.924   4.960 -0.3417  0.3241 -0.8387
45749SOL    HW246216   5.472   2.929   4.913 -0.1572 -2.1300 -1.8047
45750SOL     OW46217   8.816  10.875   2.020  0.3656  0.0227 -0.9920
45750SOL    HW146218   8.849  10.941   2.082  0.2689  0.0721 -0.9906
45750SOL    HW246219   8.735  10.914   1.986 -0.7158 -0.8786  0.4005
45751SOL     OW46220   9.513   2.159   2.569 -0.0962  0.1713 -0.1868
45751SOL    HW146221   9.517   2.091   2.503  0.3185 -0.1728  0.1899
45751SOL    HW246222   9.518   2.112   2.653  0.8000  0.7012  0.0675
45752SOL     OW46223   1.234  12.178   3.341  0.4500  0.1778 -0.1143
45752SOL    HW146224   1.157  12.172   3.398 -1.4262  1.2818 -2.3705
45752SOL    HW246225   1.242  12.090   3.303  0.1171  0.1497 -0.1208
45753SOL     OW46226   5.996   0.808  12.255  0.3528  0.8265  0.3189
45753SOL    HW146227   6.057   0.741  12.225  0.4790  0.3065  1.6643
45753SOL    HW246228   5.910   0.773  12.235  0.4156  0.2139  1.0721
45754SOL     OW46229   8.678   1.954   6.086 -0.4238  0.4595 -0.0948
45754SOL    HW146230   8.665   1.860   6.073  0.9257  0.1556  0.5564
45754SOL    HW246231   8.741   1.979   6.019 -1.9992  1.2783 -1.3323
45755SOL     OW46232   3.160  11.653  10.127 -0.4681  0.3015 -0.2093
45755SOL    HW146233   3.159  11.748  10.141 -0.7325  0.4076 -0.8936
45755SOL    HW246234   3.068  11.627  10.135 -0.2893 -0.0488  0.8931
45756SOL     OW46235   7.381   4.735  11.923  0.3715 -0.2003  0.2755
45756SOL    HW146236   7.368   4.648  11.885 -0.0189  0.5826 -1.4660
45756SOL    HW246237   7.440   4.719  11.998  0.4893 -1.9218 -0.1285
45757SOL     OW46238   2.083  11.545   3.008  0.4787  0.0801  0.2980
45757SOL    HW146239   2.144  11.489   2.960 -1.3596 -0.6055 -1.3900
45757SOL    HW246240   2.075  11.504   3.094  1.4462 -0.5116  0.1115
45758SOL     OW46241   8.537   9.595   7.365 -0.0802  0.3673  0.2049
45758SOL    HW146242   8.495   9.513   7.339  0.3174  0.0820  0.4535
45758SOL    HW246243   8.631   9.576   7.362 -0.0017  0.6769  0.7225
45759SOL     OW46244   7.400   4.072  10.551  0.2880  0.2500 -0.4981
45759SOL    HW146245   7.426   4.128  10.478 -0.4376  0.4143 -0.6423
45759SOL    HW246246   7.448   4.106  10.626 -0.3691  1.2677 -0.5252
45760SOL     OW46247   4.158   2.475   4.875 -0.1982 -0.2321  0.4364
45760SOL    HW146248   4.130   2.478   4.783 -0.3725 -0.8035  0.4683
45760SOL    HW246249   4.123   2.555   4.913  0.4053  0.3248 -0.1407
45761SOL     OW46250   6.133   6.136   0.490  0.6768  0.2296 -0.5588
45761SOL    HW146251   6.173   6.091   0.564  1.8007  1.8727 -0.1126
45761SOL    HW246252   6.083   6.208   0.529  0.1209  0.2676 -1.3139
45762SOL     OW46253   0.439   6.418   0.292 -0.1413  0.0080 -0.0760
45762SOL    HW146254   0.412   6.497   0.338 -2.1635 -0.4819 -0.3601
45762SOL    HW246255   0.385   6.416   0.213  0.1332 -1.4655 -0.2562
45763SOL     OW46256  11.582   0.548   7.048  0.5916 -0.4471  0.0012
45763SOL    HW146257  11.650   0.612   7.070 -0.6866  0.8100  0.4010
45763SOL    HW246258  11.616   0.465   7.084  1.5301  0.3083  0.9480
45764SOL     OW46259  12.237   4.022   0.715  0.1419 -0.0292 -0.3242
45764SOL    HW146260  12.244   4.015   0.810 -0.1847 -0.3175 -0.3155
45764SOL    HW246261  12.197   4.108   0.700 -2.1024 -0.9479 -0.0595
45765SOL     OW46262   3.903   0.899  12.122  0.4053 -0.1775 -0.4530
45765SOL    HW146263   3.851   0.917  12.045  0.2067 -0.9671 -0.5137
45765SOL    HW246264   3.870   0.815  12.155  2.7810 -1.6566 -1.5326
45766SOL     OW46265   9.079   8.205   7.672  0.2284  0.2471 -0.8244
45766SOL    HW146266   9.128   8.193   7.590  0.4472 -0.7943 -0.5649
45766SOL    HW246267   9.126   8.152   7.736 -0.3970  0.4126 -0.2104
45767SOL     OW46268   4.355   9.506   8.395 -0.1595 -0.1059 -0.0017
45767SOL    HW146269   4.302   9.517   8.317 -0.3409 -1.3556 -0.0786
45767SOL    HW246270   4.299   9.456   8.455  0.0344  0.6905  0.8694
45768SOL     OW46271   6.568   4.166   7.448  0.3220  0.3513 -0.1476
45768SOL    HW146272   6.500   4.229   7.423 -0.2736  0.0603  0.7080
45768SOL    HW246273   6.614   4.147   7.366 -0.5363  0.6693 -0.7150
45769SOL     OW46274   1.515   6.090   3.689  0.1416 -0.3370 -0.4090
45769SOL    HW146275   1.542   6.029   3.758 -0.8284  0.0585  0.3293
45769SOL    HW246276   1.580   6.076   3.619 -0.1672 -2.3696 -0.3682
45770SOL     OW46277   8.569  12.257   2.260  0.4276  0.0886  0.4808
45770SOL    HW146278   8.516  12.278   2.183  1.0254 -1.3398 -0.3635
45770SOL    HW246279   8.506  12.224   2.324  0.1344 -0.5605 -0.1209
45771SOL     OW46280   6.631   3.531   4.719 -0.4291  0.2918 -0.2259
45771SOL    HW146281   6.669   3.477   4.649  0.2690 -0.6649  0.8604
45771SOL    HW246282   6.590   3.604   4.672  0.5319  0.0029 -1.6005
45772SOL     OW46283   3.365  11.817   1.717 -0.2332  0.5638 -0.4236
45772SOL    HW146284   3.377  11.803   1.623  2.5108  0.2024 -0.1085
45772SOL    HW246285   3.356  11.911   1.727  0.3716  0.6861 -0.9873
45773SOL     OW46286  11.852   7.139   2.511  0.2346  0.2733  0.0855
45773SOL    HW146287  11.883   7.128   2.422  0.0273 -0.0887  0.0542
45773SOL    HW246288  11.851   7.050   2.547 -0.2681  0.3400  0.2460
45774SOL     OW46289  12.261   2.028   2.110 -0.1950  0.5906 -0.1223
45774SOL    HW146290  12.167   2.031   2.131 -0.2057  0.3621 -0.1329
45774SOL    HW246291  12.265   1.981   2.027  0.0539 -0.8409  0.6732
45775SOL     OW46292   5.628   1.134   5.191  0.2224  0.3010  0.4160
45775SOL    HW146293   5.573   1.075   5.241 -2.2918  0.0210 -2.3987
45775SOL    HW246294   5.691   1.077   5.147 -0.3552  0.0468 -0.0825
45776SOL     OW46295   6.879   0.143   0.342  0.1111 -0.3031  0.3344
45776SOL    HW146296   6.893   0.235   0.318  2.9540 -0.7885 -0.1703
45776SOL    HW246297   6.809   0.114   0.282 -0.3465  1.3201  0.0228
45777SOL     OW46298   8.214   1.129   2.254 -0.0659  0.0377 -0.3069
45777SOL    HW146299   8.209   1.034   2.257 -0.3430  0.0870  1.7691
45777SOL    HW246300   8.296   1.151   2.298 -0.1622  0.7712 -0.4684
45778SOL     OW46301   2.156  12.331   6.078 -0.0842  0.1563 -0.3443
45778SOL    HW146302   2.204  12.382   6.142 -3.0692  1.6030  0.9546
45778SOL    HW246303   2.144  12.246   6.119 -1.9760  1.0691  1.1769
45779SOL     OW46304  10.812   6.487   4.104  0.1214 -0.0252 -0.2916
45779SOL    HW146305  10.857   6.533   4.175 -0.4508  0.9339 -0.5360
45779SOL    HW246306  10.720   6.487   4.130 -0.2553  1.2788 -1.5045
45780SOL     OW46307   1.160   1.659   1.404 -0.5862  1.0021 -0.0447
45780SOL    HW146308   1.199   1.722   1.465 -0.3108  1.0375 -0.2526
45780SOL    HW246309   1.192   1.686   1.318  0.8307 -0.3454  0.0156
45781SOL     OW46310   1.170   6.457   3.089 -0.1627 -0.5100 -0.0867
45781SOL    HW146311   1.235   6.489   3.027 -0.3091  0.3978  0.2011
45781SOL    HW246312   1.104   6.412   3.036  0.9942 -2.0027 -0.3224
45782SOL     OW46313   2.264   8.464   2.287 -0.4658  0.1959 -0.0453
45782SOL    HW146314   2.299   8.384   2.327 -2.1815 -0.9034 -0.6359
45782SOL    HW246315   2.324   8.533   2.315  0.7815 -1.2092  0.9033
45783SOL     OW46316   9.134   3.916   6.145  0.0802 -0.4730  0.2085
45783SOL    HW146317   9.085   3.937   6.224  1.4638  1.6059  0.5799
45783SOL    HW246318   9.100   3.975   6.078 -0.1394 -1.2899 -0.4329
45784SOL     OW46319   6.687  11.347   6.553  0.2743 -0.1552 -0.1497
45784SOL    HW146320   6.729  11.432   6.564  0.0310 -0.1176  0.5654
45784SOL    HW246321   6.605  11.365   6.507  0.1848  0.0117  0.0723
45785SOL     OW46322   8.367   5.671  10.247 -0.3227  0.6072  0.4409
45785SOL    HW146323   8.278   5.706  10.246 -0.4805  0.2402 -1.1390
45785SOL    HW246324   8.392   5.666  10.155  1.4590  0.9736  0.8549
45786SOL     OW46325   4.215   2.627   9.831  0.4444 -0.1269 -0.1656
45786SOL    HW146326   4.239   2.651   9.920  0.2512 -1.3442  0.2329
45786SOL    HW246327   4.289   2.575   9.800  0.4902  0.2499 -0.7133
45787SOL     OW46328   6.947   6.930  10.021  0.0089 -0.0164  0.5399
45787SOL    HW146329   6.928   7.021  10.043  0.6777  0.1039  0.6351
45787SOL    HW246330   6.925   6.923   9.928 -2.2311 -0.3638  1.0242
45788SOL     OW46331  10.839   9.087   0.191  0.3553 -0.1330 -0.3642
45788SOL    HW146332  10.899   9.017   0.164 -0.6717 -1.0125 -0.4178
45788SOL    HW246333  10.882   9.168   0.161  1.5623 -0.7245 -0.2877
45789SOL     OW46334   6.524   3.658   9.144 -0.7342  0.5238 -0.2716
45789SOL    HW146335   6.558   3.713   9.073  1.3092  2.3232  1.9488
45789SOL    HW246336   6.470   3.718   9.197  0.9464  0.3089  1.8004
45790SOL     OW46337   1.196  10.085   1.442  0.3320  0.2523  0.2705
45790SOL    HW146338   1.197  10.053   1.533  2.2872  0.0128  0.2051
45790SOL    HW246339   1.210  10.179   1.450  0.4987  0.2322  0.2149
45791SOL     OW46340   1.037   1.128   3.256  0.5410  0.1290  0.6908
45791SOL    HW146341   1.088   1.198   3.296  0.0882  0.3689  0.8609
45791SOL    HW246342   0.962   1.172   3.217  0.4553 -0.2180  0.4508
45792SOL     OW46343  12.476   9.115   5.767 -0.1869 -0.7845  0.2203
45792SOL    HW146344  12.506   9.152   5.684 -0.4838  1.6326  1.1042
45792SOL    HW246345  12.430   9.035   5.742 -1.3157  0.4819 -2.1147
45793SOL     OW46346   6.161   6.997   7.236  0.6564 -0.2163  0.1889
45793SOL    HW146347   6.165   7.056   7.161 -1.3190  2.3227  1.8915
45793SOL    HW246348   6.241   7.015   7.286  1.0910 -0.5540 -0.3903
45794SOL     OW46349   9.775   1.475  10.911  0.8435 -0.2067  0.1413
45794SOL    HW146350   9.724   1.550  10.941  0.3777 -0.2182 -0.6043
45794SOL    HW246351   9.799   1.429  10.992 -1.0653 -0.6749  0.5000
45795SOL     OW46352   8.796   3.805   5.929 -0.6126  0.0804 -0.5859
45795SOL    HW146353   8.712   3.842   5.955 -1.4816 -1.2517 -1.4063
45795SOL    HW246354   8.858   3.877   5.938 -0.9731  0.1194  4.0837
45796SOL     OW46355   8.739   2.295  12.414  0.8983  0.1731 -0.2391
45796SOL    HW146356   8.687   2.237  12.359  1.1616  0.3749 -0.7052
45796SOL    HW246357   8.793   2.344  12.353  0.9438  0.6491  0.1770
45797SOL     OW46358   1.591   7.147   9.725 -0.1509 -0.5475  0.2148
45797SOL    HW146359   1.565   7.208   9.794  0.4494 -1.0936  0.9474
45797SOL    HW246360   1.554   7.063   9.752  1.2164 -1.0532  0.5984
45798SOL     OW46361  10.853  10.560   1.398 -0.0293 -0.7025  0.4222
45798SOL    HW146362  10.857  10.474   1.357  0.1091 -0.3937 -0.2184
45798SOL    HW246363  10.913  10.614   1.347 -0.0555 -0.2456  0.8667
45799SOL     OW46364   4.029   4.076  10.269 -0.1863  0.1439  0.1320
45799SOL    HW146365   4.051   4.165  10.298 -2.5843  1.1841 -0.9445
45799SOL    HW246366   3.991   4.089  10.182 -3.2707 -1.5559  1.0932
45800SOL     OW46367   0.826  10.778   7.702 -0.2252 -0.7406 -0.4902
45800SOL    HW146368   0.890  10.833   7.748 -1.6528 -0.5465  1.4104
45800SOL    HW246369   0.829  10.694   7.748 -2.1341 -0.3409  0.4877
45801SOL     OW46370   9.117   2.611   2.068 -0.3451  0.0865  0.4854
45801SOL    HW146371   9.069   2.633   1.989  1.6417  0.0453 -0.7925
45801SOL    HW246372   9.155   2.525   2.051  1.4634  0.7786  0.7815
45802SOL     OW46373   5.992   0.302   2.940 -0.4046  0.3742 -0.3342
45802SOL    HW146374   5.915   0.275   2.890 -0.1086 -1.1371 -0.0237
45802SOL    HW246375   6.037   0.364   2.883 -1.8735  1.3570 -0.4803
45803SOL     OW46376   7.288   3.768   3.491 -0.2390 -0.0276  0.3450
45803SOL    HW146377   7.362   3.799   3.543 -0.5581  0.4205  0.5299
45803SOL    HW246378   7.215   3.825   3.514 -1.1414 -1.5640  1.5064
45804SOL     OW46379   6.071   6.615   9.546  0.3599  0.4495  0.6915
45804SOL    HW146380   5.998   6.653   9.496 -1.5084 -1.4867  1.7819
45804SOL    HW246381   6.131   6.584   9.479 -0.4243  0.9469 -0.2804
45805SOL     OW46382  11.487   4.203   0.133  0.2404 -0.8623  0.1173
45805SOL    HW146383  11.492   4.298   0.139 -1.3331 -0.6075 -1.7030
45805SOL    HW246384  11.573   4.177   0.099  0.8643 -0.1787  1.1129
45806SOL     OW46385   4.875  11.433   4.316 -0.2311 -0.1135 -0.0022
45806SOL    HW146386   4.849  11.521   4.344 -0.1116 -0.0265 -0.1613
45806SOL    HW246387   4.962  11.445   4.278 -0.5730 -0.1552 -0.8198
45807SOL     OW46388   9.054   0.452  10.077  0.8757  0.3399  0.3945
45807SOL    HW146389   9.079   0.441  10.169  0.5853  0.1214  0.4489
45807SOL    HW246390   8.965   0.487  10.081  1.1512  1.0955  0.2050
45808SOL     OW46391  10.579   9.188   5.586  0.8069  0.1669  0.1229
45808SOL    HW146392  10.655   9.131   5.570  0.3330 -0.4695  0.0967
45808SOL    HW246393  10.588   9.215   5.678  0.2977 -1.0830  0.5569
45809SOL     OW46394   7.707   1.672   5.787 -0.8683  0.1950  0.8181
45809SOL    HW146395   7.663   1.633   5.711 -0.2081  2.1027 -0.6192
45809SOL    HW246396   7.635   1.704   5.842 -1.3532  0.4664  0.0557
45810SOL     OW46397   3.854   5.776   1.379 -0.0608 -0.2361  0.2903
45810SOL    HW146398   3.820   5.865   1.375  0.4585  0.0338  1.3746
45810SOL    HW246399   3.866   5.750   1.287 -1.0685  0.4608 -0.0557
45811SOL     OW46400   1.894   7.143   5.277  0.5457 -0.2587  0.4169
45811SOL    HW146401   1.969   7.086   5.294  1.1007  1.0114  2.7673
45811SOL    HW246402   1.925   7.205   5.211  0.9701 -0.7687  0.1261
45812SOL     OW46403   5.496   5.513   9.384  0.5354  0.7082  0.2149
45812SOL    HW146404   5.410   5.556   9.392 -0.2049 -0.1831 -1.9553
45812SOL    HW246405   5.558   5.585   9.378 -0.5082  1.5205 -1.7623
45813SOL     OW46406   1.803  10.457  10.492  0.6610  0.4639 -0.3883
45813SOL    HW146407   1.747  10.511  10.548  1.3102  0.1051  0.6380
45813SOL    HW246408   1.789  10.491  10.404 -0.4590  0.9863 -0.0250
45814SOL     OW46409  11.569  11.110   4.550  0.2564  0.0056  0.2290
45814SOL    HW146410  11.573  11.058   4.630 -0.5272 -1.5452 -0.7012
45814SOL    HW246411  11.621  11.060   4.486  1.1791  1.4004 -0.1707
45815SOL     OW46412   3.046  10.548  12.073  0.2333 -0.1653  0.1422
45815SOL    HW146413   3.102  10.596  12.135 -0.8031 -0.6705  1.5064
45815SOL    HW246414   3.108  10.509  12.011  1.4323 -0.7588  1.6355
45816SOL     OW46415   9.212  10.785   3.105  0.2555  0.0791 -0.1512
45816SOL    HW146416   9.201  10.717   3.039 -2.2481  0.8299 -0.5976
45816SOL    HW246417   9.183  10.745   3.187 -1.3750  0.5855 -0.4426
45817SOL     OW46418  10.132   2.010   1.357  0.2131  0.5560  0.0514
45817SOL    HW146419  10.079   2.046   1.286 -1.3777 -0.8781  0.4650
45817SOL    HW246420  10.121   2.072   1.429  0.2445  0.9792 -0.2995
45818SOL     OW46421   2.248   8.791  11.137  0.6438  0.3195 -0.4162
45818SOL    HW146422   2.321   8.852  11.149  0.4288  0.5394 -0.1877
45818SOL    HW246423   2.269   8.716  11.193  1.9515 -0.7958 -2.3186
45819SOL     OW46424  10.288   1.291   8.189 -0.3922 -0.4345 -0.9420
45819SOL    HW146425  10.198   1.267   8.210 -0.4992  0.7827  0.1657
45819SOL    HW246426  10.291   1.386   8.203  0.9583 -0.3887 -1.3842
45820SOL     OW46427   9.726   3.136   6.632 -0.1628 -0.6673  0.6167
45820SOL    HW146428   9.786   3.085   6.687  0.0946  0.1259  1.0921
45820SOL    HW246429   9.701   3.211   6.687  3.0995  2.2870 -1.5293
45821SOL     OW46430  12.339   8.345   5.592  0.2131  0.0035  0.1059
45821SOL    HW146431  12.329   8.256   5.627 -2.7885  0.2855  0.2262
45821SOL    HW246432  12.268   8.353   5.527  0.7189  2.1539 -0.2439
45822SOL     OW46433   7.448   8.819   3.755  0.7907 -0.5704 -0.2932
45822SOL    HW146434   7.416   8.769   3.831  2.0070 -0.3678  0.3782
45822SOL    HW246435   7.492   8.754   3.700  2.2534 -0.3110  0.5139
45823SOL     OW46436  12.151   2.295   8.260 -0.4745  0.1861 -0.6454
45823SOL    HW146437  12.060   2.285   8.230 -1.6907  0.5064  2.5390
45823SOL    HW246438  12.144   2.345   8.341  2.5955  0.2999 -0.3487
45824SOL     OW46439  10.463   7.770  11.116 -0.3581  0.3802  1.0461
45824SOL    HW146440  10.554   7.785  11.089 -0.5516 -1.8667 -1.2162
45824SOL    HW246441  10.469   7.745  11.208  1.4387 -0.6198  0.7098
45825SOL     OW46442  11.733   2.454  10.886  0.2567 -0.0477  0.5865
45825SOL    HW146443  11.774   2.382  10.838 -2.4555 -2.9027  2.2254
45825SOL    HW246444  11.739   2.428  10.978  0.1230  2.4020  1.3677
45826SOL     OW46445   5.122   0.915   5.862  0.3553 -0.1178 -0.3650
45826SOL    HW146446   5.145   0.827   5.893 -0.1551  0.2175  1.0283
45826SOL    HW246447   5.184   0.973   5.906 -1.7112  0.5902  1.9009
45827SOL     OW46448   3.894  10.107  11.151 -0.0630  0.4211 -0.0436
45827SOL    HW146449   3.868  10.102  11.243  0.8629  0.4389  0.2293
45827SOL    HW246450   3.966  10.045  11.143  0.7422  1.3859 -0.4451
45828SOL     OW46451   7.556   3.539   6.190 -0.5285  0.0537  0.4209
45828SOL    HW146452   7.464   3.564   6.203 -0.8106 -0.4433 -0.5367
45828SOL    HW246453   7.567   3.538   6.095  1.2292  2.7674  0.4862
45829SOL     OW46454  11.512   7.829   9.727  0.0829 -0.1139  0.0567
45829SOL    HW146455  11.511   7.809   9.634 -0.2640 -0.5674  0.1561
45829SOL    HW246456  11.462   7.911   9.734  3.5572  2.3331 -0.6608
45830SOL     OW46457   1.919   9.017   5.817  0.0777  0.4725  0.4134
45830SOL    HW146458   1.835   8.977   5.795  0.3817  0.5767 -1.0073
45830SOL    HW246459   1.895   9.100   5.859 -0.5243  0.3241  0.3811
45831SOL     OW46460   5.653   5.626   3.421  0.0978  0.2507 -0.0771
45831SOL    HW146461   5.644   5.707   3.470 -0.5735 -1.2358  2.4286
45831SOL    HW246462   5.565   5.607   3.388 -0.4946 -0.9457  1.9971
45832SOL     OW46463   6.226   4.757   7.541  0.8598 -0.4532 -0.0758
45832SOL    HW146464   6.151   4.729   7.594  0.2915  0.4749 -0.3697
45832SOL    HW246465   6.257   4.836   7.584  1.0652 -0.2977 -0.5104
45833SOL     OW46466   6.650   2.963   5.273  0.4382 -0.3473  0.2217
45833SOL    HW146467   6.730   2.910   5.270 -0.3561 -1.5713 -0.0402
45833SOL    HW246468   6.670   3.032   5.337  1.3500 -1.2328  0.9370
45834SOL     OW46469  10.916   9.627   1.095  0.1354 -0.0679  0.1948
45834SOL    HW146470  11.001   9.582   1.104 -0.5393 -1.4365  0.0673
45834SOL    HW246471  10.858   9.580   1.154 -0.5595  0.8248  0.2368
45835SOL     OW46472   1.922   4.483   8.088 -0.0321  0.2228 -0.1469
45835SOL    HW146473   1.935   4.388   8.087  1.6074  0.3848 -2.3041
45835SOL    HW246474   1.834   4.495   8.053  0.3135 -0.5014 -1.3300
45836SOL     OW46475   5.077   6.390   8.306 -0.5340 -0.1289  0.3223
45836SOL    HW146476   5.068   6.475   8.351  0.4409  0.1779 -0.0301
45836SOL    HW246477   5.081   6.326   8.377  0.6593  0.3207  0.7005
45837SOL     OW46478   4.181   1.415   2.141  0.2307 -0.5218 -0.2283
45837SOL    HW146479   4.274   1.417   2.118  0.5250  1.8359  0.8875
45837SOL    HW246480   4.139   1.471   2.076  0.1992  1.3873  1.3390
45838SOL     OW46481   8.381   0.593   8.826  0.1389 -0.4544 -0.9885
45838SOL    HW146482   8.470   0.613   8.855  0.8167 -1.6187 -2.1644
45838SOL    HW246483   8.325   0.634   8.892  1.4477  2.2591 -1.4096
45839SOL     OW46484  11.147   3.724  12.566  0.3301  0.4114 -0.5958
45839SOL    HW146485  11.191   3.785  12.506  1.0336  1.1360  0.6047
45839SOL    HW246486  11.058   3.758  12.573  0.6757  1.2382 -0.0587
45840SOL     OW46487   3.437   6.049   3.496 -0.5130  0.1283  0.3715
45840SOL    HW146488   3.492   6.037   3.573 -2.2410 -0.2573  1.6262
45840SOL    HW246489   3.406   5.961   3.474 -1.7799  0.4697  0.6553
45841SOL     OW46490   2.502   7.414   4.374 -0.0814  0.2430  0.2999
45841SOL    HW146491   2.540   7.501   4.370  0.5562 -0.0424 -0.0723
45841SOL    HW246492   2.410   7.426   4.350  0.4236  0.5746 -1.6894
45842SOL     OW46493   6.343  11.603   7.051 -0.3973  0.1792  0.1027
45842SOL    HW146494   6.437  11.587   7.050 -0.2958  0.7355  0.1293
45842SOL    HW246495   6.307  11.536   7.109  0.0126  0.1167  0.2845
45843SOL     OW46496  10.247   8.571  11.039  0.0965  0.1105 -0.4036
45843SOL    HW146497  10.313   8.595  11.104  1.5258 -0.7557 -1.4626
45843SOL    HW246498  10.229   8.652  10.992 -1.1832  0.8099  1.2364
45844SOL     OW46499   5.577   9.068   9.103 -0.3766 -0.5010 -0.0958
45844SOL    HW146500   5.596   9.068   9.197 -1.4707 -0.0316  0.1442
45844SOL    HW246501   5.602   8.981   9.073  0.6529 -0.4207  0.4738
45845SOL     OW46502   0.208   6.789  11.625 -0.4423 -0.2347  0.6437
45845SOL    HW146503   0.152   6.825  11.557 -0.7600 -1.5601  0.1714
45845SOL    HW246504   0.200   6.850  11.698 -1.0325  0.5780 -0.0848
45846SOL     OW46505   1.546   9.199   3.088  0.0323 -0.7123  0.3952
45846SOL    HW146506   1.553   9.294   3.098  2.5191 -1.0149  2.9133
45846SOL    HW246507   1.476   9.174   3.149  0.1221 -0.5565  0.5646
45847SOL     OW46508   4.028   4.893  11.903 -0.1958  0.3707 -0.4044
45847SOL    HW146509   4.114   4.856  11.882 -1.3119 -2.3577 -0.6017
45847SOL    HW246510   4.030   4.906  11.998  0.6040  0.8602 -0.4769
45848SOL     OW46511   3.421   1.276   5.273  0.7424 -0.0456 -0.0320
45848SOL    HW146512   3.327   1.268   5.283  0.9101 -0.9098  1.1178
45848SOL    HW246513   3.434   1.354   5.220 -0.5720  0.7186  0.7364
45849SOL     OW46514   8.101   6.675   8.461  0.1491 -0.1227 -0.1195
45849SOL    HW146515   8.137   6.618   8.528  1.4090  1.2635  0.4434
45849SOL    HW246516   8.067   6.751   8.509 -0.2155  0.2483 -0.9419
45850SOL     OW46517  10.446  11.755   1.522  0.6199 -0.0249  0.4328
45850SOL    HW146518  10.525  11.703   1.515  0.5043  0.0313 -1.8598
45850SOL    HW246519  10.469  11.825   1.583  2.5391  0.3202 -0.6144
45851SOL     OW46520   0.707   2.619  11.078  0.1861  0.2199  0.1497
45851SOL    HW146521   0.794   2.581  11.087  0.1088 -0.0879 -0.3854
45851SOL    HW246522   0.715   2.681  11.006 -0.3362 -0.7128 -0.7308
45852SOL     OW46523   3.359   4.176   7.817  0.1042 -0.0459  0.2986
45852SOL    HW146524   3.433   4.189   7.876 -1.3740  0.6365  2.1074
45852SOL    HW246525   3.341   4.082   7.820 -1.3703  0.2083  2.8982
45853SOL     OW46526   7.904   3.785   9.718 -0.4636 -0.1310 -0.1363
45853SOL    HW146527   7.951   3.850   9.665 -1.0817  0.5488  0.1259
45853SOL    HW246528   7.813   3.794   9.692 -0.4381 -1.6055 -0.8093
45854SOL     OW46529   3.038   0.467   6.796  0.0711  0.1072 -0.3775
45854SOL    HW146530   3.111   0.461   6.735 -0.6725 -1.7778 -1.1898
45854SOL    HW246531   3.023   0.561   6.807  3.4879  0.6355  0.9819
45855SOL     OW46532  10.073  10.326   3.930 -0.2964 -0.0193  0.0329
45855SOL    HW146533   9.992  10.291   3.968 -1.2697 -0.4336 -2.2546
45855SOL    HW246534  10.051  10.416   3.907 -0.0786 -0.1115 -0.5318
45856SOL     OW46535   3.857   3.064   8.024 -0.4056 -0.4823 -0.2361
45856SOL    HW146536   3.794   3.121   8.069  1.0488  2.5157 -1.7476
45856SOL    HW246537   3.942   3.102   8.043  0.8815 -3.3399  0.1982
45857SOL     OW46538  11.753   3.135  11.939  0.4638  0.2989 -0.2948
45857SOL    HW146539  11.688   3.182  11.992  1.5929  1.0270  0.4989
45857SOL    HW246540  11.753   3.181  11.855  0.5028  0.7797 -0.0329
45858SOL     OW46541   5.663  11.742   3.559 -0.6084 -0.2169 -0.2349
45858SOL    HW146542   5.709  11.814   3.602  1.2676 -1.1427 -0.5440
45858SOL    HW246543   5.709  11.731   3.475 -2.5244 -0.1125 -1.3433
45859SOL     OW46544   7.087   9.373   9.134 -0.1374 -0.5987  0.1209
45859SOL    HW146545   7.182   9.364   9.129 -0.1613 -0.1040 -2.3759
45859SOL    HW246546   7.054   9.299   9.083 -1.1338 -0.8226  1.0525
45860SOL     OW46547   7.703   9.793   8.455 -0.0931 -0.3023 -0.2313
45860SOL    HW146548   7.768   9.822   8.391 -0.7053 -0.3122 -0.8617
45860SOL    HW246549   7.723   9.700   8.470 -1.8893 -1.2045 -2.8352
45861SOL     OW46550   8.970  11.215   6.837  0.3328  0.1143 -0.3368
45861SOL    HW146551   8.931  11.302   6.835 -0.6749 -0.3310 -1.5567
45861SOL    HW246552   8.899  11.157   6.865  0.7346 -0.4173 -0.3973
45862SOL     OW46553   0.785   4.627  11.348  0.1635 -0.8601 -0.2075
45862SOL    HW146554   0.794   4.576  11.268  0.8083  0.2863 -0.8862
45862SOL    HW246555   0.721   4.578  11.401  0.8757 -2.4353 -0.7529
45863SOL     OW46556   2.454   9.239   4.748  0.4406  0.2906 -0.4427
45863SOL    HW146557   2.419   9.178   4.683  2.7594 -0.5508 -1.0246
45863SOL    HW246558   2.431   9.201   4.832  1.3220 -1.1266 -0.8069
45864SOL     OW46559   9.550   3.066   9.314  0.3538  0.1008 -0.0970
45864SOL    HW146560   9.488   3.052   9.386  0.1398 -1.5843 -0.5696
45864SOL    HW246561   9.593   3.149   9.336  0.2013 -0.2944  1.9140
45865SOL     OW46562   6.851   0.257   3.483 -0.1696  0.0175  0.4610
45865SOL    HW146563   6.794   0.225   3.412 -0.2876  0.3358  0.4122
45865SOL    HW246564   6.932   0.208   3.471 -1.2984 -2.5506  2.2002
45866SOL     OW46565  10.993   5.215   6.598  0.3917  0.1250 -0.3151
45866SOL    HW146566  11.048   5.140   6.579 -1.3133 -1.5526  1.0359
45866SOL    HW246567  11.018   5.241   6.687 -1.2198 -0.9254  0.4799
45867SOL     OW46568   6.012   1.335   5.867  0.4791  0.3776  0.2874
45867SOL    HW146569   5.988   1.243   5.878 -1.0397  0.9169  2.0642
45867SOL    HW246570   6.000   1.352   5.773  2.8080 -1.6935 -0.4890
45868SOL     OW46571   7.089  11.193  12.490  0.1200 -0.6619 -0.7061
45868SOL    HW146572   7.058  11.273  12.447  1.3459  0.4337  0.3435
45868SOL    HW246573   7.073  11.208  12.583  0.7279 -1.4695 -0.4581
45869SOL     OW46574   5.822   9.398  10.649  0.1671  0.2729  0.0591
45869SOL    HW146575   5.875   9.472  10.620 -0.8209  1.1421  0.4312
45869SOL    HW246576   5.855   9.378  10.736 -0.9106  1.6146  0.8011
45870SOL     OW46577   4.451   8.012   2.928 -0.0335  0.7386  0.1744
45870SOL    HW146578   4.459   8.101   2.894 -0.5702  1.0609  0.8489
45870SOL    HW246579   4.400   8.023   3.009 -2.2547 -0.4576 -0.9617
45871SOL     OW46580   5.857   0.925  10.381  0.2718  0.0663 -0.7555
45871SOL    HW146581   5.801   0.966  10.315 -0.1496 -1.9273 -1.7082
45871SOL    HW246582   5.797   0.870  10.431  1.2347 -1.5711 -1.3488
45872SOL     OW46583   2.114  11.867   7.051  0.3562 -0.2529  0.7725
45872SOL    HW146584   2.110  11.772   7.059  1.2670 -0.3058  0.6972
45872SOL    HW246585   2.181  11.883   6.985  0.1713  0.4472  0.7428
45873SOL     OW46586  12.512   7.056   6.139  0.7051 -0.0597 -0.4038
45873SOL    HW146587  12.420   7.073   6.119 -0.2606 -2.2279  1.6640
45873SOL    HW246588  12.534   6.979   6.085  0.8272 -0.4254  0.1545
45874SOL     OW46589  12.425   1.382   2.261 -0.3413  0.6078 -0.1339
45874SOL    HW146590  12.493   1.415   2.203  0.2558  1.0236  0.7652
45874SOL    HW246591  12.354   1.446   2.254 -0.6617  0.1469 -1.1112
45875SOL     OW46592   0.278  11.703   3.794  0.0376 -0.1467  0.3829
45875SOL    HW146593   0.330  11.694   3.714  0.1120 -0.2803  0.4454
45875SOL    HW246594   0.187  11.709   3.764  0.2446  2.8238  0.0915
45876SOL     OW46595   0.349   2.593   1.399 -0.3607 -0.3234 -0.0717
45876SOL    HW146596   0.266   2.547   1.409  0.7054 -2.0332  1.6636
45876SOL    HW246597   0.415   2.524   1.402  1.1877  1.0751 -0.4113
45877SOL     OW46598   9.221   4.474  10.837 -0.1958  0.3509 -0.0759
45877SOL    HW146599   9.170   4.533  10.781  0.8844  2.3387  0.9404
45877SOL    HW246600   9.186   4.489  10.925  1.9531  1.6705  0.6273
45878SOL     OW46601   3.119  10.966   1.899 -0.0049 -0.1195 -0.2484
45878SOL    HW146602   3.029  10.958   1.930  0.2539  2.1188  1.3487
45878SOL    HW246603   3.172  10.946   1.976  0.9032 -1.5459 -1.2035
45879SOL     OW46604   3.912   1.104   0.982 -0.0015 -0.1883  0.1618
45879SOL    HW146605   4.001   1.088   1.014 -0.2954  0.4415  1.3484
45879SOL    HW246606   3.857   1.051   1.039 -0.5142  0.6742  0.4824
45880SOL     OW46607   8.864   9.285   6.051 -0.2218  0.2517 -0.1114
45880SOL    HW146608   8.946   9.315   6.011 -0.5875  0.6381 -0.5801
45880SOL    HW246609   8.863   9.191   6.034  0.0562  0.2679 -0.2328
45881SOL     OW46610   3.014  12.567   5.477 -0.0073  0.6350  0.1143
45881SOL    HW146611   2.991  12.488   5.427 -0.3278  0.5048  0.4599
45881SOL    HW246612   2.932  12.616   5.481  0.6428  2.0090 -1.8869
45882SOL     OW46613   8.723   0.731  12.371  0.0679  0.1093  0.1739
45882SOL    HW146614   8.782   0.738  12.446 -0.2204 -0.2403  0.4340
45882SOL    HW246615   8.637   0.755  12.406 -0.1590 -0.5468  0.0721
45883SOL     OW46616   9.222   4.283  11.089 -0.1514 -0.3014  0.3777
45883SOL    HW146617   9.301   4.315  11.130 -0.9421  2.0273  0.2033
45883SOL    HW246618   9.250   4.252  11.003  0.6130  0.1848  0.4492
45884SOL     OW46619   1.046   7.451  11.260  0.4587  0.7652 -0.1538
45884SOL    HW146620   1.126   7.402  11.276  0.6038  0.2222 -2.2226
45884SOL    HW246621   1.050   7.475  11.167 -1.6662  0.9153 -0.2721
45885SOL     OW46622   6.521  10.867   6.756  0.5261 -0.4295  0.3655
45885SOL    HW146623   6.456  10.838   6.692  0.2031  0.1498  0.4205
45885SOL    HW246624   6.550  10.953   6.724 -0.8244  0.6350  1.8184
45886SOL     OW46625  11.841   2.597  10.522 -0.5378  0.0629 -0.0439
45886SOL    HW146626  11.766   2.651  10.547 -1.4511 -1.3757  0.4537
45886SOL    HW246627  11.890   2.650  10.460 -0.5451  2.0693  1.5791
45887SOL     OW46628  11.798   5.082   3.031 -0.2350 -0.4445  0.2716
45887SOL    HW146629  11.766   5.171   3.041 -0.3060 -0.3477 -0.7322
45887SOL    HW246630  11.819   5.054   3.120 -0.1742  0.5821  0.5907
45888SOL     OW46631   1.392   5.762   0.892  0.5529 -0.0026 -0.2539
45888SOL    HW146632   1.370   5.679   0.851 -2.4588  0.3365  0.4497
45888SOL    HW246633   1.457   5.739   0.959 -0.3925 -1.8459  0.0897
45889SOL     OW46634   8.736   4.477  11.568  0.0321  0.0621  0.1536
45889SOL    HW146635   8.671   4.538  11.604  0.0583  0.4900 -0.5032
45889SOL    HW246636   8.816   4.496  11.617 -0.6120 -1.3082  1.8298
45890SOL     OW46637  10.347   7.398   1.179 -0.2482 -0.2943 -0.0203
45890SOL    HW146638  10.298   7.348   1.245 -0.7938  0.0464 -0.1592
45890SOL    HW246639  10.406   7.453   1.229 -1.4779  0.8286  0.2611
45891SOL     OW46640  11.025   6.965  11.756  0.2219 -0.1205  0.2054
45891SOL    HW146641  11.086   6.955  11.829  0.0874  0.2827  0.3743
45891SOL    HW246642  11.058   7.041  11.708 -0.6160  0.5958  0.7529
45892SOL     OW46643   6.036  12.150   7.744  0.6521 -0.1075  0.2310
45892SOL    HW146644   6.108  12.138   7.806  0.4816 -1.5027  0.1991
45892SOL    HW246645   5.966  12.094   7.777 -0.6599  1.6625  0.5762
45893SOL     OW46646  12.150  12.440   8.373 -0.0763 -0.3886 -0.2715
45893SOL    HW146647  12.114  12.465   8.458 -0.0019  0.1290 -0.3941
45893SOL    HW246648  12.195  12.517   8.342  1.9361 -1.2860  0.2839
45894SOL     OW46649   5.113   2.833   7.505 -1.0422 -0.2397 -0.2559
45894SOL    HW146650   5.141   2.922   7.525  0.1681 -1.0535  1.9790
45894SOL    HW246651   5.132   2.822   7.411  2.2324  0.6815  0.1778
45895SOL     OW46652  11.997   9.864   4.379  0.1087  0.2265 -0.2118
45895SOL    HW146653  11.981   9.928   4.449  2.2690 -0.3492  0.8933
45895SOL    HW246654  11.924   9.876   4.319 -1.2917  1.4724  1.6132
45896SOL     OW46655   7.198  11.880   5.535 -0.0293 -0.3630  0.1686
45896SOL    HW146656   7.251  11.874   5.456  1.6040 -1.1777  1.2667
45896SOL    HW246657   7.119  11.829   5.515  0.1075 -0.0907 -1.1166
45897SOL     OW46658   0.523  11.851   2.443  0.1446 -0.3814 -0.4350
45897SOL    HW146659   0.479  11.768   2.462  0.8975 -0.4775  0.9897
45897SOL    HW246660   0.476  11.885   2.367 -0.5687 -1.8171 -0.6800
45898SOL     OW46661   9.289   8.360   2.438 -0.6346 -0.0261  0.0289
45898SOL    HW146662   9.382   8.376   2.448 -0.4721  0.4221 -1.7684
45898SOL    HW246663   9.253   8.445   2.410 -1.2880 -0.5790 -0.8775
45899SOL     OW46664   7.945  11.096   7.846  0.0770  0.1103  0.3645
45899SOL    HW146665   7.977  11.062   7.762  0.8376 -1.6821  1.3197
45899SOL    HW246666   7.894  11.024   7.882 -0.9357  1.1642  1.0957
45900SOL     OW46667   4.249   2.573   3.124  0.3611 -0.8622 -0.3442
45900SOL    HW146668   4.293   2.529   3.196  0.8139  0.5813  0.3040
45900SOL    HW246669   4.226   2.659   3.159 -2.5341 -1.3328 -0.8103
45901SOL     OW46670  12.431   0.447   5.272  0.1413  0.2126  0.6988
45901SOL    HW146671  12.513   0.412   5.238 -0.1337 -0.3201  0.5662
45901SOL    HW246672  12.399   0.380   5.332 -0.1323  0.4720  0.8497
45902SOL     OW46673  11.864   1.767   4.238  0.4226 -0.1618  0.3025
45902SOL    HW146674  11.946   1.729   4.271  0.8449 -0.7462 -1.3196
45902SOL    HW246675  11.892   1.845   4.191 -0.0808  0.2036  0.5966
45903SOL     OW46676   1.813   6.473   1.717  0.0256  0.0160  0.4569
45903SOL    HW146677   1.738   6.448   1.771 -0.8506 -0.6794 -1.0063
45903SOL    HW246678   1.813   6.568   1.719  0.7213  0.0140  2.5688
45904SOL     OW46679  11.176  12.361   1.616  0.1142 -0.4440  0.3184
45904SOL    HW146680  11.239  12.297   1.650  1.4420 -0.4717 -1.9776
45904SOL    HW246681  11.213  12.388   1.531 -2.2184  0.7030 -0.4080
45905SOL     OW46682   1.960   4.749   5.620  0.7634 -0.6668 -0.0088
45905SOL    HW146683   1.896   4.769   5.552 -0.5573 -0.6757  1.1675
45905SOL    HW246684   2.034   4.806   5.602 -0.1950  0.4425 -0.5489
45906SOL     OW46685   4.993  10.282   6.083 -0.4398  0.3588 -0.0097
45906SOL    HW146686   5.003  10.337   6.005 -2.4171 -0.7566 -1.1289
45906SOL    HW246687   5.081  10.249   6.101  0.1906  1.2579 -1.2864
45907SOL     OW46688   8.537  10.092   5.513  0.4735  0.2571 -0.5980
45907SOL    HW146689   8.550  10.086   5.419  1.2667  2.6434 -0.7289
45907SOL    HW246690   8.504  10.181   5.527 -4.5124 -1.4958  0.9630
45908SOL     OW46691   2.463   0.984   7.801  0.1053  0.1189  0.0865
45908SOL    HW146692   2.374   1.017   7.808 -0.3431 -1.0146 -0.1170
45908SOL    HW246693   2.488   1.000   7.710  0.3190  0.9194  0.2768
45909SOL     OW46694  10.388   3.813   9.846 -0.1915  0.3225  0.5101
45909SOL    HW146695  10.398   3.751   9.774 -0.7877  2.0600 -1.1393
45909SOL    HW246696  10.477   3.833   9.874  0.0930  0.3736 -0.4141
45910SOL     OW46697   9.067   6.495   4.878 -0.9000  0.4315 -0.5354
45910SOL    HW146698   9.149   6.531   4.845  0.0457  0.3568  1.5793
45910SOL    HW246699   9.000   6.556   4.848  0.0320  1.0053 -1.4988
45911SOL     OW46700   4.926   8.777   6.467  0.3475  0.2329 -0.2514
45911SOL    HW146701   4.891   8.854   6.423 -2.0687 -0.2412  0.6721
45911SOL    HW246702   4.951   8.807   6.554  0.8875  0.2761 -0.4191
45912SOL     OW46703   6.695  11.875   5.638 -0.1513  0.2826 -0.2345
45912SOL    HW146704   6.743  11.957   5.649  0.2701  0.0024  0.0248
45912SOL    HW246705   6.696  11.834   5.725 -0.9328  0.3130 -0.2049
45913SOL     OW46706  12.004   4.230   1.973  0.2918  0.5702 -0.4532
45913SOL    HW146707  11.991   4.261   2.063 -3.0004  0.3989 -0.7306
45913SOL    HW246708  12.026   4.138   1.983  1.8679  0.9890  0.1872
45914SOL     OW46709  11.253   8.805  10.907 -0.0319  0.0959  0.8082
45914SOL    HW146710  11.254   8.710  10.892 -1.2721  0.0028  1.2321
45914SOL    HW246711  11.330   8.821  10.963 -0.3334 -0.7968  1.4970
45915SOL     OW46712   0.312   9.870   1.028 -0.1482 -0.3536  0.1776
45915SOL    HW146713   0.368   9.839   1.099 -2.0010 -0.4839  1.6618
45915SOL    HW246714   0.334   9.963   1.020 -0.3081 -0.1887  1.3653
45916SOL     OW46715   1.236   9.699   8.548  0.2703  0.1962  0.0148
45916SOL    HW146716   1.171   9.652   8.496  1.1257 -0.6880 -0.2970
45916SOL    HW246717   1.289   9.745   8.483  2.0862 -1.8536 -0.0695
45917SOL     OW46718   2.344  12.535  10.029 -0.3834  0.1953  0.3506
45917SOL    HW146719   2.430  12.570  10.006  0.2575 -0.8843  0.9968
45917SOL    HW246720   2.353  12.507  10.120 -1.1741 -0.6072  0.1943
45918SOL     OW46721   4.248   2.878   0.200 -0.0395 -0.1260  0.0348
45918SOL    HW146722   4.212   2.966   0.210 -1.5702 -0.5945 -0.9818
45918SOL    HW246723   4.265   2.869   0.106  0.4788 -0.7789  0.1779
45919SOL     OW46724   6.786   9.093   5.939 -0.0125 -0.4294  0.0121
45919SOL    HW146725   6.810   9.152   6.010  0.3078 -0.2359 -0.2522
45919SOL    HW246726   6.839   9.122   5.865  1.6018 -2.2159  0.3633
45920SOL     OW46727   0.084   7.008   0.215  0.1350 -0.1107 -0.0118
45920SOL    HW146728   0.094   6.913   0.201 -0.5574 -0.0942 -0.7286
45920SOL    HW246729  -0.010   7.021   0.224  0.2288  0.5073  0.1126
45921SOL     OW46730   9.634   3.661   0.269 -0.2174 -0.0314  0.2514
45921SOL    HW146731   9.615   3.634   0.359 -0.7717  1.5316  0.6286
45921SOL    HW246732   9.694   3.734   0.278 -2.6975  2.2551 -0.4376
45922SOL     OW46733   5.345   2.556  10.948  0.4180 -0.2896  0.5032
45922SOL    HW146734   5.339   2.609  10.869  0.3461 -1.7761 -0.5166
45922SOL    HW246735   5.371   2.618  11.016  1.3436  0.8744 -0.8530
45923SOL     OW46736   8.940   9.669  10.077  0.3949 -0.2736 -0.5876
45923SOL    HW146737   8.868   9.607  10.077 -0.2685  0.4663  0.2582
45923SOL    HW246738   8.955   9.688  10.170  0.8411  0.5406 -0.8166
45924SOL     OW46739   7.734  10.508   7.356  0.0295 -0.1065 -0.0821
45924SOL    HW146740   7.771  10.448   7.290 -2.5133 -2.0604  0.1013
45924SOL    HW246741   7.726  10.592   7.311 -1.2098 -1.2685 -2.1788
45925SOL     OW46742   2.013   3.666   8.054  0.0634 -0.6873 -0.3400
45925SOL    HW146743   1.995   3.693   7.964  1.4512  0.9961 -0.1816
45925SOL    HW246744   2.076   3.594   8.046 -1.4855 -2.0623 -0.7151
45926SOL     OW46745   9.837   3.372   3.195  0.2620  0.7016 -0.0325
45926SOL    HW146746   9.843   3.280   3.222  0.7164  0.9033  0.5831
45926SOL    HW246747   9.887   3.420   3.261 -1.3335  1.5709  0.6188
45927SOL     OW46748   2.360   6.033   2.963 -0.3897  0.4386  0.2320
45927SOL    HW146749   2.273   6.074   2.959  0.0158  1.2377 -1.0086
45927SOL    HW246750   2.382   6.014   2.872  0.5170 -0.2484  0.5794
45928SOL     OW46751   8.319   7.162   4.753 -0.0175  0.3631 -0.2423
45928SOL    HW146752   8.307   7.115   4.835  0.9486  3.1922  1.6505
45928SOL    HW246753   8.407   7.200   4.760 -0.6327  2.2199 -1.7378
45929SOL     OW46754   9.669   8.994   6.046  0.0796 -0.5470  0.1889
45929SOL    HW146755   9.654   9.044   5.965  1.5310  1.2252  0.9555
45929SOL    HW246756   9.764   8.990   6.055 -0.0521 -0.7311  1.8182
45930SOL     OW46757   6.363   3.973   9.022  0.1293  0.7586 -0.5219
45930SOL    HW146758   6.295   3.944   9.083  0.5004 -0.3751 -0.6169
45930SOL    HW246759   6.389   4.059   9.055 -0.8976  0.9413 -0.1179
45931SOL     OW46760   0.978   4.171  12.387 -0.2185 -0.2813 -0.3838
45931SOL    HW146761   0.900   4.117  12.379 -1.6423  1.7111 -0.8314
45931SOL    HW246762   0.952   4.241  12.447  0.8938  0.9682 -1.3126
45932SOL     OW46763   1.348   8.951  10.523 -0.1645 -0.1237 -0.4217
45932SOL    HW146764   1.436   8.932  10.555  0.0717  1.8331  0.2274
45932SOL    HW246765   1.307   8.865  10.515  1.5759 -1.0440 -0.1232
45933SOL     OW46766   8.349  11.948  11.851 -0.2199  0.1211 -0.2099
45933SOL    HW146767   8.257  11.974  11.858  0.5054  2.9318  0.2351
45933SOL    HW246768   8.397  12.025  11.882  2.3140 -0.9297 -1.3298
45934SOL     OW46769   7.012   2.067   9.144  0.2730  0.1292 -0.1608
45934SOL    HW146770   6.963   2.027   9.071  0.4640 -0.8609  0.2393
45934SOL    HW246771   6.946   2.117   9.193  0.1168  0.6971 -0.9224
45935SOL     OW46772   3.950  10.067   8.136 -0.3759 -0.2165  0.0285
45935SOL    HW146773   3.984   9.987   8.176  3.7954  0.5208 -1.5274
45935SOL    HW246774   3.981  10.064   8.045 -1.5685  2.4088 -0.5722
45936SOL     OW46775   0.784   2.291   3.214  0.1700 -0.3042 -0.1974
45936SOL    HW146776   0.722   2.337   3.157 -0.4505 -1.3155 -0.3498
45936SOL    HW246777   0.767   2.328   3.301  0.8345  0.9437 -0.5617
45937SOL     OW46778   1.483  11.938   7.711  0.8386 -0.0149 -0.5874
45937SOL    HW146779   1.456  11.902   7.795  0.3109 -0.2670 -0.8562
45937SOL    HW246780   1.560  11.992   7.731  0.1905  0.6442  0.1843
45938SOL     OW46781   4.405   9.136  11.970  0.0748  0.5465  0.3927
45938SOL    HW146782   4.485   9.185  11.950  1.2573 -1.5191 -0.3446
45938SOL    HW246783   4.406   9.126  12.065  1.1008 -0.0441  0.3378
45939SOL     OW46784   7.008  11.558   3.090  0.2192  0.4830 -0.2144
45939SOL    HW146785   6.931  11.573   3.144  0.5897  1.2359  0.1107
45939SOL    HW246786   6.989  11.604   3.008 -0.5550 -1.0656 -0.9482
45940SOL     OW46787   3.176   2.340   5.062  0.1476  0.3118  0.5163
45940SOL    HW146788   3.233   2.386   5.124  1.4773 -1.3536  0.5990
45940SOL    HW246789   3.168   2.251   5.098 -0.5159 -0.1835 -0.7766
45941SOL     OW46790   5.077   1.216   1.110  0.1160  0.2388  0.5722
45941SOL    HW146791   5.001   1.159   1.120  1.0887 -1.2715 -0.3335
45941SOL    HW246792   5.044   1.303   1.134 -1.6733 -0.4996  0.9877
45942SOL     OW46793   0.735   3.481   3.990 -0.0856 -0.0692 -0.1069
45942SOL    HW146794   0.692   3.411   3.942  0.2995 -0.6665  0.3972
45942SOL    HW246795   0.686   3.487   4.073  0.1938 -0.0897  0.0619
45943SOL     OW46796   1.584   6.275   1.985 -0.1025 -0.4841 -0.0184
45943SOL    HW146797   1.572   6.358   1.939 -1.2366 -1.1708 -1.0602
45943SOL    HW246798   1.600   6.299   2.076 -0.4885  0.8744 -0.2913
45944SOL     OW46799   3.605  12.331   4.608  0.3832  0.5866  0.2499
45944SOL    HW146800   3.655  12.360   4.532 -0.0106 -3.2020 -1.6789
45944SOL    HW246801   3.516  12.361   4.591  0.8431  2.3751  0.8182
45945SOL     OW46802   1.490   9.977   2.203  0.4207  0.2206  0.0831
45945SOL    HW146803   1.431   9.902   2.211  0.0029  0.5816  0.4901
45945SOL    HW246804   1.551   9.953   2.133  0.5741 -0.6796  0.5073
45946SOL     OW46805   8.494   6.370   1.388 -0.3361  0.4793  0.3520
45946SOL    HW146806   8.504   6.412   1.302  0.7673 -0.0074  0.2260
45946SOL    HW246807   8.399   6.359   1.399 -0.4966  0.7092 -0.7240
45947SOL     OW46808   0.978   1.011   5.617 -0.2451  0.1122 -0.1619
45947SOL    HW146809   1.055   1.057   5.651  1.5356 -2.1349 -0.8620
45947SOL    HW246810   0.968   1.046   5.528 -1.3572  1.8734  0.6118
45948SOL     OW46811   2.415  10.689   2.960 -0.0474  0.1884  1.0583
45948SOL    HW146812   2.421  10.600   2.994 -0.9123 -0.1299  0.4074
45948SOL    HW246813   2.358  10.682   2.883  0.9093  1.0939  0.2371
45949SOL     OW46814  12.024   0.796  12.433  0.1031  0.4644 -0.0512
45949SOL    HW146815  12.105   0.834  12.398 -0.5227  0.4081 -1.6649
45949SOL    HW246816  11.980   0.870  12.475 -0.3590  1.2364 -1.7810
45950SOL     OW46817   5.667   3.848   5.205 -0.6111 -0.4111 -0.4218
45950SOL    HW146818   5.606   3.922   5.201 -0.0576  0.0852  0.0535
45950SOL    HW246819   5.652   3.800   5.124  0.5109  1.4311 -1.7926
45951SOL     OW46820   8.620   7.160   9.809  0.9325  0.4862 -0.2748
45951SOL    HW146821   8.650   7.227   9.871  1.0283  0.9825 -0.8426
45951SOL    HW246822   8.597   7.210   9.730 -1.6787  0.2007  0.2087
45952SOL     OW46823   9.739   5.798   0.398 -0.0194 -0.0439 -0.2273
45952SOL    HW146824   9.681   5.812   0.472  0.6423  1.4571  0.0436
45952SOL    HW246825   9.738   5.704   0.385 -1.4804 -0.1813  0.5901
45953SOL     OW46826  11.680   0.083  11.676  0.1050  0.2689  0.6845
45953SOL    HW146827  11.599   0.118  11.713  0.6217  1.9993  0.2735
45953SOL    HW246828  11.749   0.115  11.734  0.6940  0.9154 -0.3348
45954SOL     OW46829   5.786   8.748   3.710  0.0775  0.4104  0.4980
45954SOL    HW146830   5.876   8.736   3.741 -0.3131 -1.4523  1.0328
45954SOL    HW246831   5.736   8.681   3.756 -1.3942  0.7110 -0.5969
45955SOL     OW46832   8.392  10.058   3.690 -0.1216  0.0126 -0.3106
45955SOL    HW146833   8.460  10.121   3.714 -0.0765 -0.5486  1.1258
45955SOL    HW246834   8.324  10.110   3.648  0.8968  0.6741 -1.1919
45956SOL     OW46835  11.660  12.091   4.557 -0.7337 -0.5345  0.2046
45956SOL    HW146836  11.676  11.998   4.542  1.1481 -0.1643 -0.1934
45956SOL    HW246837  11.639  12.127   4.471  1.2817 -0.1041 -0.1550
45957SOL     OW46838   7.914  11.686   9.579  0.1809 -0.5300  0.5112
45957SOL    HW146839   7.860  11.629   9.524  0.5600  0.1772 -0.6536
45957SOL    HW246840   7.975  11.727   9.517  1.0049 -0.1293  1.5652
45958SOL     OW46841  12.397   8.277  11.149 -0.1135  0.0066  0.0779
45958SOL    HW146842  12.326   8.227  11.189 -0.3710  0.6833  0.4818
45958SOL    HW246843  12.379   8.368  11.172  0.1680  0.3330 -0.9243
45959SOL     OW46844   5.808   5.983  10.972 -0.2234  0.0335  0.0290
45959SOL    HW146845   5.781   6.074  10.986 -1.0399  0.0899 -1.5910
45959SOL    HW246846   5.785   5.966  10.880  0.2469 -1.6934  0.2052
45960SOL     OW46847   7.991  10.295   6.667  0.0138  0.1981 -0.1159
45960SOL    HW146848   8.002  10.200   6.662 -0.3639  0.1546 -0.1838
45960SOL    HW246849   8.080  10.330   6.662  0.0783 -0.0803 -1.7676
45961SOL     OW46850   4.081   0.930   7.916  0.6652 -0.2625 -0.5816
45961SOL    HW146851   3.998   0.935   7.867  0.2226 -2.0670 -0.0885
45961SOL    HW246852   4.072   0.852   7.970  1.9198  0.6173  0.9723
45962SOL     OW46853   2.539   6.783   3.483  0.2055  0.2303 -0.3119
45962SOL    HW146854   2.481   6.707   3.482 -0.4794  0.7225  0.6209
45962SOL    HW246855   2.622   6.750   3.446 -0.1508 -0.8989 -0.1555
45963SOL     OW46856   3.676   1.154  10.078  0.2873 -0.7817 -0.0779
45963SOL    HW146857   3.654   1.215  10.149 -1.0841 -0.8055 -0.4584
45963SOL    HW246858   3.594   1.110  10.058  1.2106 -2.7083  0.1080
45964SOL     OW46859   0.767   0.234   2.275 -0.0359  0.3255  0.2628
45964SOL    HW146860   0.719   0.168   2.225 -0.4667  1.2294 -0.5542
45964SOL    HW246861   0.859   0.217   2.255 -0.2309  1.2973 -1.7361
45965SOL     OW46862   1.691   1.245   2.747 -0.4550  0.1040 -0.2179
45965SOL    HW146863   1.675   1.267   2.839  0.1814 -1.7413  0.3962
45965SOL    HW246864   1.604   1.232   2.710 -0.7140  0.5245  0.2309
45966SOL     OW46865   2.352   8.661   4.518 -0.0281 -0.3533  0.2860
45966SOL    HW146866   2.395   8.662   4.604  1.3150 -2.6500 -0.2776
45966SOL    HW246867   2.420   8.686   4.457  0.4803 -3.4141 -0.5547
45967SOL     OW46868   6.852  11.388   2.866  0.3012  0.2159 -0.3437
45967SOL    HW146869   6.796  11.393   2.943  0.3438 -1.9997 -0.1006
45967SOL    HW246870   6.817  11.455   2.807 -2.0281 -0.4389  0.1849
45968SOL     OW46871  12.294   3.070   2.009  0.0557 -0.1872 -0.0267
45968SOL    HW146872  12.222   3.008   2.010  0.5679 -0.8070  1.2212
45968SOL    HW246873  12.348   3.044   1.935  0.0465 -0.9883  0.2394
45969SOL     OW46874   2.676   3.535   2.198  0.6871 -0.2699 -0.2935
45969SOL    HW146875   2.664   3.533   2.293  0.3526  2.0630 -0.2502
45969SOL    HW246876   2.740   3.604   2.183  0.5825 -0.4754 -1.8013
45970SOL     OW46877   8.690   2.571   0.031  0.0034 -0.7718 -0.1193
45970SOL    HW146878   8.722   2.520  -0.044 -0.3266 -1.5124  0.2383
45970SOL    HW246879   8.595   2.567   0.023 -0.0331  0.7647 -0.7337
45971SOL     OW46880  10.232   4.816   3.256 -0.0858 -0.0583  0.3939
45971SOL    HW146881  10.273   4.895   3.292  1.5821 -0.8197  0.2845
45971SOL    HW246882  10.167   4.849   3.193 -1.0806  1.2317  2.0260
45972SOL     OW46883  10.711   4.111   9.136 -0.2774  0.2336 -0.4608
45972SOL    HW146884  10.734   4.151   9.052 -0.8573  1.0323 -0.2546
45972SOL    HW246885  10.787   4.057   9.159 -0.5066 -0.7870 -1.9639
45973SOL     OW46886  11.767  10.201   3.704 -0.3009 -0.5300  0.1972
45973SOL    HW146887  11.682  10.160   3.694  0.0167 -0.9968 -0.7139
45973SOL    HW246888  11.751  10.295   3.693 -0.5265 -0.7168 -1.2346
45974SOL     OW46889   3.676   2.315   3.392 -0.4427 -0.6079 -0.9440
45974SOL    HW146890   3.748   2.312   3.330  1.0245 -4.1197  0.6592
45974SOL    HW246891   3.641   2.226   3.393 -0.0612 -0.9378  3.4638
45975SOL     OW46892   1.535   7.054   1.693 -0.2548  0.0906 -0.1409
45975SOL    HW146893   1.452   7.095   1.715  0.3770  1.0330  0.5639
45975SOL    HW246894   1.570   7.107   1.622 -0.2024 -0.2449 -0.3689
45976SOL     OW46895   4.585  11.519   8.574 -0.8702 -0.0900 -0.1637
45976SOL    HW146896   4.612  11.458   8.642 -1.9262 -1.0208 -0.5553
45976SOL    HW246897   4.651  11.589   8.577 -1.0034 -0.0122  1.9161
45977SOL     OW46898   8.336   8.409  12.233 -0.9653 -0.1574  0.0766
45977SOL    HW146899   8.378   8.343  12.287 -1.2951 -0.7504 -0.3750
45977SOL    HW246900   8.408   8.462  12.199 -0.5787 -1.0884 -0.5924
45978SOL     OW46901   6.607   3.582   2.270 -0.1369 -0.1332 -0.4023
45978SOL    HW146902   6.701   3.568   2.258  0.1379  0.4852  0.9092
45978SOL    HW246903   6.567   3.536   2.196  1.0058 -3.0805  0.6564
45979SOL     OW46904   7.643   8.952   1.845  0.0254 -0.2451  0.0887
45979SOL    HW146905   7.660   8.902   1.765 -1.8214 -0.8247  0.0125
45979SOL    HW246906   7.646   9.044   1.817  1.1015 -0.3735 -0.2618
45980SOL     OW46907   0.332  11.425   6.936  0.7221  0.7563  0.2624
45980SOL    HW146908   0.376  11.417   6.852 -0.4282 -0.8482 -0.2318
45980SOL    HW246909   0.336  11.338   6.975 -0.2040  1.0675  1.1173
45981SOL     OW46910   9.966   8.737   2.129  0.1426  0.0769 -0.0511
45981SOL    HW146911   9.893   8.681   2.102  0.6884 -0.7318  0.1335
45981SOL    HW246912   9.942   8.824   2.098 -0.8246 -0.2152 -0.1338
45982SOL     OW46913  12.222   0.602   3.198 -0.1460 -0.1595  0.0414
45982SOL    HW146914  12.207   0.659   3.122 -2.0582  0.1261  0.5777
45982SOL    HW246915  12.147   0.617   3.254  0.8536 -0.9476  1.6598
45983SOL     OW46916   0.036   8.252   6.413 -0.1085 -0.2399  0.3078
45983SOL    HW146917  -0.025   8.320   6.444 -0.4939  0.1993 -1.3152
45983SOL    HW246918   0.039   8.189   6.484 -1.1561  0.5778  1.1230
45984SOL     OW46919   6.493   6.265   0.259  0.4811 -0.2901  0.5897
45984SOL    HW146920   6.460   6.180   0.287  0.7027 -0.5746  0.0050
45984SOL    HW246921   6.587   6.251   0.246  0.5814  0.1373  0.8378
45985SOL     OW46922  11.984   5.992   5.747 -0.2570  0.1646 -0.5675
45985SOL    HW146923  12.065   5.940   5.745  0.9265  1.7930  1.7319
45985SOL    HW246924  11.970   6.017   5.655  1.7118 -0.3376 -1.0514
45986SOL     OW46925   2.161   2.325   7.505  0.0026 -0.1773  0.0644
45986SOL    HW146926   2.210   2.385   7.561  0.9325 -0.9008  0.0461
45986SOL    HW246927   2.206   2.242   7.514 -0.3661 -0.5192 -1.0904
45987SOL     OW46928   0.640   7.315   8.029 -0.4572  0.1504 -1.0765
45987SOL    HW146929   0.628   7.341   8.120 -1.7427 -1.7045 -0.6495
45987SOL    HW246930   0.665   7.395   7.984 -1.5762  1.5051  0.5698
45988SOL     OW46931   9.615   2.702   7.907  0.3476 -0.3803 -0.6280
45988SOL    HW146932   9.533   2.658   7.884 -0.2227  0.1764  0.2955
45988SOL    HW246933   9.645   2.658   7.987  0.7754 -0.3503 -0.7656
45989SOL     OW46934   7.551   6.211   1.674 -0.6899 -0.4320 -0.3350
45989SOL    HW146935   7.532   6.210   1.580  0.0172 -0.0982 -0.4810
45989SOL    HW246936   7.465   6.203   1.715 -0.9178 -1.8258 -1.0117
45990SOL     OW46937   2.192   3.379   2.234  0.2415 -0.6843 -0.4519
45990SOL    HW146938   2.176   3.308   2.296  3.0276  0.1879  1.5014
45990SOL    HW246939   2.230   3.337   2.157  0.2540 -1.4608 -0.0277
45991SOL     OW46940  12.432   0.529   7.666  0.5827  0.0821 -0.1566
45991SOL    HW146941  12.395   0.529   7.755 -0.3010  0.6487 -0.5129
45991SOL    HW246942  12.486   0.608   7.663  0.9038 -0.1299 -0.0106
45992SOL     OW46943   9.008   9.569   1.456 -0.1056  0.1031  0.3326
45992SOL    HW146944   9.086   9.524   1.489  1.0446  1.7454 -0.0238
45992SOL    HW246945   8.967   9.606   1.535  0.1496  0.2636  0.3903
45993SOL     OW46946  11.478   1.115  10.895 -0.4429  0.4950 -0.3823
45993SOL    HW146947  11.458   1.064  10.817 -0.2488  2.5002 -1.8378
45993SOL    HW246948  11.513   1.198  10.861  2.4125  0.3606  1.8903
45994SOL     OW46949   6.386   5.654   4.820  0.2131 -0.4265 -0.4653
45994SOL    HW146950   6.368   5.652   4.914 -0.0345  0.4677 -0.4843
45994SOL    HW246951   6.416   5.566   4.799  0.5870 -0.5404  0.5153
45995SOL     OW46952   7.152   0.618   0.648  0.1183  0.2542  0.7380
45995SOL    HW146953   7.109   0.608   0.563 -0.5944  3.1482  0.6376
45995SOL    HW246954   7.237   0.656   0.627  0.2803  0.1898  1.2699
45996SOL     OW46955   3.326   7.517   1.754  0.3541  0.1691 -0.1095
45996SOL    HW146956   3.382   7.559   1.819 -2.3207  2.1856  1.1122
45996SOL    HW246957   3.360   7.428   1.746  3.0128  0.9592  1.2826
45997SOL     OW46958   2.695   6.578   6.364  0.0723 -0.7235  0.2453
45997SOL    HW146959   2.731   6.583   6.275  0.1004 -1.7443  0.1823
45997SOL    HW246960   2.604   6.550   6.351  0.4007 -1.9853  0.5794
45998SOL     OW46961   2.517  11.827   2.596 -0.5461  0.4136  0.0749
45998SOL    HW146962   2.608  11.814   2.568  0.2346  2.0701  1.6765
45998SOL    HW246963   2.485  11.900   2.544 -1.4084 -0.8848 -1.3150
45999SOL     OW46964   9.626   0.031   6.843 -0.0876 -0.4205  0.0004
45999SOL    HW146965   9.592   0.109   6.799 -0.0965 -1.0379 -1.1227
45999SOL    HW246966   9.571  -0.041   6.811  0.4880 -1.0212  0.3253
46000SOL     OW46967  11.956   8.751   8.257  0.4911 -0.0346  0.2760
46000SOL    HW146968  11.987   8.682   8.316  0.7313  0.5663  0.8638
46000SOL    HW246969  12.035   8.785   8.216  0.3162 -0.5040 -0.4657
46001SOL     OW46970   9.111   7.267   8.727 -0.0611  0.3497 -0.2028
46001SOL    HW146971   9.032   7.322   8.730  0.0696  0.4984  1.2196
46001SOL    HW246972   9.092   7.195   8.787  0.8158  0.3079  0.0389
46002SOL     OW46973   2.456   7.012   0.624 -0.0980  0.0047 -0.0348
46002SOL    HW146974   2.407   6.939   0.585 -2.0356  0.5930  1.1916
46002SOL    HW246975   2.514   6.970   0.688  1.1745 -0.6996 -1.5405
46003SOL     OW46976   7.870   1.368   2.960  0.0662 -0.1660  0.1308
46003SOL    HW146977   7.952   1.326   2.937  0.5356  0.5750  0.4337
46003SOL    HW246978   7.853   1.338   3.050  0.0893 -0.1803  0.1304
46004SOL     OW46979   8.567  12.249   9.190 -0.0654  0.2458  0.0934
46004SOL    HW146980   8.625  12.319   9.161  0.2931  0.0973  0.4452
46004SOL    HW246981   8.506  12.291   9.251  0.4977  0.1481  0.7332
46005SOL     OW46982   4.009   0.413   6.710 -0.6130  0.0094  0.2920
46005SOL    HW146983   4.024   0.500   6.672  2.4670 -0.3337  0.4846
46005SOL    HW246984   3.978   0.431   6.799 -0.0295  0.9121  0.3196
46006SOL     OW46985  11.156   4.494   0.840  0.3285 -0.0077  0.3393
46006SOL    HW146986  11.138   4.421   0.781  2.4466 -0.6736  0.4386
46006SOL    HW246987  11.193   4.562   0.782  0.4431  0.1270  0.5692
46007SOL     OW46988   5.505  11.394   1.384 -0.1473 -0.0349  0.0335
46007SOL    HW146989   5.533  11.326   1.445 -0.2144 -0.0988 -0.0066
46007SOL    HW246990   5.428  11.357   1.341  0.1339 -0.1488 -0.3736
46008SOL     OW46991   8.976   1.709   3.472 -0.1222 -0.3596  0.1111
46008SOL    HW146992   8.916   1.716   3.546  0.0565  0.3095  0.2003
46008SOL    HW246993   8.923   1.735   3.396 -0.2756 -0.9384  0.0181
46009SOL     OW46994   7.674   5.205   1.071  0.5298  0.2874  0.4584
46009SOL    HW146995   7.681   5.258   0.991 -0.5186 -0.8191 -0.4196
46009SOL    HW246996   7.762   5.171   1.085  0.8991  1.1105  0.2263
46010SOL     OW46997   5.854   9.147  12.266  0.0941 -0.1217 -0.2227
46010SOL    HW146998   5.919   9.177  12.202 -0.3718 -0.0949 -0.6884
46010SOL    HW246999   5.882   9.187  12.348  0.3007  0.4302 -0.5520
46011SOL     OW47000   5.702   6.637   8.768 -0.6408 -0.1465 -0.2985
46011SOL    HW147001   5.676   6.667   8.681 -1.1009 -1.3989 -0.6145
46011SOL    HW247002   5.782   6.686   8.788 -0.7878  0.4875 -1.2273
46012SOL     OW47003   6.077   4.898   9.873 -0.0048  0.3899  0.5364
46012SOL    HW147004   6.068   4.807   9.844  0.4108  0.5129  0.0061
46012SOL    HW247005   6.112   4.891   9.962 -0.6470  0.0199  0.7661
46013SOL     OW47006   5.681  11.821   6.766  0.0289 -0.7751 -0.8549
46013SOL    HW147007   5.628  11.784   6.695 -2.1333  1.3741 -0.5142
46013SOL    HW247008   5.643  11.783   6.846  0.3078 -0.7112 -0.6916
46014SOL     OW47009  12.278   1.515   2.647 -0.9093  0.4262 -0.7651
46014SOL    HW147010  12.350   1.468   2.605 -0.3474 -0.0292  0.6649
46014SOL    HW247011  12.318   1.561   2.720 -1.7152  1.9459 -1.2149
46015SOL     OW47012   2.844   6.653   7.274 -0.3945  0.0930  0.1902
46015SOL    HW147013   2.932   6.666   7.309 -0.5623 -2.5604  1.8433
46015SOL    HW247014   2.857   6.601   7.195 -0.4780 -0.7250  0.7048
46016SOL     OW47015   7.322   7.528   5.214  0.7164  0.1298  0.0464
46016SOL    HW147016   7.261   7.525   5.288 -1.6676  1.0900 -1.7551
46016SOL    HW247017   7.365   7.443   5.215 -0.4703 -0.4991  1.5559
46017SOL     OW47018   8.809   4.749  12.035 -0.1036  0.7679 -0.4022
46017SOL    HW147019   8.798   4.659  12.064  0.0765  0.5009 -1.1358
46017SOL    HW247020   8.758   4.755  11.954  0.2603  1.1876 -0.6072
46018SOL     OW47021  12.516   0.041   0.314 -0.0631 -0.6686  0.2759
46018SOL    HW147022  12.524  -0.018   0.239  0.5697 -0.9900  0.5867
46018SOL    HW247023  12.605   0.072   0.330 -0.0722 -1.1031  1.2795
46019SOL     OW47024   9.640   6.883  12.205 -0.6185  0.0749 -0.2460
46019SOL    HW147025   9.667   6.878  12.297 -0.6645  1.5284 -0.1367
46019SOL    HW247026   9.695   6.952  12.167 -3.5873  2.6712 -0.1812
46020SOL     OW47027   6.854  10.917   8.252 -0.1669  0.7214  0.1681
46020SOL    HW147028   6.930  10.972   8.269 -0.5830  0.7895  2.0918
46020SOL    HW247029   6.825  10.942   8.165  1.2963  1.5492 -0.1183
46021SOL     OW47030   6.674   0.580   7.240  0.1671 -0.1263 -0.0837
46021SOL    HW147031   6.653   0.489   7.218  0.0352 -0.0002 -0.4724
46021SOL    HW247032   6.717   0.614   7.162  2.8687 -0.7004  1.0473
46022SOL     OW47033   2.737   1.323   7.432  0.3149 -0.7207 -0.3526
46022SOL    HW147034   2.708   1.288   7.347  1.0480 -0.8155 -0.5728
46022SOL    HW247035   2.657   1.355   7.473 -0.0268 -0.5079 -1.1576
46023SOL     OW47036   1.213   0.531   6.375 -0.0338  0.1542 -0.2564
46023SOL    HW147037   1.144   0.476   6.338 -0.7205  1.0520 -0.3370
46023SOL    HW247038   1.224   0.601   6.311 -2.2772  2.5851  1.8373
46024SOL     OW47039   0.713   3.097  11.204  0.4829  0.1132 -0.3194
46024SOL    HW147040   0.673   3.013  11.225 -0.1357 -0.0425 -1.9473
46024SOL    HW247041   0.639   3.156  11.189  0.8464  1.6369  2.9583
46025SOL     OW47042   1.470   6.097   8.242  0.1420  0.1654 -0.5501
46025SOL    HW147043   1.432   6.182   8.265 -2.1001 -1.1170  0.7614
46025SOL    HW247044   1.449   6.040   8.315  2.4610 -1.3412 -0.9506
46026SOL     OW47045   8.241   0.360   8.102 -0.1053 -0.3764 -0.1607
46026SOL    HW147046   8.205   0.273   8.084  3.9687 -2.4754  0.6747
46026SOL    HW247047   8.302   0.375   8.030 -0.8891  1.9977 -0.4044
46027SOL     OW47048   9.360  11.744  11.087 -0.3309  0.4437  0.3040
46027SOL    HW147049   9.369  11.819  11.028  1.3595  1.3805  1.6499
46027SOL    HW247050   9.277  11.704  11.062 -0.0927  1.2785 -2.1228
46028SOL     OW47051   0.117   0.515   3.259  0.0815 -0.5469 -0.3174
46028SOL    HW147052   0.059   0.575   3.305 -0.3594 -0.9799 -0.2967
46028SOL    HW247053   0.087   0.517   3.168  0.8650  0.2039 -0.5711
46029SOL     OW47054   1.136   0.059   2.947  0.3782  0.1009 -0.1680
46029SOL    HW147055   1.199   0.031   3.013  1.4209 -1.4744 -1.7279
46029SOL    HW247056   1.076  -0.014   2.938 -0.4640  0.7771 -0.1334
46030SOL     OW47057  10.167   8.358   0.982  0.3986 -0.7497 -0.3613
46030SOL    HW147058  10.144   8.332   1.071  0.3172 -0.2914 -0.2462
46030SOL    HW247059  10.215   8.283   0.947  1.3991 -0.5182  0.4463
46031SOL     OW47060   4.791   8.094   3.472 -0.4766  0.1163  0.3735
46031SOL    HW147061   4.782   8.033   3.545  0.6908 -1.4441 -0.7275
46031SOL    HW247062   4.885   8.108   3.464 -0.5540 -0.0612 -1.0655
46032SOL     OW47063   2.567   8.095  10.220  0.3494 -0.8774  0.3085
46032SOL    HW147064   2.580   8.152  10.297 -0.3291 -1.7770  1.1201
46032SOL    HW247065   2.645   8.039  10.219 -0.0493 -1.4732  0.9133
46033SOL     OW47066  11.970  10.318   5.551 -0.0280 -0.5395  0.1766
46033SOL    HW147067  11.989  10.343   5.460 -0.6845 -2.0448 -0.3973
46033SOL    HW247068  12.035  10.366   5.602  1.4278 -0.9175 -1.2269
46034SOL     OW47069   1.334   7.290   3.211  0.0360  0.3947  0.0633
46034SOL    HW147070   1.273   7.297   3.138 -0.8442  0.1859  0.7643
46034SOL    HW247071   1.374   7.377   3.218 -1.2451  0.9821  0.4965
46035SOL     OW47072   8.505   6.174  10.431 -0.0268  0.7221 -0.3340
46035SOL    HW147073   8.506   6.103  10.367  1.3189 -1.3342  1.8078
46035SOL    HW247074   8.578   6.230  10.406  1.7188 -1.1058  0.3633
46036SOL     OW47075   6.827  12.150   6.151  0.1461 -0.4347  0.6160
46036SOL    HW147076   6.748  12.194   6.118  1.2938  1.2207 -0.0876
46036SOL    HW247077   6.874  12.123   6.072  0.9407 -0.1539  0.9805
46037SOL     OW47078   4.291  12.154   9.376 -0.1872  0.5532  0.0298
46037SOL    HW147079   4.232  12.087   9.411  0.5987 -0.3101 -0.2319
46037SOL    HW247080   4.333  12.111   9.301  0.2007  1.4093 -0.2518
46038SOL     OW47081   0.238   8.857   7.446  0.0385  0.0306 -0.0215
46038SOL    HW147082   0.317   8.912   7.446  0.4790 -0.5988  0.3204
46038SOL    HW247083   0.245   8.804   7.525 -2.2723  2.1233  1.7664
46039SOL     OW47084   5.318   9.470   5.613 -0.3153  0.4379  0.1239
46039SOL    HW147085   5.383   9.461   5.682  0.1944 -2.2468 -0.6043
46039SOL    HW247086   5.370   9.482   5.533 -0.6134 -1.9734 -0.4994
46040SOL     OW47087   5.133   0.656  10.167  0.2478  0.1195 -0.4337
46040SOL    HW147088   5.044   0.633  10.142  0.1072  0.1307  0.0496
46040SOL    HW247089   5.153   0.598  10.241  0.5127  0.3605 -0.3117
46041SOL     OW47090   0.333   9.927   6.811  0.0975 -0.4206  0.5136
46041SOL    HW147091   0.263   9.883   6.859  0.6374 -2.9956 -0.8811
46041SOL    HW247092   0.288   9.977   6.743 -0.4457 -0.5099  0.8031
46042SOL     OW47093  11.011   3.708   2.312  0.3551 -0.6733  0.3942
46042SOL    HW147094  11.023   3.667   2.226 -1.1114 -1.3089  0.4654
46042SOL    HW247095  11.025   3.637   2.375 -0.7661 -0.7449  0.5788
46043SOL     OW47096   2.155   6.618   9.265 -0.1753 -0.4464  0.1335
46043SOL    HW147097   2.067   6.596   9.296 -0.4513 -2.9680 -2.0522
46043SOL    HW247098   2.150   6.711   9.243 -1.3542  0.2080  2.7731
46044SOL     OW47099   5.172   4.979   9.301 -0.0316 -0.0006 -0.3151
46044SOL    HW147100   5.222   4.935   9.370  0.0725  2.6354  1.4346
46044SOL    HW247101   5.174   4.917   9.227  2.2515 -1.7585  1.0601
46045SOL     OW47102   7.359  10.209   5.680 -0.0562  0.4787  0.2265
46045SOL    HW147103   7.388  10.130   5.633 -0.2909 -0.2222  1.2298
46045SOL    HW247104   7.336  10.178   5.767  1.2759  1.9180  1.1395
46046SOL     OW47105   3.791   7.975   8.342  0.0887 -0.1472  0.9641
46046SOL    HW147106   3.778   7.893   8.295  0.4408 -0.9544  2.2226
46046SOL    HW247107   3.791   8.042   8.274 -0.9897 -1.0994 -0.0197
46047SOL     OW47108   1.710  11.693  10.954 -0.4014 -0.4748 -0.1119
46047SOL    HW147109   1.756  11.752  10.895 -0.1917 -1.0447 -0.5251
46047SOL    HW247110   1.780  11.639  10.992 -0.7496 -1.5874 -1.0071
46048SOL     OW47111   0.703  11.659   8.708 -0.4005 -0.1704 -0.3264
46048SOL    HW147112   0.752  11.594   8.658  0.8127 -1.8855  2.7730
46048SOL    HW247113   0.654  11.607   8.773 -0.6887  1.9184  1.2349
46049SOL     OW47114   6.430  10.528  10.927 -0.0394  0.3629  0.7972
46049SOL    HW147115   6.484  10.602  10.954 -0.7038  1.7411 -1.3765
46049SOL    HW247116   6.369  10.565  10.864 -1.2761 -1.8173  0.6187
46050SOL     OW47117   9.443   9.632   9.201  0.2834 -0.4394  0.4488
46050SOL    HW147118   9.375   9.601   9.142  0.4876  1.2787 -0.7826
46050SOL    HW247119   9.525   9.618   9.152  0.3574  2.2594 -0.3894
46051SOL     OW47120   5.364   8.519  10.431 -0.5265 -0.0474 -0.1406
46051SOL    HW147121   5.408   8.565  10.503  2.1057  1.3243 -2.4231
46051SOL    HW247122   5.308   8.586  10.391  2.4632  1.0990 -2.7849
46052SOL     OW47123   0.083   3.792   0.303 -0.1771 -0.3013 -0.1412
46052SOL    HW147124   0.116   3.779   0.392 -2.0194  0.6574  0.7398
46052SOL    HW247125   0.050   3.706   0.277 -2.4073  0.0432  1.3533
46053SOL     OW47126   9.984   4.880   2.037  0.0092  0.8090 -0.1813
46053SOL    HW147127  10.056   4.908   2.094 -0.2031  1.2775 -0.1408
46053SOL    HW247128   9.990   4.784   2.037  0.1251  0.8105  0.4841
46054SOL     OW47129   6.511   0.656   5.430  0.1777 -0.7406  0.1155
46054SOL    HW147130   6.522   0.592   5.500  1.2988 -1.1536 -0.4095
46054SOL    HW247131   6.588   0.644   5.374 -0.2506  0.1776 -0.7084
46055SOL     OW47132   7.610   1.784   7.226 -0.4690 -0.9526  0.1689
46055SOL    HW147133   7.518   1.757   7.227 -1.4234  1.7521 -1.8507
46055SOL    HW247134   7.636   1.781   7.318 -3.2208  0.0402  1.1112
46056SOL     OW47135   0.315   6.951   1.534  0.1007 -0.2472  0.3231
46056SOL    HW147136   0.225   6.926   1.515  0.5681 -1.1941 -0.7300
46056SOL    HW247137   0.369   6.895   1.478  1.3637  0.0969  1.1383
46057SOL     OW47138   9.444   9.580   7.593 -0.1065 -0.2870 -0.2672
46057SOL    HW147139   9.518   9.609   7.646 -0.8549 -1.9414  1.8393
46057SOL    HW247140   9.368   9.590   7.650 -0.6714 -4.0898 -0.0949
46058SOL     OW47141   4.687  10.313   3.515 -0.0166  0.4508 -0.0654
46058SOL    HW147142   4.776  10.286   3.493  0.0623  1.2040 -0.6947
46058SOL    HW247143   4.661  10.255   3.587  1.2073  0.6253  0.5439
46059SOL     OW47144   2.687   8.549   1.222 -0.2492 -0.3830  0.0699
46059SOL    HW147145   2.745   8.530   1.296  0.8016  2.3306  0.0635
46059SOL    HW247146   2.695   8.473   1.165  1.9136 -0.9128  0.9592
46060SOL     OW47147   4.039  10.251   1.096 -0.2340  0.4527 -0.0214
46060SOL    HW147148   4.099  10.195   1.048 -1.0211 -0.3733 -0.0616
46060SOL    HW247149   4.093  10.290   1.165  0.3133 -0.4109  0.0569
46061SOL     OW47150   2.060   3.809   8.684  0.0665 -0.2651  0.1394
46061SOL    HW147151   2.025   3.868   8.751  1.8049 -0.3678  1.1902
46061SOL    HW247152   2.039   3.721   8.716  1.1554 -0.3243  0.7337
46062SOL     OW47153   3.889   3.481   4.718  0.2103  0.1602  0.2013
46062SOL    HW147154   3.795   3.498   4.707 -0.6792 -2.1666  2.8839
46062SOL    HW247155   3.895   3.440   4.804  3.3988 -1.9535 -0.8674
46063SOL     OW47156   8.239   5.224   1.385 -0.0279  0.2968 -0.2533
46063SOL    HW147157   8.333   5.216   1.402  0.1817  1.2466 -0.8713
46063SOL    HW247158   8.223   5.318   1.381 -0.8040  0.1436 -1.2197
46064SOL     OW47159   7.685   9.078   5.534 -0.5795 -0.2124 -0.3714
46064SOL    HW147160   7.733   9.109   5.458  0.4051 -2.9103 -0.9455
46064SOL    HW247161   7.609   9.033   5.497 -0.3378 -1.1463  0.2615
46065SOL     OW47162   0.902   8.997  11.841 -0.0146 -0.3800 -0.1252
46065SOL    HW147163   0.929   8.969  11.754  1.7385  1.7580 -0.3723
46065SOL    HW247164   0.879   8.916  11.886  1.2771 -1.7962 -1.8481
46066SOL     OW47165  11.527   9.723   2.919 -0.2308  0.2787  0.3766
46066SOL    HW147166  11.541   9.636   2.881 -1.6413 -0.5250  1.5942
46066SOL    HW247167  11.435   9.741   2.902 -1.4373 -0.8292  4.5893
46067SOL     OW47168   3.485   3.391   1.627 -0.3512  0.2733 -0.7594
46067SOL    HW147169   3.518   3.310   1.590  0.2214  1.0407 -1.9855
46067SOL    HW247170   3.562   3.435   1.663 -0.0424  1.7355 -2.9890
46068SOL     OW47171   6.232   3.311   0.939 -0.3012  0.1054  0.0495
46068SOL    HW147172   6.232   3.406   0.950 -0.8118  0.0125  0.9910
46068SOL    HW247173   6.310   3.282   0.986 -0.8175 -0.0326  0.8488
46069SOL     OW47174   6.101   8.103   3.114  0.3195 -0.2579  0.3107
46069SOL    HW147175   6.019   8.150   3.104 -0.2115 -1.5141 -1.7447
46069SOL    HW247176   6.077   8.022   3.159  0.4137 -0.6330 -0.3021
46070SOL     OW47177   8.046   1.424   0.017 -0.1051  0.1132  0.5224
46070SOL    HW147178   8.086   1.359   0.075 -1.0933 -0.3473  0.7067
46070SOL    HW247179   8.082   1.508   0.046 -0.7760 -0.0810  1.9649
46071SOL     OW47180   0.826   9.268   1.756 -0.0575  0.0904 -0.0378
46071SOL    HW147181   0.750   9.227   1.714  0.2614 -0.1752 -0.3698
46071SOL    HW247182   0.789   9.332   1.817 -0.5533 -0.3747  0.1541
46072SOL     OW47183   1.796   6.543   5.057  0.5687  0.4043  0.2671
46072SOL    HW147184   1.814   6.630   5.020 -0.9494  0.4566 -0.4223
46072SOL    HW247185   1.721   6.557   5.115  0.6993 -0.3448  0.6190
46073SOL     OW47186   4.475   8.754   3.010  0.1790 -0.3118  0.5097
46073SOL    HW147187   4.382   8.771   3.020  0.2399 -0.5283  1.5295
46073SOL    HW247188   4.480   8.684   2.945 -0.3995 -0.6294  0.7991
46074SOL     OW47189   8.037   2.579   4.585  0.1628  0.3369 -0.5358
46074SOL    HW147190   8.015   2.593   4.493 -2.1636  0.7548  0.0216
46074SOL    HW247191   8.052   2.667   4.619 -1.3246  0.3965 -0.0027
46075SOL     OW47192   8.183   0.993   0.848  0.2879 -0.0063 -0.1321
46075SOL    HW147193   8.109   0.969   0.904  0.8496 -1.9926 -0.1763
46075SOL    HW247194   8.256   1.006   0.907  0.3271  0.2035 -0.2257
46076SOL     OW47195  11.770  10.163   8.890 -0.2407 -0.0526  0.3402
46076SOL    HW147196  11.814  10.199   8.813 -0.4539  1.7366  1.0110
46076SOL    HW247197  11.803  10.073   8.897  1.6155  0.5257 -0.4482
46077SOL     OW47198   5.308   7.918   5.273  0.0630 -0.6190 -0.2403
46077SOL    HW147199   5.292   7.824   5.265 -0.1700 -0.6692  0.6523
46077SOL    HW247200   5.326   7.947   5.184 -0.8882 -1.3242 -0.6897
46078SOL     OW47201  12.379   4.058   6.127  0.1019  0.3588 -0.0847
46078SOL    HW147202  12.286   4.080   6.119  0.1126  0.6947  0.6251
46078SOL    HW247203  12.419   4.095   6.048 -0.5210 -0.6996 -0.9105
46079SOL     OW47204   7.260   2.635   9.325  0.0336 -0.2805 -0.1864
46079SOL    HW147205   7.317   2.592   9.261 -0.8562 -1.4667 -0.1983
46079SOL    HW247206   7.172   2.606   9.302 -0.9562  3.2865 -1.6166
46080SOL     OW47207  10.036  10.450  10.564  0.1699  0.0588  0.6219
46080SOL    HW147208  10.022  10.533  10.610 -1.2699  0.4240 -0.4281
46080SOL    HW247209   9.988  10.459  10.482  3.3584 -0.2543 -1.4427
46081SOL     OW47210  11.756   2.014  12.436  0.2425  0.0412 -0.0082
46081SOL    HW147211  11.687   2.041  12.496  0.4406 -0.6808  0.5631
46081SOL    HW247212  11.710   1.992  12.355 -0.1834 -0.2717  0.3172
46082SOL     OW47213   4.948   5.561   4.182  0.1887 -0.0909 -0.1124
46082SOL    HW147214   5.013   5.567   4.112 -0.8395  0.2902 -1.0638
46082SOL    HW247215   4.997   5.529   4.257  1.3070 -0.6021 -1.0254
46083SOL     OW47216   2.711   7.641  10.271 -0.1205 -0.1119  0.1140
46083SOL    HW147217   2.643   7.705  10.249  0.1497  0.0428 -0.2819
46083SOL    HW247218   2.669   7.582  10.333 -0.5336  0.1456  0.0811
46084SOL     OW47219   8.929   3.624   1.272 -0.2130 -0.2365 -0.5204
46084SOL    HW147220   8.913   3.534   1.244 -1.3015 -0.1446 -0.2408
46084SOL    HW247221   8.877   3.634   1.352 -0.2346  0.6783 -0.6334
46085SOL     OW47222  10.461   8.265  10.227 -0.1728 -0.3199 -0.2841
46085SOL    HW147223  10.435   8.319  10.302  1.6989 -0.6287  0.6415
46085SOL    HW247224  10.380   8.222  10.200 -1.0901  0.5517  0.9367
46086SOL     OW47225   1.958   1.176   0.082 -0.1992  0.1195  0.5720
46086SOL    HW147226   1.910   1.132   0.152 -0.2866 -2.0302 -0.7678
46086SOL    HW247227   2.050   1.167   0.108 -0.1718 -1.4462  0.0555
46087SOL     OW47228   1.288   9.067   8.228  0.3289  0.6906 -0.0600
46087SOL    HW147229   1.302   9.066   8.323 -0.7262  1.0881  0.1191
46087SOL    HW247230   1.256   8.979   8.208  2.2701  0.0082 -0.3594
46088SOL     OW47231   0.989   9.075   1.028 -0.0122 -0.1496 -0.1234
46088SOL    HW147232   1.034   9.054   0.947 -0.6901  0.2722 -0.6171
46088SOL    HW247233   1.036   9.026   1.095 -0.1288 -1.3770 -0.9111
46089SOL     OW47234   0.198   8.913   1.688  0.1055 -0.0843 -0.0555
46089SOL    HW147235   0.129   8.870   1.739  0.3085 -2.1301 -1.3859
46089SOL    HW247236   0.253   8.955   1.754 -1.5913  0.4017  1.1279
46090SOL     OW47237   2.713  10.898  12.237 -0.2614 -0.1060  0.0253
46090SOL    HW147238   2.695  10.990  12.255  0.7443  1.1396 -4.2813
46090SOL    HW247239   2.641  10.870  12.180  0.7104 -1.2053 -0.7066
46091SOL     OW47240   0.740   3.762   9.716 -0.4375  0.0229 -0.3477
46091SOL    HW147241   0.679   3.728   9.651 -1.0035 -1.1196  0.7358
46091SOL    HW247242   0.687   3.819   9.771 -0.4057 -0.4780  0.2156
46092SOL     OW47243  10.691   2.376   1.503  0.5227 -0.4574 -0.2250
46092SOL    HW147244  10.664   2.315   1.434 -0.0928 -1.6639  1.0330
46092SOL    HW247245  10.612   2.389   1.556  1.7458 -2.3392  2.2840
46093SOL     OW47246   5.625   0.485   5.918  0.2309 -0.4173  0.4080
46093SOL    HW147247   5.564   0.413   5.933  1.2851 -1.1914  1.0844
46093SOL    HW247248   5.704   0.443   5.884  0.1861  0.6381 -1.0898
46094SOL     OW47249   2.606  11.077   2.131  0.0061  0.0467  0.5877
46094SOL    HW147250   2.668  11.129   2.182 -1.2877  3.3841 -0.9466
46094SOL    HW247251   2.529  11.069   2.188  0.4867 -0.8990  1.1165
46095SOL     OW47252   3.993   9.973   6.387  0.5074  0.3295  0.2697
46095SOL    HW147253   3.950  10.050   6.349  0.1571  0.7433  1.4555
46095SOL    HW247254   4.058   9.947   6.321 -0.7080  0.4267 -1.0172
46096SOL     OW47255   8.740  11.168   1.298 -0.0537  0.5064  0.0423
46096SOL    HW147256   8.682  11.101   1.263  1.0334  0.8920 -2.6971
46096SOL    HW247257   8.823  11.154   1.253  0.1499  3.8044 -0.8718
46097SOL     OW47258   5.619   9.224   1.530  0.3957 -0.2139  0.0547
46097SOL    HW147259   5.551   9.191   1.471 -0.0250  0.4716  0.1370
46097SOL    HW247260   5.678   9.150   1.544  0.2781 -0.4979 -0.9112
46098SOL     OW47261  12.475  11.808   3.988  0.1883  0.0001 -0.5641
46098SOL    HW147262  12.534  11.868   3.942  1.1809 -0.3094  0.2707
46098SOL    HW247263  12.395  11.808   3.935  0.2041  1.9513 -0.6675
46099SOL     OW47264   0.863   8.777   1.798  0.0684  0.1262  0.2473
46099SOL    HW147265   0.877   8.760   1.891  2.7649 -1.3564 -0.3191
46099SOL    HW247266   0.948   8.808   1.767 -0.3932 -0.7065 -1.9777
46100SOL     OW47267   0.543   5.283   3.853  0.0173 -0.3582 -0.0418
46100SOL    HW147268   0.542   5.315   3.763 -0.0569 -0.0811  0.0562
46100SOL    HW247269   0.457   5.241   3.864  0.0774 -0.5064 -0.1407
46101SOL     OW47270   2.059   0.232   8.748 -0.0941  0.4023 -0.3004
46101SOL    HW147271   1.980   0.197   8.789 -0.8043  0.5311 -1.5411
46101SOL    HW247272   2.079   0.171   8.678 -0.7973  1.9163 -1.8852
46102SOL     OW47273   8.569   1.608  12.393 -0.0478  0.2546 -0.4560
46102SOL    HW147274   8.592   1.694  12.427 -0.2510 -0.4544  1.6491
46102SOL    HW247275   8.502   1.576  12.454  0.7851 -1.8012 -0.5381
46103SOL     OW47276   7.864   4.245   9.031  0.6012  0.2803  0.0920
46103SOL    HW147277   7.868   4.310   8.962 -0.0136  0.0306 -0.1828
46103SOL    HW247278   7.836   4.165   8.987  0.0171  0.1680  0.6625
46104SOL     OW47279  12.571  10.916   4.482  0.1656  0.1058 -0.2353
46104SOL    HW147280  12.552  10.924   4.575 -0.7060 -0.3274 -0.3674
46104SOL    HW247281  12.634  10.986   4.464 -0.7405  1.1048  0.3766
46105SOL     OW47282   5.188   0.273   4.035  0.0914  0.1527 -0.2715
46105SOL    HW147283   5.231   0.357   4.022 -0.6582  1.0420  2.4352
46105SOL    HW247284   5.121   0.269   3.966  2.1323  0.2644 -2.3920
46106SOL     OW47285   8.045  12.341   3.488  0.2720  0.5882 -0.0278
46106SOL    HW147286   8.040  12.247   3.472 -1.2261 -0.0255  3.2757
46106SOL    HW247287   8.136  12.356   3.514  1.0142  0.5054 -2.3012
46107SOL     OW47288   9.964   2.989  10.521  0.4977  0.7148  0.0639
46107SOL    HW147289   9.921   2.923  10.466  0.5939  0.0753  0.7416
46107SOL    HW247290   9.914   3.069  10.505  0.4577  0.5179 -0.8717
46108SOL     OW47291   5.202   8.556   9.535 -0.0291 -0.8232 -0.6378
46108SOL    HW147292   5.221   8.630   9.478 -0.5249 -0.5911 -0.5137
46108SOL    HW247293   5.287   8.529   9.569  0.2029 -0.5923 -1.0277
46109SOL     OW47294   5.583   5.818   6.204 -0.2578  0.2780  0.1275
46109SOL    HW147295   5.492   5.837   6.183 -0.2471  0.0863 -0.0932
46109SOL    HW247296   5.633   5.849   6.129 -0.0713  1.0186  0.5472
46110SOL     OW47297   3.667   6.393   9.683 -0.3926 -0.1406 -0.3166
46110SOL    HW147298   3.652   6.342   9.763  0.8682  0.9918  0.6987
46110SOL    HW247299   3.684   6.482   9.715  0.3947  0.2843 -1.8331
46111SOL     OW47300   3.978  10.562   7.881  0.0476  0.7408  0.0600
46111SOL    HW147301   4.004  10.559   7.973 -1.4895 -3.4187  0.6117
46111SOL    HW247302   4.034  10.496   7.839 -1.2124  0.5029 -1.3164
46112SOL     OW47303   2.982   4.716   2.044  0.4144  0.2951  0.0481
46112SOL    HW147304   2.958   4.655   2.115 -0.5977  1.4618  0.7541
46112SOL    HW247305   3.072   4.692   2.022  0.1838 -1.1947  0.5603
46113SOL     OW47306   5.775   0.327   9.069 -0.1621 -0.2639 -0.2419
46113SOL    HW147307   5.695   0.378   9.081  1.7178  2.8844  0.0275
46113SOL    HW247308   5.810   0.315   9.158 -0.0721 -1.2245 -0.3942
46114SOL     OW47309   4.446   1.068   1.322 -0.2696 -0.3485  0.0078
46114SOL    HW147310   4.431   0.993   1.265 -0.9896 -1.9002  2.0892
46114SOL    HW247311   4.403   1.141   1.278 -1.4453 -1.6387 -1.0642
46115SOL     OW47312   4.650   1.283   2.035 -0.1290  0.2034  0.3899
46115SOL    HW147313   4.737   1.301   2.071  0.8418 -1.1227 -1.1745
46115SOL    HW247314   4.666   1.233   1.955 -2.3078  0.7251 -0.4536
46116SOL     OW47315  12.427   9.888  12.420 -0.4246  0.0816  0.2847
46116SOL    HW147316  12.492   9.818  12.411 -0.1374  0.4086 -0.1943
46116SOL    HW247317  12.344   9.848  12.396 -0.0805  0.2223 -1.2433
46117SOL     OW47318   4.436   5.682   0.792  0.4649  0.3560 -0.1894
46117SOL    HW147319   4.375   5.609   0.780  0.8305  0.1165 -0.5886
46117SOL    HW247320   4.389   5.742   0.850 -0.1158  0.1272 -0.4103
46118SOL     OW47321  11.197   9.977   6.167 -0.1253 -0.6392 -0.0604
46118SOL    HW147322  11.116  10.024   6.187 -1.6810 -1.2213 -3.9931
46118SOL    HW247323  11.249   9.984   6.246 -3.9737 -0.1984  2.7165
46119SOL     OW47324   3.420   7.062   0.415 -0.2514 -0.5403  0.3996
46119SOL    HW147325   3.408   7.087   0.323 -1.3558  0.0903  0.6934
46119SOL    HW247326   3.497   7.112   0.443  0.2119 -0.8862 -0.2216
46120SOL     OW47327   4.801   5.485   5.743  0.6714  0.1069 -0.4932
46120SOL    HW147328   4.742   5.411   5.753  0.3747  0.2113 -1.3513
46120SOL    HW247329   4.748   5.552   5.700  2.0091 -0.6326 -3.5477
46121SOL     OW47330   6.910   9.244   4.486  0.4751  0.1630  0.6054
46121SOL    HW147331   6.882   9.306   4.553  1.9070  0.0068  1.3777
46121SOL    HW247332   6.998   9.272   4.461  0.0552  0.1058 -1.0937
46122SOL     OW47333   7.213   0.376   0.900  0.5453  0.0305  0.3343
46122SOL    HW147334   7.249   0.357   0.813  2.9454  0.2654  1.2198
46122SOL    HW247335   7.118   0.379   0.886  0.8762  0.4571 -2.3450
46123SOL     OW47336   9.184   2.354   5.825  0.3942 -0.3632 -0.4501
46123SOL    HW147337   9.215   2.378   5.738  0.3410  1.1242 -0.0778
46123SOL    HW247338   9.135   2.430   5.856 -2.6512 -2.1315 -0.5052
46124SOL     OW47339  11.450   4.266   9.712 -0.6089  0.1498 -0.5971
46124SOL    HW147340  11.496   4.271   9.628 -0.3123  1.6882 -0.3802
46124SOL    HW247341  11.367   4.310   9.695 -0.6430  0.2577 -0.1471
46125SOL     OW47342   6.235   4.018   4.348 -0.1152 -0.0155  0.2473
46125SOL    HW147343   6.281   3.966   4.282 -0.8329  0.5199 -0.7013
46125SOL    HW247344   6.252   3.973   4.430  0.9956 -0.5708 -0.2667
46126SOL     OW47345   0.276   5.632   0.973  0.3521 -0.6629 -0.1786
46126SOL    HW147346   0.310   5.558   0.922  0.0577 -1.5630  0.9006
46126SOL    HW247347   0.206   5.595   1.026 -0.6102  0.6470 -0.4809
46127SOL     OW47348   3.562  12.595  12.382 -0.2590  0.5328 -0.3942
46127SOL    HW147349   3.512  12.514  12.368 -0.5435  0.4022  1.1875
46127SOL    HW247350   3.529  12.629  12.465  2.1211  0.5736  0.6055
46128SOL     OW47351   7.966   4.713   4.029 -0.0191  0.6943  0.1853
46128SOL    HW147352   8.014   4.794   4.011  1.0255 -0.1207 -0.7838
46128SOL    HW247353   8.032   4.645   4.029 -0.6428  0.0021  2.6348
46129SOL     OW47354   0.640   6.446  12.492 -0.1301 -0.1788  0.4345
46129SOL    HW147355   0.555   6.489  12.499 -0.1359 -0.2263  0.6641
46129SOL    HW247356   0.673   6.473  12.406  0.3254  1.1494  0.9897
46130SOL     OW47357  11.250   7.102  10.630 -0.3852 -0.1815  0.2952
46130SOL    HW147358  11.172   7.113  10.684  0.0228 -0.3901  0.9394
46130SOL    HW247359  11.230   7.028  10.573 -1.7039  1.4173 -1.4621
46131SOL     OW47360   7.907   9.950   3.537 -0.3816  0.0415 -0.7322
46131SOL    HW147361   7.889   9.961   3.444 -2.4657 -0.0141 -0.3652
46131SOL    HW247362   7.847  10.011   3.581 -1.2666 -1.7656  0.6734
46132SOL     OW47363   1.406   2.181   7.477  0.7843  0.4384 -0.0412
46132SOL    HW147364   1.415   2.100   7.428  1.3050  0.4800 -0.0270
46132SOL    HW247365   1.446   2.162   7.562  1.1998  0.7999 -0.1496
46133SOL     OW47366   5.521   0.732   2.697 -0.0582  0.4323  0.4952
46133SOL    HW147367   5.439   0.733   2.649  0.9279  0.3381 -1.2768
46133SOL    HW247368   5.539   0.639   2.711  1.3848  0.2004 -2.2025
46134SOL     OW47369  12.005   8.113   1.949  0.5634 -0.0267  0.3021
46134SOL    HW147370  12.046   8.042   1.998 -0.3439 -0.4938  0.4106
46134SOL    HW247371  12.029   8.096   1.857 -0.9070 -1.3917  0.1272
46135SOL     OW47372   4.518   1.340   3.521 -0.7117 -0.5092 -0.1566
46135SOL    HW147373   4.603   1.383   3.530  0.0978 -2.1398  0.3505
46135SOL    HW247374   4.458   1.410   3.493  0.1604  1.3173  2.1765
46136SOL     OW47375   1.195   1.885   6.238  0.4380 -0.3274 -0.2556
46136SOL    HW147376   1.119   1.835   6.268  0.4006  0.3536  0.8222
46136SOL    HW247377   1.270   1.827   6.253  0.1642 -0.9660 -1.2376
46137SOL     OW47378  11.492   5.530   2.198  0.4148  0.4188 -0.5465
46137SOL    HW147379  11.488   5.451   2.252  1.1632 -0.5476 -1.8497
46137SOL    HW247380  11.517   5.499   2.111 -1.7409  1.7778 -1.7639
46138SOL     OW47381   3.204  11.487   6.832  0.0302 -0.0283 -0.2071
46138SOL    HW147382   3.240  11.519   6.749  0.3200  0.5577  0.1392
46138SOL    HW247383   3.231  11.552   6.897  1.3474 -1.3652  0.6686
46139SOL     OW47384   5.370  11.137   6.553 -0.0326 -0.0155 -1.1699
46139SOL    HW147385   5.343  11.065   6.610 -0.3824  1.5981  0.8059
46139SOL    HW247386   5.457  11.162   6.586 -0.8041  1.8108 -0.4136
46140SOL     OW47387  12.590   4.211   7.094  0.2734  0.2979 -0.0279
46140SOL    HW147388  12.582   4.174   7.182  1.8816 -0.4669 -0.1741
46140SOL    HW247389  12.575   4.137   7.036  1.6301  0.2480 -0.3459
46141SOL     OW47390   6.330   0.751   1.841  0.8309  0.0759  0.3422
46141SOL    HW147391   6.310   0.844   1.850 -1.0387 -0.0720 -1.3240
46141SOL    HW247392   6.347   0.739   1.747 -0.1050 -1.4249  0.3236
46142SOL     OW47393   5.780  11.610  10.996 -0.1242 -0.3132  0.0505
46142SOL    HW147394   5.710  11.671  11.018  0.0452  0.0580 -0.4216
46142SOL    HW247395   5.747  11.562  10.920 -0.0578 -0.4729  0.1210
46143SOL     OW47396   6.522   8.229  10.433 -0.2557 -0.2641 -0.2887
46143SOL    HW147397   6.543   8.278  10.353  2.1608 -0.9409 -0.1309
46143SOL    HW247398   6.453   8.280  10.474  0.0397  1.3450 -1.6631
46144SOL     OW47399  11.237   0.442   4.118  0.1332 -0.1763 -0.4557
46144SOL    HW147400  11.310   0.390   4.086  1.3561  0.3807  1.3308
46144SOL    HW247401  11.221   0.505   4.047  0.8430 -0.8099 -1.2057
46145SOL     OW47402   3.658   6.632   5.405 -0.1405  0.4195  0.2388
46145SOL    HW147403   3.744   6.659   5.375 -0.1486 -0.3967 -0.5870
46145SOL    HW247404   3.598   6.701   5.374 -0.0590 -0.0772 -1.1137
46146SOL     OW47405   5.153  12.056   8.680  0.2900  0.0497 -0.2325
46146SOL    HW147406   5.103  11.989   8.634 -1.3769 -0.4533  2.1276
46146SOL    HW247407   5.107  12.138   8.663  0.9120  0.2246 -1.1328
46147SOL     OW47408  10.808   9.914   6.909 -0.5923 -0.1245 -0.3185
46147SOL    HW147409  10.775   9.988   6.960 -1.4994  1.2305 -2.7178
46147SOL    HW247410  10.753   9.840   6.936 -0.5130  0.3244  1.1856
46148SOL     OW47411   4.289   8.754  10.769  0.3700 -0.1399 -0.4756
46148SOL    HW147412   4.357   8.713  10.822  0.7505  0.1492 -0.7392
46148SOL    HW247413   4.250   8.820  10.826 -0.1281 -0.7469 -0.1072
46149SOL     OW47414   9.984   8.600   7.617 -0.1228 -0.3749  0.2182
46149SOL    HW147415  10.011   8.633   7.703  0.6123  1.3935 -0.6328
46149SOL    HW247416   9.897   8.563   7.632 -0.6990  1.3569  1.4388
46150SOL     OW47417  11.146  10.769  12.105  0.1760  0.0906 -0.1757
46150SOL    HW147418  11.102  10.831  12.046  0.3183 -0.1503 -0.5378
46150SOL    HW247419  11.174  10.822  12.179  0.8295  0.5769 -0.7604
46151SOL     OW47420   4.724   7.587   1.950  0.0986 -0.2197 -0.0855
46151SOL    HW147421   4.681   7.599   1.865  0.1401 -3.1666 -0.6043
46151SOL    HW247422   4.666   7.633   2.012 -0.3489  1.3191 -1.5515
46152SOL     OW47423   7.775   7.721   6.868 -0.0602  0.1045 -0.0005
46152SOL    HW147424   7.705   7.658   6.885  1.0720 -1.3119 -0.3934
46152SOL    HW247425   7.765   7.744   6.775  0.5000 -0.7531 -0.2784
46153SOL     OW47426   5.291   5.924   5.734 -0.6364  0.1095 -0.2998
46153SOL    HW147427   5.334   6.000   5.694 -1.3918  0.0152 -1.3600
46153SOL    HW247428   5.291   5.943   5.828  1.5705  0.1523 -0.2631
46154SOL     OW47429   0.210   1.226   9.587 -0.4714  0.3564 -0.1296
46154SOL    HW147430   0.266   1.303   9.597 -0.5662  0.3136  0.7231
46154SOL    HW247431   0.123   1.256   9.614 -0.6426  0.1265 -0.4234
46155SOL     OW47432   9.051   2.462   3.329 -0.3331  0.1065 -0.0659
46155SOL    HW147433   9.095   2.480   3.412 -1.1490  1.5440  0.0900
46155SOL    HW247434   9.003   2.543   3.310 -1.1046 -0.6293 -1.3405
46156SOL     OW47435   3.742   1.232  12.314 -0.2596  0.2640 -0.9134
46156SOL    HW147436   3.663   1.243  12.261 -0.1887  0.3227 -1.0075
46156SOL    HW247437   3.813   1.230  12.250  0.0113  2.0869 -0.7268
46157SOL     OW47438   3.793   7.107   3.280  0.2132 -0.6601 -0.0166
46157SOL    HW147439   3.855   7.180   3.287  1.5434 -1.5730 -1.5501
46157SOL    HW247440   3.742   7.126   3.202  1.4238 -1.9460 -1.1586
46158SOL     OW47441   7.556   5.131   1.888  0.0543 -0.1887  0.0250
46158SOL    HW147442   7.577   5.175   1.805 -1.3045 -0.9871 -0.7755
46158SOL    HW247443   7.627   5.068   1.900 -0.1467 -0.6290 -0.9718
46159SOL     OW47444   5.541   8.164   4.262 -0.3629  0.2018  0.0794
46159SOL    HW147445   5.478   8.115   4.209  1.4012 -0.2170 -1.7695
46159SOL    HW247446   5.537   8.123   4.348 -0.0327 -2.3012 -0.9983
46160SOL     OW47447   4.407   5.274   5.280 -0.2399  0.0146  0.6138
46160SOL    HW147448   4.314   5.283   5.259 -0.3235  1.9431  1.6119
46160SOL    HW247449   4.452   5.294   5.197 -0.6789 -1.1364  0.0711
46161SOL     OW47450   4.411   0.227   3.800  0.3884  0.2613  0.4068
46161SOL    HW147451   4.315   0.227   3.802  0.3764 -0.7984  0.6694
46161SOL    HW247452   4.433   0.148   3.750  1.1234 -0.1601  1.3635
46162SOL     OW47453   0.806   2.312  12.075 -0.4354 -0.2435  0.1006
46162SOL    HW147454   0.861   2.272  12.142 -0.5346  0.2964  0.5158
46162SOL    HW247455   0.737   2.356  12.125 -1.5408 -1.3336 -0.4224
46163SOL     OW47456   8.375   6.921   0.095  0.0952 -0.5144 -0.3859
46163SOL    HW147457   8.309   6.907   0.163 -2.3160 -0.4741 -2.5294
46163SOL    HW247458   8.409   6.833   0.077  0.1687 -0.6349  0.3189
46164SOL     OW47459  12.432  12.474   7.745  0.3187 -0.3895 -0.0188
46164SOL    HW147460  12.434  12.488   7.839 -0.5221  0.9769 -0.1782
46164SOL    HW247461  12.500  12.531   7.710  0.9948 -1.2873 -0.2280
46165SOL     OW47462  11.617   7.369   5.076 -0.1970 -0.1336 -0.8163
46165SOL    HW147463  11.623   7.274   5.076  1.1819 -0.0644 -0.5899
46165SOL    HW247464  11.590   7.391   4.987 -2.4735 -0.7991 -0.3610
46166SOL     OW47465   5.191   6.625   8.117 -0.1252  0.0031  0.5702
46166SOL    HW147466   5.239   6.708   8.121 -0.2760  0.1089  0.2102
46166SOL    HW247467   5.169   6.606   8.208  0.8555 -0.1960  0.7807
46167SOL     OW47468  10.594   0.301  10.403 -0.4563  0.1559  0.0654
46167SOL    HW147469  10.570   0.209  10.408 -1.7703  0.5396  1.7286
46167SOL    HW247470  10.516   0.345  10.372  0.2276  0.7170 -0.9162
46168SOL     OW47471  11.083   1.100  10.404 -0.1723  0.9697 -0.2000
46168SOL    HW147472  11.045   1.054  10.479 -0.2354  3.4314  1.3920
46168SOL    HW247473  11.019   1.088  10.333 -1.5830  1.0687  1.0134
46169SOL     OW47474   3.961   8.970   6.716 -0.0282 -0.3382 -0.0620
46169SOL    HW147475   3.866   8.970   6.714 -0.0270 -0.2127 -0.1578
46169SOL    HW247476   3.983   9.022   6.794 -0.0369 -0.1069 -0.2124
46170SOL     OW47477   4.671   7.626   4.011  0.6909 -0.2608 -0.1026
46170SOL    HW147478   4.722   7.653   4.087 -0.1801 -0.1244  0.4568
46170SOL    HW247479   4.680   7.531   4.009  2.1837 -0.1261 -0.9208
46171SOL     OW47480   3.922   7.824   5.971  0.1039 -0.1093  0.3757
46171SOL    HW147481   4.004   7.815   6.021  0.3115  0.2952  0.1169
46171SOL    HW247482   3.951   7.849   5.883 -0.3639  2.1502  0.8060
46172SOL     OW47483   8.384   5.277   0.875  0.4401 -0.4527  0.1433
46172SOL    HW147484   8.440   5.306   0.947  1.0625 -2.4892  0.5270
46172SOL    HW247485   8.438   5.218   0.824  0.8004  2.5700 -3.4321
46173SOL     OW47486   8.122   3.079   2.877  0.1145  0.5467  0.6458
46173SOL    HW147487   8.201   3.026   2.867 -0.2446  0.2500 -0.8712
46173SOL    HW247488   8.120   3.102   2.970  0.0053 -2.5440  1.5187
46174SOL     OW47489   5.762   0.552   3.206 -0.2514 -0.7189  0.1174
46174SOL    HW147490   5.712   0.570   3.127 -1.9461 -0.4324  1.1819
46174SOL    HW247491   5.854   0.561   3.180 -0.7775 -0.1260 -1.6632
46175SOL     OW47492   5.253   7.704   6.710  0.2422 -0.1281 -0.0179
46175SOL    HW147493   5.299   7.655   6.778  1.8143 -0.4100 -1.2410
46175SOL    HW247494   5.270   7.656   6.629 -1.8542  0.0106 -0.6228
46176SOL     OW47495   6.188   3.508   7.979 -0.2560  0.0775 -0.8401
46176SOL    HW147496   6.204   3.491   7.886 -1.0245 -0.2497 -0.9191
46176SOL    HW247497   6.162   3.423   8.015 -0.5822  0.3328 -0.4641
46177SOL     OW47498  12.185   1.946   8.859  0.5564 -0.4836 -0.1180
46177SOL    HW147499  12.159   1.971   8.948 -0.5847  2.5706 -1.1775
46177SOL    HW247500  12.253   2.009   8.836  1.5542 -1.8568 -1.1290
46178SOL     OW47501   6.399   9.617   5.774  0.1296 -0.4227  0.5051
46178SOL    HW147502   6.485   9.630   5.812 -0.6482  1.1740  1.8405
46178SOL    HW247503   6.406   9.655   5.686  0.7712 -0.2154  0.6381
46179SOL     OW47504   8.565  11.102  11.296  0.1877 -0.5437 -0.1552
46179SOL    HW147505   8.648  11.149  11.303  0.6931 -1.1433 -1.6381
46179SOL    HW247506   8.588  11.020  11.253 -1.3321 -0.2291 -1.6633
46180SOL     OW47507   4.983   2.007  12.289 -0.5803 -0.2680  0.6902
46180SOL    HW147508   4.950   1.953  12.362 -3.7748  0.1722 -0.2825
46180SOL    HW247509   5.024   1.944  12.230  1.9313 -0.6628  2.6522
46181SOL     OW47510   4.451   7.630   5.061 -0.2016 -0.0802 -0.3826
46181SOL    HW147511   4.457   7.705   5.003  1.6628  0.4806  0.4600
46181SOL    HW247512   4.538   7.622   5.100 -0.2777 -2.7477 -0.5210
46182SOL     OW47513   3.085   7.701   5.379 -0.2223  0.0806  0.1027
46182SOL    HW147514   3.096   7.786   5.335 -1.2536 -0.6872 -1.7455
46182SOL    HW247515   3.065   7.640   5.308 -0.8911 -1.4521  1.5520
46183SOL     OW47516   3.637   6.147  11.705  0.5808  0.2138 -0.1670
46183SOL    HW147517   3.626   6.221  11.765 -0.4127 -0.3361  0.3539
46183SOL    HW247518   3.707   6.095  11.743  1.0224  0.6754 -0.3314
46184SOL     OW47519   2.718   5.250  10.328 -0.2786  0.1999  0.3849
46184SOL    HW147520   2.804   5.250  10.370 -0.8051 -0.7549  1.5084
46184SOL    HW247521   2.674   5.328  10.363 -0.1944  0.1900  0.5112
46185SOL     OW47522   3.052  11.585  12.513  0.6679  0.5598 -0.5816
46185SOL    HW147523   2.977  11.631  12.552 -0.7198 -1.1273 -1.1184
46185SOL    HW247524   3.117  11.582  12.583 -1.1877 -1.1141  1.1992
46186SOL     OW47525   6.585   0.208  11.297 -0.7551 -0.6059  0.0571
46186SOL    HW147526   6.539   0.252  11.225 -0.8118  0.2731  0.6234
46186SOL    HW247527   6.649   0.271  11.327 -0.9658 -0.8323  1.0088
46187SOL     OW47528  11.833   6.912   7.163  0.1169 -0.3035 -0.1741
46187SOL    HW147529  11.756   6.934   7.216  1.3350  0.7192  1.2227
46187SOL    HW247530  11.866   6.997   7.133  0.7008 -0.7395 -0.7764
46188SOL     OW47531   3.745  12.084   5.171  0.4394 -0.5391 -0.5560
46188SOL    HW147532   3.835  12.075   5.139  0.4335  0.3281 -0.8300
46188SOL    HW247533   3.735  12.011   5.233  2.4932  1.3450  2.2329
46189SOL     OW47534   9.960   7.025   0.844  0.2121  0.1078  0.7195
46189SOL    HW147535  10.039   7.049   0.796  0.5496 -2.3014 -0.0639
46189SOL    HW247536   9.889   7.068   0.797  0.4210 -2.7913 -2.6623
46190SOL     OW47537  10.179   1.061  10.865 -0.0092  0.4090 -0.0037
46190SOL    HW147538  10.096   1.095  10.900  0.6843  1.5479  0.5793
46190SOL    HW247539  10.156   0.974  10.830 -1.2991  0.4115  0.7686
46191SOL     OW47540  10.278  12.078   1.563  0.4386  0.4666 -0.5175
46191SOL    HW147541  10.262  12.159   1.514 -0.0742  0.1231 -0.9326
46191SOL    HW247542  10.195  12.061   1.609  1.2059  1.2947  1.2650
46192SOL     OW47543   7.271   8.254   0.920 -0.7421 -0.3225 -0.4848
46192SOL    HW147544   7.242   8.172   0.880 -1.1002 -0.8749  0.8357
46192SOL    HW247545   7.276   8.234   1.014 -1.1400  1.2536 -0.0966
46193SOL     OW47546   2.978   1.671   9.377  0.0564  0.0902  0.3049
46193SOL    HW147547   2.899   1.724   9.370  0.3455  0.3129 -2.3162
46193SOL    HW247548   3.048   1.729   9.346  0.9258 -0.7234  0.7109
46194SOL     OW47549   1.131  11.120  11.800  0.2056  0.0889  0.8806
46194SOL    HW147550   1.078  11.068  11.861  0.4458 -0.7934  0.3507
46194SOL    HW247551   1.066  11.165  11.746 -0.0436 -1.1682  0.0794
46195SOL     OW47552   2.021   8.548   9.566  0.3016  0.1510 -0.7372
46195SOL    HW147553   2.035   8.539   9.660  1.6696  0.6153 -0.8724
46195SOL    HW247554   1.978   8.467   9.540 -2.1719  0.9098  0.6357
46196SOL     OW47555   9.720   2.228   6.644 -0.3677 -0.7005 -0.3429
46196SOL    HW147556   9.663   2.222   6.567 -0.7618 -0.7969 -0.0479
46196SOL    HW247557   9.786   2.160   6.632  0.2320 -0.0041 -1.1293
46197SOL     OW47558   6.089   2.099   3.288  0.0736 -0.4890  0.2617
46197SOL    HW147559   6.007   2.050   3.281 -0.2898 -0.0108  1.0436
46197SOL    HW247560   6.098   2.117   3.381 -0.1192  1.4690 -0.0565
46198SOL     OW47561   6.230  11.789   1.775  0.1008 -0.7087 -0.5234
46198SOL    HW147562   6.155  11.766   1.829 -0.1327  0.4253 -0.3343
46198SOL    HW247563   6.225  11.731   1.699 -1.2627 -0.3069 -0.7558
46199SOL     OW47564   8.679   7.323   6.900 -0.4079 -0.2416  0.5598
46199SOL    HW147565   8.720   7.380   6.964  1.2199  1.2569 -1.6419
46199SOL    HW247566   8.725   7.239   6.910  3.5801  1.3781 -1.8248
46200SOL     OW47567   8.617   1.244  10.529 -0.5222 -0.3784 -0.2005
46200SOL    HW147568   8.540   1.188  10.517 -1.0635  0.7935 -2.8605
46200SOL    HW247569   8.584   1.320  10.576 -0.8396 -0.2070 -0.6926
46201SOL     OW47570   6.321   5.581  10.421  0.6682 -0.0097  0.2117
46201SOL    HW147571   6.378   5.532  10.363  1.2705  0.3560  0.4888
46201SOL    HW247572   6.288   5.516  10.483  1.7920 -0.0081  0.8383
46202SOL     OW47573   9.836   5.210   0.744  0.0161 -0.3814  0.2699
46202SOL    HW147574   9.928   5.229   0.763 -0.0335  0.6874 -0.4620
46202SOL    HW247575   9.834   5.192   0.650 -0.2800 -2.0586  0.5737
46203SOL     OW47576   5.294  11.590   9.776  0.2723  0.1081  0.0003
46203SOL    HW147577   5.341  11.568   9.857 -1.0265 -0.7740  0.5568
46203SOL    HW247578   5.206  11.556   9.790 -1.0080  3.0253 -0.4055
46204SOL     OW47579   2.832   3.236   4.522  0.0041 -0.4058  0.4629
46204SOL    HW147580   2.772   3.171   4.559  0.6958 -1.7779 -0.6765
46204SOL    HW247581   2.918   3.210   4.555  0.4115 -0.6764 -0.7385
46205SOL     OW47582   0.386   4.493   2.899 -0.5388 -0.2281 -0.7437
46205SOL    HW147583   0.297   4.474   2.868 -0.8838  0.2543 -0.0687
46205SOL    HW247584   0.429   4.536   2.825 -0.8722 -0.4383 -1.0641
46206SOL     OW47585   3.698   5.554  12.376 -0.1743 -0.5465  0.0127
46206SOL    HW147586   3.670   5.526  12.289  0.1687  0.1705 -0.3335
46206SOL    HW247587   3.677   5.479  12.433  0.0805 -1.2196 -0.7639
46207SOL     OW47588  10.229   6.055  11.784  0.1059 -0.0006 -0.5452
46207SOL    HW147589  10.188   5.970  11.769 -2.4094  1.2657 -1.3014
46207SOL    HW247590  10.299   6.037  11.848 -0.2635 -2.6162 -0.7855
46208SOL     OW47591  11.572   7.388   9.459 -0.0241  0.1454  0.3818
46208SOL    HW147592  11.549   7.296   9.476 -0.0085  0.5790  3.2217
46208SOL    HW247593  11.667   7.390   9.469 -0.0250  0.4717  0.3176
46209SOL     OW47594   8.243   4.550   7.303  0.5243 -0.6962 -0.7626
46209SOL    HW147595   8.153   4.531   7.329  0.3103  1.2629  0.1028
46209SOL    HW247596   8.271   4.471   7.256 -2.2737 -0.6588 -2.7912
46210SOL     OW47597  10.936   7.681   6.174  0.4183 -0.2404  0.4242
46210SOL    HW147598  10.996   7.650   6.242  1.0634 -1.1859 -0.5334
46210SOL    HW247599  10.925   7.606   6.115  0.1638  0.6451 -0.7080
46211SOL     OW47600   2.732  11.251   8.288  0.1499  0.0255  0.3397
46211SOL    HW147601   2.639  11.273   8.278  0.0653 -0.8788 -1.0419
46211SOL    HW247602   2.770  11.329   8.329 -0.5174  1.9896 -2.4790
46212SOL     OW47603  11.694  11.205   8.441  0.7041  0.1840  0.2960
46212SOL    HW147604  11.634  11.135   8.466  1.4466 -0.4183  0.4225
46212SOL    HW247605  11.641  11.262   8.384  0.1615 -0.6217 -0.0329
46213SOL     OW47606   9.594  11.887  10.890 -0.5713 -0.0359  0.2595
46213SOL    HW147607   9.653  11.927  10.952 -1.3788  0.8888  0.4574
46213SOL    HW247608   9.564  11.959  10.835 -1.1154 -0.5688 -0.1602
46214SOL     OW47609   4.871   3.584  10.137 -0.1531 -0.2281  0.2883
46214SOL    HW147610   4.879   3.578  10.042  1.8444  1.1185  0.3135
46214SOL    HW247611   4.777   3.581  10.154 -0.5098 -1.5405 -1.6181
46215SOL     OW47612   7.645  10.463   4.548  0.1715 -0.6907 -0.0049
46215SOL    HW147613   7.570  10.490   4.495  1.1690 -2.9915 -2.7855
46215SOL    HW247614   7.655  10.370   4.531  2.6737 -0.8160  1.6318
46216SOL     OW47615   6.283   7.822   6.308 -0.4695  0.5835 -0.2135
46216SOL    HW147616   6.306   7.859   6.393  1.4944 -0.6975 -0.1179
46216SOL    HW247617   6.337   7.743   6.301 -1.0557  0.3169 -2.3762
46217SOL     OW47618   5.555  10.084  11.362 -0.3403  0.1333 -0.1747
46217SOL    HW147619   5.598   9.999  11.359 -0.9745 -0.1776 -1.0163
46217SOL    HW247620   5.598  10.136  11.294 -0.2130  0.3607  0.0756
46218SOL     OW47621   9.536   9.759   4.348 -0.2197 -0.7408  0.2353
46218SOL    HW147622   9.615   9.707   4.364  0.5911  0.7212  1.3028
46218SOL    HW247623   9.543   9.785   4.256  0.7540 -0.3291  0.4106
46219SOL     OW47624   9.501   0.370   7.305  0.5049 -0.6701 -0.1109
46219SOL    HW147625   9.559   0.302   7.269  0.9747  0.3183 -1.2777
46219SOL    HW247626   9.465   0.414   7.229  0.4520  0.5920  0.6153
46220SOL     OW47627   3.035   2.410   6.916  0.7719  0.0334  0.1059
46220SOL    HW147628   3.076   2.337   6.870  3.1162  0.6667  1.0651
46220SOL    HW247629   2.977   2.368   6.980  1.0945 -0.9532 -0.2379
46221SOL     OW47630   7.481  10.227   7.426  0.2908  0.8682  0.1313
46221SOL    HW147631   7.471  10.306   7.373 -0.5497 -0.2563 -1.4626
46221SOL    HW247632   7.564  10.188   7.397 -0.5064 -0.1130 -0.9081
46222SOL     OW47633   2.530   1.545   3.970  0.1477  0.2338  0.4829
46222SOL    HW147634   2.523   1.596   3.890 -0.1009 -0.9565 -0.2804
46222SOL    HW247635   2.541   1.610   4.040  0.9144  1.2603 -0.5719
46223SOL     OW47636   3.657  10.906   3.750 -0.0857  0.0338  0.1700
46223SOL    HW147637   3.710  10.830   3.726  0.3968  0.8163 -1.3661
46223SOL    HW247638   3.573  10.891   3.706 -0.3983 -0.1706  0.8321
46224SOL     OW47639   3.831  12.118   5.777 -0.0489 -0.0534 -0.7000
46224SOL    HW147640   3.765  12.132   5.846 -0.5840  0.9826 -1.3997
46224SOL    HW247641   3.914  12.143   5.818 -0.1957 -0.5813 -0.0648
46225SOL     OW47642   3.669   2.634   6.387 -0.5442  0.3759 -0.5617
46225SOL    HW147643   3.651   2.576   6.313 -1.2735  1.3426 -1.1674
46225SOL    HW247644   3.744   2.686   6.359  1.0950 -1.2378  0.5741
46226SOL     OW47645   7.075   5.904   3.286  0.3836 -0.4491 -0.0810
46226SOL    HW147646   6.985   5.895   3.253 -0.7885  4.3927  1.0444
46226SOL    HW247647   7.130   5.893   3.208 -1.2656 -1.6341 -1.1484
46227SOL     OW47648   3.810   5.106  10.008  0.4501 -0.3739 -0.1102
46227SOL    HW147649   3.890   5.058  10.028  0.0649 -0.6232  0.8652
46227SOL    HW247650   3.803   5.101   9.912  0.4055 -2.2881 -0.0472
46228SOL     OW47651  11.173   6.117   6.567 -0.0911 -0.3378 -0.3888
46228SOL    HW147652  11.226   6.081   6.497  1.1357  0.1693  0.2416
46228SOL    HW247653  11.216   6.200   6.589 -0.6023 -0.3611  0.7692
46229SOL     OW47654   8.925   9.600   8.471 -0.3926  0.2954  0.3263
46229SOL    HW147655   8.849   9.655   8.487  0.1373  0.7543  1.3838
46229SOL    HW247656   8.999   9.654   8.499  0.2827 -0.3334 -0.2047
46230SOL     OW47657  11.202   2.557   3.423  0.1129 -0.3453 -0.3767
46230SOL    HW147658  11.178   2.634   3.371 -0.7337 -0.0596  0.4087
46230SOL    HW247659  11.250   2.593   3.498  0.1014 -0.6210 -0.2365
46231SOL     OW47660   1.113  12.402  11.395  0.0494 -0.1815  0.1082
46231SOL    HW147661   1.183  12.347  11.358  0.3070 -0.6996  1.3277
46231SOL    HW247662   1.125  12.396  11.490  0.2880  2.2441  0.3038
46232SOL     OW47663   9.382   3.698   7.975 -0.2206  0.0565 -0.0372
46232SOL    HW147664   9.300   3.743   7.957  0.1682 -0.0759 -2.4418
46232SOL    HW247665   9.447   3.744   7.921  1.5537  0.8030  2.5240
46233SOL     OW47666  11.593   2.961   5.222  0.4433  0.0940 -0.1806
46233SOL    HW147667  11.595   3.053   5.250  0.0005 -0.3003  1.2419
46233SOL    HW247668  11.500   2.942   5.212  0.5200 -0.2962 -0.1392
46234SOL     OW47669   5.989   2.223   7.223  0.2340  0.2542  0.6242
46234SOL    HW147670   6.080   2.249   7.235  0.7775 -1.8549  1.4432
46234SOL    HW247671   5.991   2.127   7.224 -1.9905  0.1634  0.6456
46235SOL     OW47672   7.754   9.830   3.149  0.3794  0.1857 -0.4487
46235SOL    HW147673   7.792   9.743   3.160  1.2187  0.7821  1.8826
46235SOL    HW247674   7.659   9.815   3.154  0.3746 -0.8480 -2.5977
46236SOL     OW47675   5.789   4.813   3.591  0.6527 -0.1619  0.2938
46236SOL    HW147676   5.816   4.760   3.516  2.0482  1.0022 -0.0794
46236SOL    HW247677   5.708   4.855   3.563  0.9142 -0.1005 -0.4012
46237SOL     OW47678  11.136   9.985   1.369 -0.3586  0.2887 -0.7069
46237SOL    HW147679  11.202  10.048   1.398 -0.8834  0.5726 -0.1105
46237SOL    HW247680  11.185   9.922   1.316  0.9108 -1.0289  1.8544
46238SOL     OW47681   9.957   7.189   7.454 -0.2617 -0.1816  0.1319
46238SOL    HW147682   9.905   7.246   7.398  1.7291 -1.8623 -3.8709
46238SOL    HW247683   9.902   7.112   7.469 -0.6317  0.0588  0.0122
46239SOL     OW47684   4.747   2.102   0.108 -0.5811  0.2443  0.3008
46239SOL    HW147685   4.791   2.029   0.064  0.4023  1.6879 -1.2577
46239SOL    HW247686   4.796   2.115   0.189 -0.1928 -0.2404  0.1487
46240SOL     OW47687   6.233   1.688   7.151 -0.8457  0.0446  0.2452
46240SOL    HW147688   6.310   1.633   7.135  0.0453  1.3677 -0.2729
46240SOL    HW247689   6.195   1.654   7.232  0.0990 -0.8366  0.3417
46241SOL     OW47690  11.318   8.944  10.027 -0.0998  0.1722 -0.3360
46241SOL    HW147691  11.403   8.905  10.007 -0.8024 -0.4035 -2.4661
46241SOL    HW247692  11.308   9.015   9.964  0.1447  2.4184  2.0022
46242SOL     OW47693   0.522   3.527   4.664 -0.4833 -0.1120 -0.2522
46242SOL    HW147694   0.565   3.479   4.734 -1.3292  0.5145  0.7232
46242SOL    HW247695   0.574   3.606   4.653  0.3011 -0.7368 -1.1286
46243SOL     OW47696   1.192   8.283   7.200  0.5948 -0.1301 -0.3766
46243SOL    HW147697   1.115   8.309   7.149  0.2852  0.0893  0.1919
46243SOL    HW247698   1.265   8.295   7.140  0.3107  0.7719 -0.5676
46244SOL     OW47699   5.642   9.650  11.442  0.1122 -0.3630  0.1626
46244SOL    HW147700   5.589   9.570  11.437 -0.4401  0.0790 -1.6760
46244SOL    HW247701   5.688   9.642  11.526 -1.8810 -1.3597  1.2431
46245SOL     OW47702  10.729   9.105  10.637 -0.3374 -0.3935 -0.4455
46245SOL    HW147703  10.685   9.039  10.583  0.5774 -2.2306  0.9477
46245SOL    HW247704  10.701   9.189  10.600 -1.7127 -1.5400 -2.1581
46246SOL     OW47705   0.705  10.521   7.449 -0.7023 -0.5493 -0.0127
46246SOL    HW147706   0.761  10.502   7.525 -1.1668 -0.8854  0.2468
46246SOL    HW247707   0.690  10.616   7.454 -0.9643 -0.6157  0.4726
46247SOL     OW47708   0.135   5.683   3.786  0.4024 -0.5690 -0.4164
46247SOL    HW147709   0.131   5.760   3.843 -0.4694 -0.5096 -0.5483
46247SOL    HW247710   0.192   5.710   3.714  0.6347 -0.2751 -0.1289
46248SOL     OW47711   2.875   2.469  10.712 -0.1854  0.6706  0.4273
46248SOL    HW147712   2.800   2.503  10.663  0.4839  2.3537  0.4993
46248SOL    HW247713   2.947   2.528  10.689  0.4713  0.7145  2.4162
46249SOL     OW47714   3.333   9.876   9.769 -1.1234 -0.7921 -0.2672
46249SOL    HW147715   3.376   9.871   9.854 -1.8668 -0.6149  0.1331
46249SOL    HW247716   3.318   9.969   9.755  1.6414 -0.5083 -1.9869
46250SOL     OW47717   8.859  10.914   7.187 -0.6156 -0.5073  0.9760
46250SOL    HW147718   8.894  10.868   7.263 -1.3240 -0.0875  1.5717
46250SOL    HW247719   8.800  10.980   7.224 -0.0463  0.5034  0.1154
46251SOL     OW47720   1.780   9.468   5.053 -0.2789 -0.5485  0.0833
46251SOL    HW147721   1.711   9.512   5.003  2.4120  3.0387 -0.9652
46251SOL    HW247722   1.758   9.486   5.144 -1.3185 -0.4418 -0.1740
46252SOL     OW47723  12.245   2.052   4.844 -0.5452 -0.1566  0.4627
46252SOL    HW147724  12.302   2.113   4.798 -2.1505  1.0634 -0.0029
46252SOL    HW247725  12.157   2.075   4.815 -1.5039 -0.4439  2.9031
46253SOL     OW47726   1.593   9.014  10.951 -0.1478 -0.0913  0.5432
46253SOL    HW147727   1.668   9.012  11.010 -0.2342 -2.7663  0.6913
46253SOL    HW247728   1.621   9.071  10.878  0.9780  1.0591  1.8174
46254SOL     OW47729   4.581   3.311  11.056 -0.6981  0.2135  0.1981
46254SOL    HW147730   4.496   3.270  11.073 -0.5051  0.1247  0.9632
46254SOL    HW247731   4.585   3.384  11.117 -0.1763  0.1536  0.2385
46255SOL     OW47732   7.053   4.632   8.302 -0.1904 -0.0086  0.4430
46255SOL    HW147733   7.046   4.661   8.393  0.3372  0.5566  0.3102
46255SOL    HW247734   7.122   4.566   8.304 -0.2457 -0.0651  0.4728
46256SOL     OW47735   5.599   1.701   7.674 -0.1959 -0.0070 -0.3171
46256SOL    HW147736   5.580   1.728   7.764 -0.1801  0.2497 -0.3887
46256SOL    HW247737   5.620   1.608   7.680  0.6640  0.2106  0.0632
46257SOL     OW47738   7.980  11.951   6.342  0.1893 -0.1467  0.0301
46257SOL    HW147739   7.973  11.944   6.246  2.2041 -2.0433 -0.0515
46257SOL    HW247740   7.957  11.863   6.373  0.7644  0.1116  1.2087
46258SOL     OW47741   7.820   7.450  11.057 -0.0717 -0.1977 -0.2219
46258SOL    HW147742   7.797   7.542  11.048 -0.2626 -0.4436 -3.5829
46258SOL    HW247743   7.736   7.406  11.073 -0.3065  0.0091 -0.8644
46259SOL     OW47744   1.128   2.392   0.347 -0.4452 -0.1372  0.7913
46259SOL    HW147745   1.103   2.410   0.256 -1.0341 -2.8358  0.3560
46259SOL    HW247746   1.224   2.396   0.347 -0.4715  2.1886  0.6588
46260SOL     OW47747   2.262   8.167   4.267  0.2164 -0.5543  0.6994
46260SOL    HW147748   2.230   8.256   4.277 -1.0128 -0.7212 -1.2508
46260SOL    HW247749   2.357   8.176   4.263  0.0770  0.7512 -0.0932
46261SOL     OW47750  10.504   2.852   8.561  0.1866 -0.3898 -0.1383
46261SOL    HW147751  10.525   2.846   8.467 -0.7419  0.2459 -0.4071
46261SOL    HW247752  10.475   2.943   8.573  0.6463 -0.3619  0.8484
46262SOL     OW47753   4.812   2.042  10.711 -0.6201  0.5141  0.3916
46262SOL    HW147754   4.886   2.084  10.667  1.6467 -1.3103  2.1998
46262SOL    HW247755   4.799   1.960  10.664  0.6151 -0.5892  1.8561
46263SOL     OW47756   9.615   9.262   6.325 -0.0960 -0.4341 -0.2633
46263SOL    HW147757   9.698   9.291   6.287 -0.2406  1.0989  0.5422
46263SOL    HW247758   9.548   9.296   6.265 -0.2708  1.0299  0.7322
46264SOL     OW47759   4.381   5.404   2.080  0.7256  0.2664 -0.5489
46264SOL    HW147760   4.309   5.457   2.114  1.0202  0.4322 -0.1717
46264SOL    HW247761   4.449   5.467   2.058  0.3999  0.1929 -1.8333
46265SOL     OW47762   6.447  12.044   6.032 -0.0636 -0.1201 -0.4098
46265SOL    HW147763   6.429  12.133   6.002  0.8404 -0.8017 -3.3678
46265SOL    HW247764   6.381  11.990   5.988  1.6094 -1.2568 -1.7069
46266SOL     OW47765   7.897   1.144   6.134 -0.2996 -0.0030 -0.1804
46266SOL    HW147766   7.901   1.096   6.216  1.0925 -0.1731 -0.3175
46266SOL    HW247767   7.977   1.118   6.088 -0.5335  0.9044 -1.1235
46267SOL     OW47768   1.845   3.614   3.746 -0.3286  0.4356  0.0004
46267SOL    HW147769   1.818   3.704   3.761 -1.8314 -0.1427  0.9337
46267SOL    HW247770   1.778   3.578   3.687  0.5479  0.0630 -0.7975
46268SOL     OW47771   4.068   2.007   1.954 -0.0248  0.3765  0.0010
46268SOL    HW147772   4.075   2.097   1.922  0.9710  0.5280  0.6050
46268SOL    HW247773   4.156   1.985   1.985 -0.1022 -1.0284 -0.7081
46269SOL     OW47774   1.958   1.705   7.396 -0.2460 -0.0341  0.3900
46269SOL    HW147775   1.921   1.731   7.481  0.4819 -0.1540  0.7551
46269SOL    HW247776   2.029   1.644   7.419 -0.5333 -0.6533 -0.3494
46270SOL     OW47777   8.032   0.601   3.127 -0.0438 -0.1389 -0.3221
46270SOL    HW147778   8.025   0.661   3.202 -1.1626 -1.2494  0.5247
46270SOL    HW247779   8.126   0.588   3.115  0.1846  0.9090  0.1836
46271SOL     OW47780   2.473   1.706   0.305 -0.1040 -0.2311 -0.2584
46271SOL    HW147781   2.477   1.672   0.394 -2.4980 -0.5640 -0.2132
46271SOL    HW247782   2.553   1.674   0.264  0.8495 -0.4150  1.6241
46272SOL     OW47783   2.256   5.488   6.238 -0.4490 -0.0747  0.7770
46272SOL    HW147784   2.263   5.581   6.218  0.5010 -0.6122 -1.7438
46272SOL    HW247785   2.297   5.479   6.324 -0.4179  1.8013  0.9967
46273SOL     OW47786   3.541   3.364   8.389 -0.7667  0.5649 -0.5320
46273SOL    HW147787   3.523   3.412   8.470 -0.2955 -1.8931  1.1563
46273SOL    HW247788   3.543   3.431   8.321 -0.0505  2.9129  1.6449
46274SOL     OW47789  10.981   7.424   6.045  0.1568 -0.1634 -0.1301
46274SOL    HW147790  10.982   7.338   6.086  0.3265 -0.4023 -0.6320
46274SOL    HW247791  11.063   7.429   5.996 -0.0020  0.1579 -0.3679
46275SOL     OW47792   7.285   3.991   0.207  0.1361  0.1576  0.5430
46275SOL    HW147793   7.214   3.955   0.154  1.2607 -0.7049 -0.4390
46275SOL    HW247794   7.310   3.919   0.266  0.7174  0.1814  0.3328
46276SOL     OW47795   8.627   8.500   1.235  0.3262 -0.9185  0.4079
46276SOL    HW147796   8.598   8.496   1.326  0.1450  0.9677  0.4644
46276SOL    HW247797   8.722   8.506   1.240  0.3773 -1.7168  0.4329
46277SOL     OW47798   8.821   7.419   7.367  0.0442  0.1951 -0.0325
46277SOL    HW147799   8.881   7.344   7.364  0.5412  0.5199  1.3580
46277SOL    HW247800   8.745   7.388   7.414 -0.4589  0.1002 -0.8820
46278SOL     OW47801   3.178  12.397   6.750 -0.3654 -0.4460  0.2967
46278SOL    HW147802   3.120  12.323   6.732  1.0979 -1.6900  0.4732
46278SOL    HW247803   3.191  12.438   6.665  0.6475 -1.8383 -0.2638
46279SOL     OW47804   8.531   6.627   3.362 -0.2932 -0.1076 -0.2798
46279SOL    HW147805   8.607   6.582   3.326 -0.2641 -0.7556  0.5529
46279SOL    HW247806   8.546   6.625   3.457 -1.8121 -1.1014 -0.0363
46280SOL     OW47807  12.569   8.591   6.736 -0.1431 -0.2697 -0.4954
46280SOL    HW147808  12.556   8.619   6.826  0.0885 -2.5223  0.2979
46280SOL    HW247809  12.658   8.557   6.733 -0.2143 -0.4133 -1.5211
46281SOL     OW47810  12.183  11.994   4.190 -0.3686 -0.1445 -0.6173
46281SOL    HW147811  12.112  11.962   4.246  0.7554  1.1295  1.6700
46281SOL    HW247812  12.228  11.914   4.161  0.4472 -0.8991  2.3394
46282SOL     OW47813   1.853   4.852   5.017  0.2271 -0.8768 -0.2398
46282SOL    HW147814   1.916   4.787   5.046 -0.0112 -1.5451 -1.1803
46282SOL    HW247815   1.851   4.842   4.922  0.4923  0.7833 -0.4501
46283SOL     OW47816   1.355   4.076   2.188  0.3855 -0.0690  0.2578
46283SOL    HW147817   1.440   4.044   2.160 -0.0873 -0.4470 -0.7842
46283SOL    HW247818   1.292   4.016   2.149 -0.4206  0.9953 -0.1465
46284SOL     OW47819  10.647  11.155   2.798  0.5148  0.3448  0.1486
46284SOL    HW147820  10.551  11.152   2.796  0.4990  1.1171 -1.0908
46284SOL    HW247821  10.674  11.086   2.737  0.8575 -2.0435  2.7847
46285SOL     OW47822   4.430   7.361   2.480  0.0264  0.1157 -0.3810
46285SOL    HW147823   4.430   7.265   2.483  0.5584  0.1282  0.1782
46285SOL    HW247824   4.452   7.381   2.389 -1.1595 -0.2834 -0.7776
46286SOL     OW47825   3.176  12.501   6.998 -0.0799 -0.2742  0.2942
46286SOL    HW147826   3.191  12.455   6.916  0.0628 -0.3234  0.3464
46286SOL    HW247827   3.263  12.504   7.039 -0.1212 -0.1094  0.3684
46287SOL     OW47828  11.143   6.644   0.262 -0.1585  0.0744 -0.3557
46287SOL    HW147829  11.157   6.613   0.351  2.4134 -0.0977 -0.7427
46287SOL    HW247830  11.055   6.614   0.240 -0.9130  0.2381  2.1351
46288SOL     OW47831  10.855  10.092   7.775  0.0441  0.3262  0.4132
46288SOL    HW147832  10.819  10.057   7.857 -0.1334  1.3238  0.7760
46288SOL    HW247833  10.886  10.015   7.728 -0.5427 -0.3419  1.0835
46289SOL     OW47834   5.437   0.618   1.903 -0.8769 -1.0307 -0.0849
46289SOL    HW147835   5.369   0.567   1.947 -1.3839 -0.3088 -0.0177
46289SOL    HW247836   5.399   0.705   1.892  0.3433 -0.3658  0.7026
46290SOL     OW47837   3.455   4.548   2.191  0.4273  0.4372  0.2426
46290SOL    HW147838   3.495   4.621   2.144  1.6853 -0.7475 -0.6081
46290SOL    HW247839   3.504   4.544   2.274 -0.5652  1.3818  0.9019
46291SOL     OW47840   4.977   6.490   0.708  0.0611 -0.3441  0.1521
46291SOL    HW147841   4.966   6.417   0.647 -0.6556 -1.0139  1.0618
46291SOL    HW247842   5.028   6.454   0.780  0.3416  0.2643  0.2668
46292SOL     OW47843   8.497   9.747   8.660  0.2550 -0.0924  0.1187
46292SOL    HW147844   8.402   9.750   8.674 -0.0715 -1.6028 -1.4147
46292SOL    HW247845   8.531   9.703   8.738 -0.1196  1.4553  1.2161
46293SOL     OW47846   1.401   0.463   8.569  0.2242 -0.0293 -0.5292
46293SOL    HW147847   1.464   0.520   8.524 -0.4583 -1.2693 -3.2672
46293SOL    HW247848   1.448   0.379   8.578  0.6011  0.3651  1.8728
46294SOL     OW47849   7.236   3.206   7.588  0.0700 -0.5040 -0.2209
46294SOL    HW147850   7.316   3.154   7.585  0.5711  0.3077 -1.4660
46294SOL    HW247851   7.250   3.266   7.661  0.0153 -1.2457  0.4192
46295SOL     OW47852   8.771   6.176  10.227 -0.7466  0.2033  0.3245
46295SOL    HW147853   8.821   6.255  10.206  0.0781 -0.6724 -1.0639
46295SOL    HW247854   8.800   6.153  10.316  0.2071  0.5501  0.1178
46296SOL     OW47855   9.823  11.925   6.087 -0.5969  0.4065 -0.3105
46296SOL    HW147856   9.902  11.877   6.063 -1.2111 -0.8447  0.0819
46296SOL    HW247857   9.851  11.985   6.156  0.1165  0.3903 -0.5767
46297SOL     OW47858   5.308   2.253   1.704 -0.6921  0.2651 -0.4171
46297SOL    HW147859   5.316   2.341   1.741  0.2361  0.1709 -0.3754
46297SOL    HW247860   5.316   2.266   1.609  0.0590  0.1712 -0.3751
46298SOL     OW47861  11.268   9.855  10.696  0.3695 -0.3829  0.2676
46298SOL    HW147862  11.323   9.881  10.623 -0.3514  1.1737  0.2470
46298SOL    HW247863  11.312   9.890  10.773 -0.6084  0.9543  0.2432
46299SOL     OW47864   6.942  11.860   6.109  0.4767  0.2035  0.0464
46299SOL    HW147865   6.989  11.847   6.192  0.6978 -0.8973 -0.2311
46299SOL    HW247866   6.849  11.849   6.132  0.4941  0.4288  0.2343
46300SOL     OW47867   3.008   8.028   3.759 -0.2098  0.3466 -0.3756
46300SOL    HW147868   3.006   8.033   3.663 -1.4236  1.4055 -0.3148
46300SOL    HW247869   3.068   8.098   3.785 -1.5123  1.4699 -0.3038
46301SOL     OW47870   6.529   6.452   7.370  0.0768  0.2278  0.2802
46301SOL    HW147871   6.610   6.408   7.343  0.3042 -0.3026  1.7147
46301SOL    HW247872   6.559   6.531   7.416 -0.2767  0.8382 -0.5168
46302SOL     OW47873   1.551   8.740   0.561 -0.4412  0.5567 -0.4000
46302SOL    HW147874   1.571   8.678   0.631 -0.4793  1.8194  0.7986
46302SOL    HW247875   1.457   8.755   0.570 -0.7641 -0.4852 -1.8037
46303SOL     OW47876   8.314  10.010   1.313  0.2032 -0.7762  0.2285
46303SOL    HW147877   8.300  10.099   1.282  0.5384 -0.6640  0.4035
46303SOL    HW247878   8.407   9.994   1.301  0.0572 -1.2804 -0.2651
46304SOL     OW47879  11.091   8.928   0.163 -0.4086 -0.2656 -0.4039
46304SOL    HW147880  11.158   8.979   0.209 -0.7171  1.4320 -1.7099
46304SOL    HW247881  11.141   8.870   0.105 -0.0537  0.4228 -0.7959
46305SOL     OW47882   3.688  10.920   9.480  0.0205 -0.0764  0.3355
46305SOL    HW147883   3.609  10.971   9.463 -0.8128 -1.1955  0.6906
46305SOL    HW247884   3.745  10.980   9.528  0.6074  1.6854 -2.3610
46306SOL     OW47885   4.954  12.487  10.726 -0.2153  0.4871  0.4280
46306SOL    HW147886   5.014  12.421  10.761 -0.4430  0.5811  1.0039
46306SOL    HW247887   4.904  12.441  10.658 -1.1606 -0.2672  1.5890
46307SOL     OW47888  11.827  11.068   2.478  0.1518  0.5687 -0.5271
46307SOL    HW147889  11.882  11.008   2.528 -1.2409  0.2078  0.6374
46307SOL    HW247890  11.792  11.128   2.543 -2.5212 -0.5295 -0.8424
46308SOL     OW47891   1.623   7.432   4.408 -0.5778 -0.0630  0.1584
46308SOL    HW147892   1.689   7.433   4.478 -0.4614 -1.1491  0.0962
46308SOL    HW247893   1.673   7.408   4.329 -1.0555 -1.0236  0.1368
46309SOL     OW47894   2.693   6.182   1.106  0.2032 -0.0920  0.0921
46309SOL    HW147895   2.713   6.238   1.181 -2.8759  0.0648  0.9198
46309SOL    HW247896   2.646   6.239   1.046 -2.8770 -1.5776  0.8856
46310SOL     OW47897   7.702   9.017  11.452 -0.0073  0.0922  0.2967
46310SOL    HW147898   7.671   9.056  11.370 -0.1184  0.4067  0.4862
46310SOL    HW247899   7.774   9.074  11.480  1.5823 -1.2851 -0.7499
46311SOL     OW47900   1.589   6.794   5.479  0.0081 -0.1093 -0.0123
46311SOL    HW147901   1.563   6.821   5.567  1.2331  0.4620  0.1853
46311SOL    HW247902   1.609   6.876   5.433  1.8460 -0.5226 -0.0169
46312SOL     OW47903   8.603   9.524   3.848 -0.1613 -0.2706 -0.0272
46312SOL    HW147904   8.661   9.601   3.849 -2.3514  1.4699  0.9323
46312SOL    HW247905   8.635   9.472   3.775  2.7155  0.4667  0.5507
46313SOL     OW47906   7.974   1.637   3.890  0.6366  0.3848 -0.7583
46313SOL    HW147907   7.990   1.725   3.923  0.1287  1.0542 -2.2076
46313SOL    HW247908   8.052   1.587   3.915  1.2198  1.4139 -0.4729
46314SOL     OW47909   3.496   6.853  11.746  0.1117 -0.0588 -0.0485
46314SOL    HW147910   3.478   6.856  11.840  0.3764  1.2464 -0.0114
46314SOL    HW247911   3.436   6.788  11.711 -1.1023  0.5747  0.8089
46315SOL     OW47912   5.014   9.171   6.020  0.3629  0.5746  0.3279
46315SOL    HW147913   4.921   9.173   6.042  0.6924  0.3753  1.8691
46315SOL    HW247914   5.054   9.235   6.079  1.2797  0.2622  0.0652
46316SOL     OW47915   6.348  11.475   5.662  0.4831  0.1167  0.3199
46316SOL    HW147916   6.259  11.444   5.680  0.5495 -0.1529  0.1904
46316SOL    HW247917   6.398  11.396   5.641  0.7086  0.2857  0.2066
46317SOL     OW47918  10.094   3.288   1.650  0.4877 -0.0615 -0.0928
46317SOL    HW147919  10.129   3.222   1.710  0.0853 -1.3658 -1.2432
46317SOL    HW247920  10.021   3.327   1.697  0.5371 -0.6612  0.4990
46318SOL     OW47921   7.202  12.474   2.213 -0.3534 -0.1431 -0.2429
46318SOL    HW147922   7.195  12.561   2.253  1.0218  0.2333 -0.7570
46318SOL    HW247923   7.177  12.488   2.121  2.5540  0.3646 -1.0527
46319SOL     OW47924   8.256   7.339   0.657 -0.0907  0.2024 -0.2049
46319SOL    HW147925   8.184   7.401   0.644  0.2452  0.8344  0.8515
46319SOL    HW247926   8.243   7.303   0.745 -0.8363 -2.0126 -1.1387
46320SOL     OW47927   3.210   2.561  11.654 -0.7391  0.3643  0.3678
46320SOL    HW147928   3.226   2.481  11.604 -0.5497  1.8153 -2.0441
46320SOL    HW247929   3.145   2.609  11.603 -0.8986  1.7332  1.7876
46321SOL     OW47930   2.598   6.946   0.864  0.6330  0.3569 -0.3758
46321SOL    HW147931   2.589   6.876   0.929  0.1040  1.0705  0.3563
46321SOL    HW247932   2.629   7.021   0.915  2.2285  0.3792 -1.3400
46322SOL     OW47933  11.719   4.196  12.083  0.1031  0.6757 -0.2462
46322SOL    HW147934  11.630   4.170  12.106  0.3145  0.2997  0.1829
46322SOL    HW247935  11.747   4.252  12.156  0.2840  0.6385 -0.2862
46323SOL     OW47936   9.091   2.044   9.899 -0.5200  0.0767 -0.6753
46323SOL    HW147937   9.141   2.088   9.968  0.2356 -1.9688  0.1575
46323SOL    HW247938   9.001   2.044   9.932 -0.2711 -0.3170  0.0311
46324SOL     OW47939   9.801   5.241   5.194  0.6595 -0.0463 -0.0957
46324SOL    HW147940   9.760   5.159   5.222  1.2410 -0.6372 -0.9605
46324SOL    HW247941   9.832   5.281   5.276  2.4267 -1.7889  0.1404
46325SOL     OW47942   2.560   5.048   9.738  0.3618 -0.2175 -0.1442
46325SOL    HW147943   2.511   5.107   9.680 -0.3350  0.8763  1.4736
46325SOL    HW247944   2.497   5.026   9.807  1.6507 -0.1111  1.1015
46326SOL     OW47945   2.987  12.490   7.475  0.4991 -0.3308  0.5209
46326SOL    HW147946   2.982  12.432   7.399 -2.2244  0.2905  0.1394
46326SOL    HW247947   2.996  12.431   7.550  0.4999 -1.0822 -0.0557
46327SOL     OW47948  11.989  10.422   2.337  0.4486  0.3941 -0.4089
46327SOL    HW147949  11.964  10.348   2.392  0.9077 -0.1300 -0.8860
46327SOL    HW247950  12.033  10.483   2.396 -0.4915  0.5808  0.1092
46328SOL     OW47951   0.067   9.660   8.026  0.1713 -0.0904 -0.4215
46328SOL    HW147952   0.034   9.746   7.999 -1.2348 -0.3013  0.5401
46328SOL    HW247953   0.006   9.598   7.985  0.1026 -0.5439  0.3540
46329SOL     OW47954   7.743   5.636   3.411 -0.1610  0.2562 -0.0625
46329SOL    HW147955   7.662   5.615   3.457 -1.7959  2.5241 -1.7150
46329SOL    HW247956   7.747   5.573   3.339 -0.0334 -0.3194  0.4344
46330SOL     OW47957   6.644   8.760   1.643 -0.3021 -0.6082  0.0669
46330SOL    HW147958   6.603   8.760   1.730 -0.2899 -1.3880  0.0788
46330SOL    HW247959   6.705   8.686   1.645 -0.2530 -0.5920 -0.5801
46331SOL     OW47960   6.654   7.624   7.898  0.2832  0.1109 -0.0469
46331SOL    HW147961   6.721   7.643   7.833 -0.1617  0.8126 -0.3141
46331SOL    HW247962   6.626   7.534   7.879 -1.3238  0.9650 -2.2242
46332SOL     OW47963   2.183   4.879   4.540 -0.2507 -0.0052  0.3459
46332SOL    HW147964   2.161   4.869   4.448  0.6235  2.0070 -0.1566
46332SOL    HW247965   2.254   4.817   4.555 -1.8563 -1.9410  0.3091
46333SOL     OW47966   8.263   6.641   4.964  0.2173 -0.5634 -0.1233
46333SOL    HW147967   8.169   6.626   4.974  0.2241 -1.1449 -0.8165
46333SOL    HW247968   8.276   6.646   4.869  0.4673  2.3997 -0.0222
46334SOL     OW47969   3.445  10.586   7.718  0.1783 -0.5645 -0.1110
46334SOL    HW147970   3.459  10.680   7.702 -1.4410 -0.3616 -0.4805
46334SOL    HW247971   3.490  10.570   7.801 -0.7730  0.8951  0.7426
46335SOL     OW47972   9.560   8.191   0.031  0.3419  0.4582  0.1562
46335SOL    HW147973   9.614   8.156  -0.039 -2.1370 -3.0643 -0.2668
46335SOL    HW247974   9.476   8.212  -0.011 -0.6262 -0.0581  1.7211
46336SOL     OW47975  12.127   9.928   0.989 -0.1273  0.0236  0.1888
46336SOL    HW147976  12.194   9.958   0.928 -0.9504  0.9960 -0.2458
46336SOL    HW247977  12.080  10.007   1.016 -0.7065 -0.5632  0.9734
46337SOL     OW47978   7.732   2.474   7.501 -0.3619  0.5159  0.2847
46337SOL    HW147979   7.744   2.538   7.571  1.2068 -0.1117  0.6195
46337SOL    HW247980   7.737   2.389   7.544  0.2641  0.1250 -0.5375
46338SOL     OW47981  10.923   9.939   6.682 -0.4610 -0.5197  0.1729
46338SOL    HW147982  10.855   9.929   6.615 -1.1613  2.8505  0.2439
46338SOL    HW247983  10.876   9.938   6.765 -0.7254  2.7332  0.1913
46339SOL     OW47984   5.673  11.666   8.510  0.5160 -0.5831  0.0440
46339SOL    HW147985   5.703  11.664   8.419  0.0773 -1.5842 -0.0927
46339SOL    HW247986   5.617  11.743   8.515  0.9126 -0.2616 -0.4169
46340SOL     OW47987   4.106   0.589  11.067 -0.3639 -0.4405 -0.4658
46340SOL    HW147988   4.080   0.545  11.148  0.6454  1.6544  1.1083
46340SOL    HW247989   4.083   0.681  11.082  3.5337  0.7547 -0.8077
46341SOL     OW47990  10.234   5.117  12.471 -0.4023 -0.4019  0.4086
46341SOL    HW147991  10.223   5.205  12.435 -1.8321 -0.8609 -0.3653
46341SOL    HW247992  10.317   5.087  12.435 -0.1387  0.4397  0.2837
46342SOL     OW47993   9.086   4.986   3.177  0.1256 -0.5512 -0.2246
46342SOL    HW147994   9.065   4.995   3.270 -0.8011 -0.5892 -0.4190
46342SOL    HW247995   9.180   4.967   3.175  0.4613  0.9155  0.6088
46343SOL     OW47996   9.159   9.629  11.679 -0.2951  0.8454 -0.6326
46343SOL    HW147997   9.130   9.697  11.618 -2.2786  0.3679 -0.2875
46343SOL    HW247998   9.226   9.580  11.631  0.0652  2.0958 -1.4340
46344SOL     OW47999  10.638   9.573   3.129 -0.0599 -0.2091 -0.3758
46344SOL    HW148000  10.622   9.604   3.040  1.4601 -0.7849 -0.8778
46344SOL    HW248001  10.705   9.505   3.120  0.4540  0.0240  1.2460
46345SOL     OW48002   8.840   7.621   8.179 -0.2740  0.3544 -0.0665
46345SOL    HW148003   8.853   7.716   8.174  3.5083  0.0663  1.1538
46345SOL    HW248004   8.908   7.585   8.123 -0.9546 -1.6792  0.3526
46346SOL     OW48005   4.009  11.553   7.972  0.8274  0.0825 -0.5373
46346SOL    HW148006   3.917  11.531   7.989  1.3931 -0.8581  1.7052
46346SOL    HW248007   4.009  11.585   7.882 -1.5940 -0.4623 -0.8255
46347SOL     OW48008   3.907  12.238   9.826  0.0379 -0.3098 -0.3182
46347SOL    HW148009   4.002  12.249   9.831 -0.0942  0.4505  1.1178
46347SOL    HW248010   3.889  12.159   9.878 -0.3245  1.0934  1.8070
46348SOL     OW48011   9.726   2.856  10.720  0.8704 -0.7592 -0.9181
46348SOL    HW148012   9.791   2.895  10.779 -1.1639  0.0987  0.9087
46348SOL    HW248013   9.693   2.780  10.768 -1.3897  0.4088 -0.4597
46349SOL     OW48014   0.433   5.064   7.102  0.1643 -0.8032  0.3557
46349SOL    HW148015   0.363   5.004   7.074  0.1883 -0.2664 -0.9337
46349SOL    HW248016   0.514   5.018   7.081  0.2582 -1.6707  2.3766
46350SOL     OW48017   3.812   2.445  10.035  0.3116  0.3429 -0.5402
46350SOL    HW148018   3.752   2.391  10.085  0.5196  0.0915 -0.5624
46350SOL    HW248019   3.783   2.436   9.944 -1.5558  2.6423 -0.2829
46351SOL     OW48020  11.113   4.247   6.935  0.7560 -0.4928 -0.4630
46351SOL    HW148021  11.085   4.190   7.006 -0.8518 -0.6976 -1.2039
46351SOL    HW248022  11.032   4.286   6.903  1.6534  1.0568 -0.9556
46352SOL     OW48023   7.809   9.042   5.031 -0.7469  0.0072 -0.3841
46352SOL    HW148024   7.887   8.990   5.011 -0.7432  0.0134 -0.3872
46352SOL    HW248025   7.826   9.126   4.989 -1.1595 -0.2916 -1.1618
46353SOL     OW48026  12.178   8.037   0.555 -0.6273 -0.0026 -0.0415
46353SOL    HW148027  12.120   7.998   0.490 -0.9901  0.4474  0.0094
46353SOL    HW248028  12.125   8.105   0.598 -0.1757  0.1779  0.2417
46354SOL     OW48029   1.578   1.361   6.911  0.0005 -0.0056  0.4265
46354SOL    HW148030   1.521   1.289   6.938  2.4237 -1.9477  0.7311
46354SOL    HW248031   1.544   1.389   6.826 -1.2140 -1.2815  0.4619
46355SOL     OW48032  11.811   5.440   4.765 -0.0029 -0.0143  0.1150
46355SOL    HW148033  11.843   5.502   4.699  0.5484  0.8050  1.1217
46355SOL    HW248034  11.717   5.456   4.768 -0.1152 -0.4229 -0.8245
46356SOL     OW48035   7.215  11.981  11.844 -0.2422  0.4671  0.3862
46356SOL    HW148036   7.188  11.996  11.753  1.6226  1.0070 -0.1185
46356SOL    HW248037   7.247  12.066  11.874  1.5793 -0.2645  0.6605
46357SOL     OW48038   3.018   0.770   4.433 -0.2824 -0.1598 -0.7659
46357SOL    HW148039   3.096   0.729   4.396 -1.1361 -0.4858 -2.2842
46357SOL    HW248040   3.008   0.851   4.383 -0.3123  0.4546  0.1912
46358SOL     OW48041   0.726   2.064   7.008 -0.0221  0.5802  0.5794
46358SOL    HW148042   0.710   2.103   6.922  0.0091  0.1747  0.3879
46358SOL    HW248043   0.685   2.125   7.070 -1.2693  0.1796  0.1781
46359SOL     OW48044   4.042   5.691   8.774  0.1610 -0.6687 -0.4180
46359SOL    HW148045   4.032   5.724   8.864 -4.1074 -0.2273 -0.8751
46359SOL    HW248046   4.106   5.751   8.734  1.9676 -0.7100  2.1368
46360SOL     OW48047  12.523   6.332   3.914 -0.1281  0.2057  0.2251
46360SOL    HW148048  12.430   6.335   3.935 -0.7415 -0.7563 -2.0518
46360SOL    HW248049  12.556   6.257   3.964 -0.9635 -0.4979 -0.2476
46361SOL     OW48050   1.647   7.911   6.689 -1.1988  0.5527  0.2847
46361SOL    HW148051   1.564   7.903   6.643 -0.5477 -1.1863 -0.7049
46361SOL    HW248052   1.712   7.920   6.619 -0.3807 -0.1196  0.9318
46362SOL     OW48053   7.916   0.040   2.144  0.0044  0.1526 -0.0224
46362SOL    HW148054   7.892  -0.045   2.108  0.3863  0.6337 -1.5006
46362SOL    HW248055   7.854   0.055   2.215  0.5400 -1.7731  0.9106
46363SOL     OW48056   9.946   2.464   4.653 -0.1331  0.7236  0.0623
46363SOL    HW148057  10.019   2.494   4.599  0.2076 -1.5170 -0.8032
46363SOL    HW248058   9.894   2.408   4.595 -1.1808  0.2861  1.3670
46364SOL     OW48059   1.926   9.831   0.384  0.2374 -0.3168 -0.3188
46364SOL    HW148060   1.882   9.898   0.437 -1.1942 -2.7020  1.7501
46364SOL    HW248061   2.009   9.815   0.429 -0.3539 -1.3397  0.4652
46365SOL     OW48062   9.733   2.570   1.441 -0.7848 -0.2039 -0.4127
46365SOL    HW148063   9.816   2.523   1.435  1.2199  3.1929 -2.2841
46365SOL    HW248064   9.676   2.525   1.378  0.0775 -1.7026 -0.1735
46366SOL     OW48065   2.146   7.198   8.848 -0.3780  0.3916 -0.1748
46366SOL    HW148066   2.207   7.124   8.838 -0.6974 -0.0924  1.2360
46366SOL    HW248067   2.202   7.275   8.848 -0.0471  0.1794 -1.7874
46367SOL     OW48068  12.098   2.381   8.938  0.3501  0.3066  0.4299
46367SOL    HW148069  12.027   2.434   8.902 -0.4736  0.6284  2.4076
46367SOL    HW248070  12.054   2.307   8.980  1.0831  0.8715  2.2880
46368SOL     OW48071   6.147  12.152   0.049 -0.0374  0.2987  0.0505
46368SOL    HW148072   6.057  12.139   0.078 -0.1118 -1.5071 -0.8222
46368SOL    HW248073   6.197  12.163   0.130 -1.0210  1.2775  0.5476
46369SOL     OW48074   8.372   3.490   2.506  0.9958 -0.1562  0.0908
46369SOL    HW148075   8.422   3.447   2.575  0.0419  1.0070  1.5649
46369SOL    HW248076   8.330   3.418   2.458  1.5681 -0.9817  0.8038
46370SOL     OW48077   6.223   6.798   4.805  0.4013 -0.1579 -0.1792
46370SOL    HW148078   6.246   6.718   4.757 -1.1468  0.5916 -2.3745
46370SOL    HW248079   6.306   6.844   4.817  0.9714 -0.8322 -1.3675
46371SOL     OW48080   4.332  10.433   5.841 -0.8918  0.1259 -0.0603
46371SOL    HW148081   4.404  10.394   5.891 -0.8789  1.3767  0.9454
46371SOL    HW248082   4.374  10.476   5.767 -0.7215 -0.0752 -0.0835
46372SOL     OW48083   8.012  10.778   0.882 -0.0390 -0.3748 -1.0183
46372SOL    HW148084   8.038  10.816   0.797  0.3913 -2.8745 -2.0912
46372SOL    HW248085   8.056  10.834   0.947  0.0808  1.2781 -2.4344
46373SOL     OW48086   2.849  11.217   8.046 -0.2232  0.3259 -0.0366
46373SOL    HW148087   2.776  11.231   7.986 -0.4105 -0.5534 -0.0191
46373SOL    HW248088   2.809  11.216   8.133 -0.1599  0.0887 -0.0095
46374SOL     OW48089   3.962  11.457   5.365  0.0199 -0.0238  0.1768
46374SOL    HW148090   3.993  11.466   5.455  0.2695  0.8981  0.0209
46374SOL    HW248091   3.949  11.364   5.352  0.7347 -0.2381  0.9275
46375SOL     OW48092   6.035   1.813  11.808 -0.0509 -0.0388  0.4327
46375SOL    HW148093   5.965   1.748  11.808 -0.7741  0.7161  0.0876
46375SOL    HW248094   6.087   1.792  11.886 -0.5194 -0.7628  0.5625
46376SOL     OW48095  11.096   6.746   5.102 -0.1683 -0.1762  0.0997
46376SOL    HW148096  11.091   6.660   5.143  0.1368 -1.4186 -2.2878
46376SOL    HW248097  11.190   6.762   5.090 -0.2083  0.6534  0.8272
46377SOL     OW48098  12.508   7.765   9.264  0.4234 -0.0950 -0.0864
46377SOL    HW148099  12.501   7.748   9.170 -0.2069 -3.4848  0.4154
46377SOL    HW248100  12.599   7.744   9.286  0.5209  0.5064  0.1047
46378SOL     OW48101   8.657   4.998  10.365 -0.9830  0.1944 -0.4940
46378SOL    HW148102   8.631   5.045  10.285  0.6480  1.6039 -0.2570
46378SOL    HW248103   8.647   5.063  10.435  0.8545  0.0860 -0.0732
46379SOL     OW48104   4.438  10.829   5.652  0.2545  0.4338  0.1584
46379SOL    HW148105   4.494  10.835   5.575 -1.6619  0.5816 -1.2815
46379SOL    HW248106   4.404  10.739   5.649 -2.1265  1.3041 -0.9037
46380SOL     OW48107   1.974   1.463   9.274 -0.1786  0.0161 -0.0908
46380SOL    HW148108   1.884   1.464   9.241  0.1826  0.1480 -1.0970
46380SOL    HW248109   2.025   1.421   9.205  0.6358  0.4801  0.2145
46381SOL     OW48110   1.750  12.455   8.354 -0.4449  0.0851  0.2381
46381SOL    HW148111   1.701  12.373   8.348  0.6391 -0.5309 -0.3190
46381SOL    HW248112   1.687  12.517   8.393 -1.9396 -0.4611 -1.1772
46382SOL     OW48113   5.501   2.311   2.036 -1.0328 -0.7797 -0.4296
46382SOL    HW148114   5.557   2.381   2.069  0.4043 -1.1735 -1.9062
46382SOL    HW248115   5.488   2.332   1.944 -1.8704 -1.6297 -0.5126
46383SOL     OW48116   1.535   9.540   6.551 -0.2393  0.6421  0.2832
46383SOL    HW148117   1.598   9.610   6.566  1.2617  0.0531 -2.6562
46383SOL    HW248118   1.451   9.586   6.545  0.0486  1.6233  2.6382
46384SOL     OW48119   5.870   3.624   9.252 -0.1516  0.3301  0.1411
46384SOL    HW148120   5.878   3.551   9.313 -0.6451  0.6037  0.5383
46384SOL    HW248121   5.777   3.629   9.233  0.2166 -1.6084 -2.9190
46385SOL     OW48122   1.693   2.239   0.739  0.0652 -0.0740 -0.1785
46385SOL    HW148123   1.632   2.197   0.799  0.3353 -0.2276 -0.0058
46385SOL    HW248124   1.718   2.170   0.677  0.1344 -0.0384 -0.1913
46386SOL     OW48125   5.473   9.533   0.335  0.0958  0.0249 -0.5221
46386SOL    HW148126   5.533   9.608   0.329  0.4337 -0.1693  0.2711
46386SOL    HW248127   5.435   9.540   0.422  0.1494 -0.7402 -0.4307
46387SOL     OW48128   1.288   2.152   5.186 -0.0402 -0.0819  0.6509
46387SOL    HW148129   1.261   2.096   5.113 -0.1472 -0.1038  0.7075
46387SOL    HW248130   1.380   2.174   5.166 -0.3078  0.5829  0.0903
46388SOL     OW48131   2.895   8.828   0.272 -0.3654  0.5611 -0.1165
46388SOL    HW148132   2.805   8.806   0.246  0.0221  1.4495 -2.4331
46388SOL    HW248133   2.890   8.919   0.301 -0.5178  0.0232  1.6614
46389SOL     OW48134   4.433   9.736   8.504 -0.1981 -0.1069 -0.2492
46389SOL    HW148135   4.353   9.764   8.549 -0.0764  0.3028 -0.2801
46389SOL    HW248136   4.415   9.646   8.476 -1.1554  0.4353 -1.4404
46390SOL     OW48137   6.882   0.808   9.548  0.5256 -0.5304  0.6528
46390SOL    HW148138   6.808   0.868   9.534  1.0171  0.2369  1.2195
46390SOL    HW248139   6.846   0.721   9.532 -0.2317 -0.0969 -0.1183
46391SOL     OW48140   6.248   7.599   6.721  0.1238 -0.1924  0.3090
46391SOL    HW148141   6.195   7.638   6.651 -1.1196 -2.7090 -0.3019
46391SOL    HW248142   6.199   7.616   6.801 -1.4724 -2.0094 -0.1883
46392SOL     OW48143   6.838   3.136   2.290 -0.0322 -0.6235  0.2969
46392SOL    HW148144   6.790   3.191   2.229 -0.3595 -1.5290 -0.2817
46392SOL    HW248145   6.776   3.122   2.363 -0.2039 -0.7909  0.1200
46393SOL     OW48146   8.060   5.452   3.169 -0.4114 -0.2903 -0.0121
46393SOL    HW148147   8.017   5.369   3.190 -2.9292  1.4946  2.5853
46393SOL    HW248148   8.099   5.481   3.251 -0.9366  1.7600 -0.4145
46394SOL     OW48149   3.922   7.300   7.049 -0.0244  0.2112  0.1608
46394SOL    HW148150   3.831   7.285   7.022  0.1860  0.5297 -0.7743
46394SOL    HW248151   3.962   7.345   6.974  1.5220 -1.9740 -0.4186
46395SOL     OW48152   6.197   2.955   0.030 -0.0911 -0.2278  0.0909
46395SOL    HW148153   6.262   3.012  -0.010 -0.5243 -0.6577 -1.2697
46395SOL    HW248154   6.242   2.871   0.040 -0.7068 -0.8271 -1.8144
46396SOL     OW48155   6.866   5.406  11.003 -0.0365 -0.1276  0.1577
46396SOL    HW148156   6.961   5.395  11.000 -0.1446 -0.9424 -0.4023
46396SOL    HW248157   6.854   5.501  10.998  0.7878  0.1028  1.8560
46397SOL     OW48158   1.240   1.232   0.623 -0.1643 -0.1692  0.1371
46397SOL    HW148159   1.272   1.194   0.705 -1.6128  0.9280  1.2625
46397SOL    HW248160   1.316   1.234   0.566  1.0704 -0.2561  1.7235
46398SOL     OW48161  10.340   7.810   1.770 -0.0338 -0.3336  0.4243
46398SOL    HW148162  10.378   7.878   1.715  0.1454  0.7428  1.8018
46398SOL    HW248163  10.409   7.745   1.780  0.1397 -0.2356 -0.1171
46399SOL     OW48164   8.993   1.174   3.157  0.2610  0.0608 -0.4515
46399SOL    HW148165   8.928   1.144   3.093  1.8252 -1.2254 -1.5192
46399SOL    HW248166   9.050   1.098   3.171 -0.8796 -0.2940  3.7375
46400SOL     OW48167   4.363   0.565  10.981  0.4617 -0.7620  0.5429
46400SOL    HW148168   4.381   0.596  11.070 -0.2425  0.9018  0.1433
46400SOL    HW248169   4.268   0.567  10.973  0.5476 -0.0106 -0.5252
46401SOL     OW48170   8.270  12.404   5.914  0.4322  0.3723  0.6096
46401SOL    HW148171   8.317  12.487   5.927 -0.5106  1.2673 -1.4036
46401SOL    HW248172   8.206  12.402   5.986 -0.4252  2.0632 -0.0599
46402SOL     OW48173   5.058   6.498   8.964 -0.3666  0.2841  0.2450
46402SOL    HW148174   5.108   6.504   8.882 -0.5051 -0.1232  0.1288
46402SOL    HW248175   5.096   6.566   9.020 -1.5838  1.9300 -0.8446
46403SOL     OW48176   0.706   0.875   4.960 -0.4156 -0.1344  0.4483
46403SOL    HW148177   0.671   0.958   4.993 -0.7415 -0.3951  0.7707
46403SOL    HW248178   0.753   0.899   4.880  1.9192  0.7984  1.9814
46404SOL     OW48179   2.325   6.371   2.919  0.0540  0.1449  0.9227
46404SOL    HW148180   2.266   6.298   2.939 -0.8557  0.4724 -0.4028
46404SOL    HW248181   2.396   6.332   2.869  0.0326  0.0312  0.9804
46405SOL     OW48182  10.802   2.102  11.342  0.1745  0.4037 -0.2100
46405SOL    HW148183  10.887   2.143  11.326  0.2353 -0.2819 -1.9291
46405SOL    HW248184  10.742   2.147  11.282  0.1034 -1.4377 -1.6360
46406SOL     OW48185   8.124   4.390   4.851  0.7660  0.7780  0.3928
46406SOL    HW148186   8.202   4.341   4.875  0.5499  0.0680 -0.3334
46406SOL    HW248187   8.157   4.469   4.810  1.1226 -0.1998 -1.2821
46407SOL     OW48188   7.213   7.616   3.300 -0.3149  0.4430 -0.3430
46407SOL    HW148189   7.132   7.658   3.272 -0.4012  1.0239  0.7471
46407SOL    HW248190   7.246   7.671   3.371  0.7574 -0.0828 -0.4137
46408SOL     OW48191   0.452   0.981   8.027 -0.2627 -0.2134 -0.0767
46408SOL    HW148192   0.490   0.986   7.940 -0.8269 -0.4728 -0.3455
46408SOL    HW248193   0.485   0.899   8.064  1.2443  0.6578  0.5807
46409SOL     OW48194   0.436   3.390   2.468 -0.2240  0.6098 -0.5445
46409SOL    HW148195   0.397   3.446   2.400 -1.2630  0.9744  0.3152
46409SOL    HW248196   0.365   3.377   2.532  0.5737 -0.1398  0.2237
46410SOL     OW48197   2.214   9.440   3.264 -0.4964  0.0448  0.3894
46410SOL    HW148198   2.152   9.502   3.302 -3.0295 -2.8754  1.4955
46410SOL    HW248199   2.160   9.381   3.213  1.9121 -0.6641 -1.5304
46411SOL     OW48200   5.538  10.712   6.852  0.1248 -0.2650  0.0014
46411SOL    HW148201   5.486  10.635   6.874  0.6094 -0.2057  1.4744
46411SOL    HW248202   5.541  10.763   6.933 -2.7802  2.9234 -1.6196
46412SOL     OW48203   0.742   9.343   5.742  0.0801  0.3553 -0.0408
46412SOL    HW148204   0.789   9.261   5.752 -0.3159  0.1868  0.5108
46412SOL    HW248205   0.674   9.340   5.809  0.4703  1.4160  0.4383
46413SOL     OW48206   9.135   1.276   1.472  0.4907  0.1284 -0.4907
46413SOL    HW148207   9.145   1.296   1.379  0.8444  0.5231 -0.3702
46413SOL    HW248208   9.054   1.320   1.498  0.7427  0.5785 -0.4596
46414SOL     OW48209   8.817   5.667   9.767 -0.6058 -0.5334  0.3464
46414SOL    HW148210   8.776   5.708   9.691 -1.5762 -2.6895 -0.3983
46414SOL    HW248211   8.904   5.641   9.736 -0.9767 -1.3519 -0.0574
46415SOL     OW48212   8.617   9.390  11.707 -0.4406  0.0736 -0.5898
46415SOL    HW148213   8.649   9.460  11.763  0.7492 -0.9291  0.0369
46415SOL    HW248214   8.544   9.352  11.755 -1.6577  1.3778 -1.3183
46416SOL     OW48215   1.342   8.162   4.459  0.5631 -0.0255  0.0382
46416SOL    HW148216   1.305   8.092   4.406 -0.7432  0.1373  0.6957
46416SOL    HW248217   1.270   8.190   4.515  1.1429  1.6403  0.0008
46417SOL     OW48218  11.711   4.352   7.192 -0.3015  0.2103  0.4371
46417SOL    HW148219  11.801   4.371   7.164 -0.7061 -0.5441 -1.5707
46417SOL    HW248220  11.692   4.418   7.258  0.1513  3.4674 -2.4150
46418SOL     OW48221   1.766  11.177   0.621 -0.2648  0.1068 -0.8315
46418SOL    HW148222   1.858  11.151   0.628  0.0009  1.4581  1.7507
46418SOL    HW248223   1.718  11.096   0.638  0.4756 -0.3477 -0.8372
46419SOL     OW48224   3.154   7.533   3.902  0.2465 -0.0840  0.4886
46419SOL    HW148225   3.218   7.504   3.837  2.0242  2.2764  1.0093
46419SOL    HW248226   3.083   7.571   3.850  1.5661  1.6260 -0.1788
46420SOL     OW48227   9.180   0.527   2.700  0.0375  0.6986 -0.6516
46420SOL    HW148228   9.238   0.502   2.773  0.7537  0.1429 -1.3901
46420SOL    HW248229   9.189   0.455   2.638 -1.2193  0.7661 -0.9255
46421SOL     OW48230   6.878   3.133   0.003  0.1801  0.4330 -0.0645
46421SOL    HW148231   6.898   3.211  -0.048 -0.9463  0.6114 -0.2587
46421SOL    HW248232   6.874   3.063  -0.061  1.8289  0.0699  0.1864
46422SOL     OW48233   1.465  11.598   2.628  0.8683  0.2769  0.0983
46422SOL    HW148234   1.394  11.588   2.692 -0.1982 -1.0050 -1.2107
46422SOL    HW248235   1.526  11.526   2.649  0.7921  0.1887  0.0210
46423SOL     OW48236   1.972   1.760   7.113 -0.1219 -0.0028  0.2613
46423SOL    HW148237   1.939   1.784   7.200 -0.7082 -1.9551  0.6453
46423SOL    HW248238   2.031   1.686   7.130 -1.4934 -1.4890 -1.0959
46424SOL     OW48239   7.261  12.128   3.932 -0.0576 -0.1655  0.1902
46424SOL    HW148240   7.230  12.202   3.984  0.1623  1.2800 -1.6119
46424SOL    HW248241   7.288  12.168   3.849  2.7425 -1.8953  0.1625
46425SOL     OW48242  11.482   4.781   0.205  0.3062 -0.1660  0.2242
46425SOL    HW148243  11.570   4.814   0.183 -0.0939  0.0791 -1.1352
46425SOL    HW248244  11.473   4.796   0.299  1.5068  0.3338  0.2754
46426SOL     OW48245   2.111  12.206   4.350  0.0021 -0.1321  0.0469
46426SOL    HW148246   2.064  12.244   4.276  0.4417 -0.8847 -0.6235
46426SOL    HW248247   2.045  12.151   4.394 -0.1499  0.0028 -0.0105
46427SOL     OW48248  12.580   0.484   6.348 -0.6575 -0.5972  0.1653
46427SOL    HW148249  12.667   0.511   6.378 -1.2947  0.7823  0.9181
46427SOL    HW248250  12.583   0.491   6.253 -0.6386  1.9291  0.2807
46428SOL     OW48251   1.702   7.616   3.315 -0.3688 -0.1460 -0.3377
46428SOL    HW148252   1.724   7.606   3.408 -0.6800  1.4038 -0.0703
46428SOL    HW248253   1.780   7.586   3.269 -0.0390 -0.5171  0.4476
46429SOL     OW48254   1.827   7.386   7.333 -0.8718 -0.2813  0.4197
46429SOL    HW148255   1.856   7.296   7.348 -1.4962 -0.3759  1.0879
46429SOL    HW248256   1.778   7.382   7.251  0.0526 -0.3243 -0.1514
46430SOL     OW48257   4.642  10.827   0.951  0.7515 -0.2344 -0.0131
46430SOL    HW148258   4.720  10.851   1.002  1.3098  1.5254 -1.5945
46430SOL    HW248259   4.657  10.865   0.865 -2.0506  0.5314 -0.2561
46431SOL     OW48260   7.418   8.394   1.722  0.3773  0.5048  0.3124
46431SOL    HW148261   7.364   8.315   1.727  0.1969  0.6549  0.7927
46431SOL    HW248262   7.392   8.445   1.799  1.3031  0.5112  0.6272
46432SOL     OW48263   8.717   5.513  11.341  0.0256  0.0729 -0.0951
46432SOL    HW148264   8.676   5.429  11.321  0.4176  0.0475 -0.8348
46432SOL    HW248265   8.788   5.520  11.278 -0.0395  0.9865 -0.0794
46433SOL     OW48266  10.279  10.721   4.027 -0.1816 -0.2332  0.3565
46433SOL    HW148267  10.304  10.796   3.972 -0.7041 -0.0758  0.3234
46433SOL    HW248268  10.186  10.709   4.008 -0.1729 -0.6861  0.6125
46434SOL     OW48269   1.311  11.465   8.477  0.6128  0.1858 -0.2754
46434SOL    HW148270   1.271  11.410   8.545 -0.5154  0.0247 -1.0442
46434SOL    HW248271   1.344  11.542   8.524 -1.2997  0.6933  0.3016
46435SOL     OW48272  12.431   2.221   0.832  0.0454  0.2948 -0.5955
46435SOL    HW148273  12.471   2.306   0.811  1.8557 -0.7198 -1.4840
46435SOL    HW248274  12.372   2.204   0.759 -0.1864  0.6930 -0.5067
46436SOL     OW48275   7.120   6.350   4.641  0.2040  0.3055 -0.9884
46436SOL    HW148276   7.121   6.281   4.708 -0.7270 -0.5047 -1.7845
46436SOL    HW248277   7.202   6.398   4.656 -0.1439  0.3841  0.9583
46437SOL     OW48278   3.781   4.673   0.347 -0.5854 -0.6932 -0.1740
46437SOL    HW148279   3.799   4.656   0.254  4.0503 -2.0534  0.7189
46437SOL    HW248280   3.739   4.593   0.378  0.4478 -1.4212 -0.5915
46438SOL     OW48281   9.146   1.179   2.907 -0.1310  0.6003  0.1925
46438SOL    HW148282   9.073   1.130   2.869 -0.9143  0.6649  1.5360
46438SOL    HW248283   9.214   1.114   2.923 -0.0186  0.4779 -0.7443
46439SOL     OW48284   5.168   0.096   9.407 -0.2989  0.5901 -0.0412
46439SOL    HW148285   5.172   0.191   9.405  1.7970  0.6054  1.2045
46439SOL    HW248286   5.194   0.069   9.318 -1.7594  1.1308 -0.6648
46440SOL     OW48287   2.133   8.867   7.978  0.1110 -0.8502 -0.0392
46440SOL    HW148288   2.226   8.875   7.956  0.1091 -0.1675  0.1779
46440SOL    HW248289   2.090   8.937   7.928 -0.4812 -2.0184 -1.2034
46441SOL     OW48290   4.260   9.313   8.158  0.4894 -0.2021 -0.4731
46441SOL    HW148291   4.248   9.408   8.166  1.3393  0.0550 -1.9111
46441SOL    HW248292   4.182   9.283   8.112  0.6540 -0.0429 -0.8639
46442SOL     OW48293   4.578   4.204   3.056  0.1744 -0.3294 -0.4467
46442SOL    HW148294   4.573   4.245   3.142  0.6962 -0.3418 -0.4090
46442SOL    HW248295   4.498   4.151   3.050 -0.4695  0.6237 -0.4677
46443SOL     OW48296  10.737   2.512   5.245 -0.6175 -0.3865 -0.3584
46443SOL    HW148297  10.760   2.597   5.207 -0.4192 -0.9195 -1.4827
46443SOL    HW248298  10.772   2.448   5.182  0.6491 -1.3426  1.2524
46444SOL     OW48299   0.131   8.174   8.252 -0.0726  0.1657 -0.1791
46444SOL    HW148300   0.088   8.188   8.337  0.3125 -0.6099  0.1589
46444SOL    HW248301   0.084   8.231   8.192 -0.7061  0.3334  0.4539
46445SOL     OW48302   1.402   0.571  12.188  0.6045 -0.4458 -0.2210
46445SOL    HW148303   1.469   0.640  12.198  2.5196 -2.2807  0.3295
46445SOL    HW248304   1.340   0.608  12.125  2.3643  1.2172 -1.1069
46446SOL     OW48305   4.696   1.103  10.721  0.3130 -0.1584 -0.2091
46446SOL    HW148306   4.748   1.024  10.735  1.7228  0.8282  0.2802
46446SOL    HW248307   4.738   1.147  10.647 -0.2031  0.3525 -0.2073
46447SOL     OW48308   5.322  12.234   5.815  0.0624 -0.1417 -0.1420
46447SOL    HW148309   5.370  12.303   5.862 -0.7942  0.0194  0.5079
46447SOL    HW248310   5.331  12.157   5.870 -1.1780  0.1179  0.4442
46448SOL     OW48311   7.940   7.100   6.047 -0.1918  0.6564  0.7711
46448SOL    HW148312   7.903   7.092   5.959  0.6712  0.2760  0.4264
46448SOL    HW248313   7.922   7.190   6.073 -0.7726  0.6666  0.3488
46449SOL     OW48314   0.260  10.512  11.328 -0.0981 -0.1521 -0.1558
46449SOL    HW148315   0.289  10.433  11.282  1.2796  0.2845 -0.0910
46449SOL    HW248316   0.261  10.488  11.420 -1.7864 -0.6900 -0.2495
46450SOL     OW48317   8.521   9.262   8.315  0.2714  0.3992 -0.5121
46450SOL    HW148318   8.538   9.354   8.337 -1.3224  0.2399  1.6975
46450SOL    HW248319   8.603   9.217   8.336  0.8939  1.2319 -1.1157
46451SOL     OW48320   9.535   6.771   3.666 -0.2799  0.1414  0.7855
46451SOL    HW148321   9.452   6.817   3.655 -0.4727 -0.2570  0.5430
46451SOL    HW248322   9.601   6.840   3.662 -0.5448  0.3716  0.1511
46452SOL     OW48323   1.873   6.082   6.974  0.1006  0.5027 -0.4699
46452SOL    HW148324   1.845   6.053   6.887  0.3871  0.2888 -0.4914
46452SOL    HW248325   1.967   6.062   6.977 -0.1374 -0.6113  0.3292
46453SOL     OW48326  12.408   5.199  10.237 -0.0973  0.6655  0.6857
46453SOL    HW148327  12.418   5.113  10.277 -0.8258  1.4369  2.6420
46453SOL    HW248328  12.327   5.193  10.188 -1.6232  0.9589  3.0194
46454SOL     OW48329  12.035   0.085   5.606 -0.3352  0.4482  0.3872
46454SOL    HW148330  12.118   0.043   5.582 -0.8511  0.2505 -1.1374
46454SOL    HW248331  11.974   0.059   5.537 -1.1308  2.3114  0.3375
46455SOL     OW48332  12.246  10.895   3.726 -0.0382  0.3183  0.5908
46455SOL    HW148333  12.235  10.807   3.762 -0.0762  0.0022 -0.1819
46455SOL    HW248334  12.328  10.891   3.676 -0.2167  0.6261  0.2710
46456SOL     OW48335   6.790  11.427   7.552 -0.0680  0.3161 -0.1813
46456SOL    HW148336   6.771  11.496   7.616 -1.6882  0.3419 -0.6437
46456SOL    HW248337   6.868  11.457   7.507  1.3934  0.0759  2.0571
46457SOL     OW48338   8.987   2.609  12.557 -0.4400 -0.9397  0.4247
46457SOL    HW148339   8.952   2.682  12.506 -0.0049 -0.5277  0.6987
46457SOL    HW248340   8.912   2.574  12.605 -0.5204 -0.1926  0.8600
46458SOL     OW48341   9.596   4.545   9.990 -0.1106  0.4593  0.3446
46458SOL    HW148342   9.521   4.528  10.046 -0.9312 -0.9898 -1.0814
46458SOL    HW248343   9.560   4.545   9.901  1.5005  0.1666 -0.3534
46459SOL     OW48344  11.923   7.941   4.495 -0.2746  0.7234 -0.6176
46459SOL    HW148345  11.833   7.969   4.480 -0.2747  1.2775  0.3171
46459SOL    HW248346  11.974   8.022   4.489  0.1065  0.4767 -0.7344
46460SOL     OW48347   7.863   4.181   9.662 -0.1270 -0.0147 -0.1824
46460SOL    HW148348   7.852   4.146   9.751 -0.1180  1.6496  0.5199
46460SOL    HW248349   7.909   4.113   9.615  1.3230 -0.3219  1.5629
46461SOL     OW48350  11.953   9.673   0.224  0.5237 -0.1050  0.0591
46461SOL    HW148351  12.012   9.748   0.232  1.3623 -0.7152 -0.2979
46461SOL    HW248352  11.980   9.614   0.295  0.6472 -0.5856 -0.3811
46462SOL     OW48353   6.298   9.995   4.424  0.3029 -0.1092 -0.0533
46462SOL    HW148354   6.353   9.918   4.439  1.8676  0.4862 -2.1531
46462SOL    HW248355   6.209   9.964   4.436  0.9815 -1.6733  1.3523
46463SOL     OW48356   7.916   9.771  11.913  0.4310 -0.8372 -0.0735
46463SOL    HW148357   7.827   9.806  11.912  0.2406 -1.2689  0.6619
46463SOL    HW248358   7.971   9.844  11.944  0.7132  0.1767 -2.6852
46464SOL     OW48359  11.466   2.077  10.181  0.5412  0.1851  0.4519
46464SOL    HW148360  11.409   2.087  10.256 -0.8291  1.1345 -0.6740
46464SOL    HW248361  11.480   1.982  10.175 -0.1321  0.0168  1.3125
46465SOL     OW48362   6.612   3.110   7.846  0.1087  0.2321  0.3947
46465SOL    HW148363   6.553   3.099   7.772  1.6096 -0.1183 -0.7894
46465SOL    HW248364   6.636   3.203   7.844 -0.2868  0.3477  0.8006
46466SOL     OW48365   4.455   9.324   2.482 -0.5277 -0.1510  0.1307
46466SOL    HW148366   4.513   9.254   2.451 -0.5747 -0.2431  0.2500
46466SOL    HW248367   4.414   9.288   2.561 -1.1544 -0.2846 -0.2524
46467SOL     OW48368   5.823  12.172   5.777 -0.6905 -0.4860 -0.0129
46467SOL    HW148369   5.866  12.087   5.787  0.6065  0.2765  1.5185
46467SOL    HW248370   5.738  12.152   5.738 -0.1879 -2.4129 -0.2235
46468SOL     OW48371   6.109   7.774  11.742 -0.4192  0.0291  0.1127
46468SOL    HW148372   6.035   7.731  11.786  0.6044 -0.4688  1.4203
46468SOL    HW248373   6.138   7.710  11.676 -0.3804 -0.3067  0.4493
46469SOL     OW48374   6.185   2.479   0.560  0.6304 -0.5620  0.0985
46469SOL    HW148375   6.174   2.420   0.634  0.2838 -0.4370  0.1499
46469SOL    HW248376   6.275   2.509   0.566  0.2242  0.5281  1.2880
46470SOL     OW48377   6.509  12.020   5.148 -0.3101  0.2627  0.1610
46470SOL    HW148378   6.574  11.978   5.204 -0.3961 -0.2388 -0.1067
46470SOL    HW248379   6.497  11.959   5.076 -1.5849  0.0297  0.5475
46471SOL     OW48380  12.570  11.553  10.441 -0.2041  0.4639 -0.1508
46471SOL    HW148381  12.538  11.537  10.530 -1.4961  1.4039 -0.4303
46471SOL    HW248382  12.590  11.647  10.439  1.5395  0.1331 -0.3463
46472SOL     OW48383   7.830  10.052   3.284 -0.0430 -0.7128 -0.1553
46472SOL    HW148384   7.863  10.112   3.217 -3.2997  1.2492 -0.1891
46472SOL    HW248385   7.797   9.977   3.234  0.4752 -0.7494 -0.4510
46473SOL     OW48386   9.913   5.266  11.929 -0.2051 -0.8572  0.0596
46473SOL    HW148387   9.857   5.286  11.854 -0.7773 -0.7644  0.5059
46473SOL    HW248388   9.859   5.213  11.986  0.4284 -1.4448  0.1373
46474SOL     OW48389  10.652  10.143   1.255  0.0405 -0.3957  0.2462
46474SOL    HW148390  10.698  10.137   1.339 -2.6588  3.2580  2.3171
46474SOL    HW248391  10.583  10.077   1.261 -0.7360  0.4815  1.4376
46475SOL     OW48392  11.923   4.913  10.678 -0.6662  0.8051 -0.4381
46475SOL    HW148393  11.941   4.972  10.752 -1.9386 -0.2957  0.8181
46475SOL    HW248394  11.956   4.959  10.602 -1.1462  2.9208  0.5599
46476SOL     OW48395   3.886   1.995   5.171  0.0262 -0.7430  0.0782
46476SOL    HW148396   3.926   1.952   5.095  0.7671 -1.7251  0.9951
46476SOL    HW248397   3.943   2.070   5.188 -0.7051  0.0706 -0.9161
46477SOL     OW48398   1.990   0.566   5.972 -0.4836  0.2367 -0.1051
46477SOL    HW148399   2.065   0.615   5.939 -0.4661 -0.5686 -1.3532
46477SOL    HW248400   1.915   0.623   5.954 -0.1408  1.5559  2.1895
46478SOL     OW48401   4.889  10.207   7.930  0.1373  0.3017  0.2535
46478SOL    HW148402   4.974  10.169   7.907  0.1812  0.3659  0.3055
46478SOL    HW248403   4.903  10.302   7.924 -0.4845  0.3215 -1.7866
46479SOL     OW48404  10.093   0.523   0.445 -0.4979 -0.2524  0.3590
46479SOL    HW148405  10.178   0.544   0.484 -0.7659  0.5768  0.5212
46479SOL    HW248406  10.106   0.438   0.403  0.4634 -0.0453  0.2167
46480SOL     OW48407   5.235   1.970   1.684 -0.7415 -0.2583  0.0865
46480SOL    HW148408   5.288   2.048   1.703 -2.7908  0.7186  2.4429
46480SOL    HW248409   5.195   1.988   1.599 -0.3056  0.7777  0.0809
46481SOL     OW48410   9.734   2.042   3.364  0.0124 -0.4933 -0.1664
46481SOL    HW148411   9.655   1.992   3.385  0.3407 -0.8238  0.2867
46481SOL    HW248412   9.805   1.980   3.377  0.3306 -0.2787 -0.8442
46482SOL     OW48413   7.940   3.673  11.711  0.1222 -0.4581  0.3117
46482SOL    HW148414   7.998   3.614  11.662  0.4397  0.0270  0.1018
46482SOL    HW248415   7.989   3.692  11.791  0.3932  0.1901  0.0014
46483SOL     OW48416   8.893   9.557   8.193  0.6611 -0.1422  0.5823
46483SOL    HW148417   8.894   9.463   8.178  1.1026 -0.0273 -0.1619
46483SOL    HW248418   8.921   9.568   8.283  0.5471 -0.7260  0.6917
46484SOL     OW48419   1.848   1.729   4.314  0.1547  0.6061  0.3376
46484SOL    HW148420   1.922   1.684   4.354  1.4554  1.0810 -1.4169
46484SOL    HW248421   1.807   1.662   4.259 -0.1305  0.5986  0.5593
46485SOL     OW48422   1.377   1.139   7.748 -0.7001  0.1392 -0.5654
46485SOL    HW148423   1.401   1.211   7.806  0.7095 -0.4469 -0.3799
46485SOL    HW248424   1.448   1.136   7.684 -0.9845 -0.7920 -0.8456
46486SOL     OW48425   1.409   0.581  11.576  0.1454  0.7898 -0.1928
46486SOL    HW148426   1.389   0.659  11.628  0.0667  1.6607 -1.4529
46486SOL    HW248427   1.493   0.550  11.610 -0.4332  0.6602  1.1691
46487SOL     OW48428   1.761  11.715   8.502  0.1536  0.1026  0.3903
46487SOL    HW148429   1.732  11.662   8.576  1.2201 -0.6389  0.3002
46487SOL    HW248430   1.774  11.802   8.538  1.9856 -0.5543  1.4317
46488SOL     OW48431  10.827   8.595   5.437 -0.1166  0.0300 -0.3578
46488SOL    HW148432  10.864   8.608   5.349 -1.7436  2.1908 -0.8250
46488SOL    HW248433  10.788   8.508   5.434  0.1275 -0.0521 -1.6953
46489SOL     OW48434   1.423   4.059   0.892 -0.1864 -0.2285  0.4640
46489SOL    HW148435   1.396   4.139   0.846  1.1899  0.3998  0.7159
46489SOL    HW248436   1.518   4.064   0.897 -0.1713 -1.1608  1.8081
46490SOL     OW48437   8.720   9.188   0.629 -0.4407 -0.2453  0.5239
46490SOL    HW148438   8.703   9.194   0.535  0.0953 -0.2600  0.4198
46490SOL    HW248439   8.793   9.126   0.636 -0.7508 -0.5655  0.9841
46491SOL     OW48440   6.064  12.151   8.898 -0.5880 -0.1206  0.4199
46491SOL    HW148441   6.103  12.133   8.813  1.6089  0.8883  1.1519
46491SOL    HW248442   5.969  12.149   8.882 -0.2680 -1.7452 -1.6279
46492SOL     OW48443   7.875   1.307   9.387  0.0612 -0.2755  0.0123
46492SOL    HW148444   7.862   1.240   9.320  0.2550  0.5271 -0.8428
46492SOL    HW248445   7.798   1.363   9.381  1.1530  1.2015 -1.2252
46493SOL     OW48446   9.945   0.367   2.969 -0.3966 -0.4095  0.3339
46493SOL    HW148447   9.987   0.330   3.046  0.1586  1.4725  0.9924
46493SOL    HW248448   9.979   0.316   2.896  0.8712 -0.7165  1.1175
46494SOL     OW48449   2.890   7.879   3.982  0.2286  0.5962  0.2635
46494SOL    HW148450   2.934   7.924   3.910  0.2364 -0.4677 -0.4123
46494SOL    HW248451   2.961   7.854   4.042  0.3770  0.3100 -0.0261
46495SOL     OW48452   6.210   6.619   6.509 -0.0470  0.1330 -0.0546
46495SOL    HW148453   6.238   6.551   6.570  0.3174  0.6890  0.4060
46495SOL    HW248454   6.289   6.639   6.458 -0.1248  0.3018 -0.1072
46496SOL     OW48455   0.562   1.249   7.792  0.0386 -0.2745 -0.2022
46496SOL    HW148456   0.641   1.300   7.772 -0.4343  0.3089 -0.6137
46496SOL    HW248457   0.592   1.158   7.793  0.8569 -0.0139  0.3331
46497SOL     OW48458   6.650   9.862   1.541 -0.2245 -0.4077  0.0915
46497SOL    HW148459   6.576   9.884   1.597 -0.0480 -1.6923  0.8625
46497SOL    HW248460   6.619   9.880   1.452 -0.9182  0.5198  0.5038
46498SOL     OW48461  12.486   5.881   3.206  0.4897  0.2513  1.3016
46498SOL    HW148462  12.460   5.932   3.283  1.0832  0.5830  1.2889
46498SOL    HW248463  12.563   5.831   3.235 -0.0348 -0.5734  1.2880
46499SOL     OW48464  11.219   6.388   6.570  0.6834 -0.1101 -0.6493
46499SOL    HW148465  11.264   6.424   6.646  0.5431 -0.5740 -0.3426
46499SOL    HW248466  11.127   6.382   6.597  0.5063  0.4319 -1.1214
46500SOL     OW48467   4.659   9.881   9.773 -0.7043 -0.5118  0.3903
46500SOL    HW148468   4.578   9.896   9.822 -0.7297 -0.2708  0.2783
46500SOL    HW248469   4.716   9.834   9.834 -0.6433  0.0034  0.7390
46501SOL     OW48470   4.386   5.197  10.785 -0.5065 -0.4051  0.1301
46501SOL    HW148471   4.364   5.257  10.714 -1.6459 -0.1029  0.7144
46501SOL    HW248472   4.413   5.254  10.857  0.3411 -0.6975  0.0621
46502SOL     OW48473   1.393   2.073   9.512  0.4376 -0.1972 -0.2935
46502SOL    HW148474   1.390   2.154   9.462  0.2655  1.0364  1.5987
46502SOL    HW248475   1.368   2.004   9.450  0.1256  1.2475 -1.8202
46503SOL     OW48476   5.717   9.462   8.790  0.2864 -0.0475 -0.2222
46503SOL    HW148477   5.651   9.474   8.858  0.2638  0.1431 -0.2761
46503SOL    HW248478   5.683   9.511   8.715 -0.4075 -1.4579 -0.8618
46504SOL     OW48479   1.630   9.790   9.184  0.2084  0.1927 -0.6397
46504SOL    HW148480   1.585   9.871   9.206 -1.5379 -1.1741  1.1340
46504SOL    HW248481   1.723   9.815   9.181 -0.1797  2.0440  0.8617
46505SOL     OW48482  12.414   8.901   1.344  0.2198  0.1365 -0.1876
46505SOL    HW148483  12.319   8.904   1.354  0.0659 -0.6758 -1.2186
46505SOL    HW248484  12.448   8.943   1.423 -1.0172  2.3900 -0.7964
46506SOL     OW48485   3.898   0.975   0.372 -0.1830  0.0876  0.3287
46506SOL    HW148486   3.814   1.005   0.407 -1.2171 -1.1472 -0.9853
46506SOL    HW248487   3.949   1.055   0.360 -0.5820  0.7258  2.5503
46507SOL     OW48488  12.040   4.746   0.186 -0.0977  0.2229  0.0188
46507SOL    HW148489  11.990   4.707   0.257  1.0718  0.3653  0.9511
46507SOL    HW248490  11.980   4.809   0.146 -1.1461 -0.6745  0.1391
46508SOL     OW48491   5.974   8.640   7.725  0.6188 -0.1160 -0.2009
46508SOL    HW148492   6.050   8.667   7.776 -0.8229 -1.2733  2.7876
46508SOL    HW248493   5.988   8.547   7.709 -0.2591 -0.3872  0.5748
46509SOL     OW48494   1.666   4.434   1.679 -0.5394 -0.0141  0.0156
46509SOL    HW148495   1.669   4.435   1.583  0.8687 -1.0794  0.0190
46509SOL    HW248496   1.735   4.495   1.706 -0.0949 -0.6485  0.3347
46510SOL     OW48497   6.143   1.222   6.249  0.0709  0.0813  0.0538
46510SOL    HW148498   6.214   1.163   6.275 -0.6363 -0.4164  0.9269
46510SOL    HW248499   6.174   1.309   6.274 -0.4829 -0.3420  2.5420
46511SOL     OW48500  12.101   9.088   8.833 -0.4144 -0.1225 -0.4745
46511SOL    HW148501  12.146   9.103   8.917 -0.3614  0.1387 -0.5492
46511SOL    HW248502  12.144   9.011   8.797 -0.2544 -0.0767 -0.3842
46512SOL     OW48503   0.285   6.731   4.291 -0.2880 -0.2515  0.0992
46512SOL    HW148504   0.226   6.701   4.221 -0.4201  0.8646 -0.2981
46512SOL    HW248505   0.340   6.797   4.248 -0.3190  0.3937  1.0289
46513SOL     OW48506   7.022   9.458   6.650  0.5713 -0.1848  0.2942
46513SOL    HW148507   6.994   9.426   6.736 -1.6034 -1.1701 -0.6977
46513SOL    HW248508   7.099   9.406   6.629  1.4840  0.4631  1.8523
46514SOL     OW48509   0.293   4.910   4.372  0.0777  0.5233 -0.4393
46514SOL    HW148510   0.311   4.842   4.308 -1.6670  0.7170 -1.1814
46514SOL    HW248511   0.344   4.986   4.342  2.7731 -0.6118  0.8978
46515SOL     OW48512   5.124   1.676  11.764 -0.1781  0.1418 -0.1252
46515SOL    HW148513   5.151   1.680  11.856 -0.7331 -0.1111  0.0549
46515SOL    HW248514   5.203   1.696  11.715  0.3843 -0.7213  0.3876
46516SOL     OW48515   1.831   8.577  11.435  0.3977  0.4027 -0.3105
46516SOL    HW148516   1.758   8.516  11.446  1.0164 -0.0381  2.0087
46516SOL    HW248517   1.818   8.642  11.505  2.4913 -0.0177  0.5519
46517SOL     OW48518   2.266   9.908   9.121 -0.3409 -0.0589 -0.2766
46517SOL    HW148519   2.191   9.883   9.068 -0.2988  0.3662 -0.5446
46517SOL    HW248520   2.248   9.873   9.208 -0.9441  0.2110 -0.2902
46518SOL     OW48521   1.840   9.393  11.371  0.4467  0.4044 -0.2878
46518SOL    HW148522   1.772   9.442  11.415  1.3985  1.9812 -0.5104
46518SOL    HW248523   1.818   9.397  11.278 -0.3580 -1.0458 -0.1990
46519SOL     OW48524  11.780  12.525   4.812 -0.1727 -0.6089  0.2014
46519SOL    HW148525  11.755  12.509   4.721 -0.2727 -2.1828  0.4842
46519SOL    HW248526  11.867  12.486   4.820 -0.4387 -1.0570  0.9453
46520SOL     OW48527   2.442   6.939   6.211  0.2141  0.0482 -0.0226
46520SOL    HW148528   2.449   6.927   6.306  1.4678 -1.1173 -0.2282
46520SOL    HW248529   2.490   7.020   6.194  1.4422 -0.6125  0.1761
46521SOL     OW48530   4.995   6.921  11.724  0.2345 -0.7520 -0.1405
46521SOL    HW148531   5.037   6.836  11.732  0.9681 -0.3607  0.2199
46521SOL    HW248532   5.066   6.985  11.735 -0.5038 -0.0773  0.8984
46522SOL     OW48533   1.023   6.675   0.974  0.5186 -0.5080 -0.0484
46522SOL    HW148534   0.938   6.632   0.981  0.8162 -1.1488 -0.3059
46522SOL    HW248535   1.035   6.718   1.059 -0.5371  0.5160 -0.3814
46523SOL     OW48536   1.563   3.997   3.911 -0.5183 -0.4170 -0.2279
46523SOL    HW148537   1.536   3.926   3.968 -0.6557 -0.1960 -0.0137
46523SOL    HW248538   1.552   3.962   3.822 -1.1493 -0.4645 -0.1387
46524SOL     OW48539   3.153   2.741   3.452  0.3825  0.0177 -0.5579
46524SOL    HW148540   3.222   2.675   3.448 -0.5620 -1.0443 -0.0419
46524SOL    HW248541   3.134   2.761   3.360 -0.0016 -1.1933 -0.7598
46525SOL     OW48542  11.262   9.785   8.907 -0.1734  0.3647  0.5972
46525SOL    HW148543  11.246   9.695   8.880 -0.2380  0.4833  0.2362
46525SOL    HW248544  11.193   9.803   8.971 -1.0971  0.6491 -0.4481
46526SOL     OW48545   8.981   0.403   2.835  0.0939 -0.2084 -0.0176
46526SOL    HW148546   8.967   0.376   2.745 -1.5096 -0.3621  0.2451
46526SOL    HW248547   9.027   0.487   2.829 -0.8517  0.2471 -1.0021
46527SOL     OW48548  12.512   8.921   6.781 -0.3814  0.5839 -0.3486
46527SOL    HW148549  12.548   8.850   6.833 -0.3637 -0.7757 -2.1004
46527SOL    HW248550  12.483   8.878   6.700  0.5986  2.6956 -1.9247
46528SOL     OW48551   4.535   5.100   4.288  0.7204  0.0699 -0.6795
46528SOL    HW148552   4.610   5.041   4.294  0.9912  0.4072 -0.7151
46528SOL    HW248553   4.573   5.188   4.283  0.3284  0.4918  1.8801
46529SOL     OW48554   2.742   7.265   4.027 -0.1672 -0.6627 -0.2559
46529SOL    HW148555   2.751   7.215   3.946  0.8398 -1.5148  0.3574
46529SOL    HW248556   2.832   7.286   4.052 -0.4323 -0.8025  0.8765
46530SOL     OW48557  12.245   9.793   9.315 -0.4321 -0.5772 -0.3797
46530SOL    HW148558  12.289   9.802   9.231  0.8681  0.8285  0.3980
46530SOL    HW248559  12.287   9.718   9.356 -0.2329 -0.5372 -0.5080
46531SOL     OW48560  12.016   9.440  10.876  0.5948 -0.1370 -0.2684
46531SOL    HW148561  11.985   9.450  10.966 -0.8832  1.5196 -0.9057
46531SOL    HW248562  11.993   9.350  10.853  0.9231 -0.5580  0.9760
46532SOL     OW48563   5.405   4.345   3.569 -0.2503  0.1720  0.5607
46532SOL    HW148564   5.390   4.356   3.475  2.2475  0.1881  0.0836
46532SOL    HW248565   5.394   4.251   3.584 -0.4510  0.1367  0.2002
46533SOL     OW48566   8.788   8.518  10.497  0.3578 -0.4561  0.4778
46533SOL    HW148567   8.710   8.572  10.485 -0.5045 -1.6966  0.3983
46533SOL    HW248568   8.845   8.542  10.424 -1.5643 -2.2477 -1.7541
46534SOL     OW48569   7.992   7.286   3.375 -0.2270 -0.5425  0.4436
46534SOL    HW148570   7.965   7.373   3.406 -1.1879 -0.5933 -0.1895
46534SOL    HW248571   7.964   7.285   3.283  2.8940 -0.2107 -0.6354
46535SOL     OW48572   9.033  12.016  10.999 -0.1878 -0.3226  0.1513
46535SOL    HW148573   9.036  12.049  10.910  0.2843  0.6733  0.5126
46535SOL    HW248574   8.940  12.015  11.022 -0.3788 -1.3778 -0.6196
46536SOL     OW48575   1.148   4.388   5.180  0.7085  0.3492 -0.0796
46536SOL    HW148576   1.069   4.439   5.198 -1.3120 -1.4956 -2.9494
46536SOL    HW248577   1.148   4.319   5.247 -0.6955 -0.1631 -0.5730
46537SOL     OW48578   4.233   0.272   4.395 -0.0317  0.0599 -0.3788
46537SOL    HW148579   4.160   0.317   4.437  0.5980  2.2308 -1.4885
46537SOL    HW248580   4.262   0.208   4.460 -0.5843  1.6520  1.5448
46538SOL     OW48581   8.633   6.317   7.950  0.0022 -0.2035 -0.3895
46538SOL    HW148582   8.713   6.359   7.918  0.2826  0.4385  1.0589
46538SOL    HW248583   8.597   6.379   8.014 -1.0740 -0.9625 -0.2261
46539SOL     OW48584   2.085   2.920   3.670 -0.2991  0.2038  0.2080
46539SOL    HW148585   2.107   3.002   3.714 -0.5626 -0.8795  2.5460
46539SOL    HW248586   2.161   2.901   3.615 -1.3945  3.3541 -2.6969
46540SOL     OW48587   3.935   7.475   9.948  0.0975 -0.0006 -0.9495
46540SOL    HW148588   3.941   7.381   9.930 -0.3727 -0.7247  2.1727
46540SOL    HW248589   3.841   7.494   9.943  0.0554 -0.0154 -0.3218
46541SOL     OW48590   5.372   4.237   5.604  0.6995 -0.1582  0.2535
46541SOL    HW148591   5.370   4.176   5.530  0.9852  0.0530  0.0707
46541SOL    HW248592   5.463   4.235   5.634  0.5308 -0.4336  0.7594
46542SOL     OW48593  10.119   1.406   9.756  0.1633 -0.0229  0.1477
46542SOL    HW148594  10.062   1.470   9.715 -1.3903 -0.9907  0.7152
46542SOL    HW248595  10.176   1.376   9.685  0.3670  1.3515 -0.2999
46543SOL     OW48596  11.841   6.196   3.019 -0.1037  0.2796  0.0051
46543SOL    HW148597  11.934   6.187   2.999 -0.4312 -0.8901 -1.1202
46543SOL    HW248598  11.839   6.225   3.110  1.3901  1.9951 -0.4370
46544SOL     OW48599  12.419   0.370   7.425 -0.3800  0.0247  0.1674
46544SOL    HW148600  12.413   0.438   7.492  0.4526  0.4405 -0.1547
46544SOL    HW248601  12.366   0.298   7.459 -0.7180  0.5719  0.8377
46545SOL     OW48602   6.641   6.582   6.992  0.3153 -0.2860 -0.1228
46545SOL    HW148603   6.647   6.486   6.986  0.2105 -0.3442  0.6221
46545SOL    HW248604   6.710   6.607   7.053  1.6651  0.3183 -1.8135
46546SOL     OW48605   1.379   7.005  11.748  0.6658 -0.0177  1.0564
46546SOL    HW148606   1.468   7.024  11.777 -0.1004  1.5261  2.5766
46546SOL    HW248607   1.354   6.927  11.796  1.8176 -1.6661 -0.8579
46547SOL     OW48608   6.797  12.526   9.474 -0.6477 -0.1660 -0.6618
46547SOL    HW148609   6.871  12.466   9.460 -0.1650  0.3704 -0.4485
46547SOL    HW248610   6.765  12.547   9.387  0.6086  1.0197 -0.8642
46548SOL     OW48611  11.060   6.145   2.674 -0.6006  0.6050  0.2463
46548SOL    HW148612  11.027   6.234   2.672 -0.9346  0.4705 -1.0934
46548SOL    HW248613  11.149   6.151   2.638 -0.9494  0.2875 -0.7004
46549SOL     OW48614   4.224   4.419  12.577 -0.1205  0.1395  0.7276
46549SOL    HW148615   4.247   4.326  12.574  0.2148  0.2339  0.3038
46549SOL    HW248616   4.143   4.425  12.527 -1.3594 -0.2617  2.5834
46550SOL     OW48617   6.588  10.478   5.024  0.3771  0.1011  0.2146
46550SOL    HW148618   6.676  10.516   5.024 -0.3378  1.8998  1.5870
46550SOL    HW248619   6.550  10.504   4.941  1.8282 -2.6215 -1.4496
46551SOL     OW48620   0.469  11.366  11.041  0.9965  0.1783 -0.4092
46551SOL    HW148621   0.485  11.460  11.037 -0.3803  0.4443 -0.1701
46551SOL    HW248622   0.380  11.356  11.007  1.5695 -1.1853 -1.5982
46552SOL     OW48623   4.050   8.225   4.122  0.0957  0.4376  0.1251
46552SOL    HW148624   4.042   8.288   4.050 -2.0778 -1.5165 -1.4575
46552SOL    HW248625   4.076   8.143   4.080 -0.8488 -0.6781  1.6172
46553SOL     OW48626   0.602  10.130  12.214 -0.2513  0.0778 -0.1758
46553SOL    HW148627   0.593  10.055  12.155  0.2151 -0.8316  0.8752
46553SOL    HW248628   0.528  10.122  12.274 -0.4661  0.7389 -0.3407
46554SOL     OW48629   4.976   8.428   8.496 -0.0141  0.8889  0.1152
46554SOL    HW148630   4.908   8.415   8.563 -0.0985  2.1296  0.3019
46554SOL    HW248631   4.939   8.390   8.417  0.2098 -0.8943  0.8172
46555SOL     OW48632   3.990   9.172   6.239 -0.1372 -0.6168 -0.2488
46555SOL    HW148633   3.936   9.229   6.294  0.1558 -0.2283 -0.3597
46555SOL    HW248634   3.966   9.083   6.266  1.2782 -0.4551  1.7637
46556SOL     OW48635   0.490   8.428   0.147 -0.5731 -0.0852 -0.7324
46556SOL    HW148636   0.434   8.413   0.223  0.2215 -1.6577 -0.4077
46556SOL    HW248637   0.459   8.366   0.081 -0.5175  0.4679 -1.2898
46557SOL     OW48638   1.051   6.317   2.888  0.4448 -0.0151  0.7025
46557SOL    HW148639   0.986   6.247   2.894 -1.4258  1.1777 -2.9543
46557SOL    HW248640   1.118   6.282   2.829  0.1904  0.7363 -0.0526
46558SOL     OW48641   5.334  11.666   1.254  0.4366 -0.1569 -0.0338
46558SOL    HW148642   5.321  11.573   1.270 -0.0257  0.0985  1.2792
46558SOL    HW248643   5.282  11.685   1.176 -2.1709 -0.3980  1.5359
46559SOL     OW48644   0.441   5.953   1.840  0.1444  0.1688 -0.1316
46559SOL    HW148645   0.393   6.031   1.813  0.5888  0.1900 -0.8688
46559SOL    HW248646   0.508   5.941   1.773  1.3284  0.2606  0.9871
46560SOL     OW48647   8.446   8.242  10.829  0.2710 -0.4475 -0.1538
46560SOL    HW148648   8.372   8.253  10.768 -0.3125 -1.0325  0.4301
46560SOL    HW248649   8.445   8.322  10.881  1.5987  0.6652 -1.7466
46561SOL     OW48650   2.680  11.838  11.668  0.3253 -0.0135 -0.2721
46561SOL    HW148651   2.675  11.917  11.613  2.2740  1.4110  1.4205
46561SOL    HW248652   2.597  11.838  11.715  0.9167  2.0720  0.9222
46562SOL     OW48653  12.358   5.931   8.210 -0.2789 -0.1750 -0.4103
46562SOL    HW148654  12.420   5.883   8.154 -1.2192 -1.7827 -0.1457
46562SOL    HW248655  12.273   5.890   8.191 -0.8543  0.2739  1.0755
46563SOL     OW48656  11.035   0.169   8.582 -0.7766  0.0999  0.3522
46563SOL    HW148657  11.079   0.093   8.620 -1.2421  1.1300  3.1936
46563SOL    HW248658  10.942   0.151   8.596 -0.8813  1.2702  1.3459
46564SOL     OW48659  10.472   2.610   8.682 -0.5294 -0.4124  0.1092
46564SOL    HW148660  10.379   2.594   8.693 -0.0820 -2.7162  1.0969
46564SOL    HW248661  10.477   2.687   8.626 -3.0268  1.4388  2.1753
46565SOL     OW48662  12.388   6.255  12.546 -0.6773 -0.0129 -0.3151
46565SOL    HW148663  12.460   6.226  12.490 -0.5722 -0.6297  0.1302
46565SOL    HW248664  12.428   6.319  12.605 -0.0883 -1.5366  1.0152
46566SOL     OW48665  12.463   8.705   5.786 -0.0897 -0.2507  0.1731
46566SOL    HW148666  12.412   8.784   5.766 -0.0222  0.2300  1.7371
46566SOL    HW248667  12.484   8.668   5.701 -1.9920  0.2181 -0.5626
46567SOL     OW48668   3.609   2.731   5.598 -0.1219  0.1625  0.0454
46567SOL    HW148669   3.559   2.713   5.677 -1.2544 -2.7617 -1.2125
46567SOL    HW248670   3.697   2.699   5.617  0.0201  0.8395  0.5850
46568SOL     OW48671   4.218   4.301   4.402  0.3929 -0.2595  0.3584
46568SOL    HW148672   4.277   4.358   4.450  0.0407  0.0374  0.4401
46568SOL    HW248673   4.241   4.314   4.310  2.7491 -2.6229  0.4689
46569SOL     OW48674   1.161  12.489   2.134 -0.3625 -0.6718  0.0399
46569SOL    HW148675   1.112  12.456   2.058 -1.1239  0.3137  0.0800
46569SOL    HW248676   1.251  12.462   2.118 -0.4216 -0.0747 -1.4601
46570SOL     OW48677   7.141   1.181   7.209  0.1489  0.3526 -0.0693
46570SOL    HW148678   7.088   1.101   7.208 -0.4719  0.7558 -1.2210
46570SOL    HW248679   7.191   1.175   7.290 -1.2653 -0.3123  0.8096
46571SOL     OW48680   3.173   7.799   8.518 -0.7967 -0.2768 -0.9052
46571SOL    HW148681   3.233   7.741   8.470  0.6846 -0.9698  1.6439
46571SOL    HW248682   3.229   7.864   8.559 -1.4317 -1.8550  2.8495
46572SOL     OW48683   9.169   3.075   0.003 -0.5384 -0.0545 -0.4205
46572SOL    HW148684   9.132   3.110  -0.078  1.5562 -2.1089 -2.4327
46572SOL    HW248685   9.108   3.006   0.029 -1.0631  0.4107 -0.4035
46573SOL     OW48686   4.038   9.093   0.457 -0.3617 -0.1014 -0.2175
46573SOL    HW148687   3.994   9.019   0.499  0.4811 -0.3336  0.2750
46573SOL    HW248688   4.016   9.084   0.364  0.3019 -1.3782 -0.2701
46574SOL     OW48689   7.458   8.751   6.418 -0.2096  0.6187  0.3841
46574SOL    HW148690   7.541   8.719   6.454 -0.9953 -1.0436  0.8206
46574SOL    HW248691   7.464   8.734   6.324 -0.3081 -0.1289  0.5092
46575SOL     OW48692   0.437  10.857   3.277 -0.0274  0.1600  0.5616
46575SOL    HW148693   0.360  10.806   3.253 -1.0946  2.0768 -0.3224
46575SOL    HW248694   0.410  10.906   3.355  0.2523  0.9445  0.1736
46576SOL     OW48695   1.498   3.267   7.982 -0.2944 -0.2404 -0.1007
46576SOL    HW148696   1.447   3.193   7.949 -1.0021 -0.7691  2.0181
46576SOL    HW248697   1.557   3.229   8.048  1.2883  0.7013 -0.9139
46577SOL     OW48698   6.822   0.041   1.762 -0.2719 -0.0923 -0.3984
46577SOL    HW148699   6.872   0.018   1.684  2.4109  1.4727  0.7125
46577SOL    HW248700   6.752   0.098   1.729  2.1468  2.4642 -1.6172
46578SOL     OW48701  11.563   7.191  12.529 -0.4467  0.0884 -0.7468
46578SOL    HW148702  11.475   7.173  12.563 -0.1048 -2.5935 -1.0746
46578SOL    HW248703  11.579   7.122  12.466  2.2802 -0.0744  0.0162
46579SOL     OW48704   4.442  10.263   7.365 -0.1160  0.2001  0.0285
46579SOL    HW148705   4.506  10.238   7.431  1.6758  0.7141 -1.3992
46579SOL    HW248706   4.450  10.197   7.297  0.4872  1.4120 -1.1351
46580SOL     OW48707   4.012   9.591   6.410 -0.0132 -0.5039 -0.2067
46580SOL    HW148708   3.928   9.623   6.377 -0.5598 -1.5979  0.0709
46580SOL    HW248709   4.077   9.628   6.351 -0.7283  0.0017 -0.6904
46581SOL     OW48710   6.856   6.540   8.856 -0.1687 -0.0671  0.4990
46581SOL    HW148711   6.866   6.445   8.852  0.3803  0.0253 -0.8286
46581SOL    HW248712   6.822   6.557   8.943  0.0466 -1.4584  0.8753
46582SOL     OW48713   0.017   9.292   2.616  0.4357 -0.8602  0.7464
46582SOL    HW148714  -0.045   9.348   2.568  1.9920  0.4597  0.1631
46582SOL    HW248715   0.007   9.206   2.576 -1.2063 -0.7589  0.8626
46583SOL     OW48716   6.799  12.321   3.057  0.6241 -0.1124  0.0062
46583SOL    HW148717   6.743  12.367   2.994  1.5178  0.8741 -0.1066
46583SOL    HW248718   6.830  12.390   3.116 -0.2580 -1.0258  1.6197
46584SOL     OW48719   6.005  10.924  10.107  0.1780 -0.1514 -0.1348
46584SOL    HW148720   6.047  10.840  10.090 -0.0889 -0.4272  0.5345
46584SOL    HW248721   5.994  10.927  10.202 -2.3079 -0.5888 -0.3429
46585SOL     OW48722   3.663   1.006   8.087 -0.0223  1.1478 -0.8039
46585SOL    HW148723   3.646   0.920   8.051  0.9737  0.4001  0.4289
46585SOL    HW248724   3.577   1.045   8.099 -0.6532 -0.5704  0.7095
46586SOL     OW48725   7.593  11.616  11.136 -0.1406 -0.3662  0.2418
46586SOL    HW148726   7.546  11.591  11.215 -1.6594  1.4789  0.0018
46586SOL    HW248727   7.536  11.589  11.064  0.0117  0.2696 -0.1235
46587SOL     OW48728   2.018   2.070   2.908 -0.4027  0.4741  0.7338
46587SOL    HW148729   1.986   2.115   2.830 -1.3521 -1.1303  0.1280
46587SOL    HW248730   1.944   2.015   2.935  0.6668 -0.6680  1.4391
46588SOL     OW48731  11.140  12.091  12.436 -0.1981  0.1532  0.2570
46588SOL    HW148732  11.208  12.131  12.382 -2.0588  4.5388  0.7639
46588SOL    HW248733  11.153  12.129  12.523 -2.5583  0.2472  0.6280
46589SOL     OW48734   9.121   9.816   5.372  0.3059 -0.2557  0.2237
46589SOL    HW148735   9.076   9.834   5.455  1.7046 -1.5068  1.3225
46589SOL    HW248736   9.073   9.741   5.336  1.4604 -1.6399  1.4319
46590SOL     OW48737   7.694  10.064   3.997  0.3001  0.3827 -0.3637
46590SOL    HW148738   7.746  10.024   3.928  1.0687 -1.2372  1.0667
46590SOL    HW248739   7.603  10.044   3.973  0.6287 -1.7409 -0.0657
46591SOL     OW48740  10.518   3.980  12.335  0.0419  0.7897 -0.2708
46591SOL    HW148741  10.454   4.051  12.343  0.9803  1.4805  4.5420
46591SOL    HW248742  10.575   4.007  12.264 -2.8531  1.8645 -2.4039
46592SOL     OW48743  10.152   7.616   9.272  0.2544  0.3176 -0.4253
46592SOL    HW148744  10.168   7.674   9.347  0.0463  0.3456 -0.4003
46592SOL    HW248745  10.181   7.530   9.301  0.2248  0.3392 -0.3324
46593SOL     OW48746  10.848   6.094   4.146  0.2163 -0.2222  0.0635
46593SOL    HW148747  10.857   6.136   4.232  2.2120  0.9619 -0.6607
46593SOL    HW248748  10.800   6.157   4.093  0.2639 -0.3305 -0.1070
46594SOL     OW48749  11.527   4.982   6.509  0.6036 -0.3563  0.1339
46594SOL    HW148750  11.622   4.984   6.518  0.6804  1.0030 -0.7501
46594SOL    HW248751  11.510   5.012   6.420 -0.6734 -0.1844  0.4110
46595SOL     OW48752  11.147   7.101   5.028  0.3943 -0.5599 -0.3742
46595SOL    HW148753  11.222   7.057   5.068 -0.4645 -1.2516  0.5313
46595SOL    HW248754  11.164   7.194   5.041  0.6416 -0.7398  0.6635
46596SOL     OW48755   6.523   2.131   3.743  0.1641  0.3932 -0.2567
46596SOL    HW148756   6.548   2.178   3.822 -0.3278 -0.9683  0.7522
46596SOL    HW248757   6.436   2.165   3.721  0.4112  0.9592 -0.3720
46597SOL     OW48758   4.019   1.208   6.432  0.2473  0.5017 -0.3790
46597SOL    HW148759   3.943   1.201   6.374  0.7396 -0.0655 -0.9727
46597SOL    HW248760   4.093   1.219   6.373  0.8556 -0.8795  0.0909
46598SOL     OW48761   9.485   9.980   0.158  0.2476 -0.1864 -0.0771
46598SOL    HW148762   9.449   9.899   0.195  1.1164 -0.5668 -0.0518
46598SOL    HW248763   9.478  10.044   0.229  0.7220 -0.5741  0.3245
46599SOL     OW48764   9.918  12.511   8.379 -0.1739 -0.1738  0.3043
46599SOL    HW148765   9.896  12.485   8.468 -0.0191 -2.2823 -0.2033
46599SOL    HW248766   9.885  12.439   8.324  1.3319  0.1622 -1.1523
46600SOL     OW48767  12.406   1.802  11.372 -0.4556  0.1505  0.0399
46600SOL    HW148768  12.452   1.720  11.355 -0.3167  0.1656  0.3209
46600SOL    HW248769  12.400   1.845  11.287  1.2901  0.7856  0.1886
46601SOL     OW48770   0.055   7.150  10.214 -0.2596 -0.4345 -0.1782
46601SOL    HW148771  -0.003   7.116  10.145 -1.6497  0.9771  0.2270
46601SOL    HW248772   0.006   7.135  10.295  0.2414  0.1848  0.2438
46602SOL     OW48773   1.207   5.176   1.899 -0.2880  0.1570 -0.0935
46602SOL    HW148774   1.201   5.216   1.986  0.8285  1.4246 -0.5654
46602SOL    HW248775   1.199   5.250   1.838  1.4467 -0.3718 -1.0071
46603SOL     OW48776   7.276   7.642   8.652 -0.2242  0.1376 -0.6323
46603SOL    HW148777   7.285   7.691   8.570  0.6004  0.8411 -0.1331
46603SOL    HW248778   7.188   7.663   8.683 -0.3126  0.3586 -1.0226
46604SOL     OW48779   1.597   6.806   0.392  0.6047 -0.6190  0.4168
46604SOL    HW148780   1.576   6.858   0.469 -1.9087  0.8535 -1.1289
46604SOL    HW248781   1.518   6.756   0.374  0.1193  0.9809 -2.5796
46605SOL     OW48782   4.068   8.462  11.447  0.0056 -0.7425  0.3136
46605SOL    HW148783   4.150   8.433  11.488 -0.2135 -0.5671  0.8741
46605SOL    HW248784   4.081   8.442  11.354  1.1582  0.3183  0.2087
46606SOL     OW48785   0.609   1.708   1.270  0.2029 -0.3733  0.6704
46606SOL    HW148786   0.526   1.716   1.316  0.0383  0.2662  0.2596
46606SOL    HW248787   0.675   1.736   1.334 -0.1265  1.7545  0.1470
46607SOL     OW48788   1.896  11.219   4.595 -0.0021  0.1502  0.0787
46607SOL    HW148789   1.893  11.171   4.512 -1.2711  0.1730  0.0955
46607SOL    HW248790   1.873  11.309   4.572  0.1326  0.2658  0.3923
46608SOL     OW48791  11.657   0.861   5.634 -0.0694 -0.5842  0.2023
46608SOL    HW148792  11.660   0.785   5.576  2.4276  0.2716 -0.9211
46608SOL    HW248793  11.620   0.931   5.580 -0.1742 -0.4148  0.4909
46609SOL     OW48794   8.205   6.833   5.752 -0.0350 -0.0641  0.1085
46609SOL    HW148795   8.177   6.744   5.774 -0.4154 -0.2100 -0.9086
46609SOL    HW248796   8.219   6.831   5.658  1.7477  0.4896  0.3337
46610SOL     OW48797   1.935   8.188   1.365  0.2855  0.6942  0.5541
46610SOL    HW148798   2.020   8.233   1.368 -0.9698  3.2414  0.7113
46610SOL    HW248799   1.902   8.194   1.454 -0.3641  0.3428  0.3417
46611SOL     OW48800   7.211  10.070   4.438  0.1366 -0.5090  0.3663
46611SOL    HW148801   7.116  10.057   4.430 -0.3318  1.4199  1.9686
46611SOL    HW248802   7.220  10.132   4.510  2.7139 -1.7702  1.2543
46612SOL     OW48803   3.623   1.065   0.425  0.4680 -0.1633  0.4300
46612SOL    HW148804   3.552   1.072   0.361  0.4643  1.9956  0.5994
46612SOL    HW248805   3.580   1.078   0.510  0.8331 -0.6409  0.6974
46613SOL     OW48806   5.316   4.157   2.910  0.0438 -0.4519 -0.3589
46613SOL    HW148807   5.359   4.159   2.995  1.5361  1.9186 -1.0748
46613SOL    HW248808   5.238   4.211   2.922  1.4369  1.8227 -0.9787
46614SOL     OW48809   6.818  10.316   4.119  0.6152 -0.1660  0.2261
46614SOL    HW148810   6.809  10.229   4.081 -2.5193  0.1817 -0.0824
46614SOL    HW248811   6.746  10.323   4.181 -0.9185  3.0463 -1.6427
46615SOL     OW48812   0.952   1.431   1.904  0.2698 -0.4079 -0.5847
46615SOL    HW148813   1.011   1.497   1.869  2.1092 -1.2343  0.8320
46615SOL    HW248814   0.895   1.479   1.964 -0.2446  0.3008 -1.5952
46616SOL     OW48815   3.388   5.959   1.335 -0.1649  0.0336 -0.1617
46616SOL    HW148816   3.438   6.040   1.323  0.7770 -0.6044 -0.6799
46616SOL    HW248817   3.379   5.950   1.430  1.7613 -0.4412  0.0186
46617SOL     OW48818  12.083   1.976   7.998 -0.0945  0.0675 -0.3024
46617SOL    HW148819  12.093   1.942   7.909  0.0848 -2.5665  0.6478
46617SOL    HW248820  12.013   2.040   7.991 -0.9888 -1.0331 -2.1276
46618SOL     OW48821  12.554   8.979   0.641 -0.1101  0.4593 -0.3979
46618SOL    HW148822  12.473   9.018   0.674  0.8735  0.6284  1.9784
46618SOL    HW248823  12.534   8.886   0.630 -0.5910  0.4689  0.3305
46619SOL     OW48824   9.261   7.584   8.884 -0.1336  0.1408  0.0898
46619SOL    HW148825   9.276   7.567   8.791 -1.8320  0.0336 -0.1878
46619SOL    HW248826   9.328   7.533   8.929  1.1285  0.7082 -1.0750
46620SOL     OW48827   6.877   7.815   1.363  0.1822  0.0146  0.3379
46620SOL    HW148828   6.862   7.901   1.324 -2.7873 -0.8535 -0.6515
46620SOL    HW248829   6.899   7.758   1.290 -1.5279 -0.8027  0.4170
46621SOL     OW48830   5.112   6.703   9.259  0.3661 -0.1500 -0.1569
46621SOL    HW148831   5.179   6.745   9.313 -0.4715  0.5102  0.3980
46621SOL    HW248832   5.108   6.613   9.292  1.4021 -0.3771 -0.6150
46622SOL     OW48833  10.060   4.044   0.655  0.4353  0.1050  0.0689
46622SOL    HW148834  10.061   3.949   0.645  1.2135  0.0695  0.3494
46622SOL    HW248835   9.984   4.062   0.709  0.0181 -0.3112 -0.3645
46623SOL     OW48836   1.507   2.289   5.403 -0.1936 -0.1583  0.3779
46623SOL    HW148837   1.507   2.377   5.365  0.5169  0.1139  1.0081
46623SOL    HW248838   1.596   2.256   5.389  0.0922 -0.0411  1.8331
46624SOL     OW48839  10.755   8.795   5.124 -0.0070 -0.4079  0.1719
46624SOL    HW148840  10.752   8.886   5.152  0.0038 -0.5842  0.7648
46624SOL    HW248841  10.847   8.779   5.105  0.1327 -0.5227  0.8846
46625SOL     OW48842   1.312   6.316   1.901 -0.1908 -0.5446 -0.1040
46625SOL    HW148843   1.297   6.351   1.813  0.1735 -1.6624 -0.6264
46625SOL    HW248844   1.407   6.321   1.912 -0.3316  0.7374  0.7327
46626SOL     OW48845   6.958   0.800  12.229 -0.0559 -0.3511  0.1487
46626SOL    HW148846   6.996   0.885  12.208  2.1140 -1.5161 -0.9327
46626SOL    HW248847   6.879   0.821  12.279  0.6932  2.2585  0.3782
46627SOL     OW48848   5.067   8.540   4.532 -0.2976 -0.1103  0.1191
46627SOL    HW148849   5.086   8.541   4.626 -0.8655  1.0392  0.2322
46627SOL    HW248850   5.044   8.449   4.513 -0.3392 -0.3180  1.1274
46628SOL     OW48851   0.250  10.317   6.557  0.8213 -0.0176  0.2830
46628SOL    HW148852   0.249  10.375   6.633  0.9978 -0.3411  0.5371
46628SOL    HW248853   0.330  10.338   6.510  2.3229 -1.8884  1.8339
46629SOL     OW48854   4.500   5.153   2.009  0.0834 -0.0261  0.1856
46629SOL    HW148855   4.417   5.105   2.005 -0.8742  1.5857 -0.7134
46629SOL    HW248856   4.475   5.242   2.033  1.4321  0.7174 -0.9919
46630SOL     OW48857   1.745  11.506   9.239 -0.2735  0.5316  0.3430
46630SOL    HW148858   1.798  11.541   9.168  0.5139 -0.5981  0.3483
46630SOL    HW248859   1.794  11.525   9.319  0.8362 -1.6101  0.2604
46631SOL     OW48860   5.944   3.103   1.661 -0.2425  0.5072 -0.2534
46631SOL    HW148861   5.902   3.119   1.745 -0.3817  1.9058 -0.5586
46631SOL    HW248862   6.017   3.165   1.658 -0.4542  0.7373 -1.3029
46632SOL     OW48863   9.221   2.560   3.027 -0.1251 -0.6232 -0.2826
46632SOL    HW148864   9.237   2.488   2.966  1.1407  0.2197 -1.0078
46632SOL    HW248865   9.234   2.522   3.113 -0.6338 -1.5284 -0.6012
46633SOL     OW48866   5.369  11.031  11.808  0.1386 -0.0833  0.2635
46633SOL    HW148867   5.422  10.985  11.874 -0.7921  2.4671  2.9824
46633SOL    HW248868   5.411  11.117  11.800 -0.4294  0.0530 -1.7483
46634SOL     OW48869  11.413   5.472   0.291  0.0502 -0.6845 -0.0906
46634SOL    HW148870  11.465   5.551   0.277  0.2058 -1.1377 -2.5770
46634SOL    HW248871  11.376   5.452   0.205 -2.2089 -1.8255  1.0426
46635SOL     OW48872   7.475   1.836  11.346  0.0871  0.0905  0.2163
46635SOL    HW148873   7.543   1.780  11.307  1.2638  1.0101  0.8585
46635SOL    HW248874   7.400   1.827  11.288  0.6648 -1.1812 -0.3721
46636SOL     OW48875   2.482   5.918   5.205  0.2537  0.6974  0.2180
46636SOL    HW148876   2.533   5.880   5.276  1.0038  1.9224  0.3713
46636SOL    HW248877   2.453   5.844   5.153  1.0145 -0.1151  0.9243
46637SOL     OW48878  12.275   6.480   8.271  0.0921 -0.1961 -0.0637
46637SOL    HW148879  12.276   6.389   8.240  0.1657 -0.3380  0.3413
46637SOL    HW248880  12.192   6.487   8.319  0.3923 -0.2492  0.4743
46638SOL     OW48881   4.089   1.107   3.606  0.9553 -0.1030  0.4119
46638SOL    HW148882   4.065   1.113   3.699  0.0979  0.2961  0.1761
46638SOL    HW248883   4.006   1.093   3.561  1.2627  0.5279 -0.3679
46639SOL     OW48884   0.015   0.025  12.071 -0.1000 -0.0628 -0.5036
46639SOL    HW148885  -0.070  -0.016  12.062 -1.1841  2.0327 -0.3822
46639SOL    HW248886   0.014   0.097  12.007  2.1176 -0.7868 -1.4591
46640SOL     OW48887   5.022  10.517   8.367 -0.1558 -0.1047  0.5406
46640SOL    HW148888   5.095  10.540   8.424 -0.1002 -0.4380  0.6015
46640SOL    HW248889   4.965  10.594   8.370 -0.0608 -0.0473  0.8945
46641SOL     OW48890   1.741   4.369  12.534 -0.3141  0.2012  0.3383
46641SOL    HW148891   1.752   4.349  12.627  4.2582  1.3210  0.2895
46641SOL    HW248892   1.751   4.285  12.490 -1.6080 -0.1941  0.7489
46642SOL     OW48893   2.153  11.292  11.663  0.3299  0.1139 -1.1441
46642SOL    HW148894   2.130  11.220  11.723 -0.9359  0.6324 -0.9898
46642SOL    HW248895   2.244  11.273  11.638  0.8560 -0.2231  0.8013
46643SOL     OW48896   0.026  10.420   1.234  0.1652 -0.3075  0.3130
46643SOL    HW148897   0.071  10.397   1.315 -0.4226  0.3890  0.8436
46643SOL    HW248898   0.063  10.505   1.209 -1.4511  0.7397  1.2577
46644SOL     OW48899   1.092   5.915  10.457  0.1410  0.2565 -0.2001
46644SOL    HW148900   1.018   5.968  10.430 -1.6603 -1.8062  0.4022
46644SOL    HW248901   1.102   5.850  10.386  1.4442  0.5241 -0.3008
46645SOL     OW48902   8.806   9.920  10.038 -0.9701 -0.7509  0.2335
46645SOL    HW148903   8.725   9.902   9.991  0.1954 -0.3189 -2.0792
46645SOL    HW248904   8.847   9.835  10.048  0.1103 -0.5878 -2.2116
46646SOL     OW48905   9.499   1.002   0.038 -0.8790  0.2594 -0.4434
46646SOL    HW148906   9.501   1.063  -0.036  1.4105  1.2487  0.3124
46646SOL    HW248907   9.526   0.918   0.002  0.1430  0.7174 -0.7937
46647SOL     OW48908  10.689   2.268   7.176  0.6371 -0.1289 -0.6647
46647SOL    HW148909  10.616   2.292   7.118 -0.3766  0.3881  0.7727
46647SOL    HW248910  10.767   2.298   7.130 -0.1341  0.2277 -1.7826
46648SOL     OW48911  12.218  10.347   3.636 -0.6037  0.5041  0.2003
46648SOL    HW148912  12.252  10.260   3.615 -0.4226  0.6233 -0.0065
46648SOL    HW248913  12.296  10.402   3.642 -0.8073  0.9381 -1.0018
46649SOL     OW48914   1.028   6.905   0.819  0.1389 -0.2682 -0.0547
46649SOL    HW148915   1.007   6.817   0.849 -1.6375 -0.2646 -1.1150
46649SOL    HW248916   1.113   6.897   0.776  0.0041 -1.4587 -0.1116
46650SOL     OW48917   9.595   4.401   7.946 -0.4420  0.2762  0.5205
46650SOL    HW148918   9.567   4.418   7.856 -0.2552 -0.2015  0.3719
46650SOL    HW248919   9.592   4.306   7.956 -1.1463  0.3539  1.2471
46651SOL     OW48920   7.333   3.544   3.323  0.1408  0.9538  0.2345
46651SOL    HW148921   7.321   3.617   3.384  0.2020  0.9627  0.2355
46651SOL    HW248922   7.418   3.507   3.345  0.3936  1.2841 -0.1872
46652SOL     OW48923   8.606   3.937   9.394  0.6305 -0.4174  0.2745
46652SOL    HW148924   8.696   3.970   9.391  1.1412 -1.7601  0.0438
46652SOL    HW248925   8.616   3.842   9.401 -0.7803 -0.5006  1.5045
46653SOL     OW48926   8.874   8.096  11.453  0.2488 -0.2280  0.5096
46653SOL    HW148927   8.893   8.005  11.432 -0.1779  0.1357 -1.5988
46653SOL    HW248928   8.959   8.140  11.451  0.1802 -0.1365 -0.8674
46654SOL     OW48929   2.150   3.636   1.115 -0.3594  0.0328 -0.1272
46654SOL    HW148930   2.237   3.665   1.145  0.3153 -2.2233  0.3139
46654SOL    HW248931   2.106   3.607   1.194 -1.8472  1.7845 -0.2516
46655SOL     OW48932   8.871   4.597  10.423  0.0229 -0.5352 -0.1125
46655SOL    HW148933   8.891   4.595  10.329 -0.1605  0.9556 -0.2027
46655SOL    HW248934   8.795   4.654  10.430 -1.0344 -1.9856  0.7915
46656SOL     OW48935  12.183   1.666   8.153 -0.1953  0.2319 -0.1977
46656SOL    HW148936  12.143   1.726   8.216  2.2591  2.1352 -0.3106
46656SOL    HW248937  12.172   1.708   8.068 -0.7491 -0.8150 -0.6722
46657SOL     OW48938   8.015   3.745   8.984  0.5363 -0.1301  0.1120
46657SOL    HW148939   8.082   3.706   8.927 -0.5293 -0.6710 -0.7946
46657SOL    HW248940   7.937   3.691   8.970 -0.3700  1.0717  0.4191
46658SOL     OW48941   4.285   9.290   5.366  0.0787  0.3417 -0.1348
46658SOL    HW148942   4.219   9.236   5.410 -0.6607 -0.5447 -2.1734
46658SOL    HW248943   4.239   9.371   5.345 -0.0129  0.1989 -0.4987
46659SOL     OW48944   8.079  10.797   2.883 -0.0160 -0.0640  0.0104
46659SOL    HW148945   8.049  10.853   2.955  1.8681 -0.7200  1.3885
46659SOL    HW248946   8.126  10.857   2.825 -0.6173  0.2768 -0.1441
46660SOL     OW48947   4.571   8.746   2.695  0.7502 -0.5683  0.0686
46660SOL    HW148948   4.594   8.714   2.608 -1.5994 -1.0162 -0.4460
46660SOL    HW248949   4.554   8.667   2.746  3.3710 -0.3820  1.4022
46661SOL     OW48950   7.235   8.009   0.534  0.0769 -0.4248 -0.5629
46661SOL    HW148951   7.204   8.044   0.617 -0.7562 -1.9285 -0.2082
46661SOL    HW248952   7.308   7.952   0.558  0.7077  0.1779 -1.0148
46662SOL     OW48953   4.333   5.392   8.647 -0.1260 -0.2276  0.3168
46662SOL    HW148954   4.338   5.376   8.741 -0.2376 -0.2418  0.3202
46662SOL    HW248955   4.326   5.305   8.608  0.0027 -0.2259  0.2909
46663SOL     OW48956   4.358   8.065  10.768 -0.1982 -0.3829  0.0066
46663SOL    HW148957   4.265   8.071  10.789 -0.0449  0.2900  0.5509
46663SOL    HW248958   4.393   8.153  10.787  0.6118 -0.7173  0.1315
46664SOL     OW48959   3.124  10.398   9.139  0.5593 -0.0802 -0.3772
46664SOL    HW148960   3.079  10.406   9.055  1.0625 -2.3304 -0.9288
46664SOL    HW248961   3.055  10.384   9.203  0.1997  1.2814 -0.4359
46665SOL     OW48962   0.515   1.975   3.234 -0.1501  0.2369  0.0730
46665SOL    HW148963   0.610   1.969   3.242 -0.3505 -0.4044  2.9074
46665SOL    HW248964   0.492   1.906   3.172  1.0046 -1.6032  1.6171
46666SOL     OW48965   2.910   8.626  10.812 -0.4696  0.3751  0.1541
46666SOL    HW148966   2.876   8.686  10.878 -0.2768  0.9474 -0.2563
46666SOL    HW248967   2.864   8.544  10.828  1.6132 -0.4126  2.8088
46667SOL     OW48968   1.154   9.734   7.353 -0.0223 -0.4009  0.3094
46667SOL    HW148969   1.149   9.764   7.444  0.0325 -1.2219  0.5918
46667SOL    HW248970   1.123   9.644   7.356  2.1510 -1.2397 -0.0738
46668SOL     OW48971   6.378   0.831   6.673  0.3386 -0.1835 -0.0441
46668SOL    HW148972   6.295   0.825   6.719  1.3941 -2.3454  1.8256
46668SOL    HW248973   6.358   0.807   6.583 -0.9859 -1.1477  0.4838
46669SOL     OW48974   0.121   5.031   2.659 -0.5297 -0.1492 -0.7868
46669SOL    HW148975   0.134   4.993   2.746 -2.2183  2.8604  0.9267
46669SOL    HW248976   0.204   5.073   2.639 -1.1158  2.0895  1.0580
46670SOL     OW48977  12.199   4.539   6.760 -0.1005  0.2039  0.0337
46670SOL    HW148978  12.172   4.598   6.830 -1.0215 -0.8630  0.6136
46670SOL    HW248979  12.248   4.471   6.805 -1.5554 -1.0339 -0.1665
46671SOL     OW48980   4.228   6.851   0.555 -0.0520 -0.4207 -0.8351
46671SOL    HW148981   4.269   6.908   0.619  0.2864 -1.0713 -0.4596
46671SOL    HW248982   4.280   6.863   0.475 -0.5537  0.4859 -1.0376
46672SOL     OW48983   0.300   7.219   1.612 -0.3030  0.1738 -0.4828
46672SOL    HW148984   0.299   7.263   1.698 -0.6198  0.6248 -0.7109
46672SOL    HW248985   0.332   7.131   1.630  0.0851  0.4182  0.0296
46673SOL     OW48986   2.614   5.378   1.763 -0.3478  0.0558 -0.2906
46673SOL    HW148987   2.655   5.424   1.689  0.4759 -0.3656 -0.1130
46673SOL    HW248988   2.619   5.439   1.836 -0.0499  0.0178 -0.2777
46674SOL     OW48989   5.996   5.956   5.785  0.4572  0.2924 -0.1047
46674SOL    HW148990   6.078   5.996   5.755 -0.3305  1.8028 -0.3241
46674SOL    HW248991   5.934   6.029   5.790 -1.2186 -0.9964 -1.0771
46675SOL     OW48992   3.674  11.877   9.301  0.2436  0.4326  0.3217
46675SOL    HW148993   3.702  11.848   9.214  0.7809  2.0121 -0.0645
46675SOL    HW248994   3.651  11.969   9.289 -3.0666 -0.1460  1.0977
46676SOL     OW48995   0.843   2.849   5.215 -0.2813 -0.3664  0.2687
46676SOL    HW148996   0.886   2.934   5.210 -1.1114  0.0825  0.6317
46676SOL    HW248997   0.755   2.868   5.248 -0.8536 -1.2374 -0.6875
46677SOL     OW48998   6.025   2.441   0.332 -0.0942  0.5355  0.1434
46677SOL    HW148999   6.069   2.452   0.416 -0.8542 -1.6095  0.8985
46677SOL    HW249000   5.965   2.515   0.327 -1.6166 -0.3935  2.5983
46678SOL     OW49001  11.372   2.234  11.821 -0.2311 -0.9363  0.1245
46678SOL    HW149002  11.339   2.267  11.905 -1.2460 -0.0891 -0.5733
46678SOL    HW249003  11.295   2.196  11.779  0.2841 -1.4153 -0.4045
46679SOL     OW49004   8.178   3.421   3.981  0.1741 -0.0839  0.0040
46679SOL    HW149005   8.182   3.514   3.960 -0.0397  0.5033  2.3658
46679SOL    HW249006   8.117   3.385   3.917 -1.4868  1.8332  0.4360
46680SOL     OW49007   9.851   3.617   9.074  0.2631 -0.2341  0.1001
46680SOL    HW149008   9.876   3.526   9.094 -2.2502 -1.0327 -0.0446
46680SOL    HW249009   9.876   3.628   8.982  1.7671 -0.3063  0.4749
46681SOL     OW49010   9.246   8.750   8.344 -0.0379 -0.3039  0.2700
46681SOL    HW149011   9.277   8.829   8.300  1.4526 -0.4457  0.9953
46681SOL    HW249012   9.310   8.683   8.320  0.0931 -0.6826  1.5960
46682SOL     OW49013   6.785   3.375   4.069  0.2170 -0.1191 -0.1145
46682SOL    HW149014   6.752   3.327   4.145 -0.3607 -1.9014 -1.4391
46682SOL    HW249015   6.858   3.322   4.037  0.9995  1.0529 -0.3271
46683SOL     OW49016   6.852  10.089   2.403  0.6126  0.1553  0.0408
46683SOL    HW149017   6.938  10.047   2.408  0.4146 -0.1158  1.7042
46683SOL    HW249018   6.792  10.017   2.384  0.5812  0.1237  0.2667
46684SOL     OW49019   6.506   0.410   9.398  0.1905 -0.8969  0.0228
46684SOL    HW149020   6.452   0.390   9.321 -1.3411 -0.5441  0.9580
46684SOL    HW249021   6.507   0.329   9.448  0.2074 -0.7962  0.1856
46685SOL     OW49022   9.032   1.432   2.832 -0.0119  0.1883 -0.6685
46685SOL    HW149023   9.095   1.388   2.889  0.1933  1.0961 -0.1843
46685SOL    HW249024   8.948   1.392   2.854  0.0934  0.3916  0.1337
46686SOL     OW49025   6.480  10.357   2.537 -0.0065 -0.0048 -0.0774
46686SOL    HW149026   6.456  10.445   2.507  1.3509  0.4709  0.1742
46686SOL    HW249027   6.404  10.303   2.514 -1.0234  1.2895  0.0956
46687SOL     OW49028   8.143   7.000   5.393  0.4512 -0.1473 -0.0561
46687SOL    HW149029   8.088   7.057   5.446  1.0171  0.1568  0.2160
46687SOL    HW249030   8.085   6.967   5.325 -0.0492  0.2184  0.1886
46688SOL     OW49031   9.536   3.736   7.689  0.2851  0.3983  0.0137
46688SOL    HW149032   9.540   3.812   7.746 -1.7895  0.2783  0.3990
46688SOL    HW249033   9.504   3.770   7.605 -0.9211 -0.0349  0.2680
46689SOL     OW49034  11.827   2.258  11.437  0.1957  0.5609  0.6008
46689SOL    HW149035  11.776   2.183  11.408 -0.3144  1.1192  0.0358
46689SOL    HW249036  11.904   2.220  11.480  2.2687 -0.4193 -3.4643
46690SOL     OW49037   1.070   2.475  10.079 -0.2547 -0.1169  0.2839
46690SOL    HW149038   1.009   2.460  10.007 -0.6060  0.9613  0.3391
46690SOL    HW249039   1.129   2.400  10.077 -3.0440 -2.5181  1.7658
46691SOL     OW49040   8.725  11.737   8.362  0.0327 -0.0083  0.3897
46691SOL    HW149041   8.705  11.786   8.282  1.1896  0.7904  0.5587
46691SOL    HW249042   8.686  11.650   8.347 -0.5588  0.4097 -0.6467
46692SOL     OW49043   8.108   8.940   9.321  0.2508 -0.1429 -0.0573
46692SOL    HW149044   8.170   8.891   9.268  0.9235 -0.5174  1.0312
46692SOL    HW249045   8.162   8.977   9.392 -0.8772 -1.1302  1.3592
46693SOL     OW49046  10.433   5.261   8.804 -0.6665 -0.1802 -0.2716
46693SOL    HW149047  10.353   5.273   8.753 -0.3264 -0.3276 -0.8522
46693SOL    HW249048  10.414   5.185   8.859 -0.6278 -0.7594 -1.0365
46694SOL     OW49049   9.968   2.953   5.587  0.1608 -0.2034 -0.6816
46694SOL    HW149050   9.993   3.045   5.583  0.1230 -0.2327 -2.7741
46694SOL    HW249051   9.874   2.954   5.565  0.2615 -0.7680 -1.1416
46695SOL     OW49052  11.778   1.256   3.036 -0.1434 -0.7466  0.2093
46695SOL    HW149053  11.705   1.256   3.098  0.2668 -0.0646  0.7126
46695SOL    HW249054  11.751   1.196   2.966 -1.3293 -0.2463  0.2172
46696SOL     OW49055   5.599   5.417  12.330  0.1341 -0.3508  0.4339
46696SOL    HW149056   5.542   5.346  12.302  0.7095 -0.4987 -0.3955
46696SOL    HW249057   5.552   5.497  12.305  0.0050 -0.4582  0.3344
46697SOL     OW49058   2.617   6.624   2.863  0.0318  0.1358 -0.6847
46697SOL    HW149059   2.601   6.595   2.773 -1.2748 -1.4541 -0.0041
46697SOL    HW249060   2.535   6.667   2.889  0.5969  1.0759 -0.4155
46698SOL     OW49061   5.512   1.340  10.379 -0.0579  0.2723  0.0172
46698SOL    HW149062   5.492   1.246  10.385 -1.2176  0.1019 -3.7931
46698SOL    HW249063   5.430   1.380  10.349  1.1376  2.0628 -1.0528
46699SOL     OW49064  11.891   7.763   2.451 -0.1808 -0.4395  0.1062
46699SOL    HW149065  11.911   7.676   2.417  0.1392 -0.4121  0.2132
46699SOL    HW249066  11.796   7.764   2.462 -0.2176 -0.6664 -0.1872
46700SOL     OW49067  12.564   8.986   1.985  0.5609 -0.2037  0.0235
46700SOL    HW149068  12.573   8.912   1.925  2.6059  0.0064 -0.0122
46700SOL    HW249069  12.603   8.955   2.067 -1.0433 -0.0521  0.8774
46701SOL     OW49070  10.517  12.320   1.328  0.5155  0.3528 -0.4795
46701SOL    HW149071  10.539  12.367   1.408  1.9666  1.4887 -1.4986
46701SOL    HW249072  10.452  12.375   1.285  0.7268  0.4129 -0.7203
46702SOL     OW49073   8.466   3.315   8.380 -0.4912  0.0783  0.4816
46702SOL    HW149074   8.492   3.394   8.333 -0.7762  0.2648  0.6374
46702SOL    HW249075   8.480   3.244   8.317 -2.2744  0.4736 -0.4387
46703SOL     OW49076   6.503   9.417   9.227  0.0054 -0.6621  0.3798
46703SOL    HW149077   6.527   9.483   9.162  1.7388 -1.6416 -0.0306
46703SOL    HW249078   6.524   9.457   9.312  0.5197 -0.4694  0.1635
46704SOL     OW49079  11.933  11.482   4.788 -0.3793  0.2368  0.4463
46704SOL    HW149080  11.877  11.432   4.729 -0.3465  0.2763  0.3815
46704SOL    HW249081  11.917  11.574   4.764 -2.5590  0.4719  2.3708
46705SOL     OW49082  11.854   8.330   3.911  0.5247  0.3806 -0.8577
46705SOL    HW149083  11.793   8.258   3.924  1.5875 -0.5743 -1.0456
46705SOL    HW249084  11.854   8.378   3.994  1.8988 -1.4817  0.2956
46706SOL     OW49085   8.709   4.121   8.574  0.6817 -0.1347 -0.4626
46706SOL    HW149086   8.729   4.099   8.665  2.1393 -1.4221 -1.0452
46706SOL    HW249087   8.708   4.037   8.528 -2.0882  0.2620 -1.3316
46707SOL     OW49088  10.453   4.569   4.259  0.0117 -0.2630  0.3617
46707SOL    HW149089  10.359   4.563   4.246 -0.0867 -0.1288  0.9415
46707SOL    HW249090  10.465   4.650   4.310  0.4090 -0.4195  0.5233
46708SOL     OW49091   1.694  12.155  11.635 -0.3071  0.1367 -0.5559
46708SOL    HW149092   1.764  12.191  11.579 -1.1966 -1.7044 -3.0456
46708SOL    HW249093   1.678  12.068  11.599 -1.1963 -1.0717  2.4837
46709SOL     OW49094   4.354   5.780   7.785 -0.3386  0.1981  0.4067
46709SOL    HW149095   4.274   5.738   7.752  1.6052 -2.4820 -1.3905
46709SOL    HW249096   4.331   5.811   7.872 -2.7243 -2.5500  0.9097
46710SOL     OW49097   6.308   6.319   6.980 -0.6599 -0.1992 -0.9372
46710SOL    HW149098   6.240   6.252   6.969 -1.1925  0.0903  0.4367
46710SOL    HW249099   6.314   6.332   7.074  0.1700  0.9561 -1.1291
46711SOL     OW49100   8.631   0.198   0.712  0.5628 -0.5376  0.5740
46711SOL    HW149101   8.641   0.118   0.660 -0.5761 -0.2660 -0.0812
46711SOL    HW249102   8.547   0.234   0.686  0.4924  0.2296  1.7757
46712SOL     OW49103   0.584  11.285  10.227  0.0030  0.0493  0.0379
46712SOL    HW149104   0.598  11.206  10.280  1.8623 -1.1386 -2.0558
46712SOL    HW249105   0.665  11.334  10.237  0.9250 -0.8037 -2.5485
46713SOL     OW49106   3.610   2.836   0.169  0.5423 -0.0280 -0.4763
46713SOL    HW149107   3.704   2.836   0.152  0.9113  1.1992  1.3051
46713SOL    HW249108   3.600   2.782   0.247 -0.1346  0.3932 -0.2637
46714SOL     OW49109   6.067   6.433   7.565 -0.7047 -0.1492 -0.1168
46714SOL    HW149110   6.097   6.365   7.504 -0.9900  0.4521 -0.9341
46714SOL    HW249111   6.091   6.515   7.523  0.3584  0.2575  1.2421
46715SOL     OW49112   5.237   4.769  12.424  0.0149  0.4315  0.5669
46715SOL    HW149113   5.280   4.691  12.388  0.1665  0.4258  0.7545
46715SOL    HW249114   5.309   4.829  12.443 -0.1284  0.7769  0.0590
46716SOL     OW49115  12.517   5.611  11.534 -0.3760 -0.0112 -0.5109
46716SOL    HW149116  12.489   5.564  11.612 -0.1268  0.6270 -0.0317
46716SOL    HW249117  12.526   5.702  11.562 -0.0204  0.1780 -1.2112
46717SOL     OW49118   4.066   7.460   5.536  0.0533  0.1556 -0.0478
46717SOL    HW149119   4.118   7.483   5.459  0.1851  1.6869  0.4691
46717SOL    HW249120   3.978   7.492   5.516  0.2875  1.3688  0.7720
46718SOL     OW49121  11.043   1.318  11.132  0.7659  0.1822  0.0806
46718SOL    HW149122  11.098   1.376  11.081  0.8937 -1.0199 -1.1996
46718SOL    HW249123  11.091   1.235  11.136  0.6555  0.1500  1.9725
46719SOL     OW49124   2.577   0.542   3.728  0.0132 -0.3066  0.3203
46719SOL    HW149125   2.601   0.560   3.637 -1.5787  0.2561 -0.0213
46719SOL    HW249126   2.533   0.458   3.725 -1.2762  0.3445  0.3161
46720SOL     OW49127   7.398   4.934   3.641 -0.7830  0.0986  0.3081
46720SOL    HW149128   7.311   4.930   3.602 -0.2649 -0.1126 -0.8863
46720SOL    HW249129   7.426   4.843   3.648 -0.4559  0.1907  0.2145
46721SOL     OW49130   8.491   7.675   6.034  0.0490 -0.2652 -0.2983
46721SOL    HW149131   8.502   7.756   6.084  0.0509 -0.6251  0.2936
46721SOL    HW249132   8.423   7.696   5.970  0.0353  0.1993 -0.1360
46722SOL     OW49133   2.054   2.919   8.753 -0.0744  0.1995 -0.1515
46722SOL    HW149134   2.056   3.014   8.742 -1.4705  0.5502  2.0130
46722SOL    HW249135   1.968   2.901   8.791  0.3205 -1.8802 -0.1546
46723SOL     OW49136  12.014   6.161  10.882  0.8022  0.2684 -0.1425
46723SOL    HW149137  11.919   6.173  10.892  0.9276  0.6444  0.6345
46723SOL    HW249138  12.037   6.213  10.805 -0.1534 -2.5152 -2.4768
46724SOL     OW49139   8.708   4.913   1.691  0.1829  0.6015  0.0933
46724SOL    HW149140   8.698   4.917   1.596  0.3352  0.6280  0.0794
46724SOL    HW249141   8.686   5.001   1.721 -2.6398 -0.0764  0.3314
46725SOL     OW49142   2.907   5.094   2.068  0.0396  0.1298  0.0252
46725SOL    HW149143   2.832   5.069   2.015 -1.3634  0.9896  1.5151
46725SOL    HW249144   2.971   5.024   2.055 -1.7099 -1.5285  0.1018
46726SOL     OW49145   5.461  11.455  10.343 -0.3281  0.1361  0.1538
46726SOL    HW149146   5.511  11.537  10.349  0.8074 -0.5194 -0.0356
46726SOL    HW249147   5.426  11.442  10.432  1.1700 -0.1891  0.7251
46727SOL     OW49148  10.327   4.591   3.532 -0.4320 -0.0897 -0.1455
46727SOL    HW149149  10.390   4.661   3.518 -0.2013 -0.5112 -1.3462
46727SOL    HW249150  10.284   4.613   3.615 -0.2144  1.3299 -0.3948
46728SOL     OW49151   6.414  11.677   5.856  0.5551  0.4290  0.3170
46728SOL    HW149152   6.443  11.591   5.826  0.8100  1.1041 -1.5284
46728SOL    HW249153   6.321  11.666   5.875  0.7692 -0.4432  0.8997
46729SOL     OW49154   6.012   0.127   4.090 -0.1516 -0.5115  0.6322
46729SOL    HW149155   6.005   0.204   4.146  2.0612  0.3561 -0.1520
46729SOL    HW249156   5.946   0.067   4.123 -0.7356  1.0132  2.4167
46730SOL     OW49157  11.467   8.323   2.018 -0.4573  0.6432  0.3816
46730SOL    HW149158  11.491   8.259   2.085  0.8673  1.3813  0.6533
46730SOL    HW249159  11.538   8.317   1.953 -1.4316  0.3352 -0.6794
46731SOL     OW49160   7.207   1.233   9.424 -0.4458  0.1270  0.0381
46731SOL    HW149161   7.181   1.143   9.406 -0.7321  0.4938 -1.4986
46731SOL    HW249162   7.210   1.239   9.519  0.0629 -1.6432  0.1644
46732SOL     OW49163   4.372   9.708   5.876 -0.0517 -0.1018  0.5121
46732SOL    HW149164   4.351   9.617   5.854 -0.5146  0.0904  0.1427
46732SOL    HW249165   4.340   9.758   5.802  0.1080  0.3760  0.7646
46733SOL     OW49166   0.771   0.873   8.248  0.2007  0.1045  0.7234
46733SOL    HW149167   0.676   0.866   8.246  0.1762 -0.2840  2.0950
46733SOL    HW249168   0.794   0.927   8.173 -0.8999 -1.9164 -1.1679
46734SOL     OW49169   2.816   1.163  10.578  0.2603 -0.5038 -0.3271
46734SOL    HW149170   2.828   1.184  10.485 -0.1388 -0.0661 -0.2804
46734SOL    HW249171   2.795   1.246  10.619  2.3007 -0.3386  0.4976
46735SOL     OW49172   9.571   2.207   1.698 -0.6760 -0.0067  0.1247
46735SOL    HW149173   9.556   2.136   1.635  0.2088  0.3811 -0.5439
46735SOL    HW249174   9.626   2.168   1.766  0.6378  0.2830 -0.7483
46736SOL     OW49175   0.884   1.468   9.587 -0.3984 -0.1373  0.4946
46736SOL    HW149176   0.968   1.423   9.588 -1.6255 -2.7901 -1.3171
46736SOL    HW249177   0.822   1.404   9.623 -1.9269  0.9796 -0.0100
46737SOL     OW49178   0.206   6.044   9.522  0.3491 -0.6939  0.3077
46737SOL    HW149179   0.228   5.996   9.442 -4.5026  0.3669 -2.0098
46737SOL    HW249180   0.191   5.976   9.587  3.7656 -1.6052  0.3744
46738SOL     OW49181   1.413   4.831   0.464 -0.3091 -0.5413  0.2945
46738SOL    HW149182   1.506   4.846   0.448 -0.2548 -0.1174  0.9612
46738SOL    HW249183   1.375   4.817   0.377  0.5245 -1.6110  0.0797
46739SOL     OW49184   7.843   4.826   0.996  0.7606  0.5867  0.3498
46739SOL    HW149185   7.845   4.862   1.085  1.5434  0.4104  0.4155
46739SOL    HW249186   7.848   4.731   1.009  2.2009  0.6057  0.1008
46740SOL     OW49187   2.670   9.120   1.226 -0.1066  0.1602 -0.1937
46740SOL    HW149188   2.595   9.178   1.212  0.4684  0.7671 -0.8423
46740SOL    HW249189   2.631   9.036   1.247 -0.9850  0.3536 -0.9643
46741SOL     OW49190   8.919   8.665   8.759 -0.8300 -0.1097 -0.2617
46741SOL    HW149191   8.849   8.668   8.694 -1.1306  0.8046  0.0919
46741SOL    HW249192   8.998   8.687   8.710 -0.8320 -0.7995 -0.5897
46742SOL     OW49193   0.031   7.437  10.273  0.0972 -0.2803 -0.2841
46742SOL    HW149194   0.004   7.401  10.358  0.8526 -1.8083 -0.6656
46742SOL    HW249195   0.049   7.361  10.219 -2.1719  0.5796 -2.4595
46743SOL     OW49196   1.235  11.206   4.847 -0.9285  0.1239 -0.0762
46743SOL    HW149197   1.256  11.262   4.921  0.1769 -0.1583 -0.1632
46743SOL    HW249198   1.237  11.117   4.883 -2.0205  0.0837 -0.0863
46744SOL     OW49199   9.917   8.884   7.709 -0.2575  0.4340 -0.0988
46744SOL    HW149200   9.920   8.979   7.721  1.0387  0.2269  1.7046
46744SOL    HW249201   9.849   8.870   7.643 -0.5088  2.5947 -0.3783
46745SOL     OW49202   8.097  12.222   4.642  0.0982  0.1896 -0.1863
46745SOL    HW149203   8.074  12.233   4.550 -1.0090  0.7924  0.1443
46745SOL    HW249204   8.162  12.290   4.659 -0.0966  0.4284 -0.3897
46746SOL     OW49205   7.889   5.557   2.986  0.1366 -0.1201 -0.2206
46746SOL    HW149206   7.955   5.530   3.050  0.2179 -0.5289 -0.4744
46746SOL    HW249207   7.873   5.478   2.934  0.3817  0.3253 -0.9725
46747SOL     OW49208   9.097   7.719  10.448  0.0195  0.2978 -0.0443
46747SOL    HW149209   9.014   7.766  10.451 -0.1740 -0.0425  0.0023
46747SOL    HW249210   9.074   7.634  10.411  0.3620  0.2300 -0.0996
46748SOL     OW49211   3.685   9.737   8.211 -0.2044  0.7292  0.8292
46748SOL    HW149212   3.600   9.719   8.170 -0.6741  1.4054  1.4772
46748SOL    HW249213   3.670   9.720   8.304  1.7677 -4.3631  0.5301
46749SOL     OW49214   9.360   0.429   5.635 -0.9277  0.9722  0.1124
46749SOL    HW149215   9.383   0.336   5.636  0.0893  1.1860 -0.7499
46749SOL    HW249216   9.357   0.451   5.542 -0.9985  1.8340  0.3152
46750SOL     OW49217   5.071   5.314   0.478 -0.3300 -0.3128  0.0424
46750SOL    HW149218   5.142   5.250   0.485  0.7726  0.9763  1.1243
46750SOL    HW249219   5.001   5.278   0.533  0.5318 -0.2898  1.1961
46751SOL     OW49220   0.760  12.073   1.769 -1.1907 -0.2697 -0.3251
46751SOL    HW149221   0.825  12.120   1.716 -1.0803  0.0134  0.0528
46751SOL    HW249222   0.801  12.066   1.856 -2.0355  0.7244  0.1663
46752SOL     OW49223   7.794  11.549   1.916 -1.1431 -0.1821  0.4499
46752SOL    HW149224   7.770  11.636   1.949 -1.4620 -1.0807  2.8251
46752SOL    HW249225   7.889  11.552   1.910 -1.0677  0.0669  1.4627
46753SOL     OW49226   6.754   5.561   6.354  0.1384 -0.9383  0.1862
46753SOL    HW149227   6.816   5.530   6.288 -0.7052  1.6981 -2.0424
46753SOL    HW249228   6.671   5.521   6.329  0.0058 -0.7003  0.2423
46754SOL     OW49229  11.777   5.390   9.823  0.4094  0.2723  0.2028
46754SOL    HW149230  11.777   5.479   9.790 -0.5589  1.5467  3.2530
46754SOL    HW249231  11.689   5.377   9.858  0.8419 -1.5148  0.7499
46755SOL     OW49232   6.573   7.841  10.934 -0.1589  0.6343  0.4801
46755SOL    HW149233   6.521   7.859  10.855 -0.3267 -2.5042 -0.2700
46755SOL    HW249234   6.664   7.851  10.905 -0.2164 -0.5753 -0.2083
46756SOL     OW49235   5.216   7.367   0.155 -0.4577  0.1490 -0.1241
46756SOL    HW149236   5.283   7.435   0.152  0.6528 -0.9466 -1.1455
46756SOL    HW249237   5.260   7.288   0.123 -1.9545 -0.8503  0.1696
46757SOL     OW49238   2.852   3.692   5.712 -0.6469  0.2070 -0.6824
46757SOL    HW149239   2.813   3.758   5.768 -0.2263 -0.4978  0.4742
46757SOL    HW249240   2.802   3.612   5.730 -0.2672 -0.1142 -1.0220
46758SOL     OW49241   5.330   2.335  11.515 -0.4286  0.0517  0.0436
46758SOL    HW149242   5.295   2.411  11.560  0.4486  0.2798  0.3520
46758SOL    HW249243   5.264   2.266  11.530 -0.3854  0.2557  1.2553
46759SOL     OW49244   0.875   0.099   3.172  1.0592  0.2346  0.6773
46759SOL    HW149245   0.890   0.020   3.121  3.5258  0.9677  0.1570
46759SOL    HW249246   0.845   0.163   3.108 -1.7821 -0.3915  1.2279
46760SOL     OW49247   2.977   1.944  10.276  0.5220 -0.1060  0.1722
46760SOL    HW149248   2.985   1.852  10.253 -1.2942 -0.2167 -0.1635
46760SOL    HW249249   3.034   1.955  10.352  0.5857 -1.5675  0.3596
46761SOL     OW49250   1.537   2.929  11.484  0.4781 -0.1706 -0.3685
46761SOL    HW149251   1.629   2.954  11.474  0.4096  0.2542  0.0461
46761SOL    HW249252   1.531   2.843  11.442  0.8456  0.2368 -1.2649
46762SOL     OW49253  11.397   7.248  12.252  0.1331 -0.2458  0.3573
46762SOL    HW149254  11.425   7.303  12.325  0.1032  0.7633 -0.3526
46762SOL    HW249255  11.443   7.165  12.264  0.2139 -0.0586  1.4449
46763SOL     OW49256   4.858   7.876   2.531 -0.1048 -0.5335 -0.4605
46763SOL    HW149257   4.948   7.907   2.537 -0.6410  1.1949 -0.7727
46763SOL    HW249258   4.842   7.830   2.614  0.7698 -0.0339 -0.0091
46764SOL     OW49259  10.606   6.399  11.502  0.2840  0.0159 -0.0388
46764SOL    HW149260  10.624   6.349  11.582 -2.9664 -0.2058  0.6832
46764SOL    HW249261  10.526   6.449  11.522  0.3912  1.3737 -2.5613
46765SOL     OW49262   4.909   2.940  12.527  0.0303 -0.7180 -0.3770
46765SOL    HW149263   4.860   3.018  12.553  0.6973  0.1552 -1.6275
46765SOL    HW249264   4.856   2.867  12.558 -0.9488  0.2246  0.2428
46766SOL     OW49265   4.975  10.657   7.085 -0.0751  0.8985 -0.5647
46766SOL    HW149266   4.951  10.672   7.177 -1.5304  1.8451 -1.0533
46766SOL    HW249267   4.953  10.566   7.069  1.7705  0.2264  0.4444
46767SOL     OW49268  11.513   1.238  11.810 -0.0095  0.8524  0.3991
46767SOL    HW149269  11.499   1.312  11.751 -0.5415 -0.9152 -1.8462
46767SOL    HW249270  11.608   1.223  11.808 -0.0276  0.7912 -0.0294
46768SOL     OW49271   6.825  11.531   8.042  0.2651 -0.3819  0.8457
46768SOL    HW149272   6.744  11.503   7.999  0.4997  1.2071 -0.7344
46768SOL    HW249273   6.880  11.452   8.043 -0.9280 -1.2501  1.1283
46769SOL     OW49274  12.182   9.651   3.336  0.7666 -0.5909  0.1337
46769SOL    HW149275  12.174   9.682   3.426  0.5883 -0.3295  0.0275
46769SOL    HW249276  12.150   9.723   3.282  1.6897 -0.4081 -0.1877
46770SOL     OW49277   8.939   9.466   7.861 -0.0587 -0.0040 -0.2192
46770SOL    HW149278   8.955   9.448   7.954  0.4014 -2.5627 -0.7121
46770SOL    HW249279   9.024   9.456   7.819 -0.7511 -2.1111 -1.2894
46771SOL     OW49280   2.255   9.398   3.605  0.2010 -0.3144  0.2887
46771SOL    HW149281   2.282   9.422   3.517  0.6215  0.3761  0.5946
46771SOL    HW249282   2.332   9.417   3.660  0.4787 -2.1664  0.5973
46772SOL     OW49283   3.313   1.669   5.509 -0.2612 -0.4860 -0.0920
46772SOL    HW149284   3.239   1.639   5.457 -0.8218  0.4686  0.1394
46772SOL    HW249285   3.310   1.764   5.504  0.7704 -0.4225  0.1741
46773SOL     OW49286  12.359   7.153  10.622 -0.5860  0.5345  0.7405
46773SOL    HW149287  12.402   7.169  10.538  0.3446 -1.5710  0.7402
46773SOL    HW249288  12.287   7.093  10.602 -1.8296  1.8231  1.1588
46774SOL     OW49289  11.143   1.664   7.201  0.4878  0.3257 -0.0858
46774SOL    HW149290  11.082   1.593   7.180 -0.5467  0.6610  1.6180
46774SOL    HW249291  11.142   1.720   7.124 -1.9331  0.6871  0.1415
46775SOL     OW49292   4.758   3.049   8.487  0.1417 -0.1817 -0.2488
46775SOL    HW149293   4.744   3.143   8.503 -2.6435 -0.3837 -0.8838
46775SOL    HW249294   4.765   3.043   8.391  2.8583 -0.4186 -0.1007
46776SOL     OW49295   7.664   1.035  11.336 -0.8575 -0.3352 -0.3678
46776SOL    HW149296   7.675   1.036  11.431 -0.8281 -0.6048 -0.3687
46776SOL    HW249297   7.601   0.966  11.319 -0.4251 -0.6859 -0.5874
46777SOL     OW49298  12.289   1.649   4.548 -0.5989 -0.2168  0.0344
46777SOL    HW149299  12.333   1.565   4.537 -0.0098 -0.0687  1.1067
46777SOL    HW249300  12.340   1.694   4.616 -0.0981  1.5427 -1.4286
46778SOL     OW49301  10.631   6.844   0.738  0.5932  0.0016  0.0591
46778SOL    HW149302  10.626   6.808   0.826  1.4402 -0.0752  0.0841
46778SOL    HW249303  10.545   6.826   0.699  0.7026 -1.2744  0.3636
46779SOL     OW49304   8.634   4.580   5.845 -0.3527 -0.1741 -0.3060
46779SOL    HW149305   8.555   4.632   5.828 -1.1818 -1.0746  0.6440
46779SOL    HW249306   8.691   4.639   5.895  0.3729  1.0842 -2.4939
46780SOL     OW49307   9.591  10.052   9.333 -0.4777 -0.4583 -0.2315
46780SOL    HW149308   9.574  10.146   9.328 -0.1282 -0.4350 -1.2941
46780SOL    HW249309   9.510  10.011   9.305 -0.2607 -0.4449 -0.8896
46781SOL     OW49310   7.986   4.860   4.786 -0.0650  0.4071  0.0182
46781SOL    HW149311   7.943   4.885   4.704  0.8549 -0.1013 -0.6377
46781SOL    HW249312   8.037   4.937   4.810  0.4765  0.2066 -0.4525
46782SOL     OW49313   0.085   1.204   8.930  0.2311  0.4230  0.4794
46782SOL    HW149314   0.017   1.204   8.863  0.5114 -2.5318  0.0645
46782SOL    HW249315   0.165   1.229   8.884  0.5720 -2.3430 -0.5829
46783SOL     OW49316   0.264   7.499  11.044 -0.1690  0.3687 -0.7556
46783SOL    HW149317   0.213   7.450  10.980 -0.1238  0.6545 -1.0109
46783SOL    HW249318   0.210   7.499  11.123 -0.4140  0.3769 -0.9226
46784SOL     OW49319   7.535   4.427   7.204 -0.1959  0.0272 -0.2998
46784SOL    HW149320   7.499   4.481   7.275  0.6173 -0.4869  0.5206
46784SOL    HW249321   7.596   4.485   7.159  2.8337 -0.8928  2.2943
46785SOL     OW49322   7.378   1.328   8.583  0.1717 -0.0172  0.9792
46785SOL    HW149323   7.395   1.249   8.635  0.1051 -0.5544  0.2066
46785SOL    HW249324   7.433   1.395   8.623  1.9389 -1.0034  0.3193
46786SOL     OW49325   8.258   5.704   1.833 -0.3093 -0.0448 -0.3413
46786SOL    HW149326   8.278   5.698   1.926 -0.8754  3.3207  0.1293
46786SOL    HW249327   8.320   5.768   1.799 -0.7792 -0.4448 -2.0784
46787SOL     OW49328   3.691   6.660   6.584  0.3234  0.2567  0.4099
46787SOL    HW149329   3.672   6.567   6.578  0.3852  0.3239 -1.2679
46787SOL    HW249330   3.672   6.694   6.497 -0.2061  1.9191  1.1333
46788SOL     OW49331  10.203   3.901   4.442  0.2000  0.4512  0.2786
46788SOL    HW149332  10.242   3.816   4.421 -0.5563  0.5117 -1.5002
46788SOL    HW249333  10.113   3.879   4.470  0.7026  0.5119  2.1023
46789SOL     OW49334   0.415   6.443   2.809  0.4067  0.4523 -0.5934
46789SOL    HW149335   0.391   6.533   2.788  0.7920  1.0291  1.2762
46789SOL    HW249336   0.355   6.418   2.879  2.3880  0.4494  1.1973
46790SOL     OW49337  10.742   5.008  10.433  0.4382  0.1717 -0.5032
46790SOL    HW149338  10.736   4.996  10.338  1.4796 -0.1747 -0.5380
46790SOL    HW249339  10.658   4.976  10.466  0.0333  0.3752 -1.3138
46791SOL     OW49340   2.019   1.292   1.164 -0.0533 -0.3730 -0.2687
46791SOL    HW149341   2.064   1.373   1.187  0.3317  0.3706 -3.1832
46791SOL    HW249342   2.080   1.223   1.189  0.8813  0.4096 -0.2890
46792SOL     OW49343   8.784   2.095   7.913 -0.0341 -0.1390 -0.5351
46792SOL    HW149344   8.705   2.125   7.957 -0.3501 -0.5883 -0.7856
46792SOL    HW249345   8.853   2.102   7.979 -0.6679 -1.6851  0.3323
46793SOL     OW49346   9.073   2.550   5.995  0.5393 -0.0339 -0.0989
46793SOL    HW149347   9.113   2.598   6.068  0.0141  0.6361 -0.2424
46793SOL    HW249348   8.989   2.521   6.029  0.4633 -0.0592 -0.3129
46794SOL     OW49349   7.100  10.368   7.444 -0.4605  0.7251 -0.1233
46794SOL    HW149350   7.155  10.425   7.390 -2.4278  1.5590 -1.3317
46794SOL    HW249351   7.102  10.409   7.531  1.1604  0.4748 -0.0111
46795SOL     OW49352  10.069   7.636  10.409 -0.5597  0.2206 -0.2939
46795SOL    HW149353  10.048   7.579  10.483 -1.4961  0.9975  0.0627
46795SOL    HW249354  10.093   7.575  10.339 -1.4478 -0.6184  0.1028
46796SOL     OW49355   0.683  11.813   0.909  0.5553 -0.2440  0.2084
46796SOL    HW149356   0.728  11.729   0.902 -0.3774 -0.6386 -1.4006
46796SOL    HW249357   0.719  11.852   0.989  2.0902 -1.5102  0.1929
46797SOL     OW49358   4.429  10.877   3.302 -0.4862  0.0754  0.1586
46797SOL    HW149359   4.453  10.900   3.391  0.1683  0.0160  0.0020
46797SOL    HW249360   4.399  10.959   3.263 -1.2583 -0.0015  0.5855
46798SOL     OW49361   7.723  10.575   6.795 -0.2543  0.2493 -0.0276
46798SOL    HW149362   7.649  10.632   6.773 -1.6899 -0.9788  1.3349
46798SOL    HW249363   7.781  10.630   6.847 -0.2039  1.2290 -1.0802
46799SOL     OW49364  10.037   3.035   5.853 -0.1498  0.3822  0.2816
46799SOL    HW149365  10.034   3.001   5.764  1.0801  0.5315  0.1609
46799SOL    HW249366  10.128   3.023   5.880  0.6227  4.1337 -0.0323
46800SOL     OW49367   0.998  10.818   0.775  0.7749 -0.3989 -0.2957
46800SOL    HW149368   0.929  10.865   0.821  2.1660  0.7400  0.7401
46800SOL    HW249369   0.953  10.750   0.725 -1.0141 -0.0765  0.8136
46801SOL     OW49370   6.130   3.063   4.729 -0.1193  0.2161 -0.1378
46801SOL    HW149371   6.132   2.968   4.721  1.2381  0.1811  0.2586
46801SOL    HW249372   6.103   3.079   4.819  1.5794  0.1153  0.4345
46802SOL     OW49373   9.322  11.778   0.591 -0.3771 -0.1178  0.5295
46802SOL    HW149374   9.338  11.727   0.512 -0.3298  1.2455 -0.3701
46802SOL    HW249375   9.226  11.785   0.596 -0.3570  0.7185 -0.0398
46803SOL     OW49376   8.037   8.323   6.573 -0.0532 -0.1874 -0.6671
46803SOL    HW149377   8.018   8.389   6.507 -2.8212  1.2503  1.3875
46803SOL    HW249378   8.044   8.371   6.655 -0.2492 -2.2602  0.6454
46804SOL     OW49379   8.780   5.376  12.047 -0.5178 -0.2800 -0.3767
46804SOL    HW149380   8.709   5.439  12.058 -0.3983 -0.1431 -0.3924
46804SOL    HW249381   8.811   5.358  12.136  0.6357  1.0404 -0.4760
46805SOL     OW49382  11.329   3.648  11.411 -0.1870 -0.6190 -0.0332
46805SOL    HW149383  11.408   3.594  11.413  0.0221 -0.3491  1.9328
46805SOL    HW249384  11.283   3.625  11.492 -0.7707  1.1297  0.1793
46806SOL     OW49385   9.263   2.382   2.854  0.3051 -0.5357  0.2453
46806SOL    HW149386   9.307   2.301   2.831 -0.3442 -1.1588  1.1370
46806SOL    HW249387   9.169   2.361   2.848  0.1320  0.0976  0.6264
46807SOL     OW49388   4.140  11.927   7.733  0.3594 -0.2087  0.2270
46807SOL    HW149389   4.168  11.999   7.788  0.2423 -0.2506  0.3403
46807SOL    HW249390   4.076  11.966   7.673 -0.6375 -0.4706  1.0920
46808SOL     OW49391   0.250   9.190   3.818 -0.1404 -0.3006  0.4849
46808SOL    HW149392   0.165   9.150   3.834 -0.3711  0.0623  0.1793
46808SOL    HW249393   0.245   9.223   3.728  0.5066 -0.7362  0.2786
46809SOL     OW49394   1.900   2.203  11.526 -0.2724 -0.5427  0.4902
46809SOL    HW149395   1.910   2.285  11.574 -1.6272  1.4325 -2.2903
46809SOL    HW249396   1.808   2.202  11.500 -0.1287 -2.6464 -0.1019
46810SOL     OW49397   4.829   4.480  10.620  0.1299 -0.1825 -0.4816
46810SOL    HW149398   4.844   4.502  10.712 -2.2844  0.3975 -0.1692
46810SOL    HW249399   4.881   4.545  10.572 -0.9348  1.4497  0.4866
46811SOL     OW49400   9.865   4.546   9.160 -0.0852  0.0840 -0.3263
46811SOL    HW149401   9.919   4.475   9.124 -1.2119 -0.2704 -1.3731
46811SOL    HW249402   9.882   4.543   9.254 -0.8605 -2.2619 -0.1882
46812SOL     OW49403   2.925   0.243   9.660  0.3058  0.0803  0.6127
46812SOL    HW149404   2.852   0.213   9.713  0.6225 -0.4556  0.7582
46812SOL    HW249405   2.968   0.162   9.631  1.8102  0.3775  1.8967
46813SOL     OW49406   5.428   0.889   9.785 -0.1858 -0.3686 -0.5869
46813SOL    HW149407   5.395   0.828   9.852  2.5195 -0.5155  0.7443
46813SOL    HW249408   5.523   0.886   9.795  0.1377  2.5537 -1.8669
46814SOL     OW49409   3.373   0.110   9.714  0.3850  0.5062 -0.0285
46814SOL    HW149410   3.312   0.138   9.645  1.2932 -1.8723 -1.8969
46814SOL    HW249411   3.317   0.067   9.779 -0.1435 -0.0814 -0.8550
46815SOL     OW49412   9.085   2.275   7.380 -0.2968  0.6934 -0.1740
46815SOL    HW149413   9.128   2.272   7.466  0.6593  0.0783 -0.6609
46815SOL    HW249414   8.992   2.281   7.401  0.0230  2.6629  0.9142
46816SOL     OW49415   4.350   0.403   5.976  0.0512  0.2124 -0.1616
46816SOL    HW149416   4.320   0.491   5.998  0.5220  0.0831  1.0683
46816SOL    HW249417   4.270   0.350   5.972 -0.2240  0.6728 -0.8266
46817SOL     OW49418   8.789   6.936  11.962  0.2224 -0.2168 -0.0637
46817SOL    HW149419   8.695   6.947  11.948  0.4280  0.0780 -1.3705
46817SOL    HW249420   8.807   6.846  11.933  0.7724  0.6223 -2.5525
46818SOL     OW49421   9.646  10.865   8.419  0.0240 -0.4550 -0.0224
46818SOL    HW149422   9.628  10.792   8.359  0.3461  0.9733 -1.9331
46818SOL    HW249423   9.734  10.894   8.396 -0.6427  1.4584 -0.3132
46819SOL     OW49424   7.717   0.439  10.672  0.0926 -0.0619  0.4843
46819SOL    HW149425   7.644   0.500  10.658  2.3489  3.0816  1.4260
46819SOL    HW249426   7.717   0.424  10.766  1.3417  0.9522  0.6650
46820SOL     OW49427   5.939   9.424   8.234  0.4563  0.1134 -0.0739
46820SOL    HW149428   6.025   9.446   8.197  0.6216 -0.5215 -0.0791
46820SOL    HW249429   5.959   9.371   8.311  0.0599 -1.1802 -0.8270
46821SOL     OW49430   3.904   7.481   8.916  0.2133 -0.3034  0.2734
46821SOL    HW149431   3.851   7.518   8.845  1.5900 -0.1993 -0.7342
46821SOL    HW249432   3.882   7.387   8.916  0.1928 -0.3001 -0.2824
46822SOL     OW49433   7.215   3.563   6.551  0.0688  0.4471 -0.2444
46822SOL    HW149434   7.241   3.646   6.510  0.4305  0.3997 -0.1162
46822SOL    HW249435   7.125   3.550   6.522 -0.1394  1.1009  0.0745
46823SOL     OW49436   3.467   1.559  10.524 -0.3097  0.0176  0.1705
46823SOL    HW149437   3.411   1.588  10.597  0.1793  0.6083  0.3165
46823SOL    HW249438   3.551   1.603  10.539 -0.3210  0.4664 -0.9642
46824SOL     OW49439   8.733   6.508   7.125 -0.1537  0.0198  0.1468
46824SOL    HW149440   8.668   6.479   7.061 -0.5657 -0.1090  0.6227
46824SOL    HW249441   8.815   6.510   7.076 -0.0720 -2.0659  0.0943
46825SOL     OW49442   1.817   6.585   6.515 -0.1509 -0.5897 -0.0010
46825SOL    HW149443   1.904   6.546   6.507  0.0162 -0.0232 -1.1467
46825SOL    HW249444   1.757   6.513   6.495  0.1401 -0.4388 -1.5354
46826SOL     OW49445   6.036   0.264   2.375  0.5115 -0.3419  0.1839
46826SOL    HW149446   6.089   0.280   2.454 -0.1325 -0.2637  0.6045
46826SOL    HW249447   6.003   0.351   2.351  0.6482 -0.3771 -0.1305
46827SOL     OW49448   2.903   5.031  10.512  1.1110 -0.1376 -0.2991
46827SOL    HW149449   2.838   5.055  10.578  0.3599 -1.3658 -0.5406
46827SOL    HW249450   2.951   5.111  10.494 -0.4783  0.8687 -0.2332
46828SOL     OW49451   7.550   2.439   8.174  0.5880 -0.1704  0.7007
46828SOL    HW149452   7.639   2.411   8.198  0.7910  0.0543  0.2157
46828SOL    HW249453   7.561   2.484   8.090  0.3084  1.6413  1.5945
46829SOL     OW49454   1.912   2.810   8.390  0.3512 -0.1071  0.0420
46829SOL    HW149455   1.883   2.769   8.472  1.5131 -0.0838  0.4778
46829SOL    HW249456   1.953   2.738   8.341 -4.0594 -1.2667 -2.5196
46830SOL     OW49457  12.304   4.096  10.729  0.4689 -0.3970 -0.1018
46830SOL    HW149458  12.285   4.021  10.672  0.5819  0.0190 -0.6929
46830SOL    HW249459  12.229   4.101  10.787  0.4606 -0.9722 -0.0555
46831SOL     OW49460   2.122   6.231   7.332 -0.0534 -0.2036 -0.1037
46831SOL    HW149461   2.115   6.269   7.420  0.4356 -0.7590  0.1813
46831SOL    HW249462   2.048   6.268   7.284 -2.5926 -2.6959  1.5562
46832SOL     OW49463   1.166   6.753   6.326 -0.2777 -0.2909  0.1564
46832SOL    HW149464   1.071   6.752   6.333 -0.3595  1.8382 -0.0471
46832SOL    HW249465   1.185   6.716   6.240 -1.2438  2.9265 -1.5968
46833SOL     OW49466   1.100   3.714   9.364  0.3054  0.3021 -0.4372
46833SOL    HW149467   1.033   3.765   9.409 -2.2066 -1.3614 -2.0009
46833SOL    HW249468   1.115   3.639   9.422  0.0162  0.1623 -0.5376
46834SOL     OW49469   0.929   9.175   2.178 -0.1552  0.4165  0.3686
46834SOL    HW149470   0.846   9.131   2.165  0.2379 -0.5374  0.9870
46834SOL    HW249471   0.912   9.240   2.246 -0.9519  1.8802 -1.1556
46835SOL     OW49472   0.026   7.055   5.787 -0.0763  0.1669 -0.2754
46835SOL    HW149473  -0.016   6.972   5.763 -0.9777 -0.0107  1.7507
46835SOL    HW249474   0.102   7.028   5.838  1.2987  0.5630 -1.9964
46836SOL     OW49475   0.033   8.242   2.288  0.2353 -0.8525 -0.2375
46836SOL    HW149476   0.071   8.185   2.355 -2.4484 -1.2692  1.0823
46836SOL    HW249477   0.018   8.325   2.332  0.0259 -0.5742 -0.8207
46837SOL     OW49478   6.031  11.078   8.970  0.1148 -0.5730  0.0036
46837SOL    HW149479   6.084  11.154   8.948 -2.1142  0.9375 -0.4644
46837SOL    HW249480   5.954  11.085   8.914  0.0522 -3.5147 -0.4594
46838SOL     OW49481   2.882  11.966   9.020 -0.1628  0.4534 -0.9637
46838SOL    HW149482   2.904  11.904   8.951  0.0920  1.2868 -1.6398
46838SOL    HW249483   2.822  12.028   8.980  0.3286  1.2033 -0.5717
46839SOL     OW49484   9.332   8.915  11.107  0.1004  0.2851 -0.0530
46839SOL    HW149485   9.288   8.990  11.147 -0.3462 -0.8540  1.6871
46839SOL    HW249486   9.376   8.951  11.030 -0.2978  2.2723  0.6016
46840SOL     OW49487   0.369   8.932   8.170 -0.2956  0.3509 -0.3068
46840SOL    HW149488   0.349   8.857   8.114 -0.8470  0.9528 -0.9385
46840SOL    HW249489   0.417   8.992   8.112 -0.5601  0.8291 -0.0349
46841SOL     OW49490   4.054   4.977  10.134 -0.3145 -0.0175  0.2922
46841SOL    HW149491   4.149   4.991  10.125 -0.3501  1.7286  2.0785
46841SOL    HW249492   4.032   4.918  10.062  2.0427 -0.0791 -0.4625
46842SOL     OW49493   4.626   5.412   1.518  0.5476  0.5866 -0.2235
46842SOL    HW149494   4.655   5.323   1.540 -0.5526 -0.0235 -1.0901
46842SOL    HW249495   4.679   5.437   1.442 -0.9602 -0.4569 -1.7002
46843SOL     OW49496   1.308  12.104   2.914 -0.0223 -0.0837 -0.5075
46843SOL    HW149497   1.400  12.128   2.927 -0.0467 -0.5311  0.6618
46843SOL    HW249498   1.260  12.172   2.962 -0.3209  0.3020 -1.3424
46844SOL     OW49499   0.440   6.932  10.904 -0.1206  0.1424  0.0217
46844SOL    HW149500   0.481   6.999  10.850 -2.1004  1.5613  0.1789
46844SOL    HW249501   0.368   6.898  10.851 -0.4576 -0.3405  0.7575
46845SOL     OW49502   4.828  11.154   9.446  0.4969  0.1687 -0.2725
46845SOL    HW149503   4.861  11.070   9.414  0.7095 -1.1520  3.0030
46845SOL    HW249504   4.902  11.192   9.494  0.0370  1.7244 -0.7280
46846SOL     OW49505  10.042   9.538   8.774 -0.0109  0.1346  0.5425
46846SOL    HW149506   9.995   9.512   8.695 -0.5158  0.4265  0.7356
46846SOL    HW249507  10.133   9.548   8.747 -0.0131 -0.6778  0.2143
46847SOL     OW49508   0.742   2.156   0.625  0.2959  0.3179  0.5029
46847SOL    HW149509   0.711   2.229   0.573 -1.2072 -0.7044 -0.1156
46847SOL    HW249510   0.786   2.098   0.563 -0.1684 -0.1849  0.6346
46848SOL     OW49511   3.698   2.320   9.814  0.0059  0.6575 -0.4768
46848SOL    HW149512   3.617   2.289   9.855  0.0883  1.1827  0.1059
46848SOL    HW249513   3.764   2.257   9.842 -0.2404  0.0549 -1.1974
46849SOL     OW49514   3.919   2.459  12.300  0.4327  0.6532  0.0954
46849SOL    HW149515   3.981   2.521  12.263 -0.7850  1.6785 -0.2837
46849SOL    HW249516   3.853   2.513  12.342 -1.5345 -0.3106 -1.6177
46850SOL     OW49517   8.909   5.248   3.257 -0.2053 -0.6578  0.2298
46850SOL    HW149518   8.969   5.292   3.196  0.6406 -1.8685  0.1597
46850SOL    HW249519   8.966   5.213   3.325 -1.0833  0.1726  1.4373
46851SOL     OW49520   3.803   9.502   5.927 -0.4515  0.0177 -0.3920
46851SOL    HW149521   3.755   9.446   5.866 -0.9465 -0.7788  0.6976
46851SOL    HW249522   3.895   9.489   5.904 -0.6348 -0.1522 -1.0504
46852SOL     OW49523   4.340   9.129  10.657  0.6456  0.5839 -0.2646
46852SOL    HW149524   4.282   9.138  10.582  0.1370  2.0236  0.2603
46852SOL    HW249525   4.290   9.078  10.721  1.3898 -1.3680 -1.1587
46853SOL     OW49526   7.166   6.062   9.359  0.5412  0.1234 -0.3821
46853SOL    HW149527   7.161   6.085   9.452  2.2293 -0.6902 -0.0387
46853SOL    HW249528   7.124   6.135   9.314 -0.1186  0.6355  1.0021
46854SOL     OW49529  10.644   2.624  10.238  0.0924 -0.0872  0.3395
46854SOL    HW149530  10.588   2.664  10.171  0.4007  0.7998  0.5987
46854SOL    HW249531  10.691   2.554  10.192  0.4229  0.6161 -0.4175
46855SOL     OW49532   2.959   7.196   3.576 -0.5119  0.5356 -0.1066
46855SOL    HW149533   3.000   7.203   3.662  0.5890  1.9235 -0.7094
46855SOL    HW249534   2.865   7.199   3.594 -0.3037  2.3128  0.9668
46856SOL     OW49535   9.414   1.260   4.651  0.0398  0.2448  0.0615
46856SOL    HW149536   9.347   1.274   4.585 -0.3353 -0.6567  0.2436
46856SOL    HW249537   9.467   1.188   4.616  0.2498  0.2193  0.4324
46857SOL     OW49538   1.610   6.323   8.914  0.0726 -0.3537  0.8234
46857SOL    HW149539   1.536   6.379   8.938 -0.4091  0.1508 -1.6207
46857SOL    HW249540   1.570   6.243   8.880  0.6059 -0.0324 -0.6315
46858SOL     OW49541   2.303   2.621   4.277 -0.3118  0.3166  0.3155
46858SOL    HW149542   2.355   2.572   4.213  2.0230  3.0372 -0.0710
46858SOL    HW249543   2.214   2.620   4.241  0.5398  0.1050 -1.9464
46859SOL     OW49544   7.342   7.440   5.656 -0.0957 -0.0530  0.1144
46859SOL    HW149545   7.323   7.369   5.595 -0.7675 -0.6833  1.0360
46859SOL    HW249546   7.339   7.519   5.602  0.8845 -0.7280 -0.9680
46860SOL     OW49547  11.803  10.955   9.025  0.2987 -0.1281  0.2879
46860SOL    HW149548  11.720  10.907   9.024  1.1939 -1.7818  0.5681
46860SOL    HW249549  11.804  11.003   8.943  0.4672 -2.6914 -1.3119
46861SOL     OW49550   3.213   0.901   5.908 -0.4667  0.2276 -0.3592
46861SOL    HW149551   3.280   0.941   5.853  1.5955 -0.5178  1.4555
46861SOL    HW249552   3.166   0.974   5.947  0.3436  0.8116 -0.4586
46862SOL     OW49553   6.900   0.495  12.301 -0.2494  0.4747 -0.6402
46862SOL    HW149554   6.879   0.454  12.385  1.2176  1.8683  0.4638
46862SOL    HW249555   6.970   0.441  12.265  0.5893  1.0634  0.0671
46863SOL     OW49556   3.664  10.382  11.339 -0.1932  0.0795 -0.7774
46863SOL    HW149557   3.591  10.354  11.283 -0.8140 -2.0188  0.9517
46863SOL    HW249558   3.623  10.432  11.409  0.0101 -1.0094  0.1413
46864SOL     OW49559   3.885   4.560   6.312 -0.1525 -0.1521  0.3878
46864SOL    HW149560   3.888   4.467   6.291  0.1265  0.0624 -0.5666
46864SOL    HW249561   3.923   4.566   6.399  2.4332 -0.6453 -0.6033
46865SOL     OW49562   9.873   8.708   0.338 -1.0340  0.2375 -0.4580
46865SOL    HW149563   9.958   8.716   0.382 -0.9630 -3.3024  0.2908
46865SOL    HW249564   9.895   8.687   0.247 -1.1195 -0.2988 -0.3530
46866SOL     OW49565   4.937  11.869   3.651 -0.3950 -0.4316  0.1985
46866SOL    HW149566   4.942  11.965   3.645 -0.1331 -0.4825 -0.4708
46866SOL    HW249567   5.004  11.838   3.591  0.1045 -1.0375  1.0531
46867SOL     OW49568   6.722   4.653   1.550  0.3523  0.5308 -0.0865
46867SOL    HW149569   6.774   4.727   1.518  0.0157  0.7714 -0.0827
46867SOL    HW249570   6.678   4.686   1.628 -0.5426  0.6340 -0.6176
46868SOL     OW49571   1.884   5.260  12.558 -0.4667  0.5805 -1.2922
46868SOL    HW149572   1.881   5.164  12.567  1.2530  0.4797 -1.4399
46868SOL    HW249573   1.887   5.292  12.649 -0.3633  0.4601 -1.2528
46869SOL     OW49574   0.003  11.259   0.585 -0.4609 -0.4691 -0.5028
46869SOL    HW149575   0.049  11.342   0.575 -0.2104 -0.4824  0.3744
46869SOL    HW249576  -0.087  11.283   0.606  0.1963 -0.2737  2.7435
46870SOL     OW49577  10.315   9.774   8.531 -0.2905 -0.0014 -0.2085
46870SOL    HW149578  10.402   9.789   8.494 -0.0637 -1.6787 -0.4073
46870SOL    HW249579  10.331   9.729   8.614 -0.9435  0.6595  0.2955
46871SOL     OW49580   6.038   4.402   0.659  0.2992 -0.9288  0.0594
46871SOL    HW149581   6.053   4.307   0.665  1.9491 -1.0488 -3.5296
46871SOL    HW249582   6.126   4.439   0.652 -0.3486  0.9093  1.0378
46872SOL     OW49583   0.611   8.729   1.353 -0.2449  0.3857  0.2674
46872SOL    HW149584   0.516   8.722   1.346 -0.1700  0.0519 -0.4419
46872SOL    HW249585   0.628   8.718   1.447 -1.0014  1.7378  0.5955
46873SOL     OW49586   9.266   1.763   3.168  0.2878  0.1451  0.5044
46873SOL    HW149587   9.182   1.717   3.166  0.4073 -0.2289  2.1823
46873SOL    HW249588   9.254   1.838   3.110 -0.7218 -0.6620 -0.3743
46874SOL     OW49589  11.983   3.277   7.918  0.2912  0.6841  0.1430
46874SOL    HW149590  12.014   3.273   8.008  2.0632 -0.0993 -0.4552
46874SOL    HW249591  12.031   3.207   7.873 -1.2646  0.4238 -1.2015
46875SOL     OW49592   7.606   3.299   8.244 -0.8803  0.0615 -0.0261
46875SOL    HW149593   7.679   3.357   8.266 -0.0293 -1.0035  0.0213
46875SOL    HW249594   7.561   3.283   8.328 -0.0933 -0.6990  0.2642
46876SOL     OW49595  10.234   9.533   6.440  0.5461  0.7962  0.2374
46876SOL    HW149596  10.215   9.495   6.354 -0.1694  1.6035  0.0228
46876SOL    HW249597  10.292   9.607   6.421  2.6070 -0.5977  0.7255
46877SOL     OW49598   2.809  11.992   0.731  0.8714  0.0800  0.1133
46877SOL    HW149599   2.726  11.949   0.713  1.0614 -0.0304 -0.5096
46877SOL    HW249600   2.836  11.957   0.816  0.0291  0.5186  0.5704
46878SOL     OW49601  12.502  12.410  11.790  0.5623 -0.2860 -0.4722
46878SOL    HW149602  12.487  12.450  11.704  2.3319 -0.2615 -0.8056
46878SOL    HW249603  12.476  12.477  11.853 -0.3396 -0.1408 -0.9923
46879SOL     OW49604   3.480   7.221   3.401 -0.1303  0.9636  0.1861
46879SOL    HW149605   3.549   7.184   3.455 -0.4837  0.4163  0.2745
46879SOL    HW249606   3.477   7.165   3.324 -0.2084  1.2191  0.0020
46880SOL     OW49607   7.821   0.756   0.520 -0.4904  0.2263 -0.1347
46880SOL    HW149608   7.811   0.708   0.438 -1.0095 -2.4051  1.3558
46880SOL    HW249609   7.912   0.740   0.546 -1.0224 -1.1562  1.0090
46881SOL     OW49610   2.933   5.802   5.321 -0.2437  0.9326  1.2809
46881SOL    HW149611   2.892   5.883   5.292  1.1924  1.2643  0.0996
46881SOL    HW249612   2.976   5.824   5.404 -0.5272  1.1445  1.3744
46882SOL     OW49613   8.950   8.129  10.082 -0.2814 -0.9099 -0.1129
46882SOL    HW149614   8.970   8.182  10.005  1.6207  0.8219  1.4358
46882SOL    HW249615   8.998   8.047  10.069  4.1039  1.1445  1.1443
46883SOL     OW49616   5.619   6.908  10.179 -0.3794 -0.0585  0.0724
46883SOL    HW149617   5.546   6.859  10.143  0.2434 -0.3487 -0.8376
46883SOL    HW249618   5.639   6.865  10.262 -0.3233 -0.8799 -0.3551
46884SOL     OW49619   1.796   7.609  11.581 -0.0544 -0.2189  0.0219
46884SOL    HW149620   1.807   7.674  11.650 -0.0454 -0.4132  0.2035
46884SOL    HW249621   1.877   7.558  11.582  0.0607 -0.0435 -0.3204
46885SOL     OW49622   4.852   1.661   2.731 -0.2266 -0.2850  0.0538
46885SOL    HW149623   4.809   1.695   2.809  1.2465 -0.9003  1.1847
46885SOL    HW249624   4.904   1.587   2.762  1.4382  0.2605 -1.2707
46886SOL     OW49625  10.363   2.626   2.220  0.2347  0.3567 -0.2845
46886SOL    HW149626  10.365   2.715   2.185 -1.5374  0.1489 -0.9974
46886SOL    HW249627  10.411   2.573   2.155  1.1863  0.7474  0.0824
46887SOL     OW49628   3.635   8.027   7.997 -0.3097 -0.2528 -0.1663
46887SOL    HW149629   3.699   8.087   8.036  1.5477 -0.5024 -2.5936
46887SOL    HW249630   3.668   7.940   8.017 -1.3345 -0.4659  0.7171
46888SOL     OW49631   9.377   7.682   2.075  0.0663  0.4693  0.2056
46888SOL    HW149632   9.431   7.759   2.055 -1.6114  2.0097  1.2153
46888SOL    HW249633   9.309   7.683   2.008  1.3312 -1.5903 -1.1980
46889SOL     OW49634   9.803   9.025   7.058 -0.0902  0.0886  0.1782
46889SOL    HW149635   9.713   8.998   7.041  0.0388 -0.1831 -0.0833
46889SOL    HW249636   9.829   8.974   7.135 -0.1513  0.1436  0.2349
46890SOL     OW49637   2.671   8.756   0.526  0.3341 -0.3841 -0.3113
46890SOL    HW149638   2.583   8.731   0.553  0.7839 -1.0678  0.5680
46890SOL    HW249639   2.664   8.769   0.431 -0.7933 -0.0499 -0.1947
46891SOL     OW49640   0.107   7.707   2.564  0.0479  0.0319  0.5075
46891SOL    HW149641   0.060   7.789   2.573 -0.5634 -0.1002 -1.0667
46891SOL    HW249642   0.182   7.729   2.508  0.4578 -0.2813  0.9229
46892SOL     OW49643   4.520   0.916   4.616  0.0333  0.0917 -0.5311
46892SOL    HW149644   4.607   0.944   4.644  0.0856 -0.0535 -0.5475
46892SOL    HW249645   4.464   0.933   4.691  0.2494 -0.6890 -0.1868
46893SOL     OW49646   4.930   1.970   8.977  0.2198 -0.1017  0.2725
46893SOL    HW149647   5.023   1.983   8.960 -0.0163  0.0656 -0.9660
46893SOL    HW249648   4.896   2.058   8.995  0.4394 -0.2593  1.5389
46894SOL     OW49649  12.448   4.047  12.414 -0.1236  0.1043 -0.1600
46894SOL    HW149650  12.471   4.100  12.490 -0.0054 -0.2089  0.0282
46894SOL    HW249651  12.532   4.013  12.382 -0.0667  0.9696 -0.9943
46895SOL     OW49652  10.377   7.966   3.755  0.5118  0.3393 -0.2833
46895SOL    HW149653  10.399   7.977   3.847 -0.0129 -0.7684 -0.0130
46895SOL    HW249654  10.308   8.031   3.738 -1.7291 -1.5724  0.9785
46896SOL     OW49655   4.871  10.576  10.924  0.3200 -0.4595 -0.0066
46896SOL    HW149656   4.829  10.656  10.956  0.6054 -1.1245  2.1364
46896SOL    HW249657   4.808  10.507  10.943  0.9039 -1.0076 -0.0571
46897SOL     OW49658   0.297   0.615   8.122 -0.1305  0.3809  0.2361
46897SOL    HW149659   0.209   0.597   8.090  0.9314 -2.2074 -1.6587
46897SOL    HW249660   0.317   0.541   8.180  1.5943 -0.4929 -1.3587
46898SOL     OW49661   2.612   4.525   1.964  0.3344 -0.1754  0.0680
46898SOL    HW149662   2.519   4.502   1.955  0.2239  0.3981 -0.2645
46898SOL    HW249663   2.615   4.584   2.040  0.4515 -0.3064  0.1670
46899SOL     OW49664   9.717   1.287   5.693 -0.3232 -0.8238  0.0673
46899SOL    HW149665   9.697   1.373   5.657  0.6747 -1.2343 -1.5773
46899SOL    HW249666   9.688   1.291   5.785  0.6851  1.6029  0.3317
46900SOL     OW49667   2.532   2.082   7.327  0.1174  0.4935 -0.2006
46900SOL    HW149668   2.495   2.076   7.415  2.7641  0.8979  1.0472
46900SOL    HW249669   2.458   2.104   7.271 -2.2692 -2.7926  1.3760
46901SOL     OW49670   8.566   0.363   5.712 -0.1633  0.2769 -0.3693
46901SOL    HW149671   8.654   0.328   5.722  0.9008  2.1402 -2.3412
46901SOL    HW249672   8.563   0.436   5.774  0.4550  1.4639 -1.6897
46902SOL     OW49673  11.771   7.699  10.433 -0.4562  0.2617  0.4091
46902SOL    HW149674  11.863   7.685  10.457 -0.2120 -1.1010 -1.1699
46902SOL    HW249675  11.726   7.711  10.517  1.0097 -0.0623  1.2694
46903SOL     OW49676   3.717   0.262   2.058 -0.0079 -0.6501 -0.2074
46903SOL    HW149677   3.665   0.319   2.002 -1.4587 -1.4185  0.2709
46903SOL    HW249678   3.800   0.307   2.069 -0.4541  0.4910 -1.2844
46904SOL     OW49679   0.941   0.007   5.155  0.4413  0.0119 -0.5617
46904SOL    HW149680   1.001   0.071   5.117  0.7370 -0.2620 -0.5665
46904SOL    HW249681   0.874  -0.005   5.089 -0.4418  1.4111  0.0332
46905SOL     OW49682   1.205   8.744   6.426 -0.6180 -0.1157 -0.0883
46905SOL    HW149683   1.267   8.796   6.477 -0.6168 -0.9773  0.8208
46905SOL    HW249684   1.133   8.804   6.406  0.3445  0.8075 -0.8903
46906SOL     OW49685   2.000  11.668   2.491 -0.1184  0.5960  0.8571
46906SOL    HW149686   1.967  11.723   2.562 -1.3288 -0.9889  1.5901
46906SOL    HW249687   2.058  11.605   2.534 -0.0047  0.2966  0.2808
46907SOL     OW49688   3.962   4.542   8.111 -0.3178 -0.0040 -0.2345
46907SOL    HW149689   3.884   4.595   8.127 -0.3971  0.0425 -0.7650
46907SOL    HW249690   3.929   4.452   8.106 -0.0220 -0.3213  2.0442
46908SOL     OW49691   5.452   1.704   1.965 -0.4466 -0.3519 -0.2134
46908SOL    HW149692   5.450   1.800   1.971  2.6853 -0.2246  0.5073
46908SOL    HW249693   5.419   1.685   1.877 -0.2178  1.4666 -0.7388
46909SOL     OW49694   0.296   0.015   7.087  0.0378  0.7765  0.2165
46909SOL    HW149695   0.263  -0.043   7.017 -0.7899 -1.3659  2.2520
46909SOL    HW249696   0.218   0.056   7.123  0.2234  0.2546  1.2274
46910SOL     OW49697   3.309   8.157  10.168 -0.2167 -0.2506 -0.5162
46910SOL    HW149698   3.229   8.205  10.190 -0.0634 -0.3636  0.3308
46910SOL    HW249699   3.287   8.065  10.186  0.8384 -0.0765  2.2015
46911SOL     OW49700   7.073   7.343   7.402  0.6548 -0.3943  0.2841
46911SOL    HW149701   7.078   7.437   7.419  0.8433 -0.6516  1.7441
46911SOL    HW249702   7.132   7.328   7.328  1.9591  0.3881  1.1425
46912SOL     OW49703   9.928   2.368  12.262 -0.1696  1.0089 -0.1960
46912SOL    HW149704   9.901   2.456  12.237  0.8432  1.2413 -0.5240
46912SOL    HW249705   9.927   2.370  12.358 -0.2131  1.3593 -0.2000
46913SOL     OW49706   9.590   2.585  11.186  0.3773  0.4522 -0.9082
46913SOL    HW149707   9.684   2.585  11.168  0.2913 -0.4638 -1.4011
46913SOL    HW249708   9.559   2.670  11.154  0.7688  0.1263 -2.1884
46914SOL     OW49709   0.700   2.734   3.018  0.2158 -0.2483  0.1017
46914SOL    HW149710   0.653   2.787   3.082 -0.2775 -0.6621  0.0893
46914SOL    HW249711   0.673   2.769   2.933  3.9055  3.0338 -0.0131
46915SOL     OW49712  10.366   6.506   9.637 -0.6114  0.1031  0.4869
46915SOL    HW149713  10.286   6.470   9.597  1.0742 -0.6923 -2.5176
46915SOL    HW249714  10.372   6.594   9.601  1.1141 -0.7422 -1.5285
46916SOL     OW49715   1.962   2.438  11.641 -0.1424 -0.1007 -0.2995
46916SOL    HW149716   2.020   2.450  11.717  0.5544 -0.0561 -0.8285
46916SOL    HW249717   2.008   2.481  11.569 -1.8376  1.8730 -0.2890
46917SOL     OW49718   0.417   3.245  11.971 -0.0350 -0.3273  0.6473
46917SOL    HW149719   0.444   3.187  12.042  0.1985 -1.8349 -0.6178
46917SOL    HW249720   0.361   3.311  12.013 -0.4164 -1.5519  2.1224
46918SOL     OW49721  12.186   4.371  11.940  0.3730 -0.2160  0.0558
46918SOL    HW149722  12.156   4.398  12.027  0.6983 -0.4077  0.2319
46918SOL    HW249723  12.183   4.451  11.887 -0.2062 -0.1825  0.1327
46919SOL     OW49724   5.516  10.953  12.022  0.1708  0.4263 -0.8940
46919SOL    HW149725   5.518  11.035  12.071  1.5788 -1.1326  1.9321
46919SOL    HW249726   5.453  10.899  12.068  0.9423 -0.8480 -1.2785
46920SOL     OW49727  10.920   0.027   0.825 -0.2886  0.6532 -0.0750
46920SOL    HW149728  10.957  -0.005   0.908 -0.9644  1.3952  0.5397
46920SOL    HW249729  10.995   0.036   0.767 -0.0107 -1.5624 -0.1481
46921SOL     OW49730  11.940   7.129  11.375 -0.7481 -0.5413 -0.3074
46921SOL    HW149731  11.966   7.210  11.419 -0.6745 -0.6117 -0.2213
46921SOL    HW249732  11.855   7.149  11.337 -0.0966  0.0443 -1.5122
46922SOL     OW49733   0.531   3.494  10.847 -0.3460  0.1270  0.1551
46922SOL    HW149734   0.499   3.495  10.937 -0.1997  0.7348  0.2054
46922SOL    HW249735   0.470   3.549  10.799  0.4351  1.0444  0.1898
46923SOL     OW49736   3.462  11.552  11.276  0.2449  0.1229 -0.0327
46923SOL    HW149737   3.391  11.501  11.237 -1.3457  0.9513  1.6367
46923SOL    HW249738   3.419  11.632  11.308  1.9959  0.7855  0.7717
46924SOL     OW49739   6.277   8.693   8.454  0.2181  0.1313  0.0385
46924SOL    HW149740   6.281   8.713   8.361  1.8442  0.0558  0.0694
46924SOL    HW249741   6.278   8.598   8.459  4.7530 -0.0484  0.1422
46925SOL     OW49742   4.353   4.055   7.748  0.3891  0.0301 -0.2255
46925SOL    HW149743   4.424   4.094   7.799  0.0999 -0.5258  0.6150
46925SOL    HW249744   4.278   4.113   7.763  0.7328  0.8178 -1.3969
46926SOL     OW49745   9.995   8.251   1.168 -0.4912  0.6704 -0.2638
46926SOL    HW149746  10.037   8.221   1.249  0.4590  2.0082 -0.2141
46926SOL    HW249747   9.917   8.196   1.159  0.0041 -0.2748  0.9429
46927SOL     OW49748   8.683   0.160   4.312  0.0235 -0.2784 -0.0059
46927SOL    HW149749   8.599   0.195   4.282 -0.3277 -0.5077  0.6773
46927SOL    HW249750   8.672   0.065   4.313  0.3621 -0.3208 -0.1162
46928SOL     OW49751   4.083   3.913   0.040 -0.3584 -0.1225  0.6704
46928SOL    HW149752   3.995   3.907   0.077 -1.2207  0.4550 -1.1562
46928SOL    HW249753   4.081   3.854  -0.036  0.3235  1.0161 -0.2660
46929SOL     OW49754   6.066   2.470   9.890  0.1326  0.3406  0.1342
46929SOL    HW149755   6.126   2.542   9.870 -0.3799  1.2929  1.8535
46929SOL    HW249756   6.108   2.423   9.962 -0.1228 -0.3734 -0.1714
46930SOL     OW49757   7.363   3.052   8.479 -0.4764  0.3003  0.0982
46930SOL    HW149758   7.409   3.004   8.411  1.4919  0.6870  1.0798
46930SOL    HW249759   7.377   3.144   8.458  0.1545  0.4251  0.9944
46931SOL     OW49760  12.042   1.304   3.836 -0.5274  0.3362  0.3699
46931SOL    HW149761  12.073   1.395   3.834 -0.9830  0.4905  0.3628
46931SOL    HW249762  11.957   1.308   3.878 -0.1944 -0.2021  1.1217
46932SOL     OW49763   8.180   3.796   3.772 -0.2936  0.5024 -0.0802
46932SOL    HW149764   8.142   3.884   3.774  0.2827  0.7423  0.5179
46932SOL    HW249765   8.186   3.775   3.679  0.3070  1.4353 -0.2708
46933SOL     OW49766  10.419  10.289  10.946  0.2619 -0.0159 -0.3061
46933SOL    HW149767  10.334  10.325  10.925  1.1031  1.5763 -1.1113
46933SOL    HW249768  10.406  10.243  11.029 -1.7165 -1.1983 -1.2147
46934SOL     OW49769   8.783   7.933   7.957  0.9203  0.0601  0.0493
46934SOL    HW149770   8.769   8.027   7.945 -1.0311 -0.3449 -1.2718
46934SOL    HW249771   8.815   7.926   8.047  0.4006  1.9355  0.4382
46935SOL     OW49772   1.510   2.170   6.158  0.1341  0.1708 -0.0464
46935SOL    HW149773   1.487   2.141   6.069  0.1022  0.0787 -0.0080
46935SOL    HW249774   1.427   2.199   6.195  0.2434  0.7346 -0.2414
46936SOL     OW49775   9.484   0.292   8.830 -0.4528 -0.7298 -0.0611
46936SOL    HW149776   9.526   0.222   8.880 -1.2544 -0.2589  1.3453
46936SOL    HW249777   9.442   0.347   8.897 -0.8327  0.4322 -1.2081
46937SOL     OW49778   4.306   3.943   1.808  0.3803 -0.1019 -0.2136
46937SOL    HW149779   4.259   4.004   1.865  1.2323  0.9671 -0.6119
46937SOL    HW249780   4.348   3.881   1.867  3.5349  2.5904  0.6209
46938SOL     OW49781   7.875  11.245   0.586  0.2909  0.2661  0.2722
46938SOL    HW149782   7.952  11.257   0.530 -0.2966 -0.3806 -0.7006
46938SOL    HW249783   7.800  11.256   0.528 -0.3284 -1.2126  0.7476
46939SOL     OW49784  12.445  11.666   7.861 -0.5223  0.4051  0.0461
46939SOL    HW149785  12.457  11.678   7.955  2.4495 -1.6865  0.1029
46939SOL    HW249786  12.397  11.744   7.832 -0.9823  1.4066  3.1746
46940SOL     OW49787   2.015  11.666   0.001  0.2994  0.0223 -0.3051
46940SOL    HW149788   2.080  11.706  -0.057  0.5960  0.6530  0.4526
46940SOL    HW249789   2.043  11.690   0.089 -0.0258 -1.1122  0.1211
46941SOL     OW49790   7.345  11.056   4.622 -0.3832  0.0221 -0.0520
46941SOL    HW149791   7.312  11.108   4.548  1.0319 -0.6992 -1.2621
46941SOL    HW249792   7.273  11.053   4.684 -1.3116  1.4252 -1.0126
46942SOL     OW49793  10.979   9.135   7.977  0.0390  0.4301 -0.0194
46942SOL    HW149794  10.885   9.120   7.983 -0.0750  1.5666  1.6990
46942SOL    HW249795  11.004   9.096   7.893 -1.8376 -0.4284 -0.2349
46943SOL     OW49796  10.281   2.136   5.402  0.7625 -0.3144 -0.1114
46943SOL    HW149797  10.344   2.204   5.426 -0.6818  0.3839  1.9981
46943SOL    HW249798  10.331   2.054   5.409  2.0503  0.3718 -0.8960
46944SOL     OW49799   8.821   9.317   3.552 -0.5793 -0.6265 -0.3295
46944SOL    HW149800   8.857   9.318   3.641  0.1455  0.7264 -0.6131
46944SOL    HW249801   8.744   9.373   3.557 -0.4456 -0.4183 -0.5833
46945SOL     OW49802  12.572   9.105   9.986 -0.2845  0.3544  0.0362
46945SOL    HW149803  12.625   9.154   9.923 -0.5168  1.2168  0.4927
46945SOL    HW249804  12.632   9.041  10.023 -0.0952 -0.0496 -0.9221
46946SOL     OW49805  12.363  11.334   0.339 -0.1071 -0.3372 -0.5747
46946SOL    HW149806  12.400  11.401   0.281  0.0429 -0.4341 -0.5905
46946SOL    HW249807  12.354  11.257   0.283 -4.3170  0.7840 -1.8600
46947SOL     OW49808   8.365   4.652   3.398  0.2207 -0.0037 -0.5002
46947SOL    HW149809   8.428   4.583   3.378  1.0820 -0.2791  2.6789
46947SOL    HW249810   8.419   4.726   3.427 -0.8153  0.3494  0.6188
46948SOL     OW49811   3.259   1.602   8.221 -0.0583 -0.2487 -0.8741
46948SOL    HW149812   3.246   1.554   8.139 -2.7859 -0.5057 -0.3676
46948SOL    HW249813   3.178   1.589   8.270  1.8582 -1.0530  2.4028
46949SOL     OW49814  10.523   6.133   3.880 -0.0843 -0.0674 -0.4760
46949SOL    HW149815  10.592   6.198   3.896 -1.0889  0.7177  0.9129
46949SOL    HW249816  10.456   6.182   3.833  1.1900 -1.4050 -4.0067
46950SOL     OW49817   6.995   5.539   3.288 -0.3643  0.0609 -0.5406
46950SOL    HW149818   6.918   5.593   3.274  0.3108  0.6833 -2.0234
46950SOL    HW249819   6.994   5.476   3.216 -0.4982 -1.1951  0.5044
46951SOL     OW49820  12.311   7.043   5.027 -0.2246 -0.3628 -0.1222
46951SOL    HW149821  12.394   7.057   4.981  1.1119  1.8049  2.6467
46951SOL    HW249822  12.244   7.055   4.960  1.6361 -0.1873 -2.0567
46952SOL     OW49823   7.517   1.656   2.563  0.6238  0.5076  0.0570
46952SOL    HW149824   7.557   1.742   2.577  1.0087  0.2071  0.8588
46952SOL    HW249825   7.580   1.607   2.511  1.1279  0.1854  0.9442
46953SOL     OW49826   7.530   9.110   7.152 -0.1472 -0.5275 -0.1307
46953SOL    HW149827   7.435   9.099   7.153 -0.3587  1.0858 -0.8555
46953SOL    HW249828   7.562   9.032   7.105 -1.1018 -1.0150 -0.0119
46954SOL     OW49829  10.580   4.500   2.163 -0.5970  0.4130 -0.1385
46954SOL    HW149830  10.627   4.528   2.241 -1.8501 -2.1406  1.6764
46954SOL    HW249831  10.488   4.498   2.190 -1.0806 -0.4174 -1.7138
46955SOL     OW49832  12.587   4.848   5.003 -0.3467  0.4604  0.1073
46955SOL    HW149833  12.592   4.760   4.965  0.8779  0.9689 -0.9756
46955SOL    HW249834  12.523   4.894   4.949  0.0591  0.6421 -0.2271
46956SOL     OW49835   4.730   8.707   1.790  1.4702  0.3578 -0.1797
46956SOL    HW149836   4.695   8.623   1.760 -0.2562  1.1723 -0.5660
46956SOL    HW249837   4.711   8.768   1.719 -0.6297  1.8361  1.5299
46957SOL     OW49838   5.104   9.134   9.276 -0.1819  0.3475 -0.1560
46957SOL    HW149839   5.071   9.211   9.323 -0.2733  0.1564  0.0901
46957SOL    HW249840   5.045   9.063   9.302  0.3552  0.0266  0.2018
46958SOL     OW49841   1.232   2.688   7.836 -0.3559 -0.2329  0.2797
46958SOL    HW149842   1.310   2.738   7.862 -0.8242  0.5888  0.1387
46958SOL    HW249843   1.233   2.692   7.740 -0.7925  0.1389  0.2876
46959SOL     OW49844   1.504  10.972  10.613  0.0288 -0.5745 -0.1195
46959SOL    HW149845   1.583  10.937  10.571  0.5027  0.8164 -0.4388
46959SOL    HW249846   1.537  11.043  10.669 -0.6320 -1.9772  2.2155
46960SOL     OW49847  11.017  10.812   3.238  0.7241  0.7296 -0.0123
46960SOL    HW149848  11.086  10.822   3.173  0.9125 -1.4506 -0.2308
46960SOL    HW249849  11.056  10.757   3.306 -1.0694 -1.5650 -0.6972
46961SOL     OW49850   5.531   6.230   0.450  0.1170  0.0456 -0.2771
46961SOL    HW149851   5.552   6.137   0.449 -0.9014 -0.1908 -0.8250
46961SOL    HW249852   5.569   6.262   0.532  2.2127 -0.4194 -0.9974
46962SOL     OW49853   8.595   1.836   7.913  0.5823 -0.0425  0.1232
46962SOL    HW149854   8.641   1.898   7.970  0.7671  0.8313 -0.9594
46962SOL    HW249855   8.541   1.891   7.857 -0.1187 -0.9408 -0.0921
46963SOL     OW49856   6.432   9.204   0.800 -0.6871 -0.3352  0.2291
46963SOL    HW149857   6.373   9.273   0.830 -0.5275 -0.3074  0.4855
46963SOL    HW249858   6.502   9.202   0.865 -1.2005 -1.4102  0.7798
46964SOL     OW49859   6.769  12.503   2.186  0.5484 -0.2884  0.0422
46964SOL    HW149860   6.735  12.437   2.125 -1.6906  0.2225  0.6633
46964SOL    HW249861   6.741  12.473   2.272 -0.5896  1.4578  0.3350
46965SOL     OW49862   0.963   7.559  10.460 -0.1183  0.1413 -0.3257
46965SOL    HW149863   0.935   7.650  10.448  1.0165  0.5822  0.3202
46965SOL    HW249864   0.907   7.510  10.400  0.0652  1.3974 -1.5796
46966SOL     OW49865   8.258   7.025   2.347 -0.5473  0.0757 -0.8037
46966SOL    HW149866   8.167   7.026   2.375 -0.2951  1.1820  0.0430
46966SOL    HW249867   8.308   7.006   2.427  0.0172  0.4296 -1.0627
46967SOL     OW49868   8.334   4.851   9.987 -0.6100 -0.5281  0.0602
46967SOL    HW149869   8.405   4.855   9.922 -0.7187 -0.5494 -0.0619
46967SOL    HW249870   8.329   4.939  10.023 -1.9127  0.0671 -1.4357
46968SOL     OW49871   6.454   8.022   4.671 -0.1909  0.2305 -0.0733
46968SOL    HW149872   6.362   8.026   4.696 -0.4282  2.7447 -1.0645
46968SOL    HW249873   6.459   8.071   4.589  2.3134  1.9564  0.9655
46969SOL     OW49874   7.917   8.081   3.748  0.1304  0.4157 -0.5385
46969SOL    HW149875   7.877   8.081   3.835 -1.3430  1.3412 -1.1769
46969SOL    HW249876   7.846   8.059   3.689  1.0982 -0.1269 -1.5296
46970SOL     OW49877   3.588   8.582   2.726  0.0043 -1.1306  0.2169
46970SOL    HW149878   3.615   8.494   2.753  4.0168 -0.1054  0.1819
46970SOL    HW249879   3.560   8.625   2.807  2.3948 -1.1362  1.1114
46971SOL     OW49880   6.337   1.743   7.904 -0.4473  0.7886 -0.4953
46971SOL    HW149881   6.371   1.816   7.956 -3.3725  1.1437  1.1438
46971SOL    HW249882   6.272   1.701   7.961 -0.2274 -1.9614 -2.0911
46972SOL     OW49883   9.761   9.708   9.769 -0.0513 -0.2940 -0.2882
46972SOL    HW149884   9.813   9.631   9.794 -1.7012 -1.3996 -0.1309
46972SOL    HW249885   9.756   9.760   9.849  0.7902 -0.1630 -0.3056
46973SOL     OW49886   1.895  12.051   4.435 -0.0881  0.2155  0.1946
46973SOL    HW149887   1.848  11.978   4.395  0.2859  0.8365 -1.4434
46973SOL    HW249888   1.836  12.125   4.428  0.9772  0.9555 -1.7075
46974SOL     OW49889   1.385   7.685  10.729  0.3910 -0.2454 -0.6192
46974SOL    HW149890   1.366   7.779  10.732 -1.0434 -0.5177  1.7764
46974SOL    HW249891   1.299   7.644  10.722  0.9326 -1.4060 -0.5937
46975SOL     OW49892  10.565   4.132   7.331  0.3618 -0.4991  0.1155
46975SOL    HW149893  10.566   4.116   7.425 -0.6365  0.5952  0.3430
46975SOL    HW249894  10.495   4.075   7.297  0.4755 -0.6238  0.0890
46976SOL     OW49895  12.414   6.867   8.982 -0.0571 -0.3535 -0.9790
46976SOL    HW149896  12.440   6.953   9.016  0.8918 -1.0241  0.0533
46976SOL    HW249897  12.404   6.881   8.888  0.2740  0.8449 -0.8547
46977SOL     OW49898  12.380   7.264  10.300 -0.4077 -0.7573 -0.0366
46977SOL    HW149899  12.288   7.275  10.275  0.1432 -2.4701 -3.2232
46977SOL    HW249900  12.385   7.174  10.333  0.1326 -0.6048  0.3160
46978SOL     OW49901   0.845   3.076   3.482  0.0096  0.4928 -0.0502
46978SOL    HW149902   0.866   3.093   3.574 -2.9902  3.3359  0.3027
46978SOL    HW249903   0.765   3.024   3.485 -0.2514  0.8129 -1.0392
46979SOL     OW49904   2.980   1.360   5.461 -0.2706  0.0058 -0.2834
46979SOL    HW149905   2.985   1.368   5.556 -1.0627 -0.4118 -0.2057
46979SOL    HW249906   3.033   1.434   5.428  1.8726 -1.1007  0.4653
46980SOL     OW49907  10.674  12.173   4.774 -0.0147  0.5925  0.8526
46980SOL    HW149908  10.632  12.251   4.811 -2.3251  0.2625 -0.8394
46980SOL    HW249909  10.606  12.106   4.777  0.5618 -0.1766 -1.4294
46981SOL     OW49910   9.805   1.261   8.862  0.9153 -0.0715 -0.0791
46981SOL    HW149911   9.709   1.253   8.858  0.9948 -2.1737  1.2322
46981SOL    HW249912   9.830   1.281   8.772 -0.7572  0.8993 -0.3863
46982SOL     OW49913   1.191   2.753   6.377 -0.2101  0.1520  0.3737
46982SOL    HW149914   1.230   2.672   6.345 -0.4580  0.7055 -1.4735
46982SOL    HW249915   1.098   2.744   6.358  0.0698  1.8808 -2.4464
46983SOL     OW49916   4.155   8.738   4.056  0.2272  0.7124  0.1735
46983SOL    HW149917   4.185   8.803   4.119 -0.2683  2.5177 -1.3510
46983SOL    HW249918   4.232   8.683   4.039  1.3887  2.3508 -0.1900
46984SOL     OW49919   1.437   8.482   0.287  0.4140  0.4236 -0.2540
46984SOL    HW149920   1.447   8.390   0.262 -0.5205  0.0623  0.6148
46984SOL    HW249921   1.415   8.527   0.206 -1.1240 -0.4706 -0.3647
46985SOL     OW49922   9.939  10.924  10.887  0.3346  0.6043 -0.0204
46985SOL    HW149923   9.924  10.972  10.968 -0.6948 -0.0424  0.1917
46985SOL    HW249924   9.913  10.834  10.907 -0.5917  0.5695 -1.2446
46986SOL     OW49925   4.363  10.564  10.769  0.0253 -0.0984 -0.4072
46986SOL    HW149926   4.342  10.535  10.858 -0.1167  1.7647  0.2133
46986SOL    HW249927   4.458  10.576  10.769 -0.0187  0.2773 -0.3695
46987SOL     OW49928  10.096  11.827   7.352  0.5505 -0.1723 -0.3945
46987SOL    HW149929  10.163  11.858   7.291  1.0412 -0.2677  0.0794
46987SOL    HW249930  10.017  11.818   7.300  0.4243  1.6956 -0.5860
46988SOL     OW49931   6.980  12.533   4.719 -0.4561 -0.6001  0.4204
46988SOL    HW149932   6.913  12.475   4.683  0.2767 -0.6030 -1.0126
46988SOL    HW249933   7.043  12.474   4.761 -0.0125 -0.8225 -0.5270
46989SOL     OW49934   8.302   1.605   3.997  0.3527  0.6270 -0.1803
46989SOL    HW149935   8.257   1.680   4.038  1.1013  2.2502 -2.1378
46989SOL    HW249936   8.392   1.612   4.029  0.2556  0.0929  0.2159
46990SOL     OW49937   7.620   1.310   0.648 -0.2291  0.3172 -0.7166
46990SOL    HW149938   7.623   1.406   0.643 -0.8167  0.3519 -0.5086
46990SOL    HW249939   7.666   1.289   0.729 -3.3917  0.7059  1.4039
46991SOL     OW49940   4.046   0.075  10.179 -0.4685  0.2877  0.1375
46991SOL    HW149941   4.038   0.042  10.090  1.5266 -0.6054  0.2231
46991SOL    HW249942   3.969   0.130  10.192  0.0907  1.9250 -2.7425
46992SOL     OW49943   9.884   5.869   7.849 -0.0680 -0.3531 -0.2012
46992SOL    HW149944   9.821   5.813   7.895  1.8100 -0.4499  2.4822
46992SOL    HW249945   9.937   5.809   7.798 -0.4063 -0.5797 -0.2878
46993SOL     OW49946   5.955   8.344  11.947 -0.6477  0.6304  0.0975
46993SOL    HW149947   5.891   8.407  11.912 -1.0805  0.4521  0.5459
46993SOL    HW249948   5.917   8.259  11.925  0.4094  0.5014 -1.3626
46994SOL     OW49949   0.537  10.817   5.744 -0.0201  0.0119 -0.3624
46994SOL    HW149950   0.592  10.786   5.672  0.1610  0.5481 -0.4637
46994SOL    HW249951   0.456  10.767   5.736  0.4572 -0.7997 -0.1983
46995SOL     OW49952   5.229   6.573   2.595 -0.0102  0.2071 -0.5860
46995SOL    HW149953   5.243   6.657   2.552 -1.3848  0.5439 -0.4233
46995SOL    HW249954   5.230   6.509   2.524 -0.3538  0.5300 -0.8846
46996SOL     OW49955   2.407  10.508   1.598  0.7647  0.2238 -0.2250
46996SOL    HW149956   2.335  10.518   1.536  0.5359 -0.1455 -0.0238
46996SOL    HW249957   2.469  10.576   1.573 -0.0005  1.0648  0.0803
46997SOL     OW49958  10.011   1.908   5.667 -0.2078  0.1689 -0.3419
46997SOL    HW149959  10.049   1.950   5.745 -0.0742  0.4892 -0.5762
46997SOL    HW249960  10.018   1.975   5.599 -0.7619  0.0582 -0.5069
46998SOL     OW49961   5.464   1.241   4.763  0.3844 -0.1637  0.1611
46998SOL    HW149962   5.433   1.192   4.839 -0.1597 -1.8356 -1.0632
46998SOL    HW249963   5.515   1.313   4.799  2.1108 -2.2145  2.0601
46999SOL     OW49964   0.740   4.955   5.754  0.3704 -0.2871  0.3551
46999SOL    HW149965   0.823   4.979   5.711 -0.0700 -0.6659 -0.7347
46999SOL    HW249966   0.763   4.881   5.809  0.4797 -1.3900 -1.1166
47000SOL     OW49967   6.813   7.198  10.959  0.5477 -0.7228 -0.2811
47000SOL    HW149968   6.844   7.191  11.049  1.2758  0.5653 -0.4130
47000SOL    HW249969   6.823   7.290  10.937 -0.2653 -0.8940 -1.4623
47001SOL     OW49970   6.934   9.371   5.949 -0.0009 -0.3149 -0.0665
47001SOL    HW149971   6.877   9.382   5.873 -2.2920 -0.5718  1.5219
47001SOL    HW249972   6.910   9.442   6.008  0.9073 -0.7845  0.9007
47002SOL     OW49973   1.437  12.519   5.992  0.1242  0.5020 -0.3370
47002SOL    HW149974   1.397  12.558   6.069  1.5479  1.4178 -0.0244
47002SOL    HW249975   1.508  12.465   6.027  1.6936  2.0424 -1.0502
47003SOL     OW49976   3.015   3.531   4.740 -0.0938  0.2758 -0.0272
47003SOL    HW149977   3.016   3.450   4.689 -0.0250  0.8563 -0.9822
47003SOL    HW249978   2.991   3.599   4.676 -0.1547  1.0093  0.7536
47004SOL     OW49979  10.977   3.076   8.289  0.2271  0.5299 -0.3839
47004SOL    HW149980  11.000   3.161   8.251 -1.1043  0.4836 -1.3581
47004SOL    HW249981  10.947   3.023   8.215 -0.2642 -0.3405  0.3994
47005SOL     OW49982   5.934  10.853   7.214  0.4399  0.3194  0.0589
47005SOL    HW149983   6.025  10.880   7.226  1.0276 -1.2255 -0.6611
47005SOL    HW249984   5.939  10.774   7.160 -1.2332 -0.6497  1.2180
47006SOL     OW49985   9.514   8.531   3.079 -0.2163 -0.1482 -0.0877
47006SOL    HW149986   9.536   8.474   3.005  2.6886  1.3836 -0.5435
47006SOL    HW249987   9.443   8.586   3.046 -0.3472 -0.8221 -0.9911
47007SOL     OW49988   0.414  11.320   9.382 -0.2513  0.3154  0.2308
47007SOL    HW149989   0.463  11.401   9.373  0.4987 -0.2133 -0.5102
47007SOL    HW249990   0.479  11.250   9.377 -0.9195 -0.3558  0.5243
47008SOL     OW49991   3.801   4.125   4.119 -0.0346  0.4379  0.2028
47008SOL    HW149992   3.888   4.162   4.135  0.0907 -0.2066  1.0538
47008SOL    HW249993   3.817   4.045   4.070  0.0611 -0.9515  2.3928
47009SOL     OW49994   6.878  10.178   8.167 -0.2335  0.2098  0.4522
47009SOL    HW149995   6.800  10.232   8.178 -0.9537 -0.9468  1.2120
47009SOL    HW249996   6.937  10.232   8.115 -1.5843  1.0692 -0.2546
47010SOL     OW49997   4.075   8.250   8.579  0.1384  0.4791 -0.6084
47010SOL    HW149998   4.145   8.265   8.516  0.2712  1.5784 -0.2287
47010SOL    HW249999   4.060   8.336   8.619 -0.0749 -0.1412  0.7174
47011SOL     OW50000  11.484   9.791   4.334 -0.4303  0.2502  0.2060
47011SOL    HW150001  11.567   9.757   4.365  0.3659  1.2694 -0.7073
47011SOL    HW250002  11.470   9.748   4.249 -0.7460  0.1997  0.2816
47012SOL     OW50003   1.765  10.801  10.101  0.2541  0.0131  0.4927
47012SOL    HW150004   1.721  10.876  10.140  0.3755 -0.7335  2.1471
47012SOL    HW250005   1.822  10.839  10.034 -2.3699  1.0517 -1.3241
47013SOL     OW50006  10.882   8.834   9.892 -0.3209 -0.3910  0.3819
47013SOL    HW150007  10.858   8.743   9.876 -1.2139 -0.2450  0.7979
47013SOL    HW250008  10.906   8.837   9.985  1.5786 -0.5701 -0.0680
47014SOL     OW50009   4.833   2.200   3.455 -0.5946 -0.1497 -0.3272
47014SOL    HW150010   4.831   2.196   3.551 -0.3834  0.2980 -0.3032
47014SOL    HW250011   4.913   2.154   3.432  0.2761  1.2293 -0.1935
47015SOL     OW50012  11.537  10.918   8.252  0.6575  0.4505 -0.0993
47015SOL    HW150013  11.443  10.918   8.232  0.7272  2.0772 -0.5900
47015SOL    HW250014  11.541  10.926   8.347  0.2921  1.1288 -0.1370
47016SOL     OW50015  11.540  11.303   8.201  0.0265 -0.0835  0.2310
47016SOL    HW150016  11.619  11.305   8.147  0.7376  0.6470  1.2638
47016SOL    HW250017  11.473  11.342   8.146  0.8192  0.9786 -0.0270
47017SOL     OW50018  11.501   9.030   4.699 -0.0146 -0.0178  0.7185
47017SOL    HW150019  11.487   9.111   4.749 -0.4996  0.0673  0.4457
47017SOL    HW250020  11.428   8.974   4.723 -0.9311  0.4693 -0.7790
47018SOL     OW50021  12.079   2.949   9.237 -0.1418 -0.5126 -0.5070
47018SOL    HW150022  12.027   2.954   9.317 -0.4315  0.9504 -0.7527
47018SOL    HW250023  12.062   3.032   9.193  0.2648 -1.1623 -1.9351
47019SOL     OW50024   4.572  10.813  11.341  0.6289  0.2000 -0.0485
47019SOL    HW150025   4.664  10.819  11.369  0.5469  0.5452  0.1582
47019SOL    HW250026   4.524  10.861  11.409  0.3310  0.2994 -0.3293
47020SOL     OW50027   0.297   6.418   9.832  0.0285  0.0698 -0.2523
47020SOL    HW150028   0.244   6.387   9.906 -0.1083  0.0724 -0.3495
47020SOL    HW250029   0.245   6.398   9.755  0.7745 -1.2226 -0.4540
47021SOL     OW50030   4.551   4.648   3.479  0.6865  0.3414  0.1116
47021SOL    HW150031   4.536   4.634   3.572  0.1731 -0.6646 -0.1100
47021SOL    HW250032   4.619   4.584   3.456 -2.1857 -2.5562 -1.0704
47022SOL     OW50033   9.981   1.447  12.088 -0.1598  0.1143 -0.0334
47022SOL    HW150034  10.022   1.408  12.166  1.8745 -0.5936 -1.3694
47022SOL    HW250035  10.008   1.539  12.091 -0.7845  0.2886  0.5064
47023SOL     OW50036   5.803   5.491   4.924  0.0655 -0.1709  0.0575
47023SOL    HW150037   5.816   5.456   5.013  0.6426  0.2883  0.1580
47023SOL    HW250038   5.869   5.447   4.871  1.6760  1.6523  0.4324
47024SOL     OW50039  11.416   7.681   7.912  0.0106  0.7391  0.2641
47024SOL    HW150040  11.350   7.665   7.979 -1.5148  1.6767 -0.9098
47024SOL    HW250041  11.436   7.595   7.876  0.0892  0.3473  1.2368
47025SOL     OW50042   3.391  10.937  10.805 -0.3548  0.1465 -0.2915
47025SOL    HW150043   3.405  10.903  10.893  0.9815  0.7051 -0.2652
47025SOL    HW250044   3.362  10.861  10.754  1.4448 -0.8115  0.0328
47026SOL     OW50045   7.898   6.381   4.942  0.4666 -0.0170 -0.2271
47026SOL    HW150046   7.960   6.384   5.015 -0.1114  2.4774  0.2486
47026SOL    HW250047   7.893   6.289   4.919  1.6889 -0.7214  2.0160
47027SOL     OW50048   3.924   0.371   1.029  0.4217  0.0545  0.1801
47027SOL    HW150049   3.959   0.455   1.059 -0.0581 -0.0921  1.2005
47027SOL    HW250050   3.866   0.394   0.957  0.5483  0.5732  0.2397
47028SOL     OW50051   6.803   4.077   0.792  0.3505 -0.6062  0.6647
47028SOL    HW150052   6.816   4.144   0.724 -2.5922  1.1220  1.6121
47028SOL    HW250053   6.746   4.012   0.751 -1.8722  0.7125  1.5287
47029SOL     OW50054  12.368   2.981  10.315 -0.3127  0.3467 -0.6649
47029SOL    HW150055  12.409   3.062  10.288 -0.3240 -0.3031 -2.8301
47029SOL    HW250056  12.439   2.917  10.317 -0.3922  0.2761  0.4995
47030SOL     OW50057   3.034   7.265   9.490 -0.4293 -0.0082 -0.7056
47030SOL    HW150058   3.023   7.359   9.506 -0.6268 -0.4035  1.9259
47030SOL    HW250059   3.008   7.223   9.572  2.7841 -2.1577 -0.5906
47031SOL     OW50060   6.616   8.505   5.257 -0.5145 -0.3332 -0.3076
47031SOL    HW150061   6.536   8.454   5.270 -0.2544 -0.4439  0.9150
47031SOL    HW250062   6.587   8.596   5.263 -0.5005 -0.3766  0.4531
47032SOL     OW50063   3.164   4.920   1.738 -0.8467  0.1709  0.2471
47032SOL    HW150064   3.147   4.899   1.646 -1.0635  1.1111  0.0616
47032SOL    HW250065   3.115   4.854   1.787 -1.5428  0.2564 -0.3134
47033SOL     OW50066  10.315   7.938   6.172  0.2880 -0.2008 -0.3561
47033SOL    HW150067  10.381   7.870   6.166  0.5574 -0.0018  0.3032
47033SOL    HW250068  10.359   8.017   6.141 -0.0020 -0.3001 -1.0480
47034SOL     OW50069   8.035   0.006   3.394 -0.2217  0.6208 -0.6903
47034SOL    HW150070   7.996   0.012   3.481  1.7372  0.0947  0.2773
47034SOL    HW250071   8.019  -0.084   3.366 -0.4193  0.6461 -0.6574
47035SOL     OW50072  10.048   9.545   0.184 -0.3085 -1.0923  0.0659
47035SOL    HW150073  10.137   9.518   0.208 -0.6651 -1.1613  1.4072
47035SOL    HW250074   9.992   9.493   0.242 -1.1434  0.2066  0.4526
47036SOL     OW50075   7.371  11.846   8.345  0.0690 -0.3029  0.7664
47036SOL    HW150076   7.440  11.812   8.402  0.9581  0.0458 -0.0687
47036SOL    HW250077   7.391  11.809   8.259  0.3186  1.2610  0.1120
47037SOL     OW50078   9.376   7.363   3.869  0.0263 -0.7758 -0.3130
47037SOL    HW150079   9.330   7.332   3.947  0.4018 -1.7995 -0.4736
47037SOL    HW250080   9.396   7.455   3.887  0.6793 -1.1620  1.0877
47038SOL     OW50081   5.054  12.562   8.372 -0.3038 -0.0705  0.2635
47038SOL    HW150082   5.047  12.627   8.441 -1.3485 -0.2249  0.3204
47038SOL    HW250083   4.966  12.527   8.362  0.2112 -1.4493  0.1968
47039SOL     OW50084   3.682   6.658   8.489 -0.4255  0.0706 -0.0536
47039SOL    HW150085   3.705   6.571   8.454  0.5691  1.1153 -2.2095
47039SOL    HW250086   3.622   6.640   8.561 -0.5594 -2.4037 -0.6917
47040SOL     OW50087   7.093   4.189   4.033 -0.1265 -0.6612 -0.3258
47040SOL    HW150088   7.182   4.203   4.065 -0.3007  1.8610 -0.7533
47040SOL    HW250089   7.042   4.170   4.111  0.8833 -3.2064 -0.1730
47041SOL     OW50090  11.272   3.356   0.394  0.1112  0.0296 -0.8580
47041SOL    HW150091  11.256   3.439   0.440  0.9627  1.3846 -2.8559
47041SOL    HW250092  11.366   3.356   0.378 -0.0561 -0.7321 -1.9305
47042SOL     OW50093   6.095   6.124   3.151  0.0580  0.4334 -0.2292
47042SOL    HW150094   6.033   6.103   3.081  0.6399 -1.0696 -0.3341
47042SOL    HW250095   6.158   6.185   3.110  1.1385 -1.4020 -1.4663
47043SOL     OW50096   9.513   4.643   1.267  0.3340 -0.0223  0.0480
47043SOL    HW150097   9.457   4.690   1.205  0.1858  0.6586  0.6780
47043SOL    HW250098   9.452   4.596   1.323  0.2761  1.8131  1.6102
47044SOL     OW50099   1.835   6.434   7.543  0.0878  0.4630 -0.3048
47044SOL    HW150100   1.808   6.351   7.504  0.7372 -1.0348  2.1645
47044SOL    HW250101   1.930   6.428   7.547  0.1338  1.2964 -0.0415
47045SOL     OW50102   6.149   8.118   5.709 -0.1216 -0.2930  0.3449
47045SOL    HW150103   6.198   8.172   5.772 -0.3466  0.9171 -0.4780
47045SOL    HW250104   6.182   8.029   5.723 -0.3877 -0.1207  2.3678
47046SOL     OW50105   6.365   8.437   1.490  0.1131  0.3043 -0.2462
47046SOL    HW150106   6.435   8.411   1.430 -1.6390 -1.3530 -1.6859
47046SOL    HW250107   6.336   8.522   1.457  0.3862  0.2505 -0.6336
47047SOL     OW50108  11.274   9.747   2.869 -0.6750 -0.2838  0.0044
47047SOL    HW150109  11.238   9.660   2.852 -1.0252 -0.3719  1.0672
47047SOL    HW250110  11.209   9.788   2.927  0.4215 -0.0571  1.1334
47048SOL     OW50111   7.912   2.848   7.439 -0.0006 -0.0922  0.1220
47048SOL    HW150112   7.876   2.855   7.351  0.9320  0.7678 -0.2082
47048SOL    HW250113   7.982   2.913   7.442  0.2267 -0.3604  1.3806
47049SOL     OW50114   4.583   0.074   4.777 -0.0205  0.3435 -0.5260
47049SOL    HW150115   4.511   0.099   4.834  0.2886 -0.6357  0.3362
47049SOL    HW250116   4.649   0.142   4.791 -0.3498  0.6638 -0.5061
47050SOL     OW50117   4.194   4.536   9.456 -0.0535  0.6020  0.1925
47050SOL    HW150118   4.151   4.524   9.371 -1.4745  1.4629  0.7483
47050SOL    HW250119   4.266   4.596   9.439  1.9813 -1.9484 -1.0426
47051SOL     OW50120   9.349   9.620   4.906  0.2892  0.1593 -0.0083
47051SOL    HW150121   9.406   9.646   4.834 -1.6305 -2.3529 -2.6368
47051SOL    HW250122   9.281   9.687   4.907  0.5414  0.4228 -0.2682
47052SOL     OW50123   8.641  12.351  11.828 -0.3391  0.3669 -1.0372
47052SOL    HW150124   8.695  12.425  11.853  1.0919 -0.8884 -0.2350
47052SOL    HW250125   8.599  12.378  11.746 -0.8624  2.5017 -0.1385
47053SOL     OW50126   9.561   4.668  12.125 -0.6494  0.2531 -0.0301
47053SOL    HW150127   9.523   4.678  12.037  0.1759 -0.2602 -0.4629
47053SOL    HW250128   9.522   4.739  12.176 -0.0504  1.4608 -1.1902
47054SOL     OW50129   5.771   3.415   0.941 -0.3141  0.2286  0.2653
47054SOL    HW150130   5.848   3.407   0.884 -0.2260 -0.3064  0.4549
47054SOL    HW250131   5.770   3.507   0.967 -0.8280  0.6987 -1.2692
47055SOL     OW50132   8.425   6.407   4.372 -0.1976  0.1841  0.6535
47055SOL    HW150133   8.445   6.331   4.426 -0.2458  0.8119  1.5808
47055SOL    HW250134   8.511   6.437   4.341 -0.0390  0.5847  1.4531
47056SOL     OW50135   0.209  11.957   6.887 -0.0885 -0.2506 -0.6606
47056SOL    HW150136   0.287  12.012   6.873 -0.2667  0.1111 -0.2456
47056SOL    HW250137   0.213  11.892   6.816  1.3838 -1.1556  0.1768
47057SOL     OW50138   3.896  11.256   7.229  0.4709  0.8932 -0.2050
47057SOL    HW150139   3.874  11.209   7.310  0.9975 -1.4729 -1.3526
47057SOL    HW250140   3.832  11.327   7.225 -0.7215 -0.0150  1.3898
47058SOL     OW50141  11.449   0.842   3.346 -0.1805  0.1333  0.0806
47058SOL    HW150142  11.430   0.929   3.312  1.2749  0.5905  0.3570
47058SOL    HW250143  11.492   0.858   3.431 -0.1138 -0.8542  0.2503
47059SOL     OW50144   9.257   0.097   1.201 -0.6450 -0.5098 -0.3193
47059SOL    HW150145   9.217   0.148   1.271  0.6425 -0.3530  0.3382
47059SOL    HW250146   9.245   0.150   1.122 -0.5433  0.1636  0.1073
47060SOL     OW50147   9.772   8.695   5.592 -0.3830 -0.1850 -0.1424
47060SOL    HW150148   9.738   8.706   5.504 -0.7077 -1.0236 -0.1301
47060SOL    HW250149   9.862   8.727   5.587  0.3634 -2.2795 -1.3718
47061SOL     OW50150   0.776   4.779   9.328  0.3328  0.7921 -0.4267
47061SOL    HW150151   0.766   4.748   9.238  0.1087  0.4063 -0.2736
47061SOL    HW250152   0.693   4.756   9.370  0.2220  1.4766 -0.2695
47062SOL     OW50153   2.006  10.884   4.724  0.0955 -0.7694 -0.0806
47062SOL    HW150154   2.066  10.837   4.666  1.0521  0.8684 -0.4545
47062SOL    HW250155   2.038  10.974   4.725 -0.7305 -0.4462  1.8996
47063SOL     OW50156   0.121   2.662   5.843  0.2051 -0.2241  0.2249
47063SOL    HW150157   0.178   2.658   5.920 -1.2354  2.9101  1.6339
47063SOL    HW250158   0.042   2.615   5.869  0.2880 -0.4499  0.0745
47064SOL     OW50159   1.830   5.991   6.157  0.2928  0.0413 -0.0665
47064SOL    HW150160   1.808   6.073   6.200 -0.2783 -1.0897  1.9583
47064SOL    HW250161   1.761   5.979   6.092  0.7137  1.4093 -0.8059
47065SOL     OW50162   6.739   9.964  11.431  0.0527 -0.0846 -0.5887
47065SOL    HW150163   6.731  10.047  11.384 -0.2364 -0.6300 -1.5239
47065SOL    HW250164   6.823   9.928  11.402 -0.3816 -0.6851 -1.1363
47066SOL     OW50165   5.978   0.995   6.590 -0.0917  0.5233 -0.0194
47066SOL    HW150166   6.063   1.040   6.590 -0.5674  1.4976 -1.3185
47066SOL    HW250167   5.977   0.945   6.508 -0.0694 -0.9216  0.8371
47067SOL     OW50168  12.452   0.241   1.073  0.5351 -0.1830  0.2588
47067SOL    HW150169  12.415   0.328   1.078  1.0477  0.1136 -0.7764
47067SOL    HW250170  12.393   0.192   1.016  0.3871 -0.4450  0.6296
47068SOL     OW50171   9.290  12.483   5.188 -0.3981  0.3589  0.0637
47068SOL    HW150172   9.330  12.434   5.261 -0.5680  2.3894  1.5998
47068SOL    HW250173   9.211  12.434   5.167  0.4403 -1.1163  0.1678
47069SOL     OW50174   4.307   7.769   3.105 -0.1110 -0.0894 -0.0057
47069SOL    HW150175   4.257   7.721   3.039 -2.4893 -0.4927  1.9401
47069SOL    HW250176   4.300   7.861   3.079 -0.7507 -0.2774 -0.5142
47070SOL     OW50177   5.772  10.857   9.759 -0.3297  0.0928 -0.2440
47070SOL    HW150178   5.849  10.909   9.736 -0.1253  0.4565  1.1676
47070SOL    HW250179   5.794  10.817   9.844 -1.5620 -0.0467  0.0327
47071SOL     OW50180  11.656   0.065   1.020 -0.1331 -0.4778  0.3065
47071SOL    HW150181  11.694  -0.021   1.001  1.2120  0.4717 -1.6298
47071SOL    HW250182  11.636   0.102   0.935 -0.9982  1.0143  1.1168
47072SOL     OW50183   0.347   8.477   1.009 -0.1558  0.0079 -0.0848
47072SOL    HW150184   0.374   8.414   0.943  1.0120 -0.6635  0.9773
47072SOL    HW250185   0.255   8.458   1.025 -0.7999  0.9807 -2.3339
47073SOL     OW50186   6.450  10.568   6.923  0.6702  0.2065 -0.2943
47073SOL    HW150187   6.400  10.649   6.923 -1.3765 -0.9184  2.2496
47073SOL    HW250188   6.406  10.513   6.858 -0.7770 -0.3818  1.1400
47074SOL     OW50189   5.902   7.637  10.818 -0.4905  0.2454  0.1943
47074SOL    HW150190   5.918   7.571  10.885 -1.1031  0.2707  0.3749
47074SOL    HW250191   5.849   7.704  10.862  1.3128  1.6029  0.4348
47075SOL     OW50192   0.467   1.575   0.580  0.4451  0.4659 -0.5718
47075SOL    HW150193   0.524   1.606   0.650 -0.3648 -3.7142  2.2470
47075SOL    HW250194   0.379   1.578   0.618  0.0200 -2.1738 -1.1944
47076SOL     OW50195  11.714   8.330   1.862  0.8758 -0.2660 -0.1473
47076SOL    HW150196  11.745   8.246   1.827 -0.1659 -0.5649 -0.3876
47076SOL    HW250197  11.711   8.388   1.786 -0.6096 -0.6821 -0.4263
47077SOL     OW50198   4.114   4.309   9.588 -0.4228 -0.0142  0.0524
47077SOL    HW150199   4.040   4.331   9.532  0.1336 -0.4702 -0.8883
47077SOL    HW250200   4.182   4.372   9.563  0.2686 -1.0554 -0.7379
47078SOL     OW50201   4.972   0.251   7.032  0.2017  0.4862  0.0638
47078SOL    HW150202   4.999   0.305   6.958  0.9143  1.7175  1.1562
47078SOL    HW250203   4.930   0.175   6.993 -0.0229  1.4018 -1.5721
47079SOL     OW50204   4.161  10.231  10.451 -0.0280 -0.4821 -0.2706
47079SOL    HW150205   4.194  10.306  10.502 -1.4622  1.0646 -1.4873
47079SOL    HW250206   4.235  10.170  10.449  1.0085  0.6166  1.2727
47080SOL     OW50207  10.946   8.714   0.423 -0.6712 -0.4789 -0.2680
47080SOL    HW150208  10.972   8.626   0.449 -1.1197 -0.5559 -0.0555
47080SOL    HW250209  11.023   8.768   0.440  0.5922 -1.2686 -3.0120
47081SOL     OW50210   7.025   5.342   4.930  0.4618 -0.1097 -0.0250
47081SOL    HW150211   6.936   5.333   4.896  0.6310  1.2822 -0.9246
47081SOL    HW250212   7.056   5.252   4.941 -0.2015 -0.6337 -2.0063
47082SOL     OW50213   2.527  11.253   6.039  0.5351  0.3340  0.2330
47082SOL    HW150214   2.531  11.334   5.987  2.2404  0.5658  0.6515
47082SOL    HW250215   2.498  11.282   6.126 -1.7814  0.0236 -0.3721
47083SOL     OW50216  10.521   8.888   3.403  0.0645 -0.1876  0.5296
47083SOL    HW150217  10.432   8.911   3.432 -0.0427  0.0416  0.0263
47083SOL    HW250218  10.576   8.960   3.435 -0.1232  0.2968 -0.2086
47084SOL     OW50219   7.734   1.879   7.532 -0.2775 -0.0975  0.1718
47084SOL    HW150220   7.769   1.855   7.618 -0.4595 -0.1550  0.2308
47084SOL    HW250221   7.647   1.913   7.551 -0.0172  0.6334  0.0946
47085SOL     OW50222   1.446   5.421   3.658 -0.1364 -0.3363  0.7844
47085SOL    HW150223   1.516   5.424   3.723  0.4271 -1.3896  0.2474
47085SOL    HW250224   1.483   5.372   3.585 -1.3116 -0.5779  0.3268
47086SOL     OW50225  12.457   3.281   7.080  0.3246 -0.5493  0.8060
47086SOL    HW150226  12.459   3.370   7.116 -1.6584 -0.9574  2.0794
47086SOL    HW250227  12.415   3.228   7.148 -0.9668 -1.9376 -0.9588
47087SOL     OW50228   2.825  11.531   7.048 -0.1112 -0.6898 -0.1779
47087SOL    HW150229   2.821  11.576   6.963  2.4875 -2.9411 -1.6534
47087SOL    HW250230   2.899  11.571   7.093 -0.2029 -0.8837  0.1499
47088SOL     OW50231   3.942   6.645  11.312 -0.4170  0.4755  0.4591
47088SOL    HW150232   3.877   6.699  11.267 -1.6703 -1.2968 -0.0011
47088SOL    HW250233   4.019   6.647  11.255 -1.5504 -0.7237 -1.2039
47089SOL     OW50234   1.371  10.777   4.388 -0.3391  0.0139 -0.0803
47089SOL    HW150235   1.443  10.718   4.409  0.4362  0.8278 -0.3653
47089SOL    HW250236   1.320  10.783   4.469  2.3106  2.7179  1.5852
47090SOL     OW50237  12.135   7.374   6.051  0.3543  0.0491 -0.1724
47090SOL    HW150238  12.059   7.317   6.036  1.2223 -1.0879 -0.3840
47090SOL    HW250239  12.166   7.396   5.964  2.1334 -2.0888 -0.1446
47091SOL     OW50240   5.248   6.054   9.790  0.1920  0.3850  0.2110
47091SOL    HW150241   5.226   6.147   9.801 -0.2955  0.2631  0.2696
47091SOL    HW250242   5.264   6.022   9.878  1.0960  0.5853  0.1345
47092SOL     OW50243  12.556   3.252   3.579 -0.0397  0.2537  0.2465
47092SOL    HW150244  12.615   3.314   3.624  0.9801  0.5780 -1.4593
47092SOL    HW250245  12.495   3.307   3.531  0.1312 -0.0537 -0.3351
47093SOL     OW50246  10.233   0.756  12.209  0.0941  0.8065  0.1270
47093SOL    HW150247  10.229   0.792  12.121 -2.8574 -0.8579 -0.5493
47093SOL    HW250248  10.318   0.713  12.214  0.8415  2.0339 -1.4079
47094SOL     OW50249   6.268  12.593   9.532  0.0283  0.1683  0.3118
47094SOL    HW150250   6.257  12.551   9.617 -0.0409 -0.3964  0.0266
47094SOL    HW250251   6.283  12.521   9.471 -1.1645  0.4516 -0.3610
47095SOL     OW50252  10.107   9.061   5.391  0.2654 -0.4895 -0.1775
47095SOL    HW150253  10.193   9.095   5.413 -0.5378  0.8561  1.0513
47095SOL    HW250254  10.114   9.034   5.299  1.5564  1.0350 -0.5584
47096SOL     OW50255   1.801   7.817   5.591 -0.0092  0.0731 -0.3047
47096SOL    HW150256   1.869   7.840   5.654  0.2590  0.7603 -0.8266
47096SOL    HW250257   1.829   7.732   5.555 -0.1937 -0.3473  0.5245
47097SOL     OW50258   9.843   1.641   3.411 -0.3363 -0.0904 -0.2240
47097SOL    HW150259   9.821   1.555   3.446 -1.1486  0.4182  0.5598
47097SOL    HW250260   9.769   1.697   3.436  0.3805  0.9372 -0.3312
47098SOL     OW50261   8.300   7.621   1.894  0.1384  0.3011  0.0364
47098SOL    HW150262   8.348   7.675   1.956  1.0274 -0.6990  0.2641
47098SOL    HW250263   8.363   7.552   1.870 -1.6996 -2.1571  1.7358
47099SOL     OW50264  10.015   6.903   8.487  0.1974  0.3238 -0.1874
47099SOL    HW150265  10.056   6.930   8.569  1.0628 -1.0921 -0.1194
47099SOL    HW250266  10.081   6.849   8.444 -0.8793 -0.4000 -0.9909
47100SOL     OW50267  12.298   0.998   6.371  0.2432 -0.3589 -0.2691
47100SOL    HW150268  12.372   0.936   6.368  1.6424  1.2579 -1.0493
47100SOL    HW250269  12.305   1.040   6.456  0.0671 -0.3847 -0.2424
47101SOL     OW50270   1.390   8.576   8.083  0.6606 -0.0050  0.7360
47101SOL    HW150271   1.383   8.545   8.173  1.8363  0.4001  0.9717
47101SOL    HW250272   1.457   8.644   8.085  0.3643  0.3424 -0.3625
47102SOL     OW50273  11.179   2.604   9.058 -0.7125  0.3262 -1.0137
47102SOL    HW150274  11.251   2.622   9.118 -0.0052 -1.5026 -1.2339
47102SOL    HW250275  11.113   2.670   9.079 -0.4630 -0.1539  1.7517
47103SOL     OW50276   6.039  11.729   0.852 -0.0354 -0.0544 -0.2984
47103SOL    HW150277   5.962  11.703   0.903  0.6177  2.1188  1.9721
47103SOL    HW250278   6.003  11.762   0.769 -1.2192 -2.3209 -0.7846
47104SOL     OW50279   7.430  12.155   5.023  0.1158  0.0624 -0.2438
47104SOL    HW150280   7.510  12.152   4.969 -0.6730 -0.3762 -1.4167
47104SOL    HW250281   7.460  12.131   5.111  1.1848 -0.6457 -0.7754
47105SOL     OW50282  12.489   2.596   1.707 -0.2264 -0.2820 -0.4345
47105SOL    HW150283  12.425   2.542   1.752 -1.6759  1.0362 -0.8497
47105SOL    HW250284  12.466   2.589   1.614 -0.1267  0.6292 -0.5386
47106SOL     OW50285   4.400   8.205   0.696 -0.6685  0.2691  0.3434
47106SOL    HW150286   4.327   8.157   0.658  0.5633 -1.2958 -0.1462
47106SOL    HW250287   4.474   8.146   0.688  0.8695  2.1589  0.0066
47107SOL     OW50288   7.527   5.513   4.192 -0.0673  0.1337  0.7371
47107SOL    HW150289   7.524   5.503   4.096 -1.4328  0.7055  0.6904
47107SOL    HW250290   7.538   5.424   4.224 -0.8617 -0.2373  0.0560
47108SOL     OW50291   0.582   6.254   0.634  0.4640  0.1607 -0.1346
47108SOL    HW150292   0.575   6.348   0.616  1.6993  0.3269  0.1522
47108SOL    HW250293   0.495   6.229   0.663  0.5509  1.6135  1.5839
47109SOL     OW50294  10.785  12.049  12.438  0.4668 -0.6869  0.2131
47109SOL    HW150295  10.828  12.067  12.522  1.6137  0.3257 -0.5583
47109SOL    HW250296  10.771  11.955  12.438  1.9860 -0.9426  0.8363
47110SOL     OW50297   4.856   9.996   8.342  0.3610  0.1813  0.0439
47110SOL    HW150298   4.944  10.032   8.325 -0.2590  0.9056 -1.9013
47110SOL    HW250299   4.851   9.991   8.437  1.3699  3.1135  0.3718
47111SOL     OW50300   9.305   7.823   8.593  0.2900 -0.7206 -0.1989
47111SOL    HW150301   9.234   7.824   8.656  0.5158  0.0116  0.0485
47111SOL    HW250302   9.299   7.907   8.548  2.5948  0.5389  1.6481
47112SOL     OW50303   4.868  10.082   0.095 -0.4844  1.1860  0.7448
47112SOL    HW150304   4.953  10.067   0.137 -0.9159 -0.4260  1.0882
47112SOL    HW250305   4.855  10.177   0.103  0.6587  1.2838  1.9073
47113SOL     OW50306   3.955   8.960   2.627  0.3133 -0.0413  0.3553
47113SOL    HW150307   3.997   9.044   2.644 -1.1550  0.9221 -0.5222
47113SOL    HW250308   4.027   8.898   2.619  1.4060  1.0036  1.6266
47114SOL     OW50309   2.692  10.405   4.517 -0.1374  0.5451  0.2564
47114SOL    HW150310   2.749  10.442   4.584  0.3111  2.6353 -1.1583
47114SOL    HW250311   2.611  10.382   4.563 -0.0040  2.2888  1.4681
47115SOL     OW50312   4.846   2.547   1.450 -0.5414 -0.3270  0.1152
47115SOL    HW150313   4.852   2.520   1.542  0.1440 -0.4205  0.0476
47115SOL    HW250314   4.781   2.488   1.413 -1.7583  0.5210  0.8209
47116SOL     OW50315   7.483  10.538   2.871  0.1428 -0.0437  0.0861
47116SOL    HW150316   7.442  10.579   2.948 -1.2321 -0.7134 -0.2640
47116SOL    HW250317   7.520  10.456   2.904  1.8968  0.8777  0.5484
47117SOL     OW50318   4.326  12.195  10.444 -0.2115 -0.2509  0.3044
47117SOL    HW150319   4.332  12.290  10.442 -0.5431 -0.2465 -0.7818
47117SOL    HW250320   4.253  12.174  10.386 -0.5772 -1.1368  1.0614
47118SOL     OW50321   1.350   9.490   7.911 -0.2209  0.7653  0.1364
47118SOL    HW150322   1.325   9.545   7.836 -1.4483 -1.6665 -1.3361
47118SOL    HW250323   1.269   9.446   7.937  0.6768 -0.2285  1.3659
47119SOL     OW50324   2.305   2.605   4.561 -0.2086 -0.7225  0.2334
47119SOL    HW150325   2.292   2.629   4.469  1.0121 -1.2966 -0.1149
47119SOL    HW250326   2.315   2.510   4.560  0.6763 -0.6547  0.8254
47120SOL     OW50327   1.596   0.684   3.105 -0.1080  0.6225  0.5597
47120SOL    HW150328   1.555   0.631   3.173  0.7668  0.6347  1.1129
47120SOL    HW250329   1.570   0.774   3.125 -0.8180  0.5126  0.1732
47121SOL     OW50330   7.967   0.049   5.731  0.0930 -0.4870  0.3144
47121SOL    HW150331   8.037   0.093   5.684 -2.2414  2.1271 -1.0404
47121SOL    HW250332   7.906   0.020   5.663 -0.4592 -2.2394  1.4564
47122SOL     OW50333   9.070   4.423   8.082 -0.0659  0.5259 -0.1054
47122SOL    HW150334   8.993   4.367   8.087  1.1868 -1.2689 -0.2636
47122SOL    HW250335   9.119   4.392   8.006  1.4720  0.7567  0.7385
47123SOL     OW50336  11.820  10.192   5.745 -0.2017 -0.3279  0.2057
47123SOL    HW150337  11.769  10.125   5.700  0.5384  0.2360 -1.5368
47123SOL    HW250338  11.861  10.243   5.675 -1.3123  2.4179  1.3988
47124SOL     OW50339   4.390   0.422   0.650 -0.3364 -0.4082 -0.1913
47124SOL    HW150340   4.443   0.489   0.607 -1.0948 -0.0744 -0.6355
47124SOL    HW250341   4.426   0.415   0.739 -0.9465  1.4265  0.2510
47125SOL     OW50342   3.450   9.810  11.190  0.7010 -0.4808  0.0833
47125SOL    HW150343   3.376   9.857  11.228  0.0173 -1.3113 -0.2052
47125SOL    HW250344   3.493   9.874  11.133 -0.4201 -0.3023 -0.5816
47126SOL     OW50345   1.742   1.563  10.979 -0.0400  0.3535 -0.2161
47126SOL    HW150346   1.659   1.609  10.975 -0.0583  0.2684 -0.9910
47126SOL    HW250347   1.807   1.632  10.992 -0.4228  0.2110  3.4191
47127SOL     OW50348  11.505   6.049   1.041 -0.3551  0.1743  0.2212
47127SOL    HW150349  11.441   6.119   1.023 -1.3222 -0.4763  1.0480
47127SOL    HW250350  11.487   6.022   1.131 -0.2843 -1.4338 -0.2154
47128SOL     OW50351   8.613   7.593   9.138  0.2688  0.0134 -0.0857
47128SOL    HW150352   8.611   7.578   9.043 -0.2022 -0.7186  0.0294
47128SOL    HW250353   8.700   7.564   9.165  0.5813  0.6777 -0.3581
47129SOL     OW50354   1.098   2.743   3.180  0.0556  0.0619  0.3754
47129SOL    HW150355   1.172   2.751   3.120  1.6955 -0.9648  2.1198
47129SOL    HW250356   1.138   2.737   3.267 -1.9713 -1.9395  1.2966
47130SOL     OW50357   7.378   9.014  12.260  0.5212 -0.4906  0.1450
47130SOL    HW150358   7.467   8.984  12.243  0.8858  0.0723  0.9627
47130SOL    HW250359   7.335   9.012  12.175  1.5119 -0.1540 -0.3801
47131SOL     OW50360   7.703   4.919   8.237  0.0693 -0.3010 -0.2494
47131SOL    HW150361   7.689   4.880   8.324  0.5013  0.2292  0.0643
47131SOL    HW250362   7.711   5.013   8.254  0.7205 -0.2530 -0.7868
47132SOL     OW50363  12.133   9.534   4.857  0.9723  0.1891  0.0035
47132SOL    HW150364  12.091   9.615   4.888  1.7429  1.1143 -1.2534
47132SOL    HW250365  12.133   9.476   4.933 -1.4667  0.5858  0.3784
47133SOL     OW50366   0.930   1.757   6.304  0.3634 -0.7750 -0.1205
47133SOL    HW150367   0.917   1.841   6.348 -1.1941 -0.9492 -0.2014
47133SOL    HW250368   0.958   1.698   6.374 -0.9744 -0.7678  0.4534
47134SOL     OW50369   5.021   1.150   9.457  0.1650 -0.3134 -0.7566
47134SOL    HW150370   5.106   1.168   9.497 -0.2140  0.1904 -0.1666
47134SOL    HW250371   4.965   1.124   9.530  0.0929 -1.7081 -1.2912
47135SOL     OW50372  10.231   0.130   2.331  0.0193  0.0436  0.3668
47135SOL    HW150373  10.260   0.220   2.315  1.7172 -0.4126  0.6633
47135SOL    HW250374  10.148   0.122   2.284  1.6541  0.6555 -2.8984
47136SOL     OW50375   0.156  12.211  10.278  0.1711 -0.5907  0.3340
47136SOL    HW150376   0.136  12.304  10.280 -1.0669 -0.8366  0.9749
47136SOL    HW250377   0.184  12.194  10.188  0.8463  0.4644  0.3308
47137SOL     OW50378   6.168   3.322   8.755 -0.2099  0.2697  0.6205
47137SOL    HW150379   6.076   3.306   8.732 -0.5979  0.7255  1.7903
47137SOL    HW250380   6.217   3.269   8.692 -1.2965 -0.7994  0.6146
47138SOL     OW50381   3.171   5.747   8.956  0.2609  0.1504  0.2985
47138SOL    HW150382   3.205   5.807   9.021 -0.5317  0.5564  0.3477
47138SOL    HW250383   3.248   5.715   8.909  0.6048  2.3126 -0.6945
47139SOL     OW50384   3.233   7.440   3.103  0.4998 -0.2974 -0.0324
47139SOL    HW150385   3.321   7.466   3.077  0.4223  0.5510  0.5204
47139SOL    HW250386   3.176   7.508   3.068  0.4792  1.4757  3.0322
47140SOL     OW50387  10.762   5.944   7.325  0.2195  0.6731  0.1823
47140SOL    HW150388  10.719   5.909   7.247  0.5520 -0.2131  0.3856
47140SOL    HW250389  10.691   5.980   7.378 -0.1719  0.0157  0.1103
47141SOL     OW50390   7.614   0.986  11.608 -0.2284  0.1722 -0.0411
47141SOL    HW150391   7.672   0.912  11.594  1.6740  2.1335 -4.7578
47141SOL    HW250392   7.669   1.053  11.649 -0.3438  0.6625 -0.6651
47142SOL     OW50393   1.262   9.904   5.968 -0.1410 -0.2988 -0.2059
47142SOL    HW150394   1.335   9.886   6.027 -0.2483  0.5306  0.2035
47142SOL    HW250395   1.226   9.988   5.999 -0.3415  0.0430 -1.3069
47143SOL     OW50396   9.941   8.408   3.562  0.2451  0.1986  0.3292
47143SOL    HW150397   9.911   8.334   3.511 -0.3115  0.3139  0.4891
47143SOL    HW250398  10.035   8.412   3.545  0.2484 -0.4333  0.1835
47144SOL     OW50399   1.708   1.704  11.400  0.3477  0.1262  0.2468
47144SOL    HW150400   1.756   1.621  11.390 -1.5237 -0.8751 -1.2644
47144SOL    HW250401   1.736   1.738  11.485  1.9102 -1.5625  0.4826
47145SOL     OW50402   0.576  10.677   9.657  0.4293  0.0647  0.3680
47145SOL    HW150403   0.596  10.740   9.727  1.1880 -0.5229  0.6914
47145SOL    HW250404   0.659  10.667   9.610  0.2596 -0.5423  0.1961
47146SOL     OW50405   9.302  11.292   3.526 -0.1947 -0.0972  0.0764
47146SOL    HW150406   9.266  11.204   3.510 -1.5653  0.2481  1.1206
47146SOL    HW250407   9.395  11.276   3.546  0.3924 -0.9860 -2.8362
47147SOL     OW50408   3.331   4.294   7.101 -0.2982  0.8239  0.0575
47147SOL    HW150409   3.389   4.231   7.144 -0.4493 -0.3868 -1.4228
47147SOL    HW250410   3.248   4.288   7.150  0.0248  0.6868  0.5944
47148SOL     OW50411   2.332  10.923   6.329  0.0520  0.7879 -0.4822
47148SOL    HW150412   2.311  10.868   6.254 -1.5294  0.9800 -0.2172
47148SOL    HW250413   2.324  10.865   6.405  1.8626  0.5381 -0.4362
47149SOL     OW50414   8.785   0.882   5.118 -0.2017 -0.1554 -0.2243
47149SOL    HW150415   8.804   0.794   5.151 -2.6865 -0.6503  0.0818
47149SOL    HW250416   8.815   0.881   5.027  1.2613 -0.7514  0.2390
47150SOL     OW50417   9.948  10.600  12.055 -0.1304  0.0536 -0.1186
47150SOL    HW150418   9.953  10.686  12.012  0.0405  0.0086 -0.1904
47150SOL    HW250419   9.857  10.573  12.044 -0.4815  0.7547  0.9308
47151SOL     OW50420   1.472   6.336   9.706  0.1492  0.1831 -0.0641
47151SOL    HW150421   1.503   6.416   9.749  2.5774 -0.4909 -0.4354
47151SOL    HW250422   1.494   6.349   9.614 -1.6305  0.0360 -0.5576
47152SOL     OW50423   6.221  10.170   3.035  0.5278  0.6997  0.1496
47152SOL    HW150424   6.255  10.205   2.952  0.5591 -0.3145 -0.2796
47152SOL    HW250425   6.136  10.134   3.011  0.8529 -0.2494  0.4074
47153SOL     OW50426   5.565  10.748   2.333 -0.4606 -0.3437  0.1316
47153SOL    HW150427   5.635  10.706   2.283 -3.1233 -2.0315 -2.5988
47153SOL    HW250428   5.563  10.838   2.302 -0.0548 -0.5223 -0.4235
47154SOL     OW50429   6.603   9.267   1.067 -0.3334 -0.3144 -0.3818
47154SOL    HW150430   6.620   9.360   1.053 -0.5352 -0.4415 -1.6151
47154SOL    HW250431   6.581   9.260   1.160  3.0180  0.3543  0.6256
47155SOL     OW50432  12.561   9.336   3.974 -0.0421 -0.0784  0.3903
47155SOL    HW150433  12.488   9.396   3.988 -0.4752 -0.8193  1.4657
47155SOL    HW250434  12.587   9.309   4.062 -1.6821 -3.6002 -0.0107
47156SOL     OW50435   2.020  10.854   5.909 -0.2132  0.0032  0.0196
47156SOL    HW150436   1.986  10.944   5.907 -1.6290 -0.5091  0.3366
47156SOL    HW250437   2.027  10.833   6.002 -0.6678 -0.4998 -0.0576
47157SOL     OW50438  10.938   1.812   3.995  0.0519 -0.3244 -0.1362
47157SOL    HW150439  10.933   1.716   4.002  0.2301 -0.3058  0.2591
47157SOL    HW250440  10.872   1.834   3.929  0.0388 -0.7234 -0.2633
47158SOL     OW50441   3.903   4.806   3.553 -0.3259  0.4927  0.1210
47158SOL    HW150442   3.883   4.785   3.644 -2.0916 -0.8778 -0.5214
47158SOL    HW250443   3.826   4.854   3.522 -0.3145 -0.1317 -0.9515
47159SOL     OW50444   0.437   1.047   2.498  0.3150  0.1775  0.5451
47159SOL    HW150445   0.455   1.024   2.589  2.2614 -0.9794 -0.0891
47159SOL    HW250446   0.520   1.080   2.465 -0.3672  0.5651 -0.8195
47160SOL     OW50447   8.987   1.657  10.790 -0.4495 -0.3506  0.6133
47160SOL    HW150448   8.912   1.612  10.751  0.4719 -1.0748 -0.4064
47160SOL    HW250449   8.983   1.746  10.754  0.6362 -1.1260 -1.6271
47161SOL     OW50450   1.299  11.499   4.766  0.1695  0.2720 -0.5548
47161SOL    HW150451   1.228  11.556   4.737  0.5735  0.8755 -0.3804
47161SOL    HW250452   1.270  11.411   4.743 -0.8120  0.4695 -0.1328
47162SOL     OW50453   9.713   9.320   9.947  0.2230 -0.6167  0.9128
47162SOL    HW150454   9.699   9.307  10.041 -1.5121  0.5487  0.8686
47162SOL    HW250455   9.799   9.361   9.941  0.5724 -1.1438  1.9403
47163SOL     OW50456   4.346   5.079  11.933 -0.3771  0.1147  0.9253
47163SOL    HW150457   4.306   5.006  11.980  2.0960 -2.1906 -0.2770
47163SOL    HW250458   4.373   5.140  12.002 -5.3208  1.7444  1.8320
47164SOL     OW50459   4.359   6.555   7.856 -1.1086  0.1832  0.5000
47164SOL    HW150460   4.401   6.537   7.772  0.8975  1.0014  1.2526
47164SOL    HW250461   4.356   6.470   7.900 -0.8638 -0.0168  0.1398
47165SOL     OW50462   3.883  10.749   5.267  0.6865  0.3523  0.6304
47165SOL    HW150463   3.902  10.658   5.244 -1.2732 -0.0166  0.3170
47165SOL    HW250464   3.969  10.791   5.270  1.4940 -0.9933 -1.3672
47166SOL     OW50465   6.863  11.636  11.099  0.2670 -0.4977 -0.3421
47166SOL    HW150466   6.940  11.642  11.157  0.4293 -0.4690 -0.5604
47166SOL    HW250467   6.871  11.550  11.059 -0.3736 -0.9219  0.4149
47167SOL     OW50468   1.144   0.324   5.549 -0.3089 -0.8623  0.3940
47167SOL    HW150469   1.082   0.313   5.477 -0.7501  1.9498  0.2269
47167SOL    HW250470   1.224   0.357   5.508 -0.3811  0.2227  1.0625
47168SOL     OW50471   2.055   8.624   7.880 -0.7567 -0.2385 -0.4786
47168SOL    HW150472   2.051   8.632   7.784  2.2640 -1.9453 -0.8811
47168SOL    HW250473   2.103   8.701   7.908  0.3221 -0.8444 -0.6258
47169SOL     OW50474  11.639   8.520   2.569  0.1643 -0.2804  0.4206
47169SOL    HW150475  11.609   8.543   2.657  1.3332  1.0241  0.5156
47169SOL    HW250476  11.584   8.573   2.510  1.2745  1.0731  0.5357
47170SOL     OW50477   1.514   5.868   3.870 -0.2731 -0.2690  0.3991
47170SOL    HW150478   1.591   5.837   3.822 -0.4662  0.4214 -0.3754
47170SOL    HW250479   1.447   5.802   3.852  0.2423 -1.1259  1.4604
47171SOL     OW50480   3.082   1.984   9.851  0.2184 -0.1117  0.2760
47171SOL    HW150481   3.142   1.910   9.862 -1.0386 -1.2249 -0.0796
47171SOL    HW250482   3.015   1.971   9.917  0.3548  1.1470  0.7006
47172SOL     OW50483   2.136   1.330   3.644 -0.3048 -0.0497 -0.1235
47172SOL    HW150484   2.105   1.420   3.635  1.3989  0.7019  1.0639
47172SOL    HW250485   2.227   1.333   3.615 -0.6614 -1.7472 -1.5505
47173SOL     OW50486   2.881   8.493   5.556 -0.1993  0.3575  0.3129
47173SOL    HW150487   2.800   8.441   5.554 -0.2078  0.3960 -1.1526
47173SOL    HW250488   2.852   8.584   5.560 -0.2021  0.3431  0.7211
47174SOL     OW50489   5.032   0.695  11.947 -0.0604 -0.3079  0.5338
47174SOL    HW150490   5.098   0.626  11.946 -0.4981 -0.7654  1.6497
47174SOL    HW250491   5.061   0.756  11.879  1.0739 -0.8946  0.4548
47175SOL     OW50492   1.511   1.088   5.442  0.2412  0.0005 -0.1117
47175SOL    HW150493   1.447   1.043   5.498  0.4885  0.2689  0.3955
47175SOL    HW250494   1.482   1.070   5.353 -0.8750  0.5784  0.1153
47176SOL     OW50495  10.608   7.323   9.847  0.1978  0.0942 -0.1494
47176SOL    HW150496  10.629   7.369   9.766  1.4735  0.2523  0.2512
47176SOL    HW250497  10.526   7.364   9.877  0.5952  1.1854 -0.4936
47177SOL     OW50498  12.431   0.481  11.845  0.0244 -0.5352 -0.4686
47177SOL    HW150499  12.396   0.539  11.777 -0.6623 -2.6512 -2.0093
47177SOL    HW250500  12.526   0.490  11.836 -0.0628  0.2785 -0.7328
47178SOL     OW50501  10.646   4.778   9.984  0.0273  0.2500 -0.1532
47178SOL    HW150502  10.678   4.738   9.903  0.0700  0.5926 -0.3090
47178SOL    HW250503  10.618   4.704  10.038 -2.0427  0.0837 -1.3355
47179SOL     OW50504   9.965   3.119   7.282  0.0290 -0.4861 -0.3316
47179SOL    HW150505   9.993   3.030   7.262  0.9206  0.0890 -1.9160
47179SOL    HW250506   9.996   3.171   7.207 -0.1491  1.2117  0.7032
47180SOL     OW50507   6.465   8.360   0.168  0.4082  0.1153  0.1955
47180SOL    HW150508   6.392   8.417   0.191 -0.8183 -0.9817 -0.7889
47180SOL    HW250509   6.526   8.367   0.242 -0.1076  1.9890  0.4841
47181SOL     OW50510   6.483   7.925  11.442  0.0164  0.1290  0.0118
47181SOL    HW150511   6.560   7.979  11.425  0.6147 -0.3404  1.1018
47181SOL    HW250512   6.457   7.892  11.356  1.5724 -0.4095 -0.2962
47182SOL     OW50513   0.969   5.453   1.450  0.7402  0.0479 -0.1684
47182SOL    HW150514   0.993   5.376   1.502  2.1161 -0.3278 -1.3024
47182SOL    HW250515   1.034   5.519   1.473 -1.1678  1.4075  1.7666
47183SOL     OW50516   1.501  10.158   5.886 -0.6371  0.6435  0.2609
47183SOL    HW150517   1.408  10.139   5.880 -0.7391  0.8363  1.1003
47183SOL    HW250518   1.517  10.173   5.980  0.3776 -0.1250  0.2412
47184SOL     OW50519   0.957   0.761   7.097 -0.2189  0.1770 -0.3888
47184SOL    HW150520   1.032   0.810   7.065 -0.0658  0.6652  0.6553
47184SOL    HW250521   0.988   0.720   7.179 -0.9665  0.0695 -0.1491
47185SOL     OW50522   7.768  10.555   3.892  0.3266 -0.3586 -0.2132
47185SOL    HW150523   7.828  10.486   3.917 -0.4904 -1.0239 -0.0365
47185SOL    HW250524   7.798  10.585   3.807  0.4509 -1.2036 -0.4700
47186SOL     OW50525  11.783   6.566   7.849  0.5412 -0.5230 -0.2979
47186SOL    HW150526  11.720   6.593   7.916  1.6229  0.0317  0.5271
47186SOL    HW250527  11.806   6.476   7.873 -0.6109 -1.0677 -1.1467
47187SOL     OW50528   3.136  10.798   3.137  0.5173 -0.3048  0.1473
47187SOL    HW150529   3.070  10.731   3.156  0.2800  0.0757  0.7124
47187SOL    HW250530   3.117  10.868   3.200  0.2978  0.6191 -0.9177
47188SOL     OW50531   7.881   0.503   7.012 -0.6645 -0.3078  0.1651
47188SOL    HW150532   7.919   0.572   6.957 -3.2009  0.6325 -0.5651
47188SOL    HW250533   7.936   0.501   7.090  0.6913  1.1105 -0.7055
47189SOL     OW50534   0.768   1.918   9.036 -0.5802 -0.4926 -0.8535
47189SOL    HW150535   0.815   1.997   9.063 -0.8539 -1.1742  1.8734
47189SOL    HW250536   0.825   1.877   8.970  0.5819  0.8524 -0.7266
47190SOL     OW50537   0.771  10.929   0.895  0.3807 -0.2007  0.0926
47190SOL    HW150538   0.763  10.918   0.989  1.2093 -0.6401  0.1226
47190SOL    HW250539   0.775  11.023   0.881  1.1489 -0.1530  0.5836
47191SOL     OW50540   3.969   9.976   9.195  0.0331  0.0606  0.1525
47191SOL    HW150541   4.049   9.978   9.248  0.3714  0.9931 -0.3726
47191SOL    HW250542   3.999   9.955   9.107 -0.6071 -2.2557  0.4184
47192SOL     OW50543   2.668   9.230   2.829  0.1955 -0.3661 -0.2856
47192SOL    HW150544   2.577   9.217   2.804 -0.6680 -0.0287  2.3653
47192SOL    HW250545   2.675   9.324   2.848  1.2040 -0.3250 -0.7667
47193SOL     OW50546   2.247   2.726   6.678 -0.4916 -0.3548  0.0701
47193SOL    HW150547   2.224   2.819   6.678 -0.7360 -0.3678  2.0656
47193SOL    HW250548   2.182   2.685   6.621 -0.2834  0.6839 -0.9644
47194SOL     OW50549   8.996   4.674   7.995 -0.1326 -0.0872 -0.2961
47194SOL    HW150550   9.017   4.587   8.027  1.4373  0.6583  0.8090
47194SOL    HW250551   8.925   4.660   7.932  0.5691 -2.2144 -0.6747
47195SOL     OW50552  11.634   7.726   2.561  0.0027  0.2767  0.2609
47195SOL    HW150553  11.577   7.803   2.562 -0.3172  0.0585  1.8419
47195SOL    HW250554  11.667   7.720   2.650  0.1394 -1.3333  0.1326
47196SOL     OW50555   4.680   9.083   5.777 -1.0123 -0.1909  0.0015
47196SOL    HW150556   4.639   9.068   5.692  0.2894 -0.6070 -0.5815
47196SOL    HW250557   4.707   9.175   5.774 -0.9221 -0.2191 -0.0553
47197SOL     OW50558   2.628  12.364   5.657  0.5483 -0.8164 -0.1287
47197SOL    HW150559   2.631  12.414   5.575 -2.6088 -0.0905  0.0785
47197SOL    HW250560   2.694  12.295   5.645 -0.0172 -0.9647 -3.4315
47198SOL     OW50561   5.563   9.074   2.232 -0.1738 -0.4383 -0.6366
47198SOL    HW150562   5.567   8.986   2.193  0.9590 -0.9070  0.4506
47198SOL    HW250563   5.655   9.101   2.239 -0.4412  0.3115  0.1835
47199SOL     OW50564   5.227   9.561   1.875 -0.0516  0.1461 -0.2697
47199SOL    HW150565   5.175   9.519   1.944 -0.7803 -0.3473 -1.1016
47199SOL    HW250566   5.271   9.634   1.919 -0.1529 -0.4191  0.8124
47200SOL     OW50567   9.647   6.404   8.390 -0.5446 -0.2381  0.2427
47200SOL    HW150568   9.611   6.399   8.301 -0.1814 -0.4845  0.1092
47200SOL    HW250569   9.571   6.395   8.447 -0.7202 -0.5842 -0.0410
47201SOL     OW50570   2.241   3.433  10.909 -0.0897  0.0083  0.1899
47201SOL    HW150571   2.201   3.509  10.953 -0.0373 -0.1544  0.5237
47201SOL    HW250572   2.308   3.403  10.970  0.1451 -0.0789 -0.1120
47202SOL     OW50573   2.164   4.816  10.019  0.8742 -0.5509  0.1003
47202SOL    HW150574   2.082   4.864  10.028  0.4446 -1.4668  1.2688
47202SOL    HW250575   2.209   4.829  10.102  1.0961 -1.5303  0.1422
47203SOL     OW50576   3.750  10.151  11.552  0.4789  0.0664  0.8568
47203SOL    HW150577   3.745  10.232  11.500  0.0947 -1.3681 -1.4696
47203SOL    HW250578   3.813  10.172  11.621 -1.0150  2.9395  1.5333
47204SOL     OW50579   7.684  10.070   7.732 -0.6364  0.3125 -0.2324
47204SOL    HW150580   7.593  10.046   7.748 -0.0743 -1.2184  0.9860
47204SOL    HW250581   7.732   9.987   7.737  0.7722  1.0089 -1.3747
47205SOL     OW50582   1.105   8.114   8.662  0.0762  0.4030  0.8041
47205SOL    HW150583   1.092   8.208   8.679  0.9645  0.7922 -0.5411
47205SOL    HW250584   1.090   8.104   8.568  2.9672 -0.2132  0.3094
47206SOL     OW50585   6.375  12.234   5.193  0.0387 -0.3673  0.1584
47206SOL    HW150586   6.348  12.194   5.276 -2.7272 -0.4429 -0.6572
47206SOL    HW250587   6.399  12.160   5.137  2.0011 -0.3100  0.8617
47207SOL     OW50588   9.684   3.855   2.386  0.0244  0.7599 -0.1363
47207SOL    HW150589   9.740   3.931   2.369  2.1222 -0.7611 -0.5058
47207SOL    HW250590   9.704   3.794   2.314 -0.8053 -0.5527  0.7011
47208SOL     OW50591   1.830   7.397   0.762  0.0592 -0.4441  0.6902
47208SOL    HW150592   1.775   7.474   0.748 -0.1704 -0.9280 -1.3706
47208SOL    HW250593   1.904   7.410   0.702  0.7929 -1.1079  1.4354
47209SOL     OW50594   1.579  12.557   3.555 -0.0600  0.6109  0.1307
47209SOL    HW150595   1.577  12.494   3.484 -1.2814  0.3841  0.3499
47209SOL    HW250596   1.531  12.516   3.626  0.8721  0.9639  0.9925
47210SOL     OW50597   7.554  12.064   5.375 -0.3886 -0.4506 -0.5500
47210SOL    HW150598   7.517  12.151   5.360  2.8852  0.9769 -1.3319
47210SOL    HW250599   7.570  12.060   5.470 -1.3441 -0.5969 -0.3868
47211SOL     OW50600   9.352  11.992   2.636 -0.3143  0.3814  0.3184
47211SOL    HW150601   9.296  11.965   2.709 -0.6032 -0.5216 -0.2066
47211SOL    HW250602   9.291  12.020   2.568 -0.1394 -0.3326 -0.1540
47212SOL     OW50603  11.441  11.937   1.451  0.3624 -0.7097 -0.0937
47212SOL    HW150604  11.388  11.930   1.371 -0.1950 -0.4256  0.2382
47212SOL    HW250605  11.376  11.951   1.520  0.8518 -0.7915  0.3829
47213SOL     OW50606   5.394  11.502   1.001  0.3927 -0.1275 -0.3253
47213SOL    HW150607   5.324  11.463   1.053  0.6117  1.6712  1.4259
47213SOL    HW250608   5.473  11.491   1.053  0.8000  0.8665 -0.7087
47214SOL     OW50609  10.793   6.106   0.405  0.0834  0.2055  0.5901
47214SOL    HW150610  10.703   6.132   0.426 -0.0223 -0.7807  1.4732
47214SOL    HW250611  10.838   6.106   0.489  0.3193 -1.4230  0.4960
47215SOL     OW50612  11.119  10.028   7.066  0.1169 -0.2462 -0.0290
47215SOL    HW150613  11.027  10.055   7.067  0.3129  0.7264 -2.0538
47215SOL    HW250614  11.130   9.987   6.980  1.6362 -0.1365  0.0920
47216SOL     OW50615   5.870  11.377   3.482  0.2464  0.1784  0.4195
47216SOL    HW150616   5.810  11.313   3.520  1.3001 -1.0666  0.0792
47216SOL    HW250617   5.829  11.403   3.399 -0.6271  0.6516  0.9873
47217SOL     OW50618   7.473   5.757   8.108 -0.1810  0.2155  0.4355
47217SOL    HW150619   7.424   5.729   8.031  0.2901 -1.2323  0.6420
47217SOL    HW250620   7.511   5.841   8.082 -1.3540  0.5435 -0.3202
47218SOL     OW50621   3.216  12.008   8.349  0.5203 -0.2638 -0.7152
47218SOL    HW150622   3.172  11.957   8.281  0.7266  0.7784 -1.6566
47218SOL    HW250623   3.308  11.985   8.341  0.6543  0.4600 -1.3398
47219SOL     OW50624  10.437   2.441   5.114 -0.0419  0.4027  0.0676
47219SOL    HW150625  10.448   2.365   5.170  1.7860  0.9342  0.4742
47219SOL    HW250626  10.498   2.506   5.148 -0.2883  1.4365 -1.3534
47220SOL     OW50627   5.998   7.340  11.815  0.1102 -0.3375  0.1072
47220SOL    HW150628   5.912   7.322  11.852 -0.3845  3.1839  1.0662
47220SOL    HW250629   5.980   7.380  11.730  0.7431  0.5277  0.3562
47221SOL     OW50630   3.788   8.226   9.016  0.7606  0.2444 -0.4696
47221SOL    HW150631   3.801   8.132   9.003  3.6897  0.6122 -0.9230
47221SOL    HW250632   3.719   8.249   8.955  0.1350 -1.5764 -0.5085
47222SOL     OW50633  10.123   1.294   0.347 -0.3501 -0.5764 -0.2895
47222SOL    HW150634  10.187   1.363   0.364 -0.4843 -0.3572 -0.6696
47222SOL    HW250635  10.060   1.301   0.418 -1.0995  0.5512 -1.0423
47223SOL     OW50636   2.553  10.132   0.454 -0.2406  0.1662 -0.2129
47223SOL    HW150637   2.559  10.143   0.360 -3.3030  1.2893 -0.3793
47223SOL    HW250638   2.633  10.171   0.489  0.5214  0.5281 -2.2802
47224SOL     OW50639   3.190   8.869   6.213 -0.1415 -0.4160  0.0705
47224SOL    HW150640   3.104   8.912   6.212 -0.4621 -1.0640 -0.7012
47224SOL    HW250641   3.237   8.914   6.283 -0.6653  0.8112 -0.3272
47225SOL     OW50642   1.332  12.202   1.625  0.3262  0.3331 -0.2411
47225SOL    HW150643   1.428  12.194   1.625  0.2497 -0.6839  0.5957
47225SOL    HW250644   1.313  12.247   1.543  1.4965  0.2519 -0.5852
47226SOL     OW50645   2.400   9.133   0.481 -0.1049 -0.0212 -0.3915
47226SOL    HW150646   2.447   9.076   0.543 -0.5918 -0.6297 -0.5787
47226SOL    HW250647   2.428   9.221   0.505  1.7040 -0.3859 -0.9417
47227SOL     OW50648   8.368  12.007   6.243  0.0370  0.1628  0.1230
47227SOL    HW150649   8.418  11.950   6.184  0.0917 -0.9484  1.2061
47227SOL    HW250650   8.302  12.047   6.187  1.1708  0.4779 -1.0294
47228SOL     OW50651  10.967   8.059  10.958 -0.0822 -0.0030  0.2803
47228SOL    HW150652  10.931   8.127  10.902 -0.0673  1.0747  1.5511
47228SOL    HW250653  11.046   8.097  10.996  0.3412 -1.0001  0.4526
47229SOL     OW50654  11.006   4.063   4.022  0.4194  0.2617 -0.6509
47229SOL    HW150655  11.081   4.104   3.980  0.3003  1.8732  0.6036
47229SOL    HW250656  11.037   4.037   4.109 -0.1210 -0.2672 -0.6064
47230SOL     OW50657   8.325   5.668   2.493 -0.1093 -0.2207  0.0731
47230SOL    HW150658   8.379   5.740   2.523 -1.5847  1.5959 -1.3739
47230SOL    HW250659   8.387   5.608   2.451  1.0162  0.8331  0.1602
47231SOL     OW50660  11.660   3.552  10.608  0.4925 -0.4642 -0.0545
47231SOL    HW150661  11.739   3.508  10.639 -0.5422 -1.7917  0.8093
47231SOL    HW250662  11.648   3.521  10.519 -1.1957 -3.5080  1.0914
47232SOL     OW50663   7.055  12.428  12.479  0.0394 -0.2012  0.6348
47232SOL    HW150664   7.107  12.424  12.399  0.0482  0.0956  0.6244
47232SOL    HW250665   7.117  12.450  12.548  0.3270 -1.9847  1.0089
47233SOL     OW50666   0.425   2.334   3.351  0.1817  0.1237 -0.0637
47233SOL    HW150667   0.363   2.387   3.302  1.1715 -1.1757 -2.9112
47233SOL    HW250668   0.509   2.380   3.343  0.0645  0.8776  2.1554
47234SOL     OW50669   6.262   1.379   5.963  0.0957  0.1374 -0.3159
47234SOL    HW150670   6.175   1.384   5.925  0.2561 -0.3500 -0.7517
47234SOL    HW250671   6.302   1.463   5.941 -0.2936  0.4003 -0.0309
47235SOL     OW50672  10.879   2.699   5.512  0.0492 -0.0099  0.0412
47235SOL    HW150673  10.921   2.785   5.513  0.5813 -0.2482 -0.6876
47235SOL    HW250674  10.793   2.715   5.472  0.2013  0.1554 -0.2224
47236SOL     OW50675   5.035  10.769  10.704  0.2529  0.4236  0.0835
47236SOL    HW150676   4.972  10.702  10.681  1.5132 -1.3070  1.4056
47236SOL    HW250677   5.117  10.741  10.664  0.4767  2.0755 -0.7242
47237SOL     OW50678   8.396   6.206   0.786  0.0570 -0.4639  0.2353
47237SOL    HW150679   8.342   6.282   0.765 -0.7676 -1.5807 -1.9054
47237SOL    HW250680   8.486   6.238   0.776 -0.2779  0.0903 -1.3006
47238SOL     OW50681   4.457   5.663  11.503  0.6689 -0.0642  0.3683
47238SOL    HW150682   4.440   5.735  11.442  1.7967 -0.5534 -0.5449
47238SOL    HW250683   4.455   5.584  11.449 -0.5140 -0.7580  1.3518
47239SOL     OW50684  12.537   1.840   1.048  0.3179  0.2578 -0.0515
47239SOL    HW150685  12.588   1.911   1.088  1.1309 -0.0542 -0.5246
47239SOL    HW250686  12.528   1.865   0.956  0.8470 -0.3888 -0.2805
47240SOL     OW50687   9.513   9.191   3.024  0.2013  0.1699 -0.2561
47240SOL    HW150688   9.510   9.267   2.966  0.7876 -0.4244 -1.0926
47240SOL    HW250689   9.438   9.138   2.998  1.8410 -1.3421 -2.3007
47241SOL     OW50690  11.401   4.714  11.530  0.6343 -0.0249 -0.6684
47241SOL    HW150691  11.470   4.681  11.587 -0.2654 -0.6953  0.0405
47241SOL    HW250692  11.437   4.704  11.442  0.8692 -1.7659 -0.4108
47242SOL     OW50693   0.561   9.362  12.082  0.3923  0.1585  0.1867
47242SOL    HW150694   0.589   9.447  12.118 -0.9943  0.0407  1.6930
47242SOL    HW250695   0.623   9.299  12.118  0.0725  0.2735  0.9615
47243SOL     OW50696  12.381   0.432   6.773 -0.0232 -0.3867 -0.0752
47243SOL    HW150697  12.472   0.407   6.760 -0.7027 -2.0544 -2.1305
47243SOL    HW250698  12.347   0.369   6.836 -0.4934 -1.8136 -1.6673
47244SOL     OW50699   0.964   7.534   0.041  0.2255  0.1014  0.1116
47244SOL    HW150700   0.904   7.598   0.079  1.8944  2.2248 -0.6137
47244SOL    HW250701   1.038   7.587   0.010  2.0072 -2.2739  0.0698
47245SOL     OW50702   4.760   5.347   5.324 -0.3405 -0.1513  0.4298
47245SOL    HW150703   4.750   5.437   5.353  2.0787  0.1469  0.5641
47245SOL    HW250704   4.703   5.297   5.382 -1.0093  1.1885  0.9725
47246SOL     OW50705   6.216   5.048   0.507  0.3038 -0.0246  0.1884
47246SOL    HW150706   6.291   5.098   0.540 -0.5606  0.7961  1.0028
47246SOL    HW250707   6.146   5.066   0.570 -0.5685 -0.8140 -0.5167
47247SOL     OW50708   1.395   5.980  12.070 -0.4499 -0.6063 -0.7773
47247SOL    HW150709   1.327   6.028  12.118  1.4382  1.4438  0.0181
47247SOL    HW250710   1.394   5.892  12.108 -1.5397 -0.1286  0.3668
47248SOL     OW50711   2.350   2.695   2.901  0.2295 -0.0713  0.0477
47248SOL    HW150712   2.284   2.688   2.833 -0.8494  2.0908  0.7853
47248SOL    HW250713   2.417   2.753   2.864 -0.6381  1.5768  0.9717
47249SOL     OW50714   9.046  10.757   2.189  0.0378 -0.1347 -0.2515
47249SOL    HW150715   8.971  10.793   2.143  1.7588  0.6311 -2.7060
47249SOL    HW250716   9.014  10.677   2.229 -2.3405  0.7940 -0.1363
47250SOL     OW50717   2.799   7.038   8.736 -0.6967 -0.2542  0.2117
47250SOL    HW150718   2.837   6.980   8.802 -1.8464 -0.4712  0.7056
47250SOL    HW250719   2.861   7.035   8.663 -0.2094 -1.2701  0.6454
47251SOL     OW50720   7.089   9.972   9.617  0.5419 -0.2612 -0.3783
47251SOL    HW150721   7.019   9.910   9.636  1.3801 -0.7237  1.4307
47251SOL    HW250722   7.167   9.919   9.610  1.5680  0.5964  2.8117
47252SOL     OW50723  11.474  10.503   9.586 -0.2313 -0.2630 -0.4239
47252SOL    HW150724  11.473  10.427   9.527  0.1479  0.0669 -0.8683
47252SOL    HW250725  11.565  10.530   9.588  0.1868 -1.6083  2.1050
47253SOL     OW50726   9.285   5.854   9.976  0.1665 -0.3774  0.3259
47253SOL    HW150727   9.377   5.834   9.957  0.0230 -0.6536 -0.0943
47253SOL    HW250728   9.245   5.769   9.995 -0.0378 -0.2779  0.3428
47254SOL     OW50729   6.669   4.191   3.771  0.1801 -0.4263  0.0267
47254SOL    HW150730   6.712   4.154   3.848  0.5359 -0.2963 -0.1069
47254SOL    HW250731   6.730   4.173   3.699 -0.5313 -1.3145 -0.3811
47255SOL     OW50732   8.562   2.899  11.250  0.3241 -0.0516 -0.3247
47255SOL    HW150733   8.481   2.928  11.292  0.8432  0.3645  0.4142
47255SOL    HW250734   8.564   2.946  11.166 -1.1693 -1.5740 -1.2795
47256SOL     OW50735   4.267   2.043   9.158  0.8872  0.0833  0.0176
47256SOL    HW150736   4.198   2.108   9.171 -0.7600 -1.3428 -1.1229
47256SOL    HW250737   4.347   2.088   9.185 -0.5121  1.6099  2.0090
47257SOL     OW50738   7.026   0.742   2.025 -0.3389  0.0077 -0.1439
47257SOL    HW150739   6.933   0.721   2.033 -0.3591 -0.3929 -1.3408
47257SOL    HW250740   7.037   0.771   1.935  0.5602  0.8036  0.1995
47258SOL     OW50741   6.914   2.556   0.340 -0.3560  0.0170 -0.4529
47258SOL    HW150742   6.901   2.576   0.432  0.9160 -1.8351  0.1748
47258SOL    HW250743   6.999   2.595   0.318 -0.4615  0.0932 -0.7410
47259SOL     OW50744   1.736   9.049   7.388  0.1291  0.0981  0.0792
47259SOL    HW150745   1.701   9.069   7.302  0.3173 -2.2597 -0.6219
47259SOL    HW250746   1.659   9.046   7.445  0.0238  1.8526  0.0944
47260SOL     OW50747   0.030  12.176   9.435 -0.0241  0.1480 -0.3797
47260SOL    HW150748  -0.045  12.221   9.473 -1.2100 -2.3449  0.4957
47260SOL    HW250749   0.106  12.212   9.480 -0.9940  0.6250  0.9379
47261SOL     OW50750   5.514   2.972   1.251  0.1215 -0.2541 -0.1898
47261SOL    HW150751   5.588   3.032   1.261  0.7162 -1.2601  2.4965
47261SOL    HW250752   5.437   3.028   1.251  0.7764  0.6903 -1.2057
47262SOL     OW50753   0.915   7.679   6.014  0.5919  0.5417 -0.2894
47262SOL    HW150754   0.896   7.596   6.058  1.3181  1.3957  1.7280
47262SOL    HW250755   0.953   7.653   5.930  0.2569 -1.1539  0.0360
47263SOL     OW50756   7.281   9.527   8.800 -0.1754  0.4694  0.0567
47263SOL    HW150757   7.267   9.622   8.795  1.4232  0.7412  0.3037
47263SOL    HW250758   7.324   9.513   8.884  0.6791 -0.3161 -0.4880
47264SOL     OW50759   0.209   0.083   5.597  0.3539  0.1518 -0.1320
47264SOL    HW150760   0.232   0.107   5.507  2.1363  0.0515  0.2553
47264SOL    HW250761   0.291   0.093   5.646 -1.0353  2.3675  1.9637
47265SOL     OW50762   3.570  11.020   3.998 -0.1941  0.4091  0.0466
47265SOL    HW150763   3.651  11.068   4.013  0.3746 -0.5157  0.0439
47265SOL    HW250764   3.592  10.957   3.929 -0.9668  0.2716 -0.0857
47266SOL     OW50765   0.387   4.515   5.882  0.0431 -0.0110 -0.4486
47266SOL    HW150766   0.420   4.432   5.915 -1.6454 -0.8022 -0.6956
47266SOL    HW250767   0.336   4.552   5.954 -1.1393 -0.3125 -1.1129
47267SOL     OW50768   5.936   2.979  11.537 -0.3087  0.1325 -0.1943
47267SOL    HW150769   5.940   3.037  11.461 -0.6057  0.4117 -0.0003
47267SOL    HW250770   5.970   2.895  11.505  2.4214  1.0018  0.0908
47268SOL     OW50771  10.918   7.926   3.286 -0.5998 -0.3316 -0.0503
47268SOL    HW150772  10.981   7.855   3.271 -0.8754 -0.9374  1.5149
47268SOL    HW250773  10.860   7.893   3.354 -2.2216  0.4868 -0.9656
47269SOL     OW50774  10.548   3.546  10.832 -0.4853 -0.3635  0.6162
47269SOL    HW150775  10.496   3.621  10.861  0.5800  0.9135 -0.5998
47269SOL    HW250776  10.505   3.516  10.752 -0.7703 -0.9078  0.9680
47270SOL     OW50777   6.381   2.473   8.480 -0.0136 -0.9420 -0.8451
47270SOL    HW150778   6.388   2.438   8.391  4.4083 -1.3876 -0.5738
47270SOL    HW250779   6.414   2.563   8.473 -1.3772 -0.3418  0.0922
47271SOL     OW50780   7.114   4.080   1.513 -0.3859 -0.2697 -0.5767
47271SOL    HW150781   7.104   4.024   1.436  2.2623 -1.1954 -0.3289
47271SOL    HW250782   7.190   4.135   1.493 -0.1677  0.0595  1.0335
47272SOL     OW50783   4.313   9.016   4.540 -0.3263 -0.2892  0.5602
47272SOL    HW150784   4.409   9.026   4.541 -0.1758 -0.9051 -1.8289
47272SOL    HW250785   4.280   9.102   4.516 -0.3223 -0.2801  0.5854
47273SOL     OW50786   6.435   8.350   6.744 -0.6057 -0.3320 -0.3097
47273SOL    HW150787   6.464   8.316   6.828  0.2390  0.7967 -0.1147
47273SOL    HW250788   6.406   8.439   6.763 -0.7565 -0.1968 -1.1472
47274SOL     OW50789   8.329   3.588   0.760  0.1355  0.8323  0.1140
47274SOL    HW150790   8.259   3.611   0.698  0.9252 -1.0019 -1.5529
47274SOL    HW250791   8.287   3.528   0.822  0.3160 -0.8635 -1.3200
47275SOL     OW50792   4.932  12.217  10.120 -0.4961 -0.1536 -0.4667
47275SOL    HW150793   5.027  12.223  10.132 -0.4749 -0.1927 -0.6187
47275SOL    HW250794   4.920  12.141  10.063 -0.5332  0.6221 -1.5044
47276SOL     OW50795   6.550   0.486   5.656 -0.2765  0.0319  0.1230
47276SOL    HW150796   6.644   0.499   5.652 -0.1566 -0.1271  1.8526
47276SOL    HW250797   6.520   0.543   5.728 -1.3703 -0.5492  0.1553
47277SOL     OW50798  12.355   4.642  12.329 -1.2197  0.9539  0.0810
47277SOL    HW150799  12.307   4.683  12.401 -1.5925  0.2632  0.2289
47277SOL    HW250800  12.336   4.549  12.337  1.5210  0.3895  1.2297
47278SOL     OW50801   5.851   5.632   4.052  0.3049  0.7068 -0.4854
47278SOL    HW150802   5.808   5.659   4.132 -0.2595 -0.0576 -0.5240
47278SOL    HW250803   5.886   5.545   4.071  0.4988  0.6772 -0.9483
47279SOL     OW50804   3.939   1.336   4.691 -0.3329  0.2468 -0.5468
47279SOL    HW150805   3.981   1.270   4.745  0.0844 -0.2683 -1.4808
47279SOL    HW250806   3.853   1.299   4.669 -0.6476  0.6099  0.0442
47280SOL     OW50807   5.672   0.147   1.111  0.0932 -0.7079 -0.2431
47280SOL    HW150808   5.729   0.223   1.119  0.3438 -0.7941 -1.0775
47280SOL    HW250809   5.708   0.083   1.172 -0.1394 -0.1510  0.4848
47281SOL     OW50810   7.615   0.847   8.400 -0.0265 -0.4658 -0.5933
47281SOL    HW150811   7.609   0.925   8.345 -1.4149  0.2865  0.5598
47281SOL    HW250812   7.633   0.776   8.339  0.2019  0.5865 -1.7996
47282SOL     OW50813   1.280  11.053   8.308  0.3248  0.2971  0.0748
47282SOL    HW150814   1.258  11.010   8.390 -1.8144 -0.9620 -1.0528
47282SOL    HW250815   1.272  11.146   8.326 -0.7941  0.0153  1.1119
47283SOL     OW50816   1.451   7.831   2.306  0.3164  0.0765 -0.7223
47283SOL    HW150817   1.373   7.842   2.251 -0.0634 -0.1418 -0.2400
47283SOL    HW250818   1.512   7.783   2.252 -0.1502 -0.3637 -0.8667
47284SOL     OW50819   1.511   9.230   7.813 -0.6056 -0.5456  0.9692
47284SOL    HW150820   1.476   9.296   7.873 -2.1138 -0.9611  0.5903
47284SOL    HW250821   1.463   9.244   7.731  0.2575 -1.0442  0.3565
47285SOL     OW50822   3.715  10.775   8.912  0.4180 -1.1338  0.7308
47285SOL    HW150823   3.669  10.808   8.989  2.0012 -0.5199  1.4676
47285SOL    HW250824   3.798  10.823   8.912 -0.5426  0.9588 -2.8718
47286SOL     OW50825   5.606   8.571   7.873 -0.0627  0.3903 -0.1525
47286SOL    HW150826   5.643   8.608   7.793  0.7382  0.2475  0.1415
47286SOL    HW250827   5.519   8.542   7.848 -1.0660  3.1658 -0.2297
47287SOL     OW50828   8.055   9.366   2.241 -0.3256  0.0429 -0.2117
47287SOL    HW150829   8.087   9.414   2.165 -0.9539  1.2302  0.2426
47287SOL    HW250830   7.967   9.338   2.215 -0.5940  0.5686  0.1156
47288SOL     OW50831   0.331   7.678   2.947 -0.2702 -0.0792 -0.2656
47288SOL    HW150832   0.369   7.724   2.872 -0.5426 -0.0742 -0.4049
47288SOL    HW250833   0.386   7.601   2.959 -0.2836 -0.1308 -0.5346
47289SOL     OW50834   2.104   0.344   3.435 -0.6365 -0.0215  0.1292
47289SOL    HW150835   2.052   0.264   3.424 -0.0551 -0.1366 -2.1859
47289SOL    HW250836   2.149   0.355   3.352  0.2000  2.1090  0.8069
47290SOL     OW50837   4.611   5.203   0.538 -0.0456  0.1934 -0.5028
47290SOL    HW150838   4.533   5.232   0.585  0.3862  2.7829 -1.2050
47290SOL    HW250839   4.589   5.115   0.507 -1.4927 -0.3711  1.8612
47291SOL     OW50840   5.906   4.657   5.627 -0.3656  0.6290 -0.0985
47291SOL    HW150841   5.955   4.709   5.562 -1.1246 -0.6296 -1.7620
47291SOL    HW250842   5.848   4.721   5.668 -0.2909  1.3814 -1.0982
47292SOL     OW50843  11.845  12.213   8.454 -0.0897 -0.9206  0.1192
47292SOL    HW150844  11.867  12.213   8.547 -0.6720  1.6308  0.3241
47292SOL    HW250845  11.922  12.174   8.411  1.2815  0.1883  1.4767
47293SOL     OW50846   8.602   6.023   2.167  0.2784 -0.1715  0.4429
47293SOL    HW150847   8.539   6.012   2.238  1.4395 -0.5179  1.4579
47293SOL    HW250848   8.613   6.118   2.159  1.0859 -0.1408  1.6292
47294SOL     OW50849   4.805   3.097   0.615  0.7167 -0.7678  0.0907
47294SOL    HW150850   4.810   3.011   0.656 -2.2947 -0.6402  1.0066
47294SOL    HW250851   4.785   3.080   0.523 -2.0615 -1.1680  0.6817
47295SOL     OW50852   3.606  11.030   7.463  0.1292 -0.2403 -0.1455
47295SOL    HW150853   3.533  11.088   7.483 -0.0208 -0.5052  0.0717
47295SOL    HW250854   3.569  10.942   7.465  0.1433 -0.3010 -1.3763
47296SOL     OW50855   1.432   9.855   0.463  0.1922 -0.0578  0.5863
47296SOL    HW150856   1.368   9.793   0.427  0.8149  0.7162 -2.0653
47296SOL    HW250857   1.514   9.806   0.464  1.0851  1.0523 -3.2167
47297SOL     OW50858  10.257  11.403   3.609  0.2683  0.0173  0.1776
47297SOL    HW150859  10.305  11.356   3.542 -0.5615  0.2711 -0.6149
47297SOL    HW250860  10.308  11.482   3.625 -0.8414  1.2915 -2.1064
47298SOL     OW50861  11.061   4.689   3.050 -0.0959 -0.1387  0.0850
47298SOL    HW150862  10.983   4.723   3.092 -0.0169  1.4585 -0.9819
47298SOL    HW250863  11.073   4.602   3.088 -1.5737  0.1479  1.2858
47299SOL     OW50864   6.994  11.148   2.894  0.5591 -0.5923 -0.1019
47299SOL    HW150865   6.966  11.088   2.963 -1.5450 -0.8530 -1.0935
47299SOL    HW250866   6.930  11.135   2.824  1.9480  0.5041 -1.6380
47300SOL     OW50867   3.435   3.337   8.685  0.1693  0.6812  0.0144
47300SOL    HW150868   3.409   3.282   8.759  0.7953  0.6352  0.2077
47300SOL    HW250869   3.375   3.412   8.688 -1.3789 -0.4672 -0.8720
47301SOL     OW50870  11.718  11.861  12.445 -0.4968  0.6509 -0.2415
47301SOL    HW150871  11.751  11.889  12.530  0.7158 -0.5330 -0.3057
47301SOL    HW250872  11.647  11.800  12.465 -0.2527  0.4212 -0.0767
47302SOL     OW50873   6.389   9.147   8.301 -0.3351  0.3900 -0.1099
47302SOL    HW150874   6.347   9.066   8.332  0.9187 -0.1570  0.1972
47302SOL    HW250875   6.476   9.119   8.273  0.0984  1.6367 -0.0288
47303SOL     OW50876  10.381   2.375  10.584  0.0848  0.0520 -0.0483
47303SOL    HW150877  10.351   2.457  10.545 -2.1995 -1.0054 -0.7117
47303SOL    HW250878  10.394   2.396  10.676 -0.6115  1.1514 -0.1781
47304SOL     OW50879   2.763   6.815   5.632 -0.0410  0.0322  0.3509
47304SOL    HW150880   2.689   6.860   5.590 -0.7873  0.6414  2.2296
47304SOL    HW250881   2.771   6.857   5.717  1.6327 -0.9484  0.7146
47305SOL     OW50882   6.412  10.289   5.850  0.3908 -0.2370 -0.2092
47305SOL    HW150883   6.371  10.361   5.803 -0.3146 -0.7292 -0.3696
47305SOL    HW250884   6.414  10.318   5.941  0.1272 -0.0075 -0.2762
47306SOL     OW50885   2.242   5.199   3.422  0.0515  0.3598 -0.4146
47306SOL    HW150886   2.241   5.113   3.463 -1.0240  0.9575  0.8730
47306SOL    HW250887   2.263   5.260   3.493 -1.7541  1.4168 -0.7289
47307SOL     OW50888   9.209   3.397   2.550  0.1224  0.1535 -0.3779
47307SOL    HW150889   9.258   3.333   2.602  0.8345  0.6764 -0.3865
47307SOL    HW250890   9.222   3.480   2.597 -0.5247  0.3533 -0.5429
47308SOL     OW50891  11.544   0.552  11.089 -0.4955 -0.7021 -0.2393
47308SOL    HW150892  11.577   0.467  11.118 -0.4710 -0.4627  0.4480
47308SOL    HW250893  11.620   0.610  11.092 -0.7895 -0.3530  0.5270
47309SOL     OW50894   1.453   1.622   3.266 -0.0245  0.4169 -0.0595
47309SOL    HW150895   1.437   1.712   3.294 -2.6315 -0.0981  0.3677
47309SOL    HW250896   1.464   1.573   3.347  0.8579  0.2524 -0.2723
47310SOL     OW50897   4.449   2.114   0.196  0.2906 -0.2656  0.1464
47310SOL    HW150898   4.523   2.055   0.185  0.6126 -0.3575  2.2689
47310SOL    HW250899   4.487   2.200   0.214 -0.1053 -0.1435  0.4465
47311SOL     OW50900   9.094   0.949   2.375  0.0511 -0.1393  0.4160
47311SOL    HW150901   9.001   0.941   2.355  0.0274 -0.8488  0.7793
47311SOL    HW250902   9.138   0.940   2.291 -0.0777 -2.5430  0.5463
47312SOL     OW50903  11.470   0.638   5.110  0.3002  0.2875 -0.2157
47312SOL    HW150904  11.508   0.672   5.029  1.4357 -0.3227  0.0386
47312SOL    HW250905  11.417   0.710   5.143 -0.7731  0.3007 -1.8551
47313SOL     OW50906   3.690  11.064   2.856  0.4130  0.2880 -0.2854
47313SOL    HW150907   3.612  11.091   2.905  1.0715  1.2263  0.2778
47313SOL    HW250908   3.691  11.122   2.780 -0.8892 -1.5059 -1.7398
47314SOL     OW50909   6.620   0.118   4.782  0.1704 -0.0842 -0.2143
47314SOL    HW150910   6.684   0.124   4.711  1.1412  2.5768  0.7643
47314SOL    HW250911   6.672   0.095   4.859 -0.5317 -0.6900  0.1022
47315SOL     OW50912   2.163   1.096   8.374  0.8604 -0.2500 -0.2337
47315SOL    HW150913   2.229   1.143   8.323 -1.2543  1.5142 -1.5429
47315SOL    HW250914   2.119   1.165   8.424 -1.4094 -0.9914 -1.1076
47316SOL     OW50915   6.602   8.993   6.308 -0.0228 -0.1946  0.4839
47316SOL    HW150916   6.622   9.086   6.299  2.2997 -0.8134 -2.1768
47316SOL    HW250917   6.509   8.986   6.289  0.2574  1.3755 -1.8977
47317SOL     OW50918   8.227  10.919   4.911 -0.6779 -0.6981 -0.1620
47317SOL    HW150919   8.182  10.849   4.958  0.1665 -0.6245  0.8060
47317SOL    HW250920   8.264  10.974   4.980  0.1152 -0.2630 -0.9102
47318SOL     OW50921   0.476   9.546   1.947 -0.5560 -0.4710  0.2130
47318SOL    HW150922   0.467   9.603   1.871 -0.6495  1.2911  1.4821
47318SOL    HW250923   0.569   9.521   1.947 -0.1983  0.8024  0.3809
47319SOL     OW50924   6.453  12.305   3.553  0.3307 -0.1245 -0.1066
47319SOL    HW150925   6.377  12.272   3.506 -0.6148 -0.2856  1.4295
47319SOL    HW250926   6.479  12.233   3.611 -0.0783  0.8281  1.3299
47320SOL     OW50927   7.471   8.463   9.740  0.2906  0.3474  0.1439
47320SOL    HW150928   7.559   8.479   9.706  1.1639  0.4042  2.2925
47320SOL    HW250929   7.424   8.545   9.724  0.5227  0.2404 -1.2149
47321SOL     OW50930   9.453   7.436  12.086  1.0728  0.3551  0.1493
47321SOL    HW150931   9.438   7.343  12.068 -0.1503  0.2746  1.4580
47321SOL    HW250932   9.426   7.480  12.006  1.1231 -0.3680 -0.2751
47322SOL     OW50933   5.484   9.081  10.677  0.2107 -0.1506 -0.2622
47322SOL    HW150934   5.505   8.994  10.710 -0.0281  0.5058  1.7408
47322SOL    HW250935   5.392   9.093  10.698  0.3953  0.8118  0.0431
47323SOL     OW50936  10.339  12.446  11.374 -0.4960  0.1604 -0.2425
47323SOL    HW150937  10.278  12.503  11.421 -0.9814 -0.1865 -0.4410
47323SOL    HW250938  10.387  12.400  11.443 -1.2365 -0.3763 -0.0638
47324SOL     OW50939   1.335   9.690   5.621 -0.0421 -0.4849  0.8862
47324SOL    HW150940   1.290   9.660   5.700 -1.2659  0.5191  0.5990
47324SOL    HW250941   1.314   9.783   5.615 -0.2056 -0.5945 -0.7615
47325SOL     OW50942   6.899   9.344   5.165  0.2289 -0.2489  0.0049
47325SOL    HW150943   6.899   9.262   5.214  0.2143  0.1059  0.6033
47325SOL    HW250944   6.812   9.348   5.124  0.6273 -1.0761 -0.9636
47326SOL     OW50945   6.204   7.624   5.121  0.0511  0.4371  0.7912
47326SOL    HW150946   6.220   7.684   5.195  1.1214  1.3287 -0.1259
47326SOL    HW250947   6.246   7.667   5.046 -2.5997  0.4804 -0.7737
47327SOL     OW50948  10.811   9.871   3.209 -0.0547  0.5511  0.1168
47327SOL    HW150949  10.894   9.881   3.256 -0.1752  1.6053  0.1313
47327SOL    HW250950  10.820   9.789   3.161  0.9058  0.5437  0.2932
47328SOL     OW50951   0.701   0.528   9.314  0.0108  0.0718 -0.1946
47328SOL    HW150952   0.784   0.479   9.316  0.2748  0.5161 -0.2959
47328SOL    HW250953   0.657   0.497   9.235 -0.0290 -0.3463 -0.0096
47329SOL     OW50954   5.789   4.193  11.969 -0.0102 -0.7191  0.9043
47329SOL    HW150955   5.855   4.259  11.945 -0.0072 -1.4816 -1.4460
47329SOL    HW250956   5.730   4.239  12.029  1.1987  0.7413  1.0501
47330SOL     OW50957   5.843   3.850   9.410  0.7996 -0.5579 -0.2021
47330SOL    HW150958   5.843   3.880   9.319 -0.0718 -0.2218 -0.0958
47330SOL    HW250959   5.836   3.755   9.405  0.4348 -0.5161 -0.4815
47331SOL     OW50960   3.392  11.392   6.519 -0.1525 -0.0284 -0.2599
47331SOL    HW150961   3.401  11.485   6.537  0.8227 -0.3524  1.1715
47331SOL    HW250962   3.445  11.377   6.441 -1.2662  0.7801 -1.2141
47332SOL     OW50963   8.718   7.183   8.817 -0.1249 -0.1856  0.1336
47332SOL    HW150964   8.633   7.225   8.834 -0.0412  0.3241 -0.6245
47332SOL    HW250965   8.772   7.253   8.779  0.1285 -0.8835 -0.8548
47333SOL     OW50966   9.356   5.311   0.281 -0.4985  0.2472  0.5485
47333SOL    HW150967   9.390   5.305   0.192  0.5031 -1.0385  0.9988
47333SOL    HW250968   9.316   5.398   0.284 -2.1257 -0.3247 -1.6718
47334SOL     OW50969   7.905  11.484   0.187 -0.7107 -0.0459 -0.3599
47334SOL    HW150970   7.890  11.569   0.146 -3.6038 -0.3633 -0.1849
47334SOL    HW250971   7.858  11.421   0.132 -0.4625 -1.2079  0.6872
47335SOL     OW50972   4.049   8.268   6.536  0.4166 -0.0219  0.0963
47335SOL    HW150973   4.058   8.197   6.599  0.0896 -0.4706 -0.3590
47335SOL    HW250974   4.135   8.274   6.494  0.5302  0.0479  0.3388
47336SOL     OW50975   6.563   9.120   9.167 -0.5178  0.6283 -0.1544
47336SOL    HW150976   6.642   9.152   9.210  1.9144 -1.5367 -2.6083
47336SOL    HW250977   6.544   9.185   9.100  0.7685 -0.0280 -1.1947
47337SOL     OW50978  11.899   9.659   8.505  0.4628  0.2934 -0.0112
47337SOL    HW150979  11.950   9.579   8.518 -0.0197 -0.2226 -1.1704
47337SOL    HW250980  11.880   9.689   8.594  1.1476 -0.5578  0.4447
47338SOL     OW50981  12.381  10.300   0.313  0.0986 -0.1113 -0.2319
47338SOL    HW150982  12.304  10.301   0.369 -0.5182 -1.2167 -1.0016
47338SOL    HW250983  12.440  10.236   0.354 -0.3894 -0.9849 -0.8589
47339SOL     OW50984   0.485   1.082   2.973  0.6413  0.5289  0.1322
47339SOL    HW150985   0.397   1.112   2.996  0.6005  1.4235 -1.0483
47339SOL    HW250986   0.477   1.049   2.883  0.9577 -2.0042  0.9628
47340SOL     OW50987   6.388   4.155   4.571  0.5102  0.3352  0.4314
47340SOL    HW150988   6.447   4.151   4.496 -1.0164  1.9052 -0.9450
47340SOL    HW250989   6.403   4.241   4.609  0.8618 -0.2254  1.6015
47341SOL     OW50990  11.686   5.042   3.677 -0.0027  0.5856 -0.4153
47341SOL    HW150991  11.720   5.105   3.741  0.0835 -1.3253  1.5497
47341SOL    HW250992  11.616   5.089   3.631  0.9031  2.4892  0.0393
47342SOL     OW50993   7.802   2.080   4.603 -0.6085 -0.8913  0.1135
47342SOL    HW150994   7.794   2.003   4.547 -0.2653  0.0503 -1.2935
47342SOL    HW250995   7.891   2.075   4.638  0.0797 -0.2416 -1.4292
47343SOL     OW50996   2.516  12.490   3.631  0.4875  0.6872 -0.2241
47343SOL    HW150997   2.542  12.473   3.721  0.0137  0.2272 -0.1668
47343SOL    HW250998   2.468  12.411   3.605 -0.3441  1.2784 -0.5061
47344SOL     OW50999   8.853   6.440   7.856 -0.1687 -0.1621 -0.0261
47344SOL    HW151000   8.843   6.506   7.787 -1.9172 -2.3794 -2.0967
47344SOL    HW251001   8.943   6.449   7.885 -0.0554  2.4457 -0.9017
47345SOL     OW51002   2.149   4.400   6.327  0.1041 -0.2792 -0.6092
47345SOL    HW151003   2.079   4.464   6.314 -1.0464 -1.6336 -1.2966
47345SOL    HW251004   2.163   4.398   6.421 -0.3901  0.4040 -0.5119
47346SOL     OW51005   3.915   1.020  10.109  0.3036 -0.1359  0.0229
47346SOL    HW151006   3.836   1.070  10.092 -0.0556 -0.8355 -0.4237
47346SOL    HW251007   3.889   0.929  10.095  0.8791 -0.4726  1.0468
47347SOL     OW51008   5.718   0.200   9.962 -0.2363 -0.5703 -0.2596
47347SOL    HW151009   5.682   0.169  10.045 -1.5477 -0.9934 -0.9522
47347SOL    HW251010   5.767   0.279   9.985  0.0729 -1.0951  1.0089
47348SOL     OW51011   1.076   4.105   4.121 -0.7076  0.1704 -0.3463
47348SOL    HW151012   1.041   4.093   4.033  1.1651  2.1631 -1.4399
47348SOL    HW251013   1.165   4.136   4.109 -0.3738  0.5193  2.2703
47349SOL     OW51014   1.175   1.258   3.761 -0.2209  0.0235 -0.1981
47349SOL    HW151015   1.174   1.203   3.683  0.7448  1.0413 -0.9556
47349SOL    HW251016   1.257   1.235   3.805 -0.9358 -0.8143  0.7343
47350SOL     OW51017   1.394   6.181  12.315 -0.1831  0.1749 -0.1354
47350SOL    HW151018   1.330   6.116  12.346 -0.1764  0.1086 -0.2619
47350SOL    HW251019   1.475   6.157  12.359 -0.0828 -0.1459 -0.4910
47351SOL     OW51020   5.783   7.689   5.505  0.2199 -0.2507 -0.3581
47351SOL    HW151021   5.833   7.771   5.507  0.1813 -0.2417  1.1724
47351SOL    HW251022   5.743   7.688   5.418  0.0247  1.4805 -0.3314
47352SOL     OW51023   8.616  10.538   5.421 -0.3669 -0.3720  0.1787
47352SOL    HW151024   8.652  10.583   5.498 -0.1956  0.1918 -0.2276
47352SOL    HW251025   8.573  10.606   5.371  1.7263 -0.1854 -1.5392
47353SOL     OW51026   1.054   6.711   1.244 -0.2853 -0.3126 -0.3292
47353SOL    HW151027   1.011   6.797   1.246 -0.7484 -0.5513  0.4731
47353SOL    HW251028   1.001   6.657   1.302 -0.0741 -1.1849 -0.9318
47354SOL     OW51029   0.255   7.318   9.152 -0.2613 -0.1148  0.0529
47354SOL    HW151030   0.307   7.240   9.137  0.7075  0.4538  0.4083
47354SOL    HW251031   0.179   7.307   9.094  0.3897 -0.8061 -0.6974
47355SOL     OW51032   8.137   9.070   8.684  0.1348  0.2044  0.2699
47355SOL    HW151033   8.141   9.067   8.780 -1.8939 -1.2410  0.3625
47355SOL    HW251034   8.225   9.044   8.656  0.6274  0.2052  1.7305
47356SOL     OW51035   3.543   7.048   8.854 -0.1649  0.7164 -0.7124
47356SOL    HW151036   3.498   6.967   8.830  1.7080 -0.4661 -0.4890
47356SOL    HW251037   3.532   7.055   8.949 -0.3348  0.7338 -0.7330
47357SOL     OW51038   1.267   3.931   3.696 -0.1731 -0.0106 -0.0853
47357SOL    HW151039   1.357   3.957   3.676 -0.1852  0.5712  0.5749
47357SOL    HW251040   1.213   4.007   3.671 -0.3013  0.2855  1.0218
47358SOL     OW51041   0.608  10.764   4.393 -0.4305  0.0150 -0.3918
47358SOL    HW151042   0.599  10.728   4.482 -0.2336  0.5051 -0.1728
47358SOL    HW251043   0.540  10.831   4.387  0.2068  0.6790 -0.2595
47359SOL     OW51044   4.041   6.182  11.080 -0.5451 -0.2407  0.2338
47359SOL    HW151045   4.026   6.136  10.997  0.9994  1.4534 -1.0811
47359SOL    HW251046   4.128   6.153  11.108 -0.7751 -0.2930  0.9102
47360SOL     OW51047  12.115   2.295  10.534  0.5171  0.5841  0.8877
47360SOL    HW151048  12.122   2.364  10.600  1.7132  0.7704  0.5896
47360SOL    HW251049  12.200   2.297  10.489  0.3059 -0.6187  0.4183
47361SOL     OW51050   6.640  11.127  11.348 -0.5977 -0.0036  0.3485
47361SOL    HW151051   6.690  11.100  11.425 -1.5844  0.2889  1.1179
47361SOL    HW251052   6.573  11.187  11.383 -0.9707  0.2498 -0.7573
47362SOL     OW51053   6.097   5.745  12.000  0.5348 -0.3617 -0.1425
47362SOL    HW151054   6.150   5.814  12.041  0.3845 -0.1163 -0.3635
47362SOL    HW251055   6.159   5.674  11.986  0.6715 -0.3092  0.1731
47363SOL     OW51056   2.553   0.548  12.331  0.5315  0.0372  0.1276
47363SOL    HW151057   2.580   0.529  12.241  0.4027 -0.8565  0.2673
47363SOL    HW251058   2.612   0.497  12.385  1.1291  1.1893  0.6051
47364SOL     OW51059   1.838   0.095   2.871  0.2932  0.5630  0.4120
47364SOL    HW151060   1.875   0.078   2.784  0.1610 -1.2346  0.6578
47364SOL    HW251061   1.786   0.174   2.860  0.8242  0.7498 -0.9864
47365SOL     OW51062   2.647   6.667   8.706  0.0829 -0.1809  0.0241
47365SOL    HW151063   2.626   6.704   8.792 -1.3356  1.0856 -0.8033
47365SOL    HW251064   2.589   6.591   8.697  1.5546 -1.4643  0.8975
47366SOL     OW51065   0.785   7.807   7.522 -0.0193 -0.0405  0.3788
47366SOL    HW151066   0.863   7.862   7.513  0.0815 -0.1698  0.4536
47366SOL    HW251067   0.730   7.831   7.448  0.4708 -0.5699 -0.1602
47367SOL     OW51068   8.212   9.881  11.075 -0.2701 -0.1542  0.2209
47367SOL    HW151069   8.267   9.848  11.004 -0.0191  2.0322 -0.6971
47367SOL    HW251070   8.249   9.842  11.154  2.1307  0.5709 -0.4506
47368SOL     OW51071   0.002  10.183   5.767 -0.3531 -0.3771  0.6989
47368SOL    HW151072   0.047  10.227   5.839 -1.6371  2.2695  0.0133
47368SOL    HW251073   0.073  10.146   5.714  0.9987  1.9065  0.7476
47369SOL     OW51074  11.266   1.292   1.980  0.5403  0.2260  0.1624
47369SOL    HW151075  11.289   1.221   2.039  0.8564  0.7655  0.6958
47369SOL    HW251076  11.247   1.249   1.897 -1.8713 -0.7588  1.1457
47370SOL     OW51077   2.425  11.819   2.844 -0.0000 -0.4835 -0.0982
47370SOL    HW151078   2.431  11.909   2.876 -2.6256 -0.4618  0.5949
47370SOL    HW251079   2.466  11.821   2.757  0.1349  1.3339 -0.0225
47371SOL     OW51080   9.276   2.626   6.902 -0.2496  0.6404 -0.4913
47371SOL    HW151081   9.231   2.542   6.897 -0.9335  1.0824 -3.3533
47371SOL    HW251082   9.221   2.686   6.853  1.3077  2.2421 -0.3724
47372SOL     OW51083   1.467   4.637   2.422  0.8353  0.4454  0.3165
47372SOL    HW151084   1.540   4.645   2.361  1.1665  0.3600  0.6976
47372SOL    HW251085   1.441   4.545   2.415 -1.9242  1.2405 -2.8621
47373SOL     OW51086   1.860   9.608  10.282 -0.1713  0.1283  0.2536
47373SOL    HW151087   1.920   9.603  10.356 -1.0597  0.1449  0.9958
47373SOL    HW251088   1.814   9.691  10.294  0.9132  1.0187 -1.3246
47374SOL     OW51089   5.075   3.451   9.060 -0.2213  0.2456  0.2250
47374SOL    HW151090   5.139   3.500   9.112 -0.9137 -0.7965  2.1825
47374SOL    HW251091   5.118   3.368   9.039 -0.1306  0.4545 -0.4182
47375SOL     OW51092   5.881   9.418  10.929  0.2182 -0.0441 -0.0889
47375SOL    HW151093   5.941   9.439  11.001  0.3305 -0.8292  0.0534
47375SOL    HW251094   5.794   9.430  10.967  0.2607  1.6679 -0.4623
47376SOL     OW51095   8.731   8.057   9.748 -0.3649  0.5974  0.1017
47376SOL    HW151096   8.643   8.083   9.773 -1.3260 -1.5789 -0.8072
47376SOL    HW251097   8.725   8.035   9.655  1.5449  1.9456 -0.4098
47377SOL     OW51098   5.228  11.806   0.998  0.4476  0.4120  0.3513
47377SOL    HW151099   5.142  11.841   0.974  0.1530  0.8215  1.9076
47377SOL    HW251100   5.228  11.717   0.963 -1.0116  0.0583  1.1853
47378SOL     OW51101   1.736  10.150   1.084  0.1585  0.1264  0.3670
47378SOL    HW151102   1.669  10.086   1.108  1.0305 -1.0292 -0.1642
47378SOL    HW251103   1.700  10.193   1.006  0.5467 -1.3795 -0.6852
47379SOL     OW51104   9.607  10.568   0.620  0.3002 -0.3407  0.2498
47379SOL    HW151105   9.692  10.607   0.641  0.8118 -0.9274 -0.6795
47379SOL    HW251106   9.582  10.610   0.538  0.3395 -1.1725 -0.1901
47380SOL     OW51107   4.875   1.417  10.343 -0.1337  0.4538 -0.4151
47380SOL    HW151108   4.818   1.382  10.412  0.2332  0.2312 -0.2221
47380SOL    HW251109   4.946   1.353  10.337 -0.0440  0.5949 -0.8408
47381SOL     OW51110   2.810   5.232   3.335 -0.0418 -0.0762 -0.3909
47381SOL    HW151111   2.774   5.171   3.270  1.4076 -0.4826 -0.8434
47381SOL    HW251112   2.852   5.301   3.283 -0.1026  0.3635  0.1263
47382SOL     OW51113   5.207   2.471   8.516 -0.2523  0.1405 -0.0502
47382SOL    HW151114   5.218   2.431   8.430 -2.1666  0.2996 -0.4130
47382SOL    HW251115   5.152   2.549   8.500 -0.9085  0.0023  1.3268
47383SOL     OW51116   0.111   7.607   9.365  0.6043 -0.0606  0.2957
47383SOL    HW151117   0.196   7.631   9.401  0.8967  0.1336 -0.5306
47383SOL    HW251118   0.049   7.625   9.437  1.1521  0.5510  0.6212
47384SOL     OW51119   2.452   1.113   8.338  0.4765 -0.0961  0.0259
47384SOL    HW151120   2.424   1.036   8.388  1.6700 -0.4983  0.1001
47384SOL    HW251121   2.471   1.080   8.250 -0.3409  0.3744 -0.3373
47385SOL     OW51122   1.477  10.914   9.584  0.0015 -0.0652 -0.1140
47385SOL    HW151123   1.421  10.985   9.616  0.3081 -0.3710  1.1391
47385SOL    HW251124   1.444  10.836   9.629  1.2672 -0.2927  0.4568
47386SOL     OW51125   6.494   6.207   8.746 -0.1824 -0.0573 -0.2699
47386SOL    HW151126   6.570   6.172   8.700 -0.7563  0.6688 -1.8418
47386SOL    HW251127   6.421   6.153   8.716 -0.4825  0.0431  0.2646
47387SOL     OW51128   6.859   4.583   5.431  0.1840 -0.6009  0.4094
47387SOL    HW151129   6.872   4.573   5.337 -2.0952  1.5506 -0.2493
47387SOL    HW251130   6.920   4.652   5.456  0.0517 -0.4346  0.2779
47388SOL     OW51131   8.119   0.406   4.236  0.0502  0.0987  0.0498
47388SOL    HW151132   8.162   0.398   4.151 -0.2280  0.3464 -0.1142
47388SOL    HW251133   8.025   0.409   4.216 -0.3094 -3.4431  0.5541
47389SOL     OW51134   5.343   5.374   5.149  0.2960 -0.0607 -0.1015
47389SOL    HW151135   5.352   5.279   5.147  2.5466  0.0004  1.6356
47389SOL    HW251136   5.285   5.395   5.076  0.8990 -2.6444 -1.4535
47390SOL     OW51137   2.095  11.309   5.268 -0.4707  0.5876 -0.2421
47390SOL    HW151138   2.144  11.390   5.251  1.4135 -0.0474  1.6683
47390SOL    HW251139   2.015  11.318   5.215 -0.7438  4.0428  0.4855
47391SOL     OW51140   7.806  10.411   9.367  0.3210 -0.3880 -0.4964
47391SOL    HW151141   7.805  10.320   9.337  1.3797 -0.6577  0.2330
47391SOL    HW251142   7.741  10.414   9.437  0.3610 -0.6104 -0.4491
47392SOL     OW51143  12.265   1.292   5.561 -0.1973  0.3619  0.3068
47392SOL    HW151144  12.352   1.320   5.589  0.3565 -1.5176  0.6238
47392SOL    HW251145  12.219   1.270   5.642  0.0193 -1.2552  0.0354
47393SOL     OW51146   0.605   3.981   7.119  0.0489 -0.1440  0.0271
47393SOL    HW151147   0.657   3.994   7.040  0.7504  0.5624  0.5867
47393SOL    HW251148   0.669   3.984   7.191 -0.7410  0.6614  0.7233
47394SOL     OW51149  10.937   0.929   9.513  0.2041 -0.1808  0.0448
47394SOL    HW151150  10.943   0.950   9.606  0.6947 -0.6495  0.1242
47394SOL    HW251151  10.843   0.926   9.495  0.0883 -1.0608  0.7477
47395SOL     OW51152  11.293   4.103   7.309  0.7209  1.2207 -0.3089
47395SOL    HW151153  11.216   4.092   7.252 -1.6502  2.6466  2.3438
47395SOL    HW251154  11.349   4.165   7.262 -0.4613  1.3171 -1.6724
47396SOL     OW51155   5.681   2.453   3.203  0.1334  0.5310 -0.3390
47396SOL    HW151156   5.768   2.486   3.224  0.6806 -0.2281 -1.3608
47396SOL    HW251157   5.687   2.422   3.113 -0.9815 -0.2698 -0.1649
47397SOL     OW51158   1.019   8.366   1.288  0.0015  0.0088  0.2201
47397SOL    HW151159   0.938   8.417   1.287 -0.0475 -0.0536 -1.4657
47397SOL    HW251160   0.991   8.275   1.296 -0.0462  0.0484  0.5103
47398SOL     OW51161   0.471   6.672   8.093 -0.3080 -0.6129  0.1738
47398SOL    HW151162   0.475   6.739   8.025  1.4728 -0.7329  0.1002
47398SOL    HW251163   0.429   6.597   8.051  2.0870 -1.2124 -1.3484
47399SOL     OW51164  10.589   5.061   2.124  0.5861 -0.2624 -0.1193
47399SOL    HW151165  10.546   4.979   2.099 -2.2470  1.1074 -0.0900
47399SOL    HW251166  10.631   5.091   2.043  0.0165 -0.8231 -0.6443
47400SOL     OW51167   6.977   3.608  12.489  0.7199 -0.1214 -0.3673
47400SOL    HW151168   6.939   3.675  12.433  1.2021 -0.9629 -1.7495
47400SOL    HW251169   6.920   3.533  12.479  1.5441 -0.7088 -0.8066
47401SOL     OW51170   8.281   1.286  10.281 -0.1240 -0.2350  0.4131
47401SOL    HW151171   8.270   1.380  10.296  2.5164  0.1318  0.6714
47401SOL    HW251172   8.341   1.281  10.206  0.9506 -1.6354  1.3190
47402SOL     OW51173   7.838  11.890   4.012  0.1088  0.2837  0.7149
47402SOL    HW151174   7.835  11.967   4.068  0.8127  0.6881  0.2075
47402SOL    HW251175   7.750  11.854   4.016  0.0003  0.6234  1.6326
47403SOL     OW51176   5.408   1.962   9.194 -0.1583 -0.1562  0.2291
47403SOL    HW151177   5.393   1.904   9.120  1.6026  1.6287 -1.6346
47403SOL    HW251178   5.494   1.938   9.227 -0.2793  0.0732  0.7326
47404SOL     OW51179  10.081  10.423  12.242  0.4971  0.2452  0.1507
47404SOL    HW151180  10.175  10.422  12.226  0.4647 -0.7508 -0.0460
47404SOL    HW251181  10.046  10.488  12.181  0.9493 -0.0008 -0.3696
47405SOL     OW51182  11.739   0.689   8.939 -0.0666  0.1169  0.6520
47405SOL    HW151183  11.694   0.771   8.919  0.8368  0.5297  0.2534
47405SOL    HW251184  11.669   0.624   8.941 -0.6111  0.5989 -0.7930
47406SOL     OW51185  12.375   0.392   9.152  0.1269 -0.0588  0.2033
47406SOL    HW151186  12.349   0.401   9.061  0.7450  3.2752  0.2442
47406SOL    HW251187  12.443   0.324   9.151 -0.6212 -0.8406 -1.5907
47407SOL     OW51188   0.121   3.149   2.426  0.1857  0.1158 -0.1947
47407SOL    HW151189   0.117   3.059   2.396 -0.6150  0.5784 -1.5502
47407SOL    HW251190   0.172   3.195   2.359 -0.2001  0.8478 -0.0029
47408SOL     OW51191   7.656   5.195  11.318 -0.5086 -0.2008 -0.1506
47408SOL    HW151192   7.662   5.120  11.377 -2.0952  0.2979  0.7343
47408SOL    HW251193   7.735   5.246  11.336  0.1152 -1.1752 -0.0747
47409SOL     OW51194  10.142   8.123   0.651 -0.1708  0.1031  0.4315
47409SOL    HW151195  10.065   8.102   0.703 -0.4266 -0.7120 -0.2380
47409SOL    HW251196  10.207   8.058   0.678 -0.1725 -0.0679  0.0371
47410SOL     OW51197   0.590  11.406  11.453 -0.7687  0.0332  0.0691
47410SOL    HW151198   0.643  11.479  11.486  0.7493 -0.7476 -0.5575
47410SOL    HW251199   0.524  11.392  11.521 -1.0380  1.9011  0.2496
47411SOL     OW51200   5.661   2.409   5.406 -0.0218 -0.3913 -0.2658
47411SOL    HW151201   5.599   2.450   5.466  0.7962 -0.7969  0.8921
47411SOL    HW251202   5.615   2.405   5.323 -0.6850  1.4707 -0.0389
47412SOL     OW51203   9.794   3.747   6.843 -0.1106 -0.6626  0.1827
47412SOL    HW151204   9.790   3.831   6.888  1.5899 -0.4367 -0.0287
47412SOL    HW251205   9.762   3.766   6.755 -0.6160 -0.4624  0.4018
47413SOL     OW51206  12.550   2.692   2.677 -0.1612  0.1074 -0.3433
47413SOL    HW151207  12.461   2.701   2.641  0.2751 -0.0323 -1.5067
47413SOL    HW251208  12.556   2.760   2.743 -0.2807  1.8289 -2.0305
47414SOL     OW51209  10.317  11.523   5.177 -0.2755  0.1164 -0.5591
47414SOL    HW151210  10.288  11.595   5.121 -0.3665 -0.2978 -1.0600
47414SOL    HW251211  10.337  11.452   5.116 -0.0787 -0.2454 -0.0825
47415SOL     OW51212   8.239   0.813   3.199  0.0717 -0.2341  0.5409
47415SOL    HW151213   8.269   0.746   3.137  3.6184  1.7030 -0.1476
47415SOL    HW251214   8.307   0.814   3.267  0.4454  2.8926  0.2455
47416SOL     OW51215   4.248   2.230  12.298 -0.6282  0.2221  0.1847
47416SOL    HW151216   4.214   2.293  12.234 -0.1729  0.4691  0.1844
47416SOL    HW251217   4.330   2.269  12.329  0.9233 -1.4379 -1.5444
47417SOL     OW51218   1.768   0.141   7.214 -0.7458 -0.4796  0.2223
47417SOL    HW151219   1.750   0.220   7.163 -0.0646 -0.1651  0.4518
47417SOL    HW251220   1.840   0.166   7.271  1.1600 -1.9625 -1.3762
47418SOL     OW51221  10.893   1.195   8.198 -0.0106  0.1905  0.2937
47418SOL    HW151222  10.815   1.197   8.142  0.3055 -0.1500 -0.1596
47418SOL    HW251223  10.966   1.209   8.138  0.2367  1.2746  0.8146
47419SOL     OW51224   9.836   9.964   5.242  0.5425  0.0667  0.1231
47419SOL    HW151225   9.925   9.951   5.210 -0.0906 -1.2553 -1.2605
47419SOL    HW251226   9.790  10.008   5.170  0.0282  0.5421  0.7337
47420SOL     OW51227   7.305   5.210   4.679  0.3768 -0.5803  0.4845
47420SOL    HW151228   7.318   5.200   4.773  0.9912 -1.7314  0.3044
47420SOL    HW251229   7.353   5.290   4.657  2.4526 -1.6680  0.7751
47421SOL     OW51230   2.006  10.018   6.796  0.0390  0.4484  0.7782
47421SOL    HW151231   1.970   9.983   6.714 -0.2319  1.3872  0.4782
47421SOL    HW251232   2.064  10.088   6.767 -0.9677  1.5810  1.4231
47422SOL     OW51233   8.691   6.000   9.654 -0.3579  0.1156  0.3773
47422SOL    HW151234   8.693   6.071   9.589 -2.9292  0.6940  0.8282
47422SOL    HW251235   8.782   5.970   9.660 -0.0195 -0.1773 -3.6856
47423SOL     OW51236  11.534   1.820  10.789  0.0922 -0.3614 -0.0978
47423SOL    HW151237  11.442   1.825  10.818  0.2547  0.0924  0.3599
47423SOL    HW251238  11.534   1.753  10.720 -0.8666  0.6743 -1.1513
47424SOL     OW51239   0.039   8.581   8.456 -0.2436  0.6627 -0.2242
47424SOL    HW151240   0.033   8.676   8.454  2.2956  0.9532  1.3808
47424SOL    HW251241   0.049   8.555   8.365  1.4355  2.1862 -0.5221
47425SOL     OW51242   2.056   6.769   2.059 -0.3836 -0.1361  0.6887
47425SOL    HW151243   2.032   6.678   2.079 -1.4632 -0.2831 -1.0364
47425SOL    HW251244   2.125   6.790   2.122  0.5977 -2.4740  0.5045
47426SOL     OW51245   9.282  11.806   6.871  0.2450 -0.3854 -0.0517
47426SOL    HW151246   9.187  11.815   6.861  0.2459 -1.4299 -1.2799
47426SOL    HW251247   9.300  11.716   6.847  1.6367  0.0136 -0.5804
47427SOL     OW51248   7.337  10.369   9.533  0.2036  0.1582  0.1197
47427SOL    HW151249   7.292  10.342   9.612 -2.5088  2.4804 -0.4684
47427SOL    HW251250   7.297  10.318   9.462  0.5722  0.1391 -0.0791
47428SOL     OW51251  10.531   5.038   6.023 -0.1315 -0.4624  0.0141
47428SOL    HW151252  10.482   4.957   6.036 -2.1468  0.5621 -0.8072
47428SOL    HW251253  10.545   5.043   5.928 -0.5947  0.4548 -0.0167
47429SOL     OW51254   8.499   3.999   7.179  0.1455 -0.2107  0.3754
47429SOL    HW151255   8.569   4.062   7.199 -0.7034  0.8417  0.0925
47429SOL    HW251256   8.503   3.936   7.251  0.3317  0.7668  1.2467
47430SOL     OW51257   3.745   9.367   9.516  0.0465  0.0520 -0.1276
47430SOL    HW151258   3.803   9.428   9.472  0.9902  0.2620  1.3256
47430SOL    HW251259   3.800   9.292   9.536 -0.1066  0.3010  1.3727
47431SOL     OW51260   0.221   9.508   9.034 -0.1387 -0.0454  0.0705
47431SOL    HW151261   0.292   9.446   9.020  0.7241  0.9474 -0.0607
47431SOL    HW251262   0.198   9.537   8.946  0.4730  0.9133  0.2135
47432SOL     OW51263   3.567   1.364   1.503 -0.0364  0.1035  0.3063
47432SOL    HW151264   3.544   1.451   1.537  1.1341  0.3055  0.6235
47432SOL    HW251265   3.550   1.370   1.409 -0.2607  0.5764  0.3723
47433SOL     OW51266   7.525  11.041   7.247 -0.2660  0.7163  0.7185
47433SOL    HW151267   7.567  11.125   7.233 -0.5521  0.4160 -2.8820
47433SOL    HW251268   7.443  11.046   7.197  0.9888 -2.4945 -2.1166
47434SOL     OW51269   1.072  11.436   8.116  0.2334  0.1841  0.0791
47434SOL    HW151270   1.079  11.341   8.121  0.3971  0.1966  0.0807
47434SOL    HW251271   0.985  11.451   8.078 -1.3402  0.0817  3.2954
47435SOL     OW51272   1.722   1.032   5.876  0.5224 -0.3379 -0.1510
47435SOL    HW151273   1.741   0.958   5.934 -0.9684 -0.1382  0.6402
47435SOL    HW251274   1.723   0.994   5.788  0.0262 -1.2569  0.2287
47436SOL     OW51275   5.108  12.575   1.158 -0.2497  0.0269 -0.2555
47436SOL    HW151276   5.185  12.543   1.204 -1.1858  0.3638  1.6524
47436SOL    HW251277   5.126  12.668   1.142 -0.9349  0.5645  1.8132
47437SOL     OW51278   8.086  11.294   2.123 -0.1232 -0.6538 -0.2234
47437SOL    HW151279   8.117  11.373   2.167 -1.1792 -0.1869 -0.3033
47437SOL    HW251280   8.135  11.293   2.040 -0.2718  0.0354 -0.3225
47438SOL     OW51281  12.360  11.085   4.299  0.2710 -0.4949 -0.3032
47438SOL    HW151282  12.396  11.011   4.251 -0.1702 -0.3827 -0.8255
47438SOL    HW251283  12.435  11.141   4.318  0.6952 -1.3499  0.6083
47439SOL     OW51284   7.393   0.382  10.938 -0.3551  0.1168  0.2289
47439SOL    HW151285   7.323   0.373  10.875  0.3904  1.9799 -0.9541
47439SOL    HW251286   7.398   0.476  10.956  1.6608  0.0183  0.4538
47440SOL     OW51287  10.028  12.292   2.717 -0.3024  0.1499 -0.1772
47440SOL    HW151288  10.036  12.367   2.659 -0.0819 -0.2422 -0.6622
47440SOL    HW251289   9.965  12.234   2.673  0.4226 -0.4862 -0.4065
47441SOL     OW51290   5.270   9.887  11.999 -0.5749 -0.0789 -0.0897
47441SOL    HW151291   5.295   9.950  11.932 -1.5719  0.5102  0.0790
47441SOL    HW251292   5.340   9.892  12.064 -0.9851  1.3645  0.2606
47442SOL     OW51293   2.876   0.893   0.280 -0.4845 -0.2429 -0.5204
47442SOL    HW151294   2.872   0.981   0.245  1.1520 -0.7944 -2.2426
47442SOL    HW251295   2.892   0.905   0.374 -1.6547  1.2489 -0.4806
47443SOL     OW51296   9.697   6.359   2.774  0.4183 -0.3310 -0.1766
47443SOL    HW151297   9.786   6.322   2.780  0.0602 -0.9433  2.0099
47443SOL    HW251298   9.710   6.453   2.778  1.0781 -0.2641 -2.1896
47444SOL     OW51299   2.636   4.879   9.118  0.0797  0.3432 -0.7471
47444SOL    HW151300   2.561   4.924   9.079  0.8820  0.6495 -1.9873
47444SOL    HW251301   2.665   4.937   9.188 -1.3818 -0.2145  0.3798
47445SOL     OW51302   7.603  11.590  12.285 -0.3236 -0.2659 -0.3376
47445SOL    HW151303   7.555  11.511  12.307  0.5887 -0.7767 -0.1098
47445SOL    HW251304   7.642  11.571  12.199  0.6604 -0.4358  0.1374
47446SOL     OW51305  10.586   9.136   0.255 -0.0281 -0.3563 -0.0980
47446SOL    HW151306  10.588   9.166   0.345 -0.5233  0.6884 -0.4248
47446SOL    HW251307  10.678   9.134   0.229  0.0426  0.4855  0.0660
47447SOL     OW51308   7.533   7.683   8.756 -0.3696 -0.4025  0.2410
47447SOL    HW151309   7.504   7.765   8.797 -0.7383 -1.3707  2.0374
47447SOL    HW251310   7.456   7.650   8.712 -0.3974 -0.1101  0.0646
47448SOL     OW51311  12.170   6.093   0.899 -0.1970  0.3097 -0.1743
47448SOL    HW151312  12.199   6.060   0.814  0.3086  0.5456 -0.0946
47448SOL    HW251313  12.250   6.108   0.948 -0.3456  2.4438 -0.4967
47449SOL     OW51314   2.342   8.157   2.979  0.1308 -0.4274  0.3846
47449SOL    HW151315   2.292   8.178   2.900  1.3616  0.2272 -0.2507
47449SOL    HW251316   2.406   8.093   2.951  2.4643  1.8536  0.0882
47450SOL     OW51317   7.195   0.265   4.141  0.4209 -0.0829 -0.4302
47450SOL    HW151318   7.230   0.177   4.125 -0.8059 -0.6938  0.1124
47450SOL    HW251319   7.102   0.251   4.155  0.3491  1.2123  0.5459
47451SOL     OW51320   0.568   4.295   5.887  0.3054  0.1691 -0.0928
47451SOL    HW151321   0.617   4.336   5.816  1.3599  1.6136  1.3885
47451SOL    HW251322   0.632   4.239   5.932 -0.4145 -0.9448 -0.4142
47452SOL     OW51323   3.883  11.666  12.311  0.1446 -0.4451 -0.2166
47452SOL    HW151324   3.815  11.614  12.270 -0.2963 -0.6699  0.7768
47452SOL    HW251325   3.893  11.629  12.399 -0.6142  1.5133  0.7507
47453SOL     OW51326   2.179   6.519   9.622 -0.5639  0.3108  0.6679
47453SOL    HW151327   2.190   6.432   9.661  0.2219  0.2673  0.3683
47453SOL    HW251328   2.112   6.561   9.676 -0.9448 -0.4688  0.8275
47454SOL     OW51329   0.524   2.621  12.017  0.5588 -0.4207 -0.0087
47454SOL    HW151330   0.566   2.609  11.932  0.6576  0.8045 -0.1577
47454SOL    HW251331   0.443   2.669  11.997  0.5969 -0.1027  0.5826
47455SOL     OW51332   8.544  12.025   9.019 -0.0014 -0.1341 -0.2081
47455SOL    HW151333   8.619  11.978   9.055  1.0573  1.0279 -0.8503
47455SOL    HW251334   8.537  12.104   9.073 -0.3022  0.1315 -0.6369
47456SOL     OW51335   8.938   6.722   2.471 -0.4658  0.5809 -0.1057
47456SOL    HW151336   8.947   6.642   2.419 -1.1150  0.7730 -0.5281
47456SOL    HW251337   8.945   6.793   2.407 -0.9060  0.8325  0.1186
47457SOL     OW51338   6.282   3.501   1.713 -0.3645 -0.1265 -0.3228
47457SOL    HW151339   6.360   3.552   1.734 -0.9831  0.6298  0.1838
47457SOL    HW251340   6.238   3.489   1.798 -1.3021  0.3076 -0.7349
47458SOL     OW51341   8.195   9.367   5.055 -0.1097 -0.2059 -0.2640
47458SOL    HW151342   8.226   9.375   4.964  1.4604 -1.5192  0.1025
47458SOL    HW251343   8.259   9.417   5.106 -0.1256 -0.6925  0.2472
47459SOL     OW51344  11.995  11.182   0.983 -0.0880  0.1814  0.0738
47459SOL    HW151345  12.055  11.189   1.057  0.1225  0.8736 -0.1619
47459SOL    HW251346  11.908  11.181   1.023  0.0047 -4.2854  0.7447
47460SOL     OW51347   2.074  11.385   3.999  0.1532 -0.0135  0.5185
47460SOL    HW151348   2.060  11.315   4.063 -1.4050  1.2595  1.6620
47460SOL    HW251349   2.018  11.361   3.925 -0.9632  0.3639  1.2176
47461SOL     OW51350   8.936   0.884   9.743  0.3992  0.4531 -0.0718
47461SOL    HW151351   8.998   0.825   9.699  0.5055  0.2176  0.3812
47461SOL    HW251352   8.992   0.953   9.779  0.2051  1.1854 -1.1560
47462SOL     OW51353   9.422  12.381  12.469  0.2323 -0.5181  0.2069
47462SOL    HW151354   9.331  12.394  12.443  0.0842  0.6434  1.2123
47462SOL    HW251355   9.446  12.296  12.432 -0.7983 -0.1830 -1.3263
47463SOL     OW51356  11.408   3.382   3.990  0.2477 -0.3547 -0.5050
47463SOL    HW151357  11.396   3.289   4.006  0.2063 -0.9177 -3.3128
47463SOL    HW251358  11.496   3.401   4.023 -0.6713 -0.6781  2.4738
47464SOL     OW51359   1.234   5.219   3.524 -0.1714 -0.1602  0.0588
47464SOL    HW151360   1.268   5.205   3.612  0.7858 -1.3675 -0.4635
47464SOL    HW251361   1.307   5.256   3.475  0.1347 -1.8025 -0.8135
47465SOL     OW51362  10.318  12.248   3.034 -0.0147  0.3885  0.0911
47465SOL    HW151363  10.348  12.327   3.079 -0.5332 -0.1458  1.4592
47465SOL    HW251364  10.283  12.279   2.951  0.2294  1.5424  0.3978
47466SOL     OW51365   5.523   7.223   3.440  0.2553 -0.5222 -0.2854
47466SOL    HW151366   5.470   7.181   3.373  0.7163 -1.8925  0.1779
47466SOL    HW251367   5.514   7.167   3.517  3.1762 -1.4204 -0.4867
47467SOL     OW51368   1.987   3.163   2.048  0.0737 -0.0207 -0.1032
47467SOL    HW151369   1.960   3.225   1.980 -2.4929 -0.7726  0.1005
47467SOL    HW251370   1.964   3.077   2.013  0.9471 -0.6321  0.7655
47468SOL     OW51371   4.214   6.025   1.576  0.4193  0.2519 -0.2379
47468SOL    HW151372   4.231   5.931   1.567 -0.6930  0.0125 -0.0665
47468SOL    HW251373   4.203   6.056   1.486 -0.1776  0.0087 -0.2573
47469SOL     OW51374   8.782   7.787   8.996 -0.4870 -0.2291  0.0949
47469SOL    HW151375   8.802   7.769   8.905 -0.3126  0.0173  0.0828
47469SOL    HW251376   8.686   7.795   8.999 -0.4785 -0.0370 -0.1056
47470SOL     OW51377   0.403   8.891   8.449 -0.4287 -0.0827 -0.1643
47470SOL    HW151378   0.489   8.914   8.483 -0.4679  0.0843 -0.1751
47470SOL    HW251379   0.408   8.911   8.356 -0.2624 -0.7143 -0.2944
47471SOL     OW51380   2.441  11.946   5.431  0.9208  0.1915 -0.9295
47471SOL    HW151381   2.481  11.921   5.347  1.2327  0.0326 -0.7366
47471SOL    HW251382   2.379  12.015   5.409 -0.9393 -1.6005 -1.6897
47472SOL     OW51383  12.392   7.600  12.106 -0.3703  0.5518  0.3486
47472SOL    HW151384  12.460   7.596  12.039 -2.2288 -2.1352 -1.5975
47472SOL    HW251385  12.310   7.597  12.056 -1.8650  0.1356  2.7020
47473SOL     OW51386  10.787   6.280   1.513  0.4575  0.0963 -0.0205
47473SOL    HW151387  10.705   6.309   1.473 -0.1389 -1.2764  0.1699
47473SOL    HW251388  10.764   6.261   1.604  1.1149  0.2288  0.1794
47474SOL     OW51389   2.708   8.437  10.240 -0.3713 -0.1827 -0.1077
47474SOL    HW151390   2.721   8.482  10.324  0.7996  0.4426 -0.5987
47474SOL    HW251391   2.787   8.384  10.229 -0.7228 -0.6128 -0.6120
47475SOL     OW51392   7.332   4.716   4.700 -0.5489 -0.1216 -0.1072
47475SOL    HW151393   7.263   4.765   4.656 -1.2298  0.2545  1.2993
47475SOL    HW251394   7.290   4.684   4.781  0.8297 -0.1578  0.6166
47476SOL     OW51395   9.700   0.110   4.600  0.2029 -0.1756 -0.0117
47476SOL    HW151396   9.777   0.081   4.649 -0.1563  0.1560  0.7632
47476SOL    HW251397   9.709   0.206   4.597 -1.5209  0.1646  2.4544
47477SOL     OW51398   6.759   9.215   8.444 -0.5633 -0.0697  0.2540
47477SOL    HW151399   6.760   9.272   8.521  0.2107 -1.0308  0.9645
47477SOL    HW251400   6.820   9.145   8.464  1.2594  0.7273 -2.0557
47478SOL     OW51401   6.416   9.394   1.677  0.1495  0.0514  0.1860
47478SOL    HW151402   6.399   9.361   1.765 -1.6261 -0.2449 -0.2249
47478SOL    HW251403   6.455   9.320   1.631  0.2502 -0.0834  0.4849
47479SOL     OW51404   3.990   7.277   5.189  0.2354 -0.0736  0.5987
47479SOL    HW151405   4.072   7.230   5.174 -0.7565 -1.2930 -1.4147
47479SOL    HW251406   4.004   7.363   5.150  0.3075 -0.5455 -0.4234
47480SOL     OW51407   4.179   4.663   5.229  0.3384 -0.2893 -0.1494
47480SOL    HW151408   4.202   4.755   5.215 -0.3264 -0.2333 -0.9617
47480SOL    HW251409   4.263   4.617   5.229  0.7223  0.3613  0.7694
47481SOL     OW51410   2.461  12.453   0.766 -0.0253  0.3745  0.4465
47481SOL    HW151411   2.448  12.359   0.775  0.9498  0.2290  0.4064
47481SOL    HW251412   2.373  12.491   0.778 -0.4203 -0.5310  0.4538
47482SOL     OW51413   5.712   8.801   7.309 -0.1460 -0.0341  0.7190
47482SOL    HW151414   5.800   8.768   7.294  0.4482  2.2820 -1.5160
47482SOL    HW251415   5.715   8.840   7.396  0.9411 -0.1839  0.7566
47483SOL     OW51416   4.210   7.737   7.672  0.3146  0.2314 -0.0234
47483SOL    HW151417   4.160   7.675   7.726 -0.6276 -1.0344 -2.1867
47483SOL    HW251418   4.209   7.698   7.585  1.3196  2.4276 -1.0958
47484SOL     OW51419  10.149  12.445   9.698 -0.5729  0.0344 -0.4053
47484SOL    HW151420  10.099  12.384   9.645  1.8388 -3.2997  0.7696
47484SOL    HW251421  10.219  12.476   9.641 -0.1152 -0.6831 -0.2595
47485SOL     OW51422  12.070   1.411   7.370 -0.2964  0.0654 -0.2345
47485SOL    HW151423  11.995   1.366   7.331 -0.6943  1.9372 -1.7488
47485SOL    HW251424  12.042   1.502   7.380  1.0680  0.3815  1.1475
47486SOL     OW51425  11.132  11.446   5.640 -0.2056  0.2335  0.4689
47486SOL    HW151426  11.072  11.460   5.714 -1.2169 -0.1097 -0.2641
47486SOL    HW251427  11.160  11.534   5.616  1.2407  0.2739  2.1215
47487SOL     OW51428   2.265   4.976   5.164 -0.0745 -0.5211  0.1034
47487SOL    HW151429   2.225   4.938   5.085  0.9413 -1.1448 -0.1337
47487SOL    HW251430   2.313   5.052   5.131  1.5371 -1.5891 -0.1564
47488SOL     OW51431   7.837   6.940  10.828 -0.5078 -0.0195 -0.3074
47488SOL    HW151432   7.878   6.944  10.741 -0.7084 -1.7969 -0.5220
47488SOL    HW251433   7.893   6.880  10.878 -2.0505 -1.4048 -0.1764
47489SOL     OW51434  11.428   4.863   8.470 -0.2086  0.4463 -0.0133
47489SOL    HW151435  11.404   4.770   8.475 -1.3325  0.5127 -2.5210
47489SOL    HW251436  11.408   4.888   8.380 -0.5574  3.3112  0.7527
47490SOL     OW51437  11.398   0.253   1.882  0.0533 -0.2698 -0.1841
47490SOL    HW151438  11.395   0.205   1.965 -3.0061  0.4807  0.2864
47490SOL    HW251439  11.384   0.344   1.908  0.9786  0.2254 -1.3989
47491SOL     OW51440  12.180   2.790   2.262  0.1314 -0.1124  0.4866
47491SOL    HW151441  12.147   2.876   2.236  2.0032  0.4801 -0.0802
47491SOL    HW251442  12.132   2.729   2.207 -2.2084  0.3793  1.8174
47492SOL     OW51443   4.797  11.958   1.161 -0.2671 -0.1814  0.3865
47492SOL    HW151444   4.800  11.982   1.254 -1.1972  1.4459  0.0385
47492SOL    HW251445   4.711  11.989   1.131 -0.8306 -2.4633 -0.5845
47493SOL     OW51446  12.363   8.347  10.322  0.6118 -0.5862 -0.0008
47493SOL    HW151447  12.404   8.384  10.399  2.5174  0.2974 -1.3507
47493SOL    HW251448  12.272   8.376  10.326  1.4855  2.5245  0.1345
47494SOL     OW51449  11.762   1.202   5.499 -0.2732  0.1930  0.0945
47494SOL    HW151450  11.753   1.244   5.413 -1.0002  1.5463  0.8120
47494SOL    HW251451  11.673   1.178   5.523 -0.2238  0.8492  0.9694
47495SOL     OW51452   3.202   6.985   8.146 -0.0785 -0.8423  0.3295
47495SOL    HW151453   3.162   6.902   8.173 -1.4933 -1.5252 -3.1799
47495SOL    HW251454   3.287   6.960   8.110 -0.0423 -0.6103  0.2526
47496SOL     OW51455   2.059   3.151   6.435 -0.2477  0.2748 -0.7065
47496SOL    HW151456   2.102   3.229   6.401  0.7713 -0.1572 -0.4211
47496SOL    HW251457   1.974   3.150   6.391  0.6366  0.2711 -2.4589
47497SOL     OW51458  11.232  10.305   1.113  0.1752 -0.5296  0.2010
47497SOL    HW151459  11.317  10.287   1.071 -1.1368 -0.5360 -2.6808
47497SOL    HW251460  11.197  10.219   1.134  0.2167 -0.5918  0.0148
47498SOL     OW51461   7.552   4.537   9.197 -0.4510  0.2445  0.6303
47498SOL    HW151462   7.632   4.492   9.222 -0.3305 -0.2188 -0.5254
47498SOL    HW251463   7.514   4.482   9.128 -1.3243  0.8963  0.5685
47499SOL     OW51464   1.912   9.162   0.780  0.1555 -0.0973  0.3638
47499SOL    HW151465   1.895   9.243   0.828  1.3187 -0.3773  1.2871
47499SOL    HW251466   1.833   9.149   0.727  0.0820  1.8018 -0.0562
47500SOL     OW51467   4.060   4.104   9.317  0.6934  0.1165  0.1613
47500SOL    HW151468   4.009   4.183   9.335 -1.2646 -1.1828  0.6167
47500SOL    HW251469   4.112   4.090   9.397  0.7896  0.7293  0.2119
47501SOL     OW51470  11.479   2.024  11.580  0.3574 -0.1901 -0.2815
47501SOL    HW151471  11.397   2.011  11.628  1.3621 -1.7354  1.1680
47501SOL    HW251472  11.470   2.109  11.538 -1.3607  0.3783  1.1257
47502SOL     OW51473   1.903   0.844   0.497  0.0654 -0.4716 -0.0421
47502SOL    HW151474   1.975   0.891   0.540 -0.7847 -0.0913  1.0035
47502SOL    HW251475   1.946   0.791   0.430  1.0593  1.8821 -1.3922
47503SOL     OW51476   6.670  10.334   1.569 -0.0019 -0.1202 -0.1992
47503SOL    HW151477   6.613  10.409   1.553 -0.1751 -0.2331 -0.1150
47503SOL    HW251478   6.614  10.269   1.611  0.1351 -0.3158 -0.3155
47504SOL     OW51479   6.038   6.832  12.027  0.1652 -0.3311 -0.0422
47504SOL    HW151480   6.028   6.774  12.103 -1.2229 -0.2960 -0.1714
47504SOL    HW251481   5.961   6.814  11.974  0.0608  1.1580 -0.4116
47505SOL     OW51482   8.806   6.762  11.707  0.2214  0.2720 -0.0948
47505SOL    HW151483   8.837   6.830  11.647  0.6826  0.2328  0.0961
47505SOL    HW251484   8.711   6.768  11.702  0.2563  0.7077 -0.3348
47506SOL     OW51485   3.380   8.990   1.942  0.4397  0.1861  0.6032
47506SOL    HW151486   3.311   8.980   2.008 -0.9022 -0.5794 -0.8637
47506SOL    HW251487   3.400   8.901   1.914  2.2946  0.3547  1.1924
47507SOL     OW51488   5.968   0.573   9.077 -0.2430 -0.3445 -0.3929
47507SOL    HW151489   5.940   0.481   9.076 -0.1092 -0.3847 -0.7592
47507SOL    HW251490   5.912   0.615   9.011 -2.7695  0.5985  2.1618
47508SOL     OW51491   0.747   3.540   1.737 -0.6988 -0.0004 -0.6632
47508SOL    HW151492   0.718   3.586   1.658  0.6872  0.0545 -1.1846
47508SOL    HW251493   0.730   3.601   1.809 -0.5241  0.6127 -1.1297
47509SOL     OW51494   9.809   8.285   2.421  0.2747 -0.1274  0.0376
47509SOL    HW151495   9.815   8.267   2.327 -2.7047 -0.5236 -0.1738
47509SOL    HW251496   9.830   8.378   2.429  1.8939 -0.3788 -0.7793
47510SOL     OW51497  11.516   1.241   9.624 -0.5840 -0.2191 -0.8213
47510SOL    HW151498  11.486   1.290   9.700  0.4750 -0.6544 -0.0905
47510SOL    HW251499  11.475   1.156   9.633  0.1610 -0.5370 -0.2763
47511SOL     OW51500   7.200   7.290   4.909  0.5158 -0.3689  0.4311
47511SOL    HW151501   7.114   7.324   4.931 -0.2038 -1.1067 -1.0930
47511SOL    HW251502   7.198   7.199   4.936  0.0830 -0.9266 -1.3634
47512SOL     OW51503  10.276   6.442  10.447 -0.4153  0.1548 -0.0404
47512SOL    HW151504  10.328   6.514  10.412 -1.3924  0.9117  0.0424
47512SOL    HW251505  10.201   6.436  10.388  1.6442 -3.6546 -2.7708
47513SOL     OW51506   0.625   0.597   7.094  0.2574 -0.2011  0.3522
47513SOL    HW151507   0.544   0.547   7.083 -0.3015  0.6220  0.6368
47513SOL    HW251508   0.695   0.533   7.080 -0.4332 -1.2934  1.7159
47514SOL     OW51509   5.198   3.263   3.895 -0.3390 -0.7114  0.4479
47514SOL    HW151510   5.268   3.204   3.868 -1.0582 -1.2821 -0.1880
47514SOL    HW251511   5.118   3.223   3.862 -0.6497  2.0897 -2.6617
47515SOL     OW51512   9.987   6.992   1.546 -0.3960  0.1058  0.6027
47515SOL    HW151513   9.892   6.982   1.546 -0.3888 -1.2017 -2.4793
47515SOL    HW251514  10.020   6.902   1.547  0.6947  0.4674 -0.5613
47516SOL     OW51515   2.612   0.855   8.929  0.2061 -0.2216  0.2659
47516SOL    HW151516   2.560   0.775   8.919 -0.3438  0.2470 -0.8547
47516SOL    HW251517   2.618   0.891   8.840  0.5317  0.9210  0.7303
47517SOL     OW51518   3.007   9.461   5.808  0.5242  0.4062  0.5809
47517SOL    HW151519   3.038   9.501   5.889  0.9269 -1.6909  1.5169
47517SOL    HW251520   3.088   9.434   5.763  0.2661 -2.3088  1.5747
47518SOL     OW51521   9.056   6.401   5.139 -0.7263  0.0901 -0.1334
47518SOL    HW151522   9.048   6.481   5.191  3.1251 -0.4035  1.5424
47518SOL    HW251523   9.056   6.431   5.048  0.7227  2.0550  0.4472
47519SOL     OW51524   1.531   3.954   3.650  0.2828 -0.1241  0.0735
47519SOL    HW151525   1.590   3.904   3.594  0.9754 -1.3492  1.8422
47519SOL    HW251526   1.526   4.041   3.608  1.9433 -0.5255 -1.0358
47520SOL     OW51527   9.257  10.830  11.342 -0.3929  0.2578  0.0893
47520SOL    HW151528   9.177  10.799  11.300 -0.9924  0.6706  0.9233
47520SOL    HW251529   9.258  10.924  11.327 -1.1191  0.5772  1.7875
47521SOL     OW51530   1.245   7.415   3.462 -0.3573 -0.1020  0.0276
47521SOL    HW151531   1.307   7.345   3.483 -1.2520 -1.3020 -1.1367
47521SOL    HW251532   1.290   7.467   3.395 -0.3533 -0.5868 -0.3485
47522SOL     OW51533   2.419   7.184   1.923 -0.1246 -0.6292 -0.6144
47522SOL    HW151534   2.349   7.246   1.941 -1.4143 -2.3024  0.4516
47522SOL    HW251535   2.468   7.178   2.005 -1.1368 -2.3414 -0.0937
47523SOL     OW51536   6.639   3.311   4.450  0.0114 -0.2245 -0.1195
47523SOL    HW151537   6.587   3.250   4.397  0.6401 -0.0702 -0.9192
47523SOL    HW251538   6.580   3.384   4.466 -0.1610 -0.2359 -0.6767
47524SOL     OW51539   3.006  10.544   5.678  0.2901  0.2573 -0.5660
47524SOL    HW151540   2.940  10.475   5.687  0.0788  0.2460 -2.0000
47524SOL    HW251541   3.032  10.564   5.768 -0.1691 -1.1834 -0.0847
47525SOL     OW51542   6.931   4.334   3.021 -0.5284 -0.0501 -0.0885
47525SOL    HW151543   6.901   4.305   3.107 -0.6246  1.5251  0.4456
47525SOL    HW251544   7.026   4.325   3.024 -0.5174  0.1539  0.2528
47526SOL     OW51545   6.555   1.333  10.792  0.3629  0.0171  0.3266
47526SOL    HW151546   6.521   1.245  10.804  1.1945 -0.4859 -0.8015
47526SOL    HW251547   6.481   1.384  10.759  0.3261 -0.7089 -0.7459
47527SOL     OW51548   1.103  10.167   7.327  0.5017 -0.1230  0.0414
47527SOL    HW151549   1.112  10.245   7.272 -0.4604  0.1992  0.3187
47527SOL    HW251550   1.020  10.180   7.373  1.0738 -0.5780  1.2542
47528SOL     OW51551  10.201  10.548   2.078  0.0653 -0.3909  0.1959
47528SOL    HW151552  10.267  10.483   2.102  0.4516 -1.0364 -2.2672
47528SOL    HW251553  10.127  10.530   2.136  1.5738 -0.4244  2.2205
47529SOL     OW51554  11.453   4.153   5.560  0.1104 -0.4674 -0.3257
47529SOL    HW151555  11.513   4.123   5.627  1.1731 -0.4895 -1.2567
47529SOL    HW251556  11.426   4.073   5.514  1.2055 -0.2630 -1.3819
47530SOL     OW51557   2.855   7.171   4.903 -0.3146 -0.4151 -0.1099
47530SOL    HW151558   2.882   7.246   4.851  0.3693 -0.7269 -0.2228
47530SOL    HW251559   2.761   7.164   4.889 -0.3597  0.3218 -0.2157
47531SOL     OW51560  11.339  11.968   6.220  0.2436  0.6547 -0.5506
47531SOL    HW151561  11.331  11.934   6.131 -0.4362  0.1430 -0.3073
47531SOL    HW251562  11.331  11.891   6.276  0.4440  0.9985 -0.0425
47532SOL     OW51563   7.530   0.432   1.952 -0.1711 -0.0755  0.2561
47532SOL    HW151564   7.620   0.444   1.983  0.0903  1.3960 -0.9653
47532SOL    HW251565   7.492   0.520   1.953 -1.5772 -0.6602  0.6430
47533SOL     OW51566   0.927   4.570   3.757 -0.4577 -0.6404 -0.2453
47533SOL    HW151567   0.932   4.605   3.846 -0.2608  1.1988 -0.9451
47533SOL    HW251568   0.833   4.567   3.738 -0.5709 -2.1457  0.4075
47534SOL     OW51569   5.802   4.050   0.059  0.1718  0.3976 -0.8776
47534SOL    HW151570   5.844   4.106  -0.006  0.1913  2.3440  0.7245
47534SOL    HW251571   5.766   4.110   0.124  2.7198 -1.3924  2.5300
47535SOL     OW51572  10.706   2.321   5.714  0.3194 -0.3708  0.4166
47535SOL    HW151573  10.745   2.342   5.629  0.1700 -0.8596  0.2240
47535SOL    HW251574  10.661   2.402   5.740 -0.1479 -0.4046 -0.2545
47536SOL     OW51575   2.646   1.826  10.858  0.1522 -0.4262  0.5852
47536SOL    HW151576   2.729   1.794  10.894  0.8944 -0.1373 -0.7690
47536SOL    HW251577   2.587   1.831  10.933  1.8057  0.8124  1.9016
47537SOL     OW51578   0.087   5.698   7.721  0.0034 -0.1865 -0.0835
47537SOL    HW151579   0.168   5.671   7.763  0.4223  0.3550 -0.5252
47537SOL    HW251580   0.067   5.628   7.659 -1.1452 -1.4815  1.6423
47538SOL     OW51581  10.324   4.458  10.243  0.6170 -0.1009  0.2419
47538SOL    HW151582  10.265   4.499  10.180  2.8861  0.2314 -1.8102
47538SOL    HW251583  10.284   4.374  10.262 -0.0248 -0.3350 -1.9157
47539SOL     OW51584   1.686   0.825   4.139 -0.3816 -0.6450 -0.1234
47539SOL    HW151585   1.754   0.803   4.075  1.4841 -1.5011  2.0321
47539SOL    HW251586   1.713   0.910   4.174 -1.7386  0.1214 -0.8562
47540SOL     OW51587   5.618   7.778   7.830 -0.4662 -0.2586 -0.3544
47540SOL    HW151588   5.560   7.854   7.830 -1.5310 -1.0523 -0.6586
47540SOL    HW251589   5.672   7.790   7.908 -0.7404  0.7058 -0.2894
47541SOL     OW51590   4.209   5.219   2.820  0.5576  0.2337  0.0188
47541SOL    HW151591   4.253   5.212   2.735 -0.9801  0.4517 -0.8294
47541SOL    HW251592   4.214   5.131   2.857  0.4174 -0.1017 -0.7366
47542SOL     OW51593   6.613  11.897   0.379 -0.2134 -0.1892 -0.2908
47542SOL    HW151594   6.554  11.883   0.305  0.6416 -0.0633 -1.0075
47542SOL    HW251595   6.555  11.902   0.455 -0.9891 -2.0214 -0.7052
47543SOL     OW51596  12.257  10.090   4.612  0.1554  0.4331 -0.0343
47543SOL    HW151597  12.311  10.153   4.565 -0.8858 -0.6455 -2.8942
47543SOL    HW251598  12.172  10.094   4.568 -1.0988 -0.2826  2.1728
47544SOL     OW51599   5.308   9.777  10.718 -0.2333  0.5733  0.0237
47544SOL    HW151600   5.217   9.788  10.689  0.2045  0.2328 -1.5309
47544SOL    HW251601   5.356   9.848  10.675  0.4071  0.1580  0.0378
47545SOL     OW51602   2.188   4.691   3.261  0.0353 -0.0848 -0.0617
47545SOL    HW151603   2.201   4.652   3.347 -0.1808  0.3700  0.1806
47545SOL    HW251604   2.093   4.697   3.250  0.0326 -1.2190 -0.8337
47546SOL     OW51605  12.267   5.400   0.839  0.1902  0.0778 -0.1679
47546SOL    HW151606  12.359   5.427   0.831  0.6834 -1.3012  0.5037
47546SOL    HW251607  12.218   5.470   0.796  1.7480 -0.6188 -3.3620
47547SOL     OW51608   2.930   0.440   0.391  0.1396  0.1380  0.3850
47547SOL    HW151609   2.932   0.345   0.403 -1.2520  0.0805  0.2973
47547SOL    HW251610   2.961   0.454   0.302 -0.7118 -0.3338  0.0051
47548SOL     OW51611   8.145   7.221   1.609 -0.2771  0.1431  0.0039
47548SOL    HW151612   8.189   7.137   1.593 -1.3969 -0.3285 -0.7479
47548SOL    HW251613   8.087   7.232   1.534 -0.1223  1.6299  0.0763
47549SOL     OW51614   8.966   3.857   8.372 -0.3587 -0.5662 -0.7338
47549SOL    HW151615   9.019   3.928   8.409  1.0111 -2.2118  0.5859
47549SOL    HW251616   8.913   3.827   8.446  0.1025 -1.8342 -0.9047
47550SOL     OW51617   9.988   5.132   2.348 -0.0293  0.0496  0.0469
47550SOL    HW151618   9.994   5.156   2.441 -1.0658 -1.4949  0.5516
47550SOL    HW251619  10.071   5.089   2.330  0.0715  0.1244  0.3187
47551SOL     OW51620   4.185   6.093   9.131  0.2719 -0.5670 -1.1123
47551SOL    HW151621   4.113   6.030   9.123 -0.2545 -0.4265  1.6125
47551SOL    HW251622   4.259   6.040   9.160  0.1591 -0.1596 -0.0329
47552SOL     OW51623   4.954   1.240  12.307  0.1069 -0.0394  0.0806
47552SOL    HW151624   4.906   1.259  12.226  1.3830  0.8476 -0.5033
47552SOL    HW251625   4.886   1.228  12.373 -1.0462 -2.3253 -1.3845
47553SOL     OW51626   1.271   6.542   5.909  0.6166 -0.0059  0.3576
47553SOL    HW151627   1.251   6.599   5.834  1.4163 -1.6156 -1.1548
47553SOL    HW251628   1.338   6.590   5.958 -0.5946  1.5104  0.6223
47554SOL     OW51629   8.556   2.183   2.680 -0.1245  0.1452 -0.4523
47554SOL    HW151630   8.589   2.226   2.759  0.2345  0.0636 -0.5554
47554SOL    HW251631   8.575   2.245   2.610  0.8122 -0.3566 -0.6688
47555SOL     OW51632   8.636   1.855   8.260  0.0191  0.3787  0.5542
47555SOL    HW151633   8.666   1.942   8.233  0.2207  0.3847  0.7928
47555SOL    HW251634   8.716   1.810   8.288 -0.0861  0.1212  0.4481
47556SOL     OW51635   5.440  10.622   9.169 -0.3214  0.3202  0.5785
47556SOL    HW151636   5.398  10.550   9.121 -0.3045  0.4239  0.4078
47556SOL    HW251637   5.519  10.641   9.119  0.5216 -0.6164  1.5000
47557SOL     OW51638   9.246   5.615  12.193 -0.1475  0.3754  0.0252
47557SOL    HW151639   9.208   5.540  12.237 -0.5627 -0.5506 -1.8026
47557SOL    HW251640   9.175   5.681  12.192 -0.2141  0.3088  0.5118
47558SOL     OW51641   7.159   1.900   9.776 -0.1515 -0.4817 -0.0956
47558SOL    HW151642   7.134   1.809   9.759  1.5173 -0.9283 -0.3184
47558SOL    HW251643   7.205   1.897   9.860 -0.1582  0.1687 -0.0651
47559SOL     OW51644   9.860   0.509   0.213 -0.4780 -0.1222  0.4053
47559SOL    HW151645   9.838   0.421   0.184 -2.0638  0.5237 -0.5267
47559SOL    HW251646   9.917   0.544   0.144 -0.8645 -0.0176  0.1299
47560SOL     OW51647  11.873   9.462  10.097  0.3120  0.6389  0.0004
47560SOL    HW151648  11.953   9.465  10.043  0.2124  1.1289 -0.1261
47560SOL    HW251649  11.895   9.405  10.170  0.1395 -0.8450 -1.0636
47561SOL     OW51650   1.244   5.983   5.683  0.0215  0.2418  0.1004
47561SOL    HW151651   1.199   5.992   5.600 -0.7530  0.5213  0.5386
47561SOL    HW251652   1.180   6.012   5.749 -0.1634 -1.9839  0.9972
47562SOL     OW51653   1.641   1.337   0.334 -0.2620  0.5481 -0.1357
47562SOL    HW151654   1.667   1.389   0.258  0.0564 -0.6830 -0.9020
47562SOL    HW251655   1.723   1.318   0.380 -0.1436 -0.6014 -0.7635
47563SOL     OW51656   6.434   8.912   0.705 -0.6584 -0.8380  0.3456
47563SOL    HW151657   6.397   8.992   0.741  0.8897 -0.7885  1.9550
47563SOL    HW251658   6.364   8.875   0.651 -1.4528  1.5067 -0.3488
47564SOL     OW51659   7.124   0.397  11.607 -0.1569  0.5352 -0.4586
47564SOL    HW151660   7.144   0.489  11.593  0.3231  0.6038  0.6454
47564SOL    HW251661   7.186   0.368  11.673 -2.2844  0.2011  1.5166
47565SOL     OW51662   6.872   6.527   4.299  0.0115  0.5132  0.0377
47565SOL    HW151663   6.832   6.477   4.228  0.5345 -0.4469  0.4087
47565SOL    HW251664   6.947   6.570   4.257  2.9831 -3.4079  0.7385
47566SOL     OW51665   1.482   7.470   2.594 -0.2243  0.0355  0.0500
47566SOL    HW151666   1.571   7.450   2.625  0.4273  2.1422 -0.2876
47566SOL    HW251667   1.493   7.488   2.501 -1.5909 -2.7236 -0.7723
47567SOL     OW51668   2.021   2.130   3.314  0.2167  0.2804 -0.3252
47567SOL    HW151669   2.024   2.119   3.409 -0.8751 -1.5584 -0.4570
47567SOL    HW251670   1.928   2.135   3.293  0.2574 -2.5203 -1.5482
47568SOL     OW51671   7.271   0.148   6.479  0.2484  0.2486 -0.5402
47568SOL    HW151672   7.289   0.090   6.405  0.3983 -0.0976 -0.2333
47568SOL    HW251673   7.355   0.191   6.496  0.2078  0.3464 -0.5876
47569SOL     OW51674  12.580   8.658   4.128 -0.1330 -0.4699 -0.1441
47569SOL    HW151675  12.599   8.709   4.207 -0.4582  0.0445 -0.3928
47569SOL    HW251676  12.576   8.568   4.159  1.3504 -0.4579  0.1421
47570SOL     OW51677   3.046  11.666  11.780  0.2580  0.3170  0.4717
47570SOL    HW151678   2.999  11.650  11.863 -0.7732 -0.9995 -0.3202
47570SOL    HW251679   3.114  11.599  11.778  0.5822  0.6426  0.4482
47571SOL     OW51680   8.383   6.728  10.440  0.0458 -0.2796  0.2883
47571SOL    HW151681   8.375   6.671  10.517  1.4186 -1.3182 -0.2956
47571SOL    HW251682   8.468   6.772  10.452 -0.9531  1.6364  0.6847
47572SOL     OW51683   9.617  12.359  10.912 -0.7326  0.2440  0.4229
47572SOL    HW151684   9.619  12.319  10.999 -1.1361 -0.4406  0.1294
47572SOL    HW251685   9.531  12.336  10.877  0.0281 -0.8915 -0.7879
47573SOL     OW51686  10.434   9.455   9.570  0.2803  0.0614 -0.2740
47573SOL    HW151687  10.408   9.544   9.593  0.6663 -0.3275  1.8976
47573SOL    HW251688  10.352   9.406   9.567  0.0744  0.4403 -1.4025
47574SOL     OW51689   6.386   7.876   6.839  0.4185 -0.0135 -0.4855
47574SOL    HW151690   6.424   7.796   6.802  0.0115 -0.6369  0.4156
47574SOL    HW251691   6.454   7.910   6.897 -0.5945 -1.5628  1.7537
47575SOL     OW51692   6.232   6.362  11.437  0.6396  0.3024 -0.6998
47575SOL    HW151693   6.181   6.399  11.509  0.4724 -0.3489 -0.4731
47575SOL    HW251694   6.188   6.280  11.417  0.6965  0.4732 -1.5426
47576SOL     OW51695   2.499   0.955   7.498  0.4512 -0.7792 -0.1024
47576SOL    HW151696   2.578   0.907   7.474  0.9939  0.3074 -0.5841
47576SOL    HW251697   2.488   1.019   7.428 -2.2102 -2.4104 -1.3005
47577SOL     OW51698   3.667   7.083   3.025  0.1704  0.5642  0.1485
47577SOL    HW151699   3.674   7.097   2.931 -0.9745  0.0260 -0.0239
47577SOL    HW251700   3.576   7.104   3.046  0.0029 -0.7968  0.8767
47578SOL     OW51701   9.579   8.260   6.883  0.0348 -0.5880  0.3792
47578SOL    HW151702   9.574   8.343   6.836 -0.6340  0.3191  1.9893
47578SOL    HW251703   9.672   8.250   6.904  0.1020 -0.1789  0.2791
47579SOL     OW51704   8.265   4.441   3.588 -0.0733 -0.2218 -0.0798
47579SOL    HW151705   8.356   4.415   3.575  0.1592  0.1391  0.7731
47579SOL    HW251706   8.231   4.451   3.499  1.0864  0.8667 -0.4452
47580SOL     OW51707   0.165   2.530   0.356  0.5245 -0.0161  0.1241
47580SOL    HW151708   0.201   2.605   0.309 -2.1732  0.0810 -2.0347
47580SOL    HW251709   0.236   2.466   0.358  1.3466  0.7258 -2.4707
47581SOL     OW51710   8.242   6.004   3.540  0.3826  0.1112  0.3036
47581SOL    HW151711   8.277   6.083   3.499  1.8738 -0.1925  0.9409
47581SOL    HW251712   8.313   5.971   3.594 -0.7039 -0.8758  1.1952
47582SOL     OW51713   0.153  10.441   9.091 -0.0248 -0.1003 -0.3730
47582SOL    HW151714   0.225  10.478   9.039  1.5108  0.1921  1.8411
47582SOL    HW251715   0.146  10.499   9.167 -0.4983 -1.8891  1.0047
47583SOL     OW51716   0.714   1.348   1.610 -0.5520 -0.4850 -0.2869
47583SOL    HW151717   0.660   1.287   1.660  0.8781 -1.0809  0.5993
47583SOL    HW251718   0.769   1.291   1.556  0.2145  0.0379 -0.0713
47584SOL     OW51719   1.833   1.470   7.584 -0.2245  0.0051 -0.2087
47584SOL    HW151720   1.791   1.555   7.600 -1.1315 -0.0506 -2.0448
47584SOL    HW251721   1.762   1.416   7.549  0.3402 -1.5324  0.9383
47585SOL     OW51722   9.394   0.698   0.097 -0.3708 -0.7007  0.0886
47585SOL    HW151723   9.467   0.709   0.037 -0.4154 -1.2912 -0.0813
47585SOL    HW251724   9.412   0.615   0.142 -1.4290 -1.3831 -0.6825
47586SOL     OW51725   1.879   2.308   1.683 -0.0090 -0.3357 -0.1516
47586SOL    HW151726   1.841   2.223   1.662 -0.5070 -0.3187  0.6419
47586SOL    HW251727   1.820   2.346   1.748  1.6658 -0.5655  1.5940
47587SOL     OW51728   6.882  10.830  10.487  0.0194  0.0975  0.7213
47587SOL    HW151729   6.805  10.822  10.431  0.3897 -1.2620  0.3732
47587SOL    HW251730   6.942  10.884  10.437  0.3146 -1.0375 -0.1906
47588SOL     OW51731   7.182   3.519   5.847  0.8644 -0.4060 -0.4395
47588SOL    HW151732   7.197   3.429   5.876  0.0982 -0.1059  0.9507
47588SOL    HW251733   7.263   3.565   5.868  1.4057 -0.8147 -1.4985
47589SOL     OW51734  11.357   9.591   4.766 -0.7682  0.3392  0.0311
47589SOL    HW151735  11.312   9.650   4.706  1.0632  0.2823 -1.5123
47589SOL    HW251736  11.412   9.537   4.709  2.7272  1.7057  1.8089
47590SOL     OW51737   7.809   3.852   2.586  0.1719  0.4842  0.9146
47590SOL    HW151738   7.799   3.807   2.502  0.1426 -0.1086  1.2303
47590SOL    HW251739   7.902   3.847   2.605 -0.0079 -0.5942  1.5700
47591SOL     OW51740   7.816   6.486  11.237 -0.1631 -0.0318  0.3068
47591SOL    HW151741   7.883   6.477  11.169  1.4236 -0.7945  1.9073
47591SOL    HW251742   7.789   6.578  11.232  2.5806  0.8994  1.0031
47592SOL     OW51743  11.364   6.109  12.222 -0.1986 -0.1240  0.0039
47592SOL    HW151744  11.328   6.118  12.310 -0.6982 -0.7559 -0.1214
47592SOL    HW251745  11.301   6.052  12.177  1.2957 -1.8546 -0.0180
47593SOL     OW51746   0.967   1.255   0.268 -0.4464 -0.2339  0.1572
47593SOL    HW151747   1.055   1.218   0.271 -0.4334 -0.1366  1.9703
47593SOL    HW251748   0.969   1.327   0.332 -1.7458 -0.0077 -0.0241
47594SOL     OW51749  10.370   0.327  12.490  0.3456  0.1296  0.4435
47594SOL    HW151750  10.428   0.393  12.528 -0.7047  0.3151  1.7888
47594SOL    HW251751  10.312   0.377  12.433 -1.0882  0.5731  2.2108
47595SOL     OW51752  11.092   7.311   7.763  0.1716  0.0784  0.2614
47595SOL    HW151753  11.054   7.276   7.682 -0.5042  1.6652 -0.1511
47595SOL    HW251754  11.057   7.400   7.769  2.1742  0.8673  1.0079
47596SOL     OW51755   5.159   8.951   6.127  0.1552  0.0375 -0.5716
47596SOL    HW151756   5.217   8.926   6.055  1.1281  1.0800 -0.1778
47596SOL    HW251757   5.114   9.029   6.095 -1.1532 -0.8148 -0.9141
47597SOL     OW51758  10.846  10.233   0.388 -0.3285  0.1561 -0.5544
47597SOL    HW151759  10.933  10.271   0.379 -0.0493 -0.8348 -2.5461
47597SOL    HW251760  10.814  10.266   0.472  2.2331 -0.0588  0.5839
47598SOL     OW51761  10.142   9.389   1.253 -0.3794  0.0131 -0.0620
47598SOL    HW151762  10.141   9.483   1.268  0.4912 -0.1238  1.0194
47598SOL    HW251763  10.223   9.359   1.295  1.1239 -0.7831 -3.2249
47599SOL     OW51764  10.260  11.178  12.322  0.0006 -0.1186  0.3680
47599SOL    HW151765  10.352  11.159  12.340 -0.0844 -0.2348  0.6754
47599SOL    HW251766  10.241  11.256  12.373  0.1727  0.4325 -0.3973
47600SOL     OW51767   9.411   1.101   0.966  0.6710 -0.0248 -0.2077
47600SOL    HW151768   9.447   1.018   0.933  0.0932 -0.6641  0.7008
47600SOL    HW251769   9.425   1.096   1.061  0.0101  0.6181 -0.0704
47601SOL     OW51770   1.904   7.674   5.008 -0.0539 -0.8704  0.0777
47601SOL    HW151771   1.934   7.736   4.942 -1.1681  0.9950  1.2108
47601SOL    HW251772   1.957   7.596   4.994  3.5293  1.2996  0.4102
47602SOL     OW51773   7.186   1.913   5.915 -0.1612 -0.2780 -0.3612
47602SOL    HW151774   7.223   1.910   6.003 -0.6794  3.2302  0.1271
47602SOL    HW251775   7.215   1.832   5.874  0.1419 -2.0222  2.9721
47603SOL     OW51776   0.799   5.334   0.427 -0.4431  0.2469 -0.0707
47603SOL    HW151777   0.775   5.328   0.520 -0.3953 -2.9535 -0.1718
47603SOL    HW251778   0.876   5.391   0.426 -1.0098  1.1176  1.7179
47604SOL     OW51779   5.253   9.100  10.470 -0.0567 -0.4177  0.2140
47604SOL    HW151780   5.335   9.078  10.426 -0.0133  1.8068 -0.9363
47604SOL    HW251781   5.277   9.160  10.539 -0.5227 -1.3069  1.1761
47605SOL     OW51782  12.041   6.873   9.437 -0.5802 -0.2500 -0.3753
47605SOL    HW151783  12.114   6.933   9.419 -0.8778  0.9291  1.9373
47605SOL    HW251784  11.966   6.914   9.394 -0.0608 -1.1297 -2.2149
47606SOL     OW51785   6.103   8.824   6.260  0.4830  0.2144 -0.2163
47606SOL    HW151786   6.028   8.826   6.319  0.5496  1.4601 -0.1619
47606SOL    HW251787   6.164   8.889   6.296  1.0666  0.0841 -0.9457
47607SOL     OW51788   7.165   5.538  11.592 -0.9594 -0.6512  0.1928
47607SOL    HW151789   7.254   5.558  11.622 -1.0493 -0.7938  0.5588
47607SOL    HW251790   7.177   5.468  11.528 -0.6989  0.1428 -0.6585
47608SOL     OW51791   6.718   1.846   8.208  0.1148  0.9282  0.2060
47608SOL    HW151792   6.734   1.778   8.273  1.7936  0.5348 -0.5703
47608SOL    HW251793   6.744   1.927   8.252 -2.0696  1.1861  1.2010
47609SOL     OW51794   5.660   6.596   4.951 -0.1315  0.3460  0.1841
47609SOL    HW151795   5.643   6.506   4.924  0.0072  0.9223 -2.0466
47609SOL    HW251796   5.705   6.588   5.035 -0.5424 -1.6376  0.2588
47610SOL     OW51797  10.439  11.905   0.141  0.0733 -0.0688  0.2744
47610SOL    HW151798  10.492  11.953   0.205 -0.0100  1.4074 -0.7210
47610SOL    HW251799  10.464  11.942   0.057 -0.1780 -1.6473 -0.5274
47611SOL     OW51800   3.072  11.614   7.153  0.1602  0.6086  0.3653
47611SOL    HW151801   3.141  11.652   7.098  0.7534 -0.4568  0.3575
47611SOL    HW251802   3.093  11.642   7.242  1.4436 -0.8671  0.5639
47612SOL     OW51803   6.490   6.166   2.570  0.3964  0.0143 -0.3589
47612SOL    HW151804   6.420   6.110   2.605 -0.5424  0.0985 -2.0122
47612SOL    HW251805   6.564   6.106   2.560  0.3864 -0.2249  0.7733
47613SOL     OW51806   7.006   2.315   6.608 -0.2858  0.0997 -0.0097
47613SOL    HW151807   7.060   2.394   6.606 -0.9405  0.5445 -1.1012
47613SOL    HW251808   6.923   2.345   6.646 -0.6075 -0.0068 -0.6205
47614SOL     OW51809   3.221   0.956   8.048 -0.0703 -0.4974  0.1519
47614SOL    HW151810   3.137   0.911   8.058 -0.6372  0.0219 -1.8657
47614SOL    HW251811   3.202   1.047   8.068 -0.1560 -0.2686 -0.9201
47615SOL     OW51812   3.744  11.958   0.608 -0.0428  0.2231 -0.0624
47615SOL    HW151813   3.797  12.028   0.646 -0.7981  1.2471 -0.8105
47615SOL    HW251814   3.807  11.901   0.565  0.6080  0.3650  0.6859
47616SOL     OW51815  11.380  11.485   8.059 -0.6345 -0.9755 -0.0049
47616SOL    HW151816  11.300  11.494   8.007 -2.4176 -1.3631  2.5402
47616SOL    HW251817  11.384  11.565   8.112  2.8151  0.9246 -2.6199
47617SOL     OW51818   9.163  11.938   2.847  0.0136  0.2594 -0.3200
47617SOL    HW151819   9.143  11.877   2.918  1.4606 -0.7832 -0.7649
47617SOL    HW251820   9.079  11.951   2.802 -0.5078 -0.6645  0.3484
47618SOL     OW51821   0.619   9.001   0.914 -0.6923 -0.3177  0.1980
47618SOL    HW151822   0.676   8.957   0.978 -0.3545 -2.9331 -1.7153
47618SOL    HW251823   0.679   9.039   0.850 -1.0200 -1.0988 -0.5958
47619SOL     OW51824   9.331   6.252   2.822 -0.2207  0.0460  0.3882
47619SOL    HW151825   9.237   6.234   2.824 -0.4279  0.9934  2.5785
47619SOL    HW251826   9.337   6.347   2.822  0.7073  0.0063  1.4707
47620SOL     OW51827   0.366   0.451   5.071 -0.2160 -0.3749  0.0484
47620SOL    HW151828   0.417   0.520   5.027  0.8664 -0.5382  1.0097
47620SOL    HW251829   0.429   0.406   5.126 -1.2846 -1.0243  0.7729
47621SOL     OW51830   0.362   0.414  11.041  0.1851  0.6209  0.2423
47621SOL    HW151831   0.409   0.350  11.094 -0.3607 -1.0328 -1.1550
47621SOL    HW251832   0.346   0.488  11.100 -0.3903 -1.0881  2.3657
47622SOL     OW51833   0.461  11.405   1.942 -0.0774 -0.2353  0.2560
47622SOL    HW151834   0.524  11.378   2.010  1.6716  1.2460 -0.6811
47622SOL    HW251835   0.431  11.323   1.903  0.1345 -1.0409  1.7194
47623SOL     OW51836  11.037   1.071   0.608 -0.1626 -1.0227  0.5326
47623SOL    HW151837  11.077   1.127   0.541 -0.9494 -1.2371 -0.1386
47623SOL    HW251838  11.111   1.024   0.647  0.5640  0.7553  1.3948
47624SOL     OW51839   6.730   5.638   3.253  0.3202 -0.0468 -0.1646
47624SOL    HW151840   6.668   5.710   3.237  0.0661  0.4434  2.5223
47624SOL    HW251841   6.675   5.560   3.261  0.3428 -0.1036 -0.5463
47625SOL     OW51842  11.866   5.589   2.659 -0.0614  0.2956 -0.3419
47625SOL    HW151843  11.786   5.607   2.609 -0.9025 -0.6911  0.5843
47625SOL    HW251844  11.838   5.592   2.751  1.0925  0.4899  0.0182
47626SOL     OW51845  11.972   7.132   2.976 -0.5164  0.1228 -0.3480
47626SOL    HW151846  11.878   7.152   2.970 -0.4330  0.1823 -2.0941
47626SOL    HW251847  11.996   7.105   2.888  0.5727 -2.5167  0.6689
47627SOL     OW51848   1.728   9.330   8.401  0.7392 -0.2084 -0.3166
47627SOL    HW151849   1.636   9.358   8.394  0.2382 -1.2227  1.5493
47627SOL    HW251850   1.741   9.273   8.326 -0.6112 -1.1621  0.1324
47628SOL     OW51851   8.757   3.257   5.820  0.2028  0.6354  0.5162
47628SOL    HW151852   8.810   3.281   5.744 -0.5392 -0.4898 -0.3867
47628SOL    HW251853   8.684   3.319   5.818 -0.1063  0.2648 -0.0329
47629SOL     OW51854   3.447   5.936   7.593 -0.2363  0.2086  0.1936
47629SOL    HW151855   3.536   5.918   7.622 -0.0720 -0.1242 -0.5179
47629SOL    HW251856   3.446   6.030   7.574  0.4573 -0.0977 -1.4859
47630SOL     OW51857  12.265   8.239   5.353 -0.8752 -0.3459  0.3676
47630SOL    HW151858  12.188   8.223   5.299 -3.3735  1.9420  2.9457
47630SOL    HW251859  12.289   8.152   5.387  0.0844 -1.6719 -3.1839
47631SOL     OW51860   8.225  12.474   6.382 -0.1871  0.3863 -0.2363
47631SOL    HW151861   8.240  12.530   6.458  0.8664 -0.7725  0.4529
47631SOL    HW251862   8.298  12.412   6.384 -0.6296 -0.2108 -1.6980
47632SOL     OW51863   2.857   7.254   5.154  0.2060 -0.3175 -0.1740
47632SOL    HW151864   2.865   7.246   5.059  0.0697  2.4403 -0.4879
47632SOL    HW251865   2.764   7.243   5.172 -0.1409  1.5296 -0.6920
47633SOL     OW51866  12.442   3.372   2.299  0.0478 -0.1769 -0.2389
47633SOL    HW151867  12.461   3.451   2.249  0.7584 -0.3778 -0.3028
47633SOL    HW251868  12.446   3.400   2.390 -0.1615 -0.0384 -0.2732
47634SOL     OW51869   2.655   1.840   8.429 -1.0832 -0.1482 -0.5312
47634SOL    HW151870   2.732   1.865   8.481  0.5166  0.3597 -2.9223
47634SOL    HW251871   2.614   1.770   8.478 -1.1504  1.8688  2.5666
47635SOL     OW51872   5.792   4.649   0.729  1.0061 -0.4203 -0.3905
47635SOL    HW151873   5.789   4.567   0.681  0.5077  0.2501 -1.5456
47635SOL    HW251874   5.882   4.680   0.719  1.2051 -0.8257  0.0798
47636SOL     OW51875   9.535   8.660   6.257 -0.1948  0.0433 -0.3664
47636SOL    HW151876   9.466   8.646   6.322  0.7412 -0.6822  0.5080
47636SOL    HW251877   9.491   8.654   6.173 -1.5344  1.4898  0.1820
47637SOL     OW51878   2.969  12.038   1.873 -0.5842 -0.2880 -1.0552
47637SOL    HW151879   3.039  11.986   1.913  0.7627  0.9684 -1.7226
47637SOL    HW251880   2.935  11.982   1.803 -2.2720 -2.0946  1.0712
47638SOL     OW51881   3.938   9.005   9.148 -0.3959 -0.0024  0.6531
47638SOL    HW151882   3.848   8.974   9.134  0.0444 -1.3937  0.7998
47638SOL    HW251883   3.993   8.929   9.131  0.6660  0.4076  2.0631
47639SOL     OW51884   8.428   7.191   6.042  0.0286  0.1597 -0.4652
47639SOL    HW151885   8.370   7.117   6.024  0.7639 -0.9277  1.3393
47639SOL    HW251886   8.510   7.169   6.000  0.2051 -0.0078 -0.0429
47640SOL     OW51887   8.630   6.747   6.747  0.0848 -0.7848  0.4233
47640SOL    HW151888   8.666   6.720   6.663  1.8945 -1.6770  1.4119
47640SOL    HW251889   8.611   6.841   6.736  0.0206 -0.9459 -1.0399
47641SOL     OW51890   1.877   1.172  10.251 -0.1980  0.0312 -0.1889
47641SOL    HW151891   1.845   1.212  10.332  1.0421 -1.5043  1.1560
47641SOL    HW251892   1.802   1.125  10.216 -0.7700  0.7739  0.0229
47642SOL     OW51893   2.196   9.899   5.903 -0.5179 -0.2911  0.1558
47642SOL    HW151894   2.161   9.977   5.946 -1.7649  0.2576 -1.7199
47642SOL    HW251895   2.129   9.832   5.916  0.0124 -0.7242  0.7427
47643SOL     OW51896   9.245   1.828   5.109 -0.6787 -0.2935 -0.3691
47643SOL    HW151897   9.214   1.794   5.193 -0.8179 -1.9200 -1.0451
47643SOL    HW251898   9.340   1.822   5.114 -0.5164  2.1388  0.6589
47644SOL     OW51899  10.352   6.240   5.242  0.1689 -0.0785  0.4369
47644SOL    HW151900  10.386   6.203   5.323  0.5631  1.0597  0.8184
47644SOL    HW251901  10.301   6.170   5.203 -1.8453 -0.0069  2.7399
47645SOL     OW51902   6.776   3.152  12.117 -0.0152  0.3252  0.3999
47645SOL    HW151903   6.867   3.155  12.087  0.4354  0.4973  1.7040
47645SOL    HW251904   6.759   3.239  12.151 -0.2637 -0.0557  1.2766
47646SOL     OW51905   7.899   7.479   0.830 -0.5376 -0.3342  0.2171
47646SOL    HW151906   7.832   7.543   0.805  0.1695 -0.0179 -0.9571
47646SOL    HW251907   7.976   7.532   0.850  0.1361 -0.7999 -1.0273
47647SOL     OW51908  10.792  11.910   6.352 -0.6192  0.0070 -0.0729
47647SOL    HW151909  10.719  11.850   6.368  0.2550 -0.5379  2.0597
47647SOL    HW251910  10.829  11.881   6.268 -0.6952 -1.9415  0.5323
47648SOL     OW51911   1.659   5.314   0.262  0.0552 -0.7396  0.0032
47648SOL    HW151912   1.676   5.251   0.332  0.6035  0.2368  0.7804
47648SOL    HW251913   1.744   5.353   0.244 -0.1470 -0.7277 -0.9764
47649SOL     OW51914   2.443   5.886  12.405  0.9987 -0.1753 -0.3240
47649SOL    HW151915   2.460   5.800  12.445 -1.2424  0.5484  2.5519
47649SOL    HW251916   2.396   5.866  12.324  0.9997 -1.6835  0.0114
47650SOL     OW51917  11.976   5.582  10.403  0.2623  0.2399  0.3920
47650SOL    HW151918  12.023   5.659  10.373 -0.9171  1.2843  1.1384
47650SOL    HW251919  12.033   5.509  10.381  1.0001  1.2310 -1.1807
47651SOL     OW51920   2.762   2.535   4.098  0.0815 -0.0015 -0.4553
47651SOL    HW151921   2.814   2.587   4.159 -0.0997  0.5529 -0.7673
47651SOL    HW251922   2.824   2.471   4.062  0.1405 -0.4945  0.4686
47652SOL     OW51923  11.699   4.630  11.346  0.1713 -0.0515  0.2245
47652SOL    HW151924  11.738   4.642  11.432  0.1620 -0.2197  0.2529
47652SOL    HW251925  11.769   4.650  11.284 -0.1803  1.3431  0.2530
47653SOL     OW51926   2.444   8.517   2.061  0.1094 -0.1491  0.5175
47653SOL    HW151927   2.424   8.540   2.152  0.4123  1.2062  0.2529
47653SOL    HW251928   2.516   8.455   2.068  1.3391  1.2922  1.1711
47654SOL     OW51929   5.012   7.753  10.065  0.0182 -0.0055 -0.7331
47654SOL    HW151930   5.061   7.835  10.062 -1.4476  0.9553  0.0159
47654SOL    HW251931   5.001   7.728   9.973 -1.1463  1.7056 -1.1099
47655SOL     OW51932  12.140  11.477   0.474  0.0723 -0.2738  0.5273
47655SOL    HW151933  12.197  11.480   0.551 -0.6433 -3.3619  1.3289
47655SOL    HW251934  12.199  11.465   0.400  0.6944  1.5463  0.6779
47656SOL     OW51935   9.407  10.478   0.774  0.2093  0.5021 -0.0161
47656SOL    HW151936   9.458  10.411   0.819 -0.1198  0.0134 -0.3690
47656SOL    HW251937   9.472  10.529   0.726  0.6062  1.1967  1.1917
47657SOL     OW51938   6.951   8.132   1.681 -0.9339 -0.0800 -0.1415
47657SOL    HW151939   6.917   8.133   1.771 -0.3090  0.6899  0.1036
47657SOL    HW251940   6.904   8.061   1.638 -0.1588 -1.4784  1.2278
47658SOL     OW51941   1.818  11.997   0.498 -0.2627  0.4107  0.0512
47658SOL    HW151942   1.912  11.983   0.509 -0.3240 -0.1327 -0.1101
47658SOL    HW251943   1.811  12.089   0.473  0.2061  0.5200  0.3056
47659SOL     OW51944  10.931  10.591  10.624  0.1207 -0.0990 -0.3011
47659SOL    HW151945  10.979  10.572  10.705  0.4032  0.4359 -0.3421
47659SOL    HW251946  10.988  10.559  10.554 -0.0156 -0.3370 -0.3064
47660SOL     OW51947   0.354  12.100   9.076 -0.2774 -0.0512 -0.2706
47660SOL    HW151948   0.400  12.041   9.016  0.6896  0.0983  0.3029
47660SOL    HW251949   0.315  12.042   9.142  0.5360 -0.0739  0.2012
47661SOL     OW51950   2.264   5.320   4.451 -0.1546 -0.3947 -0.0686
47661SOL    HW151951   2.178   5.282   4.437 -0.9673  1.6300 -0.8050
47661SOL    HW251952   2.314   5.250   4.494 -2.7480 -0.9649  2.2777
47662SOL     OW51953   5.103   1.759  11.402  0.2157 -0.0195  0.4700
47662SOL    HW151954   5.136   1.693  11.341  0.0326  0.4926 -0.1964
47662SOL    HW251955   5.073   1.709  11.478  0.0508 -0.6998 -0.0354
47663SOL     OW51956   9.848   2.664  11.238  0.1420 -0.1615  0.2801
47663SOL    HW151957   9.940   2.646  11.219  0.3517 -0.0758  1.1653
47663SOL    HW251958   9.840   2.759  11.228 -0.6447 -0.4343 -3.0318
47664SOL     OW51959   1.727  12.217   6.756  0.3912  0.1850  0.1733
47664SOL    HW151960   1.745  12.268   6.677  0.7953 -1.4240 -0.8075
47664SOL    HW251961   1.633  12.224   6.768  0.3680  0.7041 -0.2726
47665SOL     OW51962   3.234   7.544   0.057 -0.9363  0.1484  0.2999
47665SOL    HW151963   3.208   7.617   0.112 -0.6832 -0.1591  0.8420
47665SOL    HW251964   3.207   7.568  -0.032  3.0701  2.9726 -0.4482
47666SOL     OW51965   5.665   8.983   3.881  0.0330  0.2003  0.4313
47666SOL    HW151966   5.714   8.982   3.799 -1.0043 -0.9075 -0.2130
47666SOL    HW251967   5.619   9.067   3.881 -1.1016 -0.3797 -0.8592
47667SOL     OW51968   9.664   8.474   4.469 -0.4433 -0.3810 -0.2719
47667SOL    HW151969   9.670   8.531   4.393 -0.2424  0.2221  0.1866
47667SOL    HW251970   9.630   8.391   4.435 -2.4978  0.5648 -0.6573
47668SOL     OW51971  10.547   6.166   0.499  0.5587 -0.6295 -0.3367
47668SOL    HW151972  10.493   6.126   0.568 -0.8335  0.6407 -0.6336
47668SOL    HW251973  10.590   6.240   0.541  0.4059 -0.3800 -0.6145
47669SOL     OW51974   9.956   1.896   3.385 -0.3756  0.0460  0.0111
47669SOL    HW151975  10.000   1.904   3.300 -1.0251  0.4183 -0.3046
47669SOL    HW251976   9.947   1.802   3.399 -0.7452 -0.0196 -0.6010
47670SOL     OW51977   6.102  11.679   3.396  0.0523 -0.7884 -0.1486
47670SOL    HW151978   6.164  11.735   3.350 -0.0458  0.2733  0.9343
47670SOL    HW251979   6.096  11.600   3.343  0.0342  0.3092 -1.8627
47671SOL     OW51980   9.231   5.348   9.325 -0.1119 -0.0813  0.2970
47671SOL    HW151981   9.147   5.394   9.329  0.1993  0.4988  0.3088
47671SOL    HW251982   9.297   5.418   9.328  0.3578 -0.4621 -0.8049
47672SOL     OW51983  12.554   9.687   2.466  0.1219  0.5359 -0.2240
47672SOL    HW151984  12.578   9.714   2.554 -2.4356  0.4825  0.5427
47672SOL    HW251985  12.520   9.598   2.475  1.7875 -0.3152 -1.6391
47673SOL     OW51986   1.225   0.384  12.453 -0.1680 -0.4212  0.0961
47673SOL    HW151987   1.238   0.359  12.545  0.7289 -0.6085 -0.0718
47673SOL    HW251988   1.300   0.439  12.433  0.0972 -1.0823 -0.7783
47674SOL     OW51989  11.097   0.638   2.261 -0.4447  0.6856  0.1489
47674SOL    HW151990  11.149   0.689   2.199  0.0033 -0.3702 -0.3689
47674SOL    HW251991  11.110   0.683   2.345  0.3866  1.1109 -0.1899
47675SOL     OW51992   0.831   1.040   8.692  0.1343  0.4210  0.0396
47675SOL    HW151993   0.833   1.116   8.634  0.1273  1.2427  1.0792
47675SOL    HW251994   0.773   1.067   8.763  0.2780 -0.4990  0.5133
47676SOL     OW51995   0.677   3.937  10.662 -0.0905 -0.3460  0.0187
47676SOL    HW151996   0.590   3.952  10.625 -0.1403 -0.1290  0.2164
47676SOL    HW251997   0.690   3.843  10.658 -0.2593 -0.3605 -0.1813
47677SOL     OW51998   6.805   0.510  10.790 -0.3339  0.0479  0.4129
47677SOL    HW151999   6.840   0.425  10.818 -0.1851 -0.6143 -1.6124
47677SOL    HW252000   6.716   0.511  10.825 -0.2831 -0.8775  0.5978
47678SOL     OW52001   7.612   3.689   0.546 -0.3106  0.4867 -0.0916
47678SOL    HW152002   7.670   3.633   0.597 -0.0938  1.0901  0.3420
47678SOL    HW252003   7.527   3.680   0.588 -0.2424  0.5971  0.0706
47679SOL     OW52004   6.436   6.613  11.653  0.6427 -0.2072  0.2050
47679SOL    HW152005   6.450   6.642  11.743  3.2265  1.0972 -0.5211
47679SOL    HW252006   6.471   6.524  11.650  1.5581  0.1416  0.2738
47680SOL     OW52007   5.301   6.044   2.087 -0.2670  0.3103  0.1402
47680SOL    HW152008   5.268   5.976   2.027  0.4377 -1.5684  1.7547
47680SOL    HW252009   5.223   6.083   2.125 -0.7000 -0.6345  0.2543
47681SOL     OW52010  10.691  11.478   2.539 -0.1134  0.1418 -0.2754
47681SOL    HW152011  10.621  11.519   2.589  0.0044 -0.2899  0.2670
47681SOL    HW252012  10.647  11.415   2.482 -0.1168 -0.8505  0.7810
47682SOL     OW52013   1.737   0.181   2.280 -0.4249 -0.2058 -0.3486
47682SOL    HW152014   1.787   0.156   2.202  1.0291 -0.6389  0.6993
47682SOL    HW252015   1.802   0.207   2.344 -1.4070 -2.0362  1.5222
47683SOL     OW52016   0.314   8.624   1.333 -0.0786 -0.3771 -0.5901
47683SOL    HW152017   0.219   8.616   1.333 -0.0302 -1.0535  0.1738
47683SOL    HW252018   0.335   8.662   1.247 -1.1265  1.0322 -0.2684
47684SOL     OW52019   6.050   2.983  11.774 -0.2652  0.1580  0.3225
47684SOL    HW152020   5.976   2.983  11.834 -1.4584  2.9962 -0.9678
47684SOL    HW252021   6.018   2.938  11.696  0.4581 -1.3315  0.8491
47685SOL     OW52022   2.591  11.263  10.942 -0.5441  0.0473 -0.1347
47685SOL    HW152023   2.550  11.193  10.993 -1.4261 -0.2860 -1.2642
47685SOL    HW252024   2.545  11.262  10.858  0.6321  0.8086 -0.8189
47686SOL     OW52025   8.603  10.731   0.623 -1.0682  0.2012 -0.4209
47686SOL    HW152026   8.508  10.741   0.629 -1.0780  0.3225 -0.7534
47686SOL    HW252027   8.623  10.745   0.530 -0.7670 -0.1608 -0.4143
47687SOL     OW52028   0.623   0.448   8.836 -0.0062  0.4758  0.6047
47687SOL    HW152029   0.533   0.451   8.871 -0.3917 -3.5589  0.3881
47687SOL    HW252030   0.611   0.439   8.742  0.3991 -2.5396  0.7546
47688SOL     OW52031  12.254   2.942   6.696  0.1908  0.9925  0.0312
47688SOL    HW152032  12.228   2.993   6.773  0.3186  1.2402 -0.0877
47688SOL    HW252033  12.301   2.867   6.732  1.7276  1.9626  0.1401
47689SOL     OW52034   8.216  10.509   1.352  0.3221  0.4524 -0.1323
47689SOL    HW152035   8.165  10.541   1.277 -1.7159 -1.4069  0.3618
47689SOL    HW252036   8.228  10.415   1.334  0.9198  0.2480  1.2629
47690SOL     OW52037   6.731   4.854   4.128 -0.0657  0.0502 -0.9833
47690SOL    HW152038   6.660   4.834   4.189 -1.3088 -0.3386 -2.5165
47690SOL    HW252039   6.764   4.939   4.157 -0.4836 -0.2072  0.3311
47691SOL     OW52040   1.964   4.096   9.214 -0.1429  0.3595  0.8115
47691SOL    HW152041   2.019   4.166   9.250  1.1983 -0.9891  1.5034
47691SOL    HW252042   1.979   4.021   9.273 -1.3694 -0.5925 -0.0241
47692SOL     OW52043   4.132   3.474   6.054  0.3031 -0.3473 -0.5267
47692SOL    HW152044   4.200   3.537   6.033  0.7839 -0.9067 -0.6728
47692SOL    HW252045   4.160   3.436   6.138 -1.8146  2.1899  1.5133
47693SOL     OW52046  12.271   3.243   2.781 -0.2673  0.4169  0.1486
47693SOL    HW152047  12.229   3.158   2.791  0.9000 -0.0646  1.0568
47693SOL    HW252048  12.350   3.226   2.729  0.5280  0.7418  1.2031
47694SOL     OW52049   5.001   1.842   0.242  0.1266 -0.1477 -0.5120
47694SOL    HW152050   4.964   1.915   0.292 -1.2506 -0.0889 -1.5847
47694SOL    HW252051   5.079   1.879   0.200  2.4775 -0.6614  2.9577
47695SOL     OW52052   7.555   9.416   2.187  0.4646  0.0813 -0.0152
47695SOL    HW152053   7.576   9.507   2.165  0.5832  0.4100  1.3644
47695SOL    HW252054   7.464   9.419   2.216  0.5120 -0.2141  0.1640
47696SOL     OW52055  12.521   0.877   4.585  0.4861  0.0679  0.4587
47696SOL    HW152056  12.577   0.933   4.639  0.6382  0.2998  0.0708
47696SOL    HW252057  12.435   0.918   4.589  0.4939  0.0754  0.5395
47697SOL     OW52058   9.091   7.835   0.071 -0.3743  0.9113  0.1069
47697SOL    HW152059   9.113   7.923   0.102 -1.3763  1.5798 -0.9798
47697SOL    HW252060   9.044   7.795   0.144  0.7800  0.9756  0.8996
47698SOL     OW52061   5.381  10.910   2.689  0.6827  0.0123  0.5667
47698SOL    HW152062   5.353  10.963   2.614 -0.0530  1.6472  1.9182
47698SOL    HW252063   5.440  10.845   2.652 -1.0834 -0.4422 -1.7018
47699SOL     OW52064   8.879   2.956   8.664 -0.1385 -0.1566 -0.0599
47699SOL    HW152065   8.914   3.030   8.713  0.6676 -0.8630  0.4734
47699SOL    HW252066   8.954   2.924   8.613 -0.6714 -0.1473 -0.8535
47700SOL     OW52067   1.474  12.208  11.191 -0.0727 -0.4102 -0.8430
47700SOL    HW152068   1.517  12.288  11.221 -0.0214 -0.1190 -1.6553
47700SOL    HW252069   1.415  12.184  11.262 -0.2411  0.4640 -0.6763
47701SOL     OW52070   5.930   3.395   7.505 -1.1140 -0.1888  0.1282
47701SOL    HW152071   6.004   3.438   7.462 -2.4988  2.3916  0.1313
47701SOL    HW252072   5.968   3.351   7.580  0.6414 -0.4067 -0.8317
47702SOL     OW52073   8.981   9.915  12.170  0.5526 -0.0096  0.6626
47702SOL    HW152074   9.029   9.902  12.088  0.1555  0.8947  0.2765
47702SOL    HW252075   8.899   9.958  12.144  0.7987  1.0827  1.6144
47703SOL     OW52076   3.063  11.023   5.791 -0.3374 -0.9272 -0.1907
47703SOL    HW152077   3.035  10.950   5.846 -0.5522 -0.8715 -0.2249
47703SOL    HW252078   3.003  11.021   5.716 -0.3489 -0.7124 -0.1876
47704SOL     OW52079   2.620   2.656   0.669  0.4289 -0.2516 -0.6431
47704SOL    HW152080   2.673   2.605   0.608  1.3496 -0.5214  0.3396
47704SOL    HW252081   2.685   2.709   0.717 -0.2412 -0.1885  0.2187
47705SOL     OW52082  11.988   8.704   4.450 -0.4574 -0.2304  0.2165
47705SOL    HW152083  12.073   8.672   4.416 -1.4661 -1.2257 -1.5618
47705SOL    HW252084  11.967   8.779   4.395 -1.2696 -0.7237 -0.1650
47706SOL     OW52085   8.089   9.237   2.662  0.3953 -0.4295 -0.6673
47706SOL    HW152086   8.167   9.255   2.610  0.2562  2.4747 -0.0171
47706SOL    HW252087   8.122   9.228   2.752  0.1608 -1.1000 -0.6399
47707SOL     OW52088   8.534   8.702  10.996 -0.1598  0.3553 -0.1579
47707SOL    HW152089   8.447   8.664  10.985  0.6129 -2.6430  2.7145
47707SOL    HW252090   8.590   8.653  10.935  0.0758 -0.0049  0.3477
47708SOL     OW52091   2.415   7.542   2.544 -0.2521  0.3752 -0.4545
47708SOL    HW152092   2.351   7.508   2.607  2.3334 -0.9770  1.6552
47708SOL    HW252093   2.492   7.562   2.598  2.0127 -0.5405 -3.1484
47709SOL     OW52094   0.937   0.043   2.193 -0.2272 -0.1370 -0.3376
47709SOL    HW152095   0.874  -0.028   2.184 -1.7841  0.7839  2.2235
47709SOL    HW252096   1.022   0.000   2.184 -1.1395 -2.0158 -0.5837
47710SOL     OW52097   7.107   1.387   6.066  0.3219 -0.2066 -0.4544
47710SOL    HW152098   7.134   1.322   6.001 -0.3426 -2.8195  1.7206
47710SOL    HW252099   7.182   1.394   6.125  0.1144  0.4731 -0.2673
47711SOL     OW52100   4.933   6.302  10.891 -0.2374 -0.0935 -0.3865
47711SOL    HW152101   5.015   6.255  10.872  0.9446  0.9750  1.7539
47711SOL    HW252102   4.864   6.237  10.875  0.9685 -0.9544 -2.4618
47712SOL     OW52103  12.400  12.029   1.473  0.2761 -0.0700  0.1886
47712SOL    HW152104  12.324  12.076   1.509  1.0600  1.0992  0.3613
47712SOL    HW252105  12.405  12.056   1.382  0.4761 -0.1613  0.1709
47713SOL     OW52106   8.970   5.790   8.859 -0.5534 -0.1505 -0.1280
47713SOL    HW152107   8.949   5.857   8.795  0.0320 -0.1032 -0.2786
47713SOL    HW252108   8.914   5.716   8.836 -1.3252  0.3407  0.1458
47714SOL     OW52109   3.241   0.110  10.637 -0.1668 -0.1193  0.3446
47714SOL    HW152110   3.272   0.073  10.720  2.7472 -0.3867 -0.7537
47714SOL    HW252111   3.310   0.172  10.612 -1.8693  1.3200 -1.0186
47715SOL     OW52112   3.769  10.790   7.116 -0.6419  0.3716  0.2050
47715SOL    HW152113   3.814  10.795   7.200 -2.2276  1.0876  1.0606
47715SOL    HW252114   3.797  10.707   7.079 -0.8497 -0.5535  2.0153
47716SOL     OW52115   9.266   8.937   4.417  0.0013  0.3824  0.2497
47716SOL    HW152116   9.223   8.857   4.389  0.7130  0.1204 -0.1065
47716SOL    HW252117   9.344   8.943   4.362  0.7458  0.5232  1.2983
47717SOL     OW52118   1.029   0.059  12.586  0.1661  0.6059  0.1764
47717SOL    HW152119   0.967   0.128  12.610  0.2926 -0.0788  2.6839
47717SOL    HW252120   1.059   0.024  12.669 -0.2910 -2.8484 -0.9704
47718SOL     OW52121   8.085   4.552   6.139  0.0993 -0.6625 -0.2556
47718SOL    HW152122   8.043   4.542   6.224 -1.4382  0.5759 -0.8194
47718SOL    HW252123   8.152   4.484   6.137  0.9397 -0.0208  2.3786
47719SOL     OW52124   2.399   1.794   6.372 -0.4298  0.1881 -0.0216
47719SOL    HW152125   2.420   1.704   6.399 -1.7445 -1.2349 -3.2062
47719SOL    HW252126   2.303   1.796   6.370 -0.5020  2.2967  1.5931
47720SOL     OW52127   0.044   8.180  11.401  0.0304 -0.0401  0.2652
47720SOL    HW152128  -0.048   8.174  11.424 -0.0969  0.2423 -0.1643
47720SOL    HW252129   0.050   8.145  11.312  0.3005  0.1364  0.2104
47721SOL     OW52130   6.616   0.499   8.127 -0.1589 -0.0015 -0.5854
47721SOL    HW152131   6.621   0.515   8.033 -0.5899  0.8380 -0.4683
47721SOL    HW252132   6.539   0.548   8.156 -1.0989 -1.7042 -0.0837
47722SOL     OW52133   2.210  10.839   2.104 -0.0247  0.2227  0.1910
47722SOL    HW152134   2.178  10.802   2.021 -0.1685 -1.9417  1.1495
47722SOL    HW252135   2.304  10.823   2.102  0.0124  0.4252  0.3361
47723SOL     OW52136   3.104   3.150   9.656 -0.3264 -0.2736  0.1595
47723SOL    HW152137   3.117   3.056   9.663  0.5409 -0.1366  0.4620
47723SOL    HW252138   3.042   3.171   9.726 -1.4955 -0.7860 -0.6826
47724SOL     OW52139   1.965  11.432   1.448  0.2478  0.0900  0.2628
47724SOL    HW152140   1.946  11.361   1.509 -0.0725  0.2417  0.3442
47724SOL    HW252141   1.880  11.474   1.434  0.5926  0.9977  0.8881
47725SOL     OW52142   7.735  11.321   0.356 -0.0919 -0.1024 -0.2127
47725SOL    HW152143   7.760  11.395   0.302  0.3424  0.2885  0.5186
47725SOL    HW252144   7.798  11.252   0.334 -0.1151 -0.0516 -0.4372
47726SOL     OW52145   7.467  10.644   9.617  0.1296 -0.3391 -0.4736
47726SOL    HW152146   7.466  10.659   9.712  1.9782 -0.2350 -0.4301
47726SOL    HW252147   7.391  10.588   9.601 -0.4474 -0.0397  1.0041
47727SOL     OW52148   0.588   2.973  10.977  0.6416 -0.6897 -0.1528
47727SOL    HW152149   0.564   3.061  11.005  2.3679 -0.0918 -0.4545
47727SOL    HW252150   0.602   2.925  11.058  0.4429 -0.4775  0.0084
47728SOL     OW52151   2.810   2.155   0.634  0.0361 -0.0785  0.4267
47728SOL    HW152152   2.819   2.068   0.671 -0.5434  0.3872  1.7095
47728SOL    HW252153   2.716   2.168   0.624  0.1302  0.2993 -0.0139
47729SOL     OW52154   6.093   1.191   9.080 -0.2072  0.5020 -0.3729
47729SOL    HW152155   6.134   1.108   9.055  1.6933  0.7935  1.5755
47729SOL    HW252156   6.000   1.179   9.057 -0.2110 -2.5853  0.8052
47730SOL     OW52157   4.423   6.879   0.876 -0.4549  0.1374  0.3464
47730SOL    HW152158   4.361   6.933   0.826  0.2608 -1.6556 -2.7514
47730SOL    HW252159   4.495   6.938   0.897 -0.5946  0.9087 -1.1890
47731SOL     OW52160   9.210   2.114   8.431  0.5773 -0.4217 -0.5007
47731SOL    HW152161   9.124   2.142   8.398  1.1404 -0.4579 -2.1000
47731SOL    HW252162   9.191   2.042   8.490 -0.5621  0.2292 -0.0382
47732SOL     OW52163   1.727   8.464  10.512 -0.1684  0.3653 -0.2901
47732SOL    HW152164   1.759   8.484  10.424  0.6693  0.1166 -0.0526
47732SOL    HW252165   1.651   8.407  10.498  0.8261 -0.8612 -0.8241
47733SOL     OW52166   3.115  10.412  11.471  0.2462 -0.3651 -0.1656
47733SOL    HW152167   3.070  10.328  11.485  0.6437 -0.4914  0.4009
47733SOL    HW252168   3.049  10.478  11.490  0.0954 -0.5466 -0.0525
47734SOL     OW52169   9.805   9.667   0.367 -0.0114  0.1052 -0.4450
47734SOL    HW152170   9.797   9.647   0.274  0.6138  1.2860 -0.7729
47734SOL    HW252171   9.897   9.691   0.378 -0.3052  0.9480  0.2694
47735SOL     OW52172   3.222  11.316   8.477  0.7173 -0.0700  0.0830
47735SOL    HW152173   3.316  11.322   8.457  0.7381 -0.5299  0.0291
47735SOL    HW252174   3.218  11.261   8.555  0.6917  2.2960  1.8451
47736SOL     OW52175   0.041   5.741   6.681 -0.3880 -0.2819  0.6652
47736SOL    HW152176  -0.013   5.723   6.757 -0.7000 -0.1938  0.4670
47736SOL    HW252177   0.068   5.655   6.649  0.2205 -0.2992  1.2136
47737SOL     OW52178   2.073   9.564   0.712 -0.1329  0.0430 -0.0384
47737SOL    HW152179   2.053   9.657   0.701 -1.2900 -0.1425  0.3133
47737SOL    HW252180   2.149   9.563   0.771 -0.2133  0.7604  0.0887
47738SOL     OW52181   2.277   6.627   2.577 -0.1601 -0.2286  0.4284
47738SOL    HW152182   2.345   6.575   2.618 -0.3328 -0.4183  0.4725
47738SOL    HW252183   2.199   6.614   2.631 -0.4287 -0.6005 -0.0375
47739SOL     OW52184   0.474  10.459   3.075 -0.0377 -0.6662  0.1242
47739SOL    HW152185   0.492  10.536   3.020 -0.8344 -1.4184 -1.2301
47739SOL    HW252186   0.394  10.422   3.039  1.6125 -3.5603 -0.8508
47740SOL     OW52187   8.485   8.386   4.118  0.3957  0.1294 -0.1519
47740SOL    HW152188   8.557   8.359   4.175 -0.2854 -0.2994  0.5282
47740SOL    HW252189   8.413   8.405   4.178 -0.1655  0.2343 -0.8437
47741SOL     OW52190  10.561   4.643   4.960  0.4338 -0.2333  0.0123
47741SOL    HW152191  10.537   4.648   5.052 -0.8759 -1.5302 -0.1997
47741SOL    HW252192  10.603   4.726   4.941 -0.9007  0.8087  1.3492
47742SOL     OW52193   5.504   8.832  11.358  0.5024 -0.4565  0.2661
47742SOL    HW152194   5.516   8.739  11.343  1.5070  0.0125 -2.5518
47742SOL    HW252195   5.586   8.872  11.328 -0.1245  1.3629  0.8451
47743SOL     OW52196   3.256   2.325  10.560 -0.4274  0.3050  0.7457
47743SOL    HW152197   3.300   2.291  10.638 -1.5277  0.6743  1.5622
47743SOL    HW252198   3.170   2.283  10.562  0.4104 -1.7368 -1.7515
47744SOL     OW52199   2.143   3.790   0.871 -0.3391  0.7144  0.2523
47744SOL    HW152200   2.182   3.729   0.808 -2.5169 -0.4031 -0.1300
47744SOL    HW252201   2.106   3.734   0.939  0.2147  1.8135  1.5082
47745SOL     OW52202  11.950   9.462   5.854 -0.1489  0.9913  0.0261
47745SOL    HW152203  11.961   9.394   5.920 -0.4808  1.5549  0.6799
47745SOL    HW252204  12.015   9.442   5.787  0.5057  0.6643  0.7429
47746SOL     OW52205   2.145   9.591   6.690  0.6086  0.0248 -0.3372
47746SOL    HW152206   2.162   9.628   6.777  0.7917 -1.1240  0.1387
47746SOL    HW252207   2.184   9.653   6.629  0.4058  0.8939  0.3946
47747SOL     OW52208   6.025  10.406   0.939  0.1323  0.1631  0.4064
47747SOL    HW152209   5.950  10.463   0.957 -0.5776 -1.0425  1.4176
47747SOL    HW252210   6.047  10.368   1.023  0.5368 -1.1047 -0.2459
47748SOL     OW52211   0.473   3.159   7.495 -0.3919 -0.1964  0.3360
47748SOL    HW152212   0.383   3.126   7.498 -0.8490  1.0744  1.5367
47748SOL    HW252213   0.527   3.084   7.520 -1.1600 -0.7881  0.2539
47749SOL     OW52214   3.030   8.636   5.858  0.8791 -0.1438  0.0905
47749SOL    HW152215   2.980   8.700   5.807  1.4299 -0.1339 -0.4499
47749SOL    HW252216   3.108   8.685   5.887  0.3950 -0.0423  1.2663
47750SOL     OW52217  12.515  12.584   2.314  0.6060 -0.9413  0.3735
47750SOL    HW152218  12.593  12.623   2.352 -0.1620 -1.0474  2.1547
47750SOL    HW252219  12.536  12.490   2.308  0.8443 -0.8796  0.2289
47751SOL     OW52220   2.140   4.367   6.589 -0.0557 -0.2713  0.7169
47751SOL    HW152221   2.076   4.428   6.624  0.2394 -0.0688  0.9058
47751SOL    HW252222   2.205   4.357   6.659  0.5669  0.1854  0.2152
47752SOL     OW52223   1.537   5.950  10.942  0.1280  0.1165 -0.2429
47752SOL    HW152224   1.535   6.021  11.006  0.9968 -0.6564  0.6915
47752SOL    HW252225   1.478   5.978  10.873  0.6662  1.8781 -0.0501
47753SOL     OW52226   1.288   0.113   2.443  0.2139 -0.1273  0.1739
47753SOL    HW152227   1.263   0.202   2.419 -1.0476 -0.4491  0.1997
47753SOL    HW252228   1.368   0.096   2.394  1.0332  1.3645  0.9359
47754SOL     OW52229  11.837   5.696   7.440  0.2082  0.2193 -0.4818
47754SOL    HW152230  11.748   5.730   7.436 -0.0635 -0.3722  0.4964
47754SOL    HW252231  11.867   5.699   7.349 -0.8151  0.3900 -0.8267
47755SOL     OW52232  10.687   4.655  10.561  0.7214  0.3701  0.6167
47755SOL    HW152233  10.759   4.605  10.599  0.9905  0.0245 -0.3225
47755SOL    HW252234  10.627   4.588  10.528  0.8181  0.6603 -0.1628
47756SOL     OW52235   8.350   3.913   6.359  0.0991 -0.1123  0.5258
47756SOL    HW152236   8.282   3.900   6.425  0.4804 -0.6762  0.8202
47756SOL    HW252237   8.352   3.831   6.311 -1.4170  0.9089 -1.3936
47757SOL     OW52238   0.595   2.898   5.380 -0.7759  0.2451 -0.0127
47757SOL    HW152239   0.566   2.910   5.471 -1.6299 -0.7616 -0.1356
47757SOL    HW252240   0.521   2.927   5.327 -0.2336  0.9502 -0.4147
47758SOL     OW52241  10.456   1.487  12.286  0.5291  0.2105 -0.0512
47758SOL    HW152242  10.501   1.557  12.332  0.3731 -1.2330  2.4820
47758SOL    HW252243  10.514   1.411  12.296 -1.0371 -0.9450  0.6810
47759SOL     OW52244  12.265   7.006   9.375  0.2347  0.0323  0.1009
47759SOL    HW152245  12.338   7.046   9.422 -1.0125 -0.1503  2.2998
47759SOL    HW252246  12.261   7.054   9.292  2.7584  0.0898 -0.0754
47760SOL     OW52247   3.342   2.214   3.303 -0.0299  0.0251 -0.1579
47760SOL    HW152248   3.374   2.197   3.392  0.3310  0.4194 -0.2094
47760SOL    HW252249   3.411   2.182   3.246  0.9198  2.0842 -0.2504
47761SOL     OW52250   4.460  11.665  10.453 -0.0145  0.5563  0.2317
47761SOL    HW152251   4.377  11.653  10.407 -0.0912  1.5719  0.0876
47761SOL    HW252252   4.479  11.758  10.446  1.8422  0.1665 -0.9612
47762SOL     OW52253   8.350   5.996   2.289  1.1250  0.4724  0.3034
47762SOL    HW152254   8.334   6.089   2.307  0.2221  0.9336 -2.4128
47762SOL    HW252255   8.280   5.950   2.337  0.3880  1.3648  0.1144
47763SOL     OW52256   1.628   0.275   2.541  0.4587 -0.4901 -0.0600
47763SOL    HW152257   1.615   0.184   2.566  1.1311 -0.5402  0.1297
47763SOL    HW252258   1.635   0.322   2.624  2.3717 -0.6109 -0.1075
47764SOL     OW52259   6.858   7.868  10.834 -0.0224  0.7009  0.2888
47764SOL    HW152260   6.885   7.911  10.753  0.5445  0.1675  0.1841
47764SOL    HW252261   6.930   7.883  10.895 -0.8834  1.9777  1.0516
47765SOL     OW52262   2.036   2.932   4.534  0.3904 -0.1747  0.2369
47765SOL    HW152263   2.033   2.940   4.438 -1.6180  0.4551  0.3139
47765SOL    HW252264   2.060   3.020   4.564  2.2051 -0.6503  0.3252
47766SOL     OW52265   8.097   2.068   7.299  0.4135 -1.1508 -0.3905
47766SOL    HW152266   8.075   2.128   7.228 -0.4982 -1.5730 -0.4681
47766SOL    HW252267   8.125   1.988   7.256 -0.5228 -1.5433 -0.2743
47767SOL     OW52268   3.682   0.671   9.037  0.3831 -0.1511  0.2283
47767SOL    HW152269   3.613   0.726   9.075  1.8556  0.8925  1.5137
47767SOL    HW252270   3.688   0.596   9.097  1.0167  0.2569  0.6880
47768SOL     OW52271   1.785   7.770   5.974  0.2846 -0.1051 -0.7090
47768SOL    HW152272   1.765   7.859   5.946 -1.4982 -0.0044  0.6642
47768SOL    HW252273   1.866   7.778   6.024 -0.6784  1.0711  0.7438
47769SOL     OW52274   9.249   7.247   7.671 -0.1718 -0.3887 -0.3022
47769SOL    HW152275   9.319   7.189   7.703  0.5503  0.9206  0.5884
47769SOL    HW252276   9.268   7.331   7.711  0.3560  1.2205 -3.6126
47770SOL     OW52277   5.075   0.932  12.420  0.0269  0.2696 -1.1415
47770SOL    HW152278   5.115   1.017  12.401  1.8668 -0.1491  0.4802
47770SOL    HW252279   5.075   0.926  12.515 -2.6195 -0.4421 -1.1202
47771SOL     OW52280  12.157   5.322   2.590 -0.4611  0.4897  0.9469
47771SOL    HW152281  12.081   5.284   2.545 -0.0858  1.2430 -0.3545
47771SOL    HW252282  12.163   5.411   2.557  3.1750 -0.5675 -1.9590
47772SOL     OW52283  11.426   3.887   5.725 -0.3614  0.3753 -0.2210
47772SOL    HW152284  11.445   3.929   5.809 -2.0814  0.2935  0.2443
47772SOL    HW252285  11.505   3.836   5.706  0.4779  1.2323  0.8109
47773SOL     OW52286  12.383   8.001   3.529  0.4087  0.2054  0.2302
47773SOL    HW152287  12.471   8.035   3.516  0.3891  0.4283  0.6507
47773SOL    HW252288  12.349   8.050   3.605 -0.8586  1.6307 -1.1793
47774SOL     OW52289   0.755  10.904   1.969  0.2230 -0.2511  0.2316
47774SOL    HW152290   0.703  10.982   1.988 -2.1906 -1.9150  0.9158
47774SOL    HW252291   0.734  10.844   2.041  1.3155 -1.8546 -0.7370
47775SOL     OW52292   2.286   7.150   8.560 -0.2205  0.2642 -0.2402
47775SOL    HW152293   2.354   7.212   8.584  1.1940 -0.1359 -2.8648
47775SOL    HW252294   2.310   7.069   8.605  0.1637  0.5335  0.0439
47776SOL     OW52295  12.010   5.012   8.515  0.8844  0.1221 -0.6695
47776SOL    HW152296  11.973   5.065   8.444 -0.5701 -2.2016 -1.8022
47776SOL    HW252297  12.063   4.946   8.470  0.3836 -1.0662  0.4229
47777SOL     OW52298   8.101   1.617   4.518  0.1953  0.0659  1.0902
47777SOL    HW152299   8.157   1.620   4.596  0.8435  0.3601  0.6243
47777SOL    HW252300   8.012   1.614   4.553  0.3855  1.9531  1.8288
47778SOL     OW52301   1.600   5.617   6.796  0.1067  0.1030  0.5980
47778SOL    HW152302   1.519   5.602   6.845  1.0102  1.0732  2.4868
47778SOL    HW252303   1.595   5.556   6.722 -3.3418  1.6486 -0.6562
47779SOL     OW52304  11.089   5.907   5.313 -0.5437  0.0196 -0.1084
47779SOL    HW152305  11.151   5.938   5.248 -0.5615  1.8215  0.6688
47779SOL    HW252306  11.134   5.919   5.397 -0.9853 -1.0731  0.3096
47780SOL     OW52307   1.738   9.665   0.720  0.4669 -0.3894  0.3354
47780SOL    HW152308   1.756   9.660   0.813  0.9670  0.6197  0.3059
47780SOL    HW252309   1.787   9.741   0.690 -0.1166 -0.3824 -0.6521
47781SOL     OW52310  10.734   9.750  11.798 -0.6357  0.2054 -0.1688
47781SOL    HW152311  10.709   9.771  11.708 -0.4393 -0.1854 -0.3167
47781SOL    HW252312  10.798   9.817  11.821 -0.5083  0.1669 -0.4036
47782SOL     OW52313  10.055   4.932   0.925 -0.4923  0.0871  0.3410
47782SOL    HW152314  10.116   4.926   0.999 -1.3017 -0.5696  0.9711
47782SOL    HW252315  10.056   4.844   0.886  0.0605  0.4749 -0.5485
47783SOL     OW52316   4.273  11.055   5.747 -0.3274  0.2398 -0.0749
47783SOL    HW152317   4.349  11.026   5.696 -1.0744  0.5322 -1.4171
47783SOL    HW252318   4.247  10.978   5.798 -0.1392 -0.3789 -0.8865
47784SOL     OW52319   9.049   1.452   3.763  0.2240 -0.0983 -0.0112
47784SOL    HW152320   9.070   1.545   3.774 -0.0229 -0.3375  3.2509
47784SOL    HW252321   9.123   1.406   3.802 -0.2545 -1.2630 -0.4389
47785SOL     OW52322   9.935   2.839   2.997 -0.5014 -0.4725 -0.0249
47785SOL    HW152323  10.013   2.794   2.966 -0.7001 -1.7618  1.2492
47785SOL    HW252324   9.956   2.932   2.986 -0.5344 -0.7503 -3.8012
47786SOL     OW52325   4.684   1.631   9.724  0.1053  0.6547 -0.3360
47786SOL    HW152326   4.774   1.660   9.736  0.0408  0.6436  0.2164
47786SOL    HW252327   4.635   1.676   9.794 -0.4741  1.3844 -1.1884
47787SOL     OW52328   8.127   1.220   0.198 -0.3621 -0.1140  0.6085
47787SOL    HW152329   8.223   1.219   0.200 -0.3723 -0.9252  0.7604
47787SOL    HW252330   8.100   1.181   0.281 -0.8090 -1.2666 -0.0468
47788SOL     OW52331  10.158   4.314   6.534  0.3458 -0.1586  0.3641
47788SOL    HW152332  10.170   4.383   6.469  0.4637  0.1645  0.7296
47788SOL    HW252333  10.204   4.238   6.497 -0.7180 -0.3822 -0.5604
47789SOL     OW52334   1.553   4.816   6.889  0.1319 -0.4524 -0.0860
47789SOL    HW152335   1.529   4.758   6.962  0.8639 -0.6455  0.0060
47789SOL    HW252336   1.508   4.779   6.813  0.4814 -1.0567  0.0018
47790SOL     OW52337   9.494   3.183   5.017 -0.2533 -0.2993 -0.3750
47790SOL    HW152338   9.523   3.093   5.007  0.6165 -0.0321 -0.3602
47790SOL    HW252339   9.417   3.178   5.074  1.1486 -0.8329  1.5874
47791SOL     OW52340   4.869   4.539   4.059 -0.5669 -0.1547  0.6642
47791SOL    HW152341   4.904   4.625   4.035 -0.6539  0.0203  1.1498
47791SOL    HW252342   4.866   4.540   4.155 -2.4172  0.0472  0.6396
47792SOL     OW52343   0.534   9.631   2.941  0.1819 -0.3226 -0.5102
47792SOL    HW152344   0.481   9.576   2.883 -0.1612  1.0587 -1.5606
47792SOL    HW252345   0.610   9.577   2.962 -0.8038 -1.7089 -0.3673
47793SOL     OW52346   1.778  10.294   4.199  0.4621  0.4876 -0.0798
47793SOL    HW152347   1.731  10.372   4.168  1.2095  1.5611  1.3743
47793SOL    HW252348   1.725  10.262   4.272 -0.6899 -1.3641 -1.6347
47794SOL     OW52349   5.171   2.081   7.306  0.4559  0.1763  0.1113
47794SOL    HW152350   5.259   2.103   7.337  0.6298 -0.7106  0.2853
47794SOL    HW252351   5.184   2.000   7.256 -0.5251 -0.9428  1.6070
47795SOL     OW52352   5.782   2.210   3.376 -0.1654 -0.1721 -0.0795
47795SOL    HW152353   5.780   2.301   3.347  0.1501  0.1603  0.9046
47795SOL    HW252354   5.758   2.159   3.298 -0.1163  0.7320 -0.6960
47796SOL     OW52355   3.192   2.087   5.200  0.2649 -0.5583  0.3776
47796SOL    HW152356   3.212   2.087   5.294  2.0849 -0.0341  0.0283
47796SOL    HW252357   3.143   2.006   5.186 -0.4412 -0.4134  1.8523
47797SOL     OW52358   9.128   8.247   1.559  0.1599 -0.2753 -0.0269
47797SOL    HW152359   9.194   8.183   1.587  0.7055 -0.7871 -2.3178
47797SOL    HW252360   9.045   8.210   1.589  0.3409 -2.6652 -2.1107
47798SOL     OW52361   7.598   7.663   5.979  0.5102  0.3846  0.1420
47798SOL    HW152362   7.520   7.706   6.014  0.9661  0.4719  1.0805
47798SOL    HW252363   7.569   7.575   5.956  0.0407  0.5439  0.1116
47799SOL     OW52364   7.913   0.005   6.005  0.2824  0.0774  0.3263
47799SOL    HW152365   7.942   0.019   5.916  0.5923  0.1044  0.4323
47799SOL    HW252366   7.900   0.093   6.040 -0.3503  0.0653  0.1428
47800SOL     OW52367   0.084   2.935   3.855  0.2142 -0.2795 -0.0158
47800SOL    HW152368   0.029   2.873   3.807  1.2642  0.6248 -2.5519
47800SOL    HW252369   0.137   2.977   3.788  2.4889  0.4319  2.0593
47801SOL     OW52370  12.300   7.279   4.603 -0.3222  0.2471 -0.0612
47801SOL    HW152371  12.301   7.375   4.607  0.7848  0.2145  2.0149
47801SOL    HW252372  12.355   7.258   4.528  0.6853  1.2518  0.3594
47802SOL     OW52373   4.532   2.856   2.434 -0.2899 -0.3132 -0.1931
47802SOL    HW152374   4.549   2.942   2.396 -0.5598  0.4567  1.3765
47802SOL    HW252375   4.457   2.822   2.384 -0.2258  0.3864 -0.7749
47803SOL     OW52376   3.082   3.775   1.257 -0.0042  0.5334  0.5545
47803SOL    HW152377   3.002   3.810   1.297  0.6383  0.6397  1.7836
47803SOL    HW252378   3.078   3.805   1.166 -1.7195 -0.0859  0.3822
47804SOL     OW52379   2.091   0.185  12.497 -0.0031  0.7367  0.1678
47804SOL    HW152380   2.145   0.128  12.442 -1.4991 -0.6441  0.0523
47804SOL    HW252381   2.108   0.156  12.586 -1.6698 -0.8299  0.0455
47805SOL     OW52382   1.286   4.419   1.006  0.9981 -0.0026 -0.1139
47805SOL    HW152383   1.374   4.433   0.970  1.1471 -0.4314  0.0749
47805SOL    HW252384   1.265   4.329   0.982  0.4169  0.2411 -0.5520
47806SOL     OW52385  12.460   2.428  12.583 -0.5473 -0.6182  0.4376
47806SOL    HW152386  12.528   2.492  12.565 -1.2103 -0.0512 -0.1290
47806SOL    HW252387  12.487   2.386  12.665 -0.2894  0.6476  1.0133
47807SOL     OW52388   1.073  11.961  11.189 -1.0205 -0.2181 -0.0064
47807SOL    HW152389   0.985  11.947  11.153 -0.7064  0.1199 -0.9461
47807SOL    HW252390   1.131  11.945  11.115 -0.3179  0.0201  0.4918
47808SOL     OW52391  10.269   5.102   7.806  0.4287  0.0199  0.4435
47808SOL    HW152392  10.217   5.052   7.869  0.1442  0.4725  0.5678
47808SOL    HW252393  10.295   5.181   7.853 -1.3692  1.2834 -0.5754
47809SOL     OW52394   7.191   1.359  11.360  0.5672  0.3217 -0.5688
47809SOL    HW152395   7.181   1.406  11.443 -0.3513 -2.0850  0.8022
47809SOL    HW252396   7.276   1.316  11.367  0.8054  0.6851 -1.2006
47810SOL     OW52397  10.998  10.289  10.431 -0.5246 -0.1120 -0.0748
47810SOL    HW152398  11.058  10.351  10.389  0.3487 -0.7997  0.1343
47810SOL    HW252399  10.921  10.288  10.374  0.2501 -0.3136 -1.1565
47811SOL     OW52400   3.606   5.196   9.633 -0.1896  0.3137  0.8573
47811SOL    HW152401   3.617   5.170   9.541 -0.6469  0.8527  0.6427
47811SOL    HW252402   3.638   5.287   9.635 -0.9109  0.5710  1.0574
47812SOL     OW52403   9.461   1.520   4.857  0.1210 -0.3263 -0.1401
47812SOL    HW152404   9.510   1.552   4.933  1.0565  1.1136 -1.2699
47812SOL    HW252405   9.529   1.486   4.798 -0.4464 -0.3168 -0.8166
47813SOL     OW52406   9.194   8.489   3.264  0.0006  0.6565  0.0771
47813SOL    HW152407   9.285   8.460   3.261 -0.1388  0.2866 -1.0373
47813SOL    HW252408   9.145   8.410   3.283 -0.1613  0.6794 -0.2439
47814SOL     OW52409   4.022   2.637   5.528 -0.2965  0.0567 -0.8126
47814SOL    HW152410   4.050   2.714   5.478 -0.0697  0.7632  0.3810
47814SOL    HW252411   3.986   2.578   5.462  1.8566  0.0944 -2.1194
47815SOL     OW52412   5.781   9.429   5.445  0.1868  0.3025 -0.7694
47815SOL    HW152413   5.861   9.467   5.410  1.6542 -0.5003  1.4596
47815SOL    HW252414   5.728   9.504   5.471  1.1248  0.8528 -0.3921
47816SOL     OW52415  10.885   4.840  11.000  0.2713  0.0035  0.1190
47816SOL    HW152416  10.834   4.829  11.080  0.4875  0.7481  0.3675
47816SOL    HW252417  10.821   4.835  10.930 -0.0842  0.5351  0.4066
47817SOL     OW52418   0.231   5.758   7.314  0.3267  0.2013  0.6809
47817SOL    HW152419   0.264   5.685   7.366 -1.2054 -0.1671  1.1922
47817SOL    HW252420   0.145   5.729   7.283  0.0633  1.4479  0.1706
47818SOL     OW52421   5.154   1.499   1.733  0.0733 -0.2378  0.2581
47818SOL    HW152422   5.087   1.485   1.666 -1.1878  0.1976  1.3826
47818SOL    HW252423   5.198   1.580   1.706 -0.6553  0.1268  0.1295
47819SOL     OW52424   9.652   2.976   2.819 -0.0432  0.2375 -0.1459
47819SOL    HW152425   9.680   3.065   2.796  0.5649  0.2077  0.4559
47819SOL    HW252426   9.581   2.957   2.758  0.0556  1.0051 -0.5115
47820SOL     OW52427   0.978   4.388  11.482 -0.3277  0.0302  0.1816
47820SOL    HW152428   0.945   4.414  11.568  1.0397 -2.2651  1.4627
47820SOL    HW252429   0.903   4.347  11.439 -0.3576 -1.1557  1.3261
47821SOL     OW52430   1.243   2.585   2.181 -0.3345  0.0933  0.1747
47821SOL    HW152431   1.322   2.556   2.227 -0.1118  1.7107  0.8855
47821SOL    HW252432   1.274   2.617   2.097  0.1025  2.4920  1.1687
47822SOL     OW52433   7.613   2.517   9.898 -0.0118  0.5500  0.0180
47822SOL    HW152434   7.617   2.465   9.817  1.1501  1.0664 -0.2774
47822SOL    HW252435   7.705   2.527   9.925 -0.2704  1.7337  0.5206
47823SOL     OW52436   4.494   5.690   3.699  0.0666  0.4901  0.4360
47823SOL    HW152437   4.581   5.653   3.687 -0.1903 -0.7795  2.0649
47823SOL    HW252438   4.482   5.750   3.625  1.8045 -0.2627 -0.5053
47824SOL     OW52439   0.543   0.983   3.555  0.3102  0.1809  0.3719
47824SOL    HW152440   0.599   1.061   3.559  0.6308  0.0033 -0.4714
47824SOL    HW252441   0.502   0.988   3.468  0.5549 -0.7368  0.1979
47825SOL     OW52442  10.122  10.167   8.274  0.5636 -0.1904 -0.6504
47825SOL    HW152443  10.113  10.196   8.183 -2.6399  2.1633  0.2102
47825SOL    HW252444  10.135  10.073   8.269 -0.7400 -0.3104 -3.5316
47826SOL     OW52445  12.060   5.623   3.733  0.1855  0.3274 -0.4344
47826SOL    HW152446  12.129   5.622   3.799 -1.5625  1.9007  1.5241
47826SOL    HW252447  12.096   5.677   3.662  0.5862  2.1348  1.0578
47827SOL     OW52448  10.609  10.896   1.458  0.1705 -0.2033 -0.3044
47827SOL    HW152449  10.666  10.892   1.381  1.4424 -1.6811  0.6485
47827SOL    HW252450  10.530  10.849   1.432  0.7555 -1.0415 -0.5958
47828SOL     OW52451   3.747  11.274   4.559 -0.1181 -0.6536  0.2337
47828SOL    HW152452   3.778  11.214   4.491  2.9181  0.0916  0.7869
47828SOL    HW252453   3.756  11.225   4.641 -1.3629 -0.7222  0.3366
47829SOL     OW52454   8.077   1.844   8.438 -0.1487  0.1853 -0.0997
47829SOL    HW152455   8.021   1.767   8.443  1.2934 -0.9501 -0.7972
47829SOL    HW252456   8.163   1.810   8.416  0.5183  2.0152 -0.4901
47830SOL     OW52457  12.500  12.566   8.014  0.3164  0.0204 -0.1590
47830SOL    HW152458  12.554  12.537   8.088 -0.2599 -0.8622 -0.0615
47830SOL    HW252459  12.410  12.555   8.045  0.0704 -0.3885 -1.0045
47831SOL     OW52460   2.279   2.684   0.307  0.1200  0.2739 -0.4207
47831SOL    HW152461   2.357   2.635   0.334 -0.1400  0.2457  0.2758
47831SOL    HW252462   2.234   2.625   0.246  1.2442  0.7447 -1.7810
47832SOL     OW52463   8.480   4.761  12.365  0.5121  0.4404  0.0556
47832SOL    HW152464   8.545   4.830  12.358  1.3127 -0.2807  0.2210
47832SOL    HW252465   8.411   4.787  12.304  0.8379  1.3306  0.0498
47833SOL     OW52466   5.986   0.971   2.930  0.3475 -0.0189 -0.0061
47833SOL    HW152467   6.041   0.893   2.932 -1.7269 -1.6884 -2.1532
47833SOL    HW252468   5.904   0.943   2.971 -0.0608  1.4029  0.1917
47834SOL     OW52469   7.730   1.438  10.253  0.5074  0.5034  0.2806
47834SOL    HW152470   7.637   1.436  10.275  0.4672  0.1509  0.0842
47834SOL    HW252471   7.753   1.347  10.237  0.1728  0.8516 -2.6296
47835SOL     OW52472   9.163   5.957   4.545  0.5939  0.0809  0.0244
47835SOL    HW152473   9.100   5.903   4.592  1.7338 -1.7493 -0.4308
47835SOL    HW252474   9.111   6.029   4.510 -1.4429 -1.7197 -0.9558
47836SOL     OW52475   2.458   7.315   9.838 -0.3993 -0.1139  0.5888
47836SOL    HW152476   2.364   7.322   9.849 -0.3016  1.4015  0.7522
47836SOL    HW252477   2.471   7.303   9.744 -0.7718 -0.8818  0.6342
47837SOL     OW52478   4.752   0.219  10.934  0.3889  0.5630  0.4650
47837SOL    HW152479   4.741   0.126  10.915 -0.9332 -0.0986  3.7901
47837SOL    HW252480   4.752   0.262  10.849 -1.0876 -2.2747 -1.0655
47838SOL     OW52481   0.773   7.676   3.652 -0.3979  0.2815  0.2497
47838SOL    HW152482   0.850   7.679   3.594 -1.4533 -4.2943 -1.8267
47838SOL    HW252483   0.720   7.752   3.625  1.3628  1.0452 -1.3369
47839SOL     OW52484   5.553   1.593   5.130 -0.0180  0.2129 -0.2984
47839SOL    HW152485   5.628   1.650   5.148  0.4660  0.3119 -2.3477
47839SOL    HW252486   5.584   1.505   5.154  0.4089  0.3840 -0.2068
47840SOL     OW52487   8.125   1.497   8.899  0.2058 -0.5416 -0.4048
47840SOL    HW152488   8.192   1.551   8.941 -0.4431  0.6301 -0.8154
47840SOL    HW252489   8.168   1.460   8.822  1.4671 -2.8788  1.3138
47841SOL     OW52490   6.628   5.267   9.197 -0.3314 -0.0898  0.1547
47841SOL    HW152491   6.532   5.267   9.188 -0.4222  1.9411  0.5389
47841SOL    HW252492   6.660   5.246   9.110 -1.1417  0.0995 -0.2026
47842SOL     OW52493   0.811   5.658   3.050 -0.4147  0.5740 -0.3886
47842SOL    HW152494   0.861   5.725   3.003  0.9971  1.2104  1.8336
47842SOL    HW252495   0.733   5.705   3.081 -0.4468  0.6380 -0.5631
47843SOL     OW52496   3.924  11.829   0.114 -0.0524 -0.5008  0.0793
47843SOL    HW152497   4.002  11.872   0.148 -0.1915  1.3927 -1.8462
47843SOL    HW252498   3.949  11.737   0.106  1.0772 -0.4110  1.9476
47844SOL     OW52499   4.009   0.543  12.391  0.3399 -0.0413 -0.1466
47844SOL    HW152500   3.929   0.580  12.428 -0.1022 -0.6076 -0.5332
47844SOL    HW252501   4.080   0.591  12.435 -0.2083  0.6022  0.0439
47845SOL     OW52502   6.302   4.844   2.398  0.4200 -0.3294  0.4225
47845SOL    HW152503   6.335   4.880   2.316 -0.5903 -0.5056 -0.0846
47845SOL    HW252504   6.369   4.781   2.425  1.6443  1.0556  0.7176
47846SOL     OW52505  12.018   1.442   5.950 -0.0987  0.0693 -0.3410
47846SOL    HW152506  12.024   1.514   5.887  2.7441  1.2396  1.0469
47846SOL    HW252507  12.043   1.482   6.034  0.9463 -2.3633  0.5966
47847SOL     OW52508   0.833   4.770   6.334 -0.8997  0.7125 -0.2107
47847SOL    HW152509   0.890   4.710   6.383 -2.0217  0.7701  1.2570
47847SOL    HW252510   0.863   4.763   6.244  0.6368 -0.1545  0.3198
47848SOL     OW52511   1.386  10.360   4.533  0.0394 -0.4075  0.0834
47848SOL    HW152512   1.298  10.356   4.494  0.5638 -2.6694 -1.0554
47848SOL    HW252513   1.371  10.351   4.627 -0.9539 -1.3377 -0.1371
47849SOL     OW52514   1.828  10.536   7.377 -0.3046 -0.3586 -0.0863
47849SOL    HW152515   1.809  10.525   7.471  0.4231 -2.3369 -0.1130
47849SOL    HW252516   1.852  10.628   7.368 -0.8848 -0.0011  1.5730
47850SOL     OW52517   2.647   5.023   3.210 -0.1268 -0.0350  0.4340
47850SOL    HW152518   2.578   4.994   3.151 -1.1405  1.0098  1.0611
47850SOL    HW252519   2.635   4.971   3.289  0.6849 -0.8150  0.0652
47851SOL     OW52520   4.597   9.061   3.021 -0.2807 -0.0753  0.4319
47851SOL    HW152521   4.670   9.061   3.083  0.7346  0.7420 -0.7290
47851SOL    HW252522   4.566   8.971   3.021  1.5782 -0.7612 -0.0067
47852SOL     OW52523  11.731   5.903   9.847  0.5957 -0.7173  0.1588
47852SOL    HW152524  11.638   5.917   9.865 -0.5157 -1.6408 -3.8969
47852SOL    HW252525  11.776   5.944   9.921 -2.8928  2.9382  0.5765
47853SOL     OW52526   0.368   2.565   3.689 -0.4601 -0.4553 -0.2217
47853SOL    HW152527   0.460   2.556   3.664 -0.8052 -0.3385 -1.6249
47853SOL    HW252528   0.333   2.476   3.685 -0.8977 -0.2328 -1.7865
47854SOL     OW52529  11.789  10.875   9.668  0.5081  0.4148 -0.5442
47854SOL    HW152530  11.863  10.853   9.724 -0.5659  1.6608  1.4618
47854SOL    HW252531  11.718  10.818   9.698 -0.3384  1.7284  0.0001
47855SOL     OW52532   2.893   2.160  11.448 -0.1078  1.0050  0.1618
47855SOL    HW152533   2.979   2.120  11.465 -1.0293 -1.9285 -1.4171
47855SOL    HW252534   2.914   2.241  11.402  1.9204 -0.4009 -1.6627
47856SOL     OW52535   0.016   8.638   7.189 -0.5884  0.1375 -0.4618
47856SOL    HW152536  -0.001   8.721   7.233  1.3057 -0.3753  1.3814
47856SOL    HW252537   0.035   8.577   7.260  2.4957 -0.7647 -1.8982
47857SOL     OW52538  10.151   7.041   3.978  0.1092  0.1379  0.2769
47857SOL    HW152539  10.064   7.079   3.988  0.6397  1.2108  1.0361
47857SOL    HW252540  10.189   7.087   3.903  0.4145  0.4320  0.6126
47858SOL     OW52541   7.087   8.945   1.845 -0.1249 -0.3685  0.4416
47858SOL    HW152542   7.173   8.905   1.829  0.1319  0.6096 -0.7691
47858SOL    HW252543   7.030   8.910   1.777  0.1045  1.2457 -0.6392
47859SOL     OW52544   6.502   7.101   7.833 -0.2136 -0.0166  0.3930
47859SOL    HW152545   6.435   7.099   7.765  0.0490 -0.0979  0.1345
47859SOL    HW252546   6.502   7.191   7.864 -1.1434 -0.2440  1.1043
47860SOL     OW52547   0.896   1.052  12.422  0.2525 -0.1718  0.3284
47860SOL    HW152548   0.913   1.006  12.340  0.1236 -0.5844  0.5282
47860SOL    HW252549   0.976   1.042  12.473  0.6191  0.7554 -0.0520
47861SOL     OW52550   8.476   6.805   7.468  0.0574 -0.1841 -0.0736
47861SOL    HW152551   8.387   6.773   7.452 -1.4612  2.5032  2.0730
47861SOL    HW252552   8.524   6.785   7.388 -2.4634 -1.7737 -1.2925
47862SOL     OW52553   9.520   5.101   4.940  0.0078 -0.1563  0.3756
47862SOL    HW152554   9.437   5.056   4.955 -1.0841  1.5446 -0.3213
47862SOL    HW252555   9.581   5.032   4.915 -1.9049 -1.1510 -1.8492
47863SOL     OW52556   8.904  12.559   0.127 -0.3912  0.4369  0.5405
47863SOL    HW152557   8.891  12.585   0.218 -0.0078  2.0117  0.1763
47863SOL    HW252558   8.987  12.512   0.127  0.2346  1.5073  0.8228
47864SOL     OW52559   1.115  10.013   3.315  0.2905 -0.3539 -0.0803
47864SOL    HW152560   1.075   9.955   3.380 -0.0210 -0.9975 -0.8273
47864SOL    HW252561   1.043  10.066   3.283  0.5405  0.3239  0.4610
47865SOL     OW52562   4.020   6.804  11.724 -0.0262 -0.1853  0.6053
47865SOL    HW152563   3.981   6.891  11.718  0.0634 -0.0362  1.8923
47865SOL    HW252564   3.975   6.763  11.798  1.5940 -0.3408  1.5496
47866SOL     OW52565   1.444  11.997   0.363 -0.6480  0.4439 -0.0054
47866SOL    HW152566   1.485  12.079   0.336 -0.6585 -0.3466 -2.7707
47866SOL    HW252567   1.383  12.022   0.432 -1.4034  2.9515 -1.4557
47867SOL     OW52568  11.372   6.552   8.182 -0.1236 -0.2078 -0.2171
47867SOL    HW152569  11.331   6.637   8.199  1.3313  0.4395  0.2688
47867SOL    HW252570  11.371   6.508   8.267  1.5680  0.4771  0.2018
47868SOL     OW52571  10.672   8.966   9.241 -0.1039  0.2278  0.2080
47868SOL    HW152572  10.655   9.025   9.168 -0.7068  1.2931  1.1817
47868SOL    HW252573  10.629   8.884   9.216  0.1028  0.4177 -0.8254
47869SOL     OW52574   1.593   3.885   4.264  0.3170  0.4741  0.2726
47869SOL    HW152575   1.519   3.885   4.203  0.4762 -1.2981  0.0307
47869SOL    HW252576   1.559   3.930   4.342 -0.6534  0.6631 -0.2401
47870SOL     OW52577   9.301   2.981   8.189 -0.3563 -0.2803 -0.1012
47870SOL    HW152578   9.374   3.039   8.211  0.2445 -1.2434  0.5173
47870SOL    HW252579   9.288   2.993   8.095  0.9693 -0.5117 -0.3213
47871SOL     OW52580   8.109   5.558   7.545 -0.5242  0.0391 -0.4895
47871SOL    HW152581   8.164   5.538   7.469  2.6378  0.4715  1.5078
47871SOL    HW252582   8.105   5.654   7.546 -0.0738  0.0522  0.1857
47872SOL     OW52583   7.203   2.503   3.643 -0.0298 -0.1064 -0.5523
47872SOL    HW152584   7.148   2.581   3.638 -0.1914 -0.2950 -2.1031
47872SOL    HW252585   7.163   2.451   3.713 -0.1953  0.9838  0.1795
47873SOL     OW52586   9.259   3.080   4.774  0.1692  1.0656 -0.6039
47873SOL    HW152587   9.282   3.099   4.865 -0.8029  0.6357 -0.2581
47873SOL    HW252588   9.343   3.061   4.731  0.5263  0.1605  0.4593
47874SOL     OW52589   6.594   3.133  10.664  0.1246  0.5761  0.0909
47874SOL    HW152590   6.598   3.040  10.640  2.4561  0.5369  0.3694
47874SOL    HW252591   6.574   3.178  10.582  1.8972 -0.0046 -0.7153
47875SOL     OW52592   7.608   7.414   6.405 -0.1392  0.1288 -0.0883
47875SOL    HW152593   7.522   7.402   6.367 -1.1302  1.2856  1.6580
47875SOL    HW252594   7.618   7.509   6.412  0.7395 -0.0219  0.9234
47876SOL     OW52595   1.032   4.054   4.586  0.4875  0.2993  0.2450
47876SOL    HW152596   0.965   4.069   4.653 -0.5368 -0.8387 -0.4661
47876SOL    HW252597   0.986   4.066   4.503  1.3686  0.2703 -0.2572
47877SOL     OW52598  11.517  11.977   6.826  0.3423  0.0282  0.4694
47877SOL    HW152599  11.482  11.983   6.737 -0.4756 -0.4850  0.7319
47877SOL    HW252600  11.484  12.055   6.870  1.5128  0.7585  0.0899
47878SOL     OW52601   9.404   2.205  10.311 -0.1770  0.2032 -0.4852
47878SOL    HW152602   9.374   2.124  10.270 -1.6352 -0.0416  0.9616
47878SOL    HW252603   9.371   2.275  10.255  1.5315 -0.1550 -2.0338
47879SOL     OW52604   5.716   4.254  12.410 -0.2262  0.1918  0.2428
47879SOL    HW152605   5.678   4.296  12.333  0.5140 -1.1780 -0.9024
47879SOL    HW252606   5.647   4.260  12.477 -0.2915  2.8140  0.0286
47880SOL     OW52607   5.653  10.248   2.089 -0.0987  0.2365 -0.0377
47880SOL    HW152608   5.687  10.324   2.043 -2.5220  1.3953 -0.1015
47880SOL    HW252609   5.692  10.173   2.045 -1.1616  1.3172 -3.0862
47881SOL     OW52610   9.743   9.604  11.121  0.0223 -0.0212  0.2914
47881SOL    HW152611   9.735   9.610  11.026  0.6193 -1.1364  0.1468
47881SOL    HW252612   9.831   9.568  11.135  0.4750  1.4156  1.3281
47882SOL     OW52613   2.662   3.557   1.605  0.0728 -0.4135  0.9203
47882SOL    HW152614   2.663   3.652   1.593  1.3428 -0.3678  1.2185
47882SOL    HW252615   2.685   3.522   1.519  0.1280 -0.4277  0.9405
47883SOL     OW52616   1.620   5.470   7.280 -0.2499  0.2494 -0.1481
47883SOL    HW152617   1.528   5.466   7.307 -0.2433  2.8174  0.4452
47883SOL    HW252618   1.616   5.485   7.186 -0.3800 -1.0589 -0.3721
47884SOL     OW52619   4.013  11.514   1.934 -0.1603  0.5643 -0.2825
47884SOL    HW152620   3.963  11.475   2.006 -0.8134  1.7519 -0.0696
47884SOL    HW252621   3.964  11.492   1.855  0.3699 -0.4432 -0.3460
47885SOL     OW52622   3.575   2.544   3.532 -0.2287  0.5088  0.1174
47885SOL    HW152623   3.623   2.469   3.498 -0.1365  0.3456  0.6081
47885SOL    HW252624   3.537   2.514   3.615  0.1372  1.1212  0.5109
47886SOL     OW52625   9.340  10.721   5.046  0.4731 -0.2909 -1.1676
47886SOL    HW152626   9.410  10.728   4.981 -0.0754  1.5758 -1.6285
47886SOL    HW252627   9.363  10.787   5.112 -0.3072 -0.4016 -0.7813
47887SOL     OW52628  10.527   2.201   6.275 -0.1898 -0.2092  0.7819
47887SOL    HW152629  10.531   2.280   6.328  0.1651  2.0775 -2.3568
47887SOL    HW252630  10.610   2.200   6.226 -0.5533 -2.0597  0.0922
47888SOL     OW52631  12.184   2.236   7.644  0.3235  0.2340 -0.0110
47888SOL    HW152632  12.123   2.189   7.587 -1.8407  2.5339  0.2816
47888SOL    HW252633  12.178   2.192   7.728 -0.1552 -0.1620 -0.2511
47889SOL     OW52634  11.745   7.757   7.171  0.1298 -0.1057 -0.3156
47889SOL    HW152635  11.667   7.704   7.155  0.2777 -1.1859  2.0406
47889SOL    HW252636  11.712   7.835   7.216  0.3517 -0.4599  0.4831
47890SOL     OW52637   2.783   1.887   9.730  0.1180  0.2939 -0.2352
47890SOL    HW152638   2.833   1.938   9.667 -1.0299  1.7084 -0.0493
47890SOL    HW252639   2.706   1.941   9.749 -0.0450 -0.5228  1.6402
47891SOL     OW52640   4.748   1.743   2.988 -0.0254 -0.4067 -0.4693
47891SOL    HW152641   4.790   1.685   3.051  2.0115 -0.1682 -1.5013
47891SOL    HW252642   4.764   1.831   3.022  0.3894 -0.3110 -0.8922
47892SOL     OW52643   8.641   0.278   3.477 -0.1465  0.0285  0.0694
47892SOL    HW152644   8.550   0.303   3.487  0.3158  1.1879  1.7297
47892SOL    HW252645   8.649   0.195   3.524 -0.0264  0.7438  1.3572
47893SOL     OW52646   6.009   3.023  10.138 -0.4629 -0.3288  0.1493
47893SOL    HW152647   6.103   3.014  10.126 -0.5340  0.3147 -1.1175
47893SOL    HW252648   5.997   3.111  10.175 -0.5392 -0.5963  0.7681
47894SOL     OW52649  10.510   4.781   2.348 -0.1075 -0.3300 -0.2827
47894SOL    HW152650  10.468   4.781   2.263  1.6300 -0.1772 -1.1886
47894SOL    HW252651  10.484   4.864   2.388 -2.0647 -1.0267 -0.0394
47895SOL     OW52652   2.344   3.602   6.773 -0.0239  0.5001 -0.1350
47895SOL    HW152653   2.297   3.671   6.819  0.6091  0.5994  0.3803
47895SOL    HW252654   2.425   3.644   6.743  0.8729 -0.2545  1.1137
47896SOL     OW52655   6.999   5.685   7.462  0.1590 -0.4167 -0.0635
47896SOL    HW152656   6.912   5.702   7.499  1.0299  0.5359  1.7245
47896SOL    HW252657   7.002   5.590   7.451 -1.3987 -0.4021 -1.0084
47897SOL     OW52658   0.931   7.327   7.240 -0.2703 -0.1393  0.6894
47897SOL    HW152659   0.848   7.315   7.195  0.7810 -0.3582 -1.3237
47897SOL    HW252660   0.992   7.269   7.194  1.4749  1.5661  0.7070
47898SOL     OW52661   9.382   2.177   3.827  0.1789  0.5943 -0.2271
47898SOL    HW152662   9.344   2.122   3.895 -0.9143 -0.3505 -1.5427
47898SOL    HW252663   9.317   2.178   3.757  0.5597  2.8570 -0.6326
47899SOL     OW52664   2.352   7.581   0.525 -0.7393  0.0741 -0.4848
47899SOL    HW152665   2.346   7.637   0.601 -2.6888 -0.2970 -0.3003
47899SOL    HW252666   2.364   7.641   0.451 -1.7886  0.6654 -0.1875
47900SOL     OW52667   8.586   1.642   3.512 -0.2365 -1.0038  0.1690
47900SOL    HW152668   8.496   1.673   3.497 -1.1097 -2.3475  2.1507
47900SOL    HW252669   8.583   1.548   3.492  0.2477 -1.4132  1.8439
47901SOL     OW52670   2.009   1.687   7.931 -0.0663 -0.4721 -0.0720
47901SOL    HW152671   1.966   1.602   7.941 -0.7683  0.0563  1.6618
47901SOL    HW252672   2.102   1.668   7.937 -0.1798 -1.1992 -0.4696
47902SOL     OW52673   6.657   5.266   5.828  0.3207  0.0289  0.1127
47902SOL    HW152674   6.604   5.187   5.817  1.3728 -0.6952  0.0564
47902SOL    HW252675   6.678   5.268   5.921 -0.5865  0.8355  0.3037
47903SOL     OW52676  10.636  12.152   6.389  0.1719  0.2734  0.0293
47903SOL    HW152677  10.631  12.161   6.484  1.2816  0.8824  0.0519
47903SOL    HW252678  10.687  12.072   6.376 -2.0014 -1.1769 -0.1075
47904SOL     OW52679   9.269   0.019   4.715 -0.3793 -0.5549 -0.2523
47904SOL    HW152680   9.235  -0.066   4.686  0.3936 -1.0503  0.2576
47904SOL    HW252681   9.349  -0.003   4.763 -1.5548  0.2145  2.2198
47905SOL     OW52682   6.279   7.489  10.079 -0.2733  0.1286  0.1756
47905SOL    HW152683   6.323   7.574  10.077 -0.6002  0.3101  0.6692
47905SOL    HW252684   6.221   7.490  10.002  1.3463 -0.5385 -1.1106
47906SOL     OW52685   2.652   8.154   3.646 -0.0977 -0.0584  0.3918
47906SOL    HW152686   2.673   8.061   3.650  0.2681 -0.0247 -0.4486
47906SOL    HW252687   2.696   8.192   3.722  0.2206 -0.4930  0.4276
47907SOL     OW52688   3.384   9.825   2.914 -0.0912 -0.1565  0.0325
47907SOL    HW152689   3.397   9.890   2.983  1.8090 -2.7876  2.4275
47907SOL    HW252690   3.444   9.851   2.844  2.2609 -0.3510  1.8428
47908SOL     OW52691   4.263   9.398   9.247 -0.1997  0.5029  0.2153
47908SOL    HW152692   4.302   9.311   9.237 -0.5198  0.3668  0.1559
47908SOL    HW252693   4.196   9.402   9.180  1.5416  1.7815 -1.5763
47909SOL     OW52694   5.133   9.094   5.258  0.2704 -0.3854  0.1012
47909SOL    HW152695   5.130   9.188   5.279 -0.1884 -0.4254  0.2235
47909SOL    HW252696   5.060   9.081   5.198  0.5725 -0.5932 -0.2215
47910SOL     OW52697   9.002   6.232  11.702  0.4298  0.3340 -0.0451
47910SOL    HW152698   8.932   6.262  11.760  1.7944  2.2891  0.6997
47910SOL    HW252699   8.960   6.224  11.616 -1.4576 -1.8801  0.9657
47911SOL     OW52700   9.039   0.172   8.166 -0.3492 -0.6225  0.4255
47911SOL    HW152701   9.084   0.116   8.102 -0.2294 -2.0711  1.7153
47911SOL    HW252702   9.108   0.205   8.222 -0.5562 -0.0882  0.3792
47912SOL     OW52703   3.129   6.948   6.236 -0.4320 -0.4161 -0.1259
47912SOL    HW152704   3.089   6.928   6.320 -1.9373  0.3917 -0.6275
47912SOL    HW252705   3.101   6.877   6.178 -0.3204 -0.3759 -0.2311
47913SOL     OW52706   6.442  10.759   0.312 -0.1188  0.1143  0.6846
47913SOL    HW152707   6.437  10.739   0.219  3.1610  3.0270 -0.3484
47913SOL    HW252708   6.394  10.841   0.322  3.2126  2.3106  0.4016
47914SOL     OW52709  11.176   7.324   1.070  0.0726 -0.1511 -0.3069
47914SOL    HW152710  11.150   7.296   1.158  1.0289 -1.2099 -0.3401
47914SOL    HW252711  11.249   7.266   1.047 -0.3919 -0.1325 -1.9447
47915SOL     OW52712   3.199   6.534   7.609  0.1395 -0.1998 -0.2892
47915SOL    HW152713   3.289   6.546   7.637  0.3838 -0.8939 -0.7616
47915SOL    HW252714   3.147   6.547   7.688  0.6701 -0.0812  0.0408
47916SOL     OW52715   1.454   1.519  10.489  0.0567  0.0412  0.6664
47916SOL    HW152716   1.529   1.514  10.431 -0.2748  0.2428  0.2170
47916SOL    HW252717   1.478   1.585  10.554 -0.1386  0.8700 -0.0813
47917SOL     OW52718  10.600   3.837   3.372 -0.2057  0.0034  0.6630
47917SOL    HW152719  10.572   3.888   3.448 -0.0215  0.9872  0.0781
47917SOL    HW252720  10.548   3.871   3.299 -2.3727 -2.7208  0.7653
47918SOL     OW52721   6.563   3.335   0.390  0.2895  0.2254  0.2355
47918SOL    HW152722   6.549   3.256   0.441  0.3464 -0.4326 -0.7305
47918SOL    HW252723   6.631   3.311   0.327  0.7866  1.2519  0.3577
47919SOL     OW52724   6.779  11.444  11.448  0.2448 -0.7105  0.1991
47919SOL    HW152725   6.726  11.395  11.511 -0.2760 -1.4025 -0.7448
47919SOL    HW252726   6.715  11.493  11.396  0.5476 -1.1031 -0.5765
47920SOL     OW52727   8.666  11.202   6.757  0.1930 -0.0033 -0.0805
47920SOL    HW152728   8.574  11.226   6.767  0.4749  2.0314 -1.6600
47920SOL    HW252729   8.676  11.121   6.808 -2.0702  0.5836  1.4312
47921SOL     OW52730  11.759   5.743   1.142 -0.1684  0.0147 -0.5093
47921SOL    HW152731  11.807   5.725   1.061 -0.0798 -1.7249 -0.1047
47921SOL    HW252732  11.739   5.656   1.178  1.0845  0.7160  2.0946
47922SOL     OW52733   0.149   6.064   5.628  0.0325 -0.0129  0.0147
47922SOL    HW152734   0.240   6.073   5.656  0.0887 -2.0933  0.7078
47922SOL    HW252735   0.148   6.092   5.536  1.0505  1.3613  0.3926
47923SOL     OW52736  12.220   7.802  10.760  0.1293 -0.1708  0.1976
47923SOL    HW152737  12.291   7.866  10.755  0.6340 -0.8100 -2.2862
47923SOL    HW252738  12.265   7.717  10.762 -0.5237 -0.5696 -1.1437
47924SOL     OW52739   0.603   4.363   4.932  0.1736 -0.1287  0.4410
47924SOL    HW152740   0.583   4.387   4.842  1.0717  1.5769  0.6590
47924SOL    HW252741   0.601   4.267   4.932  0.9250 -0.1996 -1.5753
47925SOL     OW52742   5.749   8.159   0.043 -0.2770  0.2745 -0.3874
47925SOL    HW152743   5.766   8.251   0.021 -2.9790  0.6483 -1.2524
47925SOL    HW252744   5.658   8.157   0.071 -0.5295 -2.2646 -1.1195
47926SOL     OW52745   8.689   2.282   7.059  0.1503  0.1155 -0.0919
47926SOL    HW152746   8.744   2.344   7.108  0.7933 -2.3613  2.5615
47926SOL    HW252747   8.722   2.196   7.083 -2.3229 -1.3844 -1.6202
47927SOL     OW52748  11.573   1.739   8.524 -0.3158  0.1208  0.1345
47927SOL    HW152749  11.636   1.788   8.577 -0.2076 -0.5883  0.6845
47927SOL    HW252750  11.492   1.790   8.530 -0.8300 -0.8154  2.4880
47928SOL     OW52751   4.792   4.464   3.669  0.1819 -0.0949 -0.3285
47928SOL    HW152752   4.747   4.524   3.609  0.0452  0.1494  0.0179
47928SOL    HW252753   4.740   4.383   3.666  0.7274 -0.4281 -1.2883
47929SOL     OW52754   9.559   5.186   0.471  0.0562  0.2204 -0.1054
47929SOL    HW152755   9.525   5.223   0.390 -0.9931  0.3285  0.3717
47929SOL    HW252756   9.563   5.260   0.532  2.6152  0.5468 -0.5602
47930SOL     OW52757   5.344  11.916   2.762 -0.0439  0.4222 -0.3254
47930SOL    HW152758   5.385  11.940   2.846  0.3929  2.1380 -0.9670
47930SOL    HW252759   5.344  11.821   2.761  1.1084  0.3703  1.0844
47931SOL     OW52760   4.495   7.364   4.962 -0.1301  0.3220 -0.0521
47931SOL    HW152761   4.417   7.328   4.920 -0.0126  0.5468 -0.4662
47931SOL    HW252762   4.464   7.442   5.007 -0.3733 -0.2517  0.7930
47932SOL     OW52763   6.670   1.561   6.770 -0.1887  0.0112  0.1415
47932SOL    HW152764   6.686   1.603   6.854 -0.9986  0.3037  0.1552
47932SOL    HW252765   6.631   1.630   6.716 -3.5458 -1.2045  0.8057
47933SOL     OW52766   1.470   5.036  12.406  0.6963 -0.1029  0.0919
47933SOL    HW152767   1.488   5.088  12.485  0.5800 -1.1944  0.8592
47933SOL    HW252768   1.432   4.955  12.439 -1.5874  0.3475 -1.2289
47934SOL     OW52769   1.785   7.934   2.268 -0.1047 -0.1748 -0.1120
47934SOL    HW152770   1.820   8.022   2.279 -1.4628  0.1762  2.1032
47934SOL    HW252771   1.690   7.947   2.257 -0.1466 -1.2929 -1.3074
47935SOL     OW52772  11.183   9.381   4.504 -0.1196 -0.3233 -0.1072
47935SOL    HW152773  11.162   9.467   4.466 -0.7688  0.0085  0.9598
47935SOL    HW252774  11.174   9.320   4.431  0.3037  0.5139 -0.8698
47936SOL     OW52775   2.223   5.034   6.835  0.2981 -0.0298 -0.7955
47936SOL    HW152776   2.234   5.091   6.759 -2.5464  0.5774 -0.8736
47936SOL    HW252777   2.154   4.973   6.810  0.2524 -0.6932  0.8251
47937SOL     OW52778   8.551   7.896  11.214  0.3774  0.2156 -0.1900
47937SOL    HW152779   8.590   7.982  11.222  0.0017  0.1894  3.1465
47937SOL    HW252780   8.458   7.910  11.232  0.0013 -0.6647 -1.3411
47938SOL     OW52781  11.524   3.161   9.621  0.0039  0.0795  0.5144
47938SOL    HW152782  11.516   3.236   9.561 -0.4846  0.1518  0.6677
47938SOL    HW252783  11.458   3.099   9.590 -0.1747  0.0717  0.9130
47939SOL     OW52784   4.255  12.414   7.208 -0.7017  0.3615  0.2919
47939SOL    HW152785   4.167  12.432   7.175 -0.0005  0.2196 -1.8218
47939SOL    HW252786   4.242  12.349   7.277 -2.1864 -0.5398 -0.7685
47940SOL     OW52787   7.652   8.893   4.824 -0.5076 -0.5415 -0.2956
47940SOL    HW152788   7.676   8.965   4.882 -1.2358 -0.5151 -0.0093
47940SOL    HW252789   7.732   8.842   4.814 -0.7019 -1.4677  2.0590
47941SOL     OW52790   9.483   2.081   7.894 -0.1978  0.2948  0.4101
47941SOL    HW152791   9.401   2.125   7.871 -0.1794 -0.3120 -0.9245
47941SOL    HW252792   9.508   2.120   7.977 -0.8136  1.9284 -0.1191
47942SOL     OW52793   0.167   3.401  12.399 -0.0083  0.2528 -0.0334
47942SOL    HW152794   0.087   3.449  12.375  0.9917  1.2029 -1.7123
47942SOL    HW252795   0.161   3.390  12.493 -2.4888 -0.4038 -0.2032
47943SOL     OW52796   5.514   6.405  11.129  0.2456  0.2867  0.4118
47943SOL    HW152797   5.423   6.420  11.102  0.1194 -0.3460  0.4709
47943SOL    HW252798   5.507   6.368  11.217  0.5246 -0.3956  0.1559
47944SOL     OW52799   2.327   8.047   3.785 -0.0866  0.6432  0.1236
47944SOL    HW152800   2.411   8.046   3.738  0.1969  0.9280  0.6112
47944SOL    HW252801   2.320   8.137   3.818  0.4670  0.0642  1.9339
47945SOL     OW52802   6.194   4.229   6.227 -0.3108 -0.0149 -1.0024
47945SOL    HW152803   6.230   4.141   6.234 -0.7165 -0.0536  2.0425
47945SOL    HW252804   6.271   4.285   6.213  0.8676 -0.3816  2.7553
47946SOL     OW52805  10.295   8.443   5.934  0.0544  0.1197 -0.5418
47946SOL    HW152806  10.335   8.524   5.903 -1.5312  0.6972 -1.1498
47946SOL    HW252807  10.214   8.470   5.977 -0.7836 -1.1532 -1.2469
47947SOL     OW52808   3.156   3.435   6.531 -0.3522  0.0775 -0.4876
47947SOL    HW152809   3.162   3.492   6.608 -0.1837 -0.2943 -0.2251
47947SOL    HW252810   3.097   3.365   6.557 -0.8962  0.3477 -0.9553
47948SOL     OW52811   0.240   4.299   1.482 -0.0638  0.7202 -0.5333
47948SOL    HW152812   0.326   4.272   1.516 -0.5352  1.9335  1.7989
47948SOL    HW252813   0.177   4.258   1.542 -0.8978  3.7479  0.8467
47949SOL     OW52814  10.155  10.279   3.454  0.1676 -0.2073 -0.2782
47949SOL    HW152815  10.103  10.357   3.474  0.6571 -0.8044  4.6117
47949SOL    HW252816  10.094  10.220   3.410 -1.4525  1.3660 -0.2444
47950SOL     OW52817   1.208   7.222  11.683 -0.1533  0.2834 -0.8362
47950SOL    HW152818   1.275   7.287  11.702 -1.0750  0.4838  2.3054
47950SOL    HW252819   1.245   7.139  11.710 -1.3568  0.5112  1.8161
47951SOL     OW52820   1.944   6.648   4.146  0.2925 -0.1427  0.0975
47951SOL    HW152821   1.898   6.608   4.219  0.5107  1.7020  1.3340
47951SOL    HW252822   1.952   6.579   4.081 -1.1395 -1.4624  1.2529
47952SOL     OW52823  12.004   6.484   8.801 -0.2033  0.4064  0.7402
47952SOL    HW152824  11.916   6.521   8.799 -0.0123  0.9980  2.0780
47952SOL    HW252825  12.039   6.511   8.886 -0.1316 -3.0188  1.9542
47953SOL     OW52826   0.480   8.836   9.527 -0.6692 -0.0473 -0.0875
47953SOL    HW152827   0.449   8.871   9.443  0.3911 -1.2420 -1.0230
47953SOL    HW252828   0.534   8.760   9.503  2.3454  1.4433  1.4571
47954SOL     OW52829   4.324   4.028   9.829 -0.3418 -0.5529  0.5006
47954SOL    HW152830   4.278   3.953   9.866 -0.1623 -1.1222 -0.4122
47954SOL    HW252831   4.397   4.043   9.889  1.0154 -2.6044 -0.5233
47955SOL     OW52832   4.617  10.466  10.937  0.1735  0.1672  0.1473
47955SOL    HW152833   4.571  10.414  11.003  0.1332 -0.0380 -0.0459
47955SOL    HW252834   4.655  10.402  10.878  0.8394  0.3351  0.3935
47956SOL     OW52835   3.469   3.030   9.225  0.2796  0.5269  0.1954
47956SOL    HW152836   3.414   3.096   9.268 -1.1360  0.4081 -1.3467
47956SOL    HW252837   3.411   2.955   9.214  0.9851  0.1155 -0.7767
47957SOL     OW52838   0.801  10.717   0.618 -0.1018  0.4920  0.2113
47957SOL    HW152839   0.806  10.689   0.527  1.8721 -1.0729  0.7491
47957SOL    HW252840   0.763  10.642   0.664 -0.8636  1.1817  0.7411
47958SOL     OW52841   7.456   2.565  11.106 -0.0487  0.0151 -0.0684
47958SOL    HW152842   7.412   2.635  11.057 -1.3148 -0.3328  0.5273
47958SOL    HW252843   7.486   2.607  11.186 -0.6261 -0.0622  0.1950
47959SOL     OW52844  10.270   1.189  12.125  0.3231 -0.0093  1.1047
47959SOL    HW152845  10.261   1.275  12.165 -3.1722 -0.3851  1.4639
47959SOL    HW252846  10.258   1.205  12.031  0.9688  0.0261  1.0254
47960SOL     OW52847   4.472   9.463   3.712  0.5227 -0.0420  0.4333
47960SOL    HW152848   4.381   9.490   3.700 -0.6565 -3.5107  0.4953
47960SOL    HW252849   4.494   9.416   3.632  1.6641 -0.6979  1.1057
47961SOL     OW52850  10.183   1.725   8.022  0.2009  0.1781  0.5744
47961SOL    HW152851  10.139   1.790   7.968 -0.4523 -0.6460  0.0866
47961SOL    HW252852  10.276   1.736   8.003  0.2373  1.9011  1.5631
47962SOL     OW52853   5.791   8.895  11.582 -0.3210  0.2304 -0.0786
47962SOL    HW152854   5.804   8.805  11.553  0.3348  0.5415 -0.7845
47962SOL    HW252855   5.831   8.948  11.514  0.8484  1.0062  1.1568
47963SOL     OW52856   0.709   9.597   7.153  0.0860  0.3140 -0.2865
47963SOL    HW152857   0.701   9.578   7.059 -0.9912 -0.5491 -0.0293
47963SOL    HW252858   0.683   9.689   7.161  2.1881  1.0672 -1.0820
47964SOL     OW52859   5.502   4.445   3.140  0.6854  0.4885 -0.6039
47964SOL    HW152860   5.419   4.486   3.118  1.3927  2.5736  0.2932
47964SOL    HW252861   5.566   4.487   3.082  1.7025  2.0430  1.4922
47965SOL     OW52862   4.643   3.862  10.379  0.3341  0.2227  0.3241
47965SOL    HW152863   4.578   3.911  10.429 -0.5003 -0.4081 -0.1090
47965SOL    HW252864   4.717   3.852  10.438 -0.4313 -0.0777  1.2547
47966SOL     OW52865   8.018   0.405   5.527  0.0243  0.4476  0.0410
47966SOL    HW152866   7.998   0.342   5.596  3.5353  0.3748  1.1969
47966SOL    HW252867   8.085   0.362   5.474 -1.0774  1.3446 -2.2311
47967SOL     OW52868   5.297   5.243   6.302  0.4315  0.2811 -0.3813
47967SOL    HW152869   5.360   5.312   6.280  0.5749 -0.5575 -2.8383
47967SOL    HW252870   5.221   5.291   6.336  0.6227  1.6566 -1.7745
47968SOL     OW52871   3.820   3.481   6.365  0.0126  0.5327  0.0157
47968SOL    HW152872   3.854   3.406   6.315  0.1214  0.1356  0.6797
47968SOL    HW252873   3.733   3.497   6.327  0.4915  0.8707 -0.9675
47969SOL     OW52874   1.294   0.439   0.324  0.7698 -0.3104  0.0475
47969SOL    HW152875   1.263   0.526   0.299  2.0110 -0.0468 -0.6498
47969SOL    HW252876   1.252   0.422   0.408 -1.9998 -0.4080 -1.2516
47970SOL     OW52877   1.892   9.417   0.254  0.2848 -0.0338  0.2031
47970SOL    HW152878   1.878   9.322   0.244  0.7797 -0.2146  1.0572
47970SOL    HW252879   1.859   9.436   0.342 -0.7972  0.8055 -0.3549
47971SOL     OW52880   4.286   9.245   4.770  0.8058  0.1711 -0.1239
47971SOL    HW152881   4.252   9.251   4.681  2.0764  1.3125 -0.5549
47971SOL    HW252882   4.380   9.228   4.759  0.5723 -2.4174  1.0296
47972SOL     OW52883   9.745   4.817   3.407 -0.5876 -0.5317  0.4733
47972SOL    HW152884   9.691   4.815   3.487 -1.1219 -0.0969  0.1256
47972SOL    HW252885   9.703   4.881   3.351  1.7666  1.8566  1.2131
47973SOL     OW52886   3.739   0.027   8.368 -0.3238  0.0061  0.4351
47973SOL    HW152887   3.715   0.031   8.276 -2.0124 -1.6572  0.7341
47973SOL    HW252888   3.826   0.066   8.372 -0.6214  1.0159 -1.6885
47974SOL     OW52889   1.714   8.775   6.886  0.3446 -0.0348  0.1796
47974SOL    HW152890   1.737   8.837   6.816 -0.3584  0.5857  0.4941
47974SOL    HW252891   1.625   8.748   6.866 -0.2008  0.8527  1.3415
47975SOL     OW52892  10.098   0.235   2.780  0.3325  0.9175  0.5806
47975SOL    HW152893  10.152   0.169   2.823  0.2009  0.4103 -0.0109
47975SOL    HW252894  10.022   0.186   2.749  0.1946  1.3631  0.2140
47976SOL     OW52895  12.084   8.935   0.346  0.2463 -0.1993 -0.1545
47976SOL    HW152896  12.043   8.962   0.263 -0.8005 -0.7617  0.1545
47976SOL    HW252897  12.161   8.885   0.320  0.4283  0.3875 -0.7746
47977SOL     OW52898   3.167   3.427   3.401  0.6626  0.2245  0.5167
47977SOL    HW152899   3.106   3.361   3.367  1.5015 -0.1582 -0.2895
47977SOL    HW252900   3.249   3.410   3.354  0.6113  2.5162 -0.5206
47978SOL     OW52901   3.909   0.879   7.350 -0.1334 -0.0635 -0.2031
47978SOL    HW152902   3.854   0.808   7.384 -0.9090 -0.4325 -2.0705
47978SOL    HW252903   3.969   0.899   7.421 -3.4339  1.2023  2.4843
47979SOL     OW52904   2.860   5.806   7.887 -0.2588  0.4942 -0.3496
47979SOL    HW152905   2.807   5.760   7.952  1.1756 -0.8854 -0.1032
47979SOL    HW252906   2.869   5.744   7.815  2.5761 -0.1378  0.4226
47980SOL     OW52907   1.649   2.075   4.993  0.9373  0.0207  0.2907
47980SOL    HW152908   1.668   1.995   4.945 -0.6214  0.7479 -1.6612
47980SOL    HW252909   1.610   2.045   5.075  1.4321 -1.2131  0.0954
47981SOL     OW52910   3.549   3.794   5.684  0.7272 -0.0968 -0.1551
47981SOL    HW152911   3.613   3.857   5.652  0.9726 -1.2143 -2.0504
47981SOL    HW252912   3.464   3.832   5.661  0.7345  0.8474  1.3112
47982SOL     OW52913   0.391   6.271   7.730  0.1311  0.0317  0.8454
47982SOL    HW152914   0.461   6.210   7.756  0.8005 -0.1354 -1.1310
47982SOL    HW252915   0.311   6.229   7.760  0.7383 -0.7730  1.4036
47983SOL     OW52916   7.424   4.894   1.620 -0.0581  0.3183  0.3726
47983SOL    HW152917   7.507   4.903   1.667  0.3354 -3.0459  0.5747
47983SOL    HW252918   7.375   4.830   1.671 -2.6225  1.8151 -0.0502
47984SOL     OW52919  10.239  12.322   1.036  0.1442  0.4895  0.2789
47984SOL    HW152920  10.300  12.368   1.094 -0.1603  1.2897 -0.0274
47984SOL    HW252921  10.153  12.359   1.057 -0.2334 -0.5764  0.6546
47985SOL     OW52922   0.929   3.199   3.743  0.1170  0.5513  0.3411
47985SOL    HW152923   0.849   3.225   3.789  0.4862  2.1074  0.1841
47985SOL    HW252924   0.947   3.273   3.685  0.1089 -1.0102 -1.7506
47986SOL     OW52925   4.938  10.564   7.977 -0.4376  0.2447  0.7252
47986SOL    HW152926   4.879  10.583   8.050 -0.2284 -1.0284  1.2478
47986SOL    HW252927   4.907  10.620   7.906 -1.7177  0.2455  1.2660
47987SOL     OW52928   7.079   0.915   1.427  0.4375 -0.3272 -0.3725
47987SOL    HW152929   7.089   0.885   1.337  1.6898  1.6784 -0.9660
47987SOL    HW252930   7.059   1.008   1.419 -1.6466 -0.5382  1.4083
47988SOL     OW52931   5.113   8.083   2.177  0.4070 -0.0848 -0.2813
47988SOL    HW152932   5.186   8.085   2.115 -1.4045 -1.3985 -2.6335
47988SOL    HW252933   5.095   7.990   2.189 -1.7035  0.1895 -0.8765
47989SOL     OW52934  11.408  11.249  12.092  0.3046 -0.5785 -0.4080
47989SOL    HW152935  11.334  11.307  12.076  0.1358  0.2158  2.6587
47989SOL    HW252936  11.380  11.193  12.164  1.8295 -1.9719 -0.8236
47990SOL     OW52937   6.496   1.144   3.216 -0.1674 -0.3537 -0.1553
47990SOL    HW152938   6.469   1.212   3.155  0.6608 -0.7930 -1.0393
47990SOL    HW252939   6.452   1.065   3.186  0.0462 -0.5182 -0.0392
47991SOL     OW52940   8.969   3.892   9.694 -0.2540 -0.5196  0.1105
47991SOL    HW152941   8.962   3.916   9.602  2.2103  1.0309  0.2374
47991SOL    HW252942   9.030   3.956   9.731 -2.7661  0.2592  3.3554
47992SOL     OW52943   1.437   5.553   4.106 -0.0422 -0.5690 -0.2737
47992SOL    HW152944   1.392   5.616   4.050 -0.9331  0.7930  1.8205
47992SOL    HW252945   1.506   5.604   4.149  0.4846 -1.5021  0.0224
47993SOL     OW52946   0.873  10.299  11.528 -0.3647  0.8155  0.4837
47993SOL    HW152947   0.913  10.322  11.443  1.0227  1.1928  1.1972
47993SOL    HW252948   0.902  10.369  11.587 -1.8239  0.8935  1.1464
47994SOL     OW52949  12.407   0.302  10.746  0.3945 -0.0967  0.3832
47994SOL    HW152950  12.369   0.237  10.805  0.8748 -0.5989  0.1395
47994SOL    HW252951  12.439   0.371  10.804  0.2836 -0.2831  0.6675
47995SOL     OW52952   7.369  12.591   9.584 -0.0656  0.2145  0.0981
47995SOL    HW152953   7.429  12.595   9.658 -0.2837  2.3249  0.2129
47995SOL    HW252954   7.415  12.539   9.519  0.3955 -1.1485  1.4551
47996SOL     OW52955   2.277   3.547  12.427 -1.0415 -0.4233  0.2113
47996SOL    HW152956   2.230   3.513  12.351 -0.2694  0.3401 -0.6463
47996SOL    HW252957   2.224   3.621  12.457 -0.6869  0.1021 -0.4221
47997SOL     OW52958   3.062   4.585  11.018 -0.0750  0.3583 -0.4180
47997SOL    HW152959   3.081   4.632  10.937 -0.2136 -0.1808 -0.7657
47997SOL    HW252960   3.044   4.495  10.991 -1.6173  0.4961  0.0492
47998SOL     OW52961   1.785   3.160   1.727 -0.3083  0.5113  0.5507
47998SOL    HW152962   1.690   3.173   1.723 -0.2525  0.7315 -0.0429
47998SOL    HW252963   1.818   3.239   1.769 -0.3005  0.8256 -0.0457
47999SOL     OW52964   1.716   4.381   5.690 -0.5652  0.1801 -0.3577
47999SOL    HW152965   1.682   4.470   5.676  1.7213  1.2608  0.3912
47999SOL    HW252966   1.805   4.385   5.656  0.2304 -1.2628  1.4188
48000SOL     OW52967   3.597   0.568   3.276 -0.4543  0.2689 -0.0330
48000SOL    HW152968   3.631   0.650   3.313 -1.0254  0.3662  0.2743
48000SOL    HW252969   3.558   0.594   3.193 -0.7526  0.3282  0.1261
48001SOL     OW52970   6.288   8.991   5.651  0.0057 -0.1728 -0.2377
48001SOL    HW152971   6.247   9.018   5.733  1.1923  0.2296  0.2521
48001SOL    HW252972   6.345   9.064   5.628  0.5171 -0.7498 -0.8416
48002SOL     OW52973   3.119   1.736   9.045 -0.3683  0.5041 -0.0067
48002SOL    HW152974   3.027   1.752   9.026 -0.5286 -1.5471 -1.3125
48002SOL    HW252975   3.126   1.640   9.052  1.2213  0.7077  2.6856
48003SOL     OW52976   7.142   7.823   1.103 -0.2913  0.1631  0.3824
48003SOL    HW152977   7.084   7.898   1.092  1.0659  0.9838 -1.7487
48003SOL    HW252978   7.092   7.762   1.158 -2.2019  1.7770  0.5535
48004SOL     OW52979   6.132  11.128   7.990 -0.2158 -0.1168 -0.0062
48004SOL    HW152980   6.084  11.065   8.043 -1.8418  1.7075  0.8218
48004SOL    HW252981   6.089  11.126   7.904 -0.9456  0.5408  0.3269
48005SOL     OW52982   4.229  10.890   0.013 -0.4154 -0.5924  0.0741
48005SOL    HW152983   4.168  10.818   0.026 -1.6978  0.4185 -0.1276
48005SOL    HW252984   4.198  10.959   0.072  0.3839  0.0398 -0.2180
48006SOL     OW52985   3.042   1.102   9.679  0.1655 -0.1852 -0.1242
48006SOL    HW152986   2.967   1.140   9.633  0.6167 -0.0695 -0.7911
48006SOL    HW252987   3.083   1.045   9.613  0.7987 -0.0565  0.1516
48007SOL     OW52988  11.200   7.174  11.776 -0.6652 -0.2522  0.3685
48007SOL    HW152989  11.195   7.165  11.871  0.1600  0.5271  0.4896
48007SOL    HW252990  11.292   7.160  11.755 -1.0208 -1.5229 -0.4475
48008SOL     OW52991   7.942   7.350   0.595 -0.0668  0.2232  0.6473
48008SOL    HW152992   7.964   7.423   0.539 -0.0711 -0.2439  0.0257
48008SOL    HW252993   7.933   7.388   0.682 -0.6013  1.0473  0.2413
48009SOL     OW52994  12.412   0.176   5.077 -0.1238  0.6519 -0.2640
48009SOL    HW152995  12.481   0.242   5.092  0.5076  0.0767 -0.5733
48009SOL    HW252996  12.330   0.222   5.094  0.3524  1.2991  0.3059
48010SOL     OW52997   1.042   4.164   9.049 -0.0956 -0.0739  0.2458
48010SOL    HW152998   0.971   4.200   8.996 -0.1299  0.5491  0.6969
48010SOL    HW252999   0.999   4.114   9.118 -0.0330 -1.8780 -0.9504
48011SOL     OW53000   1.243   1.660   4.633 -0.0167 -0.0344 -0.0486
48011SOL    HW153001   1.200   1.606   4.699 -1.8067  1.7023  0.2914
48011SOL    HW253002   1.173   1.712   4.594  1.3529  0.7088 -1.6670
48012SOL     OW53003  10.026  12.173   1.969  0.2968  0.3101  0.3427
48012SOL    HW153004  10.056  12.103   2.028 -0.5964 -0.6855 -0.3467
48012SOL    HW253005  10.054  12.145   1.882 -1.1780  0.1410 -0.1067
48013SOL     OW53006   0.232   9.817  10.148  0.3307 -0.1196 -0.3446
48013SOL    HW153007   0.308   9.813  10.205  0.0498  0.3853  0.0730
48013SOL    HW253008   0.200   9.727  10.144 -0.1834 -0.0307  1.0450
48014SOL     OW53009   3.600   9.786   7.010  0.2618  0.0366 -0.0932
48014SOL    HW153010   3.635   9.870   6.980 -1.4607  0.6581 -0.4918
48014SOL    HW253011   3.528   9.768   6.950 -0.8301 -0.6012  1.3475
48015SOL     OW53012   2.898   1.953   7.825  0.1164 -0.6487 -0.4349
48015SOL    HW153013   2.990   1.980   7.835  0.0342  0.0012 -1.3152
48015SOL    HW253014   2.873   1.986   7.739 -1.2523  0.0880  0.2065
48016SOL     OW53015   7.967   6.607   9.037  0.0388 -0.3449 -0.4368
48016SOL    HW153016   7.901   6.544   9.066 -1.5980  1.4749  0.0226
48016SOL    HW253017   7.918   6.669   8.983  1.5185  0.6945 -0.6347
48017SOL     OW53018   4.415  10.345   6.741 -0.1102 -0.1201 -0.2539
48017SOL    HW153019   4.481  10.413   6.760 -1.2090  0.2887  2.6485
48017SOL    HW253020   4.452  10.296   6.668  2.5193  1.2485  0.0187
48018SOL     OW53021   7.438   6.187   8.201  0.3301 -1.3252  0.0114
48018SOL    HW153022   7.519   6.231   8.229 -2.6388  2.0932  4.4700
48018SOL    HW253023   7.394   6.252   8.146 -1.0726 -1.4625  0.9297
48019SOL     OW53024   5.561   9.386   4.103 -0.2072  0.2162 -0.5426
48019SOL    HW153025   5.643   9.428   4.132 -0.1064 -0.0116 -0.4969
48019SOL    HW253026   5.493   9.433   4.150  0.0444 -1.1642  1.2916
48020SOL     OW53027   9.459  12.457   2.464  0.5174  0.1411  0.0294
48020SOL    HW153028   9.482  12.389   2.527 -0.4332 -0.7769 -0.5917
48020SOL    HW253029   9.470  12.415   2.378 -0.7160  0.5534 -0.3424
48021SOL     OW53030   1.664   9.749   3.445 -0.1043 -0.1899  0.0869
48021SOL    HW153031   1.570   9.734   3.456  0.1911 -1.3976  1.3915
48021SOL    HW253032   1.699   9.663   3.421  1.0423 -0.5851  2.8051
48022SOL     OW53033   0.996   3.799   2.730  0.1291 -0.1051  0.4218
48022SOL    HW153034   1.013   3.842   2.646  0.0227 -0.9821 -0.0695
48022SOL    HW253035   0.933   3.855   2.774  1.6616  1.4124  0.7863
48023SOL     OW53036  11.592   6.409  10.318  0.0486 -0.4059 -0.1639
48023SOL    HW153037  11.658   6.477  10.301 -0.7784  0.7695  1.0508
48023SOL    HW253038  11.573   6.418  10.411  0.3476 -2.7612  0.1815
48024SOL     OW53039   4.436   0.971   2.549  0.4372  0.5440  0.3023
48024SOL    HW153040   4.443   1.048   2.493 -1.3529  0.8021  0.3796
48024SOL    HW253041   4.345   0.970   2.577  0.5066 -1.4348  0.5740
48025SOL     OW53042   2.172   8.364   4.748 -0.3922 -0.0331  0.1639
48025SOL    HW153043   2.114   8.292   4.724  0.6390 -0.3204 -1.6583
48025SOL    HW253044   2.249   8.352   4.693 -0.2505  2.5522 -0.3298
48026SOL     OW53045   1.429   5.934   2.756  0.7287  0.1749 -0.8503
48026SOL    HW153046   1.522   5.957   2.757  0.4611  1.3499 -0.8848
48026SOL    HW253047   1.426   5.843   2.784  1.8160  0.4026  0.0877
48027SOL     OW53048  12.547   7.824   1.739 -0.5107  0.0009  0.4411
48027SOL    HW153049  12.477   7.761   1.756  1.2588 -3.4813 -3.4475
48027SOL    HW253050  12.519   7.869   1.658  1.4351 -1.2329 -1.0022
48028SOL     OW53051   0.792   9.895  11.645 -0.3277  0.2448  0.2674
48028SOL    HW153052   0.836   9.930  11.722  1.9724  1.1635 -1.3697
48028SOL    HW253053   0.840   9.815  11.623 -1.4481 -0.4395  0.1899
48029SOL     OW53054   1.624   1.903  10.622  0.4568  0.1187 -0.2081
48029SOL    HW153055   1.641   1.837  10.555  1.3840  1.0622 -0.9447
48029SOL    HW253056   1.554   1.865  10.676 -1.2438 -0.1532 -2.4478
48030SOL     OW53057   0.367  12.131  12.348  0.1953  0.3717  0.5054
48030SOL    HW153058   0.278  12.157  12.370 -0.0550 -0.6584  0.7554
48030SOL    HW253059   0.414  12.133  12.432  0.0962 -0.2516  0.5820
48031SOL     OW53060  10.358   2.113   7.345 -0.2448 -0.4491  0.1990
48031SOL    HW153061  10.270   2.083   7.322 -0.4305 -0.4265  0.8523
48031SOL    HW253062  10.413   2.035   7.337  0.5444  0.2663 -4.1662
48032SOL     OW53063  10.256   9.258   6.977  0.4546  0.2762 -0.6537
48032SOL    HW153064  10.163   9.244   6.997  0.7040 -0.1879  0.1850
48032SOL    HW253065  10.303   9.202   7.038  1.2510 -1.3303 -2.6107
48033SOL     OW53066   5.234   7.468   5.739 -0.1853 -0.1056  0.0403
48033SOL    HW153067   5.143   7.485   5.763  0.2384 -1.4036  2.9068
48033SOL    HW253068   5.284   7.486   5.818  1.8544 -1.1339 -0.9355
48034SOL     OW53069   1.649   9.185  10.764  0.3844 -0.8815 -0.8396
48034SOL    HW153070   1.620   9.181  10.673  1.6699  0.3100 -1.3277
48034SOL    HW253071   1.669   9.277  10.779  1.2106 -1.2267  0.3266
48035SOL     OW53072   7.527   5.713   9.872  0.3893 -0.1182  0.0669
48035SOL    HW153073   7.434   5.701   9.853 -0.1376  2.3779  0.6767
48035SOL    HW253074   7.568   5.724   9.786 -0.3822  1.5632 -0.1213
48036SOL     OW53075   3.545   3.510   1.327  0.0867  0.6140 -0.2415
48036SOL    HW153076   3.626   3.561   1.323  0.8495 -0.5961 -0.7787
48036SOL    HW253077   3.510   3.512   1.238  0.3470 -0.1428 -0.3653
48037SOL     OW53078   3.557  12.273   7.586  0.4320 -0.6940  0.8272
48037SOL    HW153079   3.516  12.359   7.594  0.9563 -0.4594  1.0234
48037SOL    HW253080   3.644  12.284   7.625  0.3456 -1.4202  1.2445
48038SOL     OW53081   7.661  11.996   0.761 -0.3146 -0.8606  0.0735
48038SOL    HW153082   7.706  11.947   0.830 -0.6209 -3.9789 -1.7249
48038SOL    HW253083   7.573  11.957   0.757 -1.0819  0.8194 -0.6116
48039SOL     OW53084   7.460   2.269   9.046 -0.2530  0.3931  0.2124
48039SOL    HW153085   7.518   2.215   8.993 -0.4679  0.1242  0.2482
48039SOL    HW253086   7.398   2.207   9.085 -1.8874  0.8417 -1.4795
48040SOL     OW53087  10.616   6.899  11.660 -0.0412  0.3370 -0.5974
48040SOL    HW153088  10.671   6.839  11.709 -2.4070 -1.3854  0.1476
48040SOL    HW253089  10.527   6.873  11.682 -1.1894  2.2254 -2.5999
48041SOL     OW53090   4.377  10.313   3.103 -0.1186 -0.0071  0.5849
48041SOL    HW153091   4.376  10.258   3.025 -2.5445  1.8314 -0.8407
48041SOL    HW253092   4.316  10.270   3.163 -1.8698  0.9017 -0.4544
48042SOL     OW53093  12.023   0.226   9.543 -0.8704  0.0824 -0.0397
48042SOL    HW153094  12.039   0.305   9.595  0.5865  0.3591 -0.8434
48042SOL    HW253095  12.017   0.258   9.453 -1.5701 -0.5854 -0.2374
48043SOL     OW53096   5.475   7.721   9.149  0.3063  0.3825  0.2892
48043SOL    HW153097   5.466   7.626   9.150  0.1254  0.3819 -0.8436
48043SOL    HW253098   5.509   7.742   9.236  1.5790 -0.8416  0.1340
48044SOL     OW53099   1.857   1.318   0.485  0.0525  0.1602  0.0857
48044SOL    HW153100   1.933   1.259   0.484 -1.2274 -1.6200 -2.3148
48044SOL    HW253101   1.808   1.292   0.563 -0.1430 -1.5953 -0.5681
48045SOL     OW53102   3.833   3.115  12.240 -0.2268 -0.3003  0.7779
48045SOL    HW153103   3.769   3.154  12.299 -2.0198 -1.0277 -0.5929
48045SOL    HW253104   3.786   3.102  12.158  2.4468  1.7282 -1.2731
48046SOL     OW53105   5.995   0.215  11.521 -0.2189  0.2902  0.3876
48046SOL    HW153106   6.046   0.198  11.600  1.5819  1.0372 -0.5569
48046SOL    HW253107   5.915   0.257  11.552  0.2266  0.1087  1.8446
48047SOL     OW53108   5.593   3.410  12.553  0.7630  0.3261 -0.0417
48047SOL    HW153109   5.633   3.494  12.529 -1.9798  1.2746 -1.8272
48047SOL    HW253110   5.596   3.359  12.472  2.2858 -1.3437  0.9964
48048SOL     OW53111   8.088   2.301   7.087 -0.1534  0.0916  0.2535
48048SOL    HW153112   8.140   2.379   7.102  1.5623 -0.4881 -2.0600
48048SOL    HW253113   8.046   2.316   7.002  0.0966 -1.4300 -0.1707
48049SOL     OW53114   3.129   9.554   6.029  0.2976 -0.1036  0.6194
48049SOL    HW153115   3.204   9.570   6.087 -1.1348 -0.4909  2.7246
48049SOL    HW253116   3.056   9.541   6.089 -1.4164 -0.0132 -1.3503
48050SOL     OW53117   4.307   9.547   0.796  0.4793  0.0400 -0.0454
48050SOL    HW153118   4.338   9.581   0.712  2.5178  1.8173  1.3151
48050SOL    HW253119   4.283   9.625   0.846 -2.7650 -1.0655  0.3968
48051SOL     OW53120   4.039   0.662   7.575  0.0796 -0.8171 -0.1921
48051SOL    HW153121   4.066   0.570   7.572  0.0619 -0.9806  2.3721
48051SOL    HW253122   3.949   0.659   7.607  0.0374  0.0858 -0.2146
48052SOL     OW53123   2.721  10.954  11.553 -0.0738 -0.6576  0.0715
48052SOL    HW153124   2.680  11.030  11.512 -0.2931 -0.5432  0.4984
48052SOL    HW253125   2.722  10.887  11.484 -0.9890 -0.6679  0.0640
48053SOL     OW53126   3.819   9.370   8.125 -0.7362  0.2908 -0.0463
48053SOL    HW153127   3.822   9.450   8.073 -2.2630  0.2239 -0.2908
48053SOL    HW253128   3.729   9.365   8.157 -0.7631 -1.4889 -0.2877
48054SOL     OW53129   7.815   9.981   4.668  0.2380  0.3369  0.1239
48054SOL    HW153130   7.846   9.892   4.683 -0.6868 -0.1474 -0.7132
48054SOL    HW253131   7.757   9.974   4.593 -1.4329  1.2941  1.2485
48055SOL     OW53132   3.000   7.230  10.589  0.5963 -0.3706 -0.0209
48055SOL    HW153133   2.977   7.318  10.618  0.7386 -0.1384 -0.5953
48055SOL    HW253134   2.979   7.174  10.663 -1.2958 -0.1129 -0.3061
48056SOL     OW53135   1.047   6.769   1.780  0.0928 -0.4208  0.0185
48056SOL    HW153136   0.991   6.844   1.758 -0.2058 -1.1585 -1.8958
48056SOL    HW253137   1.136   6.804   1.775 -0.0056 -0.3456 -1.6489
48057SOL     OW53138   4.198   4.042   0.656 -0.2697  0.2887 -0.1924
48057SOL    HW153139   4.222   4.129   0.623  0.4813  0.6082  1.1289
48057SOL    HW253140   4.264   3.984   0.619 -0.7641  0.2550 -1.0681
48058SOL     OW53141  11.160   9.585   0.650  0.4511 -0.1219 -0.1471
48058SOL    HW153142  11.110   9.513   0.687  0.1093 -0.0309 -0.4225
48058SOL    HW253143  11.097   9.657   0.643  0.3392 -0.3062 -1.4361
48059SOL     OW53144   9.064   7.122   0.915 -0.1465 -0.1568 -0.1375
48059SOL    HW153145   8.978   7.102   0.953 -0.6114 -1.3123 -1.6458
48059SOL    HW253146   9.124   7.123   0.989 -1.1784 -1.1750  0.7540
48060SOL     OW53147   1.446   9.009   0.761 -0.0856  0.3120  0.0992
48060SOL    HW153148   1.506   8.943   0.726 -0.0131  0.5577 -0.2497
48060SOL    HW253149   1.504   9.075   0.800 -0.1803 -1.0535  2.8048
48061SOL     OW53150   3.101  11.704   2.724 -0.1974 -0.6096  0.4392
48061SOL    HW153151   3.146  11.695   2.639 -0.1658  0.2755  0.3574
48061SOL    HW253152   3.009  11.712   2.702  0.0406  2.7419  0.2330
48062SOL     OW53153  10.132   4.707   0.808 -0.4792 -0.1979  0.7078
48062SOL    HW153154  10.217   4.750   0.819 -0.5329  0.3693 -0.8665
48062SOL    HW253155  10.145   4.647   0.734 -1.0515 -1.2153  1.4060
48063SOL     OW53156   1.159   7.743  12.566  1.0069 -0.1253  0.0759
48063SOL    HW153157   1.216   7.666  12.554  0.5995 -0.5590  0.8775
48063SOL    HW253158   1.202   7.794  12.635 -0.3619 -1.2395  1.8020
48064SOL     OW53159   2.698  11.664   1.839  0.2488  0.1961 -0.1196
48064SOL    HW153160   2.674  11.581   1.798  1.7361 -0.0842 -0.4807
48064SOL    HW253161   2.617  11.695   1.879 -1.5760  0.8733 -3.8618
48065SOL     OW53162   4.846  10.444   7.682  0.3545 -0.1148  0.4572
48065SOL    HW153163   4.776  10.453   7.746  0.7511  0.9550  0.7737
48065SOL    HW253164   4.878  10.534   7.669  1.2644 -0.5055 -0.1211
48066SOL     OW53165   1.190   4.380   1.465 -0.0105 -0.2069  0.4438
48066SOL    HW153166   1.267   4.370   1.522 -0.9048 -0.5004  1.6334
48066SOL    HW253167   1.165   4.291   1.442 -0.0759 -0.1168  0.1645
48067SOL     OW53168   1.330  11.673   3.332 -0.2321 -0.3917 -0.4243
48067SOL    HW153169   1.324  11.641   3.423 -2.4493 -2.2473 -1.1178
48067SOL    HW253170   1.346  11.594   3.281  0.7165  0.6009 -1.7085
48068SOL     OW53171   4.417   8.233   0.268  0.2004 -0.4915  0.1044
48068SOL    HW153172   4.374   8.168   0.323 -1.0954  0.0435 -0.2376
48068SOL    HW253173   4.511   8.221   0.286 -0.1242 -0.9742  1.6993
48069SOL     OW53174   8.727   6.155   1.038  0.1873  0.2041 -0.2985
48069SOL    HW153175   8.768   6.069   1.033  0.9115  0.5999 -1.3278
48069SOL    HW253176   8.654   6.143   1.099  1.3123 -0.7098  0.9295
48070SOL     OW53177   2.053   5.937   4.980  0.0120 -0.2125 -0.1182
48070SOL    HW153178   1.968   5.962   4.945  0.1820 -0.1727 -0.5079
48070SOL    HW253179   2.108   6.015   4.967 -0.3051  0.3355  1.5688
48071SOL     OW53180   8.023   9.799   7.084 -0.0073  0.4621 -0.7331
48071SOL    HW153181   7.949   9.811   7.024 -0.5335  1.7283  0.1366
48071SOL    HW253182   8.081   9.739   7.037 -0.8577  0.6400 -2.0903
48072SOL     OW53183   7.877   7.938   7.926 -0.0231 -0.6764 -0.1356
48072SOL    HW153184   7.852   7.878   7.857 -0.0653  0.8603 -1.5238
48072SOL    HW253185   7.968   7.961   7.906  0.0318 -0.3790  0.4366
48073SOL     OW53186   9.396   9.611   1.226 -0.6276 -0.2153  0.4380
48073SOL    HW153187   9.320   9.608   1.284 -1.0391 -1.3773 -0.1241
48073SOL    HW253188   9.456   9.545   1.261 -0.8594 -0.8943 -0.3873
48074SOL     OW53189   8.938  10.733   6.961 -0.2944 -0.5425 -0.6224
48074SOL    HW153190   8.904  10.734   7.051 -0.7016 -0.8230 -0.7696
48074SOL    HW253191   8.868  10.692   6.910 -0.1022 -0.2978 -1.0844
48075SOL     OW53192   5.301   2.372   9.875  0.5615 -0.0816 -0.1327
48075SOL    HW153193   5.276   2.347   9.964  0.6719  0.8621  0.1810
48075SOL    HW253194   5.268   2.461   9.865 -0.4473 -0.5704 -1.4536
48076SOL     OW53195  10.661   7.067   3.645  0.6290 -0.1563 -0.4854
48076SOL    HW153196  10.663   7.162   3.655  2.3564 -0.0704 -1.2904
48076SOL    HW253197  10.634   7.034   3.731  0.7434  1.0323  0.0287
48077SOL     OW53198  12.021  11.414  12.568  0.0407  0.5473  0.1506
48077SOL    HW153199  11.941  11.391  12.519 -0.7875 -0.4691  1.8640
48077SOL    HW253200  11.989  11.437  12.655  1.4214  2.8002  0.1401
48078SOL     OW53201   1.489  10.452   1.539 -0.2724  0.3796  0.5518
48078SOL    HW153202   1.406  10.468   1.494 -1.1471  1.4232  2.4127
48078SOL    HW253203   1.554  10.449   1.468 -1.9040 -0.9524 -0.9990
48079SOL     OW53204   0.733  10.692   5.595  0.1023 -0.1599  0.9938
48079SOL    HW153205   0.778  10.618   5.555 -0.9128 -0.7542  0.9150
48079SOL    HW253206   0.800  10.735   5.649  1.2441  0.0867 -0.5495
48080SOL     OW53207   7.004   1.172   4.745 -0.5474  0.6578  0.0749
48080SOL    HW153208   7.003   1.140   4.836  1.5732 -1.4541 -0.5518
48080SOL    HW253209   6.911   1.179   4.722 -1.1417  0.8758  2.2614
48081SOL     OW53210   2.998   0.737   1.924 -0.2947  0.3924 -0.2956
48081SOL    HW153211   3.029   0.778   1.844 -2.1995  0.5254 -1.0229
48081SOL    HW253212   2.998   0.808   1.989  1.1052  0.3172 -0.1819
48082SOL     OW53213   0.061  11.421   4.855 -0.0242 -0.4321 -0.7322
48082SOL    HW153214  -0.011  11.368   4.889  0.0967  0.1653  0.5125
48082SOL    HW253215   0.140  11.373   4.881  0.0467 -0.8140 -1.6287
48083SOL     OW53216   9.793  10.077   2.416  0.1871 -0.2844  0.7012
48083SOL    HW153217   9.740  10.014   2.464  0.0913  1.0191  2.4142
48083SOL    HW253218   9.746  10.160   2.425  0.2992  0.0829 -1.4957
48084SOL     OW53219   8.397   5.245   8.789 -0.2178  0.0155  0.2044
48084SOL    HW153220   8.343   5.309   8.835 -0.5699 -1.8182  2.5720
48084SOL    HW253221   8.482   5.250   8.832 -0.3292 -1.2114  0.6334
48085SOL     OW53222   4.927   5.332   1.781 -0.3018  0.4110  0.3712
48085SOL    HW153223   4.886   5.308   1.698  0.4383  0.5808 -0.0563
48085SOL    HW253224   5.013   5.368   1.756 -0.0479  0.4154  1.2094
48086SOL     OW53225   9.800   4.142  10.968  0.8492  0.6149 -0.2998
48086SOL    HW153226   9.746   4.069  10.997  0.9857  0.4564 -0.4396
48086SOL    HW253227   9.746   4.220  10.985  0.2954  0.4121 -1.0803
48087SOL     OW53228  11.256   2.212   0.943  0.5292 -0.7094  0.3809
48087SOL    HW153229  11.203   2.132   0.938 -1.0961  0.3530 -0.4079
48087SOL    HW253230  11.201   2.274   0.991  1.9395 -0.1641  1.3586
48088SOL     OW53231   2.105  10.833   4.355  0.5035  0.4789 -0.0010
48088SOL    HW153232   2.086  10.760   4.296 -0.1137 -0.0086  0.7834
48088SOL    HW253233   2.120  10.792   4.440  1.1846  1.1893  0.2360
48089SOL     OW53234   7.318   7.633   4.793  0.1484 -1.3597 -0.1137
48089SOL    HW153235   7.275   7.699   4.738 -0.1206 -1.6372 -0.2461
48089SOL    HW253236   7.386   7.596   4.737  0.1458 -1.3564 -0.1191
48090SOL     OW53237   7.094   4.446   0.551  0.1778 -0.2135 -0.2042
48090SOL    HW153238   7.172   4.491   0.584  0.5680 -0.9056 -0.1708
48090SOL    HW253239   7.126   4.361   0.522 -0.6026 -0.5779 -0.0117
48091SOL     OW53240   6.878   5.565   8.236 -0.0577 -0.6560  0.2241
48091SOL    HW153241   6.813   5.497   8.217 -0.6982  0.4601 -1.8013
48091SOL    HW253242   6.825   5.640   8.265  0.0194  0.8697 -3.1332
48092SOL     OW53243   1.600   3.825   7.755  0.4274  0.0997 -0.2136
48092SOL    HW153244   1.525   3.854   7.704 -0.5393  1.6571  1.9333
48092SOL    HW253245   1.619   3.737   7.721 -0.3471  0.8734 -2.9099
48093SOL     OW53246   7.919   4.358   2.336  0.2104 -0.2217 -0.5014
48093SOL    HW153247   7.835   4.360   2.382 -0.3991 -0.7382 -1.5491
48093SOL    HW253248   7.913   4.428   2.272  0.1015 -0.9847 -1.3517
48094SOL     OW53249   4.349  10.786   3.611 -0.1293 -0.5750  0.9255
48094SOL    HW153250   4.435  10.819   3.586 -0.7208  0.0612 -0.3868
48094SOL    HW253251   4.351  10.693   3.589  0.2493 -0.5818  0.9877
48095SOL     OW53252   2.830   3.133   1.081 -0.3482 -0.6965  0.2153
48095SOL    HW153253   2.899   3.181   1.127  1.3143 -0.3623 -2.4079
48095SOL    HW253254   2.863   3.043   1.076  0.2807 -0.4121 -1.5746
48096SOL     OW53255   3.719   3.588   4.443  0.2926  0.1423  0.1023
48096SOL    HW153256   3.670   3.608   4.522  3.0254  0.7680  1.7823
48096SOL    HW253257   3.742   3.496   4.451  1.0882  0.3571  0.3661
48097SOL     OW53258   6.114   6.240   4.138  0.1565  0.0797 -0.2125
48097SOL    HW153259   6.159   6.315   4.100  2.4815 -0.2338  1.7022
48097SOL    HW253260   6.154   6.164   4.095  0.0108 -0.1591  0.0743
48098SOL     OW53261   4.177   1.397   2.999 -0.1035 -0.1499  0.5650
48098SOL    HW153262   4.192   1.342   2.923 -0.8995 -2.3857  1.9248
48098SOL    HW253263   4.091   1.437   2.983  0.4908  0.7946 -0.4382
48099SOL     OW53264   2.813  11.978   8.264  0.5776 -0.0483  0.5875
48099SOL    HW153265   2.904  11.959   8.240  0.4765  0.3884 -0.1656
48099SOL    HW253266   2.760  11.929   8.202  0.2576 -1.4873  1.9443
48100SOL     OW53267   2.085   9.245  11.308 -0.1513  0.1097 -0.2402
48100SOL    HW153268   2.106   9.273  11.219 -0.3791  1.9478  0.2317
48100SOL    HW253269   2.005   9.293  11.329 -0.6273 -1.0326  0.6335
48101SOL     OW53270   7.193   0.594   8.165  0.1344  0.1997 -0.1555
48101SOL    HW153271   7.161   0.542   8.092  0.6299 -0.7748  0.3064
48101SOL    HW253272   7.251   0.659   8.124  3.1160 -2.3905 -0.4687
48102SOL     OW53273  10.809   9.293  12.227 -0.0076  0.5609 -0.1645
48102SOL    HW153274  10.902   9.283  12.203  0.0401  1.1754 -0.2470
48102SOL    HW253275  10.762   9.240  12.162  0.2668  0.5002 -0.3154
48103SOL     OW53276   8.753   5.098  12.131 -0.4696  0.1983  0.3725
48103SOL    HW153277   8.781   5.179  12.088  1.4973  1.2989  3.3954
48103SOL    HW253278   8.717   5.045  12.060  0.5465  2.6611 -2.1989
48104SOL     OW53279   3.395  11.541  11.673 -0.7195 -0.0660 -0.3009
48104SOL    HW153280   3.324  11.533  11.610  0.6601 -1.1006 -1.7886
48104SOL    HW253281   3.475  11.527  11.622  0.4149 -2.5192  1.8710
48105SOL     OW53282   9.469   4.018   1.364 -0.5083  0.5650  0.2985
48105SOL    HW153283   9.430   3.976   1.288 -0.3212 -0.1380  0.5819
48105SOL    HW253284   9.467   4.111   1.344 -2.5784  0.5775  0.4317
48106SOL     OW53285   6.200  10.741   7.839 -0.2693  0.3484 -0.5390
48106SOL    HW153286   6.151  10.822   7.857 -0.3468  0.3042 -0.5524
48106SOL    HW253287   6.144  10.692   7.779  1.7053  2.3068 -4.3559
48107SOL     OW53288   5.993   6.797   2.400 -0.2715  0.2016  0.1574
48107SOL    HW153289   5.927   6.770   2.463 -0.0672 -1.0791 -0.1417
48107SOL    HW253290   6.055   6.724   2.398 -0.6154 -0.1065 -1.9686
48108SOL     OW53291   0.070   8.128   7.153 -0.0917  0.7253  0.1301
48108SOL    HW153292   0.058   8.221   7.136 -1.0045  0.3452 -1.5851
48108SOL    HW253293   0.060   8.087   7.067  1.6298 -0.8432  0.6285
48109SOL     OW53294   0.809  10.266  11.933  0.3058 -0.3310 -0.0734
48109SOL    HW153295   0.808  10.339  11.995 -0.0938 -0.0525 -0.4029
48109SOL    HW253296   0.718  10.256  11.907  0.3227 -1.1068  0.1475
48110SOL     OW53297   2.684   2.285   2.562 -0.2209  0.4696  0.2649
48110SOL    HW153298   2.667   2.360   2.504 -0.3903  0.8680  0.8140
48110SOL    HW253299   2.619   2.295   2.632 -1.6149 -1.3125 -0.6801
48111SOL     OW53300   5.026   9.039   6.373  0.1993 -0.3026  0.2437
48111SOL    HW153301   4.998   9.130   6.384  0.3537  0.3072 -3.1646
48111SOL    HW253302   4.970   9.005   6.303  0.4097 -2.7649  1.1526
48112SOL     OW53303   4.006   5.288   8.624 -0.3532  0.4185 -0.3243
48112SOL    HW153304   4.023   5.242   8.706  1.4414  0.0988 -0.8247
48112SOL    HW253305   3.912   5.280   8.611 -0.5286 -0.3832  1.1923
48113SOL     OW53306   8.313   1.282   0.525 -0.3208  0.1588 -0.1620
48113SOL    HW153307   8.226   1.321   0.510 -0.7075 -0.4946  0.3269
48113SOL    HW253308   8.370   1.357   0.539 -0.1131  0.8059 -3.6797
48114SOL     OW53309   5.309  10.650   4.115  0.2840  0.2559 -0.0520
48114SOL    HW153310   5.269  10.591   4.051 -3.6393  1.0821  1.3960
48114SOL    HW253311   5.330  10.593   4.189 -1.0111  0.2101  0.3035
48115SOL     OW53312   9.268   1.821   8.714 -0.1697 -0.2847  0.9265
48115SOL    HW153313   9.292   1.728   8.717  3.0378  0.3983  0.6102
48115SOL    HW253314   9.287   1.847   8.623 -2.6583  0.3774  0.5274
48116SOL     OW53315   3.162   9.328   7.205 -0.5731  0.6599 -0.7196
48116SOL    HW153316   3.198   9.382   7.275  2.2602  1.5276 -2.6515
48116SOL    HW253317   3.072   9.358   7.195 -0.8282  1.0437  1.9477
48117SOL     OW53318  10.685  11.065   6.076 -0.3802  0.1296  0.2310
48117SOL    HW153319  10.738  10.989   6.102  0.4343  1.2218  1.9011
48117SOL    HW253320  10.600  11.050   6.116 -0.3183 -0.0586  0.2928
48118SOL     OW53321   5.856   5.262   0.457 -0.4838  0.1312 -0.5095
48118SOL    HW153322   5.829   5.188   0.511  1.8196  1.1603  2.3244
48118SOL    HW253323   5.905   5.318   0.517  0.3558  2.5178 -3.2274
48119SOL     OW53324  11.711   2.018   3.534  0.2426 -0.5170  0.6517
48119SOL    HW153325  11.662   1.936   3.532 -0.3895 -0.2506  2.7600
48119SOL    HW253326  11.802   1.992   3.519 -0.1022 -1.4312  0.0459
48120SOL     OW53327  11.603   1.300  12.069  0.1886 -0.3515  0.1686
48120SOL    HW153328  11.615   1.215  12.110 -1.7921 -0.4547  0.6538
48120SOL    HW253329  11.541   1.284  11.998  1.5770  0.3000 -1.2614
48121SOL     OW53330   3.334   3.276   6.910  0.3342 -0.3770  0.5277
48121SOL    HW153331   3.414   3.306   6.952  0.3702  0.8276 -0.3723
48121SOL    HW253332   3.341   3.180   6.912  0.3971 -0.3896  3.1011
48122SOL     OW53333  12.596   7.666   3.356 -0.7779 -0.0349 -0.2770
48122SOL    HW153334  12.521   7.621   3.317 -0.7215  0.4763 -0.9936
48122SOL    HW253335  12.606   7.746   3.305 -0.1647  0.2386  0.2483
48123SOL     OW53336   7.708   6.769   4.814  0.1369  0.0949 -0.0707
48123SOL    HW153337   7.794   6.743   4.782 -0.5463 -1.5006 -0.6817
48123SOL    HW253338   7.647   6.706   4.775 -1.5825  2.3466 -1.2852
48124SOL     OW53339   2.865  10.554   5.984 -0.0636  0.4227 -0.3011
48124SOL    HW153340   2.949  10.600   5.975 -0.9114  2.2955  0.7934
48124SOL    HW253341   2.818  10.575   5.904 -0.6257  1.9211  0.3928
48125SOL     OW53342   1.720   6.226   6.245 -0.2587  0.5692 -0.0706
48125SOL    HW153343   1.685   6.256   6.329 -2.7166 -0.7880 -0.5092
48125SOL    HW253344   1.693   6.294   6.183  0.1494  0.7688 -0.0364
48126SOL     OW53345   0.699   6.040  10.751 -0.3217 -0.0524 -0.0751
48126SOL    HW153346   0.649   6.066  10.673 -1.5684 -1.3961  0.2319
48126SOL    HW253347   0.651   6.079  10.824  1.4876  2.1801  0.0189
48127SOL     OW53348  10.257   1.353   7.306 -0.0841 -0.6297  0.3848
48127SOL    HW153349  10.175   1.384   7.269  0.6916  0.7540 -0.2563
48127SOL    HW253350  10.294   1.295   7.240  0.5807  0.6530 -0.4037
48128SOL     OW53351   7.396   2.877   3.516  0.2824  0.1135  0.3187
48128SOL    HW153352   7.376   2.965   3.548 -0.8045  0.0922 -0.2601
48128SOL    HW253353   7.414   2.889   3.423 -1.1541 -0.4292 -0.0494
48129SOL     OW53354   4.607   0.489   7.939 -0.4269 -0.1289  0.4226
48129SOL    HW153355   4.572   0.558   7.883 -1.3223 -0.2045  0.8554
48129SOL    HW253356   4.698   0.513   7.953  0.4812 -1.1903 -2.7348
48130SOL     OW53357   7.627  11.969   8.179  0.1541 -0.8073  0.4462
48130SOL    HW153358   7.592  11.884   8.150 -0.4463 -1.2272  2.2884
48130SOL    HW253359   7.722  11.962   8.164  0.0032 -1.4057 -0.3253
48131SOL     OW53360   3.787   6.573   0.934  0.0987 -0.6237  0.0872
48131SOL    HW153361   3.866   6.556   0.882  0.0285 -0.3084 -0.1236
48131SOL    HW253362   3.796   6.515   1.010 -0.4226 -2.0583 -0.9073
48132SOL     OW53363   9.730   8.465  11.742  0.4453 -0.7143 -0.2371
48132SOL    HW153364   9.671   8.431  11.675 -0.0881 -0.4487  0.0962
48132SOL    HW253365   9.697   8.429  11.824  0.3053  0.0269  0.0382
48133SOL     OW53366   2.750   4.131  10.663 -0.1944 -0.1293  0.3489
48133SOL    HW153367   2.833   4.092  10.692 -0.2259  0.6635  1.5641
48133SOL    HW253368   2.705   4.155  10.744 -0.9098  0.9073 -0.3316
48134SOL     OW53369   6.305   4.216   8.714 -0.5122  0.1890  0.7556
48134SOL    HW153370   6.310   4.241   8.622 -2.0821 -1.3838  0.1789
48134SOL    HW253371   6.369   4.271   8.758  0.2934  0.9536 -1.2774
48135SOL     OW53372   0.372  10.946   4.413  0.4286 -0.7027  0.1026
48135SOL    HW153373   0.297  10.912   4.365 -0.8021  1.7712  0.1034
48135SOL    HW253374   0.347  10.939   4.505  0.4457 -0.4022  0.1301
48136SOL     OW53375   0.841   0.365   5.121  0.2680 -0.0013 -0.1066
48136SOL    HW153376   0.870   0.445   5.077  1.4436  0.2909  1.1315
48136SOL    HW253377   0.868   0.294   5.063  2.3264  0.3471  0.3623
48137SOL     OW53378  12.306   7.945   6.325 -0.9420  0.8183  0.1069
48137SOL    HW153379  12.334   7.893   6.251 -0.0870 -1.3345  1.8462
48137SOL    HW253380  12.385   7.991   6.354 -0.1646 -1.6096  2.1461
48138SOL     OW53381   6.094   0.554   1.528  0.0978  0.2935 -0.0589
48138SOL    HW153382   6.154   0.483   1.506  0.1778  0.6630 -1.0567
48138SOL    HW253383   6.111   0.572   1.621  1.1511  0.0328 -0.1916
48139SOL     OW53384   9.185   7.634   6.418 -0.2644 -0.1401 -0.2684
48139SOL    HW153385   9.098   7.673   6.426  0.3535  1.1744  0.3995
48139SOL    HW253386   9.177   7.573   6.345 -1.7865 -0.1678 -0.1124
48140SOL     OW53387  12.001   6.066  11.663 -0.0932 -0.3130  1.0478
48140SOL    HW153388  11.910   6.045  11.684 -0.1620 -0.1052  0.9673
48140SOL    HW253389  12.025   6.132  11.728 -0.7023  1.2623 -0.2481
48141SOL     OW53390   7.654   2.212  11.385 -0.0942 -0.5095  0.4126
48141SOL    HW153391   7.695   2.227  11.299  0.3259 -0.5905  0.6002
48141SOL    HW253392   7.561   2.200  11.364  0.2361 -2.2089 -0.2042
48142SOL     OW53393   7.245   1.218   0.354  0.1211  0.0504  0.1612
48142SOL    HW153394   7.225   1.311   0.362 -1.5821 -0.2271 -0.4942
48142SOL    HW253395   7.288   1.211   0.268 -0.5843  0.1231 -0.2076
48143SOL     OW53396   5.688  11.360   8.247 -0.0607  0.7674 -0.3440
48143SOL    HW153397   5.763  11.301   8.234  0.5134  1.2948  0.4476
48143SOL    HW253398   5.617  11.320   8.197  0.5466 -0.1452 -0.5054
48144SOL     OW53399   1.910   5.491   5.478  0.3418  0.5953 -0.2481
48144SOL    HW153400   1.976   5.440   5.431 -0.8972 -2.5216  1.1800
48144SOL    HW253401   1.837   5.498   5.416 -0.6580 -2.1219  0.4880
48145SOL     OW53402   4.502   0.199  11.636 -0.2201  0.4142  0.4480
48145SOL    HW153403   4.409   0.205  11.659 -0.4257 -1.6466  0.3088
48145SOL    HW253404   4.541   0.151  11.709  0.7626  1.2513  0.4993
48146SOL     OW53405   9.875   1.719   1.124  0.1033 -0.8266  0.2353
48146SOL    HW153406   9.935   1.739   1.053 -1.1310  1.7394 -0.1899
48146SOL    HW253407   9.802   1.673   1.082  0.2066 -0.9255  0.1644
48147SOL     OW53408   6.619  11.988  11.812  0.0805 -0.7409  0.1306
48147SOL    HW153409   6.698  11.950  11.850  0.0767 -0.2615  0.6366
48147SOL    HW253410   6.642  12.080  11.798 -0.6522 -0.4039  1.0596
48148SOL     OW53411   9.090   2.360  10.347 -0.0889  0.9656  0.5240
48148SOL    HW153412   9.152   2.433  10.345  0.8846  0.1654 -0.0713
48148SOL    HW253413   9.043   2.370  10.429 -1.3400  3.3348 -0.3995
48149SOL     OW53414   0.848   8.631   7.051  0.2508  0.0163 -0.2891
48149SOL    HW153415   0.792   8.667   7.120  0.5841 -0.0617  0.0211
48149SOL    HW253416   0.831   8.537   7.053 -0.7269  0.1529 -1.1930
48150SOL     OW53417   1.250  11.177   0.754 -0.3386  0.1834  0.3807
48150SOL    HW153418   1.235  11.087   0.727 -0.7699  1.0222 -2.4448
48150SOL    HW253419   1.182  11.228   0.710  0.4916  2.0149  1.0989
48151SOL     OW53420   2.798   7.248   8.315  0.0281 -0.4008  1.0595
48151SOL    HW153421   2.794   7.179   8.381 -1.8855 -0.8650  0.5299
48151SOL    HW253422   2.886   7.241   8.278  0.2137 -1.8990  1.7057
48152SOL     OW53423   9.632   1.092  10.730 -0.0429  0.1232  0.0996
48152SOL    HW153424   9.725   1.091  10.707  0.0475  0.2492  0.4508
48152SOL    HW253425   9.597   1.168  10.683  0.3527  0.9895  1.1576
48153SOL     OW53426   0.206   0.335   7.951 -0.6458  0.3709 -0.0307
48153SOL    HW153427   0.139   0.402   7.965 -2.2707 -0.8482 -1.5067
48153SOL    HW253428   0.158   0.261   7.913  1.0127 -1.7766  1.8250
48154SOL     OW53429  11.021   4.512  12.245  0.8154  0.4900  0.0429
48154SOL    HW153430  11.044   4.565  12.169  1.0971 -0.7113 -0.7338
48154SOL    HW253431  11.105   4.497  12.289  0.5601  1.7775  1.0087
48155SOL     OW53432   5.831   5.700  12.080 -0.2874 -0.1828 -0.3310
48155SOL    HW153433   5.915   5.742  12.064 -0.3492  0.5699  1.1805
48155SOL    HW253434   5.831   5.624  12.023  2.1790 -1.2097  0.9028
48156SOL     OW53435   5.975   6.397   5.319  0.3750  0.1804  0.0426
48156SOL    HW153436   6.057   6.442   5.339  0.6350 -0.1066 -0.3615
48156SOL    HW253437   5.991   6.306   5.345 -0.1920  0.3400  0.9804
48157SOL     OW53438  10.707   9.496  10.937 -0.0780  0.4373  0.6222
48157SOL    HW153439  10.729   9.574  10.987 -1.4831  0.8789  0.5913
48157SOL    HW253440  10.680   9.529  10.851 -1.7926  0.0298  0.9820
48158SOL     OW53441   3.110   0.931   9.961  0.3311  0.1006  0.2709
48158SOL    HW153442   3.091   0.971  10.046 -2.0732 -0.0802 -0.1292
48158SOL    HW253443   3.055   0.979   9.899  0.4121 -1.1885 -0.8368
48159SOL     OW53444   2.286   7.524   9.499  0.2420 -0.5540 -0.3814
48159SOL    HW153445   2.192   7.538   9.490  0.1110 -1.4775 -0.4785
48159SOL    HW253446   2.325   7.590   9.440 -0.3093  0.2330  0.1140
48160SOL     OW53447   1.124   5.052   5.418  0.2580 -0.2948  0.0606
48160SOL    HW153448   1.079   5.069   5.336 -1.4378  0.0659  1.0118
48160SOL    HW253449   1.106   5.129   5.472  0.7596 -0.8095  1.0012
48161SOL     OW53450   6.988   8.047   1.103 -0.4407  0.2990  0.3158
48161SOL    HW153451   7.022   8.124   1.148 -1.3395  0.1004  1.3621
48161SOL    HW253452   6.953   8.082   1.020  1.7011  0.5852 -0.5256
48162SOL     OW53453   6.202   1.942   2.845 -0.2806  0.1012  0.2831
48162SOL    HW153454   6.226   1.857   2.883 -0.6119  0.5828  1.6477
48162SOL    HW253455   6.122   1.924   2.796  1.9140 -1.2468 -3.2277
48163SOL     OW53456   6.090   1.777   1.914 -0.0136 -0.1529 -0.0660
48163SOL    HW153457   6.080   1.847   1.849  1.4234  1.0696  0.9614
48163SOL    HW253458   6.057   1.699   1.870  2.6010  0.2142 -3.0351
48164SOL     OW53459  10.701   0.611   7.290  0.2188  0.4706  0.1503
48164SOL    HW153460  10.621   0.567   7.319  0.3756 -0.5773 -0.9490
48164SOL    HW253461  10.765   0.541   7.280  0.4468  0.8988 -1.7083
48165SOL     OW53462   9.151   3.595  10.955 -0.2575  0.0315  0.1921
48165SOL    HW153463   9.227   3.543  10.928  0.0867  0.8010 -0.3876
48165SOL    HW253464   9.109   3.619  10.872 -1.0815 -0.3104  0.5076
48166SOL     OW53465   9.946   0.838   1.502 -0.1034 -0.1166  0.3191
48166SOL    HW153466   9.895   0.764   1.470  0.7254 -1.5751  2.1480
48166SOL    HW253467   9.909   0.857   1.588 -0.2582  1.5897 -0.0924
48167SOL     OW53468   9.302   5.224   2.779 -0.0703  0.4787 -0.1992
48167SOL    HW153469   9.207   5.215   2.765 -0.0008  0.9190 -1.0479
48167SOL    HW253470   9.336   5.251   2.693  1.1307 -1.8637 -0.5392
48168SOL     OW53471  12.109  10.389  12.246 -0.4897  0.2485 -0.0736
48168SOL    HW153472  12.202  10.406  12.233 -0.0381 -1.8617  0.1408
48168SOL    HW253473  12.070  10.476  12.253  1.8210  1.2219  2.5316
48169SOL     OW53474  12.496   4.232   6.316 -0.0122 -0.1202 -0.2055
48169SOL    HW153475  12.464   4.160   6.262 -0.2705 -0.8005  0.8361
48169SOL    HW253476  12.583   4.204   6.344  0.8501  0.9735 -1.6129
48170SOL     OW53477   7.656   4.136   1.138 -0.4935  0.3134  0.3274
48170SOL    HW153478   7.683   4.188   1.214 -0.7795 -0.2629  0.8302
48170SOL    HW253479   7.567   4.109   1.157 -0.2386 -0.6430  0.2375
48171SOL     OW53480   6.330   4.908   8.777  0.1651  0.2049  0.8078
48171SOL    HW153481   6.239   4.884   8.787  0.6314 -1.0053  2.5657
48171SOL    HW253482   6.338   4.994   8.819 -0.0249 -0.0295  1.3254
48172SOL     OW53483  10.243   7.070   6.210  0.2352 -0.3006 -0.4571
48172SOL    HW153484  10.291   7.011   6.153  1.2214  0.7891 -0.7741
48172SOL    HW253485  10.270   7.046   6.299  2.1316  0.8768 -0.6524
48173SOL     OW53486   4.981  10.832  12.590 -0.0498 -0.0057 -0.0082
48173SOL    HW153487   4.937  10.870  12.514  0.4218 -0.4871 -0.5342
48173SOL    HW253488   5.011  10.746  12.559  0.4947 -0.0371  0.6002
48174SOL     OW53489   2.500   0.487   8.480  0.3159 -0.0235 -0.0504
48174SOL    HW153490   2.435   0.546   8.516  0.8038  2.0071 -2.2482
48174SOL    HW253491   2.573   0.544   8.455  0.5226 -1.3917 -2.9182
48175SOL     OW53492   9.640   2.120   7.167 -0.1557 -0.2669  0.4110
48175SOL    HW153493   9.601   2.167   7.241  1.4360  0.9669  0.5035
48175SOL    HW253494   9.593   2.152   7.091 -1.6083 -1.3279  0.8119
48176SOL     OW53495   6.965   6.127  10.714  0.1262  0.2427  0.5286
48176SOL    HW153496   7.052   6.160  10.692 -0.1262 -0.4471 -1.6902
48176SOL    HW253497   6.936   6.184  10.785  2.6777 -0.0262  1.9094
48177SOL     OW53498   6.113  11.704   2.623 -0.0755  0.5064 -0.0451
48177SOL    HW153499   6.186  11.762   2.601  0.1613 -0.2091 -1.2403
48177SOL    HW253500   6.100  11.650   2.544  0.1176 -1.4857  1.2189
48178SOL     OW53501   4.749   9.770  10.333  0.5178 -0.4719  0.3981
48178SOL    HW153502   4.780   9.686  10.298  2.1340 -0.0781  0.7895
48178SOL    HW253503   4.819   9.831  10.310 -0.6819  0.8023  0.0380
48179SOL     OW53504  10.493   7.993   6.678  0.3668 -0.3085 -0.1975
48179SOL    HW153505  10.565   7.980   6.740  0.5961  1.1410 -0.1322
48179SOL    HW253506  10.534   7.989   6.592  0.7230  1.4910 -0.1378
48180SOL     OW53507  11.760   6.614   8.851  0.1013  0.1539 -0.4653
48180SOL    HW153508  11.674   6.577   8.869  0.2622 -2.2857 -3.7645
48180SOL    HW253509  11.742   6.702   8.817 -0.9964  0.0920 -0.0860
48181SOL     OW53510   7.045   6.104   3.865  0.1076 -0.5001 -0.5696
48181SOL    HW153511   7.074   6.194   3.856  1.7382 -0.9564 -0.2032
48181SOL    HW253512   6.950   6.110   3.875  0.0818  1.0915 -1.5394
48182SOL     OW53513  11.179  11.023   2.517  0.0316 -0.2278 -0.2863
48182SOL    HW153514  11.112  11.048   2.581  0.3278  0.3081 -0.1820
48182SOL    HW253515  11.223  11.104   2.495 -0.7772 -0.2155 -2.0273
48183SOL     OW53516   9.211   6.215   9.853  0.2365 -0.4908 -0.4083
48183SOL    HW153517   9.227   6.251   9.766 -0.1882  0.1318 -0.2347
48183SOL    HW253518   9.199   6.121   9.839  0.1058 -0.3813 -1.0288
48184SOL     OW53519   4.908   9.066   5.096 -0.1173 -0.1762  0.2256
48184SOL    HW153520   4.902   9.044   5.003  3.0212 -0.0191 -0.1406
48184SOL    HW253521   4.836   9.127   5.112 -1.0224 -0.5968 -1.9728
48185SOL     OW53522   2.100   2.253   8.472  0.2525 -0.3177 -0.1237
48185SOL    HW153523   2.120   2.161   8.491  0.5164 -0.0896  0.7450
48185SOL    HW253524   2.004   2.256   8.471  0.2236 -0.4041  0.9385
48186SOL     OW53525   4.761   9.293   3.284  0.1180 -0.3291  0.8195
48186SOL    HW153526   4.752   9.376   3.236  1.9651 -0.7563 -0.3358
48186SOL    HW253527   4.832   9.309   3.346  1.6683 -1.5399 -0.5893
48187SOL     OW53528   5.494  11.838   6.285 -0.3654  0.2818 -0.2467
48187SOL    HW153529   5.426  11.820   6.221 -0.7227  0.3976  0.0972
48187SOL    HW253530   5.507  11.933   6.280 -1.3935  0.4937  0.8430
48188SOL     OW53531  12.277   0.790   2.497 -0.0512  0.8100  0.0701
48188SOL    HW153532  12.220   0.862   2.527 -0.6068  0.5401 -0.3130
48188SOL    HW253533  12.362   0.810   2.535 -0.3374  1.3680  0.4443
48189SOL     OW53534   2.462   5.143   2.713  0.6177  0.4370 -0.0427
48189SOL    HW153535   2.398   5.087   2.757  1.7269  0.4410  1.6624
48189SOL    HW253536   2.514   5.083   2.660 -0.3554  0.3503 -0.9338
48190SOL     OW53537  11.711   3.243   9.252  0.3528  0.1725  0.2610
48190SOL    HW153538  11.749   3.330   9.263  0.6763 -0.1560  2.0751
48190SOL    HW253539  11.785   3.183   9.261  0.1999 -0.3007 -1.3908
48191SOL     OW53540   8.756  10.643   8.454  0.0932 -0.0373  0.2826
48191SOL    HW153541   8.757  10.552   8.422  1.0400  1.3733 -4.4988
48191SOL    HW253542   8.663  10.666   8.456 -0.2147 -1.1598  2.2065
48192SOL     OW53543  10.121   2.126   0.262 -0.2208  0.5319  0.5994
48192SOL    HW153544  10.199   2.080   0.232 -0.5465  0.4055 -0.0748
48192SOL    HW253545  10.055   2.058   0.272 -0.5153  0.7575  0.2382
48193SOL     OW53546   8.419   3.769   2.331 -0.3148  0.4419  0.4140
48193SOL    HW153547   8.461   3.738   2.250 -0.4196  0.8041  0.2217
48193SOL    HW253548   8.378   3.691   2.367  1.8495 -0.3181  1.4450
48194SOL     OW53549   9.901  11.523   3.360 -0.2898  0.5020  0.0839
48194SOL    HW153550   9.995  11.534   3.345 -0.4822  0.7928 -0.9457
48194SOL    HW253551   9.869  11.480   3.281 -1.0164  0.3416  0.4619
48195SOL     OW53552   9.824   6.876  11.912  0.2444  0.7402 -0.4851
48195SOL    HW153553   9.884   6.936  11.957  0.9951  1.0665 -1.8794
48195SOL    HW253554   9.850   6.880  11.820  0.2059 -1.6121 -0.6406
48196SOL     OW53555   1.105   4.427   8.268  0.0730 -0.0924 -0.2433
48196SOL    HW153556   1.115   4.455   8.359  1.0344 -1.0548 -0.0407
48196SOL    HW253557   1.192   4.399   8.242 -0.2039  0.1135 -1.4540
48197SOL     OW53558   8.146   4.554   6.570 -0.5856 -0.3068 -0.1865
48197SOL    HW153559   8.186   4.638   6.595  0.5999 -0.6454 -0.8687
48197SOL    HW253560   8.218   4.492   6.574 -1.0048 -0.9094 -1.6428
48198SOL     OW53561   6.032   0.703   4.756  0.3033  0.4058 -0.5951
48198SOL    HW153562   6.024   0.792   4.720  0.0005  0.5409 -0.2018
48198SOL    HW253563   5.960   0.697   4.819  0.4925 -0.0260 -0.4214
48199SOL     OW53564   7.776   8.719  10.275  0.0950  0.0344 -0.2948
48199SOL    HW153565   7.765   8.708  10.369  0.5152  1.9517  0.0358
48199SOL    HW253566   7.805   8.810  10.265  1.1406 -0.4505 -2.1946
48200SOL     OW53567  11.934   8.054   8.635 -0.2253 -0.4049  0.2725
48200SOL    HW153568  11.931   8.124   8.569 -0.3115  0.5817  1.2993
48200SOL    HW253569  11.849   8.057   8.677  0.5443  0.4170  1.8547
48201SOL     OW53570  10.143   8.251   4.444  0.3914 -0.3335 -0.7455
48201SOL    HW153571  10.181   8.327   4.399  1.1099 -0.1834  0.0784
48201SOL    HW253572  10.063   8.286   4.485  0.3058 -0.2078 -1.0199
48202SOL     OW53573   0.000   0.622   6.108 -0.7176  0.3576  0.3368
48202SOL    HW153574   0.024   0.619   6.016  1.2819 -1.2762  0.8288
48202SOL    HW253575  -0.065   0.692   6.114  0.2363  1.5562 -2.0390
48203SOL     OW53576  10.299   5.037   3.422  0.2661  0.1972 -0.3120
48203SOL    HW153577  10.324   5.035   3.514  0.0440 -0.4264 -0.2589
48203SOL    HW253578  10.204   5.049   3.423 -0.0933 -2.1230 -0.3706
48204SOL     OW53579   0.355   1.540   2.129  0.1009  0.0772  0.2398
48204SOL    HW153580   0.276   1.513   2.082  0.8250 -1.2494 -0.2786
48204SOL    HW253581   0.417   1.467   2.117  1.2926  0.9290  0.9054
48205SOL     OW53582   2.283   2.997  11.408 -0.2549  0.6150 -0.0921
48205SOL    HW153583   2.259   3.090  11.401  0.7250  0.8689 -0.3075
48205SOL    HW253584   2.365   2.998  11.458  0.6690  0.0312 -1.5142
48206SOL     OW53585   0.944  11.138   5.797 -0.0686 -0.0710  0.4236
48206SOL    HW153586   1.000  11.083   5.852 -0.4918 -0.8120  0.1395
48206SOL    HW253587   0.968  11.115   5.707  0.4837  0.9871  0.2869
48207SOL     OW53588   1.259   4.939  12.084  0.0295  0.0866 -0.3339
48207SOL    HW153589   1.225   4.852  12.063 -0.9354  0.2611  0.4089
48207SOL    HW253590   1.317   4.960  12.011  0.2406 -1.1555 -0.5450
48208SOL     OW53591   8.636   1.470   5.524  0.4805 -0.1326  0.3449
48208SOL    HW153592   8.696   1.432   5.461  1.8465  4.2012 -1.3347
48208SOL    HW253593   8.578   1.525   5.472  0.1430  1.8086  2.5992
48209SOL     OW53594   1.424   4.166   4.875  0.1454 -0.1010 -0.4152
48209SOL    HW153595   1.385   4.149   4.789  1.6936  0.2717 -1.2252
48209SOL    HW253596   1.491   4.098   4.884  1.1528  0.8930 -0.2785
48210SOL     OW53597  12.233   3.852  10.104 -0.2248  0.0602 -0.1868
48210SOL    HW153598  12.168   3.888  10.043  0.9217  0.0822 -1.4378
48210SOL    HW253599  12.318   3.873  10.065  0.5244 -1.8670  0.2554
48211SOL     OW53600  12.089   3.084   0.465 -0.4845 -0.2597 -0.0262
48211SOL    HW153601  12.177   3.083   0.428 -0.7416 -1.9978 -0.6820
48211SOL    HW253602  12.101   3.118   0.554  1.3243 -3.0633  0.9225
48212SOL     OW53603   4.377   3.984   4.199  0.0938  0.1556  0.2036
48212SOL    HW153604   4.388   3.966   4.293  1.1909  0.0029  0.0574
48212SOL    HW253605   4.466   3.989   4.165 -0.2776  1.0911 -0.6757
48213SOL     OW53606   1.606   6.283   6.485 -0.8877 -0.5336 -0.2891
48213SOL    HW153607   1.519   6.316   6.509  0.3258  2.3629  0.4867
48213SOL    HW253608   1.653   6.275   6.568  0.3222  0.2524 -0.8714
48214SOL     OW53609   3.152  12.483   3.046 -0.0764 -0.1956 -0.0028
48214SOL    HW153610   3.066  12.491   3.004 -1.2753  0.1628  2.3811
48214SOL    HW253611   3.213  12.520   2.982 -1.4733 -1.5194 -2.2776
48215SOL     OW53612   3.292   1.427   3.911 -0.9768 -0.3181 -0.3253
48215SOL    HW153613   3.292   1.337   3.880 -0.4187 -0.3868 -0.1344
48215SOL    HW253614   3.376   1.437   3.955 -2.1187 -0.5449  2.0910
48216SOL     OW53615   9.378   9.948  12.330  0.4329  0.0105  0.5091
48216SOL    HW153616   9.362  10.021  12.391 -0.7323  1.1969 -1.1316
48216SOL    HW253617   9.338   9.872  12.372 -0.4180  0.8154  1.1922
48217SOL     OW53618   9.965  11.558   5.860  0.3424  0.4329  0.0815
48217SOL    HW153619  10.014  11.559   5.942  0.1747 -0.6107  0.2078
48217SOL    HW253620   9.873  11.550   5.887  0.4469 -3.1058 -0.1834
48218SOL     OW53621   6.776   1.332   4.337 -0.5923  0.1384 -0.1947
48218SOL    HW153622   6.685   1.361   4.344 -1.2395 -2.0200  1.8907
48218SOL    HW253623   6.824   1.390   4.396 -0.7600  0.6941 -0.5921
48219SOL     OW53624   7.047   6.761   0.270  0.4091 -0.2569 -0.1433
48219SOL    HW153625   7.105   6.771   0.345 -1.8487 -0.9835  1.7945
48219SOL    HW253626   6.998   6.843   0.266  0.8172 -0.0355 -1.1730
48220SOL     OW53627   8.640   3.548   5.573 -0.1262  0.5038  0.3302
48220SOL    HW153628   8.647   3.551   5.668  0.1124  1.6161  0.2874
48220SOL    HW253629   8.633   3.639   5.546  1.0829  0.2925 -0.8165
48221SOL     OW53630   3.550  12.403   6.798  0.2386 -0.5932  0.0918
48221SOL    HW153631   3.610  12.455   6.745 -0.4720 -0.1218 -0.2787
48221SOL    HW253632   3.507  12.345   6.735 -0.1928 -0.4357  0.2355
48222SOL     OW53633  11.151   5.556  12.553 -0.0761 -0.0218  0.1328
48222SOL    HW153634  11.132   5.522  12.640  0.0914  0.7785  0.4974
48222SOL    HW253635  11.241   5.587  12.559 -0.0975  0.1328 -0.2948
48223SOL     OW53636   3.040  11.898   7.229  0.2746  0.1492  0.0631
48223SOL    HW153637   3.072  11.865   7.313 -0.4001  0.3491  0.4094
48223SOL    HW253638   3.021  11.990   7.245  3.0768  1.0376 -1.1593
48224SOL     OW53639   0.550   5.628  10.052  0.3477  0.6000  0.0057
48224SOL    HW153640   0.473   5.607  10.000 -0.0552  0.6023  0.5878
48224SOL    HW253641   0.522   5.614  10.143  1.1434  0.2495  0.2064
48225SOL     OW53642   1.635  11.033   1.419 -0.1690  0.0639 -0.0615
48225SOL    HW153643   1.608  11.064   1.506 -2.5696 -2.6857  0.3502
48225SOL    HW253644   1.714  10.983   1.436 -0.0299  0.4181  0.3652
48226SOL     OW53645   9.248   6.683   6.928 -0.0120 -0.0004 -0.2810
48226SOL    HW153646   9.220   6.754   6.986  0.6512  0.1249 -0.1077
48226SOL    HW253647   9.343   6.679   6.939  0.0913 -0.1342 -1.1800
48227SOL     OW53648  12.125   5.103   5.117 -0.2907 -0.3837 -0.0934
48227SOL    HW153649  12.071   5.141   5.186  1.3146 -1.6483  2.0229
48227SOL    HW253650  12.084   5.019   5.098  1.0284 -1.5792  1.8838
48228SOL     OW53651   1.717   4.124   0.912  0.0377 -0.3234 -0.3166
48228SOL    HW153652   1.703   4.173   0.830 -2.0763  0.8581  0.6750
48228SOL    HW253653   1.811   4.132   0.928  0.0371  2.1071 -1.0595
48229SOL     OW53654  10.086  11.375   1.224 -0.3435 -0.1804 -0.6499
48229SOL    HW153655  10.158  11.314   1.237  0.5009  0.8169 -0.4881
48229SOL    HW253656  10.103  11.414   1.138 -0.9991 -0.3368 -0.8559
48230SOL     OW53657   4.056   3.896   9.819 -0.5519  0.2506  0.7716
48230SOL    HW153658   4.142   3.856   9.823 -0.3689  0.5886  0.3380
48230SOL    HW253659   3.997   3.830   9.855 -0.3300 -0.6322 -0.4175
48231SOL     OW53660   7.056   4.910   8.298 -0.2750 -0.1920  0.1353
48231SOL    HW153661   7.106   4.968   8.241 -0.0802  0.6101  1.0880
48231SOL    HW253662   7.084   4.822   8.274 -0.8235  0.0536 -1.5844
48232SOL     OW53663   7.864   6.013   2.426  0.3886 -0.6044  0.2114
48232SOL    HW153664   7.827   5.969   2.349 -0.6247 -0.3708  0.5535
48232SOL    HW253665   7.842   5.956   2.499  0.3030 -0.2275  0.4799
48233SOL     OW53666  12.152   0.649   6.900 -0.4236  0.5880  0.6469
48233SOL    HW153667  12.173   0.687   6.815  1.1630  1.3365  1.3275
48233SOL    HW253668  12.090   0.710   6.940 -1.1234  0.2659  0.0804
48234SOL     OW53669   7.386   0.162   7.890  0.0677  0.3823  0.0417
48234SOL    HW153670   7.412   0.154   7.798  0.7108  2.9713 -0.0834
48234SOL    HW253671   7.467   0.184   7.935 -0.6039  1.1879  0.8858
48235SOL     OW53672   8.961  11.028   7.826  0.4184  0.2251 -0.2621
48235SOL    HW153673   9.004  10.953   7.784  2.1493  0.2947  1.2490
48235SOL    HW253674   9.033  11.085   7.853 -0.5882  0.4770  2.1886
48236SOL     OW53675   0.656  11.818  10.801  0.0655  0.3331  0.3597
48236SOL    HW153676   0.592  11.754  10.772  0.3215 -0.3327  1.2264
48236SOL    HW253677   0.708  11.838  10.724 -0.2604 -0.2160 -0.0017
48237SOL     OW53678  11.510   6.192   9.483 -1.0436  0.4119  0.0786
48237SOL    HW153679  11.555   6.252   9.423 -0.9571  0.4289  0.1602
48237SOL    HW253680  11.573   6.122   9.499 -0.5037  1.1428  1.3033
48238SOL     OW53681   2.300   7.146  11.593 -0.0147 -0.4295  0.2113
48238SOL    HW153682   2.380   7.111  11.631  0.3912  0.4647  0.1976
48238SOL    HW253683   2.306   7.241  11.606 -0.2966 -0.1847 -1.2626
48239SOL     OW53684   1.329   8.730   5.781  0.1422  0.6425 -0.1387
48239SOL    HW153685   1.404   8.674   5.763 -0.7379 -1.0278  1.1048
48239SOL    HW253686   1.354   8.816   5.747  1.7482 -0.3600 -1.6635
48240SOL     OW53687   2.666   0.879   5.050  0.5696  0.0619  0.6943
48240SOL    HW153688   2.633   0.847   4.966  0.1425  0.6484  0.6362
48240SOL    HW253689   2.759   0.894   5.035  0.4131  0.5640  0.1981
48241SOL     OW53690   6.676  11.458  10.234 -0.4103  0.3240 -0.1633
48241SOL    HW153691   6.762  11.421  10.255 -0.8854 -0.8935 -0.2585
48241SOL    HW253692   6.623  11.382  10.208 -1.2284  1.1799 -1.0858
48242SOL     OW53693   4.167   4.429   8.522  0.8277  0.4760  0.1266
48242SOL    HW153694   4.093   4.488   8.534  1.3665  1.2805 -0.4354
48242SOL    HW253695   4.224   4.473   8.459  1.3698 -0.5239 -0.1158
48243SOL     OW53696   9.329   0.854   6.311 -0.2640  0.3286 -0.2029
48243SOL    HW153697   9.352   0.790   6.244  0.3636  0.7919 -0.4370
48243SOL    HW253698   9.279   0.921   6.263 -1.6848 -0.4006  0.1998
48244SOL     OW53699   8.073   3.815   6.131 -0.1300  0.2202  0.1042
48244SOL    HW153700   8.126   3.736   6.141 -1.2019 -0.7159 -1.3090
48244SOL    HW253701   8.004   3.791   6.069 -1.9134  1.5567  1.4527
48245SOL     OW53702  10.735   5.639  11.669 -0.3633 -0.4952 -0.6107
48245SOL    HW153703  10.811   5.681  11.630  0.1061 -1.2165 -0.5076
48245SOL    HW253704  10.770   5.596  11.748 -1.1133  0.1645  0.0952
48246SOL     OW53705  11.717   0.198   2.079 -0.4406 -0.0143 -0.0536
48246SOL    HW153706  11.789   0.140   2.104  0.5579  0.9033 -0.7682
48246SOL    HW253707  11.712   0.262   2.150  0.5482  0.9122 -0.8085
48247SOL     OW53708  11.659   3.118  10.434 -0.6047  0.4460 -0.0395
48247SOL    HW153709  11.746   3.083  10.455 -0.5630  1.1021  0.9397
48247SOL    HW253710  11.607   3.099  10.512 -0.4787  2.8948  0.7057
48248SOL     OW53711   4.130   2.540   8.003  0.2622  0.2898 -0.8313
48248SOL    HW153712   4.114   2.611   7.941 -0.6540  0.5811 -0.2863
48248SOL    HW253713   4.204   2.570   8.055  2.9417 -1.1810 -3.5544
48249SOL     OW53714  10.153   4.089   8.307  0.5609 -0.1261  0.3026
48249SOL    HW153715  10.130   4.046   8.389  0.2489 -1.3471 -0.3920
48249SOL    HW253716  10.241   4.055   8.286  0.7210  0.3284  0.2252
48250SOL     OW53717   9.397   6.423   2.000  0.0812 -0.5164 -0.6227
48250SOL    HW153718   9.372   6.333   1.978 -0.9177 -0.3123 -0.3615
48250SOL    HW253719   9.420   6.419   2.093 -0.3906 -0.4100 -0.5032
48251SOL     OW53720   2.205   2.043   7.495 -0.3807 -0.3639 -0.1688
48251SOL    HW153721   2.158   1.976   7.545 -1.2204 -0.1595 -0.6670
48251SOL    HW253722   2.225   2.002   7.411 -1.6149  0.2416 -0.7908
48252SOL     OW53723   2.162   5.727   1.172 -0.2659  0.6912  0.0404
48252SOL    HW153724   2.101   5.800   1.180 -2.2347 -0.8915  0.1732
48252SOL    HW253725   2.230   5.745   1.238  0.1715  3.1427 -0.9927
48253SOL     OW53726   9.954   5.316   2.739  0.1886  0.0497 -0.0091
48253SOL    HW153727   9.894   5.379   2.700  1.7543  0.6027 -1.6513
48253SOL    HW253728   9.901   5.268   2.802 -1.3450  2.2058  0.4447
48254SOL     OW53729  11.541   1.258   3.154  0.2977  0.1404 -0.1159
48254SOL    HW153730  11.481   1.192   3.117 -1.2967  0.4662  1.7260
48254SOL    HW253731  11.524   1.337   3.103  0.9373 -0.3829 -1.1722
48255SOL     OW53732   2.318   6.200   1.051  0.1913 -0.4101  0.3652
48255SOL    HW153733   2.384   6.138   1.082 -1.0662 -1.1031  1.7746
48255SOL    HW253734   2.279   6.158   0.974 -1.0999 -1.7374  1.6828
48256SOL     OW53735   6.118   7.571   1.131 -0.0091 -0.4037  0.0155
48256SOL    HW153736   6.041   7.624   1.150  0.2184 -0.3810  0.9659
48256SOL    HW253737   6.101   7.534   1.044 -2.0004 -1.9287  0.9392
48257SOL     OW53738   2.144   9.910   9.400  0.4213 -0.8364  0.5297
48257SOL    HW153739   2.205   9.839   9.381  0.2914 -0.7338 -0.2958
48257SOL    HW253740   2.151   9.923   9.495  0.8460 -1.5794  0.6067
48258SOL     OW53741  10.263   7.527   2.752  0.6444  0.8868 -0.0192
48258SOL    HW153742  10.327   7.571   2.696 -0.1969  1.3484 -0.6172
48258SOL    HW253743  10.215   7.469   2.693  0.8929  0.0844  0.5368
48259SOL     OW53744   7.422   5.187   6.785 -0.0886 -0.4449  0.2400
48259SOL    HW153745   7.509   5.225   6.771 -0.6460  0.2935 -1.4057
48259SOL    HW253746   7.383   5.183   6.698 -2.0183 -0.0087  1.0326
48260SOL     OW53747   7.659   3.794   3.070  0.4789 -0.6457  0.2618
48260SOL    HW153748   7.598   3.843   3.125 -0.2422 -1.2175 -0.0093
48260SOL    HW253749   7.684   3.856   3.002 -0.1664 -0.5478  0.1080
48261SOL     OW53750   8.905   8.458  11.852  0.4880  0.1305  0.5164
48261SOL    HW153751   8.952   8.387  11.896 -0.6855 -0.6035  0.6449
48261SOL    HW253752   8.937   8.456  11.762  0.9318 -0.1503  0.6806
48262SOL     OW53753   5.863   3.717   3.926 -0.4720 -0.6325  0.2817
48262SOL    HW153754   5.933   3.658   3.896  0.6013  0.8158 -0.1766
48262SOL    HW253755   5.908   3.785   3.976 -1.3567  1.0091 -1.0338
48263SOL     OW53756   1.968   7.639   9.942 -0.7663  0.0840 -0.4753
48263SOL    HW153757   1.944   7.572   9.878  1.0721  0.2091 -1.3346
48263SOL    HW253758   1.996   7.714   9.890  1.6646 -0.1333  0.3983
48264SOL     OW53759   5.368   4.865   4.425  0.4011 -0.0929  0.7000
48264SOL    HW153760   5.280   4.864   4.464 -0.7180  0.5400 -1.6780
48264SOL    HW253761   5.353   4.873   4.331  3.0315  0.1683  0.2323
48265SOL     OW53762   9.137  10.320  10.168 -0.0430 -0.2338  0.7209
48265SOL    HW153763   9.187  10.323  10.250  0.2802  0.4009  0.5075
48265SOL    HW253764   9.198  10.351  10.101 -1.0383  1.7328  0.6389
48266SOL     OW53765   5.542  12.259   7.530  0.5478 -0.4539 -0.9210
48266SOL    HW153766   5.624  12.210   7.536  0.1871 -0.9238  1.5862
48266SOL    HW253767   5.478  12.195   7.499  0.8032 -0.5601 -1.2268
48267SOL     OW53768   4.620   7.538   3.255  0.0925  0.3558 -0.1334
48267SOL    HW153769   4.640   7.568   3.167  1.4461 -0.7999 -0.2528
48267SOL    HW253770   4.524   7.534   3.257  0.0349  0.2031 -1.6293
48268SOL     OW53771   8.945   8.129   3.525 -0.3010 -0.0816  0.1515
48268SOL    HW153772   9.003   8.074   3.577  0.6470  0.4441 -0.3176
48268SOL    HW253773   8.862   8.128   3.572  0.4056  0.0426  1.4516
48269SOL     OW53774  10.856   8.306   4.611 -0.1744  0.2204 -0.0077
48269SOL    HW153775  10.851   8.267   4.523  1.5295 -1.6582  0.6440
48269SOL    HW253776  10.908   8.243   4.662 -0.3172  1.7161  2.1053
48270SOL     OW53777   3.842   4.440   3.027 -0.2796  0.6258 -0.1289
48270SOL    HW153778   3.796   4.356   3.023 -0.7825  0.8653  0.4563
48270SOL    HW253779   3.837   4.466   3.119  1.3033  0.5242  0.0129
48271SOL     OW53780   4.078  12.288  12.557 -0.6042  0.6326 -0.6709
48271SOL    HW153781   4.027  12.297  12.637 -1.5440  2.3057 -1.3991
48271SOL    HW253782   4.156  12.240  12.584 -2.3587 -1.7588  0.5447
48272SOL     OW53783   7.357   2.591   1.420 -0.3359 -0.0461  0.1925
48272SOL    HW153784   7.273   2.566   1.459  0.2430 -1.8688  0.3783
48272SOL    HW253785   7.381   2.516   1.365  0.2657  1.2608 -1.3963
48273SOL     OW53786   6.013   7.075   1.916 -0.5829 -0.3369  0.6496
48273SOL    HW153787   6.024   7.006   1.981 -0.2659  0.3581  1.3388
48273SOL    HW253788   6.054   7.040   1.837 -0.5369 -0.9856  0.9545
48274SOL     OW53789   6.873  10.425   9.178  0.4472 -0.0051  0.3086
48274SOL    HW153790   6.962  10.405   9.206  1.1394  0.1857 -1.6063
48274SOL    HW253791   6.883  10.462   9.091 -1.4800  0.5200  0.2637
48275SOL     OW53792   5.204   9.904   6.068 -0.4012 -0.2672  0.1670
48275SOL    HW153793   5.293   9.888   6.036 -0.3600 -1.0871  0.6382
48275SOL    HW253794   5.168   9.816   6.081 -0.2319 -0.0366  2.8173
48276SOL     OW53795   7.704  11.651   1.172  0.0284 -0.4563  0.6761
48276SOL    HW153796   7.753  11.706   1.233  0.5816 -0.1538 -0.0197
48276SOL    HW253797   7.630  11.706   1.145  0.3288 -0.2110  0.3308
48277SOL     OW53798   6.608  11.420  12.252 -0.3281  0.1656 -0.3100
48277SOL    HW153799   6.601  11.477  12.175  2.7425  2.3962  0.8778
48277SOL    HW253800   6.567  11.469  12.323  0.3222 -0.1184  0.2739
48278SOL     OW53801   5.806   6.725   2.581  0.7346  0.4012 -0.2302
48278SOL    HW153802   5.730   6.675   2.550  0.6490  1.5149 -1.9904
48278SOL    HW253803   5.769   6.787   2.644  0.4802 -0.2554  0.2746
48279SOL     OW53804  11.313   8.153   3.678  0.7850  0.1930  0.0877
48279SOL    HW153805  11.250   8.221   3.702  0.2607 -0.8070  1.7008
48279SOL    HW253806  11.328   8.167   3.585  0.0516  1.9772  0.1863
48280SOL     OW53807  10.274   9.810  10.807 -0.0962  0.4601  0.2355
48280SOL    HW153808  10.182   9.815  10.781 -0.5230 -2.7970  0.6912
48280SOL    HW253809  10.305   9.727  10.769  1.7484 -0.0302  2.5881
48281SOL     OW53810   6.843   9.169   9.506  0.1463 -0.4337 -0.1912
48281SOL    HW153811   6.837   9.211   9.420 -0.8131  1.0639  0.5682
48281SOL    HW253812   6.919   9.111   9.498  0.7954  0.5377 -1.6915
48282SOL     OW53813  12.155   3.308   3.482  0.0603 -0.3206 -0.3273
48282SOL    HW153814  12.089   3.364   3.440  1.3246  1.5675  0.0833
48282SOL    HW253815  12.140   3.319   3.576  0.2267 -0.8307 -0.2343
48283SOL     OW53816  11.418   5.666  12.554  0.1202  0.3067  0.4249
48283SOL    HW153817  11.474   5.589  12.568 -1.1406 -0.6049  0.5841
48283SOL    HW253818  11.426   5.717  12.634 -2.9842 -2.2609  2.6166
48284SOL     OW53819   8.564  11.725  10.484 -0.7065  0.4706  0.3569
48284SOL    HW153820   8.519  11.650  10.446 -1.9205  1.7617 -0.8629
48284SOL    HW253821   8.631  11.748  10.420  2.1791 -1.6692  2.3188
48285SOL     OW53822  11.138   3.367   7.197  0.4189 -0.1174  0.1074
48285SOL    HW153823  11.059   3.319   7.172  0.3550 -0.0055  0.0932
48285SOL    HW253824  11.164   3.329   7.280 -1.0602  1.4936  1.3819
48286SOL     OW53825   7.978   4.658   0.643 -0.3066 -0.6792  0.2607
48286SOL    HW153826   8.011   4.575   0.608  0.4093 -0.7429  1.0559
48286SOL    HW253827   7.919   4.633   0.713 -1.0587 -0.5308 -0.3056
48287SOL     OW53828   5.954  11.122   8.513  0.1032  0.1337  0.2701
48287SOL    HW153829   5.908  11.101   8.595 -0.3587 -3.2057 -0.6933
48287SOL    HW253830   5.887  11.116   8.445  0.9511  0.4457 -0.6261
48288SOL     OW53831   5.369   1.142   9.110  0.7774 -0.2443 -0.2590
48288SOL    HW153832   5.419   1.128   9.190 -0.6357 -0.9055  0.5493
48288SOL    HW253833   5.371   1.237   9.096  1.6069 -0.1898  0.1461
48289SOL     OW53834  10.021   8.633  12.247  0.0381 -0.3176  0.1611
48289SOL    HW153835  10.036   8.667  12.159 -0.3457 -0.6850 -0.0529
48289SOL    HW253836  10.074   8.553  12.251  0.7836  0.1886  0.5923
48290SOL     OW53837   7.749   4.901  12.509 -0.1119 -0.0281 -0.0504
48290SOL    HW153838   7.782   4.937  12.426  0.0752  1.1167  0.5013
48290SOL    HW253839   7.826   4.900  12.566  0.1995 -2.5375 -0.4106
48291SOL     OW53840   5.009  10.624   6.384  0.3090  0.2025 -0.1657
48291SOL    HW153841   4.961  10.568   6.444  1.4813 -0.0170  0.5930
48291SOL    HW253842   4.963  10.615   6.300  0.5928 -2.0664 -0.1256
48292SOL     OW53843   5.564   7.930  11.660 -0.0591 -0.5588 -0.1613
48292SOL    HW153844   5.551   7.899  11.570 -0.0308 -2.1573  0.3557
48292SOL    HW253845   5.651   7.899  11.683 -0.2633 -0.5910  0.5785
48293SOL     OW53846   9.254   4.104   9.681  0.2038 -0.7094  0.1669
48293SOL    HW153847   9.348   4.103   9.698 -0.0257  0.8043  1.7857
48293SOL    HW253848   9.237   4.188   9.639 -0.4337 -0.9442 -0.0622
48294SOL     OW53849   0.073   4.923  10.824 -0.2522 -0.2013 -0.2617
48294SOL    HW153850   0.043   4.998  10.876  0.9733 -0.6945  1.2245
48294SOL    HW253851   0.089   4.958  10.737  1.4143  1.5503  0.6983
48295SOL     OW53852   4.058  11.883   3.507 -0.2765 -0.1548 -0.3387
48295SOL    HW153853   3.977  11.918   3.469 -0.0692 -0.3306 -0.9490
48295SOL    HW253854   4.062  11.793   3.476 -0.0114 -0.2479 -0.0391
48296SOL     OW53855   1.827   3.866   3.853 -0.2835 -0.3561 -0.1102
48296SOL    HW153856   1.769   3.849   3.927  0.2025 -1.5454  0.0346
48296SOL    HW253857   1.838   3.961   3.852 -0.0852 -0.3296  1.5140
48297SOL     OW53858   6.383  11.875  11.875  0.2081  0.6169  0.3599
48297SOL    HW153859   6.394  11.780  11.884 -0.3745  0.4463 -0.6111
48297SOL    HW253860   6.450  11.901  11.811  2.3555  1.3613  2.7090
48298SOL     OW53861  12.459   3.582  10.575 -0.1628 -0.1047 -0.2716
48298SOL    HW153862  12.412   3.564  10.493 -3.1703 -0.0483  1.3047
48298SOL    HW253863  12.397   3.633  10.627  0.9346 -1.6435  2.7503
48299SOL     OW53864   5.055   3.625   1.550  0.0744  0.6744  0.5827
48299SOL    HW153865   5.106   3.544   1.546  1.0128  1.1271  2.3347
48299SOL    HW253866   5.116   3.689   1.586 -0.8945  1.9615 -0.0294
48300SOL     OW53867   9.421   1.905   9.586 -0.5266 -0.0533 -0.2737
48300SOL    HW153868   9.333   1.906   9.624  0.3889 -1.0744  2.1015
48300SOL    HW253869   9.410   1.862   9.502 -2.7518  2.6772 -1.5376
48301SOL     OW53870   9.589   3.915  10.255 -0.2941  0.5110  0.1015
48301SOL    HW153871   9.634   3.983  10.306  0.1815  0.7113 -0.5752
48301SOL    HW253872   9.496   3.929  10.272 -0.1165 -0.5243  2.3286
48302SOL     OW53873  10.436   1.643   9.242  0.8669  0.2417 -0.1896
48302SOL    HW153874  10.453   1.558   9.281 -0.3052  0.4168  0.7479
48302SOL    HW253875  10.478   1.705   9.301  0.3307  0.4128  0.0178
48303SOL     OW53876   3.959  10.150   6.837 -0.2278  0.3329  0.0694
48303SOL    HW153877   4.041  10.101   6.827 -0.2308  0.4111 -0.3570
48303SOL    HW253878   3.976  10.212   6.907  0.0060  0.1956  0.1348
48304SOL     OW53879   5.493   5.011   2.359  0.3897  0.9264 -0.9331
48304SOL    HW153880   5.447   5.092   2.335  0.8860  1.0080 -1.6641
48304SOL    HW253881   5.565   5.005   2.296 -0.8822 -1.2069 -2.3009
48305SOL     OW53882   1.982   4.724   5.880 -0.1822  0.3099  1.0851
48305SOL    HW153883   1.946   4.750   5.795  0.0016  0.3399  1.0153
48305SOL    HW253884   2.077   4.723   5.866 -0.0002  2.4577  1.8959
48306SOL     OW53885   5.089   5.569   3.403 -0.3367  0.0656  0.4257
48306SOL    HW153886   5.047   5.546   3.320  0.8385  0.7213 -0.3768
48306SOL    HW253887   5.061   5.658   3.421 -0.2352  0.0807  0.5145
48307SOL     OW53888   4.352   2.237  11.796 -0.3848  0.0250 -0.0813
48307SOL    HW153889   4.257   2.239  11.779 -0.2610  0.8484 -0.7368
48307SOL    HW253890   4.388   2.301  11.735  0.4837  0.4790  0.8839
48308SOL     OW53891   6.529   2.878   6.566 -0.0654 -0.5112 -0.0069
48308SOL    HW153892   6.455   2.830   6.604  0.7238 -2.6307 -0.9961
48308SOL    HW253893   6.606   2.826   6.590  1.2912  2.0150  1.6278
48309SOL     OW53894   7.214   8.545   5.487 -0.2199 -0.5003 -0.1653
48309SOL    HW153895   7.228   8.552   5.392 -0.5713  0.4594 -0.1596
48309SOL    HW253896   7.302   8.535   5.523  0.3672  2.8560 -0.3326
48310SOL     OW53897  11.392   1.744   2.841  0.0232  0.1520 -0.4461
48310SOL    HW153898  11.414   1.837   2.833  1.0480 -0.0246  0.0492
48310SOL    HW253899  11.381   1.731   2.935 -0.9726 -0.0512 -0.5891
48311SOL     OW53900   8.450  11.523   2.734 -0.1011 -0.3568 -0.2332
48311SOL    HW153901   8.373  11.505   2.680 -0.2030  0.0287 -0.2228
48311SOL    HW253902   8.443  11.462   2.807  0.4786 -1.4553 -1.0750
48312SOL     OW53903   3.323   5.333   9.447  0.2828  0.0774 -0.1043
48312SOL    HW153904   3.227   5.331   9.441  0.3580 -1.0054 -1.3711
48312SOL    HW253905   3.350   5.242   9.435  1.4626  0.2894  0.7728
48313SOL     OW53906   6.234  11.385   7.992 -0.2102 -0.3604 -0.0685
48313SOL    HW153907   6.174  11.420   8.058  0.6531 -0.8828  1.0266
48313SOL    HW253908   6.196  11.300   7.967 -0.3319 -0.3399  0.0488
48314SOL     OW53909  10.574   7.907   2.289  0.6152 -0.1138  0.0611
48314SOL    HW153910  10.582   7.812   2.293 -2.7037 -0.7066 -2.6388
48314SOL    HW253911  10.487   7.925   2.327  0.2665  1.5591 -1.4016
48315SOL     OW53912   2.888  11.080   8.422 -0.2986 -0.1927 -0.7614
48315SOL    HW153913   2.982  11.071   8.407 -0.1484  0.2935 -0.1348
48315SOL    HW253914   2.862  11.156   8.371 -0.0807  0.5171  0.1619
48316SOL     OW53915   0.357   9.887   2.510 -0.0740 -0.2464  0.6391
48316SOL    HW153916   0.310   9.946   2.451  0.2830  0.5136  1.1043
48316SOL    HW253917   0.346   9.800   2.471  0.7552  0.3229 -0.9427
48317SOL     OW53918   0.111   2.473   8.401 -0.0963  0.2632  0.2623
48317SOL    HW153919   0.026   2.505   8.430  0.7349  1.1387  1.8850
48317SOL    HW253920   0.151   2.547   8.355  0.0170  0.0564  0.0279
48318SOL     OW53921  11.262  10.796   8.750  0.8061 -0.2098  0.2097
48318SOL    HW153922  11.291  10.781   8.660  1.4262  0.1704  0.3410
48318SOL    HW253923  11.243  10.708   8.784  2.5554 -0.5685  0.3639
48319SOL     OW53924   4.445   5.255  11.154  0.4291  0.3307 -0.1046
48319SOL    HW153925   4.414   5.331  11.203  0.2067 -0.0265  0.3154
48319SOL    HW253926   4.533   5.278  11.125  0.2966  0.8137 -0.1225
48320SOL     OW53927   3.986   2.077   9.513  0.3375 -0.0035 -0.4011
48320SOL    HW153928   3.957   2.166   9.496 -0.1446 -0.3461 -1.4636
48320SOL    HW253929   3.926   2.043   9.579 -0.1490  0.1126 -0.7795
48321SOL     OW53930   2.037   3.864   7.371  0.1736  0.1695  0.2339
48321SOL    HW153931   2.049   3.775   7.406 -0.7789  0.0093  0.1644
48321SOL    HW253932   1.943   3.873   7.360  0.2984  1.0367 -0.1814
48322SOL     OW53933   9.662   1.373   2.468 -0.6082 -0.3740  0.0501
48322SOL    HW153934   9.666   1.323   2.550 -3.6061 -1.1587 -0.1920
48322SOL    HW253935   9.612   1.318   2.409  1.9451 -0.0698 -2.6094
48323SOL     OW53936   0.472   1.062   2.191 -0.2148  0.5118 -0.4408
48323SOL    HW153937   0.563   1.031   2.191 -0.2808  0.1301 -2.9356
48323SOL    HW253938   0.433   1.020   2.268  1.4456 -0.1635  0.0840
48324SOL     OW53939  12.137  10.460   2.699  0.4195 -0.6831  0.1429
48324SOL    HW153940  12.063  10.503   2.655  1.6671 -0.1394 -1.4912
48324SOL    HW253941  12.122  10.477   2.792 -1.6248 -0.7956 -0.1127
48325SOL     OW53942   6.153   1.742  12.035  0.5176  0.0557 -0.3120
48325SOL    HW153943   6.151   1.662  12.086  0.5032  0.1881 -0.1029
48325SOL    HW253944   6.246   1.757  12.016  0.3712 -1.3234 -2.4482
48326SOL     OW53945  11.167   5.675   3.252  0.1011  0.1329  0.7964
48326SOL    HW153946  11.176   5.765   3.220  0.2883 -0.8868 -2.2789
48326SOL    HW253947  11.086   5.676   3.303  0.1225  2.0295  0.8740
48327SOL     OW53948   1.818  10.670   3.796 -0.0704  0.0845  0.0029
48327SOL    HW153949   1.871  10.740   3.835 -1.3856  1.1770 -0.0724
48327SOL    HW253950   1.859  10.653   3.711  0.0119  1.0959 -0.1757
48328SOL     OW53951   6.059   4.793   9.506 -0.3180  0.0400 -0.1186
48328SOL    HW153952   6.079   4.723   9.568 -2.0929 -0.3313  0.0775
48328SOL    HW253953   6.081   4.756   9.420 -0.0922 -0.3105  0.0866
48329SOL     OW53954   6.603   1.127   2.883  0.2198  0.1589  0.3488
48329SOL    HW153955   6.595   1.180   2.803  1.3487  0.7416  0.6042
48329SOL    HW253956   6.520   1.080   2.888 -0.0499  0.4428 -0.9336
48330SOL     OW53957   6.541   3.669   0.349 -0.4485  0.3653 -0.0732
48330SOL    HW153958   6.632   3.650   0.328 -0.8996 -1.9302 -0.1886
48330SOL    HW253959   6.531   3.642   0.440 -0.9677  0.7528 -0.0103
48331SOL     OW53960   1.241  10.311   5.636  0.0831 -0.4093 -0.5653
48331SOL    HW153961   1.215  10.240   5.695 -0.7643 -0.6974 -1.2666
48331SOL    HW253962   1.276  10.268   5.559  1.1700 -0.0315 -0.3050
48332SOL     OW53963   0.141  10.191   0.885  0.3268 -0.0019  0.0188
48332SOL    HW153964   0.143  10.096   0.874 -1.3478 -0.0994  0.2875
48332SOL    HW253965   0.184  10.207   0.969  3.4311 -0.1968 -1.3992
48333SOL     OW53966   0.900   2.167  11.099  0.6915  0.2743 -0.1520
48333SOL    HW153967   0.847   2.208  11.167 -0.9037 -1.5294 -0.2172
48333SOL    HW253968   0.837   2.121  11.044  2.2550 -1.6406 -0.4919
48334SOL     OW53969   9.322   5.565   4.833 -0.3395 -0.1750 -0.1513
48334SOL    HW153970   9.288   5.654   4.842 -0.3436 -0.3677  2.7826
48334SOL    HW253971   9.390   5.572   4.767  0.7460  2.4021  1.0932
48335SOL     OW53972   2.961  10.570  10.018  0.2578 -0.0910 -0.5455
48335SOL    HW153973   3.052  10.595  10.029  0.0566 -0.0621  1.3249
48335SOL    HW253974   2.913  10.653  10.017  0.2591 -0.0606 -2.2054
48336SOL     OW53975   9.099   9.085   8.345  0.4543  0.5152  0.3246
48336SOL    HW153976   9.037   9.057   8.412 -0.6053  2.9217  0.4687
48336SOL    HW253977   9.105   9.180   8.357  2.5928  0.6082 -1.0430
48337SOL     OW53978   3.150  11.372   3.254  0.1072  0.3345 -0.2631
48337SOL    HW153979   3.185  11.460   3.244 -0.7303  0.4899 -2.6430
48337SOL    HW253980   3.225  11.319   3.282  0.6459  1.7384  1.0964
48338SOL     OW53981   4.129   8.711   2.321  0.0693  0.0557 -0.5292
48338SOL    HW153982   4.181   8.727   2.243  0.9388 -1.1596 -0.2300
48338SOL    HW253983   4.056   8.773   2.315  2.5603  3.3779  0.0624
48339SOL     OW53984   5.836   2.453  12.383  0.3186  0.4581 -0.0737
48339SOL    HW153985   5.922   2.439  12.344 -0.3672 -1.8156 -0.9654
48339SOL    HW253986   5.821   2.376  12.438 -0.4648  1.6374  1.4588
48340SOL     OW53987  12.034  10.154   5.966 -0.1346  0.1653  0.1296
48340SOL    HW153988  12.024  10.114   6.052 -0.7172  0.8497  0.3821
48340SOL    HW253989  11.945  10.167   5.934  0.0693 -1.2440 -1.1396
48341SOL     OW53990   5.031   4.147   1.159 -0.5423  0.2953 -0.5306
48341SOL    HW153991   4.951   4.112   1.199 -0.6239  0.4210 -0.5823
48341SOL    HW253992   5.062   4.212   1.222  0.4156 -0.8917  0.2688
48342SOL     OW53993   6.651   2.602   8.706  0.5836 -0.5763 -0.4379
48342SOL    HW153994   6.700   2.684   8.710  0.4160 -0.5139  2.0209
48342SOL    HW253995   6.586   2.616   8.638 -0.7075  2.1291  1.1775
48343SOL     OW53996   9.400   1.839   8.476  0.3620  0.0807  0.2470
48343SOL    HW153997   9.457   1.915   8.470 -0.9325  1.1824  1.1259
48343SOL    HW253998   9.326   1.861   8.419  0.0342 -0.5615  0.4179
48344SOL     OW53999   7.027   9.800  10.125 -0.2716  0.4738  0.0811
48344SOL    HW154000   7.030   9.875  10.065 -0.3283  0.7558  0.4243
48344SOL    HW254001   7.010   9.840  10.211 -1.2998 -0.0078  0.1156
48345SOL     OW54002   2.204   8.517   2.884 -0.1108 -0.4651 -0.2290
48345SOL    HW154003   2.163   8.494   2.967  0.1122 -0.0992 -0.0135
48345SOL    HW254004   2.247   8.437   2.855 -1.3805 -1.0002 -0.7044
48346SOL     OW54005   7.365   8.124   4.031  0.2718 -0.3406  0.4157
48346SOL    HW154006   7.275   8.153   4.041  0.6017  0.0964  2.6975
48346SOL    HW254007   7.414   8.205   4.015  0.2751 -0.5750 -0.8093
48347SOL     OW54008   6.366   4.924   7.268 -0.3383 -0.4964 -0.6460
48347SOL    HW154009   6.357   4.911   7.363 -0.6337  0.4493 -0.5396
48347SOL    HW254010   6.403   4.841   7.237  0.8625 -0.4082  0.4539
48348SOL     OW54011   1.241   6.488  11.442  0.1292  0.1496  0.1652
48348SOL    HW154012   1.256   6.582  11.443 -1.3668  0.3979  0.4045
48348SOL    HW254013   1.238   6.465  11.349  1.3271  0.1680  0.0972
48349SOL     OW54014   7.664  11.030  11.936 -0.4426  0.0915 -0.3137
48349SOL    HW154015   7.709  11.008  11.855 -0.2792 -0.2343 -0.1347
48349SOL    HW254016   7.628  11.118  11.920  0.5577  0.5132 -0.3376
48350SOL     OW54017  10.696   0.152   1.500  0.3409 -0.1339 -0.0061
48350SOL    HW154018  10.644   0.072   1.513  0.4216 -0.5142 -1.7239
48350SOL    HW254019  10.703   0.190   1.587 -2.8688 -0.0333  0.3574
48351SOL     OW54020  10.459   9.758   7.753 -0.6553  0.4771 -0.2777
48351SOL    HW154021  10.544   9.781   7.792 -0.7626 -1.7372  1.5127
48351SOL    HW254022  10.463   9.663   7.741 -2.1705  0.5835 -2.0566
48352SOL     OW54023   8.593  11.835   0.555 -0.4285  0.3402 -0.3017
48352SOL    HW154024   8.614  11.900   0.621 -1.1141 -0.4873  0.7823
48352SOL    HW254025   8.534  11.774   0.600  0.2251 -1.0443 -1.2539
48353SOL     OW54026  11.405   3.273   2.160 -0.0378  0.3551  0.7261
48353SOL    HW154027  11.314   3.270   2.132 -0.4501  0.1881  1.9853
48353SOL    HW254028  11.419   3.190   2.205  0.9743  0.0533 -0.1175
48354SOL     OW54029   5.116   4.897   4.577 -0.1019 -0.9019  0.0184
48354SOL    HW154030   5.146   4.842   4.649  0.6847  0.2461  0.6094
48354SOL    HW254031   5.030   4.862   4.554  0.5756 -2.6677  0.0136
48355SOL     OW54032   6.757   7.681   3.878 -0.1741  0.0236 -0.2264
48355SOL    HW154033   6.828   7.644   3.825  1.7112  0.3625  1.8903
48355SOL    HW254034   6.788   7.672   3.968 -2.2787  1.4123  0.7093
48356SOL     OW54035   6.473   1.494   8.707 -0.1597  0.4803  0.3900
48356SOL    HW154036   6.439   1.439   8.778 -0.4202 -0.1631 -0.2267
48356SOL    HW254037   6.523   1.562   8.752 -2.3032  1.5163  1.3449
48357SOL     OW54038   4.748   4.835   2.525 -0.0245 -0.5742 -0.4309
48357SOL    HW154039   4.826   4.816   2.472 -0.0185 -1.7639 -0.0175
48357SOL    HW254040   4.690   4.883   2.466  0.6420 -0.4769 -1.0232
48358SOL     OW54041   9.507   0.269   4.138 -0.0356  0.5305 -0.3374
48358SOL    HW154042   9.585   0.314   4.171 -0.8340  0.3997  1.8562
48358SOL    HW254043   9.540   0.185   4.106  0.7406  0.4968  0.5165
48359SOL     OW54044   0.176  11.705   2.650  0.2386  0.1905 -0.1222
48359SOL    HW154045   0.122  11.746   2.718  0.3714  1.0340 -0.5050
48359SOL    HW254046   0.117  11.698   2.575  1.2838  3.6053 -1.4457
48360SOL     OW54047   9.006   7.517   0.574  0.2574  0.3282  0.2754
48360SOL    HW154048   9.035   7.499   0.485  1.1537  0.5873  0.5026
48360SOL    HW254049   9.036   7.441   0.625 -0.5327  0.0298  0.3024
48361SOL     OW54050   0.520   6.930  11.496  0.3670  0.0079 -0.0341
48361SOL    HW154051   0.533   6.871  11.422  2.9020  0.4647 -0.0086
48361SOL    HW254052   0.561   6.885  11.570 -1.7184 -0.2333  1.0724
48362SOL     OW54053  10.595   9.939   0.676 -0.8693 -0.1262  0.3708
48362SOL    HW154054  10.533   9.935   0.749 -1.1371  0.9913  0.2237
48362SOL    HW254055  10.617  10.032   0.668  1.8193 -0.5903  1.2430
48363SOL     OW54056  11.443   7.279   9.939 -0.1088 -0.1573 -0.0804
48363SOL    HW154057  11.387   7.293  10.015 -1.1596  2.1913 -1.1863
48363SOL    HW254058  11.389   7.305   9.864  1.1474 -1.6443 -1.5899
48364SOL     OW54059   2.155  10.484   4.841  0.3214  0.0773  0.2406
48364SOL    HW154060   2.159  10.428   4.764 -0.1893  1.2667 -0.6711
48364SOL    HW254061   2.088  10.443   4.896  0.0481 -0.2901 -0.3548
48365SOL     OW54062   7.398   5.087   0.989 -0.6613  0.2123 -0.4481
48365SOL    HW154063   7.376   5.044   0.906 -1.9960  0.1929 -0.0973
48365SOL    HW254064   7.493   5.094   0.987 -0.4726 -1.7666 -1.0131
48366SOL     OW54065  10.875   4.056   3.136 -0.2812 -0.2249  0.3343
48366SOL    HW154066  10.887   3.973   3.090  2.6637  0.3317 -0.0783
48366SOL    HW254067  10.850   4.118   3.068 -2.5656 -0.6909  0.6553
48367SOL     OW54068  10.157   1.564   6.675 -0.2519  0.4525  0.2262
48367SOL    HW154069  10.185   1.535   6.762  2.0925  2.9793  0.4471
48367SOL    HW254070  10.115   1.487   6.637 -2.2899 -0.4981  3.9013
48368SOL     OW54071   0.077  12.073  10.722 -0.0232  0.1531  0.0724
48368SOL    HW154072   0.119  12.055  10.638 -1.0967  0.2486 -0.5137
48368SOL    HW254073   0.078  12.168  10.730 -0.6806  0.1952 -0.2571
48369SOL     OW54074   7.891  12.229   5.812 -0.0964 -0.0378 -0.2671
48369SOL    HW154075   7.839  12.181   5.747  0.9953 -1.5562 -0.0777
48369SOL    HW254076   7.967  12.260   5.763 -1.0684  2.1358 -0.5324
48370SOL     OW54077   6.329   8.078   0.282  0.5004 -0.3855  0.2498
48370SOL    HW154078   6.277   8.096   0.360 -0.0819  0.5869 -0.3414
48370SOL    HW254079   6.342   8.164   0.241  0.8311 -0.8710 -0.6979
48371SOL     OW54080  12.351   6.639  11.222 -0.0621 -0.3116 -0.2581
48371SOL    HW154081  12.412   6.647  11.149 -1.8688 -1.2946 -1.9891
48371SOL    HW254082  12.400   6.591  11.288  0.4793 -3.0258 -2.4243
48372SOL     OW54083   6.076   3.514   3.615  0.3307  0.3313 -0.3395
48372SOL    HW154084   6.052   3.600   3.651  2.3495 -0.6132  3.8332
48372SOL    HW254085   6.125   3.471   3.685 -0.6936 -4.3653 -2.1257
48373SOL     OW54086   7.419   3.630   4.595  0.2972 -0.6103  0.1140
48373SOL    HW154087   7.441   3.672   4.678 -0.0812  0.1983 -0.1876
48373SOL    HW254088   7.345   3.572   4.616 -1.0854  1.0310 -0.0118
48374SOL     OW54089   4.021  10.311   9.440 -0.0253  0.6775  0.2290
48374SOL    HW154090   3.972  10.229   9.433  1.1572 -0.3357  2.5238
48374SOL    HW254091   3.974  10.362   9.506 -0.1575  1.3904 -0.4074
48375SOL     OW54092   6.407   5.789   1.530 -0.7336  0.2339 -0.2053
48375SOL    HW154093   6.330   5.751   1.571 -0.9369  0.5554 -0.2826
48375SOL    HW254094   6.375   5.869   1.488 -0.0136  1.4829  1.4681
48376SOL     OW54095   5.901  11.960   7.891 -0.0215 -0.1185 -0.0774
48376SOL    HW154096   5.969  11.895   7.906  1.2789  1.4100  0.7970
48376SOL    HW254097   5.855  11.967   7.975  0.1878  0.4941 -0.0169
48377SOL     OW54098   9.515   6.754   1.502 -0.1586 -0.4522  0.6545
48377SOL    HW154099   9.430   6.787   1.529 -0.0806  0.0694  0.2709
48377SOL    HW254100   9.509   6.744   1.407  0.5765  0.7071  0.4654
48378SOL     OW54101   4.336   1.231  11.934  0.0045  0.4051  0.0870
48378SOL    HW154102   4.257   1.268  11.974 -0.0482  0.5187 -0.1228
48378SOL    HW254103   4.399   1.303  11.934  0.0808  0.3392  0.1742
48379SOL     OW54104   9.461   5.649  11.651 -0.3604 -0.1861  0.0567
48379SOL    HW154105   9.419   5.623  11.733  1.2646 -0.6784  0.7755
48379SOL    HW254106   9.532   5.708  11.678  0.2958 -0.4728 -0.9624
48380SOL     OW54107   8.264   6.598   4.434  0.2005 -0.5206 -0.4992
48380SOL    HW154108   8.281   6.649   4.354 -0.6205  0.3004 -0.1629
48380SOL    HW254109   8.322   6.523   4.426  0.4361 -0.2431 -1.6785
48381SOL     OW54110  10.435   3.591   2.928  0.2476  0.0913 -0.4033
48381SOL    HW154111  10.422   3.504   2.889 -1.5267  0.5402 -0.8987
48381SOL    HW254112  10.369   3.596   2.997  0.1251  1.1762 -0.5848
48382SOL     OW54113   7.336   6.548   0.847  0.3550 -0.9105  0.9642
48382SOL    HW154114   7.285   6.468   0.860 -0.5497 -0.4897  0.1504
48382SOL    HW254115   7.423   6.517   0.822 -0.1972 -1.6576 -0.1267
48383SOL     OW54116   1.953   2.666   9.893  0.0873  0.6426 -0.1224
48383SOL    HW154117   2.023   2.693   9.833  0.0253  2.4744  0.5471
48383SOL    HW254118   1.998   2.619   9.963  0.5804  1.2878  0.0019
48384SOL     OW54119   3.272   1.754   3.926 -0.5104  0.0694 -0.6993
48384SOL    HW154120   3.201   1.819   3.933 -1.4277 -0.9902  0.2306
48384SOL    HW254121   3.229   1.670   3.944  0.5585 -0.8747 -2.3464
48385SOL     OW54122  10.363   5.840   0.530 -0.3640  0.6409  0.2675
48385SOL    HW154123  10.430   5.802   0.473 -1.6416  1.7837 -2.1254
48385SOL    HW254124  10.409   5.910   0.577  0.6875 -0.2502  0.6084
48386SOL     OW54125  11.491   0.621   2.502  0.0892  0.4170 -0.1783
48386SOL    HW154126  11.556   0.552   2.509  1.0467  1.4227  2.4275
48386SOL    HW254127  11.475   0.631   2.409  1.2523 -2.0558 -0.7116
48387SOL     OW54128   2.649   2.444   3.402  0.4772  0.1677 -0.4036
48387SOL    HW154129   2.667   2.517   3.342 -2.1448  1.9701  0.7895
48387SOL    HW254130   2.638   2.486   3.488  0.1026 -1.8168  0.5690
48388SOL     OW54131   5.034   1.505   0.881  0.1385 -0.3495 -0.0243
48388SOL    HW154132   5.086   1.430   0.853  1.1241 -0.6513  2.3843
48388SOL    HW254133   5.093   1.579   0.874  0.5079 -0.4809  1.4500
48389SOL     OW54134   9.375   0.485   2.022  0.0804  0.2815  0.1745
48389SOL    HW154135   9.282   0.464   2.018 -0.0234  0.7616 -0.0615
48389SOL    HW254136   9.384   0.565   1.969  0.4646  0.7972  0.9999
48390SOL     OW54137  12.498   4.575   1.138 -0.1059  0.6031  0.3705
48390SOL    HW154138  12.461   4.601   1.054  0.2142  0.5516  0.2101
48390SOL    HW254139  12.425   4.579   1.199  0.0068  2.3474  0.4501
48391SOL     OW54140   0.048   9.171   5.984  0.1833  0.3498  0.5894
48391SOL    HW154141   0.064   9.095   6.040  1.3726  0.1548  0.0140
48391SOL    HW254142   0.004   9.135   5.907 -1.3267  0.5974  1.3011
48392SOL     OW54143  10.759   7.888   2.000  0.0212  0.2232  0.1870
48392SOL    HW154144  10.690   7.936   1.953 -0.2930  1.0355  1.4366
48392SOL    HW254145  10.731   7.890   2.091  2.5056  2.0168  1.0059
48393SOL     OW54146   4.105   8.823   4.955 -0.2430  0.3371  0.1771
48393SOL    HW154147   4.179   8.883   4.962  1.1431 -1.2543 -0.1729
48393SOL    HW254148   4.069   8.838   4.868 -1.1805  2.0062  0.8071
48394SOL     OW54149  11.095   8.571   7.902 -0.5767  0.1390 -0.0322
48394SOL    HW154150  11.100   8.639   7.835  0.1505  2.8900  2.5613
48394SOL    HW254151  11.112   8.490   7.856 -0.7613  1.7597 -3.2314
48395SOL     OW54152   5.354   7.493   4.511  0.5897  0.7959 -0.3379
48395SOL    HW154153   5.341   7.585   4.534  1.0831  0.4697  1.3389
48395SOL    HW254154   5.445   7.475   4.532  0.0991 -0.4695  0.8857
48396SOL     OW54155   1.878   0.326   1.226  0.0323 -0.0062 -0.3138
48396SOL    HW154156   1.884   0.404   1.172 -3.2640  0.0365 -0.8468
48396SOL    HW254157   1.880   0.358   1.316  0.7498  0.4410 -0.4814
48397SOL     OW54158  10.777  11.527  10.358  0.6203 -0.0195  0.0104
48397SOL    HW154159  10.809  11.617  10.355 -0.7761  0.4874 -1.4524
48397SOL    HW254160  10.772  11.500  10.266 -1.0819 -0.7738  0.2856
48398SOL     OW54161   2.708   7.580   1.364  0.1478 -0.0907 -0.1781
48398SOL    HW154162   2.719   7.502   1.419 -2.6439  0.6559  1.6559
48398SOL    HW254163   2.650   7.552   1.293 -0.5662  0.1752  0.2837
48399SOL     OW54164   6.437  12.138   2.163 -0.6033 -0.2756  0.0571
48399SOL    HW154165   6.364  12.108   2.108 -0.0905  0.6328 -1.1632
48399SOL    HW254166   6.514  12.133   2.106  0.2027 -0.6366  1.1379
48400SOL     OW54167   2.024   8.420   2.134  0.3797  0.2845 -0.4704
48400SOL    HW154168   2.116   8.438   2.155  0.1749  2.1354 -0.9544
48400SOL    HW254169   2.024   8.333   2.096  1.7805 -0.1628  0.4768
48401SOL     OW54170   0.516   0.302  11.729  0.1352  0.7559 -0.1339
48401SOL    HW154171   0.536   0.271  11.817 -0.3016  0.0748 -0.2642
48401SOL    HW254172   0.592   0.276  11.676 -0.9809 -1.7697 -0.6177
48402SOL     OW54173   2.451   9.538   2.497 -0.7494 -0.3913 -0.0914
48402SOL    HW154174   2.470   9.444   2.503 -0.4893 -0.3020  0.7192
48402SOL    HW254175   2.414   9.550   2.410  2.1140 -0.7263 -1.4752
48403SOL     OW54176   6.316   8.864  11.330  0.3881  0.2955 -0.0605
48403SOL    HW154177   6.234   8.884  11.285  0.9420  1.4924 -0.5663
48403SOL    HW254178   6.325   8.932  11.396  0.3371 -0.5859  0.8861
48404SOL     OW54179  11.149   7.401  11.315  0.2315 -0.0600 -0.1351
48404SOL    HW154180  11.152   7.489  11.352 -0.8430 -0.3243  0.6089
48404SOL    HW254181  11.156   7.414  11.220  1.8271  0.6955  0.0691
48405SOL     OW54182   2.175   2.246  12.488 -0.5845 -0.2015 -1.0717
48405SOL    HW154183   2.100   2.187  12.484  0.0057 -0.9665 -1.1869
48405SOL    HW254184   2.153   2.308  12.558 -1.2064 -0.5738 -0.9278
48406SOL     OW54185   0.955   7.386   3.383  0.1562 -0.2272 -0.3392
48406SOL    HW154186   1.041   7.358   3.414  0.2774  2.1328  1.7009
48406SOL    HW254187   0.969   7.472   3.345 -1.0083 -0.6682 -1.8928
48407SOL     OW54188   6.730   0.315   5.160 -0.5090  0.2899  0.1036
48407SOL    HW154189   6.738   0.374   5.235  0.1105 -0.3650  0.5723
48407SOL    HW254190   6.664   0.251   5.187  1.0475 -1.0666  0.8981
48408SOL     OW54191   3.035   8.718   5.144  0.0647  0.3786 -0.6139
48408SOL    HW154192   3.093   8.793   5.136  1.4987 -0.4931  0.9117
48408SOL    HW254193   2.949   8.755   5.162  0.9433  1.6886  1.2030
48409SOL     OW54194   4.903  10.783   4.625  0.5811  0.4766  0.4648
48409SOL    HW154195   4.969  10.851   4.616 -0.6740  1.6633 -0.0597
48409SOL    HW254196   4.885  10.778   4.718  0.4775  1.0473  0.4745
48410SOL     OW54197   7.078  11.105   4.627 -0.2266 -0.0180 -0.2033
48410SOL    HW154198   7.037  11.075   4.708  0.3654 -0.8134 -0.1866
48410SOL    HW254199   7.048  11.043   4.561 -2.0211  1.5470 -0.9708
48411SOL     OW54200   9.296  12.010   8.373  0.2242  0.1392 -0.3733
48411SOL    HW154201   9.231  11.941   8.363  0.4183 -0.2509  0.7987
48411SOL    HW254202   9.290  12.035   8.465 -0.4044  2.2786 -0.9546
48412SOL     OW54203   5.504   2.350   0.824 -0.1230  0.3626  0.3080
48412SOL    HW154204   5.445   2.412   0.868  0.0712  1.0799 -0.4326
48412SOL    HW254205   5.479   2.353   0.732  1.4558  1.1514 -0.1390
48413SOL     OW54206  11.070   6.397   8.117  0.2206  0.1396  0.2119
48413SOL    HW154207  11.012   6.348   8.058 -0.5236  2.7522 -1.4308
48413SOL    HW254208  11.158   6.378   8.084  0.2944 -2.5199  1.6612
48414SOL     OW54209   6.733  11.278   1.874  0.4181 -0.7235 -0.3121
48414SOL    HW154210   6.752  11.200   1.927  2.0402 -0.1132  0.0402
48414SOL    HW254211   6.647  11.308   1.907 -0.2252 -2.3260 -0.4473
48415SOL     OW54212   3.307   5.126   2.093  0.1073  0.0388 -0.1342
48415SOL    HW154213   3.402   5.133   2.085 -0.0094  0.9291 -0.8444
48415SOL    HW254214   3.274   5.142   2.005 -0.7041 -0.2819  0.1025
48416SOL     OW54215   0.580   3.148  11.634  0.0130  0.4702 -0.2753
48416SOL    HW154216   0.625   3.220  11.679  0.3156 -0.5471  1.1360
48416SOL    HW254217   0.496   3.141  11.679 -1.1788  1.6514 -2.1833
48417SOL     OW54218   2.508  11.030   1.887 -0.1644 -0.3106  0.3995
48417SOL    HW154219   2.545  11.058   1.971  0.1171  0.6274 -0.0267
48417SOL    HW254220   2.538  10.940   1.877  0.4314 -0.1802  0.9470
48418SOL     OW54221   6.305   8.846   0.287  0.3988 -0.1132  0.2568
48418SOL    HW154222   6.379   8.904   0.267  0.8105 -1.3547 -2.3065
48418SOL    HW254223   6.227   8.899   0.271  0.7617 -0.2752 -2.4544
48419SOL     OW54224   7.406   9.285  10.692  0.7759 -0.0145  0.7143
48419SOL    HW154225   7.441   9.372  10.674 -0.2718  0.1036 -0.9168
48419SOL    HW254226   7.428   9.234  10.614  0.9219 -1.0857  1.4335
48420SOL     OW54227   2.131   0.768  10.687  0.3459 -0.1329 -0.5175
48420SOL    HW154228   2.162   0.820  10.761 -0.1880  0.2562 -0.5690
48420SOL    HW254229   2.208   0.717  10.661  1.0334  1.0245 -0.8138
48421SOL     OW54230   0.408   7.313   6.453  0.2152  0.2010  0.8305
48421SOL    HW154231   0.466   7.238   6.442  0.2306  0.2445  0.6152
48421SOL    HW254232   0.445   7.381   6.396 -1.1748 -0.4239 -0.9065
48422SOL     OW54233  10.722   9.099   3.397  0.2546 -0.0264 -0.1411
48422SOL    HW154234  10.787   9.110   3.328  0.0578  0.2510 -0.2824
48422SOL    HW254235  10.714   9.185   3.437 -0.3600  0.0463 -0.4190
48423SOL     OW54236   7.097   3.406   2.727 -0.0609 -0.4048  0.3942
48423SOL    HW154237   7.098   3.357   2.645 -1.5954  1.7454 -1.0150
48423SOL    HW254238   7.081   3.339   2.794 -0.2757 -2.0469 -1.2083
48424SOL     OW54239   4.875   2.887   1.829  0.4980 -0.3521  0.0998
48424SOL    HW154240   4.933   2.818   1.799  0.3850 -0.0157 -0.9177
48424SOL    HW254241   4.788   2.862   1.798  0.1708 -0.5746  1.1442
48425SOL     OW54242   5.711   2.737   9.031 -0.0500 -0.6672  0.0003
48425SOL    HW154243   5.700   2.818   8.981  3.6221 -0.4789 -0.7356
48425SOL    HW254244   5.656   2.674   8.985 -1.5879  0.9358 -0.4849
48426SOL     OW54245   2.534   6.872   4.702 -0.5642  0.5533  1.0021
48426SOL    HW154246   2.538   6.843   4.611 -3.1919  0.1611  0.9364
48426SOL    HW254247   2.624   6.865   4.733  0.2340 -0.2323 -1.2665
48427SOL     OW54248   8.340   9.395   0.477 -0.5244  0.6133  0.4468
48427SOL    HW154249   8.251   9.427   0.460 -1.9872 -2.5922  1.2737
48427SOL    HW254250   8.372   9.366   0.392 -1.4486 -0.7492  0.5244
48428SOL     OW54251   8.055   2.795   8.303 -0.0784 -0.0477  0.2522
48428SOL    HW154252   7.974   2.747   8.283 -0.2518 -0.0038  0.8392
48428SOL    HW254253   8.103   2.796   8.220 -1.5934  1.6771 -0.6716
48429SOL     OW54254   5.891   0.820   5.658  0.4359  0.3606  0.0885
48429SOL    HW154255   5.980   0.852   5.641 -0.5947  3.3174 -0.2453
48429SOL    HW254256   5.889   0.803   5.752  1.1025  1.1668  0.2619
48430SOL     OW54257   8.388   0.607   2.790 -0.3380 -0.2569 -0.4143
48430SOL    HW154258   8.351   0.652   2.714  0.0504 -0.6033 -0.8131
48430SOL    HW254259   8.462   0.558   2.755 -0.0252 -0.2499  0.2266
48431SOL     OW54260   3.148   0.178   8.920 -0.9857 -0.4725  0.3369
48431SOL    HW154261   3.237   0.170   8.884 -1.3197  2.0783 -1.2712
48431SOL    HW254262   3.139   0.102   8.978  1.9401 -1.2413 -0.0589
48432SOL     OW54263   0.761  10.903   5.879  0.3735 -0.0146  0.0351
48432SOL    HW154264   0.682  10.872   5.835 -1.1378  3.2449  0.1948
48432SOL    HW254265   0.801  10.964   5.817  0.2650  1.7621  1.6033
48433SOL     OW54266  10.775   9.339   3.742 -0.5039  0.1498  0.3029
48433SOL    HW154267  10.735   9.358   3.657  2.6595  1.6623 -1.0192
48433SOL    HW254268  10.775   9.423   3.788 -0.0537 -0.1091  0.7913
48434SOL     OW54269  10.243   8.208   5.827  0.2146  0.1933  0.1612
48434SOL    HW154270  10.335   8.180   5.829  0.0980 -0.2076  0.1157
48434SOL    HW254271  10.244   8.298   5.859  0.7474  0.5246 -0.7349
48435SOL     OW54272   1.569   0.424   7.377 -0.1231  0.4739  0.1220
48435SOL    HW154273   1.489   0.395   7.334 -1.1778  2.3684  0.6973
48435SOL    HW254274   1.598   0.499   7.325  0.7344  0.4006  0.4861
48436SOL     OW54275  10.521  10.753   4.282  0.1119 -0.2471 -0.1976
48436SOL    HW154276  10.428  10.734   4.268 -0.4016  0.4064  1.9818
48436SOL    HW254277  10.566  10.672   4.259 -0.7440 -0.0260 -3.0997
48437SOL     OW54278  12.098   2.650   4.114 -0.2917  0.2970  0.3321
48437SOL    HW154279  12.089   2.630   4.021 -0.1110  0.2283  0.3291
48437SOL    HW254280  12.087   2.745   4.119  0.1712  0.3611  0.1796
48438SOL     OW54281  11.762   5.639   2.112  0.2308 -0.2070  0.2428
48438SOL    HW154282  11.690   5.577   2.118 -1.5611  1.7151 -0.4228
48438SOL    HW254283  11.817   5.605   2.041  0.3156 -1.9553  1.0860
48439SOL     OW54284   3.873   9.842   3.851 -0.1775  0.8652 -0.1349
48439SOL    HW154285   3.812   9.769   3.841 -0.1981  0.6440  1.3533
48439SOL    HW254286   3.838   9.893   3.924  0.4531  1.7421 -0.4246
48440SOL     OW54287   4.007  10.156  12.399 -0.1340  0.5114  0.2103
48440SOL    HW154288   4.040  10.091  12.337 -1.5996  1.5248 -1.7175
48440SOL    HW254289   4.042  10.239  12.368 -0.1902  0.9455  1.2717
48441SOL     OW54290   8.645   2.067   6.603  0.1987 -0.1524  0.0181
48441SOL    HW154291   8.696   1.987   6.620  2.7782  1.4800  0.4767
48441SOL    HW254292   8.606   2.052   6.517  2.5502 -1.0412 -0.9986
48442SOL     OW54293   8.076   6.472   7.771  0.7689 -0.3909  0.4620
48442SOL    HW154294   8.152   6.444   7.823  0.7149  0.2080  0.8671
48442SOL    HW254295   8.044   6.391   7.732  0.1332 -1.0636  2.2661
48443SOL     OW54296   3.661   6.417   2.982  0.0911  0.1311 -0.1486
48443SOL    HW154297   3.658   6.413   3.077  1.7897  0.8963 -0.0325
48443SOL    HW254298   3.632   6.506   2.960 -2.0619 -0.5803 -0.5124
48444SOL     OW54299   4.441   1.877   4.693 -0.3132  0.3339 -0.9361
48444SOL    HW154300   4.424   1.851   4.603  0.8451  0.1380 -1.1065
48444SOL    HW254301   4.529   1.915   4.692 -0.5554  0.9669 -0.0160
48445SOL     OW54302   2.963   1.468  11.797  0.2755  0.4148  0.0606
48445SOL    HW154303   2.934   1.534  11.734 -0.8887  1.2741  1.4159
48445SOL    HW254304   3.028   1.514  11.851 -1.2592  0.8346  1.6365
48446SOL     OW54305   8.178   8.435   2.916 -0.7725 -0.0855 -0.5379
48446SOL    HW154306   8.083   8.425   2.910 -0.7716  0.7025 -2.9680
48446SOL    HW254307   8.212   8.346   2.922 -1.6240 -0.4055 -0.3023
48447SOL     OW54308   7.458  10.027   8.849  0.2283  0.1046 -0.4258
48447SOL    HW154309   7.413  10.086   8.788 -0.9442 -0.4792 -0.1661
48447SOL    HW254310   7.446  10.067   8.934 -2.9919 -1.7425  0.1717
48448SOL     OW54311  11.054   1.439  11.789 -0.0660  0.2444  0.0137
48448SOL    HW154312  11.050   1.518  11.842 -0.8754 -0.8797  1.7237
48448SOL    HW254313  10.964   1.407  11.785  0.4216 -1.3075  0.5269
48449SOL     OW54314   8.626   2.812  11.509  0.0798  0.1380  0.1317
48449SOL    HW154315   8.691   2.741  11.508 -0.1618 -0.0877  0.4469
48449SOL    HW254316   8.605   2.826  11.416  0.0640 -0.2627  0.0736
48450SOL     OW54317   1.203   1.022   1.460 -0.2081 -0.2914  0.2086
48450SOL    HW154318   1.118   0.994   1.495 -0.7782 -0.4556 -1.2558
48450SOL    HW254319   1.182   1.099   1.407  0.7117  0.2456  0.6113
48451SOL     OW54320   8.906   8.909   4.414  0.0102  0.1988  0.4804
48451SOL    HW154321   8.991   8.880   4.382 -1.3930 -2.4500 -1.2592
48451SOL    HW254322   8.883   8.985   4.360 -0.2422 -1.3191 -1.6750
48452SOL     OW54323   0.513   4.256   8.813 -0.1452  0.0437 -0.1305
48452SOL    HW154324   0.464   4.287   8.888 -0.8052 -1.2732  0.0082
48452SOL    HW254325   0.598   4.300   8.820 -0.5093  0.6113  0.8767
48453SOL     OW54326   5.279   2.443   8.773  0.3134  0.1145  0.5394
48453SOL    HW154327   5.346   2.376   8.785 -0.7630 -1.0362  0.3219
48453SOL    HW254328   5.252   2.435   8.682 -1.7797 -1.1114  1.1907
48454SOL     OW54329  11.904   7.289   1.820  0.2489 -0.3674 -0.2995
48454SOL    HW154330  11.870   7.264   1.734  0.3893  1.4673 -0.9403
48454SOL    HW254331  11.988   7.243   1.826 -0.4740 -1.7707 -0.4258
48455SOL     OW54332   3.627   5.964  11.409 -0.4886 -0.5249  0.1711
48455SOL    HW154333   3.686   5.913  11.464 -0.1922 -0.7188 -0.3184
48455SOL    HW254334   3.685   6.019  11.357 -0.5595 -2.4447 -2.0721
48456SOL     OW54335   6.324   2.927   8.129  0.4123  0.5297 -0.2233
48456SOL    HW154336   6.315   3.011   8.084 -0.0866  0.4269 -0.3229
48456SOL    HW254337   6.341   2.864   8.059  0.1426  0.4489 -0.2170
48457SOL     OW54338  10.843   1.776   1.024  0.0277 -0.0913  0.3231
48457SOL    HW154339  10.900   1.824   1.084 -2.3143  2.7066  0.4839
48457SOL    HW254340  10.757   1.779   1.065 -0.8891 -1.5255 -1.3610
48458SOL     OW54341   1.931   8.299   5.119  0.0773  0.1803  0.1237
48458SOL    HW154342   1.950   8.344   5.201  0.3301  0.4331 -0.0722
48458SOL    HW254343   1.881   8.362   5.068 -2.6394 -0.9493  1.1842
48459SOL     OW54344  11.716   6.884   8.497 -0.0298 -0.0456  0.0765
48459SOL    HW154345  11.635   6.888   8.548  0.2575  1.2542  0.4740
48459SOL    HW254346  11.771   6.953   8.534  0.7719 -0.0671 -1.0154
48460SOL     OW54347   7.185   7.399  12.292  0.1382  0.4838  0.0965
48460SOL    HW154348   7.269   7.401  12.336  1.2538  3.0701 -1.8476
48460SOL    HW254349   7.202   7.438  12.206 -2.2530 -2.5523 -1.9718
48461SOL     OW54350  11.108   0.263   4.411 -0.0104  0.1438  0.2266
48461SOL    HW154351  11.141   0.214   4.336 -0.5304  0.2764 -0.0992
48461SOL    HW254352  11.142   0.352   4.398 -1.0589  0.4678 -0.5073
48462SOL     OW54353  12.022   4.416   4.866  0.6486  0.0407 -0.4138
48462SOL    HW154354  12.047   4.470   4.791 -0.0673  1.1118  0.0936
48462SOL    HW254355  12.021   4.477   4.941 -0.6997 -0.5401  0.0795
48463SOL     OW54356  10.806   8.955   0.455  0.2246 -0.0727 -0.1162
48463SOL    HW154357  10.873   8.889   0.477  1.0698  0.5025 -0.8809
48463SOL    HW254358  10.743   8.908   0.400  0.9266 -0.2170 -0.8245
48464SOL     OW54359  10.238   5.388   1.818 -0.5731  0.3737  0.0898
48464SOL    HW154360  10.217   5.399   1.910 -0.6114  2.0401 -0.0974
48464SOL    HW254361  10.255   5.294   1.808 -0.0118  0.2601  1.8999
48465SOL     OW54362   7.427   5.429   5.703  0.1591  0.0304  0.6067
48465SOL    HW154363   7.348   5.481   5.687 -0.7518 -1.5590 -0.2631
48465SOL    HW254364   7.431   5.368   5.630  2.0984 -0.0611  0.7483
48466SOL     OW54365   9.250  10.340  11.185 -0.4479  0.1448  0.2568
48466SOL    HW154366   9.241  10.430  11.152  1.1282  0.3194  0.2332
48466SOL    HW254367   9.233  10.348  11.279  1.0505  0.7495  0.5048
48467SOL     OW54368  10.547   5.824  11.591  0.4101 -0.1077  0.0452
48467SOL    HW154369  10.606   5.756  11.624  2.2109  0.9458 -0.8604
48467SOL    HW254370  10.469   5.776  11.563  0.7300 -1.5265  1.4395
48468SOL     OW54371   4.819  11.450   6.324 -0.4533  0.1917 -0.3854
48468SOL    HW154372   4.783  11.365   6.347 -0.3350  0.4487  0.8080
48468SOL    HW254373   4.890  11.464   6.387  0.0928  0.7967 -1.1144
48469SOL     OW54374   4.433   7.754   1.299  0.0991  0.0130  0.4514
48469SOL    HW154375   4.451   7.848   1.300  0.8844 -0.1128 -0.2742
48469SOL    HW254376   4.338   7.747   1.299  0.0220  0.8425 -0.5580
48470SOL     OW54377   3.391   3.484  12.564 -0.2519  0.1447 -0.0951
48470SOL    HW154378   3.388   3.511  12.472  0.5763  1.7786  0.3285
48470SOL    HW254379   3.446   3.550  12.607  1.1688 -1.7644  1.1889
48471SOL     OW54380   3.962   9.547   9.703  0.4536  0.1195  0.5338
48471SOL    HW154381   3.989   9.631   9.740  0.7636 -0.1776  0.9943
48471SOL    HW254382   3.922   9.570   9.619  0.8232  0.6979  0.5063
48472SOL     OW54383   9.254   4.406   0.554  0.6128 -0.1111  0.5598
48472SOL    HW154384   9.346   4.381   0.563  1.1961  2.0901  1.5105
48472SOL    HW254385   9.207   4.323   0.540  2.4747 -1.5423  2.1884
48473SOL     OW54386   8.289   1.925   7.913  0.7902  0.3586 -0.5919
48473SOL    HW154387   8.312   1.837   7.941 -1.3386 -0.1120 -0.2143
48473SOL    HW254388   8.237   1.961   7.984  0.9235  1.6288 -1.1068
48474SOL     OW54389  11.060   7.575   3.766  0.2155  0.4607 -0.8367
48474SOL    HW154390  11.104   7.645   3.718  1.2395  0.7337  0.4228
48474SOL    HW254391  10.968   7.599   3.765  0.5102  1.6883 -0.6755
48475SOL     OW54392   6.830   3.325  10.618 -0.3224  0.2192  0.0687
48475SOL    HW154393   6.888   3.316  10.542 -0.9626  0.9661 -0.5312
48475SOL    HW254394   6.785   3.241  10.624  0.3324 -0.1289  0.1255
48476SOL     OW54395   6.573  11.987   7.186 -0.0417  0.3911 -0.2252
48476SOL    HW154396   6.592  11.989   7.092  1.0255  1.1858 -0.0092
48476SOL    HW254397   6.602  12.072   7.218  0.6785 -0.2887  1.0103
48477SOL     OW54398   4.634   2.527   0.174 -0.0631 -0.4553  0.2186
48477SOL    HW154399   4.654   2.456   0.113  0.6526  0.3192 -0.4654
48477SOL    HW254400   4.580   2.588   0.123  2.9487  1.6938 -0.7119
48478SOL     OW54401   3.315  10.977   0.219 -0.4039  0.0790  0.2269
48478SOL    HW154402   3.251  11.040   0.186  0.6736 -0.3879 -3.2074
48478SOL    HW254403   3.296  10.896   0.171  2.5383 -0.1185 -0.8163
48479SOL     OW54404  11.210   0.087   4.229 -0.2937  0.5365  0.5320
48479SOL    HW154405  11.141   0.027   4.202  1.2065 -1.7804  1.5592
48479SOL    HW254406  11.283   0.068   4.170  0.2065  1.3853  0.8633
48480SOL     OW54407  10.608   5.249   1.595  0.4689 -0.3418  0.8015
48480SOL    HW154408  10.537   5.291   1.545  0.4650  0.3209  1.3550
48480SOL    HW254409  10.599   5.156   1.575 -0.6140 -0.2800  0.9194
48481SOL     OW54410   4.222   9.114   2.237  0.2206  0.4830 -0.4271
48481SOL    HW154411   4.171   9.148   2.311 -1.6692 -0.3766 -1.2732
48481SOL    HW254412   4.222   9.186   2.174 -2.6730 -0.4692 -1.6812
48482SOL     OW54413   6.105   0.607   2.036  0.4059 -0.5687 -0.3990
48482SOL    HW154414   6.088   0.691   1.993  0.7216  0.7020  1.7999
48482SOL    HW254415   6.193   0.582   2.008  0.3402 -0.1241 -1.0097
48483SOL     OW54416   0.941   3.514  10.332 -0.2934  0.6679  0.2800
48483SOL    HW154417   0.873   3.556  10.385 -0.4542 -0.2104  0.7935
48483SOL    HW254418   0.999   3.473  10.397 -1.1492 -1.4411 -0.2262
48484SOL     OW54419   1.051   2.546   2.447  0.5733  0.2297  0.2546
48484SOL    HW154420   1.096   2.570   2.365  0.6964 -0.0571  0.2371
48484SOL    HW254421   1.110   2.576   2.516  0.1282  1.1507  0.2580
48485SOL     OW54422  10.091  10.584   2.639 -0.1239 -0.4084  0.3067
48485SOL    HW154423  10.099  10.502   2.687 -0.0576 -0.6273 -0.0742
48485SOL    HW254424  10.132  10.566   2.554 -1.7663 -0.5656 -0.5039
48486SOL     OW54425  11.054   5.644   3.929 -0.0974 -0.5388  0.1990
48486SOL    HW154426  11.058   5.735   3.960 -1.5723 -1.1576  2.5048
48486SOL    HW254427  11.020   5.650   3.840 -0.5959  1.1533  0.4746
48487SOL     OW54428   6.965   2.131   9.725 -0.2317 -0.5649  0.2427
48487SOL    HW154429   7.030   2.069   9.757  0.1822 -0.1233  0.2582
48487SOL    HW254430   6.929   2.171   9.804  0.8742  0.6107  0.1744
48488SOL     OW54431   5.142   8.688   2.719 -0.3010 -0.1734  0.2402
48488SOL    HW154432   5.152   8.774   2.677 -0.1092 -0.7254 -0.8754
48488SOL    HW254433   5.073   8.644   2.668  0.4291 -1.1226  0.0474
48489SOL     OW54434  12.331   8.218  12.174  0.6414  0.1261 -0.1841
48489SOL    HW154435  12.324   8.303  12.218  0.0971  0.1951 -0.3925
48489SOL    HW254436  12.279   8.158  12.228 -1.7414  0.6350 -1.7379
48490SOL     OW54437   7.461   4.516   2.511  0.0117 -1.4980  0.2577
48490SOL    HW154438   7.486   4.527   2.419  0.8733 -2.2659  0.3799
48490SOL    HW254439   7.366   4.520   2.511  0.0612  0.5200 -0.3860
48491SOL     OW54440   5.551   1.321   6.307  0.1833 -0.3471  0.1214
48491SOL    HW154441   5.639   1.311   6.269 -0.7510  0.2394 -2.4177
48491SOL    HW254442   5.532   1.235   6.346  2.1743 -0.2179  1.4801
48492SOL     OW54443  10.520   1.621   0.479  0.0775  0.5538  0.0886
48492SOL    HW154444  10.505   1.667   0.562  0.6300 -0.6317  0.8685
48492SOL    HW254445  10.594   1.668   0.439  1.2343 -0.1662  1.2998
48493SOL     OW54446  11.068   3.143   8.592 -0.1909 -0.1313 -0.1899
48493SOL    HW154447  11.028   3.164   8.507  0.0117 -0.3643 -0.3410
48493SOL    HW254448  11.056   3.223   8.643 -1.6918 -0.5009  0.0809
48494SOL     OW54449   2.364   9.174  11.297 -0.3739 -0.5008 -0.1517
48494SOL    HW154450   2.272   9.189  11.318 -0.1808 -0.8858  1.0118
48494SOL    HW254451   2.391   9.255  11.254 -0.8515  0.2649  0.9252
48495SOL     OW54452   9.146   6.027   7.680  0.0350  0.0387  0.1979
48495SOL    HW154453   9.117   5.941   7.649  2.6423 -0.6491 -0.5528
48495SOL    HW254454   9.139   6.021   7.776 -2.0130 -0.1084  0.0839
48496SOL     OW54455   0.553   6.787   0.949  0.0685 -0.3296  0.1779
48496SOL    HW154456   0.555   6.881   0.930  0.8208  0.0382  1.8818
48496SOL    HW254457   0.479   6.754   0.899 -0.2285  1.1800 -0.4261
48497SOL     OW54458  12.544   8.042   4.600  0.0561 -0.5007 -0.1190
48497SOL    HW154459  12.475   7.977   4.588 -0.0061 -0.4527 -0.0233
48497SOL    HW254460  12.502   8.112   4.649  0.5333 -1.0920  1.1827
48498SOL     OW54461  11.862   8.586  11.249  0.0072  0.9867 -0.2364
48498SOL    HW154462  11.828   8.657  11.195 -0.9565  0.2474 -0.6352
48498SOL    HW254463  11.904   8.630  11.322 -1.5491  1.9764  0.1277
48499SOL     OW54464  11.901   7.890   7.544  0.3471  0.3383  0.4889
48499SOL    HW154465  11.828   7.843   7.585 -0.8831 -0.3110 -2.1942
48499SOL    HW254466  11.966   7.822   7.527  0.1951  0.3080  0.0173
48500SOL     OW54467  11.101  10.232  11.669 -0.1366 -0.4012 -0.0732
48500SOL    HW154468  11.055  10.255  11.750 -1.3155 -1.4164 -0.4230
48500SOL    HW254469  11.032  10.222  11.604  0.4750 -2.6636 -0.4567
48501SOL     OW54470   6.041   7.376  12.127  0.1007  0.2188  0.0347
48501SOL    HW154471   6.061   7.346  12.038 -0.4600 -0.8812  0.2752
48501SOL    HW254472   6.079   7.310  12.184 -1.1353 -0.0370  0.5720
48502SOL     OW54473  10.352  10.415   8.802  0.2686  0.2733  0.9764
48502SOL    HW154474  10.444  10.399   8.781  0.1149  0.0121  0.4905
48502SOL    HW254475  10.342  10.510   8.798  0.1646  0.2221 -0.4830
48503SOL     OW54476   6.533   5.078   9.550 -0.3338  0.1837 -0.0512
48503SOL    HW154477   6.455   5.067   9.496  0.1280 -0.3216 -0.6241
48503SOL    HW254478   6.544   4.995   9.595 -0.1484  0.2696  0.0648
48504SOL     OW54479  12.222  12.442   2.840  0.2419  0.7798  0.0283
48504SOL    HW154480  12.233  12.364   2.786  3.0650  1.8890 -1.1762
48504SOL    HW254481  12.133  12.472   2.821 -0.0389 -0.7885 -1.3400
48505SOL     OW54482   4.582  11.584   1.955 -0.3270  0.1696 -0.2506
48505SOL    HW154483   4.573  11.621   2.043 -0.4530 -1.5173  0.5060
48505SOL    HW254484   4.492  11.567   1.927 -0.2506 -1.1514  0.1916
48506SOL     OW54485   3.336   7.879   2.912 -0.5526 -0.4440 -0.0333
48506SOL    HW154486   3.326   7.869   3.006 -2.9682  1.1654 -0.0270
48506SOL    HW254487   3.412   7.936   2.902 -0.1910 -0.7345  0.9084
48507SOL     OW54488  11.588   5.264   2.707  0.0432  0.5152  0.2041
48507SOL    HW154489  11.579   5.356   2.682  2.0966  1.5295  2.8220
48507SOL    HW254490  11.526   5.253   2.779 -0.1015 -0.1359 -0.0139
48508SOL     OW54491   0.953  12.550   5.941 -0.3043  0.6149  0.0431
48508SOL    HW154492   0.969  12.515   5.854 -0.5331  2.3090 -0.7336
48508SOL    HW254493   0.911  12.479   5.989  2.4961 -1.3739 -0.2279
48509SOL     OW54494   8.909   7.806   1.036 -0.3697 -0.2803 -0.2111
48509SOL    HW154495   8.942   7.753   0.964 -0.7054 -0.5798 -0.1503
48509SOL    HW254496   8.834   7.757   1.069 -0.2293 -0.1372  0.3294
48510SOL     OW54497  11.496   6.706  10.274  0.0322 -0.5318  0.3267
48510SOL    HW154498  11.589   6.705  10.297 -0.5796 -1.1725  3.1610
48510SOL    HW254499  11.475   6.615  10.256 -0.0115 -0.3442 -0.6308
48511SOL     OW54500   1.099   1.011   0.014  0.1145  0.4086  0.0598
48511SOL    HW154501   1.115   1.081   0.077  0.7863  0.1325  0.2132
48511SOL    HW254502   1.187   0.977  -0.007 -0.1470  0.0817 -0.5438
48512SOL     OW54503   5.604   0.764   4.018 -0.3521 -0.0190  0.4520
48512SOL    HW154504   5.692   0.794   3.994 -0.5007 -0.5067 -0.7726
48512SOL    HW254505   5.553   0.844   4.030  0.2357  0.2661  1.1547
48513SOL     OW54506   7.229   5.128   3.313  0.2256  0.0987  0.5454
48513SOL    HW154507   7.308   5.181   3.325  0.5344 -0.4880  1.2335
48513SOL    HW254508   7.260   5.038   3.322 -0.2407 -0.2186 -0.8656
48514SOL     OW54509   3.766  11.320   8.333 -0.0618 -0.0936 -0.8326
48514SOL    HW154510   3.826  11.388   8.303 -1.4262  1.1224 -0.8782
48514SOL    HW254511   3.817  11.239   8.325  0.3748  0.3731 -4.4114
48515SOL     OW54512   0.729  12.195  10.813  0.2954  0.2417  0.4114
48515SOL    HW154513   0.716  12.169  10.904 -1.0552  0.4791  0.3118
48515SOL    HW254514   0.651  12.162  10.768  0.6256  0.7150 -0.5294
48516SOL     OW54515   8.009   0.435   2.547  0.3737 -0.5357 -0.5629
48516SOL    HW154516   8.020   0.457   2.640 -2.3575 -0.6811 -0.1160
48516SOL    HW254517   7.917   0.409   2.540 -0.6002  2.9454 -3.9850
48517SOL     OW54518   8.128   7.913  10.298  0.0245  0.1146  0.2396
48517SOL    HW154519   8.033   7.928  10.297 -0.2573 -1.5207  0.2495
48517SOL    HW254520   8.150   7.907  10.391  0.1604  0.6017  0.2400
48518SOL     OW54521  10.714   9.352   8.395 -0.4011  0.0777  0.2315
48518SOL    HW154522  10.799   9.352   8.351 -1.1707  1.9889 -1.4224
48518SOL    HW254523  10.733   9.381   8.484  0.7780 -0.5505  0.2084
48519SOL     OW54524   9.089   7.969  11.631  0.6885  0.2880  0.0809
48519SOL    HW154525   9.129   7.893  11.673  0.9623  0.7719  0.7115
48519SOL    HW254526   9.090   7.948  11.537 -0.5447 -1.0968  0.3427
48520SOL     OW54527   0.287   6.286   2.592  0.0007  0.2937 -0.4284
48520SOL    HW154528   0.354   6.325   2.648  1.2437 -0.7222 -1.1496
48520SOL    HW254529   0.226   6.358   2.572 -0.2955  0.7475  1.9138
48521SOL     OW54530   5.530  10.100   4.122 -0.3125  0.4148  0.0457
48521SOL    HW154531   5.593  10.091   4.051  0.3547 -0.5486  0.7416
48521SOL    HW254532   5.555  10.181   4.166  0.2214  0.2285  0.0958
48522SOL     OW54533   7.543   0.882   0.575 -0.6394  0.1405 -0.1358
48522SOL    HW154534   7.508   0.969   0.593 -1.2677 -0.1520  0.0789
48522SOL    HW254535   7.626   0.878   0.623  0.0019  1.0509 -1.1200
48523SOL     OW54536   7.988   6.797   6.475 -0.1032  0.1265  0.3228
48523SOL    HW154537   8.083   6.806   6.486  0.2575 -0.9998 -1.4199
48523SOL    HW254538   7.975   6.799   6.380 -1.8239  0.1783  0.5328
48524SOL     OW54539  12.510   8.148   1.175  0.0171  0.8678 -0.3746
48524SOL    HW154540  12.455   8.092   1.229  0.5335  0.7663  0.0520
48524SOL    HW254541  12.451   8.215   1.141 -0.0618  1.7450  1.4110
48525SOL     OW54542  11.905   2.592   5.917 -0.1001 -0.4762 -0.3581
48525SOL    HW154543  11.869   2.504   5.916 -0.7381 -0.2261 -0.7476
48525SOL    HW254544  11.932   2.607   6.007  0.3334 -1.1886 -0.3641
48526SOL     OW54545  11.224   2.362   0.649  0.1506 -0.1240 -0.1866
48526SOL    HW154546  11.137   2.322   0.641 -0.1722  0.5663 -0.1502
48526SOL    HW254547  11.224   2.403   0.735  0.8199 -0.8315  0.1690
48527SOL     OW54548   0.854   0.105  11.407 -0.0928  0.2307  0.1953
48527SOL    HW154549   0.864   0.020  11.363  0.6502  0.6861 -0.5499
48527SOL    HW254550   0.890   0.091  11.494 -0.9703 -0.5070  0.4627
48528SOL     OW54551  11.029   6.608   7.649  0.6292  0.7163 -0.4378
48528SOL    HW154552  11.020   6.535   7.589 -0.0670 -0.4965  1.0784
48528SOL    HW254553  11.124   6.622   7.655  0.8757 -0.9845  0.2734
48529SOL     OW54554   2.327   1.328   7.355 -0.2611  0.2497 -0.0372
48529SOL    HW154555   2.359   1.318   7.266 -0.5142 -1.1969  0.0086
48529SOL    HW254556   2.259   1.261   7.364 -0.5895  0.7029  1.0830
48530SOL     OW54557  10.644   7.154   7.088 -0.4315 -0.4364 -0.2058
48530SOL    HW154558  10.582   7.164   7.015 -0.7973 -2.1814 -0.1760
48530SOL    HW254559  10.637   7.062   7.113 -0.2266  0.0909  1.9741
48531SOL     OW54560   8.549   7.894   7.847  0.2958  0.2173  0.2950
48531SOL    HW154561   8.548   7.963   7.780 -0.0002  0.6864  0.7674
48531SOL    HW254562   8.634   7.905   7.891 -0.1315  0.9007  0.9808
48532SOL     OW54563   7.300  11.725   5.059  0.2746 -0.3728  0.0440
48532SOL    HW154564   7.340  11.720   4.972 -1.0070 -0.9131 -0.5561
48532SOL    HW254565   7.295  11.634   5.088 -2.1499 -0.5575 -0.7299
48533SOL     OW54566  10.553   2.741  11.224  0.1073 -0.6886 -0.6068
48533SOL    HW154567  10.648   2.743  11.235 -0.1123  1.5896  1.6933
48533SOL    HW254568  10.522   2.680  11.290 -0.1343  0.3862  0.3068
48534SOL     OW54569   6.477   5.835   6.960 -0.5201  0.0883 -0.3857
48534SOL    HW154570   6.485   5.751   7.005  1.5108  1.1233  1.4265
48534SOL    HW254571   6.384   5.857   6.965 -1.1530 -2.1408 -1.1957
48535SOL     OW54572   7.562   8.622  12.401  0.0509  0.2470  0.4641
48535SOL    HW154573   7.519   8.589  12.323 -0.3092 -1.8968  1.5140
48535SOL    HW254574   7.512   8.701  12.424 -0.9408 -0.0831 -0.4652
48536SOL     OW54575   0.879   3.429  12.130  0.2654  0.6292  0.2914
48536SOL    HW154576   0.784   3.418  12.124  0.1248  0.9128  1.7901
48536SOL    HW254577   0.914   3.365  12.067 -0.9123  1.0726 -0.8686
48537SOL     OW54578  10.075   6.165   7.309  0.2186 -1.0813 -0.3769
48537SOL    HW154579  10.092   6.233   7.375  1.8275  0.8517 -2.6186
48537SOL    HW254580   9.998   6.196   7.262  0.2927 -1.3869 -0.7047
48538SOL     OW54581   7.725   5.448   1.477  0.2526 -0.0265 -0.2270
48538SOL    HW154582   7.696   5.514   1.414 -0.6998  1.0133  1.2321
48538SOL    HW254583   7.813   5.475   1.501  0.1314  0.3236 -0.1658
48539SOL     OW54584  11.056   5.764   4.358  0.2964  0.0440 -0.1431
48539SOL    HW154585  11.141   5.720   4.350  0.0837 -0.5829  0.8607
48539SOL    HW254586  11.037   5.797   4.270  1.8084  0.6301 -0.2729
48540SOL     OW54587   2.095   4.728   0.061  0.6272 -0.2864 -0.1797
48540SOL    HW154588   2.024   4.762   0.115  0.5190 -0.1360 -0.4113
48540SOL    HW254589   2.070   4.638   0.041 -0.2971  0.2327 -1.5693
48541SOL     OW54590   0.151  10.544   5.860  0.7711 -0.1205  0.3455
48541SOL    HW154591   0.155  10.463   5.910 -1.2467 -2.1968 -2.5146
48541SOL    HW254592   0.068  10.584   5.886  0.1955 -0.6973 -0.5523
48542SOL     OW54593  10.984   2.973   0.187 -0.1138  0.3774 -0.4598
48542SOL    HW154594  11.074   2.962   0.218 -0.7251 -1.0174  0.9315
48542SOL    HW254595  10.951   3.048   0.237 -0.5863 -0.8763  1.1981
48543SOL     OW54596   0.921  10.915   2.560 -0.0550  0.7680 -0.3540
48543SOL    HW154597   0.863  10.945   2.490  0.7796  0.8141 -1.0309
48543SOL    HW254598   0.953  10.995   2.601 -1.3142  0.7488  0.7620
48544SOL     OW54599   5.487  10.700   2.582  0.2244  0.1650  0.0876
48544SOL    HW154600   5.439  10.621   2.556  0.1444  0.1332  0.3270
48544SOL    HW254601   5.520  10.736   2.500  1.2566 -0.7541  0.0720
48545SOL     OW54602  12.182   4.883  11.320  0.0038 -0.1896  0.1773
48545SOL    HW154603  12.152   4.972  11.302  0.7771  0.0005 -0.2320
48545SOL    HW254604  12.233   4.859  11.243  0.7380 -0.5585  0.7602
48546SOL     OW54605   6.518   6.528   9.700 -0.5494  0.2578  0.2323
48546SOL    HW154606   6.456   6.456   9.695 -0.9836  0.4912  1.7679
48546SOL    HW254607   6.577   6.514   9.626 -1.2644 -1.0606 -0.1191
48547SOL     OW54608   1.220  12.098   9.007 -0.4558  0.3716 -0.0689
48547SOL    HW154609   1.134  12.126   8.977  0.3565  0.1646 -2.9378
48547SOL    HW254610   1.277  12.174   8.992  0.5876 -0.7230 -2.2250
48548SOL     OW54611   9.266  11.805   7.769  0.2232  0.1696 -0.3657
48548SOL    HW154612   9.186  11.765   7.804  0.2950 -1.2751 -1.7095
48548SOL    HW254613   9.298  11.862   7.839 -0.4405 -1.4199  1.3028
48549SOL     OW54614   2.587  11.572   9.789 -0.0402  0.2085  0.1768
48549SOL    HW154615   2.642  11.633   9.741 -0.5573  0.9331  0.4892
48549SOL    HW254616   2.587  11.605   9.879 -0.6278 -0.0301  0.2694
48550SOL     OW54617   2.487   9.475   2.031  0.0224  0.1188 -0.6347
48550SOL    HW154618   2.523   9.451   1.946 -0.3196 -0.8207 -0.5219
48550SOL    HW254619   2.560   9.519   2.076  0.3943  0.0661 -1.1740
48551SOL     OW54620   2.729   2.789   8.032 -0.2412 -0.2469  0.2103
48551SOL    HW154621   2.760   2.878   8.051 -0.3601 -0.3044  0.6902
48551SOL    HW254622   2.763   2.736   8.105  0.0889 -0.6546 -0.2295
48552SOL     OW54623  12.308  12.509   5.263  0.1694  0.2584  0.5540
48552SOL    HW154624  12.400  12.535   5.263 -0.3405  2.2566  0.0154
48552SOL    HW254625  12.282  12.510   5.171 -0.0967 -1.6232  0.5636
48553SOL     OW54626   0.981   1.399   3.647  0.9868 -0.7348 -0.0606
48553SOL    HW154627   1.049   1.356   3.698 -0.7502 -0.9415  2.2114
48553SOL    HW254628   0.939   1.460   3.708 -0.9459 -0.6984 -1.3458
48554SOL     OW54629   0.704  10.101  11.474  0.0249 -0.1078 -0.1865
48554SOL    HW154630   0.756  10.031  11.513 -0.4769  0.4380  1.5046
48554SOL    HW254631   0.762  10.178  11.477 -1.4048  1.0065  3.5108
48555SOL     OW54632   0.208  11.374   3.901  0.4761  0.2833  0.4443
48555SOL    HW154633   0.148  11.448   3.906 -0.6086 -0.5748  0.5160
48555SOL    HW254634   0.295  11.414   3.895 -0.0964  1.5505  0.2639
48556SOL     OW54635  11.669  11.711   6.735  0.0348 -0.1899  0.8579
48556SOL    HW154636  11.668  11.806   6.750  1.1778 -0.2856  1.6443
48556SOL    HW254637  11.761  11.691   6.718 -0.3030 -1.0672  0.0618
48557SOL     OW54638  10.816  11.010   7.584 -0.2444  0.2319  0.1472
48557SOL    HW154639  10.862  11.028   7.502  1.5797 -0.1652  1.0484
48557SOL    HW254640  10.805  10.915   7.585 -1.3703  0.3370 -0.1727
48558SOL     OW54641   3.823  10.709   0.297 -0.4333  0.5503 -0.3125
48558SOL    HW154642   3.864  10.745   0.376  0.0574  0.6816 -0.6210
48558SOL    HW254643   3.841  10.775   0.230 -0.1620  0.0696 -0.7154
48559SOL     OW54644  10.767   0.261   1.750  0.4060 -0.5691 -0.0581
48559SOL    HW154645  10.850   0.236   1.791  1.1811  0.4343 -0.9648
48559SOL    HW254646  10.719   0.306   1.819  1.6494  1.0004 -0.1436
48560SOL     OW54647  12.579  12.115   6.928 -0.5827 -0.0841  0.1928
48560SOL    HW154648  12.530  12.047   6.976 -1.4247 -0.1999 -0.7846
48560SOL    HW254649  12.668  12.080   6.922 -1.0047 -1.1307 -0.3113
48561SOL     OW54650   3.787   9.061  11.955 -0.5880  0.7173  0.0119
48561SOL    HW154651   3.850   9.041  12.024 -1.7104 -0.0317  0.8475
48561SOL    HW254652   3.830   9.032  11.874  0.0651  0.0725  0.5791
48562SOL     OW54653   8.981  12.384   9.774 -0.5040 -0.1579 -0.2616
48562SOL    HW154654   9.057  12.436   9.801 -0.9975 -0.1063  1.1004
48562SOL    HW254655   8.975  12.399   9.679 -0.1294  1.6070 -0.0429
48563SOL     OW54656   9.618  11.029   7.311  0.0885  0.3488 -0.5836
48563SOL    HW154657   9.612  11.013   7.217 -1.7818  0.9790 -0.6237
48563SOL    HW254658   9.575  11.114   7.324  1.2755  0.8011  0.7260
48564SOL     OW54659   4.936   5.307   2.617  0.9057  0.0749 -0.0796
48564SOL    HW154660   4.886   5.260   2.550  0.1589  1.2050 -0.3454
48564SOL    HW254661   4.977   5.380   2.570 -0.3869  1.4453  0.7981
48565SOL     OW54662   4.118  10.425  12.276  0.2463 -0.0053 -0.3993
48565SOL    HW154663   4.107  10.343  12.227  2.6897 -1.8664  1.8540
48565SOL    HW254664   4.184  10.474  12.227 -0.5911  0.2747 -1.2892
48566SOL     OW54665  12.505  10.514   5.149 -0.2432 -0.1889  0.0945
48566SOL    HW154666  12.466  10.588   5.101 -2.3419 -2.0360 -1.2748
48566SOL    HW254667  12.597  10.514   5.123 -0.8889  0.0992 -2.4635
48567SOL     OW54668   7.397   6.407   4.675 -0.2533  0.2239 -0.0896
48567SOL    HW154669   7.440   6.383   4.757  2.6489 -0.7365 -1.7466
48567SOL    HW254670   7.441   6.488   4.648 -0.8728  0.2992 -0.9042
48568SOL     OW54671   2.318   4.173  11.606 -0.1964 -0.0638  0.4960
48568SOL    HW154672   2.397   4.141  11.649  0.0130 -2.3823 -1.3957
48568SOL    HW254673   2.252   4.173  11.675  1.0774  0.4888  1.7658
48569SOL     OW54674   5.176   6.639  10.531  0.3719 -0.0618  0.7366
48569SOL    HW154675   5.116   6.604  10.597  0.4113  0.4213  1.0347
48569SOL    HW254676   5.154   6.592  10.451  1.0511 -1.4552  1.3297
48570SOL     OW54677   6.604   9.808   9.529 -0.1170 -0.1878 -0.5448
48570SOL    HW154678   6.595   9.886   9.475  0.8406 -0.6851 -1.4495
48570SOL    HW254679   6.613   9.841   9.618  1.0940  0.7792 -1.0122
48571SOL     OW54680   7.070  11.453  12.038  0.2827 -0.4094  0.1676
48571SOL    HW154681   6.996  11.432  12.095  0.2365 -0.1273  0.2138
48571SOL    HW254682   7.076  11.548  12.041  0.2691 -0.3898 -0.3153
48572SOL     OW54683   2.097   9.846   8.275  0.0183  0.1873  0.3126
48572SOL    HW154684   2.044   9.774   8.240 -0.0282 -0.1015  0.9501
48572SOL    HW254685   2.089   9.916   8.210  0.9367 -0.7459 -0.8502
48573SOL     OW54686  10.282   2.803   7.356 -0.5457 -0.1502  0.6576
48573SOL    HW154687  10.358   2.805   7.414 -1.5060  1.1616  1.9556
48573SOL    HW254688  10.229   2.731   7.388 -0.0245 -0.8846 -0.0720
48574SOL     OW54689   1.196   2.974   2.453  0.6843  0.0148  0.2537
48574SOL    HW154690   1.181   2.887   2.490  0.6486 -0.3415 -0.5679
48574SOL    HW254691   1.271   3.008   2.501  1.1582 -0.7750  0.0899
48575SOL     OW54692   4.838   4.064   2.284 -0.0030 -0.2870 -0.4077
48575SOL    HW154693   4.894   3.990   2.261  0.3215 -0.2985  0.3627
48575SOL    HW254694   4.750   4.027   2.292  0.2140 -0.6660  0.3059
48576SOL     OW54695   8.442   7.577  12.479 -0.4156 -0.4580 -0.4982
48576SOL    HW154696   8.460   7.490  12.514  1.2647 -0.1696 -0.5552
48576SOL    HW254697   8.494   7.636  12.534 -0.4407  0.3532 -1.3259
48577SOL     OW54698   4.020   5.147  11.826  0.5087 -0.1785  0.4027
48577SOL    HW154699   4.037   5.060  11.862  0.7314  0.0543  0.8706
48577SOL    HW254700   3.925   5.156  11.829  0.5724  0.2809  2.0164
48578SOL     OW54701   4.707   1.405   8.884 -0.5970 -0.1587  0.0228
48578SOL    HW154702   4.667   1.319   8.874 -0.7033 -0.0923 -0.1180
48578SOL    HW254703   4.729   1.410   8.977 -1.0816 -0.1181  0.1364
48579SOL     OW54704   9.918   7.927   6.011  0.1478 -0.4587  0.0288
48579SOL    HW154705   9.848   7.864   5.993  0.1389 -0.8639  1.4293
48579SOL    HW254706   9.990   7.874   6.046  0.7042  0.1211 -0.2182
48580SOL     OW54707   8.175  11.096  11.851 -0.1687 -0.7300 -0.9121
48580SOL    HW154708   8.265  11.103  11.884 -0.4933 -0.8432  0.0404
48580SOL    HW254709   8.145  11.186  11.844 -0.4133 -0.7317  0.0290
48581SOL     OW54710  12.008  12.386   2.624  0.0134  0.2257  0.0347
48581SOL    HW154711  12.060  12.329   2.567 -1.1237 -1.8392  0.9479
48581SOL    HW254712  11.934  12.414   2.570  0.8661  1.3678 -0.5901
48582SOL     OW54713   2.916   1.587   5.947 -0.2243  0.3144  0.2434
48582SOL    HW154714   2.889   1.502   5.913  1.4115 -0.4672  0.7680
48582SOL    HW254715   2.966   1.626   5.875  1.6190 -0.5310  0.9766
48583SOL     OW54716   2.104  11.291   2.395 -0.3810 -0.4935 -0.1902
48583SOL    HW154717   2.191  11.265   2.426  0.3883  0.7348 -1.2085
48583SOL    HW254718   2.122  11.349   2.321 -2.1046 -1.1268 -1.1515
48584SOL     OW54719   3.614  12.022  11.203  0.0681  0.0407  0.4912
48584SOL    HW154720   3.654  11.935  11.206 -1.4257 -0.7120 -0.2968
48584SOL    HW254721   3.547  12.015  11.134 -1.0748  1.3736  1.4181
48585SOL     OW54722   8.576   8.158  10.180 -0.1109  0.0099 -0.1034
48585SOL    HW154723   8.627   8.224  10.132  1.3155 -0.2237  1.0274
48585SOL    HW254724   8.542   8.205  10.256  0.6183 -0.4521  0.5210
48586SOL     OW54725   0.916   7.425   7.619  0.8902  0.3976 -0.6156
48586SOL    HW154726   0.901   7.360   7.687  0.5549  1.0398 -0.0535
48586SOL    HW254727   0.829   7.461   7.600  0.7493 -0.7805 -2.4548
48587SOL     OW54728  11.808   8.768  12.358  0.0381  0.7060  0.1917
48587SOL    HW154729  11.878   8.787  12.295  1.1594 -0.2339  1.1032
48587SOL    HW254730  11.779   8.680  12.336  0.2914  0.4541  0.8474
48588SOL     OW54731   3.064   0.018  10.461  0.2801  0.1211  0.2551
48588SOL    HW154732   2.993  -0.025  10.509  0.0308  1.7476  1.3994
48588SOL    HW254733   3.120   0.055  10.529  0.4095  1.7001 -0.6758
48589SOL     OW54734   5.754   5.858   5.033 -0.7659 -0.3688 -0.2553
48589SOL    HW154735   5.803   5.940   5.026 -2.6829  0.7366 -1.4651
48589SOL    HW254736   5.799   5.798   4.974  0.6173 -0.2148  0.5926
48590SOL     OW54737   1.000   6.010   3.237 -0.1195 -0.1564  0.2803
48590SOL    HW154738   1.038   6.082   3.287  1.8014 -0.4413 -0.6555
48590SOL    HW254739   1.075   5.954   3.215 -1.1927 -1.1454 -1.0873
48591SOL     OW54740   9.265   6.454  10.320 -0.7382  0.7578  0.0804
48591SOL    HW154741   9.353   6.486  10.340 -0.6565  0.8503 -0.4264
48591SOL    HW254742   9.267   6.361  10.343 -0.2577  0.5667 -0.7081
48592SOL     OW54743   1.257   1.618   6.561 -0.0871 -0.0250  0.7087
48592SOL    HW154744   1.199   1.574   6.624 -0.3065 -0.0484  0.4915
48592SOL    HW254745   1.224   1.708   6.558 -1.2930 -0.4759 -0.7977
48593SOL     OW54746  11.555   4.700   3.906  0.0239  0.4003  0.2606
48593SOL    HW154747  11.481   4.716   3.964 -0.8059 -0.1475 -0.6029
48593SOL    HW254748  11.615   4.646   3.957 -1.9038 -2.3870 -0.1676
48594SOL     OW54749   5.660  12.408   3.405  0.5260 -0.4331  0.0662
48594SOL    HW154750   5.724  12.361   3.351  0.1396 -0.8740 -0.0138
48594SOL    HW254751   5.697  12.407   3.493  0.1781 -1.5474  0.2157
48595SOL     OW54752   5.772  11.249   3.986  0.3655 -0.7297  0.1332
48595SOL    HW154753   5.768  11.167   3.937  0.3242 -0.0657 -1.0178
48595SOL    HW254754   5.696  11.245   4.044 -0.5405 -0.8420 -1.0223
48596SOL     OW54755   0.352   8.213   7.360  0.3430 -0.5231  0.6877
48596SOL    HW154756   0.413   8.273   7.402 -1.7299  1.5044  0.9758
48596SOL    HW254757   0.283   8.200   7.425 -2.4120  1.8749 -1.5088
48597SOL     OW54758   7.686   1.395   1.364  0.1000 -0.3539 -0.0661
48597SOL    HW154759   7.647   1.425   1.281  0.3853  1.3119  0.3513
48597SOL    HW254760   7.633   1.321   1.391  0.0015 -0.9268 -1.7419
48598SOL     OW54761   7.239   2.960   8.720 -0.3167  0.1096  0.0390
48598SOL    HW154762   7.286   2.981   8.640 -1.2993  3.6595  0.2529
48598SOL    HW254763   7.151   2.934   8.691  0.6859 -3.6656 -0.1745
48599SOL     OW54764   7.610   5.686   2.046 -0.5011  0.8037 -0.4306
48599SOL    HW154765   7.545   5.673   1.977 -1.6631 -0.7985  0.8783
48599SOL    HW254766   7.592   5.774   2.080 -1.7661  0.5181 -0.3280
48600SOL     OW54767   8.119   5.632  10.622  0.2469 -0.1129 -0.4452
48600SOL    HW154768   8.025   5.642  10.633  0.4334 -0.4915  1.9383
48600SOL    HW254769   8.149   5.719  10.596 -0.4436  0.8033  1.6287
48601SOL     OW54770   5.055   6.738   7.907 -0.0915  0.3737 -0.2856
48601SOL    HW154771   5.112   6.706   7.976  0.3275 -1.2178 -1.3135
48601SOL    HW254772   5.112   6.747   7.831 -0.6730  1.4996 -0.6183
48602SOL     OW54773   6.183   5.034   5.437  0.3380  0.2558  0.5375
48602SOL    HW154774   6.183   5.097   5.365  1.6130 -1.2739 -0.8802
48602SOL    HW254775   6.205   5.086   5.514 -0.3606  1.8152 -0.2700
48603SOL     OW54776   0.497   7.877   7.443  0.1255  0.3227 -0.1133
48603SOL    HW154777   0.420   7.899   7.391 -0.1375 -0.5701 -0.1171
48603SOL    HW254778   0.462   7.830   7.519  0.5760  0.8925  0.4532
48604SOL     OW54779   1.749  11.542  10.648 -0.2605 -0.5736 -0.2463
48604SOL    HW154780   1.722  11.545  10.557  1.2376  0.0524 -0.6905
48604SOL    HW254781   1.770  11.633  10.670  0.0556 -0.8231  0.5143
48605SOL     OW54782  11.444   8.960   6.380 -0.0412  0.2860 -0.0371
48605SOL    HW154783  11.526   8.995   6.417 -0.6613  0.5057  1.1912
48605SOL    HW254784  11.381   9.032   6.390 -0.5175 -0.0619 -0.4831
48606SOL     OW54785   8.630   7.931  11.661 -0.4684 -0.0924 -1.0601
48606SOL    HW154786   8.585   7.875  11.725  0.3098  0.1336 -0.2971
48606SOL    HW254787   8.711   7.957  11.705 -0.4237  0.9467 -1.7276
48607SOL     OW54788   2.604   7.153   1.031 -0.5639 -0.3995 -0.0470
48607SOL    HW154789   2.659   7.106   1.094 -0.2892 -0.6266 -0.4556
48607SOL    HW254790   2.548   7.209   1.086 -0.1014 -0.3474  0.3810
48608SOL     OW54791   3.648   4.931   0.235 -0.1185 -0.1586 -0.2764
48608SOL    HW154792   3.615   4.845   0.260  1.1797 -0.7851 -0.6512
48608SOL    HW254793   3.742   4.920   0.226 -0.0641  0.9862 -1.5516
48609SOL     OW54794   4.416  11.190  10.678 -0.0334  0.5862 -0.2952
48609SOL    HW154795   4.479  11.139  10.626 -0.2494  1.6901 -1.6742
48609SOL    HW254796   4.371  11.246  10.614  0.0670  2.3875  1.1372
48610SOL     OW54797   8.187  10.289   3.302 -0.6156 -0.6044 -0.0894
48610SOL    HW154798   8.175  10.227   3.375 -3.5094 -0.2660 -0.1654
48610SOL    HW254799   8.155  10.372   3.336  0.1536  0.1128 -1.0595
48611SOL     OW54800   0.722   9.651  10.174  0.4700  0.0380 -0.3154
48611SOL    HW154801   0.777   9.627  10.248 -1.7449 -1.3476  0.9743
48611SOL    HW254802   0.740   9.584  10.108 -1.0216 -1.5902  0.8532
48612SOL     OW54803  11.916   6.051   1.429 -0.1650  0.0068 -0.0156
48612SOL    HW154804  11.901   6.019   1.340  0.0583  1.7437 -0.7176
48612SOL    HW254805  12.011   6.056   1.437 -0.1889 -0.0427  0.2784
48613SOL     OW54806   1.265   2.230   7.904 -0.0694  0.0711 -0.3644
48613SOL    HW154807   1.244   2.254   7.814  2.1846 -0.7887 -1.1846
48613SOL    HW254808   1.308   2.308   7.940  0.9788 -0.3132 -0.7591
48614SOL     OW54809   3.928  12.406  11.532  0.2170 -0.7511 -0.0763
48614SOL    HW154810   3.917  12.343  11.461 -1.1036 -0.9918  0.3107
48614SOL    HW254811   3.923  12.491  11.488  0.6600 -0.9057 -0.4317
48615SOL     OW54812   5.179   4.549  11.795  0.1298 -0.4217  0.6889
48615SOL    HW154813   5.087   4.566  11.814 -0.2948 -2.4049  0.6468
48615SOL    HW254814   5.191   4.578  11.704 -0.5643 -0.5655  0.5480
48616SOL     OW54815   8.580   4.775   7.427 -0.1268  0.1113 -0.0025
48616SOL    HW154816   8.522   4.700   7.433  0.7602 -0.6543 -0.7204
48616SOL    HW254817   8.577   4.815   7.514 -0.5601 -0.7885  0.4036
48617SOL     OW54818   6.480   2.833   1.254 -0.2865  0.1367  0.1759
48617SOL    HW154819   6.423   2.886   1.310 -2.0902 -2.0091  0.4934
48617SOL    HW254820   6.492   2.886   1.175 -0.1864  1.9288  1.3377
48618SOL     OW54821   0.485   3.332   3.129 -0.1620  0.2064 -0.2086
48618SOL    HW154822   0.421   3.372   3.069  0.3233  1.1386 -0.1276
48618SOL    HW254823   0.494   3.396   3.199 -0.7901 -0.9174  0.9257
48619SOL     OW54824  10.310   8.334   3.285  0.2373  0.6041 -0.0359
48619SOL    HW154825  10.245   8.371   3.345 -0.6242 -0.0813 -0.5276
48619SOL    HW254826  10.272   8.345   3.198  0.7423  0.1099 -0.3257
48620SOL     OW54827   0.253   2.141  11.480 -0.3954  0.2120 -0.1286
48620SOL    HW154828   0.329   2.086  11.461 -0.3759  0.0550  0.3701
48620SOL    HW254829   0.223   2.173  11.395  1.2242  1.6272 -0.2089
48621SOL     OW54830  12.568   3.605   6.114 -1.0636  0.1038  0.3713
48621SOL    HW154831  12.544   3.565   6.030 -0.2587 -1.3699  0.8070
48621SOL    HW254832  12.596   3.694   6.091 -0.3832 -0.4373 -0.9865
48622SOL     OW54833   5.044   0.378   7.370 -0.1105 -0.1310  0.5110
48622SOL    HW154834   5.129   0.364   7.327 -0.5180 -0.6743 -0.1465
48622SOL    HW254835   5.066   0.402   7.460  0.8254  2.6662 -0.3520
48623SOL     OW54836   9.130  10.270   6.422 -0.2937 -0.1762 -0.0509
48623SOL    HW154837   9.119  10.264   6.327 -0.6150  0.2201 -0.0403
48623SOL    HW254838   9.111  10.361   6.443 -0.3592 -0.2941  0.4139
48624SOL     OW54839   0.839  12.178  11.714 -0.8228  0.3894 -0.2431
48624SOL    HW154840   0.800  12.113  11.773  1.7902  0.4847  1.7719
48624SOL    HW254841   0.847  12.257  11.768  1.1914  0.6434 -0.8366
48625SOL     OW54842  11.146   3.217  11.409 -0.0648  0.2278  0.1504
48625SOL    HW154843  11.185   3.297  11.375  1.0908  0.5853  2.1288
48625SOL    HW254844  11.052   3.231  11.403  0.0738  2.4141  1.8072
48626SOL     OW54845  10.775   2.874   7.831 -0.3229  0.1264  0.2855
48626SOL    HW154846  10.793   2.934   7.759 -1.4594 -1.5832 -1.5006
48626SOL    HW254847  10.791   2.787   7.795 -2.4663 -0.8753  1.5635
48627SOL     OW54848  11.817   6.463   8.300  0.1625 -0.4101 -0.1939
48627SOL    HW154849  11.866   6.451   8.219 -1.9817  0.2425 -1.6766
48627SOL    HW254850  11.778   6.377   8.318 -0.4691 -0.2288 -0.6528
48628SOL     OW54851  10.345   8.687   9.374  0.3871  0.0314  0.4311
48628SOL    HW154852  10.307   8.602   9.351  0.4174  0.1589 -0.0904
48628SOL    HW254853  10.272   8.736   9.411  0.2010  0.0279  0.0755
48629SOL     OW54854   6.778   5.248   0.778  0.3854  0.8410 -0.2955
48629SOL    HW154855   6.756   5.225   0.868  3.6121 -0.7032  0.2573
48629SOL    HW254856   6.832   5.326   0.785 -0.9900  1.9228 -1.1512
48630SOL     OW54857  10.522   3.460   3.328 -0.0665 -0.5558  0.0530
48630SOL    HW154858  10.432   3.490   3.337 -0.0357 -0.4298 -0.0617
48630SOL    HW254859  10.515   3.369   3.300 -0.1698 -0.8909  1.1070
48631SOL     OW54860  12.436   2.337  11.010 -0.0203  0.0525  0.5542
48631SOL    HW154861  12.440   2.376  11.097 -1.2731 -1.0903  1.1588
48631SOL    HW254862  12.515   2.368  10.966  0.7423  0.4949  2.1621
48632SOL     OW54863   9.020   9.235   0.173  0.0283  0.1702  0.2301
48632SOL    HW154864   9.034   9.330   0.168  2.4158 -0.1896 -1.5814
48632SOL    HW254865   9.077   9.199   0.106 -1.0765 -2.5684  0.6444
48633SOL     OW54866   1.805   0.946  10.929  0.5481  0.4750  0.4622
48633SOL    HW154867   1.775   0.936  11.020 -1.3477  0.3195 -0.1438
48633SOL    HW254868   1.900   0.958  10.937  0.6492 -1.0894  2.3477
48634SOL     OW54869  10.226   3.163   5.254 -0.0310  0.1586 -0.2845
48634SOL    HW154870  10.197   3.086   5.206  2.0849 -0.4241 -0.7193
48634SOL    HW254871  10.145   3.203   5.286 -1.3717 -0.7437 -2.2958
48635SOL     OW54872   2.383   0.678  10.598  0.4170  0.5814 -0.1522
48635SOL    HW154873   2.406   0.625  10.522  0.2452  1.1327 -0.5974
48635SOL    HW254874   2.448   0.749  10.599  0.4735  0.5297  0.2652
48636SOL     OW54875   9.354   7.042   1.112 -0.0860  0.1816  0.1649
48636SOL    HW154876   9.298   6.968   1.131 -1.2012  1.1359  0.7309
48636SOL    HW254877   9.376   7.078   1.199  1.6888 -0.3517 -0.0130
48637SOL     OW54878  11.160   2.345  10.579 -0.3131  0.1463  0.3370
48637SOL    HW154879  11.110   2.267  10.557  1.4203 -0.2785 -2.7373
48637SOL    HW254880  11.100   2.418  10.565 -0.9606 -0.5030 -0.3568
48638SOL     OW54881   4.894   9.086   8.558 -0.5991 -0.1873  0.0675
48638SOL    HW154882   4.825   9.043   8.608 -0.6706  1.3599  1.4022
48638SOL    HW254883   4.892   9.177   8.589  2.2429 -0.1633  0.4330
48639SOL     OW54884   1.559   5.036   2.236  0.2072 -0.0145 -0.0484
48639SOL    HW154885   1.617   5.007   2.166  0.3176 -1.0420  0.4506
48639SOL    HW254886   1.553   4.961   2.296 -1.6247  0.0439 -0.0849
48640SOL     OW54887  10.311   8.766   8.961  0.1186 -0.0847 -0.1923
48640SOL    HW154888  10.294   8.855   8.931 -0.0028 -0.1833 -0.4143
48640SOL    HW254889  10.347   8.722   8.885 -0.2807 -0.3621 -0.2219
48641SOL     OW54890  12.185   2.480   4.853  0.0106 -0.7327 -0.3510
48641SOL    HW154891  12.186   2.541   4.779 -3.9351  0.8378  0.6524
48641SOL    HW254892  12.143   2.401   4.818 -1.0684 -0.3057 -0.0614
48642SOL     OW54893   6.880   0.430   9.770  0.2658 -0.1196 -0.0405
48642SOL    HW154894   6.933   0.366   9.816 -1.2135 -0.3660  1.4044
48642SOL    HW254895   6.930   0.512   9.777  0.0141 -0.0894  2.2518
48643SOL     OW54896   9.420   1.387   0.999  0.1147  0.2355  0.5435
48643SOL    HW154897   9.340   1.399   0.948  1.7916  1.1607 -2.0997
48643SOL    HW254898   9.434   1.292   1.001 -0.8375  0.0956  0.7245
48644SOL     OW54899   8.655   0.467   0.515 -0.2798  0.1801 -0.2077
48644SOL    HW154900   8.662   0.447   0.422 -0.6504 -1.7602  0.1339
48644SOL    HW254901   8.652   0.381   0.558  0.7221  1.0119  1.6674
48645SOL     OW54902   1.077   7.398   2.298  0.5321  0.0081 -0.0867
48645SOL    HW154903   1.015   7.378   2.228 -0.0110 -0.3399  0.4848
48645SOL    HW254904   1.053   7.485   2.328  1.3599  0.5487 -0.9507
48646SOL     OW54905   9.174   8.681   7.201 -0.3682 -0.4577  0.3784
48646SOL    HW154906   9.142   8.683   7.110 -0.7675  3.6519  0.4208
48646SOL    HW254907   9.263   8.716   7.196 -0.5523  0.2470  1.5572
48647SOL     OW54908  10.040   6.106  10.725 -0.3724 -0.6234 -0.0076
48647SOL    HW154909  10.000   6.142  10.803 -3.0648  0.5588 -1.8049
48647SOL    HW254910  10.054   6.013  10.746 -0.5052 -0.2248  2.0209
48648SOL     OW54911  12.003   7.161   5.653  0.0112  0.0634  0.0149
48648SOL    HW154912  12.028   7.254   5.654 -0.1798  0.1196 -0.4297
48648SOL    HW254913  12.073   7.118   5.703 -0.1467  0.5032  0.6350
48649SOL     OW54914   1.450  11.146   7.947 -0.1421  0.5497 -0.3523
48649SOL    HW154915   1.517  11.118   7.884  0.3589 -0.9959  0.7916
48649SOL    HW254916   1.470  11.237   7.965  0.0113  0.8847 -2.0281
48650SOL     OW54917   5.194  10.063   6.965  0.3635  0.1468  0.6182
48650SOL    HW154918   5.282  10.030   6.944  1.1348  2.8459 -0.7316
48650SOL    HW254919   5.139  10.030   6.895  0.8784  0.7197 -0.0634
48651SOL     OW54920  11.482   1.779  10.136  0.1005 -0.1625 -0.0320
48651SOL    HW154921  11.538   1.755  10.062 -1.5276  1.2512 -1.8138
48651SOL    HW254922  11.395   1.790  10.098 -0.8086  0.6376  2.1081
48652SOL     OW54923   0.521   1.664   6.823  0.3785  0.6639  0.3830
48652SOL    HW154924   0.609   1.629   6.839 -0.2986 -0.8298  1.1268
48652SOL    HW254925   0.507   1.728   6.892 -0.0703 -1.0384  1.9608
48653SOL     OW54926   1.733   0.481   2.209 -0.4203 -0.7289  1.2950
48653SOL    HW154927   1.822   0.492   2.240  1.4328 -1.3080 -3.0504
48653SOL    HW254928   1.697   0.569   2.205 -0.0906 -0.4906  3.0637
48654SOL     OW54929  11.476   7.761   5.853 -0.1749  0.2904  0.5657
48654SOL    HW154930  11.463   7.737   5.945  0.6842  1.6039  1.0596
48654SOL    HW254931  11.456   7.854   5.849 -1.6077 -0.0362 -0.9049
48655SOL     OW54932  11.848   7.205   6.531  0.5232 -0.0077  0.4902
48655SOL    HW154933  11.909   7.132   6.535  2.2146  1.2408 -0.9587
48655SOL    HW254934  11.900   7.281   6.557 -0.3768  1.1039 -0.8308
48656SOL     OW54935   5.790   7.616   5.793  0.4319  0.2385 -0.2100
48656SOL    HW154936   5.800   7.629   5.698 -1.7882  1.5436 -0.3222
48656SOL    HW254937   5.843   7.685   5.832  2.3005 -1.0030 -0.4111
48657SOL     OW54938  11.064   7.656  10.386  0.4801 -0.4172 -0.4917
48657SOL    HW154939  11.102   7.679  10.301  0.2768  1.1099 -0.1963
48657SOL    HW254940  10.975   7.629  10.366  0.8144 -1.2896 -0.8792
48658SOL     OW54941   8.706   0.859   7.836 -0.1690 -0.7585 -0.1334
48658SOL    HW154942   8.616   0.877   7.864  0.2035 -1.3614  1.6406
48658SOL    HW254943   8.696   0.808   7.756 -1.3585  0.2938 -0.7025
48659SOL     OW54944   8.402   6.734   8.195  0.5964 -0.1611  0.6023
48659SOL    HW154945   8.381   6.827   8.191  1.1445 -0.0523  0.0052
48659SOL    HW254946   8.462   6.726   8.269 -0.3342 -0.2338  1.3726
48660SOL     OW54947   8.210   7.517   4.923  0.2180 -0.3365  0.4154
48660SOL    HW154948   8.197   7.609   4.902  0.0888 -0.2932  0.6848
48660SOL    HW254949   8.270   7.486   4.856  1.2580  0.2537  1.0379
48661SOL     OW54950  11.024   2.088   1.379  0.0610  0.5289  0.9545
48661SOL    HW154951  11.048   2.181   1.385  1.9668  0.0926  0.8244
48661SOL    HW254952  11.098   2.042   1.420 -0.3949 -0.9773  0.1454
48662SOL     OW54953   9.924   4.657   4.972  0.2484  0.0630  0.5827
48662SOL    HW154954   9.925   4.684   4.880  1.5266 -2.0809 -0.0949
48662SOL    HW254955   9.839   4.613   4.983 -0.2409  1.0100  0.6683
48663SOL     OW54956   6.960  10.294   6.189  0.1041 -0.1436  0.1167
48663SOL    HW154957   6.949  10.200   6.176 -1.1596  0.2835 -2.7230
48663SOL    HW254958   7.054  10.306   6.200  0.2389 -1.7635  1.0486
48664SOL     OW54959   2.625  12.597  12.013  0.9439 -0.5151 -0.2519
48664SOL    HW154960   2.666  12.673  11.970 -0.8505  1.1922  0.8495
48664SOL    HW254961   2.531  12.611  12.001  0.4603 -1.1692  2.1903
48665SOL     OW54962  10.043   7.062   9.522 -0.0805  0.5244  0.0260
48665SOL    HW154963  10.117   7.064   9.583  0.2332 -1.4445 -0.2142
48665SOL    HW254964   9.976   7.115   9.564  0.5384  0.1682  1.5426
48666SOL     OW54965   8.960   2.351   7.909  0.4987  0.1866 -0.0139
48666SOL    HW154966   8.921   2.352   7.822  0.2320 -0.9460  0.0689
48666SOL    HW254967   8.898   2.398   7.964 -0.5453 -1.1878  0.0210
48667SOL     OW54968   1.050   1.121   7.333 -0.4265 -0.3227 -0.0346
48667SOL    HW154969   0.997   1.042   7.330 -0.4430 -0.3737  1.0965
48667SOL    HW254970   1.140   1.089   7.341 -0.4994 -0.2610  1.3568
48668SOL     OW54971  12.282   4.403   7.010 -0.5625  0.9575  0.0866
48668SOL    HW154972  12.275   4.319   7.056 -0.7923  1.2162  0.5303
48668SOL    HW254973  12.369   4.435   7.032 -0.3094  0.6357 -0.4314
48669SOL     OW54974  10.160  10.526   6.824  0.4029 -0.5131  0.0988
48669SOL    HW154975  10.088  10.491   6.772 -0.3759  2.1458 -0.7853
48669SOL    HW254976  10.118  10.581   6.890  1.5575 -0.3516  0.7282
48670SOL     OW54977  10.589  12.215   6.636 -0.8067  0.1467 -0.2170
48670SOL    HW154978  10.678  12.247   6.653 -0.5431 -1.1777  1.2060
48670SOL    HW254979  10.582  12.135   6.689 -3.0426  0.5022  0.1268
48671SOL     OW54980   8.286   9.168   3.249 -0.2184  0.1956 -0.2247
48671SOL    HW154981   8.298   9.141   3.339  0.9941  1.0582 -0.1012
48671SOL    HW254982   8.213   9.230   3.251  0.7339  1.3209  0.4116
48672SOL     OW54983   9.715  12.176   6.483  0.3528 -0.3185  0.3793
48672SOL    HW154984   9.704  12.270   6.496  1.0815 -0.0607 -0.7243
48672SOL    HW254985   9.742  12.143   6.569 -2.8674 -0.0556  1.6343
48673SOL     OW54986   2.694  12.030   5.898  0.1033  0.3939  0.2121
48673SOL    HW154987   2.659  12.011   5.811 -0.2160 -2.0259  0.7952
48673SOL    HW254988   2.764  12.094   5.883  1.4823 -1.5129 -2.0968
48674SOL     OW54989   4.790   0.976  11.182 -0.2077  0.1511 -0.2236
48674SOL    HW154990   4.792   0.932  11.097  0.6340  0.2669 -0.2728
48674SOL    HW254991   4.723   1.043  11.174  0.2308  0.5115 -0.9825
48675SOL     OW54992  10.369   3.135   9.604 -0.5439 -0.0195  0.2088
48675SOL    HW154993  10.411   3.049   9.607 -2.5318 -1.0399  1.9490
48675SOL    HW254994  10.296   3.125   9.543 -0.7165  0.4594  0.3267
48676SOL     OW54995  11.258  10.508   3.051 -0.2567  0.3407 -0.1671
48676SOL    HW154996  11.313  10.481   2.977 -1.4445 -0.7584 -0.6786
48676SOL    HW254997  11.169  10.488   3.024 -0.6975 -0.5977  1.7639
48677SOL     OW54998   2.539   7.884  11.028 -0.3882  0.1837 -0.7768
48677SOL    HW154999   2.493   7.873  10.945 -3.8812 -0.7795  1.0863
48677SOL    HW255000   2.546   7.978  11.040 -0.9180  0.3345 -1.6339
48678SOL     OW55001   2.803   1.107   0.533  0.0525  0.4363 -0.0601
48678SOL    HW155002   2.830   1.047   0.603  0.0030  0.1578 -0.2768
48678SOL    HW255003   2.710   1.123   0.550 -0.1130 -0.1192 -0.4131
48679SOL     OW55004   2.246   1.110   7.169 -0.1325  0.2807 -0.0202
48679SOL    HW155005   2.226   1.113   7.076  1.1206 -2.2415 -0.4687
48679SOL    HW255006   2.163   1.128   7.212 -1.2769 -0.7494 -1.6670
48680SOL     OW55007   3.898   2.097   2.548 -0.7340 -0.0610 -0.0625
48680SOL    HW155008   3.968   2.043   2.512 -1.4072 -0.7582 -0.3432
48680SOL    HW255009   3.940   2.147   2.618  0.4118  0.7389 -1.2793
48681SOL     OW55010   4.011   4.227  10.756  0.0976 -0.2649 -0.3176
48681SOL    HW155011   4.042   4.242  10.667  0.8966 -2.5003 -0.4944
48681SOL    HW255012   3.986   4.134  10.757 -1.3291  0.0765  1.3898
48682SOL     OW55013   8.929  11.841   4.319 -0.0067  0.3119 -0.4989
48682SOL    HW155014   8.884  11.789   4.252 -1.2583  0.3029  0.3002
48682SOL    HW255015   8.910  11.794   4.401  0.0532  1.2406  0.0614
48683SOL     OW55016   4.038   7.826   4.403  0.3650  0.0153 -0.0515
48683SOL    HW155017   4.061   7.760   4.468  1.0724 -1.5482 -1.7845
48683SOL    HW255018   3.959   7.791   4.360  0.3478  0.6299 -0.5403
48684SOL     OW55019   3.481  10.229  12.015 -0.4593  0.2947 -0.5101
48684SOL    HW155020   3.544  10.180  12.069  0.0696  0.0117 -1.3720
48684SOL    HW255021   3.402  10.233  12.069 -0.0833 -0.3654  0.1087
48685SOL     OW55022   6.528   9.538   8.025 -0.4624 -0.0249 -0.3454
48685SOL    HW155023   6.563   9.496   8.104 -1.1260 -0.5797 -0.3341
48685SOL    HW255024   6.458   9.595   8.057 -0.2302  0.3218 -0.4591
48686SOL     OW55025  11.189   7.819   6.343 -0.0171 -0.3884  0.0708
48686SOL    HW155026  11.227   7.826   6.256  0.6774 -0.2973  0.3709
48686SOL    HW255027  11.173   7.909   6.371 -0.9508 -0.4455 -0.2598
48687SOL     OW55028   3.218   6.303  10.259  0.2160  0.3952 -0.2899
48687SOL    HW155029   3.179   6.223  10.293  1.3017 -0.2886 -0.6170
48687SOL    HW255030   3.308   6.280  10.239  0.0857  1.2305 -2.0316
48688SOL     OW55031   8.644  12.575   0.557 -0.1713  0.5329 -0.0879
48688SOL    HW155032   8.567  12.521   0.541  0.3821 -0.0200 -0.9529
48688SOL    HW255033   8.700  12.560   0.481  0.7194  1.0560  0.4506
48689SOL     OW55034   8.105  11.890   1.601 -0.2409 -0.4664  0.4920
48689SOL    HW155035   8.192  11.850   1.614  0.3308  0.6279  0.1501
48689SOL    HW255036   8.054  11.821   1.558  1.3816 -0.1842 -2.1584
48690SOL     OW55037   2.197   1.616   5.791  0.2937  0.1239  0.3020
48690SOL    HW155038   2.181   1.710   5.791 -0.0576  0.0836  1.1902
48690SOL    HW255039   2.231   1.598   5.879 -1.1594 -0.7957  0.7115
48691SOL     OW55040   7.031   7.388   7.811 -0.5606 -0.2891 -0.5962
48691SOL    HW155041   7.110   7.414   7.858 -1.8436 -1.8749  2.7930
48691SOL    HW255042   6.989   7.470   7.786  1.2301  0.6016 -0.8216
48692SOL     OW55043   1.848   1.281   4.076  0.2981  0.8291  0.4637
48692SOL    HW155044   1.877   1.276   4.167  2.0895  0.2930 -0.0856
48692SOL    HW255045   1.916   1.234   4.027 -1.9760 -1.3372 -0.8707
48693SOL     OW55046  11.636  11.281   3.094 -0.1266 -0.5052  0.3675
48693SOL    HW155047  11.579  11.357   3.100  0.8414  0.3675 -0.8970
48693SOL    HW255048  11.578  11.209   3.066 -0.3589  0.8146 -3.0152
48694SOL     OW55049   3.659  12.390   8.822  1.2349 -0.4740  0.5224
48694SOL    HW155050   3.677  12.411   8.914  1.0655 -0.8888  0.6498
48694SOL    HW255051   3.710  12.455   8.773  2.4975 -1.1598  0.8874
48695SOL     OW55052   2.276   1.622   3.379 -0.3828  0.5574 -0.7029
48695SOL    HW155053   2.274   1.692   3.314 -1.9480  0.1316 -1.1490
48695SOL    HW255054   2.277   1.668   3.464 -1.3703  1.1320 -0.9896
48696SOL     OW55055   5.019   4.444   5.264 -0.0421  0.5568  0.3573
48696SOL    HW155056   4.929   4.472   5.251 -0.0747  0.3132  0.0257
48696SOL    HW255057   5.032   4.374   5.200  0.9704  1.8828 -0.9817
48697SOL     OW55058   5.662   6.217  12.415  0.1823  0.4622  0.4496
48697SOL    HW155059   5.696   6.290  12.466 -0.2540  1.0253 -0.0572
48697SOL    HW255060   5.707   6.222  12.331 -1.1153  1.2246 -0.2389
48698SOL     OW55061   8.503   2.944  10.265  0.0849  0.5337 -0.0232
48698SOL    HW155062   8.492   2.992  10.347 -0.7683  1.9341 -0.9245
48698SOL    HW255063   8.495   2.852  10.290  1.0153  0.8661  1.6278
48699SOL     OW55064   4.929  12.401   1.264 -0.0418  0.7917 -0.2805
48699SOL    HW155065   4.944  12.385   1.357 -0.6980 -1.5959 -0.5265
48699SOL    HW255066   5.001  12.458   1.237  1.3923 -0.2300  1.2180
48700SOL     OW55067   2.719  12.324   0.816 -0.0535  0.9081 -0.5441
48700SOL    HW155068   2.752  12.263   0.881 -1.1123 -3.1974 -3.4890
48700SOL    HW255069   2.630  12.344   0.845  0.4980  1.6372  0.7478
48701SOL     OW55070   7.430   4.551  12.183 -0.0836  0.2441 -0.6068
48701SOL    HW155071   7.358   4.583  12.237  1.1298 -0.0962  1.3001
48701SOL    HW255072   7.416   4.456  12.177  0.1613  0.1892 -0.3083
48702SOL     OW55073   8.771   1.280   2.016 -0.0460 -0.0563  0.7591
48702SOL    HW155074   8.714   1.349   1.983  0.6461 -0.1467 -0.7291
48702SOL    HW255075   8.712   1.211   2.046 -0.7342  0.3129  0.2715
48703SOL     OW55076   4.316   1.199  11.508 -0.4320  0.2678  0.2241
48703SOL    HW155077   4.289   1.149  11.431  1.5169  0.0763 -0.4025
48703SOL    HW255078   4.312   1.136  11.580 -1.6656  0.2819  0.1914
48704SOL     OW55079   6.671   9.499   0.052  0.5092  0.4815 -0.5885
48704SOL    HW155080   6.721   9.574   0.020 -0.3715  1.1513 -0.4573
48704SOL    HW255081   6.583   9.534   0.066  0.5196 -0.1013  1.2794
48705SOL     OW55082   4.280   5.309   7.776 -0.0192 -0.1216 -0.4816
48705SOL    HW155083   4.310   5.219   7.787 -1.0671 -0.4477 -0.1768
48705SOL    HW255084   4.221   5.324   7.851  0.6398  1.0308 -0.1673
48706SOL     OW55085  10.547  10.561   3.190 -0.0102  0.3907 -0.5955
48706SOL    HW155086  10.469  10.594   3.145 -1.0199  0.1579  0.8788
48706SOL    HW255087  10.544  10.466   3.177  1.1753  0.5381 -2.2205
48707SOL     OW55088   6.603   7.313   6.514  0.1812  0.3907  0.2661
48707SOL    HW155089   6.600   7.377   6.585 -0.9115  1.5124 -0.7473
48707SOL    HW255090   6.530   7.253   6.533  0.6233 -0.0160  0.7094
48708SOL     OW55091   1.657   4.304   8.199  0.2679 -0.2404 -0.1282
48708SOL    HW155092   1.696   4.277   8.116 -0.2192 -0.7991 -0.1802
48708SOL    HW255093   1.668   4.228   8.257 -1.3035 -0.6644 -0.3415
48709SOL     OW55094   4.113   4.273   7.634  0.0676  0.5053  0.5690
48709SOL    HW155095   4.056   4.229   7.570  2.4135 -1.7259 -0.1496
48709SOL    HW255096   4.053   4.304   7.701 -2.0331 -1.9042 -0.0196
48710SOL     OW55097   1.507   1.871   5.515 -0.0544  0.4896  0.0301
48710SOL    HW155098   1.503   1.944   5.576 -1.1163 -0.0744  0.6569
48710SOL    HW255099   1.490   1.794   5.568  0.3374 -0.1490 -0.7490
48711SOL     OW55100   3.904   0.918   4.819  0.3545  0.3430  0.2649
48711SOL    HW155101   3.865   0.873   4.894 -0.6461 -0.1048 -0.4964
48711SOL    HW255102   3.862   1.004   4.818 -0.1953  0.0813 -0.1951
48712SOL     OW55103  10.761   0.400   8.712 -0.3312  0.4800  0.1875
48712SOL    HW155104  10.788   0.312   8.740 -0.0668  0.6913  0.6092
48712SOL    HW255105  10.678   0.414   8.757 -0.3980  0.4270  0.0803
48713SOL     OW55106   7.060   6.292  11.848 -0.0775  0.1694  0.4642
48713SOL    HW155107   6.993   6.240  11.803  1.2468 -0.8015 -0.4496
48713SOL    HW255108   7.130   6.303  11.784  0.5779  1.3264  1.3359
48714SOL     OW55109  10.192  12.421   4.077 -0.0699 -0.4301  0.0400
48714SOL    HW155110  10.210  12.506   4.117 -0.6097  0.6841 -1.9001
48714SOL    HW255111  10.227  12.357   4.138  1.0458  1.2221  1.2236
48715SOL     OW55112   5.351  10.399   9.005 -0.4242  0.1160  0.5154
48715SOL    HW155113   5.255  10.403   8.999 -0.4030 -0.7946 -1.4001
48715SOL    HW255114   5.372  10.306   8.993  0.6564  0.0223  2.7025
48716SOL     OW55115   9.849  11.258   7.568 -0.0686 -0.3250  0.1723
48716SOL    HW155116   9.873  11.208   7.646 -1.4402 -0.1583  0.7210
48716SOL    HW255117   9.865  11.197   7.495  1.2906 -0.4569  0.5478
48717SOL     OW55118   8.682   4.004   1.917  0.3319  0.1373  0.1131
48717SOL    HW155119   8.627   3.976   1.844 -0.2065 -0.8602  0.8748
48717SOL    HW255120   8.682   3.929   1.977 -0.9193  1.6230  2.1136
48718SOL     OW55121   9.397   0.227   4.523  0.1700 -0.0112  0.4148
48718SOL    HW155122   9.323   0.242   4.465 -1.1215 -0.9242  1.7681
48718SOL    HW255123   9.374   0.148   4.572  2.0884 -0.3768  0.8081
48719SOL     OW55124   7.129   0.168   4.753  0.0898 -0.8147  0.1155
48719SOL    HW155125   7.071   0.092   4.757  2.8016 -3.0038  0.7031
48719SOL    HW255126   7.192   0.154   4.823  1.6338  1.1755 -0.7671
48720SOL     OW55127   6.456   2.545   5.122 -0.5334  0.2698  0.7025
48720SOL    HW155128   6.374   2.591   5.140 -1.2825 -0.5770 -0.3265
48720SOL    HW255129   6.431   2.452   5.120  0.5602 -0.0487  0.8724
48721SOL     OW55130   6.000   8.912   0.028  0.6612  0.8824 -0.0075
48721SOL    HW155131   6.094   8.924   0.010  0.8422  0.7269  0.8091
48721SOL    HW255132   5.972   8.998   0.060  0.9579  0.4142  1.5654
48722SOL     OW55133   0.547   5.166   6.848  0.2069 -0.2490 -0.1211
48722SOL    HW155134   0.586   5.252   6.864 -0.3497  0.3862 -1.9221
48722SOL    HW255135   0.452   5.182   6.850  0.0957 -0.8479 -0.3393
48723SOL     OW55136   5.359   4.309   5.278  0.8708 -0.2290  0.3482
48723SOL    HW155137   5.301   4.371   5.322 -0.3246  0.1051 -1.5620
48723SOL    HW255138   5.432   4.297   5.338  1.5873  3.6675  0.4592
48724SOL     OW55139   5.765   0.210   6.295 -0.4110 -0.3269 -0.1032
48724SOL    HW155140   5.700   0.139   6.293  0.0103 -0.7190 -2.4589
48724SOL    HW255141   5.718   0.286   6.262  0.4076 -0.7549 -2.4001
48725SOL     OW55142  11.100   5.907  11.425 -0.0542  0.5948  0.4002
48725SOL    HW155143  11.117   5.954  11.506  2.8055  1.2787 -0.4744
48725SOL    HW255144  11.024   5.951  11.387 -1.2795  0.4272  2.4961
48726SOL     OW55145   0.772   4.480   0.207  0.3603 -0.9110  0.6856
48726SOL    HW155146   0.698   4.519   0.253 -0.0925 -1.1630  0.1949
48726SOL    HW255147   0.785   4.395   0.250 -0.2775 -1.2910  0.1469
48727SOL     OW55148   9.455   9.271   3.581 -0.0475 -0.4729  0.2875
48727SOL    HW155149   9.531   9.315   3.545  0.5624 -0.9134  1.0038
48727SOL    HW255150   9.490   9.192   3.623 -1.1991 -2.1373 -1.6869
48728SOL     OW55151   5.709   6.331   0.263  0.5206 -0.0499  0.3291
48728SOL    HW155152   5.778   6.267   0.253 -0.6187 -1.3068  0.2139
48728SOL    HW255153   5.655   6.298   0.334 -0.8054  0.0886 -0.5697
48729SOL     OW55154   9.407   8.679   9.986  0.2135 -0.3682  0.1839
48729SOL    HW155155   9.351   8.637   9.921 -0.9745  0.1065  0.8703
48729SOL    HW255156   9.496   8.667   9.953 -0.3911  0.4545 -1.8637
48730SOL     OW55157   2.776   0.543   5.523  0.3791  0.3744  0.0629
48730SOL    HW155158   2.783   0.593   5.442  1.5718 -2.2104 -1.5925
48730SOL    HW255159   2.682   0.533   5.537  0.1454  0.5226 -1.2661
48731SOL     OW55160  12.183   8.398   6.617  0.6677  0.0120 -0.2929
48731SOL    HW155161  12.092   8.425   6.618  0.7529  0.3070  1.3675
48731SOL    HW255162  12.180   8.304   6.598  0.1625  0.3332 -2.0459
48732SOL     OW55163   3.608   6.933   6.842 -0.3952 -0.2563 -0.3952
48732SOL    HW155164   3.592   6.841   6.863  0.8484 -0.4804 -0.3661
48732SOL    HW255165   3.614   6.935   6.746  1.2298 -0.5263 -0.3349
48733SOL     OW55166   7.172   7.242   7.143  0.2650 -0.1084 -0.3146
48733SOL    HW155167   7.157   7.229   7.050 -0.5085 -1.1441 -0.0556
48733SOL    HW255168   7.210   7.160   7.173 -1.3678 -0.5503  0.6642
48734SOL     OW55169  12.333   1.734   1.230 -0.5897 -0.0329 -0.3075
48734SOL    HW155170  12.356   1.643   1.245  0.1564  0.1097 -0.5499
48734SOL    HW255171  12.408   1.770   1.182 -0.7841  0.7553 -0.0322
48735SOL     OW55172   3.583  10.938   6.701 -0.1990 -0.0893  0.1991
48735SOL    HW155173   3.656  10.879   6.721  0.5454  1.0825  1.0690
48735SOL    HW255174   3.625  11.018   6.670 -1.2183 -0.3130 -1.9232
48736SOL     OW55175   0.759   1.211   6.599  0.2851 -0.2988  0.2635
48736SOL    HW155176   0.771   1.192   6.692  2.5902  2.2895  0.6162
48736SOL    HW255177   0.694   1.281   6.597 -1.3316 -1.7414 -0.3181
48737SOL     OW55178   5.423   4.627   4.710  0.3501 -0.1351  0.0078
48737SOL    HW155179   5.445   4.549   4.659  2.2818  0.2970  0.1299
48737SOL    HW255180   5.493   4.689   4.691 -0.7124  1.2888  0.5540
48738SOL     OW55181  10.901  10.994  11.060  0.1312 -0.0015  0.5165
48738SOL    HW155182  10.877  11.081  11.029  0.5241 -0.0756 -0.0198
48738SOL    HW255183  10.861  10.934  10.996  0.5024 -0.1806  0.4479
48739SOL     OW55184   4.769   2.098   4.071 -0.2313  0.6538 -0.0326
48739SOL    HW155185   4.796   2.037   4.139 -0.2220 -0.3283 -0.8914
48739SOL    HW255186   4.825   2.175   4.084  0.8486 -0.1354  0.1074
48740SOL     OW55187   2.998  12.280   6.412  0.3186  0.5630  0.2541
48740SOL    HW155188   2.989  12.365   6.370  0.8893 -0.0889 -1.2490
48740SOL    HW255189   2.912  12.239   6.403  0.0660  0.9310  0.9105
48741SOL     OW55190   7.916  12.021   2.017  0.1700 -0.2977  0.1759
48741SOL    HW155191   7.887  12.105   2.051  0.0918  0.0562 -0.7381
48741SOL    HW255192   7.977  12.044   1.946 -1.3297 -0.9695 -1.3826
48742SOL     OW55193   4.463   9.472   7.818 -0.0930 -0.5754  0.2709
48742SOL    HW155194   4.493   9.421   7.893  0.3732  1.1108  1.2777
48742SOL    HW255195   4.440   9.557   7.854 -0.3475  0.1262 -1.4309
48743SOL     OW55196   1.716  12.382   4.077 -0.1650  0.1704 -0.3604
48743SOL    HW155197   1.802  12.339   4.081 -0.1318  0.3035  0.7279
48743SOL    HW255198   1.730  12.465   4.122 -1.2644 -0.5346  1.3843
48744SOL     OW55199   7.761  11.279  12.223  0.1619 -0.3408  0.2155
48744SOL    HW155200   7.748  11.195  12.266 -1.3649 -0.6739 -0.8175
48744SOL    HW255201   7.784  11.339  12.294 -0.3157 -1.2859  1.1894
48745SOL     OW55202   8.759   3.693   9.740  0.8657  0.7712  0.4093
48745SOL    HW155203   8.809   3.623   9.697  0.3205  0.8738 -0.4259
48745SOL    HW255204   8.822   3.764   9.753  1.4473  0.1101  1.3424
48746SOL     OW55205   1.478   3.358   3.625 -0.1663 -0.0874  0.0438
48746SOL    HW155206   1.395   3.399   3.601  0.9216  1.2017 -1.7850
48746SOL    HW255207   1.463   3.324   3.713 -3.4966 -2.4355 -1.2469
48747SOL     OW55208  12.181   2.352  11.364  0.1409  0.4302 -0.0176
48747SOL    HW155209  12.187   2.447  11.378 -1.6071  0.6428 -0.3817
48747SOL    HW255210  12.135   2.320  11.442 -1.2015  0.2313 -0.8595
48748SOL     OW55211  10.431   3.573   3.973 -0.2661  0.1620  0.9952
48748SOL    HW155212  10.404   3.641   4.034 -2.5362  0.7939 -0.5725
48748SOL    HW255213  10.510   3.606   3.932  1.9340 -0.7186  4.1506
48749SOL     OW55214  10.108   9.189   7.864 -0.5554 -0.6088  0.2201
48749SOL    HW155215  10.067   9.185   7.777 -0.7777  0.3013  0.2709
48749SOL    HW255216  10.179   9.124   7.859 -0.6185 -0.6371 -0.6131
48750SOL     OW55217  10.099   5.172   8.536  0.0517  0.3508 -0.4995
48750SOL    HW155218  10.158   5.112   8.490  0.4730 -0.3873  0.9430
48750SOL    HW255219  10.153   5.249   8.555  0.2082  0.1813 -0.2504
48751SOL     OW55220   2.858   8.397   5.837  0.3106  0.0449 -0.1498
48751SOL    HW155221   2.889   8.483   5.866  0.1819  0.4285 -1.1267
48751SOL    HW255222   2.890   8.389   5.747  1.7016 -1.6184  0.4475
48752SOL     OW55223   6.540  11.022   5.471 -0.2265  0.1719  0.0626
48752SOL    HW155224   6.584  11.091   5.422 -0.7222  1.7947  1.7932
48752SOL    HW255225   6.544  11.050   5.562 -1.1454 -1.7177  0.7471
48753SOL     OW55226   2.986  10.132   6.889 -0.0170 -0.2061  0.2931
48753SOL    HW155227   3.022  10.192   6.954  0.1102  0.1820 -0.1229
48753SOL    HW255228   2.901  10.171   6.867 -0.1600 -0.4612  0.3966
48754SOL     OW55229   3.798   8.465   3.875  0.3694 -0.2527  0.1141
48754SOL    HW155230   3.773   8.375   3.854  1.3721 -0.1306 -1.8813
48754SOL    HW255231   3.871   8.457   3.936  0.6142 -0.8078 -0.2460
48755SOL     OW55232   8.799  11.637   6.795 -0.1834  0.6852  0.4328
48755SOL    HW155233   8.724  11.655   6.851 -0.3410 -1.2437  0.8879
48755SOL    HW255234   8.775  11.676   6.711 -0.3192  2.8314  1.3764
48756SOL     OW55235   0.553  12.070   8.631 -0.3756 -0.4161 -0.0936
48756SOL    HW155236   0.565  11.992   8.577  1.2314 -0.0674 -0.2727
48756SOL    HW255237   0.587  12.142   8.578 -0.4216  0.1907  0.6799
48757SOL     OW55238   9.701   7.485  12.086  0.1336  0.2288 -0.7802
48757SOL    HW155239   9.607   7.470  12.094  0.2127  0.1501  0.0889
48757SOL    HW255240   9.735   7.405  12.047  0.3076 -1.2393  2.1505
48758SOL     OW55241   6.859   3.835   0.512  0.7304 -0.6618  0.0204
48758SOL    HW155242   6.776   3.848   0.557  1.0875  0.9511  0.2630
48758SOL    HW255243   6.847   3.753   0.463 -0.5841 -1.0465  0.9383
48759SOL     OW55244   0.684   8.155   2.273 -0.0316 -0.1198  0.3953
48759SOL    HW155245   0.680   8.246   2.303  3.4864  0.9624 -1.7936
48759SOL    HW255246   0.743   8.112   2.335 -1.6526 -1.0023  1.4015
48760SOL     OW55247  10.602   0.980  10.785  0.0179  0.1387  0.2517
48760SOL    HW155248  10.540   0.929  10.734 -0.1948 -0.2272  0.8615
48760SOL    HW255249  10.668   1.008  10.722  0.1284 -0.8820 -0.0975
48761SOL     OW55250   3.549  10.672   6.860  0.2138 -0.1033 -0.2230
48761SOL    HW155251   3.574  10.724   6.936  0.3301  1.5853 -1.3580
48761SOL    HW255252   3.454  10.660   6.869  0.2720 -0.1489  0.3195
48762SOL     OW55253  12.114   4.712   6.990  0.0410  0.2294 -0.3217
48762SOL    HW155254  12.160   4.663   7.058 -0.1024  0.2082 -0.2397
48762SOL    HW255255  12.021   4.705   7.014 -0.1307 -0.9660 -1.3033
48763SOL     OW55256   3.864   3.716   2.759 -0.0169  0.0055  0.3482
48763SOL    HW155257   3.884   3.796   2.712  1.3942 -0.6169 -0.1714
48763SOL    HW255258   3.771   3.700   2.742 -0.4829  1.8370  0.9878
48764SOL     OW55259   9.268   8.615   2.637  0.3125 -0.1968  0.0501
48764SOL    HW155260   9.206   8.595   2.567  0.1723 -0.4662  0.2541
48764SOL    HW255261   9.326   8.539   2.640  0.2797 -0.2130  0.2693
48765SOL     OW55262   0.544   1.241   1.415 -0.3968  0.2904  0.4494
48765SOL    HW155263   0.624   1.265   1.461  0.1410 -0.5297 -0.0387
48765SOL    HW255264   0.558   1.150   1.388 -2.1785 -0.4961  1.8939
48766SOL     OW55265   6.565  11.687   4.526 -0.3580 -0.5129 -0.3854
48766SOL    HW155266   6.603  11.638   4.598  2.3061  0.2035 -1.1743
48766SOL    HW255267   6.577  11.631   4.449  1.2326  0.6236 -1.0202
48767SOL     OW55268   1.537   4.623   4.196  0.0242  0.0232 -0.4924
48767SOL    HW155269   1.476   4.624   4.269 -1.3859 -0.4715 -1.6103
48767SOL    HW255270   1.544   4.531   4.171 -0.2777  0.2816 -1.5832
48768SOL     OW55271  12.073   7.456   5.600 -0.2818 -0.4730 -0.5105
48768SOL    HW155272  11.999   7.517   5.600  1.8550  2.5175  2.4956
48768SOL    HW255273  12.105   7.457   5.510 -1.6580  1.1291 -1.0385
48769SOL     OW55274   3.043   9.437  10.460 -0.2883 -0.4577 -0.5114
48769SOL    HW155275   3.079   9.495  10.527  0.6861  0.0864 -1.4621
48769SOL    HW255276   2.950   9.458  10.457 -0.0309  0.7910 -0.5413
48770SOL     OW55277   3.200   4.610   3.985 -0.3048  0.0401  0.2873
48770SOL    HW155278   3.198   4.704   3.968 -1.1999 -0.3365 -2.0342
48770SOL    HW255279   3.108   4.584   3.987 -0.0690 -0.7926  0.9839
48771SOL     OW55280   0.210   0.805   2.914  0.1382  0.4303 -0.1043
48771SOL    HW155281   0.184   0.825   3.004  1.7211  1.5302  0.1440
48771SOL    HW255282   0.148   0.854   2.860  0.8242  1.9383  0.4419
48772SOL     OW55283   1.402   0.771   0.888  0.2197 -0.2618 -0.3003
48772SOL    HW155284   1.344   0.700   0.860  0.6828 -0.0293 -1.9274
48772SOL    HW255285   1.490   0.739   0.871  0.4539  0.5091 -0.6006
48773SOL     OW55286   0.124   4.555   1.528  0.4060  0.3046 -0.0858
48773SOL    HW155287   0.190   4.570   1.595 -0.5802 -1.1545  1.2819
48773SOL    HW255288   0.041   4.568   1.573 -0.3070 -1.6734 -0.7214
48774SOL     OW55289   7.804  10.430   5.353  0.2114  0.7320  0.0422
48774SOL    HW155290   7.793  10.494   5.424 -2.7306  0.5301 -0.1072
48774SOL    HW255291   7.881  10.461   5.305  1.2049  1.8977  2.2512
48775SOL     OW55292   6.260   4.466   9.341  0.3644  0.1134 -0.3236
48775SOL    HW155293   6.330   4.529   9.326  0.8407 -0.1784  0.6099
48775SOL    HW255294   6.235   4.479   9.432  0.5772 -1.1393 -0.0657
48776SOL     OW55295   4.590   4.183  12.229 -0.3425 -0.3503  0.2611
48776SOL    HW155296   4.670   4.188  12.177 -1.0164 -0.1683 -0.7762
48776SOL    HW255297   4.580   4.270  12.267  0.5640 -0.6993  1.3527
48777SOL     OW55298   0.426   4.193   6.734 -0.4137  0.3751 -0.5582
48777SOL    HW155299   0.485   4.191   6.659  0.5324 -0.7063  0.1805
48777SOL    HW255300   0.482   4.219   6.807 -0.8266 -0.7103  0.1616
48778SOL     OW55301   3.764   6.782   9.004  0.0885 -0.2684 -0.2719
48778SOL    HW155302   3.762   6.803   8.911 -1.8506 -2.1361 -0.7386
48778SOL    HW255303   3.786   6.688   9.007  2.0556  0.1528  1.3069
48779SOL     OW55304   2.743   3.860  10.300 -0.1416  0.4608 -0.1237
48779SOL    HW155305   2.668   3.914  10.276  0.8412  2.7777  1.6225
48779SOL    HW255306   2.793   3.851  10.219 -0.9794  1.0965 -0.7327
48780SOL     OW55307   5.037  11.005   2.265  0.3529 -0.1681  0.7749
48780SOL    HW155308   4.953  10.963   2.249  1.4365 -1.3056 -2.9508
48780SOL    HW255309   5.102  10.938   2.244  2.1761  1.9195 -0.6984
48781SOL     OW55310   7.080   9.220   0.575  0.5520 -0.5590 -0.4464
48781SOL    HW155311   7.107   9.132   0.603  0.8633 -0.3917 -0.2152
48781SOL    HW255312   7.034   9.256   0.651  1.0883 -0.2365 -0.2745
48782SOL     OW55313   3.625  11.476   9.929  0.0404 -0.1212  0.1049
48782SOL    HW155314   3.666  11.391   9.940  0.8077 -0.0415 -1.8358
48782SOL    HW255315   3.537  11.457   9.896  0.9385 -0.1927 -2.4651
48783SOL     OW55316   7.348   3.530   2.453  0.0389  0.5596 -0.7321
48783SOL    HW155317   7.432   3.542   2.408  0.9139  0.5072  0.8098
48783SOL    HW255318   7.333   3.614   2.497  0.2053 -0.0131  0.4489
48784SOL     OW55319   4.119   4.074   5.025  0.5251 -0.6364 -0.3209
48784SOL    HW155320   4.172   4.085   5.103  0.2508 -0.0167 -0.2123
48784SOL    HW255321   4.087   3.984   5.030 -1.2026 -0.0183  1.4059
48785SOL     OW55322   4.937   7.940   1.948  0.4088  0.2672 -0.6525
48785SOL    HW155323   4.949   7.862   2.001  0.1765  0.1142 -0.8228
48785SOL    HW255324   4.934   7.908   1.858 -1.8417  0.1895 -0.6141
48786SOL     OW55325   0.947   4.052   3.889 -0.0478 -0.1125  0.0307
48786SOL    HW155326   0.899   4.124   3.849  0.4352  1.0983  1.5089
48786SOL    HW255327   0.943   3.981   3.825 -0.5222  1.2274 -1.4821
48787SOL     OW55328  11.456   2.502   4.434 -0.0276  0.0990  0.0722
48787SOL    HW155329  11.450   2.412   4.466  0.4681  0.2392  0.5939
48787SOL    HW255330  11.437   2.556   4.511 -0.3294  0.4371 -0.2385
48788SOL     OW55331  12.266   2.445   1.257  0.3658  0.1695  0.0917
48788SOL    HW155332  12.212   2.369   1.276 -0.8097  1.0327  0.3630
48788SOL    HW255333  12.329   2.415   1.192 -0.6723 -0.7963 -0.4963
48789SOL     OW55334  11.665   3.851   8.522  0.0271 -0.2665  0.7195
48789SOL    HW155335  11.572   3.862   8.502  0.0747 -1.7303 -0.4456
48789SOL    HW255336  11.674   3.881   8.613 -1.7728 -1.0451  1.1799
48790SOL     OW55337   8.565  11.912   7.462  0.0382 -0.2091 -0.4799
48790SOL    HW155338   8.614  11.964   7.399 -0.5352 -0.0115 -0.7697
48790SOL    HW255339   8.580  11.955   7.546  1.5818 -1.0251 -0.3124
48791SOL     OW55340   7.770  10.749   6.173 -0.2583  0.1282 -0.7459
48791SOL    HW155341   7.684  10.706   6.174 -0.1320 -0.1889 -2.0850
48791SOL    HW255342   7.826  10.692   6.225 -0.0513 -1.4817 -2.6326
48792SOL     OW55343   4.059   1.067  11.689  0.3520  0.0054 -0.2818
48792SOL    HW155344   4.010   1.115  11.621 -0.7574 -0.4538  0.1665
48792SOL    HW255345   3.994   1.009  11.729  1.1269 -0.1536  0.7895
48793SOL     OW55346   5.252   0.667   7.158 -0.3726 -0.1899 -0.0124
48793SOL    HW155347   5.347   0.654   7.167 -0.4827 -1.3729 -0.4064
48793SOL    HW255348   5.237   0.670   7.064 -0.7603 -0.1763  0.0477
48794SOL     OW55349   6.208   9.615   8.417  0.2531 -0.1265  0.5269
48794SOL    HW155350   6.138   9.669   8.382  0.6330  0.7655  1.1112
48794SOL    HW255351   6.169   9.528   8.426  0.0414 -0.3058 -1.7035
48795SOL     OW55352  12.070  10.337   4.523  0.3196  0.3603 -0.8822
48795SOL    HW155353  12.082  10.416   4.576 -1.5856 -0.0358  0.2657
48795SOL    HW255354  12.051  10.369   4.435 -1.4391  1.2895 -0.2261
48796SOL     OW55355  10.015   5.862   9.036  0.0668 -0.0308  0.1355
48796SOL    HW155356  10.070   5.851   9.114 -1.4140  1.5971  1.5013
48796SOL    HW255357  10.044   5.793   8.976  2.8326  0.1073  1.1846
48797SOL     OW55358   5.975  10.724   6.937  0.3558 -0.1214 -0.3566
48797SOL    HW155359   5.918  10.796   6.911  1.4590  0.2231 -2.0305
48797SOL    HW255360   5.990  10.675   6.856 -0.4319 -2.3274  0.7398
48798SOL     OW55361   6.050   8.643   4.590  0.0473 -0.5126 -0.2611
48798SOL    HW155362   6.055   8.701   4.514  1.3379 -0.2269  0.0175
48798SOL    HW255363   5.985   8.685   4.648  0.7641  0.5278 -0.1825
48799SOL     OW55364   4.349   4.837   2.829  0.6097 -0.0183 -0.6216
48799SOL    HW155365   4.417   4.883   2.780  1.8111 -2.0767 -1.0517
48799SOL    HW255366   4.309   4.778   2.765  0.5706 -1.0683  0.3313
48800SOL     OW55367   7.026   6.759   5.937  0.5799  0.2070 -0.0237
48800SOL    HW155368   7.024   6.852   5.913 -0.8009  0.4141  0.8266
48800SOL    HW255369   7.097   6.723   5.884  0.9389  1.6795 -0.6000
48801SOL     OW55370   5.795   2.268  12.581 -0.4200  0.2474 -0.3990
48801SOL    HW155371   5.754   2.199  12.530  0.0237 -1.2775  1.2196
48801SOL    HW255372   5.724   2.330  12.598 -1.0304 -0.2185 -1.1597
48802SOL     OW55373   1.961  11.140   5.918  0.0379 -0.0238  0.3631
48802SOL    HW155374   1.909  11.220   5.923  0.1102 -0.0054  0.9787
48802SOL    HW255375   2.051  11.169   5.932 -0.0807 -0.3626  2.0421
48803SOL     OW55376  10.945   9.669   4.026 -0.2530  0.2026  0.5309
48803SOL    HW155377  10.877   9.659   3.960  0.9476 -0.8303 -0.6171
48803SOL    HW255378  11.017   9.614   3.995  0.8057  0.6176  2.1079
48804SOL     OW55379   6.632   2.408   6.962 -0.3378  0.1243 -0.2444
48804SOL    HW155380   6.688   2.467   7.012  0.8302  0.8138 -2.2634
48804SOL    HW255381   6.630   2.327   7.013  1.1255  0.6475  0.7036
48805SOL     OW55382  10.875   6.949   6.448 -0.2970  0.6291 -0.0226
48805SOL    HW155383  10.954   6.994   6.419 -0.3010 -0.2525 -1.5260
48805SOL    HW255384  10.889   6.858   6.424 -1.1291  0.1735  1.1190
48806SOL     OW55385   2.033   5.164   8.806  0.2056  0.0169 -0.8544
48806SOL    HW155386   2.040   5.226   8.878  0.0759 -1.7318  0.7566
48806SOL    HW255387   2.118   5.166   8.763  0.1085  1.4733 -1.0408
48807SOL     OW55388   9.780   4.650  12.296 -0.2284  0.0694 -0.1937
48807SOL    HW155389   9.735   4.567  12.308 -1.9015  0.7997 -1.0381
48807SOL    HW255390   9.731   4.694  12.227 -0.6605  2.6093  1.6014
48808SOL     OW55391   8.705   6.648   5.484 -0.7324 -0.6990 -0.1614
48808SOL    HW155392   8.640   6.618   5.549 -0.0103 -0.1157  0.8612
48808SOL    HW255393   8.652   6.676   5.409 -1.8695  1.6959  1.4105
48809SOL     OW55394   2.890   6.617   6.990  0.3867  0.4169  0.4058
48809SOL    HW155395   2.873   6.697   6.940  0.3734  0.4883  0.5248
48809SOL    HW255396   2.985   6.608   6.990  0.6298  2.0536  2.9015
48810SOL     OW55397   4.293  10.296   6.394 -0.0223 -0.6638 -0.4116
48810SOL    HW155398   4.320  10.381   6.358  0.5590  0.1123  1.6821
48810SOL    HW255399   4.374  10.260   6.431 -0.8587 -0.5554  1.6652
48811SOL     OW55400  10.997   4.623  11.388  0.1895  0.5681  0.1993
48811SOL    HW155401  11.059   4.667  11.330  1.0691  0.8240  1.3007
48811SOL    HW255402  10.911   4.644  11.352  0.7344 -1.1059 -2.3085
48812SOL     OW55403   7.149   5.826  11.797  0.1658 -0.7003 -0.5526
48812SOL    HW155404   7.214   5.835  11.727  2.7643  2.2216  1.9760
48812SOL    HW255405   7.199   5.802  11.875 -1.8596  0.7886  1.3322
48813SOL     OW55406  11.589   5.835  10.755  0.2399 -0.5914 -0.2334
48813SOL    HW155407  11.602   5.889  10.833 -2.2655 -0.3265  0.0624
48813SOL    HW255408  11.591   5.745  10.787 -1.6430 -0.4679  0.3483
48814SOL     OW55409   7.928  12.313   4.406  0.5634  0.5804  0.3702
48814SOL    HW155410   7.934  12.385   4.342  0.4252  0.7343  0.5290
48814SOL    HW255411   7.946  12.234   4.355  1.4116  0.7881  0.3246
48815SOL     OW55412   1.718   2.626   5.957  0.1792  0.0290  0.3349
48815SOL    HW155413   1.629   2.619   5.991  0.5521 -0.4961  1.2372
48815SOL    HW255414   1.717   2.569   5.880 -0.0703 -0.5858  0.7771
48816SOL     OW55415   3.762   6.832   1.010  0.3858 -0.2628  0.7420
48816SOL    HW155416   3.799   6.746   0.992 -1.4623 -0.9584  0.0492
48816SOL    HW255417   3.689   6.815   1.070 -0.5997  0.6835 -0.1505
48817SOL     OW55418  11.542   4.883   2.461 -0.3001 -0.2022 -0.8163
48817SOL    HW155419  11.476   4.860   2.527  1.8626 -0.8644  1.2458
48817SOL    HW255420  11.525   4.824   2.388 -0.8722 -1.6363  0.4300
48818SOL     OW55421   7.052  10.353   4.378  0.1127  0.2308 -0.0942
48818SOL    HW155422   7.007  10.384   4.456 -0.1194 -0.9059  0.2338
48818SOL    HW255423   7.003  10.277   4.350  2.3970 -1.7511  0.9193
48819SOL     OW55424   0.143   6.529   0.547  0.9187  0.6024 -0.1576
48819SOL    HW155425   0.097   6.545   0.629  0.0436  0.8643 -0.6788
48819SOL    HW255426   0.209   6.598   0.542  0.3117  1.1899 -0.1455
48820SOL     OW55427   7.390  12.153   8.081 -0.3128  0.1549  0.5690
48820SOL    HW155428   7.368  12.152   8.174 -1.8860  0.1575  0.2209
48820SOL    HW255429   7.377  12.063   8.053 -0.9300  0.3796  0.1229
48821SOL     OW55430   3.554   3.277   7.676  0.2705  0.8062  0.0523
48821SOL    HW155431   3.487   3.213   7.652  1.6849 -0.1140 -1.7623
48821SOL    HW255432   3.527   3.310   7.761 -0.4892 -2.2550  1.1088
48822SOL     OW55433   5.907   3.316   3.487  0.4040 -0.2519 -0.0347
48822SOL    HW155434   5.917   3.399   3.535  1.9217 -0.8013  0.6654
48822SOL    HW255435   5.825   3.326   3.438 -0.2231  1.0730  1.2087
48823SOL     OW55436   7.805   0.832  10.893  0.2349 -0.7792  0.0878
48823SOL    HW155437   7.882   0.775  10.890  1.3503  0.7047 -0.8497
48823SOL    HW255438   7.827   0.897  10.960 -0.3671 -0.5529  0.0686
48824SOL     OW55439   9.190  12.159   2.470  0.1429  0.6096 -0.3079
48824SOL    HW155440   9.163  12.251   2.463 -0.9316  0.4808  1.3785
48824SOL    HW255441   9.114  12.110   2.438 -0.2291  0.3005  0.9869
48825SOL     OW55442  10.758   3.401   0.840 -0.0027  0.1104 -0.5536
48825SOL    HW155443  10.719   3.488   0.834  0.1871  0.0858 -2.9214
48825SOL    HW255444  10.837   3.405   0.787  1.5963 -0.7576  1.6034
48826SOL     OW55445   1.124   1.195   6.611  0.2379 -0.3018 -1.1848
48826SOL    HW155446   1.131   1.271   6.668 -0.8462 -0.0545 -1.3627
48826SOL    HW255447   1.031   1.190   6.589  0.2744 -1.7391 -1.0904
48827SOL     OW55448   1.545  12.204   6.144  0.6639 -0.1644 -0.0780
48827SOL    HW155449   1.623  12.158   6.172  1.4918  1.1723 -0.1174
48827SOL    HW255450   1.506  12.238   6.224  0.2551 -0.6009 -0.0846
48828SOL     OW55451  10.975   7.839   6.804 -0.0871  0.3947  0.4637
48828SOL    HW155452  10.928   7.822   6.722 -1.5166 -1.1759  1.5257
48828SOL    HW255453  11.033   7.764   6.815  3.2225  2.5045 -1.0416
48829SOL     OW55454   5.586   1.913   5.024 -0.7060  0.2497 -0.6159
48829SOL    HW155455   5.557   1.940   5.111 -1.1012 -1.3763 -0.2098
48829SOL    HW255456   5.516   1.856   4.992  0.2881 -0.6868 -1.2010
48830SOL     OW55457   1.566   4.366   3.798 -0.2338 -0.4272 -0.1109
48830SOL    HW155458   1.534   4.355   3.708  3.0137 -0.0655 -1.4226
48830SOL    HW255459   1.574   4.277   3.832 -1.4043 -0.5669 -0.1449
48831SOL     OW55460   1.765   1.326   9.761 -0.0168 -0.0197  0.1128
48831SOL    HW155461   1.765   1.329   9.857 -0.7138  0.5141  0.1041
48831SOL    HW255462   1.819   1.250   9.740  1.6140  0.8757  0.8837
48832SOL     OW55463   0.845   5.997   0.473  0.2638 -0.1543 -0.3727
48832SOL    HW155464   0.825   6.074   0.420  0.8497 -0.1524 -0.5978
48832SOL    HW255465   0.937   5.977   0.453  0.6747  0.1848  1.0478
48833SOL     OW55466   6.720   3.365   7.780 -0.4076  0.6078 -0.0687
48833SOL    HW155467   6.779   3.360   7.855 -2.0293 -0.0053  1.2040
48833SOL    HW255468   6.778   3.351   7.704  0.7965 -2.2360  1.2263
48834SOL     OW55469   3.010   4.013   1.543  0.0401  0.0791 -0.1265
48834SOL    HW155470   2.979   3.933   1.586 -1.3922  0.2808 -0.7062
48834SOL    HW255471   2.929   4.058   1.517  0.7315 -0.3820 -3.6552
48835SOL     OW55472  11.032  11.036   3.934  0.0276 -0.1654 -0.6502
48835SOL    HW155473  11.008  11.065   3.846 -0.1910  2.2991  0.1527
48835SOL    HW255474  10.983  10.955   3.946 -0.3110 -0.3039 -2.6203
48836SOL     OW55475   2.986   1.898  11.211  0.3584  0.3965 -0.3935
48836SOL    HW155476   2.948   1.901  11.299 -1.9996 -0.1426 -1.3014
48836SOL    HW255477   3.001   1.805  11.195  0.5799  0.4738 -0.6297
48837SOL     OW55478   7.496  11.356  10.654  0.0611  0.4158  0.7541
48837SOL    HW155479   7.524  11.390  10.569  0.8371  1.5424  1.4340
48837SOL    HW255480   7.484  11.262  10.640  2.5308  0.1450 -0.0230
48838SOL     OW55481   3.500   2.613  12.468  0.1884  0.2386  0.5527
48838SOL    HW155482   3.454   2.692  12.496 -1.7012 -0.6426  0.1301
48838SOL    HW255483   3.491   2.554  12.543  1.6745  0.4417  0.9058
48839SOL     OW55484   0.562   4.372   8.431 -0.4496  0.6813 -0.0457
48839SOL    HW155485   0.655   4.383   8.411 -0.8692  0.8972 -2.0527
48839SOL    HW255486   0.555   4.282   8.461  0.3639  0.5738 -0.1411
48840SOL     OW55487   4.363   9.503   1.992 -0.5055 -0.3454  0.3978
48840SOL    HW155488   4.385   9.500   2.085  4.7949 -1.0687 -0.5043
48840SOL    HW255489   4.398   9.587   1.962 -1.3900 -0.4689 -1.0686
48841SOL     OW55490   0.183   4.821   1.037 -0.4521 -0.2200  0.0947
48841SOL    HW155491   0.124   4.777   0.976 -0.0985 -1.5133  0.6562
48841SOL    HW255492   0.270   4.804   1.002 -0.3332  0.5933 -0.0258
48842SOL     OW55493   3.186  12.337  10.468  0.2636  0.3356 -0.0111
48842SOL    HW155494   3.155  12.424  10.441 -0.8165 -0.1968 -0.5507
48842SOL    HW255495   3.112  12.297  10.513 -0.2997 -1.3764 -2.2589
48843SOL     OW55496   0.440   1.919  11.382  0.7868  0.0919 -0.3947
48843SOL    HW155497   0.450   1.922  11.287 -2.1820 -1.6791 -0.8725
48843SOL    HW255498   0.432   1.826  11.402  1.0427  0.4568  1.5986
48844SOL     OW55499   0.129   1.443   7.649  0.2221  0.4598  0.2881
48844SOL    HW155500   0.101   1.364   7.695  0.0716 -0.7843 -1.7858
48844SOL    HW255501   0.213   1.466   7.690  0.8059 -1.4378  0.2434
48845SOL     OW55502   7.323  12.311   3.031  0.3718  0.0337 -0.5312
48845SOL    HW155503   7.229  12.301   3.013  0.1286  1.4051 -0.1195
48845SOL    HW255504   7.326  12.358   3.114  1.4552 -3.1166  1.4143
48846SOL     OW55505   1.687  10.532   0.125 -0.2850 -0.2350 -0.0594
48846SOL    HW155506   1.651  10.528   0.037 -0.8738  1.9502  0.0197
48846SOL    HW255507   1.613  10.553   0.181  0.3495 -0.0263  0.7282
48847SOL     OW55508  10.457  11.104   3.512 -0.1861 -0.0870 -0.0870
48847SOL    HW155509  10.373  11.065   3.535 -1.4953  2.8077  0.5041
48847SOL    HW255510  10.489  11.143   3.593 -0.3770  2.3877 -1.1009
48848SOL     OW55511  10.912   9.209   0.513  0.4599  0.2201  0.3308
48848SOL    HW155512  10.954   9.253   0.439  0.7768  1.2323  1.0887
48848SOL    HW255513  10.897   9.119   0.482  0.0281  0.7675 -1.1706
48849SOL     OW55514   6.018   8.224  10.507 -0.4798 -0.0280  0.3508
48849SOL    HW155515   6.001   8.243  10.415 -0.2309  0.4105  0.3906
48849SOL    HW255516   5.945   8.264  10.554 -0.2578  0.3403  0.3905
48850SOL     OW55517   2.428   9.240   0.219 -0.1644  0.0930 -0.4418
48850SOL    HW155518   2.480   9.310   0.179 -2.1768  2.0181  0.0818
48850SOL    HW255519   2.473   9.221   0.301  0.2907  0.9958 -0.4654
48851SOL     OW55520   0.106   2.137   7.431 -0.4914 -0.3338 -0.2641
48851SOL    HW155521   0.151   2.221   7.436 -0.2463 -0.5246  1.1715
48851SOL    HW255522   0.069   2.135   7.343  3.5239 -0.8277 -2.1572
48852SOL     OW55523   3.432   7.822   3.902 -0.1484 -0.0749 -0.3205
48852SOL    HW155524   3.346   7.841   3.863  0.2149  0.7168 -0.7364
48852SOL    HW255525   3.453   7.734   3.871 -1.2713 -0.7037  0.6148
48853SOL     OW55526  10.108   9.634   9.458 -0.2090 -0.1030  0.0856
48853SOL    HW155527  10.145   9.568   9.400 -1.2826 -0.4869 -0.1976
48853SOL    HW255528  10.085   9.707   9.400 -0.6196 -0.1924  0.1352
48854SOL     OW55529   3.371   3.852   6.450 -0.1540 -0.2961 -0.0997
48854SOL    HW155530   3.439   3.829   6.385 -1.1100 -2.3081 -0.4660
48854SOL    HW255531   3.299   3.886   6.398  0.0445  0.5381  0.1634
48855SOL     OW55532   5.182   8.571  12.551 -0.2187 -0.1779  0.2479
48855SOL    HW155533   5.177   8.542  12.642  0.8958 -0.3849  0.2658
48855SOL    HW255534   5.104   8.536  12.509  0.4375 -2.1502  0.5651
48856SOL     OW55535   6.602   3.676   8.326 -0.1855 -0.2765 -0.5221
48856SOL    HW155536   6.691   3.648   8.345 -0.2050  0.1908  0.2956
48856SOL    HW255537   6.569   3.611   8.263  0.3224 -1.1298  0.0757
48857SOL     OW55538   7.009  10.096   8.397  0.1242  0.7766 -0.1044
48857SOL    HW155539   6.963  10.149   8.332  0.6578  0.7310 -0.5289
48857SOL    HW255540   6.945  10.032   8.427 -0.4974  1.5949  0.3383
48858SOL     OW55541   2.431   4.848   6.982  0.0864  0.2615 -0.0307
48858SOL    HW155542   2.522   4.829   7.004  0.1525  1.2517  0.6224
48858SOL    HW255543   2.427   4.943   6.977 -0.9930  0.2478  0.3378
48859SOL     OW55544   4.620  11.810   4.784 -0.0019  0.5413 -0.1356
48859SOL    HW155545   4.608  11.716   4.766  0.2121  0.7935 -1.7792
48859SOL    HW255546   4.531  11.845   4.789 -0.0823  0.2584  0.4702
48860SOL     OW55547   2.604   2.130  12.385  0.6136 -0.4594  0.1260
48860SOL    HW155548   2.540   2.188  12.427  1.2406 -0.5894  1.2970
48860SOL    HW255549   2.680   2.185  12.368  0.6059 -0.5622 -0.2517
48861SOL     OW55550   2.682   8.467  11.546 -0.1788 -0.0763  0.2784
48861SOL    HW155551   2.591   8.487  11.569 -0.0116  0.5221  0.4323
48861SOL    HW255552   2.686   8.371  11.547 -0.6763 -0.1000  0.7919
48862SOL     OW55553   9.331  10.463   0.259  0.2203  0.3362 -0.0138
48862SOL    HW155554   9.404  10.470   0.197  0.0248 -0.6021 -0.3687
48862SOL    HW255555   9.296  10.551   0.264  0.3977  0.4864 -1.0633
48863SOL     OW55556   7.814  10.885   5.005  0.1121  0.1387 -0.3023
48863SOL    HW155557   7.805  10.794   5.030  2.3303 -0.4368 -1.4161
48863SOL    HW255558   7.790  10.934   5.083  0.9165 -1.4368  0.9766
48864SOL     OW55559   6.859  10.149   5.582 -0.1562  0.5786 -0.0734
48864SOL    HW155560   6.919  10.098   5.636  0.7572  2.0743  0.4129
48864SOL    HW255561   6.786  10.171   5.641  0.7481  2.0475  0.5622
48865SOL     OW55562  12.000   8.140   4.828  0.0545 -0.0826 -0.1204
48865SOL    HW155563  12.038   8.170   4.911  0.6257 -1.0653 -0.0093
48865SOL    HW255564  11.906   8.138   4.844  0.0736  0.7566  0.1515
48866SOL     OW55565   5.418   7.101   3.205  0.0111 -0.6069  0.1669
48866SOL    HW155566   5.333   7.059   3.198  0.4482 -2.1906  2.7175
48866SOL    HW255567   5.481   7.029   3.197  0.9817  0.1269  0.8803
48867SOL     OW55568   2.616  10.936   5.213  0.5920  0.2158 -0.0359
48867SOL    HW155569   2.662  11.006   5.167 -1.0329  1.3208 -0.0556
48867SOL    HW255570   2.536  10.922   5.162  1.1557 -2.1227 -0.3881
48868SOL     OW55571   3.864   0.353   9.658 -0.5413 -0.4290 -0.1241
48868SOL    HW155572   3.861   0.434   9.607  0.5090 -0.0960  0.3226
48868SOL    HW255573   3.809   0.292   9.610 -2.1432  0.8234  0.0062
48869SOL     OW55574   9.192  10.588  11.097  0.7684 -0.3017  0.0130
48869SOL    HW155575   9.246  10.649  11.046  0.9646 -0.6844 -0.2444
48869SOL    HW255576   9.134  10.644  11.148  0.5021  0.0902 -0.7124
48870SOL     OW55577  11.038   9.570  10.003  0.2809 -0.0516  0.2279
48870SOL    HW155578  10.957   9.544  10.047  0.0606 -1.2595 -0.8534
48870SOL    HW255579  11.009   9.610   9.921  0.7807 -0.4002 -0.1188
48871SOL     OW55580   2.077  10.478  10.544  0.3474 -0.0018 -0.3886
48871SOL    HW155581   1.984  10.487  10.566  1.1530  0.9840  3.3380
48871SOL    HW255582   2.095  10.385  10.552  0.2385  0.1086  2.3970
48872SOL     OW55583   9.565   6.932   5.501 -0.1173 -0.0719 -0.0919
48872SOL    HW155584   9.621   6.972   5.568  1.1285  0.4672 -1.3845
48872SOL    HW255585   9.572   6.991   5.426 -1.8697 -0.3921 -0.5458
48873SOL     OW55586  11.771   0.629   9.385  0.1541  0.4768  0.1158
48873SOL    HW155587  11.734   0.676   9.459 -0.1259  0.3340  0.0687
48873SOL    HW255588  11.807   0.697   9.328  0.5157  0.5768  0.4579
48874SOL     OW55589   2.997   4.273   5.279 -0.1740 -0.3454  0.1816
48874SOL    HW155590   2.974   4.220   5.203  0.0060 -0.3793  0.1498
48874SOL    HW255591   3.070   4.328   5.249 -1.3607  1.0614 -0.2712
48875SOL     OW55592  12.236  10.903   7.156  0.1589 -0.3023 -0.0852
48875SOL    HW155593  12.225  10.981   7.210  1.2803 -1.0906  1.3245
48875SOL    HW255594  12.172  10.841   7.190  1.5533 -1.1579  1.0627
48876SOL     OW55595   6.740   0.641   9.197 -0.6883  0.0396 -0.1111
48876SOL    HW155596   6.722   0.725   9.155  0.8559  0.1620 -0.5937
48876SOL    HW255597   6.671   0.632   9.262 -0.8239  1.7474  0.0452
48877SOL     OW55598   9.200   1.794   0.985 -0.0024 -0.2231  0.0962
48877SOL    HW155599   9.268   1.764   0.924 -1.8414 -1.8061 -1.2992
48877SOL    HW255600   9.130   1.730   0.976 -1.4743  1.0416  1.8935
48878SOL     OW55601  11.820   6.877   2.649  0.0124  0.2024 -0.2939
48878SOL    HW155602  11.822   6.800   2.592 -0.2803 -0.4459  0.5381
48878SOL    HW255603  11.876   6.853   2.723 -0.8614  0.3893  0.4553
48879SOL     OW55604   2.240  10.923   0.728  0.1484  0.3742  0.1420
48879SOL    HW155605   2.321  10.956   0.690  1.6541 -1.3182  1.7329
48879SOL    HW255606   2.241  10.953   0.819 -2.2748  2.3960 -0.3709
48880SOL     OW55607   1.959  10.284   8.342  0.3717  0.6293  0.2376
48880SOL    HW155608   1.900  10.223   8.385  0.1319  0.6007 -0.1340
48880SOL    HW255609   2.042  10.236   8.335  0.3398  0.5425  0.4302
48881SOL     OW55610   8.392   5.324   2.609  0.0906 -0.0786  0.6749
48881SOL    HW155611   8.484   5.341   2.630  0.3687 -0.6270 -0.0472
48881SOL    HW255612   8.394   5.290   2.520 -0.5614 -2.3575  1.4617
48882SOL     OW55613   0.783   7.218  11.082  0.2252 -0.2898  0.0109
48882SOL    HW155614   0.781   7.122  11.085  1.1366 -0.3149  0.3086
48882SOL    HW255615   0.841   7.237  11.008  2.1696 -0.0182  1.5317
48883SOL     OW55616   1.828   4.697  11.781 -0.0701  0.6162 -0.2497
48883SOL    HW155617   1.882   4.775  11.773  1.2075 -0.2803 -0.5372
48883SOL    HW255618   1.876   4.640  11.841 -0.2650 -0.5339 -1.1417
48884SOL     OW55619   3.530   1.892   5.734 -0.2302 -0.0235 -0.4355
48884SOL    HW155620   3.595   1.892   5.804  0.0942 -0.6704 -0.7276
48884SOL    HW255621   3.530   1.982   5.701  0.6701 -0.0631 -0.5704
48885SOL     OW55622   0.065  11.280   6.724 -0.3764 -0.4918  0.0868
48885SOL    HW155623   0.113  11.197   6.717 -1.0946 -0.9812  0.7489
48885SOL    HW255624   0.001  11.276   6.652  1.5704  0.9026 -1.8767
48886SOL     OW55625   8.227   5.087   3.079 -0.0987  0.9328 -0.0510
48886SOL    HW155626   8.277   5.113   3.001  1.3534  0.7342  0.7741
48886SOL    HW255627   8.136   5.088   3.050  0.5024 -1.3007 -2.4224
48887SOL     OW55628   2.554   7.151  10.030  0.5418  0.2061 -0.7509
48887SOL    HW155629   2.534   7.218   9.965 -2.9696  1.6923  1.5524
48887SOL    HW255630   2.482   7.089  10.025  0.8151 -0.3047  0.8984
48888SOL     OW55631   5.736   2.054   2.449  0.6483  0.2120 -0.4122
48888SOL    HW155632   5.651   2.040   2.491  1.7320  0.6496  2.1389
48888SOL    HW255633   5.716   2.102   2.369 -1.7304 -2.3070 -1.4719
48889SOL     OW55634   4.274   3.191  11.176  0.6502  0.0066 -0.4489
48889SOL    HW155635   4.184   3.205  11.207 -0.2702 -3.1338 -1.3211
48889SOL    HW255636   4.273   3.217  11.084  0.7823  0.4471 -0.3270
48890SOL     OW55637   8.067  12.485   3.828  0.8846 -0.5323  0.1985
48890SOL    HW155638   8.105  12.527   3.905  0.6994  0.0880 -0.0454
48890SOL    HW255639   8.127  12.507   3.756 -1.2644  2.8336 -0.7943
48891SOL     OW55640   0.629   1.689  10.777  0.1216  0.1586 -0.0864
48891SOL    HW155641   0.700   1.709  10.838  0.5542  0.8782 -0.8020
48891SOL    HW255642   0.638   1.595  10.760 -0.8043 -0.3348  1.9199
48892SOL     OW55643   8.400   1.267   7.358 -0.1462 -0.1699  0.1217
48892SOL    HW155644   8.314   1.273   7.317  0.4335 -0.5048 -1.2074
48892SOL    HW255645   8.386   1.213   7.436 -0.9190 -1.2777 -0.7465
48893SOL     OW55646   8.431   8.984  11.225 -0.8822  0.4608 -0.3355
48893SOL    HW155647   8.412   8.978  11.319 -0.3310 -0.2024 -0.2570
48893SOL    HW255648   8.490   8.911  11.208 -1.0214  0.5459 -1.2152
48894SOL     OW55649  10.076  12.011   1.762 -0.2728  0.0675  0.0481
48894SOL    HW155650  10.053  11.919   1.777 -0.7747  0.5383  2.6531
48894SOL    HW255651  10.024  12.037   1.686 -1.4198 -1.3469  0.3120
48895SOL     OW55652  10.652   8.465  10.547  0.5769  0.1253  0.4984
48895SOL    HW155653  10.679   8.375  10.566  0.3340  0.1046  0.7509
48895SOL    HW255654  10.725   8.519  10.579  0.1476  0.0947  1.5713
48896SOL     OW55655   2.924   6.737   5.893  0.6474  0.4671 -0.3130
48896SOL    HW155656   3.017   6.738   5.870  1.3470 -0.3079  2.1567
48896SOL    HW255657   2.900   6.829   5.898  0.1225  0.7730 -4.7445
48897SOL     OW55658   5.095   1.983   4.099  0.4537  0.0391 -0.1942
48897SOL    HW155659   5.093   1.908   4.040 -1.7256 -0.3767  0.3504
48897SOL    HW255660   5.136   1.950   4.179  0.0805 -0.3965 -0.1817
48898SOL     OW55661   5.923   3.505   0.058  0.6693  0.5184  0.0397
48898SOL    HW155662   5.903   3.567   0.128 -0.5589  1.0050 -0.7187
48898SOL    HW255663   6.017   3.519   0.041  0.5426  1.8120  0.2500
48899SOL     OW55664  11.456   6.481   9.855 -0.9865  0.2297 -0.3430
48899SOL    HW155665  11.517   6.451   9.922 -1.1583 -0.7454 -0.6066
48899SOL    HW255666  11.497   6.560   9.819 -0.5709  0.3840  0.4455
48900SOL     OW55667   3.542   7.095   9.138  0.0118  0.1929  0.0590
48900SOL    HW155668   3.602   7.073   9.210  1.0050  0.9079 -0.5249
48900SOL    HW255669   3.535   7.190   9.142 -1.9698  0.0631  0.7845
48901SOL     OW55670   6.404   9.424   4.562  0.0289  0.3093 -0.1252
48901SOL    HW155671   6.448   9.376   4.633 -0.6283 -0.6677 -0.3523
48901SOL    HW255672   6.475   9.464   4.512  0.6583 -0.8835 -0.2368
48902SOL     OW55673  11.246   9.666  11.612 -0.5689  1.0629 -0.0700
48902SOL    HW155674  11.270   9.618  11.691 -0.2596  1.6971  0.2211
48902SOL    HW255675  11.299   9.626  11.543  0.3271  1.5412  0.3251
48903SOL     OW55676   5.019   5.023   2.363 -0.2331 -0.1443  0.3798
48903SOL    HW155677   5.107   5.061   2.371  0.7267 -1.4990 -2.3601
48903SOL    HW255678   5.014   4.958   2.433  1.0188 -0.1396  0.5012
48904SOL     OW55679   6.693   4.651   0.663 -0.0919 -0.3133 -0.4443
48904SOL    HW155680   6.727   4.664   0.575  1.5150 -1.4388 -0.0345
48904SOL    HW255681   6.679   4.557   0.670 -0.7960 -0.1716  0.3074
48905SOL     OW55682   2.390   4.377  11.454  0.0372  0.2249  0.1897
48905SOL    HW155683   2.320   4.442  11.448 -0.6805 -0.0907  3.5032
48905SOL    HW255684   2.349   4.300  11.493  1.3179 -1.6217 -1.8243
48906SOL     OW55685   1.913   8.238   1.081  0.0280 -0.2011  0.0242
48906SOL    HW155686   1.940   8.329   1.083 -2.0715  0.4921 -0.1748
48906SOL    HW255687   1.913   8.215   0.988  0.7651 -0.4816  0.0904
48907SOL     OW55688  10.817   2.715  11.258 -0.2083 -0.6771 -0.2279
48907SOL    HW155689  10.874   2.791  11.246 -1.4758  0.3787  0.2022
48907SOL    HW255690  10.825   2.693  11.351 -1.1155  0.0200  0.0356
48908SOL     OW55691   0.110   0.276   6.995 -0.3179  0.0243  0.1163
48908SOL    HW155692   0.149   0.227   6.923 -0.6789  0.4428 -0.3683
48908SOL    HW255693   0.112   0.216   7.069 -2.0923 -1.2828 -0.8238
48909SOL     OW55694   4.418   4.666   4.981 -0.0904  0.4566  0.6322
48909SOL    HW155695   4.362   4.596   4.947  0.2247  0.8656 -0.8099
48909SOL    HW255696   4.450   4.632   5.064  0.5742 -1.4091 -0.3112
48910SOL     OW55697  11.381   1.571   4.433 -0.3073 -0.0389 -0.5639
48910SOL    HW155698  11.338   1.556   4.518  1.7939 -2.3041  0.2177
48910SOL    HW255699  11.320   1.535   4.369  0.0493 -2.7602  0.4654
48911SOL     OW55700   7.840   2.774   3.916 -0.0692 -0.7582  0.2037
48911SOL    HW155701   7.837   2.806   4.006  2.2035  1.0931 -0.2588
48911SOL    HW255702   7.815   2.849   3.863 -1.4103 -1.8324 -0.7432
48912SOL     OW55703  10.935   2.633   3.710 -0.0724 -0.3904 -0.4722
48912SOL    HW155704  10.897   2.683   3.638  0.4090 -0.3361 -0.6919
48912SOL    HW255705  10.910   2.543   3.692 -1.5467 -0.1673  0.3021
48913SOL     OW55706   5.670  11.860   1.748 -0.1216  0.2143  0.3040
48913SOL    HW155707   5.732  11.849   1.676 -0.6950  1.0279 -0.3384
48913SOL    HW255708   5.598  11.801   1.728  1.3075 -2.3610  2.1437
48914SOL     OW55709   6.466   3.551  11.744  0.1054  0.0505 -0.1541
48914SOL    HW155710   6.499   3.589  11.663 -0.3631  0.4306 -0.1711
48914SOL    HW255711   6.455   3.458  11.725  1.3459 -0.1214 -0.0874
48915SOL     OW55712   9.644  12.058   2.420 -0.5772  0.5013  0.3630
48915SOL    HW155713   9.649  12.078   2.326  0.9456 -1.6204 -0.0982
48915SOL    HW255714   9.578  11.988   2.425 -0.9490  0.8886  0.9496
48916SOL     OW55715   4.982  11.467   6.113  0.7164 -0.3267  0.3370
48916SOL    HW155716   4.986  11.562   6.099 -0.6061 -0.3051 -0.0295
48916SOL    HW255717   4.926  11.456   6.190 -1.0451 -0.8552 -0.9420
48917SOL     OW55718   9.302   5.088   1.127  0.2474  0.2213  0.8868
48917SOL    HW155719   9.310   5.075   1.221 -1.3323 -2.6787  0.7268
48917SOL    HW255720   9.309   5.000   1.090 -1.3848  0.9965 -1.5115
48918SOL     OW55721   9.314   9.876   0.715 -0.5930  0.1707  0.4862
48918SOL    HW155722   9.337   9.835   0.798  0.4929  0.4903  0.3646
48918SOL    HW255723   9.284   9.804   0.659  0.4337 -0.3329  0.5636
48919SOL     OW55724   4.027   6.215  11.973  0.7704  0.5957  0.0312
48919SOL    HW155725   3.979   6.236  12.053 -2.8575  1.4086 -2.1217
48919SOL    HW255726   4.082   6.292  11.956  2.3500  0.0192  2.0990
48920SOL     OW55727   8.348  12.399  11.666  0.4143  0.0081  0.2359
48920SOL    HW155728   8.404  12.344  11.611  1.2627  0.1930  0.8828
48920SOL    HW255729   8.268  12.410  11.616 -0.0577 -2.3482  0.3369
48921SOL     OW55730   6.426   8.913  11.637 -0.3915  0.2397 -0.3395
48921SOL    HW155731   6.348   8.861  11.655 -0.4120  0.3126 -0.2191
48921SOL    HW255732   6.451   8.950  11.722  0.2620 -0.4475 -0.2214
48922SOL     OW55733   9.583   3.938   0.901  0.3243 -0.2254 -0.2517
48922SOL    HW155734   9.507   3.997   0.903 -0.3829 -1.1182  1.7012
48922SOL    HW255735   9.551   3.859   0.857  0.3627 -0.3011 -0.1432
48923SOL     OW55736   8.381   7.882   8.340 -0.0738  0.3634 -0.1705
48923SOL    HW155737   8.425   7.966   8.338  0.9550 -0.1535  0.1183
48923SOL    HW255738   8.428   7.831   8.406  0.1270 -0.8581 -1.2083
48924SOL     OW55739  11.644   4.437   4.056  0.6130  0.4550 -0.0210
48924SOL    HW155740  11.660   4.346   4.031  1.3328  0.6106 -0.1322
48924SOL    HW255741  11.712   4.457   4.120 -0.4714  0.4383  1.2024
48925SOL     OW55742  12.355  11.501   3.174 -0.2119 -0.2190 -0.6039
48925SOL    HW155743  12.411  11.499   3.096 -0.3992  2.3415 -0.8676
48925SOL    HW255744  12.268  11.521   3.141  0.0812  3.0734  0.3490
48926SOL     OW55745   0.816   7.223   2.438  0.6078 -0.0412 -0.1710
48926SOL    HW155746   0.876   7.269   2.497  1.3220  0.5732 -1.3468
48926SOL    HW255747   0.797   7.286   2.369 -0.5972 -0.5839 -0.3560
48927SOL     OW55748   6.810   4.724  11.572 -0.7325  0.1064 -0.2954
48927SOL    HW155749   6.842   4.798  11.520  2.3841  0.8842  2.4152
48927SOL    HW255750   6.720   4.748  11.595 -0.1555  2.5938 -0.3558
48928SOL     OW55751   8.798   6.937   9.631 -0.1369 -0.3927  0.0278
48928SOL    HW155752   8.781   6.845   9.611 -0.1096 -0.5137  0.5590
48928SOL    HW255753   8.719   6.966   9.677  0.2967 -0.4452  0.8210
48929SOL     OW55754   1.531   7.011   0.566 -0.0826 -0.9521  0.0031
48929SOL    HW155755   1.592   7.080   0.590  1.0873 -1.9576  0.0339
48929SOL    HW255756   1.497   6.979   0.650 -1.8396  0.5731 -0.0523
48930SOL     OW55757   9.343   6.116   1.965  0.2229 -0.4119 -0.3683
48930SOL    HW155758   9.396   6.089   2.040  0.5311  1.1567  0.0182
48930SOL    HW255759   9.253   6.103   1.994  0.3540 -0.5032  0.0018
48931SOL     OW55760   4.394  10.854   8.382  0.4513 -0.0701 -0.6894
48931SOL    HW155761   4.477  10.867   8.428 -0.9692 -2.0226  2.8690
48931SOL    HW255762   4.342  10.931   8.404  0.5701  0.0793 -0.9420
48932SOL     OW55763   1.051  10.428  10.133 -0.1320 -0.1919  0.1104
48932SOL    HW155764   0.982  10.471  10.183 -0.3276 -0.0699 -0.2617
48932SOL    HW255765   1.094  10.371  10.196 -1.2496 -1.0698  0.1167
48933SOL     OW55766   2.194   2.943  12.014  0.3184  0.2879  0.2176
48933SOL    HW155767   2.192   2.857  11.972  0.8595  0.2450  0.2749
48933SOL    HW255768   2.108   2.952  12.055  0.4838 -0.5035  0.7645
48934SOL     OW55769  10.976   7.822   9.324  0.4296  0.0250  0.0076
48934SOL    HW155770  10.922   7.752   9.361 -1.4029  1.0432 -0.6432
48934SOL    HW255771  11.065   7.787   9.328 -0.2764 -1.8325  0.8508
48935SOL     OW55772   8.779   9.816   9.108 -0.1738 -0.1496  0.0860
48935SOL    HW155773   8.789   9.790   9.017  0.4833  1.5417 -0.3660
48935SOL    HW255774   8.720   9.892   9.105 -0.1546 -0.0836  1.0632
48936SOL     OW55775   9.758   9.260   1.419  0.2789 -0.0142 -0.6452
48936SOL    HW155776   9.801   9.290   1.339  0.2117  0.2673 -0.5770
48936SOL    HW255777   9.827   9.216   1.468 -0.3206 -3.0929 -2.2660
48937SOL     OW55778   9.739   6.687   0.198 -0.2115  0.2235  0.5313
48937SOL    HW155779   9.677   6.694   0.125  0.3793  1.2850  0.1026
48937SOL    HW255780   9.717   6.760   0.255  0.9369  0.9216  0.1201
48938SOL     OW55781   4.443   7.394   2.199 -0.1492  0.5057 -0.4008
48938SOL    HW155782   4.492   7.391   2.117 -0.7276 -0.3799 -0.7238
48938SOL    HW255783   4.351   7.405   2.172 -0.4737 -0.8247  0.0603
48939SOL     OW55784   4.750   6.885  12.148  0.0074 -0.1392 -0.2422
48939SOL    HW155785   4.776   6.918  12.062  0.5776  1.0224  0.3562
48939SOL    HW255786   4.707   6.960  12.190  1.4798 -0.0654  1.2144
48940SOL     OW55787   2.599   2.108  10.774 -0.2907  0.2513  0.0186
48940SOL    HW155788   2.656   2.174  10.813 -0.9560  1.1429 -0.4602
48940SOL    HW255789   2.558   2.064  10.848  0.3249  0.2234  0.3473
48941SOL     OW55790  12.059   1.653   7.080  0.2154 -0.6311  0.5961
48941SOL    HW155791  11.993   1.641   7.012  0.7407 -0.2022  0.0017
48941SOL    HW255792  12.038   1.587   7.146  0.0877 -1.4892 -0.2878
48942SOL     OW55793  11.428   3.474   5.503 -0.0173 -0.0230 -0.0724
48942SOL    HW155794  11.431   3.444   5.593 -0.8885  2.8507  1.0423
48942SOL    HW255795  11.519   3.499   5.483  0.3562 -1.5223 -0.3802
48943SOL     OW55796   3.181   5.693   8.198  0.2789 -0.4621 -0.8915
48943SOL    HW155797   3.169   5.750   8.122 -0.9261 -0.8049 -0.9834
48943SOL    HW255798   3.239   5.742   8.256 -0.3598  0.6686 -1.1710
48944SOL     OW55799   5.446   7.322   0.778 -0.9081  0.3270  0.6066
48944SOL    HW155800   5.415   7.292   0.863 -0.2401 -0.2988  0.6331
48944SOL    HW255801   5.367   7.323   0.723 -1.1859 -0.1172  0.9888
48945SOL     OW55802   1.962   7.347  11.464 -0.2974  0.7728  0.5249
48945SOL    HW155803   1.867   7.360  11.471 -0.7490  0.4961 -3.2066
48945SOL    HW255804   1.996   7.434  11.442 -0.2162  0.2980 -1.4368
48946SOL     OW55805   0.636   7.229   6.847 -0.3270 -0.4585  0.5470
48946SOL    HW155806   0.656   7.261   6.759  0.2924  0.2814  0.9473
48946SOL    HW255807   0.602   7.141   6.833 -0.2008 -0.3638 -0.4317
48947SOL     OW55808   5.152   9.851   2.372 -0.4949  0.5081  0.0911
48947SOL    HW155809   5.109   9.802   2.301 -0.5953  2.2998 -1.1649
48947SOL    HW255810   5.201   9.785   2.421 -2.2312 -1.1348 -0.2826
48948SOL     OW55811   9.488   5.352  10.151 -0.5474  0.2599 -0.3034
48948SOL    HW155812   9.486   5.434  10.200 -0.5646 -0.7545  1.4607
48948SOL    HW255813   9.453   5.286  10.211 -0.3917 -1.0908 -1.6128
48949SOL     OW55814   2.345   1.167  12.403 -0.0479  0.2257  0.7119
48949SOL    HW155815   2.350   1.075  12.377 -0.4141  0.5784 -0.7236
48949SOL    HW255816   2.386   1.214  12.331 -1.8982  1.3393  0.3215
48950SOL     OW55817  10.175   0.017   1.944  0.1924  0.0138 -0.2438
48950SOL    HW155818  10.128   0.061   2.016  1.8244 -0.6125  1.2843
48950SOL    HW255819  10.110   0.010   1.874 -0.9013  2.4397  0.4064
48951SOL     OW55820   0.404   2.826  11.376  0.3807  0.2473  0.4431
48951SOL    HW155821   0.311   2.812  11.358  0.5427  2.1312 -2.3636
48951SOL    HW255822   0.408   2.840  11.471 -1.9014 -1.6432  0.8997
48952SOL     OW55823   6.364   0.485  12.498 -0.0579 -0.2091 -0.1923
48952SOL    HW155824   6.354   0.563  12.553 -1.2219 -0.7840  0.4396
48952SOL    HW255825   6.458   0.467  12.500 -0.0264 -0.0157  1.3424
48953SOL     OW55826  11.637   5.945   5.033  0.6049 -0.3990  0.0199
48953SOL    HW155827  11.611   5.873   4.975 -0.8724 -0.4381  0.6876
48953SOL    HW255828  11.671   6.012   4.974  1.0306 -1.2340 -0.7005
48954SOL     OW55829   7.575   2.881   4.920 -0.3564 -0.2768  0.3164
48954SOL    HW155830   7.647   2.829   4.956  0.6515  0.5130 -0.5155
48954SOL    HW255831   7.505   2.873   4.985  0.5835 -0.8019  1.2866
48955SOL     OW55832  11.960   3.557  12.457  0.0034 -0.3687 -0.1708
48955SOL    HW155833  12.034   3.612  12.430  0.5159 -0.5549  0.7906
48955SOL    HW255834  11.882   3.606  12.430  0.4463  0.7546  0.5143
48956SOL     OW55835   2.737   1.916   9.385  0.1929  0.2174 -0.0005
48956SOL    HW155836   2.691   1.988   9.342 -0.8853 -0.2672  0.3095
48956SOL    HW255837   2.779   1.956   9.461  3.0725  1.3213 -2.0258
48957SOL     OW55838  12.549   4.473   5.019 -0.5537  0.9405  0.3245
48957SOL    HW155839  12.625   4.489   5.075  0.9844 -0.4755 -1.2177
48957SOL    HW255840  12.563   4.529   4.943 -0.5469  0.0327 -0.3669
48958SOL     OW55841   7.740   7.218   1.778 -0.0031 -0.2975 -0.0563
48958SOL    HW155842   7.708   7.274   1.849  1.1610 -0.7270  0.8249
48958SOL    HW255843   7.744   7.277   1.702 -3.0743 -0.2600 -0.3374
48959SOL     OW55844   2.795   1.367   2.791 -0.6987  0.4343 -0.3182
48959SOL    HW155845   2.800   1.381   2.885 -1.7244  0.9027 -0.3169
48959SOL    HW255846   2.702   1.349   2.774 -0.3233 -0.9490 -1.0657
48960SOL     OW55847   3.580   3.960   1.595  0.6413  0.2461  0.6256
48960SOL    HW155848   3.619   4.038   1.635 -0.0243  0.5287  0.7444
48960SOL    HW255849   3.505   3.940   1.651  0.7135 -0.3921  0.5057
48961SOL     OW55850   5.261   9.291  10.722  0.3027  0.4948 -0.2562
48961SOL    HW155851   5.232   9.375  10.685 -1.0053 -0.0081 -0.4382
48961SOL    HW255852   5.299   9.314  10.807 -0.2811  1.2524 -0.1845
48962SOL     OW55853  10.850   0.812   1.720  0.0685 -0.0958 -0.0650
48962SOL    HW155854  10.901   0.808   1.639  1.6729  0.8210  0.8463
48962SOL    HW255855  10.872   0.898   1.758  0.6497 -1.1250  2.1251
48963SOL     OW55856   5.482   8.399   3.150 -0.5669  0.6896  0.2618
48963SOL    HW155857   5.449   8.336   3.086  1.3024  0.2546 -0.3351
48963SOL    HW255858   5.406   8.421   3.204 -1.8211 -0.1464 -1.1108
48964SOL     OW55859  10.803   0.083   8.632 -0.0825  0.3253  0.3199
48964SOL    HW155860  10.797  -0.013   8.638  1.0477  0.3318  2.6245
48964SOL    HW255861  10.730   0.108   8.576 -0.0446 -1.9197 -0.8532
48965SOL     OW55862   3.805   3.670   8.390 -0.0486 -0.1679 -0.1622
48965SOL    HW155863   3.799   3.765   8.376  0.9645 -0.1829 -0.7699
48965SOL    HW255864   3.757   3.631   8.317  0.5663 -0.1479 -0.5746
48966SOL     OW55865   7.937  12.333  11.854 -0.0206 -0.5333  0.6079
48966SOL    HW155866   7.864  12.345  11.915  0.6950 -1.0829  1.6069
48966SOL    HW255867   7.919  12.393  11.782 -0.7481  0.3604  1.5095
48967SOL     OW55868   4.246  10.134   5.745  0.5989 -0.1047 -0.0978
48967SOL    HW155869   4.227  10.219   5.704  0.2978 -0.6033 -1.0328
48967SOL    HW255870   4.180  10.125   5.814  0.0119 -0.0002 -0.6357
48968SOL     OW55871   0.642   2.663  11.475 -0.0123  0.2782 -0.0607
48968SOL    HW155872   0.731   2.693  11.494  0.7099 -1.8218  0.1674
48968SOL    HW255873   0.586   2.715  11.532  1.2125  0.6491  0.8477
48969SOL     OW55874  11.244   8.540   4.837  0.2855 -0.2232 -0.0631
48969SOL    HW155875  11.187   8.467   4.859 -1.7089  1.6536  1.3757
48969SOL    HW255876  11.206   8.577   4.757  0.5200 -0.0158 -0.0807
48970SOL     OW55877   6.108   2.425   8.249 -0.2704 -0.6645  0.3463
48970SOL    HW155878   6.105   2.416   8.344  1.2886  0.1293  0.5053
48970SOL    HW255879   6.021   2.457   8.225 -1.6482 -3.5549  1.1411
48971SOL     OW55880   6.011   2.435   8.508 -0.6352 -0.1275 -0.0043
48971SOL    HW155881   5.955   2.476   8.442  0.4084  2.3846  0.5606
48971SOL    HW255882   5.954   2.428   8.585 -0.9209  0.0163 -0.1971
48972SOL     OW55883   4.831  10.533   0.976 -0.0410  0.1298  0.1439
48972SOL    HW155884   4.759  10.566   1.029  0.6342 -0.2839  1.3621
48972SOL    HW255885   4.904  10.523   1.037  0.6478 -0.7684 -0.7736
48973SOL     OW55886   3.588   0.684   5.080 -0.3102 -0.0111  0.1282
48973SOL    HW155887   3.606   0.590   5.089  0.5629  0.1139 -0.2490
48973SOL    HW255888   3.548   0.708   5.163  0.8327 -0.4120  0.8120
48974SOL     OW55889   1.362   3.532   0.683  0.3183  0.1959 -0.6377
48974SOL    HW155890   1.285   3.588   0.674  0.8500  1.0790  0.0959
48974SOL    HW255891   1.365   3.510   0.776  0.2183 -0.9252 -0.8899
48975SOL     OW55892   7.441   9.723  11.340 -0.2774 -0.2347  0.2593
48975SOL    HW155893   7.365   9.668  11.360 -0.4336 -0.2438 -0.3307
48975SOL    HW255894   7.443   9.788  11.410 -0.9108 -0.1543  0.2079
48976SOL     OW55895   2.522   8.394  12.513 -0.4176  0.0390  0.0045
48976SOL    HW155896   2.502   8.364  12.602 -2.8533 -0.0901 -0.5196
48976SOL    HW255897   2.531   8.314  12.462  1.7738  0.0864  0.2189
48977SOL     OW55898   7.729   1.621   9.286  0.2622 -0.1400  0.1476
48977SOL    HW155899   7.716   1.615   9.381  2.7525  1.3364  0.7045
48977SOL    HW255900   7.824   1.614   9.275  0.0675  0.1482 -2.2137
48978SOL     OW55901   0.502   7.055   1.022  0.3334 -0.0393  0.3528
48978SOL    HW155902   0.484   7.009   1.104 -5.0719 -1.4468 -1.1813
48978SOL    HW255903   0.437   7.125   1.020  1.0288  0.6263 -2.2361
48979SOL     OW55904  11.319  11.727   1.872  0.2877  0.2523 -0.2173
48979SOL    HW155905  11.321  11.822   1.859  0.5652  0.3082  0.2180
48979SOL    HW255906  11.237  11.712   1.919  0.0693  0.2335 -0.5992
48980SOL     OW55907   3.166   1.006   1.168 -0.4268  0.3520 -0.0540
48980SOL    HW155908   3.207   0.973   1.088 -1.1846 -0.4858 -0.1019
48980SOL    HW255909   3.146   1.097   1.148  0.2382  0.4173 -0.4807
48981SOL     OW55910  10.869   2.873  11.893  0.1294 -0.7788  0.6008
48981SOL    HW155911  10.866   2.781  11.867 -1.4891 -0.2876 -1.1883
48981SOL    HW255912  10.918   2.916  11.824 -0.6722 -0.0456  0.4726
48982SOL     OW55913   1.166   9.382   0.078 -0.0957 -0.2776  0.2890
48982SOL    HW155914   1.226   9.326   0.127  0.7998  0.1800 -0.2537
48982SOL    HW255915   1.107   9.418   0.144  2.4640  2.1293  1.5079
48983SOL     OW55916   8.889   1.894   9.262 -0.0137  0.1922  0.2703
48983SOL    HW155917   8.941   1.858   9.190 -1.6692 -1.2316 -0.2730
48983SOL    HW255918   8.918   1.985   9.270  1.3053 -0.0754 -1.1464
48984SOL     OW55919   7.118   0.068   9.538  0.1870  0.0924  0.0323
48984SOL    HW155920   7.207   0.047   9.568  0.5787  0.1229 -1.0719
48984SOL    HW255921   7.103   0.010   9.464 -1.0108 -0.4207  0.6583
48985SOL     OW55922   5.722   7.318   0.530 -0.3479  0.5709  0.1464
48985SOL    HW155923   5.755   7.280   0.449  0.6725 -1.5847  1.4770
48985SOL    HW255924   5.628   7.299   0.529 -0.1832 -0.2855 -0.1433
48986SOL     OW55925   1.119   8.387   4.832  1.0322 -0.2248  0.5536
48986SOL    HW155926   1.163   8.382   4.917  2.2305 -0.0369 -0.0291
48986SOL    HW255927   1.030   8.415   4.853  1.7058  1.2890  1.6646
48987SOL     OW55928   3.792  12.175   7.256 -0.2376  0.3072 -0.1343
48987SOL    HW155929   3.791  12.142   7.166 -0.1775  0.6040 -0.2456
48987SOL    HW255930   3.743  12.109   7.306  0.7276 -0.4591 -0.1650
48988SOL     OW55931   3.927   6.710   5.281  0.2017  0.2212  0.2879
48988SOL    HW155932   4.018   6.710   5.310  0.1451  0.1495  0.4627
48988SOL    HW255933   3.911   6.800   5.252  0.0079  0.5027  1.2482
48989SOL     OW55934   9.789  10.239   2.729 -0.3259 -0.2981 -0.2923
48989SOL    HW155935   9.698  10.211   2.721 -0.6490 -0.5561  3.1181
48989SOL    HW255936   9.840  10.159   2.716 -0.8402 -0.9924  1.7415
48990SOL     OW55937  11.432   6.024  11.768 -0.0044  0.1851 -0.2242
48990SOL    HW155938  11.503   5.986  11.819 -0.8459 -0.7287  0.3147
48990SOL    HW255939  11.475   6.080  11.704  1.2678 -1.1195 -0.5657
48991SOL     OW55940   0.491   3.274   5.311  0.0199 -0.2927 -0.0290
48991SOL    HW155941   0.485   3.276   5.406 -2.7752 -0.6648 -0.1053
48991SOL    HW255942   0.545   3.350   5.289  0.9360 -0.3441  1.8299
48992SOL     OW55943   2.367   5.992   7.495  0.0762  0.1119 -0.6001
48992SOL    HW155944   2.376   6.077   7.452 -1.5672  0.0151 -1.2111
48992SOL    HW255945   2.377   5.928   7.425 -0.2250 -0.1373 -0.4199
48993SOL     OW55946  10.022   5.164   3.617 -0.7519  0.3771 -0.3147
48993SOL    HW155947  10.014   5.162   3.522  0.4918 -0.8520 -0.4099
48993SOL    HW255948   9.956   5.102   3.648 -0.3004 -0.1722 -0.4458
48994SOL     OW55949  10.473   1.510   0.248 -0.0723  0.2805 -0.2546
48994SOL    HW155950  10.513   1.424   0.262  0.7064  0.6824  0.0103
48994SOL    HW255951  10.469   1.550   0.335 -0.7963  0.3624 -0.3184
48995SOL     OW55952  10.291   9.748   1.546  0.1688 -0.0814  0.2716
48995SOL    HW155953  10.333   9.819   1.497  1.5168 -0.7246  0.4587
48995SOL    HW255954  10.319   9.762   1.637  1.8420 -1.7577  0.0819
48996SOL     OW55955  10.084  11.787   6.000 -0.2035  0.0973  0.5716
48996SOL    HW155956  10.108  11.765   5.910  0.4048 -0.0604  0.7645
48996SOL    HW255957  10.158  11.840   6.032 -1.1778  1.5914  0.4407
48997SOL     OW55958  12.462   8.166   6.226 -0.1240  0.0226  0.0601
48997SOL    HW155959  12.506   8.235   6.276 -0.0223 -1.0096  1.4501
48997SOL    HW255960  12.375   8.203   6.207 -0.2620  0.3349  1.2491
48998SOL     OW55961   8.987   2.418   9.759 -0.3868  0.0086 -0.4542
48998SOL    HW155962   9.019   2.503   9.729 -0.5915 -0.1298 -1.0805
48998SOL    HW255963   8.920   2.440   9.824  1.4012  0.2919  1.3589
48999SOL     OW55964   3.431   6.774   5.997 -0.0261  0.5143 -0.1314
48999SOL    HW155965   3.463   6.743   5.912  0.8513  0.0491  0.3558
48999SOL    HW255966   3.497   6.745   6.059 -1.1560 -0.0468  0.8520
49000SOL     OW55967   0.440  11.748  11.528 -0.4070 -0.1449  0.8071
49000SOL    HW155968   0.466  11.706  11.446  0.7082 -0.0008  1.0707
49000SOL    HW255969   0.453  11.841  11.513  1.3127 -0.2193  1.6333
49001SOL     OW55970   8.269   9.281   9.024  0.1389 -0.1809  0.3061
49001SOL    HW155971   8.192   9.310   9.073 -0.5273  0.5889 -1.1013
49001SOL    HW255972   8.281   9.348   8.957  1.7664 -0.5390  0.1961
49002SOL     OW55973   6.340  12.294  11.197 -0.1603  0.0797 -0.2610
49002SOL    HW155974   6.406  12.339  11.145 -0.4817 -0.1122 -0.8502
49002SOL    HW255975   6.302  12.230  11.137 -0.4173 -0.2725  0.2650
49003SOL     OW55976  10.032   9.370   2.988 -0.4091 -0.2566  0.6291
49003SOL    HW155977   9.944   9.359   3.025 -0.5724 -0.3205  0.2229
49003SOL    HW255978  10.056   9.460   3.010 -0.2765 -0.4650  1.3726
49004SOL     OW55979   2.561   7.592   3.189 -0.1454  0.0557 -0.1403
49004SOL    HW155980   2.565   7.678   3.231 -0.2937 -1.0380  2.3136
49004SOL    HW255981   2.599   7.606   3.102  0.5250  2.4302  0.4453
49005SOL     OW55982   1.049  11.644   1.087 -0.3328 -0.1931  0.0506
49005SOL    HW155983   1.080  11.733   1.104 -2.8257  1.0078 -1.1643
49005SOL    HW255984   1.097  11.590   1.149 -0.5298  2.3186  2.6017
49006SOL     OW55985   7.268   2.490   6.132  0.0364  0.0788  0.5352
49006SOL    HW155986   7.269   2.544   6.211 -1.9571 -0.7849  1.2360
49006SOL    HW255987   7.348   2.513   6.085  1.0710  0.9149  2.6004
49007SOL     OW55988  12.569   9.803   9.493 -0.6481  0.3593  0.0578
49007SOL    HW155989  12.654   9.845   9.509 -1.0692  1.5051 -0.5626
49007SOL    HW255990  12.591   9.717   9.457  0.2473  0.0430  1.3031
49008SOL     OW55991  11.447   6.860  12.161  0.4780 -0.3258 -0.1306
49008SOL    HW155992  11.510   6.840  12.092  1.2129  0.2453  0.3604
49008SOL    HW255993  11.363   6.864  12.116  1.0055  0.5414 -1.0829
49009SOL     OW55994  12.459   0.238   8.146  0.1413  0.3335  0.2758
49009SOL    HW155995  12.518   0.225   8.073  0.8181  1.6141  0.5678
49009SOL    HW255996  12.398   0.306   8.117  1.0773  1.6360  1.2448
49010SOL     OW55997   1.750   2.641   1.368 -0.0776  0.0864 -0.1106
49010SOL    HW155998   1.708   2.679   1.446  0.4735 -0.0121  0.2422
49010SOL    HW255999   1.822   2.589   1.403  0.7366  0.7648 -0.7287
49011SOL     OW56000   6.146   4.641   3.925 -0.2211  0.4963 -0.2760
49011SOL    HW156001   6.182   4.610   3.842 -0.0932  1.9635 -0.8052
49011SOL    HW256002   6.095   4.719   3.901 -0.3982  0.7854  0.9869
49012SOL     OW56003   0.508  10.796   5.170 -0.2886  1.0564 -0.2419
49012SOL    HW156004   0.542  10.716   5.132 -0.3873  1.7685 -1.8956
49012SOL    HW256005   0.579  10.829   5.225 -0.0053  0.1959 -0.0847
49013SOL     OW56006  12.459   7.363   2.208  0.0090  0.7867 -0.3367
49013SOL    HW156007  12.418   7.411   2.279  1.6528  2.0391 -0.1664
49013SOL    HW256008  12.403   7.380   2.132 -0.5571  1.2936  0.1834
49014SOL     OW56009  10.733   4.816   4.751  0.0418  0.1756 -0.1212
49014SOL    HW156010  10.720   4.880   4.682 -2.1351 -0.3871 -0.3246
49014SOL    HW256011  10.685   4.851   4.826 -0.4576 -0.7820  0.0295
49015SOL     OW56012   3.742   3.896   3.174 -0.2454  0.2107  0.4696
49015SOL    HW156013   3.679   3.968   3.181 -0.9436 -0.4728  1.6535
49015SOL    HW256014   3.755   3.868   3.265 -2.6030 -3.3482 -0.0854
49016SOL     OW56015   6.362   7.072   1.505 -0.1121  0.0072 -0.0399
49016SOL    HW156016   6.393   7.145   1.452 -0.8398  1.1504  1.0710
49016SOL    HW256017   6.348   7.001   1.442  1.0008  0.6691 -1.0735
49017SOL     OW56018   1.177   8.987   9.259 -0.6768  1.0814 -0.3736
49017SOL    HW156019   1.209   8.932   9.331  0.3077  1.9460 -0.1320
49017SOL    HW256020   1.257   9.014   9.212 -1.1665  2.0637 -0.6595
49018SOL     OW56021   3.544  12.193   1.312  0.2135 -0.7170  0.6326
49018SOL    HW156022   3.635  12.174   1.334  0.4524 -0.0918  0.1892
49018SOL    HW256023   3.548  12.245   1.232 -0.6160 -2.1475 -0.3973
49019SOL     OW56024   1.758  10.039  11.563  0.1503 -0.0262 -0.7350
49019SOL    HW156025   1.702   9.963  11.548 -0.9867  0.7677 -0.6736
49019SOL    HW256026   1.841  10.017  11.521 -1.1071 -0.1166 -3.3837
49020SOL     OW56027   4.449   2.988  12.279 -0.3383  0.2369 -0.5898
49020SOL    HW156028   4.393   2.960  12.206 -0.1660  1.6382 -1.2817
49020SOL    HW256029   4.418   3.076  12.301  0.7597  0.5248 -0.1345
49021SOL     OW56030  11.106   4.850  10.395  0.6849 -0.5857 -0.3409
49021SOL    HW156031  11.054   4.830  10.473 -0.2291  2.6308  0.0068
49021SOL    HW256032  11.059   4.810  10.323  0.0978 -1.3686  0.4589
49022SOL     OW56033   1.172   2.953   2.061 -0.1184  0.1206 -0.5187
49022SOL    HW156034   1.133   2.994   2.138  1.3863 -2.3180  1.7170
49022SOL    HW256035   1.102   2.901   2.023 -0.8890  1.3808 -0.8886
49023SOL     OW56036  10.302   4.965  12.084  0.0174  0.8961 -0.3747
49023SOL    HW156037  10.212   4.969  12.053 -0.1984 -2.1547 -0.4035
49023SOL    HW256038  10.344   4.901  12.026  1.7094  0.8923  0.7961
49024SOL     OW56039   7.079   0.628   3.745  0.0866  0.5643  0.4390
49024SOL    HW156040   7.157   0.683   3.739  1.3742 -1.0410  1.4787
49024SOL    HW256041   7.084   0.571   3.668  0.1049  0.2609  0.6631
49025SOL     OW56042  10.946   9.675   3.042 -0.9913 -0.4394 -0.5197
49025SOL    HW156043  10.908   9.657   2.956  0.0137  0.0577 -1.0845
49025SOL    HW256044  10.972   9.589   3.075 -0.4944 -0.5345 -1.1408
49026SOL     OW56045   6.333   0.551  11.450  0.3336  0.1807 -0.5370
49026SOL    HW156046   6.250   0.519  11.483  0.1112 -0.2989 -1.5319
49026SOL    HW256047   6.391   0.553  11.526 -0.3980 -0.0999  0.0275
49027SOL     OW56048  10.598   3.209   9.727  0.2409  0.3629  0.0692
49027SOL    HW156049  10.576   3.283   9.785  1.2629  0.4537  0.3546
49027SOL    HW256050  10.516   3.190   9.681 -0.2140  1.2298  0.4938
49028SOL     OW56051   1.041   2.682  10.276  0.0151  0.3067  0.7354
49028SOL    HW156052   1.062   2.631  10.197  1.8784  0.2154  1.2410
49028SOL    HW256053   1.055   2.773  10.250 -1.9170  0.5215  0.2549
49029SOL     OW56054   3.589   3.942   9.243  0.0040  0.7985  0.2179
49029SOL    HW156055   3.645   3.912   9.172 -2.0668  1.4920 -1.8411
49029SOL    HW256056   3.553   3.861   9.281  0.0698  0.4381 -0.4698
49030SOL     OW56057   3.136  11.207   3.987  0.3628  0.2977  0.3403
49030SOL    HW156058   3.226  11.225   3.962  0.8539 -1.0370  1.0505
49030SOL    HW256059   3.143  11.157   4.068 -0.9620 -0.9379 -0.2581
49031SOL     OW56060   4.654  12.017   5.214  0.2859  0.0240  0.0128
49031SOL    HW156061   4.622  12.106   5.234  2.4418  1.3141 -1.8475
49031SOL    HW256062   4.679  11.981   5.299 -1.0040  1.0174  0.8527
49032SOL     OW56063   7.173  11.915   9.048  0.4789 -0.1767 -0.0998
49032SOL    HW156064   7.254  11.966   9.052 -0.2656  1.0949 -0.6466
49032SOL    HW256065   7.105  11.977   9.074 -0.3710 -1.1233 -0.0234
49033SOL     OW56066  11.191   2.201   2.701 -0.1697 -0.4040 -0.3786
49033SOL    HW156067  11.116   2.178   2.645 -1.4734  0.2815  1.0034
49033SOL    HW256068  11.161   2.277   2.750  2.1944  1.1968 -1.2239
49034SOL     OW56069  11.661   9.987   5.643 -0.9998  0.0113  0.1086
49034SOL    HW156070  11.638   9.956   5.555  0.9928  0.1867 -0.5215
49034SOL    HW256071  11.624   9.921   5.702  0.8451 -2.2443 -1.0629
49035SOL     OW56072   5.624   5.374   8.050  1.1920  0.1141  0.4949
49035SOL    HW156073   5.612   5.285   8.085  1.8389  0.3725  1.4204
49035SOL    HW256074   5.606   5.431   8.125 -1.7314  0.9187 -0.6893
49036SOL     OW56075  11.749   8.193  10.039 -0.1776 -0.1175 -0.5411
49036SOL    HW156076  11.674   8.204   9.981 -0.8505 -0.4140  0.2550
49036SOL    HW256077  11.825   8.188   9.980 -0.6828  0.9942 -1.3155
49037SOL     OW56078   3.070   9.210   5.097 -0.0046 -0.2760 -0.1667
49037SOL    HW156079   2.994   9.215   5.038 -1.3004 -3.2957  1.0374
49037SOL    HW256080   3.085   9.116   5.107  2.6928  0.2265  1.2205
49038SOL     OW56081   4.320   4.578   6.674 -0.4669 -0.0040 -0.2930
49038SOL    HW156082   4.363   4.653   6.716 -0.0296 -0.9201  0.9637
49038SOL    HW256083   4.272   4.616   6.600  2.5762  1.0955 -1.8991
49039SOL     OW56084   3.350   8.120   4.094 -0.1329  0.3187 -0.1129
49039SOL    HW156085   3.388   8.091   4.011 -0.5378 -0.0708 -0.1688
49039SOL    HW256086   3.424   8.124   4.154 -0.0344 -0.6870 -0.1511
49040SOL     OW56087   3.952  11.718   1.685  0.8552  0.0489 -0.4985
49040SOL    HW156088   4.007  11.785   1.726  1.4212 -1.0071  0.5280
49040SOL    HW256089   3.964  11.732   1.591  0.2485  1.9444 -0.3342
49041SOL     OW56090   8.345  12.587   3.203  0.3478 -0.4119 -1.2999
49041SOL    HW156091   8.323  12.680   3.200  0.8095 -0.2494 -0.0252
49041SOL    HW256092   8.279  12.546   3.147 -0.4219  0.5783 -1.1586
49042SOL     OW56093  11.615   3.793  10.315 -0.0810  0.1660  1.0092
49042SOL    HW156094  11.526   3.821  10.294  0.6096  0.8328 -1.3111
49042SOL    HW256095  11.607   3.700  10.335 -1.2459  0.0977  0.3201
49043SOL     OW56096   7.663  11.025   2.262  0.1649  0.1235 -0.0301
49043SOL    HW156097   7.644  10.932   2.246  0.6779  0.0656 -0.3041
49043SOL    HW256098   7.721  11.051   2.190  0.8702  0.3741  0.6086
49044SOL     OW56099  10.422   8.905   6.644 -0.6996  0.2212 -0.2008
49044SOL    HW156100  10.405   8.846   6.717 -1.9524 -0.7470 -1.2244
49044SOL    HW256101  10.456   8.985   6.685 -0.6740 -0.5489  1.3563
49045SOL     OW56102   7.118   9.335   8.189 -0.6486 -0.1795  0.2386
49045SOL    HW156103   7.164   9.380   8.118 -2.3134 -2.6432 -2.6700
49045SOL    HW256104   7.080   9.406   8.241 -0.8696  1.8528 -2.4431
49046SOL     OW56105   9.064   5.489  12.342  0.1371  0.3281  0.0303
49046SOL    HW156106   9.077   5.430  12.417 -1.7533  0.6804  0.6872
49046SOL    HW256107   9.076   5.576  12.379  0.6600  0.4504 -0.4256
49047SOL     OW56108   1.007   8.293   6.997  0.3679 -0.2145  0.2326
49047SOL    HW156109   0.925   8.305   7.045  0.4441  0.6321  0.1623
49047SOL    HW256110   0.985   8.233   6.926 -0.1753 -0.0569  0.2638
49048SOL     OW56111   8.266   7.643   5.636 -0.0067  0.5157  0.5859
49048SOL    HW156112   8.314   7.600   5.707  1.3659  0.7801 -0.1432
49048SOL    HW256113   8.248   7.573   5.574  1.1266  0.7270 -0.0140
49049SOL     OW56114   2.918  10.102   3.578 -1.1420  0.0449 -0.1585
49049SOL    HW156115   2.923  10.073   3.669  1.4070 -0.6509 -0.4509
49049SOL    HW256116   2.892  10.025   3.529 -3.1145  0.5694 -0.0022
49050SOL     OW56117   0.023  10.601   1.533  0.5030  0.1064  0.2396
49050SOL    HW156118   0.087  10.632   1.598  0.0828 -0.9697  1.2065
49050SOL    HW256119  -0.012  10.681   1.494  0.4583  0.8198  1.6500
49051SOL     OW56120   0.552   5.527   0.256 -0.1280  0.2576  0.1969
49051SOL    HW156121   0.542   5.542   0.162 -0.1648  0.2798  0.2042
49051SOL    HW256122   0.635   5.568   0.278 -1.0552  2.0700  0.5438
49052SOL     OW56123   3.479  12.578   3.803 -0.2955  0.0630 -0.3582
49052SOL    HW156124   3.526  12.612   3.879  0.5357 -3.3848  0.8476
49052SOL    HW256125   3.541  12.585   3.731  0.8387 -1.1483  0.4465
49053SOL     OW56126   2.565   7.304   9.239 -0.5410  0.3854  0.2888
49053SOL    HW156127   2.498   7.250   9.198  0.9700 -1.2257 -0.1986
49053SOL    HW256128   2.605   7.248   9.306 -0.3072  1.6323  1.2603
49054SOL     OW56129   8.903   4.614   0.058  0.3727 -0.0774  0.0437
49054SOL    HW156130   8.934   4.525   0.071 -0.8460 -0.3688  1.0445
49054SOL    HW256131   8.841   4.630   0.129  0.5525  1.5666 -0.1133
49055SOL     OW56132   3.737   5.916   7.167  0.1245 -0.0974 -0.0844
49055SOL    HW156133   3.787   5.918   7.249 -0.4404 -0.7862  0.2857
49055SOL    HW256134   3.793   5.962   7.104 -0.1130  1.8393  1.0459
49056SOL     OW56135   4.379   8.448   2.554 -0.1175  0.0051  0.2090
49056SOL    HW156136   4.380   8.411   2.466  1.5375  1.2456 -0.3310
49056SOL    HW256137   4.346   8.538   2.542 -0.4509 -0.0085  0.9512
49057SOL     OW56138   1.973  11.287   5.540  0.0503 -0.0405 -0.4501
49057SOL    HW156139   2.022  11.348   5.595 -3.2997  2.9465 -0.3925
49057SOL    HW256140   1.992  11.314   5.450  0.1981 -0.3520 -0.5149
49058SOL     OW56141   7.776   0.815   5.517 -0.6098 -0.0330  0.0832
49058SOL    HW156142   7.775   0.824   5.612 -0.4174  2.4798 -0.0734
49058SOL    HW256143   7.839   0.745   5.500 -2.0104 -1.8421  1.8131
49059SOL     OW56144   2.067   5.716   4.737  0.6892 -0.1475  0.4093
49059SOL    HW156145   2.147   5.769   4.734  0.1563  0.6508 -2.0414
49059SOL    HW256146   2.005   5.764   4.682 -0.7708 -1.8814  0.4776
49060SOL     OW56147   9.513   1.132   7.006  0.1717  0.1489  0.1564
49060SOL    HW156148   9.423   1.162   7.015  0.1177  0.3321 -0.8798
49060SOL    HW256149   9.553   1.193   6.944  0.9252 -0.1156  0.3623
49061SOL     OW56150   8.223   6.163  12.319 -0.3889  0.0180  0.1853
49061SOL    HW156151   8.215   6.256  12.338 -2.3262 -0.2315  0.8468
49061SOL    HW256152   8.265   6.160  12.233 -0.0474  1.4822  0.2743
49062SOL     OW56153   4.777  11.776   5.177  0.2673 -0.3071  0.3395
49062SOL    HW156154   4.867  11.798   5.203 -0.4179  2.6087  0.6447
49062SOL    HW256155   4.733  11.861   5.172 -1.8102 -1.4178 -2.4081
49063SOL     OW56156   1.758   2.844   1.138 -0.3690  0.2507 -0.3196
49063SOL    HW156157   1.767   2.797   1.221 -0.1366  1.6331  0.4703
49063SOL    HW256158   1.764   2.776   1.072 -1.2791 -0.9908  0.8072
49064SOL     OW56159  10.683   3.626  12.456  0.2972  0.4718  0.6099
49064SOL    HW156160  10.755   3.683  12.484 -0.0400  1.7305 -0.9690
49064SOL    HW256161  10.698   3.614  12.362 -0.1842 -1.3059  0.7189
49065SOL     OW56162   2.132  12.366   0.210  0.0305  0.2057 -0.4853
49065SOL    HW156163   2.146  12.283   0.255 -1.5304  0.7168  1.0773
49065SOL    HW256164   2.172  12.431   0.266  0.6852  0.5902 -1.3806
49066SOL     OW56165   0.992  10.451   9.618 -0.3366 -0.3627  0.2924
49066SOL    HW156166   0.996  10.506   9.539 -0.4634 -1.7716 -0.7250
49066SOL    HW256167   0.999  10.362   9.586  0.7100 -0.9355  1.9859
49067SOL     OW56168   0.318   2.092   3.926 -0.1976 -0.0137  0.8347
49067SOL    HW156169   0.352   2.081   3.837 -1.6126 -1.4214  0.4358
49067SOL    HW256170   0.297   2.004   3.956 -0.9914  0.5531  2.0697
49068SOL     OW56171   2.456   1.211  11.759 -0.3956 -0.1121  0.2167
49068SOL    HW156172   2.403   1.231  11.682 -0.6218  3.0087  1.0703
49068SOL    HW256173   2.494   1.295  11.784  2.0026 -1.5692  1.8424
49069SOL     OW56174   3.255   9.473   5.682 -0.4046  0.1179  0.2792
49069SOL    HW156175   3.262   9.567   5.699 -0.5619  0.5670 -1.8233
49069SOL    HW256176   3.306   9.432   5.751  0.7210  1.8194  0.5119
49070SOL     OW56177   8.124   7.281   3.892 -0.7128 -0.2197 -0.2983
49070SOL    HW156178   8.163   7.253   3.975 -1.7944 -0.8122  0.0353
49070SOL    HW256179   8.136   7.206   3.833 -0.7673 -0.1524 -0.3956
49071SOL     OW56180   2.709   2.845   3.731  0.5425  0.4701  0.3689
49071SOL    HW156181   2.692   2.879   3.819 -0.3868  0.6046  0.1424
49071SOL    HW256182   2.805   2.846   3.723  0.7067 -0.5938  1.7872
49072SOL     OW56183   4.705   9.331   6.529 -0.2473  0.1640 -0.7266
49072SOL    HW156184   4.618   9.371   6.519 -0.2590  0.4036  0.2011
49072SOL    HW256185   4.721   9.335   6.624 -0.3372 -2.2156 -0.5644
49073SOL     OW56186   4.837   0.604   9.608  0.1626 -0.1201  0.3659
49073SOL    HW156187   4.932   0.597   9.616  0.7633  3.4436 -1.5522
49073SOL    HW256188   4.821   0.613   9.514 -2.0184 -0.0003  0.6860
49074SOL     OW56189   7.862  10.755   8.292  0.2155  0.4066 -0.2154
49074SOL    HW156190   7.939  10.762   8.236  0.9389 -0.0061  0.7116
49074SOL    HW256191   7.788  10.768   8.232  1.0137  1.9340 -0.9244
49075SOL     OW56192  10.492   7.004   8.621  0.1113  0.0409  0.3691
49075SOL    HW156193  10.502   6.944   8.695  0.7196 -2.1999 -1.4063
49075SOL    HW256194  10.556   7.073   8.638  0.0428 -0.2618  2.0451
49076SOL     OW56195   1.047  10.292   2.760 -0.6360 -0.1807  0.1824
49076SOL    HW156196   0.966  10.246   2.783 -1.3811  0.6744 -0.6111
49076SOL    HW256197   1.089  10.235   2.695 -0.2824 -0.9193  1.0437
49077SOL     OW56198   3.637   7.125   6.190 -0.5489  0.0445  0.1164
49077SOL    HW156199   3.571   7.059   6.168 -0.1472  0.2058 -1.6648
49077SOL    HW256200   3.587   7.202   6.217 -1.1044  0.1662 -1.2293
49078SOL     OW56201   2.885  10.021   8.818 -0.3716 -0.2190  0.8287
49078SOL    HW156202   2.963  10.067   8.851  0.1365 -0.4984  0.0357
49078SOL    HW256203   2.872   9.950   8.881 -0.2657  0.1038  1.2237
49079SOL     OW56204   5.020   0.127   6.687  0.2035  0.3870 -0.4194
49079SOL    HW156205   4.925   0.132   6.675 -0.3316  0.3120  2.7717
49079SOL    HW256206   5.046   0.218   6.705  0.2420  0.0856  1.2149
49080SOL     OW56207   5.419  12.017   8.228 -0.1921 -0.0755 -1.1392
49080SOL    HW156208   5.422  12.110   8.203 -0.3765 -0.4431 -2.6074
49080SOL    HW256209   5.328  12.002   8.252 -0.3411 -0.0623 -1.6843
49081SOL     OW56210  10.499   7.470   3.081 -0.1267  0.3108  0.2383
49081SOL    HW156211  10.446   7.540   3.043 -0.4182  0.1137  0.2791
49081SOL    HW256212  10.501   7.402   3.013 -0.1435  0.2108  0.3368
49082SOL     OW56213  11.370   9.636   5.037 -0.2909 -0.5809 -0.2103
49082SOL    HW156214  11.449   9.676   5.072 -0.9891 -0.1343  0.8933
49082SOL    HW256215  11.374   9.654   4.943  0.3229  0.4669  0.0005
49083SOL     OW56216  10.537   1.513   9.535  0.2663 -0.0290 -0.1111
49083SOL    HW156217  10.510   1.599   9.568 -0.1976  0.1836 -1.0236
49083SOL    HW256218  10.627   1.502   9.567  0.5106  1.0130 -0.4106
49084SOL     OW56219   6.397   1.350   8.002  0.3186 -0.5698 -0.4825
49084SOL    HW156220   6.447   1.425   7.970  0.0418 -0.3386 -0.3887
49084SOL    HW256221   6.457   1.276   7.997  0.3391 -0.5023 -1.3367
49085SOL     OW56222   8.493   3.323   6.427  0.1831 -0.0255  0.5403
49085SOL    HW156223   8.452   3.345   6.510  0.3277  0.7236  0.4189
49085SOL    HW256224   8.586   3.311   6.449  0.8864  3.4334  0.0071
49086SOL     OW56225   1.174   5.134  12.257  0.2417  0.8860  0.2716
49086SOL    HW156226   1.081   5.116  12.244  0.1345  1.4323  0.2669
49086SOL    HW256227   1.217   5.088  12.185  0.3936 -3.0192  2.6101
49087SOL     OW56228   9.842  10.236   7.411  0.2957 -0.3532  0.2986
49087SOL    HW156229   9.902  10.304   7.440  0.2827 -0.5155  0.7122
49087SOL    HW256230   9.812  10.266   7.325 -0.8719  0.9226  1.0983
49088SOL     OW56231   0.403   7.406   0.941  0.6252  0.0848 -0.5759
49088SOL    HW156232   0.435   7.480   0.992  1.4665 -1.7771  1.8405
49088SOL    HW256233   0.411   7.433   0.850  0.9061  2.9013  0.1971
49089SOL     OW56234  11.700   4.705   0.724  0.2096  0.0723  0.3616
49089SOL    HW156235  11.670   4.728   0.812  0.8505 -0.2128  0.6618
49089SOL    HW256236  11.729   4.614   0.731 -1.8677 -0.7263 -0.7057
49090SOL     OW56237  11.035   5.344   7.148  0.1108 -0.4547  0.0999
49090SOL    HW156238  11.122   5.383   7.157 -0.7663  1.9541 -0.8900
49090SOL    HW256239  10.983   5.386   7.217 -0.9081  0.3263 -1.0930
49091SOL     OW56240   0.607  11.600   9.668  0.0746  0.1565  0.0378
49091SOL    HW156241   0.638  11.683   9.704 -1.3999 -0.1121  2.1073
49091SOL    HW256242   0.520  11.620   9.633 -0.1015 -0.4245  0.1365
49092SOL     OW56243   7.535   7.774   3.150  0.4841 -0.1259 -0.0722
49092SOL    HW156244   7.598   7.717   3.194  1.1153  0.7083  0.1430
49092SOL    HW256245   7.458   7.719   3.137  0.8950 -0.8789  0.5606
49093SOL     OW56246   7.518   6.436   1.165  0.1110 -0.1215 -0.4346
49093SOL    HW156247   7.424   6.427   1.181  0.0585  0.7477 -0.2024
49093SOL    HW256248   7.557   6.356   1.201 -0.6132 -0.8686 -1.2584
49094SOL     OW56249   7.384   3.325  12.401 -0.1232 -0.2366  0.1561
49094SOL    HW156250   7.336   3.243  12.387  0.8345 -0.4509 -2.3956
49094SOL    HW256251   7.325   3.393  12.369  0.4290 -0.3097 -1.0766
49095SOL     OW56252   6.487   1.905   8.084 -0.7513 -1.0355  0.0598
49095SOL    HW156253   6.574   1.871   8.105  0.3848  0.8016 -1.3764
49095SOL    HW256254   6.464   1.960   8.158 -0.0446 -0.4185 -0.1661
49096SOL     OW56255  11.701   8.409   1.011  0.3065 -0.0252  0.0946
49096SOL    HW156256  11.647   8.456   0.947  1.8181  0.1431 -1.1259
49096SOL    HW256257  11.654   8.327   1.026  0.2834 -0.4444 -1.9158
49097SOL     OW56258   4.832   4.808   3.512 -1.1560 -0.1206  0.5323
49097SOL    HW156259   4.849   4.772   3.425 -2.0769  0.3640  0.1398
49097SOL    HW256260   4.755   4.864   3.501 -0.9303  0.4194  1.5375
49098SOL     OW56261   6.753   2.202   1.841 -0.5005  0.5951  0.3782
49098SOL    HW156262   6.689   2.256   1.796 -1.0787 -0.4682 -0.1238
49098SOL    HW256263   6.737   2.113   1.808  1.7036  0.3974 -0.3029
49099SOL     OW56264   0.283   5.419   2.890 -0.4885  0.5608  0.1441
49099SOL    HW156265   0.197   5.379   2.879 -1.1647  1.8595  0.4325
49099SOL    HW256266   0.325   5.410   2.805 -0.7487 -0.4492  0.1148
49100SOL     OW56267   9.324   3.235   6.125 -0.2597 -0.7218 -0.4030
49100SOL    HW156268   9.240   3.278   6.111 -0.2761 -1.2388 -2.2623
49100SOL    HW256269   9.383   3.304   6.153 -0.8065  0.0961 -1.2087
49101SOL     OW56270   4.935  12.224   6.254  0.1072  0.9308 -0.0456
49101SOL    HW156271   4.908  12.270   6.175 -1.4277 -0.0112 -0.0973
49101SOL    HW256272   5.026  12.198   6.236 -0.6095 -0.4647 -2.1097
49102SOL     OW56273   9.821   8.856   8.979  0.4884 -0.0929  0.1180
49102SOL    HW156274   9.809   8.948   8.955 -1.2401 -0.5212 -0.8770
49102SOL    HW256275   9.834   8.857   9.073  1.0959  1.2009  0.0443
49103SOL     OW56276   4.701   5.500   0.379  0.3243  0.5520 -0.4047
49103SOL    HW156277   4.793   5.525   0.394  1.0644 -1.4496 -1.3200
49103SOL    HW256278   4.697   5.408   0.405 -1.1636  0.3125 -1.3976
49104SOL     OW56279   1.913   3.488  12.544 -0.5385  0.3291 -0.8517
49104SOL    HW156280   1.941   3.549  12.613  0.2237  1.0891 -1.7951
49104SOL    HW256281   1.964   3.408  12.561 -1.0883  0.1475  0.0313
49105SOL     OW56282   2.882   1.465  12.573 -0.3965 -0.1075  0.5066
49105SOL    HW156283   2.893   1.399  12.505 -2.0328 -0.5630  0.6468
49105SOL    HW256284   2.943   1.439  12.642 -0.6274 -1.1735  0.3249
49106SOL     OW56285   2.497  12.464   8.466 -0.2760  0.3549  0.3303
49106SOL    HW156286   2.589  12.488   8.453  0.4687 -1.9171  0.9490
49106SOL    HW256287   2.448  12.535   8.425  1.7695  0.7972 -1.5662
49107SOL     OW56288   9.227   5.683   0.837 -0.2561 -0.1816 -0.3221
49107SOL    HW156289   9.161   5.643   0.893 -0.5032  0.7451  0.0728
49107SOL    HW256290   9.226   5.631   0.756 -1.4899 -0.1466 -0.3368
49108SOL     OW56291   0.098   9.769   0.619 -0.3546 -0.2948 -0.3439
49108SOL    HW156292   0.168   9.711   0.651 -1.1799 -1.7436 -1.0465
49108SOL    HW256293   0.119   9.783   0.527 -0.4059  0.1651 -0.2860
49109SOL     OW56294  12.088  10.527   2.959  0.1654  0.1997  0.3332
49109SOL    HW156295  12.000  10.490   2.964  1.1773 -2.7180 -1.3554
49109SOL    HW256296  12.136  10.484   3.030  0.9440 -0.4813 -0.5881
49110SOL     OW56297   8.415   2.157   5.781 -0.2780 -0.4342  0.1208
49110SOL    HW156298   8.396   2.074   5.826  1.6141 -0.9382  0.0937
49110SOL    HW256299   8.472   2.205   5.841 -0.9420  0.6409 -0.0838
49111SOL     OW56300   7.844   3.443   9.769 -0.1004 -0.1718 -0.2965
49111SOL    HW156301   7.910   3.512   9.755 -0.4150  1.0009  3.1756
49111SOL    HW256302   7.895   3.362   9.764  0.7549  0.3924 -1.8706
49112SOL     OW56303  11.186   3.291  12.495 -0.4333 -0.5170 -0.4010
49112SOL    HW156304  11.178   3.248  12.580  1.8646  1.1342  0.7630
49112SOL    HW256305  11.274   3.268  12.464  0.5018  2.3304 -0.1975
49113SOL     OW56306   7.538  10.854   5.337 -0.6765 -0.0279 -0.6533
49113SOL    HW156307   7.459  10.858   5.284 -1.5025  1.7438  0.6009
49113SOL    HW256308   7.506  10.847   5.427  0.6699 -3.2128 -0.2733
49114SOL     OW56309  11.707   4.361   1.405  0.0875 -0.2816  0.1637
49114SOL    HW156310  11.790   4.405   1.419 -0.7426  1.0996  0.9008
49114SOL    HW256311  11.669   4.352   1.492 -0.6962 -0.5854 -0.1986
49115SOL     OW56312   7.042   4.979   8.565 -0.1205  0.2866 -0.1496
49115SOL    HW156313   7.026   4.989   8.471 -0.2879  0.4004 -0.1105
49115SOL    HW256314   7.045   4.885   8.579  1.4013  0.2582 -0.5195
49116SOL     OW56315   0.409  11.575   2.535  0.6115 -0.1313  0.2995
49116SOL    HW156316   0.331  11.604   2.582  0.8423 -0.2399  0.7556
49116SOL    HW256317   0.389  11.486   2.507  1.2696 -0.8828  2.0663
49117SOL     OW56318  11.916   2.714   5.261  0.1400 -0.5032 -0.3611
49117SOL    HW156319  12.003   2.712   5.301  0.0845  1.4622 -0.0147
49117SOL    HW256320  11.929   2.683   5.172  1.3147  0.2451 -0.4741
49118SOL     OW56321   4.934   7.101  10.629  0.0076  0.4018  0.2349
49118SOL    HW156322   4.985   7.175  10.596 -1.1401  0.3899 -1.7263
49118SOL    HW256323   4.986   7.024  10.605  0.1907  0.4799  0.3761
49119SOL     OW56324   7.935   0.203   6.201  0.3230 -0.1975  0.2534
49119SOL    HW156325   7.895   0.126   6.241  0.1297  0.1718  0.7849
49119SOL    HW256326   7.893   0.277   6.244  0.6610  0.2070 -0.0969
49120SOL     OW56327  11.748   2.482   3.547  0.5809 -0.0843  0.2490
49120SOL    HW156328  11.784   2.569   3.563 -0.0042  0.5112 -1.4878
49120SOL    HW256329  11.725   2.449   3.634  2.0952  0.9087  1.0645
49121SOL     OW56330  10.352   8.172   8.686  0.0707  0.1991  0.0255
49121SOL    HW156331  10.299   8.125   8.751  0.7838  1.0965  1.2994
49121SOL    HW256332  10.425   8.113   8.667  0.4000  0.3384  0.8221
49122SOL     OW56333   2.964   0.265   6.199  0.4896  0.6014  0.0753
49122SOL    HW156334   2.992   0.281   6.109  1.1145 -1.3678 -0.1251
49122SOL    HW256335   2.868   0.271   6.196  0.5401  1.1472 -0.5922
49123SOL     OW56336  10.004   7.799   0.784 -0.4847  0.1879  0.8718
49123SOL    HW156337   9.976   7.882   0.745 -0.7204 -0.0808  0.4544
49123SOL    HW256338  10.075   7.769   0.728 -0.6181 -0.0473  0.8249
49124SOL     OW56339   6.608   4.758   1.777 -0.0254  0.6498 -0.2461
49124SOL    HW156340   6.675   4.723   1.836  0.0970 -0.7205 -1.1449
49124SOL    HW256341   6.590   4.845   1.810  1.1089  0.4705  0.9259
49125SOL     OW56342   3.180   3.784   5.201  0.7993  0.0717 -0.2729
49125SOL    HW156343   3.114   3.733   5.247  1.2196 -1.2702 -1.1048
49125SOL    HW256344   3.143   3.799   5.114  0.1509  2.3044  0.3071
49126SOL     OW56345   1.088   8.854   4.606 -0.2341  0.0203  0.0324
49126SOL    HW156346   1.152   8.820   4.669  0.9145 -0.2593 -1.2511
49126SOL    HW256347   1.135   8.921   4.558 -0.6083 -0.7887 -1.5289
49127SOL     OW56348  12.010   6.612   4.302 -0.5630 -0.5236  0.2311
49127SOL    HW156349  11.918   6.588   4.294 -0.2403 -1.3870 -1.1318
49127SOL    HW256350  12.023   6.682   4.238 -0.2599 -0.3977  0.4243
49128SOL     OW56351   8.227   6.361   1.404 -0.5792  0.5435 -0.1525
49128SOL    HW156352   8.154   6.391   1.458 -0.4300  1.7033 -0.5624
49128SOL    HW256353   8.187   6.303   1.339 -0.6197 -1.7826  1.7944
49129SOL     OW56354  10.800   1.050   5.791  0.2222  0.4724 -0.2612
49129SOL    HW156355  10.875   1.085   5.839 -1.1166  1.2020  1.4039
49129SOL    HW256356  10.778   1.118   5.728  0.4295  0.6228 -0.1736
49130SOL     OW56357  11.574  10.729   9.817  0.5853  0.1538 -0.2774
49130SOL    HW156358  11.482  10.704   9.825  0.7779 -0.3192  0.6710
49130SOL    HW256359  11.621  10.668   9.875  1.6013 -0.1857 -1.4119
49131SOL     OW56360  12.563   2.567   5.376 -0.2449 -0.0587 -0.8344
49131SOL    HW156361  12.483   2.580   5.427 -0.4584 -0.2652 -1.1120
49131SOL    HW256362  12.582   2.653   5.338  0.2388  0.2375  0.0529
49132SOL     OW56363  10.917   0.776   7.412  0.3200 -0.0557 -0.0289
49132SOL    HW156364  10.881   0.769   7.500 -1.7079  0.4529 -0.7559
49132SOL    HW256365  10.851   0.734   7.356  2.1275 -1.4832 -1.2182
49133SOL     OW56366   6.365   6.512  12.282 -0.2959  0.1817  0.1366
49133SOL    HW156367   6.385   6.577  12.215  1.8312 -2.0990 -1.6026
49133SOL    HW256368   6.283   6.472  12.253 -0.9183  1.1503  0.5169
49134SOL     OW56369   5.235   8.965   2.643 -0.4588  0.6862 -0.4201
49134SOL    HW156370   5.236   8.971   2.739 -0.1566  2.8024 -0.5025
49134SOL    HW256371   5.326   8.947   2.620 -0.7985 -1.5397 -0.3069
49135SOL     OW56372   5.916   8.691   0.142  0.3413 -0.5014 -0.0721
49135SOL    HW156373   5.820   8.697   0.147  0.4757  0.8853  2.2521
49135SOL    HW256374   5.942   8.762   0.083 -0.0731 -1.8657 -2.0093
49136SOL     OW56375   7.655   0.009   1.063 -0.4041  0.1515  0.2611
49136SOL    HW156376   7.713  -0.040   1.121  0.3861  0.0190 -0.6314
49136SOL    HW256377   7.706   0.024   0.984 -1.7236 -0.3521 -0.7233
49137SOL     OW56378  12.223   8.082  11.782 -0.1727  0.3274 -0.2488
49137SOL    HW156379  12.145   8.039  11.747 -0.8927  0.5679  1.0152
49137SOL    HW256380  12.275   8.011  11.820 -0.5463  0.3498  0.3191
49138SOL     OW56381   7.742   8.507   1.630  0.3977  0.1590  0.1689
49138SOL    HW156382   7.799   8.569   1.677 -0.9447  0.8232  0.9937
49138SOL    HW256383   7.727   8.548   1.545 -0.7392  1.1643  0.8261
49139SOL     OW56384   1.752   5.745   7.320  0.5546 -0.1136 -0.2750
49139SOL    HW156385   1.778   5.697   7.398  0.4915  1.2270  0.5954
49139SOL    HW256386   1.761   5.681   7.249  1.7568 -1.0183  0.6412
49140SOL     OW56387  11.348   1.385  10.719  0.0797 -0.0317  0.4277
49140SOL    HW156388  11.436   1.350  10.710  0.0079 -0.1082  0.0220
49140SOL    HW256389  11.336   1.442  10.643 -0.0585  0.3281  0.7140
49141SOL     OW56390   9.756  12.424   7.144  0.1542 -0.2431 -0.0263
49141SOL    HW156391   9.787  12.386   7.226  0.0221  0.3376  0.2997
49141SOL    HW256392   9.666  12.391   7.135 -0.2757  0.6846  0.7123
49142SOL     OW56393   0.843  10.379   0.537  0.2065 -0.0492 -0.1150
49142SOL    HW156394   0.789  10.301   0.554 -0.2074  0.3072  0.2398
49142SOL    HW256395   0.861  10.375   0.443 -1.7284  0.6100 -0.5770
49143SOL     OW56396  10.510   6.768   8.038 -0.0843  0.0889 -0.3741
49143SOL    HW156397  10.421   6.778   8.003  0.8897  3.9839 -2.4309
49143SOL    HW256398  10.535   6.857   8.065  3.2372 -0.8018 -0.0321
49144SOL     OW56399   0.905   4.843   2.799 -0.3594  0.4353  0.0853
49144SOL    HW156400   0.930   4.922   2.751 -0.4885  1.3010  1.3855
49144SOL    HW256401   0.944   4.771   2.750  1.6893  1.4654  0.0865
49145SOL     OW56402   4.694   6.441   1.857  0.1928  0.2027  0.0506
49145SOL    HW156403   4.710   6.436   1.763  0.9263  0.7882  0.1309
49145SOL    HW256404   4.732   6.525   1.884 -1.4027  0.7727  0.6130
49146SOL     OW56405   0.495   3.071   8.056 -0.1332  0.2037  0.3468
49146SOL    HW156406   0.509   3.116   8.140 -2.2017 -0.8360  1.3280
49146SOL    HW256407   0.506   2.979   8.077 -0.9087 -0.0802 -0.4641
49147SOL     OW56408   9.286   8.698   4.583 -0.0229  0.2244 -0.4923
49147SOL    HW156409   9.249   8.733   4.663 -1.6707  1.0320 -1.5637
49147SOL    HW256410   9.375   8.733   4.580 -0.2935  1.0164  0.4633
49148SOL     OW56411   3.155  12.585   4.774  0.0012 -0.5335 -0.7701
49148SOL    HW156412   3.153  12.673   4.736  0.2008 -0.3780 -0.4190
49148SOL    HW256413   3.247  12.560   4.772  0.3552  0.3841  1.6950
49149SOL     OW56414   8.142  11.816  10.664 -0.4964  0.0777  0.1826
49149SOL    HW156415   8.099  11.732  10.678 -1.1486  0.6427  1.9686
49149SOL    HW256416   8.185  11.834  10.748 -2.5599  2.6871  0.8387
49150SOL     OW56417   2.129  10.740   6.243 -0.2557 -0.3279  0.4124
49150SOL    HW156418   2.065  10.691   6.295  0.0248 -1.4934 -0.3207
49150SOL    HW256419   2.190  10.674   6.211 -0.3287  0.3832 -1.2827
49151SOL     OW56420   2.714   0.140   3.909 -0.0740  0.2782  0.6127
49151SOL    HW156421   2.801   0.128   3.947 -0.5923 -0.6338  1.5817
49151SOL    HW256422   2.700   0.235   3.912  2.2427  0.8900 -2.8173
49152SOL     OW56423   4.598   1.991  12.444 -0.3601  0.5021  0.5444
49152SOL    HW156424   4.632   2.015  12.530 -0.4027  0.1281  0.6709
49152SOL    HW256425   4.650   1.915  12.419 -1.2790 -0.2536  0.8642
49153SOL     OW56426   0.708   1.332   2.539 -0.1605  0.6992  0.5160
49153SOL    HW156427   0.662   1.378   2.468 -1.3711 -0.1783  0.6961
49153SOL    HW256428   0.784   1.293   2.498 -1.9929 -1.6914 -0.8705
49154SOL     OW56429   6.516   9.813   1.913  0.1972  0.1199  0.0058
49154SOL    HW156430   6.478   9.779   1.994 -1.5052  1.6827 -0.0838
49154SOL    HW256431   6.534   9.905   1.931  0.5479  0.2995 -1.1517
49155SOL     OW56432  10.143   7.158   9.125  0.1014  0.3668  0.3284
49155SOL    HW156433  10.113   7.095   9.060  0.6659  0.1370  0.2861
49155SOL    HW256434  10.073   7.223   9.129 -0.7621 -0.5551  0.7824
49156SOL     OW56435   7.950   6.336   6.019  0.2178  0.6159 -0.8779
49156SOL    HW156436   7.889   6.263   6.005  1.7951 -0.9137 -0.2517
49156SOL    HW256437   7.997   6.344   5.936  0.9467 -0.0027 -0.5400
49157SOL     OW56438   8.674  12.519   9.115  0.1075  0.2545 -0.0850
49157SOL    HW156439   8.711  12.513   9.203 -0.2475 -0.7221  0.0063
49157SOL    HW256440   8.749  12.506   9.057 -0.0724 -2.1201  0.1011
49158SOL     OW56441   9.952   1.281  11.412 -0.1138  0.4320 -0.3804
49158SOL    HW156442   9.988   1.197  11.386  0.3600  1.0246 -1.7251
49158SOL    HW256443   9.897   1.261  11.488  0.7757 -0.9230 -0.0564
49159SOL     OW56444   5.278   7.780   7.769 -0.3629 -0.1753  0.1211
49159SOL    HW156445   5.368   7.751   7.782 -0.2839 -1.1383 -2.1727
49159SOL    HW256446   5.282   7.836   7.691 -1.9306 -1.3125 -0.8272
49160SOL     OW56447   8.609   1.938   3.302  0.1176  0.0339  1.3147
49160SOL    HW156448   8.529   1.887   3.287 -0.6119  1.0875  1.5136
49160SOL    HW256449   8.680   1.874   3.292 -0.6572 -0.6265 -0.2764
49161SOL     OW56450   6.974   9.270   0.163 -0.1496  0.0062  0.2644
49161SOL    HW156451   6.922   9.206   0.115 -0.4182  1.3989 -1.4048
49161SOL    HW256452   6.978   9.346   0.105  1.4807  0.9333  1.5113
49162SOL     OW56453   0.056  10.740   2.631 -0.0150  0.2481 -0.6217
49162SOL    HW156454   0.091  10.672   2.574  0.7220  0.4670 -0.4419
49162SOL    HW256455   0.073  10.822   2.584 -0.4582  0.3459 -0.6164
49163SOL     OW56456   9.655   1.596   7.729 -0.2821  0.0796  0.2907
49163SOL    HW156457   9.709   1.665   7.690  2.2888 -0.5178  2.5546
49163SOL    HW256458   9.582   1.643   7.770 -0.2504  1.1387 -0.8097
49164SOL     OW56459   6.277   1.552   0.172 -0.1317 -0.2665 -0.1276
49164SOL    HW156460   6.272   1.641   0.138  1.8692  0.0525  0.3242
49164SOL    HW256461   6.270   1.496   0.094 -0.2111  0.3051 -0.5339
49165SOL     OW56462   3.606   8.412   6.724  0.2432 -0.3114 -0.0175
49165SOL    HW156463   3.556   8.487   6.755  0.1135 -0.4909  0.2037
49165SOL    HW256464   3.689   8.450   6.695  0.3381 -0.1354  0.4711
49166SOL     OW56465   0.410   4.954   7.418 -0.1083 -0.3796  0.1700
49166SOL    HW156466   0.371   4.868   7.399 -1.7290 -0.0887  1.8751
49166SOL    HW256467   0.356   5.016   7.370 -0.3779 -0.1490  0.7592
49167SOL     OW56468   6.275   2.248   2.078  0.4423  0.1764  0.1857
49167SOL    HW156469   6.355   2.205   2.107  0.1433 -0.3416  0.2462
49167SOL    HW256470   6.206   2.183   2.092 -0.1213  0.9151  0.9253
49168SOL     OW56471   9.892   1.215  11.967  0.2127 -0.6248 -0.4482
49168SOL    HW156472   9.862   1.209  12.057  0.0712 -0.1057 -0.4548
49168SOL    HW256473   9.922   1.305  11.957  0.1065 -0.6369 -0.9511
49169SOL     OW56474   0.097   8.378   1.901  0.4167 -0.0783  0.5956
49169SOL    HW156475   0.160   8.348   1.835  0.0668  0.4016  0.0269
49169SOL    HW256476   0.019   8.401   1.850  1.1398  3.2087  0.7737
49170SOL     OW56477   6.081   2.774   8.972  0.1733 -0.1865  0.5964
49170SOL    HW156478   6.120   2.838   9.031 -0.1761  2.3217 -1.7103
49170SOL    HW256479   6.153   2.749   8.913  0.0389 -1.1389  0.8179
49171SOL     OW56480   3.812   1.744   4.938 -0.2374 -0.6514 -0.0697
49171SOL    HW156481   3.867   1.717   5.011  0.3803 -0.0997 -0.3274
49171SOL    HW256482   3.860   1.816   4.896 -0.2510 -1.4089 -1.4368
49172SOL     OW56483  11.143  12.436  11.611  0.1893 -0.0903  0.2132
49172SOL    HW156484  11.093  12.377  11.666 -0.5434  0.7496  0.4731
49172SOL    HW256485  11.103  12.429  11.524  0.9691 -0.9740 -0.0913
49173SOL     OW56486   9.765   3.052   7.474 -0.1010 -0.0205  0.3106
49173SOL    HW156487   9.821   3.110   7.423  0.7140  0.2706  1.4867
49173SOL    HW256488   9.701   3.110   7.514 -0.9022 -0.2799 -0.5545
49174SOL     OW56489  11.577   5.593   3.558  0.0765  0.0579  0.1716
49174SOL    HW156490  11.659   5.579   3.606  1.0931  2.5832 -0.6581
49174SOL    HW256491  11.516   5.626   3.624  0.9455  1.8397  0.1571
49175SOL     OW56492   1.602   3.739   9.571 -0.4080 -0.1308 -0.4338
49175SOL    HW156493   1.526   3.693   9.537 -1.1902  0.7778  0.0364
49175SOL    HW256494   1.640   3.782   9.494 -1.3176  0.7196 -0.4301
49176SOL     OW56495   3.090   6.183   6.039 -0.1356  0.7230 -0.1454
49176SOL    HW156496   3.175   6.141   6.030 -0.7514 -1.1838  2.0024
49176SOL    HW256497   3.037   6.120   6.087 -2.1757  2.6666  0.3216
49177SOL     OW56498  10.860   8.381   2.525 -0.1586  0.4390  1.0120
49177SOL    HW156499  10.921   8.452   2.508 -0.4790  0.8095  1.3968
49177SOL    HW256500  10.883   8.350   2.613 -0.3853  0.4349  1.0703
49178SOL     OW56501  10.108   8.073   3.824 -0.1291 -0.3596  0.1068
49178SOL    HW156502  10.061   8.151   3.856  0.6582  0.1442  0.0472
49178SOL    HW256503  10.052   8.000   3.851 -0.7976  0.2079  0.3178
49179SOL     OW56504   9.890   8.948   7.307  0.0740  0.3726  0.0165
49179SOL    HW156505   9.953   8.889   7.347  0.1117  0.8682  0.7128
49179SOL    HW256506   9.895   9.028   7.360 -3.3954 -0.5965  2.1440
49180SOL     OW56507   0.205   5.267   8.637  0.1128 -0.3011 -0.0682
49180SOL    HW156508   0.249   5.204   8.581  0.2415  0.5504 -0.9460
49180SOL    HW256509   0.118   5.230   8.651  0.0038 -0.4250 -1.0078
49181SOL     OW56510   6.537   6.280  12.187  0.2371 -0.3459 -0.3129
49181SOL    HW156511   6.448   6.281  12.223  0.8233  1.0723  1.2282
49181SOL    HW256512   6.545   6.363  12.140  0.7708 -0.4321 -0.3839
49182SOL     OW56513   3.456  11.531   1.824 -0.2313 -0.1829 -0.5323
49182SOL    HW156514   3.386  11.511   1.762  0.6231 -0.9956 -1.2688
49182SOL    HW256515   3.500  11.448   1.839  0.6517  0.3314 -0.1754
49183SOL     OW56516   3.359   6.124   6.068  0.1488 -0.3116  0.1813
49183SOL    HW156517   3.437   6.106   6.120 -0.1804 -0.8981  0.4782
49183SOL    HW256518   3.363   6.218   6.051 -0.3171  0.1354  2.2271
49184SOL     OW56519   5.685   1.218   7.575 -0.7882  0.5847 -0.0527
49184SOL    HW156520   5.673   1.169   7.656 -0.0883  1.0054  0.3163
49184SOL    HW256521   5.689   1.151   7.507 -1.3304  0.2249  0.2594
49185SOL     OW56522   2.397  10.422   5.478 -0.0395  0.3298  0.3205
49185SOL    HW156523   2.321  10.366   5.466  0.0022  0.5967 -1.4120
49185SOL    HW256524   2.361  10.503   5.515 -0.6190  0.4574 -0.4908
49186SOL     OW56525   0.115   6.979   3.923 -0.6720 -0.5442 -0.0420
49186SOL    HW156526   0.169   7.029   3.863 -1.8415 -0.3537 -0.9680
49186SOL    HW256527   0.123   7.025   4.007  2.0014 -1.5535  0.3736
49187SOL     OW56528   2.210   9.164   8.775 -0.0967  0.2393 -0.5006
49187SOL    HW156529   2.220   9.196   8.865  0.5920  0.8355 -0.7848
49187SOL    HW256530   2.134   9.105   8.779  1.7732 -2.2831  1.1772
49188SOL     OW56531   7.865   2.920   4.650 -0.1893 -0.1196  0.8292
49188SOL    HW156532   7.895   2.857   4.716  1.5041 -1.1833 -0.8711
49188SOL    HW256533   7.946   2.956   4.612 -1.0923  2.6846  1.2902
49189SOL     OW56534   5.258   0.895   8.510 -0.4740 -0.5736  0.0852
49189SOL    HW156535   5.266   0.956   8.436  0.9522 -2.0239 -1.0213
49189SOL    HW256536   5.316   0.931   8.577  0.7081 -0.8949 -0.7297
49190SOL     OW56537   6.348   6.215   3.230 -0.3453 -0.2757 -0.2993
49190SOL    HW156538   6.409   6.231   3.158 -0.0049  0.4419  0.1333
49190SOL    HW256539   6.386   6.141   3.277 -1.3746 -1.7860 -1.7066
49191SOL     OW56540   2.410   0.110   0.584 -0.2602  0.2809  0.5746
49191SOL    HW156541   2.466   0.061   0.644  0.0754  1.1381  0.9783
49191SOL    HW256542   2.384   0.187   0.634 -1.0277  0.3639  0.0563
49192SOL     OW56543  10.764   8.616   3.045  1.0686 -0.2961 -0.5378
49192SOL    HW156544  10.764   8.526   3.077 -2.0185  0.4414  2.1070
49192SOL    HW256545  10.819   8.663   3.107  1.1578 -0.0603 -0.7961
49193SOL     OW56546   6.741   8.294   1.135  0.2175  0.6017  0.0561
49193SOL    HW156547   6.691   8.276   1.055 -0.0425 -0.0527  0.3603
49193SOL    HW256548   6.800   8.365   1.111  1.9027 -1.2258 -1.4465
49194SOL     OW56549  11.821   9.885   6.460 -0.5001  0.4205  0.8692
49194SOL    HW156550  11.812   9.868   6.366 -0.8229 -0.7253  1.0934
49194SOL    HW256551  11.836   9.980   6.466 -0.0826  0.4478 -0.3559
49195SOL     OW56552   9.256   7.291   4.120 -0.2760 -0.1501  0.0044
49195SOL    HW156553   9.203   7.218   4.151 -1.4833  0.7818  0.2147
49195SOL    HW256554   9.326   7.299   4.185  0.2536 -1.5008 -0.3677
49196SOL     OW56555  11.318   3.388   1.220 -0.1942  0.5506 -0.3327
49196SOL    HW156556  11.265   3.405   1.298 -0.0932  0.9722 -0.3541
49196SOL    HW256557  11.396   3.343   1.252  1.4540  3.6187  0.2918
49197SOL     OW56558   7.450   9.972   5.527  0.0387  0.9091  0.1612
49197SOL    HW156559   7.439   9.887   5.569  2.7798 -0.0014 -0.7389
49197SOL    HW256560   7.398   9.966   5.447 -0.4697  0.4163  0.5226
49198SOL     OW56561   7.749   6.373   9.092 -0.0051  0.1704 -0.2726
49198SOL    HW156562   7.735   6.282   9.065 -1.7627 -0.6291  2.8840
49198SOL    HW256563   7.684   6.422   9.042 -1.6561 -0.9093  0.7226
49199SOL     OW56564   2.108   7.292   5.692  0.0244  0.3137 -0.1160
49199SOL    HW156565   2.014   7.289   5.713  0.2514  0.5343  0.9519
49199SOL    HW256566   2.151   7.303   5.776  0.9750  0.9814 -0.6805
49200SOL     OW56567   0.778   2.917   2.182  0.3224 -0.6991 -0.3748
49200SOL    HW156568   0.821   2.861   2.246  1.1360  0.6316  0.2898
49200SOL    HW256569   0.794   3.006   2.214  1.3827  0.0463 -2.8277
49201SOL     OW56570   7.778  11.981   2.841 -0.1670 -0.2456 -0.3953
49201SOL    HW156571   7.838  11.911   2.867  1.6264  1.6126  0.7757
49201SOL    HW256572   7.708  11.979   2.907  0.3562 -0.3601  0.1620
49202SOL     OW56573   4.426   7.882   7.756  0.1198 -0.0720  0.4093
49202SOL    HW156574   4.354   7.829   7.723  0.3223  0.0129 -0.1839
49202SOL    HW256575   4.410   7.970   7.720  1.0546 -0.2799 -0.5894
49203SOL     OW56576   8.292   6.080   8.138 -0.2494  0.1010  0.2389
49203SOL    HW156577   8.331   6.160   8.174  0.6780 -0.0311 -0.4261
49203SOL    HW256578   8.278   6.024   8.214  1.5667 -0.1342  0.4373
49204SOL     OW56579   2.512   0.169   7.216 -0.5075 -0.5087  0.4720
49204SOL    HW156580   2.474   0.250   7.182 -0.2182 -0.2620  0.7287
49204SOL    HW256581   2.487   0.102   7.153 -3.3245 -0.8101  1.7819
49205SOL     OW56582   6.686   6.602   5.360 -0.8502  0.1154 -0.0370
49205SOL    HW156583   6.668   6.695   5.373 -1.9248 -0.3961  2.9589
49205SOL    HW256584   6.708   6.570   5.447  2.4610 -1.9309 -1.4538
49206SOL     OW56585  11.319  10.615   0.897  0.5050 -0.3996 -0.1568
49206SOL    HW156586  11.358  10.647   0.816  0.5778  0.6982  0.3002
49206SOL    HW256587  11.276  10.533   0.872 -0.3077  0.4119 -1.5104
49207SOL     OW56588  11.372   7.018   5.198  0.1029 -0.3198 -0.1364
49207SOL    HW156589  11.465   7.036   5.207  0.3576 -1.4961 -0.1531
49207SOL    HW256590  11.339   7.011   5.287 -0.0159  0.3006 -0.1307
49208SOL     OW56591   2.772   5.008   9.330  0.0326 -0.6814  0.6516
49208SOL    HW156592   2.716   5.084   9.341  0.5415 -0.2705  0.4454
49208SOL    HW256593   2.782   4.972   9.418 -0.2815 -0.5651  0.7359
49209SOL     OW56594   2.209   1.888   5.836 -0.5428  0.3692 -0.4472
49209SOL    HW156595   2.256   1.922   5.760 -0.0049  0.7370  0.0525
49209SOL    HW256596   2.264   1.909   5.911 -0.6439 -0.7589 -0.0288
49210SOL     OW56597  11.977  11.658   0.573 -0.0668 -0.8032  0.2321
49210SOL    HW156598  12.026  11.591   0.525 -1.9792 -0.5574 -2.2566
49210SOL    HW256599  11.948  11.613   0.653  1.2054 -1.9917  0.0680
49211SOL     OW56600   9.012  11.497   4.975  0.1825 -0.4000 -0.1810
49211SOL    HW156601   9.022  11.414   4.927 -0.5723 -1.3798  1.2576
49211SOL    HW256602   9.061  11.483   5.056  0.8650  0.9510 -0.3476
49212SOL     OW56603   5.080  10.699  11.660 -0.4367  0.1742  0.0558
49212SOL    HW156604   5.052  10.779  11.704  1.0232  1.9833 -2.0335
49212SOL    HW256605   5.029  10.697  11.579 -0.6558 -1.1945  0.2057
49213SOL     OW56606   1.564   7.403   5.814  0.1520 -0.5502 -0.2156
49213SOL    HW156607   1.509   7.341   5.862 -0.9707  1.4668  1.2421
49213SOL    HW256608   1.650   7.397   5.857 -0.2451 -0.3228  0.6125
49214SOL     OW56609   1.405  11.217   3.694  0.1725 -0.5060  0.2595
49214SOL    HW156610   1.323  11.222   3.743 -0.0841  0.3058 -0.2315
49214SOL    HW256611   1.379  11.186   3.607  0.6823 -2.3952  0.7336
49215SOL     OW56612   9.032  10.318   1.693  0.3750 -0.7368 -0.0986
49215SOL    HW156613   9.100  10.385   1.680  0.8328 -1.3745 -1.0622
49215SOL    HW256614   8.959  10.348   1.640  0.7539 -1.2319 -0.9179
49216SOL     OW56615   0.950   7.700   4.490  0.3893 -0.2027  0.3628
49216SOL    HW156616   0.899   7.747   4.424  1.5509 -0.1551 -0.5220
49216SOL    HW256617   0.942   7.608   4.465  0.8362 -0.1840  0.1479
49217SOL     OW56618   0.719   1.837   4.866 -1.2449 -0.7649 -0.1814
49217SOL    HW156619   0.728   1.747   4.898 -1.5056 -0.1158  1.8271
49217SOL    HW256620   0.696   1.888   4.943  2.2844  1.6719 -0.5205
49218SOL     OW56621   0.423   5.158   2.272  0.0226  0.4047 -0.0505
49218SOL    HW156622   0.348   5.171   2.213  0.1931 -0.7554 -0.5438
49218SOL    HW256623   0.465   5.079   2.239  0.4360  0.0403  1.3231
49219SOL     OW56624   5.574  10.106   7.086 -0.0154  0.5821  0.0995
49219SOL    HW156625   5.649  10.120   7.029  0.5707 -0.0260  0.6978
49219SOL    HW256626   5.525  10.035   7.045  0.7786 -0.3309  0.6860
49220SOL     OW56627   2.130   3.329   8.527 -0.2090  0.2359  0.0172
49220SOL    HW156628   2.194   3.286   8.469 -2.0216 -2.0854 -0.3990
49220SOL    HW256629   2.092   3.398   8.472 -1.4061 -1.4841 -1.4549
49221SOL     OW56630  12.323   9.677  12.113  0.3959  0.1975  0.6689
49221SOL    HW156631  12.277   9.599  12.083  0.0156  0.7396 -0.2097
49221SOL    HW256632  12.264   9.718  12.176  0.3673  0.0515  0.7361
49222SOL     OW56633   3.861   5.636   4.227  0.1309 -0.1844 -0.2176
49222SOL    HW156634   3.841   5.574   4.157 -1.8359 -0.8842  0.8620
49222SOL    HW256635   3.795   5.705   4.217  0.2967  0.0823  0.4809
49223SOL     OW56636   6.323   5.840  11.193  0.4292 -0.2486  0.5464
49223SOL    HW156637   6.316   5.795  11.109  1.3138 -0.0462  0.3610
49223SOL    HW256638   6.286   5.927  11.176  0.0160 -0.4230  0.5386
49224SOL     OW56639   5.154   5.628   3.014  0.1530 -0.1710 -0.0706
49224SOL    HW156640   5.102   5.563   3.062 -1.2631  0.1911 -1.0387
49224SOL    HW256641   5.196   5.577   2.944 -0.0289 -0.2395 -0.1319
49225SOL     OW56642  10.564   7.566  12.576  0.6981  0.2206 -0.5974
49225SOL    HW156643  10.509   7.638  12.546  2.1812  1.5505 -0.2534
49225SOL    HW256644  10.652   7.603  12.581  1.4419 -1.5033  0.0255
49226SOL     OW56645  10.247   9.984   5.997 -0.3026  0.3795 -0.2317
49226SOL    HW156646  10.279  10.029   5.918  1.9934  1.0926  1.0006
49226SOL    HW256647  10.314   9.917   6.014 -0.7127  0.2994  1.1412
49227SOL     OW56648  11.948   6.980   4.561 -0.3561 -0.1340 -0.2622
49227SOL    HW156649  11.887   6.919   4.601 -0.1866  0.6996  1.3139
49227SOL    HW256650  11.894   7.035   4.505 -0.6078 -1.2092 -1.1283
49228SOL     OW56651   9.064   8.425   4.355 -0.5980  0.5113 -0.4429
49228SOL    HW156652   9.001   8.362   4.390 -0.5752  0.9934  0.4866
49228SOL    HW256653   9.146   8.376   4.350 -0.7614  0.2360 -0.5184
49229SOL     OW56654   7.659   9.475   6.869 -0.3222 -0.0841  0.2116
49229SOL    HW156655   7.610   9.530   6.930  0.7771  0.5674  0.5276
49229SOL    HW256656   7.743   9.519   6.858 -0.7447  0.2200 -2.3680
49230SOL     OW56657   1.639   7.944   0.301  0.2566  0.3839 -0.2784
49230SOL    HW156658   1.712   8.005   0.301  0.1184  0.5501 -0.2054
49230SOL    HW256659   1.623   7.925   0.208  0.7989 -0.1469 -0.2725
49231SOL     OW56660   7.511   1.876  11.046 -0.3965 -0.3188  0.0122
49231SOL    HW156661   7.547   1.790  11.023  0.0988  0.3546 -1.9814
49231SOL    HW256662   7.417   1.861  11.054 -0.6185 -0.7217 -2.4352
49232SOL     OW56663   6.082   5.650   6.702 -0.4431  0.2276 -0.2643
49232SOL    HW156664   6.071   5.728   6.649  0.5846 -1.2278 -2.7767
49232SOL    HW256665   6.016   5.589   6.670 -0.4460 -0.3739  0.8351
49233SOL     OW56666   5.998   1.057   5.962  0.1190  0.0483  0.0785
49233SOL    HW156667   6.090   1.037   5.982  0.6402 -0.2374 -2.3667
49233SOL    HW256668   5.960   0.972   5.940 -1.3646 -0.1826  3.0292
49234SOL     OW56669  10.739  10.422   7.232 -0.1474 -0.9159  0.1968
49234SOL    HW156670  10.691  10.411   7.314 -0.6024 -0.4754 -0.0075
49234SOL    HW256671  10.671  10.427   7.165  0.1856 -0.4748 -0.1132
49235SOL     OW56672   7.452   8.064  10.278  0.4202 -0.0477  0.9713
49235SOL    HW156673   7.407   8.148  10.286  0.2100  0.1965 -1.7651
49235SOL    HW256674   7.433   8.034  10.189  2.3258 -1.9169  1.0884
49236SOL     OW56675   9.988   0.135  10.857 -0.0171  0.0520 -0.2468
49236SOL    HW156676  10.034   0.211  10.820 -2.5216  2.1372  0.5955
49236SOL    HW256677   9.982   0.154  10.950 -0.2057 -1.5047  0.0723
49237SOL     OW56678   5.752  10.839  11.842  0.6782 -0.4195 -0.4564
49237SOL    HW156679   5.836  10.842  11.795  0.8985 -1.5714 -0.1498
49237SOL    HW256680   5.738  10.930  11.869  1.3018 -0.0115 -1.4144
49238SOL     OW56681   8.097   3.103   4.360  0.3106 -0.3975 -1.0319
49238SOL    HW156682   8.089   3.113   4.265 -0.6881 -0.9145 -1.0133
49238SOL    HW256683   8.017   3.143   4.395  0.7808 -0.0055 -0.3942
49239SOL     OW56684   2.313   6.905   7.045 -0.2180  0.1744  0.2174
49239SOL    HW156685   2.401   6.871   7.060  0.1509 -0.6575 -3.1041
49239SOL    HW256686   2.257   6.828   7.041 -0.1650  0.1888 -2.6871
49240SOL     OW56687  10.605   0.627  10.022  0.1222  0.1081 -0.6367
49240SOL    HW156688  10.613   0.671  10.106 -0.9964 -2.4794  0.9197
49240SOL    HW256689  10.631   0.537  10.038 -1.0447 -0.7082 -2.8088
49241SOL     OW56690   3.340  12.303   3.940  0.5064 -0.2709 -0.4902
49241SOL    HW156691   3.255  12.343   3.957  0.1462 -1.4979  0.8118
49241SOL    HW256692   3.328  12.252   3.860  0.5713  1.0162 -1.3542
49242SOL     OW56693  11.172   3.504   8.815 -0.6954  0.5125  0.4388
49242SOL    HW156694  11.094   3.502   8.870  0.2980  1.5245  1.9768
49242SOL    HW256695  11.235   3.448   8.860  0.4444  2.0694  0.8839
49243SOL     OW56696   2.496   0.378   5.473 -0.0777 -0.1803  0.6195
49243SOL    HW156697   2.401   0.381   5.463 -0.2540  0.7291  2.2107
49243SOL    HW256698   2.529   0.357   5.386 -1.7109 -0.0226 -0.0696
49244SOL     OW56699   9.222   8.788   9.680 -0.0512  0.2766 -0.5809
49244SOL    HW156700   9.148   8.734   9.653 -0.5770  0.8336 -0.2672
49244SOL    HW256701   9.281   8.787   9.605  0.2947 -1.3197 -0.3272
49245SOL     OW56702   1.210   2.029   7.096 -0.2788  0.3819 -0.4327
49245SOL    HW156703   1.278   2.076   7.143 -1.8343 -0.1969  2.6639
49245SOL    HW256704   1.144   2.095   7.076 -1.1462  0.0927  1.3230
49246SOL     OW56705   9.102  10.526   7.560 -0.3579  0.6190  0.4601
49246SOL    HW156706   9.099  10.431   7.557  0.3831  0.5681  1.1223
49246SOL    HW256707   9.087  10.548   7.652 -0.0909  1.1111  0.3917
49247SOL     OW56708   7.183   3.403   7.413 -0.0535  0.0520  0.1147
49247SOL    HW156709   7.191   3.317   7.455  0.5442  0.0041 -0.0943
49247SOL    HW256710   7.242   3.399   7.338  0.5935  0.9241  0.5599
49248SOL     OW56711   7.484   2.220   2.552  0.3987  0.1675  0.0197
49248SOL    HW156712   7.483   2.229   2.647  2.3872  0.7822  0.0418
49248SOL    HW256713   7.407   2.268   2.522 -1.3675 -1.6420  1.3711
49249SOL     OW56714   1.441  12.190   6.763  0.3994  0.0438  0.0421
49249SOL    HW156715   1.425  12.100   6.791  1.6211 -0.0032  0.6039
49249SOL    HW256716   1.375  12.205   6.694 -0.9519 -0.6796  1.1258
49250SOL     OW56717   1.970   3.610   9.328  0.1742 -0.0427 -0.4425
49250SOL    HW156718   1.899   3.658   9.285 -0.2012 -0.4435 -0.2729
49250SOL    HW256719   2.002   3.549   9.261 -0.4717 -0.7320 -0.1403
49251SOL     OW56720  10.428   5.380   4.481  0.6591  0.4589  0.2155
49251SOL    HW156721  10.337   5.411   4.484  0.8652  1.0010  1.6553
49251SOL    HW256722  10.448   5.374   4.388 -0.6339  0.9827 -0.1194
49252SOL     OW56723   3.794   9.552  10.278  0.0894  0.1121 -0.3691
49252SOL    HW156724   3.883   9.528  10.305 -0.2324  0.5591  1.1951
49252SOL    HW256725   3.751   9.578  10.360 -0.7736  2.1475 -1.3996
49253SOL     OW56726   8.806   0.617   2.156 -0.0996 -0.6814 -0.9778
49253SOL    HW156727   8.894   0.601   2.120 -0.0095 -1.5881 -0.3768
49253SOL    HW256728   8.746   0.580   2.091 -0.0300 -0.2489 -1.2896
49254SOL     OW56729   9.295   7.535   7.755  0.3416  0.0232  0.3063
49254SOL    HW156730   9.380   7.574   7.734  0.6286 -0.0903  1.1845
49254SOL    HW256731   9.231   7.600   7.727  0.5951 -0.7029 -2.1873
49255SOL     OW56732   7.256   6.008   5.054  0.6796 -0.1377  0.0305
49255SOL    HW156733   7.330   5.984   5.110 -0.0655 -0.7176  0.7672
49255SOL    HW256734   7.202   6.065   5.108  0.6662  0.4304 -0.5682
49256SOL     OW56735   0.044   7.254   9.811 -0.2501 -0.2226  0.6086
49256SOL    HW156736  -0.036   7.258   9.864 -0.9538 -0.2663 -0.4148
49256SOL    HW256737   0.044   7.337   9.762  0.8179  0.1787  1.2506
49257SOL     OW56738   7.080   7.043   1.161  0.0781 -0.0207  0.2750
49257SOL    HW156739   7.104   6.966   1.109 -0.1852  1.2351 -1.8604
49257SOL    HW256740   7.151   7.053   1.225  0.7360 -1.3320 -0.2220
49258SOL     OW56741  10.454   5.765  10.716 -0.3417  0.7898  0.1766
49258SOL    HW156742  10.440   5.670  10.709  2.1120  0.3653  0.1921
49258SOL    HW256743  10.462   5.795  10.625  0.6829  0.6409  0.2056
49259SOL     OW56744   9.196  10.344   9.138 -0.4514  0.5180 -0.4269
49259SOL    HW156745   9.230  10.317   9.223  0.5386  0.0883 -0.9453
49259SOL    HW256746   9.190  10.440   9.144 -0.9334  0.4510  0.3091
49260SOL     OW56747   8.182   4.328   3.273 -0.9104 -0.1144  0.1703
49260SOL    HW156748   8.168   4.235   3.290  1.0630 -0.2921  1.1498
49260SOL    HW256749   8.269   4.331   3.231 -0.7600  1.3032  0.5446
49261SOL     OW56750   3.272   2.525   1.561  0.6092 -0.2904 -0.2715
49261SOL    HW156751   3.253   2.556   1.472 -0.2969  0.8446  0.2850
49261SOL    HW256752   3.200   2.560   1.614  0.9445 -1.2472  0.8496
49262SOL     OW56753   5.034   5.553   4.659 -0.0699  0.2605 -0.1661
49262SOL    HW156754   5.112   5.546   4.714 -0.0910  0.0900 -0.1577
49262SOL    HW256755   4.999   5.465   4.656  0.1920  0.1735 -0.8442
49263SOL     OW56756   8.853   0.311   1.940  0.3301  0.0643 -0.2897
49263SOL    HW156757   8.790   0.377   1.912  0.4843  0.4775  0.3213
49263SOL    HW256758   8.801   0.232   1.955 -0.3180  0.8139  1.7366
49264SOL     OW56759   2.809   6.456   5.330 -0.1182  0.0141 -0.1065
49264SOL    HW156760   2.882   6.482   5.274  0.3537 -0.5091  0.2488
49264SOL    HW256761   2.740   6.428   5.270  1.3765 -3.3241 -0.5097
49265SOL     OW56762   7.125   1.025   8.259 -0.3009 -0.4663 -0.9861
49265SOL    HW156763   7.177   0.951   8.291  0.7873  0.2551 -1.0400
49265SOL    HW256764   7.175   1.102   8.285 -1.8296  0.2986 -0.1935
49266SOL     OW56765   2.507   2.847   6.438 -0.4730  0.1650 -0.4601
49266SOL    HW156766   2.585   2.792   6.449 -2.0793 -2.3590 -0.6551
49266SOL    HW256767   2.519   2.890   6.354  0.4327 -0.7123 -0.7981
49267SOL     OW56768   2.724   8.891  11.205  0.2444  0.2741  0.3080
49267SOL    HW156769   2.631   8.903  11.188  0.1272  0.1763  0.8464
49267SOL    HW256770   2.727   8.836  11.284  0.7612 -1.0578 -0.6050
49268SOL     OW56771   7.656  12.197   4.400 -0.3814  0.0840  0.3074
49268SOL    HW156772   7.730  12.257   4.399 -0.8502  0.6625  0.0685
49268SOL    HW256773   7.685  12.124   4.455 -0.1196  0.9166  1.2973
49269SOL     OW56774   5.065  10.736   3.520  0.0387 -0.2703 -0.0994
49269SOL    HW156775   5.093  10.774   3.437 -0.7923 -0.6362 -0.5641
49269SOL    HW256776   4.999  10.670   3.495 -1.2340  0.5505  0.9290
49270SOL     OW56777  12.294   4.971  12.458 -0.2533 -0.2819  0.1189
49270SOL    HW156778  12.265   4.985  12.549  2.8326 -1.2914  1.4007
49270SOL    HW256779  12.361   5.038  12.445  0.8024 -1.4776 -0.6624
49271SOL     OW56780   7.712   4.197  12.201  0.0785 -0.6315 -0.0226
49271SOL    HW156781   7.632   4.228  12.243  1.1915  1.1105  0.9004
49271SOL    HW256782   7.767   4.167  12.273  0.8528 -0.4021 -0.5061
49272SOL     OW56783  10.444   3.280   4.153 -0.0325  0.2755 -0.2170
49272SOL    HW156784  10.510   3.347   4.134 -0.3605  0.4588 -0.7530
49272SOL    HW256785  10.428   3.288   4.247  0.3197  0.5961 -0.1813
49273SOL     OW56786   6.597   5.927  10.113  0.5033 -0.8589  0.1455
49273SOL    HW156787   6.525   5.948  10.171  0.2465  0.5319 -0.6403
49273SOL    HW256788   6.592   5.832  10.102  0.6436 -1.1900  2.4376
49274SOL     OW56789   7.452   7.818   1.500  0.7640  0.3317  0.6849
49274SOL    HW156790   7.386   7.783   1.560 -1.5110  0.7808 -1.4099
49274SOL    HW256791   7.530   7.765   1.517  0.1174  0.1392  3.6563
49275SOL     OW56792   9.367   8.009   5.557  0.2963 -0.5404  0.1285
49275SOL    HW156793   9.361   7.914   5.549  0.4240 -0.5244 -0.1729
49275SOL    HW256794   9.276   8.037   5.572  0.0041 -0.5782 -1.3720
49276SOL     OW56795   4.376  10.125   0.915 -0.0960 -0.0459  0.1230
49276SOL    HW156796   4.304  10.164   0.866 -0.3619  0.9109  1.2301
49276SOL    HW256797   4.354  10.141   1.007  1.1539 -0.4116  0.5103
49277SOL     OW56798  12.218   1.158  12.211 -0.5406  0.5560 -0.0698
49277SOL    HW156799  12.202   1.124  12.123 -1.2806  1.6198 -0.3635
49277SOL    HW256800  12.146   1.122  12.264 -0.7762  0.8933 -0.1637
49278SOL     OW56801  11.858   7.071  10.329 -0.2331 -0.4274  0.5130
49278SOL    HW156802  11.868   6.985  10.288 -1.2874  0.0880 -0.9139
49278SOL    HW256803  11.798   7.055  10.402 -0.2316 -0.9506  0.4071
49279SOL     OW56804   6.980   5.401   2.119  0.0041 -0.2369 -0.3341
49279SOL    HW156805   6.966   5.310   2.142 -1.2100  0.0994  0.3149
49279SOL    HW256806   7.009   5.442   2.201  0.9317 -0.1037 -0.7141
49280SOL     OW56807   8.186  11.624  12.191 -0.6291 -0.1642 -0.0352
49280SOL    HW156808   8.097  11.656  12.204 -1.0103 -0.8011 -0.9812
49280SOL    HW256809   8.234  11.698  12.155 -0.9018  0.0414  0.0290
49281SOL     OW56810   9.010   6.675   5.732  0.1164 -0.1518 -0.0930
49281SOL    HW156811   8.960   6.661   5.813  2.6977 -1.8747  1.3735
49281SOL    HW256812   8.969   6.751   5.691 -1.5694  0.5584  2.6217
49282SOL     OW56813   1.757   7.142   3.061  0.7069 -0.0611  0.2549
49282SOL    HW156814   1.706   7.097   2.994 -1.3208  1.9353  0.3337
49282SOL    HW256815   1.697   7.208   3.097  2.4622  0.4930  2.4195
49283SOL     OW56816   5.782   3.384   1.468 -0.2254 -0.1652 -0.0580
49283SOL    HW156817   5.839   3.413   1.540  1.1149 -2.3362 -0.1414
49283SOL    HW256818   5.839   3.383   1.392 -0.0378 -3.0355 -0.0225
49284SOL     OW56819  10.422   8.273   6.132 -0.9269  0.3925  0.1256
49284SOL    HW156820  10.495   8.327   6.163 -0.0993 -0.3781 -0.4156
49284SOL    HW256821  10.361   8.336   6.093 -0.3621  1.0201  0.2189
49285SOL     OW56822   4.776  12.571   4.208 -0.6721  0.4349 -0.0298
49285SOL    HW156823   4.776  12.638   4.276 -0.6570  0.6917 -0.2850
49285SOL    HW256824   4.868  12.558   4.187 -0.4614 -1.3266  1.6530
49286SOL     OW56825   4.955   9.990   1.367 -1.1424 -0.2509  0.2389
49286SOL    HW156826   5.027  10.051   1.384 -1.5999  0.9814 -1.8784
49286SOL    HW256827   4.996   9.918   1.318 -0.7031 -1.4829  2.2914
49287SOL     OW56828   1.227   0.726   5.691  0.1472  0.0557 -0.7310
49287SOL    HW156829   1.276   0.760   5.766 -0.3399  2.3674 -1.3863
49287SOL    HW256830   1.182   0.802   5.655 -1.4353 -1.4156 -2.0451
49288SOL     OW56831   2.388   0.979   6.281 -0.1737  0.1960  0.0293
49288SOL    HW156832   2.445   0.948   6.210  1.2097  0.3384  1.0363
49288SOL    HW256833   2.358   1.065   6.252  1.8974  1.0944  0.3872
49289SOL     OW56834   2.925   9.479   1.326  0.0838  0.2983 -0.1605
49289SOL    HW156835   2.901   9.401   1.275  0.2835 -0.7787  1.3351
49289SOL    HW256836   2.864   9.479   1.399  0.3941  1.2986  0.1086
49290SOL     OW56837   3.217   4.640   5.315 -0.3812 -0.0422  0.0554
49290SOL    HW156838   3.179   4.603   5.395 -1.3197  0.3153 -0.2014
49290SOL    HW256839   3.169   4.722   5.302  1.0030  0.8012  0.0973
49291SOL     OW56840   8.190  10.196   5.931 -0.1566 -0.4826  0.2003
49291SOL    HW156841   8.210  10.174   5.840 -0.7475 -1.4968  0.2986
49291SOL    HW256842   8.140  10.277   5.926  0.4792 -0.1120 -0.3192
49292SOL     OW56843   9.783  11.393   3.137 -0.4103 -0.4225  0.1176
49292SOL    HW156844   9.786  11.325   3.205 -2.7837  1.0454  1.8541
49292SOL    HW256845   9.724  11.358   3.071 -0.2399 -0.7562  0.1373
49293SOL     OW56846   9.933  10.295  11.442 -0.0185  0.1617 -0.6834
49293SOL    HW156847   9.886  10.341  11.511 -0.4317 -0.4761 -0.5310
49293SOL    HW256848   9.907  10.203  11.452  0.5440 -0.0616 -1.1781
49294SOL     OW56849   6.977  10.079   2.099 -0.5269 -0.1678  0.5236
49294SOL    HW156850   6.979  10.160   2.048  0.8542  1.0619  2.3860
49294SOL    HW256851   6.888  10.075   2.135 -1.7993 -1.4930 -2.4754
49295SOL     OW56852   7.773  11.961   6.814  0.0654 -0.2282 -0.0800
49295SOL    HW156853   7.817  12.045   6.823  0.9397 -0.4899 -1.6586
49295SOL    HW256854   7.729  11.966   6.729 -1.5379 -0.6499  0.6731
49296SOL     OW56855   5.951   3.787   3.389 -0.8582 -0.1910 -0.0326
49296SOL    HW156856   5.996   3.703   3.378  0.6640  0.8435 -2.5564
49296SOL    HW256857   5.980   3.819   3.474  1.0829 -0.8252 -0.4149
49297SOL     OW56858   7.671   0.486   6.795 -0.7554 -0.0502 -0.3172
49297SOL    HW156859   7.610   0.560   6.800 -1.0506 -0.2882 -0.3401
49297SOL    HW256860   7.735   0.502   6.863 -1.1617 -0.0785  0.0744
49298SOL     OW56861   6.236   6.955   8.881 -0.5884 -0.4472 -0.1976
49298SOL    HW156862   6.180   7.010   8.937 -1.9252 -1.2850 -0.6530
49298SOL    HW256863   6.174   6.912   8.822  0.1738 -3.6401  1.1085
49299SOL     OW56864  12.359  12.268   3.052  0.2165  0.0146 -0.4509
49299SOL    HW156865  12.402  12.289   2.969  0.5793 -0.8824 -0.5017
49299SOL    HW256866  12.293  12.202   3.029  2.7927 -3.1747  0.4114
49300SOL     OW56867   4.732  12.174   4.631  0.0597 -0.1287  0.2318
49300SOL    HW156868   4.767  12.159   4.719  0.1354 -0.1464  0.1989
49300SOL    HW256869   4.657  12.232   4.644  1.8106  2.3286  0.0420
49301SOL     OW56870   6.637   5.146   3.798  0.2457 -0.4525 -0.2143
49301SOL    HW156871   6.555   5.096   3.799 -0.5203  0.7159 -1.5429
49301SOL    HW256872   6.651   5.170   3.890 -1.0532 -0.4310 -0.0015
49302SOL     OW56873   0.989  10.222   4.417  0.3322  0.2376 -0.1794
49302SOL    HW156874   0.943  10.139   4.407  1.3078 -0.2921 -0.4434
49302SOL    HW256875   0.957  10.258   4.500 -1.6070  0.5948 -1.0309
49303SOL     OW56876   4.867  11.789   3.023 -0.2667  0.0844  0.3796
49303SOL    HW156877   4.828  11.702   3.025 -0.6706  0.2395 -0.3069
49303SOL    HW256878   4.959  11.774   3.002 -0.5600 -0.1218 -0.8285
49304SOL     OW56879   8.202   7.034   2.015 -0.1769 -0.0825  0.3412
49304SOL    HW156880   8.210   7.121   1.975  0.1492 -0.2078  0.1290
49304SOL    HW256881   8.245   7.043   2.100 -1.4042  0.3514  0.9422
49305SOL     OW56882  10.866   7.946   6.419  0.1641  0.0228 -0.1408
49305SOL    HW156883  10.894   7.964   6.329 -0.2411  0.6293 -0.1518
49305SOL    HW256884  10.775   7.919   6.411 -0.4723  1.9057  0.2375
49306SOL     OW56885  11.062  12.233  10.724  0.3118  0.4287  0.2966
49306SOL    HW156886  11.070  12.260  10.816 -0.6399  1.7681  0.0247
49306SOL    HW256887  10.973  12.200  10.716  0.1038  1.1053 -0.3198
49307SOL     OW56888  10.723   1.871   7.543 -0.5494  0.5538  0.1974
49307SOL    HW156889  10.791   1.838   7.484 -0.2599  0.4090  0.6049
49307SOL    HW256890  10.767   1.939   7.594 -0.5494  0.0683  0.8573
49308SOL     OW56891   9.212   1.986   1.492  0.1380 -0.2502 -0.0212
49308SOL    HW156892   9.261   1.938   1.426 -1.6599 -0.7254 -1.0789
49308SOL    HW256893   9.231   2.078   1.474  0.3321 -0.4124 -0.6500
49309SOL     OW56894   9.998  10.812   6.180 -0.0803 -0.4680  0.4132
49309SOL    HW156895   9.988  10.720   6.155  0.0983 -0.5472  0.6301
49309SOL    HW256896   9.909  10.843   6.195 -0.1606 -0.5326  0.0832
49310SOL     OW56897   7.680   1.145  10.039  0.0393 -0.2521  0.1891
49310SOL    HW156898   7.678   1.053  10.011  0.5815 -0.4274  0.7108
49310SOL    HW256899   7.767   1.176  10.013  0.5020 -0.3783  1.5055
49311SOL     OW56900   7.394   4.363   1.992 -0.3755 -0.1256  0.2582
49311SOL    HW156901   7.439   4.297   2.045  1.2996  0.6433 -0.1281
49311SOL    HW256902   7.449   4.441   1.999 -0.8119  0.3871 -1.5283
49312SOL     OW56903   6.073   2.958   2.256  0.4186 -0.0101 -0.1152
49312SOL    HW156904   6.015   2.882   2.267  0.0174  0.5502  2.1673
49312SOL    HW256905   6.013   3.031   2.238  0.6426  0.1181 -0.3427
49313SOL     OW56906  12.351   8.801   2.997 -0.4582  0.1877 -0.1742
49313SOL    HW156907  12.335   8.741   2.924  0.5635 -0.5242  0.1740
49313SOL    HW256908  12.405   8.751   3.058 -0.5607  1.0763  0.6658
49314SOL     OW56909  11.164   9.898   6.838  0.2654 -0.1786  0.4272
49314SOL    HW156910  11.257   9.922   6.842  0.1580  0.1276  1.3217
49314SOL    HW256911  11.135   9.929   6.752  1.1234 -0.7987 -0.1043
49315SOL     OW56912   6.135   3.787   9.728 -0.6915 -0.4969  0.0455
49315SOL    HW156913   6.046   3.783   9.762 -0.5124 -1.6344  0.3915
49315SOL    HW256914   6.128   3.844   9.651 -1.4106  0.6947  0.9563
49316SOL     OW56915   3.085  10.855   9.480 -0.1231 -0.0303 -0.1108
49316SOL    HW156916   3.088  10.857   9.576  2.3578 -4.4603  0.1396
49316SOL    HW256917   3.028  10.781   9.459 -0.0902  0.4439 -2.0984
49317SOL     OW56918   7.698   3.193   6.781 -0.0019 -0.2730 -0.0236
49317SOL    HW156919   7.661   3.110   6.809 -0.4068 -0.9309 -2.3324
49317SOL    HW256920   7.791   3.175   6.766  0.4472  0.3354  1.7131
49318SOL     OW56921   1.253  11.102   6.109  0.2034  0.5707  0.4358
49318SOL    HW156922   1.326  11.086   6.049 -0.2904  0.2570 -0.0874
49318SOL    HW256923   1.265  11.193   6.138 -0.5673  1.3737 -1.5774
49319SOL     OW56924   2.936   7.840   8.004  0.1107 -0.4696 -0.2550
49319SOL    HW156925   2.877   7.807   7.936 -0.0242  0.8937 -0.8351
49319SOL    HW256926   2.894   7.919   8.036 -0.0097 -1.2815  1.7224
49320SOL     OW56927   7.442   2.689  11.835 -0.1701  0.5239 -0.1451
49320SOL    HW156928   7.485   2.621  11.886 -0.2790  0.4258 -0.1829
49320SOL    HW256929   7.387   2.641  11.773 -0.3603  0.6493 -0.0730
49321SOL     OW56930   7.784   8.200   7.003  0.1701 -0.6170  0.9899
49321SOL    HW156931   7.764   8.173   7.092  0.4834 -0.1325  1.2130
49321SOL    HW256932   7.707   8.248   6.973  0.5397  0.2800  1.4440
49322SOL     OW56933   9.408   6.911   7.570  0.3233  0.0843  0.0874
49322SOL    HW156934   9.339   6.924   7.634  1.5559  0.6526  1.3546
49322SOL    HW256935   9.364   6.915   7.485 -1.2271  0.1025  0.8726
49323SOL     OW56936  11.265   6.224   0.987  0.2513  0.2028 -0.0845
49323SOL    HW156937  11.286   6.227   0.894  1.1149  1.2031  0.1226
49323SOL    HW256938  11.207   6.149   0.996  0.3408 -0.0469 -1.3902
49324SOL     OW56939   4.129  10.988   3.548 -0.2731  0.5988 -0.2845
49324SOL    HW156940   4.088  10.951   3.469 -0.0979  0.3741 -0.2728
49324SOL    HW256941   4.179  10.915   3.585  1.7226  1.3615 -1.3493
49325SOL     OW56942   7.496   3.681   1.715  0.0704  0.7845 -0.4306
49325SOL    HW156943   7.428   3.712   1.655 -0.4028 -0.6122 -0.6543
49325SOL    HW256944   7.556   3.632   1.660  0.5697  0.9295 -0.0213
49326SOL     OW56945   4.267  10.241   8.732 -0.0547  0.4920 -0.0234
49326SOL    HW156946   4.192  10.222   8.787  0.2358  1.0543  0.5726
49326SOL    HW256947   4.233  10.300   8.664 -0.8040 -1.5179 -1.4834
49327SOL     OW56948   4.620  12.033   9.897 -0.2035 -0.0528  0.0673
49327SOL    HW156949   4.623  12.115   9.848  1.8218 -1.0868 -1.7419
49327SOL    HW256950   4.712  12.014   9.917 -0.5486 -2.1319 -0.0541
49328SOL     OW56951   9.747  10.258   3.547 -0.7835 -0.0996  0.5220
49328SOL    HW156952   9.725  10.175   3.505  1.5230 -0.7365  0.3870
49328SOL    HW256953   9.680  10.271   3.614 -1.3631 -1.9305  0.3396
49329SOL     OW56954   5.679  10.302   2.574  0.3532 -1.0875 -0.2879
49329SOL    HW156955   5.606  10.251   2.609 -0.9742  0.5733 -0.4394
49329SOL    HW256956   5.637  10.368   2.519  2.1162 -1.1008 -1.7534
49330SOL     OW56957   2.983   1.220   7.883 -0.3288 -0.0414  0.3059
49330SOL    HW156958   3.070   1.207   7.845  0.1987  2.2772  0.5417
49330SOL    HW256959   2.923   1.215   7.809  0.3185  0.8993 -0.3127
49331SOL     OW56960   3.644   2.193   2.577  0.6887  0.3945  0.5908
49331SOL    HW156961   3.724   2.144   2.558  0.1405 -0.0444 -0.6887
49331SOL    HW256962   3.673   2.265   2.633  1.9335  0.0880  0.3727
49332SOL     OW56963   6.367   0.408   3.547 -0.2334  0.0819 -0.1514
49332SOL    HW156964   6.398   0.450   3.628  2.0971  0.4225 -1.1541
49332SOL    HW256965   6.324   0.478   3.499  0.7191  0.5475 -0.3516
49333SOL     OW56966   2.558   2.790   1.016 -0.2439 -0.3558  0.2179
49333SOL    HW156967   2.615   2.715   1.034  0.9227  0.5976  0.6494
49333SOL    HW256968   2.549   2.835   1.100  0.8097  1.1361 -0.4147
49334SOL     OW56969  11.434   9.826   2.292 -0.1358 -0.2684 -0.0836
49334SOL    HW156970  11.471   9.800   2.208 -1.8624 -0.2923 -0.8674
49334SOL    HW256971  11.424   9.744   2.341 -1.9440 -0.6796 -1.0571
49335SOL     OW56972  10.219   9.621  10.073  0.0020 -0.3857 -0.4009
49335SOL    HW156973  10.283   9.620  10.144 -1.3342 -2.1719  0.8671
49335SOL    HW256974  10.257   9.563  10.006  0.2666 -0.4430 -0.2038
49336SOL     OW56975   8.898   3.373   1.183  0.1910  0.1437 -0.0892
49336SOL    HW156976   8.846   3.310   1.235 -1.3237  0.9918 -0.5167
49336SOL    HW256977   8.929   3.322   1.108  0.0610 -0.4151  0.2284
49337SOL     OW56978   4.454   6.650  11.905  0.4182 -0.0535 -0.4357
49337SOL    HW156979   4.532   6.643  11.959  1.1865  1.0105 -1.3622
49337SOL    HW256980   4.383   6.669  11.966  0.5616 -2.4874  0.6049
49338SOL     OW56981   4.868   5.741   3.092 -0.6511  0.2158 -0.0700
49338SOL    HW156982   4.797   5.740   3.157 -3.0718  0.2999 -2.4882
49338SOL    HW256983   4.831   5.695   3.017  3.0295 -2.3926 -0.5157
49339SOL     OW56984  12.128   8.312   4.999  0.2871  0.4448 -0.8109
49339SOL    HW156985  12.207   8.364   5.014 -0.4032  1.1765  0.4613
49339SOL    HW256986  12.107   8.274   5.084 -0.5538 -0.0200 -1.2053
49340SOL     OW56987   2.574   0.618   3.454 -0.0620  0.7259 -0.4624
49340SOL    HW156988   2.608   0.698   3.414 -0.2576  1.0416 -0.0109
49340SOL    HW256989   2.548   0.563   3.380 -0.0784  1.1497 -0.7747
49341SOL     OW56990   1.901  11.002   0.845 -0.2068 -0.0611 -0.6225
49341SOL    HW156991   1.880  10.912   0.871  1.0958 -0.7489 -1.8485
49341SOL    HW256992   1.932  11.043   0.926 -0.9876 -0.6507 -0.0117
49342SOL     OW56993   7.486  10.828  10.887  0.4355 -0.0036  0.0531
49342SOL    HW156994   7.402  10.834  10.842  0.1677 -0.4223  0.4904
49342SOL    HW256995   7.467  10.781  10.968  0.5138  2.3823  1.5666
49343SOL     OW56996   6.697   2.718   4.057 -0.4824 -0.2459  0.0056
49343SOL    HW156997   6.757   2.700   4.129  0.3597  1.6138 -0.1531
49343SOL    HW256998   6.647   2.637   4.045 -1.8447 -0.1385  3.7704
49344SOL     OW56999   8.180   4.874   0.473 -0.4024  0.2440  0.0822
49344SOL    HW157000   8.147   4.916   0.394  0.2385  0.7678  0.0850
49344SOL    HW257001   8.126   4.795   0.483 -1.5457  0.9878  0.0052
49345SOL     OW57002   8.776   1.927   5.699  0.4154 -0.0866 -0.1370
49345SOL    HW157003   8.769   2.021   5.687  0.2298 -0.1202 -0.2900
49345SOL    HW257004   8.793   1.916   5.793  0.6133  0.1058 -0.1485
49346SOL     OW57005  11.676  10.455   1.147 -0.5171 -0.1682 -0.0291
49346SOL    HW157006  11.598  10.400   1.141 -0.9118  0.4865 -1.3304
49346SOL    HW257007  11.644  10.538   1.181 -0.7317  0.6584 -2.1286
49347SOL     OW57008   0.134  11.085   2.203 -0.8183  0.2012  0.2881
49347SOL    HW157009   0.140  11.161   2.145 -0.0127 -0.3032 -0.3211
49347SOL    HW257010   0.052  11.043   2.178 -0.7825  0.3311 -0.0625
49348SOL     OW57011   6.864   3.997   5.628 -0.2642 -0.1727 -0.3099
49348SOL    HW157012   6.779   3.972   5.664 -0.4488  0.6604 -0.1299
49348SOL    HW257013   6.905   3.915   5.603 -1.6691 -0.5068 -1.6590
49349SOL     OW57014   3.989  12.215   3.931 -0.1811 -0.5315 -0.1845
49349SOL    HW157015   3.986  12.162   4.010  0.4690  1.8216  1.5246
49349SOL    HW257016   4.037  12.294   3.956 -2.9817  1.9547 -1.8706
49350SOL     OW57017   1.566  11.522   6.462  0.3621  0.2735 -0.5478
49350SOL    HW157018   1.642  11.488   6.415 -1.9743 -1.5087 -3.3893
49350SOL    HW257019   1.520  11.444   6.493 -1.3528  1.1509 -0.7600
49351SOL     OW57020   1.378   2.291   7.035  0.0364 -0.3502 -0.4068
49351SOL    HW157021   1.283   2.294   7.048  0.0114 -0.1689 -0.6291
49351SOL    HW257022   1.415   2.304   7.122 -0.1320  0.4486 -0.4460
49352SOL     OW57023  11.599   0.737   1.372 -0.2536  0.5649 -0.1413
49352SOL    HW157024  11.584   0.724   1.466  0.4666  1.3770  0.0996
49352SOL    HW257025  11.566   0.826   1.355  1.4369  1.2117 -0.2161
49353SOL     OW57026  11.425  11.715  10.374 -0.0355 -0.1792 -0.0288
49353SOL    HW157027  11.348  11.678  10.331 -1.6176  1.6043  1.1496
49353SOL    HW257028  11.440  11.798  10.329 -0.3182  0.6260  1.3199
49354SOL     OW57029   0.696   0.031   4.021 -0.2796 -0.5441 -0.2957
49354SOL    HW157030   0.698  -0.025   4.099  1.0431  1.3230  1.1169
49354SOL    HW257031   0.760  -0.009   3.962  0.1197 -0.9405  0.3869
49355SOL     OW57032   5.840   9.180  10.521  0.1972  0.4110  0.3049
49355SOL    HW157033   5.851   9.267  10.560  1.1725 -0.2263  1.5248
49355SOL    HW257034   5.879   9.120  10.585  0.3301 -0.8457 -0.9073
49356SOL     OW57035  12.039   6.803   5.137 -0.3852  0.3444 -0.0533
49356SOL    HW157036  11.976   6.757   5.193  1.3940  0.1855  1.9307
49356SOL    HW257037  12.123   6.761   5.155  0.2760  0.0975 -3.1351
49357SOL     OW57038   7.715   3.183  11.844  0.3210 -0.0389 -0.4539
49357SOL    HW157039   7.666   3.168  11.763  0.1778  3.0065 -1.0624
49357SOL    HW257040   7.652   3.169  11.914 -0.6975  1.1280 -1.1009
49358SOL     OW57041   5.201   8.622  11.424 -0.7788 -0.0784 -0.2975
49358SOL    HW157042   5.242   8.679  11.359 -1.1621  0.1532 -0.3439
49358SOL    HW257043   5.226   8.533  11.398 -0.3727  0.0575 -0.3645
49359SOL     OW57044   6.797   6.540   2.752  0.2170  0.8950 -0.0870
49359SOL    HW157045   6.817   6.460   2.702  1.0427  1.9807 -1.5835
49359SOL    HW257046   6.702   6.536   2.765 -0.3569  1.3247 -3.2743
49360SOL     OW57047   3.962  10.563   4.416 -0.1115 -0.1795  0.0013
49360SOL    HW157048   4.054  10.542   4.399  0.0799  0.9663 -0.5311
49360SOL    HW257049   3.950  10.648   4.373 -0.2135  1.8613  3.6714
49361SOL     OW57050   9.801   2.202   9.569  0.2570  0.3120  0.6088
49361SOL    HW157051   9.784   2.233   9.480  1.6833  0.4073  0.3393
49361SOL    HW257052   9.717   2.168   9.600 -0.6383  1.7082 -0.1891
49362SOL     OW57053   2.428   7.202   3.254 -0.1555 -0.2588  0.1939
49362SOL    HW157054   2.504   7.157   3.218 -0.3946  0.1143 -0.7972
49362SOL    HW257055   2.359   7.135   3.257 -0.3517 -0.1100 -0.7621
49363SOL     OW57056   9.725   6.233   5.329 -0.1535 -0.0595  0.5159
49363SOL    HW157057   9.733   6.319   5.371  0.9379 -0.1572  0.5487
49363SOL    HW257058   9.757   6.246   5.240 -2.7410  0.2128 -0.4569
49364SOL     OW57059   0.717   8.410   0.744  0.5092  0.1722  0.1268
49364SOL    HW157060   0.783   8.471   0.711  0.4896 -0.4549 -1.1450
49364SOL    HW257061   0.684   8.451   0.824 -0.1813  2.2872 -1.1709
49365SOL     OW57062   1.616   4.863   2.527 -0.0568 -0.2203  0.4239
49365SOL    HW157063   1.569   4.779   2.523  0.2217 -0.3387 -1.2833
49365SOL    HW257064   1.601   4.895   2.616 -2.3652 -0.8201  0.3213
49366SOL     OW57065   2.660   4.552   4.680 -0.2630 -0.1367  0.2135
49366SOL    HW157066   2.700   4.522   4.598  1.0533  1.1951  0.3268
49366SOL    HW257067   2.617   4.474   4.716 -0.0320 -0.9731 -1.2469
49367SOL     OW57068   5.541  12.356   2.645 -0.0619  0.2295 -0.1521
49367SOL    HW157069   5.595  12.342   2.567 -0.0015  0.1498 -0.0966
49367SOL    HW257070   5.476  12.286   2.642  1.6998 -1.5961  1.3978
49368SOL     OW57071   1.834   0.249  10.548  0.1463 -0.2627 -0.3560
49368SOL    HW157072   1.777   0.274  10.620  0.6263  0.1235 -0.1006
49368SOL    HW257073   1.845   0.155  10.557  1.9072  0.0443  1.3689
49369SOL     OW57074   6.972  10.269  11.264 -0.4465  0.3107  0.0362
49369SOL    HW157075   7.023  10.311  11.195  1.1543 -1.0884  0.2869
49369SOL    HW257076   6.921  10.202  11.219  1.1576 -1.1100  0.2044
49370SOL     OW57077   9.214   9.488   7.858 -0.6895 -0.1283  0.1491
49370SOL    HW157078   9.211   9.396   7.886  0.5807 -0.6636 -1.3157
49370SOL    HW257079   9.296   9.521   7.896 -0.9029  0.2536  0.2735
49371SOL     OW57080  10.383   8.904   0.583  0.3445 -0.0623  0.4000
49371SOL    HW157081  10.332   8.827   0.611  0.0789  0.8368  2.5793
49371SOL    HW257082  10.473   8.882   0.606  0.1678  0.5443  1.7910
49372SOL     OW57083   6.228  12.425   1.644 -0.0012 -0.1014 -0.2387
49372SOL    HW157084   6.196  12.497   1.590 -1.0259 -0.1858  0.2419
49372SOL    HW257085   6.247  12.355   1.581  0.3234  0.3341 -0.6359
49373SOL     OW57086   5.014   8.039   3.936 -0.5909  0.1641  0.9940
49373SOL    HW157087   4.969   7.954   3.931 -0.4750  0.1023  0.9941
49373SOL    HW257088   4.989   8.074   4.021 -2.2135  1.0218  0.2155
49374SOL     OW57089   2.899  11.659   8.928 -0.0970  0.1416 -0.3879
49374SOL    HW157090   2.881  11.722   8.858 -0.2899 -0.3245 -0.7629
49374SOL    HW257091   2.973  11.608   8.897  0.3544  0.4765  0.1166
49375SOL     OW57092   9.403   2.848  10.186  0.0378  0.3208  0.0482
49375SOL    HW157093   9.354   2.782  10.234 -0.2034  1.3206  1.2334
49375SOL    HW257094   9.458   2.890  10.252  1.6892 -0.0148 -1.0427
49376SOL     OW57095  10.562  12.406   9.653 -0.3317  0.2006  0.0088
49376SOL    HW157096  10.485  12.419   9.598 -0.7347 -0.0792  0.4957
49376SOL    HW257097  10.539  12.334   9.711  0.3974 -0.0598 -0.0070
49377SOL     OW57098   7.947   3.322  11.882  0.1264  0.0147 -0.2535
49377SOL    HW157099   7.916   3.336  11.971  0.1961 -1.2405 -0.0210
49377SOL    HW257100   7.888   3.256  11.846  0.7995 -0.3261 -0.7521
49378SOL     OW57101   6.496   5.142   4.916 -0.4447  0.6260  0.1305
49378SOL    HW157102   6.448   5.124   4.997 -1.0348  0.6489 -0.2028
49378SOL    HW257103   6.474   5.069   4.859  2.3041 -0.9591  0.9520
49379SOL     OW57104  10.274   4.809   4.837 -0.1136  0.3905  0.0695
49379SOL    HW157105  10.184   4.779   4.825 -0.5174  2.0667 -1.6113
49379SOL    HW257106  10.321   4.732   4.868 -1.5025 -1.3896 -1.9502
49380SOL     OW57107   5.196   3.811   5.855 -0.6138 -0.1893  0.2570
49380SOL    HW157108   5.278   3.761   5.862 -0.4691 -0.1142 -0.6849
49380SOL    HW257109   5.163   3.790   5.767 -2.8451 -2.0603  1.4498
49381SOL     OW57110   1.571   4.897   0.919 -0.0092 -0.1041  0.1899
49381SOL    HW157111   1.626   4.959   0.871 -0.5364  0.4184  0.2480
49381SOL    HW257112   1.485   4.939   0.922 -0.1852 -0.5010  0.8859
49382SOL     OW57113   1.557   2.238  10.336  0.4409 -1.0163 -0.1332
49382SOL    HW157114   1.519   2.163  10.289  0.0685 -0.2521 -1.0926
49382SOL    HW257115   1.573   2.303  10.267 -0.7174  0.4035  0.8769
49383SOL     OW57116   7.035   3.081   8.927  0.5764  0.1986 -0.3724
49383SOL    HW157117   7.040   3.034   8.844 -1.0275 -0.9049  0.1067
49383SOL    HW257118   6.959   3.138   8.917  0.3083 -0.0253  0.3634
49384SOL     OW57119   8.099   2.099   0.689  0.2955  0.1017  0.6032
49384SOL    HW157120   8.075   2.097   0.781  0.4316 -0.2653  0.6329
49384SOL    HW257121   8.022   2.134   0.644 -0.8993 -2.3759  0.5205
49385SOL     OW57122  10.563   2.148   7.611 -0.5312  0.8877 -0.3605
49385SOL    HW157123  10.634   2.107   7.661 -0.1036  0.8482 -0.9871
49385SOL    HW257124  10.608   2.206   7.549 -1.0542  0.9374 -0.6978
49386SOL     OW57125   9.045   3.125   0.812 -0.6482  0.3507  1.0652
49386SOL    HW157126   9.024   3.032   0.813  2.1933 -0.4197 -0.4655
49386SOL    HW257127   9.091   3.140   0.895  0.6293 -0.1160  0.4594
49387SOL     OW57128   7.425   3.504   5.127 -0.2051 -0.0992 -0.2767
49387SOL    HW157129   7.390   3.566   5.190  2.1348  0.8260  0.2036
49387SOL    HW257130   7.404   3.418   5.163 -0.9663  0.4078  0.5127
49388SOL     OW57131  10.750  11.524   8.812  0.1335  0.1293  0.1357
49388SOL    HW157132  10.787  11.485   8.734  0.1717  0.0144  0.2109
49388SOL    HW257133  10.758  11.456   8.879 -1.4025 -0.4010 -0.1646
49389SOL     OW57134   4.685   9.277  11.955 -0.4588 -0.8897 -0.4661
49389SOL    HW157135   4.752   9.214  11.983  0.3657  0.0658 -0.2497
49389SOL    HW257136   4.657   9.320  12.036  1.6974  1.6552 -0.9477
49390SOL     OW57137   1.726   4.016   1.897  0.0235 -0.2012  0.9084
49390SOL    HW157138   1.739   4.022   1.991  0.9305 -0.4211  0.7987
49390SOL    HW257139   1.803   4.058   1.859 -0.0258 -0.6789  0.2628
49391SOL     OW57140   6.998   0.670   9.814 -0.2325 -0.5757 -0.5990
49391SOL    HW157141   7.041   0.715   9.742 -1.2283 -0.6353 -1.2567
49391SOL    HW257142   7.042   0.703   9.893  2.1496 -1.9175 -1.2811
49392SOL     OW57143  12.537   4.850   0.510  0.1950  0.4851  0.1660
49392SOL    HW157144  12.565   4.882   0.424 -2.1802  2.7696  0.1202
49392SOL    HW257145  12.465   4.791   0.491  0.0463  0.5342  0.5687
49393SOL     OW57146   1.834   6.228  11.868 -0.0391 -0.2557 -0.5696
49393SOL    HW157147   1.810   6.306  11.819  0.1743  0.2859  0.1692
49393SOL    HW257148   1.790   6.238  11.953  2.1643  0.4541  0.5865
49394SOL     OW57149   3.993  10.460  10.339 -0.5660  0.1049  0.0310
49394SOL    HW157150   3.904  10.437  10.368 -0.2670  0.3130  1.1858
49394SOL    HW257151   4.045  10.382  10.359 -0.5231 -0.0937 -0.8405
49395SOL     OW57152   6.665  11.182  11.069  0.8162 -0.0745 -0.6226
49395SOL    HW157153   6.641  11.274  11.061  0.8202 -0.0871 -0.7821
49395SOL    HW257154   6.683  11.170  11.162  0.7424  0.0680 -0.5894
49396SOL     OW57155   9.313   6.973   0.708  0.3806  0.8124  0.1935
49396SOL    HW157156   9.348   7.051   0.750 -0.6755  0.6673  1.4067
49396SOL    HW257157   9.309   6.995   0.615  0.7142  1.9526  0.4398
49397SOL     OW57158  11.622   8.269  12.140 -0.0262 -0.1431  0.2732
49397SOL    HW157159  11.664   8.261  12.226 -0.7893 -0.7346  0.6085
49397SOL    HW257160  11.532   8.241  12.156 -0.1645 -0.2905 -0.7396
49398SOL     OW57161   5.773  11.271  11.055  0.0572 -0.1889  0.1969
49398SOL    HW157162   5.764  11.316  10.971  0.8363 -0.7293 -0.1916
49398SOL    HW257163   5.715  11.196  11.048 -0.5628  0.2563  0.4976
49399SOL     OW57164   9.474   1.268   6.492  0.2283 -0.1379  0.2571
49399SOL    HW157165   9.515   1.348   6.524  2.5277 -0.4344 -1.5871
49399SOL    HW257166   9.397   1.256   6.546  0.6812  2.4569  1.6226
49400SOL     OW57167   4.334   2.896   5.772  0.0777  0.4912  0.3085
49400SOL    HW157168   4.260   2.864   5.822  1.8960 -0.3170  2.6998
49400SOL    HW257169   4.337   2.841   5.694  0.3451 -2.0727  2.0289
49401SOL     OW57170   0.031   0.627  11.346 -0.0878 -0.2024  0.5180
49401SOL    HW157171   0.029   0.628  11.442 -0.4861 -2.2921  0.5627
49401SOL    HW257172   0.119   0.657  11.324 -0.3475  1.3874  1.4721
49402SOL     OW57173   0.971   2.703   0.843 -0.0026 -0.3920 -0.3725
49402SOL    HW157174   1.015   2.635   0.792  0.1498 -0.5762  0.0064
49402SOL    HW257175   0.903   2.656   0.892  0.5601 -0.3809  0.4305
49403SOL     OW57176  12.121   5.176   8.678 -0.2818  0.2141  0.2133
49403SOL    HW157177  12.192   5.115   8.700  1.0296  1.0336 -1.5245
49403SOL    HW257178  12.067   5.128   8.614 -0.2923  0.2261  0.2130
49404SOL     OW57179   3.065   3.240   8.677 -0.0349  0.2182 -0.6085
49404SOL    HW157180   3.027   3.298   8.611  1.2874 -0.6780 -2.2484
49404SOL    HW257181   3.006   3.164   8.678 -1.4744  1.2852  1.1611
49405SOL     OW57182   6.230  10.339   0.759 -0.6995  0.0266  0.7807
49405SOL    HW157183   6.274  10.411   0.713  1.3719  0.2095  2.8645
49405SOL    HW257184   6.167  10.383   0.817 -2.7195 -0.1673 -1.1186
49406SOL     OW57185   0.011   1.743   7.433  0.0159 -0.5076 -0.1281
49406SOL    HW157186  -0.015   1.830   7.465 -1.1177 -1.3460  1.3574
49406SOL    HW257187  -0.044   1.682   7.482  0.6845 -2.0752 -1.2470
49407SOL     OW57188  11.914   1.065   2.674  0.3421  0.0482 -0.6338
49407SOL    HW157189  12.009   1.057   2.674  0.3839  0.2508  0.8584
49407SOL    HW257190  11.892   1.093   2.585  1.5942 -0.7518 -1.2123
49408SOL     OW57191   0.249  12.273   9.603 -0.1030 -0.3617  0.0367
49408SOL    HW157192   0.344  12.282   9.598 -0.0743  0.3678  1.2716
49408SOL    HW257193   0.235  12.200   9.663 -0.3513 -1.2440 -1.0527
49409SOL     OW57194   6.606   5.192   1.298 -0.0651 -0.6061 -0.4255
49409SOL    HW157195   6.636   5.160   1.213  1.3291  2.8161 -1.3698
49409SOL    HW257196   6.511   5.196   1.289  0.0299 -0.6677 -1.6910
49410SOL     OW57197  11.335   1.635   0.585  0.2838  0.3987  0.0376
49410SOL    HW157198  11.322   1.686   0.665  2.6861 -0.0607  0.8211
49410SOL    HW257199  11.339   1.700   0.515  1.4311  1.1646  0.7702
49411SOL     OW57200   0.091   1.114   8.618 -0.1076 -0.0232 -0.0165
49411SOL    HW157201   0.029   1.160   8.674 -0.0332 -0.4119  0.3837
49411SOL    HW257202   0.136   1.184   8.570 -0.5056  0.2840  0.0474
49412SOL     OW57203   8.287   8.308   2.622  0.1193 -0.4956 -0.1223
49412SOL    HW157204   8.227   8.368   2.578 -1.0693 -0.9842  0.7989
49412SOL    HW257205   8.239   8.225   2.626  1.1734 -1.1184 -0.0822
49413SOL     OW57206   8.086   2.492   5.191  0.0798  0.7584  0.2360
49413SOL    HW157207   8.074   2.438   5.114  1.9487 -1.0362  1.1234
49413SOL    HW257208   8.022   2.459   5.254 -1.1822  1.9717 -0.3538
49414SOL     OW57209  10.810   7.564   6.940 -0.1779  0.2864  0.1735
49414SOL    HW157210  10.886   7.620   6.921  0.3339 -0.5301 -0.2836
49414SOL    HW257211  10.745   7.623   6.976  0.2690  1.2168 -0.4991
49415SOL     OW57212   2.198  10.244   2.225  0.4080 -0.5090 -0.0994
49415SOL    HW157213   2.185  10.293   2.144 -0.6412  0.5498  0.6680
49415SOL    HW257214   2.271  10.184   2.206 -0.1446 -0.6435 -1.9568
49416SOL     OW57215   7.399   7.757   2.498 -0.1571  0.0417  0.6274
49416SOL    HW157216   7.492   7.749   2.477  0.1196  0.2228  1.7222
49416SOL    HW257217   7.366   7.824   2.438  0.4021 -0.0874  0.1771
49417SOL     OW57218   1.021   1.543  12.373  0.2274 -0.4658 -0.0883
49417SOL    HW157219   0.969   1.503  12.304  0.5334 -1.9507  0.5035
49417SOL    HW257220   0.966   1.538  12.451  1.0626 -1.6512  0.4446
49418SOL     OW57221   0.607   0.544   1.421  0.3670  0.3020 -0.2943
49418SOL    HW157222   0.593   0.494   1.340 -0.8057  0.3127 -0.1122
49418SOL    HW257223   0.538   0.515   1.479  0.5214  1.1254  0.3161
49419SOL     OW57224   0.420   5.285  11.141 -0.0272 -0.3182 -0.0666
49419SOL    HW157225   0.434   5.205  11.090 -1.4964 -0.5044 -0.2301
49419SOL    HW257226   0.388   5.349  11.077  1.1941  0.4394  0.0518
49420SOL     OW57227   7.208  11.839   7.559  0.6513 -0.4116  0.8989
49420SOL    HW157228   7.212  11.795   7.474  0.3725  0.8682  0.1957
49420SOL    HW257229   7.128  11.806   7.599 -1.8903  2.3688 -1.3747
49421SOL     OW57230   2.653   3.833   1.644  0.6597  0.7953  0.0619
49421SOL    HW157231   2.574   3.884   1.630 -0.4021 -1.2250 -1.7612
49421SOL    HW257232   2.668   3.839   1.739 -1.7704  1.0939  0.4951
49422SOL     OW57233   7.621   3.539   1.368  0.1241 -0.3672  0.4856
49422SOL    HW157234   7.610   3.448   1.398  0.2043 -0.1956  1.0504
49422SOL    HW257235   7.715   3.546   1.349  0.1597 -0.3345  0.6717
49423SOL     OW57236   4.795   6.662   8.610 -0.2593  0.1718  0.0848
49423SOL    HW157237   4.762   6.722   8.543 -0.7539 -2.0659 -1.7947
49423SOL    HW257238   4.883   6.638   8.580 -0.1036 -0.1469  0.7681
49424SOL     OW57239   6.202   7.395   5.309  0.7045 -0.0318  0.3323
49424SOL    HW157240   6.224   7.464   5.246  0.8386  1.0181  1.5091
49424SOL    HW257241   6.162   7.326   5.255  1.3892  0.5611 -0.9933
49425SOL     OW57242   7.577   0.224   6.791 -0.6863 -0.2635 -0.2480
49425SOL    HW157243   7.482   0.236   6.787 -0.5701  0.4568 -3.0649
49425SOL    HW257244   7.612   0.313   6.787  0.1640 -0.4201  2.3558
49426SOL     OW57245   0.185  12.203   0.227  0.5426  0.2783 -0.0569
49426SOL    HW157246   0.263  12.245   0.191  1.1396 -0.3995  0.4207
49426SOL    HW257247   0.174  12.243   0.313  1.1929 -0.6200  0.4555
49427SOL     OW57248  10.490   8.692   1.305 -0.4490  0.1734  0.1042
49427SOL    HW157249  10.573   8.658   1.338 -1.1742 -0.8549  0.9518
49427SOL    HW257250  10.425   8.659   1.366 -1.5307  0.6102 -0.7790
49428SOL     OW57251   2.197   3.043   2.230  0.1996  0.5649 -0.2886
49428SOL    HW157252   2.122   3.050   2.171  0.2084  2.9273 -0.1245
49428SOL    HW257253   2.272   3.027   2.172 -0.0928  0.6639 -0.6948
49429SOL     OW57254   7.085   7.776   4.660  0.2756  0.2198 -0.0834
49429SOL    HW157255   7.023   7.813   4.597  0.3330 -0.6693 -0.6879
49429SOL    HW257256   7.069   7.824   4.741 -2.7700 -1.3830  0.4262
49430SOL     OW57257   3.943   7.394  10.681  0.3850  0.1030  0.0275
49430SOL    HW157258   4.022   7.445  10.696  1.6467 -1.3384 -1.3589
49430SOL    HW257259   3.896   7.442  10.613  2.0018 -0.9382 -1.9225
49431SOL     OW57260   5.066   9.002   7.104  0.1900 -0.3178 -0.1337
49431SOL    HW157261   5.062   8.989   7.199 -1.5912 -1.9266 -0.3759
49431SOL    HW257262   5.031   9.090   7.091  3.0517  1.0815  0.8350
49432SOL     OW57263  11.282   5.114   4.320  0.2620 -0.7424 -0.2380
49432SOL    HW157264  11.252   5.086   4.234 -0.2904 -0.0966 -0.2638
49432SOL    HW257265  11.261   5.041   4.379 -2.6209  0.1670  0.0001
49433SOL     OW57266  12.337   3.094   0.353  0.0606 -0.7599 -0.3821
49433SOL    HW157267  12.362   3.039   0.278 -0.6520 -1.8020  0.1210
49433SOL    HW257268  12.408   3.082   0.416  0.1128 -0.7845 -0.4451
49434SOL     OW57269  10.505   4.792   4.417 -0.4731 -0.1963  0.0567
49434SOL    HW157270  10.455   4.865   4.454  0.9425  0.1003  1.4654
49434SOL    HW257271  10.592   4.800   4.455 -0.0211 -2.1120 -0.4464
49435SOL     OW57272   4.849   6.625   2.124  0.6828 -0.5295 -0.0191
49435SOL    HW157273   4.801   6.694   2.169  2.0035 -0.1395  0.8453
49435SOL    HW257274   4.911   6.672   2.068  0.4317 -1.0204 -0.7233
49436SOL     OW57275  12.572   5.506   8.907 -0.0088 -0.3283 -0.6579
49436SOL    HW157276  12.521   5.510   8.988 -0.3244 -1.3213 -0.7965
49436SOL    HW257277  12.506   5.495   8.838  0.2838  0.1392 -1.0196
49437SOL     OW57278   3.411   1.415   0.702 -0.1644 -0.0645 -0.3135
49437SOL    HW157279   3.366   1.498   0.721 -1.3847 -0.8465  0.3412
49437SOL    HW257280   3.409   1.408   0.607 -0.9339  0.1890 -0.3214
49438SOL     OW57281   9.685   3.770  12.025  0.0421  0.2415  0.1293
49438SOL    HW157282   9.757   3.718  12.061  1.6948  1.0885 -1.7680
49438SOL    HW257283   9.727   3.829  11.962 -2.3144  0.8170 -1.0203
49439SOL     OW57284   8.076   2.565   6.879 -0.0734  0.5489 -0.4732
49439SOL    HW157285   7.997   2.539   6.832  0.4330 -0.0579 -1.0221
49439SOL    HW257286   8.139   2.588   6.809 -0.2017  2.4132 -0.0281
49440SOL     OW57287   0.708  12.561   2.788  0.4755 -0.2950  0.2657
49440SOL    HW157288   0.732  12.609   2.709 -0.5336 -0.0959  0.0594
49440SOL    HW257289   0.775  12.494   2.797  0.6153 -0.3112 -0.7657
49441SOL     OW57290   6.723   8.498  10.975  0.3480 -0.1765  0.2937
49441SOL    HW157291   6.669   8.573  11.002  2.1607  1.3151 -0.0307
49441SOL    HW257292   6.750   8.458  11.057  0.3075  0.2322  0.5142
49442SOL     OW57293  11.515  10.993   7.937 -0.0394 -0.1605  0.0486
49442SOL    HW157294  11.557  10.924   7.886 -0.0375 -1.7532  2.0906
49442SOL    HW257295  11.490  10.951   8.019  0.2088  2.3288  1.5169
49443SOL     OW57296   9.871   4.757   5.233 -0.0477 -0.7604 -0.3564
49443SOL    HW157297   9.897   4.677   5.278 -0.1793  0.4841  2.0894
49443SOL    HW257298   9.899   4.744   5.142  2.7687 -2.3036  0.6271
49444SOL     OW57299   5.028  11.710  12.508 -0.4585 -0.2122  0.1079
49444SOL    HW157300   5.018  11.797  12.469 -0.5409 -0.2734 -0.0087
49444SOL    HW257301   5.090  11.665  12.451  1.2671  0.4853  1.3497
49445SOL     OW57302   9.499   0.142   3.393 -0.0870 -0.5148  0.1575
49445SOL    HW157303   9.442   0.068   3.417 -1.0544  0.2568  0.3293
49445SOL    HW257304   9.454   0.218   3.429  0.8047  0.1815 -0.1766
49446SOL     OW57305   3.853   9.880   6.614 -0.1511  0.5151  0.0244
49446SOL    HW157306   3.925   9.910   6.559 -1.1522 -0.1171 -1.7033
49446SOL    HW257307   3.775   9.921   6.576 -0.7270  1.4313  2.0347
49447SOL     OW57308   2.127   8.628   0.422 -0.0954 -0.0184  0.0453
49447SOL    HW157309   2.100   8.667   0.338 -0.3266  0.2304  0.2354
49447SOL    HW257310   2.121   8.534   0.407  1.0611 -0.0062 -0.6116
49448SOL     OW57311   9.183   4.579  10.510 -0.5862 -0.0816 -0.1110
49448SOL    HW157312   9.198   4.657  10.458 -0.1513  0.4197  0.7405
49448SOL    HW257313   9.088   4.569  10.513 -0.6425  0.4639 -0.1514
49449SOL     OW57314   7.113   3.226   2.937  0.1739  0.6182 -0.2568
49449SOL    HW157315   7.198   3.236   2.981 -0.1423 -0.9231  0.7926
49449SOL    HW257316   7.071   3.153   2.983 -1.6017  1.1483 -0.9590
49450SOL     OW57317   0.704   6.328  10.570 -0.0343  0.1074  0.0123
49450SOL    HW157318   0.797   6.348  10.561 -0.5386  1.8881 -2.4525
49450SOL    HW257319   0.678   6.371  10.651  1.2176 -0.1092  0.5485
49451SOL     OW57320   3.677   0.776  11.624 -0.0630  0.9280 -0.6047
49451SOL    HW157321   3.582   0.770  11.631  0.0005  0.5773  0.0271
49451SOL    HW257322   3.700   0.709  11.559 -0.1618  0.2885  0.0028
49452SOL     OW57323   0.988   9.416   0.287  0.0645 -0.3264 -0.8664
49452SOL    HW157324   1.013   9.336   0.333  0.6696 -0.5143 -1.5119
49452SOL    HW257325   0.915   9.451   0.339 -0.5669 -1.5675 -0.8803
49453SOL     OW57326  11.257  12.242   7.946  0.3610  0.8201  0.2490
49453SOL    HW157327  11.221  12.168   7.896  0.9359  0.7434 -0.0700
49453SOL    HW257328  11.352  12.229   7.940  0.4414  0.7221  1.4983
49454SOL     OW57329   5.739   8.419  11.235 -0.1138 -0.0832 -0.0219
49454SOL    HW157330   5.809   8.480  11.211 -1.8423  1.3499 -1.7429
49454SOL    HW257331   5.785   8.338  11.258  2.0672  0.2241 -2.7950
49455SOL     OW57332   1.325   5.044   9.596 -0.5707  0.1996 -0.1326
49455SOL    HW157333   1.347   5.116   9.656  0.5709 -1.5790  1.7043
49455SOL    HW257334   1.276   4.982   9.650 -1.7889 -0.3228 -1.7571
49456SOL     OW57335  12.184   4.335   7.901  1.1985  0.1466 -0.1397
49456SOL    HW157336  12.251   4.280   7.942 -0.1380  0.2988  2.5085
49456SOL    HW257337  12.231   4.385   7.834  2.7870 -2.9702 -1.5927
49457SOL     OW57338   4.523   1.396  12.546  0.7267  0.1391 -0.1448
49457SOL    HW157339   4.560   1.483  12.530 -0.2001  0.5581 -0.0579
49457SOL    HW257340   4.482   1.402  12.632 -1.5442  0.4051 -1.1619
49458SOL     OW57341   9.842   9.347   2.089  0.0565  0.3370 -0.1700
49458SOL    HW157342   9.897   9.274   2.118  0.3105  0.4522 -0.3602
49458SOL    HW257343   9.902   9.422   2.084 -0.3680  0.7884  0.9221
49459SOL     OW57344   4.397   4.304   5.047 -0.4108 -0.0259 -0.2067
49459SOL    HW157345   4.427   4.281   5.135 -0.8920 -2.9299 -0.6895
49459SOL    HW257346   4.466   4.272   4.989 -1.4059 -0.8044 -0.9987
49460SOL     OW57347  12.179   9.241   4.196 -0.6197  0.0447  0.0158
49460SOL    HW157348  12.181   9.262   4.289  2.4608 -0.2166  0.1127
49460SOL    HW257349  12.214   9.319   4.153  0.1005 -0.6524 -0.6891
49461SOL     OW57350   9.485  11.101  10.590  0.0631 -0.2309  0.0477
49461SOL    HW157351   9.441  11.187  10.587 -1.0111 -0.7987 -1.8475
49461SOL    HW257352   9.436  11.053  10.657  1.2662  0.8689  1.8256
49462SOL     OW57353   0.504  12.224  10.346  0.1769 -0.0015  1.2761
49462SOL    HW157354   0.498  12.139  10.302 -1.4326  0.6042  0.2550
49462SOL    HW257355   0.452  12.283  10.293  1.0745  1.6069  2.1007
49463SOL     OW57356   5.856   4.041   1.369 -0.1390 -0.2486 -0.2810
49463SOL    HW157357   5.859   4.128   1.408  0.8383 -0.2540 -0.3207
49463SOL    HW257358   5.805   3.989   1.431  0.5011  0.0003  0.4738
49464SOL     OW57359  12.595  12.522   9.657  0.6484  0.1704  0.1737
49464SOL    HW157360  12.608  12.555   9.568  0.7553 -0.1973  0.0500
49464SOL    HW257361  12.670  12.464   9.672 -0.9924 -2.3839 -0.7317
49465SOL     OW57362  11.778   9.326   0.817 -0.1319  0.1599  0.1635
49465SOL    HW157363  11.873   9.316   0.807  0.1508  2.1608  0.4254
49465SOL    HW257364  11.744   9.318   0.728  0.1219 -1.5883  0.1782
49466SOL     OW57365   7.244   7.096   0.338  0.1786 -0.5470 -0.6677
49466SOL    HW157366   7.224   7.144   0.419  0.1963  0.6093 -1.3158
49466SOL    HW257367   7.269   7.009   0.367 -1.6682 -0.7689  0.4710
49467SOL     OW57368   1.904   6.654  12.555 -0.1609 -0.5607  0.3188
49467SOL    HW157369   1.977   6.636  12.615  0.7134  2.6877  0.4300
49467SOL    HW257370   1.886   6.747  12.566 -4.6062 -1.2065  0.4697
49468SOL     OW57371  10.019   9.660   6.852 -0.4948  0.5154 -0.0839
49468SOL    HW157372  10.046   9.636   6.763 -0.0159 -1.4047  0.5160
49468SOL    HW257373  10.098   9.646   6.905 -0.2192  3.4144  0.4142
49469SOL     OW57374   9.617   2.872   8.118  0.7989 -0.1477 -0.2691
49469SOL    HW157375   9.609   2.805   8.050 -0.4400 -0.6253  0.3199
49469SOL    HW257376   9.652   2.948   8.073  1.7305 -1.0094 -1.0630
49470SOL     OW57377   4.284   2.931  11.272 -0.4329  0.1683 -0.0757
49470SOL    HW157378   4.324   3.015  11.249  2.1876 -0.4273  1.8413
49470SOL    HW257379   4.267   2.888  11.188  4.3654 -0.0273 -1.2387
49471SOL     OW57380  10.929   6.904  11.502  0.4895  0.3803  0.0062
49471SOL    HW157381  10.923   6.907  11.597 -0.3042 -0.9271  0.0252
49471SOL    HW257382  11.014   6.865  11.484 -0.0937 -1.0695  0.2474
49472SOL     OW57383  12.355   1.438   7.203  0.5873  0.3134 -0.1632
49472SOL    HW157384  12.450   1.439   7.201  0.6843 -1.7941  0.3947
49472SOL    HW257385  12.329   1.445   7.111  1.3258 -0.0241 -0.4025
49473SOL     OW57386   0.777   8.375   4.258 -0.3611  0.1844  0.2898
49473SOL    HW157387   0.687   8.409   4.256 -0.6914 -0.6085  1.0906
49473SOL    HW257388   0.768   8.285   4.287  0.4399 -0.8760 -2.4132
49474SOL     OW57389  10.042   9.636  11.048 -0.0884  0.0203 -0.0099
49474SOL    HW157390  10.120   9.669  11.093  0.4681 -1.2325  0.0060
49474SOL    HW257391  10.019   9.705  10.986  0.2174  0.9914  0.9273
49475SOL     OW57392  11.965   4.518   5.135  0.3554 -0.2133 -0.1236
49475SOL    HW157393  11.901   4.527   5.205  0.1005  3.8689 -0.5922
49475SOL    HW257394  12.037   4.467   5.172 -1.1531 -0.9319  1.9474
49476SOL     OW57395   3.353   7.027  10.804  0.2347 -0.0595 -0.0980
49476SOL    HW157396   3.341   6.958  10.869  0.3033  0.6213  0.6511
49476SOL    HW257397   3.348   6.982  10.720  1.9681 -1.2661  0.3857
49477SOL     OW57398   1.409   1.724   1.587 -0.4872 -0.0146 -0.3861
49477SOL    HW157399   1.495   1.738   1.546 -0.6533 -1.5214 -1.3137
49477SOL    HW257400   1.408   1.785   1.661  1.4750 -0.1361 -0.2040
49478SOL     OW57401   4.003   3.104   3.014  0.1074 -0.2395  0.2531
49478SOL    HW157402   4.028   3.141   3.099 -0.0846  0.5732 -0.0365
49478SOL    HW257403   4.048   3.019   3.012  1.1447  0.2695  0.6437
49479SOL     OW57404   8.977   4.836   1.765 -0.2785  0.1001  0.6770
49479SOL    HW157405   8.889   4.846   1.727 -1.2122  0.1064  2.6766
49479SOL    HW257406   8.990   4.918   1.814  1.0470  0.2815  0.0413
49480SOL     OW57407   3.709   1.821   3.957  0.2822 -0.5335 -0.1260
49480SOL    HW157408   3.796   1.844   3.924 -0.0633  1.4152  0.2105
49480SOL    HW257409   3.649   1.879   3.911 -0.5602 -0.0962  1.4455
49481SOL     OW57410   3.078  11.283   2.572 -0.6576 -0.6596  0.0412
49481SOL    HW157411   3.073  11.193   2.539 -1.4549 -0.8173  0.5657
49481SOL    HW257412   3.172  11.301   2.577 -0.4956 -1.2931 -0.5164
49482SOL     OW57413   9.275   0.427   0.789 -0.0005 -0.3463  0.0135
49482SOL    HW157414   9.246   0.506   0.835  0.5976 -0.0185 -0.1652
49482SOL    HW257415   9.363   0.448   0.758  0.6150 -1.4554  0.9007
49483SOL     OW57416   0.715   8.899   2.906  0.1259 -0.2347  0.3584
49483SOL    HW157417   0.629   8.875   2.870 -0.5249  1.1548  0.9384
49483SOL    HW257418   0.731   8.833   2.974 -0.4333 -0.5517  0.1913
49484SOL     OW57419   7.029  10.558  12.534 -0.1987 -0.5360 -0.2924
49484SOL    HW157420   7.041  10.471  12.496 -1.6036 -0.7191 -0.3768
49484SOL    HW257421   7.107  10.607  12.508 -0.1002 -1.3129 -1.5649
49485SOL     OW57422   6.671   4.191  11.836 -0.2283 -0.0759  0.1764
49485SOL    HW157423   6.643   4.175  11.745 -0.7766 -0.3028  0.3824
49485SOL    HW257424   6.592   4.177  11.888 -0.4029  1.8997  0.5185
49486SOL     OW57425   3.087   4.297   0.850  0.1612 -0.2425 -0.3342
49486SOL    HW157426   3.039   4.231   0.900 -0.0735  1.3826  1.7337
49486SOL    HW257427   3.031   4.375   0.854  2.7971  1.7371  2.1545
49487SOL     OW57428   4.849  10.861   6.410 -0.0302  0.0696  0.7335
49487SOL    HW157429   4.931  10.867   6.360  0.1737 -1.4631  0.8428
49487SOL    HW257430   4.836  10.767   6.423 -1.1707  0.3539  1.7775
49488SOL     OW57431   9.800  11.581  10.105 -0.7333  0.3569  0.3063
49488SOL    HW157432   9.836  11.663  10.072 -2.1563  0.8894 -0.0045
49488SOL    HW257433   9.876  11.525  10.118  0.0497  0.5972 -2.5617
49489SOL     OW57434  10.218   5.612   3.735  0.3833  0.7114 -0.4123
49489SOL    HW157435  10.223   5.520   3.762  0.0885 -0.0238 -2.6815
49489SOL    HW257436  10.282   5.656   3.791  1.3894 -1.0890 -0.0519
49490SOL     OW57437   6.711  10.655   8.130 -0.4443  0.1811 -0.3524
49490SOL    HW157438   6.804  10.676   8.129 -0.5043  0.4315 -1.4850
49490SOL    HW257439   6.685  10.654   8.038 -1.5215 -0.0638 -0.0616
49491SOL     OW57440   3.417   7.363   6.892  0.2448 -0.6975  0.1319
49491SOL    HW157441   3.404   7.269   6.881  0.8834 -0.7172 -0.5243
49491SOL    HW257442   3.502   7.370   6.936  0.0552 -0.4348  0.4636
49492SOL     OW57443   9.481   4.389   9.124  0.1758 -0.1167 -0.0237
49492SOL    HW157444   9.466   4.430   9.039  1.2074 -0.4179 -0.3633
49492SOL    HW257445   9.418   4.317   9.127  1.2467 -1.1648 -1.2840
49493SOL     OW57446   2.017   7.159   4.671 -0.1165 -0.3428  0.3375
49493SOL    HW157447   1.934   7.145   4.715 -0.1361 -0.0177  0.4100
49493SOL    HW257448   2.082   7.116   4.726 -0.0950  0.3556  0.8785
49494SOL     OW57449   1.157   5.593   6.285 -0.4561  0.1765  0.3572
49494SOL    HW157450   1.077   5.553   6.248  0.5520 -1.2746 -0.3634
49494SOL    HW257451   1.168   5.674   6.235 -0.2411 -0.7570 -1.1910
49495SOL     OW57452   7.911   6.266  11.358 -0.0189 -0.2539 -0.4974
49495SOL    HW157453   7.916   6.217  11.276  0.3811  0.3602 -0.8443
49495SOL    HW257454   7.868   6.348  11.335  1.0155  0.3539 -0.3087
49496SOL     OW57455   9.859   8.102   7.816 -0.6622 -0.1788 -0.5176
49496SOL    HW157456   9.896   8.189   7.827  1.3736 -1.1515  0.9463
49496SOL    HW257457   9.908   8.065   7.742  1.7441 -1.5857  1.6212
49497SOL     OW57458   9.969   9.212  12.420  0.1140 -0.1650 -0.0237
49497SOL    HW157459   9.981   9.305  12.441 -0.2025 -0.6292  2.4738
49497SOL    HW257460   9.913   9.179  12.489 -0.5065 -2.0586 -1.3668
49498SOL     OW57461   9.641   9.049   4.459 -0.6478  0.7543 -0.0507
49498SOL    HW157462   9.595   8.974   4.423 -0.2499  0.3938  0.1797
49498SOL    HW257463   9.723   9.053   4.410  0.3169 -0.2980  1.3976
49499SOL     OW57464   0.076  12.348   3.658  0.2292  0.1586  0.6513
49499SOL    HW157465   0.096  12.412   3.727  0.1819 -0.9879  1.7792
49499SOL    HW257466   0.029  12.397   3.592 -1.9072  0.8633  2.5676
49500SOL     OW57467   5.976   4.110  12.381 -0.1481 -0.1212 -0.0688
49500SOL    HW157468   5.911   4.175  12.408  0.9548  0.6210  0.9377
49500SOL    HW257469   6.058   4.141  12.422  0.7026 -1.3388 -0.8108
49501SOL     OW57470   8.578   7.945  10.910  0.1118  0.6175  0.1928
49501SOL    HW157471   8.598   7.973  10.999  1.9204 -0.7533  0.2712
49501SOL    HW257472   8.636   7.998  10.855  2.4295 -1.6733  0.2375
49502SOL     OW57473   9.870   4.342  12.031  0.3259 -0.8532  0.3601
49502SOL    HW157474   9.902   4.275  11.971 -0.2251 -1.0622  0.2977
49502SOL    HW257475   9.918   4.326  12.112 -0.7903 -2.1885  0.7780
49503SOL     OW57476   4.710   7.254   5.904 -0.5965  0.0210  0.0832
49503SOL    HW157477   4.638   7.316   5.917  0.1378  1.1113 -0.7750
49503SOL    HW257478   4.787   7.301   5.937  0.0948 -0.1072 -1.2787
49504SOL     OW57479   1.713   0.070   3.821  0.2279  0.6849  0.4382
49504SOL    HW157480   1.804   0.053   3.797 -0.1576 -0.9893  0.0269
49504SOL    HW257481   1.662   0.039   3.746 -0.6932  1.4198  0.7425
49505SOL     OW57482  10.553   7.895   0.244 -0.2716 -0.2583  0.0163
49505SOL    HW157483  10.575   7.930   0.157  0.5726  0.4276  0.4960
49505SOL    HW257484  10.510   7.811   0.225 -1.6465  0.6475 -1.1251
49506SOL     OW57485  11.569   5.483   9.490  0.0578 -0.2898  0.4133
49506SOL    HW157486  11.634   5.423   9.528  0.4155  0.2618  0.6947
49506SOL    HW257487  11.486   5.437   9.498  0.4671 -1.1870 -0.3335
49507SOL     OW57488  10.890   4.526   4.980  0.1920  0.2350 -0.2390
49507SOL    HW157489  10.801   4.520   4.947 -0.1919  1.0801  0.5990
49507SOL    HW257490  10.939   4.460   4.931 -0.7431  0.2255 -1.1786
49508SOL     OW57491   3.719   5.196   5.818  0.2128  0.2268  0.3574
49508SOL    HW157492   3.779   5.137   5.772  2.8976  1.7536  1.6812
49508SOL    HW257493   3.640   5.197   5.764  0.8871 -2.7683 -0.8798
49509SOL     OW57494  12.440   7.435  11.269  0.1017 -0.4152 -0.4368
49509SOL    HW157495  12.411   7.348  11.242  0.1001 -0.8123  0.8026
49509SOL    HW257496  12.437   7.433  11.365 -1.2338  1.3844 -0.3764
49510SOL     OW57497   2.771  10.180   0.598 -0.2756 -0.1380 -0.5694
49510SOL    HW157498   2.836  10.172   0.668 -1.7175  1.0547  0.9808
49510SOL    HW257499   2.807  10.247   0.540  1.0941 -1.3702 -1.1859
49511SOL     OW57500   2.636  10.497   0.284 -0.0794 -0.1380  0.1875
49511SOL    HW157501   2.552  10.459   0.259 -1.0058  3.0525 -2.2174
49511SOL    HW257502   2.613  10.579   0.328  1.7393  0.6357 -0.2137
49512SOL     OW57503   1.213   9.570   4.908  0.1112 -0.6289 -0.1618
49512SOL    HW157504   1.261   9.639   4.953  0.7387 -0.3691 -1.2162
49512SOL    HW257505   1.136   9.554   4.964 -0.5461  1.5527 -0.3653
49513SOL     OW57506   1.167   3.526   3.837 -0.0009 -0.4763 -0.1351
49513SOL    HW157507   1.219   3.494   3.763  0.8405 -0.0531  0.2593
49513SOL    HW257508   1.218   3.502   3.915 -0.6636 -0.5322  0.2928
49514SOL     OW57509   5.536  11.993   9.491 -0.2523  0.4298  0.0555
49514SOL    HW157510   5.493  11.971   9.409 -0.0801  0.7246 -0.1146
49514SOL    HW257511   5.612  12.045   9.466  0.4093 -0.3861  0.3317
49515SOL     OW57512   7.155  12.552  12.248  0.3398  0.9752 -0.0746
49515SOL    HW157513   7.110  12.558  12.164 -0.2766  0.5910  0.2220
49515SOL    HW257514   7.233  12.607  12.237 -0.2391  1.7205 -0.5689
49516SOL     OW57515  11.139  10.884   3.688 -0.1002 -0.2272 -0.3572
49516SOL    HW157516  11.049  10.862   3.710 -0.8196  2.2061 -0.5945
49516SOL    HW257517  11.185  10.883   3.772 -0.6791 -0.0971 -0.0358
49517SOL     OW57518   8.740   3.075   3.224  0.5540  0.4420  0.0479
49517SOL    HW157519   8.803   3.095   3.155 -0.4108  2.0964 -0.4001
49517SOL    HW257520   8.667   3.033   3.180  0.7184 -0.1890  0.3588
49518SOL     OW57521  12.001   4.728   4.937  0.0435 -0.2019  0.1395
49518SOL    HW157522  11.942   4.802   4.947 -0.0033  0.0553 -1.6534
49518SOL    HW257523  11.991   4.678   5.018  0.2026  1.8113  1.4589
49519SOL     OW57524   0.315  10.115   3.674  0.5271  0.2442  0.0403
49519SOL    HW157525   0.295  10.021   3.673 -1.3384  0.5711 -1.9903
49519SOL    HW257526   0.317  10.140   3.581  3.9088  1.7099  0.3870
49520SOL     OW57527   9.628   0.897   6.081  0.6190  0.0155  0.0547
49520SOL    HW157528   9.564   0.831   6.107  0.8878 -0.2770 -0.0206
49520SOL    HW257529   9.697   0.891   6.147  0.0402  1.1201  0.7990
49521SOL     OW57530  10.112   2.655  11.172 -0.4867 -0.2550 -0.1711
49521SOL    HW157531  10.100   2.746  11.199 -1.8123 -0.5299  0.2687
49521SOL    HW257532  10.180   2.621  11.230 -1.5592 -0.1489  1.2041
49522SOL     OW57533  10.737   6.784  10.007  0.7370 -0.0946 -0.0046
49522SOL    HW157534  10.780   6.869  10.013  0.2766  0.1743 -0.4140
49522SOL    HW257535  10.787   6.728  10.065  1.1167  0.4280  0.1839
49523SOL     OW57536   8.077   1.612   0.422 -0.3841 -0.2893 -0.1063
49523SOL    HW157537   8.068   1.517   0.429 -0.6235 -0.2282  0.4887
49523SOL    HW257538   8.009   1.647   0.479 -0.1792  0.2400 -0.1801
49524SOL     OW57539   7.726   6.184  12.177  0.3468 -0.2238  0.3404
49524SOL    HW157540   7.748   6.172  12.085 -0.8042  3.2806 -0.5705
49524SOL    HW257541   7.725   6.279  12.189  0.2524 -0.5236  3.9637
49525SOL     OW57542   1.179  10.837  11.421  0.2801 -1.1787  0.2401
49525SOL    HW157543   1.212  10.866  11.506  1.8414 -0.5254 -0.5557
49525SOL    HW257544   1.224  10.754  11.404 -0.2733 -1.4743  0.1884
49526SOL     OW57545   8.099   2.445  11.382  0.6826 -0.2024  0.3924
49526SOL    HW157546   8.014   2.489  11.374  1.6171  1.5285 -0.7377
49526SOL    HW257547   8.144   2.494  11.451  1.7769  0.7698 -0.9478
49527SOL     OW57548  11.946   5.186   2.456  0.2761  0.6884  0.3862
49527SOL    HW157549  11.959   5.106   2.404  1.6008  0.5538  0.8925
49527SOL    HW257550  11.866   5.168   2.506  0.2698 -0.1148  0.1136
49528SOL     OW57551   1.601   8.658   9.860  0.1939  0.2470  0.0644
49528SOL    HW157552   1.690   8.693   9.860  0.0266  0.6702 -0.2026
49528SOL    HW257553   1.546   8.730   9.890  0.1867 -0.6755  2.4943
49529SOL     OW57554   6.924   4.575   6.534 -0.2218 -0.1355 -0.1094
49529SOL    HW157555   6.941   4.645   6.597 -2.0529  2.1782 -2.0229
49529SOL    HW257556   6.949   4.612   6.450 -1.3219 -1.7781 -1.2080
49530SOL     OW57557  10.929   6.360   9.745 -0.0965 -0.2262 -0.1371
49530SOL    HW157558  11.008   6.307   9.745 -0.6863 -1.1326  0.0086
49530SOL    HW257559  10.924   6.396   9.656  1.0659  0.7673  0.1757
49531SOL     OW57560   0.470   0.068  10.506  0.5776  0.1706 -0.1244
49531SOL    HW157561   0.558   0.054  10.472  0.7124  1.5467 -0.3776
49531SOL    HW257562   0.443   0.152  10.469 -0.5174  0.1570  0.6133
49532SOL     OW57563   1.765   9.942   2.053 -0.1195  0.5305 -0.4188
49532SOL    HW157564   1.736   9.949   1.962  1.3921  0.0377 -0.9670
49532SOL    HW257565   1.843   9.998   2.058  1.4785 -1.5753 -0.2000
49533SOL     OW57566   5.788   3.424   4.937  0.5132 -0.2474 -0.9061
49533SOL    HW157567   5.812   3.367   4.864  0.6354 -1.4070  0.0067
49533SOL    HW257568   5.694   3.413   4.946  0.8849 -2.4871  0.9836
49534SOL     OW57569   6.403   2.432   3.582  0.3850 -0.4126  0.0811
49534SOL    HW157570   6.454   2.473   3.652  0.2718  0.6605 -0.4443
49534SOL    HW257571   6.429   2.480   3.503 -0.2000 -0.9735 -0.4576
49535SOL     OW57572   9.219   2.172   3.612 -0.1964  0.2210 -0.4530
49535SOL    HW157573   9.166   2.097   3.588 -1.4052  1.6413 -2.4870
49535SOL    HW257574   9.158   2.231   3.656  0.5912  0.3416  0.5216
49536SOL     OW57575   8.109   5.633   1.258 -0.3516 -0.7327  0.8032
49536SOL    HW157576   8.162   5.664   1.331 -1.4630  1.4642  0.7594
49536SOL    HW257577   8.034   5.692   1.256  1.0648  1.3991 -3.9013
49537SOL     OW57578  10.119  11.063   3.230  0.5884 -0.3020  0.1351
49537SOL    HW157579  10.091  11.095   3.316  0.9578  0.2720  0.0458
49537SOL    HW257580  10.081  11.125   3.168  3.4966  1.6362  0.0879
49538SOL     OW57581   3.418   3.698   0.311 -0.2669  0.4788 -0.4413
49538SOL    HW157582   3.363   3.626   0.280 -1.3921  1.4436 -0.7470
49538SOL    HW257583   3.471   3.659   0.381 -1.0032 -0.5910 -0.4496
49539SOL     OW57584  10.434   9.712   5.910 -0.3869 -0.0945  0.3672
49539SOL    HW157585  10.469   9.793   5.945 -1.7238 -0.1364  1.9274
49539SOL    HW257586  10.511   9.659   5.888  0.4892  0.7810  1.2620
49540SOL     OW57587   3.272   6.967   1.534  0.0749  0.7652 -0.6077
49540SOL    HW157588   3.208   6.953   1.464  1.2617 -1.4633 -1.3571
49540SOL    HW257589   3.240   7.044   1.581 -1.7066  1.2915 -2.5278
49541SOL     OW57590   6.557   3.342   0.019  0.1433  0.0138 -0.5728
49541SOL    HW157591   6.539   3.256   0.055  0.0921  0.7144  1.1867
49541SOL    HW257592   6.471   3.385   0.017  0.4527  0.7107  0.5049
49542SOL     OW57593   6.151  11.903   4.519 -0.0265  0.5764  0.6174
49542SOL    HW157594   6.122  11.851   4.594 -0.0686  1.3181  1.1170
49542SOL    HW257595   6.177  11.837   4.454 -1.2212 -0.0947  0.7804
49543SOL     OW57596   7.153   2.982  10.363  0.3334 -0.1754 -0.5633
49543SOL    HW157597   7.165   2.995  10.269  1.4140 -3.3578 -1.0106
49543SOL    HW257598   7.123   3.066  10.396 -0.8890  0.8352 -3.8737
49544SOL     OW57599   1.044  10.467   6.017  0.4205 -0.0678  0.5562
49544SOL    HW157600   0.949  10.466   6.026  0.4542  1.3024  1.3606
49544SOL    HW257601   1.059  10.480   5.923 -0.1140 -2.7389  0.0281
49545SOL     OW57602  10.550   4.409  10.406 -0.0123  0.8267  0.8642
49545SOL    HW157603  10.483   4.362  10.456  0.0983 -1.7114 -1.1651
49545SOL    HW257604  10.505   4.439  10.327  1.3194 -1.9712 -1.1258
49546SOL     OW57605   4.805   8.708   0.963  0.0622 -0.0957  0.0169
49546SOL    HW157606   4.873   8.774   0.949  1.0841 -0.8470  1.2184
49546SOL    HW257607   4.723   8.753   0.941  0.8498  1.1331 -0.5229
49547SOL     OW57608   3.557  11.304   5.976  0.5932 -0.1977  0.0606
49547SOL    HW157609   3.578  11.241   6.044 -1.1269 -3.1312 -1.9250
49547SOL    HW257610   3.494  11.363   6.017 -1.2981 -2.5707  0.7999
49548SOL     OW57611   5.670   6.476   9.869 -0.2778  0.0996  0.3566
49548SOL    HW157612   5.735   6.441   9.930 -0.5060 -1.7058 -0.3650
49548SOL    HW257613   5.722   6.523   9.803 -0.0673  2.5983  2.1518
49549SOL     OW57614   6.054   4.765   3.672 -0.2276  0.3675 -0.6354
49549SOL    HW157615   5.968   4.794   3.642 -0.9660 -0.5595  0.4668
49549SOL    HW257616   6.078   4.693   3.614 -0.1434  0.7105 -1.0222
49550SOL     OW57617   6.712   7.754   2.879  0.2242  0.6471 -0.1699
49550SOL    HW157618   6.658   7.780   2.953  0.3457 -1.1084  0.5737
49550SOL    HW257619   6.669   7.792   2.803 -1.0147  0.8099  0.5953
49551SOL     OW57620   1.305   9.813   0.880  0.4002  0.1923 -0.2094
49551SOL    HW157621   1.319   9.904   0.853 -2.5226  0.6669 -0.4534
49551SOL    HW257622   1.285   9.766   0.799  2.2565 -0.8084 -0.1366
49552SOL     OW57623  11.016   4.140   0.816 -0.0898 -0.1388  0.0947
49552SOL    HW157624  11.000   4.209   0.752 -2.4389  0.0716  0.8112
49552SOL    HW257625  11.031   4.061   0.763 -1.5195  0.1222 -0.7588
49553SOL     OW57626  11.852  12.264   3.742 -0.1217 -0.3587  0.4452
49553SOL    HW157627  11.773  12.217   3.770  0.8090 -2.3513 -0.1056
49553SOL    HW257628  11.902  12.199   3.694  1.1813  1.2900 -0.5089
49554SOL     OW57629   6.325   6.185   6.044  0.7843 -0.3867  0.2788
49554SOL    HW157630   6.418   6.207   6.040  0.5219  0.7396  0.0855
49554SOL    HW257631   6.286   6.253   6.098  0.1379 -1.1241  0.7660
49555SOL     OW57632   7.812  11.217   3.878  0.4406 -0.1322  0.1793
49555SOL    HW157633   7.759  11.287   3.916  0.2683 -0.9404  1.4721
49555SOL    HW257634   7.896  11.223   3.924  0.8060 -0.0892 -0.4850
49556SOL     OW57635  12.212  11.424   7.929 -0.4094  0.2811  0.2820
49556SOL    HW157636  12.242  11.397   7.842  1.3773 -0.1499  0.9933
49556SOL    HW257637  12.201  11.519   7.922  1.9477  0.5980  0.1749
49557SOL     OW57638   4.305   6.743   0.223 -0.2694 -0.2985 -0.4932
49557SOL    HW157639   4.378   6.681   0.231  0.8276  0.9788 -0.2461
49557SOL    HW257640   4.227   6.692   0.246  0.2857 -2.1711 -2.3709
49558SOL     OW57641   4.218  10.449   9.305  0.0224 -0.0631  0.2269
49558SOL    HW157642   4.292  10.392   9.327  0.7807  0.0782 -1.7261
49558SOL    HW257643   4.143  10.407   9.347  0.7676 -1.7920 -0.0525
49559SOL     OW57644  10.084  10.961   8.999  0.0085 -0.0235 -0.3486
49559SOL    HW157645  10.082  10.973   9.094 -0.0292 -1.2402 -0.1790
49559SOL    HW257646  10.094  11.050   8.964  1.6812  0.3268  0.8452
49560SOL     OW57647   9.406   3.615   5.418  0.0998 -0.0059  0.1391
49560SOL    HW157648   9.483   3.642   5.369  0.7489  1.5628  1.8839
49560SOL    HW257649   9.418   3.521   5.432 -0.0246 -0.4759 -2.4186
49561SOL     OW57650   9.513   3.137   1.131  0.2895  0.4547  0.6979
49561SOL    HW157651   9.586   3.194   1.152  0.7808  0.9778 -2.1335
49561SOL    HW257652   9.457   3.188   1.073 -1.4463 -0.5365  1.4092
49562SOL     OW57653   9.852   8.508   1.233  0.1178 -0.2476  0.6370
49562SOL    HW157654   9.756   8.506   1.231  0.0743 -0.2499  1.7403
49562SOL    HW257655   9.879   8.434   1.179 -0.4820  0.1990 -0.2947
49563SOL     OW57656   6.694  11.384   3.630  0.1712 -0.4592 -0.0567
49563SOL    HW157657   6.660  11.453   3.573  0.0396 -0.8686 -0.4730
49563SOL    HW257658   6.619  11.359   3.684  0.3668  0.1272  0.5063
49564SOL     OW57659   3.419   8.310  10.565 -0.3047  0.0007 -0.2918
49564SOL    HW157660   3.353   8.242  10.578  1.3297 -1.6636 -0.0655
49564SOL    HW257661   3.491   8.264  10.521  1.2366  1.3680  0.6780
49565SOL     OW57662   7.633  10.810   8.179  0.3027  0.2761 -0.3372
49565SOL    HW157663   7.599  10.868   8.111  1.4841  1.3695 -0.0211
49565SOL    HW257664   7.580  10.730   8.171 -1.7924  1.6084 -0.3694
49566SOL     OW57665  11.378   3.491   2.823  0.5299 -0.1947 -0.1526
49566SOL    HW157666  11.387   3.582   2.851  0.3049  0.1847 -1.2393
49566SOL    HW257667  11.329   3.449   2.893  1.9716  0.1230  1.1036
49567SOL     OW57668   2.125   0.838   6.290  0.5215 -0.8998 -0.1707
49567SOL    HW157669   2.096   0.905   6.227 -2.9750 -1.6454  0.4183
49567SOL    HW257670   2.207   0.872   6.326  1.9980  0.1918 -4.0496
49568SOL     OW57671  10.267   7.402   3.550  0.4726  0.4449  0.1634
49568SOL    HW157672  10.209   7.329   3.529  0.3263  0.8740 -1.0087
49568SOL    HW257673  10.334   7.401   3.481  2.2932 -0.4395  1.8464
49569SOL     OW57674   3.869   0.883  11.762 -0.2236 -0.3867  0.2359
49569SOL    HW157675   3.801   0.854  11.702 -0.0464 -2.6617  1.0564
49569SOL    HW257676   3.899   0.804  11.806  1.4133  0.8512  1.5198
49570SOL     OW57677   3.425   7.922  10.386 -0.1867  0.3911 -0.5605
49570SOL    HW157678   3.393   7.857  10.449  0.2859  0.0970 -0.6159
49570SOL    HW257679   3.353   7.934  10.325 -0.5029  0.3788 -0.1970
49571SOL     OW57680   8.068   9.917   1.328  0.5721 -0.4785  0.6857
49571SOL    HW157681   8.157   9.951   1.314  0.3923  0.9011  2.4719
49571SOL    HW257682   8.017   9.993   1.355 -1.0429 -1.3569  0.2757
49572SOL     OW57683   9.743   0.115   3.633 -0.2352 -0.5944  0.0548
49572SOL    HW157684   9.705   0.071   3.557  1.0276 -1.0792 -0.3368
49572SOL    HW257685   9.817   0.059   3.657  0.0304  0.1375  0.9665
49573SOL     OW57686   8.131   1.846   6.238  0.0143  0.3977 -0.1592
49573SOL    HW157687   8.169   1.764   6.207 -1.8358 -1.6171  2.4557
49573SOL    HW257688   8.073   1.874   6.167 -1.6672 -2.3084  0.0285
49574SOL     OW57689   1.153   8.454   5.713 -0.0137  0.4111  0.0314
49574SOL    HW157690   1.199   8.429   5.633 -0.9408  1.3643 -0.8310
49574SOL    HW257691   1.117   8.372   5.747  1.2732 -0.1632  0.0712
49575SOL     OW57692  12.358   3.370   3.001  0.0737 -0.5893 -0.5682
49575SOL    HW157693  12.412   3.325   3.065 -1.6913 -1.3470  0.4641
49575SOL    HW257694  12.320   3.300   2.948  1.6346  0.0157 -2.6555
49576SOL     OW57695  10.949   1.147   4.915 -0.0692 -0.3155 -0.2266
49576SOL    HW157696  10.926   1.118   4.827  0.8789  0.6788 -0.8400
49576SOL    HW257697  11.026   1.203   4.902 -1.5686  2.1947  0.8782
49577SOL     OW57698  10.206   9.198   8.456  0.1991  0.1912 -0.2786
49577SOL    HW157699  10.282   9.205   8.515 -1.0766  1.1210  1.3376
49577SOL    HW257700  10.242   9.159   8.376  2.5584  1.3793  0.0963
49578SOL     OW57701   0.859   4.514   7.065  0.4501  0.4096 -0.2151
49578SOL    HW157702   0.877   4.469   6.982 -2.6857  0.6203 -1.1466
49578SOL    HW257703   0.783   4.468   7.101  1.8725  0.1762  2.7500
49579SOL     OW57704   6.703   6.272   8.397  1.0599  0.3657 -0.0041
49579SOL    HW157705   6.620   6.245   8.359  2.6341 -3.1634 -1.3352
49579SOL    HW257706   6.708   6.225   8.480  2.0080 -0.1299 -0.3172
49580SOL     OW57707   5.708   4.480   0.359  0.5186 -0.4002  0.2484
49580SOL    HW157708   5.665   4.547   0.306 -0.5370 -1.4845 -0.3300
49580SOL    HW257709   5.801   4.503   0.356  0.1864  0.9666 -0.0116
49581SOL     OW57710  12.492   8.343   3.092  0.2420 -0.1966 -0.5081
49581SOL    HW157711  12.478   8.359   2.998  0.5343 -0.4683 -0.6021
49581SOL    HW257712  12.453   8.256   3.107  0.0324 -0.0755 -0.3360
49582SOL     OW57713   9.574   5.621   6.276 -0.1688  0.1052 -0.1889
49582SOL    HW157714   9.577   5.624   6.372 -0.6985 -1.1980 -0.1058
49582SOL    HW257715   9.502   5.561   6.257 -0.6697  1.0677 -1.4316
49583SOL     OW57716   0.279   2.493   4.516 -0.1905 -0.0547 -0.0620
49583SOL    HW157717   0.227   2.489   4.596 -0.3525  0.5811 -0.1243
49583SOL    HW257718   0.370   2.486   4.545 -0.0406  2.8999  0.5158
49584SOL     OW57719   9.644   3.562  10.670 -0.2397  0.3044 -0.0428
49584SOL    HW157720   9.579   3.518  10.615  1.3649  0.3965 -2.1304
49584SOL    HW257721   9.677   3.492  10.728 -0.9702 -0.1382 -0.1489
49585SOL     OW57722  10.855   1.081   1.129  0.5667  0.6269  0.1065
49585SOL    HW157723  10.800   1.078   1.050  1.3023  1.4988 -0.4643
49585SOL    HW257724  10.873   0.990   1.148  0.3693  0.3967 -0.7395
49586SOL     OW57725   0.275   3.594   0.874 -0.4993 -0.4201 -0.2039
49586SOL    HW157726   0.222   3.673   0.877  0.6361  0.3785 -0.3166
49586SOL    HW257727   0.349   3.617   0.818 -0.7277 -1.9448 -1.2011
49587SOL     OW57728  11.247   4.330   7.959 -0.1909 -0.1902 -0.2473
49587SOL    HW157729  11.206   4.416   7.959  0.4464  0.1089 -0.2118
49587SOL    HW257730  11.173   4.269   7.967 -0.5170  0.3940  1.8248
49588SOL     OW57731   9.387   4.869  11.538  0.1801 -0.2347  0.3116
49588SOL    HW157732   9.400   4.783  11.578 -0.2346  0.0776  1.1274
49588SOL    HW257733   9.459   4.877  11.475  3.3969  0.9492  3.7826
49589SOL     OW57734   1.585   2.113  10.888 -0.3422 -0.1742  0.1633
49589SOL    HW157735   1.609   2.023  10.866 -2.3324 -0.5623 -0.6547
49589SOL    HW257736   1.518   2.136  10.823 -0.2279  1.7326  0.6672
49590SOL     OW57737   9.842   5.137   9.955  0.1927  0.3940  0.7262
49590SOL    HW157738   9.876   5.053   9.985 -1.8904 -1.3737 -1.4324
49590SOL    HW257739   9.903   5.166   9.887 -0.4268 -0.7465 -0.3531
49591SOL     OW57740  10.667   9.659   1.338 -0.2131 -0.0101  0.0601
49591SOL    HW157741  10.614   9.668   1.418 -0.2699  2.2300 -0.1660
49591SOL    HW257742  10.603   9.651   1.268 -0.1688 -1.3385  0.1512
49592SOL     OW57743   4.941   6.088   0.837 -0.1493 -0.1915 -0.4214
49592SOL    HW157744   4.912   5.999   0.820 -0.8472 -0.2259  0.8352
49592SOL    HW257745   4.983   6.116   0.756 -2.6213 -0.5751 -1.9288
49593SOL     OW57746   0.162   5.771  11.261  0.0154  0.4594 -0.1092
49593SOL    HW157747   0.091   5.807  11.208 -0.7034  0.1037  0.5907
49593SOL    HW257748   0.242   5.791  11.211 -0.6199  0.2575 -1.2497
49594SOL     OW57749   9.369   3.974  10.460  0.1235  0.6016  0.3520
49594SOL    HW157750   9.414   4.021  10.530  0.4363 -1.7800  1.8837
49594SOL    HW257751   9.289   3.941  10.501 -0.4410  0.4271 -0.8579
49595SOL     OW57752   7.731   2.513   3.906  0.1018  0.5650 -0.2028
49595SOL    HW157753   7.760   2.487   3.994  0.0539 -0.8369 -0.5696
49595SOL    HW257754   7.750   2.606   3.901  1.3369  0.3972  0.8237
49596SOL     OW57755  11.295   4.055   0.246  0.1288 -0.2107  0.2912
49596SOL    HW157756  11.250   4.055   0.161 -1.8773  2.4893  1.2140
49596SOL    HW257757  11.369   4.114   0.234 -0.6911  0.9151  0.6110
49597SOL     OW57758   3.798   6.239   2.643  0.5370 -0.1760  0.5535
49597SOL    HW157759   3.713   6.266   2.608  0.6239 -2.0043 -1.3209
49597SOL    HW257760   3.797   6.267   2.734 -1.9806  0.0748  0.5225
49598SOL     OW57761   5.147  10.629  10.950  0.3193  0.1497 -0.5872
49598SOL    HW157762   5.110  10.545  10.978 -0.1821 -0.3043 -2.4361
49598SOL    HW257763   5.092  10.654  10.875  1.0791  1.6482 -0.6659
49599SOL     OW57764   0.909   8.091  10.691 -0.1565  0.1417  0.2561
49599SOL    HW157765   0.987   8.050  10.728  0.7657 -0.3169 -2.0735
49599SOL    HW257766   0.872   8.141  10.764  2.1656  0.1714  1.4978
49600SOL     OW57767   5.556   7.067   4.422 -0.0868  0.1669  0.0889
49600SOL    HW157768   5.540   6.973   4.429 -2.9602  0.5086 -0.8132
49600SOL    HW257769   5.474   7.103   4.389  1.0992  2.9544 -0.0611
49601SOL     OW57770   5.169  10.268   0.036  0.1972 -0.2884 -0.3028
49601SOL    HW157771   5.199  10.307  -0.046  1.4726 -0.3737  0.1027
49601SOL    HW257772   5.147  10.343   0.092  1.6838 -0.1430  0.1234
49602SOL     OW57773   3.845   9.299   6.429  0.2476 -0.3257  0.2515
49602SOL    HW157774   3.808   9.276   6.515  1.0387  0.6526  0.8850
49602SOL    HW257775   3.887   9.384   6.444  1.7788 -0.8872 -0.7195
49603SOL     OW57776   8.385   1.653   8.953 -0.0338  0.2126 -0.0388
49603SOL    HW157777   8.476   1.676   8.933  0.6405 -1.5813  0.7495
49603SOL    HW257778   8.380   1.657   9.049 -0.1693 -1.7751  0.0601
49604SOL     OW57779   7.200   1.307   7.863 -0.3739  0.6043  0.0115
49604SOL    HW157780   7.275   1.314   7.804 -0.5576  3.0508 -0.0252
49604SOL    HW257781   7.131   1.270   7.809  0.0875  0.6980 -0.6525
49605SOL     OW57782   6.998   6.814   7.560  0.4704 -1.0623  0.0249
49605SOL    HW157783   7.017   6.722   7.575  2.4234 -0.5445  1.1533
49605SOL    HW257784   7.065   6.861   7.610 -1.2299  0.9994  0.5614
49606SOL     OW57785  10.319  11.542   4.193 -0.0120 -0.2023 -0.2891
49606SOL    HW157786  10.405  11.577   4.168 -0.2730  1.4683  0.9232
49606SOL    HW257787  10.261  11.618   4.190 -1.6604 -1.4445 -1.8127
49607SOL     OW57788   4.279  11.603   3.913  0.9607 -0.3016  0.5111
49607SOL    HW157789   4.362  11.601   3.865  1.0892 -3.2569  0.6702
49607SOL    HW257790   4.304  11.603   4.006  0.7475  0.2442  0.5753
49608SOL     OW57791   8.129   8.652   4.170 -0.3444  0.4540 -0.1994
49608SOL    HW157792   8.039   8.643   4.200 -0.4845 -0.3806 -0.8257
49608SOL    HW257793   8.122   8.705   4.090 -0.1884  1.0490  0.1770
49609SOL     OW57794   6.271   8.035   5.090  0.0633 -0.0357 -0.1769
49609SOL    HW157795   6.221   7.969   5.042 -0.3463  0.9082 -1.1008
49609SOL    HW257796   6.352   7.991   5.115 -0.4527 -1.0473 -0.2536
49610SOL     OW57797   6.158   4.330   3.923  0.0708 -0.0731  0.2951
49610SOL    HW157798   6.164   4.338   4.018 -0.1983 -2.0803  0.5226
49610SOL    HW257799   6.231   4.274   3.899 -0.4632 -0.4263 -0.5394
49611SOL     OW57800   4.568   7.070   8.386  0.2044  0.2199  0.1654
49611SOL    HW157801   4.559   7.003   8.319  0.8003 -0.0217  0.3278
49611SOL    HW257802   4.478   7.101   8.400 -0.2472 -1.3025  0.8692
49612SOL     OW57803   2.807   9.867   0.350  0.3126  0.2572  0.5325
49612SOL    HW157804   2.875   9.848   0.286 -0.6105  1.3992 -0.8507
49612SOL    HW257805   2.853   9.913   0.421  0.9921  1.0729 -0.4078
49613SOL     OW57806   0.859   4.243   9.946 -0.3557  0.2285 -0.0962
49613SOL    HW157807   0.843   4.336   9.926  0.5023  0.0420 -1.7808
49613SOL    HW257808   0.813   4.229  10.029  0.5857  2.4884  0.8973
49614SOL     OW57809   7.275   0.198   7.088  0.2726  0.1207  0.1276
49614SOL    HW157810   7.192   0.151   7.086  0.2909  0.0932 -0.1387
49614SOL    HW257811   7.341   0.128   7.086  0.3734  0.0728 -3.8031
49615SOL     OW57812   7.603   0.193  11.850 -0.4235 -0.0569  0.5882
49615SOL    HW157813   7.635   0.205  11.760 -0.6369  1.3832  0.6807
49615SOL    HW257814   7.513   0.225  11.848 -0.5783 -0.4400  1.2166
49616SOL     OW57815   3.222  12.267  10.835 -0.3223  0.2840  0.1042
49616SOL    HW157816   3.279  12.270  10.912 -0.0038 -0.0406 -0.1153
49616SOL    HW257817   3.273  12.221  10.769 -0.6146  0.5113 -0.2869
49617SOL     OW57818  11.643   2.704  12.497 -0.1096  0.5840 -0.2383
49617SOL    HW157819  11.681   2.749  12.572 -1.3772 -0.1725  0.8930
49617SOL    HW257820  11.718   2.683  12.441  0.9684  0.3778  1.2345
49618SOL     OW57821   3.867   0.330   5.802 -0.0645  0.0756 -0.3346
49618SOL    HW157822   3.842   0.305   5.713  0.0289 -0.3382 -0.2479
49618SOL    HW257823   3.825   0.415   5.816 -0.5450 -0.1192 -0.5720
49619SOL     OW57824   6.441  10.176   0.389 -0.2743  0.3648  0.4472
49619SOL    HW157825   6.387  10.182   0.311  1.5866  0.0569 -0.9523
49619SOL    HW257826   6.388  10.126   0.452 -2.2869  1.6542 -0.1423
49620SOL     OW57827   6.137   5.283   2.890 -0.3469 -0.2948  0.7809
49620SOL    HW157828   6.152   5.192   2.864  0.2319  0.5754 -2.3610
49620SOL    HW257829   6.042   5.289   2.905 -0.5689 -1.1828 -0.1761
49621SOL     OW57830  10.529  10.234   1.878  0.7976 -0.4346  0.4135
49621SOL    HW157831  10.622  10.254   1.864  0.8742 -0.6616  0.5817
49621SOL    HW257832  10.494  10.311   1.923  0.9455 -0.4206  0.5072
49622SOL     OW57833   8.141   8.781   3.869  0.1304  0.1419  0.3958
49622SOL    HW157834   8.199   8.842   3.915  0.2564  1.5154 -1.4745
49622SOL    HW257835   8.113   8.829   3.791  1.5654 -2.7135 -2.0780
49623SOL     OW57836   2.430   7.264   7.781  0.2945  0.4987  0.2154
49623SOL    HW157837   2.336   7.278   7.782  0.1100 -0.7143  0.4395
49623SOL    HW257838   2.449   7.238   7.691  0.2647 -0.2069  0.4088
49624SOL     OW57839   5.248   0.138   2.078 -0.3702  0.2255  0.0722
49624SOL    HW157840   5.311   0.180   2.136  0.6584 -1.8637  0.5773
49624SOL    HW257841   5.299   0.074   2.028 -1.5457  0.7173 -1.8969
49625SOL     OW57842   7.002   6.147   2.074 -0.4020  0.1729 -0.4275
49625SOL    HW157843   6.930   6.185   2.022 -2.2179 -1.4688  0.7416
49625SOL    HW257844   6.979   6.055   2.083  1.8428 -0.3900  0.1167
49626SOL     OW57845   6.222  10.288   2.432 -0.1217  0.4171 -0.2318
49626SOL    HW157846   6.140  10.337   2.441 -0.3074  0.4616 -1.7732
49626SOL    HW257847   6.200  10.214   2.376  0.7238 -0.0078 -0.0167
49627SOL     OW57848   3.797   9.644   6.255  0.2269 -0.5875 -0.2754
49627SOL    HW157849   3.783   9.584   6.182 -0.7147 -1.4967  0.6129
49627SOL    HW257850   3.750   9.724   6.231 -2.3252 -1.7810  0.3935
49628SOL     OW57851   7.571   5.451   8.529  0.4035 -0.1230  0.2807
49628SOL    HW157852   7.665   5.462   8.519  0.5448  0.9729  2.2686
49628SOL    HW257853   7.533   5.506   8.461  1.2288  1.1362  0.7969
49629SOL     OW57854  11.776   3.955  11.630  0.3850 -0.5770 -0.2805
49629SOL    HW157855  11.718   3.958  11.555  1.2754  0.4408 -0.9607
49629SOL    HW257856  11.825   3.873  11.621  0.5750 -0.3982 -0.8866
49630SOL     OW57857   9.949   1.033   6.444 -0.5011 -0.2655 -0.0732
49630SOL    HW157858   9.858   1.039   6.415 -0.4446  1.7093  0.0131
49630SOL    HW257859   9.980   1.124   6.445  1.1500 -0.7938  0.9289
49631SOL     OW57860   8.611  12.465   2.821 -1.0103  0.1575 -0.1979
49631SOL    HW157861   8.671  12.408   2.870 -0.4782  1.2314  0.4282
49631SOL    HW257862   8.663  12.541   2.798 -2.5903  2.1502  2.2189
49632SOL     OW57863   1.051   8.790   1.302  0.4339  0.0636  0.9978
49632SOL    HW157864   1.010   8.747   1.226  0.2197  0.3230  0.9627
49632SOL    HW257865   1.097   8.866   1.265  0.1559  0.3098  1.1471
49633SOL     OW57866   2.626   2.512   1.034 -0.2446 -0.9392  0.0643
49633SOL    HW157867   2.623   2.455   0.957 -0.0639 -0.9496  0.0660
49633SOL    HW257868   2.541   2.498   1.077 -0.5221 -0.6162 -0.3625
49634SOL     OW57869   0.122   0.899   3.147  0.1669  0.4792  0.0008
49634SOL    HW157870   0.035   0.935   3.161 -0.3877 -1.0213  0.6174
49634SOL    HW257871   0.142   0.851   3.228  1.9492  1.4985  0.2314
49635SOL     OW57872   2.685   7.619   4.886  0.0834  0.3133  0.5589
49635SOL    HW157873   2.627   7.608   4.962 -1.1015  2.0133 -0.0401
49635SOL    HW257874   2.672   7.540   4.834  0.0969 -0.3868  1.5953
49636SOL     OW57875   4.802   5.857   5.342  0.2016  0.3667  0.6533
49636SOL    HW157876   4.880   5.809   5.313  1.0111  1.4847  0.9062
49636SOL    HW257877   4.817   5.874   5.435 -1.5256 -1.5768  1.3740
49637SOL     OW57878  10.305   6.945   2.452  0.1602 -0.2493  0.1819
49637SOL    HW157879  10.374   6.953   2.386  1.1212 -2.2148  0.9014
49637SOL    HW257880  10.325   7.013   2.516  2.7732 -2.1144  1.5027
49638SOL     OW57881   8.500   1.532  11.077 -0.2780  0.2537 -0.4461
49638SOL    HW157882   8.594   1.549  11.084 -0.3987  1.6260 -1.6353
49638SOL    HW257883   8.463   1.617  11.055 -2.0467  0.1376  1.7731
49639SOL     OW57884  10.451   1.726   4.274 -0.4311 -0.5092  0.0336
49639SOL    HW157885  10.482   1.654   4.219 -0.8943 -0.9859  0.3751
49639SOL    HW257886  10.421   1.683   4.354 -0.5892  0.0824  0.2980
49640SOL     OW57887   4.632   1.739   6.847  0.0746  0.8575 -0.1050
49640SOL    HW157888   4.705   1.678   6.857  0.2508  1.0246 -0.3464
49640SOL    HW257889   4.633   1.790   6.928  0.3771  1.0189 -0.2090
49641SOL     OW57890  11.524  11.461   3.348 -0.4586 -0.6839  0.0827
49641SOL    HW157891  11.518  11.465   3.253 -0.5553  0.0814  0.1171
49641SOL    HW257892  11.434  11.474   3.378 -0.4608 -1.1210  0.2778
49642SOL     OW57893  10.166   8.811  10.922 -0.1264 -0.0791  0.1884
49642SOL    HW157894  10.078   8.848  10.923 -0.1674 -0.1133 -0.7590
49642SOL    HW257895  10.176   8.777  10.833  0.8271 -0.1149  0.3013
49643SOL     OW57896   5.572   4.135   9.979 -0.0468 -0.1587 -0.5339
49643SOL    HW157897   5.614   4.068   9.926  0.7698 -0.2536  0.2093
49643SOL    HW257898   5.524   4.086  10.046 -0.6791 -0.0286 -0.8842
49644SOL     OW57899  11.018   5.261   5.215 -0.0104  0.3190 -0.4348
49644SOL    HW157900  11.082   5.208   5.168  1.2922  2.3593 -1.0685
49644SOL    HW257901  10.986   5.324   5.151 -0.3324  1.3328  0.6793
49645SOL     OW57902   6.130   9.193   8.930  0.0427 -0.1932 -0.1744
49645SOL    HW157903   6.186   9.210   9.005  0.1895  2.1511 -0.7308
49645SOL    HW257904   6.059   9.139   8.964 -0.2064  1.2965  1.8162
49646SOL     OW57905   5.672   9.153   9.608  0.4731 -0.7216 -0.3358
49646SOL    HW157906   5.645   9.111   9.689  2.9500 -1.6804  0.0907
49646SOL    HW257907   5.619   9.233   9.603  1.2841  0.1834  3.0725
49647SOL     OW57908   4.397   1.600   0.858 -0.1370 -0.1810 -0.0217
49647SOL    HW157909   4.333   1.669   0.842 -0.5215 -0.5573 -0.1081
49647SOL    HW257910   4.374   1.565   0.944 -0.1887 -0.4670 -0.1499
49648SOL     OW57911   0.772   8.296  10.322 -0.3752  0.4603 -0.1045
49648SOL    HW157912   0.863   8.273  10.341 -0.1083  1.1767 -0.4485
49648SOL    HW257913   0.753   8.367  10.384 -0.7143  0.2720  0.0034
49649SOL     OW57914   8.172   0.124  10.540 -0.2875 -0.1739  0.0041
49649SOL    HW157915   8.081   0.139  10.513 -0.2244  0.7441  0.2891
49649SOL    HW257916   8.177   0.162  10.628  0.5476  0.3702 -0.2737
49650SOL     OW57917   3.323   0.880   3.159 -0.0759  0.2988  0.4316
49650SOL    HW157918   3.364   0.955   3.202  1.1185 -0.5997  0.8992
49650SOL    HW257919   3.345   0.891   3.066 -0.9687  1.1727  0.3047
49651SOL     OW57920  10.224   8.013  12.272  0.3819 -0.2059 -0.1162
49651SOL    HW157921  10.240   8.082  12.208  0.1749  0.7269  0.7940
49651SOL    HW257922  10.158   7.956  12.231  0.1563  0.4416 -0.6679
49652SOL     OW57923   9.325   4.042  12.465  0.2597  0.4250  0.0695
49652SOL    HW157924   9.375   4.048  12.384 -1.3388  1.3483 -0.9091
49652SOL    HW257925   9.381   4.081  12.532  0.6343  1.9619 -1.0987
49653SOL     OW57926   9.032   4.870   4.917 -0.1760  0.8309  0.6089
49653SOL    HW157927   9.047   4.963   4.900 -1.1718  0.8788 -0.1359
49653SOL    HW257928   9.088   4.825   4.853 -2.4076  0.9978 -1.6109
49654SOL     OW57929  11.958   5.711  11.512 -0.3746  0.0938  0.2167
49654SOL    HW157930  11.875   5.739  11.475 -0.5104 -1.1828 -0.5041
49654SOL    HW257931  11.936   5.636  11.567  0.3658 -0.7095 -0.5423
49655SOL     OW57932   8.298   5.247   5.449 -0.5137  0.1622  0.4530
49655SOL    HW157933   8.370   5.275   5.393 -0.5449  0.9529  0.8049
49655SOL    HW257934   8.327   5.265   5.538 -0.9285 -0.0199  0.6301
49656SOL     OW57935   7.440   6.414   7.132 -0.2780  0.2884 -0.3112
49656SOL    HW157936   7.522   6.394   7.087 -0.2510  0.8378 -0.5106
49656SOL    HW257937   7.372   6.393   7.068 -0.3562 -1.1079  0.1884
49657SOL     OW57938   3.663   0.443   0.742 -0.2852  0.1083  0.3653
49657SOL    HW157939   3.729   0.377   0.720 -0.0064  0.7589 -0.8489
49657SOL    HW257940   3.714   0.518   0.772 -0.5648  0.0424  1.0163
49658SOL     OW57941   9.320   6.814   5.797  0.1557  0.4188  0.2070
49658SOL    HW157942   9.393   6.863   5.833  2.0951 -1.4986 -0.8992
49658SOL    HW257943   9.295   6.753   5.866  1.6202 -0.9349 -0.4080
49659SOL     OW57944  11.097   2.818   8.055 -0.1508  0.2061 -0.2847
49659SOL    HW157945  11.157   2.868   8.111 -1.0172  0.0997  0.7647
49659SOL    HW257946  11.149   2.744   8.024  0.3075  0.1880  0.5060
49660SOL     OW57947   0.385  10.163   5.917 -0.4292 -0.4552 -0.1122
49660SOL    HW157948   0.395  10.171   5.822 -0.8175 -1.8706 -0.2921
49660SOL    HW257949   0.473  10.145   5.949 -0.4563 -1.0321 -0.3402
49661SOL     OW57950   6.212  10.010   3.629  0.0971  0.6204  0.0661
49661SOL    HW157951   6.226  10.104   3.637  0.5316  0.6249 -0.7113
49661SOL    HW257952   6.298   9.974   3.606 -0.5222  0.3092 -1.9336
49662SOL     OW57953   2.267   8.949   7.392  0.3341 -0.3322  0.0594
49662SOL    HW157954   2.179   8.913   7.405 -0.1146  0.9328  0.6863
49662SOL    HW257955   2.267   8.978   7.301 -0.6118  1.4548  0.5877
49663SOL     OW57956   8.067  12.174   0.732 -0.2096  0.1117 -0.1678
49663SOL    HW157957   8.083  12.145   0.823 -1.0450  1.5115  0.4530
49663SOL    HW257958   8.069  12.269   0.737 -1.2418  0.2181 -1.4523
49664SOL     OW57959   2.846   7.925   6.370  0.3019  0.1596 -0.7572
49664SOL    HW157960   2.763   7.877   6.371  0.0025  0.6672 -0.1696
49664SOL    HW257961   2.838   7.987   6.298  0.6515 -0.5941 -1.4578
49665SOL     OW57962  10.080   8.141  10.811 -0.0450  0.0436 -0.4448
49665SOL    HW157963  10.114   8.052  10.809 -1.8089 -0.6655 -0.4540
49665SOL    HW257964   9.987   8.132  10.790 -0.1149  1.9649 -1.1976
49666SOL     OW57965   1.753   7.553   3.912 -0.3483  0.0504  0.0601
49666SOL    HW157966   1.839   7.545   3.870 -0.6946  1.0206 -0.8720
49666SOL    HW257967   1.721   7.463   3.918  0.8452 -0.3682  0.7087
49667SOL     OW57968   8.473  11.689   3.079  0.3680  0.2975  0.2630
49667SOL    HW157969   8.426  11.619   3.123 -0.3362 -0.4085 -1.5064
49667SOL    HW257970   8.539  11.644   3.026  0.9089  1.0756  0.2513
49668SOL     OW57971   0.993   7.270   2.629 -0.4089 -0.1476  0.6212
49668SOL    HW157972   1.076   7.255   2.584 -1.1221  2.3196 -1.7320
49668SOL    HW257973   0.984   7.194   2.687  1.1496 -3.0472 -2.5555
49669SOL     OW57974  10.380   1.337   8.539  0.1888  0.4091 -0.4250
49669SOL    HW157975  10.417   1.319   8.453 -1.5337 -1.6618 -0.8228
49669SOL    HW257976  10.440   1.296   8.601 -0.4766 -1.4166 -0.9363
49670SOL     OW57977   5.215   6.190   5.977 -0.5768  0.3051 -0.0539
49670SOL    HW157978   5.229   6.269   5.925  0.1883  2.1116  2.6554
49670SOL    HW257979   5.142   6.213   6.035 -0.3014 -0.9672  0.8394
49671SOL     OW57980  11.285   2.796   1.271 -0.1263  0.5228 -0.1894
49671SOL    HW157981  11.298   2.718   1.218 -1.9131 -0.1893  0.3423
49671SOL    HW257982  11.348   2.788   1.342 -0.3830 -0.5262 -0.0659
49672SOL     OW57983   8.688   9.339  10.581  0.3604  0.4594  0.0175
49672SOL    HW157984   8.649   9.379  10.659  0.1570  0.9670 -0.3374
49672SOL    HW257985   8.700   9.247  10.605 -1.0032  0.2981  0.1559
49673SOL     OW57986   0.261   7.864   9.452 -0.2628 -0.3421 -0.2088
49673SOL    HW157987   0.211   7.938   9.487  0.2636  0.4027 -0.9783
49673SOL    HW257988   0.284   7.891   9.363 -1.0682 -1.9303 -0.9419
49674SOL     OW57989   0.557  11.988   4.691  0.0154  0.1479  0.1184
49674SOL    HW157990   0.631  11.978   4.752  0.1450  0.3485 -0.0056
49674SOL    HW257991   0.597  12.019   4.610 -0.1723 -0.0112 -0.0351
49675SOL     OW57992   3.329   1.521  12.526  0.2179  0.3867  0.1882
49675SOL    HW157993   3.358   1.487  12.442  0.2148  1.0894 -0.1022
49675SOL    HW257994   3.236   1.542  12.513  0.4194  1.2680  0.1143
49676SOL     OW57995   3.632   0.399  11.071 -0.1886 -0.2416 -0.1225
49676SOL    HW157996   3.649   0.461  11.000 -0.6137  1.6063  1.3285
49676SOL    HW257997   3.708   0.341  11.070  0.0212 -0.0040 -1.7883
49677SOL     OW57998   1.921   6.897   8.557 -0.1023  0.0480  0.3377
49677SOL    HW157999   1.913   6.958   8.630  0.6520 -0.6519  1.0174
49677SOL    HW258000   1.926   6.952   8.479 -0.7037  0.8058  0.8257
49678SOL     OW58001   6.788   2.617   4.701  0.3615 -0.3260  0.6546
49678SOL    HW158002   6.822   2.706   4.711 -0.5226 -0.0332  1.1694
49678SOL    HW258003   6.769   2.589   4.791  1.1715 -1.2602  0.5514
49679SOL     OW58004   4.245   1.324   4.732 -0.1256 -0.7014  0.1802
49679SOL    HW158005   4.247   1.303   4.639  1.0882 -1.0797  0.2694
49679SOL    HW258006   4.280   1.246   4.775  2.0166  0.4753  0.7277
49680SOL     OW58007   9.731   7.340  10.216  0.3246 -0.1910  0.2214
49680SOL    HW158008   9.775   7.305  10.294  0.2214 -1.2238 -0.1728
49680SOL    HW258009   9.641   7.355  10.244  1.1320  3.3251  1.4726
49681SOL     OW58010  11.881   5.269   2.832 -0.0976 -0.7522  0.4160
49681SOL    HW158011  11.938   5.262   2.755  0.1187  1.1384  0.3669
49681SOL    HW258012  11.841   5.182   2.839  0.1636 -1.0973 -1.5952
49682SOL     OW58013   8.622   9.001  12.347 -0.9661  1.0410 -0.3793
49682SOL    HW158014   8.640   9.095  12.338  0.0140  0.7256 -2.5967
49682SOL    HW258015   8.695   8.967  12.399  0.6081  1.0523 -2.4478
49683SOL     OW58016  12.237   5.506  12.011 -0.0748  0.3851  0.2641
49683SOL    HW158017  12.247   5.564  12.086  0.8849  0.2694  0.2422
49683SOL    HW258018  12.291   5.430  12.032  0.4242  0.4659 -0.6391
49684SOL     OW58019   7.490   9.567   7.095  0.3247 -0.1266  0.7322
49684SOL    HW158020   7.543   9.627   7.147  0.7051 -0.3523  0.6088
49684SOL    HW258021   7.435   9.522   7.160  0.2707  0.1204  0.8576
49685SOL     OW58022  11.198  12.234   9.146  0.0303 -0.4246  0.3810
49685SOL    HW158023  11.266  12.298   9.168 -0.7897  0.2481  1.0530
49685SOL    HW258024  11.201  12.170   9.217 -0.2930 -0.1813  0.6149
49686SOL     OW58025   4.190   4.259   3.251 -0.0651  0.2140 -0.3684
49686SOL    HW158026   4.275   4.236   3.213  0.5684  1.4456  0.2259
49686SOL    HW258027   4.159   4.331   3.196  1.6284  3.1778  2.2210
49687SOL     OW58028   5.740   0.435  11.905  0.1841  0.2356  0.3332
49687SOL    HW158029   5.834   0.415  11.905 -0.0023 -0.8597  2.0585
49687SOL    HW258030   5.699   0.359  11.946 -1.5566  0.4140 -0.9714
49688SOL     OW58031   8.134   0.355   0.419  0.8006  0.6845 -0.4166
49688SOL    HW158032   8.093   0.378   0.503  1.2927 -0.5364  0.1926
49688SOL    HW258033   8.206   0.417   0.410  1.6922 -0.1069  0.8496
49689SOL     OW58034   4.773   3.429  11.308  0.5584  0.7289 -0.0851
49689SOL    HW158035   4.814   3.506  11.348  2.1723  0.4148 -1.0328
49689SOL    HW258036   4.728   3.463  11.231  0.2762  0.8763  0.1430
49690SOL     OW58037   2.175   8.510   5.874  0.2131 -0.0690  0.1135
49690SOL    HW158038   2.126   8.577   5.827  0.4657  1.1317  1.4815
49690SOL    HW258039   2.228   8.467   5.808 -1.1679 -0.0230 -1.0625
49691SOL     OW58040   1.290   4.314  12.003 -1.2078 -0.2061  0.1442
49691SOL    HW158041   1.305   4.230  11.958 -0.1001  0.3634 -0.5848
49691SOL    HW258042   1.287   4.291  12.096  0.1370 -0.9337  0.0379
49692SOL     OW58043   7.362   9.780   8.928  0.0968 -0.3063  0.1263
49692SOL    HW158044   7.385   9.871   8.907 -1.5804 -0.0054 -0.5919
49692SOL    HW258045   7.301   9.787   9.001 -0.0250 -0.8643  0.0825
49693SOL     OW58046   3.315  11.221   1.774  0.7319 -0.1566  0.2940
49693SOL    HW158047   3.303  11.138   1.729 -0.2850  0.9943 -1.6872
49693SOL    HW258048   3.230  11.239   1.815  1.1382 -0.3675  1.2599
49694SOL     OW58049   2.509   0.598   8.932 -0.1203  0.2637 -0.2321
49694SOL    HW158050   2.527   0.549   9.012 -0.7904 -0.0622 -0.2774
49694SOL    HW258051   2.508   0.532   8.863  2.7208  0.7980 -0.8983
49695SOL     OW58052   8.591   8.598  10.745 -0.0809  0.5790  0.6674
49695SOL    HW158053   8.541   8.518  10.728  0.8858 -0.2693  1.6534
49695SOL    HW258054   8.598   8.640  10.660 -0.1538 -0.6672  0.0121
49696SOL     OW58055  10.483   4.009   2.337 -0.1204 -0.1236  0.1918
49696SOL    HW158056  10.431   4.049   2.267  1.6212  0.1879 -1.0001
49696SOL    HW258057  10.525   3.933   2.295  2.9556  1.4812  0.0696
49697SOL     OW58058   8.420   4.211   3.205  0.1437  0.0580 -0.7696
49697SOL    HW158059   8.418   4.193   3.111 -0.3246  0.9012 -0.9360
49697SOL    HW258060   8.419   4.125   3.246 -1.4427 -0.3225 -1.5239
49698SOL     OW58061   1.217  12.339  12.352 -0.2705 -0.5390 -0.4222
49698SOL    HW158062   1.199  12.301  12.265  1.5691 -0.6451 -0.7851
49698SOL    HW258063   1.309  12.365  12.348  0.3519 -2.0783  2.0546
49699SOL     OW58064   2.224   9.157   9.063  0.1116  0.0866 -0.2483
49699SOL    HW158065   2.269   9.073   9.070 -0.8598 -0.5070 -0.8786
49699SOL    HW258066   2.179   9.167   9.147 -1.3428 -0.9811 -0.8584
49700SOL     OW58067  11.294   4.702   6.472 -0.0125 -0.3562 -0.7556
49700SOL    HW158068  11.244   4.663   6.400 -0.3998 -1.4358  0.0532
49700SOL    HW258069  11.382   4.665   6.464  0.0920 -0.0555 -0.9890
49701SOL     OW58070   5.571   6.223   7.448  0.0443  0.2828 -0.0143
49701SOL    HW158071   5.522   6.154   7.403 -1.0457  0.5012  0.7952
49701SOL    HW258072   5.552   6.302   7.397  0.7025  0.1363 -0.5105
49702SOL     OW58073   7.354  11.596   5.406 -0.0469 -0.1476  0.3074
49702SOL    HW158074   7.285  11.636   5.353 -0.3359  0.5963  1.2209
49702SOL    HW258075   7.315  11.516   5.441 -0.8515  0.7850  1.6624
49703SOL     OW58076  10.672   5.212   8.339 -0.1570  0.5670  0.5609
49703SOL    HW158077  10.727   5.271   8.390 -1.1520  0.5744  1.6846
49703SOL    HW258078  10.628   5.270   8.275  0.5202  0.6794  0.1899
49704SOL     OW58079   6.700   7.477   1.454 -0.0768  0.0250  0.2068
49704SOL    HW158080   6.690   7.465   1.360 -0.6634 -2.4001  0.5009
49704SOL    HW258081   6.622   7.525   1.481  0.6248  1.7160 -0.6466
49705SOL     OW58082   8.399   2.451   9.574  0.0167 -0.2856  0.0625
49705SOL    HW158083   8.436   2.367   9.600  1.3770  0.5806  1.0351
49705SOL    HW258084   8.473   2.512   9.577 -1.3447  1.3909  1.5014
49706SOL     OW58085  10.733  10.664   3.639  0.0474  0.4450 -0.2656
49706SOL    HW158086  10.659  10.709   3.679 -0.4908 -0.3425 -0.3629
49706SOL    HW258087  10.694  10.608   3.572  0.4039 -1.9589  1.3973
49707SOL     OW58088   7.861   0.836   2.140  0.2973  0.2225 -0.3435
49707SOL    HW158089   7.900   0.753   2.115  2.0036  1.6513 -2.7658
49707SOL    HW258090   7.891   0.851   2.230  0.3582 -1.4813 -0.0538
49708SOL     OW58091   9.652   8.341   6.624  0.0630  0.5102 -0.3414
49708SOL    HW158092   9.701   8.375   6.549 -0.5851  1.0339 -0.5317
49708SOL    HW258093   9.580   8.402   6.636  0.7776  1.1003  1.4279
49709SOL     OW58094   2.736   4.683   2.698 -0.4091  0.0772  0.3223
49709SOL    HW158095   2.700   4.635   2.773  1.0072  0.1903  1.1149
49709SOL    HW258096   2.720   4.626   2.623 -1.6573 -0.1428  0.7434
49710SOL     OW58097   3.182   0.675   3.857 -0.3636 -0.3166 -0.6569
49710SOL    HW158098   3.243   0.641   3.792  0.1532 -1.4160  0.3604
49710SOL    HW258099   3.174   0.768   3.837  0.8842 -0.3536 -1.3967
49711SOL     OW58100   2.443  10.270   1.113  0.0245 -0.6117 -0.1850
49711SOL    HW158101   2.351  10.269   1.138 -1.1217  2.5708 -3.5282
49711SOL    HW258102   2.477  10.352   1.148  1.2375 -1.0726 -0.2065
49712SOL     OW58103   6.048  10.999   3.696  0.3623  0.2924 -0.0269
49712SOL    HW158104   6.059  11.026   3.604  1.2825  0.5916  0.1656
49712SOL    HW258105   5.967  10.947   3.695 -0.1296  1.0238 -0.8451
49713SOL     OW58106  10.460   0.725   4.163 -0.1301  0.0943  0.0913
49713SOL    HW158107  10.437   0.672   4.087  2.6025 -0.6356 -0.3599
49713SOL    HW258108  10.419   0.810   4.147 -0.7728 -0.4806 -1.4959
49714SOL     OW58109   7.578   8.738  11.353 -0.1803 -0.5625 -0.6367
49714SOL    HW158110   7.627   8.757  11.274  0.5161  0.3767 -0.0002
49714SOL    HW258111   7.623   8.787  11.422 -0.9386 -1.1263  0.2884
49715SOL     OW58112   8.667  11.876   3.866 -0.2401  0.1557 -0.3409
49715SOL    HW158113   8.584  11.923   3.870 -1.1325 -1.3672 -0.2437
49715SOL    HW258114   8.685  11.869   3.772 -0.1812  0.5618 -0.3600
49716SOL     OW58115  11.289   9.530   3.487  0.7872 -0.3650  0.3077
49716SOL    HW158116  11.358   9.561   3.429  0.1443 -1.9338 -1.3728
49716SOL    HW258117  11.295   9.434   3.484 -1.6812 -0.5897 -0.2585
49717SOL     OW58118   6.534   0.563   1.290 -0.6696  0.5715  0.3757
49717SOL    HW158119   6.533   0.652   1.255  0.5736  0.1163 -0.9269
49717SOL    HW258120   6.543   0.507   1.213  1.8736 -0.5063  1.3343
49718SOL     OW58121  11.725  12.159   6.228 -0.9304 -0.0623  0.2788
49718SOL    HW158122  11.819  12.180   6.236 -0.5822 -1.2845 -0.3956
49718SOL    HW258123  11.681  12.237   6.262  0.3302  0.3143  1.1369
49719SOL     OW58124   1.703   7.958   6.278 -0.2330  0.4352 -0.1498
49719SOL    HW158125   1.734   7.928   6.364 -0.3468 -1.9949 -0.8612
49719SOL    HW258126   1.782   7.980   6.230 -0.0401  0.1869  0.0480
49720SOL     OW58127   8.456   6.753   2.823 -0.3000 -0.4206  0.4043
49720SOL    HW158128   8.448   6.848   2.828  0.0610 -0.2596 -1.3579
49720SOL    HW258129   8.538   6.734   2.870 -0.0068  0.2211  0.1689
49721SOL     OW58130   3.598  11.535   3.550  0.0485 -0.6733  0.1853
49721SOL    HW158131   3.691  11.521   3.570 -0.2142 -1.0497  1.2246
49721SOL    HW258132   3.562  11.447   3.542 -0.2808 -0.5300  0.0949
49722SOL     OW58133   8.977   8.839   2.757 -0.0215 -0.2729  0.5045
49722SOL    HW158134   9.012   8.859   2.844  0.7735  0.4680  0.0354
49722SOL    HW258135   9.055   8.822   2.704 -0.4082  0.6559 -0.3866
49723SOL     OW58136   3.611   8.742   0.324 -1.0729  0.4243 -0.5882
49723SOL    HW158137   3.558   8.793   0.263 -1.1614  1.3789  0.2415
49723SOL    HW258138   3.553   8.728   0.399 -0.3262  1.0999  0.1442
49724SOL     OW58139   3.735   0.310   3.312  0.2316 -0.2362  0.5346
49724SOL    HW158140   3.786   0.336   3.389 -1.7275 -0.2431  1.9202
49724SOL    HW258141   3.689   0.390   3.287  0.3596 -0.4022 -0.2461
49725SOL     OW58142   5.681   5.909   8.345 -0.3250  1.0613 -0.3657
49725SOL    HW158143   5.707   5.838   8.404  0.5759  1.8575  0.2232
49725SOL    HW258144   5.601   5.877   8.304 -0.4107  0.0528  0.5241
49726SOL     OW58145   7.611  12.445   5.621 -0.2487  0.1795 -0.6962
49726SOL    HW158146   7.590  12.356   5.650 -1.3348  0.2044 -1.3445
49726SOL    HW258147   7.608  12.497   5.701 -2.9344  0.2008 -0.7098
49727SOL     OW58148   0.017   1.263   0.672 -0.3747 -0.3299 -0.4372
49727SOL    HW158149  -0.010   1.171   0.665 -2.5489  0.1687  0.4922
49727SOL    HW258150  -0.026   1.307   0.599 -3.1199  0.6561  1.6133
49728SOL     OW58151   1.002  11.668   0.594 -0.5973 -0.4322  0.2279
49728SOL    HW158152   0.943  11.662   0.519 -0.6269 -2.9530  0.3604
49728SOL    HW258153   1.081  11.622   0.565  0.6214  1.2741  0.7025
49729SOL     OW58154   1.629  10.711  12.271 -0.5110 -0.1532 -0.6148
49729SOL    HW158155   1.639  10.628  12.224 -0.7068 -0.7704  0.4129
49729SOL    HW258156   1.613  10.776  12.202  0.7289 -0.7669 -1.5230
49730SOL     OW58157   6.487   8.420   4.125 -0.3604  0.1933 -0.6411
49730SOL    HW158158   6.543   8.497   4.133 -0.4415  0.2499 -0.6117
49730SOL    HW258159   6.437   8.419   4.206 -0.3827  0.1285 -0.6563
49731SOL     OW58160   9.968   7.600   7.486  0.1694 -0.5523 -0.1713
49731SOL    HW158161   9.917   7.600   7.567  1.4929  0.5896  0.7098
49731SOL    HW258162  10.050   7.557   7.510  1.4492  1.6759 -0.2555
49732SOL     OW58163   5.145   8.853   9.621 -0.5207 -0.3192 -0.2161
49732SOL    HW158164   5.179   8.794   9.688 -0.6873  0.2586  0.3837
49732SOL    HW258165   5.210   8.924   9.616 -0.8917  0.0284 -0.1213
49733SOL     OW58166   2.534   5.377   5.092  0.4874  0.1903  0.0982
49733SOL    HW158167   2.620   5.353   5.057  0.6917 -0.0606  0.7501
49733SOL    HW258168   2.552   5.407   5.181 -0.1936 -0.6451  0.5360
49734SOL     OW58169   0.919   7.841  12.440 -0.0109 -0.3014 -0.5997
49734SOL    HW158170   0.880   7.928  12.447 -0.6970 -0.5402 -1.4330
49734SOL    HW258171   1.005   7.851  12.482  0.1055  0.8870 -1.0812
49735SOL     OW58172   2.495   4.381   5.420 -0.2099  0.4589 -1.0145
49735SOL    HW158173   2.511   4.471   5.449 -0.5301 -0.0354  0.8583
49735SOL    HW258174   2.422   4.352   5.474 -0.9197 -0.5514 -2.4613
49736SOL     OW58175  12.496   0.337   0.425 -0.3874 -0.5271 -0.1926
49736SOL    HW158176  12.554   0.309   0.355 -0.1462 -0.9606  0.1756
49736SOL    HW258177  12.466   0.256   0.466 -1.0274 -0.3019 -0.1948
49737SOL     OW58178  10.532  11.659   4.069  0.2963 -0.4533 -0.7738
49737SOL    HW158179  10.603  11.681   4.130 -0.0908  1.6826 -1.0023
49737SOL    HW258180  10.566  11.683   3.983 -0.7140  0.7051 -0.8768
49738SOL     OW58181   5.484  11.034  10.897 -0.3825 -0.2509  0.6958
49738SOL    HW158182   5.445  11.115  10.929 -0.1037 -0.3335  1.2667
49738SOL    HW258183   5.409  10.978  10.875 -0.6098 -0.4631  1.9204
49739SOL     OW58184   8.269   0.200   6.150  0.3498 -0.7890 -0.1921
49739SOL    HW158185   8.293   0.270   6.210 -0.5862 -0.3036 -0.3700
49739SOL    HW258186   8.175   0.187   6.164 -0.1731  0.1841 -2.3912
49740SOL     OW58187  11.571   2.932   5.889 -0.0733  0.0812 -0.1373
49740SOL    HW158188  11.553   2.842   5.915  0.3123  0.4952  1.7200
49740SOL    HW258189  11.666   2.933   5.874  0.4317  0.7503  2.6041
49741SOL     OW58190   1.676   0.912   3.385  0.0338 -0.7167 -0.0020
49741SOL    HW158191   1.644   0.907   3.295 -2.7680  0.0451  0.8737
49741SOL    HW258192   1.598   0.921   3.438  1.7146  1.0108  2.3783
49742SOL     OW58193   9.725   7.842   8.473 -0.1173  0.3008  0.2737
49742SOL    HW158194   9.747   7.824   8.564 -2.2243 -2.1023  0.4182
49742SOL    HW258195   9.810   7.851   8.429  0.9440  1.1447  2.3675
49743SOL     OW58196   8.303   6.725   2.269 -0.5291  0.0535  0.0045
49743SOL    HW158197   8.292   6.689   2.357 -1.4327 -0.8624 -0.4533
49743SOL    HW258198   8.229   6.784   2.258 -0.1525  0.5322  0.0303
49744SOL     OW58199   5.307   2.218   4.977  0.5019 -0.1320 -0.3374
49744SOL    HW158200   5.393   2.192   4.944 -0.0788 -0.9615 -1.2672
49744SOL    HW258201   5.249   2.211   4.901 -0.3395  0.6812  0.2063
49745SOL     OW58202   1.663   6.612   5.758 -0.5520 -0.1735 -0.0300
49745SOL    HW158203   1.705   6.579   5.679 -0.3627 -0.4695  0.1978
49745SOL    HW258204   1.569   6.611   5.737 -0.3783  2.8284 -1.4727
49746SOL     OW58205   0.175   9.050   6.591  0.0650  0.2629 -0.3360
49746SOL    HW158206   0.087   9.037   6.628 -0.3916  3.1992 -0.1083
49746SOL    HW258207   0.217   8.965   6.598 -2.5655 -1.1073  0.0926
49747SOL     OW58208   8.084  10.114   2.578  0.6346  0.0071 -0.3105
49747SOL    HW158209   8.129  10.070   2.505  1.2428  0.9685 -0.5270
49747SOL    HW258210   8.098  10.207   2.563 -2.1781  0.4393 -0.8663
49748SOL     OW58211   6.835   2.033   6.194  0.9353 -0.5436 -0.2916
49748SOL    HW158212   6.750   1.993   6.181 -0.6379  2.5249 -0.4441
49748SOL    HW258213   6.883   2.015   6.113 -0.5115 -0.2958 -1.2425
49749SOL     OW58214   1.536   0.449  11.959  0.2235 -0.6778  0.1338
49749SOL    HW158215   1.495   0.468  12.043  0.9879  1.0870  0.1446
49749SOL    HW258216   1.564   0.358  11.966  0.1252 -0.6173  1.7206
49750SOL     OW58217   6.216   5.890   9.196  0.1886 -0.1302 -0.1029
49750SOL    HW158218   6.199   5.812   9.143 -1.7192 -0.9658  1.6212
49750SOL    HW258219   6.273   5.944   9.140  0.5793 -2.1733 -1.8346
49751SOL     OW58220  12.047   8.971   6.578  0.2163 -0.2181  0.8855
49751SOL    HW158221  12.052   8.880   6.551  1.2998  0.1694 -0.3090
49751SOL    HW258222  11.959   8.980   6.617 -0.2898 -1.5111  0.0933
49752SOL     OW58223   0.008   6.495   1.820 -0.1788 -0.2778 -0.3308
49752SOL    HW158224   0.067   6.443   1.874 -0.3170 -0.6453 -0.5339
49752SOL    HW258225  -0.079   6.459   1.837 -0.8016  2.0010  2.1190
49753SOL     OW58226   2.959   3.274  12.102 -0.3993 -0.1171  0.3325
49753SOL    HW158227   3.008   3.235  12.174 -1.5726 -1.0026  0.6819
49753SOL    HW258228   2.963   3.368  12.119  1.2701 -0.1470  0.2665
49754SOL     OW58229   5.965   0.893   6.331 -0.1071  0.0468 -0.0816
49754SOL    HW158230   5.887   0.848   6.301  0.3135 -1.2603  0.6623
49754SOL    HW258231   6.022   0.898   6.254  0.4217 -2.0531  0.1072
49755SOL     OW58232   0.722  10.012   5.410  0.7121 -0.3589 -0.1020
49755SOL    HW158233   0.657  10.082   5.398 -0.0379 -1.1999 -1.1146
49755SOL    HW258234   0.670   9.932   5.418  1.5517 -0.8031  1.2299
49756SOL     OW58235  11.883   0.903   6.124  0.1465  0.1325 -0.4049
49756SOL    HW158236  11.864   0.811   6.143 -0.0209  0.3649  0.5956
49756SOL    HW258237  11.934   0.900   6.043 -0.6230 -0.7770 -0.8869
49757SOL     OW58238   1.292   1.179   8.395 -0.4243 -0.5270 -0.3031
49757SOL    HW158239   1.376   1.194   8.354 -1.2689  1.5474 -1.3917
49757SOL    HW258240   1.271   1.261   8.440 -2.2284 -0.6950 -0.7419
49758SOL     OW58241   0.017   8.749   1.834 -0.4630  0.2816 -0.4329
49758SOL    HW158242   0.032   8.677   1.896 -0.3264  2.4481  2.2046
49758SOL    HW258243  -0.012   8.705   1.754 -0.1946 -2.7081  0.9696
49759SOL     OW58244   7.869  10.657   9.626 -0.1273 -0.3676  0.0373
49759SOL    HW158245   7.930  10.598   9.670  1.8664  1.9865  0.6541
49759SOL    HW258246   7.889  10.645   9.533  0.7001 -0.2476  0.1873
49760SOL     OW58247   4.914   0.253   5.692 -0.3798 -0.1714  0.2001
49760SOL    HW158248   4.829   0.288   5.720 -1.0887 -1.7458  0.1702
49760SOL    HW258249   4.979   0.303   5.742 -1.3342  0.8181  0.4963
49761SOL     OW58250  11.007   5.873   2.381 -0.0556  0.4844 -0.8519
49761SOL    HW158251  10.978   5.921   2.304  0.8693  3.2265  0.3599
49761SOL    HW258252  11.095   5.841   2.359 -0.8687 -1.2283 -1.8419
49762SOL     OW58253   8.353  10.052  10.043  0.1047  0.7181 -0.4216
49762SOL    HW158254   8.425  10.009   9.996 -0.4131 -0.7022  0.0121
49762SOL    HW258255   8.332  10.128   9.990  1.1010  0.4648 -1.2209
49763SOL     OW58256   2.275  11.054   1.774  0.2867 -1.0598  0.0128
49763SOL    HW158257   2.353  11.044   1.829  0.5821 -0.1072 -0.2212
49763SOL    HW258258   2.292  11.132   1.722 -0.0179 -1.8808 -1.3935
49764SOL     OW58259  10.015   0.518   4.140 -0.3441 -0.5629  0.0007
49764SOL    HW158260  10.095   0.469   4.123  0.9014  1.1265  0.7667
49764SOL    HW258261   9.956   0.492   4.069  1.1856 -1.1666 -1.1078
49765SOL     OW58262   5.472   9.417   5.808  0.1588  0.1461 -0.3439
49765SOL    HW158263   5.490   9.344   5.866  0.1155  0.6337  0.2895
49765SOL    HW258264   5.528   9.488   5.839  0.4623  0.2884 -1.1693
49766SOL     OW58265   8.620   7.610   3.633  0.4508 -0.4254 -0.1416
49766SOL    HW158266   8.604   7.590   3.541 -0.2292  0.2765 -0.1829
49766SOL    HW258267   8.704   7.569   3.652  0.9870  0.1073 -1.2853
49767SOL     OW58268   2.703  11.942  12.469 -0.5699  0.0222  0.1802
49767SOL    HW158269   2.615  11.933  12.504 -0.1966  0.6658  1.3296
49767SOL    HW258270   2.761  11.916  12.541  0.2016  0.7415 -0.1561
49768SOL     OW58271  10.334   8.482   0.377 -0.2523 -0.2870 -0.3797
49768SOL    HW158272  10.372   8.419   0.315  0.3187 -0.7598  0.4331
49768SOL    HW258273  10.308   8.429   0.452  0.2714  0.4391  0.3332
49769SOL     OW58274   8.367   9.179   1.083 -0.0918  0.2327  0.1452
49769SOL    HW158275   8.386   9.233   1.160 -1.8802  0.5459  0.4007
49769SOL    HW258276   8.448   9.181   1.032 -0.3733  4.1513 -0.4557
49770SOL     OW58277   4.474   0.343  11.416 -0.1505 -0.2598 -0.8972
49770SOL    HW158278   4.464   0.282  11.343  2.6498  0.2897 -1.8314
49770SOL    HW258279   4.489   0.287  11.492 -0.4605 -0.7786 -1.2125
49771SOL     OW58280  11.412   4.368   7.692 -0.5813  0.4247 -0.1535
49771SOL    HW158281  11.366   4.350   7.610 -0.9307  2.0025 -0.3348
49771SOL    HW258282  11.349   4.344   7.760 -0.0888 -1.4361 -0.2753
49772SOL     OW58283  10.147   2.008   7.144 -0.1344 -0.3394 -0.6222
49772SOL    HW158284  10.209   1.960   7.088 -0.4164 -0.3421 -0.9331
49772SOL    HW258285  10.070   1.951   7.148  0.3435 -0.9267  0.7836
49773SOL     OW58286   3.787   4.412   3.575 -0.5450  0.2915 -0.3290
49773SOL    HW158287   3.720   4.380   3.636  0.3127 -0.3600  0.2928
49773SOL    HW258288   3.855   4.448   3.632  0.2493 -0.2878 -0.8918
49774SOL     OW58289   2.302   9.429   4.584 -0.3716 -0.0308  0.0594
49774SOL    HW158290   2.342   9.365   4.642 -0.6834  1.8906  2.5931
49774SOL    HW258291   2.364   9.503   4.584 -1.8391  1.2609  0.5947
49775SOL     OW58292   4.703   7.667  11.584 -0.0259 -0.4414  0.0147
49775SOL    HW158293   4.768   7.597  11.583  0.6392  0.1696 -0.2881
49775SOL    HW258294   4.625   7.627  11.623  1.0420 -0.7376  1.9416
49776SOL     OW58295   0.895   5.311   1.197  0.2962 -0.2400  0.0348
49776SOL    HW158296   0.906   5.245   1.265  0.9506  0.1212  0.2826
49776SOL    HW258297   0.903   5.395   1.243 -1.5921  0.0606 -0.0774
49777SOL     OW58298   0.386  12.479   8.916 -0.2830  0.8020 -0.5374
49777SOL    HW158299   0.393  12.407   8.852 -1.8893  0.6102 -0.5340
49777SOL    HW258300   0.476  12.492   8.946  0.2162 -0.4473 -1.3693
49778SOL     OW58301   1.701   2.147   3.825  0.0457  0.1107 -0.1482
49778SOL    HW158302   1.757   2.215   3.788  1.6018 -1.9242 -1.7413
49778SOL    HW258303   1.743   2.124   3.908  2.4353 -2.2189 -1.8656
49779SOL     OW58304   3.491   8.159   6.761 -0.1399  0.2581 -0.4758
49779SOL    HW158305   3.515   8.091   6.698  1.3091 -1.4048  1.7230
49779SOL    HW258306   3.545   8.235   6.737  2.9748 -1.4342  0.6662
49780SOL     OW58307   3.991   8.608   5.397 -0.0294 -0.2766 -0.1014
49780SOL    HW158308   3.989   8.520   5.435  1.4304 -0.8860 -1.3597
49780SOL    HW258309   3.952   8.598   5.310 -0.2845  0.4306 -0.0806
49781SOL     OW58310   6.075   4.960   4.614  0.4270 -0.5447 -0.1159
49781SOL    HW158311   5.996   5.011   4.635  0.9059 -0.1325  0.7399
49781SOL    HW258312   6.045   4.896   4.550 -0.8602 -1.0622  0.9374
49782SOL     OW58313   0.306   7.221   1.104 -0.2083  0.1962 -0.4691
49782SOL    HW158314   0.371   7.255   1.167 -1.0528 -0.3878  0.7571
49782SOL    HW258315   0.313   7.280   1.029 -0.1817  1.8346  0.7616
49783SOL     OW58316  11.959  11.177   5.219 -0.7105  0.3345 -0.0632
49783SOL    HW158317  11.886  11.142   5.169 -0.1574  0.9810 -1.3695
49783SOL    HW258318  11.968  11.267   5.189 -1.4971  1.3646  2.5483
49784SOL     OW58319   6.858   3.992   1.067 -0.0136 -0.1294 -0.8528
49784SOL    HW158320   6.773   3.997   1.111  0.6800 -2.7280  1.0162
49784SOL    HW258321   6.839   4.016   0.976 -2.9480 -1.5167 -0.7155
49785SOL     OW58322   7.498   4.565   1.638  0.0219  0.0431  0.4242
49785SOL    HW158323   7.500   4.472   1.659  2.0535  0.1769  1.0169
49785SOL    HW258324   7.428   4.600   1.694 -1.6354 -1.2771 -0.7348
49786SOL     OW58325  10.628  11.801   4.621  0.0094 -0.4942  0.2217
49786SOL    HW158326  10.539  11.777   4.595 -1.9492  1.8854  3.9449
49786SOL    HW258327  10.656  11.731   4.679 -0.1939 -0.4000  0.4380
49787SOL     OW58328   2.631  12.490   5.411  0.2837 -0.0227 -0.0312
49787SOL    HW158329   2.598  12.560   5.467  2.6282  0.3718  0.9937
49787SOL    HW258330   2.653  12.534   5.329  0.7039  0.2398  0.2167
49788SOL     OW58331   7.724   6.186   0.235 -0.2785 -0.6207  0.0426
49788SOL    HW158332   7.661   6.174   0.306 -2.3049  2.3034 -1.0469
49788SOL    HW258333   7.790   6.245   0.272 -1.4022  1.0060 -0.4158
49789SOL     OW58334  10.948   7.039   8.918  0.4972  0.3541  0.8498
49789SOL    HW158335  11.038   7.008   8.907  0.7151  0.5999  1.9283
49789SOL    HW258336  10.895   6.959   8.908  0.5877  0.5338 -2.2678
49790SOL     OW58337   3.642   0.145   7.341  0.0641 -0.0740  0.0230
49790SOL    HW158338   3.716   0.178   7.290 -0.0637 -0.6998 -0.5816
49790SOL    HW258339   3.682   0.097   7.413  0.2503  1.2234  0.8077
49791SOL     OW58340  10.720   9.092   4.815 -0.6724 -0.5315  0.4130
49791SOL    HW158341  10.793   9.118   4.872  0.3030  0.0848 -1.0773
49791SOL    HW258342  10.663   9.169   4.813  0.2554  0.1627 -0.9023
49792SOL     OW58343   6.307   0.129   8.386  0.0135  0.3494  0.0234
49792SOL    HW158344   6.283   0.037   8.396 -1.8120  0.8025  0.1540
49792SOL    HW258345   6.387   0.139   8.438 -0.5343 -0.8676  1.1424
49793SOL     OW58346   1.936   0.467   3.138  0.1624  0.1779 -0.2220
49793SOL    HW158347   1.922   0.532   3.069  0.9951 -0.2485 -0.8205
49793SOL    HW258348   1.852   0.461   3.184 -0.1379  1.1249 -0.6291
49794SOL     OW58349   0.471   4.922   4.075  0.3021 -0.0888 -0.0960
49794SOL    HW158350   0.528   4.848   4.053 -0.0004 -0.1875 -0.5568
49794SOL    HW258351   0.383   4.884   4.080 -0.0165  0.4043 -1.3772
49795SOL     OW58352   7.376  10.064   1.697  0.4577 -0.0735  0.1139
49795SOL    HW158353   7.367   9.975   1.664  0.7913 -0.2009  0.3636
49795SOL    HW258354   7.302  10.112   1.658  0.1598 -0.5076  0.1432
49796SOL     OW58355  10.099   5.330   3.828  0.6314  0.1896  0.6383
49796SOL    HW158356  10.018   5.338   3.878  0.4817  0.7862  0.3121
49796SOL    HW258357  10.076   5.276   3.753  0.3620  0.8723  0.2128
49797SOL     OW58358   8.460   7.791   3.116 -0.3890  0.1675 -0.4724
49797SOL    HW158359   8.419   7.870   3.081 -0.0612  0.6129  0.1337
49797SOL    HW258360   8.445   7.724   3.049 -0.0255  0.9332 -1.3340
49798SOL     OW58361   2.578   1.443   6.525  0.6474  0.4001  0.2706
49798SOL    HW158362   2.601   1.532   6.553  1.2066  0.1958  0.4809
49798SOL    HW258363   2.501   1.455   6.470 -0.7896  0.7756  2.2259
49799SOL     OW58364   1.971   9.895  11.466  0.9282  0.1002 -0.1578
49799SOL    HW158365   1.998   9.829  11.530  0.9720 -1.3456 -1.6010
49799SOL    HW258366   1.918   9.847  11.402  0.7066  1.5235 -1.1019
49800SOL     OW58367   9.369   1.512   7.511  0.5468 -0.2513  0.2888
49800SOL    HW158368   9.341   1.566   7.585 -1.5870 -0.3384 -0.4028
49800SOL    HW258369   9.389   1.427   7.549 -1.5195 -0.6040  0.6909
49801SOL     OW58370   6.439   4.860   4.227 -0.0736  0.5677 -0.5112
49801SOL    HW158371   6.389   4.779   4.219  0.4523  0.2415 -0.5332
49801SOL    HW258372   6.417   4.911   4.149  0.0429  0.1929 -0.7876
49802SOL     OW58373   1.734  12.431   3.004  0.4038 -1.1538  0.1993
49802SOL    HW158374   1.791  12.501   2.971  0.6269 -1.5038 -0.1658
49802SOL    HW258375   1.650  12.473   3.019 -0.3378 -1.3861 -2.7843
49803SOL     OW58376   7.885   2.850   0.518 -0.2103  0.1239 -0.1721
49803SOL    HW158377   7.845   2.835   0.433 -0.7020  0.5486 -0.0267
49803SOL    HW258378   7.882   2.765   0.562 -0.9494  0.1404 -0.1752
49804SOL     OW58379   7.130   7.311  10.486  0.2511 -0.4880 -0.3564
49804SOL    HW158380   7.040   7.279  10.495 -0.4654  1.3143 -0.6469
49804SOL    HW258381   7.181   7.233  10.464 -1.4750 -1.3360 -1.6468
49805SOL     OW58382   6.112   4.278   8.424  0.0793  0.2705 -0.7109
49805SOL    HW158383   6.101   4.372   8.439 -0.7618  0.1866 -0.7964
49805SOL    HW258384   6.206   4.264   8.436 -0.1110  0.6690  1.9060
49806SOL     OW58385   5.577  11.976   0.258 -0.3815 -0.0666 -0.3460
49806SOL    HW158386   5.535  12.058   0.234  0.0397  0.0030 -0.8742
49806SOL    HW258387   5.524  11.908   0.215 -1.9233 -0.2619  1.6953
49807SOL     OW58388   5.023  11.482   2.086  0.3039 -0.7413  0.2693
49807SOL    HW158389   5.096  11.479   2.147  0.3214  0.1121  0.3057
49807SOL    HW258390   4.986  11.394   2.087  1.0140 -1.0376  0.6363
49808SOL     OW58391   4.686   8.972  12.247  0.0610 -0.3924 -0.4483
49808SOL    HW158392   4.670   9.066  12.253 -0.8220 -0.5750  0.5148
49808SOL    HW258393   4.627   8.942  12.178  0.9518 -0.1306 -1.3397
49809SOL     OW58394   5.280  10.254   1.666  0.0039 -0.3055 -0.3294
49809SOL    HW158395   5.298  10.303   1.586 -0.2089 -1.1741 -0.9175
49809SOL    HW258396   5.347  10.187   1.669 -0.0264 -0.3182  0.1949
49810SOL     OW58397  12.242   6.158   9.812  0.5944  0.6403 -0.6185
49810SOL    HW158398  12.149   6.136   9.810  0.1168  2.3948 -0.0564
49810SOL    HW258399  12.279   6.105   9.882 -0.3888  1.2779  0.4023
49811SOL     OW58400   5.832   1.891   4.843 -0.0048 -0.7149  0.5094
49811SOL    HW158401   5.857   1.799   4.838  0.4259 -0.5267 -2.0448
49811SOL    HW258402   5.741   1.890   4.875 -0.4923 -2.1243 -0.8330
49812SOL     OW58403   1.203   7.788   3.292  0.8161 -0.2552  0.1926
49812SOL    HW158404   1.222   7.878   3.318  2.2088 -0.3202 -0.5142
49812SOL    HW258405   1.283   7.739   3.309 -0.3452 -1.7102  1.8779
49813SOL     OW58406   1.695   9.011   6.176  0.2304  0.0231  0.0814
49813SOL    HW158407   1.764   9.036   6.237  0.9764 -1.5760 -0.0447
49813SOL    HW258408   1.620   8.989   6.231  0.8578 -1.2877  0.4565
49814SOL     OW58409   4.004   7.102   4.869 -0.2741  0.1566  0.4233
49814SOL    HW158410   4.085   7.057   4.891 -1.4020 -3.2281 -1.6343
49814SOL    HW258411   4.031   7.175   4.814  1.5511  1.6149  3.0207
49815SOL     OW58412   9.709   4.046   6.020  0.0383  0.4532 -0.8057
49815SOL    HW158413   9.783   3.994   5.989  0.0734  0.3953 -0.6250
49815SOL    HW258414   9.732   4.069   6.110  0.0104  0.7565 -0.8763
49816SOL     OW58415   6.980   9.712   6.997 -0.0295 -0.0475  0.3104
49816SOL    HW158416   7.053   9.655   6.971  0.4800  1.0735 -0.8828
49816SOL    HW258417   7.018   9.771   7.062 -0.3930 -0.6862  1.1028
49817SOL     OW58418   0.917   7.269   7.851 -0.1281  0.5825 -0.2066
49817SOL    HW158419   0.891   7.177   7.858  2.6373 -0.2991 -0.3621
49817SOL    HW258420   0.986   7.279   7.916 -1.3582  3.0312  0.8716
49818SOL     OW58421   8.988   3.152   5.660 -0.3624 -0.2024 -0.3292
49818SOL    HW158422   8.942   3.222   5.613  0.1574  0.0215 -0.5191
49818SOL    HW258423   9.034   3.198   5.730  1.5484 -0.0363 -1.5952
49819SOL     OW58424   2.017   3.946   0.611 -0.0127 -0.4875  0.0822
49819SOL    HW158425   2.068   4.021   0.640 -0.2267 -0.5220  0.5647
49819SOL    HW258426   2.012   3.889   0.688 -1.3863 -0.1413  0.2711
49820SOL     OW58427   0.336   8.457  11.983  0.3556 -1.0624 -0.2665
49820SOL    HW158428   0.422   8.433  11.948 -0.1463 -0.1342 -2.3396
49820SOL    HW258429   0.282   8.379  11.970  0.4458 -1.0648 -0.6601
49821SOL     OW58430   4.390   3.333   7.897  0.2629  0.4579  0.0213
49821SOL    HW158431   4.430   3.330   7.810 -0.3634 -0.3984 -0.2487
49821SOL    HW258432   4.301   3.302   7.884 -0.3928  1.9166  0.6893
49822SOL     OW58433   7.535  10.775   7.394  0.2939  0.0839 -0.6385
49822SOL    HW158434   7.530  10.870   7.382  0.8237  0.4983  1.9261
49822SOL    HW258435   7.486  10.758   7.474 -0.1123 -1.8811 -1.2555
49823SOL     OW58436   1.883   4.848  12.376  0.3593 -0.1616  0.5143
49823SOL    HW158437   1.871   4.758  12.406 -3.0057 -0.0126  0.0023
49823SOL    HW258438   1.854   4.902  12.450 -0.5524  0.3839 -0.2170
49824SOL     OW58439   3.915  10.820  11.282  0.3258  0.3554  0.5636
49824SOL    HW158440   3.885  10.729  11.278  1.7071 -0.1313  0.8013
49824SOL    HW258441   4.003  10.815  11.319  1.3294  1.5638 -1.4670
49825SOL     OW58442   3.965   3.554   1.342 -0.7582  0.3435 -0.3040
49825SOL    HW158443   3.990   3.478   1.394  0.3755  0.2255 -0.9900
49825SOL    HW258444   3.982   3.629   1.399  0.2159  0.1992 -0.3969
49826SOL     OW58445   1.241   4.840   2.516 -0.1889  0.2112  0.6195
49826SOL    HW158446   1.145   4.845   2.508 -0.0350  1.6301 -1.0424
49826SOL    HW258447   1.265   4.763   2.464 -0.3545  0.5602  0.0154
49827SOL     OW58448  10.867  12.298   7.044  0.4247 -0.1552  0.0029
49827SOL    HW158449  10.938  12.250   7.087  0.0698 -0.3326  0.4031
49827SOL    HW258450  10.802  12.230   7.023 -1.5461  0.4216  3.4056
49828SOL     OW58451  11.068   1.566   9.676 -0.1035  0.2346 -0.0836
49828SOL    HW158452  11.144   1.619   9.650  1.0531 -1.6582 -0.7624
49828SOL    HW258453  11.023   1.545   9.594  0.2822 -0.9821 -0.0083
49829SOL     OW58454   8.231  10.283   4.267  0.3147  0.0041  0.0829
49829SOL    HW158455   8.298  10.278   4.335 -0.1463  0.1199  0.5507
49829SOL    HW258456   8.185  10.366   4.283  0.9277  0.6055 -1.0637
49830SOL     OW58457   4.683  11.898   7.909 -0.2551  0.3173 -0.0694
49830SOL    HW158458   4.642  11.824   7.865  1.7081 -1.8811  1.5653
49830SOL    HW258459   4.741  11.937   7.843  1.3509 -1.8553 -0.0595
49831SOL     OW58460   7.323  10.228   6.764  0.0367  0.3701  0.5332
49831SOL    HW158461   7.319  10.262   6.853 -0.4648 -0.7021  0.9359
49831SOL    HW258462   7.232  10.210   6.741  0.3280 -1.4558  0.6604
49832SOL     OW58463   3.955   7.178  10.132 -0.1744 -0.2583  0.2106
49832SOL    HW158464   3.952   7.161  10.038 -1.1828 -1.7182  0.4694
49832SOL    HW258465   3.937   7.271  10.140  1.4806  0.2234 -1.1053
49833SOL     OW58466  10.897  11.082   8.183  0.1231 -0.0193 -0.5606
49833SOL    HW158467  10.974  11.111   8.135 -0.2908  0.6482 -0.8356
49833SOL    HW258468  10.930  11.056   8.269  0.4702  1.5869 -0.1905
49834SOL     OW58469   0.186   3.734   7.344  0.1665  0.1032  0.2790
49834SOL    HW158470   0.212   3.694   7.261  2.9158  1.0696  0.5821
49834SOL    HW258471   0.205   3.668   7.410  1.8129  0.7396  0.4814
49835SOL     OW58472   8.859   3.367   5.567 -0.3118  0.4126  0.7745
49835SOL    HW158473   8.784   3.426   5.555 -0.6423 -0.4449 -1.9616
49835SOL    HW258474   8.924   3.397   5.504  1.1553  0.3229  2.1992
49836SOL     OW58475   9.337  11.772   9.290  0.7195  0.0445  0.0648
49836SOL    HW158476   9.262  11.748   9.235  0.8064 -0.3391  0.1142
49836SOL    HW258477   9.400  11.702   9.277  0.8427  0.0825  0.4577
49837SOL     OW58478  12.041   4.956   2.324  0.2224 -0.1837 -0.1688
49837SOL    HW158479  12.089   4.975   2.243  0.3124  1.3042  0.1991
49837SOL    HW258480  12.042   4.861   2.331  1.9078 -0.2612 -0.9099
49838SOL     OW58481  12.022  12.116   9.067  0.0707  0.2135  0.1745
49838SOL    HW158482  12.017  12.211   9.057  0.2686  0.4301  1.7393
49838SOL    HW258483  11.939  12.084   9.032  0.7820  0.7487 -2.1255
49839SOL     OW58484   6.054   4.492   1.984 -0.7818  0.5213  0.3825
49839SOL    HW158485   6.085   4.411   1.944 -1.6054 -0.0853  0.9267
49839SOL    HW258486   6.040   4.469   2.076  0.3721  1.6858  0.8883
49840SOL     OW58487  11.905  10.671   7.812  0.3425  0.7350 -0.3632
49840SOL    HW158488  11.909  10.611   7.737  0.4724  2.4481 -1.7747
49840SOL    HW258489  11.991  10.712   7.816 -0.0148  1.4740  0.0421
49841SOL     OW58490   8.224   0.951   0.496  0.6150  0.1289 -0.0687
49841SOL    HW158491   8.206   0.955   0.590  1.4273 -0.8325  0.1392
49841SOL    HW258492   8.141   0.976   0.455  0.0545 -0.0989  0.8891
49842SOL     OW58493  12.203  12.193   7.413  0.0645  0.2835  0.5221
49842SOL    HW158494  12.235  12.200   7.503  0.1758 -0.9405  0.5978
49842SOL    HW258495  12.127  12.251   7.409  0.5956  1.0291  1.1496
49843SOL     OW58496   2.267   7.786   9.116  0.5225 -0.0118  0.0511
49843SOL    HW158497   2.275   7.694   9.089  1.6145 -0.0715  0.4830
49843SOL    HW258498   2.311   7.788   9.201 -0.7106  0.6459  0.6894
49844SOL     OW58499  10.718   4.395  11.598 -0.0601 -0.0305  0.1614
49844SOL    HW158500  10.792   4.401  11.536  0.4493 -2.9931  0.3661
49844SOL    HW258501  10.641   4.391  11.542  0.2724 -0.9793 -0.2512
49845SOL     OW58502   0.939   0.592   4.898  0.4123  0.0642  0.0895
49845SOL    HW158503   0.893   0.631   4.972  1.0416  0.4527  0.2825
49845SOL    HW258504   0.899   0.633   4.821  0.5757  0.5541  0.2630
49846SOL     OW58505   6.042   9.385   8.755 -0.4100 -0.6491  0.7344
49846SOL    HW158506   5.990   9.438   8.815 -0.4283 -0.6318  0.7029
49846SOL    HW258507   6.043   9.298   8.795 -1.8479 -1.0820 -0.0894
49847SOL     OW58508   7.955   3.902   7.891 -1.0009  0.1185 -0.4528
49847SOL    HW158509   7.951   3.991   7.925  0.1486 -0.1718  0.4825
49847SOL    HW258510   7.899   3.852   7.950  2.0527 -0.6540  2.0461
49848SOL     OW58511   9.932   1.490   7.740 -0.3443 -0.2878 -0.0443
49848SOL    HW158512   9.852   1.477   7.791 -0.0628 -2.6604 -0.0747
49848SOL    HW258513   9.903   1.483   7.649 -0.2271 -0.3553 -0.0761
49849SOL     OW58514   7.523   6.950   2.355  0.1645  0.0842 -0.2727
49849SOL    HW158515   7.430   6.934   2.372  0.3776 -0.2792  0.5945
49849SOL    HW258516   7.550   6.875   2.302  0.1229 -0.1617  0.0513
49850SOL     OW58517  11.457   8.944   5.401 -0.0498  0.2398 -0.8945
49850SOL    HW158518  11.456   8.878   5.469  1.9054  1.5560  0.5113
49850SOL    HW258519  11.500   8.902   5.327  0.0126 -0.4429 -0.4774
49851SOL     OW58520  11.364   5.552   7.915  0.3004  0.0810 -0.1757
49851SOL    HW158521  11.275   5.534   7.945  0.9490 -1.2955  1.0542
49851SOL    HW258522  11.406   5.596   7.989  1.4425 -1.8538  0.4001
49852SOL     OW58523  11.067   6.718   9.042 -0.2543 -0.5474 -0.3239
49852SOL    HW158524  11.026   6.771   9.110  0.8977 -0.9464  0.7185
49852SOL    HW258525  11.137   6.773   9.007 -0.3262 -0.6414 -0.6161
49853SOL     OW58526   7.911  10.086   5.953 -0.2808  0.4483 -0.2207
49853SOL    HW158527   7.902  10.145   5.878  0.2294  3.4561  1.9167
49853SOL    HW258528   8.005  10.069   5.959 -0.1837  1.1770  0.4012
49854SOL     OW58529  10.054   0.367   0.032 -0.1507 -0.5547  0.1659
49854SOL    HW158530   9.961   0.364   0.010 -0.3018 -0.2302  0.7374
49854SOL    HW258531  10.096   0.399  -0.047 -0.3113 -2.3342 -0.6927
49855SOL     OW58532   8.918   6.762   7.822  0.3372  0.1517  0.0847
49855SOL    HW158533   8.838   6.769   7.876  0.2141  0.5194 -0.1385
49855SOL    HW258534   8.968   6.840   7.844  0.4947  0.0765 -0.0058
49856SOL     OW58535  11.560   8.057   2.989 -0.1881 -0.1887 -0.2568
49856SOL    HW158536  11.497   8.037   3.057 -1.2957 -2.4925 -1.8207
49856SOL    HW258537  11.554   7.983   2.928  2.5526  0.5073 -1.5447
49857SOL     OW58538   2.204   3.763   8.445 -0.6560  0.3520 -0.1923
49857SOL    HW158539   2.138   3.771   8.514  1.2996 -1.7752  2.1782
49857SOL    HW258540   2.171   3.694   8.388 -1.0728  0.1321  0.3037
49858SOL     OW58541  12.055   6.530   3.601  0.3641 -0.1592 -0.0460
49858SOL    HW158542  11.995   6.577   3.658 -0.5893 -1.0009 -0.3370
49858SOL    HW258543  12.015   6.535   3.514  0.2640 -1.4625 -0.0889
49859SOL     OW58544   1.777   0.013   4.218 -0.0069 -0.1270 -0.1827
49859SOL    HW158545   1.717   0.063   4.273  0.3991  0.5322 -0.3296
49859SOL    HW258546   1.863   0.025   4.258  0.4761  1.2188 -1.5048
49860SOL     OW58547  11.759   8.340   7.310 -0.7799 -0.2688 -0.1858
49860SOL    HW158548  11.716   8.365   7.392 -0.0950  2.2617 -0.5132
49860SOL    HW258549  11.794   8.252   7.326 -1.7315 -0.3340  1.7744
49861SOL     OW58550   7.598   4.100   9.736 -0.1905  0.5732 -0.1851
49861SOL    HW158551   7.685   4.127   9.766 -0.3869 -0.8135  1.8399
49861SOL    HW258552   7.614   4.020   9.685 -0.2857  0.0233  0.6231
49862SOL     OW58553  10.557   0.252   0.596  0.4791  0.1578  0.1502
49862SOL    HW158554  10.558   0.172   0.544 -1.8375 -0.6896  1.2810
49862SOL    HW258555  10.598   0.318   0.540  1.1984 -1.4945 -1.3401
49863SOL     OW58556   1.584   4.002   1.146 -0.3367 -0.0219 -0.5276
49863SOL    HW158557   1.639   4.063   1.096  1.7285 -0.8696  0.5807
49863SOL    HW258558   1.557   4.052   1.223  1.0207 -0.3109  0.1770
49864SOL     OW58559   3.244   6.923   7.069  0.3355 -0.4299 -0.6370
49864SOL    HW158560   3.281   6.930   7.157 -2.0169 -0.8805  0.4875
49864SOL    HW258561   3.167   6.981   7.072 -0.2622 -1.1121 -2.1182
49865SOL     OW58562   6.536   8.804   1.932 -0.0344  0.2869  0.2643
49865SOL    HW158563   6.507   8.738   1.996 -1.5987  1.8989  1.3326
49865SOL    HW258564   6.602   8.855   1.979 -0.5857  0.9681  0.3056
49866SOL     OW58565   1.496   2.296   5.042  0.2803  0.3468  0.0965
49866SOL    HW158566   1.526   2.231   4.978  1.4852 -0.1400  1.1222
49866SOL    HW258567   1.576   2.341   5.070 -0.4724  1.9364 -0.1944
49867SOL     OW58568   1.969   9.209   4.635 -0.1808 -0.2803 -0.1661
49867SOL    HW158569   1.875   9.214   4.614 -0.3631 -1.0632  0.4106
49867SOL    HW258570   1.973   9.150   4.710  0.6805  0.5842  0.4892
49868SOL     OW58571   9.484   8.902   4.262 -0.3124  0.2424 -0.5884
49868SOL    HW158572   9.467   8.944   4.177  1.5904  0.2670 -1.0019
49868SOL    HW258573   9.521   8.817   4.240  2.0401  0.9856  0.1037
49869SOL     OW58574   1.658  11.523   8.146 -0.5291 -0.1164 -0.2137
49869SOL    HW158575   1.697  11.610   8.152 -0.9796  0.0103  1.3303
49869SOL    HW258576   1.727  11.463   8.173 -0.6340 -0.1068  0.0840
49870SOL     OW58577   9.135   4.957  11.397 -0.7606 -0.2326 -0.4868
49870SOL    HW158578   9.078   4.892  11.356 -1.8241 -0.9904  1.9783
49870SOL    HW258579   9.208   4.906  11.431 -0.3025  0.2584 -0.7280
49871SOL     OW58580   4.188   3.982   7.371  0.4323  0.1304 -0.6992
49871SOL    HW158581   4.259   3.932   7.412  0.4821  0.6038 -0.2067
49871SOL    HW258582   4.205   3.974   7.277  0.3390 -0.9226 -0.6431
49872SOL     OW58583   9.679   0.440   5.084  0.1703 -0.2305 -0.1207
49872SOL    HW158584   9.753   0.485   5.042  0.3301  1.5328  1.8905
49872SOL    HW258585   9.720   0.380   5.146 -0.1061 -1.2704 -0.9007
49873SOL     OW58586  12.467   3.114  11.935  0.5315 -0.0175  0.0723
49873SOL    HW158587  12.430   3.120  12.023  0.0628  1.8871 -0.2146
49873SOL    HW258588  12.410   3.168  11.881  1.6562  0.0365 -1.1146
49874SOL     OW58589   4.338   6.153   7.736 -0.3343  0.3299 -0.1055
49874SOL    HW158590   4.373   6.221   7.678  1.5909 -0.6231 -0.1565
49874SOL    HW258591   4.301   6.088   7.677  0.0678  0.1722 -0.1855
49875SOL     OW58592   5.343   2.624   9.346  0.3431  0.3307  0.2011
49875SOL    HW158593   5.316   2.657   9.260  1.0647 -0.2225 -0.2478
49875SOL    HW258594   5.438   2.627   9.344  0.4212 -1.3600  0.2982
49876SOL     OW58595  11.066   6.158   8.482  0.3902 -0.2917 -0.4224
49876SOL    HW158596  11.143   6.140   8.534 -0.1583 -0.3735  0.3772
49876SOL    HW258597  11.014   6.218   8.535  0.2806  0.4168 -1.3034
49877SOL     OW58598   8.584   0.472  11.098  0.1840  0.9708 -0.2133
49877SOL    HW158599   8.649   0.405  11.074 -0.8478 -0.9807  2.0661
49877SOL    HW258600   8.636   0.551  11.112  1.8608 -0.0758 -0.1542
49878SOL     OW58601   6.055   0.687  10.246 -0.5073  0.2768 -0.3409
49878SOL    HW158602   6.051   0.706  10.339  2.3342  0.4002 -0.1408
49878SOL    HW258603   6.039   0.771  10.203 -2.4533  0.1006 -0.0587
49879SOL     OW58604  10.881   5.710  11.374  0.3045  0.5184 -0.6455
49879SOL    HW158605  10.839   5.707  11.288  1.0926  0.8964 -1.0578
49879SOL    HW258606  10.894   5.803  11.392  0.4360  0.4296 -0.2641
49880SOL     OW58607   5.010   2.341  11.806 -0.9652 -0.7321  0.8040
49880SOL    HW158608   4.928   2.323  11.852 -1.4337 -0.7818 -0.0471
49880SOL    HW258609   5.077   2.302  11.862 -1.6464 -1.9681  0.7911
49881SOL     OW58610   7.989   0.823   2.632  0.4629 -0.7871 -0.0743
49881SOL    HW158611   8.054   0.887   2.602  0.7390 -0.6886  0.7278
49881SOL    HW258612   8.040   0.756   2.676  0.3858 -2.5426 -2.4601
49882SOL     OW58613   7.115   1.998   5.605  0.1705 -0.2481  0.4747
49882SOL    HW158614   7.045   1.963   5.550 -0.1821 -0.1839  0.8829
49882SOL    HW258615   7.184   2.022   5.543  0.4651 -1.7310  0.1915
49883SOL     OW58616   4.511  11.790   4.292 -0.3143  0.6663  0.1539
49883SOL    HW158617   4.552  11.859   4.241 -0.5857 -0.0201 -1.0194
49883SOL    HW258618   4.583  11.746   4.336 -0.2089  2.2848  1.7223
49884SOL     OW58619  10.811   4.083  10.614  0.3536 -0.1208 -0.3600
49884SOL    HW158620  10.815   4.019  10.542 -2.5269  0.8467 -1.5013
49884SOL    HW258621  10.878   4.148  10.591  0.7066 -0.7515 -1.1842
49885SOL     OW58622   8.217   4.039   6.863 -0.0941 -0.2948 -0.6488
49885SOL    HW158623   8.134   4.049   6.818 -0.0063  1.7432 -0.4567
49885SOL    HW258624   8.194   4.044   6.956  0.0474 -1.7526 -0.5045
49886SOL     OW58625   7.777  12.339  10.345  0.1978 -0.0511 -0.4142
49886SOL    HW158626   7.826  12.400  10.399 -1.1793  0.9444 -0.2273
49886SOL    HW258627   7.688  12.339  10.382 -0.2410 -0.9624 -1.3775
49887SOL     OW58628   6.731   2.930   0.784  0.3286  0.3360  0.3966
49887SOL    HW158629   6.740   2.838   0.761 -2.4164 -0.1628  0.9562
49887SOL    HW258630   6.784   2.941   0.863 -0.0949 -1.0197  0.8941
49888SOL     OW58631   0.091   2.324   5.428 -0.1865 -0.1474  0.4129
49888SOL    HW158632   0.056   2.411   5.410 -0.0270 -0.1005  0.3275
49888SOL    HW258633   0.134   2.332   5.513 -1.3436 -0.4855  1.0524
49889SOL     OW58634   2.556   0.310   6.856 -0.2913 -0.2970 -0.0372
49889SOL    HW158635   2.606   0.315   6.774  1.0997  1.6352  0.8428
49889SOL    HW258636   2.470   0.278   6.829  0.2126 -0.0492 -2.2074
49890SOL     OW58637  10.290   3.387   1.158 -0.1130 -0.5340  0.4564
49890SOL    HW158638  10.364   3.397   1.217  0.0577  1.0817 -0.0017
49890SOL    HW258639  10.321   3.417   1.073 -0.5772 -2.1504 -0.3232
49891SOL     OW58640  11.516   8.452   0.752  0.3454  0.4239 -0.1158
49891SOL    HW158641  11.523   8.538   0.794  1.6758 -0.3361  1.3672
49891SOL    HW258642  11.432   8.453   0.707 -0.2226  2.0600  0.9003
49892SOL     OW58643   8.460   3.098   3.707  0.0824  0.2343  0.8941
49892SOL    HW158644   8.430   3.187   3.726 -2.8895 -0.3590 -0.5018
49892SOL    HW258645   8.487   3.101   3.615 -1.0169 -0.5093  0.5337
49893SOL     OW58646   5.215   3.508   0.271 -0.7263 -0.3716  0.2022
49893SOL    HW158647   5.307   3.514   0.297 -0.7544  0.4623  0.1412
49893SOL    HW258648   5.209   3.428   0.219 -0.5977 -1.8965  2.4426
49894SOL     OW58649  10.045   5.912  12.116  0.4908  0.3465 -0.0406
49894SOL    HW158650  10.065   5.862  12.196  0.8211  1.2763  0.4684
49894SOL    HW258651  10.097   5.992  12.124 -1.1143  1.4485 -0.1244
49895SOL     OW58652   5.203  11.341   6.405 -0.4954  0.4494 -0.1152
49895SOL    HW158653   5.206  11.434   6.426 -3.7316  0.7490 -0.4795
49895SOL    HW258654   5.292  11.310   6.422  0.6314  3.5132  0.2685
49896SOL     OW58655   5.320   2.568   2.780 -0.0904 -0.3253  0.3709
49896SOL    HW158656   5.399   2.557   2.726 -1.1274 -2.7273 -0.7939
49896SOL    HW258657   5.333   2.507   2.853 -0.0270  0.7113  1.2362
49897SOL     OW58658   3.643   9.838   4.427 -0.1636  0.1289 -0.2111
49897SOL    HW158659   3.593   9.756   4.432 -2.4324  1.4097 -0.3205
49897SOL    HW258660   3.729   9.816   4.462 -0.5693 -2.3743 -0.5896
49898SOL     OW58661   8.007   8.528   1.263 -0.0853  0.1388  0.1051
49898SOL    HW158662   8.091   8.484   1.258  0.0414  0.4879 -1.1526
49898SOL    HW258663   8.014   8.601   1.202 -0.9268  0.8262  0.7985
49899SOL     OW58664   1.065  11.519   6.164 -0.4743 -0.0068 -0.1550
49899SOL    HW158665   0.990  11.573   6.190 -0.7717  0.1928 -1.3590
49899SOL    HW258666   1.066  11.524   6.069  2.0243  1.2971 -0.1439
49900SOL     OW58667   9.335   7.040   2.583  0.2632  0.1493  0.1063
49900SOL    HW158668   9.397   6.972   2.607  0.6273  0.7113  0.7981
49900SOL    HW258669   9.254   7.015   2.626  0.1021 -0.3891 -0.4950
49901SOL     OW58670   8.330   1.815   6.703 -0.0834  0.4283 -0.0249
49901SOL    HW158671   8.390   1.876   6.747  1.9425 -0.9599 -0.7431
49901SOL    HW258672   8.369   1.729   6.717 -2.3978 -0.6614  0.1829
49902SOL     OW58673   0.536   0.589   4.658  0.0028  0.0064  0.4255
49902SOL    HW158674   0.508   0.578   4.567 -1.7779 -0.1657  0.9621
49902SOL    HW258675   0.629   0.563   4.658  0.5177  1.5548 -1.6306
49903SOL     OW58676   8.614  10.062   1.459  0.2065  0.0938 -0.5616
49903SOL    HW158677   8.588  10.022   1.376 -0.8199 -0.5602  0.0502
49903SOL    HW258678   8.682  10.125   1.435 -0.1830  0.0347 -1.9171
49904SOL     OW58679   6.409   0.372   1.708  0.5284 -0.6585 -0.2007
49904SOL    HW158680   6.382   0.333   1.791  1.0009  0.3806  0.4557
49904SOL    HW258681   6.329   0.378   1.657  0.2809 -1.5784  0.0521
49905SOL     OW58682  10.512  11.028   7.852  0.0702  0.0657  0.3261
49905SOL    HW158683  10.533  10.971   7.778  0.8158  1.6482 -0.7295
49905SOL    HW258684  10.555  10.986   7.927 -0.5897 -1.4856 -0.1303
49906SOL     OW58685  11.466   3.266  10.769 -0.3662 -0.3077 -0.0446
49906SOL    HW158686  11.473   3.174  10.796 -1.2368  0.1501  1.9349
49906SOL    HW258687  11.541   3.309  10.810  1.2396 -0.4123 -2.6480
49907SOL     OW58688  10.646  12.260   2.329  0.1061 -0.0144 -0.3943
49907SOL    HW158689  10.687  12.345   2.345 -0.2808  0.3225 -1.1636
49907SOL    HW258690  10.568  12.280   2.277 -1.5036 -0.5526  1.6954
49908SOL     OW58691   7.814   2.846   7.161  0.0176 -0.1695  0.0476
49908SOL    HW158692   7.815   2.751   7.156  2.8466 -0.3476  1.9847
49908SOL    HW258693   7.834   2.874   7.071 -0.8270 -1.3675 -0.5432
49909SOL     OW58694  12.531  10.314   3.974 -0.0325 -0.2054  0.4263
49909SOL    HW158695  12.530  10.218   3.976 -1.1364 -0.2818 -1.4336
49909SOL    HW258696  12.623  10.337   3.967  0.1863 -1.1715  0.0133
49910SOL     OW58697   7.450  10.296   8.526 -0.6750 -0.3457 -0.5606
49910SOL    HW158698   7.507  10.354   8.576 -0.5347 -0.6391 -0.3741
49910SOL    HW258699   7.494  10.288   8.441  0.5553 -2.0096  0.1735
49911SOL     OW58700  10.044   5.858   3.173 -0.0788  0.5166  0.1575
49911SOL    HW158701  10.113   5.810   3.220 -0.7368 -0.6072  0.0006
49911SOL    HW258702  10.029   5.807   3.093 -0.3621  1.3331 -0.3193
49912SOL     OW58703   3.462   0.167   1.728  0.5122  0.0402  0.1578
49912SOL    HW158704   3.555   0.161   1.706  0.4766  0.3003 -0.0761
49912SOL    HW258705   3.452   0.251   1.772  0.2011  0.5262 -0.8123
49913SOL     OW58706   4.158   2.069   7.524  0.0788 -0.0049 -0.4895
49913SOL    HW158707   4.114   1.997   7.480  0.7085 -0.2753 -0.6878
49913SOL    HW258708   4.095   2.099   7.589 -1.1298  0.8235 -1.9805
49914SOL     OW58709   5.093   1.561   2.200  0.2960  0.1055  0.2736
49914SOL    HW158710   5.051   1.634   2.154 -2.5824 -1.5702 -0.0178
49914SOL    HW258711   5.134   1.509   2.131  0.7735  0.4611  0.2810
49915SOL     OW58712   8.466   2.010   7.715 -0.0996 -0.5342 -0.0934
49915SOL    HW158713   8.433   2.026   7.627  1.0794  0.7114 -0.3559
49915SOL    HW258714   8.393   1.971   7.762 -1.3904  0.6102 -1.0846
49916SOL     OW58715   8.531   0.396   9.762  0.0251  0.4940  0.3173
49916SOL    HW158716   8.523   0.471   9.703  0.1491  0.7000  0.5544
49916SOL    HW258717   8.520   0.434   9.850  1.1372  0.4174  0.5115
49917SOL     OW58718   1.253   3.591   2.498 -0.0669 -0.4049  0.0317
49917SOL    HW158719   1.236   3.680   2.469  0.1819  0.2250  1.7032
49917SOL    HW258720   1.170   3.545   2.485  0.0784 -0.2225 -1.7522
49918SOL     OW58721   4.050  11.786   0.888 -0.3496  0.8228  0.0950
49918SOL    HW158722   4.065  11.741   0.805  0.1423  1.1260  0.0178
49918SOL    HW258723   4.120  11.754   0.945 -0.8374  0.4164  0.4776
49919SOL     OW58724   8.063  10.099   1.634  0.0195 -0.4823  0.1052
49919SOL    HW158725   8.132  10.039   1.663  0.6370 -0.6928 -1.6890
49919SOL    HW258726   8.106  10.184   1.628 -0.1782 -0.3826  0.0880
49920SOL     OW58727  11.602   1.321   5.255  0.1116  0.4266  0.1814
49920SOL    HW158728  11.520   1.271   5.254  0.6255 -0.4856  1.4170
49920SOL    HW258729  11.649   1.291   5.177 -1.0997  1.6758 -1.1046
49921SOL     OW58730   9.713   1.920  12.379 -0.3314 -0.3649 -0.5264
49921SOL    HW158731   9.644   1.853  12.383 -0.7342  0.0513 -0.4867
49921SOL    HW258732   9.751   1.911  12.292  1.0844 -2.1034  0.2038
49922SOL     OW58733   7.520  11.843  10.840  0.1967 -0.3165  0.0307
49922SOL    HW158734   7.536  11.752  10.813  1.4935 -0.3959  0.9670
49922SOL    HW258735   7.425  11.848  10.854  0.0164 -1.3180 -0.7162
49923SOL     OW58736  11.939   0.412  11.282  0.4125 -0.1406 -0.0048
49923SOL    HW158737  11.957   0.392  11.190  0.4786  0.8464 -0.2112
49923SOL    HW258738  11.857   0.367  11.301  0.5951 -0.6663 -0.4342
49924SOL     OW58739   9.107   2.679   7.437  0.0376  0.0335  0.1078
49924SOL    HW158740   9.113   2.624   7.359  0.4024  1.2004 -0.7156
49924SOL    HW258741   9.013   2.688   7.453 -0.0630  0.2781 -0.5726
49925SOL     OW58742   8.525  10.391   2.359  0.3871 -0.2325  0.5071
49925SOL    HW158743   8.530  10.483   2.386 -0.2566 -0.0620  0.0554
49925SOL    HW258744   8.514  10.394   2.264  1.7406 -0.8116  0.3021
49926SOL     OW58745   9.008   2.926   1.681  0.5286  0.8085  0.0422
49926SOL    HW158746   9.007   3.000   1.741  5.0355 -0.3139  1.9052
49926SOL    HW258747   9.092   2.934   1.635  0.2047 -1.9863 -1.2241
49927SOL     OW58748   8.162  10.687  11.951  0.2435  0.4444 -0.2674
49927SOL    HW158749   8.185  10.677  11.858  0.2282 -1.6046 -0.1142
49927SOL    HW258750   8.069  10.665  11.956 -0.4038  2.9166 -0.0448
49928SOL     OW58751  11.160  11.293   2.121 -0.1039 -0.4335  0.2644
49928SOL    HW158752  11.114  11.333   2.047 -0.7569 -1.1842  0.2493
49928SOL    HW258753  11.111  11.323   2.198  0.4353  0.1610  0.3810
49929SOL     OW58754  12.446   8.722   0.626  0.1720  0.3342  0.5710
49929SOL    HW158755  12.494   8.640   0.613 -0.8545 -0.3381  0.8677
49929SOL    HW258756  12.354   8.695   0.630 -0.2545  1.5920 -0.1314
49930SOL     OW58757   9.617   4.556   0.252 -0.1188  0.3686  0.2850
49930SOL    HW158758   9.603   4.610   0.330 -2.0548  2.6962 -1.5170
49930SOL    HW258759   9.614   4.618   0.179  0.6497 -1.8299 -1.7433
49931SOL     OW58760   1.699   4.121   7.193 -0.2865  0.5219 -0.3797
49931SOL    HW158761   1.732   4.149   7.108  0.8892  1.0113  0.2264
49931SOL    HW258762   1.607   4.149   7.193 -0.2272  0.7591 -1.3692
49932SOL     OW58763  12.537   9.286   4.816  0.0776  0.2094  0.3162
49932SOL    HW158764  12.508   9.309   4.904 -0.0728  0.1915  0.2722
49932SOL    HW258765  12.532   9.368   4.767  1.0697  0.4297  0.5597
49933SOL     OW58766   6.067  12.279  11.449 -0.0381 -0.5594  0.0951
49933SOL    HW158767   5.996  12.302  11.509  0.7685  1.2130  0.4367
49933SOL    HW258768   6.138  12.339  11.472  0.5637 -0.3460 -2.1244
49934SOL     OW58769   6.112   0.549   6.679 -0.6194  0.5492 -0.1076
49934SOL    HW158770   6.152   0.471   6.643 -1.5008  0.0964 -0.1401
49934SOL    HW258771   6.037   0.567   6.622 -1.0073  0.8315  0.4708
49935SOL     OW58772  11.175  12.372   0.859  0.0269 -0.0785  0.1431
49935SOL    HW158773  11.229  12.388   0.781 -1.4285 -1.1654 -1.1668
49935SOL    HW258774  11.201  12.439   0.921  1.1255  0.9462 -1.3606
49936SOL     OW58775   5.331   9.372   9.415  0.0442 -0.3268 -0.6670
49936SOL    HW158776   5.352   9.313   9.342  2.4931 -0.7029  0.2429
49936SOL    HW258777   5.294   9.450   9.373  0.3269 -0.9947 -2.2209
49937SOL     OW58778   9.388   6.961  12.274 -1.1066  0.1573 -0.3360
49937SOL    HW158779   9.416   7.040  12.227  0.2484  0.9165  1.6368
49937SOL    HW258780   9.468   6.909  12.282 -1.3491 -0.0377  0.9518
49938SOL     OW58781   0.985   9.355   3.204 -0.3335  0.0816  0.6214
49938SOL    HW158782   0.916   9.290   3.194  0.6697 -1.1381  1.3414
49938SOL    HW258783   0.984   9.376   3.298  0.1569  0.1857  0.6042
49939SOL     OW58784  11.804   3.009   5.698 -0.4274 -0.5105  0.2538
49939SOL    HW158785  11.829   2.973   5.783 -0.1071 -0.5330  0.1539
49939SOL    HW258786  11.742   2.946   5.661 -1.2441 -0.0636  0.8458
49940SOL     OW58787   4.695   0.276   1.069  0.0393  0.2998 -0.2831
49940SOL    HW158788   4.667   0.334   1.139  0.6310  0.6425 -0.3239
49940SOL    HW258789   4.732   0.200   1.113  0.3229  0.4727 -0.2191
49941SOL     OW58790   8.318  11.629   0.402  0.3174 -0.0648 -0.4170
49941SOL    HW158791   8.333  11.576   0.323  1.3919  0.0256 -0.2781
49941SOL    HW258792   8.284  11.712   0.368 -0.1158 -0.3611 -0.7217
49942SOL     OW58793  12.463   9.658  11.108 -1.1846  0.4619 -0.4138
49942SOL    HW158794  12.376   9.694  11.095 -0.7986  2.2699  1.4257
49942SOL    HW258795  12.485   9.681  11.199  1.7035  1.2068 -1.1892
49943SOL     OW58796   9.090   2.172   3.978  0.0435  0.4989  0.3882
49943SOL    HW158797   9.159   2.107   3.967 -1.6807 -1.3222 -0.4144
49943SOL    HW258798   9.049   2.150   4.061  0.8480  2.0416  1.2323
49944SOL     OW58799   7.230   6.330   6.379 -0.2688  0.9222 -0.1956
49944SOL    HW158800   7.168   6.371   6.440 -0.1300 -0.0305  0.6003
49944SOL    HW258801   7.180   6.317   6.299 -0.5320  1.9473 -0.2127
49945SOL     OW58802  11.601   8.607   2.837  0.2568  0.1907  0.4690
49945SOL    HW158803  11.677   8.549   2.839  0.9553  1.0337 -0.5886
49945SOL    HW258804  11.587   8.633   2.928  1.1643 -0.0680  0.6866
49946SOL     OW58805   7.672   6.806   6.679  0.7714  0.0500 -0.2920
49946SOL    HW158806   7.702   6.738   6.619  1.5419 -0.0391  0.1924
49946SOL    HW258807   7.748   6.828   6.733 -0.1541 -0.6122  1.3749
49947SOL     OW58808   6.219   9.244   8.110  0.0534 -0.1158 -0.0743
49947SOL    HW158809   6.266   9.249   8.194 -0.9408  0.5276  0.4658
49947SOL    HW258810   6.146   9.185   8.128  0.2048 -0.4952 -0.6869
49948SOL     OW58811   5.370  10.120   8.126  0.2146  0.3974 -0.5190
49948SOL    HW158812   5.308  10.049   8.108  0.3855  0.1723 -0.2348
49948SOL    HW258813   5.359  10.181   8.053 -0.3154  0.3430 -0.4884
49949SOL     OW58814  10.908   6.440  12.371 -0.2092 -0.3395  0.0375
49949SOL    HW158815  10.963   6.363  12.385 -0.6246 -1.0486 -1.8279
49949SOL    HW258816  10.968   6.514  12.380  0.6778 -1.0064 -0.1881
49950SOL     OW58817  11.618   8.264   0.113 -0.4926 -0.4073  0.4680
49950SOL    HW158818  11.593   8.220   0.032  1.2044  0.1102 -0.3933
49950SOL    HW258819  11.568   8.346   0.112  1.5069  0.8954 -1.5203
49951SOL     OW58820   4.352   7.306   0.617  0.2722 -0.0428 -0.6336
49951SOL    HW158821   4.370   7.288   0.709 -0.9098 -0.6739 -0.5016
49951SOL    HW258822   4.378   7.226   0.571  0.9078  0.2900 -0.8610
49952SOL     OW58823   0.271   1.310   5.250 -0.5312  0.1727 -0.3983
49952SOL    HW158824   0.227   1.333   5.168 -0.3082  0.1236 -0.5356
49952SOL    HW258825   0.337   1.378   5.262 -0.5102  0.1357 -0.3015
49953SOL     OW58826  10.797   7.566   0.937 -0.2251  0.0028  0.5192
49953SOL    HW158827  10.826   7.479   0.966 -0.4169  0.1170  1.0752
49953SOL    HW258828  10.866   7.597   0.880 -0.6324 -0.9518 -0.5266
49954SOL     OW58829   5.318   0.905   1.862 -0.3321 -0.2228 -0.0858
49954SOL    HW158830   5.361   0.919   1.778  0.3258  0.3570  0.3319
49954SOL    HW258831   5.225   0.917   1.844 -0.1765  0.0958 -0.6904
49955SOL     OW58832   0.402  10.565   7.983 -0.3373 -0.2634  0.0871
49955SOL    HW158833   0.395  10.470   7.972  0.9626 -0.3826  0.1584
49955SOL    HW258834   0.490  10.586   7.953 -0.3545  0.8244  0.7646
49956SOL     OW58835  11.191   8.783   2.281  0.2083  0.2581  0.0840
49956SOL    HW158836  11.277   8.774   2.240  0.0442  0.4083 -0.2975
49956SOL    HW258837  11.158   8.693   2.288  0.5899  0.1586  0.6564
49957SOL     OW58838   0.403   1.947   0.004  0.2645  0.2156 -0.7622
49957SOL    HW158839   0.386   1.862  -0.037 -0.4811  0.9239 -1.9676
49957SOL    HW258840   0.395   1.930   0.098  0.6737 -1.1607 -0.9558
49958SOL     OW58841  10.645   6.415   9.356  0.5250  0.2444  0.5469
49958SOL    HW158842  10.709   6.345   9.344  1.0229  0.6519  0.7610
49958SOL    HW258843  10.660   6.446   9.446  0.3678  0.6734  0.4291
49959SOL     OW58844   3.970  11.606   2.316  0.1515  0.2349  0.2812
49959SOL    HW158845   3.983  11.686   2.265  0.9503  0.6360  1.1071
49959SOL    HW258846   3.919  11.634   2.392 -1.5834 -0.4742 -0.5447
49960SOL     OW58847  10.978   7.839   2.204  0.1649  0.0385 -0.0598
49960SOL    HW158848  10.921   7.837   2.281  0.0698  0.3299 -0.1200
49960SOL    HW258849  10.999   7.747   2.186  0.2620 -0.0250  0.3698
49961SOL     OW58850   7.254  10.511   9.879  0.0216 -0.2495  0.0251
49961SOL    HW158851   7.241  10.525   9.972  0.7352  0.6236  0.0078
49961SOL    HW258852   7.240  10.597   9.839 -0.0831 -0.5693 -0.6551
49962SOL     OW58853   8.352   9.736   7.476 -0.0918  0.3547  0.1063
49962SOL    HW158854   8.328   9.809   7.418 -0.3144 -1.8927 -2.8636
49962SOL    HW258855   8.431   9.700   7.436  0.5153 -0.5586  2.0142
49963SOL     OW58856   4.871   1.729   1.661 -0.1533  0.0739  0.8081
49963SOL    HW158857   4.836   1.671   1.728 -0.9133  0.1023  0.4470
49963SOL    HW258858   4.902   1.806   1.709 -2.1997  0.8350  1.0192
49964SOL     OW58859   8.212   2.469   3.220  0.1380 -0.5027 -0.5065
49964SOL    HW158860   8.165   2.389   3.195  1.4114 -0.5926 -2.8578
49964SOL    HW258861   8.148   2.539   3.208 -0.5874 -0.9976  0.3072
49965SOL     OW58862  10.004   5.605   1.969 -0.0296 -0.3315 -0.1583
49965SOL    HW158863  10.061   5.534   1.998 -0.6081 -0.8598 -0.2904
49965SOL    HW258864  10.023   5.615   1.876 -0.3298 -0.6790 -0.2580
49966SOL     OW58865   0.721   0.776   1.051 -0.4344  0.4127  0.1729
49966SOL    HW158866   0.786   0.755   0.984 -0.3709  1.7471 -0.2168
49966SOL    HW258867   0.645   0.722   1.028  0.3954 -0.8943  0.4232
49967SOL     OW58868   5.772   0.719   8.883  0.1097  0.7319 -0.0844
49967SOL    HW158869   5.721   0.758   8.954  0.1984 -0.6701  0.7879
49967SOL    HW258870   5.710   0.712   8.811 -0.2406  1.3264  0.1506
49968SOL     OW58871   0.598  10.070   8.404 -0.0258 -0.3643  0.2303
49968SOL    HW158872   0.589   9.981   8.437 -1.2970 -0.6140 -0.7378
49968SOL    HW258873   0.686  10.072   8.365 -0.6728 -1.8070 -1.4331
49969SOL     OW58874   8.959   8.000   4.192 -0.4737  0.1666 -0.5619
49969SOL    HW158875   9.008   7.922   4.219 -0.5363  0.9029  1.9794
49969SOL    HW258876   8.955   7.994   4.097 -0.5887 -2.9959 -0.4783
49970SOL     OW58877   8.642   6.464  12.236  0.0061  0.0524  0.5416
49970SOL    HW158878   8.619   6.377  12.270 -0.0077 -0.1115  0.1237
49970SOL    HW258879   8.738   6.465  12.235  0.0697 -1.0385 -2.0693
49971SOL     OW58880  10.567   0.375   6.647  0.2418 -0.4836  0.2386
49971SOL    HW158881  10.576   0.294   6.597 -0.9234 -0.0402 -0.7308
49971SOL    HW258882  10.552   0.345   6.737  1.0429 -1.3118  0.1179
49972SOL     OW58883  12.444   7.705   8.163  0.0030  0.0986 -0.1245
49972SOL    HW158884  12.450   7.612   8.139  0.4738  0.3501 -1.0057
49972SOL    HW258885  12.360   7.733   8.127 -0.2775 -0.0479  0.3988
49973SOL     OW58886   0.213   3.435  11.265  0.1300 -0.0286 -0.9118
49973SOL    HW158887   0.146   3.405  11.326 -0.2179  0.0413 -1.2549
49973SOL    HW258888   0.209   3.374  11.192 -1.5885  1.6438 -2.2977
49974SOL     OW58889   9.231   5.872   3.925  0.3900  0.4173  0.0098
49974SOL    HW158890   9.162   5.850   3.987  0.1750 -1.6640 -0.9007
49974SOL    HW258891   9.302   5.908   3.979 -0.0596 -0.6955  1.3731
49975SOL     OW58892   8.288   8.907   0.955 -0.0406  0.2095  0.1151
49975SOL    HW158893   8.311   8.990   0.996 -0.1566 -0.1498  0.9326
49975SOL    HW258894   8.330   8.910   0.869 -1.1010  1.6404 -0.3828
49976SOL     OW58895  12.129   0.735   9.539 -0.3118 -0.0661  0.0456
49976SOL    HW158896  12.215   0.756   9.575 -0.1638 -1.5116  0.5726
49976SOL    HW258897  12.145   0.723   9.445 -0.1988  0.9673 -0.0831
49977SOL     OW58898   1.704   1.864  10.137  0.2671  0.7519 -0.2528
49977SOL    HW158899   1.793   1.834  10.158 -0.2622  0.0810  1.1511
49977SOL    HW258900   1.702   1.868  10.041  1.5726  0.0185 -0.3354
49978SOL     OW58901   7.247   2.018   0.563 -0.1094 -0.1035  0.0400
49978SOL    HW158902   7.198   2.090   0.522  0.9729  0.0966 -0.9774
49978SOL    HW258903   7.222   2.022   0.655 -0.3698  1.3443 -0.0610
49979SOL     OW58904  10.897   2.599   6.620 -0.1067  0.2968  0.1925
49979SOL    HW158905  10.888   2.506   6.640 -1.5627  0.5957  1.0280
49979SOL    HW258906  10.984   2.606   6.580  0.2295 -1.3374  0.5583
49980SOL     OW58907   7.695   1.008   9.741 -0.4896  0.1848  0.0105
49980SOL    HW158908   7.718   1.100   9.755 -0.0351 -0.0250  0.6873
49980SOL    HW258909   7.730   0.963   9.818  0.0379 -0.6803 -0.7243
49981SOL     OW58910   9.909   2.053   7.424  0.0045 -0.5100 -0.6909
49981SOL    HW158911   9.880   2.108   7.496 -0.5095  0.9589 -1.9705
49981SOL    HW258912   9.828   2.016   7.387 -0.1991  1.8279 -2.8671
49982SOL     OW58913  12.097  10.863  11.022  0.7196 -0.0445 -0.6315
49982SOL    HW158914  12.128  10.881  11.111  0.8217  0.4697 -0.7715
49982SOL    HW258915  12.162  10.801  10.987 -1.3835 -3.4878  0.9883
49983SOL     OW58916  11.945   2.929   6.712 -0.4581 -0.5516 -0.1147
49983SOL    HW158917  11.989   2.948   6.629 -1.6952 -1.1037 -0.9239
49983SOL    HW258918  11.959   2.835   6.725  2.7150  0.0463  2.1391
49984SOL     OW58919   8.721   6.817   9.116  0.3551  0.1811  0.5452
49984SOL    HW158920   8.729   6.832   9.210 -2.0566  3.0693  0.4225
49984SOL    HW258921   8.627   6.822   9.098  0.8302  1.0661 -2.1764
49985SOL     OW58922   5.527   4.253   9.583  0.1434  0.0816 -0.5464
49985SOL    HW158923   5.547   4.161   9.598  1.5103  0.5185  0.4502
49985SOL    HW258924   5.611   4.298   9.587 -0.4114  1.2974 -1.7265
49986SOL     OW58925  10.429   6.519  12.592  0.5229 -0.4443 -0.2805
49986SOL    HW158926  10.415   6.492  12.682 -0.4089  1.2863  0.1449
49986SOL    HW258927  10.342   6.514  12.552  0.2697  1.7364 -0.1643
49987SOL     OW58928   2.712   7.343   0.541  0.3590  0.3332  0.4389
49987SOL    HW158929   2.640   7.356   0.479  0.4971 -0.5637  0.0751
49987SOL    HW258930   2.710   7.421   0.597 -1.7092 -0.2385  1.2680
49988SOL     OW58931   9.324   2.810   4.362 -0.2364  0.4691 -0.0861
49988SOL    HW158932   9.264   2.878   4.395 -0.3662 -0.0197  0.7040
49988SOL    HW258933   9.268   2.752   4.311 -0.2737  0.4955 -0.0757
49989SOL     OW58934   3.495  11.130  10.046  0.1070 -0.0835  0.0954
49989SOL    HW158935   3.459  11.187  10.114  0.6105 -1.9404  2.0173
49989SOL    HW258936   3.418  11.101   9.997 -0.5701 -0.5469  1.3829
49990SOL     OW58937  10.220   6.962   1.275  0.2237 -0.2789 -0.5396
49990SOL    HW158938  10.306   6.984   1.238  0.9499  0.9060  1.6736
49990SOL    HW258939  10.186   6.894   1.217  1.8969  0.4118 -2.4602
49991SOL     OW58940   2.032   3.540   2.775 -0.0082 -0.1445 -0.2391
49991SOL    HW158941   2.023   3.468   2.838 -1.9825 -0.3105 -0.6306
49991SOL    HW258942   2.116   3.580   2.796  1.4787 -2.9311 -0.4028
49992SOL     OW58943  12.240  11.101   9.882 -0.5985  0.1502  0.0878
49992SOL    HW158944  12.300  11.173   9.868 -0.0493 -0.4087 -0.4985
49992SOL    HW258945  12.178  11.133   9.948  0.4861  0.6497  0.8893
49993SOL     OW58946   1.881   1.635   8.528  0.4993  0.5840  0.5393
49993SOL    HW158947   1.852   1.640   8.619 -4.2950 -1.3779 -0.5794
49993SOL    HW258948   1.925   1.551   8.521 -0.8657 -0.1655  0.7137
49994SOL     OW58949   0.468   7.292   7.359 -0.3966 -0.5165 -0.3118
49994SOL    HW158950   0.525   7.220   7.331  0.8277  0.6130 -0.7985
49994SOL    HW258951   0.387   7.248   7.387  0.4281 -2.1017 -0.2823
49995SOL     OW58952   9.949   9.499   0.777  0.5094  0.0337  0.5208
49995SOL    HW158953   9.870   9.546   0.751  0.9119 -0.0636 -0.9730
49995SOL    HW258954   9.949   9.421   0.722 -0.2885 -1.9391  3.1497
49996SOL     OW58955  11.277  10.839   3.102  0.7689  0.0222 -0.0264
49996SOL    HW158956  11.321  10.884   3.030  1.0210 -0.2767 -0.0566
49996SOL    HW258957  11.266  10.749   3.072 -1.7471  0.5369 -0.8825
49997SOL     OW58958   2.909   3.910   8.046  0.7929 -0.2686 -0.2939
49997SOL    HW158959   2.905   3.935   7.953 -0.6350 -0.6449 -0.3525
49997SOL    HW258960   2.841   3.845   8.057  0.8520 -0.1407  1.0634
49998SOL     OW58961   8.945   3.719  10.726 -0.3573  0.2339 -0.1343
49998SOL    HW158962   8.893   3.796  10.706 -0.2671  0.7356  1.4094
49998SOL    HW258963   8.902   3.681  10.803  0.0950 -0.7838 -0.3629
49999SOL     OW58964   1.586   6.974   8.420  0.3937  0.0831 -0.4273
49999SOL    HW158965   1.502   6.948   8.381 -0.4106  0.1287  1.2191
49999SOL    HW258966   1.652   6.938   8.360 -0.7600 -1.6209 -0.7379
50000SOL     OW58967  11.121  10.326   0.414 -0.2650 -0.2084  0.5384
50000SOL    HW158968  11.173  10.383   0.357  1.2599 -0.4535  1.6191
50000SOL    HW258969  11.153  10.237   0.394  0.0755 -0.3184  1.5410
50001SOL     OW58970   7.945   1.824   0.264  0.4887  0.1101  0.2403
50001SOL    HW158971   7.926   1.742   0.310  1.9783 -0.4072 -0.0033
50001SOL    HW258972   7.873   1.834   0.202 -0.3643 -0.3497  1.1290
50002SOL     OW58973   0.783  10.062   9.808 -0.3645 -0.1445 -0.2535
50002SOL    HW158974   0.740  10.139   9.846  0.0715  0.1762 -0.3922
50002SOL    HW258975   0.747   9.988   9.856 -0.8999  0.1335 -0.2168
50003SOL     OW58976   0.406   5.170   5.320  0.4587 -0.1055  0.1675
50003SOL    HW158977   0.413   5.088   5.271  0.2718  0.3760 -0.6824
50003SOL    HW258978   0.335   5.218   5.277  0.3087  0.3365  0.9000
50004SOL     OW58979  11.723   6.709  12.454 -0.2441  0.4681 -0.0407
50004SOL    HW158980  11.661   6.669  12.515 -0.9686 -1.3071 -1.8229
50004SOL    HW258981  11.708   6.663  12.371  2.8614  0.5423 -0.7703
50005SOL     OW58982  11.028   1.070   8.805  0.3445  0.4997 -0.0588
50005SOL    HW158983  11.123   1.061   8.818  0.4060  1.0073 -0.1263
50005SOL    HW258984  11.004   0.995   8.751  0.8215  0.7295 -0.5988
50006SOL     OW58985  10.647   1.390   4.409  0.0243 -0.0823  0.2939
50006SOL    HW158986  10.742   1.374   4.410 -0.0263 -0.4046  0.0200
50006SOL    HW258987  10.612   1.323   4.350 -0.3412  0.2246  0.1629
50007SOL     OW58988   8.516   3.099   6.230 -0.3337 -0.3389  0.5181
50007SOL    HW158989   8.478   3.160   6.293  0.2508 -0.4902  1.0240
50007SOL    HW258990   8.594   3.143   6.198 -0.3032 -0.5176  0.3443
50008SOL     OW58991   3.605  10.063   4.219  0.2042 -0.2047 -0.2108
50008SOL    HW158992   3.612  10.135   4.281  1.0848  0.6735 -1.2737
50008SOL    HW258993   3.604   9.984   4.273  0.2450  0.5606  0.9384
50009SOL     OW58994  10.189   4.771   9.663  0.0097  0.2415 -0.1081
50009SOL    HW158995  10.187   4.708   9.592  0.5130  0.5003 -0.3523
50009SOL    HW258996  10.156   4.722   9.739  0.5899 -0.3781 -0.2449
50010SOL     OW58997   9.453  10.869  10.373  0.5671 -0.0468 -0.2355
50010SOL    HW158998   9.516  10.921  10.322  1.0497 -0.4593 -0.0738
50010SOL    HW258999   9.446  10.916  10.456  0.0319  0.4466 -0.5598
50011SOL     OW59000   1.271   5.145  11.383  0.3121 -0.1206 -0.1676
50011SOL    HW159001   1.227   5.066  11.415 -1.1899 -0.2352 -2.2647
50011SOL    HW259002   1.348   5.112  11.337  0.0426 -0.3166 -0.4831
50012SOL     OW59003   0.625   5.853   4.675  0.0755  0.2704 -0.1100
50012SOL    HW159004   0.678   5.779   4.645 -1.3351 -0.1145 -1.8469
50012SOL    HW259005   0.540   5.814   4.697 -0.5146  1.2827 -0.5233
50013SOL     OW59006   6.507   7.089  11.947  0.0479 -0.5212 -0.4557
50013SOL    HW159007   6.592   7.045  11.949  0.6569  0.5920 -0.9663
50013SOL    HW259008   6.528   7.181  11.931 -1.2722 -0.2656 -0.8341
50014SOL     OW59009   9.513   7.995   2.493 -0.2122 -0.1908 -0.4315
50014SOL    HW159010   9.429   7.963   2.525 -1.0725  0.4622 -1.9645
50014SOL    HW259011   9.542   7.928   2.431  0.6030 -0.5877  0.3470
50015SOL     OW59012   8.078  12.537   1.209  0.0688 -0.0865 -0.2094
50015SOL    HW159013   7.983  12.526   1.217 -0.1856  1.4181 -0.8445
50015SOL    HW259014   8.106  12.467   1.149 -0.8494  0.3136 -1.1256
50016SOL     OW59015   8.789   2.471   9.385  0.0120  0.0085 -0.3830
50016SOL    HW159016   8.814   2.388   9.425  0.8661  0.2492 -0.4031
50016SOL    HW259017   8.867   2.500   9.339 -0.1412  1.0487 -0.0016
50017SOL     OW59018   6.829   1.882   0.232  0.2460 -0.3823  0.0001
50017SOL    HW159019   6.807   1.953   0.293 -1.0593 -0.1193 -0.7367
50017SOL    HW259020   6.804   1.916   0.146 -0.2144 -1.6515 -0.3870
50018SOL     OW59021  11.680   3.546   3.116 -0.2301  0.2115 -0.2984
50018SOL    HW159022  11.603   3.543   3.058 -1.9806 -1.3372  1.9313
50018SOL    HW259023  11.736   3.475   3.085 -0.6693  0.0223 -0.6833
50019SOL     OW59024   5.973  11.903   5.422 -0.1453 -0.4349  0.3599
50019SOL    HW159025   6.023  11.960   5.480  1.8218 -0.1397 -1.5061
50019SOL    HW259026   5.987  11.939   5.334 -2.8853 -0.9472 -0.3780
50020SOL     OW59027   4.995  11.268  12.391  0.5916 -0.4207 -0.1541
50020SOL    HW159028   5.019  11.243  12.302  0.2332 -0.6069 -0.2003
50020SOL    HW259029   4.919  11.213  12.412  1.1112 -0.8991  0.5244
50021SOL     OW59030   3.349   1.001   0.944  0.0085  0.0702 -0.0867
50021SOL    HW159031   3.282   1.023   0.880  1.9007  1.2003 -1.7795
50021SOL    HW259032   3.396   1.082   0.959  1.2839 -0.7803  0.7166
50022SOL     OW59033  11.731  12.008  10.038 -0.1313 -0.4665  0.1598
50022SOL    HW159034  11.680  12.089  10.046 -0.9309 -0.7625 -1.4696
50022SOL    HW259035  11.822  12.037  10.037 -0.2899  0.2068  1.6367
50023SOL     OW59036   7.640   1.415   1.005 -0.4895 -0.1440 -0.2289
50023SOL    HW159037   7.626   1.473   0.930 -1.1246 -0.4324 -0.3406
50023SOL    HW259038   7.552   1.390   1.032 -0.2403 -0.5470  0.2173
50024SOL     OW59039  11.194   6.791   6.353 -0.2990  0.7360 -0.3539
50024SOL    HW159040  11.100   6.791   6.368 -0.3758 -2.7307 -0.0147
50024SOL    HW259041  11.206   6.735   6.276  1.4694  1.4330 -0.6280
50025SOL     OW59042   2.206   6.897   5.105 -0.0697 -0.1882 -0.3747
50025SOL    HW159043   2.294   6.871   5.132  0.1253 -1.2592 -1.8832
50025SOL    HW259044   2.216   6.923   5.014 -1.3875 -0.7822 -0.7113
50026SOL     OW59045  10.341   2.882   2.132  0.0374 -0.1381 -0.0920
50026SOL    HW159046  10.379   2.962   2.096 -0.1345 -0.3376 -0.7233
50026SOL    HW259047  10.255   2.876   2.092 -0.0671 -0.4840  0.1850
50027SOL     OW59048   7.487  11.109   6.685  1.0467  1.1223 -0.2223
50027SOL    HW159049   7.542  11.163   6.742  0.3142  1.2564  0.3687
50027SOL    HW259050   7.399  11.144   6.697 -0.0554 -2.1756  2.6650
50028SOL     OW59051   8.543   9.227   3.207  0.0348  0.4920  0.3926
50028SOL    HW159052   8.561   9.199   3.296 -1.5201 -2.2207 -0.0240
50028SOL    HW259053   8.460   9.184   3.185  1.5436 -1.0176 -3.1543
50029SOL     OW59054   9.912   8.895   4.580 -0.2279 -0.1236  0.1786
50029SOL    HW159055   9.996   8.850   4.582  0.2422  0.7259  0.0815
50029SOL    HW259056   9.872   8.867   4.497 -0.3200 -0.9958  0.5068
50030SOL     OW59057   2.641   6.541   7.408  0.2416 -0.1430  0.0904
50030SOL    HW159058   2.584   6.604   7.363 -0.0840 -0.2726  0.3147
50030SOL    HW259059   2.730   6.565   7.381  0.2035  1.0591  0.9599
50031SOL     OW59060   4.236   7.825   6.115  0.5488 -0.4024 -0.1162
50031SOL    HW159061   4.243   7.914   6.151  1.1569 -0.3700 -0.2990
50031SOL    HW259062   4.158   7.788   6.156 -0.0326  0.4105 -0.4559
50032SOL     OW59063   4.933   4.376   4.482 -0.6128 -0.4097 -0.0615
50032SOL    HW159064   4.957   4.289   4.513 -2.2186 -0.6558  0.5604
50032SOL    HW259065   4.973   4.436   4.545 -0.7143 -0.7598  0.3390
50033SOL     OW59066  11.568  11.263  11.876 -0.5880 -0.4237  0.0489
50033SOL    HW159067  11.534  11.260  11.966 -0.7113 -0.1593  0.0120
50033SOL    HW259068  11.498  11.224  11.824 -0.5707 -0.4579  0.0514
50034SOL     OW59069  11.325   5.676   9.704 -0.1896 -0.2151  0.2709
50034SOL    HW159070  11.284   5.721   9.777  0.2278  1.2713 -0.3781
50034SOL    HW259071  11.252   5.640   9.654 -0.5191 -0.4126  0.8856
50035SOL     OW59072   1.904   6.392  11.087 -0.0803  0.6154 -0.0292
50035SOL    HW159073   1.832   6.448  11.116 -0.0338  1.1041 -0.8243
50035SOL    HW259074   1.970   6.453  11.054  1.1331  0.2342  1.5708
50036SOL     OW59075   6.885   2.767   7.513  0.0721  0.2950 -0.1690
50036SOL    HW159076   6.905   2.754   7.605  0.8883 -1.2491 -0.5374
50036SOL    HW259077   6.830   2.692   7.489  3.4088 -1.8203 -1.9298
50037SOL     OW59078   6.737   0.516  11.094  0.0151 -0.1183 -0.0007
50037SOL    HW159079   6.731   0.429  11.134  0.7319  0.2628  0.9708
50037SOL    HW259080   6.657   0.561  11.121  0.0000 -0.2199  0.1196
50038SOL     OW59081   5.457   1.636   9.643  0.0757 -0.3368 -0.1923
50038SOL    HW159082   5.409   1.677   9.715 -1.3072  0.1029 -1.3189
50038SOL    HW259083   5.486   1.551   9.678 -1.1305 -0.4141  0.6704
50039SOL     OW59084   4.207   3.775   5.363 -0.8870 -0.1031  0.4329
50039SOL    HW159085   4.140   3.747   5.301 -0.3743  0.8731 -0.5971
50039SOL    HW259086   4.290   3.761   5.317 -0.5622  1.9348  0.3153
50040SOL     OW59087   6.906   1.007   0.652 -0.2660  0.1737  0.1743
50040SOL    HW159088   6.841   1.064   0.609 -1.1789 -0.0540  1.2093
50040SOL    HW259089   6.990   1.045   0.627 -0.7651  0.2529 -1.5171
50041SOL     OW59090   4.940   0.946  10.346 -0.3784 -0.5340 -0.2537
50041SOL    HW159091   4.879   0.939  10.272  0.5815 -0.5571 -1.0651
50041SOL    HW259092   4.928   0.865  10.395  0.0252 -1.2005 -1.2260
50042SOL     OW59093   7.807   2.804   0.939 -0.4026  0.5575 -0.0905
50042SOL    HW159094   7.761   2.739   0.887  0.0378 -0.5041  0.7989
50042SOL    HW259095   7.900   2.790   0.917 -0.0730 -0.8569  1.9410
50043SOL     OW59096   2.259   7.205   0.733 -0.2455  0.0725 -0.0539
50043SOL    HW159097   2.298   7.233   0.651  0.4150 -0.8395 -0.0653
50043SOL    HW259098   2.167   7.188   0.711 -0.0548 -0.2461 -0.6202
50044SOL     OW59099   4.614   1.650  12.485  0.0251 -0.0827  0.5534
50044SOL    HW159100   4.530   1.692  12.503 -0.0949 -0.4576  0.8674
50044SOL    HW259101   4.641   1.686  12.401 -1.1893 -1.0879 -0.3128
50045SOL     OW59102   5.487  12.023   1.935  0.1625  0.0270  0.3226
50045SOL    HW159103   5.571  11.993   1.900 -1.0749 -1.5888 -1.5415
50045SOL    HW259104   5.425  11.954   1.909 -1.7429  1.1528  1.6297
50046SOL     OW59105   4.126   4.476   9.191  0.2420 -0.2566 -0.0734
50046SOL    HW159106   4.065   4.549   9.181 -0.0217 -0.2422  1.3335
50046SOL    HW259107   4.162   4.462   9.104 -1.7772 -0.2610 -0.9701
50047SOL     OW59108   6.619   3.671   8.647 -0.1651  0.4193 -0.2926
50047SOL    HW159109   6.713   3.684   8.636 -0.3268  1.5822 -0.3677
50047SOL    HW259110   6.597   3.604   8.583  0.8514 -0.9611  0.7176
50048SOL     OW59111   6.093   5.858   1.185 -0.5171 -0.6061 -0.0795
50048SOL    HW159112   6.084   5.763   1.193 -0.5576 -1.0395 -3.5554
50048SOL    HW259113   6.055   5.893   1.265 -1.2098 -3.4859  0.9643
50049SOL     OW59114   1.333   5.279   5.407 -0.3772  0.3403 -0.0070
50049SOL    HW159115   1.366   5.300   5.494 -0.2697  1.3870 -0.2832
50049SOL    HW259116   1.411   5.279   5.352 -0.5666  0.7493 -0.2849
50050SOL     OW59117   5.171   6.975   5.639  0.3112  0.3718  0.5568
50050SOL    HW159118   5.257   6.947   5.672 -0.3058 -0.6332  1.3896
50050SOL    HW259119   5.133   7.025   5.712  0.6413  1.8503 -0.2446
50051SOL     OW59120   8.568  10.555   0.879 -0.0828 -0.7280  0.5878
50051SOL    HW159121   8.501  10.572   0.813 -0.9885 -1.3426  1.3147
50051SOL    HW259122   8.636  10.506   0.833 -0.7368 -1.2106  0.1189
50052SOL     OW59123   6.919   9.700   9.365  1.0709  0.0521  0.4913
50052SOL    HW159124   6.977   9.766   9.328  0.5095 -0.6250 -1.7069
50052SOL    HW259125   6.831   9.734   9.349  0.7278 -1.6413 -1.6752
50053SOL     OW59126   8.711   8.064   5.757 -0.3712  0.2090 -0.0882
50053SOL    HW159127   8.796   8.021   5.752 -0.7183 -0.6241  0.7450
50053SOL    HW259128   8.712   8.110   5.841 -1.3347 -1.1718  0.7112
50054SOL     OW59129   2.521  10.078   1.321 -0.1413  0.4811 -0.6866
50054SOL    HW159130   2.478  10.115   1.398  1.1230  2.3673 -0.8101
50054SOL    HW259131   2.480  10.123   1.247 -1.6158 -1.5908 -1.2263
50055SOL     OW59132   7.095   5.288   1.259  0.9173  0.3002 -0.2472
50055SOL    HW159133   7.033   5.231   1.305 -0.1758 -0.6570 -2.6679
50055SOL    HW259134   7.180   5.247   1.272  0.4477 -0.6799 -0.1663
50056SOL     OW59135   9.187   6.436   1.699 -0.0199 -0.0821 -0.1349
50056SOL    HW159136   9.178   6.364   1.636 -0.3653 -0.4889  0.3768
50056SOL    HW259137   9.098   6.453   1.729 -0.0457  1.0840 -0.8261
50057SOL     OW59138   4.936   9.757  11.471  0.1405  0.1013 -0.2895
50057SOL    HW159139   5.019   9.799  11.452  0.6024  0.1572  1.6422
50057SOL    HW259140   4.927   9.764  11.566 -1.7136 -0.5711 -0.3783
50058SOL     OW59141   1.135   6.199   0.558  0.2537  0.2580  0.6034
50058SOL    HW159142   1.045   6.227   0.540 -0.0854  0.7434  2.7683
50058SOL    HW259143   1.187   6.244   0.492 -0.9307  1.1716  0.2467
50059SOL     OW59144   2.830   3.430   7.018  0.7384  0.2202 -0.0795
50059SOL    HW159145   2.828   3.525   7.028  0.0912 -0.0243  2.9162
50059SOL    HW259146   2.923   3.407   7.026  0.6784  0.4419  1.3666
50060SOL     OW59147   9.180   4.344   1.369 -0.0415 -0.2080  0.5227
50060SOL    HW159148   9.104   4.302   1.408 -0.2140  0.4232  0.8907
50060SOL    HW259149   9.149   4.379   1.285  0.2622 -1.3344 -0.0787
50061SOL     OW59150   2.665   8.315   2.992  0.7080  0.2267 -0.3254
50061SOL    HW159151   2.608   8.296   2.918  0.2165  3.0027 -0.7960
50061SOL    HW259152   2.748   8.343   2.952  1.0710 -0.0296  0.2323
50062SOL     OW59153   6.416   7.713   3.157  0.0909 -0.1199 -0.3412
50062SOL    HW159154   6.347   7.684   3.217  0.0355  0.3971 -0.1464
50062SOL    HW259155   6.496   7.709   3.209  0.1446 -0.3249 -0.4407
50063SOL     OW59156   2.463  11.726   1.953 -0.8751 -0.3270  0.5737
50063SOL    HW159157   2.433  11.650   2.004 -0.3659 -0.1443  1.1715
50063SOL    HW259158   2.388  11.753   1.902 -1.0367 -1.2979  0.2873
50064SOL     OW59159   3.225   0.222   4.691 -0.2963  0.4866 -0.1319
50064SOL    HW159160   3.312   0.261   4.699 -0.9306  1.6380  1.6899
50064SOL    HW259161   3.164   0.294   4.705 -1.6532  0.0307 -2.8105
50065SOL     OW59162   1.297   5.939   3.645  0.2339  0.0218 -0.4940
50065SOL    HW159163   1.358   6.013   3.647 -0.8742  0.9856 -0.9797
50065SOL    HW259164   1.344   5.870   3.597  0.6435  1.0242 -1.5896
50066SOL     OW59165   3.759   3.640   1.172 -0.5525  0.1650  0.5000
50066SOL    HW159166   3.826   3.609   1.233  2.2329 -1.0672 -2.8283
50066SOL    HW259167   3.781   3.732   1.157 -0.3659  0.1044  0.3867
50067SOL     OW59168   4.458   9.195   8.008  0.2552  0.4211  0.6976
50067SOL    HW159169   4.398   9.240   8.067 -0.3115  0.8775 -0.1969
50067SOL    HW259170   4.487   9.118   8.056 -1.7042 -0.2666  0.8623
50068SOL     OW59171   7.040   2.766   1.476  0.2132  0.0831 -0.0215
50068SOL    HW159172   7.072   2.771   1.386  1.4846 -2.9148  0.1550
50068SOL    HW259173   6.947   2.743   1.467  0.7485 -2.0464 -0.6584
50069SOL     OW59174  11.598  12.111   3.818  0.6281 -0.8862 -0.2844
50069SOL    HW159175  11.513  12.126   3.778  0.0708 -3.8433 -0.4612
50069SOL    HW259176  11.639  12.044   3.763  0.7407 -3.5137  2.6928
50070SOL     OW59177   8.122   0.893  12.323  0.0690 -0.3954  0.2184
50070SOL    HW159178   8.066   0.956  12.279 -0.5088 -0.6962  0.5167
50070SOL    HW259179   8.192   0.876  12.260  0.9776  1.5243  0.6315
50071SOL     OW59180   6.964   2.515   4.510 -0.4557  0.9327  0.3756
50071SOL    HW159181   6.891   2.551   4.562 -0.1264  1.1321  0.7071
50071SOL    HW259182   6.958   2.421   4.522 -1.2450  0.8725 -0.3856
50072SOL     OW59183   2.192   3.600   1.978  0.4335 -0.1490 -0.0887
50072SOL    HW159184   2.185   3.681   1.928 -0.7321 -1.4075 -2.1324
50072SOL    HW259185   2.262   3.616   2.041  3.4473  0.9714 -3.3905
50073SOL     OW59186   0.984  10.309  10.612 -0.2829  0.1162  0.5548
50073SOL    HW159187   0.908  10.292  10.557  0.6790 -0.3627 -0.6893
50073SOL    HW259188   1.051  10.249  10.579  1.0882  1.5532  0.5999
50074SOL     OW59189   8.937  10.215   3.431  0.5969  0.6440 -0.0022
50074SOL    HW159190   8.897  10.128   3.434 -0.0959  0.9721  1.7122
50074SOL    HW259191   8.872  10.269   3.387  1.3329  0.1802 -1.7210
50075SOL     OW59192   2.220   1.373   4.479  0.3001 -0.3408  0.2344
50075SOL    HW159193   2.213   1.364   4.574  0.8936  0.9991  0.4290
50075SOL    HW259194   2.129   1.382   4.450  0.1046 -0.9055  0.6613
50076SOL     OW59195   2.475   3.510   1.984 -0.5631 -0.3758 -0.1880
50076SOL    HW159196   2.548   3.502   2.046 -1.4524  0.4692  1.0145
50076SOL    HW259197   2.430   3.426   1.988 -0.5735 -0.3509  0.2689
50077SOL     OW59198   8.511   9.171   7.062 -0.2378  0.0248  0.1289
50077SOL    HW159199   8.512   9.153   7.156 -1.5648 -0.8541  0.0127
50077SOL    HW259200   8.577   9.113   7.025 -0.4485 -0.3937  0.4091
50078SOL     OW59201   8.163   5.472   5.486 -0.6874 -0.1390 -0.1682
50078SOL    HW159202   8.205   5.388   5.467 -1.8755 -0.6505 -0.6384
50078SOL    HW259203   8.201   5.500   5.569 -2.1379 -2.4139  1.3458
50079SOL     OW59204   6.836   7.367   0.668  0.1004  0.2877 -0.4957
50079SOL    HW159205   6.911   7.420   0.697  0.5414 -0.9432  0.6985
50079SOL    HW259206   6.874   7.283   0.644 -0.9209 -0.4070  0.2660
50080SOL     OW59207   9.238   1.360   3.340 -0.2123  0.0098  0.3344
50080SOL    HW159208   9.233   1.319   3.427 -2.5347  0.2443  0.3566
50080SOL    HW259209   9.249   1.453   3.358 -1.0640  0.1031  0.3990
50081SOL     OW59210   3.130   9.978   1.019  0.1569  0.2618  0.3314
50081SOL    HW159211   3.039  10.000   1.036  0.2865 -0.9579  3.1365
50081SOL    HW259212   3.128   9.918   0.945 -1.1721  1.0958 -0.3414
50082SOL     OW59213   9.946   3.917   5.950  0.1650  0.0259 -0.2664
50082SOL    HW159214   9.981   3.856   6.015 -1.2578 -0.9509 -0.3520
50082SOL    HW259215   9.977   3.883   5.866 -0.5411 -0.5341 -0.3059
50083SOL     OW59216   4.810   0.368  10.698 -0.9230  0.3348 -0.4870
50083SOL    HW159217   4.749   0.379  10.625 -0.7876  1.6213 -0.4255
50083SOL    HW259218   4.882   0.318  10.662 -0.2032  2.1092 -1.6545
50084SOL     OW59219   1.281  11.386   7.241 -0.3219  0.0807 -0.5457
50084SOL    HW159220   1.264  11.352   7.329  2.5852 -2.3486 -0.7424
50084SOL    HW259221   1.258  11.479   7.246 -2.6486 -0.5050  1.9797
50085SOL     OW59222   2.810   2.763   0.823 -1.0605  0.0309  0.3016
50085SOL    HW159223   2.807   2.839   0.881 -0.3680  0.5239 -0.2923
50085SOL    HW259224   2.838   2.691   0.880  0.8851  0.7637  0.3514
50086SOL     OW59225   5.789   9.532   9.237  0.3722  0.1436  0.7016
50086SOL    HW159226   5.770   9.619   9.272 -0.6998 -0.3668  1.4663
50086SOL    HW259227   5.849   9.493   9.301  1.3493  0.5220  0.0428
50087SOL     OW59228   0.382   6.186   6.440  0.0600 -0.2349 -0.7106
50087SOL    HW159229   0.341   6.216   6.359 -2.3365  1.7049  1.0563
50087SOL    HW259230   0.311   6.143   6.488  0.1615  2.3559  2.0495
50088SOL     OW59231  11.167   8.492   5.837 -0.0582  0.3734  0.2856
50088SOL    HW159232  11.147   8.410   5.882 -1.1782  0.5418  0.1276
50088SOL    HW259233  11.145   8.475   5.745  0.3569  0.6458  0.1300
50089SOL     OW59234   1.289   4.093   4.611  0.3264 -0.2638 -0.3312
50089SOL    HW159235   1.335   4.079   4.528  0.9619 -2.4042  0.3266
50089SOL    HW259236   1.202   4.057   4.596 -0.4707  1.7295 -0.8459
50090SOL     OW59237  11.404   2.030   3.297  0.6198  0.2830  0.0001
50090SOL    HW159238  11.338   1.985   3.244  1.1800  1.2532 -1.5903
50090SOL    HW259239  11.488   1.995   3.266  1.0714  2.3559 -1.3029
50091SOL     OW59240   5.247   3.105   5.789 -0.3033  0.5757 -0.4248
50091SOL    HW159241   5.176   3.050   5.757  0.5983 -0.4230 -0.7392
50091SOL    HW259242   5.216   3.194   5.774 -2.2893  0.2423  1.1403
50092SOL     OW59243   1.851   9.715   1.333  0.4666 -0.3373  0.1284
50092SOL    HW159244   1.821   9.630   1.365 -1.1105 -0.0975 -0.5821
50092SOL    HW259245   1.946   9.714   1.346  0.6047 -2.5273 -0.6518
50093SOL     OW59246   4.837   2.400   7.266  0.2051  0.3406 -0.0463
50093SOL    HW159247   4.767   2.377   7.205 -1.8947 -1.7350  2.8890
50093SOL    HW259248   4.917   2.366   7.225 -0.8853  0.0633 -2.0877
50094SOL     OW59249   7.149   9.413  12.239  0.2040 -0.2810  0.1045
50094SOL    HW159250   7.207   9.339  12.222 -0.0209 -0.0916 -1.7105
50094SOL    HW259251   7.122   9.442  12.152 -1.2486  0.7190  0.8545
50095SOL     OW59252   3.160   6.660   6.991 -0.2340 -0.1966  0.7118
50095SOL    HW159253   3.200   6.738   7.030 -0.4147 -0.4384  1.4036
50095SOL    HW259254   3.201   6.651   6.905 -0.6622  1.0201  0.3619
50096SOL     OW59255   2.565   2.613   7.334 -0.2633  0.5020 -0.0079
50096SOL    HW159256   2.582   2.521   7.353 -0.6933  0.1270 -1.3303
50096SOL    HW259257   2.641   2.659   7.370  0.4520 -0.4828 -0.2264
50097SOL     OW59258   6.859   5.591   4.986 -0.3296  0.2834 -0.1303
50097SOL    HW159259   6.812   5.648   4.925  0.0553  0.4286 -0.2938
50097SOL    HW259260   6.793   5.528   5.015 -0.7814  0.8592  0.1149
50098SOL     OW59261   4.436   4.184   6.112 -0.4883  0.0887 -0.4316
50098SOL    HW159262   4.383   4.169   6.190 -0.6901 -0.3005 -0.6403
50098SOL    HW259263   4.488   4.104   6.102 -0.3309  0.2086 -0.5944
50099SOL     OW59264   2.456   3.646  11.855 -0.0022 -0.2743 -0.2361
50099SOL    HW159265   2.530   3.587  11.844 -0.5786 -0.7400 -1.9037
50099SOL    HW259266   2.404   3.606  11.925  0.3064 -1.0160 -0.4241
50100SOL     OW59267   8.032  10.367   6.944  0.5687  0.1948  0.0238
50100SOL    HW159268   8.000  10.338   6.858  1.1550  1.5698 -0.6939
50100SOL    HW259269   8.102  10.306   6.966 -0.2335 -0.7578 -0.0002
50101SOL     OW59270   5.333  10.868   1.926  0.2642  0.2467  0.2906
50101SOL    HW159271   5.416  10.820   1.919 -1.0558 -2.2039  0.4523
50101SOL    HW259272   5.314  10.895   1.836  0.0365 -1.4031 -0.1847
50102SOL     OW59273  10.346   5.097   4.325  0.0952 -0.0963 -0.2774
50102SOL    HW159274  10.432   5.066   4.296  1.0246  2.0526 -0.0243
50102SOL    HW259275  10.349   5.091   4.421 -0.1838 -0.3361 -0.2811
50103SOL     OW59276   3.597   7.560   3.805  0.0083  0.6518  0.0288
50103SOL    HW159277   3.658   7.535   3.735 -0.2004  1.1707 -0.3482
50103SOL    HW259278   3.512   7.527   3.776 -0.0012  0.4838  0.2475
50104SOL     OW59279   9.704   4.973   7.625  0.3591 -0.1136 -0.1582
50104SOL    HW159280   9.651   5.046   7.593  1.7231  0.7338 -0.5882
50104SOL    HW259281   9.792   5.009   7.634  0.4338 -0.8244  2.8579
50105SOL     OW59282   4.976   3.110   7.908  0.0673  0.0032 -0.3819
50105SOL    HW159283   4.972   3.091   8.002  1.2910 -1.4437 -0.5870
50105SOL    HW259284   5.048   3.173   7.899 -0.6108  0.8166 -0.2830
50106SOL     OW59285  11.296   8.210   9.408  0.1474  0.8697  0.7454
50106SOL    HW159286  11.356   8.248   9.344 -0.4029  1.3696  0.5200
50106SOL    HW259287  11.226   8.172   9.356 -1.0069  2.4539  1.0534
50107SOL     OW59288  11.427  12.467   1.849  0.2412  0.1313  0.1853
50107SOL    HW159289  11.437  12.529   1.778 -0.1965  1.5714  1.3396
50107SOL    HW259290  11.353  12.499   1.900 -0.5468 -1.8104  0.3795
50108SOL     OW59291   8.393   2.725   7.502 -0.3975 -0.1550  0.0522
50108SOL    HW159292   8.431   2.641   7.477  0.2983 -0.7380  2.7391
50108SOL    HW259293   8.428   2.742   7.589 -2.5239  1.6933  0.6445
50109SOL     OW59294   6.065   9.782   3.709  0.4833 -0.2940 -0.0456
50109SOL    HW159295   6.020   9.763   3.627 -0.1797 -0.0331  0.2514
50109SOL    HW259296   6.102   9.869   3.696 -0.3790  0.1255  0.2443
50110SOL     OW59297   4.541   6.570   0.259 -0.0747 -0.0446  0.0786
50110SOL    HW159298   4.567   6.478   0.250  0.5728  0.0948  0.4781
50110SOL    HW259299   4.527   6.581   0.353  1.1238  0.5950  0.1961
50111SOL     OW59300   0.318   5.450   2.570 -0.3613 -0.4379  0.9095
50111SOL    HW159301   0.355   5.362   2.561  0.3663 -0.1427  0.9924
50111SOL    HW259302   0.380   5.507   2.524 -0.3382  0.1547  1.6648
50112SOL     OW59303  10.778  10.913   6.880 -0.0048 -0.2308 -0.2069
50112SOL    HW159304  10.715  10.958   6.824  0.1219 -0.9565 -0.9531
50112SOL    HW259305  10.790  10.972   6.954  1.9853  2.1711 -2.2449
50113SOL     OW59306   4.632   6.232   2.552  0.0964 -0.1833  0.3471
50113SOL    HW159307   4.676   6.149   2.574  1.3102  0.0418 -1.0499
50113SOL    HW259308   4.564   6.207   2.490  0.3639 -0.1788  0.0439
50114SOL     OW59309   8.388  12.171   7.656 -0.2209 -0.1388  0.0249
50114SOL    HW159310   8.324  12.101   7.666 -1.0972  0.6935  0.4776
50114SOL    HW259311   8.447  12.161   7.731 -0.1690 -0.5678 -0.0751
50115SOL     OW59312   7.727   0.925   3.256 -0.9209  0.1965 -0.1319
50115SOL    HW159313   7.798   0.877   3.215 -0.0161  1.3537  0.0159
50115SOL    HW259314   7.762   0.951   3.341 -1.6602  0.4629  0.1010
50116SOL     OW59315  11.700   8.303   0.618  0.2201 -0.2178  0.0729
50116SOL    HW159316  11.651   8.362   0.675 -0.0137 -1.0047  0.6888
50116SOL    HW259317  11.768   8.359   0.580 -0.3675  0.5904  0.1694
50117SOL     OW59318   2.020   2.440   9.279 -0.4633 -0.0109 -0.1001
50117SOL    HW159319   1.981   2.512   9.328  0.1974  0.4787 -0.2643
50117SOL    HW259320   1.963   2.428   9.203  0.4936  1.7558 -1.1818
50118SOL     OW59321  11.024   9.650  12.124 -0.3475 -0.0612 -0.4563
50118SOL    HW159322  10.978   9.567  12.106 -1.3328  0.6227 -1.1998
50118SOL    HW259323  10.954   9.713  12.140  0.4131  0.4160  1.1546
50119SOL     OW59324   7.897   0.735   4.037 -0.2228 -0.7420 -0.6435
50119SOL    HW159325   7.808   0.748   4.007 -1.4480 -3.5905  1.2951
50119SOL    HW259326   7.894   0.655   4.089  3.3941 -0.7337 -0.1093
50120SOL     OW59327   3.238   7.120  10.493 -0.2748 -0.3797 -0.0753
50120SOL    HW159328   3.179   7.188  10.526  0.4205 -0.6354  1.7998
50120SOL    HW259329   3.323   7.164  10.484 -0.2434 -0.5501 -0.6585
50121SOL     OW59330   5.978   6.257   1.719  0.4381  0.0517 -0.1495
50121SOL    HW159331   5.960   6.239   1.627 -0.3994  0.4854 -0.0780
50121SOL    HW259332   6.000   6.171   1.756  1.3944 -0.0354 -0.8674
50122SOL     OW59333   4.500   9.768   6.746 -0.5114 -0.0244  0.2815
50122SOL    HW159334   4.506   9.863   6.740  0.1602 -0.0378  0.6242
50122SOL    HW259335   4.490   9.739   6.655 -0.3745  0.3500  0.1448
50123SOL     OW59336   2.452   2.312  12.538 -0.2034 -0.2329 -0.0035
50123SOL    HW159337   2.425   2.345  12.624 -0.1213  0.3323 -0.1862
50123SOL    HW259338   2.373   2.271  12.502 -0.8869  1.4741 -0.5706
50124SOL     OW59339   9.529   2.665   0.441  0.0898  0.2028  1.0933
50124SOL    HW159340   9.569   2.626   0.518  2.6066  1.2191  0.4019
50124SOL    HW259341   9.589   2.645   0.370 -0.7814  1.5852 -0.0975
50125SOL     OW59342   0.354   1.964   9.849 -0.1864 -0.2673 -0.1467
50125SOL    HW159343   0.332   1.871   9.852  2.7338 -1.1067 -1.2742
50125SOL    HW259344   0.379   1.986   9.938  1.2640 -1.2140 -0.2899
50126SOL     OW59345   0.900   3.614   0.231  0.0450 -0.2587  0.1249
50126SOL    HW159346   0.805   3.626   0.224  0.0709 -0.4761 -0.7183
50126SOL    HW259347   0.931   3.617   0.141  0.7679 -0.8008  0.3456
50127SOL     OW59348   9.983   5.562   8.595 -0.0212  0.1109  0.2321
50127SOL    HW159349   9.935   5.486   8.626 -0.1773 -0.0751 -0.4533
50127SOL    HW259350   9.920   5.634   8.602 -0.7459 -0.2994 -1.5500
50128SOL     OW59351   0.023   7.996  10.871  0.3064  0.1572  0.0322
50128SOL    HW159352  -0.004   7.908  10.846 -0.0839  0.3555 -0.2612
50128SOL    HW259353   0.112   7.985  10.905  0.1601 -0.3845  0.2524
50129SOL     OW59354   8.177   8.573   5.132 -0.3561 -0.0930 -0.1217
50129SOL    HW159355   8.248   8.586   5.069 -0.5692 -0.6729 -0.4915
50129SOL    HW259356   8.207   8.499   5.185  0.1954  0.9141  1.0063
50130SOL     OW59357   6.843   7.748  11.797 -0.2035  0.1000 -0.2701
50130SOL    HW159358   6.750   7.725  11.787 -0.0736  0.0556 -1.5854
50130SOL    HW259359   6.884   7.666  11.824 -0.7292  0.4571  1.8212
50131SOL     OW59360   3.124   9.079   5.874 -0.2119 -0.2643  0.0369
50131SOL    HW159361   3.142   9.138   5.800  2.9334 -0.7137  0.3091
50131SOL    HW259362   3.061   9.127   5.928 -0.1527  1.4539 -1.3239
50132SOL     OW59363   2.264  11.545   5.205  0.5988  0.8065 -0.1022
50132SOL    HW159364   2.213  11.625   5.194 -0.1357  0.4427  0.5300
50132SOL    HW259365   2.301  11.551   5.294 -0.0977  0.1108  0.2532
50133SOL     OW59366   5.466   6.516   2.755  0.4407  0.4250  0.3082
50133SOL    HW159367   5.376   6.538   2.733  0.3518  0.5127  0.7533
50133SOL    HW259368   5.463   6.488   2.846  1.0305  1.4854  0.6783
50134SOL     OW59369   3.953  12.235   2.102  0.4415  0.0850  0.1133
50134SOL    HW159370   4.037  12.218   2.058 -1.4721 -2.2606 -3.0101
50134SOL    HW259371   3.934  12.326   2.081  2.0487  0.6014  0.7024
50135SOL     OW59372  12.227  11.637   6.760 -0.1566  0.1214 -0.1138
50135SOL    HW159373  12.287  11.679   6.822  0.1118 -0.5885  0.1092
50135SOL    HW259374  12.239  11.685   6.679  1.1498 -0.3841 -0.2361
50136SOL     OW59375  10.869   3.064  12.322  0.2702 -0.6009  0.2681
50136SOL    HW159376  10.892   3.024  12.406 -0.4396 -1.8770 -0.1235
50136SOL    HW259377  10.878   3.158  12.338  2.8412 -0.8999  0.9521
50137SOL     OW59378   0.048   0.778  11.593  0.3248 -0.3185  0.0263
50137SOL    HW159379   0.080   0.775  11.683 -0.2479  0.2011  0.2584
50137SOL    HW259380   0.109   0.836  11.547  0.4595 -0.3672  0.1437
50138SOL     OW59381  11.970   2.755  10.358 -0.1629 -0.4098 -0.3007
50138SOL    HW159382  12.029   2.831  10.366 -0.3888 -0.3555  1.1171
50138SOL    HW259383  12.003   2.708  10.282 -0.0244  1.1172 -1.2298
50139SOL     OW59384   5.911   3.295   4.298 -0.0976 -0.1209  0.3667
50139SOL    HW159385   5.858   3.223   4.264 -0.4778  0.0141  0.6664
50139SOL    HW259386   5.968   3.255   4.364 -1.2748  0.0655  1.5451
50140SOL     OW59387   2.123   6.638   6.194  0.1806 -0.2377  0.3820
50140SOL    HW159388   2.078   6.718   6.168 -0.3163 -0.9565 -1.0821
50140SOL    HW259389   2.183   6.666   6.264 -1.0347  1.1100  0.9342
50141SOL     OW59390   5.706   9.222   8.211  0.3327  0.1749 -0.1998
50141SOL    HW159391   5.794   9.253   8.234  0.2910  0.6653 -0.6655
50141SOL    HW259392   5.648   9.279   8.261  0.2824 -0.1616  0.1208
50142SOL     OW59393  11.008   0.259  10.229  0.3023 -0.0718 -0.5627
50142SOL    HW159394  10.981   0.349  10.208 -1.6155 -0.6318 -0.6632
50142SOL    HW259395  11.034   0.263  10.321 -2.6815  0.0579  0.3900
50143SOL     OW59396   5.183   9.943   0.960 -0.2408  0.1084 -0.3498
50143SOL    HW159397   5.135   9.899   1.030 -1.6715 -2.1869 -2.6231
50143SOL    HW259398   5.139   9.916   0.880  1.1077  2.9002 -2.1876
50144SOL     OW59399   0.013   2.048   1.994 -0.1391  0.4885 -0.4049
50144SOL    HW159400   0.034   1.964   2.034 -0.1420  0.6229 -0.1151
50144SOL    HW259401  -0.006   2.028   1.903 -1.0589  0.0331 -0.1299
50145SOL     OW59402   4.767   4.589  10.263  0.0748 -0.5261  0.1359
50145SOL    HW159403   4.786   4.502  10.229  0.4446 -0.2695 -0.3153
50145SOL    HW259404   4.682   4.579  10.307 -0.0637 -1.0214 -0.2362
50146SOL     OW59405   7.529   5.791  11.132  0.7106  0.6511  0.0085
50146SOL    HW159406   7.516   5.732  11.058  3.3955 -0.1784  0.0939
50146SOL    HW259407   7.470   5.865  11.114  1.3426  0.5431 -3.0189
50147SOL     OW59408   1.119  11.700   0.278  0.2243 -0.1209  0.1593
50147SOL    HW159409   1.083  11.617   0.308 -0.2601 -0.0660 -0.2508
50147SOL    HW259410   1.170  11.677   0.200 -1.5470  0.2120 -1.1442
50148SOL     OW59411   1.669  11.430   6.866 -0.6657 -0.0059  0.4380
50148SOL    HW159412   1.574  11.419   6.864 -0.9676  1.7723  1.9144
50148SOL    HW259413   1.693  11.415   6.957  0.0854  1.9188  0.5991
50149SOL     OW59414  11.365   2.892   2.175 -0.1369 -0.2760  0.9083
50149SOL    HW159415  11.419   2.938   2.111 -1.9210  1.6605  0.6770
50149SOL    HW259416  11.337   2.813   2.130  0.3153  0.0416  0.0441
50150SOL     OW59417   2.452   3.092   9.585 -0.3104  0.3161  0.2813
50150SOL    HW159418   2.405   3.017   9.548  0.5933  0.1502 -0.5606
50150SOL    HW259419   2.429   3.165   9.528  1.7974 -0.1234 -1.2297
50151SOL     OW59420   6.769   6.790   5.647 -0.0303  0.6152 -0.1009
50151SOL    HW159421   6.743   6.706   5.682  1.9355 -1.5893 -3.3474
50151SOL    HW259422   6.865   6.786   5.644  0.0259  1.9082 -2.5729
50152SOL     OW59423   6.374   8.247   8.793  0.7212  0.4445 -0.8199
50152SOL    HW159424   6.320   8.297   8.732 -1.1484 -0.7880 -0.2827
50152SOL    HW259425   6.375   8.299   8.873  0.7977  0.7408 -1.0111
50153SOL     OW59426   9.040  11.670   6.944  0.5425  0.3105  0.5944
50153SOL    HW159427   8.992  11.681   7.026  0.5195  3.0009  0.3080
50153SOL    HW259428   8.974  11.682   6.876  1.0588  1.0316  0.2038
50154SOL     OW59429  11.172   0.614   3.912  0.5701  0.0887  0.2910
50154SOL    HW159430  11.235   0.684   3.891  0.5712  0.2668  0.8681
50154SOL    HW259431  11.091   0.661   3.932  1.0865  0.0954  2.6786
50155SOL     OW59432   3.444   9.322   1.198  0.2858 -0.3614 -0.3564
50155SOL    HW159433   3.374   9.383   1.222 -0.8459 -0.2522 -3.4634
50155SOL    HW259434   3.405   9.235   1.213  1.4927 -0.4795  2.9560
50156SOL     OW59435   3.528   2.519   8.522 -0.2484  0.3619  0.3981
50156SOL    HW159436   3.582   2.530   8.444  0.1212 -2.8432  0.0936
50156SOL    HW259437   3.591   2.521   8.594 -0.2783  0.7650  0.4184
50157SOL     OW59438  12.144   6.931   1.648 -0.5538 -0.2101 -0.4200
50157SOL    HW159439  12.183   6.850   1.613  1.5468 -0.1680  1.5884
50157SOL    HW259440  12.160   6.997   1.581  1.3561 -0.6151 -0.4196
50158SOL     OW59441  10.372   1.332   7.805 -0.4230 -0.0537 -0.0276
50158SOL    HW159442  10.344   1.248   7.770 -0.3604  0.1738 -0.6330
50158SOL    HW259443  10.295   1.368   7.848 -0.8411  0.1888 -0.9527
50159SOL     OW59444   3.007   5.045   7.066  0.5250  0.1270 -0.5956
50159SOL    HW159445   2.980   5.117   7.009  1.4108  2.1618  1.3654
50159SOL    HW259446   2.935   5.037   7.129  0.6795 -0.3248 -0.4749
50160SOL     OW59447   2.247   9.128   2.086 -0.5974  0.0602 -0.5430
50160SOL    HW159448   2.265   9.044   2.127  1.2725  0.5706 -0.2331
50160SOL    HW259449   2.247   9.191   2.159  0.4974  0.6569 -1.0329
50161SOL     OW59450   6.422  10.190   1.644 -0.0610  0.2247 -0.0719
50161SOL    HW159451   6.418  10.131   1.719 -0.2650  0.5812  0.2036
50161SOL    HW259452   6.405  10.134   1.569 -1.4385  0.1128  0.2851
50162SOL     OW59453  11.652   7.123   5.269 -0.3244 -0.0655 -0.1064
50162SOL    HW159454  11.714   7.066   5.224  0.5441  1.3775 -0.7902
50162SOL    HW259455  11.705   7.177   5.327 -1.2787 -0.8509  1.5943
50163SOL     OW59456   0.300   4.494   4.310  0.1812 -0.0955 -0.1192
50163SOL    HW159457   0.326   4.409   4.274 -1.4581 -0.3520 -0.7858
50163SOL    HW259458   0.361   4.509   4.382  0.5907 -1.7713 -0.0770
50164SOL     OW59459   6.238  11.891   8.552  0.4079  0.0811 -0.4951
50164SOL    HW159460   6.263  11.828   8.485  0.0210 -1.1714  0.5021
50164SOL    HW259461   6.320  11.909   8.599  0.8670  1.6269 -1.7857
50165SOL     OW59462   3.529   6.908   1.414  0.0013 -0.0095  0.1993
50165SOL    HW159463   3.562   6.955   1.337 -0.2694 -1.5979 -0.9503
50165SOL    HW259464   3.476   6.972   1.460 -0.0275  0.9396 -1.0796
50166SOL     OW59465   9.993   3.627   8.512  0.0983  0.2705 -0.3189
50166SOL    HW159466   9.921   3.584   8.466 -0.8762 -1.2687  2.3826
50166SOL    HW259467   9.987   3.719   8.487 -1.0593 -0.2751 -2.2577
50167SOL     OW59468   3.835   4.535   0.911  0.2638 -0.8649  0.0653
50167SOL    HW159469   3.898   4.571   0.973 -0.6897 -0.0801  0.6091
50167SOL    HW259470   3.750   4.567   0.941 -0.2566 -0.6398 -1.5107
50168SOL     OW59471   1.895  12.572   1.396 -0.0179 -0.1353  0.0145
50168SOL    HW159472   1.888  12.481   1.425  0.9781  0.2084  1.4715
50168SOL    HW259473   1.946  12.567   1.315 -0.8145 -0.9474 -0.4496
50169SOL     OW59474   4.758   7.221   2.469  0.1110 -0.6311 -0.1197
50169SOL    HW159475   4.824   7.195   2.404 -0.9562  0.6741 -1.8077
50169SOL    HW259476   4.789   7.306   2.501  1.0930 -1.6436  1.8388
50170SOL     OW59477   1.595   6.632   8.894 -0.2665  0.7681  0.3539
50170SOL    HW159478   1.548   6.613   8.975  0.0664  1.5786  0.7403
50170SOL    HW259479   1.667   6.689   8.920 -0.1467  1.0261 -0.5074
50171SOL     OW59480   6.319   8.927   9.922  0.1728 -0.1984 -0.2625
50171SOL    HW159481   6.292   8.995   9.860 -0.7001  0.7940  1.1572
50171SOL    HW259482   6.312   8.845   9.872 -0.5213  0.5633 -1.4663
50172SOL     OW59483   6.248   8.802   7.661 -0.1772 -0.1124  0.2089
50172SOL    HW159484   6.289   8.763   7.737 -1.7350 -1.6018  0.3511
50172SOL    HW259485   6.178   8.857   7.697 -0.6141 -0.4537 -0.0944
50173SOL     OW59486   1.938   4.345   7.686 -0.0517 -0.3076 -0.3720
50173SOL    HW159487   1.871   4.305   7.630 -0.8554 -0.7004  0.8175
50173SOL    HW259488   1.996   4.390   7.625 -0.0022 -1.9832 -1.6546
50174SOL     OW59489   4.257   3.770   3.815  0.4768 -0.2635 -0.3085
50174SOL    HW159490   4.209   3.789   3.896 -0.0229  2.2047 -1.0803
50174SOL    HW259491   4.349   3.777   3.839  0.3366  0.1626  0.1183
50175SOL     OW59492   6.185   0.746   9.458 -0.6050  0.2206 -0.4750
50175SOL    HW159493   6.137   0.725   9.539 -0.1606 -0.9442 -0.4934
50175SOL    HW259494   6.174   0.668   9.403  2.3662 -0.6588  0.0284
50176SOL     OW59495   4.128   2.457   6.787  0.2037  0.2741 -0.6235
50176SOL    HW159496   4.068   2.528   6.809 -0.6818 -0.3274 -1.0341
50176SOL    HW259497   4.098   2.383   6.840  0.8393  0.0832 -0.5267
50177SOL     OW59498   4.505   4.027   3.373 -0.2792 -0.1943 -0.2049
50177SOL    HW159499   4.515   4.122   3.365 -1.4699  0.0238  0.6902
50177SOL    HW259500   4.411   4.012   3.362 -0.3200 -1.0933  1.1857
50178SOL     OW59501   4.960   5.787  10.976  0.4393  0.2010 -0.8128
50178SOL    HW159502   4.901   5.776  10.902  0.1337 -1.6876 -0.3397
50178SOL    HW259503   5.037   5.735  10.954 -0.4204 -2.0028  0.9115
50179SOL     OW59504  11.062   0.428   1.044  0.0681 -0.1171  0.3303
50179SOL    HW159505  11.072   0.439   1.139  0.5096  3.1126  0.0119
50179SOL    HW259506  11.076   0.334   1.030  0.1865 -0.6899  3.4082
50180SOL     OW59507   7.286   6.765   2.842  0.1284  0.2319 -0.6915
50180SOL    HW159508   7.296   6.860   2.853 -2.0931  0.3514  0.9813
50180SOL    HW259509   7.281   6.752   2.747 -1.3427  2.0441 -0.9093
50181SOL     OW59510   9.314  10.726  10.063 -0.0462  0.4222 -0.2966
50181SOL    HW159511   9.384  10.758  10.006  0.7579  2.3712  1.6222
50181SOL    HW259512   9.251  10.798  10.064  0.3008  0.7566  1.7429
50182SOL     OW59513   6.107   1.470   7.285 -0.6120 -0.0838  0.4892
50182SOL    HW159514   6.103   1.395   7.226 -0.3886 -0.0202  0.3945
50182SOL    HW259515   6.087   1.434   7.371 -3.3222  0.1966  0.0589
50183SOL     OW59516   4.127   8.358   3.752  0.7716  0.1421  0.0462
50183SOL    HW159517   4.213   8.325   3.728  0.1786 -0.9559 -0.6395
50183SOL    HW259518   4.078   8.362   3.670  0.9865  3.4282 -0.0592
50184SOL     OW59519   6.352  11.572  11.135 -0.2072 -0.0087  0.0912
50184SOL    HW159520   6.383  11.644  11.080  1.5435 -0.4556  0.4548
50184SOL    HW259521   6.303  11.516  11.075  1.3443 -0.2869 -0.9667
50185SOL     OW59522   0.963   0.926   6.476 -0.3518  0.5133  0.0275
50185SOL    HW159523   0.965   0.945   6.569 -1.1718 -0.9406  0.3818
50185SOL    HW259524   0.872   0.942   6.450 -0.3537  0.0056 -0.3002
50186SOL     OW59525   3.703  11.079   1.896 -0.0332 -0.2911  0.2241
50186SOL    HW159526   3.736  11.136   1.826  0.1306  1.4057  1.6079
50186SOL    HW259527   3.720  10.991   1.865  1.3514  0.4435 -1.2609
50187SOL     OW59528   1.181   5.624   5.201 -0.3028 -0.3391  0.3115
50187SOL    HW159529   1.162   5.710   5.163  1.4032  0.8893  2.0453
50187SOL    HW259530   1.248   5.587   5.143  0.4007  0.3946  0.6284
50188SOL     OW59531   2.586   3.136   3.660 -0.1792 -0.5282 -0.3144
50188SOL    HW159532   2.653   3.197   3.628 -0.7083 -0.7946 -2.0206
50188SOL    HW259533   2.623   3.050   3.644 -1.4693 -0.7123 -2.6367
50189SOL     OW59534   5.563   2.420  12.585  0.6405  0.2689  0.0734
50189SOL    HW159535   5.550   2.514  12.602 -0.9244 -0.0700  1.0130
50189SOL    HW259536   5.510   2.403  12.507  1.4492  0.2832 -0.4830
50190SOL     OW59537   0.438   8.077  11.418  0.0373  0.1106 -0.1512
50190SOL    HW159538   0.531   8.098  11.420  0.0943  0.1607 -1.8142
50190SOL    HW259539   0.432   7.987  11.450  0.7587 -0.1699 -0.7816
50191SOL     OW59540   9.146  10.592   4.254 -0.4294  0.0852  0.0623
50191SOL    HW159541   9.150  10.642   4.173 -1.1810 -2.1376 -1.4392
50191SOL    HW259542   9.103  10.651   4.316 -0.8628  1.4576 -1.4689
50192SOL     OW59543   3.898   5.944   8.165 -0.2257 -0.2227 -0.4944
50192SOL    HW159544   3.810   5.924   8.198 -0.7125 -0.9295 -2.1118
50192SOL    HW259545   3.888   5.942   8.069  1.6065 -0.6063 -0.7050
50193SOL     OW59546   9.055  10.756   4.463 -0.1707 -0.2727  0.3423
50193SOL    HW159547   8.977  10.804   4.492 -2.0432 -3.0879  0.3624
50193SOL    HW259548   9.100  10.732   4.543  0.0689  0.2958  0.3854
50194SOL     OW59549   7.737  10.285  10.842  0.7524  0.0586  0.2143
50194SOL    HW159550   7.779  10.274  10.928  2.1041 -1.1586 -0.5539
50194SOL    HW259551   7.766  10.209  10.792  0.7823  1.2426 -1.6491
50195SOL     OW59552   9.038  11.031  11.729  0.0119  0.1910  0.0597
50195SOL    HW159553   8.956  11.071  11.699 -0.3167 -0.7516 -0.3538
50195SOL    HW259554   9.106  11.076  11.680 -0.3662  0.0572 -0.6040
50196SOL     OW59555   1.489   9.654   5.347  0.3815 -0.4968 -0.3463
50196SOL    HW159556   1.434   9.616   5.278  1.5279 -1.3726 -0.8146
50196SOL    HW259557   1.431   9.657   5.424  0.3264 -3.8371 -0.0887
50197SOL     OW59558   2.618   1.776   9.154  0.0751  0.0541 -0.4622
50197SOL    HW159559   2.680   1.793   9.225 -0.0636 -0.0429 -0.3175
50197SOL    HW259560   2.552   1.845   9.163 -0.6237 -0.6884  0.2747
50198SOL     OW59561   2.617  11.114   3.587 -0.6873 -0.0220 -0.9258
50198SOL    HW159562   2.529  11.150   3.599 -0.3660  1.2214 -2.0803
50198SOL    HW259563   2.666  11.184   3.544  1.4569  0.0763  1.4725
50199SOL     OW59564   4.753   8.852   1.550 -0.1882 -0.3962  0.5681
50199SOL    HW159565   4.691   8.812   1.489  0.6446 -2.0669  0.7530
50199SOL    HW259566   4.742   8.946   1.537 -0.5587 -0.6826 -1.6407
50200SOL     OW59567   5.063   5.231   4.095 -0.4356 -0.3474  0.1968
50200SOL    HW159568   5.069   5.231   3.999 -0.0216  1.5733  0.1770
50200SOL    HW259569   4.980   5.276   4.113 -0.0948  0.0738  0.7303
50201SOL     OW59570  11.348   2.061   0.655  0.3183 -0.6526  0.3433
50201SOL    HW159571  11.368   1.981   0.704  1.9662  0.2357  1.2151
50201SOL    HW259572  11.303   2.117   0.718  1.8172  0.2221  0.6930
50202SOL     OW59573   6.359   3.683   4.979 -0.4562  0.0669 -0.2183
50202SOL    HW159574   6.433   3.635   5.017 -0.3766 -0.1449 -0.6427
50202SOL    HW259575   6.324   3.625   4.912 -0.7460  0.3434 -0.3088
50203SOL     OW59576   8.119   5.114   1.610  0.6433 -0.0977  0.1624
50203SOL    HW159577   8.165   5.130   1.693 -1.2393  0.1530  1.2233
50203SOL    HW259578   8.168   5.165   1.545  0.7826  1.6496  1.5666
50204SOL     OW59579   8.767   7.808  11.384 -0.2627  0.5165  0.0197
50204SOL    HW159580   8.740   7.879  11.443  0.0098  1.6438 -1.1478
50204SOL    HW259581   8.705   7.813  11.311 -0.4782 -0.7201  0.1098
50205SOL     OW59582   4.876   3.871   9.484  0.3364 -0.0531 -0.3054
50205SOL    HW159583   4.858   3.824   9.403  1.5044  0.5189 -0.9218
50205SOL    HW259584   4.946   3.933   9.461 -1.0242  1.8956  0.5119
50206SOL     OW59585   4.160   5.509   3.435 -0.6748 -0.3919 -0.2172
50206SOL    HW159586   4.241   5.501   3.383 -0.4176 -0.8032  0.2393
50206SOL    HW259587   4.189   5.538   3.521 -1.1767  1.0303 -0.5096
50207SOL     OW59588   5.943   5.108   7.316  0.9831 -0.5008  0.1832
50207SOL    HW159589   5.953   5.201   7.294  1.1845 -0.9569 -1.9058
50207SOL    HW259590   5.949   5.104   7.411  1.4779  1.5624  0.2692
50208SOL     OW59591   8.043   4.274   9.222 -0.0298  0.7313 -0.8114
50208SOL    HW159592   7.973   4.268   9.157  0.4377  1.0996 -1.3577
50208SOL    HW259593   8.118   4.230   9.182 -0.3340 -0.8900  0.3340
50209SOL     OW59594  12.551   1.051   9.218 -0.5222 -0.6633  0.3305
50209SOL    HW159595  12.593   1.033   9.303 -0.5025 -0.5659  0.3416
50209SOL    HW259596  12.478   1.109   9.240  0.5934  0.8781  0.0430
50210SOL     OW59597  11.729   2.778   4.226 -0.1200  0.7780 -0.0065
50210SOL    HW159598  11.741   2.741   4.139  0.1478  1.2454 -0.1712
50210SOL    HW259599  11.722   2.702   4.284  1.8081  0.4511 -0.1472
50211SOL     OW59600   8.752  12.083  11.054  0.1295 -0.0303 -0.2713
50211SOL    HW159601   8.730  12.003  11.102  1.5061 -0.0796  0.3307
50211SOL    HW259602   8.714  12.154  11.106 -1.9159 -0.3144 -1.3070
50212SOL     OW59603   3.688   8.841   7.539  0.3253 -0.4427  0.1061
50212SOL    HW159604   3.779   8.824   7.514  0.6092 -0.9988  1.4261
50212SOL    HW259605   3.695   8.901   7.613 -0.3179 -1.3981  0.9541
50213SOL     OW59606   9.462  10.802   9.122 -0.0484  0.3431 -0.2082
50213SOL    HW159607   9.522  10.872   9.148 -0.6235  0.4947  0.7562
50213SOL    HW259608   9.505  10.760   9.048  0.6354  1.2716 -0.3545
50214SOL     OW59609  10.406   6.103   4.594 -0.3273  0.6293 -0.0553
50214SOL    HW159610  10.465   6.147   4.655 -0.0841 -0.5745  0.6114
50214SOL    HW259611  10.454   6.026   4.565 -1.0269  0.3855 -0.6017
50215SOL     OW59612   2.470   9.247   7.399  0.3751 -0.2467  0.5079
50215SOL    HW159613   2.508   9.162   7.375  1.6223  0.5860 -0.5479
50215SOL    HW259614   2.493   9.305   7.327 -2.3379  0.5108  0.1221
50216SOL     OW59615   0.771   7.659  10.687 -0.1363  0.6185 -0.1815
50216SOL    HW159616   0.677   7.649  10.674 -0.2707  1.9467 -0.3455
50216SOL    HW259617   0.811   7.603  10.619 -0.7947  0.1032 -0.1496
50217SOL     OW59618   3.204   0.193   9.530  0.1393  1.0200 -0.5197
50217SOL    HW159619   3.285   0.181   9.480  0.2055  0.8457 -0.3740
50217SOL    HW259620   3.193   0.287   9.536  1.2545  1.1037  0.9213
50218SOL     OW59621  11.852   0.948   0.096  0.2743  0.0108 -0.7294
50218SOL    HW159622  11.824   0.959   0.005 -0.9736  0.9421 -0.2617
50218SOL    HW259623  11.784   0.893   0.135  0.3920  0.2536 -0.1699
50219SOL     OW59624   3.185   4.879   9.941  0.1582 -0.3428 -0.2529
50219SOL    HW159625   3.100   4.844   9.969  0.5281 -0.2927  0.9613
50219SOL    HW259626   3.162   4.952   9.884 -0.6502  0.6064  1.2087
50220SOL     OW59627   4.335  11.917   1.063 -0.0351 -0.6903  0.8869
50220SOL    HW159628   4.342  11.823   1.082  0.4857 -0.5092  1.6631
50220SOL    HW259629   4.406  11.935   1.002 -0.1915 -0.8223  0.6679
50221SOL     OW59630   0.614   1.526   4.614 -0.1265 -0.3352  0.1669
50221SOL    HW159631   0.545   1.484   4.563 -0.4865 -2.5201  2.2642
50221SOL    HW259632   0.567   1.578   4.679  0.3170  1.9891 -1.2725
50222SOL     OW59633   4.345   0.278   7.477 -0.0770  0.3506  0.2209
50222SOL    HW159634   4.419   0.328   7.443  0.0404 -0.3094 -0.5236
50222SOL    HW259635   4.384   0.202   7.520 -0.3357 -0.3780 -0.8066
50223SOL     OW59636   1.552   3.662  10.918 -0.1755  0.0000  0.3228
50223SOL    HW159637   1.643   3.688  10.902 -1.2198  1.9177 -3.7654
50223SOL    HW259638   1.551   3.568  10.905  1.2808 -0.1011  0.8005
50224SOL     OW59639   8.877   4.148  12.535 -0.0327  0.0714  0.4102
50224SOL    HW159640   8.827   4.195  12.602 -0.3999 -1.0491  0.9453
50224SOL    HW259641   8.853   4.190  12.453 -0.7300  0.4886  0.8177
50225SOL     OW59642   9.200   4.312  12.413  0.4653 -0.5791 -0.2147
50225SOL    HW159643   9.235   4.227  12.443 -2.2614 -0.9561  2.4019
50225SOL    HW259644   9.209   4.369  12.489  1.3315  1.2722 -1.6357
50226SOL     OW59645   5.075   0.403   8.120  0.0568  0.5827  0.5105
50226SOL    HW159646   5.079   0.358   8.204  1.2105 -1.3546 -0.5252
50226SOL    HW259647   5.166   0.427   8.101 -0.0984  0.4526 -0.4506
50227SOL     OW59648   4.223   7.193  12.366 -0.3331  0.8310 -0.2907
50227SOL    HW159649   4.143   7.245  12.358  0.0309  1.8199  1.8970
50227SOL    HW259650   4.267   7.227  12.444  1.5004 -0.6875 -0.5753
50228SOL     OW59651  10.903   8.000   5.583  0.2919  0.5049 -0.3893
50228SOL    HW159652  10.928   8.049   5.504 -1.8794 -0.0900 -1.5126
50228SOL    HW259653  10.811   8.022   5.596  0.2425 -0.5295  1.1657
50229SOL     OW59654   5.910  11.580  10.404  0.6018 -0.0222 -0.3683
50229SOL    HW159655   5.903  11.564  10.498 -0.7226 -0.6530 -0.5642
50229SOL    HW259656   5.866  11.506  10.363 -0.1478  0.9802 -1.4449
50230SOL     OW59657   1.195  11.085   6.527 -0.6163  0.2079 -0.0742
50230SOL    HW159658   1.165  11.090   6.618 -1.5043  0.3219 -0.3664
50230SOL    HW259659   1.129  11.032   6.483 -1.3957  1.9795 -1.1445
50231SOL     OW59660   9.999  11.067   4.610 -0.2661  0.2048 -0.2808
50231SOL    HW159661  10.078  11.097   4.564  0.5440  0.1601  1.0222
50231SOL    HW259662  10.033  11.017   4.685 -1.5542 -0.9729 -0.4538
50232SOL     OW59663   8.047  10.496   0.525  0.2089  0.5469 -0.2442
50232SOL    HW159664   8.023  10.567   0.466  0.6905  1.2111  0.3442
50232SOL    HW259665   8.068  10.422   0.467 -0.9811  0.6533 -0.8386
50233SOL     OW59666   9.033  12.274   7.834 -0.3225  0.1560 -0.4046
50233SOL    HW159667   9.012  12.202   7.775  1.3298 -1.6539  1.0519
50233SOL    HW259668   8.964  12.271   7.901 -0.6913  0.4556 -0.7661
50234SOL     OW59669   1.569   5.988   0.159 -0.1954 -0.0673  0.2365
50234SOL    HW159670   1.586   5.897   0.182 -0.1122 -0.2799 -0.6580
50234SOL    HW259671   1.473   5.994   0.155 -0.2074 -0.0607  0.4705
50235SOL     OW59672   8.919   6.885  10.248 -0.3816 -0.1291  0.0246
50235SOL    HW159673   8.953   6.960  10.298 -1.5811 -0.6361  1.6843
50235SOL    HW259674   8.959   6.808  10.289 -0.4372 -0.5090 -0.6148
50236SOL     OW59675   6.286   6.511   9.028 -0.1325 -0.1415  0.3818
50236SOL    HW159676   6.366   6.458   9.027  1.2019  1.7917  0.1127
50236SOL    HW259677   6.313   6.596   9.062 -1.8955  0.8539 -0.5160
50237SOL     OW59678   2.877  12.494   3.414 -0.1692 -0.4965  0.2186
50237SOL    HW159679   2.861  12.433   3.486  0.1375  0.7836  1.4006
50237SOL    HW259680   2.792  12.534   3.397  0.3591  1.6182  2.1621
50238SOL     OW59681   2.902  11.048   3.017 -0.2393  0.1242 -0.0304
50238SOL    HW159682   2.952  11.128   3.002  0.1385  0.0536  0.8198
50238SOL    HW259683   2.933  11.016   3.101  1.4305 -2.2214 -1.4015
50239SOL     OW59684   0.390   9.471   5.323  0.5850  0.1504 -0.0291
50239SOL    HW159685   0.472   9.429   5.350  1.2182  1.4687  0.1431
50239SOL    HW259686   0.327   9.446   5.391  1.4264  1.0135  1.1054
50240SOL     OW59687   2.599   9.798   2.058 -0.0444 -0.0356 -0.5275
50240SOL    HW159688   2.520   9.826   2.103 -0.2546  0.1066 -0.9871
50240SOL    HW259689   2.576   9.797   1.965 -0.1567 -2.0287 -0.5187
50241SOL     OW59690  10.386  11.604   3.175 -0.4087 -0.8258 -0.0577
50241SOL    HW159691  10.397  11.519   3.131 -0.9960 -1.3101  0.7195
50241SOL    HW259692  10.404  11.668   3.106 -1.2381 -1.5652 -1.0036
50242SOL     OW59693   5.981   3.269   0.799  0.5002  0.4086 -0.0124
50242SOL    HW159694   5.959   3.178   0.779  2.5720  0.0928 -1.1549
50242SOL    HW259695   6.067   3.265   0.840 -0.5998  1.6891  2.6612
50243SOL     OW59696  11.938   8.952   2.742 -0.4160 -0.5727  0.0573
50243SOL    HW159697  11.845   8.958   2.717 -0.5375 -1.1158  0.3686
50243SOL    HW259698  11.950   9.024   2.804  0.1393  1.4534 -2.2212
50244SOL     OW59699   1.622   0.560   7.788  0.6308 -0.2404  0.3839
50244SOL    HW159700   1.617   0.470   7.753  1.2478  0.0691 -0.5320
50244SOL    HW259701   1.590   0.552   7.878  1.5657 -1.5593  0.6393
50245SOL     OW59702   7.056  10.792   9.985  0.0848 -0.4801  0.2807
50245SOL    HW159703   6.969  10.757  10.004 -0.1793  0.2830  0.5047
50245SOL    HW259704   7.058  10.877  10.030  0.1968  0.4371 -1.3793
50246SOL     OW59705   2.207   3.999   5.789  0.0926  0.5727 -0.3066
50246SOL    HW159706   2.167   3.932   5.845 -1.0889  2.2011  0.8830
50246SOL    HW259707   2.284   4.028   5.837 -0.5964  1.5570  0.2415
50247SOL     OW59708   3.465   6.701   2.719  0.3364 -0.0812  0.4920
50247SOL    HW159709   3.418   6.750   2.786  0.0582  0.1960  0.1011
50247SOL    HW259710   3.398   6.646   2.679  0.1793  0.8199 -0.5337
50248SOL     OW59711   0.227   4.927   5.095 -0.3467  0.3439 -0.1984
50248SOL    HW159712   0.276   4.968   5.024 -1.2106  0.6948 -0.6011
50248SOL    HW259713   0.150   4.889   5.053 -0.3345 -0.3648  0.3999
50249SOL     OW59714   1.172  10.682  10.032  0.4139 -0.0766  0.5891
50249SOL    HW159715   1.251  10.674  10.085 -0.0589 -2.2370  1.0437
50249SOL    HW259716   1.111  10.619  10.070 -0.8794  0.2367 -0.8796
50250SOL     OW59717  11.520  11.021   6.899  0.0545  0.3149 -0.0769
50250SOL    HW159718  11.490  10.932   6.880  0.9664 -0.0782  0.2837
50250SOL    HW259719  11.528  11.024   6.995  1.7821  0.1911 -0.1919
50251SOL     OW59720   2.297  12.585   2.302  0.5035 -0.1268  0.0411
50251SOL    HW159721   2.333  12.616   2.386  0.7715  1.7690 -0.7188
50251SOL    HW259722   2.374  12.556   2.253  0.5986  0.6695 -0.2908
50252SOL     OW59723   6.849   7.358  11.225  0.3267  0.2832 -0.1131
50252SOL    HW159724   6.935   7.365  11.183 -0.0092 -1.5173 -1.2094
50252SOL    HW259725   6.868   7.356  11.318  1.5957 -0.8701 -0.3586
50253SOL     OW59726  12.144   2.638  11.406  0.2268  0.6494 -0.3638
50253SOL    HW159727  12.052   2.621  11.425  0.6263 -0.4455  0.7537
50253SOL    HW259728  12.143   2.694  11.328 -1.3931  1.3053  0.0865
50254SOL     OW59729   9.338   7.546   0.478  0.2575 -0.3241 -0.5894
50254SOL    HW159730   9.370   7.565   0.566 -2.0891 -0.7367  0.4397
50254SOL    HW259731   9.286   7.623   0.455  0.3525 -0.4882 -1.3672
50255SOL     OW59732   8.709  10.569   3.030  0.6717 -0.1593 -0.5477
50255SOL    HW159733   8.706  10.595   2.938  0.6790  0.1783 -0.4539
50255SOL    HW259734   8.620  10.544   3.052  0.5550  0.2998 -0.4934
50256SOL     OW59735   4.642   4.591   7.712 -0.2089 -0.3084  0.1999
50256SOL    HW159736   4.655   4.684   7.698 -0.6381 -0.1816  0.6069
50256SOL    HW259737   4.589   4.586   7.792 -0.2971 -0.8932  0.1108
50257SOL     OW59738   8.014   6.521  11.978  0.0379  0.0908  0.4419
50257SOL    HW159739   8.018   6.583  12.051  0.9093  1.0772 -0.3939
50257SOL    HW259740   7.936   6.547  11.929  0.1395  0.2313  0.3524
50258SOL     OW59741  12.133   4.329   9.377  0.0132  0.1014  0.6254
50258SOL    HW159742  12.205   4.388   9.400 -0.5087  1.6774 -1.5308
50258SOL    HW259743  12.056   4.370   9.417 -0.1491  0.1435  0.2694
50259SOL     OW59744   2.604   7.049   8.447 -0.5259  0.0571 -0.3806
50259SOL    HW159745   2.610   6.954   8.457  4.8650  0.0565 -0.7239
50259SOL    HW259746   2.603   7.083   8.537  0.4227 -0.3811 -0.1875
50260SOL     OW59747  10.591   8.665   4.699 -0.3988 -0.1084 -0.2647
50260SOL    HW159748  10.558   8.712   4.775  0.0507  1.4372 -0.9899
50260SOL    HW259749  10.520   8.667   4.635 -0.3555 -0.3527 -0.3225
50261SOL     OW59750   1.054   6.380   5.553 -0.2477  0.4506 -0.1247
50261SOL    HW159751   1.045   6.476   5.556  0.1974  0.5904 -1.9396
50261SOL    HW259752   1.094   6.357   5.637  1.1935  2.0465 -0.3092
50262SOL     OW59753  10.333   6.287   3.770 -0.6678 -0.2674  0.0466
50262SOL    HW159754  10.299   6.289   3.680  1.5985  1.0740 -0.8579
50262SOL    HW259755  10.261   6.321   3.823 -1.9596 -0.8177 -1.2628
50263SOL     OW59756   7.487  12.187  11.837 -0.0676 -0.4513  0.6641
50263SOL    HW159757   7.497  12.254  11.905 -0.7413 -0.4046  0.7216
50263SOL    HW259758   7.496  12.104  11.885 -0.4571 -0.4179  0.7963
50264SOL     OW59759  11.647   3.422  10.054  0.4073  0.1417  0.4680
50264SOL    HW159760  11.691   3.396  10.134  0.0738 -0.6242  0.4137
50264SOL    HW259761  11.632   3.340  10.007  0.8632  0.6056 -0.5204
50265SOL     OW59762   0.890   2.317   7.249 -0.2582  0.1710 -0.7598
50265SOL    HW159763   0.912   2.258   7.322  0.8733 -0.7095 -1.7880
50265SOL    HW259764   0.799   2.294   7.228 -1.0959  1.3771  1.2062
50266SOL     OW59765  12.565   4.646   4.775  0.0645 -0.4292  0.6289
50266SOL    HW159766  12.535   4.587   4.707 -3.2193 -1.0886  2.4690
50266SOL    HW259767  12.577   4.730   4.731  0.2954 -1.3517 -1.1444
50267SOL     OW59768   7.252   2.477   7.972  0.3298  0.1844  0.2254
50267SOL    HW159769   7.215   2.562   7.994  2.0519  0.7288  1.2204
50267SOL    HW259770   7.305   2.493   7.894  0.2102 -0.1026  0.0834
50268SOL     OW59771  11.563  11.455  12.592 -0.1347  0.0822 -0.0379
50268SOL    HW159772  11.476  11.416  12.583  0.3382 -1.0005  0.0252
50268SOL    HW259773  11.566  11.486  12.682 -0.2935 -0.2927  0.0979
50269SOL     OW59774   1.985  10.667   4.137 -0.0435  0.3035  0.4367
50269SOL    HW159775   2.028  10.733   4.083 -0.5085 -0.7888 -1.3503
50269SOL    HW259776   1.904  10.708   4.166 -1.1729  0.0183 -2.0866
50270SOL     OW59777   7.003   2.768   7.771  0.1452 -0.2182  0.0346
50270SOL    HW159778   6.978   2.860   7.760  1.2509  0.0056 -0.7845
50270SOL    HW259779   7.082   2.771   7.826  0.7667 -0.5887 -0.8101
50271SOL     OW59780  12.048   7.807   3.244 -0.1637  0.3333  0.1667
50271SOL    HW159781  11.968   7.845   3.206 -0.5916 -0.6738  0.0279
50271SOL    HW259782  12.117   7.868   3.220 -0.4409 -0.1678 -2.1014
50272SOL     OW59783  10.207   8.132  10.163 -0.2257 -0.1964  0.4639
50272SOL    HW159784  10.242   8.093  10.082 -0.3303  1.4133 -0.3950
50272SOL    HW259785  10.191   8.057  10.220  2.1213 -1.2099 -0.0879
50273SOL     OW59786   5.210   0.665   5.939  0.1119 -0.4620 -0.0737
50273SOL    HW159787   5.298   0.699   5.955 -0.5549  0.4094  2.0894
50273SOL    HW259788   5.213   0.574   5.968 -0.0818  0.0365  1.6373
50274SOL     OW59789   6.287  11.756   7.814 -0.1523 -0.1994  0.3339
50274SOL    HW159790   6.220  11.791   7.872 -0.2754  0.1275 -0.0021
50274SOL    HW259791   6.368  11.799   7.842 -0.5913  1.8017 -1.2522
50275SOL     OW59792   5.531  10.240   5.940  0.2918 -0.4147  0.4700
50275SOL    HW159793   5.603  10.281   5.893 -0.4252 -1.0192 -1.2407
50275SOL    HW259794   5.560  10.238   6.031  2.0301  0.2012 -0.0279
50276SOL     OW59795   7.148   1.728   0.543 -0.0430  0.2036 -0.4808
50276SOL    HW159796   7.208   1.801   0.555  2.2807 -1.7423  0.5391
50276SOL    HW259797   7.077   1.745   0.605  0.4815  1.5572 -0.2283
50277SOL     OW59798   9.956   0.531  10.567 -0.1667 -0.2951 -0.2127
50277SOL    HW159799   9.997   0.514  10.483 -0.0897 -0.2125 -0.1909
50277SOL    HW259800  10.021   0.504  10.632 -0.4457 -0.9148 -0.1773
50278SOL     OW59801   5.894   6.978   3.242  0.0067  0.0367  0.7746
50278SOL    HW159802   5.801   6.963   3.259 -0.0007  0.1437  0.8314
50278SOL    HW259803   5.906   6.955   3.150 -0.1891  0.5444  0.6151
50279SOL     OW59804  11.319   2.274   2.206  0.3075  0.3828 -0.0599
50279SOL    HW159805  11.354   2.187   2.188  0.2981  0.8938 -2.9725
50279SOL    HW259806  11.390   2.333   2.182 -0.0437  1.2402  0.9410
50280SOL     OW59807  11.179   9.083   1.835 -0.3875  0.5658  0.2120
50280SOL    HW159808  11.139   9.073   1.921  0.7448 -1.0662  0.6053
50280SOL    HW259809  11.229   9.002   1.823  1.2054  1.6914 -1.0665
50281SOL     OW59810   2.433   7.686   3.713  0.2314 -0.1128 -0.7190
50281SOL    HW159811   2.414   7.764   3.661  2.4083  2.2627  1.7094
50281SOL    HW259812   2.354   7.671   3.764 -0.2877  0.3986 -1.3615
50282SOL     OW59813   8.925   7.720  11.986  0.8409 -0.5374 -0.1749
50282SOL    HW159814   8.854   7.658  11.969  1.1630 -0.5310 -1.6682
50282SOL    HW259815   8.999   7.666  12.013  1.2789 -0.9087 -1.9770
50283SOL     OW59816  10.143   7.283   2.313 -0.4560  0.5720 -0.0201
50283SOL    HW159817  10.122   7.376   2.308 -0.6242  0.5348 -0.0103
50283SOL    HW259818  10.235   7.278   2.288 -0.6947  0.6392 -0.9860
50284SOL     OW59819  12.445  11.963   0.832  0.3402  0.4689  0.3387
50284SOL    HW159820  12.480  11.918   0.909  0.4773 -1.4235 -0.7746
50284SOL    HW259821  12.522  12.005   0.793  0.4214  0.7015  0.7356
50285SOL     OW59822   6.677   3.009   8.087 -0.0971 -0.5200 -0.1946
50285SOL    HW159823   6.762   2.981   8.055 -0.2341 -0.6429 -0.4552
50285SOL    HW259824   6.629   3.035   8.008  1.4693  4.6002  0.1874
50286SOL     OW59825   2.287  10.679   6.823 -0.1997 -0.6614 -0.0991
50286SOL    HW159826   2.251  10.661   6.735 -2.1570  1.9766  0.0400
50286SOL    HW259827   2.222  10.642   6.883 -0.1507 -0.2563  0.2086
50287SOL     OW59828   4.635  10.095   0.269  0.3435 -0.4982  0.3491
50287SOL    HW159829   4.725  10.113   0.241 -0.4160  0.6544 -1.4927
50287SOL    HW259830   4.617  10.006   0.237  1.1045 -1.1401  1.5945
50288SOL     OW59831   7.640   2.489   3.548 -0.2841  0.5458 -0.4377
50288SOL    HW159832   7.555   2.528   3.528  0.3257  2.6327  0.7004
50288SOL    HW259833   7.645   2.490   3.643  1.3926  1.4594 -0.4890
50289SOL     OW59834  11.022   4.806   3.478 -0.4888 -0.1497 -0.0154
50289SOL    HW159835  10.960   4.800   3.406  1.1702  0.1364 -1.5272
50289SOL    HW259836  10.996   4.885   3.525 -1.0990  0.1265 -0.7969
50290SOL     OW59837   9.013   6.607  10.343  0.4609  0.5918  0.0548
50290SOL    HW159838   9.103   6.590  10.371  0.3268 -1.1225 -0.4265
50290SOL    HW259839   8.960   6.544  10.392 -0.4913  1.5977  0.3510
50291SOL     OW59840   9.295   9.018  10.466 -0.1873 -0.1549 -1.1098
50291SOL    HW159841   9.305   9.003  10.372 -0.2274  1.1212 -1.3359
50291SOL    HW259842   9.370   9.073  10.490  1.6613 -3.0460  0.2998
50292SOL     OW59843  11.764   1.220   5.062  0.6577  0.6691 -0.2335
50292SOL    HW159844  11.808   1.135   5.055  0.4675  0.5859 -0.4173
50292SOL    HW259845  11.833   1.284   5.042  0.6256  0.5256 -0.8365
50293SOL     OW59846   6.376  11.003   4.193 -0.0376 -0.3083 -0.5379
50293SOL    HW159847   6.334  10.946   4.257  0.7010 -0.0744  0.1752
50293SOL    HW259848   6.314  11.007   4.120 -0.2713 -1.7104 -0.4497
50294SOL     OW59849   4.941   0.926   6.959  0.0829  0.1117  0.0566
50294SOL    HW159850   4.906   0.839   6.940 -0.0521  0.2177 -0.1861
50294SOL    HW259851   4.955   0.966   6.873 -0.1275  0.4380  0.1734
50295SOL     OW59852   1.279   8.335   1.559  0.4040 -0.0388 -0.2701
50295SOL    HW159853   1.239   8.274   1.497 -3.2599 -0.7027  2.4557
50295SOL    HW259854   1.254   8.422   1.527 -0.0001 -0.2843 -0.6319
50296SOL     OW59855   6.028  12.162   2.567 -0.2399 -0.1850 -0.2379
50296SOL    HW159856   6.089  12.215   2.515 -1.8283  2.9983  0.8848
50296SOL    HW259857   6.083  12.095   2.607  2.1054  1.0630 -1.1450
50297SOL     OW59858   3.519   1.785   5.048  0.0432 -0.0260 -0.6168
50297SOL    HW159859   3.559   1.800   5.134  0.7499  1.8386 -1.2251
50297SOL    HW259860   3.564   1.846   4.990 -0.8267 -0.8497 -2.2152
50298SOL     OW59861  11.626   0.903  11.968  0.0134 -0.5690  0.1755
50298SOL    HW159862  11.614   0.958  12.045 -0.4105 -1.5068  0.7945
50298SOL    HW259863  11.546   0.918  11.916  0.7641  0.8636 -0.6206
50299SOL     OW59864   6.945   8.186  11.749  0.2070 -0.1110  0.1698
50299SOL    HW159865   6.865   8.190  11.696 -0.4827 -0.8816  1.1278
50299SOL    HW259866   6.995   8.263  11.723 -1.5098  1.1978  0.6176
50300SOL     OW59867   3.741  11.454   4.876 -0.0726 -0.0300 -0.0192
50300SOL    HW159868   3.713  11.372   4.834  0.2192  0.8406 -2.0466
50300SOL    HW259869   3.753  11.515   4.803  2.3663  1.0431  1.1782
50301SOL     OW59870  11.363   4.739  10.296  0.1856  0.1259 -0.4352
50301SOL    HW159871  11.362   4.648  10.267 -1.1489  0.3774 -1.2824
50301SOL    HW259872  11.271   4.760  10.313  0.3306  1.6199 -1.2776
50302SOL     OW59873   7.685   3.519   8.647 -0.1730  0.0105  0.3787
50302SOL    HW159874   7.734   3.492   8.570  0.2589  1.6920  0.0232
50302SOL    HW259875   7.642   3.600   8.621  0.0623  0.6678  1.9326
50303SOL     OW59876  12.126   4.419  12.232 -0.3975  0.4828  0.0932
50303SOL    HW159877  12.051   4.365  12.257 -0.7186  1.4023  1.1575
50303SOL    HW259878  12.189   4.407  12.303  0.1812  0.3025 -0.4332
50304SOL     OW59879   8.489  10.497   4.432 -0.5110 -0.3881  0.2001
50304SOL    HW159880   8.476  10.539   4.347 -2.1952 -0.4052  0.4122
50304SOL    HW259881   8.520  10.409   4.411 -3.3932 -1.3206 -0.5704
50305SOL     OW59882   4.528   8.952   5.401  0.2286  0.0924 -0.5211
50305SOL    HW159883   4.511   8.905   5.320 -1.0943 -1.9834  0.8786
50305SOL    HW259884   4.442   8.968   5.439  0.8484 -1.7885  1.9301
50306SOL     OW59885   6.401  10.544   4.606  0.1949 -0.4351  0.0247
50306SOL    HW159886   6.438  10.461   4.576  0.1754 -0.6275  0.5279
50306SOL    HW259887   6.451  10.566   4.684 -1.3885 -1.2156  1.3146
50307SOL     OW59888   7.513  11.624   7.281 -0.0123  0.1112  0.0846
50307SOL    HW159889   7.482  11.624   7.191 -1.6000  0.7259  0.5946
50307SOL    HW259890   7.487  11.538   7.315  0.9303 -0.2739 -0.1320
50308SOL     OW59891   3.272   9.573   2.214 -0.3449 -0.2859 -0.2434
50308SOL    HW159892   3.352   9.586   2.163  1.0327  0.7607  2.0043
50308SOL    HW259893   3.218   9.650   2.195 -0.6688 -0.7873 -1.4429
50309SOL     OW59894   0.817   8.538   7.421  0.0780  0.2323 -0.4950
50309SOL    HW159895   0.780   8.459   7.459  0.3922 -0.3127 -1.3050
50309SOL    HW259896   0.875   8.573   7.489 -1.6832  0.9548  0.6925
50310SOL     OW59897   5.432   8.571   7.525 -0.2391  0.0099 -0.1155
50310SOL    HW159898   5.522   8.569   7.493 -0.1151  2.0284  0.0159
50310SOL    HW259899   5.379   8.595   7.449 -0.6066 -0.5347 -0.0413
50311SOL     OW59900   0.064   3.729  11.001  0.1914  0.4609 -0.6509
50311SOL    HW159901   0.114   3.810  10.998 -1.0802  1.2752 -0.6660
50311SOL    HW259902   0.028   3.726  11.090 -0.4761  0.3542 -0.9204
50312SOL     OW59903   6.617   5.664   4.580  0.4047  0.2536 -0.7323
50312SOL    HW159904   6.633   5.571   4.594  0.1089  0.3123  0.0180
50312SOL    HW259905   6.669   5.708   4.647 -3.0651  0.4383  2.1470
50313SOL     OW59906   2.041  10.794  12.074  0.1003 -0.0222  0.4863
50313SOL    HW159907   2.058  10.841  11.992 -1.0311 -1.4173 -0.5957
50313SOL    HW259908   2.067  10.856  12.143  3.0065  0.4691 -0.8971
50314SOL     OW59909   5.799   7.604   6.542 -0.5713  0.1553 -0.0224
50314SOL    HW159910   5.854   7.568   6.611  0.3005 -0.4464 -1.0097
50314SOL    HW259911   5.747   7.671   6.586  0.6216  0.4326  1.0282
50315SOL     OW59912   2.123  11.648   7.813  0.6971  0.1899  0.0762
50315SOL    HW159913   2.170  11.662   7.730  1.5600  0.8968  0.6596
50315SOL    HW259914   2.092  11.558   7.808  1.2829  0.0156 -0.7560
50316SOL     OW59915   6.260   2.178   0.424 -0.0135  0.0877 -0.2053
50316SOL    HW159916   6.306   2.155   0.505  0.8450  1.6269 -0.2251
50316SOL    HW259917   6.171   2.145   0.437 -0.0023  0.6471  1.5548
50317SOL     OW59918  11.199  12.430   5.445  0.3599  0.2741 -0.3343
50317SOL    HW159919  11.145  12.452   5.369 -1.6847 -2.7724  0.0632
50317SOL    HW259920  11.245  12.350   5.419  3.2737  1.6889  0.0854
50318SOL     OW59921  11.412   0.691   6.226  0.1183  0.2314  0.0621
50318SOL    HW159922  11.340   0.660   6.281  0.2101  0.2535  0.1959
50318SOL    HW259923  11.445   0.768   6.272  0.5524 -0.0715  0.2636
50319SOL     OW59924   0.639  10.566   1.911  0.2469 -0.3237  0.4099
50319SOL    HW159925   0.585  10.626   1.860 -1.1787 -0.5402  1.5893
50319SOL    HW259926   0.636  10.484   1.863 -1.2370 -0.5782  0.8692
50320SOL     OW59927   1.441  11.121   5.915 -0.0401 -0.4688 -0.1116
50320SOL    HW159928   1.423  11.143   5.823  0.0149  3.2073  0.5857
50320SOL    HW259929   1.537  11.124   5.921 -0.0769  0.5961  0.2524
50321SOL     OW59930  10.431   3.790   7.706  0.3918 -0.0350  0.2559
50321SOL    HW159931  10.511   3.800   7.653 -0.8284 -1.1559 -1.9807
50321SOL    HW259932  10.363   3.832   7.654 -0.5816  0.5666  1.9462
50322SOL     OW59933   8.494  11.999  12.355 -0.2161  0.1288 -0.4544
50322SOL    HW159934   8.558  12.070  12.348  0.4990 -0.3316  1.0500
50322SOL    HW259935   8.409  12.043  12.354  0.2361  1.1987  2.0505
50323SOL     OW59936   6.593   7.935  12.045 -0.1238  0.0348 -0.3541
50323SOL    HW159937   6.682   7.952  12.015  1.0722 -0.8673  2.3750
50323SOL    HW259938   6.581   7.992  12.120 -2.0261  0.4171 -0.9008
50324SOL     OW59939  11.594  10.190  10.759  0.7778 -0.3281 -0.5413
50324SOL    HW159940  11.671  10.147  10.722  1.3129  1.6587 -1.8837
50324SOL    HW259941  11.553  10.234  10.684 -2.3298 -2.1953 -0.1073
50325SOL     OW59942   1.369   5.292  11.666  0.2084 -0.0274 -0.3711
50325SOL    HW159943   1.285   5.268  11.705  1.4994 -0.5146  2.3238
50325SOL    HW259944   1.403   5.210  11.630 -0.4020  0.1456 -1.3534
50326SOL     OW59945   5.772  11.351  11.439  0.0855 -0.3239  0.1446
50326SOL    HW159946   5.753  11.431  11.391  2.1603 -0.1104 -0.4105
50326SOL    HW259947   5.807  11.291  11.374 -1.4628 -1.7343  0.5466
50327SOL     OW59948  11.573   1.741   3.451  0.0549  0.5505  0.4106
50327SOL    HW159949  11.635   1.687   3.499  0.6673  0.6367 -0.2671
50327SOL    HW259950  11.577   1.708   3.361 -1.5485 -0.0375  0.5291
50328SOL     OW59951   2.074   1.673   4.450  0.0049  0.4123 -0.0515
50328SOL    HW159952   2.157   1.708   4.419  0.7458  0.1537  1.5544
50328SOL    HW259953   2.048   1.731   4.522 -0.5624 -0.2399  0.2825
50329SOL     OW59954   8.904   3.141   9.763  0.6000  0.4632  0.3780
50329SOL    HW159955   8.846   3.111   9.693  2.7284 -0.2111 -1.2069
50329SOL    HW259956   8.910   3.236   9.751 -1.1968  0.7516  1.4392
50330SOL     OW59957   6.412   7.092  10.695 -0.2733 -0.1916  0.2026
50330SOL    HW159958   6.408   7.031  10.622 -1.3150 -0.7819  0.7378
50330SOL    HW259959   6.427   7.036  10.772 -1.7921  0.1339  0.7744
50331SOL     OW59960   4.895   1.909   7.735  0.1216 -0.0044 -0.0343
50331SOL    HW159961   4.931   1.927   7.648 -0.6723 -1.0447 -0.6058
50331SOL    HW259962   4.894   1.814   7.741 -0.1080  0.0530  1.0104
50332SOL     OW59963   3.169   6.680   3.278  0.0276  0.0913  1.0944
50332SOL    HW159964   3.149   6.666   3.370 -1.9138 -0.3093  0.6625
50332SOL    HW259965   3.187   6.593   3.244  0.5605  0.2148  1.0612
50333SOL     OW59966   5.850   3.218   9.663  0.2281  0.8700 -0.0176
50333SOL    HW159967   5.868   3.258   9.577  0.7228  2.1703  0.6653
50333SOL    HW259968   5.778   3.157   9.646  2.6812 -1.7330 -2.1237
50334SOL     OW59969  12.360   8.253   8.951 -0.0103 -0.0401  0.1895
50334SOL    HW159970  12.349   8.320   9.020  0.7648  1.4546 -1.0699
50334SOL    HW259971  12.382   8.173   8.999  3.1926  1.5056  1.6884
50335SOL     OW59972   6.742   1.060   1.463  0.0236 -0.1207  0.3015
50335SOL    HW159973   6.665   1.086   1.513  0.5926 -0.5029  1.3912
50335SOL    HW259974   6.770   0.978   1.502 -0.7413 -1.5815 -1.9971
50336SOL     OW59975   2.536   8.631   5.180  0.4499  0.1677  0.1394
50336SOL    HW159976   2.467   8.697   5.170  0.0763  0.0749  1.7605
50336SOL    HW259977   2.488   8.548   5.182  0.5952  0.1010  1.2467
50337SOL     OW59978   0.738  11.092  10.416  0.0085 -0.2445  0.1883
50337SOL    HW159979   0.812  11.038  10.442  1.6735  0.7534 -2.1123
50337SOL    HW259980   0.665  11.031  10.407  0.9393 -1.5210  0.9475
50338SOL     OW59981   8.834   7.842   5.025  0.2833 -0.3738  0.1267
50338SOL    HW159982   8.928   7.832   5.010  0.4196 -0.5539  1.0291
50338SOL    HW259983   8.799   7.874   4.942  1.4271  1.5304  0.3215
50339SOL     OW59984   0.357   0.624  12.339 -0.1100 -0.2475  0.3033
50339SOL    HW159985   0.401   0.594  12.418  1.1092  1.3482  0.2786
50339SOL    HW259986   0.324   0.711  12.360 -2.5956 -1.0311  0.0286
50340SOL     OW59987   9.946   5.513  12.144 -0.1562  0.2215  0.5412
50340SOL    HW159988  10.014   5.491  12.080  0.6796  1.7107  0.8748
50340SOL    HW259989   9.876   5.551  12.091 -0.3809 -0.5233  0.2911
50341SOL     OW59990   1.919  12.138   6.902 -0.3498  0.0951 -0.0516
50341SOL    HW159991   1.976  12.214   6.892  0.5320 -0.5448 -0.0789
50341SOL    HW259992   1.846  12.154   6.842  0.2276  0.5493 -0.6532
50342SOL     OW59993  11.638   6.333   6.721  0.2634  0.1685 -0.3889
50342SOL    HW159994  11.547   6.305   6.723  0.6609 -1.2003 -0.0208
50342SOL    HW259995  11.636   6.423   6.689 -1.1523 -0.0724 -1.0099
50343SOL     OW59996   1.449   7.087   8.170  0.0025  0.0446 -0.2893
50343SOL    HW159997   1.454   7.165   8.115  0.8300 -0.1194 -0.4540
50343SOL    HW259998   1.370   7.100   8.223 -0.1745  0.7281 -0.7079
50344SOL     OW59999   8.045   6.038   6.404 -0.4678 -0.0466 -0.1871
50344SOL    HW160000   8.112   6.016   6.469  1.2726  0.9036 -1.6032
50344SOL    HW260001   7.965   6.046   6.456  0.6695 -0.2151  1.7142
50345SOL     OW60002   2.997   3.071   7.187  0.5179  0.0823 -0.1700
50345SOL    HW160003   3.007   2.979   7.211 -2.3630 -0.1289  0.5369
50345SOL    HW260004   2.955   3.069   7.101 -3.0227  0.5290  1.3722
50346SOL     OW60005   4.434   5.320   3.740  0.8482 -0.7289  0.3373
50346SOL    HW160006   4.512   5.353   3.785 -0.6859  0.7304  2.1034
50346SOL    HW260007   4.419   5.382   3.669  0.9585 -0.6471  0.3851
50347SOL     OW60008   2.307   7.354   3.008 -0.0779 -0.3776 -0.3196
50347SOL    HW160009   2.214   7.335   3.013  0.2568 -1.9592  0.7745
50347SOL    HW260010   2.338   7.345   3.098  1.0358  0.7033 -0.5672
50348SOL     OW60011  11.268   0.427  11.719 -0.2075 -0.0462 -0.0828
50348SOL    HW160012  11.195   0.457  11.665  0.7451  0.5715 -1.0687
50348SOL    HW260013  11.269   0.487  11.793 -1.2360 -0.6111  0.4143
50349SOL     OW60014   4.876   0.691   6.795 -0.3829  0.2901 -0.3692
50349SOL    HW160015   4.802   0.657   6.744 -0.4125  1.4980 -1.1545
50349SOL    HW260016   4.951   0.683   6.737  0.5445 -2.5291  0.9951
50350SOL     OW60017   3.351   7.081   0.923  0.0454  0.2253  0.1119
50350SOL    HW160018   3.401   7.000   0.911 -1.0177 -0.3054 -0.9352
50350SOL    HW260019   3.286   7.059   0.990  0.3401  0.5174  0.5058
50351SOL     OW60020  10.728   1.868  11.570  0.6472 -0.0776  0.2720
50351SOL    HW160021  10.815   1.831  11.582  0.9278 -0.2757 -1.9289
50351SOL    HW260022  10.706   1.849  11.478 -1.6409  0.1241  0.7111
50352SOL     OW60023   9.089   1.656   7.226  0.3127 -0.0154  0.2601
50352SOL    HW160024   9.044   1.704   7.296 -0.1548 -0.0417 -0.0148
50352SOL    HW260025   9.146   1.721   7.186 -1.8128  0.9313 -1.4458
50353SOL     OW60026  11.489   1.772   1.225  0.0260  0.0332 -0.1786
50353SOL    HW160027  11.512   1.833   1.295 -1.3405 -2.3062  2.4746
50353SOL    HW260028  11.510   1.685   1.260  0.1768 -1.2158 -3.0765
50354SOL     OW60029   3.793   1.506   6.872 -0.3349 -0.0768  0.3545
50354SOL    HW160030   3.802   1.566   6.797  1.8557 -1.3939 -0.5436
50354SOL    HW260031   3.727   1.442   6.844 -0.5066  0.2053  0.1023
50355SOL     OW60032   2.799   8.304   9.255 -0.1819  0.3547  0.2657
50355SOL    HW160033   2.710   8.338   9.261  0.0124  0.8447  0.4662
50355SOL    HW260034   2.844   8.341   9.331  0.2612  0.3363  0.0194
50356SOL     OW60035   5.834   8.944  10.875  0.1290 -0.2515  0.1190
50356SOL    HW160036   5.833   8.925  10.968  0.8033 -0.8730  0.0178
50356SOL    HW260037   5.905   9.007  10.863  0.3224 -0.4912 -0.0211
50357SOL     OW60038   3.633   1.158   3.682 -0.2173 -0.1923  0.5353
50357SOL    HW160039   3.718   1.203   3.680  0.8399 -2.1271 -1.8981
50357SOL    HW260040   3.575   1.213   3.629 -0.1234  0.3987  1.0295
50358SOL     OW60041   5.397   4.857   6.902 -0.0413  0.6225 -0.7046
50358SOL    HW160042   5.460   4.888   6.838 -0.0800 -0.1824 -1.1441
50358SOL    HW260043   5.394   4.926   6.968 -0.6235  1.8636 -1.9751
50359SOL     OW60044  11.016   0.420   0.737  0.1177  0.5697  0.4393
50359SOL    HW160045  10.950   0.371   0.786 -1.1712  0.8836 -0.9163
50359SOL    HW260046  11.002   0.395   0.646  3.6486 -1.3912  0.2875
50360SOL     OW60047   9.874   4.136   5.152 -0.2903  0.2371  0.1296
50360SOL    HW160048   9.885   4.047   5.186 -0.1439  0.2097  0.0099
50360SOL    HW260049   9.929   4.139   5.074 -0.9742  0.1575 -0.3657
50361SOL     OW60050   8.958   0.245   1.679 -0.4196 -0.3480  0.2865
50361SOL    HW160051   8.927   0.266   1.767 -1.0130  0.6525 -0.1518
50361SOL    HW260052   8.921   0.313   1.623  2.4393  0.8659 -0.3088
50362SOL     OW60053   3.620   8.991  10.738 -0.4073 -0.4979 -0.3652
50362SOL    HW160054   3.545   9.020  10.790 -0.7907 -1.2343 -0.4919
50362SOL    HW260055   3.662   9.072  10.710  0.0882 -0.0787  1.4641
50363SOL     OW60056   7.349   6.709   8.964 -0.0966  0.6141 -0.0354
50363SOL    HW160057   7.420   6.772   8.950  0.3074 -0.1716 -1.8091
50363SOL    HW260058   7.271   6.763   8.971  0.2969  1.3788 -1.1360
50364SOL     OW60059   3.398   6.350   4.329  0.1908 -0.1289 -0.5075
50364SOL    HW160060   3.439   6.317   4.249 -0.3478  2.5366 -1.9877
50364SOL    HW260061   3.375   6.440   4.309 -0.3963  0.5070  2.5365
50365SOL     OW60062   8.198  12.588   4.055  0.0814 -0.2236  0.4494
50365SOL    HW160063   8.181  12.574   4.148  0.2453  0.3565  0.5687
50365SOL    HW260064   8.293  12.599   4.050  0.3740 -2.4923 -0.0871
50366SOL     OW60065  11.754   2.145  10.303  0.3605  0.1392 -0.1408
50366SOL    HW160066  11.772   2.223  10.355  0.3263 -0.2534  0.4692
50366SOL    HW260067  11.660   2.150  10.283 -0.0033 -0.5350  1.2517
50367SOL     OW60068   2.333   0.135   6.833  0.4114  0.2454  0.7614
50367SOL    HW160069   2.352   0.074   6.905 -1.0220 -1.9805 -0.6078
50367SOL    HW260070   2.238   0.138   6.829  0.4052 -1.0439 -2.0313
50368SOL     OW60071   5.086   1.087   0.612 -0.1338  0.3964  0.0233
50368SOL    HW160072   5.022   1.036   0.563  0.2272  0.4523 -0.5219
50368SOL    HW260073   5.035   1.136   0.676 -0.6142  0.3274 -0.3043
50369SOL     OW60074   1.577   8.368   0.995 -0.2704 -0.1301  0.4294
50369SOL    HW160075   1.563   8.290   0.942  1.7966  1.3810 -2.5672
50369SOL    HW260076   1.492   8.382   1.039 -0.9631 -3.4692  0.4529
50370SOL     OW60077   8.047   3.075   1.324 -0.1375 -0.1031  0.4816
50370SOL    HW160078   7.976   3.120   1.278  0.4266 -0.5072 -0.8305
50370SOL    HW260079   8.035   3.099   1.416 -2.2710 -0.5677  0.3783
50371SOL     OW60080   9.151  11.222   7.872  0.1764 -0.0070 -0.1602
50371SOL    HW160081   9.150  11.261   7.785  0.8824  1.0593  0.2766
50371SOL    HW260082   9.114  11.291   7.928 -0.7505 -0.8693  0.3208
50372SOL     OW60083   7.466   1.627   2.090 -0.3716  0.2038  0.0998
50372SOL    HW160084   7.447   1.638   1.997 -1.1209  0.0331  0.2247
50372SOL    HW260085   7.516   1.546   2.094  0.4799  0.6949 -0.2451
50373SOL     OW60086   6.429   4.500  11.586 -0.1147  0.4017  0.0215
50373SOL    HW160087   6.485   4.573  11.613 -1.0151  1.2240 -0.2704
50373SOL    HW260088   6.417   4.449  11.665  1.3653 -0.0327  0.0085
50374SOL     OW60089   8.392  10.806  10.619 -0.0955 -0.3760 -0.0627
50374SOL    HW160090   8.387  10.742  10.689 -0.4813 -0.5576 -0.2547
50374SOL    HW260091   8.485  10.830  10.614 -0.0588 -0.4158  0.4560
50375SOL     OW60092   0.753   3.170   4.900 -0.1655  0.5268 -0.0856
50375SOL    HW160093   0.713   3.128   4.977  1.0398 -0.1131  0.2232
50375SOL    HW260094   0.847   3.161   4.915  0.0927  0.5205 -1.5779
50376SOL     OW60095   5.295   7.687   6.193 -0.2175  0.1123 -0.6207
50376SOL    HW160096   5.361   7.648   6.251 -0.8457 -0.0784 -0.0160
50376SOL    HW260097   5.333   7.683   6.106  0.8074  0.5110 -0.2088
50377SOL     OW60098  11.387   6.288   8.834  0.7313 -1.1357 -0.0923
50377SOL    HW160099  11.313   6.344   8.856  0.4283 -1.3607 -0.5364
50377SOL    HW260100  11.433   6.276   8.917  0.6565 -0.4399  0.0587
50378SOL     OW60101   6.159   3.224   0.050  0.1957 -0.2952 -0.1608
50378SOL    HW160102   6.210   3.226   0.131 -0.5017 -1.3786  0.3236
50378SOL    HW260103   6.118   3.137   0.048  2.1174 -1.2916 -2.8955
50379SOL     OW60104   6.357   0.909   3.195 -0.5196 -0.1913 -0.0414
50379SOL    HW160105   6.296   0.857   3.142  0.0796 -2.2271  1.1767
50379SOL    HW260106   6.341   0.882   3.285 -0.3955  2.0260  0.7099
50380SOL     OW60107   2.461  11.309   8.342  0.8123 -0.2274  0.3247
50380SOL    HW160108   2.470  11.332   8.434 -0.9008 -2.3780  1.1354
50380SOL    HW260109   2.381  11.353   8.314  0.9366 -0.1555  0.0805
50381SOL     OW60110   4.574   2.170  10.633 -0.2558  0.6533  0.3242
50381SOL    HW160111   4.659   2.137  10.664 -0.5377  0.9389  1.4778
50381SOL    HW260112   4.588   2.264  10.622 -0.5888  0.8072  1.1546
50382SOL     OW60113   2.289   0.804   0.358 -0.1089  0.6648  0.5428
50382SOL    HW160114   2.227   0.752   0.306  0.2848  1.1608 -0.4351
50382SOL    HW260115   2.370   0.754   0.356 -0.1154  0.6430  0.7644
50383SOL     OW60116  12.050   9.108   9.278  0.0084  0.4907  0.2437
50383SOL    HW160117  12.041   9.019   9.244  1.8988  0.2025  0.4191
50383SOL    HW260118  12.111   9.151   9.218 -0.3230  1.4515  0.5716
50384SOL     OW60119   5.728   5.256   2.677 -0.1164  0.3624 -0.1660
50384SOL    HW160120   5.788   5.230   2.607 -2.1653 -1.3742 -1.4422
50384SOL    HW260121   5.782   5.262   2.755  2.2140  1.9795 -1.7652
50385SOL     OW60122   2.763   9.167   1.638 -0.2215  0.2489 -0.2710
50385SOL    HW160123   2.678   9.128   1.658 -0.0102 -0.7469 -1.1986
50385SOL    HW260124   2.823   9.128   1.702 -0.1567 -0.3733 -0.7023
50386SOL     OW60125   0.609   7.925   9.264  0.1264  0.0868  0.2234
50386SOL    HW160126   0.689   7.899   9.218  0.8157 -0.5895  1.7083
50386SOL    HW260127   0.632   7.916   9.357 -2.5880 -3.1115  0.7487
50387SOL     OW60128   6.396   6.973   5.677 -0.0019 -0.3746 -0.3200
50387SOL    HW160129   6.377   7.035   5.607 -0.9795 -1.0896 -0.7159
50387SOL    HW260130   6.390   6.887   5.636 -1.5425 -0.8578  0.7992
50388SOL     OW60131   1.559   9.266   1.530 -0.3841  0.6717 -0.4990
50388SOL    HW160132   1.475   9.295   1.496  0.0824  1.2611 -1.1830
50388SOL    HW260133   1.548   9.264   1.625 -1.2679  0.3979 -0.5998
50389SOL     OW60134   5.019   8.049   5.196  0.3072 -0.8214  0.8334
50389SOL    HW160135   4.986   8.085   5.113  2.5795 -0.7395 -0.1179
50389SOL    HW260136   4.948   8.063   5.258 -0.7716  0.8388 -0.6681
50390SOL     OW60137   8.523  12.512  12.522 -0.1148 -0.2707 -0.6228
50390SOL    HW160138   8.554  12.580  12.462 -0.2772 -0.7209 -1.2297
50390SOL    HW260139   8.456  12.556  12.575 -2.4218 -0.6254 -3.0062
50391SOL     OW60140   4.065   1.674   7.146  0.7891  0.1337  0.3456
50391SOL    HW160141   3.989   1.724   7.175  1.0033  0.2688  0.6752
50391SOL    HW260142   4.038   1.582   7.154  1.7457  0.0032  3.6812
50392SOL     OW60143  10.956   8.822   4.422  0.0397 -0.0145  0.2541
50392SOL    HW160144  10.982   8.764   4.350 -1.0141  1.1774 -1.1408
50392SOL    HW260145  11.025   8.889   4.425  1.1697 -1.1645  1.7588
50393SOL     OW60146   6.244   0.984   8.722  0.2838  0.1698  0.1473
50393SOL    HW160147   6.227   1.019   8.635 -1.3913 -1.1510 -0.1045
50393SOL    HW260148   6.339   0.989   8.732  0.4507  0.8525 -1.5260
50394SOL     OW60149  12.338   2.358   7.246 -0.2896  0.2807 -0.4573
50394SOL    HW160150  12.356   2.279   7.298  0.7708 -0.6059 -2.0905
50394SOL    HW260151  12.243   2.369   7.252 -0.2111  0.2631  1.6799
50395SOL     OW60152   9.429   7.500  11.798 -0.1416  0.0990 -0.4584
50395SOL    HW160153   9.496   7.452  11.748  2.1095  2.0265  0.5365
50395SOL    HW260154   9.357   7.511  11.737  0.4394 -1.9457 -1.6274
50396SOL     OW60155   3.785   2.589   0.136  0.0681 -0.4856  0.3100
50396SOL    HW160156   3.834   2.616   0.214 -0.4224 -1.0307  0.8195
50396SOL    HW260157   3.791   2.493   0.135 -0.2908 -0.5104 -0.0780
50397SOL     OW60158   5.704   8.464  10.469 -0.0554  0.4056  0.7173
50397SOL    HW160159   5.613   8.457  10.441 -0.1192  0.9382  0.7885
50397SOL    HW260160   5.702   8.522  10.545  0.4659  1.3789  0.0245
50398SOL     OW60161   3.268   0.085   1.980 -0.2547  0.0604 -0.3113
50398SOL    HW160162   3.338   0.093   1.916 -0.5297 -0.4635 -0.6801
50398SOL    HW260163   3.188   0.077   1.928 -0.5260  0.0328  0.1010
50399SOL     OW60164   0.891   6.417   1.171 -0.3369  0.1309 -0.9684
50399SOL    HW160165   0.841   6.498   1.162 -0.8954 -0.2738 -1.6226
50399SOL    HW260166   0.925   6.419   1.260 -1.1736  0.6184 -0.6509
50400SOL     OW60167   7.914  10.798   1.209 -0.3015 -0.5787  0.1262
50400SOL    HW160168   7.920  10.778   1.303 -0.0578  0.1271  0.2677
50400SOL    HW260169   8.005  10.802   1.180 -0.3410  0.4119  0.1280
50401SOL     OW60170   5.085  11.881  12.065  0.8788  0.3037  0.2687
50401SOL    HW160171   5.105  11.925  12.147  2.1052  0.5543 -0.1570
50401SOL    HW260172   5.106  11.945  11.997  0.2264 -0.0341 -0.2666
50402SOL     OW60173  12.260   8.572  10.100 -0.1426  0.0811 -0.1517
50402SOL    HW160174  12.228   8.482  10.103  2.1394 -0.7847  0.5453
50402SOL    HW260175  12.255   8.602  10.191 -1.2914  0.8431 -0.4462
50403SOL     OW60176   9.351   3.839   1.814  0.5034  0.0358 -0.2129
50403SOL    HW160177   9.289   3.862   1.883  1.7289  1.3246  0.5257
50403SOL    HW260178   9.344   3.911   1.751  1.3121  0.2678 -0.0542
50404SOL     OW60179   8.619  11.917   5.763  0.4229 -0.2439 -0.0650
50404SOL    HW160180   8.599  11.916   5.669 -0.0011 -1.0175  0.0250
50404SOL    HW260181   8.533  11.922   5.805  0.6606  1.3893  0.2796
50405SOL     OW60182   3.137  10.942   0.881 -0.2189 -0.1150  0.1453
50405SOL    HW160183   3.169  10.856   0.906  2.3411  0.0739 -1.9651
50405SOL    HW260184   3.214  10.986   0.844 -1.8605  2.3720 -0.5741
50406SOL     OW60185   2.669   6.155   5.514  0.0837  0.3582 -0.3180
50406SOL    HW160186   2.681   6.070   5.557  0.3389  1.3050  1.5753
50406SOL    HW260187   2.756   6.194   5.514 -0.1798  0.9490 -0.4898
50407SOL     OW60188   1.341  10.870   6.597  0.4391  0.3344 -0.2709
50407SOL    HW160189   1.395  10.916   6.661 -0.2702 -0.5284  0.9751
50407SOL    HW260190   1.289  10.940   6.556  1.7517  1.0418 -0.7862
50408SOL     OW60191   8.793   6.710   1.907 -0.1722  0.4466  0.0017
50408SOL    HW160192   8.750   6.792   1.883  0.4818  1.0433  0.7993
50408SOL    HW260193   8.774   6.700   2.001 -0.4672 -0.4506 -0.1496
50409SOL     OW60194   9.590   1.482   8.308 -0.1550  0.6709  0.1146
50409SOL    HW160195   9.666   1.540   8.306  0.6103 -0.3179 -0.7533
50409SOL    HW260196   9.627   1.394   8.305 -1.2794  0.1064  1.6168
50410SOL     OW60197  11.607   3.488   4.458 -0.3757 -0.0424  0.2895
50410SOL    HW160198  11.548   3.419   4.428 -1.0497  0.6552 -0.0181
50410SOL    HW260199  11.679   3.486   4.396 -1.6549  1.2486 -1.3130
50411SOL     OW60200   4.579  11.618   7.199 -0.0945 -0.1666  0.2393
50411SOL    HW160201   4.580  11.709   7.227 -0.1923  0.0798 -0.5473
50411SOL    HW260202   4.542  11.619   7.111  0.5307 -0.8835 -0.0515
50412SOL     OW60203   8.989  10.106   1.405 -0.2172 -0.6749  0.4810
50412SOL    HW160204   9.042  10.040   1.449 -1.4970 -2.4433 -0.4928
50412SOL    HW260205   8.980  10.074   1.315 -1.8045  0.2399  0.2649
50413SOL     OW60206   3.508   1.545   2.972 -0.0070  0.3106 -0.2736
50413SOL    HW160207   3.509   1.506   3.059  0.4878  1.3730  0.2069
50413SOL    HW260208   3.423   1.520   2.935 -0.6354  0.6847  0.8901
50414SOL     OW60209  10.793   5.242   6.929  0.0947  0.2287 -0.3003
50414SOL    HW160210  10.814   5.318   6.875  1.9175 -0.0141  0.0190
50414SOL    HW260211  10.809   5.272   7.019  1.9666 -0.8303 -0.2376
50415SOL     OW60212   5.383   6.709   8.375 -0.3542 -0.2512 -0.5391
50415SOL    HW160213   5.300   6.679   8.413 -0.6321  1.1339  0.0116
50415SOL    HW260214   5.359   6.787   8.325  1.1104  2.7679  3.0008
50416SOL     OW60215  10.361  11.645   1.159 -0.1132  0.0904  0.2896
50416SOL    HW160216  10.291  11.605   1.107  0.4298 -2.0933  1.1043
50416SOL    HW260217  10.360  11.596   1.241  1.2461  1.1785  0.9959
50417SOL     OW60218   7.700   8.984   7.913 -0.0654  0.0247 -0.2830
50417SOL    HW160219   7.605   8.984   7.905 -0.0186 -0.3428 -0.9555
50417SOL    HW260220   7.723   9.075   7.931 -0.6173 -0.0657  1.0266
50418SOL     OW60221   0.804   1.561   8.940 -0.1016  0.2494  0.5767
50418SOL    HW160222   0.712   1.564   8.967  0.0927  0.3759  1.2637
50418SOL    HW260223   0.848   1.516   9.013  0.5075  0.9207  0.6363
50419SOL     OW60224   6.644  10.475  10.532  0.5685 -0.7073 -0.0411
50419SOL    HW160225   6.584  10.510  10.598  2.4285  0.5528  1.0866
50419SOL    HW260226   6.590  10.460  10.455 -1.5157 -1.3022  1.4472
50420SOL     OW60227  12.430  10.641   0.946  0.0433  0.0810  0.2626
50420SOL    HW160228  12.379  10.592   1.011  1.7091 -0.6858  1.0463
50420SOL    HW260229  12.410  10.598   0.863  0.2688 -0.9551  0.7210
50421SOL     OW60230   0.877   4.102   5.675 -0.2283 -0.0336  0.2490
50421SOL    HW160231   0.814   4.122   5.606 -0.0128  3.1173  0.7883
50421SOL    HW260232   0.828   4.047   5.737 -1.0254 -1.2420 -1.3869
50422SOL     OW60233   1.696   7.969   0.696 -1.1370 -0.1165 -0.3074
50422SOL    HW160234   1.630   8.019   0.744 -1.0537 -0.0853 -0.2248
50422SOL    HW260235   1.648   7.932   0.622 -0.5324  2.7940 -2.3101
50423SOL     OW60236   8.690   5.285   2.231 -0.3699 -0.3169  0.2315
50423SOL    HW160237   8.595   5.282   2.219 -0.3020  1.0721 -0.9293
50423SOL    HW260238   8.702   5.302   2.324 -1.3582  1.9762 -0.0067
50424SOL     OW60239   6.505   5.816   3.531  0.0536 -0.8296  0.6453
50424SOL    HW160240   6.547   5.844   3.612  1.1054  0.2685 -0.2347
50424SOL    HW260241   6.434   5.758   3.559  1.4980 -1.9095  2.2353
50425SOL     OW60242  10.684   7.531   8.503 -0.1359  0.5158 -0.3528
50425SOL    HW160243  10.626   7.568   8.437  0.7881  1.4797 -0.6505
50425SOL    HW260244  10.702   7.442   8.472 -2.5762 -0.3633  0.5001
50426SOL     OW60245   5.675  11.054  10.662 -0.2773  0.0076 -0.4964
50426SOL    HW160246   5.635  11.064  10.749  2.0739 -0.2475  0.6835
50426SOL    HW260247   5.607  11.082  10.601 -1.1499  2.6939  1.5504
50427SOL     OW60248   9.783   9.979   7.284 -0.4373 -0.6551 -0.4674
50427SOL    HW160249   9.698   9.949   7.318  0.5508 -1.3871  1.4764
50427SOL    HW260250   9.810  10.049   7.343  0.4071 -0.5680 -0.9391
50428SOL     OW60251   2.306   8.445   5.169 -0.1916  0.1211  0.6157
50428SOL    HW160252   2.323   8.401   5.085  2.0492 -2.5144  2.2791
50428SOL    HW260253   2.246   8.387   5.215  0.6539  0.1738  1.8262
50429SOL     OW60254   5.658   4.210   7.404  0.1059  0.2255 -0.2034
50429SOL    HW160255   5.656   4.131   7.459 -0.2956 -0.5283 -1.2878
50429SOL    HW260256   5.750   4.237   7.405 -0.1900  1.5642  2.6543
50430SOL     OW60257  12.011   9.336   0.100  1.0877 -0.0005  0.3626
50430SOL    HW160258  11.995   9.276   0.028 -1.7443  1.1609 -0.1270
50430SOL    HW260259  12.071   9.402   0.064  0.4242  0.0712 -0.6527
50431SOL     OW60260   4.544   9.237  12.251  0.5216  0.0775  0.2552
50431SOL    HW160261   4.501   9.289  12.319  0.3088  0.0599  0.1350
50431SOL    HW260262   4.488   9.159  12.242  0.0480  0.4948 -0.5752
50432SOL     OW60263   6.772   5.038   3.254 -0.3585  0.2473  0.1420
50432SOL    HW160264   6.858   5.040   3.212 -1.0037  1.2599 -1.2075
50432SOL    HW260265   6.711   5.066   3.185 -1.7345 -0.1415  1.1591
50433SOL     OW60266   5.252   6.163   2.745  0.0813  0.9087 -0.3001
50433SOL    HW160267   5.304   6.189   2.821 -0.4278 -1.3379  0.9007
50433SOL    HW260268   5.179   6.225   2.744  1.4286  2.5621 -0.5354
50434SOL     OW60269  11.108   7.627   2.979 -0.3687  0.3634 -0.1008
50434SOL    HW160270  11.156   7.640   2.897  1.4121  1.2590  1.0123
50434SOL    HW260271  11.044   7.698   2.981  1.9471  2.6040  0.8237
50435SOL     OW60272  11.062   0.678   9.188 -0.2542 -0.0356  0.1116
50435SOL    HW160273  11.016   0.623   9.252  0.6722 -0.4576  0.4292
50435SOL    HW260274  11.100   0.616   9.126  1.6803  0.1406  1.0571
50436SOL     OW60275   6.720   2.879   6.327  0.0443 -0.4461 -0.1886
50436SOL    HW160276   6.644   2.858   6.272 -0.1611 -0.1244 -0.0376
50436SOL    HW260277   6.720   2.811   6.395 -0.1658 -0.3960 -0.1371
50437SOL     OW60278   1.444   5.666  11.775  0.4464 -0.1142 -0.8539
50437SOL    HW160279   1.371   5.697  11.829  0.1958 -0.7245 -0.8293
50437SOL    HW260280   1.470   5.583  11.816  0.8227 -0.1466 -1.1600
50438SOL     OW60281   8.034  10.249   8.357 -0.8384 -0.4149 -0.3792
50438SOL    HW160282   7.979  10.297   8.295  0.7101  1.8159 -0.1417
50438SOL    HW260283   7.985  10.252   8.439 -1.3582 -0.4356 -0.6766
50439SOL     OW60284   6.543  11.627  11.768  0.0626 -0.2949  0.7727
50439SOL    HW160285   6.463  11.626  11.716 -0.2725 -3.4403  1.1329
50439SOL    HW260286   6.610  11.659  11.708 -1.3740  2.3622  0.4501
50440SOL     OW60287   2.962   6.601   9.492  0.6769 -0.0764 -0.6731
50440SOL    HW160288   2.877   6.623   9.530  0.5230 -1.4477 -0.1627
50440SOL    HW260289   2.943   6.580   9.401  0.3698 -0.8757 -0.4356
50441SOL     OW60290  11.069   2.227  11.291 -0.1111  0.0012  0.6505
50441SOL    HW160291  11.124   2.161  11.248 -0.0827  1.0887 -1.0780
50441SOL    HW260292  11.130   2.296  11.317 -0.4723  0.6161 -0.1008
50442SOL     OW60293  10.169   3.426   3.039  0.7629 -0.6990 -0.2798
50442SOL    HW160294  10.112   3.432   2.962 -1.2780 -0.9205  1.1330
50442SOL    HW260295  10.147   3.504   3.090 -0.4462 -2.2096  1.6548
50443SOL     OW60296  12.209   6.824   3.758 -0.1947 -0.4794 -0.1617
50443SOL    HW160297  12.115   6.841   3.754 -0.5359 -1.7737  1.2478
50443SOL    HW260298  12.249   6.910   3.763 -1.2783  0.1013 -1.0523
50444SOL     OW60299   2.414   4.055   2.459  0.1828 -0.5978  0.5265
50444SOL    HW160300   2.416   4.036   2.553  2.7590  0.7021  0.8076
50444SOL    HW260301   2.427   4.149   2.453  0.1136 -0.6628 -1.1661
50445SOL     OW60302   2.900  11.350   3.376 -0.5195 -0.5820 -0.6838
50445SOL    HW160303   2.979  11.360   3.323 -0.0660 -0.2069  0.0369
50445SOL    HW260304   2.932  11.321   3.461 -1.2185 -1.0412 -0.5673
50446SOL     OW60305   2.096   6.504   5.967  0.0259  0.0140 -0.3565
50446SOL    HW160306   2.093   6.533   6.059 -0.9177  0.9933 -0.6791
50446SOL    HW260307   2.142   6.420   5.971 -0.9231 -0.4891  1.1545
50447SOL     OW60308   4.458  10.292  12.161  0.0548 -0.5826 -0.4965
50447SOL    HW160309   4.541  10.338  12.153 -0.9639  1.3218 -0.7405
50447SOL    HW260310   4.462  10.249  12.247  0.7330  0.6865  0.1327
50448SOL     OW60311   5.335   0.359   6.983  0.0122  0.5286 -0.2155
50448SOL    HW160312   5.402   0.360   7.051 -0.5599  0.5796  0.3600
50448SOL    HW260313   5.378   0.395   6.905  0.3996  1.3459  0.3734
50449SOL     OW60314  11.516   2.461  12.497 -0.2916 -0.0976 -0.0197
50449SOL    HW160315  11.426   2.477  12.525 -0.0593 -0.2011  0.8255
50449SOL    HW260316  11.559   2.546  12.502 -0.4739  0.0508 -0.9331
50450SOL     OW60317   3.687   5.315  10.188  0.1160  0.0508  0.0989
50450SOL    HW160318   3.707   5.252  10.258  1.8272 -0.2684 -0.6208
50450SOL    HW260319   3.719   5.273  10.109  0.2691  1.3671 -0.5602
50451SOL     OW60320   6.153   2.875  12.269 -0.3306  0.4759 -0.1051
50451SOL    HW160321   6.207   2.814  12.218  2.4445  1.9665  0.8441
50451SOL    HW260322   6.115   2.822  12.338  1.5443 -0.3588  0.3521
50452SOL     OW60323  12.262   4.941   6.286 -0.0328 -0.7489 -0.5836
50452SOL    HW160324  12.254   4.872   6.352  0.0179 -0.8712 -0.7048
50452SOL    HW260325  12.301   5.014   6.333 -0.1314 -0.7865 -0.4425
50453SOL     OW60326   2.899   9.220   1.085 -0.7151 -0.1350  0.1060
50453SOL    HW160327   2.952   9.141   1.074 -0.2848  0.0523  0.8046
50453SOL    HW260328   2.824   9.192   1.138 -1.1873 -0.3343 -0.6454
50454SOL     OW60329   6.864   5.517   0.993  0.1726 -0.0088  0.1074
50454SOL    HW160330   6.829   5.575   1.060 -0.0978 -0.7978  0.6591
50454SOL    HW260331   6.882   5.575   0.919 -0.2325  0.7536  0.5884
50455SOL     OW60332   2.431   1.206   3.770 -0.5086  0.1706  0.4949
50455SOL    HW160333   2.371   1.271   3.807 -1.0973  0.2836 -0.6157
50455SOL    HW260334   2.422   1.217   3.675 -0.5739 -1.4971  0.2883
50456SOL     OW60335   2.956   2.578   3.586 -0.2709 -0.4213 -0.1160
50456SOL    HW160336   3.015   2.512   3.623  0.2470 -0.8846 -1.6844
50456SOL    HW260337   3.013   2.651   3.563 -0.2857 -0.8063 -1.4863
50457SOL     OW60338   4.364  11.864   7.581 -0.3090  0.1999 -0.5385
50457SOL    HW160339   4.302  11.890   7.649  1.5570  0.8644  0.9761
50457SOL    HW260340   4.339  11.917   7.505 -0.9500  1.2245  0.3620
50458SOL     OW60341   8.723  11.330   9.339  0.0873  0.4976  0.0686
50458SOL    HW160342   8.657  11.370   9.281 -1.5163 -1.9134  0.0944
50458SOL    HW260343   8.756  11.255   9.289 -0.4828 -0.9503  1.7765
50459SOL     OW60344   8.863   2.191   2.726 -1.0158 -0.3856 -0.0822
50459SOL    HW160345   8.933   2.228   2.779 -1.5747 -0.1352  0.4969
50459SOL    HW260346   8.783   2.209   2.776 -1.4538 -1.0037 -0.5441
50460SOL     OW60347   7.372   6.371   1.451 -0.0495  0.2587  0.0778
50460SOL    HW160348   7.321   6.403   1.525 -1.1409  0.9935 -0.9398
50460SOL    HW260349   7.456   6.416   1.459 -0.5607  1.2231  0.2560
50461SOL     OW60350   3.218   8.332   4.236  0.1307  0.6611 -0.3074
50461SOL    HW160351   3.207   8.373   4.150  1.6460  1.7171 -0.0284
50461SOL    HW260352   3.268   8.253   4.220 -1.2839 -0.2117 -0.6159
50462SOL     OW60353   7.675   8.291   1.778  0.1846 -0.3712 -0.4284
50462SOL    HW160354   7.720   8.361   1.731  0.2572 -0.0688  0.0843
50462SOL    HW260355   7.582   8.315   1.773  0.3974  1.3713  2.2553
50463SOL     OW60356   0.972   6.058   2.827 -0.4532  0.2449 -0.2459
50463SOL    HW160357   0.916   6.064   2.749  0.4475  1.1159 -0.8503
50463SOL    HW260358   0.927   5.996   2.884 -1.4803  0.1073 -1.1727
50464SOL     OW60359  11.379   1.470   7.440  0.3720 -0.1763  0.5332
50464SOL    HW160360  11.380   1.518   7.357 -0.2967 -0.8630  0.1153
50464SOL    HW260361  11.317   1.518   7.495  1.3405  0.6885  0.9041
50465SOL     OW60362   9.261   1.629   3.416  0.3883  0.1445  0.4488
50465SOL    HW160363   9.285   1.702   3.359  1.8493 -0.9657 -0.4511
50465SOL    HW260364   9.175   1.651   3.450  0.0395  1.4584 -1.1971
50466SOL     OW60365   9.266  10.716   8.269  0.2610  0.4545 -0.3372
50466SOL    HW160366   9.335  10.706   8.203 -0.1784  0.3144 -0.7802
50466SOL    HW260367   9.220  10.796   8.243 -0.9912 -0.5067 -1.2198
50467SOL     OW60368   7.214  12.085   4.833 -0.3094 -0.2704  0.1339
50467SOL    HW160369   7.274  12.103   4.905 -1.5137  0.5239  0.9738
50467SOL    HW260370   7.231  11.994   4.810 -1.1310 -1.1720  2.6830
50468SOL     OW60371   3.335   2.739   5.908  0.2355  0.5083 -0.6637
50468SOL    HW160372   3.394   2.670   5.881  0.9273  1.6300 -2.1554
50468SOL    HW260373   3.365   2.764   5.996  1.5902  0.6166 -1.1367
50469SOL     OW60374   9.691   4.903  10.950  0.0035  0.1130 -0.3272
50469SOL    HW160375   9.767   4.866  10.994  0.6645  0.7402 -0.9203
50469SOL    HW260376   9.665   4.977  11.005 -0.7650 -0.6520  0.3733
50470SOL     OW60377   7.690   5.708   1.730 -0.7135  0.1643  0.5188
50470SOL    HW160378   7.637   5.632   1.754 -0.7490  0.0878  0.2064
50470SOL    HW260379   7.762   5.709   1.792 -1.2563  0.4542  1.1597
50471SOL     OW60380   7.486   1.584  11.622 -1.0263 -0.3752 -0.2997
50471SOL    HW160381   7.562   1.554  11.671 -0.7584  0.1874 -0.3582
50471SOL    HW260382   7.511   1.573  11.530 -0.7394  0.4449 -0.3302
50472SOL     OW60383   0.627   8.366  10.709 -0.3211  0.5185  0.1374
50472SOL    HW160384   0.594   8.305  10.643  1.3999 -1.5197  1.0480
50472SOL    HW260385   0.684   8.426  10.660 -1.4400  0.9591 -0.6580
50473SOL     OW60386  11.087   7.181   5.814  0.0776  0.4514  0.1529
50473SOL    HW160387  11.085   7.086   5.828  2.9425 -0.0782 -2.0724
50473SOL    HW260388  11.004   7.201   5.771 -1.0443 -0.8126  1.6385
50474SOL     OW60389   5.399   2.066   0.423  0.1281  0.0316 -0.8230
50474SOL    HW160390   5.382   2.129   0.493 -0.3284  0.5718 -1.4031
50474SOL    HW260391   5.406   1.982   0.467  1.6011  0.5971  0.0672
50475SOL     OW60392   0.222   4.916   9.274 -0.2245  0.2931  0.1414
50475SOL    HW160393   0.284   4.855   9.234  1.5533  1.5430  0.8583
50475SOL    HW260394   0.221   4.991   9.215 -0.4850  0.6076  0.5453
50476SOL     OW60395   5.954  12.188   3.793  0.6305  0.6461 -0.3211
50476SOL    HW160396   5.994  12.266   3.753  1.2810  1.3573  1.6081
50476SOL    HW260397   5.876  12.222   3.837  2.0226  0.6653  2.3079
50477SOL     OW60398  11.307  12.168   4.616 -0.1734  0.3448 -0.4728
50477SOL    HW160399  11.256  12.092   4.642  1.6109 -0.5492  0.6130
50477SOL    HW260400  11.351  12.196   4.696 -0.6509  2.4574 -0.8800
50478SOL     OW60401  11.604   7.274   6.751 -0.3426  0.4127  0.4198
50478SOL    HW160402  11.583   7.252   6.661 -1.1295  2.0586  0.1595
50478SOL    HW260403  11.522   7.258   6.799 -0.2154  0.4677  0.6568
50479SOL     OW60404  12.328   1.096   9.537 -0.9386 -0.5209 -0.4262
50479SOL    HW160405  12.380   1.088   9.617 -1.0996 -2.5210 -0.4713
50479SOL    HW260406  12.260   1.159   9.559  1.0069  1.5990 -0.1282
50480SOL     OW60407   6.500   0.543  11.237  0.0666  0.0294 -0.3921
50480SOL    HW160408   6.429   0.546  11.300  0.5680 -0.3403  0.2058
50480SOL    HW260409   6.476   0.472  11.177 -0.8442  0.9553 -1.1779
50481SOL     OW60410   9.124   2.655   3.537 -0.0635 -0.1170  0.3807
50481SOL    HW160411   9.050   2.676   3.479  0.0946 -1.3658 -0.3065
50481SOL    HW260412   9.185   2.728   3.525 -0.5317  0.1965 -0.1727
50482SOL     OW60413  12.526   5.741   0.596  0.4709 -0.0870  0.6635
50482SOL    HW160414  12.494   5.830   0.589 -0.2908 -0.1289  2.8950
50482SOL    HW260415  12.495   5.698   0.516 -0.6253  1.2072  0.3575
50483SOL     OW60416  10.049   5.797   2.538  0.0547  0.4035  0.2252
50483SOL    HW160417  10.051   5.716   2.589 -2.1069  0.4681  0.4896
50483SOL    HW260418   9.956   5.814   2.523  0.5383  0.4844 -3.6700
50484SOL     OW60419   5.515   0.091   6.292 -0.0428  0.5347 -0.6014
50484SOL    HW160420   5.443   0.052   6.243 -0.5344 -0.4408  0.8301
50484SOL    HW260421   5.483   0.095   6.382  2.4737 -2.1968  0.5845
50485SOL     OW60422  11.868   6.776   3.180  0.1115  0.0057  0.3163
50485SOL    HW160423  11.944   6.764   3.236 -0.8442  0.2272  1.7150
50485SOL    HW260424  11.847   6.687   3.149  0.7041 -0.1034  0.2137
50486SOL     OW60425  10.766   8.837  11.832 -0.1686 -0.2281 -0.4938
50486SOL    HW160426  10.774   8.932  11.831 -0.7298 -0.1538 -3.1844
50486SOL    HW260427  10.857   8.806  11.839  0.0432  0.4770  0.0035
50487SOL     OW60428   0.768   2.914  10.571 -0.3462 -0.0049 -0.0416
50487SOL    HW160429   0.731   2.981  10.629 -2.5580 -0.5279 -0.7554
50487SOL    HW260430   0.792   2.962  10.492  0.2401  0.2871  0.3025
50488SOL     OW60431  11.786   7.443  10.076 -0.1997 -0.3738  0.0554
50488SOL    HW160432  11.844   7.400  10.139 -0.9275 -0.2958  0.7959
50488SOL    HW260433  11.844   7.500  10.026  0.3232 -0.0524  0.9976
50489SOL     OW60434   3.691  12.243  10.684 -0.4781  0.6580 -0.0370
50489SOL    HW160435   3.744  12.178  10.636 -0.8947 -0.5244  1.0736
50489SOL    HW260436   3.736  12.326  10.667  0.5861 -0.0325 -0.7627
50490SOL     OW60437  10.594   1.858   3.027  0.0031  0.3618  0.6577
50490SOL    HW160438  10.658   1.824   2.966 -1.6399 -1.1043 -0.3622
50490SOL    HW260439  10.551   1.779   3.062 -1.8681  1.2903  0.5559
50491SOL     OW60440   0.571   9.966   2.345  0.5745  0.8242  0.7217
50491SOL    HW160441   0.497   9.957   2.285  0.2104 -0.4302  1.3153
50491SOL    HW260442   0.530   9.978   2.431  0.8921 -2.7071  1.5312
50492SOL     OW60443   1.196   8.844  12.322 -0.0189 -0.0599 -0.2725
50492SOL    HW160444   1.161   8.888  12.245  0.4552 -2.5234 -2.0307
50492SOL    HW260445   1.138   8.769  12.336  1.7662 -1.5569 -0.3775
50493SOL     OW60446   0.099   4.484   5.266 -0.1719  0.1872 -0.0261
50493SOL    HW160447   0.131   4.554   5.323  0.9237 -0.9985  0.8844
50493SOL    HW260448   0.040   4.434   5.321 -0.2386 -0.1311 -0.3853
50494SOL     OW60449  10.484   2.228   0.041  0.1466  0.8489 -0.1977
50494SOL    HW160450  10.449   2.310   0.076  1.2282  0.6931  1.3883
50494SOL    HW260451  10.482   2.240  -0.054 -0.2775  2.4648 -0.0273
50495SOL     OW60452   3.681   7.784   8.798  0.3388  0.3938  0.1662
50495SOL    HW160453   3.696   7.859   8.740  0.9177  0.0759 -0.0993
50495SOL    HW260454   3.674   7.709   8.739 -1.1069  0.3365  0.3605
50496SOL     OW60455   7.662  11.131   9.511 -0.1382  0.3152  0.1169
50496SOL    HW160456   7.733  11.160   9.569 -0.1023  2.3106 -0.8458
50496SOL    HW260457   7.597  11.094   9.570 -0.5365  3.1290  1.6261
50497SOL     OW60458   2.709  10.571   4.285  0.1989  0.3126 -0.3447
50497SOL    HW160459   2.667  10.534   4.208  0.4647 -1.6417  0.4037
50497SOL    HW260460   2.688  10.511   4.356  1.2336  1.2383  0.8054
50498SOL     OW60461   3.464   2.220   9.922  0.2507 -0.2290  0.2407
50498SOL    HW160462   3.433   2.134   9.895 -0.3117  0.1810 -0.4410
50498SOL    HW260463   3.396   2.253   9.980 -1.8250  1.5941 -2.9601
50499SOL     OW60464  11.770   5.904  12.215  0.0296 -0.0108 -0.4829
50499SOL    HW160465  11.690   5.934  12.257  0.7293 -0.4011  1.2237
50499SOL    HW260466  11.750   5.815  12.184 -0.1455 -0.1776  0.1056
50500SOL     OW60467   3.365   7.397   7.444  0.1758 -0.6137  0.9163
50500SOL    HW160468   3.309   7.341   7.390  0.8308 -1.3838  1.0196
50500SOL    HW260469   3.432   7.429   7.384 -1.6658  2.2287  0.2238
50501SOL     OW60470   5.500   5.209   9.789  0.1870  0.0149  0.2829
50501SOL    HW160471   5.520   5.194   9.697  2.2148  2.1476  0.2941
50501SOL    HW260472   5.509   5.304   9.801  0.7587 -0.2857  2.8382
50502SOL     OW60473  11.402   8.620   6.050 -0.2650  0.2421  0.1698
50502SOL    HW160474  11.351   8.699   6.065 -0.7427 -0.0894  0.3164
50502SOL    HW260475  11.344   8.548   6.076  0.0864 -0.1683 -0.1576
50503SOL     OW60476   1.612  11.853   4.920  0.2652 -0.1415 -0.3804
50503SOL    HW160477   1.518  11.841   4.906  0.2393  0.3744 -0.6665
50503SOL    HW260478   1.645  11.885   4.836  0.6106  0.1465 -0.1385
50504SOL     OW60479  12.250  11.616  11.844 -0.0908 -0.3345 -0.1467
50504SOL    HW160480  12.334  11.570  11.837  0.0806  0.0514 -0.6295
50504SOL    HW260481  12.190  11.565  11.790 -0.3970 -1.1064  0.8774
50505SOL     OW60482   2.344   0.432   1.307  0.3137  0.1916  0.9707
50505SOL    HW160483   2.365   0.339   1.296 -1.3462 -0.1236  0.1149
50505SOL    HW260484   2.425   0.478   1.287  1.0372 -1.0450  0.9418
50506SOL     OW60485  11.113   9.908  11.600  0.2291  0.6641  0.1619
50506SOL    HW160486  11.154   9.827  11.629  1.9489  1.5808  0.4303
50506SOL    HW260487  11.085   9.890  11.510  1.8942  0.2035 -0.2963
50507SOL     OW60488   4.796   8.480   2.903 -0.5422 -0.1495  0.0879
50507SOL    HW160489   4.849   8.558   2.887  0.2576 -0.4086  1.3178
50507SOL    HW260490   4.807   8.426   2.825  1.0878 -0.2157  0.3370
50508SOL     OW60491  10.090   8.038   0.293  0.0753  0.2484  0.0983
50508SOL    HW160492  10.070   8.132   0.294 -0.1944  0.2250 -1.4060
50508SOL    HW260493  10.175   8.032   0.338  0.1626  1.2268  0.0952
50509SOL     OW60494  11.408   9.337  10.251 -0.1607 -0.3456  0.3597
50509SOL    HW160495  11.471   9.266  10.263  0.1740 -0.2283 -0.6598
50509SOL    HW260496  11.330   9.306  10.297 -0.1046 -1.5012 -0.2731
50510SOL     OW60497   1.397   2.609   9.656  0.4250  0.0351 -0.8544
50510SOL    HW160498   1.332   2.583   9.591 -1.4574 -0.8159  1.2279
50510SOL    HW260499   1.348   2.615   9.738  2.5424  1.7636  0.3927
50511SOL     OW60500   3.812  10.306   0.977  0.2230  0.1046 -0.2026
50511SOL    HW160501   3.783  10.386   1.020 -2.1955 -0.6339 -0.3399
50511SOL    HW260502   3.880  10.271   1.035 -0.0663  1.2334  0.8604
50512SOL     OW60503   0.434  10.226   8.956  0.3643  0.5373 -0.1745
50512SOL    HW160504   0.370  10.206   8.888  0.2625 -0.8843  0.3080
50512SOL    HW260505   0.512  10.175   8.932 -0.5648 -2.2863  2.1492
50513SOL     OW60506  10.655   9.575   0.226  0.5040  0.0106  0.3660
50513SOL    HW160507  10.657   9.668   0.251  1.7829  0.4542 -1.1492
50513SOL    HW260508  10.682   9.576   0.134  0.5978 -1.8822  0.3521
50514SOL     OW60509   0.045   5.544   4.753 -0.2521 -0.5914 -0.1969
50514SOL    HW160510   0.097   5.509   4.681 -1.5195 -1.1907 -0.8661
50514SOL    HW260511  -0.026   5.591   4.710 -0.4643 -0.0974  0.6797
50515SOL     OW60512   4.603   0.370  11.100 -0.3834 -0.1005 -0.2142
50515SOL    HW160513   4.677   0.333  11.051  0.2506  0.5690  0.2204
50515SOL    HW260514   4.624   0.463  11.108 -1.6006  0.2247 -0.6554
50516SOL     OW60515   8.062  10.155   4.471 -0.3293  0.4619 -0.2460
50516SOL    HW160516   8.086  10.073   4.428 -1.2230  0.7389 -1.3284
50516SOL    HW260517   7.991  10.190   4.417 -2.2237  0.3532  2.0157
50517SOL     OW60518  11.215   5.139   0.309  0.0418  0.5064 -0.0069
50517SOL    HW160519  11.249   5.165   0.224 -1.0877  1.6011 -0.1596
50517SOL    HW260520  11.126   5.176   0.312  0.5055  1.6285  2.1569
50518SOL     OW60521   0.494  11.387   6.687  0.3066  0.0745 -0.4011
50518SOL    HW160522   0.535  11.301   6.680  0.6467  0.1429  0.6432
50518SOL    HW260523   0.428  11.387   6.617 -1.4336 -2.0047  1.0993
50519SOL     OW60524  10.139   2.457   7.668  0.1350  0.4588 -1.1051
50519SOL    HW160525  10.148   2.527   7.603  1.2356 -0.4381 -1.9487
50519SOL    HW260526  10.089   2.389   7.624  0.7185 -0.0727 -0.9479
50520SOL     OW60527   6.250  11.232   2.241 -0.2676  0.7647  0.0125
50520SOL    HW160528   6.277  11.151   2.283  1.7621  1.3119 -0.1465
50520SOL    HW260529   6.299  11.301   2.286 -2.4924  2.0510  0.6548
50521SOL     OW60530  11.786  10.775   5.731 -0.2362  0.0937 -0.3139
50521SOL    HW160531  11.819  10.686   5.720  0.5192  0.4732 -1.2714
50521SOL    HW260532  11.716  10.783   5.667 -0.6714  0.0332  0.1411
50522SOL     OW60533   6.174   2.300   5.845 -0.6616  0.4249 -0.5639
50522SOL    HW160534   6.131   2.385   5.831 -1.2284  0.0355 -1.3171
50522SOL    HW260535   6.109   2.236   5.816 -0.5601 -0.3156  0.7704
50523SOL     OW60536   2.258   3.654   7.297 -0.4101 -0.5240  0.0109
50523SOL    HW160537   2.297   3.669   7.211 -1.1818  2.4454  0.0983
50523SOL    HW260538   2.304   3.714   7.356 -1.8964 -0.3889  1.0767
50524SOL     OW60539   6.031   3.433  11.142 -0.2737  0.4048 -0.1887
50524SOL    HW160540   6.075   3.455  11.224  1.1029  1.3864 -1.1639
50524SOL    HW260541   5.966   3.367  11.167  0.7984 -0.0591  1.5249
50525SOL     OW60542   1.001   0.002   4.429  0.0076  0.6424 -0.0236
50525SOL    HW160543   0.948   0.081   4.420 -1.8397 -0.3702  1.3461
50525SOL    HW260544   1.046  -0.007   4.345 -1.1930  2.1031 -0.8618
50526SOL     OW60545   4.433  10.879   1.118  0.2949  0.0653 -0.1849
50526SOL    HW160546   4.506  10.852   1.063 -0.4360 -0.2886 -1.0045
50526SOL    HW260547   4.448  10.972   1.134 -0.9078  0.9486 -3.3816
50527SOL     OW60548   9.625   4.639   6.364 -0.5218  0.3157  0.6399
50527SOL    HW160549   9.557   4.610   6.425 -0.1213 -1.7655  0.1854
50527SOL    HW260550   9.577   4.686   6.295 -1.1966  0.9319  1.4955
50528SOL     OW60551   9.791   1.415   6.492 -0.1886  0.2534 -0.0521
50528SOL    HW160552   9.756   1.433   6.405 -2.0152 -0.0186  0.5869
50528SOL    HW260553   9.861   1.351   6.477  0.5958  1.3674 -1.4415
50529SOL     OW60554   1.654   9.716   0.444  0.1691  0.0233 -0.6716
50529SOL    HW160555   1.738   9.709   0.398  0.1122  0.1021 -0.7921
50529SOL    HW260556   1.671   9.684   0.532  0.2543 -0.2361 -0.7814
50530SOL     OW60557   6.607   6.092   0.905  0.1517  0.8431 -0.5309
50530SOL    HW160558   6.605   6.000   0.930  0.8560  1.4492  2.1265
50530SOL    HW260559   6.585   6.139   0.986  0.9574  3.0340 -1.5128
50531SOL     OW60560   8.847   7.207   9.374  0.3705 -0.2187  0.0066
50531SOL    HW160561   8.839   7.218   9.279 -0.0731 -1.9623 -0.2000
50531SOL    HW260562   8.895   7.125   9.385 -0.6284 -0.6773  1.2731
50532SOL     OW60563   3.739   3.964   7.212  0.4328  0.4020 -0.7831
50532SOL    HW160564   3.720   3.948   7.305  2.2958  2.6368  0.0989
50532SOL    HW260565   3.809   3.902   7.191  0.3304  0.2067 -0.5566
50533SOL     OW60566   5.635   9.528   2.046 -0.2521 -0.4012 -0.6282
50533SOL    HW160567   5.727   9.550   2.038 -0.0404  0.1339  2.1241
50533SOL    HW260568   5.631   9.433   2.032  0.8650 -0.5649  0.0737
50534SOL     OW60569   7.580   8.237   9.980 -0.0494 -0.3918 -0.0762
50534SOL    HW160570   7.556   8.278   9.897 -2.8802  0.8144  1.2058
50534SOL    HW260571   7.530   8.156   9.982 -2.0841  0.8073  1.4493
50535SOL     OW60572  11.732  11.658   9.774  0.0114 -0.4071 -0.4614
50535SOL    HW160573  11.755  11.583   9.829 -2.0816 -0.3845  0.5654
50535SOL    HW260574  11.663  11.703   9.824 -0.3907  0.8853 -2.1149
50536SOL     OW60575   8.824   2.794   6.340 -0.2079  0.0977  0.8300
50536SOL    HW160576   8.747   2.764   6.292 -0.4924  2.7255 -0.5550
50536SOL    HW260577   8.787   2.838   6.417  0.0441 -0.6785  1.3982
50537SOL     OW60578   4.584   3.314   0.893  0.6940  0.1794  0.5157
50537SOL    HW160579   4.526   3.344   0.963  0.1925 -0.8925  0.5796
50537SOL    HW260580   4.614   3.394   0.851 -0.6684  0.7782  0.6193
50538SOL     OW60581   2.805   5.390   5.939 -0.0086  0.7723 -0.1331
50538SOL    HW160582   2.892   5.352   5.932 -0.4685 -0.1089 -1.5995
50538SOL    HW260583   2.750   5.319   5.971 -0.1793  1.3697  0.9483
50539SOL     OW60584   8.633   8.337   6.425 -0.2354 -0.0794 -0.0401
50539SOL    HW160585   8.552   8.286   6.427 -0.3635  0.0982  1.9141
50539SOL    HW260586   8.610   8.418   6.380 -1.1862  0.0072  0.5784
50540SOL     OW60587   1.277   6.881   6.529 -0.1507 -0.6911  0.5699
50540SOL    HW160588   1.259   6.970   6.501 -0.6233 -1.0047 -0.1474
50540SOL    HW260589   1.248   6.826   6.457 -0.5057 -1.4704  1.2852
50541SOL     OW60590   1.939   8.966   8.268  0.0005  0.3030 -0.3944
50541SOL    HW160591   1.957   9.037   8.207  0.4667  1.6068  1.1828
50541SOL    HW260592   1.917   8.891   8.212  1.6038  1.0779 -2.1670
50542SOL     OW60593   1.785   3.682   3.340 -0.3330  0.0070  0.2618
50542SOL    HW160594   1.782   3.772   3.373  1.5995 -0.0148  0.6126
50542SOL    HW260595   1.750   3.629   3.411  0.8041  0.2709  1.0409
50543SOL     OW60596  12.089   2.039   9.603  0.3102 -0.2279 -0.1530
50543SOL    HW160597  12.087   1.949   9.636 -0.7484 -0.9666 -2.0483
50543SOL    HW260598  12.015   2.082   9.646 -0.4861 -0.9026 -0.8258
50544SOL     OW60599   1.090   5.231  10.326  0.3233 -0.1855 -0.0818
50544SOL    HW160600   1.003   5.213  10.361  1.2927 -3.9707  0.8605
50544SOL    HW260601   1.130   5.292  10.389 -1.2919  0.9543 -0.1078
50545SOL     OW60602   8.276   7.626   4.498  0.2564 -0.0511 -0.2457
50545SOL    HW160603   8.280   7.668   4.584  0.4548  0.5412 -0.5348
50545SOL    HW260604   8.366   7.629   4.466  0.2059 -0.3885 -0.4165
50546SOL     OW60605   9.812   5.991   3.252  0.1604 -0.4096 -0.1377
50546SOL    HW160606   9.835   6.028   3.337 -0.1608  3.2883 -1.4630
50546SOL    HW260607   9.895   5.956   3.218  0.9059  0.5810  0.5830
50547SOL     OW60608   2.715   8.487   1.848  0.3129 -0.1970  0.5408
50547SOL    HW160609   2.704   8.414   1.909  1.0746  0.0461  0.9819
50547SOL    HW260610   2.713   8.565   1.902 -2.6850  0.3150 -0.1645
50548SOL     OW60611   1.473   4.509  11.596  0.3609 -0.1375 -0.0490
50548SOL    HW160612   1.396   4.476  11.549 -1.9000 -1.5023  4.1035
50548SOL    HW260613   1.507   4.433  11.643  1.5506  1.3376  1.6180
50549SOL     OW60614   7.585   6.232  12.570 -0.1196  0.1508 -0.6868
50549SOL    HW160615   7.519   6.300  12.585  0.5046  0.7575 -0.6159
50549SOL    HW260616   7.620   6.214  12.658 -0.5402 -0.5342 -0.6561
50550SOL     OW60617   5.597   1.447  12.132 -0.1070  0.0079 -0.3956
50550SOL    HW160618   5.592   1.515  12.064  1.1937 -0.0662 -0.5902
50550SOL    HW260619   5.556   1.371  12.091 -0.8235  0.4228 -0.4811
50551SOL     OW60620   2.938   3.112   5.524  0.1778  0.3839  0.6406
50551SOL    HW160621   2.990   3.050   5.474 -2.4877  0.2805 -2.2909
50551SOL    HW260622   2.873   3.058   5.569 -0.9275  0.8528 -0.3500
50552SOL     OW60623  12.006   1.881   8.649 -0.4169 -0.2819  0.1471
50552SOL    HW160624  12.043   1.956   8.602 -2.9424  0.3770 -0.9138
50552SOL    HW260625  12.063   1.870   8.725  2.9684 -0.4619 -2.1888
50553SOL     OW60626   0.496   6.662   4.660 -0.2065  0.2724 -0.4899
50553SOL    HW160627   0.471   6.579   4.700 -0.6188 -0.0837 -1.4543
50553SOL    HW260628   0.433   6.675   4.590  0.3747  0.9737 -0.8995
50554SOL     OW60629   5.759  12.105   0.468  0.2094 -0.5238 -1.1709
50554SOL    HW160630   5.733  12.196   0.482  0.4936 -0.3566 -1.6883
50554SOL    HW260631   5.686  12.066   0.421 -0.6403 -1.0215  0.4558
50555SOL     OW60632  11.830   3.461   8.263 -0.9655 -0.6483 -0.2633
50555SOL    HW160633  11.800   3.374   8.237 -1.0536 -0.4621 -0.7922
50555SOL    HW260634  11.875   3.446   8.347  0.1275 -1.4132 -0.9522
50556SOL     OW60635  11.421   0.736   7.409  0.0221  0.2919 -0.1929
50556SOL    HW160636  11.340   0.759   7.455 -1.2667  0.1826 -2.3052
50556SOL    HW260637  11.467   0.676   7.470 -1.0356  1.0331  1.3964
50557SOL     OW60638   8.722   3.214  10.228  0.1593  0.1666  0.4395
50557SOL    HW160639   8.769   3.138  10.195 -2.8332 -1.3600 -0.6554
50557SOL    HW260640   8.631   3.199  10.204 -0.6212  4.1409  0.1279
50558SOL     OW60641  11.442   2.898   0.796  0.1752 -0.0861 -0.0636
50558SOL    HW160642  11.422   2.896   0.702  0.2202  0.5062 -0.0844
50558SOL    HW260643  11.412   2.983   0.826 -1.4881 -0.9320  0.8410
50559SOL     OW60644   6.520   5.591   7.077 -1.4198  0.1735  0.4057
50559SOL    HW160645   6.425   5.601   7.084 -1.5584 -0.8846  0.2452
50559SOL    HW260646   6.533   5.498   7.057 -0.3777  0.4375 -0.2116
50560SOL     OW60647   9.637   0.771  12.556 -0.5210  0.2003 -0.4571
50560SOL    HW160648   9.686   0.766  12.639  0.4331  1.5091 -0.9060
50560SOL    HW260649   9.700   0.741  12.491  0.8134  4.4511 -1.4312
50561SOL     OW60650   7.540  10.546   8.151 -0.2990 -0.0948  0.5362
50561SOL    HW160651   7.461  10.556   8.098 -0.9302  1.4575  1.7109
50561SOL    HW260652   7.596  10.488   8.099 -1.8527 -0.5599 -0.7033
50562SOL     OW60653   5.256   7.877   0.559 -0.4061 -0.1020 -0.8107
50562SOL    HW160654   5.265   7.863   0.653  0.9674  0.1086 -0.8861
50562SOL    HW260655   5.162   7.891   0.545 -0.5230  0.8001  0.6667
50563SOL     OW60656   7.106   3.287   0.484 -0.1470  0.0091  0.3385
50563SOL    HW160657   7.116   3.298   0.579 -1.7717 -2.4743  0.8961
50563SOL    HW260658   7.180   3.232   0.459  0.5216  1.0147  0.0471
50564SOL     OW60659   3.664   9.346   1.456  0.3135 -0.0815  0.2003
50564SOL    HW160660   3.582   9.300   1.472  0.5856 -0.8025 -0.3574
50564SOL    HW260661   3.716   9.284   1.404  0.7743  0.7969 -0.4144
50565SOL     OW60662   8.537   9.867   6.730 -0.2371  0.5290 -0.4336
50565SOL    HW160663   8.583   9.942   6.693 -2.3500  2.2779  0.2703
50565SOL    HW260664   8.487   9.832   6.656  0.1032  0.3076 -0.5646
50566SOL     OW60665   5.591  10.046   3.865  0.1626 -0.1322 -0.4764
50566SOL    HW160666   5.642  10.083   3.793 -1.4975  1.5894 -0.8124
50566SOL    HW260667   5.500  10.066   3.844 -0.4393 -0.3497  1.6670
50567SOL     OW60668  12.127   7.391   7.351  0.0675  0.4838  0.5730
50567SOL    HW160669  12.140   7.414   7.259 -0.3242  0.6456  0.5587
50567SOL    HW260670  12.033   7.398   7.364 -0.0180 -0.6726  0.6851
50568SOL     OW60671   6.152   0.789  11.528 -0.6041 -0.5175  0.0155
50568SOL    HW160672   6.114   0.701  11.526 -0.3798 -0.6421  0.8567
50568SOL    HW260673   6.132   0.822  11.616 -0.0481 -0.0181 -0.0363
50569SOL     OW60674   3.950   9.636   8.082  0.4508  0.1134 -0.3888
50569SOL    HW160675   3.881   9.654   8.018  0.1137 -2.1538 -0.7355
50569SOL    HW260676   3.905   9.631   8.166  0.4963  0.4935 -0.3391
50570SOL     OW60677   8.127   6.790   2.888  0.1153 -0.1437  0.1863
50570SOL    HW160678   8.185   6.844   2.834  0.6731  0.7093  1.6151
50570SOL    HW260679   8.185   6.726   2.929  0.3516  1.5591  2.6970
50571SOL     OW60680   0.666   2.907  12.024 -0.4761 -0.8269 -0.0304
50571SOL    HW160681   0.612   2.831  12.044 -1.6270 -0.0373 -0.0663
50571SOL    HW260682   0.684   2.899  11.930 -1.7233 -0.3563 -0.3183
50572SOL     OW60683   3.677   4.938  11.142 -0.5984  0.1461 -0.7906
50572SOL    HW160684   3.714   4.855  11.112 -0.3236 -0.0904  0.1540
50572SOL    HW260685   3.727   5.005  11.096  2.0842 -0.1138  1.4809
50573SOL     OW60686  10.222   5.838   7.526  0.0935 -0.1396 -0.3124
50573SOL    HW160687  10.131   5.861   7.510  0.1171 -1.0849 -2.0269
50573SOL    HW260688  10.261   5.918   7.561 -0.7605  1.1934 -2.2331
50574SOL     OW60689  10.564   2.453   2.120  0.5834  0.6004  0.6586
50574SOL    HW160690  10.635   2.501   2.162  2.3332  0.9904 -2.4961
50574SOL    HW260691  10.603   2.416   2.041 -2.7154  0.9344 -1.3111
50575SOL     OW60692   2.127   5.185  12.051  0.4402  0.5716 -0.5626
50575SOL    HW160693   2.197   5.127  12.022  0.6449  0.0382  0.9258
50575SOL    HW260694   2.091   5.222  11.970  0.8310 -1.0018 -1.4866
50576SOL     OW60695   3.179  10.328   4.287 -0.2606 -0.2002  0.7679
50576SOL    HW160696   3.100  10.379   4.307 -1.2099 -1.5736  0.7268
50576SOL    HW260697   3.239  10.348   4.359 -0.6775  0.8112  0.8529
50577SOL     OW60698   9.367  12.228  11.410  0.4028 -0.3075 -0.4973
50577SOL    HW160699   9.297  12.163  11.409  0.9093 -0.8812  0.3220
50577SOL    HW260700   9.432  12.192  11.470  0.9309  0.7089 -0.4448
50578SOL     OW60701  11.873   5.986  11.097  0.0522  0.3848  0.1247
50578SOL    HW160702  11.866   6.055  11.031 -1.6662 -0.4334 -0.6158
50578SOL    HW260703  11.920   6.027  11.170 -0.1486  2.0636 -0.6412
50579SOL     OW60704   3.277  12.070  11.293 -0.3102 -0.1358 -0.0194
50579SOL    HW160705   3.181  12.061  11.288 -0.3925 -0.1345  1.3162
50579SOL    HW260706   3.304  12.077  11.201 -1.4430 -1.5982 -0.5271
50580SOL     OW60707   6.997   9.901   6.802  0.4261 -0.6681 -0.4246
50580SOL    HW160708   6.967   9.825   6.851 -1.3525  0.2850  0.0377
50580SOL    HW260709   7.079   9.926   6.844  1.1452 -2.3944 -0.7020
50581SOL     OW60710   7.785   5.681   8.282 -0.1183  0.2128  0.3230
50581SOL    HW160711   7.690   5.687   8.289 -0.4876 -0.6209 -2.7078
50581SOL    HW260712   7.816   5.770   8.300 -1.5225  0.6561  0.6293
50582SOL     OW60713   1.061   2.743  10.722  0.2585  0.3430  0.3408
50582SOL    HW160714   1.147   2.759  10.684 -0.1728  1.2477 -0.2916
50582SOL    HW260715   1.012   2.696  10.654  0.1663  0.0674  0.5949
50583SOL     OW60716   9.366   0.659   8.921 -0.0668  0.2261 -0.4803
50583SOL    HW160717   9.298   0.613   8.970 -1.2777  2.5436  0.1525
50583SOL    HW260718   9.357   0.627   8.831  0.1128 -1.7752  0.1606
50584SOL     OW60719   2.520   2.905   3.386  0.3080 -0.2213  0.0603
50584SOL    HW160720   2.575   2.983   3.381  1.8575 -1.0760  2.2599
50584SOL    HW260721   2.582   2.833   3.394 -1.1072 -1.6606 -1.1720
50585SOL     OW60722   6.364   7.988   8.734  0.1673  0.2626 -0.0148
50585SOL    HW160723   6.368   8.084   8.739  1.0326  0.2952 -0.9902
50585SOL    HW260724   6.338   7.970   8.643  2.0897 -0.4338 -0.4749
50586SOL     OW60725   4.280  12.224   4.919  0.1475  0.4469  0.3688
50586SOL    HW160726   4.371  12.194   4.923  0.0298  0.1797  1.1999
50586SOL    HW260727   4.230  12.157   4.966 -0.2165  1.5328  1.5954
50587SOL     OW60728   0.695   5.622   6.725  1.0004  0.1735  0.2338
50587SOL    HW160729   0.601   5.630   6.712  0.8662  1.1239  1.4592
50587SOL    HW260730   0.732   5.698   6.679  0.8335  1.5832  2.2739
50588SOL     OW60731   5.620   6.884   3.199 -0.1101  0.0941  0.1805
50588SOL    HW160732   5.560   6.868   3.272 -1.5098 -1.4311 -1.2408
50588SOL    HW260733   5.624   6.801   3.152  0.4252  1.1415 -1.7172
50589SOL     OW60734   8.026  11.804   4.188  0.0383 -0.1255  0.3967
50589SOL    HW160735   7.975  11.808   4.107 -0.6644  1.2301  0.8709
50589SOL    HW260736   7.972  11.752   4.248  0.3425 -0.7350  0.1444
50590SOL     OW60737  12.193  10.837   7.831 -0.0547 -0.0097 -0.0349
50590SOL    HW160738  12.224  10.858   7.920 -1.5970  1.5313  0.1865
50590SOL    HW260739  12.270  10.798   7.788  0.7079 -0.8849  1.9801
50591SOL     OW60740   8.344   4.345  11.391  0.5175 -0.5718 -0.0045
50591SOL    HW160741   8.349   4.424  11.445  1.1918 -0.5332 -0.1112
50591SOL    HW260742   8.433   4.310  11.392  0.2411 -1.2880 -0.0266
50592SOL     OW60743  11.219  10.317  10.197  0.7344 -0.0954 -0.2510
50592SOL    HW160744  11.257  10.306  10.110  0.5683  0.0682 -0.3444
50592SOL    HW260745  11.262  10.250  10.251  0.2095 -0.7721 -0.6584
50593SOL     OW60746   6.345   1.189   1.363 -0.1709 -0.3543  0.7683
50593SOL    HW160747   6.338   1.228   1.276  1.3115 -0.6133  0.4973
50593SOL    HW260748   6.267   1.134   1.372  0.0477 -0.9582 -0.7361
50594SOL     OW60749  11.288  11.287   4.669 -0.0897  0.2172 -0.1584
50594SOL    HW160750  11.300  11.198   4.637 -0.5386  0.6885 -1.7181
50594SOL    HW260751  11.365  11.335   4.638 -0.1450  0.5147  0.1558
50595SOL     OW60752   1.871   6.378   6.953  0.7937 -0.1072 -0.6227
50595SOL    HW160753   1.957   6.339   6.942  0.8155 -0.4737  0.6980
50595SOL    HW260754   1.860   6.387   7.047  0.1448  1.6531 -0.8209
50596SOL     OW60755   0.605  10.980   4.048  0.1763  0.5134 -0.5533
50596SOL    HW160756   0.565  11.016   3.969 -0.6260  1.4078  0.2454
50596SOL    HW260757   0.557  11.020   4.120  1.9681  0.9708  0.4335
50597SOL     OW60758   8.514   8.187   2.549  0.0971 -0.6739 -0.0230
50597SOL    HW160759   8.542   8.253   2.486 -0.1947  0.1652  0.7147
50597SOL    HW260760   8.450   8.231   2.605 -1.1003 -1.9402 -0.3170
50598SOL     OW60761   3.742   0.634   5.331  0.3448  0.5729  0.6777
50598SOL    HW160762   3.754   0.715   5.380 -0.3130  0.7612  0.5464
50598SOL    HW260763   3.679   0.584   5.383  2.0242 -0.6291  1.6521
50599SOL     OW60764  10.941   1.159   3.236  0.0282 -0.0409 -0.6191
50599SOL    HW160765  10.986   1.242   3.218 -0.1201 -0.2969 -2.2955
50599SOL    HW260766  11.011   1.098   3.260  0.4271 -0.0508 -1.7614
50600SOL     OW60767   2.701   3.710   6.272 -0.7080 -0.1478  0.0009
50600SOL    HW160768   2.769   3.710   6.339  0.3650  0.8356 -1.0517
50600SOL    HW260769   2.679   3.617   6.260 -0.3802 -0.3891  1.1453
50601SOL     OW60770   8.174   0.083   3.607 -0.4456  0.1774 -0.4732
50601SOL    HW160771   8.106   0.141   3.640 -1.5489 -1.1035 -0.4037
50601SOL    HW260772   8.151   0.068   3.515  1.0697  1.5480 -1.1321
50602SOL     OW60773   6.853  12.321   6.350  0.8230 -0.1569 -0.7138
50602SOL    HW160774   6.933  12.297   6.398  0.9088  0.4694 -0.5223
50602SOL    HW260775   6.839  12.250   6.288 -0.1194 -1.7662  1.2246
50603SOL     OW60776   8.282   5.388   9.982  0.3785  0.0909  0.0030
50603SOL    HW160777   8.221   5.437   9.928 -0.4647  1.3294  1.9598
50603SOL    HW260778   8.226   5.331  10.035  1.0008  0.3605  0.9728
50604SOL     OW60779   2.729   9.121   5.307 -0.1701  0.6608 -0.0178
50604SOL    HW160780   2.672   9.161   5.374  0.9304  1.7102  0.3361
50604SOL    HW260781   2.680   9.132   5.225 -0.2934  1.9853  0.2019
50605SOL     OW60782   1.428   8.130   5.391 -0.0432  0.0938  0.3756
50605SOL    HW160783   1.438   8.068   5.319 -0.1765  1.5354 -0.9573
50605SOL    HW260784   1.493   8.104   5.455  1.0706 -0.4013 -0.9143
50606SOL     OW60785   1.409   9.615  10.249  0.3844 -0.6347  0.0274
50606SOL    HW160786   1.469   9.690  10.251 -2.3603  1.7193 -0.6381
50606SOL    HW260787   1.345   9.633  10.318 -0.9537 -1.8016 -0.8632
50607SOL     OW60788   6.627   9.066   4.499  0.0715  0.0533 -0.2418
50607SOL    HW160789   6.565   9.082   4.427  0.2161  0.9736 -0.1743
50607SOL    HW260790   6.708   9.107   4.469  0.3531 -0.2402  0.1180
50608SOL     OW60791   3.245   8.366   8.631  0.1581  0.1522  0.7852
50608SOL    HW160792   3.200   8.404   8.555  0.4562 -1.1482 -0.0827
50608SOL    HW260793   3.186   8.298   8.662  0.9610 -0.7603  0.3739
50609SOL     OW60794   3.939  12.009   4.163  0.0607 -0.0388  0.3835
50609SOL    HW160795   3.907  11.948   4.230  0.2540 -1.3792 -0.7013
50609SOL    HW260796   4.024  12.039   4.195 -0.9192  1.2950  1.9017
50610SOL     OW60797   4.442   2.620   3.508 -1.0210  0.7135 -0.3992
50610SOL    HW160798   4.357   2.624   3.464 -1.5356 -0.8658  0.3838
50610SOL    HW260799   4.466   2.527   3.506 -2.2281  0.0461  4.6709
50611SOL     OW60800   7.160   5.923   0.827  0.3493  0.3721  0.2808
50611SOL    HW160801   7.206   5.887   0.902  0.1079 -0.5150  0.0242
50611SOL    HW260802   7.226   5.970   0.778  0.8972 -0.4962  0.1585
50612SOL     OW60803   4.678   1.238   1.080  0.2079 -0.7936  0.1096
50612SOL    HW160804   4.749   1.302   1.085 -0.1282 -0.4029 -0.1367
50612SOL    HW260805   4.672   1.216   0.987  0.3982 -1.2758  0.2054
50613SOL     OW60806   3.133   2.077  11.573 -0.5123 -0.1036  0.5825
50613SOL    HW160807   3.105   2.108  11.659 -0.5327 -0.4832  0.7155
50613SOL    HW260808   3.190   2.002  11.592 -0.7029 -0.3332  0.2563
50614SOL     OW60809   4.952   9.612   2.688  0.1305  0.2783  0.5812
50614SOL    HW160810   4.907   9.535   2.722  0.6259 -0.3666 -0.2011
50614SOL    HW260811   4.981   9.587   2.600  1.0113  1.0702  0.6249
50615SOL     OW60812   9.518   3.951   6.265 -0.0523 -0.8367  0.2687
50615SOL    HW160813   9.608   3.920   6.259 -0.0794 -1.0383  0.8037
50615SOL    HW260814   9.466   3.887   6.216  0.3015  0.2940 -1.6727
50616SOL     OW60815   1.984   3.203   9.944 -0.4685 -0.0243 -0.0382
50616SOL    HW160816   1.955   3.112   9.944 -2.2452  0.5077  0.0141
50616SOL    HW260817   1.918   3.249   9.996  0.2236  1.3517 -0.3274
50617SOL     OW60818   2.139  11.002   7.325 -0.2043 -0.1423  0.1569
50617SOL    HW160819   2.170  10.935   7.264 -0.6932 -0.3093  0.0829
50617SOL    HW260820   2.216  11.027   7.375  0.1600 -0.1503 -0.3957
50618SOL     OW60821   2.420   4.097   5.959  0.1489  0.5935 -0.6285
50618SOL    HW160822   2.468   4.054   6.030 -0.1923 -0.0163 -0.7643
50618SOL    HW260823   2.357   4.153   6.004  0.3354  0.6664 -0.4541
50619SOL     OW60824   7.661   1.476  11.146  0.0557 -0.1718  0.0173
50619SOL    HW160825   7.596   1.535  11.108  0.0898  0.2559  0.6058
50619SOL    HW260826   7.745   1.510  11.116  0.2063  1.2562  1.8680
50620SOL     OW60827   7.821   0.618   7.604 -0.5754 -0.6784  0.3207
50620SOL    HW160828   7.782   0.632   7.690  0.3193  0.4790  0.5526
50620SOL    HW260829   7.874   0.539   7.614  0.7704  0.3149  1.2891
50621SOL     OW60830  12.410   9.041   1.570  0.2583  1.1349  0.3675
50621SOL    HW160831  12.402   9.126   1.613 -2.0118  1.0214  0.2969
50621SOL    HW260832  12.337   8.989   1.604  2.2540 -1.2440  1.3005
50622SOL     OW60833   2.093   0.776   7.890  0.2066  0.1963 -0.1241
50622SOL    HW160834   2.177   0.752   7.928  0.5426  1.1591 -0.2338
50622SOL    HW260835   2.077   0.865   7.921 -1.6250 -0.5843  1.3442
50623SOL     OW60836   0.898   9.466  12.381  0.3178 -0.3740  0.5548
50623SOL    HW160837   0.846   9.466  12.462 -0.7805 -1.2658 -0.1250
50623SOL    HW260838   0.905   9.558  12.357  2.6430  0.1817  2.8588
50624SOL     OW60839  11.531   9.999   7.938 -0.1299 -0.3415  1.3992
50624SOL    HW160840  11.611  10.049   7.923 -0.4071 -0.1450  0.5106
50624SOL    HW260841  11.551   9.943   8.014  0.9550 -0.5301  0.9921
50625SOL     OW60842   5.787   0.458   6.832  0.8709 -0.0440  0.1007
50625SOL    HW160843   5.838   0.441   6.912 -2.8655 -0.7148  2.6110
50625SOL    HW260844   5.746   0.374   6.812  3.1351 -0.4435 -3.9142
50626SOL     OW60845   6.237   8.037  10.257 -0.3327 -0.8491  0.1709
50626SOL    HW160846   6.144   8.016  10.246 -0.5748 -0.0923  0.6818
50626SOL    HW260847   6.270   7.970  10.317 -0.0487 -2.3325 -1.5383
50627SOL     OW60848  12.223   0.723   5.838  0.0675 -0.7569  0.0499
50627SOL    HW160849  12.281   0.785   5.795 -2.2444  2.1228  0.7612
50627SOL    HW260850  12.253   0.721   5.929  0.5507 -1.2819 -0.1103
50628SOL     OW60851   9.246   0.922  11.005  0.1108 -0.0159 -0.4002
50628SOL    HW160852   9.334   0.953  10.980  0.5524 -0.3452  0.6924
50628SOL    HW260853   9.187   0.965  10.943  1.0927 -0.2549 -1.5586
50629SOL     OW60854   4.805   5.715  11.271  0.0217  0.0970  0.6852
50629SOL    HW160855   4.795   5.747  11.181 -0.2101  0.6181  0.8919
50629SOL    HW260856   4.883   5.660  11.268  0.6549  0.9844  0.3988
50630SOL     OW60857   7.070  11.159  10.668 -0.4979  0.1836 -0.4350
50630SOL    HW160858   6.995  11.106  10.641 -0.2423 -1.5706  1.9866
50630SOL    HW260859   7.031  11.243  10.693 -1.4232 -0.1364 -0.7478
50631SOL     OW60860   5.931   5.538   3.448  0.4748  0.3133  0.2189
50631SOL    HW160861   5.846   5.573   3.422  0.0962 -0.8632 -0.1522
50631SOL    HW260862   5.961   5.489   3.371  0.9407 -0.2778  0.7740
50632SOL     OW60863   0.924   6.000  12.414 -0.1811 -0.3925 -0.1465
50632SOL    HW160864   0.902   6.053  12.337  0.5963 -1.0458 -0.8283
50632SOL    HW260865   0.872   5.920  12.404  0.2478 -0.6609 -0.2100
50633SOL     OW60866   8.833   4.294   3.244  0.4445 -0.1736  0.0364
50633SOL    HW160867   8.878   4.319   3.325  0.0545 -0.8903  0.4848
50633SOL    HW260868   8.758   4.353   3.240  0.0599 -0.6176  0.5864
50634SOL     OW60869   1.105  10.059   2.571  0.2320  0.2976  0.1752
50634SOL    HW160870   1.110   9.976   2.618 -1.0658  1.4078  2.4389
50634SOL    HW260871   1.193  10.072   2.535  1.7366 -0.0709  3.3804
50635SOL     OW60872   2.738  11.091   1.039  0.3955  0.1027 -0.7324
50635SOL    HW160873   2.668  11.147   1.071  0.4510 -0.2432  0.0236
50635SOL    HW260874   2.726  11.089   0.944 -0.9158 -0.3386 -0.5801
50636SOL     OW60875   0.500   4.088   2.262 -0.1687 -0.1993  0.2130
50636SOL    HW160876   0.448   4.101   2.183  0.9382 -0.0220 -0.5026
50636SOL    HW260877   0.435   4.078   2.332 -1.1542  0.3003 -0.6058
50637SOL     OW60878  10.196   0.322   4.076  0.4685  0.1200 -1.2741
50637SOL    HW160879  10.138   0.262   4.030 -0.5140 -0.0253  0.0923
50637SOL    HW260880  10.233   0.269   4.147  1.9922  0.3226 -1.8646
50638SOL     OW60881  11.402   0.847   9.359 -0.1227 -0.6797  0.8326
50638SOL    HW160882  11.443   0.798   9.287 -0.1035 -1.8154  1.5820
50638SOL    HW260883  11.313   0.862   9.329 -0.3922 -1.9519  0.9112
50639SOL     OW60884   6.049  10.589   0.601  0.1222  0.0016  0.2723
50639SOL    HW160885   5.966  10.610   0.642  0.3839  0.5572  0.5401
50639SOL    HW260886   6.026  10.551   0.516 -0.3955  0.9988 -0.0494
50640SOL     OW60887  11.934  12.164   5.958 -0.3081  0.3402  1.0011
50640SOL    HW160888  11.915  12.152   6.051  1.3733  0.1440  1.3449
50640SOL    HW260889  11.943  12.259   5.948 -1.3363  0.4365  0.8360
50641SOL     OW60890   0.848   6.974   7.687 -0.1655 -0.4967  0.1044
50641SOL    HW160891   0.922   6.973   7.626 -0.8477 -1.0913 -0.7335
50641SOL    HW260892   0.775   7.010   7.636  0.0199  2.1741  1.5261
50642SOL     OW60893   4.437   3.679   2.077 -0.4098 -0.3848  0.0338
50642SOL    HW160894   4.468   3.702   1.989  0.5015  0.6941  0.6082
50642SOL    HW260895   4.463   3.753   2.131 -2.1539 -0.4113  0.9715
50643SOL     OW60896   9.531  11.575   9.256 -0.5013 -0.1197  0.0616
50643SOL    HW160897   9.471  11.525   9.311 -1.1950  1.2036  0.5541
50643SOL    HW260898   9.608  11.590   9.311 -1.4253  1.6917  0.9341
50644SOL     OW60899   5.572  10.047   3.389 -0.6567  0.3247 -0.0573
50644SOL    HW160900   5.518  10.110   3.436 -1.6302 -1.0179  0.7192
50644SOL    HW260901   5.516  10.016   3.318 -0.1424  0.4323 -0.5156
50645SOL     OW60902  11.396   2.040   0.170 -0.5822  0.1108 -0.0976
50645SOL    HW160903  11.406   2.113   0.108  2.1821 -0.0776 -0.0035
50645SOL    HW260904  11.314   2.058   0.215 -1.6268  1.3878 -2.3281
50646SOL     OW60905  10.438   3.363   2.172 -0.0674  0.0326  0.7131
50646SOL    HW160906  10.351   3.400   2.158 -1.5984 -2.7593  2.0530
50646SOL    HW260907  10.463   3.394   2.259 -0.2621 -0.0841  0.8132
50647SOL     OW60908   7.606  10.223  11.690 -0.5671 -0.0496 -0.4759
50647SOL    HW160909   7.534  10.283  11.671 -0.9813 -0.6009 -0.6483
50647SOL    HW260910   7.661  10.226  11.612 -0.3614  0.4223 -0.3176
50648SOL     OW60911   5.170   6.255   4.358 -0.0871 -0.5320 -0.0249
50648SOL    HW160912   5.258   6.256   4.320 -0.0043 -2.2885  0.0512
50648SOL    HW260913   5.176   6.195   4.432 -0.6189  1.7093  1.9598
50649SOL     OW60914   7.635   3.968  10.077 -0.3466 -0.3862 -0.0632
50649SOL    HW160915   7.632   3.911  10.000 -1.2332  0.4273 -0.6515
50649SOL    HW260916   7.607   3.912  10.150  0.4643 -1.1530 -0.3088
50650SOL     OW60917   1.383   6.354   3.754  0.3246  0.3058  0.2455
50650SOL    HW160918   1.317   6.344   3.685  0.2452 -1.6078  0.5462
50650SOL    HW260919   1.443   6.281   3.740  1.7960  1.3917  0.6518
50651SOL     OW60920   4.118  12.151   4.418  0.4946 -0.2278 -0.6526
50651SOL    HW160921   4.102  12.245   4.403 -0.3796 -0.3647 -0.6294
50651SOL    HW260922   4.161  12.121   4.338 -0.3257 -0.0543 -1.1778
50652SOL     OW60923  11.297   1.559  12.170 -0.0965  0.4456 -0.1830
50652SOL    HW160924  11.280   1.653  12.171  0.4693  0.5499  0.0464
50652SOL    HW260925  11.224   1.520  12.220 -0.1146  0.7984  0.0683
50653SOL     OW60926   4.444  11.541  11.683 -0.8526  0.1623 -0.1679
50653SOL    HW160927   4.480  11.593  11.754  0.4736  0.3399 -0.9272
50653SOL    HW260928   4.368  11.590  11.653 -1.5018  0.0174  1.1834
50654SOL     OW60929  11.276   0.314  12.439  0.3112 -0.4778  0.1290
50654SOL    HW160930  11.197   0.314  12.386  0.3673 -2.7122 -0.0523
50654SOL    HW260931  11.303   0.406  12.443  0.0623 -0.1253 -3.3318
50655SOL     OW60932   0.961   9.625  11.807 -0.2526  0.9625  0.2149
50655SOL    HW160933   1.009   9.686  11.752  1.7721  0.8116  1.7116
50655SOL    HW260934   1.024   9.558  11.830 -2.6749 -2.6467 -2.4319
50656SOL     OW60935   4.479   7.009  11.409  0.3113  1.0744  0.3111
50656SOL    HW160936   4.406   6.948  11.397 -0.3857  1.7471  1.0023
50656SOL    HW260937   4.554   6.965  11.369 -0.4434  0.3133 -0.2994
50657SOL     OW60938   7.021   3.195  10.477 -0.0979 -0.2864  0.0151
50657SOL    HW160939   7.061   3.261  10.420 -0.5969 -0.3140 -0.3819
50657SOL    HW260940   6.944   3.166  10.428 -1.9632  1.4656  1.7335
50658SOL     OW60941   7.799  11.205  10.064 -0.2024 -0.6716 -0.2968
50658SOL    HW160942   7.802  11.126  10.010 -0.4990 -0.3996 -0.7186
50658SOL    HW260943   7.707  11.214  10.088  0.2895 -2.4588  2.7824
50659SOL     OW60944   9.563   7.193   5.122 -0.1938  0.1437 -0.4984
50659SOL    HW160945   9.543   7.285   5.104  0.6159  0.4145 -0.0883
50659SOL    HW260946   9.595   7.194   5.212 -1.7781 -0.7979  0.1215
50660SOL     OW60947   4.035   5.670   8.136 -0.3703  0.2253 -0.2390
50660SOL    HW160948   3.992   5.711   8.212  1.7451 -0.5336  1.4785
50660SOL    HW260949   4.003   5.580   8.136  1.0189 -0.3131  0.9832
50661SOL     OW60950   1.214   9.985   6.341 -0.4333 -0.4468  0.3138
50661SOL    HW160951   1.207   9.891   6.326 -1.1623 -0.4211  0.4342
50661SOL    HW260952   1.138  10.022   6.296  1.6114  0.4647 -2.6224
50662SOL     OW60953   1.997   9.789   6.110  0.1410 -0.0107  0.2707
50662SOL    HW160954   1.914   9.816   6.070 -0.4220  0.6392  1.8294
50662SOL    HW260955   1.972   9.730   6.181  1.2052 -2.4422 -1.2367
50663SOL     OW60956   7.823  11.411   6.069 -0.1185  0.0570  0.3217
50663SOL    HW160957   7.730  11.398   6.049 -0.3484 -1.5074  2.0873
50663SOL    HW260958   7.847  11.333   6.119  2.1406  0.4817 -0.0272
50664SOL     OW60959   1.526   8.685  10.414 -0.1297 -0.4738 -0.1810
50664SOL    HW160960   1.604   8.631  10.406  0.4313  0.1795  0.6825
50664SOL    HW260961   1.551   8.755  10.475 -1.0285  0.3892 -0.7605
50665SOL     OW60962   3.422   2.445   2.519 -0.4483 -0.1150 -0.2031
50665SOL    HW160963   3.497   2.489   2.479 -0.0692 -1.2624 -0.8011
50665SOL    HW260964   3.459   2.396   2.593 -0.9324  0.8978  0.7268
50666SOL     OW60965   3.938   3.417   7.895  0.2756  0.2276  0.5835
50666SOL    HW160966   3.897   3.415   7.981 -1.6320 -0.4268 -0.3000
50666SOL    HW260967   3.969   3.508   7.886 -2.2315  1.1906  0.7627
50667SOL     OW60968   7.273   7.616   7.177  0.1513 -0.0584 -0.2976
50667SOL    HW160969   7.266   7.649   7.267  0.0316  0.3640 -0.4592
50667SOL    HW260970   7.368   7.609   7.162  0.1670 -0.8127  0.1008
50668SOL     OW60971   7.518   1.602  10.935  0.3553 -0.2279 -0.2565
50668SOL    HW160972   7.560   1.620  10.852  0.9706 -0.8327 -0.0852
50668SOL    HW260973   7.433   1.564  10.912  0.9375 -1.3489 -0.6267
50669SOL     OW60974  11.627   7.037  10.453 -0.1076 -0.2822  0.5055
50669SOL    HW160975  11.600   7.063  10.541  0.1931  0.7005  0.3187
50669SOL    HW260976  11.546   7.038  10.402 -0.3769 -1.3874  0.8773
50670SOL     OW60977   7.802   0.179   4.982  0.2528 -0.2359  0.3035
50670SOL    HW160978   7.746   0.183   4.905  0.6721 -0.1109  0.0019
50670SOL    HW260979   7.854   0.259   4.978 -1.8129  1.3758  2.3539
50671SOL     OW60980  11.660   2.697   6.625  0.2544 -0.1278  0.3732
50671SOL    HW160981  11.590   2.677   6.687 -0.5310  1.0663 -0.0917
50671SOL    HW260982  11.637   2.647   6.546 -0.0028  0.1508  0.2699
50672SOL     OW60983   8.013   6.227   9.662  0.0635  0.0835 -0.1405
50672SOL    HW160984   8.062   6.226   9.744  1.4269  2.9268 -0.7640
50672SOL    HW260985   8.078   6.206   9.595 -0.2727  0.8672 -0.7331
50673SOL     OW60986   9.632   7.560  12.557 -0.5616  0.1637  0.0242
50673SOL    HW160987   9.570   7.580  12.487 -1.4715 -2.7230 -0.0976
50673SOL    HW260988   9.714   7.538  12.513 -0.6095  0.0845 -0.0246
50674SOL     OW60989   4.141   8.502  10.921  0.1181  0.1330 -0.2268
50674SOL    HW160990   4.197   8.537  10.990  1.3399 -0.2931 -0.9751
50674SOL    HW260991   4.063   8.471  10.967  1.4562 -1.3778  1.1614
50675SOL     OW60992   0.520   8.085  11.114  0.0547  0.1222  0.2965
50675SOL    HW160993   0.539   8.164  11.164 -1.8390  0.1616  1.0335
50675SOL    HW260994   0.433   8.100  11.077 -0.1283 -1.3996  0.0321
50676SOL     OW60995  10.447   4.738   9.369  0.4103  0.6622  0.3654
50676SOL    HW160996  10.425   4.707   9.281 -3.3115 -0.0752  1.3690
50676SOL    HW260997  10.474   4.659   9.415 -0.8158  0.4010  0.6793
50677SOL     OW60998  10.354   1.017  11.482  0.4074  0.2511 -0.2509
50677SOL    HW160999  10.436   0.974  11.504  0.3985 -1.1370 -2.6319
50677SOL    HW261000  10.379   1.095  11.432  0.2979 -0.2364 -1.0811
50678SOL     OW61001   4.010   1.856   3.260  0.3051  0.0939  0.0841
50678SOL    HW161002   3.918   1.860   3.234 -0.2880 -1.6706  1.6590
50678SOL    HW261003   4.042   1.773   3.225  1.2351  0.5783 -0.2394
50679SOL     OW61004   3.003   9.145   9.731 -0.2011 -0.1554  0.7650
50679SOL    HW161005   3.003   9.052   9.752  0.5029  0.3430  3.3347
50679SOL    HW261006   3.051   9.186   9.803  0.8870  2.0529 -1.0859
50680SOL     OW61007   7.504   0.400   8.822 -0.8924 -0.3462 -0.1480
50680SOL    HW161008   7.587   0.357   8.804  0.0323  1.4947 -0.5666
50680SOL    HW261009   7.437   0.333   8.805  0.5033 -2.3327  1.6218
50681SOL     OW61010   3.065   3.001   6.558  0.3405 -0.1376  0.0296
50681SOL    HW161011   3.133   2.959   6.506  0.0360 -1.3662  0.5719
50681SOL    HW261012   2.997   2.933   6.568 -0.7101  0.8798 -0.0455
50682SOL     OW61013   6.960   8.937   4.435  0.0968 -0.4635  0.1288
50682SOL    HW161014   6.991   8.893   4.514  0.6394  0.6950  0.5858
50682SOL    HW261015   6.951   9.029   4.461 -0.3177 -0.1731 -0.9925
50683SOL     OW61016   9.852   5.627   7.167 -1.0163 -0.2242  0.5459
50683SOL    HW161017   9.872   5.584   7.084 -0.7769 -0.0301  0.5007
50683SOL    HW261018   9.757   5.632   7.170 -1.0719 -1.2356  0.7956
50684SOL     OW61019  10.845   7.179   0.551  0.0025  0.2831  0.3621
50684SOL    HW161020  10.801   7.260   0.579 -2.3199 -0.7764  0.0579
50684SOL    HW261021  10.909   7.207   0.487 -1.2115  1.8567 -0.2375
50685SOL     OW61022  11.769  11.810  11.967 -0.3105 -0.7532 -0.0227
50685SOL    HW161023  11.823  11.826  12.044  0.2242 -0.9348 -0.3547
50685SOL    HW261024  11.777  11.716  11.951 -1.4772 -0.9535  0.4704
50686SOL     OW61025   0.289   5.468   4.312  0.0947 -0.1341  0.4465
50686SOL    HW161026   0.297   5.544   4.369  0.8121  1.5573 -1.7774
50686SOL    HW261027   0.224   5.494   4.246 -0.3467 -1.8109  0.1734
50687SOL     OW61028   0.063   4.183   8.723  0.0955 -0.4274 -0.0730
50687SOL    HW161029   0.009   4.204   8.646 -0.2110 -0.3223  0.1673
50687SOL    HW261030   0.047   4.255   8.784 -0.6167 -1.1158  0.5824
50688SOL     OW61031   7.208   6.376  12.307 -0.1048  0.6777  0.9897
50688SOL    HW161032   7.115   6.400  12.311 -0.6054 -0.9335  0.1778
50688SOL    HW261033   7.215   6.299  12.364  0.6264  0.4848  0.6531
50689SOL     OW61034  12.537   8.905   9.681  0.8091 -0.5842  0.0397
50689SOL    HW161035  12.624   8.925   9.716  0.2931  3.2463 -0.4081
50689SOL    HW261036  12.478   8.914   9.756  0.3357  2.0872 -0.5384
50690SOL     OW61037   5.529   9.530  10.819 -0.1756 -0.1600 -0.0420
50690SOL    HW161038   5.488   9.574  10.894 -0.3379  1.0427 -0.8202
50690SOL    HW261039   5.541   9.440  10.849 -1.6255 -0.0802  0.9049
50691SOL     OW61040   8.246   7.530  10.593  0.1962 -0.1277 -0.0821
50691SOL    HW161041   8.204   7.554  10.676 -0.0939  0.9686 -0.5328
50691SOL    HW261042   8.305   7.458  10.616 -1.3233 -1.1719  0.7146
50692SOL     OW61043   7.655   6.203  11.505 -0.0334  0.1677 -0.3351
50692SOL    HW161044   7.723   6.185  11.440  0.4121 -1.3525  0.4944
50692SOL    HW261045   7.585   6.141  11.485 -0.5203  0.6964 -0.2715
50693SOL     OW61046   2.787   6.342   4.652  0.0814 -0.3969 -0.2473
50693SOL    HW161047   2.694   6.327   4.634 -0.1011  0.0581  0.2943
50693SOL    HW261048   2.797   6.326   4.746  0.5684 -0.5356 -0.3191
50694SOL     OW61049   8.020   1.250  11.889 -0.0649  0.3723 -0.1322
50694SOL    HW161050   7.957   1.316  11.862 -2.1240 -0.8602  1.3697
50694SOL    HW261051   8.059   1.219  11.807 -1.1266  1.4465 -1.0713
50695SOL     OW61052  10.416  10.649   2.912  0.3870  0.5581  0.0774
50695SOL    HW161053  10.506  10.650   2.879  1.3768 -0.6255  2.4980
50695SOL    HW261054  10.373  10.580   2.862  1.1629  0.3312 -0.3049
50696SOL     OW61055   1.287   6.038   0.083  0.8536  0.6536  0.6775
50696SOL    HW161056   1.253   6.023  -0.005  1.2741 -1.0107  0.7670
50696SOL    HW261057   1.281   6.133   0.095 -1.5549  0.6942 -0.1795
50697SOL     OW61058  10.844   1.131   9.840  0.1943  0.1182 -0.1683
50697SOL    HW161059  10.753   1.158   9.843  1.1906  4.0127  0.4743
50697SOL    HW261060  10.884   1.187   9.773  2.4826  0.1449  1.0949
50698SOL     OW61061   0.845   4.262   0.592 -0.3032  0.0801 -0.3399
50698SOL    HW161062   0.788   4.326   0.634 -0.3501  0.1485 -0.5073
50698SOL    HW261063   0.934   4.295   0.606 -0.2292 -0.6116  0.9083
50699SOL     OW61064  10.011   2.280   4.292  0.6970 -0.2358 -0.0308
50699SOL    HW161065  10.052   2.355   4.251 -1.8600  0.4340 -1.5996
50699SOL    HW261066  10.009   2.213   4.224 -2.9658  0.6454 -0.9903
50700SOL     OW61067   7.812  12.014   4.564  0.2346  0.1648 -0.6889
50700SOL    HW161068   7.867  12.086   4.533  0.4055  0.2122 -0.2788
50700SOL    HW261069   7.873  11.941   4.576  0.2128  0.2246 -0.2133
50701SOL     OW61070  11.681   1.642  11.887 -0.2843  0.2497  0.5306
50701SOL    HW161071  11.679   1.737  11.898 -0.9184  0.4280 -0.9495
50701SOL    HW261072  11.590   1.615  11.895 -0.1594 -0.1860  0.5146
50702SOL     OW61073  11.455   6.291   4.684 -0.0716  0.4277  0.2969
50702SOL    HW161074  11.506   6.319   4.759 -0.4066 -0.6722  0.9561
50702SOL    HW261075  11.490   6.341   4.611  2.9511 -1.2538  0.4163
50703SOL     OW61076   9.106   8.323  10.223 -0.0008  0.7604 -0.1197
50703SOL    HW161077   9.191   8.311  10.181 -0.6554 -0.5607 -1.1631
50703SOL    HW261078   9.052   8.253  10.187 -1.3949  1.2713  0.8962
50704SOL     OW61079   7.733  11.642   0.039  0.2589 -0.4744  0.2142
50704SOL    HW161080   7.703  11.730   0.019 -0.1316 -0.9136 -1.3175
50704SOL    HW261081   7.655  11.595   0.066  0.0961 -0.8094 -0.7747
50705SOL     OW61082   5.903   3.255   8.714  0.3221  0.1010  0.5497
50705SOL    HW161083   5.922   3.163   8.730 -0.0847  0.1379  1.3112
50705SOL    HW261084   5.813   3.257   8.682  0.5960  0.1707 -0.2277
50706SOL     OW61085   5.946   8.731   9.065  0.3047 -0.0720  0.2371
50706SOL    HW161086   6.026   8.756   9.110  0.9255 -3.2686  1.1435
50706SOL    HW261087   5.889   8.697   9.134 -0.3169 -1.3369 -0.8540
50707SOL     OW61088  11.502   0.870   4.581  0.5901 -0.0263 -0.6651
50707SOL    HW161089  11.500   0.903   4.670  0.3474 -1.2454 -0.1976
50707SOL    HW261090  11.590   0.891   4.550  0.5513  0.7279 -0.2717
50708SOL     OW61091   8.642   2.070   0.456  0.1203  0.3986 -0.6858
50708SOL    HW161092   8.594   2.085   0.375  1.3815  0.8945 -1.3635
50708SOL    HW261093   8.692   1.990   0.439  1.2705  1.1271 -0.8460
50709SOL     OW61094   4.849   3.616   0.502  0.0651  0.1220 -0.1819
50709SOL    HW161095   4.789   3.543   0.490  0.0765  0.1871 -0.6477
50709SOL    HW261096   4.921   3.579   0.554 -0.3304  0.0250  0.3037
50710SOL     OW61097   8.320  10.260   6.441 -0.4162  0.5593 -0.7010
50710SOL    HW161098   8.233  10.222   6.425 -0.0522  0.8311 -4.0914
50710SOL    HW261099   8.381  10.191   6.415  0.3318  1.4448 -1.3233
50711SOL     OW61100   0.634   4.851   1.808 -0.6695 -0.1105  0.1953
50711SOL    HW161101   0.713   4.863   1.859 -0.3896 -4.0269  0.9923
50711SOL    HW261102   0.663   4.861   1.717  0.9073 -1.7159  0.4523
50712SOL     OW61103   5.931   9.610   7.613  0.3061 -0.0154 -0.9118
50712SOL    HW161104   5.850   9.583   7.568 -0.8269 -1.1300  1.5975
50712SOL    HW261105   5.920   9.703   7.628 -0.3623 -0.0882 -0.9055
50713SOL     OW61106   0.548  12.013   6.636  0.2435  0.3889  0.7120
50713SOL    HW161107   0.516  12.037   6.549 -0.3549  1.3693  1.1906
50713SOL    HW261108   0.615  11.947   6.619 -1.1324 -0.7803 -0.3818
50714SOL     OW61109  10.037  11.076  10.532 -0.2080  0.3985  0.1561
50714SOL    HW161110   9.988  10.996  10.514 -0.8995  0.7112  0.5526
50714SOL    HW261111  10.097  11.053  10.602  0.3275 -0.0337 -0.4428
50715SOL     OW61112  11.470  11.496   3.078  0.1502 -0.1381 -0.0105
50715SOL    HW161113  11.381  11.467   3.055 -0.7959  2.9240 -0.7085
50715SOL    HW261114  11.483  11.575   3.025  2.2967  0.9325  1.9709
50716SOL     OW61115   5.003   7.469   7.021 -0.1437 -0.3460  0.2748
50716SOL    HW161116   4.916   7.479   7.060 -1.1406 -0.1264 -1.8553
50716SOL    HW261117   5.040   7.557   7.021 -1.3415  0.2400 -1.7710
50717SOL     OW61118   5.959   7.357  12.539 -0.3215  0.5637 -0.2437
50717SOL    HW161119   5.987   7.327  12.626 -0.0696  1.7891  0.1234
50717SOL    HW261120   5.878   7.406  12.556 -0.1259  1.0396 -0.6614
50718SOL     OW61121   6.583   7.494   0.613  0.0713 -0.1872  0.2466
50718SOL    HW161122   6.608   7.575   0.567 -2.2735  0.4935  0.0237
50718SOL    HW261123   6.665   7.457   0.643  1.2585  2.1723  0.1540
50719SOL     OW61124  11.612   7.982   7.830 -0.2153  0.5322 -0.6200
50719SOL    HW161125  11.527   7.980   7.785 -0.5903  3.5741 -0.2104
50719SOL    HW261126  11.663   7.914   7.785 -2.6133 -0.9876 -1.2791
50720SOL     OW61127   5.810   0.710   5.384  0.5225  0.0352  0.2710
50720SOL    HW161128   5.730   0.697   5.333  0.1208  2.3107  0.2114
50720SOL    HW261129   5.782   0.700   5.475 -0.0240  1.4069  0.2878
50721SOL     OW61130  11.421   3.746   2.986  0.3390 -0.7380 -0.3129
50721SOL    HW161131  11.339   3.746   3.036 -0.2790 -1.6585 -1.2530
50721SOL    HW261132  11.438   3.838   2.966 -0.3547 -0.5196  0.0894
50722SOL     OW61133   1.581   0.753  10.126 -0.0766  0.2882 -0.2056
50722SOL    HW161134   1.502   0.785  10.083 -0.6598 -0.3464  0.3741
50722SOL    HW261135   1.571   0.780  10.218 -0.4113 -1.1761  0.2208
50723SOL     OW61136   3.134   5.558   1.491  0.1501 -0.1510 -0.5169
50723SOL    HW161137   3.075   5.566   1.415 -1.9243 -2.6561  0.6707
50723SOL    HW261138   3.201   5.624   1.476 -1.8003  1.4612 -3.0527
50724SOL     OW61139  11.270   0.053  11.487  0.1002  0.2719  0.9010
50724SOL    HW161140  11.363   0.040  11.473  0.3261 -0.5006  2.7763
50724SOL    HW261141  11.244  -0.017  11.546 -1.4245  1.1372  1.3411
50725SOL     OW61142   2.158   1.513   7.455 -0.2124  0.3402 -0.2102
50725SOL    HW161143   2.231   1.460   7.421 -1.9864 -3.4258  1.2392
50725SOL    HW261144   2.181   1.530   7.546 -0.3647  0.6681 -0.2323
50726SOL     OW61145  12.171   5.551   6.760  0.5039  0.2114 -0.2463
50726SOL    HW161146  12.118   5.502   6.697  1.9925 -2.0828  0.1714
50726SOL    HW261147  12.107   5.595   6.816 -0.8925  2.1653 -3.0813
50727SOL     OW61148   2.925   7.593   3.773 -0.2211  0.1424 -0.5959
50727SOL    HW161149   2.846   7.550   3.807  0.5552 -0.8624 -0.0075
50727SOL    HW261150   2.895   7.640   3.695 -1.5085  0.2528 -0.0561
50728SOL     OW61151  10.950  11.625   2.698 -0.0698 -0.2320 -0.0195
50728SOL    HW161152  10.857  11.647   2.690 -0.1242  0.2039  1.4042
50728SOL    HW261153  10.989  11.702   2.739 -0.0466 -2.1514  4.0672
50729SOL     OW61154   0.682   8.553   3.795  0.1014  0.1205 -0.7266
50729SOL    HW161155   0.618   8.548   3.867 -0.5203 -0.3226 -1.2949
50729SOL    HW261156   0.767   8.545   3.839 -0.2705 -0.2310 -0.0416
50730SOL     OW61157   1.517  11.128   4.084  0.2175  0.3137 -0.0924
50730SOL    HW161158   1.514  11.072   4.161 -0.5731 -0.0482 -0.3693
50730SOL    HW261159   1.538  11.215   4.117 -0.5288  0.2454  0.5901
50731SOL     OW61160   3.012   5.307   2.268 -0.6158 -0.2672 -0.8299
50731SOL    HW161161   3.045   5.341   2.185  1.3956 -1.2870 -0.5135
50731SOL    HW261162   3.041   5.216   2.269 -0.7553 -0.3134  0.9274
50732SOL     OW61163   7.808  12.526   7.657 -0.1682 -0.1113  0.5096
50732SOL    HW161164   7.766  12.601   7.616 -0.3678  0.9500  2.5165
50732SOL    HW261165   7.901  12.546   7.655 -0.1874 -0.0073  0.6818
50733SOL     OW61166   9.144  10.763   2.660 -0.3416  0.0186  0.1936
50733SOL    HW161167   9.102  10.716   2.588  0.5547 -1.9589  0.8792
50733SOL    HW261168   9.086  10.749   2.735  0.5077 -1.0760  0.6824
50734SOL     OW61169   6.602   3.640   1.704 -0.0947 -0.8320  0.3143
50734SOL    HW161170   6.582   3.734   1.709 -0.6033 -0.9641  0.9602
50734SOL    HW261171   6.691   3.632   1.737 -0.3553 -0.6630  1.0905
50735SOL     OW61172   0.327   2.286   7.757 -0.1196 -0.2292 -0.0943
50735SOL    HW161173   0.317   2.233   7.836 -3.8096  0.8817  0.3681
50735SOL    HW261174   0.324   2.223   7.685  0.6055 -1.0213  0.5491
50736SOL     OW61175   2.427   5.585   1.191 -0.2444 -0.2222  0.0828
50736SOL    HW161176   2.420   5.550   1.102  0.1449 -0.4755  0.1492
50736SOL    HW261177   2.369   5.530   1.243 -0.2695 -0.2406  0.0358
50737SOL     OW61178   8.543   0.881   2.289  0.7300 -0.6954 -0.2795
50737SOL    HW161179   8.455   0.914   2.310  1.3943  2.6400 -2.0231
50737SOL    HW261180   8.590   0.883   2.372 -0.1722 -0.1666  0.2340
50738SOL     OW61181   5.273  11.505   1.691 -0.1926  0.2231  0.8482
50738SOL    HW161182   5.301  11.414   1.681  0.8884  0.4726  1.4181
50738SOL    HW261183   5.337  11.543   1.752 -1.1383  1.1386  1.2925
50739SOL     OW61184   1.121   3.457   4.261  0.0113  0.0780 -0.2638
50739SOL    HW161185   1.045   3.405   4.234  1.7198 -1.4469 -2.3997
50739SOL    HW261186   1.094   3.548   4.244 -1.3738 -0.4102 -0.8207
50740SOL     OW61187   4.375   2.488   5.389  0.1903  0.2610  0.5806
50740SOL    HW161188   4.447   2.544   5.361 -0.1346  0.0588 -0.6817
50740SOL    HW261189   4.417   2.405   5.411  0.4486  0.4312  0.7410
50741SOL     OW61190   8.562   1.250   9.552 -0.6194  0.0463  0.1176
50741SOL    HW161191   8.638   1.207   9.513 -0.3956  1.7550 -1.4614
50741SOL    HW261192   8.495   1.182   9.556  0.3883 -1.0010 -0.2072
50742SOL     OW61193   6.057   2.491   3.670 -0.3058  0.2801  0.1556
50742SOL    HW161194   6.026   2.541   3.746 -0.1210  0.0428  0.3881
50742SOL    HW261195   6.152   2.503   3.671 -0.3210  0.4524 -0.1658
50743SOL     OW61196   6.400   3.417   4.217  0.3129  0.0495  0.2799
50743SOL    HW161197   6.306   3.434   4.220 -0.1189 -1.9911 -0.4764
50743SOL    HW261198   6.410   3.328   4.250  1.7310 -0.5233 -1.5051
50744SOL     OW61199   3.137   7.596  11.246  0.0722  0.2873  0.6023
50744SOL    HW161200   3.099   7.667  11.195  0.6694  1.3187  1.5265
50744SOL    HW261201   3.226   7.587  11.212 -0.2487 -0.5840 -0.0460
50745SOL     OW61202   8.753   7.957   1.841 -0.2962  0.5928 -0.1308
50745SOL    HW161203   8.764   7.880   1.784 -2.1162  0.1115  0.0739
50745SOL    HW261204   8.658   7.972   1.841  0.0701  3.3599 -0.7926
50746SOL     OW61205   6.962   6.552  11.616  0.1285 -0.2933  0.3003
50746SOL    HW161206   6.940   6.642  11.592 -1.9114 -0.1030  2.4995
50746SOL    HW261207   7.054   6.556  11.641  0.2120  1.0573 -0.1289
50747SOL     OW61208  11.040  11.997  10.434 -0.2577 -0.0650 -0.2205
50747SOL    HW161209  11.057  12.018  10.342  0.1012 -1.2380 -0.4346
50747SOL    HW261210  11.118  11.949  10.462  1.1264  2.9591  1.6232
50748SOL     OW61211   6.235   4.094   5.583 -0.2357  0.4827 -0.0120
50748SOL    HW161212   6.186   4.074   5.503 -0.7263 -0.6159  0.5468
50748SOL    HW261213   6.273   4.010   5.610  2.0045  1.2959 -0.4323
50749SOL     OW61214   4.094   0.269   4.832  0.3823  0.0711 -0.1992
50749SOL    HW161215   4.095   0.173   4.835 -0.3210  0.0629 -0.0113
50749SOL    HW261216   4.035   0.294   4.903 -0.9454  0.5783 -1.4330
50750SOL     OW61217   3.762   5.391   9.882  0.0067 -0.5221  0.5228
50750SOL    HW161218   3.696   5.321   9.880 -0.5432 -0.0995  2.2464
50750SOL    HW261219   3.839   5.352   9.839 -0.1851 -2.3157  1.6917
50751SOL     OW61220   7.782   5.917  10.012  0.4713  0.0487 -0.0082
50751SOL    HW161221   7.848   5.960   9.958  1.1026 -0.9316 -0.0472
50751SOL    HW261222   7.786   5.825   9.986 -1.2401  0.0252 -0.3435
50752SOL     OW61223  10.192   9.134   4.846 -1.0782 -0.0259  0.1724
50752SOL    HW161224  10.098   9.138   4.827 -1.0346  2.4606  0.2406
50752SOL    HW261225  10.219   9.225   4.855  1.5000 -0.6459 -0.4684
50753SOL     OW61226   8.115   2.063   8.775  0.0197 -0.3748  0.0381
50753SOL    HW161227   8.061   2.095   8.704 -0.1754  1.4193  0.9510
50753SOL    HW261228   8.118   2.135   8.838  0.2187 -1.8728  1.8371
50754SOL     OW61229   1.352   2.614  12.192 -0.1451 -0.9248  0.8101
50754SOL    HW161230   1.310   2.662  12.120 -0.4143 -1.3669  0.6723
50754SOL    HW261231   1.337   2.669  12.269  2.9236  1.2365  0.0520
50755SOL     OW61232  11.064   5.158   1.799  0.0632 -0.0662 -0.0701
50755SOL    HW161233  11.023   5.233   1.843 -1.8112 -0.5905 -0.8176
50755SOL    HW261234  11.062   5.180   1.706  2.5640  0.3575 -0.0797
50756SOL     OW61235   7.891   5.903   7.754  0.0937 -0.2235  0.5336
50756SOL    HW161236   7.884   5.954   7.674 -1.1463 -1.4590 -0.1943
50756SOL    HW261237   7.972   5.933   7.795  0.3086  1.0349 -0.7422
50757SOL     OW61238   3.557   6.958  10.549  0.3086 -0.3568  0.2694
50757SOL    HW161239   3.484   6.896  10.560  1.0572 -1.3925 -0.4367
50757SOL    HW261240   3.607   6.923  10.475  1.2467  0.6160  0.4262
50758SOL     OW61241   9.057   7.736   7.707  0.1662  0.6714  0.5090
50758SOL    HW161242   8.980   7.792   7.698 -0.0486  0.4462  0.8941
50758SOL    HW261243   9.049   7.672   7.637 -0.4074  0.1789  1.0114
50759SOL     OW61244  10.119  12.474   2.481  0.0761  0.0706  0.4477
50759SOL    HW161245  10.053  12.543   2.476 -0.1979 -0.2434 -0.6728
50759SOL    HW261246  10.195  12.510   2.435 -0.0803 -0.3786 -0.1739
50760SOL     OW61247   0.937   4.642   9.474 -0.4154 -0.2101  0.3106
50760SOL    HW161248   0.875   4.698   9.426  0.5112 -0.5160 -1.3199
50760SOL    HW261249   1.004   4.620   9.409 -0.0008 -2.0471  1.3156
50761SOL     OW61250   8.236   4.386   0.961  0.0531 -0.7668 -0.5141
50761SOL    HW161251   8.222   4.480   0.971 -1.5526 -0.9472 -0.7774
50761SOL    HW261252   8.211   4.348   1.046  0.8277 -0.9626 -0.3606
50762SOL     OW61253   3.330   8.621   9.047 -0.2201  0.3013 -0.5581
50762SOL    HW161254   3.328   8.656   9.136 -0.8397 -1.0132 -0.0346
50762SOL    HW261255   3.321   8.699   8.991  1.0735  1.2441  0.4703
50763SOL     OW61256  10.108   9.137  11.588 -0.1376  0.0582 -0.0181
50763SOL    HW161257  10.093   9.192  11.665 -0.0441 -0.3863  0.3222
50763SOL    HW261258  10.132   9.199  11.518 -2.7695  0.7582 -0.4195
50764SOL     OW61259   7.153  11.673   9.092 -0.6254  0.3351 -0.1725
50764SOL    HW161260   7.173  11.760   9.060  1.5680  0.1079  0.3485
50764SOL    HW261261   7.118  11.687   9.180  1.2358  0.6954  0.5624
50765SOL     OW61262   6.764   6.192  10.539 -0.5639 -0.2990  0.1316
50765SOL    HW161263   6.694   6.196  10.605 -1.4870 -0.3878 -0.8244
50765SOL    HW261264   6.844   6.211  10.589 -1.2552 -0.1862  1.2468
50766SOL     OW61265   5.276  10.207   2.905 -0.2199 -0.3382 -0.3743
50766SOL    HW161266   5.216  10.136   2.929 -0.1669 -0.3834 -0.3738
50766SOL    HW261267   5.228  10.258   2.840 -0.1439 -0.5496 -0.6016
50767SOL     OW61268   9.114  12.158   8.562  0.8663 -0.3826 -0.0797
50767SOL    HW161269   9.054  12.232   8.557  0.7341 -0.4013  0.9165
50767SOL    HW261270   9.194  12.195   8.601  0.9329 -0.6831  0.0685
50768SOL     OW61271  11.412  11.331   4.122 -0.6272  0.0339 -0.1267
50768SOL    HW161272  11.381  11.311   4.034 -2.6336 -2.0937  0.9311
50768SOL    HW261273  11.333  11.358   4.170  0.3152  0.6432  1.1542
50769SOL     OW61274  12.174   5.187   8.204  0.5102  0.3119  0.4220
50769SOL    HW161275  12.227   5.179   8.283 -1.3086  1.1929  1.7970
50769SOL    HW261276  12.210   5.264   8.159 -1.3392  2.8505  2.8956
50770SOL     OW61277  10.059   3.022   9.918  0.2137 -0.7360  0.4250
50770SOL    HW161278  10.018   2.994  10.000 -2.3113  2.2794  0.3982
50770SOL    HW261279  10.023   2.963   9.851 -0.8597 -0.7340  0.9819
50771SOL     OW61280  10.663   3.944  11.078  0.3285  0.3089  0.0100
50771SOL    HW161281  10.711   3.876  11.125 -0.7271 -0.8575 -0.5622
50771SOL    HW261282  10.731   3.996  11.035  1.2503  0.7381  1.8832
50772SOL     OW61283  10.785   3.885   0.326  0.5134  0.4381 -0.1005
50772SOL    HW161284  10.710   3.941   0.349  0.1508 -0.2575  0.4564
50772SOL    HW261285  10.745   3.805   0.292  1.0378  0.9741 -2.1110
50773SOL     OW61286   5.437  11.180   1.080  0.8326  0.0591 -0.1713
50773SOL    HW161287   5.412  11.089   1.094  0.7678 -0.0721 -1.0524
50773SOL    HW261288   5.530  11.183   1.101  0.8482 -0.2302 -0.1944
50774SOL     OW61289   9.928   8.379   5.511 -0.5607  0.5980 -0.2862
50774SOL    HW161290   9.869   8.390   5.585 -0.9288 -3.2326  0.1684
50774SOL    HW261291  10.016   8.388   5.549 -0.7080 -2.3100  0.9767
50775SOL     OW61292  11.360  10.468   6.821  1.0809  0.6307  0.4412
50775SOL    HW161293  11.286  10.478   6.761  1.9217 -1.5497 -1.0932
50775SOL    HW261294  11.321  10.461   6.908 -0.5106 -0.3294 -0.3172
50776SOL     OW61295   0.916   4.963   6.016 -0.3571  0.0873 -0.0797
50776SOL    HW161296   0.907   5.050   5.977 -0.6262 -1.0751 -2.8113
50776SOL    HW261297   0.831   4.946   6.057 -0.7124  0.6332 -0.5769
50777SOL     OW61298   2.934   4.892   6.557  0.3294  0.7040 -0.1019
50777SOL    HW161299   2.868   4.917   6.622  1.1064 -0.5683  1.2199
50777SOL    HW261300   2.883   4.873   6.478 -0.7610  1.0560  0.4953
50778SOL     OW61301   9.654  10.676   4.195 -0.2583  0.3122  0.4435
50778SOL    HW161302   9.725  10.621   4.161 -1.0325 -0.3436 -0.1475
50778SOL    HW261303   9.690  10.715   4.274  0.7125 -0.1335  0.2360
50779SOL     OW61304   7.061   0.836   1.142 -0.5028  0.0335  0.3151
50779SOL    HW161305   7.027   0.896   1.075 -2.4553 -0.7816  0.5168
50779SOL    HW261306   7.117   0.775   1.094 -0.4568  0.5317 -0.2757
50780SOL     OW61307   9.285   2.745  12.222 -0.4388  0.0318 -0.0533
50780SOL    HW161308   9.371   2.775  12.194  1.1833 -1.8092  2.5484
50780SOL    HW261309   9.232   2.745  12.142  1.8240  1.5986 -1.6496
50781SOL     OW61310   9.378  11.012  12.430 -0.4223  0.6247  0.0978
50781SOL    HW161311   9.412  10.924  12.416 -0.9087  0.3593  0.5909
50781SOL    HW261312   9.327  11.006  12.510 -1.1456  1.1664 -0.3102
50782SOL     OW61313   8.921   4.242   4.895 -0.0893 -0.2493 -0.2551
50782SOL    HW161314   8.977   4.287   4.959 -1.6271 -0.6314  1.4143
50782SOL    HW261315   8.912   4.305   4.823 -0.3124  1.2156  1.0032
50783SOL     OW61316   5.590   2.786   8.565  0.2518 -0.8040  0.0657
50783SOL    HW161317   5.567   2.714   8.507 -0.4252 -0.5768  0.0440
50783SOL    HW261318   5.542   2.769   8.646  0.9274 -0.9407  0.4510
50784SOL     OW61319   4.766   6.892   8.890  1.1242 -0.0324 -0.2220
50784SOL    HW161320   4.806   6.891   8.977  0.5647  0.4188  0.0477
50784SOL    HW261321   4.840   6.896   8.830  1.5023  0.5920  0.2638
50785SOL     OW61322   0.506   6.445   4.080  0.1919  0.0341 -0.3955
50785SOL    HW161323   0.411   6.455   4.085  0.1848 -0.6943  1.8106
50785SOL    HW261324   0.522   6.355   4.107  1.4305 -0.5037 -2.6459
50786SOL     OW61325   5.801   2.360   7.097 -0.2288 -0.0928 -0.2801
50786SOL    HW161326   5.852   2.432   7.135  0.1738 -0.3916 -0.2445
50786SOL    HW261327   5.856   2.282   7.110 -0.3721 -0.3028 -0.9043
50787SOL     OW61328   4.773   1.954   2.229  0.1344  0.6559  0.3216
50787SOL    HW161329   4.792   1.954   2.135 -0.7212 -0.3707  0.1352
50787SOL    HW261330   4.855   1.983   2.270  0.9992 -0.3096 -0.6599
50788SOL     OW61331  11.605   6.212  10.671 -0.3285  0.4637 -0.2693
50788SOL    HW161332  11.545   6.277  10.636 -1.9243  0.1604  1.7639
50788SOL    HW261333  11.621   6.153  10.597 -0.9772  1.6316 -1.3858
50789SOL     OW61334  10.639   8.697   7.432  0.2384  0.6074 -0.3307
50789SOL    HW161335  10.731   8.677   7.413  0.8225  2.5892  0.1650
50789SOL    HW261336  10.623   8.659   7.518  0.6029  0.3192 -0.3879
50790SOL     OW61337   8.931  12.042   0.749  0.4116  0.0753  0.1633
50790SOL    HW161338   8.993  11.974   0.721 -0.2239 -0.6084  0.3686
50790SOL    HW261339   8.875  12.056   0.673  0.4195  0.2298  0.1868
50791SOL     OW61340   9.731   2.356  10.295 -0.3671  0.2487 -0.0574
50791SOL    HW161341   9.706   2.272  10.256  1.7703  0.3626 -1.8750
50791SOL    HW261342   9.822   2.368  10.269 -0.1231  2.3953  1.5290
50792SOL     OW61343   3.111   0.506  11.683 -0.1986 -0.0065  0.2050
50792SOL    HW161344   3.102   0.469  11.770 -1.9949 -0.5869 -0.1835
50792SOL    HW261345   3.133   0.432  11.627 -0.7231  0.0551 -0.0904
50793SOL     OW61346   4.198   5.417   4.169  0.6855  0.1662  0.4256
50793SOL    HW161347   4.175   5.413   4.262  1.8241 -0.7686  0.6870
50793SOL    HW261348   4.288   5.385   4.164  0.4727 -0.3146 -1.0631
50794SOL     OW61349   1.276   8.449   8.560  0.1391 -0.4661  0.0907
50794SOL    HW161350   1.334   8.399   8.617  0.9972 -1.5852 -1.6663
50794SOL    HW261351   1.189   8.437   8.598  0.7960 -0.2253  1.7718
50795SOL     OW61352   7.818   4.053  11.063 -0.4358 -0.0872  0.0956
50795SOL    HW161353   7.773   4.071  11.146 -0.0748 -2.5070  0.8937
50795SOL    HW261354   7.767   3.983  11.023  0.1171  0.2016 -1.1635
50796SOL     OW61355   9.913   0.816   0.721  0.3059  0.0923 -0.1842
50796SOL    HW161356   9.880   0.740   0.769 -2.3974 -0.9336 -3.2378
50796SOL    HW261357   9.851   0.886   0.742  1.4231  0.8185  0.7957
50797SOL     OW61358   8.778   0.248   1.118 -0.0426  0.8701  0.3597
50797SOL    HW161359   8.824   0.298   1.186  2.3589  2.2835 -2.0608
50797SOL    HW261360   8.820   0.162   1.119 -0.7892  0.5012  1.3375
50798SOL     OW61361  11.082   9.620   4.349  0.6245 -0.3763 -0.0259
50798SOL    HW161362  11.133   9.695   4.382  1.0883 -0.0202 -1.4608
50798SOL    HW261363  10.992   9.652   4.346  0.6362 -0.2843  0.5170
50799SOL     OW61364   3.023   6.196   4.663  0.3377 -0.8211  0.5670
50799SOL    HW161365   2.936   6.235   4.659 -0.5368 -2.3566  2.6387
50799SOL    HW261366   3.083   6.270   4.672 -0.7416  0.2441 -0.5833
50800SOL     OW61367   4.949   3.319   0.789  0.7073  0.1321  0.3068
50800SOL    HW161368   4.882   3.275   0.736 -0.4248  1.0910  0.9017
50800SOL    HW261369   5.007   3.360   0.724  1.8175 -2.1709 -0.2694
50801SOL     OW61370   4.234   0.632   5.991  0.0775 -0.1557 -0.6071
50801SOL    HW161371   4.312   0.685   6.007  0.6032 -0.8613 -0.7940
50801SOL    HW261372   4.162   0.695   5.991  0.0287  0.0921  3.8532
50802SOL     OW61373   6.578   5.798   3.057 -0.0640 -0.3740 -0.0196
50802SOL    HW161374   6.573   5.837   2.970 -0.5130  0.0279  0.1803
50802SOL    HW261375   6.515   5.848   3.109 -0.9511 -1.6307  0.1476
50803SOL     OW61376   2.626  12.273   9.527  0.1979 -0.3734 -0.4474
50803SOL    HW161377   2.629  12.368   9.514 -1.4974 -0.4041 -1.4224
50803SOL    HW261378   2.532  12.254   9.535  0.5509 -1.8873  0.4761
50804SOL     OW61379  10.712   5.176   5.124  0.3177  0.7034 -0.4007
50804SOL    HW161380  10.776   5.215   5.065  0.5069  0.2260 -0.5172
50804SOL    HW261381  10.709   5.236   5.199  1.4270  0.3660 -0.0765
50805SOL     OW61382   2.125   6.307   6.894 -0.1248 -0.7373 -0.2868
50805SOL    HW161383   2.185   6.291   6.967 -1.4560 -2.1093  0.5888
50805SOL    HW261384   2.173   6.278   6.816  0.8021 -0.6083  0.2284
50806SOL     OW61385   0.315   3.402   3.720 -1.0433 -0.0567  0.0877
50806SOL    HW161386   0.255   3.465   3.760 -0.9932 -1.2821  2.2808
50806SOL    HW261387   0.396   3.452   3.705 -0.7265  0.2956  2.5178
50807SOL     OW61388  11.591   9.801   7.287  0.2522  0.4181  0.0501
50807SOL    HW161389  11.618   9.793   7.196 -2.8390 -2.1595 -0.8395
50807SOL    HW261390  11.544   9.884   7.292  1.6504  1.2446 -0.3040
50808SOL     OW61391   9.718   6.562   8.938 -0.3116 -0.8673 -0.0552
50808SOL    HW161392   9.714   6.492   8.873 -0.3954 -1.5935  0.7075
50808SOL    HW261393   9.660   6.630   8.905 -0.6984 -1.4187 -0.5132
50809SOL     OW61394  11.229   7.081   5.489  0.4146  0.1243  0.6845
50809SOL    HW161395  11.265   7.169   5.488 -0.0471  0.3128 -0.2068
50809SOL    HW261396  11.287   7.032   5.547  1.8845  0.5186 -0.3819
50810SOL     OW61397  12.032   6.954   0.520 -0.3810 -0.1866  0.2367
50810SOL    HW161398  12.036   6.873   0.571 -2.6059 -0.2241  0.4404
50810SOL    HW261399  12.079   7.018   0.574  0.8657 -1.1604  0.3579
50811SOL     OW61400   7.190   5.320   7.673 -0.0358 -0.0056  0.3214
50811SOL    HW161401   7.263   5.271   7.635 -0.4020  0.9951 -1.7755
50811SOL    HW261402   7.227   5.406   7.694 -0.7108  0.7393 -1.3744
50812SOL     OW61403   2.588   7.103   4.918  0.4659  0.0859  0.2464
50812SOL    HW161404   2.521   7.049   4.876  0.6046  1.0834 -1.3184
50812SOL    HW261405   2.583   7.079   5.011 -0.5907 -1.3985 -0.1552
50813SOL     OW61406   2.530   2.380   4.057 -0.1185 -0.3212  0.4642
50813SOL    HW161407   2.593   2.452   4.064 -0.0314 -0.4872  1.5852
50813SOL    HW261408   2.582   2.301   4.076 -0.2227 -0.6822 -0.6911
50814SOL     OW61409  10.531   6.384   4.111 -0.1304  0.3429  0.2434
50814SOL    HW161410  10.529   6.339   4.195 -0.3149  1.0795  0.6450
50814SOL    HW261411  10.461   6.450   4.117 -0.1281  0.4204 -0.4727
50815SOL     OW61412  11.772   8.606   6.447 -0.5154 -0.1940  0.1389
50815SOL    HW161413  11.726   8.592   6.365 -0.1502 -1.1856  0.0888
50815SOL    HW261414  11.724   8.678   6.489 -2.2255 -1.2810  0.1688
50816SOL     OW61415   4.746   9.954   4.677 -0.5428  0.4323 -0.0476
50816SOL    HW161416   4.695   9.872   4.672  1.0743 -0.6149  0.0097
50816SOL    HW261417   4.760   9.979   4.586  0.5450 -0.4009 -0.1271
50817SOL     OW61418   9.667   1.978  11.406 -0.2794  0.1497 -0.0396
50817SOL    HW161419   9.612   1.930  11.468  0.5775 -0.0647  0.5686
50817SOL    HW261420   9.756   1.959  11.434  0.0927  1.2360 -0.4572
50818SOL     OW61421   7.531   7.781   2.086  0.4244  0.6788  0.3871
50818SOL    HW161422   7.489   7.695   2.085  1.8899 -0.0949 -1.3792
50818SOL    HW261423   7.460   7.844   2.090 -0.8910 -0.5733 -1.6501
50819SOL     OW61424  11.384   2.363   4.878 -0.1387 -0.2632  0.8567
50819SOL    HW161425  11.347   2.286   4.837  0.0870  0.6242 -1.1320
50819SOL    HW261426  11.335   2.373   4.960  0.7647 -3.2492  1.9005
50820SOL     OW61427   2.080   0.553   5.323 -0.2550  0.3754  0.8110
50820SOL    HW161428   2.053   0.643   5.305  0.7248  0.5531  0.1476
50820SOL    HW261429   2.089   0.513   5.237  2.8769  0.7385  0.8575
50821SOL     OW61430   7.053   2.270   0.872 -0.0961 -0.3178 -0.1885
50821SOL    HW161431   7.032   2.262   0.965  1.5103 -0.2897  0.1978
50821SOL    HW261432   6.991   2.211   0.829  0.1903 -1.5805  1.0407
50822SOL     OW61433   6.514   7.339  11.857 -0.4080  0.2673  0.4262
50822SOL    HW161434   6.474   7.394  11.924  1.5218  2.4595 -0.0725
50822SOL    HW261435   6.447   7.329  11.790 -0.7660  2.2289  0.4521
50823SOL     OW61436   7.289   2.927   2.321  0.3106 -0.2628  0.4218
50823SOL    HW161437   7.347   3.003   2.316  0.8331 -0.7055 -0.6372
50823SOL    HW261438   7.284   2.906   2.414  0.8007  0.5820  0.6481
50824SOL     OW61439  11.005   0.823   4.332 -0.0910  0.5104  0.0759
50824SOL    HW161440  10.915   0.834   4.362 -1.0584  0.3700 -2.5181
50824SOL    HW261441  11.024   0.730   4.347  0.8199  1.1035  3.4142
50825SOL     OW61442   7.100   9.644   5.947  0.1640  0.4225 -0.0757
50825SOL    HW161443   7.038   9.679   6.010 -0.2016 -3.1198  1.7837
50825SOL    HW261444   7.054   9.648   5.863 -1.1951  0.9842  0.6742
50826SOL     OW61445   4.983   0.559   0.986  0.5806  0.1032  0.3484
50826SOL    HW161446   5.061   0.596   0.944  0.0339  0.0488 -0.7592
50826SOL    HW261447   4.936   0.516   0.915  1.0800 -2.6148  1.5296
50827SOL     OW61448   2.997   3.389   3.904 -0.0816 -0.1575  0.4753
50827SOL    HW161449   3.075   3.336   3.921  0.8188  1.0337  0.2419
50827SOL    HW261450   2.925   3.326   3.902  0.8855 -1.3142  0.5674
50828SOL     OW61451   1.522   8.311   1.661  0.5508 -0.0645  0.8390
50828SOL    HW161452   1.544   8.403   1.676 -1.1521  0.8660 -1.5981
50828SOL    HW261453   1.434   8.314   1.623  0.8135 -2.6420 -0.1382
50829SOL     OW61454  11.180  10.961   0.065  0.1164  0.2153  0.3446
50829SOL    HW161455  11.182  10.902   0.141  0.4331 -0.7794 -0.4046
50829SOL    HW261456  11.088  10.963   0.038 -0.0481  0.8357  0.9534
50830SOL     OW61457   0.442   1.276  10.685  0.2846  0.4869  0.4210
50830SOL    HW161458   0.398   1.201  10.726 -0.6392  0.7770 -0.0140
50830SOL    HW261459   0.372   1.323  10.640  0.7895  1.7935  0.9448
50831SOL     OW61460   7.498   4.539   8.626 -0.1041  0.0945  0.5116
50831SOL    HW161461   7.426   4.585   8.583 -0.2069 -0.3996  0.1546
50831SOL    HW261462   7.525   4.472   8.564  1.2748  0.8524  0.2577
50832SOL     OW61463   5.154  12.263   0.101 -0.1144  0.0587 -0.3500
50832SOL    HW161464   5.058  12.255   0.106 -0.1428  0.9700  3.1909
50832SOL    HW261465   5.176  12.323   0.173  3.0672  0.7716 -1.7725
50833SOL     OW61466   0.879  10.084   7.071 -0.3444  0.3810 -0.0738
50833SOL    HW161467   0.888  10.145   6.998 -0.5969  0.9326  0.3507
50833SOL    HW261468   0.883   9.997   7.030 -2.4378  0.6646 -1.0172
50834SOL     OW61469   8.016   3.231   9.760 -0.1513 -0.2287 -0.5356
50834SOL    HW161470   8.006   3.208   9.667  2.2436 -1.7628 -0.4930
50834SOL    HW261471   8.007   3.148   9.807 -0.0305  0.3164  0.4796
50835SOL     OW61472   5.119   2.475   7.430 -0.0737 -0.2524  0.1297
50835SOL    HW161473   5.131   2.380   7.439 -2.8455 -0.6495  0.3777
50835SOL    HW261474   5.037   2.485   7.383  0.2883  2.0599 -0.1502
50836SOL     OW61475   9.115   4.642   9.698 -0.9947  0.1583  0.1133
50836SOL    HW161476   9.143   4.710   9.759 -0.0866 -0.9230  0.9495
50836SOL    HW261477   9.161   4.662   9.617 -1.7684  1.2801 -0.0790
50837SOL     OW61478   5.099   0.540   8.451  0.1846  0.7660 -0.1252
50837SOL    HW161479   5.074   0.572   8.538  0.8558  1.1793 -0.0759
50837SOL    HW261480   5.018   0.504   8.414  0.1825 -0.7630  1.2513
50838SOL     OW61481   7.004  11.548   7.425 -0.1584  0.1912  0.3859
50838SOL    HW161482   7.099  11.560   7.434  0.1617 -0.2372 -1.9642
50838SOL    HW261483   6.969  11.637   7.427  0.2080  0.3390  1.6301
50839SOL     OW61484  10.707   3.004   3.592 -0.2062 -0.1891 -0.1119
50839SOL    HW161485  10.749   3.075   3.639  0.1919 -0.6876  0.3063
50839SOL    HW261486  10.761   2.992   3.513 -1.0083  0.8018 -0.8304
50840SOL     OW61487   3.994  11.927   5.087 -0.6438 -0.7549  0.0202
50840SOL    HW161488   4.011  11.907   4.995 -0.5733  0.8670 -0.3526
50840SOL    HW261489   3.965  11.844   5.125  0.4609 -1.7346 -1.1778
50841SOL     OW61490   3.857  10.958   0.132 -0.0705  0.2813 -0.0038
50841SOL    HW161491   3.809  10.929   0.054  0.0061  1.3218 -0.4482
50841SOL    HW261492   3.791  11.002   0.185  0.3173  1.4736 -0.4902
50842SOL     OW61493   7.152  10.090   2.689  0.3027 -0.1633 -0.2023
50842SOL    HW161494   7.145  10.015   2.748  0.1078 -1.5212 -1.8525
50842SOL    HW261495   7.142  10.166   2.745 -5.9397 -1.2749  0.9935
50843SOL     OW61496   9.710   6.485   9.186 -0.0962  0.2500 -0.8418
50843SOL    HW161497   9.703   6.506   9.093 -0.2257  0.3322 -0.8149
50843SOL    HW261498   9.704   6.571   9.230  0.4174  0.2547 -0.7839
50844SOL     OW61499   6.592   8.543   8.913 -0.1060  1.0020  0.1341
50844SOL    HW161500   6.504   8.569   8.884 -0.3983  2.4024  2.1000
50844SOL    HW261501   6.580   8.454   8.947 -0.8041  1.2503  0.5615
50845SOL     OW61502   0.793   4.968  10.470  0.4058  0.2375  0.4304
50845SOL    HW161503   0.745   4.886  10.484 -0.5916  0.7885  0.2889
50845SOL    HW261504   0.875   4.941  10.427  0.0172 -0.6680  0.2453
50846SOL     OW61505   8.407  12.152   5.802  0.8500  0.1077  0.0905
50846SOL    HW161506   8.447  12.190   5.724  2.8594 -0.9931  0.5227
50846SOL    HW261507   8.334  12.210   5.823 -0.3972 -0.1240 -3.1657
50847SOL     OW61508   2.781  10.331   0.100  0.2174  0.2436 -0.0365
50847SOL    HW161509   2.753  10.412   0.142  1.3334  0.8553 -0.4173
50847SOL    HW261510   2.830  10.360   0.022  2.8947 -0.6425  1.1721
50848SOL     OW61511   6.972   5.824   2.772  0.0482 -0.0405  0.1774
50848SOL    HW161512   7.062   5.853   2.756  0.2772 -0.4550  0.6761
50848SOL    HW261513   6.919   5.877   2.713  0.5763  0.5186  0.1901
50849SOL     OW61514   6.231  10.599   9.248 -0.0750 -0.5393 -0.5397
50849SOL    HW161515   6.137  10.613   9.233 -0.1786 -0.8613 -0.2079
50849SOL    HW261516   6.272  10.616   9.163 -0.4127 -0.2022 -0.6366
50850SOL     OW61517  10.242   4.132  11.486  0.4153  0.1210 -0.6814
50850SOL    HW161518  10.202   4.194  11.426 -1.7703 -0.0702  0.4886
50850SOL    HW261519  10.275   4.062  11.430  1.4683  1.5223 -1.8866
50851SOL     OW61520   7.964  12.091   4.256 -0.6436  0.6762  0.5036
50851SOL    HW161521   8.031  12.023   4.257  0.1253  1.3325  3.1887
50851SOL    HW261522   7.982  12.141   4.177 -0.9604 -1.8824 -1.3129
50852SOL     OW61523   7.934   1.073   2.334 -0.0020  0.7469 -0.0757
50852SOL    HW161524   8.019   1.087   2.290 -0.3454  0.0527 -0.9944
50852SOL    HW261525   7.870   1.079   2.263 -0.7116  1.0511  0.5804
50853SOL     OW61526  10.768   5.155   8.697 -0.1623 -0.4889  0.0050
50853SOL    HW161527  10.717   5.074   8.699  0.0948 -0.6574  1.4211
50853SOL    HW261528  10.741   5.202   8.776 -0.1016  0.6876 -0.6487
50854SOL     OW61529  11.807   5.119   1.136  0.1494  0.7538  0.3741
50854SOL    HW161530  11.751   5.126   1.058 -0.4268  0.8282  0.7811
50854SOL    HW261531  11.750   5.149   1.208  0.6000  0.4722  0.8512
50855SOL     OW61532   0.974   8.022   9.424  0.2873 -0.2553 -0.0249
50855SOL    HW161533   1.043   7.959   9.446  1.1531  1.4656  2.8089
50855SOL    HW261534   0.909   8.012   9.494 -1.1701 -0.1776 -1.3216
50856SOL     OW61535   3.701   5.902   8.661  0.0493 -0.4406 -0.0062
50856SOL    HW161536   3.796   5.899   8.671  0.1597 -0.5353 -0.9740
50856SOL    HW261537   3.681   5.994   8.646  0.2225 -0.6575 -1.7385
50857SOL     OW61538   7.826   0.196   9.480 -0.0716 -0.3540 -0.0103
50857SOL    HW161539   7.840   0.274   9.426 -0.5359 -0.0715  0.2679
50857SOL    HW261540   7.890   0.133   9.448  1.4023  0.6677  0.8291
50858SOL     OW61541   4.370   6.035  10.583 -0.0460 -0.8285 -0.1060
50858SOL    HW161542   4.300   5.995  10.635  0.6482 -0.3749  1.2207
50858SOL    HW261543   4.395   6.113  10.632  1.4515 -1.0228 -0.5094
50859SOL     OW61544   9.143   0.209   9.571 -0.1328 -0.3380 -0.5864
50859SOL    HW161545   9.141   0.214   9.475 -1.6414  1.3379 -0.5155
50859SOL    HW261546   9.058   0.175   9.596 -0.1267  0.1760  0.1877
50860SOL     OW61547  10.600   9.589   9.788  0.2233  0.0330  0.3245
50860SOL    HW161548  10.526   9.531   9.770 -0.2224 -0.6192  3.6007
50860SOL    HW261549  10.572   9.641   9.863  1.3861  3.1724 -1.2601
50861SOL     OW61550  12.535   8.258   8.737  0.3919 -0.2495 -0.4519
50861SOL    HW161551  12.527   8.352   8.722  1.3429  0.0207  0.5718
50861SOL    HW261552  12.476   8.240   8.811  0.8358 -0.2830 -0.0964
50862SOL     OW61553   4.312   0.583   7.897 -0.4146  0.2141 -0.3226
50862SOL    HW161554   4.356   0.578   7.982 -1.0241 -1.6205 -0.0788
50862SOL    HW261555   4.246   0.651   7.909 -1.5028 -1.0266  1.2046
50863SOL     OW61556   6.643   1.108   9.921 -0.5568  0.3141  0.2937
50863SOL    HW161557   6.627   1.073   9.834  0.4522 -0.5689  0.4455
50863SOL    HW261558   6.619   1.037   9.981  2.9528 -0.8673  0.5562
50864SOL     OW61559   0.854   4.143   4.790  0.0438  0.3035 -0.6745
50864SOL    HW161560   0.883   4.123   4.879 -2.9265 -0.3990  0.2287
50864SOL    HW261561   0.826   4.058   4.755  0.1007  0.7711 -1.8892
50865SOL     OW61562  10.523  10.096   5.427  0.3323  0.5823  0.2766
50865SOL    HW161563  10.459  10.150   5.382  0.1504  0.5952  0.5442
50865SOL    HW261564  10.542  10.025   5.366  0.0132  0.5434  0.2208
50866SOL     OW61565   9.389  11.404   2.143  0.1551 -0.5880 -0.3039
50866SOL    HW161566   9.301  11.383   2.112  0.4791 -0.3977 -1.3711
50866SOL    HW261567   9.438  11.322   2.135  0.1915 -0.5872 -0.1097
50867SOL     OW61568   5.377   0.747   0.366 -0.4304 -0.7742 -0.7884
50867SOL    HW161569   5.397   0.709   0.280 -0.0622  0.7700 -1.4099
50867SOL    HW261570   5.332   0.829   0.346 -0.2882 -0.3611  0.4995
50868SOL     OW61571   1.024   0.642   7.322 -0.4037 -0.2826 -0.0262
50868SOL    HW161572   0.938   0.601   7.327 -0.0940 -0.8780  0.8070
50868SOL    HW261573   1.076   0.595   7.388  0.5980 -0.0393 -0.6195
50869SOL     OW61574   9.913   9.712   6.207  0.0800  0.5254 -0.0750
50869SOL    HW161575   9.876   9.777   6.266 -0.2211  2.2037 -1.9806
50869SOL    HW261576   9.962   9.763   6.142  0.6433 -1.2176 -1.1110
50870SOL     OW61577   4.342   1.436   2.701  0.2231  0.3347  0.6205
50870SOL    HW161578   4.290   1.491   2.642  1.5170  3.4658  2.1821
50870SOL    HW261579   4.432   1.466   2.689  0.5748  0.9228  3.8717
50871SOL     OW61580   9.645   2.979   6.362  0.5479  0.0166 -0.2502
50871SOL    HW161581   9.695   3.043   6.414 -0.7514  0.9856 -0.1267
50871SOL    HW261582   9.673   2.995   6.272  1.5356 -0.4727 -0.0391
50872SOL     OW61583   9.486   9.201   7.694  0.0513  0.5005  0.2560
50872SOL    HW161584   9.515   9.160   7.613  0.3352 -0.9154  1.0389
50872SOL    HW261585   9.398   9.232   7.675  0.2097  0.4201 -0.6624
50873SOL     OW61586   2.339   5.104   4.617 -0.6016  0.5781  0.4415
50873SOL    HW161587   2.283   5.027   4.606 -1.7086  1.6044 -1.5054
50873SOL    HW261588   2.420   5.080   4.571 -0.1866 -0.1203  1.4943
50874SOL     OW61589   4.274   3.383   4.055 -0.3474  0.2853 -0.2766
50874SOL    HW161590   4.342   3.322   4.026 -2.4382 -1.3887 -1.9592
50874SOL    HW261591   4.308   3.469   4.031  1.9845 -0.2563  0.7087
50875SOL     OW61592   4.355  11.849   4.801 -0.3264  0.0768 -0.5081
50875SOL    HW161593   4.337  11.926   4.747 -0.2098 -0.3863 -1.2167
50875SOL    HW261594   4.289  11.785   4.773 -1.4759  0.4449  1.2039
50876SOL     OW61595   7.434   2.680   4.167  0.3779  0.1475  0.6548
50876SOL    HW161596   7.452   2.600   4.118 -2.1194 -0.5951  0.7753
50876SOL    HW261597   7.443   2.751   4.103  1.5530 -0.3141  0.2867
50877SOL     OW61598  10.570   9.071   2.505 -0.4784 -0.1979  0.0849
50877SOL    HW161599  10.486   9.029   2.489 -0.7101  1.1310 -2.7028
50877SOL    HW261600  10.564   9.102   2.595 -1.4304 -3.3472  1.2502
50878SOL     OW61601  11.614   5.137  11.046 -0.3423  0.3614  0.2586
50878SOL    HW161602  11.610   5.227  11.013 -0.8545  0.5064  0.7053
50878SOL    HW261603  11.592   5.083  10.970 -2.1924  0.7238  0.4683
50879SOL     OW61604   0.835   5.419   0.102 -0.4061 -0.5675  0.0707
50879SOL    HW161605   0.921   5.379   0.099 -1.3276 -2.6314 -0.6983
50879SOL    HW261606   0.801   5.398   0.189 -1.5926 -3.2145 -0.9229
50880SOL     OW61607   1.379   5.321   7.090 -0.1006 -0.3724 -0.5800
50880SOL    HW161608   1.360   5.385   7.021  0.2702  0.5909  0.1792
50880SOL    HW261609   1.411   5.244   7.044 -0.8094 -0.1157 -1.5372
50881SOL     OW61610   1.484   2.852   9.269  0.5616  0.0085  0.0428
50881SOL    HW161611   1.474   2.821   9.179 -2.1245 -0.1447  0.3009
50881SOL    HW261612   1.512   2.943   9.261  0.7864 -0.1437 -0.9309
50882SOL     OW61613   7.771   0.277   0.307  0.1755  0.0486  0.1639
50882SOL    HW161614   7.841   0.291   0.371 -0.2038  0.8106  0.4318
50882SOL    HW261615   7.692   0.265   0.360  0.2146 -1.6251 -0.1120
50883SOL     OW61616   0.020   8.866   9.429 -0.2252 -0.1521  0.0214
50883SOL    HW161617  -0.010   8.862   9.519 -0.7090  1.1861 -0.0587
50883SOL    HW261618   0.105   8.822   9.430 -0.5105 -0.7089  0.9910
50884SOL     OW61619   4.347  12.468  10.422  0.2417 -0.0759 -0.4353
50884SOL    HW161620   4.429  12.482  10.470  1.3089 -2.0714 -1.5609
50884SOL    HW261621   4.344  12.539  10.358  2.6026 -1.4726 -2.2556
50885SOL     OW61622   8.106   3.406   9.951  0.5626  0.4670  0.0827
50885SOL    HW161623   8.103   3.495   9.915 -0.3475  0.2455 -0.4216
50885SOL    HW261624   8.065   3.351   9.884 -1.3935  0.0683  1.4909
50886SOL     OW61625   0.554   9.249  10.846 -0.1109 -0.1621  0.1644
50886SOL    HW161626   0.632   9.284  10.889  0.0052 -1.6775  1.2825
50886SOL    HW261627   0.485   9.254  10.913 -0.8842  0.7853 -0.6788
50887SOL     OW61628   2.771   4.575  11.422 -0.0720  0.3089 -0.2468
50887SOL    HW161629   2.773   4.628  11.502  1.0304  0.2361 -0.2093
50887SOL    HW261630   2.811   4.630  11.356  1.2805 -0.5317 -0.1618
50888SOL     OW61631   1.524   1.787   0.594  0.2549  0.0596 -0.0702
50888SOL    HW161632   1.500   1.752   0.508 -1.6545  0.1099  0.3951
50888SOL    HW261633   1.464   1.744   0.655  2.2221 -0.7232  1.4094
50889SOL     OW61634   6.051   6.915   4.211 -0.0667 -0.1515 -0.2144
50889SOL    HW161635   6.094   6.870   4.284  0.8347 -0.1528 -0.7411
50889SOL    HW261636   5.990   6.976   4.253  1.2683  0.6819  0.5904
50890SOL     OW61637  10.337   1.801   1.194  0.1113 -0.3266 -0.7919
50890SOL    HW161638  10.275   1.872   1.211  0.5731 -0.1548  0.3136
50890SOL    HW261639  10.283   1.722   1.194 -0.0085 -0.3104  1.3796
50891SOL     OW61640   3.203   2.237  11.073  0.3448 -0.8190  0.5789
50891SOL    HW161641   3.224   2.149  11.103  0.2571 -0.5140  1.5569
50891SOL    HW261642   3.108   2.244  11.083  0.0044 -1.3858 -1.6454
50892SOL     OW61643  10.544   0.555  10.764 -0.4503  0.0031 -0.6133
50892SOL    HW161644  10.505   0.532  10.848  2.0404 -0.7275  0.4535
50892SOL    HW261645  10.472   0.551  10.701 -1.9668 -1.6223  1.1164
50893SOL     OW61646   6.515   1.381   4.348 -0.2652 -0.0416 -0.5426
50893SOL    HW161647   6.478   1.463   4.315 -0.0680  0.8748  1.3690
50893SOL    HW261648   6.448   1.315   4.331 -2.4372  1.3619  1.8008
50894SOL     OW61649   3.154   9.611   3.970 -0.1969  0.4956  0.1983
50894SOL    HW161650   3.221   9.673   3.941 -0.7547  0.6513 -0.8202
50894SOL    HW261651   3.105   9.657   4.037  0.1182  0.7265  0.2734
50895SOL     OW61652   0.078   4.788   8.318 -0.3901 -0.0947 -0.0716
50895SOL    HW161653  -0.011   4.753   8.317  0.0909 -1.4063 -0.7339
50895SOL    HW261654   0.134   4.710   8.323  0.7233  0.7497  1.7594
50896SOL     OW61655  10.337   7.025   6.467 -0.4190  0.0439 -0.3409
50896SOL    HW161656  10.430   7.007   6.486 -0.3977 -0.7576 -1.1080
50896SOL    HW261657  10.311   7.088   6.533 -0.2114 -2.1638  2.0360
50897SOL     OW61658  10.672   8.397   7.131 -0.1227 -0.0129 -0.5037
50897SOL    HW161659  10.762   8.426   7.123  0.3500 -1.4907 -0.9459
50897SOL    HW261660  10.623   8.474   7.160  1.2808  0.7898 -0.2299
50898SOL     OW61661   6.779   5.882   8.116  0.1768 -0.1116  0.5155
50898SOL    HW161662   6.798   5.840   8.200 -0.3358  0.3715  0.8745
50898SOL    HW261663   6.684   5.881   8.108  0.2622 -1.7473 -0.8934
50899SOL     OW61664   6.766  10.573   5.727 -0.4599  0.2106 -0.2261
50899SOL    HW161665   6.790  10.523   5.805 -0.9148 -0.6521 -0.6210
50899SOL    HW261666   6.740  10.659   5.760 -0.2777 -0.0152  0.5294
50900SOL     OW61667   8.959   8.086   2.077  0.0861  0.1624 -0.1777
50900SOL    HW161668   8.914   8.165   2.105  1.1865 -0.3342  3.4624
50900SOL    HW261669   8.889   8.025   2.054 -0.9670  0.7819  1.2552
50901SOL     OW61670   8.465   2.786   2.303 -0.1118  0.4886  0.5964
50901SOL    HW161671   8.464   2.799   2.398  0.0599  0.8972  0.5464
50901SOL    HW261672   8.553   2.754   2.284 -0.6088 -1.0198  0.7461
50902SOL     OW61673   6.244   7.094   2.770 -0.2486 -0.1669 -0.0889
50902SOL    HW161674   6.286   7.147   2.702  0.1627  0.5236  0.6920
50902SOL    HW261675   6.315   7.039   2.804 -0.0488  0.6958  0.9364
50903SOL     OW61676   7.200   0.779   4.093 -0.3377 -0.2855  0.1602
50903SOL    HW161677   7.223   0.689   4.112 -1.1756 -0.9481 -1.7480
50903SOL    HW261678   7.279   0.829   4.111  0.1187 -1.3876  1.2691
50904SOL     OW61679   5.210   9.961   3.471  0.0164  0.0432  0.3079
50904SOL    HW161680   5.160   9.880   3.485  0.6210 -0.3856  0.0238
50904SOL    HW261681   5.212  10.002   3.558  0.6713 -0.8157  0.7135
50905SOL     OW61682   9.459  10.612   7.704  0.1258 -0.7939  0.6509
50905SOL    HW161683   9.427  10.566   7.627  1.8729 -1.9153  0.5367
50905SOL    HW261684   9.548  10.641   7.680 -0.7838  2.5104  0.8083
50906SOL     OW61685   1.606   5.939   0.860  0.4095  0.2238  0.3532
50906SOL    HW161686   1.522   5.901   0.831 -0.0020  0.2188  1.4957
50906SOL    HW261687   1.581   6.003   0.926  1.3058  0.3475  0.5764
50907SOL     OW61688   8.258   8.812   5.995 -0.1499 -0.1810 -0.4113
50907SOL    HW161689   8.221   8.876   5.935 -2.2580 -0.1386  0.8364
50907SOL    HW261690   8.215   8.729   5.973 -1.1266 -0.1205  1.1149
50908SOL     OW61691   7.986   2.269  10.226  0.5203  0.3091 -0.1553
50908SOL    HW161692   7.936   2.344  10.258 -1.5677 -0.8892 -0.4245
50908SOL    HW261693   7.961   2.260  10.134 -0.3576 -1.4732  0.1991
50909SOL     OW61694   2.687  11.787   5.996  0.3481 -0.1166  0.3742
50909SOL    HW161695   2.694  11.881   5.979  0.9242 -0.1576  0.3392
50909SOL    HW261696   2.773  11.753   5.971 -0.6052 -1.0234 -1.9151
50910SOL     OW61697   6.506  10.431   9.018 -0.4198  0.1176  0.4785
50910SOL    HW161698   6.525  10.438   8.925  1.6376 -2.8569  0.5264
50910SOL    HW261699   6.527  10.517   9.054  1.7858  0.4377 -1.3789
50911SOL     OW61700   9.586  10.688   2.523 -0.2240 -0.3658 -0.3314
50911SOL    HW161701   9.621  10.627   2.589 -0.3280  0.1623  0.2167
50911SOL    HW261702   9.651  10.686   2.452 -0.6476 -1.7768 -0.7292
50912SOL     OW61703   2.563   8.288  10.678 -0.3190  1.3022  0.0228
50912SOL    HW161704   2.514   8.303  10.759 -0.2501 -1.7426  0.7600
50912SOL    HW261705   2.515   8.337  10.611 -2.7813  0.6695  1.2121
50913SOL     OW61706   7.095   9.249   3.085  0.4619  0.0858  0.0328
50913SOL    HW161707   7.099   9.300   3.166  1.1880 -0.7750  0.5548
50913SOL    HW261708   7.063   9.310   3.019 -0.8310  0.6169  1.1182
50914SOL     OW61709  10.450   6.579   4.426 -0.1003  0.1714 -0.1418
50914SOL    HW161710  10.469   6.591   4.333  0.9089  2.1749  0.2654
50914SOL    HW261711  10.390   6.651   4.447 -1.1495 -0.8823  0.5505
50915SOL     OW61712  10.968   8.826   6.161  0.3642  0.3560  0.0451
50915SOL    HW161713  10.981   8.733   6.142 -0.8198 -0.2002  1.7387
50915SOL    HW261714  10.923   8.859   6.083  0.0804 -0.6883 -0.2587
50916SOL     OW61715   2.391  11.511   8.048  0.0564  0.7411  0.1050
50916SOL    HW161716   2.313  11.458   8.064 -0.4596  1.2765 -0.5597
50916SOL    HW261717   2.434  11.518   8.133 -1.0337  1.0816  0.6441
50917SOL     OW61718   5.896   4.081   1.965  0.0114 -0.4658  0.3120
50917SOL    HW161719   5.961   4.027   1.919 -0.3891  0.2086 -1.0951
50917SOL    HW261720   5.865   4.143   1.899 -0.3123  0.8017  1.6128
50918SOL     OW61721  10.714   6.269   5.740 -0.0355 -0.0608 -0.3362
50918SOL    HW161722  10.732   6.177   5.722  0.5491  0.0160 -0.1645
50918SOL    HW261723  10.764   6.317   5.674  0.6666  0.1653  0.3452
50919SOL     OW61724   1.100   4.302   0.242  0.0065 -0.4529  0.2204
50919SOL    HW161725   1.167   4.281   0.307  0.4199  1.1962  0.3671
50919SOL    HW261726   1.145   4.297   0.158  0.2981  0.5252  0.3096
50920SOL     OW61727   8.769   9.553  11.878  0.3503 -0.7280 -1.0494
50920SOL    HW161728   8.817   9.616  11.825  0.9842  0.9859  1.3953
50920SOL    HW261729   8.828   9.532  11.951 -1.7993 -0.0659  1.0044
50921SOL     OW61730   8.249   1.920   1.845  0.5967 -0.6102 -0.0441
50921SOL    HW161731   8.300   1.883   1.773  2.1300 -1.5472  1.4478
50921SOL    HW261732   8.158   1.897   1.824  1.1595 -2.1628 -0.9385
50922SOL     OW61733   2.606   5.409  11.717 -0.0128 -0.1287 -0.5517
50922SOL    HW161734   2.693   5.450  11.715  0.6633 -1.3641  1.2010
50922SOL    HW261735   2.622   5.318  11.690 -0.0383 -1.3794  3.1110
50923SOL     OW61736   4.440   1.871  12.108  0.4444 -0.2521 -0.3541
50923SOL    HW161737   4.440   1.933  12.036  0.7378 -0.5793 -0.6406
50923SOL    HW261738   4.419   1.787  12.067  0.0043 -0.3375  0.0335
50924SOL     OW61739   6.298   6.743  11.039  0.2038  0.5121 -0.5890
50924SOL    HW161740   6.230   6.683  11.010  0.7585 -0.2970 -0.2216
50924SOL    HW261741   6.312   6.723  11.131  0.6197  0.9864 -0.5399
50925SOL     OW61742   9.335   4.104   0.952  0.2361 -0.4005 -0.0863
50925SOL    HW161743   9.285   4.063   0.882  0.5196  0.2250 -0.6689
50925SOL    HW261744   9.279   4.097   1.029 -1.1727  1.0861 -0.9193
50926SOL     OW61745   2.473   3.936  12.364 -0.8250  0.0833  0.3388
50926SOL    HW161746   2.546   3.957  12.306 -1.4176  1.3842  0.0165
50926SOL    HW261747   2.491   3.847  12.395  1.6308  0.8504  1.3885
50927SOL     OW61748   2.773   4.325   4.461 -0.1047  0.1037 -0.4464
50927SOL    HW161749   2.837   4.394   4.476 -0.3357  0.2616 -0.1777
50927SOL    HW261750   2.806   4.250   4.511  0.4316 -0.1592 -1.1759
50928SOL     OW61751   2.715  11.773  11.112 -0.3494  0.3636 -0.0631
50928SOL    HW161752   2.750  11.720  11.040 -0.4620 -0.3056  0.3580
50928SOL    HW261753   2.663  11.711  11.163 -0.8263  0.9882  0.2122
50929SOL     OW61754   5.687   4.074   9.288  0.1805 -0.1438 -0.5073
50929SOL    HW161755   5.752   4.145   9.286 -0.7095  0.6771 -1.0718
50929SOL    HW261756   5.676   4.050   9.196 -1.7002  1.0460 -0.6366
50930SOL     OW61757  12.277  10.550   9.602  0.1833  0.4533  0.2304
50930SOL    HW161758  12.283  10.568   9.508  0.2295  1.5134  0.4214
50930SOL    HW261759  12.286  10.455   9.609  1.2802  0.4572 -0.7563
50931SOL     OW61760  11.126   0.138   1.022  0.3329  0.1318 -0.2440
50931SOL    HW161761  11.210   0.138   1.069  0.8940 -0.2105 -1.2178
50931SOL    HW261762  11.073   0.073   1.068  0.6973  0.1454  0.2067
50932SOL     OW61763   1.110   9.815   2.045  0.4011  0.0785 -0.4321
50932SOL    HW161764   1.112   9.732   1.996 -3.1352 -0.0855 -0.5470
50932SOL    HW261765   1.143   9.880   1.982 -0.0043 -0.7510 -1.5395
50933SOL     OW61766  11.152   1.719   8.034 -0.0283 -1.0177  0.0802
50933SOL    HW161767  11.162   1.764   8.118 -1.2864 -0.5963  0.0331
50933SOL    HW261768  11.153   1.626   8.056 -0.1350 -0.9122  0.5374
50934SOL     OW61769   3.741   2.367   4.140 -0.1779 -0.1014 -0.1657
50934SOL    HW161770   3.804   2.417   4.194 -0.0476 -2.4167  2.0357
50934SOL    HW261771   3.690   2.317   4.204 -0.5804 -2.4311 -2.1695
50935SOL     OW61772   2.513   4.354   0.958  0.3112 -0.2678  0.6231
50935SOL    HW161773   2.467   4.417   0.901  2.9600  0.5597 -0.7882
50935SOL    HW261774   2.520   4.275   0.905  3.4112  0.7257 -0.7278
50936SOL     OW61775   9.291   5.579   0.188 -0.2182  0.4214 -0.1284
50936SOL    HW161776   9.283   5.501   0.133 -1.5352  0.2061  0.3377
50936SOL    HW261777   9.296   5.651   0.126  0.5142  0.0165 -0.5556
50937SOL     OW61778   0.814   2.450  11.839 -0.3797 -0.4880 -0.3119
50937SOL    HW161779   0.794   2.414  11.925 -1.2247 -1.2308 -0.8100
50937SOL    HW261780   0.866   2.382  11.796  0.8850  0.2772 -0.0571
50938SOL     OW61781   9.597   7.759   2.366 -0.1934 -0.5009  0.0547
50938SOL    HW161782   9.640   7.772   2.281 -1.4434 -2.4660 -0.9489
50938SOL    HW261783   9.623   7.671   2.393 -1.2460 -0.5845  0.8459
50939SOL     OW61784   7.843   8.021  10.296  0.4807 -0.0320  0.6580
50939SOL    HW161785   7.799   8.060  10.372 -0.7994 -0.8612  0.3577
50939SOL    HW261786   7.804   7.934  10.287  2.2023 -0.8166  0.3878
50940SOL     OW61787   6.336   0.580   6.919 -0.5014  0.1159  0.1545
50940SOL    HW161788   6.272   0.556   6.853  0.1483  3.0803 -1.7601
50940SOL    HW261789   6.294   0.651   6.968  0.0988 -0.1591  1.0957
50941SOL     OW61790   5.217  11.980   8.947 -0.0345 -0.0128  0.7103
50941SOL    HW161791   5.188  12.004   8.859 -0.7215 -0.8724  0.6948
50941SOL    HW261792   5.290  11.919   8.933  0.8613  1.0161  0.7521
50942SOL     OW61793   8.106   8.168   7.489  0.5275  0.4548  0.3131
50942SOL    HW161794   8.078   8.181   7.398 -1.1447 -0.0246  0.7250
50942SOL    HW261795   8.197   8.198   7.490  0.5133  0.7044 -1.4566
50943SOL     OW61796   5.124   0.471   7.600 -0.4263 -0.1247  0.0024
50943SOL    HW161797   5.212   0.434   7.606 -0.3770 -0.2371 -1.2139
50943SOL    HW261798   5.106   0.504   7.688  0.4478 -0.9554  0.5101
50944SOL     OW61799  10.085   6.761   1.868  0.7998 -0.2050  0.0839
50944SOL    HW161800  10.165   6.813   1.861  1.1017 -0.7055 -0.2545
50944SOL    HW261801  10.034   6.805   1.936  0.8583  0.7710 -0.4896
50945SOL     OW61802   8.895   4.350   1.145  0.1359 -0.4607 -0.1396
50945SOL    HW161803   8.972   4.362   1.090  0.6732 -1.3510  0.3986
50945SOL    HW261804   8.836   4.421   1.119  0.8090 -0.2326 -1.1041
50946SOL     OW61805  10.251   9.544   4.582 -0.3937  0.2617 -0.1737
50946SOL    HW161806  10.233   9.636   4.560  0.7182  0.5546  0.0826
50946SOL    HW261807  10.291   9.548   4.669 -2.1133 -0.6488  0.7225
50947SOL     OW61808  10.324  12.046   5.011 -0.1112  0.1911  0.0371
50947SOL    HW161809  10.241  12.070   4.970  0.0993  0.0484 -0.4819
50947SOL    HW261810  10.320  12.085   5.099 -0.8541 -0.0787  0.1300
50948SOL     OW61811   6.183   7.805   2.849  0.2579  0.7116 -0.1752
50948SOL    HW161812   6.215   7.856   2.923  0.1666  2.1945 -1.1110
50948SOL    HW261813   6.257   7.750   2.824  0.2668  0.1374  1.0336
50949SOL     OW61814   9.362   2.302   4.155 -0.3009 -0.3848 -0.3611
50949SOL    HW161815   9.431   2.266   4.100 -0.8666 -1.4515 -0.4071
50949SOL    HW261816   9.331   2.380   4.108  1.7872  0.9333  0.3486
50950SOL     OW61817   3.561   7.282   7.806 -1.0314  0.3039 -0.9971
50950SOL    HW161818   3.650   7.261   7.779 -1.2429 -1.6823 -0.3297
50950SOL    HW261819   3.507   7.261   7.729 -1.2108 -1.5011 -0.4241
50951SOL     OW61820   8.447   8.566   3.580 -0.5197 -0.8498 -0.2676
50951SOL    HW161821   8.376   8.502   3.586 -2.4701  1.1634 -0.2881
50951SOL    HW261822   8.424   8.619   3.503 -0.3650  1.3365  1.1107
50952SOL     OW61823  12.378   2.390   4.460 -0.0614  0.4389 -0.5983
50952SOL    HW161824  12.463   2.432   4.447  0.6768 -0.8373 -0.1009
50952SOL    HW261825  12.323   2.424   4.390  1.5800 -0.5893 -2.4929
50953SOL     OW61826   2.002   9.036  11.803 -0.1366 -0.0107  0.7030
50953SOL    HW161827   1.992   9.120  11.757  0.3362 -0.1996  0.2387
50953SOL    HW261828   1.942   8.977  11.757 -1.7832  0.4657  2.1123
50954SOL     OW61829   1.271   5.105   2.408  0.1093 -0.0380  0.2905
50954SOL    HW161830   1.306   5.036   2.464  2.2625  1.0270  0.3707
50954SOL    HW261831   1.226   5.059   2.338  1.1536 -1.5319  0.5591
50955SOL     OW61832   6.568   7.309   7.287 -0.3498  0.1712  0.0798
50955SOL    HW161833   6.632   7.257   7.336 -0.6211 -2.3877 -2.0619
50955SOL    HW261834   6.620   7.379   7.247  1.6059 -2.5743 -2.6963
50956SOL     OW61835   3.395  11.953   0.714  0.7997  0.0488 -0.3558
50956SOL    HW161836   3.301  11.935   0.703  0.7206 -0.0943  0.5030
50956SOL    HW261837   3.438  11.895   0.651  0.3770 -0.9129  0.2110
50957SOL     OW61838  10.554   2.903   3.368  0.1853 -0.3098  0.0338
50957SOL    HW161839  10.521   2.972   3.310 -1.6412 -0.8646  0.3308
50957SOL    HW261840  10.568   2.947   3.452 -1.0415 -0.2587  0.2421
50958SOL     OW61841   0.078   1.713   2.537  0.1014  0.4014 -0.6632
50958SOL    HW161842   0.166   1.748   2.541  0.5168 -0.6968  2.7108
50958SOL    HW261843   0.088   1.620   2.560 -2.0192  0.5755  1.2913
50959SOL     OW61844   7.125   0.529   5.838  0.3290  0.0773 -0.5550
50959SOL    HW161845   7.135   0.595   5.906 -1.1060 -0.5385  0.3023
50959SOL    HW261846   7.120   0.579   5.756  1.9082  0.8304 -0.2287
50960SOL     OW61847  10.906   3.756   3.446  0.6137 -0.0034  0.3726
50960SOL    HW161848  10.876   3.672   3.411  0.0330  0.4807 -0.3267
50960SOL    HW261849  10.836   3.818   3.423  0.8404  0.5982  1.2361
50961SOL     OW61850   2.703   1.971  11.511  0.1382 -0.1586 -0.0844
50961SOL    HW161851   2.755   1.898  11.546 -0.6900 -0.2945  0.9155
50961SOL    HW261852   2.764   2.045  11.509  0.1557 -0.0774  1.9493
50962SOL     OW61853   1.938   0.905  10.352 -0.3174 -0.2567 -0.0283
50962SOL    HW161854   1.904   0.925  10.264 -0.0489 -1.5222 -0.4318
50962SOL    HW261855   1.969   0.990  10.384  1.1568 -0.0253 -1.8510
50963SOL     OW61856   3.596  11.395   3.959  0.1144  0.2614  0.2974
50963SOL    HW161857   3.647  11.341   4.019  1.0529  0.5959 -0.1668
50963SOL    HW261858   3.662  11.451   3.917 -0.6978  0.9810 -0.0340
50964SOL     OW61859   4.500  11.051  10.412  0.1090 -0.0399  0.4070
50964SOL    HW161860   4.568  10.988  10.390  0.3198  0.0518  0.7847
50964SOL    HW261861   4.539  11.136  10.391 -0.3845 -0.0522 -0.6540
50965SOL     OW61862   6.278   4.621   8.869  0.3362  0.3098  0.3613
50965SOL    HW161863   6.207   4.652   8.812 -0.0549  1.3401  1.3645
50965SOL    HW261864   6.317   4.549   8.821 -0.4703  0.6535 -0.8709
50966SOL     OW61865   9.662  12.181   6.832 -0.0614  0.1761 -0.1844
50966SOL    HW161866   9.594  12.243   6.805  0.7631  1.4342  0.5180
50966SOL    HW261867   9.615  12.115   6.883 -1.0502 -0.1541 -1.4794
50967SOL     OW61868   9.310   7.213   9.082 -0.0844  0.0525  0.3223
50967SOL    HW161869   9.242   7.278   9.097 -0.7609 -0.3143 -1.0032
50967SOL    HW261870   9.340   7.230   8.992  0.9257 -0.3782  0.5665
50968SOL     OW61871   4.582  12.436   7.771  0.4937 -0.0204 -0.5426
50968SOL    HW161872   4.668  12.442   7.812  0.3295  1.4064 -0.3355
50968SOL    HW261873   4.582  12.352   7.725  1.5148 -0.6251  0.5088
50969SOL     OW61874   3.022   2.591   5.529  0.4048  0.1144 -0.1042
50969SOL    HW161875   2.946   2.584   5.586  0.6552  0.1362  0.2380
50969SOL    HW261876   2.987   2.590   5.441  0.1447 -2.0733 -0.0313
50970SOL     OW61877   1.904   0.513   7.113 -0.3799 -0.0218  0.0764
50970SOL    HW161878   1.815   0.505   7.148 -0.8265  1.1726 -0.7476
50970SOL    HW261879   1.893   0.512   7.018  0.6809 -1.7378 -0.0865
50971SOL     OW61880   2.959   5.334   9.821 -0.5341 -0.0437  0.5895
50971SOL    HW161881   2.892   5.323   9.888 -0.9066  0.2454  0.2659
50971SOL    HW261882   2.950   5.424   9.791  1.4246  0.7098  2.0511
50972SOL     OW61883   4.931   8.682  10.195 -0.3617 -0.3104  0.3644
50972SOL    HW161884   4.986   8.608  10.171 -0.1952 -1.1480  3.0514
50972SOL    HW261885   4.991   8.756  10.201 -0.1172 -0.4835  0.0774
50973SOL     OW61886   0.519   4.106  12.038 -0.1114  0.2515 -0.0389
50973SOL    HW161887   0.572   4.063  11.972 -0.1054  2.2793 -1.4506
50973SOL    HW261888   0.429   4.098  12.005 -0.1083  1.2742 -0.3285
50974SOL     OW61889   2.000   2.708  11.218 -0.0583  0.3098  0.1545
50974SOL    HW161890   1.930   2.701  11.154  0.3049 -1.3231 -0.1122
50974SOL    HW261891   2.080   2.693  11.167  0.2481 -0.8447  0.9487
50975SOL     OW61892   6.948  10.497   3.359 -0.5409  0.0039 -0.8056
50975SOL    HW161893   6.876  10.525   3.302 -0.5593 -1.6007 -1.6241
50975SOL    HW261894   6.925  10.407   3.384 -0.4349  0.5832  1.6201
50976SOL     OW61895   3.363   1.160   3.963  0.3164 -0.0828 -0.1268
50976SOL    HW161896   3.352   1.151   4.058  1.1424 -0.9184 -0.0958
50976SOL    HW261897   3.406   1.080   3.936 -0.3917 -0.0921 -1.3088
50977SOL     OW61898  12.004  11.567  11.056 -0.1396  0.1056 -0.2774
50977SOL    HW161899  12.012  11.656  11.090 -0.6495 -0.2790  0.9207
50977SOL    HW261900  12.089  11.526  11.073 -0.1940  0.1040 -0.0031
50978SOL     OW61901  12.119  12.146  11.486  0.3833  0.4896  0.2088
50978SOL    HW161902  12.042  12.114  11.439 -0.3678  1.9285  0.3949
50978SOL    HW261903  12.158  12.067  11.524 -0.1071 -0.4526 -1.1608
50979SOL     OW61904  11.199  10.937   2.252 -0.2723 -0.0440  0.2786
50979SOL    HW161905  11.185  10.955   2.345 -0.4658  1.4772 -0.0254
50979SOL    HW261906  11.294  10.922   2.245 -0.2377 -0.0283  0.6946
50980SOL     OW61907   3.238  11.691  10.954 -0.3092  0.1809  0.2297
50980SOL    HW161908   3.244  11.595  10.957  0.4223  0.2522  1.3212
50980SOL    HW261909   3.298  11.716  10.884 -2.4010 -0.2760 -1.8713
50981SOL     OW61910   2.545   9.044   1.972 -0.1816 -0.0970 -0.5335
50981SOL    HW161911   2.544   9.066   1.879  2.8670 -0.5894 -0.7957
50981SOL    HW261912   2.500   8.959   1.977 -1.0755  0.3033 -1.3890
50982SOL     OW61913   2.930   0.655   8.810  0.7379 -0.1427 -0.0034
50982SOL    HW161914   2.881   0.574   8.797 -0.3303  0.7032 -1.6762
50982SOL    HW261915   3.011   0.628   8.852  1.5218 -2.4475 -2.6807
50983SOL     OW61916   4.984  11.084   9.800  0.1954 -0.2876 -0.4616
50983SOL    HW161917   5.066  11.040   9.819 -0.4812 -1.1164  0.6812
50983SOL    HW261918   4.985  11.163   9.855 -0.4289 -1.1006  0.7475
50984SOL     OW61919   3.240   4.539  11.610  0.1142  0.0426  0.4442
50984SOL    HW161920   3.156   4.575  11.640 -1.0550 -1.0499 -1.3228
50984SOL    HW261921   3.267   4.597  11.539  0.3478 -0.1839  0.3463
50985SOL     OW61922  11.903   4.317   9.765  0.2177 -0.0654 -0.0277
50985SOL    HW161923  11.956   4.371   9.824 -0.5689 -0.2308  0.8409
50985SOL    HW261924  11.878   4.377   9.694 -1.1319  0.9059  1.2176
50986SOL     OW61925   4.900   2.704   6.200  0.0863 -0.2659 -0.8301
50986SOL    HW161926   4.967   2.641   6.228 -0.7480 -0.3322  1.1635
50986SOL    HW261927   4.817   2.658   6.210 -0.3808  0.3817 -1.6010
50987SOL     OW61928   8.290   5.444  11.619 -0.1500  0.6102  0.2300
50987SOL    HW161929   8.235   5.450  11.697  0.0644  1.0026  0.3566
50987SOL    HW261930   8.241   5.491  11.551 -0.9695 -0.8884 -0.2519
50988SOL     OW61931   5.723   9.671   3.210 -0.0526 -0.2769  0.3935
50988SOL    HW161932   5.703   9.726   3.286 -0.2513  0.1044  0.0699
50988SOL    HW261933   5.644   9.619   3.197 -1.8231  2.7345 -2.1891
50989SOL     OW61934   8.117   8.403   6.868  0.0139  0.3674  0.0815
50989SOL    HW161935   8.171   8.324   6.867 -0.6207 -0.0720 -0.1355
50989SOL    HW261936   8.174   8.472   6.834  1.3817  0.5631  2.5200
50990SOL     OW61937   8.026   0.176   0.917 -0.0098 -0.1354  0.0765
50990SOL    HW161938   8.036   0.271   0.915 -0.6835 -0.0718 -0.5361
50990SOL    HW261939   8.114   0.142   0.904  0.1237  0.4028 -0.4283
50991SOL     OW61940  10.045   7.591   1.588 -0.4215  0.5092  0.3046
50991SOL    HW161941  10.132   7.551   1.592 -0.5500  0.3225  1.3314
50991SOL    HW261942  10.017   7.598   1.679 -1.7140  0.0848 -0.0387
50992SOL     OW61943   4.653   4.774   1.317 -0.0621 -0.5480 -0.1983
50992SOL    HW161944   4.634   4.801   1.227 -0.9985  0.2604  0.2153
50992SOL    HW261945   4.733   4.822   1.340  1.7952 -2.8210 -1.4541
50993SOL     OW61946   7.281   1.894   1.332  0.0763  0.3482  0.1591
50993SOL    HW161947   7.189   1.871   1.318  0.1415  0.3606 -0.2912
50993SOL    HW261948   7.278   1.980   1.375 -0.0936  1.3338 -1.7208
50994SOL     OW61949   6.340   3.359   3.111  0.1230 -0.5929 -0.2327
50994SOL    HW161950   6.404   3.415   3.155  1.4163 -1.6756 -0.6527
50994SOL    HW261951   6.340   3.278   3.162 -0.9133 -0.6097 -0.2507
50995SOL     OW61952   4.983   8.650   5.414  0.4414  0.4160 -0.4287
50995SOL    HW161953   4.917   8.583   5.396  2.0070 -1.2321 -0.2874
50995SOL    HW261954   4.989   8.700   5.333  1.2262 -1.4421 -1.6053
50996SOL     OW61955   6.261  10.265  10.727 -0.7570  0.3244 -0.1708
50996SOL    HW161956   6.328  10.290  10.790 -0.8426 -0.8519  0.4008
50996SOL    HW261957   6.182  10.252  10.779 -1.3099  1.1325 -0.7704
50997SOL     OW61958   4.923   7.587   2.928  0.7186  0.5218  0.3006
50997SOL    HW161959   4.852   7.526   2.947  1.3512 -1.2260 -2.4866
50997SOL    HW261960   4.995   7.532   2.899  2.2425  2.4640  0.1973
50998SOL     OW61961   1.110   9.037   3.692  0.3057  0.3813  0.3252
50998SOL    HW161962   1.157   8.972   3.639  0.8759 -0.6730  2.0353
50998SOL    HW261963   1.018   9.021   3.673  0.4315 -0.9625  0.6665
50999SOL     OW61964   0.124   6.229   6.640 -0.4618 -0.2738 -0.0601
50999SOL    HW161965   0.157   6.279   6.714 -0.6483  2.5524 -1.7703
50999SOL    HW261966   0.169   6.144   6.646  1.5384  0.8436  1.7450
51000SOL     OW61967   0.528  11.394   5.496 -0.1892 -0.1436 -0.5922
51000SOL    HW161968   0.519  11.318   5.554  1.8977 -0.5477 -0.7204
51000SOL    HW261969   0.473  11.461   5.536  0.1200 -0.8510  1.1043
51001SOL     OW61970   6.009   3.886   5.774 -0.4782 -0.1035 -0.3597
51001SOL    HW161971   5.944   3.845   5.831  1.8282 -2.3463  0.8596
51001SOL    HW261972   6.023   3.822   5.704  0.6293  0.1859 -0.4157
51002SOL     OW61973  11.440   6.785   1.679 -0.0046  0.0900 -0.4847
51002SOL    HW161974  11.393   6.741   1.750 -0.4185  1.0989 -0.1034
51002SOL    HW261975  11.409   6.743   1.599 -0.6636 -0.0657 -0.1548
51003SOL     OW61976   1.053   8.372   2.307  0.2563 -0.4063 -0.2997
51003SOL    HW161977   1.122   8.328   2.356  0.8093  2.0648  1.3734
51003SOL    HW261978   0.982   8.383   2.371 -0.5847 -0.5021 -1.2003
51004SOL     OW61979   0.256  10.487  11.777  0.1473  0.1060  0.0555
51004SOL    HW161980   0.269  10.494  11.871  0.5289 -0.1199  0.0234
51004SOL    HW261981   0.271  10.575  11.743  0.1370  0.1601  0.1921
51005SOL     OW61982   7.327   3.186   7.231  0.2243  0.0374  0.3729
51005SOL    HW161983   7.405   3.192   7.287  1.3847  1.5903 -1.2826
51005SOL    HW261984   7.347   3.116   7.169  0.6185  0.8451 -0.4418
51006SOL     OW61985   7.918   5.899  10.934  0.3943  0.5060  0.1762
51006SOL    HW161986   7.908   5.903  10.839 -0.8773  1.0097  0.3137
51006SOL    HW261987   7.996   5.951  10.952  0.2697  0.9509 -0.5386
51007SOL     OW61988   3.009   0.515   2.290  0.4802 -0.2404 -0.1846
51007SOL    HW161989   2.938   0.559   2.244  2.7978  2.8857 -1.0934
51007SOL    HW261990   2.991   0.531   2.383 -0.7016 -0.7516 -0.3077
51008SOL     OW61991   2.967   2.347   4.001  0.3517  0.1847  0.5727
51008SOL    HW161992   2.929   2.263   4.024 -2.1600  1.7460  2.8021
51008SOL    HW261993   2.939   2.362   3.911 -1.3388 -0.3516  0.9558
51009SOL     OW61994  10.061   1.713   0.927 -0.7791 -0.2691 -0.2691
51009SOL    HW161995  10.091   1.631   0.886 -1.0753  0.2471 -1.5520
51009SOL    HW261996  10.141   1.763   0.941 -0.6651 -0.4886 -0.1235
51010SOL     OW61997   6.705   4.965   4.919  0.1113  0.1916 -0.1214
51010SOL    HW161998   6.690   4.876   4.952 -0.4268  0.3490  0.0684
51010SOL    HW261999   6.746   5.011   4.993 -0.2177  0.2838  0.0021
51011SOL     OW62000   6.705  11.910   1.120  0.5406  0.1781  0.3022
51011SOL    HW162001   6.763  11.970   1.167  0.8890  1.0741 -1.2072
51011SOL    HW262002   6.651  11.967   1.065  0.9302 -0.8870 -1.2329
51012SOL     OW62003  10.954  11.434   7.138  0.3060 -0.4858  0.1177
51012SOL    HW162004  10.998  11.382   7.206  0.0383 -0.6081  0.1990
51012SOL    HW262005  11.009  11.424   7.061  1.2601  0.6194  0.6340
51013SOL     OW62006  11.435   9.615   2.480  0.8161  0.4160  0.1315
51013SOL    HW162007  11.524   9.632   2.513  0.6336 -0.8037  1.3606
51013SOL    HW262008  11.426   9.520   2.485 -0.6823  0.5470  0.3718
51014SOL     OW62009   2.695  11.700   0.248 -0.6867 -0.1359  0.3200
51014SOL    HW162010   2.734  11.786   0.231  1.9152 -1.2685  0.1444
51014SOL    HW262011   2.691  11.694   0.343 -0.8857  0.1784  0.3328
51015SOL     OW62012   1.107  10.033   9.286  0.3044  0.4217  0.1510
51015SOL    HW162013   1.126   9.978   9.210 -0.8968 -0.6519  0.5863
51015SOL    HW262014   1.122   9.976   9.362 -0.8781  0.6785  0.6163
51016SOL     OW62015   2.264   8.662   8.930 -0.5122  0.0872 -0.3300
51016SOL    HW162016   2.310   8.689   8.850  0.1432 -1.5344 -0.5484
51016SOL    HW262017   2.247   8.569   8.917  0.1964 -0.3757  1.6851
51017SOL     OW62018   4.771  11.014   1.386 -0.1121 -0.2593 -0.1908
51017SOL    HW162019   4.857  11.055   1.382  0.8457 -2.1627 -0.4377
51017SOL    HW262020   4.744  11.023   1.477 -0.4857  1.8850 -0.4713
51018SOL     OW62021   3.673   6.902   2.616 -0.4888  0.1439  0.3953
51018SOL    HW162022   3.603   6.879   2.555  1.2671 -2.0139 -0.9560
51018SOL    HW262023   3.673   6.832   2.681  0.6179 -0.0885  0.1696
51019SOL     OW62024  12.333  10.773   1.539 -0.6246  0.0623 -0.1560
51019SOL    HW162025  12.416  10.802   1.499 -0.2309  1.0309  1.2714
51019SOL    HW262026  12.266  10.804   1.479 -0.1300  2.8401  0.5651
51020SOL     OW62027  11.045   8.511   1.822 -0.0276  0.2472  0.4520
51020SOL    HW162028  10.954   8.513   1.851 -0.4552 -0.5225 -0.7843
51020SOL    HW262029  11.041   8.520   1.727  1.2820  1.7606  0.4801
51021SOL     OW62030   6.341   9.630   4.959  0.1044  0.0623 -0.5839
51021SOL    HW162031   6.274   9.563   4.945  0.2950 -0.1738 -0.3659
51021SOL    HW262032   6.415   9.602   4.906  1.4567 -1.7208  1.9952
51022SOL     OW62033   9.406   6.126   4.539  0.1729 -0.7578 -0.3498
51022SOL    HW162034   9.418   6.219   4.555  0.2748 -0.7768 -0.3167
51022SOL    HW262035   9.330   6.122   4.480 -0.8392 -0.7498  0.9090
51023SOL     OW62036   9.373  10.098   6.835 -0.3834  0.6978 -0.1614
51023SOL    HW162037   9.460  10.084   6.798 -0.5007  1.1708 -0.6405
51023SOL    HW262038   9.335  10.011   6.843 -0.7392  0.6173 -2.1232
51024SOL     OW62039  12.114   4.927  11.000  0.0754 -0.0530  0.4328
51024SOL    HW162040  12.069   4.847  10.972 -0.6283 -0.2046  1.9058
51024SOL    HW262041  12.186   4.936  10.938  1.3794 -2.9129  1.3166
51025SOL     OW62042   5.263   8.109   7.084 -0.3562  0.2626 -0.4905
51025SOL    HW162043   5.314   8.092   7.004 -1.8289 -2.1149 -1.0360
51025SOL    HW262044   5.175   8.129   7.052 -1.3679 -2.2444  0.4553
51026SOL     OW62045   0.420   5.556   9.511 -0.0259  0.3391 -0.2316
51026SOL    HW162046   0.375   5.621   9.457  0.1026 -0.2787 -1.0963
51026SOL    HW262047   0.463   5.608   9.580 -1.4398  1.0056  0.1940
51027SOL     OW62048   3.182   9.853  11.641  0.1397  0.0939  0.5059
51027SOL    HW162049   3.150   9.779  11.694 -1.4650  1.8864  2.2096
51027SOL    HW262050   3.221   9.913  11.704  0.0415  1.3871 -0.6122
51028SOL     OW62051   8.214   7.720   3.370  0.1502  0.0579 -0.5335
51028SOL    HW162052   8.242   7.630   3.387  2.7451  1.0212  0.7855
51028SOL    HW262053   8.267   7.747   3.295 -0.3067  0.6249 -0.6528
51029SOL     OW62054   1.244  11.825  10.961  0.3752 -0.3899 -0.3757
51029SOL    HW162055   1.242  11.733  10.987  0.7234 -0.0573  0.8694
51029SOL    HW262056   1.335  11.841  10.937  0.8437  0.2066  1.6498
51030SOL     OW62057  11.451   9.903  12.091 -0.6731 -0.4779  0.7604
51030SOL    HW162058  11.408   9.851  12.159 -0.8922 -1.4092 -0.0661
51030SOL    HW262059  11.454   9.845  12.015 -2.2797  1.2128 -0.6713
51031SOL     OW62060   1.227   8.252  12.142  0.1698 -0.1323  0.1288
51031SOL    HW162061   1.262   8.322  12.088 -0.1821  0.3489  0.5188
51031SOL    HW262062   1.287   8.178  12.127  0.4213  0.1807 -0.4400
51032SOL     OW62063   0.640   4.028  11.584 -0.1305  0.5433  0.1427
51032SOL    HW162064   0.601   4.008  11.670 -2.7368 -0.3674 -1.1419
51032SOL    HW262065   0.604   4.114  11.562 -0.5534  0.1754 -0.6071
51033SOL     OW62066   4.849   2.031   7.023 -0.3761 -0.2692 -0.3295
51033SOL    HW162067   4.940   2.060   7.034 -0.9849  2.0035 -0.6949
51033SOL    HW262068   4.850   1.939   7.047  1.9764 -0.2449 -0.0803
51034SOL     OW62069   9.490  10.070   0.482 -0.1771 -0.0785  0.5753
51034SOL    HW162070   9.546   9.992   0.488 -0.3652 -0.2381  0.2639
51034SOL    HW262071   9.457  10.083   0.571  1.4285  0.8139  1.1039
51035SOL     OW62072   9.853   6.821   7.756  0.0466 -0.3407 -0.5490
51035SOL    HW162073   9.854   6.846   7.849 -1.0867  0.8999 -0.8357
51035SOL    HW262074   9.936   6.775   7.743  0.5071  0.0048  0.9416
51036SOL     OW62075   4.485   9.174   3.277  0.0444  0.3497  0.5052
51036SOL    HW162076   4.510   9.151   3.187 -0.7199  0.6628  0.2002
51036SOL    HW262077   4.567   9.201   3.318  0.3262  0.6704 -0.2452
51037SOL     OW62078   7.197   2.544   5.730  0.4197 -0.5152 -0.5263
51037SOL    HW162079   7.284   2.567   5.762 -0.2698  0.5236  0.6932
51037SOL    HW262080   7.186   2.452   5.752  0.3700 -0.0941  1.4026
51038SOL     OW62081   5.255   4.546  10.667  0.3808 -0.0128 -0.4672
51038SOL    HW162082   5.205   4.557  10.749  1.1534 -0.5618  0.0959
51038SOL    HW262083   5.209   4.475  10.621 -0.3912  0.6779 -0.7849
51039SOL     OW62084   8.957   4.449   4.725  0.3082 -0.2165  0.3228
51039SOL    HW162085   8.887   4.513   4.713  0.3388  0.2762  2.2803
51039SOL    HW262086   9.014   4.461   4.649 -1.3560 -0.1806 -0.9800
51040SOL     OW62087  12.387   9.447   0.870  0.4773 -0.1060  0.3606
51040SOL    HW162088  12.465   9.418   0.823  0.5066 -1.0968  0.9982
51040SOL    HW262089  12.404   9.424   0.962 -1.2977 -2.0420  0.2873
51041SOL     OW62090  11.718   4.532   4.912 -0.3442  0.1179  0.5018
51041SOL    HW162091  11.809   4.505   4.918 -0.4517 -0.1417  0.9743
51041SOL    HW262092  11.670   4.471   4.968 -0.7752  0.4179  0.4712
51042SOL     OW62093   2.171   0.161   9.113 -0.1223  0.2873  0.3442
51042SOL    HW162094   2.232   0.089   9.098 -0.7336 -0.0568 -0.5353
51042SOL    HW262095   2.104   0.124   9.171  0.6646  0.7665  1.5999
51043SOL     OW62096   4.530   8.371   4.204  0.2202 -0.2312  0.0859
51043SOL    HW162097   4.584   8.367   4.125  1.4065  0.9910  0.8075
51043SOL    HW262098   4.544   8.287   4.247  0.5682 -0.4001 -0.3488
51044SOL     OW62099   1.007   7.758   3.498  0.0126  0.2106  0.2829
51044SOL    HW162100   1.053   7.715   3.569  1.3095  2.1409  0.6866
51044SOL    HW262101   1.049   7.726   3.418  0.9757  0.6902  0.5784
51045SOL     OW62102   5.528   4.822  12.534 -0.1134 -0.0379 -0.0567
51045SOL    HW162103   5.561   4.906  12.503  0.0541 -0.0512  0.0876
51045SOL    HW262104   5.594   4.759  12.505  0.1050 -0.0361  0.4387
51046SOL     OW62105   0.399  12.377  11.108  0.1667 -0.5469 -0.5099
51046SOL    HW162106   0.468  12.373  11.041  0.8169  0.5498  0.0718
51046SOL    HW262107   0.434  12.436  11.175 -1.4012  0.1494 -0.2627
51047SOL     OW62108   6.766   7.993   2.380  0.1139  0.1036 -0.3627
51047SOL    HW162109   6.762   7.926   2.448 -2.0141  1.8096  1.3617
51047SOL    HW262110   6.842   7.970   2.327  1.9948 -1.2562  2.6976
51048SOL     OW62111   8.136  10.876   7.280 -0.4713 -0.7767  0.6238
51048SOL    HW162112   8.053  10.871   7.327 -1.3299  1.5699 -0.4941
51048SOL    HW262113   8.159  10.968   7.281  0.9894 -1.0706 -1.0096
51049SOL     OW62114  10.624   0.742   0.176 -0.0496 -0.1506 -0.7397
51049SOL    HW162115  10.591   0.704   0.257 -0.0230  1.5845  0.1178
51049SOL    HW262116  10.695   0.684   0.149 -0.1834 -0.8443  0.3728
51050SOL     OW62117   2.021   1.575   3.614 -0.2528  0.3043  0.1443
51050SOL    HW162118   1.931   1.546   3.628 -0.2600  0.7642  1.1191
51050SOL    HW262119   2.022   1.609   3.524 -0.6177 -1.2491 -0.4955
51051SOL     OW62120   1.597   8.910   9.063  0.5797  0.0111 -0.1169
51051SOL    HW162121   1.642   8.830   9.036  2.0406  0.6802  0.2583
51051SOL    HW262122   1.643   8.938   9.142 -0.9492  0.3701  0.6820
51052SOL     OW62123   0.274   0.259   2.131  0.5318  0.3436  0.3428
51052SOL    HW162124   0.302   0.351   2.128  0.9647  0.1962 -0.3075
51052SOL    HW262125   0.351   0.211   2.159  0.9586 -0.0512 -1.3729
51053SOL     OW62126   7.129   6.508  10.972  0.8707 -0.3930 -0.2945
51053SOL    HW162127   7.126   6.598  10.940 -0.9855  0.0967  1.1098
51053SOL    HW262128   7.222   6.485  10.969  1.2224  1.0511 -1.9944
51054SOL     OW62129   3.381  10.370   4.107 -0.4502  0.5835 -0.0921
51054SOL    HW162130   3.309  10.357   4.168 -1.4007 -0.8477 -1.4217
51054SOL    HW262131   3.361  10.312   4.033  1.7053  0.6656 -0.8348
51055SOL     OW62132   8.395  11.082   5.914  0.0738  0.1648  0.3061
51055SOL    HW162133   8.350  11.151   5.865  0.6025 -0.4692 -1.1124
51055SOL    HW262134   8.333  11.010   5.917  0.4001 -0.1521 -0.3144
51056SOL     OW62135   3.072   4.375  11.206 -0.0204 -0.2687  0.3935
51056SOL    HW162136   3.011   4.373  11.280 -1.6148 -3.9385 -0.8081
51056SOL    HW262137   3.062   4.464  11.170 -1.2785  0.7043  2.8485
51057SOL     OW62138   1.864   8.195  11.938 -0.3934 -0.7567  0.3956
51057SOL    HW162139   1.829   8.133  11.874  0.1134 -0.6137 -0.0288
51057SOL    HW262140   1.916   8.256  11.886 -1.6511  0.6009  0.6799
51058SOL     OW62141   1.332   0.100   5.485 -0.6958  0.1958  0.3990
51058SOL    HW162142   1.274   0.106   5.561  2.5453  2.5349  2.9752
51058SOL    HW262143   1.361   0.009   5.484 -1.7161 -0.1581  1.1459
51059SOL     OW62144   1.031   9.273   1.262  0.4284 -0.9480 -0.4738
51059SOL    HW162145   0.998   9.305   1.346  1.3792  0.1362 -0.4917
51059SOL    HW262146   0.957   9.282   1.202  0.5268  0.8326 -0.3702
51060SOL     OW62147   2.707   6.201   5.956 -0.8280 -0.2994 -0.0238
51060SOL    HW162148   2.715   6.272   5.893  2.5199  0.4133  1.0331
51060SOL    HW262149   2.738   6.123   5.910 -0.8830 -0.3209 -0.0256
51061SOL     OW62150   5.951   4.256   0.899 -0.0699  0.2390  0.3246
51061SOL    HW162151   5.934   4.304   0.817 -0.6233  2.5518  1.7054
51061SOL    HW262152   6.029   4.296   0.935  1.9640 -2.7588 -0.3991
51062SOL     OW62153   1.907   3.815   7.041 -0.4081 -0.1495 -0.0730
51062SOL    HW162154   1.847   3.822   7.116 -1.9428 -0.9700 -1.1757
51062SOL    HW262155   1.850   3.801   6.966  1.1820 -0.9305 -1.1878
51063SOL     OW62156   3.045   6.777   8.265 -0.0194  0.5215 -0.0519
51063SOL    HW162157   2.952   6.776   8.244 -0.2077  2.0929  0.5776
51063SOL    HW262158   3.050   6.738   8.352  0.0757 -0.7248 -0.6036
51064SOL     OW62159  11.745   6.382   1.847  0.4739 -0.2539  0.1006
51064SOL    HW162160  11.743   6.371   1.943 -0.9642  1.7817  0.3519
51064SOL    HW262161  11.808   6.316   1.818  0.1446 -1.6922  2.3319
51065SOL     OW62162   6.483   1.006  10.410 -0.2055 -0.3187  0.4453
51065SOL    HW162163   6.419   1.018  10.339  0.5434  0.7146 -0.0702
51065SOL    HW262164   6.514   0.916  10.399 -1.6156 -0.8680  0.7547
51066SOL     OW62165   8.210   3.437   7.818 -0.1085  0.0338  0.4477
51066SOL    HW162166   8.117   3.447   7.801 -0.5912 -3.1937  0.6571
51066SOL    HW262167   8.223   3.474   7.905 -0.3503  3.8177 -0.9307
51067SOL     OW62168   7.758  12.345   6.277  0.3648  0.5240 -0.0311
51067SOL    HW162169   7.840  12.307   6.310 -0.0419 -0.8227 -0.4857
51067SOL    HW262170   7.754  12.318   6.185 -1.5599 -1.2576  0.4951
51068SOL     OW62171  11.777  11.932   1.581  0.0645  0.0687  0.0320
51068SOL    HW162172  11.776  12.010   1.525  0.5536  0.1066  0.0696
51068SOL    HW262173  11.830  11.958   1.657  0.6415 -0.4564 -0.1871
51069SOL     OW62174  11.287   7.598   1.075 -0.0004 -0.6427  0.1644
51069SOL    HW162175  11.249   7.514   1.102  2.1205 -1.3561  1.2061
51069SOL    HW262176  11.357   7.573   1.014 -0.1565  0.4933 -0.5066
51070SOL     OW62177   6.033   4.256   0.384 -0.3042 -0.1513 -0.3648
51070SOL    HW162178   5.958   4.197   0.397 -1.9799  1.8541 -0.4653
51070SOL    HW262179   6.059   4.281   0.473  1.1726 -1.8285 -0.2526
51071SOL     OW62180   6.634   9.623   5.885 -0.2399  0.1460  0.0544
51071SOL    HW162181   6.704   9.683   5.913  0.0298 -0.1883  0.1082
51071SOL    HW262182   6.591   9.597   5.967 -0.6341  0.5955 -0.0040
51072SOL     OW62183   0.028   3.088  10.667 -0.2127 -0.1491 -0.4791
51072SOL    HW162184   0.009   3.177  10.638  2.7469  0.3208 -1.3654
51072SOL    HW262185   0.116   3.070  10.634  0.5852 -2.2637  2.3493
51073SOL     OW62186   8.992   6.550   9.843  0.0974 -0.2737  0.7567
51073SOL    HW162187   9.062   6.538   9.907 -2.1341 -1.2722  3.1889
51073SOL    HW262188   8.944   6.627   9.874 -0.7583 -0.4700 -0.0279
51074SOL     OW62189  11.310   7.909   8.048  0.7833  0.8078  0.2133
51074SOL    HW162190  11.282   7.817   8.047 -0.6956  1.2399 -0.9878
51074SOL    HW262191  11.242   7.955   7.999 -0.1731  3.0373  3.3259
51075SOL     OW62192   2.831   3.034   8.089  0.1478  1.3782 -0.4087
51075SOL    HW162193   2.907   2.976   8.088  1.6094  3.1686 -1.5547
51075SOL    HW262194   2.869   3.122   8.082 -2.0411  2.3525 -0.7889
51076SOL     OW62195   4.097   5.129   5.823 -0.2408 -0.2948  0.3480
51076SOL    HW162196   4.042   5.111   5.747  0.0906  1.1486 -0.2693
51076SOL    HW262197   4.166   5.062   5.818 -1.8287 -2.0794  1.0937
51077SOL     OW62198   9.312   1.717   7.731  0.2463 -0.3823 -0.4554
51077SOL    HW162199   9.383   1.744   7.789 -0.0676  2.4247 -1.2427
51077SOL    HW262200   9.239   1.698   7.789  0.8623 -0.7275  0.2185
51078SOL     OW62201   1.045   7.911   1.310  0.2774  0.3318  0.2957
51078SOL    HW162202   0.967   7.861   1.335 -0.2847  1.2591  0.4321
51078SOL    HW262203   1.059   7.888   1.218 -0.8377  1.0187 -0.0615
51079SOL     OW62204  11.433   1.206   6.413  0.1293 -0.8489 -0.4013
51079SOL    HW162205  11.431   1.159   6.497  0.0742 -0.8001 -0.3751
51079SOL    HW262206  11.428   1.137   6.347 -1.5513 -0.8097 -0.3541
51080SOL     OW62207   8.486  10.648   8.772  0.3693  0.5730 -0.8525
51080SOL    HW162208   8.523  10.698   8.845  0.0374  2.1074 -1.7055
51080SOL    HW262209   8.398  10.682   8.761 -0.9692 -2.1842  0.3365
51081SOL     OW62210   8.421   1.112   6.826 -0.0583 -0.2206  0.4979
51081SOL    HW162211   8.367   1.066   6.763  0.5797  0.5567 -0.6500
51081SOL    HW262212   8.466   1.043   6.875 -1.5865 -0.8599  1.0667
51082SOL     OW62213   2.174   9.047  12.134  0.2925  0.0289 -0.1661
51082SOL    HW162214   2.254   9.037  12.082 -1.2960 -0.2554 -2.7441
51082SOL    HW262215   2.154   8.958  12.163  1.0053  0.1379  0.7160
51083SOL     OW62216   1.059   9.174   1.889 -0.0478 -0.8172 -0.0366
51083SOL    HW162217   0.993   9.174   1.958 -0.0634 -0.7024 -0.0512
51083SOL    HW262218   1.009   9.183   1.808  0.0956  1.6054  0.0677
51084SOL     OW62219   8.025   2.551  10.574  0.2297  0.2214 -0.2431
51084SOL    HW162220   7.939   2.547  10.532 -0.3147 -0.0561  0.8565
51084SOL    HW262221   8.087   2.529  10.504 -0.7134 -1.2292 -0.6730
51085SOL     OW62222   1.934  10.375   1.976  0.3091 -0.3268  0.6239
51085SOL    HW162223   2.029  10.373   1.988  0.2993  0.0148  0.7897
51085SOL    HW262224   1.904  10.443   2.038 -0.1076 -0.8841  1.0446
51086SOL     OW62225   8.773   2.040   7.176  0.4054  0.2729  0.7716
51086SOL    HW162226   8.758   2.016   7.267 -0.0937 -0.3963  0.5231
51086SOL    HW262227   8.715   1.983   7.126  1.2897  0.0340 -0.0238
51087SOL     OW62228   6.332   0.782   3.421 -0.2506  0.4246 -0.2946
51087SOL    HW162229   6.267   0.814   3.483  0.1849  0.9114 -0.0775
51087SOL    HW262230   6.412   0.772   3.472 -0.7795 -2.8081  0.0607
51088SOL     OW62231   1.843   4.993   0.005  0.0646  0.6318  0.0393
51088SOL    HW162232   1.776   4.945   0.054 -0.0523 -0.0779 -0.7971
51088SOL    HW262233   1.925   4.948   0.027 -0.2026 -0.8792 -1.7918
51089SOL     OW62234   4.832  11.564   0.779 -0.1549  0.4157 -0.1273
51089SOL    HW162235   4.787  11.506   0.718  2.2183 -2.0357  0.2602
51089SOL    HW262236   4.911  11.591   0.732  1.7112 -1.5160  1.6820
51090SOL     OW62237   6.639   5.007  11.437 -0.3059  0.1153  0.8786
51090SOL    HW162238   6.732   4.989  11.422  0.0753  1.3913  1.5729
51090SOL    HW262239   6.634   5.028  11.530 -1.2783  0.2057  0.8159
51091SOL     OW62240   0.952   9.388   7.510 -0.6540 -0.5246  0.0608
51091SOL    HW162241   0.894   9.447   7.460 -0.2969 -1.2179 -1.2055
51091SOL    HW262242   1.040   9.408   7.478 -0.5562 -1.9639 -0.6544
51092SOL     OW62243   3.166   0.212   0.854 -0.5284 -0.4764 -0.5598
51092SOL    HW162244   3.257   0.212   0.825 -0.0148 -0.7554  0.9693
51092SOL    HW262245   3.142   0.304   0.860  0.4941 -0.3054  1.4749
51093SOL     OW62246  12.264   0.922  10.676 -0.0555 -0.1041  0.0086
51093SOL    HW162247  12.233   0.883  10.757  0.8910  2.4413  1.7539
51093SOL    HW262248  12.262   1.017  10.693  1.6300  0.4658 -2.3836
51094SOL     OW62249   5.387   5.324   4.358  0.2051  0.5964  0.0699
51094SOL    HW162250   5.390   5.299   4.450 -0.0010  0.0890 -0.0600
51094SOL    HW262251   5.456   5.390   4.349  0.8416 -0.0198  0.3898
51095SOL     OW62252  12.519   9.207   2.245 -0.3081 -0.6244 -0.5964
51095SOL    HW162253  12.551   9.159   2.168  0.7498  0.3492 -0.7997
51095SOL    HW262254  12.533   9.299   2.223 -0.3306 -0.3114  0.6166
51096SOL     OW62255   9.109   9.855  11.519  0.2790  0.4409 -0.5190
51096SOL    HW162256   9.058   9.915  11.466 -0.0242  0.4808 -0.1852
51096SOL    HW262257   9.163   9.806  11.456 -0.2616  0.3039 -0.8826
51097SOL     OW62258  12.517   7.986  11.650 -0.1244 -0.5643 -0.1690
51097SOL    HW162259  12.496   8.076  11.625  1.6701  0.1272  0.6246
51097SOL    HW262260  12.479   7.976  11.737  1.9134  0.3831  0.8894
51098SOL     OW62261  11.601  12.383   1.221  0.0186  0.4713  0.3204
51098SOL    HW162262  11.681  12.434   1.236  0.9306 -1.1864  1.4994
51098SOL    HW262263  11.560  12.377   1.307 -1.1172  0.8552 -0.1828
51099SOL     OW62264   9.797   5.327   3.131  0.0459  0.2582 -0.1053
51099SOL    HW162265   9.783   5.394   3.065  0.8619  0.3841 -0.1694
51099SOL    HW262266   9.867   5.362   3.187  0.0614 -0.2699  0.2210
51100SOL     OW62267   5.200   7.624   5.328  0.1478  0.7815 -0.3052
51100SOL    HW162268   5.275   7.603   5.384 -0.1962  0.6347  0.1053
51100SOL    HW262269   5.216   7.576   5.247  0.0505  0.0215  0.1185
51101SOL     OW62270   7.271   4.245   3.550 -0.3027 -0.2257  0.1457
51101SOL    HW162271   7.347   4.272   3.498  0.2389 -2.3134 -0.2426
51101SOL    HW262272   7.305   4.231   3.638 -0.7166  0.9417  0.5066
51102SOL     OW62273   7.558  11.405   5.690  0.2104 -0.1926  0.3113
51102SOL    HW162274   7.548  11.486   5.642  1.4140 -0.1660  0.0756
51102SOL    HW262275   7.630  11.359   5.646  0.5004 -0.7270  1.3040
51103SOL     OW62276   5.393   5.944   3.351  0.2611  0.3827 -0.0854
51103SOL    HW162277   5.362   5.921   3.263 -0.3956  1.5622 -0.1915
51103SOL    HW262278   5.421   6.036   3.343 -1.0371  0.9368  1.2227
51104SOL     OW62279   2.351  12.147   7.151 -0.2475 -0.3621  0.6012
51104SOL    HW162280   2.328  12.175   7.063 -1.2604 -0.6188  0.7807
51104SOL    HW262281   2.319  12.217   7.208 -1.0726 -0.9756  0.8955
51105SOL     OW62282  11.680   8.100   9.006  0.2689  0.4217 -0.6284
51105SOL    HW162283  11.589   8.110   8.979  0.1073 -0.3135 -0.3984
51105SOL    HW262284  11.683   8.138   9.094 -0.7444 -2.7656  0.9733
51106SOL     OW62285   5.864   0.259  12.162  0.2293  0.0030 -0.3350
51106SOL    HW162286   5.815   0.201  12.104  0.6568  0.0841 -0.7890
51106SOL    HW262287   5.874   0.209  12.243 -0.5887 -0.0162 -0.2375
51107SOL     OW62288  11.703   8.012   3.395 -0.0884 -0.2064  0.1113
51107SOL    HW162289  11.756   8.008   3.315 -1.0164 -1.1582 -0.4734
51107SOL    HW262290  11.659   7.927   3.399 -1.4394  0.4927  0.6766
51108SOL     OW62291   0.157   5.425   3.366 -0.3398  0.2097 -0.1907
51108SOL    HW162292   0.207   5.405   3.287  0.1046  1.3793 -0.2249
51108SOL    HW262293   0.202   5.377   3.435 -1.0542 -1.2636 -0.7085
51109SOL     OW62294   1.049   3.477   6.945 -0.0959  0.1893  0.7064
51109SOL    HW162295   1.051   3.382   6.947  0.5880  0.1271 -1.2036
51109SOL    HW262296   0.990   3.502   7.017  0.5410 -1.6086  1.9131
51110SOL     OW62297   4.396  11.667   3.509  0.5344 -0.4371 -1.0022
51110SOL    HW162298   4.413  11.752   3.469  0.6873  0.1915  0.3682
51110SOL    HW262299   4.328  11.683   3.573  0.9781 -1.2288 -0.3116
51111SOL     OW62300   3.973   8.962   1.352  0.4967  0.4375  0.5646
51111SOL    HW162301   3.988   8.949   1.258  2.6390 -1.2466  1.0693
51111SOL    HW262302   3.959   9.057   1.360  0.7528  0.6931 -1.3881
51112SOL     OW62303   0.062   1.998  10.588  0.9809  0.9658  0.6392
51112SOL    HW162304   0.092   1.911  10.562 -1.3624  0.1469  0.4680
51112SOL    HW262305   0.109   2.058  10.530  2.7306 -0.1383  0.8456
51113SOL     OW62306   9.129   0.395   7.320  0.3148  0.0535 -0.2989
51113SOL    HW162307   9.150   0.379   7.412  1.7358 -1.5558 -0.8434
51113SOL    HW262308   9.102   0.487   7.317  0.7945  0.2998  1.6179
51114SOL     OW62309   6.448   3.756  11.571 -0.4188  0.3796 -0.0890
51114SOL    HW162310   6.509   3.822  11.604  0.3821 -0.1876 -0.3933
51114SOL    HW262311   6.365   3.802  11.559 -0.2356  1.0142  0.9790
51115SOL     OW62312   2.088   1.699   9.914 -0.1592 -0.2128  0.4175
51115SOL    HW162313   2.174   1.660   9.930  0.0251  0.3201  0.7306
51115SOL    HW262314   2.062   1.665   9.828 -0.2347 -1.4393  0.9113
51116SOL     OW62315   6.735   6.238   1.949  0.1223  0.3155 -0.0238
51116SOL    HW162316   6.693   6.296   1.885  1.0131  2.4937  1.2383
51116SOL    HW262317   6.686   6.253   2.030  2.1315  1.5866  1.0334
51117SOL     OW62318   1.487   8.531  10.714 -0.5953 -0.1915 -0.1947
51117SOL    HW162319   1.541   8.585  10.772 -2.4771 -0.8266  2.2727
51117SOL    HW262320   1.514   8.558  10.626  0.5695  2.6934  0.9117
51118SOL     OW62321   7.187   6.312   0.874  0.0961  0.5385  0.2985
51118SOL    HW162322   7.256   6.257   0.835  0.5946  2.2253 -1.3600
51118SOL    HW262323   7.128   6.249   0.915  0.6639 -1.2736 -1.4314
51119SOL     OW62324   8.165   1.239   7.146 -0.3919 -0.2287  0.0706
51119SOL    HW162325   8.080   1.243   7.101 -0.3664  0.2882  0.0563
51119SOL    HW262326   8.144   1.211   7.235 -0.1759 -4.1804 -0.9261
51120SOL     OW62327   5.660   8.764   0.497  0.1777 -0.1849  0.3940
51120SOL    HW162328   5.743   8.726   0.468 -0.2821 -1.4218  0.6024
51120SOL    HW262329   5.619   8.694   0.549 -1.7504 -0.2520 -1.0840
51121SOL     OW62330   9.938  12.548   2.943  0.3430  0.3723  0.3156
51121SOL    HW162331  10.022  12.577   2.979  1.2743 -0.8863 -0.7309
51121SOL    HW262332   9.957  12.462   2.904 -1.1477  0.5993 -1.0160
51122SOL     OW62333   0.406   3.954  10.046 -0.0031  0.2250 -0.5885
51122SOL    HW162334   0.441   3.984  10.130  2.3159  1.7350 -1.9724
51122SOL    HW262335   0.328   4.008  10.032  0.4764  1.0715 -0.0911
51123SOL     OW62336   4.010   8.489   2.088 -0.2313 -0.0922 -0.0815
51123SOL    HW162337   4.089   8.489   2.033  0.2343 -0.4425  0.5727
51123SOL    HW262338   4.042   8.469   2.176 -1.2066 -1.7043 -0.0515
51124SOL     OW62339   4.188  12.362   4.081  0.3394  0.4360 -0.0226
51124SOL    HW162340   4.151  12.418   4.149  0.2511 -0.2830  0.5299
51124SOL    HW262341   4.184  12.274   4.118  0.3970  0.0535 -0.9139
51125SOL     OW62342  11.109   2.842   6.711 -0.5878  0.0864  0.2666
51125SOL    HW162343  11.103   2.935   6.729 -0.1249  0.1537  0.0740
51125SOL    HW262344  11.052   2.829   6.635 -0.1751  0.3215 -0.0894
51126SOL     OW62345  11.135   1.288   9.070  0.7365 -0.1094 -0.1304
51126SOL    HW162346  11.072   1.243   9.127  0.4613  0.0583 -0.3034
51126SOL    HW262347  11.210   1.228   9.066 -0.0503 -1.0818 -1.2260
51127SOL     OW62348  11.787   3.392   6.701 -0.5585 -0.1157  0.0058
51127SOL    HW162349  11.767   3.336   6.627  1.9201 -0.6690 -0.3068
51127SOL    HW262350  11.832   3.468   6.663 -1.0192  0.5651  0.7625
51128SOL     OW62351   1.974   1.694   3.373 -0.0089 -0.6411 -0.0133
51128SOL    HW162352   2.037   1.762   3.351  0.3486 -1.2453 -0.8928
51128SOL    HW262353   1.903   1.741   3.417  0.8041  0.1175  0.5182
51129SOL     OW62354   5.603   7.420   4.646 -0.0789  0.4911  0.8983
51129SOL    HW162355   5.659   7.405   4.570 -2.0482 -2.6908 -0.1442
51129SOL    HW262356   5.645   7.371   4.717 -0.4080 -0.1412  0.6689
51130SOL     OW62357   9.394   6.392  11.423 -0.5716  0.3929  0.5073
51130SOL    HW162358   9.440   6.346  11.493 -0.0295  1.6599  1.0180
51130SOL    HW262359   9.327   6.330  11.394  0.2487 -0.7734  1.0240
51131SOL     OW62360   7.919   8.562   4.622 -0.6014  0.3366 -0.0252
51131SOL    HW162361   7.961   8.481   4.652 -0.1410  0.5074 -0.1994
51131SOL    HW262362   7.959   8.579   4.537 -0.5727  0.8415  0.0889
51132SOL     OW62363   9.559   6.904  11.101 -0.1990  0.1868 -0.8553
51132SOL    HW162364   9.521   6.816  11.103  0.6479 -0.2017  2.1823
51132SOL    HW262365   9.489   6.961  11.132  1.1471 -0.4658  4.2295
51133SOL     OW62366   9.533   7.892   0.099 -0.2112 -0.5039  0.9460
51133SOL    HW162367   9.572   7.884   0.012 -1.5085  0.9414  0.1805
51133SOL    HW262368   9.526   7.986   0.114 -1.1420 -0.7302  2.0923
51134SOL     OW62369  10.622   3.451   3.808 -0.3072  0.0016 -0.5123
51134SOL    HW162370  10.540   3.446   3.857  0.1084 -0.6464  0.1431
51134SOL    HW262371  10.615   3.532   3.758 -0.5983  0.8730  0.8894
51135SOL     OW62372   3.487   4.753   2.414  0.1399  0.1318 -0.0694
51135SOL    HW162373   3.429   4.774   2.487  0.7729 -1.0075  0.8076
51135SOL    HW262374   3.575   4.767   2.449  0.4353  0.6711 -0.9932
51136SOL     OW62375   8.230  12.431  12.272 -0.4012  0.0825 -0.4725
51136SOL    HW162376   8.210  12.518  12.306 -0.4008 -0.1095  0.0320
51136SOL    HW262377   8.145  12.396  12.243 -0.1143  1.0717 -2.6958
51137SOL     OW62378   5.773  11.018   9.125 -0.2075 -0.5613 -0.4500
51137SOL    HW162379   5.822  11.063   9.055  0.9295 -2.1098 -0.7051
51137SOL    HW262380   5.693  10.988   9.082 -0.4322  0.1840 -0.5723
51138SOL     OW62381  10.985   2.176   2.965 -0.1081  0.0521  0.0609
51138SOL    HW162382  10.922   2.124   2.914 -2.0324  0.7417  1.6228
51138SOL    HW262383  10.955   2.266   2.956 -0.5017  0.2051  2.3122
51139SOL     OW62384   2.589  10.136   8.923  0.1613 -0.2651  0.0590
51139SOL    HW162385   2.529  10.129   8.997  1.9166  2.0451  1.8487
51139SOL    HW262386   2.662  10.078   8.945  0.8307  0.6597  0.3237
51140SOL     OW62387   9.358   5.692  10.468  0.6742 -0.7800  0.8924
51140SOL    HW162388   9.421   5.634  10.512  3.2143  0.4357 -0.9274
51140SOL    HW262389   9.373   5.678  10.375  0.3445  1.7075  0.3974
51141SOL     OW62390  12.514  11.413   8.205 -0.4065  0.3453  0.0659
51141SOL    HW162391  12.448  11.471   8.241  0.4990  0.4108  1.7235
51141SOL    HW262392  12.524  11.344   8.271  1.5629  0.6608  0.1562
51142SOL     OW62393   1.152  11.061   7.296 -0.8515  0.0737  0.2663
51142SOL    HW162394   1.092  11.026   7.362  0.6036 -0.2294  1.4870
51142SOL    HW262395   1.164  11.152   7.322  0.1409 -0.1883  0.7657
51143SOL     OW62396   5.413   7.676   3.237  0.9679  0.1918 -0.3060
51143SOL    HW162397   5.443   7.589   3.212  1.1372  0.5214 -1.2972
51143SOL    HW262398   5.449   7.734   3.170  0.5143  0.9753  0.1112
51144SOL     OW62399   2.812   8.233  10.444 -0.5588 -0.0908  0.0416
51144SOL    HW162400   2.805   8.322  10.479  1.1897 -0.1000  0.5220
51144SOL    HW262401   2.877   8.240  10.374  0.1398 -1.0969  0.5542
51145SOL     OW62402  12.416   6.052   1.262 -0.5948 -0.4635 -0.0633
51145SOL    HW162403  12.399   6.061   1.356 -2.4334  0.7872 -0.4652
51145SOL    HW262404  12.385   5.964   1.240  1.1756 -1.3217  0.7287
51146SOL     OW62405   2.025   4.140  10.015  0.1005 -0.2081  0.2130
51146SOL    HW162406   2.002   4.093  10.096  0.5625 -1.1328 -0.1737
51146SOL    HW262407   2.091   4.203  10.041 -0.5713  0.2771  0.7607
51147SOL     OW62408   8.785   2.188   5.805 -0.3694  0.1053  0.3460
51147SOL    HW162409   8.839   2.180   5.884 -1.1120 -1.1160  0.7561
51147SOL    HW262410   8.711   2.243   5.833 -1.4123 -1.5397  0.9792
51148SOL     OW62411   7.018   7.653   1.546 -0.2004  0.1502 -0.0939
51148SOL    HW162412   6.980   7.680   1.462  1.1564 -0.0059 -0.7779
51148SOL    HW262413   7.005   7.558   1.548 -2.0221  0.3716  0.8180
51149SOL     OW62414   5.727   8.454  12.480  1.0864  0.2179  0.5315
51149SOL    HW162415   5.742   8.397  12.405 -2.5027  0.7871 -0.8514
51149SOL    HW262416   5.757   8.540  12.451  0.4963  0.2664  0.0401
51150SOL     OW62417   6.656   3.859  10.334  0.5249  0.3074 -0.1562
51150SOL    HW162418   6.749   3.838  10.334  0.1717 -1.5468 -1.6702
51150SOL    HW262419   6.632   3.866  10.242 -0.5511  2.4368  0.1979
51151SOL     OW62420   4.560   5.883  10.793 -0.8484 -0.1379  0.5770
51151SOL    HW162421   4.472   5.870  10.757 -1.0091 -0.7011  1.1485
51151SOL    HW262422   4.618   5.881  10.717 -1.4740  1.9179 -0.0108
51152SOL     OW62423   8.042   6.107   5.479 -0.2824  0.2272  0.9288
51152SOL    HW162424   8.094   6.186   5.496 -0.7734  0.8126 -0.1396
51152SOL    HW262425   8.106   6.042   5.451 -0.1650  1.2605 -1.4611
51153SOL     OW62426   8.123   2.200   4.077 -0.5406 -0.6583 -0.2397
51153SOL    HW162427   8.199   2.183   4.021 -1.5397 -0.2132 -1.8035
51153SOL    HW262428   8.064   2.252   4.022 -1.3433  0.2790  1.4352
51154SOL     OW62429   4.131   0.591   2.411 -0.0552 -0.2958  0.0751
51154SOL    HW162430   4.223   0.603   2.434 -0.6000  1.0329  1.7685
51154SOL    HW262431   4.104   0.675   2.374 -0.4255 -0.8981 -1.0562
51155SOL     OW62432   3.985   2.205  10.274  0.0302  0.3889 -0.9090
51155SOL    HW162433   3.926   2.130  10.278  0.2044  0.2922 -0.1239
51155SOL    HW262434   3.999   2.219  10.180 -0.2855 -0.3362 -1.0692
51156SOL     OW62435   8.483  11.928   8.310  0.0538 -0.2932 -0.0130
51156SOL    HW162436   8.399  11.967   8.334  0.5442  0.5907  0.3512
51156SOL    HW262437   8.461  11.845   8.268 -1.1532  1.1528 -2.4869
51157SOL     OW62438   7.088   9.467  11.979  0.0279  0.2734  0.3250
51157SOL    HW162439   7.085   9.419  11.897  1.2089  0.5846  0.0727
51157SOL    HW262440   7.013   9.526  11.976  0.7343  1.1491 -1.0957
51158SOL     OW62441   3.573  11.670   6.900 -0.1732 -0.2494  0.0857
51158SOL    HW162442   3.627  11.721   6.839 -0.4258 -3.0748 -2.7959
51158SOL    HW262443   3.635  11.639   6.966  0.2401  2.3905  1.0533
51159SOL     OW62444   3.430   9.269   2.181 -0.6230 -0.0845 -0.7030
51159SOL    HW162445   3.337   9.257   2.201 -0.8411 -0.3641 -1.8019
51159SOL    HW262446   3.433   9.277   2.086  0.3270  1.5039 -0.5742
51160SOL     OW62447   2.821   3.430   8.088  0.5467 -0.6219 -0.0081
51160SOL    HW162448   2.876   3.506   8.069  1.4659 -1.3445 -0.2806
51160SOL    HW262449   2.762   3.424   8.013 -1.4163  1.4100  1.2269
51161SOL     OW62450   1.992   3.425   0.245 -0.0446  0.3212 -0.0256
51161SOL    HW162451   1.950   3.502   0.208 -0.5393  0.9100  1.6856
51161SOL    HW262452   1.931   3.353   0.224 -1.3672  0.9750  1.3960
51162SOL     OW62453   7.736   9.206   8.792 -0.8047  0.3034  0.5222
51162SOL    HW162454   7.651   9.207   8.836 -1.0967 -1.5528  0.1000
51162SOL    HW262455   7.790   9.268   8.841 -2.5707  2.0347  0.3766
51163SOL     OW62456   0.992  12.171   8.877  0.4775  0.2023  0.0503
51163SOL    HW162457   0.989  12.107   8.806  1.9479  0.7889 -0.5693
51163SOL    HW262458   0.900  12.183   8.902  0.1435 -1.7902 -0.1191
51164SOL     OW62459   6.281   8.903   2.389 -0.1337  0.3730 -0.2096
51164SOL    HW162460   6.345   8.867   2.451 -1.4094  1.4373  1.8638
51164SOL    HW262461   6.196   8.875   2.424 -0.8734  0.3593 -1.9550
51165SOL     OW62462  12.133   3.165  10.257 -0.3702 -0.1864 -0.3280
51165SOL    HW162463  12.105   3.231  10.321 -0.7130  0.7183 -1.3748
51165SOL    HW262464  12.212   3.127  10.295 -0.2761  0.6963  0.3970
51166SOL     OW62465   8.120   5.234  12.240 -0.2350  0.3290 -0.3501
51166SOL    HW162466   8.148   5.305  12.182  1.7006  0.9138  1.1678
51166SOL    HW262467   8.052   5.188  12.192 -1.0586  2.7846 -1.6841
51167SOL     OW62468   0.205  10.215  11.704 -0.2336 -0.4003  0.7337
51167SOL    HW162469   0.221  10.309  11.699 -0.6101 -0.2482  2.0126
51167SOL    HW262470   0.262  10.184  11.774  1.7771 -1.6108 -1.2869
51168SOL     OW62471   1.414   8.959   5.211 -0.0847  0.4111 -0.4304
51168SOL    HW162472   1.335   8.945   5.159  0.0645  2.4977 -1.3282
51168SOL    HW262473   1.485   8.956   5.148  0.0742  3.2990 -0.5030
51169SOL     OW62474   0.006   1.959   1.466 -0.0913 -0.0062 -0.0157
51169SOL    HW162475   0.000   1.996   1.378  0.6438 -1.3459 -0.6548
51169SOL    HW262476   0.035   1.869   1.453 -2.0609 -0.9593  1.4404
51170SOL     OW62477   6.877   3.850   5.968  0.3445 -0.0938 -0.4216
51170SOL    HW162478   6.947   3.848   5.903  0.2288  1.3904 -0.6112
51170SOL    HW262479   6.852   3.758   5.978 -0.2934 -0.3104 -3.1944
51171SOL     OW62480   9.580   7.048   7.320  0.0471 -0.2714 -0.2335
51171SOL    HW162481   9.591   7.105   7.395 -1.0173 -1.9864  1.3353
51171SOL    HW262482   9.490   7.064   7.291  0.6900  0.9265 -1.6729
51172SOL     OW62483   4.649   2.548   4.627 -0.4438 -0.0899  0.7002
51172SOL    HW162484   4.577   2.487   4.645 -1.3609  1.0700  1.0834
51172SOL    HW262485   4.714   2.527   4.694  0.1797 -1.9946 -0.4049
51173SOL     OW62486   1.331   6.732   8.953 -0.7067 -0.3052 -0.2584
51173SOL    HW162487   1.355   6.672   9.023  0.4525  0.2328 -0.1668
51173SOL    HW262488   1.272   6.681   8.897 -0.0678 -1.4050  0.0252
51174SOL     OW62489   2.645   4.972   0.743  0.6026 -0.8401  0.3053
51174SOL    HW162490   2.676   4.888   0.708 -0.9447 -1.1957 -0.2942
51174SOL    HW262491   2.634   4.956   0.837 -1.7700 -2.0486 -0.1034
51175SOL     OW62492  11.224   8.574   6.616  0.3181 -0.0520  0.3730
51175SOL    HW162493  11.151   8.545   6.562  0.1971  0.2168  0.3908
51175SOL    HW262494  11.210   8.668   6.627  0.6565 -0.0018  0.3910
51176SOL     OW62495   6.091   2.236   7.948  0.0073 -0.1229  0.7483
51176SOL    HW162496   6.076   2.231   8.043  0.4756 -3.7031  0.7542
51176SOL    HW262497   6.157   2.304   7.938  2.2512 -1.7093  3.3904
51177SOL     OW62498  11.911   9.382   2.389  0.2944  0.4713 -0.2751
51177SOL    HW162499  11.826   9.392   2.347 -1.1702 -0.0329  2.3609
51177SOL    HW262500  11.918   9.289   2.409  1.1579  0.6197  0.1884
51178SOL     OW62501   7.062   6.757   5.285 -0.3791 -0.0372 -0.2525
51178SOL    HW162502   7.120   6.682   5.293 -0.4010  0.0628  1.0015
51178SOL    HW262503   6.995   6.729   5.221  0.0715 -0.7691 -0.4116
51179SOL     OW62504   5.677   8.746   6.640 -1.1201  0.2066  0.5924
51179SOL    HW162505   5.693   8.728   6.547 -1.5590  1.1463  0.3178
51179SOL    HW262506   5.652   8.662   6.677  0.1835 -0.4147  0.1131
51180SOL     OW62507  11.758   8.476   2.140  0.1754 -0.4651 -0.2061
51180SOL    HW162508  11.713   8.450   2.060 -1.3438  1.1465  0.0770
51180SOL    HW262509  11.773   8.394   2.187 -2.5016 -1.0737 -0.3022
51181SOL     OW62510   0.964   6.773  11.115 -0.5570  0.0708  0.4867
51181SOL    HW162511   0.988   6.853  11.068  2.7673 -0.3305  1.2372
51181SOL    HW262512   0.918   6.804  11.193 -1.6619  1.0299 -0.5039
51182SOL     OW62513   0.696   1.642   1.864  0.0112 -0.1326  0.1329
51182SOL    HW162514   0.735   1.579   1.803  0.0836  0.0590 -0.0202
51182SOL    HW262515   0.738   1.624   1.948 -0.0751 -0.3855  0.1251
51183SOL     OW62516   6.713   9.781   9.172  0.2976  0.3940  0.2983
51183SOL    HW162517   6.689   9.704   9.122  2.3285 -1.7082  2.2966
51183SOL    HW262518   6.786   9.820   9.123 -1.3694  1.7326 -1.2376
51184SOL     OW62519   0.798   9.048   6.139 -0.0828 -0.2676 -0.6699
51184SOL    HW162520   0.819   8.983   6.072  0.0940 -0.5973 -0.2948
51184SOL    HW262521   0.704   9.038   6.154 -0.2035  0.0913 -1.1683
51185SOL     OW62522  12.303   0.414   6.310 -0.1737 -0.5820  0.3360
51185SOL    HW162523  12.259   0.471   6.372 -0.6406 -2.4855  1.8585
51185SOL    HW262524  12.395   0.418   6.334 -0.0504  0.2817 -0.2332
51186SOL     OW62525   8.646   8.650  12.366  0.5363  0.6625  0.2061
51186SOL    HW162526   8.586   8.656  12.291 -1.4232  3.0819  1.8196
51186SOL    HW262527   8.731   8.674  12.329 -0.4053  2.0069 -1.2551
51187SOL     OW62528   1.935   7.002   6.372 -0.9502 -0.1444  0.0274
51187SOL    HW162529   1.980   6.943   6.432 -0.1382  0.4823  0.0479
51187SOL    HW262530   1.964   6.975   6.285 -0.0878  0.5937  0.0658
51188SOL     OW62531   2.238   1.140   7.816 -0.4241 -0.1249 -0.5322
51188SOL    HW162532   2.198   1.214   7.771 -0.4892 -0.5506 -1.1928
51188SOL    HW262533   2.182   1.125   7.892  0.1045  1.0652  0.0963
51189SOL     OW62534   1.553   0.224   8.657 -0.2682  0.2698 -0.5711
51189SOL    HW162535   1.637   0.270   8.652 -0.3309  0.3605 -0.7889
51189SOL    HW262536   1.559   0.171   8.737 -0.4430  1.1583  0.0507
51190SOL     OW62537   6.266  12.145   4.382 -0.3309  0.3344  0.3416
51190SOL    HW162538   6.284  12.205   4.454 -1.3506 -0.2724  1.1173
51190SOL    HW262539   6.218  12.073   4.421  0.0398 -0.5416 -0.7564
51191SOL     OW62540   1.726   1.156   2.052 -0.6143 -0.0618  0.0295
51191SOL    HW162541   1.650   1.110   2.016 -1.7194  0.8037  1.1479
51191SOL    HW262542   1.770   1.195   1.976 -2.3522  0.9719 -0.4946
51192SOL     OW62543   0.317   2.221   1.096 -0.1819  0.5024 -0.4380
51192SOL    HW162544   0.318   2.275   1.017 -0.5138  0.8605 -0.2025
51192SOL    HW262545   0.404   2.232   1.134  0.2026 -0.1845 -1.0895
51193SOL     OW62546   2.589   5.191   5.932 -0.2187 -0.1239  0.5512
51193SOL    HW162547   2.576   5.158   5.843 -0.0184  2.5347 -0.5591
51193SOL    HW262548   2.647   5.126   5.973 -0.6906 -1.6570 -1.0670
51194SOL     OW62549   7.879  10.692  11.884  0.3995 -0.2310  0.8496
51194SOL    HW162550   7.889  10.762  11.819  2.1627 -0.5391  0.7260
51194SOL    HW262551   7.819  10.630  11.843  1.0849 -0.1798 -0.3034
51195SOL     OW62552   3.937   8.955   8.061 -0.4501 -0.2162  0.2510
51195SOL    HW162553   3.944   8.860   8.068  2.7768 -0.2248 -1.2973
51195SOL    HW262554   3.944   8.973   7.968 -0.7825  1.5812  0.5333
51196SOL     OW62555   5.577  10.698   3.840 -0.2459 -0.0064  0.0102
51196SOL    HW162556   5.619  10.662   3.762 -2.1601  0.4676 -1.2974
51196SOL    HW262557   5.494  10.734   3.809 -1.1169  0.1278  2.2839
51197SOL     OW62558   6.621   1.254   6.498  0.3966  0.9955  0.4858
51197SOL    HW162559   6.557   1.289   6.560  0.0697  2.9253 -0.8691
51197SOL    HW262560   6.674   1.329   6.472  1.5633 -0.0834 -0.3725
51198SOL     OW62561  12.444   9.896  12.134  0.0319 -0.4821  0.0025
51198SOL    HW162562  12.472   9.886  12.225 -1.5464  0.0911  0.5725
51198SOL    HW262563  12.393   9.817  12.116 -1.0104  0.1514  0.1418
51199SOL     OW62564   8.895  11.707   4.894  0.4442  0.4852  0.2405
51199SOL    HW162565   8.804  11.678   4.898 -0.2043  2.1632 -1.2017
51199SOL    HW262566   8.946  11.626   4.902 -1.1415 -0.4872  1.1535
51200SOL     OW62567   1.108   9.054   5.488  0.4184  0.3714  0.1443
51200SOL    HW162568   1.196   9.075   5.458  1.5962 -1.7022  1.8946
51200SOL    HW262569   1.084   8.975   5.438 -0.2124  0.5583  0.1352
51201SOL     OW62570   0.397   3.380   9.872  0.2763  0.2317 -0.1988
51201SOL    HW162571   0.354   3.299   9.898  0.0175 -0.1923 -1.8066
51201SOL    HW262572   0.420   3.366   9.780 -0.0887  2.1108 -0.6237
51202SOL     OW62573   1.647   6.771   6.407  0.9072  0.0949 -0.9968
51202SOL    HW162574   1.573   6.762   6.468  1.3523  3.2959  0.2597
51202SOL    HW262575   1.717   6.718   6.445 -0.0732 -1.2916 -1.0640
51203SOL     OW62576   2.254   5.811  11.513  0.2724  0.3295 -0.0054
51203SOL    HW162577   2.246   5.890  11.459  1.2354 -0.0217 -0.6843
51203SOL    HW262578   2.234   5.739  11.453 -0.8019  0.0540  0.6580
51204SOL     OW62579   8.226   6.517   7.534 -0.1033 -0.2244  0.1782
51204SOL    HW162580   8.299   6.473   7.577 -0.4255 -1.4437 -0.4652
51204SOL    HW262581   8.171   6.548   7.606  0.3938 -0.4218  0.6527
51205SOL     OW62582   1.511   9.443   5.991 -0.0010 -0.2998 -0.2309
51205SOL    HW162583   1.521   9.350   6.012  2.2307 -0.8428 -2.9744
51205SOL    HW262584   1.591   9.484   6.024 -1.0652  0.7590  1.1512
51206SOL     OW62585   5.281   3.479   2.828 -0.6004  0.0651 -0.0030
51206SOL    HW162586   5.363   3.527   2.833 -1.2419  1.1065  1.2378
51206SOL    HW262587   5.223   3.525   2.889 -1.3846 -2.0293  0.9038
51207SOL     OW62588   5.642   1.690   4.167  0.5509  0.1721 -0.1699
51207SOL    HW162589   5.697   1.655   4.097  0.3606  2.0190 -1.3210
51207SOL    HW262590   5.571   1.734   4.121 -0.5533 -0.0578  1.2486
51208SOL     OW62591   5.341   9.456   8.033 -0.4463 -0.1903 -0.3477
51208SOL    HW162592   5.388   9.384   7.991  1.3024  1.2435 -0.9818
51208SOL    HW262593   5.266   9.473   7.976  0.5794  0.1619 -1.6499
51209SOL     OW62594   8.011   7.584   3.247  0.3126  0.0033  0.0339
51209SOL    HW162595   7.991   7.666   3.201 -0.0894 -0.1656 -0.0963
51209SOL    HW262596   8.093   7.602   3.293  1.4060 -0.2035 -1.7283
51210SOL     OW62597   2.652   8.162   0.149 -0.1173  0.3727  0.0413
51210SOL    HW162598   2.589   8.175   0.220 -1.0732  0.3379 -0.7824
51210SOL    HW262599   2.696   8.246   0.140  1.8612 -0.2965  2.3554
51211SOL     OW62600  11.172  10.783   2.715  0.0693 -0.5649 -0.3243
51211SOL    HW162601  11.139  10.809   2.801  1.1084 -0.1135 -0.0418
51211SOL    HW262602  11.165  10.861   2.661  0.7249 -0.4353 -0.2353
51212SOL     OW62603   9.919   6.980   6.375 -0.4520  0.2977 -0.0279
51212SOL    HW162604   9.883   7.066   6.396  0.5484  0.8083 -0.3249
51212SOL    HW262605   9.843   6.922   6.370 -1.0155  0.8350  1.6539
51213SOL     OW62606   4.084   9.393   0.879 -0.5047 -0.7795  0.1767
51213SOL    HW162607   4.020   9.421   0.813  0.1488 -1.4447 -0.7760
51213SOL    HW262608   4.162   9.446   0.860  0.4951 -2.5923 -1.1707
51214SOL     OW62609   9.289   7.218   2.102  0.1849 -0.1449 -0.0437
51214SOL    HW162610   9.225   7.288   2.097  0.7971  0.4503  0.3691
51214SOL    HW262611   9.301   7.190   2.011 -0.1966  0.1612 -0.1886
51215SOL     OW62612   5.600   9.569   2.758 -0.1433  0.3918 -0.3112
51215SOL    HW162613   5.637   9.596   2.674 -1.2706 -0.2859 -1.0330
51215SOL    HW262614   5.569   9.480   2.744 -4.2943  1.6775 -0.5220
51216SOL     OW62615   2.805  10.133   8.573  0.4894 -0.6081 -0.0201
51216SOL    HW162616   2.817  10.090   8.657  1.7670  0.8732  0.6062
51216SOL    HW262617   2.827  10.065   8.508 -0.3814 -1.7188  0.8183
51217SOL     OW62618   5.926   8.630  11.213  0.2898 -0.4750  0.0403
51217SOL    HW162619   5.879   8.712  11.201  0.8254 -0.1470  0.1280
51217SOL    HW262620   5.990   8.629  11.142  1.3862 -0.0161  0.9883
51218SOL     OW62621  12.186   6.513  12.466  0.1977 -0.2092 -0.6074
51218SOL    HW162622  12.272   6.517  12.424  0.6080  2.0011  0.3470
51218SOL    HW262623  12.124   6.509  12.392  1.0506 -1.3435 -1.3064
51219SOL     OW62624   4.786   9.437  10.349  0.0094 -0.5120 -0.0823
51219SOL    HW162625   4.739   9.483  10.418  0.0589 -0.7162  0.0883
51219SOL    HW262626   4.841   9.374  10.395 -0.2434 -0.9173 -0.3205
51220SOL     OW62627   1.599   5.557  10.656  0.1768  0.1831  0.5831
51220SOL    HW162628   1.506   5.568  10.677 -0.0705 -0.4404 -0.1473
51220SOL    HW262629   1.636   5.644  10.670 -0.6259  0.5752  0.3862
51221SOL     OW62630   2.890   7.319   1.245  0.3698 -0.2080  0.0721
51221SOL    HW162631   2.873   7.229   1.217 -1.2218 -0.2793  1.1515
51221SOL    HW262632   2.865   7.320   1.338  0.2175  1.3856  0.0395
51222SOL     OW62633   2.264   3.632   2.259  0.0476  0.2296 -0.1951
51222SOL    HW162634   2.174   3.664   2.250 -0.2506 -0.8051 -1.1354
51222SOL    HW262635   2.256   3.537   2.258  1.1374  0.1231 -0.0399
51223SOL     OW62636   3.509   4.501   3.423  0.4428 -0.5563 -0.2790
51223SOL    HW162637   3.563   4.423   3.419  1.5755  0.2344 -0.8694
51223SOL    HW262638   3.536   4.545   3.503 -1.7910 -1.8479  1.3016
51224SOL     OW62639   6.737   6.209   4.681  0.1264  0.0570 -0.4499
51224SOL    HW162640   6.823   6.204   4.722  1.0698  1.6075 -2.1043
51224SOL    HW262641   6.698   6.123   4.697  1.8654 -0.6058  0.5333
51225SOL     OW62642  10.855   6.532   6.908 -0.0005 -0.2770  0.3366
51225SOL    HW162643  10.765   6.513   6.934 -0.4512  0.4684 -0.5906
51225SOL    HW262644  10.874   6.470   6.838 -1.1755  1.8945 -2.0991
51226SOL     OW62645   5.235   7.877   5.643 -0.1820 -0.1616  0.5898
51226SOL    HW162646   5.201   7.953   5.595 -1.8014 -1.9473 -1.3089
51226SOL    HW262647   5.315   7.854   5.596 -0.5862 -0.6043  0.1123
51227SOL     OW62648   9.309   0.859   1.725 -0.6721 -0.0945  0.0808
51227SOL    HW162649   9.363   0.833   1.799  0.2912 -0.3843 -0.6972
51227SOL    HW262650   9.354   0.935   1.688 -1.3342  0.2674  0.0023
51228SOL     OW62651   7.557   1.332   6.857 -0.6128  0.1847  0.0886
51228SOL    HW162652   7.529   1.283   6.779 -1.8067  2.2505 -0.8699
51228SOL    HW262653   7.548   1.270   6.929 -0.2251 -1.5621 -1.3001
51229SOL     OW62654   3.052   5.284   9.474  0.0425  0.0919  0.1434
51229SOL    HW162655   3.042   5.250   9.563  1.5646 -0.9734 -0.0606
51229SOL    HW262656   2.967   5.323   9.455 -0.1396  0.9141  2.2762
51230SOL     OW62657   7.427   8.759  10.789 -0.1184  0.0179 -0.1751
51230SOL    HW162658   7.416   8.707  10.710  1.3865 -0.2925 -0.2185
51230SOL    HW262659   7.339   8.773  10.822 -0.8112  0.4675 -2.0985
51231SOL     OW62660   5.623   8.150  10.180  0.0427  0.0194  0.0117
51231SOL    HW162661   5.633   8.057  10.202  0.8645  0.6275  2.6629
51231SOL    HW262662   5.541   8.175  10.222  0.0301  0.5909 -0.3500
51232SOL     OW62663  11.501   7.725   1.808  0.0838  0.0818  0.2556
51232SOL    HW162664  11.419   7.772   1.826  1.5775  2.5902  1.1622
51232SOL    HW262665  11.542   7.717   1.894  1.0786 -0.5212 -0.2636
51233SOL     OW62666   3.130   9.801   0.777  0.0154  0.0850  0.3140
51233SOL    HW162667   3.194   9.729   0.778 -0.6747 -0.5258  0.9969
51233SOL    HW262668   3.112   9.814   0.684  0.3838 -0.4117  0.1632
51234SOL     OW62669   8.473  11.025   7.959 -0.6664 -0.1608  0.1182
51234SOL    HW162670   8.550  10.990   7.914  0.7055  3.7195 -0.9637
51234SOL    HW262671   8.404  11.024   7.892  0.3853  2.3200 -1.1310
51235SOL     OW62672  10.819   5.404  11.839 -0.0981 -0.3167  0.2025
51235SOL    HW162673  10.788   5.329  11.788  1.7190 -1.0078  0.0242
51235SOL    HW262674  10.814   5.375  11.930 -0.2245 -0.3223  0.1939
51236SOL     OW62675  12.462   3.637   4.396  0.2095 -0.3217 -0.2553
51236SOL    HW162676  12.367   3.623   4.397  0.3449 -1.2536  1.7323
51236SOL    HW262677  12.496   3.585   4.468  2.1599  0.6778 -0.3801
51237SOL     OW62678   6.119  11.174   6.046 -0.0275 -0.1103  0.6935
51237SOL    HW162679   6.128  11.188   6.140  1.4357  2.3229  0.2961
51237SOL    HW262680   6.090  11.084   6.037  2.3489 -1.2865  3.3772
51238SOL     OW62681   9.042   4.393   3.486  0.0033  0.0766 -0.3112
51238SOL    HW162682   9.123   4.348   3.460 -0.9141 -1.1049 -1.2147
51238SOL    HW262683   9.057   4.416   3.578  0.8084 -1.4816 -0.0022
51239SOL     OW62684   0.457   5.816   2.090  0.0517 -0.5714  0.2334
51239SOL    HW162685   0.471   5.848   2.001  0.7698  0.5413  0.7278
51239SOL    HW262686   0.409   5.886   2.134 -2.3857 -2.0622  0.1139
51240SOL     OW62687   3.047   2.824   2.927  0.4949  0.1485  0.1294
51240SOL    HW162688   3.097   2.744   2.946 -0.0411 -0.1809  0.1911
51240SOL    HW262689   2.958   2.803   2.954 -0.0327  0.1390 -1.5048
51241SOL     OW62690   0.818   4.909   4.213 -0.1515  0.0865 -0.0920
51241SOL    HW162691   0.810   5.003   4.233  2.8677  0.1148  1.5964
51241SOL    HW262692   0.787   4.865   4.292  0.0780 -0.2477 -0.1866
51242SOL     OW62693   5.588   8.347   2.416  0.5664 -0.1123 -0.7041
51242SOL    HW162694   5.611   8.264   2.459  2.7725  0.7375 -0.0933
51242SOL    HW262695   5.548   8.321   2.333  0.1657 -1.7701 -0.0269
51243SOL     OW62696   9.900  12.182   7.628 -0.4939 -0.3720  0.6294
51243SOL    HW162697   9.832  12.115   7.621  0.4533 -1.2287 -1.0509
51243SOL    HW262698   9.980  12.134   7.648 -0.2855  0.6035  2.3736
51244SOL     OW62699   9.190   7.421   6.227  0.6516  0.1518 -0.2853
51244SOL    HW162700   9.263   7.382   6.179  0.6359 -1.7644  1.1457
51244SOL    HW262701   9.135   7.347   6.252  0.6201  1.0075  2.5836
51245SOL     OW62702   8.462  11.191   5.587 -0.4776 -0.0647  0.2379
51245SOL    HW162703   8.432  11.276   5.618  0.7602  0.0283  1.2338
51245SOL    HW262704   8.396  11.129   5.617 -1.0981  0.4664 -0.0156
51246SOL     OW62705   6.903   1.609  11.399 -0.1264  0.1339  0.6261
51246SOL    HW162706   6.820   1.612  11.352 -0.1349  3.5091  0.6010
51246SOL    HW262707   6.880   1.584  11.488 -0.9621 -0.3190  0.2902
51247SOL     OW62708  11.949   6.490   6.944  0.5320  0.1064 -0.1654
51247SOL    HW162709  12.038   6.498   6.978  1.6490  2.4056 -3.1853
51247SOL    HW262710  11.923   6.579   6.922 -1.7808 -0.7236 -1.1662
51248SOL     OW62711   3.631   3.829  10.742  0.3841 -0.3223 -1.0391
51248SOL    HW162712   3.629   3.822  10.837 -1.1321 -0.3901 -1.0549
51248SOL    HW262713   3.601   3.918  10.723 -1.7145 -1.0514 -1.4772
51249SOL     OW62714  10.686   1.859  11.292  0.5527 -0.1916 -0.1087
51249SOL    HW162715  10.737   1.932  11.326  1.2340 -1.4127  1.6043
51249SOL    HW262716  10.627   1.899  11.228  1.9703  1.6071 -0.3683
51250SOL     OW62717   0.931   7.597   5.347  0.4559 -0.0598  0.1774
51250SOL    HW162718   0.882   7.624   5.425 -1.0679 -1.1105 -0.3851
51250SOL    HW262719   0.923   7.672   5.287 -2.1083 -0.8655 -0.6186
51251SOL     OW62720   0.360   0.645  11.331 -0.1496 -0.1689  0.5524
51251SOL    HW162721   0.446   0.603  11.325 -0.3179 -0.3824 -0.6256
51251SOL    HW262722   0.369   0.726  11.281 -0.6395 -0.2120  0.3901
51252SOL     OW62723  10.547  10.270   6.742  0.4848  0.5567  0.3896
51252SOL    HW162724  10.484  10.208   6.703 -0.3458  0.8558  1.2222
51252SOL    HW262725  10.626  10.261   6.688 -0.6140  0.9584 -1.3898
51253SOL     OW62726   3.002   7.656   0.707 -0.3320 -0.1110 -0.0813
51253SOL    HW162727   3.039   7.666   0.795  1.6079 -1.4706 -0.6589
51253SOL    HW262728   2.956   7.572   0.710 -0.0735 -0.2692 -0.3910
51254SOL     OW62729   3.192   6.763   6.516  0.4691  0.2164  0.2756
51254SOL    HW162730   3.184   6.737   6.424 -1.4994 -0.7902  0.6904
51254SOL    HW262731   3.117   6.820   6.531 -0.2176 -1.0264  1.7022
51255SOL     OW62732  11.838  12.200   2.471  0.1848 -0.1256 -0.4649
51255SOL    HW162733  11.765  12.138   2.479  2.1022 -2.2729  1.8750
51255SOL    HW262734  11.890  12.168   2.397  0.2015 -0.1948 -0.4230
51256SOL     OW62735   0.372   8.267   9.581 -0.8565  0.0805  0.1406
51256SOL    HW162736   0.461   8.284   9.549 -1.2480  1.1208 -0.3980
51256SOL    HW262737   0.323   8.241   9.503 -1.4796  1.3177  0.1060
51257SOL     OW62738   3.587   8.408  10.948 -0.2518 -0.6159 -0.2939
51257SOL    HW162739   3.662   8.450  10.990 -0.1600 -1.4614  0.4234
51257SOL    HW262740   3.514   8.467  10.966  0.4910  1.1284 -2.4908
51258SOL     OW62741   8.037   9.485   1.182  0.2345 -0.7415 -0.2813
51258SOL    HW162742   8.059   9.488   1.275  0.9632 -1.7527 -0.3968
51258SOL    HW262743   8.108   9.534   1.140 -0.0299 -0.3898 -0.3228
51259SOL     OW62744   9.571  12.318   9.065  0.7335  0.0302 -0.3176
51259SOL    HW162745   9.514  12.293   9.138 -1.1632 -0.9860 -2.0549
51259SOL    HW262746   9.624  12.390   9.100 -0.2793 -0.2281  1.9608
51260SOL     OW62747   2.405  11.305  11.543 -0.1241 -0.3329  0.3847
51260SOL    HW162748   2.393  11.379  11.483  0.0187 -0.1779  0.5448
51260SOL    HW262749   2.454  11.342  11.616  0.8628 -0.8203 -0.0094
51261SOL     OW62750   8.950  12.593   6.143  0.1624 -0.8286  0.5444
51261SOL    HW162751   9.029  12.539   6.145  0.2903 -0.7042 -0.4483
51261SOL    HW262752   8.880  12.532   6.119  0.5424 -0.3555 -2.0665
51262SOL     OW62753  11.673  10.797   0.616  0.3439  0.5613 -0.2551
51262SOL    HW162754  11.665  10.790   0.711  2.1289 -0.1824 -0.1159
51262SOL    HW262755  11.691  10.890   0.601  1.1790  0.5039  0.2759
51263SOL     OW62756   7.483   3.409   5.714  0.3235 -0.3622 -0.2631
51263SOL    HW162757   7.538   3.369   5.647  0.0469 -1.1615 -0.0223
51263SOL    HW262758   7.495   3.503   5.702  2.5677 -0.5030  0.4624
51264SOL     OW62759   7.897  12.351   3.221  0.2697 -0.0390  0.3089
51264SOL    HW162760   7.875  12.333   3.312  2.4339 -0.7006  0.7661
51264SOL    HW262761   7.886  12.266   3.177 -1.2721  0.3940 -0.1938
51265SOL     OW62762   6.011   9.087   8.276 -0.4713  0.5218  0.2662
51265SOL    HW162763   5.970   9.026   8.215  0.5806  0.3830 -0.3323
51265SOL    HW262764   5.968   9.070   8.360 -2.7602  1.5238 -0.6371
51266SOL     OW62765   4.857   4.222   8.369  0.6995 -0.6588 -0.3110
51266SOL    HW162766   4.775   4.263   8.341  0.8605  0.4644  0.8086
51266SOL    HW262767   4.909   4.216   8.289 -0.9623 -2.6871 -1.3451
51267SOL     OW62768  10.808   8.581   3.668 -0.1028  0.5879 -0.2374
51267SOL    HW162769  10.825   8.673   3.649  0.5868  0.7387  1.0587
51267SOL    HW262770  10.878   8.554   3.727 -0.7160 -0.5756  0.0006
51268SOL     OW62771   0.270   3.034   9.702  0.2997 -0.2599  0.3507
51268SOL    HW162772   0.259   2.942   9.724  0.5833 -0.6686 -1.1190
51268SOL    HW262773   0.228   3.044   9.616  0.9793  0.7955  0.1157
51269SOL     OW62774  10.547   0.554   9.601 -0.3200  0.0598  0.6514
51269SOL    HW162775  10.547   0.620   9.532  0.5528  0.0457  0.6252
51269SOL    HW262776  10.565   0.472   9.555 -0.3499 -0.0396  0.8176
51270SOL     OW62777  12.204   1.971   3.903  0.3387 -0.1634  0.0673
51270SOL    HW162778  12.222   2.063   3.924 -0.5564  0.2603 -0.8659
51270SOL    HW262779  12.246   1.957   3.818  0.2938 -0.5565  0.1079
51271SOL     OW62780   1.122   5.486   9.684  0.2892  0.5847 -0.2295
51271SOL    HW162781   1.088   5.532   9.761  0.4840 -0.1262  0.3020
51271SOL    HW262782   1.203   5.444   9.716 -0.2957 -0.7840 -0.4568
51272SOL     OW62783   8.129  10.600   1.121 -1.1151  0.1631 -0.2383
51272SOL    HW162784   8.091  10.592   1.033 -0.6329  1.8953 -0.6477
51272SOL    HW262785   8.223  10.586   1.108 -0.9647  1.0215 -0.1090
51273SOL     OW62786  10.301   0.954   7.024  0.2433 -0.1675 -0.0029
51273SOL    HW162787  10.288   0.965   7.118  0.3331  1.7890 -0.1877
51273SOL    HW262788  10.395   0.939   7.014  0.0246 -1.9531  0.3136
51274SOL     OW62789   7.580   7.326   3.350 -0.2531 -1.0285 -0.5565
51274SOL    HW162790   7.617   7.399   3.300  0.1157 -0.1285  0.9687
51274SOL    HW262791   7.489   7.321   3.321 -0.1666 -0.2272 -1.0031
51275SOL     OW62792   1.906   8.799  10.723  0.3104  0.4725 -0.4259
51275SOL    HW162793   1.904   8.807  10.628 -3.9502 -1.4303 -0.7104
51275SOL    HW262794   1.928   8.708  10.739 -2.1505 -0.1008  0.1368
51276SOL     OW62795  10.630   1.801   2.294  0.4813 -0.8698 -0.8793
51276SOL    HW162796  10.561   1.861   2.268  0.7677 -1.2215 -2.6025
51276SOL    HW262797  10.675   1.845   2.366 -0.1279  0.3722 -1.2280
51277SOL     OW62798   2.160   0.506  10.409 -0.3511 -0.3767  0.5167
51277SOL    HW162799   2.151   0.430  10.350 -0.1398 -0.7339  0.9357
51277SOL    HW262800   2.124   0.475  10.492 -1.2281  0.3338  0.4108
51278SOL     OW62801   3.416  10.238  11.663 -0.3670 -0.5126 -0.3958
51278SOL    HW162802   3.494  10.280  11.700  0.5746 -2.6613  0.2020
51278SOL    HW262803   3.394  10.291  11.586  2.0631 -0.1891 -0.9406
51279SOL     OW62804   2.887  11.640  12.001  0.4328 -0.0060  0.1958
51279SOL    HW162805   2.828  11.703  12.042 -0.1002 -0.4023  0.0488
51279SOL    HW262806   2.893  11.568  12.064 -0.5045 -0.6816 -0.4574
51280SOL     OW62807   6.194   9.995   5.242  0.1597 -0.2502  0.2400
51280SOL    HW162808   6.261  10.061   5.260  0.2983 -0.3954  0.2574
51280SOL    HW262809   6.170   9.961   5.328 -1.3061  1.1295  0.4336
51281SOL     OW62810   7.820  10.715   3.051 -0.0928  0.0217  0.2263
51281SOL    HW162811   7.849  10.696   2.962  1.0785  0.1409  0.5588
51281SOL    HW262812   7.832  10.633   3.098 -0.6800 -0.0331  0.2843
51282SOL     OW62813   6.795   3.200   8.816 -0.0823  0.1130 -0.1155
51282SOL    HW162814   6.808   3.202   8.721 -1.4335 -2.2800 -0.4163
51282SOL    HW262815   6.700   3.193   8.828  0.1287 -0.7634  1.3564
51283SOL     OW62816   6.098   4.049  12.081 -0.1618 -0.3977  0.0488
51283SOL    HW162817   6.033   4.028  12.148 -1.0207  0.2825 -0.5528
51283SOL    HW262818   6.062   4.012  12.000  0.8595 -1.2003 -0.0650
51284SOL     OW62819   4.859   3.485   1.686  0.7271 -0.5834  0.3976
51284SOL    HW162820   4.922   3.549   1.655 -2.1381  1.3249 -2.1410
51284SOL    HW262821   4.864   3.413   1.622 -0.9756  0.5704 -1.1593
51285SOL     OW62822   9.049   3.320  11.982  0.4565 -0.3087 -0.0007
51285SOL    HW162823   9.126   3.279  12.023  0.5950  1.1540  1.2870
51285SOL    HW262824   8.980   3.311  12.048 -0.8298 -2.4768 -1.5124
51286SOL     OW62825  10.426   9.179   3.245 -0.0399 -0.2454  0.3225
51286SOL    HW162826  10.427   9.172   3.340 -1.1914  1.8309  0.5503
51286SOL    HW262827  10.345   9.136   3.218 -0.6170  0.6926  0.4915
51287SOL     OW62828   3.099  10.034   7.880  0.0788 -0.1865  0.0063
51287SOL    HW162829   3.122   9.997   7.965 -2.3214 -0.6593  0.5303
51287SOL    HW262830   3.183  10.058   7.840  1.2474  0.4883  2.6781
51288SOL     OW62831   9.534   6.687   0.009  0.7454  0.0993 -0.0658
51288SOL    HW162832   9.541   6.604  -0.039 -1.3505  0.1307 -0.4993
51288SOL    HW262833   9.526   6.754  -0.059 -1.3149  0.2371  0.2502
51289SOL     OW62834   9.966   9.554  10.213 -0.1216 -0.3338 -0.0697
51289SOL    HW162835  10.029   9.600  10.157 -0.2375 -0.0543  0.0251
51289SOL    HW262836  10.001   9.465  10.222  1.0221  0.2062  1.1622
51290SOL     OW62837   4.344   3.189   8.936  0.0869  0.1642  0.4801
51290SOL    HW162838   4.396   3.201   9.015  1.3116 -1.4895 -0.0086
51290SOL    HW262839   4.264   3.146   8.965  0.5526 -0.4811  0.8418
51291SOL     OW62840   9.641   2.431   1.227 -0.2362  0.2279 -0.0732
51291SOL    HW162841   9.680   2.477   1.153 -1.5152  1.1956 -0.1741
51291SOL    HW262842   9.546   2.442   1.216 -0.4524  1.5557  2.4020
51292SOL     OW62843   8.964   1.419   3.498 -0.3920  0.0286  0.9442
51292SOL    HW162844   8.980   1.509   3.472 -2.6380  0.7025  1.6491
51292SOL    HW262845   8.962   1.421   3.593  0.2769 -0.9395  0.9983
51293SOL     OW62846   5.758   0.699   1.849  0.5719 -0.0936  0.1440
51293SOL    HW162847   5.714   0.783   1.846  1.1565  0.2559  1.0267
51293SOL    HW262848   5.705   0.646   1.908  1.2186  0.2762  1.0809
51294SOL     OW62849   6.778   1.177   3.082  0.1900 -0.5641 -0.0702
51294SOL    HW162850   6.686   1.176   3.112  0.7099  0.0662  1.6974
51294SOL    HW262851   6.775   1.142   2.993 -1.9296  0.5947 -0.5236
51295SOL     OW62852   2.439   0.177   1.232  0.2759 -0.0775 -0.0380
51295SOL    HW162853   2.374   0.106   1.231  0.0878  0.0834  0.3288
51295SOL    HW262854   2.434   0.216   1.145 -0.5508  0.3079  0.1653
51296SOL     OW62855   8.715   7.927   1.494 -0.2492 -0.3123  0.3404
51296SOL    HW162856   8.700   7.924   1.399 -0.0168 -0.2554  0.3005
51296SOL    HW262857   8.784   7.993   1.505 -0.0069 -0.5969  0.5163
51297SOL     OW62858   7.998   2.927   2.651  0.3437  0.0560 -0.0877
51297SOL    HW162859   8.059   2.986   2.696 -0.8615  1.6287 -0.4272
51297SOL    HW262860   8.035   2.839   2.665  0.7486  0.5655  2.8056
51298SOL     OW62861   7.479   0.395   2.517  0.1328  0.4244  0.1879
51298SOL    HW162862   7.441   0.481   2.537  1.3348  1.0256 -0.0347
51298SOL    HW262863   7.411   0.332   2.542 -0.9775  1.4599 -0.1423
51299SOL     OW62864   0.028   3.985   4.406 -0.1217 -0.1018  0.1644
51299SOL    HW162865   0.052   4.014   4.494  0.4238 -0.9082  0.3010
51299SOL    HW262866   0.070   3.899   4.397 -0.5673 -0.2449 -0.7061
51300SOL     OW62867  11.278   9.189  11.532  0.0546 -0.0466  0.4693
51300SOL    HW162868  11.296   9.281  11.512 -1.7574  0.5025  1.1455
51300SOL    HW262869  11.295   9.142  11.451 -0.4848  1.1195 -0.3357
51301SOL     OW62870   2.119   4.771   4.301  0.4227 -0.2603 -0.3073
51301SOL    HW162871   2.052   4.836   4.278  1.7801  1.2511 -0.1632
51301SOL    HW262872   2.152   4.739   4.217 -0.7312 -1.3311 -0.3821
51302SOL     OW62873  10.337   6.506   9.056 -0.4993 -0.0159  0.1666
51302SOL    HW162874  10.358   6.435   9.117  0.2466 -0.2479 -0.3301
51302SOL    HW262875  10.369   6.585   9.099  0.7556 -0.2702 -0.2250
51303SOL     OW62876   8.269   6.963   2.725  0.5403  0.2479  0.2066
51303SOL    HW162877   8.337   6.969   2.658  2.9624 -2.3237  2.2147
51303SOL    HW262878   8.293   7.029   2.790 -0.2893  0.9507 -0.1879
51304SOL     OW62879  11.938  11.281   8.536  0.0996 -0.2324  0.0511
51304SOL    HW162880  11.989  11.200   8.529 -0.0769 -0.4998  1.6532
51304SOL    HW262881  11.849  11.255   8.512  0.0353 -0.5268  0.5977
51305SOL     OW62882   5.789   6.057   1.943  0.0241  0.4270 -0.2028
51305SOL    HW162883   5.864   6.003   1.917 -0.7179 -1.4632  1.3964
51305SOL    HW262884   5.715   6.020   1.896  0.0217  2.4465 -1.9707
51306SOL     OW62885   9.271   8.805   6.872 -0.3311  0.3459  0.9920
51306SOL    HW162886   9.310   8.878   6.825 -0.9841  0.3329  0.3970
51306SOL    HW262887   9.338   8.777   6.934  0.5142  0.4462  0.1463
51307SOL     OW62888  12.268   2.544  11.792  0.1498 -0.1273  0.1024
51307SOL    HW162889  12.311   2.589  11.719 -0.1911  1.8574  1.0598
51307SOL    HW262890  12.313   2.459  11.797  0.7112 -0.0017 -1.8853
51308SOL     OW62891   0.307   4.567   9.453  0.6032 -0.2388  0.6306
51308SOL    HW162892   0.230   4.624   9.456 -0.0129 -1.0467  3.3472
51308SOL    HW262893   0.276   4.486   9.412  1.0233  0.6530 -1.5907
51309SOL     OW62894  10.543   1.557   2.041  0.3178 -0.2855  0.0121
51309SOL    HW162895  10.543   1.477   1.988 -0.7884 -0.1880 -0.1532
51309SOL    HW262896  10.497   1.533   2.121  1.1353 -0.1609  0.5350
51310SOL     OW62897   3.736   4.911   6.078 -0.0654 -0.2103  0.2108
51310SOL    HW162898   3.726   5.006   6.074 -0.7529 -0.2154  1.3061
51310SOL    HW262899   3.656   4.876   6.038 -0.0909 -0.3183  0.3541
51311SOL     OW62900   5.224  12.406   2.486  0.2319  0.4397 -0.2661
51311SOL    HW162901   5.252  12.452   2.565  0.0539  0.6931 -0.3488
51311SOL    HW262902   5.177  12.473   2.435 -2.8343 -0.5512  1.0187
51312SOL     OW62903   7.841   9.574   5.932 -0.3008 -0.0880  0.2921
51312SOL    HW162904   7.884   9.643   5.882  0.2562 -0.9094 -0.3928
51312SOL    HW262905   7.846   9.603   6.023 -0.8734  1.1859 -0.0625
51313SOL     OW62906   0.526   2.891   1.577 -0.0522 -0.2007  0.1041
51313SOL    HW162907   0.498   2.953   1.509 -1.4177  1.1453  1.7921
51313SOL    HW262908   0.457   2.825   1.579  0.6479 -0.9715 -0.6744
51314SOL     OW62909   9.030   5.655   5.876  0.1894 -0.2923  0.2162
51314SOL    HW162910   8.946   5.642   5.833 -0.1729 -0.7998  1.0562
51314SOL    HW262911   9.085   5.698   5.810 -1.1978  1.4902  0.1613
51315SOL     OW62912   1.106   9.687   4.642  0.2287 -0.0199  0.1832
51315SOL    HW162913   1.137   9.680   4.732  1.2848 -1.0578 -0.2335
51315SOL    HW262914   1.024   9.736   4.649 -0.0767 -0.6785  1.7937
51316SOL     OW62915  11.754   6.710   0.484  0.2233  0.1513 -0.3596
51316SOL    HW162916  11.811   6.637   0.461 -0.9858 -0.7520 -0.5619
51316SOL    HW262917  11.774   6.777   0.418 -0.0682 -0.7536 -1.4093
51317SOL     OW62918   1.250   3.694   1.985 -0.2871  0.5229  0.3176
51317SOL    HW162919   1.298   3.636   2.044  0.7160  1.2202  0.2041
51317SOL    HW262920   1.239   3.643   1.905 -1.6341 -0.4191  1.0716
51318SOL     OW62921   7.458   1.033   3.554 -0.5003  0.0215  0.3708
51318SOL    HW162922   7.433   1.074   3.637 -1.6827  0.1112 -0.0254
51318SOL    HW262923   7.553   1.018   3.563 -0.5876  0.1417  1.6814
51319SOL     OW62924   2.178   2.699   9.733  0.3875  0.6437  0.0238
51319SOL    HW162925   2.212   2.619   9.774 -1.0748 -0.3496 -0.6328
51319SOL    HW262926   2.248   2.729   9.675  1.5700  0.7593  1.4574
51320SOL     OW62927  11.304   6.958  12.407  0.7089 -0.4842  0.1122
51320SOL    HW162928  11.242   7.008  12.354  0.9481  0.1569  0.4245
51320SOL    HW262929  11.378   6.943  12.348  0.2372 -1.3145 -0.2842
51321SOL     OW62930   0.394   4.965  12.591 -0.6272 -0.1699 -0.2481
51321SOL    HW162931   0.390   4.930  12.502 -0.3009  1.1989 -0.8286
51321SOL    HW262932   0.302   4.977  12.615 -0.7453 -1.2735 -0.0752
51322SOL     OW62933   3.557   3.919   2.509  0.0341  0.0103 -0.2546
51322SOL    HW162934   3.507   3.955   2.582 -2.0668 -1.7680 -0.7333
51322SOL    HW262935   3.639   3.890   2.550  0.2868  1.9249  0.7539
51323SOL     OW62936   5.822   6.139   7.555 -0.2977  0.3344  0.6360
51323SOL    HW162937   5.760   6.203   7.518 -0.0478  0.5171  0.5350
51323SOL    HW262938   5.902   6.150   7.504 -0.9298 -1.6346 -0.9568
51324SOL     OW62939  11.275   9.008  12.219 -0.3796  0.2864 -0.1060
51324SOL    HW162940  11.327   9.078  12.179 -0.6521  0.5448 -0.0089
51324SOL    HW262941  11.261   8.946  12.148 -0.4272  0.4954 -0.2809
51325SOL     OW62942   5.927  11.989   3.210 -0.0757  0.2502 -0.1442
51325SOL    HW162943   5.847  11.960   3.167  0.4920 -1.8790  0.1043
51325SOL    HW262944   5.995  11.980   3.143  0.2411  0.2941  0.1684
51326SOL     OW62945  10.597   4.398   7.423 -0.4621 -0.0768 -0.4752
51326SOL    HW162946  10.561   4.407   7.511  2.1709 -1.4443  0.8536
51326SOL    HW262947  10.576   4.308   7.397 -0.5989  0.0874 -0.9588
51327SOL     OW62948   4.132   9.383  11.645 -0.1150  0.5120 -0.4380
51327SOL    HW162949   4.127   9.289  11.625 -0.8643  0.6769 -1.0628
51327SOL    HW262950   4.218   9.394  11.686  0.1091 -0.3965 -0.6385
51328SOL     OW62951  10.963  10.247   7.237  0.2752  0.1815 -0.1330
51328SOL    HW162952  10.927  10.335   7.246 -0.5344  0.1457 -2.3780
51328SOL    HW262953  11.047  10.250   7.283  0.3155  2.1501 -0.2801
51329SOL     OW62954   6.624   8.807  11.843  0.6320 -0.3785 -0.7990
51329SOL    HW162955   6.529   8.815  11.852  0.7497  0.3179 -0.0858
51329SOL    HW262956   6.648   8.734  11.900  0.8411  1.2315  1.2806
51330SOL     OW62957   6.282   0.426  10.351  0.1944  0.2632  0.2682
51330SOL    HW162958   6.221   0.390  10.415  1.6389  1.2590  2.3449
51330SOL    HW262959   6.313   0.508  10.391  3.3282 -0.4909 -0.3130
51331SOL     OW62960   6.697   1.125   5.122 -0.3740  0.7765  0.0239
51331SOL    HW162961   6.669   1.146   5.211 -0.8941 -0.3636  0.1512
51331SOL    HW262962   6.660   1.195   5.068 -0.6870  1.0761  0.6159
51332SOL     OW62963   0.163  11.303   7.784  0.2362 -0.0378  0.5094
51332SOL    HW162964   0.197  11.393   7.777  1.1747 -0.4305 -0.1771
51332SOL    HW262965   0.088  11.311   7.843  1.1610  0.9636  1.6239
51333SOL     OW62966  11.357   5.211   8.870  0.0126 -0.7110 -0.1308
51333SOL    HW162967  11.333   5.190   8.780  0.8197  0.0369 -0.5278
51333SOL    HW262968  11.451   5.228   8.866  0.0524 -0.6661  0.8580
51334SOL     OW62969   4.284   1.674   4.142  0.5251 -0.4810  0.2400
51334SOL    HW162970   4.365   1.702   4.098  1.1855 -0.7601  1.2440
51334SOL    HW262971   4.220   1.741   4.119  1.2440  0.1528  0.0235
51335SOL     OW62972   9.993   0.071  10.507  0.8251  0.5896  0.0576
51335SOL    HW162973   9.951   0.120  10.577  0.7240  0.5674  0.0124
51335SOL    HW262974  10.017  -0.013  10.547 -0.9401 -0.1896 -0.4207
51336SOL     OW62975   5.070  10.709   1.142 -0.3812 -0.4313 -0.2316
51336SOL    HW162976   5.132  10.638   1.124 -1.2878 -1.2755 -0.1257
51336SOL    HW262977   5.026  10.682   1.223 -2.0700 -0.7127 -1.1881
51337SOL     OW62978  10.945   5.749   2.939  0.1318  0.4724 -0.0585
51337SOL    HW162979  11.004   5.676   2.959  0.5007  0.2945 -1.6040
51337SOL    HW262980  10.910   5.776   3.023  0.2403 -1.2807  0.5905
51338SOL     OW62981  11.251   9.129   8.465 -0.8047  0.3691 -0.6628
51338SOL    HW162982  11.200   9.052   8.491  0.1791 -0.6676 -1.6955
51338SOL    HW262983  11.220   9.150   8.376  0.9681 -0.6870 -1.5774
51339SOL     OW62984   8.633   4.169   6.315 -0.3250  0.1692 -0.4227
51339SOL    HW162985   8.547   4.139   6.284  0.3948 -0.5906 -1.8026
51339SOL    HW262986   8.621   4.262   6.332 -2.2737 -0.5109  2.6766
51340SOL     OW62987   8.833  12.194   6.152  0.8045 -0.8732 -0.2735
51340SOL    HW162988   8.804  12.186   6.061 -2.7213  0.4681  0.5713
51340SOL    HW262989   8.807  12.112   6.193  0.2663 -0.5649  0.0064
51341SOL     OW62990   9.836   6.442   7.520 -0.1412 -0.6774  0.0866
51341SOL    HW162991   9.882   6.392   7.588  0.2702  0.9991  1.0927
51341SOL    HW262992   9.906   6.475   7.464 -0.2530  0.3461  0.5417
51342SOL     OW62993   9.096   7.280   5.902  0.0711  0.3678  0.3050
51342SOL    HW162994   9.069   7.281   5.810 -1.8509 -0.6283  0.8036
51342SOL    HW262995   9.038   7.216   5.944  1.3848  0.2479  2.0873
51343SOL     OW62996   2.094   9.009   8.476  0.6840 -0.6611  0.0207
51343SOL    HW162997   2.056   8.982   8.392  1.4017 -0.2680 -0.4389
51343SOL    HW262998   2.021   9.006   8.537  0.2739 -1.5265 -0.4895
51344SOL     OW62999   6.905  12.443   0.177 -0.6225  0.3078  0.1773
51344SOL    HW163000   7.000  12.453   0.173 -0.5513 -0.1940  0.4779
51344SOL    HW263001   6.885  12.440   0.270 -0.9113  0.2303  0.1146
51345SOL     OW63002   7.192   8.993   0.729  0.2198  0.2986 -0.1239
51345SOL    HW163003   7.250   9.069   0.729 -0.3772  0.7663  0.7161
51345SOL    HW263004   7.228   8.936   0.661  0.4009  1.5276 -1.1030
51346SOL     OW63005   5.598  10.326   4.272  0.1357 -0.5041 -0.2834
51346SOL    HW163006   5.678  10.291   4.310 -0.9720 -1.7318  1.0412
51346SOL    HW263007   5.627  10.396   4.214  2.1435 -0.8880  0.1962
51347SOL     OW63008   5.858   8.077   9.048 -0.6255  0.1878 -0.5050
51347SOL    HW163009   5.868   8.016   9.120  0.3228  0.5693 -0.2983
51347SOL    HW263010   5.819   8.155   9.087  1.9305  1.2534  0.1094
51348SOL     OW63011  11.789   8.183  11.920  0.2299  0.2643 -0.2021
51348SOL    HW163012  11.876   8.148  11.937  0.1013 -0.4704 -0.9999
51348SOL    HW263013  11.757   8.212  12.006  1.5651  1.2854 -0.0233
51349SOL     OW63014   4.412   3.368  12.147  0.0247  0.3524 -0.0440
51349SOL    HW163015   4.345   3.301  12.134 -2.1790  2.5339 -0.8088
51349SOL    HW263016   4.441   3.390  12.059  1.0695  0.1046  0.2282
51350SOL     OW63017   8.097   6.800   1.864  0.8361  0.1114 -0.1884
51350SOL    HW163018   8.165   6.742   1.830 -0.5307 -1.4122 -0.4308
51350SOL    HW263019   8.144   6.861   1.921  2.2344 -1.8949  0.9498
51351SOL     OW63020   2.768  10.443   6.677 -0.4031 -0.3014  0.0020
51351SOL    HW163021   2.789  10.357   6.641 -0.9403 -0.5798  0.3542
51351SOL    HW263022   2.673  10.449   6.673 -0.5233 -0.5053  1.7325
51352SOL     OW63023   1.216  11.384   6.600 -0.2645  0.6058 -0.5683
51352SOL    HW163024   1.136  11.436   6.608  0.7772  2.2980 -0.7072
51352SOL    HW263025   1.233  11.380   6.506  1.0442  2.3192 -0.4654
51353SOL     OW63026  10.301  11.944  10.194  0.0674 -0.2664 -0.1170
51353SOL    HW163027  10.365  12.012  10.216  0.6484 -0.5124 -1.0078
51353SOL    HW263028  10.262  11.920  10.278 -0.7130  1.7140  0.1493
51354SOL     OW63029   9.650  10.140   6.253  0.0205 -0.3332  0.3376
51354SOL    HW163030   9.734  10.113   6.291  0.7968  0.4418 -0.7561
51354SOL    HW263031   9.644  10.092   6.170 -1.0780 -1.0969  0.8414
51355SOL     OW63032   6.107   2.591   4.408  0.4968 -0.1644  0.2241
51355SOL    HW163033   6.075   2.520   4.352 -1.3534  0.4262  0.4543
51355SOL    HW263034   6.031   2.615   4.461  1.6420  0.6713  1.5443
51356SOL     OW63035   1.334   3.765   5.537  0.0607  0.2078 -0.2279
51356SOL    HW163036   1.415   3.814   5.552  0.0853 -0.1302  0.8390
51356SOL    HW263037   1.355   3.676   5.562 -1.0620  0.4096  1.6261
51357SOL     OW63038   7.359  10.571  10.951 -0.0469  0.2864  0.1101
51357SOL    HW163039   7.420  10.545  10.882  0.6091 -1.4309  1.2735
51357SOL    HW263040   7.353  10.494  11.008 -0.3450  1.7303  2.1164
51358SOL     OW63041   7.847  12.287   6.846  0.2447 -0.4153  0.1157
51358SOL    HW163042   7.907  12.361   6.839 -1.1224  0.7355  0.1517
51358SOL    HW263043   7.821  12.267   6.756 -0.6086  0.2008  0.2168
51359SOL     OW63044   8.026   8.409  11.816  0.3082  0.3681 -0.2144
51359SOL    HW163045   7.981   8.325  11.808 -0.2773  0.6161  0.4540
51359SOL    HW263046   8.118   8.388  11.799 -0.0366 -0.1336 -1.6295
51360SOL     OW63047   9.787  10.816   4.722 -0.2330  0.1424 -0.6998
51360SOL    HW163048   9.841  10.805   4.800 -1.0243  0.4101 -0.0928
51360SOL    HW263049   9.777  10.911   4.713 -0.6470  0.0970 -0.7641
51361SOL     OW63050   8.640   6.911   9.884  0.1439  0.1897 -0.5022
51361SOL    HW163051   8.717   6.891   9.937 -1.7712 -1.4082  1.8578
51361SOL    HW263052   8.647   7.005   9.867  0.8813  0.8087  2.6345
51362SOL     OW63053   4.808   8.782   9.960  0.2556 -0.9815  0.3494
51362SOL    HW163054   4.886   8.810  10.008  0.3241 -0.8889  0.1859
51362SOL    HW263055   4.829   8.693   9.931  0.8823 -0.4512 -0.9087
51363SOL     OW63056   9.420   9.924  10.282  0.5392  0.4545  0.2439
51363SOL    HW163057   9.429   9.832  10.261 -3.0713  0.2507 -1.0775
51363SOL    HW263058   9.387   9.965  10.202  1.4983  2.8328  0.9560
51364SOL     OW63059   3.570   4.516   2.844 -0.5431 -1.0946 -0.4885
51364SOL    HW163060   3.658   4.487   2.820  1.0035  0.9757  2.1246
51364SOL    HW263061   3.554   4.592   2.788  0.4108 -0.0175  0.6562
51365SOL     OW63062  10.826   6.423  11.734  0.6257  0.5259  0.0354
51365SOL    HW163063  10.770   6.399  11.809  0.0308 -2.0896 -1.1314
51365SOL    HW263064  10.792   6.508  11.705 -1.9972 -0.4176  0.1153
51366SOL     OW63065   0.390   8.344   6.074  0.4449  0.3391  0.6288
51366SOL    HW163066   0.460   8.326   6.137 -0.2996 -1.0231  1.1130
51366SOL    HW263067   0.393   8.269   6.014 -0.1867  0.5932  0.2789
51367SOL     OW63068  11.903   1.551   9.415 -0.0228 -0.0824  0.5331
51367SOL    HW163069  11.892   1.613   9.343  1.8495 -0.5127 -0.1837
51367SOL    HW263070  11.826   1.565   9.470 -2.0235 -0.3524 -1.9814
51368SOL     OW63071  10.391  11.593   4.826  0.0447 -0.0644  0.2006
51368SOL    HW163072  10.345  11.654   4.769 -2.0160 -3.1135 -1.7477
51368SOL    HW263073  10.330  11.574   4.897 -0.5112 -1.7392 -0.6620
51369SOL     OW63074  10.893   8.462   9.524  0.1974  0.1070 -0.0985
51369SOL    HW163075  10.965   8.451   9.462 -0.3390  0.6703 -0.8453
51369SOL    HW263076  10.935   8.469   9.610  1.0404  0.6673 -0.5489
51370SOL     OW63077   7.760   3.386   1.647  0.5767 -0.1860  0.0693
51370SOL    HW163078   7.751   3.336   1.728  0.0004 -0.6277 -0.2550
51370SOL    HW263079   7.711   3.334   1.582  0.1579  0.6884 -0.3287
51371SOL     OW63080   5.228   7.374   3.198 -0.2310  0.6930 -0.1181
51371SOL    HW163081   5.312   7.346   3.161  0.1040  0.1240  1.0273
51371SOL    HW263082   5.199   7.300   3.251 -0.4394  1.6585  1.1562
51372SOL     OW63083   7.583   8.290   0.173 -0.1092 -0.0408 -0.1542
51372SOL    HW163084   7.542   8.363   0.220 -0.3688  0.4418 -1.1084
51372SOL    HW263085   7.587   8.220   0.238 -0.4351  0.6161  0.5984
51373SOL     OW63086   0.337   8.019   2.927  0.2587  0.4714  0.1339
51373SOL    HW163087   0.339   7.943   2.985 -0.2634 -0.2309 -0.7597
51373SOL    HW263088   0.246   8.025   2.899  0.2313  1.6081  0.4160
51374SOL     OW63089  11.350  12.566   0.364  0.2859  0.0764 -0.3983
51374SOL    HW163090  11.432  12.522   0.342  0.6565  1.0626 -1.0913
51374SOL    HW263091  11.372  12.660   0.361 -0.4650  0.3328  1.0425
51375SOL     OW63092  10.953   8.774   1.994  0.1845  0.2266 -0.1174
51375SOL    HW163093  10.906   8.842   2.043  0.3488  1.5071 -1.6423
51375SOL    HW263094  10.884   8.718   1.958 -0.0143  0.3031  0.1433
51376SOL     OW63095   2.148   7.907   4.896 -0.0162  0.9249  0.6546
51376SOL    HW163096   2.068   7.899   4.843  0.2383  1.0868  0.2421
51376SOL    HW263097   2.116   7.927   4.984 -0.4375  0.8301  0.5264
51377SOL     OW63098  11.545   7.432   3.907  0.7404 -0.5245  0.4314
51377SOL    HW163099  11.630   7.469   3.930  0.5958 -0.4078  0.7918
51377SOL    HW263100  11.560   7.387   3.824  0.8935  0.4226 -0.0625
51378SOL     OW63101   6.081   1.966   8.670 -0.2115 -0.1201  0.4840
51378SOL    HW163102   6.057   1.874   8.681 -0.5673 -0.0597  0.2468
51378SOL    HW263103   6.157   1.965   8.613 -1.4129 -0.1771 -1.1767
51379SOL     OW63104  11.451  12.249   1.669 -0.0518 -0.3037  0.0735
51379SOL    HW163105  11.452  12.310   1.743 -0.0307  0.3640 -0.4700
51379SOL    HW263106  11.542  12.244   1.641 -0.1465 -0.0875 -0.2805
51380SOL     OW63107   6.559   3.839   3.335  0.9824  0.6767 -0.1585
51380SOL    HW163108   6.638   3.807   3.291  1.5021  2.2046 -0.4025
51380SOL    HW263109   6.577   3.932   3.351 -0.4215  0.8437  0.5813
51381SOL     OW63110   4.233  11.327   0.994 -0.8586  0.1462 -0.5077
51381SOL    HW163111   4.167  11.259   1.008 -1.4719  1.0254  1.1164
51381SOL    HW263112   4.288  11.323   1.072  1.4677 -0.9653 -2.0749
51382SOL     OW63113   8.793   7.278   6.175  0.1512  0.2313 -0.2235
51382SOL    HW163114   8.798   7.202   6.116 -0.6739 -0.2504  0.2985
51382SOL    HW263115   8.743   7.343   6.126  0.8302  0.4343 -0.6595
51383SOL     OW63116   1.688  11.555   9.775 -0.1580  0.2251  0.4334
51383SOL    HW163117   1.644  11.559   9.860 -2.1609  0.9281 -0.5739
51383SOL    HW263118   1.627  11.596   9.714  1.9918  1.4333 -1.0603
51384SOL     OW63119  12.392   4.999   7.244  0.0102 -0.1192  0.3200
51384SOL    HW163120  12.376   5.024   7.153  1.4032 -0.3436 -0.0170
51384SOL    HW263121  12.321   4.938   7.265 -0.0523 -0.4566 -0.7975
51385SOL     OW63122   8.203   7.276   1.871 -0.0896  0.1428 -0.6586
51385SOL    HW163123   8.191   7.233   1.786 -0.2078 -0.3711 -0.3884
51385SOL    HW263124   8.142   7.349   1.870 -1.6024 -1.0523 -0.2244
51386SOL     OW63125  11.036   4.063   6.267  0.5730  0.0758 -0.0500
51386SOL    HW163126  10.941   4.057   6.256  0.2844  2.3953  0.6032
51386SOL    HW263127  11.050   4.052   6.362  1.3541 -3.3651 -0.4313
51387SOL     OW63128   0.679   2.543   1.385  0.1802  0.2880 -0.1903
51387SOL    HW163129   0.668   2.561   1.291  0.0313  0.6002 -0.1154
51387SOL    HW263130   0.674   2.629   1.426 -0.8701  0.0548  0.2078
51388SOL     OW63131   1.418   1.542  10.137  0.4357  0.2368 -0.5609
51388SOL    HW163132   1.492   1.485  10.158 -0.4151 -0.3253  1.0984
51388SOL    HW263133   1.343   1.482  10.131  0.1023  0.7773 -2.3629
51389SOL     OW63134   9.085   4.983   0.821 -0.0049 -0.5906  0.3954
51389SOL    HW163135   9.058   4.946   0.737 -1.0819 -0.9161  0.8659
51389SOL    HW263136   9.160   5.038   0.800  0.2132 -1.2620 -0.6619
51390SOL     OW63137   4.776   6.899   5.316  0.1276 -0.2505 -0.0989
51390SOL    HW163138   4.812   6.917   5.402 -1.1435  0.8566  0.2424
51390SOL    HW263139   4.718   6.823   5.329 -0.9413  0.6065  0.3006
51391SOL     OW63140  10.125  12.594   8.197  0.5425  0.4226  0.3931
51391SOL    HW163141  10.053  12.586   8.259 -2.7375 -0.2516 -3.1018
51391SOL    HW263142  10.125  12.687   8.172  1.1168  0.4832  0.6004
51392SOL     OW63143   9.516   6.315  11.668 -0.0141 -0.1250 -0.2249
51392SOL    HW163144   9.477   6.229  11.650 -0.5331  0.0569  0.0250
51392SOL    HW263145   9.459   6.354  11.734 -0.2528  0.7575 -0.9430
51393SOL     OW63146   9.998   6.339   8.610  1.0790 -0.4102 -0.3383
51393SOL    HW163147  10.047   6.288   8.675  0.4634  0.4185  0.8071
51393SOL    HW263148  10.061   6.405   8.581  0.9662  0.0469  0.4175
51394SOL     OW63149   5.267  12.300   0.657  0.5117 -0.6746 -0.3565
51394SOL    HW163150   5.285  12.355   0.582  0.4188 -1.5088 -1.0075
51394SOL    HW263151   5.196  12.344   0.703  1.0075  0.1763 -0.3896
51395SOL     OW63152   5.254   0.792   3.048 -0.0251 -0.0890  0.0428
51395SOL    HW163153   5.233   0.720   3.108  1.2288 -0.2563  0.3184
51395SOL    HW263154   5.323   0.841   3.094 -0.3488  0.8609 -0.4638
51396SOL     OW63155   4.876   6.465   2.896 -0.5788  0.0580  0.5876
51396SOL    HW163156   4.880   6.435   2.987  0.9096 -1.8657 -0.0704
51396SOL    HW263157   4.782   6.464   2.875 -0.7408 -3.1041  1.0066
51397SOL     OW63158  10.245   4.098   3.679 -0.0378 -0.0849 -0.2016
51397SOL    HW163159  10.232   4.077   3.771  1.7718 -1.2616 -0.1701
51397SOL    HW263160  10.283   4.185   3.678  1.4490 -0.7059  0.2926
51398SOL     OW63161   7.749   7.035  11.180 -0.2811 -0.0002  0.2961
51398SOL    HW163162   7.691   7.035  11.256 -1.4057 -1.0406 -0.5141
51398SOL    HW263163   7.691   7.012  11.106  0.7388  1.1247 -0.8956
51399SOL     OW63164  10.853  10.985   8.876 -0.1942 -0.4215  0.2523
51399SOL    HW163165  10.792  11.052   8.847 -0.8912 -1.1604  0.0074
51399SOL    HW263166  10.931  10.998   8.822 -1.4911 -1.8538 -2.1337
51400SOL     OW63167   1.370   1.212  11.024 -0.3363  0.1707  0.2891
51400SOL    HW163168   1.412   1.131  10.995  0.6217  0.2497  1.4081
51400SOL    HW263169   1.401   1.225  11.113 -2.3013  0.5457  0.9721
51401SOL     OW63170   6.257   3.804   2.220  0.1320 -0.2071 -0.0773
51401SOL    HW163171   6.195   3.754   2.272 -0.1448 -1.5470 -1.5938
51401SOL    HW263172   6.211   3.885   2.198 -0.2152 -0.1933  0.6817
51402SOL     OW63173   6.219   2.405   2.820 -0.5188 -0.2546  0.2141
51402SOL    HW163174   6.278   2.333   2.840 -1.2354 -0.7019  0.7405
51402SOL    HW263175   6.242   2.431   2.730  0.0916 -0.7896  0.2136
51403SOL     OW63176   2.090   0.002   8.148  0.3979  0.1031 -0.0098
51403SOL    HW163177   2.110   0.055   8.070 -0.2950 -0.4301 -0.5618
51403SOL    HW263178   2.015  -0.051   8.122 -0.3960  0.5350  1.3245
51404SOL     OW63179   4.121   8.592   7.292  0.3924 -0.5088 -0.0355
51404SOL    HW163180   4.102   8.514   7.239  0.7800 -0.9699  0.4873
51404SOL    HW263181   4.194   8.566   7.347  1.3395  0.6391 -0.7110
51405SOL     OW63182   0.736  11.750   7.563  0.6037  0.1901  0.3684
51405SOL    HW163183   0.759  11.771   7.472  1.9482  1.2344  0.9172
51405SOL    HW263184   0.685  11.826   7.592  0.7341  0.1618  0.6695
51406SOL     OW63185   1.177   5.355   3.836 -0.2623 -0.4223 -0.2808
51406SOL    HW163186   1.245   5.409   3.796  0.2639 -0.8976 -0.0309
51406SOL    HW263187   1.120   5.418   3.882 -0.5809  0.0764 -1.3311
51407SOL     OW63188   9.399   2.326   8.359 -0.3768  0.3852  0.2347
51407SOL    HW163189   9.452   2.259   8.316  0.3393  0.3941  1.0730
51407SOL    HW263190   9.342   2.277   8.418 -0.4126  0.4569  0.2603
51408SOL     OW63191   9.812  11.600   9.326 -0.6012  0.3191 -0.4648
51408SOL    HW163192   9.879  11.547   9.370  0.8058  1.8848 -0.6018
51408SOL    HW263193   9.821  11.577   9.233 -0.0614  0.6882 -0.5120
51409SOL     OW63194   3.813   0.215   6.656 -0.2059  0.2615  0.5505
51409SOL    HW163195   3.726   0.245   6.683 -0.9922 -1.3049 -0.1255
51409SOL    HW263196   3.874   0.274   6.702 -1.5513 -0.0676  2.9069
51410SOL     OW63197   4.181   2.699  10.750 -0.1694 -0.3068  0.7872
51410SOL    HW163198   4.101   2.650  10.731 -0.4052  0.5631 -0.5614
51410SOL    HW263199   4.251   2.633  10.750 -0.7994 -0.9880  1.4396
51411SOL     OW63200   8.496   7.056   7.856  0.0993  1.0692  0.0077
51411SOL    HW163201   8.450   7.125   7.808  0.9726  1.4723 -0.2521
51411SOL    HW263202   8.553   7.015   7.791  0.2407  0.6835  0.3703
51412SOL     OW63203   7.700   7.850   4.146 -0.3612  0.2918 -0.3360
51412SOL    HW163204   7.637   7.780   4.128  1.9728 -2.0947  0.0878
51412SOL    HW263205   7.671   7.923   4.091 -2.6857 -1.1254 -1.1494
51413SOL     OW63206   1.622   9.088   4.764 -0.4718 -0.6084  0.0960
51413SOL    HW163207   1.660   9.120   4.682  0.3414 -1.3652  0.1686
51413SOL    HW263208   1.666   9.139   4.832 -1.6887  0.5619  0.0575
51414SOL     OW63209  11.936   4.241   6.898  0.2224  0.0858 -0.0907
51414SOL    HW163210  11.852   4.285   6.882  0.5027  0.4825 -0.4814
51414SOL    HW263211  11.977   4.292   6.968  0.0003 -0.3002  0.3266
51415SOL     OW63212   9.900   3.463   7.250  0.1323  0.1435  0.6671
51415SOL    HW163213   9.829   3.406   7.218 -0.0430  0.4397  0.5259
51415SOL    HW263214   9.923   3.517   7.175  0.7697 -0.2024  0.6046
51416SOL     OW63215  10.418   3.304   6.136 -0.4994 -0.0204 -0.1259
51416SOL    HW163216  10.491   3.365   6.124 -1.3473  1.1489  0.4477
51416SOL    HW263217  10.452   3.237   6.195 -0.1289  0.9809  0.8263
51417SOL     OW63218   1.932   6.348   4.398  0.1211  0.3141  0.0886
51417SOL    HW163219   1.842   6.361   4.426  0.1210  1.8583 -0.5317
51417SOL    HW263220   1.975   6.432   4.415  1.7572 -0.7210  1.4072
51418SOL     OW63221   0.781   5.127   4.002  0.1674 -0.1497  0.3268
51418SOL    HW163222   0.739   5.052   4.043  0.6547 -0.5978  0.0202
51418SOL    HW263223   0.711   5.173   3.957 -0.0369 -0.7370  0.0410
51419SOL     OW63224   7.006   6.151  11.261 -0.0946 -0.3465  0.0053
51419SOL    HW163225   7.099   6.158  11.240  0.1205 -2.6385 -0.0323
51419SOL    HW263226   6.991   6.220  11.325  1.4685  0.4865 -0.4609
51420SOL     OW63227   0.167   1.637   4.762  0.1561 -0.6358  0.0042
51420SOL    HW163228   0.139   1.707   4.703 -0.7048 -1.0009 -0.0387
51420SOL    HW263229   0.177   1.680   4.847 -1.1894 -0.5981  0.1672
51421SOL     OW63230   6.060   4.689   0.676  0.2210  0.3803 -0.7472
51421SOL    HW163231   6.079   4.732   0.593  2.1223  0.6688 -0.2143
51421SOL    HW263232   6.125   4.618   0.682 -0.5618 -0.2899  0.0166
51422SOL     OW63233   3.934  10.616   6.924 -0.2339 -1.2581  0.8892
51422SOL    HW163234   3.996  10.585   6.858  0.3576  2.3349 -0.5090
51422SOL    HW263235   3.988  10.634   7.001  0.0975 -0.3694  0.4670
51423SOL     OW63236   8.192   0.002  11.469  0.0848 -0.3157  0.1750
51423SOL    HW163237   8.113   0.055  11.475 -0.3731 -1.1159  2.0400
51423SOL    HW263238   8.189  -0.036  11.381 -2.6098 -1.7669  0.7919
51424SOL     OW63239  11.451   3.124  11.138 -0.3632  0.0675  0.1833
51424SOL    HW163240  11.384   3.192  11.138 -1.7880 -1.2674 -0.4195
51424SOL    HW263241  11.409   3.049  11.095  1.8215 -0.5506 -1.0330
51425SOL     OW63242   0.347   2.734  11.055  0.0514 -0.4546 -0.3060
51425SOL    HW163243   0.437   2.760  11.076 -0.3474  0.4310  0.3685
51425SOL    HW263244   0.314   2.806  11.001 -0.6032 -0.2338  0.3690
51426SOL     OW63245  10.519   6.029   5.495 -0.0172  0.2292 -0.0438
51426SOL    HW163246  10.469   5.957   5.456  0.2110  0.8919 -1.6439
51426SOL    HW263247  10.611   6.005   5.480  0.2584 -0.9612  2.8355
51427SOL     OW63248   2.625   8.777   0.257 -0.3126 -0.0363  0.2562
51427SOL    HW163249   2.590   8.689   0.243 -1.3155 -0.1234  2.8069
51427SOL    HW263250   2.563   8.835   0.213 -0.8252 -0.4932  0.3706
51428SOL     OW63251   1.524   6.489   6.942 -0.0809  0.6771  0.1281
51428SOL    HW163252   1.523   6.563   6.881 -0.0849  1.1109  0.6426
51428SOL    HW263253   1.604   6.441   6.920 -1.7769 -1.2243 -2.5767
51429SOL     OW63254   6.371   9.590   3.813  0.4403  0.4513 -0.1489
51429SOL    HW163255   6.364   9.676   3.856  2.2025  1.0833 -1.0199
51429SOL    HW263256   6.362   9.527   3.884 -0.5928  1.3361  0.5550
51430SOL     OW63257   9.456   2.771   7.073 -0.1619 -0.2960 -0.5644
51430SOL    HW163258   9.443   2.716   7.151 -2.5613  2.1209  0.9363
51430SOL    HW263259   9.395   2.735   7.009 -0.1296 -0.6988 -0.3762
51431SOL     OW63260   9.484   6.673   9.630  0.2297 -0.2938 -0.3347
51431SOL    HW163261   9.570   6.714   9.624  0.4313 -0.3042  1.9018
51431SOL    HW263262   9.497   6.597   9.687 -1.3025 -0.1501  0.2548
51432SOL     OW63263   3.332  12.342   1.863  0.1531 -0.0582 -0.0557
51432SOL    HW163264   3.329  12.399   1.940  0.2128  0.2357 -0.2719
51432SOL    HW263265   3.259  12.372   1.808  0.2467 -0.1233 -0.2161
51433SOL     OW63266   9.080   7.529   0.251  0.1080  0.4081 -0.5061
51433SOL    HW163267   9.161   7.489   0.282 -0.3931 -0.5505 -0.3850
51433SOL    HW263268   9.087   7.620   0.277  1.3970  0.4794 -1.0072
51434SOL     OW63269   1.182   9.985  10.136  0.3789 -0.1817 -0.2592
51434SOL    HW163270   1.106   9.969  10.081 -0.6843  0.1115  1.0679
51434SOL    HW263271   1.156  10.056  10.194  0.8919 -1.4282  1.5936
51435SOL     OW63272   6.461   8.780   5.772  0.0146  0.0168  0.0048
51435SOL    HW163273   6.392   8.819   5.717  1.1578  0.3946 -1.2239
51435SOL    HW263274   6.534   8.841   5.765  1.6203 -1.8995 -1.3785
51436SOL     OW63275   5.653  11.514   9.901 -0.0386  0.0258 -0.1288
51436SOL    HW163276   5.614  11.484   9.819 -1.9023  4.9596 -1.4590
51436SOL    HW263277   5.728  11.567   9.873  1.1653 -0.6460  1.6642
51437SOL     OW63278   2.540   7.677   0.005  0.7223 -0.0673 -0.9094
51437SOL    HW163279   2.520   7.713   0.091 -1.4396 -1.0336 -0.9339
51437SOL    HW263280   2.508   7.743  -0.057  0.3716 -0.2760 -0.9544
51438SOL     OW63281   0.249   2.505  11.128 -0.3506 -0.0115 -0.1351
51438SOL    HW163282   0.283   2.583  11.084 -2.7427  0.6838 -0.9279
51438SOL    HW263283   0.235   2.532  11.219 -2.3684  0.9752 -0.6819
51439SOL     OW63284   9.145   1.840   8.187 -0.0328  0.3731  0.6651
51439SOL    HW163285   9.105   1.923   8.213 -0.7518  1.3160 -2.8832
51439SOL    HW263286   9.239   1.858   8.183  0.2714 -0.1843  3.5134
51440SOL     OW63287  11.780   4.898   2.308 -0.4504  0.3122  0.0470
51440SOL    HW163288  11.857   4.954   2.297 -1.2074  1.5147  0.6541
51440SOL    HW263289  11.731   4.939   2.379 -1.2758 -0.8688  0.1839
51441SOL     OW63290   9.888   2.996   1.716  0.4639 -0.6217  0.2053
51441SOL    HW163291   9.947   2.980   1.643  0.7072 -1.0302  0.4899
51441SOL    HW263292   9.826   2.923   1.713 -1.1086  0.6733 -1.1404
51442SOL     OW63293  10.345   0.942   1.620 -0.2209  0.1903  0.8465
51442SOL    HW163294  10.286   0.897   1.680  0.9888  0.4384  2.2613
51442SOL    HW263295  10.432   0.935   1.661  0.7315 -0.0099 -1.0810
51443SOL     OW63296   3.528   2.130  12.356  0.4655 -0.1191 -0.6923
51443SOL    HW163297   3.534   2.180  12.437  0.3429 -2.1986  0.6915
51443SOL    HW263298   3.619   2.123  12.325  0.4116  1.4633 -1.2875
51444SOL     OW63299   4.167   2.867   0.887 -0.3210 -0.0344  0.0762
51444SOL    HW163300   4.220   2.791   0.908 -1.4928 -0.4672  1.5757
51444SOL    HW263301   4.115   2.884   0.965 -1.6364  1.0155 -0.9636
51445SOL     OW63302   1.983   2.387   0.788 -0.3276  0.2839 -0.1666
51445SOL    HW163303   1.915   2.330   0.823 -0.2452 -0.5983 -1.3862
51445SOL    HW263304   1.937   2.469   0.767 -0.8996 -0.1108 -0.4676
51446SOL     OW63305   0.857   0.836   0.087  0.0456 -0.1228 -0.2667
51446SOL    HW163306   0.929   0.851   0.148 -0.3696  0.4757  0.0765
51446SOL    HW263307   0.896   0.850   0.001  0.4971 -0.4319 -0.1140
51447SOL     OW63308   3.534   2.993   4.933  0.0669 -0.5264 -0.2390
51447SOL    HW163309   3.449   3.031   4.912 -0.8183 -1.9767  0.5470
51447SOL    HW263310   3.596   3.066   4.925 -1.3845  0.8009  0.1435
51448SOL     OW63311   9.461   7.128   9.990  0.1641  0.5051  0.1715
51448SOL    HW163312   9.444   7.160   9.902  2.2470  0.0215 -0.4793
51448SOL    HW263313   9.413   7.187  10.047 -1.5589  0.5800 -1.2855
51449SOL     OW63314   9.017   3.582  11.183 -0.2329  0.3441 -0.0362
51449SOL    HW163315   9.075   3.596  11.109  0.2090  1.2293  0.4598
51449SOL    HW263316   9.042   3.650  11.246 -3.0340  1.9996 -0.5483
51450SOL     OW63317  10.028   6.107  10.021 -0.4394 -0.6485  0.5191
51450SOL    HW163318   9.995   6.175   9.962  1.6022  0.9803  1.1530
51450SOL    HW263319  10.087   6.055   9.967 -0.6512 -0.8453  0.4740
51451SOL     OW63320   0.777   7.819   4.312 -0.3305 -0.2301 -0.3786
51451SOL    HW163321   0.792   7.776   4.228  0.0316 -1.1792  0.1500
51451SOL    HW263322   0.730   7.899   4.290 -0.6065 -0.6653 -1.4483
51452SOL     OW63323  11.863   6.378  11.057  0.1146  0.1599 -0.3167
51452SOL    HW163324  11.797   6.417  11.115  0.3254 -0.2713  0.2320
51452SOL    HW263325  11.813   6.329  10.992 -0.1221  0.2942 -0.2355
51453SOL     OW63326  11.056  11.224  12.149  0.0121 -0.0944  0.2770
51453SOL    HW163327  10.961  11.225  12.139  0.0498 -1.2207 -0.4023
51453SOL    HW263328  11.072  11.165  12.222  0.1615  0.9192  1.0852
51454SOL     OW63329  10.233   2.065  12.496 -0.1716  0.0854  0.7862
51454SOL    HW163330  10.273   1.984  12.464 -1.9383 -0.9925  1.1510
51454SOL    HW263331  10.287   2.089  12.571  2.1127  0.9089 -1.0060
51455SOL     OW63332   7.171   9.266   6.935  0.3814 -0.0134  0.8307
51455SOL    HW163333   7.109   9.334   6.962  0.6691 -0.2242  2.0828
51455SOL    HW263334   7.253   9.313   6.923  0.4438 -0.0443  1.1282
51456SOL     OW63335  10.619   8.660  10.368 -0.2168  0.4863 -0.1182
51456SOL    HW163336  10.598   8.582  10.419  0.2946 -0.4990 -1.3554
51456SOL    HW263337  10.714   8.669  10.374 -0.3852  1.9232  1.2281
51457SOL     OW63338   6.119   3.155   3.423 -0.0306 -0.4315 -0.2954
51457SOL    HW163339   6.197   3.173   3.475 -0.2519 -0.2342 -0.0325
51457SOL    HW263340   6.057   3.225   3.446 -0.0425 -0.1980 -0.9996
51458SOL     OW63341   1.164  10.864   2.801 -0.4626 -0.3988 -0.5859
51458SOL    HW163342   1.079  10.892   2.833  0.0198 -0.8705  1.2055
51458SOL    HW263343   1.221  10.939   2.816 -0.2039 -0.6678 -0.1981
51459SOL     OW63344   1.558  11.898   6.683 -0.3664  0.6634 -0.1238
51459SOL    HW163345   1.574  11.945   6.602  3.6191  0.2764  0.2660
51459SOL    HW263346   1.624  11.829   6.685 -1.0611 -0.0846  2.9430
51460SOL     OW63347   0.335   4.253   3.197 -0.4489  0.1872 -0.3680
51460SOL    HW163348   0.374   4.340   3.201  0.1953 -0.1067  0.0051
51460SOL    HW263349   0.352   4.215   3.283  0.2093 -0.6913 -0.8679
51461SOL     OW63350   6.690   8.510   3.407 -0.4270 -0.2110 -0.1143
51461SOL    HW163351   6.692   8.486   3.499  2.6972 -0.9691 -0.3031
51461SOL    HW263352   6.679   8.427   3.360 -0.2249 -0.0353 -0.4772
51462SOL     OW63353  11.332   7.385  12.024  0.2998 -0.0444 -0.1499
51462SOL    HW163354  11.334   7.356  12.115 -0.2661  0.6893  0.1135
51462SOL    HW263355  11.246   7.355  11.992 -1.2869  3.0633  0.7765
51463SOL     OW63356   4.808  11.551   4.996  0.8816 -0.1567  0.0267
51463SOL    HW163357   4.745  11.607   5.041  2.8486  0.7385  1.8108
51463SOL    HW263358   4.875  11.611   4.964  1.4453 -1.2043 -0.8059
51464SOL     OW63359   1.685   2.867   5.667 -0.2261  0.8309 -0.2702
51464SOL    HW163360   1.634   2.816   5.605 -0.1912 -1.8313  1.7059
51464SOL    HW263361   1.776   2.840   5.650  0.0372  1.9081 -0.6165
51465SOL     OW63362   8.189   5.494   3.419  0.3496  0.1578 -0.2653
51465SOL    HW163363   8.264   5.468   3.472  1.1008  1.8987 -0.4114
51465SOL    HW263364   8.212   5.580   3.386 -1.4268  0.4247 -0.8971
51466SOL     OW63365   2.294   2.652   9.363  0.4701  0.0922  0.2357
51466SOL    HW163366   2.267   2.565   9.334  1.7690  0.0105 -0.8218
51466SOL    HW263367   2.332   2.637   9.450  3.3929 -0.9776 -1.0876
51467SOL     OW63368   3.338  10.145   9.107 -0.3585  0.1257  0.7048
51467SOL    HW163369   3.338  10.234   9.143 -0.7096  0.4406 -0.0672
51467SOL    HW263370   3.429  10.130   9.081 -0.2859  0.2323  0.8901
51468SOL     OW63371  10.312   6.466  11.550  0.0730  0.0377 -0.8484
51468SOL    HW163372  10.279   6.395  11.605  1.4516  0.2515  0.3235
51468SOL    HW263373  10.273   6.450  11.464  0.9696 -2.6696 -0.8660
51469SOL     OW63374  11.190   8.282   1.681  0.7783  0.1767 -0.2970
51469SOL    HW163375  11.195   8.208   1.742  1.6518  1.2504  0.9902
51469SOL    HW263376  11.134   8.346   1.725 -0.7074 -0.0158 -1.7884
51470SOL     OW63377   5.593   6.710   8.521  0.0743 -0.2229  0.0096
51470SOL    HW163378   5.563   6.791   8.561 -1.0804 -0.8498  0.4719
51470SOL    HW263379   5.518   6.680   8.468  1.4956  0.5075 -2.5924
51471SOL     OW63380  11.123   1.656   4.898 -0.3100 -0.0431  0.2324
51471SOL    HW163381  11.175   1.736   4.906  1.0356 -0.5886 -2.0333
51471SOL    HW263382  11.112   1.625   4.988  2.4080  0.7282  0.9180
51472SOL     OW63383   0.458   3.849   9.815  0.8122 -0.1039  0.1327
51472SOL    HW163384   0.458   3.902   9.895 -0.7895  0.2952 -0.1000
51472SOL    HW263385   0.419   3.766   9.841  1.5906 -0.5101  0.0585
51473SOL     OW63386   2.657   1.244  12.121  0.3799 -0.1110 -0.3607
51473SOL    HW163387   2.644   1.252  12.027 -1.1379 -2.2168 -0.4136
51473SOL    HW263388   2.571   1.266  12.159  0.1538 -1.9464  0.2898
51474SOL     OW63389   0.315   7.102   4.761 -0.1111  0.3309 -0.3284
51474SOL    HW163390   0.239   7.159   4.772  0.1523  0.7613 -0.6988
51474SOL    HW263391   0.281   7.014   4.775 -0.0582  0.6943  2.8488
51475SOL     OW63392   4.363   0.171   3.466  0.6216 -0.1539 -0.0760
51475SOL    HW163393   4.399   0.093   3.508  1.9197  0.2143 -0.4406
51475SOL    HW263394   4.428   0.194   3.400 -0.5600  0.2661 -1.1276
51476SOL     OW63395   8.756  10.332   9.972  0.1699  0.0699  0.3064
51476SOL    HW163396   8.703  10.283   9.909 -0.4765  0.3241  0.6359
51476SOL    HW263397   8.816  10.383   9.919  0.0678 -0.2061 -0.0795
51477SOL     OW63398  10.788   4.352   9.302  0.3891 -0.4229  0.2806
51477SOL    HW163399  10.723   4.291   9.268  0.1681  0.2703 -0.5945
51477SOL    HW263400  10.870   4.326   9.260  0.5637 -0.9224  0.9197
51478SOL     OW63401   0.372   0.904   3.802 -0.2163  0.4165 -0.2132
51478SOL    HW163402   0.328   0.835   3.752  0.4724  0.8909 -1.5173
51478SOL    HW263403   0.428   0.948   3.739 -0.1211  1.7485  0.7467
51479SOL     OW63404   5.431   1.375   8.349 -0.2659  0.4101  0.2324
51479SOL    HW163405   5.474   1.404   8.269  1.3745 -0.9074  0.5600
51479SOL    HW263406   5.434   1.451   8.407 -1.3737  1.3398 -0.8730
51480SOL     OW63407   7.073  10.108  11.665  0.1597  0.1750 -0.0772
51480SOL    HW163408   7.113  10.149  11.588 -0.1655  0.3743 -0.1413
51480SOL    HW263409   7.079  10.176  11.733  0.3779  0.0262  0.0541
51481SOL     OW63410  11.957   2.866  12.544 -0.8775 -0.3354 -0.6803
51481SOL    HW163411  11.887   2.896  12.486  0.7560  0.5141 -2.3348
51481SOL    HW263412  12.023   2.935  12.539  1.0702 -2.1139 -1.0165
51482SOL     OW63413   9.574   8.512   7.203 -0.2454 -0.1571 -0.0643
51482SOL    HW163414   9.503   8.460   7.242 -0.6849  0.2414 -0.3217
51482SOL    HW263415   9.529   8.578   7.150  0.3326 -0.1964 -0.6125
51483SOL     OW63416   0.825   0.395   1.978  0.0215  0.2311 -0.1865
51483SOL    HW163417   0.802   0.484   2.005  0.2047  0.1469  0.2668
51483SOL    HW263418   0.921   0.397   1.970  0.4070 -0.7419  2.9997
51484SOL     OW63419   9.732   2.598   6.021 -0.2334  0.1391  0.2919
51484SOL    HW163420   9.762   2.511   5.996 -1.1921 -0.5217  1.3551
51484SOL    HW263421   9.643   2.584   6.054 -1.3123  1.8276 -1.6124
51485SOL     OW63422   8.785   2.568   8.645 -0.0349 -0.1260  0.7983
51485SOL    HW163423   8.869   2.599   8.681 -1.0837  0.7057  2.6583
51485SOL    HW263424   8.746   2.518   8.716 -0.9574 -0.8506 -0.1952
51486SOL     OW63425   4.425   1.346   5.186  0.1661 -0.5046  0.0951
51486SOL    HW163426   4.417   1.441   5.196  1.2754 -0.0478 -2.5487
51486SOL    HW263427   4.440   1.314   5.275 -2.0934  1.5233  1.3153
51487SOL     OW63428   6.562   0.305   5.907  0.5688  0.7755  0.6659
51487SOL    HW163429   6.540   0.394   5.878 -0.4628  1.0126  2.0938
51487SOL    HW263430   6.509   0.248   5.850  0.9157  1.0796  0.0252
51488SOL     OW63431  11.394   1.371   8.627 -0.1384 -0.5317 -0.0618
51488SOL    HW163432  11.462   1.429   8.662 -0.4066  0.0751 -0.5329
51488SOL    HW263433  11.388   1.300   8.691 -0.3134  0.3291  0.8941
51489SOL     OW63434   3.791   7.827   8.111 -0.1432  0.1356  0.3889
51489SOL    HW163435   3.748   7.742   8.106 -1.4399  0.6983  1.3457
51489SOL    HW263436   3.871   7.817   8.060 -0.3591 -1.5994  0.3420
51490SOL     OW63437  11.372   7.506  12.404 -0.1534 -0.4578  0.2469
51490SOL    HW163438  11.360   7.548  12.489  1.0899  0.7288 -0.1369
51490SOL    HW263439  11.467   7.499  12.393 -0.3005 -2.6277 -0.0900
51491SOL     OW63440   6.965   3.586   6.422  0.1744 -0.1599  0.3767
51491SOL    HW163441   6.902   3.599   6.493  0.4360  0.1890  0.5526
51491SOL    HW263442   6.919   3.532   6.358 -0.3389  0.1873  0.4491
51492SOL     OW63443   8.656   5.522   6.402 -0.0202  0.6378  0.3986
51492SOL    HW163444   8.716   5.597   6.409 -0.7753  1.1384  1.8118
51492SOL    HW263445   8.574   5.552   6.441 -0.3794 -0.8829  0.9064
51493SOL     OW63446   5.642  10.918   8.153  0.0722 -0.4478  0.0858
51493SOL    HW163447   5.558  10.921   8.109  0.2017 -0.5928 -0.1742
51493SOL    HW263448   5.646  10.830   8.191  0.1025 -0.4377  0.1059
51494SOL     OW63449   3.848   8.628   5.700 -0.2118 -0.3930 -0.0858
51494SOL    HW163450   3.943   8.630   5.717 -0.5347  1.4399  1.9939
51494SOL    HW263451   3.834   8.698   5.637 -0.2013 -0.5440 -0.2550
51495SOL     OW63452   3.691   0.585  10.876 -0.6002  0.1829 -0.7200
51495SOL    HW163453   3.681   0.672  10.915 -0.0318  0.4990 -1.2443
51495SOL    HW263454   3.765   0.595  10.816  0.3787 -1.0433  0.2609
51496SOL     OW63455   9.301   9.651   2.050 -0.5938  0.3582 -0.1664
51496SOL    HW163456   9.334   9.573   2.006  0.2414  1.1023 -0.9134
51496SOL    HW263457   9.269   9.707   1.979 -0.5899  0.9587  0.2912
51497SOL     OW63458   8.913   9.047   5.930 -0.1914 -0.6365 -0.0203
51497SOL    HW163459   8.990   9.024   5.878 -0.2522 -0.3465 -0.2407
51497SOL    HW263460   8.843   8.991   5.896  0.0118 -1.1745  0.4385
51498SOL     OW63461   5.267   8.500   2.927 -0.5868  0.0228  0.4423
51498SOL    HW163462   5.284   8.576   2.983 -0.7910 -0.9397  1.8524
51498SOL    HW263463   5.194   8.455   2.968 -1.5177 -0.1194 -1.2591
51499SOL     OW63464   9.376  12.222   4.547  0.3452 -0.3237 -0.3481
51499SOL    HW163465   9.327  12.193   4.471  2.4859 -3.1894 -0.8134
51499SOL    HW263466   9.400  12.141   4.593  0.8495  1.1922  2.2628
51500SOL     OW63467   1.250   6.722   4.989  0.6115 -0.0058  0.0938
51500SOL    HW163468   1.299   6.778   4.929  0.4072 -1.7703 -1.8396
51500SOL    HW263469   1.169   6.770   5.007 -0.1814 -0.1753 -2.6049
51501SOL     OW63470   4.187   3.594   1.987  0.1252  0.0670  0.1888
51501SOL    HW163471   4.217   3.575   1.898 -0.5944 -1.9146  0.3177
51501SOL    HW263472   4.267   3.600   2.038  0.4877 -0.9022 -0.2354
51502SOL     OW63473  11.497  11.019   9.798  0.2242 -0.4754  0.1399
51502SOL    HW163474  11.547  10.938   9.796  1.9264  0.4670  1.5141
51502SOL    HW263475  11.439  11.010   9.874 -0.1988 -0.7353 -0.2113
51503SOL     OW63476   7.626   2.356   0.605 -0.5466 -0.5196 -0.2724
51503SOL    HW163477   7.704   2.306   0.628  1.2622  0.2000 -4.1782
51503SOL    HW263478   7.652   2.447   0.612 -1.1609 -0.2627 -1.1419
51504SOL     OW63479   8.813  12.101   2.939  0.1497  0.6433 -0.0562
51504SOL    HW163480   8.751  12.154   2.988 -1.0693 -0.8671  0.1025
51504SOL    HW263481   8.815  12.017   2.985  0.9990  0.0815 -1.0674
51505SOL     OW63482   4.550   6.209   1.317 -0.8895  0.3966 -0.1144
51505SOL    HW163483   4.564   6.301   1.295 -1.7404  0.3575 -0.8720
51505SOL    HW263484   4.614   6.191   1.385 -0.7887  1.5837  0.1293
51506SOL     OW63485   8.127  11.989   9.415  0.2489  0.0304  0.0895
51506SOL    HW163486   8.084  11.922   9.362 -1.0013 -0.6556  1.8665
51506SOL    HW263487   8.215  11.996   9.378 -0.2590 -1.0967 -1.4307
51507SOL     OW63488  10.125   0.708   2.112  0.3838  0.1167 -0.1019
51507SOL    HW163489  10.109   0.791   2.157  1.7162  1.3128 -1.7178
51507SOL    HW263490  10.043   0.690   2.066  0.1443  0.6172  0.1189
51508SOL     OW63491   0.069   1.192   7.797  0.1376  0.5512  0.2902
51508SOL    HW163492   0.161   1.187   7.825  0.9772 -1.6310 -2.3772
51508SOL    HW263493   0.020   1.151   7.867  1.3855  0.3620  1.0907
51509SOL     OW63494   7.428  10.690  11.233  0.3075 -0.0302 -1.3796
51509SOL    HW163495   7.452  10.781  11.249 -0.1794 -0.2854  1.2980
51509SOL    HW263496   7.334  10.694  11.211 -0.2320  0.0204  0.7417
51510SOL     OW63497   5.804   8.465   2.684  0.1955 -0.1599 -0.0317
51510SOL    HW163498   5.818   8.380   2.726  0.3368 -0.6790 -1.1092
51510SOL    HW263499   5.823   8.450   2.591 -3.0211  0.2183 -0.8634
51511SOL     OW63500   4.377   1.465   6.009  0.0745  0.4201 -0.0671
51511SOL    HW163501   4.412   1.448   5.922  0.3853  1.0323 -0.0713
51511SOL    HW263502   4.454   1.477   6.064 -0.0973 -1.0817  0.5501
51512SOL     OW63503   6.428   3.037   8.731 -0.3015  0.0326 -0.6361
51512SOL    HW163504   6.491   2.986   8.681  1.0415 -0.2152  1.2014
51512SOL    HW263505   6.362   2.974   8.760  0.5483 -0.4109  0.3825
51513SOL     OW63506   3.240   3.492   9.666 -0.0036  0.0588  0.0597
51513SOL    HW163507   3.273   3.453   9.747  0.8471  0.1419 -0.2307
51513SOL    HW263508   3.191   3.569   9.694 -0.0803 -0.1619  0.5245
51514SOL     OW63509   4.481   7.079   2.469 -0.1436 -0.1734 -0.2066
51514SOL    HW163510   4.574   7.091   2.490 -0.3584 -1.2193  1.5535
51514SOL    HW263511   4.473   6.986   2.450 -0.7777 -0.0110 -0.7791
51515SOL     OW63512   7.962   3.413   4.634  0.0277 -0.7300 -0.5544
51515SOL    HW163513   7.898   3.476   4.667  0.5586 -0.2022 -0.5252
51515SOL    HW263514   8.039   3.465   4.613  0.1947 -1.2560 -1.3019
51516SOL     OW63515   6.721   4.364   2.151  0.3966 -0.6515  0.1760
51516SOL    HW163516   6.742   4.432   2.214 -0.5713  1.4025 -1.5933
51516SOL    HW263517   6.795   4.364   2.090 -0.7428  0.7709 -1.3225
51517SOL     OW63518   1.791   5.306   4.188 -0.3230 -0.4000  0.3670
51517SOL    HW163519   1.778   5.222   4.143  1.3689 -0.0932 -0.7561
51517SOL    HW263520   1.705   5.325   4.227 -0.6452 -2.8580  1.0475
51518SOL     OW63521   9.141   0.787  12.225  0.2915  0.4276 -0.1983
51518SOL    HW163522   9.049   0.785  12.196  0.1178  0.5637  0.3279
51518SOL    HW263523   9.190   0.749  12.152 -0.2124  0.1261 -0.3853
51519SOL     OW63524   2.590   4.088   1.941  0.3088  0.2269  0.4786
51519SOL    HW163525   2.580   3.995   1.962  0.9237 -0.7756 -2.9581
51519SOL    HW263526   2.502   4.123   1.949  0.0386 -0.6712  1.7209
51520SOL     OW63527   3.025   8.618   3.931  0.2887 -0.4219 -0.1573
51520SOL    HW163528   3.077   8.650   3.857  1.0044  0.9904  0.9206
51520SOL    HW263529   3.017   8.693   3.990 -1.3893 -1.1418  0.6094
51521SOL     OW63530   7.581   6.165   7.624 -0.4536 -0.1477 -0.2604
51521SOL    HW163531   7.665   6.118   7.624 -0.4471 -0.1407  0.2779
51521SOL    HW263532   7.598   6.243   7.676 -0.9601 -0.4390  0.3392
51522SOL     OW63533   2.947   4.232   7.666 -0.2419  0.1984  0.6912
51522SOL    HW163534   3.023   4.206   7.614 -0.7366  0.8508 -0.4150
51522SOL    HW263535   2.978   4.306   7.718  0.0960 -0.0458  0.8379
51523SOL     OW63536   7.036   1.106   0.972  0.4868 -0.0074  0.1824
51523SOL    HW163537   6.988   1.165   0.914  0.2405 -0.6285 -0.2488
51523SOL    HW263538   7.115   1.083   0.923  0.9268  0.5138  0.6358
51524SOL     OW63539   4.531  11.986  10.401 -0.0024  0.0030 -0.3053
51524SOL    HW163540   4.482  12.067  10.419  0.3459  0.4381 -1.3080
51524SOL    HW263541   4.534  11.980  10.306 -2.1481 -2.4824 -0.3344
51525SOL     OW63542   9.425   6.723   8.209 -0.5856 -0.3493 -0.2141
51525SOL    HW163543   9.357   6.657   8.194 -0.4440 -0.6740  0.5173
51525SOL    HW263544   9.503   6.672   8.229 -0.2803  0.0319 -0.4366
51526SOL     OW63545   9.280   8.658  11.229 -0.3087 -0.2903  0.2219
51526SOL    HW163546   9.338   8.665  11.305 -0.8907  0.8397  0.5828
51526SOL    HW263547   9.298   8.738  11.179  0.1479 -1.0763 -0.8979
51527SOL     OW63548   2.589   8.427   0.669  0.4234 -0.3253  0.3666
51527SOL    HW163549   2.505   8.424   0.623  0.0342 -0.7119  1.0853
51527SOL    HW263550   2.653   8.401   0.604  0.0092  0.1338 -0.2387
51528SOL     OW63551   8.580  11.892   1.830 -0.3430 -0.2265  0.1803
51528SOL    HW163552   8.602  11.967   1.774 -0.9158 -0.0233  0.2196
51528SOL    HW263553   8.586  11.925   1.919  1.2079 -0.7238  0.2763
51529SOL     OW63554   3.969   0.020   2.984  0.2055 -0.4636 -0.8504
51529SOL    HW163555   3.929   0.105   3.001  2.2867  0.5098 -0.6387
51529SOL    HW263556   3.924  -0.012   2.906 -0.6005  0.8013 -0.9306
51530SOL     OW63557   0.202   3.333   2.640  0.4735  0.4952  0.2508
51530SOL    HW163558   0.144   3.409   2.635  0.4872  0.7044  2.3504
51530SOL    HW263559   0.163   3.269   2.580 -1.9268  0.6671  1.4954
51531SOL     OW63560   6.214   1.080   4.714  0.9370 -0.7165  0.2969
51531SOL    HW163561   6.128   1.043   4.737  0.3525 -0.5584 -1.4636
51531SOL    HW263562   6.227   1.150   4.777 -0.3088 -0.6556  0.5151
51532SOL     OW63563   9.608   0.899   6.558  0.0373 -0.0463  0.3540
51532SOL    HW163564   9.672   0.961   6.524 -0.4765  0.5265  0.4063
51532SOL    HW263565   9.523   0.941   6.542 -0.3186 -0.7541  0.3584
51533SOL     OW63566  10.605   6.916   8.372  0.5060 -0.0615 -0.0296
51533SOL    HW163567  10.538   6.926   8.439 -3.0334 -2.4523 -2.8709
51533SOL    HW263568  10.620   6.822   8.366  1.3177  0.1408 -2.0620
51534SOL     OW63569   7.784  10.983   6.884  0.3104 -0.0201 -0.3259
51534SOL    HW163570   7.786  10.906   6.941  0.3772  0.3632  0.2072
51534SOL    HW263571   7.812  10.951   6.799  0.0325 -0.6447 -0.1841
51535SOL     OW63572  10.222   0.847   7.951  0.6281  0.1520  0.3852
51535SOL    HW163573  10.156   0.856   7.883  1.9348  0.0654 -0.9553
51535SOL    HW263574  10.287   0.915   7.930  2.5061 -1.7166 -0.2360
51536SOL     OW63575   1.595   1.161  11.744  0.8744 -0.0124 -0.6225
51536SOL    HW163576   1.573   1.196  11.830  2.8555  2.7611 -1.0907
51536SOL    HW263577   1.617   1.069  11.760 -1.1134 -0.2327  1.3561
51537SOL     OW63578   1.827   6.555   3.361  0.3950 -0.2893 -0.0212
51537SOL    HW163579   1.901   6.605   3.395  0.2342  1.0697 -1.5002
51537SOL    HW263580   1.761   6.622   3.341  0.7423 -0.8243 -3.5405
51538SOL     OW63581   3.095  10.718   6.918  0.2469  0.0354 -0.8930
51538SOL    HW163582   3.087  10.635   6.872  3.5698 -0.6950 -0.4310
51538SOL    HW263583   3.135  10.695   7.002  0.9222  2.0465 -0.6027
51539SOL     OW63584  10.967   7.909   8.436  0.2026  0.1249 -0.6540
51539SOL    HW163585  10.979   7.854   8.513 -0.5341  3.4314  2.0812
51539SOL    HW263586  11.055   7.940   8.415  0.1325  1.2477  0.5964
51540SOL     OW63587   1.161   4.397   6.511 -0.3741  0.0160  0.0961
51540SOL    HW163588   1.170   4.359   6.423 -1.4642  0.1898 -0.1123
51540SOL    HW263589   1.247   4.434   6.530  0.2283 -1.0973 -0.3809
51541SOL     OW63590   4.133   0.189  12.096 -0.1194 -0.0147  0.7512
51541SOL    HW163591   4.179   0.108  12.075 -1.7733 -0.7813 -0.0598
51541SOL    HW263592   4.095   0.174  12.182  0.5610  0.3669  1.1261
51542SOL     OW63593   3.250   7.397   7.841  0.1368  0.3894  0.3127
51542SOL    HW163594   3.301   7.354   7.909  1.2305  0.3415 -0.5159
51542SOL    HW263595   3.308   7.463   7.804 -0.0964 -0.1773 -1.1619
51543SOL     OW63596   1.435   1.220   0.429 -0.3630 -0.6297 -0.0400
51543SOL    HW163597   1.442   1.132   0.393 -0.2170 -0.3614 -0.6810
51543SOL    HW263598   1.511   1.267   0.393 -0.8899 -0.0122 -0.3623
51544SOL     OW63599   3.632   6.702   0.603  0.5654  0.2018  0.7759
51544SOL    HW163600   3.685   6.778   0.581  1.9339 -0.8831  0.1424
51544SOL    HW263601   3.557   6.737   0.652  1.0822  1.9376  0.3658
51545SOL     OW63602   3.943  11.825   7.274  0.3527  0.0545  0.0594
51545SOL    HW163603   3.920  11.780   7.355 -1.3800  1.3108  0.3195
51545SOL    HW263604   3.984  11.906   7.302 -1.4447  1.1161 -0.2374
51546SOL     OW63605   4.795   1.825  11.532  0.0008 -0.2571 -0.2311
51546SOL    HW163606   4.701   1.822  11.517 -0.4817  1.2467  2.0908
51546SOL    HW263607   4.817   1.738  11.565 -0.7337 -0.3698 -0.0241
51547SOL     OW63608   1.947   0.826   3.453  0.4478 -0.0933 -0.5674
51547SOL    HW163609   1.944   0.731   3.457  1.0040 -0.1131 -0.4538
51547SOL    HW263610   1.960   0.846   3.361 -0.5433 -0.0923 -0.7096
51548SOL     OW63611   3.653   7.584   7.982 -0.0107  0.0723  0.0088
51548SOL    HW163612   3.709   7.508   8.000  1.3086  0.5329 -1.8144
51548SOL    HW263613   3.564   7.549   7.984  0.4531 -1.1432  0.9255
51549SOL     OW63614  12.418   4.015   3.592  0.5967  0.4674 -0.2814
51549SOL    HW163615  12.362   3.943   3.564  0.1481  1.2333 -1.4238
51549SOL    HW263616  12.501   3.974   3.617  0.1738 -0.4837 -0.4243
51550SOL     OW63617  10.172   5.533   8.402 -0.0530  0.0521  0.2515
51550SOL    HW163618  10.254   5.565   8.439 -0.4777  2.0679 -0.4343
51550SOL    HW263619  10.104   5.572   8.456 -0.5960 -1.2250  0.5218
51551SOL     OW63620   0.027   7.500   6.299 -0.3279 -0.5870  0.1798
51551SOL    HW163621  -0.057   7.522   6.259 -0.7916 -1.8603  0.4077
51551SOL    HW263622   0.042   7.409   6.274  2.5120  0.4077 -2.5220
51552SOL     OW63623   3.369   8.848   3.249  0.0434  0.3272  0.0039
51552SOL    HW163624   3.324   8.894   3.178  0.0456 -1.5510 -1.3015
51552SOL    HW263625   3.325   8.763   3.254  0.5311  0.1233  1.7835
51553SOL     OW63626   6.951   9.607   8.274  0.0560 -0.4185  0.3205
51553SOL    HW163627   6.931   9.579   8.185  0.9885 -0.4284  0.0998
51553SOL    HW263628   6.892   9.680   8.291 -1.9657 -2.0485  0.6591
51554SOL     OW63629   2.242  10.181   2.851  0.3122 -0.1673 -0.1412
51554SOL    HW163630   2.153  10.154   2.872  0.6609  0.2026  2.0872
51554SOL    HW263631   2.297  10.119   2.898  1.2171  0.4096 -0.4202
51555SOL     OW63632   7.879  12.116   8.203 -0.5611 -0.4572 -0.7338
51555SOL    HW163633   7.892  12.027   8.170 -1.0793 -0.6965 -0.3102
51555SOL    HW263634   7.794  12.113   8.248  1.7397 -1.3384  4.3247
51556SOL     OW63635   8.718   6.684   2.165 -0.2215 -0.0467 -0.5237
51556SOL    HW163636   8.634   6.642   2.186  1.0717 -1.4373  2.4404
51556SOL    HW263637   8.709   6.772   2.202 -0.2104 -0.3975  0.3557
51557SOL     OW63638   3.460  10.630  11.242  0.5814  0.5148  0.3083
51557SOL    HW163639   3.497  10.609  11.328  0.1988 -0.0660  0.3419
51557SOL    HW263640   3.387  10.569  11.233  0.8634  0.3026 -0.5983
51558SOL     OW63641   2.503   0.577   5.670  0.3167 -0.2911  0.0069
51558SOL    HW163642   2.488   0.513   5.600  2.0424 -2.5315  1.4943
51558SOL    HW263643   2.453   0.543   5.744  1.1729  0.1226  0.7997
51559SOL     OW63644  11.105   7.911   1.639  0.6213  0.4363 -0.5071
51559SOL    HW163645  11.181   7.886   1.691  0.1232 -0.7255 -0.2872
51559SOL    HW263646  11.031   7.871   1.685 -0.0661  1.1293 -0.9860
51560SOL     OW63647   6.642  10.181   0.739 -0.1613  0.3155  0.7087
51560SOL    HW163648   6.591  10.126   0.798  0.5454 -1.2128 -0.0437
51560SOL    HW263649   6.731  10.144   0.743  1.0320  3.0296  2.1518
51561SOL     OW63650   1.498   1.558   4.844  0.4675  0.0901  0.3157
51561SOL    HW163651   1.452   1.576   4.926  1.1519 -0.5476  0.8541
51561SOL    HW263652   1.485   1.464   4.829  0.8436  0.0865 -0.0024
51562SOL     OW63653   9.301   3.308   1.018 -1.0767 -0.0607 -0.2585
51562SOL    HW163654   9.255   3.388   1.042  0.3939 -0.0512  3.0806
51562SOL    HW263655   9.240   3.238   1.037 -1.0321  0.1278  0.6345
51563SOL     OW63656   1.402   4.900   4.642  0.4700 -0.1025 -0.4725
51563SOL    HW163657   1.330   4.878   4.583  0.1803  1.4845 -0.7540
51563SOL    HW263658   1.375   4.866   4.727 -1.4197  1.8739 -0.1979
51564SOL     OW63659   2.430   4.615   8.271  0.4496 -0.6495 -0.6000
51564SOL    HW163660   2.393   4.680   8.211 -2.3677 -2.2414 -0.7471
51564SOL    HW263661   2.426   4.657   8.357 -0.5493 -0.2923 -0.8103
51565SOL     OW63662   0.458  10.246   2.412  0.1677  0.0589 -0.5328
51565SOL    HW163663   0.427  10.241   2.322  2.2427 -0.8538 -1.2643
51565SOL    HW263664   0.513  10.324   2.415 -2.6001  2.1359  0.9603
51566SOL     OW63665  10.114   7.558   4.449 -0.2493 -0.3625 -0.0504
51566SOL    HW163666  10.152   7.476   4.418  1.4035  0.4155 -0.1739
51566SOL    HW263667  10.189   7.613   4.471 -1.3248  0.5975  1.4652
51567SOL     OW63668   9.846   3.337   0.513 -0.5778 -0.2816  0.3207
51567SOL    HW163669   9.762   3.333   0.467 -0.8879 -0.1243  0.8668
51567SOL    HW263670   9.826   3.379   0.596  0.4677  1.8442 -0.4482
51568SOL     OW63671   2.761   2.576  10.463  0.2631  0.2752  0.2327
51568SOL    HW163672   2.706   2.627  10.403 -1.6478 -1.0426  0.7668
51568SOL    HW263673   2.774   2.492  10.418 -0.3981 -0.3722  1.2026
51569SOL     OW63674   7.403   9.942   6.309  0.0978  0.2045  0.2436
51569SOL    HW163675   7.378   9.857   6.272 -1.0319  0.5193  0.2458
51569SOL    HW263676   7.371  10.006   6.245  2.6876  0.6088 -0.7814
51570SOL     OW63677   6.440   6.188   8.318 -0.2608 -0.0677 -0.2456
51570SOL    HW163678   6.347   6.170   8.305 -0.1206 -0.6456 -0.4820
51570SOL    HW263679   6.485   6.108   8.288  0.2268 -0.5023  1.4766
51571SOL     OW63680   4.336   5.736   8.247  0.0765 -0.3081  0.5161
51571SOL    HW163681   4.407   5.780   8.199 -0.4084 -1.1527 -1.0242
51571SOL    HW263682   4.262   5.738   8.187 -1.2722  0.6156  2.1330
51572SOL     OW63683   4.493   0.367   0.902  0.4622 -0.4698  0.0932
51572SOL    HW163684   4.447   0.407   0.976  0.7495  1.0371 -0.5203
51572SOL    HW263685   4.580   0.347   0.936  0.3907 -0.3614  0.3446
51573SOL     OW63686   7.155   4.872   3.559 -0.5613 -0.8863 -0.0885
51573SOL    HW163687   7.145   4.816   3.482  0.7454  0.0813 -0.9974
51573SOL    HW263688   7.067   4.904   3.577 -1.0643 -1.9986 -0.4932
51574SOL     OW63689   5.687   2.113   5.846  0.0223 -0.1959 -0.0188
51574SOL    HW163690   5.761   2.058   5.869 -1.4121 -2.5607 -0.7319
51574SOL    HW263691   5.618   2.088   5.908 -0.7248  0.7257 -0.4347
51575SOL     OW63692   1.894  11.177  10.768  0.2934  0.3453 -0.1413
51575SOL    HW163693   1.929  11.119  10.835 -2.5054 -0.7416  0.5467
51575SOL    HW263694   1.842  11.241  10.816  1.8879  2.3901 -1.0331
51576SOL     OW63695   1.148   6.483   6.155 -0.2336 -0.9816 -0.3073
51576SOL    HW163696   1.242   6.467   6.149 -0.1613 -0.4744 -0.5668
51576SOL    HW263697   1.125   6.523   6.071 -0.5435 -0.4168  0.0397
51577SOL     OW63698   9.817   3.866   5.475  0.5919 -0.8886  0.0434
51577SOL    HW163699   9.886   3.849   5.539  1.1430  4.6909  1.4559
51577SOL    HW263700   9.742   3.892   5.528 -0.0325  0.6042 -1.4838
51578SOL     OW63701   6.670   8.318   9.283 -0.2364 -0.1879  0.6731
51578SOL    HW163702   6.692   8.276   9.367 -0.5220 -1.4266  0.1458
51578SOL    HW263703   6.577   8.336   9.290 -0.3749 -0.7759  0.4323
51579SOL     OW63704  11.008   2.227  11.651  0.1502 -0.1818  0.0374
51579SOL    HW163705  11.038   2.136  11.651  0.6337 -0.0394  1.3934
51579SOL    HW263706  10.916   2.222  11.624  0.0402 -1.1206  0.5565
51580SOL     OW63707   0.259  11.568   7.751 -0.2942  0.6274  0.3264
51580SOL    HW163708   0.218  11.615   7.823 -0.1029  2.0055 -0.4147
51580SOL    HW263709   0.232  11.617   7.673 -1.5494 -1.5618 -0.6779
51581SOL     OW63710   8.788   3.818   8.579 -0.0628 -0.1307 -0.3608
51581SOL    HW163711   8.735   3.754   8.627 -0.2089  0.0678 -0.2564
51581SOL    HW263712   8.847   3.854   8.645 -1.4403  1.4216  0.0901
51582SOL     OW63713  11.089   8.284  12.488  0.0949 -0.1808  0.0233
51582SOL    HW163714  11.180   8.306  12.511  0.1004 -2.4012  2.5296
51582SOL    HW263715  11.045   8.369  12.484  1.7069  0.8016  1.5603
51583SOL     OW63716  11.200   4.638   8.196 -0.2829 -0.3596  0.4133
51583SOL    HW163717  11.232   4.706   8.254 -0.8186  0.0375  0.2559
51583SOL    HW263718  11.276   4.583   8.179  0.0144 -0.1440  1.0167
51584SOL     OW63719  11.789   5.593  10.179  0.3863 -0.5270 -0.1371
51584SOL    HW163720  11.828   5.627  10.099  1.1403  0.0404  0.4620
51584SOL    HW263721  11.862   5.584  10.240  0.0010 -2.0104  0.1402
51585SOL     OW63722   8.931   1.509   0.637 -0.0539  0.6282  0.0488
51585SOL    HW163723   8.921   1.417   0.664  0.5776  0.6606  0.4121
51585SOL    HW263724   9.016   1.512   0.592  0.2289  1.1636  0.6101
51586SOL     OW63725  10.502   8.876   9.497 -0.1980 -0.3887 -0.3248
51586SOL    HW163726  10.583   8.831   9.520 -0.1540 -0.5076 -0.6993
51586SOL    HW263727  10.444   8.807   9.465 -0.3819 -0.2774 -0.2379
51587SOL     OW63728   3.733   0.055   8.061  0.3434  0.1827 -0.3751
51587SOL    HW163729   3.827   0.051   8.044  0.2332  0.6664 -1.1871
51587SOL    HW263730   3.706   0.138   8.022 -0.4254  0.0330 -0.1705
51588SOL     OW63731   2.996   1.162   2.975 -0.0123  0.2418 -0.0440
51588SOL    HW163732   2.960   1.208   3.051  0.2403  0.7519 -0.2271
51588SOL    HW263733   3.006   1.071   3.005  0.0845  0.4354  0.5387
51589SOL     OW63734   6.521   1.690   5.872 -0.3316 -0.6468 -0.7813
51589SOL    HW163735   6.427   1.673   5.882 -1.1277  3.4992  1.0458
51589SOL    HW263736   6.561   1.648   5.949 -0.7499 -1.7807 -1.1572
51590SOL     OW63737   9.003   3.020   7.188  0.4000 -0.1809 -0.5357
51590SOL    HW163738   8.923   3.004   7.238 -0.4294 -1.7288 -2.2054
51590SOL    HW263739   8.978   3.002   7.097  2.0618  1.6132 -1.4167
51591SOL     OW63740  12.395   2.278   1.501 -0.3641 -0.0942 -0.2288
51591SOL    HW163741  12.448   2.295   1.424 -0.7466 -0.7239 -0.6507
51591SOL    HW263742  12.318   2.231   1.467 -0.8483  0.1856  0.4501
51592SOL     OW63743   1.533   8.254  12.302  0.0769  0.2166 -0.1248
51592SOL    HW163744   1.532   8.336  12.351  2.0443 -0.3990  1.0663
51592SOL    HW263745   1.615   8.256  12.253  0.5117 -1.2945  0.4633
51593SOL     OW63746   3.036  12.495   8.200 -0.2605  0.0560  0.0280
51593SOL    HW163747   3.054  12.524   8.289  0.9862  0.7215 -0.4198
51593SOL    HW263748   3.013  12.402   8.209  0.3838 -0.0228  0.9741
51594SOL     OW63749   2.814   4.137   9.338 -0.4986 -0.8073 -0.2220
51594SOL    HW163750   2.733   4.124   9.288 -2.1503  0.2736  1.9861
51594SOL    HW263751   2.821   4.232   9.347  1.1938 -0.8702 -0.5388
51595SOL     OW63752   3.701   9.331  12.217  0.1280 -0.6197  0.1798
51595SOL    HW163753   3.732   9.297  12.133 -0.0734 -2.6324  0.8621
51595SOL    HW263754   3.606   9.329  12.211  0.1157  0.5002 -0.0186
51596SOL     OW63755  11.913  10.243   2.521 -0.2908 -0.4810  0.0012
51596SOL    HW163756  11.866  10.255   2.603 -0.5012  1.4001 -0.3498
51596SOL    HW263757  12.003  10.227   2.548 -0.4860 -0.5772  0.6185
51597SOL     OW63758   1.600  12.256   1.269  0.4010 -0.0891  0.2114
51597SOL    HW163759   1.607  12.194   1.196  2.0837 -0.5880  0.7431
51597SOL    HW263760   1.510  12.249   1.298  0.3509 -1.7400 -0.2401
51598SOL     OW63761   2.615   1.460   3.584  0.0275  0.1013  0.1557
51598SOL    HW163762   2.644   1.401   3.653 -0.3467  0.2071  0.4079
51598SOL    HW263763   2.688   1.462   3.522  0.8609  0.9170  1.1219
51599SOL     OW63764   7.453  10.540  10.583  0.7209 -0.2660 -0.0485
51599SOL    HW163765   7.422  10.455  10.550 -1.2254 -0.5647  2.3104
51599SOL    HW263766   7.469  10.525  10.676 -0.0258  2.0479  0.4999
51600SOL     OW63767  11.375   1.214   7.086 -0.1745 -0.2680  0.5491
51600SOL    HW163768  11.445   1.155   7.115  0.2530 -2.0040 -3.4148
51600SOL    HW263769  11.313   1.215   7.159  1.1936 -3.3813  1.9542
51601SOL     OW63770  11.100   8.743   7.678  0.5659  0.3885  0.2970
51601SOL    HW163771  11.071   8.683   7.609  0.8285  0.3552  0.2180
51601SOL    HW263772  11.188   8.769   7.652  0.0729  1.6078 -0.2102
51602SOL     OW63773   8.763  12.128  12.580  0.2479 -0.4712 -0.0292
51602SOL    HW163774   8.747  12.208  12.630 -1.0417 -0.6089 -0.1967
51602SOL    HW263775   8.678  12.104  12.545  0.9795 -0.7710 -1.7206
51603SOL     OW63776   9.947   1.633   4.486  0.5451 -0.1697 -0.0718
51603SOL    HW163777   9.934   1.539   4.485  0.7264 -0.2138 -1.9647
51603SOL    HW263778  10.024   1.646   4.542  1.8673 -1.3721 -1.5176
51604SOL     OW63779   8.784   3.372   2.240 -0.6447  0.3134  0.1086
51604SOL    HW163780   8.839   3.450   2.239  1.8364 -1.3170 -0.2096
51604SOL    HW263781   8.822   3.316   2.308 -1.8780 -0.9534 -0.1846
51605SOL     OW63782   7.707   4.398  12.450 -0.5288  0.2499 -0.8742
51605SOL    HW163783   7.701   4.362  12.538 -2.8848  0.8791 -0.6958
51605SOL    HW263784   7.797   4.383  12.423  0.6774  1.2815  2.1789
51606SOL     OW63785   8.923   3.462   2.451  0.5539  0.0922 -0.6976
51606SOL    HW163786   8.990   3.474   2.518  0.6911  0.4918 -0.9047
51606SOL    HW263787   8.928   3.541   2.397 -0.7731  0.5987 -0.1161
51607SOL     OW63788   3.395   0.355   0.733 -0.5289  0.0434  0.1810
51607SOL    HW163789   3.336   0.385   0.664 -0.2036  0.8346  0.2280
51607SOL    HW263790   3.466   0.420   0.733  0.0570 -0.5857  0.4891
51608SOL     OW63791  11.275   6.072   5.827  0.0096 -0.2119  0.2374
51608SOL    HW163792  11.184   6.088   5.802 -0.2180 -0.6148  0.7790
51608SOL    HW263793  11.324   6.144   5.788 -0.9477  1.8138  2.4911
51609SOL     OW63794   1.145   3.263   8.561 -0.0746  0.1399 -0.2315
51609SOL    HW163795   1.179   3.348   8.591  1.0864  0.2432 -1.7467
51609SOL    HW263796   1.098   3.228   8.637  1.9665  0.7916  1.4065
51610SOL     OW63797  11.325   7.655  12.064 -0.3291  0.3708 -0.0998
51610SOL    HW163798  11.419   7.667  12.068 -0.1331 -0.8205 -0.7530
51610SOL    HW263799  11.312   7.560  12.072 -1.4389  0.4863 -0.3195
51611SOL     OW63800   9.241   6.613   8.958  0.0222 -0.3086  0.3322
51611SOL    HW163801   9.276   6.616   8.869 -2.1166 -1.1151 -0.6091
51611SOL    HW263802   9.312   6.574   9.010  0.4544 -2.1750 -1.5068
51612SOL     OW63803   6.867  12.236   0.843 -0.1386 -0.0229 -0.2116
51612SOL    HW163804   6.842  12.184   0.766  0.3871 -0.6116  0.0032
51612SOL    HW263805   6.810  12.312   0.840  0.1519  0.1657 -1.4086
51613SOL     OW63806   7.879   7.811   9.524 -0.1282  0.4238 -0.0441
51613SOL    HW163807   7.811   7.760   9.569 -1.2388  1.7249 -0.2097
51613SOL    HW263808   7.889   7.890   9.577  0.1995  0.9204 -0.8315
51614SOL     OW63809   7.041   9.620   2.401 -0.1370 -0.0095  0.4494
51614SOL    HW163810   7.022   9.529   2.380  3.1849 -0.6844 -0.1425
51614SOL    HW263811   6.972   9.670   2.358 -0.6393 -2.1175 -1.3265
51615SOL     OW63812   7.859   2.542   2.634  0.0718 -0.4480  0.2631
51615SOL    HW163813   7.834   2.582   2.551  3.4261  1.4168 -0.0371
51615SOL    HW263814   7.895   2.457   2.610 -0.3411 -0.5513  0.0084
51616SOL     OW63815   0.484   8.192   3.066 -0.5930  0.3164 -0.2022
51616SOL    HW163816   0.461   8.133   2.995 -0.4564 -1.2469  0.9795
51616SOL    HW263817   0.421   8.172   3.135  1.8128 -1.3975  1.7057
51617SOL     OW63818   4.728  12.250   3.642 -0.1258 -0.6516  0.2345
51617SOL    HW163819   4.709  12.173   3.696  0.3465 -0.4717  0.6736
51617SOL    HW263820   4.793  12.219   3.578 -2.1161 -1.3831 -1.5547
51618SOL     OW63821   2.437   7.459   0.113 -0.1617 -0.3387  0.1843
51618SOL    HW163822   2.374   7.466   0.041  0.8666 -0.4872 -0.7520
51618SOL    HW263823   2.508   7.519   0.090  1.5042 -2.3756 -0.3516
51619SOL     OW63824   3.012   8.673   1.305 -0.4428  0.0065 -0.9616
51619SOL    HW163825   2.961   8.600   1.342 -0.1934  0.1566 -0.3147
51619SOL    HW263826   3.066   8.703   1.378  0.0077  0.3502 -1.4382
51620SOL     OW63827   4.546   3.090   2.278  0.0151 -0.6429  0.3233
51620SOL    HW163828   4.590   3.070   2.196  0.0824 -1.9825  0.6625
51620SOL    HW263829   4.460   3.122   2.252  1.4453  3.1231 -0.4005
51621SOL     OW63830   2.050   2.594   7.022  0.5778  0.2277 -0.2318
51621SOL    HW163831   2.070   2.679   7.061 -0.0591  0.1253  0.3423
51621SOL    HW263832   2.002   2.615   6.942  0.6142  0.4046 -0.2094
51622SOL     OW63833  12.488   7.789  11.307 -0.3795 -0.0761  0.4293
51622SOL    HW163834  12.431   7.793  11.385 -0.0295 -0.1166  0.6898
51622SOL    HW263835  12.437   7.832  11.238 -0.0461  1.4322  1.0764
51623SOL     OW63836   9.238   8.700   5.460  0.3093 -0.0865  0.2376
51623SOL    HW163837   9.184   8.703   5.381 -0.8861  0.8562  1.0645
51623SOL    HW263838   9.214   8.618   5.503 -1.2024  0.7509  1.0706
51624SOL     OW63839   3.720   7.454   6.535 -0.1913 -0.5330 -0.0082
51624SOL    HW163840   3.661   7.440   6.461  0.7564 -0.9447 -0.7116
51624SOL    HW263841   3.665   7.493   6.603 -0.9236  0.5834 -1.1917
51625SOL     OW63842   3.996   8.485   5.154 -0.4788 -0.5566 -0.2670
51625SOL    HW163843   4.086   8.451   5.155  0.5332  1.8787 -1.0740
51625SOL    HW263844   3.980   8.510   5.063 -2.0699 -1.1253 -0.1726
51626SOL     OW63845   9.946   3.038  10.808  0.0061  0.3977  0.1530
51626SOL    HW163846   9.954   3.003  10.719 -1.9060  1.6422 -0.5766
51626SOL    HW263847  10.032   3.075  10.827  0.4366  0.1590 -1.1986
51627SOL     OW63848   2.773  10.157   9.569  0.4518  0.0750 -0.4384
51627SOL    HW163849   2.804  10.148   9.659  0.6868  0.9590 -0.4186
51627SOL    HW263850   2.825  10.095   9.518  0.4821 -0.2571 -0.0040
51628SOL     OW63851   2.443   0.994   9.116 -0.1583  0.2080  0.1236
51628SOL    HW163852   2.521   0.959   9.073 -1.4316 -2.0857 -0.5275
51628SOL    HW263853   2.371   0.973   9.056 -1.4599  0.9767  1.3384
51629SOL     OW63854   1.247   5.690   1.307 -0.0376 -0.7537  0.1217
51629SOL    HW163855   1.201   5.703   1.390  0.0528  0.0745  0.0527
51629SOL    HW263856   1.185   5.642   1.252 -0.5216 -0.3435  0.3021
51630SOL     OW63857   5.462   0.194   8.994  0.0853 -0.1100 -0.0110
51630SOL    HW163858   5.387   0.235   8.950 -0.3534 -1.8718 -0.9717
51630SOL    HW263859   5.474   0.247   9.073 -0.4764  1.8277 -1.1476
51631SOL     OW63860   3.603   6.570   2.240  1.6775 -0.1090  0.2269
51631SOL    HW163861   3.665   6.546   2.309  0.4415  0.4964  1.5852
51631SOL    HW263862   3.549   6.492   2.228  0.6346  0.4220  1.3563
51632SOL     OW63863   4.238   6.081   3.465  0.8995 -0.2540  0.6373
51632SOL    HW163864   4.213   5.989   3.475 -0.3852  0.1561  1.3787
51632SOL    HW263865   4.216   6.102   3.374 -0.0812 -0.3236  0.8457
51633SOL     OW63866   3.877   1.675  10.139 -0.4704  0.3067 -0.0983
51633SOL    HW163867   3.963   1.703  10.169 -0.9039  1.0331  0.4934
51633SOL    HW263868   3.882   1.579  10.139  0.3679  0.3394 -0.1822
51634SOL     OW63869   5.354  11.563   3.805 -0.1815  0.0321  0.4048
51634SOL    HW163870   5.322  11.623   3.873  2.8336  2.1781  0.1544
51634SOL    HW263871   5.398  11.493   3.854 -1.4496 -0.5899  0.6771
51635SOL     OW63872   3.834   1.992   4.434  0.2100  0.5193  0.2228
51635SOL    HW163873   3.826   2.068   4.376 -0.4034 -0.7743 -1.4729
51635SOL    HW263874   3.908   2.013   4.491 -0.2149  2.5551  0.1065
51636SOL     OW63875   8.726   0.015  11.909  0.2355 -0.4458  0.5277
51636SOL    HW163876   8.633   0.033  11.922  0.3884  0.8625 -0.0794
51636SOL    HW263877   8.765   0.028  11.996  0.1937  1.3231  0.2991
51637SOL     OW63878   2.728   6.125   2.234 -0.3054  0.2083 -0.3959
51637SOL    HW163879   2.749   6.204   2.284  0.0408 -0.7888  1.0574
51637SOL    HW263880   2.646   6.147   2.189  0.3477  1.7718 -0.8873
51638SOL     OW63881  11.456  11.202   0.854  0.5900 -0.5639  0.5539
51638SOL    HW163882  11.419  11.276   0.807 -0.0976 -0.0443  1.8660
51638SOL    HW263883  11.542  11.189   0.815  0.2501  0.1588 -0.4821
51639SOL     OW63884   3.940   6.031  11.788 -0.0252  0.2239  0.4703
51639SOL    HW163885   3.997   6.105  11.810  0.3891  0.3242 -0.8404
51639SOL    HW263886   3.874   6.031  11.856  1.8022 -0.1949  2.3506
51640SOL     OW63887   6.653   3.374   5.658  0.1134 -0.0599  0.3872
51640SOL    HW163888   6.711   3.450   5.660  0.1345 -0.0689  2.0846
51640SOL    HW263889   6.660   3.337   5.746 -1.2745 -0.9701  0.1488
51641SOL     OW63890   1.821   3.458   6.994 -0.7638 -0.7667  0.0592
51641SOL    HW163891   1.838   3.372   6.956 -0.3277 -0.1012 -1.3001
51641SOL    HW263892   1.908   3.498   7.003 -1.0502  0.0355 -0.5751
51642SOL     OW63893   1.886  11.672   9.069 -0.3086 -0.6689  0.4228
51642SOL    HW163894   1.926  11.727   9.137 -0.5948  1.0181 -0.7125
51642SOL    HW263895   1.843  11.734   9.010 -2.9955 -2.2711  0.5206
51643SOL     OW63896   1.733   1.778   6.448 -0.0330  0.4887 -0.1338
51643SOL    HW163897   1.748   1.707   6.385 -1.9885  0.3458 -0.5158
51643SOL    HW263898   1.704   1.851   6.394 -0.9967  0.6025  0.5270
51644SOL     OW63899   4.216  12.456  12.359  0.1891  0.0191  0.1329
51644SOL    HW163900   4.133  12.415  12.386  1.5227 -2.2866  1.0187
51644SOL    HW263901   4.283  12.405  12.404  2.1211  1.7580 -0.6483
51645SOL     OW63902   2.134  11.676   6.695  0.3290 -0.1002 -0.0478
51645SOL    HW163903   2.143  11.586   6.727  0.3394 -1.0557 -2.5023
51645SOL    HW263904   2.159  11.671   6.602 -1.1828  2.1299 -0.6531
51646SOL     OW63905   3.975   4.402  12.464  0.2261  0.3442 -0.1757
51646SOL    HW163906   3.993   4.311  12.443 -0.2801 -0.5062  2.6314
51646SOL    HW263907   3.888   4.401  12.503 -0.0216  2.1332 -0.5918
51647SOL     OW63908   7.666   2.824   7.557  0.2508 -0.0365 -0.3127
51647SOL    HW163909   7.674   2.754   7.621 -0.7544  0.8463  0.8247
51647SOL    HW263910   7.750   2.824   7.510  0.2728 -1.9488 -0.3292
51648SOL     OW63911  11.025   2.758   0.678 -0.0083  0.1244  0.3812
51648SOL    HW163912  11.060   2.771   0.766 -0.4481  1.3591  0.4014
51648SOL    HW263913  11.010   2.847   0.645 -1.8165 -0.3139 -0.1259
51649SOL     OW63914   6.609   2.046   2.327  0.4392  0.3395 -0.5406
51649SOL    HW163915   6.692   2.072   2.288  0.9329  0.8215  0.7581
51649SOL    HW263916   6.560   2.127   2.337  0.0085  0.1220 -0.8601
51650SOL     OW63917   1.439   5.796   5.064 -0.2120  0.1762 -0.2053
51650SOL    HW163918   1.468   5.868   5.008  3.6125  0.6949  2.0903
51650SOL    HW263919   1.444   5.719   5.007 -0.3894  1.1433 -1.5977
51651SOL     OW63920   0.953   2.500  11.134  0.0209 -0.4168  0.1993
51651SOL    HW163921   0.987   2.470  11.050 -0.0825  0.7848 -0.2997
51651SOL    HW263922   1.026   2.549  11.173  0.2725 -1.4709  1.1051
51652SOL     OW63923   0.008  12.197   1.282  0.1879 -0.0110  0.1585
51652SOL    HW163924   0.052  12.112   1.279 -0.5539 -0.3915 -0.1589
51652SOL    HW263925   0.076  12.258   1.310  0.3272 -0.9810  2.0810
51653SOL     OW63926  11.775   6.748   2.234 -0.3306 -0.9213 -0.1967
51653SOL    HW163927  11.687   6.784   2.229  0.8901  2.3043 -1.0689
51653SOL    HW263928  11.794   6.718   2.144  0.2110  0.5518 -0.6059
51654SOL     OW63929   9.977   6.836   2.102  0.2903 -0.3578  0.6168
51654SOL    HW163930  10.027   6.901   2.150 -0.0284 -0.0572  0.5504
51654SOL    HW263931   9.892   6.879   2.086  0.4022 -0.4317 -0.2359
51655SOL     OW63932   9.363   4.765   9.221 -0.3748 -0.6105 -0.7275
51655SOL    HW163933   9.370   4.855   9.254 -2.4376  0.3303 -2.5981
51655SOL    HW263934   9.451   4.728   9.233  0.4354  1.5307  0.4154
51656SOL     OW63935   3.649  12.187   6.635  0.4872 -0.2696 -0.0019
51656SOL    HW163936   3.658  12.185   6.540  0.1239  0.2948 -0.0527
51656SOL    HW263937   3.620  12.098   6.659 -1.4647  0.1510 -0.6423
51657SOL     OW63938   4.123   5.022   6.697  0.3133 -0.3381 -0.0475
51657SOL    HW163939   4.205   4.973   6.690  0.4125 -0.1325 -0.3402
51657SOL    HW263940   4.132   5.094   6.635 -0.8985 -1.4526 -1.6014
51658SOL     OW63941   0.931  11.458   3.930 -0.2473  0.1191 -0.3023
51658SOL    HW163942   0.850  11.407   3.926  0.4090 -0.8849 -1.1669
51658SOL    HW263943   0.958  11.453   4.021 -1.1280  0.4470 -0.0034
51659SOL     OW63944  10.605   0.608   4.552 -0.0114  0.4848  0.5147
51659SOL    HW163945  10.539   0.601   4.622 -0.1264  0.4871  0.4064
51659SOL    HW263946  10.564   0.565   4.477  0.4493 -0.2784  0.6891
51660SOL     OW63947   7.303   5.078   4.334  0.1472  0.7646 -0.2247
51660SOL    HW163948   7.236   5.079   4.403 -1.1559 -0.1133 -1.4171
51660SOL    HW263949   7.355   5.000   4.353 -0.2566  0.4805 -0.2622
51661SOL     OW63950   2.980  10.333   8.424  0.5178 -0.1003  0.1830
51661SOL    HW163951   2.958  10.252   8.469 -2.6135  0.2501 -0.4757
51661SOL    HW263952   3.022  10.387   8.491 -0.9251 -0.8552  1.7552
51662SOL     OW63953   8.693   9.508   0.207 -0.1637 -0.5601  0.3080
51662SOL    HW163954   8.676   9.489   0.114  0.0313 -0.0703  0.1692
51662SOL    HW263955   8.645   9.589   0.224 -0.8348 -1.0561  0.8464
51663SOL     OW63956   1.266  11.654   7.320 -0.3055 -0.0438  0.2005
51663SOL    HW163957   1.212  11.632   7.395  0.8167 -0.5830  0.8852
51663SOL    HW263958   1.320  11.728   7.351 -0.4581  0.3094 -0.3696
51664SOL     OW63959   8.470   0.504   2.417 -0.2626 -0.0546  0.2796
51664SOL    HW163960   8.502   0.428   2.467  0.5534 -1.3013 -1.9734
51664SOL    HW263961   8.529   0.575   2.442  0.4893 -0.7930  0.6888
51665SOL     OW63962  10.248  12.394   4.919  0.3044 -0.8399  0.0130
51665SOL    HW163963  10.235  12.396   5.014  1.7810 -0.4999  0.2407
51665SOL    HW263964  10.343  12.403   4.909  0.0935 -0.2264 -1.5250
51666SOL     OW63965   5.885  10.425   4.781 -0.4944 -0.1585  0.3800
51666SOL    HW163966   5.956  10.425   4.717  0.0876  1.0579  0.9845
51666SOL    HW263967   5.837  10.344   4.764  0.8956 -0.8983 -0.2027
51667SOL     OW63968   8.403   2.551   5.436  0.4911 -0.2963  0.4361
51667SOL    HW163969   8.475   2.563   5.373 -0.7608 -0.6108 -1.1096
51667SOL    HW263970   8.379   2.640   5.462  1.4000 -0.1878  0.9519
51668SOL     OW63971   1.930   5.096   5.433 -0.0910 -0.0394 -0.4901
51668SOL    HW163972   1.996   5.040   5.391  1.2969  2.2025 -1.4691
51668SOL    HW263973   1.929   5.176   5.380 -1.2019  1.3159  1.4732
51669SOL     OW63974   5.757   1.964  12.028 -0.0925 -0.1448  0.3650
51669SOL    HW163975   5.725   1.939  11.941  0.0158 -1.5510  0.7203
51669SOL    HW263976   5.678   1.971  12.081 -0.1676  0.8134  0.1481
51670SOL     OW63977   9.453  11.790   4.278 -0.7466 -0.2888 -0.0953
51670SOL    HW163978   9.396  11.859   4.245 -0.9658  0.0197  0.8920
51670SOL    HW263979   9.393  11.725   4.315 -0.5215 -0.8210 -0.6360
51671SOL     OW63980   7.506   2.157  11.849  0.1409  0.2343 -0.0803
51671SOL    HW163981   7.433   2.166  11.788  1.2176  1.0830 -1.3022
51671SOL    HW263982   7.466   2.167  11.936 -1.1559  0.9411 -0.7208
51672SOL     OW63983  10.865   7.671  12.594 -0.7670  0.0768  0.1350
51672SOL    HW163984  10.871   7.720  12.512  0.8487 -1.5987 -0.8085
51672SOL    HW263985  10.856   7.739  12.661 -0.6752  1.5535 -1.2798
51673SOL     OW63986  12.221   6.843   8.488  0.0096  0.1562  0.2393
51673SOL    HW163987  12.200   6.760   8.531 -0.3968  1.3526  2.5613
51673SOL    HW263988  12.135   6.883   8.470  0.2077  0.2469 -0.5343
51674SOL     OW63989  12.265   7.487  10.760  0.0465  0.5102  0.0035
51674SOL    HW163990  12.235   7.396  10.761  0.6090  0.3192  0.3257
51674SOL    HW263991  12.336   7.488  10.696 -1.0886  1.1163 -1.2952
51675SOL     OW63992   4.806   0.725   3.331 -0.4515 -0.1349  0.1796
51675SOL    HW163993   4.881   0.729   3.272 -1.2899 -0.1381 -0.9047
51675SOL    HW263994   4.751   0.799   3.304 -1.8601 -1.3820 -0.4509
51676SOL     OW63995   3.811   2.293   3.730  0.2057  0.3372 -0.1169
51676SOL    HW163996   3.859   2.262   3.806 -1.6563 -0.8141  0.6465
51676SOL    HW263997   3.846   2.242   3.657  0.1603 -0.4725  0.4184
51677SOL     OW63998   3.375   4.762  10.188 -0.2521 -0.0539  0.1860
51677SOL    HW163999   3.428   4.732  10.262  1.4420 -3.1481 -2.0974
51677SOL    HW264000   3.291   4.718  10.200  0.3408 -1.3164 -0.2010
51678SOL     OW64001   8.883   2.721  11.252 -0.3242 -0.2438  0.3304
51678SOL    HW164002   8.799   2.701  11.210 -0.1282 -0.2212 -0.0758
51678SOL    HW264003   8.892   2.816  11.243 -0.4960 -0.1780  0.8318
51679SOL     OW64004   7.114   0.547   4.397  0.2867  0.1134  0.2313
51679SOL    HW164005   7.152   0.480   4.455  0.3181 -0.2099 -0.1554
51679SOL    HW264006   7.116   0.507   4.311  0.7610  0.8072 -0.0893
51680SOL     OW64007   6.906  11.214   7.681 -0.2711 -0.5075 -0.7736
51680SOL    HW164008   6.866  11.291   7.642 -2.1504 -0.2209  1.4822
51680SOL    HW264009   6.849  11.142   7.656  0.3358 -0.8517 -1.1956
51681SOL     OW64010   6.066   2.368  12.264  0.1589  0.3929 -0.0576
51681SOL    HW164011   6.067   2.359  12.169 -0.1159 -0.7467  0.0294
51681SOL    HW264012   6.135   2.431  12.283 -0.5110  1.4893 -1.0804
51682SOL     OW64013  11.825   3.880   3.000  0.2135 -0.2064  0.3555
51682SOL    HW164014  11.918   3.865   3.020  0.1769 -0.4044  0.3766
51682SOL    HW264015  11.806   3.819   2.929 -0.4577 -1.7467  1.7870
51683SOL     OW64016   0.104   2.479  10.591 -0.0852 -0.3200 -0.2883
51683SOL    HW164017   0.029   2.443  10.639 -0.7201 -1.4382 -2.0103
51683SOL    HW264018   0.128   2.558  10.640 -1.1081 -1.0102  1.4393
51684SOL     OW64019   2.597   1.412  12.547 -0.0028 -0.3126 -0.0946
51684SOL    HW164020   2.681   1.457  12.553 -0.7428  1.0570  0.7177
51684SOL    HW264021   2.540   1.475  12.502 -0.4846 -1.4137 -1.0737
51685SOL     OW64022  12.578   0.185   7.846  0.4741  0.1955 -0.1842
51685SOL    HW164023  12.544   0.103   7.884  0.9235  0.5765  1.0960
51685SOL    HW264024  12.601   0.161   7.756 -0.4808 -0.7887 -0.1950
51686SOL     OW64025   4.414   2.851   8.668 -0.1001 -0.0900 -0.1205
51686SOL    HW164026   4.419   2.820   8.577 -0.5798  1.6132 -0.7681
51686SOL    HW264027   4.357   2.787   8.711 -0.2363 -0.6820 -1.1352
51687SOL     OW64028   7.436   6.361   0.485  0.1173 -0.0252  0.1663
51687SOL    HW164029   7.350   6.357   0.443  0.3031 -0.2326 -0.1996
51687SOL    HW264030   7.476   6.277   0.464  1.2745  0.8983 -1.5248
51688SOL     OW64031   0.597  10.087   6.791 -0.6146  0.2367  0.0481
51688SOL    HW164032   0.617  10.038   6.711 -1.4026 -0.4549  0.2548
51688SOL    HW264033   0.649  10.044   6.859 -0.1475  0.6560 -0.0437
51689SOL     OW64034   5.297   4.614  11.528  0.4473  0.0529  0.3028
51689SOL    HW164035   5.206   4.638  11.510  1.0137  0.6475 -2.2468
51689SOL    HW264036   5.312   4.536  11.474  1.7232  0.6004 -0.1722
51690SOL     OW64037  11.428  10.843  11.896 -0.2412  0.0415  0.0990
51690SOL    HW164038  11.426  10.864  11.989  0.4275 -1.1669  0.4075
51690SOL    HW264039  11.512  10.800  11.882 -0.4240  0.0026 -1.0173
51691SOL     OW64040   3.647   9.237   6.937  0.5163 -0.2235  0.2504
51691SOL    HW164041   3.567   9.222   6.988  1.3562 -0.7541  1.4739
51691SOL    HW264042   3.703   9.287   6.996  1.3016 -0.3650 -0.3649
51692SOL     OW64043   1.406   8.652   4.643  0.2855  0.2276 -0.1938
51692SOL    HW164044   1.345   8.608   4.585  0.0168 -0.7691  0.8041
51692SOL    HW264045   1.454   8.712   4.586  0.0004 -0.6680 -1.4241
51693SOL     OW64046   1.429   0.626  10.750  0.0230  0.5996  0.2823
51693SOL    HW164047   1.441   0.547  10.697  1.7725  0.7090  0.4456
51693SOL    HW264048   1.339   0.619  10.783  0.4690 -1.9374  1.2210
51694SOL     OW64049  10.658   3.713   3.948 -0.1436 -0.2192 -0.1109
51694SOL    HW164050  10.696   3.655   4.014  0.2416  0.8633  0.6474
51694SOL    HW264051  10.732   3.737   3.892  0.3780  1.8380  1.3284
51695SOL     OW64052  11.864   2.884   1.795  0.0428 -0.2079 -0.4357
51695SOL    HW164053  11.948   2.840   1.778  0.3792 -0.4012  1.4449
51695SOL    HW264054  11.885   2.977   1.794  0.0930 -0.2238 -0.8541
51696SOL     OW64055   8.343  10.389  11.294 -0.4598  0.6025  0.5997
51696SOL    HW164056   8.319  10.446  11.220  0.0915  1.4884  1.0788
51696SOL    HW264057   8.319  10.301  11.265 -1.3495  1.0747 -0.1621
51697SOL     OW64058   8.443   8.095   3.728 -0.1991 -0.3297 -0.1492
51697SOL    HW164059   8.369   8.119   3.672  1.9503  1.0336 -2.6499
51697SOL    HW264060   8.411   8.021   3.779 -3.0264 -0.2861 -1.6228
51698SOL     OW64061   6.991   7.232  11.874  0.3473  0.7941 -0.1853
51698SOL    HW164062   6.987   7.291  11.949 -0.7725  0.6283 -0.1003
51698SOL    HW264063   6.920   7.261  11.817  0.1745 -0.0817 -0.4300
51699SOL     OW64064   0.678   5.838  10.979  0.4467  0.4235 -0.3856
51699SOL    HW164065   0.760   5.828  10.930  1.0431 -0.6269  0.7889
51699SOL    HW264066   0.671   5.933  10.993  1.4590  0.5294 -0.5002
51700SOL     OW64067   3.970   2.746   1.412  0.2252 -0.1610  0.2520
51700SOL    HW164068   3.885   2.737   1.454  0.4148  0.4649  0.7899
51700SOL    HW264069   3.960   2.820   1.352  0.8344  1.0170  1.5364
51701SOL     OW64070  11.388   2.564   4.694  0.0664  0.1663  0.4219
51701SOL    HW164071  11.378   2.604   4.780  1.3686  0.0632  0.6492
51701SOL    HW264072  11.407   2.472   4.712  1.1612  0.3086  0.0814
51702SOL     OW64073   8.437  10.067   2.298 -0.0075  0.0995  0.0119
51702SOL    HW164074   8.411  10.136   2.237  0.0588 -0.4711 -0.6686
51702SOL    HW264075   8.530  10.052   2.280  0.1331  0.2695  0.5912
51703SOL     OW64076   3.568   1.581   0.028 -0.0194 -0.2307  1.2256
51703SOL    HW164077   3.628   1.561  -0.044  0.5635  0.7836  1.4086
51703SOL    HW264078   3.485   1.543   0.001  0.4675 -0.8199  0.5237
51704SOL     OW64079   0.911   6.897  11.991  0.0753  0.5253  0.0351
51704SOL    HW164080   0.818   6.884  12.009  0.0442  1.8386  0.9284
51704SOL    HW264081   0.917   6.897  11.895 -0.8175  0.2762 -0.0270
51705SOL     OW64082  11.075   6.238  12.433 -0.2697 -0.1724  0.2007
51705SOL    HW164083  11.073   6.172  12.363  1.0729 -0.0315 -0.0061
51705SOL    HW264084  11.076   6.187  12.514 -1.5455 -0.3437  0.1249
51706SOL     OW64085   6.866  12.006   9.715 -0.2326  0.4701  0.0553
51706SOL    HW164086   6.809  12.002   9.792 -0.2935  1.0087  0.0380
51706SOL    HW264087   6.806  12.013   9.641 -0.2228 -1.1628 -0.1451
51707SOL     OW64088   1.208   2.872   1.195 -0.6866 -0.6050  0.3345
51707SOL    HW164089   1.178   2.909   1.112 -0.3200  0.9282  0.8561
51707SOL    HW264090   1.303   2.884   1.194 -0.5663 -1.4218  0.6037
51708SOL     OW64091  10.879  10.107   1.433 -0.2606  0.2109  0.3880
51708SOL    HW164092  10.859  10.135   1.522  1.6694 -1.1085  1.3251
51708SOL    HW264093  10.966  10.067   1.440  1.0715  2.2302 -2.5602
51709SOL     OW64094  10.141   1.888  10.680 -0.4153  0.0542 -0.4326
51709SOL    HW164095  10.183   1.972  10.697 -1.3051  0.8354 -1.8500
51709SOL    HW264096  10.211   1.831  10.648  0.2721  0.1019  0.9319
51710SOL     OW64097   4.386  12.321   9.595  0.3530 -0.4446  0.5919
51710SOL    HW164098   4.320  12.298   9.660 -1.1704 -0.0544 -0.7498
51710SOL    HW264099   4.367  12.266   9.520  0.8967  0.4073 -0.1987
51711SOL     OW64100   8.065   9.707   1.847  0.0046  0.0533  0.0911
51711SOL    HW164101   8.041   9.643   1.780 -1.0511 -2.6832  2.8389
51711SOL    HW264102   7.982   9.751   1.868  0.2167  0.4948  0.0141
51712SOL     OW64103  11.769   6.075   8.046  0.0183 -0.5695 -0.1098
51712SOL    HW164104  11.828   6.110   7.980  0.2462 -0.5164  0.1234
51712SOL    HW264105  11.681   6.086   8.008  0.0895  0.1884 -0.0645
51713SOL     OW64106  10.881   6.629   8.176  0.4886 -0.1950 -0.6339
51713SOL    HW164107  10.931   6.549   8.194 -0.6247 -0.8724 -0.4189
51713SOL    HW264108  10.868   6.628   8.081  0.2910 -0.3940 -0.6078
51714SOL     OW64109   9.468   2.088   7.416 -0.4381 -0.2039 -0.1553
51714SOL    HW164110   9.401   2.020   7.428  0.6898 -1.2310  0.6445
51714SOL    HW264111   9.525   2.077   7.492  0.3339  1.0022 -0.5468
51715SOL     OW64112   1.023   5.825   4.567  0.2304  0.4690 -0.0521
51715SOL    HW164113   1.012   5.917   4.590 -1.6395  0.3274 -0.2164
51715SOL    HW264114   0.954   5.808   4.502 -1.1013 -1.6229  1.7541
51716SOL     OW64115   3.639   0.767   0.466  0.1315  0.4195 -0.5115
51716SOL    HW164116   3.607   0.797   0.551 -0.6511  1.1458 -1.0421
51716SOL    HW264117   3.645   0.847   0.413  0.2317 -0.0665 -1.2537
51717SOL     OW64118   8.665   2.133   8.223 -0.2905 -0.0131  0.4247
51717SOL    HW164119   8.612   2.136   8.143  1.2686  0.7112 -0.6334
51717SOL    HW264120   8.659   2.221   8.260 -0.1995 -0.0547  0.5411
51718SOL     OW64121   2.040   3.189   9.321  0.5835  0.1687 -0.1291
51718SOL    HW164122   2.082   3.149   9.245  0.6459  0.6115 -0.3295
51718SOL    HW264123   1.948   3.161   9.314  0.7325 -0.3805  0.0308
51719SOL     OW64124   1.284   6.969   0.991 -0.1742 -0.1817 -0.4616
51719SOL    HW164125   1.284   6.938   0.900  1.1381  1.5431 -1.1037
51719SOL    HW264126   1.280   7.064   0.984 -1.2022 -0.0552  1.3405
51720SOL     OW64127   6.901   0.206   8.393 -0.1119  0.1911 -0.1633
51720SOL    HW164128   6.910   0.273   8.325 -0.1085 -1.7414 -2.1835
51720SOL    HW264129   6.813   0.218   8.428 -1.0026 -0.1695 -2.1636
51721SOL     OW64130   2.056   4.618   5.042 -0.2272 -0.0988 -0.3980
51721SOL    HW164131   2.106   4.558   4.986 -1.2048 -1.5314  0.1891
51721SOL    HW264132   1.980   4.567   5.069 -0.5016  1.0322  1.0873
51722SOL     OW64133  12.556   3.021   3.456  0.0245 -0.0359 -0.1483
51722SOL    HW164134  12.547   3.104   3.502  0.2350  0.2100 -0.5427
51722SOL    HW264135  12.625   3.037   3.391  0.1693 -0.5630 -0.1270
51723SOL     OW64136   3.694   6.066   2.392 -0.2686  0.1324 -0.4960
51723SOL    HW164137   3.752   6.142   2.381 -0.1500 -0.0543 -1.2394
51723SOL    HW264138   3.753   5.991   2.388 -0.5659 -0.0645 -1.3552
51724SOL     OW64139   0.090   0.747   3.476  0.1118 -0.3679 -0.5330
51724SOL    HW164140   0.055   0.830   3.509 -0.6228  0.1836 -2.5551
51724SOL    HW264141   0.014   0.702   3.438  0.9803 -0.7278 -1.9085
51725SOL     OW64142   3.169   9.602  10.621 -0.0289  0.4157  0.1705
51725SOL    HW164143   3.164   9.694  10.595 -0.2827  0.2647 -0.3391
51725SOL    HW264144   3.226   9.602  10.697  0.4385  0.9285 -0.1675
51726SOL     OW64145   2.551  10.785   6.040  0.1331  0.0180 -0.2556
51726SOL    HW164146   2.622  10.828   5.992  0.2728 -0.3144 -0.3501
51726SOL    HW264147   2.491  10.856   6.064  0.6915  0.3600  0.1602
51727SOL     OW64148   2.888  10.112   1.470 -0.0688  0.1519 -0.0314
51727SOL    HW164149   2.961  10.058   1.440 -0.2167 -1.6433  2.5296
51727SOL    HW264150   2.847  10.060   1.539 -3.1535  1.5600 -0.6512
51728SOL     OW64151   5.319   8.219   5.717  0.0340 -0.4458 -0.4902
51728SOL    HW164152   5.378   8.146   5.739  3.4996  2.1254 -0.3856
51728SOL    HW264153   5.322   8.222   5.621  2.5527  1.3185 -0.4668
51729SOL     OW64154   0.592  11.457   6.054  0.4407  0.4662  0.4007
51729SOL    HW164155   0.662  11.510   6.015  1.9014 -0.0874  2.1355
51729SOL    HW264156   0.522  11.520   6.073 -0.2578  0.7982 -2.7227
51730SOL     OW64157   2.949   4.841   3.960 -0.5534 -0.5709  0.7445
51730SOL    HW164158   2.934   4.803   3.873  1.2669  1.2386 -0.4642
51730SOL    HW264159   3.043   4.857   3.962 -0.9932  2.4854  1.6816
51731SOL     OW64160   9.872  10.303   4.107  0.4729 -0.5493  0.2753
51731SOL    HW164161   9.825  10.232   4.149  2.0925 -1.3155  0.8816
51731SOL    HW264162   9.811  10.338   4.042 -0.7668 -1.7152  0.7794
51732SOL     OW64163   2.552  11.794   8.819 -0.3018 -0.4481 -0.5686
51732SOL    HW164164   2.567  11.888   8.808 -0.3709 -0.1992  1.1345
51732SOL    HW264165   2.508  11.766   8.739 -1.7295  1.3126 -0.4598
51733SOL     OW64166   6.246  11.407   4.366  0.3180  0.1668  0.4206
51733SOL    HW164167   6.216  11.447   4.285  1.4168  0.4172  0.1181
51733SOL    HW264168   6.250  11.479   4.429 -0.0976  0.0587  0.5713
51734SOL     OW64169   7.041   0.665   0.882  0.3511 -0.6280 -0.5314
51734SOL    HW164170   7.002   0.578   0.878 -0.2424 -0.3310 -1.4676
51734SOL    HW264171   7.057   0.689   0.791 -0.2641  0.5742 -0.3456
51735SOL     OW64172   8.583  10.695   9.582 -0.0597  0.2749 -0.6747
51735SOL    HW164173   8.533  10.676   9.503 -1.9962 -2.2427  0.9814
51735SOL    HW264174   8.568  10.619   9.639  2.5231  1.2323  1.5152
51736SOL     OW64175   0.430  11.885   7.673 -0.2873 -0.6955 -0.2427
51736SOL    HW164176   0.365  11.860   7.608 -2.0297 -0.4993  1.3362
51736SOL    HW264177   0.457  11.973   7.648 -3.1775  0.6202  0.8693
51737SOL     OW64178   9.864   4.725   4.088  0.2202  0.1486 -0.2834
51737SOL    HW164179   9.911   4.792   4.039  1.4540  0.6252  1.4253
51737SOL    HW264180   9.932   4.685   4.144 -0.7564 -1.5688 -0.2490
51738SOL     OW64181   4.451   4.592   9.020 -0.2193  0.3435  0.0922
51738SOL    HW164182   4.462   4.533   9.094 -0.3800  1.0190  0.6620
51738SOL    HW264183   4.541   4.609   8.990 -0.1545  0.0855  0.1310
51739SOL     OW64184   5.625   0.321   3.534 -0.2202  0.4171  0.2083
51739SOL    HW164185   5.543   0.367   3.550  0.0485  0.7034  0.7990
51739SOL    HW264186   5.684   0.354   3.602  1.2446  2.3157 -1.8214
51740SOL     OW64187   0.370   1.996   1.321 -0.1110 -0.2418 -0.0355
51740SOL    HW164188   0.427   1.941   1.375 -0.6498 -0.2589  0.5164
51740SOL    HW264189   0.329   2.057   1.382 -0.6528 -0.1940 -0.4393
51741SOL     OW64190   0.217   6.551   5.563 -0.1533 -0.1263  0.2711
51741SOL    HW164191   0.203   6.645   5.575 -0.7364 -0.0622 -0.7945
51741SOL    HW264192   0.206   6.537   5.469 -2.3538 -1.6325  0.6942
51742SOL     OW64193   5.689   6.460   3.485  0.7401 -0.0007  0.3629
51742SOL    HW164194   5.701   6.532   3.423  2.9889  0.0564  0.8045
51742SOL    HW264195   5.594   6.457   3.500  0.3793  1.4228 -1.3397
51743SOL     OW64196   0.610   7.874   3.571 -0.0225  0.2506 -0.1873
51743SOL    HW164197   0.630   7.900   3.481  1.1546 -0.4220 -0.1497
51743SOL    HW264198   0.516   7.890   3.581 -0.5197 -1.1615 -2.0542
51744SOL     OW64199   5.069   2.065   3.379  1.3114 -1.2339  0.4123
51744SOL    HW164200   5.058   1.971   3.367 -0.9175 -0.8404 -1.0593
51744SOL    HW264201   5.152   2.086   3.336  1.0657 -2.2887 -0.5895
51745SOL     OW64202   9.842   5.556   4.926  0.2474 -0.2604  0.4627
51745SOL    HW164203   9.800   5.473   4.901 -1.5416 -0.0139  2.3643
51745SOL    HW264204   9.838   5.609   4.847 -1.1101 -1.0367 -0.0304
51746SOL     OW64205   6.554   0.435   0.664 -0.0033  0.2539 -0.2421
51746SOL    HW164206   6.481   0.419   0.604 -0.9568  0.3697  0.8455
51746SOL    HW264207   6.521   0.503   0.723  0.3055 -0.9407  1.3707
51747SOL     OW64208  11.132  10.472   4.765 -0.2473  0.1561  0.5632
51747SOL    HW164209  11.138  10.546   4.825 -0.1898 -1.2144  2.3377
51747SOL    HW264210  11.150  10.396   4.820  1.4578 -1.0593 -1.5419
51748SOL     OW64211  10.358   5.328   7.997  0.2369  0.2449  0.2709
51748SOL    HW164212  10.279   5.365   8.036  0.5436  1.2490 -0.0326
51748SOL    HW264213  10.427   5.347   8.061  0.0362 -1.8014  1.1642
51749SOL     OW64214   9.523   8.773   7.954  0.4075  0.5066 -0.0676
51749SOL    HW164215   9.551   8.755   8.043 -1.7933  0.0877  0.6139
51749SOL    HW264216   9.569   8.709   7.901  0.8411 -0.0284  0.9293
51750SOL     OW64217   9.319  11.599   5.220  0.2648  0.2295  0.0391
51750SOL    HW164218   9.326  11.615   5.314  2.0981  2.5502 -0.3940
51750SOL    HW264219   9.245  11.653   5.192 -0.4094 -0.6189  0.1573
51751SOL     OW64220   2.652   0.217   7.462 -0.2727 -0.0521 -0.3198
51751SOL    HW164221   2.679   0.309   7.461  0.8697 -0.3644 -2.0148
51751SOL    HW264222   2.589   0.211   7.390  0.8192 -0.8929 -1.2322
51752SOL     OW64223   1.736   7.156   6.092  0.3303  0.2228 -0.8807
51752SOL    HW164224   1.756   7.075   6.046  0.0317 -0.0813 -0.4891
51752SOL    HW264225   1.644   7.173   6.073  0.3800  0.4439 -0.9257
51753SOL     OW64226   5.284   2.612   0.580 -0.6823 -0.2102  0.1123
51753SOL    HW164227   5.250   2.648   0.498  0.7315  1.4221  0.1846
51753SOL    HW264228   5.323   2.687   0.625 -0.6148 -1.2419  1.8736
51754SOL     OW64229   9.020   4.007   8.155  0.2468  0.1888  0.1073
51754SOL    HW164230   8.970   3.975   8.230 -1.4956  2.6523  0.1295
51754SOL    HW264231   9.105   4.032   8.192  0.7012 -1.7761  0.5339
51755SOL     OW64232  10.979   5.809   8.948  0.1165  1.0759  0.4001
51755SOL    HW164233  10.929   5.729   8.958 -0.5977  1.3171 -0.9775
51755SOL    HW264234  11.068   5.780   8.926  0.3286  0.6608  1.7534
51756SOL     OW64235   7.651   8.674  10.024  0.3103 -0.1325 -1.2981
51756SOL    HW164236   7.703   8.593  10.027  2.1975  1.0327 -0.9765
51756SOL    HW264237   7.650   8.705  10.115  0.8915  0.9506 -1.6435
51757SOL     OW64238   9.798  10.973   2.699 -0.0406  0.1318 -0.0725
51757SOL    HW164239   9.782  11.066   2.685 -0.2666  0.1000 -0.0313
51757SOL    HW264240   9.713  10.931   2.689  0.2124 -0.1831 -0.9594
51758SOL     OW64241   7.052  11.045   0.837  0.2300  0.4450 -0.1000
51758SOL    HW164242   6.956  11.047   0.845  0.2120 -0.0226 -0.2058
51758SOL    HW264243   7.073  10.953   0.822  0.7287  0.4974  0.2762
51759SOL     OW64244   2.954   2.748  12.376 -0.1367 -0.0189 -0.2011
51759SOL    HW164245   2.995   2.821  12.422  1.8439  0.0237 -1.9352
51759SOL    HW264246   3.001   2.671  12.407 -0.0245 -0.1877 -0.7880
51760SOL     OW64247   0.636   3.103   5.156 -0.1665 -0.7440 -0.0373
51760SOL    HW164248   0.550   3.061   5.160 -0.0616 -0.8587  1.8735
51760SOL    HW264249   0.623   3.187   5.200  0.9549 -1.2787  1.3788
51761SOL     OW64250   0.734   6.505   2.537  0.0892  0.0442  0.4961
51761SOL    HW164251   0.682   6.533   2.462  0.6972 -0.5939 -0.1829
51761SOL    HW264252   0.799   6.574   2.549  0.1780  0.0058  0.2393
51762SOL     OW64253   0.331  10.830   8.978  0.7080  0.3544 -0.2199
51762SOL    HW164254   0.263  10.776   8.938  0.9141  1.4964 -2.2349
51762SOL    HW264255   0.389  10.768   9.020 -1.2566 -0.6910  1.1352
51763SOL     OW64256   0.127  12.502  10.275 -0.5024  0.4872 -0.2335
51763SOL    HW164257   0.178  12.577  10.244 -1.5767  1.1005 -0.5515
51763SOL    HW264258   0.043  12.539  10.300 -1.1573 -0.6672 -0.6781
51764SOL     OW64259   9.158   1.337   4.410 -0.5219 -0.1230 -0.3480
51764SOL    HW164260   9.222   1.318   4.342  0.4994  1.2423  0.1996
51764SOL    HW264261   9.073   1.327   4.367  0.0436 -1.5061 -1.2011
51765SOL     OW64262   1.195   7.358   6.880 -0.4311  0.0315 -0.8369
51765SOL    HW164263   1.265   7.298   6.855 -2.0597 -1.3971 -2.1786
51765SOL    HW264264   1.122   7.302   6.906 -1.8888  1.4015 -1.7716
51766SOL     OW64265   3.436   3.075  12.077  0.2399  0.5044  0.0375
51766SOL    HW164266   3.473   3.067  12.165  0.4457 -0.6538 -0.1392
51766SOL    HW264267   3.355   3.024  12.080 -1.7751  3.5103  0.5945
51767SOL     OW64268  12.103   5.066   5.611 -0.3145 -0.1865 -0.8046
51767SOL    HW164269  12.072   5.030   5.694 -0.0518 -2.6717 -1.7232
51767SOL    HW264270  12.178   5.120   5.635 -0.5430 -0.4747  0.6171
51768SOL     OW64271  11.393   8.325  11.235  0.5141  0.0785 -0.3821
51768SOL    HW164272  11.314   8.376  11.253  1.3417  0.7714  1.5099
51768SOL    HW264273  11.459   8.390  11.211  1.5727  0.0366  2.0381
51769SOL     OW64274  11.375   3.218   6.379 -0.5228 -0.2647 -0.2140
51769SOL    HW164275  11.402   3.310   6.375 -0.0876 -0.3941 -0.4333
51769SOL    HW264276  11.427   3.182   6.451 -2.4354  0.1958  1.4674
51770SOL     OW64277  11.389   7.499   3.430  0.2869 -0.1904  0.1383
51770SOL    HW164278  11.417   7.415   3.464 -0.8730 -0.3357  0.7728
51770SOL    HW264279  11.296   7.487   3.408  0.3253  0.6716 -0.5628
51771SOL     OW64280   9.526  11.112   9.927 -0.0302  0.0329  0.7734
51771SOL    HW164281   9.501  11.024   9.899 -0.4767  0.2990  0.3247
51771SOL    HW264282   9.531  11.162   9.846  2.6862 -0.1565  0.7205
51772SOL     OW64283   2.306   2.307  11.890  0.1146 -0.1589 -0.6275
51772SOL    HW164284   2.363   2.378  11.862 -1.3094  2.2762  2.1009
51772SOL    HW264285   2.364   2.245  11.934  1.1824  0.0099 -1.7499
51773SOL     OW64286   8.873  11.143  10.693 -0.5667 -0.0502  0.3858
51773SOL    HW164287   8.899  11.076  10.629 -1.1520 -0.1555  0.2513
51773SOL    HW264288   8.808  11.196  10.647 -0.9593 -0.0989  0.8802
51774SOL     OW64289   4.961   0.206   1.395 -0.2183  0.3449  0.2106
51774SOL    HW164290   4.949   0.141   1.464 -0.2018 -1.1417 -1.1339
51774SOL    HW264291   5.051   0.193   1.365 -0.7032 -0.1588 -1.1405
51775SOL     OW64292  11.096   3.560   6.704  0.5625 -0.1291 -0.1396
51775SOL    HW164293  11.007   3.596   6.699  0.7402  0.2083 -1.3713
51775SOL    HW264294  11.091   3.491   6.770 -0.8380 -0.6970 -0.8022
51776SOL     OW64295   2.718   2.400   0.196 -0.0578  0.3408 -0.1059
51776SOL    HW164296   2.753   2.350   0.269  2.5545  0.2317 -1.3315
51776SOL    HW264297   2.682   2.334   0.136 -1.0854  0.3467  0.4787
51777SOL     OW64298   0.240  11.740   0.289 -0.1133  0.6892  0.0538
51777SOL    HW164299   0.278  11.820   0.325 -1.7531  0.4547  2.5976
51777SOL    HW264300   0.152  11.766   0.261 -1.5102 -0.4767  2.8828
51778SOL     OW64301  12.293   4.703   5.484 -0.0543 -0.2940 -0.0990
51778SOL    HW164302  12.339   4.774   5.530 -0.8062  0.2782 -0.2078
51778SOL    HW264303  12.210   4.742   5.458 -0.7847 -1.4336  0.4523
51779SOL     OW64304   1.175   7.603   3.659 -0.3004 -0.5175  0.5820
51779SOL    HW164305   1.190   7.564   3.573  0.5850  0.4475  0.2792
51779SOL    HW264306   1.183   7.530   3.720  1.7737 -0.7713  0.0842
51780SOL     OW64307   7.304  10.624  12.477  0.7914  0.0789  0.2837
51780SOL    HW164308   7.391  10.592  12.455  0.2666 -2.1447  1.1475
51780SOL    HW264309   7.289  10.594  12.567 -0.8666  0.3704  0.1449
51781SOL     OW64310   8.321   3.305   5.315  0.2469 -0.6555 -0.0420
51781SOL    HW164311   8.365   3.245   5.255 -0.6745 -1.8568  0.4511
51781SOL    HW264312   8.345   3.274   5.402  1.6035  1.0989  0.2663
51782SOL     OW64313   7.707  11.812  10.449 -0.5050  0.0402  0.1158
51782SOL    HW164314   7.707  11.793  10.543  1.2544  0.1932  0.1912
51782SOL    HW264315   7.676  11.902  10.443  1.6110  0.8692  0.8147
51783SOL     OW64316   0.025   0.127   4.005 -0.3553  0.0457  0.1528
51783SOL    HW164317  -0.052   0.165   4.048 -0.5179  0.0778 -0.1554
51783SOL    HW264318   0.098   0.181   4.034 -0.8120  1.7811 -1.6816
51784SOL     OW64319   3.107   4.355   1.914  0.4281  0.0963 -0.3767
51784SOL    HW164320   3.012   4.368   1.914  0.1084 -1.8840  1.1234
51784SOL    HW264321   3.125   4.306   1.994  2.5156 -1.0069 -1.4488
51785SOL     OW64322   6.049   2.256   3.527 -0.1499  0.5312  0.0943
51785SOL    HW164323   5.975   2.281   3.473 -1.4447  1.4685  2.1817
51785SOL    HW264324   6.079   2.338   3.566 -0.0311 -0.2300  1.6792
51786SOL     OW64325   9.283   8.480   8.543 -0.1641 -0.0333  0.2082
51786SOL    HW164326   9.349   8.505   8.607  0.2522 -0.4866 -0.0423
51786SOL    HW264327   9.228   8.558   8.535 -0.0919  0.1056  0.9473
51787SOL     OW64328  10.316  12.005   2.926  0.8232  0.2303  0.4931
51787SOL    HW164329  10.291  12.042   2.842 -1.5049 -1.9947  0.0741
51787SOL    HW264330  10.326  12.081   2.984  0.9775  1.7066 -1.3783
51788SOL     OW64331   1.755   3.405   1.459 -0.2145 -0.5385 -0.0721
51788SOL    HW164332   1.807   3.350   1.401 -0.0709 -2.1378  1.4803
51788SOL    HW264333   1.815   3.475   1.486 -0.8554  1.4510 -3.2895
51789SOL     OW64334   2.861   0.878   9.428  0.2366  0.5363  0.3695
51789SOL    HW164335   2.827   0.874   9.339  1.2606  3.0624 -0.2568
51789SOL    HW264336   2.830   0.963   9.461  2.2409  0.9703  1.3038
51790SOL     OW64337   5.469   1.699   2.270  0.5628 -1.3302 -0.0143
51790SOL    HW164338   5.415   1.656   2.204 -0.9448  0.5320 -0.0808
51790SOL    HW264339   5.539   1.742   2.221  0.4108 -1.3294 -0.2300
51791SOL     OW64340  12.077   5.342   3.015  0.1918 -0.4676  0.3309
51791SOL    HW164341  12.017   5.316   2.945  1.0622  0.3666 -0.7788
51791SOL    HW264342  12.138   5.269   3.023 -0.7349 -1.1636  1.2128
51792SOL     OW64343  10.853   2.839  12.157  0.0535  0.6270  0.3107
51792SOL    HW164344  10.820   2.924  12.188  0.4377  1.1513 -0.6590
51792SOL    HW264345  10.845   2.845  12.062  0.3644 -0.3222  0.2253
51793SOL     OW64346   2.529   9.850  11.295  0.2800 -0.3471  0.3457
51793SOL    HW164347   2.571   9.887  11.373 -0.4996  3.9232 -1.0291
51793SOL    HW264348   2.454   9.802  11.330  1.5611 -1.0595  2.3262
51794SOL     OW64349   4.596  11.514   0.917  0.2284  0.8007 -0.0068
51794SOL    HW164350   4.617  11.582   0.981  0.3802  0.1176  0.6860
51794SOL    HW264351   4.680  11.476   0.893  0.3712  2.2533 -2.0156
51795SOL     OW64352   9.633   4.041   7.029  0.4104 -0.0742 -0.0017
51795SOL    HW164353   9.595   4.074   6.947  0.7972 -0.0546 -0.1721
51795SOL    HW264354   9.590   4.093   7.097  0.9715  0.7543 -0.2641
51796SOL     OW64355   8.552  11.318   0.511 -0.2677 -0.0310  0.4199
51796SOL    HW164356   8.457  11.318   0.528 -0.4410 -2.6346 -0.1673
51796SOL    HW264357   8.558  11.321   0.415  0.3299  1.4942  0.4778
51797SOL     OW64358  11.724   7.874   0.406  0.2433  0.2697 -0.0627
51797SOL    HW164359  11.723   7.786   0.369 -0.4583 -0.5947  1.9095
51797SOL    HW264360  11.724   7.861   0.501 -2.9377  2.3224  0.3862
51798SOL     OW64361  11.864   1.691  10.860 -0.1863 -0.0112 -0.8136
51798SOL    HW164362  11.862   1.785  10.841 -3.6468  0.3277  0.3889
51798SOL    HW264363  11.932   1.681  10.927 -1.6169  2.2235  1.1332
51799SOL     OW64364   0.022   3.958   0.121 -0.2223  0.5215  0.5297
51799SOL    HW164365   0.068   4.033   0.158 -0.2918  0.6432  0.3701
51799SOL    HW264366   0.046   3.885   0.177  2.4823 -0.0434 -1.1767
51800SOL     OW64367   6.413   8.440   1.761 -0.2129 -0.3565 -0.7920
51800SOL    HW164368   6.329   8.470   1.797  1.1150  2.8747 -0.0871
51800SOL    HW264369   6.398   8.434   1.667 -1.6219 -1.4028 -0.5356
51801SOL     OW64370   3.715  11.632   4.643  0.0564  0.1963 -0.2395
51801SOL    HW164371   3.728  11.696   4.713  0.0682  0.1568 -0.2054
51801SOL    HW264372   3.666  11.680   4.576 -0.9585 -0.0922  0.2775
51802SOL     OW64373   0.049  11.518   0.740 -0.0010  0.0246 -0.0795
51802SOL    HW164374   0.084  11.572   0.810  0.0314 -1.1499  0.8513
51802SOL    HW264375   0.073  11.563   0.659  0.6296  1.0046  0.6439
51803SOL     OW64376   0.023   4.451   4.279  0.1161 -0.6831 -0.1535
51803SOL    HW164377   0.114   4.481   4.276 -0.0625 -0.2077 -1.0108
51803SOL    HW264378   0.029   4.356   4.277  0.5621 -0.6400 -1.3726
51804SOL     OW64379  12.364   0.984   3.422 -0.5134 -0.4291  0.2774
51804SOL    HW164380  12.437   0.997   3.482 -0.1068  0.5001 -0.4082
51804SOL    HW264381  12.405   0.956   3.340 -0.9940 -0.7145  0.1303
51805SOL     OW64382   7.938  10.034  11.567  0.2665 -0.2368  0.0228
51805SOL    HW164383   7.981  10.069  11.646  0.0369 -0.8836  0.4462
51805SOL    HW264384   7.930   9.940  11.585 -1.9588 -0.0404  0.2529
51806SOL     OW64385   2.867  10.795   2.924  0.1924 -0.3180  0.5040
51806SOL    HW164386   2.863  10.882   2.962  0.0933 -0.7737  1.5696
51806SOL    HW264387   2.788  10.751   2.956  1.3513 -1.5265  1.8623
51807SOL     OW64388   6.222   3.104   1.395 -0.1053  0.4009  0.9407
51807SOL    HW164389   6.218   3.092   1.300 -0.7092  2.3382  0.6756
51807SOL    HW264390   6.131   3.101   1.423  0.0906 -0.4571  1.5209
51808SOL     OW64391  10.545   6.956   3.050  0.4970  0.3537  0.5408
51808SOL    HW164392  10.476   6.921   2.993 -0.9512  1.3695  1.5898
51808SOL    HW264393  10.614   6.889   3.048  0.2761  0.1103 -1.9256
51809SOL     OW64394   6.028   2.003   0.025  0.4166 -0.0091 -0.4765
51809SOL    HW164395   6.050   2.086   0.066 -1.5277  1.2736 -1.8479
51809SOL    HW264396   6.034   2.019  -0.069  1.2871 -1.8312 -0.7821
51810SOL     OW64397   5.036  10.427   1.114  0.1754 -0.5287 -0.1553
51810SOL    HW164398   5.044  10.349   1.059 -4.3967 -0.6350 -1.0869
51810SOL    HW264399   4.996  10.395   1.195 -0.7463  0.6534 -0.1146
51811SOL     OW64400   1.102   3.294  10.077  0.5140 -0.3871  0.1357
51811SOL    HW164401   1.111   3.304  10.172  0.4827 -2.1618  0.3627
51811SOL    HW264402   1.024   3.239  10.066 -1.1638  2.0243 -1.0893
51812SOL     OW64403   6.234  11.514   8.605 -0.0578  0.4025 -0.7062
51812SOL    HW164404   6.259  11.431   8.565  1.4613  0.0022  0.9934
51812SOL    HW264405   6.317  11.558   8.623 -0.7805  1.4816  0.0915
51813SOL     OW64406   4.263   3.583   6.935 -0.4248  0.1167  0.1374
51813SOL    HW164407   4.187   3.528   6.915 -1.1730  1.0443  0.3348
51813SOL    HW264408   4.229   3.672   6.931  1.1445  0.7015 -1.9651
51814SOL     OW64409   8.548   7.080   1.903  0.0763 -0.3227 -0.0902
51814SOL    HW164410   8.516   7.088   1.813 -2.3134 -1.2762  0.5977
51814SOL    HW264411   8.487   7.133   1.954  0.3754 -1.1430  1.1520
51815SOL     OW64412  11.514  11.898   9.908  0.7711  0.2459  0.3049
51815SOL    HW164413  11.582  11.912   9.975  0.7410  1.4495  0.0882
51815SOL    HW264414  11.483  11.985   9.886 -2.3761 -0.3109  1.9261
51816SOL     OW64415   0.214   8.234  11.960 -0.1691 -0.0775 -0.5675
51816SOL    HW164416   0.246   8.165  11.902  1.6424  0.3595 -0.1475
51816SOL    HW264417   0.137   8.196  12.003  1.5181 -2.3557  0.6452
51817SOL     OW64418   9.074   3.145   8.452  0.4199  0.4111  0.5262
51817SOL    HW164419   9.115   3.084   8.390  0.7028 -0.3956  1.4608
51817SOL    HW264420   9.118   3.126   8.535 -0.1121  1.2948  1.0218
51818SOL     OW64421   7.966   8.182   5.077 -0.2326 -0.4147  0.6753
51818SOL    HW164422   7.973   8.246   5.006  0.1736 -0.4952  0.6399
51818SOL    HW264423   8.022   8.217   5.146  0.3926 -0.9772  0.4654
51819SOL     OW64424   1.030   3.131   6.383 -0.0666  0.7590 -0.5321
51819SOL    HW164425   1.043   3.206   6.324  0.4789  1.3808  0.3491
51819SOL    HW264426   1.091   3.065   6.351  0.4743  1.2179 -0.4733
51820SOL     OW64427   3.372  12.330   3.173 -1.3490  0.3346  0.5238
51820SOL    HW164428   3.328  12.393   3.116 -1.4022  0.5513  0.8020
51820SOL    HW264429   3.425  12.384   3.232  0.4448  0.0311 -0.7356
51821SOL     OW64430   2.265   8.034  11.902 -0.3313 -0.0628  0.0845
51821SOL    HW164431   2.262   8.109  11.842  1.2872  0.2529  0.3516
51821SOL    HW264432   2.242   8.070  11.987  1.0679  0.2853  0.3311
51822SOL     OW64433   7.141   6.305   8.309  0.3045 -0.2406  0.2805
51822SOL    HW164434   7.173   6.248   8.240 -0.3570 -0.7642  0.3961
51822SOL    HW264435   7.094   6.374   8.263 -2.1552 -1.8262  0.2260
51823SOL     OW64436   8.774   3.931  12.340  0.5574  0.1247 -0.4204
51823SOL    HW164437   8.798   3.972  12.257  2.1200 -0.4539 -0.2672
51823SOL    HW264438   8.851   3.881  12.367 -0.5336 -1.1427  0.5058
51824SOL     OW64439   6.552   0.081   5.241 -0.1173  0.6872  0.1637
51824SOL    HW164440   6.477   0.139   5.254 -1.4233 -1.1132  1.1384
51824SOL    HW264441   6.522   0.018   5.175  0.3780 -0.2671  0.8198
51825SOL     OW64442   1.507   1.251   4.818  0.5343 -0.0078  0.1324
51825SOL    HW164443   1.534   1.178   4.762  0.5491  1.5154 -1.9243
51825SOL    HW264444   1.433   1.215   4.869  1.4257 -1.8543  0.2220
51826SOL     OW64445   8.159   9.089  10.038  0.0824  0.3117 -0.1038
51826SOL    HW164446   8.196   9.042  10.112 -1.9847 -1.2033  0.0560
51826SOL    HW264447   8.138   9.176  10.072  1.4909  0.4884  0.3471
51827SOL     OW64448  11.985   2.096   4.764  0.1343 -0.2404 -0.4337
51827SOL    HW164449  12.000   2.184   4.730 -0.2022 -0.0814 -0.1736
51827SOL    HW264450  11.965   2.043   4.686 -0.7072  0.1358 -0.4838
51828SOL     OW64451   2.881   7.875  12.115 -0.0275  0.4651  0.1223
51828SOL    HW164452   2.878   7.820  12.036  2.0465 -1.3188  1.1626
51828SOL    HW264453   2.975   7.887  12.131 -0.3763  0.2910  2.6094
51829SOL     OW64454   0.202  11.846  10.231  0.2489 -0.1329  0.1093
51829SOL    HW164455   0.127  11.901  10.206  0.5713  0.4441  0.4017
51829SOL    HW264456   0.231  11.806  10.149  0.7377  1.0448 -0.3138
51830SOL     OW64457   1.553   2.211   6.836 -0.2710 -0.2714  0.2743
51830SOL    HW164458   1.639   2.173   6.852  0.9462  2.0794 -0.1638
51830SOL    HW264459   1.522   2.237   6.923  0.3415  0.5562  0.2594
51831SOL     OW64460   9.453   5.253   5.263  0.1681  0.0562  0.4617
51831SOL    HW164461   9.489   5.269   5.176  1.5434 -0.1537  0.9689
51831SOL    HW264462   9.359   5.243   5.249  0.4102 -0.2674 -1.0355
51832SOL     OW64463   1.358   3.723   1.482 -0.6284  0.0139  0.4763
51832SOL    HW164464   1.308   3.699   1.560  0.1707 -0.6977  0.7842
51832SOL    HW264465   1.421   3.652   1.471  0.2054  0.8079 -0.0042
51833SOL     OW64466   5.850   0.426   2.650  0.0468  0.4200 -0.2899
51833SOL    HW164467   5.868   0.501   2.708 -0.0753  1.3979 -1.4650
51833SOL    HW264468   5.858   0.349   2.706  0.1340  1.3223  0.9708
51834SOL     OW64469   6.189   9.195  12.395 -0.2674 -0.5424  0.0875
51834SOL    HW164470   6.130   9.250  12.344  0.9874  0.0283 -0.8007
51834SOL    HW264471   6.193   9.238  12.481  0.2733  0.4806 -0.4307
51835SOL     OW64472   1.633   2.115   9.673 -0.1616  0.2376 -0.2100
51835SOL    HW164473   1.615   2.024   9.698 -1.4012  0.5628  0.1920
51835SOL    HW264474   1.590   2.125   9.588 -0.9133  0.7134  0.2132
51836SOL     OW64475   9.436  11.011   7.878 -0.8421  0.0238  0.5055
51836SOL    HW164476   9.407  11.000   7.969 -1.1109  0.2734  0.4525
51836SOL    HW264477   9.530  10.996   7.881 -0.9068 -0.3679  0.7568
51837SOL     OW64478   7.176   2.917   0.891 -0.5049 -0.1361 -0.1639
51837SOL    HW164479   7.258   2.879   0.924  1.1308  1.6798 -1.8606
51837SOL    HW264480   7.152   2.862   0.817 -2.2452 -2.0951  1.7061
51838SOL     OW64481  10.885  12.002   0.550 -0.3568  0.3601 -0.2450
51838SOL    HW164482  10.908  12.073   0.491  0.3418 -0.8642 -1.5213
51838SOL    HW264483  10.872  11.926   0.493  1.1642 -1.0760  1.1863
51839SOL     OW64484   1.806   6.699   5.980  0.6215  0.7652  0.4084
51839SOL    HW164485   1.889   6.660   5.952  0.9267  0.8921  1.1047
51839SOL    HW264486   1.749   6.692   5.904  0.9238 -0.3272  0.2597
51840SOL     OW64487   8.875   9.267   8.137  0.2998 -0.0364 -0.2361
51840SOL    HW164488   8.824   9.221   8.204 -0.0041  1.3329  0.5094
51840SOL    HW264489   8.945   9.206   8.115 -0.6405 -1.2474 -0.0055
51841SOL     OW64490   2.503   3.348   7.926  0.1465 -0.4215  0.1321
51841SOL    HW164491   2.580   3.359   7.870 -0.3373  0.8828 -0.3067
51841SOL    HW264492   2.442   3.298   7.872  0.6655 -1.4816  0.4894
51842SOL     OW64493  10.628   1.733   4.590  0.1809  0.1121  0.5114
51842SOL    HW164494  10.706   1.757   4.541 -0.1835  2.0717  0.8055
51842SOL    HW264495  10.567   1.701   4.523 -0.0611  2.1032 -0.3001
51843SOL     OW64496   6.040   7.276   7.673 -0.6921  0.4004  0.7752
51843SOL    HW164497   5.977   7.305   7.739 -1.1892  0.1138  0.4334
51843SOL    HW264498   6.026   7.181   7.667 -0.7288  0.4405  0.1828
51844SOL     OW64499  12.002   1.851   6.478 -0.0343  0.4113 -0.2419
51844SOL    HW164500  11.970   1.813   6.396  1.0556 -1.2023  0.0272
51844SOL    HW264501  12.073   1.909   6.450 -0.5006  0.8581 -0.5223
51845SOL     OW64502   4.810   7.118   7.084 -0.0668  0.1986 -0.0229
51845SOL    HW164503   4.861   7.065   7.146 -0.1514 -0.0746 -0.1825
51845SOL    HW264504   4.862   7.119   7.004  0.0070  0.4882  0.0298
51846SOL     OW64505   9.328   1.600   4.615  0.3927  0.1494  0.0111
51846SOL    HW164506   9.269   1.647   4.556 -0.1280  3.4737  2.8630
51846SOL    HW264507   9.415   1.616   4.579 -0.0489 -0.1131 -1.2295
51847SOL     OW64508  10.080  12.360   3.522  0.4914  0.1160 -0.1012
51847SOL    HW164509  10.078  12.296   3.593  1.9118 -1.0726 -1.0629
51847SOL    HW264510  10.044  12.440   3.560  2.1128 -0.1726  2.2459
51848SOL     OW64511   2.161   0.659   5.723 -0.4152 -0.4044 -0.9624
51848SOL    HW164512   2.215   0.732   5.695  0.7794  0.2458  2.5302
51848SOL    HW264513   2.071   0.693   5.721  0.1639  1.4921  1.1422
51849SOL     OW64514   7.643   1.106   5.711  0.2089  0.1107  0.2295
51849SOL    HW164515   7.557   1.099   5.669  0.2933  0.2508  0.0356
51849SOL    HW264516   7.671   1.015   5.723 -0.5885  0.0092  1.5698
51850SOL     OW64517  10.452   2.605   0.559  0.0961 -0.1439 -0.2051
51850SOL    HW164518  10.365   2.614   0.521  0.2392 -1.2459 -0.8427
51850SOL    HW264519  10.512   2.626   0.487  0.3600 -0.5291 -0.0985
51851SOL     OW64520   6.340  12.567  12.018 -0.0876 -0.1349 -0.0137
51851SOL    HW164521   6.313  12.486  12.062 -0.2933 -0.6109 -0.9749
51851SOL    HW264522   6.271  12.630  12.038 -2.0592 -1.3375 -2.4483
51852SOL     OW64523   6.840   9.933   8.075  0.3320  0.0523  0.1430
51852SOL    HW164524   6.757   9.897   8.108 -0.9992 -0.0038 -2.9066
51852SOL    HW264525   6.844  10.021   8.113 -0.0985 -0.6088  1.8439
51853SOL     OW64526   4.807   6.771  11.186 -0.7482  0.4533 -0.5093
51853SOL    HW164527   4.880   6.820  11.147 -0.8823  0.1178 -1.1988
51853SOL    HW264528   4.842   6.737  11.269 -0.1059  0.2564 -0.8534
51854SOL     OW64529   9.185   8.009  10.271  0.1126 -0.2496  0.1240
51854SOL    HW164530   9.155   7.978  10.186  0.5040  0.0131 -0.1113
51854SOL    HW264531   9.110   7.996  10.329 -0.1605 -0.4111 -0.2626
51855SOL     OW64532   4.877   7.402   3.783 -0.1162 -0.0804  0.0195
51855SOL    HW164533   4.956   7.381   3.833 -1.4033 -0.0485  2.1550
51855SOL    HW264534   4.902   7.478   3.730  1.0104  0.5498  1.4045
51856SOL     OW64535   3.158  12.102   6.551  0.1354 -0.2414 -0.3803
51856SOL    HW164536   3.104  12.146   6.485  1.6645 -0.4789 -1.8478
51856SOL    HW264537   3.094  12.061   6.610 -1.2983  1.5498 -0.5732
51857SOL     OW64538  11.201   0.837  11.964 -0.3396 -0.4170 -0.5345
51857SOL    HW164539  11.132   0.882  12.014  0.8288  0.0440  0.7168
51857SOL    HW264540  11.228   0.900  11.898 -0.4146 -0.2122 -0.3710
51858SOL     OW64541   4.293  12.096   8.101  0.4999 -0.3676 -0.3108
51858SOL    HW164542   4.231  12.023   8.093 -0.0559  0.1881 -1.2521
51858SOL    HW264543   4.240  12.170   8.129  0.6607  0.1972 -1.4425
51859SOL     OW64544  10.052   7.648   2.517 -0.1482  0.1825 -0.7150
51859SOL    HW164545  10.069   7.643   2.423  2.5628 -3.4050 -0.2161
51859SOL    HW264546  10.139   7.650   2.557 -1.2020 -0.3832  1.7699
51860SOL     OW64547   0.991   7.513   2.760  0.0509  0.0954  0.0413
51860SOL    HW164548   0.968   7.429   2.720 -1.3504 -0.4073  1.7636
51860SOL    HW264549   1.075   7.537   2.720 -0.9380 -0.6120 -2.7040
51861SOL     OW64550   7.470  11.242  11.236  0.6977  0.2170 -0.0553
51861SOL    HW164551   7.379  11.228  11.263  0.6762  1.2716  0.4932
51861SOL    HW264552   7.471  11.219  11.144 -1.1653  3.9611 -1.2281
51862SOL     OW64553   4.253   4.524  12.095 -0.3447  0.5280 -0.0695
51862SOL    HW164554   4.340   4.521  12.135  0.2417 -0.2390 -1.3249
51862SOL    HW264555   4.199   4.570  12.159  0.3684 -1.1754  1.8986
51863SOL     OW64556   1.775   8.622   4.636 -0.0425 -0.1898 -0.1381
51863SOL    HW164557   1.858   8.622   4.588  0.2915 -0.7422  0.4221
51863SOL    HW264558   1.742   8.532   4.627 -0.8262  0.1517 -0.7620
51864SOL     OW64559   7.012   4.570  10.320 -0.2896 -0.5274  0.2378
51864SOL    HW164560   7.069   4.631  10.272 -1.0798  0.2734  0.2897
51864SOL    HW264561   6.974   4.515  10.251 -2.3428  1.3813 -0.2858
51865SOL     OW64562   8.108  12.211   2.812 -0.3392 -0.3606  0.1457
51865SOL    HW164563   8.117  12.220   2.717  1.5605  3.5651  0.5037
51865SOL    HW264564   8.025  12.254   2.832 -2.2137 -3.6425  0.2088
51866SOL     OW64565  11.549   1.886   9.829  0.1435 -0.1864 -0.0735
51866SOL    HW164566  11.611   1.833   9.879  0.1720  1.3669  1.6442
51866SOL    HW264567  11.465   1.874   9.875  0.1848  1.3116  0.4596
51867SOL     OW64568  10.170   0.344   3.425 -1.0987 -1.0477 -0.6236
51867SOL    HW164569  10.169   0.248   3.426  2.6740 -1.2454  0.5180
51867SOL    HW264570  10.213   0.368   3.507 -0.4661  1.5448 -1.6333
51868SOL     OW64571  10.367   7.557   2.126 -0.6325 -0.3936  0.1778
51868SOL    HW164572  10.343   7.470   2.157  0.5322 -0.6714  0.3437
51868SOL    HW264573  10.431   7.588   2.190 -0.3672  0.2198 -0.3707
51869SOL     OW64574   2.595   9.687  10.940  0.3687  0.1880 -0.4538
51869SOL    HW164575   2.567   9.699  10.849  1.3007  2.3219 -0.5304
51869SOL    HW264576   2.582   9.773  10.980  0.2421 -0.6440  1.3763
51870SOL     OW64577   9.694   2.646   8.682  0.0769  0.0209 -0.6917
51870SOL    HW164578   9.756   2.613   8.618  0.5185 -0.2163 -0.1497
51870SOL    HW264579   9.623   2.582   8.683  0.7518 -0.7394  0.0866
51871SOL     OW64580   0.811  11.730   2.074  0.0673  0.5308 -0.6431
51871SOL    HW164581   0.857  11.647   2.088 -0.8549 -0.1876 -1.6639
51871SOL    HW264582   0.806  11.770   2.161  0.1148 -0.7199 -0.0495
51872SOL     OW64583  11.469   3.153   0.936  0.5587 -0.1327  0.3646
51872SOL    HW164584  11.418   3.114   1.007  1.0405  0.5732  1.1180
51872SOL    HW264585  11.414   3.226   0.905  0.6665  0.0118  0.5097
51873SOL     OW64586   6.488   9.515   3.297  0.2363 -0.5558  0.4696
51873SOL    HW164587   6.459   9.577   3.231 -0.6744  0.4163  1.7411
51873SOL    HW264588   6.469   9.429   3.258 -0.7018 -0.0068 -0.3436
51874SOL     OW64589   6.921   1.741   7.622  0.0085 -0.2068  0.1069
51874SOL    HW164590   6.850   1.682   7.593  0.0976  0.3146 -1.2369
51874SOL    HW264591   6.876   1.821   7.647  0.1623  0.6680 -2.1517
51875SOL     OW64592   7.236   2.881  12.526  0.5531 -0.7894 -0.2653
51875SOL    HW164593   7.158   2.859  12.577 -2.5457  2.5263 -3.0203
51875SOL    HW264594   7.238   2.814  12.457  0.0742 -0.8429 -0.2323
51876SOL     OW64595   6.363   8.557  10.375  0.1048 -0.1400  0.9798
51876SOL    HW164596   6.421   8.604  10.436  0.4404  2.0650 -0.8752
51876SOL    HW264597   6.321   8.627  10.324 -0.5087 -1.8476 -0.9794
51877SOL     OW64598   6.762   7.566  12.391 -0.6089 -0.4491  0.2968
51877SOL    HW164599   6.733   7.525  12.310 -0.6303 -1.4674  0.8012
51877SOL    HW264600   6.852   7.536  12.402 -0.0884  0.9108 -0.1219
51878SOL     OW64601   0.155   1.714   9.710 -0.2558 -0.4446  0.0508
51878SOL    HW164602   0.191   1.708   9.621 -0.1455 -3.2874  0.1883
51878SOL    HW264603   0.061   1.723   9.697 -0.1051  0.7552 -0.3197
51879SOL     OW64604   7.061   7.603   7.486 -0.1427 -0.1522  0.2563
51879SOL    HW164605   7.089   7.693   7.472 -1.0253  0.2429  0.9482
51879SOL    HW264606   7.024   7.602   7.574 -1.4946 -0.8382 -0.2862
51880SOL     OW64607   3.523   6.289   1.680  0.1815 -0.2017 -0.0096
51880SOL    HW164608   3.561   6.286   1.768 -1.8207  0.1466  0.9282
51880SOL    HW264609   3.432   6.260   1.692 -0.2421  0.2157 -1.8961
51881SOL     OW64610   1.360   1.819   1.881  0.2776 -0.1073 -0.0975
51881SOL    HW164611   1.315   1.890   1.834  0.9849  0.8000  0.5674
51881SOL    HW264612   1.403   1.862   1.955 -1.0022 -1.5290  1.5630
51882SOL     OW64613  10.032   6.650   2.653  0.4497 -0.3591  0.8048
51882SOL    HW164614  10.057   6.558   2.655  0.7359 -0.2905  0.5292
51882SOL    HW264615  10.068   6.687   2.733  0.3514 -0.4801  0.9060
51883SOL     OW64616   6.139   2.772   0.401  0.1858  0.1529 -0.3736
51883SOL    HW164617   6.106   2.682   0.399  1.8182 -0.5066  0.3176
51883SOL    HW264618   6.062   2.826   0.387 -0.9315 -1.3356 -0.2508
51884SOL     OW64619   2.790   7.795   5.846  0.5025 -0.8598  0.1564
51884SOL    HW164620   2.841   7.798   5.765  1.4538  0.8028  0.7606
51884SOL    HW264621   2.849   7.756   5.910  0.1271 -1.1956  0.3042
51885SOL     OW64622   7.857  10.621   5.089  0.8795 -0.0658  0.9806
51885SOL    HW164623   7.917  10.625   5.164  1.0830 -2.8962  1.0903
51885SOL    HW264624   7.903  10.567   5.025 -0.9055 -1.0607  0.4605
51886SOL     OW64625   2.397   8.954   6.398  0.0524  0.0115 -0.6761
51886SOL    HW164626   2.332   8.942   6.466  1.6544 -0.9265  0.7768
51886SOL    HW264627   2.359   9.019   6.339 -0.9036  1.8039  1.7441
51887SOL     OW64628  12.322   9.070   4.030 -0.4081  0.2037  0.3322
51887SOL    HW164629  12.271   9.121   4.093  0.8002  2.5136 -0.4352
51887SOL    HW264630  12.278   9.085   3.946 -1.1675 -1.6935  0.3288
51888SOL     OW64631   6.346   7.791   1.828 -0.2177 -0.3366 -0.0720
51888SOL    HW164632   6.333   7.831   1.742  0.7661  0.4823  0.1496
51888SOL    HW264633   6.312   7.702   1.818 -2.0334  0.3721 -0.7099
51889SOL     OW64634   9.183   3.012   2.468 -0.1431 -0.5731 -0.0525
51889SOL    HW164635   9.227   2.996   2.551  0.6531 -2.6793 -0.8113
51889SOL    HW264636   9.187   2.928   2.422 -1.7799  0.1551 -1.6587
51890SOL     OW64637   1.865   0.737  10.572  0.1990 -0.0252  0.4492
51890SOL    HW164638   1.957   0.730  10.599  0.3001 -0.1363  0.0807
51890SOL    HW264639   1.865   0.808  10.509 -0.0289  0.2014  0.7058
51891SOL     OW64640  11.575   1.551   8.742  0.3080  0.2456  0.0092
51891SOL    HW164641  11.666   1.575   8.761  0.5455 -0.4801 -0.1571
51891SOL    HW264642  11.545   1.617   8.681 -0.0842  1.9309  1.9174
51892SOL     OW64643  11.950   4.363   0.052  0.2702  0.0248 -0.2009
51892SOL    HW164644  11.933   4.326  -0.034 -2.0725 -0.5403  0.4181
51892SOL    HW264645  11.863   4.367   0.094  1.2523  0.7631  1.9248
51893SOL     OW64646  12.084   3.950   9.875  0.3019  0.1461 -0.1683
51893SOL    HW164647  12.022   3.911   9.813 -0.6605  1.3551  0.0035
51893SOL    HW264648  12.130   4.016   9.824  1.6280 -0.8755 -0.3469
51894SOL     OW64649   4.579   7.780   3.399  0.0420  0.1228 -0.1821
51894SOL    HW164650   4.608   7.699   3.356  1.3431  0.9761 -0.9511
51894SOL    HW264651   4.486   7.764   3.417  0.2063 -1.4510 -0.5224
51895SOL     OW64652  12.395   3.740   5.110 -0.4511  0.2127  0.4687
51895SOL    HW164653  12.404   3.693   5.027 -0.9964  2.6530 -1.0892
51895SOL    HW264654  12.315   3.705   5.149  0.5187 -1.9175  0.7091
51896SOL     OW64655   2.272   1.668   7.990  0.0821 -0.2603 -0.2405
51896SOL    HW164656   2.271   1.641   8.082 -1.1076 -2.2876 -0.7675
51896SOL    HW264657   2.343   1.732   7.984  1.2473 -1.2595  1.7656
51897SOL     OW64658   2.440   1.360   8.030  0.1364 -0.1448 -0.0741
51897SOL    HW164659   2.349   1.347   8.054 -0.2036 -0.5122 -1.4821
51897SOL    HW264660   2.486   1.285   8.068 -0.4817 -1.0427 -1.0505
51898SOL     OW64661   0.957   4.598   2.691 -0.3218 -0.0520 -0.0038
51898SOL    HW164662   1.003   4.566   2.614 -0.0200 -2.2676  1.0004
51898SOL    HW264663   0.864   4.593   2.668 -0.1997  0.8176 -0.7336
51899SOL     OW64664  12.299   6.273   6.337 -0.6269  0.5385 -0.0124
51899SOL    HW164665  12.376   6.280   6.393 -0.3086 -1.2067 -0.1723
51899SOL    HW264666  12.296   6.180   6.311 -2.1765  0.7845 -0.8655
51900SOL     OW64667  10.533   5.449   7.028  0.5524  0.2469 -0.1968
51900SOL    HW164668  10.526   5.540   7.058  0.8217  0.2603 -0.1696
51900SOL    HW264669  10.595   5.408   7.088  1.9408  0.5592 -1.3558
51901SOL     OW64670  11.101   7.135   2.618 -0.0635 -0.5252 -0.6170
51901SOL    HW164671  11.041   7.195   2.663  1.7480  1.2538 -0.4163
51901SOL    HW264672  11.044   7.078   2.566 -2.2034 -2.0031  2.9949
51902SOL     OW64673   9.656   4.696   2.033  0.9206 -0.3905  0.1012
51902SOL    HW164674   9.688   4.620   2.081  1.7293  0.6874  1.3261
51902SOL    HW264675   9.727   4.718   1.973  0.5209 -0.8326 -0.5439
51903SOL     OW64676  12.489   9.282   1.093 -0.2619  0.1074 -0.4386
51903SOL    HW164677  12.500   9.209   1.032  3.9029  0.6748 -0.6755
51903SOL    HW264678  12.498   9.241   1.180  0.0097  0.0463 -0.4923
51904SOL     OW64679   0.368   6.029  11.565 -0.3909  0.1290  0.1887
51904SOL    HW164680   0.293   6.055  11.619  0.1504 -0.0516  1.0449
51904SOL    HW264681   0.342   5.944  11.529 -0.5141 -0.0382  0.6590
51905SOL     OW64682   7.215  12.403   8.868  0.0776  0.4354  0.1330
51905SOL    HW164683   7.221  12.325   8.812 -0.4707  0.9027 -0.5923
51905SOL    HW264684   7.304  12.415   8.902  0.5022  0.3509 -0.9150
51906SOL     OW64685   4.571  12.260   5.284  0.3624 -0.0935  0.2699
51906SOL    HW164686   4.562  12.305   5.368 -3.1426  0.6803 -0.3651
51906SOL    HW264687   4.592  12.330   5.222 -2.1727  0.3310 -0.2309
51907SOL     OW64688   1.903   8.100   0.840  0.2813 -0.2703  0.2484
51907SOL    HW164689   1.989   8.066   0.816  0.2543  0.2604 -0.6406
51907SOL    HW264690   1.842   8.051   0.786  0.0248 -0.5428  0.7725
51908SOL     OW64691   3.692  11.689  10.474 -0.4001 -0.4374  0.4293
51908SOL    HW164692   3.779  11.650  10.471 -0.1121  0.2306 -1.0705
51908SOL    HW264693   3.634  11.621  10.441  0.2084  0.4863 -2.9992
51909SOL     OW64694   3.208   6.346   6.723 -0.3860 -0.1176 -0.0798
51909SOL    HW164695   3.137   6.352   6.659 -3.0212  0.5917  2.6333
51909SOL    HW264696   3.232   6.253   6.723 -1.4866 -0.4380 -0.9215
51910SOL     OW64697   2.144   0.919   9.124  0.4410  0.6485 -0.1143
51910SOL    HW164698   2.119   0.839   9.078  3.9722  0.6484 -2.3861
51910SOL    HW264699   2.066   0.973   9.121 -1.8254 -2.2967  0.7737
51911SOL     OW64700   2.033  10.641   0.482  0.1462 -0.0170 -0.0972
51911SOL    HW164701   1.992  10.587   0.415 -0.0527  0.0046  0.0066
51911SOL    HW264702   1.989  10.726   0.475  1.4147  0.5842 -1.2099
51912SOL     OW64703   0.405   6.310   9.104  0.2405 -0.0670 -0.4157
51912SOL    HW164704   0.376   6.400   9.087  0.4114  0.0209 -0.2553
51912SOL    HW264705   0.347   6.255   9.052 -0.0176  0.1238 -0.3328
51913SOL     OW64706   2.374   4.142   7.646  0.3487 -0.6182  0.0347
51913SOL    HW164707   2.280   4.121   7.641 -0.0855  0.5058  2.0340
51913SOL    HW264708   2.409   4.079   7.708  1.2292 -1.8104 -1.6075
51914SOL     OW64709  10.725   7.755  11.047 -0.1650  0.5928 -0.0500
51914SOL    HW164710  10.817   7.730  11.040 -0.3266 -1.5169  3.2415
51914SOL    HW264711  10.728   7.843  11.085  0.4153  1.1249 -1.2487
51915SOL     OW64712   9.815   4.507   2.676 -0.3605 -0.3099 -0.2740
51915SOL    HW164713   9.826   4.418   2.641  0.2549 -1.1381  1.8581
51915SOL    HW264714   9.725   4.530   2.655 -0.8185 -1.8100 -0.0853
51916SOL     OW64715   4.516   3.447  11.512 -0.3955  0.5209  0.2204
51916SOL    HW164716   4.525   3.460  11.418 -0.1381 -2.0896 -0.1754
51916SOL    HW264717   4.586   3.501  11.550  1.3772 -0.5599 -1.2991
51917SOL     OW64718  10.901  11.362   2.712  0.7007  0.2003  0.0011
51917SOL    HW164719  10.823  11.361   2.658 -0.0199 -1.0119  1.0003
51917SOL    HW264720  10.939  11.449   2.699 -0.8872  0.8605 -0.3753
51918SOL     OW64721   7.248   6.118   7.089 -0.0723  0.0561 -0.4337
51918SOL    HW164722   7.317   6.143   7.150 -1.7459 -0.3468  1.7772
51918SOL    HW264723   7.227   6.199   7.043 -0.8127  1.2334  1.7867
51919SOL     OW64724   2.665   9.037   7.638 -0.0260 -0.3104 -0.2939
51919SOL    HW164725   2.605   8.980   7.590  0.2059 -0.4482 -0.4182
51919SOL    HW264726   2.687   8.987   7.717 -0.7932  0.1166  0.2029
51920SOL     OW64727   4.472  10.415   8.896 -0.4989  0.1963 -0.0858
51920SOL    HW164728   4.397  10.468   8.870 -0.5055  0.0895 -0.2860
51920SOL    HW264729   4.437  10.327   8.909 -0.5628  0.3224  0.6433
51921SOL     OW64730   5.610   5.628   1.983  0.0675  0.4354  0.4206
51921SOL    HW164731   5.639   5.580   2.061  0.9244 -0.4291 -0.3962
51921SOL    HW264732   5.650   5.581   1.910 -0.8473  1.1289 -0.5610
51922SOL     OW64733  10.755  12.057   9.670  0.1406 -0.1899  0.3419
51922SOL    HW164734  10.811  11.980   9.685 -0.6827 -0.7918  0.4137
51922SOL    HW264735  10.792  12.099   9.592  1.3139  0.0206  0.9896
51923SOL     OW64736   2.130   6.553  10.200  0.2971  0.0120  0.3525
51923SOL    HW164737   2.192   6.492  10.159  0.1678  0.0039  0.1629
51923SOL    HW264738   2.080   6.589  10.126  2.3738  2.6525  0.1062
51924SOL     OW64739  10.874   0.573   4.691  0.0810  0.6217  0.2212
51924SOL    HW164740  10.859   0.483   4.722  1.7607  0.6986  1.4025
51924SOL    HW264741  10.796   0.594   4.641 -0.3626 -1.5094 -0.1060
51925SOL     OW64742   9.227   6.223   5.615 -0.0940  0.3196 -0.0773
51925SOL    HW164743   9.151   6.271   5.649  0.1605  2.3070 -2.0485
51925SOL    HW264744   9.232   6.250   5.523  1.8442 -1.3019 -0.5103
51926SOL     OW64745  10.194  10.104   1.249  0.8846  0.2740 -0.3003
51926SOL    HW164746  10.262  10.110   1.183  0.4173  2.4822 -0.6604
51926SOL    HW264747  10.116  10.078   1.201  1.0961 -0.7042 -0.1438
51927SOL     OW64748  10.074   4.024   0.358  0.0361 -0.3341 -0.2212
51927SOL    HW164749  10.085   4.034   0.452 -2.8474 -0.5911  0.2376
51927SOL    HW264750   9.991   4.069   0.338  0.5987 -0.2087 -2.6496
51928SOL     OW64751   7.538  10.432   9.009  0.3846 -0.2425 -0.0955
51928SOL    HW164752   7.611  10.493   9.016  1.1255 -0.9904 -1.0979
51928SOL    HW264753   7.489  10.461   8.933 -0.9297  0.8056  1.0875
51929SOL     OW64754  10.631   8.035   4.024  0.2703  0.3643 -0.3566
51929SOL    HW164755  10.538   8.046   4.004  0.4875  0.1203 -1.5859
51929SOL    HW264756  10.675   8.103   3.973  0.9245 -0.8722 -1.4982
51930SOL     OW64757   3.778  11.710   6.017  0.0750 -0.6838  0.4002
51930SOL    HW164758   3.858  11.738   5.972  2.0376 -2.4099  2.5093
51930SOL    HW264759   3.737  11.648   5.957  0.4581  0.0382 -0.6303
51931SOL     OW64760   8.874   4.483   2.648 -0.2080 -0.1680  0.2133
51931SOL    HW164761   8.907   4.561   2.604  0.0802  0.3703  1.3407
51931SOL    HW264762   8.948   4.422   2.649 -0.5146 -0.5856 -0.9131
51932SOL     OW64763  10.378   9.572   0.913 -0.4162 -0.1808  0.1856
51932SOL    HW164764  10.363   9.500   0.974 -1.3341  0.5599  0.8736
51932SOL    HW264765  10.338   9.648   0.956  0.1145  0.6384 -0.7327
51933SOL     OW64766   9.176  11.712   7.335  0.4688  0.2733 -0.6049
51933SOL    HW164767   9.179  11.797   7.290  0.2558 -0.8983 -2.9415
51933SOL    HW264768   9.244  11.660   7.292  0.0256 -1.0242  0.2131
51934SOL     OW64769   7.896   0.162  10.303 -0.0367  0.6077  0.3328
51934SOL    HW164770   7.852   0.077  10.297  0.5979  0.2344  0.8259
51934SOL    HW264771   7.865   0.198  10.387 -0.5501  1.0113 -0.0242
51935SOL     OW64772   4.254   3.265   3.603  0.0420  0.1304 -0.2852
51935SOL    HW164773   4.342   3.268   3.641  0.0271 -1.9465  0.0128
51935SOL    HW264774   4.199   3.231   3.673 -0.4584 -1.3291 -1.3437
51936SOL     OW64775   1.037   1.889   8.084  0.3024  0.2288  0.0065
51936SOL    HW164776   0.957   1.942   8.077 -0.3275 -0.6128  0.5648
51936SOL    HW264777   1.016   1.808   8.037  1.3232  0.5371 -1.0073
51937SOL     OW64778   5.201   1.154  12.322 -0.7510  0.2801  0.3580
51937SOL    HW164779   5.251   1.224  12.363  0.5084  0.2950 -1.0972
51937SOL    HW264780   5.115   1.192  12.303  0.5637  2.1992 -2.3175
51938SOL     OW64781   5.622   8.424   6.077  0.2873 -0.2578 -0.3316
51938SOL    HW164782   5.573   8.348   6.044  0.1123 -0.6306  0.7640
51938SOL    HW264783   5.635   8.406   6.170  2.5815 -0.1981 -0.5834
51939SOL     OW64784   0.709  11.434  10.483  0.1418  0.5204  0.1800
51939SOL    HW164785   0.774  11.388  10.430  0.0322 -1.2786  1.4960
51939SOL    HW264786   0.651  11.476  10.420  2.0380  1.4549 -1.0391
51940SOL     OW64787   1.042   8.256  12.368 -0.5112 -0.8911  0.1235
51940SOL    HW164788   1.123   8.207  12.387  1.4585  1.9756 -0.2852
51940SOL    HW264789   1.030   8.244  12.274  0.7983  0.4893 -0.2532
51941SOL     OW64790   4.187   3.414   0.274 -0.2740 -0.3009 -0.3988
51941SOL    HW164791   4.281   3.420   0.256 -0.2964  1.3681 -0.1349
51941SOL    HW264792   4.158   3.505   0.280 -1.7335 -0.7920  0.5034
51942SOL     OW64793   5.305   4.903   9.556 -0.2398 -0.2333 -0.2323
51942SOL    HW164794   5.242   4.939   9.618 -0.3698 -1.2950  0.2782
51942SOL    HW264795   5.326   4.817   9.591  1.5051  0.0951 -0.3947
51943SOL     OW64796   4.585  12.556   5.702  0.4220  0.1213 -0.0557
51943SOL    HW164797   4.577  12.573   5.795  0.1934  0.0081 -0.0524
51943SOL    HW264798   4.536  12.627   5.660  0.4544  0.1264 -0.0860
51944SOL     OW64799  11.256  11.158   1.329  0.3235  0.0928 -0.3981
51944SOL    HW164800  11.177  11.155   1.383  0.0007  3.0969 -0.5314
51944SOL    HW264801  11.228  11.126   1.244 -0.1174 -1.1423  0.1976
51945SOL     OW64802   1.696   5.066   5.557  0.7615 -0.1169 -0.3218
51945SOL    HW164803   1.678   5.142   5.612  1.7672 -3.2001  5.0551
51945SOL    HW264804   1.779   5.086   5.515  0.1053  2.3794 -0.5657
51946SOL     OW64805   9.978   7.409  12.139  0.4283 -0.1694  0.0249
51946SOL    HW164806   9.894   7.438  12.175 -0.0223 -0.7414 -0.5295
51946SOL    HW264807  10.013   7.350  12.206  0.3516  0.0122  0.2255
51947SOL     OW64808   5.090   7.616   7.944  0.3084  0.5250  0.6093
51947SOL    HW164809   5.151   7.673   7.897  0.4101 -0.0074  0.0783
51947SOL    HW264810   5.014   7.671   7.962  0.1970  0.6984 -0.3387
51948SOL     OW64811   6.384  11.174  11.959  0.2745  0.6653  0.8975
51948SOL    HW164812   6.361  11.122  11.882  1.0009  0.1834  1.0026
51948SOL    HW264813   6.395  11.111  12.029 -1.8030  1.2041  1.7985
51949SOL     OW64814   9.964   5.521   9.808  0.3132 -0.1605 -0.1072
51949SOL    HW164815  10.059   5.517   9.799  0.3251  1.0262 -0.7857
51949SOL    HW264816   9.942   5.450   9.867  1.8311  0.7211  1.6115
51950SOL     OW64817   2.465   0.379   2.794  0.3212  0.6862 -0.4502
51950SOL    HW164818   2.555   0.405   2.774  0.1590  1.7095  0.1309
51950SOL    HW264819   2.473   0.288   2.825  1.0374  0.4528 -1.2601
51951SOL     OW64820  10.461   4.534   7.761 -0.1213  0.0724 -0.1177
51951SOL    HW164821  10.526   4.592   7.721 -0.6724  0.0220 -1.1213
51951SOL    HW264822  10.453   4.565   7.852  2.1567 -0.6687  0.3989
51952SOL     OW64823   5.828   1.203   0.348 -0.3328 -0.1556  0.3898
51952SOL    HW164824   5.913   1.246   0.334 -0.2440  0.4835  2.6315
51952SOL    HW264825   5.764   1.272   0.331 -0.3854 -0.3463 -0.2285
51953SOL     OW64826  10.861   4.898   2.568 -0.6731  0.4102  0.4283
51953SOL    HW164827  10.782   4.843   2.561  0.0300 -0.5296 -0.6108
51953SOL    HW264828  10.883   4.919   2.477  0.8007 -0.1581  0.6173
51954SOL     OW64829   4.124   4.925  12.186  0.4769  0.0116  0.4312
51954SOL    HW164830   4.200   4.883  12.147  0.6249  0.7175 -0.0558
51954SOL    HW264831   4.151   4.944  12.276  0.4577 -0.7978  0.6075
51955SOL     OW64832   9.756   6.536   6.371 -0.3591  0.1721 -0.2159
51955SOL    HW164833   9.662   6.549   6.356 -0.7588 -1.5115  0.5060
51955SOL    HW264834   9.778   6.594   6.444 -0.8251  0.6285 -0.4370
51956SOL     OW64835   5.835   2.298   9.246 -0.0003  0.1311  0.0316
51956SOL    HW164836   5.824   2.212   9.207  1.0418 -0.6633  1.3983
51956SOL    HW264837   5.894   2.284   9.320  1.4173  2.2645 -0.5948
51957SOL     OW64838   8.990   2.568   6.386 -0.2749  0.2981 -0.0182
51957SOL    HW164839   8.999   2.544   6.478 -0.4387 -0.4255 -0.1800
51957SOL    HW264840   8.936   2.647   6.386 -1.5386 -0.5280  0.4399
51958SOL     OW64841   7.285   4.705   8.082  0.1430  0.6684 -0.2130
51958SOL    HW164842   7.265   4.745   7.997 -0.5176  2.3744  0.7044
51958SOL    HW264843   7.316   4.778   8.136 -1.2242 -0.0226  1.5698
51959SOL     OW64844  10.476   0.908  11.054 -0.2964  0.3953  0.3644
51959SOL    HW164845  10.532   0.919  10.977  0.4892 -0.4931  0.7918
51959SOL    HW264846  10.437   0.994  11.068 -0.5346  0.5410 -1.0880
51960SOL     OW64847   6.243  12.294   2.980  0.0764 -0.2427  0.3741
51960SOL    HW164848   6.252  12.385   2.951  0.5274 -0.6612 -0.8944
51960SOL    HW264849   6.264  12.242   2.902  0.4428 -1.4480  1.2460
51961SOL     OW64850   1.809   4.187   3.608 -0.3560  0.0824 -0.1653
51961SOL    HW164851   1.847   4.257   3.661  0.6598 -0.6916  0.1771
51961SOL    HW264852   1.879   4.164   3.546 -1.1146  0.1940 -1.0695
51962SOL     OW64853   1.768   0.265   8.074  0.1235  0.2994  0.0289
51962SOL    HW164854   1.795   0.307   7.992 -0.0179 -1.9606 -1.2533
51962SOL    HW264855   1.841   0.279   8.134  0.2913  1.8658 -0.5066
51963SOL     OW64856  10.256   7.067   7.485  0.0262  0.4257 -0.0641
51963SOL    HW164857  10.206   7.138   7.446 -0.3469 -0.1382 -0.6288
51963SOL    HW264858  10.285   7.014   7.411 -0.7045 -0.6648  0.4060
51964SOL     OW64859   3.752  12.380   8.498  0.8220 -0.2022 -0.3226
51964SOL    HW164860   3.728  12.441   8.428 -0.3881 -1.2751 -0.8982
51964SOL    HW264861   3.771  12.435   8.573 -1.7074  0.8670 -0.3689
51965SOL     OW64862  11.939   5.877   0.628 -0.7515 -0.2810  0.0284
51965SOL    HW164863  11.891   5.856   0.708 -0.2233  1.5052  0.8863
51965SOL    HW264864  11.957   5.971   0.636  1.0590 -0.4786 -1.2434
51966SOL     OW64865   9.980   2.539   7.167 -0.1786  0.0624  0.1656
51966SOL    HW164866   9.999   2.452   7.204  0.7233  0.0156 -0.3797
51966SOL    HW264867  10.012   2.534   7.076 -0.9597  0.6707 -0.1569
51967SOL     OW64868   4.394   0.199  10.627 -0.4222  0.1314 -0.0685
51967SOL    HW164869   4.378   0.284  10.669  0.6039 -0.1202  0.8592
51967SOL    HW264870   4.396   0.137  10.699 -0.4747 -0.5898 -0.6837
51968SOL     OW64871   4.873   8.868   1.930  0.3282  0.4435 -0.1565
51968SOL    HW164872   4.818   8.811   1.876  0.2526  1.1443 -0.8246
51968SOL    HW264873   4.945   8.811   1.959 -0.8830 -0.5873  1.0040
51969SOL     OW64874   4.997   4.604   2.203  0.1084  0.0026 -0.1575
51969SOL    HW164875   5.019   4.586   2.111  1.8360  0.1038  0.2088
51969SOL    HW264876   4.955   4.523   2.233  0.7381 -0.5320 -0.6828
51970SOL     OW64877   9.467   8.166  10.784 -0.4214 -0.5026 -0.0436
51970SOL    HW164878   9.478   8.179  10.878 -0.3912 -2.3715  0.2488
51970SOL    HW264879   9.519   8.236  10.744  0.9740 -0.6853  1.3297
51971SOL     OW64880   9.288   9.705  10.692  0.0163 -0.5983  0.1855
51971SOL    HW164881   9.244   9.629  10.655 -2.2086 -0.7935  2.9052
51971SOL    HW264882   9.241   9.780  10.657 -0.7185 -0.6922  0.9513
51972SOL     OW64883   1.005  10.939  12.028  0.4078 -0.3481 -0.7931
51972SOL    HW164884   1.083  10.955  12.080  0.2440 -1.1386 -0.2905
51972SOL    HW264885   1.010  10.846  12.005 -0.5267 -0.4849 -0.5046
51973SOL     OW64886   8.699   3.283   7.730  0.1156  0.2208  0.1200
51973SOL    HW164887   8.714   3.331   7.811 -0.7937 -0.1043  0.4900
51973SOL    HW264888   8.688   3.192   7.757 -2.3838  0.3938 -0.0876
51974SOL     OW64889   2.146   3.896  12.181  0.0400 -0.2948 -0.3943
51974SOL    HW164890   2.231   3.918  12.143  1.4345 -2.0140  1.5098
51974SOL    HW264891   2.106   3.981  12.201  1.8101  0.5643 -0.3429
51975SOL     OW64892  10.148   2.173  11.885 -0.3952  0.5417 -0.0753
51975SOL    HW164893  10.082   2.172  11.954 -0.3769 -0.4644 -0.0554
51975SOL    HW264894  10.230   2.157  11.931 -0.4693 -0.8601 -0.3933
51976SOL     OW64895   2.828  10.864   7.637  0.0219 -0.3854 -0.1709
51976SOL    HW164896   2.745  10.910   7.636  0.9994  1.4819  0.0239
51976SOL    HW264897   2.820  10.798   7.569 -2.0054 -1.0106  0.6025
51977SOL     OW64898   5.816   9.082   4.090 -0.2811 -0.1394  0.0628
51977SOL    HW164899   5.790   9.056   4.179 -0.1890 -2.7310 -0.6041
51977SOL    HW264900   5.754   9.039   4.033 -1.5907  3.1058 -1.1737
51978SOL     OW64901   4.030   9.133  10.741  0.4753 -0.0513  0.1220
51978SOL    HW164902   3.940   9.160  10.759 -0.0557 -1.8034  0.3132
51978SOL    HW264903   4.077   9.150  10.822  0.0186 -0.2666  0.4348
51979SOL     OW64904   5.574  10.964   1.635  0.7539  0.2341  0.7383
51979SOL    HW164905   5.594  10.889   1.580  3.4272  0.1670  1.6439
51979SOL    HW264906   5.479  10.960   1.649  0.6309 -2.1280 -0.3790
51980SOL     OW64907   7.749   7.378   1.553 -0.1979  0.3575  0.2432
51980SOL    HW164908   7.781   7.352   1.467 -0.8104 -0.3214  0.2081
51980SOL    HW264909   7.658   7.403   1.539 -0.6886 -0.9514  0.8723
51981SOL     OW64910   5.070  11.251   5.348  0.1586  0.1506  0.1456
51981SOL    HW164911   5.040  11.311   5.280 -1.7999 -0.6431  0.2339
51981SOL    HW264912   5.023  11.278   5.427  0.4790 -0.4935  0.5683
51982SOL     OW64913  10.185   5.757   9.211 -0.0337 -1.3863  0.1683
51982SOL    HW164914  10.172   5.801   9.295 -1.7894  1.0867 -1.2671
51982SOL    HW264915  10.263   5.703   9.225  0.9881  0.5141  2.7739
51983SOL     OW64916  12.436   7.196   1.832 -0.9242 -0.0919 -0.2628
51983SOL    HW164917  12.528   7.187   1.856  0.5863  2.0387 -4.2999
51983SOL    HW264918  12.408   7.276   1.877 -0.2850  0.1764 -0.3309
51984SOL     OW64919  12.254   5.772   9.261  0.3072 -0.4372  0.7301
51984SOL    HW164920  12.214   5.809   9.340  0.2143  1.7882 -0.2955
51984SOL    HW264921  12.327   5.720   9.294  1.3137  1.7778  2.2708
51985SOL     OW64922  10.197   5.774   3.975  0.0826 -0.2928 -0.2763
51985SOL    HW164923  10.114   5.743   4.011  0.7933 -0.1505  1.6182
51985SOL    HW264924  10.261   5.710   4.006  1.0057  0.8784  0.3104
51986SOL     OW64925  10.449   1.712   3.718 -0.0868 -0.7840  0.3041
51986SOL    HW164926  10.484   1.764   3.790  1.9735 -0.4524 -0.8820
51986SOL    HW264927  10.494   1.744   3.640 -1.2734 -2.0467 -0.9621
51987SOL     OW64928  12.055   1.381   6.436 -0.4695 -0.8401  0.2576
51987SOL    HW164929  12.105   1.445   6.487  2.0216 -1.8962 -0.7153
51987SOL    HW264930  12.010   1.328   6.502  1.5405 -1.2753  1.3564
51988SOL     OW64931   6.790   1.947  12.135  0.5219  0.6261  0.0456
51988SOL    HW164932   6.860   2.002  12.170  1.2396 -1.4086  2.0835
51988SOL    HW264933   6.719   1.955  12.199 -1.2098  2.6178 -1.9638
51989SOL     OW64934   5.799   9.097   2.964 -0.1238  0.0322 -0.2663
51989SOL    HW164935   5.790   9.002   2.966  0.5008 -0.0422 -0.7136
51989SOL    HW264936   5.760   9.123   2.881 -1.6678  0.3417  0.5119
51990SOL     OW64937   7.012   6.981   8.858  0.5906  0.1610  0.0357
51990SOL    HW164938   7.034   7.072   8.835  0.9884  0.5362  1.7940
51990SOL    HW264939   6.918   6.975   8.843  0.4090  1.1316  0.6966
51991SOL     OW64940   3.561   9.027   8.533  0.0412 -0.1799 -0.1327
51991SOL    HW164941   3.604   9.008   8.450 -0.2887  0.1924 -0.3917
51991SOL    HW264942   3.621   9.085   8.579  0.2125 -0.3651 -0.1230
51992SOL     OW64943   2.889  11.849   1.713  0.2391  0.2369  1.0581
51992SOL    HW164944   2.839  11.787   1.765 -0.7809  0.6374  0.5785
51992SOL    HW264945   2.929  11.796   1.644  2.3926 -0.4669  2.7140
51993SOL     OW64946  10.206   8.432   4.842  0.1807 -0.1218 -0.3452
51993SOL    HW164947  10.163   8.450   4.925 -0.8568 -0.3449 -0.8137
51993SOL    HW264948  10.160   8.489   4.779  1.0675  0.1780 -0.7301
51994SOL     OW64949  10.637   2.176  12.097 -0.2623  0.1635  0.9734
51994SOL    HW164950  10.676   2.089  12.102 -0.8512 -0.2402 -0.7334
51994SOL    HW264951  10.699   2.234  12.142  0.7890 -0.9171  0.9490
51995SOL     OW64952   2.887   9.085   1.399  0.6961 -0.4558  0.5681
51995SOL    HW164953   2.865   9.058   1.488  0.9723 -0.2678  0.6964
51995SOL    HW264954   2.810   9.064   1.347  0.4517 -0.3689  0.8939
51996SOL     OW64955   9.370   9.830   5.756  0.1857  0.0351 -0.4365
51996SOL    HW164956   9.412   9.853   5.674  0.9836  0.5233  0.1006
51996SOL    HW264957   9.432   9.771   5.800  0.3697  0.8191  0.3932
51997SOL     OW64958   9.146   1.001   1.246 -0.0809 -0.3195 -0.0286
51997SOL    HW164959   9.124   1.019   1.155  1.0617  0.0521 -0.2384
51997SOL    HW264960   9.217   1.061   1.267 -1.1832  0.5331  1.5218
51998SOL     OW64961   5.916   3.642   9.875 -0.5590  0.2203 -0.1594
51998SOL    HW164962   5.937   3.572   9.814  0.6174  1.2836 -1.0115
51998SOL    HW264963   5.899   3.597   9.958 -0.1135 -1.0794 -0.7495
51999SOL     OW64964  12.340   6.431   0.901  0.0599 -0.0069 -0.4369
51999SOL    HW164965  12.369   6.340   0.905 -3.2807 -1.1800  0.5784
51999SOL    HW264966  12.275   6.433   0.831 -0.0812  1.5438 -0.3031
52000SOL     OW64967   6.633   6.170   1.315 -0.1038  0.2168 -0.6465
52000SOL    HW164968   6.603   6.251   1.274 -1.5906  1.0315  1.8400
52000SOL    HW264969   6.590   6.100   1.265 -0.2267  1.0152 -1.7017
52001SOL     OW64970   3.370   1.524   9.839  0.0187 -0.1300 -0.4516
52001SOL    HW164971   3.291   1.490   9.798 -1.4909  1.4376  1.0253
52001SOL    HW264972   3.350   1.615   9.861  2.2361  0.3324 -0.0289
52002SOL     OW64973   3.639  11.101   6.968 -0.3460 -0.1552  0.7771
52002SOL    HW164974   3.615  11.043   6.896 -3.2232  2.8383 -0.9321
52002SOL    HW264975   3.556  11.121   7.012  0.8692  0.8705  2.7655
52003SOL     OW64976   6.593  12.103  11.122  0.1484 -0.1924  0.5687
52003SOL    HW164977   6.560  12.095  11.032 -1.0194  0.6633  0.8896
52003SOL    HW264978   6.666  12.042  11.126  0.8674  0.4795 -1.2507
52004SOL     OW64979  11.566  12.388   3.461 -0.3736 -0.2038  0.0713
52004SOL    HW164980  11.549  12.463   3.405 -0.0398  0.5345  0.9358
52004SOL    HW264981  11.494  12.327   3.443  0.0778 -0.2884 -1.6309
52005SOL     OW64982   8.507   3.800   9.677  0.5244 -0.2818  0.1544
52005SOL    HW164983   8.578   3.738   9.695 -1.3726 -3.2832 -1.8704
52005SOL    HW264984   8.549   3.869   9.626  2.4679 -0.5722  1.2494
52006SOL     OW64985  10.715  11.514   9.455 -0.3568 -0.5191 -0.2849
52006SOL    HW164986  10.679  11.567   9.526  0.8463  0.1104 -0.1081
52006SOL    HW264987  10.646  11.511   9.389 -1.0925 -0.2153  0.4528
52007SOL     OW64988   5.313   9.915   4.840  0.4542 -0.2555  0.0285
52007SOL    HW164989   5.245   9.914   4.907  2.3222  1.9601  2.1346
52007SOL    HW264990   5.394   9.925   4.888  2.0323  0.1801 -2.5323
52008SOL     OW64991   3.398   7.760   1.158  0.5778  0.4825  0.2131
52008SOL    HW164992   3.387   7.850   1.189 -1.7179  0.2427  0.2694
52008SOL    HW264993   3.423   7.769   1.066 -0.6270  1.2182 -0.0677
52009SOL     OW64994   1.325   3.095  12.419 -0.4312  0.2219  0.0461
52009SOL    HW164995   1.417   3.100  12.394 -0.5362  1.0820 -0.2012
52009SOL    HW264996   1.281   3.057  12.343  0.2880 -4.7297  1.7151
52010SOL     OW64997  10.743   2.519  11.714  0.1176  0.2866 -0.0901
52010SOL    HW164998  10.743   2.431  11.677 -1.4590 -0.2654  1.1289
52010SOL    HW264999  10.778   2.507  11.803 -1.0340  0.7103  0.4293
52011SOL     OW65000   7.771   7.626   5.732  0.0226  0.1711  0.1149
52011SOL    HW165001   7.701   7.664   5.785  0.9875 -0.6576  2.0673
52011SOL    HW265002   7.811   7.701   5.688 -1.2148  0.8011  0.0100
52012SOL     OW65003   6.243   8.821   9.135 -0.1783 -0.0314 -0.4813
52012SOL    HW165004   6.286   8.884   9.193 -0.9992  1.0209 -0.9597
52012SOL    HW265005   6.297   8.820   9.056 -0.0149 -0.1373 -0.3692
52013SOL     OW65006  12.266  11.575   3.668 -1.4299 -0.7157 -0.6703
52013SOL    HW165007  12.276  11.492   3.715 -0.0249 -0.9373 -1.3083
52013SOL    HW265008  12.325  11.566   3.592  1.3623  2.0747  0.9394
52014SOL     OW65009   2.115  10.355  12.158 -0.4742  0.0512 -0.3296
52014SOL    HW165010   2.049  10.407  12.112 -1.8639 -0.6205  0.7973
52014SOL    HW265011   2.064  10.302  12.220  1.1377 -0.5302  0.5596
52015SOL     OW65012  11.097   8.036   7.297 -0.8160 -0.2890 -0.1486
52015SOL    HW165013  11.025   8.090   7.264 -1.3000 -1.0743 -0.3842
52015SOL    HW265014  11.087   7.952   7.253 -1.5118 -1.4064  1.9833
52016SOL     OW65015   3.090   4.063   3.071  0.0398  0.4839 -0.2203
52016SOL    HW165016   3.013   4.008   3.055  0.2110  0.0569  0.3913
52016SOL    HW265017   3.165   4.007   3.049  0.2309  0.3211  0.8005
52017SOL     OW65018   4.187   9.714   1.616 -0.0041  0.2433  0.0841
52017SOL    HW165019   4.239   9.788   1.649 -0.0411  1.0171 -1.5075
52017SOL    HW265020   4.103   9.753   1.592 -0.2191 -0.4168 -0.2474
52018SOL     OW65021   8.683  10.894   7.851  0.8456  0.8192  0.1190
52018SOL    HW165022   8.761  10.907   7.904  1.4522  1.6921 -0.9380
52018SOL    HW265023   8.716  10.872   7.764 -0.0627  1.7514 -0.4924
52019SOL     OW65024   8.841   4.666  11.288  0.0793 -0.2357 -0.0090
52019SOL    HW165025   8.825   4.725  11.215 -1.5878 -0.6871 -0.0559
52019SOL    HW265026   8.816   4.716  11.366  0.3560 -0.2812  0.1103
52020SOL     OW65027   3.173   2.347  11.480  0.0555  0.0213  0.0959
52020SOL    HW165028   3.111   2.353  11.407  0.2868 -1.1210 -0.2103
52020SOL    HW265029   3.171   2.255  11.506  0.3002  0.3343  1.2625
52021SOL     OW65030   7.009   0.633  11.147  0.0151  0.1799  0.2662
52021SOL    HW165031   7.028   0.555  11.200  2.1254  0.8409  0.6011
52021SOL    HW265032   6.918   0.623  11.120  0.4870 -2.8963 -0.5419
52022SOL     OW65033   7.428  11.458  10.395  0.4656  0.3452 -0.0453
52022SOL    HW165034   7.450  11.547  10.366  1.0247  0.5466  0.9402
52022SOL    HW265035   7.337  11.464  10.424  0.5549  0.6539  0.1829
52023SOL     OW65036   0.267  12.046   5.179  0.0436 -1.0967 -0.2311
52023SOL    HW165037   0.320  11.985   5.126 -1.2542 -1.7796 -0.7807
52023SOL    HW265038   0.296  12.133   5.150  1.9138 -1.4075  0.5533
52024SOL     OW65039   6.611   5.595   6.036  0.7999  0.2152 -0.6464
52024SOL    HW165040   6.537   5.539   6.010 -0.6048  1.4573  0.4645
52024SOL    HW265041   6.596   5.611   6.130  2.2790  0.8304 -0.4894
52025SOL     OW65042   5.001   4.200   6.026  0.0594  0.3470 -0.4576
52025SOL    HW165043   5.065   4.237   5.965 -1.3534 -1.1380 -3.0017
52025SOL    HW265044   5.045   4.125   6.065  1.1596  1.6116  0.8797
52026SOL     OW65045   0.429   9.448   8.461  0.3961 -0.2589 -0.2346
52026SOL    HW165046   0.367   9.422   8.529  1.2475 -1.8536 -0.0200
52026SOL    HW265047   0.410   9.540   8.445  0.5850  0.3689  2.6209
52027SOL     OW65048   0.314   8.623   8.978 -0.4352 -0.2451  0.5090
52027SOL    HW165049   0.289   8.707   8.940  0.8081  0.1197  0.4452
52027SOL    HW265050   0.391   8.643   9.032 -0.5106 -1.2355  1.0114
52028SOL     OW65051  12.443   2.719   7.613 -0.3384  0.4481 -0.1827
52028SOL    HW165052  12.512   2.705   7.678  0.5001 -0.1241 -1.1502
52028SOL    HW265053  12.375   2.766   7.660  1.5410  2.8970  0.3223
52029SOL     OW65054   3.478  12.074   0.114  0.3427  0.5322 -0.2966
52029SOL    HW165055   3.457  12.115   0.030  2.0937  0.5143 -0.7747
52029SOL    HW265056   3.544  12.131   0.152 -1.0116  1.0016  1.4968
52030SOL     OW65057   9.646   1.951   2.727  0.2374 -0.0924 -0.3327
52030SOL    HW165058   9.697   1.968   2.807  1.2448 -0.5968 -0.8526
52030SOL    HW265059   9.624   1.858   2.733  0.5680 -0.1999 -0.7819
52031SOL     OW65060   0.219   0.784   0.965 -0.4034 -0.0623  0.2679
52031SOL    HW165061   0.223   0.739   1.049  0.2650 -0.1358  0.2023
52031SOL    HW265062   0.166   0.726   0.909 -1.1524  0.1590  0.7271
52032SOL     OW65063  11.209   4.769   9.697  0.2512 -0.2697  0.4537
52032SOL    HW165064  11.183   4.677   9.694  0.9872 -0.5729  2.0590
52032SOL    HW265065  11.246   4.781   9.785  0.2150  1.5503  0.2755
52033SOL     OW65066   7.363   5.889   1.666  0.5320  0.5512  0.0914
52033SOL    HW165067   7.352   5.974   1.623  0.0323  1.0311  1.1317
52033SOL    HW265068   7.407   5.835   1.601  1.3693  1.7698 -0.3937
52034SOL     OW65069   4.137   9.217  12.272  0.5813 -0.1096  0.1683
52034SOL    HW165070   4.117   9.307  12.297 -0.6894 -0.3383  0.0495
52034SOL    HW265071   4.204   9.189  12.334  0.3163  0.6176  0.7923
52035SOL     OW65072  11.705   9.365   0.128  0.1475  0.0905  0.1367
52035SOL    HW165073  11.798   9.378   0.145  0.1378 -0.7814  0.9740
52035SOL    HW265074  11.676   9.445   0.084  1.7582 -0.5068 -2.1811
52036SOL     OW65075  10.192   7.200  11.154 -1.0502  0.1186  0.2683
52036SOL    HW165076  10.212   7.210  11.247 -1.7341  1.0880  0.3354
52036SOL    HW265077  10.197   7.106  11.138  0.3955  0.0486  0.9679
52037SOL     OW65078  10.267   6.976  10.679  0.3668 -0.5867 -0.0231
52037SOL    HW165079  10.284   6.890  10.716  1.0134 -0.6715 -0.4993
52037SOL    HW265080  10.340   7.030  10.709  0.0363 -0.2399  0.1608
52038SOL     OW65081   4.076  12.595   4.868  0.1754  0.2963 -0.0315
52038SOL    HW165082   4.045  12.545   4.944 -0.1165 -0.2577 -0.5095
52038SOL    HW265083   4.143  12.539   4.829  0.8972  0.9272  0.2631
52039SOL     OW65084   0.192   9.342   4.505 -0.3924  0.2777  0.1600
52039SOL    HW165085   0.274   9.389   4.520 -0.4283  0.1424  0.7896
52039SOL    HW265086   0.126   9.393   4.551 -0.8170  0.8501 -1.0366
52040SOL     OW65087   7.219   6.946   5.565 -0.4263 -0.0557 -0.1917
52040SOL    HW165088   7.271   6.900   5.630 -0.9707 -3.2424 -1.8244
52040SOL    HW265089   7.269   6.938   5.484 -1.8008 -0.1114 -1.0649
52041SOL     OW65090   9.821  12.140   8.341  0.0176  0.0224  0.1786
52041SOL    HW165091   9.764  12.064   8.328  1.2448 -1.3940  2.4782
52041SOL    HW265092   9.792  12.203   8.275 -2.4906 -1.5935 -0.3984
52042SOL     OW65093   5.569  10.846   6.211  0.3726  0.8560 -0.2533
52042SOL    HW165094   5.593  10.864   6.302 -1.1849 -0.5403  0.4849
52042SOL    HW265095   5.478  10.873   6.205  0.5736  1.3070 -1.5428
52043SOL     OW65096   9.055   1.619   5.633  0.1692  0.7074  0.2946
52043SOL    HW165097   9.006   1.602   5.552 -0.2269  2.2287  0.1789
52043SOL    HW265098   8.997   1.589   5.703 -0.1647  0.8257  0.0708
52044SOL     OW65099   3.087   3.853   5.887 -0.2921  0.0621  0.4529
52044SOL    HW165100   3.135   3.856   5.970  0.4063 -3.4548  0.3498
52044SOL    HW265101   3.025   3.781   5.899 -1.4025  0.6260 -1.5111
52045SOL     OW65102  10.889   4.357  11.360 -0.0246 -0.0262  0.2906
52045SOL    HW165103  10.875   4.362  11.266  1.7730 -2.2738 -0.2190
52045SOL    HW265104  10.961   4.418  11.377 -1.4093  1.5784  0.5334
52046SOL     OW65105   7.038   7.432   9.391  0.4132 -0.3067  0.1695
52046SOL    HW165106   7.061   7.406   9.302 -1.3831  2.2693 -1.1711
52046SOL    HW265107   7.097   7.504   9.411  0.3448 -0.4236  0.8144
52047SOL     OW65108   6.720   1.616   8.402  0.2473  0.1170  0.0042
52047SOL    HW165109   6.632   1.652   8.414 -0.8507 -2.5257  0.4275
52047SOL    HW265110   6.748   1.592   8.490  0.5922 -0.7587 -0.3339
52048SOL     OW65111  10.606   0.353   3.530 -0.1679 -0.6618 -0.5104
52048SOL    HW165112  10.658   0.408   3.471  0.8296 -1.3930 -0.3460
52048SOL    HW265113  10.558   0.295   3.471  0.4654 -1.0746 -0.6301
52049SOL     OW65114   1.608   5.292   9.398  0.0173  0.1431  0.2442
52049SOL    HW165115   1.703   5.304   9.402 -0.1128  0.8396  1.4829
52049SOL    HW265116   1.578   5.309   9.487 -1.1085 -1.5852  0.2381
52050SOL     OW65117   1.796   5.057   9.168  0.3731 -0.2495  0.6471
52050SOL    HW165118   1.854   4.995   9.214  0.1534 -0.1901  1.0084
52050SOL    HW265119   1.780   5.016   9.084  1.2919 -0.0690  0.3699
52051SOL     OW65120   2.954   0.107   2.614 -0.2411  0.7675  0.1929
52051SOL    HW165121   2.877   0.092   2.559  0.2532 -2.5023  0.2003
52051SOL    HW265122   3.020   0.047   2.580  1.2503  1.1597  2.1940
52052SOL     OW65123  11.767  11.159   8.851 -0.2306  0.5514  0.3414
52052SOL    HW165124  11.838  11.198   8.800  0.0651  0.7292  0.8751
52052SOL    HW265125  11.742  11.228   8.913 -2.1347  1.1792 -1.0327
52053SOL     OW65126   4.739  11.999   8.733  0.4258  0.1683  0.4713
52053SOL    HW165127   4.648  11.970   8.741  0.7376 -0.3029  3.2702
52053SOL    HW265128   4.760  12.034   8.820  3.4638 -1.3574  0.4407
52054SOL     OW65129  10.225   4.621   1.733  0.0301 -0.0418  0.2095
52054SOL    HW165130  10.136   4.588   1.737 -0.3673  0.5387 -2.3674
52054SOL    HW265131  10.259   4.589   1.649  1.6796  1.1303  0.3798
52055SOL     OW65132   3.272   9.218   3.404 -0.1793 -0.9433  0.5412
52055SOL    HW165133   3.272   9.195   3.311  1.1471  0.2798  0.1936
52055SOL    HW265134   3.279   9.135   3.450 -0.5564 -1.5442 -0.4558
52056SOL     OW65135  10.678   9.635   7.577  0.6324  0.4179  0.4028
52056SOL    HW165136  10.693   9.630   7.483  1.8295 -0.4159  0.6130
52056SOL    HW265137  10.616   9.564   7.595 -0.1229  1.0103  0.1519
52057SOL     OW65138   6.210   2.411   3.224 -0.1447  0.4981 -0.3293
52057SOL    HW165139   6.298   2.445   3.241  0.2204 -0.2489 -0.6768
52057SOL    HW265140   6.224   2.336   3.166 -0.7172 -1.6710  2.1654
52058SOL     OW65141   1.372   9.807   7.960 -0.0680 -0.2627  0.2471
52058SOL    HW165142   1.356   9.784   7.868 -0.1259 -0.3502  0.2786
52058SOL    HW265143   1.394   9.900   7.958  0.9907 -0.5088  0.0200
52059SOL     OW65144   1.499   6.342   0.904 -0.5528  0.4513  0.0322
52059SOL    HW165145   1.404   6.356   0.911 -0.6134 -0.1222  0.5403
52059SOL    HW265146   1.520   6.289   0.981  0.2417  0.8660  0.1048
52060SOL     OW65147   6.589   3.616  12.478 -0.0281 -0.1606 -0.3517
52060SOL    HW165148   6.657   3.676  12.508  0.0163 -0.3143 -0.1403
52060SOL    HW265149   6.630   3.529  12.482 -0.3419 -0.2929  0.0984
52061SOL     OW65150  10.998   9.849  10.746 -0.1802  0.8298  0.0834
52061SOL    HW165151  10.968   9.940  10.746  1.0404  1.3040 -1.8131
52061SOL    HW265152  11.090   9.854  10.719 -0.2276 -0.9909 -0.5904
52062SOL     OW65153   5.194  10.241   6.422  0.3751  0.1902 -0.2657
52062SOL    HW165154   5.272  10.255   6.476  1.7804 -2.1301 -1.5332
52062SOL    HW265155   5.219  10.273   6.335 -0.6380  0.7700 -0.3535
52063SOL     OW65156   0.268   4.546   6.730  0.0737  0.0455  0.2954
52063SOL    HW165157   0.211   4.480   6.770 -0.6776  0.8939  0.6570
52063SOL    HW265158   0.209   4.599   6.677  0.4685  1.0870  0.8667
52064SOL     OW65159   8.678   8.302   9.983 -0.3591  0.1953  0.1951
52064SOL    HW165160   8.766   8.290   9.946 -0.3376  0.6878  0.0746
52064SOL    HW265161   8.620   8.258   9.920 -0.3728  1.4588 -0.7230
52065SOL     OW65162   9.076   2.748   0.532 -0.4392  0.0398 -0.4877
52065SOL    HW165163   9.154   2.757   0.478 -0.7157  0.9651 -0.7438
52065SOL    HW265164   9.102   2.686   0.601  0.0466 -0.8072 -1.4109
52066SOL     OW65165   2.938  10.103   0.170 -0.2121  0.4553  0.9870
52066SOL    HW165166   2.972  10.069   0.253  1.5626  0.4550  0.3014
52066SOL    HW265167   2.872  10.168   0.196 -1.9856 -1.7409  2.3500
52067SOL     OW65168  11.160   2.377   4.013 -0.3189 -0.4244 -0.1712
52067SOL    HW165169  11.110   2.304   4.050  0.3365 -0.8007  0.0000
52067SOL    HW265170  11.219   2.336   3.950 -2.3645  0.3408 -2.7776
52068SOL     OW65171  12.057  11.882   9.430 -0.2952  0.2920 -0.5350
52068SOL    HW165172  12.148  11.864   9.405 -0.3520  1.7382 -1.9649
52068SOL    HW265173  12.005  11.844   9.360 -0.8386 -0.7849  0.4258
52069SOL     OW65174   4.682   5.693   1.645 -0.1602 -0.7851 -0.2473
52069SOL    HW165175   4.678   5.597   1.637  0.8549 -0.8792  0.1922
52069SOL    HW265176   4.628   5.713   1.721 -0.9848 -0.9362 -0.7917
52070SOL     OW65177   8.774   9.968  10.892  0.2191 -0.0380  0.2575
52070SOL    HW165178   8.689   9.992  10.855 -0.7335 -1.2125  1.6210
52070SOL    HW265179   8.837   9.988  10.822 -1.1849  0.6324 -0.8544
52071SOL     OW65180   3.321   0.753  11.380  0.5146  0.1235 -0.2966
52071SOL    HW165181   3.233   0.766  11.344  0.3924  0.1986  0.0206
52071SOL    HW265182   3.370   0.712  11.310  0.4594  0.8502 -0.7681
52072SOL     OW65183   9.846   0.517   3.907 -0.0255 -0.2704 -0.0037
52072SOL    HW165184   9.752   0.510   3.917 -0.3799  1.1958 -1.7698
52072SOL    HW265185   9.867   0.463   3.831  0.3302  0.4902 -0.4614
52073SOL     OW65186   8.117   5.571   2.331  0.1690 -0.4334 -0.0700
52073SOL    HW165187   8.188   5.611   2.382  1.3924 -1.2240 -1.0858
52073SOL    HW265188   8.121   5.478   2.353 -1.8654 -0.2578  1.3371
52074SOL     OW65189   3.631   5.346   3.206 -0.3061  0.5601 -0.0667
52074SOL    HW165190   3.550   5.384   3.172 -0.4838  0.9154  0.7397
52074SOL    HW265191   3.610   5.254   3.222  0.1745  0.0312 -2.1857
52075SOL     OW65192   8.952   2.816   8.000 -0.4177  0.0449 -0.0313
52075SOL    HW165193   8.962   2.903   7.961 -1.1551  0.9311  1.6263
52075SOL    HW265194   9.040   2.794   8.031 -0.4674  0.8014  0.6849
52076SOL     OW65195   3.398   4.931   4.978  0.4991 -0.3635 -0.2307
52076SOL    HW165196   3.419   5.015   4.937 -2.4388  0.2186 -0.7551
52076SOL    HW265197   3.407   4.867   4.907 -0.0957 -0.0438 -0.5976
52077SOL     OW65198   7.178   5.777   6.108 -0.4621  0.0761  0.3228
52077SOL    HW165199   7.236   5.756   6.182 -1.4453  0.3274  1.1853
52077SOL    HW265200   7.112   5.709   6.109 -0.9839  0.5769  0.2156
52078SOL     OW65201   2.859   5.743   0.978  0.5061 -0.7016  0.1242
52078SOL    HW165202   2.792   5.757   1.045  0.5609 -1.8214  0.4374
52078SOL    HW265203   2.899   5.829   0.965 -0.7844 -0.0898  0.1443
52079SOL     OW65204   4.199   9.276   6.462  0.2246 -0.4418 -0.0502
52079SOL    HW165205   4.127   9.262   6.400  0.9001 -0.9003 -0.7469
52079SOL    HW265206   4.161   9.331   6.530 -0.0643  1.6555 -1.7848
52080SOL     OW65207   4.440   6.442  12.115 -0.1024 -0.1316  0.1322
52080SOL    HW165208   4.511   6.502  12.095  0.4699 -0.6454  0.5764
52080SOL    HW265209   4.424   6.453  12.209  0.3136 -0.9775  0.3170
52081SOL     OW65210   7.263   6.174   1.720  0.0719 -0.2521  0.8317
52081SOL    HW165211   7.235   6.124   1.643 -1.6461 -0.8588  1.7792
52081SOL    HW265212   7.183   6.218   1.750  0.6308 -0.2131  2.3776
52082SOL     OW65213   7.863   3.375  10.784 -0.1290 -0.4213 -0.0589
52082SOL    HW165214   7.843   3.409  10.697  1.0245  1.7659  0.4631
52082SOL    HW265215   7.798   3.416  10.841  0.7215  0.2621  0.4498
52083SOL     OW65216  11.278   1.469   6.557  0.2580  0.1996  0.2722
52083SOL    HW165217  11.265   1.561   6.537 -0.6329  0.0148 -0.0380
52083SOL    HW265218  11.324   1.434   6.480  0.9510  0.4540  0.5588
52084SOL     OW65219  10.144   6.831   6.441 -0.5082  0.0804  0.2444
52084SOL    HW165220  10.221   6.887   6.441  0.0889 -0.5409 -2.9820
52084SOL    HW265221  10.079   6.879   6.389 -1.9799  0.1417  2.0592
52085SOL     OW65222   6.652  11.535   0.933  0.2005 -0.3185  0.0638
52085SOL    HW165223   6.589  11.468   0.907  1.3779 -1.5149  0.1686
52085SOL    HW265224   6.731  11.486   0.954  1.0364  1.1059  0.3582
52086SOL     OW65225   3.532   2.959   6.575 -0.1278 -0.5091  0.0689
52086SOL    HW165226   3.567   3.018   6.641 -1.3148  0.6915 -0.3457
52086SOL    HW265227   3.593   2.967   6.501  0.2061 -0.4941  0.3417
52087SOL     OW65228  11.431   2.548   1.489  0.3051  0.1286  0.2857
52087SOL    HW165229  11.350   2.577   1.532  0.1254  2.7626 -1.6338
52087SOL    HW265230  11.499   2.566   1.554 -0.3788  0.1143  1.0352
52088SOL     OW65231  10.023   3.400  12.063  0.1536  0.3512  0.2599
52088SOL    HW165232   9.979   3.373  11.981  0.5440 -0.2169  0.2319
52088SOL    HW265233  10.115   3.377  12.049  0.0268 -0.8989  1.3275
52089SOL     OW65234   7.408   2.233   3.849  0.0267 -0.0782 -0.1372
52089SOL    HW165235   7.429   2.313   3.897  0.9238 -0.5694  0.3144
52089SOL    HW265236   7.315   2.243   3.826 -0.2605  0.4605  1.1279
52090SOL     OW65237   2.536   7.996   2.848 -0.0476 -1.0190  0.7775
52090SOL    HW165238   2.470   7.982   2.780  1.0097  0.9970 -0.7611
52090SOL    HW265239   2.564   7.908   2.872 -1.5205 -1.8391 -0.3148
52091SOL     OW65240   2.012  12.230  12.380  0.2288  0.1414  0.1527
52091SOL    HW165241   2.005  12.135  12.368 -0.9339  0.2114  0.1708
52091SOL    HW265242   1.997  12.267  12.293 -0.4320  0.3349  0.3371
52092SOL     OW65243  11.324   1.040   9.893 -0.5123  0.1027  0.5411
52092SOL    HW165244  11.325   1.032   9.797 -0.8319  0.1960  0.5308
52092SOL    HW265245  11.265   0.971   9.923  1.1160 -1.2632  0.8090
52093SOL     OW65246   7.232   1.520   1.871 -0.1557  0.3113 -0.7715
52093SOL    HW165247   7.209   1.431   1.846 -1.0112 -0.0137  1.0481
52093SOL    HW265248   7.148   1.562   1.892  0.4858  0.1708  2.6271
52094SOL     OW65249   2.865   3.062   8.618 -0.3859  0.2423  0.3443
52094SOL    HW165250   2.813   3.054   8.538  1.5789 -0.9915 -0.9121
52094SOL    HW265251   2.809   3.029   8.687 -0.5987 -3.2149 -1.2753
52095SOL     OW65252   9.257   6.976   6.361  0.4141  0.2416  0.4331
52095SOL    HW165253   9.171   6.999   6.396  0.0036  0.0001 -0.3882
52095SOL    HW265254   9.287   6.903   6.415 -0.8522 -1.0927 -0.5739
52096SOL     OW65255  11.232  11.415   9.248 -0.4386 -0.4046 -0.1281
52096SOL    HW165256  11.290  11.486   9.274 -1.1575 -0.3700  1.4778
52096SOL    HW265257  11.188  11.447   9.169  0.8093  0.0393 -0.6612
52097SOL     OW65258   9.722   5.931   7.277  0.1710 -0.2050  0.0154
52097SOL    HW165259   9.669   5.924   7.197  0.5767  0.3140 -0.3029
52097SOL    HW265260   9.696   5.855   7.330  0.3027 -0.8628 -0.8483
52098SOL     OW65261   2.486   1.055   7.061 -0.5091  0.5314  0.4988
52098SOL    HW165262   2.483   1.033   6.968 -0.6325  0.6766  0.4691
52098SOL    HW265263   2.394   1.062   7.087 -0.4809  0.1979  0.6996
52099SOL     OW65264   6.010  10.918   1.627 -0.5391 -0.1390 -0.1886
52099SOL    HW165265   5.980  10.862   1.555 -1.8941 -0.3611  0.5109
52099SOL    HW265266   6.104  10.904   1.631 -0.2064  0.7906 -2.6835
52100SOL     OW65267  11.579   1.490   9.871 -0.1606  0.0221 -0.2303
52100SOL    HW165268  11.599   1.417   9.929  1.0584  0.3730 -0.1721
52100SOL    HW265269  11.484   1.487   9.859  0.0064 -2.6486 -1.6328
52101SOL     OW65270   7.968  10.941   2.145  0.3719 -0.2375 -0.1215
52101SOL    HW165271   8.016  10.929   2.064 -0.5076 -2.9132 -0.3382
52101SOL    HW265272   7.923  11.025   2.134 -0.5194 -0.9587 -2.8677
52102SOL     OW65273   9.357   6.527   2.818 -0.2845  0.4614 -0.1796
52102SOL    HW165274   9.432   6.586   2.813  0.3377 -0.3705 -1.2596
52102SOL    HW265275   9.280   6.584   2.808  0.2442  1.2216  0.0493
52103SOL     OW65276   6.688   1.314   6.902  0.5626 -0.0459 -0.2365
52103SOL    HW165277   6.685   1.392   6.847 -0.3508 -0.0538 -0.2121
52103SOL    HW265278   6.718   1.346   6.987  0.7487  0.1777 -0.3862
52104SOL     OW65279   1.950   2.852   9.615  0.1639 -0.3511 -0.2716
52104SOL    HW165280   2.030   2.803   9.637 -0.4291 -0.3725  2.0837
52104SOL    HW265281   1.976   2.943   9.623 -0.0233 -0.3580  0.4863
52105SOL     OW65282  10.603   5.939   3.197  0.4399  0.1675  0.7745
52105SOL    HW165283  10.588   5.951   3.104  1.7760  1.8317  0.7379
52105SOL    HW265284  10.698   5.945   3.208  0.4047 -1.0215  2.1216
52106SOL     OW65285   9.557   2.153   8.241  0.0615 -0.3520 -0.1519
52106SOL    HW165286   9.629   2.156   8.178  1.1816  2.9092  1.0580
52106SOL    HW265287   9.595   2.113   8.319  0.4849  0.8629  0.2984
52107SOL     OW65288   8.759   1.327   5.322  0.4053 -0.0948 -0.0533
52107SOL    HW165289   8.730   1.238   5.301  3.2248 -1.2795  0.5340
52107SOL    HW265290   8.737   1.378   5.245  1.6396 -2.0896 -1.8328
52108SOL     OW65291   9.896  12.090   0.165  0.1603  0.0277  0.3646
52108SOL    HW165292   9.829  12.051   0.221 -0.4122  0.5796  0.0755
52108SOL    HW265293   9.896  12.036   0.086 -1.6697  1.4344 -0.6599
52109SOL     OW65294   0.891  11.691   7.866 -0.0145  0.0303  0.1050
52109SOL    HW165295   0.877  11.597   7.855  0.2379 -0.0373  0.3494
52109SOL    HW265296   0.961  11.712   7.803 -2.1490  0.6563 -2.2346
52110SOL     OW65297   7.043   9.727   2.711  0.0505 -0.4832  0.2438
52110SOL    HW165298   7.123   9.775   2.689  0.1311 -0.4715  0.5590
52110SOL    HW265299   7.046   9.649   2.656  0.0834 -0.2912 -0.0293
52111SOL     OW65300  12.112   7.143   1.866 -0.0046  0.3399  0.2724
52111SOL    HW165301  12.165   7.131   1.944 -0.4325 -1.9558  0.2800
52111SOL    HW265302  12.138   7.072   1.808 -2.0100  0.0238 -0.3152
52112SOL     OW65303  10.945   5.463   9.716  0.8746 -0.5301 -0.0377
52112SOL    HW165304  10.967   5.381   9.760  1.2967 -0.3732  0.0462
52112SOL    HW265305  10.902   5.516   9.784 -0.3207 -1.0615 -0.3590
52113SOL     OW65306   1.284   1.722   1.170  0.4086  0.0589 -0.3984
52113SOL    HW165307   1.240   1.802   1.140 -0.4304 -0.4010 -0.3938
52113SOL    HW265308   1.250   1.653   1.114  2.5494 -0.0456 -1.7087
52114SOL     OW65309   2.836   1.873   2.558  0.2845  0.0272 -0.1694
52114SOL    HW165310   2.848   1.785   2.521 -1.2974 -0.4379  0.3252
52114SOL    HW265311   2.742   1.891   2.546  0.2294  0.8974  1.3391
52115SOL     OW65312   4.635  11.302   3.913  0.0767  0.4122 -0.0187
52115SOL    HW165313   4.720  11.332   3.880 -1.0366  0.6668 -2.9364
52115SOL    HW265314   4.638  11.207   3.903  0.7676  0.1858  1.9645
52116SOL     OW65315  10.028  12.216   8.065  0.0711  0.2218 -0.1562
52116SOL    HW165316  10.061  12.202   8.154  1.3697  1.5538 -0.3847
52116SOL    HW265317  10.043  12.133   8.021  2.8842  0.6280 -0.1298
52117SOL     OW65318  10.430  10.827   5.326 -0.2715  0.3053 -0.2571
52117SOL    HW165319  10.508  10.816   5.272 -0.1110 -1.9910  0.3300
52117SOL    HW265320  10.460  10.878   5.401  0.1310  1.2341 -1.0179
52118SOL     OW65321   7.716   2.188   3.572 -0.1559  0.3760  0.5392
52118SOL    HW165322   7.692   2.281   3.573  1.0268  0.7886 -2.0541
52118SOL    HW265323   7.645   2.145   3.525 -0.8107 -0.1097  1.9291
52119SOL     OW65324   8.999   1.568   8.676  0.5781 -0.3320 -0.0896
52119SOL    HW165325   8.951   1.647   8.652  2.1633  0.2071 -1.7080
52119SOL    HW265326   8.995   1.512   8.599  0.0676 -1.5569  0.8014
52120SOL     OW65327  11.623   6.110   0.688 -0.0345  0.3402  0.3213
52120SOL    HW165328  11.703   6.152   0.654  0.6969 -0.8192  0.5617
52120SOL    HW265329  11.640   6.016   0.680 -1.9508  0.0343 -0.9356
52121SOL     OW65330   0.571   5.654   4.231 -0.4175  0.1160 -0.1637
52121SOL    HW165331   0.631   5.584   4.206  0.5160  0.9212 -0.2403
52121SOL    HW265332   0.534   5.625   4.314  1.2766  0.2837  0.6996
52122SOL     OW65333   6.493   5.697   6.297 -0.0108 -0.1189 -0.0389
52122SOL    HW165334   6.430   5.730   6.361  0.6130  0.8931  0.0665
52122SOL    HW265335   6.497   5.603   6.314 -1.8140 -0.2885 -0.3377
52123SOL     OW65336  10.895  12.234   6.688 -0.0450  0.1813 -0.1387
52123SOL    HW165337  10.872  12.141   6.690  2.2828 -0.4591  0.3678
52123SOL    HW265338  10.942  12.246   6.606  0.8246  0.5641  0.3942
52124SOL     OW65339   0.286   7.538   2.692 -0.0210 -0.2489  0.8825
52124SOL    HW165340   0.314   7.502   2.608  1.2382 -0.6188  1.4259
52124SOL    HW265341   0.217   7.600   2.671  1.9757  1.5565 -0.7006
52125SOL     OW65342  11.349  11.241   7.584 -0.2497 -0.9051 -0.1174
52125SOL    HW165343  11.381  11.166   7.534  0.4259 -0.5090 -0.2947
52125SOL    HW265344  11.429  11.289   7.608 -0.5492 -1.0405  1.2720
52126SOL     OW65345  10.605   4.829   6.512  0.1582  0.3112  0.0265
52126SOL    HW165346  10.646   4.820   6.598  2.8326 -1.4395 -1.3012
52126SOL    HW265347  10.519   4.789   6.523  0.6154 -0.2927  1.7763
52127SOL     OW65348   7.563   1.786   4.320  0.1923  0.0947  0.1857
52127SOL    HW165349   7.524   1.829   4.244  1.3157  1.7724  0.4858
52127SOL    HW265350   7.653   1.765   4.292 -0.2833 -2.0228  0.0978
52128SOL     OW65351   4.675   5.538   2.615 -0.0564  0.1394  0.3086
52128SOL    HW165352   4.629   5.455   2.628 -1.5605  1.0740  1.3476
52128SOL    HW265353   4.681   5.547   2.520  0.2692 -1.2117  0.1737
52129SOL     OW65354   3.441   6.956   2.441 -0.4294  0.1585  0.0251
52129SOL    HW165355   3.370   6.893   2.442 -1.7671  1.6079  0.5506
52129SOL    HW265356   3.399   7.041   2.455  1.2452  1.2449 -1.0726
52130SOL     OW65357   9.461   5.753  11.225  0.7053 -0.1495 -0.1753
52130SOL    HW165358   9.438   5.819  11.290  2.4826  2.1514 -1.7516
52130SOL    HW265359   9.454   5.797  11.141  1.0323 -2.2713 -1.4005
52131SOL     OW65360   8.307   1.569   2.439 -0.3426 -0.1186 -0.0046
52131SOL    HW165361   8.298   1.551   2.346 -0.0738 -1.6505  0.2460
52131SOL    HW265362   8.218   1.590   2.468 -0.5692 -0.4799 -0.4378
52132SOL     OW65363   9.409   7.137   8.320  0.1179  0.0808 -0.2737
52132SOL    HW165364   9.353   7.208   8.352  0.4587  0.5556 -0.6963
52132SOL    HW265365   9.355   7.059   8.326  0.4587 -0.0273  2.2715
52133SOL     OW65366   1.102  10.709   1.246  0.2756  0.8264 -0.2806
52133SOL    HW165367   1.040  10.778   1.270 -1.0712 -1.0997  2.3391
52133SOL    HW265368   1.062  10.665   1.171 -0.4216  0.9980 -0.0117
52134SOL     OW65369   2.575   4.128   6.288 -0.2903 -0.1275  0.0730
52134SOL    HW165370   2.559   4.208   6.238 -0.4723 -0.2011  0.0121
52134SOL    HW265371   2.497   4.119   6.343  0.4044  0.5764  1.2050
52135SOL     OW65372  11.337   1.816   5.363 -0.1192 -0.5893 -1.1534
52135SOL    HW165373  11.392   1.739   5.353  2.0814  0.9059 -1.3662
52135SOL    HW265374  11.271   1.791   5.428  0.9835 -2.3852 -0.6744
52136SOL     OW65375   7.802   4.546   3.108  0.0012  0.2307 -0.1923
52136SOL    HW165376   7.710   4.538   3.085 -0.3635 -0.3997  1.3651
52136SOL    HW265377   7.836   4.457   3.101  0.0766  0.1658  0.8219
52137SOL     OW65378   8.559   8.617   6.343  0.5694 -0.0066 -0.3092
52137SOL    HW165379   8.549   8.630   6.437  1.1577  0.7377 -0.3346
52137SOL    HW265380   8.478   8.650   6.305  0.6291  0.3761 -0.1077
52138SOL     OW65381   8.003   0.570   9.152  0.2724 -0.0099  0.0886
52138SOL    HW165382   7.973   0.594   9.064 -1.2280  1.5812  0.9492
52138SOL    HW265383   8.085   0.617   9.163 -0.2976  1.0422  0.0378
52139SOL     OW65384   8.415   7.767   7.479 -0.4515 -0.3754  0.8534
52139SOL    HW165385   8.503   7.739   7.503 -1.0865 -2.1622  1.3019
52139SOL    HW265386   8.427   7.845   7.425  1.4268 -0.9722  0.3620
52140SOL     OW65387   6.602  10.913   8.666 -0.2051  0.1886  0.3253
52140SOL    HW165388   6.645  10.996   8.689  0.5033  0.1396 -0.7826
52140SOL    HW265389   6.670  10.847   8.678 -0.8286 -0.2757  1.4068
52141SOL     OW65390   9.035   9.207  11.435  0.0049 -0.2635 -0.0620
52141SOL    HW165391   8.968   9.239  11.495 -0.6708  0.3311 -1.0933
52141SOL    HW265392   9.104   9.273  11.439  0.6017 -0.9268  1.0759
52142SOL     OW65393   1.657  10.573   8.257 -0.3592 -0.1923 -1.5548
52142SOL    HW165394   1.620  10.533   8.179 -0.2352 -1.1981 -1.1155
52142SOL    HW265395   1.619  10.522   8.330 -0.6737  0.8844 -0.9460
52143SOL     OW65396  10.710   1.479   6.620 -0.1027 -0.1872 -0.0492
52143SOL    HW165397  10.619   1.508   6.622  0.1394  0.7945  3.4215
52143SOL    HW265398  10.761   1.559   6.634  1.1861 -1.0290  0.2625
52144SOL     OW65399  10.437   7.855   5.411  0.2775  0.3994 -0.2693
52144SOL    HW165400  10.375   7.821   5.346  0.3861  0.3819 -0.3635
52144SOL    HW265401  10.487   7.779   5.439  0.3575  0.4398 -0.3026
52145SOL     OW65402   4.427  10.444  11.934  0.3346  0.7335 -0.3437
52145SOL    HW165403   4.438  10.398  12.017 -0.5828  0.5602 -0.3167
52145SOL    HW265404   4.400  10.377  11.872  0.0373  1.0398 -0.5499
52146SOL     OW65405   6.873   6.863   3.890 -0.4073 -0.6634 -0.0019
52146SOL    HW165406   6.797   6.858   3.948 -0.8948 -0.4677 -0.6201
52146SOL    HW265407   6.933   6.922   3.935 -0.7753 -0.5250  0.3143
52147SOL     OW65408   0.403   8.629   2.045  0.0549  0.1401 -0.4348
52147SOL    HW165409   0.467   8.682   1.998  0.7162 -0.7745 -0.6054
52147SOL    HW265410   0.389   8.553   1.989 -0.9083  0.1488 -0.2215
52148SOL     OW65411   4.097  10.150   7.274  0.8473  0.5988 -0.0440
52148SOL    HW165412   4.081  10.203   7.196  0.1986 -0.8416 -0.9265
52148SOL    HW265413   4.108  10.061   7.241  0.1184 -0.1219  1.5339
52149SOL     OW65414   7.268  12.525   6.295 -0.2794 -0.0464  0.2171
52149SOL    HW165415   7.355  12.488   6.281 -0.0217  0.8801 -0.7379
52149SOL    HW265416   7.223  12.514   6.210 -1.0347 -0.3548  0.6439
52150SOL     OW65417  10.643   6.344   8.718  0.1717  0.2695 -0.1867
52150SOL    HW165418  10.589   6.284   8.769  0.1204  0.2433 -0.2715
52150SOL    HW265419  10.660   6.417   8.777  3.4867 -1.5217  1.3577
52151SOL     OW65420   9.190   3.407   7.194 -0.0738  0.4342 -0.2167
52151SOL    HW165421   9.134   3.476   7.229  1.2319  0.7856  1.3051
52151SOL    HW265422   9.279   3.443   7.201  0.6088 -1.2656  0.3698
52152SOL     OW65423   7.086   4.371  10.508 -0.6515 -0.2945  0.7928
52152SOL    HW165424   7.120   4.451  10.549 -1.3213 -0.4439  1.6818
52152SOL    HW265425   7.033   4.402  10.435 -3.4350  0.3388  2.8997
52153SOL     OW65426   2.133   1.169  10.600 -0.1546 -0.1313 -0.4021
52153SOL    HW165427   2.039   1.155  10.600 -0.0641 -1.5476  2.5198
52153SOL    HW265428   2.152   1.201  10.689  2.3664 -2.5297  0.0565
52154SOL     OW65429   1.479   3.890   0.216 -0.0962 -0.3984  0.2886
52154SOL    HW165430   1.398   3.941   0.218  1.1335  1.6715  1.0123
52154SOL    HW265431   1.473   3.838   0.136 -1.9727 -0.0251  0.1480
52155SOL     OW65432   2.135   6.858   0.038 -0.3349  0.0913 -0.1434
52155SOL    HW165433   2.060   6.903   0.000 -0.1079  0.5903 -0.0023
52155SOL    HW265434   2.155   6.907   0.118 -0.3102 -0.4747  0.2055
52156SOL     OW65435   4.291   6.277   1.967 -0.7058 -0.7364  0.3574
52156SOL    HW165436   4.241   6.253   2.046 -1.2504 -0.6043  0.0589
52156SOL    HW265437   4.274   6.206   1.906  2.3639 -2.5862  1.4409
52157SOL     OW65438   6.511  11.832   3.361  0.6355 -0.1005 -0.1466
52157SOL    HW165439   6.504  11.927   3.359 -0.8649 -0.1321  1.3474
52157SOL    HW265440   6.471  11.803   3.279  0.7337  0.5357 -0.4251
52158SOL     OW65441   6.134   3.114   6.067 -0.1637  0.3657  0.6116
52158SOL    HW165442   6.229   3.123   6.065 -0.1613  0.4266  0.9324
52158SOL    HW265443   6.119   3.022   6.089 -0.1867 -0.5026 -2.5133
52159SOL     OW65444   6.148   1.349   4.101  0.2994 -0.3301  0.0804
52159SOL    HW165445   6.190   1.398   4.172 -2.2367  0.0337  1.4260
52159SOL    HW265446   6.181   1.391   4.021 -0.4137  2.5044  1.1389
52160SOL     OW65447   7.208   8.270  12.348 -0.5848 -0.4085 -0.1782
52160SOL    HW165448   7.223   8.252  12.255 -1.3434 -0.6494 -0.2626
52160SOL    HW265449   7.168   8.190  12.382 -1.8169  0.2490 -0.0213
52161SOL     OW65450  10.821   9.763   9.317  0.1334  0.8089 -0.4694
52161SOL    HW165451  10.787   9.852   9.325  0.5221  0.8098  2.4455
52161SOL    HW265452  10.789   9.718   9.396  0.8102 -1.3341 -1.3330
52162SOL     OW65453  12.593   1.996   6.499  0.1219  0.4459 -0.4561
52162SOL    HW165454  12.528   2.053   6.540 -1.0355 -0.9941 -0.1605
52162SOL    HW265455  12.677   2.031   6.526 -0.5758  0.5830  1.7455
52163SOL     OW65456   8.852   1.316   2.503  0.6322  0.4822  0.0246
52163SOL    HW165457   8.915   1.249   2.530  0.0618  0.1055  0.4403
52163SOL    HW265458   8.887   1.398   2.537  1.1889  0.3584 -0.2426
52164SOL     OW65459   8.314   6.082   8.679  0.8863  0.0461  0.0679
52164SOL    HW165460   8.325   6.081   8.775  1.2481 -1.5596  0.0449
52164SOL    HW265461   8.298   6.174   8.658  1.5803  0.5662  1.5914
52165SOL     OW65462   8.749   0.314  10.150  0.2211 -0.1222  0.7494
52165SOL    HW165463   8.667   0.351  10.119  0.0121  0.2811  1.7369
52165SOL    HW265464   8.767   0.361  10.232  1.9421  0.5185  0.0684
52166SOL     OW65465   6.254   0.082   1.376 -0.4879 -0.2208 -0.2680
52166SOL    HW165466   6.197   0.071   1.300 -1.9481 -0.1677  0.7631
52166SOL    HW265467   6.335   0.038   1.352 -1.1033 -0.6696 -1.6450
52167SOL     OW65468  11.822   1.619   8.846  0.0898  0.1949 -0.2308
52167SOL    HW165469  11.836   1.711   8.870 -0.0509  0.0558  0.3976
52167SOL    HW265470  11.854   1.569   8.920  0.2332 -0.2736 -0.6019
52168SOL     OW65471   6.093   6.597  10.986 -0.9844 -0.3228  0.0501
52168SOL    HW165472   6.116   6.505  10.997 -0.3374 -0.1373  0.3286
52168SOL    HW265473   6.035   6.599  10.910 -1.8917 -1.0925  0.6853
52169SOL     OW65474  10.507   5.544   9.524 -0.0161  0.4014 -0.7498
52169SOL    HW165475  10.576   5.610   9.530 -0.4923  0.9631 -1.2911
52169SOL    HW265476  10.536   5.473   9.581 -0.3560  1.8511  1.3404
52170SOL     OW65477   2.451  10.667   3.480  0.4793 -0.1151  0.2166
52170SOL    HW165478   2.363  10.631   3.466  0.4378 -0.8573  2.0608
52170SOL    HW265479   2.465  10.726   3.406 -2.1862  1.2105  0.6277
52171SOL     OW65480   9.932   7.415   3.020 -0.3527 -0.5547  0.1637
52171SOL    HW165481  10.023   7.390   3.031 -0.7687 -1.9140  0.7897
52171SOL    HW265482   9.906   7.452   3.104 -0.2922  0.1448 -0.1211
52172SOL     OW65483   9.666   4.806   4.286  0.6473 -0.3342  0.0130
52172SOL    HW165484   9.744   4.776   4.239 -0.3633 -0.1745 -1.8772
52172SOL    HW265485   9.669   4.901   4.279  0.1797 -0.3372 -0.2768
52173SOL     OW65486  12.263   9.484   6.845 -0.6254 -0.2523  0.1457
52173SOL    HW165487  12.329   9.422   6.815 -0.0946 -0.4600  1.6222
52173SOL    HW265488  12.234   9.529   6.766  3.3284  1.8447 -0.3874
52174SOL     OW65489   3.556   0.622   7.493 -0.8790  0.3791 -0.0086
52174SOL    HW165490   3.526   0.687   7.428 -1.6723  1.5614  1.4712
52174SOL    HW265491   3.485   0.558   7.497 -0.4631 -0.1626 -0.8660
52175SOL     OW65492   1.062   0.876   2.797 -0.1166 -1.0057  0.1034
52175SOL    HW165493   1.062   0.781   2.784  0.2467 -1.1903  1.3857
52175SOL    HW265494   1.154   0.900   2.795 -0.1786 -0.7558  0.3505
52176SOL     OW65495   0.212   6.969  12.002 -0.1171  0.2064 -0.0686
52176SOL    HW165496   0.158   6.997  11.928 -2.0947  0.0071  1.2464
52176SOL    HW265497   0.202   7.038  12.067  1.0463  0.0444  0.3034
52177SOL     OW65498   2.960   2.921   1.587  0.4281 -0.8347  0.2401
52177SOL    HW165499   2.884   2.947   1.638  1.0771  0.1589  0.7250
52177SOL    HW265500   3.035   2.947   1.640  1.1656  1.6080 -1.8029
52178SOL     OW65501   8.914   4.549  10.791 -0.1714 -0.0260  0.1244
52178SOL    HW165502   8.860   4.473  10.811  0.0115  0.2803  1.9567
52178SOL    HW265503   8.888   4.615  10.856  1.6527  0.4848  0.3964
52179SOL     OW65504  10.566   8.327   7.860  0.1860  0.1630 -0.0441
52179SOL    HW165505  10.477   8.293   7.859  0.3752 -0.4644 -2.2825
52179SOL    HW265506  10.603   8.299   7.776  2.5794  0.2024  0.9154
52180SOL     OW65507   2.718  11.499   8.016  0.5818 -0.2175  0.1576
52180SOL    HW165508   2.655  11.569   7.999  0.9102 -0.1581 -0.8949
52180SOL    HW265509   2.759  11.523   8.099  0.8806  0.9953 -0.3218
52181SOL     OW65510   2.108   6.231   0.326 -0.2038 -0.4110 -0.1173
52181SOL    HW165511   2.086   6.252   0.236 -0.4691 -1.4218 -0.3036
52181SOL    HW265512   2.045   6.281   0.379  1.4392  2.0403 -0.3624
52182SOL     OW65513   7.458   4.721   5.706  0.1557 -0.5717 -0.1532
52182SOL    HW165514   7.543   4.763   5.694 -0.6713  1.7241  1.3866
52182SOL    HW265515   7.452   4.705   5.800 -0.9451 -1.0732 -0.2889
52183SOL     OW65516   1.681   4.538  12.268 -0.8222 -0.1875 -0.1454
52183SOL    HW165517   1.608   4.530  12.329 -2.2751 -0.3520 -1.8020
52183SOL    HW265518   1.641   4.528  12.181  1.4225 -2.1310 -1.0809
52184SOL     OW65519   6.999  11.141  11.642  0.6848 -0.5559 -0.1080
52184SOL    HW165520   7.072  11.098  11.687  0.3555 -1.5784 -0.5107
52184SOL    HW265521   6.959  11.197  11.708  0.9479 -1.1052  0.5216
52185SOL     OW65522   8.949   2.922   0.083  0.2354 -0.3171 -0.2744
52185SOL    HW165523   8.902   2.897   0.003  1.6669 -3.4560 -0.3056
52185SOL    HW265524   8.906   2.872   0.153  0.3210  0.7907  0.6095
52186SOL     OW65525   1.326   9.782   9.676  0.4473 -0.4568  0.3432
52186SOL    HW165526   1.379   9.852   9.714 -1.0845  1.7776 -1.3564
52186SOL    HW265527   1.381   9.747   9.606  0.9162 -0.3742  0.6671
52187SOL     OW65528   4.220  11.047   8.517  0.2122  0.1418  0.1592
52187SOL    HW165529   4.252  11.101   8.589  0.3219 -1.4013  1.3054
52187SOL    HW265530   4.175  11.109   8.460 -0.1446  1.3833  1.7047
52188SOL     OW65531   4.042  11.149   7.626 -0.1420  0.7201  0.2620
52188SOL    HW165532   4.111  11.085   7.608  1.0886  1.7183  1.2692
52188SOL    HW265533   3.973  11.128   7.563  1.8627  0.8980 -2.1541
52189SOL     OW65534   6.419   3.137   4.152 -0.1976 -0.2397  0.7517
52189SOL    HW165535   6.336   3.129   4.105 -0.1539  0.0504  0.6241
52189SOL    HW265536   6.422   3.060   4.208 -0.3956 -0.4282  0.5076
52190SOL     OW65537   3.233   6.474   0.376  0.1579  0.0271 -0.4064
52190SOL    HW165538   3.314   6.514   0.408  0.1802 -0.9779  0.8784
52190SOL    HW265539   3.229   6.500   0.284  0.4282  2.5199  0.2098
52191SOL     OW65540   7.461   0.481   5.764  0.1574  0.0804  0.2437
52191SOL    HW165541   7.534   0.437   5.722 -0.1855 -0.6755  0.4222
52191SOL    HW265542   7.421   0.414   5.820  1.9211  1.5491  3.5347
52192SOL     OW65543   3.755   6.051   3.567  0.5373 -0.0060  0.1183
52192SOL    HW165544   3.778   5.990   3.497  1.3238 -0.5787  0.8515
52192SOL    HW265545   3.809   6.129   3.549  0.5020 -0.0279 -0.0864
52193SOL     OW65546   7.079   3.982  12.359  0.1869 -0.0246  0.4016
52193SOL    HW165547   7.006   3.923  12.342 -0.5021  1.2731 -1.6769
52193SOL    HW265548   7.062   4.018  12.446 -1.7024  0.2596 -0.0410
52194SOL     OW65549   1.658  10.227  10.291 -0.7078  0.2880 -0.2390
52194SOL    HW165550   1.608  10.309  10.289 -2.9483 -0.9941 -1.1909
52194SOL    HW265551   1.602  10.164  10.244  0.6768 -1.9196  0.9107
52195SOL     OW65552   4.587   2.039   1.756  0.0443  0.0334  0.2945
52195SOL    HW165553   4.533   1.961   1.743 -1.5371  1.2777 -1.0327
52195SOL    HW265554   4.638   2.019   1.834 -0.1431 -2.4017 -0.1199
52196SOL     OW65555   2.599   3.495   9.424  0.0228 -0.4654 -0.5416
52196SOL    HW165556   2.669   3.490   9.489  1.5625  0.3653 -2.0610
52196SOL    HW265557   2.533   3.552   9.465  0.1130 -1.3910  0.9778
52197SOL     OW65558   6.430   2.661   6.359  0.7496 -0.2280  0.4502
52197SOL    HW165559   6.399   2.738   6.407 -1.6547 -0.3735 -0.7331
52197SOL    HW265560   6.389   2.587   6.403 -1.3375 -0.3799 -1.5632
52198SOL     OW65561   3.076   9.773   8.608  0.4914  0.5027  0.1863
52198SOL    HW165562   2.991   9.750   8.647  0.6928  0.9096  0.8872
52198SOL    HW265563   3.139   9.761   8.679  0.8762  1.1886 -0.0312
52199SOL     OW65564   4.013   3.437   3.457  0.0272  0.1836  0.1003
52199SOL    HW165565   4.083   3.448   3.522  2.0765  0.5725 -2.0647
52199SOL    HW265566   4.028   3.507   3.394 -2.0418 -0.0583 -0.7154
52200SOL     OW65567  10.226  10.656   3.315 -0.5283 -0.1893  0.1361
52200SOL    HW165568  10.268  10.655   3.401  0.6455  0.7904 -0.3898
52200SOL    HW265569  10.258  10.577   3.272 -1.7471 -1.1099  0.8546
52201SOL     OW65570   0.867   4.882   0.959  0.2565  0.1222  0.5068
52201SOL    HW165571   0.820   4.828   0.895 -0.1955  0.8529  0.2187
52201SOL    HW265572   0.957   4.885   0.926  0.0378  0.4466 -0.0699
52202SOL     OW65573   8.188   3.370   8.138  0.0129  0.4746 -0.8687
52202SOL    HW165574   8.172   3.290   8.187  0.5328 -0.0350 -1.5065
52202SOL    HW265575   8.257   3.416   8.186  2.2327 -1.1561 -2.3170
52203SOL     OW65576  12.573   7.354   4.153 -0.0087 -0.4209 -0.4670
52203SOL    HW165577  12.487   7.375   4.116 -1.0231  1.3241  2.5297
52203SOL    HW265578  12.625   7.433   4.140 -0.0454 -0.1718  0.7630
52204SOL     OW65579   3.705   9.815   9.884 -0.0655 -0.1113  0.1718
52204SOL    HW165580   3.661   9.822   9.969  0.2625  0.8502  0.2805
52204SOL    HW265581   3.683   9.897   9.840 -0.0619 -0.5144 -0.5919
52205SOL     OW65582   4.427  12.590   2.415  0.2259  0.5103 -0.5137
52205SOL    HW165583   4.470  12.664   2.373 -0.4112  0.6217 -0.9995
52205SOL    HW265584   4.469  12.582   2.500 -1.1661  2.8512  0.4843
52206SOL     OW65585   8.108   4.656   8.659  0.2153  0.2331  0.5008
52206SOL    HW165586   8.190   4.652   8.609  0.3900 -0.8196  0.8524
52206SOL    HW265587   8.048   4.706   8.603  1.8326  3.3531  1.3304
52207SOL     OW65588   8.791   0.377   8.732  0.4462  0.2922  0.7756
52207SOL    HW165589   8.716   0.328   8.765 -1.1477  2.2415  0.2561
52207SOL    HW265590   8.797   0.352   8.639  0.5319  0.0384  0.8486
52208SOL     OW65591   2.545   5.737   9.521  0.2066  0.0547 -0.0983
52208SOL    HW165592   2.500   5.784   9.591 -0.2147 -1.1399  0.4623
52208SOL    HW265593   2.535   5.793   9.444 -0.6736  0.6535  0.4372
52209SOL     OW65594   8.152   6.058   9.199 -0.1448  0.4229  0.4310
52209SOL    HW165595   8.187   6.061   9.288 -0.4046 -0.9406  0.5955
52209SOL    HW265596   8.151   6.150   9.171 -2.9845  1.3404  2.9928
52210SOL     OW65597   9.149  12.315  10.982 -0.0899  0.1817  0.2822
52210SOL    HW165598   9.092  12.293  10.908  1.4736  1.3493 -1.3627
52210SOL    HW265599   9.092  12.362  11.043 -1.7024 -1.8449  0.4581
52211SOL     OW65600   3.037   0.454   9.788 -0.5441 -0.1577  0.2198
52211SOL    HW165601   3.016   0.440   9.880  0.1053  1.3274  0.6159
52211SOL    HW265602   2.973   0.400   9.741 -3.1416  1.6599  1.4500
52212SOL     OW65603   1.295  10.303   1.231 -0.1346  0.0905  0.3881
52212SOL    HW165604   1.381  10.286   1.191 -0.2201 -0.3143  0.3774
52212SOL    HW265605   1.234  10.251   1.179 -0.6177  1.5897 -0.6148
52213SOL     OW65606  10.821  10.195   6.136  0.4723  0.0417  0.3434
52213SOL    HW165607  10.749  10.245   6.175  0.9870  1.0756 -0.0019
52213SOL    HW265608  10.899  10.246   6.157  1.0320 -0.7317  0.1448
52214SOL     OW65609   9.383   7.315   8.796 -0.0483 -0.6018 -0.0069
52214SOL    HW165610   9.432   7.261   8.734  0.8608  0.1648  0.0160
52214SOL    HW265611   9.299   7.331   8.753 -0.0809 -1.4919 -0.2854
52215SOL     OW65612   1.973   2.540   3.286  0.1487 -0.0802 -0.0669
52215SOL    HW165613   2.049   2.531   3.228 -0.5003 -0.9030 -0.8336
52215SOL    HW265614   1.934   2.624   3.262  0.7460  0.3019  0.2653
52216SOL     OW65615  11.331   0.284   9.003  0.0831 -0.2138 -0.3809
52216SOL    HW165616  11.248   0.247   9.031 -0.2071  1.2461  0.7914
52216SOL    HW265617  11.397   0.243   9.059 -0.0060 -0.3722 -0.3939
52217SOL     OW65618   9.548   3.068   9.834  0.3180 -0.4661 -0.4384
52217SOL    HW165619   9.504   3.063   9.749  0.7088 -0.0608 -0.6674
52217SOL    HW265620   9.527   2.984   9.877  0.3009 -0.7650 -1.0208
52218SOL     OW65621  10.877   6.222   0.147  0.0599 -0.7741  0.0061
52218SOL    HW165622  10.830   6.174   0.215 -1.1433 -2.2461 -1.7495
52218SOL    HW265623  10.934   6.157   0.106 -1.3620 -0.7354 -2.2181
52219SOL     OW65624   3.481   2.743   1.605  0.1509  0.0235 -0.1662
52219SOL    HW165625   3.456   2.654   1.629  2.0669 -0.2714  0.8842
52219SOL    HW265626   3.398   2.792   1.605 -0.6242 -1.1962  1.6711
52220SOL     OW65627   7.467   2.219   4.133 -0.7733 -0.7486  0.6481
52220SOL    HW165628   7.484   2.312   4.150  0.2640 -0.5293 -1.3402
52220SOL    HW265629   7.459   2.212   4.038 -0.8210 -2.7158  0.7463
52221SOL     OW65630  12.416  11.152  12.065 -0.1162  0.1251  0.2222
52221SOL    HW165631  12.444  11.177  11.977 -1.3263  0.6001 -0.0572
52221SOL    HW265632  12.372  11.231  12.099  0.6301  0.0558  1.3859
52222SOL     OW65633   1.642   5.667   1.247 -0.2699 -0.9299 -0.5003
52222SOL    HW165634   1.645   5.612   1.325  1.0535 -2.0451 -1.3082
52222SOL    HW265635   1.599   5.748   1.277  0.1971 -1.3205  1.3724
52223SOL     OW65636  10.307   7.642   2.999 -0.0257  0.4424  0.2787
52223SOL    HW165637  10.242   7.610   2.937 -0.2383 -0.1362  0.7824
52223SOL    HW265638  10.260   7.647   3.082  0.4586  0.4202  0.5622
52224SOL     OW65639   6.795   8.074   0.485 -0.2375 -0.5410 -0.2720
52224SOL    HW165640   6.799   8.101   0.577 -2.1262 -1.0321 -0.0067
52224SOL    HW265641   6.749   7.990   0.486 -0.1134 -0.6487 -1.6453
52225SOL     OW65642   6.571   3.968  12.264  0.3285 -0.1117 -0.2941
52225SOL    HW165643   6.512   3.900  12.297  0.0219  0.8170  1.1343
52225SOL    HW265644   6.533   3.994  12.180  0.5468 -1.7983 -0.9471
52226SOL     OW65645  10.093   9.339   1.895  0.6808  0.4192  0.1896
52226SOL    HW165646  10.067   9.274   1.960 -0.2646 -1.8665 -2.3010
52226SOL    HW265647  10.178   9.309   1.863  0.1420  0.2500 -1.1316
52227SOL     OW65648   7.451   4.607  10.573 -0.0121  0.1125 -0.1676
52227SOL    HW165649   7.440   4.530  10.629  0.3340  0.0952 -0.1257
52227SOL    HW265650   7.543   4.631  10.582 -0.3764  1.2499  0.7533
52228SOL     OW65651  12.273   3.871  11.085  0.2701 -0.0600 -0.0682
52228SOL    HW165652  12.332   3.944  11.065 -0.6759  0.1935 -2.2991
52228SOL    HW265653  12.309   3.797  11.036  0.0127 -0.5246  0.4337
52229SOL     OW65654   1.168   5.195   6.544  0.3692  0.3180 -0.9466
52229SOL    HW165655   1.218   5.183   6.463  0.6069 -1.0349 -0.6195
52229SOL    HW265656   1.099   5.257   6.520  1.1178  0.8138 -1.8806
52230SOL     OW65657   3.462   2.336   1.547 -0.0396 -0.1061  0.7587
52230SOL    HW165658   3.484   2.332   1.454  0.4828 -0.3833  0.8899
52230SOL    HW265659   3.397   2.406   1.553  0.4835  0.4309  0.2872
52231SOL     OW65660   1.590  10.805   3.240  0.1262  0.2485  0.1256
52231SOL    HW165661   1.527  10.868   3.205  0.4436  0.3707 -0.2326
52231SOL    HW265662   1.578  10.809   3.335 -1.4460 -0.8035  0.0139
52232SOL     OW65663   0.610   3.084   3.131 -0.4735  0.5044  0.3298
52232SOL    HW165664   0.563   3.167   3.137 -2.0574 -0.2916 -0.5235
52232SOL    HW265665   0.666   3.093   3.054 -0.3972  0.8869  0.4287
52233SOL     OW65666  12.073   5.558   2.462 -0.3592  0.3616  0.1569
52233SOL    HW165667  12.064   5.613   2.384  0.2530 -0.8881 -0.8349
52233SOL    HW265668  11.983   5.541   2.489 -0.5967  0.4751 -0.5262
52234SOL     OW65669   4.951  12.453  12.428 -0.3962 -0.0579 -0.0273
52234SOL    HW165670   4.913  12.477  12.343  1.8805 -0.9636 -1.3952
52234SOL    HW265671   4.923  12.363  12.442  1.5489 -0.8999 -1.2844
52235SOL     OW65672   8.443   7.114   5.487  0.6360 -0.3832 -0.4382
52235SOL    HW165673   8.473   7.046   5.427  1.0707  0.0073 -0.6629
52235SOL    HW265674   8.354   7.087   5.509  0.5145 -0.5985 -1.1527
52236SOL     OW65675   9.089   4.190  11.324 -0.0768  0.0647  0.4595
52236SOL    HW165676   9.156   4.211  11.258 -0.9238 -1.1022 -0.8391
52236SOL    HW265677   9.139   4.166  11.402  0.9777  0.6776  0.0091
52237SOL     OW65678   5.530  12.248   2.072  0.2247 -0.1413 -0.7577
52237SOL    HW165679   5.625  12.236   2.073  0.6262  2.2811  1.2727
52237SOL    HW265680   5.498  12.185   2.008  3.1967 -0.9981 -1.5409
52238SOL     OW65681   1.548   6.036   9.837  0.1220  0.1239 -0.2196
52238SOL    HW165682   1.597   5.972   9.785  0.4373  0.7061 -0.6539
52238SOL    HW265683   1.566   6.120   9.795 -0.4992  0.4673  0.1877
52239SOL     OW65684   6.299   9.101  11.501 -0.0670  0.1241 -0.1823
52239SOL    HW165685   6.349   9.046  11.561  0.1784 -0.0332 -0.5278
52239SOL    HW265686   6.333   9.189  11.516 -0.7004  0.2414  0.6180
52240SOL     OW65687   8.703   7.418   1.359 -0.0154  0.5307  0.0334
52240SOL    HW165688   8.658   7.386   1.281  0.2066 -0.2584  0.2230
52240SOL    HW265689   8.793   7.390   1.348 -0.2594 -0.8508  1.2247
52241SOL     OW65690   4.769  12.251   6.613  0.4165 -0.5281 -0.2516
52241SOL    HW165691   4.758  12.343   6.589 -0.0619  0.0101  1.7947
52241SOL    HW265692   4.710  12.204   6.554 -1.1955  0.7633  0.2472
52242SOL     OW65693   4.513   6.217   9.846  0.3739  0.1634 -0.3331
52242SOL    HW165694   4.442   6.153   9.843 -1.2598  1.7842  0.7241
52242SOL    HW265695   4.542   6.217   9.938 -1.4968  2.6528  0.3955
52243SOL     OW65696   9.202   7.649   8.228 -0.1928 -0.5325 -0.2726
52243SOL    HW165697   9.275   7.602   8.188 -0.8818 -3.4538  1.5730
52243SOL    HW265698   9.167   7.704   8.158  3.2003  0.4226 -1.4436
52244SOL     OW65699   5.381  11.734   1.920  0.0588  0.3270  0.0229
52244SOL    HW165700   5.428  11.664   1.875  0.4312  0.0824  0.7693
52244SOL    HW265701   5.421  11.738   2.007 -0.5866  0.8400  0.3094
52245SOL     OW65702   5.151   5.909   6.736  0.6985  0.6925 -0.3177
52245SOL    HW165703   5.133   5.939   6.647 -2.1805  0.1131 -0.0206
52245SOL    HW265704   5.099   5.966   6.792  1.3694  0.1577  0.8926
52246SOL     OW65705   4.836   8.670   9.353 -0.4505 -0.3587  0.0905
52246SOL    HW165706   4.745   8.652   9.329 -0.5816  0.2425  0.1108
52246SOL    HW265707   4.836   8.672   9.449 -0.8642  1.6689  0.1073
52247SOL     OW65708   3.372   2.944   1.335 -0.1797 -0.1199  0.0178
52247SOL    HW165709   3.393   3.008   1.266 -0.9670  1.7477  1.4271
52247SOL    HW265710   3.411   2.862   1.303  0.2170  0.8474 -2.2346
52248SOL     OW65711   0.453   2.372   5.582 -0.3270 -0.3651  0.4059
52248SOL    HW165712   0.522   2.354   5.646 -1.8554 -1.4271  1.8593
52248SOL    HW265713   0.388   2.423   5.631 -0.6711  0.4565 -0.8645
52249SOL     OW65714  10.271  11.480   2.899 -0.7872  0.0680  0.0819
52249SOL    HW165715  10.312  11.394   2.905 -0.5380  0.0570 -1.4482
52249SOL    HW265716  10.178  11.463   2.915 -0.5917 -0.2936  0.9182
52250SOL     OW65717   2.926   2.411  11.327 -0.3791  0.4052 -0.3548
52250SOL    HW165718   2.935   2.499  11.364  0.0284  0.3926 -0.4268
52250SOL    HW265719   2.937   2.423  11.232 -0.3251  0.2751 -0.3657
52251SOL     OW65720   7.103   3.962   3.555 -0.2809 -0.2781  0.1091
52251SOL    HW165721   7.125   4.055   3.547  0.2014 -0.1508  2.3101
52251SOL    HW265722   7.008   3.958   3.544 -0.1969  0.3370 -0.8988
52252SOL     OW65723   0.009  11.230   9.698 -0.3273  0.0855 -0.1928
52252SOL    HW165724   0.008  11.301   9.763  1.3855 -0.0551  0.0273
52252SOL    HW265725   0.101  11.212   9.683 -0.7219 -1.7807 -0.6305
52253SOL     OW65726   0.066  10.102   6.206  0.4464  0.2638  0.4226
52253SOL    HW165727   0.036  10.037   6.143  2.2442  0.4344 -0.6986
52253SOL    HW265728   0.107  10.051   6.276 -0.8325  0.1067  1.0796
52254SOL     OW65729  12.250  11.744   4.511  0.1847  0.5987  0.1425
52254SOL    HW165730  12.228  11.703   4.594 -1.1407  1.2271  0.1240
52254SOL    HW265731  12.263  11.836   4.532 -1.1952  0.9640 -0.4730
52255SOL     OW65732   5.773   6.744   9.753 -0.4524 -0.6144  0.5535
52255SOL    HW165733   5.678   6.752   9.753 -0.4811 -0.7853 -0.5280
52255SOL    HW265734   5.802   6.801   9.823 -1.3482 -0.4494  0.7989
52256SOL     OW65735   0.319  10.112  10.779 -0.1459  0.3372  0.2716
52256SOL    HW165736   0.316  10.189  10.836  0.0401  0.6376 -0.1185
52256SOL    HW265737   0.336  10.147  10.691 -1.7053 -0.0073 -0.2023
52257SOL     OW65738   3.061   6.388   4.409 -0.2720  0.5330 -0.0212
52257SOL    HW165739   3.097   6.439   4.336  0.8049  0.5686  0.5240
52257SOL    HW265740   3.074   6.443   4.486  1.3914 -0.7382  0.6637
52258SOL     OW65741   5.588   6.122   0.809 -0.0328 -0.2318  0.1968
52258SOL    HW165742   5.632   6.082   0.884 -1.9738  0.7813  1.9702
52258SOL    HW265743   5.638   6.202   0.791 -0.2147  0.1228  1.2033
52259SOL     OW65744  12.070   8.708   4.751  0.0738 -0.0371  0.1051
52259SOL    HW165745  12.118   8.787   4.726  0.6135 -0.4723 -0.2704
52259SOL    HW265746  12.037   8.673   4.668  0.5618 -0.6557  0.1617
52260SOL     OW65747   3.651   8.337   8.809 -0.1153  0.0688 -0.3883
52260SOL    HW165748   3.568   8.354   8.853  0.0507 -0.1143  0.0001
52260SOL    HW265749   3.686   8.424   8.789  0.0060  0.1612  0.2140
52261SOL     OW65750   4.945   0.566  10.819  0.2765  0.1162 -0.0450
52261SOL    HW165751   4.872   0.509  10.792  0.8280 -0.2010 -0.9073
52261SOL    HW265752   4.980   0.524  10.898 -1.4110  1.0973  1.2991
52262SOL     OW65753   1.352   9.059   6.904 -0.2715  0.0018 -0.3485
52262SOL    HW165754   1.294   9.075   6.829 -0.3498 -0.8330 -0.4768
52262SOL    HW265755   1.422   9.124   6.895 -0.2804 -0.0893 -1.1428
52263SOL     OW65756   3.589  11.911   5.670  0.0768 -0.6456 -0.2352
52263SOL    HW165757   3.666  11.934   5.722 -0.2512 -0.7401  0.2925
52263SOL    HW265758   3.523  11.885   5.734 -0.3658 -0.6587 -0.6918
52264SOL     OW65759   6.125   6.980   4.643  0.3199  0.1843  0.1056
52264SOL    HW165760   6.125   6.917   4.715  2.5515  1.6525  1.5265
52264SOL    HW265761   6.158   6.931   4.568 -0.6631 -0.9995  0.4104
52265SOL     OW65762   7.816   5.104   2.152  0.4184  0.0962  0.4093
52265SOL    HW165763   7.897   5.081   2.197  0.6904  0.2188 -0.0155
52265SOL    HW265764   7.813   5.199   2.154  0.3098  0.0936  0.3815
52266SOL     OW65765  12.557   0.567   0.145 -0.2510  0.7279 -0.2748
52266SOL    HW165766  12.477   0.578   0.197 -0.2074  2.8147 -0.5311
52266SOL    HW265767  12.526   0.557   0.055 -0.2652 -0.8696 -0.1145
52267SOL     OW65768  11.387  10.475   5.347  0.1656  0.5649 -0.3358
52267SOL    HW165769  11.408  10.422   5.270  1.1754  1.0887 -0.4475
52267SOL    HW265770  11.292  10.477   5.350  0.0729  1.2400 -2.0888
52268SOL     OW65771  11.401   0.849  10.324  0.2793 -0.0998  0.3535
52268SOL    HW165772  11.307   0.838  10.309  0.5317 -1.4235 -0.3885
52268SOL    HW265773  11.412   0.833  10.418 -0.3802  1.2871  0.6876
52269SOL     OW65774   8.551   9.267  12.386 -0.5933 -0.2623 -0.3266
52269SOL    HW165775   8.509   9.325  12.323  0.4874  1.8872  0.8355
52269SOL    HW265776   8.504   9.282  12.468  0.0724 -0.5924  0.1265
52270SOL     OW65777  11.870   6.486  10.117  0.2740 -0.6426  0.3423
52270SOL    HW165778  11.788   6.441  10.100 -0.9815  1.8196 -0.6886
52270SOL    HW265779  11.925   6.465  10.041 -1.4064  1.7792 -1.7207
52271SOL     OW65780  12.215  11.079   3.502 -0.2672 -0.7379  0.0046
52271SOL    HW165781  12.215  11.158   3.448  0.2026 -1.2299 -0.7435
52271SOL    HW265782  12.306  11.069   3.528 -0.3680 -0.9005  0.2884
52272SOL     OW65783   9.021   7.071   9.775 -0.2792 -0.0656  0.0668
52272SOL    HW165784   8.938   7.025   9.762  0.2476 -1.1816  0.5715
52272SOL    HW265785   9.013   7.150   9.721 -1.4211 -0.4670 -0.3763
52273SOL     OW65786   7.952   9.369   1.921  0.3885 -0.1358 -0.1588
52273SOL    HW165787   7.931   9.455   1.957  0.3443 -0.5576  0.8501
52273SOL    HW265788   8.040   9.350   1.954  0.7841 -0.0880 -1.1366
52274SOL     OW65789   0.564   0.754   8.615 -0.4549  0.1897 -0.4895
52274SOL    HW165790   0.524   0.806   8.685  1.2050  2.1685 -0.9169
52274SOL    HW265791   0.499   0.754   8.545 -0.9233  0.7396 -0.0644
52275SOL     OW65792   8.677   0.402  11.890 -0.0981  0.3513  0.5102
52275SOL    HW165793   8.660   0.355  11.808  0.4183 -1.0972  1.2002
52275SOL    HW265794   8.768   0.430  11.883 -0.0437  0.1976  0.6035
52276SOL     OW65795   9.905   0.776   4.543 -0.5151 -0.0534 -0.0662
52276SOL    HW165796   9.978   0.714   4.552  1.1317  1.8508  0.3736
52276SOL    HW265797   9.887   0.804   4.633 -0.6251  0.7631 -0.3364
52277SOL     OW65798   1.500  11.630  12.063 -0.1650  0.2326 -0.7043
52277SOL    HW165799   1.510  11.716  12.103 -0.1175 -0.3473  0.5991
52277SOL    HW265800   1.570  11.624  11.998  1.2203  0.3645  0.7158
52278SOL     OW65801   2.330   4.909   6.293  0.2997 -0.3212  0.1040
52278SOL    HW165802   2.260   4.851   6.262 -0.5228  0.6902  0.0208
52278SOL    HW265803   2.284   4.978   6.342  1.2651  0.2153  0.2728
52279SOL     OW65804   1.070  11.001   4.414  0.2687 -0.6028 -0.1007
52279SOL    HW165805   0.997  11.014   4.475  0.7437 -2.3583  0.9146
52279SOL    HW265806   1.049  10.920   4.368  1.8082 -1.4671  0.6376
52280SOL     OW65807  11.028   5.847   6.330  0.3215  0.4676  0.2844
52280SOL    HW165808  11.077   5.929   6.329  0.3739  0.4671  1.2205
52280SOL    HW265809  11.080   5.787   6.278  0.2667  1.0295 -0.4348
52281SOL     OW65810  10.398   2.242   5.771 -0.3189  0.2863 -0.0120
52281SOL    HW165811  10.332   2.234   5.839  0.0314 -0.9690  0.1949
52281SOL    HW265812  10.367   2.187   5.699  0.1402  0.2794 -0.2092
52282SOL     OW65813   5.142   2.216  12.061 -0.0922 -0.3479 -0.6185
52282SOL    HW165814   5.085   2.173  12.125  0.0626 -1.6108 -1.2956
52282SOL    HW265815   5.159   2.303  12.098 -2.2745  0.0013 -0.2827
52283SOL     OW65816   6.237   9.158   4.901  0.0591 -0.2209  0.4085
52283SOL    HW165817   6.300   9.147   4.830 -1.3557  1.0266 -1.1007
52283SOL    HW265818   6.174   9.087   4.888 -1.3910  1.2331 -0.9629
52284SOL     OW65819   1.716   5.806  12.396 -0.6502 -0.3991  0.2785
52284SOL    HW165820   1.638   5.755  12.417 -0.4221 -0.6516  0.5227
52284SOL    HW265821   1.778   5.785  12.466 -0.0022 -0.9804 -0.4512
52285SOL     OW65822   4.543   5.178   5.852  0.0981  0.4121 -0.1458
52285SOL    HW165823   4.636   5.155   5.843 -0.2654 -1.4756  0.5498
52285SOL    HW265824   4.530   5.249   5.789  2.1410  1.1243  0.1724
52286SOL     OW65825  10.504   1.614   3.165 -0.2576  0.6448 -0.1415
52286SOL    HW165826  10.418   1.634   3.204 -0.3092  2.3421 -1.0512
52286SOL    HW265827  10.482   1.577   3.079 -0.0896  0.3759 -0.0672
52287SOL     OW65828   9.552   4.359  11.712  0.6915  0.3868 -0.3196
52287SOL    HW165829   9.533   4.299  11.640 -0.5570 -0.7315  0.8709
52287SOL    HW265830   9.475   4.352  11.769  1.1231  2.1334  0.5353
52288SOL     OW65831  12.240   7.443  11.734 -0.1564  0.3340  0.0221
52288SOL    HW165832  12.192   7.395  11.666 -0.4269 -0.6366  0.8831
52288SOL    HW265833  12.190   7.524  11.745  0.6474  1.1692 -1.8797
52289SOL     OW65834   3.078   1.806   0.032  0.5714  0.1134  0.2339
52289SOL    HW165835   3.117   1.816   0.119 -0.5788  0.4295  0.7351
52289SOL    HW265836   2.984   1.806   0.048  0.3134  1.2293 -1.1347
52290SOL     OW65837   0.782  12.454   6.952  0.3022 -0.7907 -0.8861
52290SOL    HW165838   0.747  12.395   7.018 -0.6781 -1.2706 -1.8016
52290SOL    HW265839   0.877  12.445   6.960  0.1846 -1.5404 -0.1702
52291SOL     OW65840   5.059   8.146   0.933 -0.4893 -0.0094  0.3638
52291SOL    HW165841   4.979   8.172   0.888 -1.0196 -1.8061  0.2199
52291SOL    HW265842   5.061   8.051   0.928  0.5137 -0.1543  2.3316
52292SOL     OW65843   3.930   5.753   1.820  0.6955 -0.1576  0.2009
52292SOL    HW165844   3.846   5.713   1.844  0.6944 -1.2178 -1.4224
52292SOL    HW265845   3.972   5.772   1.904 -0.5641 -0.9108  1.0405
52293SOL     OW65846   4.829   5.266   6.837 -0.3563 -0.1265  0.1299
52293SOL    HW165847   4.833   5.258   6.741  0.6524  1.6779 -0.0203
52293SOL    HW265848   4.847   5.178   6.869  1.9334 -0.2557 -1.3223
52294SOL     OW65849   4.116   0.944   0.019 -0.5672 -0.3030  0.2055
52294SOL    HW165850   4.025   0.941  -0.011 -0.5392  0.6062  0.0089
52294SOL    HW265851   4.136   1.037   0.026  0.1733 -0.4972  0.7960
52295SOL     OW65852  11.269   2.239   1.556  0.0143 -0.2044  0.3142
52295SOL    HW165853  11.317   2.316   1.526  1.6886 -0.8805  1.1558
52295SOL    HW265854  11.269   2.181   1.480  0.8826 -0.3534  0.4197
52296SOL     OW65855   2.105   5.829   2.812  0.1342  0.3988 -0.1353
52296SOL    HW165856   2.023   5.833   2.763 -0.1720  0.4447  0.3785
52296SOL    HW265857   2.119   5.918   2.844 -0.0194  0.2246  0.4299
52297SOL     OW65858   0.865   3.125  10.140 -0.2366 -0.4702  0.0077
52297SOL    HW165859   0.824   3.132  10.054  0.4569  1.6751 -0.2159
52297SOL    HW265860   0.811   3.180  10.197  0.5089 -0.1445  0.4234
52298SOL     OW65861   5.460   6.373  12.498 -0.6001  0.7398 -0.0539
52298SOL    HW165862   5.507   6.293  12.475 -0.4198  0.1746  2.0219
52298SOL    HW265863   5.522   6.444  12.479  0.6808  0.0870  1.4541
52299SOL     OW65864   7.853  10.445   6.173 -0.2388  0.1333  0.3239
52299SOL    HW165865   7.847  10.447   6.268 -0.9487  1.6059  0.2784
52299SOL    HW265866   7.763  10.433   6.143 -0.1013  0.2619 -0.1607
52300SOL     OW65867  11.330  10.157  12.576 -0.1224 -0.0758  0.7542
52300SOL    HW165868  11.412  10.151  12.525 -0.2681  1.0252  0.3661
52300SOL    HW265869  11.354  10.207  12.653 -0.4408  0.3052  0.6085
52301SOL     OW65870  12.418   2.968   6.368  0.8146  0.1593 -0.0518
52301SOL    HW165871  12.486   2.936   6.427  1.3192  0.9216 -0.2056
52301SOL    HW265872  12.377   3.041   6.415 -0.6734 -1.0044  0.5134
52302SOL     OW65873   6.887   3.035   7.475  0.1747 -0.3455 -0.1057
52302SOL    HW165874   6.915   2.944   7.488  0.3091 -0.2938 -0.0296
52302SOL    HW265875   6.825   3.031   7.403 -1.4755 -0.8238  1.2653
52303SOL     OW65876   3.640   9.955   6.489 -0.1903  0.4020 -0.0754
52303SOL    HW165877   3.565   9.907   6.455 -1.1605  1.0572  1.0544
52303SOL    HW265878   3.614  10.047   6.486  1.8187  0.9913 -2.6553
52304SOL     OW65879   3.966   3.780  12.024 -0.1686  0.5994  0.0341
52304SOL    HW165880   3.992   3.859  12.072  1.8912  0.4678 -0.7763
52304SOL    HW265881   4.041   3.721  12.033  0.0627  0.3512 -2.8187
52305SOL     OW65882   8.274  12.382   2.247  0.0410 -0.0113 -0.3170
52305SOL    HW165883   8.302  12.421   2.330  0.9009 -1.5186  0.1456
52305SOL    HW265884   8.179  12.381   2.252  0.0876 -0.9080  1.0771
52306SOL     OW65885   3.711   6.662   4.261 -0.3383 -0.3545  0.0565
52306SOL    HW165886   3.695   6.625   4.175 -1.2799 -0.0989  0.1127
52306SOL    HW265887   3.763   6.741   4.244 -0.8452 -0.0985 -0.3112
52307SOL     OW65888   9.135   4.830  10.385 -0.4222  0.1516 -0.0998
52307SOL    HW165889   9.064   4.863  10.330  0.7269 -0.4077 -2.0290
52307SOL    HW265890   9.109   4.852  10.474 -1.8908  2.0417 -0.9224
52308SOL     OW65891   8.492   3.158   4.660 -0.0775 -0.3326 -0.1706
52308SOL    HW165892   8.430   3.155   4.733 -1.3153 -0.7622 -1.2026
52308SOL    HW265893   8.449   3.212   4.594  1.3470  0.6738 -0.3376
52309SOL     OW65894   1.811   9.173   4.929 -0.5034 -0.8253 -0.3160
52309SOL    HW165895   1.813   9.255   4.978 -0.4949 -1.4690  0.7985
52309SOL    HW265896   1.897   9.134   4.942 -0.9604 -1.6637  0.3370
52310SOL     OW65897   0.121   2.235   2.190 -0.2448 -0.3713  0.2090
52310SOL    HW165898   0.091   2.175   2.122 -1.1584  1.3032 -0.9383
52310SOL    HW265899   0.068   2.314   2.177 -0.4980 -0.0031  2.9261
52311SOL     OW65900  10.332   9.259  11.216 -0.7697  0.1751 -0.5262
52311SOL    HW165901  10.314   9.178  11.169  2.3197 -1.2106  0.4767
52311SOL    HW265902  10.292   9.246  11.302 -0.5843 -0.1311 -0.4858
52312SOL     OW65903   1.941   2.041  10.675 -0.4451 -0.3870  0.1729
52312SOL    HW165904   1.868   2.033  10.614  0.4162 -1.9771 -0.7302
52312SOL    HW265905   1.974   1.951  10.685  2.2067  0.3990 -0.5315
52313SOL     OW65906   8.161   3.650   2.702  0.2787 -0.0357 -0.3359
52313SOL    HW165907   8.156   3.607   2.617  0.3398  0.6784 -0.7073
52313SOL    HW265908   8.070   3.661   2.729  0.2648 -1.8258  0.5172
52314SOL     OW65909  10.342  11.106   5.281 -0.1588  0.2020 -0.3784
52314SOL    HW165910  10.387  11.152   5.352  0.9450  0.9508 -1.5172
52314SOL    HW265911  10.373  11.015   5.288  0.2097  0.3439 -0.1098
52315SOL     OW65912   3.496  12.140   9.515 -0.2616  0.2309 -0.2606
52315SOL    HW165913   3.495  12.185   9.599  0.5734 -0.5138  0.1574
52315SOL    HW265914   3.408  12.103   9.506 -0.5775  0.9107 -0.0544
52316SOL     OW65915   8.051   7.953   9.948  0.1881 -0.0526  0.2399
52316SOL    HW165916   8.072   7.895  10.021  0.9278 -1.1344 -0.8102
52316SOL    HW265917   7.959   7.936   9.929  0.2580 -0.4758  0.2871
52317SOL     OW65918   9.528  11.665   8.685  0.7546  0.2838 -0.2230
52317SOL    HW165919   9.592  11.733   8.666  1.6681 -0.5338 -0.1426
52317SOL    HW265920   9.487  11.645   8.600  0.2042  1.1805 -0.1830
52318SOL     OW65921   9.749   0.120   1.745 -0.0180 -0.0502  0.3547
52318SOL    HW165922   9.768   0.158   1.659 -1.3994 -0.3370 -0.1163
52318SOL    HW265923   9.662   0.155   1.768  0.1936 -0.2271  1.4907
52319SOL     OW65924   5.349   8.824   3.829  0.1762  0.7107 -0.5196
52319SOL    HW165925   5.409   8.854   3.761  1.9186  1.3131  1.1905
52319SOL    HW265926   5.267   8.807   3.783  1.8111 -0.8624 -3.1078
52320SOL     OW65927  10.427   7.242  10.051 -0.4499  0.2444 -0.0045
52320SOL    HW165928  10.504   7.234  10.107 -1.4703  0.9700  1.5955
52320SOL    HW265929  10.392   7.153  10.045  0.4644 -0.0737 -0.6751
52321SOL     OW65930   0.314   4.522  10.234  0.5152  0.0720 -0.3933
52321SOL    HW165931   0.343   4.612  10.222  1.4837 -0.2696 -0.6856
52321SOL    HW265932   0.324   4.482  10.148  0.3029 -0.3740 -0.2122
52322SOL     OW65933   0.562   3.129   6.450  0.7889  0.1583 -0.0048
52322SOL    HW165934   0.542   3.061   6.515  0.2156 -1.1301 -1.4755
52322SOL    HW265935   0.478   3.168   6.429  0.8339 -0.1112 -0.6977
52323SOL     OW65936  11.944   7.459   4.176  0.0496  0.4036 -0.3008
52323SOL    HW165937  12.004   7.400   4.222  0.1250  0.0244 -0.8796
52323SOL    HW265938  11.888   7.495   4.245  0.2114 -0.1016  0.0978
52324SOL     OW65939   1.233   7.480   6.180  0.3442 -0.1241  0.0895
52324SOL    HW165940   1.192   7.422   6.116 -1.9236 -0.2787  1.5471
52324SOL    HW265941   1.239   7.565   6.136  1.6646 -0.9086 -1.3162
52325SOL     OW65942  10.789   9.611   2.816  0.1550 -0.7369  0.0800
52325SOL    HW165943  10.704   9.625   2.774 -0.9614  0.6328  2.5682
52325SOL    HW265944  10.786   9.520   2.846  0.0044 -1.0062 -0.7188
52326SOL     OW65945  10.195   4.566   5.011  0.4138  0.3468 -0.1076
52326SOL    HW165946  10.103   4.594   5.011  0.9018  2.0757  0.6546
52326SOL    HW265947  10.192   4.476   5.042 -1.1146 -0.0516 -1.2495
52327SOL     OW65948  10.453   6.616   8.404 -0.5245  0.4043  0.4175
52327SOL    HW165949  10.372   6.667   8.392  0.0333  1.0859 -0.6850
52327SOL    HW265950  10.431   6.528   8.374 -0.8909  0.5686  0.1936
52328SOL     OW65951   8.356  12.107  11.303  0.2049  1.2347  0.6385
52328SOL    HW165952   8.290  12.124  11.235  0.7470  1.4202  0.1496
52328SOL    HW265953   8.357  12.012  11.311  0.9610  1.1255 -0.4692
52329SOL     OW65954   9.144   8.724   8.604  0.0692 -0.7834 -0.5914
52329SOL    HW165955   9.220   8.769   8.640 -0.0184 -0.2210 -1.0818
52329SOL    HW265956   9.152   8.736   8.509  0.2791 -2.1869 -0.7829
52330SOL     OW65957   5.047   3.920   0.368 -0.9622 -0.0204 -0.2922
52330SOL    HW165958   4.984   3.940   0.437 -1.2765 -0.6946 -0.3685
52330SOL    HW265959   5.124   3.886   0.415 -1.3670 -0.9629 -0.2853
52331SOL     OW65960  10.778  11.314   6.091 -0.6928 -0.3858 -0.3070
52331SOL    HW165961  10.736  11.230   6.074  0.0852 -0.6158 -1.1833
52331SOL    HW265962  10.872  11.293   6.098 -0.1712  0.6724 -2.9603
52332SOL     OW65963   8.104  12.279   4.099  0.1223  0.1191  0.7835
52332SOL    HW165964   8.164  12.316   4.034  1.1217 -0.9350  1.0752
52332SOL    HW265965   8.156  12.272   4.178 -0.8033  0.4575  1.4383
52333SOL     OW65966   5.065   2.019  10.295 -0.2595  0.2403  0.6821
52333SOL    HW165967   5.141   1.993  10.346  0.0726 -0.4276 -0.1389
52333SOL    HW265968   5.009   2.065  10.357  0.0397 -0.7346  1.7001
52334SOL     OW65969   8.192   3.747  11.215  0.4419  0.4520 -0.4800
52334SOL    HW165970   8.176   3.808  11.287 -1.0606 -1.2746  0.7133
52334SOL    HW265971   8.162   3.794  11.137 -0.0749  1.4871  0.3179
52335SOL     OW65972   2.083  12.541   0.563 -0.0078  0.0296 -0.1312
52335SOL    HW165973   1.995  12.518   0.531 -0.1005 -1.2712  0.9558
52335SOL    HW265974   2.134  12.557   0.484 -0.7444 -1.0949 -0.8780
52336SOL     OW65975   6.512   9.101   5.914 -0.0207 -0.1125  0.6300
52336SOL    HW165976   6.604   9.087   5.891 -0.6055 -1.9841 -0.8408
52336SOL    HW265977   6.510   9.189   5.952  2.1965  0.3935 -0.2664
52337SOL     OW65978   6.155   1.499   2.854  0.4243 -0.0862  0.0128
52337SOL    HW165979   6.241   1.482   2.892  0.4141 -1.5761 -0.5763
52337SOL    HW265980   6.134   1.420   2.805 -0.6085  0.8503 -1.1309
52338SOL     OW65981   1.505   0.225   5.192  0.4000 -0.3906  0.3631
52338SOL    HW165982   1.536   0.242   5.281  1.1534  1.4487 -0.2156
52338SOL    HW265983   1.414   0.196   5.204  0.3307  0.2893  1.7008
52339SOL     OW65984   2.566   9.009   0.651 -0.1898  0.0107  0.2575
52339SOL    HW165985   2.575   9.006   0.746 -0.4640 -1.4610  0.2550
52339SOL    HW265986   2.613   8.932   0.620 -1.9629 -0.7560 -0.6389
52340SOL     OW65987   6.594   0.841   7.251  0.1658  0.0960 -0.0519
52340SOL    HW165988   6.616   0.748   7.258  0.0417  0.1406  1.1074
52340SOL    HW265989   6.521   0.853   7.312  0.5270  1.0656  0.2099
52341SOL     OW65990  12.534  11.873   8.995  0.4342 -1.0705  0.9376
52341SOL    HW165991  12.623  11.865   8.961  0.8331  2.1297  0.8874
52341SOL    HW265992  12.542  11.932   9.070 -1.6752 -0.3909  0.6956
52342SOL     OW65993   1.373  11.483   3.160  0.1552  0.4739  0.4862
52342SOL    HW165994   1.377  11.493   3.065  0.7037 -0.3018  0.4172
52342SOL    HW265995   1.390  11.390   3.175  0.2009  0.6118  1.3521
52343SOL     OW65996   1.232   9.560   3.629  0.3610 -0.1002  0.3920
52343SOL    HW165997   1.201   9.614   3.701  0.5207  0.8961 -0.2636
52343SOL    HW265998   1.326   9.550   3.645  0.3441 -0.1191  0.4784
52344SOL     OW65999   2.106   8.759   0.939 -0.6233 -0.0098  0.0191
52344SOL    HW166000   2.074   8.849   0.937 -1.0078 -0.1565 -0.6602
52344SOL    HW266001   2.042   8.710   0.889  0.2871 -0.4383 -0.7573
52345SOL     OW66002  10.216   2.127   0.533  0.2999 -0.4331 -0.7499
52345SOL    HW166003  10.283   2.060   0.517 -0.1928 -1.3771  0.8566
52345SOL    HW266004  10.186   2.152   0.446  1.2714 -1.5127 -1.4329
52346SOL     OW66005   9.616   5.012  11.785 -0.2261 -0.4279  0.1973
52346SOL    HW166006   9.615   5.001  11.880  0.7163 -1.8326  0.0645
52346SOL    HW266007   9.633   4.925  11.750  1.0732  0.3214 -1.1949
52347SOL     OW66008   0.595   0.257   3.747 -0.3612  0.1752  0.1334
52347SOL    HW166009   0.502   0.276   3.731 -0.4463  0.2662  0.7089
52347SOL    HW266010   0.603   0.258   3.842  0.0894 -0.5252  0.1057
52348SOL     OW66011   2.569   9.175   6.118 -0.9872  0.3062 -0.0221
52348SOL    HW166012   2.516   9.248   6.087  0.0544  0.6671 -1.0048
52348SOL    HW266013   2.598   9.130   6.039 -0.7294 -0.5352  0.5326
52349SOL     OW66014  12.080   5.125  11.883 -0.2975 -0.3250  0.4572
52349SOL    HW166015  12.012   5.095  11.823  0.0789 -0.5873  0.1516
52349SOL    HW266016  12.162   5.095  11.843 -0.0063 -0.0617  0.8442
52350SOL     OW66017   1.766   1.154   8.496 -0.6010 -0.2018  0.4302
52350SOL    HW166018   1.845   1.205   8.478 -0.1596 -0.8818  0.4177
52350SOL    HW266019   1.725   1.200   8.569  0.5730 -0.6620  1.4141
52351SOL     OW66020   1.900   1.924   6.119  0.0823  0.2661  0.4078
52351SOL    HW166021   1.891   1.853   6.055 -0.1522 -0.0129  0.7500
52351SOL    HW266022   1.820   1.920   6.171  0.4900  0.1880  1.0326
52352SOL     OW66023   9.764   9.343   5.554  0.3931 -0.6676  0.4462
52352SOL    HW166024   9.785   9.374   5.466  1.1151  0.5629  1.0191
52352SOL    HW266025   9.833   9.279   5.573  1.1858  0.2425  0.7071
52353SOL     OW66026   7.666  11.556   5.203  0.7058 -0.0160 -0.2187
52353SOL    HW166027   7.678  11.516   5.117 -0.5509  0.1859 -0.5141
52353SOL    HW266028   7.594  11.618   5.190  1.2181  0.7998  0.7296
52354SOL     OW66029   4.545   7.451   5.342  0.9115  0.2885 -0.1914
52354SOL    HW166030   4.515   7.516   5.406  0.7471 -0.3276  0.3746
52354SOL    HW266031   4.640   7.449   5.352  0.8655 -0.0075  0.2514
52355SOL     OW66032   9.537   4.562   9.724  0.0982 -0.0390 -0.5496
52355SOL    HW166033   9.569   4.603   9.643 -1.1778 -0.2465 -1.1789
52355SOL    HW266034   9.447   4.538   9.705 -0.5491  0.7581  1.2453
52356SOL     OW66035  12.015   8.772   5.776 -0.3129 -0.7550 -0.0234
52356SOL    HW166036  11.956   8.749   5.849  0.3938 -0.6288  0.6053
52356SOL    HW266037  12.070   8.695   5.765 -0.7416 -0.9622 -0.7688
52357SOL     OW66038   4.475   3.493   1.093  0.4279 -0.4526  0.4532
52357SOL    HW166039   4.387   3.469   1.065  0.3058  1.1897 -0.7552
52357SOL    HW266040   4.463   3.574   1.143  1.2591 -0.1373  0.1640
52358SOL     OW66041  11.613  11.274  10.371  0.1223  0.2443  0.2191
52358SOL    HW166042  11.702  11.259  10.401  0.2883  0.3516 -0.2162
52358SOL    HW266043  11.573  11.327  10.440  1.1168  2.2368 -0.6665
52359SOL     OW66044   2.100   7.108  11.429 -0.1109 -0.1372  0.4092
52359SOL    HW166045   2.062   7.196  11.426  0.5408  0.2214  1.8416
52359SOL    HW266046   2.172   7.115  11.492  3.7968 -0.2453 -3.5245
52360SOL     OW66047   4.934   6.877   5.539  0.2242 -0.2875 -0.2022
52360SOL    HW166048   4.888   6.906   5.617 -0.5548 -0.8282 -0.4454
52360SOL    HW266049   5.023   6.909   5.550 -0.7611  3.1048 -0.9284
52361SOL     OW66050   9.183   5.968   5.212  0.2921 -0.5248 -0.2544
52361SOL    HW166051   9.279   5.963   5.208  0.4265  0.1327  1.2642
52361SOL    HW266052   9.153   5.906   5.145  1.7197  1.6425 -3.1031
52362SOL     OW66053   7.240  11.821   1.863 -0.4914 -0.2582  0.0071
52362SOL    HW166054   7.208  11.891   1.807 -2.5979 -0.7388  0.5548
52362SOL    HW266055   7.212  11.741   1.819  0.7169 -0.7579  0.0936
52363SOL     OW66056   2.388   6.504   5.326 -0.2403  0.0872  0.2536
52363SOL    HW166057   2.360   6.463   5.244 -0.8976  1.0894 -0.0386
52363SOL    HW266058   2.380   6.435   5.391  1.6080 -1.1339 -0.7440
52364SOL     OW66059   1.575   7.457   1.321 -0.0310 -0.0815  0.2545
52364SOL    HW166060   1.616   7.542   1.337 -0.5457  0.1173  0.5478
52364SOL    HW266061   1.647   7.402   1.290  0.2931  0.4768 -0.0122
52365SOL     OW66062   0.028   9.981   4.570  0.7417  0.1608 -0.2536
52365SOL    HW166063  -0.051   9.935   4.540 -1.1011  0.5669  3.3747
52365SOL    HW266064   0.012  10.073   4.547 -0.2026  0.3335  0.9837
52366SOL     OW66065   9.973   4.779   0.125 -0.0167 -0.1488 -0.0305
52366SOL    HW166066   9.904   4.793   0.060  0.3100  0.1347 -0.3220
52366SOL    HW266067  10.041   4.842   0.102  0.9353 -1.3371 -0.5898
52367SOL     OW66068  10.393  10.494   0.333 -0.1143 -0.1823 -0.2977
52367SOL    HW166069  10.473  10.449   0.361 -0.3361 -0.9480 -0.8554
52367SOL    HW266070  10.352  10.433   0.271 -1.4461 -0.0856  0.4406
52368SOL     OW66071   0.865   0.235   4.351 -0.0701 -0.1030  0.2609
52368SOL    HW166072   0.807   0.309   4.370 -0.3021 -0.3241  0.4306
52368SOL    HW266073   0.951   0.274   4.336  0.1957  0.0730  2.0278
52369SOL     OW66074   7.455   9.019   8.168 -0.6121 -0.2069 -0.1965
52369SOL    HW166075   7.544   9.000   8.197 -0.4252  1.6385  0.5668
52369SOL    HW266076   7.462   9.103   8.123 -1.8495 -0.4254 -0.8494
52370SOL     OW66077   8.192   5.165   7.379 -0.2643  0.7673  0.0604
52370SOL    HW166078   8.274   5.211   7.393 -0.9496  1.5155  1.9341
52370SOL    HW266079   8.135   5.230   7.339 -0.4296  0.7663  0.2890
52371SOL     OW66080   5.485   1.592  11.929  0.4406  0.7066 -0.4300
52371SOL    HW166081   5.533   1.650  11.869 -0.5581 -1.5211 -3.6593
52371SOL    HW266082   5.411   1.645  11.958  0.6589  1.7293 -1.6240
52372SOL     OW66083   7.656   5.612   1.270 -0.5495  0.1936 -0.2910
52372SOL    HW166084   7.583   5.589   1.211 -1.4120  1.6058  0.1770
52372SOL    HW266085   7.734   5.604   1.216 -1.2688  0.8541 -1.4721
52373SOL     OW66086   1.878   7.600   6.685 -0.0245 -0.2701 -0.3604
52373SOL    HW166087   1.785   7.596   6.707 -0.1936  0.1095 -0.9803
52373SOL    HW266088   1.920   7.536   6.742 -0.6983 -0.5926 -0.2283
52374SOL     OW66089   9.555   1.221   9.666  0.3795  0.4109 -0.0552
52374SOL    HW166090   9.534   1.219   9.760  1.3928  0.9166  0.1960
52374SOL    HW266091   9.573   1.313   9.648  1.1369  0.1761 -0.5232
52375SOL     OW66092   6.899   8.098   3.796 -0.0225 -0.0637 -0.9265
52375SOL    HW166093   6.828   8.038   3.774 -0.5599  0.6537 -1.1823
52375SOL    HW266094   6.856   8.170   3.843  0.4335  0.6865 -1.6263
52376SOL     OW66095   2.939   7.823  10.355  0.1335 -0.3614  0.1554
52376SOL    HW166096   2.900   7.737  10.372  0.5548 -0.5347  0.2664
52376SOL    HW266097   2.868   7.875  10.316 -0.8277 -0.0193  2.2113
52377SOL     OW66098  10.669   8.821   1.075 -0.2895  0.3882 -0.0045
52377SOL    HW166099  10.624   8.744   1.039  0.4416  0.2704 -0.7070
52377SOL    HW266100  10.741   8.785   1.127  0.0897  0.5806 -0.3809
52378SOL     OW66101   6.739   1.105   3.935 -0.4629  0.3589  0.1929
52378SOL    HW166102   6.735   1.019   3.892  0.1142  0.5818 -0.3171
52378SOL    HW266103   6.689   1.163   3.878 -2.1165  0.0698  1.2915
52379SOL     OW66104   5.594   3.394  11.808 -0.1485 -0.1479 -0.4476
52379SOL    HW166105   5.632   3.481  11.800  1.8688 -0.8563  0.8958
52379SOL    HW266106   5.590   3.377  11.902 -0.5627 -1.5003 -0.6843
52380SOL     OW66107   7.697  10.675  12.502  0.3198  0.5531 -0.2438
52380SOL    HW166108   7.689  10.588  12.541 -1.1882  1.0856  0.6952
52380SOL    HW266109   7.706  10.658  12.408 -1.4164 -0.6106 -0.2553
52381SOL     OW66110   0.071  12.342   6.055  0.4527 -0.8252  0.2824
52381SOL    HW166111   0.131  12.294   6.113  0.3023 -1.7640 -0.3016
52381SOL    HW266112   0.019  12.273   6.013 -1.2372 -0.0241  0.9691
52382SOL     OW66113   9.408   6.390   4.579  0.3148 -0.7134 -0.0177
52382SOL    HW166114   9.493   6.420   4.612  0.0038 -0.5327  0.6449
52382SOL    HW266115   9.344   6.447   4.623 -0.0624  0.4791 -1.9779
52383SOL     OW66116   6.683   6.107   3.016 -0.2479 -0.1509  0.3250
52383SOL    HW166117   6.619   6.177   3.001 -2.3411 -2.3675 -2.0768
52383SOL    HW266118   6.700   6.071   2.929  3.0998 -0.7483  1.0944
52384SOL     OW66119   0.615  10.353   1.640  0.6854 -0.7437  0.3340
52384SOL    HW166120   0.602  10.299   1.718 -2.3517 -0.2655  0.2910
52384SOL    HW266121   0.555  10.316   1.575 -0.6435  1.8637 -0.0672
52385SOL     OW66122   4.679   8.166   0.352  0.3296  0.5066  0.3366
52385SOL    HW166123   4.711   8.157   0.262  0.5655  0.1911  0.4510
52385SOL    HW266124   4.749   8.215   0.396 -0.2994  1.6984  0.0726
52386SOL     OW66125  11.475  10.428   1.495 -0.5189  0.1045  0.0338
52386SOL    HW166126  11.403  10.420   1.433 -1.3384 -2.1571  1.1606
52386SOL    HW266127  11.433  10.433   1.581  0.6373 -0.4469  0.6569
52387SOL     OW66128   8.612   8.642   2.016 -0.0898  0.2716 -0.2669
52387SOL    HW166129   8.618   8.617   1.924 -0.3327  1.1602 -0.5338
52387SOL    HW266130   8.533   8.696   2.022 -0.1151  0.1678  0.4709
52388SOL     OW66131   0.312  12.465   6.034  0.2235  0.5777  0.1231
52388SOL    HW166132   0.221  12.443   6.013  0.5719 -0.8576  0.0205
52388SOL    HW266133   0.309  12.496   6.124 -0.0645 -1.8660  1.0241
52389SOL     OW66134   3.099   2.020   1.256 -0.4645 -0.0778  0.0763
52389SOL    HW166135   3.154   2.058   1.187 -0.4405 -0.2241  0.0125
52389SOL    HW266136   3.142   1.937   1.277  0.2379  0.5503  1.1672
52390SOL     OW66137   7.063   7.193   0.815  0.3267  0.3332 -0.2896
52390SOL    HW166138   7.042   7.239   0.896 -0.3838 -0.4837  0.0118
52390SOL    HW266139   7.050   7.100   0.837  0.2927  0.0943 -1.2876
52391SOL     OW66140   6.760   2.953   8.533 -0.1693  0.1575 -0.3502
52391SOL    HW166141   6.813   2.930   8.457 -0.0780 -0.6332 -0.0587
52391SOL    HW266142   6.690   2.888   8.533 -0.0897  0.0694  0.3206
52392SOL     OW66143   9.861   3.943   7.148  0.0118 -0.7280 -0.0886
52392SOL    HW166144   9.780   3.973   7.107 -0.5160 -0.6528  0.9982
52392SOL    HW266145   9.928   4.001   7.113 -0.2578 -1.2420 -1.5621
52393SOL     OW66146   8.014  11.833   6.702 -0.6125 -0.2554  0.6390
52393SOL    HW166147   7.989  11.749   6.739 -1.9533 -0.3684 -0.4338
52393SOL    HW266148   7.937  11.889   6.715 -1.1644 -0.2911 -1.8224
52394SOL     OW66149   1.770   7.165  12.483 -0.0859 -0.6534  0.1102
52394SOL    HW166150   1.685   7.131  12.456  0.5345 -1.1002 -1.4037
52394SOL    HW266151   1.753   7.209  12.566 -1.6714 -1.2371  0.1310
52395SOL     OW66152  10.005   5.413  10.283 -0.0658  0.9167 -0.3078
52395SOL    HW166153  10.053   5.445  10.206 -1.2577  0.2932 -1.3401
52395SOL    HW266154   9.922   5.383  10.248 -0.4037  0.0767  1.1678
52396SOL     OW66155   0.138   6.666   6.666 -0.1514 -0.2099 -0.1811
52396SOL    HW166156   0.108   6.720   6.593  1.0844 -0.1190 -0.6513
52396SOL    HW266157   0.133   6.723   6.742 -2.0521 -0.4956 -0.0503
52397SOL     OW66158   3.204   9.461   1.322 -0.8419 -0.0811  0.6455
52397SOL    HW166159   3.218   9.423   1.409 -1.1217  0.4957  0.9479
52397SOL    HW266160   3.109   9.459   1.310 -0.7223 -1.4159 -0.2318
52398SOL     OW66161   1.935   6.796   5.010  0.3568  0.3106 -0.2805
52398SOL    HW166162   2.025   6.828   5.015 -0.4748  2.7421  0.5456
52398SOL    HW266163   1.901   6.806   5.099 -0.5250 -1.3939 -0.3743
52399SOL     OW66164   2.375   4.368   5.159 -0.0514 -0.0225 -0.3062
52399SOL    HW166165   2.430   4.358   5.237  0.4265 -1.4051 -0.7763
52399SOL    HW266166   2.286   4.371   5.192  0.2589  2.0037  0.4591
52400SOL     OW66167   4.248   4.828   4.834  0.0129  0.0710 -0.4024
52400SOL    HW166168   4.168   4.779   4.817 -0.2974 -0.0996  1.3234
52400SOL    HW266169   4.315   4.760   4.844  0.0731  0.1277 -0.4270
52401SOL     OW66170   4.983   2.434   6.357  0.4983 -0.5678 -0.2424
52401SOL    HW166171   4.993   2.488   6.436 -0.6786  1.2783 -1.2915
52401SOL    HW266172   4.940   2.354   6.388 -1.8630  0.9714  0.7674
52402SOL     OW66173   5.923   0.028  10.006  0.0743 -0.3546  0.4346
52402SOL    HW166174   5.948   0.049  10.096  1.7952 -0.4039 -0.0068
52402SOL    HW266175   5.850   0.088   9.988  0.6572  0.6889  1.3776
52403SOL     OW66176  10.889  11.171   0.964 -0.4669 -0.0955 -0.4344
52403SOL    HW166177  10.858  11.083   0.943  2.5689 -1.2010 -0.8851
52403SOL    HW266178  10.862  11.185   1.055 -0.6384 -1.7009 -0.2100
52404SOL     OW66179   0.612   0.232   6.071  0.1285  0.1189 -0.2606
52404SOL    HW166180   0.668   0.191   6.006  0.1679 -0.8302  0.3468
52404SOL    HW266181   0.526   0.191   6.059 -0.1361  0.7053 -0.4072
52405SOL     OW66182   9.160   9.841   4.333  0.2432  0.2945 -0.1484
52405SOL    HW166183   9.102   9.913   4.357  1.2242  0.3770  2.2246
52405SOL    HW266184   9.132   9.817   4.244 -0.3540  3.3290 -0.9164
52406SOL     OW66185   1.779  11.573   4.320  0.1125  0.4171  0.3531
52406SOL    HW166186   1.817  11.559   4.406 -0.8406  0.3628  0.7691
52406SOL    HW266187   1.726  11.495   4.303 -0.2286  0.7164  0.0089
52407SOL     OW66188   1.384  11.432   6.835  0.4921  0.5544 -0.1645
52407SOL    HW166189   1.307  11.446   6.780  0.6197 -0.8928 -0.7560
52407SOL    HW266190   1.371  11.490   6.910 -0.9236  0.6886 -0.4918
52408SOL     OW66191   7.280   0.327   0.333  0.4981 -0.5563 -0.9510
52408SOL    HW166192   7.244   0.381   0.263 -1.0061 -0.2465  0.0005
52408SOL    HW266193   7.368   0.362   0.348 -0.3570  1.5394 -0.5046
52409SOL     OW66194   5.926   3.338   9.020  0.1633 -0.1729 -0.0283
52409SOL    HW166195   5.912   3.267   8.957  0.4381 -0.2051 -0.0543
52409SOL    HW266196   5.845   3.341   9.071  0.5609 -1.2639  0.7191
52410SOL     OW66197   6.553   5.962   6.336  0.3711 -0.4167 -0.4216
52410SOL    HW166198   6.609   5.997   6.267 -0.6200  0.1987 -0.9318
52410SOL    HW266199   6.503   5.892   6.293  0.3331 -0.5746 -0.1229
52411SOL     OW66200  11.464   2.433   8.316  0.9184 -0.3095 -0.5661
52411SOL    HW166201  11.431   2.522   8.320 -2.2490 -1.4134  1.1332
52411SOL    HW266202  11.431   2.398   8.233  0.0422 -0.6320 -0.0836
52412SOL     OW66203  11.441   1.371   4.069 -0.5577 -0.0538 -0.2741
52412SOL    HW166204  11.352   1.400   4.051 -1.0088 -1.7964 -0.9939
52412SOL    HW266205  11.463   1.312   3.998  0.2702 -1.5428  1.1478
52413SOL     OW66206   2.966   0.827  10.875  0.0208  0.0522 -0.8546
52413SOL    HW166207   2.930   0.739  10.871  0.3191 -0.0668 -0.9535
52413SOL    HW266208   3.059   0.814  10.895 -0.0833  0.3683 -0.1290
52414SOL     OW66209   8.252   3.594  12.196 -0.6649  0.1737 -0.6987
52414SOL    HW166210   8.331   3.570  12.149 -1.1081 -0.2858 -1.2102
52414SOL    HW266211   8.218   3.512  12.231 -0.5097  0.4666  0.1661
52415SOL     OW66212   9.543   8.383   2.844 -0.1528 -0.0559 -0.8310
52415SOL    HW166213   9.590   8.448   2.793 -0.5139 -0.0710 -1.1946
52415SOL    HW266214   9.553   8.302   2.794 -1.8264  0.2393 -1.7576
52416SOL     OW66215   4.896  12.522   0.973 -0.4555 -0.0975 -0.0164
52416SOL    HW166216   4.962  12.554   1.035 -1.6695  2.6592 -0.0342
52416SOL    HW266217   4.821  12.500   1.028 -1.2706  1.6431 -0.3835
52417SOL     OW66218   8.038   5.397  11.279 -0.2041 -0.1804 -0.3783
52417SOL    HW166219   8.007   5.312  11.311 -0.2220  0.1817  0.6016
52417SOL    HW266220   8.061   5.381  11.188 -1.6205 -0.8881 -0.6374
52418SOL     OW66221   3.585   0.381   4.375  0.2974 -0.2537  0.3612
52418SOL    HW166222   3.643   0.310   4.403  1.0452  0.4151  0.5644
52418SOL    HW266223   3.504   0.337   4.349  0.4578 -1.1167  1.2351
52419SOL     OW66224   8.880   2.113   1.200 -0.0392  0.2305 -0.1279
52419SOL    HW166225   8.956   2.058   1.180 -1.0053 -1.0431 -0.4200
52419SOL    HW266226   8.913   2.177   1.263  1.7544  0.9429 -1.6693
52420SOL     OW66227   2.271   3.018   3.318  0.4659  0.2758  0.5076
52420SOL    HW166228   2.359   2.983   3.300  1.8247  2.3060  2.5501
52420SOL    HW266229   2.268   3.101   3.270  0.6251  1.3204  2.2070
52421SOL     OW66230   2.592   5.412   2.460 -0.0967 -0.0358 -0.0140
52421SOL    HW166231   2.660   5.474   2.484 -1.0293  0.4349  1.6139
52421SOL    HW266232   2.632   5.355   2.395  1.5914  0.6897  0.3533
52422SOL     OW66233  12.094   8.722   7.839 -0.1938 -0.1097 -0.0902
52422SOL    HW166234  12.127   8.696   7.753 -0.2807 -0.1642 -0.1077
52422SOL    HW266235  12.002   8.743   7.823  0.1241  1.2173 -0.2832
52423SOL     OW66236  12.543  10.875   8.716  0.1614 -0.4821  0.1538
52423SOL    HW166237  12.582  10.920   8.791  0.3778 -3.7604  2.2079
52423SOL    HW266238  12.617  10.855   8.659  0.1776  0.8303 -0.3292
52424SOL     OW66239   5.176   6.794  12.064  0.3665  0.1848 -0.0369
52424SOL    HW166240   5.257   6.759  12.027  1.2650  0.2087  1.7926
52424SOL    HW266241   5.109   6.732  12.038  1.0737 -0.1835 -1.0462
52425SOL     OW66242   4.026  10.371   9.084  0.1086  0.7114 -0.2694
52425SOL    HW166243   4.079  10.374   9.165 -0.7240  1.3864  0.2597
52425SOL    HW266244   4.074  10.426   9.022  0.3310  0.8523  0.0217
52426SOL     OW66245   4.655   3.858   5.089 -0.8847  0.2458 -0.0274
52426SOL    HW166246   4.731   3.802   5.100 -0.8520  0.3424  0.2327
52426SOL    HW266247   4.639   3.858   4.994  1.0301  2.2715 -0.4571
52427SOL     OW66248  10.637   9.745   8.214  0.2339  0.1388 -0.6184
52427SOL    HW166249  10.564   9.695   8.177 -0.9762  0.8088  0.8021
52427SOL    HW266250  10.708   9.681   8.221 -0.7802 -0.9959 -0.3373
52428SOL     OW66251   1.948   2.582   0.324  0.2359 -0.8910 -0.9098
52428SOL    HW166252   1.976   2.565   0.414  2.1397  0.0239 -1.2787
52428SOL    HW266253   2.015   2.541   0.270  0.7642  1.1334 -1.8681
52429SOL     OW66254   3.726   2.633   3.974 -0.4027 -0.3855 -0.4651
52429SOL    HW166255   3.713   2.549   4.018 -0.5591 -0.4105 -0.5576
52429SOL    HW266256   3.787   2.613   3.903 -0.4054 -0.4142 -0.4596
52430SOL     OW66257   2.428  12.170   1.920 -0.2066 -0.2651  0.5134
52430SOL    HW166258   2.407  12.226   1.846  0.2206 -2.0525 -1.0210
52430SOL    HW266259   2.344  12.132   1.947 -0.5032  1.0759  1.5844
52431SOL     OW66260  12.283   1.020   8.743  0.7943 -0.1475  0.0640
52431SOL    HW166261  12.208   0.973   8.707  0.9733 -0.3240 -0.0789
52431SOL    HW266262  12.247   1.070   8.817  1.0102 -2.3565  1.7782
52432SOL     OW66263   7.172   4.384   9.988 -0.1209 -0.1610  0.3463
52432SOL    HW166264   7.253   4.341   9.959 -0.5010 -1.9986  1.8356
52432SOL    HW266265   7.194   4.477   9.990  0.4081  0.0572 -4.1942
52433SOL     OW66266   8.475   5.128   6.801 -0.5776 -0.3387 -0.0115
52433SOL    HW166267   8.464   5.057   6.737  1.0153 -0.9114  0.3148
52433SOL    HW266268   8.532   5.091   6.868 -0.1986  1.0683  0.4662
52434SOL     OW66269   4.436   1.214   3.788  0.5155  0.1550  0.2791
52434SOL    HW166270   4.475   1.127   3.778  0.3340 -0.0729  1.4189
52434SOL    HW266271   4.463   1.261   3.709 -0.4971 -1.3310 -1.0082
52435SOL     OW66272   8.536   2.398   0.806 -0.1318 -0.3278 -0.1758
52435SOL    HW166273   8.447   2.379   0.777 -1.3670  1.9724  1.7549
52435SOL    HW266274   8.580   2.433   0.729 -1.6176  0.6379 -0.6167
52436SOL     OW66275   1.301   2.459   8.351  0.1965 -0.6188 -0.2818
52436SOL    HW166276   1.276   2.516   8.278 -0.0551  0.9626  0.9759
52436SOL    HW266277   1.233   2.473   8.416  0.0306 -2.5418  0.0273
52437SOL     OW66278   3.793   7.519   3.608 -0.3449  0.6303 -0.3681
52437SOL    HW166279   3.810   7.542   3.516 -0.5869  1.0768 -0.3061
52437SOL    HW266280   3.867   7.463   3.632 -1.3157 -1.1991 -1.4400
52438SOL     OW66281  10.930  11.743  10.132 -0.0327  0.6163 -0.0609
52438SOL    HW166282  10.844  11.726  10.094  0.8306  1.1954 -2.4434
52438SOL    HW266283  10.911  11.787  10.215 -2.0293 -1.7978  0.9087
52439SOL     OW66284   7.100   0.111   7.850  0.3293  0.1550 -0.2637
52439SOL    HW166285   7.175   0.150   7.896  1.9744 -2.3662 -0.6157
52439SOL    HW266286   7.039   0.087   7.920  0.2992  1.2396  0.1112
52440SOL     OW66287   1.061  11.878   7.499 -0.0061  0.1664  0.7386
52440SOL    HW166288   0.989  11.818   7.520 -0.1235  0.3624  0.8944
52440SOL    HW266289   1.128  11.857   7.564  0.7360 -1.1479 -0.3933
52441SOL     OW66290   7.702   6.705  10.597 -0.0250 -0.4195 -0.2645
52441SOL    HW166291   7.697   6.612  10.616  1.0720 -1.0576 -2.7188
52441SOL    HW266292   7.787   6.716  10.553  0.1330  1.8393  0.4838
52442SOL     OW66293  11.832   9.708   5.756  0.4135  0.0684 -0.0570
52442SOL    HW166294  11.893   9.727   5.684  0.5575  1.9223  0.5024
52442SOL    HW266295  11.874   9.638   5.805  3.7353  3.1978  2.0492
52443SOL     OW66296   3.484   3.925   1.329  0.2045 -0.2086 -0.0129
52443SOL    HW166297   3.391   3.933   1.352  0.2831  0.1318  0.1924
52443SOL    HW266298   3.529   3.973   1.398  0.5188 -0.1453 -0.2655
52444SOL     OW66299  11.276   7.128   2.410 -0.0042 -0.5503  0.0545
52444SOL    HW166300  11.228   7.161   2.486 -0.9390  0.4117 -0.9104
52444SOL    HW266301  11.366   7.156   2.424 -0.3092  0.2695  0.4615
52445SOL     OW66302  11.646   6.962   6.146 -0.0104 -0.1805 -0.4997
52445SOL    HW166303  11.579   7.019   6.108 -1.3338  0.0953  2.0261
52445SOL    HW266304  11.597   6.887   6.180  0.8455  0.1777  1.6844
52446SOL     OW66305   3.069   7.919   6.861  0.3548  0.2947 -0.2249
52446SOL    HW166306   3.092   7.829   6.885  0.4000  0.0611 -1.1188
52446SOL    HW266307   3.132   7.973   6.909  0.0260 -0.1209  0.6925
52447SOL     OW66308   6.832   9.837   1.246  0.2733 -0.7395  0.2769
52447SOL    HW166309   6.869   9.914   1.288  0.8751 -0.9769  0.1854
52447SOL    HW266310   6.871   9.835   1.159 -0.5891 -0.5309 -0.1190
52448SOL     OW66311   0.767   6.037   1.016  0.3279  0.3571 -0.4665
52448SOL    HW166312   0.677   6.060   0.995 -0.1416  0.1896  1.2822
52448SOL    HW266313   0.819   6.109   0.978 -0.5918  0.9084 -0.7183
52449SOL     OW66314   6.130   7.753  11.037  0.6800  0.1768 -0.2057
52449SOL    HW166315   6.089   7.769  10.952  0.6742  2.3305  0.1495
52449SOL    HW266316   6.058   7.760  11.100  1.2669  2.6899  0.3006
52450SOL     OW66317   1.292   8.653   9.035 -0.0891  0.2877 -0.8490
52450SOL    HW166318   1.260   8.563   9.027 -0.4191  0.1920  1.0735
52450SOL    HW266319   1.326   8.674   8.948  0.5055 -1.8827 -1.2075
52451SOL     OW66320   2.417   1.385   7.754  0.2850 -0.6014 -0.6461
52451SOL    HW166321   2.406   1.291   7.738 -0.2028 -0.4231 -1.3880
52451SOL    HW266322   2.434   1.391   7.848 -2.1554 -1.2262 -0.0944
52452SOL     OW66323   4.908  12.506   4.863  0.6175  0.3918 -0.1098
52452SOL    HW166324   4.905  12.577   4.927 -0.7240  1.3195 -1.1580
52452SOL    HW266325   4.819  12.471   4.862  0.4634  0.7284 -1.7898
52453SOL     OW66326   0.517   9.913  11.657 -0.1070  0.1117  0.0801
52453SOL    HW166327   0.607   9.889  11.634 -0.0043 -0.0122  0.6062
52453SOL    HW266328   0.509   9.890  11.749  0.3481  3.0757  0.9692
52454SOL     OW66329   3.916   5.162  10.444  0.4293 -0.2497 -1.1155
52454SOL    HW166330   3.822   5.168  10.462  0.7007  1.7157 -0.0771
52454SOL    HW266331   3.955   5.133  10.527  1.0267  2.2433 -0.4513
52455SOL     OW66332   6.861   6.416   9.736 -0.3921 -0.6225  0.1019
52455SOL    HW166333   6.809   6.423   9.656 -0.5379 -1.5236  0.1134
52455SOL    HW266334   6.866   6.323   9.754 -2.2967 -0.3748  2.4169
52456SOL     OW66335   5.965   8.451   0.981  0.6452 -0.1431 -0.0599
52456SOL    HW166336   6.035   8.429   1.042 -0.9581 -2.1114  1.2282
52456SOL    HW266337   5.952   8.371   0.930 -1.6411 -0.4269  0.8350
52457SOL     OW66338   7.237  10.848   6.674 -0.3065  0.1303  0.4042
52457SOL    HW166339   7.239  10.838   6.579  0.9861  0.2137  0.4032
52457SOL    HW266340   7.204  10.937   6.687 -0.4594  0.1321  0.0449
52458SOL     OW66341   7.573   6.422   0.719 -0.0319 -0.1758  0.1513
52458SOL    HW166342   7.577   6.358   0.790  0.4311 -1.2580 -0.8060
52458SOL    HW266343   7.535   6.374   0.646  0.6241  0.5484 -0.6930
52459SOL     OW66344  10.989   5.805  11.101 -0.0751 -0.0620 -0.0997
52459SOL    HW166345  11.064   5.751  11.078 -0.0590  0.4202 -1.2823
52459SOL    HW266346  11.027   5.888  11.132 -0.0715 -1.0232  2.7125
52460SOL     OW66347   1.070   9.015   6.415 -0.1986 -0.4074 -0.6336
52460SOL    HW166348   1.044   9.107   6.416  0.5801 -0.1771 -1.1713
52460SOL    HW266349   1.162   9.016   6.443 -0.2206 -1.0355 -0.5275
52461SOL     OW66350  11.778   8.447   9.259 -0.0048  0.3399  0.0473
52461SOL    HW166351  11.789   8.430   9.166  1.9589 -3.2042  0.7116
52461SOL    HW266352  11.846   8.510   9.281 -0.2262  0.8923 -0.8353
52462SOL     OW66353  12.380   8.544   1.854  0.4053  0.0753  0.3048
52462SOL    HW166354  12.347   8.607   1.789  0.2213 -0.1387  0.1887
52462SOL    HW266355  12.332   8.464   1.836  1.7240 -0.5568 -0.5477
52463SOL     OW66356   0.965   9.324   5.568 -0.1778 -0.0045 -0.2364
52463SOL    HW166357   0.876   9.323   5.604 -0.1308 -0.6589 -0.1225
52463SOL    HW266358   1.003   9.241   5.597 -0.3557 -0.8964 -2.3692
52464SOL     OW66359   4.684  11.111   0.552  0.7508 -0.5312 -0.2822
52464SOL    HW166360   4.739  11.105   0.474 -0.9191  0.7047 -1.6423
52464SOL    HW266361   4.602  11.068   0.526 -0.1309  0.6384  0.4709
52465SOL     OW66362   5.620   0.118   8.704  0.4610  0.4753  0.6119
52465SOL    HW166363   5.649   0.190   8.761  0.3512 -0.0312  1.3171
52465SOL    HW266364   5.534   0.094   8.738  0.5803 -0.1178  0.4962
52466SOL     OW66365  12.186  10.656   2.491 -0.6151 -0.1874 -0.1215
52466SOL    HW166366  12.238  10.704   2.556  0.3847 -0.4501 -0.6944
52466SOL    HW266367  12.245  10.586   2.461 -1.9503 -1.6489  0.5234
52467SOL     OW66368   6.805   4.480   2.397  0.3216  0.2175  0.2429
52467SOL    HW166369   6.741   4.543   2.430  0.7798  0.8509 -0.0316
52467SOL    HW266370   6.865   4.466   2.471 -0.1207 -0.3669  0.4963
52468SOL     OW66371   7.078   3.461   3.382  0.1051 -0.1792 -0.2844
52468SOL    HW166372   7.064   3.370   3.357 -0.0991  0.4642 -2.6996
52468SOL    HW266373   7.168   3.480   3.358 -0.0800  0.4602 -0.4976
52469SOL     OW66374  12.167   9.286   8.311 -0.1250  0.1178 -0.1082
52469SOL    HW166375  12.238   9.349   8.298 -0.0987  0.5845  1.9944
52469SOL    HW266376  12.208   9.200   8.296  1.0663  0.3430  1.5347
52470SOL     OW66377   5.837   5.647   4.348 -0.4860 -0.4172  0.1648
52470SOL    HW166378   5.921   5.639   4.395  0.4548  1.3292 -1.0870
52470SOL    HW266379   5.799   5.728   4.382 -0.1999  0.4107 -1.3934
52471SOL     OW66380   2.802   0.768  11.803 -0.0285 -0.6431  0.2945
52471SOL    HW166381   2.782   0.791  11.712  2.6900 -1.5715 -0.6576
52471SOL    HW266382   2.773   0.843  11.854 -0.9040  0.2578 -1.4303
52472SOL     OW66383   2.294   9.100   7.753 -0.0897 -0.3150 -0.5093
52472SOL    HW166384   2.346   9.027   7.786  0.5947 -0.0019 -0.8709
52472SOL    HW266385   2.336   9.178   7.791 -0.6044 -0.0831 -0.4002
52473SOL     OW66386   5.174   7.667   2.597  0.3699 -0.2239 -0.5403
52473SOL    HW166387   5.123   7.694   2.673 -0.4556 -2.4334 -0.2299
52473SOL    HW266388   5.262   7.653   2.631  0.8165  1.8538 -0.7050
52474SOL     OW66389  11.766   7.351  11.744 -0.4446 -0.4696  0.4467
52474SOL    HW166390  11.729   7.293  11.677 -0.0631  1.4199 -1.4917
52474SOL    HW266391  11.690   7.388  11.788 -0.8330  0.7389 -1.1691
52475SOL     OW66392   3.231   5.573   4.391  0.0421 -0.1654 -0.3508
52475SOL    HW166393   3.149   5.614   4.364  0.1257 -0.2769 -0.7833
52475SOL    HW266394   3.206   5.485   4.419 -0.4041  0.7169  2.2836
52476SOL     OW66395   4.685  12.458   7.472  0.0105  0.2175 -0.1663
52476SOL    HW166396   4.653  12.548   7.462 -0.4984 -0.1140 -1.8564
52476SOL    HW266397   4.701  12.449   7.566 -0.3944  1.9116  0.1062
52477SOL     OW66398   5.427   0.670   6.571 -0.2748 -0.0111  0.8205
52477SOL    HW166399   5.428   0.687   6.477 -2.0349  2.9625  1.2326
52477SOL    HW266400   5.503   0.718   6.604  0.7185 -1.5767  0.9084
52478SOL     OW66401  11.962   9.987   8.444 -0.0044  0.7191 -0.2068
52478SOL    HW166402  11.914  10.030   8.373 -1.7908 -1.2569 -0.2657
52478SOL    HW266403  11.961   9.894   8.421  2.7935  0.4362  0.4648
52479SOL     OW66404   2.188  11.811   5.142 -0.7820 -0.1346  0.1215
52479SOL    HW166405   2.158  11.882   5.199  1.4426 -1.1531  2.8032
52479SOL    HW266406   2.282  11.828   5.131 -0.4856 -1.8867 -0.3031
52480SOL     OW66407   0.042  10.237   6.967 -0.0348 -0.2385  0.7637
52480SOL    HW166408   0.053  10.314   7.023  0.2014  0.8781 -0.7651
52480SOL    HW266409   0.025  10.273   6.880 -0.9912 -1.9276  0.2058
52481SOL     OW66410  11.069   9.299   0.302 -0.0350 -0.6750  0.0754
52481SOL    HW166411  11.143   9.343   0.259 -0.1221 -0.0856  0.5084
52481SOL    HW266412  10.992   9.349   0.273 -0.2709 -1.2949 -0.3871
52482SOL     OW66413   4.154  10.336   2.751 -0.5537  0.0692 -0.1249
52482SOL    HW166414   4.195  10.278   2.816 -0.3740 -0.7480 -0.9509
52482SOL    HW266415   4.085  10.381   2.800  0.4919  0.5309  0.9811
52483SOL     OW66416   1.271   6.980   6.001  0.4366 -0.3683  0.1198
52483SOL    HW166417   1.197   7.004   5.944 -0.7834 -1.8926  0.9717
52483SOL    HW266418   1.237   6.994   6.090  2.0769  1.3295  0.5287
52484SOL     OW66419   9.769   2.640   4.303  0.1769  0.5580 -0.0570
52484SOL    HW166420   9.859   2.629   4.332 -0.2894 -1.1078  0.9011
52484SOL    HW266421   9.755   2.569   4.240 -0.8059  0.0812  0.6799
52485SOL     OW66422   3.060   3.754   0.270  0.2549  0.2735 -0.5338
52485SOL    HW166423   3.024   3.785   0.188  1.2366 -0.9915 -1.4771
52485SOL    HW266424   3.122   3.823   0.296  0.2340  0.4870 -1.0416
52486SOL     OW66425   3.188   7.560  11.767  0.0768  0.8813  0.2599
52486SOL    HW166426   3.128   7.586  11.697 -0.0604 -1.7680 -0.7214
52486SOL    HW266427   3.212   7.643  11.809  0.2965  2.6563 -2.9849
52487SOL     OW66428   7.201   2.032   0.820  0.2962 -0.1816  0.4576
52487SOL    HW166429   7.211   1.988   0.905 -0.9573 -1.7755 -0.1639
52487SOL    HW266430   7.159   2.115   0.841 -2.4381 -1.6358  1.2573
52488SOL     OW66431   3.566   7.683   0.465 -0.5604  0.7600 -0.0439
52488SOL    HW166432   3.615   7.706   0.544 -1.1497  1.0942  0.2282
52488SOL    HW266433   3.477   7.665   0.496 -0.0781 -2.4644 -0.0974
52489SOL     OW66434   6.419  10.318   6.435 -0.4283 -0.4536 -0.3329
52489SOL    HW166435   6.388  10.292   6.522 -0.6100  1.5118  0.2386
52489SOL    HW266436   6.515  10.313   6.442 -0.4405 -2.3845 -0.7610
52490SOL     OW66437   4.173   7.062   7.409  0.0079  0.5482  0.1021
52490SOL    HW166438   4.107   7.099   7.469 -0.5741 -1.9822  1.1560
52490SOL    HW266439   4.137   7.079   7.322 -0.6685  1.6077  0.5573
52491SOL     OW66440   8.064   5.130  11.358  0.1099 -0.0401  0.2854
52491SOL    HW166441   8.043   5.053  11.409  0.7576 -0.1028  0.4704
52491SOL    HW266442   8.128   5.178  11.412 -0.2301  0.5814  0.1410
52492SOL     OW66443  10.340  10.727  10.595  0.5201  0.9633  0.6802
52492SOL    HW166444  10.390  10.673  10.533  0.5239 -0.7758  2.1150
52492SOL    HW266445  10.406  10.783  10.637  0.7348  1.0816  0.1923
52493SOL     OW66446   7.746   5.402   9.310 -0.4398 -0.1877 -0.3552
52493SOL    HW166447   7.760   5.465   9.380 -2.0351  1.3736 -1.3416
52493SOL    HW266448   7.829   5.355   9.302  1.0680  2.2565 -0.0275
52494SOL     OW66449  11.593   8.560   3.855 -0.4957 -0.1610  0.3562
52494SOL    HW166450  11.565   8.499   3.787 -0.7939  1.0942 -0.6912
52494SOL    HW266451  11.587   8.510   3.936 -1.9648 -1.1417 -0.3045
52495SOL     OW66452  12.419   4.691   8.323  0.1514 -0.2396  0.7440
52495SOL    HW166453  12.356   4.674   8.253  0.6136  2.7340 -0.5354
52495SOL    HW266454  12.386   4.640   8.397 -0.3657 -3.5147 -1.5273
52496SOL     OW66455  11.773  10.767   4.696 -0.0637 -0.0651 -0.0109
52496SOL    HW166456  11.696  10.813   4.664  0.3028 -0.9029 -2.2819
52496SOL    HW266457  11.806  10.719   4.620  0.4747 -2.8203  1.8180
52497SOL     OW66458   3.513   7.011  10.109 -0.3395  0.1831  0.1383
52497SOL    HW166459   3.444   7.072  10.132 -0.2947 -0.1653  1.2383
52497SOL    HW266460   3.586   7.067  10.080 -1.0664  0.5454 -1.0727
52498SOL     OW66461   2.019  11.440   3.493 -0.5918 -0.1516 -0.3308
52498SOL    HW166462   2.005  11.411   3.403 -1.7248  1.1483 -0.6113
52498SOL    HW266463   2.113  11.429   3.508 -0.3771 -0.3152 -1.6988
52499SOL     OW66464   7.094   9.027   0.304  0.5847  0.3242  0.0625
52499SOL    HW166465   7.140   8.964   0.248  1.9164 -0.4038  1.8823
52499SOL    HW266466   7.001   9.004   0.295  0.8640 -0.4473 -1.0208
52500SOL     OW66467   7.603   6.735   2.791 -0.2845 -0.6578  0.1248
52500SOL    HW166468   7.604   6.830   2.776 -0.0738 -0.5076  1.0243
52500SOL    HW266469   7.643   6.698   2.713 -0.6416 -0.0308 -0.3706
52501SOL     OW66470   9.401   7.742   9.378  0.2358 -0.4976  0.2488
52501SOL    HW166471   9.435   7.797   9.448 -0.6265 -0.7602  0.8968
52501SOL    HW266472   9.432   7.783   9.297  0.9972 -0.0258  0.7685
52502SOL     OW66473   3.840  12.480   3.870 -0.0743 -0.1029  0.1735
52502SOL    HW166474   3.872  12.570   3.881 -0.0630 -0.3764  3.0375
52502SOL    HW266475   3.803  12.457   3.955 -0.9900 -2.4933 -0.7940
52503SOL     OW66476   6.033   5.575  11.111 -0.4585  0.1430 -0.5635
52503SOL    HW166477   5.982   5.631  11.170  1.1329  0.8281  0.2138
52503SOL    HW266478   6.084   5.636  11.057 -0.3202 -0.5289 -1.2184
52504SOL     OW66479   7.440   4.382   4.501 -0.0524  0.0293  0.3816
52504SOL    HW166480   7.494   4.431   4.562  0.8251 -0.4157 -0.0183
52504SOL    HW266481   7.383   4.328   4.556 -0.2304  0.6431  0.8054
52505SOL     OW66482   8.520   3.730   6.579 -0.2500  0.6068 -0.0245
52505SOL    HW166483   8.544   3.815   6.543 -2.3448  0.8887 -0.9088
52505SOL    HW266484   8.597   3.675   6.564  0.7037  2.0215 -0.5195
52506SOL     OW66485  11.673   8.883   6.110 -0.2578  0.1117 -0.2231
52506SOL    HW166486  11.635   8.963   6.147 -0.7017 -0.6228  0.9400
52506SOL    HW266487  11.766   8.889   6.130  0.1928  1.4868 -2.3077
52507SOL     OW66488  11.170   9.165   7.565  0.1180  0.2522 -0.1775
52507SOL    HW166489  11.123   9.248   7.564 -1.6434 -0.7033 -0.4207
52507SOL    HW266490  11.261   9.189   7.548 -0.5477  2.0213 -1.5479
52508SOL     OW66491   1.766  10.766   2.995 -0.2820  0.4508 -0.0796
52508SOL    HW166492   1.850  10.793   3.034 -0.4602 -0.4111  0.9363
52508SOL    HW266493   1.700  10.792   3.059 -0.7512  0.5766 -0.6025
52509SOL     OW66494   6.056   8.201   8.696  0.0390 -0.5126  0.1532
52509SOL    HW166495   6.047   8.255   8.775 -0.3531  0.1275 -0.3174
52509SOL    HW266496   6.105   8.256   8.635 -2.3059  0.2905 -1.1626
52510SOL     OW66497  10.971   5.643   1.280 -0.5416  0.0061 -0.7109
52510SOL    HW166498  10.947   5.612   1.193  0.8575 -0.4508 -0.9665
52510SOL    HW266499  11.066   5.657   1.275 -0.8624  3.1639 -0.2418
52511SOL     OW66500   5.246   4.336   2.673 -0.1907  0.1921  0.2912
52511SOL    HW166501   5.205   4.260   2.713 -0.4793  0.0431 -0.2812
52511SOL    HW266502   5.327   4.349   2.723  0.6910 -1.4697 -0.6149
52512SOL     OW66503   5.004   2.899   0.869  0.2483 -0.0059 -0.3789
52512SOL    HW166504   5.027   2.981   0.912 -1.9362  1.2449 -1.4232
52512SOL    HW266505   4.918   2.876   0.904  0.8397 -1.9329 -0.0629
52513SOL     OW66506   3.798   4.473   4.358 -0.6925 -0.1948  0.1906
52513SOL    HW166507   3.861   4.511   4.296 -1.2386 -0.5397 -0.5866
52513SOL    HW266508   3.852   4.439   4.429  0.0226 -0.6795 -0.5675
52514SOL     OW66509   9.298   1.239   9.583  0.2478 -0.3666  0.4673
52514SOL    HW166510   9.375   1.229   9.639 -0.4737  0.8990  1.7545
52514SOL    HW266511   9.311   1.321   9.536  0.4453 -0.9930 -0.6137
52515SOL     OW66512   8.103   4.533   5.074 -0.0999  0.6093 -0.5727
52515SOL    HW166513   8.037   4.594   5.042 -1.2446 -0.6725 -0.7460
52515SOL    HW266514   8.104   4.463   5.008  0.6156  0.0449  0.0216
52516SOL     OW66515   8.939   7.153   6.549 -0.4140 -0.1991 -0.1859
52516SOL    HW166516   8.984   7.164   6.465  2.8250 -2.5858  1.0393
52516SOL    HW266517   8.855   7.197   6.536  1.3770  2.8348 -3.3805
52517SOL     OW66518   4.555   8.352   3.015 -0.3437 -0.0543 -0.4512
52517SOL    HW166519   4.625   8.414   2.997 -0.4148 -0.1572 -1.0912
52517SOL    HW266520   4.599   8.277   3.056  0.2165 -0.8951 -2.4592
52518SOL     OW66521   5.722   8.453  10.838  0.0059 -0.0419  0.3754
52518SOL    HW166522   5.788   8.522  10.836 -0.1125  0.0779 -1.2803
52518SOL    HW266523   5.662   8.479  10.907  0.8577  0.6534  0.8746
52519SOL     OW66524   2.340   7.876   3.511 -0.3314  0.3485  0.2280
52519SOL    HW166525   2.253   7.858   3.547 -0.0136  1.9937  1.9628
52519SOL    HW266526   2.342   7.827   3.429 -1.5582 -2.6794  1.8384
52520SOL     OW66527   4.172   4.831   8.528 -0.6079 -0.0165  0.2018
52520SOL    HW166528   4.100   4.892   8.512  0.6027  1.0967 -1.4071
52520SOL    HW266529   4.142   4.749   8.488 -1.3006  0.1973  0.2606
52521SOL     OW66530  11.031   9.704   4.701 -1.3952 -0.1727 -0.3093
52521SOL    HW166531  11.054   9.663   4.784  0.7247  0.3942 -0.5687
52521SOL    HW266532  11.101   9.679   4.640 -1.3096  1.8078 -1.1117
52522SOL     OW66533  11.576  11.755  10.588 -0.7315  0.0435  0.7116
52522SOL    HW166534  11.502  11.722  10.537 -2.0574  0.7247  2.1071
52522SOL    HW266535  11.621  11.816  10.530 -0.4375 -1.3940 -0.6206
52523SOL     OW66536   1.549   2.944   0.261 -0.1473 -0.0239 -0.5490
52523SOL    HW166537   1.508   3.025   0.290 -2.4169 -1.7035  1.2840
52523SOL    HW266538   1.565   2.894   0.341 -0.0968 -1.9611 -1.6926
52524SOL     OW66539   8.495   6.657   7.777 -0.4378 -0.0872  0.4732
52524SOL    HW166540   8.417   6.711   7.784 -0.5243 -0.0748 -0.4521
52524SOL    HW266541   8.466   6.578   7.732 -0.2566 -0.8074  1.5788
52525SOL     OW66542   9.597   5.571  10.634  0.0650 -0.2556  0.4143
52525SOL    HW166543   9.575   5.630  10.706  0.9659  0.1042  0.4057
52525SOL    HW266544   9.680   5.531  10.661 -0.0543 -0.8041 -0.0172
52526SOL     OW66545   2.137   6.103   6.386  0.2509  0.1534 -0.3095
52526SOL    HW166546   2.212   6.162   6.381  0.1432  0.3240  0.0365
52526SOL    HW266547   2.142   6.050   6.306  0.6421  0.2777 -0.3677
52527SOL     OW66548   2.726  11.999   3.064 -0.0121 -0.3418  0.5028
52527SOL    HW166549   2.650  11.995   3.006 -0.5842  1.0087  1.1016
52527SOL    HW266550   2.801  11.981   3.008 -0.5438  1.0085 -0.6770
52528SOL     OW66551   1.813   5.223   2.303  0.8724  0.0537 -0.5394
52528SOL    HW166552   1.855   5.237   2.218  1.2982 -0.3525 -0.3982
52528SOL    HW266553   1.729   5.183   2.282  1.6155 -1.4687 -0.6982
52529SOL     OW66554  12.482   4.747  12.565 -0.0266 -0.5508  0.3121
52529SOL    HW166555  12.422   4.819  12.547  0.2601 -0.2887  0.3869
52529SOL    HW266556  12.431   4.684  12.616 -0.2145 -0.3000  0.4325
52530SOL     OW66557   1.511   4.449   5.146 -0.1383 -0.5440 -0.3040
52530SOL    HW166558   1.482   4.358   5.156  2.3066 -1.5802 -1.7318
52530SOL    HW266559   1.477   4.477   5.061  1.3197 -1.0936 -1.0944
52531SOL     OW66560   3.799  12.159   1.417 -0.1523  0.1090  0.1362
52531SOL    HW166561   3.865  12.221   1.384  0.7952 -0.4625  0.8959
52531SOL    HW266562   3.821  12.148   1.509 -1.7106  0.3697  0.5688
52532SOL     OW66563   7.107   2.419   2.860  0.0187  0.2846 -0.1287
52532SOL    HW166564   7.027   2.371   2.880 -0.5498  1.3935  0.3479
52532SOL    HW266565   7.169   2.352   2.829 -1.1385 -0.5590 -0.6713
52533SOL     OW66566   2.462   2.719   9.071 -0.5099  0.3433 -0.6495
52533SOL    HW166567   2.402   2.733   8.998  0.1411 -2.0328 -1.7486
52533SOL    HW266568   2.405   2.716   9.148 -1.5754  0.0036 -1.4275
52534SOL     OW66569   4.338   6.563   8.553  0.2476  0.5431  0.5425
52534SOL    HW166570   4.290   6.618   8.615  0.2433  0.8275  0.2883
52534SOL    HW266571   4.396   6.510   8.608 -1.1630 -0.6524  0.9598
52535SOL     OW66572   8.244   0.182   1.554  0.1512  0.4564  0.3558
52535SOL    HW166573   8.268   0.179   1.462  0.2935 -0.9346  0.4101
52535SOL    HW266574   8.158   0.223   1.556  0.8005  1.8992 -0.2272
52536SOL     OW66575   9.046   7.121   4.989 -0.1255  0.0450  0.1434
52536SOL    HW166576   9.082   7.033   4.984  0.4867  0.2155  1.2135
52536SOL    HW266577   8.988   7.119   5.066  0.3332  0.7114  0.5218
52537SOL     OW66578   0.730   5.688   0.384 -0.1574 -0.0406  0.3430
52537SOL    HW166579   0.805   5.735   0.418 -1.0520  1.7538 -0.0220
52537SOL    HW266580   0.677   5.666   0.461 -0.0106  0.0597  0.4715
52538SOL     OW66581   6.161   3.321   2.003  0.2022 -0.4507  0.0416
52538SOL    HW166582   6.175   3.365   2.086 -0.5769 -0.2848  0.0876
52538SOL    HW266583   6.092   3.371   1.959  1.3498  0.1269 -1.1935
52539SOL     OW66584   6.330   8.575   8.758 -0.3513  0.4441  0.2099
52539SOL    HW166585   6.307   8.513   8.689  1.0732  1.5410 -1.3179
52539SOL    HW266586   6.253   8.577   8.815 -1.0537 -1.4759 -0.5919
52540SOL     OW66587   8.895   0.162   5.953  0.1551 -0.3624  0.4750
52540SOL    HW166588   8.800   0.174   5.957  0.0005 -0.8124 -1.1143
52540SOL    HW266589   8.916   0.108   6.029 -1.0091 -1.0923  0.2893
52541SOL     OW66590   3.699   5.075   0.651 -0.2504 -0.4418 -0.3061
52541SOL    HW166591   3.716   5.110   0.564  2.3549  0.6696  0.5617
52541SOL    HW266592   3.753   4.996   0.656  0.6077  0.1847  0.6928
52542SOL     OW66593  10.347   9.706   3.946 -0.4447  0.0806 -0.5110
52542SOL    HW166594  10.274   9.647   3.965  0.9551 -1.4550  0.3489
52542SOL    HW266595  10.395   9.664   3.875  0.0677  0.6433 -0.5113
52543SOL     OW66596   6.503  11.890   9.706 -0.2226  0.7225 -0.4396
52543SOL    HW166597   6.573  11.954   9.721 -0.6606  1.8052 -2.6403
52543SOL    HW266598   6.513  11.863   9.615 -1.2749 -0.8855 -0.1339
52544SOL     OW66599   6.842  11.202   2.661 -0.3187  0.0445 -0.3043
52544SOL    HW166600   6.768  11.223   2.606 -0.1615  1.6550  0.0627
52544SOL    HW266601   6.864  11.284   2.706 -1.0420 -1.3458  2.9066
52545SOL     OW66602  11.866  10.826   4.963 -0.4805 -0.2574 -0.0584
52545SOL    HW166603  11.811  10.753   4.991  1.7898 -3.0276 -2.1447
52545SOL    HW266604  11.857  10.828   4.868  1.5525  0.3592 -0.2849
52546SOL     OW66605   9.064  12.187   3.060 -0.7279 -0.1818  0.0921
52546SOL    HW166606   9.106  12.192   2.975 -0.0566 -2.1271  0.2706
52546SOL    HW266607   9.053  12.093   3.077 -1.8429  0.1777  1.6634
52547SOL     OW66608   5.156   4.182   2.031 -0.1334 -1.0286  0.7141
52547SOL    HW166609   5.089   4.208   2.095  0.1919 -1.9891  1.4682
52547SOL    HW266610   5.231   4.237   2.052 -0.2287 -0.9072  0.7447
52548SOL     OW66611   5.940   3.108  10.970  0.3732  0.3604  0.4582
52548SOL    HW166612   5.911   3.114  11.061 -0.6265 -2.6990  0.4524
52548SOL    HW266613   6.035   3.107  10.975  0.3336 -1.1850  1.6694
52549SOL     OW66614   1.418   6.053   6.161  0.7650  0.1973  0.5921
52549SOL    HW166615   1.441   6.115   6.092 -0.9333 -1.7876 -1.9224
52549SOL    HW266616   1.401   6.108   6.238 -2.2496  3.1215 -1.8737
52550SOL     OW66617   0.416   6.201   5.867  0.7893 -0.5637 -0.7547
52550SOL    HW166618   0.464   6.186   5.949  0.5940 -1.3558 -0.7725
52550SOL    HW266619   0.393   6.294   5.869  1.4132 -0.4182 -0.2519
52551SOL     OW66620   9.408   8.283   5.525  0.2856  0.3580 -0.3219
52551SOL    HW166621   9.343   8.295   5.594 -0.4563  1.2630 -1.1522
52551SOL    HW266622   9.406   8.189   5.507  1.4931 -0.1402  1.8110
52552SOL     OW66623   0.808   3.858   5.162 -0.2421  0.2598 -0.2161
52552SOL    HW166624   0.737   3.798   5.138 -0.9352  0.2603  1.6526
52552SOL    HW266625   0.765   3.941   5.179  0.1903  0.2739  0.8885
52553SOL     OW66626   3.355   7.409   0.872  0.3187  0.3034  0.5385
52553SOL    HW166627   3.343   7.320   0.905 -2.7232  0.0864 -0.8083
52553SOL    HW266628   3.339   7.402   0.778  1.1092  2.1082  0.2333
52554SOL     OW66629  11.509   7.792   5.455  0.4737  0.6388 -0.2180
52554SOL    HW166630  11.420   7.761   5.439  0.6215  0.8626 -1.5439
52554SOL    HW266631  11.498   7.869   5.511  0.0127 -0.8612  1.8738
52555SOL     OW66632   5.346   8.262   3.684 -0.1888 -0.0029  0.2855
52555SOL    HW166633   5.434   8.238   3.713 -0.6342 -2.7210 -0.3665
52555SOL    HW266634   5.288   8.199   3.726 -1.8113  1.4379  0.3212
52556SOL     OW66635   7.421   1.090   0.922  0.3176 -0.1387 -0.1201
52556SOL    HW166636   7.349   1.088   0.859 -0.3640  0.5232  0.6065
52556SOL    HW266637   7.414   1.176   0.963  0.4009 -0.7451  1.2287
52557SOL     OW66638   6.151   6.303   2.541  0.0431  0.2667 -0.0528
52557SOL    HW166639   6.103   6.383   2.522 -0.7783 -0.1862  0.0551
52557SOL    HW266640   6.130   6.244   2.469 -1.2160 -0.6368  1.0018
52558SOL     OW66641   8.780   5.463   5.623 -0.1124 -0.7221  0.4325
52558SOL    HW166642   8.739   5.549   5.618 -0.1491 -0.7964 -1.0473
52558SOL    HW266643   8.751   5.427   5.707  2.1276  1.7825  2.4714
52559SOL     OW66644   8.867   3.463   3.521 -0.6078  0.1898  0.0144
52559SOL    HW166645   8.898   3.553   3.525 -0.2854  0.1178 -0.7904
52559SOL    HW266646   8.937   3.411   3.561 -0.1481  0.1401 -0.8514
52560SOL     OW66647   8.612  11.675   8.689  0.0486  0.2130  0.6144
52560SOL    HW166648   8.521  11.674   8.720  0.3402 -1.9066  1.5776
52560SOL    HW266649   8.642  11.764   8.708 -1.6564  0.8118  0.7500
52561SOL     OW66650   4.315  10.459   0.965  0.4980 -0.1754  0.2169
52561SOL    HW166651   4.264  10.408   0.902 -0.1750  0.4975  0.1966
52561SOL    HW266652   4.403  10.464   0.927  0.0886  0.2661 -0.6930
52562SOL     OW66653   7.774  11.510  10.386 -0.0412  0.1552  0.0089
52562SOL    HW166654   7.735  11.509  10.298 -1.2056 -1.9438  0.4760
52562SOL    HW266655   7.763  11.600  10.417  0.1277  0.8662 -1.8528
52563SOL     OW66656   6.986   1.170   3.265 -0.3328 -0.3063 -0.5072
52563SOL    HW166657   6.914   1.169   3.202  0.1055 -3.2709 -1.0844
52563SOL    HW266658   7.061   1.138   3.216  1.4684  2.5836  0.1290
52564SOL     OW66659   9.047   3.862   1.149 -0.0746 -0.3175 -0.2560
52564SOL    HW166660   8.973   3.800   1.146 -1.4412  1.2603 -1.3894
52564SOL    HW266661   9.106   3.825   1.214 -0.5650 -3.0653 -1.2231
52565SOL     OW66662  10.296   3.641   4.651 -0.7715  0.3090 -0.4024
52565SOL    HW166663  10.208   3.613   4.678 -0.5468 -1.7625 -1.5995
52565SOL    HW266664  10.335   3.676   4.731 -1.7218 -1.3782  0.8824
52566SOL     OW66665   0.357   4.278   8.111  0.0892 -0.4367  0.7369
52566SOL    HW166666   0.394   4.282   8.022  0.0598  4.8857  0.6651
52566SOL    HW266667   0.426   4.238   8.164  0.0884 -3.8057 -1.5140
52567SOL     OW66668   0.898   9.047   4.242 -0.0571  0.1158 -0.4196
52567SOL    HW166669   0.807   9.072   4.223 -0.3172 -0.8584 -0.4943
52567SOL    HW266670   0.891   8.963   4.287  0.8642 -0.5858 -1.5442
52568SOL     OW66671   4.174   1.603   3.850  0.0973 -0.0456 -0.3354
52568SOL    HW166672   4.145   1.520   3.887  1.0617  0.1061  0.8346
52568SOL    HW266673   4.265   1.588   3.825  0.6063  0.9406  0.8473
52569SOL     OW66674   7.710   9.356   4.299 -0.0170 -0.3236  0.2962
52569SOL    HW166675   7.699   9.320   4.211 -3.2721  0.5986  0.2205
52569SOL    HW266676   7.657   9.436   4.300 -1.4428 -1.1548  3.5565
52570SOL     OW66677  11.870  10.755  10.041 -0.6126 -0.3263  0.7018
52570SOL    HW166678  11.940  10.772  10.103 -0.1744  0.8810 -0.0942
52570SOL    HW266679  11.817  10.835  10.041 -0.7982 -0.4348 -0.2289
52571SOL     OW66680   4.247  11.105   1.503  0.6053  0.2429  0.1669
52571SOL    HW166681   4.283  11.162   1.571 -0.4459  0.8072  0.2739
52571SOL    HW266682   4.161  11.141   1.484 -0.4143 -1.7321  0.7562
52572SOL     OW66683  10.656   2.845   6.841  0.3219 -0.3856 -0.3680
52572SOL    HW166684  10.659   2.915   6.906  0.0237 -1.0021  0.3080
52572SOL    HW266685  10.592   2.782   6.874 -0.8709 -0.0624 -1.9186
52573SOL     OW66686   1.554  10.882   2.526  0.1362  0.2824  0.6423
52573SOL    HW166687   1.460  10.868   2.523  0.3852 -1.8431  1.2539
52573SOL    HW266688   1.576  10.885   2.619  0.4847  2.6598  0.5477
52574SOL     OW66689   2.537  10.276   6.454  0.3322 -0.5805 -0.0633
52574SOL    HW166690   2.534  10.235   6.368 -0.2342 -1.8640  0.5352
52574SOL    HW266691   2.535  10.370   6.436  1.2841 -0.7974 -1.4764
52575SOL     OW66692   1.271   2.433   5.777 -0.2869  0.1383  0.8179
52575SOL    HW166693   1.309   2.354   5.813  0.8731 -0.3147 -1.2464
52575SOL    HW266694   1.227   2.405   5.696  2.9367  1.8797 -1.8188
52576SOL     OW66695   9.246   3.343  11.227  0.2984 -0.3140  0.6943
52576SOL    HW166696   9.167   3.345  11.281  0.2483  0.5600  0.5977
52576SOL    HW266697   9.244   3.257  11.185 -0.8586 -0.1085  0.3111
52577SOL     OW66698  10.730  12.389   6.249  0.1014 -0.3898 -0.5239
52577SOL    HW166699  10.708  12.307   6.294  1.8498 -0.5785  0.0489
52577SOL    HW266700  10.660  12.449   6.274  0.3642 -0.8475  1.4840
52578SOL     OW66701   4.045   0.824   6.025 -0.3798  0.6924 -0.7269
52578SOL    HW166702   4.050   0.897   5.963 -0.7688  1.6726  0.3580
52578SOL    HW266703   3.952   0.808   6.036 -0.2953 -0.4519 -1.4683
52579SOL     OW66704  10.595   4.959  11.155 -0.0834 -0.3902 -0.2865
52579SOL    HW166705  10.617   4.869  11.132  1.2479 -0.0491 -0.4162
52579SOL    HW266706  10.501   4.966  11.138 -1.0438 -2.7576  2.9967
52580SOL     OW66707   7.761   5.239   4.567 -0.4694  0.0945  0.3634
52580SOL    HW166708   7.693   5.183   4.602 -1.6504  0.7093 -0.8663
52580SOL    HW266709   7.750   5.322   4.613 -0.1467  0.0093  0.5996
52581SOL     OW66710  12.454   7.081   1.466 -0.4128  0.2314  0.0526
52581SOL    HW166711  12.543   7.114   1.456 -0.5986  0.8249  0.3277
52581SOL    HW266712  12.428   7.054   1.378  0.7434 -1.8070  0.2746
52582SOL     OW66713  10.194   9.601   9.711 -0.2033  0.1754 -0.3395
52582SOL    HW166714  10.151   9.594   9.626 -0.0014  0.1575 -0.4413
52582SOL    HW266715  10.207   9.695   9.724 -0.7122  0.2129 -0.0872
52583SOL     OW66716   5.711   9.118   2.655 -0.0483  0.3371  0.7492
52583SOL    HW166717   5.759   9.120   2.572 -2.7756  1.1291 -0.9301
52583SOL    HW266718   5.738   9.198   2.700 -1.4865  2.0991 -1.2946
52584SOL     OW66719   6.220   6.992  11.849  0.5818 -0.4329 -0.4914
52584SOL    HW166720   6.152   6.958  11.907 -0.9239 -0.4116 -2.1236
52584SOL    HW266721   6.266   7.058  11.901 -0.7283 -0.3682  0.6413
52585SOL     OW66722  11.521   1.603  10.630  0.3648  0.0863  0.8445
52585SOL    HW166723  11.591   1.561  10.581  2.6434  1.4694  2.6590
52585SOL    HW266724  11.454   1.623  10.565  1.8779 -0.8656 -1.0997
52586SOL     OW66725   8.641   1.210  12.366 -0.0133 -0.1201  0.0765
52586SOL    HW166726   8.691   1.291  12.376  0.7455 -0.7249  1.5565
52586SOL    HW266727   8.589   1.224  12.288 -0.5498  2.1406  0.7501
52587SOL     OW66728   0.109   4.304   5.746 -0.4499 -0.9604 -0.1660
52587SOL    HW166729   0.092   4.234   5.683  0.5531 -0.2265 -1.3122
52587SOL    HW266730   0.200   4.291   5.773 -0.4882 -0.5409  0.1834
52588SOL     OW66731  11.832   2.859   5.925 -0.1826 -0.3338  0.5196
52588SOL    HW166732  11.805   2.827   6.011  0.0621  0.8943  1.0659
52588SOL    HW266733  11.838   2.779   5.871 -1.7662 -0.9720  1.2200
52589SOL     OW66734   8.739   7.488   2.757 -0.0030 -0.9844  0.2747
52589SOL    HW166735   8.680   7.416   2.732  0.8239 -1.0475 -1.6437
52589SOL    HW266736   8.696   7.567   2.725 -0.3801 -0.6969  1.4190
52590SOL     OW66737   6.185   5.132   8.880  0.6366  0.0201 -0.2915
52590SOL    HW166738   6.105   5.183   8.870  1.1185  0.4295 -2.6814
52590SOL    HW266739   6.169   5.051   8.830  1.9542  0.4760 -1.5323
52591SOL     OW66740   8.029   1.634   7.620 -0.5833 -0.4780 -0.0914
52591SOL    HW166741   8.111   1.590   7.597 -1.2215 -2.1334  0.6312
52591SOL    HW266742   7.974   1.626   7.542 -0.6901 -0.9639  0.0309
52592SOL     OW66743   1.522   5.103   6.899 -0.3449  0.1087 -0.5952
52592SOL    HW166744   1.461   5.143   6.837 -1.3225 -1.5116 -0.7350
52592SOL    HW266745   1.561   5.031   6.850 -0.5450 -0.7096  0.4199
52593SOL     OW66746   5.884   2.676   0.238  0.3726 -0.2373  0.1518
52593SOL    HW166747   5.849   2.662   0.150 -1.7103 -1.8629  1.1504
52593SOL    HW266748   5.868   2.769   0.255  2.1775  0.4695 -1.6814
52594SOL     OW66749   6.275   8.891  10.668  0.1428 -0.4521  0.3342
52594SOL    HW166750   6.313   8.857  10.748  0.5023 -0.7450  0.0449
52594SOL    HW266751   6.225   8.818  10.632  0.3050 -0.4490  0.0942
52595SOL     OW66752  10.360  12.172  11.224 -0.0639  0.5751 -0.0409
52595SOL    HW166753  10.424  12.186  11.293 -0.3323 -0.6415  0.4852
52595SOL    HW266754  10.277  12.161  11.270 -0.4832  1.1624 -0.6501
52596SOL     OW66755   7.733  10.903   1.651  0.3809  0.0212  0.3708
52596SOL    HW166756   7.752  10.983   1.698  0.5446  0.4317 -0.3709
52596SOL    HW266757   7.817  10.877   1.613  0.0879  0.1630 -0.3893
52597SOL     OW66758   7.434   9.277   6.779  0.5290  0.0140 -0.7319
52597SOL    HW166759   7.506   9.219   6.754  0.6943  0.0811 -0.4141
52597SOL    HW266760   7.473   9.365   6.776  0.5105  0.0340 -0.3678
52598SOL     OW66761   5.808   0.955   8.029 -0.1802 -0.1814  0.1646
52598SOL    HW166762   5.844   0.875   7.993  0.5452 -0.2776  1.0485
52598SOL    HW266763   5.763   0.928   8.109  0.4120  0.3152  0.6884
52599SOL     OW66764   7.870   7.979  11.502  0.0329  0.3983 -0.2453
52599SOL    HW166765   7.878   8.010  11.412  1.6343 -0.2107 -0.3543
52599SOL    HW266766   7.958   7.949  11.525 -0.4854 -0.0466  1.3121
52600SOL     OW66767   2.283   4.259   0.667 -0.4537 -0.0595 -0.0485
52600SOL    HW166768   2.320   4.187   0.718 -0.1645 -0.4080 -0.7457
52600SOL    HW266769   2.285   4.228   0.576  1.6954  1.6248 -0.6657
52601SOL     OW66770  10.696  10.074   2.405 -0.2157 -0.5520 -0.2358
52601SOL    HW166771  10.782  10.031   2.405  0.0637 -0.0459  0.7713
52601SOL    HW266772  10.667  10.067   2.496 -1.3674 -0.9403 -0.6230
52602SOL     OW66773   4.527   1.739   0.513 -0.4184 -0.0293 -0.5200
52602SOL    HW166774   4.606   1.686   0.517  0.0938  0.7822  1.1093
52602SOL    HW266775   4.513   1.768   0.603 -0.6652  2.5769 -1.3007
52603SOL     OW66776   6.384   1.200  12.123 -0.0569  0.2576  0.4206
52603SOL    HW166777   6.313   1.139  12.146  0.5200 -0.8800 -0.6562
52603SOL    HW266778   6.464   1.151  12.142  0.4197  0.5825 -0.6499
52604SOL     OW66779   4.241   2.160   5.458 -0.1654 -0.1252 -0.0113
52604SOL    HW166780   4.231   2.065   5.467 -2.1439 -0.3616 -2.9180
52604SOL    HW266781   4.165   2.186   5.405  1.3493  2.7654 -0.9823
52605SOL     OW66782  11.320   2.992   9.563 -0.1930  0.2413 -0.0044
52605SOL    HW166783  11.263   2.920   9.535 -1.1187 -0.1310  2.5641
52605SOL    HW266784  11.261   3.067   9.573 -0.2560 -0.0534  2.3297
52606SOL     OW66785   3.011   3.234   8.195 -0.1768  0.3170 -0.8156
52606SOL    HW166786   2.955   3.302   8.159 -0.0509  1.1200  0.4290
52606SOL    HW266787   3.089   3.235   8.139  0.1252  1.7047 -0.4225
52607SOL     OW66788   8.132  11.946   2.907  0.1812  0.1324 -0.1097
52607SOL    HW166789   8.114  12.030   2.865 -1.3354 -0.1501 -0.0822
52607SOL    HW266790   8.144  11.885   2.834 -1.6398 -0.1906 -0.1930
52608SOL     OW66791   5.430   7.194   6.912  0.1296  0.4316  0.1723
52608SOL    HW166792   5.452   7.234   6.996  1.0725  0.7403 -0.2212
52608SOL    HW266793   5.368   7.254   6.872  3.0369  2.6433 -1.3229
52609SOL     OW66794  10.318  10.663   3.571  0.2147  0.0860 -0.3977
52609SOL    HW166795  10.253  10.734   3.567  0.5426  0.3426 -1.4240
52609SOL    HW266796  10.297  10.617   3.652  0.4454  1.7751  0.6859
52610SOL     OW66797   3.763  12.558   7.487  0.0237 -0.0626  0.0711
52610SOL    HW166798   3.858  12.559   7.483  0.0157 -1.4039 -1.2352
52610SOL    HW266799   3.742  12.534   7.577  0.7951  4.0534  1.5822
52611SOL     OW66800  10.656   8.751   5.636 -0.3551 -0.0621 -0.0607
52611SOL    HW166801  10.702   8.831   5.661 -2.0419  0.6215  1.0297
52611SOL    HW266802  10.699   8.723   5.555  1.0208  1.2850  0.1548
52612SOL     OW66803  10.818  11.963   6.662 -0.4542 -0.3619  0.0736
52612SOL    HW166804  10.749  11.898   6.647 -0.9776  0.5523 -1.8294
52612SOL    HW266805  10.894  11.927   6.616 -0.1749 -0.5263  0.6594
52613SOL     OW66806   8.510   5.497   4.005 -0.1761  0.5119  0.0690
52613SOL    HW166807   8.566   5.442   4.060  0.2165 -1.4115 -2.1165
52613SOL    HW266808   8.421   5.481   4.038  0.2670  1.8310  2.0861
52614SOL     OW66809  11.827   5.125   8.001  0.6738  0.1713  0.0994
52614SOL    HW166810  11.761   5.178   7.957  1.2563 -0.2018 -1.2972
52614SOL    HW266811  11.906   5.136   7.948  0.8574 -1.9232 -0.1618
52615SOL     OW66812   2.974   1.487   4.712  0.1488  0.1217 -0.1570
52615SOL    HW166813   2.879   1.474   4.719  0.2755  0.0725  3.2028
52615SOL    HW266814   3.002   1.423   4.647 -1.8726 -1.4203  0.3855
52616SOL     OW66815   6.534   5.985  10.539  0.5681 -0.4160 -0.0408
52616SOL    HW166816   6.544   5.894  10.511 -0.9173 -0.2135 -1.2974
52616SOL    HW266817   6.554   5.983  10.633  1.8501 -1.7796 -0.3002
52617SOL     OW66818  11.253   1.939   2.240  0.1061 -0.4598  0.0644
52617SOL    HW166819  11.195   1.957   2.313  2.7237  2.6347  1.6367
52617SOL    HW266820  11.208   1.975   2.164 -0.3703  1.3502  1.1416
52618SOL     OW66821   5.344   7.975  11.203 -1.0878  0.1871  0.0185
52618SOL    HW166822   5.395   7.981  11.123 -1.0319 -0.7760 -0.0327
52618SOL    HW266823   5.296   8.057  11.208 -1.4917  0.0397 -1.2766
52619SOL     OW66824   4.047  11.722   9.579  0.0052 -0.1824  0.7241
52619SOL    HW166825   4.080  11.632   9.577  0.9991  0.0634 -3.6467
52619SOL    HW266826   4.107  11.771   9.524 -1.2554  2.9668  1.9073
52620SOL     OW66827   8.118   2.017   0.121  0.0088 -0.3182  0.5689
52620SOL    HW166828   8.195   1.971   0.088  0.9056  1.5549 -0.0771
52620SOL    HW266829   8.054   2.011   0.051 -0.7962 -2.5166  1.3842
52621SOL     OW66830  11.822   4.618   9.978 -0.3302  0.6250  0.5549
52621SOL    HW166831  11.877   4.633   9.901 -0.8409 -1.8961 -0.3880
52621SOL    HW266832  11.879   4.578  10.042 -0.5797 -0.0361  0.3673
52622SOL     OW66833   4.279  11.650   5.274 -0.0286  0.3738  0.0978
52622SOL    HW166834   4.217  11.633   5.203 -0.3055 -3.4761  1.0474
52622SOL    HW266835   4.365  11.651   5.231 -0.2683 -0.8711 -0.4483
52623SOL     OW66836   3.428   3.967   9.597  0.2069 -0.4681 -0.8391
52623SOL    HW166837   3.379   4.037   9.554  0.5691 -0.6951 -1.6347
52623SOL    HW266838   3.518   3.999   9.600  0.1128 -0.2637  0.1729
52624SOL     OW66839  12.355   1.708   0.288  0.6842  0.5217  0.2134
52624SOL    HW166840  12.405   1.670   0.217  1.6046  0.9959  0.5963
52624SOL    HW266841  12.316   1.787   0.251  0.0195  0.0363 -0.1463
52625SOL     OW66842   6.091  11.667   4.777  0.1696 -0.1486 -0.4859
52625SOL    HW166843   6.058  11.578   4.785  1.0188 -0.4903 -0.6297
52625SOL    HW266844   6.016  11.723   4.798 -0.5514 -0.8774 -1.0640
52626SOL     OW66845  12.264   3.709   8.805  0.5600  0.1763  0.7643
52626SOL    HW166846  12.274   3.704   8.709 -1.4851 -0.5617  0.5241
52626SOL    HW266847  12.292   3.623   8.836  2.1019  0.7321  0.9466
52627SOL     OW66848   9.891  11.386   1.877  0.1831  0.1686 -0.6702
52627SOL    HW166849   9.936  11.325   1.819  2.9247  1.5508 -0.1526
52627SOL    HW266850   9.917  11.360   1.965 -0.6398  0.5923 -0.2856
52628SOL     OW66851   7.966   6.932  10.580  0.3952  0.1158  0.7543
52628SOL    HW166852   7.979   6.837  10.578 -0.2679  0.0354 -0.4212
52628SOL    HW266853   8.004   6.964  10.498 -0.1880  0.7527  0.7220
52629SOL     OW66854   8.165   7.091  11.142 -0.2620  0.2266  0.0983
52629SOL    HW166855   8.231   7.138  11.092  0.2220 -2.8656 -2.4767
52629SOL    HW266856   8.083   7.110  11.098 -0.4946  0.7093  0.7134
52630SOL     OW66857  12.453   0.083   0.583 -0.1017 -0.0545 -0.2680
52630SOL    HW166858  12.364   0.067   0.613 -0.1363  2.6752  1.4140
52630SOL    HW266859  12.455   0.049   0.494 -0.8858 -5.8992  1.5335
52631SOL     OW66860   8.765   5.610   7.312  0.3926  0.1631 -0.6498
52631SOL    HW166861   8.765   5.515   7.318 -1.8010 -0.1016 -2.9360
52631SOL    HW266862   8.795   5.628   7.222 -1.2681  1.4554 -1.0006
52632SOL     OW66863   3.937   2.885  11.591  0.1220  0.3789  0.5247
52632SOL    HW166864   3.968   2.954  11.650 -0.9926  0.8354  0.5831
52632SOL    HW266865   3.912   2.814  11.649 -0.4802  0.6294  0.5722
52633SOL     OW66866  11.791  11.787   7.799 -0.4329 -0.9832  0.6545
52633SOL    HW166867  11.813  11.694   7.804 -0.5870 -0.9899  1.3380
52633SOL    HW266868  11.734  11.803   7.875  0.9621  0.0229  1.5561
52634SOL     OW66869  11.910   5.173   4.870  0.9028 -0.3773  0.6226
52634SOL    HW166870  11.935   5.244   4.930 -0.0886 -0.4543  1.1513
52634SOL    HW266871  11.861   5.217   4.801  1.1968 -0.4184  0.3852
52635SOL     OW66872   2.580  11.123   1.629 -0.5294  0.1919  0.4158
52635SOL    HW166873   2.651  11.163   1.680 -1.5204 -0.2020  2.2054
52635SOL    HW266874   2.549  11.051   1.685 -1.5487 -0.3902 -0.8654
52636SOL     OW66875   6.462  11.969   8.742  0.4551 -0.2714  0.2164
52636SOL    HW166876   6.557  11.969   8.745  0.5950  1.6255 -1.6201
52636SOL    HW266877   6.438  12.060   8.725 -1.6756 -0.7220  0.4827
52637SOL     OW66878   3.862   4.854  11.700 -0.0957  0.1553  0.0611
52637SOL    HW166879   3.915   4.920  11.655  0.9108 -1.0747 -0.6298
52637SOL    HW266880   3.918   4.825  11.773  0.2734 -1.2603 -0.7586
52638SOL     OW66881  11.424   2.690   9.221 -0.9901 -0.3011 -0.4299
52638SOL    HW166882  11.471   2.627   9.275  1.3575  1.1077 -0.6664
52638SOL    HW266883  11.370   2.739   9.283  0.2274  0.0568  0.3917
52639SOL     OW66884   3.288  11.549   0.591  0.4853  0.0009  0.7105
52639SOL    HW166885   3.360  11.486   0.577  0.2255 -0.5262  1.6687
52639SOL    HW266886   3.288  11.564   0.686 -0.8593 -0.2419  0.7666
52640SOL     OW66887  11.865   3.689   6.974  0.2262 -0.0259  0.4719
52640SOL    HW166888  11.904   3.777   6.980 -1.4442  0.7609  0.3847
52640SOL    HW266889  11.780   3.704   6.932 -0.8171 -1.4456  1.9689
52641SOL     OW66890  10.723  11.152   8.705  0.5615  0.0006 -0.1516
52641SOL    HW166891  10.644  11.205   8.700  0.3421 -0.1933  0.9996
52641SOL    HW266892  10.782  11.191   8.640 -0.4778  0.1167 -1.0468
52642SOL     OW66893   2.070   9.464   1.159  0.1996 -0.1890  0.6787
52642SOL    HW166894   2.028   9.437   1.241 -0.5394 -1.2911 -0.0501
52642SOL    HW266895   2.140   9.524   1.187 -1.0887  0.7652  1.9922
52643SOL     OW66896  12.167   8.503   7.990  0.1753 -0.6926  0.2312
52643SOL    HW166897  12.138   8.588   7.959  2.4840  0.7373  1.7305
52643SOL    HW266898  12.087   8.460   8.021 -1.0024  0.9904 -0.3612
52644SOL     OW66899   3.990  10.477   7.495  0.3012 -0.1047  0.1766
52644SOL    HW166900   3.932  10.462   7.570  1.1129  0.3021  0.9020
52644SOL    HW266901   4.078  10.474   7.532  0.6614  1.9529 -0.4121
52645SOL     OW66902   0.604   7.717   5.102  0.3507  0.4344 -0.7108
52645SOL    HW166903   0.696   7.699   5.123  0.1063 -0.6814 -0.5124
52645SOL    HW266904   0.607   7.767   5.021  1.1285  0.2725 -0.7876
52646SOL     OW66905   6.134   7.654   6.957  0.2370  0.1689 -0.1568
52646SOL    HW166906   6.164   7.742   6.981  0.9732 -0.1592  0.1559
52646SOL    HW266907   6.048   7.646   6.999 -0.2986  1.1082 -1.0259
52647SOL     OW66908   0.699  12.438   6.696  0.0980 -0.4706  0.2235
52647SOL    HW166909   0.683  12.346   6.676 -0.2339 -0.3121 -0.2723
52647SOL    HW266910   0.722  12.439   6.789 -2.2192 -0.8031  0.8618
52648SOL     OW66911  12.394   3.573  11.752  0.1024  0.8763 -0.3251
52648SOL    HW166912  12.445   3.544  11.677 -0.5160  4.1811 -2.2378
52648SOL    HW266913  12.455   3.626  11.803  0.3623 -0.8910  1.2736
52649SOL     OW66914   6.637  10.261   9.186 -0.8640 -0.4274 -0.2734
52649SOL    HW166915   6.715  10.317   9.181 -0.1851 -1.4091 -1.2311
52649SOL    HW266916   6.566  10.316   9.153 -0.2170 -0.1049 -1.1733
52650SOL     OW66917  11.506   2.466   2.392  0.0355 -0.3544 -0.2226
52650SOL    HW166918  11.445   2.458   2.465  0.6969 -1.9539  0.2091
52650SOL    HW266919  11.572   2.529   2.422 -0.7431  0.4859 -0.2343
52651SOL     OW66920   4.302   9.098   0.453 -0.0162  0.1055  0.2896
52651SOL    HW166921   4.208   9.107   0.469  0.1569 -1.2290  2.3309
52651SOL    HW266922   4.310   9.017   0.402 -0.0641  1.1565 -1.4725
52652SOL     OW66923   9.657  11.871   4.469 -0.1887  0.0728 -0.1596
52652SOL    HW166924   9.715  11.795   4.475  0.0053  0.2305  0.0204
52652SOL    HW266925   9.585  11.843   4.413  0.0891 -0.1119 -0.4259
52653SOL     OW66926   5.005   3.326  10.745  0.0858 -0.5215  0.1254
52653SOL    HW166927   4.989   3.342  10.652 -1.5275 -3.0043 -0.1353
52653SOL    HW266928   5.069   3.254  10.746 -0.7679 -1.2939  0.8717
52654SOL     OW66929   3.690   9.303   4.895  0.0836 -0.1368  0.0050
52654SOL    HW166930   3.753   9.363   4.936 -0.4620 -1.0002  2.2941
52654SOL    HW266931   3.719   9.216   4.922 -0.4145 -0.7569 -1.3848
52655SOL     OW66932   8.721  10.363   3.361  0.0991 -0.1585  0.2331
52655SOL    HW166933   8.717  10.313   3.279 -0.9957  1.0077 -0.4566
52655SOL    HW266934   8.637  10.409   3.365  1.0515  1.6264  0.8317
52656SOL     OW66935  12.375   9.856   8.078  0.1030 -0.0029  0.5561
52656SOL    HW166936  12.368   9.798   8.002  1.8650  1.4937 -0.8515
52656SOL    HW266937  12.319   9.931   8.056  1.8723  1.2034 -0.1123
52657SOL     OW66938   6.540   8.853   9.510  0.4016  0.2422 -0.7879
52657SOL    HW166939   6.550   8.795   9.586 -0.6304  1.4546  0.3314
52657SOL    HW266940   6.622   8.844   9.462  0.7076 -1.2885 -0.0693
52658SOL     OW66941  11.073   8.231   9.798  0.0897  0.0714 -0.1455
52658SOL    HW166942  11.147   8.247   9.739 -0.0558  1.4005 -0.0002
52658SOL    HW266943  11.072   8.136   9.810  0.7692 -0.1151 -1.4329
52659SOL     OW66944   2.242   3.721   7.815  0.3006 -0.1535  0.1057
52659SOL    HW166945   2.323   3.720   7.764 -0.6167 -1.1653 -1.3957
52659SOL    HW266946   2.204   3.634   7.801 -2.3025  1.1127 -1.3471
52660SOL     OW66947   7.798   3.791  11.289 -0.0044  0.0458  0.4797
52660SOL    HW166948   7.862   3.808  11.358 -0.4160 -0.0853  0.8940
52660SOL    HW266949   7.737   3.864  11.293 -0.2715 -0.1791  0.5311
52661SOL     OW66950   2.042   1.715   2.742 -0.0832  0.1585 -0.3108
52661SOL    HW166951   2.032   1.639   2.686 -1.7412  1.4491 -1.8706
52661SOL    HW266952   1.952   1.744   2.760  0.5061  2.6032 -1.0086
52662SOL     OW66953   3.604   1.202   8.848 -0.2865  0.4841 -0.2753
52662SOL    HW166954   3.656   1.281   8.860  1.1353  0.0370 -2.7229
52662SOL    HW266955   3.520   1.234   8.814  0.2864  0.9984 -1.2748
52663SOL     OW66956  10.494   5.695  10.092  0.2565 -0.1885 -0.0502
52663SOL    HW166957  10.488   5.782  10.131 -1.8363 -0.5879  0.6068
52663SOL    HW266958  10.500   5.711   9.998  0.0102  0.6630  0.0716
52664SOL     OW66959  11.328  11.907   8.691 -0.4292  0.7891  0.8941
52664SOL    HW166960  11.265  11.926   8.760 -0.5071 -0.4889  1.2012
52664SOL    HW266961  11.275  11.885   8.615 -0.3463  1.1808  0.7214
52665SOL     OW66962   2.755   1.006   8.219  0.3673 -0.1668  0.0907
52665SOL    HW166963   2.799   1.091   8.225 -0.9130  0.5105  0.3346
52665SOL    HW266964   2.681   1.022   8.161 -0.8297 -0.6802  1.4113
52666SOL     OW66965  10.866   9.911   7.570 -0.0860  0.1007 -0.2769
52666SOL    HW166966  10.885   9.898   7.477  0.3557 -1.0475 -0.0356
52666SOL    HW266967  10.914   9.842   7.614 -0.9670  0.1263  0.7553
52667SOL     OW66968   9.228   0.588  11.387 -0.2324  0.2002 -0.0273
52667SOL    HW166969   9.146   0.633  11.364 -0.3045 -0.0869 -0.3410
52667SOL    HW266970   9.215   0.499  11.355  0.7750  0.5084 -1.3988
52668SOL     OW66971   4.517   9.551   3.962 -0.2287 -0.1287 -0.5867
52668SOL    HW166972   4.445   9.613   3.975 -0.3955  0.2494 -2.8504
52668SOL    HW266973   4.523   9.542   3.867  2.2853 -0.6803 -0.4382
52669SOL     OW66974   8.070  11.446   5.954 -0.4529  0.0631 -0.6155
52669SOL    HW166975   7.977  11.448   5.978 -0.3905 -0.5685 -0.2979
52669SOL    HW266976   8.116  11.469   6.035 -0.2831 -1.1000 -0.3570
52670SOL     OW66977   5.129   2.658   7.720 -0.0018 -0.4469  0.4671
52670SOL    HW166978   5.122   2.590   7.653  1.5026 -0.4145  0.2363
52670SOL    HW266979   5.137   2.739   7.671  0.9479 -0.4072  0.6627
52671SOL     OW66980   2.939  12.580   2.852  0.1780  0.0612 -0.1999
52671SOL    HW166981   2.934  12.489   2.822 -0.4081  0.0335 -0.0215
52671SOL    HW266982   2.957  12.630   2.773 -1.8095  0.0409 -0.7198
52672SOL     OW66983  11.470   5.718   8.643 -0.3679 -0.7240 -0.7078
52672SOL    HW166984  11.495   5.666   8.567  1.9400  0.0824 -0.5912
52672SOL    HW266985  11.539   5.700   8.708 -0.8054  0.6558  0.1846
52673SOL     OW66986   0.829   6.158  12.186 -0.4346 -0.0290 -0.1557
52673SOL    HW166987   0.741   6.174  12.152 -0.4806 -0.9560 -0.5216
52673SOL    HW266988   0.887   6.183  12.114 -0.2762  2.3303  0.7341
52674SOL     OW66989   0.231   9.164   2.803  0.1890  0.6120  0.0818
52674SOL    HW166990   0.215   9.086   2.750  1.6426  0.1596  0.2590
52674SOL    HW266991   0.145   9.203   2.816 -0.6348 -1.2274  0.3915
52675SOL     OW66992   4.768   9.032   1.158  0.4831 -0.1505  0.3804
52675SOL    HW166993   4.817   9.030   1.076 -0.3448  0.5548 -0.1489
52675SOL    HW266994   4.721   8.949   1.161  0.0632  0.0660 -0.1460
52676SOL     OW66995  12.364  10.026   1.891  0.0175 -0.2613  0.0431
52676SOL    HW166996  12.307  10.101   1.910  0.8973 -0.1378  2.6445
52676SOL    HW266997  12.452  10.060   1.903  0.4179 -1.9170  2.4544
52677SOL     OW66998  12.111  10.107   0.721  0.3532 -0.1177  0.4167
52677SOL    HW166999  12.084  10.163   0.648 -0.4462  1.0812  1.5992
52677SOL    HW267000  12.046  10.123   0.789  0.4686 -2.0191  1.0321
52678SOL     OW67001   2.075   6.594  10.969  0.1276 -0.2895  0.1077
52678SOL    HW167002   2.130   6.613  10.893  0.9957  0.1078  0.8132
52678SOL    HW267003   2.004   6.658  10.963 -0.5592 -1.1419 -1.0915
52679SOL     OW67004   4.712   4.550   4.557  0.4089  0.2868 -0.5620
52679SOL    HW167005   4.643   4.523   4.617  0.3545 -0.2221 -0.8439
52679SOL    HW267006   4.760   4.469   4.539 -0.0896  0.2609 -1.8539
52680SOL     OW67007  11.962   7.920   1.748 -0.3357  0.2161 -0.1093
52680SOL    HW167008  12.046   7.950   1.714 -0.0917  0.5338  0.7466
52680SOL    HW267009  11.964   7.825   1.735  1.0026 -0.0463  1.6659
52681SOL     OW67010   6.154   0.445   0.917  0.3818 -0.2799 -0.7560
52681SOL    HW167011   6.166   0.522   0.862 -0.6415  1.3183  1.1592
52681SOL    HW267012   6.060   0.433   0.924  0.4829 -2.6877 -2.2251
52682SOL     OW67013   7.021  11.566   9.970 -0.8009  0.7743 -0.3260
52682SOL    HW167014   6.961  11.532   9.904 -1.4647  1.8681 -0.3038
52682SOL    HW267015   6.965  11.602  10.038 -0.1278  1.0813  0.0773
52683SOL     OW67016   2.472   9.436  12.530  0.0466 -0.1590  0.2669
52683SOL    HW167017   2.420   9.408  12.605 -2.4497  0.3590 -1.1578
52683SOL    HW267018   2.552   9.474  12.568 -0.1872 -1.7795  2.5178
52684SOL     OW67019   6.309   3.227   7.356  0.1555 -0.1209 -0.7032
52684SOL    HW167020   6.382   3.274   7.314  0.9475 -0.8943 -0.2193
52684SOL    HW267021   6.294   3.151   7.299  0.3462 -0.4572 -0.3096
52685SOL     OW67022   7.837   2.442   8.237  0.2063  0.0349 -0.6040
52685SOL    HW167023   7.905   2.457   8.171  0.3031  1.2764 -0.2455
52685SOL    HW267024   7.832   2.347   8.245  1.3282 -0.0937 -1.2295
52686SOL     OW67025  12.455   6.705   8.675 -0.3468  0.0702  0.0218
52686SOL    HW167026  12.374   6.655   8.681  0.1475 -0.6376  1.0750
52686SOL    HW267027  12.477   6.703   8.582 -0.1268 -2.0512  0.0688
52687SOL     OW67028   0.777   9.971   3.252  0.6522  0.2519  0.2447
52687SOL    HW167029   0.779  10.006   3.341 -1.9342  0.1620  0.4098
52687SOL    HW267030   0.816  10.040   3.198  0.8384  0.9654  1.2710
52688SOL     OW67031   3.371   9.627  10.826 -0.1238  0.1517  0.3299
52688SOL    HW167032   3.454   9.591  10.795 -0.3967 -0.1436 -0.0592
52688SOL    HW267033   3.348   9.573  10.902  0.0303  0.2253  0.4303
52689SOL     OW67034   2.373   5.647  12.526  0.0127 -0.6905 -0.1976
52689SOL    HW167035   2.410   5.560  12.514 -0.2422 -0.9552  0.8803
52689SOL    HW267036   2.347   5.651  12.618  0.9691  0.8983  0.0492
52690SOL     OW67037  11.591   6.145   5.960  0.0650  0.3977  0.0355
52690SOL    HW167038  11.603   6.213   6.027  0.7250 -1.6381  2.1254
52690SOL    HW267039  11.510   6.101   5.985  0.7275 -0.8938  0.0357
52691SOL     OW67040   6.910   6.317   4.947 -0.1805 -0.1918  0.2470
52691SOL    HW167041   6.928   6.231   4.911  1.6322  0.4975 -0.6483
52691SOL    HW267042   6.900   6.302   5.041 -0.0143 -1.3883  0.0911
52692SOL     OW67043   9.743  12.490  11.907 -0.0603  0.0339 -0.4583
52692SOL    HW167044   9.673  12.449  11.958 -0.1616 -1.6169 -1.8197
52692SOL    HW267045   9.698  12.535  11.836  0.1374  1.4519  0.2780
52693SOL     OW67046   3.611   5.436   1.545 -0.1282  0.5297 -0.2082
52693SOL    HW167047   3.640   5.362   1.493 -1.0180 -1.0421  1.4278
52693SOL    HW267048   3.575   5.498   1.482  1.3398 -0.0615 -1.6841
52694SOL     OW67049   7.498  12.323  11.258 -0.2923  0.2137 -0.4905
52694SOL    HW167050   7.534  12.327  11.170  1.7772 -0.8859  0.2284
52694SOL    HW267051   7.446  12.242  11.259  1.0420 -0.6873 -0.3003
52695SOL     OW67052  10.731   7.322  10.413  0.1725  0.0539 -0.4728
52695SOL    HW167053  10.764   7.268  10.341  2.5128  0.3223  0.3303
52695SOL    HW267054  10.798   7.315  10.481 -2.3355 -0.9042  2.0935
52696SOL     OW67055   0.283   7.046  11.116 -0.2458 -0.6571 -0.3795
52696SOL    HW167056   0.347   7.009  11.056  2.3253  0.8940  1.1820
52696SOL    HW267057   0.303   7.006  11.201 -0.7479  0.4910  0.3142
52697SOL     OW67058   2.216  11.078   8.683  0.0543 -0.3420 -0.0740
52697SOL    HW167059   2.295  11.101   8.733 -0.0308  1.3812 -0.6594
52697SOL    HW267060   2.201  11.154   8.626 -1.0167 -1.4015 -1.2496
52698SOL     OW67061   9.507   7.443   2.912  0.1866  0.1184  0.0457
52698SOL    HW167062   9.507   7.520   2.855 -0.0518  0.7254  0.8471
52698SOL    HW267063   9.594   7.443   2.953  0.4911 -0.5215 -0.5545
52699SOL     OW67064   3.172  11.168  12.445  0.0773  0.2870 -1.0694
52699SOL    HW167065   3.143  11.149  12.534  0.4006 -1.4687 -1.3076
52699SOL    HW267066   3.118  11.242  12.417 -0.5359  0.3802  0.3080
52700SOL     OW67067   5.853   7.701  10.376 -0.1884 -0.0356 -0.3775
52700SOL    HW167068   5.831   7.608  10.377  1.1966 -0.4102  1.1619
52700SOL    HW267069   5.907   7.713  10.454  1.5105  1.6156 -1.7187
52701SOL     OW67070   4.237   9.497  10.890  0.2618  0.3302 -0.4042
52701SOL    HW167071   4.205   9.584  10.868  0.6228  0.2235 -1.3960
52701SOL    HW267072   4.308   9.481  10.828  0.6164 -0.4197  0.1742
52702SOL     OW67073   9.955   9.810  11.382  0.7225  0.1932 -0.1768
52702SOL    HW167074   9.945   9.792  11.288  0.2059  2.2496 -0.5576
52702SOL    HW267075   9.906   9.739  11.425 -0.0246 -0.1227 -1.4876
52703SOL     OW67076   7.393  11.607   2.053 -0.1293  0.1080 -0.3356
52703SOL    HW167077   7.349  11.675   2.003 -1.0265  0.3567  0.7526
52703SOL    HW267078   7.464  11.653   2.098 -0.3280  0.2051 -0.1175
52704SOL     OW67079  11.325   8.139   1.367  0.0977 -0.1474  0.0647
52704SOL    HW167080  11.325   8.230   1.339  0.1265 -1.0354 -3.2174
52704SOL    HW267081  11.236   8.109   1.352  0.5394 -1.1317 -0.7212
52705SOL     OW67082  12.198   1.987   8.228 -0.3124 -0.4936 -0.1371
52705SOL    HW167083  12.155   1.981   8.143 -0.7631 -0.4917  0.0824
52705SOL    HW267084  12.194   2.080   8.251  0.4177 -0.3902 -0.4168
52706SOL     OW67085   1.933   0.516   7.432  0.2205  0.6671 -0.1474
52706SOL    HW167086   1.948   0.595   7.484 -0.6248  0.9461 -0.3145
52706SOL    HW267087   1.924   0.548   7.342 -0.5819  0.4407 -0.1554
52707SOL     OW67088   4.366   1.292   1.176 -0.2214  0.2282 -0.6241
52707SOL    HW167089   4.442   1.308   1.121 -0.0857  0.8874 -0.2567
52707SOL    HW267090   4.292   1.291   1.115 -0.2464  2.2868 -0.7239
52708SOL     OW67091  11.867   8.214   9.390 -0.3546 -0.1043  0.4444
52708SOL    HW167092  11.936   8.226   9.455  0.9102 -2.2095 -0.4171
52708SOL    HW267093  11.831   8.302   9.377  0.7015  0.6912  2.4951
52709SOL     OW67094   7.729   6.775   0.928  0.9047 -0.6597 -0.0542
52709SOL    HW167095   7.707   6.814   0.843  0.4730  0.1359  0.4051
52709SOL    HW267096   7.754   6.686   0.908  0.5377 -0.5624 -0.9968
52710SOL     OW67097  10.294   5.125   3.677  0.3351 -0.2665 -0.1260
52710SOL    HW167098  10.200   5.137   3.664  0.0049  0.4181  2.3536
52710SOL    HW267099  10.334   5.203   3.640 -0.3858  0.8500  1.3301
52711SOL     OW67100   9.472  11.836   5.381  0.0389  0.1202 -0.0839
52711SOL    HW167101   9.504  11.759   5.334 -0.2968 -0.7755  1.1056
52711SOL    HW267102   9.499  11.910   5.327  2.3456 -0.6963 -0.1608
52712SOL     OW67103   8.705  12.095   9.965 -1.0449 -0.1845  0.2846
52712SOL    HW167104   8.699  12.002   9.944 -1.3916 -0.1945  0.4094
52712SOL    HW267105   8.636  12.109  10.030 -1.7832  0.3939 -0.5854
52713SOL     OW67106   3.452   1.940   3.864 -0.5048 -0.0571 -0.1542
52713SOL    HW167107   3.431   1.956   3.772  0.0981 -0.8295 -0.4359
52713SOL    HW267108   3.405   1.858   3.885  0.9762 -0.9895 -0.3663
52714SOL     OW67109   2.052  12.318   8.757 -0.7764  0.0012  0.2747
52714SOL    HW167110   2.078  12.381   8.823 -1.3715  1.8081 -1.1355
52714SOL    HW267111   2.049  12.234   8.804  1.3077  0.7495  1.8984
52715SOL     OW67112  11.382   6.457   5.544  0.0952 -0.0926 -0.0188
52715SOL    HW167113  11.292   6.487   5.560  0.7541  1.7119  0.5413
52715SOL    HW267114  11.420   6.525   5.489  1.3251 -0.4966  0.3017
52716SOL     OW67115  10.072   5.894   6.804  0.3878 -0.3402 -0.3373
52716SOL    HW167116  10.121   5.814   6.821  0.4362 -0.4655 -1.0257
52716SOL    HW267117  10.072   5.902   6.709 -0.6602 -0.1767 -0.3363
52717SOL     OW67118   5.612  10.635  11.144 -0.9519  0.1046  0.1839
52717SOL    HW167119   5.603  10.730  11.151  3.2274  0.8116 -1.4462
52717SOL    HW267120   5.598  10.616  11.051 -0.8771 -0.7553  0.3393
52718SOL     OW67121   0.868   3.743   1.578  0.2970  0.1449 -0.8875
52718SOL    HW167122   0.958   3.765   1.554  0.3590 -0.2167 -0.9949
52718SOL    HW267123   0.865   3.753   1.673  0.3027  0.6741 -0.9381
52719SOL     OW67124   4.567   3.745   5.646  0.2199  0.3421 -0.1873
52719SOL    HW167125   4.625   3.717   5.576  1.3792 -1.1198  1.2681
52719SOL    HW267126   4.484   3.701   5.629 -0.2163  1.6931 -1.7678
52720SOL     OW67127  12.386   6.470   2.815  0.0173  0.8010 -0.1430
52720SOL    HW167128  12.411   6.554   2.777 -0.2999  0.9878  0.0512
52720SOL    HW267129  12.349   6.421   2.742 -0.0551  0.9398 -0.2002
52721SOL     OW67130   7.320  11.012  12.561  0.2530  0.1228 -0.1486
52721SOL    HW167131   7.353  10.978  12.478  1.5811  1.4177 -0.1939
52721SOL    HW267132   7.248  11.069  12.537  0.3869  0.1931 -0.3847
52722SOL     OW67133   4.406  12.143   7.424 -0.1729  0.5585  0.3980
52722SOL    HW167134   4.474  12.201   7.389 -0.2103 -0.1872 -0.9981
52722SOL    HW267135   4.389  12.176   7.512  3.0390 -0.1479  1.4013
52723SOL     OW67136   0.704   6.769   9.260 -0.2126  0.4984 -0.1332
52723SOL    HW167137   0.649   6.847   9.273  0.8340  1.0684  1.2131
52723SOL    HW267138   0.745   6.755   9.346 -0.1138 -1.3466 -0.4542
52724SOL     OW67139   4.324   8.592  12.235 -0.5643 -0.2563 -0.3087
52724SOL    HW167140   4.361   8.592  12.323 -1.0622  3.7774  0.0916
52724SOL    HW267141   4.401   8.592  12.177  0.3265  4.7520  0.4563
52725SOL     OW67142   9.999   6.743   6.032 -0.0275  0.3704  0.3383
52725SOL    HW167143   9.985   6.836   6.014 -1.0245  0.0755 -0.4796
52725SOL    HW267144   9.937   6.723   6.102  0.3175  0.3656  0.6407
52726SOL     OW67145  10.692   4.329   3.062  0.2585 -0.0316 -0.0327
52726SOL    HW167146  10.619   4.364   3.113 -0.1030  0.4451 -0.8659
52726SOL    HW267147  10.652   4.298   2.981  0.4375 -3.0129  0.8963
52727SOL     OW67148   9.688   7.092   9.398 -0.2825  0.2724  0.2570
52727SOL    HW167149   9.625   7.021   9.386  0.8131 -0.6803 -0.0384
52727SOL    HW267150   9.691   7.137   9.313 -0.1553 -0.0238  0.1051
52728SOL     OW67151   7.148   6.867   9.048 -0.1746  0.4669  0.0381
52728SOL    HW167152   7.091   6.815   9.105 -0.2497 -2.2460 -2.2851
52728SOL    HW267153   7.089   6.911   8.987  0.0492  0.5791 -0.1005
52729SOL     OW67154   1.784   3.348   3.853  0.1053 -0.4316  0.2661
52729SOL    HW167155   1.692   3.346   3.878  0.1592  0.5310  0.5698
52729SOL    HW267156   1.804   3.257   3.830 -0.8495 -0.6972  0.4298
52730SOL     OW67157   3.514   3.465  11.015  0.1395  0.0932  0.0033
52730SOL    HW167158   3.466   3.537  10.975 -0.1218 -0.3974 -0.5761
52730SOL    HW267159   3.559   3.505  11.089 -0.2478  0.7886 -0.1277
52731SOL     OW67160   8.504  10.684  11.668 -0.6031 -0.3334  0.2019
52731SOL    HW167161   8.485  10.610  11.612 -0.9701 -0.5442  0.5986
52731SOL    HW267162   8.600  10.686  11.674 -0.6155 -1.2604  0.8356
52732SOL     OW67163   2.462  11.641   0.920 -0.2895  0.3434  0.1626
52732SOL    HW167164   2.371  11.612   0.932 -0.8125  1.2835 -1.2821
52732SOL    HW267165   2.500  11.634   1.008 -0.8896 -2.8161  0.2992
52733SOL     OW67166   6.319   0.802   2.158 -0.2382 -0.8329 -0.0948
52733SOL    HW167167   6.357   0.714   2.162 -1.5157 -1.4469 -0.7096
52733SOL    HW267168   6.229   0.790   2.187  0.4433  0.9055  3.2335
52734SOL     OW67169   0.379   2.872   7.807 -0.3496 -0.4442 -0.7662
52734SOL    HW167170   0.465   2.893   7.770  0.2795  0.2081  0.9690
52734SOL    HW267171   0.361   2.783   7.776  1.7393 -1.2624  0.1494
52735SOL     OW67172  12.258   6.497   3.307  0.1757 -0.4449  0.4031
52735SOL    HW167173  12.305   6.553   3.368 -0.6595  0.4546  0.2530
52735SOL    HW267174  12.298   6.411   3.318  2.4378  0.4428 -0.3673
52736SOL     OW67175   5.356   6.028   7.038  0.1279  0.5441  0.0676
52736SOL    HW167176   5.449   6.012   7.018  0.0892  0.1934  0.1703
52736SOL    HW267177   5.310   6.007   6.957  0.0201 -0.4186  0.3661
52737SOL     OW67178   7.902   1.811   6.082 -0.1422 -0.7283  0.4087
52737SOL    HW167179   7.870   1.835   5.995  0.4092 -1.0628  0.0998
52737SOL    HW267180   7.917   1.717   6.076 -0.2267 -0.7744  0.9111
52738SOL     OW67181  11.952   0.422   9.327  0.4309  0.2688 -0.2258
52738SOL    HW167182  11.896   0.491   9.364  0.5547  0.8237 -1.0372
52738SOL    HW267183  11.962   0.447   9.235 -1.0234 -1.8169 -1.0288
52739SOL     OW67184   4.440   9.936   6.349 -0.6688  0.6761  0.1359
52739SOL    HW167185   4.533   9.937   6.372 -0.9097 -0.7977  1.3454
52739SOL    HW267186   4.438   9.946   6.254  0.9281 -2.2097 -0.2935
52740SOL     OW67187  10.578   3.165  10.333  0.1540  0.1338 -0.2404
52740SOL    HW167188  10.567   3.069  10.334 -2.1626  0.3468 -0.5969
52740SOL    HW267189  10.559   3.191  10.243 -0.5512  1.0431  0.1546
52741SOL     OW67190   6.544   4.781   8.343  0.4235 -0.5149 -0.4330
52741SOL    HW167191   6.519   4.817   8.258 -0.3036  0.6304  0.2432
52741SOL    HW267192   6.626   4.826   8.365  1.0257 -1.3768 -0.8598
52742SOL     OW67193  11.843   7.814   1.971  0.3758  0.0318 -0.5445
52742SOL    HW167194  11.882   7.759   1.903 -0.5050 -0.5559 -0.5795
52742SOL    HW267195  11.872   7.903   1.948  2.0097 -0.4078 -0.3434
52743SOL     OW67196   3.097   3.234   3.043  0.1153  0.0110 -0.1578
52743SOL    HW167197   3.079   3.290   2.967  0.8193  0.6181  0.1106
52743SOL    HW267198   3.165   3.174   3.012  0.6796  0.5072  0.0908
52744SOL     OW67199  11.620   4.972  10.657 -0.5114 -0.0796  0.4697
52744SOL    HW167200  11.709   4.955  10.690 -0.3604 -0.3780 -0.0882
52744SOL    HW267201  11.590   4.887  10.624 -0.8456  0.1152  0.2725
52745SOL     OW67202   2.375   8.624  11.307  0.3609  0.5112  0.2526
52745SOL    HW167203   2.467   8.651  11.314  0.8565 -1.3317  1.7148
52745SOL    HW267204   2.330   8.674  11.376  0.5897  0.2261  0.6132
52746SOL     OW67205  10.604   9.714   1.026 -0.4646 -0.1052  0.3772
52746SOL    HW167206  10.543   9.661   1.077 -1.5007  0.1078 -0.6121
52746SOL    HW267207  10.661   9.650   0.983 -0.2861 -0.3240  0.9378
52747SOL     OW67208   9.714   9.405   8.732  0.0878 -0.0317  0.0527
52747SOL    HW167209   9.805   9.383   8.751  0.4491  2.1455  1.2167
52747SOL    HW267210   9.669   9.321   8.725  2.3346 -1.2116 -1.5271
52748SOL     OW67211   9.630   7.079  11.830 -0.1319  0.1645 -0.0692
52748SOL    HW167212   9.562   7.032  11.781 -0.6539  0.6687  0.1638
52748SOL    HW267213   9.691   7.010  11.857  0.1116 -0.1451 -1.3128
52749SOL     OW67214   2.224   9.206   4.029  0.1806  0.1463 -0.5526
52749SOL    HW167215   2.286   9.170   3.965  0.9449  0.6778 -0.1252
52749SOL    HW267216   2.234   9.301   4.021 -0.8498  0.2459 -0.7312
52750SOL     OW67217   7.380   7.178   7.535  0.0719  0.6260 -0.2772
52750SOL    HW167218   7.473   7.200   7.539  0.4398 -1.0599  1.6992
52750SOL    HW267219   7.336   7.263   7.539  1.5110  1.3618  1.5766
52751SOL     OW67220   8.224   6.293   5.617 -0.1716  0.4831  0.2866
52751SOL    HW167221   8.282   6.234   5.664 -0.4316  0.0364  0.0581
52751SOL    HW267222   8.259   6.380   5.634  0.8362  0.1959 -0.2108
52752SOL     OW67223  10.359   2.227   1.347 -0.6229  0.1542  0.4514
52752SOL    HW167224  10.304   2.302   1.369 -0.9816  0.6705 -1.9022
52752SOL    HW267225  10.296   2.158   1.324 -0.3714 -1.6434  4.4102
52753SOL     OW67226   9.439   7.482   1.031  0.1120  0.0016  0.0126
52753SOL    HW167227   9.438   7.393   1.065  1.8346 -0.2344 -0.4474
52753SOL    HW267228   9.450   7.538   1.108  2.3892 -0.4321  0.0823
52754SOL     OW67229   5.220   6.476  11.316  0.0610  0.1055 -0.2324
52754SOL    HW167230   5.206   6.496  11.224 -0.9184 -1.0708 -0.3647
52754SOL    HW267231   5.267   6.392  11.316 -1.8396 -1.0254  0.3092
52755SOL     OW67232  10.064   8.597   8.200 -0.2145 -0.0062 -0.0138
52755SOL    HW167233  10.102   8.678   8.234  2.0589 -1.0526  0.0748
52755SOL    HW267234  10.083   8.531   8.267  0.4171 -1.1730 -1.2944
52756SOL     OW67235   0.999  12.063   5.580  0.2946 -0.1453  0.7384
52756SOL    HW167236   1.017  11.978   5.620  1.5153 -0.3189 -0.1223
52756SOL    HW267237   1.051  12.125   5.630 -0.8519  0.1761  1.5776
52757SOL     OW67238   5.371   1.455   0.336  0.4258 -0.2992  0.3982
52757SOL    HW167239   5.439   1.403   0.293  0.8014  0.3407  0.2092
52757SOL    HW267240   5.312   1.390   0.375 -0.1109 -0.9130 -1.3489
52758SOL     OW67241   1.238  10.007   4.967 -0.1932 -0.0163  0.8056
52758SOL    HW167242   1.246  10.072   4.898  1.1915  0.7150  1.6079
52758SOL    HW267243   1.144   9.989   4.973 -0.3042 -0.5976 -1.6778
52759SOL     OW67244   1.115   5.425   5.373 -0.1682 -0.4201 -0.0221
52759SOL    HW167245   1.195   5.375   5.363 -1.8043 -3.2629  0.0100
52759SOL    HW267246   1.117   5.488   5.300  1.1572 -1.7783 -1.2210
52760SOL     OW67247   1.481   8.521   1.942 -0.2263  0.0981  0.4777
52760SOL    HW167248   1.468   8.615   1.935  0.7717  0.2632  0.7894
52760SOL    HW267249   1.441   8.485   1.862  1.3132  0.9810 -0.7376
52761SOL     OW67250   5.267   7.160  12.426  0.0992  0.2411  0.5796
52761SOL    HW167251   5.263   7.074  12.383  0.5343 -0.2939  1.5590
52761SOL    HW267252   5.280   7.139  12.519  0.5391  1.3779  0.7892
52762SOL     OW67253   2.982   3.265   7.378 -0.5005 -0.5264 -0.1933
52762SOL    HW167254   3.066   3.300   7.346 -0.7602  0.4297  0.1189
52762SOL    HW267255   2.969   3.185   7.328  0.6786 -0.7760 -0.1348
52763SOL     OW67256  12.484   6.369   9.035 -0.4134 -0.1394  0.0361
52763SOL    HW167257  12.436   6.298   8.991 -1.6999  1.0589 -0.5573
52763SOL    HW267258  12.575   6.356   9.008 -0.3406 -2.4627  1.1778
52764SOL     OW67259  12.361   1.335   1.783  0.2869  0.3911  0.0221
52764SOL    HW167260  12.410   1.329   1.701  0.2903  1.0567 -0.0308
52764SOL    HW267261  12.369   1.427   1.810  0.3104  0.1786  0.7835
52765SOL     OW67262   0.688   2.434   2.131  0.6010  0.7422 -0.4181
52765SOL    HW167263   0.671   2.529   2.129 -3.1036  0.4025  2.8294
52765SOL    HW267264   0.624   2.397   2.069  1.2686  0.2691 -0.8362
52766SOL     OW67265   9.748  10.655   9.024  0.2572 -0.2472  0.3028
52766SOL    HW167266   9.768  10.594   9.095 -0.2383 -0.6521  0.1008
52766SOL    HW267267   9.822  10.716   9.024 -0.0459  0.1467  1.5875
52767SOL     OW67268   4.271   6.579   5.720  0.1552 -0.4677  0.2628
52767SOL    HW167269   4.197   6.637   5.701  0.0165 -0.7382 -0.0210
52767SOL    HW267270   4.237   6.515   5.783  0.5815  0.3546  1.3738
52768SOL     OW67271   9.161  10.064  11.155  0.2156  0.1012 -0.5887
52768SOL    HW167272   9.223  10.127  11.191  1.2984 -2.5092  2.5980
52768SOL    HW267273   9.194  10.045  11.067  2.5716  0.5545  0.1296
52769SOL     OW67274  10.499   4.342  11.451 -0.4774 -0.9615  0.3966
52769SOL    HW167275  10.433   4.328  11.382 -0.6008 -1.0299  0.5273
52769SOL    HW267276  10.471   4.284  11.522 -1.2092  0.2219  1.1023
52770SOL     OW67277  11.144  10.355   8.522 -0.2556 -0.3101  0.1327
52770SOL    HW167278  11.063  10.306   8.506 -1.3489  1.9032 -1.5627
52770SOL    HW267279  11.144  10.370   8.616 -1.2525 -1.2350  0.3080
52771SOL     OW67280   5.617  11.446   7.935  0.3385  0.5640  0.6472
52771SOL    HW167281   5.574  11.379   7.989  1.0979  0.6631  1.3945
52771SOL    HW267282   5.549  11.512   7.921  0.4420  1.1436  2.5524
52772SOL     OW67283   2.692   3.451   6.070 -0.2378 -0.0891 -0.0098
52772SOL    HW167284   2.617   3.429   6.125  0.5181  0.3671  1.2491
52772SOL    HW267285   2.757   3.384   6.090 -0.1933 -0.3054 -0.8583
52773SOL     OW67286   1.931  11.296   2.162  0.1738 -0.0167  0.1509
52773SOL    HW167287   1.884  11.285   2.244 -0.0824 -1.5455 -0.1670
52773SOL    HW267288   1.879  11.359   2.112  0.0300  0.4873  0.9291
52774SOL     OW67289  10.225   7.407   8.978  0.8020  0.7584 -0.0084
52774SOL    HW167290  10.269   7.398   9.063  2.1637  0.0843 -0.7621
52774SOL    HW267291  10.205   7.318   8.951  1.0240  0.9160 -0.7192
52775SOL     OW67292   7.144   1.429  11.088 -0.4917 -0.2652  0.4183
52775SOL    HW167293   7.059   1.390  11.066 -0.0774 -0.8686 -0.1237
52775SOL    HW267294   7.169   1.387  11.170  0.0209 -1.2697 -0.2382
52776SOL     OW67295   2.638  10.658   5.206  0.0696 -0.0251 -0.4004
52776SOL    HW167296   2.542  10.652   5.202 -0.0307  0.8578  0.2818
52776SOL    HW267297   2.656  10.752   5.196  0.8033 -0.0645  0.4160
52777SOL     OW67298   6.635   8.306   0.380 -0.2853 -0.4631 -0.6289
52777SOL    HW167299   6.695   8.231   0.381  0.2401 -0.1460  2.7030
52777SOL    HW267300   6.678   8.372   0.434 -2.7372  0.5174  0.2905
52778SOL     OW67301  11.595   2.429   9.979  0.1886 -0.3945 -0.3414
52778SOL    HW167302  11.563   2.436   9.889  0.0584 -0.8519 -0.3334
52778SOL    HW267303  11.620   2.338   9.988 -0.2768 -0.4715  0.2461
52779SOL     OW67304   1.035   6.252   3.353 -0.2062 -0.2827 -0.7636
52779SOL    HW167305   1.003   6.307   3.282  2.3672  0.7445 -1.2342
52779SOL    HW267306   1.027   6.306   3.431  1.3357  0.4630 -1.0681
52780SOL     OW67307   8.286  11.659  11.641 -0.0525  0.5094  0.2797
52780SOL    HW167308   8.221  11.723  11.612  0.5737  0.4554 -1.3134
52780SOL    HW267309   8.236  11.593  11.688 -1.2884  0.0656 -1.5731
52781SOL     OW67310   0.688  11.696   4.509 -0.2529 -0.2275  0.2034
52781SOL    HW167311   0.719  11.746   4.585  0.0233  1.0234 -0.6828
52781SOL    HW267312   0.671  11.608   4.543  2.1355 -0.3782  1.2142
52782SOL     OW67313  12.493  10.612   5.976  0.2322 -0.3104 -0.1137
52782SOL    HW167314  12.530  10.667   6.045 -0.1685 -1.4857  1.0839
52782SOL    HW267315  12.463  10.533   6.022  0.7237 -1.5036 -1.7524
52783SOL     OW67316   0.629  10.878   9.863  0.0082  0.1943 -0.4219
52783SOL    HW167317   0.654  10.964   9.830 -0.0956  0.6621  0.6717
52783SOL    HW267318   0.697  10.856   9.927 -0.8002  0.1781  0.4563
52784SOL     OW67319   1.990  12.228   2.035 -0.3646  0.0175  0.1901
52784SOL    HW167320   2.008  12.258   2.124  0.4647 -2.1448  0.8210
52784SOL    HW267321   1.898  12.202   2.038 -0.2403 -0.3979  0.5355
52785SOL     OW67322   4.810  10.897  12.274  0.7689  0.5961 -0.4313
52785SOL    HW167323   4.903  10.877  12.266  0.6200  0.0900 -0.9387
52785SOL    HW267324   4.787  10.938  12.191  0.4643  0.4304 -0.4295
52786SOL     OW67325   4.555   1.075   2.203 -0.6704 -0.0746  0.1210
52786SOL    HW167326   4.590   1.150   2.156  0.3444 -0.8146 -0.3453
52786SOL    HW267327   4.535   1.011   2.135 -0.3026 -0.7047  0.5920
52787SOL     OW67328   3.662  10.738  10.272 -0.3264  0.8066  0.4163
52787SOL    HW167329   3.740  10.789  10.248  0.6414 -0.5595  0.5055
52787SOL    HW267330   3.694  10.677  10.339 -1.6316  0.6151  0.8829
52788SOL     OW67331   9.233   4.314   4.467  0.4243 -0.3759 -0.6145
52788SOL    HW167332   9.202   4.229   4.434  1.3674 -0.6034 -0.9668
52788SOL    HW267333   9.323   4.320   4.434  0.1478  1.0665 -1.1707
52789SOL     OW67334  12.503   1.158   1.225 -0.5988 -0.8859 -0.4899
52789SOL    HW167335  12.422   1.131   1.181  0.1757 -0.9581 -1.9156
52789SOL    HW267336  12.573   1.113   1.178  0.3611 -0.0405  0.0769
52790SOL     OW67337   5.725   6.333   9.006 -0.1081 -0.0215  0.1120
52790SOL    HW167338   5.782   6.385   9.063  1.6631 -1.5293 -0.1629
52790SOL    HW267339   5.646   6.318   9.057 -0.6134  2.6822  0.2795
52791SOL     OW67340  10.673   0.216   6.232  0.3243  0.4765 -0.5536
52791SOL    HW167341  10.758   0.189   6.198  0.0822  0.0140 -0.8014
52791SOL    HW267342  10.610   0.182   6.169 -0.1825 -1.0822  0.7144
52792SOL     OW67343   6.591   8.497  12.410  0.2031  0.3889 -0.6534
52792SOL    HW167344   6.672   8.516  12.458 -0.1818  1.4188 -0.3872
52792SOL    HW267345   6.613   8.514  12.318  0.2071  0.9633 -0.5471
52793SOL     OW67346  10.554  11.493   1.988  0.5766 -0.4975 -0.0226
52793SOL    HW167347  10.552  11.512   2.082  0.6392  0.1625 -0.1455
52793SOL    HW267348  10.511  11.408   1.980 -1.0946  0.2619  0.4170
52794SOL     OW67349   9.829   8.297   4.158 -0.5915 -0.0539 -0.0683
52794SOL    HW167350   9.736   8.310   4.136 -0.8645 -0.3841  0.8539
52794SOL    HW267351   9.829   8.225   4.220  0.0989  1.1913  1.4498
52795SOL     OW67352   9.225   8.134   0.550 -0.2485  0.0644 -0.1768
52795SOL    HW167353   9.144   8.087   0.569  0.5327 -0.9889  0.6681
52795SOL    HW267354   9.289   8.096   0.610  0.7640  1.1972 -0.5126
52796SOL     OW67355   4.549  12.226   3.418 -0.7474 -0.0851  0.1312
52796SOL    HW167356   4.614  12.241   3.486 -0.5468 -2.6427  0.6120
52796SOL    HW267357   4.466  12.214   3.465 -1.1268  0.7118 -0.3017
52797SOL     OW67358   0.536   3.978  12.569 -0.3546 -0.0773  0.0085
52797SOL    HW167359   0.537   3.891  12.531 -0.5525 -0.2779  0.4532
52797SOL    HW267360   0.625   4.011  12.554 -1.3623  1.3788 -3.9911
52798SOL     OW67361   6.758   3.585   1.011  0.3633  0.0334 -0.0407
52798SOL    HW167362   6.750   3.552   1.101 -0.2219  1.0158  0.2798
52798SOL    HW267363   6.694   3.655   1.005  1.9806  1.5432 -0.5029
52799SOL     OW67364  10.052   7.344   0.578 -0.3122 -0.0993  0.0017
52799SOL    HW167365  10.095   7.272   0.625  1.7700 -0.1105 -1.7561
52799SOL    HW267366   9.991   7.301   0.519  0.9487 -0.4975 -1.0659
52800SOL     OW67367  12.103   4.596   4.655  0.9456  0.4084 -0.2414
52800SOL    HW167368  12.031   4.655   4.629 -0.3592 -0.3045  1.5615
52800SOL    HW267369  12.161   4.650   4.708 -0.1495  0.1804  1.2477
52801SOL     OW67370   2.904   8.719   4.856 -0.3987 -0.1064 -0.5547
52801SOL    HW167371   2.946   8.689   4.937 -1.0843  2.5637  0.9051
52801SOL    HW267372   2.810   8.720   4.876 -0.4700  2.3212 -0.6391
52802SOL     OW67373   8.731   8.128   2.393 -0.5795 -0.1894  0.4350
52802SOL    HW167374   8.813   8.179   2.393 -1.0022  0.5091  0.0179
52802SOL    HW267375   8.667   8.188   2.432 -1.0246 -0.5147  0.2003
52803SOL     OW67376   9.757  10.224   5.904 -0.2093 -0.8157  0.2184
52803SOL    HW167377   9.711  10.269   5.832 -1.4093  0.7597  1.8581
52803SOL    HW267378   9.817  10.164   5.861 -0.9065  0.0416 -2.0930
52804SOL     OW67379   8.531   6.602   5.004  0.0571 -0.2349 -0.6253
52804SOL    HW167380   8.531   6.660   4.929 -0.2862  2.0698  1.0351
52804SOL    HW267381   8.438   6.593   5.027  0.1394 -1.1384 -0.6216
52805SOL     OW67382   2.760   0.347   7.905  0.2685 -0.2413 -0.2798
52805SOL    HW167383   2.815   0.289   7.852  0.2313  0.5597 -1.2222
52805SOL    HW267384   2.815   0.369   7.981  1.7465  1.4387 -1.7494
52806SOL     OW67385   2.232   0.659   4.665  0.0567 -0.1963  0.5228
52806SOL    HW167386   2.227   0.659   4.570 -0.4153 -0.4124  0.5434
52806SOL    HW267387   2.246   0.567   4.689 -1.1828 -0.3486  0.7156
52807SOL     OW67388   2.819   1.844   8.079 -0.2265  0.6177 -0.2088
52807SOL    HW167389   2.756   1.776   8.059 -0.3517  0.8222 -0.5287
52807SOL    HW267390   2.851   1.873   7.993  0.8620 -0.0056 -0.0310
52808SOL     OW67391   6.273  10.117  12.174  0.3292  0.2066 -0.7217
52808SOL    HW167392   6.356  10.124  12.221  0.9939  0.9042 -1.9442
52808SOL    HW267393   6.296  10.076  12.091 -0.9005 -1.4628 -0.3061
52809SOL     OW67394   8.614  11.963   7.758 -0.3145 -0.6252  0.1439
52809SOL    HW167395   8.606  11.871   7.783  1.5487 -1.3122 -1.4501
52809SOL    HW267396   8.662  12.003   7.830 -0.6005 -1.0316  0.5708
52810SOL     OW67397  11.032   1.319   2.184 -0.1587  0.0377  0.0245
52810SOL    HW167398  11.055   1.270   2.104  2.1600  1.6712 -0.4153
52810SOL    HW267399  11.116   1.351   2.217 -1.2424  0.7691  2.2669
52811SOL     OW67400  12.140   6.166  10.230  0.6914 -0.1254 -0.0506
52811SOL    HW167401  12.054   6.136  10.200  0.4510  0.6534 -0.1582
52811SOL    HW267402  12.162   6.106  10.301  0.9201 -1.5133 -1.2413
52812SOL     OW67403   5.721   2.058   7.235 -0.0649 -0.2800  0.8009
52812SOL    HW167404   5.689   1.999   7.303 -0.9161  1.1201  1.6627
52812SOL    HW267405   5.643   2.101   7.201  0.5839  0.9018  0.7397
52813SOL     OW67406   4.033   1.880  12.522 -0.1800  0.1791  0.3195
52813SOL    HW167407   4.027   1.975  12.535 -0.1214  0.4726 -1.5391
52813SOL    HW267408   4.091   1.870  12.446 -0.9010 -1.3045 -0.0696
52814SOL     OW67409   4.638   0.447   4.849  0.3385  0.2709  0.4528
52814SOL    HW167410   4.637   0.415   4.758 -1.6572  0.9617  0.1775
52814SOL    HW267411   4.666   0.538   4.841  0.7735  0.1504  0.6054
52815SOL     OW67412   2.096   2.837   1.497  0.1715  0.0269  0.7743
52815SOL    HW167413   2.136   2.752   1.517  0.2616 -0.2077 -0.3687
52815SOL    HW267414   2.037   2.853   1.571  0.4985 -0.8105  1.2342
52816SOL     OW67415   2.532   4.365   7.603  0.4179 -0.1358 -0.1861
52816SOL    HW167416   2.492   4.295   7.655  0.2685 -0.1785 -0.3607
52816SOL    HW267417   2.514   4.444   7.654 -1.5791  0.1221 -1.1868
52817SOL     OW67418   6.566   9.678   7.788  0.1608  0.3518  0.1695
52817SOL    HW167419   6.616   9.756   7.814  2.1337 -1.0776  0.8435
52817SOL    HW267420   6.553   9.630   7.869  1.8404 -1.5991 -0.6402
52818SOL     OW67421   4.262   9.912   3.116  0.3503  0.3189  0.1837
52818SOL    HW167422   4.215   9.868   3.044  0.0095 -1.1484  1.2548
52818SOL    HW267423   4.327   9.847   3.144 -0.2074  0.4449  1.8608
52819SOL     OW67424   1.346   4.064   4.345 -0.0538 -0.6248  0.0845
52819SOL    HW167425   1.295   4.006   4.288  0.1444  0.0954 -0.8362
52819SOL    HW267426   1.349   4.147   4.299  0.7930 -0.2571  0.7763
52820SOL     OW67427   3.778   3.995  10.338  0.1311 -0.3571  0.0321
52820SOL    HW167428   3.782   3.921  10.398  0.3631 -0.8931 -0.6261
52820SOL    HW267429   3.868   4.024  10.328  0.2621 -1.0431 -0.9728
52821SOL     OW67430   7.904   0.193  12.413 -0.0543 -0.9326 -0.3826
52821SOL    HW167431   7.856   0.165  12.491  1.9580  0.4242  1.4866
52821SOL    HW267432   7.844   0.251  12.366 -1.7106 -2.6737 -0.5024
52822SOL     OW67433  10.398   3.408   1.425  0.3405 -0.8064  0.1015
52822SOL    HW167434  10.310   3.444   1.438 -0.6846 -2.2772 -2.1466
52822SOL    HW267435  10.456   3.484   1.434 -1.3381  0.5865 -0.2425
52823SOL     OW67436   6.958   5.917   1.052  0.1992  0.3218 -0.1951
52823SOL    HW167437   6.893   5.913   0.981  1.3735 -1.0379 -1.2438
52823SOL    HW267438   6.966   6.010   1.071 -1.0173  0.6280 -1.0162
52824SOL     OW67439  12.038   5.719  12.023 -0.0372  0.6839 -0.1270
52824SOL    HW167440  12.114   5.738  12.078 -0.2776  0.1916  0.3830
52824SOL    HW267441  12.074   5.674  11.946  0.0761 -0.7007  0.6966
52825SOL     OW67442  11.868  11.305   3.201 -0.0713  0.2936 -0.2597
52825SOL    HW167443  11.838  11.349   3.280 -0.4120 -0.4220  0.0200
52825SOL    HW267444  11.796  11.313   3.139 -0.2022 -0.0074 -0.1497
52826SOL     OW67445  10.049   0.815   7.727 -0.6153  0.3291 -0.1266
52826SOL    HW167446  10.044   0.846   7.636 -1.3274  0.2026 -0.1373
52826SOL    HW267447  10.081   0.725   7.721 -0.0738  0.5203 -0.2036
52827SOL     OW67448  12.111   4.328   4.561 -0.2098  0.4615  0.1025
52827SOL    HW167449  12.114   4.421   4.586 -1.2244  0.7084 -0.6196
52827SOL    HW267450  12.203   4.302   4.555  0.1203  1.6841 -0.5633
52828SOL     OW67451   5.533   4.529   6.134  0.0149 -0.4265 -0.4617
52828SOL    HW167452   5.458   4.572   6.091 -0.5562 -0.3415  0.5888
52828SOL    HW267453   5.607   4.546   6.075 -0.7142 -0.2065 -1.3443
52829SOL     OW67454   6.798   7.332   7.981  0.3948  0.2203  0.7447
52829SOL    HW167455   6.733   7.377   7.926 -0.6032 -0.4002  1.3790
52829SOL    HW267456   6.881   7.370   7.955 -0.4633  3.2509  1.9583
52830SOL     OW67457   2.232   8.430   4.330 -0.1838 -0.6336 -0.2602
52830SOL    HW167458   2.159   8.455   4.386 -1.2213 -1.5457 -1.1433
52830SOL    HW267459   2.256   8.510   4.284  0.6017  0.0900  1.3736
52831SOL     OW67460   0.437   0.876   7.633 -0.3556 -0.6965 -0.6358
52831SOL    HW167461   0.471   0.792   7.603  0.1455 -0.6497 -0.2165
52831SOL    HW267462   0.348   0.880   7.598 -0.8744 -1.9931  0.4605
52832SOL     OW67463  12.327   0.709   0.268 -0.0182  0.0579  0.5101
52832SOL    HW167464  12.349   0.682   0.357  0.4103 -0.0243  0.3852
52832SOL    HW267465  12.357   0.800   0.262  2.4839 -0.7477 -0.3719
52833SOL     OW67466  11.756  10.744   1.277  0.7663 -0.1104  0.7493
52833SOL    HW167467  11.758  10.832   1.314  1.2106 -0.0873  0.6712
52833SOL    HW267468  11.667  10.713   1.294  0.9426 -0.0837  1.7884
52834SOL     OW67469   4.652   4.664   2.230 -0.4733 -0.5076 -0.1029
52834SOL    HW167470   4.715   4.735   2.238 -0.0317 -0.8048 -0.8958
52834SOL    HW267471   4.567   4.708   2.227 -0.2565 -0.0633  0.1733
52835SOL     OW67472  12.076   8.226   2.906 -0.1816  0.0901 -0.1958
52835SOL    HW167473  11.987   8.202   2.881  0.9833 -2.1252 -2.7681
52835SOL    HW267474  12.099   8.297   2.846 -0.5574  1.5928  1.3454
52836SOL     OW67475   6.052   7.142   6.128 -0.3388 -0.0694  0.2951
52836SOL    HW167476   6.120   7.209   6.125  0.2101 -0.6502 -0.6881
52836SOL    HW267477   5.981   7.179   6.075 -0.3282  0.0442  0.3592
52837SOL     OW67478   8.550   7.152  11.769 -0.5464 -0.0226  0.0650
52837SOL    HW167479   8.529   7.066  11.733  0.5072  0.3334 -1.4732
52837SOL    HW267480   8.468   7.201  11.762 -0.7208 -0.3902 -0.5993
52838SOL     OW67481   1.835   4.993  12.115  0.8421  0.5928  0.0562
52838SOL    HW167482   1.846   4.918  12.173  1.5754  0.6132 -0.0390
52838SOL    HW267483   1.900   4.980  12.046 -0.5350  0.1680 -1.2053
52839SOL     OW67484  11.292   2.899  11.047  0.4195  0.6524  0.0757
52839SOL    HW167485  11.308   2.810  11.079 -1.2483  0.9932  2.1006
52839SOL    HW267486  11.226   2.889  10.979 -0.4869  0.3699  0.9638
52840SOL     OW67487   0.058  10.878   3.008  0.1521 -0.0166 -0.3791
52840SOL    HW167488  -0.011  10.812   3.005  0.3674 -0.2158 -1.1506
52840SOL    HW267489   0.012  10.961   3.000  0.0055 -0.1484 -0.9016
52841SOL     OW67490  11.443   4.055   5.976  0.1686  0.3051  0.3541
52841SOL    HW167491  11.384   3.991   6.015  1.4394 -0.4729  1.0325
52841SOL    HW267492  11.385   4.111   5.924 -0.8508 -2.1593 -1.3687
52842SOL     OW67493   1.516   8.802   7.564 -0.2145 -0.1362  0.5152
52842SOL    HW167494   1.578   8.730   7.561 -0.4247 -0.2993 -1.7431
52842SOL    HW267495   1.434   8.765   7.529  0.2344  1.5975 -2.7329
52843SOL     OW67496   0.148   1.035   9.398 -0.0725  0.1965 -0.3522
52843SOL    HW167497   0.178   1.113   9.444  2.0878 -1.1273  0.6207
52843SOL    HW267498   0.226   1.001   9.355 -0.6560 -2.0935  0.2641
52844SOL     OW67499  11.019   2.847  11.679 -0.1716  0.3167  0.4929
52844SOL    HW167500  10.994   2.905  11.608 -2.1352 -1.8258 -0.7190
52844SOL    HW267501  11.107   2.818  11.658 -0.3737  0.4406 -0.5445
52845SOL     OW67502   7.420   9.429  11.396  0.7444  0.0314 -0.4681
52845SOL    HW167503   7.476   9.499  11.431 -0.9740  2.2157 -1.8934
52845SOL    HW267504   7.335   9.470  11.382 -0.8328 -2.7731  0.0747
52846SOL     OW67505   5.626   6.356   2.396 -0.4392  0.0198 -0.2136
52846SOL    HW167506   5.572   6.361   2.317  0.5059  0.5108 -0.8426
52846SOL    HW267507   5.642   6.262   2.407  1.3551  0.0545 -1.9813
52847SOL     OW67508  10.502   6.288   9.836 -0.2136 -0.1727  0.5399
52847SOL    HW167509  10.461   6.372   9.816 -0.5572 -0.0412  1.7428
52847SOL    HW267510  10.437   6.223   9.810 -0.6371 -0.0041  1.1376
52848SOL     OW67511   0.457   6.950   8.715  0.2515  1.0955 -0.0688
52848SOL    HW167512   0.473   7.021   8.653  1.2541  2.1660  1.3511
52848SOL    HW267513   0.436   6.994   8.798  1.2023 -0.2153  0.9216
52849SOL     OW67514   7.797   1.057   3.479  0.9105 -0.3911  0.2244
52849SOL    HW167515   7.791   1.025   3.569  1.7800 -0.7344  0.1716
52849SOL    HW267516   7.838   1.143   3.486 -0.7244  0.4168  0.2994
52850SOL     OW67517   1.286   8.743   6.824 -0.9083 -0.4375 -0.1754
52850SOL    HW167518   1.224   8.813   6.842  0.5968  0.1104  3.9954
52850SOL    HW267519   1.236   8.662   6.838 -1.4415 -0.0829 -0.0181
52851SOL     OW67520   7.255   0.931   7.312 -0.1032 -0.4593 -0.3612
52851SOL    HW167521   7.225   0.844   7.336  0.6407 -0.9290 -1.0923
52851SOL    HW267522   7.267   0.976   7.395 -0.5168 -1.0369  0.0180
52852SOL     OW67523   4.327   4.315   5.335 -0.0250  0.5202  0.3558
52852SOL    HW167524   4.344   4.222   5.350 -0.2595  0.1247 -1.6088
52852SOL    HW267525   4.233   4.324   5.353 -0.4122 -0.0524 -1.1923
52853SOL     OW67526   9.676   6.492   3.982 -0.1334 -0.5907  0.3826
52853SOL    HW167527   9.686   6.529   3.894 -1.1787  1.4150  1.0376
52853SOL    HW267528   9.742   6.423   3.986 -0.3410 -1.0205 -2.1036
52854SOL     OW67529  10.862   4.548   7.769 -0.3580  0.3086  0.4023
52854SOL    HW167530  10.827   4.542   7.858  1.2632 -1.4117  0.9801
52854SOL    HW267531  10.930   4.615   7.775  0.8100 -0.8906  0.8687
52855SOL     OW67532  12.160   9.833   2.242  0.3896  0.2820 -0.4603
52855SOL    HW167533  12.122   9.805   2.159  2.1374  1.3025 -1.6476
52855SOL    HW267534  12.162   9.929   2.237  0.4825  0.3701  0.7946
52856SOL     OW67535   0.051   7.170   4.662 -0.0346 -0.1641 -0.3220
52856SOL    HW167536   0.105   7.198   4.588 -0.8742 -1.4233 -1.4635
52856SOL    HW267537  -0.026   7.128   4.622 -0.4073 -1.0964  1.2572
52857SOL     OW67538  11.258   1.152   5.865 -0.2315  0.4594  0.7626
52857SOL    HW167539  11.282   1.124   5.776  0.5377  0.2599  1.0227
52857SOL    HW267540  11.174   1.109   5.882 -0.7282  1.0551 -0.1286
52858SOL     OW67541   4.908  11.180   4.089 -0.4593  0.2693  0.1674
52858SOL    HW167542   4.882  11.231   4.166  0.9681 -0.0058  0.8779
52858SOL    HW267543   4.917  11.090   4.122 -0.9106 -0.0662 -0.5877
52859SOL     OW67544  10.063   2.787   8.576 -0.4206 -0.0907  0.5527
52859SOL    HW167545  10.104   2.734   8.644  0.9528  0.0095 -0.1685
52859SOL    HW267546   9.993   2.835   8.621 -0.1448 -0.7239  1.6868
52860SOL     OW67547   7.000   7.748   5.234 -0.2456  0.0499  0.3342
52860SOL    HW167548   6.983   7.677   5.296  1.6491 -0.3950  0.4245
52860SOL    HW267549   7.069   7.713   5.177 -0.2774  1.3210 -0.5239
52861SOL     OW67550   8.111   8.229   8.945  0.1021  0.4337 -0.5284
52861SOL    HW167551   8.092   8.323   8.953 -0.1523  0.4178 -0.9408
52861SOL    HW267552   8.181   8.224   8.879 -0.0570  0.3139 -0.6866
52862SOL     OW67553   8.015  10.806   4.315  0.1131  0.0153 -0.0246
52862SOL    HW167554   7.924  10.815   4.342  0.0659 -0.2797 -0.0834
52862SOL    HW267555   8.010  10.766   4.228  0.3506 -2.2990  0.9527
52863SOL     OW67556   2.710  10.966   5.912 -0.2785 -0.9080  0.2883
52863SOL    HW167557   2.663  11.049   5.914  2.2783  0.6630  2.0387
52863SOL    HW267558   2.769  10.973   5.837 -1.7313 -2.2530 -1.0405
52864SOL     OW67559   1.857   3.110   4.186 -0.3808 -0.4395 -0.3414
52864SOL    HW167560   1.812   3.038   4.231 -1.2627  0.2728 -0.0587
52864SOL    HW267561   1.950   3.088   4.194 -0.5439 -0.7515  1.1599
52865SOL     OW67562  11.834   8.139  10.886  0.0347  0.0028  0.2481
52865SOL    HW167563  11.763   8.182  10.934 -0.3463  1.6498 -1.6258
52865SOL    HW267564  11.888   8.212  10.854 -0.5354 -0.8593 -2.9710
52866SOL     OW67565   6.271   7.869   3.700  0.0451  0.7007  0.5254
52866SOL    HW167566   6.282   7.959   3.671  1.7619  0.0946 -0.9232
52866SOL    HW267567   6.353   7.849   3.747 -0.5443  0.0508  1.3115
52867SOL     OW67568   5.713  11.299   5.530 -0.4097 -0.4468  0.0455
52867SOL    HW167569   5.749  11.247   5.457  0.0493 -2.6812  1.7640
52867SOL    HW267570   5.619  11.304   5.511  0.0346  1.5832 -2.1558
52868SOL     OW67571   7.271   3.130   0.344 -0.1008 -0.0365  0.4508
52868SOL    HW167572   7.202   3.085   0.294 -0.7900 -0.0564  1.3804
52868SOL    HW267573   7.295   3.205   0.290 -2.3804  1.1979  1.0215
52869SOL     OW67574  11.998   2.551  10.185  0.3098 -0.3301  0.8631
52869SOL    HW167575  12.043   2.496  10.120  1.9614 -0.5475  2.1326
52869SOL    HW267576  11.923   2.498  10.212  0.1395 -0.6433 -0.1527
52870SOL     OW67577   3.535   9.755   8.964  0.1573 -0.3980  0.0500
52870SOL    HW167578   3.495   9.728   9.047  0.7045 -1.9606 -0.1520
52870SOL    HW267579   3.488   9.835   8.940 -2.6224 -1.8788  0.0428
52871SOL     OW67580   9.336   2.606   4.611 -0.0498 -0.1016 -0.0955
52871SOL    HW167581   9.390   2.626   4.688  0.3506  1.2931 -0.7117
52871SOL    HW267582   9.383   2.644   4.537 -2.2098  1.9189 -0.5645
52872SOL     OW67583  12.392   4.166   8.560  0.7665 -0.3608  0.1681
52872SOL    HW167584  12.386   4.088   8.505 -0.0984  0.0124 -0.2914
52872SOL    HW267585  12.344   4.233   8.511  0.7793  0.2275  0.9472
52873SOL     OW67586  11.671  11.173   7.792  0.1270 -0.2574  0.1661
52873SOL    HW167587  11.619  11.105   7.835 -1.3172  1.0849  0.6447
52873SOL    HW267588  11.638  11.255   7.828  1.5153  0.7360 -0.7127
52874SOL     OW67589   6.201   4.208   7.064  0.4258 -0.4908 -0.1577
52874SOL    HW167590   6.262   4.271   7.103 -0.1321 -0.4934  0.7334
52874SOL    HW267591   6.238   4.122   7.085 -0.5136 -0.5304  1.4907
52875SOL     OW67592  10.281   4.694   9.050 -0.5434 -0.2879  1.0045
52875SOL    HW167593  10.346   4.742   8.998 -1.0481  0.6463  1.2206
52875SOL    HW267594  10.323   4.610   9.067  0.5687  0.2387  1.0212
52876SOL     OW67595  11.592   1.118   1.873  0.0927  0.1522 -0.1604
52876SOL    HW167596  11.675   1.102   1.828 -0.1562 -0.4952 -0.4114
52876SOL    HW267597  11.581   1.042   1.930 -2.3133 -2.0093 -3.1728
52877SOL     OW67598   1.917   3.900   5.322 -0.3640  0.4771 -0.1627
52877SOL    HW167599   1.992   3.922   5.379  0.9958 -1.2550 -1.1976
52877SOL    HW267600   1.920   3.966   5.253  0.6576  0.0072 -0.5819
52878SOL     OW67601   0.283   6.191  10.194 -0.4225  0.1698  0.7289
52878SOL    HW167602   0.226   6.255  10.152 -0.9434 -1.1947 -0.7435
52878SOL    HW267603   0.338   6.242  10.253 -0.4133  2.0260 -0.8198
52879SOL     OW67604   5.709   9.426   4.462  0.0344  0.1041  0.5237
52879SOL    HW167605   5.699   9.334   4.437  2.1825  0.5204 -2.3845
52879SOL    HW267606   5.694   9.475   4.381  3.9039  1.8748  0.6331
52880SOL     OW67607   0.626   1.521   5.828 -0.4046 -0.0077  0.0392
52880SOL    HW167608   0.549   1.497   5.878 -2.2647 -0.6241 -2.8897
52880SOL    HW267609   0.645   1.611   5.855 -1.4354 -0.2164  1.5869
52881SOL     OW67610   0.615   3.481   5.234 -0.3672 -0.1821 -0.0953
52881SOL    HW167611   0.689   3.490   5.294 -0.4585  0.6311 -0.0935
52881SOL    HW267612   0.638   3.537   5.160 -1.0203  0.1544 -0.0524
52882SOL     OW67613   9.420   6.156   8.176 -0.6274 -0.1118  0.0142
52882SOL    HW167614   9.486   6.089   8.157 -0.9297 -0.4878  0.2764
52882SOL    HW267615   9.357   6.149   8.104  0.0295  0.7857 -0.6630
52883SOL     OW67616   2.540   7.477   9.010 -0.2325  0.4348 -0.7249
52883SOL    HW167617   2.542   7.437   9.097  0.9572  1.1416 -0.4197
52883SOL    HW267618   2.620   7.448   8.967  1.0968  3.0556 -0.2123
52884SOL     OW67619   6.051   7.555   9.569  0.8908 -0.5370  0.3936
52884SOL    HW167620   6.023   7.629   9.623  0.9084 -0.3593  0.1577
52884SOL    HW267621   6.003   7.480   9.605 -1.4253  0.0730 -1.2326
52885SOL     OW67622   9.742   2.829   1.325  0.3279  0.5756  0.5459
52885SOL    HW167623   9.824   2.788   1.299  0.7068  0.7449  1.4195
52885SOL    HW267624   9.695   2.760   1.372 -0.7072  0.0217 -1.2080
52886SOL     OW67625  10.790  10.313   3.008 -0.1113  0.5727 -0.0796
52886SOL    HW167626  10.885  10.323   2.999  0.2260 -2.1666 -0.6362
52886SOL    HW267627  10.758  10.309   2.918 -0.4890 -0.1396  0.0783
52887SOL     OW67628   9.438   0.263   5.377  0.4799 -0.2422 -0.3173
52887SOL    HW167629   9.370   0.215   5.329  1.3645 -0.9505 -0.8861
52887SOL    HW267630   9.402   0.351   5.387 -0.2978 -0.4531 -1.0913
52888SOL     OW67631  11.772  11.140   1.173  0.1974 -0.3406  0.1905
52888SOL    HW167632  11.687  11.110   1.142  0.5385 -1.4342  0.2601
52888SOL    HW267633  11.761  11.147   1.268  0.6230 -2.0889  0.4053
52889SOL     OW67634  11.645   2.351   0.164  0.3170  0.3219 -0.3597
52889SOL    HW167635  11.617   2.383   0.078  1.1463  1.8466 -0.1026
52889SOL    HW267636  11.563   2.325   0.207 -0.2780  0.9250 -1.0859
52890SOL     OW67637   7.164   9.910   0.305 -1.0442  0.0981  0.2657
52890SOL    HW167638   7.125   9.945   0.225  0.4025 -0.1379 -0.5725
52890SOL    HW267639   7.152   9.815   0.299  1.9475 -0.3095 -1.3826
52891SOL     OW67640   3.193   2.701   6.180  0.3381  0.2441  0.0653
52891SOL    HW167641   3.176   2.684   6.272 -0.3121  1.0723  0.1043
52891SOL    HW267642   3.253   2.775   6.180 -3.1216  3.3378 -0.1690
52892SOL     OW67643   6.170   0.302   6.995 -0.1989 -0.0806 -0.1170
52892SOL    HW167644   6.261   0.330   7.005 -0.1390 -0.2037 -0.3011
52892SOL    HW267645   6.165   0.220   7.043  0.1658 -0.8260 -1.3021
52893SOL     OW67646  11.210   5.350   8.564 -0.2273 -0.1127 -0.1568
52893SOL    HW167647  11.166   5.275   8.604  0.9487 -0.1128  1.2426
52893SOL    HW267648  11.154   5.425   8.586 -0.0455 -0.2372  0.7932
52894SOL     OW67649  11.646  10.175   4.012 -0.1787  0.0831 -0.0382
52894SOL    HW167650  11.624  10.098   3.959 -2.9197 -0.1119  1.2112
52894SOL    HW267651  11.736  10.196   3.988 -0.3058 -1.7825 -2.5212
52895SOL     OW67652  11.522  10.124   3.088 -0.0235 -0.0419 -0.5176
52895SOL    HW167653  11.498  10.175   3.011 -0.8265  0.6472  0.1590
52895SOL    HW267654  11.478  10.168   3.161 -0.4889 -1.5200  0.1461
52896SOL     OW67655   7.224   3.251   1.951  0.0552  0.0477 -0.3442
52896SOL    HW167656   7.141   3.206   1.969 -0.5476  1.0356 -0.5794
52896SOL    HW267657   7.232   3.314   2.023 -0.1902  1.0307 -1.1610
52897SOL     OW67658   7.053   0.031   7.107  0.2201  0.0963  0.3017
52897SOL    HW167659   7.036   0.087   7.182 -1.2714  0.7893 -0.5201
52897SOL    HW267660   6.977   0.043   7.050  0.8154 -1.2323 -0.8229
52898SOL     OW67661   8.301  10.358   7.049 -0.1514 -0.6422 -0.6551
52898SOL    HW167662   8.293  10.372   7.143 -0.0904 -1.3106 -0.5457
52898SOL    HW267663   8.371  10.417   7.021 -1.8266  1.4361 -0.7270
52899SOL     OW67664   7.374   8.243   8.808 -0.5894 -0.1496 -0.1333
52899SOL    HW167665   7.371   8.317   8.869 -1.7203 -0.1794 -0.1245
52899SOL    HW267666   7.283   8.232   8.780 -0.2507 -0.8261 -1.0020
52900SOL     OW67667  11.567   7.056  11.253 -0.1398  0.0658  0.0829
52900SOL    HW167668  11.631   7.119  11.285 -0.7743  0.4944  0.5335
52900SOL    HW267669  11.558   6.993  11.325 -0.2900  0.0606  0.0603
52901SOL     OW67670   3.560   4.162  10.347 -0.7649 -0.1594 -0.2997
52901SOL    HW167671   3.619   4.237  10.357 -1.7736  0.6245 -0.0167
52901SOL    HW267672   3.616   4.086  10.353  0.2512  0.5748 -0.2830
52902SOL     OW67673   7.012   2.130   3.170  0.4318 -0.4268  0.0305
52902SOL    HW167674   6.981   2.167   3.087  0.3051  2.6201  1.3094
52902SOL    HW267675   7.084   2.187   3.197  1.5541 -2.3149  1.2685
52903SOL     OW67676   5.060   2.889   8.884 -0.2852 -0.2030  0.0883
52903SOL    HW167677   5.038   2.881   8.791  0.2500 -1.7978  0.0802
52903SOL    HW267678   5.139   2.943   8.885 -0.5188  0.1556 -0.3455
52904SOL     OW67679   1.199   9.881   2.766 -0.4625 -0.5443  0.5696
52904SOL    HW167680   1.261   9.928   2.822  0.2352  0.3302 -0.8866
52904SOL    HW267681   1.160   9.815   2.824 -1.0684  1.4054  2.5596
52905SOL     OW67682   4.720   8.303   5.881  0.2434 -0.0147  0.3513
52905SOL    HW167683   4.726   8.398   5.898  1.5393 -0.3191  1.9372
52905SOL    HW267684   4.734   8.263   5.967  0.6812 -1.6631 -0.4492
52906SOL     OW67685   8.500   3.357  10.693  0.3909 -0.7506  0.4669
52906SOL    HW167686   8.413   3.397  10.684  0.9330  0.7395  1.3968
52906SOL    HW267687   8.559   3.419  10.650  1.0643 -1.4051  0.4439
52907SOL     OW67688   6.436   1.927   3.888 -0.3605 -0.3965  0.1486
52907SOL    HW167689   6.470   1.996   3.831 -0.3692 -2.3828 -2.4766
52907SOL    HW267690   6.348   1.910   3.855 -0.7817 -0.9006  1.4735
52908SOL     OW67691   2.340   4.999   9.885  0.3191  0.3309  0.3181
52908SOL    HW167692   2.312   4.925   9.938 -4.0717 -0.0455 -2.0420
52908SOL    HW267693   2.292   5.074   9.920  1.6821  1.3053  0.2244
52909SOL     OW67694   8.030  11.948   0.554 -0.3345 -0.2814  0.2835
52909SOL    HW167695   8.035  12.024   0.612 -1.8757 -0.4549  0.6682
52909SOL    HW267696   8.120  11.914   0.552  0.2583  1.1672  0.5924
52910SOL     OW67697   8.469   7.995   4.980 -0.0556  0.4115  0.2427
52910SOL    HW167698   8.473   7.947   5.063 -0.3746 -0.3142 -0.1457
52910SOL    HW267699   8.424   7.935   4.920  1.5842  0.2679 -0.9017
52911SOL     OW67700   9.607   1.842   0.932 -0.0477 -0.1729 -0.2262
52911SOL    HW167701   9.536   1.802   0.881  0.7988  0.2015 -1.7565
52911SOL    HW267702   9.685   1.830   0.877  0.7166  1.1489  0.5383
52912SOL     OW67703  10.736   4.124   3.672  0.3715 -0.2802  0.2951
52912SOL    HW167704  10.732   4.067   3.748  1.3419 -0.0649  0.5234
52912SOL    HW267705  10.789   4.199   3.700  3.6804 -1.7375 -1.4912
52913SOL     OW67706   0.093   4.891   9.711 -0.1356 -0.0199 -0.1474
52913SOL    HW167707   0.080   4.812   9.660  0.5007 -0.2338  0.0071
52913SOL    HW267708   0.166   4.936   9.668  0.1459 -0.0051  0.3261
52914SOL     OW67709   1.953   8.513   1.499 -0.2941  0.7854  0.3256
52914SOL    HW167710   2.015   8.487   1.431 -0.4198  0.5329  0.3070
52914SOL    HW267711   1.937   8.433   1.548  0.1212  1.0594  0.9180
52915SOL     OW67712   3.419   6.106  11.887  1.0115  0.0769  0.4758
52915SOL    HW167713   3.481   6.113  11.814  0.7849 -1.4040  0.1016
52915SOL    HW267714   3.339   6.147  11.854 -0.2569 -3.5205 -1.5835
52916SOL     OW67715   1.661  11.580  11.423 -0.3818 -0.0981 -0.5117
52916SOL    HW167716   1.642  11.575  11.517 -0.7824  2.0411 -0.4280
52916SOL    HW267717   1.622  11.501  11.386 -0.3360 -0.9030  1.0947
52917SOL     OW67718   2.874  11.256   8.692  0.4560 -0.4456 -0.3965
52917SOL    HW167719   2.797  11.239   8.746  0.1241  1.6833 -0.1226
52917SOL    HW267720   2.840  11.296   8.612  1.2422  0.3978 -0.3328
52918SOL     OW67721  11.374   2.007   2.796  0.1546 -0.5848 -0.2203
52918SOL    HW167722  11.345   2.070   2.731  1.6245  0.4204  0.0512
52918SOL    HW267723  11.436   2.055   2.851 -0.9554 -1.4122  1.8993
52919SOL     OW67724   4.002   9.428   7.321 -0.2176  0.0195 -0.0260
52919SOL    HW167725   4.078   9.390   7.364 -0.8449 -1.2742 -0.0078
52919SOL    HW267726   4.001   9.519   7.349 -0.4363 -0.6944  2.5209
52920SOL     OW67727  10.756   5.894  12.379 -0.1781 -0.2924 -0.1217
52920SOL    HW167728  10.824   5.859  12.437 -0.3905  0.7879  0.8094
52920SOL    HW267729  10.722   5.971  12.425 -0.1325  0.7935 -1.8400
52921SOL     OW67730   6.270  10.572   4.989  0.3002  0.0579 -0.0690
52921SOL    HW167731   6.199  10.631   5.016  0.2595  1.1679 -2.3199
52921SOL    HW267732   6.328  10.568   5.065 -1.6528 -0.1116  1.5004
52922SOL     OW67733   9.889   0.091   4.828 -0.2279 -0.0094  0.0633
52922SOL    HW167734   9.885   0.007   4.875 -0.4296 -0.2893 -0.4476
52922SOL    HW267735   9.834   0.149   4.879  2.3764  0.7677  2.2678
52923SOL     OW67736   7.133   0.102   5.833  0.4197 -0.4919  0.0134
52923SOL    HW167737   7.098   0.142   5.754 -0.2262 -0.1582  0.4572
52923SOL    HW267738   7.216   0.063   5.806 -0.2593 -1.2360 -1.0471
52924SOL     OW67739  12.313   5.955   5.259 -0.2710 -0.1983 -0.0730
52924SOL    HW167740  12.279   5.982   5.174 -1.4405 -0.4250  0.3167
52924SOL    HW267741  12.246   5.897   5.295  0.3920 -0.4232  0.8367
52925SOL     OW67742   9.782   7.690   5.982 -0.0436  0.1734  0.5552
52925SOL    HW167743   9.839   7.613   5.984  0.2860  0.4197  1.0850
52925SOL    HW267744   9.693   7.655   5.979  0.0870 -0.2397  1.1866
52926SOL     OW67745   8.705  12.546   3.985 -0.0114 -0.3971 -0.1538
52926SOL    HW167746   8.749  12.520   4.066  1.3138 -1.0247 -1.0475
52926SOL    HW267747   8.759  12.509   3.915 -0.7156  0.7649 -1.3588
52927SOL     OW67748   3.817   5.433   4.456  0.0833  0.2974  0.4258
52927SOL    HW167749   3.749   5.500   4.454 -0.3650 -0.1420  0.6175
52927SOL    HW267750   3.899   5.480   4.441 -0.0640  1.0936  1.9123
52928SOL     OW67751   3.141   8.225   0.980 -0.0005 -0.5834  0.1699
52928SOL    HW167752   3.233   8.199   0.983  0.1735  0.0128  0.1726
52928SOL    HW267753   3.092   8.145   0.999  0.4822 -1.1160 -0.7488
52929SOL     OW67754   2.396  10.375   7.147  0.1099  0.4876 -0.5735
52929SOL    HW167755   2.313  10.371   7.196 -0.4085  0.9252 -1.3951
52929SOL    HW267756   2.463  10.376   7.215 -0.5456 -0.0209  0.1104
52930SOL     OW67757  11.478   4.004   3.940 -0.2389  0.2213  0.1186
52930SOL    HW167758  11.403   4.023   3.884  0.1834 -1.2725 -1.0331
52930SOL    HW267759  11.440   3.988   4.027 -1.0731  0.9343 -0.1042
52931SOL     OW67760   4.106   0.218   1.173  0.2937 -0.1708 -0.0146
52931SOL    HW167761   4.061   0.169   1.242  0.6251 -1.5841 -0.7611
52931SOL    HW267762   4.039   0.275   1.136  0.3095  1.2921  2.0219
52932SOL     OW67763   0.189   3.585   7.097  0.1684 -0.0832  0.0793
52932SOL    HW167764   0.247   3.510   7.085  0.5151  0.2266 -0.1558
52932SOL    HW267765   0.110   3.547   7.138 -0.5638 -0.9430 -2.0143
52933SOL     OW67766   1.374   0.077   4.627 -0.3190  0.5423 -0.2982
52933SOL    HW167767   1.418   0.101   4.709  2.1750 -1.7776 -0.8471
52933SOL    HW267768   1.340  -0.011   4.643 -3.5827  1.6219 -0.4667
52934SOL     OW67769   7.545   5.221  11.752 -0.0426 -0.0599  0.5184
52934SOL    HW167770   7.565   5.133  11.721 -0.2853  0.2335 -0.5324
52934SOL    HW267771   7.619   5.245  11.807  0.6958 -0.4048 -0.3045
52935SOL     OW67772  11.514   8.163   4.114  0.0176  0.0747 -0.6607
52935SOL    HW167773  11.546   8.251   4.130  1.0650 -0.4154  0.0188
52935SOL    HW267774  11.526   8.150   4.020  1.2011  0.1510 -0.5357
52936SOL     OW67775   4.816   0.739  12.102 -0.1688  0.4597 -1.1306
52936SOL    HW167776   4.883   0.727  12.035  0.7079  0.3704 -0.2621
52936SOL    HW267777   4.855   0.702  12.181 -2.7622 -3.5326 -1.3958
52937SOL     OW67778   0.823   8.133   7.389 -0.5134  0.1456 -0.4218
52937SOL    HW167779   0.886   8.062   7.401 -0.5706 -0.1665 -1.8003
52937SOL    HW267780   0.876   8.213   7.399  0.3265 -0.1103 -2.4426
52938SOL     OW67781   9.119   6.834   7.152  0.3724  0.4257 -0.3267
52938SOL    HW167782   9.037   6.855   7.106 -0.1924  0.7559  0.7793
52938SOL    HW267783   9.106   6.745   7.184  0.8210  0.1438 -0.9285
52939SOL     OW67784  10.077   9.254   0.318  0.3161 -0.3839 -0.8175
52939SOL    HW167785  10.167   9.264   0.285  0.4416 -1.0424 -0.6978
52939SOL    HW267786  10.082   9.178   0.376  0.4361  1.5100  1.8704
52940SOL     OW67787   8.037   1.251   3.615 -0.0330 -0.4634 -0.6103
52940SOL    HW167788   8.010   1.251   3.707  1.2217  1.7509 -0.1756
52940SOL    HW267789   7.961   1.286   3.568  0.2631  1.0571 -0.0214
52941SOL     OW67790   8.351   3.556   7.392 -0.5643 -1.1642 -0.5705
52941SOL    HW167791   8.276   3.520   7.439 -1.0535  0.6406  0.1132
52941SOL    HW267792   8.316   3.589   7.310 -0.5243 -0.3024 -0.2444
52942SOL     OW67793   2.453   0.877   8.462  0.8077  0.1243  0.3599
52942SOL    HW167794   2.365   0.843   8.470 -0.5710  3.4095  0.8873
52942SOL    HW267795   2.492   0.828   8.390 -0.4197 -3.2377  1.7932
52943SOL     OW67796   6.270   5.656   5.557  0.3170 -0.1573  0.2953
52943SOL    HW167797   6.191   5.603   5.549  0.5212 -0.2465 -1.5437
52943SOL    HW267798   6.326   5.626   5.486  2.2958 -0.5138  1.9238
52944SOL     OW67799  11.927   9.365   1.376  0.0300 -0.1127 -0.2762
52944SOL    HW167800  11.888   9.438   1.328  1.1840 -0.6029 -2.0820
52944SOL    HW267801  11.987   9.407   1.439 -1.2461  0.5368  0.5465
52945SOL     OW67802   6.072   6.121   1.324 -1.0752 -0.5661  0.1923
52945SOL    HW167803   6.003   6.146   1.387 -1.6602 -1.0166 -0.2621
52945SOL    HW267804   6.038   6.150   1.239  0.0077  0.6456  0.1461
52946SOL     OW67805  11.024  11.570  10.758 -0.2173  0.1008  0.3653
52946SOL    HW167806  10.996  11.656  10.788  0.1475  0.1620  0.5309
52946SOL    HW267807  10.942  11.522  10.743 -0.7406  1.9049 -4.1505
52947SOL     OW67808   6.373   5.893   4.384 -0.1379  0.0457  0.3718
52947SOL    HW167809   6.293   5.917   4.431 -1.0322 -2.5694  0.3684
52947SOL    HW267810   6.381   5.958   4.315 -1.2720  1.3758  1.4296
52948SOL     OW67811   0.979   4.622   5.612 -0.0201  0.5195 -0.5490
52948SOL    HW167812   0.975   4.690   5.545 -1.3852 -0.1975 -1.2544
52948SOL    HW267813   0.891   4.582   5.611 -0.2080  0.6861  1.9006
52949SOL     OW67814  12.523   1.609   7.719 -0.0767 -0.1180  0.3654
52949SOL    HW167815  12.433   1.578   7.710  0.0821 -0.7862  0.9791
52949SOL    HW267816  12.577   1.533   7.696  0.3278  0.0346  0.7883
52950SOL     OW67817   0.011   7.474   1.634 -0.1163 -0.0196 -0.0587
52950SOL    HW167818   0.050   7.452   1.549 -1.7817 -2.3550 -0.3167
52950SOL    HW267819  -0.080   7.448   1.626 -0.2627 -0.5707  2.5404
52951SOL     OW67820   5.405  12.249   4.190  0.5736 -0.0454 -0.3631
52951SOL    HW167821   5.363  12.204   4.264  2.2057 -0.2875  0.4681
52951SOL    HW267822   5.479  12.193   4.167  1.4259  1.1713 -0.6843
52952SOL     OW67823  10.271   1.941   0.881 -0.1176  0.0148  0.4455
52952SOL    HW167824  10.353   1.987   0.898  0.6192  0.2450 -3.0093
52952SOL    HW267825  10.206   1.990   0.931  1.3533  1.9519  0.6056
52953SOL     OW67826   0.483   2.020   5.973 -0.7039 -0.5232  0.2409
52953SOL    HW167827   0.429   2.035   5.896 -2.3784 -0.2874  1.4226
52953SOL    HW267828   0.459   2.090   6.033  0.7580 -0.5546  0.9094
52954SOL     OW67829   3.281  12.306   9.183 -0.2065  0.2447 -0.5229
52954SOL    HW167830   3.228  12.238   9.141  0.4321 -0.5446 -0.0883
52954SOL    HW267831   3.222  12.347   9.246  0.3022 -2.3333  1.8049
52955SOL     OW67832   2.537  11.440   1.737  0.3672 -0.1900  0.8723
52955SOL    HW167833   2.491  11.471   1.659  1.0989  0.3019  0.6129
52955SOL    HW267834   2.474  11.386   1.783 -0.3336  0.1539  0.3380
52956SOL     OW67835   3.099  11.501   1.044 -0.6703  0.0058 -0.0941
52956SOL    HW167836   3.040  11.446   1.096 -0.5359 -0.2447 -0.2075
52956SOL    HW267837   3.171  11.521   1.103 -0.1867 -0.8338 -0.3972
52957SOL     OW67838   9.731   3.161   9.574 -0.3721  0.1611  0.3999
52957SOL    HW167839   9.695   3.236   9.528 -0.8001 -1.0807 -1.3737
52957SOL    HW267840   9.659   3.129   9.629 -0.4993  0.4371  0.3939
52958SOL     OW67841   9.326   3.657   2.401 -0.0512 -0.2873  0.5539
52958SOL    HW167842   9.277   3.576   2.410 -0.4771 -0.0787  0.1487
52958SOL    HW267843   9.260   3.726   2.393  0.3014  0.0609  0.5635
52959SOL     OW67844   4.771   2.299  11.931 -0.0964  0.2186  0.8616
52959SOL    HW167845   4.763   2.219  11.880  1.0279  0.3919  0.3941
52959SOL    HW267846   4.778   2.269  12.022  0.7090 -0.2407  0.6570
52960SOL     OW67847  11.592   9.328   5.670 -0.0882  0.3018  0.1813
52960SOL    HW167848  11.631   9.390   5.732 -0.3393 -0.5341  1.2086
52960SOL    HW267849  11.568   9.253   5.724 -0.3196 -0.4539 -0.9437
52961SOL     OW67850   1.551  12.487   9.787 -0.1724 -0.6496 -0.3601
52961SOL    HW167851   1.458  12.477   9.766  0.3920 -0.5819 -3.2897
52961SOL    HW267852   1.581  12.398   9.805 -0.5717 -0.8063 -0.4544
52962SOL     OW67853   3.077   7.662   3.045 -0.2682 -0.3653  0.1096
52962SOL    HW167854   3.128   7.690   2.969  0.6626 -0.8461  0.5298
52962SOL    HW267855   3.093   7.731   3.110 -0.0780 -0.5558  0.2683
52963SOL     OW67856   5.395   4.757   1.942  0.5866 -0.3238 -0.6940
52963SOL    HW167857   5.362   4.802   2.020  2.9094  2.0585 -0.9161
52963SOL    HW267858   5.329   4.773   1.875 -0.2973 -0.3105  0.1610
52964SOL     OW67859  11.445  12.107   7.614  0.0858 -0.2268 -0.2821
52964SOL    HW167860  11.463  12.168   7.686 -1.4075 -1.5171  1.2892
52964SOL    HW267861  11.517  12.043   7.620 -0.3117 -0.6216  0.4373
52965SOL     OW67862   8.265   6.888   9.251 -0.1199 -0.4076  0.2849
52965SOL    HW167863   8.357   6.868   9.265  0.4221  1.2512 -0.6252
52965SOL    HW267864   8.239   6.833   9.177  0.0458 -1.0929  0.7276
52966SOL     OW67865   8.556   0.072   8.520 -0.6730 -0.1608 -0.2984
52966SOL    HW167866   8.643   0.079   8.481 -0.1129 -1.3083  0.6776
52966SOL    HW267867   8.561   0.127   8.598 -0.3440 -1.2914  0.5097
52967SOL     OW67868   5.040   8.679  10.608 -0.2817 -0.0758 -0.0877
52967SOL    HW167869   4.982   8.707  10.678  0.6709  3.5730 -0.5107
52967SOL    HW267870   5.015   8.734  10.533  0.5895 -1.8081 -1.7261
52968SOL     OW67871   2.782   9.527   7.242 -0.0791 -0.5765 -0.3893
52968SOL    HW167872   2.689   9.525   7.220  0.3275 -0.4155 -2.3292
52968SOL    HW267873   2.824   9.564   7.164  1.5447  0.0568  0.7255
52969SOL     OW67874  11.251  11.275   2.486 -0.2197  0.7275  0.1973
52969SOL    HW167875  11.322  11.314   2.435 -0.8042  1.2258 -0.2465
52969SOL    HW267876  11.190  11.347   2.501 -0.9156  0.1697  0.0669
52970SOL     OW67877   8.560   1.128   4.910 -0.8836 -0.0039  0.1493
52970SOL    HW167878   8.510   1.124   4.828 -0.3034 -0.1116 -0.2073
52970SOL    HW267879   8.510   1.073   4.971 -0.2431 -1.6387 -0.7313
52971SOL     OW67880   4.572   2.198  11.441  0.8686 -0.0845  0.0622
52971SOL    HW167881   4.549   2.133  11.375 -0.3800  0.7257 -0.3338
52971SOL    HW267882   4.660   2.173  11.470 -0.1404 -2.7827  1.0046
52972SOL     OW67883   3.880   0.541   6.448  0.9593  0.3284  0.5880
52972SOL    HW167884   3.882   0.467   6.388 -0.0652  0.1678  0.7420
52972SOL    HW267885   3.790   0.574   6.444  1.0040  0.6287  1.6504
52973SOL     OW67886   4.682   6.502   9.889 -0.0680  0.3282 -0.4215
52973SOL    HW167887   4.732   6.500   9.971 -2.5677 -0.1242  1.1974
52973SOL    HW267888   4.627   6.424   9.892 -1.9191  1.5068 -1.3410
52974SOL     OW67889   5.157   2.410   6.161  0.2616  0.3837 -0.5425
52974SOL    HW167890   5.106   2.447   6.234  1.1198  2.2330 -0.8161
52974SOL    HW267891   5.246   2.404   6.194  0.4272  0.0132 -1.0397
52975SOL     OW67892   0.528  10.580   8.348  0.3492 -0.5197 -0.7205
52975SOL    HW167893   0.452  10.523   8.351 -0.0997 -0.1072 -2.8731
52975SOL    HW267894   0.603  10.522   8.360 -0.2236 -1.1558 -0.1845
52976SOL     OW67895   9.862   3.527   4.530  0.3492 -0.7956 -0.6609
52976SOL    HW167896   9.799   3.501   4.597 -0.9457  1.3083 -0.9546
52976SOL    HW267897   9.859   3.455   4.466 -0.3760 -1.5909  0.2277
52977SOL     OW67898  11.811  11.193   4.105 -0.3056  0.2394 -0.0195
52977SOL    HW167899  11.738  11.132   4.092  0.8144 -1.0459 -0.4682
52977SOL    HW267900  11.836  11.220   4.017 -0.1386  0.5674  0.1260
52978SOL     OW67901   2.222   2.710  11.084  0.1076 -0.3596  0.3707
52978SOL    HW167902   2.265   2.763  11.017 -1.4992 -1.7635 -1.8967
52978SOL    HW267903   2.293   2.665  11.129  1.2885  1.4148  0.3793
52979SOL     OW67904   1.713   2.406   2.831  0.0308 -0.4067  0.5068
52979SOL    HW167905   1.743   2.432   2.917  1.9503  0.4204 -0.3566
52979SOL    HW267906   1.618   2.400   2.839 -0.0290  1.7852  2.1081
52980SOL     OW67907   1.242   8.739  10.375  0.0965  1.0460  0.1345
52980SOL    HW167908   1.309   8.689  10.327  0.1340  0.7696  0.4715
52980SOL    HW267909   1.192   8.783  10.307  0.2868  0.8255 -0.1514
52981SOL     OW67910  12.143   3.911   8.950 -0.4206  0.5947  0.3068
52981SOL    HW167911  12.194   3.852   8.893 -1.7778 -0.3660  0.0524
52981SOL    HW267912  12.189   3.909   9.034 -1.2954 -2.0810  0.7817
52982SOL     OW67913  10.627  11.543   8.415  0.4352  0.6667 -0.1737
52982SOL    HW167914  10.685  11.535   8.339  1.5709 -3.2486  0.9128
52982SOL    HW267915  10.546  11.501   8.388  0.5608 -0.0247  0.5137
52983SOL     OW67916  11.134   3.299   6.158 -0.3851  0.3066  0.2182
52983SOL    HW167917  11.090   3.355   6.095 -0.9392  1.1181  1.2849
52983SOL    HW267918  11.227   3.313   6.142 -0.5173  0.2346 -0.6396
52984SOL     OW67919   2.994  10.384   8.863  0.1487  0.4491 -0.2459
52984SOL    HW167920   3.051  10.413   8.792 -1.0907 -1.0747 -1.9812
52984SOL    HW267921   3.022  10.294   8.882 -0.8468  0.1143 -0.2806
52985SOL     OW67922   7.413   5.913  12.442  0.0612 -0.3608 -0.3545
52985SOL    HW167923   7.421   5.819  12.456  0.0430 -0.0819  2.1088
52985SOL    HW267924   7.474   5.933  12.371  0.9805 -2.0707 -0.0961
52986SOL     OW67925  12.334   2.832   9.549  0.7880  0.0838 -0.4147
52986SOL    HW167926  12.405   2.802   9.606  1.6846  0.3823 -1.3305
52986SOL    HW267927  12.254   2.817   9.599  1.5371  0.2359  0.8676
52987SOL     OW67928   6.087  10.337   4.304 -0.1989 -0.6850  0.5981
52987SOL    HW167929   6.049  10.414   4.261 -0.0829 -0.1973  1.3637
52987SOL    HW267930   6.178  10.335   4.273 -0.1709 -0.4542  0.6658
52988SOL     OW67931   4.537   3.239   9.586  0.0175  0.3192  0.0644
52988SOL    HW167932   4.562   3.304   9.520 -0.3029  1.1133  0.7075
52988SOL    HW267933   4.480   3.178   9.539  2.2600 -0.9508 -1.1863
52989SOL     OW67934   7.920   1.734   0.831 -0.0031  0.0025 -0.1630
52989SOL    HW167935   7.909   1.751   0.737  0.7344 -0.2817 -0.3019
52989SOL    HW267936   7.839   1.767   0.870  0.3640  1.6697 -0.6982
52990SOL     OW67937   4.275   1.915  12.335 -0.1302 -0.0720 -0.3453
52990SOL    HW167938   4.294   2.008  12.348  4.3207 -0.9374  1.2851
52990SOL    HW267939   4.336   1.887  12.267 -2.5560 -1.5875 -2.0633
52991SOL     OW67940   0.707  12.445   1.705 -0.1241 -0.0898 -0.1419
52991SOL    HW167941   0.785  12.494   1.678  0.1581 -0.3674  0.1520
52991SOL    HW267942   0.644  12.459   1.635  0.1693  0.1910 -0.3530
52992SOL     OW67943   1.096   2.448  12.117 -0.3741 -0.0833  0.1798
52992SOL    HW167944   1.174   2.502  12.124 -0.3374  0.1482 -1.4834
52992SOL    HW267945   1.023   2.508  12.131 -0.3011  0.1734 -0.5087
52993SOL     OW67946   3.244   6.454   7.349  0.0064  0.1051  0.1340
52993SOL    HW167947   3.329   6.470   7.391 -0.5064 -1.3221  1.8059
52993SOL    HW267948   3.180   6.478   7.415 -0.8297 -2.5509  0.3884
52994SOL     OW67949   0.758   7.904   4.628  0.5226  0.4167 -0.6143
52994SOL    HW167950   0.684   7.847   4.648  0.7436  0.1424 -0.5745
52994SOL    HW267951   0.830   7.844   4.611  1.6574  0.6758  2.6977
52995SOL     OW67952   0.250   8.208  11.576 -0.1218  0.4027 -0.6539
52995SOL    HW167953   0.166   8.217  11.531  0.2103  0.3174 -1.3085
52995SOL    HW267954   0.311   8.181  11.507  0.0080 -1.6972  0.2133
52996SOL     OW67955   2.022  10.371   0.884  0.3816  0.1759  0.5021
52996SOL    HW167956   2.112  10.344   0.899  0.6140  0.1973 -0.7082
52996SOL    HW267957   2.030  10.447   0.826 -0.3904  0.5875  0.9235
52997SOL     OW67958   8.006  11.136   7.401 -0.3151  0.1821  0.4744
52997SOL    HW167959   7.954  11.201   7.353 -0.0772 -0.2631 -0.3934
52997SOL    HW267960   8.093  11.140   7.361 -0.0882 -0.1328  0.9318
52998SOL     OW67961   0.125   8.749  11.591  0.0858 -0.6857 -0.0114
52998SOL    HW167962   0.097   8.745  11.683 -1.4995 -0.5555 -0.4492
52998SOL    HW267963   0.220   8.745  11.595  0.0939  0.0118  1.6809
52999SOL     OW67964   4.567   4.452  10.524 -0.1043 -0.2173  0.3431
52999SOL    HW167965   4.527   4.523  10.575 -1.3860  0.6502 -1.7057
52999SOL    HW267966   4.661   4.465  10.534 -0.3213  0.5680  1.5885
53000SOL     OW67967  12.410   5.982  12.027 -0.0070  0.4958 -0.3311
53000SOL    HW167968  12.363   5.971  12.109  0.1959 -0.2008 -0.3015
53000SOL    HW267969  12.369   5.921  11.967  0.5078  0.2692 -0.4559
53001SOL     OW67970  11.949   2.338   6.020 -0.2274 -0.0543  0.0622
53001SOL    HW167971  12.032   2.343   5.971 -0.7906  2.1042 -0.7853
53001SOL    HW267972  11.975   2.317   6.109  1.4610  2.2473  0.2045
53002SOL     OW67973   4.711   4.113   7.373  0.2548 -0.2808 -0.2815
53002SOL    HW167974   4.650   4.122   7.446  1.9290  0.2150  1.1484
53002SOL    HW267975   4.763   4.194   7.376  1.1580 -0.8001 -1.2616
53003SOL     OW67976   6.872   8.890   1.344 -0.1133  0.1111 -0.7365
53003SOL    HW167977   6.800   8.952   1.358 -0.9319 -1.2254  1.5438
53003SOL    HW267978   6.849   8.845   1.263 -0.1136  1.8866 -1.7896
53004SOL     OW67979   2.333  11.986   4.851  0.2559 -0.1138  0.5984
53004SOL    HW167980   2.292  11.964   4.767 -1.1786  1.6862  0.7626
53004SOL    HW267981   2.293  11.926   4.914 -0.5111  0.1679  0.3853
53005SOL     OW67982  12.538  11.142   2.967  0.0758  0.0071 -0.3971
53005SOL    HW167983  12.529  11.237   2.966  0.1628  0.0355 -2.2148
53005SOL    HW267984  12.457  11.110   3.008  0.4901  0.8605  1.1636
53006SOL     OW67985   3.330   3.097   1.564 -0.1463 -0.5854  0.2360
53006SOL    HW167986   3.290   3.182   1.547  0.8118 -0.2605 -0.4449
53006SOL    HW267987   3.345   3.060   1.477  1.2405 -0.5897  0.4538
53007SOL     OW67988   3.439   4.544   4.127  0.0033  0.0767  0.2128
53007SOL    HW167989   3.368   4.581   4.074  0.3505  1.1559  0.4729
53007SOL    HW267990   3.423   4.449   4.126  0.0967  0.0271 -1.9736
53008SOL     OW67991   0.786  11.559   0.967 -0.4024  0.4936 -0.4785
53008SOL    HW167992   0.865  11.608   0.985 -0.5454  0.8966 -0.9334
53008SOL    HW267993   0.752  11.535   1.053  0.3478  0.0883 -0.2869
53009SOL     OW67994   6.630   7.089   4.590 -0.7258 -0.6780  0.7910
53009SOL    HW167995   6.704   7.029   4.594  1.5831  1.6826 -1.8108
53009SOL    HW267996   6.589   7.073   4.506 -0.1799  1.1408  0.1240
53010SOL     OW67997   7.391  11.521   8.752 -0.5056  0.1556 -0.7929
53010SOL    HW167998   7.405  11.428   8.733  0.1104  0.2329 -0.7085
53010SOL    HW267999   7.305  11.524   8.795 -0.3172 -0.4333 -0.3638
53011SOL     OW68000  10.862   2.392   3.531  0.0316  0.3267  0.4099
53011SOL    HW168001  10.907   2.421   3.452 -0.0697  2.1038  0.9697
53011SOL    HW268002  10.856   2.297   3.522  2.1030  0.2499 -0.6106
53012SOL     OW68003   2.899   9.931   6.482  0.3123  0.0085 -0.4230
53012SOL    HW168004   2.945   9.874   6.420  0.2683  1.2974 -1.6818
53012SOL    HW268005   2.966   9.954   6.547  0.7495 -0.2094 -0.7865
53013SOL     OW68006  11.804   0.960   1.692 -0.1386 -0.0006  0.4395
53013SOL    HW168007  11.854   0.921   1.620  1.0691  2.6822 -0.2884
53013SOL    HW268008  11.861   0.952   1.768  0.2827  0.7384  0.1982
53014SOL     OW68009   1.378   9.424   4.753  0.4044  0.1974  0.4912
53014SOL    HW168010   1.325   9.499   4.781 -0.5685 -0.6674  1.0362
53014SOL    HW268011   1.314   9.360   4.722  1.3152  0.1795 -1.4560
53015SOL     OW68012   0.392   5.768  11.117 -0.7383 -0.1328  0.2313
53015SOL    HW168013   0.453   5.784  11.189 -1.0804  0.0449  0.4869
53015SOL    HW268014   0.446   5.771  11.038 -0.4945  0.5204  0.4174
53016SOL     OW68015   0.649  10.011   0.194 -0.2042  0.4477 -0.1083
53016SOL    HW168016   0.635  10.052   0.109 -1.6410  1.5060  0.5994
53016SOL    HW268017   0.702   9.934   0.175 -0.7612  0.4830 -1.9877
53017SOL     OW68018   4.764   8.450   2.015  0.1754  0.2962 -0.0359
53017SOL    HW168019   4.796   8.372   2.059 -1.2643  0.5227  1.5180
53017SOL    HW268020   4.781   8.522   2.076  0.4478  1.0265 -0.9477
53018SOL     OW68021   7.263  10.021   8.276 -0.1606  0.0299 -0.1158
53018SOL    HW168022   7.189  10.053   8.328  1.2046  2.7287  0.3475
53018SOL    HW268023   7.332  10.004   8.340  1.0418  1.9047 -0.8443
53019SOL     OW68024  11.094   1.598   5.211  0.0053  0.5062 -0.3771
53019SOL    HW168025  11.089   1.612   5.306 -0.8004 -0.3267 -0.2913
53019SOL    HW268026  11.010   1.630   5.177  0.0260  0.1863 -0.7345
53020SOL     OW68027   4.649  11.534  10.295 -0.8266  0.2225 -0.3679
53020SOL    HW168028   4.652  11.611  10.352 -0.9606 -0.2370  0.2838
53020SOL    HW268029   4.724  11.545  10.237  1.1793 -0.7179  1.8526
53021SOL     OW68030   4.516   0.671   0.646 -0.2777  0.4105 -0.5007
53021SOL    HW168031   4.599   0.716   0.660  0.6021 -1.5384  0.9625
53021SOL    HW268032   4.452   0.724   0.696  0.6806  0.2208  0.9992
53022SOL     OW68033   7.355   1.502   9.139  0.1132 -0.5743  0.5824
53022SOL    HW168034   7.438   1.536   9.104 -1.8074  3.1445 -0.9072
53022SOL    HW268035   7.364   1.511   9.234  1.0779  0.7797  0.3961
53023SOL     OW68036   4.567  11.986   0.213  0.2369  0.6776 -0.1631
53023SOL    HW168037   4.515  11.906   0.217  1.0203  0.0285 -2.0231
53023SOL    HW268038   4.547  12.032   0.295  0.1686 -1.6484  1.2018
53024SOL     OW68039  10.717  12.381   3.354 -0.2226  0.0664  0.0230
53024SOL    HW168040  10.683  12.365   3.266 -0.7468 -1.6443  0.5101
53024SOL    HW268041  10.784  12.449   3.341  2.4979 -2.7820 -2.3119
53025SOL     OW68042   3.702   9.522  10.809  0.1137 -0.3347 -0.0315
53025SOL    HW168043   3.744   9.608  10.807  2.9430 -1.6149 -0.5715
53025SOL    HW268044   3.714   9.491  10.899  1.1276 -1.0574 -0.4030
53026SOL     OW68045   7.476   1.359   1.771  0.1990 -0.0624 -0.2072
53026SOL    HW168046   7.399   1.415   1.769  0.4684  0.5250  2.5496
53026SOL    HW268047   7.545   1.413   1.732  0.0734  0.9326  0.9028
53027SOL     OW68048   7.623   1.651   5.531  0.4883  0.4905 -0.0796
53027SOL    HW168049   7.543   1.696   5.557 -1.1582 -1.6831 -1.0809
53027SOL    HW268050   7.639   1.680   5.441 -0.4985 -0.7575 -0.6787
53028SOL     OW68051   8.026  12.156  12.131 -0.3264  0.1293  0.3870
53028SOL    HW168052   8.016  12.244  12.094 -1.6352  0.1749  0.8053
53028SOL    HW268053   8.065  12.105  12.060  1.7622  1.3392  0.5858
53029SOL     OW68054   8.851   7.937  11.827  0.0495 -0.9307 -0.0184
53029SOL    HW168055   8.925   7.949  11.767 -0.0338  0.4504  0.1376
53029SOL    HW268056   8.881   7.871  11.889  1.3916  0.0640  0.4128
53030SOL     OW68057   7.372   5.149   8.988  0.5317 -0.0776  0.2996
53030SOL    HW168058   7.460   5.125   8.959  1.0526  0.7025  1.1682
53030SOL    HW268059   7.316   5.131   8.912  1.2007 -1.9233  0.1986
53031SOL     OW68060   2.598   9.640   6.865  0.2049 -0.0334  0.1983
53031SOL    HW168061   2.622   9.702   6.796  3.0074 -0.1607  0.9585
53031SOL    HW268062   2.504   9.653   6.876  0.1089  1.7308 -1.9227
53032SOL     OW68063   8.323   9.766  10.827 -1.1052  0.1813  0.0306
53032SOL    HW168064   8.377   9.839  10.796  0.8713 -0.8973  0.7495
53032SOL    HW268065   8.243   9.771  10.774  0.3969  0.8398 -2.3639
53033SOL     OW68066  11.832   3.092   8.164 -0.7063 -0.3821 -0.6373
53033SOL    HW168067  11.794   3.151   8.100  1.1994  0.1341 -1.3608
53033SOL    HW268068  11.917   3.131   8.186  0.3210 -2.4571 -0.6350
53034SOL     OW68069   3.228   5.168   1.813  0.5377 -0.2841  0.2535
53034SOL    HW168070   3.168   5.206   1.750  0.6550 -1.0635 -0.3536
53034SOL    HW268071   3.216   5.073   1.803  1.8340 -0.4574  0.1329
53035SOL     OW68072   6.938   7.575   6.691 -0.6517 -0.1219  0.0389
53035SOL    HW168073   6.994   7.587   6.768 -0.0819  0.5931 -0.4794
53035SOL    HW268074   6.849   7.569   6.727 -0.3886  0.1874  0.7549
53036SOL     OW68075   6.975   5.897   7.280  0.0995 -0.0375 -0.0306
53036SOL    HW168076   6.898   5.945   7.310  1.0435  0.4116  1.8884
53036SOL    HW268077   6.983   5.824   7.341  1.9267  0.7169  0.7437
53037SOL     OW68078   0.603   2.078   4.380 -0.0882  0.0277  0.7813
53037SOL    HW168079   0.677   2.119   4.425 -0.0166  1.8201 -0.8402
53037SOL    HW268080   0.531   2.140   4.391 -0.0969  0.4941 -1.4027
53038SOL     OW68081   9.293  11.690   8.523 -0.3681 -0.2968 -0.1229
53038SOL    HW168082   9.249  11.627   8.580  0.5679 -1.0423 -0.1949
53038SOL    HW268083   9.293  11.772   8.573  0.3129 -0.9074  0.9085
53039SOL     OW68084   0.746   1.350   7.172  0.5072 -0.4262  0.9959
53039SOL    HW168085   0.801   1.425   7.153  0.4905 -0.4705  0.7738
53039SOL    HW268086   0.777   1.318   7.257  0.9653 -0.5819  0.7720
53040SOL     OW68087   3.975  10.540  12.484  0.2508 -0.2755 -0.1463
53040SOL    HW168088   4.022  10.487  12.419 -1.4817 -1.5585 -0.4228
53040SOL    HW268089   3.916  10.595  12.433 -0.5956 -0.7658  0.2718
53041SOL     OW68090  10.061   9.814   1.737 -0.0349 -0.0442  0.4507
53041SOL    HW168091  10.109   9.770   1.667 -1.3522 -0.0129 -0.5171
53041SOL    HW268092  10.066   9.754   1.811 -0.4417 -1.1041 -0.3521
53042SOL     OW68093   2.911  10.027   2.531  0.0500 -0.1995  0.3569
53042SOL    HW168094   2.846  10.057   2.594  1.2159  0.1094  1.4586
53042SOL    HW268095   2.992  10.021   2.582  0.9465 -0.2916 -1.0387
53043SOL     OW68096  11.310   2.185   3.543  0.3331  0.0718 -0.7806
53043SOL    HW168097  11.359   2.119   3.494  1.7959 -1.0163  1.8998
53043SOL    HW268098  11.222   2.147   3.553  0.5424 -0.4893 -1.0350
53044SOL     OW68099   1.129   4.379   3.345  0.6529  0.1914 -0.3387
53044SOL    HW168100   1.092   4.458   3.385 -0.4071 -0.1445 -0.6188
53044SOL    HW268101   1.122   4.395   3.251  0.9561 -0.0031 -0.3938
53045SOL     OW68102   6.951   0.021  10.348 -0.4433  0.3285 -0.4491
53045SOL    HW168103   6.989  -0.013  10.429  1.0252  1.2642 -0.6877
53045SOL    HW268104   6.916   0.107  10.371  1.2891  1.2554 -1.0407
53046SOL     OW68105   5.410   5.640   5.955 -0.3150  0.3744  0.5104
53046SOL    HW168106   5.410   5.736   5.954 -1.1881  0.3866 -1.2545
53046SOL    HW268107   5.331   5.617   6.004 -0.9287  0.5760 -0.3734
53047SOL     OW68108   4.325   2.634   0.944 -0.1630  0.0103  0.1461
53047SOL    HW168109   4.372   2.662   1.022 -0.0385 -0.1639  0.1334
53047SOL    HW268110   4.294   2.546   0.965 -0.8294  0.2777  0.3077
53048SOL     OW68111  10.986   0.888   2.011  0.9286 -0.2532 -0.1755
53048SOL    HW168112  10.976   0.918   2.102  1.5726 -1.8058  0.4459
53048SOL    HW268113  10.955   0.961   1.958  1.2174  0.9783  1.2781
53049SOL     OW68114  12.270  12.219   6.071  0.4614 -0.2531  0.3448
53049SOL    HW168115  12.331  12.225   5.997  2.5811 -1.5505  1.8642
53049SOL    HW268116  12.230  12.133   6.063  0.3546 -0.2148  0.4627
53050SOL     OW68117   9.760   2.039   8.913  0.2717  0.1380 -0.1811
53050SOL    HW168118   9.707   2.106   8.955 -0.1136  0.3704 -1.0276
53050SOL    HW268119   9.726   1.956   8.949 -0.3468  0.3090 -0.3540
53051SOL     OW68120   4.626   0.121   7.429 -0.8773  0.0785  0.3288
53051SOL    HW168121   4.713   0.141   7.462 -0.9203 -0.3698  0.7134
53051SOL    HW268122   4.589   0.206   7.405 -0.2670  0.2548 -0.0164
53052SOL     OW68123   0.625   4.637   5.322 -0.0909  0.1906  0.5231
53052SOL    HW168124   0.564   4.566   5.302 -0.8400  1.0716 -0.3564
53052SOL    HW268125   0.661   4.662   5.237  1.6083 -0.3810  1.0283
53053SOL     OW68126  10.956   6.884   9.275 -0.0136  0.1037 -0.2507
53053SOL    HW168127  10.991   6.972   9.261  0.7648 -0.0312  0.7358
53053SOL    HW268128  10.870   6.899   9.314  0.8306  0.4696  1.5908
53054SOL     OW68129   3.985   1.229   0.322 -0.1463  0.3699 -0.2147
53054SOL    HW168130   3.917   1.238   0.255 -0.6880  0.5379  0.3408
53054SOL    HW268131   4.022   1.317   0.331  1.4872 -0.0918 -1.8631
53055SOL     OW68132   0.916   4.361   6.249  0.1643 -0.1056  0.0067
53055SOL    HW168133   0.975   4.407   6.190  0.7877 -1.6014 -0.5828
53055SOL    HW268134   0.919   4.412   6.330  2.9856 -0.5874  0.3071
53056SOL     OW68135   6.432   9.140   1.571  0.3733 -0.0346  0.2822
53056SOL    HW168136   6.401   9.091   1.647  2.6889 -2.7064 -0.3441
53056SOL    HW268137   6.385   9.101   1.497 -0.0658  0.8908  0.0575
53057SOL     OW68138   0.251  11.504  12.233  0.1545 -0.0207  0.1339
53057SOL    HW168139   0.168  11.491  12.279 -0.4402  0.8424 -0.6405
53057SOL    HW268140   0.252  11.436  12.166  1.1714 -1.4817  1.5672
53058SOL     OW68141  12.511   6.323   1.196 -0.0889  0.8873  0.5033
53058SOL    HW168142  12.455   6.319   1.273  1.5374 -0.7540  1.6730
53058SOL    HW268143  12.511   6.235   1.160 -0.3469  1.4879 -1.0643
53059SOL     OW68144   1.129   1.389   3.338 -0.5091  0.1441  0.4455
53059SOL    HW168145   1.085   1.416   3.257  0.8992  0.2174 -0.3214
53059SOL    HW268146   1.072   1.422   3.408 -1.1037  1.2023 -0.4989
53060SOL     OW68147   0.440   7.126   3.175 -0.5341  0.4028 -0.2587
53060SOL    HW168148   0.415   7.060   3.239  0.9781 -1.7036 -1.7305
53060SOL    HW268149   0.451   7.206   3.227  0.5187 -1.1754  2.1370
53061SOL     OW68150   8.778   7.861   2.134 -0.8985  0.3189  0.9443
53061SOL    HW168151   8.793   7.808   2.055  1.8027 -0.0505  1.6020
53061SOL    HW268152   8.731   7.938   2.102  1.2895  0.8558 -1.3375
53062SOL     OW68153   1.791   4.845  10.848  0.4197 -0.0204 -0.0480
53062SOL    HW168154   1.757   4.933  10.834 -0.5672 -0.1588  1.2683
53062SOL    HW268155   1.765   4.823  10.938  0.7809 -1.5827 -0.2908
53063SOL     OW68156   8.278   3.603   6.154 -0.1846 -0.3838  0.1438
53063SOL    HW168157   8.361   3.645   6.178 -0.2688 -0.7021  1.0622
53063SOL    HW268158   8.277   3.522   6.205 -0.2014 -1.3235 -1.3209
53064SOL     OW68159   6.315   7.893   0.029 -0.0459 -0.5234 -0.1893
53064SOL    HW168160   6.270   7.962  -0.020  0.3346  1.0648  1.5466
53064SOL    HW268161   6.320   7.927   0.118  0.6962 -2.5800  0.6178
53065SOL     OW68162  12.114   0.808   2.204 -0.2201  0.3157  0.8092
53065SOL    HW168163  12.115   0.842   2.114 -0.3328  0.4087  0.8440
53065SOL    HW268164  12.025   0.821   2.234 -1.1453 -2.7923 -0.2267
53066SOL     OW68165   5.007   6.802   3.808  0.1330  0.1157 -0.1918
53066SOL    HW168166   5.054   6.729   3.769  0.6118  1.2837 -1.8681
53066SOL    HW268167   5.073   6.871   3.820 -0.6582  0.9205 -0.3268
53067SOL     OW68168   8.185  12.544   0.188 -0.1326  0.0168 -0.2474
53067SOL    HW168169   8.168  12.634   0.216  0.4959  0.3627 -0.9449
53067SOL    HW268170   8.277  12.543   0.164 -0.3001 -0.6233 -0.9255
53068SOL     OW68171  11.073  10.027   9.733 -0.4170  0.0309  0.4499
53068SOL    HW168172  11.016   9.959   9.699 -0.6827 -0.4338  1.7544
53068SOL    HW268173  11.058  10.026   9.828  0.6669  0.9014  0.6557
53069SOL     OW68174   7.674   9.907   4.449 -0.5230 -0.1574  0.0674
53069SOL    HW168175   7.626   9.824   4.450  2.0185 -1.7423 -0.1577
53069SOL    HW268176   7.681   9.930   4.356 -0.2439 -0.3242  0.0450
53070SOL     OW68177   2.885   8.291   8.530 -0.2127  0.1756  0.6409
53070SOL    HW168178   2.861   8.208   8.488  0.1326 -0.0341  0.8523
53070SOL    HW268179   2.949   8.266   8.597  0.1693  0.6570  0.4593
53071SOL     OW68180   3.410  11.920   3.070  0.0050  0.5116 -0.0891
53071SOL    HW168181   3.505  11.925   3.063 -0.0101  1.3685  0.1686
53071SOL    HW268182   3.394  11.904   3.163 -0.0611 -1.7240 -0.4292
53072SOL     OW68183   6.016   6.938   6.453 -0.7692  0.5238  0.1258
53072SOL    HW168184   5.982   6.866   6.506  1.4417  1.4034  2.9700
53072SOL    HW268185   5.938   6.981   6.418 -2.5888  0.9218  4.1619
53073SOL     OW68186   3.642   1.007  11.867 -0.1753 -0.0692 -0.8113
53073SOL    HW168187   3.603   1.007  11.780 -0.0333 -1.1983 -0.8916
53073SOL    HW268188   3.732   0.977  11.853 -0.1373 -0.2171 -0.2894
53074SOL     OW68189   4.665   0.317   2.595 -0.3489  0.4476 -0.0612
53074SOL    HW168190   4.629   0.405   2.586 -0.7001  0.5776  2.1467
53074SOL    HW268191   4.734   0.325   2.661 -1.3346 -1.1671  1.2478
53075SOL     OW68192   2.725   9.274   2.165  0.2954  0.3552  0.1157
53075SOL    HW168193   2.672   9.195   2.155  2.1723 -0.8984 -0.4001
53075SOL    HW268194   2.761   9.267   2.254 -0.4034  1.2318  0.4877
53076SOL     OW68195   5.966   4.565   7.931 -0.4869 -0.1354  0.4536
53076SOL    HW168196   5.970   4.469   7.930 -0.3440 -0.1497 -1.8372
53076SOL    HW268197   6.056   4.593   7.948 -0.5810 -0.3978  1.4099
53077SOL     OW68198  11.637   8.327   5.623 -0.4086  0.5145  0.1000
53077SOL    HW168199  11.567   8.339   5.687 -0.5659  0.7072 -0.1056
53077SOL    HW268200  11.715   8.363   5.666 -0.3479 -0.0505  0.4847
53078SOL     OW68201   4.362   7.555   1.688 -0.0159  0.3148 -0.3610
53078SOL    HW168202   4.416   7.490   1.643  0.2438  0.2021  0.0962
53078SOL    HW268203   4.316   7.505   1.756  0.9958  0.7548  0.6994
53079SOL     OW68204   2.929   0.378   7.251 -0.2049  0.1448  0.1477
53079SOL    HW168205   3.005   0.365   7.195  0.2407 -1.6655  1.1078
53079SOL    HW268206   2.854   0.359   7.195  0.2453 -1.9126  0.1471
53080SOL     OW68207   1.474  12.382  12.579 -0.7402 -0.7548 -0.4066
53080SOL    HW168208   1.498  12.313  12.517 -0.4357 -0.1113 -1.0208
53080SOL    HW268209   1.523  12.459  12.550 -0.0082 -0.6220  1.0847
53081SOL     OW68210   8.834  10.709  12.421 -0.2538  0.1313 -0.0187
53081SOL    HW168211   8.876  10.636  12.376 -0.4413  0.8209 -1.3456
53081SOL    HW268212   8.886  10.785  12.398  0.1986  0.4013  1.7031
53082SOL     OW68213   7.866   0.483   4.857 -0.0942  1.0148  0.0619
53082SOL    HW168214   7.895   0.558   4.805  1.3885  0.9163  0.6868
53082SOL    HW268215   7.805   0.520   4.921  1.0800  1.8345  0.7570
53083SOL     OW68216  11.086   2.335   1.306 -0.6281  0.1388 -0.4853
53083SOL    HW168217  11.170   2.380   1.298 -1.3887  1.6265 -0.4334
53083SOL    HW268218  11.055   2.327   1.216 -0.4086 -0.4777 -0.5103
53084SOL     OW68219   2.267   2.212  10.415  0.2826  0.6526  0.2378
53084SOL    HW168220   2.201   2.167  10.362  1.1708  1.6147 -1.8251
53084SOL    HW268221   2.309   2.143  10.465 -2.6722  0.0775  2.1712
53085SOL     OW68222   5.745   2.213  11.794 -0.0853  0.0994  0.5971
53085SOL    HW168223   5.702   2.276  11.737  1.1969 -0.8124 -1.5167
53085SOL    HW268224   5.768   2.140  11.736 -0.2705 -1.7178  2.6531
53086SOL     OW68225   9.666   7.382   0.920  0.1394 -0.2424  0.1632
53086SOL    HW168226   9.610   7.448   0.959  1.1639  1.7730 -1.5515
53086SOL    HW268227   9.752   7.395   0.960  1.1150  1.6206 -2.2585
53087SOL     OW68228   6.252   0.710   5.509 -0.2077 -0.3255 -0.2677
53087SOL    HW168229   6.206   0.704   5.425 -0.4350 -2.1194 -0.0571
53087SOL    HW268230   6.345   0.705   5.485 -0.2100  0.6521 -0.5069
53088SOL     OW68231   7.303  11.896   5.802  0.3093 -0.0462  0.3297
53088SOL    HW168232   7.285  11.854   5.717  0.0407 -0.9864  0.8384
53088SOL    HW268233   7.382  11.852   5.833  0.7540  0.7231  0.2981
53089SOL     OW68234  12.428   0.857   6.096 -0.5504  0.7589  0.3636
53089SOL    HW168235  12.364   0.928   6.084  1.3878  2.6593  0.6079
53089SOL    HW268236  12.433   0.845   6.191 -0.7452  0.4304  0.3312
53090SOL     OW68237  10.768   0.891   8.052 -0.4119 -0.3476  0.0222
53090SOL    HW168238  10.808   0.817   8.097  0.0294  0.4448  0.9764
53090SOL    HW268239  10.714   0.934   8.119  0.0138  0.6850 -0.2780
53091SOL     OW68240  10.279   0.236  10.800  0.2288  0.1348 -1.0666
53091SOL    HW168241  10.369   0.249  10.771  0.8198  2.5616  1.4331
53091SOL    HW268242  10.284   0.163  10.863  0.7451  1.0737  0.0192
53092SOL     OW68243   8.117  10.134   3.505 -0.4962  0.0247 -0.1497
53092SOL    HW168244   8.066  10.149   3.585  0.9385 -0.1520  0.8272
53092SOL    HW268245   8.126  10.039   3.500 -0.1657  0.0623 -0.2571
53093SOL     OW68246   7.975   5.333   6.944 -0.0217  0.3581 -0.6901
53093SOL    HW168247   8.070   5.328   6.952  0.1063 -1.3528 -2.4126
53093SOL    HW268248   7.959   5.416   6.900  0.8423 -0.0719 -1.8813
53094SOL     OW68249  11.817  11.682   5.635 -0.2237 -0.3443 -0.7485
53094SOL    HW168250  11.777  11.621   5.573  0.0397 -1.1232 -0.1729
53094SOL    HW268251  11.819  11.634   5.718 -0.8115  0.7827 -0.0608
53095SOL     OW68252   6.762   2.469   5.762 -0.0248  0.0202  0.1236
53095SOL    HW168253   6.786   2.501   5.848 -1.4791  0.5947  0.3519
53095SOL    HW268254   6.683   2.519   5.739 -2.4596 -3.2981  0.4814
53096SOL     OW68255  10.035   5.684   8.025  0.8057 -0.7323 -0.1872
53096SOL    HW168256   9.946   5.671   7.994  0.2583 -0.3585  1.1833
53096SOL    HW268257  10.068   5.595   8.040  0.5545 -0.8583 -0.3686
53097SOL     OW68258  10.303   6.076   7.614 -0.4131  0.2751  0.0094
53097SOL    HW168259  10.248   6.151   7.635 -0.1205  1.1952 -2.1471
53097SOL    HW268260  10.384   6.090   7.664  0.6374  2.8378 -2.1376
53098SOL     OW68261   7.495   1.915   0.163  0.4296  0.1771 -0.1524
53098SOL    HW168262   7.531   1.991   0.118  1.9671 -1.3758 -1.7069
53098SOL    HW268263   7.430   1.880   0.103  0.8734 -0.6220 -0.1825
53099SOL     OW68264   8.310   7.639   8.689 -0.1788  0.3547 -0.0861
53099SOL    HW168265   8.266   7.724   8.682  0.3504  0.6836  0.5029
53099SOL    HW268266   8.311   7.620   8.782 -0.6234 -0.4898 -0.2400
53100SOL     OW68267   5.448  10.995   4.544  0.5141  0.0538 -0.4039
53100SOL    HW168268   5.445  10.931   4.615  0.2690  0.5278  0.0254
53100SOL    HW268269   5.415  10.948   4.467 -0.4735 -0.0884  0.0997
53101SOL     OW68270  12.138  10.064   0.312  0.4081  0.5783 -0.2244
53101SOL    HW168271  12.135  10.132   0.379  0.1318  0.8201 -0.4818
53101SOL    HW268272  12.086  10.098   0.240 -0.1922 -0.1383 -0.1464
53102SOL     OW68273   1.047  11.385   0.858  0.5852  0.2265 -0.2852
53102SOL    HW168274   0.996  11.455   0.899  0.4181 -0.8165  1.3991
53102SOL    HW268275   1.073  11.329   0.931  0.3448 -1.7103 -1.6219
53103SOL     OW68276   6.327   7.949   3.023 -0.2254 -0.0283  0.1630
53103SOL    HW168277   6.342   8.029   3.073  1.0558 -0.1745  0.0320
53103SOL    HW268278   6.346   7.879   3.085 -0.7209 -0.2307  0.0875
53104SOL     OW68279   5.759   9.325  10.008 -0.3807 -0.4590  0.1110
53104SOL    HW168280   5.721   9.323   9.920 -1.5577 -0.0652  0.5933
53104SOL    HW268281   5.734   9.242  10.048 -0.1270 -0.4964  0.1997
53105SOL     OW68282   4.695   4.806   8.060  0.2155 -0.3204  0.0181
53105SOL    HW168283   4.679   4.899   8.074  0.8524 -0.2452  0.2850
53105SOL    HW268284   4.672   4.791   7.968  0.4154  0.1692 -0.1163
53106SOL     OW68285   4.547   1.908  10.956  0.6479 -0.3829 -0.3895
53106SOL    HW168286   4.470   1.964  10.944  1.8538  1.8591  1.4186
53106SOL    HW268287   4.532   1.833  10.899 -2.9899 -0.1839  0.0907
53107SOL     OW68288  11.813   2.861   7.790  0.3119 -0.0076 -0.0404
53107SOL    HW168289  11.725   2.897   7.795 -0.1385 -0.8953 -1.1664
53107SOL    HW268290  11.843   2.858   7.881 -1.2749 -0.7833  0.4911
53108SOL     OW68291  12.273   1.027   1.156  0.4026 -0.0727  0.4580
53108SOL    HW168292  12.266   1.057   1.247 -0.8395 -0.1514  0.3968
53108SOL    HW268293  12.191   1.056   1.115  0.9373 -0.0622 -0.6338
53109SOL     OW68294  10.088  12.020   7.736  0.3094 -0.0788  0.4092
53109SOL    HW168295  10.129  11.937   7.712 -0.3001 -0.4629  0.6438
53109SOL    HW268296  10.100  12.026   7.831  2.2090  1.1504  0.1197
53110SOL     OW68297   3.802   1.033   4.498  0.2024  0.1037  0.2316
53110SOL    HW168298   3.809   0.949   4.545 -0.0691 -0.1989 -0.2524
53110SOL    HW268299   3.806   1.008   4.406 -1.0545  0.5001  0.0514
53111SOL     OW68300   2.318   2.017   8.592  0.5622 -0.3098  0.2338
53111SOL    HW168301   2.274   1.932   8.591  2.0448 -1.1288 -1.5275
53111SOL    HW268302   2.395   2.004   8.649 -0.8944  0.8848  2.6592
53112SOL     OW68303  10.409   5.624   4.072  0.5302  0.2345  0.2718
53112SOL    HW168304  10.434   5.648   4.161  1.1331 -1.2897  0.5432
53112SOL    HW268305  10.433   5.531   4.064  0.2050  0.2560 -1.3735
53113SOL     OW68306   8.432  10.236   2.057  0.2245  0.0026 -1.0552
53113SOL    HW168307   8.496  10.270   1.995  1.6553 -0.4663  0.1021
53113SOL    HW268308   8.371  10.185   2.004  2.7901 -2.4506 -1.8903
53114SOL     OW68309   1.915   3.629   1.353 -0.5591 -0.8976 -0.3452
53114SOL    HW168310   1.836   3.579   1.334 -0.8811 -1.1700  1.5737
53114SOL    HW268311   1.897   3.674   1.435  1.3667 -1.2060  0.3137
53115SOL     OW68312   9.003   5.934   0.253 -0.2201 -0.6489 -0.0491
53115SOL    HW168313   9.099   5.931   0.249 -0.1674 -0.5272  0.8759
53115SOL    HW268314   8.984   5.976   0.337 -1.0920 -1.2707  0.0766
53116SOL     OW68315   5.933  12.396  12.519  0.4078 -0.3932 -0.0948
53116SOL    HW168316   5.912  12.313  12.476 -0.2526 -0.1287 -0.3008
53116SOL    HW268317   5.849  12.443  12.523  0.7638  0.2425  0.0661
53117SOL     OW68318   0.097   2.905   6.161 -0.1860  0.5444 -0.1280
53117SOL    HW168319   0.018   2.915   6.214  0.7498  0.3334  1.3812
53117SOL    HW268320   0.122   2.813   6.173 -0.0026  0.4772 -1.0121
53118SOL     OW68321   6.938   8.441  10.323 -0.0338  0.0124  0.4326
53118SOL    HW168322   6.992   8.426  10.245  0.5177 -2.4597  1.1940
53118SOL    HW268323   6.856   8.396  10.304  0.0075 -0.3880  1.1675
53119SOL     OW68324   9.707   9.909   0.433 -0.1697  0.9758 -0.2972
53119SOL    HW168325   9.698   9.813   0.435 -1.0905  1.0505 -0.3377
53119SOL    HW268326   9.753   9.927   0.351 -0.6864  0.6081 -0.6791
53120SOL     OW68327   4.530   8.487   4.470 -0.2075 -0.6382 -0.9643
53120SOL    HW168328   4.580   8.468   4.391 -1.3765 -0.5405 -1.7559
53120SOL    HW268329   4.482   8.406   4.488 -0.0501 -0.6149 -0.4278
53121SOL     OW68330  10.082   4.093   2.741 -0.4667  0.0632  0.2590
53121SOL    HW168331  10.078   4.008   2.697 -0.5732 -0.6600  1.6130
53121SOL    HW268332   9.992   4.113   2.763 -0.3116 -0.0636  1.0210
53122SOL     OW68333   9.496   7.747   5.904  0.0901  0.0714  0.1938
53122SOL    HW168334   9.462   7.824   5.858  0.6701  0.4760  0.4247
53122SOL    HW268335   9.489   7.677   5.840 -0.3416  0.3395 -0.0608
53123SOL     OW68336   7.057   9.431  11.661  0.3755  0.1323  0.9878
53123SOL    HW168337   6.963   9.433  11.680 -0.1734  0.6579 -1.4578
53123SOL    HW268338   7.079   9.338  11.660 -0.2124 -0.0184  1.1355
53124SOL     OW68339   9.392   1.060  12.004 -0.0521  0.4253  0.0252
53124SOL    HW168340   9.467   1.001  12.000 -0.0966  0.3447  0.4093
53124SOL    HW268341   9.431   1.148  11.994  0.1936  0.4495  1.1272
53125SOL     OW68342   4.264   3.099   2.260  0.0788  0.8547  0.2988
53125SOL    HW168343   4.238   3.072   2.172  0.7447  0.6604  0.1563
53125SOL    HW268344   4.228   3.032   2.317  1.3811 -0.1471 -0.0185
53126SOL     OW68345   2.004  10.265  10.995  0.5721  0.2251  0.4343
53126SOL    HW168346   1.933  10.287  11.055  0.6072  0.3661  0.4226
53126SOL    HW268347   2.027  10.174  11.017  0.7233  0.3457  0.7698
53127SOL     OW68348   1.452   0.500   2.382 -0.5772  0.7425 -0.2187
53127SOL    HW168349   1.461   0.595   2.370  0.8190  0.7538  0.7281
53127SOL    HW268350   1.412   0.490   2.468  0.4612  0.4814  0.2577
53128SOL     OW68351   1.698   7.187   1.491  0.0593  0.3588 -0.1142
53128SOL    HW168352   1.791   7.161   1.490  0.3849  1.4704 -0.8307
53128SOL    HW268353   1.675   7.197   1.399 -1.1967 -1.2498 -0.0094
53129SOL     OW68354   5.080   2.580   6.973  0.1354  1.1744 -0.3269
53129SOL    HW168355   5.154   2.546   7.022 -0.1668  1.2250  0.1717
53129SOL    HW268356   5.120   2.634   6.904  0.6346 -0.5469 -1.4383
53130SOL     OW68357   5.443   9.708   8.415 -0.6197  0.0488  0.3338
53130SOL    HW168358   5.357   9.747   8.431 -1.0977 -0.4462 -0.8922
53130SOL    HW268359   5.449   9.703   8.319  1.0624  0.7036  0.3838
53131SOL     OW68360   5.406   0.002   7.263 -0.3632 -0.3498  0.2780
53131SOL    HW168361   5.480  -0.001   7.325  0.9967  0.1239 -1.2523
53131SOL    HW268362   5.335  -0.043   7.309 -0.4135  2.5264  3.4186
53132SOL     OW68363   6.649  11.085   7.685 -0.2278 -0.0369  0.0383
53132SOL    HW168364   6.683  11.012   7.635 -0.2507  1.2325 -1.9386
53132SOL    HW268365   6.568  11.110   7.641 -0.9781  0.2922  1.5306
53133SOL     OW68366  12.486   2.222   3.435  0.3655  0.5852  0.0438
53133SOL    HW168367  12.402   2.192   3.468 -0.6227  0.7188 -2.1958
53133SOL    HW268368  12.476   2.317   3.427  0.5794  0.5603 -0.5770
53134SOL     OW68369   9.999   1.301   1.653  0.1959  0.8046 -0.0152
53134SOL    HW168370   9.949   1.360   1.709  0.9057  0.8517  0.5809
53134SOL    HW268371   9.933   1.258   1.599 -0.6513 -0.1408  1.6900
53135SOL     OW68372   8.725   3.538   5.295 -0.1738 -0.2738 -0.0230
53135SOL    HW168373   8.715   3.529   5.389  0.8847  0.0269  0.1326
53135SOL    HW268374   8.639   3.567   5.264 -0.0036  1.6307  1.1197
53136SOL     OW68375   2.009   8.817   7.634  0.5540  0.2366 -0.2070
53136SOL    HW168376   1.926   8.830   7.681  0.2379 -0.4333 -0.5821
53136SOL    HW268377   1.983   8.804   7.543  1.2217  2.6274 -0.8224
53137SOL     OW68378  10.070   6.973  11.062  0.2432 -0.3475  0.1571
53137SOL    HW168379   9.983   7.000  11.092  0.0792 -1.8435  1.1438
53137SOL    HW268380  10.053   6.893  11.011  0.8938  0.2262 -1.0118
53138SOL     OW68381   7.638   7.303   7.545  0.1787  0.1075  0.6300
53138SOL    HW168382   7.670   7.350   7.621  0.9662 -0.9608  0.9889
53138SOL    HW268383   7.603   7.371   7.487  1.0390  1.0923  1.2333
53139SOL     OW68384   5.206  12.017   9.918 -0.3212  0.6009  0.1996
53139SOL    HW168385   5.146  12.048   9.850 -0.9753 -2.3690 -0.7400
53139SOL    HW268386   5.287  11.997   9.872 -0.0626  0.5586  0.6647
53140SOL     OW68387   4.685  12.019  11.557 -0.7113 -0.2935  0.0110
53140SOL    HW168388   4.759  12.080  11.554 -1.4304  0.6014  0.0016
53140SOL    HW268389   4.691  11.970  11.475 -0.8019  0.5936 -0.5390
53141SOL     OW68390   8.347  10.421   8.055  0.0712 -0.4246 -0.5525
53141SOL    HW168391   8.327  10.337   8.013  0.7350 -1.0093  0.2705
53141SOL    HW268392   8.350  10.483   7.982 -1.7680 -0.8363 -1.0337
53142SOL     OW68393   3.891   9.199   8.937 -0.6402  0.4705 -0.2585
53142SOL    HW168394   3.864   9.128   8.996  0.0655  0.3832 -0.0309
53142SOL    HW268395   3.870   9.166   8.849 -2.3507  0.8902 -0.0376
53143SOL     OW68396   4.623  11.888  10.688  0.4763  0.3184 -0.2766
53143SOL    HW168397   4.556  11.956  10.680 -0.9922 -0.9166  0.9039
53143SOL    HW268398   4.706  11.936  10.690 -0.3484  1.9135 -1.6379
53144SOL     OW68399   4.450  10.370   2.545 -0.2148  0.4354  0.3149
53144SOL    HW168400   4.482  10.428   2.476  0.2055  1.9342  1.7284
53144SOL    HW268401   4.359  10.396   2.558 -0.3523  0.0194  0.2047
53145SOL     OW68402   7.186  12.052   1.688 -0.4681  0.6690  0.2342
53145SOL    HW168403   7.256  12.116   1.701 -1.2616  1.2215  2.1326
53145SOL    HW268404   7.136  12.086   1.614 -1.2324  2.6554  1.5648
53146SOL     OW68405   0.190   3.604   1.536 -0.1893  0.1730 -0.3960
53146SOL    HW168406   0.191   3.685   1.588  0.0408 -0.8968  1.3412
53146SOL    HW268407   0.275   3.564   1.551  0.3309  0.3590 -2.5477
53147SOL     OW68408  10.393   8.013   1.495 -0.6442 -0.1936 -0.1158
53147SOL    HW168409  10.483   8.041   1.480 -1.2744  1.5772 -0.8540
53147SOL    HW268410  10.372   7.958   1.419 -0.2902 -0.3514 -0.1006
53148SOL     OW68411   8.428   1.787   0.501  0.5535 -0.2436  0.2927
53148SOL    HW168412   8.365   1.835   0.448  0.6409  0.3004  0.6737
53148SOL    HW268413   8.442   1.842   0.578  1.7051 -0.2099  0.0832
53149SOL     OW68414   2.922   4.720  11.237  0.7623  0.3726  0.1820
53149SOL    HW168415   2.871   4.771  11.174  1.1988  1.7612  0.9087
53149SOL    HW268416   2.993   4.682  11.185 -2.0181 -3.3960 -1.3176
53150SOL     OW68417   6.927   6.295  11.487  0.5968 -0.3782  0.1032
53150SOL    HW168418   6.881   6.246  11.555  1.4045  0.0486  0.9773
53150SOL    HW268419   6.956   6.375  11.531 -0.4975  0.7979 -1.2286
53151SOL     OW68420   4.929   9.149  12.484  0.2866  0.1010 -0.6765
53151SOL    HW168421   4.950   9.145  12.391 -0.4741  1.7533 -0.9457
53151SOL    HW268422   4.845   9.194  12.488  0.6036  0.6156  0.8597
53152SOL     OW68423  12.297   7.507   2.393 -0.1195  0.0582  0.0776
53152SOL    HW168424  12.231   7.442   2.414 -0.5748  0.0116 -1.4233
53152SOL    HW268425  12.373   7.482   2.447 -0.5560 -1.2179  0.1310
53153SOL     OW68426   8.171   6.792   7.381 -0.2329 -0.1454 -0.3821
53153SOL    HW168427   8.125   6.742   7.449  1.0820 -0.1435  0.5467
53153SOL    HW268428   8.209   6.725   7.325  1.2654 -0.2388  0.6838
53154SOL     OW68429   5.415   2.545   6.100  0.3321 -0.7797  0.1787
53154SOL    HW168430   5.484   2.611   6.092  0.9576 -1.3542  0.6716
53154SOL    HW268431   5.448   2.470   6.051  0.6576 -1.5187  1.4729
53155SOL     OW68432   8.747  12.058   4.766  0.0153  0.0960  0.3285
53155SOL    HW168433   8.776  12.090   4.852 -0.2807  0.9436  0.1297
53155SOL    HW268434   8.661  12.099   4.754  0.4175  0.6550 -0.7301
53156SOL     OW68435   4.046   6.992   0.267 -0.1428 -0.0362 -0.1021
53156SOL    HW168436   4.007   6.946   0.193  2.4456 -2.4962 -0.0787
53156SOL    HW268437   4.134   7.017   0.236  0.7323 -0.5178  1.8795
53157SOL     OW68438   4.637   9.973   8.204 -0.2253 -0.3840  0.3275
53157SOL    HW168439   4.620   9.880   8.217 -0.1118 -0.3306  0.9072
53157SOL    HW268440   4.718   9.990   8.253  0.3524 -0.2009 -0.6642
53158SOL     OW68441   7.505   8.111  11.403 -0.2050 -0.1129  0.4810
53158SOL    HW168442   7.567   8.151  11.341  0.1986 -1.3784  0.0385
53158SOL    HW268443   7.560   8.078  11.474 -0.6013  0.6819  1.1810
53159SOL     OW68444   1.792  10.384   3.576  0.3214  0.8105 -0.2579
53159SOL    HW168445   1.706  10.374   3.617  0.8113  1.4163  0.9634
53159SOL    HW268446   1.785  10.334   3.495 -0.3534 -1.4391  1.0619
53160SOL     OW68447   5.180   3.009  10.568 -0.1742 -0.1170 -0.3895
53160SOL    HW168448   5.203   2.986  10.478 -0.4789 -0.5937 -0.3494
53160SOL    HW268449   5.088   2.982  10.577 -0.0769 -0.2810  0.1301
53161SOL     OW68450   7.991   4.455  12.364  0.3606  0.0824  0.4646
53161SOL    HW168451   7.994   4.512  12.441  2.5772 -0.5321  0.8914
53161SOL    HW268452   8.029   4.373  12.394 -0.8173 -0.9448 -0.7271
53162SOL     OW68453   2.582   1.391   6.933  0.1566  0.8146  0.9702
53162SOL    HW168454   2.579   1.300   6.964 -0.9792  0.4788 -0.0254
53162SOL    HW268455   2.542   1.441   7.004 -0.6906  0.3057  0.8742
53163SOL     OW68456   4.955   9.103   1.838 -0.1877 -0.2641  0.6301
53163SOL    HW168457   4.916   9.022   1.871 -1.9908 -0.1519 -1.0990
53163SOL    HW268458   4.907   9.173   1.883  0.2466 -0.1166  0.8805
53164SOL     OW68459   1.719   5.170   8.838 -0.2675  0.3334 -0.0382
53164SOL    HW168460   1.811   5.181   8.812  0.1591  0.8363  1.6152
53164SOL    HW268461   1.718   5.089   8.888 -0.7910  0.1846 -0.2845
53165SOL     OW68462   9.930   9.945  12.105  0.2482  0.0770 -0.3226
53165SOL    HW168463   9.920  10.040  12.117 -0.4685  0.0342 -0.5516
53165SOL    HW268464   9.842   9.914  12.088  0.4411 -0.6822  0.0475
53166SOL     OW68465   0.334  11.633   8.149 -0.0825  0.4217 -0.3149
53166SOL    HW168466   0.308  11.696   8.217 -1.7194  0.8985 -1.3544
53166SOL    HW268467   0.279  11.653   8.074  1.5301 -0.2416 -1.7591
53167SOL     OW68468  11.429   8.063   7.625  0.0733  0.0974 -0.0044
53167SOL    HW168469  11.350   8.072   7.571  0.9172 -0.1626 -1.3054
53167SOL    HW268470  11.480   7.994   7.583  1.6415  1.1997  0.0267
53168SOL     OW68471   8.779   1.965   7.688 -0.3373 -0.0024 -0.4787
53168SOL    HW168472   8.743   1.891   7.737  0.6104 -1.0881 -1.3682
53168SOL    HW268473   8.801   2.029   7.756 -0.2067 -0.9603  0.4165
53169SOL     OW68474   4.644  11.460   2.331 -0.2074 -0.4328  0.1212
53169SOL    HW168475   4.703  11.390   2.303 -0.6523 -1.5242  1.7586
53169SOL    HW268476   4.701  11.525   2.372 -0.0020 -1.0139  0.7899
53170SOL     OW68477   1.051   2.069   9.353 -0.5321 -0.2133  0.0170
53170SOL    HW168478   1.123   2.063   9.415 -0.3150 -0.9766 -0.2926
53170SOL    HW268479   1.089   2.041   9.270 -1.2508 -0.9035 -0.0896
53171SOL     OW68480   8.042  12.023   0.973  0.5790 -0.0238 -0.2093
53171SOL    HW168481   7.971  11.961   0.958  1.5279 -1.2899  0.3358
53171SOL    HW268482   8.079  11.997   1.058  1.0796  1.2213 -0.0220
53172SOL     OW68483   5.409  12.010   0.945  0.7800  0.0935  0.4344
53172SOL    HW168484   5.358  12.090   0.944  0.6553  0.0101 -0.7640
53172SOL    HW268485   5.345  11.940   0.962  0.2135 -0.1563 -2.2791
53173SOL     OW68486   8.985   0.610   1.350 -0.5102  0.0648 -0.2747
53173SOL    HW168487   8.968   0.642   1.438  0.9791  0.4112 -0.0795
53173SOL    HW268488   9.047   0.673   1.313 -0.9688 -0.1751 -1.5093
53174SOL     OW68489   4.752  10.687   8.603  0.0033  0.0061  0.3347
53174SOL    HW168490   4.723  10.615   8.546 -1.8751  0.7425  0.2767
53174SOL    HW268491   4.769  10.646   8.687  1.3456 -0.8602 -0.3166
53175SOL     OW68492  12.468   4.968  10.336 -0.1974  0.1961  0.5157
53175SOL    HW168493  12.522   4.890  10.323 -3.5621 -2.0170 -2.0665
53175SOL    HW268494  12.431   4.957  10.424 -0.9828 -1.4701  0.0203
53176SOL     OW68495   2.375   5.470   4.724 -0.4335  0.4200  0.0594
53176SOL    HW168496   2.317   5.446   4.651 -0.1447 -0.3899  0.0805
53176SOL    HW268497   2.371   5.395   4.783  0.2469  0.5710  0.3046
53177SOL     OW68498  11.681   4.304  10.182  0.6447  0.1960  0.0631
53177SOL    HW168499  11.643   4.277  10.099  0.0599  1.8284 -0.2440
53177SOL    HW268500  11.775   4.309  10.164  0.4717  1.0694 -0.6921
53178SOL     OW68501  12.342  10.961   0.766 -0.3460  0.6227 -0.1184
53178SOL    HW168502  12.351  10.878   0.718 -1.0668 -0.0851  0.9161
53178SOL    HW268503  12.431  10.987   0.786  0.0954  1.7460 -3.1121
53179SOL     OW68504   9.836  12.107   2.617  0.3061 -0.4588  0.1342
53179SOL    HW168505   9.799  12.195   2.617 -0.0708 -0.6091  1.2579
53179SOL    HW268506   9.780  12.057   2.557  0.5811  0.0731 -0.5833
53180SOL     OW68507  11.333   4.796   9.947 -0.9731  0.2464  0.1169
53180SOL    HW168508  11.381   4.877   9.928 -1.5594  0.0782 -2.6266
53180SOL    HW268509  11.396   4.740   9.991 -0.4695  2.0489  1.8543
53181SOL     OW68510  10.370   9.466   8.372 -0.2361 -0.4824  0.1642
53181SOL    HW168511  10.287   9.513   8.373  0.3269  0.5118  1.2478
53181SOL    HW268512  10.405   9.481   8.284 -0.4161  0.5155  0.2552
53182SOL     OW68513   0.885   7.481   8.164 -0.0110  0.6000 -0.3733
53182SOL    HW168514   0.967   7.431   8.159  0.1879  0.9246 -0.4110
53182SOL    HW268515   0.877   7.522   8.078  0.0184  0.9276 -0.2203
53183SOL     OW68516   5.070   6.515   0.322 -0.0242 -0.1375  0.2418
53183SOL    HW168517   5.085   6.504   0.228 -0.1462  0.7344  0.1107
53183SOL    HW268518   5.149   6.481   0.363  0.9520  1.4103 -0.2846
53184SOL     OW68519  10.390   0.940   4.034  0.4048  0.2358  0.1062
53184SOL    HW168520  10.301   0.909   4.016  0.0790  0.1966  1.6459
53184SOL    HW268521  10.402   1.013   3.973 -0.8563  0.5449  0.1948
53185SOL     OW68522   1.915   8.714   8.155  0.3538  0.5615  0.5904
53185SOL    HW168523   1.966   8.691   8.078  1.0248  0.2130  1.1320
53185SOL    HW268524   1.825   8.721   8.123  0.1357 -2.3879  0.2661
53186SOL     OW68525   3.644   5.226   4.825 -0.1963 -0.3409  0.3139
53186SOL    HW168526   3.610   5.170   4.755  0.3872 -0.4402  0.1041
53186SOL    HW268527   3.566   5.250   4.876 -0.4095 -1.7478  0.7054
53187SOL     OW68528  10.607  11.745   0.771  0.4604  0.6768  0.0063
53187SOL    HW168529  10.685  11.692   0.789  0.6281  0.1908 -1.9810
53187SOL    HW268530  10.628  11.831   0.807  1.5759  0.3374  0.2145
53188SOL     OW68531  12.427   7.464   1.310  0.5347  0.1813 -0.7428
53188SOL    HW168532  12.404   7.390   1.367 -1.5547  3.1019  2.5606
53188SOL    HW268533  12.498   7.508   1.355 -0.0331  1.6523 -1.2420
53189SOL     OW68534   3.099   9.351   2.748 -0.0470  0.4425  0.0703
53189SOL    HW168535   3.122   9.372   2.839  1.3593 -0.6992  0.0116
53189SOL    HW268536   3.044   9.424   2.720 -0.7054  0.7139  1.9018
53190SOL     OW68537  10.652  11.236   0.025  0.4001 -0.3985 -0.2490
53190SOL    HW168538  10.724  11.284   0.067  1.3564 -0.0629 -2.1824
53190SOL    HW268539  10.573  11.276   0.061  1.1802  1.6771 -0.7076
53191SOL     OW68540   5.748   6.381   6.504  0.1326 -0.5428 -0.5028
53191SOL    HW168541   5.822   6.442   6.502 -0.7531  0.5229 -2.1248
53191SOL    HW268542   5.770   6.320   6.575  0.3663  2.4907  2.3128
53192SOL     OW68543   2.560   6.131  10.974  0.1810 -0.1895  0.3267
53192SOL    HW168544   2.653   6.113  10.989  0.2524 -0.0523  0.0498
53192SOL    HW268545   2.538   6.198  11.039  0.5343  0.5354 -0.2914
53193SOL     OW68546  11.442   1.705   4.145 -0.5872 -0.2100  0.0125
53193SOL    HW168547  11.369   1.651   4.176  0.0445 -1.4182 -0.5487
53193SOL    HW268548  11.519   1.651   4.158  0.6603  2.0356  3.1544
53194SOL     OW68549   2.796  11.569   3.473 -0.0588 -0.4340  0.5260
53194SOL    HW168550   2.788  11.566   3.568 -0.1592 -1.8700  0.4934
53194SOL    HW268551   2.828  11.482   3.449 -0.6430 -0.3074 -0.7947
53195SOL     OW68552  12.400   2.772   0.480  0.1554 -0.2644  0.2198
53195SOL    HW168553  12.318   2.784   0.527  0.1173 -0.1169  0.1163
53195SOL    HW268554  12.376   2.722   0.402  0.7205 -3.6510  2.0227
53196SOL     OW68555   1.361   6.935   4.413 -0.2017 -0.2660  0.2343
53196SOL    HW168556   1.309   6.960   4.336  0.0662 -1.0297 -0.2021
53196SOL    HW268557   1.385   6.844   4.397 -0.4390 -0.5450  1.3962
53197SOL     OW68558   0.395  12.066   6.423 -0.1509 -0.3811  0.6325
53197SOL    HW168559   0.301  12.063   6.404 -0.0189  1.5098 -0.5406
53197SOL    HW268560   0.437  12.037   6.342  0.3071  3.5559 -0.7681
53198SOL     OW68561   8.535   9.628   6.006 -0.4672 -0.0353 -0.4281
53198SOL    HW168562   8.540   9.538   5.973  0.0719  0.1221 -0.8024
53198SOL    HW268563   8.566   9.682   5.932 -0.4642  0.4277 -0.0945
53199SOL     OW68564   5.330   2.257   1.429  0.2774 -0.2738  0.4739
53199SOL    HW168565   5.245   2.299   1.433  0.7910  0.6843  2.9547
53199SOL    HW268566   5.360   2.272   1.339 -0.9846  1.8158  0.3445
53200SOL     OW68567   9.226   3.109  11.096  0.3529  0.4840  0.4787
53200SOL    HW168568   9.321   3.114  11.105  0.2879  0.4918  1.2538
53200SOL    HW268569   9.199   3.044  11.160 -0.0486 -0.5249 -0.6804
53201SOL     OW68570   9.937   2.183   0.747 -0.5107  0.1384  0.2286
53201SOL    HW168571   9.924   2.150   0.836  0.0296  0.9273  0.6187
53201SOL    HW268572  10.014   2.240   0.754 -0.6666  0.4791 -0.6729
53202SOL     OW68573   7.813   6.649   0.380 -0.1270 -0.4748  0.1437
53202SOL    HW168574   7.789   6.638   0.288  0.4140  0.9636 -0.1882
53202SOL    HW268575   7.886   6.587   0.392  0.4694  0.0485 -0.6759
53203SOL     OW68576   4.920   5.990   1.613  0.5875 -0.2915 -0.1112
53203SOL    HW168577   4.942   5.969   1.522  1.3533  0.1364 -0.0325
53203SOL    HW268578   4.840   6.041   1.607 -0.4655 -1.8989 -0.4046
53204SOL     OW68579  12.472  10.651   2.102 -0.1747 -0.2442 -0.0383
53204SOL    HW168580  12.456  10.572   2.154 -0.0677 -0.4848 -0.3658
53204SOL    HW268581  12.516  10.619   2.024 -2.2949 -0.1929 -1.3261
53205SOL     OW68582  11.439   6.152   6.440  0.5658  0.0532  0.1605
53205SOL    HW168583  11.421   6.224   6.380 -2.6390 -0.2323  0.5579
53205SOL    HW268584  11.533   6.156   6.456  0.9244  2.4221 -1.9361
53206SOL     OW68585   6.547   2.945   3.111 -0.3400 -0.1163  0.1935
53206SOL    HW168586   6.565   2.972   3.201 -1.6646  1.9151 -0.0936
53206SOL    HW268587   6.634   2.932   3.072  0.2766  0.1669  1.4217
53207SOL     OW68588   4.937   1.211  11.113 -0.5313  0.1019 -0.1243
53207SOL    HW168589   4.848   1.222  11.080 -1.7852 -0.6677  2.7608
53207SOL    HW268590   4.943   1.118  11.136  0.7700  0.2897  0.3826
53208SOL     OW68591  11.116   5.321   8.932  0.0998 -0.1311 -0.9529
53208SOL    HW168592  11.071   5.237   8.924 -0.1278 -0.0055 -0.9937
53208SOL    HW268593  11.208   5.300   8.921  0.1731 -0.5821  0.4369
53209SOL     OW68594   8.181   9.949   3.990  0.0987 -0.3680 -0.1982
53209SOL    HW168595   8.248   9.968   4.055  0.9703  1.5964 -1.5407
53209SOL    HW268596   8.230   9.913   3.915 -0.9071 -2.8458  0.2348
53210SOL     OW68597   2.903   2.833   1.120  0.4162 -0.2419  0.3140
53210SOL    HW168598   2.881   2.746   1.088  0.9184 -0.5760  0.8664
53210SOL    HW268599   2.923   2.821   1.212 -1.8642  0.8487  1.0244
53211SOL     OW68600   5.847   3.688   2.706 -0.5948  0.3464 -0.4125
53211SOL    HW168601   5.938   3.690   2.735 -0.4700 -1.6465 -0.5735
53211SOL    HW268602   5.852   3.685   2.610 -0.9882  5.3231 -0.8739
53212SOL     OW68603   2.312   1.385   7.078 -0.4963  0.4397  0.1181
53212SOL    HW168604   2.317   1.375   6.983 -2.1232  1.4544 -0.1103
53212SOL    HW268605   2.220   1.372   7.099 -0.2368  0.6797  1.5104
53213SOL     OW68606  10.276   8.477   4.040  0.1958 -0.2524  0.1194
53213SOL    HW168607  10.331   8.546   4.002 -0.3381 -1.0384 -2.2876
53213SOL    HW268608  10.300   8.398   3.991 -0.8543 -1.2773  1.1939
53214SOL     OW68609   9.637   7.252   7.781 -0.3178  0.3282  0.0193
53214SOL    HW168610   9.652   7.158   7.778 -1.5988  0.0452  1.2717
53214SOL    HW268611   9.684   7.282   7.860  0.2001  0.7692 -0.4470
53215SOL     OW68612  10.279  10.435   1.649  0.3943 -0.3020 -0.5091
53215SOL    HW168613  10.350  10.469   1.704  1.0386 -0.3622 -1.2822
53215SOL    HW268614  10.203  10.433   1.707  1.5865 -2.8109  1.1838
53216SOL     OW68615  11.777  11.786   6.987  0.0829  0.0942 -0.0584
53216SOL    HW168616  11.697  11.753   6.946  0.1295  0.6534 -0.6175
53216SOL    HW268617  11.751  11.804   7.078 -0.7746  1.3995 -0.5312
53217SOL     OW68618  11.632   8.164   6.453  0.0622  0.1299 -0.3127
53217SOL    HW168619  11.652   8.234   6.392 -0.5047  1.7500  1.2798
53217SOL    HW268620  11.567   8.110   6.408 -0.2968  1.2458 -1.1699
53218SOL     OW68621   5.487   1.216  12.396 -0.1754 -0.3358 -0.1011
53218SOL    HW168622   5.453   1.289  12.344  0.7639  0.4383  0.3511
53218SOL    HW268623   5.563   1.185  12.348  1.3076  1.0327  1.2623
53219SOL     OW68624   1.195   1.357  11.777 -0.3455 -0.5721  0.3124
53219SOL    HW168625   1.175   1.450  11.778  0.6034 -0.3361 -1.0296
53219SOL    HW268626   1.247   1.343  11.856  0.0926  0.1695  0.1563
53220SOL     OW68627   8.476  10.045   8.709  0.3538  0.7414 -0.5485
53220SOL    HW168628   8.455  10.044   8.802  0.2368  0.7703 -0.5740
53220SOL    HW268629   8.454   9.958   8.677  1.2325  0.4402 -0.3692
53221SOL     OW68630   1.349   8.217   0.557 -0.3341  0.0732 -0.4333
53221SOL    HW168631   1.434   8.200   0.518 -1.3727 -0.7449 -2.5051
53221SOL    HW268632   1.339   8.312   0.552  0.4189  0.1730 -0.2071
53222SOL     OW68633   2.106   2.446   8.267 -1.0368 -0.1754 -0.2497
53222SOL    HW168634   2.112   2.386   8.342  1.0017 -0.5055 -0.6040
53222SOL    HW268635   2.109   2.388   8.190  1.2910  0.3118 -0.6026
53223SOL     OW68636   8.486   0.229   6.813 -0.6312  0.1109 -0.0339
53223SOL    HW168637   8.495   0.136   6.793 -0.8212  0.4449 -1.7623
53223SOL    HW268638   8.576   0.259   6.829 -0.4806 -0.1824 -0.3210
53224SOL     OW68639  11.024   0.878   8.549  0.4945  0.6841 -0.3194
53224SOL    HW168640  10.972   0.948   8.510  0.4869  0.7365 -0.2165
53224SOL    HW268641  10.959   0.813   8.576  0.4949  0.6730 -0.3455
53225SOL     OW68642   9.609   6.847   0.703 -0.3576 -0.1799 -0.4037
53225SOL    HW168643   9.515   6.858   0.716 -0.3839  1.5948 -1.8130
53225SOL    HW268644   9.648   6.884   0.782 -0.8067  0.0334 -0.2746
53226SOL     OW68645  10.391  12.115   9.478  0.1938 -0.5501  0.5158
53226SOL    HW168646  10.434  12.196   9.507 -1.2832  0.4196  0.1649
53226SOL    HW268647  10.318  12.104   9.539 -1.6368  0.2988 -1.3831
53227SOL     OW68648   0.510  11.230   2.316 -0.7306 -0.0057  0.3843
53227SOL    HW168649   0.417  11.216   2.334 -0.4446 -2.8400  0.1034
53227SOL    HW268650   0.541  11.285   2.388 -2.4864  0.4512  0.8256
53228SOL     OW68651  12.058  11.264   2.756 -0.3773 -0.2174 -0.0207
53228SOL    HW168652  12.109  11.225   2.828 -0.1939  0.2259  0.0878
53228SOL    HW268653  11.967  11.248   2.781 -0.3007 -1.2257 -0.3349
53229SOL     OW68654   3.292   0.399  10.228  0.1825 -0.1495  0.8440
53229SOL    HW168655   3.344   0.325  10.196  0.6619  0.9153 -0.9374
53229SOL    HW268656   3.342   0.434  10.301  0.5667 -0.8388  0.9167
53230SOL     OW68657  11.052   6.875   5.633  0.3105  0.2171 -0.3058
53230SOL    HW168658  11.083   6.882   5.724  0.4071  0.1128 -0.3318
53230SOL    HW268659  11.062   6.964   5.598  0.5126  0.2005 -0.2926
53231SOL     OW68660   1.016  10.975   1.148  0.1853 -0.3408 -0.2112
53231SOL    HW168661   0.936  10.925   1.168  0.5075 -0.4473  0.8967
53231SOL    HW268662   1.051  10.998   1.234  1.2571 -0.1391 -0.6939
53232SOL     OW68663   8.327   7.160   9.956  0.4309  0.2052  0.5569
53232SOL    HW168664   8.349   7.243   9.915  0.8980  0.0568  0.5049
53232SOL    HW268665   8.390   7.150  10.027  3.5835 -2.3246 -2.2811
53233SOL     OW68666   2.108   9.701  10.822  0.3691 -0.3024  0.2124
53233SOL    HW168667   2.087   9.620  10.777 -0.1961  0.3482 -0.7346
53233SOL    HW268668   2.025   9.731  10.858  0.2120  0.6970 -0.8960
53234SOL     OW68669  11.978   2.672   7.326  0.6302  0.1074  0.9813
53234SOL    HW168670  12.067   2.666   7.360  0.2669 -0.3111  1.8733
53234SOL    HW268671  11.931   2.600   7.367 -0.0530  0.1468  0.2931
53235SOL     OW68672   2.487  11.731   6.690 -0.0958 -0.5506  0.3098
53235SOL    HW168673   2.415  11.672   6.713 -1.4456  0.9105  0.0751
53235SOL    HW268674   2.447  11.794   6.630  1.7372 -0.4659 -0.9009
53236SOL     OW68675   3.091   0.147   1.782  0.0203 -0.3465  0.1274
53236SOL    HW168676   3.015   0.165   1.837  1.3575  0.1315  1.8961
53236SOL    HW268677   3.107   0.230   1.737  1.0238  0.3766  1.7467
53237SOL     OW68678   8.973   3.585   5.823 -0.5869  0.2718 -0.0786
53237SOL    HW168679   8.891   3.628   5.845  0.0343  0.5191  1.9090
53237SOL    HW268680   9.035   3.615   5.890  1.0295 -0.2147 -1.2809
53238SOL     OW68681   9.640   5.127   9.565  0.1969  0.1147 -0.2748
53238SOL    HW168682   9.684   5.043   9.574 -0.8657 -0.5463 -0.9493
53238SOL    HW268683   9.703   5.183   9.520  0.1974 -0.9543 -1.6592
53239SOL     OW68684   4.297   0.788  12.173 -0.1924 -0.1818 -0.6265
53239SOL    HW168685   4.287   0.693  12.170  2.1158 -0.4865 -0.9771
53239SOL    HW268686   4.234   0.817  12.239 -1.1940 -1.8946 -0.7629
53240SOL     OW68687   1.247   8.047   3.544  0.1844 -0.3931 -0.2966
53240SOL    HW168688   1.230   7.979   3.609 -0.2102 -1.5106 -1.5264
53240SOL    HW268689   1.255   8.128   3.595 -0.8071 -1.1195  1.0694
53241SOL     OW68690   9.705  11.208   6.401  0.2202 -1.1374  0.5085
53241SOL    HW168691   9.760  11.182   6.475  1.0152 -0.1597  0.2874
53241SOL    HW268692   9.620  11.228   6.439  0.7150 -0.3420  1.2099
53242SOL     OW68693   0.432   1.166   6.320 -0.0661 -0.0448 -0.2606
53242SOL    HW168694   0.359   1.129   6.271  0.5698 -0.2697 -1.0556
53242SOL    HW268695   0.391   1.230   6.378 -0.9404 -0.4666 -0.3832
53243SOL     OW68696   0.859   6.897   6.991 -0.2900  0.0339 -0.0551
53243SOL    HW168697   0.879   6.978   6.943  2.2861 -0.7907 -0.5665
53243SOL    HW268698   0.836   6.926   7.079 -0.9152  1.3900 -0.6344
53244SOL     OW68699   4.682   2.692   5.032  0.1807  0.1254  0.2340
53244SOL    HW168700   4.619   2.696   4.960 -0.4770  1.5910  0.8338
53244SOL    HW268701   4.729   2.775   5.026  1.5515 -0.6241  0.2625
53245SOL     OW68702  10.019   2.522   8.233 -0.2297  0.8426  0.3138
53245SOL    HW168703  10.095   2.472   8.204 -1.6300 -0.6840 -0.8686
53245SOL    HW268704  10.036   2.611   8.203  0.3159  0.1574 -1.5406
53246SOL     OW68705  10.851   6.857  10.564 -0.0330  0.2729 -0.2345
53246SOL    HW168706  10.771   6.833  10.611 -0.0776  0.7407 -0.0678
53246SOL    HW268707  10.849   6.953  10.561 -0.1813  0.2519 -1.4437
53247SOL     OW68708   7.033   9.594  11.241 -0.2846 -0.4822 -0.0914
53247SOL    HW168709   7.114   9.549  11.218  0.2359 -0.3445  1.3427
53247SOL    HW268710   7.025   9.665  11.178  0.4248 -0.8325 -0.5772
53248SOL     OW68711   5.511   2.607   4.866  0.2001  0.0875 -0.2345
53248SOL    HW168712   5.590   2.577   4.910 -0.1872 -0.8175 -0.1260
53248SOL    HW268713   5.503   2.700   4.889  1.1345  0.1425 -0.1214
53249SOL     OW68714   9.109   2.466   4.008 -0.1334  0.2916  0.4474
53249SOL    HW168715   9.061   2.514   3.940 -0.3074  1.2917  1.2583
53249SOL    HW268716   9.100   2.374   3.983 -1.7182  0.5143  0.0900
53250SOL     OW68717   0.104   8.582   9.127  0.3866 -0.3900  0.3378
53250SOL    HW168718   0.139   8.543   9.206  1.3560 -1.7619 -0.7281
53250SOL    HW268719   0.180   8.608   9.076 -0.1725 -0.8514 -0.7773
53251SOL     OW68720   2.607   2.971   6.203 -0.1746 -0.5176  0.2414
53251SOL    HW168721   2.615   2.985   6.109  1.7357 -0.1809  0.4151
53251SOL    HW268722   2.647   2.886   6.219  1.0916  0.1695  0.9306
53252SOL     OW68723  10.706   9.730   9.560  0.0263  0.3580  0.2851
53252SOL    HW168724  10.636   9.778   9.513 -1.9434 -3.8019 -1.5495
53252SOL    HW268725  10.666   9.703   9.642  0.7766  0.9903  0.8693
53253SOL     OW68726   4.691   3.918  11.634 -0.0873  0.2344 -0.1997
53253SOL    HW168727   4.744   3.996  11.649  0.6170 -0.4857  1.1585
53253SOL    HW268728   4.628   3.945  11.566 -1.1053  2.5752  1.5200
53254SOL     OW68729  11.352   5.026   3.001  0.0283  0.1117  0.0796
53254SOL    HW168730  11.350   5.111   3.046  1.0807  0.1864  0.0209
53254SOL    HW268731  11.411   4.972   3.054  0.3029 -0.1951 -0.5264
53255SOL     OW68732   8.832   6.100   5.020  0.1481 -0.1873  0.0221
53255SOL    HW168733   8.928   6.102   5.028  0.0896  0.8084  0.6915
53255SOL    HW268734   8.806   6.191   5.036 -0.7756 -0.0564 -2.0507
53256SOL     OW68735   8.616   5.664   5.072  0.0080  0.1095  0.5831
53256SOL    HW168736   8.706   5.681   5.046 -0.0953  0.5157  0.4808
53256SOL    HW268737   8.621   5.640   5.165  0.4064 -1.5774  0.1727
53257SOL     OW68738   6.686   0.800   3.216  0.3805 -0.2725  0.0586
53257SOL    HW168739   6.653   0.881   3.254  0.9274  0.4248 -0.9004
53257SOL    HW268740   6.611   0.740   3.218 -0.2618  0.5127  0.0459
53258SOL     OW68741   3.903   5.770   7.454  0.0352  0.0193  0.4858
53258SOL    HW168742   3.948   5.833   7.396 -0.0449  2.9657  3.3581
53258SOL    HW268743   3.967   5.700   7.467  0.7817  0.2572 -1.5316
53259SOL     OW68744   8.673   5.940   6.046 -0.0404 -0.9295  0.2528
53259SOL    HW168745   8.632   5.963   6.129 -0.1319 -1.6119  0.4056
53259SOL    HW268746   8.649   6.011   5.986 -1.6784 -1.4351  0.2589
53260SOL     OW68747   1.604   9.796   8.158 -0.4667  0.2170  0.4359
53260SOL    HW168748   1.531   9.811   8.099 -1.7239  0.3540  1.9700
53260SOL    HW268749   1.641   9.884   8.174  0.4350  0.0797 -0.8053
53261SOL     OW68750   7.800   3.064  10.793  0.1579 -0.1211 -0.1826
53261SOL    HW168751   7.838   3.151  10.785 -0.1441  0.1350  0.9988
53261SOL    HW268752   7.776   3.056  10.885  1.0764 -1.8339 -0.0501
53262SOL     OW68753   6.615   1.509   0.532 -0.5912  0.3099  0.1128
53262SOL    HW168754   6.527   1.475   0.517 -0.3194 -0.1989 -0.3596
53262SOL    HW268755   6.642   1.545   0.447  0.7378 -2.0731 -0.5756
53263SOL     OW68756   8.980   3.801   5.063  0.2876  0.0192 -0.1611
53263SOL    HW168757   9.028   3.882   5.043  0.6582  0.2913  1.6461
53263SOL    HW268758   8.988   3.791   5.158 -1.6446 -0.9648 -0.0507
53264SOL     OW68759   4.499   5.499  10.896 -0.6079 -0.1388  0.4281
53264SOL    HW168760   4.534   5.509  10.808  1.7048 -2.0358  1.0074
53264SOL    HW268761   4.528   5.578  10.942 -0.4750  0.1442 -0.1319
53265SOL     OW68762  10.823  10.005   8.029 -0.1913 -0.0981  0.7288
53265SOL    HW168763  10.764  10.048   8.091 -1.7181  0.0312 -0.7488
53265SOL    HW268764  10.876   9.946   8.083 -1.6892 -0.2303  2.1283
53266SOL     OW68765   3.138   6.576   2.723  0.2574  0.0714  0.0049
53266SOL    HW168766   3.199   6.548   2.792  0.0634 -2.0832 -0.6056
53266SOL    HW268767   3.057   6.596   2.770  0.9905  1.5924  0.6824
53267SOL     OW68768   5.840  12.156   2.075  0.2194  0.2695  0.0157
53267SOL    HW168769   5.866  12.064   2.068 -1.8244 -0.4011  0.4906
53267SOL    HW268770   5.886  12.188   2.152  0.7735 -0.4105 -0.0206
53268SOL     OW68771   4.752  11.774   9.584 -0.1224 -0.1396 -0.1972
53268SOL    HW168772   4.694  11.701   9.605  0.8577 -1.1207 -0.7561
53268SOL    HW268773   4.696  11.852   9.585 -1.6076 -1.1458 -1.5300
53269SOL     OW68774   9.311   4.940   5.022 -0.2646 -0.0635 -0.5125
53269SOL    HW168775   9.253   5.002   4.979  0.7516  0.4496 -1.2031
53269SOL    HW268776   9.304   4.860   4.969 -1.8882 -0.7215  0.6171
53270SOL     OW68777   0.445   0.114   4.635  0.3247 -0.1624  0.2873
53270SOL    HW168778   0.393   0.126   4.555  1.5587  0.1792 -0.5080
53270SOL    HW268779   0.535   0.105   4.603  0.5799 -2.5736  1.4865
53271SOL     OW68780   6.314   1.052   4.459 -0.5151  0.3151  0.0810
53271SOL    HW168781   6.396   1.036   4.505 -0.6843 -0.1089  0.2404
53271SOL    HW268782   6.247   1.050   4.527 -0.7058  0.2288 -0.1051
53272SOL     OW68783   4.575   1.770   5.967  0.0806 -0.4262 -0.1706
53272SOL    HW168784   4.499   1.735   6.015 -0.6805 -1.2801 -1.9085
53272SOL    HW268785   4.619   1.826   6.031 -2.1547  0.3240  0.8447
53273SOL     OW68786   9.500   3.115  11.119  0.5501  0.3408 -0.0425
53273SOL    HW168787   9.559   3.174  11.073 -1.1997  1.7437 -0.6309
53273SOL    HW268788   9.524   3.123  11.211  1.2295  0.9193 -0.2649
53274SOL     OW68789   1.685   8.982   8.411 -0.1355 -0.1589 -0.1415
53274SOL    HW168790   1.640   9.025   8.338 -0.3730 -1.7796 -1.0177
53274SOL    HW268791   1.777   8.981   8.385  0.2334  1.7410  0.9171
53275SOL     OW68792   7.971   9.265   9.436 -0.1925 -0.2406 -0.2294
53275SOL    HW168793   7.926   9.181   9.432 -1.4808  0.3916  0.3538
53275SOL    HW268794   8.040   9.252   9.502  0.2277 -1.0938 -0.8201
53276SOL     OW68795   2.421   7.933   1.369 -0.7019 -0.1449  0.1255
53276SOL    HW168796   2.481   7.977   1.309 -1.5457 -0.9346 -1.3331
53276SOL    HW268797   2.474   7.918   1.448  1.3449 -1.6740 -1.4367
53277SOL     OW68798   7.853  11.310   2.377  0.1490 -0.1316  0.1639
53277SOL    HW168799   7.788  11.347   2.317 -1.9107 -0.5794  2.0077
53277SOL    HW268800   7.804  11.247   2.430  2.3339 -1.2674  0.9572
53278SOL     OW68801   9.085   0.424   1.157 -0.3918  0.4353  0.1462
53278SOL    HW168802   9.088   0.376   1.240  1.2697  0.8989  0.3791
53278SOL    HW268803   9.063   0.514   1.182 -0.0953  0.5312  0.0628
53279SOL     OW68804   8.421   6.934   4.350  0.0409  0.1797  0.0939
53279SOL    HW168805   8.504   6.944   4.398 -0.2527 -3.0101  1.4956
53279SOL    HW268806   8.442   6.877   4.277 -0.6190  0.7111 -0.5255
53280SOL     OW68807  11.556   2.876   9.999  0.2028 -0.5084 -0.3418
53280SOL    HW168808  11.618   2.866  10.071  1.2673  2.3559 -0.7517
53280SOL    HW268809  11.482   2.924  10.037  0.5796  0.6380 -1.0046
53281SOL     OW68810   7.534   5.951  12.142 -0.2485 -0.7412  0.2131
53281SOL    HW168811   7.456   5.978  12.094 -0.6889 -1.0638  0.7366
53281SOL    HW268812   7.599   6.018  12.121 -1.4097  0.9645  1.7794
53282SOL     OW68813   5.733   7.301  11.912 -0.1028  0.5743  0.3486
53282SOL    HW168814   5.734   7.205  11.911 -0.3661  0.5214  1.8757
53282SOL    HW268815   5.640   7.323  11.922  0.0246  0.9593  0.7063
53283SOL     OW68816   5.257   0.850   4.293  0.5396 -0.2771 -0.3479
53283SOL    HW168817   5.222   0.764   4.318 -0.0842 -0.2378 -1.0331
53283SOL    HW268818   5.213   0.870   4.210  0.8072  0.6269 -0.2807
53284SOL     OW68819   5.690   0.258  10.416 -0.1015 -0.2428  0.1299
53284SOL    HW168820   5.712   0.224  10.503 -0.6148 -0.9226  0.0050
53284SOL    HW268821   5.746   0.335  10.405  0.3673 -0.4757  0.8344
53285SOL     OW68822   4.937   6.512  11.116  0.3543 -0.3273  0.1698
53285SOL    HW168823   4.889   6.594  11.123  0.8877  0.1298 -1.1207
53285SOL    HW268824   4.902   6.470  11.038  0.7366 -0.8917  0.2943
53286SOL     OW68825  10.730  10.929   7.984  0.5046  0.4258  0.0276
53286SOL    HW168826  10.775  10.976   8.053 -1.4370  0.4486  1.3491
53286SOL    HW268827  10.786  10.854   7.966  2.0193  1.4817  0.1876
53287SOL     OW68828   1.206   3.265   9.003  0.2458  0.1159  0.7778
53287SOL    HW168829   1.113   3.282   8.986  0.4250  1.4181  0.9299
53287SOL    HW268830   1.217   3.289   9.095  0.4553 -1.4092  1.1702
53288SOL     OW68831   1.834   1.320  10.019  0.5698 -0.5034  0.1217
53288SOL    HW168832   1.859   1.412  10.026  2.3619 -0.9889  0.8175
53288SOL    HW268833   1.828   1.290  10.109  0.6601 -1.2140 -0.0987
53289SOL     OW68834  10.535  11.995   1.609 -0.2721  0.4341  0.1308
53289SOL    HW168835  10.591  12.033   1.676  0.2865  0.0307 -0.0930
53289SOL    HW268836  10.458  12.051   1.607  1.2323  2.6215 -1.3690
53290SOL     OW68837  11.616   4.247   9.914 -0.0318 -0.2672  0.4785
53290SOL    HW168838  11.688   4.259   9.853 -0.0097  0.3344  0.6147
53290SOL    HW268839  11.537   4.260   9.861  0.0000  1.1866  0.7506
53291SOL     OW68840   3.033   1.681   5.718 -0.1766 -0.1454 -0.5024
53291SOL    HW168841   3.129   1.675   5.717 -0.1849 -0.3597 -0.2531
53291SOL    HW268842   3.006   1.641   5.635 -0.0331  0.2897 -0.7613
53292SOL     OW68843   1.302   4.052   9.033  0.3228 -0.3697  0.2151
53292SOL    HW168844   1.208   4.069   9.036  0.3118  0.0140 -1.2891
53292SOL    HW268845   1.336   4.086   9.115 -0.6372  0.9464  0.0908
53293SOL     OW68846   0.314   8.345   8.528 -0.0533 -0.0697  0.3846
53293SOL    HW168847   0.366   8.400   8.586  0.0532  1.0777 -0.7523
53293SOL    HW268848   0.225   8.350   8.563 -0.2727  1.7983 -0.3567
53294SOL     OW68849   1.926   7.793   9.245 -0.0059 -0.4481 -0.0991
53294SOL    HW168850   1.972   7.725   9.295 -1.2986 -2.3291 -1.3525
53294SOL    HW268851   1.836   7.791   9.277  0.0714  1.2003  0.3215
53295SOL     OW68852   1.659   1.608   5.437  0.3848 -0.6781  0.1997
53295SOL    HW168853   1.565   1.604   5.455  0.2477  2.6822  0.9089
53295SOL    HW268854   1.668   1.577   5.347 -1.5944 -0.0010 -0.2855
53296SOL     OW68855   6.730   8.656   7.002  0.2482 -0.2734  0.1904
53296SOL    HW168856   6.638   8.641   6.983  0.1000 -0.9462  1.3643
53296SOL    HW268857   6.774   8.646   6.917 -0.8041  0.5798 -0.4716
53297SOL     OW68858   7.256   1.605   6.515  0.6896 -0.0586  0.3710
53297SOL    HW168859   7.325   1.571   6.572  0.0447  0.5016  1.5370
53297SOL    HW268860   7.289   1.591   6.426  2.1221 -0.1616  0.8849
53298SOL     OW68861   2.257   9.931   2.499 -0.0562  0.7220 -0.2559
53298SOL    HW168862   2.200  10.007   2.508  0.3091  0.9501  0.1461
53298SOL    HW268863   2.337   9.955   2.545 -0.2032 -0.1798  0.4929
53299SOL     OW68864  11.524   8.134  12.497  0.2387  0.5027  0.1782
53299SOL    HW168865  11.440   8.117  12.455  0.0583 -1.7009  1.2751
53299SOL    HW268866  11.589   8.125  12.428 -0.3371  1.1023 -0.4485
53300SOL     OW68867   8.493   2.256  11.510 -0.2001 -0.5694 -0.4152
53300SOL    HW168868   8.571   2.238  11.562  0.0015  1.1551 -0.0780
53300SOL    HW268869   8.421   2.222  11.563  0.2422 -1.4351 -0.3551
53301SOL     OW68870   2.451   4.757  11.407  0.1280 -0.2966 -1.0776
53301SOL    HW168871   2.482   4.734  11.319  0.3604  0.2846 -1.1532
53301SOL    HW268872   2.499   4.837  11.429 -0.7311  0.1644 -0.8599
53302SOL     OW68873  11.484   1.097   8.470 -0.6861 -0.7006 -0.7684
53302SOL    HW168874  11.483   1.023   8.532  0.9756  0.7800  1.1458
53302SOL    HW268875  11.394   1.130   8.472 -0.4150  0.1780  2.0946
53303SOL     OW68876   1.233  11.767   6.180  0.7550  0.3800  0.3041
53303SOL    HW168877   1.188  11.684   6.198  2.3504  0.0062  3.0714
53303SOL    HW268878   1.308  11.767   6.239  1.2127  3.5072 -0.1199
53304SOL     OW68879   9.750   6.515  11.523 -0.3259  0.0276 -0.4857
53304SOL    HW168880   9.715   6.430  11.550 -0.5538 -0.5707 -2.4621
53304SOL    HW268881   9.824   6.493  11.466 -0.5331  1.1411 -1.2060
53305SOL     OW68882  12.441  10.781   0.148 -0.3042  0.1495 -0.4683
53305SOL    HW168883  12.473  10.840   0.216 -1.3829  0.0688  0.1278
53305SOL    HW268884  12.436  10.695   0.192 -0.5873  0.0101 -0.7727
53306SOL     OW68885  10.997   7.742   5.462  0.1668 -0.3400 -0.4951
53306SOL    HW168886  10.985   7.664   5.516 -0.8686  0.3475  0.3322
53306SOL    HW268887  10.967   7.814   5.518  1.9741  0.7804 -0.8782
53307SOL     OW68888  11.315   8.265   0.927 -0.1227 -0.8880 -0.1684
53307SOL    HW168889  11.324   8.189   0.869  1.9254 -0.3164 -0.7153
53307SOL    HW268890  11.351   8.338   0.875  1.5757 -0.3071  1.7089
53308SOL     OW68891   7.589  10.263   2.947  0.0451  0.2424  0.5407
53308SOL    HW168892   7.654  10.316   2.901 -0.2462  0.0410 -0.1061
53308SOL    HW268893   7.595  10.176   2.907 -2.4382  0.8599 -1.4217
53309SOL     OW68894   4.798   5.120   5.862  0.2912 -0.1202  0.1449
53309SOL    HW168895   4.859   5.184   5.898  0.0577  0.3747 -0.3202
53309SOL    HW268896   4.853   5.059   5.812  0.3433  0.7632 -0.9123
53310SOL     OW68897   4.730   6.446  12.378  0.3259 -0.1065 -0.5345
53310SOL    HW168898   4.748   6.411  12.291 -0.3370 -0.5783 -0.4847
53310SOL    HW268899   4.776   6.530  12.380  1.4359 -0.6870 -0.8694
53311SOL     OW68900   5.638   8.734   1.036 -0.0263 -0.2946 -0.0129
53311SOL    HW168901   5.563   8.783   1.070 -0.0434 -1.3642  1.6101
53311SOL    HW268902   5.656   8.669   1.104  1.7522 -0.6971 -0.8293
53312SOL     OW68903  11.067  12.104   4.215  0.1685 -0.4920 -0.1116
53312SOL    HW168904  11.038  12.039   4.280  0.6965 -2.0317 -1.3666
53312SOL    HW268905  10.989  12.122   4.163  0.1139 -0.3890  0.0050
53313SOL     OW68906  11.571   1.362   2.556 -0.1134 -0.1042  0.1167
53313SOL    HW168907  11.649   1.382   2.505  0.4136 -0.3617  0.8065
53313SOL    HW268908  11.538   1.447   2.584 -1.0027  0.1155 -1.4916
53314SOL     OW68909   7.679   8.543   2.863 -0.4971  0.7141 -0.1001
53314SOL    HW168910   7.650   8.612   2.804 -0.0888  0.6820 -0.3417
53314SOL    HW268911   7.667   8.580   2.951  1.9103  2.0337 -0.2523
53315SOL     OW68912   7.642  10.776   0.252 -0.0694 -0.1440 -0.1203
53315SOL    HW168913   7.554  10.813   0.245 -0.3181 -0.7325 -0.0996
53315SOL    HW268914   7.698  10.840   0.209 -0.6937 -0.4763 -1.4612
53316SOL     OW68915   1.164   9.266   2.998  0.1194 -0.1911  0.1343
53316SOL    HW168916   1.090   9.296   3.051  0.2818 -0.3510  0.4509
53316SOL    HW268917   1.220   9.219   3.059  0.0608 -0.8069 -0.2809
53317SOL     OW68918   3.727  10.141   7.128 -0.0194 -0.4175 -0.4234
53317SOL    HW168919   3.752  10.115   7.039  1.8538  0.3214 -0.1745
53317SOL    HW268920   3.807  10.179   7.165 -0.3910 -1.7827  2.0089
53318SOL     OW68921   8.729   1.977   8.794  0.0553 -0.1801  0.3599
53318SOL    HW168922   8.816   1.952   8.826  0.4258  2.2396  1.4374
53318SOL    HW268923   8.677   1.991   8.873 -0.5079  1.0338 -0.1922
53319SOL     OW68924  12.019   3.018   5.529 -0.3880 -0.8582 -0.4717
53319SOL    HW168925  11.955   3.043   5.595  0.0330 -0.4496 -0.2100
53319SOL    HW268926  11.971   3.018   5.446 -1.0822 -2.0236 -0.0926
53320SOL     OW68927   5.858   6.786  11.259 -0.1506  0.0574 -0.5625
53320SOL    HW168928   5.794   6.847  11.297 -0.4029  0.1433 -1.1121
53320SOL    HW268929   5.941   6.832  11.263 -0.3432  0.4532 -0.9940
53321SOL     OW68930   2.956  11.151   6.349 -0.0657 -0.6649  0.4800
53321SOL    HW168931   3.048  11.172   6.367 -0.1569 -1.4401  1.9869
53321SOL    HW268932   2.911  11.166   6.432 -1.3753 -0.0155 -0.3096
53322SOL     OW68933   7.454  11.761  10.334  0.1718  0.0131 -0.6045
53322SOL    HW168934   7.433  11.850  10.361 -0.2390 -0.7011  1.6376
53322SOL    HW268935   7.549  11.759  10.330  0.1888  0.5072 -0.5043
53323SOL     OW68936   7.186   3.883  10.740 -0.1869  1.0929 -0.5304
53323SOL    HW168937   7.182   3.955  10.803 -0.8273  0.2493  0.4264
53323SOL    HW268938   7.236   3.816  10.784  0.8458  1.1177 -1.6176
53324SOL     OW68939   8.323   3.132   0.256  0.3770  0.4641  0.0669
53324SOL    HW168940   8.338   3.187   0.334 -2.5260 -0.2007  1.2078
53324SOL    HW268941   8.256   3.179   0.207  0.8712 -0.0535 -1.1235
53325SOL     OW68942   7.989   5.731   1.882  0.6230  0.1272 -0.0483
53325SOL    HW168943   8.074   5.688   1.885 -0.2935 -1.7031  0.8347
53325SOL    HW268944   7.960   5.734   1.973 -0.3649  0.5100 -0.3642
53326SOL     OW68945   8.177   9.752   1.543 -0.3877  0.5743  0.1791
53326SOL    HW168946   8.235   9.784   1.611 -1.4462 -0.1929  1.4822
53326SOL    HW268947   8.126   9.829   1.517 -0.0022  0.8641  0.2776
53327SOL     OW68948  12.487   4.528   2.131  0.0668 -0.5593 -0.0532
53327SOL    HW168949  12.484   4.622   2.146 -0.6531 -0.4200 -0.9897
53327SOL    HW268950  12.577   4.503   2.151  1.1149  0.8342 -2.5725
53328SOL     OW68951   4.294  12.186   3.533  0.0891  0.4622 -0.2693
53328SOL    HW168952   4.272  12.201   3.441 -0.5662 -0.1175 -0.2172
53328SOL    HW268953   4.213  12.152   3.571 -0.2929  2.6189  1.0045
53329SOL     OW68954  12.224   4.414   4.075  0.0356  0.3088 -0.3507
53329SOL    HW168955  12.211   4.394   3.982  2.3338  0.3466 -0.7245
53329SOL    HW268956  12.305   4.464   4.079  1.2101 -1.5446  1.8618
53330SOL     OW68957   3.650   3.568   4.089  0.3597 -0.1133 -0.8304
53330SOL    HW168958   3.633   3.476   4.071  0.4226 -0.1561 -0.6776
53330SOL    HW268959   3.675   3.570   4.182  0.1787  0.0808 -0.7851
53331SOL     OW68960   1.425  10.207   9.869  0.3061  0.3033 -0.9095
53331SOL    HW168961   1.401  10.115   9.878  0.5175  0.4238  1.5706
53331SOL    HW268962   1.349  10.255   9.901  1.4216  0.8407  1.1374
53332SOL     OW68963   0.363   2.403  10.767 -0.1275  0.5243 -0.0581
53332SOL    HW168964   0.428   2.380  10.833 -1.6277  2.3724  2.2039
53332SOL    HW268965   0.365   2.499  10.763 -0.7155  0.5061 -2.1057
53333SOL     OW68966   9.795   1.689   2.698  0.6721 -0.3123  0.5890
53333SOL    HW168967   9.829   1.635   2.626 -0.2232 -0.9231  0.6088
53333SOL    HW268968   9.870   1.698   2.757  0.6722 -2.1722  0.9439
53334SOL     OW68969   9.173  12.566   9.004  0.0654  0.2559  1.0013
53334SOL    HW168970   9.235  12.596   9.071 -1.5178  1.1956  2.0914
53334SOL    HW268971   9.114  12.507   9.050 -0.0509 -0.3955  0.0424
53335SOL     OW68972  12.287  12.237   7.694  0.0979  1.1854 -0.1810
53335SOL    HW168973  12.355  12.231   7.761 -2.4031  1.2073  2.5440
53335SOL    HW268974  12.282  12.331   7.673  0.6011  1.2346 -0.0935
53336SOL     OW68975   0.399   8.160   9.124 -0.2227 -0.2221 -0.1737
53336SOL    HW168976   0.493   8.178   9.131 -0.3539  0.3024  0.4015
53336SOL    HW268977   0.380   8.171   9.031  0.0934  0.7337 -0.1444
53337SOL     OW68978  12.325   8.269   9.301 -0.2626  0.2156 -0.3423
53337SOL    HW168979  12.380   8.196   9.331  1.8288  1.5241 -0.7247
53337SOL    HW268980  12.260   8.280   9.371  0.8733 -0.5090  0.8897
53338SOL     OW68981  12.037   9.211   0.514 -0.1044  0.1339 -0.2806
53338SOL    HW168982  12.039   9.115   0.514  0.6419  0.1417 -0.8866
53338SOL    HW268983  12.087   9.237   0.437 -0.0162  1.0190  0.0541
53339SOL     OW68984  12.140   9.744   9.918  0.1646  0.0220  0.0723
53339SOL    HW168985  12.178   9.772   9.835 -1.0957  1.0290 -0.2049
53339SOL    HW268986  12.190   9.790   9.985  1.0198 -0.5960 -0.1236
53340SOL     OW68987  10.423   0.475   2.959  0.0390  0.3659  1.0351
53340SOL    HW168988  10.366   0.432   3.023 -0.5518  1.8586  1.5724
53340SOL    HW268989  10.448   0.558   3.001  0.4835  0.9118 -0.2449
53341SOL     OW68990   4.562   6.523  11.705  0.2889 -0.3396  0.0415
53341SOL    HW168991   4.508   6.564  11.773  0.4875  0.2335 -0.1390
53341SOL    HW268992   4.594   6.442  11.746 -0.5767 -0.6095  0.1999
53342SOL     OW68993  10.083   7.388   9.716  0.3654  0.1630 -0.0199
53342SOL    HW168994  10.033   7.451   9.768 -0.2762 -0.1673 -0.2279
53342SOL    HW268995  10.069   7.414   9.625  0.5721  0.0650 -0.0809
53343SOL     OW68996  11.980  10.571   7.584  0.2441  0.0509 -0.2641
53343SOL    HW168997  11.949  10.528   7.504 -0.1399  0.7679 -0.5028
53343SOL    HW268998  12.075  10.559   7.581  0.1988 -0.2783 -0.6173
53344SOL     OW68999   1.204   4.916  11.539 -0.7898  0.0383 -0.5305
53344SOL    HW169000   1.160   4.869  11.610  0.0681 -0.3752 -0.2589
53344SOL    HW269001   1.266   4.852  11.503  1.4302  1.3356  0.7571
53345SOL     OW69002  12.543   6.112   2.423 -0.0026 -0.5430  0.2112
53345SOL    HW169003  12.499   6.197   2.416 -0.1381 -0.6004  0.3668
53345SOL    HW269004  12.485   6.051   2.379 -0.4443 -0.7508  1.0558
53346SOL     OW69005   1.249  10.131   6.616 -0.2126  0.2575 -0.3470
53346SOL    HW169006   1.262  10.226   6.614  1.1702  0.1004 -0.1786
53346SOL    HW269007   1.251  10.104   6.524 -0.4552  0.3710 -0.3860
53347SOL     OW69008   9.478   2.561   2.440  0.1951 -0.4484 -0.0356
53347SOL    HW169009   9.424   2.482   2.443  0.3748 -0.5803 -0.2102
53347SOL    HW269010   9.568   2.528   2.435  0.2117 -0.2441 -1.2984
53348SOL     OW69011  12.295   8.945   9.470 -0.2000  0.0088  0.3967
53348SOL    HW169012  12.332   8.866   9.430  0.0895  1.6184 -2.8348
53348SOL    HW269013  12.357   8.967   9.540 -0.1785 -2.4312  1.2620
53349SOL     OW69014   4.320   5.134   4.870 -0.3158 -0.4317 -0.1861
53349SOL    HW169015   4.271   5.079   4.809  1.3200 -1.6419 -0.4553
53349SOL    HW269016   4.409   5.135   4.836  0.6481 -1.1087  2.0979
53350SOL     OW69017   6.931   5.177   5.782 -0.1694 -0.3422 -0.2682
53350SOL    HW169018   6.845   5.136   5.783  0.3613 -1.4963  1.1114
53350SOL    HW269019   6.939   5.221   5.866  0.4571  0.0770 -0.5306
53351SOL     OW69020   0.761   9.573   2.499 -0.5297 -0.3685 -0.1273
53351SOL    HW169021   0.746   9.567   2.594  0.9216  2.1460  0.3702
53351SOL    HW269022   0.760   9.667   2.481  0.2536 -0.7436 -2.4412
53352SOL     OW69023  11.460   8.484   0.116 -0.1370 -0.4578 -0.2193
53352SOL    HW169024  11.485   8.560   0.064 -1.6706 -0.1102 -0.4996
53352SOL    HW269025  11.441   8.519   0.203  0.4228 -0.7388  0.0268
53353SOL     OW69026   8.466   3.107  10.790 -0.4222  0.2774  0.1328
53353SOL    HW169027   8.402   3.092  10.860 -1.2885  1.2782 -0.4173
53353SOL    HW269028   8.471   3.202  10.782  0.4465  0.1932 -0.4756
53354SOL     OW69029  10.110  11.316   3.853  0.8456 -0.1651  0.2977
53354SOL    HW169030  10.106  11.355   3.765  2.8210 -1.9002 -0.6363
53354SOL    HW269031  10.203  11.298   3.866  0.4700 -0.7032  2.4357
53355SOL     OW69032   7.834  10.725   7.634 -0.9503  0.5200 -0.4082
53355SOL    HW169033   7.750  10.737   7.678 -1.0642 -0.3514 -0.3733
53355SOL    HW269034   7.838  10.631   7.615  0.6368  0.2954  0.8355
53356SOL     OW69035   5.197  11.431   2.286  0.4452 -0.3034 -0.1982
53356SOL    HW169036   5.180  11.346   2.326 -0.5043 -0.2470 -0.4623
53356SOL    HW269037   5.289  11.448   2.305  0.8154 -1.6720 -0.6741
53357SOL     OW69038   3.653   7.131   2.113 -0.1335  0.2715 -0.4222
53357SOL    HW169039   3.634   7.050   2.160 -1.2499  0.4360 -0.5586
53357SOL    HW269040   3.706   7.182   2.174  0.3078 -0.4204 -0.2121
53358SOL     OW69041   1.739   6.485  10.369 -0.1968  0.4157 -0.1928
53358SOL    HW169042   1.784   6.445  10.295 -0.9966  0.6908 -0.8451
53358SOL    HW269043   1.781   6.446  10.446  0.1835 -0.4000 -0.7903
53359SOL     OW69044   9.210   5.051   8.416  0.2145  0.6982 -0.1886
53359SOL    HW169045   9.303   5.065   8.437  0.1770 -0.6990  1.0777
53359SOL    HW269046   9.209   4.967   8.371 -0.3873  1.0377 -0.8305
53360SOL     OW69047  12.379   5.269  12.357 -0.2033 -0.9808  0.9490
53360SOL    HW169048  12.284   5.274  12.348 -0.1023  0.7367  0.4846
53360SOL    HW269049  12.411   5.259  12.268  0.1651  2.4036  0.5579
53361SOL     OW69050   8.790  10.251   0.416 -0.1172 -0.2936 -0.1684
53361SOL    HW169051   8.858  10.185   0.404 -0.1481 -0.2814 -0.3936
53361SOL    HW269052   8.834  10.321   0.465  0.3137  0.1780 -1.2190
53362SOL     OW69053   7.831  11.858  11.974 -0.1023  0.4341  0.7884
53362SOL    HW169054   7.805  11.909  12.051 -1.0777  1.8838 -0.4405
53362SOL    HW269055   7.774  11.782  11.975 -0.6098  0.8103  1.1143
53363SOL     OW69056   4.504  12.226   3.924 -0.4557  0.2216 -0.2026
53363SOL    HW169057   4.498  12.132   3.907  0.7215  0.5855 -3.2094
53363SOL    HW269058   4.422  12.261   3.888 -0.2564  0.4824 -0.4055
53364SOL     OW69059  10.845  11.983   4.616 -0.2360 -0.3900  0.6343
53364SOL    HW169060  10.779  11.916   4.632 -0.8012  0.4645  2.0717
53364SOL    HW269061  10.801  12.065   4.638  0.6861  0.3809 -0.3320
53365SOL     OW69062   7.485   2.193   2.846  0.2406  0.3411 -0.3862
53365SOL    HW169063   7.536   2.266   2.880 -0.0324  0.2328  0.2882
53365SOL    HW269064   7.536   2.115   2.867 -0.4387  0.1881  0.8044
53366SOL     OW69065   5.169   2.660   2.071  0.1479 -0.2414 -0.3008
53366SOL    HW169066   5.251   2.615   2.052  0.5209  0.7527 -1.1737
53366SOL    HW269067   5.165   2.664   2.167  1.5747  0.4599 -0.2373
53367SOL     OW69068   6.476  11.716   1.046 -0.0279  0.2307 -0.0222
53367SOL    HW169069   6.525  11.789   1.082  0.0457  0.6880 -1.0197
53367SOL    HW269070   6.542  11.660   1.005  0.1133 -1.2174  2.0204
53368SOL     OW69071  10.274   1.486   0.470 -0.4727  0.3412 -0.1096
53368SOL    HW169072  10.351   1.543   0.476 -0.2799  0.0174  0.6277
53368SOL    HW269073  10.200   1.545   0.483 -0.2211  0.2553  2.0935
53369SOL     OW69074   4.912   7.320   0.812  0.4254 -0.2606 -0.4146
53369SOL    HW169075   4.993   7.307   0.861  0.6551  2.1828 -0.0372
53369SOL    HW269076   4.843   7.318   0.878  0.3385 -0.6264 -0.5117
53370SOL     OW69077   3.698   6.062  10.948  0.1190 -0.5539 -0.6210
53370SOL    HW169078   3.761   6.122  10.908 -1.0318 -0.0588 -1.7668
53370SOL    HW269079   3.634   6.045  10.879 -1.3440 -0.5381  0.6741
53371SOL     OW69080  12.222   6.142  11.226 -0.0412  0.5395 -0.6030
53371SOL    HW169081  12.218   6.164  11.319 -1.2916  0.1042 -0.5361
53371SOL    HW269082  12.186   6.053  11.221 -0.8492  0.9125 -1.6043
53372SOL     OW69083   3.413   6.009   4.662  0.0383 -0.1310 -0.3636
53372SOL    HW169084   3.454   5.990   4.747 -0.8693 -1.3844 -0.1843
53372SOL    HW269085   3.436   6.100   4.645  2.0065 -0.4787  0.2187
53373SOL     OW69086  11.428   5.062   5.929  0.0060  0.3177 -0.4312
53373SOL    HW169087  11.381   4.981   5.910 -2.1147  1.1632  0.8667
53373SOL    HW269088  11.363   5.132   5.916  1.6830  1.8199 -1.2375
53374SOL     OW69089   6.169   1.047  10.655  0.0875  0.6783  0.5510
53374SOL    HW169090   6.218   1.005  10.725  0.1366 -0.0578  0.0815
53374SOL    HW269091   6.202   1.137  10.653  0.1176  0.6991  1.4364
53375SOL     OW69092  11.654   5.286   7.886  0.3878  0.6141  0.7550
53375SOL    HW169093  11.686   5.371   7.855  1.2801  0.0572  0.1021
53375SOL    HW269094  11.622   5.243   7.807  1.7816 -0.4361  0.7202
53376SOL     OW69095   2.046   5.129   2.157  0.1481  0.3452  0.2129
53376SOL    HW169096   2.114   5.192   2.180 -0.4433  0.6368  1.1888
53376SOL    HW269097   2.086   5.075   2.088  0.8838  1.3579 -0.1689
53377SOL     OW69098   8.909   3.636   4.830 -0.6119 -0.0257  0.4959
53377SOL    HW169099   8.963   3.558   4.820 -0.8866 -0.3038  1.0863
53377SOL    HW269100   8.955   3.690   4.895 -0.2016  0.5115 -0.2258
53378SOL     OW69101  12.154   2.259   4.492  0.4556 -0.1813  0.4128
53378SOL    HW169102  12.238   2.294   4.464 -0.2054 -0.1526 -1.6949
53378SOL    HW269103  12.155   2.167   4.464  0.1892 -0.4761  1.3307
53379SOL     OW69104   1.725   4.179   5.265 -0.5926  0.0803 -0.3770
53379SOL    HW169105   1.736   4.274   5.272  0.2124  0.0421 -0.9983
53379SOL    HW269106   1.765   4.145   5.345  3.1228  0.0325 -2.0303
53380SOL     OW69107   7.760   9.163   4.498  0.5549 -0.3152  0.3375
53380SOL    HW169108   7.674   9.140   4.532  0.4109  0.3749  0.4459
53380SOL    HW269109   7.743   9.223   4.426  0.9913  1.0384  1.3354
53381SOL     OW69110   8.311   1.553   0.791  0.1919  0.0153 -0.1709
53381SOL    HW169111   8.374   1.518   0.729 -1.4002 -0.0627 -1.8107
53381SOL    HW269112   8.317   1.648   0.780  0.1121  0.0159 -0.2019
53382SOL     OW69113   4.913   1.308   5.092  0.5394 -0.0514 -0.7379
53382SOL    HW169114   4.841   1.252   5.063 -0.8212  1.1971  0.0594
53382SOL    HW269115   4.931   1.364   5.016  0.1668  0.1099 -0.7096
53383SOL     OW69116   3.832  12.048  10.544 -0.1942 -1.1097  0.3946
53383SOL    HW169117   3.812  12.083  10.457  0.1841  0.0936  0.7710
53383SOL    HW269118   3.903  11.985  10.529  0.7237 -0.0227 -0.0517
53384SOL     OW69119   3.013   0.044   1.050  0.4273  0.1558 -0.6026
53384SOL    HW169120   3.081   0.074   0.990  1.1784 -2.5072 -1.2081
53384SOL    HW269121   3.059   0.030   1.133 -0.2870  2.2832  0.2202
53385SOL     OW69122  12.410   1.196   2.020  0.0176  0.4414 -0.2579
53385SOL    HW169123  12.417   1.254   1.945 -0.1295  0.8847  0.0683
53385SOL    HW269124  12.338   1.233   2.072  0.3487  0.3405  0.2775
53386SOL     OW69125   2.678   3.376   2.768 -0.5537 -0.2121  0.0577
53386SOL    HW169126   2.697   3.320   2.693  0.2911 -1.3944  1.1282
53386SOL    HW269127   2.584   3.365   2.783 -0.6779 -0.1679 -0.6528
53387SOL     OW69128   6.411   4.562   6.548 -0.7491 -0.5981 -0.1139
53387SOL    HW169129   6.389   4.580   6.639 -1.0795  0.9540 -0.4802
53387SOL    HW269130   6.443   4.471   6.549  1.4298  0.0783  1.9413
53388SOL     OW69131   9.749   6.309  10.360 -0.0969  0.2642 -0.5041
53388SOL    HW169132   9.772   6.265  10.442 -0.4075 -0.2287 -0.6813
53388SOL    HW269133   9.667   6.355  10.379 -0.3544 -0.1357 -0.6362
53389SOL     OW69134   7.378   2.033   1.080 -0.9184  0.1783 -0.4541
53389SOL    HW169135   7.381   1.986   1.163 -1.0468  1.5783  0.3702
53389SOL    HW269136   7.295   2.080   1.083  0.1947  2.2385 -0.2193
53390SOL     OW69137   3.594   4.238   1.455 -0.2122  0.0391  0.0872
53390SOL    HW169138   3.541   4.308   1.494  1.0958  0.4112  1.3019
53390SOL    HW269139   3.632   4.278   1.376  1.0685  0.9970  1.1274
53391SOL     OW69140   6.319   0.093   4.403 -0.0536 -0.1422 -0.3291
53391SOL    HW169141   6.398   0.042   4.424 -0.7953 -1.1216  0.1843
53391SOL    HW269142   6.274   0.040   4.337 -1.5127 -0.8638  1.1894
53392SOL     OW69143   8.098   0.489   1.278 -0.0807  0.2865  0.7170
53392SOL    HW169144   8.068   0.401   1.258 -0.2225 -0.0244  2.2434
53392SOL    HW269145   8.162   0.509   1.209  0.5424 -1.3016  0.8140
53393SOL     OW69146   4.981   7.382   0.521 -0.5795  0.1056  0.4421
53393SOL    HW169147   4.991   7.477   0.520  0.0706  0.0368 -0.6732
53393SOL    HW269148   4.913   7.366   0.587  0.0918  1.2564  1.4551
53394SOL     OW69149  11.020  11.327   2.996 -0.5331 -0.5514  0.2061
53394SOL    HW169150  11.010  11.233   3.014 -1.5795 -0.5147 -0.0998
53394SOL    HW269151  10.953  11.345   2.930 -0.1140  0.3473  0.0224
53395SOL     OW69152   7.359  11.316  10.016 -0.1361  0.6102  0.0638
53395SOL    HW169153   7.279  11.304  10.068 -0.6278 -0.5620 -0.9277
53395SOL    HW269154   7.430  11.296  10.077 -0.6182  0.9838  0.7671
53396SOL     OW69155   4.189   1.175   4.516  0.1243 -0.3293  0.3978
53396SOL    HW169156   4.172   1.083   4.536 -1.3581  0.0978  1.2133
53396SOL    HW269157   4.139   1.192   4.437 -0.0888 -0.0717  0.5869
53397SOL     OW69158   9.769   7.303  11.905  0.4655  0.3231  0.1530
53397SOL    HW169159   9.811   7.345  11.830  1.2229 -0.3579  0.1779
53397SOL    HW269160   9.711   7.237  11.865  1.1967 -0.3378  0.1654
53398SOL     OW69161   2.391   5.911   5.545 -0.4940 -0.1238  0.3465
53398SOL    HW169162   2.375   5.850   5.617  0.1123 -1.5814 -0.7030
53398SOL    HW269163   2.484   5.935   5.554 -0.4991 -0.0627  0.2441
53399SOL     OW69164   1.661   2.300   8.158  0.1344 -0.1347 -0.1343
53399SOL    HW169165   1.713   2.257   8.090  0.3125 -0.5384  0.2559
53399SOL    HW269166   1.720   2.364   8.197  0.9638 -1.7745  1.5052
53400SOL     OW69167   5.111   4.578  10.876  0.3326  0.1728 -0.7604
53400SOL    HW169168   5.038   4.638  10.858  0.3501  0.1060 -1.0639
53400SOL    HW269169   5.070   4.504  10.921 -0.2465 -1.0345 -3.1024
53401SOL     OW69170   2.092   3.415   3.703  0.2624  0.2059  0.6017
53401SOL    HW169171   2.063   3.442   3.616 -1.4715 -0.2741  0.9903
53401SOL    HW269172   2.144   3.336   3.688 -0.7383 -0.3723  0.0432
53402SOL     OW69173   5.251  12.062   7.915  0.1611  0.7225 -0.3785
53402SOL    HW169174   5.236  12.154   7.934  1.0409  1.1740 -1.7578
53402SOL    HW269175   5.200  12.045   7.835  0.9213  0.3268 -0.7878
53403SOL     OW69176   6.711   7.612   5.550 -0.0022  0.2775 -0.8538
53403SOL    HW169177   6.804   7.632   5.560 -0.1642  1.2929 -1.1953
53403SOL    HW269178   6.697   7.606   5.455 -0.6029  1.9265 -0.9102
53404SOL     OW69179   8.433   0.286   7.246  0.1438  0.8958 -0.0565
53404SOL    HW169180   8.478   0.371   7.244  0.9715  0.4692 -0.4696
53404SOL    HW269181   8.344   0.306   7.274  0.9242  1.6195  2.0890
53405SOL     OW69182  12.198  12.369   1.593 -0.1631 -0.1123  0.2532
53405SOL    HW169183  12.280  12.383   1.641  0.9917 -1.8242 -1.0671
53405SOL    HW269184  12.199  12.436   1.524 -0.1478  0.2015  0.5541
53406SOL     OW69185  11.903  11.366   0.652  0.0717  0.1147 -0.3917
53406SOL    HW169186  11.902  11.363   0.556  1.1404 -2.5580 -0.4113
53406SOL    HW269187  11.811  11.365   0.678 -0.2263  0.8581 -1.3621
53407SOL     OW69188   8.737   4.693   4.149 -0.4497 -0.1747 -0.0184
53407SOL    HW169189   8.791   4.625   4.189 -1.2200  0.0164  1.4284
53407SOL    HW269190   8.656   4.692   4.200 -0.3613  2.0473  0.2701
53408SOL     OW69191   9.893   4.341   8.709 -0.0212 -0.5127 -0.2361
53408SOL    HW169192   9.837   4.382   8.774 -0.2994 -0.9314 -0.2039
53408SOL    HW269193   9.926   4.413   8.656 -0.0953 -0.2051  0.1308
53409SOL     OW69194  12.483   3.537   1.152 -0.3569 -0.4124 -0.3649
53409SOL    HW169195  12.577   3.537   1.170 -0.2506  0.1969 -0.8666
53409SOL    HW269196  12.477   3.510   1.060 -0.6832 -0.6395 -0.2754
53410SOL     OW69197  11.057   9.311   2.839 -0.5402 -0.2275  0.3576
53410SOL    HW169198  10.974   9.338   2.797 -1.8798 -2.5511  1.3302
53410SOL    HW269199  11.090   9.241   2.782  1.3446  1.2909 -0.5402
53411SOL     OW69200   8.238   7.455   3.436  0.0537 -0.3524 -0.2849
53411SOL    HW169201   8.303   7.398   3.476 -0.3650 -0.0806  0.8120
53411SOL    HW269202   8.159   7.402   3.431 -0.3271  0.0890  0.7033
53412SOL     OW69203  10.946   3.752   6.041 -0.1370  0.0198  0.1991
53412SOL    HW169204  10.892   3.757   6.119 -1.0541 -0.2430 -0.4041
53412SOL    HW269205  11.024   3.704   6.068  0.7646  2.1533  1.6049
53413SOL     OW69206  11.987   4.523  10.164  0.5538 -0.1965  0.4338
53413SOL    HW169207  11.969   4.583  10.237  0.3981 -0.7556  0.8607
53413SOL    HW269208  12.043   4.456  10.201 -1.5553 -1.9013  0.7476
53414SOL     OW69209   7.507   2.056  10.341  0.4853 -0.2810 -0.0490
53414SOL    HW169210   7.599   2.079  10.353  0.5371 -1.1861  1.6341
53414SOL    HW269211   7.494   1.979  10.397 -0.9645 -1.0151 -1.3137
53415SOL     OW69212   2.625  11.212   6.811 -0.2325  0.3283 -0.3976
53415SOL    HW169213   2.536  11.186   6.833  1.1507 -3.6262  1.4202
53415SOL    HW269214   2.667  11.228   6.896  1.4414 -0.6240 -0.9969
53416SOL     OW69215   9.765   4.164   8.947  0.3491 -0.3773 -0.3595
53416SOL    HW169216   9.731   4.076   8.965 -1.4542  0.0761 -1.4182
53416SOL    HW269217   9.732   4.186   8.861  0.8146  1.3450 -0.1325
53417SOL     OW69218   3.340   9.588   0.802  0.0300 -0.0921 -0.1761
53417SOL    HW169219   3.383   9.673   0.817  0.3348 -0.3407  0.4304
53417SOL    HW269220   3.387   9.528   0.860 -0.0829 -0.7101 -0.7170
53418SOL     OW69221   7.282   5.554   3.360  0.0387  0.2427  0.3461
53418SOL    HW169222   7.245   5.540   3.447 -0.6576  2.4135  0.4651
53418SOL    HW269223   7.206   5.559   3.302 -0.0272  4.0725  0.4859
53419SOL     OW69224   6.031   8.775   9.500 -0.8699  0.0134 -0.5668
53419SOL    HW169225   5.960   8.713   9.515  2.1568 -3.3436  1.7348
53419SOL    HW269226   6.071   8.746   9.418 -0.2412 -0.2734 -0.1677
53420SOL     OW69227  11.980   7.303  10.228  0.1112  0.5596  0.0390
53420SOL    HW169228  11.933   7.232  10.272  1.0862  0.3812  0.8357
53420SOL    HW269229  12.020   7.353  10.299  1.3145  0.5576 -0.6027
53421SOL     OW69230  11.642   0.119   0.757 -0.4275 -0.1746 -0.3696
53421SOL    HW169231  11.560   0.124   0.708  0.4635  2.5356 -1.7842
53421SOL    HW269232  11.705   0.084   0.694 -0.4234 -2.4585  0.7750
53422SOL     OW69233  12.354   4.582  10.672  0.5864  0.1997  0.0585
53422SOL    HW169234  12.323   4.508  10.723 -1.4293  0.0242 -1.2881
53422SOL    HW269235  12.394   4.640  10.736  0.1608 -1.0074  1.4871
53423SOL     OW69236   3.457   0.721  12.525  0.1643 -0.5358 -0.1080
53423SOL    HW169237   3.482   0.633  12.554 -1.2757 -0.1317  2.7603
53423SOL    HW269238   3.363   0.726  12.543  0.3333  1.7891  0.4626
53424SOL     OW69239   8.281   7.929   6.921 -0.0228  0.1652 -0.3935
53424SOL    HW169240   8.214   7.944   6.987  0.1867  0.4656 -0.2461
53424SOL    HW269241   8.233   7.900   6.844 -0.1052 -2.4205  0.5329
53425SOL     OW69242   6.718  11.229   5.363 -0.7300 -0.3706 -0.9141
53425SOL    HW169243   6.798  11.220   5.415 -1.0647  0.7637 -0.1452
53425SOL    HW269244   6.748  11.252   5.275 -0.1774  2.3697 -0.1248
53426SOL     OW69245   2.025   2.775   7.719 -0.2311 -0.2095 -0.2369
53426SOL    HW169246   1.979   2.754   7.800  1.1611 -1.0351  0.3883
53426SOL    HW269247   2.097   2.832   7.747  1.4481 -2.0709 -0.5319
53427SOL     OW69248  11.573   8.111   0.473 -0.5949 -0.1735  0.5344
53427SOL    HW169249  11.630   8.037   0.451 -0.4411  0.8560 -3.1724
53427SOL    HW269250  11.630   8.171   0.522  0.6979 -0.5023 -0.4919
53428SOL     OW69251   2.999   4.808   6.196 -0.2131 -0.2504 -0.3213
53428SOL    HW169252   3.051   4.888   6.192 -0.5382  0.0722  1.2875
53428SOL    HW269253   2.914   4.835   6.229 -1.1194 -0.9291 -1.9875
53429SOL     OW69254   8.029  10.437   4.945  0.4035  0.1482  0.5138
53429SOL    HW169255   7.986  10.354   4.967 -0.0877  0.4123  0.5653
53429SOL    HW269256   8.119  10.412   4.922  0.5973 -0.2707  1.6661
53430SOL     OW69257  10.935   8.775   8.241 -0.3767 -0.2292  0.4371
53430SOL    HW169258  10.933   8.688   8.280 -0.0190 -1.3532 -1.8467
53430SOL    HW269259  10.854   8.782   8.191  1.4031 -1.1371 -2.9171
53431SOL     OW69260   4.315   6.118   8.452 -0.0151 -0.7757  0.5019
53431SOL    HW169261   4.348   6.104   8.364  0.3981 -1.2695  0.7311
53431SOL    HW269262   4.385   6.164   8.498  0.6791 -2.4357  1.1879
53432SOL     OW69263   6.778   6.632   0.393  0.0381 -0.2197 -0.2960
53432SOL    HW169264   6.784   6.723   0.420 -0.1765 -0.2071 -0.2895
53432SOL    HW269265   6.692   6.603   0.424 -0.6571  0.0853 -1.8715
53433SOL     OW69266   1.619   4.912   7.391 -0.2140 -0.0019 -0.1724
53433SOL    HW169267   1.711   4.886   7.403 -0.2053 -0.3063 -0.8673
53433SOL    HW269268   1.617   4.956   7.306 -1.1270 -2.0609 -1.2923
53434SOL     OW69269  12.400   8.225  11.512  0.2569  0.2289  0.0259
53434SOL    HW169270  12.339   8.174  11.459 -0.0224  0.9500 -0.3571
53434SOL    HW269271  12.346   8.296  11.548  1.2293  2.0536 -1.8886
53435SOL     OW69272  11.402  10.786  11.238 -0.6191  0.2040 -0.0604
53435SOL    HW169273  11.444  10.788  11.324 -1.1498 -0.6196  0.2278
53435SOL    HW269274  11.360  10.872  11.230 -0.6844  0.2335  0.5676
53436SOL     OW69275   5.575   7.978   2.359  1.0419  0.3143 -0.2081
53436SOL    HW169276   5.489   7.939   2.375  1.2735 -0.8540 -1.6195
53436SOL    HW269277   5.601   8.015   2.444 -0.8975  0.8364  0.2176
53437SOL     OW69278   0.385   8.107  12.193 -0.7454 -0.5845  0.1730
53437SOL    HW169279   0.475   8.103  12.226 -0.8703 -0.9138  0.4870
53437SOL    HW269280   0.375   8.196  12.161 -1.0644  0.1985  2.3217
53438SOL     OW69281   5.545   1.261   4.510  0.5328 -0.2107 -0.4873
53438SOL    HW169282   5.498   1.266   4.593 -1.2236  0.7886 -1.4900
53438SOL    HW269283   5.504   1.188   4.464  0.1400  0.4775 -1.2492
53439SOL     OW69284   9.848   4.550   6.503  0.2742  0.1489  0.4940
53439SOL    HW169285   9.806   4.599   6.432  2.4635  1.6909  0.1427
53439SOL    HW269286   9.843   4.608   6.579  2.5614  0.8570  0.1794
53440SOL     OW69287   2.127   2.038   1.421  0.2475 -0.1787 -0.1150
53440SOL    HW169288   2.212   2.076   1.442  0.1191  0.5312 -0.8312
53440SOL    HW269289   2.073   2.055   1.498  0.5366  0.0273  0.0436
53441SOL     OW69290   7.499   5.246   3.060 -0.2782 -0.0659 -0.2968
53441SOL    HW169291   7.489   5.263   2.967  1.6404 -0.1527 -0.5574
53441SOL    HW269292   7.472   5.155   3.072 -0.5835 -0.0340 -0.7436
53442SOL     OW69293   4.994   4.123   0.189 -0.2490 -0.0944  0.2204
53442SOL    HW169294   5.018   4.051   0.248 -1.3577 -1.8406 -1.3477
53442SOL    HW269295   4.930   4.085   0.129 -0.4056  2.0537 -1.0919
53443SOL     OW69296   3.217   0.614   9.055 -0.6346  0.3243  0.3416
53443SOL    HW169297   3.231   0.608   8.960 -0.6750  1.1731  0.2784
53443SOL    HW269298   3.237   0.526   9.087 -1.9013 -0.3389 -0.6160
53444SOL     OW69299   6.963   8.606   5.293  0.0282  0.0281 -0.6222
53444SOL    HW169300   6.924   8.562   5.368  0.3058  0.9409  0.0887
53444SOL    HW269301   7.027   8.544   5.258 -0.4942 -0.6150 -0.4410
53445SOL     OW69302  10.280   2.206   3.396 -0.3882  0.1449 -0.4384
53445SOL    HW169303  10.263   2.198   3.302  2.9115 -0.7486 -1.0770
53445SOL    HW269304  10.195   2.187   3.437 -0.9446 -4.6753 -3.0759
53446SOL     OW69305   1.462  10.180   1.814  0.1599  0.1255  0.3018
53446SOL    HW169306   1.505  10.247   1.761 -2.1434  1.9403  0.5577
53446SOL    HW269307   1.492  10.097   1.777  1.4783  1.2973 -1.4181
53447SOL     OW69308   8.936   1.066   4.378  0.1820 -0.1917  0.1204
53447SOL    HW169309   8.913   1.137   4.319 -2.1382  1.4901  2.8259
53447SOL    HW269310   8.862   1.006   4.375 -0.0461 -0.0000  1.3987
53448SOL     OW69311   3.427   9.222   1.567 -0.5135 -0.6084  0.6694
53448SOL    HW169312   3.456   9.159   1.633 -1.1093 -2.8638 -1.1021
53448SOL    HW269313   3.357   9.178   1.519 -0.6928  1.2417 -0.9488
53449SOL     OW69314  12.140   2.981   6.957 -0.0089 -0.1746 -0.4133
53449SOL    HW169315  12.106   3.067   6.981  1.6965  1.7165 -4.0652
53449SOL    HW269316  12.064   2.932   6.928 -0.6346  1.2340 -1.2234
53450SOL     OW69317  12.594   2.726   0.955 -0.2557  0.6151  0.2313
53450SOL    HW169318  12.586   2.722   1.050  0.7204 -0.6331  0.2869
53450SOL    HW269319  12.565   2.640   0.925  0.0724  0.7710 -0.5494
53451SOL     OW69320   2.630   3.235   6.705  0.3560  0.0739 -0.0396
53451SOL    HW169321   2.636   3.211   6.798 -0.3275 -0.8453 -0.2196
53451SOL    HW269322   2.575   3.167   6.667  0.7009  0.4040 -1.1424
53452SOL     OW69323   5.815   9.183   5.748 -0.2008 -0.1841  0.2707
53452SOL    HW169324   5.907   9.159   5.737 -0.0818  0.5950 -0.6776
53452SOL    HW269325   5.797   9.241   5.674 -1.4922 -0.4088  0.3814
53453SOL     OW69326   4.853  10.536   3.833  0.4347  0.8450 -0.1930
53453SOL    HW169327   4.782  10.554   3.772  0.7511  2.6466 -0.0856
53453SOL    HW269328   4.928  10.515   3.777  0.6882  2.3611 -0.4588
53454SOL     OW69329   5.423  10.854   6.644  0.4693  0.1698 -0.3744
53454SOL    HW169330   5.430  10.803   6.725  0.3140 -2.3041 -1.8104
53454SOL    HW269331   5.347  10.817   6.599 -1.3383  3.4915 -0.3970
53455SOL     OW69332   2.886   7.100   9.108  0.0579  0.5887 -0.5558
53455SOL    HW169333   2.807   7.053   9.133  0.0204  1.3654  0.9200
53455SOL    HW269334   2.854   7.176   9.058 -0.2396  1.4862  0.9546
53456SOL     OW69335   9.693   5.914   1.435 -0.2476  0.3628  0.5318
53456SOL    HW169336   9.614   5.881   1.479 -0.7054  1.0845  0.2596
53456SOL    HW269337   9.710   5.998   1.477 -2.0452  2.2143 -2.1609
53457SOL     OW69338   1.188  11.004  12.187  0.2824 -0.0348 -0.6504
53457SOL    HW169339   1.225  10.977  12.271  0.7724 -0.6080 -1.0415
53457SOL    HW269340   1.179  11.099  12.194  0.2202 -0.0880  0.0865
53458SOL     OW69341  10.990   1.961   7.727  0.2056 -0.3062 -0.2407
53458SOL    HW169342  11.006   1.874   7.765 -0.4691 -0.7798 -1.0251
53458SOL    HW269343  11.042   1.962   7.647 -1.0058 -0.5856 -1.0492
53459SOL     OW69344   2.671   3.672   8.638 -0.4636  0.4684 -0.0258
53459SOL    HW169345   2.686   3.584   8.671  0.8576  0.7823  0.2691
53459SOL    HW269346   2.601   3.662   8.573 -3.7458 -0.0579  3.2337
53460SOL     OW69347  12.338   3.547   3.916  0.0780  0.0274 -0.7351
53460SOL    HW169348  12.365   3.638   3.930  0.0038  0.1504 -1.3568
53460SOL    HW269349  12.306   3.545   3.826 -2.2040 -0.0760  0.0351
53461SOL     OW69350   6.316  10.247   7.833 -0.5525 -0.4101 -0.1824
53461SOL    HW169351   6.345  10.185   7.899  0.5638  0.3222  0.0504
53461SOL    HW269352   6.397  10.285   7.799 -1.1962  1.4210  0.1880
53462SOL     OW69353   1.612   2.696   4.569 -0.4008 -0.4470  0.1939
53462SOL    HW169354   1.559   2.705   4.648 -1.0491  1.8261 -0.4252
53462SOL    HW269355   1.566   2.630   4.516 -0.0259 -1.8965  1.5842
53463SOL     OW69356  11.806   9.978   7.800  0.1410 -0.0801  0.1970
53463SOL    HW169357  11.821  10.048   7.736  0.4477  0.9320  1.3285
53463SOL    HW269358  11.889   9.973   7.849 -1.0041  1.2339  2.4278
53464SOL     OW69359   7.919   2.226   1.815 -0.2016 -0.1701  0.0192
53464SOL    HW169360   7.995   2.228   1.873 -1.5563 -0.1385  1.8560
53464SOL    HW269361   7.859   2.291   1.851 -1.3532 -0.5857 -1.0554
53465SOL     OW69362   3.042  12.153   5.085  0.5163 -0.0741  0.1536
53465SOL    HW169363   3.069  12.240   5.114  1.0327  0.0131 -0.5624
53465SOL    HW269364   3.009  12.111   5.165  0.6505  0.6222  0.5918
53466SOL     OW69365  12.065   5.781   7.675  0.5667 -0.0693 -0.1452
53466SOL    HW169366  12.010   5.794   7.598  1.0981  0.4554 -0.4443
53466SOL    HW269367  12.142   5.736   7.642  0.4935 -0.4521  0.2032
53467SOL     OW69368   1.684   1.192   2.433  0.0390 -0.3274 -0.6009
53467SOL    HW169369   1.769   1.168   2.469 -0.5616 -0.3942  0.8783
53467SOL    HW269370   1.655   1.116   2.384  0.0278 -1.0257  0.4592
53468SOL     OW69371   1.634   4.640   5.655 -0.0021  0.3571  0.2885
53468SOL    HW169372   1.689   4.702   5.606  0.1265  0.5802  0.7058
53468SOL    HW269373   1.547   4.650   5.617  0.5341 -1.1613 -1.4754
53469SOL     OW69374   9.695   0.302   8.606  0.1673  0.5770 -0.0655
53469SOL    HW169375   9.655   0.337   8.685 -0.4568  0.3878 -0.2883
53469SOL    HW269376   9.644   0.223   8.587  1.3178 -0.2634  0.2381
53470SOL     OW69377   7.953   4.594   9.048 -0.2627  0.1722 -0.7536
53470SOL    HW169378   8.049   4.591   9.040 -0.1168 -0.9597  0.9259
53470SOL    HW269379   7.922   4.598   8.958  1.3513 -0.8582 -1.3998
53471SOL     OW69380   9.985   9.371   4.179 -0.6011 -0.4878 -0.0455
53471SOL    HW169381  10.056   9.314   4.207 -0.8100 -0.5800  0.2977
53471SOL    HW269382   9.915   9.356   4.243 -0.4850  0.4983  0.3340
53472SOL     OW69383   5.425   7.564  11.428  0.2092 -0.7463  0.0226
53472SOL    HW169384   5.394   7.568  11.338  0.0087  0.9975  0.1363
53472SOL    HW269385   5.345   7.567  11.481  0.3391  3.1902  0.3061
53473SOL     OW69386  10.663   5.829   8.537 -0.0937 -0.1564  0.2194
53473SOL    HW169387  10.605   5.892   8.581  0.7600 -0.0808  1.2827
53473SOL    HW269388  10.703   5.780   8.608  0.5192 -0.7713 -0.5357
53474SOL     OW69389   8.346   9.386   8.687  0.0557 -0.0006  0.2162
53474SOL    HW169390   8.344   9.434   8.770  0.7446 -0.6282  0.6042
53474SOL    HW269391   8.438   9.364   8.674  0.0723  0.7284 -1.0990
53475SOL     OW69392   2.644   8.574   6.016 -0.0509 -0.2063 -0.1754
53475SOL    HW169393   2.664   8.605   5.928  0.1970  1.2710  0.3695
53475SOL    HW269394   2.549   8.572   6.020 -0.0676 -1.0774 -0.7235
53476SOL     OW69395   0.917   8.882   9.439 -0.0299  0.1221  0.0217
53476SOL    HW169396   1.007   8.875   9.406  0.2401 -1.3130  0.9293
53476SOL    HW269397   0.896   8.793   9.470 -1.1463  0.7979  1.3463
53477SOL     OW69398   0.340  12.508   5.353  0.4360  0.0310 -0.3860
53477SOL    HW169399   0.314  12.580   5.297 -0.3919  1.0629  1.2305
53477SOL    HW269400   0.378  12.550   5.430  0.5512 -1.2752  0.3018
53478SOL     OW69401   2.516   8.723   1.673 -0.1326  0.3295 -0.0454
53478SOL    HW169402   2.468   8.741   1.753 -1.3664 -0.2551 -0.6366
53478SOL    HW269403   2.608   8.722   1.700 -0.5685 -0.7122  1.5341
53479SOL     OW69404   7.961   2.377   3.627 -0.5666 -0.5384  0.6514
53479SOL    HW169405   7.963   2.469   3.654  0.3979  0.3552 -2.1502
53479SOL    HW269406   7.955   2.329   3.709  0.3216  1.9650  2.3121
53480SOL     OW69407   1.368   1.257   0.044  0.1117  0.0535 -0.0380
53480SOL    HW169408   1.350   1.255  -0.050 -0.9668  3.4988 -0.0667
53480SOL    HW269409   1.460   1.232   0.052  0.5188  0.6886 -2.1602
53481SOL     OW69410   4.222   0.892   6.401 -0.2484  0.8895  0.2312
53481SOL    HW169411   4.163   0.915   6.473 -0.0850  1.4523  0.1943
53481SOL    HW269412   4.172   0.832   6.346 -0.4775  0.6874  0.6600
53482SOL     OW69413   1.189   6.271   0.811  0.0530 -0.0331 -0.0145
53482SOL    HW169414   1.159   6.245   0.724 -0.0219  0.6520 -0.1969
53482SOL    HW269415   1.113   6.256   0.868  0.2195 -0.8371  0.0086
53483SOL     OW69416   1.905   8.297  12.343  0.5035  0.0597  0.0710
53483SOL    HW169417   1.849   8.243  12.398  1.2975 -0.7985  0.0636
53483SOL    HW269418   1.864   8.294  12.256 -0.0700  0.3955  0.3286
53484SOL     OW69419   2.332   6.167   5.714 -0.0712 -0.2096  0.4261
53484SOL    HW169420   2.274   6.243   5.722 -1.1071 -0.9121 -0.2363
53484SOL    HW269421   2.374   6.179   5.629  1.2085  0.5834  1.1387
53485SOL     OW69422  10.982   8.496   3.828 -0.2393 -0.1318  0.8927
53485SOL    HW169423  10.920   8.499   3.901  0.2481 -0.6137  1.3394
53485SOL    HW269424  11.068   8.508   3.869 -0.0260  0.4577  0.2907
53486SOL     OW69425   7.741   2.508   5.884 -0.1274 -0.1552 -0.1582
53486SOL    HW169426   7.717   2.596   5.856  0.2048 -0.6251 -2.0140
53486SOL    HW269427   7.822   2.488   5.836  0.8695 -0.7785  1.6548
53487SOL     OW69428   8.869   6.426   1.090  0.7078  0.5562 -0.4308
53487SOL    HW169429   8.863   6.420   0.995  0.2750  0.1106 -0.3794
53487SOL    HW269430   8.852   6.337   1.121  3.1849  0.1665 -0.0247
53488SOL     OW69431   3.075  10.315  12.225 -0.0056 -0.2988 -0.3129
53488SOL    HW169432   3.056  10.394  12.174 -0.4475 -1.8526 -2.7151
53488SOL    HW269433   3.168  10.320  12.244  0.1102  0.4869 -1.0328
53489SOL     OW69434   0.694  11.455   3.358  0.4159 -0.4267 -0.0068
53489SOL    HW169435   0.662  11.433   3.445 -2.0306  0.3482 -0.6381
53489SOL    HW269436   0.618  11.491   3.313  1.6497 -0.6807 -2.4396
53490SOL     OW69437  12.583  11.127   9.316  0.1002  0.6464 -0.2824
53490SOL    HW169438  12.513  11.179   9.356 -1.1720  0.2406 -1.8697
53490SOL    HW269439  12.649  11.192   9.290 -0.7106  1.3147 -0.7314
53491SOL     OW69440   8.275   8.744   2.853 -0.4391  0.2840  0.1145
53491SOL    HW169441   8.206   8.788   2.804 -2.4816  0.3646  2.7917
53491SOL    HW269442   8.301   8.807   2.920  0.0157 -0.8300  1.0294
53492SOL     OW69443   8.579  10.049   2.868 -0.0887 -0.1410  0.1692
53492SOL    HW169444   8.521  10.124   2.879 -1.4182 -0.5928 -2.7378
53492SOL    HW269445   8.523   9.981   2.832  1.6044 -1.7054  0.3636
53493SOL     OW69446  10.228   5.979   2.039  0.0303 -0.5953  0.8308
53493SOL    HW169447  10.293   6.048   2.024  0.1536 -1.1514 -1.5531
53493SOL    HW269448  10.234   5.961   2.133  2.6373  0.0601  0.8711
53494SOL     OW69449   5.921   4.596   3.460  0.2991 -0.5670 -0.5142
53494SOL    HW169450   5.857   4.534   3.425 -0.0644 -0.6054  0.2122
53494SOL    HW269451   5.966   4.548   3.529  1.1076 -0.5302 -0.9995
53495SOL     OW69452   4.378   3.330  10.201 -0.3408  0.0221 -0.3985
53495SOL    HW169453   4.337   3.388  10.266 -1.5050 -0.4508 -0.6889
53495SOL    HW269454   4.471   3.353  10.204 -0.4438  0.3776  1.0586
53496SOL     OW69455   0.642   4.995   5.449  0.0629 -0.1339  0.2358
53496SOL    HW169456   0.601   4.996   5.362  0.9389  1.0549 -0.2018
53496SOL    HW269457   0.572   5.018   5.509 -0.9100 -2.4173  0.0569
53497SOL     OW69458   1.999   1.060   3.640 -0.0491  0.0690 -0.1756
53497SOL    HW169459   2.031   1.149   3.625 -2.0293  1.0746  1.1700
53497SOL    HW269460   2.073   1.015   3.681  0.6216  1.4484  0.2022
53498SOL     OW69461   0.409   5.493   5.205 -0.1866  0.6534  0.5198
53498SOL    HW169462   0.328   5.521   5.246 -0.3033 -0.7700  1.3493
53498SOL    HW269463   0.392   5.403   5.177  1.1289  0.2757  0.8450
53499SOL     OW69464   2.228   4.820   7.178  0.6271  0.3630  0.2851
53499SOL    HW169465   2.178   4.869   7.244 -1.4231 -0.4151 -0.6311
53499SOL    HW269466   2.272   4.888   7.127 -1.3143  1.2494 -0.2879
53500SOL     OW69467  10.865   4.074   8.899  0.5601  0.4015 -0.0870
53500SOL    HW169468  10.852   3.980   8.911  0.7753  0.4721  0.7459
53500SOL    HW269469  10.831   4.091   8.812 -2.2491  0.0473  0.8351
53501SOL     OW69470   0.654   6.508   9.668 -0.1306 -0.5335 -0.1105
53501SOL    HW169471   0.744   6.540   9.665 -0.1777 -0.4061 -0.1596
53501SOL    HW269472   0.603   6.583   9.699 -0.4496 -0.1026 -1.6048
53502SOL     OW69473   6.845   0.648   7.442  0.1454  0.4125 -0.3160
53502SOL    HW169474   6.785   0.720   7.427  0.0702  0.7851  1.4784
53502SOL    HW269475   6.838   0.593   7.364 -1.3194  1.2786 -0.8268
53503SOL     OW69476   0.337  10.917  11.849  0.4883  0.7924  0.6059
53503SOL    HW169477   0.277  10.885  11.916  1.5145  0.5512  1.4472
53503SOL    HW269478   0.304  10.881  11.767  0.1100 -0.2459  1.1991
53504SOL     OW69479   5.132   0.375   6.786  0.1335 -0.2832  0.2119
53504SOL    HW169480   5.151   0.463   6.754 -0.2811  0.0482  0.8439
53504SOL    HW269481   5.204   0.355   6.846  0.2137 -0.3632  0.0893
53505SOL     OW69482  11.633  12.254   9.967 -0.2817 -0.1949  0.0073
53505SOL    HW169483  11.552  12.238   9.919  0.4385 -1.3676 -0.8945
53505SOL    HW269484  11.694  12.287   9.900 -0.1269  1.1151  0.7621
53506SOL     OW69485  11.113   5.605   9.545  0.0258 -0.4836 -0.4351
53506SOL    HW169486  11.044   5.552   9.586 -0.0139 -1.9114 -2.1941
53506SOL    HW269487  11.072   5.689   9.527  0.0436  0.2006  2.3079
53507SOL     OW69488   6.144  12.417   0.330  0.1578 -0.3499  0.0761
53507SOL    HW169489   6.097  12.359   0.390  0.8111  0.4530  1.4139
53507SOL    HW269490   6.190  12.478   0.387  0.0012  1.0907 -1.2689
53508SOL     OW69491   9.386   3.578   9.584  0.1677  0.3824 -0.4598
53508SOL    HW169492   9.442   3.651   9.609  0.6429 -0.2876  0.4739
53508SOL    HW269493   9.424   3.502   9.629 -0.7423 -0.3088 -0.8363
53509SOL     OW69494   1.985   7.501   4.424 -0.3096 -0.7473 -0.2718
53509SOL    HW169495   1.970   7.576   4.368 -0.6555 -0.8345 -0.2955
53509SOL    HW269496   1.938   7.520   4.505  2.4936  0.7104  1.1792
53510SOL     OW69497   1.942  11.104   3.292 -0.7643  0.6934 -0.7216
53510SOL    HW169498   1.974  11.030   3.344 -0.6738  0.8523 -0.5456
53510SOL    HW269499   1.859  11.127   3.333  0.0704  1.8571  0.3958
53511SOL     OW69500   5.127  11.692   2.959 -0.5328 -0.0512 -0.2976
53511SOL    HW169501   5.137  11.643   2.878  1.8275  0.8696 -0.6388
53511SOL    HW269502   5.161  11.634   3.027  0.5631  0.3810 -0.4545
53512SOL     OW69503   1.077   9.456   2.711 -0.1210 -0.3952  0.3796
53512SOL    HW169504   1.116   9.493   2.790 -0.4590  1.0858 -0.0969
53512SOL    HW269505   0.983   9.475   2.719 -0.1095  0.1274 -0.5341
53513SOL     OW69506   9.186   8.118   7.430 -0.3123  0.0147 -0.3386
53513SOL    HW169507   9.171   8.045   7.370  2.2359 -1.7822  0.9877
53513SOL    HW269508   9.281   8.119   7.443 -0.4565  2.4266  1.1474
53514SOL     OW69509   4.350   0.940   4.202 -0.0342  0.0759 -0.7659
53514SOL    HW169510   4.266   0.983   4.221 -0.3990 -0.5622 -0.8947
53514SOL    HW269511   4.326   0.849   4.183  0.6268  0.0316 -1.4250
53515SOL     OW69512   7.744   8.863  10.748 -0.0598 -0.5352 -0.1710
53515SOL    HW169513   7.687   8.903  10.814  0.1646 -0.7235  0.1428
53515SOL    HW269514   7.832   8.893  10.771 -0.1640  0.8651 -1.4570
53516SOL     OW69515   3.352   2.919   5.336 -0.0441  0.4299 -0.1442
53516SOL    HW169516   3.284   2.935   5.401  1.9033  4.2716  1.2613
53516SOL    HW269517   3.314   2.949   5.253 -0.3274  1.9459  0.5094
53517SOL     OW69518   0.468   7.803   8.901  0.1226  0.3942  0.3938
53517SOL    HW169519   0.417   7.843   8.972 -1.2006  0.1939 -0.4111
53517SOL    HW269520   0.471   7.710   8.922 -0.9021  0.2194 -0.1582
53518SOL     OW69521  11.872   7.900   8.003  0.2046  0.4667  0.3280
53518SOL    HW169522  11.873   7.884   8.097  1.9395 -1.1782  0.0697
53518SOL    HW269523  11.821   7.827   7.967 -1.2180  1.5612  0.0180
53519SOL     OW69524   1.643  10.686  10.885 -0.0093 -0.5543  0.3901
53519SOL    HW169525   1.605  10.689  10.973  1.4086  0.3830  1.0112
53519SOL    HW269526   1.737  10.694  10.899  0.2534 -0.4546 -1.2191
53520SOL     OW69527  11.633   3.749   6.803 -0.2482  0.1948 -0.2092
53520SOL    HW169528  11.624   3.718   6.713 -0.3631 -1.0089  0.2082
53520SOL    HW269529  11.548   3.789   6.824 -0.2065  0.5154 -0.6381
53521SOL     OW69530   8.292   5.759   0.952 -0.3926 -0.2936 -0.2900
53521SOL    HW169531   8.340   5.680   0.928 -1.5906 -1.0142 -0.3498
53521SOL    HW269532   8.277   5.803   0.868  1.9484  1.0418 -0.1114
53522SOL     OW69533   6.437   2.992   5.023 -0.4535  0.1253 -0.1564
53522SOL    HW169534   6.489   2.941   4.961 -0.4948  2.0886 -1.9065
53522SOL    HW269535   6.431   2.936   5.101  0.5033 -1.9853 -1.5106
53523SOL     OW69536  11.602   4.450  12.454 -0.8255 -0.4317 -0.4170
53523SOL    HW169537  11.555   4.490  12.381  0.0314 -0.1273 -0.8214
53523SOL    HW269538  11.678   4.408  12.413 -0.0837  0.1332  0.3487
53524SOL     OW69539  12.293  12.255  10.409 -0.3781 -0.6933  0.1336
53524SOL    HW169540  12.225  12.236  10.473 -0.0297 -0.3619  0.6100
53524SOL    HW269541  12.354  12.314  10.455  0.0889 -0.7731 -0.3686
53525SOL     OW69542   9.450   7.286  12.392 -0.5704  0.9997 -0.3490
53525SOL    HW169543   9.418   7.353  12.332 -1.3563  2.0707  1.1989
53525SOL    HW269544   9.375   7.229  12.407 -0.3734  0.7228 -0.4194
53526SOL     OW69545   0.957   9.344   7.782 -0.3302  0.0074  0.3311
53526SOL    HW169546   0.945   9.355   7.687 -1.5869  1.2678  0.6115
53526SOL    HW269547   0.976   9.250   7.793  0.8498  0.0157 -1.2480
53527SOL     OW69548  10.532   8.431   9.938  0.1592  0.7500 -0.7549
53527SOL    HW169549  10.582   8.450  10.017 -0.5534  1.5000 -0.4761
53527SOL    HW269550  10.593   8.383   9.883  0.8400  0.6959  0.0254
53528SOL     OW69551   9.845   1.134   2.411 -0.1207  0.2308  0.0035
53528SOL    HW169552   9.838   1.192   2.487 -1.8567 -1.0929  0.9238
53528SOL    HW269553   9.917   1.075   2.434 -0.8163 -0.3411  0.7802
53529SOL     OW69554  11.189   3.403  11.024  0.2210 -0.2537 -0.0520
53529SOL    HW169555  11.206   3.389  10.931  1.5000  0.7533  0.0055
53529SOL    HW269556  11.096   3.385  11.034  0.4211 -2.1980 -1.1578
53530SOL     OW69557   0.210   9.936   6.370  0.1390  0.2021 -0.5295
53530SOL    HW169558   0.240   9.961   6.458  0.9377 -0.8440 -0.4917
53530SOL    HW269559   0.123   9.899   6.384  0.3708 -0.1992 -0.1433
53531SOL     OW69560  10.691   4.697   2.594 -0.3509 -0.3383  0.1585
53531SOL    HW169561  10.595   4.703   2.595 -0.3380  0.1388 -0.5989
53531SOL    HW269562  10.713   4.645   2.671 -1.2003 -0.1545  0.5313
53532SOL     OW69563   0.345   6.659   5.053  0.1067  0.4257  0.3908
53532SOL    HW169564   0.338   6.631   4.962 -2.9753  1.2745  0.2735
53532SOL    HW269565   0.367   6.752   5.047 -1.0688  0.7216  0.4458
53533SOL     OW69566   8.580  11.087  10.896 -0.5225 -0.0619  0.0925
53533SOL    HW169567   8.522  11.161  10.879  1.7729  1.6129 -0.8781
53533SOL    HW269568   8.659  11.126  10.932  0.5507 -2.1143  0.0980
53534SOL     OW69569   7.282   8.149  11.610  0.3331 -0.0341  0.9015
53534SOL    HW169570   7.342   8.153  11.536  0.5344 -0.1820  1.0563
53534SOL    HW269571   7.286   8.237  11.648 -1.5549  0.8110 -0.6514
53535SOL     OW69572   8.466  10.496   3.405  0.1420  0.0959  0.2973
53535SOL    HW169573   8.390  10.477   3.350  1.2167 -2.3843 -0.4677
53535SOL    HW269574   8.429  10.522   3.489 -1.6807 -3.1753  0.6671
53536SOL     OW69575   0.065   9.279   9.789 -0.0027 -0.1645  0.3383
53536SOL    HW169576   0.159   9.280   9.775  0.1038 -0.8007  0.9535
53536SOL    HW269577   0.036   9.368   9.769  0.8893  0.3414  1.2613
53537SOL     OW69578   1.525   2.741   5.462  0.1408 -0.0303  0.2027
53537SOL    HW169579   1.496   2.698   5.543 -0.1696  0.3345  0.2902
53537SOL    HW269580   1.462   2.813   5.450 -0.8570 -1.1027 -1.2901
53538SOL     OW69581   5.838   9.803   7.977 -0.0645 -0.0866  0.2036
53538SOL    HW169582   5.850   9.875   8.038  0.8757 -1.0504  1.2232
53538SOL    HW269583   5.884   9.831   7.897  1.7320 -0.1820  1.1458
53539SOL     OW69584   0.208   8.997   9.079  0.5431  0.0107  0.2276
53539SOL    HW169585   0.194   9.004   8.985  1.4127 -0.8717  0.0202
53539SOL    HW269586   0.162   9.073   9.116  0.5748  0.6088 -0.9352
53540SOL     OW69587   6.729   6.508  11.820  0.2629  0.0822 -0.2332
53540SOL    HW169588   6.678   6.454  11.758 -1.2297 -0.2017  1.1754
53540SOL    HW269589   6.820   6.484  11.803 -0.1169 -0.1293 -2.1692
53541SOL     OW69590   5.880   6.137   9.741  0.0121 -0.1425 -0.3122
53541SOL    HW169591   5.916   6.226   9.744 -0.2070 -0.0767  0.9748
53541SOL    HW269592   5.792   6.148   9.704  0.3694  0.0258 -1.1322
53542SOL     OW69593   8.807   9.604   7.376 -1.0498 -0.0717  0.6585
53542SOL    HW169594   8.791   9.689   7.417 -0.3115 -0.1178  1.0695
53542SOL    HW269595   8.891   9.575   7.413 -0.3158 -0.0858 -0.9100
53543SOL     OW69596   7.654   7.452  12.203 -0.2268 -0.0292 -0.3636
53543SOL    HW169597   7.607   7.372  12.227 -0.0895  0.1047  0.3793
53543SOL    HW269598   7.703   7.476  12.283  0.0246  0.5873 -0.6948
53544SOL     OW69599   8.224  12.077  12.289 -0.4725  0.4964  0.1304
53544SOL    HW169600   8.196  12.157  12.334  0.0816  1.7858 -1.7226
53544SOL    HW269601   8.157  12.062  12.223  0.1895  0.2441 -0.4892
53545SOL     OW69602   7.853   6.508   5.284  0.1249  0.2482 -0.2336
53545SOL    HW169603   7.787   6.553   5.232  0.2409  0.3445 -0.2971
53545SOL    HW269604   7.897   6.450   5.222  1.3371  1.5207 -0.6091
53546SOL     OW69605   7.148  11.245  10.429  0.6092 -0.3405 -0.8402
53546SOL    HW169606   7.157  11.237  10.524  0.3824  3.9314 -0.2599
53546SOL    HW269607   7.237  11.234  10.395  1.3329  1.4789  0.3201
53547SOL     OW69608   4.396   5.354   8.117 -0.2129  0.2424 -0.3816
53547SOL    HW169609   4.406   5.307   8.200  0.2523  0.9577 -0.0262
53547SOL    HW269610   4.371   5.442   8.143 -0.5428  0.3390 -1.0279
53548SOL     OW69611   7.799  10.137   7.984 -0.5713  0.3652  0.7354
53548SOL    HW169612   7.770  10.131   7.893  0.5774  2.4853  0.1885
53548SOL    HW269613   7.890  10.109   7.982 -1.0238 -1.3045  1.5837
53549SOL     OW69614   8.385  12.340  11.122 -0.3673  0.9453  0.3539
53549SOL    HW169615   8.477  12.366  11.108 -0.2784  0.3419 -0.2831
53549SOL    HW269616   8.390  12.266  11.183 -0.5767  2.0442  1.7427
53550SOL     OW69617  12.016   9.475   5.289  0.6354  0.1091  0.0743
53550SOL    HW169618  12.050   9.449   5.203  1.0122  1.8031 -0.3280
53550SOL    HW269619  12.086   9.527   5.328  0.6905 -1.0917  1.6723
53551SOL     OW69620   6.170  11.240   8.793  0.2539  0.1785 -0.1022
53551SOL    HW169621   6.235  11.222   8.725  0.3147 -0.7470  0.1816
53551SOL    HW269622   6.148  11.332   8.782  1.4065  0.4305 -0.3883
53552SOL     OW69623   9.501  10.156   4.972  0.7382 -0.1828 -0.0400
53552SOL    HW169624   9.571  10.092   4.984  1.1056  0.0353 -0.9591
53552SOL    HW269625   9.480  10.153   4.879 -1.1033 -0.8760  0.3410
53553SOL     OW69626   5.045  11.038   5.531 -0.1972  0.4194  0.0426
53553SOL    HW169627   5.112  11.031   5.599  0.3109 -0.0562 -0.4878
53553SOL    HW269628   5.070  11.115   5.480 -0.4601  0.6565  0.2706
53554SOL     OW69629  11.742   9.872   8.974  0.3014  0.1613 -0.0837
53554SOL    HW169630  11.800   9.898   9.045  1.0280  1.2805 -1.0434
53554SOL    HW269631  11.654   9.882   9.008  0.6329  1.2361  0.4715
53555SOL     OW69632   2.813   2.537  11.620  0.8511 -0.1587 -0.6077
53555SOL    HW169633   2.727   2.495  11.614  1.1462 -0.6216 -1.8467
53555SOL    HW269634   2.854   2.496  11.696 -0.3388  0.7132  0.5632
53556SOL     OW69635   2.690   9.772   1.518  0.0673  0.0173  0.0767
53556SOL    HW169636   2.684   9.697   1.578  1.1380 -0.1156  0.0384
53556SOL    HW269637   2.725   9.843   1.572 -1.0971  0.5477  0.1523
53557SOL     OW69638   1.327   3.422   6.817 -0.2942 -0.4055  0.2252
53557SOL    HW169639   1.280   3.425   6.900 -0.8163 -1.2492 -0.0150
53557SOL    HW269640   1.338   3.328   6.800  1.1048 -0.2244  0.0545
53558SOL     OW69641   0.369   9.465   2.597  0.1775 -0.0434 -0.3296
53558SOL    HW169642   0.299   9.400   2.584  0.3358 -0.7919  2.0093
53558SOL    HW269643   0.438   9.416   2.642  1.1865  1.2780 -0.4087
53559SOL     OW69644   3.450   9.636   8.110 -0.1454 -0.7101  0.0809
53559SOL    HW169645   3.355   9.626   8.121 -0.1368 -1.7521 -0.5941
53559SOL    HW269646   3.486   9.554   8.143  0.6226  0.0994  1.3143
53560SOL     OW69647   7.017   4.540   9.523  0.6201 -0.9009  0.0822
53560SOL    HW169648   7.112   4.526   9.520  0.4235 -2.4191 -0.0126
53560SOL    HW269649   6.989   4.531   9.432  0.6012  1.5715 -0.2101
53561SOL     OW69650   6.260   3.120   9.535  0.0720  0.2427 -0.3194
53561SOL    HW169651   6.243   3.028   9.514 -0.5339  0.4234 -0.6171
53561SOL    HW269652   6.352   3.133   9.512  0.0125 -0.1478 -0.7827
53562SOL     OW69653   6.139   4.630   4.887 -0.0997 -0.3381 -0.4089
53562SOL    HW169654   6.205   4.561   4.891 -0.2002 -0.3998  0.3659
53562SOL    HW269655   6.070   4.595   4.831  1.2741  0.4081 -2.7327
53563SOL     OW69656   4.128   3.496   5.070  0.3835  0.0722  0.0701
53563SOL    HW169657   4.180   3.426   5.109 -0.6314  0.3515  2.0371
53563SOL    HW269658   4.065   3.451   5.014  2.0352 -0.3248 -1.5525
53564SOL     OW69659  10.153   5.996   6.343 -0.0246 -0.1122 -0.5666
53564SOL    HW169660  10.160   6.032   6.254  0.5421 -0.5645 -0.7084
53564SOL    HW269661  10.201   6.058   6.398 -1.7742  1.0731 -0.2955
53565SOL     OW69662  12.444   3.912  10.363 -0.5113 -0.1664  0.1429
53565SOL    HW169663  12.531   3.884  10.389 -0.1353  1.6854  1.0189
53565SOL    HW269664  12.385   3.863  10.421 -0.0175 -0.6269  0.2706
53566SOL     OW69665   3.621   2.469   5.358 -0.1195  0.3353  0.1222
53566SOL    HW169666   3.574   2.387   5.374  0.0060  0.0921 -0.6801
53566SOL    HW269667   3.553   2.535   5.348 -0.2383  0.2436  0.3389
53567SOL     OW69668   7.872   1.465  11.802 -0.0544  0.6935 -0.0222
53567SOL    HW169669   7.946   1.525  11.800  0.3717  0.2617  1.5568
53567SOL    HW269670   7.801   1.514  11.844 -0.3606  0.7576 -0.5931
53568SOL     OW69671   2.272   8.706   9.574  0.1953  0.6787  0.3509
53568SOL    HW169672   2.266   8.734   9.483 -0.7983  1.3124  0.5926
53568SOL    HW269673   2.191   8.656   9.588  1.1850 -1.0084  0.3815
53569SOL     OW69674   8.964   7.990   0.453  0.2492  0.0702 -0.0048
53569SOL    HW169675   8.908   7.982   0.530 -0.5567 -1.6343 -0.7096
53569SOL    HW269676   8.924   8.059   0.401 -2.5983 -2.4583 -1.4939
53570SOL     OW69677   7.140   8.826   2.558 -0.3346  0.7821 -0.0236
53570SOL    HW169678   7.146   8.783   2.642 -0.0174 -1.4305 -1.1143
53570SOL    HW269679   7.165   8.759   2.494  0.0066  2.5330 -1.8439
53571SOL     OW69680   2.013   5.461   6.358 -0.3006  0.3164  0.1996
53571SOL    HW169681   2.104   5.452   6.332  0.2420  1.8962  1.4201
53571SOL    HW269682   2.017   5.497   6.447 -2.0864 -1.6685  1.1957
53572SOL     OW69683  10.974  11.534   1.342  0.3712  0.0356 -0.1748
53572SOL    HW169684  10.922  11.577   1.274 -0.9912 -1.0285  0.1432
53572SOL    HW269685  11.003  11.452   1.302 -1.9633 -1.4955  0.9738
53573SOL     OW69686   8.187   8.575   5.858  0.0199  0.7528  0.1349
53573SOL    HW169687   8.163   8.566   5.765  0.6287 -0.4100  0.0789
53573SOL    HW269688   8.112   8.538   5.905  0.1030  0.5065  0.0755
53574SOL     OW69689   5.656   5.096   9.349 -0.2235  0.0276  0.4903
53574SOL    HW169690   5.744   5.105   9.313 -0.4313 -1.3149 -0.4420
53574SOL    HW269691   5.599   5.095   9.272 -1.3131  2.8610  1.1259
53575SOL     OW69692  11.845   7.096   4.342  0.0079  0.3381 -0.2086
53575SOL    HW169693  11.822   7.070   4.253 -4.4446 -0.2190  0.8902
53575SOL    HW269694  11.792   7.173   4.359 -1.6517 -1.2943  2.8419
53576SOL     OW69695   1.850  11.228   8.173  0.2117  0.6384  0.3026
53576SOL    HW169696   1.842  11.255   8.082  0.4191  2.9013  0.8801
53576SOL    HW269697   1.888  11.140   8.169 -1.9413 -0.2899 -1.7965
53577SOL     OW69698  10.280   3.686   5.656  0.5568  0.2610  0.7108
53577SOL    HW169699  10.332   3.713   5.732  0.5710 -3.3925  2.1851
53577SOL    HW269700  10.311   3.598   5.636 -1.3628  0.0689 -1.8726
53578SOL     OW69701   7.222   1.454   0.833  0.1225 -0.9798 -0.4013
53578SOL    HW169702   7.153   1.419   0.776  0.1750  1.3248 -1.9573
53578SOL    HW269703   7.175   1.509   0.896  0.4335 -0.2530 -0.7978
53579SOL     OW69704   5.195   5.674   0.987 -0.0581 -0.1836  0.0021
53579SOL    HW169705   5.261   5.744   0.988  1.5684 -1.6549  0.5981
53579SOL    HW269706   5.170   5.667   0.895 -2.5167  3.1100  0.2408
53580SOL     OW69707   4.157  12.557   2.372 -0.2416 -0.1523  0.4583
53580SOL    HW169708   4.251  12.557   2.391  0.9083 -2.2296 -3.8506
53580SOL    HW269709   4.123  12.480   2.418  1.0812 -1.5385 -0.7512
53581SOL     OW69710   7.788   4.704   5.316  0.3482  0.3644  0.4001
53581SOL    HW169711   7.776   4.771   5.249  1.2601  0.3339  0.1949
53581SOL    HW269712   7.882   4.704   5.334  0.7957 -2.5046 -1.3485
53582SOL     OW69713  10.987   2.581  10.519 -0.3584  0.6026 -0.2984
53582SOL    HW169714  10.945   2.545  10.441 -0.2072  0.2245 -0.2069
53582SOL    HW269715  10.933   2.551  10.592 -0.8310  1.4343 -0.2923
53583SOL     OW69716   5.373  10.778  11.703 -0.0806  0.5358 -0.3798
53583SOL    HW169717   5.289  10.737  11.721  0.1809  0.5731  0.9956
53583SOL    HW269718   5.358  10.871  11.719  0.2014  0.5557 -0.2246
53584SOL     OW69719   9.461   5.072  12.575  0.1570  0.2480  0.6184
53584SOL    HW169720   9.503   5.079  12.489 -0.5440 -1.7926  0.0413
53584SOL    HW269721   9.368   5.070  12.556 -0.0083 -0.2636  1.4106
53585SOL     OW69722  10.181  10.866   7.255  0.7433 -0.0353  0.3309
53585SOL    HW169723  10.184  10.832   7.166  1.5051 -1.2337  0.7916
53585SOL    HW269724  10.266  10.909   7.268  1.1404 -0.9413  0.8652
53586SOL     OW69725   5.387   7.377   0.434 -0.0344 -0.5777 -0.0381
53586SOL    HW169726   5.389   7.281   0.430  0.1448 -0.5702 -0.1088
53586SOL    HW269727   5.294   7.399   0.424  0.1047 -0.6631 -1.7374
53587SOL     OW69728   7.452   2.334   8.688 -0.0984  0.0871  0.0158
53587SOL    HW169729   7.545   2.347   8.705  0.2123 -0.4766 -1.1404
53587SOL    HW269730   7.414   2.422   8.693  0.8467  0.6132 -1.4372
53588SOL     OW69731   4.960   0.354   4.460  0.1928  0.2298  1.3627
53588SOL    HW169732   4.930   0.440   4.429 -2.7696 -2.0234 -3.1081
53588SOL    HW269733   5.032   0.331   4.402 -1.8063 -1.8640 -0.4568
53589SOL     OW69734  12.249   6.694   1.530 -0.1369  0.1332  0.5148
53589SOL    HW169735  12.174   6.645   1.562 -0.1491  0.4151  0.9250
53589SOL    HW269736  12.317   6.628   1.516  0.1567  0.0875  1.9477
53590SOL     OW69737  10.273   8.865   0.189 -0.0178  0.3242  0.0866
53590SOL    HW169738  10.270   8.775   0.156  0.5386  0.2642  0.1901
53590SOL    HW269739  10.241   8.859   0.278  3.4079 -0.4188  1.4356
53591SOL     OW69740   6.210   6.127   0.243 -0.0408  0.2500 -0.0271
53591SOL    HW169741   6.270   6.053   0.239 -0.6534 -0.2306 -0.7127
53591SOL    HW269742   6.191   6.138   0.336  1.5254  0.7719  0.2470
53592SOL     OW69743  11.472   6.123   1.961 -0.4700  0.0315 -0.3674
53592SOL    HW169744  11.543   6.064   1.936  0.2599  1.3406 -1.5530
53592SOL    HW269745  11.399   6.065   1.983  0.0769 -1.3151 -1.8618
53593SOL     OW69746   9.416   5.603   2.953  0.0618  0.6800  0.3779
53593SOL    HW169747   9.358   5.559   3.016  3.1595  0.5125  3.3800
53593SOL    HW269748   9.417   5.694   2.982  1.0686  0.7208  0.2346
53594SOL     OW69749   8.715  12.038   8.243  0.1691 -0.0564 -0.6248
53594SOL    HW169750   8.698  12.124   8.282  2.0972  0.6021 -1.1021
53594SOL    HW269751   8.636  11.987   8.261 -1.0751  1.8427 -0.4360
53595SOL     OW69752  10.192   0.839   1.841 -0.5843 -0.8171 -0.0302
53595SOL    HW169753  10.134   0.914   1.830  1.2687  0.7461  0.2643
53595SOL    HW269754  10.147   0.784   1.905 -1.5438  0.5481  0.5375
53596SOL     OW69755   2.638   2.631  12.082  0.4365  0.2921 -0.0741
53596SOL    HW169756   2.639   2.675  12.166  2.0032 -0.8716  0.5867
53596SOL    HW269757   2.615   2.698  12.019 -0.0725  1.3512  1.2086
53597SOL     OW69758   7.616  11.959   6.552  0.0647 -0.0974  0.1696
53597SOL    HW169759   7.533  11.969   6.598 -0.0009  0.5754 -0.0740
53597SOL    HW269760   7.602  12.003   6.468 -0.1632 -2.2184 -0.9634
53598SOL     OW69761   6.360   2.745   2.729 -0.0519  0.2664  0.3503
53598SOL    HW169762   6.356   2.716   2.820 -0.3361  0.6548  0.4633
53598SOL    HW269763   6.270   2.772   2.708 -0.2330 -0.7904 -0.3732
53599SOL     OW69764   2.267   9.683  10.524  0.2011 -0.4539 -0.2162
53599SOL    HW169765   2.251   9.696  10.431 -1.0612 -1.0169 -0.1031
53599SOL    HW269766   2.252   9.769  10.564  4.0620  0.7256 -0.8447
53600SOL     OW69767  10.263   4.260   5.734  0.2719  0.0555 -0.4746
53600SOL    HW169768  10.333   4.194   5.733  0.8010  0.6041 -1.2581
53600SOL    HW269769  10.282   4.313   5.811 -1.0299 -1.5654  1.0596
53601SOL     OW69770   0.156   8.975   1.426 -0.4087 -0.2089 -0.1308
53601SOL    HW169771   0.248   8.963   1.403 -0.7683 -2.2227 -0.7210
53601SOL    HW269772   0.152   8.957   1.520 -0.1801 -0.0290 -0.0864
53602SOL     OW69773   8.762   2.589   3.755 -0.2662  0.4967  0.1350
53602SOL    HW169774   8.849   2.600   3.792  0.3754  1.7790 -1.6230
53602SOL    HW269775   8.703   2.591   3.831  1.2489 -1.2966  1.4335
53603SOL     OW69776  11.142   0.011  11.238 -0.2767 -0.2435 -0.2415
53603SOL    HW169777  11.162  -0.077  11.206 -0.9157 -0.3266 -0.4222
53603SOL    HW269778  11.191   0.018  11.321 -0.9434 -1.1126  0.2378
53604SOL     OW69779   4.300   2.232   4.319 -0.3475 -0.4314  0.4001
53604SOL    HW169780   4.391   2.216   4.346 -0.6584 -0.2489  1.5964
53604SOL    HW269781   4.292   2.186   4.235  1.3437  0.9406 -0.5888
53605SOL     OW69782   0.923   3.979   3.196 -0.1839 -0.5635 -0.4495
53605SOL    HW169783   0.867   4.036   3.145  0.4661 -0.3668 -0.9611
53605SOL    HW269784   1.009   4.022   3.195 -0.1922 -0.4727  0.9474
53606SOL     OW69785   1.595   4.825   5.088  0.3521 -0.4010  0.0056
53606SOL    HW169786   1.586   4.756   5.153  0.7674 -1.1453 -0.7173
53606SOL    HW269787   1.690   4.837   5.079  0.5250 -2.9964 -3.2011
53607SOL     OW69788   0.847   4.447   2.352 -0.2710  0.3767 -0.1045
53607SOL    HW169789   0.827   4.367   2.305 -0.5132  1.6452 -2.2865
53607SOL    HW269790   0.939   4.465   2.332 -0.1155  0.4739  0.6566
53608SOL     OW69791   6.427   4.739   0.287 -0.7475 -0.2682 -0.3000
53608SOL    HW169792   6.460   4.793   0.358 -2.1546 -0.6076  0.6388
53608SOL    HW269793   6.394   4.801   0.222 -1.8099  0.0376  0.5093
53609SOL     OW69794   7.434   0.892   4.149  0.0511 -0.7478  0.9521
53609SOL    HW169795   7.497   0.919   4.083  1.1615  2.1225  2.9882
53609SOL    HW269796   7.482   0.897   4.232 -2.5776  0.8537  2.5444
53610SOL     OW69797   6.221   7.683   4.381 -0.1706  0.0480 -0.1572
53610SOL    HW169798   6.189   7.655   4.295 -1.1002  0.4478  0.0455
53610SOL    HW269799   6.191   7.616   4.441  2.1384 -1.2843 -0.3551
53611SOL     OW69800  10.710   5.852   6.774 -0.1788 -0.1346  0.9697
53611SOL    HW169801  10.683   5.812   6.692 -1.4706  0.8789  0.8555
53611SOL    HW269802  10.747   5.780   6.826  2.3762 -0.4775 -1.1340
53612SOL     OW69803   2.139   7.409   4.638 -0.7477  0.2855 -0.2038
53612SOL    HW169804   2.114   7.429   4.548 -0.4009 -0.2608 -0.4268
53612SOL    HW269805   2.089   7.331   4.661  0.4752 -0.6327 -0.5484
53613SOL     OW69806   1.827  12.377   4.611 -0.4355 -0.2196 -0.1524
53613SOL    HW169807   1.803  12.335   4.529  0.3318 -1.3327  0.1747
53613SOL    HW269808   1.871  12.458   4.585  1.0436 -1.2127 -0.9022
53614SOL     OW69809   4.678  10.016   3.275  0.1323 -0.3337  0.5828
53614SOL    HW169810   4.729   9.956   3.329 -2.7163 -2.1265  1.4810
53614SOL    HW269811   4.633   9.960   3.212 -2.5423  0.7835  1.3749
53615SOL     OW69812   1.252   7.304   2.495 -0.3485  0.3212 -0.2022
53615SOL    HW169813   1.197   7.339   2.425 -0.5702  1.9636  0.7722
53615SOL    HW269814   1.316   7.373   2.513 -1.9336  1.1276  3.0443
53616SOL     OW69815   1.126   0.712   9.667 -0.0586  0.2095 -0.7456
53616SOL    HW169816   1.038   0.697   9.633 -0.5186 -1.7300  1.0741
53616SOL    HW269817   1.126   0.804   9.693 -2.0922 -0.0801  0.5428
53617SOL     OW69818   8.560   9.723   1.421 -0.7664  0.1290 -0.6315
53617SOL    HW169819   8.573   9.791   1.355 -1.7068 -1.5744 -2.6983
53617SOL    HW269820   8.513   9.653   1.375 -2.3678 -0.7682  2.1249
53618SOL     OW69821   8.155   8.965   0.664 -0.4911  0.0027 -0.2135
53618SOL    HW169822   8.125   8.880   0.633 -2.3789  0.0738  1.2178
53618SOL    HW269823   8.117   8.973   0.752  0.0764  2.0906 -0.1002
53619SOL     OW69824  10.086   8.704   4.442  0.1075 -0.0288  0.1171
53619SOL    HW169825  10.042   8.669   4.364 -0.2777  1.3386 -0.2924
53619SOL    HW269826  10.119   8.789   4.416  0.7066  0.0911  1.2134
53620SOL     OW69827   3.528   9.342   9.068 -0.1679 -0.1766 -0.1643
53620SOL    HW169828   3.617   9.369   9.090 -0.4429  0.5835  0.0458
53620SOL    HW269829   3.528   9.247   9.078  0.9455 -0.3220 -1.3181
53621SOL     OW69830  10.429  11.915   2.453  0.6347 -0.4558 -0.1988
53621SOL    HW169831  10.453  11.998   2.494 -0.0747 -0.4837  0.2874
53621SOL    HW269832  10.416  11.937   2.361 -0.7267  0.2372  0.1278
53622SOL     OW69833   5.804  11.752  12.492  0.3149 -0.2618  0.3258
53622SOL    HW169834   5.770  11.667  12.522  0.4164 -0.5805 -0.4326
53622SOL    HW269835   5.899  11.743  12.498  0.5291 -1.4882 -2.9500
53623SOL     OW69836   5.085  10.197   4.417  0.0510  0.1541  0.9361
53623SOL    HW169837   5.154  10.143   4.457 -0.1207  0.6608  1.9527
53623SOL    HW269838   5.132  10.253   4.355  0.3832 -0.3753  0.7045
53624SOL     OW69839   3.141  11.782   3.000 -0.2632 -0.2160  0.5076
53624SOL    HW169840   3.156  11.767   2.907 -1.2444  1.2496  0.0861
53624SOL    HW269841   3.169  11.873   3.015  2.6401 -1.2469  2.3037
53625SOL     OW69842  12.389   4.886   5.661  0.4642 -0.0038 -0.1238
53625SOL    HW169843  12.354   4.821   5.722  1.0009  1.1822  1.5191
53625SOL    HW269844  12.484   4.878   5.671  0.5552  2.2800  1.5715
53626SOL     OW69845   6.058   0.559   3.343  0.2408  0.0908  0.4595
53626SOL    HW169846   6.140   0.535   3.300 -0.6484  1.2754 -2.1766
53626SOL    HW269847   6.008   0.478   3.346 -0.5942  0.2649 -3.2381
53627SOL     OW69848   3.186   6.909   9.970  0.0327 -0.0225 -0.6415
53627SOL    HW169849   3.125   6.892   9.899  0.9518  0.8310 -1.6635
53627SOL    HW269850   3.203   7.003   9.966  0.5536 -0.0560  0.3362
53628SOL     OW69851   8.883   1.643   0.225 -0.0100 -0.2770  0.2605
53628SOL    HW169852   8.850   1.732   0.241 -0.7163 -0.4229 -0.3370
53628SOL    HW269853   8.978   1.654   0.218 -0.2873  1.1602 -4.0531
53629SOL     OW69854   0.723   3.239   9.145 -0.0670 -0.0173  0.7766
53629SOL    HW169855   0.802   3.272   9.103 -0.0463 -1.8432 -0.7485
53629SOL    HW269856   0.750   3.219   9.235  1.1502 -0.4124  0.3390
53630SOL     OW69857   2.848   1.933  12.054  0.0783 -0.0136  0.0113
53630SOL    HW169858   2.779   1.875  12.021 -0.8559  0.8578  0.3476
53630SOL    HW269859   2.923   1.918  11.997 -0.6294 -0.4644 -0.8143
53631SOL     OW69860  10.644   5.809   5.126 -0.2654 -0.1419 -0.5598
53631SOL    HW169861  10.558   5.799   5.086 -0.2244  0.1185 -0.7170
53631SOL    HW269862  10.673   5.720   5.143 -0.7867 -0.2093 -0.0239
53632SOL     OW69863   5.144   2.323   5.183  0.5000 -0.0594 -0.3807
53632SOL    HW169864   5.101   2.387   5.126  0.5428  0.0460 -0.2941
53632SOL    HW269865   5.169   2.252   5.124 -1.8267 -1.2033 -0.1018
53633SOL     OW69866   3.524   7.560   6.680 -0.3606  0.3894  0.2510
53633SOL    HW169867   3.482   7.541   6.764 -1.8919 -2.1937 -0.9720
53633SOL    HW269868   3.462   7.618   6.635 -2.1647 -2.3525 -1.0238
53634SOL     OW69869   4.864  11.272   7.366  0.9501  0.3568 -0.6873
53634SOL    HW169870   4.868  11.238   7.276  3.1692 -0.8815 -0.1815
53634SOL    HW269871   4.878  11.366   7.356 -3.3055  1.1073 -1.9338
53635SOL     OW69872   1.932   8.315  11.678  0.3098  0.2823 -0.2264
53635SOL    HW169873   1.951   8.409  11.688 -1.4695  0.9069 -1.9897
53635SOL    HW269874   1.840   8.312  11.652 -0.0271 -2.0678  0.9792
53636SOL     OW69875   1.438   2.181   0.114  0.7422  0.3952 -0.4919
53636SOL    HW169876   1.354   2.181   0.068  0.2446  2.1646  0.3310
53636SOL    HW269877   1.430   2.111   0.179  0.5715 -0.5618 -1.5104
53637SOL     OW69878   5.945   9.626   3.910  0.0122  0.0069  0.7863
53637SOL    HW169879   5.858   9.665   3.915  0.5223  1.6343 -1.5635
53637SOL    HW269880   5.989   9.673   3.840  2.5349 -1.3340  1.3379
53638SOL     OW69881   3.800   3.773  12.249 -0.5693  0.4940 -0.5208
53638SOL    HW169882   3.836   3.797  12.164  0.4256 -0.4546 -0.4028
53638SOL    HW269883   3.720   3.725  12.229 -0.4237  0.4129 -0.9268
53639SOL     OW69884   7.600   4.157   6.802 -0.1025 -0.2944  0.6820
53639SOL    HW169885   7.627   4.103   6.727  0.8558  0.0559  0.7549
53639SOL    HW269886   7.643   4.116   6.877 -2.5010 -1.7303  1.3716
53640SOL     OW69887  12.576   9.682   8.583 -0.0720  0.3592 -0.2254
53640SOL    HW169888  12.537   9.768   8.566 -0.6311  0.3211  0.7446
53640SOL    HW269889  12.503   9.621   8.572  0.2973  0.0167 -0.7948
53641SOL     OW69890   7.708   1.522   3.959  0.4233 -0.1817  0.2394
53641SOL    HW169891   7.794   1.551   3.929  0.3266  0.5078  0.6292
53641SOL    HW269892   7.649   1.594   3.936 -0.2496 -1.0696 -0.9717
53642SOL     OW69893   9.515   5.235   9.135  0.2014  0.7220 -0.7538
53642SOL    HW169894   9.445   5.248   9.071 -0.4591 -1.0013 -0.4262
53642SOL    HW269895   9.520   5.318   9.182 -1.4603  0.9596 -0.9594
53643SOL     OW69896   3.731   7.800   1.021  0.3473  0.5652 -0.5776
53643SOL    HW169897   3.707   7.853   1.097 -0.5829  1.3720 -1.4066
53643SOL    HW269898   3.650   7.757   0.994  0.4640  0.9615 -1.6197
53644SOL     OW69899  10.253   9.032  10.696  0.1734  0.1006 -0.1043
53644SOL    HW169900  10.192   9.058  10.765  0.3235  0.1915 -0.0054
53644SOL    HW269901  10.339   9.057  10.729  0.3399 -0.6386  0.0552
53645SOL     OW69902   8.287   5.904   5.927  0.3214  0.0881  0.1167
53645SOL    HW169903   8.275   5.828   5.984 -3.6605 -0.4657 -1.1483
53645SOL    HW269904   8.239   5.975   5.971 -1.9461 -0.0876 -1.8912
53646SOL     OW69905   3.935   5.373  10.912  0.6157  0.3307  0.1772
53646SOL    HW169906   3.956   5.461  10.944 -0.5154  0.3356  0.9792
53646SOL    HW269907   4.018   5.338  10.881  0.7325  2.4850 -2.2134
53647SOL     OW69908   2.967   0.178   4.519  0.2923  0.2151  0.0973
53647SOL    HW169909   2.950   0.154   4.611  0.4242  3.2448  1.0339
53647SOL    HW269910   2.893   0.234   4.495  0.9942  0.6395 -1.1686
53648SOL     OW69911   6.130   7.273   0.430  0.4956  0.4055 -0.0047
53648SOL    HW169912   6.224   7.288   0.419  0.5326  0.2301  0.0697
53648SOL    HW269913   6.091   7.360   0.427  0.4901  0.3815 -1.5666
53649SOL     OW69914   3.244   1.975   8.926  0.5902  0.0900 -0.1237
53649SOL    HW169915   3.321   1.979   8.982  0.6630  0.8832 -0.2717
53649SOL    HW269916   3.191   1.904   8.963  0.4868  0.7991  1.1321
53650SOL     OW69917   0.440   5.942   6.820 -0.4502  0.0727 -0.4341
53650SOL    HW169918   0.433   5.902   6.734 -0.0807 -0.4923 -0.2059
53650SOL    HW269919   0.398   5.879   6.879  0.6652 -0.2656  0.0122
53651SOL     OW69920   0.859  12.516   3.822 -0.0122  0.2537  0.0975
53651SOL    HW169921   0.850  12.558   3.737 -0.6894 -0.6645 -0.3010
53651SOL    HW269922   0.940  12.466   3.815 -2.1416 -3.3838 -1.6756
53652SOL     OW69923  11.041   6.936   1.149 -0.4429 -0.2611 -0.1241
53652SOL    HW169924  11.103   6.938   1.076 -0.6796  1.9184 -0.3260
53652SOL    HW269925  10.987   6.859   1.132 -0.8127  0.4578 -2.5664
53653SOL     OW69926   7.867   9.916   6.897 -0.2792  0.5336  0.3509
53653SOL    HW169927   7.894   9.875   6.815 -0.7169  0.1009  0.4232
53653SOL    HW269928   7.903  10.005   6.892  1.3161 -0.0579  0.5149
53654SOL     OW69929  10.460   4.892  10.503  0.8043  0.1929 -0.3533
53654SOL    HW169930  10.470   4.970  10.556  1.2536  0.4307 -0.7808
53654SOL    HW269931  10.444   4.822  10.566  1.2443  0.4832  0.0848
53655SOL     OW69932   1.539  10.311   3.691  0.2502  1.0490  0.0212
53655SOL    HW169933   1.589  10.265   3.759 -1.8109 -2.6579 -0.6944
53655SOL    HW269934   1.460  10.342   3.735  0.4184  1.5943 -0.0520
53656SOL     OW69935   3.532   3.229   5.882 -0.1922  0.6371 -0.1227
53656SOL    HW169936   3.437   3.227   5.892 -0.1402 -0.3648  0.3139
53656SOL    HW269937   3.550   3.174   5.806 -0.0832  2.5649 -1.5672
53657SOL     OW69938   1.439   3.856   4.986 -0.2107 -0.6074 -0.2663
53657SOL    HW169939   1.495   3.927   5.017 -0.6006 -0.1724 -0.5538
53657SOL    HW269940   1.498   3.781   4.978 -0.0601 -0.7256  1.4167
53658SOL     OW69941   4.301  10.259   4.178  0.2932  0.4973  0.0529
53658SOL    HW169942   4.301  10.197   4.251 -0.6440  2.2604  1.6152
53658SOL    HW269943   4.285  10.205   4.101  0.5382 -1.3203  1.2228
53659SOL     OW69944   1.261  11.218   3.445  0.3834  0.0254  0.1458
53659SOL    HW169945   1.227  11.128   3.446 -0.8322  0.4660 -0.1840
53659SOL    HW269946   1.194  11.269   3.490  0.2874  1.0304 -1.0944
53660SOL     OW69947   3.259   1.843   6.274  0.1669  0.2707  0.4757
53660SOL    HW169948   3.225   1.760   6.240  0.4446  1.0727 -1.9870
53660SOL    HW269949   3.299   1.821   6.358 -3.0999 -1.3633  1.7716
53661SOL     OW69950  11.120  12.016  12.173  0.5274 -0.1002  0.0614
53661SOL    HW169951  11.060  12.018  12.099 -1.3922  0.9525  1.5256
53661SOL    HW269952  11.063  12.001  12.249  2.6855 -4.2331  1.1307
53662SOL     OW69953   8.855   2.291   4.668 -0.2568 -0.6493 -0.4538
53662SOL    HW169954   8.872   2.198   4.680 -1.0315 -0.6316  1.0507
53662SOL    HW269955   8.784   2.296   4.604 -0.9115 -1.1557  0.2183
53663SOL     OW69956   2.682  11.777   4.637 -0.5982 -0.7384  0.7635
53663SOL    HW169957   2.659  11.754   4.727 -1.6738  1.5063  1.1388
53663SOL    HW269958   2.607  11.828   4.605  1.1085  1.3239 -0.2409
53664SOL     OW69959   5.570   3.026   5.503  0.3872  0.1030  0.1867
53664SOL    HW169960   5.522   2.994   5.579  1.4365 -0.2958  0.6962
53664SOL    HW269961   5.651   2.975   5.502  1.4630  1.7395  0.1966
53665SOL     OW69962   0.667   4.884   7.515  0.6496 -0.4550  0.9373
53665SOL    HW169963   0.582   4.918   7.487  0.4234 -1.3165  0.5420
53665SOL    HW269964   0.648   4.797   7.549  1.3314 -0.5201  1.1674
53666SOL     OW69965   5.781  11.398   6.559 -0.0446 -0.3791 -0.6070
53666SOL    HW169966   5.730  11.357   6.489 -2.2524 -2.5031  1.9466
53666SOL    HW269967   5.721  11.461   6.599  0.2111 -0.9796  0.8153
53667SOL     OW69968  11.120   9.920   3.074  0.2446  0.2596 -0.3302
53667SOL    HW169969  11.097   9.982   3.143  1.0195  0.8229 -0.5585
53667SOL    HW269970  11.041   9.869   3.059 -0.0467  0.3948  0.6983
53668SOL     OW69971   5.720   8.321   7.984 -0.2848  0.0394  0.6774
53668SOL    HW169972   5.660   8.263   8.030 -1.3010 -2.7726 -3.6668
53668SOL    HW269973   5.663   8.385   7.940  0.0183 -1.0167 -1.3472
53669SOL     OW69974   9.174  10.617   9.118 -0.1268  0.1742  0.2446
53669SOL    HW169975   9.223  10.699   9.111  1.6202 -0.9586 -3.0825
53669SOL    HW269976   9.083  10.644   9.126  0.5348  2.4182  0.9346
53670SOL     OW69977   8.491   3.872   5.225  0.2696  0.2195  0.6328
53670SOL    HW169978   8.408   3.830   5.248 -0.0841  0.8512  0.5431
53670SOL    HW269979   8.546   3.863   5.303  0.3260 -0.7184  0.4874
53671SOL     OW69980   7.891   1.146   8.433  0.3907 -0.2603  0.0525
53671SOL    HW169981   7.901   1.130   8.339  1.4895 -0.1458  0.1315
53671SOL    HW269982   7.813   1.200   8.440 -0.4408 -1.3250 -0.6712
53672SOL     OW69983   9.121   2.248   4.359 -0.1352  0.2680 -0.1447
53672SOL    HW169984   9.176   2.262   4.281 -0.4078  0.9909 -0.2127
53672SOL    HW269985   9.052   2.314   4.352 -0.5752 -0.1304  0.3424
53673SOL     OW69986  11.437  12.065   8.243  0.3883  0.5368  0.0099
53673SOL    HW169987  11.411  11.977   8.268  1.1999  0.0943 -0.6300
53673SOL    HW269988  11.518  12.081   8.292  0.5908  0.6629 -0.3539
53674SOL     OW69989   8.916   0.629   0.492 -0.1646  0.0412  0.2434
53674SOL    HW169990   8.986   0.563   0.493  0.4806  0.6503 -1.3437
53674SOL    HW269991   8.835   0.578   0.489  0.2551 -0.6749  0.8428
53675SOL     OW69992   4.813   6.473  10.139 -0.2654 -0.3654 -0.1974
53675SOL    HW169993   4.821   6.517  10.224  0.7817 -0.1591 -0.3887
53675SOL    HW269994   4.894   6.423  10.130 -0.8763 -1.3100 -0.5671
53676SOL     OW69995  10.653   2.879   8.309  0.1366  0.1393 -0.2877
53676SOL    HW169996  10.617   2.956   8.265  0.6549  2.4803  2.9696
53676SOL    HW269997  10.672   2.818   8.239 -0.2062  3.0146 -3.1254
53677SOL     OW69998   2.479   7.981   6.087 -0.4197  0.4211  0.2195
53677SOL    HW169999   2.495   7.910   6.026 -0.7771  0.1677  0.4193
53677SOL    HW270000   2.463   7.938   6.171 -0.1692  0.7557  0.4460
53678SOL     OW70001  11.228   0.414   7.224 -0.6619 -0.0096  0.1812
53678SOL    HW170002  11.175   0.351   7.273  1.1709 -2.0187 -0.2509
53678SOL    HW270003  11.199   0.404   7.133 -2.6452  2.2523  0.4664
53679SOL     OW70004   5.015   5.321   3.570 -0.1602 -0.6055 -0.4293
53679SOL    HW170005   4.999   5.256   3.501 -2.2167 -0.5975 -0.0141
53679SOL    HW270006   5.082   5.379   3.532  0.1050 -1.6634 -1.6774
53680SOL     OW70007   5.605   8.165   2.130 -0.0122 -0.0757  0.0123
53680SOL    HW170008   5.518   8.199   2.108 -0.0790 -1.0877 -1.4517
53680SOL    HW270009   5.589   8.107   2.205 -0.2268  1.3901  1.1348
53681SOL     OW70010  10.060   7.328   1.864 -0.1828 -0.0979 -0.3536
53681SOL    HW170011  10.049   7.423   1.862 -0.3590 -0.1252 -1.9915
53681SOL    HW270012  10.105   7.307   1.782 -0.2458 -1.4455 -0.0732
53682SOL     OW70013   2.403   1.213   2.247  0.0893 -0.7579  0.1351
53682SOL    HW170014   2.492   1.245   2.235  0.1501 -1.1040 -0.3562
53682SOL    HW270015   2.409   1.151   2.319 -0.4234  1.9452  2.6847
53683SOL     OW70016  10.707   7.205   4.161 -0.8239 -0.2714  0.1505
53683SOL    HW170017  10.614   7.200   4.186 -0.1780 -1.6433  2.5801
53683SOL    HW270018  10.741   7.117   4.176  0.9407  0.2385 -0.5624
53684SOL     OW70019   2.858   7.773   3.521  0.4179  0.4021  0.1540
53684SOL    HW170020   2.936   7.784   3.466  0.2750 -1.1190 -0.3888
53684SOL    HW270021   2.785   7.781   3.460  0.0832  2.3115  0.7376
53685SOL     OW70022  10.521   4.656   1.032 -0.2309 -0.1496  0.0900
53685SOL    HW170023  10.607   4.655   0.992  0.2685 -1.7281  1.0980
53685SOL    HW270024  10.529   4.717   1.106 -0.6690  1.4502 -1.1332
53686SOL     OW70025   1.371   8.800   3.914  0.0633 -0.2942 -0.4181
53686SOL    HW170026   1.296   8.770   3.964 -0.6201  1.4020 -0.3464
53686SOL    HW270027   1.411   8.868   3.968  2.6966 -2.2577  0.3063
53687SOL     OW70028   9.852   8.842   7.985 -0.4544  0.3332  0.3906
53687SOL    HW170029   9.780   8.898   7.954 -0.4317 -0.2100 -0.7201
53687SOL    HW270030   9.892   8.809   7.904 -0.4704 -1.2770  1.0043
53688SOL     OW70031   3.761   5.916   7.657  0.1130  0.2236  0.3037
53688SOL    HW170032   3.800   5.850   7.600 -0.9902  0.1153 -0.3683
53688SOL    HW270033   3.768   5.998   7.608 -0.3500  0.2299  0.2425
53689SOL     OW70034   3.043   6.176   2.734  0.2933  0.2766  0.2885
53689SOL    HW170035   3.043   6.169   2.829  0.1592  0.9193  0.3371
53689SOL    HW270036   3.132   6.202   2.711  0.5080 -0.5219  0.1831
53690SOL     OW70037   9.801   7.008   3.168  0.3166  0.4551  0.2629
53690SOL    HW170038   9.886   7.006   3.213  1.8984  2.1157 -2.3189
53690SOL    HW270039   9.794   7.099   3.136 -0.0966 -0.7272 -3.5312
53691SOL     OW70040   4.314   7.239   0.028  0.0659 -0.7231  0.0674
53691SOL    HW170041   4.319   7.152   0.066  2.6176 -0.3163  0.8755
53691SOL    HW270042   4.296   7.297   0.102 -1.8186 -0.5437 -0.4927
53692SOL     OW70043   4.700   6.248   8.734  0.1136 -0.0277  0.3671
53692SOL    HW170044   4.694   6.341   8.713  1.1104  0.2425  1.1666
53692SOL    HW270045   4.769   6.243   8.801 -0.4939 -1.2401  0.9367
53693SOL     OW70046   2.534   5.304   6.780 -1.0249  0.0985  0.6996
53693SOL    HW170047   2.524   5.227   6.724 -0.4624 -0.5673  1.4747
53693SOL    HW270048   2.449   5.348   6.776 -0.5955  0.8469 -1.7371
53694SOL     OW70049   4.681   7.765   5.583  0.1814  0.2629  0.3692
53694SOL    HW170050   4.633   7.691   5.619  0.3398  0.2832  0.6254
53694SOL    HW270051   4.771   7.753   5.615  0.3394  0.2374 -0.0848
53695SOL     OW70052   9.748   0.556  10.896  0.3583  0.2886  0.1252
53695SOL    HW170053   9.813   0.623  10.874 -1.7685  1.7967 -2.0498
53695SOL    HW270054   9.665   0.603  10.901 -1.3541 -2.1798 -2.0845
53696SOL     OW70055   9.151   9.077   2.380  0.0019 -0.5477 -0.3345
53696SOL    HW170056   9.202   9.046   2.305  0.6456  1.6159 -0.8571
53696SOL    HW270057   9.094   9.146   2.344  0.3378  0.5471  1.1396
53697SOL     OW70058   3.223   6.354   4.771 -0.6408 -0.4107  0.1427
53697SOL    HW170059   3.257   6.442   4.789 -0.0300 -0.3434 -1.2464
53697SOL    HW270060   3.285   6.316   4.708 -1.2357 -1.6081  0.2468
53698SOL     OW70061   3.511   4.731   7.278  0.4724 -0.7127  0.2491
53698SOL    HW170062   3.606   4.724   7.292  0.5704 -1.4422 -0.6635
53698SOL    HW270063   3.493   4.670   7.206 -0.5867 -0.0637 -0.0561
53699SOL     OW70064   9.586   3.578   8.137  0.0293  0.4714  0.9220
53699SOL    HW170065   9.548   3.501   8.180  0.0315  0.6404  1.2290
53699SOL    HW270066   9.521   3.604   8.072  1.5203 -1.9551 -1.7857
53700SOL     OW70067   6.999   3.433   6.082  0.4639 -0.2530  0.1217
53700SOL    HW170068   7.063   3.365   6.059  1.0023  0.3944 -0.3171
53700SOL    HW270069   6.950   3.395   6.155 -0.4128 -1.8295 -1.2196
53701SOL     OW70070   8.404   9.415   1.281  0.3027  0.4599  0.2231
53701SOL    HW170071   8.340   9.449   1.344  0.3682 -1.4533  1.4141
53701SOL    HW270072   8.364   9.431   1.195 -1.8008 -0.6048  0.9280
53702SOL     OW70073   3.509  11.788   3.610 -0.1387 -0.5951  0.9575
53702SOL    HW170074   3.534  11.698   3.590  0.7952 -0.4603  1.4635
53702SOL    HW270075   3.528  11.798   3.703 -0.4357  0.0659  0.9510
53703SOL     OW70076   9.522   9.807   9.996  0.5441  0.4173 -0.1863
53703SOL    HW170077   9.612   9.812  10.029  0.4100 -0.2013  0.2934
53703SOL    HW270078   9.515   9.719   9.960 -1.2934 -1.4865  4.1306
53704SOL     OW70079   5.799   6.377   1.518 -0.5680  0.0455  0.0380
53704SOL    HW170080   5.878   6.424   1.491  0.7470 -0.9143  1.9736
53704SOL    HW270081   5.753   6.440   1.575 -2.1739  1.2336 -2.4090
53705SOL     OW70082   0.796   9.571   8.989  0.1451  0.4194  0.8045
53705SOL    HW170083   0.724   9.508   8.990 -0.2229  0.8347  0.7315
53705SOL    HW270084   0.815   9.584   8.896  1.6617 -1.1928  0.8287
53706SOL     OW70085  12.236  10.688   6.395 -0.1792 -0.8829 -0.5738
53706SOL    HW170086  12.241  10.730   6.309 -1.1056 -0.8936 -0.6460
53706SOL    HW270087  12.154  10.722   6.432  0.3580 -0.6501  0.4255
53707SOL     OW70088  10.806   4.195   5.267 -0.2668  0.3673 -0.1102
53707SOL    HW170089  10.777   4.159   5.183 -0.6864  1.3093 -0.3833
53707SOL    HW270090  10.876   4.137   5.295 -0.3875 -0.1891 -0.9243
53708SOL     OW70091   6.599   2.211   8.476  0.0905 -0.5223  0.5810
53708SOL    HW170092   6.688   2.247   8.474 -0.1350  0.0173  0.1533
53708SOL    HW270093   6.543   2.285   8.500 -0.2307 -0.9019  1.0459
53709SOL     OW70094   1.105  11.567   5.882 -0.0733 -0.6379 -0.0554
53709SOL    HW170095   1.178  11.564   5.821 -1.1402 -1.8724 -1.3557
53709SOL    HW270096   1.104  11.657   5.914  1.5652 -0.4195 -0.5251
53710SOL     OW70097   1.453   3.894   6.190 -0.5965 -0.5195  0.0193
53710SOL    HW170098   1.421   3.822   6.244  0.1282 -1.3382 -0.6126
53710SOL    HW270099   1.375   3.943   6.166 -1.0008 -0.5426  1.2323
53711SOL     OW70100   1.339   8.892   2.884  0.0513  0.3754 -0.4545
53711SOL    HW170101   1.409   8.851   2.933  2.2644  0.6606 -3.1468
53711SOL    HW270102   1.292   8.819   2.843 -0.4038  0.2504  0.2754
53712SOL     OW70103   5.904  11.179  12.511 -0.0046  0.3188  0.0683
53712SOL    HW170104   5.926  11.270  12.526  0.1890  0.4804 -1.0804
53712SOL    HW270105   5.847  11.180  12.434  0.6882 -0.5828 -0.4945
53713SOL     OW70106   0.224   9.339   5.521  0.0851 -0.0493  0.5983
53713SOL    HW170107   0.194   9.313   5.608  0.4702  0.1447  0.7851
53713SOL    HW270108   0.274   9.263   5.490 -2.0282 -1.1275 -0.4355
53714SOL     OW70109   1.053   7.000   9.908 -0.5450 -0.4269 -0.5516
53714SOL    HW170110   1.134   7.030   9.950 -0.3708 -1.4532 -0.1191
53714SOL    HW270111   1.079   6.981   9.817 -0.0198 -1.8016 -0.1366
53715SOL     OW70112   5.936   1.321   5.622 -0.5687  0.4992 -0.2494
53715SOL    HW170113   5.916   1.245   5.569  0.4116 -0.0673  0.1624
53715SOL    HW270114   5.887   1.393   5.582 -1.9107 -0.4469 -0.3351
53716SOL     OW70115  11.325  12.177  12.064  0.4724 -0.0592  0.5312
53716SOL    HW170116  11.401  12.167  12.121  0.3391 -1.0030  0.5522
53716SOL    HW270117  11.265  12.108  12.091 -0.6938  1.0680  0.9607
53717SOL     OW70118   5.807   1.264   9.616 -0.4106  0.5563  0.0095
53717SOL    HW170119   5.850   1.347   9.595  0.5554  0.0104 -0.2417
53717SOL    HW270120   5.851   1.199   9.560 -0.4876 -0.2735  0.8837
53718SOL     OW70121  10.864   7.098   1.635 -0.2000 -0.1704  0.2296
53718SOL    HW170122  10.793   7.147   1.676 -0.0276  0.4199 -0.1587
53718SOL    HW270123  10.897   7.156   1.567 -1.0506 -1.4695 -1.3480
53719SOL     OW70124   8.738   5.977   2.893  0.3016  0.2318 -0.0299
53719SOL    HW170125   8.655   5.977   2.845 -0.4512  1.8596  1.1312
53719SOL    HW270126   8.742   5.891   2.935 -0.6731  0.0260 -0.3351
53720SOL     OW70127   2.268   9.178  10.237 -0.0133 -0.1232 -0.2434
53720SOL    HW170128   2.233   9.266  10.250 -1.9942 -1.1501  2.1642
53720SOL    HW270129   2.297   9.177  10.146 -2.2380  2.2763 -1.1086
53721SOL     OW70130   5.712  12.141  10.290  0.0233  0.4798  0.4623
53721SOL    HW170131   5.703  12.220  10.237  2.3227 -0.5285 -1.6482
53721SOL    HW270132   5.801  12.147  10.325  0.0760 -0.9399  0.5989
53722SOL     OW70133  10.177   2.978   6.094  0.4652  0.4944 -0.6096
53722SOL    HW170134  10.162   3.059   6.143 -0.9532 -0.4634  0.6355
53722SOL    HW270135  10.092   2.956   6.056  0.9945 -0.0597 -1.5189
53723SOL     OW70136   2.556   2.764  11.622  0.1529 -0.0254  0.6671
53723SOL    HW170137   2.490   2.748  11.555  1.5537 -0.6436 -0.6224
53723SOL    HW270138   2.593   2.678  11.641  0.0291  0.1928  1.9936
53724SOL     OW70139   0.227  10.492   7.134  0.3259 -1.2994 -0.2455
53724SOL    HW170140   0.180  10.548   7.072  1.1405  0.7215  0.8512
53724SOL    HW270141   0.311  10.474   7.091  0.4206 -0.8866 -0.2394
53725SOL     OW70142   9.315  10.279  12.378 -0.2380  1.1561 -0.0603
53725SOL    HW170143   9.407  10.283  12.351 -0.0632  0.2282  0.3646
53725SOL    HW270144   9.313  10.209  12.444 -1.0067  2.0287  0.8777
53726SOL     OW70145   9.181   4.848   2.343  0.1212 -0.3735  0.4713
53726SOL    HW170146   9.160   4.803   2.261  1.4578 -0.8470  0.3703
53726SOL    HW270147   9.195   4.939   2.318  0.7071 -0.5541  0.1459
53727SOL     OW70148  10.212   0.044  12.093 -0.2089 -0.5657 -0.1466
53727SOL    HW170149  10.123   0.013  12.110 -0.2314 -0.6823 -0.4571
53727SOL    HW270150  10.268  -0.032  12.112 -0.2706 -0.8305 -0.9918
53728SOL     OW70151  10.402   6.790  12.102  0.5322  0.1575  0.7441
53728SOL    HW170152  10.353   6.744  12.171  1.2069 -0.1559  1.0251
53728SOL    HW270153  10.493   6.762  12.115  0.5793 -0.4696 -0.7204
53729SOL     OW70154   4.563   6.205   8.483  0.2022 -0.0471  0.2809
53729SOL    HW170155   4.605   6.148   8.419 -0.2083 -1.7805  1.5009
53729SOL    HW270156   4.606   6.185   8.566 -0.7032  0.6186  0.9419
53730SOL     OW70157   5.724   8.741   2.725 -0.3495 -0.3945  0.3821
53730SOL    HW170158   5.781   8.665   2.733 -0.8133 -0.6297  1.4972
53730SOL    HW270159   5.671   8.723   2.647  0.5615 -0.5143 -0.2306
53731SOL     OW70160   7.583   9.424  10.327  0.3252 -0.7703 -0.5062
53731SOL    HW170161   7.665   9.469  10.310  1.0094 -1.8099 -0.0514
53731SOL    HW270162   7.609   9.338  10.361 -0.9440 -0.8184  0.4162
53732SOL     OW70163   9.005   7.659   0.811 -0.1709  0.3023 -0.6391
53732SOL    HW170164   9.022   7.636   0.720  0.2696 -1.3575 -0.1709
53732SOL    HW270165   8.949   7.588   0.844  0.6607  0.2182  0.6868
53733SOL     OW70166   7.006   8.810  12.394  0.4490 -0.0551  0.1606
53733SOL    HW170167   7.026   8.717  12.383 -0.0166 -0.2961  1.2489
53733SOL    HW270168   7.086   8.847  12.431  0.2613 -0.2467  0.7706
53734SOL     OW70169   2.478   5.197  11.969  0.3243 -0.9883 -0.0423
53734SOL    HW170170   2.453   5.211  12.061  3.0593  0.0762  0.6326
53734SOL    HW270171   2.421   5.255  11.919  0.6654  0.5593  1.2898
53735SOL     OW70172   0.881   2.951   5.603  0.7930 -0.3966  0.7556
53735SOL    HW170173   0.902   3.005   5.679  0.1070  0.4847  0.3496
53735SOL    HW270174   0.846   3.013   5.539 -0.2297 -1.3564  0.3473
53736SOL     OW70175   4.854  12.571   2.628 -0.0986 -0.0709  0.1919
53736SOL    HW170176   4.897  12.657   2.629  0.8898 -0.5671  0.9410
53736SOL    HW270177   4.872  12.537   2.540 -0.1741  0.3278  0.0195
53737SOL     OW70178   8.414   9.484   4.579 -0.1837 -0.4421  0.2978
53737SOL    HW170179   8.507   9.466   4.569 -0.4085 -1.5759  0.0624
53737SOL    HW270180   8.399   9.563   4.528  0.6477 -0.2701  0.3163
53738SOL     OW70181   9.373   5.444   1.498 -0.0070  0.6238  0.1084
53738SOL    HW170182   9.441   5.422   1.434  0.8986  0.0997  1.1956
53738SOL    HW270183   9.295   5.463   1.446  0.7071  0.2542 -1.1350
53739SOL     OW70184   1.584  12.062   8.785  0.1760 -0.6824  0.4024
53739SOL    HW170185   1.573  11.987   8.843 -1.0413 -1.2888 -0.5833
53739SOL    HW270186   1.517  12.052   8.718  1.3834  0.1329 -0.9962
53740SOL     OW70187  11.213   1.043   6.202 -0.4483  0.0780 -0.5286
53740SOL    HW170188  11.166   1.028   6.120 -1.5618 -0.1098  0.1239
53740SOL    HW270189  11.236   0.955   6.233 -2.6379 -0.1087  0.8117
53741SOL     OW70190  11.540   9.568  12.286 -0.7541 -0.9677  0.3424
53741SOL    HW170191  11.498   9.649  12.313 -0.7461 -0.5235 -0.9084
53741SOL    HW270192  11.629   9.594  12.262  0.0942 -1.7900  2.3581
53742SOL     OW70193   0.165  11.984   1.229 -0.3063 -0.5361 -0.0369
53742SOL    HW170194   0.177  11.921   1.301 -0.9858  0.1398  0.6986
53742SOL    HW270195   0.253  12.014   1.208  0.0420 -1.8117 -0.4845
53743SOL     OW70196  10.992  10.260   3.430 -0.1725 -0.2267 -0.0930
53743SOL    HW170197  10.934  10.275   3.505  0.2379  1.1669 -0.0173
53743SOL    HW270198  10.980  10.338   3.375 -0.3621 -1.1681 -1.4142
53744SOL     OW70199   7.853  12.544  11.266 -0.0745  0.0316 -0.6935
53744SOL    HW170200   7.776  12.601  11.267  0.5484  0.9904  1.5848
53744SOL    HW270201   7.914  12.587  11.206 -0.6399  0.2524 -1.1157
53745SOL     OW70202  11.512   0.538   4.146  0.0313  0.0298  0.0853
53745SOL    HW170203  11.467   0.611   4.189  0.8174 -0.2212  1.3909
53745SOL    HW270204  11.605   0.555   4.162  0.1981 -1.5618  0.9449
53746SOL     OW70205   0.323  11.388   6.480 -0.1387  0.4928 -0.1272
53746SOL    HW170206   0.253  11.327   6.458  1.4017 -0.3352 -3.2692
53746SOL    HW270207   0.288  11.474   6.456 -0.6734  0.2859 -0.1009
53747SOL     OW70208   4.322   0.633   1.864 -0.1337 -0.1466  0.1421
53747SOL    HW170209   4.323   0.710   1.920 -0.2926  0.3527 -0.5299
53747SOL    HW270210   4.319   0.559   1.925  1.5881  0.3114  0.8337
53748SOL     OW70211  12.042   9.238   9.827  0.1772 -0.3646 -0.7865
53748SOL    HW170212  12.064   9.213   9.737  0.9587 -2.1822 -0.1552
53748SOL    HW270213  11.956   9.279   9.821 -0.7998 -2.4416 -2.1288
53749SOL     OW70214   5.493   9.876   5.068 -0.4122 -0.2275  0.2536
53749SOL    HW170215   5.439   9.811   5.112  0.2209 -0.0028  1.4237
53749SOL    HW270216   5.472   9.958   5.112 -1.9458  0.6128 -1.8584
53750SOL     OW70217   8.615   5.027  11.892 -0.0651  0.0357 -0.1067
53750SOL    HW170218   8.692   5.059  11.844  0.4838 -1.9955 -0.6758
53750SOL    HW270219   8.612   4.934  11.873 -2.7790  0.0652 -0.2024
53751SOL     OW70220   2.384   9.130   2.755 -0.2917 -0.0512 -0.3569
53751SOL    HW170221   2.317   9.175   2.703  0.1226  2.6317  1.2402
53751SOL    HW270222   2.339   9.107   2.837  0.4891  1.0994  0.4252
53752SOL     OW70223   7.063   4.490   1.142  0.8053 -0.3224 -0.0811
53752SOL    HW170224   7.078   4.509   1.050  0.5648 -0.3029 -0.1164
53752SOL    HW270225   6.968   4.484   1.151  0.8455 -0.7730  0.0754
53753SOL     OW70226   1.235   5.467   7.768  0.5665  0.5851 -0.3007
53753SOL    HW170227   1.237   5.545   7.713  2.4140  0.0911 -0.9820
53753SOL    HW270228   1.144   5.462   7.798  0.1498  2.3611 -1.1332
53754SOL     OW70229   8.761   2.911   2.335  0.2748  0.0777 -0.1287
53754SOL    HW170230   8.772   3.000   2.368  0.5603  0.1917 -0.5214
53754SOL    HW270231   8.679   2.880   2.374 -0.6636  1.0924 -1.2346
53755SOL     OW70232   1.602   4.690   2.175  0.0384  0.0351 -0.2499
53755SOL    HW170233   1.663   4.763   2.192  1.3035 -1.0915  0.2685
53755SOL    HW270234   1.578   4.700   2.083  1.3090  0.3102 -0.5721
53756SOL     OW70235   0.807   4.954   4.767  0.2339 -0.3387 -0.0389
53756SOL    HW170236   0.863   4.909   4.831 -2.5251 -2.9873  0.7284
53756SOL    HW270237   0.760   5.019   4.819  0.4981 -0.1028 -0.0938
53757SOL     OW70238  11.927   6.789   1.769  0.4064  0.3953  0.2762
53757SOL    HW170239  12.001   6.840   1.736 -0.1086  1.2284  0.3636
53757SOL    HW270240  11.854   6.813   1.711  0.1825 -0.3321  0.2538
53758SOL     OW70241  10.424   3.253   7.031  0.3057 -0.0033  0.0347
53758SOL    HW170242  10.449   3.261   6.939 -2.1940 -1.5992 -0.8871
53758SOL    HW270243  10.495   3.296   7.079  1.9184  0.4852 -2.5849
53759SOL     OW70244  12.488   2.015   4.554 -0.3904  0.0691  0.4605
53759SOL    HW170245  12.429   2.085   4.582  2.4912  2.0634  2.0410
53759SOL    HW270246  12.488   1.953   4.627  1.0373  1.1941  1.4684
53760SOL     OW70247   2.325   8.331  10.522 -0.1112 -0.4436 -0.0910
53760SOL    HW170248   2.302   8.423  10.506  0.1846 -0.1885  0.8623
53760SOL    HW270249   2.286   8.283  10.449 -1.5771  0.2555  0.1914
53761SOL     OW70250   2.534   6.234   1.432  0.0667  0.0797 -0.3924
53761SOL    HW170251   2.461   6.254   1.373 -0.4941  0.5839  0.4491
53761SOL    HW270252   2.609   6.280   1.395  0.0973 -0.9074 -1.5846
53762SOL     OW70253   4.287   4.084   9.562  0.0474  0.1291  0.1077
53762SOL    HW170254   4.302   4.066   9.655  0.2674  1.0230  0.2505
53762SOL    HW270255   4.240   4.168   9.561 -1.0760 -0.4807 -0.5305
53763SOL     OW70256   7.799   8.469   6.781  0.1222  0.2625  0.1541
53763SOL    HW170257   7.809   8.416   6.861  0.3721 -0.8553 -0.5999
53763SOL    HW270258   7.713   8.445   6.747  0.2404  0.3428 -0.1999
53764SOL     OW70259   3.197   7.676   4.917 -0.6031 -0.2467  0.0475
53764SOL    HW170260   3.241   7.737   4.976 -0.7254  2.0273 -2.0985
53764SOL    HW270261   3.103   7.693   4.930 -0.6289  0.2877 -0.8170
53765SOL     OW70262   4.212   0.459   7.043  0.5596 -0.6178  0.7189
53765SOL    HW170263   4.200   0.404   6.966  2.7584 -0.1363 -0.0513
53765SOL    HW270264   4.307   0.473   7.047  0.2977  0.9897  2.3681
53766SOL     OW70265  10.609  10.912   8.662  0.5788  0.7271 -0.3639
53766SOL    HW170266  10.656  10.983   8.706  0.1786 -0.0538  1.4121
53766SOL    HW270267  10.517  10.927   8.683  0.6450 -1.5691  2.1118
53767SOL     OW70268   9.486   4.558  10.827 -0.9100  0.0524 -0.0910
53767SOL    HW170269   9.495   4.653  10.834  0.5127 -0.0734  0.2370
53767SOL    HW270270   9.392   4.542  10.834 -1.0456  1.2791  2.1134
53768SOL     OW70271  11.780   2.756   5.505  0.3725 -0.5028  0.5239
53768SOL    HW170272  11.764   2.663   5.523 -0.6021 -0.2761  0.8911
53768SOL    HW270273  11.805   2.758   5.413  1.1485 -1.2017  0.7022
53769SOL     OW70274   3.105   3.081   0.462 -0.0083  0.0846 -0.2598
53769SOL    HW170275   3.158   3.150   0.422  1.7358 -0.3203  1.2366
53769SOL    HW270276   3.168   3.014   0.487 -1.3819 -0.9337  0.5803
53770SOL     OW70277   2.989   0.066  12.022 -0.0713 -0.1086  0.2286
53770SOL    HW170278   2.966   0.159  12.029  0.1470 -0.1078  1.0598
53770SOL    HW270279   2.908   0.024  11.994  0.1908  0.5036 -1.5633
53771SOL     OW70280  11.452   2.425   3.392  0.0093 -0.0708  0.8877
53771SOL    HW170281  11.385   2.493   3.392 -0.1688 -0.1891 -1.1676
53771SOL    HW270282  11.404   2.344   3.410  0.0167  0.1440  1.9483
53772SOL     OW70283   5.752   9.182   8.704  0.0193  0.3581 -0.2589
53772SOL    HW170284   5.770   9.272   8.733  0.4288  0.3257 -0.3985
53772SOL    HW270285   5.663   9.164   8.734  1.0022 -0.2911  2.5172
53773SOL     OW70286   9.838   0.790  10.586  0.1606 -0.3035  0.2500
53773SOL    HW170287   9.870   0.829  10.504  1.0114 -1.6288 -0.0768
53773SOL    HW270288   9.876   0.702  10.588  1.9743  0.3864  3.0925
53774SOL     OW70289   0.590  11.339   4.373 -0.2744  0.1311 -0.9223
53774SOL    HW170290   0.528  11.295   4.315  1.0005  0.7665 -2.8731
53774SOL    HW270291   0.569  11.432   4.363 -0.0180  0.2435 -0.3857
53775SOL     OW70292   3.511   6.858   9.901 -0.0680 -0.1919 -0.0014
53775SOL    HW170293   3.476   6.770   9.904  2.5712 -1.3060  1.4010
53775SOL    HW270294   3.494   6.895   9.987  0.6510 -0.1318  0.1279
53776SOL     OW70295   5.839  12.475  11.637  0.4175  0.1088  0.1124
53776SOL    HW170296   5.771  12.423  11.594 -1.0930  2.8855 -1.1351
53776SOL    HW270297   5.792  12.538  11.691  2.1745 -0.2077  2.1542
53777SOL     OW70298  10.749   6.991   0.385  0.2765 -0.0310  0.5090
53777SOL    HW170299  10.796   6.915   0.418  2.5145  0.7948 -0.5806
53777SOL    HW270300  10.774   7.062   0.444  1.3794  0.6560 -0.7213
53778SOL     OW70301   4.608   2.747   3.687 -0.1024  0.1647 -0.4647
53778SOL    HW170302   4.558   2.802   3.748  0.2995 -0.6735  0.6509
53778SOL    HW270303   4.543   2.713   3.626 -0.9717 -1.0570  1.0656
53779SOL     OW70304   5.451   8.481  12.571 -0.6406  0.2873  0.0630
53779SOL    HW170305   5.373   8.530  12.545 -0.5897  0.6477  0.5799
53779SOL    HW270306   5.504   8.477  12.492 -0.3376  1.6561  0.1709
53780SOL     OW70307  11.987   0.638  11.432 -0.4174  0.1911  0.2761
53780SOL    HW170308  11.988   0.548  11.400 -3.2097  0.8993 -2.3097
53780SOL    HW270309  12.057   0.682  11.383  0.2125 -0.2904  0.7243
53781SOL     OW70310  12.408   8.418   2.852 -0.0360  0.2878 -0.1099
53781SOL    HW170311  12.403   8.506   2.816 -0.3096 -0.2865 -1.5791
53781SOL    HW270312  12.329   8.374   2.821  1.0114 -1.0235 -1.0663
53782SOL     OW70313   5.422   8.548   5.691 -0.0558 -0.1401 -0.0576
53782SOL    HW170314   5.448   8.613   5.625  2.3072 -0.8762  0.0663
53782SOL    HW270315   5.335   8.575   5.718 -0.2138  1.4296 -1.9340
53783SOL     OW70316   5.175   7.384   3.775 -0.0607  0.3821 -0.0680
53783SOL    HW170317   5.175   7.403   3.681 -0.8868 -0.1242 -0.1786
53783SOL    HW270318   5.197   7.291   3.781 -1.2807  0.0848  0.1459
53784SOL     OW70319   4.113   5.588  10.046 -0.4248 -0.2329  0.1578
53784SOL    HW170320   4.161   5.546   9.975 -1.0997 -1.4144  0.3660
53784SOL    HW270321   4.178   5.641  10.092 -0.6004  3.4636 -3.3702
53785SOL     OW70322   0.720   8.846  11.324 -0.0773  0.5090  0.1786
53785SOL    HW170323   0.785   8.916  11.331  0.8068 -0.2555 -0.2542
53785SOL    HW270324   0.705   8.819  11.415  1.8132 -0.7202  0.1872
53786SOL     OW70325   2.681  12.140  11.935  0.4252  0.3474 -0.1452
53786SOL    HW170326   2.730  12.063  11.904 -0.5754 -0.1290 -0.5854
53786SOL    HW270327   2.679  12.130  12.030 -1.9687 -1.6350 -0.3210
53787SOL     OW70328   5.932  10.077  11.704  0.0687  0.1955 -0.7149
53787SOL    HW170329   5.845  10.075  11.745  0.0480  0.7799 -0.7220
53787SOL    HW270330   5.937  10.164  11.664  0.4468 -0.0366 -1.1774
53788SOL     OW70331   3.368  10.142   3.664 -0.3495  0.6419  0.3037
53788SOL    HW170332   3.288  10.091   3.659  0.0019 -0.0161  1.1877
53788SOL    HW270333   3.338  10.233   3.667 -0.9915  0.4921 -0.9358
53789SOL     OW70334   7.983   0.334   6.798  0.4499  0.2424  0.5777
53789SOL    HW170335   8.063   0.323   6.848 -0.4100 -0.6616  1.8186
53789SOL    HW270336   7.919   0.365   6.862 -0.1495  1.1821 -0.4352
53790SOL     OW70337   0.818   3.006   9.348  0.3718 -0.5266  0.3024
53790SOL    HW170338   0.795   3.001   9.255 -0.6471 -0.5167  0.5407
53790SOL    HW270339   0.836   2.915   9.372  0.4746 -0.5524  0.1280
53791SOL     OW70340   0.001  11.269   2.459  0.4072 -0.0633  0.3030
53791SOL    HW170341  -0.070  11.228   2.409  0.8441  0.8042 -1.0822
53791SOL    HW270342  -0.011  11.237   2.548 -1.0024 -0.8763 -0.1482
53792SOL     OW70343   0.569   1.470   2.339 -0.2576  0.1436 -0.1492
53792SOL    HW170344   0.552   1.412   2.265  0.4339  0.2323 -0.3817
53792SOL    HW270345   0.602   1.550   2.299  0.8800 -0.0915  0.3008
53793SOL     OW70346   3.538   5.571   5.211 -0.0243  0.3947 -0.0581
53793SOL    HW170347   3.608   5.508   5.196  0.6362  1.4239 -1.5624
53793SOL    HW270348   3.461   5.518   5.231  0.3496 -0.9444 -1.9510
53794SOL     OW70349  10.413  11.753   2.956  0.1627 -0.4181 -0.0492
53794SOL    HW170350  10.391  11.847   2.953  0.2836 -0.4201 -2.0695
53794SOL    HW270351  10.416  11.726   2.865  0.9240 -2.2364  0.4718
53795SOL     OW70352   4.945   9.721   8.437  0.0809 -0.0825  0.2894
53795SOL    HW170353   4.933   9.650   8.374 -0.6903  0.7286 -0.5150
53795SOL    HW270354   4.875   9.783   8.417  1.3923  1.4552  0.1892
53796SOL     OW70355   4.461  11.404   1.519  0.0099 -1.0103 -0.5656
53796SOL    HW170356   4.413  11.479   1.485 -0.6102 -1.8165 -1.5376
53796SOL    HW270357   4.551  11.435   1.530 -0.5779  0.3300  0.6315
53797SOL     OW70358   1.063   2.507   4.717  0.0010  0.0181 -0.1138
53797SOL    HW170359   1.064   2.445   4.643  0.4328 -0.5389  0.3572
53797SOL    HW270360   1.093   2.590   4.679 -0.2094 -0.1517 -0.6644
53798SOL     OW70361  11.336   6.602   6.166  0.0899 -0.6077 -0.2077
53798SOL    HW170362  11.295   6.622   6.082  0.7230  1.0508 -0.1404
53798SOL    HW270363  11.418   6.651   6.166  0.5555 -1.3392  0.9931
53799SOL     OW70364   3.180   8.596   2.751 -0.2857 -0.3723 -0.7768
53799SOL    HW170365   3.209   8.506   2.762  1.8139  0.5537  3.1913
53799SOL    HW270366   3.219   8.624   2.669  1.7864 -2.1790 -0.4998
53800SOL     OW70367  11.401   7.870  10.189  0.3628  0.2835 -0.1834
53800SOL    HW170368  11.493   7.854  10.209 -0.6431 -2.4161  3.5061
53800SOL    HW270369  11.365   7.910  10.269 -1.7630  0.7235 -1.2840
53801SOL     OW70370   6.296   1.518   8.265  0.3322 -0.3759 -0.1658
53801SOL    HW170371   6.382   1.477   8.265 -0.4194 -2.0848  0.8226
53801SOL    HW270372   6.251   1.479   8.190  0.5646  0.8971 -0.9890
53802SOL     OW70373   4.262   2.293   2.309 -0.5198 -0.2190 -0.1668
53802SOL    HW170374   4.265   2.347   2.230 -1.8979 -0.1025 -0.1626
53802SOL    HW270375   4.278   2.354   2.381 -3.5343  0.5720 -0.0319
53803SOL     OW70376   9.803  12.560   4.197  0.5545 -0.4569 -0.4903
53803SOL    HW170377   9.725  12.560   4.252  0.7115  0.5990 -0.2431
53803SOL    HW270378   9.775  12.516   4.116 -1.2517  2.5195 -1.6581
53804SOL     OW70379   1.265   2.946   7.648  0.0105  0.2603  0.1766
53804SOL    HW170380   1.242   3.022   7.595 -0.8507  1.1309  1.7218
53804SOL    HW270381   1.310   2.983   7.724  3.3535 -1.1182 -0.9547
53805SOL     OW70382   6.953   4.438   4.753  0.3304  0.6970 -0.1762
53805SOL    HW170383   6.937   4.380   4.827  2.1161 -0.1710 -0.4239
53805SOL    HW270384   6.866   4.467   4.726 -0.5250 -0.9196  0.7164
53806SOL     OW70385   2.084   5.834  11.736 -0.1347 -0.0859 -0.5172
53806SOL    HW170386   2.150   5.806  11.673 -0.0521 -0.7991 -0.1248
53806SOL    HW270387   2.053   5.918  11.703  0.8919  0.2106 -0.7667
53807SOL     OW70388   7.548   7.015   4.782 -0.3151  0.5500 -0.5171
53807SOL    HW170389   7.541   7.067   4.702  0.8216 -1.5423 -2.0712
53807SOL    HW270390   7.625   6.960   4.768 -0.1454  0.0566  2.0067
53808SOL     OW70391   0.418   1.772   4.303 -0.1888 -0.3491 -0.0771
53808SOL    HW170392   0.415   1.682   4.271  1.0187 -1.0857  1.7230
53808SOL    HW270393   0.490   1.813   4.254  0.5195 -0.9508  0.4396
53809SOL     OW70394   6.944   5.916   5.142  0.1453  0.3760 -0.1094
53809SOL    HW170395   6.855   5.904   5.108 -0.8054  2.3998  1.4381
53809SOL    HW270396   6.974   5.996   5.099  0.9820  0.0618 -0.1204
53810SOL     OW70397  12.052  10.248  12.514 -0.1453  0.1065 -0.7609
53810SOL    HW170398  11.969  10.274  12.475  0.0663  0.9319 -0.6834
53810SOL    HW270399  12.105  10.220  12.439 -0.8894 -1.6409 -0.6935
53811SOL     OW70400   1.831   2.207   8.407 -0.0416 -0.5391  0.5423
53811SOL    HW170401   1.737   2.208   8.386  0.2339  1.2822 -0.8916
53811SOL    HW270402   1.869   2.145   8.345  0.0871  1.1425 -1.1498
53812SOL     OW70403   8.000   2.630   8.648  0.2300 -0.1195  0.2533
53812SOL    HW170404   8.007   2.535   8.655 -1.6956 -0.2268  2.1010
53812SOL    HW270405   7.932   2.645   8.583  1.2541  0.0675 -0.8046
53813SOL     OW70406   6.438   2.271   9.698 -0.3374  0.5455  0.5271
53813SOL    HW170407   6.363   2.324   9.725  0.0452 -0.0245  2.9056
53813SOL    HW270408   6.503   2.334   9.668 -0.8772  1.2098  0.7448
53814SOL     OW70409  12.100   9.362   8.031 -0.1924  0.0214 -0.8090
53814SOL    HW170410  12.139   9.356   7.943 -2.0852 -0.6858 -1.6444
53814SOL    HW270411  12.144   9.294   8.082  0.3574 -0.0969 -1.4306
53815SOL     OW70412  11.712   5.125   4.176 -0.1736  0.1336 -0.6572
53815SOL    HW170413  11.689   5.082   4.094  1.7298 -1.2182 -0.5286
53815SOL    HW270414  11.768   5.197   4.151 -2.3113  1.8745 -0.7556
53816SOL     OW70415   9.131   4.088   2.239 -0.0889  0.1737 -0.3187
53816SOL    HW170416   9.169   4.128   2.317 -0.5405 -2.1199  1.1555
53816SOL    HW270417   9.070   4.154   2.206  0.3246  1.3034  1.0782
53817SOL     OW70418  10.036   7.648   9.867  0.4346 -0.7302  0.6706
53817SOL    HW170419  10.088   7.711   9.918  0.5635 -0.0607 -0.2711
53817SOL    HW270420   9.945   7.673   9.883  0.3543 -1.9154  2.3363
53818SOL     OW70421  12.051   7.977  10.608  0.1700 -0.2385 -0.1644
53818SOL    HW170422  12.097   7.909  10.657  1.6096  0.7744 -0.0430
53818SOL    HW270423  12.120   8.035  10.577 -1.0107  1.1111 -0.3780
53819SOL     OW70424  11.275  10.374  11.307  0.0205  0.5848 -0.7249
53819SOL    HW170425  11.363  10.391  11.340 -0.1703 -0.2870  0.2594
53819SOL    HW270426  11.229  10.457  11.318 -0.0191  0.3515  1.1847
53820SOL     OW70427   1.165   1.512   4.070 -0.1882  0.2718  0.3030
53820SOL    HW170428   1.210   1.555   3.997 -0.8270 -0.4233 -0.5247
53820SOL    HW270429   1.141   1.584   4.128 -1.6085  1.1349 -1.2566
53821SOL     OW70430   3.970   5.889   3.149 -0.5096  0.1736 -0.5203
53821SOL    HW170431   4.004   5.976   3.168 -1.4221  1.1978 -3.1725
53821SOL    HW270432   3.897   5.877   3.209  0.4823  0.6008  0.8239
53822SOL     OW70433   1.923   9.047   2.294 -0.0436  0.1391  0.4193
53822SOL    HW170434   1.835   9.011   2.280 -0.0697 -0.0033  0.9145
53822SOL    HW270435   1.907   9.138   2.320 -0.0318  0.2021  0.2014
53823SOL     OW70436   0.175   4.764   6.014  0.3095  0.1075 -0.4040
53823SOL    HW170437   0.266   4.747   6.035  0.4220 -1.3231 -1.8580
53823SOL    HW270438   0.130   4.762   6.099  1.6592  1.3677  0.3926
53824SOL     OW70439   6.561  10.807   3.354  0.0195 -1.0226 -0.5329
53824SOL    HW170440   6.473  10.837   3.376  0.2891 -0.0820 -0.6933
53824SOL    HW270441   6.596  10.875   3.296  0.8802 -1.3382 -0.3976
53825SOL     OW70442   7.117   4.821   3.827  0.4064 -0.4165  0.2537
53825SOL    HW170443   7.149   4.852   3.743 -0.1392 -0.3470  0.0682
53825SOL    HW270444   7.071   4.739   3.807 -0.8457  0.2556  0.2785
53826SOL     OW70445   2.835   9.280   6.110  0.5781  0.2530 -0.1645
53826SOL    HW170446   2.825   9.367   6.071  1.0792  0.2337 -0.3395
53826SOL    HW270447   2.746   9.245   6.113  0.1775  1.2846  1.1135
53827SOL     OW70448  12.197   4.069   8.150 -0.2516  0.0355  0.1905
53827SOL    HW170449  12.256   4.134   8.112  1.6543 -1.0173  1.2090
53827SOL    HW270450  12.176   4.104   8.237  2.1002 -1.3672  1.4118
53828SOL     OW70451   7.244   3.740   1.546  0.2775 -0.2848  0.0890
53828SOL    HW170452   7.267   3.795   1.472  2.3782  0.5864  1.2978
53828SOL    HW270453   7.241   3.651   1.511  1.3415  0.0906 -1.0127
53829SOL     OW70454   3.433   6.204   0.555 -0.0260  0.2284 -0.0931
53829SOL    HW170455   3.433   6.169   0.466  1.1751  0.4765 -0.2108
53829SOL    HW270456   3.342   6.229   0.571 -0.3979 -0.5238 -0.9649
53830SOL     OW70457   6.501   4.030  11.298  0.1292  0.3013 -0.2971
53830SOL    HW170458   6.528   4.010  11.388 -1.7916 -0.0630  0.2452
53830SOL    HW270459   6.581   4.020  11.246  1.7739  2.3535  1.5909
53831SOL     OW70460  11.684   0.996  11.036 -0.0762 -0.1770  0.7371
53831SOL    HW170461  11.606   1.036  10.998 -0.8003  1.4276  3.5978
53831SOL    HW270462  11.757   1.035  10.987 -0.9021  2.6946  1.5406
53832SOL     OW70463  11.316  12.161  10.676  0.1487 -0.3480  0.0300
53832SOL    HW170464  11.227  12.179  10.707 -1.2138  0.3871 -3.7798
53832SOL    HW270465  11.340  12.237  10.624  2.9524 -0.6782  0.6820
53833SOL     OW70466   9.005   4.476  11.941 -0.8430  0.0581  1.0952
53833SOL    HW170467   9.053   4.407  11.895  1.1047  0.8457  1.8666
53833SOL    HW270468   8.913   4.451  11.932 -0.2745 -1.8552  0.1287
53834SOL     OW70469   7.986   2.394   5.802 -0.1809 -0.2708  0.4870
53834SOL    HW170470   7.996   2.345   5.883  0.7099 -0.3543  0.3361
53834SOL    HW270471   8.067   2.379   5.754 -0.8808 -0.6064 -0.6354
53835SOL     OW70472   0.525   1.306   2.079  0.2384  0.1049 -0.5088
53835SOL    HW170473   0.540   1.214   2.099  1.6384  0.1732 -1.1185
53835SOL    HW270474   0.506   1.307   1.986 -0.7353  0.3463 -0.3150
53836SOL     OW70475   0.988   0.301  11.290  0.3654 -0.0056 -0.1155
53836SOL    HW170476   0.959   0.239  11.356  0.6584  0.2142  0.2210
53836SOL    HW270477   1.079   0.320  11.312  0.6509 -0.3754 -0.9244
53837SOL     OW70478   3.739   9.989   8.313  0.0579 -0.0055 -0.1409
53837SOL    HW170479   3.795  10.038   8.251  2.4753  0.0804  1.9350
53837SOL    HW270480   3.762   9.898   8.297 -0.0535 -0.0509 -0.0337
53838SOL     OW70481   3.891   4.279   8.071 -0.0188 -0.2898  0.6475
53838SOL    HW170482   3.909   4.253   7.980 -0.6255 -0.7943  0.6659
53838SOL    HW270483   3.813   4.230   8.095 -0.2994  0.4158  1.2001
53839SOL     OW70484   8.506   1.037   1.692 -0.4511  0.2407 -0.1647
53839SOL    HW170485   8.427   0.983   1.691  0.8889 -1.9956  2.2746
53839SOL    HW270486   8.573   0.981   1.731  2.2142  2.2658 -1.4915
53840SOL     OW70487   4.599   3.684  12.193  0.0633 -0.0137 -0.3067
53840SOL    HW170488   4.596   3.778  12.208  0.6281  0.2614 -1.7428
53840SOL    HW270489   4.647   3.674  12.111 -1.5252 -1.4297 -1.1513
53841SOL     OW70490   1.675   5.404  12.422 -0.2398 -0.7638 -0.6954
53841SOL    HW170491   1.648   5.320  12.386 -0.1188 -1.3371  0.5366
53841SOL    HW270492   1.738   5.383  12.491 -0.2355  0.3286 -0.3354
53842SOL     OW70493   8.926  10.805   6.225  0.4176 -0.3343 -0.3053
53842SOL    HW170494   8.915  10.853   6.307  1.1534  0.2229 -0.5180
53842SOL    HW270495   8.949  10.873   6.161 -0.8175 -0.6531 -1.1370
53843SOL     OW70496   6.058   7.318   4.766 -0.4081  0.1112  0.3395
53843SOL    HW170497   6.148   7.351   4.776 -1.0881  2.0283  0.5388
53843SOL    HW270498   6.064   7.254   4.696  1.1542  0.0797  0.4589
53844SOL     OW70499   7.789   9.783   1.920  0.0937  0.3006 -0.3004
53844SOL    HW170500   7.696   9.760   1.914  0.4246 -1.0934 -0.2350
53844SOL    HW270501   7.800   9.854   1.856 -1.2954  1.4963  0.7127
53845SOL     OW70502   1.473  12.347   3.700  0.4893 -0.8156  0.0169
53845SOL    HW170503   1.387  12.304   3.702 -0.0823  0.3106  1.2015
53845SOL    HW270504   1.535  12.276   3.718 -0.3792 -1.2695  1.3664
53846SOL     OW70505   1.630   1.072   4.299  0.1382 -0.5294  0.1223
53846SOL    HW170506   1.726   1.074   4.301  0.2288 -1.8094 -1.4903
53846SOL    HW270507   1.604   1.148   4.352  2.0468  0.9401 -0.9146
53847SOL     OW70508   6.352  12.229   9.995  0.1274  0.8572 -0.6949
53847SOL    HW170509   6.430  12.279  10.021 -0.5115  1.3127  0.4495
53847SOL    HW270510   6.322  12.189  10.077 -0.6931  0.4752 -1.1748
53848SOL     OW70511   4.415   7.763   2.482  0.6759 -0.3729  0.6291
53848SOL    HW170512   4.490   7.821   2.464 -0.2888  0.9917  0.8399
53848SOL    HW270513   4.453   7.676   2.486  2.0112  0.0808 -0.9401
53849SOL     OW70514   0.132   6.101   4.048  0.0180  0.4401 -0.1415
53849SOL    HW170515   0.187   6.111   3.970  0.5645  2.5006  0.4386
53849SOL    HW270516   0.143   6.010   4.074  1.4866  0.2606 -1.2618
53850SOL     OW70517   4.354  11.257  11.639  0.0304  0.1013 -0.0988
53850SOL    HW170518   4.394  11.339  11.610 -0.8903  0.7554  0.4210
53850SOL    HW270519   4.373  11.253  11.733  2.7280 -1.8453 -0.6168
53851SOL     OW70520   5.721  11.725  10.133  0.2150 -0.3984 -0.3298
53851SOL    HW170521   5.641  11.769  10.104  1.4455  1.3661 -1.2128
53851SOL    HW270522   5.695  11.678  10.212 -1.5470  0.6664 -0.2175
53852SOL     OW70523   2.534   8.128   0.399  0.9635 -0.0695  0.0455
53852SOL    HW170524   2.599   8.142   0.467  2.0248 -1.7660 -0.5346
53852SOL    HW270525   2.522   8.033   0.397 -1.9936  0.2167  0.5101
53853SOL     OW70526   5.385   9.965   7.408 -0.0473 -0.2131  0.0270
53853SOL    HW170527   5.431  10.013   7.477  0.8419 -0.4718 -0.3787
53853SOL    HW270528   5.323  10.028   7.371 -0.0114  0.1413  0.5657
53854SOL     OW70529   5.367   2.687   3.481  0.0502  0.0666  0.1848
53854SOL    HW170530   5.450   2.702   3.437  1.0525  0.9803  2.2191
53854SOL    HW270531   5.390   2.639   3.561 -1.3898  0.2502  0.7546
53855SOL     OW70532   2.330  11.471  11.816  0.9756  0.3576 -0.2848
53855SOL    HW170533   2.395  11.414  11.857  1.3913  1.4732  0.6523
53855SOL    HW270534   2.251  11.458  11.867  1.8744  2.8513  1.9771
53856SOL     OW70535  11.434   0.830   0.877  0.1111 -0.4408 -0.0492
53856SOL    HW170536  11.439   0.776   0.798  0.5186  1.1825 -1.1729
53856SOL    HW270537  11.343   0.820   0.906 -0.2426 -0.5333 -1.1202
53857SOL     OW70538   2.444  11.721   7.043 -0.1586  0.5889 -0.1630
53857SOL    HW170539   2.412  11.796   6.994  0.2986  0.2040 -1.0780
53857SOL    HW270540   2.451  11.651   6.978 -0.8251 -0.3261  0.7224
53858SOL     OW70541   1.275   9.432   6.718 -0.5039  0.5075 -0.5425
53858SOL    HW170542   1.322   9.487   6.781  1.5741  0.0727 -1.6233
53858SOL    HW270543   1.288   9.475   6.634 -1.5281 -0.0030 -0.9831
53859SOL     OW70544  11.439   5.205  10.799  0.4639  0.5438  0.2175
53859SOL    HW170545  11.445   5.297  10.825  0.3268  0.5783  0.1322
53859SOL    HW270546  11.367   5.170  10.852  0.1518  0.6263 -0.1415
53860SOL     OW70547   3.146   4.873   2.810  0.6393  0.4206 -0.1974
53860SOL    HW170548   3.188   4.871   2.896  0.9073  0.4212 -0.3276
53860SOL    HW270549   3.067   4.819   2.821  0.1194  1.2533  0.3376
53861SOL     OW70550  11.966  11.073  10.227 -0.1548 -0.3509  0.1582
53861SOL    HW170551  12.031  11.124  10.178  0.4545 -1.7703 -0.5725
53861SOL    HW270552  11.899  11.051  10.162 -0.6591 -0.0677  0.5811
53862SOL     OW70553   3.559   0.365   2.600 -0.9825 -0.6225 -0.4735
53862SOL    HW170554   3.579   0.301   2.668 -0.2580  0.8299  0.7467
53862SOL    HW270555   3.633   0.361   2.540 -0.7103 -0.6083 -0.1414
53863SOL     OW70556   8.644   9.103   6.799 -0.0228  0.0843 -0.6358
53863SOL    HW170557   8.628   9.055   6.717  2.8459 -0.3136 -1.0617
53863SOL    HW270558   8.664   9.192   6.771 -1.0502  0.4703 -0.1791
53864SOL     OW70559   1.801   0.666  11.548 -0.1766 -0.2310  0.1585
53864SOL    HW170560   1.767   0.612  11.620 -0.7517 -1.3029 -0.8866
53864SOL    HW270561   1.741   0.649  11.475 -0.1014  1.4781 -0.3510
53865SOL     OW70562   7.227   6.714   6.584  0.1006  0.5495  0.0423
53865SOL    HW170563   7.141   6.692   6.619 -0.7090  1.9983 -0.9080
53865SOL    HW270564   7.288   6.663   6.636 -1.4169 -1.7835 -0.3196
53866SOL     OW70565   4.847   2.453   6.867 -0.0614 -0.4594  0.7399
53866SOL    HW170566   4.861   2.383   6.804 -1.4539 -2.4333  2.5199
53866SOL    HW270567   4.935   2.474   6.899  0.6030  0.1365 -1.2926
53867SOL     OW70568   2.569  10.485   1.289  0.0131  0.7502  0.1774
53867SOL    HW170569   2.540  10.531   1.368  0.0911  0.5229  0.3359
53867SOL    HW270570   2.646  10.435   1.316 -1.0853 -0.8719  0.4378
53868SOL     OW70571   4.248   4.890   5.104  0.0820  0.9518  0.1708
53868SOL    HW170572   4.172   4.949   5.105 -1.5820 -1.0976  0.2938
53868SOL    HW270573   4.262   4.871   5.012  0.1771  1.0018  0.1752
53869SOL     OW70574   9.383   5.200  10.931 -0.1511  0.9108  0.1719
53869SOL    HW170575   9.327   5.205  11.009 -1.8017  1.2131 -0.9653
53869SOL    HW270576   9.441   5.275  10.939 -1.1533  1.6773  0.5187
53870SOL     OW70577   1.553   5.508   6.106 -0.2348  0.2144  0.2347
53870SOL    HW170578   1.552   5.602   6.088  2.1811  0.0137 -1.4115
53870SOL    HW270579   1.645   5.484   6.102 -0.7246 -2.1139  1.4371
53871SOL     OW70580   2.539   7.360   2.862  0.1080  0.0105 -0.0815
53871SOL    HW170581   2.472   7.374   2.929 -0.6333  0.2858 -0.8617
53871SOL    HW270582   2.513   7.280   2.818 -1.0668  1.3300 -1.9266
53872SOL     OW70583   0.137   4.636  11.810 -0.0010  0.1459 -0.2059
53872SOL    HW170584   0.192   4.715  11.812 -2.0140  1.6246 -0.2536
53872SOL    HW270585   0.049   4.669  11.790 -1.1223 -1.9978  0.9202
53873SOL     OW70586   3.605   3.956   1.090  0.8596 -0.2841  0.4912
53873SOL    HW170587   3.570   3.950   1.179 -1.7859 -0.5559 -0.4609
53873SOL    HW270588   3.558   4.030   1.052  0.9717 -0.9817 -1.0599
53874SOL     OW70589  10.649   4.543   5.823 -0.4340 -0.6209 -0.2956
53874SOL    HW170590  10.701   4.492   5.885 -1.4359 -0.4657  0.6988
53874SOL    HW270591  10.650   4.491   5.742 -0.0783 -1.4016  0.2021
53875SOL     OW70592  11.578   7.352   0.707  0.4096  0.3964  0.1612
53875SOL    HW170593  11.593   7.262   0.734  1.6965  1.0650  1.8337
53875SOL    HW270594  11.551   7.345   0.615  0.8060 -1.6422  0.1489
53876SOL     OW70595   4.913   1.093   4.425  0.5316  0.3900  0.2658
53876SOL    HW170596   4.870   1.166   4.381  0.6423  2.2064  2.9693
53876SOL    HW270597   5.004   1.097   4.396  0.1697  0.2087 -0.9316
53877SOL     OW70598   4.297   5.657   5.279  0.2450  0.2104  0.0857
53877SOL    HW170599   4.341   5.720   5.221  0.3464  0.9280  0.9161
53877SOL    HW270600   4.223   5.625   5.228 -0.1946  1.5061 -0.1278
53878SOL     OW70601   1.314   1.247   7.128  0.1701  0.5419 -0.2352
53878SOL    HW170602   1.378   1.208   7.188  1.1793  1.3262 -0.7651
53878SOL    HW270603   1.321   1.194   7.048  0.6787  1.0598 -0.5390
53879SOL     OW70604   7.508   4.357  11.498  0.8504 -0.1190 -0.4298
53879SOL    HW170605   7.574   4.426  11.513  1.3757 -0.6430 -0.2908
53879SOL    HW270606   7.555   4.275  11.516  0.6152 -0.6003 -1.9292
53880SOL     OW70607  11.962   9.038  11.182 -0.1778  0.0506 -0.4557
53880SOL    HW170608  12.056   9.050  11.188 -0.1864 -0.4599  1.1521
53880SOL    HW270609  11.925   9.104  11.242 -0.7703 -0.4319 -0.2781
53881SOL     OW70610  10.231   3.031  12.404 -0.4852  0.6192  0.2162
53881SOL    HW170611  10.318   3.071  12.406 -0.9430  1.6520  2.4065
53881SOL    HW270612  10.246   2.938  12.422  0.1825  0.7549  0.3709
53882SOL     OW70613   5.549  12.121  10.710 -0.4345 -0.0315  0.3381
53882SOL    HW170614   5.610  12.055  10.677 -1.0552  0.4959 -2.0471
53882SOL    HW270615   5.601  12.201  10.713 -0.2698 -0.1572  1.1259
53883SOL     OW70616   3.928   9.113   2.134 -0.3246  0.0064 -0.3042
53883SOL    HW170617   4.024   9.114   2.130 -0.1277 -2.1564  1.5895
53883SOL    HW270618   3.899   9.124   2.044  1.7395 -0.3181 -1.0518
53884SOL     OW70619   7.865   3.955   5.897 -0.1408 -0.1068  0.3114
53884SOL    HW170620   7.844   3.862   5.892  0.3922 -0.2954  1.4176
53884SOL    HW270621   7.935   3.967   5.832 -1.8658  0.0546 -1.6413
53885SOL     OW70622   3.263   7.194   9.346 -0.3044 -0.2946 -0.2119
53885SOL    HW170623   3.233   7.147   9.269 -0.1390  0.7403 -0.9329
53885SOL    HW270624   3.183   7.223   9.389 -0.3890 -0.5261 -0.2107
53886SOL     OW70625   8.253   9.810   5.913  0.1178 -0.2997  0.2807
53886SOL    HW170626   8.169   9.810   5.867  0.2804 -0.8250 -0.0232
53886SOL    HW270627   8.319   9.816   5.844  0.3456 -0.4624  0.4797
53887SOL     OW70628  10.093  11.855   5.324 -0.3085 -0.1085  0.0299
53887SOL    HW170629  10.123  11.944   5.340 -1.4135  0.1534  0.7566
53887SOL    HW270630  10.127  11.832   5.238  1.1851  0.4893  0.4301
53888SOL     OW70631  10.691  11.953   7.477 -0.3189  0.3048  0.0759
53888SOL    HW170632  10.610  11.998   7.498 -0.9486 -0.3460 -0.8929
53888SOL    HW270633  10.683  11.929   7.385  0.5687 -0.5991  0.2107
53889SOL     OW70634   0.688   0.536   8.477 -0.6901 -0.3027  0.0787
53889SOL    HW170635   0.778   0.533   8.510  0.5245 -0.2730 -2.8892
53889SOL    HW270636   0.649   0.612   8.520  0.1386 -1.2571  2.6506
53890SOL     OW70637   8.768   1.754   1.660  0.1472 -0.6155  0.1863
53890SOL    HW170638   8.727   1.728   1.578 -2.8004  2.0458  0.6085
53890SOL    HW270639   8.856   1.782   1.635 -0.5220 -0.3193 -2.0260
53891SOL     OW70640   9.423   3.876   4.781 -0.1016  0.4194  0.0768
53891SOL    HW170641   9.436   3.971   4.785  0.9474  0.2687  0.5717
53891SOL    HW270642   9.462   3.843   4.861 -1.1484 -0.3760  0.2838
53892SOL     OW70643  11.682   8.814   4.493 -0.1333  0.5875 -0.0041
53892SOL    HW170644  11.771   8.849   4.483 -0.0634  1.0824  1.8905
53892SOL    HW270645  11.693   8.738   4.549 -0.7773 -0.1634 -0.8737
53893SOL     OW70646   7.900   1.394   4.191 -0.5174 -0.2872 -0.0486
53893SOL    HW170647   7.834   1.327   4.207 -0.4419 -0.4673 -0.4841
53893SOL    HW270648   7.939   1.369   4.108 -1.3635  1.0079 -0.8660
53894SOL     OW70649   1.021   6.513   1.676 -0.5473  0.0172  0.5389
53894SOL    HW170650   1.037   6.605   1.693  0.8968 -0.3719  1.3633
53894SOL    HW270651   1.108   6.473   1.671 -1.1385 -1.2734 -0.0034
53895SOL     OW70652   8.346   0.635  12.403 -0.0097  0.3750 -0.2318
53895SOL    HW170653   8.259   0.604  12.380 -0.6820  0.2289  2.1741
53895SOL    HW270654   8.330   0.713  12.457  1.2942 -0.0957  0.8923
53896SOL     OW70655  10.044   9.073  11.204  0.3117 -0.1985 -0.1198
53896SOL    HW170656  10.123   9.051  11.155 -0.5147  0.4498 -1.8331
53896SOL    HW270657  10.013   8.990  11.239  0.6493 -0.7897 -1.1754
53897SOL     OW70658   3.644  10.373  12.273 -0.0314 -0.0105 -0.2307
53897SOL    HW170659   3.585  10.392  12.346  0.3148  1.1292 -0.2241
53897SOL    HW270660   3.675  10.284  12.290  0.6221  0.4910  1.4368
53898SOL     OW70661   2.561   6.933   4.087  0.0967  0.3951 -0.1826
53898SOL    HW170662   2.650   6.917   4.118 -0.1987 -0.6586  0.1626
53898SOL    HW270663   2.541   7.023   4.113 -0.0420 -0.3327  2.4794
53899SOL     OW70664   8.591   5.436   0.458  0.1074 -0.2759 -0.3339
53899SOL    HW170665   8.613   5.495   0.531  0.0767 -1.2099  0.4423
53899SOL    HW270666   8.508   5.471   0.424  0.0150  0.0575  0.2118
53900SOL     OW70667   8.156   5.323  11.059  0.8053  0.1028  0.2531
53900SOL    HW170668   8.178   5.241  11.015  3.7706  0.9155 -0.0148
53900SOL    HW270669   8.154   5.388  10.989 -1.0118  0.3952  0.5360
53901SOL     OW70670   6.873  12.442   7.413  0.4176 -0.2511 -0.1042
53901SOL    HW170671   6.797  12.418   7.359 -0.6369  1.8983  0.3290
53901SOL    HW270672   6.846  12.522   7.458  2.1341 -0.6773  1.8334
53902SOL     OW70673  10.531   4.346   6.524  0.8941  0.2046  0.6394
53902SOL    HW170674  10.619   4.313   6.508  0.3224 -0.9452 -0.2949
53902SOL    HW270675  10.524   4.424   6.470  1.0792 -0.1493  0.0941
53903SOL     OW70676  10.027  10.762   2.841  0.0189 -0.1126  0.1047
53903SOL    HW170677   9.959  10.718   2.892  0.4907  0.3735  1.1830
53903SOL    HW270678  10.064  10.693   2.786 -1.2132 -0.4214 -0.3727
53904SOL     OW70679   5.968   4.213   6.082 -0.4621 -0.3198 -0.1136
53904SOL    HW170680   5.956   4.118   6.091  0.7275 -0.6119 -1.3066
53904SOL    HW270681   6.044   4.232   6.136 -0.8799  0.0184  0.3617
53905SOL     OW70682   3.870   8.274   1.583  0.2754  0.0132 -0.0900
53905SOL    HW170683   3.929   8.227   1.642  1.7607  0.4481 -1.1567
53905SOL    HW270684   3.860   8.360   1.622 -0.5330 -0.3941  0.6375
53906SOL     OW70685   0.178   8.613   3.211 -0.1955  0.3710  0.2922
53906SOL    HW170686   0.174   8.523   3.244  0.5237 -0.2581 -1.1988
53906SOL    HW270687   0.254   8.613   3.152 -0.4082  1.8550 -0.0284
53907SOL     OW70688   2.828   4.275  12.082 -0.2272  0.3552 -0.3405
53907SOL    HW170689   2.869   4.194  12.052  2.4016  1.4215  0.1182
53907SOL    HW270690   2.741   4.273  12.043  0.5974 -1.5576 -2.2938
53908SOL     OW70691   8.133   3.383   2.804 -0.2347  0.4451  0.4918
53908SOL    HW170692   8.155   3.476   2.808  1.5163  0.1221 -0.4206
53908SOL    HW270693   8.156   3.350   2.891  1.8708  0.3839 -0.0251
53909SOL     OW70694   1.793   6.414  12.253 -0.3757  0.0284 -0.1655
53909SOL    HW170695   1.771   6.348  12.187 -0.0019  0.9018 -1.1847
53909SOL    HW270696   1.715   6.469  12.259  0.5011  1.5126 -1.8149
53910SOL     OW70697   9.134   0.337   1.912  0.5822  0.1633 -0.0829
53910SOL    HW170698   9.165   0.278   1.981 -0.6216 -2.6015 -1.7718
53910SOL    HW270699   9.039   0.338   1.923  0.5258  1.3350 -0.5128
53911SOL     OW70700   8.352   6.108   8.954 -0.8876  0.9884 -0.1852
53911SOL    HW170701   8.301   6.062   9.020 -0.0199  1.3276  0.7475
53911SOL    HW270702   8.376   6.191   8.996 -1.0146  1.5637 -1.2210
53912SOL     OW70703   2.107   2.619  11.488  0.2410  0.6827  0.0818
53912SOL    HW170704   2.198   2.645  11.503  0.8593 -0.3989 -1.4863
53912SOL    HW270705   2.094   2.632  11.394 -0.9644  0.0418  0.1429
53913SOL     OW70706   0.497   1.925   8.021 -0.1552 -0.1010 -0.2207
53913SOL    HW170707   0.436   1.851   8.026  0.7766 -1.3232 -3.6918
53913SOL    HW270708   0.442   2.002   8.027 -1.3648 -1.0619  1.9151
53914SOL     OW70709  10.936   9.164   3.245 -0.0413  0.1832 -0.2566
53914SOL    HW170710  11.002   9.096   3.255  0.4253  0.6396 -0.2275
53914SOL    HW270711  10.984   9.246   3.253 -0.7613  0.5264  0.7999
53915SOL     OW70712  11.482   1.452   2.984  0.6082 -0.4923 -0.1789
53915SOL    HW170713  11.554   1.507   2.955  0.4083 -0.1866 -0.0983
53915SOL    HW270714  11.464   1.394   2.909 -0.3370  0.7250 -0.9394
53916SOL     OW70715   8.158   2.621   7.844 -0.1328 -0.2458 -0.7809
53916SOL    HW170716   8.149   2.657   7.756 -1.1760  0.2260 -0.5010
53916SOL    HW270717   8.248   2.589   7.848  0.1578  0.4022 -1.7657
53917SOL     OW70718  12.141   8.372   4.688  0.7482  0.2591 -0.0885
53917SOL    HW170719  12.109   8.343   4.603 -0.1664  1.6346 -0.2556
53917SOL    HW270720  12.109   8.306   4.750  3.7297 -2.2992 -1.0079
53918SOL     OW70721  10.236   6.662   5.517  0.6123 -0.5695  0.2342
53918SOL    HW170722  10.160   6.676   5.573  2.6928  1.0586  2.8783
53918SOL    HW270723  10.282   6.587   5.556  1.1723 -0.5932 -0.4315
53919SOL     OW70724   4.639  11.918   2.862  0.2687 -0.3998  0.0054
53919SOL    HW170725   4.682  11.872   2.934  1.6676  0.6526 -0.1122
53919SOL    HW270726   4.567  11.966   2.904  0.4695 -0.5582  0.5413
53920SOL     OW70727   5.426   7.914   3.863 -0.1635  0.2961 -0.2857
53920SOL    HW170728   5.512   7.915   3.820  0.3668  0.3581  0.7615
53920SOL    HW270729   5.387   7.830   3.837 -0.2471  0.7153 -1.6223
53921SOL     OW70730  10.270  12.322   4.384 -0.3226 -0.2702 -0.3748
53921SOL    HW170731  10.350  12.362   4.351  0.1411  0.6765  1.7146
53921SOL    HW270732  10.292  12.296   4.474 -2.7804  1.6026  0.9082
53922SOL     OW70733  10.572   6.639   7.031  0.2150 -0.0457 -0.1188
53922SOL    HW170734  10.513   6.625   6.956 -0.4168 -0.5193  0.4589
53922SOL    HW270735  10.605   6.552   7.052 -1.0657 -0.2061  1.3299
53923SOL     OW70736   6.403   7.337   6.941 -0.3279  0.1404  0.1449
53923SOL    HW170737   6.317   7.298   6.960 -0.7640  1.8877  2.1422
53923SOL    HW270738   6.388   7.392   6.865 -1.5801  2.0522  1.6918
53924SOL     OW70739   8.586   8.051   5.294  0.2476 -0.5008 -0.1023
53924SOL    HW170740   8.676   8.048   5.326  0.3849  1.2049 -0.2121
53924SOL    HW270741   8.534   8.069   5.373  0.4626  2.4720 -0.5166
53925SOL     OW70742  10.123   3.346  12.434  0.2500  0.2728  0.1335
53925SOL    HW170743  10.093   3.426  12.478 -2.1431  0.4743 -1.6875
53925SOL    HW270744  10.111   3.277  12.499 -0.1980  0.9966  0.8366
53926SOL     OW70745   9.437   3.202  12.470 -0.2860  0.0097 -0.4304
53926SOL    HW170746   9.381   3.256  12.526  0.0963  0.4252 -0.4399
53926SOL    HW270747   9.499   3.162  12.531 -0.6331 -0.5050 -0.4107
53927SOL     OW70748   0.712   6.711   0.390  0.3719 -0.7803  0.7030
53927SOL    HW170749   0.799   6.681   0.415  1.1590 -0.4731 -1.4848
53927SOL    HW270750   0.727   6.793   0.343 -1.3825  0.9524  2.8870
53928SOL     OW70751   7.465  12.575   4.862  0.3219  0.3598  0.0381
53928SOL    HW170752   7.393  12.618   4.908 -0.6091  0.2203 -1.2470
53928SOL    HW270753   7.534  12.567   4.928 -0.4656  1.3975  1.0187
53929SOL     OW70754   2.225   9.030   7.140 -0.4734 -0.2028  0.2619
53929SOL    HW170755   2.156   9.096   7.153 -1.0563 -0.3016 -1.9199
53929SOL    HW270756   2.191   8.974   7.071  1.3201 -0.9763 -0.0432
53930SOL     OW70757  11.181   8.849   5.195 -0.1974  0.3906 -0.9506
53930SOL    HW170758  11.135   8.840   5.111  1.7475 -0.7770 -1.9558
53930SOL    HW270759  11.162   8.768   5.241 -0.1062  0.4168 -0.8677
53931SOL     OW70760   8.558  10.480  12.416  0.2668  0.2521  0.1741
53931SOL    HW170761   8.645  10.465  12.452  0.2885  1.3354  0.5954
53931SOL    HW270762   8.560  10.570  12.383 -1.5778  1.4344  2.9262
53932SOL     OW70763   5.066   1.483   4.124  0.4896 -0.5553  0.3715
53932SOL    HW170764   5.119   1.545   4.075  0.9252 -0.4104  1.0257
53932SOL    HW270765   5.107   1.477   4.210  0.6681 -2.0075  0.2179
53933SOL     OW70766   8.423   5.033   4.578  0.1603 -0.3630  0.4279
53933SOL    HW170767   8.327   5.029   4.580  0.1278 -0.7389 -0.7210
53933SOL    HW270768   8.444   5.121   4.609 -0.6354  0.2204 -0.6156
53934SOL     OW70769   1.068   2.677   5.158  0.2253  0.0670  0.0026
53934SOL    HW170770   0.989   2.730   5.169  0.5598  0.4894  0.3993
53934SOL    HW270771   1.047   2.594   5.202 -0.4264 -0.2738 -0.9183
53935SOL     OW70772   0.733   0.224   2.952  0.1633  0.0719 -0.3083
53935SOL    HW170773   0.639   0.237   2.939 -0.0173  0.6178  1.3080
53935SOL    HW270774   0.746   0.130   2.944 -0.8070 -0.1964  0.9095
53936SOL     OW70775   0.754  10.431   8.414 -0.2743  0.7554 -0.6766
53936SOL    HW170776   0.802  10.491   8.472 -1.7648  0.3645  1.0629
53936SOL    HW270777   0.689  10.390   8.471  1.8084 -3.9953 -1.2563
53937SOL     OW70778   4.791   2.572  10.619  0.2136  0.2106 -0.2513
53937SOL    HW170779   4.851   2.599  10.550  2.3613  0.3706  1.5434
53937SOL    HW270780   4.838   2.501  10.665 -1.6403 -0.7150  0.3193
53938SOL     OW70781   9.257   0.671   8.397 -0.1817  0.9366  0.0467
53938SOL    HW170782   9.348   0.696   8.382  0.0221  1.6054  2.1406
53938SOL    HW270783   9.241   0.602   8.332  1.7317  0.9352 -0.4993
53939SOL     OW70784   3.947  10.566   8.687  0.1275 -0.2304  0.3391
53939SOL    HW170785   3.945  10.492   8.626  1.8115  0.1018 -0.1723
53939SOL    HW270786   3.901  10.535   8.765  1.4823 -2.1287  0.4439
53940SOL     OW70787  11.237   3.259   4.323  0.0956 -1.0112 -0.5664
53940SOL    HW170788  11.221   3.182   4.268 -1.0344 -0.7478 -0.6393
53940SOL    HW270789  11.328   3.251   4.351  0.5282 -1.4457 -2.0188
53941SOL     OW70790   7.645   3.895   9.537  0.5519  0.5407 -0.3378
53941SOL    HW170791   7.697   3.954   9.481  0.3440  0.2108 -0.8879
53941SOL    HW270792   7.577   3.861   9.479  1.4809 -1.3019 -0.4127
53942SOL     OW70793   6.429  12.249  10.372  0.4259 -0.3490  0.1379
53942SOL    HW170794   6.365  12.271  10.439 -1.0652 -0.9790 -1.0321
53942SOL    HW270795   6.438  12.329  10.320  1.0171 -0.0970  0.6071
53943SOL     OW70796   8.737   6.134   3.261  0.2332  0.0399 -0.5778
53943SOL    HW170797   8.722   6.069   3.192  0.2041 -0.1692 -0.3768
53943SOL    HW270798   8.818   6.177   3.237  0.6911 -0.6408 -0.2795
53944SOL     OW70799   3.225   5.887   9.452 -0.1710  0.4758 -0.5271
53944SOL    HW170800   3.158   5.956   9.454 -1.4369 -0.6737 -1.4152
53944SOL    HW270801   3.184   5.815   9.405  1.0872 -0.9362  0.4325
53945SOL     OW70802   0.450  12.248   7.052  0.3231  0.5789  0.6164
53945SOL    HW170803   0.357  12.273   7.057  0.3525  1.0609 -0.8564
53945SOL    HW270804   0.465  12.232   6.959  1.7788  0.7059  0.8154
53946SOL     OW70805   0.062   6.443  11.335  0.2965 -0.0609  0.0370
53946SOL    HW170806   0.090   6.456  11.426  0.0078  0.1588  0.0974
53946SOL    HW270807  -0.034   6.441  11.340  0.2732  0.1698 -0.2907
53947SOL     OW70808   9.527   7.486   7.365 -0.2735  0.2069  0.2412
53947SOL    HW170809   9.549   7.571   7.403  3.3046  0.4276 -1.8427
53947SOL    HW270810   9.535   7.500   7.270 -0.4207 -2.2436 -0.1856
53948SOL     OW70811   2.717   0.740   5.273 -0.2258 -0.7817  0.2618
53948SOL    HW170812   2.796   0.792   5.290 -2.1152  1.7938  2.1369
53948SOL    HW270813   2.684   0.774   5.190 -0.7253  0.1600  0.8151
53949SOL     OW70814   7.451   9.332   3.104 -0.1147  0.0649 -0.5644
53949SOL    HW170815   7.406   9.316   3.187  0.5465 -0.7043 -0.3491
53949SOL    HW270816   7.506   9.255   3.091  1.6425  1.2750 -0.5004
53950SOL     OW70817   4.916   6.078   7.962  0.4750  0.2290 -0.2894
53950SOL    HW170818   4.961   6.040   7.886 -2.3425  0.1930 -2.0870
53950SOL    HW270819   4.934   6.172   7.956  0.0186  0.2697 -1.2497
53951SOL     OW70820  11.836   3.687  11.270  0.0924  0.5131  0.4904
53951SOL    HW170821  11.797   3.739  11.199  0.2717  0.0238  0.0290
53951SOL    HW270822  11.930   3.703  11.264  0.1408  0.2044  0.4003
53952SOL     OW70823   9.263   6.010   1.645 -0.3176  0.3226 -0.1862
53952SOL    HW170824   9.326   6.061   1.696 -1.3064  1.8190 -0.4138
53952SOL    HW270825   9.215   5.959   1.711  2.3047 -2.3275 -0.1401
53953SOL     OW70826   9.418   8.563   8.260 -0.0134  0.1600 -0.1746
53953SOL    HW170827   9.511   8.579   8.268  0.0417 -0.9451  2.0905
53953SOL    HW270828   9.407   8.471   8.282 -1.7312  0.4908  0.5273
53954SOL     OW70829   0.021   0.970   5.924 -0.8772 -0.3965 -0.4687
53954SOL    HW170830  -0.041   0.941   5.991 -0.2528  1.5080  1.0433
53954SOL    HW270831   0.085   0.899   5.918 -0.6482 -0.4071  1.3994
53955SOL     OW70832   0.584   7.336   5.412  0.0992  0.3636 -0.1615
53955SOL    HW170833   0.619   7.363   5.497 -0.4197 -2.7397  1.1696
53955SOL    HW270834   0.658   7.294   5.368 -0.0251  0.6027 -0.6055
53956SOL     OW70835   7.996  12.036   3.146  0.4669 -0.0393  0.3756
53956SOL    HW170836   8.049  11.998   3.076 -0.7423 -0.6701 -0.2346
53956SOL    HW270837   7.936  11.966   3.171 -0.3073  0.7581  0.8098
53957SOL     OW70838   4.841  12.205   8.253  0.4477 -0.1462  0.2069
53957SOL    HW170839   4.777  12.208   8.324  1.1606  2.1850  0.8186
53957SOL    HW270840   4.926  12.195   8.298  0.8719  0.9841 -0.3221
53958SOL     OW70841   9.075   3.868   7.643 -0.3670 -0.3294 -0.5561
53958SOL    HW170842   8.987   3.866   7.605 -0.2819 -0.6113 -0.7378
53958SOL    HW270843   9.123   3.800   7.597 -0.3850 -0.9722  0.3565
53959SOL     OW70844   7.273  12.370   5.101  0.6870 -0.0628 -0.4921
53959SOL    HW170845   7.329  12.412   5.166  0.7713  2.1205 -1.8726
53959SOL    HW270846   7.324  12.296   5.068  1.2599 -0.2567  0.7984
53960SOL     OW70847   1.944   5.852   5.221 -0.2871  0.0070 -0.2771
53960SOL    HW170848   1.991   5.907   5.158  0.0981  1.0973  0.9086
53960SOL    HW270849   1.941   5.765   5.180 -0.4509  0.7795 -1.9665
53961SOL     OW70850   2.811   4.045   7.494 -0.8041  0.2696  0.3932
53961SOL    HW170851   2.821   4.116   7.557 -1.2862  0.8866 -0.2123
53961SOL    HW270852   2.781   3.971   7.547 -1.7889  0.9424  0.8073
53962SOL     OW70853  10.858   1.637   5.044 -0.8993  0.4681 -0.4873
53962SOL    HW170854  10.835   1.636   4.951  0.0864 -3.4734 -0.8724
53962SOL    HW270855  10.779   1.608   5.089 -0.7412  0.2158 -0.3659
53963SOL     OW70856   2.990   7.091   7.037 -0.3311 -0.0511  0.2798
53963SOL    HW170857   3.021   7.157   7.098  0.5964 -0.7393  0.5887
53963SOL    HW270858   2.895   7.105   7.032 -0.3387  0.4305  1.3800
53964SOL     OW70859   2.140  10.156   8.765  0.3581 -0.1401  0.3926
53964SOL    HW170860   2.157  10.250   8.768 -0.4794  0.0428 -0.2156
53964SOL    HW270861   2.199  10.123   8.697 -1.7057  0.5161 -1.8390
53965SOL     OW70862   1.343  10.411   8.285  0.3763 -0.1340  0.0701
53965SOL    HW170863   1.427  10.420   8.330 -0.4431  1.1295  1.4087
53965SOL    HW270864   1.280  10.392   8.354 -0.4713 -1.0482 -0.9150
53966SOL     OW70865   9.619   0.982   5.090 -0.3819 -0.2890  0.4531
53966SOL    HW170866   9.549   1.030   5.134  1.0111  0.5378  1.8220
53966SOL    HW270867   9.578   0.950   5.009 -1.9274  1.4106  0.5068
53967SOL     OW70868   2.642   2.826   1.919  0.0543 -0.0658  0.5207
53967SOL    HW170869   2.692   2.901   1.951 -1.0655  0.5405  0.9413
53967SOL    HW270870   2.589   2.862   1.847 -0.9118 -0.2902  1.0925
53968SOL     OW70871   3.587  12.353   5.666  0.0446 -0.5137  0.5470
53968SOL    HW170872   3.654  12.322   5.725 -0.3003 -1.0224  0.6788
53968SOL    HW270873   3.631  12.418   5.611  1.4898 -2.9944 -1.4570
53969SOL     OW70874   8.268  11.891   8.987  0.3416  0.0939  0.1593
53969SOL    HW170875   8.174  11.872   8.987  0.1391  0.9702  1.2236
53969SOL    HW270876   8.276  11.967   8.930  0.2075  0.7837  1.0330
53970SOL     OW70877   2.018   5.597   8.790 -0.6902  0.2524 -0.3131
53970SOL    HW170878   1.970   5.523   8.755  0.7374 -0.8363 -0.0842
53970SOL    HW270879   2.098   5.559   8.828 -1.7000  1.3971  3.4441
53971SOL     OW70880   0.762   1.033   6.096 -0.4632 -0.4087  1.0538
53971SOL    HW170881   0.797   1.105   6.043 -0.1150 -0.1272  1.6563
53971SOL    HW270882   0.831   0.967   6.096 -1.1254 -1.1274 -0.2177
53972SOL     OW70883  12.442   6.770   4.142  0.0966  0.5216  0.7112
53972SOL    HW170884  12.447   6.699   4.206 -2.2896  0.6665  1.1687
53972SOL    HW270885  12.386   6.735   4.073 -0.0394  1.5160  0.3130
53973SOL     OW70886  12.472  11.712   6.902  0.2203 -0.0974 -0.2741
53973SOL    HW170887  12.544  11.649   6.889 -1.0605 -1.6735 -0.0987
53973SOL    HW270888  12.442  11.696   6.991  0.6056  1.6192  0.1980
53974SOL     OW70889   8.181   8.316   3.274 -0.5411  0.1546 -0.5585
53974SOL    HW170890   8.224   8.283   3.195 -1.0970 -0.5150 -0.5914
53974SOL    HW270891   8.121   8.247   3.299  1.3616 -0.7397  1.8858
53975SOL     OW70892   9.415   0.151   0.224 -0.2024 -0.0919 -0.0895
53975SOL    HW170893   9.380   0.097   0.295  0.4540  0.1629  0.4360
53975SOL    HW270894   9.378   0.112   0.145 -0.5623 -0.6793  0.3548
53976SOL     OW70895   3.263   5.843   3.800  0.1030 -0.0075 -0.0128
53976SOL    HW170896   3.233   5.837   3.709 -1.0977 -0.2261  0.3830
53976SOL    HW270897   3.218   5.771   3.845 -0.4779  0.9860  1.0552
53977SOL     OW70898   9.836   9.828   5.651  0.6483 -0.8203  0.7066
53977SOL    HW170899   9.792   9.821   5.566  0.7925  0.1594  0.5290
53977SOL    HW270900   9.835   9.740   5.687  2.0966 -1.6318 -1.0725
53978SOL     OW70901  12.495   6.523   5.705 -0.3312 -0.7926  0.3096
53978SOL    HW170902  12.533   6.586   5.643 -0.4096  0.1570  1.2072
53978SOL    HW270903  12.545   6.443   5.690  2.2904  0.4565  1.6378
53979SOL     OW70904   3.542   5.512   0.990  0.3598 -0.6193  0.0712
53979SOL    HW170905   3.473   5.578   0.991 -0.4386 -1.4396  0.7726
53979SOL    HW270906   3.584   5.518   1.075  0.3083 -0.9830  0.1261
53980SOL     OW70907   7.338   6.021   7.708  0.6553  0.0270 -0.1122
53980SOL    HW170908   7.404   6.087   7.688 -0.1877  1.3101  1.1209
53980SOL    HW270909   7.291   6.008   7.626 -0.0250  2.0084 -0.0886
53981SOL     OW70910   4.697   2.383   7.493  0.4543  0.0880 -0.3080
53981SOL    HW170911   4.745   2.364   7.412 -0.9594 -1.2490 -0.8842
53981SOL    HW270912   4.737   2.326   7.559 -0.5035 -1.2943 -0.8683
53982SOL     OW70913   8.008   2.788   6.028 -0.1639 -0.2367  0.1207
53982SOL    HW170914   8.051   2.741   5.957  1.8259  2.5160 -0.7064
53982SOL    HW270915   8.081   2.822   6.081 -1.3630  2.3145  0.2863
53983SOL     OW70916  10.330   4.963   4.585  0.1894  0.5267  0.7565
53983SOL    HW170917  10.346   4.999   4.672  0.2720  2.1583  0.0987
53983SOL    HW270918  10.249   4.912   4.594 -0.5231  1.7590  1.4981
53984SOL     OW70919   7.758   8.005   2.369  0.4316  0.0891  0.2570
53984SOL    HW170920   7.691   8.046   2.315  0.8799  0.2686 -0.1622
53984SOL    HW270921   7.739   7.911   2.363  0.6149  0.0908 -0.3974
53985SOL     OW70922   7.486   9.424   0.478 -0.0656 -1.0273 -0.8289
53985SOL    HW170923   7.425   9.442   0.550  0.4073 -1.3005 -0.3490
53985SOL    HW270924   7.522   9.338   0.499  1.3694 -0.3708 -0.4545
53986SOL     OW70925   0.910  12.472   7.837  0.1995  0.0559  1.1322
53986SOL    HW170926   0.817  12.490   7.849  0.3095  0.4021  1.5115
53986SOL    HW270927   0.942  12.544   7.783  0.3884  0.3352  1.6043
53987SOL     OW70928   6.768   9.320   3.285  0.2358  0.2940  0.0395
53987SOL    HW170929   6.855   9.351   3.312  0.7300 -1.2275  0.2928
53987SOL    HW270930   6.736   9.271   3.360  0.4612 -1.7034 -1.0917
53988SOL     OW70931  11.460   1.038   5.028  0.4522  0.1827  0.1282
53988SOL    HW170932  11.429   1.091   5.101  0.2374 -1.1139  1.0001
53988SOL    HW270933  11.520   0.975   5.067  0.1710 -0.6739 -0.7755
53989SOL     OW70934  10.254  10.144  12.138 -0.1906 -0.2162 -0.0077
53989SOL    HW170935  10.212  10.070  12.181  0.0763 -1.0986 -1.2141
53989SOL    HW270936  10.215  10.146  12.050  1.0131  0.0051 -0.5587
53990SOL     OW70937   4.224  10.838   9.691  0.2003  0.4713 -0.1609
53990SOL    HW170938   4.309  10.880   9.677  0.2615  1.0205  1.6544
53990SOL    HW270939   4.217  10.774   9.621  2.3609  0.0351 -0.0189
53991SOL     OW70940  10.271   1.762  11.086  0.3750 -0.0918  0.4224
53991SOL    HW170941  10.252   1.844  11.041  0.1540 -0.5147 -0.2738
53991SOL    HW270942  10.365   1.766  11.106  0.6911 -0.3081 -0.9486
53992SOL     OW70943  11.019   6.402  10.031 -0.1197 -0.0753 -0.2024
53992SOL    HW170944  11.101   6.353  10.043 -0.0608  0.1073  0.1523
53992SOL    HW270945  10.953   6.335  10.016 -0.0673 -0.2801  0.4417
53993SOL     OW70946   5.702   5.863   1.644 -0.0123  0.1330  0.5484
53993SOL    HW170947   5.619   5.882   1.688 -1.1829 -1.1452 -0.9923
53993SOL    HW270948   5.721   5.942   1.593  0.3675  0.8893  1.8373
53994SOL     OW70949   7.248   6.236  11.204  0.2201  0.8549  0.6245
53994SOL    HW170950   7.242   6.327  11.176 -0.2709  1.0652  1.3898
53994SOL    HW270951   7.338   6.226  11.236  0.6204  0.7553 -0.5085
53995SOL     OW70952   7.691   5.452   3.217  0.2656 -0.1049  0.5289
53995SOL    HW170953   7.712   5.390   3.148  0.6815  0.5743  0.0327
53995SOL    HW270954   7.642   5.521   3.173  0.5364  0.3367  0.9084
53996SOL     OW70955   1.425  12.391   4.434 -0.1805  0.3554  0.1908
53996SOL    HW170956   1.439  12.337   4.356  0.0070  2.7292 -1.5421
53996SOL    HW270957   1.332  12.417   4.429 -0.2744  0.1819  0.9900
53997SOL     OW70958   3.033   3.014   8.361  0.0796 -0.4211  0.2415
53997SOL    HW170959   2.960   3.027   8.422 -1.9306 -1.0419 -1.8802
53997SOL    HW270960   3.029   3.089   8.302  1.6774 -0.0803  0.5041
53998SOL     OW70961   4.726   4.880  12.532 -0.5551  0.4626 -0.0079
53998SOL    HW170962   4.803   4.841  12.574  0.6535  0.3223 -2.2065
53998SOL    HW270963   4.716   4.831  12.451 -2.6931  0.8312 -0.0150
53999SOL     OW70964   4.870   2.808   7.631  0.0576 -0.0168 -0.2322
53999SOL    HW170965   4.833   2.758   7.559  0.9417 -0.9260 -0.0728
53999SOL    HW270966   4.962   2.821   7.607  0.5276 -0.8688  1.0027
54000SOL     OW70967  12.303   5.449   8.175  0.1314 -0.5462 -0.1669
54000SOL    HW170968  12.379   5.507   8.176  1.0364 -1.5686  3.0744
54000SOL    HW270969  12.240   5.490   8.233 -0.2663 -1.5194  0.1160
54001SOL     OW70970   0.652   9.477   7.812 -0.2720 -0.0965 -0.0172
54001SOL    HW170971   0.592   9.552   7.808  1.7739  1.7499  1.5882
54001SOL    HW270972   0.677   9.461   7.721 -2.2978 -0.2027 -0.5969
54002SOL     OW70973   0.902  10.231   5.492 -0.1602  0.8058  0.6687
54002SOL    HW170974   0.918  10.258   5.582 -0.6697  0.7633  0.7766
54002SOL    HW270975   0.822  10.179   5.496 -1.2039  2.2786 -0.0563
54003SOL     OW70976  10.909   8.111  11.420 -0.2136 -0.1482  0.0534
54003SOL    HW170977  10.985   8.077  11.372 -0.2318  0.4322 -0.4038
54003SOL    HW270978  10.943   8.134  11.506  0.1806  0.2948 -0.2154
54004SOL     OW70979   9.462   9.576   7.965 -0.1846 -0.3982  0.2970
54004SOL    HW170980   9.505   9.636   7.904  0.5830 -1.4168 -0.1992
54004SOL    HW270981   9.509   9.493   7.953 -0.3869 -0.7669  1.8625
54005SOL     OW70982  11.434   8.696   3.652  0.7000  0.5462 -0.4792
54005SOL    HW170983  11.360   8.697   3.591  0.2656  0.3560  0.0415
54005SOL    HW270984  11.480   8.614   3.632 -0.6135 -0.5584  0.8220
54006SOL     OW70985   0.837   9.025   0.353  0.2083 -0.0125 -0.0968
54006SOL    HW170986   0.753   9.057   0.320  0.4511 -1.3559 -2.2030
54006SOL    HW270987   0.850   8.941   0.310  1.8131 -0.7035  1.5864
54007SOL     OW70988   6.389   9.343  11.545  0.2967  0.7988 -0.4795
54007SOL    HW170989   6.472   9.389  11.557  0.3221  0.7262 -0.3731
54007SOL    HW270990   6.322   9.411  11.555  0.2190  0.4423  1.9650
54008SOL     OW70991   7.489   9.274  11.747  0.2947 -0.3294  0.0206
54008SOL    HW170992   7.409   9.324  11.762  0.2916 -0.0187 -0.9451
54008SOL    HW270993   7.457   9.186  11.724  0.2338 -0.2835 -0.0759
54009SOL     OW70994   7.367   1.566   9.924 -0.3588  0.3286 -0.0089
54009SOL    HW170995   7.337   1.544   9.835  0.1109  1.3208 -0.4307
54009SOL    HW270996   7.439   1.504   9.940  0.2352  0.7993 -0.7488
54010SOL     OW70997   8.105   0.677  10.840 -0.5003  0.4513  0.1165
54010SOL    HW170998   8.095   0.647  10.749  2.2244  0.0602 -0.1537
54010SOL    HW270999   8.114   0.772  10.832 -0.8542  0.4809  0.0519
54011SOL     OW71000   6.514   7.514   6.731  0.1958 -0.1066 -0.7002
54011SOL    HW171001   6.440   7.558   6.689  0.7279  0.1248 -1.4123
54011SOL    HW271002   6.585   7.577   6.726  0.7320 -0.7264 -0.9675
54012SOL     OW71003   8.522  10.000   2.563  0.4052  0.2979 -0.1135
54012SOL    HW171004   8.588  10.067   2.582  1.2643 -0.0227 -1.8005
54012SOL    HW271005   8.474  10.034   2.488  0.5008 -0.7365 -0.6588
54013SOL     OW71006  11.955   6.344   5.305 -0.4736  0.4599  0.0173
54013SOL    HW171007  11.998   6.340   5.220 -1.2754  0.4289 -0.3932
54013SOL    HW271008  11.901   6.265   5.308 -0.2582  0.3325  0.6615
54014SOL     OW71009   3.537   5.489   8.900  0.1157  0.2889  0.0508
54014SOL    HW171010   3.570   5.418   8.845 -0.3758  0.7339 -0.8459
54014SOL    HW271011   3.476   5.446   8.960 -0.4318 -0.0128 -0.7013
54015SOL     OW71012   0.788   8.503  11.512 -0.2702  0.0562 -0.6732
54015SOL    HW171013   0.720   8.441  11.486  0.6988 -0.4011 -2.2547
54015SOL    HW271014   0.740   8.576  11.553 -1.6404 -0.5640 -1.1141
54016SOL     OW71015  11.432   7.925   9.385  0.2030 -0.5135  0.2063
54016SOL    HW171016  11.519   7.917   9.425  1.1818 -2.4495 -2.0409
54016SOL    HW271017  11.413   8.019   9.390  2.2282 -0.0804  1.1606
54017SOL     OW71018   3.350   0.029   2.628  0.5155 -0.0190 -0.1048
54017SOL    HW171019   3.295   0.008   2.553  0.7016 -2.6610  0.4199
54017SOL    HW271020   3.437   0.043   2.591 -0.1573  3.2591 -0.8219
54018SOL     OW71021   7.284   3.002   8.012 -0.3402  0.6615 -0.6384
54018SOL    HW171022   7.253   3.092   7.999  1.4950  1.3307 -0.7077
54018SOL    HW271023   7.288   2.965   7.924 -2.9265 -0.2036 -0.4756
54019SOL     OW71024  11.653  10.184   6.439 -0.1838 -0.2497 -0.0304
54019SOL    HW171025  11.567  10.219   6.461 -0.6321 -1.0840 -0.3961
54019SOL    HW271026  11.634  10.111   6.380  0.6600 -1.5208  1.2168
54020SOL     OW71027   5.227  11.557   0.378  0.3649 -0.1258 -0.3070
54020SOL    HW171028   5.200  11.612   0.304  0.9220 -0.4317 -0.7507
54020SOL    HW271029   5.171  11.480   0.371 -0.3303  0.3231  0.2410
54021SOL     OW71030   1.111   2.485   3.521  0.1765 -0.1004  0.2468
54021SOL    HW171031   1.092   2.517   3.432 -1.9932  0.3231  0.8029
54021SOL    HW271032   1.067   2.547   3.578  0.8867 -0.8201  1.6141
54022SOL     OW71033  10.488  10.387   1.390  0.3120 -0.2752 -0.4380
54022SOL    HW171034  10.505  10.408   1.298 -1.3745  0.5715 -0.5843
54022SOL    HW271035  10.463  10.294   1.389 -2.6315  0.4301 -1.3200
54023SOL     OW71036   2.508  12.398   9.207  0.0877  0.1891  0.0506
54023SOL    HW171037   2.527  12.312   9.243  0.8745  0.2237 -0.2481
54023SOL    HW271038   2.413  12.407   9.212  0.0547 -0.4489  0.6357
54024SOL     OW71039  10.806   6.388   5.506 -0.0518  0.0973  0.2125
54024SOL    HW171040  10.824   6.482   5.510  0.4378  0.0203 -0.1127
54024SOL    HW271041  10.784   6.372   5.414  0.7003 -0.2532  0.0918
54025SOL     OW71042   4.172   6.834   3.922 -0.4959  0.9498  0.0161
54025SOL    HW171043   4.130   6.811   3.839 -1.0363 -1.6301  0.9216
54025SOL    HW271044   4.212   6.920   3.905 -1.3080  0.9083 -2.6229
54026SOL     OW71045   0.027   8.023   5.701  0.2463  0.0983 -0.0501
54026SOL    HW171046   0.002   7.960   5.769  0.3244 -0.5065 -0.5663
54026SOL    HW271047   0.113   7.993   5.671 -0.0737 -0.0461 -0.8698
54027SOL     OW71048   0.032   9.387   3.397  0.0053 -0.2714 -0.0911
54027SOL    HW171049   0.081   9.466   3.375 -0.0678 -0.2504 -0.1784
54027SOL    HW271050  -0.057   9.418   3.414  0.5142  0.0476  2.4623
54028SOL     OW71051   2.380   9.533   0.427 -0.6622 -0.4559 -0.0663
54028SOL    HW171052   2.289   9.530   0.399 -0.1504 -0.5626 -1.8541
54028SOL    HW271053   2.386   9.467   0.496 -1.9172 -0.4682  0.0552
54029SOL     OW71054   2.351  11.655   1.372  0.4449 -0.0276 -0.0200
54029SOL    HW171055   2.407  11.710   1.427 -0.5937  0.6999  0.3502
54029SOL    HW271056   2.305  11.598   1.434  1.4841 -1.3289 -0.3980
54030SOL     OW71057   9.969   4.504   3.895  0.4669  0.3605 -0.0915
54030SOL    HW171058   9.943   4.504   3.987  1.5394 -0.3773  0.2377
54030SOL    HW271059   9.994   4.413   3.877  0.4186  0.5289 -1.0620
54031SOL     OW71060  11.235   2.859   4.883 -0.2889 -0.1451  0.0627
54031SOL    HW171061  11.233   2.865   4.788  0.0101  0.3275  0.0843
54031SOL    HW271062  11.143   2.862   4.910 -0.3507  0.2146 -0.1836
54032SOL     OW71063   6.301   7.968   0.978 -0.0426  0.9261  0.1299
54032SOL    HW171064   6.232   8.033   0.979 -0.0867  0.9194  2.4738
54032SOL    HW271065   6.271   7.902   0.915 -0.6890  2.3977 -1.1590
54033SOL     OW71066  11.271   8.416   7.030  0.3060 -0.1389  0.1800
54033SOL    HW171067  11.317   8.364   7.096  0.4424 -1.2770 -0.7863
54033SOL    HW271068  11.285   8.507   7.057 -0.1239 -0.5775  2.0309
54034SOL     OW71069   8.549   5.927   8.852 -1.2064  0.5081  0.2953
54034SOL    HW171070   8.581   6.006   8.808 -0.7161  0.2467  0.1682
54034SOL    HW271071   8.501   5.960   8.928 -1.3872  0.9398 -0.0016
54035SOL     OW71072   9.490  12.019   6.951 -0.0838  0.3122  0.0394
54035SOL    HW171073   9.437  11.952   6.908 -0.5913  0.0618  1.0397
54035SOL    HW271074   9.516  11.980   7.034  0.3731  1.0260  0.2394
54036SOL     OW71075  12.325  11.932   2.310 -0.8108  0.3742  0.1089
54036SOL    HW171076  12.275  11.921   2.391 -0.2062  0.7196  0.5338
54036SOL    HW271077  12.382  11.856   2.306  0.2695  1.1178  0.8215
54037SOL     OW71078   0.647  11.422   2.461  0.5736 -0.3000 -0.1638
54037SOL    HW171079   0.741  11.405   2.471  0.9139  0.8207 -1.2188
54037SOL    HW271080   0.615  11.434   2.550  1.7104  0.7104  0.1299
54038SOL     OW71081   1.243   6.085   6.962  0.0285  0.1599 -0.3996
54038SOL    HW171082   1.259   6.094   7.056  0.9940  0.7628 -0.6026
54038SOL    HW271083   1.148   6.082   6.953 -0.0815  0.7112  0.5406
54039SOL     OW71084   2.435   5.501   0.611 -0.1883 -1.2317  0.5803
54039SOL    HW171085   2.494   5.469   0.680 -1.3139 -0.7079  1.8276
54039SOL    HW271086   2.440   5.434   0.543  2.3280 -0.8888  0.3290
54040SOL     OW71087   8.187   2.472  10.038  0.9503 -0.4701 -0.7541
54040SOL    HW171088   8.236   2.390  10.049 -0.2074 -1.1023  0.0155
54040SOL    HW271089   8.208   2.501   9.950  2.1314 -1.0906 -0.7017
54041SOL     OW71090   4.136   3.411   3.074  0.2568 -0.4629 -0.8117
54041SOL    HW171091   4.203   3.385   3.011  1.0995 -1.3447  0.4059
54041SOL    HW271092   4.140   3.344   3.142  0.3966  1.2323  0.9152
54042SOL     OW71093  12.227   1.867   3.162  0.1556 -0.1971 -0.2982
54042SOL    HW171094  12.271   1.815   3.229 -0.3710 -1.0262 -0.5776
54042SOL    HW271095  12.299   1.907   3.112  0.5505  0.3110  0.6543
54043SOL     OW71096   1.084   7.344   1.369  0.2512  0.2642 -1.1613
54043SOL    HW171097   1.178   7.335   1.382  0.5799  2.2625 -1.8342
54043SOL    HW271098   1.071   7.336   1.274 -0.4380 -1.1800 -0.9756
54044SOL     OW71099  11.359   9.041   3.133  0.4134 -0.9367 -0.3412
54044SOL    HW171100  11.393   9.128   3.116  1.5106 -1.4199 -0.6717
54044SOL    HW271101  11.295   9.026   3.064  1.8072 -1.2354 -1.6065
54045SOL     OW71102   7.338   0.599   9.230 -0.2329  0.2131 -0.2732
54045SOL    HW171103   7.288   0.539   9.174  1.5553 -1.1172 -0.5185
54045SOL    HW271104   7.311   0.576   9.319 -0.2287 -0.3379 -0.4092
54046SOL     OW71105   2.627   0.759   8.008 -0.4316  0.4347 -0.5282
54046SOL    HW171106   2.589   0.774   7.921 -1.5991 -3.0757 -0.8002
54046SOL    HW271107   2.707   0.710   7.991  0.0108  0.8221  0.3796
54047SOL     OW71108  10.665   1.295   3.954 -0.2619  0.1815  0.4739
54047SOL    HW171109  10.667   1.350   3.876  0.5981 -0.1918  0.2216
54047SOL    HW271110  10.716   1.218   3.931 -0.1328 -0.0088  1.3451
54048SOL     OW71111   1.918   9.940  10.379 -0.6250  0.3600 -0.0215
54048SOL    HW171112   1.837   9.889  10.375 -1.1583  1.0135  1.4799
54048SOL    HW271113   1.907  10.008  10.313 -1.0812  0.1427 -0.1743
54049SOL     OW71114   4.201   4.700   9.784 -0.9633 -0.3915 -0.5357
54049SOL    HW171115   4.182   4.609   9.805 -1.0417 -0.4827 -0.9798
54049SOL    HW271116   4.188   4.705   9.689 -0.9663  0.0819 -0.5117
54050SOL     OW71117   2.373  10.549   8.364 -0.2261 -0.6421  0.0713
54050SOL    HW171118   2.443  10.484   8.371 -0.0617 -0.4523  0.1973
54050SOL    HW271119   2.370  10.572   8.271 -0.5218 -1.0908 -0.0324
54051SOL     OW71120   7.541  10.792  11.971  0.1832  0.1671  0.5798
54051SOL    HW171121   7.459  10.804  11.923  0.7165  1.4095 -0.0753
54051SOL    HW271122   7.589  10.874  11.957  0.6193  0.3374  2.7752
54052SOL     OW71123   0.360   1.241   4.947 -0.2987  0.9650 -0.3566
54052SOL    HW171124   0.274   1.272   4.974 -0.2118  0.5181  0.4600
54052SOL    HW271125   0.373   1.278   4.860 -0.3317  2.9665  0.4383
54053SOL     OW71126   1.615   2.816   3.772 -0.1740  0.1217  0.0783
54053SOL    HW171127   1.701   2.805   3.732 -0.5452  1.0928 -1.0546
54053SOL    HW271128   1.628   2.884   3.839  0.1188 -0.3576  0.5095
54054SOL     OW71129   0.276   5.047   3.686 -0.0688  0.4948  0.8562
54054SOL    HW171130   0.369   5.024   3.689  0.5885  2.8264  0.1895
54054SOL    HW271131   0.250   5.053   3.778  0.8003  1.1211  1.0660
54055SOL     OW71132   4.126   6.279   0.905  0.1448  0.1888  0.0887
54055SOL    HW171133   4.219   6.282   0.927  0.2567 -0.7639 -0.2391
54055SOL    HW271134   4.115   6.198   0.855 -0.5065  1.1952 -1.4897
54056SOL     OW71135   7.820   3.980   8.892  0.2469 -1.5785  0.3939
54056SOL    HW171136   7.901   4.026   8.868  0.2855 -0.7978  1.8683
54056SOL    HW271137   7.760   3.998   8.820  0.2494  0.9019  0.9154
54057SOL     OW71138   7.365   9.812   4.460  0.3487 -0.1813  0.0474
54057SOL    HW171139   7.285   9.788   4.506  2.1661 -1.5761  2.7177
54057SOL    HW271140   7.364   9.908   4.460 -1.2125 -0.1695  0.1606
54058SOL     OW71141   7.885  10.964  11.783 -0.6308 -0.2612  0.2412
54058SOL    HW171142   7.959  10.999  11.833  2.2115 -1.7631 -2.5392
54058SOL    HW271143   7.891  11.008  11.698 -2.0870 -1.4604 -0.5336
54059SOL     OW71144   9.184   9.967   2.161  0.0678 -0.6925 -0.5573
54059SOL    HW171145   9.106   9.975   2.105 -0.3673 -0.9839 -0.0059
54059SOL    HW271146   9.166   9.891   2.216 -0.0182  0.2290  0.7535
54060SOL     OW71147   4.675   9.724   8.616 -0.5655 -0.5953  0.3624
54060SOL    HW171148   4.718   9.809   8.620  0.1241 -0.8410 -1.1066
54060SOL    HW271149   4.596   9.739   8.566 -0.7897 -0.7004  0.6780
54061SOL     OW71150   0.595  10.094   3.769 -0.7516 -0.1693  0.1542
54061SOL    HW171151   0.506  10.116   3.743 -0.0822  0.0498 -2.1507
54061SOL    HW271152   0.586  10.010   3.815 -2.3012  0.6469  1.4260
54062SOL     OW71153  10.023   1.543   1.463 -0.4079 -0.5450 -0.1954
54062SOL    HW171154  10.057   1.467   1.511  1.4444  1.3153  1.6557
54062SOL    HW271155   9.933   1.519   1.441  0.0127 -3.1339  0.5537
54063SOL     OW71156   1.754   1.974   4.374  0.1842  0.2144  0.1739
54063SOL    HW171157   1.817   1.928   4.318 -0.7780  0.1820 -0.9019
54063SOL    HW271158   1.794   2.060   4.389  0.8694 -0.0994  0.2074
54064SOL     OW71159  11.891   0.026  11.072 -0.1653 -0.4757 -0.4830
54064SOL    HW171160  11.857  -0.044  11.127 -0.8027  0.8386  0.8555
54064SOL    HW271161  11.845   0.017  10.989 -1.7359 -0.4279  0.3580
54065SOL     OW71162   7.885   5.073  10.292 -0.0745  0.1277 -0.4121
54065SOL    HW171163   7.822   5.144  10.276 -0.6887 -0.1554  0.7047
54065SOL    HW271164   7.869   5.010  10.222  1.1740  1.5188 -2.0489
54066SOL     OW71165   6.695  12.236   0.406 -0.6290  0.2187 -0.1353
54066SOL    HW171166   6.663  12.317   0.366 -1.3682 -0.0669 -0.1475
54066SOL    HW271167   6.685  12.170   0.338  1.9011  0.4606 -0.8472
54067SOL     OW71168   5.112   7.303  11.721 -0.1121  0.1001  0.1555
54067SOL    HW171169   5.137   7.244  11.792  1.9174  0.6943 -0.0033
54067SOL    HW271170   5.116   7.249  11.642  0.8908  0.2124  0.1157
54068SOL     OW71171   9.275   3.943   9.443 -0.1477 -0.8333  0.4119
54068SOL    HW171172   9.368   3.934   9.418 -0.3662  0.7480 -1.2026
54068SOL    HW271173   9.278   3.979   9.532  0.8025 -0.1673  0.1282
54069SOL     OW71174   0.517   1.553   8.413  0.2732  0.2995  0.1027
54069SOL    HW171175   0.512   1.648   8.424 -1.0889  0.2877 -0.2334
54069SOL    HW271176   0.461   1.535   8.337 -0.2747 -0.8783  0.7647
54070SOL     OW71177   3.018  10.205   6.249  0.4572 -0.1834  0.0981
54070SOL    HW171178   2.982  10.293   6.233 -1.3822 -1.0663 -0.8653
54070SOL    HW271179   3.027  10.167   6.162  0.0740 -1.3860  0.5731
54071SOL     OW71180   5.589   7.433  12.366 -0.1347 -0.6344  0.9304
54071SOL    HW171181   5.659   7.428  12.301 -0.4545 -1.0520  0.6140
54071SOL    HW271182   5.611   7.510  12.419 -1.1939  1.2914 -1.2418
54072SOL     OW71183   8.734  10.944   6.416 -0.2801  0.4159 -0.0081
54072SOL    HW171184   8.725  11.011   6.348 -1.1327 -0.8886 -1.2399
54072SOL    HW271185   8.695  10.983   6.494 -0.7046  1.3709 -0.6852
54073SOL     OW71186   4.064   3.451  10.810 -0.5786 -0.3003  0.0939
54073SOL    HW171187   4.137   3.392  10.830  0.0323  0.1794 -0.6645
54073SOL    HW271188   4.018   3.462  10.893 -1.2444 -2.5415  0.0991
54074SOL     OW71189   5.043   8.936  10.441  0.1551  0.0584  0.1128
54074SOL    HW171190   5.111   8.998  10.470 -0.2720  0.2817  0.6639
54074SOL    HW271191   4.965   8.963  10.488 -0.6688  0.6369 -1.5006
54075SOL     OW71192  10.022  11.939  11.178 -0.1526 -0.0574  0.0887
54075SOL    HW171193  10.036  11.925  11.272 -0.2545 -1.1457 -0.0424
54075SOL    HW271194  10.110  11.950  11.143 -0.0831 -0.0959  0.2466
54076SOL     OW71195   5.363  12.595   6.073  0.4210  0.6984  0.1835
54076SOL    HW171196   5.414  12.552   6.005 -0.5235  0.9288 -0.6917
54076SOL    HW271197   5.342  12.525   6.136  1.2256  0.4714  0.2061
54077SOL     OW71198   9.861  12.175   9.867  0.4750  0.0047  0.5230
54077SOL    HW171199   9.828  12.088   9.848  3.1860 -0.9502 -0.3528
54077SOL    HW271200   9.957  12.165   9.868  0.9403  3.1174 -0.4923
54078SOL     OW71201   5.264   1.737   9.243  0.0653  0.4802  0.4825
54078SOL    HW171202   5.257   1.692   9.327  0.0639  0.1524  0.3062
54078SOL    HW271203   5.219   1.680   9.180  1.3752 -0.0424 -0.0328
54079SOL     OW71204   4.447   4.235   2.067  0.4617 -0.0490  0.2223
54079SOL    HW171205   4.541   4.254   2.061  0.5145 -0.0261  0.9729
54079SOL    HW271206   4.405   4.308   2.022  0.7724  0.4058  0.6512
54080SOL     OW71207   1.616   2.398  10.105 -0.0288 -0.2179  0.7087
54080SOL    HW171208   1.699   2.425  10.145  0.3037  0.0663 -0.1568
54080SOL    HW271209   1.612   2.445  10.022 -0.6874 -0.8295  0.3777
54081SOL     OW71210   5.496   0.655   4.347 -0.3032 -0.0450 -0.4080
54081SOL    HW171211   5.571   0.628   4.294 -2.0837 -3.2745 -1.5340
54081SOL    HW271212   5.464   0.735   4.304  2.4408  1.5152  0.1931
54082SOL     OW71213   1.093  12.276  11.112  0.2247  0.2246  0.1154
54082SOL    HW171214   1.111  12.198  11.165  1.2707  0.5024  0.1896
54082SOL    HW271215   1.178  12.304  11.080 -0.1652  1.1975 -0.1205
54083SOL     OW71216   3.543   6.948   4.837 -0.1654  0.3523  0.0774
54083SOL    HW171217   3.549   7.025   4.893  0.1228  1.5729 -1.5580
54083SOL    HW271218   3.634   6.931   4.810 -0.3235 -0.0616 -0.2088
54084SOL     OW71219   3.701   3.483   2.252  0.2590  0.4806 -0.0661
54084SOL    HW171220   3.612   3.450   2.266  0.8132 -1.2877 -0.5728
54084SOL    HW271221   3.726   3.519   2.338 -0.9472  1.0849  0.0628
54085SOL     OW71222   8.965   9.098   3.825  0.3401  0.5553  0.2115
54085SOL    HW171223   8.923   9.061   3.902 -0.0722 -0.6202 -0.5618
54085SOL    HW271224   8.993   9.022   3.774  1.3952  1.3150 -0.3831
54086SOL     OW71225   0.207   7.410   4.941  0.0667 -0.5530  0.2463
54086SOL    HW171226   0.155   7.479   4.898  0.3085  1.3907  2.8460
54086SOL    HW271227   0.268   7.382   4.873 -0.6926  1.1174 -1.2249
54087SOL     OW71228   4.049   7.978   8.482 -0.4734  0.3156 -0.0518
54087SOL    HW171229   3.958   7.982   8.450 -0.5697 -0.4007  0.1124
54087SOL    HW271230   4.072   8.069   8.500 -0.0973  0.8817 -2.9941
54088SOL     OW71231   9.558  12.335   8.426 -0.0591  0.4440  0.3940
54088SOL    HW171232   9.520  12.274   8.490  1.5445 -0.7983  0.2066
54088SOL    HW271233   9.652  12.330   8.441  0.1952  1.8269 -0.5988
54089SOL     OW71234   2.526   9.741   0.537  0.2766 -0.0459  0.0907
54089SOL    HW171235   2.498   9.830   0.561  0.1906 -0.1786  0.4804
54089SOL    HW271236   2.446   9.698   0.507  0.1706 -0.2314  0.6284
54090SOL     OW71237   2.330   3.693   9.818 -0.1569  0.1722  0.0300
54090SOL    HW171238   2.241   3.727   9.809 -0.2971  0.3039  1.6847
54090SOL    HW271239   2.374   3.756   9.875  0.0589 -1.4959  1.7971
54091SOL     OW71240   0.465   8.615  10.252 -0.5697  0.2084  0.4215
54091SOL    HW171241   0.434   8.534  10.292 -1.5763  0.1030 -0.4890
54091SOL    HW271242   0.413   8.683  10.294 -1.2057  0.1538 -0.2410
54092SOL     OW71243   9.210   0.715   7.856  0.0956  0.5060  0.3037
54092SOL    HW171244   9.192   0.778   7.786 -1.4074 -1.0344 -0.7521
54092SOL    HW271245   9.269   0.763   7.915 -1.0166  2.9322 -0.3912
54093SOL     OW71246  12.485   7.355  12.211 -0.5277  0.2741  0.0790
54093SOL    HW171247  12.461   7.448  12.211 -1.4920  0.0680  1.9642
54093SOL    HW271248  12.432   7.317  12.141 -0.1314  1.1057 -0.7082
54094SOL     OW71249   6.790   5.185  10.618  0.6027  0.3499 -0.0521
54094SOL    HW171250   6.832   5.243  10.555 -0.9580  2.7298  0.9355
54094SOL    HW271251   6.839   5.198  10.700  0.2559  0.2557  0.1746
54095SOL     OW71252   1.824  12.434   2.186 -0.4512  0.4595 -0.2132
54095SOL    HW171253   1.895  12.486   2.225  1.3944 -1.9025 -0.2256
54095SOL    HW271254   1.767  12.414   2.260 -0.8395  1.8933 -0.0879
54096SOL     OW71255  12.414  10.971  10.868 -0.0478  0.7926  0.1846
54096SOL    HW171256  12.400  11.008  10.955  2.6523 -0.8534  1.4265
54096SOL    HW271257  12.385  10.880  10.875  2.8291 -0.2027  0.3290
54097SOL     OW71258  10.113   1.119   9.254  0.0087  0.0902  1.2771
54097SOL    HW171259  10.058   1.154   9.324 -0.1326  2.7599 -0.0508
54097SOL    HW271260  10.085   1.166   9.176  2.2237 -0.5876 -0.0016
54098SOL     OW71261  11.546   6.350   3.699 -0.1789 -0.7531 -0.1499
54098SOL    HW171262  11.467   6.373   3.651  0.0939 -1.1194 -0.7859
54098SOL    HW271263  11.570   6.430   3.746 -0.2708 -0.2933 -0.8710
54099SOL     OW71264  11.598  11.206   2.675 -0.4527  0.3355  0.3516
54099SOL    HW171265  11.671  11.251   2.717 -0.9390  1.6317 -0.1343
54099SOL    HW271266  11.528  11.271   2.673 -0.7375  0.0180 -1.6037
54100SOL     OW71267   3.711   4.396   7.048 -0.1171  0.5766  0.1909
54100SOL    HW171268   3.745   4.307   7.038 -0.8863  0.2504  0.4522
54100SOL    HW271269   3.770   4.450   6.995  0.5693 -0.0319  0.3140
54101SOL     OW71270   3.510   6.696   6.919 -0.2322  0.2845  0.1839
54101SOL    HW171271   3.504   6.650   7.002  0.4006  1.1234  0.7128
54101SOL    HW271272   3.458   6.644   6.858 -0.5185 -0.4556  1.0515
54102SOL     OW71273   7.012   3.117   5.875  0.4838 -0.1706 -0.1657
54102SOL    HW171274   7.014   3.179   5.802  0.8329 -1.8854 -1.7216
54102SOL    HW271275   6.931   3.068   5.861  0.5898 -0.5600  0.5613
54103SOL     OW71276   9.472   4.763   6.181 -0.0509 -0.1421  0.0252
54103SOL    HW171277   9.392   4.721   6.151 -0.4892  0.7791 -0.1029
54103SOL    HW271278   9.509   4.803   6.102  0.2665 -0.1121  0.1869
54104SOL     OW71279   4.285   8.866   6.364  0.4484  0.0762  0.0444
54104SOL    HW171280   4.198   8.842   6.333  0.3719  1.3045 -0.7859
54104SOL    HW271281   4.338   8.872   6.284  1.0144  0.4008  0.4350
54105SOL     OW71282   9.439   8.856   5.531  0.2678 -0.2650  0.6003
54105SOL    HW171283   9.363   8.804   5.506 -0.3844  0.3823  1.1951
54105SOL    HW271284   9.412   8.946   5.516  0.6328  0.0164  1.5458
54106SOL     OW71285   0.311   4.864   6.529  0.1712 -0.3420  0.1308
54106SOL    HW171286   0.275   4.948   6.556 -0.5064 -0.5941  0.0565
54106SOL    HW271287   0.404   4.879   6.518  0.0227  0.4507 -0.0857
54107SOL     OW71288  11.448   7.739   1.296 -0.4183  0.0897 -0.2776
54107SOL    HW171289  11.386   7.688   1.242 -0.0807 -0.1524 -0.4416
54107SOL    HW271290  11.421   7.721   1.386 -1.7083  1.4103 -0.3730
54108SOL     OW71291   3.794   2.283   1.107  0.5023 -0.6647 -0.4076
54108SOL    HW171292   3.845   2.205   1.086 -0.0080 -0.2866 -3.4939
54108SOL    HW271293   3.853   2.356   1.087 -0.2511 -0.2640 -1.2349
54109SOL     OW71294   6.222   1.046   7.283  0.9192 -0.1315  0.2903
54109SOL    HW171295   6.226   0.951   7.280  0.1796 -0.1892  0.8274
54109SOL    HW271296   6.312   1.074   7.298  1.1187 -0.7482  0.2574
54110SOL     OW71297   1.326  10.423   2.429 -0.4201 -0.1488  0.1096
54110SOL    HW171298   1.392  10.360   2.398  0.7822  1.2901 -0.3767
54110SOL    HW271299   1.250  10.408   2.373  0.4928  0.0556 -1.2278
54111SOL     OW71300   5.726  12.510   2.396 -0.7146  0.5875 -0.1275
54111SOL    HW171301   5.635  12.487   2.375 -0.0933  0.1154 -2.5292
54111SOL    HW271302   5.779  12.454   2.339  1.0217  2.6679 -0.6840
54112SOL     OW71303  10.149   1.919   9.842  0.0488 -0.0844  0.4241
54112SOL    HW171304  10.192   1.986   9.894  1.3747  0.7148 -1.5928
54112SOL    HW271305  10.164   1.944   9.751 -2.1373 -1.4311 -0.4143
54113SOL     OW71306  10.996   0.668   7.140 -0.1922  0.0500  0.6688
54113SOL    HW171307  10.982   0.618   7.060 -1.0144 -0.0016  0.8384
54113SOL    HW271308  11.003   0.602   7.209 -1.5961  0.1599  0.9405
54114SOL     OW71309   5.178   6.686   1.665 -0.1782 -0.4193  0.6311
54114SOL    HW171310   5.103   6.740   1.642  0.6252  0.5866  0.2951
54114SOL    HW271311   5.238   6.746   1.709  0.9934 -0.9007 -0.2656
54115SOL     OW71312   9.828   8.893  12.077 -0.6438 -0.5471  0.1479
54115SOL    HW171313   9.742   8.914  12.113 -1.1895 -0.8644 -0.9108
54115SOL    HW271314   9.810   8.863  11.988  0.4110 -2.0770  0.3986
54116SOL     OW71315   6.573   7.441   3.660 -0.2432  0.2540 -0.1940
54116SOL    HW171316   6.562   7.374   3.593  0.0717  0.2145 -0.2078
54116SOL    HW271317   6.661   7.476   3.645  0.0204 -0.0871  0.5005
54117SOL     OW71318   8.419   3.821   6.927 -0.0735  0.1589  0.0101
54117SOL    HW171319   8.335   3.864   6.915 -0.3667 -0.6785 -1.1539
54117SOL    HW271320   8.483   3.878   6.885 -0.5667 -0.8477 -2.2469
54118SOL     OW71321   4.880  12.276   7.858 -0.5034  0.3311  0.1524
54118SOL    HW171322   4.875  12.200   7.916 -0.9219  0.1974 -0.0548
54118SOL    HW271323   4.851  12.349   7.912  0.0778  0.3792  0.4073
54119SOL     OW71324   3.808   8.164   8.157 -0.1641 -0.0114 -0.4463
54119SOL    HW171325   3.875   8.173   8.089  0.8499 -2.2348  0.1472
54119SOL    HW271326   3.839   8.221   8.228  0.9221 -0.7027 -0.3387
54120SOL     OW71327   1.900   0.793   3.928  0.3716 -0.3786  0.0329
54120SOL    HW171328   1.984   0.832   3.950  0.7174 -1.0075 -0.1417
54120SOL    HW271329   1.922   0.707   3.892 -0.2189  0.1875 -1.7836
54121SOL     OW71330   9.370   9.730   0.965  0.0506  0.7444  0.4050
54121SOL    HW171331   9.309   9.685   1.022 -1.0307 -0.3221 -1.4812
54121SOL    HW271332   9.358   9.823   0.984 -0.0454  0.4069  2.0658
54122SOL     OW71333   6.504  10.899   6.380  0.3791 -0.0186 -0.4945
54122SOL    HW171334   6.423  10.848   6.388  0.1116  0.2804 -1.2751
54122SOL    HW271335   6.476  10.990   6.396  0.2342  0.3123 -2.3878
54123SOL     OW71336   8.317  10.666   7.300  0.2051  0.3398  0.1131
54123SOL    HW171337   8.266  10.744   7.280 -0.1465 -0.1578 -1.0147
54123SOL    HW271338   8.386  10.664   7.234 -0.6352 -1.0402 -0.7823
54124SOL     OW71339   0.363   1.201   8.176 -0.0141  0.0997  0.0729
54124SOL    HW171340   0.425   1.200   8.248  0.9117 -0.4514 -0.7003
54124SOL    HW271341   0.398   1.137   8.113 -2.2189 -1.4638  0.3060
54125SOL     OW71342   9.372   6.982   6.119  0.1584 -0.3046 -0.3120
54125SOL    HW171343   9.418   6.903   6.090  1.1807 -0.2894  1.1274
54125SOL    HW271344   9.363   6.970   6.214 -1.2574  0.5142 -0.3240
54126SOL     OW71345   2.755  12.032   9.652  0.4262 -0.1166  0.3454
54126SOL    HW171346   2.814  12.084   9.707  0.8359  0.1809 -0.3695
54126SOL    HW271347   2.710  12.096   9.597  0.1403 -0.4264  0.2133
54127SOL     OW71348   9.342   8.932   8.654 -0.4630 -0.1856 -0.2685
54127SOL    HW171349   9.426   8.910   8.694 -0.7357  0.3021  0.5956
54127SOL    HW271350   9.364   8.978   8.573  0.1078 -1.9400 -1.1535
54128SOL     OW71351   5.901   9.200  11.948  0.0683  0.7393  0.2405
54128SOL    HW171352   5.992   9.193  11.920  0.3643  0.1149  1.3021
54128SOL    HW271353   5.889   9.293  11.969 -0.0257  1.1249 -1.4187
54129SOL     OW71354   2.600   0.071   1.991  0.2571  0.6839  0.1667
54129SOL    HW171355   2.523   0.069   1.933 -0.5780  0.4813  1.2456
54129SOL    HW271356   2.666   0.018   1.945 -0.7599 -0.4024 -0.0988
54130SOL     OW71357  11.355   5.782   1.100 -0.0214 -0.1098  0.4997
54130SOL    HW171358  11.305   5.855   1.137  0.4913  2.4580 -3.3608
54130SOL    HW271359  11.443   5.818   1.085  1.2385 -2.5788  1.2628
54131SOL     OW71360   6.080   3.180   2.483  0.2596 -0.1114  0.2574
54131SOL    HW171361   6.104   3.114   2.418  0.4153 -0.7649  0.9658
54131SOL    HW271362   6.018   3.135   2.541 -1.7887  1.1765 -0.8152
54132SOL     OW71363   2.841   5.328   4.727 -0.2361  0.3506  0.3596
54132SOL    HW171364   2.808   5.307   4.815 -2.9286  0.1114 -0.6182
54132SOL    HW271365   2.867   5.420   4.732  1.8555 -0.2456  1.9516
54133SOL     OW71366   3.351   7.756  10.711  0.8806  0.3274  0.3144
54133SOL    HW171367   3.422   7.697  10.684 -0.0244 -0.7670  0.2488
54133SOL    HW271368   3.395   7.828  10.756  2.1212  0.2574 -0.7276
54134SOL     OW71369   1.717   7.024   6.616  0.4918  0.2456  0.1376
54134SOL    HW171370   1.708   7.082   6.541  0.8250 -0.8483 -0.7814
54134SOL    HW271371   1.777   6.955   6.587  1.3237  0.2574  1.7042
54135SOL     OW71372  11.812   9.411   4.991 -0.0635 -0.3214 -0.4474
54135SOL    HW171373  11.806   9.488   4.935  0.7145  1.7357  2.0987
54135SOL    HW271374  11.844   9.342   4.933  1.8218  1.9311 -2.2989
54136SOL     OW71375   2.190   0.233  11.424 -0.3881 -0.4572 -0.4229
54136SOL    HW171376   2.225   0.321  11.405 -1.0624 -0.8148 -4.2196
54136SOL    HW271377   2.097   0.247  11.439 -0.4867 -0.4991 -0.9786
54137SOL     OW71378   1.978   2.656   7.343 -0.4712  0.1396  0.4098
54137SOL    HW171379   1.970   2.561   7.336 -1.0395  0.1418  0.9298
54137SOL    HW271380   2.015   2.671   7.430  2.6478  0.2771 -0.8495
54138SOL     OW71381   8.472   9.859   0.691  0.3875  0.3173  0.5282
54138SOL    HW171382   8.452   9.847   0.784  2.3850  0.3148  1.0030
54138SOL    HW271383   8.544   9.799   0.674  0.2839  0.5801 -0.9446
54139SOL     OW71384   1.713  10.825   8.189  0.1765 -0.2190  0.2195
54139SOL    HW171385   1.689  10.747   8.239  0.3771 -1.3784 -1.4375
54139SOL    HW271386   1.630  10.860   8.157  0.2405 -1.1148 -0.9779
54140SOL     OW71387  11.590   1.714   0.056 -0.5475 -0.8172  0.3746
54140SOL    HW171388  11.579   1.731  -0.038  0.2123  0.0129  0.4248
54140SOL    HW271389  11.601   1.620   0.062 -1.8937 -1.0391 -0.2321
54141SOL     OW71390   0.762   5.772  12.373  0.0750  0.3095  0.0198
54141SOL    HW171391   0.742   5.679  12.365 -0.9900  0.4730  0.5771
54141SOL    HW271392   0.677   5.814  12.391  0.5480  1.3723 -0.1155
54142SOL     OW71393   8.138   5.214   3.752  0.1317 -0.4785  0.1623
54142SOL    HW171394   8.107   5.133   3.711 -3.8872  0.1361  1.4742
54142SOL    HW271395   8.134   5.197   3.846 -0.1921  0.9809  0.4513
54143SOL     OW71396   3.820  10.434   8.891 -0.2250 -0.1899 -0.1426
54143SOL    HW171397   3.849  10.455   8.980 -0.0991 -1.2512  0.0779
54143SOL    HW271398   3.734  10.474   8.884 -0.5625 -0.7527  0.7262
54144SOL     OW71399   6.017   9.624   1.278  0.0282  0.5125 -0.7792
54144SOL    HW171400   5.932   9.636   1.321  0.0042  0.6190 -0.8554
54144SOL    HW271401   6.081   9.658   1.341  0.3775 -2.8458  0.8726
54145SOL     OW71402   8.630  11.817   9.948 -0.3854  0.0638 -0.2717
54145SOL    HW171403   8.698  11.763   9.987 -0.5895 -0.1590 -0.2226
54145SOL    HW271404   8.552  11.800  10.001 -0.9597 -1.1235 -1.4526
54146SOL     OW71405   3.027  12.018   0.314  0.6522  0.1935 -0.1779
54146SOL    HW171406   3.032  12.111   0.336  0.4611  0.1276  0.1383
54146SOL    HW271407   3.118  11.989   0.312  0.6860  0.2652  0.2412
54147SOL     OW71408   4.155   5.798   9.794  0.3513 -0.3173 -0.2170
54147SOL    HW171409   4.190   5.715   9.762 -0.2887 -0.3823 -0.7693
54147SOL    HW271410   4.083   5.773   9.852  0.3507 -0.1566 -0.1481
54148SOL     OW71411   5.264   0.203   0.202  0.3376  0.0072  0.0866
54148SOL    HW171412   5.267   0.296   0.221  1.5626 -0.1185  0.5982
54148SOL    HW271413   5.323   0.163   0.266  2.0666 -0.7974 -1.9017
54149SOL     OW71414   5.208   8.585   8.473 -0.3280  0.1785 -0.4337
54149SOL    HW171415   5.224   8.583   8.379  1.0090 -0.3202 -0.2244
54149SOL    HW271416   5.161   8.504   8.491  1.0514 -0.6713 -0.4439
54150SOL     OW71417  10.169   6.963   8.704 -0.1071  0.5107 -0.1860
54150SOL    HW171418  10.220   6.953   8.784  1.2037 -2.1001 -1.2124
54150SOL    HW271419  10.207   7.038   8.659 -0.5427  1.6956  1.3544
54151SOL     OW71420  10.011   0.080   5.804  0.6936  0.5787 -0.1027
54151SOL    HW171421   9.952   0.032   5.861  1.7244 -0.3313  0.2399
54151SOL    HW271422  10.003   0.171   5.833  1.2743  0.1320  1.6052
54152SOL     OW71423  11.639   6.157  11.299 -0.2711 -0.2710 -0.3058
54152SOL    HW171424  11.622   6.245  11.267  1.0884 -0.1709 -0.8116
54152SOL    HW271425  11.576   6.101  11.252 -0.4145  0.2840 -0.7813
54153SOL     OW71426   4.264  12.531  12.104 -0.4167  0.0888  0.0039
54153SOL    HW171427   4.233  12.495  12.187 -0.3149  1.8856  0.8735
54153SOL    HW271428   4.199  12.503  12.040 -1.2264 -0.2180  0.9351
54154SOL     OW71429   9.574   9.117   4.715 -0.0388  0.5121 -0.3668
54154SOL    HW171430   9.596   9.088   4.626 -0.3445  1.9143 -0.9432
54154SOL    HW271431   9.478   9.122   4.715 -0.1490 -1.1218  0.6188
54155SOL     OW71432  10.221   6.511   4.879  0.2140 -0.1511 -0.5044
54155SOL    HW171433  10.273   6.514   4.959 -1.0161 -1.4563  0.3891
54155SOL    HW271434  10.285   6.492   4.810  1.0866 -0.6434  0.4121
54156SOL     OW71435   5.441   6.645   9.047  0.2130 -0.1836 -0.0854
54156SOL    HW171436   5.483   6.656   9.132  1.4362  1.4334 -0.8405
54156SOL    HW271437   5.430   6.550   9.037  1.3524 -0.4765  1.2493
54157SOL     OW71438   9.382   0.688   1.443 -0.0629  0.3504  0.0072
54157SOL    HW171439   9.372   0.638   1.362 -0.0192  0.0753  0.1681
54157SOL    HW271440   9.320   0.647   1.504  0.5781 -0.0668  0.4011
54158SOL     OW71441   6.684   4.787   3.831 -0.2103  0.4494 -0.1905
54158SOL    HW171442   6.605   4.841   3.827 -0.0414  0.6779 -0.5707
54158SOL    HW271443   6.712   4.792   3.922 -2.0381 -1.6870  0.5764
54159SOL     OW71444   3.471  10.482   1.882  0.6850 -0.2554 -0.1733
54159SOL    HW171445   3.439  10.559   1.929  0.8701 -0.9885  1.2056
54159SOL    HW271446   3.555  10.462   1.923  0.0953 -1.8835  0.3138
54160SOL     OW71447   6.178   2.018   5.330 -0.3865 -0.8732  0.4160
54160SOL    HW171448   6.176   1.984   5.240  0.7441 -0.6580  0.2942
54160SOL    HW271449   6.097   2.067   5.338 -0.4072 -0.7096 -0.5741
54161SOL     OW71450   2.438   0.077  11.733  0.2211  0.1579 -0.4778
54161SOL    HW171451   2.502   0.017  11.694  2.1786  1.0923  1.0686
54161SOL    HW271452   2.473   0.094  11.821 -1.9436  1.1136  0.2625
54162SOL     OW71453   4.826   4.527   1.065  0.3217  0.3945 -0.1735
54162SOL    HW171454   4.820   4.448   1.011  1.6795  0.6456 -0.7409
54162SOL    HW271455   4.837   4.598   1.001 -0.0143  0.9355  0.3637
54163SOL     OW71456  12.494   4.351   2.543 -0.5560  0.3238 -0.4610
54163SOL    HW171457  12.430   4.356   2.472 -1.1917 -1.1489 -0.0120
54163SOL    HW271458  12.556   4.422   2.523 -1.8597  1.2747 -1.3358
54164SOL     OW71459  10.553   9.165   2.756  0.3881 -0.3845  0.4316
54164SOL    HW171460  10.512   9.204   2.833  0.6823 -0.6611  0.7272
54164SOL    HW271461  10.579   9.077   2.784  0.3606 -0.5425 -0.0264
54165SOL     OW71462  11.621   0.386   9.431  0.0534 -0.0666  0.0674
54165SOL    HW171463  11.679   0.329   9.481 -0.0924  0.4242  0.8085
54165SOL    HW271464  11.675   0.462   9.409 -0.1725  0.1853  0.3714
54166SOL     OW71465   9.032   3.613   5.549  0.2617 -0.2260  0.2816
54166SOL    HW171466   9.017   3.628   5.642 -0.0233  0.0934  0.1909
54166SOL    HW271467   9.010   3.697   5.508 -0.8888 -0.7349 -0.2005
54167SOL     OW71468   9.863   2.346   7.854 -0.2441 -0.0953  0.4695
54167SOL    HW171469   9.933   2.398   7.893  0.2381  0.6282 -1.2482
54167SOL    HW271470   9.787   2.403   7.854 -0.4300 -0.3370  0.9431
54168SOL     OW71471   8.537   9.688  12.207 -0.2642  0.3516 -0.3629
54168SOL    HW171472   8.487   9.614  12.242 -0.9042  1.7678  1.9029
54168SOL    HW271473   8.615   9.693  12.261  0.7062  0.2620 -1.6921
54169SOL     OW71474   5.631   5.235  11.253 -0.5214 -0.1557 -0.2579
54169SOL    HW171475   5.644   5.280  11.170 -1.1285  0.1187 -0.2114
54169SOL    HW271476   5.717   5.234  11.294 -0.2283 -0.2523 -0.8685
54170SOL     OW71477   9.297   8.989   8.200 -0.1356  0.2018 -0.0915
54170SOL    HW171478   9.316   9.057   8.136 -0.7565 -2.0985 -2.9603
54170SOL    HW271479   9.245   9.033   8.268 -2.9707  2.0990 -3.1904
54171SOL     OW71480   2.530   2.350   7.478  0.2228 -0.6115  0.5101
54171SOL    HW171481   2.540   2.289   7.405  0.2522 -0.3328  0.2804
54171SOL    HW271482   2.527   2.294   7.555 -1.0892 -1.0125  0.1998
54172SOL     OW71483   0.681   9.093   5.505  0.3725 -0.3563 -0.1162
54172SOL    HW171484   0.731   9.025   5.459  3.0124  2.8674 -2.5385
54172SOL    HW271485   0.738   9.120   5.577  0.0787  0.3457 -0.1450
54173SOL     OW71486   7.499   9.916  10.010  0.0043 -0.2336  0.3154
54173SOL    HW171487   7.434   9.909   9.940  1.3416 -0.2405 -0.9685
54173SOL    HW271488   7.533   9.827  10.020  0.8100  0.0373  0.0001
54174SOL     OW71489   0.744   7.860   9.516 -0.0477 -0.0227 -0.6893
54174SOL    HW171490   0.670   7.843   9.574  0.5108 -0.5568 -0.1069
54174SOL    HW271491   0.807   7.791   9.537 -0.1397 -0.7108 -2.4969
54175SOL     OW71492   8.704   4.184   7.913 -0.3914  0.0011  0.1138
54175SOL    HW171493   8.625   4.236   7.916 -0.1304  0.4647 -0.6399
54175SOL    HW271494   8.757   4.215   7.987 -1.1988 -0.8120  1.0574
54176SOL     OW71495   5.251   1.966   0.144  0.0304  0.0898  0.1011
54176SOL    HW171496   5.290   1.960   0.057  0.3371  1.4773  0.1155
54176SOL    HW271497   5.318   2.008   0.198 -1.1393  1.8052  0.3121
54177SOL     OW71498   4.988   2.424   4.372  0.3351 -0.4146  0.2032
54177SOL    HW171499   4.992   2.462   4.460 -1.7478  1.2467 -0.3349
54177SOL    HW271500   4.982   2.329   4.387  0.6961 -0.2147  1.7991
54178SOL     OW71501   7.518   0.687   7.242  0.0692 -0.0892  0.2428
54178SOL    HW171502   7.604   0.661   7.274  0.3166 -0.2762 -0.5444
54178SOL    HW271503   7.510   0.779   7.266  0.9029  0.1978 -0.5173
54179SOL     OW71504   9.752   5.716   9.720  0.5603  0.4354 -0.1603
54179SOL    HW171505   9.775   5.647   9.782 -2.0705  0.6227  1.1698
54179SOL    HW271506   9.787   5.796   9.759 -2.6923  0.8642  2.3286
54180SOL     OW71507   8.131   3.343   7.551  0.2478 -0.6051  0.2201
54180SOL    HW171508   8.049   3.384   7.576  0.1344 -0.6257 -0.1078
54180SOL    HW271509   8.178   3.330   7.633 -0.0580 -0.5549  0.4033
54181SOL     OW71510  12.055   1.963  11.735 -0.0002 -0.1813  0.0135
54181SOL    HW171511  12.102   1.883  11.709 -1.0666 -1.0093  0.5353
54181SOL    HW271512  11.965   1.949  11.704 -0.1930  0.8537  0.0633
54182SOL     OW71513   4.871   4.259   2.073  0.0779  1.0363  0.3149
54182SOL    HW171514   4.792   4.299   2.037 -1.2221  0.8279  2.7591
54182SOL    HW271515   4.840   4.205   2.146  2.0353 -2.4682 -1.2211
54183SOL     OW71516   3.087   6.936   8.882  0.9009 -0.1651 -0.5603
54183SOL    HW171517   3.158   6.885   8.844  0.5322 -1.2847  0.2011
54183SOL    HW271518   3.011   6.878   8.880  0.4036  0.4370  0.0891
54184SOL     OW71519  11.301   2.557   2.574 -0.4313  0.6624 -0.6345
54184SOL    HW171520  11.313   2.644   2.612 -1.7345  0.6042 -0.0147
54184SOL    HW271521  11.227   2.520   2.623 -0.3203 -0.5337 -1.3340
54185SOL     OW71522   9.442   3.211   0.650 -0.2661  1.2949 -0.3805
54185SOL    HW171523   9.444   3.134   0.593 -0.3146  0.3366  0.8645
54185SOL    HW271524   9.515   3.198   0.711 -0.0353  2.4306 -0.3988
54186SOL     OW71525   8.560   7.375   4.287 -0.4784 -0.4110  0.5204
54186SOL    HW171526   8.498   7.303   4.281 -0.5103 -0.4417  1.1443
54186SOL    HW271527   8.640   7.343   4.245 -1.2457  0.0565 -1.3991
54187SOL     OW71528  12.056   6.915   8.835 -0.1524  0.0618  0.0512
54187SOL    HW171529  11.988   6.872   8.783 -0.8509  0.1375  0.8620
54187SOL    HW271530  12.130   6.925   8.776 -0.3422 -1.3352 -0.4441
54188SOL     OW71531   1.078  10.163   3.832  0.0848 -0.0612  0.1730
54188SOL    HW171532   1.092  10.231   3.898  0.1430 -0.5823  0.7099
54188SOL    HW271533   1.014  10.200   3.772 -0.0241  0.3945  0.5637
54189SOL     OW71534   1.673   1.976   8.413 -0.7448  0.1681 -0.7759
54189SOL    HW171535   1.596   1.968   8.469 -1.3231 -0.2058 -1.6106
54189SOL    HW271536   1.638   1.989   8.325  0.1526  0.6697 -1.0674
54190SOL     OW71537  10.170  11.568   1.531  0.4258 -0.0250 -0.1876
54190SOL    HW171538  10.111  11.493   1.530 -0.1117  0.3916  0.0151
54190SOL    HW271539  10.224  11.555   1.609 -1.8988  1.4880  1.8141
54191SOL     OW71540   3.496   4.767   5.440  0.0315 -0.0311 -0.1107
54191SOL    HW171541   3.491   4.693   5.380  0.3730 -0.2559  0.1311
54191SOL    HW271542   3.426   4.750   5.504  1.8984 -1.7144  1.6553
54192SOL     OW71543  10.034  12.532   6.325 -0.0552 -0.2382  0.5021
54192SOL    HW171544  10.092  12.476   6.274 -1.7025 -1.1899 -0.4104
54192SOL    HW271545  10.028  12.487   6.410 -1.2773 -1.4532 -0.1841
54193SOL     OW71546  11.293   3.487   4.516 -0.3975 -0.0575  0.1074
54193SOL    HW171547  11.268   3.405   4.473 -0.5934 -0.3358  0.7322
54193SOL    HW271548  11.302   3.463   4.608  2.1360  0.0321 -0.0536
54194SOL     OW71549   2.882   2.038   8.305  0.2060 -0.0813  0.5145
54194SOL    HW171550   2.840   1.957   8.277 -1.8424  0.3244  2.1619
54194SOL    HW271551   2.858   2.102   8.238  0.7129 -0.5096 -0.0886
54195SOL     OW71552   3.099   1.339  10.650 -0.7680 -0.7909 -0.4417
54195SOL    HW171553   3.020   1.389  10.629 -0.5585 -0.6300 -0.8606
54195SOL    HW271554   3.070   1.271  10.710 -1.3225 -1.0607 -1.0130
54196SOL     OW71555   5.063   2.237   0.580 -0.4173  0.2448  0.1619
54196SOL    HW171556   5.076   2.146   0.554 -0.0252  0.1140  0.7935
54196SOL    HW271557   5.055   2.234   0.675 -0.5708  0.8538  0.1730
54197SOL     OW71558   9.516   1.125  11.363 -0.5553 -0.6239  0.3467
54197SOL    HW171559   9.566   1.118  11.282  0.0583 -3.0995  0.8742
54197SOL    HW271560   9.426   1.142  11.335  0.1784  2.1481 -0.6653
54198SOL     OW71561   6.030   6.707   5.085  0.0675  0.3966  0.0634
54198SOL    HW171562   5.974   6.668   5.152  0.0057  1.4780  0.6634
54198SOL    HW271563   6.032   6.642   5.014 -1.8358  0.2649  0.0731
54199SOL     OW71564   1.261   0.631   9.428 -0.0248 -0.0269  0.1137
54199SOL    HW171565   1.187   0.632   9.367 -0.2854 -4.7595 -0.0131
54199SOL    HW271566   1.226   0.669   9.509 -2.4420 -1.4039 -0.1926
54200SOL     OW71567   8.343  10.805   1.913 -0.5435 -0.5305 -0.8272
54200SOL    HW171568   8.304  10.725   1.876 -0.7402 -1.2226  0.7966
54200SOL    HW271569   8.313  10.807   2.003 -2.5341  2.7036 -1.4238
54201SOL     OW71570  10.753   8.566   1.417  0.3339 -0.0168  0.1139
54201SOL    HW171571  10.751   8.471   1.424  1.3472 -0.0870 -0.3894
54201SOL    HW271572  10.826   8.585   1.359 -1.4793  0.9583 -2.0207
54202SOL     OW71573  10.100   2.957   5.166 -0.4123  0.1260  0.7053
54202SOL    HW171574  10.113   2.866   5.191 -0.2035 -0.2915 -0.8507
54202SOL    HW271575  10.006   2.965   5.152 -0.2252 -0.4037 -1.0786
54203SOL     OW71576   0.188   5.303   5.215 -0.0490  0.1413  0.4954
54203SOL    HW171577   0.142   5.379   5.251  0.7861  1.7965 -1.7248
54203SOL    HW271578   0.121   5.254   5.167 -0.2767  0.3569  0.5917
54204SOL     OW71579   0.111   9.572   2.269 -0.2521  0.2234 -0.4519
54204SOL    HW171580   0.196   9.593   2.307 -0.5308 -0.8133  0.8110
54204SOL    HW271581   0.048   9.622   2.322 -0.5943 -0.7568  0.0909
54205SOL     OW71582   4.468   7.603   0.870  0.6530 -0.3395 -0.1380
54205SOL    HW171583   4.481   7.566   0.957 -0.3426 -0.7910 -0.1712
54205SOL    HW271584   4.382   7.644   0.874  1.1131  0.7053 -0.5527
54206SOL     OW71585  10.942  11.626  12.403 -0.5075 -0.0700 -0.0766
54206SOL    HW171586  11.016  11.686  12.407 -0.0546 -0.6658  1.5731
54206SOL    HW271587  10.981  11.539  12.402 -1.1763 -0.3773 -0.5065
54207SOL     OW71588   1.609   5.933   7.193 -0.4585  0.2718  0.7134
54207SOL    HW171589   1.639   5.868   7.256 -0.7368  0.2006  0.7759
54207SOL    HW271590   1.533   5.892   7.150  0.5900 -0.2744 -0.7067
54208SOL     OW71591   1.790  10.835   6.160 -0.1616  0.0726  0.3133
54208SOL    HW171592   1.731  10.865   6.229  0.5277  0.1708  0.8648
54208SOL    HW271593   1.858  10.901   6.155  0.0358 -0.1559 -0.1636
54209SOL     OW71594   1.445   4.303   6.039 -0.2781  0.4001 -0.4640
54209SOL    HW171595   1.486   4.374   5.990  1.2007 -0.7992 -1.0024
54209SOL    HW271596   1.447   4.228   5.980  0.7159 -0.8367  1.0585
54210SOL     OW71597  12.014   3.282   4.170  0.1960 -0.3404 -0.2186
54210SOL    HW171598  12.100   3.323   4.175 -0.4494  1.1468 -0.8421
54210SOL    HW271599  12.006   3.254   4.079 -0.7365  1.3026 -0.6750
54211SOL     OW71600   3.327   8.015   8.623  0.4402 -0.3488  0.2108
54211SOL    HW171601   3.401   8.069   8.650 -0.0210  0.8018 -0.7037
54211SOL    HW271602   3.251   8.060   8.660  0.0883 -0.6715 -0.1084
54212SOL     OW71603  11.060  11.629  11.276 -0.5796  0.1098  0.1696
54212SOL    HW171604  11.094  11.636  11.187 -1.1220 -0.1290 -0.0652
54212SOL    HW271605  11.097  11.547  11.309  1.5472  1.3648  1.0387
54213SOL     OW71606   9.240   8.322   4.686  0.0741 -0.2160  0.2110
54213SOL    HW171607   9.268   8.278   4.767 -0.7866 -0.7097  0.2489
54213SOL    HW271608   9.317   8.372   4.659  1.2530 -2.0458 -0.0552
54214SOL     OW71609   9.279   5.343   6.927 -0.2227 -0.5791 -0.0794
54214SOL    HW171610   9.238   5.377   6.848  0.0485 -1.2733 -0.5211
54214SOL    HW271611   9.361   5.392   6.935 -0.3706 -0.3291 -0.0815
54215SOL     OW71612   5.792   2.072   6.732  0.0761  0.1951  0.7210
54215SOL    HW171613   5.827   2.097   6.818 -0.3466  0.0550  0.9343
54215SOL    HW271614   5.701   2.102   6.733  0.1485  0.4425  0.2144
54216SOL     OW71615   8.604   8.569  11.444  0.0175 -0.6271 -0.0720
54216SOL    HW171616   8.686   8.606  11.475  0.4383 -2.1858  0.7747
54216SOL    HW271617   8.628   8.516  11.368 -0.5187  0.4346 -1.0207
54217SOL     OW71618   3.228   0.372   3.156 -0.2748 -0.2301  0.2473
54217SOL    HW171619   3.232   0.414   3.070  2.9986  0.5429  0.6100
54217SOL    HW271620   3.230   0.278   3.137  0.2221 -0.0665 -0.5747
54218SOL     OW71621   2.961   4.999   9.119 -0.4659  0.7608 -0.4880
54218SOL    HW171622   2.890   4.985   9.182  1.9887  1.3517  2.6653
54218SOL    HW271623   2.928   5.066   9.060 -3.0396 -0.0220 -0.0557
54219SOL     OW71624   6.371   8.177   1.825 -0.0041  0.5666  0.1585
54219SOL    HW171625   6.414   8.263   1.819 -0.5650  0.7696 -1.7155
54219SOL    HW271626   6.280   8.197   1.849  0.2007  0.3729  1.1214
54220SOL     OW71627   3.094   8.705   8.140 -0.3498 -0.2138 -0.9214
54220SOL    HW171628   3.061   8.671   8.056  0.8095 -0.3437 -1.3425
54220SOL    HW271629   3.171   8.652   8.158  1.0782  1.6636 -1.2187
54221SOL     OW71630   4.161   4.234  10.538 -0.0237 -0.2694  0.1878
54221SOL    HW171631   4.193   4.309  10.488  0.5312  0.6178  1.8137
54221SOL    HW271632   4.236   4.175  10.544 -0.1985 -0.5507 -0.3162
54222SOL     OW71633   9.380  11.384   1.736 -0.0175 -0.2996 -0.0311
54222SOL    HW171634   9.469  11.361   1.708 -0.1747  1.9788 -2.8012
54222SOL    HW271635   9.381  11.479   1.747 -1.6244 -0.4349  2.0841
54223SOL     OW71636   1.523  11.024   7.079  0.0912  0.1677  0.1217
54223SOL    HW171637   1.491  11.090   7.140  0.6456  1.0792 -0.5452
54223SOL    HW271638   1.595  10.981   7.126 -1.5049 -1.3195  1.3013
54224SOL     OW71639   6.639   3.327   9.611  0.1431 -0.0899  0.1780
54224SOL    HW171640   6.620   3.255   9.551 -1.1041 -0.1377  0.6206
54224SOL    HW271641   6.587   3.400   9.579 -0.7531 -0.1889  1.3391
54225SOL     OW71642   3.750  10.377   3.269  0.7704  0.2141 -0.0640
54225SOL    HW171643   3.844  10.377   3.251  0.7404  0.3794 -0.2292
54225SOL    HW271644   3.715  10.311   3.210  0.6799  0.7125 -0.5844
54226SOL     OW71645   8.425  10.573   5.698  0.4194 -0.1500  0.1659
54226SOL    HW171646   8.515  10.601   5.711  0.2854  0.5303 -0.3209
54226SOL    HW271647   8.387  10.574   5.786  0.7718 -0.0485  0.3189
54227SOL     OW71648   7.742  11.863   1.465 -0.3077  0.3934 -0.5905
54227SOL    HW171649   7.811  11.808   1.430  0.8812  0.6584  1.1967
54227SOL    HW271650   7.767  11.878   1.557 -1.7789  2.0045 -0.3907
54228SOL     OW71651   1.497   9.474   8.133 -0.7853 -0.4986  0.0112
54228SOL    HW171652   1.455   9.487   8.048 -1.3416  0.2263  0.3805
54228SOL    HW271653   1.531   9.561   8.156  1.8695 -1.2572 -0.7509
54229SOL     OW71654  10.320  11.424  11.603 -0.1222  0.2022 -0.6840
54229SOL    HW171655  10.414  11.420  11.619 -0.0548 -0.1966 -1.1423
54229SOL    HW271656  10.312  11.431  11.508 -0.5321  1.2342 -0.5808
54230SOL     OW71657  12.278   4.563   9.439  0.4385  0.0110  0.1822
54230SOL    HW171658  12.262   4.603   9.354 -0.8545 -1.6824 -0.4116
54230SOL    HW271659  12.230   4.618   9.501  0.1360  0.3744 -0.3744
54231SOL     OW71660   1.565  10.222   9.367  0.1475 -0.2298  0.0583
54231SOL    HW171661   1.537  10.186   9.283 -0.1852 -1.4329  0.6583
54231SOL    HW271662   1.559  10.317   9.356  1.6913 -0.2893 -1.7984
54232SOL     OW71663   9.059   8.028   9.561 -0.3654  0.0634  0.1019
54232SOL    HW171664   9.070   7.986   9.646  0.0345  0.1678  0.1001
54232SOL    HW271665   9.147   8.033   9.524 -0.8534 -3.3388 -1.9449
54233SOL     OW71666   9.855   2.886  12.405 -0.2553 -0.1356  0.3025
54233SOL    HW171667   9.888   2.966  12.365 -0.1808 -0.1525  0.3305
54233SOL    HW271668   9.926   2.823  12.394 -1.6098 -1.3046 -3.0560
54234SOL     OW71669  11.955   0.781   5.869  0.0359 -0.2879  0.3677
54234SOL    HW171670  11.919   0.694   5.883 -3.3566  0.8111 -0.4644
54234SOL    HW271671  12.050   0.769   5.872 -0.2769 -4.0450 -0.2025
54235SOL     OW71672   5.029   3.329   5.373 -0.0625  0.3205 -0.4151
54235SOL    HW171673   4.986   3.244   5.389  0.4847 -0.0760 -1.0015
54235SOL    HW271674   5.005   3.351   5.283  2.7404 -1.0169 -1.5936
54236SOL     OW71675   5.983   9.433   4.552  0.0547  0.1544  0.3330
54236SOL    HW171676   5.984   9.384   4.634 -1.3289  0.1401  0.3635
54236SOL    HW271677   5.895   9.421   4.518  1.3455 -2.2965 -2.6898
54237SOL     OW71678   8.417  11.313  10.889  0.2829 -0.0658 -0.2324
54237SOL    HW171679   8.363  11.384  10.855 -0.0556  0.0183  0.4509
54237SOL    HW271680   8.450  11.346  10.973  0.1273 -0.7031  0.0886
54238SOL     OW71681   3.178   7.926   0.502 -0.3046  0.1099 -0.8332
54238SOL    HW171682   3.088   7.923   0.534 -0.3396  0.6797 -0.8651
54238SOL    HW271683   3.189   8.015   0.470 -0.4376 -0.5637 -2.8876
54239SOL     OW71684  12.221   8.988  10.416  0.1479 -0.5280  0.1723
54239SOL    HW171685  12.316   8.977  10.423  0.3722  0.4526 -0.9596
54239SOL    HW271686  12.189   8.976  10.506  1.6729  1.8671  1.1381
54240SOL     OW71687   1.238   5.115   0.356  0.8531 -0.3510 -0.0888
54240SOL    HW171688   1.237   5.019   0.360  0.2713 -0.3483 -0.0389
54240SOL    HW271689   1.306   5.136   0.292  0.8764 -0.8011 -0.2144
54241SOL     OW71690  10.125   6.411   9.473 -0.0978 -0.3601 -0.3520
54241SOL    HW171691  10.097   6.363   9.395 -0.0520 -1.4231  0.2668
54241SOL    HW271692  10.167   6.490   9.439 -1.2637 -0.1446 -1.3630
54242SOL     OW71693   0.658   5.500  12.311 -0.2717 -0.4149  0.4103
54242SOL    HW171694   0.710   5.427  12.277  0.1241 -0.5548  1.2898
54242SOL    HW271695   0.590   5.514  12.245  0.3008 -0.8651 -0.2884
54243SOL     OW71696   3.671   3.116   9.038  0.9005  0.0023 -0.1654
54243SOL    HW171697   3.722   3.037   9.023  0.5998 -0.4323  0.9783
54243SOL    HW271698   3.605   3.090   9.102 -0.1962  0.7828 -0.9454
54244SOL     OW71699   0.202   0.033   2.427  0.2962 -0.6131 -0.5012
54244SOL    HW171700   0.249  -0.040   2.468  1.1829 -0.8710 -1.8855
54244SOL    HW271701   0.249   0.111   2.456  1.4730 -0.8514 -1.6336
54245SOL     OW71702   5.783  11.615  11.287 -0.0838 -0.0683 -0.2496
54245SOL    HW171703   5.847  11.676  11.324  0.5467 -1.6465  1.4285
54245SOL    HW271704   5.787  11.630  11.192  1.4210  1.1554 -0.0245
54246SOL     OW71705   4.770   8.920   2.762  0.4811 -0.2897  0.2757
54246SOL    HW171706   4.684   8.879   2.753 -0.2614  1.5029 -1.4152
54246SOL    HW271707   4.828   8.866   2.708  0.5361 -1.6544  1.6238
54247SOL     OW71708   3.387  11.942   6.610  0.1197  0.2931 -0.8994
54247SOL    HW171709   3.478  11.953   6.634 -0.2026 -0.2399  0.6508
54247SOL    HW271710   3.345  12.024   6.635 -0.6640 -1.0461  2.8035
54248SOL     OW71711   6.208   2.625   2.332 -0.6602  0.2144  0.4279
54248SOL    HW171712   6.234   2.574   2.255 -0.5961  1.5912 -0.5011
54248SOL    HW271713   6.119   2.654   2.313 -1.7835 -1.7673  2.1695
54249SOL     OW71714   7.460  11.096  10.617 -0.1050  0.7246 -0.0576
54249SOL    HW171715   7.409  11.031  10.665  1.2854 -0.3403  0.0233
54249SOL    HW271716   7.537  11.049  10.587 -0.4307  1.5940 -2.4929
54250SOL     OW71717   5.069  11.207   2.703 -0.1700 -0.6536  0.7714
54250SOL    HW171718   5.023  11.124   2.706 -0.4918 -0.5795 -1.1714
54250SOL    HW271719   5.111  11.214   2.789 -4.1265 -0.4790  2.9267
54251SOL     OW71720  12.075   0.227  10.397 -0.0188 -0.4786 -0.2692
54251SOL    HW171721  12.130   0.192  10.468  2.2123  0.4219 -1.4601
54251SOL    HW271722  12.043   0.310  10.431 -0.4063 -0.8540  0.3121
54252SOL     OW71723   8.608  10.073   5.258  0.3697 -0.0660 -0.7949
54252SOL    HW171724   8.664  10.149   5.239  1.0503 -0.1376  0.7342
54252SOL    HW271725   8.628  10.010   5.189  1.1957  0.4356 -1.0293
54253SOL     OW71726   8.874   0.131   2.450  0.2827 -0.5766  0.9474
54253SOL    HW171727   8.969   0.143   2.447  0.2540 -0.0908  1.6957
54253SOL    HW271728   8.853   0.092   2.366  0.5966  3.4247 -1.2208
54254SOL     OW71729   0.145   6.419   8.607  0.0362  0.2026  0.6379
54254SOL    HW171730   0.080   6.450   8.544 -0.3974  0.5254  1.2425
54254SOL    HW271731   0.221   6.476   8.592  0.6876 -1.0027 -0.9656
54255SOL     OW71732   2.499  11.776  10.311 -0.3795 -0.4566 -0.4412
54255SOL    HW171733   2.591  11.772  10.338 -0.2354  0.7950 -0.6883
54255SOL    HW271734   2.452  11.802  10.390 -0.1202  1.8825 -0.9803
54256SOL     OW71735   6.171  11.406   7.162 -0.2537 -0.4464  0.0969
54256SOL    HW171736   6.158  11.456   7.243  0.1682 -0.0444 -0.0745
54256SOL    HW271737   6.201  11.320   7.192  1.6308  0.2471  0.3514
54257SOL     OW71738  11.641   2.170   9.971  0.1854 -0.2051  0.6422
54257SOL    HW171739  11.718   2.112   9.973  0.9761  0.7408 -0.8957
54257SOL    HW271740  11.585   2.137  10.041  1.4276 -1.7010  0.9872
54258SOL     OW71741   5.539   7.190   3.724  0.2084 -0.2649 -0.1608
54258SOL    HW171742   5.487   7.216   3.800 -1.9490 -1.2000 -1.2350
54258SOL    HW271743   5.600   7.262   3.712 -1.9106  1.7351  0.2208
54259SOL     OW71744   4.225   8.583   7.609 -0.2433  0.4317  0.1624
54259SOL    HW171745   4.318   8.587   7.586 -0.3579 -1.3516 -0.8111
54259SOL    HW271746   4.224   8.552   7.700  0.1395 -1.4622 -0.4299
54260SOL     OW71747   7.407   1.818   5.000 -0.4874  1.1506  0.0526
54260SOL    HW171748   7.410   1.739   4.947  1.2235  0.8333  0.5719
54260SOL    HW271749   7.336   1.869   4.962 -1.1806 -0.3229 -0.7165
54261SOL     OW71750   7.065   3.492   7.879 -0.7319 -0.1735  0.2155
54261SOL    HW171751   7.097   3.576   7.846  1.5460 -0.5387  1.2888
54261SOL    HW271752   7.006   3.460   7.811  1.0279  0.7261 -1.8269
54262SOL     OW71753   4.291   4.640   0.456 -0.1067  0.1921  0.3014
54262SOL    HW171754   4.231   4.654   0.383 -1.1418 -0.2954  1.0357
54262SOL    HW271755   4.362   4.588   0.418  0.1401  1.2282 -0.7040
54263SOL     OW71756   2.252   9.301  12.344 -0.0856 -0.2600 -0.0293
54263SOL    HW171757   2.270   9.389  12.376 -1.0825 -0.4392  1.1190
54263SOL    HW271758   2.162   9.306  12.310  0.0641 -0.6929 -0.5027
54264SOL     OW71759   7.210   4.570   1.996 -0.3441  0.0141 -0.3014
54264SOL    HW171760   7.286   4.512   1.993 -0.3261 -0.2412  2.5646
54264SOL    HW271761   7.228   4.637   1.931  2.1284 -0.3047 -0.0203
54265SOL     OW71762   1.426   6.350   7.216  0.3285 -0.4366 -0.1696
54265SOL    HW171763   1.366   6.411   7.174  1.2760  1.2968  0.8590
54265SOL    HW271764   1.497   6.337   7.152  0.1801 -0.3883 -0.3444
54266SOL     OW71765   3.726   5.779  12.011 -0.2087  0.1749  0.4479
54266SOL    HW171766   3.632   5.771  12.024 -0.4334 -1.0778 -1.5719
54266SOL    HW271767   3.741   5.873  12.004 -1.3610  0.3713  0.4256
54267SOL     OW71768   2.308   8.837   1.545 -0.8847  0.3084  0.1401
54267SOL    HW171769   2.279   8.817   1.456 -1.2512  2.2124 -0.2168
54267SOL    HW271770   2.394   8.794   1.552 -0.4706  0.7739 -1.4347
54268SOL     OW71771   8.928   3.291   7.591  0.3188 -0.1634  0.3617
54268SOL    HW171772   8.850   3.283   7.645  1.1266 -0.2593  1.5438
54268SOL    HW271773   8.895   3.284   7.501 -1.2691  1.7692  0.7268
54269SOL     OW71774  12.239   8.260   7.884 -0.0786 -0.1278 -0.2878
54269SOL    HW171775  12.167   8.197   7.872  0.1618 -0.2734 -1.0556
54269SOL    HW271776  12.197   8.336   7.924 -0.5086 -0.5091  0.0049
54270SOL     OW71777   0.413   9.138   8.782 -0.0063 -0.5415 -0.2008
54270SOL    HW171778   0.483   9.203   8.770  0.2213 -0.5881  0.7398
54270SOL    HW271779   0.418   9.083   8.704  0.4636 -0.0431 -0.5371
54271SOL     OW71780   7.861   7.361  11.791 -0.1458 -0.0402  0.2470
54271SOL    HW171781   7.785   7.373  11.848  0.8297  1.3859  1.3428
54271SOL    HW271782   7.879   7.448  11.755  1.2446 -0.2204  0.4203
54272SOL     OW71783   4.217  11.084   3.038  0.1019  0.1565  0.1966
54272SOL    HW171784   4.285  11.108   2.975  1.2659  1.6221  1.9381
54272SOL    HW271785   4.265  11.061   3.117 -1.3847 -0.3099  0.9839
54273SOL     OW71786   2.072   4.643   5.336  0.4083  0.4428 -0.3645
54273SOL    HW171787   2.046   4.636   5.244  1.7016 -0.0470 -0.7212
54273SOL    HW271788   2.119   4.726   5.342  0.8322  0.2057 -0.2991
54274SOL     OW71789   1.809   9.161   2.010  0.5683 -0.0839 -0.1211
54274SOL    HW171790   1.792   9.248   2.047 -1.3498 -0.1354 -0.7835
54274SOL    HW271791   1.783   9.100   2.079  1.8917 -0.1667  0.3348
54275SOL     OW71792   9.074   3.243   9.541  0.2372 -0.6367  0.3203
54275SOL    HW171793   9.160   3.232   9.501 -0.3368  0.5031 -1.3422
54275SOL    HW271794   9.083   3.206   9.629  2.6502  0.1244  0.4670
54276SOL     OW71795   5.628   4.047   6.092 -0.1846  0.0574 -0.3578
54276SOL    HW171796   5.588   4.128   6.122  0.2916  0.0639  0.2717
54276SOL    HW271797   5.564   4.009   6.032 -1.8969 -0.7582  1.8618
54277SOL     OW71798  11.667  10.441   5.798  0.4240  0.0916  0.3731
54277SOL    HW171799  11.616  10.465   5.721 -1.0242 -1.8612  0.6485
54277SOL    HW271800  11.705  10.356   5.776 -1.0976 -1.1554  2.2237
54278SOL     OW71801   4.253   0.887  11.747 -1.0177 -0.4056 -0.4987
54278SOL    HW171802   4.306   0.926  11.817 -0.1960 -0.3596 -1.1234
54278SOL    HW271803   4.183   0.950  11.731 -2.7813 -1.5706  2.0189
54279SOL     OW71804   8.577   5.118  10.580  0.3353 -0.5382 -0.2796
54279SOL    HW171805   8.485   5.127  10.556  0.4344 -0.6169 -0.6945
54279SOL    HW271806   8.591   5.187  10.645  0.1245 -0.1641 -0.6274
54280SOL     OW71807   2.089   2.498   6.600  0.0030 -0.1220  0.0356
54280SOL    HW171808   2.125   2.485   6.512  0.0948  0.1301  0.0349
54280SOL    HW271809   2.053   2.412   6.624  2.5081 -1.0101  0.9122
54281SOL     OW71810   8.990   5.631  10.742 -0.6478 -0.0362 -0.3663
54281SOL    HW171811   9.071   5.665  10.705 -0.7811  0.1395 -0.4970
54281SOL    HW271812   9.012   5.542  10.771 -0.6546 -0.3396 -1.2692
54282SOL     OW71813   4.107   2.941   2.423  0.6265 -0.4605  0.1874
54282SOL    HW171814   4.056   3.020   2.444 -1.6043 -1.3975 -1.3969
54282SOL    HW271815   4.150   2.919   2.506  0.7023  1.9493  0.8782
54283SOL     OW71816   4.497   2.000  11.866  0.0645 -0.6091 -0.2542
54283SOL    HW171817   4.574   2.037  11.824 -1.5293  1.1982 -1.8171
54283SOL    HW271818   4.429   2.066  11.853 -1.8931 -2.3387  0.5929
54284SOL     OW71819   7.004   5.409   3.035 -0.1891 -0.2607  0.5566
54284SOL    HW171820   7.016   5.338   2.972  2.1430  0.9701 -0.5141
54284SOL    HW271821   6.961   5.478   2.985 -0.8977 -0.2952  1.1141
54285SOL     OW71822   9.322   7.691   0.093  0.2227 -0.0304  0.6432
54285SOL    HW171823   9.388   7.760   0.097 -0.7904  1.0284 -0.3178
54285SOL    HW271824   9.242   7.736   0.069 -0.6166 -1.4635  0.6662
54286SOL     OW71825   6.567   2.223  12.398  0.3398 -0.6901  0.5540
54286SOL    HW171826   6.657   2.235  12.425 -0.1742 -0.0291  2.0519
54286SOL    HW271827   6.515   2.233  12.478 -1.2193  0.8687 -0.5627
54287SOL     OW71828   0.150   4.515  12.101  0.6461  0.0600 -0.4381
54287SOL    HW171829   0.081   4.470  12.150 -0.0436 -2.1693 -3.1957
54287SOL    HW271830   0.104   4.585  12.055  0.5317 -0.3540 -0.9590
54288SOL     OW71831   5.572   4.715   2.944  0.6641 -0.0270  0.3631
54288SOL    HW171832   5.528   4.690   2.862  1.2621 -0.3224  0.1286
54288SOL    HW271833   5.515   4.781   2.982 -0.4290 -1.0043  0.4857
54289SOL     OW71834   8.021   5.683   7.172  0.7405 -0.4273  0.1250
54289SOL    HW171835   7.972   5.674   7.253  0.3246 -1.0489 -0.1848
54289SOL    HW271836   8.099   5.628   7.184  0.4356 -0.9106 -0.0726
54290SOL     OW71837   2.166   4.266  10.789 -0.2936 -0.4021 -0.1063
54290SOL    HW171838   2.206   4.337  10.839  0.4561 -2.0428  1.7826
54290SOL    HW271839   2.205   4.273  10.702  0.8805  0.6207  0.4757
54291SOL     OW71840  11.623   9.588   8.441  0.4379 -0.0597 -0.1682
54291SOL    HW171841  11.708   9.631   8.432 -0.1912  1.4437  0.7349
54291SOL    HW271842  11.643   9.501   8.473  1.6952 -0.0876 -0.9767
54292SOL     OW71843   8.615   8.743  11.899 -0.0859 -0.4485 -0.2016
54292SOL    HW171844   8.599   8.809  11.966 -0.5022 -0.2804 -0.4632
54292SOL    HW271845   8.689   8.777  11.849  1.4180 -1.4209  1.2596
54293SOL     OW71846   9.733   2.577   4.852  0.2645 -0.1719  0.4335
54293SOL    HW171847   9.716   2.585   4.946 -0.1324  1.8357  0.2415
54293SOL    HW271848   9.652   2.607   4.811  0.8008 -0.0356 -0.5500
54294SOL     OW71849   0.190   0.595   0.297 -0.1713 -0.1634 -0.5885
54294SOL    HW171850   0.143   0.647   0.362  0.6215  0.2189 -0.3099
54294SOL    HW271851   0.122   0.568   0.235 -1.1826 -1.6272  1.0622
54295SOL     OW71852   8.438   7.393   9.882  0.3873  0.2958 -0.4072
54295SOL    HW171853   8.471   7.483   9.878  1.3836 -0.0102  0.3798
54295SOL    HW271854   8.477   7.350   9.805  0.2674  0.4251 -0.5402
54296SOL     OW71855  10.364   7.753   6.618  0.0793  0.2170 -0.0411
54296SOL    HW171856  10.422   7.774   6.545  0.2603 -2.3291 -0.7367
54296SOL    HW271857  10.297   7.821   6.616  0.9163  1.0539 -1.6210
54297SOL     OW71858   7.080  12.297   0.547  0.3536  0.2884  0.1308
54297SOL    HW171859   7.135  12.350   0.490  1.1816 -2.0680 -1.4030
54297SOL    HW271860   6.993  12.335   0.537  0.7794  0.9495 -1.4835
54298SOL     OW71861   2.281   1.993   0.626  0.0583  0.0820 -0.1921
54298SOL    HW171862   2.268   2.049   0.549 -1.2621  0.7855  0.5143
54298SOL    HW271863   2.357   1.939   0.603  0.6720  1.3736 -1.3408
54299SOL     OW71864   4.917  10.894   7.527  0.1631  0.0635  0.5606
54299SOL    HW171865   4.846  10.949   7.559  0.1218  0.1246  0.3684
54299SOL    HW271866   4.988  10.955   7.509  0.7167 -0.1487  1.9797
54300SOL     OW71867   8.870   8.180   0.238  0.6024  0.5596 -0.2812
54300SOL    HW171868   8.955   8.171   0.196  1.5943 -0.1479  1.7427
54300SOL    HW271869   8.807   8.170   0.167  2.1442 -1.6015 -1.4600
54301SOL     OW71870  12.373   4.643   6.386  0.2282 -0.5572 -0.4987
54301SOL    HW171871  12.323   4.570   6.351 -0.8892 -0.3694  0.6093
54301SOL    HW271872  12.394   4.617   6.476  2.0294 -0.5698 -0.8970
54302SOL     OW71873   3.007  12.305   4.626  0.8268 -0.0049  0.1024
54302SOL    HW171874   3.102  12.293   4.620  0.8477  0.2443 -0.1277
54302SOL    HW271875   2.987  12.369   4.557  0.5073  0.0229  0.2174
54303SOL     OW71876   4.653  11.520  11.521 -0.5131 -0.0856  0.1898
54303SOL    HW171877   4.679  11.428  11.533  0.6925  0.3804  1.4894
54303SOL    HW271878   4.581  11.533  11.583 -0.7762 -0.1758 -0.0931
54304SOL     OW71879   6.604   7.633   2.286  0.3681 -0.2124  0.0094
54304SOL    HW171880   6.630   7.569   2.220 -0.9743 -1.8615  0.9671
54304SOL    HW271881   6.672   7.627   2.353  2.1536  2.0369 -1.4931
54305SOL     OW71882   7.899   4.995   4.533 -0.6170  0.2904  0.2535
54305SOL    HW171883   7.865   5.083   4.543 -1.0652  0.0140  1.3214
54305SOL    HW271884   7.879   4.971   4.442 -1.0149  1.0612  0.1348
54306SOL     OW71885   7.095   6.168   4.438 -0.4303  0.0650  0.1422
54306SOL    HW171886   7.177   6.183   4.391  0.1783 -0.3017  1.0525
54306SOL    HW271887   7.093   6.237   4.505 -0.0895 -0.8208  1.1038
54307SOL     OW71888   8.982   1.142  11.304 -0.5651 -0.0272 -0.3903
54307SOL    HW171889   8.888   1.147  11.323 -0.6187 -2.8654  0.5965
54307SOL    HW271890   8.986   1.144  11.208 -1.9946 -2.4427 -0.6172
54308SOL     OW71891  11.318   9.036   7.846 -0.5326 -0.3364 -0.4760
54308SOL    HW171892  11.301   9.009   7.936  1.6682  1.4828  0.5574
54308SOL    HW271893  11.236   9.076   7.817 -0.9728 -0.0624  1.0663
54309SOL     OW71894   7.307   1.677   4.371  0.6601  0.0896 -0.0351
54309SOL    HW171895   7.399   1.689   4.343 -0.1458 -1.0015 -3.7904
54309SOL    HW271896   7.292   1.583   4.363 -1.2389  0.4557 -1.3379
54310SOL     OW71897   4.742   8.600   8.089 -0.2877  0.3445  0.0276
54310SOL    HW171898   4.745   8.687   8.129  0.8993 -0.0882  0.9178
54310SOL    HW271899   4.656   8.566   8.113 -1.0850  1.5549 -0.9815
54311SOL     OW71900  11.481   3.041   1.801 -0.5273 -0.1804  0.0149
54311SOL    HW171901  11.544   3.016   1.868 -0.2973 -0.6720 -0.3773
54311SOL    HW271902  11.466   3.134   1.815  0.6277  0.0430 -0.1622
54312SOL     OW71903   3.074   3.287   0.043 -0.5487  0.1127  0.1888
54312SOL    HW171904   3.105   3.351   0.106 -1.3544  0.8877 -0.1844
54312SOL    HW271905   2.993   3.325   0.008  0.6078  0.4217 -2.3696
54313SOL     OW71906   7.701   6.447  12.089 -0.3195  0.4960  0.4291
54313SOL    HW171907   7.730   6.510  12.155  1.8373 -0.5131  0.5148
54313SOL    HW271908   7.606   6.443  12.100 -0.0097 -0.2261  4.0335
54314SOL     OW71909   9.943   5.328   4.443 -0.0703  0.5580  0.0222
54314SOL    HW171910   9.882   5.343   4.515  1.5671  0.9329  1.4174
54314SOL    HW271911   9.962   5.235   4.446  0.9172  0.7669  0.9081
54315SOL     OW71912   2.914   1.917   4.221  0.4913  0.3739  0.4027
54315SOL    HW171913   2.987   1.864   4.251 -0.0666 -0.0693  1.0031
54315SOL    HW271914   2.912   1.992   4.281  1.6729  1.4381 -0.8292
54316SOL     OW71915   3.779  12.000   7.784 -0.1125  0.3091 -0.9680
54316SOL    HW171916   3.798  11.936   7.852  0.0284  0.2019 -1.1090
54316SOL    HW271917   3.744  12.075   7.831 -1.8904 -0.4856 -0.9208
54317SOL     OW71918   4.860   2.850   2.200  0.2025 -0.1179  0.1072
54317SOL    HW171919   4.816   2.922   2.156 -0.0641 -2.0686 -3.1199
54317SOL    HW271920   4.934   2.891   2.245 -0.4216  2.2505 -0.8966
54318SOL     OW71921   9.693   9.541   0.088 -0.2539 -0.2862  0.1126
54318SOL    HW171922   9.671   9.448   0.074 -0.5530 -0.0709 -0.9315
54318SOL    HW271923   9.673   9.583   0.004  0.8340  0.5516  0.2500
54319SOL     OW71924   1.163   4.154   0.982 -0.5376 -0.3208 -0.3779
54319SOL    HW171925   1.131   4.130   1.069  1.5218 -0.2241  0.4578
54319SOL    HW271926   1.185   4.070   0.940 -3.3445 -0.5469 -1.6594
54320SOL     OW71927   3.369   4.744   8.946  0.0823  0.7107  0.1928
54320SOL    HW171928   3.338   4.824   8.904  0.8452  1.3968  0.9074
54320SOL    HW271929   3.448   4.771   8.993 -0.2287 -0.2437  1.2925
54321SOL     OW71930   4.155   7.650  11.076 -0.0167 -0.7149  0.5153
54321SOL    HW171931   4.065   7.683  11.075  0.5819  1.1510  1.6325
54321SOL    HW271932   4.175   7.640  11.169 -0.2219 -4.7372  0.2669
54322SOL     OW71933   0.410   6.948   8.220 -0.5587 -0.1297  0.0144
54322SOL    HW171934   0.424   7.034   8.181  1.2311  0.3736  1.5886
54322SOL    HW271935   0.353   6.965   8.295 -0.0691 -0.2623  0.4260
54323SOL     OW71936   6.304   6.910   0.378 -0.1368 -0.1723 -0.3237
54323SOL    HW171937   6.240   6.965   0.334 -0.1128  1.0807  1.1405
54323SOL    HW271938   6.253   6.860   0.442  0.0880 -0.5718 -0.4510
54324SOL     OW71939   2.678   3.182   6.388 -0.4257 -0.1168 -0.0665
54324SOL    HW171940   2.629   3.141   6.458  1.2031 -0.0012  1.2121
54324SOL    HW271941   2.625   3.168   6.309 -2.3921 -0.0993  1.1820
54325SOL     OW71942   0.851   3.735   7.364  0.2619 -0.2697  0.2851
54325SOL    HW171943   0.767   3.720   7.407  0.3462  1.9990  1.4046
54325SOL    HW271944   0.915   3.692   7.421  0.0743  0.0041  0.7062
54326SOL     OW71945   5.840   5.104   2.262 -0.3547  0.8263  0.5453
54326SOL    HW171946   5.876   5.191   2.243  0.0855  0.2096 -1.8886
54326SOL    HW271947   5.783   5.086   2.188 -2.4204  0.0150  2.2542
54327SOL     OW71948   3.886  12.431   2.421  0.1635  0.2428  0.2927
54327SOL    HW171949   3.797  12.451   2.449  0.3953  1.1318  0.4039
54327SOL    HW271950   3.916  12.364   2.483  0.0113  0.8421  1.0217
54328SOL     OW71951   3.135   1.659  11.164 -0.0477  0.1065 -0.4519
54328SOL    HW171952   3.214   1.672  11.111  0.5614 -1.6914 -0.0876
54328SOL    HW271953   3.164   1.599  11.234 -1.2251  1.1254  0.9563
54329SOL     OW71954   8.775   8.216   7.921 -0.0641  0.0972  0.4873
54329SOL    HW171955   8.702   8.240   7.863  1.4877 -2.9929 -3.2309
54329SOL    HW271956   8.840   8.284   7.906  0.3309 -0.6631 -1.6706
54330SOL     OW71957   7.356   4.309  11.250 -0.4051 -0.2105  0.3044
54330SOL    HW171958   7.401   4.280  11.329 -0.8273  1.6884  1.3001
54330SOL    HW271959   7.267   4.274  11.260  0.0326 -1.5705 -0.2939
54331SOL     OW71960  10.853   0.425   8.064  0.3777 -0.0481  0.2550
54331SOL    HW171961  10.829   0.332   8.063  0.7635 -0.1921  1.6592
54331SOL    HW271962  10.917   0.433   8.135  1.8339  0.9610 -1.1027
54332SOL     OW71963   4.797   3.910  12.120  0.1186  0.6440 -0.1637
54332SOL    HW171964   4.826   3.922  12.211 -0.5918 -0.1833  0.1920
54332SOL    HW271965   4.860   3.850  12.082 -0.4697 -0.2636  0.2698
54333SOL     OW71966   9.888  10.060   9.283 -0.1747  0.3423 -0.0011
54333SOL    HW171967   9.872  10.069   9.189  0.8341  0.7101 -0.1516
54333SOL    HW271968   9.803  10.038   9.320 -0.6092  0.3222 -0.9861
54334SOL     OW71969   2.716   9.239   0.846  0.0343  0.0851 -0.7629
54334SOL    HW171970   2.640   9.219   0.899 -0.1481  0.5418 -0.8411
54334SOL    HW271971   2.790   9.199   0.892  0.1121  1.7718  0.6894
54335SOL     OW71972   2.190   9.833   5.597 -0.4685  0.9424 -0.1729
54335SOL    HW171973   2.139   9.912   5.613 -1.5180  0.5252 -1.2893
54335SOL    HW271974   2.168   9.775   5.671 -1.4871  0.8418 -0.5406
54336SOL     OW71975  12.567   5.725   7.197  0.3187 -0.0237 -0.3885
54336SOL    HW171976  12.565   5.820   7.188 -2.1000  0.1195  0.8642
54336SOL    HW271977  12.563   5.692   7.107 -2.4999  1.1481 -0.8079
54337SOL     OW71978  11.828   4.163   7.373  0.3233  0.1345 -0.4439
54337SOL    HW171979  11.789   4.076   7.361 -1.1089  0.3896  1.7584
54337SOL    HW271980  11.772   4.221   7.322 -0.6894  0.1553  0.6580
54338SOL     OW71981   9.489  11.434   9.843 -0.0279 -0.1218 -0.5351
54338SOL    HW171982   9.536  11.370   9.791  1.1769  0.1131  0.2284
54338SOL    HW271983   9.399  11.401   9.847  0.8049 -2.4033  0.8148
54339SOL     OW71984   7.008  12.180  10.892  0.3835 -0.3331  0.3552
54339SOL    HW171985   6.989  12.262  10.846 -0.2360 -0.1496  0.9081
54339SOL    HW271986   7.004  12.204  10.985 -0.2874 -1.0846  0.5324
54340SOL     OW71987   6.459   4.640   2.473 -0.2319 -0.2774  0.1165
54340SOL    HW171988   6.545   4.663   2.510  1.7208 -1.4344 -3.2494
54340SOL    HW271989   6.471   4.552   2.438 -2.9661 -0.6052 -0.1987
54341SOL     OW71990   0.942  11.235   2.975  0.2534 -0.1459  0.0301
54341SOL    HW171991   0.923  11.147   2.942 -0.3126  0.0405 -0.1547
54341SOL    HW271992   0.865  11.259   3.027 -0.9811  1.4021 -2.3111
54342SOL     OW71993   5.355   6.817   8.850  0.1108  0.5586  0.4011
54342SOL    HW171994   5.394   6.770   8.924 -0.1370 -1.4696 -0.7021
54342SOL    HW271995   5.262   6.826   8.874 -0.3065 -1.5003 -0.2927
54343SOL     OW71996   6.436   6.888   3.144  0.6521  0.0326 -0.4395
54343SOL    HW171997   6.518   6.910   3.188 -0.2596 -0.9134  1.8774
54343SOL    HW271998   6.450   6.800   3.110  1.4263  0.8387 -2.3485
54344SOL     OW71999   0.326   6.478   7.970  0.5984  0.0099 -0.2731
54344SOL    HW172000   0.358   6.399   8.014  0.1127  0.5076  1.0215
54344SOL    HW272001   0.231   6.474   7.982  0.5595  0.6889 -0.3544
54345SOL     OW72002  10.427   8.013   0.657  0.0057  0.0296  0.0899
54345SOL    HW172003  10.489   7.946   0.686  0.5948 -0.7254 -2.5949
54345SOL    HW272004  10.476   8.063   0.591 -1.6812  0.5530 -0.8045
54346SOL     OW72005   0.499   1.913  11.772 -0.3302 -0.3091  0.5960
54346SOL    HW172006   0.481   1.819  11.763 -0.2931 -0.2932  0.3549
54346SOL    HW272007   0.438   1.955  11.711  0.2132 -0.2285  0.1061
54347SOL     OW72008   8.045   3.098   5.408 -0.3248  0.1346  0.3247
54347SOL    HW172009   8.089   3.037   5.348 -0.3015  0.5762 -0.1137
54347SOL    HW272010   7.984   3.043   5.457 -1.7933  0.0674 -1.4775
54348SOL     OW72011  11.575   6.572  11.839 -0.0580 -0.1513 -0.4014
54348SOL    HW172012  11.647   6.627  11.868 -0.7572  0.6884 -0.2127
54348SOL    HW272013  11.556   6.602  11.750 -0.9329  0.4601 -0.0310
54349SOL     OW72014   4.137   4.635  11.213 -0.7684  0.1425 -0.9644
54349SOL    HW172015   4.190   4.633  11.133  1.0865  0.9837  0.1695
54349SOL    HW272016   4.079   4.711  11.202  0.7858  1.4190 -0.7899
54350SOL     OW72017   3.177   2.580   2.984 -0.1618  0.1642  0.3418
54350SOL    HW172018   3.102   2.536   3.026 -0.8956  0.4720 -0.6052
54350SOL    HW272019   3.190   2.532   2.903  1.0093 -0.1940  0.7297
54351SOL     OW72020   8.924   3.582   7.520 -0.0330 -0.2795  0.1038
54351SOL    HW172021   8.921   3.491   7.549  0.6955 -0.6269 -0.8526
54351SOL    HW272022   9.005   3.617   7.557  0.3900 -0.4363 -0.6447
54352SOL     OW72023  12.110  11.023   9.272 -0.0298 -0.7944 -0.3454
54352SOL    HW172024  12.112  10.989   9.362  0.5635 -1.5308 -0.6323
54352SOL    HW272025  12.136  11.114   9.281 -2.2577 -0.1719  0.5243
54353SOL     OW72026   1.561   3.601  10.521  1.1364  0.3275 -0.4226
54353SOL    HW172027   1.479   3.614  10.567  1.6813  0.7988  0.4533
54353SOL    HW272028   1.547   3.638  10.434  0.1534 -0.3986 -0.5883
54354SOL     OW72029   0.740   5.025  10.081 -0.3615 -0.5119 -0.0569
54354SOL    HW172030   0.779   5.012   9.995  2.7702  1.7354  0.8568
54354SOL    HW272031   0.794   4.972  10.140 -0.7133  0.1306  0.8611
54355SOL     OW72032  10.908   1.959  11.824  0.4657 -0.2361  0.2490
54355SOL    HW172033  10.852   1.973  11.900 -1.0539  0.2159 -0.9081
54355SOL    HW272034  10.905   1.865  11.807 -0.6005 -0.1241 -0.2606
54356SOL     OW72035   2.148  11.334   8.577  0.4645 -0.2255 -0.0218
54356SOL    HW172036   2.085  11.406   8.584  2.1903  1.2418  2.1803
54356SOL    HW272037   2.220  11.371   8.526  0.2306 -1.3988 -1.2717
54357SOL     OW72038   6.993   8.649   0.824 -0.1877  0.6074 -0.3033
54357SOL    HW172039   7.089   8.653   0.827 -0.1522 -0.4534  1.7311
54357SOL    HW272040   6.974   8.576   0.764  0.4462 -1.4045  1.7798
54358SOL     OW72041   8.387   8.091  11.486  0.4276 -0.1009  0.2919
54358SOL    HW172042   8.433   8.048  11.558 -0.1390  0.5031  1.0360
54358SOL    HW272043   8.431   8.176  11.477 -0.4916  0.4613  0.9782
54359SOL     OW72044   2.171   5.395   2.296  0.2433  0.5769 -0.4527
54359SOL    HW172045   2.231   5.466   2.318  0.9039  0.2076 -1.0213
54359SOL    HW272046   2.094   5.438   2.261  0.2215  1.0522  0.1599
54360SOL     OW72047   7.599   5.192   7.812 -0.6659  0.4934  1.0934
54360SOL    HW172048   7.693   5.177   7.821 -0.8710 -3.0894 -0.9204
54360SOL    HW272049   7.562   5.162   7.895 -0.1466  0.1973  1.2189
54361SOL     OW72050  10.566   8.845   0.280  0.3182  0.1765 -0.2601
54361SOL    HW172051  10.482   8.846   0.233  0.5021  0.0301 -0.5900
54361SOL    HW272052  10.590   8.937   0.287  0.1386  0.2186 -0.1795
54362SOL     OW72053   3.482   8.664   2.961  0.0723  0.6337 -0.3185
54362SOL    HW172054   3.456   8.573   2.974 -1.8043  1.2643  0.7630
54362SOL    HW272055   3.401   8.708   2.933  1.5289  1.4975 -3.6114
54363SOL     OW72056   9.354   7.379   3.562  0.5040  0.4806 -0.1337
54363SOL    HW172057   9.312   7.314   3.507 -1.5922  0.6764  1.1371
54363SOL    HW272058   9.339   7.348   3.652 -0.2559  2.4884  0.4937
54364SOL     OW72059   6.872   5.219   2.688  1.0352  0.0073 -0.0838
54364SOL    HW172060   6.799   5.161   2.710  1.0967 -1.2012 -2.7287
54364SOL    HW272061   6.917   5.233   2.772 -2.9381  2.0339  2.0035
54365SOL     OW72062   9.151   1.659   0.186 -0.3428 -0.1229 -0.1857
54365SOL    HW172063   9.174   1.752   0.190  0.2692 -0.2676 -0.1419
54365SOL    HW272064   9.215   1.622   0.125 -1.2799 -0.3193 -1.0739
54366SOL     OW72065   8.352   6.410  11.026  0.2949  0.1602  0.1312
54366SOL    HW172066   8.383   6.500  11.038 -2.7121  1.5028 -1.0576
54366SOL    HW272067   8.301   6.391  11.105  0.1987 -0.1513 -0.0041
54367SOL     OW72068   1.606   0.288  10.699 -0.8552 -0.1772 -0.4057
54367SOL    HW172069   1.527   0.328  10.662  0.4971  2.1845 -0.8927
54367SOL    HW272070   1.585   0.275  10.791 -0.5603  4.2314  0.4937
54368SOL     OW72071   9.198   0.016   7.482  0.1355 -0.2066 -0.0618
54368SOL    HW172072   9.106  -0.009   7.493  0.5417 -2.2768 -0.9733
54368SOL    HW272073   9.204   0.048   7.391  0.3818 -0.4223 -0.1236
54369SOL     OW72074   0.660   1.374   0.887  0.0212 -0.5460  0.0128
54369SOL    HW172075   0.589   1.320   0.922 -1.4177 -0.4640 -2.5013
54369SOL    HW272076   0.646   1.461   0.926 -0.2929 -0.9177  0.7398
54370SOL     OW72077   8.915   8.980   1.073 -0.7157 -0.3054  0.3258
54370SOL    HW172078   8.915   8.915   1.003  1.6217 -0.3046  0.2454
54370SOL    HW272079   9.007   9.007   1.081 -1.4416  2.2336  1.0719
54371SOL     OW72080   1.186   4.452   7.032  0.4395  0.0498 -0.0523
54371SOL    HW172081   1.150   4.373   6.992  0.8107 -0.0944 -0.1067
54371SOL    HW272082   1.192   4.431   7.125  1.8735 -0.5239 -0.2444
54372SOL     OW72083   1.248   0.176   5.249 -0.4228 -0.1675  0.6731
54372SOL    HW172084   1.224   0.268   5.255  0.1022 -0.1009  1.8925
54372SOL    HW272085   1.257   0.147   5.339  0.2591 -1.2018  0.2907
54373SOL     OW72086   8.853   6.369   8.586 -0.2016  0.6260 -0.4982
54373SOL    HW172087   8.781   6.334   8.638  0.6177  1.2256  1.0868
54373SOL    HW272088   8.930   6.359   8.641  0.6190  1.7452 -1.3867
54374SOL     OW72089   2.042   2.643   4.184  0.4139  0.0497 -0.3975
54374SOL    HW172090   1.981   2.578   4.220  1.4851 -0.4916  0.4941
54374SOL    HW272091   2.003   2.668   4.100 -1.1214 -0.1486  0.2207
54375SOL     OW72092   6.263  12.122   0.309 -0.4618 -0.3814  0.2903
54375SOL    HW172093   6.334  12.155   0.255 -0.7799  0.9434  0.6591
54375SOL    HW272094   6.235  12.197   0.362 -0.9225 -1.3450  1.4669
54376SOL     OW72095  10.590   3.622   0.312  0.2204 -0.4872 -0.2980
54376SOL    HW172096  10.622   3.560   0.246  1.1248  0.9757 -1.3047
54376SOL    HW272097  10.515   3.665   0.270  0.5164  0.1303 -0.2129
54377SOL     OW72098   7.684   0.053  10.936  0.0376 -0.3259 -0.2794
54377SOL    HW172099   7.629  -0.005  10.988 -0.1199  0.2767  0.2354
54377SOL    HW272100   7.766   0.059  10.986  0.2211 -0.4680 -0.5625
54378SOL     OW72101   0.287   5.910   7.699  0.0362 -0.3433 -0.0512
54378SOL    HW172102   0.229   5.836   7.683 -0.2698 -0.1077 -0.0233
54378SOL    HW272103   0.232   5.976   7.741  0.7104 -0.7896  1.6439
54379SOL     OW72104   0.230  10.841   4.027 -0.0480  0.3356 -0.2866
54379SOL    HW172105   0.148  10.838   3.977  1.2112  1.3584 -2.5880
54379SOL    HW272106   0.203  10.828   4.118 -2.7671  0.7756 -0.9291
54380SOL     OW72107   3.593  10.400   7.171 -0.0163  0.1155  0.6090
54380SOL    HW172108   3.626  10.354   7.094 -0.5591 -0.4607  0.7144
54380SOL    HW272109   3.670  10.410   7.228  0.7484  1.9623 -0.6616
54381SOL     OW72110   7.926   2.702  12.414 -0.2035  0.0680 -0.1009
54381SOL    HW172111   7.992   2.678  12.349  0.7667 -3.0472  1.8266
54381SOL    HW272112   7.843   2.678  12.373  0.2887 -0.7196 -0.6703
54382SOL     OW72113   4.152   2.604   1.261  0.4076 -0.6462  0.3618
54382SOL    HW172114   4.220   2.648   1.211  1.7798 -1.5983  1.3211
54382SOL    HW272115   4.122   2.669   1.324 -1.1148  0.4610 -1.3682
54383SOL     OW72116   4.866   1.781   7.123  0.3888  0.4905  0.3499
54383SOL    HW172117   4.805   1.709   7.135 -1.3669  1.6235 -1.1185
54383SOL    HW272118   4.952   1.740   7.118 -0.1445 -1.1406  2.8617
54384SOL     OW72119   4.757   1.933   7.336  0.5672 -0.1881 -0.0466
54384SOL    HW172120   4.798   1.901   7.256  0.3706  0.3435 -0.3690
54384SOL    HW272121   4.663   1.918   7.322  0.6320 -1.3998  0.6863
54385SOL     OW72122   7.621   3.653   5.633 -0.2844 -0.4316 -0.0333
54385SOL    HW172123   7.650   3.687   5.717 -1.4423 -1.0884  0.6578
54385SOL    HW272124   7.690   3.590   5.608 -0.6615 -1.3883  1.1932
54386SOL     OW72125  11.731  12.427   7.768 -0.7300 -0.1396  0.1952
54386SOL    HW172126  11.758  12.460   7.682  0.5818 -1.1912  0.1718
54386SOL    HW272127  11.813  12.415   7.816 -1.1228 -2.9590  0.3189
54387SOL     OW72128  11.137   5.299   7.924 -0.2624  0.6222 -0.4933
54387SOL    HW172129  11.216   5.251   7.897 -0.8109  0.6963 -2.3019
54387SOL    HW272130  11.067   5.264   7.869 -1.5028  0.6737  0.9763
54388SOL     OW72131   3.517  11.566  11.954  0.0871  0.7299 -0.3187
54388SOL    HW172132   3.442  11.547  11.897 -0.1189  1.9661 -0.4985
54388SOL    HW272133   3.554  11.646  11.918  2.1523 -0.3937 -0.8656
54389SOL     OW72134  10.672   5.695   7.438  0.3074 -0.3940 -0.4019
54389SOL    HW172135  10.747   5.750   7.462 -0.9979  0.9519  0.8658
54389SOL    HW272136  10.626   5.681   7.521 -1.3955 -0.3053 -1.2831
54390SOL     OW72137  11.956   2.797   1.015 -0.2069 -0.1337  0.6989
54390SOL    HW172138  11.977   2.889   1.030  0.3977 -0.2668  0.6879
54390SOL    HW272139  11.887   2.799   0.949  0.0411  0.2972  0.4491
54391SOL     OW72140  11.014  12.566  10.971  0.4949 -0.0705  0.2193
54391SOL    HW172141  11.026  12.519  10.889  1.2925 -0.1800  0.3946
54391SOL    HW272142  10.998  12.498  11.036 -1.0759  0.0595  0.0158
54392SOL     OW72143   7.411   9.158  11.392 -0.0211 -0.1566  0.4759
54392SOL    HW172144   7.466   9.147  11.315  0.2731 -2.1079  0.9102
54392SOL    HW272145   7.424   9.249  11.418  1.9792 -0.2010 -0.2041
54393SOL     OW72146   6.073   1.698   5.295  0.3629  0.2789  0.0461
54393SOL    HW172147   5.978   1.709   5.290  0.3298 -0.4947 -1.8279
54393SOL    HW272148   6.099   1.673   5.206  2.3189  0.4023  0.5357
54394SOL     OW72149   0.032  11.868   2.817 -0.6005  0.0108 -0.1250
54394SOL    HW172150   0.023  11.879   2.912 -2.4517  1.4271 -0.4240
54394SOL    HW272151  -0.057  11.871   2.783  0.1068  0.7550 -2.0528
54395SOL     OW72152   9.694   6.658  11.943  0.3091 -0.5514  0.5822
54395SOL    HW172153   9.747   6.736  11.927  0.1378 -0.6052 -0.2855
54395SOL    HW272154   9.748   6.586  11.912 -0.3271 -0.5916 -0.4522
54396SOL     OW72155  10.981   5.512   8.780  0.3504  0.1306  0.3398
54396SOL    HW172156  11.060   5.549   8.741  0.0309 -0.2225 -0.6689
54396SOL    HW272157  11.013   5.446   8.841  0.8236 -0.1292 -0.1892
54397SOL     OW72158   5.985  10.103   3.375 -0.2092  0.7405 -0.1468
54397SOL    HW172159   5.938  10.072   3.452  0.0102 -0.6991 -0.5728
54397SOL    HW272160   5.918  10.145   3.321 -0.7264  0.0779 -0.0340
54398SOL     OW72161   8.086   3.598   9.747 -0.1628  0.3762 -0.2605
54398SOL    HW172162   8.029   3.674   9.755 -0.3760  0.2524 -0.5687
54398SOL    HW272163   8.160   3.628   9.694  0.5625  0.8132  0.9705
54399SOL     OW72164   1.153  12.349   5.054 -0.6128 -0.3454 -0.5279
54399SOL    HW172165   1.142  12.443   5.066 -2.2507 -0.8480  3.9601
54399SOL    HW272166   1.227  12.325   5.110 -0.8878 -1.8263 -0.7455
54400SOL     OW72167   8.976  11.315   6.037 -0.3780 -0.3402 -0.1513
54400SOL    HW172168   8.910  11.381   6.060 -0.1945 -0.3702  0.4782
54400SOL    HW272169   9.031  11.308   6.115 -1.7659 -2.9008  0.7113
54401SOL     OW72170   9.871   0.397  11.531 -0.1630  0.3081  0.0699
54401SOL    HW172171   9.959   0.385  11.567 -0.4347 -0.9724  0.3881
54401SOL    HW272172   9.884   0.450  11.453  0.6218  1.9487  1.2665
54402SOL     OW72173   0.526   7.964   4.842 -0.1704 -0.3000  0.2102
54402SOL    HW172174   0.514   7.990   4.751 -1.9572 -0.7819  0.2728
54402SOL    HW272175   0.599   8.017   4.873 -0.0624  0.4515 -1.2685
54403SOL     OW72176   2.652   7.900  11.806 -0.3073 -0.0762 -0.6275
54403SOL    HW172177   2.745   7.883  11.820 -0.9381 -1.9004  2.2880
54403SOL    HW272178   2.639   7.990  11.834  0.6060  0.3591 -1.5198
54404SOL     OW72179  12.422   8.290   3.688  0.4390 -0.2554  0.4695
54404SOL    HW172180  12.434   8.263   3.596  1.8813 -2.7324  1.2889
54404SOL    HW272181  12.435   8.385   3.687 -0.8729 -0.0209 -2.0572
54405SOL     OW72182   5.217   4.186   9.177  0.0993  0.8956  0.3184
54405SOL    HW172183   5.275   4.253   9.139 -0.1132  0.8781 -0.0333
54405SOL    HW272184   5.136   4.193   9.127  0.4853 -0.4479 -0.5295
54406SOL     OW72185   9.334   1.832   1.692 -0.1006  0.1724 -0.3829
54406SOL    HW172186   9.281   1.757   1.664  0.1183  0.8809 -2.9075
54406SOL    HW272187   9.290   1.908   1.654  0.4470  1.2152  0.9927
54407SOL     OW72188   5.564  10.024   4.608  0.4042 -0.3522 -0.3010
54407SOL    HW172189   5.473  10.047   4.594 -0.1556 -2.1323  0.1308
54407SOL    HW272190   5.571   9.934   4.575  1.3923 -1.1208  1.8227
54408SOL     OW72191   8.014   7.833  11.913  0.3519 -0.1541 -0.3494
54408SOL    HW172192   7.949   7.900  11.937  0.7495  0.0445  0.1978
54408SOL    HW272193   8.094   7.861  11.957  0.3787 -1.3036  0.3742
54409SOL     OW72194   3.828   0.285   3.020 -0.2953  0.2809 -0.3176
54409SOL    HW172195   3.777   0.264   3.098  0.5664  0.3567  0.2961
54409SOL    HW272196   3.790   0.367   2.988  0.8025  1.5660  1.4325
54410SOL     OW72197  10.603   9.883  12.446  0.2105 -0.2069  0.0765
54410SOL    HW172198  10.584   9.791  12.429  1.1058 -0.2523 -0.7295
54410SOL    HW272199  10.517   9.924  12.459 -0.2471 -0.9650 -0.5262
54411SOL     OW72200  10.068   8.358   8.385 -0.7673 -0.4751  0.2612
54411SOL    HW172201   9.975   8.345   8.404 -0.5033 -3.9542 -0.1876
54411SOL    HW272202  10.111   8.359   8.471 -1.1799  1.4263  0.4842
54412SOL     OW72203   3.544   1.929   1.998  0.0595  0.1988  0.0055
54412SOL    HW172204   3.462   1.927   2.048  0.3345  1.4789  0.5612
54412SOL    HW272205   3.604   1.980   2.053  0.6816  0.8019 -1.1775
54413SOL     OW72206   3.061   5.555   3.417 -0.4382  0.3127 -0.1791
54413SOL    HW172207   3.033   5.637   3.377  0.7183  0.8244  0.0238
54413SOL    HW272208   3.038   5.564   3.509 -1.8976 -0.3283 -0.4476
54414SOL     OW72209   5.689  11.007   6.949  0.1340  0.2165 -0.2091
54414SOL    HW172210   5.633  10.944   6.994 -0.4202  0.8152 -0.0417
54414SOL    HW272211   5.667  11.091   6.990 -0.4055  0.7798 -1.6015
54415SOL     OW72212   9.396   1.248  11.584 -0.3533  0.3626  0.1454
54415SOL    HW172213   9.323   1.266  11.524 -0.9831  0.3698  0.8947
54415SOL    HW272214   9.465   1.213  11.528 -0.5564  1.3131 -0.7335
54416SOL     OW72215   3.437   9.397  12.040  0.2669  0.4388 -0.2515
54416SOL    HW172216   3.343   9.385  12.051  0.2900 -0.4855 -0.9425
54416SOL    HW272217   3.465   9.323  11.987  1.1304  1.5072 -1.3673
54417SOL     OW72218   1.728   9.022   0.582  0.2409  0.3779 -0.0112
54417SOL    HW172219   1.686   8.936   0.588 -0.1837  0.5957  0.1389
54417SOL    HW272220   1.811   9.005   0.538  0.8269 -0.3375  1.3389
54418SOL     OW72221   3.807   8.009  11.215 -0.2890 -0.3288 -0.1575
54418SOL    HW172222   3.743   8.009  11.286  0.6627  0.3699  0.7369
54418SOL    HW272223   3.759   8.041  11.139 -0.9758  0.2990  0.5243
54419SOL     OW72224   2.717   5.487   3.765  0.0501 -0.4558  0.2747
54419SOL    HW172225   2.709   5.568   3.815 -0.6096 -0.6884  0.5511
54419SOL    HW272226   2.662   5.501   3.688  0.8167 -0.2194 -0.2428
54420SOL     OW72227   4.891   0.071   9.556 -0.3504 -0.4829 -1.0306
54420SOL    HW172228   4.941   0.096   9.478 -1.5270 -2.0420 -2.3622
54420SOL    HW272229   4.924  -0.016   9.577  0.2814  0.1124  0.5452
54421SOL     OW72230   4.894   1.449   1.101 -0.7394 -0.6752 -0.5909
54421SOL    HW172231   4.942   1.472   1.022 -0.2244  0.5368  0.0367
54421SOL    HW272232   4.871   1.534   1.140 -0.1699 -1.2270  1.0265
54422SOL     OW72233   7.392  10.877   5.919  0.2430  0.4223  0.4498
54422SOL    HW172234   7.377  10.949   5.980  0.2505  1.2229 -0.4736
54422SOL    HW272235   7.329  10.892   5.849 -0.3304 -0.9576  0.6442
54423SOL     OW72236   8.216   6.409  10.163 -0.2167 -0.7682 -0.4961
54423SOL    HW172237   8.305   6.390  10.192 -0.6567 -0.1531  1.4373
54423SOL    HW272238   8.219   6.499  10.133 -0.1072 -0.8887 -0.8552
54424SOL     OW72239   3.885   6.264   8.825  0.4270 -0.4845  0.2881
54424SOL    HW172240   3.905   6.171   8.839 -1.9086 -1.0167  0.5162
54424SOL    HW272241   3.805   6.263   8.772  0.6358  1.4172 -0.1137
54425SOL     OW72242  10.657   1.222  10.285  0.1845  0.4738 -0.1667
54425SOL    HW172243  10.659   1.217  10.189 -1.2635  1.0454 -0.2471
54425SOL    HW272244  10.656   1.315  10.304  1.6256  0.3869  0.4727
54426SOL     OW72245   7.841   7.587   4.066  0.0811 -0.2186  0.1527
54426SOL    HW172246   7.867   7.679   4.061  0.5791 -0.4191 -1.9202
54426SOL    HW272247   7.897   7.542   4.002 -2.0168 -1.4791 -0.9238
54427SOL     OW72248   6.834   3.832  12.321  0.1771 -0.0111 -0.4155
54427SOL    HW172249   6.817   3.775  12.246 -0.0817 -0.5405  0.0380
54427SOL    HW272250   6.783   3.911  12.303 -1.2662 -0.8048 -0.0109
54428SOL     OW72251   6.022   3.444   3.080 -0.4397  0.0660  0.1264
54428SOL    HW172252   6.007   3.435   3.174 -1.9729 -1.1274 -0.1884
54428SOL    HW272253   6.007   3.537   3.061 -2.2881 -0.0645  0.7497
54429SOL     OW72254   9.479   4.227   7.194 -0.2750 -0.1290  0.5813
54429SOL    HW172255   9.400   4.201   7.241  0.4216 -2.7745  0.4647
54429SOL    HW272256   9.545   4.239   7.263  0.1026 -1.5258  0.4962
54430SOL     OW72257   0.456   5.119   8.102  0.1750  0.7636 -0.2986
54430SOL    HW172258   0.543   5.131   8.140  1.0663 -0.5746 -1.7755
54430SOL    HW272259   0.441   5.025   8.104 -0.6442  0.8546 -1.3098
54431SOL     OW72260   5.064   2.400   2.280  0.7181  0.0328 -1.0279
54431SOL    HW172261   5.019   2.344   2.216  1.3546  1.0850 -2.4530
54431SOL    HW272262   4.993   2.439   2.331  0.2445 -1.6928 -0.2768
54432SOL     OW72263   9.770   2.247   2.639 -0.0872 -0.9240 -0.6014
54432SOL    HW172264   9.835   2.178   2.629  0.4487 -0.4318 -0.5308
54432SOL    HW272265   9.686   2.201   2.632  0.2480 -1.3492 -2.1705
54433SOL     OW72266  12.046   6.218   8.786 -0.0981  0.1949 -0.1007
54433SOL    HW172267  12.038   6.313   8.778  2.9161  0.5760  0.0603
54433SOL    HW272268  12.112   6.206   8.855  1.3125 -1.9202 -1.7109
54434SOL     OW72269   2.776   8.899   8.895  0.1978 -0.1721 -0.8621
54434SOL    HW172270   2.784   8.897   8.991  0.8176 -1.5444 -0.9232
54434SOL    HW272271   2.799   8.989   8.871 -1.4801  0.6582  0.3801
54435SOL     OW72272   9.983   9.219   9.824  0.1886  0.7325 -0.3828
54435SOL    HW172273  10.073   9.208   9.855  0.9039 -0.4305 -2.6453
54435SOL    HW272274   9.935   9.146   9.864 -0.0759  1.9769  1.7100
54436SOL     OW72275   4.040   3.308  10.374 -0.3297  0.7035 -0.3515
54436SOL    HW172276   4.081   3.388  10.408  2.0706  0.6008 -2.6392
54436SOL    HW272277   4.114   3.251  10.353 -1.9544 -1.9214  0.5856
54437SOL     OW72278   8.090   5.393   4.901  0.3577 -0.3496 -0.2351
54437SOL    HW172279   8.181   5.367   4.914  0.7081  0.5918 -0.7094
54437SOL    HW272280   8.041   5.337   4.961  1.2273 -0.9786 -0.0798
54438SOL     OW72281  11.674   5.385   7.408  0.1064 -0.2906 -0.1710
54438SOL    HW172282  11.767   5.379   7.430  0.0259  0.1736  0.3304
54438SOL    HW272283  11.661   5.322   7.338  0.9815  0.2522 -0.8319
54439SOL     OW72284   2.726  11.656   0.516  0.0853  0.1227 -0.1210
54439SOL    HW172285   2.812  11.696   0.504  0.9401 -1.4967  0.3342
54439SOL    HW272286   2.730  11.619   0.605  0.1734 -2.7927 -1.2295
54440SOL     OW72287   3.618  10.845   5.360  0.2959 -1.1527  0.0234
54440SOL    HW172288   3.707  10.817   5.343  1.6991  3.7855 -2.5163
54440SOL    HW272289   3.566  10.809   5.288  0.4973 -2.6273  0.5822
54441SOL     OW72290   9.441  11.544   6.754  0.4182 -0.1014  0.0640
54441SOL    HW172291   9.361  11.515   6.711  0.8578  1.1200 -1.6723
54441SOL    HW272292   9.460  11.475   6.818 -1.0196 -1.3104 -0.7552
54442SOL     OW72293   0.283   5.795  10.319 -0.0433  0.6755  0.2601
54442SOL    HW172294   0.369   5.830  10.342  0.3793  0.7706 -1.3628
54442SOL    HW272295   0.264   5.832  10.233 -1.3378 -0.0247  0.2194
54443SOL     OW72296   6.188   2.758   1.069  0.2149 -0.0876 -0.4275
54443SOL    HW172297   6.211   2.680   1.120 -0.8980  0.2681  0.6628
54443SOL    HW272298   6.094   2.769   1.083 -0.6193 -1.0611 -4.1003
54444SOL     OW72299   4.999  11.116   3.707  0.2643  0.3907  0.1415
54444SOL    HW172300   5.042  11.034   3.732 -1.6369 -0.4758  0.7702
54444SOL    HW272301   4.937  11.133   3.779 -0.4325  1.5685 -0.7056
54445SOL     OW72302  10.948   7.632   5.791  0.3791  0.4421  0.8072
54445SOL    HW172303  11.025   7.575   5.784  0.0443  0.1351 -0.7681
54445SOL    HW272304  10.984   7.718   5.812  1.2532  0.4828 -0.7094
54446SOL     OW72305   8.496   2.993   0.566 -0.2704  0.4229 -0.1365
54446SOL    HW172306   8.525   2.902   0.567  0.2882  0.5962  1.0176
54446SOL    HW272307   8.403   2.988   0.546 -0.3254 -0.4336  0.2772
54447SOL     OW72308   4.355   4.111   8.646  0.3340 -0.8042 -0.1316
54447SOL    HW172309   4.412   4.187   8.662  0.0696  0.0477 -2.6886
54447SOL    HW272310   4.391   4.072   8.565 -1.5172 -1.4109 -0.6981
54448SOL     OW72311  11.533   8.178   3.850 -0.3914 -0.4670  0.5674
54448SOL    HW172312  11.452   8.174   3.798 -0.6178  2.0037  0.5826
54448SOL    HW272313  11.592   8.233   3.797  0.2784  0.0055  1.7667
54449SOL     OW72314   5.149   7.359   6.826  0.0830 -0.3268  0.4995
54449SOL    HW172315   5.120   7.395   6.741  0.6062 -0.0228  0.4480
54449SOL    HW272316   5.088   7.398   6.889  1.4766  1.8082  0.6209
54450SOL     OW72317   0.564   7.320   7.688 -0.3101  0.1211 -0.1846
54450SOL    HW172318   0.535   7.317   7.597  0.1301  0.8847 -0.3608
54450SOL    HW272319   0.631   7.388   7.689  1.3288 -1.4468  0.2652
54451SOL     OW72320   8.211   0.177  10.807  0.1501 -0.2389  0.2309
54451SOL    HW172321   8.279   0.226  10.851 -0.7334  0.9018  0.3688
54451SOL    HW272322   8.226   0.086  10.833  1.1583  0.0916  0.8393
54452SOL     OW72323   2.460  11.225   9.586  0.1206  0.0226 -0.1112
54452SOL    HW172324   2.370  11.226   9.620  0.2906 -0.9062  0.3829
54452SOL    HW272325   2.467  11.307   9.537 -1.0489  0.0441 -0.2904
54453SOL     OW72326   0.980  11.219   8.946 -0.4485 -0.3509  0.0646
54453SOL    HW172327   1.064  11.174   8.946 -0.1975  0.0914  0.7635
54453SOL    HW272328   0.916  11.150   8.964 -0.0567 -0.4356  1.2204
54454SOL     OW72329  10.657   3.407   6.004  0.3555  0.5387 -0.2003
54454SOL    HW172330  10.712   3.410   6.082 -0.1713 -2.2857  0.3882
54454SOL    HW272331  10.717   3.382   5.933  0.6157  1.9891 -0.5325
54455SOL     OW72332  10.331  10.112   5.787 -0.0694 -0.0234 -0.2404
54455SOL    HW172333  10.379  10.180   5.739  1.2068 -0.8057 -0.1207
54455SOL    HW272334  10.306  10.048   5.720 -0.0556 -0.1173 -0.1568
54456SOL     OW72335   0.421   6.135   2.383 -0.3215 -0.1344 -0.0089
54456SOL    HW172336   0.381   6.182   2.456 -1.2723 -1.0254  0.0730
54456SOL    HW272337   0.507   6.175   2.373 -0.6029  0.7462  0.8746
54457SOL     OW72338   2.687   4.060   5.478  0.3627  0.1725 -0.3382
54457SOL    HW172339   2.665   4.125   5.412 -0.6765  2.1291  1.7802
54457SOL    HW272340   2.624   4.076   5.549  1.7472 -1.4360  1.3669
54458SOL     OW72341   0.163   6.098   7.857  0.5112  0.7626  0.3622
54458SOL    HW172342   0.168   6.070   7.948  0.1386 -0.5611  0.0057
54458SOL    HW272343   0.086   6.154   7.853 -0.2569 -0.2616  0.6025
54459SOL     OW72344  10.174   1.679   4.647 -0.3075  0.4340  0.6120
54459SOL    HW172345  10.207   1.746   4.707 -0.6444  0.5445  0.6778
54459SOL    HW272346  10.189   1.596   4.692 -1.5932  0.5875  1.3568
54460SOL     OW72347  12.324  11.435  11.036  0.2643  0.2180  0.2418
54460SOL    HW172348  12.298  11.344  11.046  0.1031  0.3470  1.0064
54460SOL    HW272349  12.287  11.462  10.951 -1.6830  0.2660  1.0693
54461SOL     OW72350   0.335  10.256   4.839  0.4754 -0.0536 -0.0390
54461SOL    HW172351   0.392  10.198   4.789  2.2674  1.7280 -0.2120
54461SOL    HW272352   0.342  10.340   4.793 -0.8800  0.6837  1.0277
54462SOL     OW72353   2.175   1.948  12.223 -0.8975 -0.1126 -0.5296
54462SOL    HW172354   2.167   2.035  12.185 -0.9404 -0.4018 -1.1907
54462SOL    HW272355   2.242   1.904  12.170 -0.1980 -0.1802  0.3750
54463SOL     OW72356   8.380  11.556   4.382 -0.5600  0.7553  0.5658
54463SOL    HW172357   8.379  11.621   4.311  1.5437 -1.5971 -1.8720
54463SOL    HW272358   8.319  11.488   4.353  0.7499 -0.5052  0.6435
54464SOL     OW72359  10.850   2.590   6.283 -0.4836 -0.1564  0.3256
54464SOL    HW172360  10.759   2.605   6.257 -0.1853  0.5010 -0.3638
54464SOL    HW272361  10.881   2.675   6.312  0.3638 -0.0280 -0.8815
54465SOL     OW72362   6.106  10.187   9.758 -0.1221  0.1824 -0.7325
54465SOL    HW172363   6.194  10.168   9.790 -0.3332 -0.7466 -0.6558
54465SOL    HW272364   6.051  10.119   9.799 -0.8273  0.6064 -0.9677
54466SOL     OW72365   8.179   8.800  11.903 -0.3145  0.0013  0.1969
54466SOL    HW172366   8.212   8.810  11.813  0.0716 -1.0248  0.2090
54466SOL    HW272367   8.088   8.771  11.891 -1.1716  2.4334  0.1638
54467SOL     OW72368   6.530  10.818   9.820  0.0331  0.5340  0.4221
54467SOL    HW172369   6.443  10.823   9.782  0.6001  1.4004 -0.8294
54467SOL    HW272370   6.568  10.739   9.782 -0.5933 -0.5382  1.9096
54468SOL     OW72371   7.710   5.149   4.244  0.0430 -0.1460  0.1588
54468SOL    HW172372   7.736   5.201   4.320  0.8389 -0.3707  0.0414
54468SOL    HW272373   7.760   5.185   4.171  0.8948 -1.3229  0.1498
54469SOL     OW72374   9.682  12.447   2.998 -0.2954  0.5028  0.2280
54469SOL    HW172375   9.760  12.493   2.969 -0.7571 -0.6997 -3.3687
54469SOL    HW272376   9.699  12.355   2.976 -2.2521  0.0418  0.4582
54470SOL     OW72377   2.215   9.593  12.076 -0.4261  0.3919 -0.2545
54470SOL    HW172378   2.263   9.536  12.136 -3.6185 -0.4376  1.7995
54470SOL    HW272379   2.234   9.682  12.109 -0.9285  0.0342  1.0747
54471SOL     OW72380   1.457   7.836   4.884  0.0713 -0.5973 -0.7125
54471SOL    HW172381   1.372   7.855   4.845 -1.4116 -1.8184  1.6536
54471SOL    HW272382   1.495   7.922   4.904 -0.8674 -0.0446 -1.2602
54472SOL     OW72383  10.867   4.222   8.192 -0.5371  0.0018  0.3257
54472SOL    HW172384  10.930   4.261   8.252  2.1942  0.6857 -2.6787
54472SOL    HW272385  10.807   4.293   8.170 -1.2003 -0.0990  1.6942
54473SOL     OW72386   6.379   2.210   3.346  0.4422  0.1006  0.4084
54473SOL    HW172387   6.435   2.237   3.419  0.9101 -0.7623  0.3810
54473SOL    HW272388   6.305   2.270   3.349  1.8103  1.9307 -0.1343
54474SOL     OW72389   9.605   4.886   8.416 -0.0250  0.0997  0.7662
54474SOL    HW172390   9.554   4.964   8.435  0.3495  0.1202  1.7410
54474SOL    HW272391   9.572   4.855   8.332 -0.6135  0.9430  0.6820
54475SOL     OW72392  10.764   4.125   2.176 -0.4955  0.5417  0.1635
54475SOL    HW172393  10.783   4.031   2.178 -0.3460  0.4852 -1.8719
54475SOL    HW272394  10.778   4.154   2.266  0.1100 -1.2568  0.6941
54476SOL     OW72395   0.714   8.136   1.571 -0.1017 -0.1391 -0.6670
54476SOL    HW172396   0.684   8.058   1.619  1.0332 -3.0908 -4.2554
54476SOL    HW272397   0.635   8.174   1.535 -0.6441  0.2955  0.8901
54477SOL     OW72398   5.881  11.403   1.162 -0.3785  0.1257  0.0069
54477SOL    HW172399   5.960  11.431   1.209  1.1204 -1.7733 -1.2082
54477SOL    HW272400   5.870  11.467   1.092 -0.4969  0.9411  0.7587
54478SOL     OW72401   6.013  10.875   3.434 -0.2305  0.5200 -0.0882
54478SOL    HW172402   6.090  10.819   3.438 -0.3884  0.2525 -0.7115
54478SOL    HW272403   5.939  10.814   3.429 -0.5875  0.7400  1.6727
54479SOL     OW72404   1.206   7.293   5.681  0.1794  0.0833  0.2093
54479SOL    HW172405   1.187   7.361   5.616 -2.1667 -0.3883  0.3082
54479SOL    HW272406   1.192   7.337   5.765 -2.0623 -0.6245  0.2663
54480SOL     OW72407  10.335  10.464  12.491 -0.0737 -0.1158 -0.6492
54480SOL    HW172408  10.339  10.459  12.396 -1.1925  1.3625 -0.8043
54480SOL    HW272409  10.334  10.557  12.511  4.0076 -0.2350  1.0699
54481SOL     OW72410   1.643   5.855   9.637  0.0157 -0.0502  0.2879
54481SOL    HW172411   1.673   5.886   9.552  0.6591  0.8340  0.8165
54481SOL    HW272412   1.710   5.794   9.666  0.1606  0.1968  0.4746
54482SOL     OW72413   6.912   0.490  10.469 -0.0134  0.0640 -0.0609
54482SOL    HW172414   6.899   0.395  10.459 -1.4152  0.2653 -0.4469
54482SOL    HW272415   6.841   0.517  10.528  0.3473  0.8814  0.0017
54483SOL     OW72416   4.301  10.138  10.780  0.0772 -0.3945 -0.0370
54483SOL    HW172417   4.331  10.203  10.717  0.5962  0.7093  1.2918
54483SOL    HW272418   4.378  10.118  10.833 -0.2445 -1.6220 -0.0074
54484SOL     OW72419   6.145   7.581   4.143 -0.1926 -0.1676  0.0216
54484SOL    HW172420   6.068   7.563   4.090 -0.8753  1.6819  0.2944
54484SOL    HW272421   6.199   7.503   4.135 -0.9450 -0.5305 -2.1791
54485SOL     OW72422   3.488  10.839   4.736 -0.2599  0.1825  0.3114
54485SOL    HW172423   3.452  10.752   4.753  0.6338 -0.4442 -0.8612
54485SOL    HW272424   3.520  10.869   4.822 -0.7878 -0.5361  0.7701
54486SOL     OW72425  12.522   2.132   4.154 -0.2192 -0.2009  0.1774
54486SOL    HW172426  12.582   2.142   4.228  0.2909 -0.3529 -0.2090
54486SOL    HW272427  12.502   2.222   4.127 -1.9429 -0.0762  1.7013
54487SOL     OW72428   0.403   3.652  11.312 -0.5511  0.7185  0.1385
54487SOL    HW172429   0.415   3.669  11.406 -2.4109 -0.2044  0.6008
54487SOL    HW272430   0.326   3.594  11.308 -0.7564  1.0582 -1.9833
54488SOL     OW72431  10.176   9.681   8.977  0.1668  0.2365 -0.6627
54488SOL    HW172432  10.157   9.608   8.918  1.1178  0.7017 -1.5745
54488SOL    HW272433  10.096   9.733   8.979 -1.0162 -1.5013  1.0639
54489SOL     OW72434   8.783   8.460   2.311  0.1909 -0.2491 -0.4561
54489SOL    HW172435   8.694   8.424   2.316  1.0102 -2.2037  1.1545
54489SOL    HW272436   8.772   8.551   2.339 -1.4700 -0.0609 -1.5425
54490SOL     OW72437   1.120   3.287   3.315  0.3989 -0.2885  0.1200
54490SOL    HW172438   1.079   3.203   3.296 -2.0318 -0.1894  3.7043
54490SOL    HW272439   1.187   3.267   3.380  1.7968  0.3005 -1.0868
54491SOL     OW72440   6.886  12.170   5.422 -0.0295 -0.1737 -0.6314
54491SOL    HW172441   6.917  12.123   5.499 -1.5774  0.5461  0.4770
54491SOL    HW272442   6.958  12.228   5.398  1.5126 -2.2685 -1.3938
54492SOL     OW72443   6.692   7.246   9.206  0.2007 -0.0590 -0.1674
54492SOL    HW172444   6.645   7.227   9.124  1.1399  0.8380 -0.9429
54492SOL    HW272445   6.623   7.268   9.268 -0.4653  1.0174 -1.2214
54493SOL     OW72446   2.151   1.541  10.183  0.0070 -0.2207  0.3625
54493SOL    HW172447   2.241   1.554  10.215 -0.7390  1.7228  1.8804
54493SOL    HW272448   2.134   1.448  10.198  0.4375  0.1295  3.9096
54494SOL     OW72449   5.517   6.882   1.555 -0.2367  0.0504  0.3424
54494SOL    HW172450   5.609   6.866   1.580 -0.6164 -2.5593  0.3677
54494SOL    HW272451   5.467   6.859   1.634 -0.9844 -0.2014 -0.1980
54495SOL     OW72452   0.444   7.768   4.420  0.0814 -0.2533  0.8027
54495SOL    HW172453   0.393   7.794   4.343  0.3087 -1.0017  0.3828
54495SOL    HW272454   0.507   7.704   4.387 -0.8198 -1.7716  1.8437
54496SOL     OW72455   9.970   7.677  11.296 -0.3084  0.1150 -0.2365
54496SOL    HW172456  10.048   7.733  11.291 -0.4237  0.2724 -0.2749
54496SOL    HW272457   9.909   7.715  11.233 -1.1893  1.2074  1.2127
54497SOL     OW72458   6.195   1.890   9.490  0.3063 -0.1005 -0.1994
54497SOL    HW172459   6.106   1.924   9.490  0.6582  0.9002 -1.3676
54497SOL    HW272460   6.235   1.926   9.570 -0.3535 -0.6545  0.3898
54498SOL     OW72461   6.803   2.194   9.273  0.6096  0.0316  0.0744
54498SOL    HW172462   6.767   2.279   9.247  0.2308 -0.1798 -0.1028
54498SOL    HW272463   6.838   2.209   9.361  2.4479  0.9205 -0.7468
54499SOL     OW72464  11.888   8.239   0.969  0.9823 -0.1671 -0.2996
54499SOL    HW172465  11.837   8.317   0.993  0.5480  0.3494 -2.5913
54499SOL    HW272466  11.823   8.169   0.960  0.7895  0.1581 -1.8546
54500SOL     OW72467   8.084   6.517  11.389  0.0923 -0.3336  0.7195
54500SOL    HW172468   7.990   6.506  11.393 -0.1465  1.0236 -0.2502
54500SOL    HW272469   8.099   6.606  11.423  0.9895 -0.4544  0.6689
54501SOL     OW72470   0.069   6.934   0.879 -0.0908 -0.4313 -0.2015
54501SOL    HW172471  -0.019   6.898   0.883 -0.9164  1.3371 -1.4497
54501SOL    HW272472   0.086   6.966   0.968 -1.0767  0.0602 -0.1829
54502SOL     OW72473  12.238   5.620  12.279 -0.6662  0.0997 -0.9798
54502SOL    HW172474  12.216   5.537  12.322  1.8887  0.2668  0.9550
54502SOL    HW272475  12.178   5.684  12.317 -0.8525 -0.4193 -0.3825
54503SOL     OW72476   9.520  10.871   5.304  0.0371 -0.1340  0.3670
54503SOL    HW172477   9.611  10.844   5.293  0.0701  0.0667  0.1409
54503SOL    HW272478   9.497  10.914   5.221 -0.9382 -2.0939 -0.4335
54504SOL     OW72479   5.797   9.362   5.964 -0.1035 -0.5113  0.2993
54504SOL    HW172480   5.888   9.350   5.992  0.5284  1.2161 -0.8086
54504SOL    HW272481   5.792   9.316   5.880  0.2641  0.7607 -0.4495
54505SOL     OW72482   7.908   8.878   1.173  0.0792  0.6143 -1.0898
54505SOL    HW172483   7.952   8.958   1.202  0.3536  0.2148 -0.3651
54505SOL    HW272484   7.836   8.867   1.235  2.3598 -1.8173  1.4056
54506SOL     OW72485  11.508   1.089  10.248 -0.1805  0.0303 -0.0488
54506SOL    HW172486  11.529   1.112  10.158  3.2235 -2.2952 -0.0455
54506SOL    HW272487  11.482   0.996  10.244 -1.3681  0.2694  1.2379
54507SOL     OW72488   7.074   4.558   4.016  0.0766  0.7639  0.2515
54507SOL    HW172489   7.036   4.567   3.929  0.6199 -0.7861 -0.1788
54507SOL    HW272490   7.137   4.630   4.022  0.0128  0.9062 -0.6282
54508SOL     OW72491   0.479   1.670   7.466  0.1953  0.5474  0.1040
54508SOL    HW172492   0.425   1.655   7.389 -0.2508 -0.9115  0.6782
54508SOL    HW272493   0.468   1.592   7.520  1.5004  0.9770  1.0633
54509SOL     OW72494   9.329   0.940   2.912  0.1593  0.6133 -0.0516
54509SOL    HW172495   9.398   0.967   2.852  0.1824  0.0787 -0.2736
54509SOL    HW272496   9.375   0.898   2.984  0.0666  0.1583 -0.2515
54510SOL     OW72497   4.374   0.508   4.359 -0.1509 -0.0876  0.1679
54510SOL    HW172498   4.315   0.556   4.417 -0.4147  0.3033 -0.4136
54510SOL    HW272499   4.333   0.422   4.349 -0.1658 -0.1142  0.4677
54511SOL     OW72500   5.390   3.697   4.906 -0.1619 -0.4485  0.2208
54511SOL    HW172501   5.343   3.617   4.880 -0.5416 -0.3159  0.5019
54511SOL    HW272502   5.469   3.665   4.949  0.4952 -0.6786 -1.1081
54512SOL     OW72503   6.432  10.113   9.531 -1.5061  0.4544 -0.0654
54512SOL    HW172504   6.512  10.089   9.485 -1.3567 -0.0201  0.4255
54512SOL    HW272505   6.364  10.115   9.463 -1.0970  0.7777 -0.4675
54513SOL     OW72506   0.644   3.396   8.567  0.2809  0.2354  0.1171
54513SOL    HW172507   0.696   3.410   8.646  0.2000 -2.9624  0.8511
54513SOL    HW272508   0.695   3.335   8.514 -0.5118  0.8852 -1.4716
54514SOL     OW72509  10.064   8.661   7.909 -0.2207  0.6140  0.0530
54514SOL    HW172510  10.151   8.700   7.895  0.4386 -1.2598 -1.5273
54514SOL    HW272511  10.046   8.679   8.002  1.2568  2.1571  0.1132
54515SOL     OW72512   6.286  10.197   7.484  0.0034  0.2219 -0.4749
54515SOL    HW172513   6.267  10.288   7.504 -0.4926  0.0827 -0.2971
54515SOL    HW272514   6.300  10.195   7.389  1.3867  0.7111 -0.3023
54516SOL     OW72515  12.000   6.620   9.324  0.0520  0.4187  0.1833
54516SOL    HW172516  11.975   6.651   9.237 -0.5127 -0.0292  0.1764
54516SOL    HW272517  12.022   6.700   9.372 -0.6085  0.7698 -0.0729
54517SOL     OW72518   9.626   8.574   0.761  0.6214 -0.1076 -0.4033
54517SOL    HW172519   9.540   8.573   0.719 -0.0518  1.6760  0.8033
54517SOL    HW272520   9.680   8.517   0.706 -0.6132  0.8545 -2.7795
54518SOL     OW72521   9.429   6.354   2.271 -0.1054  0.4553  0.5218
54518SOL    HW172522   9.343   6.316   2.290 -0.1301  0.7255  0.9819
54518SOL    HW272523   9.456   6.393   2.354  1.5319 -1.6722  1.0972
54519SOL     OW72524   9.677   7.442  10.849 -0.4539 -0.1885 -0.3699
54519SOL    HW172525   9.734   7.367  10.865 -0.6018 -0.7416 -2.1446
54519SOL    HW272526   9.668   7.485  10.934  0.1900 -1.7884  0.5495
54520SOL     OW72527   3.260   3.366  12.025 -0.2285  0.9530  0.1015
54520SOL    HW172528   3.324   3.356  11.955  0.4196  3.4260  0.2693
54520SOL    HW272529   3.309   3.344  12.105 -0.7913 -1.2090 -0.0671
54521SOL     OW72530   1.092   6.293   9.684 -0.1694  0.0147 -0.1556
54521SOL    HW172531   1.137   6.369   9.645 -0.6010  0.4035  0.0884
54521SOL    HW272532   1.145   6.271   9.760 -0.7367  0.8903  0.5113
54522SOL     OW72533   0.290   5.314   7.936 -0.4184 -0.2532 -0.2104
54522SOL    HW172534   0.358   5.249   7.953 -0.2653 -0.0752 -0.1313
54522SOL    HW272535   0.229   5.306   8.010 -0.6024 -0.5652 -0.3959
54523SOL     OW72536   3.228   5.154   4.137  0.3058 -0.2451 -0.0025
54523SOL    HW172537   3.294   5.173   4.071  1.5134  0.6102  1.3888
54523SOL    HW272538   3.269   5.179   4.220 -1.7415  0.2947  0.9238
54524SOL     OW72539   4.223   7.839   0.647 -0.2404  0.6897  0.6197
54524SOL    HW172540   4.135   7.848   0.611  0.6384 -0.5071 -2.0706
54524SOL    HW272541   4.214   7.771   0.715 -1.4404  0.8782  0.6704
54525SOL     OW72542   3.085   1.515   1.451 -0.1632 -0.8985 -0.2509
54525SOL    HW172543   3.006   1.569   1.453  0.7545  0.4505  1.1937
54525SOL    HW272544   3.052   1.425   1.451 -1.7312 -0.4041  1.9340
54526SOL     OW72545   4.486   8.939   1.097 -0.1519  0.4311 -0.6453
54526SOL    HW172546   4.444   9.015   1.137 -0.4409 -0.3720  0.6087
54526SOL    HW272547   4.421   8.869   1.105  0.6210 -0.2909 -0.5868
54527SOL     OW72548  10.131   7.408   3.864  0.6591 -0.6065 -0.2894
54527SOL    HW172549  10.116   7.437   3.954 -2.2081 -1.0916 -0.5302
54527SOL    HW272550  10.138   7.490   3.814  1.7389 -0.3383  0.2681
54528SOL     OW72551  10.380   7.691   0.869 -0.4749 -0.4351  0.5214
54528SOL    HW172552  10.311   7.646   0.821 -0.3924 -0.2336  0.2052
54528SOL    HW272553  10.349   7.781   0.878  0.4793  0.1213 -1.1785
54529SOL     OW72554  10.898   9.337   9.915  0.0992  0.2341  0.1226
54529SOL    HW172555  10.992   9.348   9.930  0.1462  0.7704 -0.4873
54529SOL    HW272556  10.856   9.372   9.994  0.4255 -1.1473  0.9454
54530SOL     OW72557   9.248   3.387  12.538  0.0005  0.0049 -0.3385
54530SOL    HW172558   9.250   3.475  12.501  1.8552  0.1423 -0.0450
54530SOL    HW272559   9.167   3.383  12.588 -1.3060  0.7004 -2.2814
54531SOL     OW72560   7.129   9.192   1.736  0.1248 -0.0639 -0.2215
54531SOL    HW172561   7.137   9.148   1.821 -1.5591 -0.3183 -0.1493
54531SOL    HW272562   7.081   9.273   1.755  0.3723  0.2317 -0.8236
54532SOL     OW72563   0.834   8.151   1.320  0.0416  0.3584 -0.7409
54532SOL    HW172564   0.889   8.076   1.342 -0.3835  0.2528 -0.0254
54532SOL    HW272565   0.781   8.166   1.398  0.2862  1.5507 -0.7819
54533SOL     OW72566  12.094   8.612   9.254  0.0540  0.8963  0.8174
54533SOL    HW172567  12.177   8.606   9.300  0.7380 -0.7051 -0.5189
54533SOL    HW272568  12.102   8.550   9.182 -1.6487  1.9969 -0.3917
54534SOL     OW72569   7.246  11.208   7.305  0.5341  0.4911 -0.2425
54534SOL    HW172570   7.232  11.146   7.233 -0.4993  1.0016 -0.5055
54534SOL    HW272571   7.282  11.154   7.376 -0.7209 -0.5090 -0.3275
54535SOL     OW72572   2.924  10.462   6.284 -0.2380 -0.1752  0.2652
54535SOL    HW172573   2.863  10.511   6.338  0.3802  0.2145  0.6307
54535SOL    HW272574   2.894  10.475   6.195  0.7186  2.1007  0.1963
54536SOL     OW72575  12.068  10.132   3.059 -0.2406  0.4737  0.2260
54536SOL    HW172576  12.097  10.086   2.980 -0.8338 -0.3505  0.4658
54536SOL    HW272577  11.988  10.086   3.085  0.0092  0.6544  1.3770
54537SOL     OW72578   1.320   8.416   1.070  0.6168  0.4795 -0.6150
54537SOL    HW172579   1.299   8.360   0.995 -1.3112  1.2123 -0.6845
54537SOL    HW272580   1.295   8.363   1.146 -2.1799  1.4932 -0.7082
54538SOL     OW72581  10.411   2.567  12.286 -0.7404  0.4690  0.0294
54538SOL    HW172582  10.374   2.645  12.245 -0.9314  0.3572 -0.0090
54538SOL    HW272583  10.504   2.569  12.261 -0.7530  0.6586 -0.0082
54539SOL     OW72584   3.391   1.282   1.907 -0.4252  0.1774  0.1283
54539SOL    HW172585   3.335   1.306   1.833  1.0401 -0.6889 -1.3161
54539SOL    HW272586   3.353   1.201   1.940  0.1044 -0.5690 -1.0364
54540SOL     OW72587   5.703   5.714   3.165 -0.6641 -0.2362  0.0936
54540SOL    HW172588   5.660   5.798   3.152  0.5384  0.2854 -0.6614
54540SOL    HW272589   5.728   5.714   3.258  0.0825  0.6327 -0.0864
54541SOL     OW72590   9.823  11.515  10.904 -0.0858 -0.1436  0.0067
54541SOL    HW172591   9.810  11.558  10.989 -3.5001  1.7695 -1.2861
54541SOL    HW272592   9.909  11.547  10.874 -0.0067  1.2696  1.5971
54542SOL     OW72593  12.175  10.032   2.820  0.3161 -0.0022  0.5430
54542SOL    HW172594  12.195  10.095   2.750  2.3764 -0.7492  0.4118
54542SOL    HW272595  12.229   9.956   2.800 -2.2923 -1.9950  0.5590
54543SOL     OW72596   4.446   0.223   1.752  0.2099  0.3232  0.0956
54543SOL    HW172597   4.450   0.255   1.662 -2.1905 -0.9583 -0.5483
54543SOL    HW272598   4.396   0.142   1.747 -1.1985  0.8930  2.7477
54544SOL     OW72599   7.033   9.951  12.255 -0.6344  0.2513 -0.3226
54544SOL    HW172600   6.990  10.025  12.298  0.3494  1.2565 -0.9980
54544SOL    HW272601   7.118   9.944  12.299 -1.2781 -1.4871  0.7657
54545SOL     OW72602   7.360  12.556   6.770 -0.7209  0.0168  0.0138
54545SOL    HW172603   7.265  12.566   6.773 -0.5051  2.1442  1.5171
54545SOL    HW272604   7.393  12.645   6.758  1.1091 -0.6156  0.1137
54546SOL     OW72605   0.511   0.978   1.206 -0.5378  0.3682  0.0131
54546SOL    HW172606   0.531   0.915   1.275  1.2268  1.6891  0.7698
54546SOL    HW272607   0.541   0.936   1.125 -2.8761 -1.3108 -0.0935
54547SOL     OW72608   2.684   9.498   2.888  0.0392  0.1356 -0.0680
54547SOL    HW172609   2.742   9.574   2.881  1.1346 -0.4774  1.7125
54547SOL    HW272610   2.651   9.501   2.978  3.3111 -3.6134  1.5561
54548SOL     OW72611  11.343  12.224   5.372 -0.0142  0.1304  0.1106
54548SOL    HW172612  11.325  12.139   5.411  1.0854 -0.0413  0.2512
54548SOL    HW272613  11.438  12.233   5.375 -0.1504  1.7519  0.9337
54549SOL     OW72614  11.340   9.155   9.370  0.8876 -0.0548  0.1534
54549SOL    HW172615  11.325   9.212   9.295 -2.1632  0.0133  0.6760
54549SOL    HW272616  11.409   9.095   9.342 -1.3593 -1.2609 -3.4918
54550SOL     OW72617   0.906   8.654   0.496  0.4518 -0.3192 -0.6843
54550SOL    HW172618   0.922   8.640   0.402 -0.2335 -1.9244 -0.5973
54550SOL    HW272619   0.956   8.584   0.539 -1.4577 -1.3611 -0.0506
54551SOL     OW72620   9.221  11.894   8.881 -0.1472  0.4621  0.1349
54551SOL    HW172621   9.271  11.833   8.935 -0.0549  1.6842  1.5223
54551SOL    HW272622   9.152  11.841   8.841  1.2134 -0.9308 -0.4666
54552SOL     OW72623   6.793   3.902   4.463  0.2014 -0.4558 -0.3240
54552SOL    HW172624   6.802   3.993   4.491  0.1007 -0.0321 -1.6221
54552SOL    HW272625   6.867   3.857   4.503  0.2907  0.2013  0.2642
54553SOL     OW72626   5.821   3.298   6.646  0.1933  0.7483  0.4264
54553SOL    HW172627   5.809   3.215   6.692  0.0752  0.2150 -0.5313
54553SOL    HW272628   5.801   3.365   6.711 -0.5678  0.0066  0.9763
54554SOL     OW72629   7.892   4.520   8.285  0.2171 -0.4659  0.1192
54554SOL    HW172630   7.831   4.496   8.354 -0.9254  1.2650 -0.2102
54554SOL    HW272631   7.975   4.478   8.309 -0.7767 -1.8604  1.2248
54555SOL     OW72632  10.365  11.432   6.694  0.2854 -0.1503  1.0435
54555SOL    HW172633  10.290  11.438   6.634  1.2002 -0.6036 -0.1908
54555SOL    HW272634  10.326  11.405   6.777 -1.1111  1.1935  0.8822
54556SOL     OW72635   6.781   6.574   7.894 -0.1825  0.0968 -0.7200
54556SOL    HW172636   6.721   6.500   7.883 -1.3270  0.8994 -0.0912
54556SOL    HW272637   6.866   6.541   7.865 -0.4314 -1.7973  0.5326
54557SOL     OW72638  10.130   5.916   0.717  0.4871  0.7396 -0.1477
54557SOL    HW172639  10.149   6.003   0.683  0.4696  0.7939 -0.0182
54557SOL    HW272640  10.156   5.857   0.646 -2.4016  0.9753 -1.5437
54558SOL     OW72641   0.386   7.371  10.593  0.1945 -0.1191  0.1361
54558SOL    HW172642   0.317   7.388  10.529 -0.8170 -1.6908  0.7581
54558SOL    HW272643   0.348   7.307  10.653  2.3340 -1.3758  0.2435
54559SOL     OW72644  10.729   3.446   9.409 -0.0420  0.3842  0.6986
54559SOL    HW172645  10.634   3.453   9.424 -0.3803 -0.3895 -0.8599
54559SOL    HW272646  10.760   3.389   9.479 -1.3748 -2.3225 -0.7476
54560SOL     OW72647  11.985   9.074   4.113  0.3503 -0.1943  0.2317
54560SOL    HW172648  11.927   9.112   4.047  0.7180 -2.2199 -1.3441
54560SOL    HW272649  12.044   9.146   4.137 -1.2322  1.2168  0.0800
54561SOL     OW72650   1.306   8.163   2.034  0.3293 -0.1367  0.3612
54561SOL    HW172651   1.224   8.203   2.005  0.5298 -0.6188 -0.9387
54561SOL    HW272652   1.356   8.235   2.073 -0.5406  0.2458  0.7811
54562SOL     OW72653  10.032   0.082  12.454  0.0489  0.6072 -1.3138
54562SOL    HW172654   9.982   0.115  12.379  0.4723  1.0316 -1.4173
54562SOL    HW272655  10.059   0.161  12.502 -0.8385  0.3117 -0.2975
54563SOL     OW72656   8.543   0.197  10.781 -0.8092  0.1071  0.3129
54563SOL    HW172657   8.523   0.154  10.698 -1.1450 -0.0826  0.4897
54563SOL    HW272658   8.638   0.190  10.790 -0.8858 -0.8296  0.4627
54564SOL     OW72659   9.733   2.623   8.420 -0.4030  0.1111  0.5995
54564SOL    HW172660   9.680   2.703   8.424  0.6667  1.1333 -2.4940
54564SOL    HW272661   9.678   2.560   8.373 -0.9304 -0.7491  2.3114
54565SOL     OW72662   9.845   6.119   6.175 -0.0714 -0.3006  0.8896
54565SOL    HW172663   9.939   6.119   6.155 -0.3616 -0.8739 -0.5225
54565SOL    HW272664   9.804   6.080   6.098 -1.3219 -1.6752  2.1892
54566SOL     OW72665   8.969   4.622   1.960 -0.5822 -0.1628  0.2652
54566SOL    HW172666   8.993   4.686   1.894 -0.6628 -0.3772  0.0258
54566SOL    HW272667   8.910   4.561   1.914 -0.4586 -0.4419  0.4721
54567SOL     OW72668   2.830   4.446   9.370 -0.3142 -0.6090  0.0162
54567SOL    HW172669   2.886   4.403   9.435 -1.0852  0.8469  1.7105
54567SOL    HW272670   2.872   4.530   9.354 -0.2589 -0.8571 -1.2512
54568SOL     OW72671  10.615   8.684   2.237 -0.0698 -0.2238 -0.2443
54568SOL    HW172672  10.614   8.686   2.333 -0.5986 -2.5193 -0.1418
54568SOL    HW272673  10.666   8.606   2.216 -0.5466 -0.1348 -1.8365
54569SOL     OW72674  11.256  11.994   0.955 -0.1745 -0.1410  0.4051
54569SOL    HW172675  11.298  12.054   1.017 -1.5440  0.2353  0.9892
54569SOL    HW272676  11.177  12.040   0.927  0.8313  0.0991 -2.3206
54570SOL     OW72677   0.353   9.938   4.180 -0.7582  0.1592  0.6192
54570SOL    HW172678   0.344   9.909   4.089 -0.9062  1.6681  0.1236
54570SOL    HW272679   0.278   9.996   4.194  0.0339  1.0688  1.2306
54571SOL     OW72680   4.372   1.392   6.792  0.0795 -0.2696  0.2653
54571SOL    HW172681   4.421   1.329   6.845 -0.0189 -0.0527  0.6144
54571SOL    HW272682   4.285   1.393   6.830  0.0148 -0.0983  0.1137
54572SOL     OW72683  11.677  11.851   5.911  0.1129  0.4515 -0.1990
54572SOL    HW172684  11.728  11.880   5.987 -2.0524  1.2404  1.0348
54572SOL    HW272685  11.729  11.879   5.836  0.3606  3.5140  0.9714
54573SOL     OW72686   3.806   6.765  11.900 -0.1165 -0.0101 -0.2355
54573SOL    HW172687   3.795   6.805  11.986 -1.2251 -1.0161  0.1205
54573SOL    HW272688   3.785   6.834  11.837  0.7816  0.7530  0.2781
54574SOL     OW72689  10.507  12.136  11.465  0.3831  0.2791  0.4357
54574SOL    HW172690  10.451  12.059  11.468 -0.2664  0.7641  0.9254
54574SOL    HW272691  10.509  12.168  11.555  1.6485  0.1362  0.4760
54575SOL     OW72692   7.043  12.526  11.659  0.1232  0.0978  0.3508
54575SOL    HW172693   6.951  12.538  11.636  0.5814 -1.5196 -2.9612
54575SOL    HW272694   7.091  12.576  11.593  1.6429 -0.6639  0.8395
54576SOL     OW72695   4.675  10.962   6.656 -0.0123  0.1447 -0.4348
54576SOL    HW172696   4.766  10.934   6.653  0.0493  0.0353  1.4031
54576SOL    HW272697   4.679  11.057   6.651  0.1390  0.1075 -1.1208
54577SOL     OW72698   9.158   3.249  10.399 -0.0465  0.3916  0.1876
54577SOL    HW172699   9.094   3.181  10.421  1.0674 -0.7569 -0.0663
54577SOL    HW272700   9.235   3.228  10.452  1.1004  0.1401 -1.5172
54578SOL     OW72701   4.007   1.676   0.744  0.6728  0.4385 -0.1955
54578SOL    HW172702   4.005   1.710   0.654 -0.8313  1.2197  0.1025
54578SOL    HW272703   4.060   1.740   0.792  0.4086  0.7167 -0.2682
54579SOL     OW72704   4.413   3.430   5.788  0.3767  0.3002  0.4572
54579SOL    HW172705   4.371   3.499   5.737  1.0055  0.1778 -0.2344
54579SOL    HW272706   4.386   3.348   5.745  0.2367  0.1461  0.8298
54580SOL     OW72707  10.001   6.001   0.022  0.1933  0.5371 -0.2240
54580SOL    HW172708  10.011   6.052  -0.059 -1.4539  1.3043  0.0066
54580SOL    HW272709  10.014   6.065   0.092 -1.2820  0.5504  0.0739
54581SOL     OW72710   0.119  10.352   1.492 -0.0283  0.2593  0.5710
54581SOL    HW172711   0.080  10.439   1.505  2.5411  1.5249  0.5830
54581SOL    HW272712   0.077  10.296   1.557 -0.6347  1.9080  1.6708
54582SOL     OW72713  12.134  10.568   5.106 -0.1343  0.2700 -0.1836
54582SOL    HW172714  12.188  10.516   5.047  1.7018  3.0570 -1.1578
54582SOL    HW272715  12.185  10.572   5.187 -0.5443  0.0938  0.0855
54583SOL     OW72716  12.022  11.136   5.549 -0.4499  0.3307 -0.1892
54583SOL    HW172717  12.037  11.230   5.540  0.3347  0.3744  1.2158
54583SOL    HW272718  12.107  11.097   5.530 -1.0960 -0.2337 -2.1267
54584SOL     OW72719   4.049  11.889   8.850 -0.1904 -0.8615  0.1960
54584SOL    HW172720   4.026  11.936   8.770 -0.7024  0.1323  0.9081
54584SOL    HW272721   4.093  11.954   8.905  0.2402 -1.5519  0.6877
54585SOL     OW72722   6.569  11.868   2.326  0.0378  0.0207  0.2385
54585SOL    HW172723   6.501  11.807   2.298 -1.0821 -0.6665  3.9715
54585SOL    HW272724   6.541  11.953   2.291 -3.0996 -0.1550  2.0362
54586SOL     OW72725   3.710   2.934   9.371  0.2140 -0.0883 -0.2395
54586SOL    HW172726   3.731   2.861   9.313  1.0573  0.4259 -0.6080
54586SOL    HW272727   3.646   2.985   9.321  0.4838  0.0286 -0.4742
54587SOL     OW72728  10.261   7.183   3.781 -0.0425  0.0472 -0.0061
54587SOL    HW172729  10.213   7.264   3.766  0.3866  0.0962 -1.2229
54587SOL    HW272730  10.286   7.153   3.693 -1.3099 -2.0817  0.2874
54588SOL     OW72731   6.002   9.560   2.365 -1.1471  0.1500  0.2776
54588SOL    HW172732   6.085   9.607   2.378 -0.4636 -1.2341  1.0913
54588SOL    HW272733   6.012   9.479   2.414 -3.0057 -0.0500  0.3978
54589SOL     OW72734   7.977   1.927   3.862  0.4790  0.7795 -0.5505
54589SOL    HW172735   7.891   1.950   3.897 -0.1122 -0.4039 -1.1758
54589SOL    HW272736   7.969   1.939   3.767  0.9930  0.6395 -0.6158
54590SOL     OW72737   8.990   8.213   6.613  0.2419  0.5738  0.4775
54590SOL    HW172738   8.898   8.241   6.615 -0.6617 -1.9328 -1.2249
54590SOL    HW272739   9.036   8.288   6.575 -1.6399  0.8253 -1.5563
54591SOL     OW72740   8.464   1.116   0.676  0.8332 -0.1351 -0.4046
54591SOL    HW172741   8.402   1.097   0.747  2.1596  2.5177  1.6527
54591SOL    HW272742   8.424   1.187   0.627  0.7088 -0.7839 -1.2551
54592SOL     OW72743   1.460   1.690   8.399  0.1217 -0.0142  0.3447
54592SOL    HW172744   1.423   1.777   8.412  1.1920  0.9240 -2.2366
54592SOL    HW272745   1.553   1.706   8.383  0.3048 -1.6095 -0.3419
54593SOL     OW72746   1.807   9.685   8.988 -0.2712 -0.1649  0.0744
54593SOL    HW172747   1.758   9.757   8.950 -1.3847 -1.9429 -2.0775
54593SOL    HW272748   1.741   9.632   9.032  0.3693 -0.4337  0.7283
54594SOL     OW72749   4.176   3.957   2.431  0.6037  0.4076  0.0226
54594SOL    HW172750   4.165   3.994   2.519  0.1127  3.9051 -1.3364
54594SOL    HW272751   4.186   4.034   2.374  2.8069 -1.7520 -2.7801
54595SOL     OW72752  12.497   6.514   4.244 -0.0587 -0.1898  0.0140
54595SOL    HW172753  12.422   6.457   4.229 -0.3220 -0.1788  1.1623
54595SOL    HW272754  12.573   6.462   4.217 -0.3960 -0.5896 -0.1700
54596SOL     OW72755   7.082   5.081   4.932  0.2366  0.4413  0.3198
54596SOL    HW172756   7.093   5.008   4.993  0.4767 -0.3936 -0.6972
54596SOL    HW272757   7.048   5.040   4.852  0.9698  1.3561 -0.4801
54597SOL     OW72758   7.875   0.426   3.872  0.2748 -0.5321  0.0393
54597SOL    HW172759   7.813   0.355   3.859 -0.5068  0.3360 -1.2411
54597SOL    HW272760   7.891   0.460   3.784  0.7981  0.7264  0.5993
54598SOL     OW72761   1.873   3.551  12.042  0.0950  0.2487  0.0350
54598SOL    HW172762   1.914   3.497  11.975  0.2811  0.5511 -0.0987
54598SOL    HW272763   1.787   3.574  12.006  0.2529  0.5321 -0.1660
54599SOL     OW72764   9.875  11.700   3.748 -0.4131  0.4524  0.1207
54599SOL    HW172765   9.880  11.790   3.715 -1.8403 -0.1372 -1.8808
54599SOL    HW272766   9.942  11.653   3.699  0.7717  0.4989  1.6240
54600SOL     OW72767   8.917   3.359   0.895  0.0417  0.3491  0.3285
54600SOL    HW172768   8.916   3.265   0.879  0.9995  0.5631 -1.2381
54600SOL    HW272769   8.826   3.387   0.881  0.0849 -0.0985 -0.9728
54601SOL     OW72770   7.588   8.849  11.643  0.3474  0.0427  0.3054
54601SOL    HW172771   7.542   8.783  11.591 -0.4894 -0.0891  1.1957
54601SOL    HW272772   7.613   8.916  11.579  1.4487 -1.2256 -0.6742
54602SOL     OW72773   4.797   4.907   2.810  0.2046 -0.0192 -0.2470
54602SOL    HW172774   4.766   4.997   2.810 -1.9853 -0.6916 -1.4050
54602SOL    HW272775   4.798   4.881   2.718  2.6614 -0.6520 -0.1276
54603SOL     OW72776   0.985  11.710   1.683  0.2314  0.4716 -0.6025
54603SOL    HW172777   1.034  11.685   1.762 -0.4978  0.4482 -0.1418
54603SOL    HW272778   0.893  11.701   1.709 -0.0346  1.8512 -1.0030
54604SOL     OW72779   7.331   0.082   9.291 -0.8260  0.4858 -0.1714
54604SOL    HW172780   7.281   0.000   9.289 -0.8181  0.4852 -1.9607
54604SOL    HW272781   7.378   0.079   9.375 -1.4143 -0.9772  0.1446
54605SOL     OW72782   0.307   5.242   1.559 -0.2366 -0.0803 -0.4330
54605SOL    HW172783   0.265   5.326   1.541 -2.7311 -1.2400 -0.5963
54605SOL    HW272784   0.237   5.188   1.597  1.9770 -1.2421  2.4183
54606SOL     OW72785   9.777   2.305   2.170  0.6008  0.6573 -0.5907
54606SOL    HW172786   9.777   2.310   2.266  1.7518 -0.8680 -0.4747
54606SOL    HW272787   9.743   2.218   2.150 -1.5538  1.6683 -1.6970
54607SOL     OW72788   3.411  10.130   3.075  0.1985  0.3268 -0.4749
54607SOL    HW172789   3.353  10.164   3.007  0.3877  0.8662 -0.3738
54607SOL    HW272790   3.354  10.114   3.150 -0.0171 -0.3088 -0.7736
54608SOL     OW72791   2.972   1.229  11.176 -0.0391 -0.0820 -0.4077
54608SOL    HW172792   2.951   1.137  11.163 -1.2008  0.1208 -0.1755
54608SOL    HW272793   3.016   1.232  11.261  0.3909 -0.4733 -0.6194
54609SOL     OW72794   4.164   4.708   3.508  0.8311  0.4122 -0.1086
54609SOL    HW172795   4.130   4.619   3.514 -0.9978  1.1395  1.1317
54609SOL    HW272796   4.259   4.696   3.501  0.6174 -1.6169 -0.3924
54610SOL     OW72797   7.684   4.552   0.304  0.4950 -0.1470 -0.1171
54610SOL    HW172798   7.750   4.617   0.283  0.0171  1.3977  2.6863
54610SOL    HW272799   7.722   4.500   0.374 -0.2357 -1.0824 -0.3783
54611SOL     OW72800  12.107   7.167   6.327  0.8341  0.1084  0.0909
54611SOL    HW172801  12.081   7.254   6.359 -0.6049 -0.7584  1.4450
54611SOL    HW272802  12.089   7.109   6.400  0.2768 -1.5756 -1.3273
54612SOL     OW72803  11.119   2.593  10.028  0.3257  0.3476  0.4762
54612SOL    HW172804  11.153   2.630  10.110  1.9211 -3.2846  1.6842
54612SOL    HW272805  11.197   2.576   9.976 -0.3288 -0.7813 -0.1696
54613SOL     OW72806   3.266   1.756   1.479 -0.1051 -0.1278  0.6949
54613SOL    HW172807   3.295   1.716   1.397  0.8146  1.1920  0.3313
54613SOL    HW272808   3.190   1.705   1.506 -1.7847  0.6612 -2.1078
54614SOL     OW72809   0.742   2.428   6.746 -0.7108 -0.3553  0.4337
54614SOL    HW172810   0.762   2.434   6.653  1.1549 -0.1752  0.7971
54614SOL    HW272811   0.823   2.458   6.789 -1.8599  0.5116  2.0964
54615SOL     OW72812   4.161   6.679   8.760  0.5180 -0.2533  0.6074
54615SOL    HW172813   4.183   6.725   8.841 -1.4584 -1.2070  1.7632
54615SOL    HW272814   4.139   6.590   8.787 -1.5141 -0.2429 -0.7447
54616SOL     OW72815   6.664  10.522   3.662  0.0528  0.2750  0.0330
54616SOL    HW172816   6.748  10.546   3.703  0.1080  1.9554 -0.9846
54616SOL    HW272817   6.606  10.502   3.736  0.1091  3.3289  1.0141
54617SOL     OW72818  11.489  12.149   6.044  0.5665  0.4675 -0.1760
54617SOL    HW172819  11.439  12.114   6.117  1.0495  1.3342  0.5840
54617SOL    HW272820  11.580  12.147   6.074  0.9759 -0.7116 -1.3869
54618SOL     OW72821   1.007   2.437   5.299 -0.0096  0.7994  0.0618
54618SOL    HW172822   0.979   2.452   5.389 -0.0305  1.0355  0.0190
54618SOL    HW272823   1.037   2.347   5.297  0.9674  1.1070  0.5547
54619SOL     OW72824   5.898  10.768   0.257  0.2144  0.2305  0.1984
54619SOL    HW172825   5.832  10.796   0.195  0.7998  2.0674  0.3457
54619SOL    HW272826   5.964  10.838   0.255  0.3561  0.2570  2.7060
54620SOL     OW72827   6.647   8.417  10.725 -0.1812 -0.1292 -0.5282
54620SOL    HW172828   6.644   8.425  10.821 -0.0638  0.4626 -0.5709
54620SOL    HW272829   6.572   8.361  10.704 -0.5588  0.2260 -0.1435
54621SOL     OW72830   1.126   6.905  10.451 -0.0731  0.2539  0.9652
54621SOL    HW172831   1.133   6.978  10.388  1.2433  0.8888  1.8082
54621SOL    HW272832   1.198   6.847  10.427 -1.0879 -0.7787  0.3333
54622SOL     OW72833  10.014  10.527   9.467 -0.0264 -0.0230 -0.2637
54622SOL    HW172834   9.996  10.529   9.373 -1.2042  2.1886 -0.0624
54622SOL    HW272835  10.034  10.618   9.489  1.4645 -0.6995  1.4400
54623SOL     OW72836   2.871   3.357   6.623  0.0472 -0.6512 -0.3269
54623SOL    HW172837   2.927   3.304   6.679  1.8670  0.1042 -1.3325
54623SOL    HW272838   2.783   3.326   6.641  0.8948 -2.9083  0.2771
54624SOL     OW72839   8.736  12.576   8.822 -0.4061 -0.3846  0.5467
54624SOL    HW172840   8.799  12.519   8.865 -0.3402 -0.6163  0.1490
54624SOL    HW272841   8.695  12.521   8.755 -0.8551 -0.1687  0.6386
54625SOL     OW72842   9.428  10.431   4.102  0.4829  0.3463  0.0171
54625SOL    HW172843   9.430  10.453   4.195  1.3016 -2.5566  0.7828
54625SOL    HW272844   9.512  10.463   4.068  0.5186  0.7307  0.4623
54626SOL     OW72845   2.913   3.581   4.090 -0.1202 -0.0165  0.1381
54626SOL    HW172846   2.888   3.519   4.158 -1.6827  0.2713 -0.1486
54626SOL    HW272847   2.960   3.529   4.025  0.9480 -0.3806  1.1769
54627SOL     OW72848   4.868   6.680   6.478 -0.0066 -0.1350 -0.4512
54627SOL    HW172849   4.872   6.747   6.546  0.9886 -0.4256 -0.2017
54627SOL    HW272850   4.946   6.626   6.493 -0.3244 -0.8199 -1.1890
54628SOL     OW72851  12.043  12.437   5.875  0.3889  0.0130 -0.1185
54628SOL    HW172852  12.113  12.486   5.917  2.1288 -0.1085 -2.6364
54628SOL    HW272853  11.972  12.501   5.862  1.2568  0.9676 -0.2562
54629SOL     OW72854   9.203   4.891   5.998  0.1169  0.2693  0.6749
54629SOL    HW172855   9.252   4.867   5.919 -0.6214  1.5453 -0.2000
54629SOL    HW272856   9.216   4.816   6.057  0.7944 -0.6633 -0.5924
54630SOL     OW72857   2.871   7.876   1.153  0.1475  0.1692  0.0029
54630SOL    HW172858   2.797   7.815   1.153 -0.4798  0.9080  0.3582
54630SOL    HW272859   2.946   7.823   1.128 -0.0397 -1.1608  2.0706
54631SOL     OW72860   5.789   4.545   9.310  0.2813  0.0310 -0.0538
54631SOL    HW172861   5.735   4.589   9.245  0.1228 -1.7505 -1.2205
54631SOL    HW272862   5.791   4.604   9.385 -2.5323  0.5699 -0.3120
54632SOL     OW72863   8.233   0.902   1.664  0.0927 -0.6892  0.7646
54632SOL    HW172864   8.169   0.842   1.702  2.6644 -3.5394  0.9364
54632SOL    HW272865   8.227   0.887   1.570 -1.5780  1.4270  0.4434
54633SOL     OW72866   4.044   5.231   3.920 -0.3093  0.3646 -0.7010
54633SOL    HW172867   3.968   5.190   3.961 -1.6793  1.2658 -2.1958
54633SOL    HW272868   4.076   5.293   3.985 -0.0581 -0.8820  0.4158
54634SOL     OW72869   2.609  11.015   4.125 -0.1227 -0.9066  0.2834
54634SOL    HW172870   2.579  10.958   4.054  0.2551 -0.5983 -0.1296
54634SOL    HW272871   2.563  11.098   4.110  1.5589 -0.1366 -0.8811
54635SOL     OW72872   1.790   1.073  12.488 -0.0281 -0.3156 -0.7826
54635SOL    HW172873   1.842   1.103  12.563  0.9350  0.1144 -1.6133
54635SOL    HW272874   1.798   1.143  12.424 -1.7243 -0.1975 -0.9022
54636SOL     OW72875   2.938   0.839  12.346  0.3219  0.3267 -0.1892
54636SOL    HW172876   2.907   0.906  12.284  2.6434  1.4872 -0.2171
54636SOL    HW272877   2.902   0.865  12.430 -0.0892  0.7031 -0.4796
54637SOL     OW72878   2.232  10.246   8.338 -0.0095 -0.0270  1.2055
54637SOL    HW172879   2.295  10.194   8.388  1.0656  1.7597  1.8089
54637SOL    HW272880   2.230  10.331   8.383 -1.5616  0.5362  0.1596
54638SOL     OW72881   3.273   4.789   2.012  0.0013 -0.1752 -0.6713
54638SOL    HW172882   3.335   4.754   1.947  1.8827 -0.1161  0.9947
54638SOL    HW272883   3.302   4.879   2.026 -0.6757 -0.0421 -0.1065
54639SOL     OW72884   9.528  12.225   6.123 -0.4941 -0.3699  0.5917
54639SOL    HW172885   9.434  12.233   6.141 -0.5144 -0.4499  0.5235
54639SOL    HW272886   9.558  12.159   6.186 -0.2910  0.3721  1.2823
54640SOL     OW72887   0.237   8.511   4.663 -0.6184  0.0234  0.0672
54640SOL    HW172888   0.315   8.525   4.716 -0.6260  1.3132 -0.2219
54640SOL    HW272889   0.164   8.525   4.723 -0.6265  0.2164  0.0124
54641SOL     OW72890  10.398   1.877  11.897 -0.0846  0.1595 -0.2196
54641SOL    HW172891  10.432   1.966  11.886 -0.1512  0.1266 -0.7224
54641SOL    HW272892  10.414   1.835  11.812 -1.1981  0.0856 -0.4016
54642SOL     OW72893   6.994   9.022  12.244 -0.3533  0.8248 -0.3632
54642SOL    HW172894   6.987   9.099  12.300  1.4482 -0.2459  1.4831
54642SOL    HW272895   7.018   8.951  12.303  0.3493 -0.6680 -2.3122
54643SOL     OW72896   1.272   7.656   0.816 -0.4296  0.0752 -0.7020
54643SOL    HW172897   1.304   7.720   0.752  0.1422  0.3177 -0.1819
54643SOL    HW272898   1.285   7.571   0.773  1.5178  0.1176 -0.2817
54644SOL     OW72899  12.396   2.274   6.081  0.2423 -0.1784  0.3109
54644SOL    HW172900  12.352   2.358   6.074 -0.3152 -0.2359  2.3884
54644SOL    HW272901  12.477   2.292   6.129  1.1390 -0.5331 -1.0090
54645SOL     OW72902   5.167  11.226  11.210 -0.7504  0.1172 -0.4031
54645SOL    HW172903   5.080  11.264  11.225  0.1510  2.1778 -0.0078
54645SOL    HW272904   5.186  11.176  11.289  0.4953  4.0085  2.0484
54646SOL     OW72905   8.604  12.046   9.352 -0.3601 -0.1745 -0.8187
54646SOL    HW172906   8.613  12.125   9.300 -1.0613 -0.7498 -1.8563
54646SOL    HW272907   8.689  12.002   9.343  0.3318  0.8294  0.4543
54647SOL     OW72908   4.343   2.088   6.247  0.3437 -0.5999  0.1850
54647SOL    HW172909   4.275   2.151   6.266  0.5155 -0.4309  0.2437
54647SOL    HW272910   4.405   2.135   6.190  0.2903 -0.8231 -0.0621
54648SOL     OW72911   5.728   7.380   7.018  0.8674  0.8358 -0.0844
54648SOL    HW172912   5.742   7.290   7.047 -0.4170  0.5956 -0.1594
54648SOL    HW272913   5.651   7.409   7.067 -0.8682  0.7038 -2.6068
54649SOL     OW72914   9.704   0.179   8.964 -0.0892  0.0537 -0.5853
54649SOL    HW172915   9.739   0.261   8.928 -0.6175  0.9459  0.8681
54649SOL    HW272916   9.747   0.170   9.049 -2.6711  0.7796  0.9212
54650SOL     OW72917  10.652   8.706   6.342  0.0571 -0.3997 -0.2308
54650SOL    HW172918  10.624   8.786   6.298  0.2182  0.6310  1.4421
54650SOL    HW272919  10.744   8.721   6.362  0.1567 -1.1224 -0.1368
54651SOL     OW72920   6.842  11.846   3.253 -0.1128 -0.1376 -0.1856
54651SOL    HW172921   6.885  11.914   3.203  0.2034  0.1758  0.4914
54651SOL    HW272922   6.830  11.884   3.340 -0.3786 -0.7678  0.0639
54652SOL     OW72923  11.681   1.395   1.892  0.3880 -0.3658  0.2957
54652SOL    HW172924  11.697   1.315   1.841  1.8380  0.9045 -1.3790
54652SOL    HW272925  11.753   1.398   1.955  0.0300 -0.6394  0.7229
54653SOL     OW72926   0.863   1.515   8.616  0.0460  0.2174  0.0483
54653SOL    HW172927   0.881   1.529   8.709  1.1924  1.9223 -0.3820
54653SOL    HW272928   0.840   1.602   8.583 -0.6114 -0.4134 -1.2130
54654SOL     OW72929   4.855   8.654   2.575 -0.1682  0.2293  0.6946
54654SOL    HW172930   4.884   8.591   2.510 -0.6900 -0.7127  1.3623
54654SOL    HW272931   4.770   8.684   2.544  0.5466  1.4522 -0.1874
54655SOL     OW72932  10.072   7.312   6.235  0.0713 -0.3931 -0.1523
54655SOL    HW172933  10.053   7.321   6.328  1.5747  1.1822  0.0750
54655SOL    HW272934  10.101   7.222   6.224 -0.8151 -0.8019  0.7469
54656SOL     OW72935  12.479  11.979   6.652 -0.1738  0.2285 -0.1875
54656SOL    HW172936  12.403  12.029   6.622 -0.5977 -1.3074 -1.8115
54656SOL    HW272937  12.512  12.030   6.727 -0.2170  3.2272 -2.0243
54657SOL     OW72938   6.206  12.543   6.668  0.3568  0.5535 -0.5880
54657SOL    HW172939   6.294  12.571   6.692 -0.2010  2.0126 -0.0879
54657SOL    HW272940   6.200  12.561   6.574  1.3729 -1.8670 -1.1788
54658SOL     OW72941  11.917   5.557   9.296 -0.3827 -0.2241  0.3352
54658SOL    HW172942  11.879   5.475   9.329  0.4151 -0.1849  1.4054
54658SOL    HW272943  11.865   5.626   9.338 -1.2650 -0.1532 -0.8162
54659SOL     OW72944   3.053   4.107  11.207 -0.6110 -0.2847  0.1653
54659SOL    HW172945   3.060   4.201  11.189 -1.2002 -0.1006  0.8522
54659SOL    HW272946   3.026   4.069  11.123  0.6411  0.0120 -0.3918
54660SOL     OW72947   4.520   6.371   5.778 -0.1496 -0.2297  0.1703
54660SOL    HW172948   4.440   6.319   5.771  0.0865 -0.7959  1.4014
54660SOL    HW272949   4.590   6.306   5.788  0.0693  0.2668  2.4651
54661SOL     OW72950   7.880   5.286  11.849  0.0612 -0.0948 -0.2616
54661SOL    HW172951   7.882   5.244  11.935 -4.8616 -2.6189 -1.0422
54661SOL    HW272952   7.841   5.371  11.864  2.0195  0.7865  0.2203
54662SOL     OW72953   4.225   3.276   3.306  0.3416 -0.2289  0.2396
54662SOL    HW172954   4.313   3.313   3.318 -0.0516  0.5313  0.9135
54662SOL    HW272955   4.180   3.294   3.389 -0.7705  0.3252 -0.4580
54663SOL     OW72956   5.357   4.252  11.990  0.0246  0.2425 -0.0306
54663SOL    HW172957   5.355   4.292  11.903 -0.8664  0.1584 -0.0496
54663SOL    HW272958   5.421   4.304  12.039  1.0570 -0.1369 -0.9321
54664SOL     OW72959   8.338   9.922   2.760 -0.3950  0.3425  0.1964
54664SOL    HW172960   8.387   9.848   2.796  0.5999  0.6680 -0.4528
54664SOL    HW272961   8.388   9.948   2.682 -0.6762  1.7516  0.4651
54665SOL     OW72962   3.949   4.145   1.102  0.1211  1.1798  0.5699
54665SOL    HW172963   3.977   4.118   1.015 -0.8512  0.3711  0.5026
54665SOL    HW272964   3.976   4.237   1.108  0.4869  1.1502 -0.4446
54666SOL     OW72965   2.553   8.687   9.604 -0.1454 -0.1637  0.7332
54666SOL    HW172966   2.459   8.680   9.619  0.1878 -0.9246  2.7897
54666SOL    HW272967   2.593   8.656   9.685  1.8870  0.4909  0.0533
54667SOL     OW72968   5.730   6.835   4.141 -0.1936 -0.3779  0.2029
54667SOL    HW172969   5.792   6.792   4.082  0.6943  1.3591 -0.1931
54667SOL    HW272970   5.764   6.817   4.228  1.0226  0.7120 -0.0161
54668SOL     OW72971  10.343   4.231   4.092  0.0294 -0.3519  0.6815
54668SOL    HW172972  10.298   4.187   4.020  2.6856 -2.0553 -0.1133
54668SOL    HW272973  10.364   4.161   4.153 -0.8074  0.8327  2.3789
54669SOL     OW72974   7.671   2.616   6.934 -0.2646 -0.1939 -0.1458
54669SOL    HW172975   7.716   2.609   7.018  0.1253  0.7303 -0.2693
54669SOL    HW272976   7.582   2.643   6.956 -0.4119 -0.7824  0.0136
54670SOL     OW72977   2.745  10.904   9.366 -0.0222 -0.3883 -0.3992
54670SOL    HW172978   2.714  10.994   9.379  1.9621  0.1340  1.4191
54670SOL    HW272979   2.772  10.901   9.274  1.1602  1.3610 -0.1690
54671SOL     OW72980   4.880  12.371  11.060  0.5280 -0.0326 -0.3839
54671SOL    HW172981   4.926  12.287  11.054  1.2103  0.1601  1.4606
54671SOL    HW272982   4.796  12.349  11.100  1.0917  0.2228  1.0349
54672SOL     OW72983   9.999   0.599   8.311  0.4452 -0.0620  0.1405
54672SOL    HW172984  10.080   0.553   8.291  1.1099  0.2090  1.9956
54672SOL    HW272985  10.004   0.680   8.261  1.0247 -0.3346 -0.2523
54673SOL     OW72986   4.497   0.204   6.420  0.1641  0.0168 -0.1209
54673SOL    HW172987   4.450   0.158   6.350 -2.8156  0.6573  1.3285
54673SOL    HW272988   4.501   0.295   6.391  1.2564 -0.1584 -0.5711
54674SOL     OW72989   0.841  11.893  11.025 -0.2300  0.7344 -0.0095
54674SOL    HW172990   0.784  11.876  10.949  0.0498  0.8779 -0.2556
54674SOL    HW272991   0.850  11.808  11.068  0.0771  0.5325 -0.4662
54675SOL     OW72992   1.966   6.432   7.239 -1.1237  0.9385  0.0172
54675SOL    HW172993   2.041   6.481   7.207 -1.1242  1.6953  1.1125
54675SOL    HW272994   1.910   6.498   7.281 -1.4623  0.1128  0.9024
54676SOL     OW72995   5.278   4.441   9.044 -0.2871 -0.0941 -0.6134
54676SOL    HW172996   5.274   4.408   8.954 -0.0504  0.1969 -0.7307
54676SOL    HW272997   5.332   4.520   9.038 -1.2963  0.6230 -0.4183
54677SOL     OW72998   5.315   3.742   4.348  0.2436  0.4564  0.5580
54677SOL    HW172999   5.385   3.790   4.304  1.1918 -1.6673 -0.3659
54677SOL    HW273000   5.343   3.739   4.440  0.1236  1.6992  0.6520
54678SOL     OW73001   8.876  12.432   3.015 -0.0455 -0.3329  0.2412
54678SOL    HW173002   8.784  12.446   3.035 -0.2041 -0.2942 -0.4738
54678SOL    HW273003   8.891  12.339   3.033  0.1677 -0.0127  1.8023
54679SOL     OW73004   8.068  10.254   5.266 -0.6271 -0.2186 -0.4662
54679SOL    HW173005   8.015  10.243   5.187  1.3763 -1.3811 -1.7264
54679SOL    HW273006   8.147  10.203   5.249  1.3382  2.1746  0.9390
54680SOL     OW73007   7.344   7.494   7.578  0.4796 -0.1748  0.2519
54680SOL    HW173008   7.391   7.564   7.623 -0.4689  0.4396  0.3354
54680SOL    HW273009   7.263   7.535   7.549 -0.5171 -1.4641  1.0855
54681SOL     OW73010  12.390   8.502   1.283 -0.0651  0.5893  0.1792
54681SOL    HW173011  12.341   8.491   1.365 -2.1055 -1.9130 -1.2153
54681SOL    HW273012  12.361   8.587   1.249 -1.7958  0.1515  0.4709
54682SOL     OW73013  10.883   6.938   5.260  0.2002 -0.4192  0.4510
54682SOL    HW173014  10.810   6.972   5.209  0.2354  0.2382  0.8257
54682SOL    HW273015  10.944   6.904   5.194 -0.0640 -0.2128  0.0971
54683SOL     OW73016   7.647   4.864   3.022 -0.5748 -0.3267  0.1663
54683SOL    HW173017   7.732   4.833   3.054 -0.7134 -1.6713 -0.7110
54683SOL    HW273018   7.628   4.809   2.946 -1.4759  1.0473 -0.6474
54684SOL     OW73019   8.507  10.616   9.322 -0.1761 -0.1730 -0.1159
54684SOL    HW173020   8.478  10.528   9.344 -2.9528  0.7665  0.3945
54684SOL    HW273021   8.444  10.646   9.256  1.2984  1.1099 -1.0141
54685SOL     OW73022   3.818  11.127   7.855 -0.1892  0.1352 -0.6748
54685SOL    HW173023   3.756  11.188   7.816  0.1264 -0.7924 -2.7544
54685SOL    HW273024   3.903  11.154   7.821  0.5224  0.9037  1.5130
54686SOL     OW73025   9.400  12.041  11.860  0.1060 -0.2064 -0.1011
54686SOL    HW173026   9.380  11.973  11.924 -0.5576  0.8078  0.8172
54686SOL    HW273027   9.477  12.085  11.895 -0.2451  0.3384 -0.0028
54687SOL     OW73028   7.266   9.645  10.208 -0.3520 -0.4260 -0.4257
54687SOL    HW173029   7.186   9.696  10.212 -0.4596 -0.6426  0.2372
54687SOL    HW273030   7.297   9.657  10.118  0.3496  1.8936  0.0579
54688SOL     OW73031   5.251   8.200   7.895 -0.2035 -0.0449  0.8954
54688SOL    HW173032   5.310   8.235   7.962  0.0283  0.5130  0.3995
54688SOL    HW273033   5.264   8.256   7.819 -0.3421 -0.7810  0.3147
54689SOL     OW73034   2.619   9.041   8.602  0.1688 -0.4564 -0.1935
54689SOL    HW173035   2.671   9.122   8.601  2.1368 -1.5578  1.8622
54689SOL    HW273036   2.638   8.999   8.518  1.4358 -0.0629 -0.1322
54690SOL     OW73037   2.465  11.927   4.558 -0.0979  0.5379 -0.0346
54690SOL    HW173038   2.462  11.891   4.470  0.2692 -1.8014  0.8206
54690SOL    HW273039   2.375  11.923   4.589 -0.1106  0.6943 -0.0492
54691SOL     OW73040   0.169   5.449   3.930 -0.0093  0.3100 -0.2627
54691SOL    HW173041   0.086   5.411   3.899 -1.2685  0.6260  2.4308
54691SOL    HW273042   0.181   5.526   3.875 -0.3550 -0.8436 -2.0787
54692SOL     OW73043   6.078   0.444   6.328 -0.3778  0.5230  0.0271
54692SOL    HW173044   6.133   0.444   6.250 -1.1726 -0.3786 -0.5599
54692SOL    HW273045   6.135   0.411   6.398  0.1608  0.7245 -0.3126
54693SOL     OW73046   0.614   2.848  11.208  0.3876 -0.3452 -0.2783
54693SOL    HW173047   0.652   2.761  11.198  0.6335 -0.1611 -0.9629
54693SOL    HW273048   0.536   2.833  11.262  1.5450 -0.6754  1.3804
54694SOL     OW73049  11.261   7.570   2.088 -0.3998 -0.0228  0.5592
54694SOL    HW173050  11.169   7.544   2.098 -0.3704 -0.2715  0.1962
54694SOL    HW273051  11.301   7.497   2.042  0.1976 -0.3499  1.5651
54695SOL     OW73052   3.059  10.656   8.405 -0.6592  0.2362  0.1092
54695SOL    HW173053   3.055  10.749   8.424 -1.5767 -0.0818  1.6286
54695SOL    HW273054   3.089  10.651   8.314  0.0712  1.9700  0.2265
54696SOL     OW73055   9.516   4.903   4.017  0.1044 -0.8758  0.0781
54696SOL    HW173056   9.537   4.813   3.991 -1.0208 -1.1988  0.2590
54696SOL    HW273057   9.553   4.911   4.105  0.0005 -1.2371  0.1582
54697SOL     OW73058   7.460   4.298  10.986  0.3479 -0.0834  0.2355
54697SOL    HW173059   7.545   4.335  11.009  0.2165  0.1644  0.3308
54697SOL    HW273060   7.415   4.287  11.070  0.1841  0.0383  0.1639
54698SOL     OW73061   8.501   5.295   4.679 -0.5277 -0.1470 -0.6747
54698SOL    HW173062   8.585   5.273   4.639  0.0033  0.9883 -0.2189
54698SOL    HW273063   8.517   5.377   4.726 -1.3914 -0.8966  1.0231
54699SOL     OW73064   9.385   3.294   3.219  0.2749  0.5225  0.1143
54699SOL    HW173065   9.399   3.370   3.163 -0.9208  1.9469  1.6620
54699SOL    HW273066   9.388   3.219   3.159  0.6598  1.8373 -1.5734
54700SOL     OW73067   4.789   1.417   0.783 -0.6702 -0.1988  0.3881
54700SOL    HW173068   4.870   1.455   0.816 -1.6997  0.4482  2.3002
54700SOL    HW273069   4.797   1.323   0.800  0.3231 -0.3752 -0.9263
54701SOL     OW73070   5.133  12.563   5.120  0.0335  0.3631 -0.9834
54701SOL    HW173071   5.217  12.567   5.166 -0.5387  0.0602  0.1404
54701SOL    HW273072   5.155  12.536   5.031  1.2469  1.5605 -1.0750
54702SOL     OW73073   6.892  12.077   1.218  0.3551  0.5201 -0.7937
54702SOL    HW173074   6.956  12.026   1.268 -1.4830  0.3949  1.5940
54702SOL    HW273075   6.869  12.150   1.276 -0.7877  1.2251 -2.0726
54703SOL     OW73076   5.109  11.735   2.033 -0.3869 -0.7810  0.1466
54703SOL    HW173077   5.074  11.646   2.036  0.9455 -1.3224  0.4980
54703SOL    HW273078   5.201  11.723   2.010 -0.3768  0.5712 -0.5812
54704SOL     OW73079  10.494  10.673   8.606 -0.0794 -0.1491  0.0610
54704SOL    HW173080  10.538  10.753   8.633  0.1909 -0.7569  1.5047
54704SOL    HW273081  10.401  10.696   8.606  0.0303  0.2905  0.0347
54705SOL     OW73082   4.974   2.432   5.905  0.0093 -0.0446 -0.3424
54705SOL    HW173083   4.946   2.341   5.913 -2.3882  0.7637  1.9263
54705SOL    HW273084   5.027   2.447   5.983 -0.1243  0.6404 -0.3798
54706SOL     OW73085   1.409   1.204   1.158 -0.1145  0.1363  0.5161
54706SOL    HW173086   1.374   1.117   1.142  1.7338 -0.5281 -0.1535
54706SOL    HW273087   1.462   1.195   1.237  0.5277  0.4980  0.1414
54707SOL     OW73088   9.581   2.624   4.495  0.2325  0.3169 -0.3128
54707SOL    HW173089   9.639   2.643   4.422  2.1902 -0.0436  1.0677
54707SOL    HW273090   9.570   2.529   4.494 -0.9913  0.4456 -1.0075
54708SOL     OW73091  12.147   5.843   7.385 -0.4546 -0.6817 -0.2316
54708SOL    HW173092  12.232   5.818   7.420 -1.0220 -1.7660  0.4246
54708SOL    HW273093  12.150   5.816   7.293 -0.0006 -0.5097 -0.2645
54709SOL     OW73094  12.544   2.727   7.121  0.0591  0.1152 -0.5276
54709SOL    HW173095  12.518   2.814   7.091 -0.3404 -0.1384 -0.9352
54709SOL    HW273096  12.623   2.742   7.173  0.3510  0.6485 -1.1116
54710SOL     OW73097   6.477   0.904   0.807 -0.1870  0.0165  0.2631
54710SOL    HW173098   6.568   0.936   0.815  0.5696 -1.6131 -1.2491
54710SOL    HW273099   6.460   0.905   0.713 -1.2172 -1.1150  0.4295
54711SOL     OW73100  12.160   1.264   9.626 -0.5011 -0.0149 -0.4815
54711SOL    HW173101  12.077   1.224   9.652 -1.0012  0.3872 -1.3849
54711SOL    HW273102  12.135   1.325   9.556  0.8369 -1.4270 -2.2566
54712SOL     OW73103   2.067   9.069   5.551 -0.1418 -0.0554  0.0787
54712SOL    HW173104   2.047   9.092   5.642  1.2194 -0.2851  0.4638
54712SOL    HW273105   2.038   8.978   5.543  1.0193 -0.5059  0.7343
54713SOL     OW73106   6.046   6.009   2.893  0.3789  0.2793 -0.3111
54713SOL    HW173107   6.079   5.924   2.864 -0.2776  0.2140 -0.8972
54713SOL    HW273108   6.109   6.072   2.858  0.4898  0.0814 -0.4722
54714SOL     OW73109   7.290   0.399   5.239 -0.1393  0.4364  0.0144
54714SOL    HW173110   7.205   0.429   5.205  0.4778  1.2255 -0.9009
54714SOL    HW273111   7.271   0.364   5.326 -1.3876  0.6760 -0.1478
54715SOL     OW73112   3.178   8.676   3.727  0.0689 -0.0551 -0.0738
54715SOL    HW173113   3.217   8.605   3.675 -1.9327 -1.3116  0.0393
54715SOL    HW273114   3.151   8.741   3.663  0.0413 -0.3485 -0.3614
54716SOL     OW73115  10.690   4.921   5.009  0.2769  0.0014  0.1472
54716SOL    HW173116  10.686   4.995   5.069 -1.1571  1.1290 -1.2361
54716SOL    HW273117  10.757   4.863   5.045  0.2987  1.1966  2.1376
54717SOL     OW73118   3.560  12.461  11.502 -0.5255 -0.6230  0.1139
54717SOL    HW173119   3.561  12.386  11.441 -0.8449 -2.1973  1.9553
54717SOL    HW273120   3.610  12.431  11.578 -1.3132  0.7711  1.2343
54718SOL     OW73121   9.723   0.910   7.793 -0.1029  0.4528 -0.3820
54718SOL    HW173122   9.662   0.845   7.757  0.1193  0.6991 -1.2402
54718SOL    HW273123   9.789   0.858   7.838  0.1703  0.0596 -1.2134
54719SOL     OW73124   1.006  11.544  11.555 -0.5173 -0.4461  0.3243
54719SOL    HW173125   1.090  11.518  11.593  0.1058  0.4222 -0.3926
54719SOL    HW273126   1.030  11.591  11.475 -1.7459 -1.3531 -0.6171
54720SOL     OW73127   8.033   6.472   6.449  0.4118  0.7233 -0.4724
54720SOL    HW173128   7.969   6.488   6.380  0.4278  2.6381 -0.1137
54720SOL    HW273129   8.111   6.520   6.420  1.0367  0.0167  0.0089
54721SOL     OW73130  10.972   2.349   7.091  0.2316 -0.4820  0.2324
54721SOL    HW173131  11.014   2.425   7.051 -0.5054  0.0554  0.4514
54721SOL    HW273132  10.952   2.377   7.180  0.7171 -1.2301  0.5877
54722SOL     OW73133   8.895   6.641   9.349 -0.2682 -0.1619 -0.3365
54722SOL    HW173134   8.969   6.673   9.297 -0.1495  0.4070  0.1788
54722SOL    HW273135   8.935   6.601   9.426 -0.5207  0.9376  0.3801
54723SOL     OW73136   3.311   1.516   9.237  0.8768 -0.2300  0.3116
54723SOL    HW173137   3.296   1.588   9.298  0.2638  0.0176 -0.1152
54723SOL    HW273138   3.268   1.440   9.278 -1.2456  0.3645 -0.6715
54724SOL     OW73139   0.745   7.667  10.183 -1.1735 -0.1186 -0.5452
54724SOL    HW173140   0.715   7.648  10.094 -0.8683  1.2945 -0.9668
54724SOL    HW273141   0.679   7.726  10.219 -1.5917 -1.1072  0.3987
54725SOL     OW73142   1.333   9.539   0.250  0.0919 -0.3138  0.0243
54725SOL    HW173143   1.370   9.580   0.171 -1.6437 -0.3443 -0.8500
54725SOL    HW273144   1.343   9.445   0.235 -0.5258 -0.3296 -0.3257
54726SOL     OW73145   4.511  11.182   0.932 -0.0578 -0.3962 -0.5480
54726SOL    HW173146   4.472  11.140   1.009  0.5769 -1.0027 -0.5481
54726SOL    HW273147   4.439  11.189   0.869  0.1003 -2.7491 -1.0781
54727SOL     OW73148   2.792   7.974  10.127  0.0171  0.0755 -0.6125
54727SOL    HW173149   2.762   7.930  10.047 -1.8809 -0.7786  0.5101
54727SOL    HW273150   2.888   7.968  10.122 -0.1047 -2.0709 -1.6992
54728SOL     OW73151  10.177  11.359   4.313 -0.5207 -0.5281 -0.0480
54728SOL    HW173152  10.230  11.412   4.253 -0.8071  0.5429  0.6177
54728SOL    HW273153  10.098  11.338   4.263  0.1929 -1.5518 -0.8058
54729SOL     OW73154   1.263   1.828   8.548 -0.0882  0.3480  0.3535
54729SOL    HW173155   1.193   1.814   8.485  0.2144  0.0645  0.0756
54729SOL    HW273156   1.221   1.821   8.634 -0.6570  1.5107  0.1928
54730SOL     OW73157   1.898  11.806   7.550 -0.2177  0.0017  0.0250
54730SOL    HW173158   1.963  11.844   7.491 -0.5574  1.1686  0.3746
54730SOL    HW273159   1.821  11.793   7.496 -0.0622 -0.3026 -0.1241
54731SOL     OW73160   3.829   5.554  10.154  0.0870  0.1863 -0.1340
54731SOL    HW173161   3.787   5.470  10.172 -0.5764  0.7522  1.1201
54731SOL    HW273162   3.921   5.533  10.138  0.0627 -0.7133  0.8320
54732SOL     OW73163   4.750   4.149  10.575 -0.8022  0.1939  0.2580
54732SOL    HW173164   4.788   4.142  10.662  0.6308  0.3028 -0.3230
54732SOL    HW273165   4.743   4.058  10.545 -1.1336  0.1670  0.4074
54733SOL     OW73166  10.204   4.345   8.621 -0.8707  0.4052  0.3379
54733SOL    HW173167  10.261   4.271   8.598  0.9658  1.7336  0.3379
54733SOL    HW273168  10.119   4.323   8.583 -0.4548 -1.7878  0.5240
54734SOL     OW73169   7.587   5.166   3.508  0.1700  0.0503  0.1608
54734SOL    HW173170   7.510   5.222   3.492 -0.5950 -1.1879 -0.6441
54734SOL    HW273171   7.623   5.151   3.421 -0.0699 -1.2835  0.2718
54735SOL     OW73172   6.279   1.031   0.925  0.1397 -0.2497  0.4582
54735SOL    HW173173   6.221   0.964   0.959 -1.8853  0.5390 -1.2029
54735SOL    HW273174   6.358   0.983   0.898 -1.1270 -1.9496 -0.4273
54736SOL     OW73175  12.258   5.642  10.330 -0.2277 -0.0958  0.1258
54736SOL    HW173176  12.345   5.635  10.370 -0.5723 -2.1707  0.6176
54736SOL    HW273177  12.247   5.736  10.313  2.2872  0.1769 -0.3923
54737SOL     OW73178   0.091   8.963   8.272 -0.3687  0.0815  0.4552
54737SOL    HW173179   0.178   8.946   8.236 -0.8390  0.3199 -0.8910
54737SOL    HW273180   0.031   8.914   8.214 -1.1123 -0.3644  1.5623
54738SOL     OW73181   6.657   5.282   2.962  0.5376 -0.2204 -0.0077
54738SOL    HW173182   6.629   5.326   3.043 -1.0045 -0.8636 -0.1649
54738SOL    HW273183   6.642   5.347   2.893  3.1312  0.8467  0.2862
54739SOL     OW73184   7.603   8.102   0.370  0.2440  0.7383 -0.6336
54739SOL    HW173185   7.598   8.114   0.464  1.5969 -0.8320 -0.3085
54739SOL    HW273186   7.516   8.069   0.345  0.3654 -0.3575  0.3370
54740SOL     OW73187   6.121   9.839  10.682 -0.7340  0.3578  0.1543
54740SOL    HW173188   6.069   9.860  10.759 -1.8926  0.5917 -0.6759
54740SOL    HW273189   6.212   9.852  10.710 -1.2236  3.6435  0.5724
54741SOL     OW73190   0.851   8.360   5.579 -0.5062 -0.6831 -0.0377
54741SOL    HW173191   0.892   8.439   5.616  0.0655 -0.5349 -0.9658
54741SOL    HW273192   0.882   8.289   5.635  0.3238 -0.4604 -0.2033
54742SOL     OW73193   7.544  11.443   6.010  0.0035 -0.3425  0.3612
54742SOL    HW173194   7.563  11.436   5.917 -0.1963  2.8645 -0.0366
54742SOL    HW273195   7.450  11.428   6.017  0.0965 -1.0897  0.1673
54743SOL     OW73196  12.336   4.498   7.744  0.0799 -0.3207  0.0984
54743SOL    HW173197  12.294   4.579   7.774 -0.1643 -0.8846  1.3755
54743SOL    HW273198  12.424   4.501   7.782  0.6114  0.0430 -1.1219
54744SOL     OW73199   0.685   4.672   6.880 -0.6908 -0.6753 -0.6099
54744SOL    HW173200   0.755   4.681   6.815  0.5502  0.7630  0.8363
54744SOL    HW273201   0.726   4.625   6.953 -1.4607 -0.5025 -0.0613
54745SOL     OW73202   5.782   0.666   4.303 -0.1439  0.3602  0.1585
54745SOL    HW173203   5.758   0.723   4.376 -0.8636  1.2775 -0.7553
54745SOL    HW273204   5.822   0.725   4.239 -0.6280 -0.2032 -0.6869
54746SOL     OW73205   1.760   2.358   3.418  0.0135 -0.2797  0.2476
54746SOL    HW173206   1.748   2.270   3.382 -3.9971  0.4458 -0.6069
54746SOL    HW273207   1.833   2.395   3.368 -0.1242 -2.1305 -1.4284
54747SOL     OW73208   0.376   2.185   8.054  0.7339  0.1123 -0.1870
54747SOL    HW173209   0.306   2.250   8.046  1.2036  0.4767 -1.7593
54747SOL    HW273210   0.456   2.236   8.068  0.9749 -0.1727 -0.4965
54748SOL     OW73211   4.128   3.806  10.526  0.5524 -0.5193 -0.3407
54748SOL    HW173212   4.157   3.722  10.490  0.4621 -0.4872 -0.4883
54748SOL    HW273213   4.209   3.853  10.547  0.6775 -1.7305  2.3608
54749SOL     OW73214   4.287   4.977   2.008  0.4424 -0.4235  0.1859
54749SOL    HW173215   4.349   4.932   1.951 -0.6631  0.6825 -2.0005
54749SOL    HW273216   4.202   4.965   1.965 -0.1710  2.0484  0.5805
54750SOL     OW73217  11.188  10.217   7.400 -0.0640 -0.4288 -0.0311
54750SOL    HW173218  11.161  10.195   7.489 -2.3799  1.2003 -0.2478
54750SOL    HW273219  11.268  10.166   7.386 -0.5616 -2.0181  2.3490
54751SOL     OW73220   1.813   5.779   6.787 -0.1177 -0.5467 -0.1689
54751SOL    HW173221   1.798   5.866   6.751 -0.0507 -0.0472  0.9831
54751SOL    HW273222   1.735   5.729   6.763 -1.3185  0.5533  1.2973
54752SOL     OW73223   8.703   2.938   6.543 -0.4577 -0.5425 -0.0160
54752SOL    HW173224   8.648   3.008   6.577 -0.6943 -1.0721  0.7337
54752SOL    HW273225   8.791   2.959   6.573 -0.2236  0.3316 -1.2555
54753SOL     OW73226   8.482   1.530   0.556  0.0515  0.6190  0.2733
54753SOL    HW173227   8.441   1.610   0.524  0.0867  0.1559 -0.9801
54753SOL    HW273228   8.570   1.532   0.520 -0.2198 -0.3846 -0.4969
54754SOL     OW73229   2.127   9.302   4.402  0.3665 -0.1301 -0.0839
54754SOL    HW173230   2.067   9.287   4.475 -1.2674  1.4973 -1.0231
54754SOL    HW273231   2.189   9.367   4.435 -0.9909  1.3876 -0.4086
54755SOL     OW73232   9.837   3.798   4.193  0.2516 -0.1333 -0.0597
54755SOL    HW173233   9.917   3.747   4.183  0.5768  0.6083 -1.4188
54755SOL    HW273234   9.767   3.741   4.161  0.3842 -0.3467  0.0256
54756SOL     OW73235  11.055  11.583   9.690 -0.0494 -0.0974 -0.2012
54756SOL    HW173236  11.046  11.614   9.600 -1.6010  1.3262  0.4078
54756SOL    HW273237  11.149  11.564   9.698 -0.0448 -1.4864 -2.4692
54757SOL     OW73238   2.144  11.740   0.670  0.0574  0.2704  0.0347
54757SOL    HW173239   2.133  11.676   0.599 -0.1341 -1.1023  1.2407
54757SOL    HW273240   2.083  11.710   0.737  0.8147  1.0713  1.0980
54758SOL     OW73241  10.959  10.513   3.702 -0.3521  0.3891  0.1061
54758SOL    HW173242  10.920  10.426   3.689 -1.2787  0.6123  1.2198
54758SOL    HW273243  10.886  10.573   3.691  0.3320  1.0650 -0.8771
54759SOL     OW73244   2.458   7.889   6.379  0.0214  0.3173  0.3461
54759SOL    HW173245   2.424   7.815   6.429 -2.5157  2.2639  1.7081
54759SOL    HW273246   2.455   7.963   6.440  1.9637  1.7252 -1.1202
54760SOL     OW73247   0.491   6.270   8.642  0.4209  0.5761  0.0662
54760SOL    HW173248   0.407   6.299   8.607  0.5915  1.2266  0.1804
54760SOL    HW273249   0.547   6.347   8.636  1.6515 -0.4054 -1.9768
54761SOL     OW73250   2.892  10.683   9.459  0.2037  0.2975  0.2664
54761SOL    HW173251   2.845  10.606   9.491 -0.5709  0.6269 -0.0502
54761SOL    HW273252   2.823  10.747   9.440  0.7780  0.7569 -0.3138
54762SOL     OW73253  10.501   9.687   4.735 -0.0135  0.8074 -0.6230
54762SOL    HW173254  10.572   9.658   4.678 -1.4516 -1.3011 -1.4691
54762SOL    HW273255  10.441   9.734   4.676 -0.3423  0.7444 -0.3415
54763SOL     OW73256  10.905   5.679   5.835  0.2060 -0.0550  0.4316
54763SOL    HW173257  10.813   5.688   5.811  0.2956 -0.0770  0.0746
54763SOL    HW273258  10.926   5.588   5.814 -0.0618 -0.4488  1.8207
54764SOL     OW73259   4.637   1.140   8.202  0.4767  0.4270 -0.5700
54764SOL    HW173260   4.676   1.070   8.255 -1.0777 -0.2720 -0.2970
54764SOL    HW273261   4.605   1.095   8.123 -1.0093  0.7025 -0.1525
54765SOL     OW73262   1.773   7.554   4.600  0.1879  0.4159  0.1387
54765SOL    HW173263   1.797   7.501   4.676  0.1360  2.1055  1.4099
54765SOL    HW273264   1.714   7.621   4.636  1.0496  1.9489 -1.1626
54766SOL     OW73265  12.124   0.566  12.052 -0.8661 -0.0274 -0.1760
54766SOL    HW173266  12.186   0.615  12.107  0.5505 -0.6604 -1.1442
54766SOL    HW273267  12.043   0.615  12.058 -0.1982  1.0061  0.9205
54767SOL     OW73268   4.931   3.699   9.025  0.2730 -0.3080  0.6200
54767SOL    HW173269   5.009   3.751   9.046  0.2204 -0.2946  0.7870
54767SOL    HW273270   4.965   3.614   8.999  0.3672 -0.1462  0.2083
54768SOL     OW73271   8.464   5.914   5.036  0.3624  0.1747 -0.1828
54768SOL    HW173272   8.522   5.939   5.108 -0.3588  1.2769  0.0376
54768SOL    HW273273   8.480   5.821   5.024 -0.3367 -0.3261  2.2032
54769SOL     OW73274   9.389   4.374   7.004 -0.7015  0.2824 -0.0216
54769SOL    HW173275   9.313   4.368   7.062 -0.0639  0.1254  0.8220
54769SOL    HW273276   9.445   4.300   7.030  0.8032  1.6988  0.9897
54770SOL     OW73277  11.566   6.283   2.275 -0.7281  0.3182  0.2244
54770SOL    HW173278  11.592   6.298   2.366  1.1243 -0.3446 -0.1504
54770SOL    HW273279  11.535   6.192   2.274 -2.5324  0.8828  0.5191
54771SOL     OW73280   6.054   4.597   8.699 -0.2520 -0.1391  0.1167
54771SOL    HW173281   6.113   4.595   8.624 -0.5114  1.2818 -0.1608
54771SOL    HW273282   5.966   4.600   8.660 -0.5351 -2.1577  0.5204
54772SOL     OW73283   1.372   7.785   7.872  0.2077 -0.6085 -0.2468
54772SOL    HW173284   1.292   7.799   7.923 -1.2103 -3.7041 -1.3796
54772SOL    HW273285   1.358   7.837   7.792 -1.1020 -1.7427 -0.7887
54773SOL     OW73286   5.855   8.099  11.872  0.2542 -0.1687  0.1022
54773SOL    HW173287   5.838   8.089  11.778 -0.6071  0.2165  0.2120
54773SOL    HW273288   5.910   8.024  11.894 -0.5108 -0.9182 -0.4774
54774SOL     OW73289   5.822   3.860   0.736 -0.3339 -0.2114 -0.3702
54774SOL    HW173290   5.845   3.890   0.824  0.1513 -0.6387 -0.3438
54774SOL    HW273291   5.757   3.791   0.750  1.4115 -1.9225 -0.1732
54775SOL     OW73292   8.289   5.176  10.840  0.7927  0.1353  0.1144
54775SOL    HW173293   8.379   5.174  10.807  0.4148 -1.1535 -0.9279
54775SOL    HW273294   8.248   5.099  10.801 -0.4867  0.1377  1.3838
54776SOL     OW73295   4.555   1.061   0.637 -0.0028  0.3231  0.1720
54776SOL    HW173296   4.568   1.053   0.543 -0.0414  1.0142  0.1048
54776SOL    HW273297   4.470   1.020   0.653  0.1326 -0.0508 -0.0489
54777SOL     OW73298   4.919   4.725  10.463 -0.0291 -0.3141  0.8168
54777SOL    HW173299   4.874   4.689  10.386 -0.2178  0.0045  0.7745
54777SOL    HW273300   4.850   4.772  10.510  0.0711 -0.5694  1.2200
54778SOL     OW73301   9.224   9.455   3.664  0.3155 -0.1483  0.6309
54778SOL    HW173302   9.213   9.519   3.594  1.6401 -0.0534  0.4841
54778SOL    HW273303   9.295   9.398   3.634 -0.5318 -1.4278  0.9613
54779SOL     OW73304  10.229   5.557   9.831  0.6844  0.0818  0.1217
54779SOL    HW173305  10.310   5.527   9.872  0.7176  0.9278  0.7039
54779SOL    HW273306  10.255   5.632   9.778  0.8020 -1.5265 -2.2695
54780SOL     OW73307   0.430   4.689   2.128  0.0891  0.2120  0.0234
54780SOL    HW173308   0.486   4.665   2.054 -1.2475 -2.6428 -0.2210
54780SOL    HW273309   0.346   4.712   2.088 -0.9357 -2.2532  0.5330
54781SOL     OW73310   8.242   8.313   8.247 -0.3944 -0.3860  0.3182
54781SOL    HW173311   8.305   8.340   8.180  3.2050 -1.3612  2.9658
54781SOL    HW273312   8.201   8.235   8.211 -0.7984  0.7609 -1.8755
54782SOL     OW73313   4.197   0.226  10.455  0.7386 -0.1501 -0.1642
54782SOL    HW173314   4.285   0.229  10.493  0.6131 -0.3777  0.1516
54782SOL    HW273315   4.163   0.140  10.478  0.3730 -0.0063 -0.1481
54783SOL     OW73316   9.907   3.769   3.287 -0.1200  0.0361  0.3558
54783SOL    HW173317   9.956   3.836   3.239  0.8055  0.7369  2.2040
54783SOL    HW273318   9.963   3.692   3.285  0.5770  0.4949  1.4928
54784SOL     OW73319   5.744   2.488   7.876  0.5448 -0.1721 -0.0832
54784SOL    HW173320   5.702   2.549   7.937  1.8824  0.8299 -0.1086
54784SOL    HW273321   5.691   2.493   7.797  0.3183  0.5500  0.1041
54785SOL     OW73322  12.060   2.185   6.648 -0.1086 -0.4403  0.3669
54785SOL    HW173323  12.122   2.258   6.646 -0.5262 -0.0302  1.5336
54785SOL    HW273324  12.017   2.188   6.563  0.8841 -0.2135 -0.1386
54786SOL     OW73325   1.722   9.938   8.823  0.4727 -0.5360  0.1792
54786SOL    HW173326   1.766   9.893   8.751  0.6182 -0.1336  0.0133
54786SOL    HW273327   1.669  10.005   8.779 -0.9164 -1.4988  0.3053
54787SOL     OW73328   9.422  11.975   8.655  0.6250 -0.2100 -0.1833
54787SOL    HW173329   9.506  11.956   8.698  0.9325  4.0542  1.6419
54787SOL    HW273330   9.356  11.953   8.721  0.5596 -0.4232 -0.3195
54788SOL     OW73331   2.349   6.306   4.199 -0.3374 -0.3905 -0.2460
54788SOL    HW173332   2.439   6.326   4.222 -0.4376 -0.7517  0.5103
54788SOL    HW273333   2.305   6.391   4.194 -0.3740 -0.2861  1.2503
54789SOL     OW73334  10.977  12.028   1.468 -0.3222 -0.7681  0.1197
54789SOL    HW173335  10.905  11.983   1.513  0.4671 -2.4498 -0.2092
54789SOL    HW273336  10.949  12.034   1.377 -0.2647 -0.9802  0.0864
54790SOL     OW73337   4.069   5.731   0.814  0.3548  0.4105  0.4299
54790SOL    HW173338   4.002   5.682   0.861  0.3632 -1.3599 -1.2601
54790SOL    HW273339   4.135   5.666   0.791  0.6219  1.2662 -1.4894
54791SOL     OW73340   8.663   9.210   5.347 -0.0244  0.2185  0.5142
54791SOL    HW173341   8.686   9.141   5.285 -0.2560 -2.3344  3.0713
54791SOL    HW273342   8.746   9.237   5.385  0.1887  2.2140 -1.1684
54792SOL     OW73343  11.334   1.502  10.077  0.0213 -0.0470 -0.2027
54792SOL    HW173344  11.286   1.577  10.111  0.9098  0.0326  0.9009
54792SOL    HW273345  11.274   1.428  10.088 -0.7514  0.4364 -1.0439
54793SOL     OW73346   3.479   2.726   4.992  0.5942 -0.2651  0.0816
54793SOL    HW173347   3.499   2.812   4.954 -0.5648  0.7636  1.6307
54793SOL    HW273348   3.564   2.692   5.020  1.1709 -0.0034 -1.2639
54794SOL     OW73349   9.525   1.305   6.225  0.1321  0.3564 -0.0356
54794SOL    HW173350   9.451   1.258   6.188  0.6239 -0.0024 -0.5785
54794SOL    HW273351   9.498   1.326   6.315 -0.6146  0.2196 -0.2234
54795SOL     OW73352   7.589   6.701   2.508  0.2908 -0.0006 -0.5785
54795SOL    HW173353   7.600   6.679   2.416 -1.7182  0.7151 -1.0261
54795SOL    HW273354   7.568   6.795   2.508 -1.1861 -0.2958  0.4540
54796SOL     OW73355   4.499   1.618   6.615 -0.2367 -0.2042 -0.7739
54796SOL    HW173356   4.488   1.626   6.709 -0.8287 -0.7012 -0.7951
54796SOL    HW273357   4.555   1.541   6.603 -1.7581 -1.3389 -0.8831
54797SOL     OW73358   7.502  10.334   3.551 -0.0492 -0.0040 -0.6310
54797SOL    HW173359   7.454  10.252   3.541 -0.1111  0.0250 -0.5580
54797SOL    HW273360   7.490  10.358   3.642  0.8909 -0.4938 -0.3588
54798SOL     OW73361  10.335   0.270  11.373 -0.3822  0.4539 -0.0428
54798SOL    HW173362  10.426   0.302  11.378 -0.3888  0.5795 -0.6243
54798SOL    HW273363  10.329   0.229  11.287 -0.2019 -1.7132  0.9246
54799SOL     OW73364   8.301   3.962   9.260 -0.0965  0.4618 -0.1300
54799SOL    HW173365   8.357   3.930   9.189 -1.7635 -3.3720  0.0100
54799SOL    HW273366   8.222   3.993   9.216 -1.6520 -3.0637 -0.1354
54800SOL     OW73367   3.243   7.200  12.508  0.3514 -0.3091  0.0988
54800SOL    HW173368   3.222   7.294  12.509  2.2143  0.1666  1.3851
54800SOL    HW273369   3.258   7.178  12.600  1.3019 -1.5179 -0.3111
54801SOL     OW73370  11.416   7.158   7.515 -0.6681  0.0723 -0.1096
54801SOL    HW173371  11.339   7.103   7.499 -0.5341 -0.1590  0.0485
54801SOL    HW273372  11.401   7.196   7.601 -0.2136 -0.6250  0.2842
54802SOL     OW73373   7.657   5.886   6.087 -0.1892 -0.4688 -0.6270
54802SOL    HW173374   7.638   5.886   6.181 -0.2948 -0.1729 -0.6481
54802SOL    HW273375   7.585   5.836   6.049 -0.2090 -0.4892 -0.5634
54803SOL     OW73376  11.398  10.680   3.716 -0.2290 -0.4569  0.2007
54803SOL    HW173377  11.419  10.715   3.629  0.4151 -2.7793 -0.6662
54803SOL    HW273378  11.341  10.605   3.698 -0.1862 -0.9069  1.7931
54804SOL     OW73379   6.563   1.714   8.839 -0.1213 -0.0653 -0.8155
54804SOL    HW173380   6.588   1.727   8.930 -2.4400  0.5389 -0.1818
54804SOL    HW273381   6.629   1.761   8.788  0.7821  0.2266  0.5939
54805SOL     OW73382  11.742  11.072  10.709  0.1757  0.1031  0.5245
54805SOL    HW173383  11.773  11.107  10.625  1.9118 -0.2761  0.9642
54805SOL    HW273384  11.647  11.069  10.700  0.1138  2.6140 -0.4261
54806SOL     OW73385   2.148   9.971   6.256  0.1730 -0.2705 -0.1511
54806SOL    HW173386   2.087   9.982   6.329  0.1609 -1.4546  0.0530
54806SOL    HW273387   2.104   9.910   6.198  1.3993 -1.6862  0.3236
54807SOL     OW73388   4.739   2.792   8.048 -0.1628 -0.5278 -0.2748
54807SOL    HW173389   4.674   2.783   7.979  0.8838 -0.9566 -1.2401
54807SOL    HW273390   4.821   2.808   8.001  0.2978  0.8335  0.9361
54808SOL     OW73391   2.252   3.751   4.652 -0.0164  0.1940  0.5280
54808SOL    HW173392   2.331   3.792   4.688 -0.4243  0.8458  0.6976
54808SOL    HW273393   2.280   3.663   4.626  0.6178  0.2003  1.1660
54809SOL     OW73394  12.345   7.199   5.803  0.8192  0.4884 -0.4873
54809SOL    HW173395  12.429   7.160   5.778  1.9617  2.6498 -0.2671
54809SOL    HW273396  12.361   7.294   5.803 -2.2803  1.1965 -2.7932
54810SOL     OW73397   0.272   1.644  12.512 -0.4592 -0.5441  0.4903
54810SOL    HW173398   0.268   1.583  12.438  2.0856 -0.0764 -0.1251
54810SOL    HW273399   0.305   1.591  12.585  0.6054 -0.2229  0.2663
54811SOL     OW73400   5.904   6.119   4.294  0.1093 -0.3574  0.2021
54811SOL    HW173401   5.979   6.133   4.237  0.0129  0.6462  0.3093
54811SOL    HW273402   5.928   6.160   4.376 -0.8068  0.5597  0.0318
54812SOL     OW73403   0.944  10.372   3.717  0.0116 -0.0754 -0.4520
54812SOL    HW173404   0.967  10.460   3.747 -1.6982  0.7162 -1.2958
54812SOL    HW273405   0.859  10.354   3.758 -1.2695  0.0953 -2.8501
54813SOL     OW73406   5.742   2.369   3.616  0.1647  0.2790  0.2877
54813SOL    HW173407   5.824   2.407   3.647  0.0848 -0.9205  2.1904
54813SOL    HW273408   5.764   2.328   3.533  0.5908  3.0614 -1.0603
54814SOL     OW73409  10.593   5.118  11.469 -0.0401  0.7133 -0.9725
54814SOL    HW173410  10.500   5.100  11.484  0.0389 -0.2564 -1.5356
54814SOL    HW273411  10.594   5.176  11.393 -0.2407  2.1699  0.0828
54815SOL     OW73412   4.975   4.087   7.264  0.4741  0.3096 -0.2866
54815SOL    HW173413   4.987   4.156   7.329 -1.1590  0.1146  0.2841
54815SOL    HW273414   4.995   4.006   7.311 -0.8756  0.1538  0.0795
54816SOL     OW73415   2.288   3.010   8.192  0.3063  0.2257  0.7321
54816SOL    HW173416   2.282   2.915   8.183 -2.0670  0.5357 -2.0890
54816SOL    HW273417   2.371   3.033   8.150 -0.7049 -0.3791 -1.7426
54817SOL     OW73418   1.966   0.513   2.544 -0.0402  0.1650 -0.8032
54817SOL    HW173419   1.937   0.570   2.472 -0.1977 -0.5563 -1.3232
54817SOL    HW273420   1.887   0.497   2.595 -0.0671  0.1209 -0.8590
54818SOL     OW73421  10.900   8.365   7.507 -0.3653 -0.0309  0.2711
54818SOL    HW173422  10.870   8.343   7.420  1.5465 -1.5295 -0.0802
54818SOL    HW273423  10.913   8.281   7.551  2.0364  0.4920  0.7537
54819SOL     OW73424   1.625   2.711   6.339  0.0931 -0.4043 -0.1175
54819SOL    HW173425   1.623   2.770   6.264  0.0633 -1.1196 -0.6960
54819SOL    HW273426   1.702   2.738   6.390 -0.2751  0.5190 -0.0341
54820SOL     OW73427   4.098   0.268   5.958  0.5167  0.1882  0.4426
54820SOL    HW173428   4.028   0.259   5.894  0.8293 -0.2249  0.1490
54820SOL    HW273429   4.106   0.180   5.996  0.2992  0.4430  1.0815
54821SOL     OW73430   2.396  11.951   0.646  1.0591  0.0155 -0.1392
54821SOL    HW173431   2.324  11.895   0.674  2.3894 -0.5865  2.3714
54821SOL    HW273432   2.472  11.893   0.645  1.4786  0.4242 -3.5590
54822SOL     OW73433   0.244   0.948   0.352  0.2129  0.1077  0.3369
54822SOL    HW173434   0.176   0.963   0.286 -0.7788 -0.4696  1.2002
54822SOL    HW273435   0.309   0.893   0.307  0.2469  0.8667 -0.5685
54823SOL     OW73436   6.422  10.310   1.019  0.2020  0.4073 -0.3924
54823SOL    HW173437   6.495  10.250   1.030 -0.0521 -0.1725 -1.6529
54823SOL    HW273438   6.459  10.385   0.972  0.2292  0.6205 -0.0294
54824SOL     OW73439   3.227   2.732   5.076 -0.2925 -0.5018  0.4675
54824SOL    HW173440   3.178   2.752   4.996 -1.6807 -0.6458  1.2476
54824SOL    HW273441   3.318   2.724   5.047 -0.5753  0.7157 -0.8816
54825SOL     OW73442   3.054   8.519  11.677 -0.2607 -0.0559 -0.1629
54825SOL    HW173443   3.034   8.584  11.744 -0.6554 -1.1420  0.8060
54825SOL    HW273444   3.051   8.568  11.594 -0.1850  1.2149  0.5602
54826SOL     OW73445   4.162   7.373   9.225  0.1577 -0.6764 -0.5644
54826SOL    HW173446   4.161   7.359   9.130 -0.9948 -1.2284 -0.4873
54826SOL    HW273447   4.076   7.344   9.254  1.0988 -2.1610  0.9001
54827SOL     OW73448   7.650   4.668   8.809  0.4347 -0.2668  0.6826
54827SOL    HW173449   7.600   4.653   8.728  1.4782  1.6269 -0.3545
54827SOL    HW273450   7.716   4.599   8.809 -0.7245 -1.4220  0.9226
54828SOL     OW73451  11.738   1.115  11.807  0.0162  0.0348  0.6264
54828SOL    HW173452  11.828   1.088  11.790 -0.9262 -3.0550 -0.0197
54828SOL    HW273453  11.708   1.057  11.877 -1.5640  0.8130  0.6464
54829SOL     OW73454   8.790   6.981   1.866 -0.0112 -0.5827  0.0708
54829SOL    HW173455   8.706   6.997   1.909  0.5827  0.2044  1.0064
54829SOL    HW273456   8.797   7.050   1.800 -0.5647 -1.3047 -0.7672
54830SOL     OW73457   6.595  10.732  11.022  0.1888 -0.2244 -0.0794
54830SOL    HW173458   6.573  10.778  11.104 -0.2886 -1.8612  0.7440
54830SOL    HW273459   6.679  10.690  11.040  0.5726  0.2100 -0.7985
54831SOL     OW73460   7.516   5.457   2.289  0.4377 -0.4293 -0.4425
54831SOL    HW173461   7.449   5.516   2.256  1.1302  0.7102  0.1190
54831SOL    HW273462   7.548   5.411   2.212  1.0903  1.2060 -1.1976
54832SOL     OW73463   0.825   9.593   3.246 -0.4327 -0.4599 -0.3208
54832SOL    HW173464   0.904   9.571   3.295 -0.9769 -2.9380 -0.4282
54832SOL    HW273465   0.766   9.519   3.262 -2.2911  0.7746 -1.1770
54833SOL     OW73466   8.757   5.697   4.718  0.3161  0.2325 -0.4363
54833SOL    HW173467   8.838   5.646   4.719 -0.7351 -1.5289 -0.1809
54833SOL    HW273468   8.701   5.652   4.655 -1.5720 -0.4896  1.6323
54834SOL     OW73469  12.112   1.153   8.375 -0.0385 -0.1101  0.4745
54834SOL    HW173470  12.190   1.099   8.365 -1.2748 -1.7360 -0.9972
54834SOL    HW273471  12.040   1.091   8.382 -1.2630  1.3522  1.4691
54835SOL     OW73472   0.708   5.582   4.543  0.4417 -0.1365 -0.1911
54835SOL    HW173473   0.681   5.490   4.551 -0.6859  0.2043  0.0884
54835SOL    HW273474   0.769   5.583   4.469 -0.7859 -0.8539 -1.2436
54836SOL     OW73475   6.759   5.633   7.599  0.7146 -0.1101  0.4287
54836SOL    HW173476   6.687   5.694   7.617  1.3239  0.2328  1.8563
54836SOL    HW273477   6.725   5.574   7.532  0.0959  1.7856 -1.0296
54837SOL     OW73478   6.122  11.462   1.287 -0.8001  0.0949  0.0140
54837SOL    HW173479   6.159  11.529   1.343  1.7491 -2.4443  1.6820
54837SOL    HW273480   6.177  11.463   1.208  0.5800 -1.2100  0.8947
54838SOL     OW73481   5.493   8.360   9.366  0.8357  0.4959 -0.1687
54838SOL    HW173482   5.448   8.444   9.356  0.1481  0.3507  1.4647
54838SOL    HW273483   5.568   8.380   9.422 -1.1530 -0.4770  3.1117
54839SOL     OW73484   4.746   0.979  12.141  0.4550 -0.1445 -0.2775
54839SOL    HW173485   4.771   0.888  12.131  0.7520 -0.0513 -0.3700
54839SOL    HW273486   4.689   0.980  12.218 -1.2089 -0.7377 -1.4455
54840SOL     OW73487   8.014   6.768  12.134  0.2895 -0.3279 -0.8493
54840SOL    HW173488   7.921   6.793  12.138  0.0135 -1.3034 -0.9089
54840SOL    HW273489   8.049   6.794  12.219 -0.0881 -0.1208 -0.7540
54841SOL     OW73490   7.508   5.601   0.541  0.1023 -0.1781 -0.5542
54841SOL    HW173491   7.579   5.572   0.598 -1.2814  0.0314  1.3679
54841SOL    HW273492   7.553   5.643   0.467  1.9944 -1.9638 -0.5208
54842SOL     OW73493  10.926   8.099   6.885  0.5011 -0.4103 -0.0408
54842SOL    HW173494  10.961   8.012   6.867  0.8230 -0.3670  0.3513
54842SOL    HW273495  10.907   8.136   6.799  1.8199 -0.2807 -0.2981
54843SOL     OW73496   6.055   5.441   0.621  0.6972 -0.4113  0.1782
54843SOL    HW173497   6.044   5.351   0.652  1.3586 -0.6521 -0.2544
54843SOL    HW273498   6.138   5.469   0.659  1.4965 -0.6976 -1.2899
54844SOL     OW73499   2.931   4.062  12.435 -0.2679 -0.4063  0.8727
54844SOL    HW173500   2.837   4.078  12.447  0.0045  0.5374  2.0003
54844SOL    HW273501   2.937   4.008  12.357 -1.6938  0.3153  0.2303
54845SOL     OW73502   7.220   7.512   7.963 -0.7973  0.3956  0.0271
54845SOL    HW173503   7.168   7.501   8.043 -0.2565  2.6006  0.7457
54845SOL    HW273504   7.213   7.606   7.943  4.0619  1.2245  1.0263
54846SOL     OW73505  11.262   8.449   2.373 -0.8329  0.5009  0.1956
54846SOL    HW173506  11.228   8.363   2.399  0.6362 -0.1939 -0.1110
54846SOL    HW273507  11.199   8.480   2.307 -0.5583 -1.0577 -0.8524
54847SOL     OW73508   4.358   7.706   8.812 -0.6395 -0.0594 -0.8340
54847SOL    HW173509   4.417   7.739   8.743 -1.2250 -0.9674 -1.8057
54847SOL    HW273510   4.381   7.614   8.821 -1.8919 -0.4323 -1.2304
54848SOL     OW73511  11.690   5.169   0.903  0.5839  0.7925 -0.0358
54848SOL    HW173512  11.774   5.159   0.858  0.1579 -0.5258 -0.6040
54848SOL    HW273513  11.636   5.218   0.841  0.1174 -0.6983 -0.8929
54849SOL     OW73514   5.349   6.214   5.035 -0.1716  0.1816  0.9979
54849SOL    HW173515   5.259   6.210   5.068 -0.4034 -0.1428  0.3369
54849SOL    HW273516   5.376   6.123   5.029 -0.3018  0.2039 -0.1438
54850SOL     OW73517   8.480  11.246   4.542 -0.4527  0.3087 -0.0518
54850SOL    HW173518   8.490  11.192   4.620 -0.0879  1.5268  0.7668
54850SOL    HW273519   8.406  11.303   4.562 -0.2125  0.7879 -0.5058
54851SOL     OW73520   3.114  12.081   2.730 -0.1963 -0.1352 -0.4225
54851SOL    HW173521   3.029  12.051   2.763 -0.3102  0.0665 -0.5320
54851SOL    HW273522   3.118  12.174   2.753 -0.7886  0.3144 -1.9936
54852SOL     OW73523   9.944  10.227   9.527  0.0010  0.1576 -0.2935
54852SOL    HW173524   9.853  10.249   9.511 -0.1090  1.0711  1.3722
54852SOL    HW273525   9.982  10.216   9.440 -1.8399 -0.9602 -1.0058
54853SOL     OW73526   1.829   0.472  12.025 -0.2547  0.1077 -0.4791
54853SOL    HW173527   1.872   0.477  12.110 -1.0600  1.3542 -0.1151
54853SOL    HW273528   1.832   0.379  12.001  1.5332 -0.0023  0.0793
54854SOL     OW73529   7.816   0.465   1.966  0.5600  0.2042  0.0762
54854SOL    HW173530   7.823   0.530   1.896 -3.4745  1.0078  0.1582
54854SOL    HW273531   7.829   0.515   2.046 -2.4203  1.0952  0.1329
54855SOL     OW73532   5.883   6.441  12.337 -0.0269 -0.0097  0.0216
54855SOL    HW173533   5.937   6.370  12.369  0.7214  0.2683 -0.5842
54855SOL    HW273534   5.830   6.468  12.412  2.6465  1.5591  1.4960
54856SOL     OW73535   5.864   8.707   0.890  0.0810 -0.2520 -0.5805
54856SOL    HW173536   5.778   8.733   0.924 -0.2970 -0.6318 -1.2337
54856SOL    HW273537   5.876   8.617   0.923  1.0021  0.3794  0.9461
54857SOL     OW73538   3.231   9.471   0.494  0.4773  0.7060 -1.0179
54857SOL    HW173539   3.292   9.506   0.559 -1.5377  0.3904  1.1981
54857SOL    HW273540   3.243   9.376   0.500 -0.9367  0.5717  0.2723
54858SOL     OW73541   9.256   4.533   8.675 -0.1626  0.0431 -0.0700
54858SOL    HW173542   9.314   4.580   8.614 -0.5769 -0.1458 -0.6221
54858SOL    HW273543   9.207   4.473   8.619  0.9987 -1.7385  0.7161
54859SOL     OW73544   9.862  12.091  11.445  0.0993 -0.1083  0.0724
54859SOL    HW173545   9.940  12.096  11.391 -1.2683  0.4328 -1.9622
54859SOL    HW273546   9.792  12.066  11.384 -1.4475  0.0770  1.6857
54860SOL     OW73547  11.579   9.863  12.562 -0.1309  0.2548 -0.0321
54860SOL    HW173548  11.667   9.834  12.538 -0.7961  0.3850 -3.0541
54860SOL    HW273549  11.556   9.928  12.496 -2.3505  0.5381  0.9135
54861SOL     OW73550   6.583   0.735   8.338 -0.1368 -0.1366  0.0426
54861SOL    HW173551   6.649   0.683   8.386 -1.1114 -1.8075 -0.3224
54861SOL    HW273552   6.538   0.785   8.407  1.0000  0.4408  0.3829
54862SOL     OW73553  11.616   7.643   0.199 -0.4785  0.2270 -0.3365
54862SOL    HW173554  11.523   7.627   0.218 -0.3094  1.1442  1.4187
54862SOL    HW273555  11.616   7.716   0.138 -0.9242 -0.1138 -0.7491
54863SOL     OW73556   2.487   9.245   6.396 -0.4480 -0.3107  0.7259
54863SOL    HW173557   2.407   9.285   6.363  1.1010  1.9165 -0.5544
54863SOL    HW273558   2.523   9.197   6.322  1.8782  2.8508 -0.4025
54864SOL     OW73559   4.820   1.698   7.930 -0.3380 -0.5605  0.4203
54864SOL    HW173560   4.732   1.723   7.959 -0.8581 -0.3446 -1.2461
54864SOL    HW273561   4.876   1.719   8.004 -1.6770 -0.6715  1.5098
54865SOL     OW73562   4.603   3.566  10.027 -0.1555  0.6808 -0.1323
54865SOL    HW173563   4.595   3.479  10.066  0.7397  0.7167  0.1491
54865SOL    HW273564   4.532   3.617  10.066 -0.7340  0.0610 -0.3596
54866SOL     OW73565   3.073   0.317  10.039  0.1157  0.4628 -0.4437
54866SOL    HW173566   3.121   0.355  10.112  0.2227 -1.2383  0.4054
54866SOL    HW273567   3.063   0.225  10.062 -3.2962  0.6390 -0.6752
54867SOL     OW73568  10.051   4.286   9.547 -0.0117  0.7869 -0.3058
54867SOL    HW173569  10.066   4.219   9.480 -0.3711  1.4659 -1.0960
54867SOL    HW273570  10.125   4.279   9.606  0.4973  0.4014 -0.9802
54868SOL     OW73571   7.951   4.993   7.333  0.3287  0.3018  0.2216
54868SOL    HW173572   8.008   5.069   7.326  0.5806  0.1212  0.2826
54868SOL    HW273573   7.984   4.945   7.409 -0.4892  0.6747  0.8205
54869SOL     OW73574   9.574   6.682   1.005  0.0143 -0.6415  0.0628
54869SOL    HW173575   9.495   6.694   0.952  0.7400 -0.4486 -1.0071
54869SOL    HW273576   9.634   6.749   0.973  0.2826 -0.1587  1.5251
54870SOL     OW73577   0.894   5.037   2.610  0.1544 -0.8236  0.6754
54870SOL    HW173578   0.933   4.968   2.555 -1.4333 -2.5162  1.5920
54870SOL    HW273579   0.949   5.114   2.592  1.0894 -1.8883 -1.5303
54871SOL     OW73580  11.672   7.295  10.342 -0.3125  0.1982 -0.4757
54871SOL    HW173581  11.693   7.206  10.369 -1.3162  0.1402  0.1555
54871SOL    HW273582  11.683   7.294  10.247 -3.2704 -1.4950 -0.9351
54872SOL     OW73583   4.682   9.687   2.641 -0.7575  0.2891 -0.1719
54872SOL    HW173584   4.690   9.782   2.640  1.1625  0.1666 -0.1851
54872SOL    HW273585   4.773   9.655   2.646 -1.4052 -1.5248  1.1110
54873SOL     OW73586   8.395   9.106   3.769 -0.0995  0.3866 -0.0493
54873SOL    HW173587   8.392   9.159   3.849 -1.0725 -0.7248  0.7004
54873SOL    HW273588   8.481   9.065   3.770 -0.0363  0.5230  0.3468
54874SOL     OW73589  10.050   5.574   4.104  0.4388 -0.1575 -0.1185
54874SOL    HW173590  10.061   5.482   4.080 -0.1333 -0.5309  0.9712
54874SOL    HW273591   9.957   5.591   4.087  0.3589 -0.0188  0.4630
54875SOL     OW73592  11.874   0.163   7.049  0.3231  0.2268 -0.0358
54875SOL    HW173593  11.926   0.242   7.042  0.9628 -0.2647 -1.0220
54875SOL    HW273594  11.783   0.192   7.043  0.3601  1.2255  2.7999
54876SOL     OW73595   5.067  12.553  10.407 -0.3175  0.0216 -0.6383
54876SOL    HW173596   4.974  12.533  10.419 -0.4863  1.0448 -0.1441
54876SOL    HW273597   5.112  12.476  10.443 -0.9551 -0.1143 -0.1069
54877SOL     OW73598   3.248  10.242   8.153  0.6090  0.3193  0.2304
54877SOL    HW173599   3.230  10.149   8.168  0.9713 -0.1713 -1.9698
54877SOL    HW273600   3.177  10.287   8.197  0.9855 -0.9093  2.2439
54878SOL     OW73601   9.205   0.146  12.425 -0.3327 -0.6367  0.1506
54878SOL    HW173602   9.230   0.141  12.332 -1.0370  0.4632 -0.1208
54878SOL    HW273603   9.124   0.198  12.425  1.2308  2.0019  1.6353
54879SOL     OW73604   3.786  10.224   2.215  0.1027  0.2937 -0.4450
54879SOL    HW173605   3.787  10.220   2.311  0.9656 -0.0836 -0.4675
54879SOL    HW273606   3.832  10.145   2.187 -1.0926 -0.1706 -1.1992
54880SOL     OW73607   6.289   4.672  11.887  0.0722  0.0557  0.0961
54880SOL    HW173608   6.362   4.609  11.892 -0.4371 -0.6410 -0.9981
54880SOL    HW273609   6.220   4.632  11.940 -0.5097 -0.6956 -1.1841
54881SOL     OW73610   0.182   3.251   1.539 -0.4382 -0.2443  0.3689
54881SOL    HW173611   0.238   3.187   1.494  0.5107  0.6247  0.2725
54881SOL    HW273612   0.120   3.279   1.472  0.5728  0.5720 -0.2792
54882SOL     OW73613   6.867   2.211   5.748  0.1302 -0.4378 -0.6322
54882SOL    HW173614   6.855   2.298   5.710  0.0422 -0.0065  0.3547
54882SOL    HW273615   6.815   2.213   5.829  0.1106 -1.4158 -0.6076
54883SOL     OW73616   7.912   3.710   2.844  0.0118  0.0798  0.0256
54883SOL    HW173617   7.857   3.632   2.839  0.4930 -0.1828 -1.8835
54883SOL    HW273618   7.852   3.783   2.829 -0.0944 -0.0972 -0.4431
54884SOL     OW73619   8.114   9.685   8.299  0.4862  0.0920 -0.0092
54884SOL    HW173620   8.081   9.760   8.350  0.4350  0.8009 -1.0657
54884SOL    HW273621   8.057   9.613   8.325  0.0974  0.5740  0.5192
54885SOL     OW73622   6.258   2.096   3.077  0.0376 -0.0523 -0.2760
54885SOL    HW173623   6.181   2.093   3.135  1.4861 -2.5768  1.7252
54885SOL    HW273624   6.233   2.042   3.002 -0.1166 -1.0532  0.4707
54886SOL     OW73625   5.556   1.374   9.652 -0.3258  0.6473 -0.1880
54886SOL    HW173626   5.498   1.298   9.649  0.3325  0.1488 -2.3081
54886SOL    HW273627   5.644   1.336   9.662 -0.0187  1.1328 -0.9876
54887SOL     OW73628   0.612  12.150  11.295  0.5411  0.8181  0.1089
54887SOL    HW173629   0.673  12.161  11.222  0.3906  2.0775  0.1407
54887SOL    HW273630   0.646  12.209  11.363 -1.6990  3.0350 -0.5401
54888SOL     OW73631   7.116   8.152   4.390  0.1975 -0.3598 -0.0609
54888SOL    HW173632   7.074   8.238   4.401  0.3829 -0.5723  2.9506
54888SOL    HW273633   7.043   8.090   4.387  0.1348 -0.3820  1.3609
54889SOL     OW73634   8.942  10.081   9.593 -0.3834 -0.0069 -0.0670
54889SOL    HW173635   8.878  10.095   9.523  1.0642  0.5049 -1.3482
54889SOL    HW273636   8.939   9.986   9.609 -2.4141  0.1640  0.9020
54890SOL     OW73637   3.299   1.994  12.283  0.2791 -0.6782  0.1186
54890SOL    HW173638   3.377   2.034  12.320  0.2263  0.4158 -0.8903
54890SOL    HW273639   3.283   2.043  12.202 -1.1331 -1.2419  0.0273
54891SOL     OW73640   8.373   3.455   2.955 -0.4545 -0.0023 -0.4195
54891SOL    HW173641   8.299   3.415   3.001 -0.4587 -0.9192 -1.2036
54891SOL    HW273642   8.441   3.388   2.955  0.9412  1.3070  1.5208
54892SOL     OW73643   8.531   3.261   2.236 -0.1488  0.0402 -0.2879
54892SOL    HW173644   8.520   3.219   2.151  0.6668  0.8043 -0.7872
54892SOL    HW273645   8.614   3.308   2.229  0.2608 -0.4142  1.1588
54893SOL     OW73646  10.406   4.020  10.844  0.4578 -0.1730 -0.0508
54893SOL    HW173647  10.391   4.082  10.915 -1.1140  1.4918 -1.7007
54893SOL    HW273648  10.346   3.948  10.861  0.8534 -0.2928  0.8445
54894SOL     OW73649   0.958   8.859   3.901  0.2445 -0.1254 -0.1501
54894SOL    HW173650   0.995   8.946   3.884  0.4512  0.1357  1.4180
54894SOL    HW273651   1.024   8.815   3.954  0.0019 -1.1311 -0.6743
54895SOL     OW73652  10.118   0.194   4.671 -0.1020 -0.6275 -0.2542
54895SOL    HW173653  10.159   0.116   4.634  0.0358 -0.9188  0.5073
54895SOL    HW273654  10.061   0.161   4.740 -1.4732 -0.2127 -1.1401
54896SOL     OW73655   2.872   9.717  11.801 -0.2600 -0.3303  0.5691
54896SOL    HW173656   2.836   9.712  11.712  1.8011 -0.9631 -0.2924
54896SOL    HW273657   2.796   9.732  11.857 -1.6844 -0.4413 -1.2439
54897SOL     OW73658  10.491   6.089  11.541 -0.2738  0.8639  0.0483
54897SOL    HW173659  10.503   6.150  11.614  1.4588  0.4575  0.1482
54897SOL    HW273660  10.535   6.009  11.570  0.1704  0.5981 -1.3172
54898SOL     OW73661   3.123   7.891   3.181  0.6482  0.6097  0.8675
54898SOL    HW173662   3.038   7.914   3.218  0.0228 -1.2350  0.6924
54898SOL    HW273663   3.164   7.975   3.162 -1.5836  1.5794 -0.0748
54899SOL     OW73664   0.274   2.787   5.358  0.3025 -0.2562 -0.4287
54899SOL    HW173665   0.269   2.784   5.453 -1.6799  0.6297 -0.4521
54899SOL    HW273666   0.306   2.700   5.333  1.6932 -0.2119  1.0524
54900SOL     OW73667   7.649   8.016   9.425 -0.3630 -0.1271  0.3166
54900SOL    HW173668   7.688   8.022   9.513 -1.8572  0.0126  0.9865
54900SOL    HW273669   7.585   7.946   9.432 -0.6797  0.0634 -0.6052
54901SOL     OW73670   5.708   9.017  11.824 -0.1595 -0.5462  0.3163
54901SOL    HW173671   5.758   8.982  11.750  0.1398 -0.3133  0.4059
54901SOL    HW273672   5.771   9.071  11.872 -0.3803 -0.6204  0.6884
54902SOL     OW73673   5.225   0.105   5.629  0.2433  0.7679 -0.0141
54902SOL    HW173674   5.296   0.043   5.612  0.4381  0.5776  1.4189
54902SOL    HW273675   5.249   0.183   5.580 -0.4646 -0.5280 -2.6450
54903SOL     OW73676   0.867  11.698   6.133  0.5021  0.4787  0.3698
54903SOL    HW173677   0.818  11.765   6.181 -1.3971 -0.0206 -0.7433
54903SOL    HW273678   0.826  11.695   6.047  1.9031 -0.6755 -0.3075
54904SOL     OW73679   1.069  10.812   1.656 -0.3152 -0.2167  0.0523
54904SOL    HW173680   1.100  10.746   1.718  2.8397 -0.6165 -1.7865
54904SOL    HW273681   1.037  10.883   1.712  0.1799 -1.5050  2.0992
54905SOL     OW73682   8.989   6.851   9.121 -0.1524  0.0436  0.2173
54905SOL    HW173683   9.005   6.757   9.108 -0.9221 -0.3888  1.9687
54905SOL    HW273684   8.894   6.859   9.119 -0.0819  0.8169 -0.0953
54906SOL     OW73685   5.879   1.785   8.250 -0.2859 -0.3580  0.2704
54906SOL    HW173686   5.808   1.750   8.304 -0.6613 -0.2336 -0.1412
54906SOL    HW273687   5.851   1.771   8.160  0.7653 -1.4176  0.0864
54907SOL     OW73688  10.178   2.751   6.699  0.7798  0.3435 -0.1808
54907SOL    HW173689  10.120   2.780   6.628 -0.7656 -2.8725 -0.4091
54907SOL    HW273690  10.234   2.685   6.658  1.7252  0.3637  1.0350
54908SOL     OW73691  12.478   4.584   0.365  0.1567 -0.6163 -0.0209
54908SOL    HW173692  12.461   4.540   0.281 -2.1187 -2.2009  1.1404
54908SOL    HW273693  12.440   4.671   0.354  2.5423  0.3350 -1.5444
54909SOL     OW73694   9.522   8.124  11.950 -0.1138  0.0464 -0.1515
54909SOL    HW173695   9.507   8.123  12.045  0.6057  0.1490 -0.0278
54909SOL    HW273696   9.485   8.042  11.919 -1.4095  0.5425  0.0421
54910SOL     OW73697   7.675  11.716   3.385  0.3622  0.1959  0.2230
54910SOL    HW173698   7.703  11.651   3.320  1.3059 -1.3834  2.1044
54910SOL    HW273699   7.692  11.800   3.343 -0.2178 -0.7359 -2.0259
54911SOL     OW73700   6.267   6.392   1.493 -0.2302 -0.0450 -0.1384
54911SOL    HW173701   6.246   6.394   1.400 -0.9094  0.8142  0.0208
54911SOL    HW273702   6.293   6.482   1.513  1.9442 -0.6686  0.0643
54912SOL     OW73703   4.939   0.300   2.370  0.0119 -0.0829  0.1920
54912SOL    HW173704   4.906   0.301   2.281 -0.9571  0.8148  0.5387
54912SOL    HW273705   4.861   0.309   2.425  0.7804  2.1556  1.0360
54913SOL     OW73706   9.321  10.429   8.114  0.0715  0.3609  0.1172
54913SOL    HW173707   9.357  10.399   8.197 -2.1778 -1.0134  0.7081
54913SOL    HW273708   9.234  10.463   8.137  0.4751  2.5620 -1.3290
54914SOL     OW73709  12.189   5.913  11.044  0.6072  0.3632 -0.1652
54914SOL    HW173710  12.128   5.984  11.023  0.1585 -0.2630 -1.0097
54914SOL    HW273711  12.143   5.862  11.111  1.3620  1.4282  1.2256
54915SOL     OW73712  12.345   1.501   6.003  0.3161 -0.4525  0.6618
54915SOL    HW173713  12.361   1.419   6.051  1.6670 -0.1820  0.7000
54915SOL    HW273714  12.337   1.567   6.072  1.3899 -0.2096  0.5744
54916SOL     OW73715   8.417  11.338  11.717  0.3059 -0.2461  0.1124
54916SOL    HW173716   8.430  11.245  11.733 -0.0474  0.0617  2.4620
54916SOL    HW273717   8.325  11.345  11.690 -0.1394 -0.4275  1.5261
54917SOL     OW73718   3.576  11.054   9.048  0.4538  0.1953 -0.0409
54917SOL    HW173719   3.608  11.112   8.980 -0.4615  0.6640 -0.0897
54917SOL    HW273720   3.599  11.098   9.130  1.4472 -0.3108 -0.0254
54918SOL     OW73721   0.477   7.974  11.936 -0.0812 -0.3956 -0.3231
54918SOL    HW173722   0.455   8.012  12.021 -0.2641 -0.3908 -0.3744
54918SOL    HW273723   0.422   8.020  11.874  2.5019  2.1808 -0.9512
54919SOL     OW73724   7.076   2.590   6.612  0.2724 -0.3810 -0.2748
54919SOL    HW173725   7.008   2.619   6.674  0.8378  1.4127 -0.4238
54919SOL    HW273726   7.067   2.649   6.538  0.5860 -1.5545 -1.2689
54920SOL     OW73727  10.123   5.822   4.971  0.4099  0.0340 -0.0627
54920SOL    HW173728  10.161   5.782   4.892  0.3089  0.5335 -0.3695
54920SOL    HW273729  10.144   5.761   5.041 -0.5804 -1.0583 -0.6756
54921SOL     OW73730   9.769  10.439   8.859 -0.1288 -0.0127  0.8531
54921SOL    HW173731   9.734  10.470   8.775  0.3485  1.0850  1.0417
54921SOL    HW273732   9.787  10.518   8.909 -1.1302 -0.6576  2.3197
54922SOL     OW73733  11.638  11.676   5.026  0.4955 -0.1563 -0.2041
54922SOL    HW173734  11.630  11.584   5.002 -0.0736 -0.1374 -0.0891
54922SOL    HW273735  11.696  11.676   5.103 -1.5761 -0.6826  1.4351
54923SOL     OW73736   5.657   5.076   3.942  0.8089  0.0535 -0.1754
54923SOL    HW173737   5.610   5.139   3.996 -0.5787  0.7087 -2.0157
54923SOL    HW273738   5.750   5.100   3.952  0.6070  0.1296  1.8364
54924SOL     OW73739   3.619   3.529   6.212 -0.6138 -0.1560  0.1810
54924SOL    HW173740   3.537   3.481   6.197  0.2734 -1.4424 -0.7458
54924SOL    HW273741   3.663   3.528   6.128  0.1648  0.9481  0.5495
54925SOL     OW73742   6.610   9.385  10.414 -0.4727 -0.1265  1.0408
54925SOL    HW173743   6.526   9.410  10.376  0.1160  0.6094  0.1905
54925SOL    HW273744   6.629   9.298  10.377 -0.1325  0.3770 -0.0028
54926SOL     OW73745  12.517   5.472  10.751 -0.3104 -0.1753 -0.4034
54926SOL    HW173746  12.567   5.394  10.727 -2.9949 -1.9983 -0.3854
54926SOL    HW273747  12.494   5.512  10.667 -1.2473 -0.9684 -0.5376
54927SOL     OW73748   8.331   9.432   1.679  0.0968 -0.0730 -0.2635
54927SOL    HW173749   8.297   9.446   1.591 -1.9558  0.9159  0.6013
54927SOL    HW273750   8.406   9.490   1.686 -0.2968  0.5495 -1.0523
54928SOL     OW73751  11.356   1.886   8.582 -0.0231 -0.4560  0.0093
54928SOL    HW173752  11.328   1.922   8.666 -2.2502  0.7665 -1.1564
54928SOL    HW273753  11.277   1.887   8.528  1.5359 -0.2019 -2.4230
54929SOL     OW73754   5.572   6.569   4.648 -0.1322  0.2555 -0.4893
54929SOL    HW173755   5.597   6.648   4.695  1.2537  0.2915 -1.2439
54929SOL    HW273756   5.551   6.506   4.717  2.3137  0.1517  0.2774
54930SOL     OW73757   1.266   9.393   8.244  0.0800 -0.7394  0.0878
54930SOL    HW173758   1.279   9.298   8.246  1.6736 -0.5508  0.0878
54930SOL    HW273759   1.347   9.428   8.206 -0.9073  0.5669 -0.9109
54931SOL     OW73760   2.140  11.377  10.331 -0.0484  0.3884 -0.7044
54931SOL    HW173761   2.089  11.351  10.408  0.2919 -0.8363 -0.8865
54931SOL    HW273762   2.102  11.461  10.305 -0.6082  0.4909  0.3972
54932SOL     OW73763   3.329   7.403   4.384  0.2655 -0.1829  0.2986
54932SOL    HW173764   3.312   7.409   4.290 -0.0600 -0.0607  0.3632
54932SOL    HW273765   3.251   7.361   4.420 -0.4201  1.4025  0.7528
54933SOL     OW73766   8.908   9.078   3.196 -0.4168 -0.1921 -0.3996
54933SOL    HW173767   8.956   9.010   3.148 -0.2288 -0.2656 -0.1068
54933SOL    HW273768   8.916   9.053   3.288 -0.8186 -0.0751 -0.3312
54934SOL     OW73769   2.277   3.420   2.550  0.9083  0.4489  0.4268
54934SOL    HW173770   2.338   3.442   2.480 -0.2593  2.3961 -0.0783
54934SOL    HW273771   2.227   3.346   2.516 -0.1760  1.8588 -1.2227
54935SOL     OW73772  10.530   3.078   3.984  0.1518 -0.1320 -0.3033
54935SOL    HW173773  10.500   3.154   4.034 -1.7319 -0.2667 -1.1383
54935SOL    HW273774  10.451   3.044   3.944  1.1399 -1.9064 -0.8287
54936SOL     OW73775   9.964   4.053   8.703 -0.1589  0.5183 -0.3074
54936SOL    HW173776   9.938   4.144   8.717 -0.9915  0.3812 -0.8989
54936SOL    HW273777   9.897   4.002   8.748  1.0258  0.1937  1.1639
54937SOL     OW73778   8.326   5.499   8.960 -0.3743 -0.2164  0.4291
54937SOL    HW173779   8.413   5.492   9.000 -0.6692  1.6962  1.4876
54937SOL    HW273780   8.265   5.481   9.031 -0.8641  1.1843  0.3925
54938SOL     OW73781   9.901   1.895   8.055  0.3027  0.4211 -0.4060
54938SOL    HW173782   9.934   1.876   7.967  2.0479 -0.9269  0.4859
54938SOL    HW273783   9.980   1.901   8.109 -0.7915  0.0534  1.2879
54939SOL     OW73784   6.168  12.457   4.346 -0.8250 -1.2342  0.2281
54939SOL    HW173785   6.177  12.450   4.441 -0.5018  0.7840  0.4050
54939SOL    HW273786   6.111  12.384   4.321 -0.9237 -1.7897  1.9595
54940SOL     OW73787   5.685   1.601   6.874 -0.0159 -0.2174 -0.0161
54940SOL    HW173788   5.674   1.520   6.825 -0.0123 -0.4482  0.3562
54940SOL    HW273789   5.631   1.588   6.953  0.8425 -0.3077  0.5724
54941SOL     OW73790   8.798   1.780   8.635  0.1541  0.2309 -0.0742
54941SOL    HW173791   8.765   1.862   8.672 -0.3136 -0.1101  0.2652
54941SOL    HW273792   8.720   1.730   8.612  0.4149 -0.5810  0.7358
54942SOL     OW73793   7.249   5.557   4.249  0.5242 -0.2837  0.6301
54942SOL    HW173794   7.196   5.523   4.177  0.9023  0.3484  0.0387
54942SOL    HW273795   7.336   5.519   4.235 -0.0697 -2.5974  2.4875
54943SOL     OW73796  11.612   9.286  10.650  0.2553 -0.3365 -0.2233
54943SOL    HW173797  11.622   9.297  10.745 -0.6517 -1.7660  0.0687
54943SOL    HW273798  11.560   9.361  10.622  0.1057 -0.1699  0.4873
54944SOL     OW73799   1.429   4.103   5.876  0.4334  0.1835 -0.5143
54944SOL    HW173800   1.518   4.068   5.876  0.4191  0.1460 -0.4667
54944SOL    HW273801   1.374   4.026   5.858  0.2510 -0.2262  1.5278
54945SOL     OW73802   3.403   0.963   4.499  0.0192 -0.2030  0.3987
54945SOL    HW173803   3.441   1.049   4.478  0.6830 -0.2345  1.3853
54945SOL    HW273804   3.427   0.907   4.425 -1.5077  0.7452 -0.8814
54946SOL     OW73805  11.395   3.513   3.741 -0.2441  0.3923  0.2457
54946SOL    HW173806  11.444   3.591   3.768 -1.3728  0.9698  0.6795
54946SOL    HW273807  11.393   3.458   3.820 -0.1063  0.2691  0.1634
54947SOL     OW73808   7.586   0.237   2.201 -0.1684 -0.0918 -0.1564
54947SOL    HW173809   7.594   0.187   2.120  0.9216 -0.6160  0.2503
54947SOL    HW273810   7.629   0.321   2.183  0.2435 -0.2805 -0.0794
54948SOL     OW73811   0.675   4.298   2.743  0.1991 -0.0403 -0.8321
54948SOL    HW173812   0.619   4.279   2.818  0.8809 -0.3611 -0.3894
54948SOL    HW273813   0.635   4.251   2.670  0.6613 -1.4349 -0.2195
54949SOL     OW73814   7.464   7.639   9.589  0.1629  0.0886  0.1958
54949SOL    HW173815   7.419   7.715   9.553  0.2703  0.0587 -0.0031
54949SOL    HW273816   7.397   7.592   9.639 -0.4892 -0.9036 -1.5294
54950SOL     OW73817   1.005   4.624   7.735  0.1011 -0.1038  0.0973
54950SOL    HW173818   1.019   4.671   7.653 -0.1754  0.8310  0.5605
54950SOL    HW273819   1.070   4.554   7.735  0.3187  0.0928 -0.7673
54951SOL     OW73820   8.309   0.856   9.082 -0.2694 -0.3749  0.1006
54951SOL    HW173821   8.311   0.770   9.124 -0.7428 -0.5449 -0.2320
54951SOL    HW273822   8.257   0.910   9.141 -2.3462 -1.0300 -1.0383
54952SOL     OW73823   2.175   9.107   6.771 -0.2823 -0.1125  0.4484
54952SOL    HW173824   2.164   9.184   6.825  1.3679 -0.7345  1.7484
54952SOL    HW273825   2.160   9.033   6.830 -0.0579 -0.7932 -0.3191
54953SOL     OW73826   7.293  10.871   1.433 -0.0517 -0.0565 -0.6322
54953SOL    HW173827   7.228  10.930   1.394 -0.0364 -0.3481 -1.1096
54953SOL    HW273828   7.362  10.929   1.465 -0.5036  0.2484 -0.2070
54954SOL     OW73829   4.618   7.869  11.821 -0.2343  0.9271  0.0279
54954SOL    HW173830   4.640   7.828  11.737 -0.6114 -1.0783  0.8459
54954SOL    HW273831   4.539   7.824  11.850 -0.8276  2.4519  0.8980
54955SOL     OW73832   6.323   4.221   2.683  0.1379  0.2849  0.0492
54955SOL    HW173833   6.314   4.215   2.778  0.4066  0.7262  0.1028
54955SOL    HW273834   6.233   4.233   2.651 -0.0043 -0.3603  0.2083
54956SOL     OW73835   6.305  10.079   4.839 -0.0502 -0.5661  0.5423
54956SOL    HW173836   6.239  10.022   4.878 -1.1813 -0.2779 -0.8605
54956SOL    HW273837   6.288  10.165   4.879 -1.3218 -0.2288 -0.6296
54957SOL     OW73838   7.532   0.472   0.369  0.3134  0.4058 -0.6265
54957SOL    HW173839   7.613   0.463   0.418  0.4997 -0.6655 -1.1019
54957SOL    HW273840   7.493   0.553   0.401  2.0406  1.4644 -1.0862
54958SOL     OW73841   0.435   0.911  10.527  0.0693 -0.4293 -0.4363
54958SOL    HW173842   0.476   0.991  10.560  0.9991 -0.0858 -2.3264
54958SOL    HW273843   0.390   0.875  10.604  0.1788  1.5322  0.6339
54959SOL     OW73844   4.020   9.983  11.579 -0.1276  0.0783 -0.2519
54959SOL    HW173845   3.977   9.897  11.571  0.3570 -0.0739 -1.6224
54959SOL    HW273846   4.049   9.987  11.670  2.3706 -2.4977 -0.7957
54960SOL     OW73847   9.379   5.332   0.993 -0.1653 -0.4453  0.0278
54960SOL    HW173848   9.321   5.275   1.043 -0.6879  1.0857  1.2225
54960SOL    HW273849   9.468   5.304   1.017 -0.4155 -0.2786  1.1664
54961SOL     OW73850   6.465   8.223   0.581  0.2892 -0.1992  0.7955
54961SOL    HW173851   6.536   8.255   0.638  0.7393 -0.9118  0.6378
54961SOL    HW273852   6.469   8.280   0.504 -0.1015  0.5501  1.3112
54962SOL     OW73853   1.448   6.134   5.007 -0.0684  0.3335 -0.2485
54962SOL    HW173854   1.390   6.210   4.996  2.5406  2.3071 -1.3236
54962SOL    HW273855   1.464   6.103   4.918  0.1892 -0.5010  0.0768
54963SOL     OW73856   1.646   7.050   6.911 -0.0311 -0.4831  0.6425
54963SOL    HW173857   1.568   7.096   6.880  0.1717 -0.8702 -0.4721
54963SOL    HW273858   1.682   7.008   6.833  0.6491 -1.2604  1.3589
54964SOL     OW73859   7.898   8.745   2.880 -0.8829 -0.2027  0.1416
54964SOL    HW173860   7.954   8.676   2.846 -0.6477 -0.1033  0.3274
54964SOL    HW273861   7.841   8.701   2.943 -0.9377 -0.2824  0.0360
54965SOL     OW73862   0.140  11.582   6.372  0.2834 -0.7294 -0.1089
54965SOL    HW173863   0.055  11.598   6.330  0.4938  0.1555 -0.2290
54965SOL    HW273864   0.128  11.610   6.462  0.4453 -0.6130 -0.1230
54966SOL     OW73865  10.732   0.896   5.370  0.1608  0.0074 -0.4019
54966SOL    HW173866  10.737   0.940   5.286  1.1364  0.3232 -0.1951
54966SOL    HW273867  10.824   0.886   5.398 -0.1616  0.5862  0.9685
54967SOL     OW73868  12.282   6.199   9.529  0.0641 -0.1336 -0.0638
54967SOL    HW173869  12.240   6.186   9.614  0.7927 -2.8792 -0.0417
54967SOL    HW273870  12.372   6.168   9.541  1.1897  2.3830 -1.0538
54968SOL     OW73871  11.268   8.417   8.227  0.1449  0.1796  0.0367
54968SOL    HW173872  11.248   8.503   8.191  0.8273  0.3397  0.0262
54968SOL    HW273873  11.363   8.408   8.217  0.2398 -0.1065  1.0550
54969SOL     OW73874   7.156  12.047   0.680  0.8188  0.3194 -0.2302
54969SOL    HW173875   7.235  12.097   0.660  0.3720  0.2573 -2.2946
54969SOL    HW273876   7.084  12.099   0.643 -0.1486  0.3705  1.5894
54970SOL     OW73877   3.121  10.733  11.288 -0.3365  0.2099  0.4836
54970SOL    HW173878   3.054  10.799  11.269 -0.5599  0.0068  0.5705
54970SOL    HW273879   3.188  10.781  11.337  0.3299  0.7920 -0.9279
54971SOL     OW73880  11.253   2.161   1.812 -0.5108 -0.0890 -0.6012
54971SOL    HW173881  11.166   2.197   1.830  0.5763  2.3315  0.3133
54971SOL    HW273882  11.265   2.173   1.718 -1.0524 -0.1791 -0.6854
54972SOL     OW73883  10.982   0.128   0.418  0.4119  0.0208  0.2036
54972SOL    HW173884  11.022   0.059   0.364  1.4219  1.3091 -0.7844
54972SOL    HW273885  10.991   0.097   0.508 -0.4575 -1.7691 -0.2816
54973SOL     OW73886  11.468  10.822  12.177 -0.0244  0.1356  0.0784
54973SOL    HW173887  11.561  10.803  12.194 -0.4739 -2.1840  0.1919
54973SOL    HW273888  11.424  10.798  12.258 -0.7746  0.8780 -0.1060
54974SOL     OW73889   9.867  11.420   5.271 -0.6377 -0.0226 -0.2933
54974SOL    HW173890   9.868  11.505   5.314  1.0003  0.0089 -0.3201
54974SOL    HW273891   9.840  11.438   5.181 -0.8800  0.3747 -0.1421
54975SOL     OW73892   7.309  10.265   2.301  0.1552 -0.4456  0.2845
54975SOL    HW173893   7.215  10.275   2.315  0.2117  1.2191 -0.2726
54975SOL    HW273894   7.349  10.286   2.385  0.0364 -1.3879  0.5877
54976SOL     OW73895  10.329   7.009   5.800  0.0840  0.4610  0.1019
54976SOL    HW173896  10.239   7.039   5.796 -0.1348 -0.0731  0.8086
54976SOL    HW273897  10.331   6.949   5.874  0.7458 -0.4574 -0.6374
54977SOL     OW73898   2.096   8.066   1.178 -0.6491  0.2232  0.7879
54977SOL    HW173899   2.026   8.128   1.157  0.5769  1.9506  1.5495
54977SOL    HW273900   2.177   8.113   1.156  0.2871 -1.7856 -0.2506
54978SOL     OW73901   3.967   4.424   1.537 -0.6669 -0.3817 -0.2325
54978SOL    HW173902   3.893   4.474   1.504 -0.9928  1.3281  2.7647
54978SOL    HW273903   3.934   4.334   1.547 -2.2997  0.2889  0.7591
54979SOL     OW73904  10.186   0.923   6.773  0.4840  1.0392 -0.6886
54979SOL    HW173905  10.262   0.913   6.715  1.0740  2.7030 -0.2892
54979SOL    HW273906  10.224   0.945   6.858 -0.3420 -1.8822  0.5612
54980SOL     OW73907   9.319   6.671   1.795 -0.2990  0.4324 -0.1126
54980SOL    HW173908   9.310   6.577   1.779  0.2666  0.0080  1.7507
54980SOL    HW273909   9.231   6.701   1.818  0.0676 -0.5185  3.0794
54981SOL     OW73910   1.505   0.913   2.857 -0.3731  0.2344  0.0025
54981SOL    HW173911   1.560   0.849   2.813 -0.3124 -0.7549  1.4347
54981SOL    HW273912   1.451   0.861   2.917 -0.2367  1.5236  1.2908
54982SOL     OW73913   1.829   1.866   1.986  0.2299 -0.7743  0.3659
54982SOL    HW173914   1.825   1.854   2.081 -2.6790 -2.8959  0.1299
54982SOL    HW273915   1.769   1.939   1.968  0.5017 -0.6063  0.1201
54983SOL     OW73916   4.467   2.599  11.294  0.4430  0.1349  0.0198
54983SOL    HW173917   4.471   2.669  11.359  1.1024  0.7417 -0.6487
54983SOL    HW273918   4.531   2.535  11.324 -0.1753 -0.1890  0.6457
54984SOL     OW73919   7.171   2.265   1.368  0.5999  0.7655  0.0513
54984SOL    HW173920   7.235   2.327   1.332  1.3746  0.3842  0.7285
54984SOL    HW273921   7.102   2.321   1.405  1.7685  1.3120  1.5470
54985SOL     OW73922   4.461  11.566   7.467  0.4371 -0.0073 -0.0730
54985SOL    HW173923   4.436  11.658   7.481 -0.6756 -0.0198 -1.7031
54985SOL    HW273924   4.491  11.563   7.376 -1.4930 -1.6219 -0.7308
54986SOL     OW73925   9.212   1.132  10.258 -0.5212 -0.4179  0.2005
54986SOL    HW173926   9.124   1.111  10.229 -0.6966 -1.7974  1.5880
54986SOL    HW273927   9.269   1.091  10.193 -0.8237  1.9754 -1.7094
54987SOL     OW73928   5.497  10.067   1.731  0.0517  0.6745  0.4819
54987SOL    HW173929   5.563  10.095   1.795 -0.8328  0.3026  1.5942
54987SOL    HW273930   5.548  10.035   1.657  1.0972  2.1015  0.5461
54988SOL     OW73931   1.796   9.781   6.820  0.0927 -0.4336 -0.3698
54988SOL    HW173932   1.790   9.838   6.896 -1.3602 -1.0970  0.0568
54988SOL    HW273933   1.864   9.820   6.765  0.4461  0.6204  0.7883
54989SOL     OW73934   3.813   6.894  12.152  0.1928  0.0450  0.0405
54989SOL    HW173935   3.759   6.940  12.217  1.1906  0.9725  0.2431
54989SOL    HW273936   3.896   6.878  12.197  0.4952 -0.3255 -0.6400
54990SOL     OW73937   6.891   9.638   9.951 -0.2958  0.1984 -0.8567
54990SOL    HW173938   6.896   9.701   9.879 -2.0476  2.8674  1.1197
54990SOL    HW273939   6.919   9.689  10.028 -1.6261 -1.4845  0.8287
54991SOL     OW73940   0.272   4.044  11.505  0.2012  0.5016 -0.0200
54991SOL    HW173941   0.320   4.121  11.533  2.0830 -0.4550 -0.4252
54991SOL    HW273942   0.235   4.067  11.420  0.8068  0.9511 -0.1656
54992SOL     OW73943   4.766   8.250   3.764  0.0536  0.8102  0.4912
54992SOL    HW173944   4.813   8.322   3.806 -2.3243  2.6160  0.3051
54992SOL    HW273945   4.713   8.292   3.697  0.3026 -1.4576 -1.2562
54993SOL     OW73946  10.189  12.032   0.996  0.1811  0.4083  0.1386
54993SOL    HW173947  10.145  12.057   1.078 -1.2673  1.9281 -1.0287
54993SOL    HW273948  10.258  11.971   1.023 -0.2024  0.9249  2.4862
54994SOL     OW73949   6.199  10.118   5.542  0.0130 -0.1620  0.2880
54994SOL    HW173950   6.139  10.153   5.608 -1.6286  0.7587 -1.6055
54994SOL    HW273951   6.218  10.191   5.484  0.8784 -1.1028 -0.6717
54995SOL     OW73952  11.353   0.129   2.170  0.4845 -0.0268 -0.0154
54995SOL    HW173953  11.427   0.069   2.181  0.1400 -0.4359  0.0761
54995SOL    HW273954  11.278   0.072   2.154 -0.1872  0.2833  1.8513
54996SOL     OW73955   6.920   7.752   1.821 -0.1281  0.2350  0.0503
54996SOL    HW173956   6.928   7.829   1.766 -0.1826 -0.7883 -1.4490
54996SOL    HW273957   6.939   7.679   1.763  0.4050 -0.8609  1.5441
54997SOL     OW73958   9.594   7.078   8.874  0.0476 -0.0831  0.2022
54997SOL    HW173959   9.541   7.086   8.795  0.7776 -0.4913 -0.3426
54997SOL    HW273960   9.658   7.150   8.867  1.3219 -1.2445 -0.5511
54998SOL     OW73961   4.248   4.457   8.895  0.2764 -0.7332  0.5017
54998SOL    HW173962   4.254   4.493   8.807  0.0403  0.6822  1.0317
54998SOL    HW273963   4.304   4.515   8.948 -0.2367 -1.0588  1.4159
54999SOL     OW73964   1.222   2.704   4.914 -0.0087  0.0289 -0.0968
54999SOL    HW173965   1.193   2.613   4.905  0.7099 -0.1343 -0.9869
54999SOL    HW273966   1.173   2.738   4.988 -2.3001 -0.2955 -1.3513
55000SOL     OW73967   9.426   1.678   2.818 -0.0009  0.1611 -0.0978
55000SOL    HW173968   9.422   1.665   2.723 -0.5721 -1.3260  0.0952
55000SOL    HW273969   9.406   1.591   2.855 -0.4527  0.8593  1.3806
55001SOL     OW73970   8.236  11.942   6.558  0.8201  0.5050 -0.4233
55001SOL    HW173971   8.177  11.919   6.630  1.8181  1.1696  0.6509
55001SOL    HW273972   8.209  12.031   6.533  1.1668  0.7025 -0.1146
55002SOL     OW73973   3.071  11.486   4.678 -0.4230  0.1972  0.5528
55002SOL    HW173974   3.148  11.542   4.671 -0.8678  1.0066  1.7704
55002SOL    HW273975   3.002  11.535   4.635 -1.0031  1.0117  2.3034
55003SOL     OW73976   9.276  10.443   5.152 -0.1100  0.5504  0.0900
55003SOL    HW173977   9.263  10.537   5.140 -3.7988  0.1207 -0.4419
55003SOL    HW273978   9.356  10.436   5.205  0.4979  3.9163 -0.1993
55004SOL     OW73979   2.415   0.035   2.676  0.0573  0.2207  0.4275
55004SOL    HW173980   2.423   0.075   2.762  0.6525  1.2849 -0.1039
55004SOL    HW273981   2.402   0.109   2.616 -1.0667 -0.5382 -0.3261
55005SOL     OW73982   5.231   8.549   2.282 -0.2218  0.1002 -0.1480
55005SOL    HW173983   5.203   8.576   2.194  0.9195  1.9988 -0.0009
55005SOL    HW273984   5.150   8.535   2.330 -0.8648  0.0610 -1.2105
55006SOL     OW73985   0.944   2.843   1.977 -0.6817  0.0559 -0.1748
55006SOL    HW173986   0.924   2.901   1.903  0.5841  1.0094  0.1821
55006SOL    HW273987   0.896   2.881   2.051 -0.0175  0.5603  0.0122
55007SOL     OW73988   3.318   9.868   5.046 -0.0419  0.0197 -0.0663
55007SOL    HW173989   3.268   9.900   4.971 -1.4164  0.8314  1.1582
55007SOL    HW273990   3.408   9.895   5.027 -0.7524  2.4260 -0.2920
55008SOL     OW73991  11.277   0.692   8.794  0.5850 -0.4125  0.2773
55008SOL    HW173992  11.198   0.649   8.763  0.5435  1.3868 -2.4357
55008SOL    HW273993  11.339   0.620   8.809 -0.3880 -1.6263 -1.1976
55009SOL     OW73994   4.700  12.107   7.120 -0.7755  0.1894  0.2014
55009SOL    HW173995   4.704  12.152   7.035  0.3296  1.2939  0.8024
55009SOL    HW273996   4.727  12.017   7.100  0.7573  0.7489 -0.4503
55010SOL     OW73997   8.605   2.804   5.770 -0.8546 -0.2919  0.0365
55010SOL    HW173998   8.676   2.752   5.806  0.3569  0.6542 -0.8736
55010SOL    HW273999   8.529   2.747   5.773  0.3257 -1.9676 -0.5371
55011SOL     OW74000   9.667   9.819   6.849 -0.5388 -0.5709  0.3680
55011SOL    HW174001   9.593   9.816   6.909  0.8335 -1.3217  2.1298
55011SOL    HW274002   9.665   9.734   6.805 -1.0894 -0.3243 -0.1017
55012SOL     OW74003  11.488   4.779  11.202 -0.3186 -0.0240 -0.1811
55012SOL    HW174004  11.483   4.732  11.118 -0.2949  0.5671 -0.5196
55012SOL    HW274005  11.581   4.797  11.214 -0.4860  1.4701 -0.9277
55013SOL     OW74006   0.787   1.197  11.216  0.6192  0.1021  0.0395
55013SOL    HW174007   0.844   1.126  11.187 -0.1718 -0.3125 -0.5449
55013SOL    HW274008   0.805   1.269  11.155  0.6740  0.0498 -0.0061
55014SOL     OW74009   0.568  10.559   5.059  0.4096  0.1365  0.4722
55014SOL    HW174010   0.592  10.493   4.994  1.4929 -0.9929  1.9401
55014SOL    HW274011   0.565  10.511   5.141 -1.6669  1.3635  1.1954
55015SOL     OW74012   3.690   3.400   5.444 -0.3166  0.1717 -0.1728
55015SOL    HW174013   3.655   3.467   5.502  0.8745 -0.7999  1.8070
55015SOL    HW274014   3.661   3.317   5.483  1.6764 -0.5532 -0.1090
55016SOL     OW74015   9.586  11.433  11.112  0.0872 -0.3614  0.1867
55016SOL    HW174016   9.519  11.372  11.081 -0.2642  0.6431 -1.1195
55016SOL    HW274017   9.604  11.490  11.037  0.5780  0.9933  1.2735
55017SOL     OW74018  11.615   4.999   3.975 -0.3979  0.6329 -0.3314
55017SOL    HW174019  11.583   5.066   3.915 -3.4678 -0.4019 -0.0037
55017SOL    HW274020  11.600   4.916   3.930 -0.7622 -0.0519  0.9957
55018SOL     OW74021   2.212   4.307  10.051  0.0877 -0.2702  0.2316
55018SOL    HW174022   2.304   4.308  10.079 -0.0072  0.6672  0.5339
55018SOL    HW274023   2.197   4.394  10.016 -1.3766  0.4935  2.5368
55019SOL     OW74024   9.464   9.889  11.661 -0.3672  0.5438 -0.7836
55019SOL    HW174025   9.489   9.926  11.576 -0.0369 -0.8312 -1.3023
55019SOL    HW274026   9.510   9.806  11.666  0.3352  0.9918  1.1500
55020SOL     OW74027   1.099   1.536   8.898 -0.7126  0.3996 -0.2305
55020SOL    HW174028   1.195   1.542   8.897 -0.7461  1.2413 -1.8311
55020SOL    HW274029   1.081   1.443   8.890 -0.1005 -0.2600  3.8298
55021SOL     OW74030   0.304   3.499   4.263 -0.0851  0.5039 -0.2282
55021SOL    HW174031   0.312   3.440   4.338 -3.1235  1.8642  1.3303
55021SOL    HW274032   0.211   3.496   4.240  0.6310  0.5868 -3.6694
55022SOL     OW74033  12.326   8.908   7.445 -0.3369  0.2493 -0.7903
55022SOL    HW174034  12.240   8.884   7.479 -0.4165 -0.5024 -1.4878
55022SOL    HW274035  12.311   8.988   7.394 -0.7224 -0.1372 -1.2988
55023SOL     OW74036   7.960   7.459   2.199 -0.4176 -0.1835  0.0484
55023SOL    HW174037   7.970   7.486   2.108 -1.9175 -1.5494 -0.5684
55023SOL    HW274038   7.964   7.363   2.196 -1.1574 -0.2793  1.3305
55024SOL     OW74039   4.841   3.351   2.959  0.4264  0.1536  0.0995
55024SOL    HW174040   4.870   3.404   3.033  1.4491 -0.6207  0.2849
55024SOL    HW274041   4.859   3.404   2.882  0.5810  0.4420  0.3328
55025SOL     OW74042  10.374   3.434   6.600  0.1311 -0.1133 -1.2177
55025SOL    HW174043  10.293   3.481   6.578 -0.9016 -0.3833  1.5677
55025SOL    HW274044  10.424   3.496   6.652  1.9720  0.1619 -3.1948
55026SOL     OW74045   5.721  12.182   4.217  0.3816  0.2253  0.5266
55026SOL    HW174046   5.678  12.099   4.237 -0.6901  0.8678  0.9733
55026SOL    HW274047   5.688  12.206   4.131  3.6046 -1.6376 -1.4126
55027SOL     OW74048  12.307   0.071   5.985  0.6051  0.3007 -0.7979
55027SOL    HW174049  12.380   0.121   5.946  0.4012  0.7828 -0.5776
55027SOL    HW274050  12.347   0.028   6.061  0.6768  0.5312 -0.7003
55028SOL     OW74051  11.647   9.223   8.455  0.0979  0.4522  0.5519
55028SOL    HW174052  11.593   9.186   8.385  0.8293  1.2056 -0.4325
55028SOL    HW274053  11.731   9.242   8.414  2.1030 -2.9739  2.5980
55029SOL     OW74054   7.896  10.223   5.071 -0.0729  0.4045 -0.3115
55029SOL    HW174055   7.902  10.146   5.015  1.7285  1.1949 -1.3052
55029SOL    HW274056   7.812  10.262   5.049  0.4351  0.4928 -2.2644
55030SOL     OW74057   0.415   7.682   5.951  0.2549  0.0391 -0.1309
55030SOL    HW174058   0.503   7.718   5.937  0.9762 -0.9076  1.6230
55030SOL    HW274059   0.381   7.731   6.026 -0.6926  0.3526 -0.7587
55031SOL     OW74060   0.093   3.610   3.695 -0.3221 -0.0048 -0.2002
55031SOL    HW174061   0.141   3.654   3.625  0.6977  0.8835  1.0247
55031SOL    HW274062   0.001   3.629   3.677 -0.0756  0.2186 -1.2844
55032SOL     OW74063   7.952   4.525   6.393 -0.0256  0.4054 -0.5192
55032SOL    HW174064   8.028   4.542   6.450  1.5234 -0.2909 -2.2549
55032SOL    HW274065   7.924   4.437   6.417 -0.5048  0.7927  0.3607
55033SOL     OW74066   1.428   3.292   2.752  0.1246  1.0757 -0.1989
55033SOL    HW174067   1.365   3.358   2.780  1.3799  2.0942  0.2970
55033SOL    HW274068   1.436   3.306   2.657 -2.3713 -0.8503 -0.7998
55034SOL     OW74069   6.983   0.202   6.462  0.1496  0.3785 -0.1602
55034SOL    HW174070   6.952   0.268   6.524  0.4932  0.4155 -0.0228
55034SOL    HW274071   7.068   0.175   6.497 -1.5209 -2.8113  1.8706
55035SOL     OW74072  12.309  11.311  11.340  0.4385  0.1747  0.1793
55035SOL    HW174073  12.302  11.391  11.392  1.4373  0.7136 -0.4763
55035SOL    HW274074  12.266  11.332  11.257  2.8186  0.9398 -0.9611
55036SOL     OW74075   1.192  11.554  10.992  0.4094  0.6610 -0.1094
55036SOL    HW174076   1.248  11.506  11.053 -2.4994 -0.4973  1.9010
55036SOL    HW274077   1.129  11.489  10.961  0.5972  1.6933 -2.9436
55037SOL     OW74078  11.637  12.246   3.202  0.0444  0.5698  0.3634
55037SOL    HW174079  11.552  12.209   3.178 -0.4338  2.0766 -0.3518
55037SOL    HW274080  11.622  12.285   3.288 -0.0681  1.0891  0.1087
55038SOL     OW74081   9.024   4.994  10.975  0.5518 -0.1650  0.7551
55038SOL    HW174082   9.090   5.033  11.033  0.1484 -0.0617  1.1483
55038SOL    HW274083   9.068   4.917  10.938  0.6613 -0.4991  1.5565
55039SOL     OW74084  11.042   2.939   5.546  0.0935 -0.0235 -0.3103
55039SOL    HW174085  11.024   3.032   5.557  0.4944 -0.1058  1.2936
55039SOL    HW274086  11.129   2.935   5.508  0.3048  0.2657  0.1323
55040SOL     OW74087   1.401   8.867  11.050 -0.2999  0.2249  0.8062
55040SOL    HW174088   1.460   8.796  11.073 -0.6863  0.2470  1.9376
55040SOL    HW274089   1.457   8.935  11.012  0.7803  1.1381  3.7911
55041SOL     OW74090   0.495   2.586   2.616 -0.0285 -0.9887  0.4784
55041SOL    HW174091   0.443   2.513   2.582  0.0306 -0.6793 -0.2869
55041SOL    HW274092   0.585   2.562   2.597  0.0139 -0.8690  0.5276
55042SOL     OW74093   0.223   3.788   1.892 -0.6540  0.4480 -0.2560
55042SOL    HW174094   0.194   3.841   1.817 -0.8363  0.4935 -0.1534
55042SOL    HW274095   0.154   3.722   1.902 -1.8337  1.8262  1.3146
55043SOL     OW74096  10.495   6.341   0.990  0.0223  0.0925  0.6793
55043SOL    HW174097  10.590   6.346   0.984  0.0465  1.4726  1.6079
55043SOL    HW274098  10.466   6.432   0.980 -1.4332 -0.5644 -2.5073
55044SOL     OW74099   6.645   4.187   6.744  0.2461  0.0449  0.7159
55044SOL    HW174100   6.704   4.117   6.715 -0.2650 -0.0824 -0.0319
55044SOL    HW274101   6.613   4.157   6.830  0.5688 -0.3076  0.7152
55045SOL     OW74102  11.121  12.482   9.862 -0.1982 -0.3010 -0.4682
55045SOL    HW174103  11.122  12.387   9.853 -0.9045 -0.4333  0.6297
55045SOL    HW274104  11.095  12.497   9.953  0.3228  0.9380 -0.5046
55046SOL     OW74105   1.491   8.845   7.198 -0.2969 -0.5298  0.4127
55046SOL    HW174106   1.459   8.780   7.262 -0.4047 -1.0096 -0.1203
55046SOL    HW274107   1.411   8.880   7.159 -0.2422  0.0118  0.7754
55047SOL     OW74108   2.087   1.065   6.147 -0.1022 -0.0476 -0.4567
55047SOL    HW174109   2.169   1.114   6.144 -0.2912  0.3777  0.8251
55047SOL    HW274110   2.044   1.086   6.064  1.0799 -0.2991 -1.1674
55048SOL     OW74111   0.740  10.479   9.950 -0.2765  0.0276  0.2629
55048SOL    HW174112   0.825  10.507   9.914  0.2019 -1.2690  0.3299
55048SOL    HW274113   0.723  10.540  10.021  1.1728 -0.3776  0.9948
55049SOL     OW74114   4.779   0.834   0.995  0.1857 -0.1822  0.2282
55049SOL    HW174115   4.860   0.854   1.043  0.9199  1.5866 -1.6016
55049SOL    HW274116   4.710   0.875   1.047  0.7476  0.2800  0.6324
55050SOL     OW74117  12.471  11.729   6.570 -0.4694  0.3490 -0.0187
55050SOL    HW174118  12.561  11.702   6.590  0.2859  0.6152 -2.6703
55050SOL    HW274119  12.464  11.818   6.604  0.5351  0.5943 -0.4329
55051SOL     OW74120   9.230  10.532   1.606 -0.4905  0.0477 -0.0142
55051SOL    HW174121   9.234  10.552   1.512  1.5016  0.8985  0.1791
55051SOL    HW274122   9.201  10.614   1.646 -0.2799  0.0311  0.1740
55052SOL     OW74123   8.531  12.271   5.016 -0.1956  0.1875 -0.4281
55052SOL    HW174124   8.500  12.210   4.949  1.4882 -0.9118 -0.2543
55052SOL    HW274125   8.528  12.357   4.973 -1.7426 -0.1090 -0.9694
55053SOL     OW74126   2.010   0.297   6.379 -0.0656 -0.4603  0.7837
55053SOL    HW174127   2.018   0.392   6.386 -2.2313 -0.1917  0.4287
55053SOL    HW274128   2.073   0.272   6.311  1.3530  0.5294  1.6851
55054SOL     OW74129  12.279   6.359  12.012 -0.1356 -0.5065  0.5731
55054SOL    HW174130  12.251   6.451  12.018  0.1202 -0.4580  1.0533
55054SOL    HW274131  12.270   6.326  12.101 -1.1467 -1.2238  0.2196
55055SOL     OW74132   4.563  11.176   5.686  0.0591 -0.2459 -0.9008
55055SOL    HW174133   4.653  11.170   5.655  0.0713  2.6467 -1.7063
55055SOL    HW274134   4.570  11.174   5.782  0.6523 -2.6044 -0.9352
55056SOL     OW74135   5.221  11.885   7.313 -0.1200 -0.1791  0.1822
55056SOL    HW174136   5.131  11.908   7.338  0.3996  0.2014  1.8267
55056SOL    HW274137   5.272  11.964   7.330  0.6576 -0.6182 -0.0482
55057SOL     OW74138   9.600   4.279   9.833  0.7390  0.1383  0.3107
55057SOL    HW174139   9.627   4.358   9.786 -0.2870 -0.1351 -0.7843
55057SOL    HW274140   9.677   4.255   9.884  0.2924  3.3524  2.8550
55058SOL     OW74141  10.667   2.952   1.946 -0.6134  0.0508 -0.1062
55058SOL    HW174142  10.631   2.873   1.907 -1.5803 -0.4666  1.6867
55058SOL    HW274143  10.602   3.020   1.928 -0.4353  0.1179 -0.4942
55059SOL     OW74144  12.587   7.866   0.064 -0.3806 -0.0898 -0.3986
55059SOL    HW174145  12.542   7.781   0.057 -0.9195  0.1022  0.5275
55059SOL    HW274146  12.556   7.902   0.147  0.7947  0.4638 -0.1771
55060SOL     OW74147   2.976  11.388  11.123 -0.1073 -0.3984 -0.2764
55060SOL    HW174148   2.953  11.470  11.168  0.2557 -0.0251 -0.7549
55060SOL    HW274149   2.955  11.319  11.186 -1.4784 -0.0160 -0.2839
55061SOL     OW74150   6.055   0.159  11.255 -0.0365 -0.6844 -0.2131
55061SOL    HW174151   6.047   0.247  11.219  0.2069 -1.8418 -3.3603
55061SOL    HW274152   6.057   0.173  11.350 -0.7752  2.6008 -0.5393
55062SOL     OW74153   2.785  11.722  10.333  0.0631 -0.3148 -0.6218
55062SOL    HW174154   2.771  11.769  10.416  0.6712  0.5585 -1.0021
55062SOL    HW274155   2.835  11.644  10.358  0.9662  0.3563 -0.2638
55063SOL     OW74156   1.507   0.243   9.421 -0.1537 -0.2837  0.1432
55063SOL    HW174157   1.476   0.313   9.364  1.4960 -0.1879 -0.6884
55063SOL    HW274158   1.569   0.285   9.480  2.6579 -1.3207 -1.8550
55064SOL     OW74159   6.963   4.950   3.004 -0.2556 -0.0473 -0.0569
55064SOL    HW174160   6.959   5.028   3.060 -0.2068 -0.4376  0.4914
55064SOL    HW274161   7.051   4.952   2.967 -0.4692  0.5066 -0.5554
55065SOL     OW74162   8.136  11.243   8.975  0.3917  0.3440  0.1237
55065SOL    HW174163   8.079  11.314   9.004  0.2492  0.1138  0.4170
55065SOL    HW274164   8.135  11.180   9.048 -0.0765 -0.2988 -0.4163
55066SOL     OW74165   0.024  12.033  11.313  0.2347  0.1458  0.2873
55066SOL    HW174166   0.118  12.046  11.300  0.2265  0.9522  0.9531
55066SOL    HW274167   0.005  12.079  11.395 -0.8149  0.3146 -0.0476
55067SOL     OW74168   3.041   4.803   4.835 -0.2702  0.3938  0.4486
55067SOL    HW174169   3.012   4.885   4.794  0.8092  0.7316  0.3269
55067SOL    HW274170   3.122   4.781   4.790 -0.2721 -0.4750  0.8459
55068SOL     OW74171   0.553   4.769  11.247 -0.2662 -0.2795  0.1150
55068SOL    HW174172   0.575   4.697  11.188 -3.0443 -1.7884  0.7321
55068SOL    HW274173   0.599   4.748  11.328  0.0436 -0.6009 -0.1406
55069SOL     OW74174   5.108   2.986   7.248 -0.3621  0.0031  0.0650
55069SOL    HW174175   5.017   2.958   7.243 -0.2103 -0.6552  0.7644
55069SOL    HW274176   5.134   3.002   7.157 -1.4039  0.9997 -0.0767
55070SOL     OW74177   4.240   2.857   1.491 -0.9130 -0.3946 -0.1201
55070SOL    HW174178   4.175   2.831   1.556  0.6230 -3.1511  0.4580
55070SOL    HW274179   4.312   2.795   1.502  0.4040  0.4419 -2.9555
55071SOL     OW74180   7.392   3.248  10.035  0.0042  0.1077  0.4004
55071SOL    HW174181   7.472   3.299  10.050 -0.2959  1.0244 -0.9300
55071SOL    HW274182   7.422   3.157  10.031  0.8428  0.3531  0.8151
55072SOL     OW74183   8.011   5.113   5.277  0.0401 -0.5143 -0.0616
55072SOL    HW174184   7.984   5.142   5.190 -1.2523 -0.9154  0.1815
55072SOL    HW274185   8.079   5.175   5.303  0.1584 -0.1466 -1.1828
55073SOL     OW74186   4.629   5.351   3.929 -0.0884 -0.2905 -0.9023
55073SOL    HW174187   4.657   5.441   3.949 -1.6281 -0.2759  1.5627
55073SOL    HW274188   4.703   5.313   3.882  0.8076  2.0940 -1.5899
55074SOL     OW74189   0.404  11.159   1.165 -0.3554 -0.6970 -0.0377
55074SOL    HW174190   0.372  11.232   1.217  0.5877 -0.3505  0.0732
55074SOL    HW274191   0.452  11.200   1.092 -0.5401 -1.1924 -0.4483
55075SOL     OW74192   6.857   2.891   2.756 -0.1259  0.9324 -0.3281
55075SOL    HW174193   6.786   2.827   2.748 -0.0026  0.9547 -1.8681
55075SOL    HW274194   6.936   2.837   2.761 -0.2100  0.8946  1.7128
55076SOL     OW74195   4.359   5.873   8.731  0.8146 -0.4941  0.0688
55076SOL    HW174196   4.302   5.872   8.654 -1.2835  2.9785  1.3571
55076SOL    HW274197   4.447   5.860   8.696 -0.1545 -0.0506 -2.7912
55077SOL     OW74198   6.066   8.848  12.321 -0.1054 -0.3191  0.2139
55077SOL    HW174199   6.075   8.862  12.415 -2.0763  1.1212  0.2548
55077SOL    HW274200   6.065   8.936  12.283  1.8117 -0.8742 -1.3460
55078SOL     OW74201   4.944   1.707  10.032 -0.4059  0.0993 -0.1806
55078SOL    HW174202   5.008   1.636  10.035 -0.7667 -0.2025  0.5173
55078SOL    HW274203   4.937   1.728   9.939  0.0815 -0.4321 -0.3477
55079SOL     OW74204   8.072  10.644   6.114 -0.4191 -0.1832  0.2429
55079SOL    HW174205   7.985  10.606   6.096 -0.9882  0.5171  1.4206
55079SOL    HW274206   8.078  10.647   6.209  0.4489  0.8130  0.1764
55080SOL     OW74207   2.306   4.520   1.933 -0.5409  0.2713  0.3946
55080SOL    HW174208   2.265   4.600   1.902 -0.4707  0.3884  0.6003
55080SOL    HW274209   2.274   4.510   2.023 -0.1974  0.3106  0.5210
55081SOL     OW74210   7.360   4.782   8.593  0.0041 -0.2352  0.1867
55081SOL    HW174211   7.355   4.804   8.685  0.4606 -1.9046  0.6482
55081SOL    HW274212   7.271   4.756   8.570 -0.1363  0.3033  0.1246
55082SOL     OW74213   4.906  11.775   2.397 -0.1770  0.2405  0.1318
55082SOL    HW174214   4.919  11.687   2.431  0.6417 -0.3507 -1.6336
55082SOL    HW274215   4.910  11.831   2.475  0.1622 -1.1834  1.1772
55083SOL     OW74216   7.583   1.324   2.028  0.3302  0.5020 -0.0618
55083SOL    HW174217   7.526   1.295   1.956  1.6446 -1.8539 -0.2593
55083SOL    HW274218   7.553   1.272   2.103  0.6801  1.0231  0.4427
55084SOL     OW74219   7.214  11.835   7.085 -0.3381  0.1846  0.3400
55084SOL    HW174220   7.207  11.918   7.038  1.0501  0.1913  0.0903
55084SOL    HW274221   7.307  11.829   7.109 -0.6203 -0.8032  1.2663
55085SOL     OW74222  11.752   3.452   0.589  0.3395 -0.0290  0.3771
55085SOL    HW174223  11.809   3.445   0.512 -1.2971  0.3313 -0.9214
55085SOL    HW274224  11.765   3.370   0.636  0.9461 -0.5045 -0.5926
55086SOL     OW74225   9.818   2.378  11.351  0.4798  0.5590  1.0791
55086SOL    HW174226   9.825   2.465  11.312  0.6829  0.3943  0.7481
55086SOL    HW274227   9.804   2.394  11.444  1.9270  0.9334  1.2478
55087SOL     OW74228  11.478   9.929  11.424  0.0529 -0.3412  0.2807
55087SOL    HW174229  11.435   9.850  11.392 -2.9964  0.1039  2.7674
55087SOL    HW274230  11.407   9.994  11.429  1.3874  1.0582  2.9195
55088SOL     OW74231   6.069   0.815   2.308 -0.3965  0.1458  0.3690
55088SOL    HW174232   6.053   0.766   2.388 -2.0180 -0.3419 -0.2175
55088SOL    HW274233   5.998   0.790   2.249  0.7513  0.4759 -1.2424
55089SOL     OW74234   1.661   6.557   4.196  0.2230  0.0741  0.2879
55089SOL    HW174235   1.668   6.618   4.270  0.5343  0.2969  0.0784
55089SOL    HW274236   1.688   6.609   4.120  2.9886 -1.0267  0.4365
55090SOL     OW74237   0.662   5.915   1.408  0.4369  0.0804  0.5535
55090SOL    HW174238   0.677   6.008   1.390 -0.4159 -0.1632 -1.8565
55090SOL    HW274239   0.737   5.870   1.370  0.5409 -0.2630  1.1508
55091SOL     OW74240   6.848  12.116  11.519  0.2494  0.0932 -0.1752
55091SOL    HW174241   6.907  12.053  11.478 -0.2727 -0.0581 -0.7086
55091SOL    HW274242   6.765  12.106  11.472 -0.7390 -0.9325  1.6839
55092SOL     OW74243   3.849   9.557   0.741  0.2072  0.1878  0.4262
55092SOL    HW174244   3.835   9.504   0.663 -0.8876  0.2305  0.5765
55092SOL    HW274245   3.795   9.636   0.727  1.1680  0.8872  0.5702
55093SOL     OW74246   3.044   5.722   5.843 -0.0360 -0.2105 -0.1769
55093SOL    HW174247   3.108   5.668   5.796 -1.1083  0.6211 -2.8156
55093SOL    HW274248   2.962   5.708   5.795 -0.7910  2.1855  0.2712
55094SOL     OW74249  11.856   8.693   5.965 -0.4684 -0.1195 -0.2215
55094SOL    HW174250  11.840   8.644   6.045 -0.4379 -0.5272 -0.4641
55094SOL    HW274251  11.804   8.773   5.975  0.0078  0.1146  0.4649
55095SOL     OW74252   9.466   0.677   2.684  0.8036 -0.6058  0.3808
55095SOL    HW174253   9.400   0.722   2.632  1.7005 -1.4843 -1.6354
55095SOL    HW274254   9.531   0.647   2.620  1.7754 -2.1194  1.9741
55096SOL     OW74255   7.078   9.802   0.991 -0.3107 -0.1880 -0.2321
55096SOL    HW174256   7.162   9.787   1.034  0.0749  0.5009 -0.7340
55096SOL    HW274257   7.100   9.839   0.905 -1.0563 -1.7561 -1.1431
55097SOL     OW74258   4.716   7.564   4.853 -0.3117 -0.2827 -0.6006
55097SOL    HW174259   4.621   7.571   4.841 -0.2823  1.6597  0.0049
55097SOL    HW274260   4.726   7.487   4.909 -1.5559 -0.3963 -0.4924
55098SOL     OW74261   7.098   0.330   9.927 -0.8082  0.6074  0.1855
55098SOL    HW174262   7.124   0.243   9.897 -2.3864  0.0553  0.3057
55098SOL    HW274263   7.161   0.390   9.887  1.2334 -0.6843  1.2799
55099SOL     OW74264   9.815   5.672   1.364 -0.1362  0.2844  0.1789
55099SOL    HW174265   9.786   5.753   1.405 -0.0112  0.7003 -0.5416
55099SOL    HW274266   9.862   5.700   1.285  1.5655 -0.3827  0.8908
55100SOL     OW74267   9.529  11.786   9.596  0.2071  0.0593  0.2679
55100SOL    HW174268   9.581  11.707   9.610  1.0248  0.3929 -0.7493
55100SOL    HW274269   9.568  11.827   9.519 -1.3427  0.5207 -0.3109
55101SOL     OW74270   4.392   9.769   5.302 -0.0312 -0.1207  0.1060
55101SOL    HW174271   4.372   9.723   5.384  2.7506 -0.0324  0.9434
55101SOL    HW274272   4.380   9.862   5.323 -0.1925 -0.1473  0.1343
55102SOL     OW74273   0.095   8.791   4.591  0.6508 -0.1529  0.0917
55102SOL    HW174274   0.141   8.872   4.568  0.7393 -0.0327  0.6863
55102SOL    HW274275   0.100   8.787   4.686 -1.1285  0.1907  0.2269
55103SOL     OW74276   1.541   3.129   6.527 -0.0291  0.2627 -0.0824
55103SOL    HW174277   1.495   3.135   6.611 -0.0485  0.1967 -0.0883
55103SOL    HW274278   1.487   3.071   6.474  1.0247 -1.3433  0.5406
55104SOL     OW74279   8.442   0.047   7.139  0.5048  0.2748  0.1943
55104SOL    HW174280   8.528   0.053   7.098  0.9984 -0.0792  1.1466
55104SOL    HW274281   8.427   0.134   7.175 -0.7642  1.1718 -2.2741
55105SOL     OW74282   8.888   8.032   9.345  0.7841 -0.1181  0.5253
55105SOL    HW174283   8.811   7.996   9.389  0.8294  1.5834  2.1152
55105SOL    HW274284   8.951   8.046   9.416  1.8313  0.3292 -0.4672
55106SOL     OW74285   7.563  10.897   3.243  0.0309  0.5954  0.1510
55106SOL    HW174286   7.484  10.855   3.277 -1.4543  1.6458 -1.8221
55106SOL    HW274287   7.584  10.965   3.306 -0.8280  0.5181  0.5260
55107SOL     OW74288   3.254   0.628   4.581 -0.1533 -0.5159  0.1520
55107SOL    HW174289   3.349   0.621   4.578 -0.2759 -3.6527 -0.0846
55107SOL    HW274290   3.229   0.657   4.493  0.5631  0.2709  0.2027
55108SOL     OW74291   8.713  10.670   4.882 -0.0877 -0.1586  0.0991
55108SOL    HW174292   8.688  10.653   4.791  0.8529  0.4137 -0.2916
55108SOL    HW274293   8.638  10.643   4.934 -0.5535 -0.7041 -0.8358
55109SOL     OW74294   4.109  10.624   0.096 -0.4570 -0.5211 -0.1252
55109SOL    HW174295   4.062  10.564   0.154 -2.0226  0.6353 -0.1347
55109SOL    HW274296   4.061  10.620   0.013  1.8279 -2.2547 -1.4907
55110SOL     OW74297   4.622   1.628   4.931  0.2678 -0.4027  0.0762
55110SOL    HW174298   4.641   1.669   4.847  1.1201  1.1265  0.9508
55110SOL    HW274299   4.551   1.567   4.913  1.5919 -1.4386 -2.0862
55111SOL     OW74300  11.430  12.338   8.487  0.0611 -0.3678 -0.0155
55111SOL    HW174301  11.374  12.391   8.544  0.0035 -0.7481  0.2858
55111SOL    HW274302  11.369  12.277   8.445  0.2940 -1.0855  0.6546
55112SOL     OW74303   6.927  12.110   6.960  0.3656 -0.0547 -0.6868
55112SOL    HW174304   6.946  12.079   7.048 -1.3548 -0.7994 -0.5399
55112SOL    HW274305   6.961  12.200   6.959  1.2798 -0.3569  0.3870
55113SOL     OW74306   9.977   7.235   7.114 -0.2757 -0.1554  0.4503
55113SOL    HW174307   9.897   7.268   7.156 -0.1339  1.3859 -0.4300
55113SOL    HW274308   9.988   7.147   7.150 -1.4889  0.2002  1.7910
55114SOL     OW74309  10.646   8.791   8.802  0.3345 -0.4802 -0.1347
55114SOL    HW174310  10.570   8.737   8.781 -1.6867  1.7561  1.0964
55114SOL    HW274311  10.688   8.746   8.876 -0.5360 -1.0191  0.0409
55115SOL     OW74312   0.385   3.944   1.087 -0.0974  0.1487  0.2405
55115SOL    HW174313   0.348   3.864   1.125  0.1300  0.5463  1.3178
55115SOL    HW274314   0.460   3.912   1.036 -1.2460 -0.5392 -1.0764
55116SOL     OW74315   0.632   7.793  12.435 -0.4153 -0.5610 -0.4278
55116SOL    HW174316   0.657   7.877  12.397 -0.7622 -0.7287 -1.0409
55116SOL    HW274317   0.669   7.728  12.375  1.0805 -0.8999  0.7791
55117SOL     OW74318   1.511   3.568   0.444  0.9660 -0.4750 -0.4986
55117SOL    HW174319   1.478   3.554   0.533  0.7344  0.7715 -0.3659
55117SOL    HW274320   1.555   3.653   0.448 -0.9898  0.7074 -2.0737
55118SOL     OW74321   1.922   1.457   4.488  0.0362  0.0860 -0.2910
55118SOL    HW174322   1.978   1.533   4.476  0.9734 -0.8229 -2.1338
55118SOL    HW274323   1.955   1.415   4.567  0.9153  0.4690 -0.4410
55119SOL     OW74324   9.940  10.074   3.719 -0.0673  0.3186 -0.2378
55119SOL    HW174325   9.899  10.117   3.644  0.0004  0.0117 -0.4551
55119SOL    HW274326  10.019  10.125   3.736  0.0407  0.2482 -0.5281
55120SOL     OW74327   0.965   1.105   5.200 -0.0897 -0.0101 -0.2883
55120SOL    HW174328   0.969   1.011   5.185 -1.1795 -0.0920 -0.1518
55120SOL    HW274329   0.946   1.142   5.114 -0.5441  0.0009 -0.1885
55121SOL     OW74330   5.619  10.643  11.720 -0.9680  0.3570  0.2751
55121SOL    HW174331   5.658  10.706  11.780 -0.8874  0.3959  0.1813
55121SOL    HW274332   5.526  10.667  11.717 -1.0107  0.2308  0.5371
55122SOL     OW74333   3.643   2.915   7.439 -0.0976 -0.1443  0.0939
55122SOL    HW174334   3.636   2.877   7.351  1.8011  0.8403 -0.5309
55122SOL    HW274335   3.624   3.008   7.426  1.5731  0.2787  0.4241
55123SOL     OW74336   2.786   2.488   7.931 -0.0521 -0.2068 -0.1086
55123SOL    HW174337   2.842   2.480   7.854  0.1933 -0.6270  0.1105
55123SOL    HW274338   2.781   2.400   7.967 -0.7352 -0.1458 -0.0399
55124SOL     OW74339   9.988   0.742   0.107 -0.1161  0.1300 -0.4264
55124SOL    HW174340  10.078   0.750   0.138 -0.3688 -0.2230  0.4173
55124SOL    HW274341   9.993   0.761   0.013  0.8771 -0.1736 -0.4411
55125SOL     OW74342   2.250   4.747   5.819  0.2224 -0.0351 -0.2974
55125SOL    HW174343   2.291   4.832   5.806  1.0523 -0.4820 -0.6565
55125SOL    HW274344   2.322   4.688   5.841 -0.3082 -0.6902 -0.2813
55126SOL     OW74345   9.092   7.666   4.910 -0.4594  0.0365 -1.3652
55126SOL    HW174346   9.171   7.621   4.880  0.6501  0.1262  1.2116
55126SOL    HW274347   9.036   7.668   4.833 -0.5249 -5.4602 -1.8282
55127SOL     OW74348   7.327   9.368   9.818  0.2024  0.2744 -0.7262
55127SOL    HW174349   7.279   9.328   9.746  0.9120 -1.7084 -0.1721
55127SOL    HW274350   7.261   9.384   9.885 -0.2332  0.8457 -1.2801
55128SOL     OW74351   5.994  11.568   9.090  0.3969  0.1165 -0.1704
55128SOL    HW174352   6.051  11.645   9.087  1.3783 -0.5528  0.4166
55128SOL    HW274353   5.993  11.535   9.000 -0.5978  1.1907 -0.5724
55129SOL     OW74354   0.700   2.162   4.747  0.3845  0.0049  0.1699
55129SOL    HW174355   0.618   2.125   4.714  0.9342 -1.6551  0.5893
55129SOL    HW274356   0.673   2.224   4.814 -0.5291 -0.4132  0.2073
55130SOL     OW74357   3.731   8.793  10.033  0.0708 -0.1865  0.0997
55130SOL    HW174358   3.716   8.710   9.988  0.1268  0.0703 -0.3970
55130SOL    HW274359   3.675   8.788  10.111 -2.8257  0.7926 -1.7604
55131SOL     OW74360  10.804   3.239   3.728 -0.0115 -0.7850  0.1839
55131SOL    HW174361  10.742   3.297   3.772 -0.7571 -2.2172  1.0602
55131SOL    HW274362  10.860   3.299   3.678  0.5959  0.8896  2.6707
55132SOL     OW74363   0.633   9.007   8.568 -0.4711 -0.0928  0.1164
55132SOL    HW174364   0.662   9.085   8.615 -1.4364 -0.8413  2.0952
55132SOL    HW274365   0.676   8.935   8.614 -0.0446 -0.7669 -1.3113
55133SOL     OW74366   8.737   6.526   7.520 -0.0382  0.0441 -0.3771
55133SOL    HW174367   8.661   6.583   7.509  0.4162  0.6811 -0.2877
55133SOL    HW274368   8.803   6.582   7.562  0.0085 -0.8878  0.8472
55134SOL     OW74369  10.439  12.408   8.363  0.0517 -0.0953  0.0672
55134SOL    HW174370  10.524  12.445   8.340  0.5204 -2.2211 -1.9938
55134SOL    HW274371  10.388  12.412   8.282 -1.1748 -0.5200  0.7867
55135SOL     OW74372   6.245   6.668  10.722 -0.5414 -0.3965  0.1679
55135SOL    HW174373   6.229   6.671  10.817 -1.4814 -0.7396  0.0274
55135SOL    HW274374   6.314   6.733  10.708  1.3153 -1.9606  1.3963
55136SOL     OW74375   4.170   1.460   8.964  0.8835 -0.4093  0.1760
55136SOL    HW174376   4.144   1.551   8.978 -0.2549 -0.6126 -0.5722
55136SOL    HW274377   4.099   1.421   8.913  2.1306 -1.2705 -0.9954
55137SOL     OW74378   1.443   8.322   6.436 -0.4218  0.0099  0.2265
55137SOL    HW174379   1.438   8.406   6.482  0.9098  0.1840  0.0986
55137SOL    HW274380   1.476   8.345   6.349 -0.6389 -0.5794 -0.0162
55138SOL     OW74381   1.020   9.951   5.422  0.8725  0.0443  0.1226
55138SOL    HW174382   0.930   9.920   5.416  0.9422 -0.0489 -0.5416
55138SOL    HW274383   1.012  10.043   5.446  0.5208  0.4886 -1.5385
55139SOL     OW74384   2.624  11.462   2.135 -0.6589 -0.1481  0.4305
55139SOL    HW174385   2.546  11.462   2.081 -1.1444  0.5056  1.0992
55139SOL    HW274386   2.593  11.485   2.223 -0.0985 -2.4683  1.3147
55140SOL     OW74387   0.509   9.899  10.491  0.5051  0.3382 -0.4974
55140SOL    HW174388   0.479   9.986  10.465  0.4521  0.1845 -0.9575
55140SOL    HW274389   0.511   9.849  10.410 -1.9140 -0.8232  0.0508
55141SOL     OW74390   8.674   0.527   1.878 -0.2228 -0.3057 -0.2151
55141SOL    HW174391   8.637   0.537   1.790 -0.8900  0.7521  0.1543
55141SOL    HW274392   8.627   0.592   1.931  0.9640 -0.1241  0.6715
55142SOL     OW74393   7.749   6.417   2.412  0.1525  0.1224 -0.0466
55142SOL    HW174394   7.754   6.478   2.339  0.5403 -0.4076 -0.4705
55142SOL    HW274395   7.837   6.380   2.419  0.9458  2.2196  2.5044
55143SOL     OW74396   4.654   2.728   7.776  0.0009  0.2523  0.0533
55143SOL    HW174397   4.675   2.635   7.787 -1.5318 -0.2296 -0.8156
55143SOL    HW274398   4.730   2.764   7.730  0.3994 -0.6791 -0.0473
55144SOL     OW74399   8.897   9.403  11.557 -0.1414 -0.2187 -0.0722
55144SOL    HW174400   8.818   9.383  11.506  0.2844 -0.8239 -0.5104
55144SOL    HW274401   8.930   9.484  11.518  0.0063 -0.5079 -0.5650
55145SOL     OW74402   5.810   3.397  10.023 -0.4465 -0.0360 -0.1714
55145SOL    HW174403   5.899   3.369  10.044 -0.2881  0.1754 -0.5392
55145SOL    HW274404   5.753   3.338  10.072 -0.0978  0.3036  0.6473
55146SOL     OW74405   8.885  10.394  12.431  0.2843 -0.2962  0.2307
55146SOL    HW174406   8.926  10.380  12.516  0.8999 -0.3896 -0.0746
55146SOL    HW274407   8.953  10.370  12.368  0.7402  2.1197 -0.3237
55147SOL     OW74408   1.774   5.632   6.249 -0.1662 -0.0136 -0.5480
55147SOL    HW174409   1.858   5.609   6.287  0.9386  1.4934 -1.9540
55147SOL    HW274410   1.733   5.689   6.314  0.7680  0.8149 -0.6699
55148SOL     OW74411   6.877   8.849  10.267 -0.0723  0.0546 -0.0056
55148SOL    HW174412   6.920   8.781  10.214 -0.5529 -0.7262  0.5776
55148SOL    HW274413   6.875   8.926  10.210 -0.4851 -0.7268 -1.0863
55149SOL     OW74414   6.131  12.543   8.765 -0.1576  0.3970 -0.4308
55149SOL    HW174415   6.144  12.466   8.821  0.1998  0.2402 -0.7264
55149SOL    HW274416   6.154  12.617   8.821  1.0467  0.1858 -0.6363
55150SOL     OW74417   7.433  12.190   3.407 -0.0631 -0.3676 -0.4855
55150SOL    HW174418   7.408  12.124   3.342 -0.8366 -1.2171  0.6200
55150SOL    HW274419   7.379  12.266   3.387  0.3475 -0.3026 -1.3697
55151SOL     OW74420   1.215  12.482   1.233  0.1945  0.0059 -0.2455
55151SOL    HW174421   1.186  12.557   1.285  0.6819 -1.3284  2.0811
55151SOL    HW274422   1.278  12.519   1.172  1.2295  1.3832  1.5529
55152SOL     OW74423   5.033  11.287   7.895 -0.4083 -0.0165 -0.0415
55152SOL    HW174424   4.945  11.300   7.861 -0.6861 -0.2388  0.5892
55152SOL    HW274425   5.090  11.331   7.831 -1.1825  3.5670  1.5267
55153SOL     OW74426   7.319   0.676   2.264  0.2215  0.4433 -0.1384
55153SOL    HW174427   7.229   0.644   2.268  0.3292 -0.1472 -1.6624
55153SOL    HW274428   7.343   0.668   2.171  1.3541  1.9356 -0.0224
55154SOL     OW74429   8.157   0.060  12.391 -0.3624  0.3477  0.0924
55154SOL    HW174430   8.225   0.127  12.397 -1.5185  1.6101 -0.4284
55154SOL    HW274431   8.075   0.108  12.394 -1.2843 -0.5473 -4.1720
55155SOL     OW74432   4.320   1.713   2.304  0.4495  0.0084 -0.9542
55155SOL    HW174433   4.359   1.717   2.217 -1.3692  1.6870 -1.7821
55155SOL    HW274434   4.230   1.743   2.291  0.3036  0.8988  1.5916
55156SOL     OW74435   8.233   0.620   7.019 -0.2245  0.0595  0.1456
55156SOL    HW174436   8.276   0.643   6.937  0.1861 -0.9042  0.0771
55156SOL    HW274437   8.229   0.702   7.068 -0.5804  0.6687 -0.8776
55157SOL     OW74438   9.100   6.826   8.718 -0.4326 -0.0675 -0.8620
55157SOL    HW174439   9.040   6.791   8.784  3.3051  0.6713  3.4240
55157SOL    HW274440   9.109   6.919   8.741  1.0030  0.2306 -2.4791
55158SOL     OW74441   6.723   9.758   8.350  0.3524 -0.5508 -0.2887
55158SOL    HW174442   6.705   9.845   8.313  0.9675 -0.6685 -0.9019
55158SOL    HW274443   6.774   9.776   8.429 -1.6009 -0.2612  0.9667
55159SOL     OW74444   7.599   4.475   9.808  0.0871 -0.2153 -0.5085
55159SOL    HW174445   7.633   4.479   9.718  0.5689  1.1403 -0.2842
55159SOL    HW274446   7.669   4.511   9.862 -1.0698  1.1884  0.1417
55160SOL     OW74447   7.325   0.023   4.151  0.2452  0.4839 -0.6727
55160SOL    HW174448   7.323   0.040   4.245 -0.2797  0.6028 -0.6997
55160SOL    HW274449   7.415   0.042   4.125  0.3916  0.4557 -0.1952
55161SOL     OW74450   9.994   6.933   9.821 -0.0218 -0.1212  0.3895
55161SOL    HW174451   9.965   6.917   9.911  1.0282  0.5449  0.8682
55161SOL    HW274452  10.028   7.022   9.822 -0.2045 -0.0247 -0.7271
55162SOL     OW74453   8.324   1.457   3.008 -0.7576 -0.4047 -0.2882
55162SOL    HW174454   8.312   1.416   3.094 -1.2936 -0.2356 -0.2805
55162SOL    HW274455   8.283   1.396   2.946 -0.9133 -0.2281 -0.3574
55163SOL     OW74456  10.924   1.226   9.570  0.5988 -0.2204  0.0781
55163SOL    HW174457  10.876   1.215   9.488  2.1538  0.4744 -0.9813
55163SOL    HW274458  11.015   1.204   9.547  1.2355  0.9147  1.3762
55164SOL     OW74459  11.265   2.730  11.581  0.5272  0.3328 -0.0851
55164SOL    HW174460  11.343   2.684  11.612  1.0234  0.0823 -1.6347
55164SOL    HW274461  11.240   2.684  11.501 -1.2842  0.3549  0.4254
55165SOL     OW74462   0.179   2.051  12.452  0.4581  0.0297 -0.3685
55165SOL    HW174463   0.247   2.059  12.518  2.3520  0.8081 -2.3196
55165SOL    HW274464   0.126   2.130  12.462 -1.4670 -1.4625  2.4177
55166SOL     OW74465   0.808  11.852   9.190  0.4725 -0.5692  0.0626
55166SOL    HW174466   0.803  11.810   9.104  0.2547  0.3868 -0.4066
55166SOL    HW274467   0.725  11.899   9.199  0.3303 -0.9805  0.9687
55167SOL     OW74468  10.972   2.584   9.491  0.0104  0.0529 -0.7341
55167SOL    HW174469  11.040   2.525   9.459  0.0649 -0.6658  0.6162
55167SOL    HW274470  10.904   2.582   9.423  0.1032 -1.4189 -0.8284
55168SOL     OW74471   8.542   8.892   9.916  0.1273 -0.5923  0.4530
55168SOL    HW174472   8.583   8.960   9.969  3.3022  0.0198 -2.4161
55168SOL    HW274473   8.461   8.932   9.884  0.5584  0.7788  1.0146
55169SOL     OW74474   4.364   5.026   0.403 -0.3942  0.4014  0.1954
55169SOL    HW174475   4.393   4.954   0.346  0.8016 -0.0780  1.3410
55169SOL    HW274476   4.320   4.982   0.476 -0.1552  0.8626  0.6233
55170SOL     OW74477  12.384   3.660   6.669  0.4480  0.3262  0.7890
55170SOL    HW174478  12.328   3.679   6.594  1.0699  0.3888  0.3312
55170SOL    HW274479  12.406   3.567   6.659  1.0847  0.5033  0.5138
55171SOL     OW74480   8.925   4.217   4.482 -0.0373 -0.2120  0.3645
55171SOL    HW174481   8.904   4.124   4.486  2.8533 -1.2128 -2.8267
55171SOL    HW274482   9.005   4.225   4.534  0.6155  0.1371 -0.6862
55172SOL     OW74483   8.420   0.172   3.574  0.0324  0.5873  0.1307
55172SOL    HW174484   8.328   0.145   3.567 -0.0819  1.0049 -0.0126
55172SOL    HW274485   8.424   0.221   3.656  0.4659 -0.7235  0.9235
55173SOL     OW74486   9.599   9.332   1.654 -0.2062  0.1019  0.7129
55173SOL    HW174487   9.596   9.426   1.672 -0.8239  0.1934  0.1510
55173SOL    HW274488   9.692   9.312   1.650 -0.0549  0.8962 -0.1817
55174SOL     OW74489   5.407   2.965   3.478 -0.0520  0.5857  0.2983
55174SOL    HW174490   5.373   2.881   3.511  0.9339  1.1127  2.8767
55174SOL    HW274491   5.442   2.944   3.391  0.1030 -1.6670  0.8427
55175SOL     OW74492   2.385   9.131   5.724  0.2872  0.1763  0.3911
55175SOL    HW174493   2.335   9.055   5.754  1.8297 -1.3761 -0.7772
55175SOL    HW274494   2.460   9.135   5.784  1.1251 -0.3364 -0.5842
55176SOL     OW74495   0.015   3.546   1.919  0.5383 -0.3510  0.5118
55176SOL    HW174496  -0.005   3.462   1.878  0.3271  0.2297 -0.6042
55176SOL    HW274497  -0.060   3.564   1.977  0.7747 -1.1054  1.0722
55177SOL     OW74498   2.131   7.545  11.395  0.2577 -0.2494  0.2098
55177SOL    HW174499   2.119   7.567  11.303  1.1724 -0.2539  0.0802
55177SOL    HW274500   2.184   7.616  11.431  2.0258 -1.4436  0.1239
55178SOL     OW74501   2.633   6.801   0.012 -0.0675  0.0987 -0.3303
55178SOL    HW174502   2.565   6.833   0.072  1.5096  2.1982  0.4822
55178SOL    HW274503   2.622   6.853  -0.067  0.5235  0.4111 -0.2139
55179SOL     OW74504   2.351   4.888   0.804 -0.0474  0.1534 -0.5594
55179SOL    HW174505   2.332   4.976   0.772 -1.3856 -0.2521 -0.9208
55179SOL    HW274506   2.362   4.900   0.899 -1.3363  0.5409 -0.4480
55180SOL     OW74507   3.120  12.282   9.438 -0.1989 -0.6904  0.2071
55180SOL    HW174508   3.028  12.255   9.445  0.1947 -2.8050 -1.4794
55180SOL    HW274509   3.164  12.234   9.508 -0.2548 -0.2828  0.5245
55181SOL     OW74510   1.131   7.246   8.055  0.4579 -0.4506 -0.1580
55181SOL    HW174511   1.209   7.292   8.023 -1.1620  0.8926 -2.5818
55181SOL    HW274512   1.157   7.208   8.138  2.9790  1.9837  0.3172
55182SOL     OW74513   6.508   1.782   7.230  0.4263 -0.1598  0.2110
55182SOL    HW174514   6.435   1.808   7.174  0.2798 -0.4751  0.2569
55182SOL    HW274515   6.484   1.695   7.263  0.7922 -0.2371  0.2775
55183SOL     OW74516   6.612   8.238   4.706 -0.2996  0.2213 -1.3156
55183SOL    HW174517   6.699   8.199   4.700 -0.6260 -0.2646 -4.1314
55183SOL    HW274518   6.553   8.163   4.711 -0.6523  0.5076 -1.1329
55184SOL     OW74519   2.689   1.166  12.456  0.3250 -0.6148 -0.1430
55184SOL    HW174520   2.674   1.176  12.362 -1.9977 -2.1609 -0.0272
55184SOL    HW274521   2.630   1.230  12.496  2.0313  0.7394  0.2996
55185SOL     OW74522  12.452  10.544  10.941 -0.5818 -0.5734  0.2068
55185SOL    HW174523  12.465  10.618  11.000  0.3743 -1.8702  1.7030
55185SOL    HW274524  12.389  10.488  10.986 -0.9183 -0.9150 -0.6673
55186SOL     OW74525   3.520   3.845   6.233  0.3286 -0.3094 -0.3316
55186SOL    HW174526   3.527   3.780   6.164 -0.0219 -0.5376 -0.1571
55186SOL    HW274527   3.605   3.889   6.234  0.5940 -0.8190 -0.3980
55187SOL     OW74528  11.387   4.397   6.646  0.2023 -0.2565 -0.2219
55187SOL    HW174529  11.427   4.471   6.601 -1.4570  0.0668 -1.2816
55187SOL    HW274530  11.390   4.325   6.583 -0.5626 -0.3185 -0.1977
55188SOL     OW74531   7.022   6.609   0.016 -0.4134 -0.0569 -0.0843
55188SOL    HW174532   7.043   6.520  -0.011 -0.2427  0.4526 -1.7800
55188SOL    HW274533   6.969   6.643  -0.057 -0.7916  1.1011  0.7112
55189SOL     OW74534   4.976   2.898   8.577 -0.2841  0.0749 -0.6770
55189SOL    HW174535   4.890   2.940   8.567  0.2848  1.5656  0.3809
55189SOL    HW274536   5.039   2.969   8.567  0.7997 -0.8025 -0.3332
55190SOL     OW74537   9.713   7.197   6.433 -0.8436 -0.1838  0.1717
55190SOL    HW174538   9.620   7.177   6.424 -0.7015 -1.2953  0.9867
55190SOL    HW274539   9.726   7.211   6.526  0.0823 -1.6062  0.2813
55191SOL     OW74540  10.131   9.003   1.664 -0.0770 -0.4798 -0.2342
55191SOL    HW174541  10.216   8.974   1.698  0.9300  0.9890 -1.3926
55191SOL    HW274542  10.105   8.934   1.604  0.8518 -0.4235 -0.7209
55192SOL     OW74543   0.062   5.838   9.967 -0.2308  0.7200 -0.8096
55192SOL    HW174544   0.014   5.795  10.038  0.9027 -0.9702 -1.0012
55192SOL    HW274545   0.135   5.883  10.010  1.2548 -1.4313 -0.9330
55193SOL     OW74546   9.326   5.076   6.142  0.0600 -0.1983  0.3285
55193SOL    HW174547   9.282   5.017   6.081  0.2555  0.5805 -0.5669
55193SOL    HW274548   9.414   5.088   6.106 -1.0905  3.6819 -1.7012
55194SOL     OW74549   2.182   1.127   2.111 -0.0365 -0.2296  0.3681
55194SOL    HW174550   2.241   1.159   2.179 -0.4343  1.0159  0.1483
55194SOL    HW274551   2.169   1.202   2.053 -1.5527 -0.5772  0.2183
55195SOL     OW74552   5.497   9.535   8.616  0.3024  0.5752 -0.1836
55195SOL    HW174553   5.436   9.553   8.687  3.1194 -0.0309  2.5711
55195SOL    HW274554   5.484   9.607   8.554  0.6701  3.6245  3.0218
55196SOL     OW74555   2.495   1.822   4.226  0.1202  0.4553  0.2511
55196SOL    HW174556   2.571   1.773   4.196 -0.6608 -0.4267 -0.3526
55196SOL    HW274557   2.420   1.780   4.183 -0.5250  2.7544 -1.0604
55197SOL     OW74558   0.272   5.338   5.978  0.0829 -0.1790 -0.3434
55197SOL    HW174559   0.218   5.356   6.055 -0.3632  0.4472 -0.7981
55197SOL    HW274560   0.291   5.245   5.984 -3.9063 -1.2945 -1.9678
55198SOL     OW74561   0.614   2.984   4.734  0.0278 -0.6960  0.4268
55198SOL    HW174562   0.566   3.060   4.767 -1.0249 -0.8496 -0.6689
55198SOL    HW274563   0.691   2.978   4.790 -0.1347  0.8642  0.8672
55199SOL     OW74564   8.271   0.738   6.478  0.2584  0.3535 -0.5821
55199SOL    HW174565   8.223   0.656   6.472 -0.9646  0.9869  0.1311
55199SOL    HW274566   8.212   0.804   6.440 -1.4780  1.9186  4.0552
55200SOL     OW74567   5.874   3.735   3.124 -0.1563  0.0752 -0.7559
55200SOL    HW174568   5.783   3.705   3.114  0.0936 -1.4277  0.9922
55200SOL    HW274569   5.883   3.754   3.217  1.1827  0.7613 -0.9988
55201SOL     OW74570   6.359   7.146   7.350 -0.1160  0.0892  0.4763
55201SOL    HW174571   6.353   7.174   7.441 -1.0583  0.5158  0.2920
55201SOL    HW274572   6.424   7.205   7.312  1.7679 -1.3500  1.3152
55202SOL     OW74573   0.929   5.749  11.214 -0.9272  0.2844  0.4101
55202SOL    HW174574   0.956   5.734  11.123  0.7027  1.0678  0.7374
55202SOL    HW274575   0.963   5.673  11.262 -2.3148 -0.4378  0.2966
55203SOL     OW74576  10.836   9.980   3.503  0.1971  0.1546 -0.5033
55203SOL    HW174577  10.807  10.070   3.519  1.2145  0.6483 -1.3433
55203SOL    HW274578  10.840   9.973   3.408 -0.0046 -0.8353 -0.4421
55204SOL     OW74579   3.313  11.557   1.226 -0.0545 -0.1677 -0.6049
55204SOL    HW174580   3.385  11.585   1.169 -0.6147 -2.1681 -2.4197
55204SOL    HW274581   3.343  11.475   1.265 -0.9974 -0.5872 -0.7326
55205SOL     OW74582   4.993   7.725   7.294 -0.4779 -0.3717  0.1823
55205SOL    HW174583   4.926   7.667   7.259 -1.8161  1.2082 -0.0406
55205SOL    HW274584   5.064   7.722   7.230 -0.2882 -2.0932  0.4296
55206SOL     OW74585   3.308   8.979   6.413  0.1545  0.7110  0.0977
55206SOL    HW174586   3.393   9.022   6.420 -0.3534  1.8578 -0.5177
55206SOL    HW274587   3.253   9.025   6.477 -0.0499  0.0713  0.3912
55207SOL     OW74588   8.148   5.578   0.649  0.2917 -0.2197  0.0107
55207SOL    HW174589   8.112   5.493   0.675 -0.7226  0.9481  2.7172
55207SOL    HW274590   8.242   5.570   0.665  0.0194 -0.3934  1.6265
55208SOL     OW74591  11.474   2.493   2.853  0.4893 -0.5845 -0.1505
55208SOL    HW174592  11.398   2.466   2.905  1.4223 -0.5740  1.2850
55208SOL    HW274593  11.444   2.567   2.801 -0.6482 -0.9993 -0.0964
55209SOL     OW74594   3.385   9.938   8.769 -0.1022 -0.5931  0.2453
55209SOL    HW174595   3.338  10.020   8.748 -1.4168 -1.7292 -1.5672
55209SOL    HW274596   3.328   9.893   8.831 -0.1838 -0.8706 -0.0313
55210SOL     OW74597  12.029   0.081   4.636  0.0044 -0.5834  0.1069
55210SOL    HW174598  12.085   0.073   4.559  1.3074 -0.3448  1.0040
55210SOL    HW274599  12.072   0.145   4.692 -0.8261 -0.8668  1.1192
55211SOL     OW74600   9.483   3.327   9.623  0.0239 -0.1914 -0.2601
55211SOL    HW174601   9.489   3.310   9.716  1.8628 -2.3564 -0.6894
55211SOL    HW274602   9.435   3.252   9.587 -1.1310  0.8631 -1.0424
55212SOL     OW74603   2.443   8.998   8.790  0.4514  0.0745  0.2866
55212SOL    HW174604   2.514   9.004   8.726  0.5715  0.0500  0.4151
55212SOL    HW274605   2.399   9.083   8.785  2.4936  1.4230  2.4937
55213SOL     OW74606   5.473   8.509  11.587  0.0663 -0.2446 -0.0035
55213SOL    HW174607   5.508   8.579  11.641 -0.6938  0.6255 -0.6070
55213SOL    HW274608   5.544   8.446  11.580  1.5903  1.4853 -1.2217
55214SOL     OW74609   9.588  10.244   4.529  0.0480 -0.1390  0.7094
55214SOL    HW174610   9.522  10.253   4.598  0.1850  2.5427  0.6034
55214SOL    HW274611   9.552  10.180   4.469 -3.3949  2.3932 -0.2416
55215SOL     OW74612   1.286   6.101  10.370 -0.3722  0.1915  0.0785
55215SOL    HW174613   1.314   6.159  10.441  0.5483 -0.5713  0.3544
55215SOL    HW274614   1.217   6.047  10.409 -0.1860  0.0834  0.2588
55216SOL     OW74615   3.358  11.399  12.509 -0.3628  0.4127 -0.1651
55216SOL    HW174616   3.308  11.318  12.519  0.8536 -0.4401 -0.8250
55216SOL    HW274617   3.440  11.384  12.555  0.2132  0.9519 -0.9729
55217SOL     OW74618   2.054   1.360   7.192 -0.1384  0.4480 -0.1959
55217SOL    HW174619   1.964   1.392   7.193  0.3734  1.9137  0.0922
55217SOL    HW274620   2.083   1.367   7.283  0.5286  0.7201 -0.4322
55218SOL     OW74621   2.075   2.186  10.842  0.2741  0.4840  0.3418
55218SOL    HW174622   2.051   2.118  10.779  1.2273  0.0911  0.3875
55218SOL    HW274623   1.994   2.235  10.857 -0.0253  0.4182 -0.9761
55219SOL     OW74624  10.979   4.225   1.074 -0.0565  0.2905  0.3502
55219SOL    HW174625  11.059   4.187   1.111  0.7695  0.4421 -1.1710
55219SOL    HW274626  10.984   4.205   0.980 -1.5803  0.7185  0.1429
55220SOL     OW74627   0.928   2.725  11.435  0.0921 -0.0600 -0.0090
55220SOL    HW174628   0.998   2.700  11.375 -0.2886 -2.5992  0.4773
55220SOL    HW274629   0.861   2.763  11.379  0.6492 -0.3501 -0.8941
55221SOL     OW74630  11.642   8.912   2.093 -0.1505  0.7020 -0.2851
55221SOL    HW174631  11.695   8.898   2.015  1.4506  0.8110  0.7301
55221SOL    HW274632  11.679   8.852   2.158 -0.8617  1.2552  0.6624
55222SOL     OW74633   4.858   4.290   7.857  0.9391  0.1736 -0.6843
55222SOL    HW174634   4.816   4.289   7.771  0.5335 -2.2960 -0.5399
55222SOL    HW274635   4.947   4.321   7.840  0.7615  0.0239 -1.9424
55223SOL     OW74636  10.548  11.188   1.221  0.3671  0.2659  0.3480
55223SOL    HW174637  10.554  11.273   1.178  0.3563 -0.4725 -1.2175
55223SOL    HW274638  10.592  11.128   1.160  0.1327 -0.8895  1.2777
55224SOL     OW74639   6.809   4.461   3.482  0.0238 -0.6155  0.2801
55224SOL    HW174640   6.744   4.488   3.418  1.7922  1.7079 -0.6837
55224SOL    HW274641   6.771   4.485   3.567 -0.2004  1.1919 -0.3005
55225SOL     OW74642   2.648   5.644  11.500 -0.1271 -0.0576 -0.2908
55225SOL    HW174643   2.704   5.615  11.572  0.9270 -0.5136 -1.2629
55225SOL    HW274644   2.709   5.672  11.432 -1.0321 -1.5217 -1.7821
55226SOL     OW74645   7.302   4.839  12.167 -0.3172  0.5020 -0.3858
55226SOL    HW174646   7.211   4.809  12.162 -0.2510  0.3714 -0.8816
55226SOL    HW274647   7.331   4.841  12.076  0.5983 -0.7702 -0.1459
55227SOL     OW74648   6.517   0.268   7.679  0.3715 -0.2634  0.1086
55227SOL    HW174649   6.519   0.238   7.589  1.1709 -0.5901  0.2208
55227SOL    HW274650   6.486   0.192   7.729 -2.3272  0.5949 -0.1007
55228SOL     OW74651   7.587   4.738  11.667 -0.2848 -0.1670  0.3927
55228SOL    HW174652   7.630   4.671  11.720  2.2255  0.6690 -0.4382
55228SOL    HW274653   7.595   4.818  11.719 -0.2882  0.1153 -0.0397
55229SOL     OW74654  12.225  11.037   4.547 -0.1152 -0.7360  0.7617
55229SOL    HW174655  12.260  11.015   4.461  1.8447 -0.0416  1.3276
55229SOL    HW274656  12.164  11.110   4.531  0.6406 -0.2544  0.0195
55230SOL     OW74657   6.949   0.389   0.827 -0.0338  0.2779  0.3685
55230SOL    HW174658   6.983   0.374   0.738 -0.0387  1.2164  0.1907
55230SOL    HW274659   6.863   0.347   0.827  0.7455 -1.4079  0.5598
55231SOL     OW74660   5.139   2.939   8.101  0.4710  0.2100  0.1946
55231SOL    HW174661   5.131   3.025   8.142 -1.7078 -0.4995  1.4032
55231SOL    HW274662   5.191   2.888   8.163 -0.2845 -0.0074  0.6625
55232SOL     OW74663   2.228   0.494   2.584 -0.8626  0.0740 -0.8266
55232SOL    HW174664   2.229   0.533   2.672 -1.7316 -1.4777 -0.0944
55232SOL    HW274665   2.154   0.537   2.540  2.1196  4.1523 -2.4887
55233SOL     OW74666  10.613   7.911   7.808 -0.2398 -0.1746 -0.2623
55233SOL    HW174667  10.522   7.942   7.807 -0.8460 -1.7365  1.4126
55233SOL    HW274668  10.619   7.852   7.732 -1.4311 -2.0478  1.0245
55234SOL     OW74669  12.324   4.402   2.303  0.2870  0.3598  0.2040
55234SOL    HW174670  12.388   4.440   2.243  0.5602 -0.3970  0.0057
55234SOL    HW274671  12.273   4.477   2.334  0.2427  0.7898 -0.8458
55235SOL     OW74672  11.905  10.262   4.003 -0.2029  0.2306  0.7319
55235SOL    HW174673  11.979  10.224   3.956  0.5022 -1.1392  2.8179
55235SOL    HW274674  11.925  10.356   4.006  0.0129  0.2837 -1.1001
55236SOL     OW74675   0.665  10.214  10.764  0.0795  0.4234  0.0323
55236SOL    HW174676   0.747  10.220  10.715  0.2700 -0.7608  0.1602
55236SOL    HW274677   0.597  10.207  10.698  0.2909 -0.6927 -0.0844
55237SOL     OW74678   9.012   9.935   9.195  0.7684  0.2319  0.2788
55237SOL    HW174679   9.011  10.005   9.260  1.8684  2.1937 -1.6815
55237SOL    HW274680   8.920   9.922   9.172  0.3321 -0.6949  2.3185
55238SOL     OW74681   8.696  11.279   3.604  0.1883 -0.1208 -0.2552
55238SOL    HW174682   8.650  11.217   3.661 -0.6886 -0.4689 -1.3120
55238SOL    HW274683   8.674  11.365   3.639  2.0667 -0.3664  1.7235
55239SOL     OW74684   1.091   9.258  12.441 -0.7328 -0.4977 -0.1616
55239SOL    HW174685   1.027   9.311  12.393  0.5005  0.7438 -0.4909
55239SOL    HW274686   1.075   9.279  12.533  1.1326  2.2301 -0.3495
55240SOL     OW74687   4.053   9.585  10.362 -0.0443 -0.5353  0.0368
55240SOL    HW174688   4.060   9.662  10.418  1.6871 -1.0977  0.6658
55240SOL    HW274689   4.053   9.619  10.273 -1.1695  0.2749  0.3341
55241SOL     OW74690   9.510  11.591  12.355 -0.3354 -0.0834 -0.0455
55241SOL    HW174691   9.556  11.616  12.275  0.7369 -0.5075  0.4181
55241SOL    HW274692   9.496  11.674  12.401 -0.0373  0.0550 -0.1979
55242SOL     OW74693   9.036   3.107   2.119 -0.2129  0.5770 -0.8616
55242SOL    HW174694   9.082   3.147   2.193 -0.2294 -0.1675 -0.4414
55242SOL    HW274695   9.011   3.181   2.063  1.1420  1.0416 -0.8987
55243SOL     OW74696   5.449   0.525   5.685 -0.6861  0.0725  0.1927
55243SOL    HW174697   5.469   0.481   5.768 -1.0057 -1.2491 -0.4117
55243SOL    HW274698   5.471   0.617   5.701  2.5371 -0.6485  0.6837
55244SOL     OW74699   5.669   1.259  11.202 -0.3398 -0.3516  1.0328
55244SOL    HW174700   5.741   1.246  11.264  0.2894 -1.3078  0.1395
55244SOL    HW274701   5.632   1.343  11.226  1.4286  0.4400  1.1809
55245SOL     OW74702  12.387  10.011   8.874 -0.3088 -0.9293  0.0274
55245SOL    HW174703  12.359   9.947   8.808 -1.1673 -0.3263 -0.2194
55245SOL    HW274704  12.466  10.050   8.838 -2.0177  1.0961 -1.8742
55246SOL     OW74705  11.339   3.584   4.183 -0.2631 -0.1079  0.3112
55246SOL    HW174706  11.350   3.501   4.138 -1.4634 -0.4441  0.6130
55246SOL    HW274707  11.291   3.639   4.121  3.4651  1.6416 -1.3407
55247SOL     OW74708   1.386   5.134   2.688 -0.2695  0.3486 -0.0135
55247SOL    HW174709   1.325   5.204   2.709 -0.4542 -0.1095  1.0844
55247SOL    HW274710   1.446   5.172   2.624 -0.6607  1.3512  0.1993
55248SOL     OW74711   8.069   0.715  12.019 -0.4910  0.2973 -0.0816
55248SOL    HW174712   8.011   0.789  12.003 -0.2609  0.8793  1.5418
55248SOL    HW274713   8.152   0.755  12.044 -0.4126 -0.4856  0.9975
55249SOL     OW74714   8.936   9.897  12.419 -0.3870 -0.1044  0.2228
55249SOL    HW174715   8.876   9.970  12.436  0.5571  0.5912  0.6563
55249SOL    HW274716   8.968   9.912  12.330  0.2439  0.3413  0.5183
55250SOL     OW74717   1.955   0.119   2.619 -0.5971 -0.8918  0.1375
55250SOL    HW174718   2.036   0.074   2.595 -0.4881 -0.4055 -0.4269
55250SOL    HW274719   1.939   0.181   2.547 -0.0629  0.8847  1.4635
55251SOL     OW74720   7.556   9.151   9.848 -0.3086  0.2560 -0.4774
55251SOL    HW174721   7.587   9.208   9.918 -0.3113  0.0678 -0.3214
55251SOL    HW274722   7.480   9.196   9.812  0.3610  0.9217 -1.1252
55252SOL     OW74723   1.217  10.909   8.576 -0.2679  0.0172  0.1525
55252SOL    HW174724   1.138  10.858   8.597  0.5750 -2.0337 -1.2897
55252SOL    HW274725   1.237  10.957   8.656 -0.6425 -2.6244  1.9703
55253SOL     OW74726  11.285   0.334   6.618 -0.6372 -0.5524  0.3423
55253SOL    HW174727  11.340   0.394   6.568  0.1720  0.7708  2.6698
55253SOL    HW274728  11.328   0.249   6.609 -2.6667 -1.3891 -4.3235
55254SOL     OW74729   0.657   8.818   7.780  0.4514  0.0912  0.3395
55254SOL    HW174730   0.567   8.822   7.747  0.9390  0.9487 -0.9663
55254SOL    HW274731   0.702   8.889   7.735  2.1041 -1.1270 -0.0151
55255SOL     OW74732   0.583   2.820   2.796 -0.3240  0.5199  0.7137
55255SOL    HW174733   0.536   2.759   2.739 -0.1584 -0.4850  1.6270
55255SOL    HW274734   0.544   2.905   2.776 -0.4749  0.1574 -0.6814
55256SOL     OW74735   1.186   3.238  10.343  0.2047 -0.6162 -0.4656
55256SOL    HW174736   1.278   3.233  10.315  0.2552 -4.1029 -0.1855
55256SOL    HW274737   1.191   3.267  10.434  1.1189 -1.1391 -0.3272
55257SOL     OW74738  12.399   3.080   1.742  0.1401  0.3348  0.0923
55257SOL    HW174739  12.368   2.989   1.744  1.5436 -0.1681  0.6521
55257SOL    HW274740  12.334   3.126   1.690 -0.4567 -1.0487 -0.4565
55258SOL     OW74741   7.632   7.220  10.757 -0.0050 -0.2035 -0.2596
55258SOL    HW174742   7.711   7.170  10.735 -1.1821 -2.3337  0.0922
55258SOL    HW274743   7.597   7.177  10.835 -1.0305  1.2631  0.1194
55259SOL     OW74744   1.132   2.150  11.193  0.2634 -0.3479  0.1684
55259SOL    HW174745   1.178   2.233  11.183  0.7899 -0.6268  0.2597
55259SOL    HW274746   1.048   2.164  11.148  0.7282 -0.0770 -0.6410
55260SOL     OW74747   5.961  10.067   8.989  0.0795 -0.0943 -0.0527
55260SOL    HW174748   5.899  10.140   8.995  1.4271  0.9340  2.3764
55260SOL    HW274749   5.913   9.993   9.026 -0.6939 -0.0814 -0.9629
55261SOL     OW74750  11.074   2.979   3.910  0.2038  0.4812  0.1824
55261SOL    HW174751  10.988   3.020   3.918 -0.1641  0.0667 -1.3133
55261SOL    HW274752  11.056   2.890   3.880  1.1512  0.4074 -0.1978
55262SOL     OW74753  11.158   3.568   7.433  0.0876 -0.1373 -0.0073
55262SOL    HW174754  11.191   3.481   7.456  0.5258 -0.0062 -0.1405
55262SOL    HW274755  11.169   3.574   7.339 -1.7472 -0.6886 -0.3069
55263SOL     OW74756   5.228   9.414   7.063  0.0601 -0.1420  0.2103
55263SOL    HW174757   5.222   9.510   7.061 -0.7443 -0.2018 -1.3990
55263SOL    HW274758   5.302   9.394   7.006 -0.0583 -0.4962  0.1823
55264SOL     OW74759   0.382  12.406  10.779  0.0196  0.1802 -0.7916
55264SOL    HW174760   0.452  12.430  10.841 -0.3703 -0.9627  0.1252
55264SOL    HW274761   0.407  12.320  10.747 -1.3872 -0.6189  0.2067
55265SOL     OW74762   9.603   7.985   3.359  0.1347  0.2251 -0.3720
55265SOL    HW174763   9.577   8.017   3.272 -0.3687 -0.5751 -0.5384
55265SOL    HW274764   9.629   7.894   3.343  0.6696  0.2728  0.2172
55266SOL     OW74765   7.408   2.114  11.359 -0.0998 -0.3788  0.5511
55266SOL    HW174766   7.313   2.113  11.347 -0.2737  1.0663  1.6351
55266SOL    HW274767   7.434   2.022  11.347 -1.3525 -0.5252 -1.6717
55267SOL     OW74768   5.318  11.354  11.879 -0.4984  0.0390 -0.4231
55267SOL    HW174769   5.377  11.408  11.827 -0.3335 -0.2261 -0.5101
55267SOL    HW274770   5.240  11.409  11.890 -0.7219 -0.0709 -1.3398
55268SOL     OW74771   9.775   4.536   8.884  0.3151  0.1647  0.0247
55268SOL    HW174772   9.822   4.531   8.967  0.1578  1.6695  0.2310
55268SOL    HW274773   9.731   4.621   8.886 -1.1908 -0.5577 -0.8220
55269SOL     OW74774   6.219   2.779   8.349 -0.2333  0.0034 -0.0260
55269SOL    HW174775   6.260   2.822   8.274  2.4517 -0.6551  0.9493
55269SOL    HW274776   6.292   2.755   8.406 -2.0025 -1.5004  1.7634
55270SOL     OW74777   9.994   1.259   8.094 -0.2834 -0.3421  0.1539
55270SOL    HW174778   9.903   1.276   8.069 -0.6354 -3.1440 -0.8021
55270SOL    HW274779  10.044   1.331   8.054 -2.0331  1.3895  0.9162
55271SOL     OW74780   7.943   1.536   4.862 -0.5017  0.0296  0.7240
55271SOL    HW174781   7.880   1.468   4.884 -1.6217  0.9889  0.5472
55271SOL    HW274782   7.890   1.610   4.832  0.7456  0.5213 -0.3814
55272SOL     OW74783   0.879  12.310   2.720 -0.0464 -0.9598  0.2401
55272SOL    HW174784   0.847  12.238   2.774  0.3285 -1.6242 -0.4081
55272SOL    HW274785   0.916  12.268   2.643 -0.3901 -0.0343 -0.4464
55273SOL     OW74786   3.960   6.118  10.837 -0.5029 -0.4193 -0.1706
55273SOL    HW174787   3.997   6.204  10.815  0.2810 -0.3061  1.5045
55273SOL    HW274788   4.026   6.055  10.808 -0.2200 -0.3513  0.3131
55274SOL     OW74789   0.024  10.002  11.672 -0.0727  0.2527  0.5869
55274SOL    HW174790   0.075  10.083  11.676  2.3379 -1.0779 -0.8632
55274SOL    HW274791   0.014   9.976  11.763  2.2344  0.3914  0.9316
55275SOL     OW74792  10.552   9.511   5.292  0.1101 -0.2822  0.3817
55275SOL    HW174793  10.462   9.480   5.285 -0.7988  2.1012  0.4223
55275SOL    HW274794  10.579   9.524   5.201  0.6960 -1.6600  0.3424
55276SOL     OW74795   1.300   6.795  11.911  0.0676  0.4597 -0.5226
55276SOL    HW174796   1.330   6.746  11.987  0.3386  1.3439 -0.0486
55276SOL    HW274797   1.228   6.743  11.875  0.7302 -0.5745 -0.3855
55277SOL     OW74798   2.651   2.802   4.031 -0.3655 -0.3533  0.2101
55277SOL    HW174799   2.683   2.830   4.117 -0.8621 -2.9603  1.3405
55277SOL    HW274800   2.652   2.706   4.035  0.3699 -0.6176 -3.0048
55278SOL     OW74801   8.141   8.717   0.548 -0.6359  0.3720  0.2406
55278SOL    HW174802   8.233   8.692   0.552 -0.5296  0.8978  1.6779
55278SOL    HW274803   8.125   8.734   0.455  0.7462  0.4167 -0.0117
55279SOL     OW74804   9.208   3.656   1.316  0.1409 -0.0582  0.0662
55279SOL    HW174805   9.260   3.586   1.356 -0.3486 -0.2788  0.3315
55279SOL    HW274806   9.118   3.635   1.341  0.1341  1.6536  1.6429
55280SOL     OW74807   8.445   4.889   9.689  0.1732 -0.5653  0.3023
55280SOL    HW174808   8.503   4.918   9.619  1.0180 -2.8361 -0.0375
55280SOL    HW274809   8.504   4.847   9.752 -0.7618  0.0306  1.6153
55281SOL     OW74810   3.238   8.924  10.772  0.2266  0.2954  0.8268
55281SOL    HW174811   3.245   8.829  10.762 -0.2596  0.3047  0.3467
55281SOL    HW274812   3.233   8.957  10.682  1.5238  0.8724  0.9556
55282SOL     OW74813  11.642  11.167   6.565 -0.0342 -0.1396  0.2983
55282SOL    HW174814  11.672  11.177   6.656 -1.0866 -0.0061  0.6421
55282SOL    HW274815  11.681  11.085   6.536  0.4500 -0.1018  0.8185
55283SOL     OW74816   1.659   6.538  11.906  0.2487  0.3560  0.4350
55283SOL    HW174817   1.575   6.511  11.868 -0.7765  2.3297  1.1712
55283SOL    HW274818   1.724   6.504  11.844 -1.0848 -0.8299 -0.3992
55284SOL     OW74819   4.536   6.883  10.819 -0.1354  1.0435  0.5119
55284SOL    HW174820   4.631   6.894  10.825 -0.1544  1.0274  0.8278
55284SOL    HW274821   4.504   6.968  10.789 -0.0242  1.0589  0.4359
55285SOL     OW74822   7.299   7.000   1.624  0.5115 -0.2159 -0.2483
55285SOL    HW174823   7.248   7.081   1.633  0.6118 -0.2200  0.3791
55285SOL    HW274824   7.311   6.990   1.530 -0.8773 -0.3468 -0.4413
55286SOL     OW74825  11.777   5.607   5.958 -0.0809  0.2143  0.1476
55286SOL    HW174826  11.832   5.651   6.023 -0.4445  0.7051  0.1256
55286SOL    HW274827  11.778   5.664   5.882 -3.9049  2.4558  1.4829
55287SOL     OW74828  11.679   3.251  11.644 -0.7114 -0.2795 -0.4233
55287SOL    HW174829  11.711   3.170  11.606 -0.6432  0.4202 -1.9740
55287SOL    HW274830  11.602   3.273  11.591  0.3412  1.5956 -1.2829
55288SOL     OW74831   8.591   3.524   7.199  0.0954  0.2106 -0.2735
55288SOL    HW174832   8.499   3.501   7.181 -0.1878 -0.4059  1.7742
55288SOL    HW274833   8.588   3.570   7.282  1.6187  0.5705 -0.4023
55289SOL     OW74834   3.993  10.859   4.948  0.0611  0.0579 -0.3624
55289SOL    HW174835   3.903  10.858   4.981  0.9878 -1.2611  2.4295
55289SOL    HW274836   4.028  10.943   4.976  0.8376 -1.0485  2.2413
55290SOL     OW74837  11.289  11.010  10.485  0.3905 -0.2304  0.4989
55290SOL    HW174838  11.247  11.046  10.407  1.1086  1.4485  0.8485
55290SOL    HW274839  11.216  10.988  10.543 -0.1281 -0.9852 -0.4051
55291SOL     OW74840   5.183   8.293   1.583 -0.3407 -0.4699  0.1312
55291SOL    HW174841   5.264   8.244   1.589 -0.2042 -0.3769 -0.8715
55291SOL    HW274842   5.133   8.267   1.661  0.1918 -1.3300  0.1880
55292SOL     OW74843   1.915  11.226   1.620  0.3942  0.0333 -0.4928
55292SOL    HW174844   1.823  11.205   1.639  0.1416  1.6736  0.2816
55292SOL    HW274845   1.965  11.158   1.666 -0.4123 -0.1905  0.0840
55293SOL     OW74846  10.797   2.724   3.505 -0.3726  0.6380  0.5543
55293SOL    HW174847  10.848   2.793   3.462  0.6685  1.0332  2.3236
55293SOL    HW274848  10.718   2.715   3.451  1.7214 -0.4132 -2.6963
55294SOL     OW74849   4.624   0.182   8.238 -0.4357 -0.0557  0.4698
55294SOL    HW174850   4.566   0.169   8.313 -0.0660 -1.3733  0.5629
55294SOL    HW274851   4.712   0.166   8.274 -0.0802  1.0542  0.1398
55295SOL     OW74852   3.214   5.903   7.407 -0.1740 -0.4810 -0.0042
55295SOL    HW174853   3.132   5.931   7.449 -0.0651 -2.5739  1.7656
55295SOL    HW274854   3.282   5.928   7.469  0.2964 -0.8570 -0.3684
55296SOL     OW74855  11.647   9.763   0.401  0.1848  0.3852  0.0716
55296SOL    HW174856  11.678   9.704   0.470  0.1017  0.0655 -0.1609
55296SOL    HW274857  11.727   9.800   0.364  0.2302  0.5510  0.3329
55297SOL     OW74858   3.017   7.527   1.719  0.2441 -0.2497 -0.4230
55297SOL    HW174859   2.975   7.594   1.665  0.1012 -1.1404 -1.4528
55297SOL    HW274860   3.108   7.557   1.728  0.2492 -0.0400 -1.0931
55298SOL     OW74861   0.287   9.757   9.158  0.2771 -0.2781  0.0140
55298SOL    HW174862   0.323   9.714   9.236  0.1034 -0.1802  0.1481
55298SOL    HW274863   0.251   9.686   9.105  1.6338 -0.5096 -0.6392
55299SOL     OW74864   4.911  11.355   3.889  0.0382  0.2389  0.4643
55299SOL    HW174865   5.002  11.360   3.859 -0.5493  1.3429 -1.2857
55299SOL    HW274866   4.915  11.301   3.968  1.8630 -1.8900 -0.9505
55300SOL     OW74867   2.868   6.772  12.158  0.3398 -0.6126  0.2303
55300SOL    HW174868   2.775   6.771  12.180  0.5915 -1.1991  1.3480
55300SOL    HW274869   2.872   6.740  12.068 -0.6553  0.9441 -0.3955
55301SOL     OW74870   5.964   1.429   2.096 -0.1278 -0.3590 -0.2372
55301SOL    HW174871   5.948   1.338   2.070 -0.0345  0.1924 -2.4235
55301SOL    HW274872   5.893   1.449   2.157 -0.6333 -1.6482 -0.3650
55302SOL     OW74873   5.182   2.629   9.572  0.6240 -0.0816 -0.0293
55302SOL    HW174874   5.265   2.636   9.524  0.7829 -0.9451  0.1080
55302SOL    HW274875   5.120   2.593   9.509 -0.2025  2.3655 -0.7405
55303SOL     OW74876   0.467   3.200   4.033  0.0457  0.4162  0.5348
55303SOL    HW174877   0.523   3.211   4.110  0.6407 -0.8053  0.3105
55303SOL    HW274878   0.378   3.203   4.068  0.3095 -0.7210  1.3930
55304SOL     OW74879   8.336   7.221  10.981 -0.5290  0.5122  0.6274
55304SOL    HW174880   8.426   7.255  10.980 -0.0184 -0.7291 -1.5421
55304SOL    HW274881   8.290   7.273  10.915 -0.7597 -0.4094  0.0461
55305SOL     OW74882   2.736   2.231   2.967  0.5245  0.1571  0.2100
55305SOL    HW174883   2.653   2.253   3.009  0.3844 -1.2852  0.7431
55305SOL    HW274884   2.759   2.145   3.003  1.0393 -0.5701 -1.7501
55306SOL     OW74885   4.492   2.358   4.940 -0.1575 -0.4463 -0.1528
55306SOL    HW174886   4.579   2.349   4.979  1.0010  0.1825 -2.3977
55306SOL    HW274887   4.462   2.444   4.967  0.4206 -0.2131 -0.2343
55307SOL     OW74888   2.545  10.672   7.458 -0.1677  0.2082 -0.4680
55307SOL    HW174889   2.598  10.662   7.538 -0.0929  0.8740 -0.4293
55307SOL    HW274890   2.609  10.676   7.387 -0.2085  0.2510 -0.5019
55308SOL     OW74891   6.501   7.835   0.235 -0.5636 -0.0607  0.3959
55308SOL    HW174892   6.543   7.795   0.312  0.8642 -0.0342 -0.3317
55308SOL    HW274893   6.481   7.924   0.262 -0.0795 -0.0538  0.7475
55309SOL     OW74894   8.455   7.141  12.117  0.3342 -0.9787 -0.0469
55309SOL    HW174895   8.472   7.111  12.206 -0.9910 -0.7822  0.2832
55309SOL    HW274896   8.464   7.062  12.063  1.3688 -1.0509  0.2160
55310SOL     OW74897  10.207   6.206   9.111 -0.0285  0.1933 -0.4103
55310SOL    HW174898  10.118   6.197   9.146 -0.2901  1.7036 -0.6064
55310SOL    HW274899  10.256   6.251   9.179  0.7554 -1.1004 -0.0876
55311SOL     OW74900  12.392   3.395   3.406  0.2744  0.6134  0.2527
55311SOL    HW174901  12.372   3.470   3.350  0.7399 -0.0345 -0.8065
55311SOL    HW274902  12.306   3.356   3.425  0.2001 -0.0926 -1.3638
55312SOL     OW74903   2.202   4.780   2.324  0.0782  0.1909 -0.0115
55312SOL    HW174904   2.204   4.699   2.272  0.8340  0.6648 -0.7617
55312SOL    HW274905   2.110   4.803   2.329 -0.4961 -2.1302  2.5256
55313SOL     OW74906  10.532   9.477   0.466  0.0923  0.5468  0.4962
55313SOL    HW174907  10.563   9.521   0.387 -2.5860  2.0577  0.1722
55313SOL    HW274908  10.560   9.533   0.538  0.1351  0.6396  0.4069
55314SOL     OW74909   3.075  12.154   5.708  0.7668 -0.0836  0.0159
55314SOL    HW174910   3.120  12.073   5.685  1.5061  0.0435  0.9731
55314SOL    HW274911   3.144  12.212   5.741  0.3632  1.2120 -1.3288
55315SOL     OW74912   3.960   5.407   8.243  0.3174 -0.6196  0.2898
55315SOL    HW174913   3.886   5.362   8.283  0.2843  1.2277  2.5528
55315SOL    HW274914   4.015   5.433   8.318  1.3693  1.1859 -1.0315
55316SOL     OW74915   5.735  10.157  11.968 -0.6280 -0.2267 -0.7906
55316SOL    HW174916   5.743  10.226  11.902 -0.6123  0.2721 -0.2726
55316SOL    HW274917   5.671  10.095  11.932 -2.2770  1.1491 -0.3224
55317SOL     OW74918  11.754  10.888   8.089 -0.5371 -0.4512 -0.5309
55317SOL    HW174919  11.666  10.874   8.124 -1.6959  2.0113 -2.1873
55317SOL    HW274920  11.792  10.956   8.145  0.0785 -1.0302 -0.2280
55318SOL     OW74921   0.688  12.347   5.141  0.2690  0.6473  0.2586
55318SOL    HW174922   0.684  12.258   5.105  1.6663  1.5037 -2.2698
55318SOL    HW274923   0.739  12.339   5.221 -0.4340 -0.9432  0.5831
55319SOL     OW74924   2.324   6.265   6.705  0.7628  0.0563  0.5986
55319SOL    HW174925   2.405   6.268   6.654  0.9961  0.4615  0.9779
55319SOL    HW274926   2.331   6.339   6.765  0.0116  0.2202  0.4946
55320SOL     OW74927  12.467   4.991   4.120  0.2728 -0.3550 -0.3826
55320SOL    HW174928  12.378   5.008   4.151  0.7676 -0.0151  0.9529
55320SOL    HW274929  12.456   4.962   4.030 -1.1876 -0.3311 -0.2435
55321SOL     OW74930  10.460   2.830  11.682  0.1335  0.0242 -0.1707
55321SOL    HW174931  10.483   2.743  11.648  0.7043  0.1612 -0.1512
55321SOL    HW274932  10.438   2.881  11.604  1.4065  0.3279 -0.3562
55322SOL     OW74933   8.016  11.057   2.379  0.1659  0.1543 -0.1050
55322SOL    HW174934   8.019  11.150   2.357  0.0077  0.2621  0.3215
55322SOL    HW274935   8.002  11.013   2.295 -0.4250  0.5564 -0.2217
55323SOL     OW74936  11.702   5.379   7.068 -0.2474 -0.1167  0.8368
55323SOL    HW174937  11.667   5.384   6.979  0.1068  0.1360  0.7108
55323SOL    HW274938  11.688   5.288   7.094 -0.6120 -0.1215  0.6326
55324SOL     OW74939   4.663   0.551   2.210 -0.4167  0.0014  0.2192
55324SOL    HW174940   4.693   0.461   2.198 -1.4540 -0.2854 -0.3622
55324SOL    HW274941   4.657   0.587   2.121 -2.4548 -0.2117  0.2054
55325SOL     OW74942   5.796   8.357   1.782 -0.6456  0.3370 -0.4956
55325SOL    HW174943   5.747   8.275   1.778 -0.0126 -0.0745 -0.1305
55325SOL    HW274944   5.881   8.336   1.741  0.5689  0.0000  2.0008
55326SOL     OW74945   2.839   6.248   4.940 -0.4976  0.9179  0.1951
55326SOL    HW174946   2.913   6.207   4.986 -0.1844  0.7205 -0.4788
55326SOL    HW274947   2.763   6.197   4.966 -0.3170  0.7883  0.4764
55327SOL     OW74948   2.660   7.497   5.638  0.1062 -0.2236  0.3310
55327SOL    HW174949   2.621   7.472   5.722 -0.3680 -0.1950  0.1244
55327SOL    HW274950   2.655   7.593   5.638 -0.8752 -0.2639 -0.1807
55328SOL     OW74951   8.490   3.484   4.238  0.1828  0.2444  0.2092
55328SOL    HW174952   8.574   3.451   4.272 -0.2813  0.0465  1.1813
55328SOL    HW274953   8.466   3.554   4.298  0.2002  1.0738 -0.7280
55329SOL     OW74954  11.964   1.782   2.745 -0.0416 -0.0443  0.5116
55329SOL    HW174955  11.970   1.781   2.650  0.4633  1.5218  0.4962
55329SOL    HW274956  11.876   1.818   2.763 -0.2462 -0.6031  0.6396
55330SOL     OW74957  10.568   9.834   4.110  0.3421  0.0096  0.5040
55330SOL    HW174958  10.568   9.778   4.188 -2.6067 -1.3801 -0.3418
55330SOL    HW274959  10.535   9.777   4.040  1.1010  1.7307 -1.3484
55331SOL     OW74960   6.419  11.000   2.680 -0.5098  0.2410  0.1554
55331SOL    HW174961   6.440  10.982   2.588 -2.2294  0.5641 -0.3231
55331SOL    HW274962   6.450  10.922   2.727 -0.3266 -0.2722 -0.7925
55332SOL     OW74963  10.303   5.018   8.419  0.1985  0.0868 -0.3216
55332SOL    HW174964  10.256   4.951   8.469  0.7477 -1.3141 -1.6092
55332SOL    HW274965  10.393   4.986   8.414  0.3771  0.7052 -1.3550
55333SOL     OW74966   9.772  10.361   7.656  0.1041 -0.3908 -0.5404
55333SOL    HW174967   9.679  10.343   7.642  0.1940 -0.0042 -1.7510
55333SOL    HW274968   9.789  10.440   7.604  1.0728 -0.3707 -0.2042
55334SOL     OW74969  12.512   0.807   6.355 -0.0669 -0.4659 -0.4059
55334SOL    HW174970  12.549   0.719   6.347  1.1805  0.0521 -0.4989
55334SOL    HW274971  12.582   0.859   6.393  0.1716  1.0970 -2.8149
55335SOL     OW74972  12.160   1.376   2.038 -0.0921 -0.2172 -0.0706
55335SOL    HW174973  12.214   1.385   1.959 -1.5915 -0.2549 -1.1494
55335SOL    HW274974  12.151   1.465   2.071 -1.8167  0.2504 -1.6320
55336SOL     OW74975   8.339   7.204   4.288 -0.2612  0.1586  0.4613
55336SOL    HW174976   8.355   7.135   4.352  1.2031 -0.4610 -0.5176
55336SOL    HW274977   8.333   7.159   4.204 -3.0652  0.8569  0.1872
55337SOL     OW74978  11.655   2.442   5.740 -0.3046 -0.3359 -0.1805
55337SOL    HW174979  11.720   2.379   5.711 -0.2091 -0.3080 -0.0316
55337SOL    HW274980  11.627   2.487   5.661  1.8395  1.5629  0.0298
55338SOL     OW74981   3.998   5.841   4.368  0.3853 -0.7135 -0.4230
55338SOL    HW174982   4.002   5.924   4.320  1.2612 -0.6263 -0.2227
55338SOL    HW274983   3.967   5.778   4.303 -1.0951 -0.0843 -0.3583
55339SOL     OW74984  10.647   9.618  10.713  0.2543  0.6747 -0.3207
55339SOL    HW174985  10.642   9.709  10.745  0.9693  0.6384 -0.0978
55339SOL    HW274986  10.736   9.609  10.679  0.1430  0.0964 -0.4650
55340SOL     OW74987   1.923   4.290  11.773 -0.1889 -0.6997 -0.3937
55340SOL    HW174988   1.842   4.292  11.824  0.0138 -1.1140 -0.0508
55340SOL    HW274989   1.902   4.337  11.692 -0.4149  0.2853  0.2162
55341SOL     OW74990   9.290   4.854   0.511 -0.0068 -0.6435 -0.4398
55341SOL    HW174991   9.264   4.891   0.595 -0.7156  0.5386 -1.1427
55341SOL    HW274992   9.359   4.913   0.479 -2.3980  1.3343 -2.4100
55342SOL     OW74993   3.027   8.843   9.413 -0.2553 -0.4392 -0.7372
55342SOL    HW174994   3.108   8.810   9.452 -0.5261 -1.7916 -1.2323
55342SOL    HW274995   2.958   8.789   9.454 -1.1024  1.6724  0.7997
55343SOL     OW74996   2.506   3.395   6.989  0.2739 -0.4198 -0.8298
55343SOL    HW174997   2.416   3.414   6.965  0.4760  1.5198 -0.2277
55343SOL    HW274998   2.554   3.395   6.906 -0.1211 -0.5056 -1.0586
55344SOL     OW74999   4.308   2.973  12.050  0.0055  0.7581  0.5106
55344SOL    HW175000   4.349   3.039  11.993  1.5720  0.4307  1.2017
55344SOL    HW275001   4.315   2.892  12.001 -3.3447  1.2455 -1.0410
55345SOL     OW75002   5.143   2.371  10.980 -0.2150  0.3172 -0.3642
55345SOL    HW175003   5.211   2.439  10.972 -1.6797  1.7895 -0.9433
55345SOL    HW275004   5.158   2.332  11.066  1.8921 -0.0261 -0.8369
55346SOL     OW75005   6.579   1.869   9.915 -0.6010  0.0938  0.0821
55346SOL    HW175006   6.667   1.837   9.931 -0.6389  0.1392  0.3997
55346SOL    HW275007   6.587   1.965   9.920 -0.5076  0.1315 -0.7529
55347SOL     OW75008  11.537   3.215   1.285 -0.1013 -0.1351  0.4525
55347SOL    HW175009  11.584   3.165   1.352  1.0111  0.1612 -0.0747
55347SOL    HW275010  11.481   3.151   1.241  1.2233 -0.9264 -0.1498
55348SOL     OW75011   8.469   8.115   5.544  0.2474  0.2776  0.3440
55348SOL    HW175012   8.552   8.102   5.591 -0.0235  1.4826  1.1943
55348SOL    HW275013   8.425   8.031   5.551  0.5327  0.2183  1.6435
55349SOL     OW75014   8.182   6.320  11.217 -0.0166  0.1992  0.2615
55349SOL    HW175015   8.115   6.264  11.178  0.2531 -0.1283  0.2643
55349SOL    HW275016   8.132   6.388  11.263 -0.3337  0.7294 -0.8340
55350SOL     OW75017   9.526   8.815  12.295  0.4671 -0.3612  0.2161
55350SOL    HW175018   9.515   8.910  12.300  0.6233 -0.3940  1.4723
55350SOL    HW275019   9.532   8.796  12.201  1.2913  0.9603 -0.0170
55351SOL     OW75020   6.278   1.912   1.710 -0.7049 -0.1936  0.6233
55351SOL    HW175021   6.347   1.866   1.662  0.4951 -0.5886  2.5906
55351SOL    HW275022   6.201   1.907   1.653  0.1275 -2.2255 -0.4371
55352SOL     OW75023   8.461   8.963   4.419  0.0741 -0.3790  1.4205
55352SOL    HW175024   8.393   8.922   4.366  0.9218  0.6413 -0.5583
55352SOL    HW275025   8.417   8.985   4.501 -2.2678  1.0608 -0.0938
55353SOL     OW75026   9.752   9.585   1.447 -0.3765  0.1117  0.9777
55353SOL    HW175027   9.756   9.489   1.443  1.0694  0.1255  1.5781
55353SOL    HW275028   9.721   9.605   1.535 -0.5185  0.2001  0.9085
55354SOL     OW75029   9.587   9.511   9.555  0.4511 -0.9119 -0.5729
55354SOL    HW175030   9.648   9.466   9.496  0.9271 -0.1763 -0.6525
55354SOL    HW275031   9.526   9.442   9.584  1.1641 -1.5976 -0.6838
55355SOL     OW75032   4.610   6.090   2.095 -0.3843 -0.0135  0.0392
55355SOL    HW175033   4.570   6.176   2.108  2.3315  1.4849 -0.7622
55355SOL    HW275034   4.692   6.093   2.145 -0.6786 -2.5662  0.8625
55356SOL     OW75035   8.042  12.384   0.344 -0.1566 -0.5677 -0.4939
55356SOL    HW175036   8.108  12.353   0.407  1.0666  1.2761 -0.7786
55356SOL    HW275037   8.092  12.432   0.279 -1.6887 -0.1295 -1.3966
55357SOL     OW75038   2.951   4.307   5.704 -1.0244 -0.5495 -0.2283
55357SOL    HW175039   2.960   4.214   5.724 -1.5105 -0.3685  0.9199
55357SOL    HW275040   2.910   4.309   5.618 -0.9591 -1.3987 -0.2844
55358SOL     OW75041   7.239   6.189  10.628  0.3501 -0.4720 -0.0176
55358SOL    HW175042   7.285   6.238  10.560  1.0754  0.4907  1.1292
55358SOL    HW275043   7.286   6.210  10.708 -0.3764 -1.7281  0.7693
55359SOL     OW75044   4.722  12.014   9.194  0.3719  0.4334 -0.2438
55359SOL    HW175045   4.780  11.946   9.159 -1.1139 -0.4291 -1.1360
55359SOL    HW275046   4.778  12.066   9.251  1.3546 -2.2439  1.4479
55360SOL     OW75047   1.046  10.578  11.590 -0.0644 -0.2687 -0.7254
55360SOL    HW175048   1.059  10.667  11.623  0.9358 -0.5861 -0.2273
55360SOL    HW275049   1.009  10.530  11.664 -0.9272 -0.1971 -1.0979
55361SOL     OW75050   2.886   2.910   2.559 -0.7433  0.4196 -0.0171
55361SOL    HW175051   2.905   3.001   2.539 -0.7516  0.4121 -0.0583
55361SOL    HW275052   2.792   2.901   2.539 -0.2823 -0.1731 -2.1492
55362SOL     OW75053  12.372   0.948   1.866  0.0389  0.7860  0.0592
55362SOL    HW175054  12.285   0.915   1.886  0.0204  1.4213  1.1300
55362SOL    HW275055  12.380   1.027   1.920  1.6757  0.1342  0.8378
55363SOL     OW75056   9.315   5.061   6.769 -0.8899 -0.1881  0.6786
55363SOL    HW175057   9.376   5.134   6.758 -3.1742  1.6479 -0.7514
55363SOL    HW275058   9.339   4.999   6.700 -0.8768  0.7296 -0.1705
55364SOL     OW75059  12.131   9.619   1.394  0.3006  0.7265  0.0479
55364SOL    HW175060  12.110   9.578   1.310  0.4848 -1.2491  0.9118
55364SOL    HW275061  12.181   9.697   1.371  1.2593 -0.3259 -1.6475
55365SOL     OW75062   4.885   3.671   5.101 -0.1892  0.5910 -0.0477
55365SOL    HW175063   4.858   3.587   5.138 -2.0200  0.2701 -1.9546
55365SOL    HW275064   4.882   3.659   5.006 -2.0052  3.2143 -0.4293
55366SOL     OW75065   1.473  11.114   3.298  0.3719 -0.1058 -0.3807
55366SOL    HW175066   1.399  11.154   3.344  1.0442  1.2450 -0.4379
55366SOL    HW275067   1.432  11.063   3.228 -0.4793  1.8681 -1.3855
55367SOL     OW75068  12.154   1.408   8.019 -0.0876  0.3213  0.0983
55367SOL    HW175069  12.090   1.347   8.057  0.4079 -0.4550 -0.2645
55367SOL    HW275070  12.168   1.474   8.086  0.4525 -0.7851  1.1168
55368SOL     OW75071   6.445  11.072   9.133  0.6158  0.4223 -0.4094
55368SOL    HW175072   6.434  11.005   9.200 -2.6218 -1.1889 -2.3174
55368SOL    HW275073   6.530  11.052   9.093  1.2279 -0.4064  1.1991
55369SOL     OW75074   1.984   4.463  10.665 -0.0729 -0.3707 -0.4840
55369SOL    HW175075   1.924   4.538  10.657 -1.3972 -1.3676 -0.2100
55369SOL    HW275076   1.986   4.444  10.758  0.7629 -0.2971 -0.4805
55370SOL     OW75077  10.831   3.275   0.298  0.3574 -0.0582  0.0591
55370SOL    HW175078  10.809   3.347   0.358  0.7106  1.3837 -1.4731
55370SOL    HW275079  10.907   3.307   0.249  2.2592 -2.5526  1.1121
55371SOL     OW75080   2.706   7.966   4.167 -0.2194 -0.2263  0.2680
55371SOL    HW175081   2.776   7.924   4.116 -0.3429 -2.1584  1.5868
55371SOL    HW275082   2.625   7.929   4.131 -0.3735 -0.4845  0.8613
55372SOL     OW75083   2.170   8.373   1.384 -0.2924 -0.0152  0.2355
55372SOL    HW175084   2.202   8.340   1.468 -0.4181 -2.0755 -0.4665
55372SOL    HW275085   2.243   8.424   1.348  0.7298 -1.2689  0.4668
55373SOL     OW75086  12.243   0.095  10.927  0.1092  0.1011 -0.2893
55373SOL    HW175087  12.239   0.001  10.909  5.0098 -0.8079  1.6542
55373SOL    HW275088  12.282   0.101  11.015 -2.0822  4.0729  0.6717
55374SOL     OW75089   6.427   6.454   8.355  0.3521 -0.4821 -0.0696
55374SOL    HW175090   6.439   6.360   8.355  1.9589 -0.3123  0.9587
55374SOL    HW275091   6.422   6.478   8.448 -2.7393  0.1909 -0.2680
55375SOL     OW75092   5.972   3.115   9.220  0.0686  0.2331 -0.2278
55375SOL    HW175093   5.979   3.141   9.312 -1.3964  0.4520 -0.1501
55375SOL    HW275094   5.956   3.197   9.174  3.7545  0.6165 -1.1579
55376SOL     OW75095   1.579   8.519   8.482  0.4519 -0.2692 -0.1937
55376SOL    HW175096   1.559   8.612   8.494  0.6895 -0.5106  3.2353
55376SOL    HW275097   1.503   8.483   8.438  0.0579  1.4318 -0.9655
55377SOL     OW75098   2.348  11.001  12.295 -0.4727 -0.6838  0.2842
55377SOL    HW175099   2.262  11.027  12.261  0.1858  0.4873 -0.5806
55377SOL    HW275100   2.374  10.928  12.239  0.3273  0.8308 -1.4244
55378SOL     OW75101   7.058  12.266   2.918 -0.2113  0.0909 -0.5622
55378SOL    HW175102   7.051  12.178   2.953 -1.3465  0.7857  1.1142
55378SOL    HW275103   6.981  12.312   2.952  0.6157  1.8628 -0.9438
55379SOL     OW75104   4.516   4.331   3.311  0.4642 -0.1447  0.4639
55379SOL    HW175105   4.590   4.384   3.340  1.0220 -0.3929 -0.4691
55379SOL    HW275106   4.444   4.358   3.367  0.6891  1.7086 -0.0792
55380SOL     OW75107   7.617  11.360   3.126  0.0067 -0.3187 -0.7175
55380SOL    HW175108   7.576  11.440   3.092 -1.4384 -0.0283  1.4933
55380SOL    HW275109   7.631  11.306   3.049 -0.7264  1.2969 -2.0563
55381SOL     OW75110   9.105  12.151   7.060 -0.3160 -0.3590  0.3101
55381SOL    HW175111   9.172  12.220   7.054 -0.3308 -0.4383 -1.2237
55381SOL    HW275112   9.024  12.199   7.077 -0.4083  0.0917 -1.2263
55382SOL     OW75113   5.085   0.545   0.414 -0.0246  0.1036  0.0223
55382SOL    HW175114   5.171   0.529   0.375  0.0648 -1.6980  0.8377
55382SOL    HW275115   5.053   0.624   0.371  1.5447  0.1539 -1.1317
55383SOL     OW75116   3.476   8.107  12.122 -0.1178 -0.0825 -0.3157
55383SOL    HW175117   3.458   8.013  12.126 -0.5224  0.0051 -0.1021
55383SOL    HW275118   3.561   8.113  12.077  0.5309 -0.6238  0.7789
55384SOL     OW75119  11.430   5.427  11.266 -0.1547  0.1366  0.2212
55384SOL    HW175120  11.389   5.474  11.339 -1.7485  0.0276 -0.5604
55384SOL    HW275121  11.359   5.375  11.228  1.1608 -1.6210  0.0111
55385SOL     OW75122   7.461   5.183   6.327  0.0434 -0.1661  0.4563
55385SOL    HW175123   7.524   5.227   6.270  0.3991 -0.5680  0.5383
55385SOL    HW275124   7.470   5.090   6.306  0.9791 -0.4569  1.9350
55386SOL     OW75125   3.460   9.077   5.948 -0.4812  0.7739 -0.0814
55386SOL    HW175126   3.442   8.995   5.901 -1.8455  1.1254 -0.2249
55386SOL    HW275127   3.513   9.050   6.023 -1.5735 -0.3822  0.3240
55387SOL     OW75128   9.683   7.722   4.842 -0.3118 -0.0995  0.3651
55387SOL    HW175129   9.759   7.671   4.870 -0.2364 -0.9748 -1.2763
55387SOL    HW275130   9.657   7.681   4.759  1.8231  4.4874 -3.0275
55388SOL     OW75131   9.116   9.676  11.936 -0.0012 -0.1467  0.1006
55388SOL    HW175132   9.132   9.658  11.843 -0.7285  0.8569 -0.2418
55388SOL    HW275133   9.126   9.771  11.943 -0.5661 -0.1455  0.9258
55389SOL     OW75134   3.592   1.429   7.121 -0.5708 -0.2870 -0.6773
55389SOL    HW175135   3.662   1.439   7.186  0.1022  0.7919 -1.5432
55389SOL    HW275136   3.550   1.515   7.117 -2.4043 -1.0674  0.2750
55390SOL     OW75137   5.805  10.974   0.071 -0.3889  0.3503  0.2306
55390SOL    HW175138   5.820  11.064   0.040  0.9043 -0.3058 -1.1757
55390SOL    HW275139   5.710  10.962   0.065 -0.3119  0.4219 -3.3082
55391SOL     OW75140   2.616  11.997   0.387  0.1811 -0.3111  0.2838
55391SOL    HW175141   2.557  11.997   0.462 -0.7707  1.1107 -0.4262
55391SOL    HW275142   2.665  12.078   0.395  0.3409 -0.3306 -0.4243
55392SOL     OW75143   6.917   7.989   5.165  0.6335  0.7303  0.2649
55392SOL    HW175144   6.936   7.896   5.156 -0.2066  0.6059 -0.3556
55392SOL    HW275145   6.942   8.009   5.255 -0.7713 -0.5086  0.9827
55393SOL     OW75146   1.594   9.609   7.083 -0.2227 -0.5581 -0.1802
55393SOL    HW175147   1.668   9.667   7.069 -0.1765 -0.5482  0.0969
55393SOL    HW275148   1.627   9.541   7.141 -0.0221 -1.3695 -1.2289
55394SOL     OW75149  11.911   5.593   4.547 -0.2412 -0.0903 -0.0121
55394SOL    HW175150  11.960   5.589   4.465 -1.3407 -1.7256 -0.6454
55394SOL    HW275151  11.846   5.662   4.533  0.1665  0.2645 -0.1665
55395SOL     OW75152   6.834   0.053   4.954  0.3834 -0.0084 -0.4077
55395SOL    HW175153   6.885   0.121   4.997  1.7592 -1.4761  0.4080
55395SOL    HW275154   6.889   0.025   4.881  1.0974 -2.0104  0.8134
55396SOL     OW75155   3.047   5.312  11.766 -0.4717 -0.0561 -0.2239
55396SOL    HW175156   3.126   5.290  11.816 -0.1982  0.5217 -0.3865
55396SOL    HW275157   2.976   5.271  11.814 -0.0349 -0.8857 -0.2713
55397SOL     OW75158   8.188   9.509   1.418  0.4437 -0.2772 -0.2536
55397SOL    HW175159   8.113   9.457   1.446  1.0134 -0.5878  0.7471
55397SOL    HW275160   8.171   9.597   1.450 -0.6699  0.2952 -2.2160
55398SOL     OW75161   2.272   4.346   4.537 -0.2557  0.0915  0.5853
55398SOL    HW175162   2.310   4.422   4.493  0.4061 -0.7068 -0.2912
55398SOL    HW275163   2.204   4.381   4.594 -0.3725  1.2692 -0.2567
55399SOL     OW75164  10.653   1.189   2.790 -0.0962  0.4006  0.3260
55399SOL    HW175165  10.716   1.248   2.831  0.1303  1.0288 -0.8948
55399SOL    HW275166  10.665   1.202   2.696 -0.0428 -1.5912  0.0087
55400SOL     OW75167   7.832   5.705  11.630  0.3053  0.1860  0.2245
55400SOL    HW175168   7.755   5.651  11.613  1.0232 -0.7311 -0.1570
55400SOL    HW275169   7.808   5.756  11.707 -0.5242 -0.4062  0.3728
55401SOL     OW75170   5.956  11.189   5.788 -0.6185  0.1695 -0.0997
55401SOL    HW175171   6.020  11.170   5.857  1.4125 -0.5785 -2.0549
55401SOL    HW275172   5.872  11.166   5.827  0.3003  0.6634  2.4213
55402SOL     OW75173   1.487   5.603   2.582  0.3504 -0.4556 -0.0563
55402SOL    HW175174   1.427   5.638   2.516  0.8201  1.4480  0.4564
55402SOL    HW275175   1.468   5.509   2.585 -2.1228 -0.0346 -0.3957
55403SOL     OW75176   9.545   2.853   1.141 -0.4312  0.0724  0.8674
55403SOL    HW175177   9.631   2.862   1.183 -0.6313  0.2254  1.2445
55403SOL    HW275178   9.515   2.942   1.128 -0.6582  0.0144  0.9930
55404SOL     OW75179   3.896  11.884   2.905 -0.0114 -0.6254 -0.4191
55404SOL    HW175180   3.800  11.885   2.901  0.0225 -0.8979 -1.6373
55404SOL    HW275181   3.924  11.918   2.819  1.0068  1.8541  0.7838
55405SOL     OW75182   5.455   7.230  12.231  0.1257  0.4604 -0.2553
55405SOL    HW175183   5.403   7.191  12.301  3.0909 -1.8792  0.8339
55405SOL    HW275184   5.506   7.298  12.274 -0.8092  1.6862 -1.0090
55406SOL     OW75185   5.087   0.609   7.825  0.0938 -0.3920  0.1456
55406SOL    HW175186   5.096   0.695   7.784  0.0799  0.9241  2.6937
55406SOL    HW275187   5.178   0.581   7.840  0.1007  0.0103  0.8899
55407SOL     OW75188   5.816   2.721   6.536 -0.0344  0.7939 -0.1865
55407SOL    HW175189   5.807   2.657   6.465 -0.5479  0.9835 -0.2977
55407SOL    HW275190   5.734   2.771   6.533 -0.1563  0.6485  0.6914
55408SOL     OW75191   6.376   6.422  10.600  0.4784 -0.8362 -0.0367
55408SOL    HW175192   6.331   6.506  10.605  1.4460 -0.3582  1.0221
55408SOL    HW275193   6.468   6.442  10.616  0.7393 -2.0880  0.1854
55409SOL     OW75194  12.108  10.901   0.036 -0.3951  0.1830  0.1274
55409SOL    HW175195  12.074  10.923  -0.051 -0.4482  0.3503  0.1912
55409SOL    HW275196  12.190  10.855   0.018 -0.7990 -0.4912 -0.0352
55410SOL     OW75197  11.229  10.030   2.347  0.1167 -0.4529  0.2897
55410SOL    HW175198  11.274   9.970   2.287  0.9022 -0.0340  0.4441
55410SOL    HW275199  11.272  10.114   2.333  0.6388 -0.4463  1.7709
55411SOL     OW75200   9.137  10.598   3.308  0.2853  0.1510  0.2276
55411SOL    HW175201   9.043  10.586   3.321  0.1816  0.6265 -0.0460
55411SOL    HW275202   9.173  10.600   3.397  0.1814 -1.0488  0.3129
55412SOL     OW75203  11.783  10.112  11.996 -0.2378  0.3211 -0.4686
55412SOL    HW175204  11.840  10.179  11.958  0.0012 -0.2119 -1.0753
55412SOL    HW275205  11.730  10.081  11.922  0.2667 -0.7639 -0.4098
55413SOL     OW75206   4.105   6.848   2.660 -0.1810 -0.1374 -0.3162
55413SOL    HW175207   4.093   6.929   2.711 -1.6670  0.2354 -1.2106
55413SOL    HW275208   4.053   6.783   2.707 -0.0080 -0.2711 -0.3087
55414SOL     OW75209  11.998   3.761  10.258 -0.0510  0.1055  0.6278
55414SOL    HW175210  11.937   3.828  10.289 -0.4321 -0.2062  0.5560
55414SOL    HW275211  12.084   3.796  10.278 -0.2631  0.3989  1.0421
55415SOL     OW75212   3.085   3.150   6.063 -0.1624  0.0593  0.1392
55415SOL    HW175213   3.001   3.196   6.069 -0.4386 -0.6226  1.9114
55415SOL    HW275214   3.065   3.060   6.086  0.7614 -0.5217 -1.2034
55416SOL     OW75215   7.686  11.628  12.000 -0.3075  0.3943  0.1165
55416SOL    HW175216   7.593  11.611  12.018 -0.0308 -0.8205  0.5485
55416SOL    HW275217   7.721  11.543  11.973  0.9845  0.4859  1.3519
55417SOL     OW75218  10.595   9.546  11.884 -0.3424  0.0576  0.4259
55417SOL    HW175219  10.631   9.625  11.844 -1.4727  0.9459  1.0960
55417SOL    HW275220  10.625   9.475  11.828 -0.1167  1.0527 -0.7550
55418SOL     OW75221   4.315  11.757  12.150  0.3636 -0.0686  0.3712
55418SOL    HW175222   4.319  11.700  12.072  0.3577 -0.2153  0.4767
55418SOL    HW275223   4.372  11.714  12.214 -1.1053 -0.9910  1.1153
55419SOL     OW75224   2.819  12.117   4.939  0.0202  0.0704 -0.0254
55419SOL    HW175225   2.858  12.100   4.853  1.5132  1.7294  0.2516
55419SOL    HW275226   2.894  12.138   4.995 -0.9202 -1.0373  1.7159
55420SOL     OW75227   8.716   2.516   2.493 -0.1297  0.1005 -0.3244
55420SOL    HW175228   8.655   2.573   2.538 -1.1898  0.3387 -1.9833
55420SOL    HW275229   8.661   2.459   2.439  0.7762 -3.2788  1.9788
55421SOL     OW75230   6.898  10.047   5.866 -0.4476  0.3133 -0.9088
55421SOL    HW175231   6.923  10.075   5.954 -3.0117 -0.8296  0.2998
55421SOL    HW275232   6.817  10.094   5.848 -2.1997 -2.4415 -0.8518
55422SOL     OW75233  11.039  11.247   6.023 -0.0371  0.5418  0.2338
55422SOL    HW175234  11.107  11.263   5.958 -0.9327  1.8007 -0.4404
55422SOL    HW275235  11.077  11.182   6.082  0.8572 -0.5513 -1.4590
55423SOL     OW75236   6.206   7.467   8.261  0.3554 -0.1008 -0.3136
55423SOL    HW175237   6.269   7.508   8.320  1.0677  1.3937 -2.0225
55423SOL    HW275238   6.126   7.460   8.313  0.9571  1.1297  0.8520
55424SOL     OW75239   1.578   6.565  12.167 -0.0600  0.0637  0.4679
55424SOL    HW175240   1.536   6.651  12.166 -2.1127 -0.8718  1.1252
55424SOL    HW275241   1.611   6.554  12.078 -0.3306  1.2615  0.1988
55425SOL     OW75242   6.405   0.953  11.490 -0.1810  0.5248  0.4000
55425SOL    HW175243   6.318   0.913  11.494  1.6943 -3.9845  1.5198
55425SOL    HW275244   6.419   0.970  11.396 -2.1491  1.3884  0.1953
55426SOL     OW75245  10.437   6.763   3.580  1.0854 -0.0992 -1.2285
55426SOL    HW175246  10.367   6.762   3.645  0.7639  1.0890 -1.5380
55426SOL    HW275247  10.512   6.724   3.625  0.6826  0.1145 -0.3550
55427SOL     OW75248   8.482   4.637   8.934 -0.4386  0.1281 -0.5267
55427SOL    HW175249   8.493   4.602   9.022 -2.2141 -0.1838 -0.3918
55427SOL    HW275250   8.493   4.561   8.877  1.5471  0.4719 -0.6900
55428SOL     OW75251   9.893   7.914   7.309  0.3747 -0.0828 -0.1455
55428SOL    HW175252   9.982   7.926   7.277  1.0142 -1.9232  0.7785
55428SOL    HW275253   9.898   7.835   7.364 -1.9579 -0.6354 -0.6297
55429SOL     OW75254   5.691   0.609   0.343  0.5206 -0.1516  0.6247
55429SOL    HW175255   5.701   0.694   0.387 -0.0919  1.2104 -1.6887
55429SOL    HW275256   5.695   0.545   0.414 -0.7651  1.9003  2.7036
55430SOL     OW75257   6.667   8.434   7.941 -0.4856 -0.1029 -0.0278
55430SOL    HW175258   6.701   8.484   7.866 -0.6948 -0.2637 -0.2303
55430SOL    HW275259   6.600   8.490   7.979 -1.4110 -0.6288 -0.8413
55431SOL     OW75260  11.827   2.619   9.929 -0.2158 -0.1361  0.2158
55431SOL    HW175261  11.870   2.594  10.011  0.4112  0.4430  0.0729
55431SOL    HW275262  11.754   2.558   9.921  0.5208 -1.0900  0.5194
55432SOL     OW75263   3.705   5.189   4.364 -0.6370  0.2551  0.5913
55432SOL    HW175264   3.733   5.271   4.404 -1.0303  0.3426  0.6863
55432SOL    HW275265   3.665   5.140   4.436  0.2293 -0.3177  0.7012
55433SOL     OW75266   3.335  10.547   6.086 -0.1171 -0.1601  0.4008
55433SOL    HW175267   3.316  10.463   6.045  0.5539 -0.1935  0.1417
55433SOL    HW275268   3.430  10.554   6.083 -0.1998  0.9202 -0.2186
55434SOL     OW75269   2.869   9.534  12.138 -0.6567  0.4859 -0.2695
55434SOL    HW175270   2.943   9.490  12.095  0.5197  0.6113  1.4926
55434SOL    HW275271   2.835   9.594  12.072  0.0832 -0.4162 -1.5120
55435SOL     OW75272   1.507   5.402   9.610  0.0907  0.4863 -0.3216
55435SOL    HW175273   1.446   5.368   9.676 -0.4991  0.1277 -1.0434
55435SOL    HW275274   1.592   5.400   9.654 -0.2688  0.1115  0.3849
55436SOL     OW75275  12.280   2.471   7.681  0.2208 -0.2197  0.2587
55436SOL    HW175276  12.215   2.533   7.649 -1.7299 -2.0738  0.4131
55436SOL    HW275277  12.249   2.385   7.652  2.9643 -1.1638 -0.2153
55437SOL     OW75278  12.465   1.747  12.494  0.3592 -0.1733  0.0454
55437SOL    HW175279  12.395   1.707  12.442 -1.2248 -0.7813  2.4498
55437SOL    HW275280  12.544   1.736  12.441 -1.3598  0.9347 -2.9960
55438SOL     OW75281   8.660   8.941   9.663  0.3336 -0.4664 -0.5435
55438SOL    HW175282   8.730   8.879   9.643 -0.4703 -1.0886 -1.5354
55438SOL    HW275283   8.624   8.911   9.746  1.3737 -0.0000  0.0981
55439SOL     OW75284   7.118  10.404  11.075  0.2766  0.2009  0.0938
55439SOL    HW175285   7.067  10.442  11.004 -3.1230 -0.2342  2.1012
55439SOL    HW275286   7.131  10.476  11.136 -1.8979 -0.5919  1.6112
55440SOL     OW75287   1.457   8.619   6.042  0.4097  0.2634 -0.6001
55440SOL    HW175288   1.429   8.710   6.031 -1.7054 -0.0336  1.5920
55440SOL    HW275289   1.393   8.569   5.992 -1.1428 -0.2123  1.7093
55441SOL     OW75290   1.631  11.227   5.188 -0.1193 -0.0539 -0.6295
55441SOL    HW175291   1.538  11.214   5.170  0.0514 -0.6213 -1.1190
55441SOL    HW275292   1.658  11.147   5.233 -0.1486  0.6346  0.6646
55442SOL     OW75293   2.706   0.080   2.498 -0.5674 -0.6783 -0.3590
55442SOL    HW175294   2.673   0.117   2.416 -0.2267  0.4697  0.0135
55442SOL    HW275295   2.648   0.115   2.565 -0.6461 -1.3607 -0.0655
55443SOL     OW75296   8.629  10.719   3.367 -0.0405  0.3890 -0.6216
55443SOL    HW175297   8.580  10.640   3.347 -0.4483  0.5931 -0.4257
55443SOL    HW275298   8.563  10.787   3.381  0.2277  0.4132  0.7259
55444SOL     OW75299   4.470   3.096   7.459 -0.5118 -0.2042  0.0431
55444SOL    HW175300   4.506   3.013   7.429 -0.1149 -0.0340  0.0290
55444SOL    HW275301   4.457   3.147   7.379 -0.9537 -0.3300  0.0348
55445SOL     OW75302  11.504   9.632   3.812  0.8325  0.4276  0.0469
55445SOL    HW175303  11.430   9.573   3.828  0.9856  0.0470 -0.5939
55445SOL    HW275304  11.565   9.580   3.759  0.2490  1.6418 -1.9465
55446SOL     OW75305   2.107  11.847   4.307 -0.2774  0.2045  0.0551
55446SOL    HW175306   2.145  11.927   4.270  1.0992  0.3065  1.5724
55446SOL    HW275307   2.013  11.866   4.314 -0.1214  1.2831 -0.5415
55447SOL     OW75308   4.082   3.029  11.391  0.4735 -0.3774 -0.0637
55447SOL    HW175309   4.042   2.967  11.452 -0.5537 -0.4579 -0.7886
55447SOL    HW275310   4.147   2.977  11.344 -0.6834 -1.0647 -0.9743
55448SOL     OW75311  12.413   0.828   2.780  0.1012 -0.3922  0.1263
55448SOL    HW175312  12.493   0.877   2.798 -0.5949  0.4072  1.1213
55448SOL    HW275313  12.407   0.765   2.852 -0.4894 -0.0141  0.4168
55449SOL     OW75314   5.256   9.086   5.586  0.1281 -0.2380  0.1621
55449SOL    HW175315   5.176   9.038   5.567  1.2558 -1.4951 -1.8935
55449SOL    HW275316   5.298   9.036   5.655  1.2907 -2.4317 -1.9577
55450SOL     OW75317   4.025  10.350   1.969  0.4157  0.3635 -0.6732
55450SOL    HW175318   3.984  10.266   1.947  2.3968 -0.3298 -2.0076
55450SOL    HW275319   4.063  10.336   2.056  0.4525  0.0141 -0.7453
55451SOL     OW75320   5.189   5.262   9.559 -0.2325 -0.3909 -0.8384
55451SOL    HW175321   5.112   5.283   9.506 -0.7133 -0.1732 -0.0565
55451SOL    HW275322   5.257   5.322   9.527 -0.3981 -0.5304 -1.4717
55452SOL     OW75323   3.364   1.505   6.584  0.0575 -0.3793 -0.5491
55452SOL    HW175324   3.349   1.411   6.583  0.1742 -0.4065  0.0156
55452SOL    HW275325   3.379   1.528   6.492  0.6291 -1.0026 -0.6187
55453SOL     OW75326   3.845   7.264   9.212  0.4281 -0.5922  0.0049
55453SOL    HW175327   3.849   7.229   9.301  0.2445 -0.8347 -0.0829
55453SOL    HW275328   3.830   7.357   9.224  1.4461 -0.4394  0.2582
55454SOL     OW75329  11.232  12.546  10.322  0.1752 -0.7394 -0.3971
55454SOL    HW175330  11.214  12.635  10.352 -0.8701 -1.1702  0.2847
55454SOL    HW275331  11.317  12.553  10.278  0.9646  0.2411  1.1836
55455SOL     OW75332   1.859   3.349   8.839  0.1563  0.2303 -0.0648
55455SOL    HW175333   1.795   3.374   8.906  1.2497  0.4390  0.9393
55455SOL    HW275334   1.827   3.266   8.805 -0.8940  0.5632  0.0799
55456SOL     OW75335   7.259  11.868  10.864  0.6122 -0.1759  0.0019
55456SOL    HW175336   7.192  11.800  10.859 -0.1841  0.4994  0.9171
55456SOL    HW275337   7.252  11.914  10.780  2.0578 -1.9699 -1.1811
55457SOL     OW75338  10.049   2.595   1.571 -0.0142 -0.0559  0.0497
55457SOL    HW175339  10.137   2.615   1.601  0.6668 -0.9213 -1.2553
55457SOL    HW275340  10.013   2.679   1.544  0.0332  0.4440  1.4711
55458SOL     OW75341   2.603   7.259   5.515 -0.0153 -0.1668  0.4201
55458SOL    HW175342   2.629   7.341   5.558 -2.0616 -0.0741  1.6256
55458SOL    HW275343   2.546   7.287   5.443  1.1489 -0.4638 -0.6495
55459SOL     OW75344   2.887   3.509   3.624 -0.4325 -0.3511  0.0924
55459SOL    HW175345   2.946   3.568   3.671  0.7325 -0.7713 -0.8099
55459SOL    HW275346   2.858   3.559   3.548 -2.0876  0.2204  1.0323
55460SOL     OW75347  11.821  11.242   3.827 -0.3588  0.3830  0.3376
55460SOL    HW175348  11.907  11.203   3.811 -0.7199 -0.3383  0.1100
55460SOL    HW275349  11.769  11.220   3.750 -0.9642  0.1715  0.7925
55461SOL     OW75350  10.050   0.910   7.421  0.0551 -0.3110 -0.2563
55461SOL    HW175351   9.993   0.834   7.434 -1.9630  1.5531  3.2319
55461SOL    HW275352   9.999   0.969   7.366 -0.1141  0.1314  0.3695
55462SOL     OW75353   5.083   7.553  10.638 -0.4426 -0.2618  0.3670
55462SOL    HW175354   5.121   7.520  10.719  1.8275  0.5196 -0.3016
55462SOL    HW275355   5.010   7.608  10.666  0.8581  0.7390  1.9494
55463SOL     OW75356  10.281   2.345   2.230  0.5269 -0.2812 -0.1449
55463SOL    HW175357  10.366   2.331   2.187 -0.2625  0.8887 -2.2111
55463SOL    HW275358  10.270   2.440   2.230 -0.2784 -0.3604  1.1944
55464SOL     OW75359   7.765   8.148  10.716 -0.4906 -0.0104 -0.1695
55464SOL    HW175360   7.712   8.169  10.639 -0.7997  0.4597  0.1645
55464SOL    HW275361   7.852   8.127  10.680 -0.5752  0.4048 -0.6354
55465SOL     OW75362  12.318   7.907   3.293 -0.1675 -0.5917 -0.4760
55465SOL    HW175363  12.337   7.927   3.385 -2.0800  0.7351 -0.2987
55465SOL    HW275364  12.262   7.830   3.297  1.6374 -1.9854 -0.7359
55466SOL     OW75365   6.824   4.085   3.981  0.0215  0.0083 -0.2991
55466SOL    HW175366   6.821   4.040   4.065 -0.3811  0.4349 -0.0778
55466SOL    HW275367   6.864   4.022   3.921 -0.6570 -0.6914 -0.0313
55467SOL     OW75368   2.735   7.575   7.162  0.4776  0.3644 -0.1738
55467SOL    HW175369   2.692   7.489   7.161  0.7680  0.1924  0.7272
55467SOL    HW275370   2.820   7.558   7.204  0.3192  1.1855  0.4968
55468SOL     OW75371   1.732   1.610   7.279  0.4642 -0.4000 -0.3159
55468SOL    HW175372   1.801   1.645   7.334 -0.3632  1.8649 -0.6018
55468SOL    HW275373   1.684   1.550   7.336  1.1960 -0.1276  0.6139
55469SOL     OW75374   4.300   7.889  11.020 -0.2743 -0.1842  0.0814
55469SOL    HW175375   4.242   7.813  11.019 -0.4135 -0.0955  0.8396
55469SOL    HW275376   4.276   7.938  10.942  0.5036 -1.4197 -0.9651
55470SOL     OW75377   8.340   8.779   0.050  0.3292 -0.0338 -0.3396
55470SOL    HW175378   8.330   8.873   0.064  0.2736  0.0430 -0.8618
55470SOL    HW275379   8.327   8.768  -0.044  2.2193 -0.3077 -0.6018
55471SOL     OW75380  11.340   0.591   7.782 -0.0358  0.5344  0.4395
55471SOL    HW175381  11.246   0.586   7.798 -0.2952  1.3585 -0.6516
55471SOL    HW275382  11.359   0.514   7.729 -0.0278  0.1790  0.9585
55472SOL     OW75383  12.387   0.778  11.637  0.0341 -0.5027  0.1240
55472SOL    HW175384  12.362   0.699  11.590  0.1469 -0.7625  0.4972
55472SOL    HW275385  12.480   0.790  11.618  0.5445 -1.6270  1.7133
55473SOL     OW75386   2.818   8.954   8.406 -0.1836  0.3068  0.6245
55473SOL    HW175387   2.896   9.010   8.415  0.8219 -1.0380  0.5098
55473SOL    HW275388   2.852   8.869   8.380 -1.7464 -0.2070  0.1375
55474SOL     OW75389   1.788   0.951   0.800 -0.5762 -0.4129  0.0681
55474SOL    HW175390   1.778   0.901   0.719  0.9380 -1.1055  0.2641
55474SOL    HW275391   1.827   0.889   0.861 -1.9681  0.0143  1.4505
55475SOL     OW75392   3.545   4.883   9.550 -0.0467 -0.1980  0.4351
55475SOL    HW175393   3.599   4.812   9.516 -1.0841 -1.1993  0.7647
55475SOL    HW275394   3.566   4.958   9.496  0.7777 -0.8708 -0.2103
55476SOL     OW75395   1.632   0.322   7.654  0.0828  0.1457  0.3063
55476SOL    HW175396   1.716   0.287   7.627  0.4650  1.9479 -0.9746
55476SOL    HW275397   1.598   0.367   7.577 -1.4691  0.5391  1.1660
55477SOL     OW75398   9.657   6.579   1.669 -0.1750  0.1149  0.4085
55477SOL    HW175399   9.598   6.651   1.647 -0.2074  0.6932  2.2031
55477SOL    HW275400   9.602   6.501   1.664 -0.2659  0.2360 -1.0505
55478SOL     OW75401   1.593   9.697  10.597 -0.0611  0.3769  0.4431
55478SOL    HW175402   1.606   9.728  10.508 -0.2074  0.7112  0.5347
55478SOL    HW275403   1.624   9.768  10.652 -2.1638  1.2011  0.6627
55479SOL     OW75404   8.523   9.520   2.276 -0.0952 -0.1651  0.1884
55479SOL    HW175405   8.506   9.468   2.197 -2.7209  0.0121  0.5204
55479SOL    HW275406   8.510   9.457   2.348  1.0292 -0.0307  0.5227
55480SOL     OW75407   6.894   1.066   1.959 -0.1023 -0.4204  0.2163
55480SOL    HW175408   6.856   1.015   1.887 -1.1768 -0.5661  0.8731
55480SOL    HW275409   6.975   1.102   1.922 -1.2736  0.5851 -1.4954
55481SOL     OW75410   2.647  10.988   8.469  0.1012 -0.0189  0.1625
55481SOL    HW175411   2.600  11.002   8.387  0.9565 -0.7681 -0.4816
55481SOL    HW275412   2.731  11.032   8.457  1.0037 -1.7392 -0.1411
55482SOL     OW75413   6.587  11.640  11.389 -0.0654  0.0358 -0.2987
55482SOL    HW175414   6.502  11.666  11.424 -0.1796  0.0697 -0.6010
55482SOL    HW275415   6.650  11.692  11.440 -0.2803  0.7639 -0.7631
55483SOL     OW75416   1.807   2.190   7.939  0.8647 -0.1734 -0.0612
55483SOL    HW175417   1.764   2.107   7.916  0.3605  0.1295 -0.2369
55483SOL    HW275418   1.876   2.200   7.875  0.0461  0.2138 -0.9042
55484SOL     OW75419  12.256   7.133   6.111 -0.3350  0.3019  0.0871
55484SOL    HW175420  12.221   7.205   6.059 -0.5882 -1.0997 -1.8172
55484SOL    HW275421  12.192   7.122   6.182  0.5046  2.8651  1.3593
55485SOL     OW75422  12.378   3.380   6.719  0.0370 -0.0685 -0.1203
55485SOL    HW175423  12.296   3.365   6.765  0.4919 -1.4537  0.2783
55485SOL    HW275424  12.389   3.303   6.663  0.3362  0.7970 -1.3121
55486SOL     OW75425   7.553   5.755   2.500 -0.5659  0.4295  0.0098
55486SOL    HW175426   7.513   5.838   2.472 -1.1606  0.8094  1.8615
55486SOL    HW275427   7.480   5.704   2.536 -0.2444 -1.0211 -1.2908
55487SOL     OW75428  10.808  10.296   3.642 -0.0081 -0.0334 -0.2376
55487SOL    HW175429  10.721  10.329   3.662 -0.1334 -0.4363 -0.1086
55487SOL    HW275430  10.828  10.237   3.715 -0.2262 -1.0667 -0.9945
55488SOL     OW75431   2.907   1.266   8.528  0.0016 -0.4947  0.1389
55488SOL    HW175432   2.925   1.310   8.611  0.1131  1.0403 -0.6612
55488SOL    HW275433   2.925   1.173   8.546  0.4816 -0.1389  1.6861
55489SOL     OW75434   1.130   2.710  11.244  0.7271 -0.0503  0.0522
55489SOL    HW175435   1.080   2.791  11.232  0.5264 -0.0042  1.0759
55489SOL    HW275436   1.216   2.729  11.206  0.3132  0.2441 -0.7493
55490SOL     OW75437   2.526   5.285   3.050  0.4383 -0.5591 -0.6054
55490SOL    HW175438   2.591   5.285   2.980 -0.2568  0.7270 -1.2914
55490SOL    HW275439   2.574   5.257   3.128  1.6591 -0.2570 -1.2269
55491SOL     OW75440   0.846  11.729   3.986  0.2284  0.2399 -0.2151
55491SOL    HW175441   0.906  11.760   4.054  1.6170 -1.3526 -0.6335
55491SOL    HW275442   0.873  11.639   3.970  0.3612  0.7383 -3.3520
55492SOL     OW75443  12.587   3.796   1.505 -0.3374  0.0377  0.2556
55492SOL    HW175444  12.585   3.701   1.517  2.1259  0.1033  2.0209
55492SOL    HW275445  12.504   3.826   1.542 -1.3655 -1.4218 -0.7447
55493SOL     OW75446   9.287   9.205   3.352  0.3288  0.0814  0.4873
55493SOL    HW175447   9.201   9.178   3.384  0.9618 -1.8515  0.6729
55493SOL    HW275448   9.334   9.234   3.431  0.4544 -0.6102  0.6707
55494SOL     OW75449   3.443   1.185   8.113  0.0504  0.2280  0.2263
55494SOL    HW175450   3.353   1.210   8.136 -0.3480  0.2917 -1.3395
55494SOL    HW275451   3.471   1.250   8.049  0.3293 -1.1743 -1.1224
55495SOL     OW75452   8.390  11.727   7.385 -0.1885  0.0117  0.2753
55495SOL    HW175453   8.405  11.655   7.447  0.8644 -0.4534 -0.4986
55495SOL    HW275454   8.442  11.800   7.419 -1.6528  0.6172  1.3425
55496SOL     OW75455   6.005  11.133  10.755  0.4504  0.5776  0.4698
55496SOL    HW175456   5.964  11.156  10.672 -0.8887 -1.5549  0.4786
55496SOL    HW275457   5.966  11.194  10.818  0.6468  1.4700 -0.2534
55497SOL     OW75458   2.583   1.224   8.952 -0.2080 -0.1699 -0.6148
55497SOL    HW175459   2.620   1.226   8.864 -0.5777 -2.2579 -0.8602
55497SOL    HW275460   2.652   1.184   9.006 -1.3566 -2.4631 -0.7423
55498SOL     OW75461  10.241   8.889   3.452  0.3569  0.0250 -0.3509
55498SOL    HW175462  10.219   8.957   3.388 -0.5112 -0.3620 -0.4781
55498SOL    HW275463  10.177   8.819   3.436  1.0113 -0.6702  0.0158
55499SOL     OW75464   0.291   5.939  10.054  0.1319 -0.1078 -0.3720
55499SOL    HW175465   0.291   6.034  10.062  1.1438 -0.1600  0.4358
55499SOL    HW275466   0.382   5.916  10.038  0.1181 -1.0295  0.7527
55500SOL     OW75467   7.346   8.718  11.825 -0.1331  0.2294  0.1371
55500SOL    HW175468   7.353   8.693  11.733 -0.6414  1.7829 -0.3725
55500SOL    HW275469   7.422   8.774  11.841 -1.5570  2.4287 -0.2630
55501SOL     OW75470   9.994   3.278   9.516  0.2541 -0.6548 -0.2546
55501SOL    HW175471   9.979   3.364   9.556 -0.5223  0.6368 -3.0478
55501SOL    HW275472   9.914   3.229   9.536 -0.2490  0.0654 -0.4281
55502SOL     OW75473   2.767   4.199   3.144 -0.1289  0.6342 -0.1344
55502SOL    HW175474   2.784   4.281   3.191  2.8096  0.4962 -0.7845
55502SOL    HW275475   2.809   4.211   3.059 -0.2777 -1.2739 -0.5247
55503SOL     OW75476   9.137   6.533   0.553  0.5778 -0.6376 -0.2324
55503SOL    HW175477   9.063   6.528   0.613  1.4092  2.7967  1.2880
55503SOL    HW275478   9.214   6.518   0.607  1.2050 -0.6756 -1.1052
55504SOL     OW75479   6.550   0.424   6.912  0.1831 -0.0283  0.2451
55504SOL    HW175480   6.522   0.369   6.839 -1.9957 -1.0576  1.7574
55504SOL    HW275481   6.494   0.501   6.909  0.9427  0.5405  0.1300
55505SOL     OW75482   7.757   2.014   3.958  0.1040 -0.6782  0.3439
55505SOL    HW175483   7.701   1.973   3.892  1.4179 -0.9672 -0.6473
55505SOL    HW275484   7.725   1.982   4.042 -0.1502 -2.1626 -0.3031
55506SOL     OW75485   0.526   3.737   9.175 -0.1987  0.1277  0.1615
55506SOL    HW175486   0.550   3.666   9.234  2.4238 -0.3302 -1.3291
55506SOL    HW275487   0.498   3.693   9.095  1.0497  0.7553 -0.6296
55507SOL     OW75488   0.589  10.007   8.844  0.1554  0.0494  0.4244
55507SOL    HW175489   0.566   9.977   8.932  0.7071  1.0909  0.9366
55507SOL    HW275490   0.574   9.930   8.789  2.8804 -1.6839  1.8660
55508SOL     OW75491   1.320   0.821   8.220  0.3271  0.7891  0.4534
55508SOL    HW175492   1.314   0.746   8.279 -0.7501  0.0371 -0.5658
55508SOL    HW275493   1.252   0.881   8.251  0.3436  0.7816  0.5049
55509SOL     OW75494  11.016   6.593   1.251  0.1677 -0.0581 -0.3698
55509SOL    HW175495  11.093   6.540   1.231  0.8976  1.0670 -0.5840
55509SOL    HW275496  11.015   6.597   1.347  1.3654  1.3208 -0.3919
55510SOL     OW75497   8.048   0.948  10.068  0.7557 -0.3129  0.3309
55510SOL    HW175498   8.128   0.933  10.118  1.1945  1.0827  0.0842
55510SOL    HW275499   7.978   0.946  10.133  0.9987 -1.3417  0.5788
55511SOL     OW75500   2.166   0.614  12.250  0.3646 -0.0287 -0.2335
55511SOL    HW175501   2.229   0.638  12.318  1.0347 -0.2156 -0.7772
55511SOL    HW275502   2.102   0.559  12.295  0.3211  0.5521  0.4325
55512SOL     OW75503   4.929  12.111   1.741  0.8465 -0.0862  0.3313
55512SOL    HW175504   4.914  12.018   1.761  0.7632 -0.1551 -0.0475
55512SOL    HW275505   5.009  12.111   1.687 -0.6632 -0.2172 -2.0602
55513SOL     OW75506  10.579  10.562   8.164 -0.0388 -0.5749  0.0893
55513SOL    HW175507  10.530  10.619   8.105  0.0932 -0.1166  0.4124
55513SOL    HW275508  10.592  10.481   8.115 -0.6508 -0.5030 -0.2000
55514SOL     OW75509   7.786   8.022   9.672 -0.5277 -0.4045  0.5595
55514SOL    HW175510   7.776   8.011   9.767  1.1450  0.9103  0.9292
55514SOL    HW275511   7.844   8.098   9.662 -0.6008 -0.5614 -1.5221
55515SOL     OW75512  11.002   6.838   1.675  0.3268 -0.1537 -0.3258
55515SOL    HW175513  10.950   6.911   1.709  0.9564  0.0020  0.3355
55515SOL    HW275514  11.037   6.870   1.592  0.0574  0.0534 -0.3598
55516SOL     OW75515  11.775   6.654   9.718 -0.2233 -0.2057  0.2416
55516SOL    HW175516  11.727   6.573   9.704 -1.7083  0.7224 -0.4045
55516SOL    HW275517  11.866   6.632   9.701 -0.6975 -1.5546 -0.7378
55517SOL     OW75518   4.229   0.641   9.334  0.0671  0.0837 -0.5821
55517SOL    HW175519   4.230   0.629   9.239  1.8066  1.1924 -0.7428
55517SOL    HW275520   4.231   0.736   9.347  0.4485 -0.0608  0.5680
55518SOL     OW75521   7.729   1.977  12.331  0.3174  0.2493 -0.2783
55518SOL    HW175522   7.734   1.888  12.297  2.5022 -0.3575  1.3966
55518SOL    HW275523   7.723   2.032  12.253 -1.6413 -1.3293 -1.3254
55519SOL     OW75524   4.403   0.252   2.664  0.0281  0.5860 -0.2071
55519SOL    HW175525   4.491   0.273   2.633 -0.5128  0.2569 -2.0986
55519SOL    HW275526   4.416   0.182   2.729  1.1567  0.5922 -0.4071
55520SOL     OW75527   2.251   6.836   3.773 -0.2562 -0.0393  0.8459
55520SOL    HW175528   2.192   6.828   3.698 -0.2739 -1.5169  0.9768
55520SOL    HW275529   2.192   6.833   3.849 -0.1896  0.8261  0.9337
55521SOL     OW75530   2.285   1.817   4.405  0.0241  0.2394  0.0715
55521SOL    HW175531   2.297   1.861   4.489  0.3937  0.1440  0.0696
55521SOL    HW275532   2.367   1.830   4.358  1.3679 -2.9141  1.2316
55522SOL     OW75533   7.640   2.082  12.594 -0.1614 -0.4351  0.1106
55522SOL    HW175534   7.711   2.146  12.605 -1.7925  1.4525  0.2284
55522SOL    HW275535   7.650   2.050  12.504  0.6229  0.0364  0.0164
55523SOL     OW75536   5.319   2.736   3.838 -0.0938 -0.0299 -0.4089
55523SOL    HW175537   5.232   2.767   3.811 -0.8271 -1.1754  0.5146
55523SOL    HW275538   5.304   2.645   3.866  1.1927  0.1009  0.7960
55524SOL     OW75539  11.658   2.772   9.481  0.3213  0.3143  0.5972
55524SOL    HW175540  11.637   2.683   9.452  2.3367 -1.6542  4.4162
55524SOL    HW275541  11.602   2.786   9.558  0.3512  2.2576  0.3209
55525SOL     OW75542  11.948  12.276   4.584  0.1504  0.1721  0.1300
55525SOL    HW175543  11.966  12.305   4.494  2.2304 -1.7877 -0.1644
55525SOL    HW275544  11.863  12.315   4.605  0.1091  1.5754 -2.2773
55526SOL     OW75545   8.926  11.829   7.638 -0.0687  0.2700 -0.2334
55526SOL    HW175546   8.935  11.839   7.733 -0.2044 -0.7422 -0.0980
55526SOL    HW275547   8.953  11.738   7.621 -0.4012  0.3258 -1.1164
55527SOL     OW75548   2.326   2.217   9.503 -0.5195  0.1658  0.1956
55527SOL    HW175549   2.392   2.259   9.559  0.7291  0.5063 -1.4542
55527SOL    HW275550   2.292   2.145   9.556  0.7983  0.3149  1.2961
55528SOL     OW75551  11.025   3.470   6.369  0.0136  0.1140 -0.2328
55528SOL    HW175552  11.071   3.431   6.294  1.1006 -1.0705  0.9894
55528SOL    HW275553  11.084   3.538   6.401  0.7515 -1.0528  1.0162
55529SOL     OW75554   9.901  10.672  10.987 -0.0747 -0.1002 -0.4436
55529SOL    HW175555   9.972  10.618  11.024 -0.3701  0.3922  0.9079
55529SOL    HW275556   9.838  10.608  10.953  0.5056 -0.5628 -0.6739
55530SOL     OW75557  11.701  10.307   2.347  0.5041 -0.6031 -0.1581
55530SOL    HW175558  11.775  10.303   2.408  0.6809 -0.5246 -0.3642
55530SOL    HW275559  11.676  10.216   2.334 -0.2770 -0.5573  0.9233
55531SOL     OW75560  10.758   9.654   7.027  0.2459  0.1746  0.0835
55531SOL    HW175561  10.735   9.685   7.115 -0.0142  0.0470  0.0618
55531SOL    HW275562  10.674   9.641   6.983  0.3948  1.0450 -0.4711
55532SOL     OW75563  10.346   3.717   1.299  0.1149  0.2219  0.0397
55532SOL    HW175564  10.359   3.812   1.292 -0.0368  0.1583 -1.2604
55532SOL    HW275565  10.252   3.705   1.283  0.2483 -0.2036 -0.4285
55533SOL     OW75566   4.544   9.681   8.248 -0.4105 -0.2444 -0.5809
55533SOL    HW175567   4.601   9.637   8.184 -0.0630 -0.4123 -0.1581
55533SOL    HW275568   4.498   9.611   8.292 -1.8642 -0.0604 -1.7497
55534SOL     OW75569   6.678   3.313   0.932 -0.0571 -0.2134  0.1643
55534SOL    HW175570   6.690   3.265   0.850 -0.0157 -0.6212  0.4114
55534SOL    HW275571   6.682   3.405   0.905  1.0648 -0.3279 -0.1517
55535SOL     OW75572   0.075   2.473   7.735  0.0914  0.2404 -0.1502
55535SOL    HW175573   0.148   2.411   7.731  0.2087  0.4217 -2.7892
55535SOL    HW275574   0.008   2.428   7.787  1.7133 -0.2614  1.6534
55536SOL     OW75575   7.545   4.602   3.626  0.1345  0.1697  0.8751
55536SOL    HW175576   7.532   4.579   3.718 -1.2794  1.9964  1.1988
55536SOL    HW275577   7.608   4.673   3.627  0.4995 -0.1404  0.3772
55537SOL     OW75578   5.461  10.763   0.944 -0.0101  0.2377 -0.2577
55537SOL    HW175579   5.520  10.728   0.877  0.3868  0.6188 -0.1087
55537SOL    HW275580   5.456  10.693   1.010  0.1827  0.1582 -0.3268
55538SOL     OW75581  11.095  11.457   3.619 -0.1958  0.2832  0.8642
55538SOL    HW175582  11.098  11.552   3.633  1.2559  0.4184 -0.2108
55538SOL    HW275583  11.147  11.442   3.541 -1.2733 -1.3168  0.4062
55539SOL     OW75584   6.407   6.742  11.917 -0.5909  0.2437 -0.0109
55539SOL    HW175585   6.446   6.825  11.944 -0.0894  1.1993 -3.2916
55539SOL    HW275586   6.324   6.767  11.875 -0.9848 -1.0342 -0.0438
55540SOL     OW75587   9.087   9.835   9.922  0.1420 -0.5796 -0.3325
55540SOL    HW175588   9.047   9.792   9.997  1.2297 -1.1484 -0.0708
55540SOL    HW275589   9.035   9.806   9.847 -1.6756  0.8812  0.2785
55541SOL     OW75590  12.378   3.158  12.189 -0.0962  0.4787  0.1387
55541SOL    HW175591  12.295   3.205  12.197  0.0468  0.5877  1.1044
55541SOL    HW275592  12.415   3.160  12.277  2.0463  2.4578 -0.6997
55542SOL     OW75593   6.306   2.715  10.290  0.2773 -0.3128 -0.1976
55542SOL    HW175594   6.292   2.776  10.218 -0.0827  0.0054  0.1381
55542SOL    HW275595   6.365   2.649  10.254 -0.7192 -0.7377 -1.1073
55543SOL     OW75596   6.350  11.330   9.053 -0.1307  0.2511 -0.1894
55543SOL    HW175597   6.265  11.316   9.010 -0.2218 -1.2299  0.4070
55543SOL    HW275598   6.391  11.243   9.053  1.3943  0.9399 -0.4521
55544SOL     OW75599   4.764   2.869   5.701 -0.3696  0.3415 -0.4927
55544SOL    HW175600   4.694   2.845   5.640  0.1876  0.5443 -1.2245
55544SOL    HW275601   4.746   2.818   5.780 -2.3311  1.6608 -0.0102
55545SOL     OW75602   9.359   1.174   7.478  0.8089  0.0171 -0.0850
55545SOL    HW175603   9.364   1.148   7.570  0.4848  0.3449  0.0303
55545SOL    HW275604   9.439   1.140   7.438  1.6393  1.0976  0.6304
55546SOL     OW75605   0.358   0.229   7.438 -0.1678  0.5769 -0.9457
55546SOL    HW175606   0.355   0.141   7.402  0.6241 -0.2281  0.8305
55546SOL    HW275607   0.268   0.260   7.434 -0.3205  0.0015 -2.3025
55547SOL     OW75608   4.812   9.354   4.290 -0.0085 -0.0476  0.3342
55547SOL    HW175609   4.849   9.437   4.263 -0.5548 -0.4994 -1.9736
55547SOL    HW275610   4.876   9.289   4.261 -0.2952 -0.5237  0.7545
55548SOL     OW75611   9.608   8.334   8.772 -0.3183  0.3018  0.1682
55548SOL    HW175612   9.638   8.410   8.722  1.2144 -0.1203  0.3901
55548SOL    HW275613   9.686   8.279   8.780 -0.9242 -0.3996  1.6263
55549SOL     OW75614   0.287   8.729   7.977  0.2713  0.2831  0.6724
55549SOL    HW175615   0.223   8.677   8.027 -0.1327 -0.8554 -0.9786
55549SOL    HW275616   0.361   8.671   7.964  1.4180  1.3694  1.9483
55550SOL     OW75617   7.955   2.032  10.556 -0.2204  0.9880  0.3324
55550SOL    HW175618   7.951   2.002  10.647  1.7938  0.4282  0.2912
55550SOL    HW275619   7.990   2.121  10.562 -0.4609  1.0983  0.1150
55551SOL     OW75620   4.345   2.160   8.910 -0.0846  0.1995 -0.4714
55551SOL    HW175621   4.339   2.194   9.000  1.3501 -3.1394  1.0683
55551SOL    HW275622   4.258   2.124   8.893  0.6174 -2.6944  1.3233
55552SOL     OW75623   8.516   4.152   4.822  0.5091  0.4828  0.3631
55552SOL    HW175624   8.470   4.108   4.750 -1.7698 -1.4604  2.8053
55552SOL    HW275625   8.606   4.121   4.815  0.0488 -0.6778 -0.8848
55553SOL     OW75626   8.653   0.090   1.943  0.2000  0.5488  0.3852
55553SOL    HW175627   8.620   0.000   1.930 -0.1853  0.8562 -0.9151
55553SOL    HW275628   8.578   0.137   1.979  0.2566  0.4541  0.6267
55554SOL     OW75629   8.451   4.081   7.668 -0.1846 -0.1853 -0.0867
55554SOL    HW175630   8.538   4.056   7.701 -0.3033  0.8309  1.0533
55554SOL    HW275631   8.392   4.068   7.742 -0.5206  1.7933  0.0481
55555SOL     OW75632   0.291   4.836  11.229 -0.0290 -0.0500 -0.5729
55555SOL    HW175633   0.308   4.929  11.247  1.0722 -0.3437 -0.0032
55555SOL    HW275634   0.377   4.794  11.236 -0.0765 -0.7510 -3.3129
55556SOL     OW75635  11.449   8.896   0.092  0.0678  0.0167  0.1650
55556SOL    HW175636  11.508   8.941   0.152  0.2507  0.1623 -0.1215
55556SOL    HW275637  11.434   8.959   0.021 -1.3403  0.4336  0.7840
55557SOL     OW75638   2.828   5.677   6.423 -0.3776 -0.0485 -0.3128
55557SOL    HW175639   2.741   5.686   6.383  1.0386  0.6569 -3.5851
55557SOL    HW275640   2.841   5.760   6.469 -1.0954  0.2298 -0.5917
55558SOL     OW75641  10.910   2.998   1.365 -0.4692  0.6559 -0.3518
55558SOL    HW175642  10.870   2.970   1.448 -0.3946  0.7953 -0.2678
55558SOL    HW275643  10.841   2.989   1.300 -0.8947  1.6863 -0.0640
55559SOL     OW75644   2.890   0.429   4.793 -0.1517 -0.4083 -0.6778
55559SOL    HW175645   2.832   0.357   4.768  1.1510 -1.2785 -1.3584
55559SOL    HW275646   2.957   0.431   4.724  0.4965  0.7027 -0.0518
55560SOL     OW75647   7.857   0.680   0.885 -0.1488  0.7594 -0.0932
55560SOL    HW175648   7.802   0.643   0.955  0.4569  0.8710  0.4477
55560SOL    HW275649   7.909   0.747   0.929 -0.3800  1.4351 -0.8335
55561SOL     OW75650   8.410   2.657  11.697 -0.1162 -0.1861 -0.1173
55561SOL    HW175651   8.502   2.643  11.722  0.0198  0.0379 -0.4878
55561SOL    HW275652   8.410   2.741  11.652 -0.4590 -0.3075 -0.3459
55562SOL     OW75653   3.554   3.983   8.568  0.0764 -0.7101 -0.2313
55562SOL    HW175654   3.573   3.927   8.493  0.7467  0.0409 -0.6350
55562SOL    HW275655   3.472   4.027   8.545  0.8365  0.3373 -1.0240
55563SOL     OW75656  10.314   5.231  12.021 -0.8640  0.0758 -0.1153
55563SOL    HW175657  10.320   5.145  12.061  3.1695  0.6168  0.8100
55563SOL    HW275658  10.361   5.223  11.938  1.1035  1.6646  0.7608
55564SOL     OW75659   8.675   1.696   6.364  0.2560 -0.4053  0.3411
55564SOL    HW175660   8.671   1.621   6.424 -3.2947 -0.4566  0.2526
55564SOL    HW275661   8.589   1.737   6.371  0.6533  1.2497 -2.6804
55565SOL     OW75662   9.935  11.180   1.339  0.0295 -0.0653  0.9729
55565SOL    HW175663   9.980  11.259   1.311 -0.0077 -0.6004 -0.6758
55565SOL    HW275664   9.994  11.140   1.403  0.7058  0.5619  0.7516
55566SOL     OW75665   1.085   4.852   1.408 -0.2248  0.5154  0.3660
55566SOL    HW175666   1.038   4.849   1.491 -1.0318  0.4136 -0.0839
55566SOL    HW275667   1.095   4.760   1.383 -1.2170  0.5852 -0.3208
55567SOL     OW75668   0.901   6.323   5.858 -0.5550  0.0017 -0.1733
55567SOL    HW175669   0.903   6.404   5.910  0.3924 -0.6766  0.9112
55567SOL    HW275670   0.992   6.310   5.833 -0.6629 -0.8619 -0.1179
55568SOL     OW75671  10.968  12.319   5.577  0.4263  0.1729  0.1476
55568SOL    HW175672  10.906  12.289   5.510  0.5107 -0.3223  0.2899
55568SOL    HW275673  11.048  12.340   5.528 -0.2059  1.9486 -0.2009
55569SOL     OW75674   1.206   8.202   5.213  0.5174 -0.0460  0.1144
55569SOL    HW175675   1.241   8.249   5.138  0.5809  0.3812  0.4131
55569SOL    HW275676   1.283   8.170   5.261  0.5508  1.4448  1.1284
55570SOL     OW75677   0.918   5.387   7.186  0.3392  0.4617 -0.2879
55570SOL    HW175678   0.925   5.468   7.134  0.2710  0.6808  0.0399
55570SOL    HW275679   0.878   5.324   7.126  1.0594  0.4596 -0.7789
55571SOL     OW75680   4.608   9.728   4.665  0.2797  0.6110 -0.2928
55571SOL    HW175681   4.618   9.638   4.693 -0.4834 -0.1690 -2.3337
55571SOL    HW275682   4.530   9.727   4.610 -0.0185  2.6237  0.0042
55572SOL     OW75683   7.599   4.358   5.039 -0.9575 -0.0482  0.0415
55572SOL    HW175684   7.524   4.301   5.021 -0.5325 -0.2827 -1.0995
55572SOL    HW275685   7.667   4.328   4.978 -0.1345  0.5421  0.6448
55573SOL     OW75686   7.206   4.047  10.965  0.4569 -0.2016  0.8095
55573SOL    HW175687   7.236   4.132  10.931  0.8160 -0.7302 -0.2238
55573SOL    HW275688   7.269   4.024  11.033 -0.1780  0.7926  1.7816
55574SOL     OW75689   6.847   8.911   8.371  0.0141  0.0956 -0.4266
55574SOL    HW175690   6.807   8.842   8.425  0.6238  0.0206 -0.0594
55574SOL    HW275691   6.940   8.890   8.372 -0.1794 -1.6359 -3.9212
55575SOL     OW75692   2.351   5.564   0.217  0.6037 -0.1085 -1.0177
55575SOL    HW175693   2.364   5.472   0.240  0.7256  0.1252 -0.1026
55575SOL    HW275694   2.293   5.598   0.286  2.8147  1.1978  0.3612
55576SOL     OW75695   1.501   1.740   6.136 -0.0515 -0.0280 -0.0658
55576SOL    HW175696   1.568   1.759   6.070 -1.6430  1.1195 -1.4293
55576SOL    HW275697   1.453   1.666   6.101 -1.5911  1.2572 -0.8075
55577SOL     OW75698  11.168   0.936   8.025 -0.0496 -0.4075  0.1397
55577SOL    HW175699  11.232   0.921   7.957  0.1235 -0.7763  0.3809
55577SOL    HW275700  11.219   0.937   8.107  0.0053  1.7338  0.1432
55578SOL     OW75701   5.124   0.361  10.054  0.2561 -0.1493  0.1368
55578SOL    HW175702   5.215   0.332  10.050  0.3051  0.0994 -2.0201
55578SOL    HW275703   5.115   0.404  10.139  2.3884  0.5873  0.0268
55579SOL     OW75704   4.092   2.370  10.790 -0.2892 -0.2354 -0.3346
55579SOL    HW175705   4.053   2.286  10.764 -2.4942  0.4380  0.5883
55579SOL    HW275706   4.163   2.346  10.850 -0.2013 -1.4730 -0.9045
55580SOL     OW75707   1.078  10.256  11.073 -0.0900 -0.3925 -0.3759
55580SOL    HW175708   1.043  10.289  10.990 -0.3262  1.0678  0.2653
55580SOL    HW275709   1.169  10.286  11.074 -0.2920  0.2163  0.1958
55581SOL     OW75710   9.659   0.910   2.007 -0.5548  0.2903  0.1232
55581SOL    HW175711   9.692   0.930   1.919 -1.5333  1.8587  0.0809
55581SOL    HW275712   9.688   0.983   2.061 -1.5464  0.2730  0.6996
55582SOL     OW75713  11.578   5.193   0.248 -0.1957  0.2335 -0.5250
55582SOL    HW175714  11.519   5.254   0.203  1.0531  1.6610 -0.3176
55582SOL    HW275715  11.656   5.245   0.267  1.0165 -1.5011 -0.4987
55583SOL     OW75716   9.669   3.240   3.838  0.1312  0.7081  0.5965
55583SOL    HW175717   9.675   3.282   3.924  0.6828  0.5896  0.6179
55583SOL    HW275718   9.751   3.192   3.829  1.0746  2.4599 -0.9104
55584SOL     OW75719   4.706   5.211   8.812  0.5830 -0.4496  0.3283
55584SOL    HW175720   4.762   5.274   8.858 -1.8052  1.0082  1.4462
55584SOL    HW275721   4.678   5.257   8.732  3.7822 -2.5450 -2.2665
55585SOL     OW75722   6.514   3.371   8.562  0.5443 -0.0306 -0.4667
55585SOL    HW175723   6.434   3.414   8.533 -0.1637 -0.8345  0.2397
55585SOL    HW275724   6.548   3.329   8.483  0.8678  1.1864 -1.0099
55586SOL     OW75725   1.111   5.719   3.729  0.1662  0.3238 -0.3616
55586SOL    HW175726   1.019   5.733   3.705  0.1030  0.2389 -0.1635
55586SOL    HW275727   1.155   5.799   3.699  0.2063 -0.0733 -1.3970
55587SOL     OW75728   4.001   6.207   5.796  0.1484  0.2676 -0.1525
55587SOL    HW175729   3.997   6.175   5.706 -1.0479 -0.8487  0.2804
55587SOL    HW275730   3.982   6.131   5.851 -1.3387  1.3806  0.9657
55588SOL     OW75731   7.996   0.976   5.658 -0.3748  0.2756  0.7276
55588SOL    HW175732   7.973   1.067   5.639  0.9174  0.3295 -0.8148
55588SOL    HW275733   8.086   0.980   5.691  0.1314 -0.5003 -0.4679
55589SOL     OW75734   8.662  11.554   7.326 -0.4156  0.3915  0.2315
55589SOL    HW175735   8.641  11.632   7.276 -0.7372  0.8195  1.0070
55589SOL    HW275736   8.757  11.547   7.323 -0.4956 -0.2298 -1.3646
55590SOL     OW75737  10.093  12.525   7.115 -0.5132 -0.6076  0.2022
55590SOL    HW175738  10.011  12.541   7.067 -0.6835 -0.3858  0.5651
55590SOL    HW275739  10.159  12.575   7.067 -0.1350 -2.5221 -1.4196
55591SOL     OW75740   5.215  11.078   7.288 -0.4061  0.1914 -0.2310
55591SOL    HW175741   5.247  11.007   7.343 -0.2483  1.0441  0.8208
55591SOL    HW275742   5.291  11.108   7.240 -0.3897 -0.0982 -0.3857
55592SOL     OW75743   9.640  10.523  12.470 -0.1811  0.0723 -0.0978
55592SOL    HW175744   9.598  10.519  12.556 -0.9984 -0.5625 -0.5118
55592SOL    HW275745   9.733  10.528  12.489 -0.2856 -1.0642  0.8345
55593SOL     OW75746   4.798   0.723   3.733  0.0177  0.3980 -0.3292
55593SOL    HW175747   4.741   0.778   3.680 -0.3508 -0.3976 -0.7778
55593SOL    HW275748   4.781   0.752   3.823  0.6317  1.7364 -0.6177
55594SOL     OW75749   5.323  11.439   7.356  0.5661  0.0118 -0.0470
55594SOL    HW175750   5.377  11.517   7.344  0.1261  0.2258 -0.6802
55594SOL    HW275751   5.375  11.382   7.412  1.1755  0.4812 -0.1281
55595SOL     OW75752  10.730  11.445  10.107  0.5326 -0.1189 -0.5356
55595SOL    HW175753  10.806  11.449  10.049  0.0530 -0.0612 -1.1721
55595SOL    HW275754  10.683  11.366  10.080 -0.4007  0.6121 -1.1272
55596SOL     OW75755   9.826  11.086  12.502  0.1402 -0.3161 -0.1335
55596SOL    HW175756   9.837  10.999  12.540 -0.3449  0.2948  1.5066
55596SOL    HW275757   9.765  11.073  12.429 -0.7150 -1.2125  0.7114
55597SOL     OW75758   7.947  10.603  10.628  0.4812  0.1286  0.1682
55597SOL    HW175759   7.857  10.581  10.652  0.2574 -0.7009 -1.2950
55597SOL    HW275760   7.939  10.687  10.584  0.2581 -0.3843 -0.8059
55598SOL     OW75761   3.454  11.179   5.754  0.9214  0.7701  0.6750
55598SOL    HW175762   3.506  11.218   5.683  0.0704  2.2537  0.8264
55598SOL    HW275763   3.489  11.219   5.834 -0.7993  2.2953  0.7355
55599SOL     OW75764   1.338   4.068  10.429  0.0132 -0.2392  0.0032
55599SOL    HW175765   1.250   4.104  10.419 -0.4085 -1.1256  0.3772
55599SOL    HW275766   1.331   3.979  10.394  0.7152 -0.3666  0.1857
55600SOL     OW75767  11.053   4.175   9.690  0.0521  0.7326 -0.1347
55600SOL    HW175768  10.987   4.154   9.624  0.2861  1.0652 -0.4741
55600SOL    HW275769  11.031   4.119   9.765 -0.9871  1.2822 -0.0089
55601SOL     OW75770   8.054   4.763   7.462 -0.6689 -0.4613  0.3122
55601SOL    HW175771   8.148   4.760   7.480 -0.9195  0.4613  1.9666
55601SOL    HW275772   8.022   4.675   7.482 -0.1161 -0.8757 -0.5930
55602SOL     OW75773   3.732   5.593   8.020 -0.2430  0.2631  0.0790
55602SOL    HW175774   3.772   5.507   8.006 -0.5604  0.0256  0.6096
55602SOL    HW275775   3.777   5.628   8.096 -1.4858 -0.2965  1.1108
55603SOL     OW75776   2.786   6.734   0.948  0.5330 -0.0769 -0.0764
55603SOL    HW175777   2.726   6.763   1.017  0.3890  0.2020 -0.3190
55603SOL    HW275778   2.830   6.814   0.920  0.3047 -0.1291 -0.5847
55604SOL     OW75779  10.430   0.695   8.142 -0.2062  0.1022 -0.0387
55604SOL    HW175780  10.363   0.703   8.074  1.0517  1.8136 -1.1726
55604SOL    HW275781  10.509   0.669   8.095 -0.2575 -3.1831  1.4483
55605SOL     OW75782  10.886   1.316   0.397  0.3385  0.4257 -0.4141
55605SOL    HW175783  10.974   1.339   0.368 -0.2831  3.1212 -0.4633
55605SOL    HW275784  10.881   1.350   0.487 -0.6922  0.4552 -0.4734
55606SOL     OW75785   5.398   0.826  11.948  0.3246  0.6109  0.2500
55606SOL    HW175786   5.386   0.910  11.994 -0.7231  1.0402 -0.7502
55606SOL    HW275787   5.460   0.778  12.002  0.8138  1.9636  0.9533
55607SOL     OW75788   2.546  11.463   9.404 -0.7511  0.7955  0.5468
55607SOL    HW175789   2.535  11.555   9.429 -2.4330  0.2981  1.7825
55607SOL    HW275790   2.638  11.457   9.377 -0.7505  2.9489 -0.1309
55608SOL     OW75791  12.418  12.540   9.229  0.0283 -0.6664 -0.5295
55608SOL    HW175792  12.371  12.545   9.145 -0.8031  0.2376 -0.0311
55608SOL    HW275793  12.414  12.448   9.253 -1.6449 -0.6131 -0.4540
55609SOL     OW75794   4.610   8.710   6.377  0.2379 -0.8674 -0.7067
55609SOL    HW175795   4.655   8.787   6.342 -0.5264  0.0373  0.2691
55609SOL    HW275796   4.645   8.637   6.326  1.2564  0.0727 -1.3883
55610SOL     OW75797   8.339   1.150  11.663  0.2999  0.3388 -0.6122
55610SOL    HW175798   8.288   1.076  11.698  1.3409  1.0203  2.7353
55610SOL    HW275799   8.275   1.220  11.650 -0.4592 -0.6203 -2.3814
55611SOL     OW75800   8.423   3.122   2.664  0.2762 -0.1775 -0.4885
55611SOL    HW175801   8.426   3.214   2.689  0.2586 -0.1769 -0.4882
55611SOL    HW275802   8.483   3.115   2.590  0.6263 -0.2562 -0.1996
55612SOL     OW75803   2.003   8.347  11.209 -0.3340 -0.2792 -0.1373
55612SOL    HW175804   1.966   8.434  11.222 -0.0888 -0.0091 -1.1808
55612SOL    HW275805   2.054   8.354  11.129 -0.5334 -1.4546 -0.3874
55613SOL     OW75806  11.678   1.506   8.409 -0.0788  0.1409 -1.0285
55613SOL    HW175807  11.641   1.590   8.435  0.7578  0.1612  0.1884
55613SOL    HW275808  11.757   1.530   8.360 -0.5583  0.0710 -1.8498
55614SOL     OW75809   0.816   1.262   7.423 -0.9005  0.3478  0.1656
55614SOL    HW175810   0.898   1.218   7.401 -0.2831  2.4268 -2.2144
55614SOL    HW275811   0.753   1.191   7.437  0.5431 -1.2891 -1.2262
55615SOL     OW75812   5.922   8.532   6.117  0.3652 -0.0849 -0.0329
55615SOL    HW175813   5.875   8.449   6.122  1.0020 -0.5255 -1.0400
55615SOL    HW275814   5.868   8.587   6.059 -0.1929  0.3222  0.8425
55616SOL     OW75815   9.704   1.389   0.793  0.1674 -0.0197 -0.4171
55616SOL    HW175816   9.727   1.439   0.714 -0.1612  0.2925 -0.3183
55616SOL    HW275817   9.619   1.350   0.772  0.2407 -0.2210 -0.3437
55617SOL     OW75818   4.047   3.774   5.770 -0.5998  0.1080 -0.5327
55617SOL    HW175819   4.017   3.768   5.860 -1.0411  0.4817 -0.6525
55617SOL    HW275820   4.063   3.683   5.744  0.8747  0.0722  0.3596
55618SOL     OW75821   6.988   5.951  10.448 -0.3225 -0.6839  0.2135
55618SOL    HW175822   7.084   5.944  10.444 -0.1964  1.0137 -2.2251
55618SOL    HW275823   6.972   6.018  10.514  0.2475 -0.4097  0.0851
55619SOL     OW75824   6.900   7.116   3.706 -0.7728  0.1318 -0.3979
55619SOL    HW175825   6.943   7.044   3.661  0.9524  0.6327  0.3567
55619SOL    HW275826   6.816   7.080   3.734  0.1426 -1.6663  0.1788
55620SOL     OW75827   6.358   0.808   0.581  0.0585 -0.2331  0.0350
55620SOL    HW175828   6.331   0.900   0.585 -0.7016 -0.3818 -1.1161
55620SOL    HW275829   6.343   0.782   0.490  1.1009 -1.2586  0.1282
55621SOL     OW75830  11.749   1.209   8.514  0.2734 -0.4089  0.0052
55621SOL    HW175831  11.734   1.298   8.484  1.8077  0.2911  1.1533
55621SOL    HW275832  11.665   1.165   8.503 -0.2806  0.9067 -1.4196
55622SOL     OW75833   8.203  11.011   6.708  0.1096 -0.4015  0.2942
55622SOL    HW175834   8.140  11.078   6.734 -0.0020 -0.5332  0.3651
55622SOL    HW275835   8.246  11.046   6.631  0.6447  0.1232  0.8198
55623SOL     OW75836   8.496   8.387   9.253  0.1766  0.2613  0.2170
55623SOL    HW175837   8.503   8.471   9.300  0.1431  0.8628 -0.8131
55623SOL    HW275838   8.585   8.369   9.224  0.8491 -1.7228  3.1143
55624SOL     OW75839   4.300   9.843   8.267 -0.2920  0.2231 -0.0346
55624SOL    HW175840   4.390   9.811   8.276 -0.7013 -1.1371 -0.5488
55624SOL    HW275841   4.307   9.937   8.281  1.3290  0.2516 -0.7375
55625SOL     OW75842   7.348   1.622   4.821 -0.1553 -0.6281  1.1594
55625SOL    HW175843   7.352   1.527   4.807 -0.3693 -0.5905  0.8027
55625SOL    HW275844   7.296   1.654   4.746  1.0534 -0.0751  0.5393
55626SOL     OW75845  11.430   0.823  10.579 -0.0336 -0.0468 -0.0219
55626SOL    HW175846  11.342   0.785  10.578 -0.0663  0.0270 -1.0676
55626SOL    HW275847  11.415   0.917  10.586 -0.0478 -0.0142 -0.4839
55627SOL     OW75848   3.704   2.333  11.297  1.4326 -0.2729 -0.2102
55627SOL    HW175849   3.642   2.260  11.304 -0.4510  1.0377 -1.9769
55627SOL    HW275850   3.688   2.386  11.375  1.0176 -0.4626 -0.1628
55628SOL     OW75851   8.658   6.939   4.501 -0.2715 -0.1678 -0.1149
55628SOL    HW175852   8.748   6.965   4.482 -0.0280  0.0082  1.1503
55628SOL    HW275853   8.662   6.844   4.511  0.3953  0.0451  2.6479
55629SOL     OW75854  11.666  11.431  11.697 -0.1441 -0.2088 -0.3650
55629SOL    HW175855  11.587  11.474  11.666 -0.7266 -0.1416  1.1709
55629SOL    HW275856  11.635  11.362  11.755  0.9243  1.2992  2.1590
55630SOL     OW75857   9.456   3.642   3.856 -0.6983 -0.1338  0.4911
55630SOL    HW175858   9.365   3.654   3.881 -0.8131  0.6163 -0.2322
55630SOL    HW275859   9.453   3.615   3.765 -0.1613  2.5281 -0.4011
55631SOL     OW75860   6.735   6.954   8.814  0.8416 -0.2426 -0.2852
55631SOL    HW175861   6.652   6.929   8.772  1.1082 -1.1919 -0.2743
55631SOL    HW275862   6.745   6.891   8.886  0.9817  0.6208  0.4772
55632SOL     OW75863  10.818   3.242  11.987 -0.1188 -0.3335 -0.5518
55632SOL    HW175864  10.900   3.274  12.025 -0.1711 -1.9325  1.0174
55632SOL    HW275865  10.842   3.160  11.944 -0.6200 -0.0113 -1.4669
55633SOL     OW75866   7.699  11.631   4.191  0.4891 -0.2825  0.8034
55633SOL    HW175867   7.678  11.661   4.103  0.2687  1.2130  1.3370
55633SOL    HW275868   7.617  11.597   4.225  0.2589  0.3357  0.8776
55634SOL     OW75869  12.501   0.512  12.490  0.5500  0.4126 -0.1020
55634SOL    HW175870  12.576   0.501  12.431 -0.4990 -1.8888 -1.1504
55634SOL    HW275871  12.426   0.482  12.438 -0.9525  1.6053  1.2840
55635SOL     OW75872   1.865   7.364  10.095 -0.1975 -0.0851  0.3168
55635SOL    HW175873   1.773   7.367  10.072 -0.6564 -2.0837  1.6371
55635SOL    HW275874   1.910   7.403  10.020 -1.9884 -0.6925 -1.1427
55636SOL     OW75875  12.368   3.118   6.102  0.0971  0.2377 -0.2037
55636SOL    HW175876  12.348   3.053   6.035  0.0670 -1.6805  1.5338
55636SOL    HW275877  12.383   3.066   6.181 -0.4079  2.3991  1.4146
55637SOL     OW75878   7.188   3.358   4.507  0.2808  0.1615  0.6177
55637SOL    HW175879   7.273   3.317   4.526  0.1886 -0.3695 -0.0617
55637SOL    HW275880   7.199   3.395   4.419  0.0545  0.7639  0.8419
55638SOL     OW75881  10.946   3.863  11.741  0.6054  0.0114 -0.5622
55638SOL    HW175882  11.012   3.927  11.767  0.1014 -0.0790  1.0651
55638SOL    HW275883  10.966   3.786  11.793 -0.0115 -0.4652 -1.0183
55639SOL     OW75884   6.429   1.411  10.074 -0.0126  0.0561 -0.4468
55639SOL    HW175885   6.392   1.392   9.988  0.6455 -0.1684 -0.6935
55639SOL    HW275886   6.364   1.381  10.137  0.2648 -1.4777 -0.8478
55640SOL     OW75887   6.079   7.675   0.001  0.3533 -0.0714 -0.1934
55640SOL    HW175888   6.000   7.680   0.055  1.0648 -0.0285  0.8743
55640SOL    HW275889   6.107   7.766  -0.010  1.7268 -0.1942  1.7237
55641SOL     OW75890   7.365   4.909   6.117 -0.1937  0.0564  0.7267
55641SOL    HW175891   7.440   4.902   6.177  1.3361  0.9784 -0.9708
55641SOL    HW275892   7.300   4.960   6.165  0.1443 -0.9532  2.3298
55642SOL     OW75893   0.832   9.772   3.662  0.3261 -0.2210  0.0112
55642SOL    HW175894   0.875   9.697   3.704 -0.6778 -1.6339 -1.3923
55642SOL    HW275895   0.770   9.803   3.728  1.1571 -0.2219  0.8247
55643SOL     OW75896   0.642   9.245   6.333  0.2049 -0.4645  0.5642
55643SOL    HW175897   0.723   9.289   6.304  0.1687  0.0827  1.2645
55643SOL    HW275898   0.575   9.313   6.329  0.1189 -0.4692  1.5300
55644SOL     OW75899  11.529   4.597   5.949  0.2116 -0.2940 -0.1999
55644SOL    HW175900  11.459   4.540   5.980 -0.0602 -0.9053 -1.8208
55644SOL    HW275901  11.605   4.539   5.940  0.6521  0.1526  0.5879
55645SOL     OW75902  10.647   6.747  12.180  0.4259  0.9959  1.0872
55645SOL    HW175903  10.602   6.747  12.265  0.0816  0.7970  0.9087
55645SOL    HW275904  10.641   6.656  12.151 -1.1685  1.4219 -0.0446
55646SOL     OW75905   8.385   3.350   6.769 -0.4081 -0.2104 -0.4773
55646SOL    HW175906   8.433   3.433   6.771 -1.1540  0.2122  0.7583
55646SOL    HW275907   8.294   3.375   6.786 -0.8467 -1.1648 -1.3123
55647SOL     OW75908  12.491   2.794   3.317  0.2783  0.2836 -0.0010
55647SOL    HW175909  12.427   2.738   3.361  2.2843 -0.0142  2.7423
55647SOL    HW275910  12.484   2.878   3.361 -0.1818  1.1562 -1.6625
55648SOL     OW75911   2.377   8.827   8.157 -0.8153 -0.2261  0.1349
55648SOL    HW175912   2.441   8.891   8.186  0.3540 -1.5395  0.5508
55648SOL    HW275913   2.321   8.813   8.234 -0.0917 -0.8646  0.5560
55649SOL     OW75914   3.437   0.267   4.059 -0.3019  0.0343 -0.1805
55649SOL    HW175915   3.400   0.288   4.145  1.1240  1.2726  0.1652
55649SOL    HW275916   3.497   0.194   4.076 -1.8531 -1.3895 -0.5918
55650SOL     OW75917  10.634   8.099   1.281  0.4353 -0.2724  0.3238
55650SOL    HW175918  10.605   8.168   1.221 -0.7787 -1.4298 -0.4751
55650SOL    HW275919  10.673   8.033   1.225 -1.3740 -1.7143  0.6652
55651SOL     OW75920   8.302   6.798   5.486  0.5453 -0.0151  0.0379
55651SOL    HW175921   8.301   6.735   5.414  0.2006  1.9148 -1.7489
55651SOL    HW275922   8.266   6.878   5.449  0.1374  1.0256  2.4506
55652SOL     OW75923   4.306   8.439   6.578 -0.2494  1.0890 -0.1766
55652SOL    HW175924   4.381   8.383   6.558  0.9757  2.1189  1.3167
55652SOL    HW275925   4.335   8.527   6.555 -1.1357  1.4592  0.0880
55653SOL     OW75926   9.705   8.895   5.122  0.1137 -0.1664 -0.2024
55653SOL    HW175927   9.705   8.882   5.027 -0.9718 -1.7831 -0.0291
55653SOL    HW275928   9.641   8.964   5.137  1.2575  1.0388 -0.7208
55654SOL     OW75929   5.425   2.858   7.617 -0.2134 -0.2461  0.1246
55654SOL    HW175930   5.370   2.851   7.696 -1.6115  0.8650 -0.6923
55654SOL    HW275931   5.428   2.769   7.582  0.0006 -0.6575  1.1394
55655SOL     OW75932   9.169  11.485   0.824  0.3235 -0.6140  0.1662
55655SOL    HW175933   9.210  11.522   0.902  0.3101  0.8082 -0.4835
55655SOL    HW275934   9.092  11.438   0.858 -0.1092  0.6229  0.9529
55656SOL     OW75935   1.068   2.210   0.790  0.4665  0.4460  0.1468
55656SOL    HW175936   1.013   2.166   0.854  2.2207 -0.6681  0.9554
55656SOL    HW275937   1.027   2.190   0.706  0.0487 -1.0006  0.6642
55657SOL     OW75938   1.299   1.508   6.092  0.4524 -0.0031  0.0453
55657SOL    HW175939   1.224   1.461   6.128 -0.1520  0.2477 -0.8542
55657SOL    HW275940   1.375   1.456   6.119 -0.1082 -0.7880  0.1450
55658SOL     OW75941   1.853   2.779   3.629 -0.0623 -0.0174 -0.8232
55658SOL    HW175942   1.924   2.839   3.651 -0.5282  0.4733 -0.6172
55658SOL    HW275943   1.896   2.697   3.605  0.5193 -0.2552  0.8719
55659SOL     OW75944  11.060  12.482   2.456 -0.0016 -0.0616 -0.1493
55659SOL    HW175945  11.028  12.535   2.382 -0.5459 -1.0409 -0.6321
55659SOL    HW275946  11.155  12.478   2.443 -0.0201  0.2884 -0.4464
55660SOL     OW75947   8.958   6.761   1.285 -0.0146 -0.0786 -0.2929
55660SOL    HW175948   8.900   6.831   1.313  0.5926  0.5799 -0.6287
55660SOL    HW275949   8.955   6.696   1.355 -0.3127  0.4559  0.1885
55661SOL     OW75950  11.454   3.325   1.812  0.4969  0.0224  0.1129
55661SOL    HW175951  11.502   3.353   1.734 -0.9860  0.5163 -0.6576
55661SOL    HW275952  11.463   3.397   1.873  1.5659 -0.3154  0.3676
55662SOL     OW75953   5.928   6.991   6.834  0.0444 -0.3549 -0.1221
55662SOL    HW175954   5.908   6.969   6.925  0.0260  0.1473 -0.0050
55662SOL    HW275955   6.014   6.952   6.818 -0.0816 -0.6934  0.0194
55663SOL     OW75956   8.197  12.110   6.057 -0.3872  0.1338  0.0051
55663SOL    HW175957   8.140  12.186   6.048  0.0102  0.5449  0.8350
55663SOL    HW275958   8.137  12.035   6.055 -0.7677  0.4452 -0.9460
55664SOL     OW75959   7.100   2.624   9.051 -0.1980 -0.6657  0.2198
55664SOL    HW175960   7.172   2.632   8.989  0.6498  0.4317  1.3160
55664SOL    HW275961   7.064   2.537   9.034 -0.2946 -0.2325 -2.1086
55665SOL     OW75962   4.206   0.640   9.695 -0.1303 -0.5678 -0.1579
55665SOL    HW175963   4.183   0.549   9.715  1.3883 -0.8832  0.3073
55665SOL    HW275964   4.145   0.693   9.746 -0.7119 -1.3329 -0.0497
55666SOL     OW75965   5.332  10.348  10.214  0.4692 -0.4309 -0.4230
55666SOL    HW175966   5.385  10.317  10.287 -0.0257 -0.9791 -0.2832
55666SOL    HW275967   5.325  10.443  10.227  1.4200 -0.3548 -0.4590
55667SOL     OW75968   9.997   4.458   4.463 -0.1812  0.4788  0.0556
55667SOL    HW175969   9.974   4.549   4.482 -1.2186  0.3217 -0.4296
55667SOL    HW275970  10.092   4.455   4.478 -0.0539  1.7411 -0.3188
55668SOL     OW75971   9.785   8.199   3.072  0.4151 -0.0323 -0.3530
55668SOL    HW175972   9.758   8.276   3.122 -0.1935 -0.4543 -0.0050
55668SOL    HW275973   9.834   8.234   2.998  0.1852  0.6861 -0.1764
55669SOL     OW75974   9.651  10.552   6.332  0.0063  0.7751 -0.1616
55669SOL    HW175975   9.576  10.508   6.371 -0.3214 -0.9074 -2.4759
55669SOL    HW275976   9.617  10.637   6.302 -0.7018  0.4499 -0.2902
55670SOL     OW75977   0.329   0.277  10.399 -0.3587 -0.5638  0.2442
55670SOL    HW175978   0.320   0.359  10.352  1.3633 -0.2161  0.4542
55670SOL    HW275979   0.276   0.288  10.477  0.9625  0.9477  0.9907
55671SOL     OW75980  11.172   8.500  10.712 -0.2097  0.5184  0.3181
55671SOL    HW175981  11.178   8.498  10.807  0.5309  0.3034  0.2759
55671SOL    HW275982  11.262   8.518  10.683 -0.2557 -0.2974 -0.3550
55672SOL     OW75983   9.279   9.018  12.295 -0.1516 -0.3833 -0.2282
55672SOL    HW175984   9.365   9.059  12.307 -0.8126  0.7093  1.0683
55672SOL    HW275985   9.258   9.032  12.203  0.2388  1.0450 -0.1273
55673SOL     OW75986  10.216   3.850   9.097 -0.1646  0.3262  0.0909
55673SOL    HW175987  10.214   3.885   9.186  0.8334  0.5967  0.0151
55673SOL    HW275988  10.200   3.926   9.041  0.8746  0.4713 -0.0239
55674SOL     OW75989   7.530  11.396   1.953 -0.3410 -0.3421  0.3190
55674SOL    HW175990   7.496  11.481   1.980  0.0699  0.7659 -2.3041
55674SOL    HW275991   7.612  11.416   1.908  0.7013 -2.3474  1.1727
55675SOL     OW75992   2.652   8.067  12.126 -0.0290  0.3132  0.9913
55675SOL    HW175993   2.722   8.009  12.156 -1.2853 -0.6314  2.2889
55675SOL    HW275994   2.581   8.007  12.102 -0.3081  1.2277 -0.6203
55676SOL     OW75995   9.896   1.037  10.701  0.1988 -0.1312  0.2238
55676SOL    HW175996   9.952   1.085  10.640  1.5678  0.7017  2.0317
55676SOL    HW275997   9.863   0.963  10.650  0.4121  1.0818 -1.8032
55677SOL     OW75998   8.752   4.315   0.132  0.3382 -0.7944 -0.2987
55677SOL    HW175999   8.817   4.373   0.173  0.3962 -0.7539 -0.4467
55677SOL    HW276000   8.690   4.374   0.091  0.8145 -0.8379 -1.0967
55678SOL     OW76001   0.154   9.064   0.479  0.2448  0.0565  0.5276
55678SOL    HW176002   0.072   9.037   0.520  1.3142 -2.7442  1.0557
55678SOL    HW276003   0.222   9.020   0.529  1.8214 -1.1717 -2.4149
55679SOL     OW76004   4.432  12.413   0.845 -0.3235 -0.4032 -0.0295
55679SOL    HW176005   4.384  12.364   0.911  0.9161  0.3694  1.5245
55679SOL    HW276006   4.514  12.437   0.888 -0.0184  1.2679 -1.4043
55680SOL     OW76007   2.378   0.617   2.273  0.5973 -0.0594  0.3167
55680SOL    HW176008   2.378   0.617   2.368 -0.5816 -1.4565  0.3554
55680SOL    HW276009   2.460   0.576   2.248 -0.3411 -2.4095  0.8349
55681SOL     OW76010   1.978   5.850   7.633 -0.4127  0.1931  0.2002
55681SOL    HW176011   1.894   5.831   7.675  0.2441 -0.8877  1.0394
55681SOL    HW276012   1.954   5.905   7.558 -1.9412 -0.6057  0.0555
55682SOL     OW76013  11.377   0.157   3.487 -0.2785 -0.1223 -0.9586
55682SOL    HW176014  11.434   0.147   3.563  0.8914 -0.2201 -1.8265
55682SOL    HW276015  11.420   0.107   3.417 -1.4945 -0.3065 -1.6132
55683SOL     OW76016   5.028   9.210   4.182  0.5241  0.3177  0.0003
55683SOL    HW176017   5.108   9.254   4.210  0.6187 -0.1811  0.5588
55683SOL    HW276018   5.054   9.119   4.167  0.1760  0.2711 -0.3645
55684SOL     OW76019   2.251  11.488   8.346  0.4652 -0.0007  0.0831
55684SOL    HW176020   2.211  11.560   8.394  0.7191 -0.7033  1.4110
55684SOL    HW276021   2.182  11.457   8.288  0.0623  0.7297  0.1619
55685SOL     OW76022  10.793  12.009  10.633 -0.4589  0.6471  0.5757
55685SOL    HW176023  10.796  12.050  10.546  0.3859  0.3624  0.4649
55685SOL    HW276024  10.790  12.083  10.694  0.7141  0.8859  0.3640
55686SOL     OW76025   0.775   6.865   0.139 -0.0611 -0.2734  0.1337
55686SOL    HW176026   0.821   6.848   0.057 -0.2290 -1.0189  0.1922
55686SOL    HW276027   0.719   6.940   0.120  3.4537  2.9005  0.9091
55687SOL     OW76028   3.409  10.777  10.348 -0.0556  0.3977  0.3144
55687SOL    HW176029   3.498  10.747  10.363 -0.4036 -0.7929  0.0626
55687SOL    HW276030   3.353  10.704  10.374 -0.9688  1.1349  0.4986
55688SOL     OW76031  11.754   7.077   2.198  0.3376  0.1158 -0.1773
55688SOL    HW176032  11.729   7.032   2.278 -0.2318  0.4724 -0.1525
55688SOL    HW276033  11.814   7.017   2.154 -0.1849 -0.5376 -0.0018
55689SOL     OW76034   1.286   5.483   6.650  0.6010 -0.0180 -0.3060
55689SOL    HW176035   1.225   5.442   6.711  0.8122  2.7244  1.9410
55689SOL    HW276036   1.232   5.539   6.595  0.5841 -1.4427 -1.8200
55690SOL     OW76037   2.741   7.800   5.451  0.0929  0.1304  0.3905
55690SOL    HW176038   2.822   7.797   5.502  0.9939 -0.1873 -1.0353
55690SOL    HW276039   2.748   7.727   5.390  0.0392  1.7472 -1.6450
55691SOL     OW76040   8.894   5.712   6.365  0.2656  0.5654  0.7485
55691SOL    HW176041   8.892   5.727   6.271 -0.5752 -0.0788  0.6489
55691SOL    HW276042   8.980   5.674   6.381 -0.2545 -1.0812 -0.0758
55692SOL     OW76043  10.506   6.665  10.944  0.5239 -0.2717  0.0839
55692SOL    HW176044  10.466   6.631  11.024  1.0382  1.0234  0.9219
55692SOL    HW276045  10.525   6.757  10.963 -1.8589  0.8942 -2.4549
55693SOL     OW76046   4.502   7.037   1.398 -0.3184  0.2347  0.3460
55693SOL    HW176047   4.550   7.016   1.478 -2.7661 -1.0947  1.5761
55693SOL    HW276048   4.478   7.130   1.409 -2.0253 -0.3273  2.0495
55694SOL     OW76049   1.325   0.676  11.134  0.0514 -0.1487 -0.5008
55694SOL    HW176050   1.383   0.748  11.158  0.6776 -0.3337 -1.4207
55694SOL    HW276051   1.248   0.720  11.097  0.1579  0.0615 -0.4754
55695SOL     OW76052   6.093   2.311  11.975 -0.3924  0.0170  0.0146
55695SOL    HW176053   6.000   2.333  11.967 -0.4259 -0.6865 -2.3348
55695SOL    HW276054   6.099   2.219  11.949  0.6047 -0.9232  3.2099
55696SOL     OW76055  11.444   3.155   6.077  0.1409  0.5139  0.2284
55696SOL    HW176056  11.509   3.115   6.020  0.7364  1.5682  0.1453
55696SOL    HW276057  11.479   3.145   6.165 -0.4776 -0.5493  0.3696
55697SOL     OW76058   7.426  11.617   3.199  0.9198  0.1250 -0.2715
55697SOL    HW176059   7.434  11.601   3.104 -2.1544 -0.6434 -0.5210
55697SOL    HW276060   7.496  11.678   3.219  1.6735  0.3272 -3.0537
55698SOL     OW76061   4.472  10.584  11.705 -0.3179 -0.6765  0.6197
55698SOL    HW176062   4.387  10.592  11.662 -0.0678  1.9381  0.3910
55698SOL    HW276063   4.453  10.547  11.791 -1.3618 -2.2212 -0.2498
55699SOL     OW76064   6.773   8.253   2.331 -0.3288  0.3399  0.4966
55699SOL    HW176065   6.845   8.277   2.389  0.1403  0.7745 -0.2522
55699SOL    HW276066   6.756   8.161   2.350 -0.0103  0.4142  1.1414
55700SOL     OW76067   5.497   5.906   4.520  0.4730 -0.3604  0.2012
55700SOL    HW176068   5.497   5.974   4.587  0.1001 -2.1510  2.1275
55700SOL    HW276069   5.587   5.906   4.486  0.8000  0.2870  1.0152
55701SOL     OW76070   5.978   7.142   2.677 -0.1831  0.5992 -0.2469
55701SOL    HW176071   6.071   7.148   2.700 -0.3613  0.0961  0.6561
55701SOL    HW276072   5.978   7.123   2.583  0.6123  1.0937 -0.3537
55702SOL     OW76073   2.457  10.453   1.914 -0.1159 -0.0573 -0.1798
55702SOL    HW176074   2.472  10.453   1.819 -0.0301 -1.8133 -0.1944
55702SOL    HW276075   2.493  10.370   1.944 -1.8249 -0.3762  1.1235
55703SOL     OW76076   8.105   7.633   0.920 -0.2026 -0.3071  0.7259
55703SOL    HW176077   8.132   7.710   0.870 -2.1716  0.0310  0.0912
55703SOL    HW276078   8.109   7.661   1.011 -1.1546  0.6928  0.4925
55704SOL     OW76079   9.777   2.130   0.368 -0.7628  0.3562  0.3162
55704SOL    HW176080   9.693   2.089   0.346 -0.1578 -0.4213 -0.6072
55704SOL    HW276081   9.797   2.098   0.455 -0.4100 -1.1827 -0.3017
55705SOL     OW76082   8.391   9.841   6.153 -0.0658 -0.1078 -0.3049
55705SOL    HW176083   8.349   9.815   6.071  0.6291 -0.9436 -0.4128
55705SOL    HW276084   8.450   9.768   6.174 -0.7805 -0.2729  1.3327
55706SOL     OW76085  10.921   2.142   3.788 -0.0006  0.5102  0.1673
55706SOL    HW176086  10.986   2.145   3.717  1.0123  0.6152  1.0686
55706SOL    HW276087  10.935   2.223   3.837 -0.9176  0.5991  0.2963
55707SOL     OW76088  10.860  10.353  11.187 -0.3605 -0.4072  0.0670
55707SOL    HW176089  10.920  10.348  11.113 -1.5658 -2.8615 -0.8849
55707SOL    HW276090  10.773  10.339  11.148 -1.2997  0.5840  1.6884
55708SOL     OW76091  11.951   9.557   6.781  0.4731  0.5464  0.1549
55708SOL    HW176092  12.016   9.517   6.723  1.1466  1.0255  0.5631
55708SOL    HW276093  11.956   9.507   6.862  0.6044  0.8224  0.3189
55709SOL     OW76094   0.819   3.385   5.403 -0.6167  0.0587 -0.0669
55709SOL    HW176095   0.899   3.408   5.354  0.1595 -0.2633  1.0120
55709SOL    HW276096   0.830   3.293   5.425 -1.0809  0.1219  0.4575
55710SOL     OW76097   6.287   4.124  10.512  0.0216 -0.2338 -0.6476
55710SOL    HW176098   6.321   4.057  10.453  1.4729  1.2938 -1.6182
55710SOL    HW276099   6.348   4.124  10.586 -0.4795 -0.5544 -0.2221
55711SOL     OW76100   4.957   6.232  11.944  0.2492 -0.3480 -0.1998
55711SOL    HW176101   4.903   6.306  11.971  1.5248 -0.1131  1.9987
55711SOL    HW276102   4.989   6.256  11.857  0.8589  1.8630  0.5712
55712SOL     OW76103   8.584   1.985   9.042 -0.1630 -1.0802 -0.1236
55712SOL    HW176104   8.596   2.053   9.108  0.9238 -0.4500 -0.9352
55712SOL    HW276105   8.589   1.903   9.091 -1.3073 -0.6076  0.8410
55713SOL     OW76106  11.478   2.754   8.681  0.2627 -0.1480  0.2610
55713SOL    HW176107  11.386   2.743   8.657  0.7295 -2.6982 -0.6653
55713SOL    HW276108  11.476   2.784   8.772 -1.4937 -1.5519  0.7250
55714SOL     OW76109   9.999   0.136   1.257 -0.3304 -0.7913  0.1646
55714SOL    HW176110  10.094   0.136   1.244 -0.1397 -1.6630  1.3405
55714SOL    HW276111   9.963   0.105   1.174  0.4100 -0.5100 -0.2750
55715SOL     OW76112   0.225   8.392   8.814 -0.1316 -0.2524 -0.4909
55715SOL    HW176113   0.131   8.391   8.798  0.1368 -0.2476 -2.2854
55715SOL    HW276114   0.238   8.467   8.872 -1.0454  1.0553 -1.8692
55716SOL     OW76115   6.331   0.901  12.442  0.0797  0.2367 -0.1196
55716SOL    HW176116   6.414   0.908  12.489  0.1305 -0.7292 -0.0569
55716SOL    HW276117   6.268   0.877  12.509  0.2526 -1.7050 -0.5937
55717SOL     OW76118   4.392   8.871   8.417  0.0414 -0.1520 -0.3051
55717SOL    HW176119   4.318   8.857   8.357  0.1131 -0.4398 -0.3267
55717SOL    HW276120   4.457   8.916   8.363  0.0090 -0.1874 -0.3747
55718SOL     OW76121  11.335   0.542  10.737  0.1863 -0.2775  0.2708
55718SOL    HW176122  11.381   0.623  10.759  2.0151 -0.8111 -1.3887
55718SOL    HW276123  11.383   0.473  10.782 -0.1139 -0.6706  0.0008
55719SOL     OW76124   0.583  12.509   7.580  0.3278  0.0966 -0.3183
55719SOL    HW176125   0.551  12.589   7.621 -1.5780 -0.7531 -0.0269
55719SOL    HW276126   0.523  12.441   7.610 -0.6680 -0.7636 -3.7669
55720SOL     OW76127   5.370   1.210   2.325 -0.1964 -0.4195 -0.2318
55720SOL    HW176128   5.414   1.242   2.404 -1.5920  0.7977  0.1001
55720SOL    HW276129   5.421   1.247   2.253 -0.9606  1.4634  0.1414
55721SOL     OW76130   1.910   0.064   0.785 -0.0200  0.0126 -0.5530
55721SOL    HW176131   1.858   0.104   0.854  0.9046  1.5380 -0.7031
55721SOL    HW276132   1.848   0.052   0.713 -0.3273  1.1960 -0.5019
55722SOL     OW76133   9.522   9.607  10.778 -0.0134  0.6687  0.5999
55722SOL    HW176134   9.443   9.641  10.737 -0.7593  1.4390  2.5342
55722SOL    HW276135   9.595   9.643  10.727 -0.8821  1.5478 -0.0365
55723SOL     OW76136  12.155   6.365  11.099 -0.1847  0.7833  0.0103
55723SOL    HW176137  12.177   6.281  11.137 -0.6615  0.9106  0.5810
55723SOL    HW276138  12.064   6.356  11.071  0.5207  0.2558 -2.3446
55724SOL     OW76139  11.565   9.101   3.683 -0.6709 -0.2993  0.4409
55724SOL    HW176140  11.583   9.013   3.715  0.9117  0.0078  0.4814
55724SOL    HW276141  11.614   9.108   3.601 -3.3278 -0.5041 -1.2930
55725SOL     OW76142   1.350   9.866   3.486  0.3100 -0.0545  0.3488
55725SOL    HW176143   1.309   9.884   3.570  1.4291  1.8884  0.5518
55725SOL    HW276144   1.323   9.939   3.430  1.1645 -0.2589 -0.3548
55726SOL     OW76145   9.728   9.962   6.493  0.2616 -0.2155 -0.3691
55726SOL    HW176146   9.741   9.881   6.543  0.1812  0.9562  1.6916
55726SOL    HW276147   9.816   9.993   6.474  0.3517  0.3935  0.9407
55727SOL     OW76148   9.817   2.227   7.602 -0.0798  0.2052 -0.1172
55727SOL    HW176149   9.853   2.261   7.684  0.6241  1.7827 -1.0456
55727SOL    HW276150   9.740   2.282   7.585  0.4900  0.7173 -1.1299
55728SOL     OW76151  11.802  10.109  11.713  0.4760  0.3828  0.0524
55728SOL    HW176152  11.830  10.199  11.695 -1.4831  0.9781 -0.2466
55728SOL    HW276153  11.709  10.108  11.689  0.5699 -1.8502 -0.3824
55729SOL     OW76154   5.069   2.685   7.974  0.5715 -0.2243  0.1886
55729SOL    HW176155   5.087   2.774   8.005  0.0856  0.6861 -1.9248
55729SOL    HW276156   5.055   2.695   7.880 -1.6184 -2.2224  0.2021
55730SOL     OW76157  10.072   4.499   2.357 -0.2729  0.5425 -0.0707
55730SOL    HW176158  10.000   4.485   2.296 -0.4684 -1.6459  0.5695
55730SOL    HW276159  10.038   4.468   2.441  0.1059  3.1273  1.1164
55731SOL     OW76160   7.609   9.278  10.098  0.5982  0.4026 -0.0423
55731SOL    HW176161   7.598   9.352  10.158  0.5864 -0.8263  1.5116
55731SOL    HW276162   7.703   9.263  10.095  0.6707  0.9634 -0.9937
55732SOL     OW76163   1.550   2.779   4.081  0.7584 -0.0905 -0.0801
55732SOL    HW176164   1.618   2.782   4.149  0.2985  0.2291  0.3730
55732SOL    HW276165   1.575   2.705   4.026 -1.1237 -3.2718  2.8887
55733SOL     OW76166   6.142   9.845   7.147  0.2868  0.4105 -0.1664
55733SOL    HW176167   6.225   9.823   7.189  1.9063  0.8295 -2.8757
55733SOL    HW276168   6.146   9.801   7.062 -2.4015  0.2622 -0.2821
55734SOL     OW76169   1.386   6.383   6.571 -0.0306 -0.1687  0.3643
55734SOL    HW176170   1.292   6.390   6.556  0.0162  0.8475  0.4774
55734SOL    HW276171   1.394   6.324   6.646 -0.4577 -1.9952 -0.9471
55735SOL     OW76172   1.812   7.009   8.246 -0.9090 -0.1292 -0.0730
55735SOL    HW176173   1.802   7.040   8.156 -1.1968 -0.8737 -0.3030
55735SOL    HW276174   1.807   7.089   8.300 -2.3839  0.1581 -0.5925
55736SOL     OW76175   9.213   7.901   2.682 -0.4422 -0.1145  0.5510
55736SOL    HW176176   9.192   7.861   2.598 -1.2681  1.5571 -0.0872
55736SOL    HW276177   9.203   7.995   2.667  1.1408  0.3491  2.0446
55737SOL     OW76178   0.468   8.541   5.825  0.3681  0.7492 -0.0605
55737SOL    HW176179   0.391   8.588   5.794  1.2452  2.2267 -0.0532
55737SOL    HW276180   0.435   8.486   5.896 -0.4610  2.3988  0.8965
55738SOL     OW76181   7.395   7.696   0.187 -0.0505  0.5025  0.3081
55738SOL    HW176182   7.416   7.764   0.124  1.5264  0.4871  0.7691
55738SOL    HW276183   7.336   7.637   0.140  0.9375  0.5807 -1.1172
55739SOL     OW76184   5.120  11.465   7.622 -0.2109 -0.8263 -0.1666
55739SOL    HW176185   5.110  11.527   7.694 -0.1726 -1.7181  0.6223
55739SOL    HW276186   5.114  11.519   7.543 -2.6911 -0.1119  0.4156
55740SOL     OW76187   7.405   9.230  12.413  0.1824  0.4427  0.0815
55740SOL    HW176188   7.388   9.160  12.350 -0.6446  1.2017 -0.5805
55740SOL    HW276189   7.350   9.209  12.488  0.8137 -0.2187  0.3636
55741SOL     OW76190   8.159   2.661   1.206  0.1863 -0.4419  0.1362
55741SOL    HW176191   8.191   2.604   1.136  1.8222 -0.3930  0.7780
55741SOL    HW276192   8.173   2.610   1.286  0.5813  0.3857  0.6137
55742SOL     OW76193   8.547  12.008   5.435 -0.1000  0.2463 -0.2312
55742SOL    HW176194   8.490  12.061   5.380  0.5095 -0.8307 -1.9511
55742SOL    HW276195   8.512  11.919   5.429  1.7351 -0.4577 -1.4003
55743SOL     OW76196   0.030   4.379   1.256 -0.6385  0.1846 -0.4706
55743SOL    HW176197  -0.052   4.332   1.269 -0.9513  0.6485 -0.7387
55743SOL    HW276198   0.007   4.451   1.197 -0.3192  1.0914  0.4923
55744SOL     OW76199   6.171   9.179  10.234  0.0175  0.5250  0.4912
55744SOL    HW176200   6.220   9.098  10.243 -0.6998  0.2542  2.3553
55744SOL    HW276201   6.210   9.223  10.158  0.6363 -1.3795 -0.3542
55745SOL     OW76202   3.220  12.477   8.745  0.5039 -0.1096  0.8603
55745SOL    HW176203   3.283  12.405   8.751  1.2841  0.6253  1.8811
55745SOL    HW276204   3.151  12.455   8.807 -0.9930 -1.5679 -1.2021
55746SOL     OW76205   1.226   4.174   8.433 -0.1762  0.0856 -0.0597
55746SOL    HW176206   1.188   4.248   8.481 -2.0967 -0.5317 -0.5374
55746SOL    HW276207   1.277   4.126   8.498  0.4346  1.3620  0.4354
55747SOL     OW76208   9.109  10.110   5.510  0.0326  0.1728  0.1139
55747SOL    HW176209   9.018  10.081   5.508 -1.0268  3.1910 -1.4706
55747SOL    HW276210   9.134  10.119   5.418  0.9124  2.0722  0.4753
55748SOL     OW76211   9.694  11.984  12.375  0.1433 -0.0160  0.4309
55748SOL    HW176212   9.727  12.039  12.304  0.2263 -0.9281 -0.2643
55748SOL    HW276213   9.772  11.960  12.425 -0.0683  1.7627  1.7059
55749SOL     OW76214   9.337   1.340   9.020 -0.0930  0.2049 -0.6222
55749SOL    HW176215   9.422   1.367   9.055  0.1476 -0.3547 -0.7569
55749SOL    HW276216   9.356   1.264   8.965 -0.6350  0.2950 -0.9539
55750SOL     OW76217   0.484  11.963  10.232 -0.0182 -0.1516  0.6102
55750SOL    HW176218   0.508  11.969  10.140 -0.9970  1.3566  0.4093
55750SOL    HW276219   0.402  11.912  10.232 -1.5547  2.1612  0.2715
55751SOL     OW76220   5.287   5.659   9.471  0.2603 -0.1548  0.7254
55751SOL    HW176221   5.206   5.648   9.521 -0.5473  1.9346 -0.0235
55751SOL    HW276222   5.318   5.746   9.495  1.2611 -0.1574 -0.4618
55752SOL     OW76223   0.450   4.779   6.800  1.0588  0.2473  0.1504
55752SOL    HW176224   0.534   4.740   6.827  1.4899  1.7644  1.1809
55752SOL    HW276225   0.390   4.705   6.794  1.8633 -0.6265  1.8932
55753SOL     OW76226   3.150   4.466   9.801 -0.4914 -0.7298  0.5463
55753SOL    HW176227   3.220   4.425   9.751 -0.4858 -1.3274  1.0347
55753SOL    HW276228   3.123   4.399   9.864 -2.3178 -0.9436 -0.4048
55754SOL     OW76229   7.188  11.767   8.697 -0.1789  0.9201  0.0615
55754SOL    HW176230   7.125  11.837   8.716 -1.0765 -0.1673  1.3483
55754SOL    HW276231   7.270  11.813   8.678 -0.4094  2.3267  2.0702
55755SOL     OW76232   8.020   1.400   9.576  0.1918  0.1317 -0.4939
55755SOL    HW176233   7.969   1.353   9.511  1.9645 -2.8383  0.0593
55755SOL    HW276234   8.107   1.410   9.536  0.6904  0.2221  0.5595
55756SOL     OW76235   1.073   8.885   5.764 -0.3888 -0.0436 -0.0462
55756SOL    HW176236   1.099   8.965   5.811  1.1948 -1.6261  1.9833
55756SOL    HW276237   1.127   8.883   5.686  0.7867  0.0693  0.7484
55757SOL     OW76238  10.289   3.096   1.136 -0.2570 -0.1988 -0.1983
55757SOL    HW176239  10.312   3.104   1.043  0.8217 -1.0233 -0.0233
55757SOL    HW276240  10.281   3.186   1.167 -0.7315  0.0865 -1.1124
55758SOL     OW76241   4.395   3.216  11.898  0.5760 -0.0364 -0.0118
55758SOL    HW176242   4.401   3.189  11.806  0.6273  0.7892 -0.2644
55758SOL    HW276243   4.431   3.305  11.899  2.7148 -0.8247  1.2087
55759SOL     OW76244   0.731   0.330   0.744  0.0443 -0.4016  0.4761
55759SOL    HW176245   0.636   0.341   0.740 -0.2059 -1.1542  2.7440
55759SOL    HW276246   0.763   0.415   0.777  0.2607  0.0857 -0.9370
55760SOL     OW76247   3.374   8.286  12.280  0.1520  0.3945  0.8989
55760SOL    HW176248   3.344   8.241  12.359 -0.6611  0.6883  0.7692
55760SOL    HW276249   3.401   8.216  12.221  3.2280  0.2193  2.3426
55761SOL     OW76250   5.952   5.255   1.230  0.2668 -0.0616  0.0081
55761SOL    HW176251   5.979   5.167   1.256  1.6740  0.7021  1.3128
55761SOL    HW276252   5.882   5.278   1.291 -0.2874 -0.3521 -0.5036
55762SOL     OW76253   6.319   9.328   2.204 -0.7529  0.3092  0.0496
55762SOL    HW176254   6.315   9.324   2.108  0.4749 -0.0518 -0.0084
55762SOL    HW276255   6.367   9.249   2.229  0.6930  1.3645  0.8076
55763SOL     OW76256   7.444  10.392   5.063 -0.1379  0.7410  0.6352
55763SOL    HW176257   7.479  10.480   5.070 -1.0261  1.0931  0.7603
55763SOL    HW276258   7.349  10.403   5.063 -0.3307  0.0612 -2.3235
55764SOL     OW76259   9.890   1.886  10.063 -0.4028 -0.3311 -0.0377
55764SOL    HW176260   9.985   1.896  10.058 -0.3469 -0.3321  0.9465
55764SOL    HW276261   9.859   1.913   9.976  0.4497  0.1715 -0.1999
55765SOL     OW76262   6.535   0.092   1.583 -0.3181  0.1229  0.0437
55765SOL    HW176263   6.486   0.078   1.664  1.2186 -0.3330  0.9375
55765SOL    HW276264   6.557   0.185   1.583 -2.3333  0.6666 -1.0902
55766SOL     OW76265   8.566   0.951  11.802  0.3349  0.0345  0.7648
55766SOL    HW176266   8.648   0.995  11.780  0.5328 -1.6018 -2.3754
55766SOL    HW276267   8.499   1.019  11.789  0.9988  0.8220  1.3484
55767SOL     OW76268   4.220   6.736   7.725 -0.2033 -0.4070 -0.0831
55767SOL    HW176269   4.249   6.826   7.739 -0.1835 -0.2438 -1.1529
55767SOL    HW276270   4.282   6.683   7.776 -1.0668  0.2482  1.7253
55768SOL     OW76271   8.975   2.003  12.461 -0.1401 -0.5643  0.0065
55768SOL    HW176272   9.030   2.045  12.395  2.3086 -0.6941  1.8449
55768SOL    HW276273   9.003   1.912  12.462 -0.4355 -0.6559  0.9392
55769SOL     OW76274   7.692   1.234   9.010  1.1946  0.6317 -0.2923
55769SOL    HW176275   7.715   1.168   9.075  1.0460  1.7680  0.9452
55769SOL    HW276276   7.762   1.299   9.015 -0.2007  2.1300  0.7419
55770SOL     OW76277   3.455   9.096   9.188  0.3540 -0.5843 -0.0705
55770SOL    HW176278   3.471   9.152   9.264  1.6644 -0.5257 -0.3717
55770SOL    HW276279   3.360   9.084   9.187 -0.0111  1.9099 -0.2155
55771SOL     OW76280   6.752   3.733   4.882 -0.0936 -0.3931 -0.2710
55771SOL    HW176281   6.759   3.683   4.800  0.3726 -1.8360  0.6090
55771SOL    HW276282   6.718   3.818   4.855 -0.3554 -0.9752 -1.9146
55772SOL     OW76283  12.589   5.287   8.057 -0.1173  0.5328  0.1226
55772SOL    HW176284  12.554   5.374   8.077 -0.6107 -0.0170  1.8225
55772SOL    HW276285  12.571   5.235   8.135  1.1861 -0.8029 -0.4052
55773SOL     OW76286   5.988   8.373   4.445  0.3846 -0.2258 -0.1313
55773SOL    HW176287   5.979   8.396   4.352  1.3972  0.6893 -0.0283
55773SOL    HW276288   5.982   8.457   4.491  1.0472 -0.5253  0.5302
55774SOL     OW76289  11.559   2.362  12.237  0.3862  0.0967 -0.7513
55774SOL    HW176290  11.570   2.390  12.328  1.8770 -1.0256 -0.5555
55774SOL    HW276291  11.594   2.434  12.185  0.0670  0.4905 -0.4276
55775SOL     OW76292   1.703   5.521   2.347  0.5844  0.2429  0.0950
55775SOL    HW176293   1.667   5.538   2.434 -1.3811  2.8014 -1.0871
55775SOL    HW276294   1.658   5.442   2.317  1.1712 -0.5813  1.2827
55776SOL     OW76295   6.886   8.329   0.651  0.4567 -0.1260  0.1309
55776SOL    HW176296   6.802   8.369   0.674 -0.6662 -2.0640 -0.3691
55776SOL    HW276297   6.898   8.350   0.559 -0.3014 -1.1540 -0.2229
55777SOL     OW76298   4.150   5.789   1.154  0.1958  0.1442 -0.9334
55777SOL    HW176299   4.199   5.813   1.076 -0.1325  1.5969 -0.7211
55777SOL    HW276300   4.213   5.745   1.211  0.3725 -1.1831 -2.1062
55778SOL     OW76301   2.170   2.516   9.011 -0.0066  0.2572  0.4679
55778SOL    HW176302   2.175   2.493   9.104 -4.0336  1.3430  1.1486
55778SOL    HW276303   2.097   2.464   8.978  0.3027  1.1226 -1.7030
55779SOL     OW76304   4.911   8.469   1.425 -0.9019  0.3870  0.5302
55779SOL    HW176305   4.953   8.524   1.492 -0.2789  1.0144 -0.3485
55779SOL    HW276306   4.862   8.530   1.371 -0.3092  0.0662 -0.3866
55780SOL     OW76307   6.918  10.455   7.212 -0.0224 -0.4178 -0.0046
55780SOL    HW176308   6.892  10.464   7.304 -0.3228  1.3833 -0.2305
55780SOL    HW276309   6.857  10.391   7.176  0.3396 -1.4381  1.1175
55781SOL     OW76310   9.474   6.378   1.653 -0.1238 -0.2598 -0.2684
55781SOL    HW176311   9.386   6.403   1.682 -0.9385 -2.0538 -0.9965
55781SOL    HW276312   9.491   6.296   1.699  1.3192  0.2054  0.0767
55782SOL     OW76313  10.394   0.285   8.607  0.0622 -0.7320  0.3642
55782SOL    HW176314  10.330   0.215   8.608  0.3660 -1.0558 -1.1431
55782SOL    HW276315  10.476   0.244   8.579  0.0409  0.3606 -1.4482
55783SOL     OW76316   7.340   4.237   3.793  0.4705  0.1710 -0.0455
55783SOL    HW176317   7.312   4.234   3.884  0.5102  1.4412  0.0297
55783SOL    HW276318   7.430   4.271   3.796 -0.1552  2.0068 -0.6329
55784SOL     OW76319  11.226   5.740   0.843  0.1661 -0.1375  0.1705
55784SOL    HW176320  11.217   5.793   0.923 -0.4310 -1.3102  0.9141
55784SOL    HW276321  11.303   5.776   0.799 -0.6327  1.7992  0.2623
55785SOL     OW76322   4.086   5.986  11.378  0.3157 -0.5900 -0.1953
55785SOL    HW176323   4.074   6.079  11.400  0.2326 -0.8571  0.9682
55785SOL    HW276324   4.013   5.965  11.321  0.5365  0.1506 -0.7623
55786SOL     OW76325  11.872   3.536   3.929  0.3599  0.3626  0.3934
55786SOL    HW176326  11.826   3.587   3.862  0.6409 -0.2496 -0.2830
55786SOL    HW276327  11.954   3.584   3.943  0.0094  0.8520  0.7912
55787SOL     OW76328  10.171   7.079  12.267  0.0498 -0.3265  0.1986
55787SOL    HW176329  10.146   7.161  12.311 -1.3191 -1.4831  1.7215
55787SOL    HW276330  10.232   7.037  12.328  2.2261  0.3151 -1.3990
55788SOL     OW76331   3.362   7.000   6.110 -0.1945 -0.1409 -0.0577
55788SOL    HW176332   3.375   6.910   6.079  0.1477 -0.0388 -0.2216
55788SOL    HW276333   3.286   6.995   6.167 -1.4588 -0.1450 -1.6955
55789SOL     OW76334   3.584   8.439   2.433 -0.1998  0.1534 -0.4784
55789SOL    HW176335   3.561   8.488   2.512  0.9421 -0.5587  0.3313
55789SOL    HW276336   3.514   8.375   2.422 -0.4997  0.4341 -0.2036
55790SOL     OW76337   9.540   5.170   7.010  0.4979 -0.6665 -0.2023
55790SOL    HW176338   9.541   5.258   6.973  2.1516 -1.4902 -2.3240
55790SOL    HW276339   9.592   5.117   6.949  0.6986 -2.8373  1.6949
55791SOL     OW76340   4.258   4.886   4.315  0.9237  0.3101 -0.0047
55791SOL    HW176341   4.297   4.896   4.228  0.5506  1.3522 -0.0693
55791SOL    HW276342   4.216   4.970   4.332 -0.1985 -0.3477  0.5996
55792SOL     OW76343   0.568   3.169   3.482 -0.0943 -0.2523 -0.0938
55792SOL    HW176344   0.510   3.105   3.523 -0.7489 -0.4956 -1.3733
55792SOL    HW276345   0.513   3.216   3.420  0.9970 -0.2861 -1.1260
55793SOL     OW76346  11.881   0.066   0.602  0.1316 -0.1913  0.3055
55793SOL    HW176347  11.903  -0.020   0.566  1.5629 -0.1214  0.9638
55793SOL    HW276348  11.868   0.121   0.525 -1.5350 -1.1303 -0.1449
55794SOL     OW76349   5.307   1.800   6.693 -0.1142  0.7485 -0.6090
55794SOL    HW176350   5.215   1.801   6.719 -0.0374  0.9490 -0.3330
55794SOL    HW276351   5.342   1.720   6.732 -0.4991 -0.0726 -1.9101
55795SOL     OW76352   3.211   0.866  11.012 -0.0361 -0.1138 -0.3681
55795SOL    HW176353   3.290   0.910  11.042  0.5333 -0.6439 -1.0523
55795SOL    HW276354   3.167   0.837  11.092  0.3638  0.3444  0.0186
55796SOL     OW76355   0.878   5.674   0.008 -0.0111 -0.1726  0.6820
55796SOL    HW176356   0.833   5.705  -0.070 -0.3008  0.6440  1.1594
55796SOL    HW276357   0.850   5.583   0.017 -2.2868  0.5026  1.4089
55797SOL     OW76358   1.875   4.122   9.624  0.2443  0.3994 -1.0194
55797SOL    HW176359   1.803   4.160   9.574 -1.8060 -0.7260  0.9316
55797SOL    HW276360   1.931   4.197   9.646 -1.9579  1.8337 -0.0023
55798SOL     OW76361  10.971   1.438   7.555 -0.3762  0.3589 -0.3885
55798SOL    HW176362  10.950   1.357   7.509 -1.1653  0.1986  0.2344
55798SOL    HW276363  10.975   1.504   7.485  1.5715 -0.4045 -1.0779
55799SOL     OW76364   2.551   0.323   4.895 -0.1467  0.0329  0.1861
55799SOL    HW176365   2.645   0.303   4.891  0.3648  1.7635  2.0022
55799SOL    HW276366   2.547   0.418   4.887 -1.8271 -0.0642 -0.4444
55800SOL     OW76367  10.824   6.147   6.256  0.2779 -0.4161 -0.4017
55800SOL    HW176368  10.887   6.211   6.225  0.3832 -0.6490 -0.6657
55800SOL    HW276369  10.847   6.066   6.211  0.6894 -0.8657  0.5728
55801SOL     OW76370   5.322   5.906   6.029  0.0749 -0.3527  0.0966
55801SOL    HW176371   5.332   6.000   6.015 -2.4949 -0.2145 -1.2675
55801SOL    HW276372   5.295   5.897   6.120 -2.8036  0.5865 -0.5834
55802SOL     OW76373   7.842   1.094   1.462 -0.2777  0.6418 -0.3269
55802SOL    HW176374   7.915   1.072   1.404  1.0102  3.5086  0.0137
55802SOL    HW276375   7.767   1.104   1.404  0.5721  1.6318 -1.3143
55803SOL     OW76376   9.564  12.061   9.728  0.2712  0.1011 -0.1042
55803SOL    HW176377   9.650  12.074   9.688 -0.1489 -0.1588 -1.1327
55803SOL    HW276378   9.542  11.970   9.710  0.0888 -0.0420  0.7907
55804SOL     OW76379   3.516  10.324   8.249  0.4111  0.2661  0.2961
55804SOL    HW176380   3.574  10.387   8.206  0.1055 -0.2998 -0.9811
55804SOL    HW276381   3.437  10.323   8.195  0.4681 -1.3339  0.2041
55805SOL     OW76382  11.697   1.234   4.472  0.1698 -0.3519  0.4115
55805SOL    HW176383  11.708   1.329   4.478 -0.1438 -0.3093  0.3237
55805SOL    HW276384  11.726   1.201   4.557  2.1733 -0.3667 -0.2077
55806SOL     OW76385   0.968   3.435   0.626 -0.6003 -0.0860 -0.2123
55806SOL    HW176386   0.967   3.340   0.640 -2.3016 -0.2011 -0.8618
55806SOL    HW276387   0.955   3.472   0.713  0.3245 -0.4293  0.0805
55807SOL     OW76388  10.922   9.620   8.949  0.1539 -0.0191 -0.1967
55807SOL    HW176389  10.903   9.562   9.023  0.0701  0.0887 -0.1329
55807SOL    HW276390  10.836   9.644   8.915  0.1989 -0.4021 -0.5907
55808SOL     OW76391   6.961   2.184   3.626 -0.5834  0.4058  0.6475
55808SOL    HW176392   6.933   2.243   3.557  1.0610  1.7742  1.0837
55808SOL    HW276393   6.987   2.104   3.581 -0.3195  0.9759 -0.2340
55809SOL     OW76394   8.720   7.666   1.218 -0.0596 -0.7449 -0.2338
55809SOL    HW176395   8.628   7.652   1.197  0.2508 -1.0887 -1.4874
55809SOL    HW276396   8.738   7.606   1.291 -1.7947  2.2431  2.9467
55810SOL     OW76397   9.301  11.262   8.477 -0.2167 -0.7425 -0.3525
55810SOL    HW176398   9.363  11.222   8.415 -0.1247 -0.4976 -0.4198
55810SOL    HW276399   9.261  11.188   8.521  0.2561 -0.9025 -0.1806
55811SOL     OW76400   7.821   5.508   8.525  0.5630 -0.1319 -0.9384
55811SOL    HW176401   7.833   5.577   8.460 -1.7248 -1.1549 -2.5545
55811SOL    HW276402   7.887   5.443   8.503  1.0730  0.3935 -0.9963
55812SOL     OW76403   3.748   2.358  11.980  0.2061  0.5806  0.1556
55812SOL    HW176404   3.682   2.385  12.043  1.5421  1.0282  1.4041
55812SOL    HW276405   3.811   2.307  12.031  1.3970  1.0740 -0.7690
55813SOL     OW76406   3.391   5.684  10.403 -0.2415 -0.1930 -0.6479
55813SOL    HW176407   3.451   5.630  10.352  1.4251 -0.0617  1.0845
55813SOL    HW276408   3.412   5.774  10.378 -1.6986 -0.2107 -2.1032
55814SOL     OW76409   8.764   7.825   3.670 -0.2969  0.5440  0.2083
55814SOL    HW176410   8.695   7.758   3.673 -0.6213  0.9145  1.9833
55814SOL    HW276411   8.844   7.779   3.692 -0.4124  0.5866  0.7383
55815SOL     OW76412   3.259   6.397   3.152  0.5868  0.4830 -0.2411
55815SOL    HW176413   3.223   6.314   3.120 -1.1478  0.7202  0.9825
55815SOL    HW276414   3.292   6.376   3.240  2.5759  0.5198 -0.9266
55816SOL     OW76415   9.228   7.765   6.723 -0.1892 -0.3930 -0.2586
55816SOL    HW176416   9.213   7.834   6.658 -2.2119 -0.3984  0.1357
55816SOL    HW276417   9.216   7.808   6.808  1.1719 -0.6710  0.1014
55817SOL     OW76418   2.310   6.141   2.630 -0.1642  0.0952 -0.2719
55817SOL    HW176419   2.246   6.150   2.699 -0.7539 -0.3653 -0.7444
55817SOL    HW276420   2.270   6.182   2.553  0.3505  0.3307 -0.4191
55818SOL     OW76421   2.437  10.483   3.786 -0.4538  0.1581 -0.0847
55818SOL    HW176422   2.509  10.537   3.754 -1.1696  1.2430  0.0832
55818SOL    HW276423   2.372  10.485   3.716 -0.9652  0.4670  0.3921
55819SOL     OW76424   7.813   3.479  10.532 -0.3912 -0.1995  0.0509
55819SOL    HW176425   7.738   3.502  10.476 -0.0328 -1.0552 -0.8123
55819SOL    HW276426   7.884   3.535  10.500  0.1434 -1.5399 -1.2088
55820SOL     OW76427   0.708   9.413   8.562  0.3329 -0.0294 -0.0095
55820SOL    HW176428   0.730   9.364   8.483  0.8206  1.4375 -0.8305
55820SOL    HW276429   0.613   9.421   8.560  0.1806 -1.5313  0.5196
55821SOL     OW76430   7.621   3.885  10.972 -0.3217  1.0565  0.2310
55821SOL    HW176431   7.570   3.892  11.053 -1.1199  0.1266 -0.1782
55821SOL    HW276432   7.573   3.823  10.918  2.1636 -1.3498  0.5472
55822SOL     OW76433   1.012  10.071   0.845  0.1219 -0.2535 -0.2525
55822SOL    HW176434   1.036  10.134   0.777 -0.3555 -0.3258 -0.4906
55822SOL    HW276435   1.053  10.105   0.925  1.3912 -0.6035 -0.7198
55823SOL     OW76436   0.908  10.395  10.891  0.4890  0.2692  0.2304
55823SOL    HW176437   0.953  10.479  10.894 -1.5385  1.4856 -0.7266
55823SOL    HW276438   0.918  10.365  10.800 -1.9365  1.4362 -0.5201
55824SOL     OW76439   0.226   2.716   8.376 -0.4829 -0.0242 -0.0335
55824SOL    HW176440   0.286   2.751   8.310 -1.1059  0.6533 -0.2546
55824SOL    HW276441   0.275   2.723   8.459  0.3094 -0.9051 -0.4130
55825SOL     OW76442   0.175   2.942   5.876 -0.6315 -0.3463  0.4848
55825SOL    HW176443   0.133   2.862   5.843 -2.1132  0.3532  0.5592
55825SOL    HW276444   0.147   2.947   5.968 -1.2250  0.6490  0.2690
55826SOL     OW76445  11.519  11.616   1.408 -0.4014 -0.0518  0.0744
55826SOL    HW176446  11.525  11.707   1.436  1.2539 -0.5191  1.4454
55826SOL    HW276447  11.527  11.619   1.313 -0.5142  1.2291  0.0935
55827SOL     OW76448   2.797   1.118   4.064  1.0234  0.3798 -0.3180
55827SOL    HW176449   2.881   1.139   4.023  0.6310 -0.1627 -1.4520
55827SOL    HW276450   2.732   1.158   4.006  0.4950  1.2748  0.8423
55828SOL     OW76451  11.614  12.355   6.624  0.3168 -0.8215  0.2873
55828SOL    HW176452  11.623  12.416   6.698  0.1104 -0.7967  0.2929
55828SOL    HW276453  11.522  12.331   6.624 -0.0825  0.5552 -1.0566
55829SOL     OW76454   1.827   9.822   8.614 -0.0742  0.3577  0.2467
55829SOL    HW176455   1.765   9.774   8.558 -0.4156  1.3157 -0.2169
55829SOL    HW276456   1.912   9.781   8.596 -0.1726  0.6565 -1.0141
55830SOL     OW76457   0.044   5.351   0.298  0.3866  0.2199 -0.3942
55830SOL    HW176458   0.098   5.389   0.367  0.7419  1.8522 -1.5348
55830SOL    HW276459   0.001   5.426   0.257 -0.9484 -0.8475 -1.0264
55831SOL     OW76460   9.116   1.264   7.977  0.3909  0.2520  0.0680
55831SOL    HW176461   9.022   1.275   7.988  0.2407  0.9657 -1.7014
55831SOL    HW276462   9.129   1.170   7.972  0.0973  0.0073  2.5980
55832SOL     OW76463   2.569  10.225   1.944 -0.5542  0.3493  0.0499
55832SOL    HW176464   2.515  10.172   2.002 -0.3347  0.7129  0.6015
55832SOL    HW276465   2.657  10.189   1.954 -0.5943  0.1330 -0.3926
55833SOL     OW76466   0.086  10.853   9.672 -0.1585  0.0647  0.1641
55833SOL    HW176467   0.007  10.885   9.715  0.1823  1.2516 -0.0296
55833SOL    HW276468   0.158  10.892   9.722  0.2577  0.5395 -0.7601
55834SOL     OW76469  11.725   5.525  10.523  0.2506  0.1696  0.5272
55834SOL    HW176470  11.737   5.435  10.494  0.4974  0.8943 -1.8714
55834SOL    HW276471  11.809   5.568  10.506  0.1581  0.8767  1.6863
55835SOL     OW76472   9.138   8.327  10.605  0.3113  0.3652  0.4346
55835SOL    HW176473   9.192   8.249  10.602 -2.3073 -1.5709  0.0393
55835SOL    HW276474   9.052   8.296  10.633 -0.9105  3.0893  0.0671
55836SOL     OW76475  11.369   8.552   1.865  0.8646 -0.2360 -0.3530
55836SOL    HW176476  11.377   8.471   1.916  0.1157 -0.9123 -1.2671
55836SOL    HW276477  11.281   8.548   1.828  1.6016 -0.1069 -2.2259
55837SOL     OW76478   1.422   2.558   6.236 -0.3053  0.8041  0.0318
55837SOL    HW176479   1.414   2.599   6.150  1.4475 -1.7450 -1.4848
55837SOL    HW276480   1.488   2.611   6.281  0.6818  0.7123 -1.2319
55838SOL     OW76481   2.100   5.403   3.132 -0.0091 -0.3839  0.1782
55838SOL    HW176482   2.007   5.407   3.153 -0.3135 -1.8516 -0.7664
55838SOL    HW276483   2.144   5.438   3.210 -1.3421  0.5374  0.5417
55839SOL     OW76484   0.194  11.560   2.122 -0.6701 -0.5206  0.2521
55839SOL    HW176485   0.148  11.598   2.048 -2.2709 -0.1660  1.3867
55839SOL    HW276486   0.285  11.589   2.111 -0.9458 -0.1431 -1.3158
55840SOL     OW76487   4.308   0.839   2.305  0.6128 -0.5052 -0.0127
55840SOL    HW176488   4.332   0.904   2.371 -1.7554  0.5768 -0.1219
55840SOL    HW276489   4.381   0.841   2.243  1.6703  0.3605  1.1945
55841SOL     OW76490   9.790   5.032   3.668 -0.5319  0.4041 -0.3677
55841SOL    HW176491   9.729   5.060   3.736 -1.0877  2.4194 -1.6192
55841SOL    HW276492   9.743   4.964   3.620  0.0431 -1.3804  1.4681
55842SOL     OW76493   2.420   1.664   4.697 -0.0180 -0.4657 -0.1931
55842SOL    HW176494   2.394   1.756   4.691  0.7258 -0.3084 -1.5990
55842SOL    HW276495   2.500   1.659   4.645 -0.9518 -2.2267 -1.5609
55843SOL     OW76496   3.214   2.378   0.744  0.2061 -0.7216  0.1001
55843SOL    HW176497   3.123   2.359   0.722  0.8223 -1.3405 -2.1799
55843SOL    HW276498   3.209   2.453   0.804 -1.7548  0.1250 -1.0373
55844SOL     OW76499   3.056   7.138   0.250 -0.0716  0.3046 -0.0457
55844SOL    HW176500   3.000   7.125   0.326 -1.0186 -1.6034 -0.9888
55844SOL    HW276501   3.016   7.212   0.203 -0.4822  0.3943  0.4436
55845SOL     OW76502   7.759   2.253   6.600 -0.0244  0.2537  0.3766
55845SOL    HW176503   7.665   2.233   6.604  0.1775 -1.0813 -0.6604
55845SOL    HW276504   7.799   2.188   6.658  0.3382  0.0921 -0.0496
55846SOL     OW76505   7.604  10.287   5.280  0.1259  0.0978  0.1226
55846SOL    HW176506   7.558  10.341   5.216  1.4874  2.7105  1.1891
55846SOL    HW276507   7.683  10.336   5.301  0.7750 -1.6622  2.2737
55847SOL     OW76508   4.911  11.494  10.167  0.0857  0.0936  0.1842
55847SOL    HW176509   4.892  11.581  10.130 -0.6661  0.5741  1.6203
55847SOL    HW276510   4.953  11.513  10.251 -0.0070 -0.9336  0.4707
55848SOL     OW76511   6.206  11.601   6.188  0.4343  0.1321  0.0420
55848SOL    HW176512   6.195  11.576   6.097  2.3594  1.7605 -0.7111
55848SOL    HW276513   6.208  11.517   6.236  1.3512 -0.8724 -1.6557
55849SOL     OW76514  10.860   4.294   1.967 -0.5848  0.3962  0.1371
55849SOL    HW176515  10.925   4.343   2.018  0.2399 -1.5949  1.0880
55849SOL    HW276516  10.811   4.244   2.033 -0.5713 -1.0136 -0.8901
55850SOL     OW76517   3.336   3.565   5.791 -0.1699  0.4111 -0.3669
55850SOL    HW176518   3.414   3.554   5.737 -0.3558 -1.4372 -0.3205
55850SOL    HW276519   3.264   3.569   5.728 -0.2387 -0.0870 -0.3186
55851SOL     OW76520   4.474   0.127   0.440  0.4180  0.2841  0.3914
55851SOL    HW176521   4.502   0.188   0.371  3.7577 -2.3441 -0.8439
55851SOL    HW276522   4.400   0.081   0.403  0.0948  1.1510 -0.0698
55852SOL     OW76523   9.725   0.431  10.334  0.4185 -0.0283  0.2154
55852SOL    HW176524   9.799   0.372  10.324  0.5508 -0.0463  1.1732
55852SOL    HW276525   9.763   0.518  10.341  0.3860 -0.0763  1.0869
55853SOL     OW76526   6.145   4.495   2.255 -0.3022  0.0929 -0.0876
55853SOL    HW176527   6.216   4.551   2.223 -1.4653  2.3143  1.0126
55853SOL    HW276528   6.168   4.477   2.346  0.4562 -1.9827 -0.6386
55854SOL     OW76529   0.863   9.132  11.416  0.1384 -0.0725 -0.1009
55854SOL    HW176530   0.933   9.090  11.466  0.3883  0.9312  0.4356
55854SOL    HW276531   0.886   9.225  11.417  0.3548 -0.0454 -2.4585
55855SOL     OW76532   3.670   9.292  10.193  0.3583 -0.2964  0.0277
55855SOL    HW176533   3.688   9.366  10.250  2.2300  0.5482 -1.5469
55855SOL    HW276534   3.646   9.221  10.253 -1.1877  1.4376  1.5922
55856SOL     OW76535  11.293   5.865  10.248 -0.1987  0.1722 -0.3730
55856SOL    HW176536  11.241   5.904  10.319 -0.9631  0.5568 -1.1192
55856SOL    HW276537  11.234   5.865  10.173 -0.2837 -2.5132 -0.4150
55857SOL     OW76538   6.234  10.020   9.097  0.5369  0.3079 -0.3657
55857SOL    HW176539   6.260  10.112   9.091  2.0476 -0.1367 -1.0477
55857SOL    HW276540   6.139  10.021   9.085  0.4904  1.8049 -0.0259
55858SOL     OW76541  11.915   2.170   7.023 -0.2431  0.1786 -0.0609
55858SOL    HW176542  11.942   2.220   6.946 -0.2495  0.2358 -0.0261
55858SOL    HW276543  11.894   2.083   6.989 -0.1632  0.1791 -0.1107
55859SOL     OW76544  11.570   5.268   9.975  0.0727  0.0597 -0.1747
55859SOL    HW176545  11.517   5.347   9.970 -0.1266 -0.0832 -0.3328
55859SOL    HW276546  11.628   5.283  10.049 -1.1484 -0.3859  0.8957
55860SOL     OW76547   7.481   4.761  10.045 -1.0113  0.0843 -0.5614
55860SOL    HW176548   7.545   4.704  10.087 -0.3180  0.3536 -1.2284
55860SOL    HW276549   7.529   4.843  10.030 -1.5804  0.3637 -0.8688
55861SOL     OW76550  11.725   0.177   7.940 -0.1009  0.1876  0.5545
55861SOL    HW176551  11.736   0.113   8.010  0.4227  1.2201  1.4527
55861SOL    HW276552  11.728   0.262   7.985 -1.2930  0.8414 -0.5213
55862SOL     OW76553   6.230  10.630  10.766  0.2023 -0.4604  0.5688
55862SOL    HW176554   6.244  10.567  10.695 -0.8874 -0.8386  0.6682
55862SOL    HW276555   6.191  10.706  10.723  0.2646 -0.3844  0.6471
55863SOL     OW76556  11.467   6.657   5.380  0.1655  0.1247  0.3571
55863SOL    HW176557  11.514   6.622   5.304  0.0177  2.1131 -0.7346
55863SOL    HW276558  11.509   6.741   5.398  0.1486 -0.2604  2.4835
55864SOL     OW76559   8.648  10.386  10.869 -0.0572 -0.0893  0.6588
55864SOL    HW176560   8.619  10.339  10.791  1.1914  1.1939 -0.6536
55864SOL    HW276561   8.714  10.328  10.909  3.1148  1.2480 -2.1543
55865SOL     OW76562   3.580   4.243   3.409 -0.3918  0.2088 -0.2560
55865SOL    HW176563   3.545   4.213   3.325 -0.0345 -0.6581 -0.1059
55865SOL    HW276564   3.510   4.227   3.472  0.0460 -1.0311 -0.0491
55866SOL     OW76565   5.546   4.095   2.282 -0.3032  0.1782 -0.2240
55866SOL    HW176566   5.512   4.162   2.341  1.0318  0.8022 -0.1238
55866SOL    HW276567   5.630   4.069   2.320 -0.0408 -0.3572 -1.1352
55867SOL     OW76568   8.783  10.135  12.471 -0.2712 -0.4424 -0.2118
55867SOL    HW176569   8.793  10.230  12.477  0.8460 -0.6191  1.3382
55867SOL    HW276570   8.689  10.119  12.480 -0.2969  0.4339  1.3279
55868SOL     OW76571  12.373   7.616  11.074  0.0483  0.4332  0.1834
55868SOL    HW176572  12.285   7.580  11.084  0.1791  0.2388  0.6411
55868SOL    HW276573  12.426   7.568  11.137  0.7882 -0.4598 -1.0797
55869SOL     OW76574   2.151   6.991   3.473 -0.1496 -0.3502 -0.5451
55869SOL    HW176575   2.231   7.019   3.518 -1.3003  1.3852  0.5790
55869SOL    HW276576   2.166   7.013   3.381  0.7789 -0.2932 -0.3846
55870SOL     OW76577   2.434   0.976   3.890 -0.1509  0.2399 -0.0912
55870SOL    HW176578   2.402   1.014   3.972 -1.0032 -0.1124 -0.2498
55870SOL    HW276579   2.420   1.044   3.824 -2.6769 -0.6537 -0.5835
55871SOL     OW76580   3.970   9.147  11.535  0.3490  0.0499  0.3735
55871SOL    HW176581   3.933   9.098  11.608 -0.3063  1.6716  1.1654
55871SOL    HW276582   3.900   9.150  11.470  0.9792 -1.5183 -0.4502
55872SOL     OW76583   6.309  10.257   3.608  0.2945 -0.4694 -0.0608
55872SOL    HW176584   6.234  10.316   3.599 -0.0714 -0.2735  3.1587
55872SOL    HW276585   6.358  10.267   3.526 -1.3920  1.9502 -0.8642
55873SOL     OW76586  11.065   3.350   9.048 -0.4799  0.6781 -0.1987
55873SOL    HW176587  11.009   3.381   9.119 -1.3031 -1.0126 -0.0633
55873SOL    HW276588  11.152   3.382   9.071 -0.7553  0.2988  1.5101
55874SOL     OW76589   3.753   4.080   0.353 -0.1880 -0.0925  0.3493
55874SOL    HW176590   3.695   4.043   0.420 -0.9707 -0.4788 -0.5165
55874SOL    HW276591   3.698   4.142   0.305 -0.1450 -1.0748 -1.0220
55875SOL     OW76592  11.790   8.515  12.268  0.1772 -0.0558 -0.0407
55875SOL    HW176593  11.779   8.506  12.174  3.8454  0.8285 -0.7000
55875SOL    HW276594  11.832   8.434  12.295 -0.0512  0.0578  0.6812
55876SOL     OW76595   4.119   5.867  10.421  0.0182  0.1667 -0.1465
55876SOL    HW176596   4.124   5.873  10.517 -0.8753 -0.4461 -0.0504
55876SOL    HW276597   4.117   5.773  10.403 -1.8186  0.2568 -0.6255
55877SOL     OW76598   2.441  10.977   9.776  0.1847  0.4315  0.1631
55877SOL    HW176599   2.377  10.915   9.741  1.0976  0.0732 -0.9444
55877SOL    HW276600   2.392  11.058   9.789 -0.3733  0.3584 -1.2954
55878SOL     OW76601   7.826   5.228  12.558 -0.6753 -0.2261  0.1091
55878SOL    HW176602   7.862   5.141  12.539 -0.5266 -0.1059 -0.1719
55878SOL    HW276603   7.749   5.235  12.501 -0.8354 -0.2724  0.3183
55879SOL     OW76604   9.836  11.233  10.809  0.4435 -0.0884 -0.3851
55879SOL    HW176605   9.812  11.321  10.778 -1.1196 -0.2687  0.1929
55879SOL    HW276606   9.899  11.250  10.880  2.8050  0.3763 -2.4519
55880SOL     OW76607   4.777   9.541   7.579 -0.8290  0.0893  0.9114
55880SOL    HW176608   4.688   9.556   7.547 -0.7230 -1.7558 -0.3748
55880SOL    HW276609   4.832   9.545   7.501  0.3572  1.8063  1.7624
55881SOL     OW76610   1.451  10.074  10.144 -0.3882 -0.2266 -0.0747
55881SOL    HW176611   1.368  10.044  10.105 -0.8455 -0.6156  1.1287
55881SOL    HW276612   1.473  10.005  10.206  0.6251  0.0887 -0.0802
55882SOL     OW76613   5.454  10.906   9.972 -0.1832  0.0417 -0.2232
55882SOL    HW176614   5.503  10.887  10.052 -0.3296  1.1804  0.1575
55882SOL    HW276615   5.494  10.986   9.938  0.7831 -1.1616 -2.0666
55883SOL     OW76616   5.014   3.816   5.323  0.5363 -0.3662 -0.0949
55883SOL    HW176617   5.009   3.796   5.229 -1.2493  2.6736 -0.8051
55883SOL    HW276618   5.089   3.875   5.331  0.4360 -0.2893  0.2952
55884SOL     OW76619   8.652   4.468   1.052 -0.2252  0.5646  0.4741
55884SOL    HW176620   8.604   4.529   1.108  0.0902  0.2235  1.1274
55884SOL    HW276621   8.634   4.381   1.089  3.0619  0.5819  2.5115
55885SOL     OW76622   0.084   1.257   5.893 -0.3630 -0.4593  0.2662
55885SOL    HW176623   0.150   1.246   5.825  1.1308 -0.7770  1.7025
55885SOL    HW276624   0.035   1.174   5.892  0.2025 -0.8012  0.1307
55886SOL     OW76625  10.638   1.263  11.255  0.2670  0.0887 -0.2716
55886SOL    HW176626  10.678   1.202  11.193  1.1039  0.8181 -0.4675
55886SOL    HW276627  10.700   1.335  11.261 -0.3143  0.5285  0.6048
55887SOL     OW76628   7.256   6.835   0.449 -0.0768  0.1085 -0.2294
55887SOL    HW176629   7.322   6.785   0.400 -0.8495 -0.2808 -0.8992
55887SOL    HW276630   7.293   6.843   0.537  1.1000  0.3625 -0.7323
55888SOL     OW76631  12.061   8.214   1.169 -0.4451 -0.0083  0.1620
55888SOL    HW176632  12.039   8.286   1.228  1.3095  1.4990 -0.9131
55888SOL    HW276633  12.026   8.242   1.084  0.6567 -0.1985 -0.3645
55889SOL     OW76634  10.541  11.168  12.368 -0.0695 -0.2802 -0.1972
55889SOL    HW176635  10.585  11.084  12.353  0.3209  0.1215 -1.4324
55889SOL    HW276636  10.579  11.200  12.450  1.0871 -0.5063 -0.6148
55890SOL     OW76637  11.308   3.917   4.138  0.6817 -0.4047 -0.7355
55890SOL    HW176638  11.261   3.837   4.113  0.5458 -0.4378 -0.3762
55890SOL    HW276639  11.254   3.956   4.207  0.6565  0.0857 -1.0266
55891SOL     OW76640  11.004   8.740   5.637 -0.2857 -0.0636  0.5343
55891SOL    HW176641  10.940   8.683   5.594 -0.7717  0.5115  0.5034
55891SOL    HW276642  11.027   8.804   5.570 -0.2131  0.1653  0.7816
55892SOL     OW76643   7.862  11.420   4.984 -0.7758  0.1060 -0.1811
55892SOL    HW176644   7.806  11.344   5.002  0.9160 -0.8916  1.3770
55892SOL    HW276645   7.904  11.400   4.900  2.5140 -2.7640  1.8327
55893SOL     OW76646   7.051   0.787   6.844 -0.7276  0.0512 -0.2778
55893SOL    HW176647   7.004   0.823   6.769 -1.6006  0.7818  0.5894
55893SOL    HW276648   7.070   0.864   6.899  0.2725 -0.4104  0.0535
55894SOL     OW76649  10.583   8.322   5.653 -0.4793 -0.2007  0.1438
55894SOL    HW176650  10.576   8.264   5.576 -0.2482 -0.3670  0.2474
55894SOL    HW276651  10.560   8.266   5.727  0.3351 -0.3220  0.3107
55895SOL     OW76652   2.911   1.469  12.160  0.5684 -0.2916 -0.1240
55895SOL    HW176653   2.891   1.407  12.230 -0.1867  0.1207  0.0261
55895SOL    HW276654   2.827   1.488  12.120  1.2229 -2.7505 -3.0750
55896SOL     OW76655   2.854  11.782   0.903  0.4881  0.5585 -0.5654
55896SOL    HW176656   2.828  11.695   0.875  0.3474 -0.1792  1.6328
55896SOL    HW276657   2.947  11.788   0.883  0.3431  0.1809 -1.3707
55897SOL     OW76658   5.145   8.932   8.603 -0.1859  0.5909 -0.0037
55897SOL    HW176659   5.084   9.005   8.593 -0.0073  0.9249  1.1698
55897SOL    HW276660   5.152   8.895   8.515  1.0688  3.0597 -1.0474
55898SOL     OW76661  11.210   3.853  12.078 -0.5390  0.3389  0.2926
55898SOL    HW176662  11.273   3.866  12.007 -1.6394  1.4153 -0.5192
55898SOL    HW276663  11.142   3.798  12.040 -0.5666 -0.0409  0.8808
55899SOL     OW76664   5.239   0.365   2.701  0.8423  0.0874 -0.4674
55899SOL    HW176665   5.248   0.442   2.757  0.6139 -0.0334 -0.2626
55899SOL    HW276666   5.213   0.400   2.616 -0.4117  0.1682 -0.0805
55900SOL     OW76667  12.060   8.542   8.403  0.4287 -0.5011 -0.0988
55900SOL    HW176668  12.112   8.530   8.482  0.2763 -2.2531 -0.2271
55900SOL    HW276669  12.093   8.476   8.342 -3.0318 -2.9691  0.4228
55901SOL     OW76670   1.632   8.638   5.751  0.3338 -0.2396 -0.0010
55901SOL    HW176671   1.657   8.605   5.837 -1.5275 -1.0097  0.2959
55901SOL    HW276672   1.615   8.559   5.699 -0.9655  0.2074 -0.2930
55902SOL     OW76673   8.729   9.986  11.660 -0.0901  0.6308 -0.0229
55902SOL    HW176674   8.659   9.977  11.725 -0.0106  0.3463  0.0274
55902SOL    HW276675   8.784   9.909  11.674  0.6618  1.2406  0.4443
55903SOL     OW76676   2.816   2.208   7.898  0.0510  0.0786  0.6590
55903SOL    HW176677   2.786   2.212   7.807 -1.0061  1.0570  1.0311
55903SOL    HW276678   2.823   2.114   7.916 -0.3054 -0.1370 -0.2455
55904SOL     OW76679   4.709  12.573   1.576 -0.2116  0.2659  0.4412
55904SOL    HW176680   4.794  12.608   1.600 -0.4515 -0.4672  2.5940
55904SOL    HW276681   4.662  12.565   1.659 -1.5049 -1.5841 -0.3974
55905SOL     OW76682   1.037   4.860   5.781  0.2615 -0.4519  0.3929
55905SOL    HW176683   1.001   4.901   5.859 -0.8072 -0.2433 -0.1969
55905SOL    HW276684   1.093   4.928   5.742 -0.2195 -0.1060  0.2950
55906SOL     OW76685  11.663   6.686   7.064 -0.2609  0.1329 -0.2617
55906SOL    HW176686  11.757   6.672   7.059 -0.3646 -0.2215 -1.9688
55906SOL    HW276687  11.652   6.756   7.128  1.2424  0.7894 -0.6734
55907SOL     OW76688  11.801  12.237   8.802  0.0007  0.1199  0.1914
55907SOL    HW176689  11.720  12.274   8.768  0.5093 -0.6482 -1.9976
55907SOL    HW276690  11.861  12.312   8.809  0.0643  0.2124 -1.2049
55908SOL     OW76691   9.572  12.577   2.770  0.4076 -0.5726 -0.2349
55908SOL    HW176692   9.574  12.529   2.853  0.7457 -1.3156 -0.6649
55908SOL    HW276693   9.479  12.593   2.755  0.3087 -0.8268  0.0702
55909SOL     OW76694   9.644  10.658   3.340  0.0977 -0.7348  0.0502
55909SOL    HW176695   9.730  10.659   3.381  0.6615  1.9946 -0.9800
55909SOL    HW276696   9.649  10.588   3.275  0.8715 -1.8180  1.2314
55910SOL     OW76697   6.291   7.641  10.626  0.5675 -0.3160 -0.0267
55910SOL    HW176698   6.353   7.654  10.554  0.4107  0.3139 -0.0499
55910SOL    HW276699   6.310   7.552  10.658  2.7166  0.4790  1.1469
55911SOL     OW76700   0.575  12.510   2.017 -0.0805 -0.0308  0.2084
55911SOL    HW176701   0.504  12.473   1.965 -0.9456  1.2958  0.3946
55911SOL    HW276702   0.646  12.525   1.954 -0.7965  0.7268 -0.4310
55912SOL     OW76703   5.465  10.640   3.340 -0.0198 -0.3358 -0.2203
55912SOL    HW176704   5.422  10.702   3.282 -0.5667 -1.3399 -0.9050
55912SOL    HW276705   5.509  10.579   3.281 -0.4663 -1.2876  0.4296
55913SOL     OW76706   1.309   4.322   0.468  0.2901  0.1782  0.3277
55913SOL    HW176707   1.295   4.416   0.481 -0.5353  0.2444 -0.8398
55913SOL    HW276708   1.351   4.316   0.382 -0.1988 -0.5396  0.1235
55914SOL     OW76709   2.066  11.449   2.639  0.1849  0.0424 -0.3548
55914SOL    HW176710   2.017  11.417   2.715  1.0305 -1.2196 -0.3079
55914SOL    HW276711   2.071  11.373   2.580 -1.1231  1.1875 -2.0664
55915SOL     OW76712  10.542   3.768  11.482 -0.1732  0.2949 -0.5789
55915SOL    HW176713  10.605   3.840  11.488  1.0049 -0.8015  1.7638
55915SOL    HW276714  10.594   3.693  11.454 -0.9587 -0.1130 -0.9739
55916SOL     OW76715   1.173   1.274   8.834  0.2620  0.3496 -0.0358
55916SOL    HW176716   1.220   1.268   8.751  0.1360  0.2324 -0.1004
55916SOL    HW276717   1.171   1.184   8.867 -1.5044  0.0146 -0.9197
55917SOL     OW76718  10.818  12.076   2.710 -0.1086 -0.2781  0.5094
55917SOL    HW176719  10.745  12.080   2.647 -1.0438  0.1439  1.5770
55917SOL    HW276720  10.778  12.042   2.790  1.1810 -1.3093  0.7388
55918SOL     OW76721   6.368   1.707   9.253  0.1954  0.2618  0.5612
55918SOL    HW176722   6.422   1.786   9.254  0.8476 -0.1248 -0.9274
55918SOL    HW276723   6.358   1.686   9.160 -2.9526  0.5775  0.7115
55919SOL     OW76724  11.157   1.660   3.363 -0.4141  0.0694  0.1133
55919SOL    HW176725  11.225   1.655   3.296  1.0318 -1.2110  1.5806
55919SOL    HW276726  11.176   1.741   3.411 -1.4919  1.0224 -1.0085
55920SOL     OW76727   9.209   5.375   1.714 -0.0398  0.3754 -0.2237
55920SOL    HW176728   9.270   5.401   1.646 -1.0052  1.8331 -0.5722
55920SOL    HW276729   9.158   5.453   1.732 -0.7240 -0.3605  1.2125
55921SOL     OW76730  10.124   8.320  10.559  0.3001  0.3180  0.3259
55921SOL    HW176731  10.054   8.254  10.556  0.3075  0.1791  2.2480
55921SOL    HW276732  10.109   8.367  10.641  2.9546 -0.2708  1.2449
55922SOL     OW76733  11.262  11.387   3.850 -0.2819  0.6859 -0.4074
55922SOL    HW176734  11.196  11.380   3.919  0.5860 -2.6310  0.2659
55922SOL    HW276735  11.214  11.367   3.769 -1.0187  3.2174 -0.6627
55923SOL     OW76736   7.727   9.294   4.888  0.0623 -0.1050 -0.2702
55923SOL    HW176737   7.660   9.263   4.827  0.3299  0.0115 -0.6259
55923SOL    HW276738   7.805   9.307   4.834 -0.3548  2.4065 -0.4138
55924SOL     OW76739   9.566   9.720  12.470 -0.2057 -0.5473  0.1144
55924SOL    HW176740   9.479   9.745  12.502  0.0904  0.7975 -0.0664
55924SOL    HW276741   9.582   9.779  12.396  1.3332  0.0210  0.8517
55925SOL     OW76742   9.718   3.646   5.109  0.4726  0.0943  0.2439
55925SOL    HW176743   9.785   3.646   5.040  2.2096 -0.4034  1.8633
55925SOL    HW276744   9.726   3.561   5.151  0.8210  1.0971  2.3320
55926SOL     OW76745   5.993  11.015   8.187  0.0434 -0.2774 -0.0962
55926SOL    HW176746   5.946  10.962   8.251 -0.3465  0.8180  0.5448
55926SOL    HW276747   5.925  11.057   8.135  0.3293  0.2696 -0.0349
55927SOL     OW76748  12.080   2.645   1.785  0.3744 -0.8450 -0.2722
55927SOL    HW176749  12.127   2.567   1.757 -0.2633 -0.7043 -1.8440
55927SOL    HW276750  12.024   2.668   1.710 -0.1367  0.5787  0.4985
55928SOL     OW76751   2.262   8.729   7.704 -0.3638 -0.5312 -0.0243
55928SOL    HW176752   2.325   8.754   7.636  0.8004 -2.0235  0.4662
55928SOL    HW276753   2.184   8.781   7.684  0.7480  0.8143 -1.0944
55929SOL     OW76754   7.369   9.161  10.169  0.3540  0.4445 -0.1680
55929SOL    HW176755   7.450   9.199  10.135 -0.1339  0.9861 -0.7748
55929SOL    HW276756   7.331   9.230  10.223 -0.1756  0.5582 -0.6756
55930SOL     OW76757   6.447   1.717   2.838  0.3147 -0.2092 -0.5426
55930SOL    HW176758   6.501   1.782   2.795 -0.1259  0.5146 -0.0184
55930SOL    HW276759   6.499   1.690   2.914  0.9413 -1.2359 -1.3023
55931SOL     OW76760   9.038   6.266   3.691  0.1639  0.0609 -0.5448
55931SOL    HW176761   8.955   6.291   3.649  0.8843  0.4531 -1.7690
55931SOL    HW276762   9.011   6.216   3.768 -1.2287  0.7692 -0.5330
55932SOL     OW76763   2.879   5.059   5.448 -0.9563 -0.3299 -0.4653
55932SOL    HW176764   2.896   4.975   5.406 -2.8355 -1.1125  0.1932
55932SOL    HW276765   2.783   5.065   5.450 -0.8721  1.9874 -0.7751
55933SOL     OW76766   6.317   2.125   7.015  0.1172  0.1337  0.1137
55933SOL    HW176767   6.345   2.183   6.944 -3.9100  0.0973 -1.8302
55933SOL    HW276768   6.287   2.184   7.084  0.5088  0.2651  0.1696
55934SOL     OW76769   2.307   4.195   0.121 -0.4110  0.1083 -0.0540
55934SOL    HW176770   2.346   4.257   0.060  0.9548 -1.4782 -0.8429
55934SOL    HW276771   2.213   4.198   0.101 -0.0153 -0.2560 -2.1169
55935SOL     OW76772  10.238   5.370  12.395  0.1749  0.3752 -0.3858
55935SOL    HW176773  10.257   5.433  12.464  0.8883 -0.1274 -0.0997
55935SOL    HW276774  10.304   5.388  12.327  0.2635  0.0699 -0.3827
55936SOL     OW76775   4.459  10.031  12.057 -0.5000 -0.4733 -0.0242
55936SOL    HW176776   4.470  10.119  12.091 -1.1830 -0.1512 -0.6242
55936SOL    HW276777   4.441   9.978  12.135  1.9227 -0.4786  0.6110
55937SOL     OW76778  10.752   8.916  12.144  0.3435 -0.0511 -0.8747
55937SOL    HW176779  10.719   8.871  12.066 -1.9130  0.9931 -0.6167
55937SOL    HW276780  10.731   9.008  12.128  1.3663  0.3983  0.2560
55938SOL     OW76781   9.320   4.377   1.997 -0.0400  0.0786  0.3663
55938SOL    HW176782   9.330   4.469   1.973 -0.1141  0.2701  1.0569
55938SOL    HW276783   9.264   4.377   2.074  1.1884 -0.4095  1.3127
55939SOL     OW76784   2.658  12.215   7.950  0.0136 -0.3676 -0.7549
55939SOL    HW176785   2.679  12.156   7.878  0.2393 -0.3215 -0.7260
55939SOL    HW276786   2.585  12.172   7.995  0.0846 -0.5544 -0.8166
55940SOL     OW76787  12.160   6.753   2.927 -0.3517  0.2121  0.1771
55940SOL    HW176788  12.134   6.669   2.966 -1.1447  0.0660 -0.6543
55940SOL    HW276789  12.237   6.732   2.875 -1.1953 -0.2289 -0.9181
55941SOL     OW76790  12.318  10.190   6.437 -0.0819  0.2815 -0.0267
55941SOL    HW176791  12.283  10.275   6.407  0.8662 -0.1767 -2.7572
55941SOL    HW276792  12.413  10.200   6.432  0.0396 -1.0673 -0.8875
55942SOL     OW76793   7.878   8.841   5.400 -0.5099  0.0420 -0.8475
55942SOL    HW176794   7.870   8.936   5.390 -0.5067  0.3537  1.4105
55942SOL    HW276795   7.966   8.828   5.436 -0.2376 -0.9008 -1.8190
55943SOL     OW76796   5.635  11.779   9.639  0.3041  0.2423  0.1824
55943SOL    HW176797   5.730  11.785   9.649  0.1832  2.0486  0.5640
55943SOL    HW276798   5.611  11.856   9.588 -0.7035 -1.5895 -2.3586
55944SOL     OW76799   0.475   3.387   9.121  0.3792 -0.7173 -0.2320
55944SOL    HW176800   0.566   3.356   9.118  0.2383 -1.1561 -0.1048
55944SOL    HW276801   0.462   3.417   9.211  0.4625 -0.4468 -0.3092
55945SOL     OW76802  10.623   8.641  10.924 -0.5983  0.5441 -0.3178
55945SOL    HW176803  10.610   8.722  10.973 -1.9703  0.4229 -0.4342
55945SOL    HW276804  10.627   8.669  10.832  0.3585  0.6049 -0.2721
55946SOL     OW76805   1.130   7.889   4.603 -0.2702  0.0840  0.2687
55946SOL    HW176806   1.063   7.821   4.596 -0.5500  0.3235  0.6127
55946SOL    HW276807   1.177   7.885   4.520 -1.0316  0.2626 -0.1733
55947SOL     OW76808   2.760   0.453   7.001 -0.1335  0.1081  0.0221
55947SOL    HW176809   2.700   0.382   6.976  0.1670  0.1268 -0.7744
55947SOL    HW276810   2.712   0.533   6.979  0.1732  0.1232 -0.6023
55948SOL     OW76811   9.954  11.980   1.301  0.4820  0.5467  0.1124
55948SOL    HW176812  10.031  11.923   1.292 -0.9126 -1.5847  0.8748
55948SOL    HW276813   9.895  11.951   1.232  0.3547  2.2517 -0.5468
55949SOL     OW76814   8.995  12.084   4.661  0.0112 -0.2506  0.1091
55949SOL    HW176815   8.906  12.083   4.696  0.5538 -1.7342  1.5832
55949SOL    HW276816   8.984  12.093   4.567 -1.6746 -0.0715  0.2987
55950SOL     OW76817   3.134   8.836   3.512 -0.4998 -0.0738  0.1835
55950SOL    HW176818   3.108   8.849   3.421 -0.7428 -0.6851  0.1594
55950SOL    HW276819   3.168   8.921   3.540 -4.0158  1.3019  0.7411
55951SOL     OW76820   5.510  11.949   3.972 -0.6165  0.0793  0.2514
55951SOL    HW176821   5.565  12.027   3.964 -0.6358  0.3166  2.0479
55951SOL    HW276822   5.429  11.972   3.926 -1.0746  1.5942  1.7369
55952SOL     OW76823   9.699   5.984   9.891  0.5511  0.5003  0.0668
55952SOL    HW176824   9.684   6.057   9.951 -1.4283  0.0304  0.1890
55952SOL    HW276825   9.704   6.025   9.804  0.9814  0.9213  0.2859
55953SOL     OW76826   3.803   0.332  12.181  0.1371  0.2461 -0.3320
55953SOL    HW176827   3.709   0.330  12.168 -0.1360  1.4128  1.2005
55953SOL    HW276828   3.829   0.240  12.186 -1.0212 -0.0837 -0.1548
55954SOL     OW76829   6.514   3.300  11.691 -0.2141 -0.0873 -0.2812
55954SOL    HW176830   6.496   3.235  11.758 -2.6171 -0.8250 -1.5128
55954SOL    HW276831   6.593   3.268  11.647  0.1671 -0.7128  0.8280
55955SOL     OW76832   6.286   7.900   9.409  0.3381  0.2371  0.2217
55955SOL    HW176833   6.355   7.927   9.470  0.7333  0.7334 -0.4320
55955SOL    HW276834   6.238   7.981   9.390  0.1059  0.0518  0.0106
55956SOL     OW76835  12.160  12.101   2.946 -0.0664 -0.1120  0.3363
55956SOL    HW176836  12.090  12.165   2.941  0.0604 -0.0293 -0.5795
55956SOL    HW276837  12.118  12.021   2.978 -0.7638 -0.2880 -0.9253
55957SOL     OW76838   7.173   0.087   0.380 -0.3790  0.4209  0.5068
55957SOL    HW176839   7.221   0.169   0.371  0.3417  0.0722  1.0050
55957SOL    HW276840   7.082   0.109   0.364 -0.2534  1.4029  1.1083
55958SOL     OW76841   6.902   8.763   7.567  0.0142  0.4121 -0.5359
55958SOL    HW176842   6.899   8.832   7.501  0.8892  0.8167 -0.1661
55958SOL    HW276843   6.988   8.724   7.557  0.3053  0.7232  0.6063
55959SOL     OW76844   9.146   5.093  10.022 -0.0938 -0.4029  0.0846
55959SOL    HW176845   9.070   5.092  10.079  0.9277 -1.2610  1.4991
55959SOL    HW276846   9.148   5.182   9.986 -1.6789 -0.3387  0.0876
55960SOL     OW76847   9.706   7.491   4.352 -0.2781 -0.1999 -0.1279
55960SOL    HW176848   9.627   7.543   4.338 -0.1128 -0.4105 -2.1180
55960SOL    HW276849   9.748   7.531   4.428 -0.7776  1.8350 -0.8636
55961SOL     OW76850   4.394  11.072   0.217 -0.2071  0.1368 -0.3399
55961SOL    HW176851   4.369  11.161   0.244  0.0160  0.4656 -1.1902
55961SOL    HW276852   4.312  11.030   0.193 -0.3685 -0.0469  0.4991
55962SOL     OW76853   0.644  12.157   4.506  0.1586  0.4142  0.2945
55962SOL    HW176854   0.628  12.218   4.578  1.9627 -0.6001  1.6418
55962SOL    HW276855   0.734  12.173   4.479  1.1399 -2.3752  1.5149
55963SOL     OW76856   8.883   7.954   2.529 -0.1256 -0.2605 -0.1502
55963SOL    HW176857   8.831   8.008   2.469 -0.3613 -0.0499  0.2441
55963SOL    HW276858   8.966   8.001   2.537 -1.0815  1.1933  1.8615
55964SOL     OW76859   8.703   7.637   1.937  0.2785  0.5593 -0.0042
55964SOL    HW176860   8.730   7.623   1.846 -0.9508  1.0962 -0.4677
55964SOL    HW276861   8.668   7.552   1.965 -0.2524  0.6625 -0.3541
55965SOL     OW76862   0.015   6.926   6.734 -0.4174  0.0500 -0.0688
55965SOL    HW176863  -0.066   6.878   6.749 -1.0569  0.9575 -0.5612
55965SOL    HW276864  -0.012   7.009   6.696  0.8625 -0.6285 -2.7295
55966SOL     OW76865   4.781   9.256   6.138  0.0296 -0.6619  0.3057
55966SOL    HW176866   4.711   9.309   6.101  1.5719  1.2706 -0.0593
55966SOL    HW276867   4.756   9.243   6.230  0.0194  1.6044  0.6794
55967SOL     OW76868   1.534   3.542  11.488  0.3668 -0.4481  0.0192
55967SOL    HW176869   1.472   3.488  11.439 -0.9417  0.9933  0.0207
55967SOL    HW276870   1.618   3.496  11.480  0.0387 -0.6771 -2.8766
55968SOL     OW76871   2.557   1.694   7.091 -0.9867 -0.2357 -0.1925
55968SOL    HW176872   2.595   1.745   7.163 -0.6457  1.5659 -1.5879
55968SOL    HW276873   2.466   1.681   7.117 -1.1678  1.3599  0.1089
55969SOL     OW76874   4.142  10.849   5.290 -0.5076 -0.5686  0.0828
55969SOL    HW176875   4.155  10.943   5.275 -0.3653 -0.6931 -0.6078
55969SOL    HW276876   4.219  10.822   5.340  0.3322 -0.6473 -1.1932
55970SOL     OW76877   0.370  11.822   6.689  0.0948 -0.1027  0.2881
55970SOL    HW176878   0.429  11.897   6.680  0.2721  0.2036  3.0947
55970SOL    HW276879   0.423  11.746   6.664  1.5986  0.2247  2.2078
55971SOL     OW76880   5.741   7.803   9.888 -0.0775 -0.0933 -0.3379
55971SOL    HW176881   5.751   7.719   9.933  1.5381 -1.1898 -2.5267
55971SOL    HW276882   5.779   7.867   9.949 -2.0999 -0.7295  1.7299
55972SOL     OW76883   6.762  10.924   2.646  0.3314  0.6096 -0.8326
55972SOL    HW176884   6.781  11.017   2.655 -1.9050  1.0281  0.2432
55972SOL    HW276885   6.739  10.895   2.735  0.8503 -0.9452 -1.1646
55973SOL     OW76886   2.183   3.469   8.010 -0.5851  0.1084  0.4936
55973SOL    HW176887   2.171   3.453   7.917  0.1796 -0.7861  0.5283
55973SOL    HW276888   2.263   3.420   8.033 -0.8902  0.1147  1.6604
55974SOL     OW76889   9.668  11.937   8.114 -0.4837  0.4959  0.3723
55974SOL    HW176890   9.645  11.874   8.046  1.2654  0.5746 -0.3432
55974SOL    HW276891   9.635  12.021   8.080 -0.7087  0.3356  0.1947
55975SOL     OW76892  11.698   2.884   3.515  0.2069 -0.3312 -0.5482
55975SOL    HW176893  11.652   2.968   3.523  1.7769  0.4361  1.2156
55975SOL    HW276894  11.778   2.896   3.565 -0.0451 -3.2885  0.7791
55976SOL     OW76895   2.500  11.400  10.572  0.3576 -0.1439  0.0070
55976SOL    HW176896   2.508  11.312  10.609  2.3470  0.4982  1.2321
55976SOL    HW276897   2.481  11.385  10.479  0.2574 -1.8578  0.2715
55977SOL     OW76898   0.791  12.117   1.366 -0.2495  0.1867  0.2110
55977SOL    HW176899   0.883  12.134   1.381 -0.2014  0.2238 -0.1195
55977SOL    HW276900   0.790  12.046   1.302 -0.4481 -0.1439  0.5788
55978SOL     OW76901   0.055   6.834   5.130  0.1731  0.0056  0.6501
55978SOL    HW176902   0.077   6.927   5.123  0.8775 -0.1081  1.3043
55978SOL    HW276903  -0.040   6.831   5.115  0.6412  0.3200 -4.0167
55979SOL     OW76904  10.955   9.854   8.217  0.0814  0.5985  0.2523
55979SOL    HW176905  10.942   9.872   8.310  0.6317  0.8184  0.2906
55979SOL    HW276906  11.050   9.855   8.205  0.0194  0.4751 -0.2938
55980SOL     OW76907   6.322   4.648  12.474 -0.2615 -0.2676  0.3681
55980SOL    HW176908   6.394   4.586  12.479 -1.1023 -1.4360 -1.1046
55980SOL    HW276909   6.330   4.701  12.554  1.5059 -1.1177  0.8003
55981SOL     OW76910   5.281   5.123   0.401  0.1002 -0.3101 -0.0883
55981SOL    HW176911   5.334   5.098   0.325  0.3510 -1.6506  0.4892
55981SOL    HW276912   5.322   5.077   0.474  0.4778  1.7534  1.0583
55982SOL     OW76913   4.643   2.192   2.412 -0.4107 -0.0447 -0.0705
55982SOL    HW176914   4.653   2.177   2.506  0.1164  0.1298 -0.0965
55982SOL    HW276915   4.612   2.109   2.378 -1.6470  0.1909  0.4074
55983SOL     OW76916   1.087  12.574   0.339  0.3498 -0.4949  0.4884
55983SOL    HW176917   1.122  12.485   0.333 -0.4024 -0.8620  1.2753
55983SOL    HW276918   1.125  12.610   0.419  1.2280  0.1759 -0.2039
55984SOL     OW76919   5.223   7.398   4.289  0.6581  0.3790 -0.5069
55984SOL    HW176920   5.240   7.446   4.370 -2.3343  0.3542  0.2370
55984SOL    HW276921   5.240   7.306   4.311  0.2714  0.4198 -0.0325
55985SOL     OW76922   9.346   9.941   9.363 -0.1875 -0.4586  0.1633
55985SOL    HW176923   9.258   9.929   9.399 -0.4003 -0.8876 -0.4827
55985SOL    HW276924   9.391   9.859   9.383 -0.2560 -0.6350 -0.3901
55986SOL     OW76925  10.606   3.230   2.950 -0.5091 -0.4122  0.1781
55986SOL    HW176926  10.682   3.199   2.901 -0.4502  1.5280 -1.0953
55986SOL    HW276927  10.568   3.298   2.894 -1.6617  0.4710  1.9375
55987SOL     OW76928  10.587   0.835   0.698  0.4633  0.6788  0.2852
55987SOL    HW176929  10.525   0.891   0.650 -0.5445  0.2706  1.0559
55987SOL    HW276930  10.532   0.767   0.737  1.7449 -1.3464 -1.2378
55988SOL     OW76931   3.431   1.886   8.579 -0.0113  0.6804  0.2074
55988SOL    HW176932   3.441   1.808   8.526  0.4150 -0.2848  1.6563
55988SOL    HW276933   3.509   1.887   8.635  0.7668  2.9627 -0.7811
55989SOL     OW76934  12.064   7.747  11.200  0.6740 -0.4091 -0.3335
55989SOL    HW176935  12.087   7.801  11.125 -1.0596  0.0777 -0.5575
55989SOL    HW276936  11.972   7.725  11.187  1.0316 -2.5758  0.2881
55990SOL     OW76937   0.333   4.361   1.202 -0.4079 -0.0909 -0.4817
55990SOL    HW176938   0.416   4.321   1.176  0.4783  2.1858 -1.4238
55990SOL    HW276939   0.286   4.376   1.120 -0.3591  1.4384 -0.2574
55991SOL     OW76940   1.576   9.717   1.606  0.0241  0.3359 -0.0458
55991SOL    HW176941   1.530   9.773   1.543 -0.0267 -1.1511 -1.3888
55991SOL    HW276942   1.511   9.652   1.632  0.1832  0.6621  1.2233
55992SOL     OW76943   3.738   6.354   6.204 -1.0399  0.0981 -0.1211
55992SOL    HW176944   3.796   6.388   6.272 -0.6451 -2.6380  1.0660
55992SOL    HW276945   3.782   6.373   6.122  2.4815 -3.0346  0.7613
55993SOL     OW76946   0.843   2.814   6.636 -0.3559 -0.1478  0.2411
55993SOL    HW176947   0.894   2.811   6.556 -0.5112  1.1721  0.0634
55993SOL    HW276948   0.882   2.747   6.693  1.7900  1.0190  0.2441
55994SOL     OW76949   2.142  11.011  11.285  0.2451 -0.5592  0.2090
55994SOL    HW176950   2.081  11.048  11.349 -0.2503  0.9100 -1.0676
55994SOL    HW276951   2.223  11.059  11.299 -0.2996  0.8474 -1.2218
55995SOL     OW76952   7.138   3.799   4.843 -0.0734  0.0135  0.0392
55995SOL    HW176953   7.082   3.775   4.917 -1.3279 -0.0721 -0.9116
55995SOL    HW276954   7.183   3.717   4.820  0.6367  0.1346  0.9482
55996SOL     OW76955   6.860   0.394   6.887 -0.6124 -0.2139 -0.2401
55996SOL    HW176956   6.771   0.426   6.899 -0.2037  0.5037  1.0070
55996SOL    HW276957   6.894   0.381   6.975  0.4761 -0.6284 -0.6945
55997SOL     OW76958   3.457  11.993   5.439 -0.2023  0.2756 -0.7238
55997SOL    HW176959   3.509  11.981   5.518  0.2466 -0.9624 -1.1661
55997SOL    HW276960   3.495  11.931   5.376 -2.1641 -0.6382 -1.0857
55998SOL     OW76961  10.111  12.062   9.257 -0.2081 -0.3192 -0.2646
55998SOL    HW176962  10.090  12.126   9.325  1.2771 -1.1253  1.0117
55998SOL    HW276963  10.048  11.991   9.271  0.1082 -0.4939  0.3032
55999SOL     OW76964   0.724   4.301   3.306 -0.1004 -0.1126  0.0424
55999SOL    HW176965   0.651   4.293   3.368 -2.0700 -0.1912 -2.1568
55999SOL    HW276966   0.723   4.392   3.279  0.2623 -0.2337 -0.3976
56000SOL     OW76967  11.049   0.477  11.270  0.6118 -0.1026 -0.3915
56000SOL    HW176968  11.127   0.531  11.260  1.4567 -1.4158 -1.1675
56000SOL    HW276969  11.082   0.388  11.281 -0.6767 -0.3665  2.2780
56001SOL     OW76970   5.069   6.379   2.713  0.1237  0.2639  0.4849
56001SOL    HW176971   5.123   6.458   2.700  1.2683  0.0244  3.2079
56001SOL    HW276972   5.007   6.403   2.781 -0.2364 -0.8677  0.5732
56002SOL     OW76973   3.644   1.830   4.539  0.5713  0.3926 -0.1399
56002SOL    HW176974   3.693   1.905   4.506  0.5972  0.1003 -0.7623
56002SOL    HW276975   3.645   1.766   4.468 -1.9560  0.9326 -0.7588
56003SOL     OW76976   4.778   0.138   4.445  0.2408  0.2459  0.8428
56003SOL    HW176977   4.687   0.156   4.471 -0.0802  1.8579 -1.1266
56003SOL    HW276978   4.818   0.225   4.440  2.3015 -0.4919  2.8140
56004SOL     OW76979  10.015   1.557   6.215  0.3768 -0.0046  0.1175
56004SOL    HW176980   9.930   1.551   6.257  0.2050  2.0108  0.1570
56004SOL    HW276981  10.028   1.651   6.199  2.7448 -0.1877  0.4697
56005SOL     OW76982  10.264   0.911   9.161 -0.2604 -0.7179  0.4788
56005SOL    HW176983  10.225   0.833   9.123  0.2159  0.3257 -2.3897
56005SOL    HW276984  10.191   0.973   9.169  0.0198 -0.1134 -1.1761
56006SOL     OW76985   8.915   8.156   4.433  0.3146  0.0448  0.2481
56006SOL    HW176986   8.967   8.112   4.500  2.8323  0.8090 -1.0998
56006SOL    HW276987   8.915   8.095   4.359  1.5461  1.1032 -0.6664
56007SOL     OW76988   1.811  10.681   2.552  0.1285 -0.3108  0.2978
56007SOL    HW176989   1.845  10.617   2.490 -0.7362 -0.4802 -0.0084
56007SOL    HW276990   1.802  10.762   2.501  0.1003 -0.2589  0.3845
56008SOL     OW76991   6.189  11.934   9.387  0.1194  0.1533  0.9075
56008SOL    HW176992   6.172  11.998   9.318 -1.0270  0.3658  1.3673
56008SOL    HW276993   6.141  11.855   9.360 -0.7040  0.3809  1.6561
56009SOL     OW76994   4.360   4.851  11.543 -0.2327 -0.0948  0.2049
56009SOL    HW176995   4.446   4.827  11.508 -0.7927  0.1449 -1.4387
56009SOL    HW276996   4.300   4.786  11.508 -0.8432  0.2015  0.6741
56010SOL     OW76997   2.609   6.155   5.113  0.0596 -0.2119  0.1147
56010SOL    HW176998   2.536   6.203   5.073 -0.1301 -0.9115 -0.4081
56010SOL    HW276999   2.579   6.064   5.113  0.4751 -0.3560  0.9448
56011SOL     OW77000  11.714   7.221   4.121 -0.2730  0.1762 -0.2754
56011SOL    HW177001  11.704   7.274   4.199  1.8850  0.3565 -0.0780
56011SOL    HW277002  11.781   7.266   4.069 -1.8495  0.2360 -2.4100
56012SOL     OW77003  10.205   4.831   2.405 -0.0194  0.0647 -0.8771
56012SOL    HW177004  10.151   4.844   2.484  1.2414  0.0054  0.0259
56012SOL    HW277005  10.252   4.750   2.421  0.4798  0.2113 -1.5619
56013SOL     OW77006   2.450   5.694  10.503 -0.2231 -0.0438  0.2859
56013SOL    HW177007   2.464   5.789  10.496 -1.2415  0.1516  0.7141
56013SOL    HW277008   2.374   5.686  10.561  1.1028 -1.1911  1.9383
56014SOL     OW77009   9.582   7.510   5.098  0.0945  0.1627  0.3474
56014SOL    HW177010   9.662   7.481   5.054  0.2658  0.6212  0.3577
56014SOL    HW277011   9.532   7.555   5.029  0.6741  1.4957  0.7748
56015SOL     OW77012   9.495   4.889  12.246  0.4165 -0.2408  0.1600
56015SOL    HW177013   9.569   4.918  12.300  0.7562  0.7751 -0.8082
56015SOL    HW277014   9.445   4.969  12.228 -0.5424 -0.8076  0.2333
56016SOL     OW77015   6.746   4.553   5.977 -0.2712 -0.3150  0.0072
56016SOL    HW177016   6.707   4.468   5.996  0.0211 -0.2769  0.8223
56016SOL    HW277017   6.732   4.566   5.883  0.3211 -1.5938 -0.2811
56017SOL     OW77018  11.811   1.489   1.629  0.3822  0.4610 -0.1819
56017SOL    HW177019  11.726   1.453   1.655  0.0316 -0.8266 -2.7781
56017SOL    HW277020  11.790   1.567   1.578  0.8289  0.8637  0.2458
56018SOL     OW77021   4.827   0.523   1.671 -0.1527 -0.2848 -0.1342
56018SOL    HW177022   4.848   0.479   1.589 -1.1686 -1.0504 -0.0016
56018SOL    HW277023   4.746   0.572   1.652 -0.1181 -0.0634  0.2716
56019SOL     OW77024   1.385  10.701   8.507  0.1400  0.2457 -0.1531
56019SOL    HW177025   1.310  10.760   8.507 -0.0324  0.0301  0.1060
56019SOL    HW277026   1.461  10.758   8.496 -0.1545  0.3388 -1.9539
56020SOL     OW77027  11.172   9.509   8.916  0.2126 -0.6521 -0.2472
56020SOL    HW177028  11.087   9.516   8.959  0.6384 -2.3354  0.9591
56020SOL    HW277029  11.166   9.427   8.865  1.8267 -2.0466  1.6737
56021SOL     OW77030   8.514  12.492   4.871 -0.0801  0.4939  0.5467
56021SOL    HW177031   8.492  12.568   4.925  0.6219  2.1364 -1.3738
56021SOL    HW277032   8.435  12.476   4.819  0.2862  0.9371 -0.1676
56022SOL     OW77033  10.758   1.118   8.902  0.7928 -0.1733  0.1954
56022SOL    HW177034  10.762   1.200   8.952 -0.2722  0.1420 -0.2051
56022SOL    HW277035  10.849   1.095   8.886  1.1149  1.5705 -0.6927
56023SOL     OW77036   8.812   8.989   4.029 -0.2878  0.3471  0.0376
56023SOL    HW177037   8.882   8.931   4.059 -0.3582  1.0508  1.6679
56023SOL    HW277038   8.763   9.011   4.108 -2.2061  0.1142 -1.0004
56024SOL     OW77039   9.310   4.692  12.374 -0.0423 -0.1552 -0.2548
56024SOL    HW177040   9.356   4.766  12.334 -3.1286  2.1458  0.1312
56024SOL    HW277041   9.243   4.667  12.311  0.0004 -1.6864  0.2607
56025SOL     OW77042  11.977   8.127   3.624  0.4709 -0.0506  0.3453
56025SOL    HW177043  12.011   8.045   3.587 -0.6162 -0.6173  0.5812
56025SOL    HW277044  12.024   8.195   3.576  1.4640 -0.7973  0.2033
56026SOL     OW77045   5.849   9.079   4.384  0.0176 -0.8409  0.5156
56026SOL    HW177046   5.821   9.033   4.462 -0.5114 -1.1446  0.1554
56026SOL    HW277047   5.939   9.105   4.402 -0.3147 -0.3087  1.4941
56027SOL     OW77048   1.577   2.793   7.738 -0.0715 -0.0274 -0.2190
56027SOL    HW177049   1.636   2.786   7.662  0.4005  1.3965 -0.0140
56027SOL    HW277050   1.592   2.712   7.787  1.8749  0.3663 -0.0830
56028SOL     OW77051   2.318   7.734  10.036  0.1047  0.8779 -0.6012
56028SOL    HW177052   2.390   7.671  10.031 -0.7092 -0.0179 -1.6112
56028SOL    HW277053   2.245   7.691   9.992 -1.7885  0.8174  2.2938
56029SOL     OW77054   7.063   5.435   0.362  0.0091  0.0472 -0.1241
56029SOL    HW177055   7.125   5.507   0.353  1.8466 -1.2408  1.3083
56029SOL    HW277056   7.071   5.387   0.279  0.1002  0.4995 -0.3808
56030SOL     OW77057  11.639   9.385   5.184 -0.6260 -0.2788 -0.8341
56030SOL    HW177058  11.707   9.385   5.116 -1.3620 -3.8409 -1.7822
56030SOL    HW277059  11.661   9.311   5.240 -2.0004  0.4425  0.7494
56031SOL     OW77060  12.050   3.265   9.138  0.1195 -0.0523  0.0278
56031SOL    HW177061  12.073   3.256   9.231  1.0983  1.5224 -0.0297
56031SOL    HW277062  12.044   3.360   9.124 -1.0966 -0.2862 -1.2794
56032SOL     OW77063   1.609   8.553   1.386  0.4737 -0.2387 -0.6499
56032SOL    HW177064   1.532   8.602   1.357  1.3314  0.9012 -1.0478
56032SOL    HW277065   1.608   8.474   1.331 -1.5635 -1.3370  0.7897
56033SOL     OW77066   1.686   6.216  12.092  0.0516 -0.4336 -0.4617
56033SOL    HW177067   1.606   6.229  12.041  0.2170 -1.9190 -1.1443
56033SOL    HW277068   1.658   6.164  12.168  0.0735  0.5097  0.2046
56034SOL     OW77069   3.990   0.157   2.491 -0.0736 -0.2464  0.2980
56034SOL    HW177070   4.018   0.167   2.583 -1.6633 -1.3983  0.9499
56034SOL    HW277071   4.040   0.082   2.460  0.4781  0.1527  0.2063
56035SOL     OW77072   6.772   0.444   4.291 -0.1345 -0.5121 -0.9016
56035SOL    HW177073   6.836   0.378   4.266  0.6392 -0.3642  0.5465
56035SOL    HW277074   6.764   0.500   4.214  1.9341 -0.1964 -0.9615
56036SOL     OW77075  10.866  11.034  10.409  0.1883  0.3268  0.2814
56036SOL    HW177076  10.952  11.064  10.380 -0.3505  2.1212  0.4561
56036SOL    HW277077  10.807  11.107  10.390 -1.1089 -0.4563  1.1444
56037SOL     OW77078   6.892   6.414   0.718  1.0900  0.3385  0.4427
56037SOL    HW177079   6.925   6.331   0.754  3.0069 -0.2534 -2.3819
56037SOL    HW277080   6.970   6.467   0.703  0.5109  0.4761 -2.7679
56038SOL     OW77081   4.792   4.815  10.078  0.4035 -0.2671 -0.0012
56038SOL    HW177082   4.783   4.738  10.135 -1.5916  0.8923  1.4040
56038SOL    HW277083   4.820   4.885  10.137  1.4734  0.2796 -1.1118
56039SOL     OW77084   5.912   8.355   8.377  0.0962  0.2166  0.1556
56039SOL    HW177085   5.974   8.374   8.448 -0.3178 -0.7443  0.7943
56039SOL    HW277086   5.866   8.438   8.364  1.2859  0.8523 -0.1201
56040SOL     OW77087   0.439   9.117   9.893 -0.5527  0.0773 -0.1704
56040SOL    HW177088   0.409   9.202   9.859  0.8767  1.0853  0.9381
56040SOL    HW277089   0.499   9.140   9.964  0.4906 -1.8623 -0.3578
56041SOL     OW77090   8.738  12.459  12.193 -0.1530  0.1592  0.5578
56041SOL    HW177091   8.759  12.377  12.236 -1.4001 -0.1634  0.5844
56041SOL    HW277092   8.659  12.440  12.141  0.4637  0.9102 -0.7170
56042SOL     OW77093   8.940   6.171   6.064  0.0953  0.2172 -0.0295
56042SOL    HW177094   9.024   6.150   6.104 -0.6062 -0.9827  0.8576
56042SOL    HW277095   8.942   6.127   5.979  0.6203  0.7552 -0.3030
56043SOL     OW77096   5.643  11.659  10.386  0.1371 -0.2832 -0.2546
56043SOL    HW177097   5.738  11.670  10.391  0.2139 -1.1569  0.3166
56043SOL    HW277098   5.616  11.638  10.475 -0.4837 -0.9059 -0.5832
56044SOL     OW77099   2.495   3.387   4.237  0.0032 -0.0465  0.2711
56044SOL    HW177100   2.578   3.356   4.202 -0.7341 -0.0686 -1.5779
56044SOL    HW277101   2.518   3.433   4.317  1.7818 -0.1594 -0.1442
56045SOL     OW77102   2.054   3.823  11.898  0.3750 -0.0425 -0.4135
56045SOL    HW177103   2.110   3.780  11.963  2.0052  0.8983 -1.1263
56045SOL    HW277104   2.013   3.895  11.946 -1.0613 -1.3096  0.3585
56046SOL     OW77105   4.226   8.588   4.667 -0.1430 -0.4821 -0.0556
56046SOL    HW177106   4.219   8.648   4.592 -1.0072 -0.5797 -0.0584
56046SOL    HW277107   4.174   8.512   4.642 -3.2140  0.7733  1.8702
56047SOL     OW77108   8.759   4.587   0.267 -0.1583  0.1695 -0.0517
56047SOL    HW177109   8.773   4.666   0.320  0.3335 -0.0694  0.1783
56047SOL    HW277110   8.673   4.554   0.295 -0.3292  0.5714 -0.0887
56048SOL     OW77111   2.991  10.656   3.514  0.0845 -0.2562  0.0513
56048SOL    HW177112   2.914  10.613   3.478  1.2667 -1.9136 -0.6469
56048SOL    HW277113   2.961  10.743   3.540 -2.2526 -1.2405  0.8485
56049SOL     OW77114   7.219   1.385  12.215 -0.0011  0.4201 -0.4822
56049SOL    HW177115   7.135   1.430  12.205 -0.4994 -0.3867  0.0288
56049SOL    HW277116   7.237   1.389  12.309 -0.5696 -1.3617 -0.2763
56050SOL     OW77117   8.458  11.032   2.218  0.2507  0.5781 -0.5125
56050SOL    HW177118   8.408  11.114   2.214  0.5815  0.8337  0.2668
56050SOL    HW277119   8.480  11.022   2.311  1.0166  0.0945 -0.7359
56051SOL     OW77120  10.037   0.302   7.898  0.3376  0.2523 -0.5340
56051SOL    HW177121  10.053   0.291   7.992  0.1342  1.9930 -0.2691
56051SOL    HW277122   9.949   0.265   7.885  0.8606 -1.1305 -0.2951
56052SOL     OW77123   5.257   9.124  11.316 -0.1627  0.0108 -0.1953
56052SOL    HW177124   5.277   9.185  11.388  1.6838  1.3142 -1.7208
56052SOL    HW277125   5.204   9.175  11.255 -0.0461 -0.4516 -0.6909
56053SOL     OW77126   9.731   5.255   4.660 -0.3135  1.0324  0.1166
56053SOL    HW177127   9.708   5.301   4.741  0.2131 -0.0611  0.9075
56053SOL    HW277128   9.811   5.207   4.682 -0.1567  0.7362 -1.0674
56054SOL     OW77129   9.421   1.415  11.107 -0.1757 -0.4133 -0.4990
56054SOL    HW177130   9.379   1.446  11.027  1.8794  1.0378 -1.0841
56054SOL    HW277131   9.443   1.494  11.156 -0.0378 -1.2155  0.7945
56055SOL     OW77132   4.736   2.648  10.970  0.5035  0.3403 -0.2686
56055SOL    HW177133   4.765   2.699  10.894 -1.7396 -0.7414 -1.9837
56055SOL    HW277134   4.815   2.608  11.004  1.5883  0.6922 -2.2034
56056SOL     OW77135   6.245   9.999  11.121  0.6371 -0.2524  0.1826
56056SOL    HW177136   6.253  10.071  11.059 -0.0419 -1.1102 -0.9416
56056SOL    HW277137   6.301  10.024  11.195  0.7060  1.2325 -0.3450
56057SOL     OW77138  12.568   9.040  11.768 -0.1151 -0.6980 -0.1794
56057SOL    HW177139  12.541   8.948  11.763 -0.4094 -0.5386 -2.4396
56057SOL    HW277140  12.648   9.046  11.716 -1.4026  0.7078 -2.1532
56058SOL     OW77141   4.976   3.626   5.526 -0.8177  0.7833  0.2833
56058SOL    HW177142   4.938   3.703   5.484 -0.5138  0.0779 -1.3471
56058SOL    HW277143   4.940   3.552   5.479  0.2126 -0.0135  0.7137
56059SOL     OW77144  12.031  10.866   7.509 -0.1705 -0.0373 -0.1217
56059SOL    HW177145  12.052  10.811   7.584  0.8404  1.3933  0.6938
56059SOL    HW277146  12.050  10.955   7.538 -2.2246  0.8394 -1.2281
56060SOL     OW77147   8.068  12.444   1.863 -0.1451  0.6080 -0.1901
56060SOL    HW177148   8.045  12.362   1.905 -0.0396  0.3430 -0.6390
56060SOL    HW277149   7.984  12.485   1.841 -0.2852  1.8481  2.3012
56061SOL     OW77150   4.949  12.383   9.641  0.3048 -0.3555  0.0195
56061SOL    HW177151   4.859  12.411   9.660 -0.0797  0.2561 -2.4033
56061SOL    HW277152   4.995  12.395   9.724 -1.8087 -0.6021  1.3076
56062SOL     OW77153  12.265   7.581   8.898 -0.0206  0.9034 -0.0465
56062SOL    HW177154  12.264   7.616   8.809  0.6078  1.7246  0.2556
56062SOL    HW277155  12.355   7.594   8.928  0.1884 -0.7926  0.1635
56063SOL     OW77156   5.246   1.039  11.634  0.6168  0.5480 -0.4017
56063SOL    HW177157   5.253   1.056  11.541  0.2818  1.8910 -0.1930
56063SOL    HW277158   5.222   1.123  11.673 -0.9629 -0.3683  0.7086
56064SOL     OW77159   2.205   2.114   2.080 -0.1532 -0.4012 -0.0191
56064SOL    HW177160   2.127   2.111   2.136 -1.8334  0.8350 -2.1219
56064SOL    HW277161   2.257   2.187   2.113 -1.5812  0.9115 -0.5528
56065SOL     OW77162   2.358   4.997   2.274  0.1090 -0.1680  0.4633
56065SOL    HW177163   2.450   4.972   2.266  0.6635  1.2632  1.8569
56065SOL    HW277164   2.312   4.915   2.294  1.7818 -0.3830  4.4418
56066SOL     OW77165   1.396   3.343  10.590  0.3972 -0.1178 -0.1042
56066SOL    HW177166   1.466   3.326  10.527  0.7396  0.8769 -0.0191
56066SOL    HW277167   1.438   3.391  10.661 -0.2580 -0.0099  0.2265
56067SOL     OW77168   1.910  12.278   3.172  0.3725  0.1874  0.3560
56067SOL    HW177169   1.874  12.344   3.114 -0.0783 -0.6735 -0.3717
56067SOL    HW277170   1.990  12.318   3.207  0.1752  1.0580 -0.1582
56068SOL     OW77171  10.995   7.365   2.744 -0.2426  0.7223  0.1746
56068SOL    HW177172  11.021   7.369   2.836  0.5523  1.6920 -0.0766
56068SOL    HW277173  10.993   7.457   2.715 -1.4831  0.5012 -0.5080
56069SOL     OW77174   5.413   0.016   3.325  0.1080  0.9032  0.2828
56069SOL    HW177175   5.335  -0.030   3.356 -0.6103  0.5303 -1.9265
56069SOL    HW277176   5.486  -0.041   3.350 -0.3731  0.8624  1.6513
56070SOL     OW77177   9.932   5.146   7.610  0.3247  0.0282  0.1808
56070SOL    HW177178  10.016   5.099   7.607  0.6218  0.5884 -1.2444
56070SOL    HW277179   9.953   5.235   7.581 -0.3547  0.8983  2.1992
56071SOL     OW77180   7.078   3.502   2.448  0.2989 -0.2864  0.8895
56071SOL    HW177181   7.173   3.494   2.452  0.5286  0.6644 -1.2655
56071SOL    HW277182   7.058   3.578   2.502  0.5748 -1.2364  2.3973
56072SOL     OW77183   4.300  10.026   6.550 -0.0885 -0.6147 -0.0825
56072SOL    HW177184   4.223  10.054   6.501  0.0569 -2.5867 -1.5077
56072SOL    HW277185   4.359   9.990   6.484  0.1967 -3.1983  1.4785
56073SOL     OW77186   1.375   8.703   1.374  0.0414  0.4890  0.0714
56073SOL    HW177187   1.405   8.777   1.426 -0.3436  0.9718 -0.3897
56073SOL    HW277188   1.311   8.659   1.430 -0.2064  0.8768  0.0925
56074SOL     OW77189   7.798   5.848   5.176 -0.5680 -0.5661  0.2764
56074SOL    HW177190   7.746   5.834   5.097  0.2158  1.2000 -0.5918
56074SOL    HW277191   7.872   5.788   5.167 -0.3519 -0.2021 -0.4745
56075SOL     OW77192   9.428   5.792   5.238 -0.4401  0.2101 -0.3868
56075SOL    HW177193   9.378   5.722   5.195  1.3733 -2.4872  1.6231
56075SOL    HW277194   9.498   5.812   5.176 -1.0897  0.4676 -1.0682
56076SOL     OW77195   7.958   1.368   1.390  0.0814  0.3667 -0.0879
56076SOL    HW177196   7.867   1.393   1.370  1.0367  3.5388 -1.1722
56076SOL    HW277197   7.961   1.363   1.485 -1.4551 -0.9024 -0.0688
56077SOL     OW77198  10.630   8.009   1.797 -0.1636  0.4150 -0.4477
56077SOL    HW177199  10.649   7.992   1.705 -1.3600 -0.3514 -0.5760
56077SOL    HW277200  10.676   8.091   1.816 -0.3129  0.8637 -1.8680
56078SOL     OW77201   0.303   2.676   6.875 -0.1144  0.1489 -0.4982
56078SOL    HW177202   0.316   2.584   6.854 -0.4946 -0.4337  1.6270
56078SOL    HW277203   0.252   2.676   6.956 -0.1302  2.2391 -0.4363
56079SOL     OW77204   7.962   3.147   7.148  0.2487  0.6593  0.7728
56079SOL    HW177205   7.997   3.062   7.121  1.0827  1.5396 -1.1955
56079SOL    HW277206   7.980   3.152   7.242  0.9750 -0.9694  0.7628
56080SOL     OW77207   5.074   8.530   3.124  0.3265  0.4029 -0.4849
56080SOL    HW177208   5.083   8.569   3.211  1.3014 -0.2809 -0.2580
56080SOL    HW277209   5.010   8.585   3.079 -2.2824 -0.7631  1.5466
56081SOL     OW77210   6.846   0.337   7.925 -0.1435  0.5677  0.0061
56081SOL    HW177211   6.817   0.255   7.964 -0.0669  0.9015  0.7765
56081SOL    HW277212   6.771   0.395   7.931  0.4219  1.1960  1.3281
56082SOL     OW77213   3.109  10.504   4.746 -0.0161  0.1764  0.1023
56082SOL    HW177214   3.100  10.567   4.675  2.0443  1.8211  1.1705
56082SOL    HW277215   3.020  10.481   4.770 -0.8206  2.0765 -0.8701
56083SOL     OW77216   8.986   4.459   4.046  0.1944  0.0809  0.4854
56083SOL    HW177217   8.965   4.383   4.099  0.0627 -0.4095 -0.2581
56083SOL    HW277218   9.075   4.484   4.073  0.4289 -0.6300  0.3979
56084SOL     OW77219   2.571   9.770   3.157  0.0523 -0.0805 -0.0184
56084SOL    HW177220   2.482   9.734   3.153 -0.1763  0.5779 -2.5015
56084SOL    HW277221   2.624   9.708   3.107  1.0224 -0.4502  1.4211
56085SOL     OW77222   2.445  10.094   7.177  0.3450  0.0343 -0.3681
56085SOL    HW177223   2.539  10.090   7.157  0.3966  0.6776 -0.2649
56085SOL    HW277224   2.425  10.187   7.181 -0.2239 -0.0988 -0.0143
56086SOL     OW77225   0.682   3.765  11.497 -0.0831 -0.1072 -0.2082
56086SOL    HW177226   0.608   3.772  11.557  1.0976  0.3392  1.2444
56086SOL    HW277227   0.702   3.856  11.474  0.6527 -0.1477  0.2374
56087SOL     OW77228   8.631   3.822   5.519  0.0911 -0.2636 -0.1055
56087SOL    HW177229   8.718   3.823   5.559 -1.3153  1.8102  3.3397
56087SOL    HW277230   8.600   3.912   5.527 -2.0031 -0.6968 -2.2803
56088SOL     OW77231   4.146   3.810   3.336 -0.2585 -0.7129 -0.9897
56088SOL    HW177232   4.105   3.896   3.329 -0.3152 -0.7440 -1.0407
56088SOL    HW277233   4.082   3.750   3.299 -0.7056 -0.9269  0.1001
56089SOL     OW77234   4.835   9.851   4.120  0.1035 -0.1958  0.3529
56089SOL    HW177235   4.819   9.879   4.030  2.6251  0.8238  0.1193
56089SOL    HW277236   4.923   9.884   4.140 -0.5780  0.1109  3.3970
56090SOL     OW77237   6.586  11.119   8.236 -0.3341  0.0338  0.7405
56090SOL    HW177238   6.556  11.195   8.186 -1.0260 -0.8218 -0.2029
56090SOL    HW277239   6.673  11.143   8.267 -0.6395  1.3020  0.6867
56091SOL     OW77240   9.800   8.138   6.375  0.2820 -0.7119 -0.1059
56091SOL    HW177241   9.881   8.135   6.323  1.7976  3.7876  1.4666
56091SOL    HW277242   9.734   8.170   6.314  0.8785  0.0134 -0.3903
56092SOL     OW77243   7.487   0.645  11.534 -0.0147 -0.0238  0.0686
56092SOL    HW177244   7.570   0.684  11.562 -0.3547  1.1992 -0.5562
56092SOL    HW277245   7.430   0.654  11.610  0.5122 -1.1844  0.6199
56093SOL     OW77246  12.192   1.845   9.966 -0.5010  0.3459 -0.4727
56093SOL    HW177247  12.231   1.763   9.996 -0.5371 -0.0604 -1.4909
56093SOL    HW277248  12.103   1.821   9.939 -0.1372  0.4768 -1.8416
56094SOL     OW77249   7.454   2.056   9.873  0.8694  0.2526 -0.0927
56094SOL    HW177250   7.486   2.051   9.963 -0.7338  0.7689  0.5424
56094SOL    HW277251   7.362   2.077   9.882  0.4031 -0.8419 -1.8454
56095SOL     OW77252   5.131   8.251   3.092 -0.1536 -0.1286 -0.1674
56095SOL    HW177253   5.129   8.343   3.117  2.1999 -0.1614  0.3826
56095SOL    HW277254   5.051   8.214   3.129 -0.0289  1.2393  1.5734
56096SOL     OW77255   0.450   3.708   1.462  0.7338  0.1442 -0.1885
56096SOL    HW177256   0.384   3.751   1.517 -0.8436  0.0332 -1.8771
56096SOL    HW277257   0.446   3.757   1.379  1.3889 -1.0907 -0.9679
56097SOL     OW77258   2.963  11.727   5.984 -0.2228 -0.7164 -0.2559
56097SOL    HW177259   3.051  11.765   5.981 -0.9313  0.9800 -0.2030
56097SOL    HW277260   2.969  11.659   6.052  1.1415 -0.9393 -0.5619
56098SOL     OW77261   4.888  11.231   8.859  0.4977 -0.1307  0.2553
56098SOL    HW177262   4.871  11.180   8.938 -0.0586  0.0696  0.2753
56098SOL    HW277263   4.982  11.248   8.860  0.2454  1.5361  1.9256
56099SOL     OW77264  11.954   2.052  10.461 -0.0929  0.2337 -0.5812
56099SOL    HW177265  11.891   2.089  10.399  0.9645  1.4186 -0.9922
56099SOL    HW277266  12.017   2.123  10.476 -0.3419  0.0232  1.9011
56100SOL     OW77267  11.920   2.282   9.143 -0.0974 -0.5059  0.2041
56100SOL    HW177268  11.968   2.299   9.224  1.0352 -1.7010 -0.1819
56100SOL    HW277269  11.834   2.320   9.158 -0.0403 -1.0270  2.1198
56101SOL     OW77270   5.018  10.462  10.376  0.2074 -0.2873 -0.2752
56101SOL    HW177271   5.033  10.413  10.457 -0.7627  1.6069  1.1259
56101SOL    HW277272   5.082  10.533  10.379 -1.0404  0.8747 -0.2100
56102SOL     OW77273   3.022   4.359   1.562 -0.5019  0.4337 -0.6918
56102SOL    HW177274   3.095   4.417   1.585 -1.1096  0.9045  0.0795
56102SOL    HW277275   2.961   4.416   1.515 -0.5209  0.1096 -1.0626
56103SOL     OW77276   6.670   0.644   9.482  0.3957  0.2235 -0.0432
56103SOL    HW177277   6.693   0.618   9.571  0.3516  1.4865  0.3549
56103SOL    HW277278   6.610   0.576   9.452  0.2636 -0.1215  0.9631
56104SOL     OW77279   4.137   4.415   3.768 -0.2211  0.2183  0.4209
56104SOL    HW177280   4.047   4.391   3.789 -0.4087  0.2909 -0.2714
56104SOL    HW277281   4.157   4.489   3.825 -0.2143 -0.4907  1.3727
56105SOL     OW77282   7.334  12.005   2.564  0.6944  0.1937 -0.8135
56105SOL    HW177283   7.338  12.069   2.494  3.5265  0.5068 -0.4900
56105SOL    HW277284   7.358  11.922   2.523 -0.3961 -0.2012 -0.7086
56106SOL     OW77285   2.583   7.725   2.914 -0.2826 -0.0091  0.2150
56106SOL    HW177286   2.575   7.670   2.836  0.2886 -0.0704  0.1978
56106SOL    HW277287   2.673   7.711   2.944 -0.5961 -0.2415  1.0769
56107SOL     OW77288   3.950   4.026  11.630  0.1654  0.0091  0.0263
56107SOL    HW177289   3.913   3.939  11.645  0.2391 -0.2803 -1.3858
56107SOL    HW277290   4.044   4.016  11.650  0.3685 -0.5141 -1.1270
56108SOL     OW77291   5.115   8.689   2.027 -0.4686  0.1709 -0.2883
56108SOL    HW177292   5.094   8.628   1.956  0.1231 -0.8549  0.4045
56108SOL    HW277293   5.206   8.713   2.012 -0.4481  0.2262 -0.0758
56109SOL     OW77294   7.784   0.037   5.521 -0.2298  0.2043  0.3465
56109SOL    HW177295   7.720  -0.026   5.554  1.5821 -1.8287  0.2224
56109SOL    HW277296   7.779   0.029   5.426  0.3363 -0.1144  0.3398
56110SOL     OW77297  11.575   6.617   4.230  0.1564 -0.5808  0.1801
56110SOL    HW177298  11.480   6.612   4.215  0.1853 -3.9570  0.3413
56110SOL    HW277299  11.602   6.695   4.182 -2.4103 -0.7245 -1.7446
56111SOL     OW77300  12.145   0.157   0.346  0.6711 -0.1672 -0.7111
56111SOL    HW177301  12.075   0.123   0.291 -1.1641 -0.5498  1.6800
56111SOL    HW277302  12.196   0.213   0.288  0.0846 -2.0487 -3.2371
56112SOL     OW77303   0.437  10.836   8.287 -0.0477  0.2760 -0.2294
56112SOL    HW177304   0.384  10.832   8.208 -3.3993  1.2558  1.7687
56112SOL    HW277305   0.480  10.751   8.292 -4.0356 -1.9527 -0.3992
56113SOL     OW77306   9.427   8.018   3.578  0.7318  0.0962  0.5992
56113SOL    HW177307   9.439   8.113   3.584  0.2430  0.1920  0.1645
56113SOL    HW277308   9.480   7.991   3.503  0.9708  0.0063  0.8004
56114SOL     OW77309   1.700   3.862   7.263 -0.2648 -0.2255  0.7514
56114SOL    HW177310   1.698   3.951   7.226 -1.9452 -0.6925 -0.3893
56114SOL    HW277311   1.708   3.876   7.357  1.6251  1.0661  0.4670
56115SOL     OW77312   5.140   1.962   1.433  0.3312  0.0746 -0.1812
56115SOL    HW177313   5.172   1.956   1.342 -0.1866  1.3626 -0.4653
56115SOL    HW277314   5.076   1.891   1.440  1.3058 -0.8481 -0.4184
56116SOL     OW77315  10.169   9.699   5.801  0.1201 -0.6422 -0.7577
56116SOL    HW177316  10.131   9.776   5.759 -0.6335  0.0799  1.1305
56116SOL    HW277317  10.258   9.725   5.824 -0.1551 -0.2794 -0.0625
56117SOL     OW77318  10.704   5.551   3.980 -0.4302  0.0774  0.3302
56117SOL    HW177319  10.732   5.629   4.028 -1.8182 -0.6156  2.3982
56117SOL    HW277320  10.723   5.571   3.888  0.4694  2.2910  0.9338
56118SOL     OW77321   1.742   1.797   3.953 -1.0809 -0.2512  1.2567
56118SOL    HW177322   1.744   1.708   3.988  1.0666 -0.8213 -0.1391
56118SOL    HW277323   1.682   1.792   3.878  0.0827 -0.9056  0.3389
56119SOL     OW77324  11.532   6.944   4.411 -0.1864  0.0314  0.4981
56119SOL    HW177325  11.604   6.983   4.460 -0.4577  0.4382  0.5827
56119SOL    HW277326  11.474   6.909   4.478  0.2569 -0.9013  0.4128
56120SOL     OW77327   8.115   6.059   5.117  0.7327 -0.0770 -0.1210
56120SOL    HW177328   8.139   5.967   5.128 -0.1205 -0.2581  0.3064
56120SOL    HW277329   8.173   6.091   5.047  0.6064 -1.0969 -0.7046
56121SOL     OW77330   4.061   4.686   4.380 -0.2327 -0.3011  0.1400
56121SOL    HW177331   4.043   4.619   4.313 -0.9032 -0.2888  0.3009
56121SOL    HW277332   4.114   4.751   4.334 -0.0449 -0.6667 -0.1745
56122SOL     OW77333   6.836   3.222   3.751 -0.7762  0.0992 -0.6562
56122SOL    HW177334   6.789   3.299   3.782 -0.3418 -0.1892  0.8538
56122SOL    HW277335   6.768   3.161   3.723 -1.2079  0.3724 -0.2117
56123SOL     OW77336   5.164  10.179   1.306  0.6467 -0.0980  0.2978
56123SOL    HW177337   5.189  10.193   1.215  1.0664  0.8382  0.5405
56123SOL    HW277338   5.237  10.215   1.357  0.8659 -1.4791  1.0083
56124SOL     OW77339   0.267   2.395   7.394  0.4168  0.0872  0.1473
56124SOL    HW177340   0.193   2.455   7.390  0.5281  0.3821  1.6440
56124SOL    HW277341   0.344   2.452   7.397  0.5225 -0.0801  1.5683
56125SOL     OW77342   5.207   5.234   8.783  0.4957  0.1719 -0.0196
56125SOL    HW177343   5.142   5.284   8.734 -1.4350 -0.9764  1.2794
56125SOL    HW277344   5.211   5.276   8.869 -0.0336 -0.9766  0.5779
56126SOL     OW77345   8.704   6.151   4.590  0.3660 -0.4015  0.2710
56126SOL    HW177346   8.668   6.161   4.678  0.0648  0.4742  0.0653
56126SOL    HW277347   8.628   6.148   4.533  0.5364 -1.7409  0.0913
56127SOL     OW77348   0.939  11.063   8.193  0.1702 -0.1558 -0.0587
56127SOL    HW177349   0.920  10.970   8.186 -0.7421 -0.0439  0.6620
56127SOL    HW277350   1.018  11.076   8.142  0.2460 -1.3064 -0.2512
56128SOL     OW77351   1.818   1.219  11.405  0.2841  0.0485 -0.1330
56128SOL    HW177352   1.836   1.292  11.345 -0.6629  1.0128  0.6969
56128SOL    HW277353   1.748   1.252  11.462 -0.3173 -1.5983  0.1404
56129SOL     OW77354   1.075   5.887   5.100 -0.3421  0.3329 -0.5832
56129SOL    HW177355   0.984   5.882   5.132 -0.1313  3.9136  1.1286
56129SOL    HW277356   1.106   5.972   5.131  3.1169 -0.0392 -2.5510
56130SOL     OW77357   1.147  11.974   2.139  0.3945 -0.4131  0.3640
56130SOL    HW177358   1.198  11.957   2.061 -0.7683  0.3604 -0.5969
56130SOL    HW277359   1.207  12.019   2.198  0.9038  0.2299 -0.6263
56131SOL     OW77360   4.609   5.718  11.030 -0.6602 -0.0207 -0.5047
56131SOL    HW177361   4.548   5.777  11.073 -0.2635  0.5142 -0.6757
56131SOL    HW277362   4.626   5.758  10.945 -0.3218 -0.3334 -0.5896
56132SOL     OW77363   0.227   5.249  10.812  0.3605 -0.2782 -0.4418
56132SOL    HW177364   0.295   5.191  10.846 -0.5782 -0.9789  0.3069
56132SOL    HW277365   0.244   5.333  10.854  0.4181 -0.6069  0.2094
56133SOL     OW77366   5.003   2.624  12.224  0.2892 -0.4007  0.6376
56133SOL    HW177367   5.056   2.561  12.174  1.7748  1.7610 -0.6678
56133SOL    HW277368   5.033   2.614  12.314  1.5840 -0.5476  0.2145
56134SOL     OW77369   0.770   6.748   3.745  0.4657  0.7826  0.2204
56134SOL    HW177370   0.856   6.708   3.757 -0.1526 -0.0196  2.4910
56134SOL    HW277371   0.708   6.677   3.757 -0.5599  1.5915 -0.0930
56135SOL     OW77372   0.291   2.315   0.030 -0.0379 -0.1697 -0.0348
56135SOL    HW177373   0.211   2.294   0.078 -0.6113  0.3952 -0.7251
56135SOL    HW277374   0.270   2.394  -0.019  1.8145  1.6526  1.8977
56136SOL     OW77375   1.855   1.006   2.694  0.0525  0.1257 -0.2465
56136SOL    HW177376   1.801   1.081   2.721 -0.0967  0.0226 -0.2613
56136SOL    HW277377   1.856   1.011   2.598 -0.0864  0.0179 -0.2540
56137SOL     OW77378   9.716   3.248   7.197 -0.3826 -0.5098 -0.4732
56137SOL    HW177379   9.686   3.227   7.109 -1.0047 -1.2149 -0.1051
56137SOL    HW277380   9.791   3.191   7.212 -0.0379 -0.1155 -0.6835
56138SOL     OW77381  10.611   3.461   0.092  0.4657 -0.1758 -0.1400
56138SOL    HW177382  10.611   3.519   0.016  2.0616 -2.0674 -1.7320
56138SOL    HW277383  10.527   3.415   0.087  0.0731  0.5347 -0.0831
56139SOL     OW77384  10.347   6.988   9.431  0.0507 -0.3809  0.8055
56139SOL    HW177385  10.326   6.936   9.508 -2.8143  0.2742  0.5978
56139SOL    HW277386  10.328   6.930   9.357 -1.5752  0.3458  0.6002
56140SOL     OW77387   2.715   1.798   1.814  0.5475 -0.3864  0.7076
56140SOL    HW177388   2.767   1.810   1.735  0.3426 -0.7035  0.5221
56140SOL    HW277389   2.689   1.705   1.812  0.7475 -0.4599  1.2698
56141SOL     OW77390   6.490   4.242   1.419  0.0463 -0.1819  0.1809
56141SOL    HW177391   6.576   4.271   1.389 -0.3051  1.8552  1.0173
56141SOL    HW277392   6.495   4.245   1.515 -0.8583 -0.3154  0.2479
56142SOL     OW77393   0.308   7.985   5.257  0.0102 -0.1327 -0.0093
56142SOL    HW177394   0.337   7.908   5.305 -1.7520 -0.7701  0.0947
56142SOL    HW277395   0.295   7.955   5.167  1.6512  0.6560 -0.5595
56143SOL     OW77396  11.085   8.047   1.262  0.4487 -0.2027 -0.2703
56143SOL    HW177397  11.023   8.056   1.190 -1.6363  0.1064  1.4544
56143SOL    HW277398  11.090   7.953   1.278  0.3058 -0.2172 -0.3095
56144SOL     OW77399  11.776   3.172   9.609 -0.0294 -0.2735 -0.2402
56144SOL    HW177400  11.808   3.250   9.654 -2.8495  1.4649 -0.9654
56144SOL    HW277401  11.683   3.169   9.631 -1.0500 -0.6794 -3.9076
56145SOL     OW77402   1.337   1.135  10.590 -0.5137 -0.4527  0.0541
56145SOL    HW177403   1.352   1.144  10.496  1.6494 -0.5173  0.3494
56145SOL    HW277404   1.333   1.224  10.623  0.7402 -0.4024  0.1416
56146SOL     OW77405   1.423   6.757   5.976  0.1172 -0.4027  0.6630
56146SOL    HW177406   1.355   6.824   5.972 -0.7353 -1.2496  0.6935
56146SOL    HW277407   1.483   6.787   6.045 -0.5057  0.1004  0.9926
56147SOL     OW77408   3.750  11.674  11.591 -0.4026 -0.0468  0.0106
56147SOL    HW177409   3.818  11.674  11.659 -1.2258  0.0116  0.8563
56147SOL    HW277410   3.790  11.720  11.517 -0.0699  1.3958  1.0545
56148SOL     OW77411   4.187   7.012   9.073  0.0120  0.1876  0.4091
56148SOL    HW177412   4.098   6.992   9.104  0.0951 -2.1562 -0.6311
56148SOL    HW277413   4.189   7.107   9.067 -2.9558  0.3067 -0.8963
56149SOL     OW77414   8.407  12.052  10.481  0.5440  0.3217 -0.0812
56149SOL    HW177415   8.428  11.991  10.552 -0.3717 -0.4394 -0.4372
56149SOL    HW277416   8.340  12.006  10.430  0.7535  1.1121 -1.0886
56150SOL     OW77417   0.134  10.181   9.195  0.6165 -0.6635 -0.5673
56150SOL    HW177418   0.121  10.115   9.127 -0.0026 -1.5349  0.3725
56150SOL    HW277419   0.137  10.264   9.147 -3.8437 -0.7682 -1.4145
56151SOL     OW77420   9.405   8.328   7.912 -0.6922  0.1365 -0.0396
56151SOL    HW177421   9.430   8.297   7.999  1.5910 -2.0450 -1.3255
56151SOL    HW277422   9.316   8.360   7.922 -0.8091 -0.8276  2.9031
56152SOL     OW77423   1.420   4.769   8.978  0.4789 -0.1428 -0.4055
56152SOL    HW177424   1.386   4.729   8.897 -2.1567 -2.7099  1.7593
56152SOL    HW277425   1.344   4.809   9.018  1.7558  1.1354  0.8375
56153SOL     OW77426  11.035  12.274   2.708  0.3344  0.8551 -0.2177
56153SOL    HW177427  10.954  12.226   2.692  0.4953  0.3763  0.3652
56153SOL    HW277428  11.042  12.335   2.635 -0.7297  1.1493 -0.0811
56154SOL     OW77429   4.542   9.784   3.602 -0.1628  0.1801 -0.2546
56154SOL    HW177430   4.459   9.741   3.617 -0.0146  0.2451  0.7827
56154SOL    HW277431   4.520   9.877   3.593 -0.2448  0.1446 -0.4273
56155SOL     OW77432   4.800   8.559   1.176 -0.3162 -0.4131 -0.7380
56155SOL    HW177433   4.803   8.603   1.091  0.7712 -0.1767 -0.5896
56155SOL    HW277434   4.850   8.478   1.163 -0.0136 -0.2998 -0.2865
56156SOL     OW77435   6.247   0.275   9.394  0.1376 -0.2196  0.1408
56156SOL    HW177436   6.233   0.186   9.426 -1.3788  0.6802  2.2120
56156SOL    HW277437   6.256   0.328   9.474  1.9771  1.3885 -1.0277
56157SOL     OW77438   8.319  10.759   0.597 -0.3534 -0.5499 -0.2852
56157SOL    HW177439   8.272  10.829   0.642  1.1962  0.3924 -0.0476
56157SOL    HW277440   8.287  10.762   0.507  0.4314  1.1997 -0.5433
56158SOL     OW77441   1.671   4.146   1.562  0.5717 -0.4669  0.5667
56158SOL    HW177442   1.752   4.147   1.614  0.9549 -0.5185 -0.0241
56158SOL    HW277443   1.628   4.063   1.586  0.4931 -0.2573  1.1758
56159SOL     OW77444   8.087  12.081   3.429 -0.2773 -0.0200 -0.4449
56159SOL    HW177445   8.176  12.048   3.421 -1.2347 -2.5492 -1.9393
56159SOL    HW277446   8.052  12.076   3.340 -1.9567  0.7593  0.1303
56160SOL     OW77447   4.604   9.429   4.736 -0.1188 -0.3432  0.2764
56160SOL    HW177448   4.579   9.336   4.739 -4.3060  0.4931 -1.4307
56160SOL    HW277449   4.608   9.450   4.643  1.9328  1.0421  0.6003
56161SOL     OW77450  12.196   7.968   0.823  0.3819 -0.2151 -0.5218
56161SOL    HW177451  12.263   7.949   0.758 -0.2427 -0.5436 -1.0762
56161SOL    HW277452  12.152   8.047   0.790 -0.0569 -0.4893 -0.5993
56162SOL     OW77453   3.573  10.536   8.854 -0.1894 -0.5965  0.0381
56162SOL    HW177454   3.600  10.626   8.872  1.9380 -1.2579  0.5343
56162SOL    HW277455   3.483  10.531   8.886 -0.2181  1.2408  0.3622
56163SOL     OW77456   5.007   6.106   6.140 -0.2129 -0.4390 -0.0067
56163SOL    HW177457   5.031   6.197   6.158 -1.5055  0.3814 -2.1226
56163SOL    HW277458   5.014   6.063   6.225  0.6860  1.5557  1.0109
56164SOL     OW77459   5.142   0.128  12.363 -0.0613  0.2220 -0.1067
56164SOL    HW177460   5.050   0.124  12.389 -0.3982  0.3206 -1.2385
56164SOL    HW277461   5.145   0.083  12.279  1.2357 -1.2640  0.6850
56165SOL     OW77462  10.545   9.651   4.328 -0.1907 -0.7160 -0.6284
56165SOL    HW177463  10.492   9.589   4.277 -0.7602  0.4957 -1.5704
56165SOL    HW277464  10.628   9.605   4.342 -0.5374 -1.6334 -1.4229
56166SOL     OW77465   2.330   2.205   6.273 -0.5008  0.4761  0.1029
56166SOL    HW177466   2.389   2.213   6.347 -1.2473  0.7359  0.6736
56166SOL    HW277467   2.355   2.276   6.214  0.7107 -0.2926 -0.3499
56167SOL     OW77468  11.466   0.089   6.903  0.0074 -0.0204  0.0348
56167SOL    HW177469  11.383   0.059   6.866 -0.5027  0.0087  1.1002
56167SOL    HW277470  11.505   0.143   6.834 -1.3179  0.7532 -0.1516
56168SOL     OW77471   4.069   0.714   0.840 -0.8250 -0.5733 -0.0081
56168SOL    HW177472   4.054   0.809   0.842 -1.2788 -0.6491  0.4319
56168SOL    HW277473   4.051   0.685   0.929 -1.2369 -1.1530 -0.2710
56169SOL     OW77474   2.183   4.820   0.613 -0.1011 -0.2586 -0.0698
56169SOL    HW177475   2.204   4.726   0.608 -1.4088 -0.8217  2.9684
56169SOL    HW277476   2.258   4.859   0.659 -0.4102 -0.1460  0.3360
56170SOL     OW77477   4.923   1.575   0.211 -0.6624  0.4369  0.0269
56170SOL    HW177478   4.834   1.608   0.205 -1.3429 -1.0988  0.8527
56170SOL    HW277479   4.974   1.649   0.244 -1.6182  1.3483 -0.4824
56171SOL     OW77480   4.231   0.118   0.183 -0.3689 -0.1536 -0.2783
56171SOL    HW177481   4.239   0.044   0.244  0.2568  2.0507  2.5054
56171SOL    HW277482   4.169   0.177   0.224  1.8020  2.5243 -0.5417
56172SOL     OW77483   5.566   0.608   2.997 -0.3372  0.6619  0.2145
56172SOL    HW177484   5.493   0.556   3.031 -0.4605  0.6576 -0.0552
56172SOL    HW277485   5.575   0.580   2.906 -0.1335  0.8134  0.1870
56173SOL     OW77486   6.179   4.058   5.910 -0.1270  0.5890  0.7597
56173SOL    HW177487   6.178   4.139   5.860  0.4139 -0.8554 -1.7509
56173SOL    HW277488   6.130   3.996   5.857  0.4981 -1.0586  2.0061
56174SOL     OW77489   5.966   7.829   5.670 -0.4621 -0.1978  0.0099
56174SOL    HW177490   5.930   7.831   5.759 -0.8295 -1.1596 -0.1014
56174SOL    HW277491   5.985   7.920   5.650 -1.3726  0.1615  0.6806
56175SOL     OW77492   9.329   0.843   7.627 -0.6394  0.0344 -0.0091
56175SOL    HW177493   9.357   0.932   7.647 -2.2345  0.7004 -0.5336
56175SOL    HW277494   9.400   0.787   7.658  0.2966  1.4720  0.5210
56176SOL     OW77495   7.272   5.561   7.729 -0.3731 -0.3815 -0.0691
56176SOL    HW177496   7.363   5.587   7.720 -0.5636  1.1165  1.8652
56176SOL    HW277497   7.222   5.641   7.718 -1.4222 -1.0451 -0.3301
56177SOL     OW77498   7.276   1.722  11.895 -0.4447 -0.2099  0.2077
56177SOL    HW177499   7.367   1.742  11.874  1.0100 -3.6656  2.3470
56177SOL    HW277500   7.237   1.807  11.913  2.3924  1.3960 -0.5312
56178SOL     OW77501   8.640   3.356   0.844 -0.9884  0.2659 -0.4597
56178SOL    HW177502   8.585   3.327   0.771 -2.1676 -0.2883  0.6040
56178SOL    HW277503   8.592   3.328   0.922  0.0130  1.2482  0.5401
56179SOL     OW77504   1.838   0.320   1.703 -0.7488 -0.6739  0.2680
56179SOL    HW177505   1.820   0.346   1.794 -1.2368 -0.4566  0.1138
56179SOL    HW277506   1.818   0.226   1.701  1.5629 -1.2500  0.9661
56180SOL     OW77507  10.725   2.672   1.398  0.3238 -0.0864 -0.0572
56180SOL    HW177508  10.820   2.685   1.403  0.1792  0.4564  2.3680
56180SOL    HW277509  10.710   2.589   1.443 -0.4994  0.7923  1.3488
56181SOL     OW77510   0.060  10.059   4.082  0.4317 -0.4284 -0.4281
56181SOL    HW177511   0.077   9.983   4.027  2.5534 -1.5580  1.6275
56181SOL    HW277512  -0.022  10.039   4.127 -0.1749 -0.4520 -1.5007
56182SOL     OW77513   6.412   2.796   9.171 -0.4252  0.1869 -0.1307
56182SOL    HW177514   6.474   2.868   9.179 -2.0245  1.5728  0.2860
56182SOL    HW277515   6.357   2.819   9.096 -0.7862 -0.7338 -0.1680
56183SOL     OW77516   5.409   5.171   5.951 -0.5919 -0.2579 -0.4932
56183SOL    HW177517   5.451   5.257   5.958 -0.9107 -0.2203  1.8767
56183SOL    HW277518   5.477   5.114   5.914  0.8699  0.2694  1.2438
56184SOL     OW77519   7.744   6.716   4.447 -0.0545 -0.5109 -0.2258
56184SOL    HW177520   7.833   6.682   4.451  0.1159 -0.1667 -0.9267
56184SOL    HW277521   7.697   6.655   4.390 -0.6229 -1.4367  1.1859
56185SOL     OW77522  12.249   9.430   1.167  0.6531 -0.5356 -0.1043
56185SOL    HW177523  12.257   9.435   1.263  0.7995 -0.6451 -0.1111
56185SOL    HW277524  12.302   9.354   1.143 -0.7747 -1.6042 -0.0803
56186SOL     OW77525   2.706   0.332   0.874 -0.0697 -0.9681 -0.4808
56186SOL    HW177526   2.698   0.237   0.863  0.9844 -0.9642 -1.4145
56186SOL    HW277527   2.794   0.352   0.845  0.8823 -0.1115  2.6264
56187SOL     OW77528  10.585   9.149   9.424  0.8416  0.1217 -0.0380
56187SOL    HW177529  10.612   9.072   9.375 -1.4418  0.3795 -1.8938
56187SOL    HW277530  10.506   9.121   9.471  0.0418  1.2130 -0.6591
56188SOL     OW77531  11.072   0.966   5.979  0.3639 -0.3104 -0.5148
56188SOL    HW177532  11.103   0.890   5.929  0.5780 -0.8625  0.4386
56188SOL    HW277533  10.988   0.938   6.016 -0.2166  0.3985 -1.2499
56189SOL     OW77534  12.385  11.322   9.897  0.0624  0.4421  0.0576
56189SOL    HW177535  12.335  11.398   9.927  0.9035  0.0807  2.6384
56189SOL    HW277536  12.470  11.358   9.873 -0.4162  0.6433 -1.4614
56190SOL     OW77537  10.300   9.815   2.526  0.0246  0.5213 -0.2974
56190SOL    HW177538  10.353   9.783   2.453 -1.0660  0.0479 -0.9086
56190SOL    HW277539  10.268   9.900   2.497 -3.0326 -0.9906 -1.8256
56191SOL     OW77540   1.604   8.707  11.208  0.4658 -0.0560  0.4326
56191SOL    HW177541   1.644   8.630  11.169  1.5500 -0.0320  1.4377
56191SOL    HW277542   1.543   8.672  11.274 -0.7116 -0.0758 -0.6257
56192SOL     OW77543   9.555  11.197   3.563 -0.4937 -0.2814 -0.4102
56192SOL    HW177544   9.589  11.194   3.474 -1.7275 -2.1272 -0.9037
56192SOL    HW277545   9.591  11.119   3.605 -0.6263  0.0927  0.4217
56193SOL     OW77546   1.245  10.685   0.568  0.0620 -0.2681  0.8114
56193SOL    HW177547   1.224  10.771   0.605 -0.4262  0.1911 -0.4472
56193SOL    HW277548   1.311  10.703   0.501 -1.3497 -0.5630 -0.7425
56194SOL     OW77549   9.065  10.298  12.249  0.3413 -0.0039  0.0081
56194SOL    HW177550   9.091  10.271  12.161  1.5048  1.6476 -0.1965
56194SOL    HW277551   9.147  10.299  12.298 -0.3313 -1.1822  1.2224
56195SOL     OW77552   6.742   4.693   2.045 -0.2469 -0.4670 -0.0763
56195SOL    HW177553   6.808   4.761   2.055  0.6275 -0.7341 -2.9047
56195SOL    HW277554   6.658   4.738   2.060  0.3131  1.2582 -1.6370
56196SOL     OW77555   6.847   3.754   7.245  0.4168  0.8648 -0.0911
56196SOL    HW177556   6.759   3.741   7.282  0.2177  2.7159  0.1630
56196SOL    HW277557   6.906   3.712   7.308 -0.1677  0.9699  0.5381
56197SOL     OW77558  11.483  11.171   1.173  0.1012 -0.0217  0.0304
56197SOL    HW177559  11.444  11.167   1.260 -1.3983  1.9528 -0.4729
56197SOL    HW277560  11.499  11.264   1.158  1.0177 -0.3975 -1.5249
56198SOL     OW77561   9.982   2.423   9.674 -0.4630 -0.4318 -0.5916
56198SOL    HW177562   9.906   2.367   9.691 -0.1086 -0.7058  0.1441
56198SOL    HW277563   9.986   2.430   9.579 -1.0570 -0.9111 -0.6576
56199SOL     OW77564  10.784   3.732   0.553  0.2263 -0.1261  0.5630
56199SOL    HW177565  10.744   3.759   0.471 -0.1628  0.5030  0.9510
56199SOL    HW277566  10.837   3.807   0.580  3.5154 -1.6490 -1.0181
56200SOL     OW77567  10.885   0.823   3.051  0.2062 -0.4789  0.0669
56200SOL    HW177568  10.865   0.733   3.075 -1.0565 -0.7155 -1.7251
56200SOL    HW277569  10.843   0.876   3.119 -1.0829 -1.1792 -0.1604
56201SOL     OW77570   8.584   6.058  12.548 -0.2689  0.0714 -0.0659
56201SOL    HW177571   8.593   5.963  12.553 -0.2074  0.1052  0.6305
56201SOL    HW277572   8.532   6.081  12.626 -0.8134  0.5462 -0.5552
56202SOL     OW77573   2.129   1.684   2.084  0.0456  0.0138 -0.1369
56202SOL    HW177574   2.183   1.763   2.088 -1.1954  0.8830  0.3276
56202SOL    HW277575   2.055   1.704   2.142 -0.9403 -0.9897 -1.0171
56203SOL     OW77576   2.381  12.394   7.660  0.0939 -0.0032  0.3880
56203SOL    HW177577   2.361  12.409   7.752  3.4227 -0.4958  1.3421
56203SOL    HW277578   2.415  12.478   7.628 -1.4546  0.2948 -0.5750
56204SOL     OW77579   8.489   6.655   5.671 -0.4474  0.9307 -1.1667
56204SOL    HW177580   8.531   6.696   5.747 -0.3369  0.4424 -0.9646
56204SOL    HW277581   8.412   6.710   5.655 -0.9564  0.5389 -0.1653
56205SOL     OW77582   0.647   5.382   3.194 -0.1083 -0.5122  0.4083
56205SOL    HW177583   0.556   5.403   3.177 -0.1107  0.5643  1.5570
56205SOL    HW277584   0.644   5.304   3.249 -0.3441 -0.4655  0.4622
56206SOL     OW77585   4.675  10.914   7.302 -0.4784 -0.2052  0.1648
56206SOL    HW177586   4.687  10.957   7.386  0.1477  4.3574 -1.9701
56206SOL    HW277587   4.582  10.923   7.283 -0.1427  1.5630 -0.8418
56207SOL     OW77588   7.887  10.027   9.071  0.1969  0.1136 -0.6328
56207SOL    HW177589   7.840   9.989   8.996 -0.8959  0.3882 -0.1176
56207SOL    HW277590   7.870  10.121   9.065 -0.1883  0.1019  0.1330
56208SOL     OW77591  10.667  10.507   3.429  0.1724  0.3097 -0.3418
56208SOL    HW177592  10.608  10.541   3.362 -0.1027 -0.7299 -0.6476
56208SOL    HW277593  10.629  10.423   3.454  0.1780  0.7449  1.2456
56209SOL     OW77594   1.076   9.172   2.750 -0.3380  0.5255 -0.6544
56209SOL    HW177595   1.108   9.251   2.706 -0.9796  0.2760 -1.5858
56209SOL    HW277596   1.075   9.195   2.843 -1.7385  2.0615 -1.0188
56210SOL     OW77597  12.110   5.585   9.713  0.7095 -0.1095  0.1295
56210SOL    HW177598  12.124   5.665   9.664  0.2629  0.0277  0.2190
56210SOL    HW277599  12.020   5.592   9.745  0.1997 -1.2482 -0.9730
56211SOL     OW77600   5.378   3.241   7.936  0.1864 -0.0224  0.0842
56211SOL    HW177601   5.348   3.207   7.852 -1.3537  1.1934  0.0980
56211SOL    HW277602   5.298   3.258   7.985  0.9089  2.2227  0.6079
56212SOL     OW77603   0.592   9.229   2.100  0.6866  0.0780 -0.4719
56212SOL    HW177604   0.633   9.146   2.125  0.2508 -0.1417 -0.4754
56212SOL    HW277605   0.507   9.204   2.065  1.2092  0.3852 -2.0506
56213SOL     OW77606   9.974   9.873   8.960 -0.5125 -0.4911  0.1251
56213SOL    HW177607   9.936   9.904   8.877  0.9786 -0.4444 -0.5784
56213SOL    HW277608   9.899   9.841   9.010 -1.7939  1.7767 -0.1825
56214SOL     OW77609  10.382   9.350  12.322  0.5900 -0.3411 -0.2170
56214SOL    HW177610  10.404   9.262  12.352 -0.4622 -0.5604 -0.0444
56214SOL    HW277611  10.456   9.376  12.267  0.0459 -2.1144 -1.9119
56215SOL     OW77612  11.680   7.369   4.381 -0.4954  0.0606  0.0953
56215SOL    HW177613  11.729   7.403   4.456 -1.2177 -0.2582  0.7227
56215SOL    HW277614  11.597   7.418   4.383 -1.3574 -1.3796  0.7304
56216SOL     OW77615   2.591   7.815   1.640 -0.0251 -0.3168 -0.2355
56216SOL    HW177616   2.623   7.858   1.561 -1.1512 -0.2357 -0.6601
56216SOL    HW277617   2.598   7.882   1.708 -0.9471  0.2781 -0.7060
56217SOL     OW77618   7.948  11.821   1.215 -0.0278 -0.2192 -0.3139
56217SOL    HW177619   7.995  11.903   1.229  1.3152 -0.9994 -0.0591
56217SOL    HW277620   7.991  11.758   1.274 -1.4267 -0.9732 -0.0392
56218SOL     OW77621   9.653  11.987   9.396 -0.8135  0.3672  0.0365
56218SOL    HW177622   9.670  11.992   9.302  0.8117  0.7057  0.3169
56218SOL    HW277623   9.573  12.038   9.409 -1.2370  0.0417 -1.1971
56219SOL     OW77624   3.222   1.508   4.444  0.6199 -0.1747 -0.3933
56219SOL    HW177625   3.205   1.571   4.514 -0.3940 -0.3298 -0.4853
56219SOL    HW277626   3.301   1.541   4.401  0.6750  0.4781  0.1867
56220SOL     OW77627   7.127  10.332   5.783 -0.5778 -0.1085  0.7625
56220SOL    HW177628   7.207  10.339   5.729 -1.8905 -2.1159 -1.6488
56220SOL    HW277629   7.131  10.244   5.819 -0.0760  0.9760  3.5945
56221SOL     OW77630  11.252  11.542   7.663 -0.3836  0.1171 -0.1084
56221SOL    HW177631  11.163  11.563   7.638 -0.5583 -0.4792 -0.0071
56221SOL    HW277632  11.270  11.457   7.623  0.6952  0.9246 -1.4395
56222SOL     OW77633   3.453   4.184   9.306  0.4802 -0.4255  0.1986
56222SOL    HW177634   3.514   4.115   9.279  1.5320  1.0922 -1.5645
56222SOL    HW277635   3.440   4.237   9.227 -0.7622  1.0594  1.3250
56223SOL     OW77636  10.275   3.193   0.304  1.0647 -0.7438 -0.2384
56223SOL    HW177637  10.196   3.173   0.354  0.8980 -0.2346 -0.2936
56223SOL    HW277638  10.318   3.108   0.293 -0.3925 -1.3397 -1.8049
56224SOL     OW77639   0.165   0.084   4.339 -0.4275 -0.6165 -0.0049
56224SOL    HW177640   0.257   0.058   4.346  0.3047  1.7273 -0.1418
56224SOL    HW277641   0.151   0.143   4.413 -0.6733  2.0903 -2.0675
56225SOL     OW77642   8.221  10.315   2.225  0.4397  0.6414 -0.1820
56225SOL    HW177643   8.132  10.281   2.233 -0.0369  2.0280  0.6428
56225SOL    HW277644   8.255  10.274   2.145 -0.8705 -0.0339 -0.4201
56226SOL     OW77645   9.473   1.191   5.241 -0.4905 -0.2453 -0.0237
56226SOL    HW177646   9.525   1.264   5.275 -1.4056  1.1098 -1.4230
56226SOL    HW277647   9.450   1.216   5.152 -0.0947 -2.6651 -0.8986
56227SOL     OW77648   7.173  12.089   4.248 -0.5715 -0.0819  0.1125
56227SOL    HW177649   7.206  12.122   4.164  0.2746 -0.6480  0.2127
56227SOL    HW277650   7.228  12.131   4.314  1.8579 -3.0274  0.1721
56228SOL     OW77651  12.069   9.291  10.295 -0.4281  0.6510 -0.3354
56228SOL    HW177652  12.030   9.291  10.383  0.8239 -2.1553  0.3295
56228SOL    HW277653  12.156   9.328  10.307  0.0177 -0.3954 -0.1921
56229SOL     OW77654   2.827   5.730  11.320 -0.0238 -0.0597 -0.4941
56229SOL    HW177655   2.871   5.647  11.305  1.1463  0.4233  0.1054
56229SOL    HW277656   2.835   5.777  11.236 -1.7408 -0.9797 -1.2202
56230SOL     OW77657   6.364   2.157   1.795 -0.2386  0.2304 -0.2943
56230SOL    HW177658   6.390   2.148   1.887  0.5639  1.7567 -0.3248
56230SOL    HW277659   6.329   2.072   1.771 -0.8654 -0.0819  1.5514
56231SOL     OW77660   5.282  12.049  11.415 -0.2338 -0.3943 -0.7303
56231SOL    HW177661   5.261  11.972  11.468  1.1496 -2.2931 -2.7808
56231SOL    HW277662   5.203  12.064  11.363 -0.9553  0.4081  0.5253
56232SOL     OW77663   7.188   8.779   3.060 -0.2200  0.0053  0.1859
56232SOL    HW177664   7.245   8.821   3.125 -0.1639  0.7125 -0.3087
56232SOL    HW277665   7.099   8.802   3.087 -0.2537 -0.5935  0.6111
56233SOL     OW77666   0.030  11.731   3.196  0.6454 -0.6412  0.3367
56233SOL    HW177667   0.048  11.637   3.182  0.2888 -1.0672  2.4800
56233SOL    HW277668   0.115  11.773   3.182  0.9249 -1.3254 -0.1472
56234SOL     OW77669   5.389   4.760   8.049  1.0448 -0.1312  0.0035
56234SOL    HW177670   5.377   4.849   8.016  1.1708 -0.5431 -1.2275
56234SOL    HW277671   5.452   4.720   7.988 -2.1028 -2.3414 -2.1381
56235SOL     OW77672   6.189   3.530   4.431 -0.3451 -0.0011 -0.1976
56235SOL    HW177673   6.163   3.498   4.517 -0.0249  1.8624  0.6566
56235SOL    HW277674   6.216   3.621   4.447  0.7253  0.0584 -2.0931
56236SOL     OW77675   4.404  10.548   5.594  0.1471 -0.1295 -0.4942
56236SOL    HW177676   4.477  10.562   5.533 -0.4811  1.1055 -0.9916
56236SOL    HW277677   4.327  10.544   5.538 -0.1472 -1.8336 -0.0072
56237SOL     OW77678  12.555   0.332   0.831 -0.2362 -0.5311  0.9044
56237SOL    HW177679  12.585   0.259   0.777 -1.1054  0.8065 -1.5619
56237SOL    HW277680  12.526   0.292   0.913  0.6229 -2.7386  0.1951
56238SOL     OW77681   9.350   8.145   1.665 -0.9390  0.5938  0.1956
56238SOL    HW177682   9.391   8.150   1.579 -0.7619 -0.3717  0.2138
56238SOL    HW277683   9.414   8.099   1.720 -1.5981  0.0117  0.4988
56239SOL     OW77684   7.081   9.774   5.415 -0.0722  1.2015 -0.4764
56239SOL    HW177685   7.143   9.825   5.362  0.6760  0.1213 -0.6811
56239SOL    HW277686   7.059   9.699   5.360  0.1979  0.4046  0.4728
56240SOL     OW77687   1.286   2.009   4.962 -0.3054 -0.6874  0.3837
56240SOL    HW177688   1.201   1.969   4.944 -0.5488  0.2856 -0.7625
56240SOL    HW277689   1.348   1.962   4.907 -0.1732 -1.0861  0.8672
56241SOL     OW77690   0.805   9.221   1.113  0.0889 -0.4828  0.3883
56241SOL    HW177691   0.775   9.271   1.037 -0.2153  0.5517  1.1684
56241SOL    HW277692   0.862   9.153   1.076 -0.2813 -0.1751 -0.7812
56242SOL     OW77693   1.751   9.002   9.253  0.2446 -0.0159  0.3993
56242SOL    HW177694   1.803   9.079   9.228  1.4201 -0.6956  0.7038
56242SOL    HW277695   1.710   9.027   9.335  0.5794  0.3137  0.4706
56243SOL     OW77696   4.162   4.852   0.245  0.4001 -0.6794 -0.0635
56243SOL    HW177697   4.119   4.767   0.250 -0.3057 -0.2782  1.3350
56243SOL    HW277698   4.252   4.833   0.220  0.3631 -1.8732  0.6745
56244SOL     OW77699   8.031   0.947   9.228 -0.1547  0.1026  0.0140
56244SOL    HW177700   8.052   1.039   9.242 -0.2525 -0.0568  1.3403
56244SOL    HW277701   8.040   0.907   9.314  0.7736 -1.3236 -0.7012
56245SOL     OW77702   8.557   8.830   4.714  0.4385 -0.2863 -0.8303
56245SOL    HW177703   8.582   8.794   4.629  0.2957 -0.7791 -0.6654
56245SOL    HW277704   8.567   8.925   4.704 -0.7265 -0.2396 -1.7809
56246SOL     OW77705   0.579   7.356  11.232  0.2653  0.5637  0.3456
56246SOL    HW177706   0.631   7.306  11.169 -1.6559  1.4467 -2.1082
56246SOL    HW277707   0.580   7.303  11.311  2.1985 -0.9834 -0.6086
56247SOL     OW77708   3.394   0.588   1.582 -1.1066  0.1046 -0.7811
56247SOL    HW177709   3.419   0.621   1.668 -0.9053  0.5879 -1.0184
56247SOL    HW277710   3.299   0.599   1.578 -0.9715  1.3241 -1.1179
56248SOL     OW77711  11.142  12.012   3.020 -0.6263 -0.2706  0.2123
56248SOL    HW177712  11.124  11.925   3.056 -0.1346 -0.4614  0.0087
56248SOL    HW277713  11.219  11.999   2.963 -0.8940  0.1832 -0.2632
56249SOL     OW77714   9.760   6.454   6.720  0.5271 -0.0642 -0.6867
56249SOL    HW177715   9.760   6.360   6.738  2.1255  0.1778  0.9435
56249SOL    HW277716   9.833   6.466   6.659  1.0325  0.2052 -0.0510
56250SOL     OW77717   6.290   1.853   6.205 -0.0215 -0.2515  0.0331
56250SOL    HW177718   6.293   1.779   6.265 -0.9892 -1.3986 -1.2885
56250SOL    HW277719   6.257   1.926   6.258  0.9982 -0.7304  1.3574
56251SOL     OW77720   1.583   1.169   8.282  0.0318 -0.2446  0.8776
56251SOL    HW177721   1.664   1.150   8.329  0.0588  0.3586  1.0799
56251SOL    HW277722   1.597   1.256   8.243 -0.3779 -0.2922  0.6107
56252SOL     OW77723   4.098   9.575   2.278  0.0171 -0.0444 -0.8865
56252SOL    HW177724   4.039   9.650   2.274  0.3694  0.2118 -1.4261
56252SOL    HW277725   4.062   9.513   2.215 -0.1739 -0.2575 -0.5695
56253SOL     OW77726   8.356   5.822  11.671  0.0494  1.0221 -0.0326
56253SOL    HW177727   8.391   5.747  11.719 -0.9621  1.7338  1.9382
56253SOL    HW277728   8.264   5.800  11.657  0.1456  1.1728 -0.9970
56254SOL     OW77729   7.289   7.963   2.341 -0.6963 -0.2864 -0.3064
56254SOL    HW177730   7.293   8.019   2.418  2.6286 -1.8791  0.8562
56254SOL    HW277731   7.213   7.906   2.356 -1.4509  0.9229  0.6378
56255SOL     OW77732   4.861   5.044   3.655 -0.1548 -0.0220  0.1478
56255SOL    HW177733   4.809   5.075   3.581  0.7965 -1.4756 -1.1849
56255SOL    HW277734   4.833   4.954   3.669  0.8747 -0.3155  0.4278
56256SOL     OW77735   2.423  11.853   4.301  0.1095  0.0803 -0.3420
56256SOL    HW177736   2.512  11.858   4.267  0.1931  1.5940  0.0413
56256SOL    HW277737   2.374  11.918   4.250 -0.6473 -0.3543 -0.1808
56257SOL     OW77738  12.417  10.428   2.903  0.2356 -0.0010 -0.3215
56257SOL    HW177739  12.363  10.398   2.830  0.4741  3.8858 -2.3038
56257SOL    HW277740  12.507  10.424   2.870  0.5322  0.0581  0.4569
56258SOL     OW77741   3.558   7.356  12.340  0.0143  0.1973  0.3164
56258SOL    HW177742   3.623   7.414  12.301 -0.9936  1.3408  0.2830
56258SOL    HW277743   3.474   7.397  12.320 -0.6590 -0.5436  1.5095
56259SOL     OW77744   5.261   1.373   6.005  0.8356 -0.2219  0.1114
56259SOL    HW177745   5.206   1.411   5.937  0.9126  0.4856  0.4361
56259SOL    HW277746   5.348   1.365   5.964  0.7612 -0.2851 -0.0349
56260SOL     OW77747   8.921   6.365  12.304  0.0402 -0.4122  0.0525
56260SOL    HW177748   8.924   6.316  12.387  1.5002 -0.9647 -0.2969
56260SOL    HW277749   8.938   6.456  12.329  1.5598 -0.7260  0.2811
56261SOL     OW77750  10.223   6.626   2.248  0.2981  0.4719 -0.1049
56261SOL    HW177751  10.271   6.706   2.271 -0.2285  1.5363 -2.3468
56261SOL    HW277752  10.131   6.647   2.264  0.2110  0.0861 -0.0885
56262SOL     OW77753   5.419   9.056   1.783 -0.3084  0.2868 -0.0616
56262SOL    HW177754   5.362   9.009   1.722  0.9845 -1.4806  0.0202
56262SOL    HW277755   5.362   9.078   1.857 -1.4925  0.9901 -1.1448
56263SOL     OW77756   9.505  12.087   5.148  0.1961  0.0293 -0.0761
56263SOL    HW177757   9.546  12.038   5.076  1.7621  0.1103  0.7271
56263SOL    HW277758   9.573  12.147   5.178 -0.0355 -0.7857  2.2260
56264SOL     OW77759   1.970  10.818   2.260 -0.2945  0.4280 -0.1557
56264SOL    HW177760   2.054  10.805   2.217  0.0732  1.0924  0.3429
56264SOL    HW277761   1.983  10.895   2.316 -0.9529 -0.0330  0.6517
56265SOL     OW77762   2.362   5.120  10.834  0.0389 -0.0624 -0.6227
56265SOL    HW177763   2.270   5.135  10.813  0.2009  0.5165 -0.9335
56265SOL    HW277764   2.403   5.097  10.750  0.5059  1.3611 -0.8127
56266SOL     OW77765   2.737  10.543   9.837 -0.5600 -0.3999 -0.0250
56266SOL    HW177766   2.787  10.613   9.878 -1.7023  0.6293 -0.3404
56266SOL    HW277767   2.741  10.470   9.899  1.2463 -0.3346 -0.0175
56267SOL     OW77768   8.197   7.932   3.068 -0.0352  0.3265  0.2337
56267SOL    HW177769   8.210   7.864   3.002  0.4409  0.9184 -0.2974
56267SOL    HW277770   8.143   7.890   3.135  0.3785 -0.6298 -0.0001
56268SOL     OW77771   6.759   9.649   3.418 -0.8930  0.3974 -0.1889
56268SOL    HW177772   6.681   9.665   3.470 -0.1311  1.5518  0.6609
56268SOL    HW277773   6.727   9.618   3.334 -2.2431  0.6645  0.2147
56269SOL     OW77774   2.731   0.048  10.237  0.1826 -0.1044  0.2027
56269SOL    HW177775   2.730   0.025  10.330  1.7659  1.3069  0.6164
56269SOL    HW277776   2.695   0.137  10.234  1.2568  0.3197 -0.3781
56270SOL     OW77777  11.170   5.347   7.544 -0.5559  0.4188  0.6969
56270SOL    HW177778  11.249   5.358   7.597 -0.2621 -0.3453  0.4250
56270SOL    HW277779  11.198   5.371   7.455 -0.7442  0.5611  0.6750
56271SOL     OW77780   2.376   3.881  11.994 -0.1929  0.5991  0.1803
56271SOL    HW177781   2.433   3.956  11.979 -0.6435  1.2175  1.3879
56271SOL    HW277782   2.418   3.808  11.948  1.0156  1.2725  0.1867
56272SOL     OW77783   9.324   5.236   8.930 -0.3244  0.4848 -0.8391
56272SOL    HW177784   9.334   5.149   8.967  1.3748  1.2469  0.6020
56272SOL    HW277785   9.299   5.220   8.838  0.9243 -1.5216 -0.8881
56273SOL     OW77786   4.235   8.881   2.097  1.1995 -0.1526 -0.5398
56273SOL    HW177787   4.222   8.968   2.134  0.8449 -0.3036 -0.3043
56273SOL    HW277788   4.237   8.895   2.002 -2.2198 -0.2449 -0.7421
56274SOL     OW77789   7.102   5.021   7.115  0.4863 -0.2423 -0.4397
56274SOL    HW177790   7.151   5.090   7.071  1.7664 -0.5533  0.4346
56274SOL    HW277791   7.142   4.940   7.085  0.1548 -0.5304 -0.1102
56275SOL     OW77792   1.257   9.401  10.140 -0.3150  0.1039  0.6645
56275SOL    HW177793   1.305   9.482  10.158 -1.7826  0.7244  1.9674
56275SOL    HW277794   1.320   9.331  10.159  0.5213  0.9036  0.9077
56276SOL     OW77795   7.702   9.489   5.457  0.1864  0.2663  0.3588
56276SOL    HW177796   7.674   9.549   5.388  0.6865 -0.9780 -0.9845
56276SOL    HW277797   7.625   9.479   5.513 -0.0459  1.7493  0.3396
56277SOL     OW77798   3.511   3.821   2.006  0.3648 -0.3230 -0.1252
56277SOL    HW177799   3.588   3.766   1.989  0.3303  0.1562 -2.0978
56277SOL    HW277800   3.489   3.859   1.920  1.0870  3.6724  1.2162
56278SOL     OW77801   2.978   2.239   4.883  0.5134 -0.4656  0.0159
56278SOL    HW177802   3.036   2.258   4.957 -2.1134 -0.3467  2.2256
56278SOL    HW277803   2.982   2.318   4.829  1.2427  0.1770  0.9666
56279SOL     OW77804   6.652   5.025   4.647  0.3800 -0.2820 -0.2449
56279SOL    HW177805   6.639   5.013   4.741 -1.3024 -2.2353 -0.6580
56279SOL    HW277806   6.706   5.103   4.640 -1.6069  1.4783  2.2500
56280SOL     OW77807   1.080   9.766  11.566  0.0665  0.3388  0.2700
56280SOL    HW177808   1.034   9.746  11.485  1.0220  0.2154 -0.2648
56280SOL    HW277809   1.158   9.710  11.563  1.5080  2.2577 -0.0403
56281SOL     OW77810   9.375   8.321   8.350 -0.0522  0.0907  0.0124
56281SOL    HW177811   9.342   8.385   8.413 -0.7690  1.7367 -1.9376
56281SOL    HW277812   9.301   8.263   8.333 -0.8706  1.5036 -1.5323
56282SOL     OW77813  10.374  12.101   7.004 -0.3190 -0.4783  0.6296
56282SOL    HW177814  10.296  12.147   7.035 -1.2111 -1.0514 -0.7002
56282SOL    HW277815  10.367  12.102   6.909  2.1521  0.8857  0.3762
56283SOL     OW77816   9.795  10.686   7.909 -0.0569 -0.0907  0.1279
56283SOL    HW177817   9.883  10.717   7.931  0.4922 -1.0735 -0.6320
56283SOL    HW277818   9.791  10.597   7.944 -0.2701 -0.5311 -0.9675
56284SOL     OW77819   8.953  10.646   2.473  0.0601  0.1407  0.1595
56284SOL    HW177820   8.869  10.684   2.447 -0.7093 -1.8532 -0.5032
56284SOL    HW277821   8.968  10.575   2.410  1.6552 -0.3185  0.9924
56285SOL     OW77822   7.779  10.935   1.010  0.3369  0.3986 -0.0854
56285SOL    HW177823   7.856  10.974   0.969  1.1961 -2.4468 -1.4574
56285SOL    HW277824   7.816  10.878   1.079 -0.7027  0.5272  0.6022
56286SOL     OW77825   0.221   2.316   9.730  0.0378  0.1909 -0.0116
56286SOL    HW177826   0.171   2.242   9.765 -0.0981  0.7407  0.9643
56286SOL    HW277827   0.281   2.340   9.800  0.0178  1.0715 -0.2905
56287SOL     OW77828   0.467  11.709  11.820 -0.1208 -0.6751  0.4928
56287SOL    HW177829   0.482  11.723  11.726  3.2722  1.7543  1.2077
56287SOL    HW277830   0.405  11.777  11.844  1.6559  1.0732  0.4812
56288SOL     OW77831  11.588  12.369   8.692  0.0514 -0.4028 -0.3099
56288SOL    HW177832  11.576  12.340   8.601  2.1619 -1.2095 -0.3918
56288SOL    HW277833  11.526  12.315   8.742  0.0306 -1.1429 -1.0957
56289SOL     OW77834   7.993   0.115   2.611 -0.3502  0.2360 -0.4085
56289SOL    HW177835   7.977   0.027   2.644 -0.8574  0.6222  0.4091
56289SOL    HW277836   7.922   0.130   2.548  0.1409 -0.1871 -1.0845
56290SOL     OW77837   0.760   1.924  11.242 -0.0578 -0.2801  0.7194
56290SOL    HW177838   0.729   1.833  11.239 -0.4371 -0.1271 -0.2491
56290SOL    HW277839   0.744   1.958  11.154  1.0127  0.4254  0.7839
56291SOL     OW77840   1.301   5.990   8.448  0.2229 -0.5208 -0.2982
56291SOL    HW177841   1.360   5.923   8.482  2.6213  2.5881  2.3207
56291SOL    HW277842   1.267   6.034   8.526 -1.1230  1.3999 -1.8680
56292SOL     OW77843  11.001   4.404  10.176  0.1320 -0.1442 -0.0529
56292SOL    HW177844  10.912   4.389  10.146 -0.0460  0.1410  0.3326
56292SOL    HW277845  11.056   4.375  10.103 -0.2731 -0.3137 -0.2915
56293SOL     OW77846   9.748   5.566   4.102  0.4538 -0.2142  0.6431
56293SOL    HW177847   9.726   5.643   4.154  2.1520 -0.5904  2.0203
56293SOL    HW277848   9.685   5.500   4.131  0.4163  0.0234  1.1316
56294SOL     OW77849  10.179   7.001   0.085 -0.2535  0.2993  0.6170
56294SOL    HW177850  10.122   7.068   0.124  0.1537  0.8898  0.2188
56294SOL    HW277851  10.119   6.935   0.051 -0.6568  0.3940  1.1419
56295SOL     OW77852   0.643  12.591  11.759  0.5691  0.4468  0.1590
56295SOL    HW177853   0.615  12.557  11.844 -0.4068 -0.5152 -0.5212
56295SOL    HW277854   0.682  12.676  11.779 -2.3692  1.6707  1.2747
56296SOL     OW77855  10.042   8.619   4.702  0.3701 -0.1283 -0.0071
56296SOL    HW177856  10.049   8.654   4.613  0.1839 -0.6027 -0.2079
56296SOL    HW277857   9.949   8.601   4.714  0.5024 -0.8792 -0.0331
56297SOL     OW77858   2.110   6.390  11.396 -0.2933 -0.7936  0.2736
56297SOL    HW177859   2.079   6.480  11.408 -1.8600 -1.3509  0.6502
56297SOL    HW277860   2.132   6.384  11.303 -0.4287 -0.0879  0.1912
56298SOL     OW77861   6.049   1.409   5.298 -0.1383  0.1945  0.1042
56298SOL    HW177862   6.000   1.463   5.359 -1.6741  0.4737 -1.2968
56298SOL    HW277863   6.139   1.439   5.306 -0.2201  0.0023  2.4081
56299SOL     OW77864  11.754   2.823   0.544  0.2431  0.2120 -0.0752
56299SOL    HW177865  11.697   2.758   0.502 -1.0473  1.4135 -0.2656
56299SOL    HW277866  11.759   2.795   0.636  0.2233 -0.5058 -0.2911
56300SOL     OW77867  12.586  10.436   2.537  0.6610  0.0121 -0.3440
56300SOL    HW177868  12.553  10.523   2.518 -3.3489 -1.5605 -1.6669
56300SOL    HW277869  12.649  10.418   2.466  1.6575  1.7789  0.0421
56301SOL     OW77870  10.958   5.397   5.797 -0.1943  0.1290 -0.0221
56301SOL    HW177871  11.009   5.341   5.856 -0.5480  1.6541  1.8127
56301SOL    HW277872  10.960   5.351   5.713 -0.1267 -2.4324  1.2797
56302SOL     OW77873   5.605  11.733   6.528 -0.7043  0.2551  0.5876
56302SOL    HW177874   5.557  11.738   6.446 -1.3242  0.7506  0.9754
56302SOL    HW277875   5.688  11.777   6.510 -0.9633  0.6358  0.3128
56303SOL     OW77876   3.641  10.074   2.481  0.5539  0.1251  0.2086
56303SOL    HW177877   3.633  10.106   2.571 -0.7959 -2.4748  1.0946
56303SOL    HW277878   3.724  10.027   2.479  1.5598  1.8235 -0.5383
56304SOL     OW77879   2.200   0.429   9.029  0.1266  0.8132  0.7039
56304SOL    HW177880   2.287   0.418   9.068 -0.2074 -0.1932  1.1836
56304SOL    HW277881   2.173   0.341   9.004 -0.7358  1.1243  0.4940
56305SOL     OW77882   2.463   7.410  11.944 -0.1001  0.0906  0.4738
56305SOL    HW177883   2.501   7.497  11.931 -1.3031  0.4514 -0.9131
56305SOL    HW277884   2.384   7.426  11.997 -0.5361 -0.0742 -0.1092
56306SOL     OW77885   7.758   6.560  11.846 -0.0227  0.0983  0.0767
56306SOL    HW177886   7.667   6.590  11.842 -0.4839 -1.0845  1.1048
56306SOL    HW277887   7.759   6.495  11.915  1.1750 -1.4099 -1.2725
56307SOL     OW77888   5.837   8.053   5.438 -0.5099  0.2067 -0.2153
56307SOL    HW177889   5.791   8.085   5.515 -0.4511  1.0638 -0.5222
56307SOL    HW277890   5.894   8.125   5.412  0.2265 -0.4457 -0.4670
56308SOL     OW77891  11.915   4.461  10.469 -0.1330  0.0818 -0.6382
56308SOL    HW177892  11.980   4.527  10.444  1.4957 -0.6360  1.4304
56308SOL    HW277893  11.960   4.378  10.457 -1.5439 -0.5900 -1.4540
56309SOL     OW77894   3.391   1.997   1.349 -0.2182  0.2684 -0.6314
56309SOL    HW177895   3.325   1.973   1.414 -0.7986  1.3497 -0.7892
56309SOL    HW277896   3.401   2.092   1.359  0.6006  0.2670 -1.2840
56310SOL     OW77897   6.213   0.756   1.241  0.4401  0.3297  0.4690
56310SOL    HW177898   6.182   0.732   1.153  1.2905  0.1169  0.2232
56310SOL    HW277899   6.147   0.719   1.300 -1.1046  1.9801 -0.1233
56311SOL     OW77900  10.467   2.575   5.674  0.3771 -0.2176  0.5786
56311SOL    HW177901  10.428   2.658   5.645  1.1170 -0.4393 -1.2502
56311SOL    HW277902  10.498   2.593   5.763  2.5074  2.2533 -0.5049
56312SOL     OW77903   7.733   5.517   8.965 -0.0186  0.0830 -0.1527
56312SOL    HW177904   7.705   5.511   9.056 -0.0211  1.3988 -0.0395
56312SOL    HW277905   7.813   5.464   8.960 -0.1359 -0.1678  0.5556
56313SOL     OW77906   8.806  12.261   1.891  0.2324  0.0697  0.2033
56313SOL    HW177907   8.719  12.300   1.893 -0.0876 -0.6274 -0.0257
56313SOL    HW277908   8.852  12.300   1.966 -1.2624 -1.8741  2.2450
56314SOL     OW77909   5.768   0.604   6.122 -0.0891 -0.1629  0.5633
56314SOL    HW177910   5.836   0.539   6.137 -0.2773 -0.0101  2.2165
56314SOL    HW277911   5.716   0.568   6.050  0.9971 -0.8646  0.1127
56315SOL     OW77912   9.342  10.851   3.854  0.0183  0.2214 -0.1296
56315SOL    HW177913   9.259  10.804   3.847  0.9293 -1.9061  2.0467
56315SOL    HW277914   9.319  10.931   3.902 -0.7911 -0.3647  0.4950
56316SOL     OW77915   4.582   1.970  11.301 -0.6897 -0.2400  0.9489
56316SOL    HW177916   4.635   1.892  11.281  0.1908  1.2134 -3.5905
56316SOL    HW277917   4.499   1.955  11.256 -1.1399  0.7797  1.4056
56317SOL     OW77918   5.538   7.995   2.832 -0.3727 -0.0605  0.0866
56317SOL    HW177919   5.480   7.920   2.842 -0.7683  0.5253  3.1474
56317SOL    HW277920   5.484   8.070   2.858  0.4163  1.1563 -1.6055
56318SOL     OW77921   8.983   3.506   5.245  0.1192  0.4714 -0.5435
56318SOL    HW177922   9.004   3.593   5.279 -1.6192  0.9176 -0.5284
56318SOL    HW277923   8.888   3.498   5.255  0.2454 -1.4680 -0.4717
56319SOL     OW77924   3.221   0.968   0.521 -0.3371 -0.2951 -0.2855
56319SOL    HW177925   3.172   0.904   0.469 -1.6597 -0.9549  1.6687
56319SOL    HW277926   3.175   0.972   0.605  2.3050 -0.0805  1.2725
56320SOL     OW77927   6.835   8.815   2.884  0.0602 -0.1608 -0.3014
56320SOL    HW177928   6.835   8.831   2.789 -1.6993 -0.4991 -0.3849
56320SOL    HW277929   6.842   8.902   2.923  1.8871 -0.0853 -0.7029
56321SOL     OW77930   3.411  11.746   7.701  0.5927  0.1332  0.1558
56321SOL    HW177931   3.389  11.825   7.750 -0.0740  0.2308 -0.2857
56321SOL    HW277932   3.329  11.697   7.696  0.8628 -0.2998 -0.0871
56322SOL     OW77933   1.094   4.485  11.900 -0.0054 -0.4014  0.2341
56322SOL    HW177934   1.048   4.485  11.984  0.8284  1.0529  0.7320
56322SOL    HW277935   1.164   4.420  11.911 -1.0912 -1.6858 -0.0845
56323SOL     OW77936   8.137   3.363   3.067  0.2734  0.1679 -0.6106
56323SOL    HW177937   8.128   3.293   3.131  0.8761  0.3284 -0.3425
56323SOL    HW277938   8.092   3.438   3.107  0.3007  0.1527 -0.5508
56324SOL     OW77939   5.121  11.965   2.896 -0.3992 -0.1093 -0.2596
56324SOL    HW177940   5.194  11.979   2.836  0.2562  1.0141  0.7447
56324SOL    HW277941   5.114  11.870   2.904  0.0476 -0.2579 -1.4306
56325SOL     OW77942  11.808  11.651   3.137  0.0933  0.1705 -0.1037
56325SOL    HW177943  11.728  11.670   3.184  0.5464  0.9840  0.3579
56325SOL    HW277944  11.792  11.680   3.047 -1.3181 -2.7439 -0.9366
56326SOL     OW77945   7.480   9.127   4.510 -0.1602  0.8347 -0.1252
56326SOL    HW177946   7.480   9.221   4.529 -2.1585  0.7981  0.3152
56326SOL    HW277947   7.406   9.093   4.561  0.3201 -0.9209 -0.5480
56327SOL     OW77948   3.263   1.308   1.365 -0.0008 -0.2683  0.0374
56327SOL    HW177949   3.173   1.305   1.332  0.3623  2.4716 -1.4777
56327SOL    HW277950   3.316   1.271   1.294  0.3107  0.9089 -0.3647
56328SOL     OW77951   8.419   3.770   4.289 -0.2146  0.1397 -0.8796
56328SOL    HW177952   8.370   3.787   4.208  0.7239  0.1573 -1.4582
56328SOL    HW277953   8.509   3.794   4.268 -0.3542  2.6514  0.9616
56329SOL     OW77954   9.157  10.049  10.368  0.0619  0.2990  0.6413
56329SOL    HW177955   9.229  10.109  10.382  2.3852 -2.1143 -0.0727
56329SOL    HW277956   9.147  10.003  10.452  0.1135 -0.1363  0.4128
56330SOL     OW77957  10.588   9.820   3.527 -0.0467 -0.0041 -0.1696
56330SOL    HW177958  10.553   9.902   3.493 -0.3105  0.5990  1.4714
56330SOL    HW277959  10.682   9.836   3.538 -0.3929  0.8153  2.0299
56331SOL     OW77960   4.784   3.523   7.734  0.5899 -0.2968 -0.2189
56331SOL    HW177961   4.840   3.452   7.704  1.9975  0.7937 -0.2623
56331SOL    HW277962   4.798   3.525   7.829  0.4595 -0.1575 -0.2031
56332SOL     OW77963  11.444   9.749  10.483 -0.0486 -0.7128 -0.9455
56332SOL    HW177964  11.503   9.823  10.476  0.6574 -1.3136 -1.6132
56332SOL    HW277965  11.456   9.701  10.401 -2.2580 -0.2828 -1.5843
56333SOL     OW77966  12.323   4.543   9.807 -0.1501  0.6460  0.2976
56333SOL    HW177967  12.394   4.496   9.763  0.9866  1.5773  1.0650
56333SOL    HW277968  12.341   4.635   9.790 -1.3029  0.8908  0.3474
56334SOL     OW77969  11.366   5.403   0.544  0.7180 -0.2066 -0.4353
56334SOL    HW177970  11.273   5.381   0.545  0.7137 -0.1743  0.0541
56334SOL    HW277971  11.386   5.419   0.452  0.3345 -0.6151 -0.5929
56335SOL     OW77972   0.449  10.787   2.723 -0.4015 -0.2821 -0.0994
56335SOL    HW177973   0.411  10.714   2.675 -1.9943 -0.5902  1.5170
56335SOL    HW277974   0.472  10.750   2.808  1.1961  0.5266 -0.1467
56336SOL     OW77975   9.976   3.239   0.127 -0.8378 -0.1562  0.6412
56336SOL    HW177976  10.020   3.273   0.205  0.3024  1.4826 -0.6590
56336SOL    HW277977   9.906   3.301   0.109  0.1207  0.5958 -0.7125
56337SOL     OW77978   3.115   2.748   2.467 -0.2115  0.7718 -0.2116
56337SOL    HW177979   3.067   2.824   2.499 -0.2933  0.6697 -0.0892
56337SOL    HW277980   3.078   2.729   2.381 -0.8090  0.3269  0.1323
56338SOL     OW77981   4.522  11.617   3.758 -0.2743  0.0287  0.4470
56338SOL    HW177982   4.496  11.601   3.668 -0.3903 -2.5165  0.8793
56338SOL    HW277983   4.616  11.600   3.760  0.1618  2.1401  0.4231
56339SOL     OW77984   6.157  11.192   8.340  0.5233 -0.8109 -0.3957
56339SOL    HW177985   6.117  11.154   8.262 -0.4604 -1.2941  0.3156
56339SOL    HW277986   6.083  11.215   8.396  1.0415  2.4252 -0.8598
56340SOL     OW77987   5.915   7.616   5.059  0.0430 -0.1657  0.2770
56340SOL    HW177988   6.010   7.617   5.054  0.0271  1.4073 -0.3188
56340SOL    HW277989   5.887   7.571   4.979  0.2760 -1.7257  1.0384
56341SOL     OW77990   2.233   0.463   2.012  0.2928 -0.4642 -0.1438
56341SOL    HW177991   2.279   0.508   2.082  1.1366 -2.4482  0.6601
56341SOL    HW277992   2.294   0.463   1.938  1.4037 -2.4864  0.6987
56342SOL     OW77993  12.187   3.888   6.256  0.0232 -0.4610 -0.3893
56342SOL    HW177994  12.271   3.933   6.250 -0.3690  0.1885 -1.4556
56342SOL    HW277995  12.135   3.942   6.316 -0.0509 -0.1213 -0.7477
56343SOL     OW77996   6.979   0.851   2.976 -0.3946  0.2990 -0.3471
56343SOL    HW177997   7.002   0.811   2.893  1.6555  1.5977 -0.4903
56343SOL    HW277998   6.901   0.805   3.005  0.5410 -2.2129 -1.5375
56344SOL     OW77999   9.620   9.981   7.700  0.2611  0.1853  0.2621
56344SOL    HW178000   9.689  10.034   7.742 -1.2344  1.8093  0.7790
56344SOL    HW278001   9.584  10.038   7.632  0.4714 -1.2411 -1.1044
56345SOL     OW78002   2.103   6.003   7.205  0.1435  0.3061  0.3141
56345SOL    HW178003   2.168   5.935   7.225 -2.4202 -1.8680  1.8367
56345SOL    HW278004   2.134   6.079   7.254  2.4426 -0.0330 -0.4493
56346SOL     OW78005   1.229  10.917  10.614 -0.6475 -0.8387  0.0037
56346SOL    HW178006   1.212  10.827  10.588  1.8101 -1.1373 -0.8469
56346SOL    HW278007   1.318  10.935  10.583 -0.2124  1.1612  2.0956
56347SOL     OW78008  10.837   0.059   9.762  0.0762 -0.3347  0.1788
56347SOL    HW178009  10.842   0.129   9.697 -2.5654 -0.5297 -0.3321
56347SOL    HW278010  10.864   0.101   9.844  0.8785  0.6093 -0.5355
56348SOL     OW78011  11.271   7.360   0.487 -0.2659  0.4585 -0.2501
56348SOL    HW178012  11.181   7.328   0.488 -0.3675  0.7368  1.1378
56348SOL    HW278013  11.321   7.289   0.446 -1.0634  0.1879 -0.7795
56349SOL     OW78014   8.775   8.890  10.246 -0.2288  0.0263 -0.0964
56349SOL    HW178015   8.857   8.873  10.291 -0.7754 -0.6363  0.6672
56349SOL    HW278016   8.755   8.809  10.199 -0.2342  0.3294 -0.6288
56350SOL     OW78017  11.953  11.242   0.407 -0.8356  0.1706  0.0702
56350SOL    HW178018  11.909  11.266   0.326  0.0984  1.0786 -0.1878
56350SOL    HW278019  12.026  11.303   0.414  0.8290 -1.7166  0.1041
56351SOL     OW78020   1.835   5.552   9.302 -0.4682  0.1871 -0.2889
56351SOL    HW178021   1.745   5.578   9.322 -0.9365  0.1590 -2.1832
56351SOL    HW278022   1.840   5.556   9.207  1.8039  1.0452 -0.1818
56352SOL     OW78023   8.056   3.324   3.725  0.6884  0.5648  0.4017
56352SOL    HW178024   8.107   3.243   3.720  1.1640  0.7401  1.8725
56352SOL    HW278025   7.972   3.302   3.686  1.6069  0.0502 -1.3785
56353SOL     OW78026   1.598   9.901   1.839 -0.0742 -0.0110  0.4599
56353SOL    HW178027   1.516   9.864   1.874 -0.0265  0.2014  0.7962
56353SOL    HW278028   1.609   9.857   1.755  0.0776 -0.9148  0.9367
56354SOL     OW78029  12.376   4.144  11.442  0.2093 -0.3384 -0.0038
56354SOL    HW178030  12.332   4.126  11.525 -0.4287 -0.7885 -0.4336
56354SOL    HW278031  12.424   4.226  11.457  0.1005 -0.4199  0.8056
56355SOL     OW78032   1.183   7.493  10.215 -0.0710  0.0340 -0.2809
56355SOL    HW178033   1.142   7.580  10.213  0.3987  0.3204 -3.8937
56355SOL    HW278034   1.112   7.433  10.190  0.4554 -0.0835 -1.5817
56356SOL     OW78035   8.015   3.430   1.841 -0.0070  0.3904  0.4563
56356SOL    HW178036   8.039   3.427   1.748  1.8358  0.3237  0.9089
56356SOL    HW278037   7.921   3.412   1.841  0.2778 -1.5598 -1.2710
56357SOL     OW78038   2.924   1.337   0.434  0.2215 -0.1671  0.2197
56357SOL    HW178039   3.009   1.293   0.425 -0.3479 -1.7725  2.0088
56357SOL    HW278040   2.861   1.265   0.439 -0.8269  0.8221  2.6646
56358SOL     OW78041   6.161   6.087  11.039  0.6999 -0.0185  0.3178
56358SOL    HW178042   6.088   6.111  10.983 -1.5585 -0.9108  2.6619
56358SOL    HW278043   6.220   6.038  10.983 -0.4494  0.7925 -1.6867
56359SOL     OW78044  11.651   6.202   5.263 -0.7178 -0.2363  0.0701
56359SOL    HW178045  11.601   6.134   5.310 -0.2079 -0.1107  0.8073
56359SOL    HW278046  11.584   6.263   5.232 -1.0422 -0.1263  0.9530
56360SOL     OW78047   6.927   6.732  12.155  0.5829  0.4960 -0.0433
56360SOL    HW178048   6.926   6.650  12.106 -0.1079  0.2727  0.3298
56360SOL    HW278049   6.868   6.790  12.106 -0.1867  0.2397  0.5646
56361SOL     OW78050   2.309  10.270  10.050  0.1114  0.5758  0.1560
56361SOL    HW178051   2.215  10.270  10.033  0.1360  1.0317  0.0062
56361SOL    HW278052   2.317  10.256  10.144 -0.1010  0.4789  0.1599
56362SOL     OW78053   3.949   6.655   1.184  0.0235 -0.6857  0.0599
56362SOL    HW178054   3.911   6.598   1.250 -1.2231  0.7067  0.6215
56362SOL    HW278055   3.916   6.743   1.207 -1.5867 -0.3024 -3.1376
56363SOL     OW78056   5.199   8.755   4.997 -0.2846 -0.1557  0.2313
56363SOL    HW178057   5.193   8.710   4.913 -0.4308 -1.7623  1.0673
56363SOL    HW278058   5.255   8.830   4.980 -0.7020 -0.1762 -1.4019
56364SOL     OW78059   6.797   2.527   7.454  0.5932 -0.2197  0.2738
56364SOL    HW178060   6.757   2.444   7.431  0.9319 -0.5477  0.8267
56364SOL    HW278061   6.852   2.507   7.530 -0.3470  0.7701  1.2596
56365SOL     OW78062  10.517   2.767   7.554  0.3357 -0.0663  0.1377
56365SOL    HW178063  10.500   2.674   7.567 -1.6734  0.0655 -1.0222
56365SOL    HW278064  10.576   2.770   7.478 -2.6029 -0.4295 -2.3851
56366SOL     OW78065   6.587   4.304  11.332  0.0787 -0.3590  0.1014
56366SOL    HW178066   6.506   4.254  11.338  0.1060 -0.3174  0.8687
56366SOL    HW278067   6.596   4.347  11.417 -0.7769  2.2710 -1.0396
56367SOL     OW78068  11.321   2.232  10.394  0.2756  0.3965 -0.4790
56367SOL    HW178069  11.261   2.297  10.430  0.6490  1.8927 -2.3597
56367SOL    HW278070  11.399   2.238  10.449 -0.1821  0.5979  0.1582
56368SOL     OW78071  12.285   9.879   3.086 -0.2819 -0.2574 -0.1344
56368SOL    HW178072  12.295   9.967   3.122 -0.5568 -1.3266  2.8479
56368SOL    HW278073  12.366   9.862   3.038 -0.5178  1.8268 -1.3566
56369SOL     OW78074  11.162  12.464   3.433  0.1547  0.3582 -0.5737
56369SOL    HW178075  11.184  12.517   3.509 -1.4967  0.9211 -0.4538
56369SOL    HW278076  11.148  12.376   3.468  2.8085 -0.2145 -0.7610
56370SOL     OW78077   0.626   4.055   5.551 -0.0895  0.0847  0.4894
56370SOL    HW178078   0.650   4.009   5.632 -0.4793  0.8992  1.0828
56370SOL    HW278079   0.530   4.057   5.552 -0.1154 -0.5284 -0.3579
56371SOL     OW78080   2.428   5.201  12.270  0.2116  0.2860  0.4475
56371SOL    HW178081   2.415   5.290  12.237  0.9474  0.2159 -0.0632
56371SOL    HW278082   2.350   5.182  12.321 -0.5453  0.7424 -0.5228
56372SOL     OW78083   7.898   3.019   3.203 -0.5892 -0.1983 -0.0069
56372SOL    HW178084   7.899   2.934   3.246  0.4640 -0.0470  0.2856
56372SOL    HW278085   7.879   3.000   3.111  0.8977 -0.8660 -0.1946
56373SOL     OW78086  12.033   7.982  10.995  0.0728  0.9750 -0.2634
56373SOL    HW178087  12.087   8.013  10.922  1.3141  0.3446  0.3669
56373SOL    HW278088  11.951   8.030  10.985  0.3918  1.2708 -1.7866
56374SOL     OW78089   8.626   6.740   0.082  0.1419 -0.3385 -0.2882
56374SOL    HW178090   8.614   6.646   0.069  0.5094 -0.2841 -1.1294
56374SOL    HW278091   8.572   6.780   0.013 -0.6166  0.0990  0.5334
56375SOL     OW78092   7.627  10.326  11.228 -0.0145  0.7176 -0.0211
56375SOL    HW178093   7.599  10.235  11.220  1.4496  0.3845 -1.9427
56375SOL    HW278094   7.636  10.340  11.322 -1.8982 -0.5712  0.4109
56376SOL     OW78095   1.555   7.231   5.553  0.3739  0.4030 -0.1832
56376SOL    HW178096   1.610   7.293   5.601 -0.5922  2.5430 -1.6845
56376SOL    HW278097   1.505   7.186   5.621  3.5682 -1.3711  1.2103
56377SOL     OW78098   2.488   7.837  10.271 -0.2224  0.3968 -0.2953
56377SOL    HW178099   2.442   7.818  10.189  2.5248 -0.6591 -1.7051
56377SOL    HW278100   2.493   7.933  10.273 -1.7918  0.5188 -0.4303
56378SOL     OW78101   7.128   2.965  10.786 -0.4028  0.6415 -0.0435
56378SOL    HW178102   7.193   3.034  10.770 -0.5803  0.7116 -0.4814
56378SOL    HW278103   7.150   2.897  10.722 -1.3425  1.0732 -0.8411
56379SOL     OW78104   0.660   7.212  11.494 -0.0681  0.1758  0.0768
56379SOL    HW178105   0.626   7.124  11.476 -0.4800  0.3750 -0.1388
56379SOL    HW278106   0.620   7.236  11.578 -2.4479  1.3610 -1.2688
56380SOL     OW78107  10.562   3.409   2.458 -0.2551 -0.2106  0.0895
56380SOL    HW178108  10.656   3.392   2.451  0.0362  0.7673  1.3080
56380SOL    HW278109  10.530   3.342   2.519 -0.6433 -1.4198 -1.3723
56381SOL     OW78110   2.113   5.293   6.083 -0.1862 -0.0374  0.7613
56381SOL    HW178111   2.160   5.375   6.095 -1.1714  0.7716 -0.5589
56381SOL    HW278112   2.160   5.248   6.013 -0.2292 -0.1226  0.7870
56382SOL     OW78113  10.051   2.605   4.407  0.0890 -0.3652 -0.6855
56382SOL    HW178114  10.118   2.606   4.476  0.0923  0.7591 -0.6854
56382SOL    HW278115  10.099   2.579   4.328  0.6873  1.0440 -0.8134
56383SOL     OW78116  11.868   1.646   6.890 -0.2725 -0.2558 -0.0803
56383SOL    HW178117  11.786   1.687   6.917  0.3372  0.1517  1.1832
56383SOL    HW278118  11.867   1.653   6.794 -2.4192 -1.6282 -0.2271
56384SOL     OW78119   1.137   0.831  11.026  0.2405  0.4191  0.3442
56384SOL    HW178120   1.078   0.773  10.978  1.3001 -0.8618  0.5128
56384SOL    HW278121   1.164   0.896  10.962  1.4480 -1.1262 -0.8141
56385SOL     OW78122   3.761   1.003   3.875  0.6364  0.0452 -0.2877
56385SOL    HW178123   3.762   0.907   3.879  2.0151 -0.0399 -1.6009
56385SOL    HW278124   3.695   1.023   3.809 -0.6198  0.0792  0.9556
56386SOL     OW78125   9.451   2.754   5.653  0.0951  0.0925 -0.1676
56386SOL    HW178126   9.538   2.742   5.692  0.3758 -0.6125 -0.9811
56386SOL    HW278127   9.391   2.740   5.726  0.6468 -0.0407  0.2763
56387SOL     OW78128   4.625   0.313   9.994  0.0885  0.4425 -0.1348
56387SOL    HW178129   4.624   0.262   9.912  0.7795 -1.0652  0.7547
56387SOL    HW278130   4.644   0.249  10.062  3.1042  2.1813  0.8423
56388SOL     OW78131   3.462   1.603   6.254  0.3908 -0.3929  0.2437
56388SOL    HW178132   3.471   1.683   6.305  0.0918 -0.9451  1.1856
56388SOL    HW278133   3.438   1.633   6.166 -1.1376  0.4915  0.9288
56389SOL     OW78134   0.709   6.701   8.268  0.0410 -0.1310  0.2257
56389SOL    HW178135   0.632   6.684   8.212 -0.9631  1.2914  1.0963
56389SOL    HW278136   0.672   6.740   8.347  1.7637  1.8222  0.1325
56390SOL     OW78137   6.155   9.411   6.539  0.4822 -0.0081  0.2352
56390SOL    HW178138   6.180   9.321   6.517  1.0731  0.1513  0.2445
56390SOL    HW278139   6.113   9.444   6.459  0.8284 -0.0881  0.0168
56391SOL     OW78140   2.930   3.578   1.938  0.4519  0.2590 -0.3909
56391SOL    HW178141   2.955   3.544   1.852 -0.2505 -2.1861  0.2861
56391SOL    HW278142   2.957   3.510   2.000 -0.7914  1.0627  1.1226
56392SOL     OW78143   9.910  11.606   7.251  0.3638 -0.5126 -0.2278
56392SOL    HW178144   9.922  11.574   7.161 -1.1219 -1.6637 -0.0470
56392SOL    HW278145   9.980  11.563   7.301 -1.1863 -3.0872 -0.1171
56393SOL     OW78146   9.337   8.936   1.346 -0.0790 -0.2433 -0.2956
56393SOL    HW178147   9.359   8.871   1.413  0.9296  0.0579 -0.3271
56393SOL    HW278148   9.405   9.002   1.353 -0.2005  0.0123 -1.3379
56394SOL     OW78149   4.275  10.769   8.140  0.1110  0.0943  0.5378
56394SOL    HW178150   4.194  10.818   8.153  0.5629  0.9440  0.2629
56394SOL    HW278151   4.317  10.769   8.226 -0.7318 -1.4090  0.9844
56395SOL     OW78152   3.982  10.749  10.355  0.2176  0.0276 -0.9176
56395SOL    HW178153   4.064  10.744  10.305 -0.3124 -0.9187 -1.7359
56395SOL    HW278154   3.986  10.674  10.415 -0.1034 -0.0894 -1.0433
56396SOL     OW78155   3.201  10.914   4.903  0.5548 -0.4293 -0.3095
56396SOL    HW178156   3.225  10.833   4.948  1.1389  0.6535  1.4421
56396SOL    HW278157   3.105  10.915   4.904  0.5517 -0.8745  0.1174
56397SOL     OW78158  11.910  11.545   7.421 -0.0392 -0.6262  0.0634
56397SOL    HW178159  11.880  11.519   7.334  2.9458 -0.7765 -1.0560
56397SOL    HW278160  11.917  11.640   7.416  0.1250 -0.6347  0.1291
56398SOL     OW78161   7.025   6.553   9.549 -0.5241  0.3051  0.0768
56398SOL    HW178162   7.050   6.546   9.457 -0.3714  0.5542  0.0993
56398SOL    HW278163   6.933   6.525   9.551 -1.0414  1.8526 -0.4234
56399SOL     OW78164   9.785   4.579   3.711  0.2143  0.4260 -0.0985
56399SOL    HW178165   9.754   4.493   3.681  0.6845  0.2411 -0.0624
56399SOL    HW278166   9.867   4.560   3.757 -0.5778  0.6751  1.4811
56400SOL     OW78167   6.498   2.751   1.627 -0.5459  0.0424 -0.1985
56400SOL    HW178168   6.542   2.747   1.712  0.9196 -0.0687 -0.9351
56400SOL    HW278169   6.520   2.837   1.593 -0.3242 -0.2805 -0.8803
56401SOL     OW78170   8.720   2.963   1.400 -0.1000 -0.1055  0.1854
56401SOL    HW178171   8.687   2.907   1.329 -2.0159  0.1913  0.7838
56401SOL    HW278172   8.707   2.912   1.479 -1.2469  0.8746  0.6641
56402SOL     OW78173   5.957   0.917   9.541  0.0116  0.5920  0.2005
56402SOL    HW178174   5.982   0.983   9.477 -0.5538  0.2124 -0.4177
56402SOL    HW278175   5.889   0.865   9.498  1.1690 -1.0568  0.2679
56403SOL     OW78176   3.194   6.625   6.003 -0.7423  0.0544 -0.1083
56403SOL    HW178177   3.191   6.632   5.907 -1.0253  1.3255 -0.0179
56403SOL    HW278178   3.267   6.680   6.029 -0.7261 -0.2116  0.4199
56404SOL     OW78179   7.253  12.084   4.528 -0.6740  0.5873 -0.6938
56404SOL    HW178180   7.242  12.107   4.620 -1.1011  1.2307 -0.8919
56404SOL    HW278181   7.330  12.134   4.501 -1.0295  1.0486 -0.8809
56405SOL     OW78182  12.143  10.934  11.303  0.2361 -0.4198  0.1350
56405SOL    HW178183  12.204  10.953  11.374 -0.3953 -0.0897  0.5948
56405SOL    HW278184  12.082  11.007  11.303 -2.1206 -2.2330  1.8164
56406SOL     OW78185   3.082  10.998  11.009 -0.1220 -0.3167  0.4663
56406SOL    HW178186   3.057  10.990  11.101  2.0947 -0.2952  1.1352
56406SOL    HW278187   3.079  10.908  10.976  0.9755 -0.6110  1.1290
56407SOL     OW78188   6.387   3.733   3.545 -0.0541  0.4908  0.1638
56407SOL    HW178189   6.333   3.811   3.551  1.0046  1.1537  2.4665
56407SOL    HW278190   6.464   3.760   3.495  0.2360  0.9078  0.8201
56408SOL     OW78191   6.115  11.501   4.150  0.0805 -0.1723  0.5796
56408SOL    HW178192   6.137  11.474   4.061 -0.0257 -0.7885  0.7292
56408SOL    HW278193   6.029  11.460   4.166  0.3579 -0.5449  1.1571
56409SOL     OW78194   2.054   9.076   0.021  1.1490  0.3206 -0.1028
56409SOL    HW178195   2.007   9.064  -0.061  0.9807  0.3328 -0.0095
56409SOL    HW278196   2.133   9.023   0.013 -0.2651 -2.0963  0.8736
56410SOL     OW78197   3.995  12.452   1.723  0.5129  0.1109  0.2405
56410SOL    HW178198   4.027  12.529   1.676  0.7854  0.8218  1.5312
56410SOL    HW278199   4.074  12.408   1.754  0.3635 -0.7524 -0.5355
56411SOL     OW78200   6.128  11.848   8.016  1.1643  0.0970  0.1282
56411SOL    HW178201   6.138  11.938   8.047 -0.9260  0.5491 -0.3193
56411SOL    HW278202   6.086  11.803   8.089  1.5469 -0.3243  0.0855
56412SOL     OW78203   1.948  10.673  11.414 -0.0856  0.0954 -1.1326
56412SOL    HW178204   2.000  10.632  11.345  0.4578 -0.1557 -0.5857
56412SOL    HW278205   1.973  10.625  11.494 -1.3363 -0.1994 -0.9011
56413SOL     OW78206   0.178   0.935   2.456  1.4835  0.4595 -0.3455
56413SOL    HW178207   0.199   0.842   2.451 -0.6999 -0.1044  0.1292
56413SOL    HW278208   0.263   0.978   2.466  2.5271 -1.4751 -0.4049
56414SOL     OW78209  11.827   4.439   0.611 -0.2014 -0.8166 -0.1771
56414SOL    HW178210  11.851   4.359   0.657 -0.8062 -1.0470 -0.2544
56414SOL    HW278211  11.735   4.426   0.585 -0.4862  0.1313  0.3018
56415SOL     OW78212  11.017  11.437   3.253 -0.4132  0.2093 -0.4121
56415SOL    HW178213  11.007  11.388   3.171  0.4868 -0.8024  0.0572
56415SOL    HW278214  10.935  11.423   3.300 -0.0474 -1.1786 -0.1401
56416SOL     OW78215  11.679   4.939   0.232 -0.3746  0.3129  0.4075
56416SOL    HW178216  11.655   5.032   0.230 -1.2555  0.1302  1.5191
56416SOL    HW278217  11.726   4.929   0.314 -2.8640 -0.7867  1.7918
56417SOL     OW78218   6.781  10.574   1.943  0.4370 -0.3167 -0.2988
56417SOL    HW178219   6.739  10.638   2.001  1.8293  0.0378  0.3780
56417SOL    HW278220   6.764  10.607   1.855 -0.4825 -0.0655 -0.0411
56418SOL     OW78221   7.646   9.994   6.022 -0.5110 -0.4449  0.1727
56418SOL    HW178222   7.622   9.913   5.978 -0.6681 -0.5906  0.5170
56418SOL    HW278223   7.733  10.016   5.987  0.0235 -1.3520  0.8704
56419SOL     OW78224   2.877   6.285   9.440  0.5467 -0.0780 -0.1467
56419SOL    HW178225   2.812   6.332   9.492 -0.8391  0.5134 -2.2597
56419SOL    HW278226   2.897   6.345   9.368 -0.0397 -2.0013 -2.0315
56420SOL     OW78227  12.249  10.454   6.183 -1.0429 -0.0122 -0.1851
56420SOL    HW178228  12.166  10.468   6.138  0.5499  0.6413 -3.2057
56420SOL    HW278229  12.272  10.541   6.217 -0.6692  0.2921 -1.1735
56421SOL     OW78230  11.737   5.905  11.586  0.4326 -0.1112  0.4299
56421SOL    HW178231  11.713   5.996  11.568  0.8094 -0.3398 -1.4236
56421SOL    HW278232  11.744   5.864  11.500  1.2808 -1.6512  1.1783
56422SOL     OW78233   9.710   9.157   1.936 -0.9284 -0.7217 -0.3829
56422SOL    HW178234   9.800   9.140   1.908 -0.3837  0.1657  0.7183
56422SOL    HW278235   9.716   9.237   1.988 -2.0095 -1.7895  1.4773
56423SOL     OW78236   1.953  10.013   9.923  0.5377  0.4573 -0.1406
56423SOL    HW178237   2.004   9.956   9.980 -0.6604  1.4929  2.1047
56423SOL    HW278238   1.862   9.996   9.947 -0.0209  1.0324 -1.7054
56424SOL     OW78239   2.932   3.697   2.394  0.2325 -0.0152  0.3017
56424SOL    HW178240   2.939   3.743   2.311  0.0029  0.0780  0.3330
56424SOL    HW278241   2.885   3.757   2.451  1.2997  0.3535  0.8200
56425SOL     OW78242   9.095  10.326   1.144 -0.1958 -0.0166 -0.1695
56425SOL    HW178243   9.104  10.357   1.053 -0.5577 -2.0718 -0.9663
56425SOL    HW278244   9.184  10.323   1.177  0.0581 -0.3439 -0.8619
56426SOL     OW78245  12.517   9.458  11.965 -0.1148 -0.3472  0.2806
56426SOL    HW178246  12.599   9.421  11.935 -0.1019 -1.0024  1.1185
56426SOL    HW278247  12.525   9.552  11.947  0.6683 -0.4579  0.0366
56427SOL     OW78248  10.002   2.029   9.593 -0.2330 -0.3527  0.5394
56427SOL    HW178249  10.000   1.967   9.520 -1.5470 -1.6533  1.6198
56427SOL    HW278250   9.933   2.093   9.573  0.7759  0.5087 -0.3174
56428SOL     OW78251   6.557   5.324   4.446  0.1023  0.1038 -0.1220
56428SOL    HW178252   6.474   5.369   4.464  0.2200  0.2459  0.0557
56428SOL    HW278253   6.531   5.246   4.396 -0.5474 -1.7714  2.8701
56429SOL     OW78254  10.285   5.316  10.443  0.2538  0.5103  0.0388
56429SOL    HW178255  10.368   5.275  10.466  0.6500  1.1017 -0.3156
56429SOL    HW278256  10.280   5.393  10.499  1.2972  2.0486 -1.8757
56430SOL     OW78257   0.151   4.229   6.661 -0.9585  0.7655  0.3242
56430SOL    HW178258   0.106   4.177   6.729 -0.8856 -0.1463 -0.3041
56430SOL    HW278259   0.241   4.237   6.694 -1.7040  3.3561  2.0168
56431SOL     OW78260   1.374   7.221   0.450  0.3437  0.7627  0.5131
56431SOL    HW178261   1.411   7.141   0.489  0.0255 -0.1323 -0.9405
56431SOL    HW278262   1.408   7.292   0.504  2.9734 -0.1292  0.1784
56432SOL     OW78263  12.052  12.128  11.147 -0.0840 -0.1133  0.1722
56432SOL    HW178264  11.988  12.081  11.201 -0.0953 -0.1938  0.0905
56432SOL    HW278265  12.124  12.067  11.136  0.2168  0.1495  0.6536
56433SOL     OW78266   1.603   5.280   8.389 -0.0150  0.1625 -0.5860
56433SOL    HW178267   1.546   5.203   8.393 -3.3427  2.3933 -0.7986
56433SOL    HW278268   1.577   5.325   8.309 -0.4047  3.0035  1.0053
56434SOL     OW78269   4.754   2.314   9.408 -0.1274 -0.1947  0.4975
56434SOL    HW178270   4.702   2.372   9.463  0.6640 -0.0805  1.1475
56434SOL    HW278271   4.845   2.331   9.434  0.2332 -0.4594 -0.5330
56435SOL     OW78272   1.506   0.746   3.738  0.3163 -0.2160 -0.0986
56435SOL    HW178273   1.424   0.712   3.774  1.2486 -2.5611  0.0057
56435SOL    HW278274   1.524   0.688   3.664  1.6744  0.5227 -0.3627
56436SOL     OW78275   0.242   3.254   3.463  0.4977  0.0201  0.5644
56436SOL    HW178276   0.287   3.303   3.532 -1.8925  1.8875  0.9500
56436SOL    HW278277   0.233   3.318   3.392 -0.6636 -0.5726  0.1606
56437SOL     OW78278   4.930   5.930   4.833 -0.1280  0.1367  0.3106
56437SOL    HW178279   5.003   5.917   4.894 -1.8539  0.0698  2.4738
56437SOL    HW278280   4.894   6.015   4.857 -1.2554 -0.1964 -0.1356
56438SOL     OW78281   6.773   6.769  11.812  0.4439  0.7188  0.2436
56438SOL    HW178282   6.755   6.675  11.817 -0.8213  0.8099 -1.6238
56438SOL    HW278283   6.836   6.777  11.740  0.2122  1.3349  0.1073
56439SOL     OW78284   2.171   5.736   4.341  0.0062 -0.0831  0.0614
56439SOL    HW178285   2.223   5.656   4.343  2.2147  1.2273 -0.9559
56439SOL    HW278286   2.189   5.779   4.424  0.5496  0.3597 -0.2808
56440SOL     OW78287   1.916   5.398   8.522  0.0273 -0.3251 -0.0657
56440SOL    HW178288   1.841   5.425   8.470  0.3818 -1.5940 -1.3200
56440SOL    HW278289   1.989   5.451   8.489 -0.3330  1.0928  1.3304
56441SOL     OW78290   4.668   5.820   4.104  0.0536 -0.3344 -0.0279
56441SOL    HW178291   4.612   5.891   4.073  1.0807  1.9979  2.9630
56441SOL    HW278292   4.756   5.856   4.104  1.0126 -2.5078 -0.7175
56442SOL     OW78293  11.727   3.453   1.270 -0.1588 -0.5084 -0.0362
56442SOL    HW178294  11.687   3.507   1.202 -2.0232 -0.9174  0.6733
56442SOL    HW278295  11.660   3.388   1.292  1.4244 -2.1301  0.2556
56443SOL     OW78296   6.569  11.669  10.117  0.1081 -0.0899  0.1794
56443SOL    HW178297   6.587  11.592  10.170 -0.5747 -0.1275  0.3660
56443SOL    HW278298   6.532  11.635  10.035 -2.4715  0.0806  1.1739
56444SOL     OW78299   7.462   7.433   3.004  0.4110 -0.4188 -0.2905
56444SOL    HW178300   7.462   7.384   3.086 -0.1792  0.0505 -0.0033
56444SOL    HW278301   7.377   7.478   3.003  0.5685 -0.1240 -0.9786
56445SOL     OW78302   5.268   8.042   5.027 -0.0698 -0.2202  0.3152
56445SOL    HW178303   5.294   7.979   4.960 -1.2779 -0.0684 -0.3345
56445SOL    HW278304   5.173   8.048   5.018 -0.2393 -0.0817  1.9598
56446SOL     OW78305   0.353   9.061   3.061  0.3250  0.1806 -0.4611
56446SOL    HW178306   0.312   9.074   2.975  0.1177  2.1225 -0.1232
56446SOL    HW278307   0.279   9.054   3.122  0.4337  1.7079 -0.1063
56447SOL     OW78308  12.131   3.195   5.032  0.6610 -0.1985 -0.6876
56447SOL    HW178309  12.054   3.146   5.004  1.9387 -1.1892 -2.7329
56447SOL    HW278310  12.196   3.128   5.055  1.5147  0.5675 -0.7928
56448SOL     OW78311   2.336   5.677   2.734  0.7350  0.5288  0.0783
56448SOL    HW178312   2.291   5.594   2.745  0.5913  0.5633 -0.2474
56448SOL    HW278313   2.268   5.743   2.752  0.7247  0.5783 -0.1456
56449SOL     OW78314   4.825   2.549   3.682 -0.8431 -0.0822  0.0647
56449SOL    HW178315   4.806   2.497   3.603  0.7844  0.3227 -0.6376
56449SOL    HW278316   4.752   2.611   3.688 -0.8729  0.0432 -1.2810
56450SOL     OW78317   4.165   3.896   1.535  0.4525  0.2086 -0.0812
56450SOL    HW178318   4.169   3.977   1.485 -2.0450  0.8820  0.6497
56450SOL    HW278319   4.211   3.915   1.616 -0.2212  0.9741  0.1351
56451SOL     OW78320  11.860   3.195   8.930 -0.4433 -0.0192  1.1386
56451SOL    HW178321  11.892   3.105   8.927  1.6439  0.6953 -1.1976
56451SOL    HW278322  11.901   3.232   9.009  0.1645 -0.6130  1.1078
56452SOL     OW78323   3.297   5.952   2.779  0.0652  0.5274  0.1041
56452SOL    HW178324   3.273   6.000   2.859 -0.5706 -1.0333  0.9053
56452SOL    HW278325   3.214   5.919   2.745  0.4137  0.5564 -0.8071
56453SOL     OW78326   0.191   4.616  11.116 -0.4156  0.1603 -0.3134
56453SOL    HW178327   0.114   4.633  11.169  0.9294  0.9840  1.4891
56453SOL    HW278328   0.230   4.702  11.101  0.1936 -0.2388 -1.1588
56454SOL     OW78329   4.518   2.933   0.220 -0.0620  0.5188 -0.1631
56454SOL    HW178330   4.516   3.021   0.182 -0.3826  1.3004  1.5330
56454SOL    HW278331   4.432   2.896   0.200  0.9393 -0.4794 -3.0909
56455SOL     OW78332   8.807  10.447   2.647  0.0396  0.3257  0.0612
56455SOL    HW178333   8.806  10.365   2.597  3.2679 -1.1981  2.1833
56455SOL    HW278334   8.868  10.503   2.599 -1.0266  0.9991 -0.5638
56456SOL     OW78335   6.457   8.592  11.528  0.6361 -0.0165  0.8449
56456SOL    HW178336   6.387   8.628  11.582  1.3484 -0.9556  2.4930
56456SOL    HW278337   6.419   8.586  11.440 -0.8957  0.6988  1.4161
56457SOL     OW78338   4.394   1.902   3.828  0.1569 -0.1186  0.3409
56457SOL    HW178339   4.399   1.826   3.771 -1.0790 -0.2689  0.4130
56457SOL    HW278340   4.369   1.974   3.770 -1.3450 -0.3205  0.7099
56458SOL     OW78341   9.290  11.057   7.627  0.5661  0.2674 -0.1236
56458SOL    HW178342   9.340  11.061   7.708 -0.5113 -0.1037  0.5889
56458SOL    HW278343   9.260  11.147   7.612 -1.3312 -0.0649  1.2984
56459SOL     OW78344   2.097  10.378   3.313  0.1053 -0.5234  0.2296
56459SOL    HW178345   2.012  10.384   3.357  1.1385 -0.4923  2.3040
56459SOL    HW278346   2.114  10.284   3.308  0.8344 -0.4775  1.6266
56460SOL     OW78347   9.473  11.868   2.379 -0.0992 -0.1903  0.0893
56460SOL    HW178348   9.384  11.833   2.387 -0.8202  0.9145 -2.1430
56460SOL    HW278349   9.517  11.807   2.320  0.8732 -1.0570  1.6398
56461SOL     OW78350  11.354   3.427   2.398 -0.0430 -0.2531 -0.3893
56461SOL    HW178351  11.368   3.336   2.370 -1.6752 -0.6553 -0.0171
56461SOL    HW278352  11.351   3.477   2.316 -0.1576 -0.7073 -0.6720
56462SOL     OW78353   2.175   8.559   0.022  0.5580  0.0279 -0.2890
56462SOL    HW178354   2.264   8.594   0.010  2.0678 -3.2935  0.1476
56462SOL    HW278355   2.137   8.615   0.090  0.9640  3.5852 -2.6994
56463SOL     OW78356   9.388   4.839   1.059 -0.0070  0.1308  0.2447
56463SOL    HW178357   9.361   4.793   0.979 -1.5443  1.4771 -0.0726
56463SOL    HW278358   9.483   4.836   1.057 -0.0293 -0.7937 -1.0877
56464SOL     OW78359   5.816   0.726  10.925 -0.0009 -0.1687  0.4469
56464SOL    HW178360   5.884   0.675  10.883 -1.1121 -0.3059 -1.2620
56464SOL    HW278361   5.796   0.678  11.005  0.4315 -1.2707 -0.0901
56465SOL     OW78362  11.537   1.417   9.155 -0.4022 -0.2203 -0.3506
56465SOL    HW178363  11.497   1.480   9.094 -0.2763 -1.3018 -1.6032
56465SOL    HW278364  11.524   1.456   9.241 -1.7412  0.7597 -0.9507
56466SOL     OW78365   0.290  10.572  12.032 -0.4689  0.2888  0.1419
56466SOL    HW178366   0.383  10.578  12.013 -0.4165  2.8180  0.7664
56466SOL    HW278367   0.283  10.590  12.126 -1.6539  2.1059 -0.2223
56467SOL     OW78368   2.580   6.770   8.948 -0.2499  0.1083  0.3053
56467SOL    HW178369   2.537   6.843   8.903  0.8036  0.3848 -0.2910
56467SOL    HW278370   2.611   6.808   9.030  1.8555  0.8766 -0.7511
56468SOL     OW78371   2.811   3.656   7.942 -0.6212 -0.2981 -0.0682
56468SOL    HW178372   2.901   3.647   7.973  0.4922  0.4816 -2.8011
56468SOL    HW278373   2.820   3.680   7.849 -3.6160  1.2516 -0.0687
56469SOL     OW78374   5.256   5.271   9.078 -0.2355  0.3913  0.2712
56469SOL    HW178375   5.319   5.199   9.075 -0.9532 -0.2140 -1.4223
56469SOL    HW278376   5.308   5.348   9.102  1.2096 -0.0507 -1.2860
56470SOL     OW78377   9.377   3.387   7.944 -0.3852 -0.1405  0.1215
56470SOL    HW178378   9.422   3.393   7.860  1.5375 -0.3175  1.0633
56470SOL    HW278379   9.377   3.476   7.978  0.4309 -0.3351  0.6698
56471SOL     OW78380   8.846  11.654  10.008 -0.1018  0.3916 -0.5202
56471SOL    HW178381   8.868  11.682   9.919  2.8385  2.9466  0.8047
56471SOL    HW278382   8.925  11.611  10.040 -0.4480  1.0630  1.3843
56472SOL     OW78383  10.741   1.291   6.363  0.0514  0.3807  0.2357
56472SOL    HW178384  10.707   1.211   6.404 -0.2407  0.9651  1.1834
56472SOL    HW278385  10.835   1.276   6.355 -0.0913 -0.3141 -0.2062
56473SOL     OW78386   2.389   7.741   4.775  0.4139  0.0523 -0.1419
56473SOL    HW178387   2.438   7.777   4.850 -0.8520  0.9316  0.2929
56473SOL    HW278388   2.299   7.768   4.790 -0.5308 -2.7441 -0.1823
56474SOL     OW78389   9.085   3.351   6.149  0.8764  0.2619 -0.1951
56474SOL    HW178390   9.017   3.316   6.206  1.1895 -0.2405 -0.1248
56474SOL    HW278391   9.052   3.337   6.060  0.9622 -0.1286 -0.1638
56475SOL     OW78392   6.941   3.916  11.584 -0.3762  0.3594 -0.2595
56475SOL    HW178393   6.852   3.944  11.564 -0.2769  0.7437 -0.1624
56475SOL    HW278394   6.934   3.821  11.595 -0.7050  0.3361 -0.6255
56476SOL     OW78395  10.044   6.773   0.062  0.2775 -0.0650 -0.2199
56476SOL    HW178396  10.106   6.728   0.119  1.2227  0.5885 -0.7075
56476SOL    HW278397   9.962   6.726   0.074  0.4098  0.1165  1.7705
56477SOL     OW78398   2.616   0.824   5.732  0.3496  0.7165 -0.3368
56477SOL    HW178399   2.574   0.744   5.699  1.1873 -0.2096  0.7529
56477SOL    HW278400   2.708   0.801   5.741  0.1762  0.7452  2.8346
56478SOL     OW78401   7.058   1.344   1.180  0.5346 -0.0943  0.2012
56478SOL    HW178402   7.018   1.322   1.264 -1.9095  1.5518 -0.3928
56478SOL    HW278403   7.033   1.273   1.121  1.6697 -0.9059  0.6736
56479SOL     OW78404   2.816   4.000   6.194  0.3171 -0.2294  0.4295
56479SOL    HW178405   2.753   4.041   6.253  0.0213 -2.0082  1.4380
56479SOL    HW278406   2.796   3.907   6.198  3.1952 -0.9283  1.0323
56480SOL     OW78407   9.804   9.974   0.907 -0.0171 -0.2868 -0.4464
56480SOL    HW178408   9.833  10.009   0.823  1.3004 -1.6788 -0.6280
56480SOL    HW278409   9.757   9.894   0.884  1.4647 -1.3886  0.1415
56481SOL     OW78410   9.682   5.995   2.043  0.1630 -0.0268 -0.6166
56481SOL    HW178411   9.777   5.991   2.030  0.0044 -0.5181 -1.7372
56481SOL    HW278412   9.664   6.088   2.062  0.9668 -0.0992  0.5929
56482SOL     OW78413   6.550   4.954   5.927  0.1563 -0.1727 -0.0573
56482SOL    HW178414   6.495   4.940   6.005 -0.1532 -0.7135 -0.3675
56482SOL    HW278415   6.639   4.956   5.962  0.1006 -1.3629  0.2158
56483SOL     OW78416   2.278   7.898   1.032 -0.0840  0.0416 -0.3327
56483SOL    HW178417   2.232   7.906   0.949 -0.5871  1.1439  0.0199
56483SOL    HW278418   2.212   7.923   1.098 -0.1602 -2.2687  0.5513
56484SOL     OW78419   6.266   6.829   5.117 -0.0716 -0.1956 -0.2665
56484SOL    HW178420   6.175   6.799   5.124  0.1212 -0.9024 -0.7645
56484SOL    HW278421   6.290   6.813   5.026  0.1058  1.2935 -0.5104
56485SOL     OW78422   9.318  11.840   1.160 -0.0526  0.3587 -0.1504
56485SOL    HW178423   9.332  11.816   1.251 -0.9131 -0.4111 -0.1982
56485SOL    HW278424   9.233  11.883   1.159 -0.2021  0.0681 -0.6317
56486SOL     OW78425   4.430   6.291   6.847  0.4617  0.1177 -0.3507
56486SOL    HW178426   4.350   6.239   6.852  0.9763 -0.8451 -1.5252
56486SOL    HW278427   4.441   6.308   6.753  1.1426  1.0222 -0.1199
56487SOL     OW78428   9.434   9.109   8.443  0.1088 -0.2276  0.1214
56487SOL    HW178429   9.436   9.203   8.462 -0.6083 -0.3947  1.1041
56487SOL    HW278430   9.515   9.092   8.395  0.9422  0.6383  1.1835
56488SOL     OW78431   0.229   5.139  11.735  0.2319 -0.2573 -0.0955
56488SOL    HW178432   0.318   5.113  11.758  0.5805 -0.3872 -1.5293
56488SOL    HW278433   0.240   5.207  11.669 -0.7329  0.6042  0.5864
56489SOL     OW78434   7.965   8.903   7.874 -0.2804 -0.3250  0.2750
56489SOL    HW178435   7.876   8.937   7.867 -0.2665 -0.3280  0.1012
56489SOL    HW278436   8.014   8.947   7.805 -0.4824 -1.4171 -0.5751
56490SOL     OW78437  10.972   6.280   1.885  0.2446  0.0039 -0.3428
56490SOL    HW178438  11.040   6.277   1.817  0.4857 -0.5784 -0.0781
56490SOL    HW278439  11.016   6.252   1.965 -0.3975 -0.7488 -0.2428
56491SOL     OW78440   9.858   5.661   5.190  0.0899  0.2070 -0.1108
56491SOL    HW178441   9.879   5.664   5.097 -2.8027  3.3597 -0.8741
56491SOL    HW278442   9.786   5.599   5.197  0.6736 -0.4524  0.1638
56492SOL     OW78443   1.127   0.986   8.279  0.7245 -0.0098 -0.2001
56492SOL    HW178444   1.049   0.999   8.335  1.2124 -0.2780  0.5593
56492SOL    HW278445   1.191   1.048   8.315  1.4654 -1.0786  0.3595
56493SOL     OW78446   1.035   2.172   5.246 -0.6135  0.4502 -0.4459
56493SOL    HW178447   1.120   2.181   5.204 -0.4737 -1.1519 -0.5423
56493SOL    HW278448   1.027   2.079   5.266 -2.0466  0.6804  0.2032
56494SOL     OW78449   9.910  10.788   3.458 -0.1645  0.7209  0.0441
56494SOL    HW178450   9.986  10.836   3.492 -1.0604  2.2993 -0.1095
56494SOL    HW278451   9.926  10.781   3.364  0.0654  0.5300  0.0959
56495SOL     OW78452   5.095   6.083   2.321  0.0389 -0.1232 -0.2370
56495SOL    HW178453   5.056   6.168   2.338 -2.3310 -0.9414 -1.1984
56495SOL    HW278454   5.146   6.064   2.399 -2.0417  0.7644  1.4288
56496SOL     OW78455   0.237   0.278   9.362 -0.3486 -0.7720  0.1448
56496SOL    HW178456   0.168   0.239   9.416 -1.5774  0.4425 -0.4830
56496SOL    HW278457   0.270   0.351   9.414 -1.4370  0.3122 -0.6152
56497SOL     OW78458   3.458   1.474   5.041 -0.1178  0.0784  0.3494
56497SOL    HW178459   3.394   1.429   4.986 -0.3322  1.7571 -0.8380
56497SOL    HW278460   3.465   1.561   5.003  2.4050  0.1519  0.8295
56498SOL     OW78461  11.511   7.471   5.759  0.1961  0.3926  0.2549
56498SOL    HW178462  11.601   7.482   5.726  0.5096 -1.1853  0.4883
56498SOL    HW278463  11.474   7.559   5.757  0.9624  0.7299 -2.1259
56499SOL     OW78464   0.403   3.624   8.971 -0.2877 -0.1808  0.2929
56499SOL    HW178465   0.416   3.537   9.009 -0.0707  0.3909  1.5639
56499SOL    HW278466   0.314   3.648   8.997 -0.4527 -0.1322 -0.3015
56500SOL     OW78467   8.767   2.257   0.871 -0.1073 -0.4272 -0.0692
56500SOL    HW178468   8.813   2.305   0.940  1.9980  0.9024 -2.2573
56500SOL    HW278469   8.688   2.309   0.855  0.4070  0.3911 -0.0156
56501SOL     OW78470  11.177   5.051  11.289  0.3269  0.1395 -0.2745
56501SOL    HW178471  11.138   5.000  11.218 -0.5814 -2.3823  1.8754
56501SOL    HW278472  11.270   5.052  11.270 -0.1442  2.7405 -3.3453
56502SOL     OW78473  10.255   3.757  11.171 -0.0863 -0.0870 -0.0069
56502SOL    HW178474  10.238   3.664  11.158 -0.2333 -0.1323  0.4875
56502SOL    HW278475  10.188   3.801  11.119  0.1231 -0.2544 -0.4232
56503SOL     OW78476   6.432   1.009  10.940 -0.0809 -0.0359 -0.7778
56503SOL    HW178477   6.467   0.954  10.870  0.4059  0.0617 -0.6119
56503SOL    HW278478   6.383   0.949  10.996 -0.6642 -0.0763 -1.3266
56504SOL     OW78479   7.458   9.887   3.096  0.2240 -0.0298 -0.4651
56504SOL    HW178480   7.439   9.979   3.116 -1.4453  0.2527 -2.8953
56504SOL    HW278481   7.423   9.839   3.171 -0.9489  1.1967 -0.1742
56505SOL     OW78482   7.993   7.721   7.291  0.0378  0.0731 -0.0406
56505SOL    HW178483   7.956   7.781   7.356  0.5429  0.4267 -0.0694
56505SOL    HW278484   7.958   7.752   7.208 -2.9579 -2.1022  0.2310
56506SOL     OW78485   7.393   3.116   1.022 -0.3393 -0.0912  0.1266
56506SOL    HW178486   7.327   3.050   1.001 -1.1100  0.9374 -0.8151
56506SOL    HW278487   7.467   3.094   0.965 -0.3100 -0.5650  0.3447
56507SOL     OW78488   2.615   8.767   1.064 -0.3165 -0.2635  0.2055
56507SOL    HW178489   2.650   8.746   0.977  0.8086  0.1269  0.5455
56507SOL    HW278490   2.621   8.685   1.112  0.2854 -0.1699  0.3010
56508SOL     OW78491   8.901   4.167   1.898 -0.2386 -0.3926 -0.2777
56508SOL    HW178492   8.820   4.118   1.884 -1.1782  1.4196 -1.7213
56508SOL    HW278493   8.894   4.199   1.988  0.8930 -3.6015  1.0904
56509SOL     OW78494   5.157   7.188   3.385 -0.7399  0.3539  0.3130
56509SOL    HW178495   5.067   7.156   3.391 -0.7815  0.6153  1.3769
56509SOL    HW278496   5.200   7.150   3.462  0.0867  0.1355 -0.2519
56510SOL     OW78497   9.041   9.600   5.086 -0.8595  0.7686  0.3913
56510SOL    HW178498   8.986   9.606   5.164 -1.4734 -1.9160  0.2547
56510SOL    HW278499   9.044   9.507   5.066  0.8393  1.1994 -1.7188
56511SOL     OW78500   3.691   7.389   1.657  0.1296 -0.1741  0.0526
56511SOL    HW178501   3.678   7.303   1.697  3.3513 -0.2906  1.1797
56511SOL    HW278502   3.697   7.449   1.732 -0.3846  0.7598 -0.6404
56512SOL     OW78503   5.734  10.026  10.948  0.2222 -0.5853  0.3024
56512SOL    HW178504   5.785  10.081  10.889  0.4059  0.0699  1.0509
56512SOL    HW278505   5.799   9.991  11.010 -0.1723 -0.0152  1.0554
56513SOL     OW78506   6.700   4.411   6.386 -0.8404  0.2190  0.1916
56513SOL    HW178507   6.763   4.458   6.441 -1.1257  0.1381  0.5845
56513SOL    HW278508   6.755   4.369   6.319 -0.5320  0.6485  0.1704
56514SOL     OW78509   0.536   9.092   8.029 -0.2887 -0.1371 -0.1952
56514SOL    HW178510   0.614   9.115   7.978 -0.2190  0.7880  0.3090
56514SOL    HW278511   0.537   9.152   8.103 -0.5616 -1.2523  0.7468
56515SOL     OW78512   8.035   2.664   2.775  0.6899  0.2688  0.9316
56515SOL    HW178513   7.961   2.634   2.722  0.3090  1.1277  0.9556
56515SOL    HW278514   8.076   2.584   2.807 -0.0109 -0.2249  0.6155
56516SOL     OW78515   4.078   6.234   4.153 -0.0602  0.3607  0.1406
56516SOL    HW178516   4.020   6.307   4.132  1.6310  2.2091  1.5114
56516SOL    HW278517   4.102   6.198   4.067 -2.0641  0.4320 -0.5028
56517SOL     OW78518  10.164   2.772   3.179  0.0061  0.1735  0.7572
56517SOL    HW178519  10.185   2.836   3.246 -1.9073  2.0912 -0.3492
56517SOL    HW278520  10.071   2.785   3.161  0.2652 -0.7656 -1.7246
56518SOL     OW78521   9.296   9.024   4.009  0.0943  0.2091  0.4149
56518SOL    HW178522   9.240   9.074   4.069 -1.4343 -1.0043  0.0659
56518SOL    HW278523   9.329   9.089   3.946 -1.5145  0.8529  0.1992
56519SOL     OW78524  10.464  12.020   4.779  0.2921  0.1163  0.0875
56519SOL    HW178525  10.437  11.936   4.742  0.5475  0.0167  0.1309
56519SOL    HW278526  10.405  12.033   4.853 -2.0271  1.5594 -1.8735
56520SOL     OW78527   1.217   9.055   9.969 -0.1466 -0.1496 -0.2177
56520SOL    HW178528   1.299   9.104   9.963  0.2490 -0.8969 -1.4768
56520SOL    HW278529   1.149   9.119   9.950  0.1242  0.4941  0.9066
56521SOL     OW78530  10.180  10.585   0.788  0.5095  0.5037  0.4418
56521SOL    HW178531  10.206  10.624   0.871 -0.7691  0.4105  0.9100
56521SOL    HW278532  10.171  10.659   0.728 -1.8078  1.0100  1.2976
56522SOL     OW78533   0.738   5.455   4.186  0.4791 -0.0103 -0.3916
56522SOL    HW178534   0.772   5.441   4.098  1.6468 -0.5343  0.1255
56522SOL    HW278535   0.673   5.386   4.198 -1.1143  1.1969 -1.5080
56523SOL     OW78536   1.481   5.129   3.905 -0.6014 -0.1025  0.1672
56523SOL    HW178537   1.450   5.159   3.991  0.7063  0.3759  0.4990
56523SOL    HW278538   1.530   5.203   3.871  1.0674 -1.1812  0.1409
56524SOL     OW78539   9.724  11.767   0.712 -0.8997  0.3253  0.3684
56524SOL    HW178540   9.695  11.838   0.768 -1.1584 -0.7699  1.6733
56524SOL    HW278541   9.698  11.687   0.758  1.6716 -0.6819  0.2631
56525SOL     OW78542  12.098   4.608   1.257 -0.0051 -0.2482 -0.2575
56525SOL    HW178543  12.074   4.573   1.343 -2.6051 -0.4517 -0.9925
56525SOL    HW278544  12.111   4.531   1.202 -3.1735 -0.2364 -1.2101
56526SOL     OW78545   7.368  12.274   1.723 -0.3618 -0.0543  0.3267
56526SOL    HW178546   7.375  12.367   1.744  0.5179  0.0376 -0.2996
56526SOL    HW278547   7.458  12.245   1.712 -0.6752 -0.5310 -1.3147
56527SOL     OW78548   3.625   9.429  11.071  0.2530  0.0089 -0.3716
56527SOL    HW178549   3.646   9.337  11.087  2.1923  0.6247  0.9376
56527SOL    HW278550   3.687   9.478  11.124 -0.7656  2.1069 -0.9883
56528SOL     OW78551   2.384   9.764   0.026 -0.1929 -0.3641  0.6526
56528SOL    HW178552   2.356   9.732  -0.060  3.6261  0.2140 -1.0242
56528SOL    HW278553   2.430   9.690   0.065  3.7125  1.0168 -0.7995
56529SOL     OW78554   9.020  12.509   2.750 -0.9192 -0.1880  0.0793
56529SOL    HW178555   9.004  12.452   2.825 -1.6410 -0.2554 -0.1251
56529SOL    HW278556   9.067  12.584   2.786  0.6674 -1.2094  0.2489
56530SOL     OW78557   5.282  10.466   3.574  0.0525  0.2188  0.2608
56530SOL    HW178558   5.187  10.468   3.591  0.0643 -0.3052  0.4025
56530SOL    HW278559   5.299  10.547   3.527 -0.4457  0.3867  0.3584
56531SOL     OW78560   0.082  10.287  10.599  0.5715  0.3006  0.3260
56531SOL    HW178561   0.024  10.259  10.670  0.3366  1.7163  0.7273
56531SOL    HW278562   0.111  10.206  10.558 -1.9776 -0.4546 -0.1236
56532SOL     OW78563  10.291  10.774   7.784  0.1254  0.2221 -0.1230
56532SOL    HW178564  10.277  10.868   7.797  0.0387  0.1499  0.3101
56532SOL    HW278565  10.356  10.770   7.713 -0.6833  0.5879 -0.9014
56533SOL     OW78566   0.055   3.719   3.941 -0.0555  0.3745 -0.5972
56533SOL    HW178567  -0.033   3.754   3.932  0.2113  1.4161  0.4769
56533SOL    HW278568   0.076   3.681   3.856 -1.2411  0.8236 -1.0987
56534SOL     OW78569   4.124   9.216   2.459  0.2953 -0.2886  0.0855
56534SOL    HW178570   4.177   9.294   2.440  0.8058 -0.6723 -0.0836
56534SOL    HW278571   4.152   9.189   2.546  1.6310 -1.4782 -0.6682
56535SOL     OW78572   4.149   5.299   7.403 -0.7874 -1.2194 -0.7830
56535SOL    HW178573   4.213   5.360   7.367  2.8189 -2.7966  2.3099
56535SOL    HW278574   4.141   5.230   7.338 -0.2129 -0.4548 -1.6843
56536SOL     OW78575   5.462   9.759  12.202 -0.4793 -0.3730  0.2567
56536SOL    HW178576   5.537   9.704  12.224 -0.1102 -0.2516 -0.6381
56536SOL    HW278577   5.455   9.820  12.276  0.9177  0.2314 -0.0585
56537SOL     OW78578   4.665   7.840   1.846  0.2842 -0.3948 -0.0225
56537SOL    HW178579   4.691   7.870   1.933  0.3380  1.0591 -0.5116
56537SOL    HW278580   4.742   7.794   1.813 -0.3762 -2.6871  1.4051
56538SOL     OW78581   6.169   7.315   3.733  0.0601  0.1863 -0.1732
56538SOL    HW178582   6.215   7.393   3.703 -0.8297  0.7899 -0.0081
56538SOL    HW278583   6.237   7.248   3.740  0.5996  0.5242 -1.7673
56539SOL     OW78584   1.888   5.967   6.412  0.0851 -0.4321  0.0850
56539SOL    HW178585   1.976   6.003   6.400 -0.6135  1.3267 -0.0091
56539SOL    HW278586   1.855   5.955   6.323  0.2076 -1.0280  0.1201
56540SOL     OW78587   3.052   3.429   1.017 -0.2830 -0.0116 -0.2327
56540SOL    HW178588   3.059   3.414   0.923 -0.8061  0.7509 -0.4074
56540SOL    HW278589   3.120   3.494   1.036  1.6243 -2.1059  0.4215
56541SOL     OW78590   8.616  12.264   6.805  0.4297  0.5617 -0.1988
56541SOL    HW178591   8.588  12.306   6.886  0.5049  0.6763 -0.2323
56541SOL    HW278592   8.549  12.197   6.788  1.1172 -0.3699  0.6734
56542SOL     OW78593  10.928  12.108  11.104 -0.1620  0.5548 -0.7471
56542SOL    HW178594  10.882  12.160  11.170  0.9031 -0.4564  0.8787
56542SOL    HW278595  10.920  12.017  11.135  0.2267  0.0316 -2.1154
56543SOL     OW78596  10.003   5.475   0.558  0.1806 -0.0896  0.1589
56543SOL    HW178597   9.941   5.404   0.542  0.2431 -0.3388  0.9790
56543SOL    HW278598   9.994   5.494   0.651  2.2666 -1.0348  0.6044
56544SOL     OW78599   2.373  10.530   9.949 -0.7571 -0.0355 -0.6658
56544SOL    HW178600   2.374  10.435   9.951  1.0472 -0.0487 -0.0342
56544SOL    HW278601   2.419  10.553   9.868  1.7720  0.2118  0.7085
56545SOL     OW78602   0.054  10.451   6.194 -0.1760 -0.2629 -0.1996
56545SOL    HW178603  -0.002  10.390   6.147 -0.7926  0.3907 -0.3419
56545SOL    HW278604   0.143  10.420   6.178 -0.4193 -0.4848 -1.1798
56546SOL     OW78605   2.770  11.814  12.221 -0.3288  0.2709 -0.1157
56546SOL    HW178606   2.697  11.857  12.175  0.0910  0.9661 -0.1446
56546SOL    HW278607   2.742  11.810  12.312 -0.9390 -0.6327 -0.3189
56547SOL     OW78608  11.048   2.981   4.359  0.0973  0.4879  0.3810
56547SOL    HW178609  11.141   2.961   4.351  0.1271  0.7543  0.0439
56547SOL    HW278610  11.013   2.911   4.414  0.5792  0.6278  0.8731
56548SOL     OW78611   0.777   5.244   5.421  0.2474 -0.1341  0.2881
56548SOL    HW178612   0.733   5.165   5.452  2.1932 -0.9645  1.1603
56548SOL    HW278613   0.795   5.228   5.329  0.0117 -0.3987  0.2882
56549SOL     OW78614  10.000   9.533  11.760  0.1183  0.5358 -0.1901
56549SOL    HW178615   9.920   9.568  11.800  0.0187  0.8912 -0.6950
56549SOL    HW278616  10.065   9.601  11.774 -0.2879  1.3132 -1.9180
56550SOL     OW78617   6.875   3.334  10.909  0.0449  0.1342  0.0906
56550SOL    HW178618   6.888   3.363  10.818 -0.0119  0.3286  0.1438
56550SOL    HW278619   6.951   3.279  10.928  0.9450  1.4538  0.4865
56551SOL     OW78620   7.097   6.773   1.238 -0.6011 -0.0686 -0.1826
56551SOL    HW178621   7.154   6.758   1.163 -0.8500  1.2790 -0.6710
56551SOL    HW278622   7.156   6.782   1.312 -0.2701 -0.0942 -0.4409
56552SOL     OW78623   0.560   0.418   7.462 -0.4084 -0.0997 -0.1323
56552SOL    HW178624   0.485   0.362   7.445 -1.2489  1.3525 -1.5305
56552SOL    HW278625   0.621   0.400   7.390  0.5847 -1.2064  0.9452
56553SOL     OW78626   1.212   3.070   6.094 -0.6095 -0.8322  0.0751
56553SOL    HW178627   1.299   3.077   6.133  0.7618 -1.6387 -2.6430
56553SOL    HW278628   1.206   3.144   6.034 -0.5787 -2.3847 -1.9171
56554SOL     OW78629   6.669  11.383  11.883 -0.5278  0.0351 -0.3807
56554SOL    HW178630   6.624  11.303  11.912 -2.0894  1.5477  1.7207
56554SOL    HW278631   6.598  11.444  11.863  0.6193  1.2559 -0.8708
56555SOL     OW78632  11.494   9.625  10.259 -0.2655 -0.0456  0.1136
56555SOL    HW178633  11.511   9.533  10.237 -1.4450  0.2802 -2.5515
56555SOL    HW278634  11.578   9.669  10.246 -0.1560 -0.4440 -0.6041
56556SOL     OW78635   1.430   6.455   8.161 -0.1817 -0.0295 -0.6403
56556SOL    HW178636   1.502   6.506   8.198 -0.3893 -0.3852  0.2857
56556SOL    HW278637   1.384   6.419   8.237 -1.3475  0.1965 -1.2091
56557SOL     OW78638  11.307   0.505   1.988 -0.0459  0.1774  0.5961
56557SOL    HW178639  11.224   0.531   2.028 -0.6389  0.5854 -0.8176
56557SOL    HW278640  11.331   0.579   1.932 -0.3667 -1.1513 -1.4238
56558SOL     OW78641   3.442   2.497   3.740  0.2313  0.0311 -0.0169
56558SOL    HW178642   3.474   2.428   3.799 -0.7903 -1.7239 -1.4162
56558SOL    HW278643   3.369   2.537   3.788 -0.1213 -0.8873  0.2354
56559SOL     OW78644  10.476   1.774   7.995  0.5984 -0.1574  0.1358
56559SOL    HW178645  10.560   1.803   8.031  0.8391 -0.3114 -0.2916
56559SOL    HW278646  10.497   1.743   7.907  0.1412 -0.4729  0.1325
56560SOL     OW78647   5.180  10.334   7.121  0.4010 -0.8199 -0.2842
56560SOL    HW178648   5.188  10.252   7.073  0.0413 -1.7840  1.2195
56560SOL    HW278649   5.085  10.347   7.130  0.4605 -0.5107 -0.0857
56561SOL     OW78650   1.341   4.884  11.081  0.0242  0.2117  0.4724
56561SOL    HW178651   1.383   4.864  10.997 -1.5799  0.2651 -0.3876
56561SOL    HW278652   1.379   4.968  11.107 -1.1189  1.4038 -1.4153
56562SOL     OW78653  11.288   1.555   4.708 -0.9964  0.3503 -0.1839
56562SOL    HW178654  11.370   1.604   4.716  0.2849 -1.1555 -2.8024
56562SOL    HW278655  11.236   1.583   4.784  0.7274  3.5455  0.0044
56563SOL     OW78656   1.999   3.184   8.240  0.2597 -0.1794 -0.0787
56563SOL    HW178657   2.091   3.207   8.253  0.5028 -0.2563 -1.5492
56563SOL    HW278658   2.001   3.098   8.200 -0.3238  0.8646 -2.5021
56564SOL     OW78659   1.499   7.584   2.993 -0.3333 -0.0734  0.4346
56564SOL    HW178660   1.524   7.677   2.988  1.7812 -0.6365 -0.9071
56564SOL    HW278661   1.434   7.573   2.924 -1.6567  0.6508  1.5099
56565SOL     OW78662   3.412   2.890   9.736  0.2905  0.6202 -0.4741
56565SOL    HW178663   3.365   2.808   9.751  2.2872 -0.0918  2.8662
56565SOL    HW278664   3.496   2.864   9.700  1.4227  0.9662  1.7446
56566SOL     OW78665   3.974   3.024   6.602  0.0165 -0.4756 -0.0035
56566SOL    HW178666   3.897   3.021   6.544 -0.9405  1.4449  1.0870
56566SOL    HW278667   4.005   3.114   6.596 -0.3943 -0.0753  2.7877
56567SOL     OW78668   7.882  10.912  12.073 -0.2069 -0.0177 -0.4281
56567SOL    HW178669   7.820  10.960  12.017 -1.7604 -2.1899 -0.7255
56567SOL    HW278670   7.895  10.829  12.027  0.4536 -0.8575  1.2056
56568SOL     OW78671   1.720   1.268   5.306 -0.0251 -0.0813 -0.2484
56568SOL    HW178672   1.633   1.241   5.336 -0.3504  0.7964 -0.3965
56568SOL    HW278673   1.714   1.362   5.293  1.9218  0.6731  3.1607
56569SOL     OW78674   0.118   4.655   6.515  0.0462 -0.2979  0.0689
56569SOL    HW178675   0.177   4.731   6.515  0.3882 -0.5619  0.5253
56569SOL    HW278676   0.164   4.589   6.464 -0.1431 -0.2863 -0.1180
56570SOL     OW78677   3.579   5.071   4.585  0.2469  0.2202  0.1411
56570SOL    HW178678   3.495   5.098   4.549 -0.0812  0.2102  0.8899
56570SOL    HW278679   3.581   4.976   4.571 -0.5973 -0.0328  1.5874
56571SOL     OW78680   9.969   7.973   8.606  0.0007  0.1915 -0.0764
56571SOL    HW178681  10.021   8.007   8.534  1.3182  2.0701  1.6407
56571SOL    HW278682  10.014   7.893   8.633  0.1093  0.0554 -0.6614
56572SOL     OW78683  11.251   3.977   3.302  0.5820 -0.5506  0.0524
56572SOL    HW178684  11.252   4.066   3.337 -1.5913 -0.6959  0.6268
56572SOL    HW278685  11.291   3.985   3.216 -0.9138  1.3085 -0.5360
56573SOL     OW78686   5.862   1.941   0.232 -0.1230 -0.2081  0.4426
56573SOL    HW178687   5.921   1.959   0.158  0.2688  1.4632  1.1008
56573SOL    HW278688   5.804   2.017   0.235 -0.9169 -0.8223  1.1317
56574SOL     OW78689   6.284   1.979   5.963 -0.2129  0.6387  0.2684
56574SOL    HW178690   6.292   1.913   6.031  2.8991  0.9756  0.3776
56574SOL    HW278691   6.281   2.063   6.009 -0.3286  0.7561  0.0531
56575SOL     OW78692   4.730   2.609  12.176  0.8250 -0.1969 -0.3809
56575SOL    HW178693   4.823   2.627  12.190  0.6338 -0.8555  2.5430
56575SOL    HW278694   4.721   2.516  12.200 -0.7793  0.2348  0.8144
56576SOL     OW78695   6.483   9.040  10.120  0.0574  0.3462  0.1952
56576SOL    HW178696   6.415   8.997  10.068  1.3000 -1.3125 -0.1257
56576SOL    HW278697   6.533   9.091  10.056  1.5194 -1.6081 -0.3204
56577SOL     OW78698   9.976   9.923   6.018  0.4395 -0.3022  0.4392
56577SOL    HW178699   9.954   9.977   5.942 -1.6816 -0.2134  1.0440
56577SOL    HW278700  10.072   9.924   6.022  0.6563 -0.6767 -2.4716
56578SOL     OW78701   0.924   5.562   0.899 -0.1413 -0.4029  0.2099
56578SOL    HW178702   0.998   5.503   0.910  0.8964  0.3448 -2.0936
56578SOL    HW278703   0.945   5.639   0.953  0.4281 -0.4848  0.1052
56579SOL     OW78704   0.563   9.173   1.715 -0.1913  0.4311  0.4954
56579SOL    HW178705   0.491   9.173   1.779  0.0086 -0.3878  0.7290
56579SOL    HW278706   0.540   9.243   1.654 -0.9024  0.5545  0.8906
56580SOL     OW78707   1.945  10.926   3.720  0.3579  0.9336 -0.1606
56580SOL    HW178708   1.950  11.007   3.770  0.8700  1.0248 -0.3606
56580SOL    HW278709   1.858  10.929   3.680  1.0994  2.3324 -1.7598
56581SOL     OW78710   6.581   3.447   7.393  0.3214 -0.1941  0.4682
56581SOL    HW178711   6.541   3.375   7.442 -0.8249  0.1703  0.0940
56581SOL    HW278712   6.672   3.419   7.380 -0.2283 -1.8439 -0.1686
56582SOL     OW78713   0.281   8.122  10.076 -0.4848 -0.3189  0.4598
56582SOL    HW178714   0.336   8.150  10.002  0.5958 -0.8342  1.0454
56582SOL    HW278715   0.265   8.029  10.060  0.9294 -0.7851  1.5659
56583SOL     OW78716   5.301   9.625   2.482 -0.0578  0.2145 -0.2981
56583SOL    HW178717   5.341   9.606   2.567 -1.6801  0.3719  0.5594
56583SOL    HW278718   5.365   9.597   2.418  0.9904 -0.4353  0.9853
56584SOL     OW78719   7.092   6.438   6.601  0.3019 -0.0157 -0.1157
56584SOL    HW178720   7.009   6.401   6.632  0.9599 -1.1595  0.3366
56584SOL    HW278721   7.154   6.420   6.672  1.4209 -1.0861 -1.3151
56585SOL     OW78722   6.552   2.883  10.594 -0.3252  0.3992 -0.1287
56585SOL    HW178723   6.467   2.840  10.585 -0.3496 -0.0998  1.9423
56585SOL    HW278724   6.615   2.810  10.594 -0.1012  0.5876  0.4068
56586SOL     OW78725   5.279   2.227   4.331  0.2215  0.2849 -0.1506
56586SOL    HW178726   5.289   2.266   4.418 -0.2236 -1.5749  0.8001
56586SOL    HW278727   5.192   2.187   4.332  0.0003  0.6644 -1.6575
56587SOL     OW78728   3.420   4.395   4.470  0.1661  0.2202  0.3602
56587SOL    HW178729   3.462   4.340   4.403 -0.3354 -1.2301  1.1752
56587SOL    HW278730   3.493   4.429   4.522  0.4431 -1.0087  0.8151
56588SOL     OW78731  10.899   1.052  10.813 -0.6630  0.1727 -0.2313
56588SOL    HW178732  10.866   1.068  10.725  0.4191  1.3473 -0.4622
56588SOL    HW278733  10.962   1.123  10.828  0.4020 -0.9481  0.8381
56589SOL     OW78734   8.734   1.672  10.574 -0.2401  0.2059 -0.1206
56589SOL    HW178735   8.738   1.767  10.581  0.2207  0.1843 -0.0277
56589SOL    HW278736   8.659   1.647  10.627 -0.2876  0.5079 -0.0419
56590SOL     OW78737   1.455   2.223  12.074 -0.3950 -0.7797  0.3327
56590SOL    HW178738   1.385   2.220  12.009 -0.1555 -1.8188  0.1128
56590SOL    HW278739   1.536   2.230  12.023 -0.3486  1.4118  0.5993
56591SOL     OW78740   3.145   7.564   0.923 -0.4894  0.5820 -0.0952
56591SOL    HW178741   3.235   7.532   0.932  0.0872  2.2400  0.2429
56591SOL    HW278742   3.099   7.492   0.880  0.9290 -0.4011 -0.0471
56592SOL     OW78743   7.918   2.290   4.291  0.2136  0.2317 -0.2626
56592SOL    HW178744   7.917   2.248   4.377 -1.2737 -1.6225 -1.1339
56592SOL    HW278745   8.002   2.263   4.252 -0.2670 -1.1164 -0.4013
56593SOL     OW78746   4.345   1.892   5.296 -0.4864  0.3240 -0.2021
56593SOL    HW178747   4.367   1.953   5.226 -1.6833 -0.0032 -0.8929
56593SOL    HW278748   4.411   1.908   5.364  0.1479  1.2770 -1.0191
56594SOL     OW78749   0.663   0.346  12.462 -0.4938  0.3030  0.5177
56594SOL    HW178750   0.668   0.332  12.368  3.5020 -1.7909  0.8445
56594SOL    HW278751   0.668   0.258  12.500 -0.4929  1.1734  2.6940
56595SOL     OW78752  10.852   8.088   7.553  0.1741  0.0542  0.1593
56595SOL    HW178753  10.810   8.028   7.614 -0.6330  1.1870  0.7668
56595SOL    HW278754  10.835   8.051   7.467 -1.4005  0.0376  0.4426
56596SOL     OW78755   5.338   3.136   0.764 -0.2450  0.0348 -0.2144
56596SOL    HW178756   5.314   3.049   0.731 -1.0906  0.3071 -0.3238
56596SOL    HW278757   5.403   3.118   0.832  0.2919 -0.6283 -0.8759
56597SOL     OW78758  10.649   4.107  10.132 -0.1834 -0.0626 -0.0184
56597SOL    HW178759  10.696   4.148  10.205  3.6487 -1.1737 -1.6363
56597SOL    HW278760  10.604   4.180  10.089  1.0805  1.3475  0.9448
56598SOL     OW78761  12.174   4.992   2.074  1.0206  0.6745  0.3274
56598SOL    HW178762  12.123   4.944   2.009  0.7472  0.6882  0.5331
56598SOL    HW278763  12.261   4.952   2.070  0.8035  0.1787  0.4745
56599SOL     OW78764   0.738  11.011   1.424  0.1383 -0.2662 -0.3569
56599SOL    HW178765   0.757  11.082   1.485 -0.5919  0.9498 -1.4970
56599SOL    HW278766   0.817  10.957   1.425  1.6390  1.7715 -1.0751
56600SOL     OW78767   9.303  10.956   1.065  0.3655  0.0047 -0.6560
56600SOL    HW178768   9.268  10.944   1.153 -0.7192  1.6151 -0.8206
56600SOL    HW278769   9.292  10.871   1.023  0.9247 -0.7984  0.7462
56601SOL     OW78770   9.583  11.182   3.943 -0.2352  0.3683  0.2066
56601SOL    HW178771   9.500  11.134   3.952  0.2186 -0.7735 -1.3889
56601SOL    HW278772   9.644  11.118   3.906  0.7754  1.7923 -0.6756
56602SOL     OW78773   1.851   9.385   6.429 -0.0662  0.4571  0.1963
56602SOL    HW178774   1.913   9.435   6.375  1.4470 -0.3554  1.0985
56602SOL    HW278775   1.832   9.443   6.503 -2.3917  1.7001 -1.2664
56603SOL     OW78776   9.696   9.347   3.182  0.6928 -0.1737  0.5854
56603SOL    HW178777   9.749   9.275   3.216  0.3544 -0.1805  1.1179
56603SOL    HW278778   9.622   9.303   3.139  0.6783 -0.1484  0.5850
56604SOL     OW78779   1.595   8.380   3.757 -0.4385 -0.1475 -0.0663
56604SOL    HW178780   1.619   8.446   3.822 -2.1976 -2.0133  2.7051
56604SOL    HW278781   1.674   8.327   3.745 -0.6069 -1.0713  2.3406
56605SOL     OW78782   7.317   8.055   8.175  0.3989 -0.6148 -0.5211
56605SOL    HW178783   7.322   7.979   8.233  1.2708 -0.1814 -0.0107
56605SOL    HW278784   7.223   8.067   8.160 -0.1220  0.7721  2.8815
56606SOL     OW78785   7.550  11.329   1.525 -0.1589 -0.3181 -0.0544
56606SOL    HW178786   7.610  11.387   1.572 -1.5213  2.5431 -1.5965
56606SOL    HW278787   7.519  11.267   1.591  1.1527  0.8596  1.7528
56607SOL     OW78788   2.722   4.464   5.225  0.1685  0.0430  0.1656
56607SOL    HW178789   2.808   4.502   5.209 -0.3828  1.5347  0.6112
56607SOL    HW278790   2.661   4.538   5.220 -1.1423 -1.0227 -0.4522
56608SOL     OW78791   2.439   2.763   6.066  0.0074 -0.3186  0.4084
56608SOL    HW178792   2.433   2.845   6.017  3.1083 -0.0871  0.2034
56608SOL    HW278793   2.353   2.753   6.108 -0.1327  3.6561  1.4326
56609SOL     OW78794   5.468   6.261  12.139  0.1940 -0.8686  0.3767
56609SOL    HW178795   5.399   6.325  12.154  1.1179 -0.1345  1.7867
56609SOL    HW278796   5.427   6.176  12.158 -0.4761 -0.5029  0.6033
56610SOL     OW78797   9.526   0.670   7.054 -0.4188 -0.0692 -0.2197
56610SOL    HW178798   9.508   0.745   6.998 -0.9288 -0.2499 -0.3122
56610SOL    HW278799   9.496   0.594   7.003 -0.0685 -0.3152 -0.0623
56611SOL     OW78800   7.837   2.489  11.243  0.3736 -0.3900 -0.1488
56611SOL    HW178801   7.821   2.408  11.193 -0.6933 -1.0177  1.1572
56611SOL    HW278802   7.766   2.493  11.306  1.1088  0.9417  0.6445
56612SOL     OW78803   2.782   9.381   9.880  0.2682  0.7283  0.1813
56612SOL    HW178804   2.851   9.334   9.925 -0.3053 -1.1035 -0.7619
56612SOL    HW278805   2.813   9.388   9.789 -1.4375 -1.7093 -0.6976
56613SOL     OW78806   0.502   4.090   7.476  0.0504 -0.7520 -0.5185
56613SOL    HW178807   0.534   4.152   7.540 -2.1032 -0.9757  0.8678
56613SOL    HW278808   0.547   4.008   7.497 -0.8909 -0.9148  1.0017
56614SOL     OW78809   5.980   2.519   8.975 -0.0644  0.3219 -0.1946
56614SOL    HW178810   5.990   2.614   8.985  1.3000  0.1017  0.9339
56614SOL    HW278811   5.907   2.496   9.034  1.3364  0.3736  1.6632
56615SOL     OW78812   2.198   2.861   4.977  1.0066 -0.1825  0.0657
56615SOL    HW178813   2.130   2.920   5.007  1.0960  0.2227 -0.5124
56615SOL    HW278814   2.192   2.864   4.881  0.9938 -1.1303  0.0267
56616SOL     OW78815  12.160   5.731   1.742  0.0267  0.0378  0.2194
56616SOL    HW178816  12.110   5.700   1.817  1.9268  0.1036  1.5662
56616SOL    HW278817  12.208   5.654   1.711  1.1457  0.5450  0.6369
56617SOL     OW78818   9.801   2.462   5.497 -0.1635 -0.7172  0.6017
56617SOL    HW178819   9.882   2.470   5.447 -0.0434 -1.9082  0.5844
56617SOL    HW278820   9.792   2.368   5.514 -0.9733 -0.4878  1.5399
56618SOL     OW78821   2.884   5.928   9.820  0.4012  0.0004  0.2220
56618SOL    HW178822   2.945   5.950   9.890  2.9925  3.8649 -2.7905
56618SOL    HW278823   2.940   5.906   9.745 -2.1214 -1.6082 -1.3625
56619SOL     OW78824  10.575   5.392   8.156 -0.4141  0.2149  0.3865
56619SOL    HW178825  10.627   5.431   8.086  0.5955 -0.4650  0.7365
56619SOL    HW278826  10.568   5.461   8.221  0.3299  0.2269  0.4675
56620SOL     OW78827  11.189  11.648  10.231  0.2404 -0.2241  0.4922
56620SOL    HW178828  11.163  11.659  10.322 -0.5918 -0.0845  0.2467
56620SOL    HW278829  11.114  11.679  10.181  1.1157  0.7685 -0.2562
56621SOL     OW78830   7.841   3.003   5.925  0.2724 -1.0887  0.2451
56621SOL    HW178831   7.893   2.936   5.969  1.5641 -0.2791 -0.0088
56621SOL    HW278832   7.851   3.081   5.978  2.2717  0.0484 -1.6437
56622SOL     OW78833  12.572   9.713  11.870  0.2104 -0.0193 -0.7176
56622SOL    HW178834  12.625   9.783  11.907  1.6429 -0.2152 -2.2820
56622SOL    HW278835  12.502   9.759  11.822  0.5151  0.3220 -0.8418
56623SOL     OW78836   9.272   1.482   8.022  0.2680  0.7546 -0.7188
56623SOL    HW178837   9.215   1.406   8.009  1.4636 -0.4984  0.9329
56623SOL    HW278838   9.223   1.555   7.983 -1.8511 -0.4886 -0.5781
56624SOL     OW78839   0.229  11.727  12.093 -0.8755 -0.3331  0.2772
56624SOL    HW178840   0.285  11.797  12.126 -0.3680  0.1227 -1.4670
56624SOL    HW278841   0.240  11.656  12.156  1.1781 -0.0381  0.3008
56625SOL     OW78842   2.008   4.482   6.015  0.2998  0.2658 -0.3822
56625SOL    HW178843   1.986   4.566   5.976  1.0882  0.1612 -1.0670
56625SOL    HW278844   2.098   4.465   5.989 -0.3193 -1.5175 -1.5856
56626SOL     OW78845   5.972   2.834   8.184  0.0745  0.0408 -0.4042
56626SOL    HW178846   5.910   2.766   8.210  0.1725 -0.1161 -0.5778
56626SOL    HW278847   6.053   2.811   8.229 -0.8961  2.1963  2.6891
56627SOL     OW78848   9.800   2.810   2.200  0.3326  0.4506 -0.0182
56627SOL    HW178849   9.869   2.770   2.252  0.6997  1.1313  0.0347
56627SOL    HW278850   9.747   2.737   2.169 -0.5298  0.0645  2.2007
56628SOL     OW78851   5.009   3.014   2.420 -0.1227  0.0127 -0.3481
56628SOL    HW178852   5.084   3.042   2.473  0.2096  0.6284 -1.1223
56628SOL    HW278853   4.988   3.090   2.366  1.7241 -1.5170 -3.5650
56629SOL     OW78854   8.027  10.697   1.464  0.1647  0.2781 -0.1492
56629SOL    HW178855   7.978  10.619   1.439  0.3347  0.7748 -2.2615
56629SOL    HW278856   8.118  10.676   1.443  0.1389  1.2051 -1.3235
56630SOL     OW78857   7.076  11.322   1.779  0.2533  0.2531  0.2049
56630SOL    HW178858   6.995  11.331   1.728  0.2792 -1.9101 -0.3063
56630SOL    HW278859   7.113  11.410   1.781  0.0042  0.5444 -3.0906
56631SOL     OW78860   7.162  10.766   9.750 -0.1579 -0.2046  0.7146
56631SOL    HW178861   7.228  10.834   9.759 -1.0214  0.4854  2.2984
56631SOL    HW278862   7.111  10.771   9.832 -2.8666  0.0653 -0.8716
56632SOL     OW78863  11.567   9.112   1.400  0.2502  0.2226 -1.0549
56632SOL    HW178864  11.663   9.122   1.396  0.4268 -1.5165 -2.1316
56632SOL    HW278865  11.543   9.082   1.312 -1.1801 -0.2458 -0.5224
56633SOL     OW78866   1.486   5.220   0.040 -0.0874  0.2544  0.0302
56633SOL    HW178867   1.550   5.282   0.075  0.8990 -0.6793 -0.0505
56633SOL    HW278868   1.490   5.145   0.100 -0.2717 -0.2866 -0.6185
56634SOL     OW78869   1.543   0.367   9.037 -0.7643 -0.0642  0.7831
56634SOL    HW178870   1.472   0.386   9.098 -2.6537  0.3575 -1.4114
56634SOL    HW278871   1.514   0.287   8.992 -1.0402  1.3404 -1.7121
56635SOL     OW78872  10.720   2.781   6.582 -0.4671 -0.0801  0.1565
56635SOL    HW178873  10.706   2.816   6.670 -1.3748 -0.3960  0.1405
56635SOL    HW278874  10.783   2.710   6.594  0.1630  0.5081  0.4073
56636SOL     OW78875   3.410   0.693  11.641  0.0517 -0.0624  0.1072
56636SOL    HW178876   3.368   0.724  11.561  0.2281  0.5568  0.2464
56636SOL    HW278877   3.338   0.658  11.694 -0.1913  0.3486  0.0532
56637SOL     OW78878   2.627  11.962   4.118 -0.7082 -0.0750 -0.1702
56637SOL    HW178879   2.653  11.941   4.028  1.1658  3.6318 -0.6651
56637SOL    HW278880   2.709  11.956   4.167 -1.4059 -0.3977  0.9884
56638SOL     OW78881  11.503  12.526   3.708 -0.0297  0.3252 -0.0223
56638SOL    HW178882  11.588  12.540   3.749 -0.0846  1.2103 -0.1948
56638SOL    HW278883  11.523  12.477   3.628  0.3863  0.9853 -0.3359
56639SOL     OW78884  12.500   1.189   0.017 -0.0352  0.1458  0.0409
56639SOL    HW178885  12.510   1.200  -0.078 -1.4820  0.8526 -0.0517
56639SOL    HW278886  12.460   1.270   0.047 -2.1585 -1.1143  0.8273
56640SOL     OW78887   8.868   1.428  12.324 -0.4913  0.7145 -0.2247
56640SOL    HW178888   8.846   1.482  12.399 -0.5536  2.2517 -1.3060
56640SOL    HW278889   8.961   1.443  12.309 -1.1591  3.4637 -2.6540
56641SOL     OW78890   7.808   7.935   2.658 -0.4054  0.6076  0.2366
56641SOL    HW178891   7.727   7.887   2.672 -0.0386 -0.2107 -0.3395
56641SOL    HW278892   7.801   7.970   2.569  1.0853 -2.0601 -1.0767
56642SOL     OW78893   8.740  11.111   2.594  0.4579  0.2090  0.3916
56642SOL    HW178894   8.736  11.204   2.616 -0.4937  0.5243 -0.9836
56642SOL    HW278895   8.794  11.073   2.663  1.2421  1.8446  0.7428
56643SOL     OW78896  11.657   6.583   6.007  0.1708 -0.3201  0.0164
56643SOL    HW178897  11.745   6.585   5.968  0.0700 -1.4339 -0.2899
56643SOL    HW278898  11.599   6.568   5.933 -0.3076  0.5735  0.1995
56644SOL     OW78899  10.568   7.950   6.420 -0.5756 -0.3737  0.1458
56644SOL    HW178900  10.518   7.876   6.385 -0.9197  0.1073 -0.3911
56644SOL    HW278901  10.515   8.027   6.398  0.1712  0.0985 -0.0158
56645SOL     OW78902   9.841   8.208   6.015 -0.4658 -1.0191  0.1653
56645SOL    HW178903   9.879   8.127   5.981 -0.2593 -0.2399 -1.5704
56645SOL    HW278904   9.888   8.278   5.969 -1.4919  0.0601  0.7027
56646SOL     OW78905   1.938   5.690  11.340  0.0084 -0.2101 -0.1990
56646SOL    HW178906   1.922   5.669  11.248 -2.2862  0.7356 -0.0768
56646SOL    HW278907   1.953   5.605  11.382  0.1239 -0.7320 -1.2669
56647SOL     OW78908   4.492   6.599   0.541  0.0819 -0.4175  0.1937
56647SOL    HW178909   4.471   6.692   0.529  0.4513 -0.3450  0.0983
56647SOL    HW278910   4.551   6.597   0.617 -1.0327 -0.7218  1.0800
56648SOL     OW78911   4.061   4.964   1.840  0.1908 -0.0222  0.0998
56648SOL    HW178912   4.044   4.896   1.774 -0.7495  0.1223  0.1682
56648SOL    HW278913   4.083   5.042   1.788  0.3799 -0.1496 -0.0118
56649SOL     OW78914   6.505   5.064   7.797 -0.5482  0.7390  0.8593
56649SOL    HW178915   6.495   5.025   7.884  0.2887 -2.6172 -0.3798
56649SOL    HW278916   6.591   5.106   7.800  0.9911 -2.1443  0.8518
56650SOL     OW78917   3.413   8.473  12.597  0.5283 -0.0361  0.1506
56650SOL    HW178918   3.466   8.420  12.537 -0.8451 -0.6127 -0.6091
56650SOL    HW278919   3.428   8.434  12.683  0.2718 -1.0853 -0.2651
56651SOL     OW78920   9.399  12.578   9.161 -0.1192  0.1727 -0.3196
56651SOL    HW178921   9.392  12.647   9.228 -1.3025 -0.3694  0.1592
56651SOL    HW278922   9.460  12.515   9.198 -0.6845 -0.0715  0.2317
56652SOL     OW78923  12.522   6.468  10.173 -0.7088  0.3178  0.4173
56652SOL    HW178924  12.555   6.550  10.211  0.7076  0.1571 -0.4061
56652SOL    HW278925  12.488   6.419  10.248 -0.7896  1.2859  1.0362
56653SOL     OW78926  11.521   6.587   3.824  0.0122  0.4427  0.1705
56653SOL    HW178927  11.514   6.666   3.770  0.9989 -0.0864 -0.7814
56653SOL    HW278928  11.469   6.606   3.902  1.3417  2.5975  0.6246
56654SOL     OW78929   3.021   7.372   0.802  0.1544 -0.2660  0.1315
56654SOL    HW178930   2.929   7.346   0.799 -0.4078  1.4184  1.4782
56654SOL    HW278931   3.068   7.300   0.758 -1.8368 -0.8687 -1.1176
56655SOL     OW78932   3.120   1.541  12.002 -0.1329 -0.0667 -0.1367
56655SOL    HW178933   3.172   1.589  12.067 -2.0749  0.3367  1.1957
56655SOL    HW278934   3.042   1.513  12.050 -1.1982 -0.5658 -2.0827
56656SOL     OW78935   4.598   9.940   9.026 -0.0580 -0.2171 -0.0875
56656SOL    HW178936   4.515   9.903   9.056  0.3271 -0.1273  1.1239
56656SOL    HW278937   4.665   9.891   9.073  0.6139 -0.5070 -1.2880
56657SOL     OW78938   1.353   4.434   7.957  0.2046  0.2713  0.1791
56657SOL    HW178939   1.393   4.405   8.040  2.5918 -0.0799 -0.9926
56657SOL    HW278940   1.401   4.513   7.934 -1.7260  1.4478  0.0128
56658SOL     OW78941   0.381  12.146   6.780 -0.3822 -0.1902 -0.6427
56658SOL    HW178942   0.360  12.236   6.755 -0.1931 -0.2129 -0.8946
56658SOL    HW278943   0.437  12.114   6.709 -1.2245 -0.8274 -1.0385
56659SOL     OW78944   6.158   8.689   1.686 -0.5430 -0.3795 -0.2762
56659SOL    HW178945   6.152   8.606   1.734  1.0570  0.3184  1.2180
56659SOL    HW278946   6.075   8.732   1.704 -1.4743 -1.7017 -1.2193
56660SOL     OW78947  12.593   7.996   6.622 -0.7581  0.2699 -0.0998
56660SOL    HW178948  12.669   8.052   6.637  0.0163 -0.6697 -0.3894
56660SOL    HW278949  12.626   7.926   6.565 -1.1285 -1.5977  1.8227
56661SOL     OW78950   1.715   2.642  11.803  0.4715 -0.7015 -0.0017
56661SOL    HW178951   1.699   2.603  11.717  2.6834  2.8172 -2.2614
56661SOL    HW278952   1.810   2.642  11.812  0.3626  0.7416  1.6021
56662SOL     OW78953   1.617   9.283   4.021  0.7746  0.0904 -0.5932
56662SOL    HW178954   1.633   9.228   3.944  1.4711  1.2493 -1.3068
56662SOL    HW278955   1.705   9.308   4.051  0.4774  1.0224 -0.4527
56663SOL     OW78956  11.329   0.290   3.209  0.1103 -0.5790 -0.1985
56663SOL    HW178957  11.387   0.340   3.267 -0.6929 -0.9482  0.9718
56663SOL    HW278958  11.264   0.252   3.268 -1.0340 -0.5770 -1.4146
56664SOL     OW78959   4.314  11.027   7.914  0.5229 -0.1356  0.5781
56664SOL    HW178960   4.286  10.996   8.000  1.0539 -3.1977 -0.2578
56664SOL    HW278961   4.409  11.012   7.912  0.6898  0.8736 -0.2011
56665SOL     OW78962   3.735   5.127  11.940 -0.4401 -0.2477  0.2638
56665SOL    HW178963   3.717   5.214  11.976 -0.5421  0.8868 -2.3442
56665SOL    HW278964   3.655   5.104  11.894  0.1974 -0.9486 -0.5163
56666SOL     OW78965   4.261   4.434   2.507  0.6994 -0.2596 -0.8757
56666SOL    HW178966   4.355   4.442   2.496  0.7146 -1.0042 -1.3754
56666SOL    HW278967   4.224   4.471   2.428  0.5679  0.0785 -0.6576
56667SOL     OW78968   8.097   7.450   2.999 -0.0193  0.2472 -0.5505
56667SOL    HW178969   8.126   7.382   3.059  0.3477  0.3277 -0.6378
56667SOL    HW278970   8.023   7.492   3.045 -0.0045  0.0390 -0.3353
56668SOL     OW78971   5.153   6.232   8.988  0.0686 -0.2183  0.3636
56668SOL    HW178972   5.112   6.145   8.990 -0.4452 -0.0057 -0.7258
56668SOL    HW278973   5.080   6.293   8.993  0.4917  0.1896  2.3996
56669SOL     OW78974   9.303   2.003   4.012 -0.0252 -0.1312 -0.4284
56669SOL    HW178975   9.366   1.993   4.084  1.6175  1.6856 -1.5230
56669SOL    HW278976   9.259   1.918   4.007  3.6090 -2.1872 -0.7192
56670SOL     OW78977   5.880   9.778   0.564  0.1527 -0.6743 -0.0814
56670SOL    HW178978   5.970   9.784   0.532  0.4471  0.6348  0.9075
56670SOL    HW278979   5.836   9.854   0.524 -0.3459 -0.9366 -0.0365
56671SOL     OW78980   9.964   7.602  11.772 -0.1524  0.2712  0.1684
56671SOL    HW178981   9.931   7.530  11.718  0.9508 -0.2542  0.1687
56671SOL    HW278982   9.949   7.680  11.718  1.4649 -0.2970 -1.2066
56672SOL     OW78983  12.283  10.718  10.814 -0.1666 -0.5522  0.7615
56672SOL    HW178984  12.356  10.656  10.823 -0.3296 -0.9166 -0.2542
56672SOL    HW278985  12.225  10.677  10.750 -0.0574  0.8461 -0.2719
56673SOL     OW78986   1.902   3.620   0.715 -0.5086 -0.0580 -0.2387
56673SOL    HW178987   1.844   3.693   0.695  1.0783  0.8500 -1.7831
56673SOL    HW278988   1.890   3.559   0.643 -0.9906 -0.8123  0.4666
56674SOL     OW78989   2.421   0.406   9.528 -0.4275  0.0889 -0.4569
56674SOL    HW178990   2.329   0.384   9.516 -0.5224 -0.7446  1.3564
56674SOL    HW278991   2.421   0.467   9.602  0.3474  1.4837 -1.5853
56675SOL     OW78992   3.400  11.810  11.386  0.3672 -0.9028 -0.3899
56675SOL    HW178993   3.399  11.894  11.341  1.4012 -1.2041 -1.0111
56675SOL    HW278994   3.422  11.831  11.477 -0.4934 -0.4063 -0.2933
56676SOL     OW78995   5.002   8.301   8.046  0.4383 -0.1670  0.0533
56676SOL    HW178996   5.021   8.281   8.137  1.2874 -0.0588 -0.0924
56676SOL    HW278997   5.058   8.242   7.996  1.4557  1.1066 -0.3790
56677SOL     OW78998   6.627   0.945   2.384  1.1393  0.4904  0.3929
56677SOL    HW178999   6.589   1.033   2.383 -1.9739 -0.7227  0.2423
56677SOL    HW279000   6.672   0.937   2.300 -0.7280  1.1368 -0.7292
56678SOL     OW79001   0.251  12.416   5.689 -0.0784 -0.4641 -0.2552
56678SOL    HW179002   0.197  12.493   5.702  0.4413 -0.1573  0.1378
56678SOL    HW279003   0.208  12.367   5.619 -0.3089  0.2707 -0.6284
56679SOL     OW79004   3.750  12.462   7.211 -0.1079  0.0579  0.2896
56679SOL    HW179005   3.749  12.373   7.247 -1.6295  0.2860  0.8912
56679SOL    HW279006   3.707  12.515   7.278 -0.4472  1.0056 -0.6511
56680SOL     OW79007   6.342  11.968   5.441 -0.4635 -0.0025 -0.3322
56680SOL    HW179008   6.435  11.977   5.423 -0.9381  1.1939 -2.5472
56680SOL    HW279009   6.333  11.879   5.475  1.7026  0.5579  2.0256
56681SOL     OW79010  12.174   6.145   1.469  0.0688  0.0137  0.1436
56681SOL    HW179011  12.199   6.209   1.536 -0.4516 -0.0507  0.4039
56681SOL    HW279012  12.109   6.192   1.416  0.4749  0.0631 -0.3122
56682SOL     OW79013   8.116   3.373  12.293 -0.5308  0.0591  0.1338
56682SOL    HW179014   8.099   3.443  12.357 -0.5123  0.9754 -0.8493
56682SOL    HW279015   8.029   3.351  12.258 -0.4976 -0.2076  0.2104
56683SOL     OW79016  12.064   7.390   2.471 -0.5541  0.0862  0.3046
56683SOL    HW179017  12.030   7.335   2.400 -0.6203 -1.3034  1.3753
56683SOL    HW279018  12.020   7.474   2.459 -3.2471 -1.1574  0.7015
56684SOL     OW79019  11.705  10.473   3.621 -0.3401 -0.2697  0.1406
56684SOL    HW179020  11.639  10.456   3.554  1.7745  1.1858 -2.5252
56684SOL    HW279021  11.694  10.567   3.641 -0.7243 -0.6107  1.6813
56685SOL     OW79022  12.428   3.813   3.067 -0.1878  0.1744  0.7207
56685SOL    HW179023  12.476   3.895   3.070 -0.6040  0.3812  3.0625
56685SOL    HW279024  12.380   3.817   2.984  2.4601  0.6701 -0.9373
56686SOL     OW79025   0.615   0.336   8.021  0.3271  0.3697 -0.6255
56686SOL    HW179026   0.544   0.273   8.005 -0.8449  1.3349  0.5154
56686SOL    HW279027   0.693   0.294   7.986 -0.5908 -1.2938 -0.7743
56687SOL     OW79028   8.579  10.270   7.249  0.0662  0.4099  0.0521
56687SOL    HW179029   8.524  10.191   7.241 -0.7636  0.9145  0.5795
56687SOL    HW279030   8.519  10.337   7.281  0.7991  1.2255 -0.2559
56688SOL     OW79031   4.867   3.530   2.753  0.3195  0.2872 -0.0911
56688SOL    HW179032   4.922   3.468   2.706 -2.3412 -3.4342  1.2142
56688SOL    HW279033   4.927   3.597   2.785  3.4189 -1.4552 -1.8307
56689SOL     OW79034   8.091   1.070   4.652  0.4385  0.2743 -0.4980
56689SOL    HW179035   8.071   1.150   4.603  1.0466  0.1206 -1.0149
56689SOL    HW279036   8.060   0.999   4.595  1.4602  0.0793 -0.8511
56690SOL     OW79037  11.167   1.915   1.529  0.5418 -0.7452 -0.0346
56690SOL    HW179038  11.126   1.932   1.614 -0.2352 -0.7837 -0.4005
56690SOL    HW279039  11.232   1.847   1.548 -1.5895 -2.8645  0.0287
56691SOL     OW79040   7.498  10.725   4.886 -0.4176  0.4417 -0.1133
56691SOL    HW179041   7.506  10.700   4.978 -1.5253 -3.2648 -0.8388
56691SOL    HW279042   7.562  10.669   4.841 -2.9045 -1.1426 -1.9348
56692SOL     OW79043   0.960   5.204   7.869  0.3214  0.2574  0.5004
56692SOL    HW179044   0.919   5.154   7.799  0.7170 -0.0949  0.5210
56692SOL    HW279045   0.934   5.295   7.852  0.3045  0.1569 -0.0206
56693SOL     OW79046  10.503   6.940   4.056 -0.0877  0.0676  0.0216
56693SOL    HW179047  10.572   6.960   4.119 -2.1147  2.7460  1.6340
56693SOL    HW279048  10.509   7.010   3.991 -1.4300  0.5419  0.3730
56694SOL     OW79049   8.053  11.274   7.085  0.5213  0.1721 -0.3404
56694SOL    HW179050   8.035  11.229   7.002  2.0912  0.8248 -1.0822
56694SOL    HW279051   7.969  11.273   7.132  0.0527 -1.8295 -1.1268
56695SOL     OW79052   3.772   9.789   0.050  0.6725 -0.3318  0.7020
56695SOL    HW179053   3.706   9.795  -0.018 -0.4822 -1.4053  1.6683
56695SOL    HW279054   3.807   9.878   0.058 -0.6258  0.2522  0.1351
56696SOL     OW79055   4.253   4.159   3.670  0.3915 -0.1273  0.2624
56696SOL    HW179056   4.193   4.231   3.691  0.2226  0.3445 -1.6846
56696SOL    HW279057   4.195   4.089   3.638  0.8481  0.3912 -1.7912
56697SOL     OW79058   7.216   8.665   2.774  0.3599  0.3228 -0.2523
56697SOL    HW179059   7.176   8.578   2.777 -1.1154  0.9167 -1.5178
56697SOL    HW279060   7.205   8.700   2.863 -1.0109  0.0486 -0.3021
56698SOL     OW79061   0.304  10.124   1.817  0.1668  0.3364 -0.3203
56698SOL    HW179062   0.384  10.138   1.767  1.9200  1.7467  2.6190
56698SOL    HW279063   0.326  10.054   1.879 -1.5765 -0.6532 -0.7434
56699SOL     OW79064   5.777   5.550   6.994  0.0255 -0.2354  0.0927
56699SOL    HW179065   5.722   5.517   6.922  0.4342  2.1114 -1.4115
56699SOL    HW279066   5.719   5.607   7.044  0.6318  1.0886 -0.6408
56700SOL     OW79067   2.297   4.383   8.165 -0.0878 -0.0585  0.7303
56700SOL    HW179068   2.257   4.320   8.225 -2.1184  0.2080 -0.2567
56700SOL    HW279069   2.347   4.442   8.221 -0.9614 -0.5140  2.0323
56701SOL     OW79070   1.897   5.975   7.383  0.0451  0.2772  0.5966
56701SOL    HW179071   1.966   5.997   7.320 -0.8302  0.6882 -0.2385
56701SOL    HW279072   1.861   5.892   7.350 -0.2914  0.3947  0.6730
56702SOL     OW79073   4.266   8.290   0.937 -0.5073  0.0686  0.8218
56702SOL    HW179074   4.323   8.242   0.996 -0.3787 -1.0312 -0.1523
56702SOL    HW279075   4.293   8.262   0.849 -2.7397 -0.7656  0.3234
56703SOL     OW79076  10.127   0.663   9.081 -0.2706 -0.3253  0.1748
56703SOL    HW179077  10.044   0.633   9.044 -1.2115  0.9672  1.1274
56703SOL    HW279078  10.136   0.614   9.163  0.1438 -0.7862 -0.1411
56704SOL     OW79079   8.313   2.729   1.625 -0.3077  0.2644 -0.3610
56704SOL    HW179080   8.319   2.808   1.677  2.0438 -0.7340  1.0058
56704SOL    HW279081   8.372   2.744   1.551  0.9915 -0.5931  0.4801
56705SOL     OW79082  11.168   2.180   3.184 -0.1525  0.4276  0.0763
56705SOL    HW179083  11.124   2.181   3.099  1.3788 -1.2096 -0.7944
56705SOL    HW279084  11.225   2.103   3.181  0.1171  0.4560  2.5169
56706SOL     OW79085  10.342   0.715   3.729  0.0792 -0.0048 -0.0070
56706SOL    HW179086  10.292   0.745   3.653 -0.8204  1.2183  1.0231
56706SOL    HW279087  10.290   0.742   3.804  0.3068 -2.3154  1.0754
56707SOL     OW79088   6.414   4.265   0.249 -0.1071  0.3635  0.2544
56707SOL    HW179089   6.502   4.283   0.281  0.1239 -0.4649  0.0799
56707SOL    HW279090   6.357   4.287   0.323  0.2404  0.8394  0.3875
56708SOL     OW79091   7.625   0.646   3.366 -0.6066  0.0584  1.1152
56708SOL    HW179092   7.615   0.629   3.272  2.2533  2.5582  0.2103
56708SOL    HW279093   7.554   0.596   3.407 -1.2106 -2.1369 -2.2222
56709SOL     OW79094   6.888   7.030   2.938  0.9054 -0.1991 -0.2795
56709SOL    HW179095   6.837   6.959   2.898 -1.7199  1.4194 -0.0455
56709SOL    HW279096   6.911   7.087   2.864 -1.0773  1.0783  0.0360
56710SOL     OW79097  12.231  12.271  11.924 -0.1369  0.0996  0.2431
56710SOL    HW179098  12.208  12.267  11.831  1.2729 -2.1584 -0.0725
56710SOL    HW279099  12.316  12.314  11.927  0.4124 -0.9547  0.3238
56711SOL     OW79100   6.602   6.919   1.064 -0.3259 -0.2654 -0.0714
56711SOL    HW179101   6.515   6.926   1.026 -0.5490 -0.0194  0.4582
56711SOL    HW279102   6.590   6.863   1.141 -0.4078  1.2081  1.0514
56712SOL     OW79103   9.783   9.482  10.405 -0.3116  0.1745  0.0970
56712SOL    HW179104   9.730   9.560  10.422 -0.5230 -0.1301  0.8714
56712SOL    HW279105   9.833   9.503  10.326  0.7672  1.6895  1.1256
56713SOL     OW79106   6.615  12.081  11.396 -0.4091 -0.1563 -0.0230
56713SOL    HW179107   6.534  12.088  11.447 -0.7077  1.2457 -0.6581
56713SOL    HW279108   6.587  12.086  11.305  0.3531 -0.2372 -0.2681
56714SOL     OW79109  10.530   1.893   5.203  0.0105 -0.1957  0.4284
56714SOL    HW179110  10.598   1.951   5.239 -0.4243  0.9177 -0.4728
56714SOL    HW279111  10.481   1.863   5.279  0.6840  0.0568  0.9720
56715SOL     OW79112  11.484  11.070  10.228  0.5077 -0.2255  0.8969
56715SOL    HW179113  11.450  11.026  10.306  0.7864  0.0119  1.1549
56715SOL    HW279114  11.538  11.141  10.262 -0.5621  0.8158  0.4992
56716SOL     OW79115   9.708   2.595   5.145 -0.8404 -0.0552  0.6535
56716SOL    HW179116   9.691   2.504   5.171 -1.8179  0.4562  1.8729
56716SOL    HW279117   9.644   2.647   5.193  2.8910  1.8713  4.2147
56717SOL     OW79118   6.897  10.115  12.396 -0.3265 -0.2893 -0.1432
56717SOL    HW179119   6.812  10.104  12.437 -0.4114  0.7183 -0.0180
56717SOL    HW279120   6.930  10.199  12.429  0.1763 -0.0772 -1.1112
56718SOL     OW79121   9.048   6.711   0.959  0.3685 -0.1873  0.2804
56718SOL    HW179122   8.972   6.688   1.012  0.6851 -2.3639 -0.1122
56718SOL    HW279123   9.035   6.663   0.877  0.2620  2.4748 -1.4055
56719SOL     OW79124   0.604   6.376   5.631  0.3264  0.3264 -0.6676
56719SOL    HW179125   0.669   6.306   5.639 -0.2623  0.0283  3.0027
56719SOL    HW279126   0.644   6.450   5.676 -1.6254  0.2682  1.2693
56720SOL     OW79127   8.571   5.401   7.617  0.0401  0.1452 -0.6230
56720SOL    HW179128   8.645   5.398   7.677 -0.5052 -1.4101  0.0235
56720SOL    HW279129   8.555   5.494   7.602  0.1966  0.5898  1.6409
56721SOL     OW79130   8.613   6.160  11.761  0.4587 -0.1149  0.2582
56721SOL    HW179131   8.621   6.094  11.830 -0.4443 -2.4254 -1.6711
56721SOL    HW279132   8.519   6.170  11.748  0.5962 -0.1814 -0.9846
56722SOL     OW79133   4.861   4.699  10.822  0.3957  0.1276  0.1128
56722SOL    HW179134   4.886   4.792  10.819  0.9126 -0.0248 -0.4445
56722SOL    HW279135   4.836   4.684  10.913 -1.6608  1.3120 -0.1898
56723SOL     OW79136   4.247  12.555   8.311 -0.3471 -0.2060  0.0515
56723SOL    HW179137   4.340  12.542   8.329 -0.7043 -0.4464  1.9697
56723SOL    HW279138   4.245  12.608   8.231  1.4499  0.6353  0.5079
56724SOL     OW79139   4.871   5.208   0.618  0.1137 -0.0759 -0.2203
56724SOL    HW179140   4.866   5.174   0.708 -0.1245 -0.2699 -0.3064
56724SOL    HW279141   4.783   5.196   0.583  0.2632 -0.1985 -0.5553
56725SOL     OW79142   5.018   3.096   3.827  0.2863  0.2032  0.3019
56725SOL    HW179143   5.066   3.016   3.805 -0.0197  0.0416  0.2127
56725SOL    HW279144   4.940   3.092   3.771  1.6155  1.9573 -1.8767
56726SOL     OW79145   0.772   0.990   2.155 -0.3231 -0.5012 -0.0528
56726SOL    HW179146   0.865   1.014   2.151 -0.6193  0.6278 -0.5335
56726SOL    HW279147   0.764   0.915   2.097  0.0325  0.3022 -1.1668
56727SOL     OW79148   1.343   2.674   1.932  0.2004  0.4462 -0.1329
56727SOL    HW179149   1.262   2.719   1.909 -0.0310  0.6696  1.0675
56727SOL    HW279150   1.382   2.650   1.847 -0.5325  1.3508 -0.7421
56728SOL     OW79151  10.420   9.442   2.408 -0.4819  0.1936  0.1800
56728SOL    HW179152  10.382   9.513   2.356  0.8375 -0.5734 -1.9919
56728SOL    HW279153  10.444   9.375   2.344  0.4506 -1.2291  1.9017
56729SOL     OW79154   1.917   3.607   2.039  0.3353  0.7706 -0.2607
56729SOL    HW179155   1.921   3.556   2.120 -0.4032 -3.7595 -2.7400
56729SOL    HW279156   2.007   3.606   2.005  0.4070  1.5875 -0.1118
56730SOL     OW79157   4.865   7.051   3.825 -0.1611 -0.1779  0.0760
56730SOL    HW179158   4.804   7.043   3.752 -0.2299  0.8015  0.0091
56730SOL    HW279159   4.892   6.961   3.844  0.4314 -0.3942 -1.6285
56731SOL     OW79160   8.857   0.105   3.670 -0.2683 -0.1247 -0.5382
56731SOL    HW179161   8.911   0.102   3.592  0.3951  3.1326 -0.3480
56731SOL    HW279162   8.801   0.028   3.664  0.6064 -0.6402 -3.5587
56732SOL     OW79163  11.584   9.459   4.583  0.0354 -0.4589  0.4752
56732SOL    HW179164  11.675   9.473   4.557  0.8404  1.6469  3.8838
56732SOL    HW279165  11.588   9.393   4.653 -1.1062 -0.5230  0.5022
56733SOL     OW79166   3.787   6.119   8.422 -0.5431  0.2129  0.2086
56733SOL    HW179167   3.876   6.151   8.432  0.9006 -3.7503  2.5067
56733SOL    HW279168   3.747   6.132   8.508 -0.8367 -1.3759  0.3391
56734SOL     OW79169  11.856   8.959  11.739 -0.2552  0.2696  0.2517
56734SOL    HW179170  11.858   8.925  11.828 -0.3370  0.7678  0.4420
56734SOL    HW279171  11.948   8.976  11.718 -0.1594 -0.5071 -0.0192
56735SOL     OW79172   4.669   5.118   1.788  0.0135 -0.4113 -0.3142
56735SOL    HW179173   4.745   5.063   1.810  1.3900  1.4501 -0.2008
56735SOL    HW279174   4.634   5.146   1.872  1.0079  1.0568 -0.3539
56736SOL     OW79175   4.639   4.359   6.120  0.0696  0.2437 -0.1057
56736SOL    HW179176   4.705   4.303   6.162  1.0924  1.6624  0.2221
56736SOL    HW279177   4.558   4.308   6.126  0.6812 -0.6116  1.4429
56737SOL     OW79178   9.489   7.108   0.248  1.0118  0.2157 -0.1901
56737SOL    HW179179   9.424   7.172   0.219  0.6516 -0.4789 -1.0024
56737SOL    HW279180   9.573   7.150   0.233  0.7703  1.0082  0.5751
56738SOL     OW79181  10.644   0.684  10.283  0.0909 -0.0896 -0.3877
56738SOL    HW179182  10.642   0.780  10.284 -0.4863 -0.0854 -0.9889
56738SOL    HW279183  10.664   0.659  10.373 -1.3991  0.5738  0.1650
56739SOL     OW79184  10.398   2.382   7.304 -0.0434 -0.4503 -0.7604
56739SOL    HW179185  10.382   2.287   7.304  0.5415 -0.5717  0.6100
56739SOL    HW279186  10.376   2.410   7.215  2.3286 -2.3384 -2.0829
56740SOL     OW79187   1.434   1.435  11.500 -0.2772  0.6157  0.3698
56740SOL    HW179188   1.493   1.492  11.548  1.0986  0.6106 -1.2054
56740SOL    HW279189   1.356   1.488  11.486  0.2919  1.5057  0.4442
56741SOL     OW79190   2.430   7.103   9.098  0.3037 -0.4406 -0.2656
56741SOL    HW179191   2.396   7.103   9.009 -0.3600 -0.1167 -0.0163
56741SOL    HW279192   2.381   7.034   9.142  0.0078 -0.0193  0.0763
56742SOL     OW79193   5.902   9.101   5.161 -0.1449  0.5967 -0.1515
56742SOL    HW179194   5.872   9.016   5.130 -0.2446  0.5530  0.0618
56742SOL    HW279195   5.843   9.122   5.234 -0.4282  1.0650 -0.5084
56743SOL     OW79196  11.098  11.005   8.701  0.3616 -0.3747 -0.3277
56743SOL    HW179197  11.144  11.078   8.743  0.3479 -0.6172  0.1058
56743SOL    HW279198  11.135  10.926   8.741 -2.5914 -0.5781  2.3768
56744SOL     OW79199   8.963   7.401  12.591  0.3957  0.3789 -0.0502
56744SOL    HW179200   8.968   7.399  12.686  1.7746  1.7894 -0.0593
56744SOL    HW279201   8.869   7.404  12.572 -0.1804 -3.8213  1.0660
56745SOL     OW79202   9.836   0.608   6.668 -0.6995  0.9875  0.1664
56745SOL    HW179203   9.891   0.542   6.711  0.6512  0.9259 -1.5351
56745SOL    HW279204   9.898   0.674   6.637 -1.6396  1.2874 -1.1750
56746SOL     OW79205  11.783  11.972   6.676 -0.6430 -0.6369 -0.3334
56746SOL    HW179206  11.712  12.003   6.732  1.1602 -1.0281  2.3438
56746SOL    HW279207  11.830  12.051   6.650 -0.5277 -0.5608  0.1038
56747SOL     OW79208  10.922   8.569   9.186  0.2087 -0.2437  0.1868
56747SOL    HW179209  11.007   8.595   9.150 -0.8809  0.3126 -2.1645
56747SOL    HW279210  10.930   8.475   9.202  0.7409 -0.5482 -1.6713
56748SOL     OW79211   3.635   4.332   7.308  0.4895  0.2480  0.4607
56748SOL    HW179212   3.658   4.384   7.231  0.6664 -1.8754 -0.9932
56748SOL    HW279213   3.569   4.384   7.354 -1.5126  0.5094 -2.4709
56749SOL     OW79214   7.145   1.951   7.896 -0.2054 -0.0337  0.1594
56749SOL    HW179215   7.125   2.045   7.897 -0.9917 -0.1675 -1.0267
56749SOL    HW279216   7.060   1.909   7.882  0.2751 -0.8697 -0.2888
56750SOL     OW79217   7.804   6.702   8.817  0.1163  0.3079 -0.0496
56750SOL    HW179218   7.745   6.771   8.846 -0.6811 -0.2456 -0.3278
56750SOL    HW279219   7.751   6.622   8.818  0.7904 -0.1613 -0.5219
56751SOL     OW79220   4.700   5.693   5.613  0.2719 -0.7636  0.5226
56751SOL    HW179221   4.741   5.779   5.612 -0.0543 -0.5204  2.5541
56751SOL    HW279222   4.685   5.672   5.521  3.2111 -0.0742 -0.2152
56752SOL     OW79223   3.134   9.746   2.771 -0.5273  0.0672 -0.4150
56752SOL    HW179224   3.206   9.783   2.822 -1.3306  1.1509 -0.0097
56752SOL    HW279225   3.176   9.702   2.697  0.5203  1.7402 -0.8816
56753SOL     OW79226   3.983   0.621   1.124 -0.5946 -0.3340  0.4431
56753SOL    HW179227   4.047   0.673   1.173  0.9465 -1.7653  0.0688
56753SOL    HW279228   3.904   0.674   1.124  0.4631  1.3464  1.2936
56754SOL     OW79229   1.956   9.328   6.881  0.8111  0.4533  0.7060
56754SOL    HW179230   1.997   9.396   6.933  0.7702  0.2801  0.9675
56754SOL    HW279231   1.914   9.374   6.808  2.6556  0.5180 -0.3661
56755SOL     OW79232   8.679   3.190   0.008  0.1791 -0.5013 -0.4819
56755SOL    HW179233   8.720   3.191  -0.079 -1.3212 -0.0812 -1.2224
56755SOL    HW279234   8.639   3.276   0.016  0.3261 -0.5323  0.6591
56756SOL     OW79235   2.057   0.565   6.637 -0.5503 -0.0143  0.3053
56756SOL    HW179236   2.048   0.588   6.545 -0.8810 -0.7662  0.1486
56756SOL    HW279237   2.131   0.505   6.640  0.9868  1.7774  0.8549
56757SOL     OW79238   6.162  10.682   1.056 -0.2821 -0.2695  0.3707
56757SOL    HW179239   6.162  10.611   1.119 -3.0990  0.2478  1.0798
56757SOL    HW279240   6.139  10.760   1.106 -1.1601  0.4150 -1.0099
56758SOL     OW79241  10.017   8.097   7.582 -0.4346  0.5000  0.2263
56758SOL    HW179242   9.948   8.081   7.518  0.0750 -1.3042  0.0782
56758SOL    HW279243  10.042   8.188   7.568 -1.0431  0.4428 -1.4509
56759SOL     OW79244  12.411   4.599   3.878 -0.0701  0.4849  0.4571
56759SOL    HW179245  12.418   4.606   3.973 -0.5498  0.5727  0.4874
56759SOL    HW279246  12.366   4.679   3.850 -0.1990  0.3201  0.1861
56760SOL     OW79247   7.140  11.020   1.261  0.4709 -0.3251 -0.3809
56760SOL    HW179248   7.217  11.041   1.208  0.3827  0.0522 -0.3620
56760SOL    HW279249   7.074  11.083   1.233  0.3549 -0.2631  0.0289
56761SOL     OW79250   5.878  11.386   4.232 -0.3689 -0.4041  0.3276
56761SOL    HW179251   5.833  11.311   4.193 -0.3712  0.3440 -1.2073
56761SOL    HW279252   5.815  11.458   4.222 -0.4955 -0.2419  2.0703
56762SOL     OW79253   0.908  11.290   5.025  0.5160  0.0348  0.3155
56762SOL    HW179254   0.991  11.339   5.021  1.0697 -0.9561 -1.3402
56762SOL    HW279255   0.935  11.199   5.033 -0.3305 -0.4589 -1.7885
56763SOL     OW79256   3.342   2.595   0.601 -0.5724  0.7458  0.1082
56763SOL    HW179257   3.293   2.514   0.611 -0.2896  0.4277 -0.8987
56763SOL    HW279258   3.387   2.607   0.684 -0.5220 -0.1895  0.2271
56764SOL     OW79259   1.880   5.258  10.296 -0.3033  0.1289 -0.0020
56764SOL    HW179260   1.867   5.164  10.283 -0.8340  0.1925  0.0393
56764SOL    HW279261   1.889   5.293  10.208 -1.9732  0.2925 -0.1303
56765SOL     OW79262   6.611   4.916  12.592 -0.3511  0.3536 -0.6054
56765SOL    HW179263   6.573   4.990  12.545 -0.7736  0.8071  0.4171
56765SOL    HW279264   6.662   4.956  12.663  0.0893 -0.3122 -0.5320
56766SOL     OW79265   1.268  12.162   0.526  0.0304  0.0092  0.0029
56766SOL    HW179266   1.205  12.232   0.547 -0.2861 -0.7075  1.5870
56766SOL    HW279267   1.221  12.081   0.545  0.8109 -0.6075 -0.6272
56767SOL     OW79268   4.684   4.909   3.213 -0.2043 -0.0310  0.5075
56767SOL    HW179269   4.599   4.865   3.222  0.0003 -0.3103  1.1044
56767SOL    HW279270   4.673   4.966   3.136 -0.0995 -2.0152 -1.0705
56768SOL     OW79271  11.807   8.577  10.073 -0.0647  0.3817  0.2169
56768SOL    HW179272  11.851   8.659  10.051 -0.0391  0.7641  1.5910
56768SOL    HW279273  11.865   8.509  10.040  1.2158  0.8873  1.3120
56769SOL     OW79274   1.316   7.802  10.436  0.2734  0.2678  0.0329
56769SOL    HW179275   1.269   7.837  10.361  0.1646 -1.9751 -1.0172
56769SOL    HW279276   1.259   7.819  10.511 -0.4862  0.8657 -0.6711
56770SOL     OW79277   8.487   7.876   5.801 -0.1197  0.2901  0.3447
56770SOL    HW179278   8.474   7.889   5.895  3.3230  1.0763  0.8454
56770SOL    HW279279   8.557   7.937   5.778  0.8502 -1.5997 -2.2048
56771SOL     OW79280   0.986   3.342   5.100 -0.1579  0.1968 -0.5035
56771SOL    HW179281   0.984   3.353   5.005 -2.7970  0.7164 -0.4644
56771SOL    HW279282   0.962   3.428   5.135 -1.6678 -0.5894  0.5132
56772SOL     OW79283   1.149   8.861   6.093 -0.2759  1.0660 -0.3880
56772SOL    HW179284   1.220   8.890   6.035  2.8594  0.1853  2.6832
56772SOL    HW279285   1.149   8.925   6.164 -0.5206 -0.5454  1.1222
56773SOL     OW79286   9.978   7.867  10.612 -0.1978  0.0085  0.0579
56773SOL    HW179287  10.023   7.861  10.528  0.7174 -3.4658  0.6637
56773SOL    HW279288   9.887   7.887  10.589  0.7118  3.1466 -1.4020
56774SOL     OW79289   9.763   8.575   2.092  0.1132  0.0856  0.5314
56774SOL    HW179290   9.713   8.618   2.022 -0.2959  2.2816  2.0722
56774SOL    HW279291   9.725   8.487   2.098 -0.7834  0.3329 -1.0549
56775SOL     OW79292  11.923   5.871   1.871 -0.0963  0.1272  0.2171
56775SOL    HW179293  12.013   5.858   1.901 -0.4066  0.2928  1.2270
56775SOL    HW279294  11.885   5.783   1.868  0.5653 -0.1462 -1.7895
56776SOL     OW79295  12.427   9.301   6.725  0.2766 -0.4705  0.0375
56776SOL    HW179296  12.472   9.224   6.762 -1.7313 -1.8227 -0.1919
56776SOL    HW279297  12.381   9.267   6.648  0.6129  1.3288 -1.0094
56777SOL     OW79298  12.067   3.021   2.621  0.0985 -0.5084 -0.0431
56777SOL    HW179299  12.061   2.926   2.627  0.3329 -0.4775  0.7420
56777SOL    HW279300  12.133   3.037   2.553  0.4336 -0.9052  0.1872
56778SOL     OW79301   1.791   0.837   6.075  0.1220  0.1962  0.1826
56778SOL    HW179302   1.734   0.761   6.067  0.5914 -0.2037  0.5812
56778SOL    HW279303   1.772   0.871   6.163 -1.2590  1.5109 -0.5670
56779SOL     OW79304   7.209   8.983  10.682 -0.4904  0.8804  0.2446
56779SOL    HW179305   7.271   9.005  10.752 -1.5350  1.3107  1.0628
56779SOL    HW279306   7.235   9.039  10.609  2.0399 -1.1660 -0.5627
56780SOL     OW79307   6.663   5.486  12.411 -0.4386  0.4974 -0.3768
56780SOL    HW179308   6.600   5.427  12.453 -2.1852  1.2468 -1.7989
56780SOL    HW279309   6.658   5.566  12.464  0.5643  0.0245  0.4652
56781SOL     OW79310   2.681   1.248   6.218  0.4574  0.1812 -0.0593
56781SOL    HW179311   2.656   1.178   6.158 -3.9779 -0.2855  1.8869
56781SOL    HW279312   2.715   1.202   6.295 -0.5837  0.2192  0.4448
56782SOL     OW79313   3.847   3.835   4.942 -0.0393  0.1762 -0.5518
56782SOL    HW179314   3.796   3.758   4.965 -1.9654  1.1733 -1.2769
56782SOL    HW279315   3.876   3.819   4.852 -0.1602  0.1794 -0.5904
56783SOL     OW79316   9.418   8.832   2.645 -0.2235 -0.0313 -0.2240
56783SOL    HW179317   9.494   8.786   2.680  0.0908  1.7853  1.7216
56783SOL    HW279318   9.353   8.764   2.628  0.9339 -1.3573  0.5053
56784SOL     OW79319   1.426   1.450   8.757  0.4552  0.0540  0.1578
56784SOL    HW179320   1.505   1.397   8.764 -0.0287 -0.7896 -0.6352
56784SOL    HW279321   1.457   1.536   8.726  1.1171 -0.0751  0.4444
56785SOL     OW79322   6.858   6.211   0.900 -0.1016  0.1108  0.1442
56785SOL    HW179323   6.866   6.220   0.995 -1.5645 -0.6260  0.3682
56785SOL    HW279324   6.766   6.187   0.886  0.1589 -0.0684 -1.4369
56786SOL     OW79325   9.184   7.812   5.266 -0.3877  0.2179 -0.5774
56786SOL    HW179326   9.144   7.804   5.353  2.1448 -0.5971  0.6175
56786SOL    HW279327   9.193   7.722   5.236  0.8447  0.3320 -0.6107
56787SOL     OW79328   7.063   0.327   1.446 -0.2178 -0.0711  0.0288
56787SOL    HW179329   7.106   0.252   1.486  0.4730 -0.6853 -1.7741
56787SOL    HW279330   7.037   0.382   1.520  3.2156  0.1148  1.2525
56788SOL     OW79331   8.615   2.621   9.536  0.1881  0.1514  0.2118
56788SOL    HW179332   8.617   2.704   9.489 -1.1609 -0.3677 -0.8321
56788SOL    HW279333   8.675   2.565   9.487 -0.9291 -0.2719 -0.7397
56789SOL     OW79334   4.872   6.326   8.143  0.1106  0.0514 -0.2385
56789SOL    HW179335   4.955   6.361   8.175  0.7682 -1.1728 -0.5458
56789SOL    HW279336   4.815   6.325   8.219  1.1227 -1.2394  0.5372
56790SOL     OW79337   2.451   0.738  10.206 -0.3414  0.3493  0.1035
56790SOL    HW179338   2.527   0.764  10.154 -0.1234  0.7783  0.6270
56790SOL    HW279339   2.387   0.807  10.191 -1.2406 -0.7466 -1.5373
56791SOL     OW79340   1.552   7.115   7.602  0.2445 -0.0019  0.0641
56791SOL    HW179341   1.465   7.154   7.602  0.6408  0.9289  0.6537
56791SOL    HW279342   1.608   7.181   7.560  0.9729  0.2181  1.3062
56792SOL     OW79343   1.116   3.237  12.538 -0.3779  0.0264  0.1381
56792SOL    HW179344   1.100   3.288  12.459  1.0168 -0.1246 -0.2686
56792SOL    HW279345   1.184   3.175  12.513 -0.6255 -0.6938  1.1904
56793SOL     OW79346   8.279  11.443  12.361 -0.0238 -0.0244 -0.5441
56793SOL    HW179347   8.212  11.419  12.425  0.3059  0.1007 -0.1479
56793SOL    HW279348   8.234  11.501  12.300 -0.7456 -1.3207 -1.3044
56794SOL     OW79349   7.725   7.906   8.615  0.2386 -0.3663 -0.1401
56794SOL    HW179350   7.678   7.915   8.533  0.8584  1.2161 -0.3593
56794SOL    HW279351   7.665   7.940   8.681  0.5145  0.3017 -0.2273
56795SOL     OW79352  12.046   9.855   8.909 -0.0126  0.6418 -0.6762
56795SOL    HW179353  12.044   9.916   8.836 -3.5764  0.5882 -0.7894
56795SOL    HW279354  12.013   9.905   8.983  0.5404 -0.1775  0.1464
56796SOL     OW79355   1.339   5.012  10.018 -0.4729 -0.2872 -0.0921
56796SOL    HW179356   1.339   5.092   9.964  0.5426  0.2194  0.6306
56796SOL    HW279357   1.315   4.943   9.957 -1.7051  0.6045 -0.6637
56797SOL     OW79358   4.068   6.644   1.513  0.1161  0.1822 -0.0067
56797SOL    HW179359   3.994   6.705   1.512  0.1741  0.2433 -0.4123
56797SOL    HW279360   4.029   6.558   1.528 -0.0404  0.2086 -0.2631
56798SOL     OW79361   2.448   4.197   8.483  0.3088 -0.1427 -0.0156
56798SOL    HW179362   2.369   4.153   8.451  0.0514  0.5235 -0.3253
56798SOL    HW279363   2.518   4.167   8.425  0.4654 -1.4238  0.8090
56799SOL     OW79364   9.677   0.977   8.092 -0.2771 -0.0621 -0.0437
56799SOL    HW179365   9.762   0.974   8.048  0.5020 -1.7191  1.4476
56799SOL    HW279366   9.616   1.010   8.025  1.4044  0.5347 -1.3447
56800SOL     OW79367   5.657   7.810   0.708  0.0246 -0.0044  0.2641
56800SOL    HW179368   5.576   7.859   0.692  0.1773  0.3262  0.4872
56800SOL    HW279369   5.635   7.719   0.688  0.2845  0.4020 -2.2526
56801SOL     OW79370   0.559   6.698  11.344  0.0330 -0.5345  0.1903
56801SOL    HW179371   0.466   6.687  11.321 -0.0027  1.6772 -1.0572
56801SOL    HW279372   0.604   6.694  11.260  0.9104 -0.2837  0.6451
56802SOL     OW79373   6.794  12.345   6.678 -0.2667 -0.2180  0.1181
56802SOL    HW179374   6.842  12.264   6.690  1.1991  0.3189 -1.5400
56802SOL    HW279375   6.792  12.358   6.583  2.0041  3.0016  0.3319
56803SOL     OW79376   5.205   4.100   7.069 -0.3537  0.4899  0.3184
56803SOL    HW179377   5.167   4.063   6.989 -0.0579 -0.0972  0.4494
56803SOL    HW279378   5.133   4.106   7.130 -0.3119 -0.2775  0.4428
56804SOL     OW79379   6.622   2.925   4.335  0.3059  0.5961 -0.1376
56804SOL    HW179380   6.558   2.980   4.382 -0.7495  1.1109 -2.0624
56804SOL    HW279381   6.572   2.889   4.262  1.4498 -1.5795  0.0847
56805SOL     OW79382   1.620   2.648   7.975  0.6123  0.0496  0.2915
56805SOL    HW179383   1.597   2.740   7.988 -1.4409 -0.4878  0.9615
56805SOL    HW279384   1.712   2.642   8.000  1.0940  2.0837 -0.7590
56806SOL     OW79385   5.589   9.255  12.077 -0.8020  0.2222  0.2037
56806SOL    HW179386   5.660   9.302  12.118  0.1579 -1.5233  0.6559
56806SOL    HW279387   5.620   9.237  11.988 -1.7757  1.6885 -0.4614
56807SOL     OW79388   8.502   0.516   1.139  0.3693 -0.0891  0.5229
56807SOL    HW179389   8.493   0.454   1.211  0.0694  0.8664  1.3363
56807SOL    HW279390   8.582   0.565   1.159  1.0278 -0.7070 -0.5138
56808SOL     OW79391  10.665  10.520   4.228 -0.3546 -0.2756  1.2182
56808SOL    HW179392  10.706  10.461   4.164 -0.8615  0.8331 -0.1966
56808SOL    HW279393  10.721  10.515   4.305 -0.9084 -3.3240  1.5259
56809SOL     OW79394   3.492   4.079   7.198 -0.0277 -0.6687 -0.4832
56809SOL    HW179395   3.566   4.032   7.160  1.6045  1.2412  0.1736
56809SOL    HW279396   3.532   4.145   7.255 -2.2876 -0.7329  1.3138
56810SOL     OW79397   5.694   5.627   5.456 -0.3673  0.1194  0.4643
56810SOL    HW179398   5.615   5.574   5.453  0.4903 -1.1395 -1.6949
56810SOL    HW279399   5.756   5.575   5.506 -1.1179  1.6052  3.1928
56811SOL     OW79400   3.878   5.225   9.122  0.2674 -0.0876 -0.1131
56811SOL    HW179401   3.875   5.314   9.156 -0.5455  0.3862 -1.3469
56811SOL    HW279402   3.813   5.177   9.173  0.7483 -0.0035  0.5910
56812SOL     OW79403   5.363   3.752   1.619 -0.0402  0.4386  0.1618
56812SOL    HW179404   5.338   3.726   1.531  1.8951 -0.0435 -0.2946
56812SOL    HW279405   5.377   3.669   1.665 -0.8498  0.6863  0.8946
56813SOL     OW79406   2.916   7.708   5.009 -0.4233  0.0576  0.0128
56813SOL    HW179407   2.946   7.654   5.082 -1.6733  1.7613  1.9009
56813SOL    HW279408   2.843   7.659   4.970 -0.4706 -0.3640  0.6235
56814SOL     OW79409  11.138   6.953   1.463  0.3114 -0.2466  0.5804
56814SOL    HW179410  11.185   6.871   1.450  0.2620 -0.2768  0.5921
56814SOL    HW279411  11.120   6.984   1.374 -0.0335 -0.4574  0.5722
56815SOL     OW79412   1.654   9.919   5.061  0.4277  0.3244  0.7628
56815SOL    HW179413   1.608   9.839   5.088 -1.3562  1.0130 -0.0968
56815SOL    HW279414   1.683   9.901   4.972 -1.4681  1.1772 -0.0826
56816SOL     OW79415   8.049   3.555   3.419  0.1830 -0.2690  0.0602
56816SOL    HW179416   7.993   3.603   3.480 -1.7288 -1.8661 -0.3397
56816SOL    HW279417   8.091   3.623   3.367 -1.3019  1.0332  0.4766
56817SOL     OW79418  11.872  11.732   4.633 -0.0786 -0.6745  0.4516
56817SOL    HW179419  11.906  11.797   4.694  0.3504  1.1022 -1.5751
56817SOL    HW279420  11.799  11.775   4.589  0.5858 -1.3196 -1.3635
56818SOL     OW79421   2.440   9.775   3.869 -0.0161 -0.3364 -0.4701
56818SOL    HW179422   2.525   9.733   3.883 -1.0234 -2.9717 -1.6174
56818SOL    HW279423   2.400   9.777   3.956  0.1675 -1.5916 -0.3396
56819SOL     OW79424   5.653   3.315   2.598 -0.5182 -0.3358 -0.0399
56819SOL    HW179425   5.738   3.322   2.642 -0.4453 -0.4768 -0.1558
56819SOL    HW279426   5.589   3.328   2.668 -0.3995  1.4543 -0.2353
56820SOL     OW79427   3.448   6.608   9.943 -0.4697  0.1865  0.7371
56820SOL    HW179428   3.464   6.563  10.025 -0.8920 -0.7552  0.3171
56820SOL    HW279429   3.388   6.550   9.895 -1.0223  1.1918  0.1814
56821SOL     OW79430   3.866   9.891   8.599  0.0363 -0.0256  0.5408
56821SOL    HW179431   3.880   9.986   8.593 -1.5979  0.2016 -0.2466
56821SOL    HW279432   3.779   9.882   8.639  1.1096 -1.2745  2.7893
56822SOL     OW79433   3.532  12.216   9.787  0.4261 -0.1312  0.0841
56822SOL    HW179434   3.443  12.187   9.808  0.3617 -0.5686 -0.7240
56822SOL    HW279435   3.587  12.141   9.811  0.6498  0.3350  1.0754
56823SOL     OW79436   9.541   4.417   6.224 -0.3989  0.1828 -0.6127
56823SOL    HW179437   9.553   4.489   6.286  0.2239  0.6397 -1.2525
56823SOL    HW279438   9.585   4.446   6.145  2.0758 -1.9207 -0.1124
56824SOL     OW79439   1.417   3.615   8.815  0.1275  0.4094  0.7102
56824SOL    HW179440   1.411   3.710   8.805 -2.7533  0.4058  1.7338
56824SOL    HW279441   1.401   3.599   8.908  0.2684 -1.1219  0.4965
56825SOL     OW79442   5.537   2.182   9.044  0.1226  0.1506  0.2025
56825SOL    HW179443   5.456   2.218   9.079  1.4036  0.6557  2.9273
56825SOL    HW279444   5.550   2.100   9.093  1.6735  0.5346  0.4973
56826SOL     OW79445   2.714  12.180   6.654  0.7524 -0.3910  0.2796
56826SOL    HW179446   2.698  12.180   6.559 -0.9330 -0.3547  0.5296
56826SOL    HW279447   2.808  12.168   6.662  1.0039  0.1182 -1.4145
56827SOL     OW79448  11.191   6.214   4.897  0.0424  0.3733 -0.2855
56827SOL    HW179449  11.197   6.288   4.958 -0.2059 -0.5037  0.8416
56827SOL    HW279450  11.258   6.153   4.927 -0.6573 -0.4489 -0.3675
56828SOL     OW79451   4.484   3.892   2.743 -0.4714 -0.2876  0.2843
56828SOL    HW179452   4.486   3.817   2.802  0.1067 -1.0805 -0.7024
56828SOL    HW279453   4.391   3.913   2.733 -0.8147 -2.1893 -0.9956
56829SOL     OW79454   6.364   7.202   9.101 -0.4142 -0.3192 -0.3957
56829SOL    HW179455   6.395   7.276   9.049 -1.9277  0.2941 -0.4779
56829SOL    HW279456   6.283   7.174   9.058  0.5498 -2.6104 -0.8643
56830SOL     OW79457   2.465   5.412  11.124  0.0640  0.1778 -0.5172
56830SOL    HW179458   2.486   5.422  11.031  1.7475  1.3265 -0.0636
56830SOL    HW279459   2.458   5.318  11.137  1.7455 -0.1171 -1.4531
56831SOL     OW79460   1.752   9.852   5.984  0.2500  0.5427  0.2563
56831SOL    HW179461   1.716   9.796   5.915  0.2819 -0.0064  0.6818
56831SOL    HW279462   1.676   9.901   6.017  0.1093  0.2752  0.3281
56832SOL     OW79463  11.779   1.279   9.542 -0.0471 -0.2855 -0.4807
56832SOL    HW179464  11.791   1.373   9.549  1.9923 -0.5136 -0.3872
56832SOL    HW279465  11.684   1.266   9.553 -0.3325  1.7000 -0.2389
56833SOL     OW79466   5.048   2.275   9.458 -0.1882 -0.4481 -0.6050
56833SOL    HW179467   5.071   2.236   9.541  2.7078 -0.3419 -1.2606
56833SOL    HW279468   5.089   2.219   9.392 -1.4293  0.1108 -1.9128
56834SOL     OW79469   4.500   2.434   5.933  0.3324 -0.2797  0.1288
56834SOL    HW179470   4.543   2.518   5.919  0.8898 -0.4071  0.9379
56834SOL    HW279471   4.432   2.429   5.866  0.0676  0.9576  0.2951
56835SOL     OW79472  11.729  10.775  10.865 -0.4776 -0.8241  0.1618
56835SOL    HW179473  11.808  10.796  10.815 -1.8916  1.5919 -1.2498
56835SOL    HW279474  11.707  10.857  10.910 -3.0574 -0.8995 -0.8039
56836SOL     OW79475   9.430   7.093   4.754 -0.1548 -0.1852  0.2815
56836SOL    HW179476   9.362   7.136   4.702 -0.7108 -0.8647  0.4163
56836SOL    HW279477   9.511   7.106   4.705 -0.6895 -0.9607 -0.8608
56837SOL     OW79478   9.913  12.016   8.587 -0.0702  0.3226 -0.0361
56837SOL    HW179479   9.877  12.066   8.515 -1.4376  0.7874  0.9247
56837SOL    HW279480   9.990  12.065   8.615  0.7798 -0.1433 -1.4798
56838SOL     OW79481   9.301  11.078   1.500  0.2911  0.2437  0.8305
56838SOL    HW179482   9.342  11.112   1.421  2.6103  1.1750  2.3190
56838SOL    HW279483   9.255  11.154   1.537 -0.9265 -0.2290  0.3457
56839SOL     OW79484   3.802   0.359  10.385  0.6134 -0.0379  0.3764
56839SOL    HW179485   3.871   0.367  10.319 -0.9274  1.7971 -1.0898
56839SOL    HW279486   3.806   0.442  10.434 -1.4316  0.7396 -0.6753
56840SOL     OW79487   5.240   0.370   8.978 -0.2822  0.5973  0.2428
56840SOL    HW179488   5.177   0.431   9.016 -0.9529  0.4183 -0.5346
56840SOL    HW279489   5.188   0.293   8.955  0.0662  0.7151 -1.0551
56841SOL     OW79490   1.365   1.012   4.545 -0.3644 -0.0487 -0.0424
56841SOL    HW179491   1.394   0.937   4.494  1.5019  1.1110 -0.8202
56841SOL    HW279492   1.429   1.019   4.616 -1.6487 -0.3177  1.1953
56842SOL     OW79493   5.314   3.644   1.371 -0.2569 -0.5364  0.0702
56842SOL    HW179494   5.381   3.577   1.361 -2.3577 -2.5923 -1.6062
56842SOL    HW279495   5.303   3.680   1.283 -0.2079  0.9623  0.6576
56843SOL     OW79496   5.944   9.578   1.677  0.2636 -0.4219 -0.1152
56843SOL    HW179497   5.853   9.565   1.653  0.7201  0.1373 -2.3708
56843SOL    HW279498   5.962   9.670   1.656  1.7868 -0.9782 -1.4607
56844SOL     OW79499  12.473   7.955   2.564  0.7630 -0.0575 -0.3123
56844SOL    HW179500  12.392   7.993   2.529  1.0031  0.5240 -0.2344
56844SOL    HW279501  12.543   8.005   2.524  1.1651 -1.5586 -1.5885
56845SOL     OW79502   2.007  11.565   7.457  0.1443  0.0376 -0.1641
56845SOL    HW179503   1.994  11.647   7.503 -1.0169 -0.1288 -0.1617
56845SOL    HW279504   2.069  11.516   7.511  0.1158  0.5286  0.3208
56846SOL     OW79505   7.671   3.913   4.591  0.3329 -0.4835  0.5314
56846SOL    HW179506   7.720   3.995   4.584 -0.0171 -0.0563  2.5430
56846SOL    HW279507   7.591   3.929   4.541  1.1063 -0.3117 -0.6975
56847SOL     OW79508   7.846   6.714  12.552 -0.3315 -0.3240 -0.3118
56847SOL    HW179509   7.917   6.724  12.616 -0.4472 -0.5944 -0.1396
56847SOL    HW279510   7.847   6.796  12.503  0.1620 -0.3674 -0.3755
56848SOL     OW79511   9.087   4.555   4.482  0.0652 -0.7332  0.0597
56848SOL    HW179512   9.156   4.489   4.485 -1.2883 -2.2692 -1.0557
56848SOL    HW279513   9.132   4.638   4.500  1.9875 -1.8098  0.4379
56849SOL     OW79514   7.911   9.991  11.268  0.3246  0.1568  0.1085
56849SOL    HW179515   7.989   9.946  11.299  0.7565 -0.7645 -2.1203
56849SOL    HW279516   7.851   9.990  11.343  1.3398 -1.7742  0.9594
56850SOL     OW79517   9.260   9.273  10.939 -0.4016  0.2393 -0.3196
56850SOL    HW179518   9.297   9.196  10.896  0.1262  1.3530 -1.9621
56850SOL    HW279519   9.176   9.286  10.895 -1.3374 -0.4056  1.1916
56851SOL     OW79520   1.893   0.457   0.279  0.1517 -0.3135 -0.0544
56851SOL    HW179521   1.857   0.374   0.310  0.5456 -0.5800 -0.2954
56851SOL    HW279522   1.816   0.509   0.254 -0.0703 -0.9659 -0.7881
56852SOL     OW79523   2.767   5.313  10.935 -0.0796  0.3973 -0.0961
56852SOL    HW179524   2.781   5.306  11.029  0.1850  0.0926 -0.1562
56852SOL    HW279525   2.855   5.316  10.898 -0.1345 -1.4952 -0.4838
56853SOL     OW79526   2.990   8.751   0.790  0.2659  0.3813  0.5075
56853SOL    HW179527   2.944   8.716   0.867 -0.3275  0.9136  0.4061
56853SOL    HW279528   2.943   8.714   0.716  0.4067  0.4151  0.4015
56854SOL     OW79529   4.281  10.081   1.206 -0.2488  0.0306 -0.2602
56854SOL    HW179530   4.335  10.005   1.188 -1.0041 -1.1708  2.0987
56854SOL    HW279531   4.296  10.100   1.299 -0.9519  2.0701 -0.5055
56855SOL     OW79532   7.729   9.710   9.788  0.4717  0.5687 -0.7166
56855SOL    HW179533   7.683   9.733   9.707 -0.0223 -0.0376 -0.6158
56855SOL    HW279534   7.820   9.697   9.761  0.5585  1.6019 -0.9490
56856SOL     OW79535  11.601   8.021   1.530  0.1422  0.1983  0.4396
56856SOL    HW179536  11.628   8.043   1.440 -2.1964 -0.9708 -0.6393
56856SOL    HW279537  11.535   8.087   1.551 -0.5146 -0.5108  0.6294
56857SOL     OW79538   8.103  12.489   4.841  0.3512  0.3130 -0.0007
56857SOL    HW179539   8.181  12.458   4.796  0.0093 -1.1091  0.3276
56857SOL    HW279540   8.031  12.464   4.784  0.0401  0.1630  0.4527
56858SOL     OW79541   2.103  11.341   3.215 -0.1163 -0.0297  0.4538
56858SOL    HW179542   2.047  11.264   3.212 -1.4522  0.8486  1.3395
56858SOL    HW279543   2.182  11.316   3.168 -0.1772 -2.1863  1.3780
56859SOL     OW79544   5.118  10.185   5.247  0.1885 -0.0408  0.1673
56859SOL    HW179545   5.129  10.195   5.341  0.0636 -0.8395  0.2758
56859SOL    HW279546   5.151  10.267   5.210 -1.2678  0.9459  0.9865
56860SOL     OW79547   4.065   0.695   6.285 -0.3970 -0.6558 -0.1390
56860SOL    HW179548   3.986   0.661   6.328 -0.9902  1.1563  0.2926
56860SOL    HW279549   4.034   0.732   6.203  0.0890 -0.4891 -0.2548
56861SOL     OW79550  11.315  11.870  12.077 -0.2439 -0.0609  0.6304
56861SOL    HW179551  11.238  11.899  12.125  0.0406  0.8932  0.5358
56861SOL    HW279552  11.384  11.867  12.143 -0.3324 -0.8061  0.6929
56862SOL     OW79553   9.938   4.161  11.830  0.2030  0.3535 -0.2742
56862SOL    HW179554   9.905   4.181  11.742 -0.0891 -0.1218 -0.2724
56862SOL    HW279555  10.019   4.112  11.814 -0.5201 -0.8733 -0.2950
56863SOL     OW79556   8.589   6.436   9.985 -0.1433 -0.2673  0.2767
56863SOL    HW179557   8.611   6.345  10.007 -3.0959 -0.8389  1.3776
56863SOL    HW279558   8.554   6.472  10.067 -1.7856  0.8816 -0.8779
56864SOL     OW79559  10.369   2.607   3.147 -0.1232  0.0861  0.2774
56864SOL    HW179560  10.423   2.595   3.226  0.3856  0.3093 -0.0341
56864SOL    HW279561  10.318   2.686   3.165  0.8288  0.7919 -0.0785
56865SOL     OW79562   6.172   5.578   8.006  0.1787  0.2737  0.2606
56865SOL    HW179563   6.167   5.534   7.921  0.0317 -0.1859  0.5024
56865SOL    HW279564   6.165   5.671   7.986  1.5646  0.2749 -0.3645
56866SOL     OW79565   2.993   5.406   3.204  0.1868 -0.1921  0.2445
56866SOL    HW179566   3.011   5.425   3.296 -1.5393  0.0058  0.5731
56866SOL    HW279567   3.031   5.480   3.157  1.4318 -0.4924  0.7446
56867SOL     OW79568   6.685   7.087  11.496  0.2897 -0.1225 -0.1181
56867SOL    HW179569   6.726   7.142  11.563  0.0908 -0.7763  0.5672
56867SOL    HW279570   6.620   7.143  11.455  1.2610  0.6672 -0.6213
56868SOL     OW79571   9.117   2.954   5.783  0.1342 -0.0338  0.1078
56868SOL    HW179572   9.079   2.982   5.867 -0.2158  0.1045 -0.0969
56868SOL    HW279573   9.068   3.002   5.717 -0.7919 -1.4370 -0.2824
56869SOL     OW79574   9.596   8.830   9.538  0.9358 -0.3032 -0.4124
56869SOL    HW179575   9.628   8.756   9.591  0.5192 -0.0842  0.1607
56869SOL    HW279576   9.530   8.791   9.481  0.1464 -0.2379  0.4473
56870SOL     OW79577   0.439   1.580   4.818  0.4725  0.1578 -0.3535
56870SOL    HW179578   0.422   1.660   4.767 -2.0000  1.6468  2.5339
56870SOL    HW279579   0.359   1.529   4.810  0.9035 -0.6350  0.2664
56871SOL     OW79580  10.233  10.812   3.039  0.4424  0.1185  0.0498
56871SOL    HW179581  10.305  10.765   2.998 -0.1972 -0.5849 -0.2955
56871SOL    HW279582  10.164  10.815   2.972 -0.2184 -0.1027  0.7033
56872SOL     OW79583  10.619   7.416   0.371 -0.1326  0.4228 -0.3046
56872SOL    HW179584  10.674   7.431   0.449  0.2320  1.6146 -0.7668
56872SOL    HW279585  10.633   7.493   0.317 -2.4809  0.8925 -0.3328
56873SOL     OW79586   9.385  10.930   2.088  0.2307 -0.4600 -0.1899
56873SOL    HW179587   9.310  10.983   2.114 -0.4371 -1.0426 -0.8678
56873SOL    HW279588   9.346  10.853   2.045  1.2322  0.0493 -2.1004
56874SOL     OW79589   2.533   6.047   4.606 -0.0351  0.3906 -0.5838
56874SOL    HW179590   2.538   6.125   4.550  0.0031  0.7971 -0.0296
56874SOL    HW279591   2.620   6.039   4.644 -0.2382  0.4908 -0.0955
56875SOL     OW79592   2.525   5.068   4.429  0.0603 -0.2659  0.2634
56875SOL    HW179593   2.612   5.097   4.457 -0.2161  0.5022  0.3457
56875SOL    HW279594   2.506   5.122   4.352 -2.1552  2.7813  2.6930
56876SOL     OW79595   5.283   6.109   8.140 -0.1580 -0.3688  0.3341
56876SOL    HW179596   5.346   6.146   8.078 -1.9985  0.5268 -1.1302
56876SOL    HW279597   5.268   6.178   8.204 -0.9813  0.1594 -0.3935
56877SOL     OW79598   9.370  10.321   1.272  0.6044 -0.0750  0.5312
56877SOL    HW179599   9.419  10.395   1.235 -0.7360 -0.2184 -1.7170
56877SOL    HW279600   9.426  10.245   1.257  0.6215  0.0550 -0.0853
56878SOL     OW79601   5.553   1.175   6.750 -0.1277 -0.3907  0.2912
56878SOL    HW179602   5.586   1.251   6.702 -0.8367 -0.5083 -0.3964
56878SOL    HW279603   5.597   1.100   6.711  0.5023 -0.3542  0.9078
56879SOL     OW79604   1.232   8.145   3.298  0.1646  0.4064  1.1428
56879SOL    HW179605   1.230   8.111   3.387  0.8739 -1.1994  0.5731
56879SOL    HW279606   1.143   8.177   3.283 -0.3507 -0.5740  1.9581
56880SOL     OW79607   1.162   8.422   8.962  0.5072 -0.5430 -0.3978
56880SOL    HW179608   1.087   8.419   9.022  1.0503  1.0584  0.4332
56880SOL    HW279609   1.125   8.455   8.880  0.4095  1.1814  0.2938
56881SOL     OW79610   3.419   9.006   5.413  0.2499 -0.2215  0.7993
56881SOL    HW179611   3.497   8.953   5.430  1.3303  1.3465  1.0162
56881SOL    HW279612   3.453   9.083   5.367 -1.1294  0.6799  1.2468
56882SOL     OW79613   2.560   7.096   5.847  0.1235  0.0747 -0.1312
56882SOL    HW179614   2.504   7.102   5.925 -0.4899  0.4054 -0.5860
56882SOL    HW279615   2.538   7.175   5.796 -0.8754 -1.0485 -1.5334
56883SOL     OW79616   3.023   3.470   0.762  0.0981 -0.5564  0.2362
56883SOL    HW179617   3.026   3.565   0.757  1.7880 -0.5824 -0.0360
56883SOL    HW279618   3.030   3.441   0.671  0.1788 -0.9421  0.3629
56884SOL     OW79619   4.149   9.694   7.161 -0.2597  0.3234  0.5145
56884SOL    HW179620   4.201   9.676   7.082  0.2790 -0.8103  1.1033
56884SOL    HW279621   4.070   9.738   7.128 -0.0220 -0.0741 -0.6444
56885SOL     OW79622   7.613   1.225   5.312  0.6662  0.7784 -0.3627
56885SOL    HW179623   7.544   1.174   5.270  1.2988  0.7069 -1.3836
56885SOL    HW279624   7.685   1.162   5.324  0.1438  0.5462  1.8225
56886SOL     OW79625   1.246   5.014  10.609  0.5567  0.7126  0.2111
56886SOL    HW179626   1.258   4.989  10.517  1.0437  3.0996 -0.4461
56886SOL    HW279627   1.163   5.062  10.610  0.6800  0.9177  0.9624
56887SOL     OW79628   6.992   3.019   0.515 -0.4976 -0.5604  0.3012
56887SOL    HW179629   6.897   3.013   0.508 -0.5539 -0.2630  0.7615
56887SOL    HW279630   7.017   3.086   0.452 -0.4528 -1.5154 -0.7331
56888SOL     OW79631   9.576   5.164   1.896  0.4519  0.4853 -0.4624
56888SOL    HW179632   9.627   5.114   1.960 -1.3625 -0.6066  0.2023
56888SOL    HW279633   9.571   5.252   1.933  2.6350  0.9281 -1.0456
56889SOL     OW79634  12.470  10.205   8.382  0.5444 -0.3333  0.0742
56889SOL    HW179635  12.381  10.173   8.397 -0.0710  0.9924 -0.5627
56889SOL    HW279636  12.501  10.155   8.307  0.0251 -0.2431 -0.2060
56890SOL     OW79637  12.564  12.338   5.605  0.0974 -0.4126  0.0211
56890SOL    HW179638  12.497  12.284   5.562  0.0278 -0.4087  0.1236
56890SOL    HW279639  12.629  12.354   5.536 -0.7305  0.8177 -0.5139
56891SOL     OW79640  10.565   8.021   9.083 -0.4862  0.0322 -0.1441
56891SOL    HW179641  10.582   7.980   9.167  2.5565  0.0282 -0.6692
56891SOL    HW279642  10.493   8.083   9.101 -1.5640 -1.6701  1.8287
56892SOL     OW79643   1.630   2.367   7.728  0.2081  0.1123 -0.4785
56892SOL    HW179644   1.590   2.282   7.743 -1.8570  0.9903 -0.6246
56892SOL    HW279645   1.653   2.398   7.816 -3.3445  1.2975  0.2220
56893SOL     OW79646   3.723  11.573   7.762  0.8241  0.3745 -0.1904
56893SOL    HW179647   3.792  11.518   7.726  2.6776  1.4549  1.5113
56893SOL    HW279648   3.713  11.542   7.852  0.4053  1.4498  0.1422
56894SOL     OW79649   5.416   6.908   5.679  0.3209 -0.3307  0.0502
56894SOL    HW179650   5.482   6.959   5.725  0.4977  0.3774 -0.9399
56894SOL    HW279651   5.466   6.851   5.621  0.0973 -1.0381  0.5423
56895SOL     OW79652   3.492   9.129   4.483  0.5366  0.2816  0.4334
56895SOL    HW179653   3.407   9.168   4.468  0.9392  0.7069 -0.9599
56895SOL    HW279654   3.486   9.042   4.443  0.0469 -0.6176  2.3845
56896SOL     OW79655  10.884   4.750   9.315  0.2416  0.6178  0.3267
56896SOL    HW179656  10.931   4.827   9.349  3.2996  0.1708 -2.2924
56896SOL    HW279657  10.865   4.773   9.224  1.7563 -1.8003 -0.7134
56897SOL     OW79658   7.930   7.143  11.007  0.9255 -0.7045 -0.1538
56897SOL    HW179659   7.895   7.113  10.923  0.9067  1.4794 -0.9788
56897SOL    HW279660   7.874   7.102  11.072 -0.3847 -0.7861 -1.2905
56898SOL     OW79661   6.255   0.255   8.081  0.0767  0.0293  0.2146
56898SOL    HW179662   6.286   0.256   8.171 -0.8334 -0.1204  0.5395
56898SOL    HW279663   6.326   0.215   8.031 -0.5812 -2.7585  1.3185
56899SOL     OW79664   5.681   7.087   7.696 -0.3683 -0.0888 -0.6509
56899SOL    HW179665   5.604   7.141   7.715 -0.3615 -0.0173 -0.8244
56899SOL    HW279666   5.647   6.999   7.682 -0.5967  0.2212 -2.2113
56900SOL     OW79667  12.237  12.380   3.656  0.3056 -0.2084  0.4053
56900SOL    HW179668  12.236  12.320   3.582  0.3843  0.3173 -0.0270
56900SOL    HW279669  12.281  12.458   3.623  1.1186 -0.2882  1.2520
56901SOL     OW79670   3.142  10.764   0.423 -0.2081 -0.6310 -0.8771
56901SOL    HW179671   3.163  10.823   0.494 -4.3358 -0.4359  0.4734
56901SOL    HW279672   3.114  10.821   0.351  1.5439 -0.8882 -1.8051
56902SOL     OW79673  12.394   7.032   1.198 -0.5885  0.1026  0.4230
56902SOL    HW179674  12.392   6.957   1.138 -3.8271 -0.9239  1.5999
56902SOL    HW279675  12.351   7.102   1.149  2.6051  1.4343 -0.7482
56903SOL     OW79676   9.141   9.036   7.736  0.2208  0.3223 -0.3272
56903SOL    HW179677   9.058   9.011   7.694  0.5348  1.2865 -1.6161
56903SOL    HW279678   9.152   9.127   7.711  1.0399  0.5757  0.9332
56904SOL     OW79679   6.856   3.287   2.958  0.1084 -0.1785  0.3190
56904SOL    HW179680   6.838   3.322   2.871  2.1756  0.3769  0.0478
56904SOL    HW279681   6.950   3.268   2.957  0.0837 -0.6585  2.2712
56905SOL     OW79682   3.222   9.430   3.595  0.2667 -0.7381  0.3177
56905SOL    HW179683   3.212   9.344   3.635  0.4977 -0.2663  1.4213
56905SOL    HW279684   3.152   9.434   3.530 -0.7792 -1.1457  1.3677
56906SOL     OW79685  11.783   1.260   3.940  0.1468  0.1175 -0.1909
56906SOL    HW179686  11.801   1.166   3.949 -1.0915 -0.3325 -1.8694
56906SOL    HW279687  11.741   1.285   4.022  1.9124 -0.3830  0.9318
56907SOL     OW79688  10.984   6.111   7.368  0.0357 -0.3196 -0.0953
56907SOL    HW179689  10.918   6.046   7.392 -0.3131  0.1022  0.1067
56907SOL    HW279690  11.063   6.082   7.412  0.3107 -1.4855 -1.2835
56908SOL     OW79691   4.106  11.081  10.400 -0.0365 -0.2708  0.0087
56908SOL    HW179692   4.149  11.106  10.318  1.3817 -0.1470  0.7509
56908SOL    HW279693   4.018  11.055  10.374  0.1475  0.4405 -1.4633
56909SOL     OW79694   7.123   7.394   1.343 -0.3995  0.2945 -0.3504
56909SOL    HW179695   7.193   7.389   1.277 -0.1446  0.5728 -0.1011
56909SOL    HW279696   7.168   7.382   1.426 -0.7233 -0.0538 -0.2262
56910SOL     OW79697   3.760   3.607   7.085  0.2537 -0.3997  0.6208
56910SOL    HW179698   3.721   3.679   7.133  0.9306  0.8437 -0.6093
56910SOL    HW279699   3.779   3.643   6.999  1.4609 -1.7849  0.2598
56911SOL     OW79700   2.415  11.728  11.931  0.3024 -0.1403 -0.1621
56911SOL    HW179701   2.490  11.672  11.950 -1.4360 -2.0557  1.6331
56911SOL    HW279702   2.353  11.672  11.885 -1.2441  0.4006  1.1224
56912SOL     OW79703   7.152  11.173   4.188  0.0679  0.0406  0.1346
56912SOL    HW179704   7.215  11.109   4.156  1.3661 -0.1135  2.7667
56912SOL    HW279705   7.067  11.128   4.182  0.3386 -0.2994 -1.9977
56913SOL     OW79706   3.050   5.575  11.795 -0.3347 -0.2880 -0.2731
56913SOL    HW179707   3.103   5.604  11.721  0.4411 -0.0727  0.3429
56913SOL    HW279708   3.058   5.480  11.795  0.1074 -0.2534 -0.1528
56914SOL     OW79709  10.414   2.957   2.682  0.2257 -0.1161 -0.4015
56914SOL    HW179710  10.421   2.910   2.599  1.7092 -0.3620 -0.1734
56914SOL    HW279711  10.440   2.892   2.748  0.9997  0.6229  0.0424
56915SOL     OW79712   7.792  12.149  11.086  0.0961 -0.0835  0.4343
56915SOL    HW179713   7.732  12.129  11.014  0.0095  0.6097  0.3042
56915SOL    HW279714   7.782  12.244  11.099 -0.3883 -0.2994  1.7941
56916SOL     OW79715   6.659   2.254   3.966 -0.2283  0.5498  0.2782
56916SOL    HW179716   6.680   2.342   3.997 -0.6067  0.4862  0.7327
56916SOL    HW279717   6.744   2.212   3.952  0.0131  0.1310  2.5606
56917SOL     OW79718  10.736   2.761   0.799  0.2979 -0.0761  0.0359
56917SOL    HW179719  10.657   2.804   0.766  0.8821  0.6450 -0.4684
56917SOL    HW279720  10.783   2.734   0.720 -0.4664 -2.5120  0.3139
56918SOL     OW79721   9.926   8.254   3.895  0.8426  0.4921  0.6759
56918SOL    HW179722   9.910   8.342   3.862  1.2660  0.7025  1.0214
56918SOL    HW279723   9.879   8.250   3.978 -1.7642 -0.6485 -0.7479
56919SOL     OW79724   6.183   5.608   8.585  0.6156 -0.0875  0.4986
56919SOL    HW179725   6.271   5.592   8.621  1.1878  0.0542 -0.7691
56919SOL    HW279726   6.199   5.642   8.497 -0.7105  0.8475  0.5887
56920SOL     OW79727  12.262   1.078   6.051  0.0215 -0.4176 -0.0066
56920SOL    HW179728  12.183   1.087   6.105 -0.6510  1.0120 -1.1562
56920SOL    HW279729  12.236   1.109   5.964  2.0825  0.9968 -0.1962
56921SOL     OW79730   2.581   5.593   1.943  0.0406 -0.0720 -0.2392
56921SOL    HW179731   2.588   5.648   1.865  1.2591  0.6672  0.3580
56921SOL    HW279732   2.487   5.579   1.953 -0.2240  0.9005 -1.1166
56922SOL     OW79733   5.977   2.580   7.990 -0.5860  0.5705 -0.1790
56922SOL    HW179734   5.903   2.533   7.951 -1.0849  1.9019 -0.8916
56922SOL    HW279735   5.939   2.630   8.062 -0.0979  0.0969  0.4213
56923SOL     OW79736  10.668  11.792   7.898  0.2278 -0.5939 -0.1320
56923SOL    HW179737  10.600  11.766   7.836  0.0790 -1.6537  0.4570
56923SOL    HW279738  10.721  11.713   7.910  0.0901 -0.4954  1.2819
56924SOL     OW79739   8.979   3.680   6.406 -0.5303 -0.0523  0.4935
56924SOL    HW179740   9.019   3.760   6.441 -0.6972  0.2916 -0.0990
56924SOL    HW279741   9.053   3.621   6.392 -0.4438 -0.1478  1.2927
56925SOL     OW79742   2.340   0.498   1.757  0.5543 -0.0182  0.4920
56925SOL    HW179743   2.259   0.537   1.725  0.8428  1.5409  1.5337
56925SOL    HW279744   2.408   0.560   1.730  1.0640  0.0867  1.9203
56926SOL     OW79745   4.265   2.011   9.587 -0.2168 -0.3397  0.0575
56926SOL    HW179746   4.277   1.967   9.672  0.2778 -1.3248 -0.5022
56926SOL    HW279747   4.170   2.025   9.581 -0.3835 -1.2606  0.3055
56927SOL     OW79748   0.337   8.611   3.622 -0.3678  0.2274  0.4670
56927SOL    HW179749   0.418   8.639   3.580  0.6233 -0.7850  1.6142
56927SOL    HW279750   0.291   8.692   3.643  0.6503  0.8389  0.3732
56928SOL     OW79751   4.290  10.848   1.508  0.0057 -0.1345 -0.2050
56928SOL    HW179752   4.214  10.839   1.451 -0.2972 -1.7140  0.4053
56928SOL    HW279753   4.292  10.941   1.531 -3.2156 -0.4164  1.7232
56929SOL     OW79754   8.126   3.569  10.892  0.6208 -0.9211  0.3204
56929SOL    HW179755   8.144   3.654  10.932  0.2419 -1.7381  2.3145
56929SOL    HW279756   8.032   3.556  10.904  0.7095 -1.7050  0.2240
56930SOL     OW79757   3.638  11.288  10.540  0.3671  0.0161  0.3990
56930SOL    HW179758   3.589  11.249  10.613  3.0361 -1.2245  1.6342
56930SOL    HW279759   3.590  11.369  10.520 -3.5635 -2.1877 -0.1492
56931SOL     OW79760   5.120   9.303   2.427  0.1752  0.5528 -0.1504
56931SOL    HW179761   5.203   9.255   2.423  0.7291  1.5314 -0.9646
56931SOL    HW279762   5.092   9.296   2.518  0.3566 -1.0836 -0.1807
56932SOL     OW79763   1.492   2.856   1.782  0.7949 -0.0126 -0.3650
56932SOL    HW179764   1.552   2.816   1.844  2.3382  0.9152 -1.1954
56932SOL    HW279765   1.443   2.921   1.833  1.5074  0.2065  0.0491
56933SOL     OW79766   6.004  10.013   1.321 -0.2362 -0.0348 -0.1035
56933SOL    HW179767   6.077  10.069   1.296  0.2450  0.0668  1.4397
56933SOL    HW279768   5.998   9.948   1.251  1.4597 -0.1711 -0.1556
56934SOL     OW79769  10.179   5.274   2.597  0.0340 -0.5757 -0.3021
56934SOL    HW179770  10.099   5.271   2.650 -0.8594  0.4180 -1.5292
56934SOL    HW279771  10.240   5.215   2.642 -1.4726 -1.5845  0.4983
56935SOL     OW79772  11.347  12.266   4.047 -0.1746 -0.2782  0.1066
56935SOL    HW179773  11.284  12.283   3.978 -1.1855 -3.0982  0.1902
56935SOL    HW279774  11.306  12.300   4.126  0.4166  1.8031 -0.4355
56936SOL     OW79775   8.411   0.347   0.631 -0.6199 -0.5997  0.6512
56936SOL    HW179776   8.440   0.395   0.709  0.7895 -0.5404  0.1347
56936SOL    HW279777   8.390   0.416   0.568  1.9017 -0.5586 -0.2673
56937SOL     OW79778   7.454   0.878  11.285 -0.4287  0.1518 -0.4507
56937SOL    HW179779   7.388   0.912  11.226 -1.7479 -0.6042  0.5330
56937SOL    HW279780   7.407   0.860  11.366  0.9289 -0.6695  0.1951
56938SOL     OW79781   4.616   0.567   9.205  0.5042  0.2171 -0.3286
56938SOL    HW179782   4.556   0.499   9.176  0.4372 -0.0579  0.4142
56938SOL    HW279783   4.664   0.526   9.278  0.9500  0.7360 -0.3261
56939SOL     OW79784   6.771  11.021  11.567 -0.4743 -0.6323 -0.6848
56939SOL    HW179785   6.851  11.068  11.593  0.0734 -0.4278 -2.6261
56939SOL    HW279786   6.706  11.049  11.632  0.6440  0.3636  0.0663
56940SOL     OW79787  11.461  10.141   2.577  0.0956  0.0001  0.2954
56940SOL    HW179788  11.423  10.055   2.591 -1.0129  0.3834 -0.2879
56940SOL    HW279789  11.509  10.134   2.495 -0.5995  0.1314 -0.1263
56941SOL     OW79790  11.540   1.132  11.406  0.1777  0.1573 -0.3636
56941SOL    HW179791  11.558   1.048  11.365  0.5751 -0.2033  0.5243
56941SOL    HW279792  11.604   1.138  11.477 -1.6996 -0.1386  1.4536
56942SOL     OW79793   3.239   5.695   9.945 -0.3829 -0.0486 -0.4386
56942SOL    HW179794   3.333   5.682   9.954 -0.3745 -0.2355 -0.7562
56942SOL    HW279795   3.226   5.711   9.851 -0.6745 -0.1055 -0.4096
56943SOL     OW79796   2.808  12.589  10.849 -0.8400  0.1349  0.3214
56943SOL    HW179797   2.839  12.677  10.866 -0.9703  0.4074 -0.7887
56943SOL    HW279798   2.887  12.534  10.856 -0.5556  0.4889 -0.0693
56944SOL     OW79799   6.603  12.377  11.083  0.1206  0.5241  0.0895
56944SOL    HW179800   6.641  12.420  11.159  1.4098  0.9759 -0.7745
56944SOL    HW279801   6.611  12.284  11.101 -1.0340  0.6229  1.1829
56945SOL     OW79802   5.811   0.362   4.305 -0.4922 -0.5581  0.1935
56945SOL    HW179803   5.730   0.353   4.255 -0.3704 -1.2888  0.1172
56945SOL    HW279804   5.835   0.454   4.295 -0.0229 -0.8577 -1.8169
56946SOL     OW79805   0.324  11.242   2.742 -0.2567 -0.3662  0.0007
56946SOL    HW179806   0.281  11.166   2.781 -1.3320 -0.3878 -1.1549
56946SOL    HW279807   0.364  11.287   2.816 -0.2649 -1.6314  0.8062
56947SOL     OW79808   4.928   5.369   2.177  0.4866  0.0696 -0.1140
56947SOL    HW179809   4.918   5.308   2.104  1.3703  0.6219 -0.7013
56947SOL    HW279810   4.891   5.322   2.252 -1.1425 -0.2017 -1.0458
56948SOL     OW79811   6.311   9.750   9.800  0.5911  0.2370 -0.1101
56948SOL    HW179812   6.321   9.706   9.716  1.7007 -1.1796  0.7049
56948SOL    HW279813   6.353   9.835   9.788  1.9422 -0.4718 -0.6202
56949SOL     OW79814   6.676   1.634   2.564 -0.0076 -0.2212  0.2277
56949SOL    HW179815   6.625   1.670   2.491 -1.3252 -1.1397  0.6620
56949SOL    HW279816   6.617   1.573   2.607  1.4145 -1.1941  0.8871
56950SOL     OW79817  11.325   4.690  11.978  0.1023  0.0743 -0.9485
56950SOL    HW179818  11.304   4.600  11.955  1.9675 -1.6970  3.1758
56950SOL    HW279819  11.241   4.727  12.007 -0.4061 -0.9612 -1.0289
56951SOL     OW79820   6.504   5.413  11.398 -0.2104  0.0639  0.3093
56951SOL    HW179821   6.457   5.332  11.377 -1.1930  1.0337 -1.6304
56951SOL    HW279822   6.560   5.428  11.322  0.4588  0.8539  0.9444
56952SOL     OW79823   1.538   6.554   2.622 -0.1733  0.6031  0.0478
56952SOL    HW179824   1.611   6.518   2.572 -0.5597  0.3111 -0.3198
56952SOL    HW279825   1.578   6.611   2.687  0.3885  0.2993 -0.0323
56953SOL     OW79826   4.431   9.404  10.690  0.0461  0.2640  0.2767
56953SOL    HW179827   4.430   9.309  10.703 -1.5702  0.1634 -0.3463
56953SOL    HW279828   4.380   9.418  10.610  0.0768  1.6674  0.4782
56954SOL     OW79829   6.779   7.465   4.574  0.5578  0.4766  0.0461
56954SOL    HW179830   6.684   7.456   4.581  0.5870  1.1854  2.2198
56954SOL    HW279831   6.812   7.376   4.583  0.1293  0.2841 -0.2401
56955SOL     OW79832  12.558   1.929   5.636  0.2887  0.4209 -0.5047
56955SOL    HW179833  12.607   1.881   5.703  0.2640  0.5723 -0.3774
56955SOL    HW279834  12.512   1.861   5.586 -0.6053  0.3731  0.3443
56956SOL     OW79835   6.448   5.902   8.376  0.0019  0.5768  0.2602
56956SOL    HW179836   6.409   5.954   8.446  0.8800  0.7449  0.6290
56956SOL    HW279837   6.426   5.812   8.398  0.3892  0.6165  0.8280
56957SOL     OW79838   6.816  11.860   0.205 -0.0542  0.4391  0.3951
56957SOL    HW179839   6.777  11.783   0.164 -0.5900  0.3987  0.9757
56957SOL    HW279840   6.756  11.884   0.275 -0.5321  2.1289 -0.5324
56958SOL     OW79841   7.634   6.015   3.767  0.5235 -0.2226  0.1094
56958SOL    HW179842   7.651   5.922   3.756  0.8829  0.1057 -3.0033
56958SOL    HW279843   7.563   6.034   3.705 -0.2135  1.4182  1.3842
56959SOL     OW79844   9.381   7.009   6.999 -0.2576 -0.4891  0.4918
56959SOL    HW179845   9.375   7.080   7.063 -1.4562 -0.8761  0.8366
56959SOL    HW279846   9.306   7.022   6.942  0.2204 -0.7609 -0.2107
56960SOL     OW79847   3.683   3.837   0.204  0.4724 -0.0162 -0.1132
56960SOL    HW179848   3.725   3.923   0.200  1.4555 -0.4014  1.2400
56960SOL    HW279849   3.618   3.844   0.274  1.0474 -0.5664  0.4867
56961SOL     OW79850   3.377   6.147   6.972  0.4922 -0.0302 -0.2285
56961SOL    HW179851   3.419   6.147   7.058  0.2615 -0.1630 -0.1146
56961SOL    HW279852   3.284   6.157   6.991  0.3851 -0.6443 -0.4344
56962SOL     OW79853   0.837  11.966   5.364  0.1192 -0.4990  0.5961
56962SOL    HW179854   0.910  11.944   5.422  1.6522  0.6490 -0.8013
56962SOL    HW279855   0.770  12.002   5.422  1.7227  0.9451  1.6419
56963SOL     OW79856   6.064   7.781   0.840  0.2670 -0.2768 -0.1794
56963SOL    HW179857   6.060   7.686   0.851  0.1846 -0.4290 -1.4164
56963SOL    HW279858   5.973   7.810   0.847 -0.0425 -0.6165 -2.3742
56964SOL     OW79859   6.832   1.379   5.286  0.2204  0.0614  0.1479
56964SOL    HW179860   6.808   1.310   5.348 -1.5704  0.9145  0.4677
56964SOL    HW279861   6.824   1.460   5.335  0.8120  0.6078 -0.6389
56965SOL     OW79862  12.215  10.115   4.890  0.2327 -0.0931  0.1602
56965SOL    HW179863  12.224  10.090   4.798 -0.0408  0.2298  0.0411
56965SOL    HW279864  12.267  10.195   4.898  1.1535 -0.7155  0.5512
56966SOL     OW79865   2.325  10.486   6.382  0.1804 -0.7582  0.1740
56966SOL    HW179866   2.387  10.472   6.311  1.2372 -0.9755  1.1199
56966SOL    HW279867   2.276  10.404   6.387 -0.0727 -0.6521 -0.4537
56967SOL     OW79868  10.086   6.780  12.380 -0.1506  0.2776 -0.4552
56967SOL    HW179869  10.023   6.756  12.448  0.8413 -1.6958 -0.1592
56967SOL    HW279870  10.117   6.867  12.405 -2.0022  0.8877 -0.0846
56968SOL     OW79871   4.249  10.595   9.839 -0.3632 -0.6135 -0.3896
56968SOL    HW179872   4.222  10.682   9.808  1.1265 -0.0705 -0.2720
56968SOL    HW279873   4.246  10.602   9.934  0.7507 -0.3336 -0.3631
56969SOL     OW79874  10.847  11.066   6.454 -0.1924  0.0842 -0.1820
56969SOL    HW179875  10.819  10.991   6.506 -0.3733 -0.2143 -0.7027
56969SOL    HW279876  10.921  11.103   6.502 -1.3565  0.7972  1.1522
56970SOL     OW79877   4.025   4.406   1.189  0.7008 -0.0119 -0.2139
56970SOL    HW179878   4.091   4.387   1.256  1.0697  0.4434 -0.4449
56970SOL    HW279879   4.034   4.499   1.171 -0.2568  0.1354  0.0114
56971SOL     OW79880   1.342  10.376   3.945  0.3420 -0.7729  0.4510
56971SOL    HW179881   1.367  10.327   4.023 -0.3559 -0.0904  1.1162
56971SOL    HW279882   1.247  10.366   3.939  0.3480 -0.5389 -0.1135
56972SOL     OW79883   6.191   9.553  11.540  0.2637  0.1518 -0.2292
56972SOL    HW179884   6.224   9.617  11.477  0.0089  0.9919  0.4817
56972SOL    HW279885   6.197   9.597  11.625  0.6638 -0.9932  0.3510
56973SOL     OW79886  10.498   0.631   4.944  0.0974 -0.4039  0.0150
56973SOL    HW179887  10.454   0.659   5.025  0.5106  0.5373 -0.0714
56973SOL    HW279888  10.495   0.708   4.888  1.3048 -0.5112 -0.2219
56974SOL     OW79889   5.515   0.517   9.600 -0.7265  0.1775  0.0422
56974SOL    HW179890   5.530   0.433   9.644  1.2383 -0.8265 -2.2866
56974SOL    HW279891   5.485   0.493   9.512 -0.4032  1.9003 -0.5755
56975SOL     OW79892  10.468   8.601   7.669  0.4855 -0.0995 -0.2623
56975SOL    HW179893  10.432   8.660   7.736 -0.0407 -0.0208 -0.6058
56975SOL    HW279894  10.450   8.513   7.703 -0.3593 -0.0628 -0.5930
56976SOL     OW79895   4.079   7.545   5.793 -0.1337 -0.2844  0.0054
56976SOL    HW179896   4.162   7.569   5.835 -0.3249  0.2771  0.0620
56976SOL    HW279897   4.104   7.525   5.703  0.3228 -1.7635  0.4157
56977SOL     OW79898  10.080   7.455  11.424  0.5677  0.5630 -0.0171
56977SOL    HW179899  10.057   7.543  11.396  0.6166  1.5757  2.7395
56977SOL    HW279900  10.173   7.446  11.403  0.2398  0.6053 -1.5499
56978SOL     OW79901  11.742   3.751  10.045 -0.7124 -0.2194 -0.1667
56978SOL    HW179902  11.705   3.762  10.133 -0.1361  1.8921 -0.1280
56978SOL    HW279903  11.837   3.759  10.058 -0.6284  0.2070 -0.9758
56979SOL     OW79904   1.179  10.865   9.732 -0.1455  0.1270 -0.4161
56979SOL    HW179905   1.145  10.890   9.817 -0.8960  1.4306 -1.0681
56979SOL    HW279906   1.253  10.808   9.751  0.1144  0.9382  1.1170
56980SOL     OW79907   3.848   6.328  10.129 -0.0540 -0.3010  0.0421
56980SOL    HW179908   3.809   6.412  10.152 -0.3093 -0.1437 -0.9233
56980SOL    HW279909   3.943   6.345  10.130 -0.0032 -0.4752  1.5714
56981SOL     OW79910   8.205   9.537   3.266 -0.5375  0.2099  0.3343
56981SOL    HW179911   8.170   9.534   3.178 -0.8875 -0.2290  0.4836
56981SOL    HW279912   8.300   9.530   3.255 -0.3275  2.9292 -0.1624
56982SOL     OW79913   9.048   0.432   3.566 -0.1366  0.3715 -0.1681
56982SOL    HW179914   8.968   0.423   3.515 -0.0851 -2.0544  0.0873
56982SOL    HW279915   9.024   0.404   3.654  0.5733  1.4059  0.3870
56983SOL     OW79916   0.932   5.717   7.988  0.3723  0.0987 -0.1329
56983SOL    HW179917   0.837   5.708   7.993  0.4832 -0.4625  1.3250
56983SOL    HW279918   0.966   5.635   8.024  1.4196  0.7831  0.4867
56984SOL     OW79919   4.269   2.351   2.838 -0.3947  0.1885 -1.0287
56984SOL    HW179920   4.339   2.416   2.828  0.5320 -0.4233  0.8249
56984SOL    HW279921   4.297   2.278   2.783  0.3820  0.0092 -0.4215
56985SOL     OW79922   7.938   4.158   8.319 -0.0509 -0.5556 -0.4998
56985SOL    HW179923   7.934   4.069   8.355 -1.7627 -0.0405  0.7574
56985SOL    HW279924   7.931   4.145   8.224 -2.0621 -1.7462 -0.2686
56986SOL     OW79925   3.831   9.761   9.006 -0.0222 -0.1004  0.1151
56986SOL    HW179926   3.837   9.856   9.000 -0.2864 -0.0432  0.7260
56986SOL    HW279927   3.742   9.744   9.039  0.0487 -0.5563  0.0831
56987SOL     OW79928   8.912   3.679  11.498 -0.0650  0.1063 -0.2109
56987SOL    HW179929   8.930   3.592  11.534 -1.4702 -0.4359 -0.7652
56987SOL    HW279930   8.967   3.738  11.550  0.1000 -0.9869  0.9005
56988SOL     OW79931   8.983  10.503   1.310 -0.3458  0.2798 -0.2188
56988SOL    HW179932   9.063  10.544   1.342 -1.6772  2.5802  0.4400
56988SOL    HW279933   9.012  10.429   1.257  2.1538  0.6138  0.5838
56989SOL     OW79934   5.908   4.165   8.555  0.7978  0.2634  0.0570
56989SOL    HW179935   5.958   4.223   8.497  0.2387  1.5849  0.8794
56989SOL    HW279936   5.975   4.114   8.600  1.3135  0.5535 -0.3593
56990SOL     OW79937   5.634   2.584  12.220 -0.1999 -0.0676 -0.0109
56990SOL    HW179938   5.707   2.530  12.250  1.5224  1.1208 -1.7658
56990SOL    HW279939   5.559   2.555  12.272  0.8839 -3.2086  0.0193
56991SOL     OW79940   1.365   3.004   7.041 -0.3535  0.2317  0.1973
56991SOL    HW179941   1.412   3.010   7.124 -0.2141 -2.4661  0.3951
56991SOL    HW279942   1.397   2.923   7.001 -3.0929 -0.4962 -0.7510
56992SOL     OW79943   1.680   2.940  10.798 -0.5417  0.2803 -0.3372
56992SOL    HW179944   1.733   2.891  10.736  0.9034  1.1934  0.1471
56992SOL    HW279945   1.635   3.006  10.745  1.3525  1.6265 -0.3549
56993SOL     OW79946   7.059  12.075   1.005 -0.1128 -0.0911 -0.2593
56993SOL    HW179947   6.984  12.068   1.064  0.5879  2.0110  0.9843
56993SOL    HW279948   7.031  12.139   0.938  0.2737  0.0864 -0.2541
56994SOL     OW79949   6.338   9.125   9.743  0.6704  0.1603  0.3049
56994SOL    HW179950   6.434   9.130   9.743  0.6288  1.4593  0.6011
56994SOL    HW279951   6.310   9.203   9.696 -0.2537 -0.0413  0.5017
56995SOL     OW79952   4.299   6.483  10.836 -0.3505 -0.1897 -0.1404
56995SOL    HW179953   4.360   6.488  10.909 -1.2300  1.5471  0.5179
56995SOL    HW279954   4.311   6.564  10.788 -2.4388  0.4418  0.2932
56996SOL     OW79955   4.878   8.522  11.735  0.4059  0.6233  0.1854
56996SOL    HW179956   4.868   8.603  11.785  2.5136 -0.1065  1.9276
56996SOL    HW279957   4.971   8.517  11.713 -0.3316  0.7941 -3.8398
56997SOL     OW79958   5.761   1.934   2.876 -0.2576  0.1007 -1.5230
56997SOL    HW179959   5.742   2.024   2.902 -0.8786 -0.0008 -1.6107
56997SOL    HW279960   5.676   1.889   2.882 -0.4146  0.0219 -3.5041
56998SOL     OW79961   9.732   3.068  10.085 -1.1297  0.0315 -0.0731
56998SOL    HW179962   9.717   3.103   9.997 -0.4086 -1.4632 -0.8306
56998SOL    HW279963   9.825   3.085  10.102 -0.8836 -1.0402 -0.2627
56999SOL     OW79964   1.807  12.015  10.122 -0.5236 -0.0032  0.2963
56999SOL    HW179965   1.802  12.044  10.031  0.9076  0.6121  0.3829
56999SOL    HW279966   1.873  11.945  10.121 -0.5553 -0.0432  0.8518
57000SOL     OW79967  11.873   4.952   3.438 -0.3042 -0.2112  0.0200
57000SOL    HW179968  11.908   5.017   3.378 -0.0016 -0.6344 -0.2726
57000SOL    HW279969  11.833   5.002   3.508  0.6144  0.2911  0.1953
57001SOL     OW79970   4.775   9.997   6.271  0.0588 -0.1188  0.3229
57001SOL    HW179971   4.752  10.084   6.237  1.3841  0.8401  1.7380
57001SOL    HW279972   4.861  10.009   6.311  0.6924 -2.3331 -0.2635
57002SOL     OW79973   6.162   0.031  10.500 -0.1392  0.2975 -0.0191
57002SOL    HW179974   6.252   0.055  10.520  0.2812 -0.4225 -0.9773
57002SOL    HW279975   6.169  -0.034  10.431 -1.3336 -0.9554  0.9711
57003SOL     OW79976   7.035   3.205   3.330  0.0559 -0.1333 -0.4870
57003SOL    HW179977   7.023   3.144   3.403  1.2284  0.7152  0.4569
57003SOL    HW279978   7.003   3.157   3.253  0.6208 -1.8036  0.2696
57004SOL     OW79979   9.893   5.860  10.010 -0.2324  0.2814 -0.0003
57004SOL    HW179980   9.822   5.904   9.963 -0.5055 -1.1666 -1.0047
57004SOL    HW279981   9.948   5.931  10.043 -2.2376  1.4502  0.9913
57005SOL     OW79982  11.510   5.038  11.528 -0.5471 -0.5751 -0.7719
57005SOL    HW179983  11.426   5.003  11.557  0.2085 -3.2354 -1.5529
57005SOL    HW279984  11.495   5.065  11.438 -0.7238 -0.3228 -0.6708
57006SOL     OW79985   9.489   5.819   1.207  0.1763 -0.0780 -0.1995
57006SOL    HW179986   9.508   5.733   1.170 -0.1250 -0.0951 -0.3218
57006SOL    HW279987   9.553   5.878   1.165 -0.8014  0.0853 -1.5537
57007SOL     OW79988   5.123  11.410  10.968  0.2082  0.4190  0.2033
57007SOL    HW179989   5.138  11.349  11.041  0.7232 -0.9634 -1.0070
57007SOL    HW279990   5.063  11.364  10.910  0.2841  1.2482 -0.5545
57008SOL     OW79991   3.029  11.766   3.374 -0.5537 -0.3320  0.0646
57008SOL    HW179992   3.014  11.789   3.283 -1.6526  2.4809  0.8207
57008SOL    HW279993   2.941  11.757   3.412 -0.1902  0.5808  1.2214
57009SOL     OW79994  10.302   8.700   6.168 -0.2170 -0.4559 -0.0786
57009SOL    HW179995  10.210   8.676   6.156 -0.5268  0.6741 -0.0273
57009SOL    HW279996  10.328   8.654   6.249 -0.2801 -1.9871 -0.8854
57010SOL     OW79997   0.097   2.759   1.800 -0.1370 -0.1087 -0.6022
57010SOL    HW179998   0.030   2.700   1.767 -0.3247 -0.2727  0.0644
57010SOL    HW279999   0.094   2.835   1.742 -1.6413  0.3692  0.0535
57011SOL     OW80000   3.734   5.296   0.860  1.0284  0.0390 -0.3536
57011SOL    HW180001   3.776   5.306   0.774 -0.0791 -1.0496 -1.0540
57011SOL    HW280002   3.672   5.224   0.848  0.8627 -0.1401  1.3778
57012SOL     OW80003  10.078   8.401   2.001 -0.1028  0.2008 -0.0801
57012SOL    HW180004  10.038   8.467   1.944 -0.6513  1.5724  1.7551
57012SOL    HW280005  10.063   8.318   1.957 -2.5589  0.9569 -0.8448
57013SOL     OW80006   2.413   6.719   3.998 -0.5181  0.2794 -0.3336
57013SOL    HW180007   2.410   6.775   3.920 -0.1778  0.4371 -0.2368
57013SOL    HW280008   2.438   6.778   4.069  1.0716 -0.2129 -0.4486
57014SOL     OW80009   8.348   6.183  11.393 -0.3765  0.1009  0.3955
57014SOL    HW180010   8.290   6.219  11.325 -0.7955 -0.2616  0.5558
57014SOL    HW280011   8.340   6.089  11.382  1.3812  0.0196 -0.5928
57015SOL     OW80012  12.532   4.185   4.228 -0.5151  0.7262  0.1765
57015SOL    HW180013  12.438   4.196   4.243 -0.6838  0.1629 -0.4099
57015SOL    HW280014  12.554   4.104   4.274 -0.1460  1.2574  0.9646
57016SOL     OW80015  11.887   0.522   5.958 -0.8278 -0.4225  0.3678
57016SOL    HW180016  11.980   0.503   5.971 -0.7488 -0.3540 -0.0949
57016SOL    HW280017  11.855   0.448   5.906 -0.4506  0.7874 -1.7211
57017SOL     OW80018   8.238   0.488  11.277  0.2718  0.4313  0.2496
57017SOL    HW180019   8.304   0.419  11.269 -0.6827 -0.4744 -0.0940
57017SOL    HW280020   8.262   0.553  11.212 -0.5366 -1.0663 -1.6324
57018SOL     OW80021   8.278   4.906   0.973 -0.1528  0.1990 -0.2355
57018SOL    HW180022   8.253   4.855   1.050 -1.1678  1.6157  0.4074
57018SOL    HW280023   8.270   4.997   1.000  0.9588  0.7406 -1.5637
57019SOL     OW80024   2.085   5.357   5.339  0.1476  0.7316  0.6452
57019SOL    HW180025   2.160   5.310   5.376  1.0616  1.6196 -0.0427
57019SOL    HW280026   2.099   5.356   5.245 -1.2348  0.0585  0.4203
57020SOL     OW80027  10.243  12.310   9.925 -0.1199 -0.9246 -0.2042
57020SOL    HW180028  10.337  12.302   9.944 -0.2284 -3.6411 -0.4776
57020SOL    HW280029  10.240  12.359   9.843  0.9528  0.3655  0.4784
57021SOL     OW80030   9.886  12.373   0.838  0.0510 -0.0586  0.1758
57021SOL    HW180031   9.948  12.403   0.772  0.5122  1.8447  1.4018
57021SOL    HW280032   9.916  12.413   0.919 -0.5995 -2.1930  1.5512
57022SOL     OW80033   7.012   4.294   3.754 -0.0340  0.2803  0.0212
57022SOL    HW180034   7.107   4.282   3.743  0.2165 -0.1440  2.2044
57022SOL    HW280035   6.998   4.286   3.848 -2.5942 -2.3003 -0.4545
57023SOL     OW80036   7.237   5.125   5.877  0.0704  0.4643 -0.1898
57023SOL    HW180037   7.262   5.081   5.958 -0.4431 -0.2686 -0.4247
57023SOL    HW280038   7.189   5.203   5.907  0.9111  0.8406  0.2221
57024SOL     OW80039   4.114   7.393   7.510 -0.2780  0.3673  0.2851
57024SOL    HW180040   4.167   7.406   7.431 -0.7991 -1.9646 -0.5241
57024SOL    HW280041   4.035   7.351   7.478 -0.1705 -1.3302  2.1300
57025SOL     OW80042   5.554   8.819   4.509 -0.1579  0.0584 -0.4311
57025SOL    HW180043   5.563   8.772   4.592 -0.0402 -0.9209 -0.9779
57025SOL    HW280044   5.460   8.818   4.491 -0.5011  2.4135  0.8603
57026SOL     OW80045   8.049   2.757   3.514 -0.0202 -0.0186 -0.2817
57026SOL    HW180046   7.989   2.777   3.587 -1.0935 -1.9268 -0.5586
57026SOL    HW280047   8.134   2.743   3.556 -0.9162 -2.5484  0.8883
57027SOL     OW80048   6.387   0.322   4.662  0.3794  0.7176  0.2896
57027SOL    HW180049   6.412   0.401   4.613  0.3753  1.1611  0.9819
57027SOL    HW280050   6.452   0.257   4.635 -0.3710  0.5546 -1.2640
57028SOL     OW80051   5.463   0.832   3.553 -0.1306 -0.2398  0.3202
57028SOL    HW180052   5.377   0.812   3.515  0.2129 -0.2100 -0.4841
57028SOL    HW280053   5.516   0.754   3.536  0.9756  0.9547 -2.1296
57029SOL     OW80054   8.520   2.783  12.553  0.3535  0.9289  0.2987
57029SOL    HW180055   8.607   2.750  12.576 -0.7688 -1.4695  1.5109
57029SOL    HW280056   8.512   2.866  12.600  2.0895  1.3814 -0.1407
57030SOL     OW80057  11.895   3.062  10.178 -0.1276 -0.5307  0.3670
57030SOL    HW180058  11.985   3.073  10.208  0.0149 -1.8106  0.4769
57030SOL    HW280059  11.898   3.084  10.085  0.0512  0.5404  0.6152
57031SOL     OW80060   0.775  11.862   0.431 -0.0639 -0.0027  0.1520
57031SOL    HW180061   0.714  11.804   0.478  1.7227 -2.3116 -0.1788
57031SOL    HW280062   0.748  11.856   0.340  1.4070 -2.2134 -0.2192
57032SOL     OW80063   4.341   3.173   5.697 -0.2898 -0.2332 -0.0747
57032SOL    HW180064   4.363   3.085   5.729 -1.4172 -0.4104  0.2779
57032SOL    HW280065   4.284   3.157   5.621  0.4402  0.2015 -0.7307
57033SOL     OW80066   8.723   5.496  12.375 -0.4356  0.5811  0.4588
57033SOL    HW180067   8.783   5.563  12.344 -0.1132  0.2954  0.4553
57033SOL    HW280068   8.749   5.480  12.466 -2.6606  2.8647  1.6028
57034SOL     OW80069   1.948   2.955   1.714 -0.2812 -0.1070 -0.8778
57034SOL    HW180070   1.883   2.905   1.664 -0.8344 -0.8097  0.5080
57034SOL    HW280071   1.905   3.039   1.732  0.3615  0.6299 -2.5402
57035SOL     OW80072   8.694   1.628   4.860  0.0302 -0.1305 -0.2095
57035SOL    HW180073   8.746   1.599   4.934  1.0911 -1.6503 -1.4996
57035SOL    HW280074   8.630   1.558   4.846  0.3458 -0.2310 -1.2076
57036SOL     OW80075   2.320  12.571   8.727  0.5185  0.1582 -0.0238
57036SOL    HW180076   2.404  12.550   8.688  0.6938  1.1505 -0.2082
57036SOL    HW280077   2.291  12.650   8.682 -1.2160 -0.9756 -1.0093
57037SOL     OW80078   9.414   3.694   5.699 -0.3977 -0.0418  0.0555
57037SOL    HW180079   9.415   3.649   5.615  1.8336 -2.8169  1.3658
57037SOL    HW280080   9.500   3.735   5.706 -1.5767  2.6744 -0.1079
57038SOL     OW80081  11.884   9.191   8.297 -0.2991  0.2184 -0.2887
57038SOL    HW180082  11.970   9.231   8.283 -1.0902  1.5287 -1.7238
57038SOL    HW280083  11.903   9.101   8.323  1.5339  0.9925  1.2685
57039SOL     OW80084   5.832   7.673   3.228  0.2613  0.1865  0.0998
57039SOL    HW180085   5.835   7.637   3.317  0.2211  0.7264  0.3237
57039SOL    HW280086   5.904   7.630   3.182  1.3700  1.1545  0.8706
57040SOL     OW80087   6.819   7.489   2.812 -0.4085 -0.1375  0.0970
57040SOL    HW180088   6.790   7.579   2.829 -0.8088 -0.3728  0.7186
57040SOL    HW280089   6.878   7.469   2.884  1.1013  0.2338 -1.0072
57041SOL     OW80090   7.262  10.175   8.035  1.1815  0.1006 -0.6957
57041SOL    HW180091   7.238  10.121   8.110  1.7935  0.6521 -0.0943
57041SOL    HW280092   7.296  10.113   7.971  0.6829 -0.3702 -0.5101
57042SOL     OW80093   1.465  10.927   8.113  0.5188  0.4379  0.0335
57042SOL    HW180094   1.466  10.995   8.046 -0.3855  0.7829  0.3532
57042SOL    HW280095   1.401  10.957   8.177  0.8507 -0.2305  0.6943
57043SOL     OW80096   1.932   2.507   1.500 -0.2119  0.2387 -0.2698
57043SOL    HW180097   1.935   2.429   1.556 -0.8456  0.8961  0.7054
57043SOL    HW280098   1.953   2.474   1.413  2.4656 -0.5481  0.5839
57044SOL     OW80099  12.080  11.650   2.843 -0.0667  0.8881 -0.4355
57044SOL    HW180100  12.114  11.560   2.837 -2.0090  0.0408  0.5059
57044SOL    HW280101  12.011  11.653   2.777 -2.5218  0.4267  1.9362
57045SOL     OW80102  11.562   4.601   6.472  0.2130 -0.1713  0.6912
57045SOL    HW180103  11.644   4.553   6.463 -0.8173 -1.6424 -1.8515
57045SOL    HW280104  11.562   4.663   6.399 -1.1678 -0.6069  0.2913
57046SOL     OW80105   8.252  12.438   5.242 -0.3711 -0.1013  0.0555
57046SOL    HW180106   8.202  12.508   5.285  0.4512  0.5776 -0.0521
57046SOL    HW280107   8.342  12.453   5.272 -0.2618 -1.4303  0.4225
57047SOL     OW80108   5.637   3.749   3.736  0.2408 -0.6306  0.0973
57047SOL    HW180109   5.695   3.734   3.811 -0.2269 -1.7152  0.2626
57047SOL    HW280110   5.610   3.661   3.709 -0.2571 -0.2036 -0.8193
57048SOL     OW80111   2.164   2.361   1.765 -0.4807  0.1831  0.2648
57048SOL    HW180112   2.115   2.377   1.846 -0.3552  1.8900  0.0446
57048SOL    HW280113   2.120   2.286   1.726 -0.9842 -0.2407  1.5687
57049SOL     OW80114   0.426   8.181   7.771  0.4546 -0.1685 -0.4079
57049SOL    HW180115   0.458   8.196   7.860  0.6316 -0.9068 -0.3388
57049SOL    HW280116   0.367   8.254   7.754  0.7942  0.2444  0.1330
57050SOL     OW80117  10.494   7.045   9.822 -0.0545 -0.1059  0.0368
57050SOL    HW180118  10.540   7.129   9.809  0.9669 -0.8144 -1.1548
57050SOL    HW280119  10.408   7.058   9.783 -0.0294  0.4932  0.1675
57051SOL     OW80120   9.114   8.523   7.399 -0.0218  0.2990 -0.1082
57051SOL    HW180121   9.186   8.547   7.458 -0.3054  0.5523  0.1342
57051SOL    HW280122   9.139   8.560   7.314 -0.1798  0.9572  0.1290
57052SOL     OW80123  10.127   4.403   0.906 -0.2659 -0.1946  0.6241
57052SOL    HW180124  10.035   4.389   0.885 -0.4279 -0.6985  1.5868
57052SOL    HW280125  10.162   4.450   0.831 -0.4747 -2.9680 -1.3599
57053SOL     OW80126   8.997  11.871  10.244 -0.1733  0.2757  0.3763
57053SOL    HW180127   9.075  11.836  10.201 -0.7331  1.3697 -1.6594
57053SOL    HW280128   9.029  11.910  10.325  1.5589  1.4984 -0.8400
57054SOL     OW80129   9.078   4.750   0.992  0.3699  0.4649  0.4676
57054SOL    HW180130   9.098   4.684   0.926  1.0007  0.4981  0.6219
57054SOL    HW280131   9.103   4.833   0.951 -1.7620  0.8048 -0.2976
57055SOL     OW80132   2.479   2.158   9.992 -0.0425 -0.0781  0.8872
57055SOL    HW180133   2.532   2.218  10.044  0.5535  0.1076  0.0832
57055SOL    HW280134   2.403   2.210   9.965  1.0571  0.7342 -0.8202
57056SOL     OW80135   6.167   7.487   0.848  0.1144 -0.0894 -0.4210
57056SOL    HW180136   6.213   7.569   0.829 -1.8799  0.7849 -1.8365
57056SOL    HW280137   6.169   7.438   0.767 -0.1070 -0.7135 -0.0563
57057SOL     OW80138   4.450   2.769   4.886 -0.1869  0.1822 -0.2429
57057SOL    HW180139   4.393   2.769   4.809 -0.0629  0.7514 -0.3394
57057SOL    HW280140   4.392   2.748   4.959 -0.1014 -1.5018 -0.6252
57058SOL     OW80141   3.163   9.270   2.148  0.0682  0.1704 -0.1159
57058SOL    HW180142   3.148   9.364   2.162 -0.5361  0.1353 -0.4992
57058SOL    HW280143   3.084   9.240   2.103  0.3737 -0.4712 -0.2262
57059SOL     OW80144   6.587   5.130   9.821  0.2072 -0.3712 -0.0031
57059SOL    HW180145   6.522   5.169   9.762 -1.8471 -0.2791  2.1470
57059SOL    HW280146   6.577   5.036   9.809  0.1459 -0.3432 -0.1744
57060SOL     OW80147   4.562  10.389  11.205  0.5807 -0.5547 -0.6499
57060SOL    HW180148   4.598  10.300  11.213  2.6126  0.2842  0.1322
57060SOL    HW280149   4.575  10.428  11.291 -0.4031  0.4972 -0.9485
57061SOL     OW80150   1.674   4.828   6.002  0.2003  0.3638  0.2305
57061SOL    HW180151   1.605   4.875   5.955  1.4202  0.2029 -1.8346
57061SOL    HW280152   1.755   4.869   5.972  1.2522 -2.2536 -0.7931
57062SOL     OW80153  10.865   4.991   6.912 -0.2284  0.3411  0.1464
57062SOL    HW180154  10.861   4.945   6.996  0.7491 -1.0063 -0.5282
57062SOL    HW280155  10.829   5.078   6.932 -0.2541 -0.0272  1.8987
57063SOL     OW80156  11.941  10.083   8.111 -0.0155 -0.0422 -0.6536
57063SOL    HW180157  11.989  10.159   8.145  0.8709 -0.9620  0.2085
57063SOL    HW280158  11.861  10.081   8.163 -0.0499  0.3147 -0.6888
57064SOL     OW80159   7.026   7.825   3.723 -0.5150 -0.0673 -0.0009
57064SOL    HW180160   7.050   7.917   3.724 -1.0747  0.0934 -0.7877
57064SOL    HW280161   7.083   7.785   3.789  1.3491  0.4397 -1.2350
57065SOL     OW80162  10.300  11.965   8.207 -0.3316  0.2307  0.8231
57065SOL    HW180163  10.315  11.943   8.299  0.5598  1.8291  1.0895
57065SOL    HW280164  10.240  12.039   8.209  2.8293  2.9996  0.3928
57066SOL     OW80165   7.830   9.842   7.651  0.3833  0.7015  0.1432
57066SOL    HW180166   7.900   9.783   7.678  0.8210  0.6395 -1.0703
57066SOL    HW280167   7.753   9.786   7.645  0.3858  0.6239  0.7634
57067SOL     OW80168   2.785   0.154   9.897 -0.0627 -0.3313  0.1444
57067SOL    HW180169   2.852   0.110   9.948  2.3019  1.4070 -1.2696
57067SOL    HW280170   2.774   0.239   9.939  0.2565  0.2366 -0.8865
57068SOL     OW80171   3.834   2.852   6.763 -0.0842 -0.3851 -0.6821
57068SOL    HW180172   3.771   2.916   6.796  0.8098 -0.1767  0.6775
57068SOL    HW280173   3.902   2.906   6.722  0.0393 -0.5409 -0.6780
57069SOL     OW80174   4.248   3.201   6.940 -0.3878 -0.5106  0.0591
57069SOL    HW180175   4.299   3.214   7.020 -1.5442 -3.4599  1.4124
57069SOL    HW280176   4.282   3.120   6.902  0.1867  0.8566 -2.5758
57070SOL     OW80177   7.066  10.526   8.690  0.2585 -0.0446 -0.2296
57070SOL    HW180178   7.067  10.469   8.613  0.8944  1.2127 -1.1819
57070SOL    HW280179   7.020  10.475   8.757  2.2778 -2.4094 -0.4784
57071SOL     OW80180  12.205   1.952   5.394  0.6202 -0.2313  0.0044
57071SOL    HW180181  12.185   1.971   5.303  1.2059 -1.0041 -0.2941
57071SOL    HW280182  12.298   1.970   5.403  0.8144 -1.2602  0.1448
57072SOL     OW80183   2.420   8.774   1.951  0.2291 -0.3330 -0.0328
57072SOL    HW180184   2.325   8.764   1.957  0.2734 -0.5628  0.3246
57072SOL    HW280185   2.455   8.698   1.998  0.5871  0.7106  1.4447
57073SOL     OW80186   5.132  10.792   2.495 -0.6736 -0.0962  0.6386
57073SOL    HW180187   5.187  10.865   2.465 -0.2391 -0.8698 -0.5241
57073SOL    HW280188   5.052  10.834   2.525  0.3050  1.0137  1.8304
57074SOL     OW80189   3.948   3.016   1.282  0.0983  0.6474  0.2372
57074SOL    HW180190   3.944   3.031   1.376 -0.8617  2.3375 -0.0179
57074SOL    HW280191   3.861   3.040   1.250  0.8816  1.7003 -1.2626
57075SOL     OW80192   5.927   6.753   3.053  0.3025  0.3088  0.9997
57075SOL    HW180193   6.018   6.781   3.037 -0.0798  1.6740  1.0982
57075SOL    HW280194   5.886   6.757   2.967  0.0540  0.7839  1.1378
57076SOL     OW80195   5.579   4.553   2.232 -0.3007 -0.5339 -0.2765
57076SOL    HW180196   5.643   4.524   2.167  1.2184  1.7192  0.0771
57076SOL    HW280197   5.545   4.635   2.197 -0.5904 -0.0585  1.0409
57077SOL     OW80198   6.455   1.910   3.267  0.1357 -0.4085 -0.0188
57077SOL    HW180199   6.376   1.857   3.275 -0.1398  0.0679  0.3879
57077SOL    HW280200   6.492   1.913   3.355 -0.0224  0.3454  0.0236
57078SOL     OW80201   2.125   8.995  10.056  0.0477 -0.7423 -0.2386
57078SOL    HW180202   2.121   9.013  10.150  0.8814 -0.0112 -0.3216
57078SOL    HW280203   2.183   9.063  10.022 -1.7264  0.1813 -1.5771
57079SOL     OW80204   0.970  10.630   8.464  0.1738  0.1284 -0.2526
57079SOL    HW180205   0.941  10.714   8.428  1.6069  0.9288  0.3477
57079SOL    HW280206   0.960  10.641   8.559  0.4323 -0.3461 -0.1688
57080SOL     OW80207   3.223   1.860   0.654 -0.4880 -0.4929  0.3835
57080SOL    HW180208   3.316   1.882   0.658 -0.0572 -2.0223 -0.3004
57080SOL    HW280209   3.181   1.920   0.715  0.8399  0.7350  0.1547
57081SOL     OW80210   2.977   0.528   0.713 -0.0671 -0.3546  0.3223
57081SOL    HW180211   2.885   0.552   0.728 -0.8051 -1.6559 -1.7190
57081SOL    HW280212   3.009   0.504   0.800 -1.2066  1.4546  1.3272
57082SOL     OW80213  10.454   0.081   6.061 -0.7783  0.1421 -0.2984
57082SOL    HW180214  10.380   0.025   6.038 -0.9448  0.3765 -0.3280
57082SOL    HW280215  10.509   0.082   5.983  1.2449 -3.1199  0.8454
57083SOL     OW80216  10.439   0.529   5.403 -0.3171  0.5568  0.2971
57083SOL    HW180217  10.485   0.450   5.373 -1.8649 -1.1242  2.0582
57083SOL    HW280218  10.411   0.508   5.492 -1.1762  2.9660  0.6607
57084SOL     OW80219  11.495  11.635   2.570  0.3259  0.4265 -0.1239
57084SOL    HW180220  11.496  11.654   2.663 -2.7365 -1.0643  0.3309
57084SOL    HW280221  11.476  11.719   2.528  1.4897  1.0556  0.5914
57085SOL     OW80222   2.421   0.211   9.887  0.1796  0.2092  0.0830
57085SOL    HW180223   2.335   0.171   9.900  0.1743 -0.2963 -1.2861
57085SOL    HW280224   2.406   0.304   9.900 -0.4443  0.0691  0.4357
57086SOL     OW80225   6.085   7.144   2.321  0.1259  0.4049 -0.0857
57086SOL    HW180226   6.165   7.092   2.329  0.0796  0.2225 -0.7515
57086SOL    HW280227   6.027   7.091   2.266 -1.2037 -0.3450  1.9334
57087SOL     OW80228  12.023   8.450   2.503  0.3938 -0.4308  0.3410
57087SOL    HW180229  11.998   8.540   2.525 -2.1733 -0.5159 -1.6998
57087SOL    HW280230  12.055   8.456   2.413  0.5193 -1.5049  0.3034
57088SOL     OW80231   1.103   1.067   6.269  0.2159 -0.4580 -0.6705
57088SOL    HW180232   1.161   1.066   6.345 -0.1913 -0.3335 -0.3540
57088SOL    HW280233   1.031   1.008   6.292  0.4148 -0.9256 -1.2241
57089SOL     OW80234   9.183  11.605   2.242  0.1843  0.0167 -0.8450
57089SOL    HW180235   9.233  11.526   2.266 -0.9199 -0.2674  0.6350
57089SOL    HW280236   9.236  11.647   2.174  0.9923 -1.7954 -1.3981
57090SOL     OW80237   5.589   1.637   2.920  0.3257 -0.2928  0.3661
57090SOL    HW180238   5.521   1.577   2.892 -0.1851  0.4739 -0.0730
57090SOL    HW280239   5.627   1.670   2.839 -0.4381  1.1229  0.5493
57091SOL     OW80240   4.844   6.609  11.607 -0.1144 -0.0030  0.3042
57091SOL    HW180241   4.895   6.602  11.688 -1.3966 -0.3162  1.1129
57091SOL    HW280242   4.761   6.567  11.628 -0.5910  0.2163 -1.0842
57092SOL     OW80243   5.190   8.787   0.152 -0.2503  0.1258  0.2473
57092SOL    HW180244   5.187   8.705   0.102  2.6397 -0.2053  0.4441
57092SOL    HW280245   5.173   8.855   0.087 -1.4535 -0.5369 -0.1630
57093SOL     OW80246   1.817  11.800  10.738 -0.4489 -0.3640  0.9058
57093SOL    HW180247   1.810  11.893  10.759 -0.8076 -0.3387  0.6728
57093SOL    HW280248   1.903  11.791  10.698 -1.2023  0.2397 -0.9579
57094SOL     OW80249   7.715  12.557   9.119  0.1435  0.0250 -0.2990
57094SOL    HW180250   7.809  12.546   9.106 -0.0632 -0.1410 -1.7957
57094SOL    HW280251   7.700  12.650   9.108  0.4027  0.3984  2.0542
57095SOL     OW80252   7.299  11.233   4.378  0.0590 -0.5637 -0.8463
57095SOL    HW180253   7.380  11.258   4.333 -0.2426  0.6225 -0.7618
57095SOL    HW280254   7.234  11.226   4.308  0.1162 -1.0061 -0.8553
57096SOL     OW80255   3.652   2.185   5.146 -0.5604 -0.4105  0.4580
57096SOL    HW180256   3.653   2.094   5.117  0.6747 -0.9393  2.0246
57096SOL    HW280257   3.740   2.217   5.126 -0.9363  0.4137  0.0710
57097SOL     OW80258   9.228   9.192   2.012  0.2770 -0.0864  0.4566
57097SOL    HW180259   9.198   9.106   2.041  0.9445  0.0926  1.7991
57097SOL    HW280260   9.155   9.251   2.030 -0.0195 -0.2900 -0.0546
57098SOL     OW80261  10.712  12.341   7.652  0.1185  0.2988 -0.0125
57098SOL    HW180262  10.738  12.321   7.742  0.3917 -0.6224 -0.2876
57098SOL    HW280263  10.630  12.294   7.640  0.8812 -0.9050 -0.7355
57099SOL     OW80264  12.517   3.080   0.587  0.0799 -0.0308 -0.0527
57099SOL    HW180265  12.478   3.135   0.655  0.8366 -0.5695  0.8423
57099SOL    HW280266  12.523   2.994   0.627 -0.2128 -0.5601 -1.1062
57100SOL     OW80267   0.401   4.976  10.347  0.2299  0.1102 -0.4235
57100SOL    HW180268   0.374   5.035  10.417  0.4776  1.0920 -1.1373
57100SOL    HW280269   0.456   4.911  10.391 -0.2840  0.2317  0.4205
57101SOL     OW80270   7.230   8.606   6.016 -0.0662  0.1788  0.2797
57101SOL    HW180271   7.135   8.603   6.028  0.0878  1.2727  2.2304
57101SOL    HW280272   7.250   8.699   6.005  0.6975 -0.1357 -1.3026
57102SOL     OW80273   6.860   9.178   8.198  0.1835 -0.0045  0.6714
57102SOL    HW180274   6.949   9.206   8.219  0.3385 -0.2986  0.4090
57102SOL    HW280275   6.818   9.166   8.284 -0.5532  3.0267  0.8517
57103SOL     OW80276  10.847   6.206   4.411 -0.3980  0.1740  0.1113
57103SOL    HW180277  10.876   6.136   4.470 -0.1322  0.3170  0.1526
57103SOL    HW280278  10.866   6.286   4.459 -0.6783  0.2775  0.0529
57104SOL     OW80279   7.612   7.668  11.464  0.0810 -0.1268 -0.1340
57104SOL    HW180280   7.568   7.584  11.447 -1.6842  0.3709  1.6282
57104SOL    HW280281   7.701   7.655  11.431 -0.4037 -2.3623 -0.7617
57105SOL     OW80282   5.328  12.071   6.429  0.4164  0.5922  0.2282
57105SOL    HW180283   5.424  12.079   6.433  0.5206 -0.3719  0.0289
57105SOL    HW280284   5.303  12.038   6.515  0.2172  1.2201  0.4122
57106SOL     OW80285   0.199   8.958  10.133  0.0929 -0.0401 -0.4362
57106SOL    HW180286   0.246   8.914  10.063  1.0261  0.1332  0.0610
57106SOL    HW280287   0.263   9.017  10.171 -1.3371  2.4456 -1.6425
57107SOL     OW80288   2.303   9.167   9.946  0.7108  0.4009 -0.0038
57107SOL    HW180289   2.274   9.243   9.896  0.6399  0.0087 -0.5696
57107SOL    HW280290   2.395   9.155   9.919  0.8633  0.5645  0.4346
57108SOL     OW80291   6.197   1.557   1.385  0.5756 -0.4241 -0.2001
57108SOL    HW180292   6.115   1.512   1.405  0.4888  0.1644  0.8155
57108SOL    HW280293   6.178   1.649   1.402  0.7579  0.0322 -2.2153
57109SOL     OW80294  11.440   6.199   0.256  0.0586 -0.1989  0.5132
57109SOL    HW180295  11.398   6.133   0.311  1.3803 -2.9763 -1.5884
57109SOL    HW280296  11.525   6.214   0.298 -0.6903  1.1696  1.6408
57110SOL     OW80297   0.863   5.350   5.172  0.0789  0.1257  0.3619
57110SOL    HW180298   0.821   5.398   5.100  0.0404  0.1113  0.3750
57110SOL    HW280299   0.874   5.415   5.241  0.5027  0.2449  0.1880
57111SOL     OW80300   0.524  12.435   4.280 -0.1080 -0.3476  0.3195
57111SOL    HW180301   0.616  12.411   4.293 -0.0832 -0.3743  0.1069
57111SOL    HW280302   0.484  12.356   4.243  0.3329  0.4128 -1.9673
57112SOL     OW80303   7.033   5.641   6.597  0.1260 -0.4729 -0.9215
57112SOL    HW180304   7.072   5.724   6.626  0.4721 -0.9284 -0.0774
57112SOL    HW280305   7.022   5.652   6.502 -1.6956  1.3231 -0.5758
57113SOL     OW80306   6.070   3.222   4.516 -0.2139 -0.0691  0.2443
57113SOL    HW180307   6.098   3.170   4.592  0.7181  0.3482  0.1981
57113SOL    HW280308   6.147   3.227   4.460 -0.5898  0.5040 -0.2352
57114SOL     OW80309   8.904   5.017   9.602 -0.1806 -0.7634 -0.1745
57114SOL    HW180310   8.953   5.052   9.677 -1.1923  0.3010  0.0233
57114SOL    HW280311   8.971   4.981   9.544  0.6223 -1.8870  1.3581
57115SOL     OW80312  12.215   8.528   0.099 -0.1221 -0.1507  0.6522
57115SOL    HW180313  12.240   8.448   0.145 -0.0908 -0.1775  0.5880
57115SOL    HW280314  12.129   8.507   0.061  0.3974 -0.5477 -0.3275
57116SOL     OW80315   9.316   0.053   2.691  0.1510 -0.6438 -0.3229
57116SOL    HW180316   9.254   0.098   2.748  1.2470  1.1339 -0.4822
57116SOL    HW280317   9.267   0.037   2.611 -0.1098  0.7948 -0.4722
57117SOL     OW80318   9.455   4.603   5.059  0.3357  0.2903 -0.1284
57117SOL    HW180319   9.421   4.621   5.146  1.5517 -0.5311  0.5497
57117SOL    HW280320   9.379   4.606   5.002 -0.2203  2.8095  0.6232
57118SOL     OW80321   3.393   7.573  11.144  0.0672  0.2006  0.1088
57118SOL    HW180322   3.444   7.643  11.103 -1.3967  1.8735  0.9858
57118SOL    HW280323   3.453   7.498  11.147  1.5764  1.2872 -1.2097
57119SOL     OW80324  10.103   3.940   2.423  0.4343  0.0218  0.5742
57119SOL    HW180325  10.134   3.858   2.384  2.8199  0.9177  0.4450
57119SOL    HW280326  10.117   3.928   2.517 -0.3167 -0.1306  0.6741
57120SOL     OW80327   1.486   8.032   3.253 -0.7281 -0.2633  0.5275
57120SOL    HW180328   1.533   8.053   3.335 -0.5965 -0.2497  0.4487
57120SOL    HW280329   1.400   8.072   3.265 -0.4140  0.4951  0.3000
57121SOL     OW80330   6.206  10.267   2.117 -0.2286 -0.0970  0.1641
57121SOL    HW180331   6.136  10.319   2.158  0.1596 -0.7854  1.7386
57121SOL    HW280332   6.173  10.249   2.029 -1.9827 -0.2638  0.8117
57122SOL     OW80333   6.606   0.720  10.301 -0.0385 -0.1773  0.1693
57122SOL    HW180334   6.693   0.753  10.323 -1.0306  1.7029  1.5797
57122SOL    HW280335   6.572   0.686  10.384 -1.8391  2.1574  0.5178
57123SOL     OW80336   9.625   0.688   1.598  0.6377 -0.1181 -0.6335
57123SOL    HW180337   9.671   0.771   1.609  0.2941 -0.1070  1.0206
57123SOL    HW280338   9.562   0.703   1.528 -0.0527  1.3260  0.2553
57124SOL     OW80339   3.487   1.523   9.531  0.2295 -0.0047 -0.3205
57124SOL    HW180340   3.503   1.442   9.579  2.3246  1.5989  1.9479
57124SOL    HW280341   3.400   1.551   9.559 -0.3813 -1.2417 -0.8852
57125SOL     OW80342   4.706   1.203  10.992 -0.1476 -0.2472  0.4880
57125SOL    HW180343   4.690   1.174  10.902 -1.5750  0.9488  0.3175
57125SOL    HW280344   4.619   1.226  11.025  0.5162  0.5229  1.7517
57126SOL     OW80345   4.221  12.488   9.052  0.2583  0.2670 -0.5455
57126SOL    HW180346   4.173  12.430   8.994 -0.0730 -0.3906  0.3612
57126SOL    HW280347   4.192  12.463   9.140  1.2739  0.7526 -0.0594
57127SOL     OW80348   0.492   2.918   3.960 -0.5590 -0.0096  0.3400
57127SOL    HW180349   0.443   2.890   4.038 -1.4913 -0.9359 -0.5541
57127SOL    HW280350   0.514   3.010   3.978 -0.4160 -0.3177  1.8543
57128SOL     OW80351   9.159  11.695  12.467  0.1263  0.0428  0.7295
57128SOL    HW180352   9.092  11.652  12.521  0.2519 -0.1605  0.7236
57128SOL    HW280353   9.199  11.624  12.418 -0.1222  0.2501  0.2164
57129SOL     OW80354  10.948   2.001   1.136 -0.8842 -0.1997  0.2976
57129SOL    HW180355  10.953   2.067   1.205  1.0086  1.5721 -1.3917
57129SOL    HW280356  11.029   1.952   1.144 -2.2141 -2.3483  1.4458
57130SOL     OW80357   7.063   5.906   3.007 -0.6882  0.4144 -0.3657
57130SOL    HW180358   6.991   5.920   3.069 -0.8290  1.3856 -0.7355
57130SOL    HW280359   7.020   5.884   2.925 -0.5055 -0.5825 -0.2139
57131SOL     OW80360   2.446   0.692   0.159 -0.3782 -0.5441  0.4199
57131SOL    HW180361   2.524   0.644   0.130  0.9164  1.4379  0.4858
57131SOL    HW280362   2.396   0.707   0.079 -0.7633 -1.8739  0.3848
57132SOL     OW80363   5.676  10.461   2.321  0.3935  0.6463  0.0034
57132SOL    HW180364   5.683  10.390   2.257  1.8007  0.9985 -0.2801
57132SOL    HW280365   5.583  10.466   2.342 -0.1226  0.5199 -2.0309
57133SOL     OW80366   1.622   9.283   0.636  0.2361 -0.0968  0.2981
57133SOL    HW180367   1.552   9.314   0.579 -0.6596 -2.5333 -0.0498
57133SOL    HW280368   1.625   9.188   0.621  1.8417 -0.4325  2.2719
57134SOL     OW80369   7.883   8.306   5.761  0.6088  0.9802 -0.3264
57134SOL    HW180370   7.820   8.280   5.828 -0.1717  2.0588 -0.6247
57134SOL    HW280371   7.843   8.277   5.679  0.3127  1.9961 -0.5504
57135SOL     OW80372   7.087   1.093  11.193  0.2664 -0.4538  0.6352
57135SOL    HW180373   7.009   1.044  11.168  1.0956 -1.0453 -0.9855
57135SOL    HW280374   7.054   1.170  11.238 -1.1696 -1.4054  1.2901
57136SOL     OW80375   8.002   3.344   6.454 -0.3612  0.3075  0.0606
57136SOL    HW180376   8.069   3.336   6.386 -0.5627 -3.9656  0.1000
57136SOL    HW280377   7.927   3.295   6.419 -0.5078 -1.9614  3.1921
57137SOL     OW80378  11.426  11.582  10.025  0.0894 -0.3502  0.3395
57137SOL    HW180379  11.498  11.626  10.069  0.0314  0.5184 -0.4176
57137SOL    HW280380  11.348  11.611  10.072  0.0852  0.0335  0.0921
57138SOL     OW80381  11.338   9.220   9.853 -0.4628 -0.2542 -0.1750
57138SOL    HW180382  11.354   9.257   9.766  0.0097  0.4704  0.2152
57138SOL    HW280383  11.333   9.295   9.911 -0.1694 -0.7673  0.5261
57139SOL     OW80384   3.461  11.082   9.411 -0.0243  0.4245  0.1622
57139SOL    HW180385   3.392  11.147   9.423  0.2267  0.8513 -0.6523
57139SOL    HW280386   3.416  11.005   9.379  0.0602  1.2553 -2.0884
57140SOL     OW80387   0.380  10.789   2.041  0.5078  0.1576 -0.4005
57140SOL    HW180388   0.392  10.845   2.118 -1.2184  1.5477 -1.1043
57140SOL    HW280389   0.442  10.823   1.977 -0.1533  0.9105 -0.6396
57141SOL     OW80390   7.576   5.422   6.434 -0.3116 -0.1432  0.5346
57141SOL    HW180391   7.666   5.393   6.448  0.0937  0.7138 -0.1966
57141SOL    HW280392   7.526   5.341   6.422  1.0786 -0.6403 -3.3426
57142SOL     OW80393   2.726   9.876   5.754 -0.2647 -0.2404 -0.3313
57142SOL    HW180394   2.731   9.943   5.687 -1.3963  0.9521  0.7193
57142SOL    HW280395   2.644   9.830   5.735  0.7795 -1.7622 -1.3890
57143SOL     OW80396   0.047   9.818   1.163  0.3191 -0.1525 -0.4230
57143SOL    HW180397   0.119   9.799   1.103 -1.4478 -1.3985 -2.2955
57143SOL    HW280398  -0.029   9.773   1.125 -1.8627  2.4416  0.5181
57144SOL     OW80399   9.730   9.644   4.527 -0.3827 -0.1020 -0.4891
57144SOL    HW180400   9.757   9.578   4.591 -1.8409  0.6930  1.0340
57144SOL    HW280401   9.790   9.717   4.541 -0.4709 -0.0712 -0.2558
57145SOL     OW80402   2.854  11.071   2.628  0.2127  0.2869  0.1136
57145SOL    HW180403   2.849  11.054   2.534 -1.3432  1.0238  0.0400
57145SOL    HW280404   2.907  10.999   2.663 -1.7603 -1.7815 -0.8883
57146SOL     OW80405  11.946   8.429   0.047  0.7759  0.0038 -0.9452
57146SOL    HW180406  11.857   8.446   0.079  1.0649 -1.0883  0.5086
57146SOL    HW280407  11.940   8.343   0.006  1.0019  0.2660 -1.5329
57147SOL     OW80408   0.345  10.811   8.036  0.6578  0.1225  0.0922
57147SOL    HW180409   0.254  10.828   8.013  0.7250 -0.2818 -0.5264
57147SOL    HW280410   0.357  10.717   8.018  1.0719  0.0770  0.5869
57148SOL     OW80411   4.024   8.502   1.300  0.1455 -0.4887  0.1496
57148SOL    HW180412   4.107   8.461   1.274  0.6354  0.4938  0.1094
57148SOL    HW280413   4.006   8.468   1.387 -0.3690 -2.1204 -0.5523
57149SOL     OW80414   1.614   9.494  11.796 -0.4995  0.5852  0.1046
57149SOL    HW180415   1.603   9.404  11.764 -1.4139  0.4356  0.8103
57149SOL    HW280416   1.596   9.489  11.889 -1.9820  1.7475 -0.0806
57150SOL     OW80417   8.584   0.201   8.771 -0.5180 -0.1514 -0.3451
57150SOL    HW180418   8.641   0.127   8.791 -0.2154  0.1587 -0.0534
57150SOL    HW280419   8.507   0.188   8.827  0.0869  0.4220  0.6528
57151SOL     OW80420   2.972   4.513  11.923  0.5328  0.0693  0.2734
57151SOL    HW180421   2.972   4.418  11.930  1.8094 -0.0008 -0.3053
57151SOL    HW280422   2.923   4.543  12.000  1.7874 -1.0003  1.5443
57152SOL     OW80423   5.836  11.924  10.897  0.1816 -0.0609 -0.2951
57152SOL    HW180424   5.753  11.881  10.877 -0.6464  0.6746  1.3332
57152SOL    HW280425   5.832  11.941  10.991  1.3977  1.6194 -0.4961
57153SOL     OW80426  10.335   3.813  10.463  0.5079  0.4310  0.3098
57153SOL    HW180427  10.322   3.791  10.555 -0.8195  1.3251  0.3584
57153SOL    HW280428  10.257   3.780  10.419  1.1721 -0.0661 -0.5212
57154SOL     OW80429  10.959  10.500   7.445  0.2107  0.1661  0.2455
57154SOL    HW180430  10.881  10.505   7.390  0.0626  0.9664  0.5191
57154SOL    HW280431  10.952  10.415   7.488  1.0882 -1.1625 -2.0641
57155SOL     OW80432  11.234   8.018   8.348  0.1947 -0.2720  0.1648
57155SOL    HW180433  11.201   8.108   8.342 -0.4089 -0.5162 -0.2420
57155SOL    HW280434  11.243   7.990   8.257  0.3897 -0.6237  0.2907
57156SOL     OW80435  11.517   8.348   6.246 -0.1936 -0.5763 -0.6102
57156SOL    HW180436  11.464   8.271   6.223 -2.1469 -0.4032  2.6445
57156SOL    HW280437  11.477   8.381   6.327  0.2165  4.1994 -2.0307
57157SOL     OW80438   1.981   8.789   5.532 -0.1812 -0.3884  0.6230
57157SOL    HW180439   1.954   8.729   5.602 -1.1272 -1.3173 -0.4873
57157SOL    HW280440   2.045   8.739   5.481  0.6468  0.3498  0.9145
57158SOL     OW80441   5.517   3.219   9.835  0.2175 -0.0194  0.1933
57158SOL    HW180442   5.563   3.300   9.818  1.9721 -1.1835 -0.9459
57158SOL    HW280443   5.569   3.175   9.902 -0.5451 -0.3386  0.5906
57159SOL     OW80444   7.594  12.267   7.934  0.2938 -0.2126 -0.0600
57159SOL    HW180445   7.542  12.227   8.005 -1.2324 -0.9043 -1.5071
57159SOL    HW280446   7.621  12.193   7.880  0.4441  0.4195 -0.8570
57160SOL     OW80447   0.864   1.955  10.560  0.7551 -0.1929 -0.3032
57160SOL    HW180448   0.857   2.042  10.600 -0.7473 -0.8512  0.9794
57160SOL    HW280449   0.953   1.927  10.579  0.6385  0.2735  0.9917
57161SOL     OW80450   2.138   9.695   2.169 -0.4281  0.2908  0.0166
57161SOL    HW180451   2.191   9.692   2.089 -1.3924 -0.7312 -0.6234
57161SOL    HW280452   2.122   9.788   2.184 -0.5421  0.4847 -1.1965
57162SOL     OW80453   8.343   3.779   8.085  0.3787  0.1776  0.1299
57162SOL    HW180454   8.342   3.763   7.991  0.7360  0.2680  0.1086
57162SOL    HW280455   8.342   3.691   8.124 -2.0093  0.1073  0.0963
57163SOL     OW80456  10.146   3.430   6.250  0.5564 -0.0028  0.5270
57163SOL    HW180457  10.156   3.488   6.325  1.5082  1.3098 -0.5727
57163SOL    HW280458  10.235   3.413   6.221  0.2116 -0.8114 -0.0810
57164SOL     OW80459   2.709  11.610   5.592 -0.6178 -0.2000 -0.3717
57164SOL    HW180460   2.751  11.538   5.639 -0.7127  1.3151  2.2267
57164SOL    HW280461   2.617  11.605   5.617 -0.5621  1.0025  0.1314
57165SOL     OW80462   0.074   7.131   7.953 -0.5710 -0.1831  0.5831
57165SOL    HW180463   0.155   7.176   7.931 -0.1473 -0.9950  0.4344
57165SOL    HW280464   0.101   7.040   7.970 -1.3853 -0.3626  0.9580
57166SOL     OW80465  10.718   2.012   5.338 -0.8714  0.5859 -0.3888
57166SOL    HW180466  10.791   1.990   5.281 -0.9062  1.7612 -0.9226
57166SOL    HW280467  10.748   1.988   5.426 -0.5098 -0.4983 -0.7973
57167SOL     OW80468  10.554   5.436   8.626  0.4154 -0.2142 -0.7977
57167SOL    HW180469  10.472   5.474   8.594  0.4356  0.5358 -0.0096
57167SOL    HW280470  10.526   5.367   8.686  0.3335  0.5552  0.0723
57168SOL     OW80471  11.990  11.655   3.913 -0.0034  0.4408 -0.6878
57168SOL    HW180472  12.047  11.592   3.957 -0.8420 -0.0455 -0.2767
57168SOL    HW280473  11.928  11.683   3.981 -2.2326 -1.3740 -1.8402
57169SOL     OW80474   4.326  10.474   5.140  0.0889 -0.0780  0.2944
57169SOL    HW180475   4.326  10.558   5.095  1.9397 -0.1993  0.0056
57169SOL    HW280476   4.328  10.497   5.233  0.7827  0.2089  0.2140
57170SOL     OW80477   2.684   7.322   3.535  0.0606  0.3845  0.3018
57170SOL    HW180478   2.709   7.363   3.452  0.6426 -0.3052  0.1329
57170SOL    HW280479   2.652   7.236   3.511 -2.9527  1.3445  0.4521
57171SOL     OW80480  10.303   8.606   0.045 -0.0396  0.4251  0.1372
57171SOL    HW180481  10.213   8.608   0.012  0.1317 -0.5388 -0.4262
57171SOL    HW280482  10.356   8.637  -0.028  0.0775  1.3257  0.5830
57172SOL     OW80483  11.152   6.666  10.678 -0.0177  0.5008 -0.1174
57172SOL    HW180484  11.068   6.671  10.723  0.2200  1.0114  0.2742
57172SOL    HW280485  11.168   6.755  10.645  0.8804  0.6872  0.7656
57173SOL     OW80486   7.709   4.155   0.825 -0.0702  0.3014 -0.2628
57173SOL    HW180487   7.795   4.177   0.860 -0.3652  0.4273  0.3880
57173SOL    HW280488   7.661   4.120   0.899 -1.1398  1.7860 -0.1948
57174SOL     OW80489   6.486  11.307   9.312 -0.1506  0.2130  0.0683
57174SOL    HW180490   6.472  11.303   9.218  1.9024 -0.2000 -0.2552
57174SOL    HW280491   6.406  11.270   9.350 -1.5606  1.5771 -1.4255
57175SOL     OW80492   6.102  11.951   2.997 -0.2274 -0.1502 -0.3769
57175SOL    HW180493   6.136  11.864   2.981 -0.9537 -0.3106 -1.1605
57175SOL    HW280494   6.156  12.009   2.943  0.5531 -0.0485  0.5019
57176SOL     OW80495   9.058   4.621   3.322  0.4354  0.4034 -0.4179
57176SOL    HW180496   9.140   4.666   3.337 -0.9722  2.3614  2.3761
57176SOL    HW280497   9.058   4.549   3.385  0.7894 -0.7956 -1.7574
57177SOL     OW80498   7.866   3.581   3.663  0.0008 -0.5265  0.8372
57177SOL    HW180499   7.784   3.535   3.678  0.5118 -1.0040  2.4320
57177SOL    HW280500   7.933   3.513   3.673  0.6214 -0.0359  0.1090
57178SOL     OW80501  12.376   5.263   7.515 -0.0217  0.2353 -0.2899
57178SOL    HW180502  12.355   5.233   7.604 -0.9633 -0.5837 -0.7684
57178SOL    HW280503  12.458   5.218   7.494  0.4801  0.8370  0.3544
57179SOL     OW80504   5.736   0.713   6.384 -0.2289  0.3124 -0.8663
57179SOL    HW180505   5.662   0.774   6.383 -0.9882 -0.5331  0.3773
57179SOL    HW280506   5.729   0.664   6.302 -0.4765  0.9012 -1.1984
57180SOL     OW80507   4.234  11.934   5.260  0.0934  0.3958 -0.3484
57180SOL    HW180508   4.213  11.856   5.310  2.2074 -0.7284 -1.1188
57180SOL    HW280509   4.155  11.951   5.208 -1.7924  1.0306  2.5146
57181SOL     OW80510  12.597  11.216   4.366 -0.1326 -0.0946  0.7059
57181SOL    HW180511  12.655  11.254   4.300 -0.4711 -0.2337  0.3214
57181SOL    HW280512  12.591  11.283   4.434  1.2715 -0.4813  1.2414
57182SOL     OW80513   5.144   6.968   2.730 -0.0117 -0.2413  0.1530
57182SOL    HW180514   5.226   6.918   2.724  1.3189  1.8926 -0.7060
57182SOL    HW280515   5.094   6.942   2.653  0.4964 -0.5392 -0.0822
57183SOL     OW80516  10.299   5.630   3.151  0.2090 -1.2378 -0.2386
57183SOL    HW180517  10.383   5.652   3.110 -1.1915 -0.4423 -2.9350
57183SOL    HW280518  10.251   5.582   3.083 -2.9801  1.7779 -0.4314
57184SOL     OW80519   4.772  10.463   5.272 -0.3220 -0.4194 -0.1394
57184SOL    HW180520   4.764  10.456   5.176 -0.4000  2.3588 -0.4012
57184SOL    HW280521   4.853  10.511   5.286  1.1767 -3.1459  1.3902
57185SOL     OW80522   0.660   5.935   1.668  0.2396  0.1534 -0.4238
57185SOL    HW180523   0.706   5.851   1.673 -0.5462 -0.2517  0.2478
57185SOL    HW280524   0.631   5.941   1.577  1.1548  0.1735 -0.7228
57186SOL     OW80525   8.676  10.055   9.045  0.4687  0.5011  0.3459
57186SOL    HW180526   8.582  10.047   9.028 -0.5319  2.1702  4.0340
57186SOL    HW280527   8.700  10.140   9.010  0.1410  0.8200  0.8739
57187SOL     OW80528   8.585   4.817   4.639 -0.4599  0.3176  0.0211
57187SOL    HW180529   8.679   4.836   4.647 -0.3734  0.2618 -0.8247
57187SOL    HW280530   8.546   4.901   4.615 -1.0760  1.1194  3.2895
57188SOL     OW80531   4.615  12.195   7.645  0.3032 -0.1210 -0.1610
57188SOL    HW180532   4.628  12.116   7.593 -0.5277 -1.3461  1.3985
57188SOL    HW280533   4.592  12.163   7.732 -0.5541  1.8465  0.3986
57189SOL     OW80534   2.776  12.157   1.024 -1.0966 -0.0147  0.0529
57189SOL    HW180535   2.757  12.208   1.103 -2.0448  0.5477 -0.5097
57189SOL    HW280536   2.690  12.127   0.995 -0.6619 -0.9467 -0.2895
57190SOL     OW80537   8.165  10.062   8.805 -0.4018 -0.0230  0.1207
57190SOL    HW180538   8.144  10.145   8.762  0.7372 -0.4293 -1.3051
57190SOL    HW280539   8.160  10.082   8.899 -2.3053  1.0550 -0.1628
57191SOL     OW80540   9.402   2.693   2.122 -0.1892  0.0717  0.4730
57191SOL    HW180541   9.336   2.630   2.094  1.0814 -1.0832 -0.0183
57191SOL    HW280542   9.483   2.642   2.130  0.5793  1.3643  1.4191
57192SOL     OW80543  10.252   3.165   3.128 -0.1157  0.3408  0.5167
57192SOL    HW180544  10.216   3.253   3.114 -0.1251  0.0531 -1.6278
57192SOL    HW280545  10.201   3.130   3.202  0.0605  2.1869  1.5785
57193SOL     OW80546   6.858   3.026   4.321 -0.0916 -0.0229  0.1010
57193SOL    HW180547   6.869   3.069   4.406  0.9843  0.6980 -0.3842
57193SOL    HW280548   6.777   2.975   4.330 -0.2424  0.4162  1.3958
57194SOL     OW80549  11.281   5.563  11.924 -0.3825 -0.2705  0.1835
57194SOL    HW180550  11.332   5.632  11.882  1.2386 -1.1142  0.6829
57194SOL    HW280551  11.339   5.526  11.990 -1.4980 -1.5695  0.5020
57195SOL     OW80552  12.030   6.108   9.483  0.6338  0.4455 -0.4792
57195SOL    HW180553  12.110   6.159   9.471  0.6719  0.2724 -0.9766
57195SOL    HW280554  11.970   6.140   9.416  1.3963 -1.6381 -2.2849
57196SOL     OW80555   5.088  12.308  11.327  0.4202  0.3240  0.1800
57196SOL    HW180556   5.053  12.322  11.239  0.7683  1.6879  0.2319
57196SOL    HW280557   5.168  12.257  11.312 -0.2415 -0.6458 -0.1554
57197SOL     OW80558   5.520   4.836   4.050 -0.0497  0.0433  0.5655
57197SOL    HW180559   5.592   4.891   4.019  0.3664 -0.3584  0.7917
57197SOL    HW280560   5.456   4.836   3.979  0.1124  0.5206  0.4217
57198SOL     OW80561   6.133   9.735   8.952  0.2903  0.0608 -0.1002
57198SOL    HW180562   6.190   9.753   9.026  0.3243 -2.3264  0.5196
57198SOL    HW280563   6.066   9.676   8.986 -2.7644  2.8277 -0.7474
57199SOL     OW80564  12.476   1.114   9.788 -0.2556  0.1497 -0.3774
57199SOL    HW180565  12.418   1.045   9.819  0.1089 -0.2376 -0.5439
57199SOL    HW280566  12.541   1.123   9.857 -0.8186  0.9570  0.0531
57200SOL     OW80567   1.436   9.600   8.798 -0.4262  0.1233 -0.4273
57200SOL    HW180568   1.396   9.643   8.722  0.1772 -0.0787 -0.8723
57200SOL    HW280569   1.429   9.663   8.869 -2.0046 -0.1003 -0.3420
57201SOL     OW80570  11.140   7.688   7.508 -0.0347  0.4842 -0.2066
57201SOL    HW180571  11.211   7.717   7.451  0.9769 -0.4890  0.5129
57201SOL    HW280572  11.163   7.725   7.594 -1.7275  2.2497 -0.4403
57202SOL     OW80573   4.219   4.501   4.943 -0.0709 -0.0859 -0.1250
57202SOL    HW180574   4.253   4.423   4.987 -0.0725 -0.3310 -0.5511
57202SOL    HW280575   4.183   4.555   5.014 -0.2183 -0.5456  0.1544
57203SOL     OW80576   7.199  12.352   4.814  0.0045 -0.0044 -0.5662
57203SOL    HW180577   7.176  12.259   4.806  1.1661 -0.1892 -2.1425
57203SOL    HW280578   7.240  12.359   4.900 -0.3006 -0.8957 -0.3326
57204SOL     OW80579   9.523  11.657  10.459  0.2765  0.2360  0.4359
57204SOL    HW180580   9.528  11.654  10.555 -1.7361  0.0463  0.5844
57204SOL    HW280581   9.430  11.673  10.441  0.7939  1.3653 -1.4836
57205SOL     OW80582   5.697   2.409   9.055 -0.0726  0.4340 -0.4020
57205SOL    HW180583   5.767   2.383   9.114  0.3312  2.6650  0.2079
57205SOL    HW280584   5.646   2.330   9.041  1.6704 -0.8826  0.3819
57206SOL     OW80585   1.078   8.840  11.274 -0.2987  0.4934 -0.3427
57206SOL    HW180586   1.049   8.762  11.321  1.1552  0.7369  1.0248
57206SOL    HW280587   1.044   8.828  11.185 -1.7726 -0.7350  0.3412
57207SOL     OW80588  11.072   4.567  11.961  0.3055  0.5082  0.0361
57207SOL    HW180589  11.097   4.509  11.889 -0.3733 -0.5076  0.6008
57207SOL    HW280590  11.061   4.653  11.919 -0.3906 -0.1273 -1.1367
57208SOL     OW80591   0.699   8.894   1.154 -0.1986 -0.1103  0.0495
57208SOL    HW180592   0.660   8.822   1.204  1.1890 -1.0173 -0.1118
57208SOL    HW280593   0.703   8.967   1.216 -2.8941  0.3375 -0.1754
57209SOL     OW80594  11.420   4.503   8.108  0.1692  0.0678 -0.3061
57209SOL    HW180595  11.391   4.435   8.048 -1.0178 -0.8031  1.1770
57209SOL    HW280596  11.432   4.580   8.053 -0.6477 -0.7509 -1.6949
57210SOL     OW80597   1.915   1.019   8.287 -0.8525  0.7590  0.0313
57210SOL    HW180598   1.875   0.994   8.371  0.2491 -2.3815 -0.2659
57210SOL    HW280599   2.002   1.052   8.311 -0.4799 -0.2787  0.1369
57211SOL     OW80600   0.111   7.318   0.531 -0.4524  0.3777  0.6416
57211SOL    HW180601   0.163   7.398   0.518  0.7669 -0.5337 -0.2671
57211SOL    HW280602   0.167   7.247   0.500 -2.1855 -0.6737 -0.2182
57212SOL     OW80603   6.669   3.752  11.335  0.5375 -0.3982  0.0462
57212SOL    HW180604   6.667   3.662  11.369 -2.2018 -0.2843  0.4345
57212SOL    HW280605   6.615   3.802  11.397  1.0084  1.2616 -0.8229
57213SOL     OW80606   3.028   3.798   2.177 -0.1576 -0.0902 -0.2494
57213SOL    HW180607   3.039   3.801   2.082  0.1128 -0.8882 -0.2460
57213SOL    HW280608   3.109   3.836   2.211  0.5017 -1.4025 -0.3147
57214SOL     OW80609   5.471   3.265   2.016  0.0131 -0.4669  0.2440
57214SOL    HW180610   5.402   3.268   1.949  1.4370 -1.5044 -1.3611
57214SOL    HW280611   5.459   3.180   2.059  2.3900 -2.4096 -2.5580
57215SOL     OW80612   6.242   3.025   9.081  0.0587  0.3122  0.2281
57215SOL    HW180613   6.316   3.061   9.131 -0.2740  0.0918  0.8989
57215SOL    HW280614   6.172   3.089   9.094  0.1779  0.6058 -0.5481
57216SOL     OW80615   8.011   5.918  10.667  0.2569 -0.4590 -0.2289
57216SOL    HW180616   8.072   5.939  10.737  0.2170 -0.9118 -0.0559
57216SOL    HW280617   8.053   5.952  10.588  0.3186  0.0225  0.0032
57217SOL     OW80618  11.018  11.100   2.704  0.0644 -0.1571 -0.5051
57217SOL    HW180619  10.996  11.075   2.794  2.9686  0.2849  0.4266
57217SOL    HW280620  10.984  11.190   2.696 -0.1860 -0.1801  0.1624
57218SOL     OW80621   2.732   9.327   3.401 -0.3387  0.1013 -0.3655
57218SOL    HW180622   2.778   9.256   3.357 -1.4959 -1.0455  0.1945
57218SOL    HW280623   2.644   9.326   3.362 -0.5758  0.7670  0.1341
57219SOL     OW80624  10.995   2.247   5.460  0.0160 -0.1261  0.3201
57219SOL    HW180625  10.989   2.192   5.538 -0.5601 -0.5954 -0.0409
57219SOL    HW280626  10.908   2.284   5.450  0.4177  0.9253  0.5938
57220SOL     OW80627   9.410   0.611  10.582 -0.2051 -0.0068  0.3027
57220SOL    HW180628   9.496   0.645  10.607  0.0762 -1.4139  1.3629
57220SOL    HW280629   9.347   0.670  10.624  0.2076  1.1914 -0.6989
57221SOL     OW80630   4.419   2.676   1.234  0.0066  0.3607 -0.6347
57221SOL    HW180631   4.515   2.672   1.235  0.0377  1.0616  0.3006
57221SOL    HW280632   4.391   2.586   1.252  0.4567 -0.1503 -2.2704
57222SOL     OW80633   5.226   8.713  10.324 -0.0183  0.1372  0.1325
57222SOL    HW180634   5.252   8.770  10.252 -0.4183  0.3468  0.1505
57222SOL    HW280635   5.178   8.770  10.384 -2.0535 -0.5770 -0.7338
57223SOL     OW80636  11.434  11.827   3.649 -0.6906 -0.2923  0.1031
57223SOL    HW180637  11.391  11.815   3.565  0.5151 -0.6136 -0.4918
57223SOL    HW280638  11.520  11.864   3.627  0.1183 -1.5070  1.0766
57224SOL     OW80639   6.027   1.132   9.394 -0.3013  0.0540 -0.1928
57224SOL    HW180640   6.116   1.102   9.378 -0.5766 -0.8378 -0.1265
57224SOL    HW280641   5.994   1.158   9.308  0.3816  1.4499 -0.0530
57225SOL     OW80642  12.164   9.381   0.333 -0.0969  0.4702  0.1810
57225SOL    HW180643  12.114   9.433   0.396 -0.5755 -0.0099  0.1976
57225SOL    HW280644  12.111   9.381   0.254 -0.0344  0.1190  0.1381
57226SOL     OW80645  10.197  10.442  10.870 -0.2664 -0.0662  0.5287
57226SOL    HW180646  10.118  10.389  10.867  0.6846 -1.5622  0.9091
57226SOL    HW280647  10.185  10.507  10.801 -1.6706 -0.4764  0.3667
57227SOL     OW80648   4.532   9.853   1.506  0.3438  0.2378  0.1039
57227SOL    HW180649   4.600   9.817   1.563  0.0967  0.4869  0.5586
57227SOL    HW280650   4.454   9.858   1.561 -0.1118 -0.2611 -0.4786
57228SOL     OW80651   9.643   4.540   1.050 -0.5300  0.0439  0.3747
57228SOL    HW180652   9.630   4.550   1.144  0.0323  1.3017  0.3451
57228SOL    HW280653   9.592   4.462   1.026 -0.6817 -0.2815  1.7063
57229SOL     OW80654  10.846   8.187   6.640  0.4475 -0.1198  0.2893
57229SOL    HW180655  10.856   8.130   6.563  1.9484  0.5251 -0.0341
57229SOL    HW280656  10.783   8.253   6.613  2.4744  1.3317 -1.2116
57230SOL     OW80657   4.980   0.121   3.414 -0.4555 -0.1395 -0.0824
57230SOL    HW180658   4.951   0.112   3.323 -3.6017 -0.1191  0.7987
57230SOL    HW280659   4.917   0.181   3.454  0.9181 -0.0206  2.1047
57231SOL     OW80660  12.070  10.755   4.422  0.1814  0.1965 -0.0420
57231SOL    HW180661  11.978  10.733   4.410  0.2317  0.8214 -1.8443
57231SOL    HW280662  12.070  10.819   4.492 -0.7547  0.1559  0.0142
57232SOL     OW80663   6.633   1.175   3.471 -0.2074  0.5254 -0.5712
57232SOL    HW180664   6.611   1.174   3.378 -0.0546  0.4917 -0.6076
57232SOL    HW280665   6.633   1.083   3.497  1.1215  0.4138 -0.8708
57233SOL     OW80666   2.717   6.400   1.304  0.6727 -0.2802  0.6060
57233SOL    HW180667   2.732   6.464   1.373 -1.4197 -0.8350  1.6638
57233SOL    HW280668   2.764   6.435   1.228  0.8638  1.6876  1.5654
57234SOL     OW80669   0.909   0.341   7.868  0.3407 -0.0293  0.3625
57234SOL    HW180670   0.907   0.315   7.776  0.0496 -0.9321  0.6155
57234SOL    HW280671   0.956   0.270   7.912 -2.7711 -1.5593  1.4823
57235SOL     OW80672   8.756   5.143   0.542  0.4526 -0.2182  0.1706
57235SOL    HW180673   8.796   5.064   0.506  0.0093 -0.0865 -0.6219
57235SOL    HW280674   8.768   5.210   0.475 -0.0506  0.1286  0.4150
57236SOL     OW80675   5.240   9.838   8.147  0.0980 -0.4455  0.1320
57236SOL    HW180676   5.165   9.828   8.089  1.0433  0.3803 -1.3105
57236SOL    HW280677   5.301   9.770   8.119  0.4822 -0.1719  0.2953
57237SOL     OW80678   1.277  10.434   6.139  0.2707 -0.0481 -0.0230
57237SOL    HW180679   1.195  10.444   6.091 -1.8818  0.1137  3.3628
57237SOL    HW280680   1.327  10.512   6.116 -0.8059  0.2539 -1.5488
57238SOL     OW80681   2.222   7.939   1.837 -0.6860 -0.0767  0.3304
57238SOL    HW180682   2.229   7.931   1.932 -1.7331  2.8262  0.7478
57238SOL    HW280683   2.135   7.978   1.823 -0.3428  0.0323 -1.7951
57239SOL     OW80684   4.785   4.506   1.348 -0.2169 -0.0696 -0.3831
57239SOL    HW180685   4.780   4.497   1.252 -0.9050 -2.0511 -0.2199
57239SOL    HW280686   4.752   4.594   1.366  1.3319  0.9318 -2.0385
57240SOL     OW80687   1.288   4.679  12.007 -0.0366  0.6485 -0.3579
57240SOL    HW180688   1.336   4.734  11.945  1.3832 -0.5499 -0.3789
57240SOL    HW280689   1.260   4.603  11.955 -0.1694  0.3614  0.1245
57241SOL     OW80690   9.781   1.870  10.315 -0.3430  0.0209  0.0277
57241SOL    HW180691   9.857   1.924  10.337 -0.4300 -0.6559  2.2818
57241SOL    HW280692   9.786   1.859  10.220  2.0306  0.4962  0.0317
57242SOL     OW80693  11.944  12.022   1.778 -0.0220 -0.6289  0.6285
57242SOL    HW180694  11.998  11.984   1.709  0.0902 -2.8968  1.8560
57242SOL    HW280695  12.003  12.078   1.828  0.9098 -2.0435  1.1643
57243SOL     OW80696   5.748   3.903   2.828  0.0750 -0.1318  0.0585
57243SOL    HW180697   5.692   3.874   2.901  1.9442  0.0822  1.6455
57243SOL    HW280698   5.789   3.823   2.797 -1.3754 -0.3581 -1.4212
57244SOL     OW80699   6.929   3.035   7.781  0.8590 -0.1975  0.1449
57244SOL    HW180700   6.988   3.081   7.722  0.3648  0.5955  0.2493
57244SOL    HW280701   6.842   3.049   7.744  0.5521  0.2095  0.9811
57245SOL     OW80702   4.527   8.927   7.996 -0.0270  0.3102  0.2301
57245SOL    HW180703   4.447   8.968   7.962 -1.2580  0.3565  2.8907
57245SOL    HW280704   4.505   8.834   8.003  0.3636  0.2353  0.4880
57246SOL     OW80705   3.768   8.505   0.440 -0.2004 -0.3854 -0.0800
57246SOL    HW180706   3.845   8.530   0.389 -1.9182  0.4311 -2.4495
57246SOL    HW280707   3.701   8.569   0.415 -1.7348 -1.1733  1.7632
57247SOL     OW80708   2.431   0.533  10.366 -0.0575  0.4725  0.0105
57247SOL    HW180709   2.445   0.601  10.300  0.5834 -0.8690 -1.2980
57247SOL    HW280710   2.336   0.528  10.375 -0.1282  1.1741 -0.2514
57248SOL     OW80711   3.114  12.355   2.723 -0.1183 -0.4333 -0.4509
57248SOL    HW180712   3.040  12.332   2.668 -0.0490 -1.9573  0.0450
57248SOL    HW280713   3.177  12.396   2.663 -1.2104  0.6099 -0.9219
57249SOL     OW80714   7.438   2.703   1.675  0.7208 -0.1237 -0.3726
57249SOL    HW180715   7.468   2.792   1.657 -2.1141  1.4441  1.7967
57249SOL    HW280716   7.386   2.680   1.599  0.8495  0.4054 -0.6266
57250SOL     OW80717   5.504   2.288   8.750  0.5030  0.0792 -0.3053
57250SOL    HW180718   5.534   2.281   8.659 -0.9809 -2.9995 -0.6949
57250SOL    HW280719   5.555   2.222   8.797 -0.1733  0.2453  0.6899
57251SOL     OW80720  11.741   9.411   9.065  0.1328  0.1816  0.1731
57251SOL    HW180721  11.781   9.375   9.144 -1.3586  1.7990  1.7568
57251SOL    HW280722  11.680   9.343   9.036 -0.4973  0.1963  1.3917
57252SOL     OW80723   6.536  11.407   5.107  0.3675  0.0792  0.1573
57252SOL    HW180724   6.538  11.440   5.017 -0.0020  0.2918  0.2247
57252SOL    HW280725   6.622  11.367   5.120  0.1661 -0.6255 -0.5458
57253SOL     OW80726   8.361  11.317   5.173 -0.0827 -0.0303  0.0300
57253SOL    HW180727   8.327  11.368   5.246 -1.6175  1.1370 -1.4193
57253SOL    HW280728   8.327  11.361   5.095  2.6871 -0.3459 -1.4869
57254SOL     OW80729   0.570  11.529   7.960 -0.2829 -0.1411 -0.2966
57254SOL    HW180730   0.523  11.582   8.024  0.0207 -0.7976  0.4997
57254SOL    HW280731   0.523  11.446   7.958 -1.0245  0.2723 -1.8662
57255SOL     OW80732   0.821   1.080   8.066 -0.0999 -0.2924 -0.5802
57255SOL    HW180733   0.739   1.071   8.017  0.5349  0.0935 -1.7338
57255SOL    HW280734   0.884   1.028   8.017  0.1876 -1.2276  0.7342
57256SOL     OW80735   2.705   3.042   8.391  0.8019 -0.9143  0.2247
57256SOL    HW180736   2.714   2.991   8.310 -0.6330  0.9125 -1.1808
57256SOL    HW280737   2.717   3.133   8.363  0.8260 -0.2646  2.2022
57257SOL     OW80738  10.045  12.459   9.176  0.2683  0.6714  0.5494
57257SOL    HW180739  10.027  12.525   9.243 -0.2164 -0.9030  2.0544
57257SOL    HW280740  10.111  12.403   9.217 -0.6333 -0.7949  0.0507
57258SOL     OW80741   4.938   6.771   6.069  0.2895 -0.0702  0.3417
57258SOL    HW180742   5.003   6.841   6.058 -1.0770  1.1410 -0.2626
57258SOL    HW280743   4.952   6.713   5.994  1.7964 -0.8011  1.1388
57259SOL     OW80744   8.858  12.149   6.787  0.1344  0.6729  0.1420
57259SOL    HW180745   8.763  12.155   6.774  0.1391 -0.4616 -0.5459
57259SOL    HW280746   8.878  12.219   6.849 -1.3482  0.0756  1.3490
57260SOL     OW80747  12.384   9.595   9.413  0.1829  0.5864  0.3374
57260SOL    HW180748  12.403   9.503   9.434 -0.6968  0.1863 -0.5398
57260SOL    HW280749  12.452   9.620   9.351  0.1873  0.3975  0.2656
57261SOL     OW80750   9.653   5.962   0.740 -0.1921 -0.1353  0.2765
57261SOL    HW180751   9.602   6.040   0.759  1.4279  1.7134 -2.2614
57261SOL    HW280752   9.613   5.926   0.660 -1.4765 -2.5653  1.8663
57262SOL     OW80753   5.705   9.686   0.342  0.0874 -0.1318  0.2178
57262SOL    HW180754   5.789   9.671   0.299  0.3203 -1.1363  0.9896
57262SOL    HW280755   5.727   9.715   0.430 -0.3868  0.5238  0.1277
57263SOL     OW80756   5.315  11.443   9.464 -0.6326  0.0345  0.2242
57263SOL    HW180757   5.246  11.502   9.433 -1.2715  0.0067  1.5126
57263SOL    HW280758   5.268  11.368   9.499  0.2092 -2.1112 -2.8706
57264SOL     OW80759  10.872   3.919   6.905  0.4248  0.0497 -0.0478
57264SOL    HW180760  10.799   3.946   6.961  1.0659 -1.5366  1.6380
57264SOL    HW280761  10.859   3.968   6.824 -2.2321  0.1810  0.3700
57265SOL     OW80762   3.209   3.018   9.349  0.3009  0.0101  0.1627
57265SOL    HW180763   3.186   3.025   9.441  0.0255  0.8662  0.0430
57265SOL    HW280764   3.139   2.967   9.309  0.1100  0.1412  0.3282
57266SOL     OW80765   6.015   9.155  10.914  0.4847 -0.1505  1.4381
57266SOL    HW180766   6.050   9.161  10.825  0.4692  0.7266  1.4854
57266SOL    HW280767   5.989   9.244  10.936 -2.3098 -0.8030  1.2097
57267SOL     OW80768   4.189  10.794   1.772  0.1391 -0.5273 -0.3046
57267SOL    HW180769   4.243  10.806   1.693  1.7430  0.1519  0.8344
57267SOL    HW280770   4.201  10.703   1.796  0.9635 -0.3412  0.0332
57268SOL     OW80771   6.269  10.941   8.958  0.6160  0.4015  0.2312
57268SOL    HW180772   6.301  10.984   9.037  0.4212  1.0683 -0.0448
57268SOL    HW280773   6.188  10.987   8.936 -0.3466 -1.0244  0.7055
57269SOL     OW80774   4.753   9.427   3.810  0.2403  0.7303 -0.0778
57269SOL    HW180775   4.681   9.439   3.871  1.0084  0.7991  0.8300
57269SOL    HW280776   4.720   9.461   3.727 -2.0516 -2.4047 -0.6138
57270SOL     OW80777   8.690   1.823  12.095 -0.8187 -0.3251  0.0441
57270SOL    HW180778   8.685   1.889  12.165 -1.6673 -0.4641  0.1241
57270SOL    HW280779   8.688   1.739  12.141 -1.0728 -0.4139 -0.1289
57271SOL     OW80780   0.152  11.810   8.816  0.2460 -0.2562 -0.2548
57271SOL    HW180781   0.134  11.866   8.741  0.2128 -0.6133 -0.5193
57271SOL    HW280782   0.214  11.745   8.782 -0.4016 -0.9122 -0.1976
57272SOL     OW80783   2.760   4.411   2.607  0.5356 -0.0570 -0.7265
57272SOL    HW180784   2.816   4.397   2.684  0.1868 -0.2024 -0.4927
57272SOL    HW280785   2.820   4.412   2.533  1.2633  3.0845 -0.2095
57273SOL     OW80786   7.664   0.556   4.510 -0.0873 -0.3697  0.9621
57273SOL    HW180787   7.592   0.504   4.473  0.1157 -0.1329  0.2052
57273SOL    HW280788   7.737   0.495   4.513  0.5848  0.2167 -1.3676
57274SOL     OW80789   9.993   7.207   8.893 -0.4722 -0.2061  0.4408
57274SOL    HW180790   9.952   7.262   8.959 -0.6993 -0.5083  0.5502
57274SOL    HW280791   9.955   7.120   8.906  0.3202 -0.5276  0.6482
57275SOL     OW80792   3.144   0.023   3.308 -0.6906  0.0899  0.5758
57275SOL    HW180793   3.128  -0.043   3.375 -2.1352 -1.5238 -1.2504
57275SOL    HW280794   3.179  -0.026   3.233  0.5306  1.7766 -0.0343
57276SOL     OW80795   7.541   8.309   4.669 -0.3572  0.1141 -0.6034
57276SOL    HW180796   7.468   8.294   4.609 -0.4933  1.1308 -0.7095
57276SOL    HW280797   7.602   8.364   4.620 -0.1844  0.4559 -0.0150
57277SOL     OW80798   9.555   5.171   7.539  0.0981 -0.9095  0.1565
57277SOL    HW180799   9.628   5.181   7.478  1.0353  0.9539  1.4639
57277SOL    HW280800   9.485   5.225   7.501 -0.4074 -2.1773 -0.7668
57278SOL     OW80801   0.421   8.558   7.044  0.4244  0.1435  0.3137
57278SOL    HW180802   0.441   8.594   7.130  0.1082  0.0739  0.4160
57278SOL    HW280803   0.402   8.465   7.060 -1.9579  0.6118  0.5170
57279SOL     OW80804   1.983   1.380   3.356 -0.3647  0.6377 -0.5079
57279SOL    HW180805   1.961   1.471   3.335 -1.1947  0.4314 -0.5404
57279SOL    HW280806   2.074   1.371   3.328 -0.4511  1.2981 -1.0374
57280SOL     OW80807   7.538   5.683  12.564  0.3003  0.1512  0.1887
57280SOL    HW180808   7.590   5.603  12.575  0.6338  0.1463 -1.2803
57280SOL    HW280809   7.589   5.751  12.609  0.7871 -0.1643  0.1205
57281SOL     OW80810   9.670  10.566   5.287 -0.0378  0.0870 -0.7511
57281SOL    HW180811   9.606  10.555   5.357  0.1853 -1.3706 -0.7407
57281SOL    HW280812   9.725  10.639   5.316  0.2423 -0.6707  0.7732
57282SOL     OW80813   2.682   2.528   4.883  0.6626  0.1304 -0.3661
57282SOL    HW180814   2.645   2.538   4.795 -0.6573  0.7945  0.2257
57282SOL    HW280815   2.625   2.581   4.938  0.2182 -1.8901  1.2232
57283SOL     OW80816   5.976  12.586   2.973 -0.1768 -0.9096 -0.1896
57283SOL    HW180817   5.935  12.511   3.016 -1.6553  0.5304  1.0250
57283SOL    HW280818   5.970  12.565   2.880 -1.3268 -1.9226  0.0761
57284SOL     OW80819   6.009  10.232   9.506  0.5009 -0.3152 -0.0101
57284SOL    HW180820   6.081  10.275   9.460  0.0547  1.0461  0.5116
57284SOL    HW280821   6.046  10.208   9.591  0.5612 -0.3835 -0.0548
57285SOL     OW80822   3.811   9.510   5.541 -0.4900 -0.0312  0.2494
57285SOL    HW180823   3.834   9.511   5.634  0.3663 -0.1765  0.0485
57285SOL    HW280824   3.791   9.418   5.523  0.4740 -0.2160  0.0390
57286SOL     OW80825   6.306  11.882  11.113  0.5133 -0.3512 -0.0220
57286SOL    HW180826   6.268  11.960  11.153  1.8936  0.1829  0.2957
57286SOL    HW280827   6.261  11.874  11.029  0.5883  0.9915 -0.2071
57287SOL     OW80828   0.208   4.955   8.513 -0.2070 -0.0436 -0.1410
57287SOL    HW180829   0.280   4.892   8.519 -0.1881  0.0101  0.2147
57287SOL    HW280830   0.151   4.920   8.445  0.3451  0.1054 -0.6821
57288SOL     OW80831   7.161   6.811  12.308 -0.3551 -0.2503 -0.3555
57288SOL    HW180832   7.066   6.813  12.292 -0.6645  0.7330  1.3929
57288SOL    HW280833   7.172   6.746  12.377 -0.4402  2.9169  2.9421
57289SOL     OW80834   4.369   8.917  11.171 -0.6855 -0.1228  0.4508
57289SOL    HW180835   4.393   8.847  11.232 -0.7146 -0.1562  0.4231
57289SOL    HW280836   4.357   8.994  11.227 -1.6844 -0.3771  0.6024
57290SOL     OW80837   4.063   6.134   3.242  0.2202 -0.0832 -0.0866
57290SOL    HW180838   4.009   6.199   3.286  0.0259 -1.4635  1.8347
57290SOL    HW280839   4.091   6.177   3.161 -0.9988  1.8647  0.4589
57291SOL     OW80840   5.882  12.090   0.128  0.2934 -0.0581  0.2040
57291SOL    HW180841   5.806  12.085   0.070  1.4261 -0.5054 -1.3046
57291SOL    HW280842   5.897  12.000   0.157 -0.0649  0.1125  0.9495
57292SOL     OW80843   8.387   5.204   7.082 -0.2140  0.1925  0.2279
57292SOL    HW180844   8.373   5.188   6.989  2.3330 -1.2858  0.0030
57292SOL    HW280845   8.386   5.117   7.122  3.1906  0.2548  0.7789
57293SOL     OW80846   9.299   4.821   1.717 -0.0446 -0.0263  0.3424
57293SOL    HW180847   9.244   4.877   1.772  1.2335  0.7918  0.8326
57293SOL    HW280848   9.380   4.871   1.704  0.5298 -1.1155 -0.5028
57294SOL     OW80849  11.333   3.981   1.387 -0.5025 -0.4363  0.1815
57294SOL    HW180850  11.281   3.986   1.468 -0.2856 -1.6345  0.4003
57294SOL    HW280851  11.420   3.954   1.416  0.0532  0.7917 -0.2758
57295SOL     OW80852   1.049   3.610   8.417 -0.6468 -0.0440 -0.4461
57295SOL    HW180853   0.967   3.635   8.460 -0.3381  0.5581 -0.1875
57295SOL    HW280854   1.110   3.595   8.489 -0.8695 -1.8061 -0.5857
57296SOL     OW80855   8.606   0.017  10.190 -0.3029  0.0118 -0.3774
57296SOL    HW180856   8.515   0.036  10.213 -0.1736  2.1939 -1.3819
57296SOL    HW280857   8.631   0.089  10.131  2.2450 -0.1993  0.3232
57297SOL     OW80858   6.964  11.263   3.534 -0.4756  0.4710  0.4210
57297SOL    HW180859   6.969  11.172   3.564 -1.3987  1.1257  2.7462
57297SOL    HW280860   6.884  11.297   3.572  0.3263  2.5477  0.3888
57298SOL     OW80861  10.102   3.824   6.195  0.0373 -0.3123  0.0256
57298SOL    HW180862  10.136   3.913   6.200 -0.6857 -0.0194 -0.0540
57298SOL    HW280863  10.140   3.779   6.270  0.4221  0.0597  0.0564
57299SOL     OW80864   9.567   2.108   9.680  0.3935  0.2275  0.2288
57299SOL    HW180865   9.512   2.180   9.711 -0.3569  0.1369 -0.8346
57299SOL    HW280866   9.505   2.038   9.658  0.9532 -0.0422 -0.5646
57300SOL     OW80867   6.192   0.911  11.067  0.2442 -0.2519 -0.3731
57300SOL    HW180868   6.204   0.846  11.137  0.8374 -0.1339 -0.3597
57300SOL    HW280869   6.149   0.862  10.997  0.9186 -0.7346 -0.4618
57301SOL     OW80870   6.399   3.454   9.467 -0.2499 -0.5568 -1.1388
57301SOL    HW180871   6.342   3.489   9.399 -0.9198  1.0968  0.1851
57301SOL    HW280872   6.341   3.403   9.523 -0.1618 -0.0410 -0.5691
57302SOL     OW80873  11.923  12.473   9.988 -0.1969 -0.2292  0.0613
57302SOL    HW180874  11.845  12.525  10.005 -1.1830 -1.3231 -0.9804
57302SOL    HW280875  11.985  12.536   9.948  0.0176  0.9560  2.1023
57303SOL     OW80876   4.831  10.281   1.281 -0.0586 -0.0359  0.0215
57303SOL    HW180877   4.854  10.188   1.286 -2.3879 -0.7332 -0.9531
57303SOL    HW280878   4.805  10.304   1.370  4.3888  0.9368  1.3319
57304SOL     OW80879   9.848   4.150  11.575 -0.2539 -0.6985 -0.4529
57304SOL    HW180880   9.891   4.122  11.494  0.3590 -1.7731  0.2297
57304SOL    HW280881   9.766   4.101  11.577 -1.2285  0.8031 -1.3847
57305SOL     OW80882   5.241   3.212  10.748 -0.2184  0.1911  0.4695
57305SOL    HW180883   5.235   3.149  10.676 -1.8478 -0.1138  0.8180
57305SOL    HW280884   5.277   3.163  10.821 -0.1459  0.0492  0.3379
57306SOL     OW80885   0.356   9.119   5.261  0.7019  0.0986  0.7810
57306SOL    HW180886   0.378   9.032   5.294 -0.8177 -0.6440 -0.0097
57306SOL    HW280887   0.427   9.142   5.202  0.9615 -0.7715  0.7450
57307SOL     OW80888   0.562   0.880  11.286  0.1189  0.2509  0.2307
57307SOL    HW180889   0.631   0.908  11.346  0.6786  0.7693 -0.6356
57307SOL    HW280890   0.609   0.851  11.207 -0.6621  1.4255 -0.7014
57308SOL     OW80891   7.113   1.354  11.854 -0.2104 -0.2660 -0.2630
57308SOL    HW180892   7.119   1.260  11.871 -0.3862 -0.1425  0.5748
57308SOL    HW280893   7.102   1.392  11.941  0.0138  0.5430 -0.5832
57309SOL     OW80894   7.468   3.935   0.848  0.3028  0.2850  0.0580
57309SOL    HW180895   7.403   3.959   0.914  0.7299 -0.8169  0.9024
57309SOL    HW280896   7.548   3.918   0.898  0.3682 -1.5673 -0.5864
57310SOL     OW80897  12.523   0.423   3.622  0.6301  0.4245 -0.1010
57310SOL    HW180898  12.441   0.467   3.599  0.7658  1.2738  0.9480
57310SOL    HW280899  12.539   0.449   3.713  1.6221 -0.4217 -0.0221
57311SOL     OW80900  12.132   7.697   0.553  0.1022  0.6682  0.2415
57311SOL    HW180901  12.086   7.744   0.483  1.1982  3.4078  1.2120
57311SOL    HW280902  12.062   7.660   0.607 -0.8419  1.3993 -0.4349
57312SOL     OW80903  11.495   9.690   6.961 -0.0779 -0.0772 -0.1280
57312SOL    HW180904  11.423   9.663   6.904 -0.7198  1.5781 -0.1476
57312SOL    HW280905  11.480   9.643   7.043  0.0158 -1.3365 -0.8125
57313SOL     OW80906   5.822   9.723   5.727 -0.1455  0.0134  0.2914
57313SOL    HW180907   5.767   9.729   5.805  0.5007 -0.4253  0.7829
57313SOL    HW280908   5.775   9.776   5.661 -2.0977 -1.7820  0.1385
57314SOL     OW80909   2.258   7.165   2.571  0.2891  0.1666  0.0831
57314SOL    HW180910   2.184   7.130   2.620  2.1003 -0.5263  2.5123
57314SOL    HW280911   2.273   7.252   2.610  1.5955 -0.2900  0.6642
57315SOL     OW80912   5.926  12.590  11.977 -0.3085 -0.8712 -0.4495
57315SOL    HW180913   6.010  12.626  12.006 -0.4744  1.2214 -2.2733
57315SOL    HW280914   5.915  12.510  12.028  1.2685  0.4120  2.1386
57316SOL     OW80915   5.086   2.257   7.997  0.0447 -0.2621 -0.4856
57316SOL    HW180916   5.113   2.336   7.950 -0.7886 -0.4521 -1.3143
57316SOL    HW280917   5.021   2.287   8.060  0.9600 -0.0487  0.3777
57317SOL     OW80918  12.185   0.275   1.712 -0.1125 -0.2722  0.1033
57317SOL    HW180919  12.090   0.259   1.715 -0.3997  1.0255 -1.2105
57317SOL    HW280920  12.201   0.334   1.786 -0.6960  1.0900 -0.8106
57318SOL     OW80921  11.655   9.087  11.892  0.4585 -0.3758  0.0041
57318SOL    HW180922  11.740   9.047  11.875  0.6755 -0.0999  0.4257
57318SOL    HW280923  11.636   9.064  11.983  0.8465  0.9453  0.4362
57319SOL     OW80924   0.463   4.914   5.237  0.0459 -0.0819  0.0166
57319SOL    HW180925   0.386   4.917   5.180  0.2178  0.2896 -0.2062
57319SOL    HW280926   0.469   4.823   5.264  0.3339 -0.4187 -1.1017
57320SOL     OW80927   2.743  11.848  10.567 -0.3440 -0.7107 -0.7425
57320SOL    HW180928   2.780  11.837  10.654  0.3303 -1.7553 -1.1389
57320SOL    HW280929   2.688  11.926  10.573  1.6502  0.7070 -0.0463
57321SOL     OW80930   6.773   1.115   1.187 -0.0747  0.1583  0.0410
57321SOL    HW180931   6.701   1.102   1.248 -0.7113  1.3921 -0.4130
57321SOL    HW280932   6.849   1.133   1.242 -0.3350 -0.1396  0.4984
57322SOL     OW80933  10.971   7.380   5.491  0.5890  0.1712  0.1092
57322SOL    HW180934  10.988   7.287   5.475 -0.3570  0.1668 -0.9854
57322SOL    HW280935  10.877   7.384   5.510  0.4568  1.0056 -0.6778
57323SOL     OW80936  10.633   5.716  10.436 -0.1614 -0.1118  0.7404
57323SOL    HW180937  10.625   5.627  10.469 -0.2719  0.1791  1.5204
57323SOL    HW280938  10.542   5.745  10.424 -0.1354  0.0885  1.0267
57324SOL     OW80939   8.709   1.913   9.897 -0.1865  0.1786 -0.0710
57324SOL    HW180940   8.730   2.006   9.903 -1.2702  0.3372  1.8638
57324SOL    HW280941   8.618   1.911   9.866 -0.4442 -0.1971  0.6992
57325SOL     OW80942   6.194   9.877   8.728 -0.2101  0.3828 -0.0521
57325SOL    HW180943   6.221   9.954   8.779 -0.1546  0.0340  0.4587
57325SOL    HW280944   6.166   9.814   8.795  0.1879 -0.2111 -0.4433
57326SOL     OW80945   2.938  11.521   6.376  0.9083  0.3957  0.0727
57326SOL    HW180946   2.960  11.490   6.464  0.5864 -1.3167 -0.4070
57326SOL    HW280947   2.868  11.585   6.389  0.0901 -0.6499  1.0152
57327SOL     OW80948   2.204   2.796   6.207  0.0811 -0.2292 -0.0744
57327SOL    HW180949   2.222   2.886   6.235  1.8511 -0.1561 -1.2416
57327SOL    HW280950   2.115   2.778   6.237  0.1913  1.4167  1.4022
57328SOL     OW80951   2.533   1.029   8.062  0.6416 -0.6524  0.1502
57328SOL    HW180952   2.549   1.016   7.969  1.6792 -1.0895  0.3710
57328SOL    HW280953   2.450   0.986   8.079 -1.1185  1.9443 -1.1247
57329SOL     OW80954  12.178   0.340   3.122  0.4306 -0.4907 -0.2651
57329SOL    HW180955  12.193   0.433   3.139  0.7809 -0.5703 -0.1246
57329SOL    HW280956  12.101   0.318   3.175 -0.1487 -0.0926 -0.9350
57330SOL     OW80957   7.623  10.652   9.369 -0.4057 -0.0315  0.1286
57330SOL    HW180958   7.664  10.583   9.316  1.3104  0.9136  0.1520
57330SOL    HW280959   7.574  10.605   9.436 -0.6816 -1.2322 -0.8710
57331SOL     OW80960   6.377   0.596   8.978  0.1545 -0.5982  0.2035
57331SOL    HW180961   6.386   0.525   9.042 -0.0399 -0.5816  0.2521
57331SOL    HW280962   6.321   0.559   8.910 -0.4009 -0.3174  0.4941
57332SOL     OW80963   1.637   1.277   3.017 -0.3943 -0.6087 -0.1879
57332SOL    HW180964   1.695   1.314   3.083 -0.1110  2.0014 -1.7601
57332SOL    HW280965   1.551   1.311   3.040 -0.3990 -0.1958 -0.8189
57333SOL     OW80966   0.031   7.336  10.522 -0.0295  0.0950  0.5395
57333SOL    HW180967   0.062   7.422  10.550  0.7200 -0.4924  1.6511
57333SOL    HW280968   0.093   7.275  10.563 -1.1285 -1.0102  0.6148
57334SOL     OW80969   3.374   9.543  11.139  0.4231 -0.5489  0.2074
57334SOL    HW180970   3.394   9.635  11.155  1.4996 -0.9370  1.2158
57334SOL    HW280971   3.460   9.500  11.135 -0.0891 -1.8792  2.1609
57335SOL     OW80972   5.089   4.742   3.592  0.4856  0.2547 -0.0984
57335SOL    HW180973   5.091   4.710   3.683  1.0068 -3.8201 -1.3482
57335SOL    HW280974   4.996   4.752   3.573  0.3558  0.8324  0.7499
57336SOL     OW80975   8.419   9.764   9.239 -0.2370 -0.1933  0.1130
57336SOL    HW180976   8.483   9.702   9.204  0.0026  0.6182 -0.9302
57336SOL    HW280977   8.334   9.733   9.208 -0.3052 -0.9442  1.0153
57337SOL     OW80978   5.893   4.122   2.695  0.4987  0.3023 -0.5798
57337SOL    HW180979   5.843   4.047   2.727 -0.3240  0.9990 -0.1828
57337SOL    HW280980   5.966   4.130   2.756 -0.1256  0.5936  0.1436
57338SOL     OW80981   1.131  12.019   2.732  0.0773  0.1307 -0.1254
57338SOL    HW180982   1.195  12.064   2.788 -0.3664 -1.4435  1.7510
57338SOL    HW280983   1.179  12.000   2.651  1.3808  0.6487  0.4919
57339SOL     OW80984   6.401   5.630   4.105 -0.4968 -0.2812  0.1163
57339SOL    HW180985   6.435   5.598   4.189  0.9672 -0.4677 -0.5151
57339SOL    HW280986   6.352   5.556   4.070 -0.2608 -0.5527  0.3526
57340SOL     OW80987  12.543  11.383   7.912 -0.5965 -0.9351 -0.6192
57340SOL    HW180988  12.565  11.419   7.998 -0.5479 -0.3303 -0.8797
57340SOL    HW280989  12.460  11.425   7.889 -0.7300 -1.2748 -0.7602
57341SOL     OW80990   4.637   4.298   9.431 -0.1097 -0.4858 -0.3726
57341SOL    HW180991   4.713   4.331   9.384 -1.1541  3.4245  0.2746
57341SOL    HW280992   4.656   4.314   9.523 -1.8208  1.1363 -0.2280
57342SOL     OW80993   2.596   4.992  11.493 -0.0796  0.0864 -0.1007
57342SOL    HW180994   2.646   5.073  11.502 -2.2994  1.7595 -1.7914
57342SOL    HW280995   2.592   4.957  11.582  3.4912  0.1271  0.2145
57343SOL     OW80996   6.340   5.291   8.672  0.3222  0.9232 -0.2383
57343SOL    HW180997   6.404   5.222   8.694  1.7305  1.7236 -1.6155
57343SOL    HW280998   6.288   5.301   8.751  0.8839 -0.8675  0.4155
57344SOL     OW80999   7.416   4.209   0.276  0.0394 -0.1334 -0.1501
57344SOL    HW181000   7.365   4.142   0.232 -1.1742  0.3971  0.4017
57344SOL    HW281001   7.496   4.164   0.303 -0.5970 -1.2691 -0.0925
57345SOL     OW81002   0.857   4.822  12.596 -0.2249  0.0776  0.2537
57345SOL    HW181003   0.768   4.818  12.631 -0.3690  2.2352  0.2641
57345SOL    HW281004   0.912   4.842  12.671  0.3679 -1.6287  0.3164
57346SOL     OW81005   3.959   4.079   9.630 -0.2959 -0.0319 -0.4725
57346SOL    HW181006   3.999   4.015   9.690 -1.3664  0.5842  0.9353
57346SOL    HW281007   4.025   4.147   9.621  1.1665 -1.5702 -2.5596
57347SOL     OW81008   0.335   2.449   4.083 -0.3842 -0.1111  0.5549
57347SOL    HW181009   0.410   2.492   4.125  1.0310 -1.0947 -0.8949
57347SOL    HW281010   0.288   2.408   4.156  0.0056  1.1692  1.5851
57348SOL     OW81011  10.667  11.009   9.483  0.5795 -0.4953  0.2892
57348SOL    HW181012  10.713  10.925   9.478  0.6183 -0.4488 -0.1963
57348SOL    HW281013  10.721  11.069   9.431  1.5389  0.2953  2.1064
57349SOL     OW81014   4.840  11.434   8.383 -0.3159  0.6528 -0.7734
57349SOL    HW181015   4.817  11.353   8.336 -1.5115  0.7618 -0.4180
57349SOL    HW281016   4.773  11.496   8.357  0.1645  1.3098 -0.4567
57350SOL     OW81017   7.920   1.524   9.819  0.3183  0.7105  0.0264
57350SOL    HW181018   7.976   1.530   9.896 -0.1144  0.0599  0.4096
57350SOL    HW281019   7.980   1.510   9.746  0.6676  0.1411  0.4151
57351SOL     OW81020   8.710  10.243   2.499 -0.2204 -0.1487 -0.0529
57351SOL    HW181021   8.764  10.255   2.421  0.5704 -1.0413  0.3273
57351SOL    HW281022   8.634  10.299   2.485  1.0267  1.5226 -0.3909
57352SOL     OW81023   8.018   0.654   5.487 -0.0105 -0.2967 -0.8873
57352SOL    HW181024   8.113   0.651   5.476  0.2889  0.6701  1.0276
57352SOL    HW281025   7.991   0.562   5.488  0.8388 -0.5746 -1.7730
57353SOL     OW81026   3.035   9.342   6.326  0.0884 -0.5399 -0.7636
57353SOL    HW181027   2.980   9.293   6.265 -0.9069 -0.3266 -0.0676
57353SOL    HW281028   3.005   9.433   6.317  0.1568 -0.4588 -0.2023
57354SOL     OW81029  11.108   9.952  12.278 -0.4637 -0.0649 -0.6193
57354SOL    HW181030  11.093  10.011  12.353  0.8244 -0.6316  0.1093
57354SOL    HW281031  11.022   9.914  12.261 -0.5743 -0.8765  1.4095
57355SOL     OW81032  10.945   8.446   0.496 -0.0370  0.0949  0.3689
57355SOL    HW181033  10.952   8.431   0.401  1.2730 -1.6764  0.7067
57355SOL    HW281034  11.033   8.433   0.529 -0.5851  0.1481  1.9304
57356SOL     OW81035   5.922   4.474   2.702  0.4651 -0.6655  0.2034
57356SOL    HW181036   5.840   4.444   2.663  0.3633 -0.5076  0.2958
57356SOL    HW281037   5.951   4.546   2.646  0.5006 -0.6701  0.2157
57357SOL     OW81038   8.557  10.611   7.633  0.0167  0.3285 -0.6514
57357SOL    HW181039   8.632  10.668   7.650 -0.8050  1.3685 -0.4254
57357SOL    HW281040   8.559  10.546   7.703  0.7451  0.3042 -0.6907
57358SOL     OW81041   1.101   0.828   1.864 -0.4253 -0.3117 -0.3699
57358SOL    HW181042   1.148   0.847   1.945 -1.5192  1.8707 -0.1704
57358SOL    HW281043   1.162   0.775   1.812  0.9782 -0.2317  1.1294
57359SOL     OW81044   1.385   6.224  10.613  0.3074 -0.0206  0.0402
57359SOL    HW181045   1.304   6.266  10.643  0.1746 -0.3837  0.2018
57359SOL    HW281046   1.447   6.240  10.684 -0.0540 -1.0233  0.6093
57360SOL     OW81047   8.144   4.357   1.474 -0.3158 -0.2898  0.3705
57360SOL    HW181048   8.169   4.442   1.510  0.1465 -0.1029 -0.3545
57360SOL    HW281049   8.072   4.327   1.529 -1.6963  1.3936 -0.4447
57361SOL     OW81050   6.956   5.908   4.500  0.2284 -0.3262  0.5931
57361SOL    HW181051   6.986   5.830   4.452  0.1567 -0.4606  0.7636
57361SOL    HW281052   6.993   5.981   4.452 -3.3527 -0.1347 -2.3184
57362SOL     OW81053   3.632   8.137   7.322 -0.3020 -0.2646 -0.2570
57362SOL    HW181054   3.646   8.164   7.413  0.9280 -2.3705  0.2200
57362SOL    HW281055   3.670   8.208   7.271  1.4814 -0.3187  0.9164
57363SOL     OW81056   4.396  10.341  10.624  0.1028  0.1604  0.7525
57363SOL    HW181057   4.361  10.414  10.675 -2.1484 -0.3951  0.0720
57363SOL    HW281058   4.484  10.371  10.599 -1.2898  3.4325 -0.9463
57364SOL     OW81059   5.941   0.313   3.336  0.1098  0.0220 -0.3198
57364SOL    HW181060   5.980   0.269   3.412 -0.7889 -0.4678 -0.1315
57364SOL    HW281061   5.848   0.291   3.340 -0.1157  0.7951 -1.0214
57365SOL     OW81062   5.075   8.711   3.380 -0.5083  0.3270 -0.7517
57365SOL    HW181063   5.108   8.748   3.462 -0.1305 -2.8769  0.7084
57365SOL    HW281064   4.983   8.737   3.378 -0.8340 -0.4235  1.3581
57366SOL     OW81065  11.497   1.560   7.739 -0.3247  0.0451 -0.3716
57366SOL    HW181066  11.521   1.589   7.827 -0.6505  1.0306 -0.5974
57366SOL    HW281067  11.475   1.467   7.750  0.2915 -0.0192  0.4534
57367SOL     OW81068   6.898   7.945   5.676  0.3427  0.1726  0.2000
57367SOL    HW181069   6.933   7.890   5.606  0.2375 -0.3700  0.5696
57367SOL    HW281070   6.847   7.885   5.730  0.6410  0.5392  0.8956
57368SOL     OW81071   9.731   6.141   6.600  0.1682 -0.0491 -0.1504
57368SOL    HW181072   9.826   6.155   6.596  0.3976 -1.3646  0.2366
57368SOL    HW281073   9.700   6.166   6.513  0.7769  1.0133 -0.0731
57369SOL     OW81074   8.308   1.357   5.752 -0.5643 -0.3435 -0.3485
57369SOL    HW181075   8.277   1.442   5.723 -2.9852 -0.2644  2.0777
57369SOL    HW281076   8.293   1.299   5.677 -1.0640  0.8999 -1.2472
57370SOL     OW81077   7.583  10.071  11.912 -0.8508 -0.1688  0.2258
57370SOL    HW181078   7.594  10.137  11.843  1.9686 -0.6781  0.0565
57370SOL    HW281079   7.664  10.077  11.963 -1.1047 -2.5880  1.0149
57371SOL     OW81080   7.862  11.054   2.715 -0.3303  0.0596 -0.2534
57371SOL    HW181081   7.836  11.028   2.627  0.0883 -2.0287  0.1973
57371SOL    HW281082   7.856  10.974   2.767  3.3110  0.2591  0.7205
57372SOL     OW81083   1.236   7.406   8.531 -0.5869 -0.5115 -0.1021
57372SOL    HW181084   1.313   7.354   8.509  0.8422  1.3918  0.2021
57372SOL    HW281085   1.262   7.458   8.606 -2.7880 -1.0908  1.1460
57373SOL     OW81086   8.155   1.300   6.764 -0.0652  0.2609  0.0087
57373SOL    HW181087   8.233   1.289   6.819  1.1391  0.5033 -1.5712
57373SOL    HW281088   8.190   1.309   6.675 -1.9419 -0.2338 -0.8242
57374SOL     OW81089   9.605   3.380   1.510 -0.5979  0.3986  0.2398
57374SOL    HW181090   9.648   3.311   1.561 -2.2715 -1.2958 -0.5335
57374SOL    HW281091   9.677   3.428   1.470  0.6926  0.5573  2.5801
57375SOL     OW81092   4.810   1.717   1.176  0.4686 -0.7022  0.4169
57375SOL    HW181093   4.726   1.672   1.186  0.3923 -0.4951  0.6999
57375SOL    HW281094   4.838   1.738   1.265  0.9253 -0.9590  0.3360
57376SOL     OW81095   5.702   0.012   8.258  1.2463  0.3679 -0.1636
57376SOL    HW181096   5.733  -0.078   8.252 -0.3174 -0.3301  1.2576
57376SOL    HW281097   5.685   0.038   8.167 -0.4310 -1.6053 -0.4857
57377SOL     OW81098   1.981   0.436   1.943 -0.1368 -0.3740 -0.5017
57377SOL    HW181099   2.067   0.420   1.980 -0.9831 -1.3268  1.1381
57377SOL    HW281100   1.988   0.523   1.903  1.7096 -0.6539 -0.8706
57378SOL     OW81101   3.547   4.164  10.905  0.6167 -0.0590  0.5310
57378SOL    HW181102   3.480   4.229  10.923  1.8917  0.7650  2.6533
57378SOL    HW281103   3.565   4.175  10.811  1.8700  3.8420  1.0229
57379SOL     OW81104  12.440   8.443  10.562 -0.0855  0.4468  0.5963
57379SOL    HW181105  12.427   8.397  10.645  0.6151  1.4360  1.2727
57379SOL    HW281106  12.533   8.465  10.561  0.1238 -0.3136 -0.8751
57380SOL     OW81107   3.319   3.618   8.015 -0.0539 -0.0963 -0.0333
57380SOL    HW181108   3.366   3.689   7.972 -0.1902 -0.1702 -0.3095
57380SOL    HW281109   3.380   3.585   8.081  0.0302  0.2386  0.0584
57381SOL     OW81110   7.031  10.371   4.681 -0.1399  0.2346 -0.1512
57381SOL    HW181111   7.007  10.464   4.690  0.3181  0.2318  1.5968
57381SOL    HW281112   7.026  10.337   4.770  1.1264 -1.0645 -0.5433
57382SOL     OW81113  12.109   5.103   1.631 -0.3063  0.7483  0.1589
57382SOL    HW181114  12.174   5.063   1.688  1.1434  2.0267 -0.5279
57382SOL    HW281115  12.150   5.103   1.544 -2.1089 -0.3626 -0.7525
57383SOL     OW81116   8.836   7.201   8.492  0.2128 -0.0749  0.0808
57383SOL    HW181117   8.846   7.269   8.558  0.5823 -0.1390  0.0924
57383SOL    HW281118   8.898   7.132   8.518  0.6051  0.0448 -0.5100
57384SOL     OW81119   4.541   4.035   3.923  0.3989  0.0380 -0.1878
57384SOL    HW181120   4.608   3.968   3.920  0.4209  0.0859 -0.8129
57384SOL    HW281121   4.499   4.032   3.837 -2.9652 -2.5815  1.2806
57385SOL     OW81122   4.753   1.405   1.717 -0.0946  0.2413 -0.0128
57385SOL    HW181123   4.744   1.460   1.795 -1.0995  4.0264 -2.5052
57385SOL    HW281124   4.665   1.404   1.679  0.8951  0.8871 -2.4776
57386SOL     OW81125   1.605  12.146   7.115 -0.1472  0.0015 -0.6137
57386SOL    HW181126   1.662  12.223   7.119  1.0884 -0.9198  0.5804
57386SOL    HW281127   1.652  12.085   7.058 -0.6908 -0.1989 -0.8504
57387SOL     OW81128   5.926   6.891   7.068 -0.3746  0.0484  0.1523
57387SOL    HW181129   5.912   6.797   7.053  0.4042 -0.0288 -0.1641
57387SOL    HW281130   5.982   6.894   7.146 -2.2154  0.3516  1.5156
57388SOL     OW81131   0.708   5.164   1.464  0.5234  0.8000 -0.3843
57388SOL    HW181132   0.784   5.126   1.419  0.5635  1.7473 -1.1579
57388SOL    HW281133   0.633   5.127   1.418  0.5472  1.0926 -0.6585
57389SOL     OW81134   1.276   7.754   9.223 -0.2892 -0.6442  0.3406
57389SOL    HW181135   1.215   7.685   9.197 -1.0504  0.7935 -2.0456
57389SOL    HW281136   1.363   7.717   9.205 -0.4608 -2.1697  2.3794
57390SOL     OW81137  11.597   1.678   0.699  0.1019 -0.0382  0.0364
57390SOL    HW181138  11.511   1.654   0.666  0.5946 -1.0082 -0.6085
57390SOL    HW281139  11.580   1.716   0.785 -0.8899 -1.3041  0.4358
57391SOL     OW81140   9.271   3.129   7.075 -0.2797  0.1701 -0.9203
57391SOL    HW181141   9.291   3.193   7.007  1.6675  0.0144 -0.5275
57391SOL    HW281142   9.349   3.075   7.082 -0.8126 -0.4487  0.7640
57392SOL     OW81143   8.985   8.608   8.131  0.3680  0.0276 -0.4129
57392SOL    HW181144   8.936   8.634   8.053 -0.6130 -0.6507 -0.0429
57392SOL    HW281145   9.077   8.616   8.106  0.0614  0.3774 -1.4449
57393SOL     OW81146  10.612   5.097   9.267  0.4653  0.9808  0.6095
57393SOL    HW181147  10.556   5.021   9.253  0.4742  0.6997  1.9121
57393SOL    HW281148  10.633   5.129   9.180  0.0450 -0.2046  0.0624
57394SOL     OW81149  12.387   2.613   9.094  0.5765 -0.0610  0.3881
57394SOL    HW181150  12.438   2.590   9.171  0.5510 -1.7685 -0.0711
57394SOL    HW281151  12.426   2.695   9.063  2.8540 -1.1065  0.2541
57395SOL     OW81152  12.180   3.500   6.003 -0.2495  0.2143  0.0026
57395SOL    HW181153  12.142   3.521   5.918 -0.4525 -0.4059 -0.0631
57395SOL    HW281154  12.273   3.482   5.985 -0.1784  0.5923 -0.0085
57396SOL     OW81155   0.107   8.332   1.053  0.4694 -0.5021  0.0085
57396SOL    HW181156   0.036   8.275   1.083  1.1602 -2.2836 -1.5894
57396SOL    HW281157   0.063   8.396   0.996 -0.1795  0.0735  1.1113
57397SOL     OW81158   9.892   4.747   9.776  0.5278 -0.2873  0.2030
57397SOL    HW181159   9.926   4.797   9.850 -2.2756 -0.0355  1.4294
57397SOL    HW281160   9.865   4.813   9.712 -2.0560 -0.1560  1.3176
57398SOL     OW81161  11.161   2.975   8.849  0.0598  0.4317  0.1014
57398SOL    HW181162  11.157   3.043   8.782 -0.3639  0.1838 -0.1325
57398SOL    HW281163  11.081   2.924   8.836  0.5309 -0.3149  0.0535
57399SOL     OW81164   2.417   1.970   6.814  0.0551 -0.2184 -0.0857
57399SOL    HW181165   2.393   1.991   6.904 -0.2047  0.5740 -0.3295
57399SOL    HW281166   2.504   1.929   6.821  1.1988  2.1042  0.3446
57400SOL     OW81167  11.661   2.380   7.452 -0.2585 -0.1505 -0.4923
57400SOL    HW181168  11.660   2.292   7.413 -0.0426 -0.5022  0.2817
57400SOL    HW281169  11.753   2.403   7.458 -0.1955 -0.6896  1.0819
57401SOL     OW81170   9.632   6.722  10.373  0.0170  0.1288 -0.1432
57401SOL    HW181171   9.612   6.692  10.284 -0.1299 -0.3603  0.0530
57401SOL    HW281172   9.726   6.709  10.383 -0.0851 -0.5124  0.0282
57402SOL     OW81173   6.660   8.562   4.325  0.3492 -0.1653  0.4109
57402SOL    HW181174   6.645   8.507   4.402 -2.1883 -1.1561 -0.6899
57402SOL    HW281175   6.632   8.650   4.352  0.2441 -0.3330  0.8540
57403SOL     OW81176   1.549   9.292   1.822  1.0826  0.7444  0.1212
57403SOL    HW181177   1.596   9.360   1.772  1.0951  1.4492  1.0705
57403SOL    HW281178   1.506   9.340   1.892 -0.1626 -0.0455 -0.0833
57404SOL     OW81179   6.945  11.819  11.535  0.5982  0.4955  0.6402
57404SOL    HW181180   7.006  11.891  11.549 -0.5626  1.7361 -0.4296
57404SOL    HW281181   6.974  11.778  11.453  1.4639 -0.5299  1.4188
57405SOL     OW81182   5.972   9.776   4.761 -0.0487  0.4936  0.2579
57405SOL    HW181183   5.897   9.718   4.751 -0.6165  1.4271 -1.0809
57405SOL    HW281184   6.047   9.724   4.731 -0.2317 -0.2097  0.9770
57406SOL     OW81185   8.917  11.438   2.951  0.2127 -0.3668  0.0616
57406SOL    HW181186   8.953  11.392   2.875  2.9388  4.3248 -1.9135
57406SOL    HW281187   8.976  11.416   3.023  0.0339 -1.7251 -0.1939
57407SOL     OW81188   2.254   5.101   5.929  0.3758 -0.2846 -0.0277
57407SOL    HW181189   2.242   5.066   5.840 -0.9734  0.1824 -0.0564
57407SOL    HW281190   2.347   5.087   5.948  0.3528 -1.8571 -0.8802
57408SOL     OW81191   9.969   6.424   4.894 -1.1510  0.3161  0.1526
57408SOL    HW181192  10.057   6.461   4.899 -0.9589  0.3318 -2.3636
57408SOL    HW281193   9.947   6.425   4.801 -2.1962 -3.4434  0.1879
57409SOL     OW81194   2.804   3.816   5.471  0.3254 -0.3449 -0.2174
57409SOL    HW181195   2.803   3.907   5.501 -3.0193 -0.3831  0.1587
57409SOL    HW281196   2.835   3.766   5.546  1.1867  0.3858 -0.0770
57410SOL     OW81197   5.554   1.409   7.712 -0.3737 -0.2018  0.3239
57410SOL    HW181198   5.465   1.381   7.734 -1.1360  0.7943 -1.2521
57410SOL    HW281199   5.594   1.332   7.672 -0.4808 -0.6813  1.1192
57411SOL     OW81200   3.587   6.087   3.793  0.5939 -0.3015 -0.1344
57411SOL    HW181201   3.613   6.175   3.820  2.6202 -1.3476  1.5790
57411SOL    HW281202   3.641   6.069   3.716 -1.0175  0.5021 -1.5234
57412SOL     OW81203   7.796   0.764   1.826 -0.1868  0.1031  0.1670
57412SOL    HW181204   7.777   0.827   1.757  1.2863  1.0915  0.6252
57412SOL    HW281205   7.723   0.773   1.888 -0.8615  0.1089 -0.6106
57413SOL     OW81206   8.954   9.565   3.382 -0.0606 -0.2342  0.1810
57413SOL    HW181207   8.913   9.478   3.377 -0.1203 -0.2018  0.1047
57413SOL    HW281208   8.888   9.625   3.347 -0.8221  0.1056  2.0663
57414SOL     OW81209   4.043   6.914   3.024 -0.8870  0.0700 -0.5349
57414SOL    HW181210   4.112   6.851   3.005 -0.4202  0.6094 -0.6824
57414SOL    HW281211   4.070   6.956   3.105 -0.2836  1.2873 -1.3319
57415SOL     OW81212  11.375   0.705   5.486 -0.2827  0.2166 -0.1486
57415SOL    HW181213  11.421   0.671   5.563 -0.7169 -1.4651 -0.6011
57415SOL    HW281214  11.418   0.663   5.412 -0.5038  1.0769 -0.7844
57416SOL     OW81215   1.828   8.876   0.091  0.0773  0.1776 -0.1061
57416SOL    HW181216   1.849   8.956   0.139  3.0329 -0.1081 -0.7275
57416SOL    HW281217   1.862   8.891   0.003  1.6539 -2.0951  0.0361
57417SOL     OW81218   6.212   1.766   2.426 -0.0952  0.2055 -0.6831
57417SOL    HW181219   6.213   1.722   2.341  0.1373  0.0923 -0.6239
57417SOL    HW281220   6.121   1.793   2.438 -0.0061  0.7734 -1.2495
57418SOL     OW81221  11.395  12.525   6.337  0.5909  0.0148  0.0870
57418SOL    HW181222  11.330  12.459   6.314 -0.3513  1.0178 -0.2031
57418SOL    HW281223  11.390  12.590   6.267  1.6337  0.3091  0.2626
57419SOL     OW81224   4.997  11.731   7.824  0.0687  0.1936  0.1677
57419SOL    HW181225   5.021  11.754   7.914 -1.1721  0.1151  0.5351
57419SOL    HW281226   4.906  11.700   7.831 -0.4898  1.4027 -1.3021
57420SOL     OW81227   0.707   6.773   3.477  0.2085 -0.0491  0.2864
57420SOL    HW181228   0.738   6.770   3.567 -0.0384 -1.2244  0.3478
57420SOL    HW281229   0.718   6.683   3.445 -0.4661  0.1688 -0.5858
57421SOL     OW81230   0.885   5.846  10.760  0.2715  0.8094  0.0484
57421SOL    HW181231   0.946   5.861  10.687 -0.2452 -0.6687 -0.7394
57421SOL    HW281232   0.820   5.915  10.752  1.3028  1.8485  0.3274
57422SOL     OW81233  10.636   0.123   1.127 -0.2323 -0.1694  0.1100
57422SOL    HW181234  10.630   0.077   1.044 -1.2281  0.3915 -0.1504
57422SOL    HW281235  10.656   0.055   1.191  1.3492 -0.4947 -0.6829
57423SOL     OW81236   0.073   0.402   6.728  0.6662 -0.0966 -0.0480
57423SOL    HW181237   0.122   0.424   6.808  2.0389  2.7957 -1.5311
57423SOL    HW281238   0.104   0.315   6.704  0.2896 -1.0038  2.4492
57424SOL     OW81239   3.875   9.811   3.297 -0.0953  0.1874 -0.1047
57424SOL    HW181240   3.810   9.740   3.291  0.0177 -0.0475  1.2234
57424SOL    HW281241   3.884   9.827   3.391  1.5292  0.4405 -0.2815
57425SOL     OW81242   2.307   1.686  11.855 -0.2867 -0.4902  0.4683
57425SOL    HW181243   2.368   1.646  11.793 -3.2274 -1.2228 -2.2095
57425SOL    HW281244   2.271   1.761  11.807 -0.2374  1.0174  2.6595
57426SOL     OW81245   8.438   7.820   5.502 -0.1200 -0.1808  0.5979
57426SOL    HW181246   8.486   7.782   5.575  0.3471 -0.1055  0.3346
57426SOL    HW281247   8.364   7.761   5.487  1.8035 -2.3116 -1.2790
57427SOL     OW81248   6.194   3.352   9.010 -0.1420  0.0633  0.7905
57427SOL    HW181249   6.204   3.329   8.918 -1.1025 -0.5058  0.8119
57427SOL    HW281250   6.101   3.372   9.020 -0.1426 -0.3363  1.7354
57428SOL     OW81251   5.763   0.478   4.668 -0.6493  0.3109 -0.4258
57428SOL    HW181252   5.674   0.455   4.641 -0.6771  1.0046 -0.9709
57428SOL    HW281253   5.784   0.557   4.617 -0.2740  1.0154  0.7728
57429SOL     OW81254  12.317  10.298   0.733  0.1397  0.1885 -0.0032
57429SOL    HW181255  12.321  10.206   0.761 -0.5875 -0.0881 -0.7777
57429SOL    HW281256  12.247  10.300   0.668  0.7970  1.1023 -0.6988
57430SOL     OW81257   1.872   5.743  10.318  0.1750  0.1277 -0.2193
57430SOL    HW181258   1.820   5.776  10.245 -0.5910 -1.3190 -0.3708
57430SOL    HW281259   1.822   5.667  10.350  1.4318 -0.3771  0.6084
57431SOL     OW81260   2.986  12.282   2.137 -0.1693 -1.3810  0.5198
57431SOL    HW181261   2.966  12.305   2.046  0.5388 -0.5986  0.5546
57431SOL    HW281262   3.012  12.190   2.133  3.1727 -0.5118 -0.6281
57432SOL     OW81263   8.805   8.489   7.606 -0.3727 -0.0522 -0.4265
57432SOL    HW181264   8.770   8.514   7.520 -0.6715  0.0022 -0.2869
57432SOL    HW281265   8.730   8.454   7.654 -0.0825 -0.6686 -0.4056
57433SOL     OW81266   1.203   2.746   2.599 -0.2284  0.3381  0.8295
57433SOL    HW181267   1.296   2.760   2.584 -0.4083 -0.0915 -0.9054
57433SOL    HW281268   1.199   2.684   2.672  0.7559  2.0745  2.4429
57434SOL     OW81269  12.310   9.278   1.696 -0.3242 -0.1563  0.0434
57434SOL    HW181270  12.373   9.349   1.691  0.3542 -0.5127  2.2763
57434SOL    HW281271  12.247   9.306   1.763 -0.2600 -1.4453  0.6826
57435SOL     OW81272   4.134   1.295  10.918 -0.0701  0.4188  0.3598
57435SOL    HW181273   4.188   1.356  10.868  1.2039  0.6728  1.9603
57435SOL    HW281274   4.050   1.340  10.929  1.3400  2.6935  2.8914
57436SOL     OW81275  12.585   3.078  10.110 -0.0458 -0.4493  0.1959
57436SOL    HW181276  12.567   2.986  10.090 -2.4627  0.4159 -2.3746
57436SOL    HW281277  12.645   3.106  10.040  0.2316  0.0476  0.6282
57437SOL     OW81278  10.125   9.389  10.972 -0.3938  0.0859 -0.5919
57437SOL    HW181279  10.083   9.474  10.988  0.0744  0.6816 -2.3018
57437SOL    HW281280  10.211   9.397  11.014 -0.0023  0.8091 -1.5097
57438SOL     OW81281  10.479  11.567   2.692 -0.1380  0.7560 -0.0198
57438SOL    HW181282  10.403  11.587   2.638 -1.5062 -1.2099  1.0700
57438SOL    HW281283  10.443  11.544   2.777  1.7092  0.2345  0.6728
57439SOL     OW81284   7.221   1.761  10.134  0.0639 -0.2304  0.9438
57439SOL    HW181285   7.251   1.731  10.220 -0.7555 -1.0637  0.9459
57439SOL    HW281286   7.259   1.699  10.073  0.2473  0.0824  0.7357
57440SOL     OW81287  12.530   2.935   7.445 -0.7556  0.2314  0.5678
57440SOL    HW181288  12.467   2.947   7.373 -1.3768 -0.0549  1.0570
57440SOL    HW281289  12.512   2.847   7.478 -0.5403  0.3981  1.1404
57441SOL     OW81290   7.445   7.713   4.171 -0.3275 -0.6958  0.2200
57441SOL    HW181291   7.396   7.772   4.114 -0.6226 -0.2267  0.9489
57441SOL    HW281292   7.379   7.679   4.233 -0.1040 -1.5525  0.0092
57442SOL     OW81293   3.987   8.243   3.116 -0.3317  0.3240 -0.1915
57442SOL    HW181294   4.043   8.283   3.049  0.5133 -0.5453 -0.0294
57442SOL    HW281295   3.993   8.302   3.191  0.4940  0.1759 -0.1305
57443SOL     OW81296   3.585   4.312  11.842  0.1807 -0.2099  0.2992
57443SOL    HW181297   3.669   4.293  11.801  0.3228 -0.6995  0.8162
57443SOL    HW281298   3.522   4.308  11.770  0.2562 -2.2121  0.2891
57444SOL     OW81299   9.165   4.124   3.155 -0.5825  0.4642  0.0105
57444SOL    HW181300   9.202   4.119   3.067  0.0255 -2.2613  0.3283
57444SOL    HW281301   9.164   4.217   3.175 -0.5372  1.1452 -2.7717
57445SOL     OW81302   0.095   7.810   5.103  0.2575 -0.2255 -0.6181
57445SOL    HW181303   0.028   7.878   5.107 -0.4191 -0.7429 -2.2441
57445SOL    HW281304   0.171   7.854   5.064  0.4213  0.0150 -0.0433
57446SOL     OW81305   3.995   0.872   3.224 -0.2603  0.3686  0.0575
57446SOL    HW181306   4.069   0.818   3.251 -1.6169 -1.6400 -0.0292
57446SOL    HW281307   3.955   0.901   3.307 -0.5179 -0.1894  0.1305
57447SOL     OW81308   2.561   1.166   1.213  0.0494  0.0969 -0.1128
57447SOL    HW181309   2.575   1.226   1.286  0.3329  1.4566 -1.2323
57447SOL    HW281310   2.627   1.098   1.225  0.1725  0.3638  0.8248
57448SOL     OW81311   0.468   3.242  11.155  0.3972  0.1500 -0.3442
57448SOL    HW181312   0.477   3.336  11.166 -0.2874  0.0499  1.3014
57448SOL    HW281313   0.381   3.229  11.119  0.2554  0.1163  0.0072
57449SOL     OW81314   1.681   8.943  12.306  0.4698 -0.6624  0.4411
57449SOL    HW181315   1.656   9.032  12.282  0.6861 -1.1477 -1.7619
57449SOL    HW281316   1.598   8.897  12.317  0.2936  0.1888  3.4611
57450SOL     OW81317   7.240   0.572   9.485 -0.0474 -0.6925 -0.0655
57450SOL    HW181318   7.150   0.588   9.458 -0.3475  1.2828  1.8615
57450SOL    HW281319   7.233   0.508   9.556  0.2117 -1.3965 -0.6539
57451SOL     OW81320   4.195   6.136   6.829 -0.0061  0.6237 -0.3613
57451SOL    HW181321   4.178   6.100   6.916  2.1563 -2.3363 -1.0165
57451SOL    HW281322   4.136   6.087   6.771  0.0384  1.0857 -0.8012
57452SOL     OW81323   7.313   2.206   7.417  0.0367 -0.1389  0.6699
57452SOL    HW181324   7.367   2.275   7.378 -0.1755 -0.0631  0.5122
57452SOL    HW281325   7.280   2.156   7.343 -0.8409  0.3604  0.7142
57453SOL     OW81326   4.138   9.738  11.402 -0.1957  0.8097  0.4342
57453SOL    HW181327   4.134   9.816  11.346  1.0420  1.3611  1.0762
57453SOL    HW281328   4.055   9.737  11.448 -1.9161 -0.4713 -2.3909
57454SOL     OW81329   0.588   4.564  12.391  0.3275  0.1569 -0.3326
57454SOL    HW181330   0.512   4.552  12.334  0.3586 -3.2384  0.1271
57454SOL    HW281331   0.643   4.487  12.373  2.3661  1.1531  1.2806
57455SOL     OW81332   6.123   5.703  12.342  0.4259 -0.0387 -0.4474
57455SOL    HW181333   6.195   5.756  12.377 -0.5570  0.0437  1.6047
57455SOL    HW281334   6.054   5.767  12.324  0.0784 -0.3503 -0.2336
57456SOL     OW81335   1.541   1.058   6.718  0.1979  0.1805  0.1594
57456SOL    HW181336   1.486   1.092   6.648  1.4675 -0.3256 -1.1520
57456SOL    HW281337   1.629   1.056   6.680  0.7236 -1.2719  1.3607
57457SOL     OW81338   3.290  11.018   7.423 -0.0378 -0.0281  0.6657
57457SOL    HW181339   3.251  10.960   7.357 -0.2748 -1.2821  1.8614
57457SOL    HW281340   3.214  11.059   7.465  0.0907  0.4034  0.4735
57458SOL     OW81341   7.263   5.522   0.631  0.3451 -0.5768  0.0965
57458SOL    HW181342   7.198   5.592   0.639  0.1913 -0.7843  0.6703
57458SOL    HW281343   7.341   5.565   0.597 -0.0434 -0.2970 -0.4658
57459SOL     OW81344   3.761   4.909   8.393 -0.3003 -0.0559 -0.1477
57459SOL    HW181345   3.852   4.941   8.391 -0.3578  0.0956 -0.6968
57459SOL    HW281346   3.768   4.815   8.377 -0.1871 -0.1797  0.6180
57460SOL     OW81347  10.209   9.277   8.773 -0.2179 -0.4543  0.1993
57460SOL    HW181348  10.271   9.315   8.711 -0.9115  0.7033  0.1776
57460SOL    HW281349  10.254   9.278   8.857  0.4651 -1.3719 -0.1314
57461SOL     OW81350   9.032   0.158   6.364  0.2068  1.0064  0.4561
57461SOL    HW181351   8.995   0.107   6.292  1.9145  0.7636 -0.3121
57461SOL    HW281352   9.118   0.187   6.331 -0.4547  3.9599  1.0344
57462SOL     OW81353   4.416   4.926   8.358  0.1440 -0.6436  0.7414
57462SOL    HW181354   4.492   4.956   8.408  0.0206 -0.9951  1.1407
57462SOL    HW281355   4.350   4.904   8.423  0.1861 -1.6708  0.4716
57463SOL     OW81356   0.436   0.524   0.361  0.4715  0.3621 -0.6991
57463SOL    HW181357   0.478   0.602   0.398 -0.9442  1.7698 -1.9330
57463SOL    HW281358   0.344   0.548   0.352 -0.5006 -2.3055  1.0356
57464SOL     OW81359  10.114  10.112  11.903 -0.3038 -0.0630 -0.0056
57464SOL    HW181360  10.049  10.041  11.901  0.7271 -1.0392 -0.4796
57464SOL    HW281361  10.123  10.137  11.811  0.4109 -0.3600 -0.0243
57465SOL     OW81362   1.352   2.403   3.598  0.0840 -0.5348 -0.4595
57465SOL    HW181363   1.374   2.419   3.690 -1.1629 -2.3172  0.2158
57465SOL    HW281364   1.272   2.454   3.584 -0.1704 -0.8858 -0.3039
57466SOL     OW81365   4.388   0.030   7.796  0.3547 -0.0842  0.1522
57466SOL    HW181366   4.456  -0.035   7.812  0.6479  0.5393  1.5950
57466SOL    HW281367   4.407   0.100   7.858 -0.4186  1.0208 -0.8269
57467SOL     OW81368   5.402   0.304   2.919  0.2294 -0.3254 -0.5228
57467SOL    HW181369   5.400   0.211   2.941 -1.8178  0.1670  1.7950
57467SOL    HW281370   5.361   0.309   2.832  1.2767 -1.6365 -1.1239
57468SOL     OW81371   8.394  11.755  10.939  0.3370 -0.2337 -0.0139
57468SOL    HW181372   8.393  11.796  11.026 -0.3977  0.6741 -0.4362
57468SOL    HW281373   8.306  11.720  10.928  0.6702 -1.0664 -0.0693
57469SOL     OW81374   5.672  10.800   7.289 -0.1754  0.3888 -0.4763
57469SOL    HW181375   5.660  10.849   7.370  0.1322  1.2013 -0.9112
57469SOL    HW281376   5.762  10.819   7.262 -0.1998 -0.0565 -0.8844
57470SOL     OW81377   8.841   9.756   1.016 -0.0666  0.4362 -0.8680
57470SOL    HW181378   8.892   9.778   1.094 -2.2369  0.4582  0.6305
57470SOL    HW281379   8.802   9.671   1.035 -0.3744  0.2782 -2.0925
57471SOL     OW81380   5.666   3.647   8.679 -0.3353 -0.2848  0.3774
57471SOL    HW181381   5.707   3.648   8.592  0.6772  3.1340  0.7698
57471SOL    HW281382   5.735   3.618   8.738  0.0790  0.7846  0.4364
57472SOL     OW81383   9.052   6.298   2.721  0.4860 -0.0282  0.2009
57472SOL    HW181384   8.976   6.354   2.711  0.7900  1.1079  3.3168
57472SOL    HW281385   9.025   6.231   2.783  2.0700  0.6216  1.6687
57473SOL     OW81386   1.451   5.842  10.298  0.5027  0.1162  0.2612
57473SOL    HW181387   1.449   5.938  10.305  2.6075  0.2437 -0.2468
57473SOL    HW281388   1.453   5.825  10.203  0.1078 -0.4519  0.3485
57474SOL     OW81389   6.208   2.500   6.756 -0.2212 -0.2696 -0.1846
57474SOL    HW181390   6.181   2.413   6.726 -2.6269  0.4436 -0.2738
57474SOL    HW281391   6.166   2.510   6.842  0.9680  0.3802  0.3413
57475SOL     OW81392   0.295   3.645   8.582  0.0730  0.0450  0.7461
57475SOL    HW181393   0.379   3.622   8.543 -0.0787 -0.8339  0.9152
57475SOL    HW281394   0.255   3.705   8.520  0.7737  0.3830  0.6105
57476SOL     OW81395  11.630   9.945  10.454 -0.3557 -0.1410  0.0089
57476SOL    HW181396  11.668   9.889  10.386 -0.7552 -0.2801 -0.1035
57476SOL    HW281397  11.656  10.034  10.429 -0.8922 -0.1391 -0.6001
57477SOL     OW81398   9.764   3.049   9.045 -0.3175 -0.3168  0.0813
57477SOL    HW181399   9.754   2.997   8.966 -1.5050  0.6294 -0.4109
57477SOL    HW281400   9.773   2.985   9.115  2.0504 -1.1925 -0.9218
57478SOL     OW81401   2.773   7.158   0.795 -0.0338  0.6378  1.0616
57478SOL    HW181402   2.717   7.175   0.871 -0.7827 -0.1359  0.6954
57478SOL    HW281403   2.716   7.171   0.720  0.8633  2.0115  0.5819
57479SOL     OW81404   9.839   4.872   9.513 -0.0887 -0.4317  0.8785
57479SOL    HW181405   9.865   4.800   9.456 -1.5237  1.5958 -2.6427
57479SOL    HW281406   9.920   4.922   9.527  0.0817 -0.3310 -0.3972
57480SOL     OW81407   2.970  10.831  12.525  0.5271 -0.3680  0.2970
57480SOL    HW181408   2.910  10.798  12.592 -1.8683  2.0808 -0.4599
57480SOL    HW281409   2.949  10.779  12.447  1.7943 -1.7356  0.8145
57481SOL     OW81410   6.265   4.172   3.274 -0.1654 -0.2621  0.1133
57481SOL    HW181411   6.213   4.240   3.231 -0.8562 -0.6797  0.2728
57481SOL    HW281412   6.219   4.090   3.254  0.1111 -0.5795  0.7372
57482SOL     OW81413   4.921   7.161   0.348 -0.5603 -0.7328  0.2133
57482SOL    HW181414   4.926   7.251   0.380 -0.8943 -0.4022 -0.6433
57482SOL    HW281415   5.012   7.131   0.347 -0.2752  0.1156 -0.9337
57483SOL     OW81416   3.980  11.504   5.019  0.3283 -0.3880 -0.3343
57483SOL    HW181417   3.954  11.568   5.086 -0.4114  1.0866 -1.9491
57483SOL    HW281418   3.898  11.476   4.980  0.8111 -0.3599 -1.3913
57484SOL     OW81419   3.393   0.432  11.876 -0.2809  0.5862  0.3036
57484SOL    HW181420   3.419   0.517  11.910  0.4039 -0.0314  1.3741
57484SOL    HW281421   3.464   0.407  11.817 -0.8207  1.0546 -0.5644
57485SOL     OW81422   1.841   0.596   9.875 -1.0463 -0.2999 -0.1754
57485SOL    HW181423   1.806   0.582   9.788  0.6563  1.0414 -1.1307
57485SOL    HW281424   1.810   0.683   9.901  0.5302  0.4385 -0.5880
57486SOL     OW81425  11.241   2.689   8.582 -0.1888 -0.3364 -0.4064
57486SOL    HW181426  11.250   2.659   8.491 -1.3735 -2.0026 -0.0195
57486SOL    HW281427  11.146   2.699   8.594 -0.0636 -0.3928  0.7110
57487SOL     OW81428   7.868  10.743   2.329 -0.2703 -0.8648  0.6297
57487SOL    HW181429   7.881  10.827   2.285 -0.1037 -0.2401  1.8603
57487SOL    HW281430   7.948  10.693   2.309  0.5737  0.0483  1.6255
57488SOL     OW81431   8.560  10.234   4.912  0.0329  0.1600  0.0728
57488SOL    HW181432   8.584  10.298   4.845  0.2021 -1.5258 -1.5952
57488SOL    HW281433   8.631  10.169   4.909 -0.9470 -0.9747  0.4607
57489SOL     OW81434   4.904   7.389   6.356  0.1298  0.0997  0.2791
57489SOL    HW181435   4.833   7.399   6.419 -0.2000 -3.3197  0.6292
57489SOL    HW281436   4.866   7.415   6.272 -2.1009 -2.9347  0.2193
57490SOL     OW81437   3.113   7.984   1.263  0.2629  0.2679 -0.5097
57490SOL    HW181438   3.154   7.952   1.183  0.8936 -1.6252  0.4818
57490SOL    HW281439   3.025   7.947   1.261  0.3794 -0.0370 -0.2167
57491SOL     OW81440   6.754   4.525   3.139  0.0097  0.0003  0.0280
57491SOL    HW181441   6.800   4.607   3.155  0.4280 -0.3911  0.9097
57491SOL    HW281442   6.818   4.469   3.095 -0.3147  0.1815 -0.6875
57492SOL     OW81443   0.134   9.805  11.196  0.7286  0.1890  0.5827
57492SOL    HW181444   0.109   9.881  11.145  3.2026  1.0657  0.5516
57492SOL    HW281445   0.145   9.838  11.285 -2.8886 -1.1932  1.7269
57493SOL     OW81446   5.573   1.155   1.144  0.4843 -0.2611 -0.0226
57493SOL    HW181447   5.602   1.245   1.164 -0.6969  0.5404 -1.6821
57493SOL    HW281448   5.479   1.156   1.161  0.6583 -1.5718  1.1227
57494SOL     OW81449   4.803  10.345   9.495 -0.5657 -0.0524 -1.0765
57494SOL    HW181450   4.794  10.254   9.467 -0.6925 -0.6373  0.7474
57494SOL    HW281451   4.766  10.347   9.583  0.6364  1.4899 -0.5645
57495SOL     OW81452   8.798   4.736   6.720 -0.2225 -0.0359  0.3219
57495SOL    HW181453   8.762   4.708   6.636 -1.5629  1.7730  0.2419
57495SOL    HW281454   8.735   4.705   6.785  1.0516 -1.8567  0.7719
57496SOL     OW81455  12.281   1.616   2.227 -0.5852  0.3543 -0.3878
57496SOL    HW181456  12.358   1.671   2.235 -0.1964 -0.1457 -0.6153
57496SOL    HW281457  12.213   1.662   2.277  0.5695 -0.5550  2.2075
57497SOL     OW81458   4.117  12.117  10.300 -0.2669 -0.0959  0.4062
57497SOL    HW181459   4.121  12.022  10.299 -1.4217 -0.1537  0.3221
57497SOL    HW281460   4.028  12.138  10.273 -0.6602  0.9556  2.3537
57498SOL     OW81461   2.361  12.082   1.179  0.2154 -0.5575 -0.4096
57498SOL    HW181462   2.417  12.005   1.192  0.9662  0.1342  0.6526
57498SOL    HW281463   2.419  12.147   1.137 -0.6708 -0.8662 -2.2011
57499SOL     OW81464   1.672   3.452   9.038  0.2292  0.9499  0.0546
57499SOL    HW181465   1.679   3.497   9.123  0.2808  1.6420 -0.3079
57499SOL    HW281466   1.578   3.455   9.018  0.1998  0.6681  0.1490
57500SOL     OW81467   2.459   6.120  10.126 -0.3509 -0.4106 -0.2100
57500SOL    HW181468   2.490   6.157  10.209  0.2221 -0.5300 -0.3627
57500SOL    HW281469   2.536   6.124  10.069 -0.6361 -0.6888 -0.6129
57501SOL     OW81470   1.462  10.916   2.158 -0.2071 -0.0318  0.5958
57501SOL    HW181471   1.453  10.856   2.232  0.7156 -0.7143  0.1651
57501SOL    HW281472   1.511  10.867   2.092 -3.0700 -0.3551 -1.4987
57502SOL     OW81473   3.389   0.777   9.518 -0.4227  0.0635 -0.0849
57502SOL    HW181474   3.339   0.745   9.593 -0.4919 -0.1469 -0.2191
57502SOL    HW281475   3.411   0.698   9.469 -0.0765  0.1696 -0.0987
57503SOL     OW81476   1.822   8.734   1.601 -0.5684 -0.1483 -0.2635
57503SOL    HW181477   1.894   8.791   1.629 -1.9121  2.4081 -1.5619
57503SOL    HW281478   1.793   8.690   1.681  1.0578  0.3991  0.6728
57504SOL     OW81479   8.070  11.960  11.901  0.1586  0.2081  0.2139
57504SOL    HW181480   7.986  11.927  11.933  0.2276  0.3879  0.5798
57504SOL    HW281481   8.050  11.991  11.812  0.1245 -0.9354 -0.1888
57505SOL     OW81482   6.936   2.307   4.900 -0.0103 -0.3118  0.0139
57505SOL    HW181483   6.854   2.265   4.926 -1.3834  1.7699 -0.7732
57505SOL    HW281484   6.997   2.287   4.972 -1.4276 -1.1552  1.0302
57506SOL     OW81485  11.103   6.304   6.214 -0.1939  0.0546  0.0943
57506SOL    HW181486  11.108   6.338   6.303  2.0819  0.4229 -0.1057
57506SOL    HW281487  11.140   6.216   6.219 -0.2569 -0.0107 -0.4438
57507SOL     OW81488   7.181   6.574   3.440  0.1546 -0.0412  0.3577
57507SOL    HW181489   7.141   6.542   3.359  2.2648  0.9009 -1.1620
57507SOL    HW281490   7.272   6.590   3.416  0.9729 -0.1996  3.0957
57508SOL     OW81491   8.250   5.958   4.308  0.3082 -0.3822  0.5960
57508SOL    HW181492   8.181   5.892   4.314 -1.2728  1.2451  1.2176
57508SOL    HW281493   8.286   5.946   4.220 -1.8041 -0.3165 -0.3365
57509SOL     OW81494   3.692   9.736   0.565 -0.0183 -0.3922  0.0451
57509SOL    HW181495   3.703   9.708   0.474  0.0520  3.4544 -1.3208
57509SOL    HW281496   3.602   9.771   0.568  0.4299  0.7538  1.0089
57510SOL     OW81497   7.192   8.901   8.703  0.2139 -0.3567 -0.0337
57510SOL    HW181498   7.213   8.931   8.792  0.3176  1.6349 -0.6871
57510SOL    HW281499   7.108   8.856   8.713  0.5084 -0.6830  1.1557
57511SOL     OW81500   0.349   9.676  11.686 -1.0555  0.3443 -0.3955
57511SOL    HW181501   0.400   9.755  11.667 -0.7222  0.4709  0.9150
57511SOL    HW281502   0.370   9.656  11.777  0.8077 -2.7149 -1.3783
57512SOL     OW81503  11.366   5.189   4.915  0.8365  0.2576  0.2353
57512SOL    HW181504  11.457   5.176   4.889  1.6849  2.3807  1.7854
57512SOL    HW281505  11.328   5.240   4.844  1.7602  1.8853  0.8381
57513SOL     OW81506   6.349   0.653   7.900 -0.0313  0.8057 -0.1157
57513SOL    HW181507   6.405   0.718   7.857  1.3948  0.7038  1.4896
57513SOL    HW281508   6.403   0.574   7.904 -1.4177 -0.2722 -1.2192
57514SOL     OW81509   4.344   8.205   6.282 -0.0694 -0.6189  0.4624
57514SOL    HW181510   4.249   8.200   6.281 -0.0771 -0.4947  0.6517
57514SOL    HW281511   4.371   8.152   6.207 -0.3928  1.8355 -1.5044
57515SOL     OW81512  11.869   7.910   9.066 -0.3130  0.2198  1.0923
57515SOL    HW181513  11.801   7.977   9.050 -0.6102 -0.4434 -0.7056
57515SOL    HW281514  11.937   7.929   9.001 -0.3223 -1.0953  0.6684
57516SOL     OW81515   4.522   8.629   4.697  0.4949 -0.3099  0.4841
57516SOL    HW181516   4.437   8.620   4.740 -0.2072  0.5070 -0.6722
57516SOL    HW281517   4.510   8.590   4.611  1.7768 -1.6122  0.8410
57517SOL     OW81518  10.358   7.973   4.054 -0.0551 -0.2570 -0.2633
57517SOL    HW181519  10.276   7.931   4.082 -0.4724  0.0146 -1.0409
57517SOL    HW281520  10.349   8.064   4.082 -0.8547  0.2318 -1.9652
57518SOL     OW81521   0.416   0.765   6.064 -0.2539  0.4020 -0.2740
57518SOL    HW181522   0.423   0.723   5.978  0.2106  0.7628 -0.4199
57518SOL    HW281523   0.507   0.775   6.093 -0.4086  0.3288  0.2343
57519SOL     OW81524   3.963   3.781   2.337  0.7692  0.1842 -0.1450
57519SOL    HW181525   4.038   3.841   2.332  0.8072  0.3311  1.4589
57519SOL    HW281526   3.977   3.733   2.419  0.1486 -1.2365 -0.8441
57520SOL     OW81527   7.233  12.245   7.673  0.6179  0.4088 -0.3468
57520SOL    HW181528   7.154  12.295   7.658  0.3128  0.0504  0.0396
57520SOL    HW281529   7.248  12.250   7.768  0.6456 -0.1258 -0.3168
57521SOL     OW81530   3.674   6.219   0.919 -0.2095 -0.7201  0.0897
57521SOL    HW181531   3.719   6.246   0.999  2.9081 -1.0336 -1.3945
57521SOL    HW281532   3.713   6.135   0.897 -0.4600 -0.3156 -2.1039
57522SOL     OW81533  10.634  10.816   4.811  0.4568  0.0263 -0.0697
57522SOL    HW181534  10.663  10.892   4.761  0.4964  1.1582  1.5742
57522SOL    HW281535  10.678  10.741   4.770  0.1214  0.8102 -1.9527
57523SOL     OW81536   8.888  12.215   7.408  0.0585  0.4700 -0.0475
57523SOL    HW181537   8.884  12.264   7.326  0.7972 -0.0886 -0.4365
57523SOL    HW281538   8.824  12.258   7.465  1.5223  2.6847  0.0685
57524SOL     OW81539   9.799   8.203   4.836 -0.0772 -0.0866 -0.2028
57524SOL    HW181540   9.732   8.241   4.892 -0.5464 -0.8182 -0.2616
57524SOL    HW281541   9.751   8.168   4.761  0.3715 -0.5826 -0.2652
57525SOL     OW81542   8.013   9.982   5.369  0.1354  0.4018 -0.7158
57525SOL    HW181543   8.014  10.066   5.322 -0.0459 -0.3703 -2.1765
57525SOL    HW281544   8.104   9.951   5.365  0.5353  1.1988  1.1681
57526SOL     OW81545   6.096   3.551   0.460 -0.6327  0.4313  0.0139
57526SOL    HW181546   6.170   3.503   0.496 -0.3917  0.2887 -0.6668
57526SOL    HW281547   6.019   3.509   0.499 -0.5131 -1.5317 -1.7175
57527SOL     OW81548  10.947   8.288   2.766  0.2474  0.3185  0.1807
57527SOL    HW181549  11.016   8.227   2.791  0.8797  0.4349 -1.1603
57527SOL    HW281550  10.979   8.373   2.795  1.2242  0.5282 -1.3954
57528SOL     OW81551   6.384  12.439   7.780 -0.1169 -0.4110 -0.0669
57528SOL    HW181552   6.384  12.438   7.684  0.1316 -0.1583 -0.0741
57528SOL    HW281553   6.346  12.356   7.806 -1.2843  0.0135 -0.3827
57529SOL     OW81554  12.533  11.019   7.666 -0.1961  0.2641  0.2822
57529SOL    HW181555  12.625  11.010   7.690  0.0299  1.7008  0.0599
57529SOL    HW281556  12.491  10.941   7.702  1.3506 -1.2155 -0.9451
57530SOL     OW81557   2.568  12.191   4.646 -0.1469  1.0123  0.1892
57530SOL    HW181558   2.662  12.186   4.664 -0.0003  0.1872 -0.6850
57530SOL    HW281559   2.544  12.101   4.623 -0.4902  1.7236 -2.6046
57531SOL     OW81560   6.823   6.637   0.947  0.0320 -0.0253  0.6654
57531SOL    HW181561   6.867   6.564   0.902 -1.6259 -1.7918  1.7523
57531SOL    HW281562   6.757   6.667   0.885  1.4078  1.3483 -0.2088
57532SOL     OW81563  12.213   4.822   1.145 -0.5343  0.5835  0.5628
57532SOL    HW181564  12.143   4.873   1.106 -1.0736 -0.4899  0.0968
57532SOL    HW281565  12.171   4.743   1.178  0.5893 -0.6455 -0.7832
57533SOL     OW81566  11.698  11.919  10.400  0.2471 -0.6276  0.0242
57533SOL    HW181567  11.757  11.903  10.326 -0.1907  0.6453 -0.6180
57533SOL    HW281568  11.631  11.978  10.366 -0.1891 -0.3194  1.3398
57534SOL     OW81569   3.577   3.614  11.796 -0.3325 -0.1972  0.6522
57534SOL    HW181570   3.525   3.535  11.809 -0.0081 -0.1093  3.0632
57534SOL    HW281571   3.599   3.642  11.885  1.0076  1.6446 -0.2017
57535SOL     OW81572   0.019   2.620   3.083 -0.1200 -0.3036 -0.0170
57535SOL    HW181573   0.086   2.681   3.054  0.8917  0.1922  2.9927
57535SOL    HW281574  -0.024   2.664   3.156 -2.1078 -1.6027 -0.3148
57536SOL     OW81575  12.544   8.053   0.321  0.3825 -0.1057  0.1693
57536SOL    HW181576  12.514   8.105   0.395  0.7568 -0.2247  0.4035
57536SOL    HW281577  12.480   8.071   0.252 -0.7903 -1.0934  0.9556
57537SOL     OW81578   2.639   0.500   7.494  0.0210 -0.5196 -0.5263
57537SOL    HW181579   2.613   0.571   7.435 -0.6331  0.3463  0.7437
57537SOL    HW281580   2.694   0.543   7.560 -0.7733 -1.0794  0.5293
57538SOL     OW81581   3.107  11.295   1.949  1.0169 -0.4187  0.2078
57538SOL    HW181582   3.142  11.274   2.036  1.4584  1.5208  0.5420
57538SOL    HW281583   3.022  11.335   1.967  1.1836  0.1398 -0.2563
57539SOL     OW81584   2.997   8.584   2.159  0.2581 -0.1902  0.9409
57539SOL    HW181585   3.020   8.493   2.175  2.1949 -0.0847 -0.7754
57539SOL    HW281586   3.030   8.632   2.235  0.7783 -0.7203  1.0495
57540SOL     OW81587   1.159   7.000   2.148 -0.5976 -0.0620 -0.7630
57540SOL    HW181588   1.191   7.090   2.143 -0.0130 -0.2571 -0.5778
57540SOL    HW281589   1.189   6.968   2.233 -0.1322 -0.6814 -1.1472
57541SOL     OW81590  10.321   1.579   8.283 -0.3047  0.1036 -0.1478
57541SOL    HW181591  10.278   1.619   8.359 -0.7828  0.0722 -0.3931
57541SOL    HW281592  10.313   1.645   8.214 -0.7749 -0.2664 -0.4535
57542SOL     OW81593   8.080   8.430  11.074  0.4460 -0.4080 -0.1974
57542SOL    HW181594   8.149   8.392  11.128 -0.5214  1.4732  2.5496
57542SOL    HW281595   8.008   8.367  11.079  0.3102 -0.1796  0.8753
57543SOL     OW81596   6.635   7.953  12.536  0.0564  0.4554 -0.0029
57543SOL    HW181597   6.624   7.935  12.443  2.4146 -0.4232 -0.1833
57543SOL    HW281598   6.614   8.046  12.545  0.8346  0.8385 -1.6445
57544SOL     OW81599   6.738  11.139   0.432  0.5694  0.1749  0.0382
57544SOL    HW181600   6.657  11.096   0.459  0.2284  1.0533  0.4733
57544SOL    HW281601   6.753  11.108   0.343 -0.9343  0.9303 -0.5179
57545SOL     OW81602   5.963   4.258   6.525  0.0202  0.1907 -0.0392
57545SOL    HW181603   5.981   4.165   6.514 -0.7335  0.2425 -2.3513
57545SOL    HW281604   6.041   4.301   6.489  0.8865  0.5304  2.0721
57546SOL     OW81605  10.821   5.870  10.121 -0.4073 -0.0617 -0.6789
57546SOL    HW181606  10.732   5.874  10.085 -0.2246  1.8640 -0.9954
57546SOL    HW281607  10.852   5.960  10.119  0.5168 -0.2349  2.1532
57547SOL     OW81608   8.910   1.221   6.550  0.1295 -0.1686  0.1795
57547SOL    HW181609   8.870   1.227   6.637 -1.4548 -1.6899 -0.3846
57547SOL    HW281610   8.936   1.129   6.543  0.8674  0.0965 -0.7184
57548SOL     OW81611   7.806   9.614   2.918 -0.5695 -0.1041 -0.0067
57548SOL    HW181612   7.742   9.567   2.972  1.1730  0.1750  2.4729
57548SOL    HW281613   7.853   9.545   2.872  0.4607 -0.7113  1.8623
57549SOL     OW81614  11.107   9.586   4.935  0.8168  0.3133 -0.1991
57549SOL    HW181615  11.178   9.643   4.966 -0.8873  1.5083  1.7844
57549SOL    HW281616  11.148   9.501   4.923  2.4200  0.7044  1.8902
57550SOL     OW81617   5.740   6.411  12.591 -0.5796 -0.3252  0.2700
57550SOL    HW181618   5.721   6.356  12.667 -0.0508 -0.4410  0.3240
57550SOL    HW281619   5.799   6.479  12.624 -1.7842  0.7072  0.3603
57551SOL     OW81620   9.705   0.371   3.083  0.1951  0.3551  0.0071
57551SOL    HW181621   9.797   0.374   3.054  0.1307  1.4046 -0.1248
57551SOL    HW281622   9.657   0.345   3.004  0.4421 -0.9657  0.2692
57552SOL     OW81623   7.594  12.114   0.326  0.0567  0.2600  0.2266
57552SOL    HW181624   7.645  12.076   0.255 -0.0617  0.2828  0.1308
57552SOL    HW281625   7.653  12.110   0.402  0.1799  0.2328  0.1295
57553SOL     OW81626   6.819  11.712   2.866  0.2790  0.1981 -0.2134
57553SOL    HW181627   6.798  11.657   2.791  1.4090  0.4561 -0.7429
57553SOL    HW281628   6.734  11.740   2.900 -0.2535  0.6774 -1.8436
57554SOL     OW81629   8.128  11.394  12.038  0.4191  0.2846  0.1274
57554SOL    HW181630   8.161  11.459  12.100  2.0504  0.7943 -1.2077
57554SOL    HW281631   8.100  11.321  12.093  1.4824  0.8464  1.4825
57555SOL     OW81632   4.343   6.815   4.664  0.0435 -0.1420 -0.0825
57555SOL    HW181633   4.401   6.885   4.693 -0.2592 -0.0911  0.4040
57555SOL    HW281634   4.397   6.737   4.666  0.4349  0.1025 -0.8040
57556SOL     OW81635   1.327   1.161   2.929  0.2326  0.6499 -0.2045
57556SOL    HW181636   1.406   1.167   2.876  0.8213  1.2292  0.7223
57556SOL    HW281637   1.286   1.247   2.922 -0.8407  0.0881 -1.4247
57557SOL     OW81638  10.738  12.002   0.811 -0.2217 -0.3725  0.2984
57557SOL    HW181639  10.818  12.051   0.831  0.5647 -0.9289 -1.3088
57557SOL    HW281640  10.709  12.036   0.727 -1.4731 -0.4777  0.6596
57558SOL     OW81641   8.146   7.909  10.570 -0.3260  0.2019 -0.4336
57558SOL    HW181642   8.193   7.834  10.606 -0.2432 -0.6067 -2.1406
57558SOL    HW281643   8.054   7.880  10.566 -0.6197  0.9273  0.7307
57559SOL     OW81644   2.036  10.935   1.384  0.0561  0.9235  0.0938
57559SOL    HW181645   2.086  11.007   1.346  0.7509  0.4441  0.0667
57559SOL    HW281646   2.014  10.879   1.310  1.3973 -0.0007  0.3539
57560SOL     OW81647  10.229   0.067   8.753  0.5145 -0.0044 -0.0053
57560SOL    HW181648  10.235   0.038   8.844  0.2383 -0.8371 -0.2373
57560SOL    HW281649  10.229  -0.014   8.702  0.3225  0.4356 -0.7272
57561SOL     OW81650  11.241  12.463   3.134  0.5020 -0.1284 -0.2719
57561SOL    HW181651  11.160  12.454   3.184  0.4851 -1.8819 -0.5430
57561SOL    HW281652  11.212  12.481   3.045  0.3559 -1.3414 -0.4889
57562SOL     OW81653   0.064   8.953   6.175  0.1444  0.6448 -0.0944
57562SOL    HW181654  -0.022   8.919   6.148 -0.1987  1.8286 -0.5803
57562SOL    HW281655   0.111   8.877   6.208 -1.3907  0.1001  0.9709
57563SOL     OW81656   7.446  10.429   6.977 -0.1040  0.4170  0.1070
57563SOL    HW181657   7.508  10.430   6.905  0.3414  1.5498  0.4859
57563SOL    HW281658   7.460  10.512   7.023 -1.4655  0.4285  0.5658
57564SOL     OW81659   7.849   1.460   8.226 -0.5273  0.3695  0.4827
57564SOL    HW181660   7.904   1.382   8.223  1.3618  1.6703 -1.1337
57564SOL    HW281661   7.769   1.434   8.181  0.8480 -0.1463 -1.8228
57565SOL     OW81662   9.663  10.760  10.749 -0.2248 -0.5928 -0.2221
57565SOL    HW181663   9.631  10.727  10.665  0.5866 -0.8366 -0.4367
57565SOL    HW281664   9.677  10.854  10.733 -2.7131 -0.0280  0.4422
57566SOL     OW81665   2.018   6.083   4.413  0.0093 -0.3288  0.1058
57566SOL    HW181666   2.058   6.055   4.496 -2.2728 -0.4901  1.2307
57566SOL    HW281667   1.998   6.175   4.426  1.2143  0.1268 -0.9905
57567SOL     OW81668   7.923   8.658   4.346 -0.4451 -0.0417 -0.5310
57567SOL    HW181669   7.855   8.717   4.378 -0.4878 -1.1576  1.6024
57567SOL    HW281670   7.877   8.602   4.283 -0.6196  1.4938 -1.8321
57568SOL     OW81671   8.894  10.612   9.910 -0.3407  0.2816  0.4573
57568SOL    HW181672   8.901  10.664   9.990 -1.8826 -0.3093  1.0308
57568SOL    HW281673   8.846  10.668   9.850  0.2616  0.4852  0.1639
57569SOL     OW81674   7.441  11.634   7.018 -0.2890  0.5797 -0.1138
57569SOL    HW181675   7.456  11.700   6.950 -1.3959  0.8396 -0.1327
57569SOL    HW281676   7.354  11.598   6.997  0.8623 -1.9506 -0.9717
57570SOL     OW81677   5.914   8.560   8.847  0.4359 -0.3841 -0.2639
57570SOL    HW181678   5.887   8.629   8.908  2.7476  0.3177  0.0752
57570SOL    HW281679   5.948   8.608   8.771  1.5221 -1.1338 -0.2749
57571SOL     OW81680   7.899   4.587  12.133 -0.4696 -0.2649  0.5372
57571SOL    HW181681   7.920   4.517  12.071  0.1245 -0.1351  0.5857
57571SOL    HW281682   7.928   4.553  12.218  1.4880  0.7354  0.3108
57572SOL     OW81683   9.757   2.093   3.750  0.3467 -0.5410 -0.7106
57572SOL    HW181684   9.846   2.106   3.716  0.2757 -0.0988 -0.7328
57572SOL    HW281685   9.756   2.003   3.781  1.7386  0.3219  2.1043
57573SOL     OW81686   2.653   5.722   5.017  0.7752 -0.5132 -0.0875
57573SOL    HW181687   2.648   5.675   4.934 -0.7816 -0.7517  0.1132
57573SOL    HW281688   2.605   5.666   5.079 -0.9784  1.2007  0.2038
57574SOL     OW81689  10.786   1.731   5.337  0.4852 -0.2325  0.2230
57574SOL    HW181690  10.841   1.767   5.267  0.5980 -0.8659 -0.0238
57574SOL    HW281691  10.718   1.681   5.292  0.0070  0.1187  0.5443
57575SOL     OW81692   9.591   1.482  11.551  0.2227 -0.4226  0.8599
57575SOL    HW181693   9.529   1.553  11.564  0.0436 -0.1974 -0.9990
57575SOL    HW281694   9.540   1.403  11.567  0.2488 -0.1771  2.2649
57576SOL     OW81695   4.345   7.447   3.034  0.3041 -0.2804 -0.2450
57576SOL    HW181696   4.406   7.495   2.977 -0.3829 -0.0422 -0.7932
57576SOL    HW281697   4.258   7.472   3.003 -0.1019  0.1954  1.1923
57577SOL     OW81698   5.439   5.344   5.682 -0.0397  0.1643 -0.5521
57577SOL    HW181699   5.349   5.321   5.702 -0.1497  0.6287 -0.4896
57577SOL    HW281700   5.476   5.373   5.766  0.0807  0.2504 -0.6341
57578SOL     OW81701   1.338  11.033   1.078 -0.1381 -0.1433  0.3317
57578SOL    HW181702   1.276  11.017   1.006  0.1056 -1.8622  0.4754
57578SOL    HW281703   1.283  11.068   1.148 -0.5951  0.3048 -0.2294
57579SOL     OW81704   9.817  11.579   6.266 -0.0588  0.4632  0.1568
57579SOL    HW181705   9.798  11.542   6.352  1.4368  0.8418  0.6746
57579SOL    HW281706   9.769  11.662   6.264  0.7687  0.9805  1.0832
57580SOL     OW81707   6.417   4.469  11.004 -0.6194  0.8284  0.3564
57580SOL    HW181708   6.389   4.523  11.078 -0.4649  0.5669  0.6076
57580SOL    HW281709   6.507   4.446  11.024 -0.8879 -0.0580  0.5638
57581SOL     OW81710   6.246  11.227   9.389 -0.3238 -0.7237  0.5646
57581SOL    HW181711   6.200  11.144   9.377 -0.3561 -0.5610 -0.5652
57581SOL    HW281712   6.177  11.293   9.389 -0.0977 -0.3420 -2.5039
57582SOL     OW81713   7.475   4.858   1.301  0.6912  0.3180 -0.2537
57582SOL    HW181714   7.445   4.841   1.390  0.3046 -0.9265 -0.6048
57582SOL    HW281715   7.428   4.795   1.247  2.4681 -0.3829 -1.0675
57583SOL     OW81716   5.321  11.006   2.426 -0.1135 -0.7390  0.5397
57583SOL    HW181717   5.265  11.083   2.435  0.6460 -0.2463  1.1114
57583SOL    HW281718   5.366  11.019   2.342 -0.0397 -0.5997  0.6015
57584SOL     OW81719   3.375   7.507   9.575  0.3181 -0.3433  0.0260
57584SOL    HW181720   3.322   7.539   9.502 -3.0152  0.4586  2.5701
57584SOL    HW281721   3.399   7.586   9.624  2.1955 -0.8901  0.0645
57585SOL     OW81722   7.484   1.065   1.713 -0.2539 -0.6524 -0.7616
57585SOL    HW181723   7.491   1.155   1.745 -0.2575 -0.6257 -0.8360
57585SOL    HW281724   7.461   1.014   1.791 -0.2327 -0.5919 -0.7155
57586SOL     OW81725   4.493   0.338   9.110 -0.2051 -0.3888  0.0184
57586SOL    HW181726   4.530   0.299   9.030  0.1408  1.4770 -0.7944
57586SOL    HW281727   4.430   0.274   9.141 -0.5588 -1.0569 -1.9365
57587SOL     OW81728   2.702   2.400   6.654 -0.1832 -0.5464  0.0073
57587SOL    HW181729   2.637   2.455   6.609 -1.8399 -1.6142  0.9957
57587SOL    HW281730   2.718   2.328   6.592  1.8979  0.8785 -1.2363
57588SOL     OW81731   2.061   1.370  11.536  0.1276  0.1441  0.0288
57588SOL    HW181732   2.040   1.278  11.548 -0.3329  0.3536  0.9492
57588SOL    HW281733   1.985   1.417  11.570  0.3813  0.8657 -0.3684
57589SOL     OW81734   6.080  11.454   0.727 -0.2832 -0.3317  0.0853
57589SOL    HW181735   6.101  11.532   0.778  1.2979  1.1721 -2.6283
57589SOL    HW281736   6.136  11.385   0.764  1.0066  0.7583  0.2524
57590SOL     OW81737   4.405   4.997   1.539 -0.4910 -0.3015 -0.7049
57590SOL    HW181738   4.388   4.905   1.519 -0.4784 -0.7048  1.0426
57590SOL    HW281739   4.499   5.008   1.521 -0.3415 -0.8077 -0.2427
57591SOL     OW81740   3.239  10.930   2.123  0.0850  0.2723  0.4807
57591SOL    HW181741   3.243  10.835   2.131 -0.4575  0.3078  1.2073
57591SOL    HW281742   3.287  10.963   2.199  2.6163  0.5975 -1.1240
57592SOL     OW81743   1.482  11.715   4.328 -0.4720  0.0757 -0.3070
57592SOL    HW181744   1.497  11.649   4.261 -1.4205 -0.5174  0.0429
57592SOL    HW281745   1.524  11.680   4.406  2.6592  1.7842 -1.0197
57593SOL     OW81746   7.592  10.981  10.194  0.2285 -0.2080  0.4952
57593SOL    HW181747   7.666  10.920  10.197  0.6458  0.3325  1.4361
57593SOL    HW281748   7.528  10.938  10.136 -0.7650 -3.0090  3.3295
57594SOL     OW81749   8.893   5.114   4.714  0.5281  0.3951 -0.0469
57594SOL    HW181750   8.816   5.168   4.698  0.1975  0.2447  0.9758
57594SOL    HW281751   8.939   5.112   4.629  0.5174  2.2020 -0.1450
57595SOL     OW81752   2.639   7.746   1.060 -0.3288 -0.1378 -0.2706
57595SOL    HW181753   2.635   7.831   1.104 -0.2216  0.8845 -2.1334
57595SOL    HW281754   2.582   7.689   1.113 -1.5743  1.4727  0.2160
57596SOL     OW81755   7.261   3.848  10.484  0.2684  0.0167 -0.0427
57596SOL    HW181756   7.221   3.843  10.571 -0.5783  0.6868 -0.3757
57596SOL    HW281757   7.315   3.928  10.486 -0.7497  0.7417 -0.5101
57597SOL     OW81758   0.386   9.905   5.678  0.3379 -0.2063 -0.3920
57597SOL    HW181759   0.433   9.839   5.627  0.4363 -1.3977  1.1871
57597SOL    HW281760   0.387   9.872   5.768 -1.5549  0.8567  0.0721
57598SOL     OW81761   3.698   1.534   4.348  0.0919 -0.4722  0.3074
57598SOL    HW181762   3.753   1.582   4.287  0.3520 -0.3601  0.6230
57598SOL    HW281763   3.738   1.447   4.354  0.6757 -0.1696  1.0850
57599SOL     OW81764   5.608   0.501   3.946  0.1079 -0.1708  0.2953
57599SOL    HW181765   5.620   0.592   3.974 -0.2601 -0.3115  0.9325
57599SOL    HW281766   5.630   0.450   4.023 -0.9228 -0.5720  0.3385
57600SOL     OW81767   8.628   7.449   8.086 -0.1024  0.6698 -0.2845
57600SOL    HW181768   8.587   7.534   8.102  1.6081  1.3900  0.6360
57600SOL    HW281769   8.710   7.454   8.135 -0.6253 -2.0987  1.0356
57601SOL     OW81770   9.980  12.021  11.742 -0.1948  0.3594 -0.3843
57601SOL    HW181771   9.940  12.039  11.657 -0.7891 -0.2599 -0.2474
57601SOL    HW281772   9.970  11.927  11.754  1.4129  0.1541 -0.3769
57602SOL     OW81773   3.737   6.364  11.312  0.5889  0.6062 -0.1218
57602SOL    HW181774   3.778   6.278  11.296  0.9324  0.7602 -0.0817
57602SOL    HW281775   3.667   6.346  11.375  0.1112  0.2185 -0.7493
57603SOL     OW81776   4.924   7.716   1.517 -0.4152  0.3495 -0.2308
57603SOL    HW181777   4.906   7.721   1.423  1.9946  0.1065 -0.7855
57603SOL    HW281778   4.883   7.634   1.545 -1.8090  0.7989 -0.8717
57604SOL     OW81779   7.230   7.647   9.753 -0.6742 -0.0122 -0.2495
57604SOL    HW181780   7.232   7.640   9.848 -0.4547  1.5022 -0.1138
57604SOL    HW281781   7.222   7.741   9.736  0.4558 -0.1463 -1.7338
57605SOL     OW81782   3.314   4.282  10.979  0.0763  0.5972  0.8244
57605SOL    HW181783   3.268   4.351  11.027 -1.4033 -0.5935  1.1928
57605SOL    HW281784   3.272   4.281  10.893 -1.0091 -0.8401  1.3315
57606SOL     OW81785   2.631   0.846  12.022  0.6911 -0.2122 -0.2361
57606SOL    HW181786   2.595   0.849  11.933  0.1758 -0.6967 -0.0506
57606SOL    HW281787   2.624   0.754  12.047  0.1457  0.0518  0.5829
57607SOL     OW81788   3.864   1.953   6.562 -0.3354 -0.4906 -0.5385
57607SOL    HW181789   3.922   1.906   6.502  1.1316  0.6246 -0.0803
57607SOL    HW281790   3.920   1.975   6.637 -1.1301  1.2696 -0.3995
57608SOL     OW81791   5.894   3.425   0.607  0.5446 -0.0828 -0.6227
57608SOL    HW181792   5.817   3.379   0.573 -0.0693  0.2456  0.2882
57608SOL    HW281793   5.927   3.369   0.676 -1.6154  1.8164  2.1684
57609SOL     OW81794   2.315   9.562   7.085  0.4986 -0.3428  0.2251
57609SOL    HW181795   2.222   9.539   7.075  0.5898 -1.0754  0.9854
57609SOL    HW281796   2.321   9.601   7.173  0.7464  0.6299 -0.2017
57610SOL     OW81797   4.775   4.363   7.610  0.7665 -0.4091 -0.3746
57610SOL    HW181798   4.695   4.311   7.603  1.2117 -1.3785  1.2404
57610SOL    HW281799   4.746   4.449   7.640  0.3572 -0.9400  0.8059
57611SOL     OW81800   3.840   4.585   0.095  0.4335  0.1860  0.4071
57611SOL    HW181801   3.879   4.647   0.034 -0.2838  1.5593  1.2637
57611SOL    HW281802   3.792   4.523   0.040  0.3974  0.9601 -0.4561
57612SOL     OW81803  12.277  11.811  10.507  0.0296 -0.2169  0.2062
57612SOL    HW181804  12.192  11.776  10.534  0.5791 -2.1777 -0.4665
57612SOL    HW281805  12.297  11.878  10.572 -2.0951  0.4218  0.2778
57613SOL     OW81806   2.595   0.181   2.252  0.1379  0.0669 -0.2203
57613SOL    HW181807   2.603   0.146   2.163 -1.1409  0.4011 -0.4768
57613SOL    HW281808   2.581   0.275   2.240  0.5447  0.2117  0.3652
57614SOL     OW81809   1.381   7.471   9.605 -0.5633  0.3440 -0.0964
57614SOL    HW181810   1.450   7.530   9.636 -1.5104  1.3821  0.1001
57614SOL    HW281811   1.398   7.461   9.511 -1.0492  1.8831 -0.3763
57615SOL     OW81812  10.456   7.949  11.534  0.4562  0.7756  0.2949
57615SOL    HW181813  10.515   8.021  11.508 -1.5730  2.0109 -1.1872
57615SOL    HW281814  10.385   7.953  11.470 -1.2040 -0.7102  1.9528
57616SOL     OW81815   8.316  11.167   3.609  0.0983  0.0867 -0.2298
57616SOL    HW181816   8.271  11.117   3.678 -0.5558 -0.2634 -0.8888
57616SOL    HW281817   8.306  11.259   3.636  0.7412 -0.0948  0.6570
57617SOL     OW81818   9.966   5.694   6.608 -0.4784  0.1558  0.1652
57617SOL    HW181819   9.926   5.719   6.525 -1.7446  0.9524  0.9710
57617SOL    HW281820   9.894   5.657   6.659  0.0145  0.7310  1.3195
57618SOL     OW81821  10.057   9.612   0.989 -0.1243 -0.3336  0.3806
57618SOL    HW181822   9.974   9.657   1.004  0.1417  0.3134 -0.0483
57618SOL    HW281823  10.045   9.565   0.906  0.7076  1.7000 -0.9747
57619SOL     OW81824   8.784   1.502   1.742  0.0467  0.0189 -0.1865
57619SOL    HW181825   8.783   1.597   1.726  3.7596  0.1468 -0.6542
57619SOL    HW281826   8.733   1.490   1.822 -0.0134  2.4904  0.2238
57620SOL     OW81827   9.697   1.409   4.670 -0.0888 -0.1956  0.5471
57620SOL    HW181828   9.722   1.331   4.621 -0.3349  0.2114 -0.2427
57620SOL    HW281829   9.654   1.465   4.606  2.2664  1.6779  0.4575
57621SOL     OW81830  12.370  11.603  11.279 -0.6079 -0.4817  0.3076
57621SOL    HW181831  12.380  11.529  11.218 -0.5696  0.3308 -0.6980
57621SOL    HW281832  12.309  11.662  11.235  2.4186  2.0528 -0.8958
57622SOL     OW81833   2.227   1.451   0.411 -0.6394 -0.4549 -0.4243
57622SOL    HW181834   2.152   1.392   0.399 -0.3681 -0.8329 -0.2739
57622SOL    HW281835   2.191   1.524   0.463  0.0096 -2.6369  3.4953
57623SOL     OW81836   3.632  11.817   0.175 -0.7120 -0.1100 -0.2692
57623SOL    HW181837   3.726  11.835   0.177 -0.6173 -0.6109  1.2727
57623SOL    HW281838   3.591  11.903   0.171 -0.1929  0.3131  2.0944
57624SOL     OW81839   9.361   9.346  12.344  0.1703  0.1652  0.1023
57624SOL    HW181840   9.376   9.279  12.411 -1.1867 -0.5987 -0.3127
57624SOL    HW281841   9.403   9.310  12.265 -1.1998 -0.5993 -0.3150
57625SOL     OW81842  10.165  11.440   6.424 -0.1910  0.7353 -0.4587
57625SOL    HW181843  10.074  11.470   6.419  0.2153  2.1649  0.1946
57625SOL    HW281844  10.163  11.371   6.491 -0.5598  1.7525  0.6041
57626SOL     OW81845   6.638   3.233   9.880  0.1530 -0.1668  0.1038
57626SOL    HW181846   6.661   3.264   9.793  1.9153 -0.9538  0.2399
57626SOL    HW281847   6.543   3.231   9.881 -0.0386  3.2776 -0.5320
57627SOL     OW81848   8.069  10.218  10.329 -0.0661  0.6710  0.0404
57627SOL    HW181849   8.143  10.239  10.271 -0.3507  0.2154 -0.5025
57627SOL    HW281850   8.108  10.210  10.416  0.6501 -0.2161 -0.3398
57628SOL     OW81851   0.127   5.382  11.140  0.4531 -0.9678  0.2117
57628SOL    HW181852   0.040   5.348  11.120 -0.1407  0.2446  0.6212
57628SOL    HW281853   0.115   5.433  11.220  1.6798 -1.3070  0.6356
57629SOL     OW81854   1.422   4.932  10.821 -0.3599  0.8181  0.2957
57629SOL    HW181855   1.471   5.003  10.862  0.0048  0.3098  0.7512
57629SOL    HW281856   1.377   4.973  10.747  0.5951  1.3186 -0.0099
57630SOL     OW81857   5.625   5.731  10.788  0.2438 -0.3053 -0.1113
57630SOL    HW181858   5.643   5.814  10.743 -3.1393  0.8513  0.3395
57630SOL    HW281859   5.711   5.697  10.811  1.8223  3.3243  0.0914
57631SOL     OW81860   4.998  12.460   3.444 -0.0177  0.3738 -0.5462
57631SOL    HW181861   5.065  12.434   3.507  1.1274  1.6666 -1.1832
57631SOL    HW281862   5.004  12.555   3.440 -0.4176  0.3669 -2.2188
57632SOL     OW81863   0.081  10.687  12.376 -0.2842  0.2531 -0.2934
57632SOL    HW181864  -0.013  10.706  12.382 -0.4355 -0.1189 -1.2382
57632SOL    HW281865   0.087  10.593  12.395 -0.2116  0.0941 -1.0772
57633SOL     OW81866   0.163   2.737   8.032  0.3069 -0.1832  0.2282
57633SOL    HW181867   0.248   2.696   8.019  0.4827 -0.0010  0.7569
57633SOL    HW281868   0.182   2.831   8.038 -0.1807  0.1018 -1.8062
57634SOL     OW81869   0.757   1.985  10.954 -0.0813  0.1082 -0.0773
57634SOL    HW181870   0.699   2.047  10.911  0.2124 -0.5009 -1.4122
57634SOL    HW281871   0.802   1.940  10.882  0.3785 -1.0132  0.8714
57635SOL     OW81872   9.539   6.936   4.128 -0.4492  0.3424 -0.2227
57635SOL    HW181873   9.558   6.990   4.052 -0.6894 -0.8333 -1.1618
57635SOL    HW281874   9.532   6.847   4.093 -2.0726 -0.0393  0.9185
57636SOL     OW81875   5.445   0.485   3.674  0.1374 -0.4759 -0.3547
57636SOL    HW181876   5.499   0.511   3.749  0.3963  0.6420 -0.8991
57636SOL    HW281877   5.371   0.438   3.712 -0.4761  1.2866  0.7641
57637SOL     OW81878   0.929   5.029  12.206 -0.3873  0.0550  0.2382
57637SOL    HW181879   0.919   4.940  12.172  1.4431  0.6864 -2.2096
57637SOL    HW281880   0.885   5.027  12.291 -0.0248 -3.3038  0.4877
57638SOL     OW81881   3.338  12.116  10.454  0.3766  0.6177 -0.3207
57638SOL    HW181882   3.298  12.198  10.483 -1.2840 -0.4153  0.4882
57638SOL    HW281883   3.271  12.076  10.398  0.4791 -0.9009  0.5798
57639SOL     OW81884  11.869   1.207   9.307  0.1133  0.1461 -0.1194
57639SOL    HW181885  11.804   1.143   9.276  0.3482  0.8519 -2.2296
57639SOL    HW281886  11.851   1.216   9.400 -1.9715 -0.6591 -0.3922
57640SOL     OW81887   9.360  11.173  10.163  0.3318  0.4662  0.3670
57640SOL    HW181888   9.430  11.146  10.103  0.4823 -0.3481  0.8934
57640SOL    HW281889   9.327  11.255  10.127 -0.6719 -0.7942 -1.7340
57641SOL     OW81890   5.931   1.160   1.245  0.0384  0.3389 -0.2897
57641SOL    HW181891   6.009   1.135   1.294 -0.2535 -0.4181 -0.1976
57641SOL    HW281892   5.872   1.196   1.312 -0.3909 -0.7671 -0.0612
57642SOL     OW81893   6.933   7.759  11.540 -0.0805 -0.3276  0.5063
57642SOL    HW181894   7.001   7.825  11.525 -0.3416 -0.2507 -0.3417
57642SOL    HW281895   6.902   7.777  11.629 -0.3426  0.8820  0.1897
57643SOL     OW81896  10.168   3.960  12.455 -0.1852  0.2775  0.4709
57643SOL    HW181897  10.186   4.044  12.412 -1.1524  1.2321  1.8596
57643SOL    HW281898  10.213   3.895  12.400  0.2366  1.6436 -0.8669
57644SOL     OW81899  10.619   4.488  11.823 -0.2732 -0.6020 -0.0246
57644SOL    HW181900  10.664   4.469  11.741  1.4694  2.4001  0.0904
57644SOL    HW281901  10.583   4.576  11.811 -1.5019 -0.7966  1.8266
57645SOL     OW81902   9.339   7.239   6.082 -0.6114  0.7747 -0.4680
57645SOL    HW181903   9.271   7.223   6.017  0.3092 -1.5919 -0.9821
57645SOL    HW281904   9.352   7.153   6.123  1.8227  1.2058 -0.1899
57646SOL     OW81905  10.885   5.886   3.224 -0.0240 -0.2137 -0.0195
57646SOL    HW181906  10.971   5.878   3.182  0.6500 -0.5197  1.3571
57646SOL    HW281907  10.897   5.847   3.311 -1.6756 -0.6633  0.0476
57647SOL     OW81908   2.428  11.145   8.853  0.3105 -0.1707 -0.0451
57647SOL    HW181909   2.429  11.161   8.947  0.6209  1.4625 -0.2950
57647SOL    HW281910   2.520  11.135   8.829  0.2483 -0.3531 -0.2092
57648SOL     OW81911   7.667   7.971   8.094 -0.4089  0.3725 -0.3002
57648SOL    HW181912   7.606   7.918   8.042  0.1369  1.4331 -2.1200
57648SOL    HW281913   7.747   7.973   8.041 -0.3481  2.8131 -0.2110
57649SOL     OW81914   8.693   6.418  10.856  0.4443 -0.0201 -0.3525
57649SOL    HW181915   8.662   6.427  10.766  2.2741  0.3853 -0.9956
57649SOL    HW281916   8.661   6.332  10.884 -0.8975  0.2290 -1.0676
57650SOL     OW81917   0.511   3.205   4.312  0.1822  0.1257  0.1387
57650SOL    HW181918   0.449   3.226   4.382  0.3385 -2.0233  1.0333
57650SOL    HW281919   0.578   3.152   4.356  1.1596  0.0716 -1.3486
57651SOL     OW81920   8.448   5.894   1.806 -0.1069 -0.1678  0.1597
57651SOL    HW181921   8.528   5.917   1.852  0.2844  2.4822 -1.6200
57651SOL    HW281922   8.476   5.834   1.736  0.0368 -0.4740  0.4757
57652SOL     OW81923   5.630   2.444   4.035  0.0896 -0.3304 -0.2065
57652SOL    HW181924   5.548   2.399   4.055  0.0353 -0.5000 -0.8051
57652SOL    HW281925   5.652   2.490   4.116  0.4236 -1.8570  0.6284
57653SOL     OW81926   7.787   4.884   4.308 -0.0761  0.3463 -0.2418
57653SOL    HW181927   7.758   4.975   4.297  1.1519  0.6471 -1.2343
57653SOL    HW281928   7.743   4.836   4.238 -0.7423  0.1489  0.2963
57654SOL     OW81929   9.102   8.780   4.785  0.0748 -0.7303  0.2303
57654SOL    HW181930   9.037   8.846   4.763  1.0926  0.2916  0.2085
57654SOL    HW281931   9.055   8.697   4.781 -1.2920  0.0160  0.5460
57655SOL     OW81932   5.790   5.952   2.991 -0.4769 -0.4925  0.1851
57655SOL    HW181933   5.877   5.976   2.959  0.0562 -0.6714  1.4191
57655SOL    HW281934   5.795   5.858   3.008 -0.8302 -0.4607  0.4874
57656SOL     OW81935   8.896   0.871   2.983 -0.0370 -0.6927 -0.2856
57656SOL    HW181936   8.973   0.817   2.965  0.4892  0.0157 -0.2167
57656SOL    HW281937   8.883   0.920   2.901 -1.5804 -2.1835 -0.9837
57657SOL     OW81938   2.979   7.021   4.084 -0.6806  0.2574 -0.4674
57657SOL    HW181939   2.965   7.115   4.075 -0.6714  0.1898 -1.2452
57657SOL    HW281940   3.070   7.012   4.113 -0.0754  0.4308 -2.1878
57658SOL     OW81941   6.209   5.416   1.355 -0.3712  0.6577  0.3509
57658SOL    HW181942   6.145   5.417   1.426 -0.6794 -0.3224  0.0985
57658SOL    HW281943   6.239   5.325   1.350  0.3194  0.9006 -0.1778
57659SOL     OW81944  10.646   4.666   5.230 -0.1935  0.0731 -0.1061
57659SOL    HW181945  10.581   4.658   5.300 -0.2074  1.7069  0.1111
57659SOL    HW281946  10.674   4.758   5.234  1.4302 -0.3512 -0.8174
57660SOL     OW81947   7.574   0.867   1.006 -0.3144  0.2480 -0.7910
57660SOL    HW181948   7.516   0.810   1.057 -0.5303  1.1774  0.0344
57660SOL    HW281949   7.515   0.913   0.946 -0.4923  1.3631  0.2067
57661SOL     OW81950   7.678   0.626   3.859 -0.2931 -0.4122  0.3879
57661SOL    HW181951   7.726   0.558   3.812 -0.8560 -0.3684 -0.2660
57661SOL    HW281952   7.594   0.586   3.882  0.0045 -0.4589  1.4413
57662SOL     OW81953   3.629   6.478   1.196 -0.0461  0.2132 -0.0974
57662SOL    HW181954   3.541   6.442   1.204 -0.4217  0.9296 -0.7750
57662SOL    HW281955   3.616   6.573   1.195  0.8846  0.3946  1.4127
57663SOL     OW81956   3.307   5.338  11.469  0.2227 -0.1885 -0.7359
57663SOL    HW181957   3.344   5.340  11.381 -0.3937 -2.6976 -1.1358
57663SOL    HW281958   3.351   5.264  11.511 -0.7118 -0.0720  0.4872
57664SOL     OW81959   4.873   1.547   6.867  0.6400 -0.0777 -0.1293
57664SOL    HW181960   4.908   1.522   6.953  0.7617  0.0682 -0.1362
57664SOL    HW281961   4.944   1.529   6.806  0.6446  0.0624 -0.1655
57665SOL     OW81962   0.751   9.209   7.893  0.1466 -0.3202  0.0775
57665SOL    HW181963   0.760   9.138   7.829 -2.7171 -1.1870  0.4658
57665SOL    HW281964   0.790   9.285   7.851 -1.5998 -0.8623 -2.7943
57666SOL     OW81965   0.035   4.193   1.625 -0.4983  0.4339  0.3176
57666SOL    HW181966   0.000   4.263   1.681 -0.5437  0.2952  0.4643
57666SOL    HW281967   0.036   4.116   1.681  1.1865  0.6998  0.6953
57667SOL     OW81968   4.115   2.791   5.892  0.3294 -0.1689  0.1795
57667SOL    HW181969   4.116   2.776   5.987 -1.6924 -0.5411  0.1885
57667SOL    HW281970   4.032   2.753   5.863 -0.2488  2.1109 -1.3654
57668SOL     OW81971   1.196   8.616   0.884 -0.0770 -0.1794 -0.2745
57668SOL    HW181972   1.241   8.652   0.961  0.7516  0.6155 -1.0996
57668SOL    HW281973   1.142   8.546   0.919  0.7474 -0.2433  0.9579
57669SOL     OW81974   9.555   5.156   7.833  0.5042  0.4837 -0.8659
57669SOL    HW181975   9.645   5.156   7.867 -0.1203 -1.3600  1.0773
57669SOL    HW281976   9.563   5.127   7.743  1.8862  0.5527 -0.7868
57670SOL     OW81977  12.073   6.208   7.608  0.1966  0.2299  0.1818
57670SOL    HW181978  12.024   6.136   7.566  0.1540  0.1349  0.3931
57670SOL    HW281979  12.144   6.227   7.547  0.0887  0.1441  0.0281
57671SOL     OW81980   9.438  11.868  12.407  0.5917 -0.0637  0.2541
57671SOL    HW181981   9.388  11.902  12.481 -0.6415 -2.3230  0.5245
57671SOL    HW281982   9.524  11.909  12.417  0.1199  0.5779  2.2665
57672SOL     OW81983  11.420  10.400   5.050 -0.6517  0.5239 -0.3392
57672SOL    HW181984  11.428  10.325   4.992 -0.5929 -2.0502  2.7586
57672SOL    HW281985  11.509  10.434   5.059 -0.5586  0.4932 -1.1483
57673SOL     OW81986   5.769   2.876   5.440 -0.6536 -0.0082 -0.0503
57673SOL    HW181987   5.765   2.785   5.468  0.4677 -0.3479 -0.9228
57673SOL    HW281988   5.860   2.902   5.456 -1.1902  1.2728  1.0973
57674SOL     OW81989   9.977   9.246   1.597 -0.6184 -0.7128 -0.2988
57674SOL    HW181990   9.999   9.158   1.626  2.1973  0.1811  0.5287
57674SOL    HW281991  10.011   9.304   1.665 -0.4104  1.1180 -1.8642
57675SOL     OW81992  10.789   6.978   2.197  0.0788 -0.3152  0.5063
57675SOL    HW181993  10.791   6.989   2.102  0.4742  2.2639  0.7328
57675SOL    HW281994  10.876   7.004   2.226 -0.0998 -0.8774  1.5959
57676SOL     OW81995  11.118   5.567  10.413 -0.5807 -0.2012  0.2023
57676SOL    HW181996  11.055   5.636  10.393  1.1683  0.8937 -2.0440
57676SOL    HW281997  11.133   5.574  10.507 -2.4748  0.6301  0.4909
57677SOL     OW81998   4.139  10.371   5.644  0.0485  0.6651  0.0638
57677SOL    HW181999   4.201  10.413   5.703 -0.0824 -1.5626  1.9237
57677SOL    HW282000   4.073  10.438   5.626  1.2100  2.0271  0.7290
57678SOL     OW82001   9.006   2.637   6.822  0.3038 -0.5056  0.2453
57678SOL    HW182002   8.962   2.612   6.904  1.7089 -1.9102  0.6233
57678SOL    HW282003   8.951   2.599   6.754 -0.4872  0.0430  0.5605
57679SOL     OW82004  12.583   0.144   1.734  0.2750  0.1445 -0.1700
57679SOL    HW182005  12.604   0.103   1.818  0.8548 -1.5011 -1.0690
57679SOL    HW282006  12.666   0.146   1.687 -0.0970  0.7908 -0.8160
57680SOL     OW82007   1.404   6.548   0.193 -0.0693 -0.5501  0.4596
57680SOL    HW182008   1.389   6.606   0.267  1.3249  1.4951 -0.7790
57680SOL    HW282009   1.481   6.497   0.217  2.7493  2.6829 -0.8360
57681SOL     OW82010   8.940   4.325  11.514 -0.3326 -0.1998  0.0836
57681SOL    HW182011   8.975   4.303  11.428  2.3921  1.8353  0.5626
57681SOL    HW282012   8.873   4.391  11.496  0.1254  0.1145 -0.5067
57682SOL     OW82013   8.488  10.430  10.037  0.0066  0.2125 -0.4594
57682SOL    HW182014   8.570  10.384  10.019  0.8338  0.3310  2.4737
57682SOL    HW282015   8.442  10.374  10.100  0.2424  2.4388  1.8540
57683SOL     OW82016   7.824  12.261   2.861 -0.1681 -0.2758  0.1358
57683SOL    HW182017   7.833  12.166   2.869 -1.8824 -0.4795  0.0309
57683SOL    HW282018   7.732  12.278   2.882  0.7311  1.6915  2.9344
57684SOL     OW82019   0.179   6.560   2.493 -0.5962 -0.1542  0.5167
57684SOL    HW182020   0.158   6.535   2.403  0.3801  0.7397  0.0185
57684SOL    HW282021   0.239   6.634   2.484  0.5042 -0.8440  1.9029
57685SOL     OW82022   8.228   9.058   3.549 -0.2051  0.2902 -0.0609
57685SOL    HW182023   8.272   9.074   3.632  0.3110 -0.3878 -0.2021
57685SOL    HW282024   8.203   8.966   3.551  0.7761 -0.0267 -1.0975
57686SOL     OW82025   6.748   5.767  12.512 -0.3248 -0.4522  0.2736
57686SOL    HW182026   6.689   5.815  12.453 -0.4952 -0.8512  0.1138
57686SOL    HW282027   6.816   5.830  12.535 -0.1986 -0.3277 -0.4386
57687SOL     OW82028   2.665  10.129   5.830 -0.0632  0.1217  0.1019
57687SOL    HW182029   2.683  10.036   5.821  1.1154  0.0690  2.4086
57687SOL    HW282030   2.577  10.134   5.867 -0.4003 -0.0156 -0.6555
57688SOL     OW82031   7.723   9.685  10.466  0.1587  0.1414 -0.3149
57688SOL    HW182032   7.749   9.653  10.379  0.1226  0.1641 -0.3343
57688SOL    HW282033   7.783   9.758  10.483  1.5398 -1.1492  0.5660
57689SOL     OW82034   3.681  11.801   8.702 -0.1454  0.2086  0.5897
57689SOL    HW182035   3.730  11.785   8.783  2.2367 -3.5179 -1.3205
57689SOL    HW282036   3.592  11.772   8.722  0.9229 -2.8639  1.3693
57690SOL     OW82037   7.379   8.714   2.214  1.1655  0.3439 -0.3458
57690SOL    HW182038   7.346   8.797   2.178  0.1391  1.1677  2.2572
57690SOL    HW282039   7.458   8.695   2.162 -0.1163  1.4148 -2.8821
57691SOL     OW82040   1.031  12.383   6.655 -0.0882  0.3124  0.5692
57691SOL    HW182041   1.068  12.431   6.729  0.9903 -0.2570  0.4301
57691SOL    HW282042   1.056  12.435   6.579  0.7329 -0.2412  0.4495
57692SOL     OW82043   0.588   4.280   6.941  0.5992 -0.7105  0.2084
57692SOL    HW182044   0.602   4.365   6.981  0.2745 -0.5004 -0.1163
57692SOL    HW282045   0.553   4.225   7.011  0.9869 -0.6291  0.4646
57693SOL     OW82046   3.912   3.732   4.698 -0.2182  0.3532 -0.0121
57693SOL    HW182047   3.909   3.639   4.722 -0.8428  0.6318  1.0821
57693SOL    HW282048   3.908   3.733   4.603  2.6166 -0.8353 -0.2195
57694SOL     OW82049   7.294   7.733   3.541  0.2191 -0.0706 -0.3479
57694SOL    HW182050   7.301   7.820   3.581  1.8036 -0.0316 -0.6554
57694SOL    HW282051   7.384   7.705   3.528 -0.2599 -1.1065 -1.6855
57695SOL     OW82052   8.958   9.299   2.536  0.2351  0.5445 -0.0447
57695SOL    HW182053   9.042   9.339   2.558  0.4253  0.9853 -1.4860
57695SOL    HW282054   8.913   9.289   2.621  1.9480 -0.2469  0.8204
57696SOL     OW82055   5.284   6.791   2.452  0.2540 -0.1987  0.1142
57696SOL    HW182056   5.344   6.751   2.389 -0.9757 -0.4885 -0.9140
57696SOL    HW282057   5.337   6.856   2.498  0.8359  1.1355 -2.2909
57697SOL     OW82058   6.122   4.311  10.623 -0.3375  0.1916 -0.5108
57697SOL    HW182059   6.186   4.357  10.678  0.3015  1.6753 -2.3699
57697SOL    HW282060   6.171   4.237  10.587 -0.7584 -0.7834  0.8853
57698SOL     OW82061   3.618   7.230   0.400 -0.7424 -0.5030  0.6364
57698SOL    HW182062   3.588   7.264   0.315  0.6492 -0.7066  0.0402
57698SOL    HW282063   3.688   7.289   0.426  0.4364 -1.8006  0.4908
57699SOL     OW82064   1.917   2.106   9.661 -0.2059 -0.0651  0.1496
57699SOL    HW182065   1.943   2.063   9.579  1.1176 -4.0208  2.3889
57699SOL    HW282066   1.823   2.091   9.667 -0.7756  2.2219 -1.5323
57700SOL     OW82067   0.947  10.045   1.336 -0.6771 -0.2413 -0.3032
57700SOL    HW182068   1.026  10.045   1.391  0.0898  0.0589 -1.3596
57700SOL    HW282069   0.949   9.961   1.291  0.8592  1.0144 -2.7689
57701SOL     OW82070   0.144   9.791   7.686  0.2466 -0.4688 -0.5483
57701SOL    HW182071   0.184   9.802   7.600 -1.2989 -0.5207 -1.2983
57701SOL    HW282072   0.158   9.699   7.707  1.3747 -0.2676 -0.3322
57702SOL     OW82073   7.119   2.086   1.150  0.5821  0.0126  0.2313
57702SOL    HW182074   7.103   2.172   1.191  0.0260  0.5545 -1.0699
57702SOL    HW282075   7.044   2.033   1.178 -1.2052  1.1572 -2.0786
57703SOL     OW82076   7.335   4.199   9.587  0.3379  0.4361 -0.2724
57703SOL    HW182077   7.352   4.193   9.493 -0.0789  0.5751 -0.3613
57703SOL    HW282078   7.421   4.205   9.627  0.5490 -0.3450 -0.5967
57704SOL     OW82079  11.713   3.268   8.003 -0.1573 -0.8364  0.1400
57704SOL    HW182080  11.793   3.254   7.951 -0.5842 -1.1902 -0.4254
57704SOL    HW282081  11.642   3.261   7.940 -0.5376  2.3896  0.0470
57705SOL     OW82082   7.748   2.382   1.970 -0.0960 -0.3943  0.6364
57705SOL    HW182083   7.747   2.468   2.012  1.4984  0.1343 -0.3551
57705SOL    HW282084   7.665   2.378   1.922  0.3981  1.1632 -0.3993
57706SOL     OW82085   6.124   6.505   7.183 -0.0702 -0.3275  0.4485
57706SOL    HW182086   6.049   6.469   7.231 -0.2535 -0.0619  0.3667
57706SOL    HW282087   6.192   6.438   7.190 -0.8542 -1.2939 -0.8777
57707SOL     OW82088   7.175   1.633   3.433 -0.1980  0.9548 -0.1483
57707SOL    HW182089   7.104   1.672   3.485 -1.4971  0.0547 -1.1744
57707SOL    HW282090   7.130   1.589   3.361  1.5041  1.6251 -1.6854
57708SOL     OW82091  10.754   9.587   3.839 -0.0070 -0.3529  0.0552
57708SOL    HW182092  10.659   9.589   3.826 -0.4210  2.0985  2.5027
57708SOL    HW282093  10.789   9.643   3.770 -0.3056 -1.1994 -0.8053
57709SOL     OW82094  10.130   2.452   5.918  0.0760 -0.0903  0.5947
57709SOL    HW182095  10.048   2.455   5.967  0.8699 -0.8300  2.0351
57709SOL    HW282096  10.107   2.409   5.835 -1.6334  2.6920 -0.4874
57710SOL     OW82097   7.666   2.598   1.466 -0.0521 -0.1027 -0.0324
57710SOL    HW182098   7.705   2.539   1.402 -1.5291 -0.7663 -0.3783
57710SOL    HW282099   7.573   2.600   1.443 -0.4638  0.3730  1.5353
57711SOL     OW82100   6.720  10.473   0.827 -0.0654 -0.5587  0.2159
57711SOL    HW182101   6.680  10.404   0.773 -1.5081  0.8890 -0.6363
57711SOL    HW282102   6.646  10.520   0.865  0.8910  0.5880  0.7079
57712SOL     OW82103   1.227   8.184   2.699  0.1500 -0.3774 -0.3601
57712SOL    HW182104   1.301   8.159   2.642  0.6904 -2.9412  1.3019
57712SOL    HW282105   1.188   8.101   2.724 -1.4395  0.8013  1.2479
57713SOL     OW82106   1.741   6.480   5.505 -0.3038 -0.1582 -0.2657
57713SOL    HW182107   1.833   6.504   5.496 -0.5814  1.0588  0.0237
57713SOL    HW282108   1.720   6.434   5.423  0.5734 -0.5295 -0.2914
57714SOL     OW82109   0.376   9.066  12.234 -0.1267 -0.1850  0.4163
57714SOL    HW182110   0.408   9.054  12.145  1.5192  2.7000  0.5122
57714SOL    HW282111   0.430   9.008  12.287  2.1081  1.4365  0.0267
57715SOL     OW82112  10.379   6.247   2.956  0.2017  0.0625  0.4229
57715SOL    HW182113  10.381   6.293   3.040  1.1849 -0.3648  0.6470
57715SOL    HW282114  10.286   6.227   2.942  0.0497 -0.1575  1.5775
57716SOL     OW82115   7.501   4.932  11.164 -0.5960 -0.4004  0.6020
57716SOL    HW182116   7.595   4.940  11.182 -0.2908 -0.4056 -0.8279
57716SOL    HW282117   7.492   4.844  11.125 -0.8876  0.2456 -0.8658
57717SOL     OW82118   3.966   8.468  11.698  0.1159  0.0007  0.5147
57717SOL    HW182119   3.989   8.481  11.606 -0.7047  1.3698  0.4855
57717SOL    HW282120   4.010   8.386  11.722  1.2328  0.1879 -0.7806
57718SOL     OW82121   6.632  11.951   4.380 -0.2207 -0.3278  0.2708
57718SOL    HW182122   6.606  11.864   4.410 -1.5312 -0.1603 -0.3162
57718SOL    HW282123   6.621  11.948   4.285  0.2369  0.3237  0.1869
57719SOL     OW82124   7.145  11.644   7.923 -0.1518  0.4832  0.0406
57719SOL    HW182125   7.176  11.719   7.975 -1.8947  0.1296  1.6731
57719SOL    HW282126   7.093  11.592   7.983  0.9416 -2.0789 -1.0661
57720SOL     OW82127   6.113   0.360   4.317  0.2466  0.3880  0.7096
57720SOL    HW182128   6.177   0.303   4.360  0.2145  0.7323  1.2324
57720SOL    HW282129   6.061   0.396   4.389 -1.7356 -1.2550  0.1852
57721SOL     OW82130   4.522  12.573  12.389  0.4915  0.2457  0.2898
57721SOL    HW182131   4.435  12.534  12.388  0.9808 -0.9034  1.1782
57721SOL    HW282132   4.523  12.631  12.312 -1.3754  1.0431  0.8096
57722SOL     OW82133   3.349   0.241   4.313  0.0783  0.1700 -0.3337
57722SOL    HW182134   3.272   0.293   4.334  0.1525  0.7373 -1.4439
57722SOL    HW282135   3.337   0.160   4.362 -0.5262  0.8163  0.6204
57723SOL     OW82136   4.535   7.041   4.044 -0.1456  0.1592 -0.0688
57723SOL    HW182137   4.614   7.062   4.095 -1.1955 -2.3298  2.8461
57723SOL    HW282138   4.531   6.946   4.044 -0.3003 -0.0982 -5.0133
57724SOL     OW82139   6.659  10.229   3.580  0.2779 -0.2825  0.0452
57724SOL    HW182140   6.607  10.176   3.520  0.8668 -0.5743 -0.2245
57724SOL    HW282141   6.641  10.320   3.555  0.0619 -0.3877 -0.1786
57725SOL     OW82142  11.009  11.222   4.528 -0.1214 -0.0373  0.2584
57725SOL    HW182143  10.990  11.150   4.468  1.2135 -0.6564  0.5452
57725SOL    HW282144  11.095  11.254   4.501 -0.8337  1.6932 -0.0747
57726SOL     OW82145   1.090  10.537   1.937 -0.1764  0.6762  0.1381
57726SOL    HW182146   1.167  10.584   1.906 -1.5134  1.2192 -2.6943
57726SOL    HW282147   1.040  10.603   1.985  0.3009  0.7833  0.4953
57727SOL     OW82148   4.119   0.659   9.969  0.0672  0.1475  0.4043
57727SOL    HW182149   4.149   0.569   9.965 -1.0049 -0.2190  0.3747
57727SOL    HW282150   4.039   0.656  10.022  0.4967  1.2111  1.1704
57728SOL     OW82151   5.824   7.913   1.867  0.1416  0.3257 -0.1708
57728SOL    HW182152   5.814   7.823   1.835  0.4527 -0.1314  1.0001
57728SOL    HW282153   5.918   7.927   1.873  0.0906  0.5854  0.0651
57729SOL     OW82154   8.472   3.461   4.996  0.3991  0.1391  0.2723
57729SOL    HW182155   8.481   3.509   5.078  0.9843 -0.7768  0.7587
57729SOL    HW282156   8.559   3.425   4.980  0.0616 -0.4532 -0.2702
57730SOL     OW82157   4.480   7.575   5.575  0.2069  0.0737  0.3900
57730SOL    HW182158   4.444   7.492   5.606 -1.9740  0.8737  0.2498
57730SOL    HW282159   4.405   7.635   5.578  1.8420  2.2085  1.0901
57731SOL     OW82160   4.269   8.446   0.196 -0.7582  0.1406 -0.0906
57731SOL    HW182161   4.324   8.368   0.201  1.7813  1.8484  0.8362
57731SOL    HW282162   4.278   8.487   0.282 -1.3238  1.9071 -0.8287
57732SOL     OW82163   2.808   3.600   7.683  0.0403 -0.8041  0.4300
57732SOL    HW182164   2.860   3.542   7.628 -0.7427  0.3401 -1.6827
57732SOL    HW282165   2.718   3.569   7.671 -0.0485 -1.2029  1.9914
57733SOL     OW82166  10.302   0.252  11.100 -0.1775 -0.3434  0.2601
57733SOL    HW182167  10.246   0.312  11.051  0.5168 -0.2382 -0.4287
57733SOL    HW282168  10.298   0.170  11.050 -0.2359 -0.5261  0.5664
57734SOL     OW82169   6.968   2.434   7.650  0.0287  0.3994 -0.0327
57734SOL    HW182170   6.977   2.346   7.613 -1.5003  0.0596  0.3003
57734SOL    HW282171   7.056   2.471   7.648  1.0880 -1.8100  1.5382
57735SOL     OW82172   2.479  11.484   2.381  0.5185  0.2562 -0.3752
57735SOL    HW182173   2.556  11.528   2.417  1.5056 -0.3637 -1.6364
57735SOL    HW282174   2.408  11.548   2.393  0.9892  0.4774  1.6392
57736SOL     OW82175   0.445   0.913   0.150  0.2805  0.4556  0.1917
57736SOL    HW182176   0.414   0.828   0.120  0.2386  0.2072  0.9260
57736SOL    HW282177   0.519   0.933   0.092  0.8307 -0.4740  0.5565
57737SOL     OW82178  10.128   7.226  11.846 -0.1171  0.1689  0.3160
57737SOL    HW182179  10.215   7.189  11.860  0.4423  1.0816 -0.6090
57737SOL    HW282180  10.133   7.314  11.884 -1.0767 -0.2468  1.4877
57738SOL     OW82181   9.034   8.227  12.423  0.5354  0.0092  0.4994
57738SOL    HW182182   9.059   8.180  12.503  0.2222 -0.9196  0.0741
57738SOL    HW282183   8.983   8.163  12.374  0.1734  0.7880 -0.1534
57739SOL     OW82184   4.662   6.259  11.762  0.2555  0.4611  0.4215
57739SOL    HW182185   4.592   6.195  11.748 -0.3199  0.8636  1.3410
57739SOL    HW282186   4.718   6.252  11.685 -1.1237  0.5382 -0.6172
57740SOL     OW82187   9.216  11.432   6.701 -0.2425  0.2427  0.0073
57740SOL    HW182188   9.252  11.350   6.668  0.6051 -0.0676  1.6255
57740SOL    HW282189   9.150  11.457   6.636 -0.3353 -1.5796 -0.6477
57741SOL     OW82190   8.006   1.183   9.933  0.1335  0.0813  0.1420
57741SOL    HW182191   8.023   1.112   9.994  0.2926 -0.3907 -0.4406
57741SOL    HW282192   8.093   1.219   9.913 -0.0822  1.8526  2.0620
57742SOL     OW82193   7.124   6.709   6.297 -0.4311 -0.4198 -0.1301
57742SOL    HW182194   7.139   6.668   6.382  0.8116 -1.1948 -0.6946
57742SOL    HW282195   7.035   6.684   6.273  0.0361 -2.2167 -0.1193
57743SOL     OW82196  11.424   2.230   6.599 -0.2886  0.5129  0.0254
57743SOL    HW182197  11.352   2.178   6.562 -0.9320  1.8188 -0.6302
57743SOL    HW282198  11.385   2.275   6.674  0.8434 -1.6029  2.0102
57744SOL     OW82199  11.018   3.120   4.972 -0.1967 -0.1815 -0.0907
57744SOL    HW182200  11.003   3.076   4.888  0.8977  0.2121 -0.5194
57744SOL    HW282201  11.110   3.147   4.968 -0.1659 -0.0400  1.1867
57745SOL     OW82202   0.812  12.322   0.005  0.1092 -0.6985  0.2780
57745SOL    HW182203   0.891  12.328   0.059  0.2634  0.7585 -0.0711
57745SOL    HW282204   0.843  12.294  -0.081  0.1231 -1.0813  0.4086
57746SOL     OW82205   0.865   6.118   8.933  0.2829 -0.3993  0.0803
57746SOL    HW182206   0.794   6.121   8.997  0.4365  0.0288  0.2313
57746SOL    HW282207   0.908   6.034   8.949 -0.7636 -1.0965 -0.6415
57747SOL     OW82208   7.362   1.358   3.292 -0.3196  0.3856  0.6524
57747SOL    HW182209   7.336   1.266   3.285  1.0117  0.1255 -2.3674
57747SOL    HW282210   7.282   1.406   3.271 -0.9918  0.0005  2.1254
57748SOL     OW82211   8.436   0.307  11.300  0.1246  0.0617 -1.3161
57748SOL    HW182212   8.446   0.220  11.339 -1.7494  0.4211  0.0939
57748SOL    HW282213   8.524   0.346  11.306  0.3271 -0.5746  0.9825
57749SOL     OW82214   5.733   9.499  11.761  0.0926 -0.5361  0.2952
57749SOL    HW182215   5.777   9.472  11.680  0.3901 -0.2353  0.3535
57749SOL    HW282216   5.784   9.459  11.831  1.8773  1.8567  0.5150
57750SOL     OW82217   6.487   4.673   7.279 -0.5768 -0.3015  0.1942
57750SOL    HW182218   6.455   4.670   7.369  0.6726  0.7921  0.7111
57750SOL    HW282219   6.485   4.582   7.249  0.6705 -0.9529  1.9458
57751SOL     OW82220   4.046   5.419   4.847 -0.2907  0.5981 -0.0146
57751SOL    HW182221   4.109   5.458   4.787  1.6959 -0.9751  0.8791
57751SOL    HW282222   3.996   5.357   4.794 -0.7908  1.5388 -0.6524
57752SOL     OW82223   8.326   6.079   1.982 -0.0475 -0.3285  0.1877
57752SOL    HW182224   8.313   6.031   2.063 -0.3889 -1.5181 -0.5374
57752SOL    HW282225   8.357   6.013   1.920  0.0459  0.5185 -0.6958
57753SOL     OW82226   3.936  12.554   1.336  0.2626 -0.5065  0.1284
57753SOL    HW182227   3.857  12.551   1.388 -0.1928 -0.0442 -0.5152
57753SOL    HW282228   3.910  12.598   1.255  1.3155  0.2531  0.1700
57754SOL     OW82229  10.295   2.840   9.228 -0.1094  0.4385  0.9549
57754SOL    HW182230  10.339   2.780   9.289  1.3428 -0.3583 -0.7808
57754SOL    HW282231  10.202   2.818   9.236  0.3047 -1.5029  0.9550
57755SOL     OW82232   5.289   9.650   9.723  0.2421 -0.3101 -0.3824
57755SOL    HW182233   5.255   9.722   9.777 -1.2654 -2.1380  1.2615
57755SOL    HW282234   5.381   9.645   9.747 -0.0123  0.0269  0.7713
57756SOL     OW82235   8.223   4.117  11.579 -0.3118 -0.3925 -0.7945
57756SOL    HW182236   8.131   4.131  11.601 -0.1323 -0.3988 -0.0366
57756SOL    HW282237   8.261   4.205  11.576  0.0212 -0.4720  0.5176
57757SOL     OW82238   8.697  10.747   0.092 -0.1475  0.0176  0.2455
57757SOL    HW182239   8.671  10.656   0.109 -5.3041  1.0631 -0.1666
57757SOL    HW282240   8.720  10.749  -0.000  0.5660 -0.9329  0.3921
57758SOL     OW82241   5.489   8.623  10.648  0.0375 -0.4381  0.2325
57758SOL    HW182242   5.532   8.601  10.730 -2.1274 -0.0625  1.5191
57758SOL    HW282243   5.438   8.701  10.667 -0.0779  0.0114 -1.6470
57759SOL     OW82244   4.102   6.234   6.183 -0.0226 -0.0977 -0.1988
57759SOL    HW182245   4.130   6.155   6.228 -1.4195 -0.8644 -0.6223
57759SOL    HW282246   4.048   6.281   6.247  0.1732  0.1331 -0.2002
57760SOL     OW82247  10.318   2.090   9.940  0.1273 -0.1291 -0.3650
57760SOL    HW182248  10.275   2.172   9.917  0.9351  0.0912 -1.1251
57760SOL    HW282249  10.410   2.104   9.922 -0.0158 -2.1880 -3.7029
57761SOL     OW82250   4.081   6.782   5.666 -0.0348 -0.5142 -0.6805
57761SOL    HW182251   4.080   6.798   5.571 -1.0329  0.9642 -0.4545
57761SOL    HW282252   4.146   6.844   5.699  1.2264 -1.8757 -0.4878
57762SOL     OW82253  11.664  10.815   7.760 -0.2278 -0.4195  0.3885
57762SOL    HW182254  11.740  10.767   7.794  0.2159  0.5802  0.8604
57762SOL    HW282255  11.664  10.797   7.666  1.4922  0.7367  0.1174
57763SOL     OW82256   3.516  12.542   1.229  0.2584 -0.0514 -0.2128
57763SOL    HW182257   3.559  12.506   1.306 -1.7017  0.1614  1.0484
57763SOL    HW282258   3.544  12.634   1.226  1.1210 -0.3103 -0.3700
57764SOL     OW82259   4.617  10.738   4.792  0.0996  0.9676  0.0185
57764SOL    HW182260   4.597  10.703   4.706  1.5262 -0.1954  0.1188
57764SOL    HW282261   4.593  10.668   4.853 -1.3255  1.9398  0.6481
57765SOL     OW82262   0.241   4.026   4.115  0.7694  0.6882 -0.1309
57765SOL    HW182263   0.249   3.936   4.143  2.5147  1.4462  2.1013
57765SOL    HW282264   0.147   4.043   4.111  0.4061 -1.3683 -1.2760
57766SOL     OW82265   2.963   3.404   4.340  0.0785  0.2633 -0.1854
57766SOL    HW182266   2.937   3.339   4.405 -1.5685  0.1059 -0.9529
57766SOL    HW282267   3.042   3.368   4.300 -1.3586 -1.8361 -1.3245
57767SOL     OW82268   4.823   5.719   4.662  0.4953 -0.2177 -0.1069
57767SOL    HW182269   4.895   5.656   4.668  1.5207  0.7093 -1.7264
57767SOL    HW282270   4.846   5.788   4.725  1.7605  0.6942 -1.4815
57768SOL     OW82271   0.893  12.091   9.991 -0.1137 -0.2858 -0.7268
57768SOL    HW182272   0.859  12.177   9.967 -0.5990 -1.0676 -3.0985
57768SOL    HW282273   0.818  12.045  10.030 -0.3490 -0.2487 -1.1333
57769SOL     OW82274   5.392   9.539  11.501  0.1731 -0.4744  0.7213
57769SOL    HW182275   5.382   9.452  11.541 -1.2696 -0.6992 -0.0802
57769SOL    HW282276   5.346   9.598  11.560 -0.1826 -0.4940  0.4646
57770SOL     OW82277  10.236   6.592  11.060  0.2143  0.2321  0.2985
57770SOL    HW182278  10.188   6.672  11.082 -0.9219 -0.5515  0.7831
57770SOL    HW282279  10.247   6.547  11.144  0.1020 -0.5122 -0.0783
57771SOL     OW82280   3.854  12.172   8.768  0.7940 -0.3143  0.0351
57771SOL    HW182281   3.811  12.115   8.704  1.5672 -1.4441  0.5040
57771SOL    HW282282   3.784  12.229   8.799 -0.0398 -1.1178 -0.3190
57772SOL     OW82283   5.216   1.941   5.656 -0.1238 -0.3468  0.4621
57772SOL    HW182284   5.207   1.858   5.702 -2.0229  0.6474  2.0497
57772SOL    HW282285   5.127   1.961   5.625  0.2817  1.0605  0.1091
57773SOL     OW82286   9.086   1.504   5.215 -0.1077 -0.0918  0.2990
57773SOL    HW182287   9.058   1.562   5.286  2.7572  0.1335  1.3989
57773SOL    HW282288   9.110   1.423   5.259 -0.4102 -0.7492 -0.7269
57774SOL     OW82289   8.409   9.309   9.883 -0.2786 -0.0721  0.2216
57774SOL    HW182290   8.356   9.338   9.958  1.9759  2.0843  1.1434
57774SOL    HW282291   8.491   9.358   9.893  1.2057 -1.9379 -2.0873
57775SOL     OW82292   7.911   4.071   6.782  0.5772  0.3759 -0.0157
57775SOL    HW182293   7.845   4.034   6.840 -0.5889  0.8389 -1.0028
57775SOL    HW282294   7.948   3.995   6.736  2.1693 -0.1023  1.9190
57776SOL     OW82295   5.579   6.863   5.252  0.2872  0.3090 -0.0529
57776SOL    HW182296   5.579   6.818   5.336  3.7271  1.2565  0.6418
57776SOL    HW282297   5.520   6.937   5.264  0.2916  0.1079  1.3424
57777SOL     OW82298   2.623   5.577   0.277  0.6049 -0.2421 -0.3353
57777SOL    HW182299   2.533   5.547   0.284  0.7535 -0.3073  2.7677
57777SOL    HW282300   2.673   5.499   0.253  0.1261 -0.8997  0.7232
57778SOL     OW82301  11.525   4.494   0.119 -0.2821  0.1735  0.3000
57778SOL    HW182302  11.458   4.563   0.125 -0.5600 -0.1680  1.3785
57778SOL    HW282303  11.550   4.493   0.027  0.1632  2.1287  0.3483
57779SOL     OW82304  11.833   9.920   4.180  0.2688  0.1008  0.2605
57779SOL    HW182305  11.825  10.012   4.154 -1.7594  0.3517  1.5504
57779SOL    HW282306  11.784   9.872   4.113  0.4720  0.0595  0.1408
57780SOL     OW82307   7.815  11.425  12.433 -0.3455  0.4343 -0.3257
57780SOL    HW182308   7.745  11.394  12.490  0.4101 -0.0899  0.3233
57780SOL    HW282309   7.789  11.514  12.410 -0.2250  1.0020  1.5743
57781SOL     OW82310   6.205   6.352   4.774  0.3194  0.2286  0.1007
57781SOL    HW182311   6.183   6.259   4.783 -0.8749  0.6137  1.7472
57781SOL    HW282312   6.296   6.353   4.744  1.0646 -1.4998  2.0707
57782SOL     OW82313  10.581   7.037  11.406  0.1787  0.7639  0.0399
57782SOL    HW182314  10.498   6.992  11.389  1.1608 -0.3024 -2.5171
57782SOL    HW282315  10.611   7.000  11.489  0.5891 -2.9868 -1.5560
57783SOL     OW82316   7.422   6.523   6.372  0.3178  0.2224 -0.3824
57783SOL    HW182317   7.425   6.545   6.465 -1.2530  0.9992 -0.4818
57783SOL    HW282318   7.349   6.461   6.365  1.7602 -1.5332 -0.8194
57784SOL     OW82319  11.723   2.450   2.702 -0.3212 -0.1398 -0.4328
57784SOL    HW182320  11.728   2.523   2.641 -0.0071  1.6556  1.5997
57784SOL    HW282321  11.641   2.463   2.750  0.3655 -0.3479  0.8463
57785SOL     OW82322   0.134   1.932   3.107  0.5571  0.1890  0.1197
57785SOL    HW182323   0.070   2.000   3.128  1.1386  1.0837 -0.9037
57785SOL    HW282324   0.192   1.973   3.043  1.4891 -0.9715  0.1915
57786SOL     OW82325   7.591   2.571   3.061  0.2255 -0.2236  0.4407
57786SOL    HW182326   7.658   2.562   3.129  0.7242 -0.1139 -0.0315
57786SOL    HW282327   7.509   2.585   3.110  0.0879 -2.8980  1.1011
57787SOL     OW82328   9.425  11.213   7.351  0.5602 -0.4271 -0.0570
57787SOL    HW182329   9.355  11.250   7.406  1.1363  0.0996  0.3456
57787SOL    HW282330   9.386  11.204   7.265 -0.7210 -2.3353  0.6691
57788SOL     OW82331  11.942   9.767   7.596  0.3857  0.0227  0.4749
57788SOL    HW182332  11.980   9.741   7.512 -2.3704  0.6731 -1.1020
57788SOL    HW282333  12.001   9.835   7.628  1.6200 -0.3684 -0.8262
57789SOL     OW82334   0.695   3.113   1.982  0.0688 -0.3763 -0.7173
57789SOL    HW182335   0.687   3.047   2.051 -0.9874  0.8344  0.3706
57789SOL    HW282336   0.613   3.108   1.934 -0.6342  1.0582  0.2618
57790SOL     OW82337   5.284  10.835   7.421  0.0207  0.0228 -0.7464
57790SOL    HW182338   5.250  10.755   7.461 -1.0631 -0.4988 -2.5674
57790SOL    HW282339   5.356  10.863   7.478 -1.0365 -0.9801  1.1639
57791SOL     OW82340   6.942  10.548  10.903  0.6108  0.1738 -0.1348
57791SOL    HW182341   6.995  10.627  10.915 -0.0638  0.3349  2.2719
57791SOL    HW282342   6.913  10.553  10.812  1.6171  2.0309 -0.4161
57792SOL     OW82343   9.643  10.980  11.228 -0.1008 -0.4453  0.0062
57792SOL    HW182344   9.594  10.962  11.148  1.6185 -0.8352 -1.0113
57792SOL    HW282345   9.731  10.947  11.210  0.4978  0.0461  1.8287
57793SOL     OW82346  10.144  11.093   1.510 -0.0910  0.2878 -0.5162
57793SOL    HW182347  10.186  11.162   1.460  1.6234  0.2077  0.7108
57793SOL    HW282348  10.214  11.029   1.527 -0.4775  0.4283  2.1203
57794SOL     OW82349   9.707   7.427   5.772 -0.1659  0.0002 -0.6869
57794SOL    HW182350   9.779   7.365   5.757 -1.5032 -1.2482 -2.5006
57794SOL    HW282351   9.662   7.392   5.849  0.4480  0.0875 -0.2790
57795SOL     OW82352   8.049   0.537   7.220 -0.0208  0.1204  0.6592
57795SOL    HW182353   8.117   0.584   7.172 -0.1861  1.0097  1.2556
57795SOL    HW282354   8.091   0.509   7.301 -0.2457  0.3315  0.8531
57796SOL     OW82355   7.226   9.631  11.509 -0.1088 -0.8265 -0.5220
57796SOL    HW182356   7.156   9.574  11.541  0.7363 -0.9213  1.2659
57796SOL    HW282357   7.225   9.705  11.569  0.6965 -0.3679 -1.0673
57797SOL     OW82358   1.432   7.607   0.282 -0.1228 -0.5406  0.3267
57797SOL    HW182359   1.475   7.538   0.231  0.0878 -1.3941  1.5934
57797SOL    HW282360   1.350   7.567   0.312 -1.1306  0.5807 -0.8608
57798SOL     OW82361  10.764   3.824   7.242  0.0329 -0.6156 -0.2571
57798SOL    HW182362  10.766   3.730   7.227 -2.2922 -0.8745  0.7423
57798SOL    HW282363  10.758   3.834   7.337 -0.3645  0.5297 -0.3812
57799SOL     OW82364   2.365   0.659   6.479  0.4063 -0.1803 -0.0478
57799SOL    HW182365   2.450   0.630   6.511  0.1314 -0.1252  0.7557
57799SOL    HW282366   2.331   0.715   6.548 -0.4594 -0.5262 -0.1809
57800SOL     OW82367  12.313  11.874   7.730  0.2560 -0.1388  0.7768
57800SOL    HW182368  12.365  11.849   7.654 -1.0835 -2.3125  0.4892
57800SOL    HW282369  12.317  11.970   7.732  1.0934 -0.0863 -1.4512
57801SOL     OW82370   7.421  12.570  11.336 -0.0637  0.2968  0.1714
57801SOL    HW182371   7.448  12.479  11.326  0.7610  0.4137  1.1490
57801SOL    HW282372   7.408  12.602  11.247 -0.0935 -0.6964 -0.1850
57802SOL     OW82373   3.430   6.010   9.586 -0.7481 -0.2644 -0.1084
57802SOL    HW182374   3.391   5.957   9.517  1.3188 -1.2878 -0.5512
57802SOL    HW282375   3.447   6.095   9.544 -1.1045 -0.2989 -0.3281
57803SOL     OW82376   7.076   7.487   8.218 -0.4523 -0.3633 -0.1685
57803SOL    HW182377   7.053   7.579   8.204  1.3807  0.5957  2.3258
57803SOL    HW282378   7.004   7.452   8.271 -0.3688  0.1437  0.2927
57804SOL     OW82379  12.410   3.669   9.151 -0.3093  0.2675  0.3519
57804SOL    HW182380  12.377   3.707   9.232  0.1731  0.7883  0.3118
57804SOL    HW282381  12.445   3.743   9.102 -1.3049  0.0735 -0.6940
57805SOL     OW82382   2.347   6.892   1.899 -0.2650 -0.1441 -0.1717
57805SOL    HW182383   2.370   6.985   1.905 -0.1596 -0.2110  0.6957
57805SOL    HW282384   2.355   6.860   1.989  0.8202 -1.2611 -0.6344
57806SOL     OW82385   3.179   3.008   9.013  0.0396  0.4663  0.4627
57806SOL    HW182386   3.246   2.943   9.032  0.7021  1.1963  0.6436
57806SOL    HW282387   3.116   2.962   8.957  1.4290  0.1942 -0.9209
57807SOL     OW82388   7.071   9.557   0.828  0.3195  0.3341  0.4418
57807SOL    HW182389   7.071   9.604   0.911  0.1262 -0.0188  0.6448
57807SOL    HW282390   7.052   9.624   0.762  0.1431  0.5564  0.7183
57808SOL     OW82391   2.542   0.974   6.529  0.3483 -0.3333  0.3660
57808SOL    HW182392   2.584   0.888   6.529  0.1108 -0.4498  0.4059
57808SOL    HW282393   2.487   0.974   6.451 -0.1002 -0.4408  0.6750
57809SOL     OW82394   2.555   5.831  10.002  0.0927 -0.0815 -0.2983
57809SOL    HW182395   2.589   5.889   9.935 -0.4943 -0.5344 -1.0059
57809SOL    HW282396   2.470   5.868  10.026  0.6935  0.5968  0.8815
57810SOL     OW82397   4.182   6.561   4.367 -0.5083 -0.4174  0.1458
57810SOL    HW182398   4.124   6.590   4.296  1.3627 -0.6538 -1.5539
57810SOL    HW282399   4.247   6.630   4.375  0.6749 -1.4812 -0.0112
57811SOL     OW82400   7.668   2.017   2.943 -0.2407  0.0888 -0.0281
57811SOL    HW182401   7.729   2.010   3.016 -0.8818  0.1509  0.5228
57811SOL    HW282402   7.677   1.934   2.896 -1.2138 -0.7842  1.2481
57812SOL     OW82403   5.366   1.897   9.489 -0.0855  0.0399 -0.6969
57812SOL    HW182404   5.336   1.893   9.398  1.9727 -0.7126 -1.4045
57812SOL    HW282405   5.394   1.807   9.509  2.5447  0.8365 -0.4777
57813SOL     OW82406   7.432   5.284   2.496 -0.3766 -0.3466 -0.1725
57813SOL    HW182407   7.509   5.228   2.502 -0.2415 -0.1362  0.0454
57813SOL    HW282408   7.458   5.356   2.439 -0.2443 -0.0030  0.3153
57814SOL     OW82409   6.336  11.374   0.226 -0.1005  0.2085 -0.1643
57814SOL    HW182410   6.267  11.316   0.258  0.0654 -0.1228 -0.4104
57814SOL    HW282411   6.412  11.352   0.279  0.1810 -0.3564 -0.7945
57815SOL     OW82412   6.347   9.797   8.032 -0.3901  0.4251  0.5908
57815SOL    HW182413   6.274   9.817   8.090 -0.6817  2.0369 -0.2854
57815SOL    HW282414   6.310   9.801   7.944  0.8101  1.6251  0.1153
57816SOL     OW82415   1.608   3.662   4.946 -0.4979  0.2226 -0.5267
57816SOL    HW182416   1.630   3.651   4.854  0.0016 -1.3643 -0.2493
57816SOL    HW282417   1.670   3.606   4.992  0.3910  2.2588  0.9218
57817SOL     OW82418   8.998   6.314   3.282 -0.4861 -0.0897  0.1168
57817SOL    HW182419   9.018   6.233   3.328 -0.9149 -0.2547  0.0142
57817SOL    HW282420   9.074   6.370   3.299 -1.0922  0.2526  1.9465
57818SOL     OW82421   6.063   9.513   6.296 -0.0468  0.0102  0.1455
57818SOL    HW182422   6.031   9.426   6.269  0.8241 -0.5763  0.9289
57818SOL    HW282423   6.090   9.554   6.214 -0.6216 -0.3876 -0.2595
57819SOL     OW82424   0.484   9.603   9.772  0.1694 -0.1986  0.3392
57819SOL    HW182425   0.448   9.692   9.765 -1.2828 -0.8701 -1.2759
57819SOL    HW282426   0.520   9.585   9.685  0.5393 -1.1654  0.6819
57820SOL     OW82427   9.367   2.698   5.969 -0.1458 -0.0023 -0.8138
57820SOL    HW182428   9.306   2.674   6.039 -0.6097  0.7449 -0.9464
57820SOL    HW282429   9.404   2.782   5.998  0.0044  0.0803 -1.2482
57821SOL     OW82430  10.592   6.929   6.497  0.3843  0.4834 -0.3634
57821SOL    HW182431  10.612   6.923   6.591  0.7033  0.5152 -0.4278
57821SOL    HW282432  10.678   6.931   6.454  0.2387 -0.6986 -0.7384
57822SOL     OW82433  11.970   3.195   7.398  0.2893 -0.7179 -0.1865
57822SOL    HW182434  11.886   3.225   7.364  0.2856 -0.1870  0.2854
57822SOL    HW282435  11.989   3.253   7.471  1.0396 -0.8694 -0.2502
57823SOL     OW82436   7.983   9.972   7.448 -0.7091 -0.2897 -0.1544
57823SOL    HW182437   7.908   9.965   7.389 -1.1314 -1.5552  0.5012
57823SOL    HW282438   7.947   9.953   7.534  0.4960 -1.6813  0.0642
57824SOL     OW82439  11.645   4.104   6.658  0.0928  0.2246  0.3208
57824SOL    HW182440  11.740   4.105   6.645  0.1718  1.0689  0.8663
57824SOL    HW282441  11.634   4.095   6.753 -0.4011 -1.1263  0.1540
57825SOL     OW82442   2.795  12.434   2.298  0.4693  0.3276  0.2035
57825SOL    HW182443   2.804  12.395   2.385  2.2047 -1.0223 -0.5286
57825SOL    HW282444   2.853  12.383   2.242  0.6167  2.1743 -1.4472
57826SOL     OW82445   0.168  12.111   3.174  0.3821 -0.3569  0.0764
57826SOL    HW182446   0.211  12.150   3.098 -0.9946 -0.7769 -0.9623
57826SOL    HW282447   0.082  12.152   3.177  0.0076 -1.1542  0.7346
57827SOL     OW82448   3.539  11.261   2.449 -0.1083 -0.6834  0.8390
57827SOL    HW182449   3.449  11.292   2.460 -0.7807 -2.1204 -0.3267
57827SOL    HW282450   3.566  11.297   2.364 -0.2295 -1.6821  0.3617
57828SOL     OW82451   8.147   9.121   1.525 -0.1380 -0.4495  0.2863
57828SOL    HW182452   8.137   9.027   1.539  0.0525 -0.5330 -0.1152
57828SOL    HW282453   8.241   9.137   1.536  0.0769 -0.5830 -1.2070
57829SOL     OW82454  11.999   7.709   1.230 -1.1395 -0.0185  0.2044
57829SOL    HW182455  11.984   7.790   1.181 -1.1071  0.4891  1.0190
57829SOL    HW282456  11.953   7.721   1.313 -0.9488 -0.7471  0.4281
57830SOL     OW82457   7.941   5.848   3.692 -0.1265 -0.2321  0.6074
57830SOL    HW182458   7.979   5.761   3.681 -0.1477 -0.1361 -0.3648
57830SOL    HW282459   8.011   5.908   3.667 -1.2050 -0.0784 -2.6072
57831SOL     OW82460   7.620   0.323  12.303 -0.0245 -0.2963 -0.0077
57831SOL    HW182461   7.679   0.284  12.240 -0.0465 -0.9967  0.3990
57831SOL    HW282462   7.552   0.365  12.250  0.3176 -0.3044 -0.4535
57832SOL     OW82463   2.455   8.985   6.717  0.5877 -0.6554  0.0830
57832SOL    HW182464   2.514   9.004   6.644  2.3462  0.3770  1.6899
57832SOL    HW282465   2.385   9.050   6.709  1.3124  0.1178 -0.1174
57833SOL     OW82466  10.738   5.507  10.778  0.3543  0.0112  0.0977
57833SOL    HW182467  10.702   5.557  10.852  2.7740  0.3457  1.1479
57833SOL    HW282468  10.819   5.553  10.755  0.5570 -1.1131 -1.6253
57834SOL     OW82469   8.712   6.551   0.841 -0.2904 -0.3951  0.2188
57834SOL    HW182470   8.729   6.592   0.926  1.4188  0.8656 -0.6633
57834SOL    HW282471   8.625   6.583   0.816 -1.2951 -1.6286  1.9064
57835SOL     OW82472   9.768   5.093  11.501 -0.2115  0.6750 -0.1846
57835SOL    HW182473   9.853   5.115  11.465 -0.5403 -0.8229 -2.0425
57835SOL    HW282474   9.740   5.172  11.548  1.8048  1.4732 -0.2530
57836SOL     OW82475   6.091   1.701   3.500  0.4193  0.0053 -0.5203
57836SOL    HW182476   6.012   1.753   3.509 -0.2755 -0.3918 -3.2368
57836SOL    HW282477   6.147   1.752   3.441  1.2119 -0.7279 -0.4287
57837SOL     OW82478  10.762   7.336   2.908  0.5213 -0.2565 -0.4145
57837SOL    HW182479  10.839   7.339   2.852 -0.1937  0.8119 -1.3812
57837SOL    HW282480  10.789   7.283   2.983  1.2416 -2.4556 -2.1337
57838SOL     OW82481   7.870   8.487   2.565  0.5051  0.0074 -0.1461
57838SOL    HW182482   7.843   8.411   2.616 -1.2137 -0.2149 -1.3129
57838SOL    HW282483   7.927   8.536   2.624  0.3057 -1.3246  1.2138
57839SOL     OW82484   5.839   3.404   2.301 -0.3531  0.2255 -0.3068
57839SOL    HW182485   5.801   3.424   2.387 -2.3993  0.5158 -1.2233
57839SOL    HW282486   5.786   3.453   2.239  1.5211  0.5684 -1.7277
57840SOL     OW82487   8.930  11.820  11.350 -0.5375 -0.0007 -0.2064
57840SOL    HW182488   8.947  11.870  11.430 -0.8385 -0.5954  0.2337
57840SOL    HW282489   9.002  11.843  11.292  1.8657 -2.4093  1.5792
57841SOL     OW82490   2.851   6.835   1.746 -0.1938  0.8479 -0.7405
57841SOL    HW182491   2.760   6.850   1.722 -1.1436  0.9130  2.4743
57841SOL    HW282492   2.885   6.922   1.769 -0.2671  0.4740  0.8874
57842SOL     OW82493   6.919   7.626  10.426  0.1626 -0.1100  0.3525
57842SOL    HW182494   6.872   7.706  10.404 -0.5330 -0.8192 -0.8214
57842SOL    HW282495   6.874   7.591  10.502 -1.0170 -0.5948 -0.5463
57843SOL     OW82496   5.866  10.841   6.208 -0.1867 -1.2635 -0.2701
57843SOL    HW182497   5.901  10.872   6.125 -0.8840 -1.0162 -0.4794
57843SOL    HW282498   5.929  10.872   6.274 -0.6609  0.2849 -0.5088
57844SOL     OW82499   6.241   3.716   6.150  0.3901 -0.1202  0.2784
57844SOL    HW182500   6.229   3.688   6.059  2.0996 -0.6824  0.2003
57844SOL    HW282501   6.167   3.677   6.196 -1.9630  2.2195 -1.2264
57845SOL     OW82502   4.947  10.682   9.422  0.5601 -0.1961  0.1260
57845SOL    HW182503   5.015  10.632   9.378 -0.7006 -1.9173  0.0384
57845SOL    HW282504   4.978  10.689   9.513  1.7596  0.7855 -0.3312
57846SOL     OW82505   6.933   0.640  12.001 -0.3084  0.1540  0.5010
57846SOL    HW182506   6.944   0.678  12.089 -0.0655  0.1366  0.4788
57846SOL    HW282507   6.971   0.552  12.008 -1.4806 -0.3580  0.7413
57847SOL     OW82508  10.450  11.068   3.028  0.5855  0.1567  0.1638
57847SOL    HW182509  10.467  11.015   3.106  1.0840  2.0754  1.4094
57847SOL    HW282510  10.526  11.054   2.972  0.8110 -0.2598  0.5707
57848SOL     OW82511  12.151  10.400   8.530 -0.6868 -0.1323  0.0947
57848SOL    HW182512  12.158  10.484   8.486  0.2050  0.3215  1.0526
57848SOL    HW282513  12.236  10.388   8.572  0.0856 -2.6724 -1.9733
57849SOL     OW82514   8.910   6.829   5.520  0.1352 -0.4952  0.6317
57849SOL    HW182515   8.878   6.882   5.447 -1.3460 -1.0242  0.8644
57849SOL    HW282516   8.856   6.750   5.519  0.5234 -0.8158  1.9071
57850SOL     OW82517   3.553   6.227   9.507  0.2664  0.3204 -0.0658
57850SOL    HW182518   3.594   6.296   9.560  0.7344  0.3194 -0.4232
57850SOL    HW282519   3.583   6.244   9.418  0.4009 -0.3555 -0.1566
57851SOL     OW82520   0.928   7.158   7.494  0.3735  0.2281 -0.0177
57851SOL    HW182521   0.940   7.205   7.412  2.5409 -1.5245 -0.8044
57851SOL    HW282522   0.928   7.226   7.562  1.2307  1.4965 -1.2558
57852SOL     OW82523   1.070   0.435   4.339  0.2326  0.2438  0.5466
57852SOL    HW182524   1.139   0.389   4.387  0.3868 -0.0786  0.0247
57852SOL    HW282525   1.108   0.452   4.253 -0.6272 -0.6936 -0.0416
57853SOL     OW82526   5.632   4.632   4.192 -0.0031 -0.5322  0.3429
57853SOL    HW182527   5.604   4.707   4.140  1.4263  0.6446  1.2009
57853SOL    HW282528   5.596   4.556   4.146 -0.0570  0.5637 -1.5065
57854SOL     OW82529   4.351   4.067   3.107  0.1347 -0.1229 -0.7010
57854SOL    HW182530   4.377   3.975   3.107 -0.2485 -0.2333 -0.6061
57854SOL    HW282531   4.315   4.082   3.020  1.4510  0.3057 -1.1942
57855SOL     OW82532   7.296   6.445  11.456  0.3100 -0.3358  1.3818
57855SOL    HW182533   7.268   6.366  11.503  2.0178 -1.1779  1.0819
57855SOL    HW282534   7.370   6.478  11.507  2.8928 -1.8360 -1.0865
57856SOL     OW82535   2.251   7.993   5.783  0.6022 -0.2923 -0.5194
57856SOL    HW182536   2.286   7.930   5.720  1.3544 -0.8925  0.4574
57856SOL    HW282537   2.321   8.057   5.795 -0.1701  0.7701 -1.5247
57857SOL     OW82538   0.593   2.584  11.758  0.1668  1.0112 -0.1062
57857SOL    HW182539   0.537   2.519  11.716 -1.3733  0.6935  2.2210
57857SOL    HW282540   0.676   2.540  11.772 -0.6882 -0.3350  0.9608
57858SOL     OW82541   8.487  11.545   7.558  0.0725  0.0756  1.0592
57858SOL    HW182542   8.469  11.451   7.569 -0.0942 -0.2385 -1.2503
57858SOL    HW282543   8.573  11.548   7.516 -0.1257  0.9382  0.7028
57859SOL     OW82544  12.203   1.082  11.938  0.5776  0.1282 -0.4534
57859SOL    HW182545  12.286   1.110  11.899  1.1948 -1.3672 -0.2465
57859SOL    HW282546  12.137   1.100  11.871  1.2114  0.3463 -1.0196
57860SOL     OW82547   7.611   8.275   3.073  0.1697  0.1138  0.3834
57860SOL    HW182548   7.620   8.181   3.085  3.5864 -0.0590 -1.9556
57860SOL    HW282549   7.697   8.310   3.099  0.8037  1.8443 -3.4286
57861SOL     OW82550   9.704  11.991   8.772  0.1425  0.0547 -0.2059
57861SOL    HW182551   9.687  12.083   8.794  1.0154 -0.0040  0.8081
57861SOL    HW282552   9.784  11.993   8.720 -1.1177  0.0509 -2.2255
57862SOL     OW82553   6.134  11.122   4.776 -0.5898 -0.0669  0.0897
57862SOL    HW182554   6.223  11.149   4.751  0.0450 -2.5506 -0.7026
57862SOL    HW282555   6.129  11.138   4.870  1.4877 -1.6587  0.5471
57863SOL     OW82556  12.535   2.653  12.295 -0.1807  0.4988 -0.2540
57863SOL    HW182557  12.505   2.732  12.249 -0.5283 -0.6785 -2.1733
57863SOL    HW282558  12.631   2.661  12.297 -0.2825  1.9618  1.5528
57864SOL     OW82559   0.767   4.073   2.278 -0.1379 -0.0685 -0.6888
57864SOL    HW182560   0.673   4.060   2.262 -0.2304  1.0691 -1.2433
57864SOL    HW282561   0.792   4.139   2.213  0.3473  1.9470  1.3998
57865SOL     OW82562   5.192   9.729   7.163 -0.2579 -0.0825 -0.1405
57865SOL    HW182563   5.148   9.757   7.244 -0.7507  2.5835 -1.2422
57865SOL    HW282564   5.285   9.746   7.179 -0.3378  0.3073 -0.0983
57866SOL     OW82565   8.520   6.433   6.987  0.1659 -1.0647 -0.0318
57866SOL    HW182566   8.452   6.380   7.030  1.2137 -2.5494 -0.1069
57866SOL    HW282567   8.523   6.399   6.898  0.4948 -0.4941 -0.2402
57867SOL     OW82568  10.018   3.709  11.831 -0.5561  0.1808 -0.0527
57867SOL    HW182569   9.969   3.773  11.883  0.1110  0.2407  0.5100
57867SOL    HW282570   9.974   3.710  11.745 -0.9378  0.9360  0.1414
57868SOL     OW82571   6.361  11.127   6.389  0.4772 -0.6135 -0.4228
57868SOL    HW182572   6.272  11.163   6.394  1.4005  1.6779  3.9948
57868SOL    HW282573   6.406  11.184   6.327  0.1278  1.7777  1.3926
57869SOL     OW82574   7.664  11.037   3.461 -0.3522  0.0637 -0.2822
57869SOL    HW182575   7.641  11.130   3.466 -0.4070  0.0076  0.9726
57869SOL    HW282576   7.647  11.004   3.550 -0.0253 -1.0707 -0.6279
57870SOL     OW82577   4.130   0.156   6.553  0.8962  0.4149 -0.3540
57870SOL    HW182578   4.148   0.205   6.473 -2.4176 -0.8916 -2.0918
57870SOL    HW282579   4.080   0.217   6.608  1.5014  0.6807 -0.0842
57871SOL     OW82580   1.018   6.599   4.496 -0.4082 -0.2545  0.1286
57871SOL    HW182581   0.925   6.601   4.520 -0.4222  0.2326  0.0399
57871SOL    HW282582   1.064   6.592   4.580 -0.4573  1.3821  0.3188
57872SOL     OW82583   3.709   3.492   2.546 -0.8960 -0.2062  0.4133
57872SOL    HW182584   3.715   3.446   2.629 -1.8661  2.6782  2.2398
57872SOL    HW282585   3.616   3.491   2.524 -0.6521 -0.9369 -0.6854
57873SOL     OW82586   7.669   6.775   1.588  0.2420 -0.3438 -0.3019
57873SOL    HW182587   7.748   6.746   1.633 -1.5406 -4.2726  0.7545
57873SOL    HW282588   7.678   6.870   1.583  2.6369  0.0009  4.4916
57874SOL     OW82589  10.334   9.292   1.043  0.1526 -0.2709  0.1627
57874SOL    HW182590  10.285   9.282   1.124  1.0663  1.5932  1.0248
57874SOL    HW282591  10.425   9.303   1.071  0.3714  1.4414 -0.9875
57875SOL     OW82592   9.921   1.330   5.374 -0.4053  0.2582  0.6041
57875SOL    HW182593   9.951   1.345   5.464  1.1575 -0.2771  0.2069
57875SOL    HW282594   9.946   1.239   5.355 -0.9325  0.2876 -0.2882
57876SOL     OW82595   5.672  11.531   5.841  0.5009  0.8715  0.5450
57876SOL    HW182596   5.685  11.625   5.852  0.2038  0.7344  2.2977
57876SOL    HW282597   5.586  11.524   5.799  2.0568  1.4513 -3.1180
57877SOL     OW82598  11.109   1.903   2.767  0.0830  0.1842  0.3397
57877SOL    HW182599  11.026   1.931   2.805 -0.0335  1.2332 -0.6304
57877SOL    HW282600  11.176   1.952   2.814  0.0183  0.6510 -0.0485
57878SOL     OW82601   3.738  11.559   5.588 -0.5946  0.5509  0.0289
57878SOL    HW182602   3.790  11.619   5.641 -2.3342  1.7994  0.4378
57878SOL    HW282603   3.729  11.603   5.504 -0.5890  0.1273 -0.1950
57879SOL     OW82604  11.924   4.835   8.019  0.4836 -0.3005 -0.1522
57879SOL    HW182605  11.886   4.763   8.070 -1.4955 -0.9532 -2.3318
57879SOL    HW282606  11.859   4.905   8.026  0.6017 -0.0965 -1.0407
57880SOL     OW82607   0.859   6.972  11.714  0.2451  0.5956 -0.5611
57880SOL    HW182608   0.897   7.059  11.719  1.3744  0.3966 -3.5127
57880SOL    HW282609   0.782   6.983  11.659  1.7215 -0.5281 -3.0232
57881SOL     OW82610   1.895   7.589   5.474 -0.1406  0.2473  0.2952
57881SOL    HW182611   1.841   7.510   5.478  0.1088  0.1142  2.9221
57881SOL    HW282612   1.982   7.558   5.450 -0.5564  0.0562 -0.9964
57882SOL     OW82613  12.407   1.958   2.938  0.2876  0.8519 -0.3981
57882SOL    HW182614  12.452   2.014   3.001 -1.0981 -0.8889  2.3075
57882SOL    HW282615  12.475   1.932   2.876  3.3343 -1.8890  3.6025
57883SOL     OW82616   9.929   9.221   8.748 -0.2419 -0.0922 -0.3980
57883SOL    HW182617   9.890   9.179   8.824 -2.2636 -1.2023 -1.9275
57883SOL    HW282618  10.023   9.227   8.768 -0.6841 -0.4246  2.0667
57884SOL     OW82619   7.459   0.623   6.052  0.3268  0.0993  0.0744
57884SOL    HW182620   7.490   0.640   6.141  1.8053  0.7620 -0.5362
57884SOL    HW282621   7.522   0.560   6.017  0.5188  0.8157 -0.9146
57885SOL     OW82622   4.118   5.069   9.133  0.0232 -0.1427  0.0447
57885SOL    HW182623   4.060   5.144   9.123 -0.9117 -0.9869 -1.2626
57885SOL    HW282624   4.167   5.065   9.051  0.0017 -1.0023  0.0638
57886SOL     OW82625   7.112   2.105   8.190  0.1377  0.2993  0.3372
57886SOL    HW182626   7.031   2.136   8.148  0.0110  1.8913  1.6808
57886SOL    HW282627   7.180   2.163   8.157  0.5577 -0.3120  0.0984
57887SOL     OW82628   4.706  11.090   7.525  0.2432  0.0519  0.2561
57887SOL    HW182629   4.752  11.170   7.498  0.9323 -0.7924 -1.1800
57887SOL    HW282630   4.636  11.121   7.582  1.1692  1.5807  0.6300
57888SOL     OW82631   7.437   2.863   0.613 -0.6702  0.1220 -0.6104
57888SOL    HW182632   7.443   2.768   0.612  0.0870  0.1522 -0.0895
57888SOL    HW282633   7.494   2.892   0.542 -1.8351  0.1644 -1.5557
57889SOL     OW82634   4.979   7.926   6.122  0.5016  0.1142  0.0928
57889SOL    HW182635   5.016   7.923   6.034  0.3658  0.4702  0.0254
57889SOL    HW282636   4.889   7.895   6.111  1.2979 -2.6948  0.5456
57890SOL     OW82637  11.398  11.845   9.217  0.2325  0.2897  0.0405
57890SOL    HW182638  11.393  11.772   9.279 -0.9376  0.8446  0.6497
57890SOL    HW282639  11.457  11.815   9.149  0.2095 -1.0124  0.5599
57891SOL     OW82640   7.700   4.427   7.560 -0.3797  0.8630  0.5971
57891SOL    HW182641   7.722   4.404   7.650  2.1543 -3.7696 -0.8633
57891SOL    HW282642   7.634   4.363   7.535  1.4524 -0.2889 -1.6806
57892SOL     OW82643   7.525   2.587   0.937  0.1361 -0.3710 -0.5846
57892SOL    HW182644   7.573   2.595   0.854  2.0048 -1.8487  0.2779
57892SOL    HW282645   7.477   2.505   0.930 -0.9554  0.2698 -0.7803
57893SOL     OW82646  11.411   5.477   7.652  0.7057 -0.4561  0.1678
57893SOL    HW182647  11.408   5.513   7.741  1.2647 -0.7528  0.3137
57893SOL    HW282648  11.461   5.395   7.661 -0.6523 -1.3503 -0.1303
57894SOL     OW82649   7.628   5.271  10.088  0.5097 -0.0249  0.2849
57894SOL    HW182650   7.561   5.337  10.075  0.3097 -0.2677  0.0648
57894SOL    HW282651   7.705   5.320  10.119  0.6524  0.4397 -0.7576
57895SOL     OW82652   7.586   7.729   9.995 -0.2689  0.0222  0.1665
57895SOL    HW182653   7.586   7.650  10.050 -2.9165 -0.0233  0.2051
57895SOL    HW282654   7.511   7.719   9.938  0.1542  1.9052 -0.8065
57896SOL     OW82655   9.472   5.352   2.578  0.7288  0.1889  0.3087
57896SOL    HW182656   9.493   5.445   2.579 -0.3468  0.4468  0.6935
57896SOL    HW282657   9.395   5.345   2.522  0.1280 -0.2958  1.1613
57897SOL     OW82658   6.606   0.670   1.837 -0.2065 -0.0295 -0.0514
57897SOL    HW182659   6.583   0.680   1.744  0.3786  0.5597 -0.1344
57897SOL    HW282660   6.522   0.677   1.883 -0.4711 -0.0969 -0.5145
57898SOL     OW82661   3.245   3.046   0.148  0.2144  0.2563  0.3871
57898SOL    HW182662   3.178   3.114   0.155  0.3973  0.8411 -2.2414
57898SOL    HW282663   3.306   3.064   0.220 -0.7618  1.7075  0.8946
57899SOL     OW82664   1.217   6.571   6.670 -0.5474 -0.4286  0.3965
57899SOL    HW182665   1.123   6.588   6.676 -0.1618  1.8290  1.3375
57899SOL    HW282666   1.232   6.495   6.726 -1.8145 -0.8190  0.2239
57900SOL     OW82667   7.204   9.549   1.625 -1.0346 -0.1233  0.8372
57900SOL    HW182668   7.244   9.467   1.596 -1.3402  0.0935 -0.2509
57900SOL    HW282669   7.116   9.548   1.587  0.2198  2.4715 -2.7171
57901SOL     OW82670   9.599   4.799   3.643 -0.3675  0.3188 -0.3848
57901SOL    HW182671   9.514   4.780   3.683 -0.9167  0.3814 -1.4759
57901SOL    HW282672   9.659   4.734   3.680 -0.9407  0.1384  0.2291
57902SOL     OW82673   6.584   9.536   9.470 -0.3100 -0.4953 -0.6576
57902SOL    HW182674   6.619   9.494   9.548 -1.6418  1.2032  0.9556
57902SOL    HW282675   6.609   9.628   9.479 -1.1607 -0.1162 -1.8233
57903SOL     OW82676   9.504   3.434  10.491  0.6511  0.1573  0.1384
57903SOL    HW182677   9.521   3.431  10.397  1.3158 -0.6249  0.2723
57903SOL    HW282678   9.548   3.357  10.526  0.0891  0.2297  1.0458
57904SOL     OW82679  11.874   1.814   0.236 -0.2127  0.6098  0.5000
57904SOL    HW182680  11.784   1.847   0.242 -0.5895 -0.4839  0.9953
57904SOL    HW282681  11.866   1.719   0.245  1.0384  0.5354  1.0022
57905SOL     OW82682   1.801  10.475   8.653  0.0930  0.1788 -0.1866
57905SOL    HW182683   1.824  10.528   8.577  0.0576  2.1319  1.0841
57905SOL    HW282684   1.739  10.410   8.619  0.7482  0.4293 -1.9690
57906SOL     OW82685   1.963   7.218   1.436 -0.2386 -0.3501  0.0000
57906SOL    HW182686   1.953   7.298   1.384  0.8744  0.5790  1.1757
57906SOL    HW282687   2.054   7.193   1.425 -0.4778 -1.2599 -0.0313
57907SOL     OW82688  10.509   4.648   6.096 -0.1677  0.4022 -0.6605
57907SOL    HW182689  10.420   4.674   6.120  0.5207  0.6656  1.8379
57907SOL    HW282690  10.555   4.731   6.082 -0.5092  0.2684 -3.0637
57908SOL     OW82691  10.775  11.865   3.847  0.0457  0.1085 -0.3983
57908SOL    HW182692  10.724  11.786   3.829 -1.7783  1.7445 -3.2347
57908SOL    HW282693  10.800  11.857   3.939 -2.0707 -2.6528  0.0656
57909SOL     OW82694   1.540  12.559  10.401 -0.0272 -0.0269 -0.4296
57909SOL    HW182695   1.557  12.632  10.341  0.3509 -0.0911 -0.4038
57909SOL    HW282696   1.453  12.577  10.436 -1.4734 -1.4248 -3.0399
57910SOL     OW82697   4.479   5.061  11.649  0.0827  0.4233 -0.1856
57910SOL    HW182698   4.430   4.998  11.597  0.2247 -0.4274  0.6812
57910SOL    HW282699   4.420   5.086  11.720  0.1989  0.8961 -0.2512
57911SOL     OW82700   1.473   3.282  10.275 -0.2751 -0.0984  0.1404
57911SOL    HW182701   1.507   3.198  10.307 -0.8509 -0.5167 -0.3288
57911SOL    HW282702   1.459   3.268  10.182 -0.7489  0.3930  0.1362
57912SOL     OW82703   3.336   8.582   8.236  0.7388  1.1929  0.8937
57912SOL    HW182704   3.378   8.668   8.230  1.4085  0.7925 -1.6795
57912SOL    HW282705   3.409   8.520   8.240  0.2975  0.6761  1.0524
57913SOL     OW82706   7.995  11.676   1.460 -0.0918  0.4200 -0.2594
57913SOL    HW182707   8.072  11.642   1.504 -0.6849  0.4765  0.8432
57913SOL    HW282708   7.946  11.598   1.434 -0.6463  0.4031  0.8203
57914SOL     OW82709   0.218   9.530   0.984 -0.0779  0.6999  0.6600
57914SOL    HW182710   0.168   9.470   0.929 -3.6215  2.4500  1.6444
57914SOL    HW282711   0.225   9.610   0.932  0.6028  0.9146  1.0646
57915SOL     OW82712  10.129   1.103   5.540  0.0697  0.1280 -0.0190
57915SOL    HW182713  10.097   1.181   5.586  0.3768 -0.1966  0.7633
57915SOL    HW282714  10.090   1.109   5.453 -4.4483 -1.6021  1.5750
57916SOL     OW82715   3.022   1.293   9.035  0.0242 -0.3469  0.1083
57916SOL    HW182716   3.025   1.324   9.125 -2.2013  0.0455  0.0914
57916SOL    HW282717   3.069   1.360   8.985 -1.4000  1.0792  0.5910
57917SOL     OW82718   7.743  11.988   3.278  0.3981  1.0074  0.5059
57917SOL    HW182719   7.759  12.019   3.368 -2.2983  1.2014  0.9927
57917SOL    HW282720   7.738  12.068   3.226  0.6642  0.9595  0.4025
57918SOL     OW82721   8.934   7.410   1.850 -0.1049  0.1047  0.1051
57918SOL    HW182722   8.882   7.336   1.818  0.7883 -1.3921  1.9162
57918SOL    HW282723   8.876   7.455   1.912 -1.1206  1.8032 -1.9575
57919SOL     OW82724   3.081  12.555   9.119 -0.3031  0.4098 -0.3323
57919SOL    HW182725   3.017  12.484   9.114  0.1785 -0.0208 -0.3995
57919SOL    HW282726   3.093  12.570   9.212 -0.7815  0.7495 -0.3206
57920SOL     OW82727   7.789   1.281   9.784 -0.0222 -0.2726  0.6746
57920SOL    HW182728   7.871   1.241   9.814 -0.0809 -0.3582  0.7180
57920SOL    HW282729   7.799   1.374   9.804 -0.4082 -0.4524  1.7154
57921SOL     OW82730   1.751   5.661   8.926  0.2212 -0.2253  0.5649
57921SOL    HW182731   1.671   5.712   8.933  1.3546  1.7155 -0.0195
57921SOL    HW282732   1.817   5.723   8.895  1.3640 -2.3469 -1.5664
57922SOL     OW82733   6.736   5.202   7.799  0.2596 -0.1966  0.2942
57922SOL    HW182734   6.792   5.279   7.784  0.2342 -0.1536  0.4225
57922SOL    HW282735   6.786   5.148   7.860 -0.5602  0.6275  1.7530
57923SOL     OW82736  12.275  11.007   2.883  0.0994 -0.4229 -0.0827
57923SOL    HW182737  12.291  11.035   2.973 -0.7634 -0.7029  0.1684
57923SOL    HW282738  12.202  10.946   2.889  0.4823 -0.9898 -0.8954
57924SOL     OW82739   6.563   5.970   4.557 -0.3775 -0.3508  0.0305
57924SOL    HW182740   6.503   5.934   4.492 -1.1229  1.0508 -0.1141
57924SOL    HW282741   6.637   6.004   4.507 -0.4312 -0.2585  0.0129
57925SOL     OW82742   5.212   4.016   5.185 -0.8201 -0.2446  0.2967
57925SOL    HW182743   5.294   4.001   5.138  0.4107  3.4607  0.9830
57925SOL    HW282744   5.146   4.022   5.117  0.2072  0.7871 -0.6414
57926SOL     OW82745  12.432   3.090   2.260  0.0386 -0.1762 -0.3667
57926SOL    HW182746  12.457   3.180   2.279  1.0811 -0.9793  2.5562
57926SOL    HW282747  12.402   3.092   2.169 -0.0347  3.0975 -0.3782
57927SOL     OW82748   3.650   9.660   0.292 -0.0515  0.5640 -0.0692
57927SOL    HW182749   3.571   9.659   0.238 -0.6357  1.1321  0.7489
57927SOL    HW282750   3.712   9.713   0.241  0.2106 -0.8020 -1.2315
57928SOL     OW82751   0.980   4.451   4.449 -0.6451  0.3815 -0.0006
57928SOL    HW182752   1.000   4.508   4.374 -0.4732  0.2097 -0.0866
57928SOL    HW282753   0.955   4.368   4.409 -0.3421  0.2228  0.1372
57929SOL     OW82754   9.072   3.775   4.554  0.6309  0.3472 -0.3146
57929SOL    HW182755   9.088   3.868   4.572  1.5365  0.3251 -0.9781
57929SOL    HW282756   9.125   3.728   4.618 -0.6344  0.2560  0.7265
57930SOL     OW82757   6.082   5.485   7.498 -0.1948  0.0780 -0.4435
57930SOL    HW182758   6.012   5.495   7.562 -0.2440 -0.6010 -0.3816
57930SOL    HW282759   6.135   5.564   7.507 -0.4309  0.1690  0.1576
57931SOL     OW82760   2.904  10.045   1.877 -0.1203 -0.0430  0.2046
57931SOL    HW182761   2.963   9.970   1.883  1.3562  1.0418 -0.0807
57931SOL    HW282762   2.850  10.027   1.800  1.7267  0.1660 -1.2261
57932SOL     OW82763   0.126   3.818   0.934  0.1042 -0.1772  0.1123
57932SOL    HW182764   0.055   3.825   0.997  0.7290 -1.4745  1.0121
57932SOL    HW282765   0.162   3.906   0.926 -1.5254  0.4831 -0.3016
57933SOL     OW82766   7.417   8.959   8.547  0.3035 -0.0174 -0.1364
57933SOL    HW182767   7.391   9.023   8.481 -1.8513 -0.1807  0.4613
57933SOL    HW282768   7.334   8.922   8.578  1.3199 -0.9178  1.6814
57934SOL     OW82769  11.053  11.582   0.165 -0.1471  0.3383  0.4372
57934SOL    HW182770  11.125  11.572   0.103  0.4432 -0.7545  1.2672
57934SOL    HW282771  10.981  11.532   0.126 -0.9859  2.5700 -1.0904
57935SOL     OW82772   0.908   6.482   1.434 -0.2289 -0.0039  0.0591
57935SOL    HW182773   0.822   6.521   1.448 -1.0315 -1.8527  0.5889
57935SOL    HW282774   0.942   6.466   1.522  0.7887  0.9009 -0.1391
57936SOL     OW82775   6.433   2.704   2.108  0.2619 -0.3693 -0.0000
57936SOL    HW182776   6.397   2.791   2.092  0.3825 -0.1279  0.9817
57936SOL    HW282777   6.357   2.646   2.110 -0.0764  0.0701  1.5943
57937SOL     OW82778   2.515  11.646  10.694  0.3323  0.5384  0.3095
57937SOL    HW182779   2.596  11.647  10.744  0.9439  0.2496 -0.6565
57937SOL    HW282780   2.520  11.566  10.641 -0.2188  0.9086 -0.3246
57938SOL     OW82781   1.573   8.575   2.838 -0.5030  0.4843  0.3078
57938SOL    HW182782   1.571   8.540   2.928 -0.4041  0.6016  0.3570
57938SOL    HW282783   1.519   8.515   2.787 -0.3192  0.2500  0.3879
57939SOL     OW82784   5.027   8.389   5.989  0.1892  0.0542  0.4525
57939SOL    HW182785   4.957   8.431   5.939 -1.3898 -1.3472  1.3564
57939SOL    HW282786   5.076   8.337   5.925 -1.6205 -1.4880  0.2143
57940SOL     OW82787   2.196   3.881  11.685 -0.4057  0.0836 -0.1955
57940SOL    HW182788   2.201   3.975  11.705  1.4646 -0.5263  2.8261
57940SOL    HW282789   2.170   3.840  11.768  1.6534 -2.2781 -0.6010
57941SOL     OW82790   0.809   5.198   1.730  0.1557 -0.4919 -0.4782
57941SOL    HW182791   0.890   5.147   1.732  0.4789  0.0175 -0.2231
57941SOL    HW282792   0.783   5.198   1.638  2.3800  2.2772 -1.2502
57942SOL     OW82793   1.018   7.736   0.384 -0.3759 -0.6845 -0.7631
57942SOL    HW182794   0.974   7.703   0.462  0.6039  1.5662  0.8766
57942SOL    HW282795   1.101   7.689   0.382  0.2017  0.2127  0.4489
57943SOL     OW82796   0.325   4.682   5.262  0.2960 -0.1550  0.1572
57943SOL    HW182797   0.359   4.600   5.227 -0.9436 -0.3646 -0.6048
57943SOL    HW282798   0.262   4.712   5.197 -2.9670 -1.1250  2.5969
57944SOL     OW82799   6.358   7.884  10.753  0.0737 -0.0080 -0.0857
57944SOL    HW182800   6.290   7.944  10.720  0.3114  0.5932  0.4891
57944SOL    HW282801   6.345   7.804  10.703 -1.0938  0.0787  0.0379
57945SOL     OW82802  12.007   7.965   3.871  0.2030 -0.3319  0.3541
57945SOL    HW182803  11.947   8.008   3.932  0.1746 -0.9409  0.7717
57945SOL    HW282804  11.999   8.015   3.790 -0.0796  0.2336  0.7190
57946SOL     OW82805   4.077   7.759   0.065  0.3331 -0.0914 -0.1783
57946SOL    HW182806   4.075   7.855   0.068  2.3286  0.0120 -0.7044
57946SOL    HW282807   4.132   7.734   0.139 -0.4829 -0.8707  0.1805
57947SOL     OW82808  10.543  10.289   3.113 -0.1712 -0.7180  0.4458
57947SOL    HW182809  10.628  10.290   3.070  0.3891 -0.6621  1.5273
57947SOL    HW282810  10.491  10.227   3.062  0.8140 -1.4614  0.3188
57948SOL     OW82811  11.293   4.672   0.037  0.7897  0.3826  0.1594
57948SOL    HW182812  11.334   4.720   0.109 -0.6494 -0.8918  1.9381
57948SOL    HW282813  11.336   4.705  -0.041  1.5226  2.7991  1.4709
57949SOL     OW82814   9.018   7.452   6.999 -0.0594  0.0033  0.2314
57949SOL    HW182815   9.087   7.412   7.052 -0.6816 -0.4750  0.6908
57949SOL    HW282816   8.939   7.403   7.021 -1.0990  2.1593  1.6765
57950SOL     OW82817   5.455   0.735   0.947 -0.3599  0.6753 -0.2066
57950SOL    HW182818   5.420   0.809   0.897 -0.1373  1.7588  1.1805
57950SOL    HW282819   5.486   0.774   1.028 -1.8186 -1.1763  1.3370
57951SOL     OW82820   3.889   1.855   7.883  0.2535 -0.3336  0.7393
57951SOL    HW182821   3.863   1.769   7.916 -2.1180  0.5147  1.2238
57951SOL    HW282822   3.820   1.880   7.822  1.5575  0.7193 -0.3942
57952SOL     OW82823   8.383   1.429   7.748  0.5235  0.4153  0.2571
57952SOL    HW182824   8.467   1.466   7.775  0.6326 -0.5863  1.3673
57952SOL    HW282825   8.350   1.490   7.682  1.4322  1.6223  0.8757
57953SOL     OW82826   2.419   0.076   9.199  0.1389  0.0842 -0.2973
57953SOL    HW182827   2.459   0.144   9.254 -1.0956 -0.9279  1.9393
57953SOL    HW282828   2.492   0.043   9.146  1.3234  1.3053  0.4961
57954SOL     OW82829   9.017   2.673   8.345 -0.2475  0.2549 -0.1687
57954SOL    HW182830   9.000   2.762   8.314 -0.3870 -0.1307 -1.2347
57954SOL    HW282831   8.958   2.618   8.293  0.2327 -0.5151  0.0892
57955SOL     OW82832   3.178   4.333   3.046 -0.2820 -0.4476  0.3455
57955SOL    HW182833   3.156   4.246   3.081 -0.6814 -0.6795 -0.4485
57955SOL    HW282834   3.201   4.385   3.123 -0.5123 -1.1224  0.8811
57956SOL     OW82835   6.815   1.508   5.002  0.4422  0.3255  0.0103
57956SOL    HW182836   6.846   1.447   5.068  1.0626  2.2306  1.5634
57956SOL    HW282837   6.736   1.547   5.039  0.1988  0.6723 -0.8288
57957SOL     OW82838   7.164  10.445  10.145 -0.3174  0.6963 -0.4619
57957SOL    HW182839   7.097  10.386  10.110 -0.6416 -0.7048  2.2332
57957SOL    HW282840   7.120  10.493  10.216  0.7711  1.9393 -0.5857
57958SOL     OW82841  11.163  10.574  10.106  0.4651  0.2668 -0.3645
57958SOL    HW182842  11.198  10.494  10.145 -0.4588 -0.1071 -0.2880
57958SOL    HW282843  11.180  10.565  10.013  1.7228  0.6789 -0.1935
57959SOL     OW82844   7.182   3.372   0.735  0.3223 -0.1119  0.0943
57959SOL    HW182845   7.256   3.398   0.790  0.2280  1.2835 -0.4085
57959SOL    HW282846   7.127   3.450   0.730 -1.0129 -1.0029  0.1450
57960SOL     OW82847   0.136   6.840   6.438 -0.4207  0.3466 -0.0606
57960SOL    HW182848   0.184   6.919   6.463 -0.0026 -0.2202  0.9919
57960SOL    HW282849   0.147   6.835   6.343 -1.0255  1.9041 -0.2406
57961SOL     OW82850   5.041   5.581  12.114 -0.1166  0.0841  0.6491
57961SOL    HW182851   5.053   5.644  12.042  0.5279 -1.8649 -1.0506
57961SOL    HW282852   4.947   5.582  12.130 -0.5246 -0.6271 -1.4175
57962SOL     OW82853   5.991  12.038   1.044  0.0813 -0.2633 -0.0682
57962SOL    HW182854   6.013  12.010   0.955 -1.2080  0.3947 -0.6161
57962SOL    HW282855   6.048  12.113   1.061  0.5987 -0.6213 -0.1665
57963SOL     OW82856   4.706  12.056   2.055 -0.6661  0.1912 -0.5188
57963SOL    HW182857   4.755  12.119   2.001  0.2111 -0.6677 -0.7498
57963SOL    HW282858   4.764  11.980   2.063 -0.0484  0.8288  2.9303
57964SOL     OW82859   8.958   3.932   8.761  0.0491 -0.5070 -0.2142
57964SOL    HW182860   8.896   4.002   8.780  0.3231  0.1598 -1.6600
57964SOL    HW282861   8.960   3.879   8.841 -0.1111  1.1707  0.9425
57965SOL     OW82862   0.293  10.050   4.456  0.2154 -0.6021 -0.4502
57965SOL    HW182863   0.315  10.133   4.415 -1.4696  0.1828  0.1590
57965SOL    HW282864   0.324  10.059   4.546  0.2508 -0.7415 -0.4481
57966SOL     OW82865  10.344   4.044   0.055 -0.4228  0.0635 -0.4741
57966SOL    HW182866  10.390   3.961   0.040  2.1326  1.7543 -2.6729
57966SOL    HW282867  10.271   4.042  -0.007 -1.3716 -1.1275  0.6016
57967SOL     OW82868   1.385   0.327   7.207 -0.4125  0.4542 -0.0145
57967SOL    HW182869   1.338   0.367   7.134 -1.1454  0.1233  0.2588
57967SOL    HW282870   1.318   0.317   7.275  0.3074  0.9759  0.7905
57968SOL     OW82871   2.265   8.299   2.007  0.5351  0.1484  0.3130
57968SOL    HW182872   2.329   8.371   2.005 -0.0915  0.7214 -1.9147
57968SOL    HW282873   2.310   8.226   1.965  0.3454 -0.0331  0.4260
57969SOL     OW82874   5.000  10.303   3.051 -0.4620 -0.1999 -0.5027
57969SOL    HW182875   5.061  10.274   3.118 -1.7381 -0.9986  0.3574
57969SOL    HW282876   4.987  10.226   2.995  0.7813  0.5262 -1.8641
57970SOL     OW82877   4.591   1.193   7.482  0.7198  0.0827 -0.0180
57970SOL    HW182878   4.514   1.140   7.463 -0.2781  1.4951 -0.0945
57970SOL    HW282879   4.665   1.135   7.466 -0.3297 -1.6121  1.0052
57971SOL     OW82880   8.615   8.075   4.772 -0.7035 -0.3070 -0.4080
57971SOL    HW182881   8.576   8.159   4.749  0.1374 -0.0673 -0.9887
57971SOL    HW282882   8.578   8.054   4.857 -0.6386  0.8276 -0.0890
57972SOL     OW82883   4.373   8.665   7.973 -0.2330 -0.4424 -0.4039
57972SOL    HW182884   4.354   8.590   7.916 -0.2834  0.2020 -1.2648
57972SOL    HW282885   4.409   8.626   8.053  0.5195 -1.3432 -1.1523
57973SOL     OW82886  11.495   4.096  12.194 -0.2493 -0.1493 -0.3327
57973SOL    HW182887  11.472   4.128  12.281  0.5250  1.2308 -0.6067
57973SOL    HW282888  11.535   4.010  12.210  0.7644  0.5007  0.7727
57974SOL     OW82889   7.668  11.771   7.436 -0.1721  0.3675 -0.0058
57974SOL    HW182890   7.612  11.736   7.366 -0.1843 -2.3844  1.2449
57974SOL    HW282891   7.755  11.737   7.415  0.1388  0.8669  0.4707
57975SOL     OW82892   1.712  11.140   5.540  0.0105  0.2457 -0.1408
57975SOL    HW182893   1.728  11.059   5.493  0.8934  0.3114  0.0148
57975SOL    HW282894   1.781  11.199   5.510  0.6486  0.2610  1.2663
57976SOL     OW82895   5.024   1.078   3.714  0.2054 -0.4521  0.2621
57976SOL    HW182896   5.074   1.037   3.785  0.4453  2.6409  2.0415
57976SOL    HW282897   4.941   1.103   3.754  0.5183  1.7544 -0.3205
57977SOL     OW82898   7.046   8.113   1.997  0.4187  0.4367 -0.9176
57977SOL    HW182899   6.964   8.162   1.997 -0.3289 -0.7358 -2.4035
57977SOL    HW282900   7.021   8.026   2.030  1.1608  0.2243 -0.9143
57978SOL     OW82901  10.659   1.069  11.447  0.0298 -0.1165  0.2076
57978SOL    HW182902  10.716   1.104  11.515 -3.1756 -0.6371  3.4912
57978SOL    HW282903  10.625   1.146  11.402  1.4168  0.3064 -0.1530
57979SOL     OW82904  11.518   2.238   4.488 -0.4845  0.1978  0.0790
57979SOL    HW182905  11.544   2.178   4.418  0.3447  1.3390 -0.6283
57979SOL    HW282906  11.528   2.187   4.568  0.0167 -0.6672 -0.5136
57980SOL     OW82907  12.014   1.918   6.031  0.4323 -0.3307  0.6911
57980SOL    HW182908  11.955   1.971   5.977 -0.8666 -0.4341  1.9661
57980SOL    HW282909  12.080   1.886   5.969  0.1363  1.1650 -0.4627
57981SOL     OW82910   1.042   4.169   6.596 -0.4032  0.5102  0.2382
57981SOL    HW182911   1.068   4.261   6.589  0.9227  0.0918 -0.6153
57981SOL    HW282912   1.124   4.121   6.597 -0.7265 -0.5072  4.9658
57982SOL     OW82913   3.862   8.347   7.835 -0.4106 -0.2395  0.1394
57982SOL    HW182914   3.914   8.280   7.790  2.3720  1.5327  0.4252
57982SOL    HW282915   3.889   8.342   7.926  0.1658  1.4358  0.1089
57983SOL     OW82916   5.845   7.420  10.298  0.7050 -0.4835 -0.2183
57983SOL    HW182917   5.939   7.411  10.311  0.9801 -1.6938 -2.4553
57983SOL    HW282918   5.810   7.333  10.320  0.6610 -1.2209 -2.8936
57984SOL     OW82919  11.728   9.029  12.449  0.1502  0.1768  0.2049
57984SOL    HW182920  11.653   9.022  12.509  1.3403  0.2622  1.7799
57984SOL    HW282921  11.744   8.939  12.422 -0.1241  0.0715  0.3737
57985SOL     OW82922   1.773  10.425   9.840  0.4919 -0.2865 -0.1477
57985SOL    HW182923   1.819  10.401   9.759 -0.4905 -1.0065 -0.5094
57985SOL    HW282924   1.823  10.499   9.874  1.0991 -0.1585 -1.2551
57986SOL     OW82925   5.160   1.435  10.679  0.1290  0.1186 -0.0210
57986SOL    HW182926   5.144   1.427  10.772 -1.0625 -0.6009 -0.2729
57986SOL    HW282927   5.252   1.411  10.668  0.2687  0.1956  0.9569
57987SOL     OW82928   8.020   9.643   8.842  0.0257 -0.1269 -0.3930
57987SOL    HW182929   8.016   9.574   8.776 -0.3015 -0.6113  0.1293
57987SOL    HW282930   7.935   9.639   8.886  1.0827 -1.3726  1.6297
57988SOL     OW82931  10.393  10.297   2.566  0.2228 -0.4804 -0.2246
57988SOL    HW182932  10.353  10.373   2.525  0.9177 -0.7065 -1.3548
57988SOL    HW282933  10.441  10.333   2.641 -0.3854  0.0484 -0.0844
57989SOL     OW82934   7.506  11.556   2.934  0.7467  0.4754 -0.3887
57989SOL    HW182935   7.590  11.535   2.894  0.4021 -1.8923 -0.0254
57989SOL    HW282936   7.445  11.563   2.861  0.6031 -1.3695 -0.4861
57990SOL     OW82937   0.550  11.336   0.171  0.1938  0.5706 -0.3101
57990SOL    HW182938   0.579  11.378   0.090  0.6376  2.0599  0.5797
57990SOL    HW282939   0.514  11.252   0.143  0.1303  1.1415 -2.0753
57991SOL     OW82940   9.976   2.042  12.337 -0.5045 -0.3936  0.4281
57991SOL    HW182941  10.063   2.022  12.372 -0.7167  0.1101  1.2734
57991SOL    HW282942   9.917   2.030  12.412 -1.0720 -0.0969  0.0315
57992SOL     OW82943  11.721   3.764  10.770  0.1149 -0.3251 -0.3048
57992SOL    HW182944  11.664   3.839  10.751 -0.2912 -0.3208  0.8252
57992SOL    HW282945  11.680   3.691  10.723 -0.3105 -0.1367 -0.2324
57993SOL     OW82946   2.785   9.986  10.941  0.0918 -0.2858 -0.1641
57993SOL    HW182947   2.839   9.920  10.986 -0.5512  0.1454  1.3063
57993SOL    HW282948   2.698   9.975  10.980 -0.5694 -0.0737 -1.5506
57994SOL     OW82949   5.174   3.932   9.479 -0.1342  0.2599 -1.0902
57994SOL    HW182950   5.243   3.953   9.417  1.8961  1.9931  1.5243
57994SOL    HW282951   5.188   3.840   9.501  0.7772  0.3507 -1.2701
57995SOL     OW82952  12.022   9.148  10.807 -0.7233 -0.4122 -0.3181
57995SOL    HW182953  12.069   9.077  10.763  0.1446  0.7903 -1.4048
57995SOL    HW282954  11.942   9.107  10.840  0.0665 -2.0322 -0.3325
57996SOL     OW82955   0.293   6.834   9.048 -0.2811 -0.8437  0.0142
57996SOL    HW182956   0.213   6.814   9.097  0.0470 -0.1395  0.8559
57996SOL    HW282957   0.263   6.844   8.957 -1.6279  1.9396  0.6507
57997SOL     OW82958   5.158   3.253   2.139  0.1450 -0.3671 -0.1271
57997SOL    HW182959   5.145   3.273   2.046  0.0624 -0.8637 -0.2260
57997SOL    HW282960   5.182   3.337   2.178  0.5054 -0.2130 -0.6594
57998SOL     OW82961   6.491   9.632   3.052 -0.3825  0.2011 -0.1856
57998SOL    HW182962   6.570   9.579   3.059 -0.8994 -0.3056  3.3942
57998SOL    HW282963   6.492   9.663   2.961  2.7200 -1.5506 -0.9125
57999SOL     OW82964   0.786   4.717   0.718  0.1760  0.1346 -0.2617
57999SOL    HW182965   0.721   4.772   0.675 -0.8386 -0.8445 -0.0125
57999SOL    HW282966   0.755   4.627   0.705  2.1451 -0.4764 -1.2708
58000SOL     OW82967   2.565   5.000   6.199 -0.1717  0.1230  0.3434
58000SOL    HW182968   2.483   4.971   6.240 -0.4250  0.4215  0.0469
58000SOL    HW282969   2.572   5.092   6.221  0.4488 -0.0605  0.9646
58001SOL     OW82970   2.495   7.514  10.588  0.1888 -0.0721  0.1688
58001SOL    HW182971   2.411   7.499  10.632  1.0806 -0.2377  1.9211
58001SOL    HW282972   2.493   7.606  10.563 -1.2172 -0.5072 -1.4396
58002SOL     OW82973  12.343   3.510   9.731 -0.2458 -0.2082  0.0534
58002SOL    HW182974  12.282   3.462   9.675 -0.9180 -1.4822  1.7944
58002SOL    HW282975  12.294   3.585   9.763 -1.1162 -1.4222  1.7371
58003SOL     OW82976   3.419   6.681   1.531 -0.2568  0.3917  0.4264
58003SOL    HW182977   3.443   6.667   1.623 -1.4657 -1.6062  0.4949
58003SOL    HW282978   3.462   6.764   1.508  1.0532  0.3544  2.4248
58004SOL     OW82979  11.912   6.454   0.073  0.1354 -0.6408 -0.1329
58004SOL    HW182980  11.874   6.538   0.100 -0.6989 -1.6849  2.1544
58004SOL    HW282981  11.996   6.478   0.033 -1.1399  1.4355 -1.7836
58005SOL     OW82982  10.229   3.380   4.005  0.0456  0.0746 -0.2630
58005SOL    HW182983  10.294   3.449   3.994  0.0572  0.1741  0.3893
58005SOL    HW282984  10.272   3.315   4.060 -0.6584  0.5196  0.8752
58006SOL     OW82985   8.874   1.553   8.032 -0.1094  0.8946 -0.1850
58006SOL    HW182986   8.873   1.457   8.031 -0.4932  0.8984 -0.2717
58006SOL    HW282987   8.819   1.577   8.107 -1.5242  1.0618 -1.2317
58007SOL     OW82988   4.802  11.015   6.086  0.1361  0.4982 -0.0867
58007SOL    HW182989   4.885  11.040   6.046 -0.5357  0.7125 -1.3896
58007SOL    HW282990   4.807  10.919   6.092  0.8150  0.5644  0.6612
58008SOL     OW82991   5.531  11.997   2.249 -0.1185 -0.5946  0.4188
58008SOL    HW182992   5.440  12.013   2.276 -0.2422  0.3575 -0.4893
58008SOL    HW282993   5.552  12.071   2.191  1.0927 -1.0355  0.2701
58009SOL     OW82994   4.824   7.456   6.065  0.2897 -0.1193  0.4031
58009SOL    HW182995   4.906   7.503   6.079  0.6047  0.3845 -2.5637
58009SOL    HW282996   4.776   7.508   6.001 -2.0641 -0.7926  1.5024
58010SOL     OW82997   3.030   3.766   0.649 -0.0577  0.8332  0.2258
58010SOL    HW182998   2.965   3.829   0.680 -0.6647  0.1107  0.4234
58010SOL    HW282999   2.990   3.726   0.571  0.6136  1.1772 -0.3108
58011SOL     OW83000  11.749  10.080   3.398 -0.5049 -0.1010  0.1782
58011SOL    HW183001  11.676  10.101   3.457  0.4219 -0.4609  1.4953
58011SOL    HW283002  11.810  10.152   3.409 -0.2997 -0.1945 -0.3311
58012SOL     OW83003  10.500   7.224   5.638 -0.1307  0.3559 -0.2659
58012SOL    HW183004  10.551   7.153   5.678 -2.2450 -0.6475  0.8202
58012SOL    HW283005  10.525   7.302   5.688  1.2476  0.1632 -0.6114
58013SOL     OW83006  11.895   5.163   9.764 -0.1874  0.5916 -0.1303
58013SOL    HW183007  11.855   5.249   9.776 -1.4985 -0.0957  0.6154
58013SOL    HW283008  11.893   5.123   9.851 -1.5598 -0.9963 -0.8339
58014SOL     OW83009   7.504  11.190   1.764  0.4165 -0.3789 -0.0009
58014SOL    HW183010   7.469  11.257   1.823 -0.4653 -0.4495 -0.4332
58014SOL    HW283011   7.597  11.184   1.787 -0.1615 -1.3846  2.3383
58015SOL     OW83012   1.161   8.719  10.646  0.0165 -0.7521 -0.0855
58015SOL    HW183013   1.066   8.734  10.644 -0.0269 -1.0602 -0.5306
58015SOL    HW283014   1.186   8.711  10.554  0.4244 -0.9848  0.0416
58016SOL     OW83015   4.741   7.028   1.230 -0.0799 -0.0294 -0.3446
58016SOL    HW183016   4.658   7.014   1.276  0.9158  0.1092  1.5697
58016SOL    HW283017   4.784   6.943   1.231 -0.1516 -0.0898 -1.2951
58017SOL     OW83018  11.224   4.667   1.520  0.0455 -0.1418 -0.2690
58017SOL    HW183019  11.213   4.722   1.443  0.0273 -2.0810 -1.7162
58017SOL    HW283020  11.317   4.644   1.521  0.0735 -0.0232  0.3691
58018SOL     OW83021   3.004  12.043   5.335 -0.3513  0.1430 -0.1107
58018SOL    HW183022   3.064  11.968   5.328 -1.6407 -0.9216 -0.0403
58018SOL    HW283023   2.931  12.010   5.386 -0.8004  1.5672  0.1893
58019SOL     OW83024   1.721   0.403   3.313  0.0756  0.0725  0.4537
58019SOL    HW183025   1.709   0.313   3.342 -0.9974 -0.2915 -0.9989
58019SOL    HW283026   1.633   0.440   3.312  0.0977  0.2238 -1.6327
58020SOL     OW83027   7.394   5.489   6.044 -0.1475 -0.0547  0.0976
58020SOL    HW183028   7.422   5.578   6.022 -0.2131  0.0131  0.2874
58020SOL    HW283029   7.324   5.470   5.981 -0.4624  0.2095  0.3650
58021SOL     OW83030   3.785   9.241  10.832  0.5850 -0.0704  0.6835
58021SOL    HW183031   3.851   9.288  10.883  0.5666  0.7935 -0.0676
58021SOL    HW283032   3.733   9.309  10.790 -0.7426 -0.7372  1.1877
58022SOL     OW83033  11.712   7.115   9.528  0.3692 -0.1450 -0.2038
58022SOL    HW183034  11.796   7.157   9.514  0.3296 -0.3930 -1.3302
58022SOL    HW283035  11.697   7.120   9.622  1.2825  0.5762 -0.0870
58023SOL     OW83036  11.171   7.808   7.739 -0.3892 -0.0942 -0.3583
58023SOL    HW183037  11.132   7.889   7.772  0.9028  1.1161 -1.6369
58023SOL    HW283038  11.229   7.779   7.808 -0.4383  0.3892 -0.1085
58024SOL     OW83039   5.361   6.090   4.210  0.2038 -0.2091 -0.4573
58024SOL    HW183040   5.293   6.038   4.253  0.3475  0.4939  0.6801
58024SOL    HW283041   5.369   6.052   4.123 -1.7446 -0.2184 -0.6728
58025SOL     OW83042   9.170   2.235   7.622 -0.3692 -0.2589 -0.0239
58025SOL    HW183043   9.244   2.273   7.669  0.2180 -0.0423 -1.0910
58025SOL    HW283044   9.171   2.143   7.648 -1.0367  0.1594  1.6027
58026SOL     OW83045  11.913   5.948   2.696 -0.3753  0.3510  0.5951
58026SOL    HW183046  11.953   5.889   2.632 -1.5505 -0.0022  0.1569
58026SOL    HW283047  11.826   5.966   2.661 -0.1114  2.2365  0.8014
58027SOL     OW83048   7.619  12.290   1.385  0.4186  0.0069  0.1984
58027SOL    HW183049   7.549  12.355   1.375 -0.7711 -1.0485  1.2526
58027SOL    HW283050   7.575  12.214   1.424  2.0026 -1.0005  0.0914
58028SOL     OW83051  12.130   9.225   6.831 -0.1461 -0.3035  0.0466
58028SOL    HW183052  12.176   9.302   6.863  0.5577 -0.6128 -0.2046
58028SOL    HW283053  12.090   9.253   6.748 -1.7917  0.4346  1.0357
58029SOL     OW83054  11.835   4.352   3.597 -0.3382 -0.4369 -0.0014
58029SOL    HW183055  11.750   4.387   3.623  0.2226  1.4641 -0.6191
58029SOL    HW283056  11.898   4.393   3.657  0.5993  1.5270 -2.1958
58030SOL     OW83057   8.785  10.471  10.212  0.1774  0.3323  0.0533
58030SOL    HW183058   8.832  10.406  10.264  1.8035  0.8744 -0.6784
58030SOL    HW283059   8.799  10.444  10.121  1.0898  1.8004 -0.2766
58031SOL     OW83060   7.193   2.498  11.199  0.2012  0.9446 -0.1233
58031SOL    HW183061   7.184   2.541  11.283 -0.3066 -0.1357  0.3998
58031SOL    HW283062   7.285   2.512  11.174  0.4285  1.0380  0.7428
58032SOL     OW83063   6.304   6.992   1.797  0.1231 -0.1097 -0.0389
58032SOL    HW183064   6.248   6.915   1.786 -1.0916  0.6601  0.5159
58032SOL    HW283065   6.312   7.029   1.709  0.6199 -0.8015 -0.2877
58033SOL     OW83066  12.125   2.311   2.118 -0.2606  0.2268 -0.3132
58033SOL    HW183067  12.201   2.270   2.076 -0.2231  0.8314 -0.8443
58033SOL    HW283068  12.060   2.319   2.048 -0.9691 -0.6427  0.2285
58034SOL     OW83069   7.299   4.270   5.194 -0.4100 -0.2248 -0.0733
58034SOL    HW183070   7.321   4.194   5.248 -2.0136 -0.8018 -0.1511
58034SOL    HW283071   7.302   4.237   5.104  2.7355  0.8542 -0.4718
58035SOL     OW83072   2.150   9.288   5.743 -0.1674  0.2782 -0.5417
58035SOL    HW183073   2.217   9.221   5.730  0.2142  0.4246  0.5714
58035SOL    HW283074   2.185   9.365   5.697  0.3317  0.2809 -0.1738
58036SOL     OW83075   1.885   7.971   7.336 -0.0531  0.0264  0.0816
58036SOL    HW183076   1.798   7.992   7.370  0.0059 -0.2655  0.4133
58036SOL    HW283077   1.868   7.934   7.249 -0.1438  1.6131 -0.5999
58037SOL     OW83078   6.095   2.822   5.519  0.6366  0.0920 -0.0207
58037SOL    HW183079   6.161   2.764   5.482  1.0120  0.5038 -0.0066
58037SOL    HW283080   6.123   2.910   5.494 -0.5289  0.2045 -0.9847
58038SOL     OW83081   7.862   0.803   6.230 -0.3185  0.2705 -0.0322
58038SOL    HW183082   7.927   0.840   6.289 -0.1480 -1.4686  0.9190
58038SOL    HW283083   7.895   0.825   6.142  0.4774  1.1320  0.4603
58039SOL     OW83084   0.576   8.585   9.423  0.2962 -0.3181  0.8620
58039SOL    HW183085   0.554   8.494   9.402  0.9192  0.0338 -1.7397
58039SOL    HW283086   0.670   8.584   9.438  0.5722  0.0569 -0.6322
58040SOL     OW83087   4.631   7.279   6.977  0.2528 -0.0420 -0.1297
58040SOL    HW183088   4.687   7.211   7.014 -1.0531 -0.8416  0.4459
58040SOL    HW283089   4.616   7.250   6.887  0.2147 -0.1908 -0.0770
58041SOL     OW83090   8.589  11.214   3.349  0.3765 -0.2962 -0.4869
58041SOL    HW183091   8.633  11.235   3.431  0.3518 -2.8625  0.2646
58041SOL    HW283092   8.642  11.144   3.310 -0.4723 -0.2160 -1.8734
58042SOL     OW83093   2.764   2.429   7.136  0.1795 -0.4516 -0.0356
58042SOL    HW183094   2.720   2.429   7.051  2.5591 -1.6547 -1.3983
58042SOL    HW283095   2.758   2.519   7.167 -0.5469  0.0785 -1.6158
58043SOL     OW83096  12.338   6.748   5.748 -0.2851  0.1411 -0.0801
58043SOL    HW183097  12.371   6.660   5.767 -0.8957  0.0183  0.4577
58043SOL    HW283098  12.383   6.774   5.667 -1.2773 -1.3100 -1.1498
58044SOL     OW83099  10.000   9.622   3.140 -0.1743 -0.4907  0.4653
58044SOL    HW183100   9.977   9.630   3.048  0.0193 -2.5873  0.1880
58044SOL    HW283101   9.916   9.615   3.186 -0.2670 -2.0655  0.1188
58045SOL     OW83102   6.053  11.707   9.320  0.0451  0.1950 -0.2120
58045SOL    HW183103   5.991  11.657   9.267 -1.0645 -0.2746  1.4457
58045SOL    HW283104   6.133  11.655   9.321 -0.0935 -0.0349 -0.9935
58046SOL     OW83105   6.961   3.314   6.594  0.4950 -0.3705 -0.7592
58046SOL    HW183106   7.012   3.300   6.514 -0.3180 -1.3445 -1.1317
58046SOL    HW283107   6.881   3.264   6.580  1.5907 -3.1636  1.9014
58047SOL     OW83108   2.863   8.202   3.165  0.0271 -0.4153 -0.1180
58047SOL    HW183109   2.888   8.275   3.221 -1.0168 -2.0277  2.6783
58047SOL    HW283110   2.782   8.231   3.122  0.7277  0.7697 -0.6937
58048SOL     OW83111   9.958   3.627  10.125  0.1538 -0.1438 -0.2083
58048SOL    HW183112   9.867   3.640  10.151 -0.1503 -0.9950 -0.7860
58048SOL    HW283113   9.964   3.665  10.037  0.2808 -0.3332 -0.2828
58049SOL     OW83114   8.885   4.567   7.181  0.4177 -0.1432 -0.0053
58049SOL    HW183115   8.943   4.552   7.256  0.7926 -1.1937 -0.4793
58049SOL    HW283116   8.932   4.628   7.125 -0.2544  1.3690  1.0199
58050SOL     OW83117   4.251   7.071   2.697 -0.3081  0.0039 -0.2507
58050SOL    HW183118   4.268   7.029   2.613  1.4655  1.2891 -0.6080
58050SOL    HW283119   4.334   7.062   2.745 -1.5488 -1.5152  1.7701
58051SOL     OW83120   6.798   6.251   5.765 -0.4142  0.2808 -0.2920
58051SOL    HW183121   6.870   6.193   5.787 -1.6691 -1.0284  0.5714
58051SOL    HW283122   6.723   6.193   5.753 -1.2899  1.5733 -1.4189
58052SOL     OW83123   1.459   2.512   9.179 -0.2447 -0.2578  0.0249
58052SOL    HW183124   1.387   2.572   9.158  0.1492  0.9056  1.8019
58052SOL    HW283125   1.519   2.564   9.232  1.0507 -1.7235  0.0614
58053SOL     OW83126   9.510   2.266   3.105 -0.3191  1.1423  0.0068
58053SOL    HW183127   9.460   2.331   3.154  0.0356  0.4274  1.3624
58053SOL    HW283128   9.583   2.316   3.067  0.5166  1.4222  1.8492
58054SOL     OW83129   0.913  11.680   5.614 -0.2923 -0.5321 -0.1066
58054SOL    HW183130   0.982  11.700   5.677  1.4116  2.4995 -2.6556
58054SOL    HW283131   0.839  11.735   5.641  0.5325  0.9837 -0.8034
58055SOL     OW83132   1.126   4.815   5.062  0.0359 -0.6170  0.2380
58055SOL    HW183133   1.062   4.789   4.996  2.0231  0.4129 -2.2607
58055SOL    HW283134   1.110   4.909   5.075  0.0067 -0.6997  0.8151
58056SOL     OW83135   0.757   7.927   6.643  0.4119  0.7915 -0.0948
58056SOL    HW183136   0.800   7.963   6.565  0.4189  0.5367 -0.2079
58056SOL    HW283137   0.817   7.859   6.674 -1.2723 -1.7076 -1.9841
58057SOL     OW83138   0.926   3.842   9.511  0.5918  0.5098 -0.0662
58057SOL    HW183139   0.886   3.927   9.490 -0.7958  0.0710  0.6970
58057SOL    HW283140   0.878   3.811   9.587  1.4647 -0.7163  0.0078
58058SOL     OW83141   7.024   3.686   2.727  0.0666  0.1226  0.0156
58058SOL    HW183142   7.022   3.592   2.710  0.9691  0.1775 -0.4094
58058SOL    HW283143   7.100   3.698   2.783 -0.4188  0.5233  0.6007
58059SOL     OW83144   6.286   1.709   6.459 -0.2555  0.2342  0.5602
58059SOL    HW183145   6.326   1.639   6.511 -0.6607 -1.8975 -1.7680
58059SOL    HW283146   6.351   1.779   6.460  0.9318 -0.8241  1.6767
58060SOL     OW83147   6.474   3.532   4.496  0.0181  0.6855  0.1427
58060SOL    HW183148   6.501   3.623   4.484 -0.6359  0.7200 -1.2568
58060SOL    HW283149   6.401   3.520   4.435 -1.3836 -0.1554  1.8734
58061SOL     OW83150   6.337  10.629   3.229  0.4522  0.1794  0.0486
58061SOL    HW183151   6.422  10.586   3.229 -0.0690 -1.1855 -3.0521
58061SOL    HW283152   6.352  10.712   3.184 -0.0006 -0.6542 -1.7351
58062SOL     OW83153   0.391  11.902   5.973  0.2080  0.2983 -0.3882
58062SOL    HW183154   0.364  11.950   5.894 -0.5370 -0.4706 -0.6253
58062SOL    HW283155   0.312  11.899   6.027  1.2282  2.5817  1.3558
58063SOL     OW83156   7.102   6.908   3.119  0.3105  0.0015 -0.2719
58063SOL    HW183157   7.049   6.932   3.043 -0.8392  2.8783  1.2692
58063SOL    HW283158   7.057   6.832   3.157 -1.2343  0.7876 -0.4619
58064SOL     OW83159  11.016  12.387  10.144 -0.2282  0.1418  0.3884
58064SOL    HW183160  11.061  12.461  10.183 -0.4854  0.6481 -0.2602
58064SOL    HW283161  10.956  12.356  10.211 -1.8582  2.0072 -0.1184
58065SOL     OW83162   5.091   6.066   7.313  0.2874 -0.0897 -0.0431
58065SOL    HW183163   5.104   6.150   7.358  1.3586  0.0268 -0.5271
58065SOL    HW283164   5.141   6.076   7.231 -0.2992 -0.8838 -0.5027
58066SOL     OW83165   0.142   1.005   4.373  0.0059 -0.3602  0.1113
58066SOL    HW183166   0.106   0.929   4.420 -0.3857 -2.0538 -2.6856
58066SOL    HW283167   0.065   1.059   4.353 -0.0643 -0.5438 -0.1125
58067SOL     OW83168   5.426   9.873   0.486 -0.2781  0.6962  0.3240
58067SOL    HW183169   5.519   9.894   0.477 -0.8536  2.7271 -1.7988
58067SOL    HW283170   5.391   9.940   0.544 -0.4491 -0.0121  1.0515
58068SOL     OW83171  11.714   9.164   1.793  0.4067 -0.1552 -0.2945
58068SOL    HW183172  11.655   9.095   1.824  1.2266 -0.8481 -0.2377
58068SOL    HW283173  11.702   9.236   1.855 -1.5281  0.3598 -1.1590
58069SOL     OW83174   6.867  10.631   2.896  0.9119  1.1185  0.0497
58069SOL    HW183175   6.863  10.535   2.896 -1.7513  1.1492 -0.8137
58069SOL    HW283176   6.951  10.651   2.856  1.7361 -0.8520  0.6880
58070SOL     OW83177   3.325   6.866   0.572 -0.3509  0.2515 -0.3198
58070SOL    HW183178   3.354   6.940   0.519 -1.2400 -0.2429 -1.5657
58070SOL    HW283179   3.396   6.851   0.634  0.0162  1.8826 -0.3036
58071SOL     OW83180   0.302   5.157   5.585 -0.2487 -0.4538 -0.1729
58071SOL    HW183181   0.337   5.174   5.498 -0.2258  0.8437  0.0745
58071SOL    HW283182   0.369   5.101   5.627 -0.0661 -0.7392 -0.8263
58072SOL     OW83183   1.161   1.472   7.677 -0.7619 -0.0100  0.3182
58072SOL    HW183184   1.070   1.476   7.647 -0.2485 -0.8542 -1.4989
58072SOL    HW283185   1.208   1.428   7.606  1.1467  0.7367  1.0444
58073SOL     OW83186  11.226  11.927   7.421 -0.2582  0.5272  0.2659
58073SOL    HW183187  11.138  11.959   7.437 -0.1346  0.7323  0.5392
58073SOL    HW283188  11.258  11.899   7.507  0.1805  1.0674  0.2903
58074SOL     OW83189   6.348   2.945   2.063 -0.0981 -0.4441  0.0442
58074SOL    HW183190   6.375   3.030   2.096  1.6146 -0.4198 -1.2837
58074SOL    HW283191   6.257   2.958   2.034  0.5254  1.3074 -1.2669
58075SOL     OW83192  11.871   3.942   8.323  0.4576  0.1556 -0.1932
58075SOL    HW183193  11.881   3.863   8.270 -0.4189  0.0988 -0.2814
58075SOL    HW283194  11.831   3.911   8.405 -1.9378  0.7625 -1.0508
58076SOL     OW83195   6.944   9.005  11.606  0.0902  0.6864 -0.3563
58076SOL    HW183196   6.870   9.064  11.597  0.5722  1.3279 -0.2246
58076SOL    HW283197   6.917   8.941  11.671 -0.3376  0.9290 -0.2934
58077SOL     OW83198   8.980   1.360   7.190 -0.2175  0.4470 -0.0861
58077SOL    HW183199   9.012   1.324   7.272 -0.0822  1.4517  0.3110
58077SOL    HW283200   9.009   1.451   7.190 -1.2438  0.7921 -0.6977
58078SOL     OW83201   8.003   3.423   0.553 -0.3762 -0.1618 -0.1138
58078SOL    HW183202   7.928   3.429   0.494 -0.7693  2.1460  0.4917
58078SOL    HW283203   7.971   3.458   0.636  0.6505 -1.6956  0.9735
58079SOL     OW83204   1.227   6.951   4.130 -0.5747  0.2989 -0.0465
58079SOL    HW183205   1.208   6.867   4.087  2.3488 -0.3929 -0.2173
58079SOL    HW283206   1.239   7.012   4.057 -0.1983  0.2329 -0.0435
58080SOL     OW83207   0.042   3.197   7.986 -0.9330  0.5337  0.2852
58080SOL    HW183208   0.108   3.128   7.977 -2.1689 -0.7542  0.6356
58080SOL    HW283209   0.067   3.244   8.065 -1.0109 -0.6331  1.0308
58081SOL     OW83210   3.296   5.468  10.554 -0.3287  0.7461 -0.2943
58081SOL    HW183211   3.215   5.434  10.516 -1.2412  0.8153  1.5145
58081SOL    HW283212   3.337   5.517  10.482 -1.4426 -0.0126 -1.4879
58082SOL     OW83213   8.956  11.763   2.014  0.5314  0.1672 -0.1330
58082SOL    HW183214   8.982  11.751   1.923  1.1060  0.5183 -0.0200
58082SOL    HW283215   9.035  11.744   2.064  0.7063  1.5943  0.1966
58083SOL     OW83216  10.526  10.386   5.791 -0.4766  0.6150 -0.2136
58083SOL    HW183217  10.525  10.319   5.859  1.4525 -0.2924 -1.0090
58083SOL    HW283218  10.614  10.425   5.796 -0.9429  1.8296 -0.9590
58084SOL     OW83219   3.232   3.345   7.262 -0.1867  0.0056  0.0293
58084SOL    HW183220   3.326   3.356   7.253 -0.4300  0.9924 -1.5171
58084SOL    HW283221   3.196   3.367   7.177 -1.9799  1.5528  1.1049
58085SOL     OW83222   5.047   0.201   3.791  0.3686 -0.8042  0.0589
58085SOL    HW183223   4.954   0.186   3.808  0.0532 -0.4743 -1.2086
58085SOL    HW283224   5.076   0.121   3.747  0.5086 -0.6505 -0.1323
58086SOL     OW83225   4.914   4.231   7.028  0.3784  0.0020 -0.0882
58086SOL    HW183226   4.965   4.171   6.974 -0.1547 -0.7012  0.1735
58086SOL    HW283227   4.891   4.180   7.106  0.9221  0.9158  0.6978
58087SOL     OW83228  10.088   1.046  11.824  0.7872  0.0966 -0.2644
58087SOL    HW183229  10.039   0.992  11.762  0.8963  0.5129 -0.7170
58087SOL    HW283230  10.022   1.095  11.873  0.5875 -1.4994  1.1729
58088SOL     OW83231   3.557   0.275   6.748 -0.1999  0.0349 -0.2049
58088SOL    HW183232   3.484   0.335   6.734  1.4971  1.9293 -1.6336
58088SOL    HW283233   3.527   0.191   6.713 -1.3227  1.0266 -1.7554
58089SOL     OW83234   9.773   9.340  10.994  0.3611  0.4724 -0.7853
58089SOL    HW183235   9.678   9.351  10.996  0.1345 -1.1813 -1.0106
58089SOL    HW283236   9.802   9.396  10.922 -0.1722  2.5088  0.4750
58090SOL     OW83237  12.019   1.068   1.037  0.2344  0.1736  0.3554
58090SOL    HW183238  11.982   1.136   0.981  3.6163  0.6165 -1.5896
58090SOL    HW283239  11.991   0.985   0.997 -0.9618  0.4163  0.6544
58091SOL     OW83240   9.147   6.213   4.416  0.2277  0.5028 -0.8636
58091SOL    HW183241   9.193   6.266   4.350  0.7507  3.3567  1.6095
58091SOL    HW283242   9.072   6.266   4.441  0.5954 -0.0123  1.5098
58092SOL     OW83243   4.533   6.276   0.651 -0.4880  0.3172  0.0594
58092SOL    HW183244   4.455   6.326   0.674 -1.4038 -0.4987 -1.1730
58092SOL    HW283245   4.587   6.278   0.730 -1.9873  0.4667  1.1150
58093SOL     OW83246   9.926  10.071   6.332  0.2993 -0.4938 -0.5767
58093SOL    HW183247   9.969  10.038   6.253  1.5072 -0.4198  0.0270
58093SOL    HW283248   9.997  10.112   6.382 -0.2599 -1.3404  0.9602
58094SOL     OW83249   3.610   1.821   0.161 -0.0184  0.3519  0.1640
58094SOL    HW183250   3.571   1.746   0.117  0.4305 -0.6931  1.4620
58094SOL    HW283251   3.667   1.861   0.096 -1.4422  0.5201 -1.0357
58095SOL     OW83252  10.624   7.652   4.572 -0.1112  0.2311 -0.2063
58095SOL    HW183253  10.660   7.564   4.569  1.5462  0.8914 -0.6567
58095SOL    HW283254  10.677   7.698   4.637 -0.8463  0.9611 -0.1008
58096SOL     OW83255   9.348  10.821   1.607 -0.8090  0.3681  0.1101
58096SOL    HW183256   9.366  10.803   1.515  0.2966 -0.4452  0.4653
58096SOL    HW283257   9.352  10.916   1.614  1.5842  0.3362 -0.2249
58097SOL     OW83258   8.620   6.196   2.497  0.2020  0.2135  0.1468
58097SOL    HW183259   8.531   6.224   2.476  0.5648  1.3364  0.0459
58097SOL    HW283260   8.676   6.247   2.439  0.9198 -0.5214  0.1728
58098SOL     OW83261  12.252  11.311   3.769  0.7974 -0.6103 -0.4193
58098SOL    HW183262  12.187  11.243   3.750 -0.3564 -0.4070  2.3464
58098SOL    HW283263  12.298  11.280   3.847  0.8675  1.3490  0.3679
58099SOL     OW83264   6.799   3.536   5.262 -0.4391 -0.0157 -0.1365
58099SOL    HW183265   6.891   3.558   5.246 -0.9599  0.9446 -2.2295
58099SOL    HW283266   6.765   3.610   5.311  0.0114 -0.6393  1.1494
58100SOL     OW83267  11.490  10.505  11.866 -0.2478  0.5818 -0.5401
58100SOL    HW183268  11.406  10.530  11.906 -0.4437  0.1798 -0.6935
58100SOL    HW283269  11.550  10.575  11.891 -0.5420  0.6920 -0.1277
58101SOL     OW83270   2.446  11.961   7.321  0.7294  0.1375 -0.0879
58101SOL    HW183271   2.442  12.011   7.402  2.0479  0.4854 -0.2061
58101SOL    HW283272   2.412  12.019   7.254 -0.8372 -0.3311  0.2751
58102SOL     OW83273   1.783  10.136   7.543  0.2888 -0.6837 -0.2350
58102SOL    HW183274   1.852  10.097   7.490 -2.2949 -2.5939 -2.4404
58102SOL    HW283275   1.722  10.173   7.480 -1.1162  0.2952  1.6031
58103SOL     OW83276   6.034  11.804  10.751 -0.2055 -0.0408  0.0574
58103SOL    HW183277   6.114  11.841  10.789 -0.1972 -2.4671  2.7361
58103SOL    HW283278   5.964  11.833  10.809 -0.8259 -0.5761 -0.4054
58104SOL     OW83279   2.676  11.377  12.352  0.1917  0.6983  0.3040
58104SOL    HW183280   2.673  11.315  12.424 -1.1065  0.8225  0.3800
58104SOL    HW283281   2.648  11.327  12.276  0.1622  0.9208  0.1677
58105SOL     OW83282   9.246  10.722   0.949 -0.1704 -0.3231  0.2349
58105SOL    HW183283   9.152  10.705   0.942 -0.1116 -0.3174 -0.6730
58105SOL    HW283284   9.287  10.649   0.902  0.2167  0.4427 -0.6451
58106SOL     OW83285  11.990   5.012  10.408  0.1085  0.5179 -0.3729
58106SOL    HW183286  12.066   4.953  10.409 -0.0095  0.3721 -0.1651
58106SOL    HW283287  11.931   4.973  10.344  0.4235  0.9012 -0.9086
58107SOL     OW83288   5.444  11.085   4.856 -0.0374  0.1414  1.0610
58107SOL    HW183289   5.423  11.112   4.946 -0.6601 -1.7699  1.5353
58107SOL    HW283290   5.538  11.072   4.856 -0.1167 -0.4907  1.6428
58108SOL     OW83291  11.998   5.699   6.948 -0.0331  0.8067 -0.2857
58108SOL    HW183292  11.958   5.649   7.019  0.3802  1.0309  0.1081
58108SOL    HW283293  11.927   5.755   6.916 -0.2513  0.6306 -0.1223
58109SOL     OW83294   9.792  12.345   8.152  0.2194 -0.2321 -0.0226
58109SOL    HW183295   9.864  12.314   8.097  0.7471  0.4974  0.2489
58109SOL    HW283296   9.730  12.384   8.090 -0.7988 -2.3838 -0.4573
58110SOL     OW83297   7.988   6.643   4.982 -0.2846 -0.5733 -0.1208
58110SOL    HW183298   7.897   6.662   5.005 -0.3908 -0.3790 -0.6679
58110SOL    HW283299   7.983   6.566   4.926  0.0376 -1.5093  1.0933
58111SOL     OW83300   8.359  10.557   3.652 -0.0405 -0.3653  0.3448
58111SOL    HW183301   8.312  10.493   3.706 -0.0300 -0.8270 -0.1833
58111SOL    HW283302   8.325  10.642   3.681 -0.8319 -0.6651  0.3263
58112SOL     OW83303   5.524  12.424  10.449  0.1290  0.4892  0.0296
58112SOL    HW183304   5.455  12.444  10.512 -0.2549  0.3768 -0.3526
58112SOL    HW283305   5.570  12.348  10.486 -2.1447 -1.7016 -1.3602
58113SOL     OW83306   1.776   4.459  11.379  0.0297 -0.2165  0.2998
58113SOL    HW183307   1.681   4.459  11.382 -0.0919 -3.1115  0.0584
58113SOL    HW283308   1.803   4.491  11.465 -1.3226 -2.5411  1.7139
58114SOL     OW83309   3.148   8.495   8.409 -0.0952 -0.0871 -0.0160
58114SOL    HW183310   3.227   8.520   8.363  0.5069 -1.5236  0.1770
58114SOL    HW283311   3.087   8.568   8.395  0.1446 -0.3267 -2.7999
58115SOL     OW83312   2.360   2.739  10.169 -0.0462 -0.5338  0.1071
58115SOL    HW183313   2.334   2.811  10.111 -1.1058 -0.2014  0.9607
58115SOL    HW283314   2.294   2.671  10.154  0.2564 -0.8474  0.1866
58116SOL     OW83315   5.958   2.034   9.470 -0.2417  0.1024  0.1250
58116SOL    HW183316   5.863   2.038   9.472 -0.2035  1.5469  0.2785
58116SOL    HW283317   5.986   2.123   9.493  1.1517 -0.4707  0.7530
58117SOL     OW83318  11.277   4.165   5.775 -0.1271 -0.2197  0.2550
58117SOL    HW183319  11.190   4.160   5.736  0.2788 -2.2574 -0.5372
58117SOL    HW283320  11.337   4.169   5.700  0.5024  0.8214  0.7857
58118SOL     OW83321   5.118   0.117   6.235  0.2660  0.5429  0.2317
58118SOL    HW183322   5.196   0.083   6.193 -0.1664 -0.1391 -0.0238
58118SOL    HW283323   5.087   0.046   6.291  0.8350  1.4178  1.7423
58119SOL     OW83324   8.578   3.424   3.435  0.0036  0.5935 -0.0962
58119SOL    HW183325   8.527   3.440   3.515 -1.2028  1.1339 -0.9382
58119SOL    HW283326   8.665   3.460   3.454 -0.6186  1.8059  0.5660
58120SOL     OW83327   0.948   5.487   8.125 -0.1193  0.4347 -0.2374
58120SOL    HW183328   0.963   5.393   8.125  1.2569  0.6027 -1.9386
58120SOL    HW283329   0.909   5.505   8.211  2.2934 -1.2495  1.3413
58121SOL     OW83330   9.311   0.058  12.172 -0.2930  0.2302 -0.1949
58121SOL    HW183331   9.327  -0.035  12.154 -0.7817 -0.2551  1.6479
58121SOL    HW283332   9.397   0.099  12.163  0.2712 -0.7211  0.6344
58122SOL     OW83333   2.402  11.157   0.659  0.1107 -0.2664  0.2779
58122SOL    HW183334   2.405  11.242   0.702 -1.0876  0.1892 -0.4792
58122SOL    HW283335   2.471  11.105   0.701  1.1692  1.2196  0.4272
58123SOL     OW83336   4.356  11.559   6.164 -0.4014  0.1163  0.1858
58123SOL    HW183337   4.278  11.613   6.158 -0.1700  0.3588 -0.9922
58123SOL    HW283338   4.427  11.615   6.134  0.4368  0.2371  2.2417
58124SOL     OW83339   6.331   3.797   5.613 -0.4173  0.2009 -0.8034
58124SOL    HW183340   6.341   3.802   5.708 -0.8863 -1.6443 -0.6248
58124SOL    HW283341   6.358   3.708   5.590  0.1150  0.7518 -2.4715
58125SOL     OW83342   8.234   2.341   3.518 -0.3098  0.1009  0.6258
58125SOL    HW183343   8.233   2.352   3.423 -0.0410 -1.0557  0.4744
58125SOL    HW283344   8.144   2.362   3.545 -0.0897  1.5957  0.2774
58126SOL     OW83345   5.808   0.550   9.739  0.0768 -0.5502  0.4000
58126SOL    HW183346   5.713   0.561   9.739  0.1180  0.0108 -1.0548
58126SOL    HW283347   5.825   0.485   9.807 -1.4977 -1.9776 -0.5061
58127SOL     OW83348   8.597  11.873   4.431  0.3630 -0.2649 -0.3450
58127SOL    HW183349   8.615  11.794   4.380  2.6578  0.6621 -1.1247
58127SOL    HW283350   8.630  11.854   4.518  0.4229 -0.3546 -0.3873
58128SOL     OW83351   1.185  12.451   4.517 -0.1064  0.0761  0.2917
58128SOL    HW183352   1.188  12.449   4.612 -0.1233  2.3913  0.3781
58128SOL    HW283353   1.110  12.507   4.495 -0.0742 -0.3633 -1.0888
58129SOL     OW83354   1.680   6.663  10.034 -0.0163  0.4077  0.3995
58129SOL    HW183355   1.654   6.754  10.048 -0.3323  0.4440 -0.3722
58129SOL    HW283356   1.776   6.665  10.043  0.0064  0.8693  0.1185
58130SOL     OW83357   5.636   7.851   0.410 -0.1008  0.0902 -0.2713
58130SOL    HW183358   5.585   7.771   0.419 -0.8906  0.5477 -0.5749
58130SOL    HW283359   5.663   7.853   0.318  2.0053 -1.0440  0.2708
58131SOL     OW83360   0.715   4.740   6.576  0.2606  0.2458 -0.5050
58131SOL    HW183361   0.747   4.763   6.489 -0.3406  0.0989 -0.7714
58131SOL    HW283362   0.776   4.782   6.636  0.1757  1.0767 -0.9939
58132SOL     OW83363   4.603   2.089   7.973 -0.2892  0.2094  0.0158
58132SOL    HW183364   4.623   2.095   7.880 -0.5388  1.9598  0.0255
58132SOL    HW283365   4.688   2.086   8.017 -0.1703 -0.3813 -0.2545
58133SOL     OW83366   3.254   0.290   6.463 -0.3276 -0.0296 -0.2676
58133SOL    HW183367   3.171   0.254   6.432 -1.3846  0.4795  1.7941
58133SOL    HW283368   3.265   0.254   6.551  1.4745  0.2081 -0.3586
58134SOL     OW83369   7.495   0.834   9.235  0.1580  0.0115  0.2981
58134SOL    HW183370   7.439   0.757   9.232 -0.5858  0.5266  0.6167
58134SOL    HW283371   7.439   0.904   9.269  0.5857  0.8851 -0.7090
58135SOL     OW83372   6.946  10.521   2.565  0.8707 -0.1306  0.7341
58135SOL    HW183373   6.874  10.461   2.546  0.5703 -0.4688  2.7253
58135SOL    HW283374   6.951  10.578   2.489  0.3162 -1.8446 -0.6451
58136SOL     OW83375   8.889   6.408   5.529 -0.2256 -0.0449  0.3095
58136SOL    HW183376   8.809   6.459   5.519 -1.2655 -1.7644 -0.8817
58136SOL    HW283377   8.881   6.339   5.462  2.0585 -0.5197  0.4475
58137SOL     OW83378   0.263   2.342   2.845 -0.1072  0.0948  0.6208
58137SOL    HW183379   0.199   2.378   2.783 -0.3371 -0.7632  0.3353
58137SOL    HW283380   0.343   2.391   2.828 -0.3424  0.3066  0.0867
58138SOL     OW83381   5.128   9.953  11.508  0.2931  0.4545 -0.5985
58138SOL    HW183382   5.114  10.038  11.548 -0.1392 -0.0260  0.2983
58138SOL    HW283383   5.209   9.962  11.458 -0.1337  1.5981 -1.1113
58139SOL     OW83384   3.882  10.064   9.725 -0.6878 -0.1506 -0.2439
58139SOL    HW183385   3.792  10.034   9.716 -0.6658 -0.6484  1.0687
58139SOL    HW283386   3.892  10.085   9.818 -0.3625  2.9243 -0.8672
58140SOL     OW83387  10.218   2.784   3.756  0.6472  0.3344  0.1863
58140SOL    HW183388  10.127   2.814   3.749  0.1689 -0.7087  1.4374
58140SOL    HW283389  10.254   2.795   3.668 -0.8744  0.2152 -0.4837
58141SOL     OW83390   9.290   5.957  11.084  0.5092  0.3187 -0.2961
58141SOL    HW183391   9.224   5.958  11.154  0.8879  2.0569  0.0980
58141SOL    HW283392   9.255   5.898  11.018 -0.6034 -0.1606  0.6899
58142SOL     OW83393   5.543   0.128  11.795 -0.0704 -0.2970  0.3893
58142SOL    HW183394   5.514   0.037  11.787 -0.7584 -0.2307  1.8210
58142SOL    HW283395   5.474   0.170  11.845  0.7244  0.7964  0.5923
58143SOL     OW83396  12.535   6.110   5.283  0.0166 -0.3965 -0.6809
58143SOL    HW183397  12.600   6.087   5.217  0.0692 -0.3610 -0.6417
58143SOL    HW283398  12.469   6.041   5.276  0.0287 -0.3995 -0.7613
58144SOL     OW83399   7.983   1.101   2.834 -0.5316 -0.4720  0.5755
58144SOL    HW183400   8.007   1.014   2.866  1.8656 -0.0172  0.1555
58144SOL    HW283401   7.890   1.108   2.854 -0.6567 -2.8747  1.2011
58145SOL     OW83402   3.821   8.010   6.332 -0.7432 -0.1260  0.2978
58145SOL    HW183403   3.773   7.931   6.356  0.4689 -0.4659  1.7655
58145SOL    HW283404   3.773   8.081   6.374 -1.3318 -0.1608 -0.2929
58146SOL     OW83405   0.693   4.190  10.165  0.2371  0.2348  0.8117
58146SOL    HW183406   0.649   4.245  10.230 -1.2792 -0.5805  0.5326
58146SOL    HW283407   0.733   4.120  10.216 -1.5091 -0.7754  0.8772
58147SOL     OW83408   8.454   8.470   0.693  0.2316  0.1282 -0.3257
58147SOL    HW183409   8.534   8.418   0.684  2.2926  3.0669 -0.3542
58147SOL    HW283410   8.395   8.415   0.745  2.8734 -1.5624  1.1058
58148SOL     OW83411  12.122  10.867   1.353 -0.2874  0.4249  0.3438
58148SOL    HW183412  12.088  10.956   1.353 -1.2638  0.0934 -1.5583
58148SOL    HW283413  12.169  10.859   1.270  2.0457 -0.0726  1.5996
58149SOL     OW83414   1.566   0.572   1.677  0.4532 -0.0410  0.3348
58149SOL    HW183415   1.605   0.530   1.754 -0.0626 -3.0685 -0.9317
58149SOL    HW283416   1.614   0.536   1.603 -0.5649  1.0706 -0.9230
58150SOL     OW83417   5.120  11.379   7.163 -0.2404  0.1479 -0.5062
58150SOL    HW183418   5.180  11.399   7.235 -0.5402 -2.4801  0.6070
58150SOL    HW283419   5.168  11.315   7.109 -1.7064 -1.5208  0.0528
58151SOL     OW83420   0.082   4.009   9.413 -0.0386  0.3722 -0.5901
58151SOL    HW183421   0.056   3.917   9.407 -0.0838  0.3806 -0.5252
58151SOL    HW283422   0.109   4.032   9.324 -0.1408  0.3301 -0.6330
58152SOL     OW83423   2.504  12.085   2.403 -0.1312  0.2659  0.0054
58152SOL    HW183424   2.477  12.163   2.355 -0.0773  0.3872  0.1709
58152SOL    HW283425   2.579  12.052   2.353  0.1130  0.5603  0.1667
58153SOL     OW83426   9.675   5.516   2.976 -0.2809 -0.3625 -0.4248
58153SOL    HW183427   9.581   5.538   2.978 -0.2419 -0.2320  0.1396
58153SOL    HW283428   9.710   5.568   2.903 -0.7964 -1.0444 -1.1740
58154SOL     OW83429   1.707   2.365   0.310  0.2626 -0.0053  0.2488
58154SOL    HW183430   1.778   2.340   0.251  0.9646 -0.6771  1.3332
58154SOL    HW283431   1.669   2.281   0.339 -0.5398  0.3281  0.1998
58155SOL     OW83432   2.800  11.342   7.613 -0.3167  0.4546 -0.3488
58155SOL    HW183433   2.894  11.325   7.617 -0.4528 -0.1929  1.3747
58155SOL    HW283434   2.782  11.358   7.521  1.5155  0.8288 -0.6824
58156SOL     OW83435   2.886   7.960   0.873 -0.2943  0.0846  0.0135
58156SOL    HW183436   2.978   7.975   0.896 -0.5481  1.9346 -0.1003
58156SOL    HW283437   2.840   7.960   0.956 -0.4890  1.4434 -0.0844
58157SOL     OW83438   3.514  12.322   7.125  0.9188 -0.2803 -0.3402
58157SOL    HW183439   3.453  12.359   7.189  0.9261  0.0197 -0.4989
58157SOL    HW283440   3.492  12.229   7.120 -0.9919  0.1918 -1.9610
58158SOL     OW83441  10.180   1.323   4.022  0.2528 -0.5131  0.0426
58158SOL    HW183442  10.085   1.319   4.010 -0.1997  0.2807  2.5974
58158SOL    HW283443  10.198   1.416   4.036  1.7569 -0.3689 -2.2644
58159SOL     OW83444   0.128   2.358   8.042 -0.3800  0.0936 -0.1678
58159SOL    HW183445   0.071   2.337   7.968 -1.0124  1.5676 -0.1419
58159SOL    HW283446   0.097   2.301   8.113 -1.2047  0.1978 -0.4273
58160SOL     OW83447   2.450   2.605  11.159  0.6275  0.5355  0.2264
58160SOL    HW183448   2.537   2.603  11.199  0.3852 -0.2107  0.7354
58160SOL    HW283449   2.444   2.523  11.109  0.4688  0.8955 -0.3557
58161SOL     OW83450   9.305   9.423  11.169 -0.4168  0.3232  0.1887
58161SOL    HW183451   9.221   9.456  11.200 -1.2345 -1.4738 -0.0211
58161SOL    HW283452   9.287   9.389  11.082  0.1335 -1.5086  0.7507
58162SOL     OW83453   2.530   0.337   4.197  0.1266  0.5536 -0.2765
58162SOL    HW183454   2.469   0.340   4.270 -0.2905 -2.8696 -0.3602
58162SOL    HW283455   2.521   0.423   4.155 -1.9507  1.4409  1.7873
58163SOL     OW83456   9.789   5.497   8.126 -0.1541 -0.0879 -0.1113
58163SOL    HW183457   9.752   5.542   8.202  0.8466  0.1781  0.2415
58163SOL    HW283458   9.845   5.428   8.163 -2.2889 -2.2293 -0.6430
58164SOL     OW83459   8.520   8.857   6.495  0.4073 -0.9713 -0.0252
58164SOL    HW183460   8.513   8.784   6.557 -0.1139 -0.9456 -0.0488
58164SOL    HW283461   8.435   8.900   6.498  0.8896 -0.0036  0.4248
58165SOL     OW83462   5.949  11.604   1.524 -0.1976 -0.1120 -0.4548
58165SOL    HW183463   6.032  11.651   1.520 -0.5365  0.4505 -0.8927
58165SOL    HW283464   5.974  11.512   1.534  0.5235  0.3253  3.9327
58166SOL     OW83465   9.218   4.278   0.136  0.2869 -0.2284 -0.0930
58166SOL    HW183466   9.266   4.198   0.117  0.5520 -0.2827  0.7721
58166SOL    HW283467   9.281   4.348   0.120 -0.1101 -0.1409 -1.3931
58167SOL     OW83468   9.702   6.364   8.765 -0.1234  0.5630 -0.4056
58167SOL    HW183469   9.762   6.312   8.819 -2.3995 -0.0298  1.7090
58167SOL    HW283470   9.725   6.341   8.675  0.9744 -1.7509  0.3889
58168SOL     OW83471   2.921  10.900   5.290 -0.1881  0.8503  0.1681
58168SOL    HW183472   2.949  10.839   5.359  1.5738 -0.8280 -1.8652
58168SOL    HW283473   2.981  10.974   5.298  0.0383  0.6447  0.4067
58169SOL     OW83474  10.428   0.942   5.960 -0.3661 -0.1823 -0.0699
58169SOL    HW183475  10.490   0.892   5.907 -0.7384 -0.6537 -0.0747
58169SOL    HW283476  10.481   0.979   6.031  0.2485  1.0062 -1.1314
58170SOL     OW83477  11.736   4.421   8.008 -0.4594 -0.6103  0.1828
58170SOL    HW183478  11.695   4.504   7.984  0.9904 -0.1964 -1.1081
58170SOL    HW283479  11.713   4.361   7.937  1.3038 -0.2818 -0.7351
58171SOL     OW83480   4.694   8.263   6.845 -0.1129  0.4161 -0.0038
58171SOL    HW183481   4.763   8.311   6.891  0.0748 -0.0196  0.1761
58171SOL    HW283482   4.634   8.330   6.815 -0.1631  0.7275  0.7596
58172SOL     OW83483   4.203   7.927   0.994  0.0521  0.1852  0.1861
58172SOL    HW183484   4.285   7.977   0.996  0.5768 -0.6760  2.2954
58172SOL    HW283485   4.164   7.942   1.080 -0.6286 -1.6464  0.2369
58173SOL     OW83486  11.656   9.405   2.255  0.3394  0.3063  0.1303
58173SOL    HW183487  11.632   9.406   2.162  1.4209  1.9941 -0.1717
58173SOL    HW283488  11.587   9.456   2.298  0.3975  0.4171  0.0923
58174SOL     OW83489  11.197   1.482  10.963  0.5255  0.7829 -0.8176
58174SOL    HW183490  11.130   1.533  10.919  0.7739  2.4539  0.6336
58174SOL    HW283491  11.250   1.444  10.893 -2.5534 -1.6065 -2.0688
58175SOL     OW83492  10.575   6.433   1.433 -0.8851 -0.4108  0.0864
58175SOL    HW183493  10.534   6.386   1.360 -1.3256 -0.0573  0.1028
58175SOL    HW283494  10.511   6.428   1.503  0.7100 -3.3864  1.5345
58176SOL     OW83495   8.191   5.793   6.750  0.1640  1.2030 -0.0883
58176SOL    HW183496   8.226   5.706   6.771 -0.7226  0.9256  0.2862
58176SOL    HW283497   8.174   5.832   6.835 -0.5658  1.2758 -0.2650
58177SOL     OW83498  11.208   5.340   4.462  0.0728  0.2226 -0.2994
58177SOL    HW183499  11.192   5.414   4.403  1.3712  0.4740 -0.3691
58177SOL    HW283500  11.246   5.273   4.406 -2.0430 -0.9176 -0.4413
58178SOL     OW83501   9.947   9.337  11.247  0.8068 -0.3404  0.3523
58178SOL    HW183502   9.946   9.374  11.159  2.0043 -0.1902  0.3897
58178SOL    HW283503   9.980   9.248  11.235  0.5978 -0.4566  0.6146
58179SOL     OW83504  11.531   4.188   9.466 -0.3455 -0.0185  0.5012
58179SOL    HW183505  11.534   4.231   9.380  0.0472 -1.9244 -0.5009
58179SOL    HW283506  11.622   4.187   9.496 -0.3681 -0.0258  0.5684
58180SOL     OW83507   9.963   3.570  11.478  0.3578  0.2866 -0.4006
58180SOL    HW183508  10.001   3.483  11.484  0.9740  0.6196  1.6127
58180SOL    HW283509   9.909   3.578  11.557  1.0430  2.0161 -0.0594
58181SOL     OW83510   8.517   1.518   9.576  0.7958  0.6746 -0.0330
58181SOL    HW183511   8.526   1.422   9.574 -0.5740  0.5248  0.1182
58181SOL    HW283512   8.509   1.539   9.669  2.0689  1.0590  0.0078
58182SOL     OW83513  11.853   9.662   2.329  0.0391  0.0289  0.3380
58182SOL    HW183514  11.869   9.630   2.240  0.7119  1.1771  0.0268
58182SOL    HW283515  11.888   9.594   2.386  0.6067 -0.2216 -0.2943
58183SOL     OW83516   5.468   5.583   0.735  0.7407 -0.3583 -0.4583
58183SOL    HW183517   5.540   5.569   0.674  0.1652 -1.7167 -0.8601
58183SOL    HW283518   5.390   5.552   0.689  0.2854 -1.3599  0.9071
58184SOL     OW83519   9.228   7.771   4.558  0.2471  0.1544 -0.1556
58184SOL    HW183520   9.137   7.742   4.548  1.0140 -1.9750 -1.4926
58184SOL    HW283521   9.247   7.759   4.651 -0.9673  1.1834  0.2648
58185SOL     OW83522   6.258   0.753   6.444 -0.5537  0.1425  0.2893
58185SOL    HW183523   6.172   0.793   6.432 -0.3148  0.3036 -1.0788
58185SOL    HW283524   6.293   0.745   6.355  0.9369  0.2864  0.8390
58186SOL     OW83525  10.613  10.385   9.969  0.4170  0.0088 -0.0905
58186SOL    HW183526  10.648  10.473   9.958 -2.2171  0.9477 -2.1935
58186SOL    HW283527  10.561  10.389  10.049  0.0367  0.4723 -0.3590
58187SOL     OW83528   1.154   8.091   5.635 -0.0319 -0.0214  0.2852
58187SOL    HW183529   1.104   8.051   5.564  3.1360  1.3044 -3.0007
58187SOL    HW283530   1.225   8.029   5.653 -1.2870 -0.7827  3.1499
58188SOL     OW83531   6.386  10.235   8.206  0.1807  0.1619  0.1104
58188SOL    HW183532   6.456  10.244   8.141 -0.5685  0.2896 -0.6929
58188SOL    HW283533   6.428  10.259   8.289  0.8402  1.2291 -0.4962
58189SOL     OW83534   3.027   0.674  10.026  0.0071 -0.1400  0.1707
58189SOL    HW183535   3.038   0.769  10.021 -0.9802 -0.0445 -0.5919
58189SOL    HW283536   3.116   0.640  10.036  0.5291  0.8004 -0.9947
58190SOL     OW83537   7.089   3.906   2.198 -0.7532  0.4956 -0.3028
58190SOL    HW183538   7.100   3.992   2.158 -0.3641  0.3072 -0.6041
58190SOL    HW283539   7.009   3.913   2.250 -0.9073  0.9331 -0.6020
58191SOL     OW83540   8.876   3.214   6.321 -0.5078  0.5156  0.2939
58191SOL    HW183541   8.911   3.125   6.313 -0.6105  0.5027 -0.0489
58191SOL    HW283542   8.817   3.223   6.246 -2.4905 -0.0391  1.7049
58192SOL     OW83543  10.301   2.379   6.454  0.4134 -0.4487  0.0758
58192SOL    HW183544  10.315   2.411   6.365  2.7261 -0.0693  0.4960
58192SOL    HW283545  10.283   2.285   6.444  1.5107 -0.5853 -0.7670
58193SOL     OW83546   9.028   8.434  11.611 -0.0740 -0.1208  0.3606
58193SOL    HW183547   9.004   8.505  11.551 -1.9753 -0.9427  0.0593
58193SOL    HW283548   9.058   8.363  11.553  2.3008  0.5374  0.6836
58194SOL     OW83549   6.883   8.759   6.762 -0.0379  0.0712 -0.1637
58194SOL    HW183550   6.842   8.827   6.709 -0.2851  0.8820  1.0340
58194SOL    HW283551   6.959   8.801   6.801 -0.1993 -0.3269  0.5993
58195SOL     OW83552  11.070  12.199   3.586 -0.3300 -0.0563 -0.1444
58195SOL    HW183553  11.065  12.151   3.504  0.8439 -0.6495  0.1093
58195SOL    HW283554  10.980  12.206   3.616 -0.9977  1.6407 -2.2820
58196SOL     OW83555   1.030   9.700   1.640  0.4813  0.7604 -0.3889
58196SOL    HW183556   0.986   9.784   1.652  0.4176  0.7842 -0.7774
58196SOL    HW283557   1.002   9.647   1.715 -1.1055  0.4013 -1.1737
58197SOL     OW83558   1.168  12.060  10.245 -0.2359 -0.4487  0.0344
58197SOL    HW183559   1.247  12.066  10.191  0.6489 -0.9136  1.2404
58197SOL    HW283560   1.162  12.145  10.288  0.0769 -0.6973  0.5728
58198SOL     OW83561   4.228   7.322   4.826  0.5137  0.5775 -0.0526
58198SOL    HW183562   4.175   7.283   4.757  0.9881 -0.0210 -0.0933
58198SOL    HW283563   4.166   7.370   4.880 -0.4228 -1.6855  1.0375
58199SOL     OW83564   8.443  10.590   3.039 -0.0382  0.3962 -0.1016
58199SOL    HW183565   8.372  10.598   3.102 -0.0047  2.1508 -0.2439
58199SOL    HW283566   8.403  10.610   2.955  0.8779  3.0517  0.0044
58200SOL     OW83567   5.045   5.397   5.677  0.4993  0.0498 -0.0937
58200SOL    HW183568   5.111   5.466   5.686  0.2968  0.2255  0.0598
58200SOL    HW283569   4.962   5.441   5.696  0.3463 -0.1878 -0.2101
58201SOL     OW83570   7.001  10.658   4.868 -0.1676  0.8867  0.1395
58201SOL    HW183571   6.919  10.654   4.918 -0.6946 -0.4367 -0.7568
58201SOL    HW283572   7.070  10.641   4.932 -0.4575  3.1130  1.1213
58202SOL     OW83573   7.624   7.599   1.065 -0.4278 -0.0649 -0.2072
58202SOL    HW183574   7.708   7.612   1.110 -0.4812  2.9360 -0.7756
58202SOL    HW283575   7.558   7.622   1.130 -0.7180 -0.1431 -0.4753
58203SOL     OW83576   9.803  11.606   4.513  0.0234 -0.5023  0.4356
58203SOL    HW183577   9.881  11.555   4.533 -0.4001 -1.8588 -1.1542
58203SOL    HW283578   9.731  11.555   4.551 -0.1868  0.2887  1.1255
58204SOL     OW83579   8.646   1.903   3.573 -0.9326  0.7085  0.5318
58204SOL    HW183580   8.650   1.810   3.551  0.6544  0.7268  0.6484
58204SOL    HW283581   8.628   1.947   3.490  0.7878  0.4522 -0.0216
58205SOL     OW83582   3.409   5.456   6.971 -0.0672  0.4195  0.2064
58205SOL    HW183583   3.464   5.441   6.895 -0.5806  0.6604 -0.2172
58205SOL    HW283584   3.448   5.532   7.014  0.7813 -0.2811  0.7201
58206SOL     OW83585  12.063  11.719  10.610  0.2823  0.2912  0.3389
58206SOL    HW183586  12.028  11.637  10.645 -0.2990  0.0559 -0.7683
58206SOL    HW283587  11.987  11.774  10.595  0.7513  1.5359  2.2213
58207SOL     OW83588   1.177   2.558   6.686  0.2238 -0.4482  0.1775
58207SOL    HW183589   1.266   2.537   6.714  0.3043 -0.1387  0.1565
58207SOL    HW283590   1.153   2.486   6.627 -0.7755 -2.3259  2.7113
58208SOL     OW83591  12.067   3.315   0.891  0.0535 -1.1059  0.1087
58208SOL    HW183592  12.131   3.307   0.961 -0.8185  0.8354  1.1894
58208SOL    HW283593  12.020   3.396   0.910 -2.6748 -2.3850 -0.6679
58209SOL     OW83594   1.914   2.793  11.606 -0.0772 -0.6073 -0.0175
58209SOL    HW183595   1.972   2.740  11.551  1.4282 -0.0051  0.9451
58209SOL    HW283596   1.926   2.759  11.694 -0.9351 -0.2310  0.2619
58210SOL     OW83597   9.503   1.996   6.220 -0.2829  0.1097 -0.4578
58210SOL    HW183598   9.443   2.014   6.293  0.8781  0.6741  0.3737
58210SOL    HW283599   9.542   2.081   6.199  0.8510 -0.3866 -0.4275
58211SOL     OW83600   6.142   8.679   3.177 -0.4795 -0.0142  0.5512
58211SOL    HW183601   6.111   8.763   3.144 -0.1496  0.2925  0.9961
58211SOL    HW283602   6.191   8.702   3.256 -3.2099 -0.9036  2.6618
58212SOL     OW83603  11.303   2.977   0.167 -0.1877 -0.4689 -0.6419
58212SOL    HW183604  11.346   3.055   0.133  0.4363 -0.1231  0.8507
58212SOL    HW283605  11.366   2.906   0.153  0.3722 -0.1976  0.3725
58213SOL     OW83606   6.307  12.181   7.508  0.1564 -0.0789  0.3915
58213SOL    HW183607   6.329  12.272   7.486 -0.6234  0.0653  0.1651
58213SOL    HW283608   6.327  12.132   7.428  4.1416 -0.7951  1.5981
58214SOL     OW83609   7.418   3.977  11.129 -0.3539  0.0369  0.4329
58214SOL    HW183610   7.464   4.016  11.203 -2.7707  2.5385  0.7768
58214SOL    HW283611   7.357   3.915  11.168  1.1387 -1.7102  0.1310
58215SOL     OW83612   2.114   1.502  11.079  0.4181 -0.7074  0.0418
58215SOL    HW183613   2.158   1.587  11.084  1.1767 -1.1047  0.3961
58215SOL    HW283614   2.096   1.489  10.986  0.4209 -0.2222 -0.0263
58216SOL     OW83615   9.890   7.443   3.618 -0.5957 -0.6236  0.3731
58216SOL    HW183616   9.933   7.518   3.579  0.0413 -0.2841  1.6954
58216SOL    HW283617   9.796   7.462   3.610 -0.4498 -0.0121  0.0804
58217SOL     OW83618   3.142   6.104   1.756  0.2304  0.2401  0.1378
58217SOL    HW183619   3.168   6.146   1.674 -0.4123 -0.0631 -0.2323
58217SOL    HW283620   3.071   6.160   1.789 -2.0015 -1.5594 -1.3513
58218SOL     OW83621   6.023   7.077   9.599 -0.0095 -0.6730  0.5413
58218SOL    HW183622   6.078   7.004   9.627  3.1095  0.7662 -1.2889
58218SOL    HW283623   6.017   7.068   9.504 -2.0007 -0.0688  0.5628
58219SOL     OW83624   0.470   3.356   9.615  0.1789  0.1497  0.0085
58219SOL    HW183625   0.434   3.389   9.532  0.8545  1.6805  0.2848
58219SOL    HW283626   0.564   3.370   9.608  0.5129 -1.8575  0.1353
58220SOL     OW83627   0.727   1.545   4.225 -0.1434  0.1865  0.5127
58220SOL    HW183628   0.738   1.546   4.130  3.1637 -0.5543  0.7579
58220SOL    HW283629   0.650   1.490   4.240  0.0592 -0.7964 -1.6877
58221SOL     OW83630   2.625   6.600   0.746  0.4681  0.4604  0.1482
58221SOL    HW183631   2.677   6.638   0.817  0.2212 -3.6428  2.9206
58221SOL    HW283632   2.537   6.632   0.760  0.9128  1.8171 -0.0562
58222SOL     OW83633   2.483   9.330   3.289  0.0793 -0.3387  1.2337
58222SOL    HW183634   2.403   9.382   3.299  0.3993  0.3151  0.5282
58222SOL    HW283635   2.474   9.287   3.204  0.9459  0.6229  0.6251
58223SOL     OW83636  10.033   9.846   4.040  0.2259 -0.1929 -0.0242
58223SOL    HW183637   9.974   9.908   3.997  0.5478  0.1971  0.0894
58223SOL    HW283638  10.121   9.877   4.018  0.3895 -0.5258  0.1527
58224SOL     OW83639   9.182   2.687   5.740 -0.1542 -0.0969 -0.2606
58224SOL    HW183640   9.162   2.668   5.832  0.9970 -0.5334 -0.0893
58224SOL    HW283641   9.140   2.772   5.724 -1.1543 -0.4471  0.3885
58225SOL     OW83642   2.583  12.544   1.300  0.6503  0.2275 -0.3443
58225SOL    HW183643   2.578  12.635   1.270  0.9249 -0.1505 -1.6133
58225SOL    HW283644   2.532  12.542   1.381  1.3578  1.6928  0.1710
58226SOL     OW83645   1.141   0.283   0.133  0.0055  0.2981 -0.0900
58226SOL    HW183646   1.201   0.326   0.193  0.8583 -0.2041 -0.5550
58226SOL    HW283647   1.189   0.205   0.103 -2.1445 -2.0971  2.1748
58227SOL     OW83648  10.835   2.272   8.941 -0.0552 -0.1312 -0.0214
58227SOL    HW183649  10.859   2.327   8.866 -0.3886  1.7885  1.2172
58227SOL    HW283650  10.739   2.268   8.938 -0.1179  0.6027  0.7211
58228SOL     OW83651  10.880   9.253   2.458 -0.3960 -0.8482  0.1113
58228SOL    HW183652  10.899   9.183   2.521 -0.0687 -0.2480  0.6859
58228SOL    HW283653  10.819   9.311   2.505  1.1975  0.5478  0.5500
58229SOL     OW83654   1.211   6.809   3.068  0.0760  0.1214 -0.5944
58229SOL    HW183655   1.187   6.721   3.097 -1.1829  0.5867 -0.1171
58229SOL    HW283656   1.197   6.808   2.974 -0.2362 -0.1002 -0.5482
58230SOL     OW83657   5.927   0.204   8.661 -0.0387  0.3374 -0.2273
58230SOL    HW183658   5.880   0.287   8.655 -0.1027  0.3934  0.8470
58230SOL    HW283659   5.954   0.185   8.572 -1.1723  0.8464 -0.6916
58231SOL     OW83660   2.493  12.268   8.253 -0.3967 -0.2679  0.2467
58231SOL    HW183661   2.478  12.336   8.317 -0.9282 -1.5986  1.5847
58231SOL    HW283662   2.517  12.315   8.173  1.2816  1.4021  1.6506
58232SOL     OW83663   2.769   9.124   3.686  0.4052 -0.0190  0.2891
58232SOL    HW183664   2.781   9.029   3.681  2.1290  0.2430 -2.6373
58232SOL    HW283665   2.683   9.139   3.647 -0.0491 -0.3567  1.1198
58233SOL     OW83666   8.362   3.478   1.969 -0.0642  0.1531 -0.5109
58233SOL    HW183667   8.429   3.444   1.910 -1.5737 -3.1368 -0.5436
58233SOL    HW283668   8.297   3.519   1.912  0.2760  0.2922 -0.7934
58234SOL     OW83669  11.127  10.425   0.879  0.3517  0.3141  0.3613
58234SOL    HW183670  11.137  10.358   0.811  0.4227  1.3658 -0.6846
58234SOL    HW283671  11.124  10.375   0.961 -0.0657 -1.0061 -0.4262
58235SOL     OW83672  11.425   2.925  11.885 -0.3049 -0.6463 -0.2684
58235SOL    HW183673  11.402   2.898  11.973 -2.3308 -2.4437 -1.2655
58235SOL    HW283674  11.377   3.007  11.872  1.1975  0.4469  0.7524
58236SOL     OW83675   0.956   0.659  10.893  0.7427  0.3501  0.4497
58236SOL    HW183676   0.877   0.703  10.859  0.4722 -1.7413 -2.0033
58236SOL    HW283677   0.923   0.604  10.964  0.0814  0.0215 -0.0925
58237SOL     OW83678   9.835   1.544   7.366  0.5464 -0.2105  0.0848
58237SOL    HW183679   9.921   1.587   7.367  0.7548 -0.6038 -0.6076
58237SOL    HW283680   9.854   1.452   7.384  0.0175  0.0863  2.4374
58238SOL     OW83681   2.303   6.317   1.290  0.3492  0.0630 -0.5907
58238SOL    HW183682   2.323   6.263   1.214  0.3098 -0.5632 -0.1589
58238SOL    HW283683   2.315   6.407   1.258 -0.5850 -0.1497 -1.5866
58239SOL     OW83684  11.076  12.070  10.173  0.4461 -0.6828 -1.1527
58239SOL    HW183685  11.126  12.147  10.145 -0.8799  0.4354 -0.5982
58239SOL    HW283686  11.024  12.047  10.096 -0.3845  0.0335 -0.8237
58240SOL     OW83687   5.228   8.625   7.928  0.0860 -0.5440 -0.1379
58240SOL    HW183688   5.145   8.580   7.910  0.2482 -0.9185  0.0533
58240SOL    HW283689   5.207   8.718   7.917 -0.7180 -0.5297  1.3100
58241SOL     OW83690   7.419   8.564  10.581 -0.1101 -0.0704  0.1724
58241SOL    HW183691   7.433   8.471  10.599  2.2293 -0.0707 -1.2992
58241SOL    HW283692   7.432   8.573  10.487 -0.6436  1.7214  0.2294
58242SOL     OW83693   4.559   9.850   7.967  0.5766  0.5168  0.4482
58242SOL    HW183694   4.588   9.904   8.041  0.9245  1.3619 -0.2900
58242SOL    HW283695   4.626   9.783   7.958  0.2286  0.0405  1.2660
58243SOL     OW83696   3.325  10.787   2.707  0.1737 -0.3018 -0.0084
58243SOL    HW183697   3.333  10.761   2.799  1.5045  0.2589  0.0545
58243SOL    HW283698   3.250  10.846   2.705 -0.1104 -0.6334  0.6441
58244SOL     OW83699   5.581   4.715   9.825 -0.1520  0.4147  0.3331
58244SOL    HW183700   5.636   4.639   9.804 -0.1401  0.3700  0.5264
58244SOL    HW283701   5.506   4.707   9.765 -0.0152  0.4018  0.1646
58245SOL     OW83702   6.254  10.630   4.229 -0.5336  0.4365 -0.2074
58245SOL    HW183703   6.162  10.631   4.203 -0.5821  1.9866 -0.0997
58245SOL    HW283704   6.264  10.709   4.283  0.4626 -0.6249  1.2440
58246SOL     OW83705  12.323   0.913  11.113  0.0458 -0.5933  0.3503
58246SOL    HW183706  12.382   0.974  11.068 -0.2698 -0.1990  0.4689
58246SOL    HW283707  12.242   0.961  11.124 -0.9979 -1.7888 -1.5797
58247SOL     OW83708   2.245   9.844   8.734  0.9893 -0.0357  0.0324
58247SOL    HW183709   2.199   9.764   8.707  0.8367  0.3895 -1.0443
58247SOL    HW283710   2.186   9.886   8.796 -0.8031  1.2121 -2.3777
58248SOL     OW83711   9.848  11.751   2.862 -0.2211 -0.4131 -0.1466
58248SOL    HW183712   9.822  11.660   2.844 -0.5674 -0.6817  1.4830
58248SOL    HW283713   9.773  11.788   2.909  0.0305  0.6390 -0.5484
58249SOL     OW83714   0.570   3.615   5.803  0.1247 -0.2415  0.2780
58249SOL    HW183715   0.610   3.567   5.876  0.0079 -0.6259  0.0915
58249SOL    HW283716   0.594   3.564   5.725 -1.2260 -0.8351  0.2119
58250SOL     OW83717   0.883   4.396  11.747 -0.3336  0.2545 -0.3771
58250SOL    HW183718   0.859   4.311  11.784 -2.0366  0.3063 -1.2367
58250SOL    HW283719   0.945   4.433  11.810  1.6707 -2.2250 -0.7538
58251SOL     OW83720   1.116   1.359   9.691  0.5228 -0.5008  0.4064
58251SOL    HW183721   1.178   1.351   9.618  0.3493 -3.4614  0.4400
58251SOL    HW283722   1.153   1.303   9.760  0.2363  1.5275  2.3124
58252SOL     OW83723   4.081   3.575   2.854  0.0841  0.2156 -0.3241
58252SOL    HW183724   3.989   3.596   2.839 -0.2950 -0.4303  0.9637
58252SOL    HW283725   4.080   3.499   2.912  1.4316  0.4892  0.1042
58253SOL     OW83726   2.453   5.840   2.435 -0.0205  0.0363 -0.1419
58253SOL    HW183727   2.525   5.869   2.492  0.0276 -0.7971  0.2345
58253SOL    HW283728   2.491   5.840   2.347 -0.2082  1.7266 -0.2579
58254SOL     OW83729   0.505   6.021   5.671 -0.2457  0.6414  0.3326
58254SOL    HW183730   0.487   6.110   5.699  1.5487  1.1408  0.0425
58254SOL    HW283731   0.542   5.979   5.748 -1.4811 -0.0180  0.5980
58255SOL     OW83732   1.164   2.525   8.574 -0.0563 -0.4780 -0.6129
58255SOL    HW183733   1.107   2.480   8.637  1.1074  1.0607  1.6621
58255SOL    HW283734   1.119   2.608   8.557 -0.3154 -0.8422 -1.8094
58256SOL     OW83735   0.323   2.416   1.708 -0.2356 -0.1106 -0.4708
58256SOL    HW183736   0.348   2.373   1.627 -2.3039 -2.1908 -0.1222
58256SOL    HW283737   0.248   2.366   1.739 -1.1805  2.2394  1.3639
58257SOL     OW83738   9.597   5.868   2.727 -0.0009 -0.1232  0.0673
58257SOL    HW183739   9.561   5.851   2.814 -0.8803 -0.4562 -0.3568
58257SOL    HW283740   9.536   5.929   2.686  0.5282  0.2126 -0.2381
58258SOL     OW83741   6.262  10.397   3.982 -0.3887 -0.5013  0.0364
58258SOL    HW183742   6.332  10.421   4.042 -0.6635  0.2464  0.0732
58258SOL    HW283743   6.283  10.444   3.901 -0.5748 -0.6768 -0.1137
58259SOL     OW83744   2.783   9.383  12.349 -0.2364 -0.4465 -0.5297
58259SOL    HW183745   2.754   9.454  12.406 -0.9630 -0.3590 -0.9938
58259SOL    HW283746   2.801   9.425  12.265  1.8560 -0.3970 -0.1130
58260SOL     OW83747  11.279   9.437   2.906 -0.0294 -0.1237  0.2516
58260SOL    HW183748  11.342   9.414   2.839 -0.8086  0.6924 -0.7988
58260SOL    HW283749  11.199   9.389   2.881 -0.4520  0.5242  0.3422
58261SOL     OW83750  11.880   2.239  10.745  0.1881 -0.1993  0.1143
58261SOL    HW183751  11.892   2.258  10.652  0.1279  0.6626  0.2751
58261SOL    HW283752  11.840   2.152  10.746 -0.7098  0.1862 -0.7060
58262SOL     OW83753   6.355   1.527   7.681  0.0518  0.1913 -0.0845
58262SOL    HW183754   6.333   1.434   7.685 -0.0454  0.1931 -0.5965
58262SOL    HW283755   6.365   1.552   7.773 -0.7907 -0.1095  0.0947
58263SOL     OW83756   7.788   8.892  11.835  0.3741 -0.1822 -0.2106
58263SOL    HW183757   7.814   8.802  11.813  0.0173 -1.2761  3.1080
58263SOL    HW283758   7.704   8.904  11.790 -0.3143 -2.1523  0.4191
58264SOL     OW83759   9.822   2.826   6.151  0.2056  0.0348  0.6502
58264SOL    HW183760   9.793   2.743   6.113 -1.5446  1.6861 -1.9806
58264SOL    HW283761   9.805   2.817   6.245 -0.6978 -2.2770  0.3165
58265SOL     OW83762   1.562   5.563  10.143  0.3808  0.2124 -0.3029
58265SOL    HW183763   1.644   5.554  10.192 -0.2612 -0.3887  0.6641
58265SOL    HW283764   1.507   5.491  10.173  0.3166 -0.8125 -2.6443
58266SOL     OW83765   3.432   0.385   3.359  0.0688 -0.0077 -0.0132
58266SOL    HW183766   3.497   0.454   3.344  1.6859 -1.4103  0.1956
58266SOL    HW283767   3.391   0.373   3.273  1.3599 -0.2940 -0.6256
58267SOL     OW83768   3.265   8.102   2.060 -0.2523  0.3220 -0.5225
58267SOL    HW183769   3.236   8.064   1.977  1.5581 -0.6392 -0.7778
58267SOL    HW283770   3.303   8.187   2.035  0.9488 -0.2789 -0.8288
58268SOL     OW83771   6.770   2.630   1.472 -0.3260 -0.1756  0.2469
58268SOL    HW183772   6.712   2.562   1.438  0.9359 -0.1381 -2.1626
58268SOL    HW283773   6.765   2.619   1.567 -1.3602 -2.6159 -0.0030
58269SOL     OW83774   7.504   2.164   6.648  0.0153  0.0446  0.1236
58269SOL    HW183775   7.445   2.143   6.575 -0.2126  0.0020  0.3170
58269SOL    HW283776   7.544   2.080   6.670  0.0646  0.0524  0.0649
58270SOL     OW83777   5.645   9.366   0.154 -0.5607 -0.8225 -0.1704
58270SOL    HW183778   5.679   9.335   0.238  1.0548 -0.4403 -0.6422
58270SOL    HW283779   5.615   9.455   0.171  1.5719  0.0101 -0.3416
58271SOL     OW83780   9.822   9.767   8.645  0.1055 -0.1601 -0.1128
58271SOL    HW183781   9.780   9.736   8.725 -0.6610  1.9024  0.3575
58271SOL    HW283782   9.840   9.860   8.662 -0.5992  0.4863 -2.4904
58272SOL     OW83783   7.593   5.242   9.165 -0.3229 -0.2860 -0.3615
58272SOL    HW183784   7.646   5.301   9.219  1.9851 -2.7211  0.2329
58272SOL    HW283785   7.515   5.224   9.217 -1.4297  2.6192 -0.8367
58273SOL     OW83786   5.102   0.855   8.103  0.0695 -0.2737  0.0422
58273SOL    HW183787   5.138   0.926   8.049 -0.6683  0.9526  1.0960
58273SOL    HW283788   5.021   0.829   8.058  0.4042 -0.5450 -0.4101
58274SOL     OW83789   9.564   0.662   4.585 -0.0537  0.8762  0.0397
58274SOL    HW183790   9.525   0.584   4.625  0.9619  0.2379 -0.1858
58274SOL    HW283791   9.635   0.686   4.644  1.3487  0.0319 -1.2487
58275SOL     OW83792   0.611   6.800   5.181  0.2679  0.0090  0.2074
58275SOL    HW183793   0.705   6.779   5.183  1.1825  2.9096 -2.8798
58275SOL    HW283794   0.581   6.768   5.096 -1.4743 -0.4982  0.9807
58276SOL     OW83795   1.357   0.239   5.993 -0.0260  0.2282  0.4232
58276SOL    HW183796   1.338   0.218   5.902 -1.9362 -0.7936  1.0123
58276SOL    HW283797   1.285   0.201   6.043  2.2226 -1.5219  2.6311
58277SOL     OW83798  10.963   4.587   5.362  0.5291 -0.0486  0.0327
58277SOL    HW183799  10.980   4.659   5.423  0.7969 -1.1731  1.3467
58277SOL    HW283800  10.888   4.616   5.310  1.0398  1.4311  0.0778
58278SOL     OW83801   0.600  11.139   6.658  0.3787 -0.4025  0.0814
58278SOL    HW183802   0.650  11.093   6.725 -0.0855 -2.2301 -0.7652
58278SOL    HW283803   0.527  11.080   6.639 -2.0835  2.0834  1.1702
58279SOL     OW83804   5.239  12.212  12.458 -0.6143  0.1013  0.1797
58279SOL    HW183805   5.232  12.240  12.549  1.4877 -0.5876  0.6009
58279SOL    HW283806   5.272  12.290  12.412 -1.2767  0.3220  0.0669
58280SOL     OW83807   1.591   9.280   9.444 -0.1616 -0.2358 -0.1168
58280SOL    HW183808   1.620   9.312   9.529  1.2331 -0.0195 -0.6384
58280SOL    HW283809   1.571   9.187   9.459 -0.7582 -0.0007  0.6171
58281SOL     OW83810   7.204  11.542   3.337 -0.0855  0.0960  0.1056
58281SOL    HW183811   7.277  11.545   3.276  0.3488  1.6496  0.6475
58281SOL    HW283812   7.127  11.528   3.282  0.5023 -0.5389 -0.5713
58282SOL     OW83813   1.180   3.846   7.325 -0.0589  0.5082 -0.3929
58282SOL    HW183814   1.155   3.842   7.232 -0.9735  0.6451 -0.1606
58282SOL    HW283815   1.133   3.773   7.365  0.4361  0.3720 -0.0531
58283SOL     OW83816   7.039   7.979   9.835  0.1246 -0.2391  0.5140
58283SOL    HW183817   7.039   7.884   9.851 -0.3172 -0.5105 -0.9052
58283SOL    HW283818   6.985   8.015   9.905 -0.7964 -1.2073  0.3427
58284SOL     OW83819   6.379   9.667  11.326  0.3116  0.2118  0.1253
58284SOL    HW183820   6.436   9.731  11.283 -0.6586  1.1469  0.1890
58284SOL    HW283821   6.432   9.587  11.330  0.6189  0.1858 -2.4058
58285SOL     OW83822  10.033   9.047   1.327 -0.3688  0.1251 -0.2891
58285SOL    HW183823  10.018   8.984   1.257  0.6279  0.6584 -1.0054
58285SOL    HW283824  10.116   9.088   1.305  0.8749 -0.9059  2.1433
58286SOL     OW83825   0.662   3.664   2.108 -0.1638  0.4139 -0.1999
58286SOL    HW183826   0.617   3.689   2.027 -1.6044  0.7293  0.6581
58286SOL    HW283827   0.675   3.569   2.099  0.3684  0.5630 -1.1113
58287SOL     OW83828   8.196   2.871   1.994 -0.1294  0.3123 -0.3570
58287SOL    HW183829   8.223   2.820   2.071 -0.6380  0.8085  0.1659
58287SOL    HW283830   8.107   2.843   1.977  0.1021 -0.0471 -0.9869
58288SOL     OW83831   0.929   1.392  11.861  0.1919  0.2595 -0.0338
58288SOL    HW183832   1.023   1.390  11.839 -0.0653  1.0791 -1.2819
58288SOL    HW283833   0.886   1.359  11.782 -0.4920 -2.6603  1.4059
58289SOL     OW83834   4.246   9.892   4.306  0.2774 -0.1626 -0.3374
58289SOL    HW183835   4.331   9.855   4.280  0.2687  1.0779 -2.3281
58289SOL    HW283836   4.268   9.959   4.371  0.6697 -0.7344  0.1351
58290SOL     OW83837  11.061   7.382   3.013 -0.1294 -0.0363  0.5173
58290SOL    HW183838  11.019   7.360   3.096 -0.4750  0.3514  0.4462
58290SOL    HW283839  11.063   7.478   3.011 -0.2452 -0.0411  0.0192
58291SOL     OW83840   0.518   4.280   0.566  0.1345  0.1900  0.5245
58291SOL    HW183841   0.557   4.361   0.597 -0.3295  1.2622 -1.5321
58291SOL    HW283842   0.578   4.211   0.594  1.6059  1.4375  0.5182
58292SOL     OW83843   1.481   2.486   1.743  0.5855  0.1925  0.5976
58292SOL    HW183844   1.442   2.412   1.790 -0.5621  0.8605  0.7258
58292SOL    HW283845   1.450   2.476   1.653  0.2143  0.6518  0.6697
58293SOL     OW83846   8.496   1.674  10.746 -0.0887 -0.2460  0.1296
58293SOL    HW183847   8.404   1.658  10.767  0.2807 -2.7999  0.1003
58293SOL    HW283848   8.543   1.599  10.784  2.2538  1.8518  1.7532
58294SOL     OW83849  10.966  10.985   0.570  0.1687 -0.2991 -0.2070
58294SOL    HW183850  10.970  10.899   0.530 -0.3214  0.7244 -2.6134
58294SOL    HW283851  11.055  11.020   0.562  0.1558 -0.2252 -0.0433
58295SOL     OW83852   8.031   7.004   8.790  0.0727  0.1426  0.3170
58295SOL    HW183853   8.004   6.929   8.738  0.4308  0.9676 -1.1006
58295SOL    HW283854   8.126   7.010   8.776  0.4521 -0.5257  2.3008
58296SOL     OW83855   0.048   9.189  12.341 -0.0599 -0.5264  0.0640
58296SOL    HW183856   0.032   9.097  12.319 -1.6166 -0.4495  0.7654
58296SOL    HW283857  -0.023   9.237  12.297  0.9407  0.4029 -0.5972
58297SOL     OW83858   1.507  10.509   9.398 -0.3767 -0.3223  0.0766
58297SOL    HW183859   1.519  10.483   9.489 -0.0843 -1.0989 -0.1795
58297SOL    HW283860   1.499  10.605   9.401  3.5614  0.1349  0.5232
58298SOL     OW83861   5.483   6.724   4.175 -0.0026 -0.3355 -0.3101
58298SOL    HW183862   5.476   6.668   4.252 -0.0912 -2.3659 -1.7049
58298SOL    HW283863   5.573   6.755   4.175 -0.2734  0.5354  1.1187
58299SOL     OW83864  10.485   2.384   8.179  0.4322 -0.0832  0.2087
58299SOL    HW183865  10.523   2.302   8.210  1.3806  0.0300 -0.6024
58299SOL    HW283866  10.545   2.414   8.111 -1.1665  0.0394 -1.2141
58300SOL     OW83867   8.193   1.894   8.969  0.0156  0.2318 -0.0891
58300SOL    HW183868   8.161   1.947   8.896  1.2186  0.7658 -0.2472
58300SOL    HW283869   8.257   1.835   8.930 -1.1184 -1.2077  0.1298
58301SOL     OW83870   2.739   6.646   7.668  0.2222  0.1203  0.2308
58301SOL    HW183871   2.657   6.679   7.705  1.2915  1.8371  1.2131
58301SOL    HW283872   2.716   6.562   7.627 -1.9291  0.4065  0.7765
58302SOL     OW83873   1.894   5.771   9.724 -0.0108 -0.2801  0.6706
58302SOL    HW183874   1.967   5.831   9.737 -0.5802  0.1133  2.2578
58302SOL    HW283875   1.917   5.693   9.775 -0.0201 -0.7699 -0.0526
58303SOL     OW83876  11.310   3.417   5.200 -0.5722  0.0450  0.2575
58303SOL    HW183877  11.356   3.501   5.202 -0.5083  0.0213  2.4210
58303SOL    HW283878  11.348   3.368   5.272 -0.2151 -2.1036 -1.3033
58304SOL     OW83879   8.405   1.202   6.527  0.1270  0.0443  0.6215
58304SOL    HW183880   8.410   1.109   6.504  1.5318  0.3252 -0.3600
58304SOL    HW283881   8.312   1.219   6.539 -0.1969 -1.3823  0.3232
58305SOL     OW83882   4.716   7.996   4.744  0.4318 -0.1939  0.3988
58305SOL    HW183883   4.742   7.924   4.802  1.3449  0.7565  1.2086
58305SOL    HW283884   4.633   7.968   4.707  0.6497 -1.5591  0.8847
58306SOL     OW83885   5.683  10.354  11.762  0.1456 -0.1481  0.1428
58306SOL    HW183886   5.668  10.448  11.773  1.4557 -0.1216  2.5241
58306SOL    HW283887   5.601  10.319  11.729  0.1384  2.0219 -2.5030
58307SOL     OW83888   0.831  11.051   4.569 -0.1569  0.4056 -0.6313
58307SOL    HW183889   0.852  10.974   4.622 -0.6390  0.0797 -0.9115
58307SOL    HW283890   0.812  11.016   4.482 -0.6875  0.8076 -0.6821
58308SOL     OW83891   2.220   4.006   5.222 -0.2340 -0.2528 -0.0933
58308SOL    HW183892   2.310   4.012   5.254 -0.5356  0.7628  0.6067
58308SOL    HW283893   2.169   4.059   5.282 -1.3895 -1.1607 -0.2264
58309SOL     OW83894   5.127   8.714   1.152 -0.0760  0.4501 -0.4459
58309SOL    HW183895   5.144   8.770   1.228  0.7860 -0.4404  0.0302
58309SOL    HW283896   5.035   8.728   1.132 -1.2737 -1.7725  2.8284
58310SOL     OW83897  11.058   5.282   1.513  0.2750 -0.1071  0.4193
58310SOL    HW183898  11.019   5.241   1.436 -0.6854 -1.4832  1.5794
58310SOL    HW283899  10.989   5.339   1.547  1.1585  1.5324 -0.4566
58311SOL     OW83900   3.636   8.735   3.808  0.5333 -0.0632 -0.3008
58311SOL    HW183901   3.690   8.688   3.745  0.8646 -1.0175  0.6636
58311SOL    HW283902   3.683   8.728   3.891 -0.8301 -0.5354  0.4812
58312SOL     OW83903  12.054  10.341   8.245  0.2705 -0.1438 -0.3936
58312SOL    HW183904  12.119  10.393   8.292  0.3640  0.2740 -0.9773
58312SOL    HW283905  12.044  10.386   8.161 -2.8791  1.5343  0.7206
58313SOL     OW83906   0.536   2.935  12.448 -0.1975 -0.2732  0.1041
58313SOL    HW183907   0.469   2.979  12.501  0.2183 -0.2548  0.6242
58313SOL    HW283908   0.544   2.848  12.486 -0.1671 -0.3944 -0.1761
58314SOL     OW83909   4.513   1.760   4.418 -0.6118 -0.6889 -0.4019
58314SOL    HW183910   4.432   1.724   4.382 -1.3678  0.3181  0.2518
58314SOL    HW283911   4.557   1.800   4.343 -0.7911 -1.1048 -0.7331
58315SOL     OW83912   6.352   6.699  11.300 -0.0060  0.3094  0.1950
58315SOL    HW183913   6.443   6.699  11.331  0.3415 -1.4839 -0.7094
58315SOL    HW283914   6.303   6.652  11.367 -0.1824  0.8470  0.4462
58316SOL     OW83915  11.266   8.170   3.066 -0.2401 -0.1459  0.6593
58316SOL    HW183916  11.187   8.155   3.118  0.1598 -1.1150  1.0211
58316SOL    HW283917  11.319   8.230   3.119 -0.6036  0.2846  0.5427
58317SOL     OW83918   4.245  11.541  12.457  0.1806  0.4055  0.1956
58317SOL    HW183919   4.296  11.612  12.497  0.1902 -0.3729  1.6503
58317SOL    HW283920   4.169  11.532  12.514 -0.7420  0.4241 -1.0025
58318SOL     OW83921   7.092   7.656   5.942  0.1881 -0.0234 -0.0724
58318SOL    HW183922   7.150   7.666   6.017 -0.0272 -2.3328  0.4968
58318SOL    HW283923   7.003   7.663   5.978  0.0830 -1.1616 -0.0561
58319SOL     OW83924   2.300   9.301   5.982 -0.2943  0.8594  0.3310
58319SOL    HW183925   2.257   9.383   6.009 -0.5605  0.4116  1.3122
58319SOL    HW283926   2.272   9.288   5.891  0.3132  2.2179 -0.0762
58320SOL     OW83927   2.394   1.909   3.657  0.2154 -0.9104 -0.1450
58320SOL    HW183928   2.386   1.898   3.752 -0.4857 -1.5060 -0.2686
58320SOL    HW283929   2.304   1.909   3.625  0.4907 -2.7499 -1.0317
58321SOL     OW83930   2.764   0.823   1.746  0.0005 -0.7287  0.3111
58321SOL    HW183931   2.793   0.875   1.671 -1.2935  0.2901  0.4752
58321SOL    HW283932   2.788   0.876   1.822  0.7248 -1.4567  0.5957
58322SOL     OW83933   5.946   5.337   4.704 -0.3550 -0.2450  0.4232
58322SOL    HW183934   6.018   5.315   4.763  1.3160  0.7945 -1.1228
58322SOL    HW283935   5.957   5.277   4.630 -1.3823 -0.3733  0.3527
58323SOL     OW83936   5.885  10.044  11.219 -0.2864 -0.0744 -0.2902
58323SOL    HW183937   5.948  10.054  11.148 -0.3031 -2.6279 -0.7527
58323SOL    HW283938   5.922  10.094  11.292  1.7013 -0.5639 -0.9103
58324SOL     OW83939   4.809  12.156  11.934  0.1922 -0.0147 -0.0390
58324SOL    HW183940   4.853  12.180  12.015 -0.2119 -0.8540  0.4483
58324SOL    HW283941   4.847  12.213  11.867  0.4910  0.7199  0.7493
58325SOL     OW83942   8.464   7.136  11.419  0.1029  0.7236  0.1041
58325SOL    HW183943   8.427   7.049  11.400  0.9202  0.6796 -1.4480
58325SOL    HW283944   8.553   7.118  11.451 -0.3283  0.9401  1.5130
58326SOL     OW83945   5.248   0.563  11.509 -0.5844 -0.2457 -0.0515
58326SOL    HW183946   5.277   0.606  11.590 -0.4503  0.2828 -0.3732
58326SOL    HW283947   5.196   0.630  11.464  1.6386  0.5096 -1.7306
58327SOL     OW83948   4.588  10.540   2.877  0.7133 -0.1225 -0.1950
58327SOL    HW183949   4.603  10.607   2.944  0.0186 -0.2751  0.1170
58327SOL    HW283950   4.493  10.537   2.866  0.7702 -0.6960 -0.5794
58328SOL     OW83951   6.063   8.917  11.227  0.2849 -0.2611  0.0570
58328SOL    HW183952   5.974   8.938  11.200  0.6925  0.5905 -0.7076
58328SOL    HW283953   6.104   8.880  11.148  1.4521  2.1309 -0.5842
58329SOL     OW83954   5.911   6.416   5.791  0.2248 -0.1753  0.1457
58329SOL    HW183955   5.990   6.468   5.800 -0.3680  0.7963 -0.0543
58329SOL    HW283956   5.859   6.463   5.725 -0.0140 -1.4213 -0.5797
58330SOL     OW83957   9.514  12.408   6.705  0.0062 -0.4091  0.0423
58330SOL    HW183958   9.448  12.472   6.677  2.2176  1.2532 -1.7975
58330SOL    HW283959   9.493  12.329   6.655 -0.6863  0.0497 -0.4166
58331SOL     OW83960  11.313   1.834   0.414  0.5021  0.4867 -0.5211
58331SOL    HW183961  11.305   1.838   0.318 -1.6915  0.8080 -0.3908
58331SOL    HW283962  11.291   1.922   0.444  1.5553  0.4917  0.2822
58332SOL     OW83963   9.450   4.448   8.187  0.5003 -0.4739  0.0209
58332SOL    HW183964   9.459   4.432   8.093  0.9302 -1.0529  0.1555
58332SOL    HW283965   9.469   4.541   8.197 -0.0147 -0.3058 -0.5212
58333SOL     OW83966   8.452   7.243   0.438 -0.1720  0.2848 -0.3126
58333SOL    HW183967   8.541   7.210   0.423  0.0139  0.5293  0.2345
58333SOL    HW283968   8.433   7.222   0.529 -0.7692  0.0222 -0.4938
58334SOL     OW83969   1.692   3.945   6.320 -0.2495 -0.2334  0.4460
58334SOL    HW183970   1.676   4.037   6.301  0.5839  0.0584  1.1401
58334SOL    HW283971   1.617   3.900   6.280 -0.2733  0.6572 -0.5677
58335SOL     OW83972   3.650   1.405   1.233  0.1585  0.2913 -0.3434
58335SOL    HW183973   3.663   1.441   1.145  0.9118 -1.8319 -1.1569
58335SOL    HW283974   3.573   1.348   1.224  0.5467 -0.3354  0.2415
58336SOL     OW83975   1.637   4.705  10.440 -0.0056  0.6396  0.3290
58336SOL    HW183976   1.660   4.793  10.411  1.3385  0.4897  0.8571
58336SOL    HW283977   1.673   4.698  10.529  0.1218 -0.5198  0.2110
58337SOL     OW83978  11.651   2.064   0.930  0.2785 -0.1298 -0.4110
58337SOL    HW183979  11.669   2.148   0.887 -1.3315 -0.6110 -2.1634
58337SOL    HW283980  11.734   2.016   0.923  0.7500  0.7168 -0.8521
58338SOL     OW83981   6.753   2.664   7.128  0.3586  0.3665 -0.2144
58338SOL    HW183982   6.849   2.667   7.125  0.4899 -2.1556 -0.5064
58338SOL    HW283983   6.732   2.685   7.219  1.1579  1.1848 -0.2027
58339SOL     OW83984  10.913  11.411   4.936 -0.2429 -0.2009  0.7258
58339SOL    HW183985  10.924  11.486   4.995 -0.7765  0.3152  0.1738
58339SOL    HW283986  11.003  11.389   4.910 -0.1885  1.7121 -0.9120
58340SOL     OW83987   2.904   0.577   1.664 -0.4859 -0.1177  0.2503
58340SOL    HW183988   2.863   0.646   1.715 -1.1116 -0.7594  0.6307
58340SOL    HW283989   2.841   0.558   1.594  0.6173  1.1773 -1.1679
58341SOL     OW83990  11.205   6.876   3.620 -0.2960  0.3895 -0.0907
58341SOL    HW183991  11.202   6.812   3.549  0.5800  0.9521 -0.6571
58341SOL    HW283992  11.176   6.958   3.579 -1.6754  0.3193  0.6889
58342SOL     OW83993   0.794  12.395   4.158 -0.2100 -0.1917 -0.3384
58342SOL    HW183994   0.754  12.336   4.093  1.3157 -3.9718  1.8219
58342SOL    HW283995   0.886  12.401   4.130  0.1851 -0.8714  0.7782
58343SOL     OW83996   6.065   0.494   8.192  0.0227  0.2145 -0.0485
58343SOL    HW183997   6.127   0.480   8.263  1.1526 -0.2338 -1.0766
58343SOL    HW283998   6.028   0.407   8.175 -2.2827  0.7379  1.7036
58344SOL     OW83999  10.307   9.739  11.220  0.4083  0.6468  0.0470
58344SOL    HW184000  10.365   9.810  11.250 -0.9549  1.8937 -0.1515
58344SOL    HW284001  10.295   9.685  11.298  1.5046  0.5885  0.1963
58345SOL     OW84002   7.312   9.780   1.133  0.1433 -0.3166 -0.0947
58345SOL    HW184003   7.329   9.695   1.174  2.2103 -0.2248 -0.6618
58345SOL    HW284004   7.389   9.832   1.153  0.3302  0.3841 -2.3870
58346SOL     OW84005  10.311   2.762   5.335 -0.0401  0.5687 -0.3375
58346SOL    HW184006  10.404   2.741   5.333 -0.0684  0.0019  1.6656
58346SOL    HW284007  10.306   2.844   5.386 -0.5750  1.1546 -1.2997
58347SOL     OW84008   8.818   0.486   5.443 -0.4298  0.5386  0.1353
58347SOL    HW184009   8.828   0.509   5.350  1.0317 -1.7369 -0.3454
58347SOL    HW284010   8.906   0.500   5.480  0.3979 -3.1633 -0.0371
58348SOL     OW84011   4.541   3.940   7.181 -0.2434 -0.3271 -0.3646
58348SOL    HW184012   4.599   3.863   7.181  1.0032  0.5593  0.4725
58348SOL    HW284013   4.569   3.990   7.257 -2.4474 -0.0528  0.3247
58349SOL     OW84014  12.344   2.927  11.439  0.3491  0.3778  0.5550
58349SOL    HW184015  12.415   2.976  11.399  2.7392 -2.3328  1.2041
58349SOL    HW284016  12.275   2.926  11.372  1.4687  1.7821 -0.6873
58350SOL     OW84017   2.875   6.185  12.575 -0.1058 -0.3381  0.1378
58350SOL    HW184018   2.865   6.097  12.610  0.4320  0.0191  1.2076
58350SOL    HW284019   2.878   6.172  12.480 -0.6129 -1.4057  0.2519
58351SOL     OW84020   3.540  10.799   9.155  0.1501 -0.2331 -0.2027
58351SOL    HW184021   3.487  10.811   9.234  1.1968  0.7635  0.3767
58351SOL    HW284022   3.543  10.885   9.114  2.5807  0.1508  0.6217
58352SOL     OW84023  10.400   8.289   3.871 -0.0323  0.1936  0.2106
58352SOL    HW184024  10.431   8.368   3.829  0.4711 -0.9722 -1.7193
58352SOL    HW284025  10.352   8.242   3.803 -2.1594 -0.2130  1.8589
58353SOL     OW84026   3.357  10.761   6.256 -0.1759  0.4881  0.5740
58353SOL    HW184027   3.407  10.766   6.338  0.7490 -0.5211  0.1038
58353SOL    HW284028   3.331  10.669   6.250  1.6088  0.0225 -1.2826
58354SOL     OW84029  12.077   3.570   3.170  0.7129 -0.1799 -0.0193
58354SOL    HW184030  12.163   3.542   3.201  0.2793 -0.8998  0.5683
58354SOL    HW284031  12.023   3.571   3.248  0.0818 -0.1369 -0.4520
58355SOL     OW84032  10.239  12.310   9.282  0.1038  0.6935  0.3130
58355SOL    HW184033  10.233  12.214   9.285  2.1169  0.5430  1.8079
58355SOL    HW284034  10.290  12.328   9.204 -0.5812  0.5928 -0.1691
58356SOL     OW84035   4.060  11.038  10.848 -0.3326 -0.1095 -0.4056
58356SOL    HW184036   4.071  10.949  10.880  1.6351  0.2616  0.0778
58356SOL    HW284037   4.148  11.075  10.848 -0.9441  1.4847 -1.6741
58357SOL     OW84038   2.954   4.662   9.763 -0.3802  0.3016 -0.2000
58357SOL    HW184039   3.024   4.597   9.760  0.2818  0.9658  0.4881
58357SOL    HW284040   2.993   4.742   9.728 -0.4491  0.9671  1.1665
58358SOL     OW84041   7.039   2.475   8.310  0.0445  0.3057  0.0677
58358SOL    HW184042   7.134   2.484   8.300 -0.0030  1.3825  0.4332
58358SOL    HW284043   7.003   2.512   8.229 -0.0545 -0.8286 -0.4212
58359SOL     OW84044  11.050   0.623   6.591 -0.0705 -0.1114 -0.0455
58359SOL    HW184045  11.086   0.611   6.678  0.4741 -0.2659 -0.2861
58359SOL    HW284046  10.959   0.594   6.598 -0.4817  1.3383  0.8369
58360SOL     OW84047  11.960   2.545   5.648 -0.1750  0.2299 -0.4253
58360SOL    HW184048  11.944   2.583   5.734  0.1093  1.4192 -0.8754
58360SOL    HW284049  11.932   2.454   5.656  1.2417 -0.1142  1.3689
58361SOL     OW84050   9.997  10.138   4.693  0.0351  0.3771 -0.4071
58361SOL    HW184051   9.927  10.204   4.697 -2.2230 -1.9224  1.2950
58361SOL    HW284052   9.996  10.107   4.603  0.1193  1.5963 -0.8484
58362SOL     OW84053   5.025  11.475   9.679  0.4962 -0.2342 -0.0907
58362SOL    HW184054   5.059  11.513   9.598 -0.7772  2.5353  0.5410
58362SOL    HW284055   5.012  11.382   9.659 -0.1396  0.4165 -3.1903
58363SOL     OW84056   9.973  10.796   3.178  0.4654 -0.6731  0.3266
58363SOL    HW184057   9.976  10.723   3.118  1.7143  0.5672 -1.2127
58363SOL    HW284058   9.905  10.854   3.143  0.5895 -0.3525  0.6018
58364SOL     OW84059   4.745   4.485   3.374 -0.6021 -0.3499  0.4428
58364SOL    HW184060   4.787   4.499   3.289 -0.0105  1.1943  0.9503
58364SOL    HW284061   4.814   4.452   3.431 -0.5526  0.2640  0.7526
58365SOL     OW84062   0.459  11.957   3.380 -0.2675 -0.3510 -0.1829
58365SOL    HW184063   0.544  11.917   3.363 -0.2678  0.4054 -2.2376
58365SOL    HW284064   0.416  11.897   3.440  2.4288  0.2446  2.5833
58366SOL     OW84065   2.930  12.317   2.535 -0.5373 -0.3484  0.2148
58366SOL    HW184066   2.895  12.240   2.491  1.4011 -0.8273 -0.5758
58366SOL    HW284067   2.867  12.334   2.606 -2.1415 -1.3347 -0.8889
58367SOL     OW84068  10.690   1.457   8.304  0.1067 -0.0788 -0.0301
58367SOL    HW184069  10.638   1.377   8.304  1.1293 -0.7737  0.4806
58367SOL    HW284070  10.768   1.434   8.355  0.7875  0.9975 -0.5555
58368SOL     OW84071   4.379   9.676   2.672  0.2940  0.8362  0.2789
58368SOL    HW184072   4.459   9.647   2.630  1.0126  1.7172  0.9961
58368SOL    HW284073   4.312   9.614   2.643  1.1584  0.3032 -0.6044
58369SOL     OW84074   2.746   6.025   2.642 -0.3583 -0.1980  0.4179
58369SOL    HW184075   2.699   6.002   2.722  0.4012  0.0145  0.9348
58369SOL    HW284076   2.677   6.052   2.581 -0.8427  1.1551  1.5087
58370SOL     OW84077  11.489   2.477   9.024 -0.3988 -0.5459  0.1667
58370SOL    HW184078  11.451   2.457   8.938  1.0954 -0.9141 -0.4395
58370SOL    HW284079  11.516   2.568   9.017 -3.2657  0.5159  1.4404
58371SOL     OW84080  10.251   3.988   9.366  0.1764  0.4524 -0.0124
58371SOL    HW184081  10.331   4.039   9.374 -0.0521  0.9295 -0.6482
58371SOL    HW284082  10.181   4.054   9.366 -0.1683  0.0892 -0.1190
58372SOL     OW84083  10.857   0.275   9.588  0.3007  0.1510  0.4170
58372SOL    HW184084  10.783   0.276   9.527 -2.0045  1.5081  2.9997
58372SOL    HW284085  10.883   0.366   9.596  1.2497 -0.1362  0.7302
58373SOL     OW84086   9.577   9.113   5.192  0.0048  0.2893 -0.4831
58373SOL    HW184087   9.623   9.195   5.175 -2.1073  1.6223 -0.1004
58373SOL    HW284088   9.508   9.137   5.254  0.1111 -2.0507  0.6301
58374SOL     OW84089   0.397   6.754   0.571  0.0088  0.0078  0.4782
58374SOL    HW184090   0.342   6.751   0.649  0.1474  1.7668  0.6727
58374SOL    HW284091   0.399   6.846   0.545  0.1045 -0.4973 -1.5208
58375SOL     OW84092   7.180  11.041  11.842  0.1491 -1.0303  0.5494
58375SOL    HW184093   7.205  11.079  11.926  1.0820 -2.1751  0.8221
58375SOL    HW284094   7.105  10.985  11.862 -0.2115 -0.6010  0.4337
58376SOL     OW84095   2.700   1.478   8.315  0.0801  0.2800  0.4408
58376SOL    HW184096   2.659   1.520   8.391  0.6309  1.2549  0.2045
58376SOL    HW284097   2.672   1.530   8.240  0.7919  0.2543  0.1491
58377SOL     OW84098   2.758   1.460   7.702  0.2545 -0.0162  0.1883
58377SOL    HW184099   2.788   1.533   7.647  2.4727 -0.1924  1.0470
58377SOL    HW284100   2.806   1.385   7.668 -0.3092 -0.6376  0.7532
58378SOL     OW84101  10.815  11.603   5.139 -0.1021 -0.1097  0.3305
58378SOL    HW184102  10.739  11.585   5.194 -0.4643 -2.2229 -0.7553
58378SOL    HW284103  10.783  11.593   5.050  1.1359  0.3361 -0.1846
58379SOL     OW84104   7.794   7.964   5.079  0.0495 -0.2208  0.0795
58379SOL    HW184105   7.822   8.052   5.054 -2.2875  0.7417  0.6347
58379SOL    HW284106   7.734   7.936   5.010  0.9159 -1.5128 -0.1994
58380SOL     OW84107   8.891   9.083   0.364 -0.7602  0.1612 -0.0521
58380SOL    HW184108   8.876   9.169   0.403  0.8341  0.6857 -0.5095
58380SOL    HW284109   8.911   9.101   0.273 -1.1164 -0.7694 -0.3283
58381SOL     OW84110   0.003   8.058   5.139 -0.1900 -0.7635 -0.2291
58381SOL    HW184111   0.045   8.143   5.146  0.9810 -1.2742 -0.7591
58381SOL    HW284112  -0.041   8.045   5.223  0.2871  0.0094  0.1443
58382SOL     OW84113   0.110   1.496   3.445 -0.1698 -0.0223  0.1196
58382SOL    HW184114   0.120   1.591   3.446 -0.2781 -0.0124  0.3118
58382SOL    HW284115   0.024   1.481   3.485  0.6399 -0.3040  1.8615
58383SOL     OW84116   3.508   2.782   3.869 -0.3901  0.5160  0.6040
58383SOL    HW184117   3.539   2.798   3.780 -0.5748 -0.7205  0.2989
58383SOL    HW284118   3.581   2.738   3.913 -0.6179  0.3281  0.7979
58384SOL     OW84119  10.431   8.547   5.683 -0.2990 -0.0163  0.3271
58384SOL    HW184120  10.481   8.624   5.656 -1.2393  1.5844  2.8345
58384SOL    HW284121  10.488   8.473   5.660  0.8842  1.4018 -1.6303
58385SOL     OW84122   9.576   0.803  10.663 -0.5953 -0.0961  0.3497
58385SOL    HW184123   9.569   0.898  10.671 -0.5265 -0.0764  0.1827
58385SOL    HW284124   9.652   0.789  10.607  0.7146 -0.3006  2.0853
58386SOL     OW84125  10.270   1.114   0.048 -0.7051 -0.0248  0.5599
58386SOL    HW184126  10.209   1.114  -0.026 -1.5620 -0.8871  1.2428
58386SOL    HW284127  10.345   1.164   0.017 -0.9225 -0.6037 -0.9940
58387SOL     OW84128   7.123   5.533   8.888  0.1821  0.4964 -0.3184
58387SOL    HW184129   7.071   5.609   8.911 -1.7246 -0.6683 -0.6044
58387SOL    HW284130   7.182   5.564   8.819 -1.7371  1.3565 -1.6730
58388SOL     OW84131  10.016   9.857   0.192  0.3458 -0.2154 -0.5768
58388SOL    HW184132  10.016   9.782   0.133  0.6770 -1.0200  0.4323
58388SOL    HW284133  10.075   9.832   0.263 -0.7535  0.3627  0.5670
58389SOL     OW84134  10.010   9.539   3.716  0.2933  0.1407  0.0678
58389SOL    HW184135   9.976   9.628   3.711 -0.8588 -0.2996 -0.2008
58389SOL    HW284136   9.959   9.497   3.786  0.0266 -0.6404 -0.5804
58390SOL     OW84137   0.455  10.229   3.298  0.3284  0.3141 -0.0868
58390SOL    HW184138   0.484  10.302   3.244 -1.6154  2.2392  1.2825
58390SOL    HW284139   0.489  10.151   3.254  1.3828  1.9416 -2.3441
58391SOL     OW84140   7.778   3.015   2.272 -0.2337  0.2244 -0.1499
58391SOL    HW184141   7.867   3.009   2.237 -0.6441 -0.5097 -1.1426
58391SOL    HW284142   7.779   2.959   2.350 -0.5870 -2.4736 -1.9333
58392SOL     OW84143   2.201   4.829  10.686 -0.1276  0.6730 -0.2961
58392SOL    HW184144   2.274   4.836  10.625 -0.3681  0.9627 -0.5526
58392SOL    HW284145   2.123   4.842  10.633 -0.3275  1.1661  0.1094
58393SOL     OW84146   6.142   0.984   1.371  0.1317 -0.3998  0.1113
58393SOL    HW184147   6.085   0.938   1.433 -0.3766 -0.2497 -0.2424
58393SOL    HW284148   6.180   0.914   1.318 -1.3609 -0.3855 -1.0454
58394SOL     OW84149  12.164   2.342   6.312 -0.4209  0.0001  0.1425
58394SOL    HW184150  12.085   2.308   6.354 -0.5769 -0.2325 -0.3395
58394SOL    HW284151  12.189   2.275   6.249  0.0824  0.1391  0.1875
58395SOL     OW84152   4.488   9.893  11.369  0.4314  0.1668  0.5708
58395SOL    HW184153   4.512   9.913  11.460 -1.1268 -0.5614  1.1779
58395SOL    HW284154   4.547   9.823  11.344  2.1920  1.6488  0.3085
58396SOL     OW84155   9.905  12.196   4.162 -0.0840  0.2404 -0.2648
58396SOL    HW184156   9.873  12.244   4.086 -0.8677 -0.6259 -0.5008
58396SOL    HW284157   9.826  12.170   4.209  0.1880 -2.2960 -1.0562
58397SOL     OW84158   6.408   0.091   7.879  0.1650  0.3706  0.6084
58397SOL    HW184159   6.415   0.004   7.841 -0.8846  0.7287 -0.4668
58397SOL    HW284160   6.458   0.086   7.961  0.9742 -0.9363  0.0660
58398SOL     OW84161  12.060   9.669  10.744  0.1305 -0.5669  0.2035
58398SOL    HW184162  12.034   9.584  10.780 -0.7530 -0.8216 -0.9708
58398SOL    HW284163  12.132   9.698  10.800 -0.7059 -1.2738  1.6986
58399SOL     OW84164   3.010   4.354  10.880  0.4058  0.1362 -0.2573
58399SOL    HW184165   3.065   4.310  10.815  1.1774 -1.9576  1.6994
58399SOL    HW284166   2.972   4.284  10.932 -2.5030  1.6218 -0.1634
58400SOL     OW84167   9.068   2.204   6.778  0.6728  0.2302  0.5104
58400SOL    HW184168   9.007   2.212   6.705  0.8278 -0.2409  0.3251
58400SOL    HW284169   9.043   2.123   6.822 -0.0027  0.9657  1.5313
58401SOL     OW84170  10.272  12.567   5.882  0.5667 -0.3298 -0.3772
58401SOL    HW184171  10.189  12.616   5.879  0.4468 -0.5164 -0.0477
58401SOL    HW284172  10.265  12.504   5.810  0.3078 -0.5328 -0.1727
58402SOL     OW84173  12.113   1.394   3.523  0.2307 -0.6324  0.7631
58402SOL    HW184174  12.112   1.300   3.544 -0.3604 -0.6697  0.5846
58402SOL    HW284175  12.196   1.426   3.560  0.9064 -1.4138 -0.0215
58403SOL     OW84176   2.717   1.699   4.125  0.2326 -0.1039 -0.1598
58403SOL    HW184177   2.782   1.758   4.165  0.7469 -0.4040 -0.5449
58403SOL    HW284178   2.752   1.681   4.038 -0.4283 -0.1857 -0.4102
58404SOL     OW84179   0.793  10.532  12.145 -0.1386  0.1804  0.1928
58404SOL    HW184180   0.767  10.621  12.169  0.8050  0.3289  0.7558
58404SOL    HW284181   0.864  10.511  12.207  1.9952  0.3382 -2.0425
58405SOL     OW84182  10.043   8.053   6.219  0.0575  0.0722  0.3166
58405SOL    HW184183  10.114   7.990   6.223  0.2668  0.3549  1.3524
58405SOL    HW284184   9.989   8.023   6.146  0.7762 -0.6281  0.0523
58406SOL     OW84185  11.135   6.899  10.167  0.3724  0.1314  0.4319
58406SOL    HW184186  11.098   6.812  10.182 -0.2770 -0.0671 -1.9306
58406SOL    HW284187  11.063   6.950  10.131  1.7116  0.4046 -2.1146
58407SOL     OW84188   6.153   7.773   5.355 -0.1386 -0.3070 -0.7206
58407SOL    HW184189   6.141   7.703   5.420  0.1190 -1.5005 -1.9180
58407SOL    HW284190   6.064   7.792   5.324 -0.1200 -0.8580 -1.1367
58408SOL     OW84191  12.132   8.908   5.282 -0.6320 -0.9342  0.0759
58408SOL    HW184192  12.130   8.996   5.321 -1.1853 -0.0325 -1.8856
58408SOL    HW284193  12.049   8.868   5.308  0.8022 -2.1201  3.4685
58409SOL     OW84194   3.115   1.073  10.786  0.6417  0.2577 -0.0509
58409SOL    HW184195   3.186   1.068  10.850  1.0808 -0.8331 -0.5796
58409SOL    HW284196   3.042   1.027  10.828  0.7829 -0.0534 -0.1377
58410SOL     OW84197   3.995   5.033   8.418  0.2633 -0.1421  0.4747
58410SOL    HW184198   3.979   5.126   8.408 -1.9523 -0.5408 -0.1545
58410SOL    HW284199   4.020   5.003   8.331 -3.3206 -0.8135 -0.4756
58411SOL     OW84200   2.226   4.199   3.076 -0.3449  0.2331 -0.1068
58411SOL    HW184201   2.231   4.190   2.981 -0.3182 -0.9940  0.0054
58411SOL    HW284202   2.296   4.261   3.098 -0.0057  0.1165 -0.8318
58412SOL     OW84203  10.086   0.221   6.344  0.2967  0.0713 -0.6669
58412SOL    HW184204  10.018   0.267   6.294  1.2519 -0.7753 -2.8180
58412SOL    HW284205  10.059   0.129   6.343  0.5576 -0.0236  0.0505
58413SOL     OW84206  11.902   6.763   6.879  0.0724  0.3063  0.0615
58413SOL    HW184207  11.973   6.826   6.872 -0.4612  0.9636  0.4226
58413SOL    HW284208  11.849   6.776   6.801  1.5289 -1.7273 -1.3754
58414SOL     OW84209   6.282   2.706   6.003  0.4953 -0.2755 -0.1453
58414SOL    HW184210   6.219   2.652   6.051 -0.0625 -0.1706 -0.7459
58414SOL    HW284211   6.231   2.748   5.934  1.5328 -1.6196 -1.8204
58415SOL     OW84212   8.672   4.110   5.816 -0.5017 -0.0596  0.0942
58415SOL    HW184213   8.654   4.200   5.841  0.9073  0.2571  0.0375
58415SOL    HW284214   8.765   4.097   5.836 -0.9015 -1.8265  1.0773
58416SOL     OW84215   5.037  10.726   0.365 -0.6059 -0.8195 -0.2383
58416SOL    HW184216   5.081  10.804   0.400 -1.9632 -0.1245 -0.0343
58416SOL    HW284217   4.953  10.758   0.332 -1.7995 -2.3937  1.0859
58417SOL     OW84218   1.543   6.559   3.756 -0.4088  0.0772  0.2073
58417SOL    HW184219   1.477   6.490   3.757  0.4229 -0.7448  1.3144
58417SOL    HW284220   1.614   6.523   3.703  0.5203 -0.4285  1.7599
58418SOL     OW84221   2.148   9.518   0.288  0.2420 -1.1700 -0.1559
58418SOL    HW184222   2.057   9.494   0.304 -0.2978  1.0041  0.3636
58418SOL    HW284223   2.172   9.470   0.209 -1.5828 -1.2300 -0.7181
58419SOL     OW84224   1.676   0.663   0.818  0.7212  0.2535 -0.0754
58419SOL    HW184225   1.730   0.624   0.886 -0.2238 -0.5747  0.2377
58419SOL    HW284226   1.684   0.602   0.744 -1.4431 -1.1369  0.7015
58420SOL     OW84227   9.771   9.905   9.968  0.2725  0.7201  0.3027
58420SOL    HW184228   9.748   9.993   9.997  0.1624  1.0594 -0.7584
58420SOL    HW284229   9.865   9.898   9.984  0.3790  1.2284 -0.0862
58421SOL     OW84230   5.231   9.192   3.788 -0.6856  0.4511 -0.5711
58421SOL    HW184231   5.274   9.154   3.864 -0.5306  2.0647  0.1757
58421SOL    HW284232   5.139   9.201   3.813 -1.1911 -1.3640 -1.5383
58422SOL     OW84233   7.840   4.707   4.576 -0.6271 -0.6600 -0.4464
58422SOL    HW184234   7.847   4.784   4.519  0.2665  0.2649  0.8866
58422SOL    HW284235   7.749   4.709   4.607 -0.5150  0.0477 -0.1519
58423SOL     OW84236   5.968   8.145   8.140  0.2204  0.5522  0.5792
58423SOL    HW184237   5.938   8.235   8.140  1.6212  1.0544  1.7043
58423SOL    HW284238   5.912   8.101   8.205 -0.2977  0.6610  0.2116
58424SOL     OW84239   7.126  10.699   2.788 -0.0796  0.3387  0.5128
58424SOL    HW184240   7.201  10.748   2.821  1.7709 -1.9424 -0.0713
58424SOL    HW284241   7.122  10.721   2.695  1.4505 -1.3075 -0.0065
58425SOL     OW84242   0.577   4.032   9.006 -0.4112 -0.4343 -0.4353
58425SOL    HW184243   0.590   4.127   9.008  2.2054 -0.7091  0.0626
58425SOL    HW284244   0.579   4.009   8.913  1.6935 -0.2347 -0.4809
58426SOL     OW84245   6.021   8.148   1.005  0.1417  0.0197 -0.1736
58426SOL    HW184246   6.065   8.150   1.090 -0.0405 -0.6806 -0.0593
58426SOL    HW284247   5.930   8.127   1.025 -0.0885  0.6927 -0.4762
58427SOL     OW84248   2.826   8.815   3.822  0.4750 -0.3803 -0.1263
58427SOL    HW184249   2.746   8.798   3.871  1.2781 -0.7363  1.1084
58427SOL    HW284250   2.818   8.761   3.744 -0.2750 -0.7813  0.2153
58428SOL     OW84251   0.145  11.873   7.133  0.3083 -0.5881 -0.0343
58428SOL    HW184252   0.172  11.893   7.044  1.7925 -1.9033  0.0717
58428SOL    HW284253   0.200  11.799   7.159  0.9684  0.6613  2.4829
58429SOL     OW84254   1.861   0.726   3.024 -0.4228 -0.8507 -0.3934
58429SOL    HW184255   1.766   0.715   3.023 -0.4955 -0.3862  0.4287
58429SOL    HW284256   1.877   0.793   3.092  0.3992 -0.0734 -1.3212
58430SOL     OW84257   2.382  11.087   3.260  0.0944 -0.2489 -0.7807
58430SOL    HW184258   2.366  11.051   3.347 -0.3057  2.0167  0.1641
58430SOL    HW284259   2.474  11.068   3.243  0.0170 -1.2690 -0.1433
58431SOL     OW84260   9.443   9.335   9.998  0.2348 -0.1383 -0.5815
58431SOL    HW184261   9.521   9.292   9.964  0.4216 -1.8539  1.7512
58431SOL    HW284262   9.370   9.279   9.970  0.3422 -1.2506  1.1982
58432SOL     OW84263  12.362  11.005   4.765  0.0255  0.0368 -0.2648
58432SOL    HW184264  12.341  11.073   4.829  0.6664 -1.0352  1.1434
58432SOL    HW284265  12.335  11.041   4.681 -1.3090  1.2946  0.6698
58433SOL     OW84266  12.498   3.289  10.571 -0.4861 -0.3853 -0.6875
58433SOL    HW184267  12.501   3.260  10.480  0.0438  1.3641 -1.2674
58433SOL    HW284268  12.521   3.382  10.568  0.3101 -0.4558  1.3236
58434SOL     OW84269  11.014   2.669   1.316 -0.0815 -0.1477  0.3025
58434SOL    HW184270  10.968   2.622   1.246  0.1121 -0.1916  0.2061
58434SOL    HW284271  11.085   2.716   1.272  0.6748 -0.9908  0.6055
58435SOL     OW84272   9.712   9.337   9.372 -0.3540  0.6713  0.3930
58435SOL    HW184273   9.645   9.285   9.328 -0.6214  0.4853  1.0033
58435SOL    HW284274   9.758   9.382   9.301 -1.7057  1.5126  0.0031
58436SOL     OW84275   5.052   3.791  12.555  0.4807 -0.1048 -0.2624
58436SOL    HW184276   5.021   3.760  12.640  1.8542  0.4011  0.4484
58436SOL    HW284277   5.082   3.712  12.510 -0.8549 -0.4671 -0.5811
58437SOL     OW84278   9.070   4.577   8.936 -0.2609 -0.1126 -0.2458
58437SOL    HW184279   9.074   4.583   9.031 -0.3686  0.5960 -0.2826
58437SOL    HW284280   9.149   4.529   8.912 -0.5392 -0.8421  0.2386
58438SOL     OW84281   6.576   0.867   4.765  0.0452 -0.6694  0.7517
58438SOL    HW184282   6.486   0.864   4.732  0.9201  2.0199 -2.4829
58438SOL    HW284283   6.601   0.775   4.774 -2.7082 -1.4898  0.8832
58439SOL     OW84284  10.851   2.577   2.519  0.4678  0.0929 -0.0266
58439SOL    HW184285  10.794   2.589   2.595 -1.1481  0.6326 -1.2684
58439SOL    HW284286  10.926   2.528   2.553 -0.8224 -0.8408  1.6446
58440SOL     OW84287   3.979   7.364  12.372  0.0442 -0.0313 -0.5442
58440SOL    HW184288   3.989   7.358  12.277  0.5334  0.6424 -0.5437
58440SOL    HW284289   3.915   7.433  12.385  0.2954  0.1726 -0.3784
58441SOL     OW84290   2.966  12.290   0.372  0.0517  0.3279 -0.1323
58441SOL    HW184291   2.896  12.236   0.409  0.6229  0.5270  1.3321
58441SOL    HW284292   2.924  12.344   0.306 -1.1488  0.3661  0.6454
58442SOL     OW84293   1.404  11.456  10.771 -0.1478  0.8694 -0.2476
58442SOL    HW184294   1.440  11.544  10.782  1.6763  0.2254 -0.5830
58442SOL    HW284295   1.322  11.457  10.818  1.7953  1.5703  3.4777
58443SOL     OW84296   5.531   8.881  10.896 -0.4391  0.0872  0.0846
58443SOL    HW184297   5.494   8.921  10.974  0.9410  0.0040  0.8130
58443SOL    HW284298   5.620   8.916  10.891  0.4014 -1.9142  0.0587
58444SOL     OW84299   7.960   4.163  11.651  0.3010 -0.0599 -0.2177
58444SOL    HW184300   7.932   4.254  11.660  0.8719  0.0285  0.9222
58444SOL    HW284301   7.929   4.121  11.732 -1.1681 -1.2276 -1.3275
58445SOL     OW84302   0.285   3.716  10.251 -0.5118 -0.2612 -0.5814
58445SOL    HW184303   0.224   3.759  10.311  0.1968 -0.6649  0.4555
58445SOL    HW284304   0.300   3.781  10.183 -0.5316  0.6245  0.2287
58446SOL     OW84305   7.206   4.023   7.402  0.2713 -0.4633  0.3815
58446SOL    HW184306   7.149   4.022   7.325 -0.8353  0.0684  1.1681
58446SOL    HW284307   7.175   4.097   7.454  0.0419 -1.6405  2.0184
58447SOL     OW84308   5.199   4.707  10.431  0.2926 -0.7989  0.0903
58447SOL    HW184309   5.110   4.719  10.463  0.7776 -1.1473  1.6588
58447SOL    HW284310   5.236   4.639  10.488  1.5864 -0.5887 -0.4590
58448SOL     OW84311   2.193   4.584   1.390 -0.1817  0.0157 -0.1254
58448SOL    HW184312   2.170   4.551   1.303 -0.0096  0.7942 -0.4697
58448SOL    HW284313   2.289   4.586   1.390 -0.1936  0.7062 -0.1811
58449SOL     OW84314   1.837   9.256   7.618 -0.6746 -0.3768 -0.0536
58449SOL    HW184315   1.858   9.174   7.573  0.2809  0.3476 -1.0027
58449SOL    HW284316   1.899   9.259   7.691 -0.2331 -0.1867 -0.4284
58450SOL     OW84317   6.322   6.002   8.608  0.4340  0.5800  0.3208
58450SOL    HW184318   6.273   5.949   8.671 -1.1430  1.4280 -0.1283
58450SOL    HW284319   6.255   6.054   8.564  1.4999  0.0861 -2.0105
58451SOL     OW84320   2.271   1.896   7.288  0.4435  0.0788 -0.1499
58451SOL    HW184321   2.251   1.803   7.285  1.8942 -0.3802  1.8784
58451SOL    HW284322   2.285   1.921   7.197 -0.0221 -1.6749 -0.7404
58452SOL     OW84323   8.872   8.923  12.158 -0.6121  0.2968 -0.0257
58452SOL    HW184324   8.945   8.977  12.128 -0.0335 -0.0436  0.7389
58452SOL    HW284325   8.893   8.902  12.249 -0.0576 -2.4068 -0.6723
58453SOL     OW84326   2.321   8.316   4.011  0.7341  0.1906  0.3754
58453SOL    HW184327   2.398   8.373   4.012  0.4772  0.5566 -0.0663
58453SOL    HW284328   2.333   8.257   4.085  1.0653  0.7524  0.7725
58454SOL     OW84329   0.473   6.370   4.521  0.2322 -0.0855  0.4636
58454SOL    HW184330   0.478   6.303   4.589  1.1893  0.5333  1.0316
58454SOL    HW284331   0.493   6.452   4.567 -0.3753  0.5138 -0.3209
58455SOL     OW84332   7.988   5.269   9.341  0.2792 -0.1212 -0.4445
58455SOL    HW184333   7.980   5.350   9.392  1.1360  0.4313 -1.1558
58455SOL    HW284334   8.080   5.245   9.348  0.2930 -0.3445 -1.2667
58456SOL     OW84335   7.788   4.113  12.461  0.1220  0.4505  0.4193
58456SOL    HW184336   7.844   4.081  12.532 -0.1117 -0.2493  0.3019
58456SOL    HW284337   7.699   4.106  12.496  0.1278  2.2235  0.8650
58457SOL     OW84338   5.353   9.458  10.017 -0.0887  0.0759  0.4742
58457SOL    HW184339   5.400   9.438  10.098  0.3568  0.2515  0.2625
58457SOL    HW284340   5.300   9.534  10.039  2.1430  1.9257 -0.1343
58458SOL     OW84341   7.774   6.610   0.683 -0.1400 -0.4669 -0.8069
58458SOL    HW184342   7.763   6.587   0.591 -0.7990 -1.2217 -0.5407
58458SOL    HW284343   7.697   6.575   0.727  0.0947  0.0123  0.0198
58459SOL     OW84344   8.628  11.913   3.308 -0.1428 -0.3611  0.3034
58459SOL    HW184345   8.549  11.942   3.354 -0.8267 -1.9277  0.2098
58459SOL    HW284346   8.595  11.856   3.238  0.9229  1.2087 -1.5793
58460SOL     OW84347   1.864   3.730   2.647 -0.3379  0.3260 -0.4770
58460SOL    HW184348   1.809   3.770   2.716 -0.0537 -0.2694  0.1044
58460SOL    HW284349   1.936   3.690   2.695  0.6448  1.1395 -1.2389
58461SOL     OW84350   5.325  11.382   4.900  0.0728  0.1723  0.0587
58461SOL    HW184351   5.419  11.370   4.910  0.0531  0.6808  0.9629
58461SOL    HW284352   5.315  11.472   4.871 -0.0836 -0.2466 -1.2568
58462SOL     OW84353   2.578   5.720   0.871 -0.1194  0.0072  0.3804
58462SOL    HW184354   2.534   5.636   0.857  1.4816 -1.0218  1.1151
58462SOL    HW284355   2.638   5.703   0.944  0.1865  1.8341  0.6026
58463SOL     OW84356   2.807  11.230   1.789  0.2855  0.1763  0.5828
58463SOL    HW184357   2.819  11.290   1.863  1.2540  0.5208  0.1614
58463SOL    HW284358   2.850  11.274   1.715 -2.0916  0.6318 -0.6301
58464SOL     OW84359  11.603  12.343   0.667  0.2790  0.3805  0.4407
58464SOL    HW184360  11.673  12.407   0.677 -0.3306  1.5016 -1.8421
58464SOL    HW284361  11.636  12.281   0.602 -0.3539  0.1997  0.2809
58465SOL     OW84362   5.525  10.928   2.920  0.2553 -0.7355 -0.0610
58465SOL    HW184363   5.589  10.858   2.902  0.5267 -0.3088 -0.7831
58465SOL    HW284364   5.469  10.929   2.843 -1.5494 -2.0639  1.1580
58466SOL     OW84365   8.896   0.629   5.119  0.1655  0.3576  0.1994
58466SOL    HW184366   8.841   0.564   5.162  1.3133 -1.2574 -0.6676
58466SOL    HW284367   8.964   0.578   5.075  3.4694  2.2441  2.6040
58467SOL     OW84368  12.269   6.418  10.493 -0.8523  0.0495 -0.2226
58467SOL    HW184369  12.266   6.367  10.412 -0.8209  2.4729 -1.8228
58467SOL    HW284370  12.203   6.376  10.549  0.1049 -2.5481 -0.8851
58468SOL     OW84371   7.472   5.554  11.961 -0.4431  0.3533 -0.2000
58468SOL    HW184372   7.418   5.632  11.978 -1.0001 -0.0555 -0.0584
58468SOL    HW284373   7.451   5.530  11.871 -0.2153  0.4104 -0.2680
58469SOL     OW84374  12.061   7.959   1.116  0.4055  0.4387 -0.4878
58469SOL    HW184375  12.053   8.053   1.131  2.6872  0.5380  0.5675
58469SOL    HW284376  12.144   7.949   1.070 -0.9273 -0.9211 -2.7931
58470SOL     OW84377   8.516   9.906   3.919  0.0147  0.0420 -0.0193
58470SOL    HW184378   8.435   9.922   3.871  1.4400  1.7365 -2.0110
58470SOL    HW284379   8.574   9.865   3.855  1.3128  0.4425  0.8708
58471SOL     OW84380  12.214   9.007   4.427  0.5266 -0.3845  0.2491
58471SOL    HW184381  12.306   9.004   4.451  0.8833  1.5371 -0.6617
58471SOL    HW284382  12.207   8.948   4.352  1.1008 -0.2503  0.0854
58472SOL     OW84383   9.034  10.616  12.244  0.1663  0.3098  0.1357
58472SOL    HW184384   9.055  10.595  12.153  0.0421  2.2247 -0.3910
58472SOL    HW284385   9.093  10.561  12.296  2.0231  0.9774 -1.1528
58473SOL     OW84386   5.103   7.977   1.208 -0.0763 -0.1107 -0.3560
58473SOL    HW184387   5.027   8.024   1.173 -0.1743 -0.2152 -0.2879
58473SOL    HW284388   5.174   8.042   1.208 -0.1294 -0.0513 -0.5479
58474SOL     OW84389  12.092  11.079   8.570  0.4511 -0.3186  0.2792
58474SOL    HW184390  12.182  11.092   8.543  0.4572 -1.4967 -0.3381
58474SOL    HW284391  12.096  11.063   8.664  0.4288  3.9018  1.2022
58475SOL     OW84392   4.833   6.183   1.272  0.5809  0.0048 -0.8275
58475SOL    HW184393   4.819   6.191   1.178  0.1966 -1.3716 -0.9144
58475SOL    HW284394   4.863   6.269   1.300 -0.5377  0.8021 -1.9851
58476SOL     OW84395   2.293  11.022   3.488  0.3048 -0.0653 -0.5049
58476SOL    HW184396   2.198  11.030   3.484  0.3008  0.3553  0.1755
58476SOL    HW284397   2.309  10.964   3.563  0.5059 -2.5982 -2.3738
58477SOL     OW84398   3.579  10.927   4.976  0.0547 -0.5453  0.4188
58477SOL    HW184399   3.628  10.988   5.030  0.2304  1.3050 -1.7150
58477SOL    HW284400   3.521  10.882   5.038  2.0265 -0.4061  2.4910
58478SOL     OW84401  10.431  12.485   3.138 -0.2737 -0.1593 -0.3902
58478SOL    HW184402  10.394  12.450   3.219  2.0515 -1.1887  0.2983
58478SOL    HW284403  10.415  12.579   3.143  1.1660  0.0414  2.0584
58479SOL     OW84404  11.359   5.329   1.829 -0.2588 -0.6905  0.0984
58479SOL    HW184405  11.307   5.387   1.773  1.2681  0.8026  0.1587
58479SOL    HW284406  11.300   5.304   1.900 -0.6751  1.7456  0.7048
58480SOL     OW84407   4.138   2.024   2.872 -0.3824 -0.3117 -0.1164
58480SOL    HW184408   4.199   2.063   2.809 -0.8661 -0.8681 -0.9463
58480SOL    HW284409   4.158   2.067   2.955 -1.3015  2.1656 -1.0993
58481SOL     OW84410  10.549   6.400   7.462 -0.3029  0.2179  0.4207
58481SOL    HW184411  10.484   6.333   7.444  0.3257 -0.0927 -0.7813
58481SOL    HW284412  10.572   6.387   7.554 -2.3790  0.7517  1.0789
58482SOL     OW84413   3.309   3.680  10.960  0.5926 -0.0320 -0.2009
58482SOL    HW184414   3.329   3.721  10.876 -1.1429  0.9766 -0.1482
58482SOL    HW284415   3.222   3.642  10.949 -0.0721  0.9408  1.4168
58483SOL     OW84416   4.620   4.489   5.437  0.0399 -0.2145 -0.9694
58483SOL    HW184417   4.645   4.546   5.509 -1.1470 -1.6721  0.6697
58483SOL    HW284418   4.666   4.406   5.455 -0.8518 -0.8297 -1.4732
58484SOL     OW84419  12.045   7.896   6.284  0.4402  0.4565  0.7552
58484SOL    HW184420  12.117   7.937   6.332  1.5614 -0.2807 -0.2586
58484SOL    HW284421  12.059   7.923   6.193  0.2629 -0.8606  0.3290
58485SOL     OW84422   0.601  10.710   1.416 -0.2462  0.0091 -0.4950
58485SOL    HW184423   0.687  10.697   1.456  0.0378 -0.3945 -1.2217
58485SOL    HW284424   0.556  10.627   1.427 -0.2956  0.0078 -0.6981
58486SOL     OW84425   7.372   1.628   7.202 -0.4354 -0.0880 -0.3455
58486SOL    HW184426   7.299   1.690   7.204 -0.4489 -0.1097 -0.0539
58486SOL    HW284427   7.374   1.595   7.112 -0.6112  0.1190 -0.4251
58487SOL     OW84428   7.239   6.638  11.691 -0.6107 -0.0835  0.0356
58487SOL    HW184429   7.307   6.575  11.667 -1.9076 -1.1816 -0.8742
58487SOL    HW284430   7.279   6.724  11.676  1.2130 -0.6345  1.3638
58488SOL     OW84431   1.934   9.165   8.059 -0.1968  0.0667  0.0206
58488SOL    HW184432   1.845   9.181   8.027 -0.9328 -1.4125  1.1827
58488SOL    HW284433   1.974   9.109   7.992 -0.7450 -0.6683  0.2940
58489SOL     OW84434   4.878   1.607   6.233 -0.1421 -0.1285  0.1909
58489SOL    HW184435   4.880   1.536   6.297 -0.3788  0.0834  0.4315
58489SOL    HW284436   4.970   1.621   6.211  0.0591  0.6771  1.4595
58490SOL     OW84437  10.760  11.660   1.182 -0.2739 -0.4186 -0.5700
58490SOL    HW184438  10.714  11.615   1.111  1.4120 -3.3165  0.0135
58490SOL    HW284439  10.812  11.727   1.139 -1.5701 -0.0780 -1.6899
58491SOL     OW84440   8.642   9.736   2.150 -1.1111  0.2913 -0.1621
58491SOL    HW184441   8.601   9.656   2.183  0.6354 -1.4704 -1.9251
58491SOL    HW284442   8.588   9.760   2.074 -2.2073  1.4029  0.9414
58492SOL     OW84443  12.504   6.973   4.299 -0.1372  0.3001  0.2045
58492SOL    HW184444  12.469   6.950   4.385  0.0452  0.8255  0.4267
58492SOL    HW284445  12.480   6.900   4.243  1.4373 -1.0235  1.1406
58493SOL     OW84446  11.484   7.416   1.936 -0.4652 -0.1922 -0.3006
58493SOL    HW184447  11.541   7.477   1.984 -1.3977 -0.6515  1.4897
58493SOL    HW284448  11.491   7.334   1.985 -0.4172 -1.1117 -1.7879
58494SOL     OW84449   2.875   3.638   0.444  0.1431  0.2513 -0.6019
58494SOL    HW184450   2.852   3.547   0.426 -0.4312  0.4958 -1.1553
58494SOL    HW284451   2.927   3.665   0.368  1.6721 -0.0700  0.2915
58495SOL     OW84452   7.302  10.399   6.548  1.0989 -0.1734  0.1129
58495SOL    HW184453   7.346  10.351   6.619  1.1909  0.2270  0.3253
58495SOL    HW284454   7.368  10.458   6.513  0.7054  0.5175  0.5100
58496SOL     OW84455  12.037   8.993   4.934  0.6784  0.1500 -0.4714
58496SOL    HW184456  12.071   8.958   4.852 -2.8085 -0.2134 -1.9423
58496SOL    HW284457  11.961   9.044   4.908  0.4851  1.5162  2.4410
58497SOL     OW84458   5.088   4.560   1.910  0.5769 -0.3433  0.6542
58497SOL    HW184459   5.010   4.524   1.867 -0.1312  0.5106  1.1885
58497SOL    HW284460   5.160   4.505   1.879 -0.2930 -1.4332  0.4985
58498SOL     OW84461   1.869   8.135  10.572 -0.3036 -0.1078  0.0902
58498SOL    HW184462   1.791   8.089  10.541 -0.0711 -0.9293  0.6739
58498SOL    HW284463   1.905   8.177  10.495  0.3245 -2.1727 -0.7905
58499SOL     OW84464   0.646   8.368   8.278 -0.6583 -0.0220  0.1210
58499SOL    HW184465   0.666   8.356   8.371 -0.8513  0.3460  0.2144
58499SOL    HW284466   0.565   8.420   8.278 -0.9992 -0.5366 -0.2477
58500SOL     OW84467   3.132   2.061   0.846  0.1511  0.6500 -0.1336
58500SOL    HW184468   3.100   1.999   0.912  1.0413  0.2444 -0.0691
58500SOL    HW284469   3.212   2.097   0.884 -0.4324  1.9644 -0.1129
58501SOL     OW84470  12.160   3.713   8.519 -0.1649 -0.0127  0.6251
58501SOL    HW184471  12.130   3.797   8.556 -0.7061 -0.2494  0.7332
58501SOL    HW284472  12.086   3.682   8.468 -0.4607 -1.0640  1.6514
58502SOL     OW84473   2.096   7.089   1.865 -0.1863  0.1180 -0.1164
58502SOL    HW184474   2.105   7.133   1.780 -1.5916 -0.5106 -0.6327
58502SOL    HW284475   2.078   6.997   1.842 -1.2611  0.0681  0.8183
58503SOL     OW84476   7.243  11.410   7.810 -0.2352 -0.0826  0.5381
58503SOL    HW184477   7.220  11.499   7.838  0.9623  0.1004  1.0084
58503SOL    HW284478   7.314  11.423   7.747 -1.2597 -0.6332 -0.7874
58504SOL     OW84479   0.747   8.418  10.003 -0.8126 -0.0814 -0.1830
58504SOL    HW184480   0.743   8.416  10.099 -0.2926 -3.3261 -0.1207
58504SOL    HW284481   0.660   8.388   9.975 -0.8398  0.4937 -0.7278
58505SOL     OW84482   2.339   7.602   5.346 -0.1131  0.2004 -0.1322
58505SOL    HW184483   2.379   7.689   5.355 -0.2395  0.1816  0.7285
58505SOL    HW284484   2.246   7.616   5.362 -0.0603 -0.1674  0.5357
58506SOL     OW84485   0.110   0.679  12.096 -0.4337  0.1059  0.3168
58506SOL    HW184486   0.126   0.734  12.172 -1.1843  0.2445  0.3826
58506SOL    HW284487   0.078   0.596  12.132  0.2277 -0.2103  0.1962
58507SOL     OW84488   2.509   5.994   1.110  0.4027  0.2494 -0.4351
58507SOL    HW184489   2.575   6.062   1.101  0.1000  0.2722 -3.8147
58507SOL    HW284490   2.558   5.917   1.139  1.5787  0.7766 -0.9638
58508SOL     OW84491   2.787   6.622   6.101  0.6483  0.5844 -0.0198
58508SOL    HW184492   2.844   6.667   6.039  1.8119 -0.4933  0.2250
58508SOL    HW284493   2.709   6.599   6.050  0.9639  0.9901 -0.7006
58509SOL     OW84494   9.860   9.354  11.941 -0.8654 -0.2917  0.0394
58509SOL    HW184495   9.888   9.383  12.028 -1.8608  0.2423  0.2059
58509SOL    HW284496   9.940   9.357  11.887 -0.6231  1.3618  0.4362
58510SOL     OW84497   7.863   0.349   5.762 -0.3204 -0.1025 -0.3124
58510SOL    HW184498   7.769   0.345   5.781 -0.3132  1.2754  0.1371
58510SOL    HW284499   7.906   0.336   5.846 -0.1157 -0.2055 -0.4306
58511SOL     OW84500   1.516   7.555   7.933 -0.0213 -0.3251  0.4508
58511SOL    HW184501   1.542   7.594   8.017 -0.2722  0.8686 -0.0060
58511SOL    HW284502   1.439   7.605   7.907 -0.8217 -1.6583  0.2007
58512SOL     OW84503  11.460   7.134   4.145 -0.0005  0.0945 -0.2055
58512SOL    HW184504  11.541   7.084   4.153 -1.1884 -1.9086 -0.0641
58512SOL    HW284505  11.487   7.217   4.106  1.9158 -1.0112 -1.3778
58513SOL     OW84506   0.467  12.125   2.073  0.0041 -0.6951  0.1659
58513SOL    HW184507   0.494  12.171   2.152 -0.2205 -0.6779  0.2341
58513SOL    HW284508   0.485  12.033   2.090 -2.9412 -1.1324  1.5058
58514SOL     OW84509   8.984  11.805  10.713  0.3903 -0.0859 -0.3916
58514SOL    HW184510   8.916  11.869  10.731  1.3266  0.9645 -0.4714
58514SOL    HW284511   8.937  11.724  10.693 -0.8279  0.6766 -0.6928
58515SOL     OW84512   8.507   6.013   2.755 -0.1057 -0.4850 -0.1870
58515SOL    HW184513   8.461   5.930   2.753 -1.5222  0.2315  0.7162
58515SOL    HW284514   8.519   6.037   2.663  1.0976 -2.0604 -0.4795
58516SOL     OW84515   7.941   6.948   9.102 -0.3496  0.2948 -0.0783
58516SOL    HW184516   7.982   6.938   9.016 -0.6757  0.6393 -0.2769
58516SOL    HW284517   7.992   7.016   9.145 -1.0448  1.1426 -0.5457
58517SOL     OW84518   4.981   0.306  11.059 -0.2343 -0.4887  0.3761
58517SOL    HW184519   4.899   0.292  11.013  0.5233 -1.0742 -0.8412
58517SOL    HW284520   4.975   0.251  11.137 -0.6575 -1.2046 -0.1506
58518SOL     OW84521   1.305   6.471   3.996 -0.3476  0.6664  0.3213
58518SOL    HW184522   1.342   6.558   3.988 -0.0296  0.5537  0.5390
58518SOL    HW284523   1.340   6.422   3.922  0.7270  0.2857  1.0535
58519SOL     OW84524   0.382   0.926   5.554  0.5086 -0.2906 -0.2202
58519SOL    HW184525   0.447   0.995   5.570  0.2131 -0.1967  0.6341
58519SOL    HW284526   0.425   0.846   5.584  0.7922 -0.4609 -1.0661
58520SOL     OW84527   8.973  10.680   0.945 -0.3568 -0.2964  0.2002
58520SOL    HW184528   8.912  10.710   1.013  1.5967  1.2063  1.3867
58520SOL    HW284529   8.946  10.728   0.867 -0.5969  0.5019  0.7575
58521SOL     OW84530   3.278   2.744   0.311 -0.0977 -0.1477 -0.0443
58521SOL    HW184531   3.332   2.784   0.380  2.0658 -2.8942  0.0082
58521SOL    HW284532   3.339   2.723   0.241 -2.0800  1.6175 -2.5188
58522SOL     OW84533   9.110   7.841   8.799 -0.0577  0.0330  0.5920
58522SOL    HW184534   9.132   7.759   8.843  3.6263  0.1607 -0.6782
58522SOL    HW284535   9.019   7.830   8.771 -0.1672 -2.9671  1.8086
58523SOL     OW84536  11.059   5.144   8.660  0.6852  0.2030  0.5571
58523SOL    HW184537  11.098   5.064   8.626  0.1244  1.0889 -2.4621
58523SOL    HW284538  10.968   5.121   8.679  0.7711 -0.1044  0.5896
58524SOL     OW84539   8.775   8.352   2.797  0.0313  1.0710  0.4095
58524SOL    HW184540   8.794   8.431   2.747 -0.8535  1.4782  0.6955
58524SOL    HW284541   8.725   8.383   2.873  0.8651  0.4002  1.2631
58525SOL     OW84542  10.594   2.256   3.302  0.1132 -0.3349  0.1233
58525SOL    HW184543  10.628   2.255   3.391 -0.7116 -0.1518  0.4537
58525SOL    HW284544  10.505   2.221   3.310  0.2925 -1.0264 -0.7435
58526SOL     OW84545   5.544   1.050   6.367  0.2838  0.1680  0.2111
58526SOL    HW184546   5.620   1.040   6.425  1.0695 -1.3482 -0.9961
58526SOL    HW284547   5.521   0.960   6.343  0.9066  0.7280 -2.9409
58527SOL     OW84548   3.705   4.823   3.061  0.1530 -0.5549 -0.0502
58527SOL    HW184549   3.797   4.801   3.070 -0.1715 -2.0621 -0.1433
58527SOL    HW284550   3.686   4.811   2.968 -0.2739 -0.9034  0.0739
58528SOL     OW84551  10.523   6.223  10.112 -0.1568  0.2008 -0.0844
58528SOL    HW184552  10.523   6.250  10.020 -0.9592  2.4941  0.5278
58528SOL    HW284553  10.576   6.289  10.157 -0.1050 -0.6544  1.1784
58529SOL     OW84554  10.685   1.203   2.026  0.5160  0.6832  0.6075
58529SOL    HW184555  10.723   1.219   1.939 -1.2062 -0.0744 -0.3286
58529SOL    HW284556  10.680   1.108   2.033 -0.5504  0.7481  0.9693
58530SOL     OW84557  10.603  10.910   4.067  0.2428  0.5190  0.0360
58530SOL    HW184558  10.664  10.837   4.058  1.3053  1.3571  0.2190
58530SOL    HW284559  10.550  10.888   4.143  0.6740  0.0321  0.2012
58531SOL     OW84560   6.201   6.561   5.754  0.5842  0.0780 -0.0251
58531SOL    HW184561   6.202   6.654   5.731  2.3559  0.2031  0.4215
58531SOL    HW284562   6.244   6.517   5.680 -0.3009 -0.4209 -0.2651
58532SOL     OW84563   8.650   3.613   0.741  0.4866 -0.3819  0.0593
58532SOL    HW184564   8.676   3.527   0.774  0.4941 -0.2144  0.4950
58532SOL    HW284565   8.554   3.609   0.737  0.3368  0.3037  2.1041
58533SOL     OW84566   2.961   7.396   4.806  0.3074  0.3679  0.5805
58533SOL    HW184567   3.036   7.455   4.820  0.5524 -0.0350  1.0090
58533SOL    HW284568   2.900   7.446   4.753  1.4650  0.2426 -0.9261
58534SOL     OW84569   9.982   9.243   7.057  0.1069 -0.0673  0.3133
58534SOL    HW184570   9.955   9.294   6.981  0.2583 -1.4127 -0.6906
58534SOL    HW284571   9.924   9.167   7.057 -0.7017  0.4729  2.2866
58535SOL     OW84572  12.589   4.676  11.273  0.0118  0.6507 -0.1477
58535SOL    HW184573  12.621   4.726  11.348  0.7281 -1.1838  0.8285
58535SOL    HW284574  12.520   4.731  11.235  0.8207  2.3987  0.7866
58536SOL     OW84575   2.251   6.432   5.694  0.3352 -0.5378 -0.8487
58536SOL    HW184576   2.268   6.514   5.647 -1.6325 -0.2405 -1.1135
58536SOL    HW284577   2.256   6.456   5.787 -1.8692  0.3425 -0.8876
58537SOL     OW84578   6.270   2.327   7.198  0.0001 -0.0711  0.3450
58537SOL    HW184579   6.204   2.369   7.143  2.4879  0.9682 -2.0708
58537SOL    HW284580   6.310   2.398   7.248  1.4002 -0.1256 -0.6314
58538SOL     OW84581   8.240   4.048  10.510  0.7391 -0.1399  0.4601
58538SOL    HW184582   8.182   4.123  10.512  0.4039 -0.3166 -1.0871
58538SOL    HW284583   8.239   4.013  10.599 -0.6567  0.5064  0.7123
58539SOL     OW84584   9.221  11.061   2.990 -0.0373  0.2670 -0.0885
58539SOL    HW184585   9.241  11.055   2.896  2.2196  1.4222  0.2498
58539SOL    HW284586   9.215  10.970   3.018 -0.3754 -0.1017 -1.2713
58540SOL     OW84587   1.332   6.712   2.521 -0.4692 -0.5134 -0.4043
58540SOL    HW184588   1.369   6.637   2.569 -0.3696 -0.0035  0.3182
58540SOL    HW284589   1.408   6.754   2.481 -0.4122 -0.2288 -0.0000
58541SOL     OW84590  10.472   1.357   4.998 -0.0074 -0.0181 -0.1033
58541SOL    HW184591  10.444   1.340   4.908 -2.4173 -0.8530  0.7399
58541SOL    HW284592  10.392   1.354   5.050  1.4118 -0.4636  2.2193
58542SOL     OW84593   0.756   1.446   9.332  0.1526 -0.6071 -0.2695
58542SOL    HW184594   0.666   1.418   9.348 -0.6415  1.1376 -1.3505
58542SOL    HW284595   0.792   1.463   9.419 -0.3098 -1.9898  0.2163
58543SOL     OW84596   2.763   7.213  12.358  0.2657 -0.1635  0.1644
58543SOL    HW184597   2.772   7.201  12.453  1.9026  0.0514  0.0664
58543SOL    HW284598   2.733   7.303  12.348 -0.2452 -0.2921  0.4780
58544SOL     OW84599   7.150   3.352   6.773 -0.3048  0.6383 -0.2715
58544SOL    HW184600   7.221   3.416   6.772  0.3614 -0.0829 -1.3031
58544SOL    HW284601   7.081   3.392   6.721  0.3094  0.3191 -1.3555
58545SOL     OW84602  12.124   0.402  11.642  0.4586 -0.4882 -0.3716
58545SOL    HW184603  12.191   0.461  11.608 -0.0854  0.2591 -0.1631
58545SOL    HW284604  12.044   0.454  11.644 -0.2344 -1.4731 -0.9751
58546SOL     OW84605   4.010   7.908   1.865 -0.4918  0.0758  0.2787
58546SOL    HW184606   4.006   7.821   1.903 -1.3311 -0.3487 -0.7225
58546SOL    HW284607   3.934   7.954   1.902 -0.4507  0.1442  0.2772
58547SOL     OW84608   9.608   7.507   3.628  0.1751  0.4110  0.1757
58547SOL    HW184609   9.595   7.452   3.550  0.5165 -0.5280  0.7664
58547SOL    HW284610   9.519   7.520   3.662  0.1455 -0.4192  0.4504
58548SOL     OW84611   1.743   6.627   7.354 -0.0078 -0.4073  0.5009
58548SOL    HW184612   1.652   6.644   7.333  0.3824 -0.0107 -0.9864
58548SOL    HW284613   1.744   6.541   7.395 -0.7150 -1.8073 -2.2530
58549SOL     OW84614   6.104  12.440   7.579  0.0842 -0.0842  0.2274
58549SOL    HW184615   6.095  12.361   7.632 -3.0550  0.0447  0.0544
58549SOL    HW284616   6.120  12.408   7.490 -0.0478 -0.4776  0.3432
58550SOL     OW84617  12.418   2.882   3.063  0.2886  0.8439  0.1483
58550SOL    HW184618  12.506   2.867   3.026  0.1645  1.4472 -0.3942
58550SOL    HW284619  12.420   2.836   3.147  0.8453  0.1357 -0.2374
58551SOL     OW84620   5.185   8.168   4.676  0.2557  0.0250  0.6252
58551SOL    HW184621   5.139   8.085   4.689 -1.7674  1.0273  0.3185
58551SOL    HW284622   5.141   8.208   4.601  1.1237  1.4065  0.8125
58552SOL     OW84623   1.373   5.574   6.921 -1.3372  0.5680  0.1920
58552SOL    HW184624   1.325   5.575   6.838 -1.1153 -0.7947  0.0302
58552SOL    HW284625   1.368   5.665   6.952  1.3695  1.9896 -2.9155
58553SOL     OW84626   3.903   4.953   4.276 -0.2279  0.0728  0.1446
58553SOL    HW184627   3.855   5.005   4.340 -0.1364 -0.6403  0.8137
58553SOL    HW284628   3.991   4.991   4.276 -0.5035  0.7218 -0.3178
58554SOL     OW84629   0.799   1.503  10.473  0.5123 -0.7587 -0.2637
58554SOL    HW184630   0.817   1.573  10.410 -1.7516 -1.6939 -2.1173
58554SOL    HW284631   0.832   1.424  10.430  2.5109 -1.0044  1.5512
58555SOL     OW84632   7.638   9.330   0.900 -0.1130 -0.1216  0.0740
58555SOL    HW184633   7.728   9.313   0.927  0.5412  0.9542 -1.3401
58555SOL    HW284634   7.644   9.354   0.807 -2.0980 -2.2366 -0.7215
58556SOL     OW84635   7.856   1.662   6.379 -0.8365  0.3853 -0.1699
58556SOL    HW184636   7.932   1.668   6.322 -0.1751 -1.2434  0.4803
58556SOL    HW284637   7.884   1.605   6.451 -2.4437  0.3463  0.4701
58557SOL     OW84638   1.482  11.848   9.414  0.4155  0.3212 -0.2654
58557SOL    HW184639   1.484  11.794   9.335  1.2729 -0.5429  0.3197
58557SOL    HW284640   1.403  11.902   9.404  1.0035  0.9177 -2.1427
58558SOL     OW84641   4.432  10.448   2.207 -0.1241  0.4611  0.2037
58558SOL    HW184642   4.341  10.470   2.229 -0.4365 -0.2218 -0.4032
58558SOL    HW284643   4.427  10.364   2.163  0.7108  0.8383 -0.6497
58559SOL     OW84644   0.369   8.341  10.354 -0.8464 -0.0405  0.1418
58559SOL    HW184645   0.297   8.279  10.367  0.7927 -1.7153  2.0064
58559SOL    HW284646   0.426   8.298  10.290 -0.3931  0.2020  0.3763
58560SOL     OW84647   8.320   6.773   6.124 -0.1369 -0.0735 -0.2895
58560SOL    HW184648   8.296   6.858   6.087 -0.7691 -0.0430  0.1776
58560SOL    HW284649   8.345   6.792   6.215  0.9866 -0.2077 -0.5581
58561SOL     OW84650   7.695  10.246   1.613  0.0734  0.6268 -0.7234
58561SOL    HW184651   7.612  10.199   1.615 -0.2510  1.1798 -1.0772
58561SOL    HW284652   7.705  10.281   1.701  0.8513 -0.9972 -0.1134
58562SOL     OW84653   6.845   6.409   0.144 -0.7574 -0.1766  0.1472
58562SOL    HW184654   6.775   6.344   0.143 -0.2852 -0.7320 -1.7895
58562SOL    HW284655   6.902   6.383   0.072 -1.4972  3.4324 -1.9726
58563SOL     OW84656   3.072  11.486  12.173  0.0448  0.0848  0.3867
58563SOL    HW184657   3.030  11.465  12.257  2.4729  1.2018  2.0104
58563SOL    HW284658   3.104  11.402  12.141  2.4638 -0.0125  2.6480
58564SOL     OW84659   0.157   2.842   4.596 -0.3615 -0.9036  0.5149
58564SOL    HW184660   0.090   2.903   4.626  1.0856  1.1895 -0.2332
58564SOL    HW284661   0.111   2.760   4.582 -2.3125 -0.1655  2.0867
58565SOL     OW84662  10.025   2.920   7.855  0.5949  0.0324  0.0339
58565SOL    HW184663  10.068   2.861   7.917 -2.0886 -0.8568  1.2330
58565SOL    HW284664   9.992   2.992   7.909 -0.2923  0.1333 -0.6067
58566SOL     OW84665   1.282   2.282  10.911  0.2364 -0.5218  0.6036
58566SOL    HW184666   1.198   2.311  10.873  0.1056 -0.8475  0.6396
58566SOL    HW284667   1.316   2.359  10.956  1.2996  0.4678 -1.7348
58567SOL     OW84668   2.717  10.592   2.771 -0.5722 -0.3890  0.0982
58567SOL    HW184669   2.665  10.580   2.850 -2.1307 -0.0149 -0.8127
58567SOL    HW284670   2.783  10.657   2.795  0.8289 -2.3229  1.8520
58568SOL     OW84671   0.204  10.448  10.369 -0.3293 -0.1089 -0.3145
58568SOL    HW184672   0.129  10.426  10.315 -1.1698 -0.5231  0.9770
58568SOL    HW284673   0.173  10.437  10.459  1.2967 -0.3771  0.2479
58569SOL     OW84674   2.701   9.714  12.009 -0.6228 -0.2873 -0.4221
58569SOL    HW184675   2.677   9.754  12.093  0.9547  0.4268 -0.2799
58569SOL    HW284676   2.617   9.697  11.966 -1.4764 -1.0160  1.4402
58570SOL     OW84677   0.196   0.980  11.481 -1.2215  0.0345  0.1805
58570SOL    HW184678   0.223   1.018  11.397 -0.9486 -0.5668 -0.0076
58570SOL    HW284679   0.269   1.000  11.540 -1.3208  0.2776  0.2201
58571SOL     OW84680   7.412   6.819  11.187 -0.6399 -0.1823  0.1682
58571SOL    HW184681   7.366   6.876  11.125 -0.1556 -1.0070 -0.9864
58571SOL    HW284682   7.344   6.759  11.219 -1.1369  0.9758  1.3424
58572SOL     OW84683   9.151   7.803   9.733 -0.0007 -0.5651 -0.4246
58572SOL    HW184684   9.174   7.711   9.748 -1.1077 -0.6244  1.1614
58572SOL    HW284685   9.222   7.852   9.775 -0.0295 -0.7100 -0.2054
58573SOL     OW84686   7.779   8.430  10.007 -0.2959 -0.1512 -0.4676
58573SOL    HW184687   7.857   8.377   9.989 -0.3919  0.0707 -1.6073
58573SOL    HW284688   7.709   8.367  10.020 -0.1323 -0.3289 -0.4499
58574SOL     OW84689  12.529   0.631   6.615 -0.4063 -0.1436 -0.2455
58574SOL    HW184690  12.515   0.555   6.558  0.5863 -0.6562  0.1900
58574SOL    HW284691  12.502   0.602   6.702  0.0242 -0.0121 -0.0659
58575SOL     OW84692   2.322   5.485   6.516  0.0075 -0.5859 -0.2503
58575SOL    HW184693   2.411   5.456   6.497 -0.6702 -2.0194 -1.4618
58575SOL    HW284694   2.333   5.562   6.572  1.9711 -1.6811  1.0068
58576SOL     OW84695   8.879   4.227   8.390  0.5310  0.0538 -0.0231
58576SOL    HW184696   8.890   4.314   8.427 -0.9998  0.3845 -0.2866
58576SOL    HW284697   8.808   4.188   8.441 -0.4367 -0.1293 -1.4636
58577SOL     OW84698  11.119   3.547   1.774  0.5844 -0.5012  0.1486
58577SOL    HW184699  11.113   3.453   1.790 -1.3976 -0.4397 -0.0267
58577SOL    HW284700  11.079   3.559   1.688  0.4027  0.5658  0.3682
58578SOL     OW84701   4.061   6.505   3.730 -0.0940 -0.1028  0.0207
58578SOL    HW184702   3.993   6.482   3.666 -0.0451 -2.2926  0.6675
58578SOL    HW284703   4.137   6.453   3.703  0.0276 -0.8189  1.6289
58579SOL     OW84704   4.664   1.842   3.541  0.3277 -0.2196 -0.0332
58579SOL    HW184705   4.672   1.927   3.584 -2.1354 -0.3147  0.7701
58579SOL    HW284706   4.700   1.855   3.453  0.7571  1.3977  0.3620
58580SOL     OW84707   9.854   2.183   4.501  0.0430 -0.1691  0.1260
58580SOL    HW184708   9.900   2.155   4.580 -0.2200 -0.4086  0.1976
58580SOL    HW284709   9.922   2.220   4.445 -0.0014  1.6095  1.1766
58581SOL     OW84710  11.332  10.675  10.724  0.1457 -0.1524  0.1576
58581SOL    HW184711  11.352  10.617  10.797  0.9865  0.7784  0.6854
58581SOL    HW284712  11.411  10.674  10.670  0.4746  1.0764  0.5768
58582SOL     OW84713   3.743   0.639  12.203  0.2878 -0.0721  0.2126
58582SOL    HW184714   3.765   0.548  12.183  0.8052  0.3326 -1.2528
58582SOL    HW284715   3.751   0.646  12.298 -1.4769 -1.9646  0.5754
58583SOL     OW84716   5.786   8.740   4.395  0.2588  0.5015  0.0893
58583SOL    HW184717   5.792   8.678   4.468 -0.2273  1.5555  1.0521
58583SOL    HW284718   5.708   8.792   4.413 -0.5147  0.0601 -1.7905
58584SOL     OW84719   3.094   8.081   6.468 -0.2176 -0.3498  0.0663
58584SOL    HW184720   3.032   8.008   6.470 -1.3335  0.5394 -0.8484
58584SOL    HW284721   3.050   8.149   6.417  1.5261  0.3114 -0.6397
58585SOL     OW84722   8.452   1.653  11.986 -0.0621  0.1906  0.0316
58585SOL    HW184723   8.458   1.637  12.080 -3.5776  0.1411  0.3839
58585SOL    HW284724   8.493   1.576  11.946  0.3279 -0.4274  1.5418
58586SOL     OW84725  10.666   4.311   5.515 -0.3134  0.0708 -0.1858
58586SOL    HW184726  10.572   4.325   5.506 -0.0852  2.4053  0.3038
58586SOL    HW284727  10.697   4.294   5.426 -1.0763  0.1347 -0.4730
58587SOL     OW84728   7.993   6.042   8.438 -0.3763 -0.2546 -0.2095
58587SOL    HW184729   8.060   6.107   8.421 -0.7931  0.3524  0.3774
58587SOL    HW284730   8.041   5.961   8.457  0.1624  0.0177 -0.4127
58588SOL     OW84731   5.721  11.503   4.695  0.4686 -0.2189  0.5598
58588SOL    HW184732   5.808  11.512   4.733  0.0597 -1.5219  1.9210
58588SOL    HW284733   5.697  11.591   4.668  2.3252  0.1154 -0.1632
58589SOL     OW84734   9.716   8.911   4.789  1.0527 -0.4713 -0.8926
58589SOL    HW184735   9.795   8.905   4.735  2.0396  1.4023  0.1990
58589SOL    HW284736   9.675   8.993   4.763  0.9838 -0.0604  0.4162
58590SOL     OW84737   7.669   2.690   0.102 -0.2635  0.4017  0.5328
58590SOL    HW184738   7.739   2.626   0.115 -0.7203 -0.0721  0.7053
58590SOL    HW284739   7.704   2.752   0.038 -0.1114 -0.4716 -0.2410
58591SOL     OW84740   9.564   1.808   6.666  0.2691  0.6000  0.2066
58591SOL    HW184741   9.528   1.821   6.753  0.6972  0.0972  0.4649
58591SOL    HW284742   9.556   1.894   6.623 -1.0455  0.5478  0.3116
58592SOL     OW84743   0.841   0.556   4.026 -0.2393 -0.1454 -0.0355
58592SOL    HW184744   0.766   0.573   3.970 -1.7657 -0.5868  1.7703
58592SOL    HW284745   0.838   0.461   4.042  1.8944 -0.5321 -1.4664
58593SOL     OW84746   2.610   5.090   5.668 -0.3545  0.0566  0.3360
58593SOL    HW184747   2.626   5.163   5.607 -1.7836 -0.4474 -0.6943
58593SOL    HW284748   2.517   5.070   5.658 -0.1867 -1.3468  1.2579
58594SOL     OW84749  11.719  11.136   9.601  0.1480  0.3917 -0.1278
58594SOL    HW184750  11.726  11.174   9.689 -2.1202  0.5006  0.0755
58594SOL    HW284751  11.739  11.043   9.614  0.6757  0.5610  0.3245
58595SOL     OW84752  10.655   6.873   9.245 -0.1053  0.8146 -0.3212
58595SOL    HW184753  10.660   6.882   9.340  1.6314 -1.4058 -0.1226
58595SOL    HW284754  10.608   6.952   9.216  0.3934  2.1645  2.2348
58596SOL     OW84755   6.857   9.785   5.875  0.6078  0.2268  0.7483
58596SOL    HW184756   6.870   9.880   5.870  0.7324  0.1728  0.0445
58596SOL    HW284757   6.879   9.753   5.788 -0.6971 -0.3009  0.5996
58597SOL     OW84758   8.778   4.353   6.602  0.2361  0.3683  0.2793
58597SOL    HW184759   8.739   4.431   6.562 -0.7859  0.0504  0.6286
58597SOL    HW284760   8.868   4.353   6.571 -0.1817  0.8316 -0.9992
58598SOL     OW84761  10.904   1.093   8.445 -0.5603 -0.1242  0.4419
58598SOL    HW184762  10.910   1.097   8.349 -0.1030 -0.0945  0.4661
58598SOL    HW284763  10.906   1.185   8.473 -1.7914 -0.0873  0.4278
58599SOL     OW84764   0.533   8.477   5.579  0.1004  0.2078  0.0669
58599SOL    HW184765   0.529   8.475   5.674 -0.6719  0.2329  0.0392
58599SOL    HW284766   0.588   8.402   5.556 -0.6310 -0.4626  0.4846
58600SOL     OW84767   9.658  11.109   5.454 -0.1271 -0.0212 -0.4509
58600SOL    HW184768   9.579  11.071   5.494 -1.3903  1.7007 -1.2063
58600SOL    HW284769   9.713  11.033   5.434 -0.5641 -1.1360  2.1313
58601SOL     OW84770   1.171   2.029   2.617  0.2792 -0.2191  0.3231
58601SOL    HW184771   1.126   2.098   2.568 -2.5827 -2.3385 -0.3114
58601SOL    HW284772   1.173   2.062   2.707 -2.5027  0.1614  0.3436
58602SOL     OW84773  12.217  10.576   8.324 -0.0554  0.7262 -0.6669
58602SOL    HW184774  12.134  10.617   8.298  0.0604  0.9420 -0.7001
58602SOL    HW284775  12.271  10.581   8.246 -0.0126  0.5815 -0.6463
58603SOL     OW84776   3.204   9.789   8.898  0.1793 -0.7415 -0.0987
58603SOL    HW184777   3.178   9.799   8.989 -0.9295 -1.5532 -0.3032
58603SOL    HW284778   3.188   9.697   8.878 -0.3970 -0.3973 -1.3516
58604SOL     OW84779  10.525  11.750   8.596 -0.0083 -0.1057  0.4355
58604SOL    HW184780  10.457  11.685   8.616 -0.2291 -0.6113 -1.7597
58604SOL    HW284781  10.582  11.707   8.532  0.3592  1.5340 -0.3897
58605SOL     OW84782   9.051   1.225   4.026 -0.1068  0.0284 -0.5339
58605SOL    HW184783   9.076   1.151   3.971  0.1978  0.4251 -0.9370
58605SOL    HW284784   9.135   1.265   4.052 -0.2883  0.6915 -0.9577
58606SOL     OW84785   3.860  12.556   5.195  0.4006  0.1826  0.4057
58606SOL    HW184786   3.845  12.476   5.145  0.2916  0.8105 -0.6046
58606SOL    HW284787   3.807  12.623   5.150 -0.3080  0.6178  1.8197
58607SOL     OW84788   8.086   7.929   2.290 -0.2773  0.1059 -0.7002
58607SOL    HW184789   8.034   7.997   2.333  0.4739  0.4486 -0.3173
58607SOL    HW284790   8.032   7.851   2.294 -0.6871  0.4107 -0.1360
58608SOL     OW84791   8.293  10.228   9.858  0.6035 -0.7218 -0.2611
58608SOL    HW184792   8.237  10.168   9.808 -0.1977  0.8899 -1.3876
58608SOL    HW284793   8.232  10.288   9.901  1.3914 -0.5232  0.6142
58609SOL     OW84794   2.003   6.235   6.596 -0.9005 -0.2786 -0.9594
58609SOL    HW184795   2.039   6.203   6.513 -3.2877  1.3492 -2.7563
58609SOL    HW284796   2.066   6.301   6.625 -0.2615 -0.5214 -1.7463
58610SOL     OW84797   3.714   0.884   6.367 -0.1128 -0.4429 -0.0715
58610SOL    HW184798   3.668   0.968   6.355 -1.3125 -0.8526  1.3627
58610SOL    HW284799   3.711   0.869   6.462  3.8903 -0.0451  0.2711
58611SOL     OW84800   7.537   9.819   4.208  0.7674 -0.2511  0.4483
58611SOL    HW184801   7.575   9.785   4.127 -0.2303 -1.5554  0.5054
58611SOL    HW284802   7.516   9.910   4.187 -1.9380 -1.2235 -1.7214
58612SOL     OW84803   5.188   6.668  10.914 -0.5828  0.3796 -0.3461
58612SOL    HW184804   5.281   6.688  10.899 -0.6634 -0.7802 -2.9806
58612SOL    HW284805   5.152   6.750  10.948  0.7103  2.1385 -2.8203
58613SOL     OW84806   2.372  12.158  12.125 -0.9154  0.3920 -0.0964
58613SOL    HW184807   2.460  12.182  12.153 -0.8567 -0.4626  0.4936
58613SOL    HW284808   2.315  12.191  12.194 -0.9403 -0.1268  0.1339
58614SOL     OW84809   8.835   5.221  10.869  0.1021  0.6797 -0.1088
58614SOL    HW184810   8.872   5.275  10.939 -0.3588 -0.2607  0.8891
58614SOL    HW284811   8.871   5.134  10.884 -0.4036  0.3553 -0.7435
58615SOL     OW84812  12.192  10.341  10.104  0.2508  0.2028 -0.0613
58615SOL    HW184813  12.231  10.260  10.072 -0.2893 -0.0689 -0.0330
58615SOL    HW284814  12.132  10.314  10.173  1.4739  0.7830  1.2966
58616SOL     OW84815   3.814   7.053  11.293 -0.0665 -0.0327 -0.2826
58616SOL    HW184816   3.864   7.079  11.215  0.2710 -1.9258 -0.7431
58616SOL    HW284817   3.748   6.992  11.260  0.1979 -1.0013  0.9171
58617SOL     OW84818   8.606  10.168   9.838 -0.2341 -0.0846  0.3428
58617SOL    HW184819   8.520  10.173   9.796 -0.2080  0.0587  0.3078
58617SOL    HW284820   8.608  10.080   9.877 -0.3503 -0.1302  0.2461
58618SOL     OW84821   6.087   0.132   9.749  0.1308  0.0060  0.3689
58618SOL    HW184822   6.046   0.050   9.773 -1.9726  0.2248 -2.0575
58618SOL    HW284823   6.171   0.106   9.710  0.6088 -0.7501  1.8367
58619SOL     OW84824   1.926   7.853   3.278 -0.0838  0.1468 -1.0132
58619SOL    HW184825   1.923   7.948   3.272 -0.0822  0.3309  1.0928
58619SOL    HW284826   1.835   7.825   3.267 -0.2450  0.4888 -0.5674
58620SOL     OW84827   2.409  11.137   6.947 -0.1138  0.3848  0.1420
58620SOL    HW184828   2.351  11.093   6.884  0.3181  0.4913 -0.3385
58620SOL    HW284829   2.446  11.065   6.998  4.9497 -0.7568 -4.1567
58621SOL     OW84830  12.366   1.454  11.697 -0.0002 -0.5449 -0.0378
58621SOL    HW184831  12.375   1.411  11.781 -0.1613  0.4204  0.4851
58621SOL    HW284832  12.455   1.463  11.664  0.1599  0.0370  0.5334
58622SOL     OW84833   9.166   0.883  10.031  0.3927  0.5150 -0.1757
58622SOL    HW184834   9.252   0.923  10.044  0.5533  0.7623 -1.7937
58622SOL    HW284835   9.104   0.954  10.046  0.6199  1.0874 -1.7858
58623SOL     OW84836   8.207   1.962  11.233  0.6058  0.3589 -0.0346
58623SOL    HW184837   8.244   1.942  11.319 -0.0839  0.2682  0.2525
58623SOL    HW284838   8.208   2.057  11.227  1.7131  0.3413 -0.4154
58624SOL     OW84839   1.173   3.365   0.176  0.1293  0.4126  0.3401
58624SOL    HW184840   1.166   3.314   0.095  0.4760  1.6565 -0.4958
58624SOL    HW284841   1.090   3.349   0.221 -0.0914 -0.2512 -0.2756
58625SOL     OW84842   8.678   5.976   5.220 -0.4631 -0.2483  0.4473
58625SOL    HW184843   8.747   5.925   5.262 -0.2632 -0.6739 -0.3710
58625SOL    HW284844   8.726   6.032   5.158 -0.8994 -1.0760 -0.6613
58626SOL     OW84845   6.849   5.731   5.995 -0.1863 -0.2195  0.1469
58626SOL    HW184846   6.909   5.676   6.045  0.2722 -0.1236 -0.2869
58626SOL    HW284847   6.773   5.742   6.052 -0.0869 -0.9196  0.4171
58627SOL     OW84848  10.064  12.138   4.961  0.0620 -0.1624 -0.1005
58627SOL    HW184849   9.980  12.094   4.965 -0.8856  1.6577  1.4268
58627SOL    HW284850  10.043  12.229   4.938  1.6129  0.3071  0.2105
58628SOL     OW84851   1.710  11.583   4.893 -0.6457  0.3423 -0.1827
58628SOL    HW184852   1.781  11.608   4.952  0.7016 -2.5397 -0.4224
58628SOL    HW284853   1.647  11.655   4.900  0.3026  1.0261  3.2927
58629SOL     OW84854  10.563  10.565   2.636  0.3260 -0.0220 -0.0020
58629SOL    HW184855  10.577  10.480   2.676  2.9257  0.9996  1.5528
58629SOL    HW284856  10.619  10.565   2.559  1.2085  0.6161  0.6167
58630SOL     OW84857   3.004   5.761   6.122  0.1692 -0.5949 -0.2275
58630SOL    HW184858   3.023   5.741   6.030  0.0426 -0.9567 -0.1770
58630SOL    HW284859   2.926   5.709   6.142 -0.0237 -0.2310 -0.0206
58631SOL     OW84860   3.031  12.153   0.953 -0.3501 -0.1836 -0.5039
58631SOL    HW184861   2.941  12.143   0.983 -0.0967  0.9960  0.7454
58631SOL    HW284862   3.037  12.244   0.923  0.0398 -0.6746 -1.9938
58632SOL     OW84863   4.171  10.796   2.531 -0.1129  0.7868 -0.1362
58632SOL    HW184864   4.164  10.866   2.596  0.1930  1.2717 -0.6205
58632SOL    HW284865   4.121  10.827   2.456 -0.1988  0.3676 -0.2591
58633SOL     OW84866   3.737   6.448   3.251  0.7481  0.0019 -0.0958
58633SOL    HW184867   3.758   6.393   3.327  0.7913  2.2747  1.6265
58633SOL    HW284868   3.819   6.493   3.231  1.0551 -1.4202 -2.3025
58634SOL     OW84869   5.403   0.720   8.945  0.4124  0.0030 -0.6703
58634SOL    HW184870   5.331   0.771   8.981  0.7101  0.7062 -1.0706
58634SOL    HW284871   5.374   0.695   8.858  0.6176  0.2044 -0.7958
58635SOL     OW84872  11.055   9.123  11.668  0.4775 -0.1103  0.1450
58635SOL    HW184873  11.000   9.101  11.593 -0.5022  1.3214  0.4068
58635SOL    HW284874  11.140   9.144  11.629 -0.3388  1.7971 -0.7471
58636SOL     OW84875   1.128  11.687   4.653 -0.7364  0.3884 -0.1182
58636SOL    HW184876   1.114  11.755   4.719  0.3797  0.4519  0.0725
58636SOL    HW284877   1.165  11.735   4.578  2.2182 -0.2634  0.8107
58637SOL     OW84878  11.694   4.466   7.456 -0.1076 -0.2136  0.1630
58637SOL    HW184879  11.631   4.520   7.504  1.5497  0.0436  2.2314
58637SOL    HW284880  11.719   4.398   7.519  0.1891 -1.5232 -1.3102
58638SOL     OW84881  11.607   0.919   8.927  0.3809 -0.1800  0.3000
58638SOL    HW184882  11.529   0.868   8.948  0.6174 -1.0301 -0.8182
58638SOL    HW284883  11.605   0.992   8.989 -0.4701 -1.0243  1.3051
58639SOL     OW84884   3.432   0.496   9.344  1.3466  0.1487 -0.0887
58639SOL    HW184885   3.397   0.481   9.432  0.0359  2.1752 -0.1925
58639SOL    HW284886   3.386   0.433   9.288  1.1742 -0.2241  0.4724
58640SOL     OW84887   8.262   5.202   1.884  0.1340 -0.0727  0.7465
58640SOL    HW184888   8.251   5.253   1.964  0.2323  0.1219  0.6353
58640SOL    HW284889   8.341   5.237   1.843  0.0162 -0.0880  0.5022
58641SOL     OW84890   3.312  10.318   6.637 -0.6982  0.0329  0.3096
58641SOL    HW184891   3.303  10.358   6.724 -0.9101  1.7025 -0.4473
58641SOL    HW284892   3.223  10.288   6.616 -0.7664  0.1575  0.4176
58642SOL     OW84893   3.364   7.361   9.814 -0.3619  0.4331  0.1481
58642SOL    HW184894   3.364   7.265   9.811 -2.3111  0.3541  0.8989
58642SOL    HW284895   3.357   7.388   9.723  0.0537 -0.1328 -0.0599
58643SOL     OW84896   8.292  10.579   5.215  0.0949 -0.1644 -0.2249
58643SOL    HW184897   8.326  10.613   5.298 -0.5882 -0.2420  0.0898
58643SOL    HW284898   8.338  10.496   5.203  1.8013  0.8280 -1.0081
58644SOL     OW84899   1.818   3.391   8.319  0.6819 -0.0649 -0.7954
58644SOL    HW184900   1.883   3.324   8.299 -0.1270 -1.1657  0.1495
58644SOL    HW284901   1.868   3.461   8.361  1.0702 -1.5769  1.3777
58645SOL     OW84902  12.508   8.814   8.130 -0.0932  0.9120 -0.7436
58645SOL    HW184903  12.419   8.848   8.118 -0.4493  0.8327  1.2295
58645SOL    HW284904  12.494   8.725   8.165  0.7877  0.3774 -1.7064
58646SOL     OW84905   6.377   6.161   1.621 -0.2629  0.1250 -0.2435
58646SOL    HW184906   6.394   6.112   1.541 -0.4536  1.3872 -1.0960
58646SOL    HW284907   6.316   6.230   1.594 -0.8447  0.1859  1.1379
58647SOL     OW84908   5.367   2.715  11.160 -0.4942 -0.3008  0.2701
58647SOL    HW184909   5.297   2.724  11.223  0.8978 -0.1916  1.8748
58647SOL    HW284910   5.425   2.790  11.176  0.5576 -0.9622 -0.2532
58648SOL     OW84911   1.250  12.134   7.982 -0.8551 -0.0202  0.0162
58648SOL    HW184912   1.214  12.211   7.938 -1.1885  0.6864  1.4465
58648SOL    HW284913   1.175  12.093   8.025 -0.3947 -0.0040  0.8807
58649SOL     OW84914  11.219   5.593   8.356 -0.1552 -0.3929  0.4754
58649SOL    HW184915  11.201   5.683   8.328 -0.7640 -1.0199 -1.2882
58649SOL    HW284916  11.314   5.591   8.368 -0.1063  0.4194  0.2936
58650SOL     OW84917   3.637   9.707   1.809  0.2742  0.4424  0.1439
58650SOL    HW184918   3.611   9.616   1.823  0.8728  0.0236 -1.2983
58650SOL    HW284919   3.646   9.715   1.714 -0.5459  2.2380  0.1758
58651SOL     OW84920   9.170   4.393   3.187  0.1083 -0.2829  0.0154
58651SOL    HW184921   9.238   4.398   3.254  0.5181 -0.3238 -0.3900
58651SOL    HW284922   9.110   4.464   3.207  0.0541 -0.4953  0.6144
58652SOL     OW84923   8.788   7.188   4.280  0.1686 -0.2181  0.1064
58652SOL    HW184924   8.876   7.156   4.260  1.0246  1.6392  0.6712
58652SOL    HW284925   8.772   7.161   4.370  2.0463  3.0597  1.6123
58653SOL     OW84926   2.168   2.266   8.075 -0.2490  0.3630  0.1604
58653SOL    HW184927   2.155   2.334   8.009  1.0170 -0.2577 -0.7840
58653SOL    HW284928   2.252   2.226   8.051  0.5197  0.4625  2.4707
58654SOL     OW84929  11.320   9.070   0.326  0.0181 -0.6931 -0.0836
58654SOL    HW184930  11.304   9.158   0.360 -0.0398 -1.5990  2.4433
58654SOL    HW284931  11.380   9.031   0.389  1.6282 -1.8572 -2.2007
58655SOL     OW84932   9.568   0.276   2.872  0.2954 -0.0052  0.0592
58655SOL    HW184933   9.578   0.295   2.779 -0.4573  0.5289  0.0718
58655SOL    HW284934   9.548   0.182   2.876 -2.4842  0.4667 -0.5920
58656SOL     OW84935   0.080   1.888  12.247  0.4346 -0.1295  0.5365
58656SOL    HW184936   0.140   1.934  12.188  2.7649 -1.9955  1.2793
58656SOL    HW284937   0.107   1.917  12.334 -0.4074 -0.2861  0.8517
58657SOL     OW84938   8.238   5.427   7.007 -0.0721 -0.0459 -0.1999
58657SOL    HW184939   8.267   5.361   7.070 -0.0009 -0.1973 -0.3919
58657SOL    HW284940   8.242   5.509   7.055 -1.5026 -0.3456  0.4909
58658SOL     OW84941   8.612  10.151   8.143 -0.0076  0.0191 -1.0617
58658SOL    HW184942   8.669  10.202   8.086  1.0215 -0.7722 -0.7637
58658SOL    HW284943   8.647  10.164   8.230  0.7906 -1.8071 -1.0617
58659SOL     OW84944   2.585   4.713   5.265  0.3619  0.1280  0.8477
58659SOL    HW184945   2.561   4.800   5.234 -1.3722 -1.1165 -1.7214
58659SOL    HW284946   2.538   4.702   5.347  0.4595  1.5197  1.1086
58660SOL     OW84947   6.996   6.759  11.220  0.2425  0.0615 -0.1783
58660SOL    HW184948   6.946   6.733  11.143 -0.9944  1.4471  0.1014
58660SOL    HW284949   6.932   6.803  11.277  1.3622  0.0875  1.1205
58661SOL     OW84950   6.463  12.270   4.212  0.4381  0.0398 -0.2767
58661SOL    HW184951   6.521  12.206   4.171 -1.3280 -0.7368 -1.7067
58661SOL    HW284952   6.389  12.219   4.244  0.6023  0.9624  1.8077
58662SOL     OW84953  10.959   2.798   4.862 -0.3151  0.4980 -0.1098
58662SOL    HW184954  10.958   2.851   4.783 -3.8494 -0.2062 -0.7148
58662SOL    HW284955  10.867   2.790   4.887  0.3173 -2.6128  1.8103
58663SOL     OW84956   5.808   1.405   7.426  0.5578  0.3586  0.2236
58663SOL    HW184957   5.899   1.387   7.451  0.2842 -0.7199  0.4854
58663SOL    HW284958   5.756   1.342   7.477 -0.2967  0.5966 -0.3360
58664SOL     OW84959   3.998   7.025   1.668 -0.7841  0.2546  0.2521
58664SOL    HW184960   3.939   7.093   1.636  2.1512  3.5857  1.2717
58664SOL    HW284961   3.952   6.986   1.742 -3.3581 -0.3740 -1.5256
58665SOL     OW84962  10.228   0.467   9.324  0.3704  0.2216  0.0342
58665SOL    HW184963  10.273   0.400   9.376  2.2900  1.3175 -0.1289
58665SOL    HW284964  10.241   0.548   9.372  0.7401  0.9811 -1.2861
58666SOL     OW84965   4.151   2.591   3.477 -0.2810 -0.0410 -0.2671
58666SOL    HW184966   4.149   2.500   3.506  0.6732  0.4488  1.4881
58666SOL    HW284967   4.162   2.641   3.557 -1.9859  1.7253 -1.0764
58667SOL     OW84968  12.133  12.375  11.693 -0.4280 -0.4101  0.4749
58667SOL    HW184969  12.120  12.302  11.632 -0.1331 -0.6033  0.6358
58667SOL    HW284970  12.176  12.443  11.640  1.4853 -1.2366  0.8528
58668SOL     OW84971   6.605   4.219   4.420  0.4126 -0.4897 -0.2059
58668SOL    HW184972   6.577   4.242   4.331 -0.6282  3.1336  0.8921
58668SOL    HW284973   6.682   4.274   4.436  0.3802 -0.8284  1.2645
58669SOL     OW84974  12.101   5.024   0.426  0.1701  0.5009  0.1442
58669SOL    HW184975  12.121   5.057   0.513  1.2841 -0.9378  0.4825
58669SOL    HW284976  12.013   4.988   0.433  1.1461 -1.8822  1.4566
58670SOL     OW84977   8.531   8.418   8.858  0.2484  0.1743 -0.2398
58670SOL    HW184978   8.603   8.438   8.798 -0.4090  1.8929 -0.5383
58670SOL    HW284979   8.574   8.396   8.940  1.1463 -1.2508 -1.0498
58671SOL     OW84980  11.345  10.119   4.929 -0.6186 -0.8450  0.0476
58671SOL    HW184981  11.395  10.135   4.849 -1.7285 -2.5276 -1.0502
58671SOL    HW284982  11.258  10.157   4.912 -0.2181  0.8269  1.3994
58672SOL     OW84983   9.188   1.907   9.696  0.1648  0.2754 -0.3639
58672SOL    HW184984   9.146   1.940   9.775 -1.4496 -1.9905 -0.1635
58672SOL    HW284985   9.115   1.875   9.642  1.3546  0.1901 -1.9934
58673SOL     OW84986  12.161   1.862  11.102  0.2244  0.4493  0.2382
58673SOL    HW184987  12.115   1.856  11.186 -3.5743  1.3591 -1.5679
58673SOL    HW284988  12.149   1.776  11.061  1.3007  0.2964  0.1974
58674SOL     OW84989   2.627   6.357   4.161  0.2152 -0.3237  0.0259
58674SOL    HW184990   2.693   6.300   4.201 -0.3718  0.1069  1.6774
58674SOL    HW284991   2.675   6.402   4.091  1.3047 -1.0580  0.2607
58675SOL     OW84992   3.609   6.327  12.328  0.9689  0.9793 -0.3070
58675SOL    HW184993   3.554   6.316  12.250  0.8200  1.9206 -0.3385
58675SOL    HW284994   3.648   6.414  12.318  0.2627  1.4763  1.0907
58676SOL     OW84995   6.092   0.807   9.096  0.5411  0.3007 -0.0991
58676SOL    HW184996   6.063   0.721   9.066 -0.3270  0.5760 -0.0584
58676SOL    HW284997   6.103   0.798   9.190  0.0807  0.3393 -0.0421
58677SOL     OW84998  11.748   0.727   5.341  0.4277  0.2028 -0.4312
58677SOL    HW184999  11.744   0.632   5.329 -2.0377  0.2150 -0.2895
58677SOL    HW285000  11.795   0.739   5.423 -0.3557 -0.9719  0.2066
58678SOL     OW85001   0.971   2.528   1.336  0.2881  0.5177 -0.0304
58678SOL    HW185002   0.883   2.556   1.361 -0.6435 -0.2208 -2.1734
58678SOL    HW285003   1.015   2.510   1.418 -2.4531 -1.6603  1.1227
58679SOL     OW85004  11.523   4.047   3.586 -0.5574 -0.2742  0.0205
58679SOL    HW185005  11.614   4.040   3.615 -0.5871 -1.3651 -0.1044
58679SOL    HW285006  11.524   4.111   3.515 -0.4044  2.1079  2.0436
58680SOL     OW85007  10.936   8.062   4.753  0.1951  0.2025  0.3139
58680SOL    HW185008  10.854   8.038   4.710 -0.7207  0.1886  1.9742
58680SOL    HW285009  10.985   7.980   4.760 -0.1059  0.0164  0.2260
58681SOL     OW85010   5.623   1.349   2.423  0.6221 -0.2010  0.9664
58681SOL    HW185011   5.623   1.261   2.462  0.3700 -0.1513  1.0838
58681SOL    HW285012   5.652   1.336   2.333  2.5334 -0.1513  1.5312
58682SOL     OW85013   1.248  11.034   8.911 -0.1909  0.4932 -0.3034
58682SOL    HW185014   1.318  11.027   8.846  0.0491 -1.4940  0.1156
58682SOL    HW285015   1.291  11.016   8.994 -1.2076 -0.8868 -0.0544
58683SOL     OW85016   6.023   6.101   2.362 -0.1584 -0.2002 -0.1017
58683SOL    HW185017   6.053   6.010   2.361 -0.9827 -0.4870 -0.1339
58683SOL    HW285018   5.964   6.106   2.437  2.9397  1.3873  2.4499
58684SOL     OW85019   4.248   5.824   1.968  0.3982 -0.0412 -0.0870
58684SOL    HW185020   4.202   5.749   2.007 -1.0170  0.8312  0.0105
58684SOL    HW285021   4.291   5.867   2.041  2.0374 -1.2538 -0.2717
58685SOL     OW85022  12.157   5.416   9.245 -0.1271 -0.7023 -0.2698
58685SOL    HW185023  12.076   5.453   9.210 -0.0860 -1.0391 -0.7353
58685SOL    HW285024  12.146   5.321   9.234 -0.7530 -0.9586  2.0057
58686SOL     OW85025   6.252   7.595   8.722  0.0879 -0.5775 -0.2204
58686SOL    HW185026   6.251   7.519   8.781 -0.2026 -1.8566 -1.8211
58686SOL    HW285027   6.234   7.670   8.780  2.2913 -1.4254  1.7510
58687SOL     OW85028   7.235   9.589  10.885 -0.1259 -0.2966  0.4170
58687SOL    HW185029   7.244   9.546  10.969  1.7237  0.4440  0.6517
58687SOL    HW285030   7.220   9.518  10.822 -0.8156 -0.9113  1.2624
58688SOL     OW85031   3.791   0.519   4.052  0.6465  0.0028 -0.3299
58688SOL    HW185032   3.739   0.459   3.998  1.2415 -0.7424 -0.0839
58688SOL    HW285033   3.863   0.466   4.085  0.7982  0.6807  0.4627
58689SOL     OW85034   2.778   3.153   0.121 -0.8618 -0.4473  0.2174
58689SOL    HW185035   2.853   3.103   0.153 -1.5639 -1.0683  0.9291
58689SOL    HW285036   2.751   3.107   0.042  1.3307  1.5095 -1.8327
58690SOL     OW85037  12.380   3.135   9.545  0.2101  0.1856  0.6245
58690SOL    HW185038  12.348   3.047   9.530  0.5487  0.4994 -2.5390
58690SOL    HW285039  12.301   3.188   9.555 -0.1897  0.0995 -1.6049
58691SOL     OW85040   8.556   5.929   3.404  0.1156  0.2327  0.2397
58691SOL    HW185041   8.529   5.929   3.312 -0.3117 -0.3359  0.3558
58691SOL    HW285042   8.578   6.020   3.423 -1.5991  0.7084  0.0809
58692SOL     OW85043   6.632   7.966   5.451  0.3282 -0.2270 -0.2482
58692SOL    HW185044   6.554   8.004   5.411 -1.1446 -0.4281  2.1876
58692SOL    HW285045   6.703   8.027   5.430 -1.0433  1.4027 -0.3319
58693SOL     OW85046   0.009  11.719   9.918  0.2563  0.1744  0.0027
58693SOL    HW185047   0.104  11.729   9.926  0.1194  1.9929 -0.1572
58693SOL    HW285048  -0.027  11.767   9.992 -0.5599  0.9197 -0.8372
58694SOL     OW85049   7.656   8.929  12.478  0.2038 -0.0944 -0.0169
58694SOL    HW185050   7.712   8.852  12.475  0.4824  0.1244 -0.8993
58694SOL    HW285051   7.655   8.961  12.387 -0.4714  0.5298  0.2011
58695SOL     OW85052  11.933   2.438   7.418  0.2810 -0.0220 -0.2815
58695SOL    HW185053  11.965   2.429   7.508  2.0357  2.6784 -0.5170
58695SOL    HW285054  11.983   2.374   7.367  0.7091 -0.2023  0.3548
58696SOL     OW85055   8.383   8.571  10.309  0.1497  1.2447  0.5613
58696SOL    HW185056   8.393   8.597  10.218  2.0242  2.6000  1.1015
58696SOL    HW285057   8.322   8.634  10.346 -0.0809  1.1076  0.4159
58697SOL     OW85058   3.860  10.004   4.964  0.2265  0.2459  0.6236
58697SOL    HW185059   3.926   9.957   4.913  2.3642  3.0943  0.5143
58697SOL    HW285060   3.809  10.052   4.898  0.0788  0.4772  0.9058
58698SOL     OW85061   4.390   6.308   8.807  0.0297 -0.4136 -0.0163
58698SOL    HW185062   4.471   6.323   8.759  0.0076  0.7879  0.2882
58698SOL    HW285063   4.413   6.326   8.898 -0.0371 -2.2344  0.4007
58699SOL     OW85064   2.691  10.552   7.653 -0.2401 -0.9243 -0.2727
58699SOL    HW185065   2.659  10.611   7.721  0.8879  1.2911 -1.5321
58699SOL    HW285066   2.642  10.472   7.665 -2.4173  0.5151  1.0932
58700SOL     OW85067   4.143   0.267  10.847  0.5727  0.4147 -0.0380
58700SOL    HW185068   4.095   0.232  10.772  0.4520  0.9536 -0.2188
58700SOL    HW285069   4.165   0.190  10.900 -1.4723  0.2208  0.6458
58701SOL     OW85070   7.099   9.777  12.033 -0.2203 -0.4801  0.3923
58701SOL    HW185071   7.028   9.727  11.993  0.6753 -0.3828 -1.4088
58701SOL    HW285072   7.055   9.840  12.089 -1.5377 -0.8091 -0.2422
58702SOL     OW85073   0.089   4.426  12.488  0.4114 -0.7260  0.0938
58702SOL    HW185074   0.121   4.512  12.514 -1.5298  0.4268 -1.0932
58702SOL    HW285075   0.166   4.380  12.456  1.0480  1.7272 -2.1713
58703SOL     OW85076   2.448   9.698  11.779 -0.7182  0.0921 -0.0146
58703SOL    HW185077   2.357   9.669  11.772 -0.4881 -0.3039 -2.9192
58703SOL    HW285078   2.493   9.625  11.822 -1.4244 -0.7428 -0.6455
58704SOL     OW85079   2.716   0.926  10.380  0.4227  0.2078 -0.3637
58704SOL    HW185080   2.735   1.019  10.370 -2.7097  0.8295 -1.8323
58704SOL    HW285081   2.679   0.900  10.295 -0.1302 -1.9875  0.4911
58705SOL     OW85082   8.029   8.633   1.681  0.6789  0.1310  0.0143
58705SOL    HW185083   8.023   8.544   1.645 -0.3743  0.1156  0.1992
58705SOL    HW285084   7.998   8.624   1.771 -2.0799  1.1330 -0.7460
58706SOL     OW85085  11.331   3.065   1.166  0.1361 -0.1278  0.2462
58706SOL    HW185086  11.249   3.110   1.185  0.8844  0.7128  1.6767
58706SOL    HW285087  11.325   2.982   1.212 -0.6769 -0.9452 -1.2594
58707SOL     OW85088  10.653   5.795   8.223  1.0206  0.2746 -0.2731
58707SOL    HW185089  10.704   5.853   8.280  1.3470 -0.4527  0.2049
58707SOL    HW285090  10.642   5.715   8.275 -1.7433  0.8375  0.1963
58708SOL     OW85091  11.646   5.348   5.680  0.2551  0.4064 -0.0393
58708SOL    HW185092  11.715   5.347   5.614 -0.0069 -0.0979 -0.3186
58708SOL    HW285093  11.568   5.316   5.633 -0.4953  2.1812 -0.0805
58709SOL     OW85094   9.352   9.367   4.936  0.1500  0.1645  0.0545
58709SOL    HW185095   9.438   9.349   4.972  0.6474  0.2809 -1.0532
58709SOL    HW285096   9.345   9.462   4.935  0.1684  0.1658 -0.2084
58710SOL     OW85097   4.413  11.455  10.200 -0.1274 -0.4560 -0.7431
58710SOL    HW185098   4.429  11.427  10.110 -0.1810 -1.0712 -0.5612
58710SOL    HW285099   4.501  11.462  10.238 -0.1761 -2.4237 -0.1763
58711SOL     OW85100   6.487   1.661   3.992 -0.7589  0.4722  0.6547
58711SOL    HW185101   6.489   1.617   3.907 -1.5586 -0.1159  0.9285
58711SOL    HW285102   6.492   1.754   3.970  3.2524  0.3169  0.1637
58712SOL     OW85103   1.943   0.049  10.995 -0.4840  0.0457 -0.2214
58712SOL    HW185104   1.975   0.007  10.916  0.7939  0.7233 -0.0847
58712SOL    HW285105   1.849   0.059  10.981 -1.0225 -3.5126  0.0539
58713SOL     OW85106   4.552   9.596   7.421  0.2443  0.3831  0.0362
58713SOL    HW185107   4.563   9.530   7.353 -0.3531  1.0179 -0.6976
58713SOL    HW285108   4.460   9.591   7.445 -0.0501  1.5902 -0.7344
58714SOL     OW85109   4.437   1.443   2.029  0.0906  0.5449  0.2004
58714SOL    HW185110   4.400   1.408   1.947 -0.9305  0.2651  0.7640
58714SOL    HW285111   4.528   1.414   2.028 -0.7398 -2.3910  0.7299
58715SOL     OW85112   2.824   5.229   3.031 -0.2111  0.0201  0.4121
58715SOL    HW185113   2.795   5.243   2.941 -0.9983  3.4405  1.0386
58715SOL    HW285114   2.877   5.306   3.051 -0.4251 -0.4192  2.9891
58716SOL     OW85115   0.830   3.126   5.388 -0.3862 -0.0545 -0.2548
58716SOL    HW185116   0.899   3.132   5.323  1.0891  0.2288  1.2744
58716SOL    HW285117   0.767   3.064   5.351  1.6369 -1.8517 -0.8502
58717SOL     OW85118   8.668   3.724  11.597 -0.5914 -0.3999  0.2317
58717SOL    HW185119   8.733   3.705  11.528  0.3184 -0.4365  1.0783
58717SOL    HW285120   8.654   3.640  11.640 -0.6868 -0.2478  0.4953
58718SOL     OW85121   1.335   1.828   2.225 -1.0548  0.1376  0.1971
58718SOL    HW185122   1.377   1.769   2.288  0.3611  0.0200 -0.7984
58718SOL    HW285123   1.407   1.879   2.189 -1.8159  0.2014 -1.3132
58719SOL     OW85124   2.625   7.004   8.157  0.8276  0.6230  0.2522
58719SOL    HW185125   2.655   7.056   8.082  1.0981  0.0107 -0.0796
58719SOL    HW285126   2.654   7.052   8.234  1.1837  0.9004 -0.0518
58720SOL     OW85127   9.067   5.186   1.578  0.4369  0.4938 -0.1212
58720SOL    HW185128   9.068   5.108   1.634 -0.1366 -0.1560 -0.9805
58720SOL    HW285129   9.127   5.247   1.621 -0.0480  0.0539  1.2263
58721SOL     OW85130   0.194   6.277   4.865 -0.3098 -0.3356  0.1407
58721SOL    HW185131   0.108   6.245   4.837 -0.0079  0.1407 -1.4023
58721SOL    HW285132   0.252   6.201   4.854  0.0870  0.2017 -1.9998
58722SOL     OW85133   9.528   7.955   4.853 -0.1910 -0.5533 -0.3154
58722SOL    HW185134   9.569   7.871   4.830  1.7570 -0.6893  2.9793
58722SOL    HW285135   9.599   8.005   4.893 -2.1068  1.3494  0.8716
58723SOL     OW85136  10.512  11.234  11.756 -0.3452 -0.0370 -0.1684
58723SOL    HW185137  10.556  11.248  11.672 -0.4983  0.4357 -0.1703
58723SOL    HW285138  10.504  11.139  11.763 -0.8448 -0.0630 -0.9535
58724SOL     OW85139   7.484   9.951   8.428  0.0209 -0.0678  0.1409
58724SOL    HW185140   7.556   9.891   8.450  0.3806 -0.7264 -2.4955
58724SOL    HW285141   7.527  10.030   8.396 -0.2980 -0.9134 -2.6212
58725SOL     OW85142   5.765   6.411   9.327  0.2391  0.0626  0.5351
58725SOL    HW185143   5.789   6.482   9.266 -0.3165  1.0200  1.4001
58725SOL    HW285144   5.715   6.350   9.273  0.8613  0.2417 -0.2684
58726SOL     OW85145   4.052   0.016   6.084 -0.5427  0.0447 -0.0084
58726SOL    HW185146   4.131  -0.002   6.135 -1.0027  0.8384  0.9847
58726SOL    HW285147   4.006  -0.068   6.082 -0.2183 -0.1445  0.3290
58727SOL     OW85148   8.414   6.424   6.013  0.5534 -0.1989 -0.1017
58727SOL    HW185149   8.480   6.472   6.062 -0.2980  0.5557  0.3425
58727SOL    HW285150   8.354   6.391   6.081  0.1419 -0.3507 -0.5367
58728SOL     OW85151  12.320   1.393   4.485  0.4129 -0.2899  0.5175
58728SOL    HW185152  12.253   1.380   4.418  0.5271  0.3371  0.2727
58728SOL    HW285153  12.316   1.315   4.539  0.7635 -1.1071 -0.6079
58729SOL     OW85154   0.632   8.956   5.785  0.0085  0.3362 -0.0519
58729SOL    HW185155   0.542   8.922   5.786  0.9642 -2.4759  2.1213
58729SOL    HW285156   0.622   9.051   5.793 -2.7514  0.1833 -0.7766
58730SOL     OW85157  12.085   3.136   5.829  0.4835 -0.2376  0.3779
58730SOL    HW185158  12.085   3.086   5.910 -0.7502  0.4168  0.8103
58730SOL    HW285159  12.045   3.077   5.765 -2.4416  0.6183  1.2414
58731SOL     OW85160   5.557   0.186   0.728  0.3367  0.5626  0.1874
58731SOL    HW185161   5.530   0.163   0.817 -2.5646 -1.5506 -1.0786
58731SOL    HW285162   5.642   0.143   0.717 -1.4197 -3.4808  0.5238
58732SOL     OW85163  11.644   0.672  12.126 -0.1645 -0.0157 -0.0999
58732SOL    HW185164  11.658   0.748  12.069 -0.1109  1.6994  2.0734
58732SOL    HW285165  11.725   0.664  12.176 -0.0837 -1.6960 -0.4362
58733SOL     OW85166   8.188   4.068   0.261 -0.2212  0.0468 -0.3929
58733SOL    HW185167   8.203   4.101   0.350 -0.3949  0.4450 -0.5065
58733SOL    HW285168   8.219   3.978   0.263 -0.2042  0.0595  0.0685
58734SOL     OW85169  10.891   8.704  10.426  0.1214 -1.1696  0.4059
58734SOL    HW185170  10.908   8.622  10.473  2.6914 -0.1791  1.3720
58734SOL    HW285171  10.973   8.752  10.431 -1.6244  2.0214  0.8714
58735SOL     OW85172  10.810   3.501   3.356 -0.3541 -0.3630 -0.0572
58735SOL    HW185173  10.820   3.456   3.272  1.0470 -1.4523  0.6509
58735SOL    HW285174  10.719   3.488   3.380 -0.8686  0.2421 -1.5338
58736SOL     OW85175  11.072   4.303   6.533  0.5314  0.2478  0.0649
58736SOL    HW185176  11.071   4.211   6.507  0.9060  0.9258 -2.6973
58736SOL    HW285177  11.164   4.322   6.553  0.3149 -0.1513  1.5974
58737SOL     OW85178   5.877  12.378  10.973  0.4400 -0.5300  0.0081
58737SOL    HW185179   5.900  12.323  10.898  0.6549  0.7464 -0.9027
58737SOL    HW285180   5.949  12.440  10.980 -0.5837  0.7232 -0.0956
58738SOL     OW85181   4.634   2.908  11.130 -0.1966 -0.2028 -0.1918
58738SOL    HW185182   4.671   2.913  11.217 -0.0012 -0.5728 -0.2487
58738SOL    HW285183   4.668   2.825  11.094  0.8667  0.6042 -1.1425
58739SOL     OW85184   8.522   8.706   3.226  0.4316  0.7211  0.2229
58739SOL    HW185185   8.609   8.669   3.210  0.3229  0.4163  0.3166
58739SOL    HW285186   8.468   8.671   3.155  0.9899  3.1282 -1.4893
58740SOL     OW85187   5.769   0.276  11.639  0.6168  0.1491 -0.1853
58740SOL    HW185188   5.710   0.206  11.669  2.0131 -1.2173 -0.5117
58740SOL    HW285189   5.753   0.348  11.700 -2.0859  0.2320 -0.8353
58741SOL     OW85190   8.905   5.276   4.020 -0.1723 -0.1589  0.2812
58741SOL    HW185191   8.997   5.252   4.024 -0.5375 -1.6214  0.8847
58741SOL    HW285192   8.896   5.328   3.941  1.2430  0.3874  0.4589
58742SOL     OW85193  11.378   6.400   6.344  0.1566  0.0071 -0.5146
58742SOL    HW185194  11.329   6.399   6.426  1.8799 -0.9997  0.5615
58742SOL    HW285195  11.366   6.489   6.310  0.3008  0.8266  1.4153
58743SOL     OW85196   2.913   3.883   9.400 -0.1302 -0.0156  0.1228
58743SOL    HW185197   2.873   3.967   9.376  0.1491 -0.0890 -0.6144
58743SOL    HW285198   2.842   3.819   9.389 -0.2552  0.0758  0.3821
58744SOL     OW85199   8.638   8.083   8.827 -0.4897  0.5709  0.2906
58744SOL    HW185200   8.612   7.993   8.845  0.9104  0.3846  1.5994
58744SOL    HW285201   8.637   8.126   8.912 -2.8246  2.3164 -0.5274
58745SOL     OW85202   4.434   9.618  11.178  0.1067 -0.3992 -0.0515
58745SOL    HW185203   4.357   9.662  11.142 -0.3720 -0.5810  0.7265
58745SOL    HW285204   4.478   9.580  11.102 -1.1492 -1.2035 -0.4150
58746SOL     OW85205   3.868   4.894  10.334 -0.0125 -0.3341 -0.4613
58746SOL    HW185206   3.878   4.945  10.414  2.0024 -2.6251  0.8817
58746SOL    HW285207   3.941   4.923  10.279  1.3053 -1.8274  0.4167
58747SOL     OW85208   3.578   6.406   5.855  0.7796  0.3588  0.0422
58747SOL    HW185209   3.602   6.487   5.809  1.1522  1.4046  1.9681
58747SOL    HW285210   3.660   6.359   5.866  0.9570  0.8434  0.9240
58748SOL     OW85211  12.541   2.809  10.142 -0.2394 -0.2358 -0.0280
58748SOL    HW185212  12.452   2.776  10.128 -0.8379  0.5296  1.6543
58748SOL    HW285213  12.583   2.743  10.196  0.7899 -1.3484 -2.0622
58749SOL     OW85214   2.040   5.991   3.232 -0.3955  0.0759  0.2353
58749SOL    HW185215   1.984   6.053   3.184 -1.9491 -1.2379  0.2572
58749SOL    HW285216   2.039   5.912   3.178  1.5867  0.0408  0.1873
58750SOL     OW85217  12.516   4.127   2.364 -0.4851 -0.2297 -0.3992
58750SOL    HW185218  12.493   4.201   2.419 -0.7712 -0.8656  0.3529
58750SOL    HW285219  12.435   4.078   2.354 -0.0111 -1.2041  0.3005
58751SOL     OW85220   8.739   0.514   4.057  0.3658  0.1247 -0.2020
58751SOL    HW185221   8.763   0.421   4.056 -0.6755 -0.1556 -1.3613
58751SOL    HW285222   8.821   0.560   4.075  0.7104 -1.0568  1.4629
58752SOL     OW85223  12.397   7.563   7.289 -0.0409  0.3538  0.0432
58752SOL    HW185224  12.358   7.501   7.351  0.8725 -1.1476 -0.8142
58752SOL    HW285225  12.478   7.591   7.332 -0.0859  0.3910  0.1058
58753SOL     OW85226  12.109   5.550   8.348  0.4828  0.3245  0.3821
58753SOL    HW185227  12.098   5.564   8.442 -0.0403  0.0632  0.3617
58753SOL    HW285228  12.022   5.564   8.312 -0.2512 -3.3323  0.3930
58754SOL     OW85229   6.151   0.811   7.611 -0.2864 -0.4557 -0.5047
58754SOL    HW185230   6.071   0.835   7.565 -1.0291  0.7538  1.3127
58754SOL    HW285231   6.134   0.724   7.646 -0.5124 -0.5229 -0.7835
58755SOL     OW85232  11.657   5.293   9.256 -0.3352  0.1105  0.0574
58755SOL    HW185233  11.702   5.247   9.326  0.1451  3.0501  1.8612
58755SOL    HW285234  11.580   5.240   9.237  0.3523 -1.5672  1.7002
58756SOL     OW85235  11.286   2.661   8.291  0.3911  0.0470  0.1332
58756SOL    HW185236  11.314   2.742   8.247 -1.2910  2.1438  2.6637
58756SOL    HW285237  11.211   2.631   8.240 -1.3163  2.2506  1.1712
58757SOL     OW85238   6.008   8.342   2.874  0.0549 -0.1098  0.2677
58757SOL    HW185239   5.977   8.354   2.964 -0.1362  1.1578  0.0544
58757SOL    HW285240   6.022   8.431   2.841 -1.3752 -0.4699 -1.4724
58758SOL     OW85241   4.980  11.371   5.580  0.2940  0.6206  0.0133
58758SOL    HW185242   4.914  11.434   5.548 -0.2505  0.0671  0.0289
58758SOL    HW285243   4.982  11.385   5.675 -0.7869 -0.2715  0.1898
58759SOL     OW85244   8.209  10.918  12.061  0.1460  0.0921 -0.1667
58759SOL    HW185245   8.186  10.955  11.976  0.0640 -0.1053 -0.2310
58759SOL    HW285246   8.192  10.824  12.052 -0.0337  0.0956  0.1240
58760SOL     OW85247   5.804   8.537  11.807  0.3740  0.6455 -0.2673
58760SOL    HW185248   5.735   8.578  11.860 -0.3372  0.8903 -1.3493
58760SOL    HW285249   5.782   8.562  11.717  0.7678 -0.9048 -0.8147
58761SOL     OW85250   2.395   2.362   4.855 -0.8020  0.8066 -0.0549
58761SOL    HW185251   2.370   2.333   4.943 -0.7104 -1.3495 -0.6847
58761SOL    HW285252   2.353   2.448   4.845 -0.6025  1.2296  2.1667
58762SOL     OW85253   8.882  11.101  12.206  0.1152 -0.1804 -0.2125
58762SOL    HW185254   8.924  11.045  12.271  0.7796  3.0495  2.4114
58762SOL    HW285255   8.955  11.134  12.153  0.0155  0.0863 -0.1815
58763SOL     OW85256   3.512   7.970   1.544 -0.2627  0.1634  0.1664
58763SOL    HW185257   3.531   7.951   1.635  0.5586 -4.1479 -0.7009
58763SOL    HW285258   3.420   7.944   1.533 -1.1253  2.8923  0.1497
58764SOL     OW85259   4.078   9.409  11.380 -0.0420  0.6216 -0.1685
58764SOL    HW185260   4.044   9.380  11.464  0.3124 -0.1687 -0.2949
58764SOL    HW285261   4.170   9.432  11.398 -0.0352  0.6908 -0.2901
58765SOL     OW85262   5.451  11.448   5.174 -0.4199 -0.3499  0.4745
58765SOL    HW185263   5.407  11.451   5.088  2.1109  2.0853 -0.8953
58765SOL    HW285264   5.542  11.468   5.154  0.4969 -0.9059  3.6765
58766SOL     OW85265   7.398   3.154   2.810 -0.1105 -0.7444  0.0693
58766SOL    HW185266   7.476   3.139   2.756 -1.2808 -1.7857 -1.4301
58766SOL    HW285267   7.371   3.243   2.788 -0.3113 -0.9978 -0.7544
58767SOL     OW85268   5.823   6.151   5.829  0.4773 -0.0592  0.7370
58767SOL    HW185269   5.732   6.174   5.812  0.4306 -1.8984 -1.9718
58767SOL    HW285270   5.867   6.236   5.840 -1.1150  0.9656 -0.3349
58768SOL     OW85271   9.139   8.479   2.850 -0.2413 -0.1131  0.2049
58768SOL    HW185272   9.119   8.393   2.814 -2.0059 -0.2200  1.3254
58768SOL    HW285273   9.213   8.510   2.798 -0.2587 -1.8405 -0.9290
58769SOL     OW85274   6.713   6.390  10.249  0.0317  0.2200  0.4791
58769SOL    HW185275   6.706   6.413  10.156  0.9499 -0.1573  0.2988
58769SOL    HW285276   6.797   6.429  10.276 -0.5793  0.9816  1.3565
58770SOL     OW85277  11.753   6.132   8.787 -0.4908 -0.6373  0.0132
58770SOL    HW185278  11.712   6.058   8.832 -0.1288 -0.0126  1.4376
58770SOL    HW285279  11.844   6.129   8.815 -0.4482  0.2749 -0.0023
58771SOL     OW85280   8.905   6.275   4.779 -0.1008  0.3613 -0.0408
58771SOL    HW185281   8.895   6.187   4.742 -0.9937  0.9354 -1.2288
58771SOL    HW285282   8.983   6.269   4.834 -1.0638 -1.6073  1.2249
58772SOL     OW85283   1.699   2.006   0.575  0.3410  0.2246  0.3266
58772SOL    HW185284   1.646   1.926   0.584 -0.5688  0.6029 -1.3136
58772SOL    HW285285   1.785   1.974   0.547  0.4139 -0.2641  1.0794
58773SOL     OW85286   9.294   0.208  10.769  0.4355  0.2946 -0.2987
58773SOL    HW185287   9.345   0.261  10.707  1.5736  1.9968  1.9544
58773SOL    HW285288   9.295   0.120  10.731  1.8321  1.0745 -2.2448
58774SOL     OW85289   5.963  10.645   9.169 -0.5159  0.0897  0.3929
58774SOL    HW185290   5.988  10.693   9.091 -0.4975 -1.6855 -0.7446
58774SOL    HW285291   5.916  10.709   9.223 -0.4441  1.3621 -0.9996
58775SOL     OW85292  10.111   5.545   2.655 -0.2746 -0.1418  0.4872
58775SOL    HW185293  10.066   5.471   2.696  2.5313 -2.1599  0.2006
58775SOL    HW285294  10.143   5.510   2.571  1.0247  1.4422  0.2719
58776SOL     OW85295   9.006   7.256   0.654  0.6296  0.1262 -0.6303
58776SOL    HW185296   9.035   7.207   0.578 -0.0398 -1.4531  0.0929
58776SOL    HW285297   9.016   7.196   0.727 -1.8043  0.4567  0.0496
58777SOL     OW85298   6.468   6.908   8.751 -0.7122 -0.1949 -0.1411
58777SOL    HW185299   6.432   6.822   8.732 -0.0643 -0.2849 -1.0115
58777SOL    HW285300   6.397   6.955   8.796 -1.0974 -1.1413  0.2544
58778SOL     OW85301   2.436   9.898   5.673  0.5246 -0.4409  0.2513
58778SOL    HW185302   2.356   9.875   5.626  0.6067 -0.8107  0.2889
58778SOL    HW285303   2.445   9.993   5.661  1.1612 -0.6869 -1.4756
58779SOL     OW85304   0.705   4.312  12.362  0.5485 -0.0070 -0.2663
58779SOL    HW185305   0.665   4.270  12.439 -1.2675  1.4149 -0.3566
58779SOL    HW285306   0.745   4.240  12.314 -1.0988 -1.4336  0.3715
58780SOL     OW85307  11.051   9.107   9.772 -0.2704 -0.3842  0.0422
58780SOL    HW185308  11.067   9.060   9.853 -1.6582 -0.3416  0.3580
58780SOL    HW285309  11.057   9.040   9.704  1.0648 -0.3874  0.1431
58781SOL     OW85310   5.850   5.653  11.404  0.2896  0.2078  0.5722
58781SOL    HW185311   5.882   5.714  11.470  2.4915 -0.1290 -0.0775
58781SOL    HW285312   5.839   5.707  11.325 -0.3312  0.2455  0.6868
58782SOL     OW85313   7.220   0.326  10.730 -0.2502 -0.1028 -0.0467
58782SOL    HW185314   7.285   0.301  10.665 -1.2926 -0.3253 -1.0341
58782SOL    HW285315   7.163   0.389  10.684 -0.0055  1.0681  1.1771
58783SOL     OW85316   1.860   9.696   2.143 -0.1607  0.2267  0.2897
58783SOL    HW185317   1.954   9.710   2.138 -0.3776  1.4413 -1.5248
58783SOL    HW285318   1.822   9.778   2.110 -1.8821 -0.0130  1.5228
58784SOL     OW85319   1.582   7.651   4.090  0.3379  0.3273 -0.9178
58784SOL    HW185320   1.626   7.687   4.167  1.0214  0.2479 -1.2613
58784SOL    HW285321   1.653   7.637   4.026 -0.3504  1.4911 -1.9999
58785SOL     OW85322   7.687   8.733   0.577 -0.6252  0.3582  0.2851
58785SOL    HW185323   7.697   8.821   0.540  0.2667 -0.8148 -2.4951
58785SOL    HW285324   7.773   8.711   0.611 -0.3568 -0.1242 -0.6906
58786SOL     OW85325   2.499   7.347   1.525  0.4349 -0.0661 -0.0722
58786SOL    HW185326   2.460   7.428   1.491  0.8397  0.7270  1.2512
58786SOL    HW285327   2.571   7.377   1.581  1.2812 -1.3993 -0.4088
58787SOL     OW85328  11.314  12.128  11.103  0.2254  0.1969 -0.1450
58787SOL    HW185329  11.383  12.173  11.153  0.7532  0.8618 -1.4274
58787SOL    HW285330  11.345  12.038  11.095  0.1309  0.0795  0.7149
58788SOL     OW85331   3.058   8.864   9.820 -0.0052 -0.1622 -0.1162
58788SOL    HW185332   3.143   8.822   9.804 -0.0566 -0.5647  0.6221
58788SOL    HW285333   2.995   8.792   9.822 -0.6195  0.2609 -2.1902
58789SOL     OW85334  10.173   6.281   1.952  0.4343 -0.0126  0.6529
58789SOL    HW185335  10.109   6.235   1.898 -0.8361  0.0984  1.9949
58789SOL    HW285336  10.122   6.347   1.999  1.4692 -0.1067  1.9718
58790SOL     OW85337   2.989   1.580   4.155  0.0856 -0.2056  0.6146
58790SOL    HW185338   3.015   1.488   4.166 -0.1916 -0.0924  2.7706
58790SOL    HW285339   3.052   1.629   4.208 -0.8201  0.6715  0.9062
58791SOL     OW85340   7.182   1.289   8.400 -0.2755 -0.5611 -0.3674
58791SOL    HW185341   7.242   1.296   8.474  0.5984 -0.1778 -1.0940
58791SOL    HW285342   7.140   1.375   8.395  0.4604 -0.2247 -0.9627
58792SOL     OW85343  11.699   2.249   7.999  0.6287  0.1152  0.0949
58792SOL    HW185344  11.638   2.200   8.054  0.2256  1.1540  0.6004
58792SOL    HW285345  11.652   2.262   7.916  1.2535 -1.4905 -0.5545
58793SOL     OW85346  10.559   3.068   1.613  0.4928 -0.3191  0.4326
58793SOL    HW185347  10.605   2.985   1.616  1.7119  0.3646  2.0481
58793SOL    HW285348  10.474   3.048   1.574  2.1445 -1.6175 -2.8459
58794SOL     OW85349  11.530   5.485   5.905  0.2280 -0.2191  0.6694
58794SOL    HW185350  11.608   5.533   5.932  0.2796 -0.3288  0.7114
58794SOL    HW285351  11.551   5.450   5.818 -0.2641  0.9106  0.0655
58795SOL     OW85352  11.884   6.535   3.392 -0.0108  0.6266 -0.2078
58795SOL    HW185353  11.804   6.535   3.445 -1.1063 -1.6388 -1.7286
58795SOL    HW285354  11.854   6.542   3.302  1.6590  1.6200 -0.7443
58796SOL     OW85355   5.183   8.474   1.215 -0.1844 -0.1139  0.1654
58796SOL    HW185356   5.115   8.464   1.282  0.8807  0.7794  1.4323
58796SOL    HW285357   5.178   8.567   1.190 -0.5590 -0.4335 -1.0095
58797SOL     OW85358   4.250  11.078   6.226  0.3015 -0.1330 -0.1678
58797SOL    HW185359   4.317  11.011   6.213  0.0791 -0.5343  0.6830
58797SOL    HW285360   4.245  11.088   6.321 -1.4722 -0.7738 -0.1578
58798SOL     OW85361  11.065   6.140   8.855 -0.3794  0.7234 -0.1392
58798SOL    HW185362  11.021   6.060   8.885  0.4699  0.5219  0.5855
58798SOL    HW285363  11.142   6.109   8.808 -0.1510  1.1090 -0.0238
58799SOL     OW85364   6.486   2.047   7.827 -0.3092 -0.5447 -0.7011
58799SOL    HW185365   6.473   2.052   7.922  0.7771  0.5663 -0.5917
58799SOL    HW285366   6.399   2.066   7.791 -0.6824 -0.7365  0.0581
58800SOL     OW85367   9.155   3.903   5.691 -0.4767  0.3511 -0.4031
58800SOL    HW185368   9.189   3.834   5.748 -0.0257  1.6631  0.9936
58800SOL    HW285369   9.120   3.969   5.752  0.5132  2.0729 -1.6140
58801SOL     OW85370   9.059   9.094  12.062 -0.2795 -0.3053 -0.2633
58801SOL    HW185371   9.088   9.178  12.097  2.0222 -1.0463 -0.2221
58801SOL    HW285372   9.121   9.075  11.991 -1.6313 -1.3185 -1.2357
58802SOL     OW85373   7.368   1.345   1.028 -0.0331 -0.4210 -0.0429
58802SOL    HW185374   7.312   1.369   0.954 -0.1111  0.2408  0.2269
58802SOL    HW285375   7.311   1.351   1.105  0.5039  0.7002  0.2920
58803SOL     OW85376  10.931  11.903   8.430 -0.3555 -0.0005 -0.4632
58803SOL    HW185377  11.003  11.934   8.375  0.7749 -2.5305 -0.5328
58803SOL    HW285378  10.853  11.916   8.376  0.0134  2.4334 -0.5372
58804SOL     OW85379   6.985   9.414   2.890  0.0750 -0.2804 -0.4648
58804SOL    HW185380   6.984   9.502   2.926  1.4347 -0.1576 -0.6480
58804SOL    HW285381   6.893   9.392   2.874 -0.4666  0.2039  1.6942
58805SOL     OW85382   9.889  12.254  10.991 -0.5622 -0.1441  0.3147
58805SOL    HW185383   9.926  12.305  10.919  0.2466 -0.6009  0.3956
58805SOL    HW285384   9.840  12.318  11.044  0.7609  0.6195  0.6434
58806SOL     OW85385   4.303   8.362   3.460 -0.5479  0.3405  0.3083
58806SOL    HW185386   4.289   8.438   3.516 -1.9167 -0.9922  1.9122
58806SOL    HW285387   4.333   8.398   3.377  0.9348  2.4790  1.6500
58807SOL     OW85388   9.018  12.243   5.838 -0.5438  0.1638  0.1581
58807SOL    HW185389   9.019  12.323   5.784 -0.3239  0.8045  1.0768
58807SOL    HW285390   8.925  12.227   5.855 -0.7100 -0.7438 -1.3729
58808SOL     OW85391   1.035   5.333   2.791  0.3308 -0.7081 -1.2191
58808SOL    HW185392   1.005   5.253   2.747 -0.7992 -2.2197  2.0427
58808SOL    HW285393   0.961   5.361   2.844  0.4061  3.1140 -2.8159
58809SOL     OW85394  10.139   6.640   2.919  0.3017  0.4112 -0.7696
58809SOL    HW185395  10.088   6.675   2.993  1.3723  0.9329 -0.2591
58809SOL    HW285396  10.167   6.553   2.949 -0.7698 -0.1407 -1.2956
58810SOL     OW85397   9.930  10.987   6.887 -0.2328 -0.2479 -0.3161
58810SOL    HW185398  10.020  10.967   6.913 -1.1312 -1.1383  2.5588
58810SOL    HW285399   9.898  10.905   6.848  0.2591  0.1896 -1.7054
58811SOL     OW85400   5.904   0.349   1.417 -0.2943  0.0504  0.0034
58811SOL    HW185401   5.931   0.422   1.473 -1.3444 -1.0864  2.1320
58811SOL    HW285402   5.884   0.278   1.479  2.9517 -2.9341 -1.9722
58812SOL     OW85403   3.678   7.603   9.883 -0.5463  0.1934  0.5361
58812SOL    HW185404   3.669   7.672   9.948 -1.7259  0.7333 -0.1592
58812SOL    HW285405   3.620   7.533   9.913 -0.6591  0.2109  0.3609
58813SOL     OW85406  12.042   1.158  12.488  0.1796 -0.1861 -0.0038
58813SOL    HW185407  11.989   1.155  12.408 -1.0320  1.5258  0.6789
58813SOL    HW285408  12.075   1.248  12.491  0.0023 -0.1556  1.5389
58814SOL     OW85409   0.814   2.319   4.159  0.1288  0.0815  0.3603
58814SOL    HW185410   0.850   2.251   4.216  0.6495  1.9679  2.4405
58814SOL    HW285411   0.749   2.275   4.106  1.5184 -2.3201  0.5230
58815SOL     OW85412  10.141  11.130   5.066  0.0272  0.4395  0.0205
58815SOL    HW185413  10.197  11.127   5.144  0.0067  1.1770  0.0643
58815SOL    HW285414  10.111  11.220   5.061 -2.1728 -0.2073  0.7028
58816SOL     OW85415   8.391  12.597   5.721  0.2615 -0.0443 -0.2731
58816SOL    HW185416   8.473  12.643   5.700 -0.2545  0.9243 -0.2317
58816SOL    HW285417   8.398  12.579   5.814 -0.0555  1.0827 -0.0130
58817SOL     OW85418   9.812  11.197   4.469 -0.2099 -0.5664  0.0460
58817SOL    HW185419   9.890  11.171   4.518 -1.1376  1.4734  2.8547
58817SOL    HW285420   9.840  11.274   4.419 -0.3247  0.1302  1.0086
58818SOL     OW85421   0.469  12.130  10.751 -1.0645 -0.0397 -0.2076
58818SOL    HW185422   0.493  12.069  10.682 -1.6619  0.2750 -0.7046
58818SOL    HW285423   0.463  12.076  10.830 -0.5450 -0.4289 -0.4272
58819SOL     OW85424   1.071   1.663   4.315 -0.0608 -0.3589 -0.0323
58819SOL    HW185425   1.111   1.744   4.346 -0.2257 -0.2199 -0.1808
58819SOL    HW285426   1.119   1.593   4.359 -1.6792 -0.1383  2.2446
58820SOL     OW85427   2.289   5.931   4.568 -0.1298  0.3149  0.0187
58820SOL    HW185428   2.368   5.971   4.604 -0.2775  1.0359 -0.4360
58820SOL    HW285429   2.218   5.965   4.622 -0.2049  0.2756 -0.0547
58821SOL     OW85430   8.558  10.685   7.136 -0.3693  0.0742 -0.4142
58821SOL    HW185431   8.543  10.608   7.081 -3.2432 -0.7451  1.2863
58821SOL    HW285432   8.628  10.659   7.195  0.1446 -0.4356 -1.2296
58822SOL     OW85433   3.149   5.640   2.643  0.3673 -0.2208  0.2106
58822SOL    HW185434   3.189   5.652   2.557 -0.9460 -1.5486 -0.6244
58822SOL    HW285435   3.128   5.546   2.647 -0.1136 -0.0751  1.7479
58823SOL     OW85436   6.973   9.097   9.868  0.6689  0.0859 -0.6186
58823SOL    HW185437   7.012   9.138   9.791  0.3375  1.1905 -0.2217
58823SOL    HW285438   7.046   9.081   9.928  0.7676  0.3083 -0.6820
58824SOL     OW85439   1.264   4.022  10.688  0.3830  0.0736  0.1301
58824SOL    HW185440   1.277   4.034  10.593 -2.2028  0.3111 -0.2723
58824SOL    HW285441   1.229   4.107  10.718  0.7811 -0.1355  1.2125
58825SOL     OW85442   1.149   0.169   1.091 -0.0543 -0.2011 -0.3192
58825SOL    HW185443   1.184   0.254   1.063  0.1070  0.3850  1.5621
58825SOL    HW285444   1.189   0.153   1.176 -2.8741 -0.4310  1.0735
58826SOL     OW85445  11.811   2.524   4.629  0.2566 -0.0621  0.0366
58826SOL    HW185446  11.781   2.495   4.715 -1.1394 -0.0856 -0.4311
58826SOL    HW285447  11.788   2.617   4.626 -0.5533 -0.2736 -0.6472
58827SOL     OW85448   9.335   3.070   3.064  0.4997 -0.0784 -0.3126
58827SOL    HW185449   9.268   3.097   3.001  1.2390  0.8144 -0.7419
58827SOL    HW285450   9.311   2.981   3.088  0.7163 -0.8106 -2.5957
58828SOL     OW85451  11.062   1.463   1.038 -0.3338 -0.4098  0.5522
58828SOL    HW185452  10.967   1.452   1.042 -0.3958  0.3479  1.2718
58828SOL    HW285453  11.079   1.544   1.085  0.7209 -0.8148  0.8923
58829SOL     OW85454  11.460   1.659   8.974  0.5846  0.4371 -0.1057
58829SOL    HW185455  11.506   1.623   8.898  0.8539  1.5609 -0.5002
58829SOL    HW285456  11.381   1.606   8.982 -0.1710  1.1868 -2.0538
58830SOL     OW85457  10.111   4.654   6.421 -0.6352 -0.1995 -0.1989
58830SOL    HW185458  10.030   4.629   6.466 -1.3240  1.2937 -0.5316
58830SOL    HW285459  10.115   4.596   6.345 -1.5503 -0.1131 -0.3271
58831SOL     OW85460   9.985   7.905   0.506  0.4347  0.3529 -0.1664
58831SOL    HW185461   9.904   7.942   0.541  1.7569  2.4118  0.9857
58831SOL    HW285462  10.002   7.956   0.427  0.8724  0.2983 -0.1078
58832SOL     OW85463   3.641   3.186  12.442  0.0351  0.1278 -0.1334
58832SOL    HW185464   3.695   3.151  12.513  1.4060 -0.1862 -1.2867
58832SOL    HW285465   3.568   3.124  12.435  0.1339 -0.0964  0.6729
58833SOL     OW85466   5.589  10.533   6.108  0.2716 -0.0294 -0.4351
58833SOL    HW185467   5.540  10.485   6.175  1.5761 -0.3947  0.2928
58833SOL    HW285468   5.605  10.469   6.039 -0.7284  0.2373 -0.9249
58834SOL     OW85469   6.432   6.525   8.621  0.2947  0.2992 -0.1464
58834SOL    HW185470   6.440   6.447   8.675  1.5788  0.5233  0.0107
58834SOL    HW285471   6.350   6.566   8.650 -1.0538 -1.5716 -1.0558
58835SOL     OW85472   0.618   1.043   8.865 -0.0796  0.1852 -0.3136
58835SOL    HW185473   0.668   1.017   8.942 -1.8746 -1.2753  0.4329
58835SOL    HW285474   0.560   1.112   8.896 -1.8948 -1.4411  0.1345
58836SOL     OW85475   0.466   9.640  10.865  0.3001 -0.1203  0.1249
58836SOL    HW185476   0.437   9.618  10.954 -0.9199  0.9217  0.0182
58836SOL    HW285477   0.393   9.690  10.828  0.9825 -0.1494 -1.3082
58837SOL     OW85478   9.472  10.101  11.821  0.0466  0.3198  0.2860
58837SOL    HW185479   9.439  10.059  11.901 -1.3542 -0.7508 -0.7975
58837SOL    HW285480   9.455  10.037  11.752  4.2486 -0.2382 -0.4957
58838SOL     OW85481   1.524   0.650   9.186  0.1000 -0.0957  0.3157
58838SOL    HW185482   1.530   0.630   9.280 -1.1949 -0.7243  0.2857
58838SOL    HW285483   1.602   0.611   9.148  0.2810 -0.4450  1.0350
58839SOL     OW85484  12.040   2.129   1.752  0.2028  0.2643 -0.4224
58839SOL    HW185485  12.128   2.107   1.720  0.3373  1.6525 -1.0504
58839SOL    HW285486  11.991   2.153   1.674 -0.1233  1.5057  0.1372
58840SOL     OW85487  11.513  11.473   6.425  0.7712 -0.2178  0.6222
58840SOL    HW185488  11.562  11.394   6.447  0.6275 -0.8900 -1.3206
58840SOL    HW285489  11.427  11.459   6.464  1.0611 -0.5650  1.1422
58841SOL     OW85490   7.640  12.317   2.587 -0.1956 -1.1122  0.4610
58841SOL    HW185491   7.598  12.324   2.673 -0.3251  0.7943  0.2809
58841SOL    HW285492   7.596  12.383   2.533  0.8751 -1.2682 -0.6569
58842SOL     OW85493   8.254   1.184   8.604  0.7771  0.3525  0.4146
58842SOL    HW185494   8.305   1.184   8.523  1.6545  4.6647  0.7362
58842SOL    HW285495   8.178   1.239   8.585 -1.6082 -2.4133  1.2611
58843SOL     OW85496   1.439   4.317   5.685 -0.2886  0.2209 -0.1173
58843SOL    HW185497   1.523   4.354   5.713 -0.2249  0.9088 -1.1554
58843SOL    HW285498   1.423   4.245   5.746  0.6132  0.6536  0.6511
58844SOL     OW85499  11.390   0.187  11.186  0.6470 -0.3708 -0.2783
58844SOL    HW185500  11.345   0.219  11.264  0.5109  0.6056 -0.7504
58844SOL    HW285501  11.323   0.187  11.118  1.3508  1.2461 -1.0347
58845SOL     OW85502   6.961   1.376   3.782  0.0279 -0.3737 -0.5249
58845SOL    HW185503   7.042   1.342   3.742  0.6358  1.4007 -0.8912
58845SOL    HW285504   6.892   1.354   3.719  0.8297  1.5239 -2.1602
58846SOL     OW85505   1.927   5.420   0.223 -0.2837 -0.3611 -0.3155
58846SOL    HW185506   1.965   5.357   0.284  0.8556  0.4285 -0.1750
58846SOL    HW285507   1.935   5.504   0.268 -2.2252 -0.1369 -0.2824
58847SOL     OW85508   1.829   2.764  10.646  0.1508 -0.1970 -0.2333
58847SOL    HW185509   1.896   2.737  10.709  0.9118  1.4727 -0.2764
58847SOL    HW285510   1.876   2.772  10.563 -0.8185 -2.2675 -1.0691
58848SOL     OW85511   2.209   1.920   6.642 -0.0240  0.8061 -0.1953
58848SOL    HW185512   2.136   1.981   6.648  0.5208  1.4527  0.0053
58848SOL    HW285513   2.279   1.960   6.694  0.0626 -0.4131  0.6644
58849SOL     OW85514   2.166   7.202  12.287  0.4303  0.3307  0.2870
58849SOL    HW185515   2.232   7.134  12.300  0.8627  0.9660  1.6496
58849SOL    HW285516   2.215   7.277  12.255  0.0360  0.1988 -0.6756
58850SOL     OW85517   8.743   2.898  10.101  0.5418 -0.3972 -0.8006
58850SOL    HW185518   8.649   2.900  10.121  0.2123 -0.2360 -2.2321
58850SOL    HW285519   8.748   2.854  10.016  1.8943 -1.5299 -0.1684
58851SOL     OW85520  10.134   8.614  10.422  0.4125 -0.4171 -0.2980
58851SOL    HW185521  10.095   8.566  10.349  0.2922  0.3449 -0.7539
58851SOL    HW285522  10.214   8.651  10.385  1.0004 -1.0494  0.3183
58852SOL     OW85523  12.137  11.512   9.739  0.0506 -0.5701 -0.5067
58852SOL    HW185524  12.147  11.566   9.818 -0.3402 -0.0010 -0.8403
58852SOL    HW285525  12.061  11.548   9.695  1.9048  0.9904 -2.6254
58853SOL     OW85526   7.607  10.283   3.208 -0.6320 -0.1778 -0.0070
58853SOL    HW185527   7.625  10.267   3.115 -0.2415  0.5835 -0.0737
58853SOL    HW285528   7.529  10.232   3.226  0.7066 -2.3905 -0.0948
58854SOL     OW85529   9.374   3.738   4.218  0.0318  0.9724  0.6905
58854SOL    HW185530   9.306   3.671   4.217  1.8861 -1.0814 -1.7616
58854SOL    HW285531   9.415   3.729   4.304  0.9510 -1.9588  0.0702
58855SOL     OW85532  10.678   2.459   7.702  0.1932  0.2472 -0.0227
58855SOL    HW185533  10.591   2.455   7.661 -0.0852 -0.4906  0.6319
58855SOL    HW285534  10.733   2.404   7.646  0.5046  1.4970 -1.0120
58856SOL     OW85535   7.449   8.315   4.919 -0.3292 -0.6145 -0.4078
58856SOL    HW185536   7.471   8.290   4.830 -0.8604 -2.1374 -0.1345
58856SOL    HW285537   7.514   8.382   4.942  0.0458 -0.4808 -1.7882
58857SOL     OW85538   8.827   7.442   3.679  0.2127 -0.0811 -0.5005
58857SOL    HW185539   8.771   7.364   3.672  1.5440 -0.9201 -4.0936
58857SOL    HW285540   8.913   7.407   3.705  0.1069  0.6758  0.9716
58858SOL     OW85541  10.000  11.321   8.512  0.3845  0.5026 -0.3945
58858SOL    HW185542   9.950  11.274   8.445  1.2112 -0.3173 -0.4608
58858SOL    HW285543   9.935  11.373   8.558 -0.3561  0.3159 -1.1934
58859SOL     OW85544   7.940   2.231   0.895 -0.0481 -0.0360  0.2659
58859SOL    HW185545   7.885   2.187   0.960 -1.2026 -1.9248 -1.8913
58859SOL    HW285546   7.882   2.250   0.822  1.2940  1.7566 -0.4171
58860SOL     OW85547  12.535   6.055   4.534  0.3452 -0.0367  0.1150
58860SOL    HW185548  12.519   6.011   4.618  0.2505  0.6946  0.4890
58860SOL    HW285549  12.449   6.059   4.493  0.6206 -1.7206 -0.6994
58861SOL     OW85550   5.073   2.167  10.587  0.3406 -0.3777 -0.1614
58861SOL    HW185551   5.086   2.211  10.502 -0.4928 -0.7434 -0.4862
58861SOL    HW285552   5.050   2.237  10.647 -0.3372 -0.2774 -0.5307
58862SOL     OW85553   2.456  11.791   8.550 -0.5247 -0.4596  0.2141
58862SOL    HW185554   2.385  11.847   8.581  2.0902  1.2406  3.8147
58862SOL    HW285555   2.507  11.847   8.491 -0.6072 -0.7297 -0.1166
58863SOL     OW85556   8.360   2.358  10.867  0.5496 -0.3290 -0.2320
58863SOL    HW185557   8.349   2.282  10.924  0.0066 -0.3994 -0.4220
58863SOL    HW285558   8.290   2.417  10.893 -0.0518 -0.5971 -1.1901
58864SOL     OW85559   1.632   0.001   2.615  0.0396 -0.1330 -0.3896
58864SOL    HW185560   1.581  -0.077   2.638 -1.0715  0.8433  0.6121
58864SOL    HW285561   1.649   0.044   2.699  0.5014  0.7744 -0.9343
58865SOL     OW85562  10.393   3.909   0.678 -0.1899  0.3248 -0.2271
58865SOL    HW185563  10.342   3.833   0.707  0.3559  0.2587  0.6120
58865SOL    HW285564  10.373   3.917   0.585 -2.6379  1.0286  0.2992
58866SOL     OW85565   5.762   5.920   7.275  0.4163 -0.3514  0.1658
58866SOL    HW185566   5.756   6.005   7.318  1.2418  0.2435 -0.8384
58866SOL    HW285567   5.741   5.938   7.183 -0.3111 -1.4070  0.1054
58867SOL     OW85568  11.898  11.155   7.258  0.0332  0.9390  0.1421
58867SOL    HW185569  11.835  11.225   7.242 -1.4806 -0.3861  0.1370
58867SOL    HW285570  11.890  11.097   7.182  0.5829  0.2545  0.5913
58868SOL     OW85571   8.304  11.954   0.644 -0.2036  0.1213  0.2737
58868SOL    HW185572   8.323  11.861   0.658  1.3631  0.5920  1.5454
58868SOL    HW285573   8.330  11.997   0.725  0.8208  1.9108 -0.9273
58869SOL     OW85574   6.454  12.339   8.139  0.7271  0.3598 -0.5069
58869SOL    HW185575   6.377  12.332   8.082  0.2671  1.3591 -0.0470
58869SOL    HW285576   6.424  12.307   8.224  1.2845 -0.7192 -0.7039
58870SOL     OW85577   2.104   9.476   2.348  0.3142  0.3690 -0.1724
58870SOL    HW185578   2.197   9.455   2.359  0.5491  0.9829 -0.8648
58870SOL    HW285579   2.104   9.550   2.287 -0.6607 -0.0470 -0.7014
58871SOL     OW85580   5.799   7.624   3.839  0.1095  0.1960 -0.1296
58871SOL    HW185581   5.882   7.581   3.860  0.6009  1.0646 -0.2512
58871SOL    HW285582   5.781   7.680   3.915 -1.0513 -0.9522  0.4893
58872SOL     OW85583   7.372  11.930   0.417 -0.0682  0.4172  0.2210
58872SOL    HW185584   7.451  11.976   0.387  0.5754 -1.3481 -1.0261
58872SOL    HW285585   7.301  11.992   0.405  0.9203  1.4815 -0.2740
58873SOL     OW85586   2.663   5.155   0.419  0.3428 -0.2586  0.4851
58873SOL    HW185587   2.709   5.182   0.498 -0.0677 -0.9228  0.9649
58873SOL    HW285588   2.729   5.106   0.369  0.2966 -0.8135  0.9548
58874SOL     OW85589   4.620  10.634   4.207  0.2486  0.1477  0.2788
58874SOL    HW185590   4.601  10.543   4.227  0.6021 -0.9778 -3.6522
58874SOL    HW285591   4.712  10.635   4.181 -0.0712  1.3143 -0.9388
58875SOL     OW85592  11.530   1.581   5.379 -0.3935 -0.2582  0.6190
58875SOL    HW185593  11.614   1.625   5.386 -0.2974 -0.3367  0.0431
58875SOL    HW285594  11.552   1.491   5.354 -0.6509 -0.2414  0.3264
58876SOL     OW85595   9.016   4.264   0.825  0.4923  0.4861 -0.1803
58876SOL    HW185596   9.055   4.190   0.872 -1.0201 -0.3300 -0.1589
58876SOL    HW285597   8.992   4.228   0.740  1.2008  1.3911 -0.7841
58877SOL     OW85598   2.366   8.746   5.642 -0.7568  0.3221  0.1361
58877SOL    HW185599   2.313   8.804   5.697  2.6570  2.6744  1.2458
58877SOL    HW285600   2.389   8.799   5.566 -3.0199 -1.9616 -2.3901
58878SOL     OW85601   0.297   2.023   2.896  0.1532  0.0210  0.4160
58878SOL    HW185602   0.318   2.098   2.952 -1.2354  1.7321 -1.2103
58878SOL    HW285603   0.302   2.057   2.807 -0.5538 -1.8270 -0.3902
58879SOL     OW85604  12.340   7.893   1.073  1.1418  0.5343 -0.6596
58879SOL    HW185605  12.358   7.799   1.074 -1.3158 -0.0112 -0.1308
58879SOL    HW285606  12.326   7.914   0.981  1.0843  0.2249 -0.7248
58880SOL     OW85607   4.757   0.708   6.331  0.1025  0.3514  0.0990
58880SOL    HW185608   4.769   0.627   6.380 -0.1598 -0.4319 -1.0887
58880SOL    HW285609   4.711   0.681   6.252 -1.1632  1.8751  0.2894
58881SOL     OW85610   7.326  10.562   7.365  0.0171 -0.4270  0.4413
58881SOL    HW185611   7.329  10.627   7.435 -0.7646  0.6772 -0.5238
58881SOL    HW285612   7.396  10.587   7.305 -0.7032 -0.0621 -0.2669
58882SOL     OW85613   9.376   5.422   6.211  0.3544  0.0034 -0.2142
58882SOL    HW185614   9.372   5.327   6.203  0.2290  0.0523 -0.7185
58882SOL    HW285615   9.345   5.455   6.127 -0.2673  0.4985  0.2039
58883SOL     OW85616   0.772   0.388  11.156  0.0972  0.1800 -0.2815
58883SOL    HW185617   0.837   0.337  11.204  0.4747  1.6605  0.8571
58883SOL    HW285618   0.812   0.407  11.072  0.2815 -0.6788 -0.3932
58884SOL     OW85619  10.141   3.634   6.769 -0.0285 -0.0449 -0.1671
58884SOL    HW185620  10.235   3.638   6.783 -0.1071  0.0503  0.3448
58884SOL    HW285621  10.128   3.666   6.680  0.5601 -1.4542 -0.7898
58885SOL     OW85622  12.393   8.466   4.926 -1.0529  0.5758 -0.5008
58885SOL    HW185623  12.389   8.544   4.981 -0.6498  0.3593 -0.1605
58885SOL    HW285624  12.351   8.492   4.844  1.4483  1.9854 -1.4180
58886SOL     OW85625   4.318   5.139   8.597 -0.6053  0.3032  0.2821
58886SOL    HW185626   4.382   5.077   8.630 -0.7535 -1.3502 -2.2556
58886SOL    HW285627   4.235   5.113   8.637  0.0157  1.8112  2.7654
58887SOL     OW85628   2.700   3.861   7.639  0.1699  1.0816  0.5921
58887SOL    HW185629   2.624   3.835   7.691 -0.7458  1.3787 -0.5655
58887SOL    HW285630   2.740   3.779   7.612 -0.3965  0.8943  0.2920
58888SOL     OW85631   5.659   9.191   7.947 -0.0854  0.5598  0.3497
58888SOL    HW185632   5.688   9.193   8.038  1.6283 -3.0032  0.0726
58888SOL    HW285633   5.584   9.131   7.947  1.0489 -0.9296 -0.7553
58889SOL     OW85634  12.174   1.078   7.942 -0.3211  0.6157 -0.3869
58889SOL    HW185635  12.103   1.129   7.980 -1.2809  0.2918 -1.6554
58889SOL    HW285636  12.220   1.140   7.886 -0.9856  0.3275 -1.2859
58890SOL     OW85637   5.124  10.213   0.984  0.2819 -0.3158  0.2201
58890SOL    HW185638   5.122  10.117   0.977 -0.9624 -0.2417 -0.8057
58890SOL    HW285639   5.127  10.244   0.894 -0.6271  0.6200  0.4925
58891SOL     OW85640   9.010   6.326   1.951 -0.8835  0.3217 -0.2849
58891SOL    HW185641   8.953   6.377   1.893 -0.0716 -0.4203 -1.8074
58891SOL    HW285642   9.085   6.303   1.896  0.7074  0.9210  1.5480
58892SOL     OW85643   2.294  10.659   2.707  0.2779  0.1226 -0.2731
58892SOL    HW185644   2.359  10.641   2.640  0.0332 -1.6653 -0.0760
58892SOL    HW285645   2.276  10.753   2.698  1.2964  0.2153 -1.7318
58893SOL     OW85646   3.998   8.800   9.986 -0.1145 -0.2038 -0.3641
58893SOL    HW185647   4.024   8.885  10.021  0.0456 -0.4708  0.1716
58893SOL    HW285648   3.916   8.780  10.031  0.1791 -0.6260 -0.0072
58894SOL     OW85649   6.943   4.052  11.833 -0.1895  0.7176 -0.1590
58894SOL    HW185650   6.853   4.081  11.821 -0.5156 -0.3864 -0.5426
58894SOL    HW285651   6.959   3.992  11.760  0.5665  0.2299  0.3836
58895SOL     OW85652  12.104   4.207   2.942 -0.2061  0.6538  0.1074
58895SOL    HW185653  12.153   4.184   2.863 -0.4012  0.3959  0.0601
58895SOL    HW285654  12.045   4.277   2.915  0.6054  1.4387  0.3238
58896SOL     OW85655   3.268   2.964   6.399 -0.1319 -0.0502  0.3740
58896SOL    HW185656   3.285   3.056   6.378  1.7662  0.1669  2.4547
58896SOL    HW285657   3.343   2.917   6.361  1.2826 -0.1067  3.0037
58897SOL     OW85658   4.036   3.762  12.437  0.3370  1.0642  0.0075
58897SOL    HW185659   3.950   3.761  12.394 -0.6531 -0.1494  1.8563
58897SOL    HW285660   4.068   3.672  12.427  0.8189  1.1899  0.4004
58898SOL     OW85661  11.644   8.785   9.531 -0.6459 -0.0258  0.4896
58898SOL    HW185662  11.733   8.748   9.531 -0.7458 -0.2662  0.5681
58898SOL    HW285663  11.638   8.832   9.614 -1.0949 -1.2298  1.1476
58899SOL     OW85664   9.498   9.380   6.558 -0.0188  0.5105 -0.4235
58899SOL    HW185665   9.551   9.314   6.513 -0.2313  0.6999 -0.9655
58899SOL    HW285666   9.424   9.331   6.594  0.8013  0.1460  0.8395
58900SOL     OW85667   3.130   6.394   6.239  0.1237 -0.1650  0.4088
58900SOL    HW185668   3.039   6.414   6.218  0.2729  1.5589  1.2626
58900SOL    HW285669   3.146   6.310   6.195 -1.1079  0.7080 -1.8810
58901SOL     OW85670   2.462  10.259  12.459  0.4052  0.4688  0.3321
58901SOL    HW185671   2.390  10.196  12.466  0.9708 -0.3066 -0.6558
58901SOL    HW285672   2.418  10.344  12.458 -0.4529  0.0447  0.3891
58902SOL     OW85673   2.269  12.310   7.355  0.0413  0.4464  0.3139
58902SOL    HW185674   2.298  12.398   7.377 -1.4331  1.7306 -2.4025
58902SOL    HW285675   2.185  12.300   7.399  0.2261  0.3558  0.6515
58903SOL     OW85676   2.667   4.979  10.333  0.2992  0.0984 -0.1127
58903SOL    HW185677   2.676   5.070  10.363 -1.0355  0.2696 -0.1763
58903SOL    HW285678   2.732   4.970  10.264  0.1372  1.1512 -0.4133
58904SOL     OW85679   3.396   1.341   0.137 -0.1694 -0.0352  0.4883
58904SOL    HW185680   3.421   1.273   0.075 -2.8711 -0.2542 -0.4630
58904SOL    HW285681   3.432   1.422   0.100  0.9251 -0.5697  0.3397
58905SOL     OW85682  11.293   5.364   4.716 -0.4569  0.0602 -0.2772
58905SOL    HW185683  11.265   5.372   4.625 -0.8057 -1.4654 -0.3248
58905SOL    HW285684  11.224   5.408   4.766 -2.5003 -2.6629 -0.4781
58906SOL     OW85685   5.519   6.078   9.897 -0.2491 -0.2946  0.2008
58906SOL    HW185686   5.466   6.111   9.824 -0.8724  0.0083  0.7767
58906SOL    HW285687   5.608   6.079   9.864 -0.3088  1.4630 -0.0104
58907SOL     OW85688   0.527   2.578   4.230 -0.1595 -0.1193 -0.3529
58907SOL    HW185689   0.563   2.600   4.145  1.0705 -0.5425  0.0371
58907SOL    HW285690   0.503   2.662   4.269  2.1594  0.3941  0.1126
58908SOL     OW85691  10.586   0.910   8.266  0.0331 -0.8115 -0.0455
58908SOL    HW185692  10.563   0.949   8.350 -0.2773  2.1420 -1.3422
58908SOL    HW285693  10.527   0.836   8.256 -1.4560  0.1333  1.3650
58909SOL     OW85694   1.431   3.015   7.865 -0.0648 -0.0608 -0.0492
58909SOL    HW185695   1.409   2.969   7.946 -0.9165 -0.5483 -0.5493
58909SOL    HW285696   1.477   2.950   7.812  0.9776  0.4172  0.2464
58910SOL     OW85697   0.030  10.566   4.652  0.1677  0.1581  0.3154
58910SOL    HW185698   0.125  10.564   4.667  0.0011 -4.3636  2.2719
58910SOL    HW285699   0.001  10.644   4.699  2.6664  0.2360  1.9470
58911SOL     OW85700   1.620  11.695   1.638 -0.4226 -0.0763  0.3003
58911SOL    HW185701   1.611  11.789   1.623  0.0062 -0.0766  0.0444
58911SOL    HW285702   1.657  11.660   1.557 -2.2007 -0.7395 -0.2803
58912SOL     OW85703   3.816   5.561   2.174 -0.3294  0.0711  0.0229
58912SOL    HW185704   3.799   5.472   2.206  0.2550 -1.1734 -2.7683
58912SOL    HW285705   3.769   5.565   2.090  0.8210  1.8985 -0.5789
58913SOL     OW85706   6.674  11.552   4.325  0.3921  0.2718  0.6292
58913SOL    HW185707   6.750  11.587   4.371  1.6562 -2.6606  0.9990
58913SOL    HW285708   6.694  11.566   4.232  2.3632 -2.0718  0.6179
58914SOL     OW85709   3.153   7.820   4.349  0.0208 -0.1197  0.2869
58914SOL    HW185710   3.150   7.891   4.285  0.3258  1.0707  1.5441
58914SOL    HW285711   3.244   7.819   4.379 -0.3722  0.1529  1.5559
58915SOL     OW85712   9.530   9.543  11.295 -0.7743 -0.1680  0.3863
58915SOL    HW185713   9.467   9.493  11.244 -0.3880  1.0074 -1.3029
58915SOL    HW285714   9.598   9.567  11.233  0.8441 -0.5140  1.9297
58916SOL     OW85715   4.791  11.019   1.072 -0.2185  0.0093 -0.3890
58916SOL    HW185716   4.777  11.079   0.998  1.0751  2.1084  0.9602
58916SOL    HW285717   4.723  11.042   1.135  1.6996  1.8781  1.1465
58917SOL     OW85718   8.329   2.924  11.647 -0.1936  0.1246 -0.1901
58917SOL    HW185719   8.309   2.955  11.559 -0.7753 -2.0734 -0.8975
58917SOL    HW285720   8.244   2.926  11.693 -0.0644  0.3736  0.0451
58918SOL     OW85721   7.342   3.386   0.974 -0.1243 -0.7207 -0.1110
58918SOL    HW185722   7.345   3.292   0.959  0.5950 -0.8857  0.9420
58918SOL    HW285723   7.401   3.401   1.048 -1.1901  0.3925  0.5646
58919SOL     OW85724   2.940   1.631   0.872  0.3211 -0.5263  0.6032
58919SOL    HW185725   2.925   1.577   0.794  0.1928  1.6700 -1.0077
58919SOL    HW285726   2.861   1.619   0.925 -0.0486 -1.2839 -0.0982
58920SOL     OW85727   9.583   6.200   3.431  0.1631 -0.7429 -0.0008
58920SOL    HW185728   9.598   6.112   3.464  0.0896  0.0675  2.3838
58920SOL    HW285729   9.664   6.247   3.452 -0.5860  0.2705  0.7002
58921SOL     OW85730   3.671   9.891   2.229  0.3514  0.5636  0.3019
58921SOL    HW185731   3.633   9.934   2.305  0.3728  1.0511  0.0414
58921SOL    HW285732   3.599   9.888   2.165  0.4360  0.4867  0.2095
58922SOL     OW85733   3.807   3.434  10.966 -0.5808  0.1204  0.0529
58922SOL    HW185734   3.805   3.504  10.901  0.0016  1.0907  1.0290
58922SOL    HW285735   3.796   3.480  11.050  1.2062 -0.7854  0.8276
58923SOL     OW85736  11.233   9.176   6.042  0.2204 -0.3977 -0.3270
58923SOL    HW185737  11.180   9.246   6.005  0.8584 -0.9268 -2.3548
58923SOL    HW285738  11.273   9.133   5.967  0.8902 -2.1249  0.9320
58924SOL     OW85739   1.703   3.915  12.154  0.6951  0.5333 -0.6726
58924SOL    HW185740   1.771   3.861  12.193  0.6214 -1.0426 -2.5768
58924SOL    HW285741   1.625   3.860  12.155 -0.0181  1.5155 -0.5012
58925SOL     OW85742   5.537  10.268  12.559  0.1998 -0.1384 -0.2287
58925SOL    HW185743   5.580  10.191  12.595 -1.5994 -0.8900  0.4292
58925SOL    HW285744   5.589  10.342  12.592  1.3873 -1.0182 -0.0846
58926SOL     OW85745   7.631   2.108   8.897  0.6932  0.3156 -0.0416
58926SOL    HW185746   7.654   2.194   8.861  1.0034  0.3409  0.2180
58926SOL    HW285747   7.653   2.046   8.828  1.1242  0.3813  0.0341
58927SOL     OW85748  12.005   4.966  10.137 -0.1985 -0.3037  0.5273
58927SOL    HW185749  12.006   4.892  10.077 -0.0957 -0.3055  0.5304
58927SOL    HW285750  11.916   4.968  10.172 -0.5882  0.3637 -0.4535
58928SOL     OW85751   8.301   1.411   5.267 -0.0157  0.2191 -0.0312
58928SOL    HW185752   8.389   1.404   5.230 -0.2010  1.8700 -0.8870
58928SOL    HW285753   8.286   1.505   5.276 -2.4648  0.1077 -1.8540
58929SOL     OW85754   1.200   9.367   9.650 -0.2691  0.5514 -0.4541
58929SOL    HW185755   1.123   9.318   9.621 -0.5728  0.0322  1.1381
58929SOL    HW285756   1.216   9.430   9.580 -2.9454  1.5945 -0.2316
58930SOL     OW85757   0.152   9.003  10.535  0.0565 -0.1246  0.6086
58930SOL    HW185758   0.178   9.087  10.499 -0.0956 -0.8897 -1.3802
58930SOL    HW285759   0.061   8.993  10.510  0.6461 -1.7974 -1.1198
58931SOL     OW85760   9.324   2.144   0.136  0.2703  0.1895  0.3669
58931SOL    HW185761   9.287   2.184   0.057 -1.0498 -0.3014  0.7191
58931SOL    HW285762   9.353   2.219   0.189  0.1977  0.5618 -0.1075
58932SOL     OW85763   0.802   8.179   3.128 -0.1673  0.4407 -0.3201
58932SOL    HW185764   0.742   8.107   3.111  0.9826 -0.9093  1.0420
58932SOL    HW285765   0.861   8.145   3.195  1.2635  2.1947 -0.6293
58933SOL     OW85766   7.865   1.408  12.179  0.4241 -0.2895 -0.3053
58933SOL    HW185767   7.770   1.407  12.191  0.5541  1.0998  1.0467
58933SOL    HW285768   7.895   1.325  12.217 -0.2971 -1.1162 -1.4766
58934SOL     OW85769   5.473   8.998   7.892 -0.3667  0.8589  0.4091
58934SOL    HW185770   5.452   8.939   7.965 -1.1089 -0.1463 -0.5972
58934SOL    HW285771   5.482   8.941   7.816 -0.1952  1.9517 -0.4225
58935SOL     OW85772   3.439   0.461  12.506  1.0994  0.2320  0.1572
58935SOL    HW185773   3.391   0.467  12.423  1.6627 -0.3804 -0.2224
58935SOL    HW285774   3.505   0.393  12.491  1.4873  0.4142  0.9723
58936SOL     OW85775   2.572  11.570   7.433  0.3034  0.2761  0.1291
58936SOL    HW185776   2.604  11.561   7.522  1.4525 -1.4209 -0.4245
58936SOL    HW285777   2.618  11.646   7.398 -1.3050  1.9417  1.4016
58937SOL     OW85778   9.825   3.924  11.868  0.0417 -0.1869 -0.2743
58937SOL    HW185779   9.768   3.921  11.791  0.7106  0.0530 -0.7873
58937SOL    HW285780   9.861   4.012  11.868 -0.6777  0.1260  0.8655
58938SOL     OW85781   8.855   5.514   3.337  0.5215 -0.5197  0.1146
58938SOL    HW185782   8.825   5.559   3.258 -0.7848 -2.2779 -0.4582
58938SOL    HW285783   8.830   5.423   3.323  2.4554 -1.3353  1.5093
58939SOL     OW85784  11.300   9.291   9.125  0.0497  0.8329  0.5761
58939SOL    HW185785  11.309   9.272   9.032  1.6409 -0.3153  0.9340
58939SOL    HW285786  11.359   9.364   9.141  0.2437  0.6285  0.8029
58940SOL     OW85787   2.177   7.237   0.287  0.1867 -0.1659  0.1688
58940SOL    HW185788   2.248   7.246   0.350  0.1246  0.9325  0.1086
58940SOL    HW285789   2.109   7.187   0.333  0.3961  0.0743  0.7415
58941SOL     OW85790   1.202   8.383   1.858  0.0417 -0.2351 -0.3856
58941SOL    HW185791   1.128   8.435   1.826 -0.4560 -1.0446 -0.5812
58941SOL    HW285792   1.242   8.347   1.780  0.4978 -0.0003 -0.2618
58942SOL     OW85793   5.593  10.964   5.476  0.4701 -0.1704 -0.4306
58942SOL    HW185794   5.570  11.046   5.520 -0.5473  0.2356 -1.6577
58942SOL    HW285795   5.509  10.925   5.453  0.9596 -1.2865 -0.3721
58943SOL     OW85796   2.250   8.154  12.206  0.4128 -0.0318 -0.0547
58943SOL    HW185797   2.223   8.234  12.252  0.0687  0.0929 -0.4702
58943SOL    HW285798   2.178   8.093  12.219  1.0826 -0.6141  1.0710
58944SOL     OW85799   7.089   8.261   1.238  0.8028  0.1528 -0.2415
58944SOL    HW185800   7.113   8.257   1.330  0.9638  1.2346 -0.2175
58944SOL    HW285801   7.096   8.354   1.216  1.3421 -0.1693 -1.4987
58945SOL     OW85802  12.485  12.290   9.101 -0.2454 -0.1804 -0.0416
58945SOL    HW185803  12.470  12.231   9.175 -0.9654  0.5185  0.3772
58945SOL    HW285804  12.574  12.270   9.072 -0.2345 -0.9864  0.5343
58946SOL     OW85805   1.241   7.939  12.301 -0.4050  0.5021  0.0165
58946SOL    HW185806   1.181   7.947  12.227 -0.1789  1.1919 -0.1000
58946SOL    HW285807   1.201   7.874  12.359 -0.9427  0.4983 -0.3602
58947SOL     OW85808   5.976   9.324   3.050  0.7129  0.2484 -0.0048
58947SOL    HW185809   5.940   9.250   3.002  0.5322 -0.0341  0.5546
58947SOL    HW285810   5.970   9.398   2.989 -0.6924  0.1770  0.0092
58948SOL     OW85811   4.635   7.212   0.251 -0.2012  0.5294 -0.5802
58948SOL    HW185812   4.727   7.207   0.277 -0.3172 -0.5473 -0.3307
58948SOL    HW285813   4.614   7.124   0.220 -1.5114  0.3677  0.6316
58949SOL     OW85814   3.943   4.141  12.358 -0.0889 -0.0735 -0.1124
58949SOL    HW185815   3.907   4.062  12.400  0.3805  0.3131  1.0637
58949SOL    HW285816   3.873   4.171  12.300 -0.4914 -1.0329 -0.1371
58950SOL     OW85817   2.196   0.590   3.928  0.4276  0.0304  0.1422
58950SOL    HW185818   2.252   0.582   3.851 -0.1540 -0.6535 -0.2285
58950SOL    HW285819   2.107   0.592   3.892  0.2087  1.1740  0.7162
58951SOL     OW85820   5.717   6.840   5.750 -0.5114  0.7695  0.5279
58951SOL    HW185821   5.807   6.873   5.743  0.1714 -0.4786  2.7090
58951SOL    HW285822   5.707   6.784   5.673 -0.6550  3.4387 -1.5772
58952SOL     OW85823   8.704   5.353   8.379 -0.2265  0.9289 -0.4577
58952SOL    HW185824   8.781   5.372   8.433 -0.7538  0.1819  0.5716
58952SOL    HW285825   8.646   5.302   8.435 -1.5058  1.4961 -1.2015
58953SOL     OW85826  10.334   1.818  12.497  0.1235 -0.3593  0.0736
58953SOL    HW185827  10.346   1.739  12.550  0.6205 -0.9495 -0.8957
58953SOL    HW285828  10.403   1.813  12.431 -0.5594  0.2945 -0.7060
58954SOL     OW85829  12.086   2.745   5.521 -0.1476 -0.2192  0.0300
58954SOL    HW185830  12.039   2.676   5.567  0.5699 -0.9717 -0.3380
58954SOL    HW285831  12.054   2.827   5.560 -1.0829 -0.7520  0.3888
58955SOL     OW85832   7.513   9.241   5.985 -0.7566  0.0230  0.2079
58955SOL    HW185833   7.593   9.196   6.013 -0.3309 -0.0361 -1.0509
58955SOL    HW285834   7.519   9.244   5.889 -1.6202  1.2168  0.1717
58956SOL     OW85835   7.212  12.371   9.847  0.5531 -0.7902 -0.1133
58956SOL    HW185836   7.155  12.324   9.786 -1.7841  1.3706  0.2438
58956SOL    HW285837   7.161  12.377   9.928  1.8073  0.1928  0.6435
58957SOL     OW85838   8.495   4.326   1.620  0.0618  0.2033 -0.2650
58957SOL    HW185839   8.431   4.336   1.690  0.1920  0.2964 -0.1609
58957SOL    HW285840   8.530   4.238   1.632  0.1739  0.2657 -0.1400
58958SOL     OW85841   7.135   3.290  10.728 -0.2143 -0.6207  0.0173
58958SOL    HW185842   7.092   3.230  10.667  2.3087 -1.4072 -1.1410
58958SOL    HW285843   7.214   3.242  10.755  2.4509  2.4230 -1.6849
58959SOL     OW85844   9.857   5.649   3.528  0.5592  0.5465  0.0449
58959SOL    HW185845   9.881   5.677   3.616  0.3435  1.2505 -0.1157
58959SOL    HW285846   9.932   5.597   3.498  0.4744 -0.0103  0.7767
58960SOL     OW85847   5.602   4.926   1.734  0.0077 -0.3276 -0.1623
58960SOL    HW185848   5.587   4.869   1.810 -0.0789  0.5641  0.5062
58960SOL    HW285849   5.550   4.886   1.664 -0.6008 -0.6917  0.4753
58961SOL     OW85850   6.813   0.262   5.795 -0.6497 -0.6002 -0.4105
58961SOL    HW185851   6.856   0.242   5.878 -0.1026 -2.3726 -1.0662
58961SOL    HW285852   6.720   0.252   5.814 -0.7200  1.3253  0.5283
58962SOL     OW85853   5.653   3.670   3.277  0.1552  0.4475 -0.6212
58962SOL    HW185854   5.685   3.580   3.287 -0.1325  0.0668 -2.7363
58962SOL    HW285855   5.564   3.667   3.310  0.5899  0.3079  0.5900
58963SOL     OW85856   9.985   7.470   9.484 -0.2518  0.1155  0.6709
58963SOL    HW185857   9.919   7.406   9.511 -2.4061  2.2915  1.0037
58963SOL    HW285858   9.937   7.531   9.428  1.4105  1.9939  1.1783
58964SOL     OW85859   4.621   2.373   2.214 -0.3457 -0.5556 -0.6284
58964SOL    HW185860   4.622   2.317   2.292  1.1046  0.8629  0.4342
58964SOL    HW285861   4.683   2.443   2.234 -0.2445  0.0814 -2.9116
58965SOL     OW85862   3.519   7.637   2.732 -0.0354 -0.4574 -0.1227
58965SOL    HW185863   3.461   7.666   2.803  0.0623 -3.3729  1.2924
58965SOL    HW285864   3.502   7.543   2.723  2.3513 -0.8417 -1.7099
58966SOL     OW85865  10.199   6.014   1.705 -0.1812 -0.2293  0.0677
58966SOL    HW185866  10.218   6.070   1.780 -0.6057 -0.2103  0.1660
58966SOL    HW285867  10.256   5.938   1.717 -2.1096 -1.4909  1.8753
58967SOL     OW85868   1.807   5.026   4.421 -0.6138 -0.0696 -0.2177
58967SOL    HW185869   1.806   4.931   4.433  0.5897  0.0781  1.2676
58967SOL    HW285870   1.719   5.054   4.448 -0.0570 -0.4909  2.3207
58968SOL     OW85871   0.930   5.544   4.354  1.2597 -0.3163 -0.2250
58968SOL    HW185872   0.995   5.608   4.326  1.0946 -0.8065 -1.8162
58968SOL    HW285873   0.874   5.531   4.278 -2.2341  1.8327  1.7117
58969SOL     OW85874  11.346   9.238   3.572  0.1163 -0.1405 -0.0966
58969SOL    HW185875  11.297   9.157   3.556  0.1610 -0.4951  1.3941
58969SOL    HW285876  11.422   9.210   3.623  0.8255  0.6809 -0.6923
58970SOL     OW85877   4.306   3.948   0.357 -0.1694  0.6070 -0.6680
58970SOL    HW185878   4.393   3.982   0.379 -1.2112  1.8243  1.9521
58970SOL    HW285879   4.263   4.020   0.311 -0.5273  0.8760  0.0653
58971SOL     OW85880  10.171   9.985  10.494 -0.3743  0.1342  0.2987
58971SOL    HW185881  10.145   9.995  10.403  0.2541  1.6261  0.2488
58971SOL    HW285882  10.218  10.066  10.514  2.4578 -1.5458  0.9527
58972SOL     OW85883  12.339   6.688   6.699  0.3674 -0.0213  0.3191
58972SOL    HW185884  12.244   6.683   6.700  0.3123  0.7909  0.6091
58972SOL    HW285885  12.365   6.657   6.612 -0.2599  1.0971 -0.2858
58973SOL     OW85886  11.925   6.182   6.225 -0.5054  0.3786  0.1881
58973SOL    HW185887  11.991   6.133   6.273 -0.8699 -0.7980 -0.4547
58973SOL    HW285888  11.885   6.117   6.166 -2.8429  0.8141  1.1677
58974SOL     OW85889   1.455  10.921   9.082  0.3459  0.2462  0.2380
58974SOL    HW185890   1.451  10.858   9.155  2.6968  0.0671  0.2887
58974SOL    HW285891   1.495  10.999   9.119 -0.2753  0.9001 -0.4217
58975SOL     OW85892   9.018   6.694  11.192 -0.2487  0.3795 -0.0591
58975SOL    HW185893   8.961   6.621  11.168  0.4106 -0.7445  1.6073
58975SOL    HW285894   9.012   6.699  11.287  2.3652  0.2262  0.1930
58976SOL     OW85895  10.456   0.158   3.139  0.1655  0.5969 -0.3992
58976SOL    HW185896  10.496   0.161   3.226 -0.4062 -1.6623 -0.0182
58976SOL    HW285897  10.525   0.187   3.080  2.0407 -2.0050  0.3768
58977SOL     OW85898   8.231   6.154   4.895 -0.2236 -0.3530  0.5755
58977SOL    HW185899   8.236   6.088   4.825  0.0359 -1.1570  1.3385
58977SOL    HW285900   8.207   6.235   4.850 -1.1074 -1.0899 -0.3045
58978SOL     OW85901  11.069  11.064  12.363  0.1824 -0.5045 -0.3020
58978SOL    HW185902  10.978  11.062  12.392  0.7948 -0.9070  1.7660
58978SOL    HW285903  11.105  10.981  12.394  1.2524 -0.3368 -1.0673
58979SOL     OW85904   0.560   0.795   2.302 -0.1118 -0.4472 -0.0695
58979SOL    HW185905   0.604   0.763   2.223 -0.1652  1.5370 -0.9854
58979SOL    HW285906   0.629   0.841   2.350 -0.6174  0.5383 -0.2625
58980SOL     OW85907   9.016   4.570   0.720 -0.1424  0.0335 -0.2837
58980SOL    HW185908   8.935   4.534   0.755  0.7589 -0.4958  1.3566
58980SOL    HW285909   9.057   4.497   0.674 -1.3329  0.7319 -2.6241
58981SOL     OW85910   3.083   1.954   5.652  0.3848  0.2251 -0.3944
58981SOL    HW185911   3.054   1.899   5.725  0.7779 -0.6826 -0.8968
58981SOL    HW285912   3.048   1.910   5.575  0.7008  0.7029 -0.8107
58982SOL     OW85913   9.111   3.111   1.112 -0.2066  0.2899 -0.8765
58982SOL    HW185914   9.025   3.070   1.097 -0.8164  1.2176 -0.0191
58982SOL    HW285915   9.121   3.112   1.207  1.1262 -0.5162 -0.9935
58983SOL     OW85916   7.447   9.491   5.778  0.0720  0.5280  0.1746
58983SOL    HW185917   7.386   9.450   5.839  0.0213 -0.2186 -0.3650
58983SOL    HW285918   7.510   9.422   5.758  0.2785  0.8693 -0.3689
58984SOL     OW85919   2.485   2.565   1.972 -0.7403 -0.2039  0.4322
58984SOL    HW185920   2.541   2.641   1.957  1.4109 -1.7778  0.0630
58984SOL    HW285921   2.397   2.596   1.950 -0.1850  2.5292  1.5806
58985SOL     OW85922   3.632  12.169   5.975  0.1401 -0.4905 -0.1962
58985SOL    HW185923   3.682  12.114   6.035 -0.9040 -1.6262 -0.3462
58985SOL    HW285924   3.604  12.244   6.028 -1.2362 -1.7493  0.9051
58986SOL     OW85925  11.942   3.015   5.007  0.0300  0.4552  0.3157
58986SOL    HW185926  11.884   3.088   4.985 -0.1750 -0.0664 -0.9711
58986SOL    HW285927  11.943   2.960   4.928  0.3665 -0.8128  1.1669
58987SOL     OW85928   6.088   9.959   9.340  0.4178 -0.5866 -0.0528
58987SOL    HW185929   6.165   9.910   9.370  0.5335 -0.9666 -0.9363
58987SOL    HW285930   6.111  10.051   9.355  1.0950 -0.6910 -0.4142
58988SOL     OW85931   2.511   8.014   1.125  0.0027  0.4146  0.1053
58988SOL    HW185932   2.444   7.990   1.061  1.5189 -0.7308 -1.1439
58988SOL    HW285933   2.551   8.094   1.089  0.8507 -0.2257 -0.4297
58989SOL     OW85934   1.922   8.002   0.272  0.0202  0.4281  0.0302
58989SOL    HW185935   1.917   8.090   0.234  0.0938 -0.2599 -1.6284
58989SOL    HW285936   1.995   8.008   0.334  0.4902  1.3579 -0.5792
58990SOL     OW85937   6.999   5.622  10.551 -0.1072  0.2285  0.5074
58990SOL    HW185938   7.065   5.667  10.603  1.4934 -1.7939  0.3614
58990SOL    HW285939   6.919   5.626  10.604  0.3705  1.8455  1.1475
58991SOL     OW85940   5.036   3.632  10.797 -0.1556 -0.3387 -0.1735
58991SOL    HW185941   4.989   3.688  10.858 -1.7225 -0.0917 -1.5344
58991SOL    HW285942   5.083   3.570  10.853 -2.9657 -1.3080  1.3259
58992SOL     OW85943  11.302   0.571  11.203 -0.4947  0.1999  0.7371
58992SOL    HW185944  11.333   0.546  11.290  0.7493  2.1557  0.9378
58992SOL    HW285945  11.374   0.549  11.145 -0.1519  1.4182  0.6572
58993SOL     OW85946  12.187  11.488   5.068 -0.2489 -0.0268 -0.8311
58993SOL    HW185947  12.260  11.536   5.031 -0.8757  0.6392 -1.2221
58993SOL    HW285948  12.202  11.397   5.042  1.7294 -0.3444  1.1385
58994SOL     OW85949   0.202   6.949   5.500  0.3951 -0.1789 -0.2144
58994SOL    HW185950   0.116   6.988   5.486  0.2637 -0.1255  0.7038
58994SOL    HW285951   0.254   6.980   5.426 -0.2428  0.1651 -0.5292
58995SOL     OW85952   1.212   6.372   9.262  0.0974 -0.0576  0.0778
58995SOL    HW185953   1.178   6.454   9.298 -0.9393  0.4180 -1.8330
58995SOL    HW285954   1.303   6.391   9.238  0.6914 -0.2831  1.9936
58996SOL     OW85955  10.213   8.448  12.214  0.4025 -0.1866 -0.0459
58996SOL    HW185956  10.300   8.484  12.229  0.4339 -0.1969 -0.2075
58996SOL    HW285957  10.225   8.380  12.148  0.1126  0.5138 -0.8334
58997SOL     OW85958   9.525   4.332   0.581  0.5921  0.1756  0.5562
58997SOL    HW185959   9.604   4.364   0.625  0.4139 -0.0324  1.0361
58997SOL    HW285960   9.550   4.246   0.546  0.7517  0.3670  0.2034
58998SOL     OW85961   8.652   2.852   8.259  0.0637  0.5762  0.0853
58998SOL    HW185962   8.653   2.783   8.324 -0.0297  0.1572 -0.3545
58998SOL    HW285963   8.736   2.843   8.214 -0.4549 -0.0393 -0.7872
58999SOL     OW85964   4.529   9.224   8.336 -0.2518  0.2140  0.5425
58999SOL    HW185965   4.554   9.309   8.301  0.7828 -0.1590  0.3561
58999SOL    HW285966   4.445   9.240   8.379 -1.3699  0.7948 -1.7013
59000SOL     OW85967  10.686   3.248   4.627 -0.2203  0.1530 -0.4655
59000SOL    HW185968  10.729   3.219   4.547  0.0976  0.2218 -0.3181
59000SOL    HW285969  10.677   3.343   4.617 -0.0858  0.1759 -0.3756
59001SOL     OW85970   4.595   2.806   3.997  0.2522  0.2266 -0.0891
59001SOL    HW185971   4.521   2.768   4.045  0.0027 -0.7508 -1.2152
59001SOL    HW285972   4.562   2.890   3.964 -0.7685 -0.7047 -1.5466
59002SOL     OW85973   1.129   8.677   5.019 -0.6382  0.4430 -0.1889
59002SOL    HW185974   1.197   8.636   5.073  0.2685  1.1296 -0.7846
59002SOL    HW285975   1.061   8.610   5.012  0.9169 -1.1132 -1.3602
59003SOL     OW85976   4.691   6.927  10.419 -0.5961 -0.6395  0.2786
59003SOL    HW185977   4.739   6.862  10.366 -1.8161  0.0835 -1.8154
59003SOL    HW285978   4.745   6.936  10.498  0.6704 -2.6911 -0.2398
59004SOL     OW85979   2.649   7.216   1.754 -0.3144  0.4170 -0.8309
59004SOL    HW185980   2.584   7.179   1.814  1.4012  0.3802  1.1557
59004SOL    HW285981   2.695   7.282   1.806 -0.0745  1.8924 -2.7955
59005SOL     OW85982  11.025   9.579   9.332 -0.3054 -0.0635  0.0411
59005SOL    HW185983  10.965   9.653   9.325 -0.4744 -0.2495 -0.5212
59005SOL    HW285984  11.110   9.615   9.306  0.3659  0.7962  2.9976
59006SOL     OW85985   2.965  11.532  10.411 -0.1142 -0.3429  0.3671
59006SOL    HW185986   3.005  11.453  10.376  0.4984 -0.3489  1.0574
59006SOL    HW285987   2.948  11.512  10.503 -2.2326 -0.5332 -0.0116
59007SOL     OW85988   1.486   9.856   6.151  0.4151 -0.5072  0.3968
59007SOL    HW185989   1.458   9.764   6.149  3.7082 -1.6666  0.2789
59007SOL    HW285990   1.568   9.855   6.201  2.3015  1.7427 -2.3065
59008SOL     OW85991   8.318   6.032   1.514  0.7497  0.0546  0.4132
59008SOL    HW185992   8.294   6.050   1.423 -0.8673 -2.1191  0.3254
59008SOL    HW285993   8.234   6.033   1.561  0.5683 -4.7167  0.7007
59009SOL     OW85994   9.231  10.476   5.737  0.2357  0.0285  0.0849
59009SOL    HW185995   9.291  10.425   5.792  0.9378  0.6422 -0.0869
59009SOL    HW285996   9.245  10.440   5.649  0.2176  0.0520  0.0726
59010SOL     OW85997   3.036  10.194  11.831 -0.3510  0.5633 -0.1098
59010SOL    HW185998   3.003  10.284  11.839  2.3238  1.7046 -0.6525
59010SOL    HW285999   3.077  10.192  11.745 -0.0850 -1.1234  0.0245
59011SOL     OW86000   0.980   6.344   7.666 -0.2928  0.3205 -0.6862
59011SOL    HW186001   0.970   6.281   7.738 -0.8021 -0.7139 -1.6315
59011SOL    HW286002   1.074   6.360   7.662 -0.4115  2.0845  1.5820
59012SOL     OW86003  10.260  10.878  10.360  0.1993  0.5337  0.0487
59012SOL    HW186004  10.170  10.863  10.331  0.2321  1.5744 -0.6425
59012SOL    HW286005  10.256  10.869  10.455 -1.0535  2.4037  0.2300
59013SOL     OW86006   3.833   4.380   7.770 -0.0353 -0.5096 -0.1058
59013SOL    HW186007   3.782   4.306   7.803 -0.6969  0.6468  1.5903
59013SOL    HW286008   3.768   4.436   7.726 -0.3251  0.9968  2.1147
59014SOL     OW86009   9.091  11.759   5.129  0.0574  0.0407  0.1982
59014SOL    HW186010   9.054  11.844   5.154 -1.5192 -0.1870 -1.1234
59014SOL    HW286011   9.019  11.715   5.083  1.1675 -1.5946 -0.0592
59015SOL     OW86012   9.173  11.361   1.549 -0.8779  0.5235  0.2296
59015SOL    HW186013   9.086  11.348   1.586 -0.7112 -2.3345 -0.1319
59015SOL    HW286014   9.230  11.376   1.625 -1.4151  0.6200  0.6155
59016SOL     OW86015  11.607   3.890   4.937  0.0769  0.2471 -0.0235
59016SOL    HW186016  11.600   3.903   4.842 -0.0839  0.3880  0.0079
59016SOL    HW286017  11.524   3.921   4.971  1.0991  2.7366  0.4391
59017SOL     OW86018   0.246   3.780   8.323  0.0566  0.0406  0.0610
59017SOL    HW186019   0.241   3.800   8.229 -0.0622  0.8471  0.2315
59017SOL    HW286020   0.284   3.859   8.362  0.5527 -0.4702  0.6341
59018SOL     OW86021   3.474  10.632   4.039 -0.0626 -0.0230 -0.0541
59018SOL    HW186022   3.394  10.672   4.074 -1.0484 -0.6227 -1.5499
59018SOL    HW286023   3.457  10.538   4.041 -0.1702 -0.0757 -2.1424
59019SOL     OW86024   5.017  11.674   1.203  0.3445 -0.3982  0.5304
59019SOL    HW186025   4.975  11.753   1.168 -0.0814 -1.4131 -1.3592
59019SOL    HW286026   5.032  11.695   1.295 -3.1885  0.5123  1.0711
59020SOL     OW86027   3.013   9.791   4.149 -0.1107  0.7916  0.0994
59020SOL    HW186028   3.051   9.793   4.237 -0.6308  1.7384  0.3129
59020SOL    HW286029   2.921   9.766   4.164 -0.1187  0.6389 -0.2064
59021SOL     OW86030  10.698   3.247   8.383 -0.2631 -0.2917 -0.3485
59021SOL    HW186031  10.774   3.191   8.376 -1.1272 -1.6351  0.5483
59021SOL    HW286032  10.658   3.246   8.296  0.7014  0.4151 -0.8189
59022SOL     OW86033   4.099   5.965   2.232 -0.9830  0.0980  0.4002
59022SOL    HW186034   4.185   5.922   2.231 -0.9356  0.2071 -0.4109
59022SOL    HW286035   4.119   6.058   2.218 -1.2250  0.1454  0.3706
59023SOL     OW86036   2.527   1.622  11.648  0.2135  0.5011  0.4037
59023SOL    HW186037   2.598   1.670  11.604 -0.7701  1.1060 -0.5773
59023SOL    HW286038   2.460   1.612  11.581 -1.4125  1.5677  1.7715
59024SOL     OW86039  12.199  11.189   5.002  0.4246  0.0714  0.1648
59024SOL    HW186040  12.179  11.142   5.083  1.3364 -1.8156 -0.6428
59024SOL    HW286041  12.117  11.186   4.952  0.5767 -1.1393 -0.0598
59025SOL     OW86042   0.378   7.837  11.547  0.3937  0.2926  0.4144
59025SOL    HW186043   0.339   7.749  11.541  1.6652 -0.2042 -2.6988
59025SOL    HW286044   0.307   7.896  11.522 -0.4042  0.1924  2.2951
59026SOL     OW86045   4.849   0.492  12.549  0.5031  0.0531 -0.0912
59026SOL    HW186046   4.889   0.413  12.584 -0.5698 -0.0645  0.8998
59026SOL    HW286047   4.919   0.557  12.552  1.2424 -0.6969 -0.4243
59027SOL     OW86048   0.271   9.676  12.562 -0.4631  1.0260 -0.6290
59027SOL    HW186049   0.209   9.638  12.625  0.8117 -0.3327 -0.1538
59027SOL    HW286050   0.236   9.650  12.476 -1.2178  1.3251 -0.4199
59028SOL     OW86051   6.936   0.922   7.536 -0.1186  0.0770 -0.1033
59028SOL    HW186052   6.918   0.828   7.533 -0.6549  0.0939  1.5317
59028SOL    HW286053   6.938   0.943   7.630  0.7109  1.5634 -0.4280
59029SOL     OW86054   1.278   2.310  10.044  0.8086  0.0084 -0.1370
59029SOL    HW186055   1.311   2.274   9.961  0.5758  0.5392 -0.4615
59029SOL    HW286056   1.350   2.365  10.076  0.2121  1.2784 -0.9144
59030SOL     OW86057   5.956   2.559  11.327  0.1586 -0.1343  0.9057
59030SOL    HW186058   5.911   2.522  11.252  0.8835  0.9150 -0.0779
59030SOL    HW286059   6.011   2.488  11.360 -0.9850 -0.9376  1.1580
59031SOL     OW86060  10.638   0.841   5.825  0.4182  0.0615  0.3199
59031SOL    HW186061  10.660   0.783   5.752  1.7671  0.2043  0.5925
59031SOL    HW286062  10.690   0.920   5.809 -1.6858  1.4061 -0.2649
59032SOL     OW86063   8.387  11.911   5.913  0.2279  0.5182 -0.0358
59032SOL    HW186064   8.380  12.004   5.894  0.0438  0.9603  1.9953
59032SOL    HW286065   8.298  11.883   5.935  0.2820 -0.1535 -0.6093
59033SOL     OW86066   7.693   1.513   2.346 -0.3854 -0.6500 -0.0598
59033SOL    HW186067   7.775   1.464   2.359 -1.1200 -2.1687 -0.8718
59033SOL    HW286068   7.638   1.453   2.296 -0.5728  1.8360 -3.0716
59034SOL     OW86069   4.614   3.603   0.863 -0.1349  0.8451  0.4669
59034SOL    HW186070   4.562   3.665   0.812 -0.3310 -0.2178 -0.6928
59034SOL    HW286071   4.563   3.590   0.944 -0.5702  1.4627  0.2985
59035SOL     OW86072   2.555   3.264   9.798 -0.2077 -0.5302 -0.0030
59035SOL    HW186073   2.481   3.322   9.814  0.1173  0.0562 -0.6209
59035SOL    HW286074   2.528   3.211   9.724 -0.1233 -0.5218 -0.0395
59036SOL     OW86075   6.468  10.507   4.129  0.4166 -0.4992 -0.4919
59036SOL    HW186076   6.531  10.457   4.181  1.1711  0.2031 -0.7112
59036SOL    HW286077   6.418  10.557   4.194 -1.7199 -2.9489 -0.0709
59037SOL     OW86078   4.473   8.771   0.428 -0.2087  0.2374  0.1821
59037SOL    HW186079   4.509   8.858   0.409 -2.1172  0.8643 -0.7563
59037SOL    HW286080   4.402   8.787   0.490 -0.7463 -0.6057 -0.1953
59038SOL     OW86081   9.958   9.262   6.686 -0.0880 -0.0022 -0.7994
59038SOL    HW186082   9.887   9.214   6.727  0.2937  0.1229  0.0281
59038SOL    HW286083  10.034   9.204   6.693  0.1602  0.3409 -0.6203
59039SOL     OW86084   5.441   6.993  11.464 -0.0490 -0.2183 -0.0030
59039SOL    HW186085   5.435   6.990  11.559  0.7380  1.0489  0.1207
59039SOL    HW286086   5.358   6.957  11.433 -0.5289 -0.1639  1.1665
59040SOL     OW86087   7.980   0.424   0.638  0.2269 -0.1426  0.2126
59040SOL    HW186088   7.966   0.517   0.623 -0.6392 -0.1315  0.9914
59040SOL    HW286089   8.023   0.420   0.724  4.4108 -0.2353 -1.6348
59041SOL     OW86090   4.221   9.977   0.085  0.3266 -0.7995 -0.5557
59041SOL    HW186091   4.278   9.952   0.158 -0.8776 -1.5080  0.1849
59041SOL    HW286092   4.179  10.058   0.114 -0.1692 -1.0924 -0.4488
59042SOL     OW86093   2.225   6.162   4.995  0.5230 -0.2674 -0.9459
59042SOL    HW186094   2.265   6.101   4.933 -2.4101 -2.4850 -0.9064
59042SOL    HW286095   2.258   6.134   5.080  0.8420 -0.4005 -1.1131
59043SOL     OW86096   5.661   9.930   6.133 -0.0043  0.1256  0.5806
59043SOL    HW186097   5.664  10.024   6.149  0.4112  0.3954 -0.9250
59043SOL    HW286098   5.747   9.909   6.098 -0.3758 -0.6602  0.1102
59044SOL     OW86099  10.796   8.217   4.364  0.2552  0.5128 -0.3161
59044SOL    HW186100  10.886   8.190   4.344  0.0785 -1.8981  1.7128
59044SOL    HW286101  10.745   8.182   4.291  0.8874  1.9675 -1.5274
59045SOL     OW86102   3.214  12.423   2.127 -0.5823 -0.3612 -0.3032
59045SOL    HW186103   3.122  12.401   2.140 -1.2122  1.2040 -1.7900
59045SOL    HW286104   3.216  12.519   2.123  1.1478 -0.3500 -0.0851
59046SOL     OW86105   2.087   5.294   1.076  0.2580  0.2498 -0.3935
59046SOL    HW186106   2.177   5.287   1.046  0.2546  0.2609 -0.4054
59046SOL    HW286107   2.078   5.224   1.141  0.5338  0.8011  0.2464
59047SOL     OW86108   6.144   6.647   6.950 -0.2793 -0.0642 -0.3992
59047SOL    HW186109   6.131   6.604   7.035 -0.1116 -1.5097 -1.0648
59047SOL    HW286110   6.059   6.682   6.927 -1.0153 -1.9513 -0.7849
59048SOL     OW86111   7.374   8.521   1.941 -0.0400 -0.3983  0.2410
59048SOL    HW186112   7.454   8.566   1.968 -0.0024 -0.5894  0.4550
59048SOL    HW286113   7.347   8.472   2.019 -1.4659  1.1949  0.8029
59049SOL     OW86114  10.745  10.163   8.251 -0.4427 -0.1603  0.3914
59049SOL    HW186115  10.833  10.198   8.267  0.0867 -0.2163 -2.0835
59049SOL    HW286116  10.702  10.169   8.337  1.7473  0.4278  1.5426
59050SOL     OW86117   6.415   5.269   5.225  0.0282 -0.0411  0.2644
59050SOL    HW186118   6.425   5.178   5.251  1.8478  0.1706  0.3795
59050SOL    HW286119   6.321   5.278   5.206 -0.2123 -1.8636  0.4399
59051SOL     OW86120   9.451   5.226   4.151 -0.3602  0.3410  0.2000
59051SOL    HW186121   9.457   5.314   4.189 -1.9728  0.9829 -0.9367
59051SOL    HW286122   9.415   5.240   4.064 -1.5663 -1.5421  0.3415
59052SOL     OW86123   5.487   3.664   0.801 -0.1323 -0.2587 -0.1385
59052SOL    HW186124   5.428   3.630   0.867  0.1519  1.8340  1.3113
59052SOL    HW286125   5.444   3.744   0.769  0.5531 -0.3011 -1.2288
59053SOL     OW86126  11.823   5.381   1.781 -0.1290 -0.2006  0.5712
59053SOL    HW186127  11.779   5.347   1.703  1.0431 -3.2984  1.1319
59053SOL    HW286128  11.811   5.313   1.847  1.2135  1.1112  2.2581
59054SOL     OW86129   7.636   0.279   0.686  0.3016 -0.2219  0.1845
59054SOL    HW186130   7.678   0.365   0.699 -0.0784  0.0528 -0.3695
59054SOL    HW286131   7.704   0.216   0.707  1.0986  0.2103 -0.9902
59055SOL     OW86132   8.663  11.779   4.696 -0.3277 -0.0664  0.3890
59055SOL    HW186133   8.582  11.752   4.739  0.5512  0.3016  2.4119
59055SOL    HW286134   8.691  11.857   4.744  1.8280 -0.8632  0.5439
59056SOL     OW86135   0.464   6.228   1.488 -0.4892 -0.2883  0.2659
59056SOL    HW186136   0.455   6.301   1.427  0.4147  0.5885  1.1377
59056SOL    HW286137   0.422   6.155   1.444  0.1836  0.2989 -1.4266
59057SOL     OW86138   2.267   8.824  11.506 -0.4187 -0.4887 -0.6958
59057SOL    HW186139   2.217   8.905  11.501  1.1506  0.5243 -0.8483
59057SOL    HW286140   2.244   8.786  11.591 -0.4815  0.6134 -0.2022
59058SOL     OW86141   1.786   8.551  10.249 -0.4152 -0.5498  0.0524
59058SOL    HW186142   1.791   8.491  10.174  0.1641  1.2401 -1.4213
59058SOL    HW286143   1.846   8.622  10.226 -1.3678  0.7939  1.5508
59059SOL     OW86144   9.075   4.737   8.459  0.2662 -0.0896  0.2161
59059SOL    HW186145   9.034   4.650   8.455 -0.6362  0.3554 -0.4957
59059SOL    HW286146   9.001   4.798   8.460  0.9056  0.6961  0.0174
59060SOL     OW86147   7.967   1.182  10.308  0.0174  0.1530 -0.8000
59060SOL    HW186148   8.036   1.245  10.287 -0.1133  0.2163 -1.0354
59060SOL    HW286149   7.973   1.172  10.403 -2.3480  3.4086 -0.1036
59061SOL     OW86150  12.369   8.165   4.126 -0.5480  0.2163  0.3272
59061SOL    HW186151  12.296   8.113   4.159 -0.8987  1.2333  1.1981
59061SOL    HW286152  12.440   8.148   4.187 -0.1568 -0.4850 -0.3113
59062SOL     OW86153  10.371   9.983   1.421  0.2053 -0.6284 -0.0577
59062SOL    HW186154  10.376  10.041   1.498  0.5772 -0.1537 -0.4326
59062SOL    HW286155  10.300  10.019   1.369 -0.6169 -1.4526  0.4561
59063SOL     OW86156   7.553   5.096  10.294  0.4283  0.6553 -0.0168
59063SOL    HW186157   7.547   5.138  10.379 -0.0710  2.3114 -0.8257
59063SOL    HW286158   7.589   5.163  10.236  0.5353 -0.3534 -1.1689
59064SOL     OW86159   1.227   0.699   8.886 -0.0834 -0.2688 -0.5589
59064SOL    HW186160   1.162   0.768   8.876 -1.1958 -1.1657  0.2335
59064SOL    HW286161   1.310   0.740   8.861 -0.8095  1.1483 -0.7309
59065SOL     OW86162   4.566   7.113   2.194  0.4710  0.4485  0.0523
59065SOL    HW186163   4.567   7.169   2.272 -1.8719  0.9921 -0.2392
59065SOL    HW286164   4.561   7.174   2.121  2.2725 -0.0787 -0.5792
59066SOL     OW86165   1.644   7.216  11.827 -0.0219  0.4154  0.8909
59066SOL    HW186166   1.706   7.205  11.755 -0.8917  1.4338 -0.0561
59066SOL    HW286167   1.652   7.136  11.878  0.5966 -0.3464 -0.3518
59067SOL     OW86168   5.429   0.104  11.152  0.6734  0.3031  0.8696
59067SOL    HW186169   5.350   0.050  11.161  0.1665  0.5831 -1.3370
59067SOL    HW286170   5.468   0.104  11.239 -1.6172 -0.0727  1.9821
59068SOL     OW86171   0.802   6.311   2.021 -0.1614  0.1426 -0.1571
59068SOL    HW186172   0.778   6.224   1.992 -3.2097  0.8970 -0.2416
59068SOL    HW286173   0.771   6.369   1.952 -1.3359  1.4813  1.3984
59069SOL     OW86174   0.266  12.139  10.040 -0.6054 -0.0087 -0.1078
59069SOL    HW186175   0.269  12.048  10.009 -0.1646 -0.1245  0.2600
59069SOL    HW286176   0.353  12.174  10.019 -0.6965  0.2611 -0.0374
59070SOL     OW86177   9.884   7.329   1.525 -0.7988  0.1632 -0.0284
59070SOL    HW186178   9.819   7.339   1.595 -0.4500  0.5473  0.2451
59070SOL    HW286179   9.921   7.242   1.539 -0.1115  0.5743  0.8097
59071SOL     OW86180   1.797   9.798   5.603 -0.3961  0.3574  0.0959
59071SOL    HW186181   1.862   9.868   5.610 -0.2044  0.2290 -0.3462
59071SOL    HW286182   1.737   9.827   5.535 -1.0171  0.6370  0.7449
59072SOL     OW86183  10.821   4.045  12.597 -0.2258 -0.2297 -0.4297
59072SOL    HW186184  10.767   4.121  12.575 -1.1579  0.2329  2.8556
59072SOL    HW286185  10.792   4.020  12.684  2.6549 -2.0485  0.1443
59073SOL     OW86186   0.229  11.176   1.428 -0.4139 -0.0142 -0.3533
59073SOL    HW186187   0.216  11.235   1.353  2.1148  1.5410  0.3108
59073SOL    HW286188   0.279  11.103   1.392 -1.3471 -0.5235 -0.6522
59074SOL     OW86189  12.040  11.964   7.845 -0.1184 -0.0503  0.0683
59074SOL    HW186190  11.985  12.038   7.870  1.0286  1.7685 -2.3897
59074SOL    HW286191  11.985  11.911   7.788 -0.9295 -1.1477  1.8013
59075SOL     OW86192   8.682   6.475   1.590  0.0716  0.5562  0.1685
59075SOL    HW186193   8.622   6.508   1.657 -0.8915 -0.0049 -0.3952
59075SOL    HW286194   8.626   6.427   1.529  1.1406 -0.2834 -0.1904
59076SOL     OW86195   8.211  11.530   6.171  0.0869  0.2644  0.1899
59076SOL    HW186196   8.223  11.608   6.225 -1.0403  0.4666  0.1760
59076SOL    HW286197   8.259  11.462   6.216  1.8097  1.1417 -0.2366
59077SOL     OW86198   8.154   1.621   0.156  0.4878 -0.1780 -0.1766
59077SOL    HW186199   8.097   1.615   0.233 -0.9958 -0.2928 -1.2474
59077SOL    HW286200   8.179   1.714   0.153 -1.8235  0.4894 -1.1491
59078SOL     OW86201  12.263   9.135   9.049 -1.0980 -0.6021  0.4757
59078SOL    HW186202  12.291   9.065   9.108  0.3807 -1.2494 -0.8972
59078SOL    HW286203  12.320   9.208   9.070 -0.4869 -0.8741 -0.2166
59079SOL     OW86204   2.125   7.334   2.281  0.4776  0.3498  0.1258
59079SOL    HW186205   2.098   7.251   2.241 -1.9267  0.6219  0.9976
59079SOL    HW286206   2.119   7.318   2.375  1.3972  1.1047  0.3259
59080SOL     OW86207  12.016   3.589   2.077 -0.2505  0.2841  0.0099
59080SOL    HW186208  11.971   3.604   2.160  0.9006 -0.1631  0.7365
59080SOL    HW286209  12.076   3.517   2.095  1.2060  1.2605 -0.7339
59081SOL     OW86210   7.791   7.139   8.851 -0.4038 -0.0528  0.7701
59081SOL    HW186211   7.735   7.067   8.881 -0.6076 -0.4235 -0.4514
59081SOL    HW286212   7.870   7.096   8.819 -1.2524  0.0443 -1.6762
59082SOL     OW86213  11.630   2.320   7.746  0.1067 -0.1359 -0.3513
59082SOL    HW186214  11.703   2.379   7.766  1.3759 -0.9509 -2.3049
59082SOL    HW286215  11.638   2.303   7.653 -1.6613 -1.5208 -0.2963
59083SOL     OW86216   7.424   5.461   9.000 -0.9506  0.4691  0.0990
59083SOL    HW186217   7.413   5.368   8.983  3.1308 -0.5971  2.0649
59083SOL    HW286218   7.419   5.502   8.913 -1.6696 -1.6857 -0.9567
59084SOL     OW86219   8.809   9.088  10.564  0.1473 -0.6108  0.7878
59084SOL    HW186220   8.880   9.151  10.555 -1.0653  0.5973 -0.9399
59084SOL    HW286221   8.853   9.003  10.566  1.7440  0.1968  1.9817
59085SOL     OW86222   1.594   9.453  12.080  0.0941  0.1827  0.3530
59085SOL    HW186223   1.689   9.450  12.086  0.3544 -0.1971 -2.6035
59085SOL    HW286224   1.564   9.386  12.141  1.6702  0.4186  1.4549
59086SOL     OW86225   1.532  10.990   4.305  0.3912 -0.1055  0.1530
59086SOL    HW186226   1.548  11.043   4.383 -0.1875 -1.0325  0.9187
59086SOL    HW286227   1.455  10.937   4.327 -0.1027 -0.0198 -1.2362
59087SOL     OW86228  12.264   2.535   8.708 -0.0649 -0.1853 -0.3244
59087SOL    HW186229  12.199   2.597   8.742  1.9537  1.3243  1.1128
59087SOL    HW286230  12.310   2.504   8.786  1.5475 -0.4220 -1.3114
59088SOL     OW86231   4.822   6.135   2.245 -0.1185  0.2024 -0.4294
59088SOL    HW186232   4.897   6.131   2.187  0.9911 -1.4954  1.0177
59088SOL    HW286233   4.792   6.226   2.239  1.8897  0.8645 -1.2482
59089SOL     OW86234  10.754  10.005  10.530 -0.2878  0.3390 -0.3502
59089SOL    HW186235  10.849   9.994  10.526 -0.4127 -0.5936 -1.0992
59089SOL    HW286236  10.741  10.096  10.558  0.8162  0.1405  0.9319
59090SOL     OW86237  11.255   4.415   1.341  0.4136  0.5743  0.5142
59090SOL    HW186238  11.282   4.420   1.249  1.1363 -0.4042  0.6452
59090SOL    HW286239  11.333   4.443   1.390  0.6998 -0.7664  0.8661
59091SOL     OW86240   9.399   8.579   0.037  0.2699 -0.2668 -0.6019
59091SOL    HW186241   9.344   8.545  -0.034 -1.6136  0.1386  0.5888
59091SOL    HW286242   9.405   8.506   0.099  1.3695 -0.4062 -0.8463
59092SOL     OW86243  10.628   5.935   1.768 -0.3059  0.1922  0.0817
59092SOL    HW186244  10.535   5.911   1.770 -0.5113  0.8332 -0.9955
59092SOL    HW286245  10.629   6.029   1.785  0.2108  0.0504  0.8552
59093SOL     OW86246   0.870   7.572  12.368 -0.6958  0.3192  0.1841
59093SOL    HW186247   0.885   7.666  12.380 -0.1814  0.2996 -0.2818
59093SOL    HW286248   0.868   7.537  12.457  0.2765  0.5949  0.3308
59094SOL     OW86249  11.042   6.037   0.021 -0.0630  0.0746  0.3619
59094SOL    HW186250  11.131   6.033  -0.015  0.2966  0.8078  1.1394
59094SOL    HW286251  11.009   5.947   0.014  0.6395 -0.1490 -0.1721
59095SOL     OW86252   0.477   0.538  11.884 -0.3575 -0.7473 -0.3926
59095SOL    HW186253   0.433   0.517  11.966  1.5248 -0.6012  0.7151
59095SOL    HW286254   0.482   0.454  11.837 -0.4881 -1.0585  0.1395
59096SOL     OW86255   1.354   5.871   2.440 -0.1950 -0.0392 -0.0325
59096SOL    HW186256   1.318   5.885   2.353 -0.0875 -1.8148 -0.4124
59096SOL    HW286257   1.449   5.871   2.427 -0.1162  1.4383  0.4092
59097SOL     OW86258  10.132  10.900   0.022  0.8720  0.5686 -0.4889
59097SOL    HW186259  10.126  10.987   0.061  1.1965  1.5365 -2.4384
59097SOL    HW286260  10.067  10.848   0.069 -1.4860  2.6734 -1.1655
59098SOL     OW86261  11.525   1.201   1.607  0.4544  0.1083 -0.8534
59098SOL    HW186262  11.547   1.152   1.686 -0.1203  0.4472 -0.4780
59098SOL    HW286263  11.575   1.159   1.538  1.6721  0.3635 -0.1628
59099SOL     OW86264   9.245  10.923  10.596  0.0157 -0.3722  0.3984
59099SOL    HW186265   9.200  10.935  10.512 -0.8642  0.3802  0.9610
59099SOL    HW286266   9.236  10.829  10.614  1.0668 -0.7307 -0.8020
59100SOL     OW86267   8.104   4.220   6.614  0.1481  0.3141 -0.3234
59100SOL    HW186268   8.055   4.158   6.667 -1.3663 -0.2302 -2.2565
59100SOL    HW286269   8.038   4.267   6.564  1.4999 -0.3831 -2.9696
59101SOL     OW86270  11.660   1.305   3.697  0.0505  0.1116  0.1200
59101SOL    HW186271  11.716   1.307   3.774  1.9853  1.2023 -1.2527
59101SOL    HW286272  11.719   1.314   3.623 -1.8172 -0.1470 -1.5004
59102SOL     OW86273   9.638  11.766  11.167  0.0456 -0.3282 -0.8313
59102SOL    HW186274   9.668  11.705  11.234  0.6615 -2.6883 -3.0931
59102SOL    HW286275   9.544  11.748  11.159 -0.1156  0.2653 -0.3181
59103SOL     OW86276   7.063  11.721   9.345 -0.3413  0.3860 -0.0595
59103SOL    HW186277   7.110  11.800   9.370  0.1040 -0.1210  0.7599
59103SOL    HW286278   7.090  11.655   9.410 -0.3238 -0.5756 -1.0109
59104SOL     OW86279   2.208   6.614   2.886  0.2873 -0.2373 -0.1469
59104SOL    HW186280   2.134   6.596   2.828  1.4414  0.7300 -2.0162
59104SOL    HW286281   2.259   6.533   2.885  1.6091  0.5270 -2.5982
59105SOL     OW86282   9.726   4.794  11.247 -0.1615 -0.1369 -0.1875
59105SOL    HW186283   9.682   4.877  11.270 -1.3193 -0.3764 -1.4132
59105SOL    HW286284   9.725   4.744  11.328  0.0118  0.8064  0.4224
59106SOL     OW86285   3.797   0.903  12.400 -0.1791  0.2410  0.3149
59106SOL    HW186286   3.811   0.842  12.471 -0.6852 -0.2648 -0.0139
59106SOL    HW286287   3.811   0.989  12.439 -0.9022 -0.0006  1.1472
59107SOL     OW86288   4.430   1.085  10.755  0.0824  0.1427  0.6289
59107SOL    HW186289   4.526   1.084  10.752  0.2053 -0.0716  2.8766
59107SOL    HW286290   4.404   1.129  10.674  1.9162 -3.0366 -1.9198
59108SOL     OW86291   8.080   9.530  10.714  0.0003  0.4610 -0.5453
59108SOL    HW186292   8.072   9.435  10.700  0.9549  0.1611  0.7910
59108SOL    HW286293   8.001   9.554  10.761 -0.7361  0.5484 -1.7641
59109SOL     OW86294   5.475  12.499   6.971  0.0603 -0.1804 -0.1261
59109SOL    HW186295   5.401  12.495   6.911  0.3137  1.7511 -0.6455
59109SOL    HW286296   5.439  12.537   7.051  0.3963  0.3552 -0.2264
59110SOL     OW86297   7.849   1.116   6.446  0.4412 -0.0272  0.5997
59110SOL    HW186298   7.858   1.135   6.540  0.3761 -1.8341  0.9980
59110SOL    HW286299   7.914   1.048   6.428  0.5551  0.4019 -0.7166
59111SOL     OW86300   9.161   0.993   7.385  0.3019 -0.8527 -0.3954
59111SOL    HW186301   9.241   1.039   7.411 -0.8391 -0.2353  2.4017
59111SOL    HW286302   9.095   1.062   7.377 -0.8654 -1.6703  1.4407
59112SOL     OW86303   6.784   0.074   7.980  0.0938 -0.3668 -0.2809
59112SOL    HW186304   6.848   0.024   8.031 -1.9122 -1.2042  1.5481
59112SOL    HW286305   6.759   0.015   7.908  0.1848 -0.6738 -0.0618
59113SOL     OW86306   8.747   2.864   9.147  0.1575 -0.4983  0.0691
59113SOL    HW186307   8.830   2.908   9.164 -0.1844  0.6666 -1.1380
59113SOL    HW286308   8.768   2.771   9.148  1.4183 -0.2234  0.0319
59114SOL     OW86309   8.808   9.227   7.669 -0.7117 -0.2749 -0.2969
59114SOL    HW186310   8.763   9.292   7.722  0.1873 -0.4109  0.6747
59114SOL    HW286311   8.826   9.154   7.729  0.5248 -0.3398 -0.7109
59115SOL     OW86312  11.546   7.982   1.249 -0.1878 -0.1475  0.4201
59115SOL    HW186313  11.463   8.029   1.260  0.6257  0.9141  2.4909
59115SOL    HW286314  11.524   7.890   1.266 -0.7765  0.2502  1.8817
59116SOL     OW86315   5.726  11.941   3.039 -0.0943 -0.0460  0.1127
59116SOL    HW186316   5.701  12.012   2.980 -0.1637 -0.7676 -0.7603
59116SOL    HW286317   5.746  11.868   2.980 -1.7443 -1.3003  1.0410
59117SOL     OW86318   9.929   8.517   1.826  0.2053 -0.0967  0.0275
59117SOL    HW186319   9.901   8.607   1.813  2.3697  0.8850  1.4739
59117SOL    HW286320   9.851   8.464   1.808 -0.6399  1.8708 -2.7504
59118SOL     OW86321   3.485   4.053  12.574 -0.5214  0.2648 -0.9617
59118SOL    HW186322   3.515   4.088  12.658 -0.6988 -0.0237 -0.7755
59118SOL    HW286323   3.492   4.127  12.513  0.8826  0.1184 -1.0145
59119SOL     OW86324   1.994  11.541   9.774 -0.0946 -0.4507 -0.1871
59119SOL    HW186325   1.960  11.456   9.801 -0.4868 -0.9674 -2.1882
59119SOL    HW286326   1.951  11.603   9.833  0.3713 -1.6084  1.4610
59120SOL     OW86327   0.928   4.960   0.347 -0.5111 -0.3827 -0.2127
59120SOL    HW186328   0.911   4.995   0.260 -0.8804 -1.2943 -0.5165
59120SOL    HW286329   0.913   5.034   0.406  0.7658  0.5368 -0.9846
59121SOL     OW86330   8.440   0.721  10.092 -0.4779  0.2562 -0.2574
59121SOL    HW186331   8.480   0.746  10.009 -1.3424  0.6158 -0.5806
59121SOL    HW286332   8.383   0.795  10.114 -0.3005  0.1385  0.6327
59122SOL     OW86333   6.779  12.041   2.709 -0.5078  0.1175 -0.2399
59122SOL    HW186334   6.848  12.009   2.767 -1.4870 -0.0106  0.9040
59122SOL    HW286335   6.825  12.078   2.635  0.7708 -0.5500  0.1870
59123SOL     OW86336  10.198   4.088  11.774  1.0214  0.3733 -0.0055
59123SOL    HW186337  10.233   4.097  11.685  0.0153  0.8522 -0.3715
59123SOL    HW286338  10.237   4.007  11.807  1.0052 -0.0843 -1.0682
59124SOL     OW86339   0.135   8.697   2.860 -0.0381 -0.2747 -0.2614
59124SOL    HW186340   0.152   8.783   2.821  0.3321 -0.3657 -0.3028
59124SOL    HW286341   0.198   8.691   2.932 -0.3109 -0.3587 -0.0293
59125SOL     OW86342   8.042   2.765  10.096  0.4537  0.3320 -0.2804
59125SOL    HW186343   8.112   2.712  10.135 -0.6019 -0.7329  0.2431
59125SOL    HW286344   7.990   2.793  10.171 -0.1796  0.3697 -0.7329
59126SOL     OW86345   8.679   8.419   3.898  0.5909  0.3368  0.1125
59126SOL    HW186346   8.618   8.392   3.966 -0.0838 -2.5553 -1.4610
59126SOL    HW286347   8.766   8.398   3.933  0.1600 -3.2903 -0.5628
59127SOL     OW86348   1.496   7.066   3.185 -0.4941  0.0309  0.2506
59127SOL    HW186349   1.456   7.153   3.192 -1.5236 -0.0827 -2.8222
59127SOL    HW286350   1.444   7.020   3.119  1.5289 -2.0360 -0.0556
59128SOL     OW86351   6.550  11.878   2.632 -0.2470  0.3126 -0.3841
59128SOL    HW186352   6.602  11.921   2.699 -3.1528  3.7999 -0.0219
59128SOL    HW286353   6.572  11.924   2.551 -1.8322  1.1574 -0.3960
59129SOL     OW86354   7.638   8.005   3.620  0.0471  0.3020 -0.0234
59129SOL    HW186355   7.608   7.946   3.690 -0.8506  2.3139  1.3960
59129SOL    HW286356   7.582   7.985   3.546 -0.4494 -0.4273  0.5345
59130SOL     OW86357   0.782   7.087   1.025 -0.6446  0.0077  0.2033
59130SOL    HW186358   0.689   7.079   1.002 -0.5087 -1.0393 -0.0200
59130SOL    HW286359   0.815   7.156   0.967 -1.0442 -0.3699 -0.4936
59131SOL     OW86360  12.546   2.960   4.698 -0.2678 -0.5488 -0.2207
59131SOL    HW186361  12.498   2.882   4.673  0.4788 -1.5884  1.4072
59131SOL    HW286362  12.486   3.008   4.756  0.0710 -1.0821  0.5921
59132SOL     OW86363   5.184   4.617   6.673 -0.1498  0.1516 -0.2339
59132SOL    HW186364   5.151   4.547   6.616 -1.1213  0.6369 -0.2879
59132SOL    HW286365   5.167   4.698   6.624 -2.2090  0.6899  1.2719
59133SOL     OW86366   5.106  12.333   7.718  0.0488 -0.3379  0.5187
59133SOL    HW186367   5.014  12.335   7.745 -0.1677  1.6273 -0.1851
59133SOL    HW286368   5.155  12.333   7.800 -0.5883 -0.1559  0.9077
59134SOL     OW86369   2.609   1.082   5.795  0.3503  0.0758  0.7938
59134SOL    HW186370   2.608   0.992   5.761  1.5939 -1.1605  3.6461
59134SOL    HW286371   2.692   1.118   5.765 -1.0460  1.1948 -2.1596
59135SOL     OW86372   0.808  11.425   1.646  0.1259 -0.2130 -0.0448
59135SOL    HW186373   0.717  11.435   1.617  0.3929  1.1482 -0.4997
59135SOL    HW286374   0.819  11.490   1.715  0.9888  0.2970 -0.6293
59136SOL     OW86375   5.143   0.195  10.378  0.4783 -0.2685  0.5863
59136SOL    HW186376   5.238   0.200  10.379  0.6413 -0.8554 -2.2379
59136SOL    HW286377   5.123   0.102  10.388  0.3781 -0.4599 -1.0715
59137SOL     OW86378   7.176  10.749   1.714  0.0381 -0.2079  0.8632
59137SOL    HW186379   7.137  10.725   1.630  0.4890 -0.1080  0.6207
59137SOL    HW286380   7.165  10.844   1.718  0.4285 -0.1554  0.7046
59138SOL     OW86381  11.943   7.215  12.137 -0.5504 -0.4980 -0.1227
59138SOL    HW186382  11.978   7.129  12.116 -0.6074 -0.7454  0.7847
59138SOL    HW286383  11.856   7.215  12.097 -1.1964 -1.4742  1.2001
59139SOL     OW86384   6.767   5.546   4.209  0.5394  0.0312 -0.1589
59139SOL    HW186385   6.798   5.507   4.291 -1.4054 -0.5841  0.3441
59139SOL    HW286386   6.774   5.641   4.224 -0.4159 -0.0502  1.0280
59140SOL     OW86387  10.363   0.527   8.395 -0.0647 -0.7799 -0.1130
59140SOL    HW186388  10.344   0.462   8.327  2.2354 -1.8390  0.1374
59140SOL    HW286389  10.383   0.607   8.347 -1.4175 -0.6511 -0.5014
59141SOL     OW86390   1.465  12.297   6.411 -0.9860  0.2413 -0.1375
59141SOL    HW186391   1.435  12.383   6.380 -0.8781 -0.2636 -1.7124
59141SOL    HW286392   1.395  12.267   6.469 -1.5884  0.8862 -0.5105
59142SOL     OW86393   2.365   4.105   1.441  0.2471 -0.3859  0.0854
59142SOL    HW186394   2.320   4.021   1.429  1.4623 -0.6795 -3.2345
59142SOL    HW286395   2.418   4.116   1.363  1.1031  2.9481  0.9696
59143SOL     OW86396   0.793  12.147  11.093  0.1047 -0.7839  1.2349
59143SOL    HW186397   0.862  12.207  11.063 -1.9844 -0.4831 -4.0062
59143SOL    HW286398   0.829  12.060  11.079 -0.1405 -0.6276 -0.6224
59144SOL     OW86399   1.742   7.447  10.826  0.2429 -0.0478 -0.6592
59144SOL    HW186400   1.690   7.528  10.820  0.9153  0.6003  1.5269
59144SOL    HW286401   1.679   7.380  10.852  0.4384  0.7833  2.2202
59145SOL     OW86402  12.096   4.819   9.343  0.5043  0.6978  0.3659
59145SOL    HW186403  12.145   4.901   9.358  1.3312  0.5235 -1.1758
59145SOL    HW286404  12.148   4.773   9.277  0.3072 -1.3079  1.5440
59146SOL     OW86405  10.793   4.863  12.037 -0.7721  0.6636  0.3207
59146SOL    HW186406  10.888   4.853  12.045 -0.5866  2.2232  0.4558
59146SOL    HW286407  10.782   4.938  11.979 -1.9397  0.1837 -0.0957
59147SOL     OW86408   4.880  12.194  11.529 -0.4829 -0.2944 -0.1310
59147SOL    HW186409   4.892  12.275  11.478 -2.0509  0.4061  0.5411
59147SOL    HW286410   4.906  12.218  11.618 -0.0759 -0.8076 -0.1121
59148SOL     OW86411   1.346   4.367  10.153  0.2104  0.0785  0.3978
59148SOL    HW186412   1.370   4.428  10.224  0.8548  0.9190 -0.5157
59148SOL    HW286413   1.387   4.284  10.178 -1.4322 -0.3020  2.1266
59149SOL     OW86414  12.563  11.184   8.763  0.2013 -0.3196 -0.6380
59149SOL    HW186415  12.588  11.233   8.841 -1.8876  0.8493 -0.6450
59149SOL    HW286416  12.641  11.187   8.706  0.8952  0.9542  0.3487
59150SOL     OW86417   3.524  11.474  10.353  0.0222  0.1225  0.0227
59150SOL    HW186418   3.457  11.485  10.286 -0.7730  0.7264  0.8801
59150SOL    HW286419   3.582  11.406  10.319 -0.5489  0.1783 -1.1111
59151SOL     OW86420   1.636   0.182   6.141  0.4077  0.6694  0.1243
59151SOL    HW186421   1.567   0.177   6.075 -0.0366  2.4999  0.3904
59151SOL    HW286422   1.693   0.252   6.110  1.0234  0.5365  0.9317
59152SOL     OW86423   8.124   4.500   4.025  0.0332  0.2468  0.4103
59152SOL    HW186424   8.205   4.482   4.074  0.0014 -1.6161 -0.1527
59152SOL    HW286425   8.103   4.417   3.982 -3.0909  0.1638  1.8540
59153SOL     OW86426   6.663   0.861  11.539  0.0390 -0.0076  0.7095
59153SOL    HW186427   6.578   0.905  11.534 -0.1614 -0.3190  1.1976
59153SOL    HW286428   6.705   0.898  11.616  0.4116  0.2506  0.3833
59154SOL     OW86429  12.175   1.674  12.381  0.2068  0.2928 -0.2030
59154SOL    HW186430  12.122   1.753  12.395  0.2252  0.2240  0.2629
59154SOL    HW286431  12.213   1.686  12.294 -2.5793 -0.8022 -1.6872
59155SOL     OW86432   1.889   0.599   1.002  0.6170 -0.1649 -0.1483
59155SOL    HW186433   1.939   0.675   1.032 -0.7251  1.2291 -1.2316
59155SOL    HW286434   1.934   0.571   0.923 -0.6271  1.5887 -1.5802
59156SOL     OW86435  10.446  11.369   0.105  0.4692 -0.4663  0.3491
59156SOL    HW186436  10.450  11.457   0.143  0.3474 -0.7180  0.9568
59156SOL    HW286437  10.389  11.379   0.029 -0.8368 -0.3332  1.3127
59157SOL     OW86438  10.714   1.261   5.287  0.1117  0.0525 -0.4382
59157SOL    HW186439  10.745   1.190   5.231  2.4379  0.9396 -0.4111
59157SOL    HW286440  10.783   1.271   5.353 -1.7929  0.0739  1.7100
59158SOL     OW86441   8.217  10.638   9.482 -0.2780 -0.3057 -0.3356
59158SOL    HW186442   8.252  10.669   9.566 -0.1731  3.3142 -1.5417
59158SOL    HW286443   8.137  10.690   9.469 -0.0674 -0.4749 -2.6465
59159SOL     OW86444  10.257   3.664   0.900 -0.2346 -0.4725 -0.3380
59159SOL    HW186445  10.220   3.692   0.984  1.5691  0.1140  0.2858
59159SOL    HW286446  10.208   3.584   0.878  0.8268 -2.0422  2.4773
59160SOL     OW86447  11.851   5.831   3.721 -0.1443  0.2178 -0.5623
59160SOL    HW186448  11.902   5.750   3.733  0.7403  0.7968 -0.3510
59160SOL    HW286449  11.917   5.898   3.704 -0.7678  1.1695  0.6749
59161SOL     OW86450   7.552   1.203  11.027 -0.8421  0.5003  0.1841
59161SOL    HW186451   7.563   1.285  11.075  2.0973  0.3993 -0.1798
59161SOL    HW286452   7.554   1.228  10.935 -2.7018  0.2556  0.0244
59162SOL     OW86453   2.088   5.333   4.019 -0.8186  0.0454  0.0989
59162SOL    HW186454   2.154   5.304   4.082  0.4884 -0.2650 -1.3409
59162SOL    HW286455   2.066   5.422   4.047  0.4945  0.2943  0.4353
59163SOL     OW86456   2.157   8.668   5.344  0.5169  0.0294 -1.0709
59163SOL    HW186457   2.193   8.601   5.286 -0.8463  0.5603 -2.5730
59163SOL    HW286458   2.213   8.744   5.330  3.2547 -1.1500  1.9945
59164SOL     OW86459   1.087   4.595  11.301 -0.1453 -0.6984 -0.1670
59164SOL    HW186460   1.104   4.515  11.351  0.2191 -0.7920 -0.4334
59164SOL    HW286461   0.993   4.610  11.310 -0.2040 -1.1191 -0.0576
59165SOL     OW86462   7.396   6.538   6.700 -0.4460  0.5368  0.1055
59165SOL    HW186463   7.370   6.448   6.721  2.4432 -0.8469 -1.6173
59165SOL    HW286464   7.428   6.574   6.782  0.2855 -0.7860  0.4256
59166SOL     OW86465   7.778   7.865   5.593 -0.0120  0.4122 -0.7130
59166SOL    HW186466   7.789   7.814   5.512  2.1255 -0.6871  0.2046
59166SOL    HW286467   7.691   7.841   5.624  0.8794 -2.7747 -0.3249
59167SOL     OW86468   1.484   5.833   5.634 -0.7330  0.2795 -0.3493
59167SOL    HW186469   1.422   5.899   5.665  1.4351  2.4127 -0.2206
59167SOL    HW286470   1.513   5.789   5.713 -1.3396 -0.0533 -0.3054
59168SOL     OW86471  11.905  11.045   5.779 -0.2115 -0.6760  0.0604
59168SOL    HW186472  11.930  11.085   5.696  0.3849 -0.2959  0.4111
59168SOL    HW286473  11.853  10.968   5.754  0.1751 -0.7123 -0.6673
59169SOL     OW86474   5.546   9.393   3.346 -0.1222 -0.2900 -0.1314
59169SOL    HW186475   5.488   9.326   3.381  0.0297 -0.0166  0.6677
59169SOL    HW286476   5.500   9.475   3.361 -0.6522 -0.2533 -1.8047
59170SOL     OW86477   5.587   7.304   0.022 -0.0193  0.2078 -0.0515
59170SOL    HW186478   5.545   7.358  -0.045  0.6232  1.1724  0.2864
59170SOL    HW286479   5.652   7.363   0.062 -0.6846 -0.1773  1.7098
59171SOL     OW86480   2.356   2.907   2.000 -0.3798  0.4061 -0.0239
59171SOL    HW186481   2.388   2.976   1.941 -1.8327  0.7820 -0.4389
59171SOL    HW286482   2.363   2.827   1.949 -0.7253  0.5928 -0.3778
59172SOL     OW86483   7.682   6.464   6.684 -0.1984  0.1574  0.6523
59172SOL    HW186484   7.587   6.457   6.686 -0.2042 -0.2293 -0.2175
59172SOL    HW286485   7.701   6.508   6.601  0.4346 -1.3104 -0.0205
59173SOL     OW86486   5.540   5.775  10.112  0.2271  0.1314 -0.1284
59173SOL    HW186487   5.558   5.768  10.018  0.0788  0.2670 -0.1669
59173SOL    HW286488   5.450   5.807  10.117 -0.4161 -1.5884  0.0606
59174SOL     OW86489   3.215   3.693   7.634  0.6828  0.3821 -0.3898
59174SOL    HW186490   3.259   3.750   7.697  0.2307 -0.4556  0.7135
59174SOL    HW286491   3.283   3.631   7.607  0.3408 -0.6452  0.9916
59175SOL     OW86492   4.932  11.486   2.407 -0.4340 -0.1322  0.0694
59175SOL    HW186493   4.975  11.450   2.329  1.4491  0.9035  0.5657
59175SOL    HW286494   4.971  11.438   2.480 -1.7443 -0.6729  0.4450
59176SOL     OW86495  11.493   4.711   7.462  0.1553 -0.5202 -0.5122
59176SOL    HW186496  11.484   4.667   7.377  1.6111 -0.1183 -0.9059
59176SOL    HW286497  11.411   4.759   7.474  0.3847  0.3674 -2.2609
59177SOL     OW86498   6.347  11.000   7.635  0.1228 -0.3136  0.1765
59177SOL    HW186499   6.286  10.957   7.574  0.6422  0.6384 -1.0410
59177SOL    HW286500   6.318  11.091   7.637  1.2405  0.0574 -0.0902
59178SOL     OW86501   6.736   0.813   0.521  0.2969  0.0928  0.5679
59178SOL    HW186502   6.825   0.832   0.551  0.0661 -0.6576  1.7905
59178SOL    HW286503   6.720   0.722   0.548 -0.5589 -0.0476 -0.3406
59179SOL     OW86504   1.717   8.083   3.485  0.8728  0.5057 -0.0404
59179SOL    HW186505   1.797   8.132   3.503  0.9468  0.5541 -0.4908
59179SOL    HW286506   1.647   8.149   3.489  0.9573  0.6307 -0.5101
59180SOL     OW86507   5.427   1.251   2.067 -0.0714  0.6652 -0.7753
59180SOL    HW186508   5.456   1.162   2.085 -0.3539  0.5655 -0.8065
59180SOL    HW286509   5.492   1.286   2.007  1.3762  1.2823  1.0425
59181SOL     OW86510   9.821   0.570  11.756 -0.5172 -0.1357 -0.5122
59181SOL    HW186511   9.829   0.519  11.675  0.0201 -0.6460 -0.1487
59181SOL    HW286512   9.846   0.659  11.731  0.5321 -0.4770 -0.7190
59182SOL     OW86513   0.581   2.461   3.097 -0.3008  0.1850 -0.2495
59182SOL    HW186514   0.609   2.502   3.179 -0.5185 -0.6144  0.2370
59182SOL    HW286515   0.521   2.525   3.058 -0.2790  0.5295  0.2684
59183SOL     OW86516  10.723   6.741   5.375  0.4306  0.2642  0.0088
59183SOL    HW186517  10.783   6.809   5.345  0.9927 -1.0998 -2.2107
59183SOL    HW286518  10.772   6.693   5.442  0.1487  1.7661  1.3398
59184SOL     OW86519  10.298   6.440  11.267  0.4834 -0.1307  0.2417
59184SOL    HW186520  10.388   6.418  11.246  0.4543  0.4375 -0.5550
59184SOL    HW286521  10.251   6.357  11.266  0.5105 -0.1672 -1.9171
59185SOL     OW86522   5.587   3.577   4.584  0.0122 -0.1819  0.4181
59185SOL    HW186523   5.552   3.490   4.563  1.8504 -0.7840 -0.3352
59185SOL    HW286524   5.675   3.560   4.617  0.2763  1.3882  0.5989
59186SOL     OW86525   1.185   2.364   1.226 -0.6534  0.0301 -0.1362
59186SOL    HW186526   1.236   2.435   1.265  0.0135 -0.7348  0.4264
59186SOL    HW286527   1.102   2.364   1.275 -0.4926  0.1670  0.1399
59187SOL     OW86528   8.920   6.689   6.489  0.4502  0.4242 -0.2107
59187SOL    HW186529   9.010   6.721   6.497  0.6052 -0.3222  1.5034
59187SOL    HW286530   8.928   6.594   6.484 -0.1244  0.4327 -3.2079
59188SOL     OW86531   0.202   7.623   0.338  0.1116  1.3627 -0.3412
59188SOL    HW186532   0.236   7.671   0.264  0.5601  2.1823  0.3798
59188SOL    HW286533   0.143   7.684   0.382 -0.3335  0.8089 -0.1506
59189SOL     OW86534   5.146   6.405   0.925 -0.4423  0.3421  1.1249
59189SOL    HW186535   5.237   6.429   0.943 -0.4961  1.2495  0.2634
59189SOL    HW286536   5.125   6.339   0.990  1.2264 -0.7747  0.5895
59190SOL     OW86537   5.344   3.527   0.989 -0.2581 -0.3720 -0.9645
59190SOL    HW186538   5.253   3.508   1.013  0.0798  0.8680  1.6662
59190SOL    HW286539   5.394   3.457   1.031  0.4141  2.2506  3.1471
59191SOL     OW86540   1.196   9.861   8.166 -0.4370  0.7978 -0.3146
59191SOL    HW186541   1.256   9.892   8.098 -1.1589  1.2344 -0.7659
59191SOL    HW286542   1.115   9.842   8.119 -0.7912  0.6358  0.3550
59192SOL     OW86543   6.318   8.685   1.411  0.5511  0.0011  0.6527
59192SOL    HW186544   6.272   8.710   1.331 -0.3290 -2.4545  0.3172
59192SOL    HW286545   6.261   8.715   1.482  2.1229  3.7365  0.5696
59193SOL     OW86546   1.981   1.001   8.017 -0.7556  0.7071 -0.6436
59193SOL    HW186547   1.940   1.012   8.103 -0.0431  1.4211 -0.3812
59193SOL    HW286548   1.921   1.045   7.956 -0.6708  1.2516 -0.3418
59194SOL     OW86549   7.692   4.748   1.616 -0.3985 -0.1997  0.0973
59194SOL    HW186550   7.717   4.767   1.526 -0.1460 -1.1647 -0.0508
59194SOL    HW286551   7.635   4.671   1.610  0.8992 -1.2818  0.8663
59195SOL     OW86552   7.685  12.185   2.320  0.4847 -0.3490 -0.2141
59195SOL    HW186553   7.733  12.226   2.248  1.7153 -0.0790  0.7336
59195SOL    HW286554   7.748  12.181   2.392 -0.7309 -0.5594  0.8761
59196SOL     OW86555   2.018   5.764   5.477  0.2864 -0.3930  0.0144
59196SOL    HW186556   1.950   5.701   5.497 -0.1100  0.1183  0.3046
59196SOL    HW286557   1.989   5.806   5.396 -0.6144  0.9994  1.0134
59197SOL     OW86558   7.776  12.321  10.074  0.2429  0.1183  0.3402
59197SOL    HW186559   7.859  12.294  10.035  0.3923  0.0908  0.6728
59197SOL    HW286560   7.792  12.319  10.169  0.1201  0.9394  0.3837
59198SOL     OW86561  10.180   4.032   3.952  0.2370  0.4529 -0.1882
59198SOL    HW186562  10.138   3.955   3.913  0.0106  0.4643  0.0319
59198SOL    HW286563  10.108   4.082   3.990  0.5793 -0.2477  1.4652
59199SOL     OW86564  11.306   5.231   3.196  0.0074 -0.0882  0.1367
59199SOL    HW186565  11.361   5.286   3.140 -1.3908  0.3886 -0.8529
59199SOL    HW286566  11.272   5.291   3.262  0.0418 -0.1989  0.2545
59200SOL     OW86567   6.862   8.406  11.200  0.1875  0.2194 -0.4311
59200SOL    HW186568   6.878   8.314  11.220 -0.1700  0.3527  0.5086
59200SOL    HW286569   6.875   8.452  11.283  0.9469  1.1052 -1.0174
59201SOL     OW86570   3.284   0.433   2.606  0.3279 -0.5904 -0.0204
59201SOL    HW186571   3.379   0.419   2.604  0.8918  2.3836  0.8671
59201SOL    HW286572   3.273   0.528   2.599 -2.5931 -0.8053  0.2259
59202SOL     OW86573   6.160   0.172  12.114  0.3320  0.2165  0.4553
59202SOL    HW186574   6.151   0.267  12.112  1.2496  0.3125  0.3068
59202SOL    HW286575   6.088   0.142  12.170  0.0348  0.9935  0.5028
59203SOL     OW86576  10.996   3.695  10.804 -0.0083 -0.0420  0.2422
59203SOL    HW186577  10.931   3.765  10.809  0.2789  0.4040 -1.7508
59203SOL    HW286578  11.065   3.722  10.864 -0.6303  0.5533  0.7167
59204SOL     OW86579   7.153   6.149   9.641  0.5063 -0.1127 -0.1765
59204SOL    HW186580   7.069   6.184   9.669  0.5040 -0.4442  0.2500
59204SOL    HW286581   7.186   6.102   9.718  3.2321  3.7763  1.3793
59205SOL     OW86582   7.430   4.732   0.876  0.1365 -0.5537  0.1870
59205SOL    HW186583   7.399   4.722   0.966 -0.7483  0.1142 -0.0292
59205SOL    HW286584   7.376   4.802   0.839  1.9639  0.7344 -0.1954
59206SOL     OW86585   0.479   2.695   5.749  0.3314  0.3091 -0.0806
59206SOL    HW186586   0.481   2.626   5.815  0.5099 -0.8488 -1.2537
59206SOL    HW286587   0.566   2.733   5.751  0.3459  0.2511  0.3275
59207SOL     OW86588   1.157   3.313   1.490  0.4513  0.0558  0.0526
59207SOL    HW186589   1.183   3.291   1.579  1.6288 -0.6803 -0.4562
59207SOL    HW286590   1.179   3.236   1.438  0.7157  0.8423 -1.0454
59208SOL     OW86591   9.550   6.651  11.689  0.7543 -0.3583 -0.1066
59208SOL    HW186592   9.612   6.628  11.619 -0.7925 -2.7387 -0.8086
59208SOL    HW286593   9.597   6.631  11.770  1.7504  0.2316 -0.5165
59209SOL     OW86594   8.593  11.117  12.476  0.1609  0.0014 -0.5341
59209SOL    HW186595   8.568  11.176  12.405  1.1086  2.3660  1.0074
59209SOL    HW286596   8.684  11.138  12.495  0.8394 -2.6027 -0.4525
59210SOL     OW86597   9.619   0.586   9.463 -0.2639 -0.3066  0.5339
59210SOL    HW186598   9.703   0.563   9.424 -0.8348  0.1658 -1.1014
59210SOL    HW286599   9.573   0.503   9.472 -0.9102 -0.3074 -1.8804
59211SOL     OW86600   5.697  12.372   4.780 -0.1623  0.1429  0.2033
59211SOL    HW186601   5.789  12.356   4.801 -0.3570 -0.7500  0.4063
59211SOL    HW286602   5.686  12.336   4.692  0.2826  2.5392 -0.9303
59212SOL     OW86603   0.819   4.810  10.999  0.5003  0.3092  0.2945
59212SOL    HW186604   0.879   4.830  10.928 -0.0117 -0.9126 -0.5140
59212SOL    HW286605   0.821   4.714  11.006 -0.2302  0.3490  1.2426
59213SOL     OW86606   9.659   6.076  11.417 -0.7018 -0.1800  0.5211
59213SOL    HW186607   9.616   6.093  11.333  0.0557 -0.5811  0.0413
59213SOL    HW286608   9.589   6.082  11.482 -1.6065 -1.4622 -0.3137
59214SOL     OW86609   2.091  10.116   5.004  0.1812 -0.1187  0.6392
59214SOL    HW186610   2.129  10.194   5.045 -0.5267 -0.2516  1.5917
59214SOL    HW286611   2.148  10.097   4.930  0.2362  1.4379  0.2542
59215SOL     OW86612   4.901   4.977   7.946  0.5082 -0.2734 -0.6248
59215SOL    HW186613   4.901   4.983   8.041 -0.2725  0.5084 -0.6642
59215SOL    HW286614   4.816   4.939   7.924 -0.1499  1.4016 -1.0951
59216SOL     OW86615   5.026   2.766   2.509 -0.1189  0.7725  0.2296
59216SOL    HW186616   5.021   2.848   2.460  2.6071 -0.0345 -1.6413
59216SOL    HW286617   4.943   2.722   2.493 -0.2979  1.7057 -1.5762
59217SOL     OW86618   7.660   9.218   3.747  0.1528 -0.6291  0.1334
59217SOL    HW186619   7.660   9.206   3.652 -1.6272  0.2728 -0.0232
59217SOL    HW286620   7.580   9.175   3.777  0.2660 -0.1955  1.1212
59218SOL     OW86621   4.166   5.908   7.019  0.3825 -0.3285 -0.0195
59218SOL    HW186622   4.114   5.935   7.094  0.4747  0.5743 -0.2709
59218SOL    HW286623   4.250   5.880   7.056  1.8538  3.5493  0.0549
59219SOL     OW86624   7.679   0.729  11.249 -0.4167 -0.2142 -0.2390
59219SOL    HW186625   7.708   0.799  11.191  0.6209 -0.1187  0.3721
59219SOL    HW286626   7.588   0.750  11.269 -0.5678  0.1392 -1.2404
59220SOL     OW86627   7.711   4.809   5.734  0.0176  0.1991  0.0514
59220SOL    HW186628   7.768   4.884   5.748  1.0380 -0.7676  1.4161
59220SOL    HW286629   7.757   4.756   5.668 -0.3567  0.4210 -0.3950
59221SOL     OW86630   9.035  10.860   3.473 -0.8539  0.5108 -0.3752
59221SOL    HW186631   8.955  10.874   3.524 -1.0983 -0.9427 -0.2984
59221SOL    HW286632   9.007  10.805   3.400  0.2353 -0.9963  0.2764
59222SOL     OW86633  10.500  11.404   3.424  0.3979 -0.3872 -0.0274
59222SOL    HW186634  10.482  11.387   3.332  2.9730 -1.0170 -0.4860
59222SOL    HW286635  10.556  11.482   3.424 -0.3450  0.1826  1.0949
59223SOL     OW86636  10.924   2.378   0.107  0.0592  0.2278  0.3894
59223SOL    HW186637  10.954   2.454   0.058  1.5799  0.3848  1.4928
59223SOL    HW286638  10.850   2.410   0.159  0.8978  1.0587  1.0945
59224SOL     OW86639   3.191   9.005   9.276  0.3942 -0.2943 -0.2916
59224SOL    HW186640   3.120   8.943   9.293 -1.0206  0.8283 -1.8510
59224SOL    HW286641   3.198   9.055   9.358 -1.2767  0.1863 -0.3992
59225SOL     OW86642   5.315   2.896   6.256 -0.2422 -0.6620  0.6672
59225SOL    HW186643   5.357   2.976   6.286 -3.0877  0.2448  2.5916
59225SOL    HW286644   5.350   2.827   6.312  3.5557 -1.3239 -2.1139
59226SOL     OW86645   4.738   4.286  11.262  0.4083 -0.5818 -0.5724
59226SOL    HW186646   4.762   4.351  11.328 -0.6734 -0.4517 -0.2842
59226SOL    HW286647   4.805   4.295  11.194  1.0026 -0.0643  0.0632
59227SOL     OW86648   3.382   5.172   5.238 -0.1481  0.3799  0.5030
59227SOL    HW186649   3.349   5.117   5.308 -1.5659 -0.7093 -0.9423
59227SOL    HW286650   3.398   5.112   5.165  2.1199  1.3352  0.1136
59228SOL     OW86651   4.758   9.224   0.273 -0.0028 -0.1465 -0.2016
59228SOL    HW186652   4.828   9.172   0.234  0.4919  1.9132 -2.2411
59228SOL    HW286653   4.785   9.315   0.259 -1.6050  0.7043  1.7872
59229SOL     OW86654   6.311   2.464  11.992 -0.0584 -0.1105  0.2545
59229SOL    HW186655   6.241   2.401  11.978 -0.5873  0.5565 -0.1373
59229SOL    HW286656   6.368   2.422  12.056 -1.0536 -0.4770  0.9315
59230SOL     OW86657   4.494   6.972   5.104 -0.2224 -0.5878 -0.1711
59230SOL    HW186658   4.552   6.906   5.144  1.3756  0.0270 -1.3640
59230SOL    HW286659   4.480   7.036   5.173 -0.9244 -1.6138  0.6755
59231SOL     OW86660   8.910  10.053   6.100 -0.0323  0.0216 -0.9209
59231SOL    HW186661   8.982  10.034   6.161 -1.2779  0.5763  0.8271
59231SOL    HW286662   8.869   9.968   6.084 -1.0899  0.1023  0.9520
59232SOL     OW86663   2.397   2.463   3.818  0.6881  0.3739  0.5347
59232SOL    HW186664   2.437   2.448   3.904  1.9426 -1.6872 -0.3413
59232SOL    HW286665   2.359   2.379   3.794 -0.2966  1.1168 -0.6380
59233SOL     OW86666   3.125   7.537   6.626  0.5721  0.6640  0.3634
59233SOL    HW186667   3.194   7.598   6.598  1.9811 -0.2648  1.6643
59233SOL    HW286668   3.120   7.473   6.555  1.5492  0.3615  0.5530
59234SOL     OW86669  11.708  12.160   6.943 -0.6051 -0.5905 -0.2008
59234SOL    HW186670  11.626  12.190   6.903  0.3121  2.0531 -0.3146
59234SOL    HW286671  11.691  12.070   6.969 -3.1103 -0.5359 -1.3883
59235SOL     OW86672   6.050  12.233   1.530 -0.6491 -0.2426  0.2031
59235SOL    HW186673   6.018  12.259   1.617 -2.1413 -0.8565 -0.1148
59235SOL    HW286674   6.082  12.144   1.542  1.3236  0.4644  0.5779
59236SOL     OW86675  10.913   2.320   4.694 -0.1031  0.3435  0.0655
59236SOL    HW186676  10.860   2.399   4.684 -0.5871 -0.1021 -1.1038
59236SOL    HW286677  10.851   2.248   4.680  0.7685 -0.1880 -1.2773
59237SOL     OW86678   9.365  11.180  11.214 -0.2241 -0.6565 -0.3386
59237SOL    HW186679   9.299  11.135  11.162 -0.7639 -1.5333  1.0596
59237SOL    HW286680   9.441  11.123  11.213  0.0415 -0.3049 -0.7913
59238SOL     OW86681   7.515  11.898   7.107 -0.4523 -0.0252  0.5575
59238SOL    HW186682   7.467  11.981   7.102 -0.0811  0.2544  1.4131
59238SOL    HW286683   7.607  11.924   7.104 -0.3221 -0.3367  1.5045
59239SOL     OW86684  11.783   3.075  10.840 -0.5533 -0.4548  0.1769
59239SOL    HW186685  11.695   3.045  10.861 -1.5600  0.9559 -1.7155
59239SOL    HW286686  11.821   3.006  10.786 -1.8490  0.3901 -1.9095
59240SOL     OW86687  10.768  11.589   7.253  0.1737  0.3736  0.2469
59240SOL    HW186688  10.794  11.670   7.209 -0.5629  0.5680  0.1610
59240SOL    HW286689  10.839  11.527   7.232  0.3495  0.7640 -0.3425
59241SOL     OW86690  11.015  11.604  12.047 -0.0367  0.4060  0.0381
59241SOL    HW186691  10.976  11.598  12.134  0.0319 -3.0442 -0.0305
59241SOL    HW286692  10.947  11.573  11.987  0.8672 -0.1336 -0.7533
59242SOL     OW86693   8.963  11.529  11.302 -0.4478  0.2684  0.3546
59242SOL    HW186694   9.054  11.513  11.324  0.3917 -0.8274 -3.1837
59242SOL    HW286695   8.956  11.624  11.295  0.7554  0.3341 -0.2892
59243SOL     OW86696   4.453   9.919   0.683  0.1380 -0.4530 -0.3532
59243SOL    HW186697   4.418   9.830   0.688 -0.4698 -0.2048 -0.0671
59243SOL    HW286698   4.390   9.967   0.629 -1.4475  0.6672  2.2873
59244SOL     OW86699   4.137   4.683  11.560 -0.3958 -0.3342 -0.0147
59244SOL    HW186700   4.064   4.655  11.615 -0.2781  0.3745  0.5133
59244SOL    HW286701   4.101   4.682  11.471 -0.9314 -0.3730  0.1952
59245SOL     OW86702   0.748   0.760  11.660  0.1688 -0.3167  0.1444
59245SOL    HW186703   0.752   0.706  11.580  0.9705 -0.7782  0.4910
59245SOL    HW286704   0.831   0.807  11.662 -0.1763  0.2953  0.3020
59246SOL     OW86705   7.474   6.720   1.274  0.3331  0.2575  0.2548
59246SOL    HW186706   7.511   6.634   1.257 -0.1853 -0.5357  2.8011
59246SOL    HW286707   7.549   6.780   1.266  0.8501 -0.4819 -0.7438
59247SOL     OW86708   8.958   4.138   0.598  0.3147  0.1362  0.4900
59247SOL    HW186709   8.910   4.065   0.639  0.8249  0.5889  1.9668
59247SOL    HW286710   8.971   4.111   0.508 -2.8419  0.0324 -0.0561
59248SOL     OW86711   9.661   0.421   1.676 -0.2341 -0.1274  0.2217
59248SOL    HW186712   9.662   0.370   1.594  3.5454  0.6750 -0.4581
59248SOL    HW286713   9.638   0.509   1.650 -0.9074 -0.2594  0.3643
59249SOL     OW86714   7.581  10.495  10.821  0.0759 -0.0411  0.1871
59249SOL    HW186715   7.601  10.543  10.901 -0.7099  0.1917  0.2504
59249SOL    HW286716   7.643  10.421  10.820  1.1939  0.8741  0.1627
59250SOL     OW86717   7.268   7.033  12.215  0.4159 -0.3703 -0.4070
59250SOL    HW186718   7.177   7.050  12.191  0.7025 -0.4940 -1.6590
59250SOL    HW286719   7.264   6.954  12.268 -0.1752 -0.6578 -0.8600
59251SOL     OW86720   1.699  12.273  10.609 -0.0720  0.0183 -0.4408
59251SOL    HW186721   1.612  12.258  10.570  0.3985 -0.0392 -1.5117
59251SOL    HW286722   1.709  12.204  10.674  0.0503 -1.3464 -1.8483
59252SOL     OW86723   5.938   0.315   9.306 -0.3479 -0.2374  0.2389
59252SOL    HW186724   5.918   0.409   9.310 -1.7532 -0.5482  1.3876
59252SOL    HW286725   5.899   0.279   9.385 -0.2767 -1.8909 -0.4429
59253SOL     OW86726  10.914   3.120   4.698 -0.7943  0.1768  0.6029
59253SOL    HW186727  10.943   3.062   4.628  0.3639  0.1828  1.0605
59253SOL    HW286728  10.824   3.143   4.674  0.1347  1.6135 -1.8483
59254SOL     OW86729   3.231   8.313   2.735  0.2821  0.1928 -0.2673
59254SOL    HW186730   3.143   8.274   2.741  0.2401  0.5332  2.6077
59254SOL    HW286731   3.249   8.315   2.641 -1.6843 -2.2983 -0.8213
59255SOL     OW86732  11.436   7.010   3.047  0.0490 -0.3480 -0.1574
59255SOL    HW186733  11.357   7.016   2.994  0.0167 -0.1074 -0.0824
59255SOL    HW286734  11.486   6.938   3.008  0.8589  0.9657 -1.6219
59256SOL     OW86735   4.982   1.101   7.406 -0.4277  0.4192  0.4000
59256SOL    HW186736   5.035   1.064   7.477  0.8902 -0.6011 -1.0380
59256SOL    HW286737   4.900   1.052   7.410  0.5813 -1.4438 -0.2769
59257SOL     OW86738   7.188  12.433   3.622 -0.2246 -0.5762 -0.1585
59257SOL    HW186739   7.096  12.454   3.635 -0.3377  0.3590 -2.0861
59257SOL    HW286740   7.202  12.442   3.528  1.8607 -0.5738  0.0872
59258SOL     OW86741   3.843  11.228  12.508 -1.0130 -0.4205 -0.0962
59258SOL    HW186742   3.821  11.139  12.481  0.2407 -1.3485  1.7482
59258SOL    HW286743   3.869  11.272  12.427 -0.5356 -2.0746 -0.8695
59259SOL     OW86744   8.285   5.980   0.697 -0.0436  0.0403  0.1654
59259SOL    HW186745   8.199   6.020   0.688  0.5909  1.0028 -2.4634
59259SOL    HW286746   8.335   6.043   0.750 -0.6780 -0.0825  0.9175
59260SOL     OW86747  10.326   9.280   6.563  0.6691 -0.0075 -0.1007
59260SOL    HW186748  10.281   9.349   6.515  0.5605 -0.6732 -0.9687
59260SOL    HW286749  10.417   9.310   6.570  0.8525 -0.2299 -1.3711
59261SOL     OW86750  11.615   3.240   7.077 -0.3851  0.1493  0.3084
59261SOL    HW186751  11.695   3.294   7.076 -0.3984  0.1728 -1.0453
59261SOL    HW286752  11.545   3.302   7.057 -0.5460 -0.1503 -0.0592
59262SOL     OW86753   7.170  10.193   1.560  0.4410 -0.0811 -0.1195
59262SOL    HW186754   7.092  10.204   1.614 -0.4949  0.3119 -1.4953
59262SOL    HW286755   7.224  10.270   1.579 -0.0098  0.2007  0.0231
59263SOL     OW86756   1.231   4.526   9.195 -0.4201 -0.0378 -0.0069
59263SOL    HW186757   1.305   4.528   9.256 -0.1286 -0.5323 -0.3475
59263SOL    HW286758   1.246   4.450   9.140 -0.2602  0.8379 -1.2264
59264SOL     OW86759  12.439   2.689   2.257  0.7303  0.1694 -0.2822
59264SOL    HW186760  12.465   2.739   2.180 -0.7879  0.2278 -0.7952
59264SOL    HW286761  12.348   2.714   2.272  0.1006 -1.9696 -0.2057
59265SOL     OW86762  10.902  12.522  11.903  0.3572  0.1265 -0.2478
59265SOL    HW186763  10.860  12.443  11.938 -0.1133  1.3841  2.2756
59265SOL    HW286764  10.994  12.514  11.931  0.3773  0.3145 -0.2625
59266SOL     OW86765  11.056   0.861   3.585 -0.2378 -0.1315 -0.7338
59266SOL    HW186766  10.984   0.824   3.637  0.7510 -1.1476 -0.0415
59266SOL    HW286767  11.078   0.942   3.631 -1.4845  0.6467 -1.4487
59267SOL     OW86768  12.496  11.629   6.241  0.1548  0.1870 -1.0060
59267SOL    HW186769  12.485  11.618   6.146  1.0608  1.1473 -1.2380
59267SOL    HW286770  12.446  11.709   6.261 -1.3024 -0.8306 -0.3868
59268SOL     OW86771   1.928   2.882   6.738  0.0460  0.0712  0.6574
59268SOL    HW186772   1.857   2.927   6.785 -0.8529  0.7995 -1.3154
59268SOL    HW286773   1.988   2.952   6.713  1.0807 -0.4476  1.6000
59269SOL     OW86774   0.050   2.929   2.272 -0.0297  0.3210  0.1686
59269SOL    HW186775   0.061   2.892   2.185 -0.6441  0.1972  0.1446
59269SOL    HW286776  -0.032   2.977   2.268 -0.2046  0.0815  0.7642
59270SOL     OW86777   6.021  11.270   2.531  0.4330  0.1232 -0.1503
59270SOL    HW186778   6.070  11.219   2.596  0.3566  0.2968  0.0444
59270SOL    HW286779   5.930  11.262   2.560 -0.0774 -2.5951 -2.0746
59271SOL     OW86780   2.809   5.713  10.330 -0.2828  0.3125  0.0403
59271SOL    HW186781   2.737   5.747  10.382 -0.6643 -1.7812  1.0116
59271SOL    HW286782   2.814   5.770  10.254 -2.6576  0.8036  0.1934
59272SOL     OW86783   9.275   6.626   4.748 -0.1363  0.3434  0.0643
59272SOL    HW186784   9.246   6.703   4.699  0.2319  1.0728  0.9733
59272SOL    HW286785   9.335   6.660   4.814 -0.6854 -0.6032  1.0938
59273SOL     OW86786  12.223  11.588   1.281 -0.5421 -0.6303 -0.1877
59273SOL    HW186787  12.262  11.637   1.208 -1.4595 -0.1619 -0.3881
59273SOL    HW286788  12.146  11.546   1.243 -0.7224 -0.8269  0.3855
59274SOL     OW86789   1.998   5.253   0.450  0.0195 -0.1355 -0.3459
59274SOL    HW186790   2.080   5.210   0.476  0.9242 -0.1057 -2.8957
59274SOL    HW286791   1.935   5.181   0.447  0.4742 -0.5413 -0.4497
59275SOL     OW86792  10.832   4.908   3.020 -0.0425  0.4067  0.1898
59275SOL    HW186793  10.817   4.932   3.111 -0.0119 -1.1707  0.6353
59275SOL    HW286794  10.911   4.955   2.995  0.3715  0.2732  1.2136
59276SOL     OW86795   4.564   3.144   4.247 -0.0055  0.7110 -0.3225
59276SOL    HW186796   4.629   3.079   4.275  0.0040  1.8134  2.4878
59276SOL    HW286797   4.483   3.094   4.239  0.5896 -0.1657 -1.1442
59277SOL     OW86798  12.152   2.945   4.680  0.2224 -0.1745 -0.4328
59277SOL    HW186799  12.161   3.021   4.622  2.0171  0.7121  0.8921
59277SOL    HW286800  12.204   2.968   4.758  1.1223 -2.8958 -0.1196
59278SOL     OW86801   0.505   9.723   7.764  0.1455  0.4810  0.3031
59278SOL    HW186802   0.501   9.806   7.810  0.5146  1.1441 -0.8151
59278SOL    HW286803   0.563   9.740   7.690  1.9942 -1.3733  1.2352
59279SOL     OW86804   0.643   4.070   5.286  0.1153  0.2989  0.1279
59279SOL    HW186805   0.640   4.055   5.381  0.3494 -2.4634 -0.2008
59279SOL    HW286806   0.705   4.142   5.275 -0.1040  0.8409  2.0715
59280SOL     OW86807   3.645  11.063   0.230 -0.1664  0.1565  0.2501
59280SOL    HW186808   3.635  10.995   0.296 -0.2502  0.0951  0.1742
59280SOL    HW286809   3.582  11.040   0.162 -1.0092  0.9376  0.7470
59281SOL     OW86810  10.792   0.300  11.369  0.0633  0.5506 -0.5272
59281SOL    HW186811  10.883   0.295  11.399  0.3199  2.3264 -0.9274
59281SOL    HW286812  10.772   0.212  11.337 -0.1721 -1.6182  4.5311
59282SOL     OW86813  11.620   8.917   9.769  0.3260 -0.5244  0.5385
59282SOL    HW186814  11.536   8.875   9.788 -0.1837  0.3292  0.2120
59282SOL    HW286815  11.657   8.937   9.856 -0.2950  0.0320  0.6820
59283SOL     OW86816   5.272  11.199   2.894  0.4146  0.0319  0.4509
59283SOL    HW186817   5.354  11.156   2.917  0.8329  0.0534 -0.8759
59283SOL    HW286818   5.208  11.167   2.957  0.9774 -1.6378  0.2175
59284SOL     OW86819  10.467  10.761   7.177  0.2109  0.8898 -0.0583
59284SOL    HW186820  10.527  10.723   7.113 -0.2330 -1.3482  0.7251
59284SOL    HW286821  10.422  10.685   7.215  0.1335  2.1277  2.5758
59285SOL     OW86822   1.804   9.905   4.444  0.2750  0.3637 -0.0932
59285SOL    HW186823   1.711   9.919   4.462 -0.0912  0.2382 -1.7525
59285SOL    HW286824   1.848   9.930   4.525 -1.0771  1.9589  0.2006
59286SOL     OW86825   9.872   9.534   9.551 -0.0799  0.4784  0.2439
59286SOL    HW186826   9.896   9.442   9.567  1.0471  0.9684  1.5928
59286SOL    HW286827   9.955   9.576   9.526 -0.4832  1.2410  0.1790
59287SOL     OW86828   9.249   2.714   2.453 -0.0960 -0.1214  0.5949
59287SOL    HW186829   9.338   2.681   2.450  0.7285  2.0137 -0.0682
59287SOL    HW286830   9.233   2.749   2.365 -1.6358 -0.5430  0.6672
59288SOL     OW86831   1.032   5.537   4.013 -0.1083 -0.4415 -0.1286
59288SOL    HW186832   0.946   5.568   3.985 -0.4870 -0.0528  1.3479
59288SOL    HW286833   1.078   5.617   4.039  0.2797 -0.7588  0.1660
59289SOL     OW86834   8.527   0.664   5.054  0.1960 -0.4954 -0.1809
59289SOL    HW186835   8.594   0.667   4.986  0.4073  0.5100  0.0588
59289SOL    HW286836   8.453   0.621   5.012  0.4431 -0.1990 -0.9474
59290SOL     OW86837  11.660  11.862   7.223  0.6318 -0.6435  1.2726
59290SOL    HW186838  11.607  11.798   7.269 -1.1788  1.1307  1.7721
59290SOL    HW286839  11.598  11.929   7.194  2.2071  0.0776 -0.6817
59291SOL     OW86840   2.106   3.656   5.508  0.1553 -0.1741 -0.0916
59291SOL    HW186841   2.183   3.633   5.456  1.3001  0.7274  1.1383
59291SOL    HW286842   2.095   3.750   5.494 -0.7261 -0.2924 -0.2376
59292SOL     OW86843   3.722  10.538   1.108 -0.7725  0.5633  0.5869
59292SOL    HW186844   3.805  10.582   1.088 -1.0741  0.1265 -1.9706
59292SOL    HW286845   3.717  10.539   1.204  1.8866  1.1233  0.8063
59293SOL     OW86846  12.495  11.266   5.553 -0.8578 -0.4793  0.0493
59293SOL    HW186847  12.526  11.336   5.610 -0.3048  1.4742 -2.4360
59293SOL    HW286848  12.467  11.197   5.612 -0.0983  1.2686  2.6235
59294SOL     OW86849  11.360   1.531   6.871 -0.1911  0.2518  0.3367
59294SOL    HW186850  11.274   1.490   6.862  0.8662 -1.8447 -1.1676
59294SOL    HW286851  11.390   1.503   6.958 -0.2850 -0.6189  0.1048
59295SOL     OW86852   6.614   0.362   9.791 -0.2873  0.0814 -0.7544
59295SOL    HW186853   6.707   0.382   9.781 -0.0942 -1.0854 -1.5005
59295SOL    HW286854   6.592   0.393   9.879  0.9776 -0.2763 -0.2911
59296SOL     OW86855   5.873   4.864  11.147 -0.2383 -0.2568  0.5679
59296SOL    HW186856   5.848   4.913  11.069  0.6501 -0.9127 -0.1621
59296SOL    HW286857   5.923   4.926  11.200  3.2939 -0.9502 -1.6127
59297SOL     OW86858   8.364   6.070  12.060 -0.0479 -0.7691 -0.0509
59297SOL    HW186859   8.406   6.006  12.003  1.5839  0.5710 -0.4107
59297SOL    HW286860   8.349   6.146  12.004  1.7368  0.6321  1.2553
59298SOL     OW86861   4.133   5.896  11.644  0.0581  0.4706 -0.3027
59298SOL    HW186862   4.054   5.926  11.689 -0.7123 -0.7417 -0.7812
59298SOL    HW286863   4.141   5.952  11.567 -0.2023  0.7539 -0.1233
59299SOL     OW86864  10.553   9.333   7.284 -0.4444 -0.0147  0.4675
59299SOL    HW186865  10.482   9.269   7.282  0.3910 -0.9626  0.5394
59299SOL    HW286866  10.612   9.305   7.214 -0.8617  1.6381 -0.6159
59300SOL     OW86867  10.002   7.596  10.892  0.4572 -0.6725  0.0063
59300SOL    HW186868   9.935   7.637  10.947  1.8931  0.2634  1.1481
59300SOL    HW286869  10.084   7.611  10.939  1.5069 -1.6534 -1.4100
59301SOL     OW86870  10.775   3.469  10.014 -0.3328 -0.1916  0.4312
59301SOL    HW186871  10.800   3.390  10.061 -2.2249 -0.9363  0.2622
59301SOL    HW286872  10.812   3.541  10.066  0.6837 -1.1283  1.0486
59302SOL     OW86873  11.501   9.265   3.042  0.7740 -0.0033 -0.0792
59302SOL    HW186874  11.493   9.267   2.946  1.4316  0.0090 -0.1376
59302SOL    HW286875  11.595   9.264   3.058  0.7605  2.9822  0.6487
59303SOL     OW86876   3.059   2.179  12.115  0.3867  0.7024  0.4219
59303SOL    HW186877   3.032   2.121  12.044  1.1695 -1.2033  1.6005
59303SOL    HW286878   3.000   2.254  12.109 -1.2101 -0.5797 -0.6784
59304SOL     OW86879   8.068   0.798  11.153  0.2556 -0.2714  0.8644
59304SOL    HW186880   8.067   0.721  11.097  0.7801 -1.3153  2.2374
59304SOL    HW286881   8.140   0.852  11.119 -0.1687 -0.3174 -0.1551
59305SOL     OW86882   6.130   0.718   8.050  0.3478 -0.1076  0.0028
59305SOL    HW186883   6.118   0.628   8.080 -1.2197 -0.4385 -1.4222
59305SOL    HW286884   6.216   0.718   8.008 -0.2398 -1.3885 -1.2999
59306SOL     OW86885  11.080   2.593  11.303  0.3312  0.4967 -0.3689
59306SOL    HW186886  11.103   2.539  11.378 -0.0211  0.7900 -0.0436
59306SOL    HW286887  10.985   2.604  11.310  0.2804  0.4381 -0.9171
59307SOL     OW86888   1.017   2.668   1.644 -0.2989  0.1719  0.0608
59307SOL    HW186889   1.054   2.753   1.669 -0.7230 -0.5098  3.5988
59307SOL    HW286890   0.923   2.682   1.646 -0.3499 -0.0574 -0.7330
59308SOL     OW86891   8.706   4.085   6.559  0.4742  0.8175 -0.1922
59308SOL    HW186892   8.720   4.166   6.608 -0.3879  0.8576  0.0021
59308SOL    HW286893   8.682   4.114   6.471  0.7256  0.7602 -0.2810
59309SOL     OW86894   8.563   7.556  10.882 -0.2287  0.5934 -0.1616
59309SOL    HW186895   8.495   7.601  10.931 -0.4402  1.1779 -0.9696
59309SOL    HW286896   8.645   7.586  10.923 -0.4454 -1.6049  2.0872
59310SOL     OW86897   4.325   8.241   8.468 -0.2661 -0.6091 -0.2217
59310SOL    HW186898   4.352   8.158   8.429 -1.0750 -1.3151  0.6821
59310SOL    HW286899   4.402   8.272   8.514  0.4908 -0.1088 -1.7420
59311SOL     OW86900   8.402   6.321   8.215  0.6368  0.2778  0.3985
59311SOL    HW186901   8.479   6.354   8.261  0.3959  4.1268 -1.4874
59311SOL    HW286902   8.330   6.333   8.278  1.2063 -1.3802  1.4308
59312SOL     OW86903  11.440   8.840  12.400  0.4173 -0.2822  0.2863
59312SOL    HW186904  11.361   8.873  12.358  0.5418 -1.5604 -1.0365
59312SOL    HW286905  11.444   8.748  12.374  2.5565 -0.1603 -0.0157
59313SOL     OW86906  11.674   1.650   3.187  0.0618 -0.3571 -0.2827
59313SOL    HW186907  11.723   1.574   3.220  3.9263  1.8217 -0.3775
59313SOL    HW286908  11.686   1.646   3.092 -1.9107 -0.8860 -0.5574
59314SOL     OW86909  12.564   4.583   6.896  0.4088  0.3095 -0.5419
59314SOL    HW186910  12.567   4.675   6.868  0.9556  0.3932 -0.2318
59314SOL    HW286911  12.511   4.584   6.976  2.1233  0.7001  0.6484
59315SOL     OW86912   5.001   8.535   6.361  0.2447  0.3850  0.2013
59315SOL    HW186913   4.969   8.618   6.397  0.0350  1.2803 -1.9143
59315SOL    HW286914   4.948   8.522   6.282  0.0880 -1.9267  0.6252
59316SOL     OW86915  11.883   3.417  12.205 -0.1562  0.2498  0.0712
59316SOL    HW186916  11.943   3.353  12.167 -1.0134 -0.3990 -0.2169
59316SOL    HW286917  11.935   3.497  12.211  1.0048 -0.5235  0.6586
59317SOL     OW86918   5.217  12.481   1.641 -0.5105 -0.2978 -0.0855
59317SOL    HW186919   5.268  12.401   1.653 -0.1923  0.2197  2.8271
59317SOL    HW286920   5.271  12.550   1.678 -2.1866  0.6890  0.6647
59318SOL     OW86921   4.764   8.387   9.633  0.6018 -0.0963  0.1742
59318SOL    HW186922   4.757   8.322   9.703  1.7998  0.3063  0.6944
59318SOL    HW286923   4.851   8.374   9.596 -0.0101 -0.2894 -1.2470
59319SOL     OW86924   0.049  11.838  11.857  0.4737 -0.4798  0.2989
59319SOL    HW186925   0.081  11.853  11.768  0.1608 -1.7470 -0.0563
59319SOL    HW286926   0.101  11.763  11.888  0.3938 -0.2180  1.0831
59320SOL     OW86927   1.156   8.519   5.272 -0.2004 -0.3649 -0.2824
59320SOL    HW186928   1.212   8.512   5.350  0.8977  0.4311 -0.9690
59320SOL    HW286929   1.183   8.446   5.217 -2.4230 -2.1972  0.9172
59321SOL     OW86930   0.613  12.485   0.109 -0.5466  0.1395  0.2002
59321SOL    HW186931   0.674  12.413   0.095  0.6927  1.0610  0.6849
59321SOL    HW286932   0.657  12.543   0.171 -1.3759  1.4676 -0.3943
59322SOL     OW86933   4.628   1.523   4.324  0.1105 -0.4426  0.0922
59322SOL    HW186934   4.654   1.561   4.240 -1.7933 -0.7144 -0.6626
59322SOL    HW286935   4.583   1.595   4.369  0.4199 -0.5325  0.5469
59323SOL     OW86936   5.501   2.914   9.429  0.1588  0.0519 -0.3344
59323SOL    HW186937   5.424   2.883   9.476  0.8560 -1.4910 -0.1576
59323SOL    HW286938   5.492   2.881   9.340  1.4204 -1.6753  0.1249
59324SOL     OW86939  10.013   3.850   3.546 -0.0425 -0.5454 -0.1987
59324SOL    HW186940  10.016   3.866   3.452  0.0913 -1.2495 -0.3190
59324SOL    HW286941  10.105   3.841   3.572 -0.1146 -1.2355 -0.1625
59325SOL     OW86942   8.539   4.304  12.216  0.1568 -0.1602 -0.1192
59325SOL    HW186943   8.557   4.220  12.259 -1.0940 -0.5806 -0.3955
59325SOL    HW286944   8.494   4.356  12.282  0.8193  0.2696  0.0094
59326SOL     OW86945  10.362  11.989   9.239 -0.5954  0.3756  0.4899
59326SOL    HW186946  10.385  12.045   9.313 -1.2840  1.5761 -0.1794
59326SOL    HW286947  10.266  11.982   9.244 -0.4653 -1.7469  1.2509
59327SOL     OW86948   5.266   1.330   5.331  0.2949 -0.4185  0.0624
59327SOL    HW186949   5.176   1.340   5.362 -0.0762 -1.3609 -0.6440
59327SOL    HW286950   5.314   1.403   5.371 -1.3953  1.9583 -1.9042
59328SOL     OW86951   1.151   0.848  12.291  0.0711  0.3278  0.1806
59328SOL    HW186952   1.151   0.794  12.371  0.7158  1.4583  0.9694
59328SOL    HW286953   1.071   0.822  12.245 -0.4513 -0.1666  1.3157
59329SOL     OW86954   9.581   2.569  11.964 -0.3617  0.0487  0.1219
59329SOL    HW186955   9.598   2.574  11.870  1.7470  0.6051  0.4655
59329SOL    HW286956   9.641   2.502  11.996 -3.1259 -2.3115  0.7338
59330SOL     OW86957   3.000   9.744   5.266  0.3744  0.1977  0.1221
59330SOL    HW186958   2.946   9.683   5.216  0.8366 -1.8966  1.9903
59330SOL    HW286959   3.070   9.689   5.303 -0.4056  1.3227  3.6986
59331SOL     OW86960   2.215   4.130   4.924  0.1922 -0.3481 -0.5127
59331SOL    HW186961   2.198   4.127   5.018  0.3049  0.3550 -0.4659
59331SOL    HW286962   2.225   4.038   4.898 -0.0049 -0.5521  0.1279
59332SOL     OW86963   6.444  11.892  10.441  0.7964  0.0973 -0.4415
59332SOL    HW186964   6.472  11.804  10.464  0.8122  0.6483  1.9157
59332SOL    HW286965   6.500  11.949  10.494 -0.8277  1.4157 -0.0649
59333SOL     OW86966   2.414  12.083   7.581  0.3336 -0.0651 -0.5109
59333SOL    HW186967   2.336  12.045   7.620  1.6196 -1.2228  1.0773
59333SOL    HW286968   2.426  12.167   7.625  1.2726 -0.9631  1.0330
59334SOL     OW86969   8.193   2.596   2.509 -0.6637 -0.6176  0.2737
59334SOL    HW186970   8.160   2.678   2.471  1.6887 -0.0122 -0.6668
59334SOL    HW286971   8.160   2.528   2.451 -1.0985 -0.1535 -0.0319
59335SOL     OW86972  12.566   0.815   6.973 -0.7840  0.1222 -0.4124
59335SOL    HW186973  12.588   0.722   6.973 -1.7096 -0.1034  0.3668
59335SOL    HW286974  12.622   0.852   6.904 -0.2435 -0.9592 -0.5820
59336SOL     OW86975   6.984  10.651   1.398 -0.1996  0.0239 -0.4833
59336SOL    HW186976   6.996  10.617   1.487  0.7393  0.2500 -0.5058
59336SOL    HW286977   6.890  10.645   1.382 -0.4446  0.4055  0.7018
59337SOL     OW86978  12.204   8.125   9.878  0.3638  0.1911 -0.1669
59337SOL    HW186979  12.116   8.112   9.843  0.1683 -0.9365  0.6681
59337SOL    HW286980  12.234   8.037   9.901  1.4814  0.6193  0.1094
59338SOL     OW86981   7.619   7.890   4.873  0.0834  0.1297  0.0322
59338SOL    HW186982   7.538   7.937   4.853 -0.3130 -0.5274  0.0749
59338SOL    HW286983   7.599   7.799   4.854  0.6304 -0.1126  0.5944
59339SOL     OW86984   7.683   2.613   7.738  0.1668 -0.5381 -0.5040
59339SOL    HW186985   7.607   2.563   7.765 -2.0966  3.1596  0.6766
59339SOL    HW286986   7.732   2.629   7.818  1.6348 -1.8853 -1.0771
59340SOL     OW86987   1.779  11.465   2.004  1.1000 -0.3848 -0.0043
59340SOL    HW186988   1.684  11.467   2.009  1.0810 -0.4412 -0.3146
59340SOL    HW286989   1.807  11.546   2.048  0.7893  1.0712 -2.2897
59341SOL     OW86990   9.105   6.710   2.872  0.0203  0.1147  0.6624
59341SOL    HW186991   9.096   6.629   2.922 -1.1728  0.3295  0.8358
59341SOL    HW286992   9.088   6.780   2.935 -0.2848  0.4401  0.2338
59342SOL     OW86993   6.292   1.610  12.389  0.5567 -0.0296  0.1984
59342SOL    HW186994   6.309   1.704  12.387 -0.4229  0.1873  0.9435
59342SOL    HW286995   6.234   1.595  12.314  0.5286  0.0021  0.2146
59343SOL     OW86996   8.054   3.907   1.587  0.2203 -0.2004 -0.5952
59343SOL    HW186997   8.148   3.922   1.575  0.1173  0.2661 -0.8231
59343SOL    HW286998   8.042   3.903   1.681  0.8653 -2.8096 -0.5374
59344SOL     OW86999   4.640   6.617  12.084 -0.3406  0.0192  0.1280
59344SOL    HW187000   4.717   6.580  12.127 -0.3386 -0.6177 -0.4103
59344SOL    HW287001   4.661   6.710  12.076  0.4632 -0.1744 -0.1872
59345SOL     OW87002  11.856  11.235   9.834 -0.1065  0.4103  0.2703
59345SOL    HW187003  11.921  11.251   9.765  0.7660  0.9240  1.1945
59345SOL    HW287004  11.841  11.321   9.874 -0.8365  0.1711  0.5258
59346SOL     OW87005   2.036   4.240   0.971  0.1580  0.4599  0.1009
59346SOL    HW187006   2.105   4.179   0.996  0.5698  0.4285 -1.0593
59346SOL    HW287007   2.079   4.305   0.916 -0.7334  0.4274 -0.6647
59347SOL     OW87008   9.665  10.507   2.704  0.5769  0.2072 -0.3072
59347SOL    HW187009   9.578  10.490   2.741  0.6814 -1.1244 -0.6359
59347SOL    HW287010   9.719  10.434   2.734  1.6960  1.1683  0.1517
59348SOL     OW87011   1.949   9.655   4.376  0.2429  0.5336 -0.5268
59348SOL    HW187012   1.885   9.726   4.373 -1.7911 -1.2568 -1.8171
59348SOL    HW287013   1.940   9.619   4.465 -0.6121  0.2613 -0.7145
59349SOL     OW87014   9.201   6.998   6.807  0.1840 -0.2397 -0.6619
59349SOL    HW187015   9.140   7.071   6.796  1.2395  0.8886  0.5736
59349SOL    HW287016   9.160   6.925   6.761 -2.5087  0.2298  0.7640
59350SOL     OW87017   8.506   1.040  10.156 -0.6065  0.1697 -0.0542
59350SOL    HW187018   8.519   1.132  10.136 -0.7267  0.3283  0.5817
59350SOL    HW287019   8.491   0.999  10.071  0.5923  0.5374 -0.4636
59351SOL     OW87020   2.463   1.475   1.992  0.2317 -0.0831  0.0665
59351SOL    HW187021   2.511   1.415   2.048 -0.2722  0.7076  1.3735
59351SOL    HW287022   2.448   1.552   2.045 -0.6881  0.5078 -0.9931
59352SOL     OW87023   3.018   8.897   2.660  0.1562 -0.3073 -0.2209
59352SOL    HW187024   2.996   8.988   2.639  1.5208 -0.1686 -1.1887
59352SOL    HW287025   3.111   8.900   2.682  0.4501 -1.5969 -1.1561
59353SOL     OW87026   8.137   5.079   6.940 -0.5436  0.2181 -0.0155
59353SOL    HW187027   8.100   4.990   6.941 -0.8063  0.3239 -0.2569
59353SOL    HW287028   8.089   5.125   7.009  0.1264 -0.0376  0.6359
59354SOL     OW87029   2.564   6.851   4.419 -0.5874 -0.2426 -0.4177
59354SOL    HW187030   2.569   6.768   4.372 -0.8135 -1.4478  1.5908
59354SOL    HW287031   2.603   6.914   4.359  1.7672 -2.1896 -1.0890
59355SOL     OW87032   6.894   0.722   8.856 -0.4788 -0.6466 -0.2707
59355SOL    HW187033   6.801   0.701   8.848 -0.5492 -0.3923 -0.1194
59355SOL    HW287034   6.937   0.637   8.862 -0.7365 -0.7552  0.0662
59356SOL     OW87035   9.513  11.809   1.727  0.6492 -0.2065  0.1268
59356SOL    HW187036   9.489  11.873   1.794 -1.5207  0.6778 -1.3745
59356SOL    HW287037   9.443  11.744   1.731  0.3362  0.0078 -1.4332
59357SOL     OW87038   0.635  11.671   5.348  0.6632  0.3245  0.2077
59357SOL    HW187039   0.576  11.706   5.415  0.3257  2.1132 -0.9617
59357SOL    HW287040   0.586  11.599   5.308 -1.6988  3.0122 -2.0962
59358SOL     OW87041   5.907   2.823   1.117  0.1670 -0.0816 -0.1347
59358SOL    HW187042   5.827   2.771   1.123 -0.6183  1.0806 -0.2962
59358SOL    HW287043   5.930   2.841   1.208  0.0977 -0.1748 -0.0977
59359SOL     OW87044   7.317   5.875   0.562 -0.4383  0.5136 -0.5153
59359SOL    HW187045   7.360   5.801   0.518 -1.9085 -0.3132 -0.6508
59359SOL    HW287046   7.350   5.952   0.517  1.0517 -0.0551 -0.4551
59360SOL     OW87047  11.063   5.894   9.472  0.6174 -0.2976  1.1529
59360SOL    HW187048  11.036   5.876   9.382 -1.0943 -0.9579  1.7628
59360SOL    HW287049  11.146   5.941   9.463  0.4274 -0.2497 -0.7613
59361SOL     OW87050   8.357   1.125   3.046  0.0339 -0.1441  0.0180
59361SOL    HW187051   8.271   1.166   3.040  0.2385  0.3905  0.6370
59361SOL    HW287052   8.357   1.060   2.975 -0.3006  0.9013 -0.9789
59362SOL     OW87053   9.828   1.661   4.879  0.0636 -0.4002  0.5717
59362SOL    HW187054   9.817   1.738   4.824  0.3610  0.4656  1.7089
59362SOL    HW287055   9.913   1.625   4.854  0.7570  0.6911  1.3052
59363SOL     OW87056  12.223  11.954   8.063  0.0936  1.1827  0.0465
59363SOL    HW187057  12.158  11.986   8.125  0.3093  0.1881  0.8224
59363SOL    HW287058  12.174  11.940   7.982 -1.8690 -3.7048  1.6880
59364SOL     OW87059   5.204   2.690   7.269  0.2288  0.5543  0.2090
59364SOL    HW187060   5.188   2.614   7.326 -0.7931  1.7852  1.6370
59364SOL    HW287061   5.250   2.654   7.193  1.5705 -1.1738  1.7578
59365SOL     OW87062  10.706   4.278  12.566  0.0635 -0.1179 -0.4656
59365SOL    HW187063  10.693   4.325  12.484 -1.4749 -1.2266 -0.9169
59365SOL    HW287064  10.618   4.268  12.602  0.5629 -0.8822  0.6050
59366SOL     OW87065  11.466   0.147  10.218  0.6600 -0.4260 -0.3982
59366SOL    HW187066  11.534   0.190  10.167  1.5153 -0.3054  0.8142
59366SOL    HW287067  11.407   0.218  10.244  0.0752 -0.5230 -1.3966
59367SOL     OW87068   3.066   6.903   7.391 -0.6211 -0.0221  0.4582
59367SOL    HW187069   3.040   6.973   7.330  0.2115  0.1559  0.3000
59367SOL    HW287070   3.122   6.946   7.455  0.6004 -0.6987 -0.1331
59368SOL     OW87071   7.254  12.292  10.796 -0.3020  0.1177 -0.1594
59368SOL    HW187072   7.255  12.237  10.717  0.4966  2.6400 -2.0373
59368SOL    HW287073   7.198  12.244  10.858 -1.9984 -1.3914 -2.6737
59369SOL     OW87074   1.536   8.539   3.107 -0.0630  0.0677 -0.3870
59369SOL    HW187075   1.593   8.486   3.163  1.1252 -0.2166 -1.8047
59369SOL    HW287076   1.447   8.522   3.140  0.3832 -1.9610 -0.1082
59370SOL     OW87077   7.533   2.040   3.414  0.1420  0.6761  0.3053
59370SOL    HW187078   7.611   1.985   3.424 -1.4823 -1.9982 -0.7157
59370SOL    HW287079   7.517   2.040   3.320  0.2326  3.2582  0.2321
59371SOL     OW87080  11.074   8.231   8.985 -0.1356  0.1593  0.4517
59371SOL    HW187081  11.106   8.220   9.075  0.1821 -1.5013  0.1828
59371SOL    HW287082  10.979   8.223   8.992 -0.0170 -1.6785  0.4817
59372SOL     OW87083   9.280   4.876   2.582  0.1302  0.0123 -0.0769
59372SOL    HW187084   9.231   4.878   2.500  0.4970 -0.2828 -0.3060
59372SOL    HW287085   9.326   4.960   2.583  1.0872 -0.4849 -0.7748
59373SOL     OW87086   7.941   2.515  10.960 -0.1612 -0.5517  0.1652
59373SOL    HW187087   7.912   2.438  10.911  1.9297 -0.8745 -0.6335
59373SOL    HW287088   7.929   2.490  11.052  0.8861 -2.0301 -0.0625
59374SOL     OW87089  10.016   5.175   2.987 -0.4479 -0.8147  0.0209
59374SOL    HW187090  10.018   5.220   3.071 -0.7840 -1.1822  0.2269
59374SOL    HW287091   9.924   5.178   2.960 -0.0429  1.2937 -1.4221
59375SOL     OW87092   0.838  12.350   3.149  0.1878  0.2831  0.0649
59375SOL    HW187093   0.744  12.350   3.132  0.3023 -0.0723 -0.6075
59375SOL    HW287094   0.846  12.314   3.238 -0.3140  0.3942  0.1602
59376SOL     OW87095  12.414  12.265   4.857  0.1157  0.1865  0.5445
59376SOL    HW187096  12.507  12.270   4.838  0.0368 -1.5339 -0.5016
59376SOL    HW287097  12.374  12.327   4.797  0.4751 -0.1818 -0.0898
59377SOL     OW87098  12.282  12.204   0.828 -0.3963 -0.1780 -0.1288
59377SOL    HW187099  12.282  12.231   0.737 -2.2306 -1.5635 -0.6031
59377SOL    HW287100  12.337  12.126   0.830  0.1532  0.2089  0.0877
59378SOL     OW87101   9.792  10.202   8.148 -0.2290  0.2801 -0.3163
59378SOL    HW187102   9.875  10.195   8.101  0.1895 -1.9526  0.6513
59378SOL    HW287103   9.746  10.120   8.130 -0.4990 -0.2224  2.2388
59379SOL     OW87104   4.171   1.913   1.588  0.1861 -0.3310  0.0088
59379SOL    HW187105   4.186   1.819   1.579 -0.0894 -0.7198  2.6833
59379SOL    HW287106   4.079   1.922   1.610  0.5510  0.3775  1.3985
59380SOL     OW87107   1.153   0.101  10.251  0.2287 -0.1439  1.0625
59380SOL    HW187108   1.182   0.165  10.316  0.9503  1.5414 -0.8445
59380SOL    HW287109   1.233   0.056  10.224  0.4865  1.3104 -0.8283
59381SOL     OW87110   6.771   7.536   2.468 -0.2060 -0.0101  0.1320
59381SOL    HW187111   6.779   7.454   2.420 -1.5611  0.0943 -0.3305
59381SOL    HW287112   6.840   7.533   2.534 -0.4225 -1.6499  0.3123
59382SOL     OW87113  11.972   0.192  11.512  0.1238  0.2947 -0.3192
59382SOL    HW187114  12.027   0.266  11.539  0.3111  0.0804 -0.1084
59382SOL    HW287115  11.936   0.158  11.593 -1.5852  1.3998 -0.5790
59383SOL     OW87116   6.590  10.498   2.792  0.3717 -0.3888  0.2422
59383SOL    HW187117   6.676  10.468   2.822  1.0422  0.8841 -0.3447
59383SOL    HW287118   6.566  10.436   2.724  1.8539  0.4697 -1.1345
59384SOL     OW87119   1.116  10.973   5.903 -0.5798 -0.0626  0.1091
59384SOL    HW187120   1.146  11.012   5.986 -0.1530 -1.6281  0.7236
59384SOL    HW287121   1.180  10.905   5.884 -1.5552 -0.7900 -0.6638
59385SOL     OW87122   9.331   4.800   5.733 -0.7855 -0.0105 -0.2688
59385SOL    HW187123   9.397   4.868   5.722 -0.9275  0.4566  1.4520
59385SOL    HW287124   9.381   4.718   5.733 -0.6251  0.0324 -2.4347
59386SOL     OW87125   2.316  10.606  11.882  0.1910 -1.1919  0.1470
59386SOL    HW187126   2.317  10.511  11.882  0.2863 -1.1922  0.0120
59386SOL    HW287127   2.359  10.630  11.799  0.0150 -1.0349  0.1000
59387SOL     OW87128   0.187   3.821  11.813 -0.0749  0.1926  0.4589
59387SOL    HW187129   0.108   3.863  11.779  0.9065  1.5228 -0.2666
59387SOL    HW287130   0.184   3.732  11.778 -2.0517 -0.3334  1.7850
59388SOL     OW87131   0.673   6.851   2.793  0.5027  0.4409  0.8766
59388SOL    HW187132   0.659   6.939   2.757  1.0138  0.6034  1.0531
59388SOL    HW287133   0.715   6.802   2.723  1.4337  0.7368  1.2098
59389SOL     OW87134   4.762   3.805   3.503  0.5281  0.1667  0.7027
59389SOL    HW187135   4.785   3.769   3.417 -0.1312  0.2865  0.4700
59389SOL    HW287136   4.667   3.793   3.509  0.5253  0.4669  1.2769
59390SOL     OW87137   5.373   6.644  11.955 -0.4424  0.5993 -0.0089
59390SOL    HW187138   5.324   6.657  11.874 -0.0475  1.5818 -0.1096
59390SOL    HW287139   5.463   6.630  11.927 -0.4157  0.2915  0.2323
59391SOL     OW87140   0.262   9.547   7.731 -0.0425 -0.1709  0.4004
59391SOL    HW187141   0.341   9.592   7.702 -1.0882  0.2380 -2.1064
59391SOL    HW287142   0.292   9.462   7.762  1.3656 -0.1377 -0.7936
59392SOL     OW87143   5.581  11.388   4.473 -0.0943 -0.2457  0.1348
59392SOL    HW187144   5.516  11.329   4.512 -2.0409  1.6864  0.0328
59392SOL    HW287145   5.648  11.398   4.540 -0.2980 -1.6880  0.5766
59393SOL     OW87146   2.495  10.094   7.464 -0.0929 -0.2492 -0.8921
59393SOL    HW187147   2.554  10.082   7.390  0.3225  1.4631 -0.8841
59393SOL    HW287148   2.408  10.107   7.425  0.2998  1.7645 -1.1908
59394SOL     OW87149   5.811   4.402   1.256  0.3187 -0.0951  0.3622
59394SOL    HW187150   5.723   4.378   1.285  0.2769  0.3870  0.6364
59394SOL    HW287151   5.869   4.367   1.323  0.2675  0.4444  0.6893
59395SOL     OW87152   9.583   6.147   2.889 -0.4954  0.2591  0.0345
59395SOL    HW187153   9.632   6.224   2.860 -0.5595  0.2954  0.0199
59395SOL    HW287154   9.491   6.170   2.871 -0.5943  0.5417  0.8574
59396SOL     OW87155   3.070  12.219   1.487 -0.0686 -0.1371 -0.6750
59396SOL    HW187156   3.031  12.152   1.431 -0.0178 -0.5017 -0.2796
59396SOL    HW287157   3.164  12.204   1.481 -0.0697 -0.2920 -0.3590
59397SOL     OW87158   6.847  11.963  10.855  0.2799  0.1769  0.6260
59397SOL    HW187159   6.878  11.873  10.845  0.5978  0.3762 -0.2987
59397SOL    HW287160   6.924  12.017  10.840 -0.4879  0.6862 -1.9464
59398SOL     OW87161  10.484   2.105   2.851  0.3756 -0.4377 -0.1822
59398SOL    HW187162  10.423   2.035   2.827  0.7849 -0.9231  0.1810
59398SOL    HW287163  10.535   2.069   2.923 -0.7295  0.9324  1.3718
59399SOL     OW87164   8.178   6.305   8.389 -0.3773  0.0234 -0.1845
59399SOL    HW187165   8.125   6.368   8.341 -1.1073  0.2737  0.9177
59399SOL    HW287166   8.149   6.313   8.480 -1.0801 -2.4807 -0.1294
59400SOL     OW87167   0.637  10.632   3.259  0.9518 -0.0358 -0.1629
59400SOL    HW187168   0.581  10.567   3.218  0.2817  0.8762 -0.7282
59400SOL    HW287169   0.578  10.702   3.286  1.6784  0.4382  0.2444
59401SOL     OW87170   7.718  12.471   0.525 -0.6196  0.4873  0.0563
59401SOL    HW187171   7.802  12.511   0.548 -0.1603 -0.0837 -0.6027
59401SOL    HW287172   7.731  12.436   0.437 -0.8706 -1.4554  0.7336
59402SOL     OW87173   5.290   1.594   7.635 -0.1466 -0.1799  0.0110
59402SOL    HW187174   5.378   1.581   7.602  1.1265  2.3826  2.0154
59402SOL    HW287175   5.251   1.658   7.575  0.8352  1.6357  1.2080
59403SOL     OW87176   6.146   9.755  11.215  0.1713 -0.2156 -0.2497
59403SOL    HW187177   6.219   9.718  11.266 -1.3404 -2.0719  0.6935
59403SOL    HW287178   6.147   9.848  11.236  1.0639 -0.5279  1.3003
59404SOL     OW87179   3.879   0.829   2.280  0.1994 -0.2492 -0.3330
59404SOL    HW187180   3.919   0.849   2.364  1.1188  0.1694 -0.8564
59404SOL    HW287181   3.876   0.734   2.276  0.3173 -0.2703  0.0856
59405SOL     OW87182  10.147   0.584   6.320 -0.2487 -0.2098 -0.0164
59405SOL    HW187183  10.171   0.543   6.403 -0.6164  0.2102  0.3011
59405SOL    HW287184  10.205   0.543   6.255  1.9865  1.4355  0.8416
59406SOL     OW87185   1.171   7.972   8.008 -0.0633 -0.3975 -0.0601
59406SOL    HW187186   1.087   7.935   8.036 -0.1166  0.2251  0.6138
59406SOL    HW287187   1.152   8.011   7.923 -0.3981 -0.4827 -0.0284
59407SOL     OW87188   0.651   3.632   5.003 -0.0134  0.0682 -0.4268
59407SOL    HW187189   0.667   3.565   4.936 -1.0987 -0.7134  0.0597
59407SOL    HW287190   0.584   3.688   4.965  0.2038  0.3101 -0.4521
59408SOL     OW87191  12.276   9.776   6.042  0.2414  0.0067 -0.1785
59408SOL    HW187192  12.180   9.775   6.038  0.0768  2.3356  1.2178
59408SOL    HW287193  12.302   9.686   6.022 -2.2269 -0.6860 -0.5839
59409SOL     OW87194   0.948   2.902  11.187 -0.1795  0.2314  0.2984
59409SOL    HW187195   0.873   2.961  11.200 -2.5588 -2.2436 -1.2372
59409SOL    HW287196   0.948   2.884  11.093  1.5017 -0.9567  0.4892
59410SOL     OW87197   2.380   7.203   4.702  0.1852  0.2484 -0.1729
59410SOL    HW187198   2.367   7.296   4.686 -0.0507 -0.0329 -1.6984
59410SOL    HW287199   2.364   7.161   4.618  0.6302 -1.1461  0.4071
59411SOL     OW87200   3.754   4.063   7.557 -0.4889  0.4667 -0.6694
59411SOL    HW187201   3.837   4.106   7.535  0.2323 -1.7820 -2.8555
59411SOL    HW287202   3.687   4.127   7.534  0.5802  1.9767  0.2511
59412SOL     OW87203   3.389  11.501   6.144 -0.4991 -0.2243 -0.0060
59412SOL    HW187204   3.346  11.586   6.132  0.0674 -0.2340 -2.7393
59412SOL    HW287205   3.474  11.521   6.182  0.0140  0.5652 -1.5202
59413SOL     OW87206   3.160   1.481   8.900 -0.0632 -0.0515 -0.5116
59413SOL    HW187207   3.248   1.492   8.934  0.6017 -2.3133 -1.3157
59413SOL    HW287208   3.151   1.550   8.833  0.9579  0.4060 -0.1955
59414SOL     OW87209   9.217   4.668   6.172 -0.5074  0.1626  0.1883
59414SOL    HW187210   9.215   4.670   6.268  1.1253 -0.4855  0.2713
59414SOL    HW287211   9.168   4.589   6.149 -0.6497  0.1547  0.5111
59415SOL     OW87212   5.258   5.159   2.410 -0.2180 -0.2401  0.4880
59415SOL    HW187213   5.301   5.244   2.411 -0.1599 -0.1662 -2.3437
59415SOL    HW287214   5.251   5.135   2.503  0.0779  2.6370  1.3414
59416SOL     OW87215   2.568   2.972  11.275 -0.0396 -0.4524 -0.3474
59416SOL    HW187216   2.613   2.889  11.264  1.6038  0.5335 -1.5183
59416SOL    HW287217   2.571   2.988  11.370 -0.5705 -1.7856 -0.0823
59417SOL     OW87218   1.276   8.153   3.026 -0.2768 -0.2870  1.1180
59417SOL    HW187219   1.249   8.128   3.114 -1.2423 -2.9028  0.1809
59417SOL    HW287220   1.193   8.163   2.978  0.2678 -0.0038  0.2177
59418SOL     OW87221   4.459   5.546   4.901  0.4671  0.4182  0.5144
59418SOL    HW187222   4.483   5.455   4.922  0.4566  0.3239  0.1171
59418SOL    HW287223   4.523   5.573   4.835 -0.8205 -0.0044 -0.9518
59419SOL     OW87224   5.884  11.393   7.915  0.4181 -0.7473 -0.1902
59419SOL    HW187225   5.860  11.302   7.897 -1.4988  0.0911 -2.2347
59419SOL    HW287226   5.802  11.442   7.908  1.5986  1.3215 -0.4183
59420SOL     OW87227  12.461   5.431  11.725 -0.2514  0.2251  0.6599
59420SOL    HW187228  12.482   5.361  11.787 -2.3658  0.8369  2.1874
59420SOL    HW287229  12.370   5.414  11.700  0.3892  0.2950 -1.9701
59421SOL     OW87230   8.771   4.517   0.814 -0.2303  0.5777  0.2577
59421SOL    HW187231   8.733   4.573   0.747 -1.6490  0.4958  0.9575
59421SOL    HW287232   8.717   4.533   0.892 -0.3142 -1.3052  0.6377
59422SOL     OW87233   3.001   2.105   1.757  0.2890 -0.4756 -0.0827
59422SOL    HW187234   3.031   2.015   1.746  0.5965 -0.8979  3.3116
59422SOL    HW287235   3.082   2.158   1.755  0.1224 -0.2195 -1.9108
59423SOL     OW87236   5.924   5.580   2.971  0.1585  0.3374 -0.1737
59423SOL    HW187237   5.941   5.648   2.906 -2.6530  0.9634 -0.3623
59423SOL    HW287238   5.872   5.623   3.039  0.9812 -0.8988  1.3239
59424SOL     OW87239   5.894   7.028   3.850  0.1071 -0.5683  0.5545
59424SOL    HW187240   5.893   7.097   3.783 -0.9045 -1.1247 -0.0225
59424SOL    HW287241   5.803   7.019   3.876  0.0923 -2.2765  0.0046
59425SOL     OW87242   9.839   9.877   8.384  0.1050  0.4272  0.1143
59425SOL    HW187243   9.855   9.811   8.451 -0.4111  0.8315  0.6455
59425SOL    HW287244   9.920   9.879   8.333  0.1151 -0.6349  0.0674
59426SOL     OW87245  10.172   5.522   4.491 -0.5081  0.4842 -0.6037
59426SOL    HW187246  10.095   5.469   4.470 -1.4623  1.5067  0.1273
59426SOL    HW287247  10.167   5.597   4.431 -0.9940  1.3547  0.4807
59427SOL     OW87248  11.924   5.957   7.825  0.1696 -0.4291  0.8029
59427SOL    HW187249  11.856   5.902   7.862 -1.6593 -0.1039 -1.7927
59427SOL    HW287250  11.985   5.895   7.784 -1.1458 -0.6520 -0.9184
59428SOL     OW87251   1.534   9.567   4.972  0.0084  0.3659 -0.5028
59428SOL    HW187252   1.486   9.649   4.972 -1.7943 -0.6177 -1.2998
59428SOL    HW287253   1.477   9.506   4.925 -0.1377 -2.1258  2.5407
59429SOL     OW87254   4.903   8.729  11.966 -0.5596 -0.3609 -0.0409
59429SOL    HW187255   4.984   8.780  11.957 -0.6071 -0.3376 -0.3496
59429SOL    HW287256   4.835   8.788  11.933 -0.4801 -1.0110 -1.4664
59430SOL     OW87257  12.455   2.045   7.861  0.4708 -0.1282  0.1008
59430SOL    HW187258  12.546   2.044   7.892  0.2246  0.9532  0.9356
59430SOL    HW287259  12.428   2.137   7.871 -0.7023 -0.4349 -0.1769
59431SOL     OW87260  10.233   4.338   8.227  0.3020 -0.0153  0.0580
59431SOL    HW187261  10.194   4.256   8.197 -0.2872  0.7317 -1.3129
59431SOL    HW287262  10.327   4.325   8.216  0.3770 -1.1750  1.6778
59432SOL     OW87263   2.693   5.368   7.073 -0.6751  0.4293  0.2812
59432SOL    HW187264   2.777   5.412   7.084 -0.8351  0.9064 -0.3279
59432SOL    HW287265   2.643   5.427   7.016 -1.2376 -0.0899  0.2340
59433SOL     OW87266   1.541  10.376  11.523 -0.1056 -0.1289  0.2028
59433SOL    HW187267   1.585  10.352  11.604 -1.5479 -1.6098  0.5936
59433SOL    HW287268   1.517  10.293  11.482 -3.7961  0.4933  0.7548
59434SOL     OW87269   7.145   0.493   6.461  0.4284  0.5852  0.0738
59434SOL    HW187270   7.213   0.425   6.450  0.9514  0.4121  3.4872
59434SOL    HW287271   7.098   0.468   6.540 -1.0518  2.8921  0.0153
59435SOL     OW87272   3.168   4.486   4.354 -0.4811 -0.3816  0.3560
59435SOL    HW187273   3.247   4.467   4.405 -0.4073  0.5202  0.5802
59435SOL    HW287274   3.153   4.406   4.304 -0.4913 -1.2570  1.6945
59436SOL     OW87275   0.471   2.889   6.066 -0.1582 -0.2856  0.2569
59436SOL    HW187276   0.529   2.940   6.009 -0.9555  0.2441 -0.1052
59436SOL    HW287277   0.402   2.951   6.092  0.9373 -0.0667  2.9995
59437SOL     OW87278   2.977  10.569   1.507  0.6249 -0.7601 -0.1099
59437SOL    HW187279   3.042  10.502   1.489  0.1736 -1.1395 -0.3529
59437SOL    HW287280   2.915  10.563   1.434  1.3017  0.8282 -0.8754
59438SOL     OW87281  10.937   5.137   7.318 -0.1092 -0.2007  0.0457
59438SOL    HW187282  10.967   5.052   7.349  1.7846  0.5863  0.4812
59438SOL    HW287283  10.915   5.121   7.225  0.7243 -1.0410 -0.0256
59439SOL     OW87284   0.190   8.628   3.959  0.5649  0.1059  0.4039
59439SOL    HW187285   0.191   8.720   3.931 -2.4775 -0.4256 -1.9682
59439SOL    HW287286   0.109   8.620   4.009  0.9802 -1.2429  0.9004
59440SOL     OW87287   3.151   4.617   9.517 -0.4737  0.1160 -0.0005
59440SOL    HW187288   3.086   4.624   9.446  0.0008  0.0122 -0.4518
59440SOL    HW287289   3.168   4.708   9.542 -3.9105  0.1229  3.0540
59441SOL     OW87290   9.739   8.427   3.190  0.1802  0.4838  1.1947
59441SOL    HW187291   9.651   8.461   3.178  0.6070  1.1624 -0.1994
59441SOL    HW287292   9.795   8.505   3.197  0.7559  0.0658  1.4110
59442SOL     OW87293   6.867   7.651   4.367 -0.5441  0.4370 -0.3429
59442SOL    HW187294   6.903   7.576   4.321 -1.1960 -0.2646  0.2603
59442SOL    HW287295   6.815   7.613   4.438 -2.1921  1.4130 -0.9758
59443SOL     OW87296   8.270  10.828   4.421  0.5052 -0.2146 -0.0894
59443SOL    HW187297   8.288  10.823   4.514  1.4607 -0.9803 -0.2888
59443SOL    HW287298   8.178  10.804   4.413  0.0904  1.0295  0.7439
59444SOL     OW87299   1.128  10.100   8.333 -0.6219 -0.2678  0.6819
59444SOL    HW187300   1.138  10.008   8.308  0.4863 -0.2338  0.9572
59444SOL    HW287301   1.099  10.144   8.253  0.6606 -0.5427  0.0459
59445SOL     OW87302   3.871  10.466   5.001  0.5231 -0.6893 -0.2902
59445SOL    HW187303   3.928  10.523   4.950  0.0062 -0.0420 -0.1617
59445SOL    HW287304   3.927  10.394   5.028  0.5871 -1.5431 -2.5282
59446SOL     OW87305  11.426  11.551   8.844  0.0793  0.4853 -0.0126
59446SOL    HW187306  11.418  11.477   8.905  0.5645 -0.2081 -0.7715
59446SOL    HW287307  11.335  11.573   8.821 -0.1218  0.9495  1.1722
59447SOL     OW87308  11.738   1.690   1.481 -0.7858  0.3058 -0.4571
59447SOL    HW187309  11.660   1.725   1.524 -0.9054  0.9142 -1.1607
59447SOL    HW287310  11.806   1.756   1.496 -0.1653 -0.5926  0.8527
59448SOL     OW87311   7.639   8.474  10.376 -1.4709 -0.0665 -0.3112
59448SOL    HW187312   7.711   8.415  10.353 -1.4234 -1.4402  2.8215
59448SOL    HW287313   7.678   8.561  10.375  0.6912 -0.8594  2.3202
59449SOL     OW87314  10.599   8.714  11.990 -0.3130  0.0160 -0.5660
59449SOL    HW187315  10.515   8.713  11.944 -0.5769 -0.2644 -0.0827
59449SOL    HW287316  10.660   8.749  11.925 -0.7430 -0.0465 -1.0198
59450SOL     OW87317   1.943   4.650   0.466 -0.0152  0.0522  0.1961
59450SOL    HW187318   2.012   4.716   0.468 -1.0092  1.1163 -0.2154
59450SOL    HW287319   1.883   4.678   0.397 -1.7337  0.0556  1.6070
59451SOL     OW87320  10.129   8.412   9.520  0.2525 -0.1695  0.4698
59451SOL    HW187321  10.093   8.367   9.443  0.7207  1.3151 -0.6523
59451SOL    HW287322  10.215   8.373   9.532 -0.4769 -1.5959  1.3102
59452SOL     OW87323   9.301  10.485   9.869  0.0243  0.1639 -0.1707
59452SOL    HW187324   9.346  10.405   9.893  1.3388  1.0832  0.5464
59452SOL    HW287325   9.310  10.542   9.946 -1.8433  0.6229 -0.2294
59453SOL     OW87326   1.901   9.245  11.647 -0.1110  0.2069 -0.0442
59453SOL    HW187327   1.866   9.193  11.575  2.4887 -1.9840  0.1441
59453SOL    HW287328   1.882   9.336  11.622 -0.7006 -0.5606 -2.6953
59454SOL     OW87329   1.566  10.463   0.493  0.0106 -0.3295  1.4776
59454SOL    HW187330   1.514  10.522   0.438  0.1811 -2.2331 -0.8873
59454SOL    HW287331   1.655  10.496   0.486 -0.1211  0.0361  1.4772
59455SOL     OW87332  12.249   5.397   3.349  0.2422  0.2870 -0.3218
59455SOL    HW187333  12.258   5.466   3.283 -0.4955  0.8240  0.1185
59455SOL    HW287334  12.185   5.432   3.411 -0.1609 -0.8128 -0.0952
59456SOL     OW87335   9.138  11.315   9.159  0.3442 -0.1976 -0.1213
59456SOL    HW187336   9.130  11.314   9.254  1.7732  2.0913  0.0751
59456SOL    HW287337   9.048  11.303   9.127 -0.4002  0.7340  1.5348
59457SOL     OW87338  11.157   9.640   2.497  0.3238  0.0499  0.3499
59457SOL    HW187339  11.142   9.547   2.476 -0.0457  0.2003 -0.0728
59457SOL    HW287340  11.252   9.649   2.498  0.3704 -0.0315 -1.0688
59458SOL     OW87341   9.852   6.074   3.501  0.2129  0.3527 -0.1528
59458SOL    HW187342   9.859   6.169   3.495 -1.2796  0.3870 -2.1704
59458SOL    HW287343   9.927   6.048   3.555  0.3076  2.6931  0.9637
59459SOL     OW87344   9.189   4.129  11.583 -0.0394  0.0496 -0.3575
59459SOL    HW187345   9.114   4.071  11.576  1.2275 -1.6017 -0.9163
59459SOL    HW287346   9.167   4.189  11.654 -1.0512 -1.6628  0.8432
59460SOL     OW87347   5.494   9.226   5.519 -0.0170 -0.1817 -0.2273
59460SOL    HW187348   5.424   9.193   5.575  0.2972 -0.2451  0.1323
59460SOL    HW287349   5.462   9.212   5.429 -1.1632  1.2503 -0.0861
59461SOL     OW87350  10.321   7.304   4.781  0.6127 -0.2155 -0.2009
59461SOL    HW187351  10.370   7.311   4.863  0.7899  0.9621 -0.3804
59461SOL    HW287352  10.312   7.395   4.751 -1.7166 -0.3899 -0.1701
59462SOL     OW87353   3.918   7.666   4.623  0.2283 -0.4314  0.0828
59462SOL    HW187354   3.873   7.590   4.587 -0.1761 -1.6089  2.8115
59462SOL    HW287355   3.857   7.738   4.610 -1.6590 -1.5878  1.8115
59463SOL     OW87356  10.582  12.172   8.155  0.2332  0.5309  0.2917
59463SOL    HW187357  10.604  12.165   8.062 -1.0642  2.3994 -0.2068
59463SOL    HW287358  10.488  12.189   8.157 -0.3080 -1.9589  2.1103
59464SOL     OW87359  11.329   2.116  12.278  0.4599  0.0042  0.2569
59464SOL    HW187360  11.356   2.191  12.330  1.2869  0.8937 -1.3955
59464SOL    HW287361  11.406   2.059  12.277  0.6600  0.2827 -0.4919
59465SOL     OW87362  11.421   9.539   7.199  0.7040  0.1267  0.0610
59465SOL    HW187363  11.499   9.499   7.238  0.0966 -0.7043  0.4485
59465SOL    HW287364  11.388   9.598   7.266  0.6684  0.0383  0.1215
59466SOL     OW87365   5.682  12.059   4.568 -0.0202  0.5403 -0.2336
59466SOL    HW187366   5.648  11.972   4.545  2.3780 -1.1968  2.0663
59466SOL    HW287367   5.772  12.058   4.535  0.2541  1.8903  0.4219
59467SOL     OW87368   5.592   9.762   4.481  0.7719 -0.0450 -0.3083
59467SOL    HW187369   5.685   9.740   4.484  0.3573 -2.3902 -1.9359
59467SOL    HW287370   5.548   9.689   4.524 -0.4319 -0.1856 -1.6725
59468SOL     OW87371  12.198   2.291   3.131  0.1018 -0.9698  0.4137
59468SOL    HW187372  12.233   2.286   3.220  0.8961 -0.3539  0.1511
59468SOL    HW287373  12.253   2.231   3.080 -1.1728 -2.3181  0.5723
59469SOL     OW87374   0.574  11.197  10.636 -0.3328  0.1969 -0.6590
59469SOL    HW187375   0.551  11.280  10.594  0.1124  0.7262  0.1169
59469SOL    HW287376   0.630  11.153  10.572 -0.0092  0.7988 -0.7958
59470SOL     OW87377   1.804   1.594   3.121  0.1194 -0.0979  0.0413
59470SOL    HW187378   1.740   1.551   3.178 -0.7086 -0.2046 -0.9450
59470SOL    HW287379   1.857   1.648   3.180 -1.8608  1.2080  0.6982
59471SOL     OW87380   2.906   1.614   2.498 -0.5507 -0.3061  0.9933
59471SOL    HW187381   2.854   1.570   2.565 -0.1892  0.2528  1.6546
59471SOL    HW287382   2.952   1.544   2.453 -0.4163 -0.6546  1.6590
59472SOL     OW87383  12.178  12.401  11.150 -0.6805  0.8448 -0.2859
59472SOL    HW187384  12.126  12.467  11.195 -0.3865  1.0694 -0.2747
59472SOL    HW287385  12.120  12.326  11.142 -1.2444  1.3395 -0.9072
59473SOL     OW87386  11.589   2.198   4.737 -0.1635  0.5189  0.4700
59473SOL    HW187387  11.608   2.157   4.822  0.4587  1.7284  0.9446
59473SOL    HW287388  11.596   2.292   4.754  1.0631  0.7722 -1.1671
59474SOL     OW87389   5.600  11.199   4.243 -0.3918 -0.3431  0.1630
59474SOL    HW187390   5.574  11.289   4.260 -0.0203  0.2835 -2.2126
59474SOL    HW287391   5.647  11.172   4.322  2.1120  2.5801 -0.1413
59475SOL     OW87392  11.552   1.743   0.956 -0.2159 -0.0455  0.4627
59475SOL    HW187393  11.502   1.732   1.037 -0.8601  1.9994  0.3987
59475SOL    HW287394  11.636   1.779   0.984  0.0284 -0.4922  0.3101
59476SOL     OW87395   3.296   2.607   8.657 -0.1349  0.0540 -0.4505
59476SOL    HW187396   3.250   2.685   8.627  1.5834  0.8120 -1.2316
59476SOL    HW287397   3.380   2.608   8.610  0.8961 -0.9926  1.2440
59477SOL     OW87398   2.014  11.841   1.505  0.4493  0.0949 -0.1320
59477SOL    HW187399   2.064  11.810   1.580 -3.0923 -2.3316  1.4990
59477SOL    HW287400   2.052  11.794   1.430  1.3678 -0.6831  0.7977
59478SOL     OW87401   4.713   2.402  10.232 -0.1862 -0.0701 -0.1032
59478SOL    HW187402   4.701   2.495  10.248 -1.9667 -0.5151  1.5913
59478SOL    HW287403   4.642   2.360  10.280  0.3315 -2.2916 -1.1360
59479SOL     OW87404   3.729   9.231   6.688  0.3986 -0.4272 -0.1556
59479SOL    HW187405   3.732   9.233   6.783  1.1299  3.5401 -0.0817
59479SOL    HW287406   3.643   9.268   6.666 -0.0134 -1.8670 -1.0771
59480SOL     OW87407   2.984   9.762   3.061 -0.0468 -0.5638 -0.0229
59480SOL    HW187408   3.018   9.725   2.980  0.4836  2.3547 -1.2777
59480SOL    HW287409   2.889   9.753   3.054 -0.0274 -0.0725 -1.1711
59481SOL     OW87410   4.031  12.231   5.939  0.1409 -0.0242 -0.3590
59481SOL    HW187411   3.985  12.304   5.898 -1.1863 -0.5397  0.1857
59481SOL    HW287412   4.055  12.263   6.026 -2.2899 -0.8642  0.7044
59482SOL     OW87413   3.829   6.126  12.239 -0.2811 -0.0218 -1.3574
59482SOL    HW187414   3.883   6.204  12.232  1.0242 -0.7732 -0.2596
59482SOL    HW287415   3.764   6.148  12.306  1.2921 -0.4571  0.4225
59483SOL     OW87416   1.584   6.555   1.916  0.2154 -0.6852  0.5471
59483SOL    HW187417   1.576   6.627   1.854 -1.0794 -1.4452 -0.2158
59483SOL    HW287418   1.629   6.593   1.992  1.1073  0.4654 -0.5086
59484SOL     OW87419   7.635   4.639   4.882 -0.1729  0.3185 -0.0553
59484SOL    HW187420   7.729   4.648   4.900 -0.5749  0.4145  2.1981
59484SOL    HW287421   7.608   4.562   4.933 -1.3372  0.2949 -0.6720
59485SOL     OW87422   3.130   9.005   8.472  0.3377 -0.0195 -0.0434
59485SOL    HW187423   3.218   8.971   8.488 -0.7388 -2.2268  1.7577
59485SOL    HW287424   3.117   9.071   8.539  0.5732  0.2294 -0.2401
59486SOL     OW87425   3.034   7.481  10.725  0.1311  0.2209  0.0853
59486SOL    HW187426   3.065   7.502  10.813 -1.4010  1.2570  0.4070
59486SOL    HW287427   3.113   7.486  10.670  0.9769  0.2762  1.2647
59487SOL     OW87428  11.188   1.524   4.173  0.1276 -0.0917 -0.3123
59487SOL    HW187429  11.108   1.575   4.188  0.6010 -0.0554  2.6641
59487SOL    HW287430  11.158   1.444   4.129 -1.9288 -0.9623  2.4159
59488SOL     OW87431   4.701   8.981   3.620  0.1387 -0.4040  0.3078
59488SOL    HW187432   4.775   9.041   3.623  0.7194 -1.1345  2.1374
59488SOL    HW287433   4.723   8.919   3.550  0.2239  0.6292 -0.5982
59489SOL     OW87434   6.453   1.496   7.353  0.1843 -0.4191  0.2427
59489SOL    HW187435   6.467   1.401   7.353  0.1937 -0.4256 -1.0844
59489SOL    HW287436   6.403   1.512   7.433  1.6478 -1.3046  1.4018
59490SOL     OW87437   1.295   8.364   5.470 -0.1913  0.9189 -0.3434
59490SOL    HW187438   1.230   8.296   5.485 -1.9217  2.3709 -0.7950
59490SOL    HW287439   1.366   8.320   5.423 -1.4604 -0.4606 -1.0445
59491SOL     OW87440   5.226  10.141   8.787 -0.3097 -0.5416 -0.0231
59491SOL    HW187441   5.148  10.136   8.732 -0.4856  1.2189  0.0323
59491SOL    HW287442   5.197  10.182   8.868  0.9501  1.7370 -0.6338
59492SOL     OW87443  11.265   0.808   9.727 -0.5115  0.2520  0.4046
59492SOL    HW187444  11.260   0.722   9.684 -0.3241  0.4955 -0.1116
59492SOL    HW287445  11.181   0.816   9.773 -0.2432 -0.5102  1.0497
59493SOL     OW87446   1.580  11.847  10.256 -0.0996 -0.0556 -0.1410
59493SOL    HW187447   1.647  11.910  10.283 -0.8006  0.8531 -0.4722
59493SOL    HW287448   1.506  11.866  10.313  0.2444 -1.7357  0.9198
59494SOL     OW87449   2.030   4.396   1.556  0.0596 -0.4185  0.4597
59494SOL    HW187450   2.002   4.459   1.622  0.4990  1.2384 -0.8791
59494SOL    HW287451   2.059   4.449   1.482 -0.0232 -2.2032 -0.9257
59495SOL     OW87452   0.465   2.334   1.503 -0.3248 -0.7762  0.4436
59495SOL    HW187453   0.507   2.261   1.548  0.9318  0.2904  1.0663
59495SOL    HW287454   0.499   2.330   1.414 -0.2065 -0.9093  0.4936
59496SOL     OW87455   4.415   0.965   5.469  0.4220 -0.1519  0.5466
59496SOL    HW187456   4.493   0.940   5.518  1.3513  0.5998 -0.5058
59496SOL    HW287457   4.357   1.006   5.533  1.1511 -0.1538  1.2108
59497SOL     OW87458  10.431  11.208   8.945 -0.1782  0.2889 -0.6045
59497SOL    HW187459  10.460  11.282   8.891  0.6201  0.9744  0.6816
59497SOL    HW287460  10.439  11.241   9.035 -0.9786 -0.9696 -0.0531
59498SOL     OW87461  10.112   8.725   0.935 -0.0105 -0.3982 -0.2648
59498SOL    HW187462  10.141   8.742   1.025  0.7262 -1.4694 -0.2814
59498SOL    HW287463  10.066   8.641   0.940  0.2639 -0.5984 -0.9202
59499SOL     OW87464   7.623  11.356   4.042 -0.5876  0.8097 -0.4018
59499SOL    HW187465   7.631  11.337   4.136 -0.7636 -1.2437 -0.7545
59499SOL    HW287466   7.537  11.397   4.033  0.2304  2.8814  0.5536
59500SOL     OW87467   6.732   0.885   4.260 -0.1230 -0.5328 -0.2685
59500SOL    HW187468   6.761   0.960   4.208 -0.4825 -1.5477 -2.0210
59500SOL    HW287469   6.813   0.841   4.287  0.0693  0.0402  0.0988
59501SOL     OW87470   6.827   8.637   5.037  0.5845 -0.0283 -0.5151
59501SOL    HW187471   6.886   8.607   5.105  0.4090 -2.7530 -1.4639
59501SOL    HW287472   6.757   8.683   5.084  0.4409 -1.8748  1.1766
59502SOL     OW87473   3.829   8.832   4.700  0.8647  0.1719  0.2936
59502SOL    HW187474   3.918   8.867   4.698  0.4456  1.2933  0.5351
59502SOL    HW287475   3.836   8.747   4.657  1.7528  0.9539 -1.2156
59503SOL     OW87476   3.385   5.260   4.937  0.3970  0.2353 -0.5499
59503SOL    HW187477   3.374   5.343   4.983  0.2678 -0.8602  1.4927
59503SOL    HW287478   3.299   5.243   4.897  0.4482  1.0936 -1.0564
59504SOL     OW87479   0.425   5.705   2.833  0.3053 -0.2959 -0.4318
59504SOL    HW187480   0.334   5.687   2.856 -1.0189  1.8459 -3.3073
59504SOL    HW287481   0.443   5.791   2.872 -0.1878  0.9018 -2.6837
59505SOL     OW87482  11.023   6.631   4.820  0.2766  0.5040  0.5694
59505SOL    HW187483  10.997   6.723   4.816 -1.1711  0.1869  1.6529
59505SOL    HW287484  11.104   6.632   4.872 -0.6503  1.0368  2.0688
59506SOL     OW87485   5.446   9.649  11.099  0.0317  0.0865 -0.2730
59506SOL    HW187486   5.449   9.566  11.145 -2.2918 -0.2854 -0.6944
59506SOL    HW287487   5.531   9.689  11.117  1.6466 -2.7817 -0.9213
59507SOL     OW87488  10.270  10.933   3.856 -0.9911 -0.3278  0.0605
59507SOL    HW187489  10.204  10.939   3.786  0.1686  0.4611 -1.0104
59507SOL    HW287490  10.314  11.018   3.854 -2.1840  0.4966  3.0991
59508SOL     OW87491   9.251   4.219   6.692 -0.3988  0.6447  0.4231
59508SOL    HW187492   9.305   4.295   6.712  1.2803 -0.6710  1.1399
59508SOL    HW287493   9.288   4.183   6.612 -0.9474  0.3815  0.2835
59509SOL     OW87494  11.206   9.292  11.928 -0.7571 -0.7949  0.6937
59509SOL    HW187495  11.179   9.231  11.859 -0.7858  0.5921 -0.5687
59509SOL    HW287496  11.294   9.320  11.902 -1.7494  1.6724 -0.2024
59510SOL     OW87497   6.110   3.861   8.282 -0.3420  0.0987 -0.3756
59510SOL    HW187498   6.174   3.904   8.338  1.4363  3.0663 -4.1988
59510SOL    HW287499   6.157   3.788   8.243 -1.3278 -1.4651  1.2031
59511SOL     OW87500  11.785   9.031   6.682  0.5892  0.1921  0.0102
59511SOL    HW187501  11.727   8.956   6.667 -0.0986  0.3961  1.4292
59511SOL    HW287502  11.765   9.058   6.772  1.4499  1.5421 -0.1855
59512SOL     OW87503   0.295   5.800   5.084  0.5516 -0.2794 -0.2299
59512SOL    HW187504   0.291   5.873   5.022 -0.5428 -0.6598 -0.6481
59512SOL    HW287505   0.369   5.820   5.141  0.6936  0.8025 -0.7696
59513SOL     OW87506   6.951  11.169  11.369 -0.0285 -0.2043 -0.3661
59513SOL    HW187507   6.984  11.147  11.456 -0.0809 -0.9114 -0.5170
59513SOL    HW287508   6.890  11.098  11.349  1.0780 -0.8441 -1.5916
59514SOL     OW87509   1.065  11.742   2.271 -0.0423  0.1363  0.3419
59514SOL    HW187510   1.081  11.830   2.234  0.5760  0.2601  0.8972
59514SOL    HW287511   0.976  11.747   2.305 -0.4253  0.1927 -0.6394
59515SOL     OW87512   7.691   3.537  10.967 -0.3264  0.4255 -0.3654
59515SOL    HW187513   7.664   3.595  10.896  1.4452 -0.0804 -1.5252
59515SOL    HW287514   7.608   3.504  11.003 -1.3090  2.0707 -0.9931
59516SOL     OW87515  10.643   4.411   5.152 -0.1027 -0.1042 -0.5206
59516SOL    HW187516  10.663   4.504   5.162  0.3352 -0.3580  1.4806
59516SOL    HW287517  10.726   4.370   5.130  0.2492 -0.2819  0.9885
59517SOL     OW87518   0.270   3.971   3.803  0.4653 -0.3263  0.2873
59517SOL    HW187519   0.345   3.913   3.814 -1.5055 -3.0444  0.2464
59517SOL    HW287520   0.264   4.018   3.886  0.5186 -2.2663  1.4567
59518SOL     OW87521   5.087   2.971  11.123 -0.1259  0.6136 -0.1059
59518SOL    HW187522   5.124   2.900  11.070 -0.2129 -0.4091  1.1444
59518SOL    HW287523   5.073   3.043  11.061 -0.8481 -0.7412 -1.5945
59519SOL     OW87524   1.793   7.857   3.624  0.5130  0.1954  0.0563
59519SOL    HW187525   1.788   7.906   3.706 -0.4460 -0.4794  0.4279
59519SOL    HW287526   1.778   7.921   3.555  0.5199  0.6290  0.4592
59520SOL     OW87527   0.919   2.311  10.268 -1.0021  0.5455  0.1397
59520SOL    HW187528   0.918   2.362  10.349 -0.2761  1.1047 -0.1910
59520SOL    HW287529   0.965   2.367  10.205 -2.1534  0.4188 -0.8625
59521SOL     OW87530   9.953   5.697   3.760  0.4565  0.4320  0.4640
59521SOL    HW187531  10.038   5.653   3.763  0.4091  0.1440 -1.4608
59521SOL    HW287532   9.969   5.783   3.799  1.3850  0.0355  0.9871
59522SOL     OW87533   4.186   2.297   9.109 -0.0422  0.1518 -0.0233
59522SOL    HW187534   4.202   2.389   9.131 -0.7498  0.4011 -0.5036
59522SOL    HW287535   4.140   2.301   9.025 -0.0968 -0.6459 -0.0328
59523SOL     OW87536   8.669   3.681   2.491 -0.2930 -0.3840  0.4366
59523SOL    HW187537   8.590   3.676   2.438  0.3955  1.4465 -0.8555
59523SOL    HW287538   8.723   3.607   2.462 -0.3476  0.0166 -0.7334
59524SOL     OW87539   9.925   7.091  11.447 -0.3727  0.2592  0.2823
59524SOL    HW187540   9.920   7.079  11.542  0.5137 -2.1777  0.0949
59524SOL    HW287541   9.899   7.006  11.411  1.5773  0.3490 -1.5647
59525SOL     OW87542   3.432  12.320   2.669  0.1339 -0.3345  0.2385
59525SOL    HW187543   3.406  12.410   2.687 -0.1879 -0.3341 -0.2332
59525SOL    HW287544   3.435  12.279   2.756  0.4717  0.1732  0.4773
59526SOL     OW87545   7.113  11.038   5.449  0.1221  0.2946  0.0173
59526SOL    HW187546   7.057  10.963   5.429  0.7439  0.0041 -0.6759
59526SOL    HW287547   7.053  11.106   5.480 -0.4820 -0.3762  0.3481
59527SOL     OW87548   3.957   9.027   4.309 -0.4612 -0.3248 -0.1751
59527SOL    HW187549   3.971   9.122   4.311  0.7006 -0.4792 -0.0651
59527SOL    HW287550   3.862   9.016   4.304 -0.6576  0.8205  0.8485
59528SOL     OW87551   4.042   2.344   8.884  0.4143  0.1494  0.0933
59528SOL    HW187552   3.954   2.308   8.891  0.3357  0.5761  1.6119
59528SOL    HW287553   4.037   2.408   8.812 -0.4991  0.1575  0.1561
59529SOL     OW87554  11.031  11.168  11.294 -0.2022  0.2787 -0.8137
59529SOL    HW187555  10.943  11.158  11.258 -0.1356 -0.6854 -0.7369
59529SOL    HW287556  11.070  11.081  11.286 -0.5830 -0.3308  2.5973
59530SOL     OW87557  10.485  12.526  10.759 -0.1085 -0.0485  0.6799
59530SOL    HW187558  10.468  12.508  10.666  0.9942 -2.6682  0.8877
59530SOL    HW287559  10.499  12.620  10.763 -1.9514  0.4244 -1.4885
59531SOL     OW87560  11.642  12.506   0.324  0.0928  0.1728 -0.1397
59531SOL    HW187561  11.720  12.461   0.356  0.2386 -0.0110 -0.7364
59531SOL    HW287562  11.654  12.511   0.229 -0.5813  0.2154 -0.2318
59532SOL     OW87563   3.568   8.812  11.364  0.0217  0.1270 -0.6035
59532SOL    HW187564   3.567   8.868  11.442 -1.0063 -1.2666  0.4236
59532SOL    HW287565   3.605   8.729  11.394  0.1387 -0.2545 -1.7467
59533SOL     OW87566   6.576   1.946  12.335  0.2203  0.1413  0.2614
59533SOL    HW187567   6.483   1.928  12.348  0.3289  0.1495  1.0878
59533SOL    HW287568   6.586   2.039  12.352  0.4750  0.0274  0.7623
59534SOL     OW87569   1.355   7.104   2.826 -0.2070  0.3311 -0.2730
59534SOL    HW187570   1.444   7.139   2.820 -0.3179  0.8318  0.8041
59534SOL    HW287571   1.336   7.073   2.737  0.4065  1.7871 -0.9575
59535SOL     OW87572  11.037   0.521   8.716  0.0028 -0.0448  0.1580
59535SOL    HW187573  11.052   0.430   8.690 -0.3390  0.1794 -0.8866
59535SOL    HW287574  10.942   0.532   8.709  0.0784  0.4857 -0.0391
59536SOL     OW87575   1.592   8.988   1.107 -0.5829 -0.2016  0.4759
59536SOL    HW187576   1.535   9.030   1.172 -0.6226  0.5310 -0.0291
59536SOL    HW287577   1.632   9.060   1.060  0.1434 -0.7248  0.2795
59537SOL     OW87578   6.209   7.196   1.067 -0.2560  0.3771  0.4277
59537SOL    HW187579   6.150   7.185   0.993 -0.0644 -2.4297  0.5745
59537SOL    HW287580   6.286   7.239   1.030 -0.9814  0.8947 -0.5320
59538SOL     OW87581  12.100  10.227   1.261  0.6313  0.1416 -0.2011
59538SOL    HW187582  12.107  10.315   1.298 -1.2058  1.5279 -2.7894
59538SOL    HW287583  12.020  10.192   1.300  0.9786 -0.1107  0.2916
59539SOL     OW87584   9.534   1.491   9.651  0.7404  0.0990  0.1310
59539SOL    HW187585   9.479   1.555   9.695  0.1065  0.4692 -1.1720
59539SOL    HW287586   9.565   1.535   9.572  1.3025 -0.7788 -0.1581
59540SOL     OW87587  11.882   2.076   3.068  0.4989  0.2917 -0.0164
59540SOL    HW187588  11.955   2.076   3.007  1.4604 -0.7062  1.0796
59540SOL    HW287589  11.920   2.104   3.151 -0.4095  0.0046  0.5163
59541SOL     OW87590   0.757   1.953   7.933  0.0650  0.8541 -0.6334
59541SOL    HW187591   0.665   1.958   7.904 -0.2259 -1.0051 -0.1297
59541SOL    HW287592   0.761   1.876   7.988  1.8251  1.2719 -0.1083
59542SOL     OW87593   3.548   8.322   5.506 -0.1884 -0.6318 -0.1634
59542SOL    HW187594   3.559   8.407   5.547 -2.0614 -0.8568  0.8819
59542SOL    HW287595   3.591   8.260   5.566 -1.1849 -0.7275  0.4602
59543SOL     OW87596   6.808  10.734   8.713  0.0480  0.1011 -0.1479
59543SOL    HW187597   6.856  10.745   8.795  0.4621 -0.4424 -0.3142
59543SOL    HW287598   6.765  10.649   8.722  0.5957 -0.2472 -0.7421
59544SOL     OW87599   8.810  11.083   4.330 -0.2783  0.0482 -0.0284
59544SOL    HW187600   8.778  10.993   4.326  1.8507 -0.7389 -0.5757
59544SOL    HW287601   8.869  11.084   4.405  1.2397  0.4236 -1.1871
59545SOL     OW87602   4.988   0.067   0.534  0.2426 -0.4505  0.3060
59545SOL    HW187603   4.932   0.072   0.611  0.0018 -0.2468  0.1226
59545SOL    HW287604   5.076   0.051   0.568 -0.1269 -2.2047  0.5397
59546SOL     OW87605   0.253  11.830   2.338 -0.9939  0.0495 -0.1973
59546SOL    HW187606   0.236  11.740   2.366  0.8000 -0.6744 -1.2570
59546SOL    HW287607   0.199  11.841   2.259 -1.1280 -0.1443 -0.1321
59547SOL     OW87608   4.702   7.765   6.912  0.6640 -0.2271  0.5367
59547SOL    HW187609   4.663   7.850   6.933  1.4234  0.1096  0.5959
59547SOL    HW287610   4.653   7.703   6.966 -1.4120 -0.1531 -1.1326
59548SOL     OW87611   4.228   0.391   0.383  0.1399  0.3980 -0.4679
59548SOL    HW187612   4.140   0.411   0.351 -0.0274  0.2159 -0.1328
59548SOL    HW287613   4.267   0.335   0.316 -1.5997 -3.2635  1.3127
59549SOL     OW87614   9.772   6.783   6.154 -0.6884  0.7024  0.4081
59549SOL    HW187615   9.761   6.778   6.249  0.3706 -0.5170  0.4942
59549SOL    HW287616   9.739   6.869   6.130  1.3260  2.0711  2.2057
59550SOL     OW87617   4.747   5.219  10.507  0.0993  0.2114 -0.0556
59550SOL    HW187618   4.805   5.239  10.434  1.4717 -2.9562 -0.0206
59550SOL    HW287619   4.659   5.216  10.468  0.5475  0.5896 -1.1196
59551SOL     OW87620   1.850   1.126   3.113 -0.2361  0.2576 -0.4324
59551SOL    HW187621   1.886   1.189   3.051 -1.2693  2.1843  0.8268
59551SOL    HW287622   1.756   1.124   3.092 -0.0549 -1.8631 -1.2624
59552SOL     OW87623  10.467   5.612   4.666 -0.3428 -0.3488  0.1213
59552SOL    HW187624  10.556   5.613   4.700 -0.8327  0.6903  1.4827
59552SOL    HW287625  10.467   5.543   4.600  1.7818  0.4632 -0.8102
59553SOL     OW87626  11.399   7.363   5.524  0.5761  0.0784  0.5332
59553SOL    HW187627  11.434   7.395   5.607  0.2539  1.1226  0.2748
59553SOL    HW287628  11.471   7.372   5.462  0.4573  0.3776  0.4402
59554SOL     OW87629   0.738   9.419   3.000 -0.3078 -0.0496 -0.1178
59554SOL    HW187630   0.804   9.382   3.059  0.2114  1.0033 -0.0148
59554SOL    HW287631   0.678   9.347   2.983  0.4970 -0.8474  0.3282
59555SOL     OW87632  11.201   4.197   2.631  0.1137 -0.0610  0.6294
59555SOL    HW187633  11.172   4.284   2.603 -1.8276 -0.5691  0.9186
59555SOL    HW287634  11.220   4.150   2.550  0.3063  0.3447  0.4367
59556SOL     OW87635   2.169  11.919   2.391  0.3889  0.8107 -0.1075
59556SOL    HW187636   2.210  11.978   2.454 -0.1185  1.5718 -0.4675
59556SOL    HW287637   2.094  11.969   2.358  1.5140  1.0456 -2.4522
59557SOL     OW87638   9.227   8.994   0.567  0.0366  0.8020  0.5870
59557SOL    HW187639   9.224   8.985   0.472  0.6237  1.2208  0.5248
59557SOL    HW287640   9.318   8.975   0.590 -0.3730 -0.5122  1.2030
59558SOL     OW87641   3.878   2.060   2.169  0.0544  0.3989 -0.4420
59558SOL    HW187642   3.862   1.967   2.188 -1.1680  0.4543 -1.1274
59558SOL    HW287643   3.947   2.060   2.104  1.3563  0.0560  0.8875
59559SOL     OW87644   3.372   2.653   4.317 -0.3570 -0.2881 -0.4948
59559SOL    HW187645   3.365   2.577   4.375  2.1815  0.3704  0.8023
59559SOL    HW287646   3.349   2.620   4.231  1.3186 -2.7416 -0.0971
59560SOL     OW87647   9.507   1.022  10.963  0.0822  0.1906  0.0145
59560SOL    HW187648   9.525   1.106  11.007  0.5618  0.3145 -0.4117
59560SOL    HW287649   9.546   1.031  10.876 -0.1145 -0.3713 -0.1383
59561SOL     OW87650   2.253   5.331   7.950 -0.1755  0.0721 -0.0428
59561SOL    HW187651   2.208   5.307   7.869  0.9578  0.9023 -0.9520
59561SOL    HW287652   2.341   5.293   7.940 -0.2088 -0.3482  1.0877
59562SOL     OW87653   8.274   5.078   9.603  0.2280 -0.6003 -0.2822
59562SOL    HW187654   8.320   5.158   9.629 -0.7366  0.3619 -1.3823
59562SOL    HW287655   8.299   5.013   9.669  1.2585  0.5215  0.4829
59563SOL     OW87656   9.203  11.132  11.444 -0.1840 -0.7403 -0.1562
59563SOL    HW187657   9.116  11.172  11.447  1.0859  2.2212  1.1521
59563SOL    HW287658   9.248  11.180  11.374  1.4860  0.4490  1.6346
59564SOL     OW87659   7.883   9.357   6.230  0.3655  0.0141  0.4849
59564SOL    HW187660   7.918   9.300   6.298  0.3177 -0.3350  0.2196
59564SOL    HW287661   7.840   9.298   6.168 -1.4156  0.4998  1.2034
59565SOL     OW87662   9.553   8.191   4.992  0.2630 -0.0126 -0.2015
59565SOL    HW187663   9.552   8.281   4.958 -1.3721 -0.2789 -0.9207
59565SOL    HW287664   9.496   8.194   5.069  0.8467 -0.2742  0.2458
59566SOL     OW87665   5.132   0.789   5.384 -0.2830  0.1482 -0.3239
59566SOL    HW187666   5.095   0.866   5.340 -1.7715 -0.1792  0.3075
59566SOL    HW287667   5.203   0.825   5.437 -2.0036  1.4110  1.2761
59567SOL     OW87668   8.988   3.771  12.330 -0.3396 -0.1574  0.4602
59567SOL    HW187669   8.992   3.690  12.382  0.7678 -1.0276 -0.8977
59567SOL    HW287670   8.983   3.740  12.240  0.6310  1.2913 -0.1133
59568SOL     OW87671   1.100   8.878   1.678  0.2824 -0.1525  0.1302
59568SOL    HW187672   1.154   8.809   1.639 -0.5756 -1.9325  1.8682
59568SOL    HW287673   1.078   8.936   1.606  2.5969 -0.6413 -1.0501
59569SOL     OW87674  12.232   7.144   2.111 -0.4008 -0.4338 -0.3285
59569SOL    HW187675  12.321   7.177   2.119 -0.3309 -0.7750  0.4802
59569SOL    HW287676  12.224   7.081   2.183 -1.1164 -0.8091 -0.7248
59570SOL     OW87677   6.035   7.873   8.495 -0.2055  0.3952  0.4793
59570SOL    HW187678   6.102   7.940   8.504 -1.0920  1.4522 -0.4541
59570SOL    HW287679   5.973   7.892   8.566  0.0512 -0.0914  0.8460
59571SOL     OW87680   8.335   0.679   6.754 -0.1298 -0.2779 -0.1135
59571SOL    HW187681   8.318   0.757   6.700  0.3908 -0.4933 -0.6103
59571SOL    HW287682   8.384   0.621   6.695  1.6891  0.0476  1.0153
59572SOL     OW87683  11.651  12.343   5.095 -0.2064 -0.7812  0.2545
59572SOL    HW187684  11.562  12.307   5.090 -0.7805  0.2064  2.4369
59572SOL    HW287685  11.699  12.280   5.149 -0.4442  0.2326  1.6837
59573SOL     OW87686   4.193   1.832   4.477 -0.2099  0.0236 -0.3671
59573SOL    HW187687   4.232   1.868   4.397 -0.9131 -0.0750 -0.7602
59573SOL    HW287688   4.157   1.908   4.523  1.0371  0.2055  0.3397
59574SOL     OW87689  11.716   1.912   9.603 -0.1774  0.1774 -0.0963
59574SOL    HW187690  11.648   1.909   9.670 -0.8558  2.6061 -0.5903
59574SOL    HW287691  11.781   1.974   9.638 -0.3133  1.1186 -1.4569
59575SOL     OW87692   2.691   2.157   3.600  0.2337  0.1968  0.1236
59575SOL    HW187693   2.643   2.091   3.549  3.0358 -2.9315  1.1761
59575SOL    HW287694   2.753   2.193   3.537  1.1899 -0.9564  0.3708
59576SOL     OW87695   4.467   1.832  11.580  0.0791 -0.8707 -0.2499
59576SOL    HW187696   4.501   1.921  11.593 -1.2929 -0.3982  0.3176
59576SOL    HW287697   4.387   1.845  11.529 -0.5093 -1.7087  0.4421
59577SOL     OW87698   0.803   5.135   7.093 -0.0740  0.1206 -0.4398
59577SOL    HW187699   0.771   5.045   7.082  0.5015 -0.2697  0.9364
59577SOL    HW287700   0.744   5.174   7.157  1.4012 -0.2406  1.2292
59578SOL     OW87701   6.045   2.894   9.452 -0.6562  0.4319  0.3697
59578SOL    HW187702   5.953   2.883   9.476 -0.5231  0.1558  0.7758
59578SOL    HW287703   6.044   2.961   9.384 -1.2026  0.0854  0.0248
59579SOL     OW87704   5.497   0.203   4.608  0.3173 -0.3386 -0.0080
59579SOL    HW187705   5.583   0.193   4.567  0.3269  0.8719 -0.3110
59579SOL    HW287706   5.449   0.262   4.551 -0.3918 -0.2512  0.6564
59580SOL     OW87707   5.072   1.778   3.888  0.0917  0.0333  0.1677
59580SOL    HW187708   5.086   1.840   3.816 -1.2216  0.5932  0.3671
59580SOL    HW287709   4.979   1.755   3.883  0.2744 -0.9292  0.8901
59581SOL     OW87710  12.380   1.471   8.931  0.8489 -0.0678 -0.5472
59581SOL    HW187711  12.333   1.433   8.857  0.9355 -2.6483  0.6218
59581SOL    HW287712  12.362   1.565   8.925 -1.6339 -0.5505 -2.0847
59582SOL     OW87713   9.239   5.831   8.502  0.1049  0.2374 -0.3077
59582SOL    HW187714   9.159   5.830   8.448  1.5636  1.4338 -2.6469
59582SOL    HW287715   9.234   5.913   8.551 -0.4359 -0.0594  0.1516
59583SOL     OW87716   3.738   6.850   1.825  0.2890 -0.4596 -0.0161
59583SOL    HW187717   3.678   6.919   1.853  0.7893  0.3752 -0.9448
59583SOL    HW287718   3.695   6.769   1.852 -1.6996  0.0537 -1.4393
59584SOL     OW87719   2.580  11.394  10.128  0.4269 -0.7116  0.0871
59584SOL    HW187720   2.518  11.358  10.192 -0.6154 -0.2706 -0.6441
59584SOL    HW287721   2.556  11.351  10.046 -1.0294  1.7637 -0.8804
59585SOL     OW87722   5.498   9.585   2.270 -0.8378 -0.1238 -0.0271
59585SOL    HW187723   5.529   9.587   2.180  0.1875  1.5083  0.3197
59585SOL    HW287724   5.568   9.541   2.319 -1.6233 -1.4871 -0.0681
59586SOL     OW87725   6.279   4.210   6.708  0.6230 -0.3720  0.0325
59586SOL    HW187726   6.227   4.289   6.724  0.1115 -0.7292  0.1699
59586SOL    HW287727   6.345   4.237   6.644 -0.8909 -0.3560 -1.6099
59587SOL     OW87728   6.514   1.087   7.166  0.4449 -0.1183  0.0448
59587SOL    HW187729   6.488   1.082   7.074  0.6941 -1.3303  0.0223
59587SOL    HW287730   6.545   0.999   7.187 -0.8465 -0.2463  1.6535
59588SOL     OW87731   4.800   7.533   7.193  0.4726  0.0974 -0.4480
59588SOL    HW187732   4.790   7.451   7.241 -0.4411  0.6845  0.4120
59588SOL    HW287733   4.712   7.552   7.160  1.4471 -1.5729 -4.6257
59589SOL     OW87734   7.065   3.316   7.141 -0.7788 -0.2510 -0.0089
59589SOL    HW187735   7.155   3.286   7.148 -1.0734 -1.2651 -0.4328
59589SOL    HW287736   7.068   3.408   7.170  0.6225  0.1450 -1.3034
59590SOL     OW87737   3.791   3.592   8.908 -0.2671 -0.3425 -0.1775
59590SOL    HW187738   3.760   3.607   8.819  1.5093  0.5159 -0.6806
59590SOL    HW287739   3.826   3.503   8.907 -0.6159 -0.4825 -0.2092
59591SOL     OW87740   3.928   5.168   1.657  0.4315 -0.1710  0.5217
59591SOL    HW187741   4.010   5.189   1.612 -0.2055  1.0490 -0.1360
59591SOL    HW287742   3.870   5.241   1.635 -1.1404 -1.4670  0.1721
59592SOL     OW87743   9.220   3.392   5.524  0.0211  0.2823  0.1158
59592SOL    HW187744   9.183   3.468   5.478 -0.6476  0.5297  1.0048
59592SOL    HW287745   9.145   3.355   5.571  0.9210  1.0197  2.3034
59593SOL     OW87746   2.340   1.042  11.925 -0.6806 -0.3595 -0.4729
59593SOL    HW187747   2.290   0.989  11.863  0.8951 -1.2455 -1.0501
59593SOL    HW287748   2.379   1.111  11.872 -1.7519  0.6880  0.0744
59594SOL     OW87749   3.122   6.040   3.956  0.1573  0.3859 -0.4260
59594SOL    HW187750   3.185   6.093   4.004  0.0239 -0.2171  0.4231
59594SOL    HW287751   3.175   5.977   3.908  0.2206  0.1467 -0.0402
59595SOL     OW87752   3.992   6.767   6.331 -0.9056 -0.0350  0.2856
59595SOL    HW187753   3.946   6.785   6.249  0.6782 -0.7963 -0.8236
59595SOL    HW287754   3.963   6.836   6.391 -4.4154 -1.1333  0.1117
59596SOL     OW87755  10.943  11.094   5.794  0.2001  0.0396 -0.4602
59596SOL    HW187756  10.986  11.018   5.834  2.2022  0.5076 -1.5440
59596SOL    HW287757  10.929  11.154   5.866  1.3098 -0.1923 -0.0274
59597SOL     OW87758   0.561  11.637   6.646 -0.3169 -0.0280  0.2241
59597SOL    HW187759   0.645  11.655   6.604 -0.8798  1.7800 -0.1857
59597SOL    HW287760   0.553  11.541   6.642  1.0745 -0.1320 -0.9820
59598SOL     OW87761   4.541   5.556   1.134  0.0701  0.4031  1.2940
59598SOL    HW187762   4.541   5.512   1.049  0.6155  1.9241  0.4752
59598SOL    HW287763   4.524   5.486   1.197  1.5321 -1.0947  0.1128
59599SOL     OW87764   5.981   0.554  12.501  0.1065  0.3139  0.6134
59599SOL    HW187765   6.030   0.472  12.504 -1.1883 -0.6473 -1.8175
59599SOL    HW287766   5.928   0.553  12.581  1.4292 -0.2850  1.5283
59600SOL     OW87767   9.376   0.807   4.414  0.0330  0.2206  0.3509
59600SOL    HW187768   9.441   0.778   4.479 -0.4466 -0.0885  0.7034
59600SOL    HW287769   9.317   0.732   4.405  0.6846 -0.1502 -1.2470
59601SOL     OW87770   1.624   4.383   1.410 -0.7123  0.1617 -0.1673
59601SOL    HW187771   1.589   4.340   1.332 -1.2440  0.7042 -0.2383
59601SOL    HW287772   1.614   4.319   1.480 -0.0868 -0.3864 -0.5712
59602SOL     OW87773   7.383   7.973   4.803 -0.0054  0.6758 -0.3387
59602SOL    HW187774   7.310   7.990   4.862 -1.0562 -0.3727 -1.2899
59602SOL    HW287775   7.360   8.020   4.722  0.8029  1.0521 -0.3626
59603SOL     OW87776   9.782   3.544   1.293  0.2922 -0.2191 -0.4461
59603SOL    HW187777   9.752   3.614   1.234 -0.7480 -0.0901  0.2105
59603SOL    HW287778   9.876   3.538   1.277  0.1960  0.4961 -1.3970
59604SOL     OW87779  10.292   6.970  10.284  0.2377 -0.0046 -0.0607
59604SOL    HW187780  10.377   6.928  10.270  0.0272 -0.9639  1.3101
59604SOL    HW287781  10.286   6.982  10.379 -2.2264 -2.3843  0.2269
59605SOL     OW87782   2.600   4.144   9.573  0.0964  0.6004  0.5462
59605SOL    HW187783   2.641   4.126   9.489  1.9572  0.4338  1.4193
59605SOL    HW287784   2.536   4.074   9.585 -1.5216  1.6397 -1.4788
59606SOL     OW87785  11.119   3.380   9.395  1.0430  0.1219 -0.1076
59606SOL    HW187786  11.106   3.292   9.428  2.7738 -0.5155 -0.9813
59606SOL    HW287787  11.114   3.436   9.473  0.1721 -0.7553  0.4886
59607SOL     OW87788   8.346   8.767  12.140  0.5860  0.4225 -0.6941
59607SOL    HW187789   8.251   8.772  12.126  0.5404 -0.1225 -0.6161
59607SOL    HW287790   8.359   8.680  12.177  0.9662  0.9686  0.5123
59608SOL     OW87791   6.126   4.138   5.029 -0.3044  0.4197 -0.5491
59608SOL    HW187792   6.047   4.089   5.053  1.1169 -1.3108  0.8758
59608SOL    HW287793   6.171   4.083   4.965  1.3569 -0.3004  1.1363
59609SOL     OW87794   2.302   4.349   2.834 -0.2645 -0.0424 -0.6521
59609SOL    HW187795   2.259   4.331   2.751 -0.8595  1.7221 -0.7639
59609SOL    HW287796   2.260   4.429   2.867 -0.7324 -1.2064  1.8327
59610SOL     OW87797   7.405   0.861  11.898 -0.0057 -0.1245 -0.5232
59610SOL    HW187798   7.366   0.774  11.903  0.1649 -0.3066 -2.1039
59610SOL    HW287799   7.404   0.884  11.805  0.6586  1.2406 -0.2276
59611SOL     OW87800   4.868  10.333   0.796 -0.3462 -0.4333 -0.3416
59611SOL    HW187801   4.841  10.383   0.873  0.0549 -0.9322  0.1306
59611SOL    HW287802   4.855  10.241   0.820 -1.5218 -0.5622 -1.3683
59612SOL     OW87803   3.927   1.799  10.505  0.2608  0.1767  0.1068
59612SOL    HW187804   3.952   1.758  10.588  0.0106  1.5819  0.9087
59612SOL    HW287805   4.006   1.794  10.452  0.1895 -1.4612  0.1060
59613SOL     OW87806   1.980   3.270   7.641  0.6557 -0.3098  0.3530
59613SOL    HW187807   2.007   3.244   7.553  2.1353  1.4457  0.2240
59613SOL    HW287808   1.886   3.254   7.642  0.6486 -0.6591 -1.4575
59614SOL     OW87809  11.992   4.683   9.765 -0.1041 -0.5923  0.0668
59614SOL    HW187810  12.043   4.710   9.689 -0.8976 -1.1089 -0.6662
59614SOL    HW287811  12.044   4.711   9.841 -0.5193  2.3616 -0.5981
59615SOL     OW87812   5.279   8.056   1.974 -0.1078 -0.0612 -0.4199
59615SOL    HW187813   5.338   7.982   1.958  0.5456  0.3126  0.2248
59615SOL    HW287814   5.334   8.133   1.963 -0.8465  0.3523 -1.3459
59616SOL     OW87815   3.207   4.911   3.943 -0.1485  0.1340  0.2483
59616SOL    HW187816   3.219   4.992   3.993  0.5133 -0.4126  1.0034
59616SOL    HW287817   3.221   4.937   3.852 -1.9539  1.2787  0.2340
59617SOL     OW87818   9.950   8.100   3.284  0.2343  0.5688 -0.5055
59617SOL    HW187819   9.926   8.122   3.194  0.7501  1.7977 -0.3604
59617SOL    HW287820   9.888   8.150   3.338  0.5361  0.5913 -0.1745
59618SOL     OW87821  10.734   8.737  10.705 -0.9870 -0.2588 -0.3905
59618SOL    HW187822  10.685   8.804  10.658 -1.5392  0.6035  1.3453
59618SOL    HW287823  10.826   8.762  10.694 -1.2190  1.4900  1.1453
59619SOL     OW87824   9.425   1.932  12.253  0.4588  0.7129 -0.0793
59619SOL    HW187825   9.330   1.948  12.251  0.0808 -1.2931  0.1154
59619SOL    HW287826   9.463   2.005  12.204 -1.0660  2.3125  1.0086
59620SOL     OW87827  10.501  12.178   4.044  0.1276  0.0754  0.8502
59620SOL    HW187828  10.563  12.197   4.115  0.4789 -2.8591  1.4624
59620SOL    HW287829  10.471  12.089   4.063 -1.2900 -0.0287 -1.6238
59621SOL     OW87830   0.826   1.580   2.093  0.2911  0.5916 -0.4223
59621SOL    HW187831   0.748   1.613   2.138 -0.6367 -1.6556 -0.2370
59621SOL    HW287832   0.899   1.609   2.148 -0.6966 -0.6083  1.6368
59622SOL     OW87833   3.267   4.853   9.633  0.3974 -0.3258 -0.0588
59622SOL    HW187834   3.249   4.946   9.645 -0.4676 -0.4954  0.0882
59622SOL    HW287835   3.359   4.848   9.610  0.2981  0.6157 -0.6819
59623SOL     OW87836  12.165  12.543   0.767  0.2831 -0.3400 -0.2012
59623SOL    HW187837  12.161  12.543   0.671 -0.8104  1.2093 -0.2076
59623SOL    HW287838  12.124  12.461   0.793  0.2761 -0.6187 -1.0621
59624SOL     OW87839   1.574   8.794   1.815  1.2851  0.0834  0.7373
59624SOL    HW187840   1.611   8.801   1.903  0.5799 -0.4776  1.0951
59624SOL    HW287841   1.553   8.884   1.791  0.3366  0.1326  1.6649
59625SOL     OW87842   0.742   1.268   9.716 -0.5726  0.6629  0.1558
59625SOL    HW187843   0.789   1.194   9.678 -1.1135 -0.4020  1.4615
59625SOL    HW287844   0.649   1.247   9.703 -0.7313  1.0424  0.6340
59626SOL     OW87845   2.761   3.557   0.758  0.0624 -0.0884  0.2822
59626SOL    HW187846   2.720   3.525   0.678  1.3822 -0.3803 -0.2948
59626SOL    HW287847   2.841   3.505   0.768  1.4960  1.9521  0.1246
59627SOL     OW87848   1.235  10.171  11.690 -0.4956 -0.0088 -0.1881
59627SOL    HW187849   1.319  10.212  11.710 -0.2962  1.3789 -3.2327
59627SOL    HW287850   1.258  10.090  11.643 -0.9246 -1.2499  1.6282
59628SOL     OW87851   0.102   0.402   8.859 -0.0061  0.3052 -0.4147
59628SOL    HW187852   0.023   0.456   8.858 -0.7437 -0.6364  1.3509
59628SOL    HW287853   0.100   0.355   8.776 -1.3252  0.2959 -0.4009
59629SOL     OW87854   6.824   6.728   1.185  0.1211  1.3081  0.2813
59629SOL    HW187855   6.918   6.743   1.199  1.2564 -2.3813 -2.0111
59629SOL    HW287856   6.818   6.696   1.095 -2.7573 -2.2564  1.5059
59630SOL     OW87857   8.581   3.917   1.143 -0.3683  0.2451 -0.3859
59630SOL    HW187858   8.548   3.951   1.060  1.7758  2.3897 -0.4793
59630SOL    HW287859   8.618   3.994   1.187 -0.9417 -0.9299  2.3499
59631SOL     OW87860   4.520   0.305   4.047  0.6142  0.2578 -0.1131
59631SOL    HW187861   4.500   0.227   4.100  1.5589  0.5408  0.7001
59631SOL    HW287862   4.495   0.281   3.958  1.3029 -1.1514  0.0410
59632SOL     OW87863  11.897   0.249   2.409 -0.1126  0.4292  0.2478
59632SOL    HW187864  11.928   0.273   2.496 -1.1644  0.1593  0.7123
59632SOL    HW287865  11.875   0.157   2.416 -1.7442  0.7805  0.1809
59633SOL     OW87866  12.128  10.596   3.778  0.0071  0.5789  0.4636
59633SOL    HW187867  12.163  10.521   3.730  1.1933  0.5855  1.2748
59633SOL    HW287868  12.073  10.642   3.714  1.7325  0.7328 -0.9897
59634SOL     OW87869  10.437   6.691   0.352 -0.4078  0.0517  0.3790
59634SOL    HW187870  10.359   6.697   0.296  0.1932  1.7866 -0.3532
59634SOL    HW287871  10.409   6.635   0.425 -2.3425  0.5717  0.1128
59635SOL     OW87872  10.916   6.085  12.258 -0.1860  0.1725 -0.4805
59635SOL    HW187873  10.996   6.041  12.232 -0.1014 -0.4754  0.8153
59635SOL    HW287874  10.857   6.014  12.285 -1.8030  0.4760 -2.8663
59636SOL     OW87875  11.582   8.689   0.002  0.3555  0.3841  0.1921
59636SOL    HW187876  11.519   8.755   0.033  1.5700  0.6702  2.2426
59636SOL    HW287877  11.627   8.733  -0.070 -1.0522  0.5516 -0.6348
59637SOL     OW87878   9.459   3.896   8.240 -0.0936 -0.5927  0.3120
59637SOL    HW187879   9.401   3.826   8.270  0.6794 -1.5594 -0.3440
59637SOL    HW287880   9.401   3.966   8.211 -0.8753 -0.2841  2.4863
59638SOL     OW87881   5.772   0.710   7.666 -0.4708  0.2300 -0.0623
59638SOL    HW187882   5.825   0.698   7.745 -0.5385 -1.3387 -0.2188
59638SOL    HW287883   5.757   0.621   7.634  0.2992  0.8517 -2.3364
59639SOL     OW87884   2.786   3.968   5.186 -0.3853  0.2355 -0.5820
59639SOL    HW187885   2.740   4.047   5.213 -1.3063 -0.4629 -0.0597
59639SOL    HW287886   2.821   3.932   5.267  1.2700  0.8449 -0.9841
59640SOL     OW87887   3.414   5.452   3.074  0.1529 -0.3955 -0.3149
59640SOL    HW187888   3.383   5.515   3.139  0.8065 -1.5352  1.1506
59640SOL    HW287889   3.382   5.487   2.990 -0.3635  1.3243  0.5462
59641SOL     OW87890   4.124   7.417   1.497 -0.1520 -0.3626  0.1947
59641SOL    HW187891   4.033   7.441   1.481  0.4300  0.9551 -1.3236
59641SOL    HW287892   4.121   7.369   1.580 -2.4899 -2.1811 -0.8286
59642SOL     OW87893   6.041  10.006   9.924  0.0082  0.7326 -0.5275
59642SOL    HW187894   6.057   9.913   9.910  0.9097  0.9197 -0.8374
59642SOL    HW287895   6.095  10.028  10.000 -1.6466  0.6228  0.7480
59643SOL     OW87896   4.515   0.087   4.519 -0.8942  0.4984 -0.0734
59643SOL    HW187897   4.425   0.057   4.507 -0.7889  0.8014 -1.9137
59643SOL    HW287898   4.526   0.095   4.614 -1.9823 -2.0279  0.3364
59644SOL     OW87899   6.567  11.704   6.715 -0.4591  0.1825 -0.2476
59644SOL    HW187900   6.504  11.632   6.725  0.0561 -0.2535 -0.0557
59644SOL    HW287901   6.604  11.715   6.803 -0.5466  0.6934 -0.2758
59645SOL     OW87902   2.676   8.763   5.391 -0.6531 -0.4221  0.2312
59645SOL    HW187903   2.605   8.816   5.427 -0.3691 -0.5192  0.9565
59645SOL    HW287904   2.632   8.699   5.335 -0.9675  0.7956 -0.9477
59646SOL     OW87905  11.544   2.431   6.452  0.4110 -0.2434  0.0742
59646SOL    HW187906  11.597   2.391   6.383 -0.3991  0.7225 -1.1324
59646SOL    HW287907  11.519   2.357   6.508 -0.3751 -1.3441 -1.6411
59647SOL     OW87908   4.799   9.973   7.270 -0.3596 -0.8508 -0.3954
59647SOL    HW187909   4.876   9.952   7.323  0.4529  0.7816 -0.8804
59647SOL    HW287910   4.725   9.940   7.322  0.5817 -1.5223  0.5651
59648SOL     OW87911  11.592   7.684  12.022  0.1267 -0.0311 -0.3064
59648SOL    HW187912  11.635   7.696  12.107 -0.7583 -1.6209  0.4060
59648SOL    HW287913  11.610   7.765  11.975  0.9802  0.7314  1.2449
59649SOL     OW87914  11.404   1.188   9.335  0.2821 -0.2281  0.5760
59649SOL    HW187915  11.470   1.218   9.398 -0.1898 -1.1378  1.5358
59649SOL    HW287916  11.327   1.168   9.388  0.8106 -3.9668  0.2088
59650SOL     OW87917   8.170   6.389   4.763 -0.3840 -0.2715 -0.1873
59650SOL    HW187918   8.101   6.355   4.705  0.1508 -1.2584 -0.2770
59650SOL    HW287919   8.177   6.481   4.740 -1.0322 -0.3682 -0.8394
59651SOL     OW87920   6.858   6.613   5.140  0.3882  0.0448  0.1158
59651SOL    HW187921   6.797   6.601   5.213 -0.2360 -1.2408 -0.5873
59651SOL    HW287922   6.913   6.534   5.141  0.5788  0.1588 -0.6087
59652SOL     OW87923  10.982   3.031   0.601 -0.1603  0.2764 -0.0973
59652SOL    HW187924  10.902   3.032   0.548 -1.1513 -3.7015  0.9648
59652SOL    HW287925  11.053   3.036   0.537 -1.3129 -0.1350 -1.4660
59653SOL     OW87926  11.970  10.031   3.827 -0.0770 -0.5393  0.2360
59653SOL    HW187927  11.947   9.941   3.804  0.4630 -0.4687 -0.6085
59653SOL    HW287928  11.890  10.081   3.812 -0.1196 -0.7264 -0.1735
59654SOL     OW87929  11.230   7.665   8.117  0.3636  0.3681  0.0753
59654SOL    HW187930  11.145   7.627   8.094 -0.0758  0.7374  1.0317
59654SOL    HW287931  11.245   7.636   8.207  0.6077  1.4252  0.3809
59655SOL     OW87932  11.921   4.195  10.033  0.3479  0.1846  0.5778
59655SOL    HW187933  11.974   4.116  10.044  1.9033  1.3012  1.6342
59655SOL    HW287934  11.928   4.216   9.939 -1.4613 -1.7747 -0.0738
59656SOL     OW87935   0.548  10.507   6.709 -0.3929  0.6674 -0.2784
59656SOL    HW187936   0.581  10.596   6.721  0.7814  0.4195 -1.5369
59656SOL    HW287937   0.495  10.511   6.629 -0.0384  0.1611 -0.5433
59657SOL     OW87938  10.479   1.276  12.593 -0.0991  0.2849 -0.0587
59657SOL    HW187939  10.538   1.292  12.667 -0.1563 -0.4175  0.1548
59657SOL    HW287940  10.528   1.305  12.516  0.8778 -1.0036  0.0297
59658SOL     OW87941   9.785  11.657   7.736  0.0115 -0.6183 -0.1343
59658SOL    HW187942   9.839  11.717   7.684  0.7905 -0.5926  0.6899
59658SOL    HW287943   9.764  11.586   7.675  1.5146 -0.9501 -0.3071
59659SOL     OW87944  11.419   2.904   0.538  0.6083 -0.0653  0.1166
59659SOL    HW187945  11.334   2.894   0.494  1.1863  1.3346 -1.4085
59659SOL    HW287946  11.478   2.846   0.490  0.9811  0.5945 -0.2436
59660SOL     OW87947   5.355   1.431  12.301  0.0189  0.3300  0.1207
59660SOL    HW187948   5.329   1.409  12.212 -0.6811 -0.7227  0.5710
59660SOL    HW287949   5.273   1.439  12.349  0.4000  0.5729  0.7540
59661SOL     OW87950   3.559  10.183  10.554  0.3992  0.6187  0.2936
59661SOL    HW187951   3.553  10.245  10.627 -1.7907 -0.7962  1.4257
59661SOL    HW287952   3.472  10.185  10.514  0.4035 -1.3578  0.0994
59662SOL     OW87953   0.727  11.951   3.951 -0.3957 -0.0696 -0.2999
59662SOL    HW187954   0.794  11.883   3.953  1.3897  1.6049  1.8034
59662SOL    HW287955   0.646  11.906   3.972  0.3377 -1.8840 -1.1850
59663SOL     OW87956   4.951   6.751   1.547 -0.8399 -0.1268  0.3478
59663SOL    HW187957   4.929   6.720   1.460  0.4013 -2.3536  0.7481
59663SOL    HW287958   4.988   6.838   1.533  0.6924 -1.0103 -1.5637
59664SOL     OW87959   5.422   2.512   8.045  0.1228 -0.2298  0.1822
59664SOL    HW187960   5.449   2.604   8.047 -0.9014  0.1634 -1.4744
59664SOL    HW287961   5.494   2.464   8.086  0.9734  1.2416  0.4795
59665SOL     OW87962   8.466   6.729   6.971  0.5708  0.2832 -0.1168
59665SOL    HW187963   8.546   6.743   6.920  0.6264  1.1517  0.1889
59665SOL    HW287964   8.445   6.637   6.957  0.7110  0.4400 -1.5036
59666SOL     OW87965  11.024   2.728   6.942  0.7572  0.2861 -0.1700
59666SOL    HW187966  11.108   2.709   6.984  0.7922  0.6573 -0.0730
59666SOL    HW287967  11.046   2.745   6.851  0.7161 -0.2151 -0.2795
59667SOL     OW87968   2.991   9.892   5.812 -0.5214  0.4191 -0.0570
59667SOL    HW187969   2.898   9.872   5.804 -0.6407  1.4640 -1.8619
59667SOL    HW287970   3.028   9.873   5.725  0.4705  2.1733 -0.0892
59668SOL     OW87971   8.000  11.605   6.858 -0.3245 -0.5241  0.4630
59668SOL    HW187972   7.933  11.648   6.911 -0.3402  0.0697 -0.0240
59668SOL    HW287973   8.080  11.611   6.910 -0.1990  0.6054  0.1751
59669SOL     OW87974   5.837   7.384   5.193 -0.0545  0.4746  0.1175
59669SOL    HW187975   5.858   7.447   5.125 -0.1450 -1.1245 -1.4752
59669SOL    HW287976   5.908   7.319   5.188 -0.8747 -0.4740  0.5001
59670SOL     OW87977   4.960   4.865   4.000  0.1087 -0.1037 -0.0599
59670SOL    HW187978   5.017   4.886   3.926  1.0277  1.4305  1.0179
59670SOL    HW287979   4.880   4.830   3.959  0.5158  0.8288 -1.7789
59671SOL     OW87980   1.045   1.488   0.414  0.3324 -0.1509 -0.0847
59671SOL    HW187981   1.036   1.576   0.376 -1.4037  0.2721  1.1688
59671SOL    HW287982   1.133   1.460   0.390  1.3170  2.3551  0.3389
59672SOL     OW87983   1.202  10.724  10.306 -0.2539 -0.4858 -0.0646
59672SOL    HW187984   1.152  10.684  10.377 -1.2786  3.1702  1.4771
59672SOL    HW287985   1.158  10.807  10.289  3.2860  1.4191 -1.0036
59673SOL     OW87986   0.585   6.167   3.871 -0.0897 -0.0084  0.2288
59673SOL    HW187987   0.620   6.079   3.878  1.4438  0.5770  0.2817
59673SOL    HW287988   0.612   6.211   3.951  1.9169  1.4009 -1.1091
59674SOL     OW87989  10.207   1.095   4.689  0.3907  0.1445 -0.1007
59674SOL    HW187990  10.209   1.154   4.765 -0.0234  0.8144 -0.5984
59674SOL    HW287991  10.299   1.082   4.666  0.5866 -0.9477  1.1748
59675SOL     OW87992  12.142  10.953   0.296  0.5446 -0.1894 -0.2550
59675SOL    HW187993  12.092  10.932   0.217  0.8223  0.9075 -0.7351
59675SOL    HW287994  12.134  10.875   0.351 -0.6543 -0.4977 -0.8497
59676SOL     OW87995   4.857   0.172  11.543 -0.7621  0.1858 -0.0619
59676SOL    HW187996   4.877   0.252  11.591 -2.3286  0.6650 -0.1381
59676SOL    HW287997   4.796   0.200  11.475  0.0500 -0.7790 -1.2325
59677SOL     OW87998   8.571  11.185   7.084  0.1297  0.2496  0.3292
59677SOL    HW187999   8.504  11.251   7.099 -0.4406 -0.2355 -0.0732
59677SOL    HW288000   8.528  11.102   7.103  0.4627 -0.1036 -0.4264
59678SOL     OW88001  12.259   0.935  11.425  0.4257 -0.1157 -0.3050
59678SOL    HW188002  12.241   0.890  11.342  0.7735  0.4182 -0.6831
59678SOL    HW288003  12.300   0.869  11.481  1.3195 -0.1691 -0.9962
59679SOL     OW88004   4.208  11.225   5.984  0.6903 -0.3399  0.7020
59679SOL    HW188005   4.232  11.178   5.904 -1.6549 -0.9549  0.2719
59679SOL    HW288006   4.225  11.162   6.054  0.3073 -0.7815  0.4078
59680SOL     OW88007   7.027   1.131   7.707 -0.1465 -0.2703  0.0787
59680SOL    HW188008   6.973   1.195   7.661 -0.0209 -0.8380 -0.8683
59680SOL    HW288009   7.063   1.076   7.639  0.0266 -1.1496  0.8612
59681SOL     OW88010   7.234  10.572   3.129  0.3773  0.5028  0.2333
59681SOL    HW188011   7.159  10.629   3.111 -0.2334 -0.3382  0.0921
59681SOL    HW288012   7.205  10.485   3.104  1.5246  0.2127 -0.1505
59682SOL     OW88013   5.137   5.284   2.810  0.0004 -0.0827 -0.3183
59682SOL    HW188014   5.157   5.377   2.815 -0.7534  0.0199  1.9762
59682SOL    HW288015   5.048   5.281   2.774 -0.2917  0.1608  0.3579
59683SOL     OW88016  11.433  10.591   8.119  0.4897 -0.3109 -0.7572
59683SOL    HW188017  11.507  10.597   8.059  0.6725 -1.1905 -0.6311
59683SOL    HW288018  11.467  10.622   8.203  0.2958  0.7070 -1.0487
59684SOL     OW88019   1.818   4.312   9.941  0.5826  0.6788  0.1145
59684SOL    HW188020   1.730   4.279   9.926  0.0091  1.3237  1.7921
59684SOL    HW288021   1.872   4.233   9.948 -0.1482  0.2178  0.6352
59685SOL     OW88022   2.704   0.908  12.510  0.2841  0.2607  0.0991
59685SOL    HW188023   2.699   1.003  12.498  0.6377  0.4265  1.1325
59685SOL    HW288024   2.629   0.874  12.461  0.5657  1.0056 -0.8713
59686SOL     OW88025  12.247   5.225   1.063  0.2750  0.0405 -0.3038
59686SOL    HW188026  12.169   5.272   1.035  0.8046  0.7615 -0.5875
59686SOL    HW288027  12.313   5.245   0.997  0.5916 -0.9082 -0.3015
59687SOL     OW88028   4.164   2.464   4.331  0.2784  0.2401 -0.1294
59687SOL    HW188029   4.227   2.531   4.306 -0.2722  0.1631 -1.8850
59687SOL    HW288030   4.213   2.382   4.325 -0.0312  0.1466 -1.8281
59688SOL     OW88031   9.175   8.364   6.972  0.5548 -0.1851  0.3430
59688SOL    HW188032   9.227   8.339   7.049 -0.8620 -0.0016  1.4058
59688SOL    HW288033   9.146   8.453   6.990  0.0113 -0.2243 -0.2889
59689SOL     OW88034   3.796   4.626   8.386 -0.6219 -0.4137 -0.2895
59689SOL    HW188035   3.767   4.537   8.362  1.0810 -0.9240 -0.5838
59689SOL    HW288036   3.855   4.613   8.460  0.9896  0.2698 -1.4010
59690SOL     OW88037   5.571   1.923   7.019  0.7248 -0.7815  0.0130
59690SOL    HW188038   5.526   1.983   6.960  0.0502 -1.0409  0.2428
59690SOL    HW288039   5.661   1.919   6.987  1.1457  1.3783  0.7820
59691SOL     OW88040   9.765   7.802   3.589 -0.2817 -0.0285  0.1417
59691SOL    HW188041   9.740   7.893   3.605  2.0059  0.5443  0.8974
59691SOL    HW288042   9.701   7.750   3.639 -1.6732  1.1311 -0.3804
59692SOL     OW88043  11.498   3.919  10.709  0.1216  0.1207  0.0484
59692SOL    HW188044  11.480   3.888  10.621 -0.5718  0.9147 -0.0979
59692SOL    HW288045  11.433   3.874  10.764 -0.0708  0.3551  0.0146
59693SOL     OW88046   9.654  11.347   9.420  0.3717 -0.1213 -0.5140
59693SOL    HW188047   9.560  11.361   9.425  0.3137 -0.2628 -1.2102
59693SOL    HW288048   9.664  11.267   9.368  0.8472 -0.5607  0.2239
59694SOL     OW88049   5.600   3.622  10.086  0.8302 -0.2141  0.0165
59694SOL    HW188050   5.513   3.607  10.123 -0.2991  2.0753 -1.4630
59694SOL    HW288051   5.585   3.619   9.991  2.5412 -0.5178 -0.2662
59695SOL     OW88052   2.698   7.420   4.647  0.1590  0.4851 -0.3285
59695SOL    HW188053   2.712   7.326   4.656  0.5475  0.5615 -0.1376
59695SOL    HW288054   2.603   7.429   4.641  0.1285  0.0665 -0.5142
59696SOL     OW88055   2.697   7.106   1.513 -0.2506 -0.1801  0.0192
59696SOL    HW188056   2.631   7.127   1.447  0.8799  3.2430 -0.2456
59696SOL    HW288057   2.661   7.138   1.595  0.5326  0.6260  0.0723
59697SOL     OW88058   4.324   7.013   0.189 -0.4803 -0.3127 -0.4193
59697SOL    HW188059   4.351   7.064   0.266  0.8470  0.4639 -1.3453
59697SOL    HW288060   4.323   6.922   0.219 -0.1759 -0.0073  0.5601
59698SOL     OW88061   9.461   1.075   1.704 -0.0830  0.4504 -0.1891
59698SOL    HW188062   9.553   1.055   1.723 -0.3422  0.1796  0.8221
59698SOL    HW288063   9.457   1.171   1.703  0.0097  0.4720  0.8126
59699SOL     OW88064   6.845   9.193   4.018 -0.9761 -0.2588  0.0541
59699SOL    HW188065   6.852   9.281   3.982  3.1079  0.1377  1.3616
59699SOL    HW288066   6.881   9.136   3.949  2.1045 -0.0654  1.3471
59700SOL     OW88067   6.743  11.540   8.587  0.5380 -0.2713 -0.1806
59700SOL    HW188068   6.821  11.485   8.589 -0.5630 -1.9146 -0.3579
59700SOL    HW288069   6.738  11.573   8.497  0.9700 -0.2342 -0.1924
59701SOL     OW88070   6.005  10.404   8.172  0.3828 -0.0867 -0.2822
59701SOL    HW188071   5.953  10.484   8.163 -0.5941 -0.7482 -0.6961
59701SOL    HW288072   5.981  10.369   8.257  1.5937  0.5733  0.3687
59702SOL     OW88073   2.877   4.572   0.363  0.1972 -0.1645 -0.1794
59702SOL    HW188074   2.851   4.625   0.438 -0.4817 -0.1450 -0.4195
59702SOL    HW288075   2.796   4.526   0.337  0.2513  0.3588 -1.3150
59703SOL     OW88076   2.349   9.031  12.378 -0.4887  0.0194 -0.2165
59703SOL    HW188077   2.299   9.109  12.353  0.9599  0.5393 -1.6142
59703SOL    HW288078   2.432   9.065  12.411 -0.1875 -0.9052  0.0080
59704SOL     OW88079   8.765   3.618   8.930  0.2822 -0.0013  0.5188
59704SOL    HW188080   8.820   3.689   8.965  0.1841  0.5386 -0.4075
59704SOL    HW288081   8.687   3.662   8.898  0.4661 -0.4629 -0.5781
59705SOL     OW88082   6.544   4.403   3.232 -0.4171  0.4702  0.1272
59705SOL    HW188083   6.630   4.439   3.211 -0.9659  1.0382 -1.2625
59705SOL    HW288084   6.531   4.332   3.170 -0.3904 -0.5473  1.2395
59706SOL     OW88085  11.902   4.252   5.607 -0.7089  0.1396  0.0224
59706SOL    HW188086  11.869   4.201   5.681 -1.3165  1.4390  0.6715
59706SOL    HW288087  11.973   4.305   5.644  0.3060 -0.6254 -0.7734
59707SOL     OW88088   6.767   8.880   9.341  0.5845 -0.1627 -0.3938
59707SOL    HW188089   6.844   8.932   9.319 -0.0607  0.8582 -0.3357
59707SOL    HW288090   6.722   8.868   9.257 -0.0755  0.7381 -0.1837
59708SOL     OW88091   3.650   3.087   4.122  0.2415 -0.1865  0.2544
59708SOL    HW188092   3.639   3.019   4.189  0.1233  1.3008  1.8356
59708SOL    HW288093   3.729   3.062   4.075  0.5788 -1.0721  1.2406
59709SOL     OW88094  10.070  12.175   3.744  0.2313 -0.8413 -0.0107
59709SOL    HW188095  10.053  12.120   3.820 -2.1488  1.5495  1.3950
59709SOL    HW288096  10.152  12.220   3.764 -0.1375 -0.5791  1.0111
59710SOL     OW88097   4.042   9.094   2.966 -0.2479  0.5705 -0.1530
59710SOL    HW188098   4.118   9.048   3.002 -0.3099 -1.1645 -2.0721
59710SOL    HW288099   3.966   9.048   3.002 -0.3517  0.5643 -0.3816
59711SOL     OW88100   3.177   2.325   9.544 -0.1861  0.7771 -0.1051
59711SOL    HW188101   3.098   2.366   9.510  0.2925  1.5123 -0.3581
59711SOL    HW288102   3.157   2.308   9.636 -1.4030 -1.0054 -0.6455
59712SOL     OW88103   8.656   8.121   2.122  0.0169 -0.7225 -0.0644
59712SOL    HW188104   8.686   8.117   2.213  1.1521 -1.1015 -0.4367
59712SOL    HW288105   8.563   8.143   2.128 -0.0980 -1.4745  1.2022
59713SOL     OW88106   3.085   5.336   1.662  0.0109  0.4825  0.0675
59713SOL    HW188107   3.078   5.418   1.615 -0.8915  1.2834  1.5297
59713SOL    HW288108   2.999   5.324   1.703  0.8466  0.0326  1.7771
59714SOL     OW88109   3.891   4.309   3.829 -0.4886 -0.0788 -0.0629
59714SOL    HW188110   3.797   4.315   3.812 -0.5235 -2.8334 -1.3257
59714SOL    HW288111   3.912   4.216   3.819  2.5166  0.5302 -0.4924
59715SOL     OW88112  10.742   9.849   0.090  0.1830 -0.2431 -0.0530
59715SOL    HW188113  10.835   9.871   0.084 -0.2134  2.1822  1.3245
59715SOL    HW288114  10.708   9.867   0.003  0.5186  1.8270  0.1778
59716SOL     OW88115  10.016   6.983   7.223  0.1012 -0.3404  0.0426
59716SOL    HW188116  10.112   6.982   7.217  0.1670  0.1859  0.8555
59716SOL    HW288117   9.997   6.954   7.312 -0.5686 -1.9415 -0.5904
59717SOL     OW88118   4.234   8.968  12.467  0.5624 -0.0620 -0.3909
59717SOL    HW188119   4.254   8.919  12.547 -0.2248  2.4355  1.4643
59717SOL    HW288120   4.139   8.965  12.460  0.3716  2.2404  0.5478
59718SOL     OW88121   5.226  10.445   5.200 -0.6026  0.1830 -0.3290
59718SOL    HW188122   5.258  10.518   5.148 -1.1595  1.0285  0.4982
59718SOL    HW288123   5.306  10.399   5.228 -0.2626  0.3506 -0.9996
59719SOL     OW88124   4.504   4.840   5.679 -0.0981  0.3570  0.3621
59719SOL    HW188125   4.558   4.807   5.607 -0.9072  1.0856 -0.6156
59719SOL    HW288126   4.567   4.863   5.747  0.6620 -0.6847  0.0416
59720SOL     OW88127  10.243   5.608   1.660 -0.4169 -0.5396  0.1736
59720SOL    HW188128  10.153   5.601   1.630  0.0343 -2.5565 -0.8839
59720SOL    HW288129  10.261   5.525   1.703  0.0958  0.9309  3.0177
59721SOL     OW88130   3.308  10.028   0.076 -0.2859 -0.2964 -0.1386
59721SOL    HW188131   3.280  10.102   0.129 -0.4023  0.4276 -1.1833
59721SOL    HW288132   3.331   9.960   0.139 -1.4828  0.1520  0.8036
59722SOL     OW88133   9.605   5.569   8.743  0.0157  0.6145  0.0948
59722SOL    HW188134   9.598   5.602   8.832 -1.1747 -0.3201  0.3818
59722SOL    HW288135   9.520   5.587   8.704 -0.4878 -1.5010  0.0926
59723SOL     OW88136   2.094   7.751   7.599  0.8694 -0.3579  0.5127
59723SOL    HW188137   2.016   7.738   7.653 -0.5069 -0.7514 -1.4780
59723SOL    HW288138   2.160   7.693   7.638 -0.3056 -1.2056  1.2944
59724SOL     OW88139   7.923   4.044   0.132 -0.1276  0.6423  0.3793
59724SOL    HW188140   7.906   4.129   0.171  0.6443  0.5720  0.8802
59724SOL    HW288141   8.018   4.036   0.131 -0.1927 -0.3129  0.5536
59725SOL     OW88142   0.169   8.927   9.826 -0.4057  0.3677  0.7838
59725SOL    HW188143   0.223   8.999   9.860 -0.2678  0.2876  0.7357
59725SOL    HW288144   0.225   8.850   9.833 -0.3512  0.3609  0.3117
59726SOL     OW88145   9.722   7.129   9.950 -0.2579  0.3244  0.1332
59726SOL    HW188146   9.789   7.110  10.016  0.5383  2.3089 -0.0537
59726SOL    HW288147   9.639   7.120   9.997  0.2696  0.9024  1.2057
59727SOL     OW88148   3.629  12.110   0.422 -0.1481 -0.1402 -0.2248
59727SOL    HW188149   3.549  12.157   0.446  0.4520  1.8995 -1.9176
59727SOL    HW288150   3.631  12.035   0.481 -2.9306  0.1179  0.3571
59728SOL     OW88151   0.238   3.605   4.676  0.3670  0.1087 -0.4391
59728SOL    HW188152   0.325   3.564   4.680  0.7746  1.0357  1.7644
59728SOL    HW288153   0.231   3.653   4.758 -2.4625 -0.3237 -0.3504
59729SOL     OW88154  12.151   0.584   1.270 -0.1266  0.3591  0.4224
59729SOL    HW188155  12.180   0.524   1.338 -2.6452 -0.3871  0.9566
59729SOL    HW288156  12.214   0.656   1.273  2.3477 -1.7044  0.4972
59730SOL     OW88157   9.888   7.731   2.697 -0.4246 -0.0125  0.2425
59730SOL    HW188158   9.936   7.804   2.737 -0.4848  0.1440  0.0320
59730SOL    HW288159   9.944   7.702   2.625 -0.4488 -0.1076  0.2620
59731SOL     OW88160   7.544   1.633   5.206  0.3719  0.4301  0.0189
59731SOL    HW188161   7.465   1.582   5.185  0.1693  0.6044  0.3416
59731SOL    HW288162   7.510   1.717   5.236  0.7426  2.0886 -3.6923
59732SOL     OW88163   3.773   0.731   7.612  0.1836 -0.1160 -0.0218
59732SOL    HW188164   3.700   0.690   7.567  0.3042  0.1178 -0.4350
59732SOL    HW288165   3.763   0.704   7.704 -1.3813  1.2724  0.2641
59733SOL     OW88166   1.206   3.458   4.660 -0.3378  0.1345 -0.5967
59733SOL    HW188167   1.290   3.456   4.707 -0.9961 -1.0105  0.6199
59733SOL    HW288168   1.227   3.427   4.572  0.5481  0.0510 -0.3665
59734SOL     OW88169   4.174   6.990   9.614  0.3608 -0.8436 -0.0818
59734SOL    HW188170   4.085   6.965   9.590  0.6028 -0.7388 -1.1448
59734SOL    HW288171   4.190   6.945   9.697 -0.6498 -0.9192  0.0872
59735SOL     OW88172   4.563   0.471   2.805 -0.0809 -0.2253  0.5583
59735SOL    HW188173   4.637   0.446   2.860  1.6980 -1.3650 -2.1427
59735SOL    HW288174   4.494   0.409   2.827  0.7566 -0.9748  1.1282
59736SOL     OW88175  11.788   0.964  10.108 -0.1457  0.0925  0.1910
59736SOL    HW188176  11.785   0.918  10.192  2.1080  0.6056  0.6114
59736SOL    HW288177  11.766   0.896  10.043 -0.2352 -0.7316  1.0579
59737SOL     OW88178   3.635  12.253   4.953 -0.7135 -0.1023  0.1976
59737SOL    HW188179   3.672  12.168   4.976  0.8937  0.1164 -1.3499
59737SOL    HW288180   3.617  12.247   4.859 -0.5584  1.2784  0.0585
59738SOL     OW88181   8.178   7.054  12.225  0.9031  0.0103  0.3928
59738SOL    HW188182   8.122   7.120  12.183 -0.7783 -0.6261  1.5459
59738SOL    HW288183   8.258   7.054  12.172  0.8823  2.7845  0.2086
59739SOL     OW88184   0.192  12.434   2.198 -0.1040 -0.2992  0.5932
59739SOL    HW188185   0.218  12.497   2.266 -0.4100 -0.0587  0.4927
59739SOL    HW288186   0.130  12.376   2.242 -1.0461  0.4459  0.2763
59740SOL     OW88187   4.326   9.902   5.028 -0.4122 -0.3979  0.2581
59740SOL    HW188188   4.307   9.991   5.059 -0.2249 -0.2310 -0.0899
59740SOL    HW288189   4.420   9.904   5.008 -0.1983 -0.9538  1.1506
59741SOL     OW88190   4.720   0.230   3.461  0.1944 -0.3347 -0.5315
59741SOL    HW188191   4.706   0.320   3.433 -0.1228 -0.1527  0.1832
59741SOL    HW288192   4.642   0.209   3.513  0.6989 -0.6993  0.0962
59742SOL     OW88193  10.300  12.187   6.486 -0.0704  0.3883 -0.0987
59742SOL    HW188194  10.319  12.169   6.393 -0.6075 -1.8502  0.1834
59742SOL    HW288195  10.387  12.190   6.527  0.1263  0.3829 -0.5050
59743SOL     OW88196  10.478  11.318   7.843  0.6209  0.6807 -0.0234
59743SOL    HW188197  10.520  11.233   7.860 -0.1648  0.3621  0.3498
59743SOL    HW288198  10.390  11.296   7.812 -0.2878  1.3620  1.9050
59744SOL     OW88199   2.504   6.639   7.196  0.1306  0.0654  0.3210
59744SOL    HW188200   2.410   6.638   7.176 -0.7560 -0.1816  3.8890
59744SOL    HW288201   2.540   6.565   7.146 -2.4080 -2.5047  1.9944
59745SOL     OW88202   2.641   0.432   0.376 -0.0896  0.2654  0.2241
59745SOL    HW188203   2.632   0.465   0.286  1.1322 -4.5365 -1.9837
59745SOL    HW288204   2.735   0.442   0.395 -0.2209  0.6184  0.6947
59746SOL     OW88205   0.934   2.504  10.476 -0.0083 -0.3025 -0.0417
59746SOL    HW188206   0.861   2.560  10.450  0.0432 -0.6143 -0.8914
59746SOL    HW288207   1.009   2.539  10.429  0.5284  0.3746  1.2792
59747SOL     OW88208   5.995   6.822   7.361  0.0945  0.2929  0.2690
59747SOL    HW188209   6.053   6.887   7.320  0.2749 -0.7501 -1.2425
59747SOL    HW288210   6.043   6.740   7.353  0.0983  0.0132  2.6190
59748SOL     OW88211   3.398  10.767   1.030 -0.5883 -0.3632  0.5936
59748SOL    HW188212   3.374  10.721   1.111  0.6793 -2.3269 -0.0661
59748SOL    HW288213   3.458  10.835   1.059 -1.8588  0.4015  1.5224
59749SOL     OW88214  12.361   1.139  10.337  0.1491 -0.2218  0.5207
59749SOL    HW188215  12.286   1.119  10.393  0.9817  2.0785  2.6125
59749SOL    HW288216  12.324   1.140  10.248 -2.3182  0.8355  1.4756
59750SOL     OW88217   5.967  11.016   7.815  0.1719  0.0449 -0.1185
59750SOL    HW188218   5.900  11.056   7.871  0.5817  0.9902 -0.2830
59750SOL    HW288219   5.932  10.929   7.794 -1.9296  1.1866 -1.7631
59751SOL     OW88220   3.220   0.423   0.550 -0.0794  0.2962 -0.4233
59751SOL    HW188221   3.181   0.444   0.465  0.8184  1.2559 -0.6222
59751SOL    HW288222   3.158   0.457   0.614  0.3675  1.7679 -0.7337
59752SOL     OW88223   6.624   3.575   9.397 -0.4631 -0.3062 -0.4994
59752SOL    HW188224   6.550   3.528   9.436 -0.0173 -2.1184 -1.6973
59752SOL    HW288225   6.590   3.608   9.314 -0.1480 -0.4128 -0.6695
59753SOL     OW88226   1.059   0.423   8.371  0.4928  0.2073  0.2302
59753SOL    HW188227   1.008   0.481   8.314  0.3499  0.3422  0.4917
59753SOL    HW288228   1.004   0.412   8.449  0.9829  0.5763  0.6291
59754SOL     OW88229   9.553   2.990   1.521  0.0969 -0.1752 -0.6916
59754SOL    HW188230   9.565   2.912   1.468 -1.7226 -0.7912 -0.2821
59754SOL    HW288231   9.588   2.966   1.607 -2.8328 -1.6127  0.2337
59755SOL     OW88232   8.701  11.145   2.933  0.3494  0.8510 -0.0034
59755SOL    HW188233   8.713  11.067   2.987 -0.3225  0.5771 -0.2304
59755SOL    HW288234   8.786  11.159   2.891  0.4778  0.2403  0.0464
59756SOL     OW88235   6.458  10.025   2.957 -0.4534 -0.0860  0.5018
59756SOL    HW188236   6.515   9.951   2.935 -0.1787  0.3613 -0.3289
59756SOL    HW288237   6.373   9.984   2.975 -0.1403 -0.6636  0.6921
59757SOL     OW88238   6.808  11.409   7.168  0.2620 -0.5653 -0.4254
59757SOL    HW188239   6.786  11.326   7.126 -0.6162 -0.2010 -0.7029
59757SOL    HW288240   6.882  11.388   7.225  0.8052 -1.2867 -1.3681
59758SOL     OW88241   7.968   8.460  11.360 -0.1860  0.1487  0.3798
59758SOL    HW188242   7.901   8.410  11.407 -0.3282  1.0144  1.1317
59758SOL    HW288243   8.046   8.405  11.363 -0.6352 -0.4997  0.2449
59759SOL     OW88244   1.620  10.595  10.636  0.4256 -0.4144  0.4075
59759SOL    HW188245   1.526  10.580  10.627  0.0261  2.2628 -0.9639
59759SOL    HW288246   1.629  10.641  10.719  0.4061  0.0338  0.1638
59760SOL     OW88247   9.787   5.336  10.136 -0.0916  0.4531  0.4533
59760SOL    HW188248   9.819   5.269  10.074  1.4463  1.3131  0.2696
59760SOL    HW288249   9.717   5.292  10.184  0.0657 -0.9006 -0.4895
59761SOL     OW88250   0.599   6.557  12.040  0.2884 -0.1678 -0.5107
59761SOL    HW188251   0.538   6.628  12.059  1.1836  0.6369 -0.5671
59761SOL    HW288252   0.548   6.495  11.988 -0.1298  1.0983 -1.6502
59762SOL     OW88253   0.763  12.104   9.696 -0.0231 -0.0816 -0.4542
59762SOL    HW188254   0.779  12.150   9.614 -2.9289  0.9181 -0.5673
59762SOL    HW288255   0.776  12.170   9.764  0.9374 -0.5307 -0.1777
59763SOL     OW88256   0.564   7.719   4.743 -0.0283  0.2813  0.7221
59763SOL    HW188257   0.526   7.784   4.802 -0.3857 -0.1752  0.9937
59763SOL    HW288258   0.492   7.691   4.688  0.1297  0.1189  0.5967
59764SOL     OW88259   1.915   3.426   2.237 -0.1286 -0.5216  0.1064
59764SOL    HW188260   1.899   3.439   2.330  0.3941  2.2030 -0.0741
59764SOL    HW288261   2.003   3.389   2.232 -0.5549 -1.6561  0.6846
59765SOL     OW88262  11.735   7.227   9.089  0.9900  0.2999 -0.0473
59765SOL    HW188263  11.784   7.150   9.059 -0.1763 -1.2268  1.6882
59765SOL    HW288264  11.708   7.271   9.009  3.4609  0.1224 -1.0815
59766SOL     OW88265   1.068   0.519   9.988 -0.1373 -0.6521  0.5387
59766SOL    HW188266   1.113   0.493   9.908 -0.9653 -1.9374  0.4508
59766SOL    HW288267   1.135   0.561  10.042  0.6013 -0.4523 -0.5185
59767SOL     OW88268   2.047   8.113  11.516 -0.1298 -1.0994  0.5829
59767SOL    HW188269   1.969   8.061  11.498  0.7683 -2.7055  1.1154
59767SOL    HW288270   2.016   8.184  11.573 -1.4770 -0.6799 -0.6031
59768SOL     OW88271   8.184   8.122   0.173  0.1104  0.5230  0.6499
59768SOL    HW188272   8.175   8.202   0.225  1.3561  0.2836  1.2683
59768SOL    HW288273   8.278   8.105   0.171 -0.0703 -0.5015 -0.1402
59769SOL     OW88274  11.930   8.360  11.089 -0.6961 -0.2048  0.5607
59769SOL    HW188275  11.851   8.371  11.037 -0.9829  1.7281  1.3048
59769SOL    HW288276  11.919   8.421  11.162  0.1862 -2.0159  2.2902
59770SOL     OW88277   1.461   2.390  11.800  0.3656 -0.5374 -0.2635
59770SOL    HW188278   1.530   2.433  11.749 -0.9611 -0.4986 -2.1091
59770SOL    HW288279   1.459   2.300  11.765  0.4395 -0.9669  0.7992
59771SOL     OW88280   7.223   9.382  10.303  0.7155 -0.0717  0.5475
59771SOL    HW188281   7.243   9.473  10.283 -1.2221  0.2846 -0.0222
59771SOL    HW288282   7.142   9.386  10.354  0.3872 -1.4961  0.1850
59772SOL     OW88283   3.028   0.846   1.353  0.0462  0.2042 -0.2964
59772SOL    HW188284   3.089   0.890   1.294  2.7379  0.3715  2.3811
59772SOL    HW288285   2.975   0.918   1.389  0.9206  0.6295  0.1918
59773SOL     OW88286   8.445   0.188   2.613 -0.0260  0.2420 -0.5555
59773SOL    HW188287   8.421   0.118   2.674  0.4390 -0.7410 -1.4578
59773SOL    HW288288   8.394   0.169   2.535 -0.3221  1.2574 -0.6127
59774SOL     OW88289   4.618   1.289   1.362  0.2127 -0.3851 -0.2752
59774SOL    HW188290   4.648   1.275   1.272  0.8592 -0.4970 -0.0486
59774SOL    HW288291   4.531   1.249   1.365  0.9514 -2.1110 -0.3482
59775SOL     OW88292   0.162   9.858   5.419 -0.3271  0.5160 -0.3002
59775SOL    HW188293   0.098   9.798   5.457 -0.8726  0.8696 -0.6476
59775SOL    HW288294   0.243   9.807   5.413 -0.9231 -0.3493 -1.0873
59776SOL     OW88295   7.531   7.527   2.760  0.2218  0.2438  0.2570
59776SOL    HW188296   7.542   7.453   2.701  0.4875  0.5870 -0.1339
59776SOL    HW288297   7.531   7.489   2.847  2.5162 -0.0492  0.2077
59777SOL     OW88298   7.006  10.743   3.199  0.2812  0.0677  0.0323
59777SOL    HW188299   6.923  10.703   3.175 -1.4734  3.0262  0.6512
59777SOL    HW288300   6.996  10.769   3.290  0.6463  3.0265 -0.6469
59778SOL     OW88301   4.335   6.261   9.294 -0.4631 -0.4087 -0.2672
59778SOL    HW188302   4.283   6.224   9.222 -1.1432  1.8679 -1.0391
59778SOL    HW288303   4.421   6.221   9.284 -1.1336 -1.7280 -1.0492
59779SOL     OW88304   7.729   5.582  10.024 -0.3569 -0.1006 -0.1832
59779SOL    HW188305   7.688   5.622   9.948 -2.0413  0.9799  1.2100
59779SOL    HW288306   7.656   5.562  10.083  0.9016 -0.6170  1.2763
59780SOL     OW88307   6.939  11.013   4.131  0.0936 -0.4031 -0.3214
59780SOL    HW188308   6.912  11.062   4.054  1.3733 -0.3484 -0.7466
59780SOL    HW288309   6.892  10.930   4.124 -0.0766 -0.2547 -0.9640
59781SOL     OW88310  10.595   9.006   6.002  0.6004 -0.2379  0.1479
59781SOL    HW188311  10.554   8.929   5.962 -1.9616  0.4443  1.2510
59781SOL    HW288312  10.590   8.989   6.096  2.2816  0.2264  0.3423
59782SOL     OW88313  11.346   9.795  12.332  0.5968 -0.0902 -0.7137
59782SOL    HW188314  11.281   9.859  12.301  1.4560  0.9853 -0.3770
59782SOL    HW288315  11.357   9.815  12.425 -0.0316 -1.5762 -0.2903
59783SOL     OW88316   7.085   2.551   8.599 -0.1015  0.0068 -0.1032
59783SOL    HW188317   7.092   2.594   8.514  1.4125  1.8251  0.8456
59783SOL    HW288318   6.992   2.531   8.608 -0.7935  2.4184 -0.9938
59784SOL     OW88319  10.287  10.852  11.194  0.0647 -0.1002  0.0332
59784SOL    HW188320  10.272  10.942  11.163  2.5760  0.3734 -0.0954
59784SOL    HW288321  10.259  10.797  11.121  1.1224  0.7581 -1.0745
59785SOL     OW88322   8.526   2.265   7.427  0.2740  0.2388  0.1833
59785SOL    HW188323   8.554   2.356   7.417 -0.3490  0.5556  1.1308
59785SOL    HW288324   8.460   2.252   7.360  1.2178  0.1007 -0.7451
59786SOL     OW88325   0.956   4.584   7.330  0.1768  0.1573 -0.6878
59786SOL    HW188326   0.898   4.513   7.303  0.8426 -0.3308 -0.8347
59786SOL    HW288327   0.962   4.641   7.253 -2.1359  1.6124  0.0924
59787SOL     OW88328  10.522   4.049   3.505  0.3635  0.0394  0.0091
59787SOL    HW188329  10.601   4.101   3.520  0.7769  0.0602 -1.9313
59787SOL    HW288330  10.450   4.112   3.506  0.5456  0.2451  0.2513
59788SOL     OW88331   5.853   3.004   0.777 -0.0901 -0.1300 -0.7183
59788SOL    HW188332   5.899   2.966   0.703  4.0921  0.0593  1.5211
59788SOL    HW288333   5.828   2.929   0.831  2.2741 -0.1394  0.4823
59789SOL     OW88334   7.952   8.848  12.443 -0.6385  0.2719 -0.2071
59789SOL    HW188335   7.961   8.942  12.459 -1.4105  0.2852  0.2212
59789SOL    HW288336   7.969   8.807  12.528 -1.6467  0.1284 -0.0546
59790SOL     OW88337   3.213  10.651   6.648  0.3226  0.1769 -0.7235
59790SOL    HW188338   3.200  10.629   6.555 -0.0870 -1.1519 -0.3819
59790SOL    HW288339   3.270  10.581   6.681  0.3880  0.5825  0.0479
59791SOL     OW88340  11.474   7.476   1.654 -0.2926 -0.3194  0.0847
59791SOL    HW188341  11.454   7.473   1.747 -1.6496  0.7477 -0.1420
59791SOL    HW288342  11.456   7.566   1.628  1.7407 -0.1447 -0.8685
59792SOL     OW88343   3.790   0.674   0.817 -0.7259  0.0969 -0.3465
59792SOL    HW188344   3.717   0.725   0.853  0.4901  0.5263  1.6771
59792SOL    HW288345   3.838   0.736   0.763 -0.8772  0.3114 -0.2369
59793SOL     OW88346  10.981   4.590   6.695  0.3460  0.5174 -0.3343
59793SOL    HW188347  11.059   4.570   6.644 -0.3543  0.6591 -1.5006
59793SOL    HW288348  11.010   4.654   6.760  1.2235  0.4461 -0.6445
59794SOL     OW88349   4.232   8.523   1.920  0.3115 -0.2889  0.8125
59794SOL    HW188350   4.215   8.605   1.873 -0.4343  0.5441  2.4427
59794SOL    HW288351   4.285   8.471   1.860  1.0162  1.4897 -0.1750
59795SOL     OW88352   9.303   2.712   9.304  0.3430 -0.3552 -0.0156
59795SOL    HW188353   9.275   2.785   9.358 -0.8712 -1.0331  0.3056
59795SOL    HW288354   9.369   2.667   9.357 -0.8196 -1.0021  0.9229
59796SOL     OW88355  11.013  11.904   3.347  0.2617 -0.0002  0.0836
59796SOL    HW188356  10.946  11.857   3.296 -0.5527  0.5987  0.5767
59796SOL    HW288357  10.974  11.913   3.434 -0.4749  3.2893 -0.4648
59797SOL     OW88358   5.620   4.094   6.405  0.0691 -0.4718  0.1702
59797SOL    HW188359   5.691   4.030   6.405  1.3825  0.6277  4.3221
59797SOL    HW288360   5.664   4.177   6.386 -0.5765 -0.0865  0.3498
59798SOL     OW88361   4.617  11.419   1.238 -0.3410  0.0268 -0.0529
59798SOL    HW188362   4.662  11.406   1.321 -0.4914  1.8776  0.3620
59798SOL    HW288363   4.685  11.452   1.179 -0.7135  0.9682  0.0268
59799SOL     OW88364   0.897   4.139   3.451  0.4943 -0.2464 -0.4715
59799SOL    HW188365   0.908   4.074   3.381  1.1152 -0.4642 -0.1763
59799SOL    HW288366   0.869   4.219   3.405  1.3041 -0.2696 -1.0177
59800SOL     OW88367  10.129   4.008  12.114 -0.1715  0.6984  0.6680
59800SOL    HW188368  10.144   4.102  12.128  1.2904  0.9121 -1.7337
59800SOL    HW288369  10.217   3.970  12.113 -0.7474 -0.7304  1.5727
59801SOL     OW88370   6.009   8.688  10.301 -0.0036 -0.2019 -0.3465
59801SOL    HW188371   6.034   8.709  10.391  0.9066  0.0640 -0.6467
59801SOL    HW288372   6.091   8.689  10.252 -0.5815  0.5434 -1.3532
59802SOL     OW88373  11.652   8.514  11.741 -0.2352 -0.3843  0.3263
59802SOL    HW188374  11.647   8.590  11.682  2.8215 -1.4860 -1.6133
59802SOL    HW288375  11.671   8.440  11.683  0.1589 -2.0585  2.4632
59803SOL     OW88376   1.653  11.843  11.222 -0.2186  0.1369 -0.2488
59803SOL    HW188377   1.650  11.795  11.139 -2.7672 -0.8159  0.2800
59803SOL    HW288378   1.716  11.795  11.276 -0.6274 -0.9469 -0.7096
59804SOL     OW88379   2.810   7.008   1.169  0.0758  0.5848  0.8034
59804SOL    HW188380   2.906   7.005   1.162 -0.0112 -0.6605 -0.1841
59804SOL    HW288381   2.789   6.944   1.236 -0.0776  0.7403  0.9035
59805SOL     OW88382   1.844   4.839   1.522  0.2927 -0.2644  0.0349
59805SOL    HW188383   1.846   4.745   1.503 -0.0040 -0.5226  1.1743
59805SOL    HW288384   1.753   4.864   1.507  0.4819 -0.0421 -0.7621
59806SOL     OW88385  10.766   8.518   1.933 -0.1619  0.2104 -0.3707
59806SOL    HW188386  10.681   8.545   1.898 -0.2515  0.0073 -0.3112
59806SOL    HW288387  10.745   8.475   2.015  0.0319  0.5008 -0.1672
59807SOL     OW88388   6.353   7.164   6.543 -0.1027  0.5321 -0.0769
59807SOL    HW188389   6.307   7.126   6.467 -1.2856 -0.3575  1.0253
59807SOL    HW288390   6.391   7.088   6.587  0.8828  1.0823  0.0310
59808SOL     OW88391   9.343   9.992   6.549  0.3064  0.0941  0.5758
59808SOL    HW188392   9.427  10.012   6.591  0.9373  0.0548 -0.6230
59808SOL    HW288393   9.343  10.045   6.469 -0.6458 -0.2043  0.3634
59809SOL     OW88394   7.019   8.797  11.429  0.0842 -0.0466 -0.0471
59809SOL    HW188395   6.980   8.851  11.498 -1.1878 -0.4078 -0.4690
59809SOL    HW288396   7.028   8.856  11.354 -1.0157 -0.3218 -0.4085
59810SOL     OW88397   9.767   9.417   7.619  0.0150 -0.5644 -0.4381
59810SOL    HW188398   9.755   9.477   7.545  0.2134  0.5966  0.4472
59810SOL    HW288399   9.836   9.457   7.672  0.1679 -1.5930  0.1745
59811SOL     OW88400   0.767  12.406   2.256  0.6034 -0.0198  0.2879
59811SOL    HW188401   0.701  12.445   2.313  1.8754  1.0970  1.0600
59811SOL    HW288402   0.719  12.384   2.176 -0.7660  0.4138  0.9579
59812SOL     OW88403   0.304   4.110   3.470 -0.1842 -0.0326  0.4890
59812SOL    HW188404   0.212   4.091   3.487 -0.1751 -2.0259 -1.2257
59812SOL    HW288405   0.349   4.027   3.486  1.1700  0.6441  0.3553
59813SOL     OW88406  11.483   3.714   3.888 -0.2320  0.4056  0.2465
59813SOL    HW188407  11.488   3.688   3.980 -0.2650  2.3304  0.8335
59813SOL    HW288408  11.465   3.808   3.890 -0.7732  0.3999 -1.7373
59814SOL     OW88409   7.266   0.356   5.522 -0.5508 -0.1376 -0.1796
59814SOL    HW188410   7.171   0.347   5.519 -0.4454 -2.5037  1.1857
59814SOL    HW288411   7.285   0.383   5.612  0.1243 -1.3116  0.0543
59815SOL     OW88412  12.400   4.823  11.137  0.1413  0.2621 -0.0178
59815SOL    HW188413  12.408   4.796  11.046  0.2418 -1.6518  0.5067
59815SOL    HW288414  12.455   4.901  11.145  0.6303  0.0755 -1.4342
59816SOL     OW88415  12.189  12.172   0.423  0.0141 -0.5285  0.2060
59816SOL    HW188416  12.151  12.091   0.387  0.3808 -1.0903  1.0514
59816SOL    HW288417  12.118  12.211   0.474  0.2260 -1.0205  0.8969
59817SOL     OW88418   4.564   6.670  11.168 -0.1568  0.3095  0.0482
59817SOL    HW188419   4.547   6.638  11.256 -0.2767  1.2556  0.3809
59817SOL    HW288420   4.649   6.714  11.174  1.7141 -2.8299 -1.1923
59818SOL     OW88421   7.291   5.758  12.040 -0.2707  0.1463 -0.3581
59818SOL    HW188422   7.271   5.839  12.085 -0.8479  0.1497 -0.6030
59818SOL    HW288423   7.219   5.699  12.063 -0.2015 -0.0790 -0.7045
59819SOL     OW88424  10.029   8.272   9.912 -0.3638  0.3262  0.2773
59819SOL    HW188425  10.116   8.296   9.945 -0.2697  0.9157 -0.3751
59819SOL    HW288426  10.047   8.219   9.834 -0.5879 -0.4626  0.7521
59820SOL     OW88427   0.761   8.025   0.845 -0.0097 -0.1139  0.2274
59820SOL    HW188428   0.856   8.011   0.841  0.2566  1.8218 -1.3603
59820SOL    HW288429   0.750   8.093   0.911 -0.2718 -0.0447  0.1116
59821SOL     OW88430  11.456  10.685   5.201  0.3205  0.4974  0.1583
59821SOL    HW188431  11.426  10.613   5.257  1.7261  0.6298  1.1450
59821SOL    HW288432  11.545  10.660   5.176  0.2883  1.2194 -0.6908
59822SOL     OW88433   5.068  10.969   1.089 -0.3933  0.0342 -0.1785
59822SOL    HW188434   4.975  10.994   1.095 -0.5362 -0.2500 -1.1165
59822SOL    HW288435   5.069  10.876   1.114 -0.0541  0.5381  1.8971
59823SOL     OW88436   0.607   3.381   0.985 -0.4295 -0.0393  0.2548
59823SOL    HW188437   0.569   3.298   0.955 -1.1010 -0.0289  1.0402
59823SOL    HW288438   0.559   3.401   1.065 -0.1840  1.0510  0.1397
59824SOL     OW88439  10.260   4.383   4.488 -0.1389 -0.3021  0.0872
59824SOL    HW188440  10.341   4.418   4.526 -0.6071  2.6017 -1.3387
59824SOL    HW288441  10.269   4.288   4.497  2.8161 -0.0294  1.1622
59825SOL     OW88442   3.083   2.406   1.997  0.2708 -0.0443  0.5018
59825SOL    HW188443   3.002   2.451   1.973  1.7275  2.0218 -0.7888
59825SOL    HW288444   3.106   2.354   1.920  0.3317 -0.4544  0.7878
59826SOL     OW88445   3.202   3.555   4.125 -0.4095 -0.3772 -0.0224
59826SOL    HW188446   3.190   3.588   4.037 -0.1898  0.6159  0.3099
59826SOL    HW288447   3.217   3.633   4.179 -0.6949 -0.9472  0.9197
59827SOL     OW88448   2.496   4.901   1.560  0.2237  0.2463 -0.2319
59827SOL    HW188449   2.548   4.842   1.616 -0.9520  0.0476  0.6898
59827SOL    HW288450   2.495   4.984   1.607  0.0821  0.3820 -0.4742
59828SOL     OW88451   2.293   7.185   5.173  0.2957 -0.4547  0.0722
59828SOL    HW188452   2.362   7.126   5.143 -1.5574 -2.2854 -0.8750
59828SOL    HW288453   2.264   7.230   5.094  0.6193  0.5516  0.5182
59829SOL     OW88454   7.970   0.178  10.980 -0.0661 -0.4063 -0.1970
59829SOL    HW188455   8.056   0.175  10.939 -1.0001 -0.6029 -2.2842
59829SOL    HW288456   7.928   0.255  10.942 -0.9140 -0.4741  0.5769
59830SOL     OW88457   5.262   3.286   1.762  0.2073  0.1633 -0.2310
59830SOL    HW188458   5.171   3.257   1.752  0.1582  0.4715 -0.7085
59830SOL    HW288459   5.314   3.207   1.744  0.0329 -0.0844  0.3236
59831SOL     OW88460  12.193   6.872   9.730 -0.3724 -0.1128  0.0316
59831SOL    HW188461  12.140   6.866   9.650  1.0471 -0.0496 -0.9690
59831SOL    HW288462  12.143   6.929   9.788 -1.2050  0.2653 -1.0212
59832SOL     OW88463   9.073  10.236   7.945  0.5873  0.1289  0.0120
59832SOL    HW188464   9.082  10.314   8.000  1.0492  0.3982 -0.4331
59832SOL    HW288465   9.154  10.187   7.957 -0.1150 -0.8182  1.0704
59833SOL     OW88466   8.708   1.728   9.173  0.0179 -0.1778  0.2094
59833SOL    HW188467   8.713   1.718   9.078  2.3467 -2.3487  0.4350
59833SOL    HW288468   8.788   1.775   9.196  0.8411 -1.9630  1.2388
59834SOL     OW88469   1.412   4.897  11.849  0.0640  0.4313 -0.4645
59834SOL    HW188470   1.410   4.944  11.766  0.8424  0.7485 -0.3062
59834SOL    HW288471   1.467   4.821  11.833  2.0592  1.6202  0.3194
59835SOL     OW88472   1.793   3.815  11.737  0.2563 -1.0413  0.7353
59835SOL    HW188473   1.874   3.768  11.717  0.9699 -0.1292  1.3864
59835SOL    HW288474   1.767   3.783  11.823 -0.3601 -1.6839  0.3249
59836SOL     OW88475   2.566   6.549   0.470  0.0746 -0.3972  0.2844
59836SOL    HW188476   2.585   6.535   0.563 -0.2389  1.8268  0.7432
59836SOL    HW288477   2.476   6.516   0.459  0.1366 -0.7359  0.7564
59837SOL     OW88478   1.113   6.112  10.096  0.1006 -0.0467 -0.0870
59837SOL    HW188479   1.194   6.067  10.120  0.0729 -0.6714 -1.1006
59837SOL    HW288480   1.142   6.183  10.037  0.0418  0.6520  0.7031
59838SOL     OW88481   0.164   3.155   7.173 -0.1700  0.3231 -0.0800
59838SOL    HW188482   0.200   3.138   7.259 -0.3273  0.5801  0.0400
59838SOL    HW288483   0.076   3.189   7.190 -0.3604 -0.0287 -0.3572
59839SOL     OW88484   1.381   6.254   6.805  0.4044  0.0587 -0.1356
59839SOL    HW188485   1.425   6.301   6.875 -0.1103  0.0056  0.2287
59839SOL    HW288486   1.349   6.174   6.847  0.0430  0.0558 -0.4158
59840SOL     OW88487   3.020   0.460   3.304  0.4819  0.1318 -0.1096
59840SOL    HW188488   3.043   0.551   3.325  2.2507 -0.3425  0.1334
59840SOL    HW288489   3.096   0.427   3.256  0.7360 -1.8068  1.5217
59841SOL     OW88490  11.863  12.473   7.525  0.2605 -0.2344  0.5384
59841SOL    HW188491  11.803  12.522   7.468  1.1850  0.1157 -0.1505
59841SOL    HW288492  11.866  12.386   7.486  1.1819  0.1090 -0.1887
59842SOL     OW88493  12.353  10.092  11.701  0.4854 -0.4867  0.2331
59842SOL    HW188494  12.344  10.005  11.740 -0.0115 -1.7638 -2.5035
59842SOL    HW288495  12.443  10.095  11.670  0.0339 -0.7171 -1.1472
59843SOL     OW88496  10.200   2.825   5.656 -0.0583  0.1344  0.2753
59843SOL    HW188497  10.118   2.832   5.607 -0.5574 -2.2806  0.6417
59843SOL    HW288498  10.259   2.887   5.613 -1.0735 -0.4535 -2.1078
59844SOL     OW88499   1.595   2.716   3.340 -0.3268 -0.3072  0.0780
59844SOL    HW188500   1.683   2.717   3.302 -0.2406  1.5935  0.2579
59844SOL    HW288501   1.577   2.623   3.354  0.5116 -0.9617 -2.5276
59845SOL     OW88502   9.197   6.854   9.294  0.2468  0.2858 -0.3032
59845SOL    HW188503   9.168   6.849   9.203  2.1058  0.6214 -0.9522
59845SOL    HW288504   9.187   6.765   9.327 -0.8474  0.2502 -0.6930
59846SOL     OW88505   6.053   5.206   0.726  0.4734  0.8262 -0.1574
59846SOL    HW188506   6.111   5.183   0.799  0.5109  1.4448  0.0147
59846SOL    HW288507   5.970   5.230   0.768 -0.1840 -0.8011 -0.4430
59847SOL     OW88508   5.693   8.790   8.501  0.1634 -0.5705  0.0633
59847SOL    HW188509   5.667   8.770   8.591 -0.2573 -0.9031 -0.1265
59847SOL    HW288510   5.757   8.861   8.510 -2.3194  1.7725  0.4505
59848SOL     OW88511  11.867   9.944   7.254  0.1475 -0.0339 -0.3026
59848SOL    HW188512  11.943   9.888   7.266 -0.2751 -0.5606 -0.0908
59848SOL    HW288513  11.834   9.921   7.167  1.0680  1.2205 -1.0328
59849SOL     OW88514   5.058   8.992   5.805  0.7185 -0.0981  0.1050
59849SOL    HW188515   5.095   8.922   5.858 -0.7559  0.3773  1.8259
59849SOL    HW288516   5.009   9.046   5.866  0.7559  1.7298 -1.3936
59850SOL     OW88517   0.424   2.023   9.592  0.1084  0.3471  0.6408
59850SOL    HW188518   0.389   2.006   9.679  1.5446 -0.2819  1.1288
59850SOL    HW288519   0.479   1.947   9.573 -0.3438  0.3677 -0.9153
59851SOL     OW88520  12.438   0.992   5.353  0.1594  0.4540  0.4622
59851SOL    HW188521  12.390   1.051   5.295  0.3488  0.2136  0.0568
59851SOL    HW288522  12.444   1.039   5.436 -0.1986  0.7604  0.3150
59852SOL     OW88523   0.398   0.110  12.352 -0.1467 -0.9800 -0.0021
59852SOL    HW188524   0.467   0.056  12.388  1.1658 -0.1638 -1.1717
59852SOL    HW288525   0.362   0.157  12.427  2.0418  0.1804  0.4095
59853SOL     OW88526  10.090  10.307   2.721  0.3791 -0.7325  0.5719
59853SOL    HW188527  10.084  10.267   2.635 -1.3389 -0.0456  0.3302
59853SOL    HW288528  10.012  10.277   2.768 -0.0753  0.9438  0.9625
59854SOL     OW88529   6.096  12.022  12.326  0.3246  0.3488 -0.1150
59854SOL    HW188530   6.016  12.053  12.368 -0.1573  0.9723 -1.4445
59854SOL    HW288531   6.156  12.097  12.332  0.8418 -0.1194  0.8856
59855SOL     OW88532   5.724   0.992   3.227 -0.1096 -0.3114  0.7580
59855SOL    HW188533   5.797   1.055   3.230 -1.2206  1.0443  0.4949
59855SOL    HW288534   5.726   0.949   3.313  0.9903 -0.2958  0.7558
59856SOL     OW88535  11.203   4.274   1.996 -0.2932 -0.2144  0.6007
59856SOL    HW188536  11.247   4.357   2.013 -0.2869 -0.2516  0.7706
59856SOL    HW288537  11.161   4.286   1.911  1.7303 -0.8820 -0.5585
59857SOL     OW88538   6.286  10.477   5.722  0.3262  0.1906 -0.2949
59857SOL    HW188539   6.304  10.571   5.727 -0.3447  0.2825  0.9393
59857SOL    HW288540   6.191  10.470   5.728  0.3488 -0.5658 -0.6012
59858SOL     OW88541   1.195   8.040   0.392  0.1514  0.1481 -0.4639
59858SOL    HW188542   1.102   8.052   0.374 -0.5296 -3.1522  0.2536
59858SOL    HW288543   1.215   8.106   0.458 -1.6618  0.9011 -0.5983
59859SOL     OW88544   9.653   3.314  10.800  0.1189 -0.5422 -0.0779
59859SOL    HW188545   9.626   3.251  10.732 -0.6779 -1.0489  0.6832
59859SOL    HW288546   9.680   3.259  10.874 -3.1657 -0.0786  1.6236
59860SOL     OW88547  11.089   2.916  10.858  0.4063  0.2268 -0.0510
59860SOL    HW188548  11.015   2.858  10.877  0.2514  0.1129 -0.9491
59860SOL    HW288549  11.050   2.993  10.818  0.5803  1.1274  1.4574
59861SOL     OW88550   4.726   0.721   4.046  0.2093  0.1078 -0.5302
59861SOL    HW188551   4.689   0.650   4.099 -3.0241  1.5291 -0.6852
59861SOL    HW288552   4.725   0.797   4.104 -1.4764  1.2233 -1.9424
59862SOL     OW88553   7.432  12.346   5.966 -0.5067 -0.0812  0.0534
59862SOL    HW188554   7.475  12.275   5.917 -0.5916  1.2462 -2.0291
59862SOL    HW288555   7.364  12.302   6.017 -0.2284 -1.5634 -0.8017
59863SOL     OW88556   4.086   0.138   9.396 -0.0858 -0.0917 -0.5358
59863SOL    HW188557   4.166   0.168   9.352 -0.0880 -0.3700 -0.7316
59863SOL    HW288558   4.060   0.212   9.451  0.6992 -0.2540  0.0812
59864SOL     OW88559   9.835   1.766   4.282 -0.2006 -0.1035 -0.3411
59864SOL    HW188560   9.776   1.698   4.247 -1.9720  0.6884  0.9326
59864SOL    HW288561   9.874   1.726   4.360  0.6141 -0.4645 -0.9235
59865SOL     OW88562   1.577   1.452   2.504 -0.0773  0.1601  0.0081
59865SOL    HW188563   1.621   1.515   2.562  1.4132 -0.1103 -0.7809
59865SOL    HW288564   1.640   1.381   2.494 -0.8930 -0.4713 -0.8083
59866SOL     OW88565   9.057  10.167   8.984  0.2555  0.1345 -0.2016
59866SOL    HW188566   8.971  10.207   8.977 -0.3209 -0.8224  1.0311
59866SOL    HW288567   9.111  10.233   9.027 -0.1748  0.3001  0.0883
59867SOL     OW88568  11.101   5.447   4.909 -0.2786  0.2585  0.0766
59867SOL    HW188569  11.149   5.449   4.991 -0.0353  1.3572 -0.0767
59867SOL    HW288570  11.048   5.527   4.910 -1.9255 -0.8022  0.1266
59868SOL     OW88571  12.597   1.235   4.582 -0.0717 -0.0778 -0.5143
59868SOL    HW188572  12.527   1.198   4.528 -0.1774  0.1734 -0.5520
59868SOL    HW288573  12.612   1.170   4.651  0.4872 -0.6973 -1.1940
59869SOL     OW88574  12.237   2.872   1.503 -0.8396  0.4373  0.3969
59869SOL    HW188575  12.301   2.886   1.433 -0.1639 -0.6181  0.7847
59869SOL    HW288576  12.163   2.928   1.479  0.3120  1.8823  0.0753
59870SOL     OW88577   5.739  10.751   3.404  0.1531  0.0068  0.1178
59870SOL    HW188578   5.647  10.779   3.402 -0.5275 -1.9256  1.6613
59870SOL    HW288579   5.759  10.726   3.314 -0.9126  0.2219 -0.1900
59871SOL     OW88580   1.761   7.712   2.413 -0.4782  0.0036  0.1978
59871SOL    HW188581   1.834   7.652   2.397  1.5826  1.6532  2.6715
59871SOL    HW288582   1.785   7.792   2.366 -1.5868  0.0199 -0.3740
59872SOL     OW88583   4.089   3.232   8.067  0.3355  0.0418 -0.1357
59872SOL    HW188584   4.098   3.240   7.972  3.6055  0.3451  0.0861
59872SOL    HW288585   4.093   3.322   8.099  1.0960 -0.1677  0.3782
59873SOL     OW88586   6.156   6.908   2.993  0.4434  0.1521 -0.1427
59873SOL    HW188587   6.248   6.916   2.965  1.2127  0.9383  2.3845
59873SOL    HW288588   6.124   6.998   2.996 -0.3984 -0.1036 -0.8013
59874SOL     OW88589   9.592   0.504  10.108 -0.3826 -0.0393  0.0446
59874SOL    HW188590   9.605   0.489  10.202  0.9381  2.9899  0.4370
59874SOL    HW288591   9.640   0.432  10.067 -0.1491 -0.8767  1.6646
59875SOL     OW88592  11.232   9.914   3.501 -0.5187  0.1356  0.2283
59875SOL    HW188593  11.284   9.870   3.568  0.8600  0.1657 -0.7658
59875SOL    HW288594  11.141   9.907   3.532  0.1264  0.8249  2.4278
59876SOL     OW88595   0.017   8.773   3.370 -0.1344 -0.1341 -0.2995
59876SOL    HW188596  -0.065   8.739   3.333 -0.1504 -0.4537  0.0200
59876SOL    HW288597   0.082   8.707   3.349 -0.1808 -0.4124  0.3910
59877SOL     OW88598   2.251   0.772   6.767 -0.0983  0.4224 -0.0641
59877SOL    HW188599   2.174   0.721   6.742  0.4505 -1.1000  1.1707
59877SOL    HW288600   2.219   0.831   6.835 -0.0324 -0.8596  1.1219
59878SOL     OW88601  12.520   7.256   6.916  0.2397  0.2567  0.4998
59878SOL    HW188602  12.540   7.271   6.824 -0.8169  1.0502  0.3850
59878SOL    HW288603  12.552   7.335   6.961  0.6160 -0.0602  0.8002
59879SOL     OW88604   5.146   3.606   3.541 -0.1378  0.2394 -0.2820
59879SOL    HW188605   5.135   3.522   3.498  1.7610  0.2779 -0.9397
59879SOL    HW288606   5.161   3.668   3.470  2.3820  0.4197  0.2969
59880SOL     OW88607   0.869   6.579   2.956  0.3264  0.4226  0.0255
59880SOL    HW188608   0.958   6.602   2.930  0.3257  0.4997  0.0893
59880SOL    HW288609   0.814   6.613   2.886  0.4635 -1.0270 -0.8214
59881SOL     OW88610  11.926  12.528   7.158  0.4791  0.4455  0.1208
59881SOL    HW188611  11.903  12.619   7.141 -1.2910 -0.1670 -1.1592
59881SOL    HW288612  11.854  12.495   7.213  1.7369  0.1052  1.6446
59882SOL     OW88613   9.424  10.341   5.883  0.2471 -0.0854 -0.0695
59882SOL    HW188614   9.497  10.372   5.937  3.0551 -1.5531 -2.6914
59882SOL    HW288615   9.463  10.328   5.796 -3.3262 -0.5000 -1.7808
59883SOL     OW88616   8.097  11.206  10.687  0.0071  0.4466 -0.1262
59883SOL    HW188617   8.014  11.252  10.699 -0.0621  0.2598  0.1196
59883SOL    HW288618   8.105  11.150  10.765  0.2956  0.3618 -0.2153
59884SOL     OW88619  11.606   1.946  10.541  0.3008 -0.3572 -0.7372
59884SOL    HW188620  11.606   2.036  10.572 -1.3017 -0.5130 -0.1872
59884SOL    HW288621  11.607   1.893  10.620  1.6892 -0.8517 -1.0621
59885SOL     OW88622   5.822   7.658   2.690 -0.1298 -0.0097 -0.0431
59885SOL    HW188623   5.880   7.730   2.665 -1.0994  0.7186 -0.2896
59885SOL    HW288624   5.851   7.633   2.778  1.8402 -1.0506 -0.9224
59886SOL     OW88625  12.306   3.297  11.549  0.0545 -0.2220  0.0108
59886SOL    HW188626  12.365   3.283  11.475  1.0993 -0.2122  0.8081
59886SOL    HW288627  12.223   3.322  11.510  0.0215 -2.0544 -1.2495
59887SOL     OW88628   7.256  12.379   2.698  0.4793 -0.2759  0.1663
59887SOL    HW188629   7.232  12.309   2.758  1.4737 -0.9388 -0.1994
59887SOL    HW288630   7.223  12.350   2.612  1.2073 -0.4724 -0.0514
59888SOL     OW88631   7.507   7.460   0.073  0.2559 -0.3060 -0.2574
59888SOL    HW188632   7.467   7.375   0.054  1.1665 -0.7557 -0.2135
59888SOL    HW288633   7.582   7.439   0.129 -0.2439  0.6487  0.7903
59889SOL     OW88634   3.179   1.225   4.495 -0.1634  0.7007 -0.5474
59889SOL    HW188635   3.195   1.319   4.503  0.4063  0.6012 -0.4449
59889SOL    HW288636   3.090   1.213   4.527  0.1755  1.0411  0.5742
59890SOL     OW88637   0.298  10.256   1.123  0.0830  0.3157  0.6808
59890SOL    HW188638   0.385  10.296   1.134  0.9146 -1.2439  0.0537
59890SOL    HW288639   0.272  10.229   1.211  0.2446  0.7587  0.8671
59891SOL     OW88640   6.307   6.564   5.295  0.0780  0.2282 -0.0968
59891SOL    HW188641   6.259   6.541   5.215 -1.9034  1.3177  0.7086
59891SOL    HW288642   6.358   6.641   5.271 -0.4315  0.4919 -0.3467
59892SOL     OW88643   6.809   0.038   9.997  0.4101 -0.2472  0.3109
59892SOL    HW188644   6.837  -0.053   9.986  1.6802  0.2573 -0.8920
59892SOL    HW288645   6.833   0.060  10.088  1.5283 -0.6456  0.1233
59893SOL     OW88646   0.993   2.467   0.655  0.4370 -0.3661 -0.5376
59893SOL    HW188647   1.033   2.380   0.651  1.3328 -0.0355  0.5829
59893SOL    HW288648   0.914   2.460   0.603  0.3573 -1.9311 -0.2468
59894SOL     OW88649   8.542   3.861   0.101  0.8076  0.2321 -0.3207
59894SOL    HW188650   8.540   3.791   0.166 -2.7804  1.5860  1.3616
59894SOL    HW288651   8.456   3.904   0.110  1.5328  2.7928 -3.5172
59895SOL     OW88652   9.904  11.734   5.584 -0.3259  0.0829  0.1211
59895SOL    HW188653   9.982  11.690   5.549 -0.3861  0.3636 -0.3680
59895SOL    HW288654   9.882  11.684   5.663  0.6546  0.3206  0.5523
59896SOL     OW88655  10.831   2.652   5.765  0.6422  0.0060 -0.2643
59896SOL    HW188656  10.878   2.653   5.681  0.1129  0.7541 -0.5644
59896SOL    HW288657  10.866   2.728   5.813 -0.7616  1.0380 -0.7979
59897SOL     OW88658  10.190   6.774   8.316  0.2960 -0.0113 -0.1875
59897SOL    HW188659  10.138   6.770   8.235  0.3844 -0.1309 -0.2398
59897SOL    HW288660  10.240   6.855   8.308  1.9475 -1.0711 -1.2737
59898SOL     OW88661   0.593   5.739   6.381  0.2420  0.0006  0.6456
59898SOL    HW188662   0.588   5.646   6.403 -0.0573 -0.5189 -1.4483
59898SOL    HW288663   0.685   5.762   6.394  0.1150 -0.2526  2.2692
59899SOL     OW88664   9.427  11.332   7.964  0.0911 -0.3668  0.2386
59899SOL    HW188665   9.361  11.264   7.977 -1.4010  1.0867  0.4833
59899SOL    HW288666   9.439  11.336   7.869 -0.1229 -0.6869  0.1968
59900SOL     OW88667  12.419   3.539   6.332 -0.0657  0.3606  0.2877
59900SOL    HW188668  12.453   3.451   6.346  1.4922  0.7853 -0.6147
59900SOL    HW288669  12.469   3.573   6.258 -1.2868  1.6717  0.0214
59901SOL     OW88670   4.655   3.103   4.708 -0.1728  0.1417  0.1911
59901SOL    HW188671   4.655   3.025   4.653  0.9789  0.5850 -0.4712
59901SOL    HW288672   4.720   3.160   4.668 -1.6920  1.8769  0.0643
59902SOL     OW88673   8.878   5.099   7.569  0.0631 -0.6610  0.0497
59902SOL    HW188674   8.899   5.156   7.495  0.6721 -0.1838  0.5809
59902SOL    HW288675   8.940   5.027   7.562 -1.2650 -1.7474 -1.1233
59903SOL     OW88676  12.097  11.956   6.479  0.5551  0.5586  0.4735
59903SOL    HW188677  12.066  12.018   6.413  1.5900  0.2240 -0.3453
59903SOL    HW288678  12.147  12.011   6.540  1.5459  0.5457 -0.2985
59904SOL     OW88679   6.152   4.762   4.385  0.8794 -0.1169  0.3027
59904SOL    HW188680   6.186   4.744   4.297  0.1238  4.5548 -1.2121
59904SOL    HW288681   6.080   4.699   4.396  1.3365 -1.1890 -2.1578
59905SOL     OW88682   5.495   9.631   8.146  0.0205 -0.0786 -0.1306
59905SOL    HW188683   5.436   9.581   8.090  0.2038 -0.1968 -0.2203
59905SOL    HW288684   5.582   9.601   8.121  0.0698 -2.6480  2.4975
59906SOL     OW88685   4.598   0.065  11.876 -0.8966  0.5789 -0.3338
59906SOL    HW188686   4.515   0.048  11.920 -1.6258  0.3754 -1.7452
59906SOL    HW288687   4.661   0.007  11.920 -1.6514  0.1912  0.2571
59907SOL     OW88688   2.049   8.146   4.630  0.3281  0.2095  0.5172
59907SOL    HW188689   2.101   8.089   4.573  0.6002  1.5690 -0.6731
59907SOL    HW288690   1.976   8.174   4.575  0.1955  0.9834  1.0765
59908SOL     OW88691   0.564   2.785  10.024 -0.1580 -0.4730  0.0113
59908SOL    HW188692   0.544   2.866   9.977 -0.9352 -1.3668 -1.2752
59908SOL    HW288693   0.573   2.812  10.115  1.2996  1.3084 -0.5987
59909SOL     OW88694   2.290   8.531   3.479 -0.1950  0.4219 -0.2831
59909SOL    HW188695   2.302   8.476   3.557  0.3782  0.5242 -0.2945
59909SOL    HW288696   2.379   8.557   3.455 -0.4719  1.5422 -0.1372
59910SOL     OW88697   0.984   8.549  10.987  0.0182 -0.5920  0.7646
59910SOL    HW188698   1.076   8.531  11.005  0.3530  1.0871  0.9616
59910SOL    HW288699   0.986   8.608  10.911 -0.9458 -1.2152  0.2353
59911SOL     OW88700  11.626   7.986  12.278 -0.0472 -0.0572  0.1427
59911SOL    HW188701  11.549   7.992  12.221  0.0552 -0.2725 -0.0193
59911SOL    HW288702  11.649   7.893  12.277  2.3377  0.4282 -2.5994
59912SOL     OW88703   5.779  11.394  10.799 -0.1684 -0.6063  0.7685
59912SOL    HW188704   5.859  11.437  10.771  1.5716 -3.0448  1.6997
59912SOL    HW288705   5.720  11.403  10.724  0.3106  2.5677  0.6293
59913SOL     OW88706   8.528   5.699   1.627 -0.5784 -0.5359  0.1355
59913SOL    HW188707   8.527   5.606   1.652  2.5963  0.0768  3.2620
59913SOL    HW288708   8.568   5.700   1.540  1.5241 -2.0423  1.0089
59914SOL     OW88709   0.977   4.545   1.381  0.1761 -0.2275  0.2314
59914SOL    HW188710   1.009   4.580   1.298 -0.8095  1.5876  0.5569
59914SOL    HW288711   1.046   4.486   1.411  0.6213 -0.8138 -1.7821
59915SOL     OW88712   8.070   0.976   5.356  0.3253 -0.7247  0.1505
59915SOL    HW188713   8.082   0.892   5.400 -0.7849 -0.3708  1.2019
59915SOL    HW288714   8.111   1.040   5.415  2.0605 -0.5873 -1.1195
59916SOL     OW88715  11.248   5.163   7.169  0.4663 -0.0491 -0.3490
59916SOL    HW188716  11.163   5.204   7.180  0.7145  0.3214  0.2461
59916SOL    HW288717  11.245   5.086   7.225 -0.4269 -1.5606 -2.3538
59917SOL     OW88718   7.601   5.821   0.387  0.3659  0.1906 -0.1477
59917SOL    HW188719   7.541   5.829   0.313 -2.9454 -1.8732  2.0288
59917SOL    HW288720   7.608   5.910   0.422 -2.8508  0.3599  0.3953
59918SOL     OW88721   1.907   3.576   5.676 -0.3835  1.0006  0.0374
59918SOL    HW188722   1.999   3.599   5.663  0.4307 -1.9176 -0.0613
59918SOL    HW288723   1.904   3.538   5.764 -1.8305  2.4287  0.6456
59919SOL     OW88724   9.971   4.988   1.726  0.0316  0.5999 -0.1389
59919SOL    HW188725   9.890   4.984   1.675  1.0175  2.2126 -1.9609
59919SOL    HW288726   9.954   5.055   1.792 -0.1101  0.9550 -0.5338
59920SOL     OW88727   7.889   1.348   1.057 -0.2620  0.3100 -0.1336
59920SOL    HW188728   7.798   1.375   1.044  0.0150  1.5162  0.3088
59920SOL    HW288729   7.939   1.403   0.997  0.1283 -0.8320 -0.8816
59921SOL     OW88730  11.336   9.215  10.856  0.6480  0.2277  0.0615
59921SOL    HW188731  11.350   9.298  10.810 -0.0634  0.4251  0.1860
59921SOL    HW288732  11.336   9.238  10.949  0.4830  0.0886  0.0975
59922SOL     OW88733   5.314   4.844   2.214 -0.6243 -0.3148 -0.3218
59922SOL    HW188734   5.299   4.768   2.270 -0.0257  0.4933  0.9938
59922SOL    HW288735   5.359   4.907   2.271  0.2885  0.4321 -1.7994
59923SOL     OW88736   5.941   6.280  11.310  0.4649 -0.2257  0.2830
59923SOL    HW188737   5.893   6.353  11.270  1.9072  1.4408  1.4593
59923SOL    HW288738   6.028   6.285  11.271  0.6348 -1.2404  0.5115
59924SOL     OW88739   2.935   9.414   4.208 -0.9296 -0.7729  0.5188
59924SOL    HW188740   3.018   9.443   4.245 -1.1941  1.2080 -0.3145
59924SOL    HW288741   2.946   9.425   4.113 -2.0719 -0.6342  0.3847
59925SOL     OW88742   4.135  11.270   9.017 -0.0334 -0.4334  0.2699
59925SOL    HW188743   4.199  11.217   8.971  0.5627 -1.7311  2.4681
59925SOL    HW288744   4.185  11.318   9.083 -0.9219  0.9991 -0.0284
59926SOL     OW88745   3.898   4.058   5.299 -0.1086 -0.2184 -0.3586
59926SOL    HW188746   3.932   4.013   5.377 -2.0346 -2.9631 -0.9705
59926SOL    HW288747   3.830   4.000   5.265 -2.2620  2.8461 -1.7573
59927SOL     OW88748   7.290   9.150   8.340  0.1162  0.3642  0.0838
59927SOL    HW188749   7.344   9.106   8.274 -0.4264  1.3414 -1.0543
59927SOL    HW288750   7.225   9.200   8.289 -3.2983 -2.3847  1.3274
59928SOL     OW88751   4.840  10.032   3.603  0.4290 -0.4204  0.0338
59928SOL    HW188752   4.849   9.946   3.562  1.1393 -0.9956  1.3299
59928SOL    HW288753   4.875  10.093   3.538 -0.7139 -1.0149 -1.1782
59929SOL     OW88754  11.693   1.847   6.951 -0.0098 -0.3779 -0.3439
59929SOL    HW188755  11.718   1.892   6.870  1.6489  1.8581  1.2922
59929SOL    HW288756  11.597   1.847   6.950 -0.0508 -1.1500 -2.6390
59930SOL     OW88757  10.049  10.565   1.079  0.5571  0.0657  0.1738
59930SOL    HW188758  10.134  10.543   1.117  0.6844  0.2956  0.0231
59930SOL    HW288759   9.988  10.558   1.152  0.7320  0.0727  0.3238
59931SOL     OW88760   5.499  11.154  10.476 -0.3494 -0.2546  0.1042
59931SOL    HW188761   5.460  11.189  10.556 -0.4494 -0.7842  0.2925
59931SOL    HW288762   5.431  11.163  10.409 -0.0148  0.8610 -0.1062
59932SOL     OW88763   7.752   3.260   9.326 -0.0397 -0.1182  0.2826
59932SOL    HW188764   7.724   3.348   9.348  1.5383  0.7079 -0.8225
59932SOL    HW288765   7.769   3.263   9.231  0.3801 -1.4985  0.2912
59933SOL     OW88766   8.164   1.922   7.610  0.4872  0.2251  0.3674
59933SOL    HW188767   8.165   1.949   7.702 -1.4358  0.6078  0.3248
59933SOL    HW288768   8.116   1.839   7.610  0.4933  0.2165 -0.2715
59934SOL     OW88769  10.975   5.072   4.470  0.3240  1.2540  0.1759
59934SOL    HW188770  11.037   5.100   4.537  0.0290  0.7342  0.6751
59934SOL    HW288771  11.029   5.024   4.407  0.3952  0.5208  0.7732
59935SOL     OW88772  11.488   8.536   7.867  0.0854 -0.7316 -0.1278
59935SOL    HW188773  11.467   8.444   7.887 -2.4679  0.0717  1.4276
59935SOL    HW288774  11.417   8.565   7.810 -0.6085  0.8856  1.4394
59936SOL     OW88775   2.759  10.626   8.344 -0.1883 -0.0311 -0.1006
59936SOL    HW188776   2.720  10.683   8.278 -0.9548 -1.3258 -0.8088
59936SOL    HW288777   2.853  10.643   8.338 -0.4130  1.2828 -0.1527
59937SOL     OW88778  12.584   9.205   1.336  0.3867  0.0288  0.1338
59937SOL    HW188779  12.587   9.118   1.377  2.1523  0.4847  1.0818
59937SOL    HW288780  12.673   9.219   1.302  0.0158  1.2885 -0.3854
59938SOL     OW88781   2.285  10.965   8.439 -0.2535  0.3962  0.4522
59938SOL    HW188782   2.217  11.032   8.433  0.5891  1.1968 -0.6450
59938SOL    HW288783   2.302  10.957   8.533 -0.1694  1.9628  0.5969
59939SOL     OW88784   6.740  10.700   1.521 -0.0714 -0.2090  0.3319
59939SOL    HW188785   6.665  10.644   1.541 -0.0499 -0.7787 -1.0214
59939SOL    HW288786   6.761  10.744   1.603 -0.4586 -1.7531  1.2858
59940SOL     OW88787   1.608  12.252   8.279  0.1691 -0.1386  0.3989
59940SOL    HW188788   1.538  12.226   8.337  0.4376  0.1690  0.8688
59940SOL    HW288789   1.578  12.226   8.192 -0.8990  0.7334  0.4821
59941SOL     OW88790   3.665   2.547   5.052  0.1644 -0.0854 -0.2693
59941SOL    HW188791   3.718   2.484   5.004 -0.4791 -0.6798 -0.2175
59941SOL    HW288792   3.675   2.522   5.144 -0.0669 -0.1007 -0.2471
59942SOL     OW88793  11.909  11.639  12.429  0.2688 -0.5144  0.5877
59942SOL    HW188794  11.842  11.587  12.473  0.9846 -1.3555  0.7004
59942SOL    HW288795  11.865  11.722  12.409 -0.6424 -0.8487  1.1356
59943SOL     OW88796   2.956   4.851   0.495 -0.1805  0.2467 -0.4321
59943SOL    HW188797   2.918   4.900   0.422  1.1938  2.4575  0.2281
59943SOL    HW288798   3.044   4.829   0.466 -0.4305 -0.9543 -0.3075
59944SOL     OW88799   7.847   5.251  12.146  0.0347  0.3456  0.5060
59944SOL    HW188800   7.754   5.268  12.155 -0.1735  0.8665 -1.9062
59944SOL    HW288801   7.888   5.338  12.144  1.0334  0.1442  4.4812
59945SOL     OW88802   6.669   0.585  11.903 -0.1636  0.2936  0.6364
59945SOL    HW188803   6.615   0.602  11.980  0.5992  1.3088  0.9746
59945SOL    HW288804   6.757   0.612  11.929  0.0899  0.7711 -0.6236
59946SOL     OW88805   0.829   1.580   2.645 -0.4557  0.5638 -0.0869
59946SOL    HW188806   0.756   1.519   2.656 -1.1548  1.4661  0.4815
59946SOL    HW288807   0.793   1.665   2.671  0.2530  1.3768 -1.6426
59947SOL     OW88808   4.222   5.255   6.040 -0.1407 -0.0532 -0.4480
59947SOL    HW188809   4.191   5.205   5.965  0.3271 -2.6285  0.9429
59947SOL    HW288810   4.148   5.312   6.063 -0.1898  1.0269 -2.9267
59948SOL     OW88811   2.101  12.083  10.980 -0.0639 -0.1632  0.4893
59948SOL    HW188812   2.130  12.130  11.058  0.8466 -0.5938  0.4320
59948SOL    HW288813   2.047  12.012  11.013  0.8222 -0.7146  0.7947
59949SOL     OW88814   6.939   9.334   3.677  0.3087 -0.4507 -1.2913
59949SOL    HW188815   6.860   9.330   3.624 -0.0359 -0.8892 -0.7587
59949SOL    HW288816   6.970   9.243   3.680  2.4082  0.0603 -3.8062
59950SOL     OW88817   2.920   7.480   9.799  0.2296  0.4769  0.7825
59950SOL    HW188818   2.861   7.492   9.725  0.8609  0.2017  0.2251
59950SOL    HW288819   2.877   7.525   9.872 -1.2525 -0.7505  0.7030
59951SOL     OW88820  11.315   0.430   2.579  0.0821  0.7030  0.0063
59951SOL    HW188821  11.374   0.505   2.566  0.1630  0.4835 -0.9640
59951SOL    HW288822  11.351   0.386   2.656  0.2732  1.4300  0.3513
59952SOL     OW88823   5.975   3.913  10.644 -0.2254 -0.0421  0.2002
59952SOL    HW188824   5.964   3.858  10.567  0.8550 -1.0586  0.7213
59952SOL    HW288825   5.991   4.001  10.610 -2.4291  0.0798 -0.6431
59953SOL     OW88826   3.830   1.191   5.418 -0.4208  0.7717 -0.7232
59953SOL    HW188827   3.816   1.188   5.323 -1.5284  1.4246 -0.5913
59953SOL    HW288828   3.772   1.123   5.453 -0.8019  1.2429 -0.4320
59954SOL     OW88829  11.269   4.771   2.543 -0.3825 -0.3802 -0.4728
59954SOL    HW188830  11.226   4.804   2.622  1.6257  1.0318  0.0941
59954SOL    HW288831  11.323   4.698   2.574 -1.3918 -1.3824 -0.9863
59955SOL     OW88832   1.598   2.399   9.791  0.4446  0.1469 -0.3095
59955SOL    HW188833   1.583   2.310   9.823  2.2985 -0.2916 -0.5809
59955SOL    HW288834   1.518   2.420   9.742 -0.5132 -0.8968  0.7267
59956SOL     OW88835   5.282  11.711   5.993 -0.1276  0.3879  0.7688
59956SOL    HW188836   5.291  11.805   5.974  0.1245 -0.0044 -1.1857
59956SOL    HW288837   5.201  11.685   5.950  0.8694 -0.7047 -0.5063
59957SOL     OW88838   1.026  12.085   5.041  0.2216 -0.0056  0.1942
59957SOL    HW188839   0.944  12.128   5.065  0.0045  0.2235 -0.9147
59957SOL    HW288840   1.092  12.154   5.043  0.0508  0.1886 -0.6489
59958SOL     OW88841   4.592   3.491   5.201 -0.0155  0.3849  0.3685
59958SOL    HW188842   4.648   3.462   5.130  1.4148  1.8496  0.8329
59958SOL    HW288843   4.572   3.412   5.251  0.4833 -0.3581 -0.6072
59959SOL     OW88844   0.176   4.103  10.030 -0.2086 -0.3516 -0.1983
59959SOL    HW188845   0.175   4.183   9.978 -3.0022 -1.0819 -1.4710
59959SOL    HW288846   0.138   4.129  10.114 -1.5871 -0.3730 -0.7830
59960SOL     OW88847   8.182   2.649   8.841 -0.2846 -0.3583  0.1138
59960SOL    HW188848   8.256   2.691   8.798 -1.3931  0.4147 -1.1244
59960SOL    HW288849   8.112   2.650   8.776 -1.4717 -0.8338  1.3174
59961SOL     OW88850   8.522   8.562  10.061  0.3202  0.7548 -0.5885
59961SOL    HW188851   8.546   8.470  10.053 -1.1375  0.1189  1.4310
59961SOL    HW288852   8.428   8.564  10.039  0.0302  1.5037  0.6161
59962SOL     OW88853   4.076   3.446  12.059 -0.1655 -0.0634 -0.2688
59962SOL    HW188854   4.106   3.357  12.077 -0.7113  0.1717  2.1715
59962SOL    HW288855   3.989   3.451  12.099 -0.8033  1.1219 -1.7166
59963SOL     OW88856   9.021   0.883   6.971 -0.5087 -0.0472  0.2470
59963SOL    HW188857   9.004   0.843   7.057  1.4753 -1.0530  0.2182
59963SOL    HW288858   9.079   0.956   6.991  0.0617 -0.3641 -0.2374
59964SOL     OW88859   5.789   1.931   4.019  0.5212 -0.4510 -0.7502
59964SOL    HW188860   5.810   1.844   3.985  0.3576 -0.0990 -1.7753
59964SOL    HW288861   5.693   1.935   4.014  0.5494 -0.0929 -1.0109
59965SOL     OW88862  12.401   1.793   8.862 -0.1519  0.6774 -0.1614
59965SOL    HW188863  12.312   1.829   8.867  0.1120  1.2611  0.8044
59965SOL    HW288864  12.433   1.819   8.776 -0.6520  1.1145 -0.2207
59966SOL     OW88865  12.235   3.939   9.249 -0.0171 -0.1704  0.2769
59966SOL    HW188866  12.308   3.991   9.282  0.4018 -1.4592  1.4601
59966SOL    HW288867  12.261   3.848   9.261 -1.1300 -0.6890 -0.8550
59967SOL     OW88868   2.240   5.841   2.064 -0.1738 -0.1282 -0.1153
59967SOL    HW188869   2.315   5.892   2.033  1.1980 -2.0115 -0.0422
59967SOL    HW288870   2.258   5.752   2.037 -1.7137 -0.8937  1.1788
59968SOL     OW88871  12.532   7.536   0.301 -0.2193  0.3863 -0.1292
59968SOL    HW188872  12.621   7.540   0.335 -1.0121 -0.4010  2.2286
59968SOL    HW288873  12.530   7.457   0.247  0.6587  0.7633 -0.7311
59969SOL     OW88874   3.301   1.113   4.231  0.2417  0.4046 -0.3123
59969SOL    HW188875   3.358   1.037   4.223 -0.7014 -0.3537  0.0447
59969SOL    HW288876   3.316   1.146   4.320  0.9354  0.8899 -0.5956
59970SOL     OW88877   8.281   6.673   4.184 -0.1576  0.2983  0.1294
59970SOL    HW188878   8.208   6.672   4.122  0.7648  0.7466 -1.0163
59970SOL    HW288879   8.354   6.710   4.134  0.7511  0.2371  1.3592
59971SOL     OW88880   4.776   9.822   1.109 -0.3424 -0.4991  0.6160
59971SOL    HW188881   4.714   9.817   1.036 -1.1014  0.3420  1.1755
59971SOL    HW288882   4.739   9.764   1.176 -0.4325 -0.1491  0.8748
59972SOL     OW88883   5.082   5.974   3.885  0.5983  0.4673 -0.1458
59972SOL    HW188884   4.994   5.950   3.856  1.4329 -1.1375 -1.4659
59972SOL    HW288885   5.084   5.948   3.977 -0.6419  1.5853  0.2434
59973SOL     OW88886   5.249   9.454   3.549  0.1025  0.0485 -0.1918
59973SOL    HW188887   5.185   9.448   3.620  0.8016  0.3666  0.4924
59973SOL    HW288888   5.295   9.370   3.551  0.1840  0.0915 -0.1936
59974SOL     OW88889  12.487   0.486   9.711 -0.3132 -0.6100  0.3497
59974SOL    HW188890  12.536   0.455   9.635  0.4611 -0.0661  0.6274
59974SOL    HW288891  12.529   0.443   9.786 -0.6025 -0.5573  0.5443
59975SOL     OW88892   8.897   1.907   5.929  0.5763  0.1449 -0.0618
59975SOL    HW188893   8.946   1.990   5.921  0.8909  0.0238  0.5769
59975SOL    HW288894   8.944   1.858   5.996  0.0357 -0.3084 -0.0125
59976SOL     OW88895   0.996   4.138   8.701  0.2831  0.0677 -0.3412
59976SOL    HW188896   0.939   4.185   8.762 -0.6759  0.1896 -1.3050
59976SOL    HW288897   1.073   4.194   8.693  0.9703 -0.4960  1.6179
59977SOL     OW88898  12.097   9.374  12.231  0.1537  0.2515 -0.1037
59977SOL    HW188899  12.004   9.353  12.219  0.2228  0.5875 -1.3050
59977SOL    HW288900  12.125   9.409  12.147  1.1070  1.1871  0.5793
59978SOL     OW88901  10.798   7.020   8.204 -0.6805 -1.0338 -0.2119
59978SOL    HW188902  10.732   6.991   8.267 -0.8380 -1.1393 -0.4244
59978SOL    HW288903  10.759   7.097   8.163 -0.1989 -0.4068  0.4659
59979SOL     OW88904   2.409   9.417   9.624 -0.6291  0.1653 -0.1177
59979SOL    HW188905   2.436   9.506   9.601  0.0098 -0.0135 -0.0832
59979SOL    HW288906   2.467   9.393   9.697 -0.7557 -0.2992 -0.1684
59980SOL     OW88907   7.086  12.475  10.155  0.6395 -0.3670  0.5056
59980SOL    HW188908   7.173  12.493  10.120 -0.7133  1.2345 -2.4621
59980SOL    HW288909   7.055  12.559  10.187  0.4778 -1.1202  2.4666
59981SOL     OW88910  12.173   7.700   8.651 -0.4651 -0.6663 -0.1098
59981SOL    HW188911  12.116   7.630   8.622 -3.1197  1.8471 -1.4455
59981SOL    HW288912  12.215   7.732   8.571 -1.1095  0.7123  0.0731
59982SOL     OW88913  10.937   2.136   6.574  0.1574  0.3173 -0.2725
59982SOL    HW188914  10.962   2.213   6.522 -2.5775  1.1434 -0.4936
59982SOL    HW288915  10.867   2.094   6.523 -1.5770  0.3130  1.9667
59983SOL     OW88916  11.185   6.530   9.191  0.0974 -0.5684  0.3439
59983SOL    HW188917  11.145   6.587   9.126  0.7721 -0.2278  0.2185
59983SOL    HW288918  11.160   6.568   9.275  1.2901  0.4639  0.2577
59984SOL     OW88919  10.307   8.856   1.197  0.0098 -0.0636  0.5040
59984SOL    HW188920  10.382   8.811   1.236 -0.2693 -0.1650  0.9358
59984SOL    HW288921  10.236   8.842   1.260 -0.0652  1.0277  0.6813
59985SOL     OW88922  10.424   4.701   7.979  0.1748 -0.3489  0.1602
59985SOL    HW188923  10.448   4.704   8.072  0.4938 -1.4563  0.1212
59985SOL    HW288924  10.414   4.793   7.955  2.2658  0.0976  0.7485
59986SOL     OW88925   8.653   1.480   8.285 -0.4684 -0.1623 -0.4975
59986SOL    HW188926   8.569   1.478   8.239 -1.5889 -0.2162  1.4620
59986SOL    HW288927   8.651   1.404   8.343  0.0391  0.9559  1.0611
59987SOL     OW88928   5.093   9.698   3.541  0.7750 -0.3228  0.3699
59987SOL    HW188929   5.054   9.700   3.628  1.5089 -1.3321  0.7438
59987SOL    HW288930   5.146   9.618   3.541  0.0513 -0.8451 -1.3153
59988SOL     OW88931   2.654   5.960   4.855 -0.1122  0.0161 -0.5597
59988SOL    HW188932   2.650   5.880   4.907  0.2865  0.0068 -0.5370
59988SOL    HW288933   2.747   5.970   4.835 -0.3142 -0.2768 -1.7301
59989SOL     OW88934   3.703   9.274   1.117  0.0196 -0.3208  0.1471
59989SOL    HW188935   3.724   9.362   1.088  0.3632 -0.6413 -0.6335
59989SOL    HW288936   3.611   9.278   1.143 -0.1384  0.1322 -0.4577
59990SOL     OW88937  11.582   3.726   0.085  0.0487  0.3448  0.4485
59990SOL    HW188938  11.660   3.723   0.140  0.7120  0.0012 -0.4809
59990SOL    HW288939  11.510   3.738   0.146  0.7809  0.1581  1.3723
59991SOL     OW88940   0.371   2.703   1.714  0.1006  0.1010 -0.0596
59991SOL    HW188941   0.282   2.730   1.736 -0.6033 -1.1415 -1.2775
59991SOL    HW288942   0.365   2.608   1.701  1.6943 -0.0684  0.2505
59992SOL     OW88943   0.995   4.385   7.964 -0.1991  0.3662 -0.6843
59992SOL    HW188944   1.024   4.346   8.046 -0.7994 -0.6377 -0.9392
59992SOL    HW288945   1.074   4.391   7.911 -0.4258 -2.7919 -1.5557
59993SOL     OW88946   4.902   2.258   6.706 -0.0685  0.0067 -0.0912
59993SOL    HW188947   4.877   2.207   6.628 -0.3349  0.3722 -0.2454
59993SOL    HW288948   4.949   2.195   6.761  1.2198  0.0369 -1.0914
59994SOL     OW88949   5.115   1.295  11.313  0.3944 -0.4029 -0.2294
59994SOL    HW188950   5.173   1.359  11.272  0.0572  0.5041  0.6531
59994SOL    HW288951   5.049   1.276  11.246  1.7737 -1.5850 -1.3023
59995SOL     OW88952   9.904   8.919  10.355  0.0422 -0.2419 -0.1881
59995SOL    HW188953   9.921   8.891  10.444  0.8369 -0.2936 -0.3480
59995SOL    HW288954   9.987   8.906  10.309 -0.4729 -0.6229 -1.0433
59996SOL     OW88955   3.162   9.155   2.534 -0.2377 -0.6693  0.0097
59996SOL    HW188956   3.126   9.232   2.577  0.4855 -0.7056  0.6994
59996SOL    HW288957   3.255   9.154   2.559  0.4265 -0.2575 -2.1777
59997SOL     OW88958   0.138  10.465   7.748  0.6391 -0.6157  0.3673
59997SOL    HW188959   0.076  10.397   7.718  1.4193 -0.4054 -1.9339
59997SOL    HW288960   0.129  10.535   7.683  2.0060  0.1792  0.9992
59998SOL     OW88961   3.385  12.193   3.445 -0.1309  0.2317 -0.9032
59998SOL    HW188962   3.394  12.249   3.522 -1.4517 -0.7317  0.0124
59998SOL    HW288963   3.335  12.245   3.382 -1.9738 -0.1011  0.2087
59999SOL     OW88964   2.681  12.565   2.992  0.0571  0.4592 -0.3505
59999SOL    HW188965   2.715  12.510   3.063  0.2390 -1.8294 -2.1297
59999SOL    HW288966   2.750  12.563   2.925 -1.0963  0.6572 -1.5749
60000SOL     OW88967  11.855   1.154   8.920 -0.1048  0.2297  0.1044
60000SOL    HW188968  11.764   1.125   8.928  0.1331 -1.2051 -1.7567
60000SOL    HW288969  11.856   1.241   8.960 -2.3694  0.3892 -0.0640
60001SOL     OW88970   2.185  11.971  12.461 -0.3682  1.0554  0.7443
60001SOL    HW188971   2.178  11.992  12.554 -1.5159  1.8466  0.4978
60001SOL    HW288972   2.258  12.023  12.429  0.2706  0.4983  1.2657
60002SOL     OW88973  10.259   7.596   7.674 -0.2600  0.0585 -0.4115
60002SOL    HW188974  10.203   7.523   7.651 -0.7905  0.6326 -0.9647
60002SOL    HW288975  10.320   7.604   7.601  0.5722 -0.5583  0.1813
60003SOL     OW88976   0.409   8.452  11.641  0.0556 -0.5201  0.1776
60003SOL    HW188977   0.324   8.409  11.639 -1.5984  2.4623 -1.7534
60003SOL    HW288978   0.455   8.418  11.564 -1.1773  0.8505 -1.2499
60004SOL     OW88979   6.052   0.319  10.488  0.1819  0.3273 -0.9247
60004SOL    HW188980   5.993   0.330  10.563  2.4498  0.6317  0.9129
60004SOL    HW288981   6.059   0.225  10.476  1.3795  0.1713  0.6477
60005SOL     OW88982   6.968   7.880   2.883  0.4833 -0.1242  0.2197
60005SOL    HW188983   6.902   7.882   2.953  0.1532 -1.2519 -0.0401
60005SOL    HW288984   6.968   7.789   2.854  0.9625  0.2368 -0.9293
60006SOL     OW88985   1.843   4.422   4.159  0.6334 -0.1217 -0.2411
60006SOL    HW188986   1.857   4.405   4.252  1.0846 -0.5885 -0.3836
60006SOL    HW288987   1.892   4.352   4.115 -0.3328 -0.4686 -0.8161
60007SOL     OW88988   0.093   1.791   2.140 -0.0437  0.3223 -0.6109
60007SOL    HW188989   0.094   1.697   2.155 -1.3123  0.0130 -2.2139
60007SOL    HW288990   0.048   1.827   2.217  1.2832 -0.2350  0.4741
60008SOL     OW88991  10.755   2.111   9.559  0.1835 -0.1323  0.1278
60008SOL    HW188992  10.789   2.184   9.611 -1.6285  0.3321  0.7307
60008SOL    HW288993  10.805   2.035   9.590  2.2933  0.8516 -0.7164
60009SOL     OW88994   3.316   7.162   0.151  0.1108 -0.4350  0.0855
60009SOL    HW188995   3.337   7.253   0.169  0.1420  0.0911 -2.2422
60009SOL    HW288996   3.241   7.142   0.207 -0.0745  1.1236  0.4153
60010SOL     OW88997   4.089   4.984  11.587  0.0263 -0.2422  0.7331
60010SOL    HW188998   4.137   4.902  11.576  0.2866 -0.0430  0.3754
60010SOL    HW288999   4.149   5.041  11.636  1.5003  1.1354 -2.4223
60011SOL     OW89000   6.923   1.619   3.920  0.1313  0.0057 -0.7289
60011SOL    HW189001   6.925   1.535   3.875 -0.8585 -0.3781 -0.0769
60011SOL    HW289002   6.860   1.608   3.991  1.0392  0.8490  0.2570
60012SOL     OW89003  12.513  12.019   9.228 -0.1898 -0.0320 -0.2592
60012SOL    HW189004  12.555  12.050   9.308  0.6079 -1.2884 -0.1703
60012SOL    HW289005  12.434  11.974   9.259  0.0669 -0.4319 -0.1745
60013SOL     OW89006   7.876  12.266   7.961  0.2737 -0.3693 -0.8067
60013SOL    HW189007   7.861  12.189   8.016  0.4472  0.2872  0.1898
60013SOL    HW289008   7.789  12.289   7.929  0.1777 -0.7943 -0.8570
60014SOL     OW89009  11.626   3.968   2.478  0.5959 -0.4856 -0.4549
60014SOL    HW189010  11.581   4.013   2.406  0.7114 -0.0100 -0.2359
60014SOL    HW289011  11.578   3.886   2.490 -1.1040  0.6337  0.7204
60015SOL     OW89012  12.092  12.366  10.179 -0.2839  0.3176  0.0932
60015SOL    HW189013  12.034  12.385  10.106  0.4091  0.7394 -0.3523
60015SOL    HW289014  12.175  12.344  10.139 -0.1948 -0.5363  0.7192
60016SOL     OW89015   7.029   1.682  11.776  0.1626  0.0620 -0.0682
60016SOL    HW189016   7.087   1.732  11.719  1.0752 -0.2184  0.6082
60016SOL    HW289017   7.077   1.673  11.858 -1.6972  1.7181  1.2965
60017SOL     OW89018   8.203  11.227   7.656 -0.1494 -0.1270  0.0878
60017SOL    HW189019   8.267  11.155   7.660 -0.3638 -0.4090 -1.2497
60017SOL    HW289020   8.130  11.191   7.607 -0.3264  0.9556 -0.4710
60018SOL     OW89021   9.641   4.721  10.577  0.1749 -0.1207  0.1841
60018SOL    HW189022   9.682   4.756  10.498 -0.5152 -0.2288 -0.2229
60018SOL    HW289023   9.684   4.636  10.590  0.6172  0.0982  0.1938
60019SOL     OW89024  10.023   7.610   8.344  0.5940 -0.3472  0.1752
60019SOL    HW189025   9.975   7.679   8.299 -0.5097 -0.9895  0.3537
60019SOL    HW289026  10.057   7.554   8.274 -1.0265 -1.2828  0.1053
60020SOL     OW89027   3.784   9.038   5.889  0.1443  0.1468  0.0023
60020SOL    HW189028   3.876   9.061   5.880 -0.2993  2.3153  0.5265
60020SOL    HW289029   3.767   9.044   5.983 -0.9354  1.6217 -0.2572
60021SOL     OW89030  11.729   7.849   0.673 -0.0584  0.3059  0.8468
60021SOL    HW189031  11.660   7.799   0.717  0.6054 -2.1360 -0.6917
60021SOL    HW289032  11.805   7.839   0.730 -0.3165  0.8437  1.2888
60022SOL     OW89033   4.806  10.699   1.791 -0.2201 -0.4279 -0.8532
60022SOL    HW189034   4.804  10.750   1.872  0.8736 -2.0813  0.2551
60022SOL    HW289035   4.899  10.690   1.770 -0.4812  0.4035 -2.6178
60023SOL     OW89036   1.020   2.765   7.143  0.1080  0.3150 -0.2968
60023SOL    HW189037   1.046   2.836   7.201 -0.1893  1.5916 -1.6846
60023SOL    HW289038   1.102   2.722   7.118  0.4833  1.3841 -0.9510
60024SOL     OW89039  12.108   7.533   4.465  0.0744 -0.0441 -0.3126
60024SOL    HW189040  12.026   7.582   4.460  0.5802  0.8017 -0.4657
60024SOL    HW289041  12.083   7.443   4.445 -0.9165  0.0838  0.2669
60025SOL     OW89042   6.548   8.845   1.376 -0.9388 -0.0422  0.2466
60025SOL    HW189043   6.594   8.847   1.460 -1.1139 -1.6130  0.4250
60025SOL    HW289044   6.467   8.798   1.395 -1.5487  0.6599 -0.5519
60026SOL     OW89045   0.073   5.631   0.300  0.1115  0.4134 -0.6352
60026SOL    HW189046   0.110   5.713   0.333 -0.5352 -0.0966  1.5225
60026SOL    HW289047   0.050   5.650   0.209  1.5122  2.0889 -0.6881
60027SOL     OW89048  11.308   8.315  11.551  0.6005  0.0208 -0.1697
60027SOL    HW189049  11.346   8.389  11.503 -0.4300 -0.2694 -1.4929
60027SOL    HW289050  11.363   8.240  11.528 -0.6148 -0.3697 -1.9684
60028SOL     OW89051   7.210   9.730  12.436  0.5781  0.4054  0.4363
60028SOL    HW189052   7.242   9.816  12.411  0.6051  0.0827 -0.7085
60028SOL    HW289053   7.115   9.741  12.444  0.1480 -0.1166 -2.8343
60029SOL     OW89054  10.234   9.937   3.547 -0.3281  0.4395 -0.4894
60029SOL    HW189055  10.317   9.984   3.536 -0.1284  0.3585  0.5241
60029SOL    HW289056  10.203   9.964   3.634 -0.1394 -1.3999  0.1996
60030SOL     OW89057   5.250  11.817   4.450  0.6026  0.0092  0.0302
60030SOL    HW189058   5.316  11.856   4.507  0.2505  0.5819  0.0567
60030SOL    HW289059   5.249  11.724   4.473  1.2677  0.0257  0.1540
60031SOL     OW89060   7.432   5.874   3.919 -0.0097 -0.8983  0.0030
60031SOL    HW189061   7.396   5.845   3.836 -0.2589  0.3019 -0.3325
60031SOL    HW289062   7.511   5.922   3.895 -0.3434 -0.1314  0.4098
60032SOL     OW89063   6.352  12.328   1.426  0.1108  0.3691 -0.8664
60032SOL    HW189064   6.409  12.377   1.366  2.2638 -0.1213  0.6511
60032SOL    HW289065   6.354  12.238   1.394  1.0768  0.1530 -0.2677
60033SOL     OW89066   3.439   6.946  11.356  0.0921  0.0940 -0.5702
60033SOL    HW189067   3.508   6.971  11.417  0.2990 -1.2770 -0.2229
60033SOL    HW289068   3.458   6.996  11.277  2.1468 -1.0577 -0.8799
60034SOL     OW89069   9.751  11.682   8.422  0.2562  0.1689  0.1884
60034SOL    HW189070   9.838  11.720   8.430  0.0826  0.2378  1.9465
60034SOL    HW289071   9.692  11.757   8.420  0.1195  0.0702  0.6293
60035SOL     OW89072  11.705   1.407   5.744 -0.2787  0.2355 -0.1950
60035SOL    HW189073  11.738   1.374   5.828 -0.2359  1.6722  0.3845
60035SOL    HW289074  11.784   1.434   5.696 -0.3877  0.8311 -0.0548
60036SOL     OW89075   0.373   4.087   0.396  0.0452  0.3160  0.2217
60036SOL    HW189076   0.300   4.110   0.338 -0.9847  0.6551  1.5878
60036SOL    HW289077   0.412   4.172   0.419 -1.0594  0.4075  1.8775
60037SOL     OW89078   6.728   0.123   1.083 -0.0754  0.3146  0.2774
60037SOL    HW189079   6.705   0.184   1.013  1.1835 -0.0867 -0.5362
60037SOL    HW289080   6.767   0.178   1.151  1.6995  0.4135 -0.7419
60038SOL     OW89081   7.770   0.467   6.059  0.3036  0.9556  0.0928
60038SOL    HW189082   7.845   0.511   6.019  0.1598  2.4499  1.3655
60038SOL    HW289083   7.780   0.485   6.153 -0.8657 -0.0581  0.4296
60039SOL     OW89084   0.825   3.984   7.265  0.2367 -0.0883  0.2595
60039SOL    HW189085   0.825   3.899   7.309 -2.1139 -0.3193 -0.0927
60039SOL    HW289086   0.895   3.977   7.201  1.4638 -0.9803  1.6205
60040SOL     OW89087   9.555   9.240   2.323  0.3528  0.1592 -0.0884
60040SOL    HW189088   9.589   9.289   2.248 -2.3567 -0.3932 -1.8112
60040SOL    HW289089   9.469   9.279   2.340  0.6169 -0.1563  2.4065
60041SOL     OW89090  12.261   9.449  10.414  0.2679 -0.8128 -0.2147
60041SOL    HW189091  12.275   9.482  10.503 -0.6833 -0.5299 -0.1575
60041SOL    HW289092  12.250   9.528  10.362 -0.3040 -1.0011 -0.3828
60042SOL     OW89093   9.512   6.609   6.328  0.6155  0.3598 -0.3209
60042SOL    HW189094   9.490   6.643   6.415  1.6686  2.3111 -0.7580
60042SOL    HW289095   9.485   6.517   6.330 -0.7792  0.7675  1.5349
60043SOL     OW89096   9.506   3.036   4.377  0.4220  0.3121 -0.0783
60043SOL    HW189097   9.467   3.051   4.291 -1.1035 -0.1753  0.4968
60043SOL    HW289098   9.474   2.950   4.403  0.3520  0.7108  1.2313
60044SOL     OW89099   6.151  12.126   8.655 -0.3089  0.7282 -0.2839
60044SOL    HW189100   6.167  12.045   8.607  2.1151  0.1897  1.2665
60044SOL    HW289101   6.123  12.188   8.588  0.3569 -0.6925 -1.9464
60045SOL     OW89102  10.484   5.844   2.209  0.5429 -0.5895 -0.1708
60045SOL    HW189103  10.437   5.761   2.222 -0.0100 -0.3366 -0.5409
60045SOL    HW289104  10.486   5.856   2.115 -4.4698  2.6070 -0.2571
60046SOL     OW89105   3.108   6.881  12.172 -0.6823 -0.1981  0.4101
60046SOL    HW189106   3.095   6.971  12.201 -0.2519  0.0490 -0.1321
60046SOL    HW289107   3.021   6.841  12.178 -0.8009  0.1451  1.0037
60047SOL     OW89108   8.760   4.513   1.847 -0.4602 -0.7350 -0.4506
60047SOL    HW189109   8.708   4.590   1.826  0.3783  0.6372  2.0629
60047SOL    HW289110   8.701   4.458   1.899 -0.2820 -0.4981  0.0138
60048SOL     OW89111   3.976  11.874   2.302  0.2872  0.5368  0.0181
60048SOL    HW189112   4.001  11.883   2.210  0.3224 -0.6965 -0.1135
60048SOL    HW289113   3.880  11.874   2.300  0.2115 -2.3126 -0.4013
60049SOL     OW89114   3.228  11.351   5.317 -0.2662  0.3036 -0.1341
60049SOL    HW189115   3.151  11.324   5.268 -1.1978  1.6272  0.5228
60049SOL    HW289116   3.217  11.310   5.403  0.4885 -0.6259 -0.4675
60050SOL     OW89117   1.083   0.385   6.852 -0.6022  0.5100  0.1335
60050SOL    HW189118   1.168   0.372   6.809 -0.5117  0.6645  0.2608
60050SOL    HW289119   1.040   0.300   6.846 -0.0783  0.1828  0.8358
60051SOL     OW89120   5.881   2.726  11.712  0.1777 -0.4318 -0.1704
60051SOL    HW189121   5.805   2.692  11.664 -0.1339 -1.2316  0.8556
60051SOL    HW289122   5.896   2.662  11.781  1.9659 -0.4317 -0.5096
60052SOL     OW89123  10.692  11.596   1.522 -0.4272  0.1972  0.0160
60052SOL    HW189124  10.690  11.599   1.618 -1.6964  1.9432 -0.0088
60052SOL    HW289125  10.785  11.599   1.500 -0.0033 -2.0262  1.1700
60053SOL     OW89126   7.867   0.530   3.631 -0.0928  0.0977 -0.2749
60053SOL    HW189127   7.911   0.515   3.548  0.6245 -0.0451  0.1238
60053SOL    HW289128   7.776   0.504   3.615  0.5583 -2.4628 -0.3025
60054SOL     OW89129  10.539   6.524   5.574  0.3245 -0.3244  0.0730
60054SOL    HW189130  10.522   6.617   5.587  0.4025 -0.0990 -1.3633
60054SOL    HW289131  10.575   6.495   5.658  1.3631  1.1835  0.1857
60055SOL     OW89132  10.887   2.242  10.699 -0.6339 -0.0715 -0.2435
60055SOL    HW189133  10.832   2.189  10.757 -0.4746  0.9586  0.9038
60055SOL    HW289134  10.829   2.266  10.627 -0.9678 -1.0228 -0.2987
60056SOL     OW89135   2.583   0.125   0.297  0.4829  0.5396  0.4238
60056SOL    HW189136   2.678   0.118   0.307  0.6198  0.1750 -0.9201
60056SOL    HW289137   2.553   0.164   0.379  1.5816 -0.9410  1.5848
60057SOL     OW89138   7.939  12.285  10.811 -0.5834  0.1092 -0.4090
60057SOL    HW189139   8.024  12.277  10.853  0.1502  0.9624 -1.6408
60057SOL    HW289140   7.954  12.257  10.720 -1.4575  0.8370 -0.8037
60058SOL     OW89141   1.156   6.132   8.657 -0.0651  0.1622  0.1127
60058SOL    HW189142   1.085   6.175   8.609 -1.3440 -0.7083  1.1401
60058SOL    HW289143   1.166   6.185   8.737  0.2405  0.1133  0.1065
60059SOL     OW89144   2.837   8.308   7.094 -0.8708  0.4147  0.0102
60059SOL    HW189145   2.745   8.326   7.079 -0.5476  0.7361 -1.8657
60059SOL    HW289146   2.846   8.213   7.084 -1.1970  0.1683  1.6678
60060SOL     OW89147   5.994   8.174   9.350 -0.6201 -0.2739 -0.6775
60060SOL    HW189148   6.006   8.161   9.444  2.1112 -0.8791 -1.0241
60060SOL    HW289149   5.967   8.088   9.317  2.6803 -1.3598 -0.9277
60061SOL     OW89150   9.322   2.681   7.822 -0.2655 -0.0838 -0.3252
60061SOL    HW189151   9.234   2.644   7.812 -0.3250 -0.0188 -0.0522
60061SOL    HW289152   9.332   2.740   7.747 -1.0001  0.9803  0.3676
60062SOL     OW89153  12.253  11.372  12.136 -0.0138 -0.1181  0.6388
60062SOL    HW189154  12.324  11.435  12.152 -0.0148 -0.1451  0.7525
60062SOL    HW289155  12.177  11.410  12.180 -0.7910  1.2694 -1.7326
60063SOL     OW89156   2.960   4.186   5.002 -0.3733  0.2215 -0.6068
60063SOL    HW189157   2.904   4.259   4.976  0.5204  1.1690  0.0467
60063SOL    HW289158   2.918   4.108   4.964 -2.6975  0.7394  0.7503
60064SOL     OW89159   5.307   0.529   3.983  0.0448  0.2213 -0.1092
60064SOL    HW189160   5.399   0.545   4.000  1.3135 -3.7473 -1.9110
60064SOL    HW289161   5.293   0.556   3.892 -0.2633 -0.1619 -0.1822
60065SOL     OW89162   5.934   5.854  11.602  0.4465  0.0780 -0.1494
60065SOL    HW189163   5.896   5.942  11.598 -0.2355 -0.1875  0.2893
60065SOL    HW289164   6.021   5.866  11.638 -0.0076  0.4735  0.8475
60066SOL     OW89165   5.553   3.211   3.516 -0.3209  0.5591  0.0788
60066SOL    HW189166   5.476   3.158   3.493  0.0718 -1.0753  2.2598
60066SOL    HW289167   5.599   3.160   3.582  1.5478  2.4656  0.3637
60067SOL     OW89168   8.259   7.664   2.280 -0.2336  0.1400 -0.2483
60067SOL    HW189169   8.177   7.640   2.323  0.2438  1.3171  1.4058
60067SOL    HW289170   8.258   7.759   2.277 -0.1927  0.1317 -2.8558
60068SOL     OW89171   9.792   2.187  11.170 -0.1404 -0.2974 -0.1531
60068SOL    HW189172   9.770   2.117  11.230  3.6516 -1.0710  0.5891
60068SOL    HW289173   9.800   2.265  11.225 -1.7320  0.1963 -0.5641
60069SOL     OW89174   0.889  10.572   7.976 -0.1724 -0.1338 -0.2429
60069SOL    HW189175   0.851  10.530   8.053  0.4651 -0.8973 -0.3264
60069SOL    HW289176   0.818  10.573   7.912 -0.2914 -0.8482 -0.1379
60070SOL     OW89177   3.266   0.066   8.033 -0.4006  0.2536 -0.2049
60070SOL    HW189178   3.176   0.035   8.047 -0.1799 -0.5811 -0.5949
60070SOL    HW289179   3.321  -0.001   8.072  0.0461  1.6152  1.6239
60071SOL     OW89180  10.799   7.912   3.780  0.1310  0.0202  0.7707
60071SOL    HW189181  10.873   7.913   3.841  0.5414 -0.0540  0.2802
60071SOL    HW289182  10.752   7.994   3.799  0.7999  0.4680  0.5286
60072SOL     OW89183  10.565   7.849   8.836  0.4603 -0.6899 -0.0717
60072SOL    HW189184  10.570   7.875   8.928 -0.0862  0.9697 -0.4751
60072SOL    HW289185  10.594   7.926   8.787 -0.6567 -1.0147 -1.3241
60073SOL     OW89186   8.286   9.299   5.566  0.0838  0.1036  0.1475
60073SOL    HW189187   8.364   9.244   5.556 -0.4191 -0.2816 -2.0807
60073SOL    HW289188   8.301   9.346   5.648  1.3840 -1.9712  1.1933
60074SOL     OW89189  12.107   1.508   6.191 -0.1936 -1.0900  0.3579
60074SOL    HW189190  12.122   1.466   6.276 -0.4817 -0.4379  0.7361
60074SOL    HW289191  12.157   1.589   6.195 -1.3520 -0.3547  0.4699
60075SOL     OW89192   8.773   3.777   6.268 -0.0737  0.3696 -0.1960
60075SOL    HW189193   8.827   3.856   6.259 -0.5484  0.7510  0.2502
60075SOL    HW289194   8.826   3.717   6.321  0.1914  0.4803 -0.3344
60076SOL     OW89195   4.580  12.285   8.357  0.4554 -0.5350 -0.2994
60076SOL    HW189196   4.557  12.349   8.290 -0.0218 -1.7133 -1.2831
60076SOL    HW289197   4.519  12.303   8.429  0.9189  0.6843 -0.1877
60077SOL     OW89198   5.627   2.720   8.013  0.4494  0.2167  0.2669
60077SOL    HW189199   5.626   2.815   8.013 -2.8646  0.3554  2.3639
60077SOL    HW289200   5.666   2.696   8.097 -1.3145 -0.0623  1.0698
60078SOL     OW89201   0.863  11.153   7.449  0.7940  0.1937  0.1560
60078SOL    HW189202   0.776  11.128   7.482  1.5999 -0.4223  1.9854
60078SOL    HW289203   0.891  11.222   7.509  1.8352 -0.0748 -0.0184
60079SOL     OW89204   0.672   3.243   1.666  0.4101 -0.6829  0.0990
60079SOL    HW189205   0.660   3.336   1.685  0.2189 -1.1232  2.4147
60079SOL    HW289206   0.764   3.226   1.685  0.4134 -0.9903 -0.1878
60080SOL     OW89207   4.844   9.993   5.580  0.1218  0.1722  0.8909
60080SOL    HW189208   4.901  10.058   5.621  0.5356  0.6290 -0.3625
60080SOL    HW289209   4.855  10.007   5.486  1.3231 -2.6098  0.5051
60081SOL     OW89210   3.739   0.185   4.468  0.1212  0.5783 -0.5815
60081SOL    HW189211   3.728   0.110   4.410 -1.1902 -1.4161  2.0359
60081SOL    HW289212   3.815   0.162   4.521  0.2798  1.5720 -0.3670
60082SOL     OW89213  12.305   6.931   8.724 -0.3998  0.0366 -0.1276
60082SOL    HW189214  12.354   6.850   8.710 -1.6642 -1.1402  1.8578
60082SOL    HW289215  12.290   6.965   8.636 -2.6778 -3.6418 -1.3969
60083SOL     OW89216  11.154   6.378  11.128 -0.0722 -0.4176 -0.0215
60083SOL    HW189217  11.129   6.316  11.197  0.4256  0.0943  0.6437
60083SOL    HW289218  11.074   6.427  11.109 -0.8550 -2.1839 -1.5836
60084SOL     OW89219   7.151   7.010  11.273  0.1567 -0.0068  0.1257
60084SOL    HW189220   7.176   7.045  11.187 -0.0011 -2.1461 -0.8660
60084SOL    HW289221   7.134   6.917  11.257  0.2235 -0.4998  2.5182
60085SOL     OW89222   0.294   2.413   9.478  0.4627  0.5401 -0.0442
60085SOL    HW189223   0.214   2.395   9.428 -0.3285  1.1435  0.9747
60085SOL    HW289224   0.273   2.387   9.567  1.4263  0.6781  0.2353
60086SOL     OW89225   2.859   9.091   0.310 -0.2946  0.2789 -0.0835
60086SOL    HW189226   2.808   9.132   0.380  1.4866 -0.0147  1.4789
60086SOL    HW289227   2.890   9.165   0.257 -2.3129  0.4564 -1.1106
60087SOL     OW89228  11.313  12.468   9.253  0.6752  0.0091  0.0539
60087SOL    HW189229  11.341  12.518   9.330  2.0465 -0.5347 -0.0622
60087SOL    HW289230  11.373  12.493   9.184  0.2444 -0.4590 -0.5011
60088SOL     OW89231   2.396  12.080   3.773 -0.2925  0.2613  0.1542
60088SOL    HW189232   2.321  12.029   3.740  0.0903 -0.3218  0.1810
60088SOL    HW289233   2.471  12.023   3.760  0.0220  0.4798  1.0038
60089SOL     OW89234   9.503   2.744   5.261 -0.1357 -0.7275  0.1969
60089SOL    HW189235   9.499   2.760   5.355  1.5303 -0.6007  0.2849
60089SOL    HW289236   9.429   2.687   5.243 -0.6027 -0.5844  1.5476
60090SOL     OW89237   9.780  12.451   9.861  0.7557  0.0973  0.3155
60090SOL    HW189238   9.798  12.360   9.887  0.0360  0.1352  0.9584
60090SOL    HW289239   9.863  12.496   9.874  1.4858 -0.7167 -1.1826
60091SOL     OW89240   3.084   4.343   3.593  0.2136 -0.2068  0.4926
60091SOL    HW189241   3.040   4.359   3.676 -0.4359 -0.3716  0.1903
60091SOL    HW289242   3.144   4.418   3.583  1.3199 -0.8851  1.7449
60092SOL     OW89243  12.285   6.396   5.845  0.0163 -0.9207  0.0247
60092SOL    HW189244  12.296   6.406   5.940 -2.0836  0.9763  0.1403
60092SOL    HW289245  12.362   6.438   5.807 -0.4318  0.7789  0.8912
60093SOL     OW89246   8.770  10.331   7.059  0.2044  0.3403  0.3901
60093SOL    HW189247   8.708  10.319   7.131  0.9218  1.0563  1.1317
60093SOL    HW289248   8.856  10.314   7.096  0.6039  0.8819 -0.2400
60094SOL     OW89249   7.794   6.357   1.635 -0.0614 -0.1808  0.1064
60094SOL    HW189250   7.746   6.292   1.686  1.0938 -0.1942  1.2397
60094SOL    HW289251   7.726   6.406   1.589 -0.9877 -2.0008 -0.5985
60095SOL     OW89252   9.347   3.626  10.212 -0.0680 -0.7693 -0.0580
60095SOL    HW189253   9.330   3.537  10.183  1.0210 -0.5307 -1.5625
60095SOL    HW289254   9.329   3.625  10.306 -1.8247 -2.0976 -0.3665
60096SOL     OW89255   2.912   6.408  11.149 -0.3991 -0.0688  0.1207
60096SOL    HW189256   2.917   6.413  11.244 -0.4129 -0.5784  0.1523
60096SOL    HW289257   2.898   6.315  11.131  1.3352 -0.2552 -0.4576
60097SOL     OW89258   2.603   0.129   5.564  0.0553 -0.1120 -0.6478
60097SOL    HW189259   2.545   0.198   5.532 -0.9363 -0.1322  1.0086
60097SOL    HW289260   2.618   0.150   5.656  2.5285 -0.2487 -0.9290
60098SOL     OW89261   0.423  11.741   0.848  0.4611  0.1720  0.6068
60098SOL    HW189262   0.507  11.788   0.849  0.2660  0.5163  1.3260
60098SOL    HW289263   0.447  11.649   0.858  0.9394 -0.0888 -2.0542
60099SOL     OW89264   1.155   5.666   5.862  0.2838  0.2372 -0.2937
60099SOL    HW189265   1.127   5.575   5.877 -1.9559  0.5335 -2.1607
60099SOL    HW289266   1.200   5.664   5.778 -0.0797  0.8941 -0.5100
60100SOL     OW89267  12.371   2.330   8.118 -0.8430 -1.1712  0.4723
60100SOL    HW189268  12.288   2.310   8.162 -0.2757 -0.0511  2.1443
60100SOL    HW289269  12.438   2.295   8.176 -0.0633  0.0913  0.3623
60101SOL     OW89270   7.999   5.467  10.002 -0.1763 -0.0973 -0.5360
60101SOL    HW189271   7.934   5.535  10.018 -0.0648 -0.2745  0.8590
60101SOL    HW289272   8.011   5.465   9.907 -0.3676  1.6298 -0.6136
60102SOL     OW89273   6.380  11.263   9.968  0.1464  0.5095  0.4723
60102SOL    HW189274   6.358  11.214   9.889 -0.9281  1.9010 -0.1603
60102SOL    HW289275   6.324  11.225  10.036  0.3052 -0.0057  0.3210
60103SOL     OW89276   9.443   9.070   9.583  0.1256  0.1457  0.2043
60103SOL    HW189277   9.478   8.984   9.562  0.7683  0.6774 -0.9725
60103SOL    HW289278   9.519   9.121   9.612  0.0841  0.8419 -0.8599
60104SOL     OW89279   8.179  12.327   9.146 -0.9140 -0.2085 -0.2637
60104SOL    HW189280   8.173  12.301   9.238 -1.2486 -1.6399 -0.6673
60104SOL    HW289281   8.273  12.329   9.129 -0.8571 -0.2839  0.0254
60105SOL     OW89282   8.092   9.436   8.667  0.3931  0.0670 -0.3242
60105SOL    HW189283   8.076   9.491   8.591 -1.4986 -0.3142 -0.2543
60105SOL    HW289284   8.187   9.421   8.666  0.7671  2.1441 -1.1172
60106SOL     OW89285  10.881   3.113  11.018  0.1412 -0.0873 -0.3783
60106SOL    HW189286  10.937   3.117  10.940 -0.4400 -1.2992 -0.8675
60106SOL    HW289287  10.793   3.097  10.985 -0.0134 -1.2924  0.5469
60107SOL     OW89288   6.170   6.439   0.627 -0.0773  0.1351 -0.2725
60107SOL    HW189289   6.249   6.401   0.587  0.3621  0.6452  0.0960
60107SOL    HW289290   6.149   6.514   0.572 -0.7399 -0.4277 -0.7955
60108SOL     OW89291   1.185   2.751   8.202  0.3676 -0.2514  0.0246
60108SOL    HW189292   1.161   2.715   8.116 -5.2990  2.3958  0.0122
60108SOL    HW289293   1.183   2.846   8.189 -1.5386  0.2587  3.1122
60109SOL     OW89294  10.205   6.708   3.766  0.0267 -0.5434  0.1363
60109SOL    HW189295  10.214   6.739   3.856 -0.2037  0.5337 -0.1918
60109SOL    HW289296  10.182   6.786   3.716  2.4005 -0.6227 -1.2537
60110SOL     OW89297   8.026   0.071   8.890 -0.0444  0.0142  0.8196
60110SOL    HW189298   7.948   0.124   8.874 -0.3417 -0.4622  0.6646
60110SOL    HW289299   8.099   0.130   8.874 -0.3744  0.6164  1.5104
60111SOL     OW89300   9.292   8.487   9.799  0.6935  0.0742  0.5604
60111SOL    HW189301   9.338   8.497   9.715  1.0165 -0.1396  0.7072
60111SOL    HW289302   9.200   8.494   9.776  0.6758 -1.6813 -0.1011
60112SOL     OW89303   4.626   9.132   6.364  0.1815  0.4411  0.3829
60112SOL    HW189304   4.647   9.203   6.425  1.1228 -1.0684  1.9021
60112SOL    HW289305   4.536   9.108   6.386  0.3122  0.2992  0.7638
60113SOL     OW89306   7.508   9.004   3.565 -0.0043  0.1169  0.2186
60113SOL    HW189307   7.595   8.973   3.542  0.1725  0.3225  0.5955
60113SOL    HW289308   7.465   8.929   3.606  0.4885  0.4068  1.3012
60114SOL     OW89309   0.556   5.358   5.525  0.9005  0.3973  0.3538
60114SOL    HW189310   0.491   5.358   5.455 -0.4486 -0.2129  1.5671
60114SOL    HW289311   0.626   5.301   5.493  0.0803 -0.2690 -0.2897
60115SOL     OW89312   3.521   5.228  11.013 -0.2616 -0.4908  0.3750
60115SOL    HW189313   3.525   5.254  10.921  0.5432  2.1442  1.0489
60115SOL    HW289314   3.595   5.169  11.024  0.7977  0.6466 -0.3185
60116SOL     OW89315   9.012   8.558   3.073 -0.1646 -0.6284  0.6445
60116SOL    HW189316   9.051   8.536   2.988 -0.3289 -3.3749  1.1769
60116SOL    HW289317   9.080   8.535   3.137 -0.7840 -0.5616  1.3394
60117SOL     OW89318   0.029   4.640   0.839 -0.0442  0.1859 -0.1225
60117SOL    HW189319  -0.008   4.588   0.768 -0.6156  0.5200 -0.0763
60117SOL    HW289320  -0.048   4.677   0.884  0.2778 -0.5330  1.0519
60118SOL     OW89321   7.268  12.123   7.088  0.2623 -0.4759 -0.2819
60118SOL    HW189322   7.276  12.206   7.135 -2.0811  0.0390 -0.6286
60118SOL    HW289323   7.328  12.130   7.014  0.5693  0.6542  0.0633
60119SOL     OW89324  10.947  11.156   4.179 -0.2323 -0.1832  0.3332
60119SOL    HW189325  11.038  11.143   4.207  0.3955  2.7776  0.0095
60119SOL    HW289326  10.945  11.123   4.089  0.5640 -0.1742  0.3039
60120SOL     OW89327  10.782   3.014   0.425 -0.0136  0.2442 -0.2422
60120SOL    HW189328  10.710   2.958   0.398 -0.8045  0.9877  0.2605
60120SOL    HW289329  10.766   3.098   0.381  0.2240  0.5896  0.3132
60121SOL     OW89330  11.553   3.042   8.985 -0.1909 -0.2439  0.6419
60121SOL    HW189331  11.622   3.108   8.996  0.3652 -0.9290  1.4531
60121SOL    HW289332  11.508   3.067   8.905 -0.0809  1.1921  1.0096
60122SOL     OW89333   6.699  10.470   2.257  0.3979 -0.1535  0.4287
60122SOL    HW189334   6.729  10.556   2.228  0.1427 -0.1696  0.1153
60122SOL    HW289335   6.618  10.454   2.209  0.9994 -1.0297 -0.3251
60123SOL     OW89336   2.499   5.155   1.689  0.0348  0.1897  0.1603
60123SOL    HW189337   2.462   5.203   1.614  0.1191  1.7187  1.0521
60123SOL    HW289338   2.537   5.223   1.744  0.6286 -0.9839  1.2462
60124SOL     OW89339   7.477   0.563  10.659  0.2936 -0.0070  0.0676
60124SOL    HW189340   7.448   0.642  10.613  0.5960 -1.2016 -2.2846
60124SOL    HW289341   7.451   0.579  10.750  1.1730  3.1986 -0.1058
60125SOL     OW89342   2.679   4.541   3.233  0.0647 -0.2071 -0.4994
60125SOL    HW189343   2.737   4.613   3.258 -2.2249  1.9095 -0.8751
60125SOL    HW289344   2.623   4.528   3.310 -0.5809 -0.4827 -1.0080
60126SOL     OW89345  11.821   4.151  11.220 -0.4305 -0.2827 -0.1689
60126SOL    HW189346  11.904   4.107  11.242 -0.5443  0.1226  1.1534
60126SOL    HW289347  11.846   4.241  11.202 -0.7411  0.2369  1.8156
60127SOL     OW89348  10.668   7.420   9.540  0.1096  0.1958  0.9433
60127SOL    HW189349  10.688   7.326   9.537 -0.9397 -0.0125 -0.2605
60127SOL    HW289350  10.578   7.426   9.508  0.6762  1.7619 -0.4741
60128SOL     OW89351   6.898   8.442   0.412 -0.4768  0.0013  0.5522
60128SOL    HW189352   6.917   8.536   0.403 -4.7968  1.0377 -0.0257
60128SOL    HW289353   6.886   8.412   0.322 -0.6131 -0.7344  0.8132
60129SOL     OW89354   6.724   2.150   0.486 -0.0834 -0.1406 -0.0788
60129SOL    HW189355   6.778   2.202   0.427  1.6011 -0.1622  1.3641
60129SOL    HW289356   6.674   2.092   0.428  1.6768 -0.3511 -1.4830
60130SOL     OW89357   3.911   7.777  11.066  0.1350 -0.3276 -0.4271
60130SOL    HW189358   3.870   7.844  11.121  0.1091 -1.5021  1.0404
60130SOL    HW289359   3.943   7.826  10.990  0.5092  1.4365  0.7876
60131SOL     OW89360   0.202   6.683   4.560 -0.5635  0.2793  0.3125
60131SOL    HW189361   0.149   6.604   4.569 -0.6831  0.2656 -0.4516
60131SOL    HW289362   0.221   6.689   4.466  1.0669  0.1055  0.6103
60132SOL     OW89363  10.589   7.258   8.149  0.3873  0.2860 -0.8086
60132SOL    HW189364  10.507   7.237   8.194  0.7262  0.1339 -0.2495
60132SOL    HW289365  10.584   7.211   8.066 -0.3082  0.6784 -1.0029
60133SOL     OW89366   9.157   4.102   7.749 -0.3485  0.0154 -0.0385
60133SOL    HW189367   9.121   4.022   7.710 -0.9253  0.7031 -0.9721
60133SOL    HW289368   9.085   4.165   7.745 -1.1566 -0.4038  4.0883
60134SOL     OW89369   8.627   3.814   3.137 -0.0217  0.0389 -0.4737
60134SOL    HW189370   8.592   3.729   3.166  0.1059  0.5134  1.1425
60134SOL    HW289371   8.711   3.793   3.096 -0.1457 -0.6456 -0.3860
60135SOL     OW89372   5.797   9.351  11.261 -0.5550  0.0664  0.8135
60135SOL    HW189373   5.834   9.437  11.281 -0.8356  0.4940 -0.4085
60135SOL    HW289374   5.871   9.290  11.268 -0.4574  0.3119  2.1802
60136SOL     OW89375  10.508   9.633   2.664  0.0098 -0.0749  0.5704
60136SOL    HW189376  10.496   9.627   2.570 -2.3105  1.0469  0.7126
60136SOL    HW289377  10.459   9.559   2.700  0.1498 -0.0022  0.9148
60137SOL     OW89378   2.844   8.695   1.973  0.2524 -0.3041 -0.3576
60137SOL    HW189379   2.900   8.665   2.045  0.8987  1.2798 -0.1598
60137SOL    HW289380   2.810   8.779   2.004  1.0408  0.7147 -2.1384
60138SOL     OW89381   2.005   7.298   9.080  0.0428  0.1686 -0.0751
60138SOL    HW189382   2.041   7.266   8.997  1.7091  2.1374 -0.2027
60138SOL    HW289383   2.061   7.258   9.146 -1.0825 -1.1452  0.1064
60139SOL     OW89384   4.340   1.110   5.958  0.4704 -0.4164 -0.0579
60139SOL    HW189385   4.355   1.078   6.047 -0.5286  0.1341  0.3217
60139SOL    HW289386   4.324   1.204   5.968  0.6869 -0.2832 -0.8643
60140SOL     OW89387   3.880   5.791   5.814  0.0285 -0.4386 -0.0027
60140SOL    HW189388   3.926   5.721   5.767  1.9781  0.6812  0.1287
60140SOL    HW289389   3.868   5.860   5.748  0.5627  0.1561  0.5092
60141SOL     OW89390   8.519   6.904  10.115  0.2835  0.1420  0.1917
60141SOL    HW189391   8.542   6.919  10.023 -0.4356  1.1671  0.1631
60141SOL    HW289392   8.425   6.922  10.119  0.4135  0.6845  1.2417
60142SOL     OW89393   0.027   5.658   0.033  0.1429  0.2440  0.1260
60142SOL    HW189394   0.073   5.587  -0.012  1.2320  0.6223  0.6199
60142SOL    HW289395   0.059   5.738  -0.008  1.0695  0.5864  1.4651
60143SOL     OW89396   4.654   0.113  10.167 -0.2837  0.5740  0.2216
60143SOL    HW189397   4.649   0.020  10.145  0.0162  0.5156  0.3882
60143SOL    HW289398   4.628   0.117  10.259  1.9929  0.3318  0.9366
60144SOL     OW89399   8.188   8.875   3.273 -0.2999  0.5322 -0.5208
60144SOL    HW189400   8.256   8.856   3.337 -1.4862  0.1886  0.6812
60144SOL    HW289401   8.236   8.903   3.195  1.2178 -0.1276  0.1349
60145SOL     OW89402   7.764  10.423   2.784  0.3666  0.0968  0.5955
60145SOL    HW189403   7.857  10.418   2.805  0.4709 -0.5999  0.0060
60145SOL    HW289404   7.751  10.513   2.753  0.9844  0.0154  0.0731
60146SOL     OW89405   0.981   3.496   2.722 -0.3152  0.1984 -0.0639
60146SOL    HW189406   0.935   3.482   2.805 -1.3475  1.2342 -0.4352
60146SOL    HW289407   0.987   3.592   2.714  0.6978  0.1038 -0.7038
60147SOL     OW89408   8.312  12.436   6.670 -0.3442  0.0985  0.3427
60147SOL    HW189409   8.371  12.432   6.745  0.1865  0.0853 -0.0710
60147SOL    HW289410   8.357  12.491   6.606 -0.5985 -0.2300 -0.1325
60148SOL     OW89411   0.195   0.082   2.870 -0.4156  0.1596  0.0205
60148SOL    HW189412   0.122   0.111   2.814 -0.7621 -0.9492 -0.1434
60148SOL    HW289413   0.155   0.017   2.929  0.7265 -1.7862 -1.2281
60149SOL     OW89414   2.902  12.507   6.853  0.4110 -0.0999  0.0019
60149SOL    HW189415   2.962  12.456   6.908 -1.0188  1.1741  2.9163
60149SOL    HW289416   2.937  12.596   6.854 -0.4156  0.2345  0.0304
60150SOL     OW89417   9.671   7.009   3.685 -0.1118 -0.2323 -0.0396
60150SOL    HW189418   9.766   7.010   3.700 -0.3921 -0.9298  2.1703
60150SOL    HW289419   9.634   7.045   3.766 -1.7350  0.2912 -0.9850
60151SOL     OW89420   6.882   5.107   4.504  0.1630 -0.4128  0.0354
60151SOL    HW189421   6.910   5.106   4.412  0.7374  1.2527  0.1531
60151SOL    HW289422   6.963   5.090   4.553  0.1655  0.2254  0.2619
60152SOL     OW89423   3.443   2.275   7.305 -0.6276  0.4953 -0.7992
60152SOL    HW189424   3.482   2.300   7.388  1.1580 -3.0821 -0.3437
60152SOL    HW289425   3.350   2.266   7.323 -0.1840 -0.9248  1.1189
60153SOL     OW89426   9.677   5.140   2.561  0.6167 -0.5272  0.0053
60153SOL    HW189427   9.671   5.124   2.466 -1.8019 -2.1866  0.3719
60153SOL    HW289428   9.605   5.199   2.580 -1.3624 -3.2017  1.3098
60154SOL     OW89429   5.792   3.194  11.803 -0.0431  0.4900 -0.5444
60154SOL    HW189430   5.700   3.216  11.822  0.1331  0.6415  0.1706
60154SOL    HW289431   5.786   3.115  11.750 -0.5734 -0.3169  0.6617
60155SOL     OW89432   6.015   1.555   7.756 -0.0086  0.7744  0.0183
60155SOL    HW189433   6.061   1.501   7.820 -1.7567 -0.9022 -0.0317
60155SOL    HW289434   5.961   1.615   7.808 -0.2154  0.5078  0.1134
60156SOL     OW89435   7.111   6.014   2.518 -0.1430 -0.2137 -0.2718
60156SOL    HW189436   7.156   6.055   2.445  1.0361 -0.3315  0.3647
60156SOL    HW289437   7.027   5.986   2.482 -0.6330  1.9335 -0.9508
60157SOL     OW89438   9.775   8.101  10.782  0.2626  0.4076  0.4273
60157SOL    HW189439   9.747   8.019  10.740  1.3088 -0.5933  1.6190
60157SOL    HW289440   9.693   8.143  10.809 -0.2597 -0.9979  1.1405
60158SOL     OW89441   1.592   4.611   8.439  0.1709 -0.0420 -0.3689
60158SOL    HW189442   1.582   4.602   8.344 -1.4442 -0.4415 -0.1878
60158SOL    HW289443   1.535   4.685   8.461  1.4510  0.8100  0.1526
60159SOL     OW89444   6.982   2.612   5.223 -0.0276  0.5838 -0.5512
60159SOL    HW189445   6.901   2.563   5.237 -1.4434  2.6313 -1.2353
60159SOL    HW289446   7.050   2.556   5.261 -2.0122 -0.1054  2.3624
60160SOL     OW89447   0.266   1.126   3.932  0.1352  0.0345 -0.1417
60160SOL    HW189448   0.329   1.067   3.891  0.0405 -0.9923  1.1241
60160SOL    HW289449   0.295   1.132   4.023  1.5174  3.7899 -0.6499
60161SOL     OW89450   3.802   9.364   9.130 -0.0837 -0.2254  0.9423
60161SOL    HW189451   3.885   9.396   9.167 -0.8047  0.6481  1.8666
60161SOL    HW289452   3.828   9.317   9.051  1.4692 -1.4365  2.0778
60162SOL     OW89453   8.070   4.146   4.540 -0.2998 -0.7392 -0.1574
60162SOL    HW189454   8.129   4.215   4.572  0.3911 -1.6821  0.6582
60162SOL    HW289455   8.113   4.113   4.462 -0.0062 -1.0779  0.1467
60163SOL     OW89456   0.543   3.726   1.884  0.6663  0.1594 -0.2859
60163SOL    HW189457   0.586   3.801   1.841  0.8607  0.0871 -0.2169
60163SOL    HW289458   0.457   3.720   1.841  0.7396  0.2793 -0.4506
60164SOL     OW89459   9.228   0.150   5.263 -0.0025  0.3555  0.2468
60164SOL    HW189460   9.241   0.073   5.208 -0.2088  0.3763  0.1667
60164SOL    HW289461   9.212   0.221   5.202 -1.8873  0.0701  0.3495
60165SOL     OW89462  11.131   2.492   4.538  0.1279 -0.1274  0.2254
60165SOL    HW189463  11.205   2.493   4.599  0.5187 -2.1243 -0.1395
60165SOL    HW289464  11.127   2.402   4.508 -3.7609 -0.6626  1.7932
60166SOL     OW89465   4.237   3.929  12.289  0.1043 -0.0722  0.2661
60166SOL    HW189466   4.177   3.867  12.329  0.7988  0.2063  1.8480
60166SOL    HW289467   4.189   3.967  12.216 -0.5992 -1.8812 -0.2454
60167SOL     OW89468   7.407   9.635   0.226  0.2769 -0.2006 -0.1413
60167SOL    HW189469   7.367   9.567   0.171 -1.8709  1.0006 -0.1717
60167SOL    HW289470   7.375   9.616   0.314 -0.1053  0.5858 -0.1036
60168SOL     OW89471   4.631   6.515   3.149 -0.0257 -0.1889  0.4683
60168SOL    HW189472   4.636   6.476   3.062 -0.4761  0.0042  0.3520
60168SOL    HW289473   4.545   6.491   3.182  0.4325 -0.8952  1.1755
60169SOL     OW89474   1.942  10.520   7.783  0.2264 -0.1022  0.1110
60169SOL    HW189475   1.864  10.497   7.732  0.1507  0.4120 -0.0086
60169SOL    HW289476   1.918  10.600   7.829  0.9714  0.5538 -0.6007
60170SOL     OW89477   4.191   6.581   0.551  0.2067  0.4384 -0.4202
60170SOL    HW189478   4.284   6.555   0.555 -0.0061 -0.3111 -0.2077
60170SOL    HW289479   4.190   6.672   0.579  1.1795  1.1856 -2.5980
60171SOL     OW89480  10.459   6.440   2.097  0.2015 -0.5360 -0.2811
60171SOL    HW189481  10.428   6.386   2.170  1.4970 -1.2470 -0.2226
60171SOL    HW289482  10.402   6.517   2.098  1.4138  0.4653  2.7516
60172SOL     OW89483  11.118  11.658   1.034  0.2024 -0.7271 -0.2065
60172SOL    HW189484  11.088  11.573   1.003  2.5601 -0.1610 -4.9385
60172SOL    HW289485  11.212  11.646   1.049  0.7894  1.1603 -1.9447
60173SOL     OW89486   6.825  11.383   9.230  0.2785  0.1546 -0.7257
60173SOL    HW189487   6.744  11.343   9.263  0.7303 -0.7814 -0.7072
60173SOL    HW289488   6.832  11.466   9.278 -0.4282  0.0293 -0.3927
60174SOL     OW89489   8.217   0.169   5.614  0.4410  0.4191  0.0462
60174SOL    HW189490   8.267   0.094   5.647  1.3995  0.6638 -0.7911
60174SOL    HW289491   8.209   0.227   5.690  2.4539  0.8917 -0.0277
60175SOL     OW89492  12.324   1.234   3.828 -0.3284  0.2017  0.0760
60175SOL    HW189493  12.234   1.267   3.834 -0.7411 -0.8693  0.0742
60175SOL    HW289494  12.365   1.288   3.761 -1.0117  0.6344 -0.0065
60176SOL     OW89495  12.263   2.778   5.873 -0.2250 -0.2222 -0.4168
60176SOL    HW189496  12.189   2.830   5.906 -0.4694 -1.4589  1.0983
60176SOL    HW289497  12.315   2.759   5.951  1.1875 -0.1960 -1.3225
60177SOL     OW89498  12.033   6.569   9.652  0.1452 -0.0123 -0.3550
60177SOL    HW189499  11.993   6.602   9.571  1.2210 -1.3671 -1.4857
60177SOL    HW289500  12.060   6.480   9.631  1.3664 -0.0479  1.1916
60178SOL     OW89501   7.607   1.044   6.060 -0.2395  0.0373 -0.0306
60178SOL    HW189502   7.607   1.126   6.109 -1.9074 -0.7925  1.4740
60178SOL    HW289503   7.700   1.023   6.049  0.2042  1.6076  0.3867
60179SOL     OW89504   5.095   8.374   4.811 -0.1878  0.1397 -0.1257
60179SOL    HW189505   5.118   8.328   4.892 -0.5786 -0.0278 -0.1044
60179SOL    HW289506   5.129   8.318   4.741 -1.0746 -0.4480 -0.1175
60180SOL     OW89507   2.914   5.793   9.546  0.3675 -0.4641 -0.0964
60180SOL    HW189508   2.879   5.742   9.619  0.8591 -2.0997 -0.9459
60180SOL    HW289509   2.912   5.732   9.472  3.1974 -0.0329 -0.6317
60181SOL     OW89510   5.646   5.341   3.418 -0.3167 -0.3624 -0.4674
60181SOL    HW189511   5.676   5.427   3.448 -0.9193 -0.8208  1.6066
60181SOL    HW289512   5.721   5.283   3.430  0.1329 -0.1231 -1.9971
60182SOL     OW89513   8.367   8.064  11.792  0.1633 -0.2868  0.3879
60182SOL    HW189514   8.322   8.147  11.809 -2.1670 -0.4264 -3.8181
60182SOL    HW289515   8.460   8.086  11.794 -0.3576  2.2297  0.2944
60183SOL     OW89516   2.866  10.929   5.636 -0.3208 -0.0635 -0.1054
60183SOL    HW189517   2.925  10.860   5.605  0.3291  0.4596 -0.0745
60183SOL    HW289518   2.792  10.927   5.575  0.3138  0.0719 -0.9018
60184SOL     OW89519   5.158  10.807   7.689  0.4875  0.0431  0.5110
60184SOL    HW189520   5.228  10.866   7.662 -0.1989 -0.6812 -3.5521
60184SOL    HW289521   5.084  10.865   7.707  0.5962  0.6129 -0.7561
60185SOL     OW89522  12.365   1.236   9.283  0.3523 -0.3715 -0.2621
60185SOL    HW189523  12.358   1.224   9.378 -0.5513 -1.1256 -0.4022
60185SOL    HW289524  12.275   1.222   9.251  0.8075 -0.9874 -1.3037
60186SOL     OW89525   9.715   4.465   4.984 -0.1093  0.0414  0.6157
60186SOL    HW189526   9.641   4.444   4.928 -0.5340  1.6487  0.5230
60186SOL    HW289527   9.704   4.408   5.060 -1.8698  0.7367  0.9398
60187SOL     OW89528   9.626   0.074  12.307  0.1045  0.2051 -0.0374
60187SOL    HW189529   9.626   0.162  12.343 -0.9779 -0.2858  1.2271
60187SOL    HW289530   9.699   0.030  12.350  0.3810  0.3459 -0.3537
60188SOL     OW89531  10.497   8.738   3.102  0.1120  0.4367  0.2494
60188SOL    HW189532  10.460   8.656   3.070 -1.9018  1.1895  0.4547
60188SOL    HW289533  10.591   8.726   3.098 -0.1306 -1.4048 -0.9385
60189SOL     OW89534   4.349  11.453   0.739 -0.3894 -0.0089  0.6571
60189SOL    HW189535   4.369  11.428   0.829 -0.3487  0.5557  0.8040
60189SOL    HW289536   4.301  11.377   0.704 -3.3162  0.9795  2.1555
60190SOL     OW89537   8.861   2.526   0.771  0.0360 -0.7036  0.1182
60190SOL    HW189538   8.920   2.508   0.844  2.9846  1.1578 -1.5978
60190SOL    HW289539   8.854   2.441   0.726  3.0331 -0.6548 -0.6378
60191SOL     OW89540   9.105   4.620  11.354 -0.1787 -0.4944 -0.3088
60191SOL    HW189541   9.150   4.674  11.289 -0.8954  3.0498  1.9088
60191SOL    HW289542   9.015   4.615  11.322  0.1066 -1.3345 -1.0333
60192SOL     OW89543   1.834   1.621   0.459 -0.1557  0.4000 -0.0699
60192SOL    HW189544   1.815   1.533   0.428 -3.0961  1.6935 -2.5529
60192SOL    HW289545   1.781   1.631   0.538 -2.1134  0.7228 -1.3454
60193SOL     OW89546  10.412   5.802   9.796  0.0039  0.0201 -0.4817
60193SOL    HW189547  10.497   5.829   9.832  0.1438 -0.2729 -0.5849
60193SOL    HW289548  10.412   5.837   9.707  0.5664 -1.0680 -0.9276
60194SOL     OW89549   6.314   1.963   5.694  0.2301 -0.7514 -0.3921
60194SOL    HW189550   6.261   1.892   5.658 -0.6320 -0.2517 -0.1174
60194SOL    HW289551   6.287   1.971   5.785  0.8587 -0.5635 -0.2152
60195SOL     OW89552   0.875   6.824   9.962  0.3662 -0.0034 -0.0791
60195SOL    HW189553   0.794   6.871   9.942 -0.1688 -0.4991  0.8562
60195SOL    HW289554   0.945   6.882   9.932 -0.3253 -0.8217 -3.7034
60196SOL     OW89555   7.917   4.791   8.517  0.1942  0.1818 -0.3138
60196SOL    HW189556   7.922   4.886   8.507 -0.7170  0.4844  1.6491
60196SOL    HW289557   7.823   4.771   8.511  0.4316 -0.7249 -1.4619
60197SOL     OW89558   3.754   1.419   3.593 -0.2145  0.5914  0.2903
60197SOL    HW189559   3.814   1.420   3.519 -2.8995  1.1681 -2.0459
60197SOL    HW289560   3.751   1.510   3.624  1.1892  0.2849  1.4564
60198SOL     OW89561   6.331   6.017   1.392  0.2020  0.0550 -0.7542
60198SOL    HW189562   6.239   6.016   1.368  0.2368 -0.3597 -0.8790
60198SOL    HW289563   6.378   6.013   1.308  0.3631  2.1892 -0.8235
60199SOL     OW89564   8.612   9.491   3.561  0.7682 -0.2820 -0.4564
60199SOL    HW189565   8.540   9.541   3.598  1.4990  0.7641 -0.4058
60199SOL    HW289566   8.636   9.538   3.481  1.5495 -0.4712 -0.3479
60200SOL     OW89567   3.270   3.971   5.355  0.0692 -0.3737 -0.5317
60200SOL    HW189568   3.238   3.897   5.303 -1.5409  1.1388 -1.7951
60200SOL    HW289569   3.224   3.962   5.439 -1.1081 -0.1408 -1.1251
60201SOL     OW89570   5.021   6.939   8.553 -0.8912  0.0522  0.0161
60201SOL    HW189571   5.019   6.890   8.636 -3.2345 -2.5743 -1.4258
60201SOL    HW289572   5.049   6.875   8.488 -2.3416  1.0868 -1.7159
60202SOL     OW89573   4.953   3.630   3.832  0.7230 -0.3738  0.2012
60202SOL    HW189574   4.903   3.550   3.817  0.7716 -0.4414  0.3998
60202SOL    HW289575   4.968   3.632   3.926 -0.2143  0.4205  0.3610
60203SOL     OW89576  12.596   7.822   1.165  0.2319 -0.6471  0.2078
60203SOL    HW189577  12.548   7.898   1.130  1.6432  0.4246  0.5120
60203SOL    HW289578  12.557   7.747   1.120 -0.0391  0.4089 -1.4273
60204SOL     OW89579   1.252   4.365   6.233  0.6986 -0.0220 -0.0359
60204SOL    HW189580   1.301   4.340   6.155  2.0314 -0.7623  0.9835
60204SOL    HW289581   1.286   4.451   6.256  1.2847 -0.3794  0.4663
60205SOL     OW89582  11.104   0.079   5.263 -0.4352 -0.6215  0.2170
60205SOL    HW189583  11.045   0.108   5.332 -1.0457  0.5695 -0.7757
60205SOL    HW289584  11.184   0.130   5.276 -0.9716  0.4674 -0.6319
60206SOL     OW89585   9.295   7.980   4.157  0.5617  0.0896 -0.0354
60206SOL    HW189586   9.271   8.036   4.082 -0.0370 -0.8320 -0.5534
60206SOL    HW289587   9.283   7.891   4.124  0.2660 -0.3273  1.1785
60207SOL     OW89588  12.179   4.920  12.223 -0.5448  0.5439  0.0602
60207SOL    HW189589  12.239   4.950  12.155  0.0901 -2.8459 -1.0967
60207SOL    HW289590  12.230   4.925  12.304  1.9538 -3.2002 -1.0129
60208SOL     OW89591   0.036   5.057   1.433 -0.2970  0.0339 -0.3161
60208SOL    HW189592   0.097   4.985   1.448  0.6526  0.3065 -2.5329
60208SOL    HW289593   0.054   5.086   1.344 -4.2081 -0.3933 -1.4092
60209SOL     OW89594   4.887  12.081   8.021 -0.5434  0.2559 -0.0529
60209SOL    HW189595   4.815  12.019   8.010  0.6453 -1.4534  1.3144
60209SOL    HW289596   4.867  12.127   8.103 -0.6072  0.5503 -0.2319
60210SOL     OW89597   6.292   9.219   6.027  0.0092  0.4018 -0.2982
60210SOL    HW189598   6.278   9.305   5.989  1.0015  0.8377  0.2963
60210SOL    HW289599   6.330   9.167   5.957 -0.3375  0.5239 -0.5784
60211SOL     OW89600   2.420   1.292   5.746 -0.4388  0.0692  0.3121
60211SOL    HW189601   2.332   1.258   5.727 -0.2660 -0.1235 -0.1375
60211SOL    HW289602   2.474   1.214   5.757 -0.3288  0.1886  0.6138
60212SOL     OW89603   4.814   3.223   6.833  0.0404  0.3292  0.2486
60212SOL    HW189604   4.768   3.250   6.913 -1.6466  1.2555 -0.9734
60212SOL    HW289605   4.756   3.159   6.792 -0.0903  1.3226 -1.1929
60213SOL     OW89606   6.822   9.693   0.961 -0.1682  0.1227  0.1555
60213SOL    HW189607   6.831   9.608   1.003 -0.0104 -0.7312 -1.5276
60213SOL    HW289608   6.906   9.736   0.975 -0.0476 -0.2288  0.5229
60214SOL     OW89609  10.110   1.697  10.373 -0.4113 -0.1196 -0.3917
60214SOL    HW189610  10.020   1.672  10.394 -1.1887  1.4997 -1.5681
60214SOL    HW289611  10.157   1.614  10.366 -1.7035 -0.9816  0.6400
60215SOL     OW89612   1.685   1.355   1.556 -0.3461 -0.0622  0.0763
60215SOL    HW189613   1.777   1.347   1.532 -0.9898 -1.2669 -2.2799
60215SOL    HW289614   1.643   1.393   1.480 -2.2620 -2.4153 -0.1553
60216SOL     OW89615   7.370   3.786   0.385  0.2494  0.3849  0.0053
60216SOL    HW189616   7.363   3.698   0.421 -1.6570  0.1955 -0.7106
60216SOL    HW289617   7.400   3.840   0.458 -1.0383 -0.4234  1.1800
60217SOL     OW89618   6.248   2.253   4.410  0.2441 -0.1929  0.5855
60217SOL    HW189619   6.302   2.324   4.375  0.5066 -0.7092 -0.0777
60217SOL    HW289620   6.204   2.216   4.333  0.5640 -1.1269  0.8390
60218SOL     OW89621   2.893   2.352   2.797 -0.3097 -0.1183  0.1527
60218SOL    HW189622   2.877   2.444   2.818  1.5276  0.0144  1.1574
60218SOL    HW289623   2.832   2.303   2.852  0.0787  0.4616  1.1278
60219SOL     OW89624   0.000   7.590   6.577  0.1816 -0.2402  0.3159
60219SOL    HW189625   0.020   7.513   6.524  0.4637 -0.1626  0.3079
60219SOL    HW289626  -0.049   7.557   6.652 -2.1000 -0.1248 -1.0372
60220SOL     OW89627  11.218   6.391  11.901  0.2114 -0.1892 -0.0255
60220SOL    HW189628  11.301   6.411  11.942  1.5270 -1.6172 -1.8167
60220SOL    HW289629  11.159   6.372  11.974  0.3709  4.1154  1.5006
60221SOL     OW89630   0.679   2.014   5.450  0.6997 -0.3687  0.2364
60221SOL    HW189631   0.614   1.979   5.511  0.9769 -0.0093  0.7377
60221SOL    HW289632   0.637   2.092   5.413  0.7227 -0.3055  0.3413
60222SOL     OW89633   2.353   3.059   6.214  0.1854  0.3448 -0.0323
60222SOL    HW189634   2.447   3.042   6.214  0.3396  1.1201  0.4809
60222SOL    HW289635   2.329   3.060   6.121  1.1719  2.5482 -0.3454
60223SOL     OW89636   5.048   0.166   2.679 -0.3683 -0.3257 -0.4754
60223SOL    HW189637   5.094   0.084   2.699  0.5101  0.0363 -0.9928
60223SOL    HW289638   5.117   0.228   2.659 -1.0985  0.0680 -1.8971
60224SOL     OW89639   6.731   7.508   7.518 -0.6510  0.1488 -0.0617
60224SOL    HW189640   6.818   7.544   7.533 -1.0879  1.1370  0.1692
60224SOL    HW289641   6.726   7.494   7.423 -1.2152  2.7359 -0.4694
60225SOL     OW89642   4.993  11.404  11.353  0.0187  0.7216 -0.5503
60225SOL    HW189643   5.065  11.414  11.416 -0.0314 -0.3202 -0.3132
60225SOL    HW289644   4.962  11.494  11.339 -0.0671  0.9758  1.0259
60226SOL     OW89645   8.768   7.224  10.388 -0.5238  0.5888  0.0640
60226SOL    HW189646   8.855   7.204  10.352 -0.4629  0.3654  0.3301
60226SOL    HW289647   8.763   7.319  10.386  1.0608  0.8531  3.0643
60227SOL     OW89648   6.434   9.540   2.344 -0.3393  0.1752 -0.1378
60227SOL    HW189649   6.402   9.471   2.285 -0.5676  1.1524 -1.1830
60227SOL    HW289650   6.522   9.511   2.369  0.2234  0.2779 -1.8787
60228SOL     OW89651   5.150   6.477   3.353 -0.2409  0.3357  0.2306
60228SOL    HW189652   5.058   6.499   3.367 -1.5042 -3.9529 -0.0453
60228SOL    HW289653   5.167   6.498   3.261 -1.4871 -0.4167 -0.1827
60229SOL     OW89654   2.370   4.425   3.166 -0.0182 -0.4668  0.1092
60229SOL    HW189655   2.322   4.502   3.198 -0.4737 -2.0535  3.6905
60229SOL    HW289656   2.461   4.442   3.192 -0.1927 -1.2338  1.3286
60230SOL     OW89657   5.086   6.281  10.162  0.0287 -0.1938 -0.3762
60230SOL    HW189658   5.037   6.240  10.233 -1.0061 -0.7125 -1.3517
60230SOL    HW289659   5.151   6.216  10.136  1.4058  0.5524  1.0194
60231SOL     OW89660   4.717  11.416  10.772 -0.1695  0.8730 -0.1760
60231SOL    HW189661   4.681  11.505  10.775  0.3968  1.1116 -0.3144
60231SOL    HW289662   4.642  11.361  10.748 -0.5998  1.2646  0.2404
60232SOL     OW89663   0.285   5.478  12.574  0.2790  0.4933 -0.4041
60232SOL    HW189664   0.292   5.544  12.505 -0.8107  0.9850 -0.0548
60232SOL    HW289665   0.373   5.474  12.612  0.4135  1.6023 -0.5603
60233SOL     OW89666  11.000   2.082   8.122  0.2578 -0.2364  0.3124
60233SOL    HW189667  11.073   2.052   8.068  0.6777  0.2842  0.5864
60233SOL    HW289668  11.035   2.155   8.172 -0.5627  0.2851  0.1488
60234SOL     OW89669   1.243   2.993   0.655 -0.1984 -0.1254  0.0009
60234SOL    HW189670   1.198   3.064   0.609 -0.9630 -1.3998 -1.3134
60234SOL    HW289671   1.335   3.021   0.656 -0.5435  1.0873 -0.0611
60235SOL     OW89672   7.255   1.179   4.566 -0.2635 -0.2492  0.2787
60235SOL    HW189673   7.216   1.172   4.653  0.3879  1.3974  0.7391
60235SOL    HW289674   7.183   1.159   4.506 -1.4170  1.0992  1.1466
60236SOL     OW89675  11.310   1.547   5.585  0.0040 -0.1905 -0.0701
60236SOL    HW189676  11.389   1.568   5.535 -0.4756 -1.0305 -1.1986
60236SOL    HW289677  11.344   1.509   5.666  0.8389  2.7879  1.1312
60237SOL     OW89678   9.854   8.510  10.785 -0.2512  0.4564  0.0792
60237SOL    HW189679   9.845   8.600  10.815  0.3697  0.4914  0.1804
60237SOL    HW289680   9.845   8.457  10.864 -2.8877  0.2616 -0.2806
60238SOL     OW89681  10.092   1.079   8.809  0.6909 -0.1223 -0.4465
60238SOL    HW189682  10.077   1.149   8.747  0.6906  0.2823  0.0049
60238SOL    HW289683  10.177   1.042   8.785  2.6852  2.6281  1.7069
60239SOL     OW89684   6.595   2.419   1.994 -0.6991  0.9934  0.1752
60239SOL    HW189685   6.634   2.506   1.986 -2.3159  1.6993 -0.4277
60239SOL    HW289686   6.511   2.434   2.038 -1.1766 -0.2027 -0.2888
60240SOL     OW89687  10.405   3.968   8.054 -0.4309 -0.4092  0.4169
60240SOL    HW189688  10.465   4.035   8.023 -1.6214  0.5847  0.1782
60240SOL    HW289689  10.339   3.960   7.985 -1.0596 -0.8273  1.0410
60241SOL     OW89690  10.923   1.666   2.493 -0.0357  0.0995 -0.1640
60241SOL    HW189691  10.889   1.656   2.404  1.9525 -0.4761 -0.9004
60241SOL    HW289692  10.997   1.726   2.484  0.1066  0.1555  1.1460
60242SOL     OW89693   1.732   9.154   2.869 -0.2517 -0.5562  0.1658
60242SOL    HW189694   1.652   9.167   2.921  0.1278 -0.4169  0.7265
60242SOL    HW289695   1.701   9.137   2.780 -0.9190 -0.9262  0.4647
60243SOL     OW89696   0.769   0.335   7.267  0.6663 -0.4027  0.0201
60243SOL    HW189697   0.812   0.371   7.190  0.6227 -0.3822  0.0057
60243SOL    HW289698   0.731   0.252   7.237 -0.7108  0.3421 -0.3837
60244SOL     OW89699   0.251   3.176   9.182 -0.1225 -0.0108  0.1527
60244SOL    HW189700   0.291   3.140   9.261 -0.1119 -1.1198 -0.3350
60244SOL    HW289701   0.315   3.239   9.149 -0.6369  1.3640  1.6543
60245SOL     OW89702  10.657   4.954   5.650 -0.2630  0.5324 -0.5557
60245SOL    HW189703  10.608   4.884   5.694 -0.3782  0.0057 -1.4947
60245SOL    HW289704  10.718   4.986   5.716  0.1528 -0.8131 -0.2609
60246SOL     OW89705  10.471   1.940   5.480  0.2971  0.0306  0.5220
60246SOL    HW189706  10.469   1.861   5.534  0.6388 -0.2498  0.1245
60246SOL    HW289707  10.563   1.966   5.477  0.2495  0.1745  0.2576
60247SOL     OW89708   5.691   0.117  12.013 -0.2493 -0.2627 -0.2042
60247SOL    HW189709   5.759   0.051  12.002 -0.4419 -0.3753 -0.7286
60247SOL    HW289710   5.647   0.122  11.928  1.2136  2.1507 -0.9193
60248SOL     OW89711  10.472   5.671   9.268 -0.5133  0.0819 -0.4438
60248SOL    HW189712  10.486   5.632   9.354  0.2296  0.2518 -0.4840
60248SOL    HW289713  10.528   5.620   9.209 -1.1830 -0.1772 -0.8701
60249SOL     OW89714   9.340   6.350   0.020 -0.2200  0.0025 -0.1289
60249SOL    HW189715   9.274   6.287   0.050  0.2873 -0.5178 -0.0885
60249SOL    HW289716   9.374   6.390   0.101  0.9320 -1.1813  0.0002
60250SOL     OW89717   1.745   6.204   7.385 -0.2707  0.4553 -0.6674
60250SOL    HW189718   1.812   6.136   7.385 -0.2052  0.5108 -1.3191
60250SOL    HW289719   1.709   6.202   7.296 -1.8400 -0.2629 -0.0474
60251SOL     OW89720   8.258   6.292   7.906 -0.2720 -0.0628  0.3829
60251SOL    HW189721   8.232   6.230   7.974  0.6231 -0.3008  0.5242
60251SOL    HW289722   8.297   6.364   7.954 -1.6502  0.8128  0.2426
60252SOL     OW89723   2.566   4.086   9.271  0.8217  0.0443 -0.2846
60252SOL    HW189724   2.509   4.023   9.315  0.3710  0.9609  0.4437
60252SOL    HW289725   2.512   4.122   9.200  1.4958 -1.3156 -1.5595
60253SOL     OW89726   4.628   8.974   7.608 -0.3695  0.6786  0.2684
60253SOL    HW189727   4.545   8.929   7.594  0.5692 -1.0404  0.0280
60253SOL    HW289728   4.605   9.052   7.659 -1.8164 -1.1223  2.5368
60254SOL     OW89729   9.869   4.265   2.515  0.4219  0.6078  0.1523
60254SOL    HW189730   9.926   4.214   2.458 -0.1345  2.1589 -1.9241
60254SOL    HW289731   9.782   4.254   2.479 -0.1692  0.6627  1.4788
60255SOL     OW89732   6.434  12.356   0.082 -0.1227 -0.2787 -0.1553
60255SOL    HW189733   6.512  12.313   0.046  0.1259 -0.9261  1.1128
60255SOL    HW289734   6.395  12.400   0.007  0.9840 -0.6707 -0.9938
60256SOL     OW89735   5.601   6.020  12.589 -0.0931 -0.3250 -0.0174
60256SOL    HW189736   5.608   6.081  12.516  1.3532  0.7268  0.9457
60256SOL    HW289737   5.686   5.977  12.594 -0.3439 -0.7629  0.7323
60257SOL     OW89738  11.959   0.647   2.931  0.0648  0.4651 -0.5084
60257SOL    HW189739  12.032   0.597   2.892  0.3176 -0.3209  0.8950
60257SOL    HW289740  11.881   0.611   2.890  0.2309 -1.3043  0.6112
60258SOL     OW89741   7.911  11.055   0.810 -0.0199 -0.3500  0.1649
60258SOL    HW189742   7.960  11.003   0.746  0.8716  0.3293  0.2729
60258SOL    HW289743   7.895  11.138   0.765  1.1004  0.3410  0.9940
60259SOL     OW89744   5.638   2.538   1.358 -0.5297  0.6592  1.2210
60259SOL    HW189745   5.649   2.463   1.417 -2.0867  0.2069  0.9839
60259SOL    HW289746   5.610   2.610   1.415  0.0981  0.8298  1.3228
60260SOL     OW89747   9.079   4.659   6.678  0.1634 -0.3238  0.2288
60260SOL    HW189748   9.125   4.643   6.761  1.1439 -1.7588 -0.5328
60260SOL    HW289749   8.988   4.675   6.703  0.8157  1.3365  1.7030
60261SOL     OW89750   8.415   5.593   9.720  0.3974 -0.0076 -0.3117
60261SOL    HW189751   8.392   5.595   9.627 -0.4185 -1.0820 -0.1507
60261SOL    HW289752   8.435   5.501   9.738 -1.0955 -0.1301  0.9393
60262SOL     OW89753   3.078   8.538   7.371 -0.2828  0.6868  0.3078
60262SOL    HW189754   3.158   8.500   7.335 -0.3512  2.9248 -2.4669
60262SOL    HW289755   3.092   8.632   7.369 -2.2017  1.0801  1.8085
60263SOL     OW89756   7.406  10.133   3.285 -0.0076 -0.2159  0.4062
60263SOL    HW189757   7.397  10.065   3.352 -0.7769  0.5131  1.0673
60263SOL    HW289758   7.318  10.169   3.276  0.4303  0.8382  0.2226
60264SOL     OW89759   1.012   9.811   7.592 -0.0513  0.3252  0.1369
60264SOL    HW189760   1.010   9.742   7.659 -1.0548  1.1476  0.9792
60264SOL    HW289761   1.013   9.892   7.642 -1.0587  0.9672 -0.8485
60265SOL     OW89762  11.527   6.290   1.713 -0.0882 -0.5519 -0.3127
60265SOL    HW189763  11.462   6.259   1.775 -0.6473  2.1459  0.5829
60265SOL    HW289764  11.595   6.331   1.767  1.4546 -1.6075 -1.3384
60266SOL     OW89765   6.370  10.219   4.601 -0.3526 -0.0906 -0.4526
60266SOL    HW189766   6.342  10.136   4.563  1.4327 -1.1789  0.5069
60266SOL    HW289767   6.326  10.223   4.685  1.2380 -1.1688  0.4745
60267SOL     OW89768   9.638   0.333   7.030 -0.2221 -0.1753 -0.0524
60267SOL    HW189769   9.660   0.352   6.939  0.4195  0.2665  0.1905
60267SOL    HW289770   9.685   0.399   7.081  1.8203 -2.1288  0.7908
60268SOL     OW89771   4.884   6.947   4.315 -0.2588 -0.4504 -0.1820
60268SOL    HW189772   4.852   7.004   4.245  2.6020  2.3805  0.5964
60268SOL    HW289773   4.885   7.003   4.392 -0.4316 -2.6059  1.4808
60269SOL     OW89774   2.901   5.830   4.247  0.3059 -0.3106  0.0674
60269SOL    HW189775   2.957   5.899   4.281 -0.8945  0.9521 -0.4114
60269SOL    HW289776   2.829   5.877   4.204 -0.2355 -1.8572 -0.7950
60270SOL     OW89777   0.133  11.993  11.625  0.0183  0.1570 -0.0267
60270SOL    HW189778   0.168  11.988  11.536  0.1691  0.7100 -0.0021
60270SOL    HW289779   0.085  12.076  11.628  0.5953  0.4784  0.6068
60271SOL     OW89780  12.207  10.551   1.905 -0.3402 -0.0772  0.4555
60271SOL    HW189781  12.280  10.612   1.894 -0.3215 -0.1660  0.0799
60271SOL    HW289782  12.130  10.600   1.878 -0.4345  0.0458  0.9400
60272SOL     OW89783  10.048  12.419   7.608  0.5139  0.0599 -0.0928
60272SOL    HW189784   9.978  12.358   7.628  0.0131  0.5904 -0.2151
60272SOL    HW289785  10.086  12.440   7.694  1.5507 -1.4160 -0.1590
60273SOL     OW89786   4.852   9.615   8.783  0.5749  0.1057  0.4463
60273SOL    HW189787   4.796   9.590   8.856 -0.6635 -1.3804 -0.9268
60273SOL    HW289788   4.794   9.659   8.722  1.5147  1.0011  0.1614
60274SOL     OW89789   8.713   4.630   7.783 -0.6860  0.2134  0.5419
60274SOL    HW189790   8.700   4.716   7.744 -2.2345 -0.2779 -0.0934
60274SOL    HW289791   8.661   4.632   7.863  0.2578  0.2632  1.1779
60275SOL     OW89792   0.311   0.142   1.789 -0.1815  0.5857 -0.5637
60275SOL    HW189793   0.298   0.169   1.698  2.3215  0.6073 -0.9661
60275SOL    HW289794   0.267   0.057   1.796 -1.0774  0.9461 -1.5355
60276SOL     OW89795   5.256   1.804   3.516 -0.4461 -0.2758  0.2741
60276SOL    HW189796   5.230   1.878   3.571  0.1004  0.1811 -0.0758
60276SOL    HW289797   5.230   1.727   3.566 -0.1793  0.1363  1.0655
60277SOL     OW89798   3.584   8.440   1.911 -0.7151  0.0189  0.0592
60277SOL    HW189799   3.674   8.474   1.910 -0.8247  0.3511  0.8806
60277SOL    HW289800   3.529   8.516   1.891 -0.9304  0.2609  1.4622
60278SOL     OW89801   0.691   1.264  11.676 -0.3428  0.6427 -0.0309
60278SOL    HW189802   0.668   1.290  11.587  0.9187 -1.3970 -1.0027
60278SOL    HW289803   0.615   1.214  11.707  0.3400 -1.0689 -1.0457
60279SOL     OW89804  12.240   4.659   8.137 -0.0654 -0.3221  0.3554
60279SOL    HW189805  12.204   4.724   8.077  2.4425 -1.0011 -2.1314
60279SOL    HW289806  12.218   4.574   8.098 -2.1054 -1.0489  2.8161
60280SOL     OW89807  10.165   3.502   1.486  0.3957  0.0796 -0.0601
60280SOL    HW189808  10.201   3.566   1.548 -2.6230  1.2595  0.6471
60280SOL    HW289809  10.113   3.443   1.541 -1.1057  0.2397 -1.2402
60281SOL     OW89810  10.974   9.485   9.599  0.6579  0.0827  0.3228
60281SOL    HW189811  10.975   9.478   9.503  1.0714  0.4966  0.2942
60281SOL    HW289812  11.055   9.443   9.627  1.2602  1.2497  0.3926
60282SOL     OW89813   1.084   3.474   6.146 -0.0339  0.0214  0.0502
60282SOL    HW189814   1.149   3.425   6.196  0.6386  0.4580 -0.3771
60282SOL    HW289815   1.128   3.556   6.124 -0.8254  0.4341 -0.0244
60283SOL     OW89816   8.477   5.351   5.274  0.5218  0.1831 -0.1114
60283SOL    HW189817   8.495   5.257   5.268  0.6893  0.0743  1.6569
60283SOL    HW289818   8.447   5.375   5.186  1.0784 -1.3856 -0.7696
60284SOL     OW89819   2.981  10.645  11.504  0.3467  0.5185 -0.3611
60284SOL    HW189820   2.900  10.686  11.472 -1.2993 -2.5943 -0.5093
60284SOL    HW289821   3.048  10.675  11.442 -0.7116  2.8462 -0.4960
60285SOL     OW89822   8.691  11.348   1.505 -0.1675  0.0232 -0.5345
60285SOL    HW189823   8.651  11.316   1.586 -0.9412  0.7634 -0.6070
60285SOL    HW289824   8.697  11.271   1.449 -0.5848 -0.2910 -0.1553
60286SOL     OW89825   3.750   6.118   7.498  0.0469 -0.0686 -0.0192
60286SOL    HW189826   3.814   6.061   7.455  1.1257  0.6257  0.6307
60286SOL    HW289827   3.754   6.200   7.449 -0.9617 -0.2788 -0.4861
60287SOL     OW89828   9.328   3.860  11.674  0.5635 -0.0317  0.1018
60287SOL    HW189829   9.273   3.935  11.695  0.7434  0.2555 -0.4214
60287SOL    HW289830   9.367   3.834  11.757  1.2001  1.0116  0.1407
60288SOL     OW89831   5.118   3.550   8.046  0.4433 -0.3108  0.0808
60288SOL    HW189832   5.211   3.543   8.026  0.7234  0.8736  0.8620
60288SOL    HW289833   5.115   3.593   8.131 -0.8298  0.3628 -0.2833
60289SOL     OW89834  12.183   2.917   5.302 -0.2513 -0.1041 -0.7787
60289SOL    HW189835  12.095   2.953   5.298 -0.5609 -0.9093 -1.3478
60289SOL    HW289836  12.191   2.884   5.391 -0.4199  0.2197 -0.6417
60290SOL     OW89837   5.337   7.491   2.959 -0.1511 -0.0634 -0.2163
60290SOL    HW189838   5.356   7.494   3.053 -0.0087  1.1126 -0.2580
60290SOL    HW289839   5.391   7.420   2.925 -1.6496 -1.8176  0.8825
60291SOL     OW89840   0.461   1.074   4.626  0.6413  0.8279 -0.0545
60291SOL    HW189841   0.412   1.147   4.587 -1.6020 -0.9268 -0.7011
60291SOL    HW289842   0.398   1.031   4.683  1.8314 -0.8045  0.0896
60292SOL     OW89843   7.900   9.997   5.618 -0.0661 -0.0163 -0.7843
60292SOL    HW189844   7.816  10.044   5.620 -0.2426 -0.2998 -1.3979
60292SOL    HW289845   7.916   9.981   5.525  0.7674  0.2051 -0.6839
60293SOL     OW89846   0.930   6.174   9.876  0.4570  0.0066 -0.0669
60293SOL    HW189847   0.950   6.216   9.793  0.0939  0.4900  0.0827
60293SOL    HW289848   0.938   6.080   9.859  2.5889  0.1574 -0.0560
60294SOL     OW89849   8.442   9.719  11.596  0.2598  0.1544 -0.3811
60294SOL    HW189850   8.397   9.804  11.594  0.4910  0.3835  1.7028
60294SOL    HW289851   8.501   9.725  11.672 -1.5880 -2.7514  1.4866
60295SOL     OW89852   8.062   0.469   0.902  0.3133 -0.1409 -0.4126
60295SOL    HW189853   7.977   0.512   0.911  0.5531  1.0122 -2.9766
60295SOL    HW289854   8.121   0.524   0.953 -0.3104 -0.5537  0.7998
60296SOL     OW89855   9.629   8.504   7.955  0.3607  0.5308 -0.6867
60296SOL    HW189856   9.563   8.437   7.935  2.1176 -1.1312 -1.1193
60296SOL    HW289857   9.627   8.512   8.050 -1.3801  1.5375 -0.7509
60297SOL     OW89858  11.449   1.117   7.640  0.3251  0.5618 -0.4152
60297SOL    HW189859  11.448   1.159   7.726 -0.8222  0.3216 -0.3051
60297SOL    HW289860  11.363   1.076   7.631  0.7302 -0.1456 -1.3237
60298SOL     OW89861   5.980   4.874   5.487 -0.8261 -0.0983 -0.1261
60298SOL    HW189862   5.941   4.945   5.538 -1.8002  0.3568 -1.4623
60298SOL    HW289863   6.059   4.912   5.449 -0.1926 -0.3866  0.8613
60299SOL     OW89864   8.922   0.787   8.656 -0.3238  0.3711 -0.1569
60299SOL    HW189865   8.858   0.855   8.634 -0.2366  0.8163  0.9435
60299SOL    HW289866   9.007   0.825   8.632 -0.2387  0.8166  0.8127
60300SOL     OW89867   5.593   8.046  10.550  0.4529  0.2400  0.2831
60300SOL    HW189868   5.683   8.071  10.573  0.8486 -0.9670  0.1035
60300SOL    HW289869   5.603   7.982  10.479 -0.4514 -1.3809  1.5615
60301SOL     OW89870   3.041   7.391  12.182  0.4561  0.4337  0.3603
60301SOL    HW189871   3.106   7.388  12.111  0.8324 -2.6188  0.7149
60301SOL    HW289872   2.975   7.452  12.151  2.7473  2.6258 -0.6267
60302SOL     OW89873   6.771   5.820   2.068  0.0744 -0.0102 -0.3943
60302SOL    HW189874   6.811   5.735   2.089 -1.3190 -0.1915  1.7705
60302SOL    HW289875   6.779   5.871   2.148 -2.1308  0.6854 -0.5504
60303SOL     OW89876   8.468   6.889  11.996  0.3316 -0.1855  0.7888
60303SOL    HW189877   8.387   6.875  11.947 -0.2785 -0.4461  1.8291
60303SOL    HW289878   8.504   6.801  12.009  0.7583 -0.0754  0.3775
60304SOL     OW89879  12.304   1.334   1.064  0.1299 -1.0193  0.2266
60304SOL    HW189880  12.379   1.288   1.025  0.6634 -0.0457  0.0426
60304SOL    HW289881  12.241   1.341   0.992  0.2816 -0.9787  0.0949
60305SOL     OW89882   4.107   0.930   9.946  0.4917 -0.0739 -0.5119
60305SOL    HW189883   4.110   0.835   9.958  0.6439 -0.7787 -4.5541
60305SOL    HW289884   4.045   0.960  10.012 -0.6835 -3.2116  0.0172
60306SOL     OW89885  10.279   3.418   5.135 -0.4565  0.7165 -0.0520
60306SOL    HW189886  10.247   3.339   5.179  1.9182 -0.0869  0.3531
60306SOL    HW289887  10.291   3.482   5.205 -1.6874  1.2352 -0.2875
60307SOL     OW89888   5.767   7.799   0.947 -0.6863  0.1239 -0.0341
60307SOL    HW189889   5.758   7.888   0.981  0.6155  0.3084 -0.0974
60307SOL    HW289890   5.713   7.797   0.868 -1.2314  0.6555  0.3169
60308SOL     OW89891   0.202  11.483  11.795  0.0252  0.5300  0.7723
60308SOL    HW189892   0.164  11.544  11.733 -1.1168 -1.3089 -0.4457
60308SOL    HW289893   0.282  11.452  11.753 -0.1924  0.0695  0.6942
60309SOL     OW89894   8.340   8.545   4.475 -0.1596 -0.5082  0.3303
60309SOL    HW189895   8.306   8.529   4.562  3.4278  0.6359  2.1679
60309SOL    HW289896   8.428   8.506   4.476 -0.4150 -1.5623 -3.2575
60310SOL     OW89897   1.162   4.297   5.905 -0.8263 -0.5499 -0.3368
60310SOL    HW189898   1.227   4.249   5.956 -0.2942 -0.4032 -0.8634
60310SOL    HW289899   1.172   4.264   5.816 -0.4645  0.5078 -0.7105
60311SOL     OW89900  12.069  12.517   4.068  0.4691  0.8551 -0.0464
60311SOL    HW189901  12.037  12.513   3.978  1.8300  1.5565 -0.5736
60311SOL    HW289902  12.068  12.425   4.097  0.4081  0.5747 -0.9003
60312SOL     OW89903   5.162  10.105   9.424 -0.5880 -0.7608 -0.0782
60312SOL    HW189904   5.246  10.120   9.468 -0.7900 -1.1377  0.4538
60312SOL    HW289905   5.096  10.131   9.489 -0.8914 -1.0007 -0.2827
60313SOL     OW89906   3.433   4.771   4.294 -0.5518 -0.8591  0.2672
60313SOL    HW189907   3.347   4.783   4.333 -0.0602 -0.4772  1.2818
60313SOL    HW289908   3.425   4.694   4.237 -2.6662  1.4489 -2.9219
60314SOL     OW89909   4.823   8.450   4.264  0.1288 -0.2320 -0.4332
60314SOL    HW189910   4.792   8.365   4.296 -1.0374  0.2660 -0.1628
60314SOL    HW289911   4.868   8.431   4.183  2.2501 -1.4203  0.9394
60315SOL     OW89912   5.660   3.178   5.801 -0.2079  0.0289  0.3128
60315SOL    HW189913   5.724   3.147   5.737 -2.0591  0.5612 -1.9295
60315SOL    HW289914   5.603   3.237   5.751  0.0999  3.0523  3.1779
60316SOL     OW89915   9.254  10.725   0.278  0.0293 -1.1971  0.0270
60316SOL    HW189916   9.189  10.787   0.310  1.2515 -0.1143  0.4932
60316SOL    HW289917   9.216  10.690   0.198 -2.0686 -2.1931  1.3451
60317SOL     OW89918  10.184   3.429   9.963 -0.0775 -0.2689 -0.7376
60317SOL    HW189919  10.219   3.341   9.952 -0.3730 -0.1816 -2.7375
60317SOL    HW289920  10.091   3.421   9.942  0.0197  0.6178 -1.5715
60318SOL     OW89921   8.680  10.550   8.057 -0.1458 -0.3570 -0.1247
60318SOL    HW189922   8.601  10.563   8.006 -0.3220 -0.8956  0.0059
60318SOL    HW289923   8.699  10.456   8.050 -1.0241 -0.7583  1.9970
60319SOL     OW89924   3.111   1.344   4.223 -0.5296 -0.0829  0.0288
60319SOL    HW189925   3.161   1.370   4.301 -0.1929 -0.4289 -0.0675
60319SOL    HW289926   3.157   1.267   4.189  0.0492  0.7817 -1.2153
60320SOL     OW89927   3.603   2.206   4.311  0.1775 -0.1279  0.7038
60320SOL    HW189928   3.524   2.246   4.345 -0.2671 -1.1504  0.9076
60320SOL    HW289929   3.573   2.149   4.240  0.8523  0.3073  0.0554
60321SOL     OW89930   0.742   2.083  10.249 -0.6227  0.2338 -0.4317
60321SOL    HW189931   0.799   2.158  10.264 -0.0343 -0.1808 -0.5513
60321SOL    HW289932   0.793   2.025  10.192 -1.1117 -0.2035 -0.4310
60322SOL     OW89933   5.268  10.824   8.743  0.2819  0.5133  0.3629
60322SOL    HW189934   5.237  10.841   8.654  1.3787 -1.5256 -0.4813
60322SOL    HW289935   5.200  10.860   8.799 -1.7984 -0.5259 -1.3534
60323SOL     OW89936  10.049  10.456   4.505  0.0945 -0.4668 -0.2007
60323SOL    HW189937  10.101  10.468   4.585 -1.0038  0.5888  0.3913
60323SOL    HW289938   9.980  10.396   4.530 -1.0913  0.9567  0.1001
60324SOL     OW89939   3.463   2.860  11.805 -0.4549  0.5416 -0.0873
60324SOL    HW189940   3.373   2.828  11.810 -0.5907  0.7322 -1.0648
60324SOL    HW289941   3.510   2.809  11.871 -0.5096 -2.2085 -1.9971
60325SOL     OW89942   2.374   8.778   9.831 -0.1148 -0.1516 -0.1500
60325SOL    HW189943   2.426   8.857   9.820 -0.4670 -0.0148 -0.9180
60325SOL    HW289944   2.324   8.771   9.749 -0.9168 -0.5562  0.3637
60326SOL     OW89945  11.682   1.452   4.799  0.2865  0.1338  0.1311
60326SOL    HW189946  11.750   1.385   4.798  0.0945 -0.0505 -0.6627
60326SOL    HW289947  11.642   1.444   4.885  1.7924  0.7839  0.9546
60327SOL     OW89948   7.464   1.139   4.860 -0.0933  0.2392  0.3335
60327SOL    HW189949   7.404   1.210   4.835  1.8808  1.3269 -1.7501
60327SOL    HW289950   7.492   1.162   4.949 -1.9952  0.2247  0.9620
60328SOL     OW89951  11.343   3.402   5.955 -1.0707  0.1201 -0.1537
60328SOL    HW189952  11.391   3.335   6.005 -1.3747 -0.5377 -0.7236
60328SOL    HW289953  11.338   3.366   5.866 -1.1841  0.9380 -0.4856
60329SOL     OW89954   5.395   2.030   6.511 -0.2206 -0.0900 -0.0642
60329SOL    HW189955   5.448   2.088   6.567  1.5416 -0.9904 -0.7316
60329SOL    HW289956   5.377   1.954   6.566  0.8523 -0.6299 -0.4267
60330SOL     OW89957  11.268  10.850   5.607 -0.2830 -0.1609 -0.1070
60330SOL    HW189958  11.184  10.805   5.598 -1.1649  1.4301 -0.0706
60330SOL    HW289959  11.289  10.879   5.518  0.8524 -1.5498 -0.3420
60331SOL     OW89960   5.751  12.313   1.857 -0.4688 -0.5454  0.6343
60331SOL    HW189961   5.818  12.275   1.914  1.2621 -0.7103 -1.3878
60331SOL    HW289962   5.742  12.250   1.785  0.1708  1.3302 -1.1758
60332SOL     OW89963   4.616   1.405   7.315  0.0814  0.2543  0.4789
60332SOL    HW189964   4.581   1.322   7.349 -2.7898  1.1907  0.0835
60332SOL    HW289965   4.702   1.414   7.358 -0.7310 -1.5624  2.7185
60333SOL     OW89966   0.674   7.673   8.727 -0.8412 -0.1525 -0.0151
60333SOL    HW189967   0.618   7.627   8.789 -1.0499  0.4357  0.2333
60333SOL    HW289968   0.666   7.766   8.750 -3.0574  0.4090 -2.6180
60334SOL     OW89969   9.122  11.052   0.596  0.0442 -0.1909 -0.0499
60334SOL    HW189970   9.063  11.006   0.655 -0.2057 -0.6390 -0.6430
60334SOL    HW289971   9.107  11.012   0.510  0.5579  0.3031 -0.3791
60335SOL     OW89972  10.048   3.067   2.954 -0.4675  0.2437  0.1505
60335SOL    HW189973  10.076   3.071   2.862 -1.7325 -0.4583 -0.2937
60335SOL    HW289974  10.118   3.110   3.002 -0.8813  2.8798 -1.3859
60336SOL     OW89975  11.774   0.184   4.638  0.3007  0.1421 -0.0433
60336SOL    HW189976  11.778   0.195   4.543  0.9151  2.7060  0.2092
60336SOL    HW289977  11.853   0.136   4.660 -1.0266 -2.6901 -0.9924
60337SOL     OW89978   7.487   9.128   1.026 -0.0473 -0.2316  0.4835
60337SOL    HW189979   7.463   9.088   0.943  1.2990  0.4691 -0.2709
60337SOL    HW289980   7.545   9.200   1.002  0.5891 -0.1877  2.0519
60338SOL     OW89981   4.574   6.773   3.995  0.5304  0.1959 -0.2486
60338SOL    HW189982   4.584   6.759   4.089  0.3409 -1.5730 -0.4517
60338SOL    HW289983   4.657   6.744   3.958  1.0447  1.9538 -0.5807
60339SOL     OW89984   6.026   4.880   7.226 -0.1121  0.0056 -0.3874
60339SOL    HW189985   6.111   4.908   7.194  1.0903 -1.6061  1.1983
60339SOL    HW289986   5.991   4.957   7.272  0.6180  0.5743 -0.7693
60340SOL     OW89987   5.380   1.130   9.696  0.7447  0.5603  0.3689
60340SOL    HW189988   5.388   1.038   9.720  0.8374  0.8463  1.5174
60340SOL    HW289989   5.389   1.177   9.779  1.6900  1.6561 -0.3178
60341SOL     OW89990   8.268   9.609   2.016 -0.5221 -0.4003 -0.1394
60341SOL    HW189991   8.253   9.532   1.961 -0.2879  0.5314 -1.5745
60341SOL    HW289992   8.193   9.666   1.999 -0.2151  0.1031  0.1455
60342SOL     OW89993   7.823   3.240   1.235  0.2139  0.1152  0.0328
60342SOL    HW189994   7.823   3.158   1.186  1.7163 -1.4383  2.4162
60342SOL    HW289995   7.761   3.225   1.307  0.2726  1.1827  0.3254
60343SOL     OW89996  12.066   3.303  10.464  0.0891  0.1783 -0.2703
60343SOL    HW189997  12.079   3.294  10.559 -0.0798 -1.4385 -0.3757
60343SOL    HW289998  12.074   3.397  10.448  0.1888  0.4791  1.3373
60344SOL     OW89999   6.826  11.019  10.691 -0.5001  0.1074  1.0891
60344SOL    HW190000   6.842  10.937  10.644  0.2828 -0.6831  2.6811
60344SOL    HW290001   6.733  11.017  10.712 -0.9356  0.6059 -0.5987
60345SOL     OW90002   2.734   4.184  11.213 -0.3104  0.2507  0.8610
60345SOL    HW190003   2.676   4.260  11.223 -1.1049  0.2165 -2.4632
60345SOL    HW290004   2.703   4.122  11.280 -3.1242  0.8587  0.2705
60346SOL     OW90005   7.893   7.978   2.935  0.0435 -0.0478  0.5382
60346SOL    HW190006   7.965   8.041   2.937  0.1036 -0.1381  1.1322
60346SOL    HW290007   7.868   7.974   2.842  0.7522  0.0378  0.3398
60347SOL     OW90008  11.718   2.307   0.813  0.1188  0.4914  0.1365
60347SOL    HW190009  11.811   2.294   0.794 -0.3034 -2.3511 -0.3060
60347SOL    HW290010  11.680   2.332   0.728  0.1863 -0.1354 -0.0791
60348SOL     OW90011   9.052   1.885   4.291  0.2793 -0.0336  0.0374
60348SOL    HW190012   8.968   1.840   4.298  0.5887 -0.3653  2.4315
60348SOL    HW290013   9.052   1.949   4.362  1.5036  0.9251 -0.7775
60349SOL     OW90014   1.777   1.884   8.944  0.6019 -0.1611  0.5296
60349SOL    HW190015   1.716   1.915   9.011 -0.3489 -0.6326 -0.0933
60349SOL    HW290016   1.862   1.920   8.970 -0.0081  0.8361  1.2021
60350SOL     OW90017  10.023   0.929  10.016  0.1865  0.6406  0.0562
60350SOL    HW190018  10.108   0.920   9.973 -0.0673  1.7476 -0.7077
60350SOL    HW290019  10.039   0.986  10.091  0.2091  0.4279  0.2161
60351SOL     OW90020  11.515   0.346   2.224 -0.8813 -0.6560  0.0444
60351SOL    HW190021  11.453   0.274   2.214 -2.1062  0.3691 -0.1175
60351SOL    HW290022  11.461   0.420   2.251  0.5763 -0.2059  1.9317
60352SOL     OW90023   6.111   8.209  11.133 -0.3503 -0.0507 -0.0675
60352SOL    HW190024   6.181   8.248  11.185 -0.5759 -0.1113  0.2819
60352SOL    HW290025   6.110   8.117  11.159 -0.6210 -0.0304 -0.0068
60353SOL     OW90026   1.559   3.983  11.314 -0.3156  0.5658 -0.4708
60353SOL    HW190027   1.585   3.904  11.361 -0.8208  1.2695  1.0625
60353SOL    HW290028   1.631   4.044  11.326 -0.2536  0.6097 -1.0129
60354SOL     OW90029   5.975   7.002   0.384  0.1987 -0.2707 -0.3507
60354SOL    HW190030   5.999   6.922   0.432 -0.0449 -1.0481 -1.4752
60354SOL    HW290031   6.025   7.072   0.426 -0.3811 -0.8297  1.3388
60355SOL     OW90032  11.666   1.011   9.283 -0.4464 -0.8343  0.4481
60355SOL    HW190033  11.594   0.988   9.342 -0.9077 -1.5919 -0.3901
60355SOL    HW290034  11.706   0.928   9.260 -2.0379 -0.9045 -2.4980
60356SOL     OW90035  12.538   1.138   3.075  0.6305 -0.1212 -0.2304
60356SOL    HW190036  12.548   1.178   3.161  0.5326  0.3866 -0.4550
60356SOL    HW290037  12.480   1.197   3.027  2.2389  0.6227 -1.3203
60357SOL     OW90038  11.408   1.653   2.228  0.4684  0.1689 -0.4340
60357SOL    HW190039  11.480   1.715   2.233  1.0708 -0.5903  1.8473
60357SOL    HW290040  11.329   1.706   2.236  0.9666  0.7094  1.3676
60358SOL     OW90041   8.726   9.151   6.470  0.0723  0.3394  0.2574
60358SOL    HW190042   8.770   9.209   6.533 -0.8103  0.5658  0.6788
60358SOL    HW290043   8.744   9.192   6.385  2.7189 -0.8878  0.1278
60359SOL     OW90044   9.598   5.416   2.274 -0.2162 -0.5577  0.0047
60359SOL    HW190045   9.610   5.322   2.285  0.1493 -0.3468  1.5711
60359SOL    HW290046   9.504   5.427   2.262 -0.6428 -0.9185  2.5257
60360SOL     OW90047   1.354   3.923   4.089  0.1960 -0.1732 -0.1761
60360SOL    HW190048   1.280   3.885   4.042  0.5518 -0.4777 -0.5051
60360SOL    HW290049   1.362   4.012   4.055  0.4849 -0.4107 -0.7364
60361SOL     OW90050   4.618   8.998  10.733 -0.0821 -0.5031 -0.0652
60361SOL    HW190051   4.603   8.989  10.827 -0.7378  1.1240  0.0090
60361SOL    HW290052   4.539   9.038  10.700  0.5680 -0.0822 -1.1459
60362SOL     OW90053   2.599   3.785   3.422 -0.7321  0.1145 -0.4753
60362SOL    HW190054   2.574   3.876   3.410 -1.3783 -0.1816 -1.5393
60362SOL    HW290055   2.517   3.736   3.412 -0.9262 -0.4566  2.7164
60363SOL     OW90056  11.784  11.379   3.459  0.4418  0.3183 -0.1722
60363SOL    HW190057  11.745  11.330   3.532  1.8070  0.5741  0.7736
60363SOL    HW290058  11.711  11.427   3.421 -0.3996 -0.2085  0.7144
60364SOL     OW90059   0.706  10.884   2.738 -0.0058  0.2586  0.1748
60364SOL    HW190060   0.619  10.872   2.701 -0.3017  0.6969  0.7241
60364SOL    HW290061   0.763  10.892   2.661 -0.3661 -0.5720 -0.1828
60365SOL     OW90062   6.664   7.016   5.735 -0.6268 -0.1829  0.0757
60365SOL    HW190063   6.704   6.937   5.698  1.0881  1.9511 -3.1541
60365SOL    HW290064   6.571   7.008   5.714 -0.3403 -0.9843 -0.9656
60366SOL     OW90065   2.918  10.922   5.003  0.2000  0.0972  0.3330
60366SOL    HW190066   2.890  10.939   5.093 -0.0534 -1.6672  0.6273
60366SOL    HW290067   2.844  10.948   4.949 -0.6984 -1.2395  0.8587
60367SOL     OW90068  12.549   9.581   6.575  0.2413  0.0864  0.4893
60367SOL    HW190069  12.489   9.547   6.508  1.8209  0.7710 -1.3938
60367SOL    HW290070  12.522   9.538   6.656 -2.4820  0.0524 -0.3349
60368SOL     OW90071  12.535   4.360   3.353  0.6126  0.3321 -0.3417
60368SOL    HW190072  12.509   4.354   3.445  1.4366  0.1752 -0.1035
60368SOL    HW290073  12.508   4.277   3.314 -0.2457  0.6274 -0.3793
60369SOL     OW90074   7.517   6.693  11.860  0.4477  0.0119 -0.1136
60369SOL    HW190075   7.518   6.740  11.943  1.3140  0.9949 -0.6498
60369SOL    HW290076   7.438   6.640  11.863  0.7442 -0.3741  1.5511
60370SOL     OW90077   3.365   4.219   3.567 -0.0696 -0.3930  0.3381
60370SOL    HW190078   3.336   4.256   3.650  0.6994  0.4028  0.2711
60370SOL    HW290079   3.285   4.184   3.527 -0.3304 -1.5987  1.7805
60371SOL     OW90080   8.149   9.167   5.296 -0.8793  0.2092  0.0530
60371SOL    HW190081   8.101   9.241   5.260 -1.7234  1.1203  2.7645
60371SOL    HW290082   8.164   9.191   5.388 -0.0434 -2.4357  0.6927
60372SOL     OW90083   2.473   8.354  10.924  0.3994  0.9740  0.0097
60372SOL    HW190084   2.491   8.268  10.961  0.7062  0.8048 -0.5310
60372SOL    HW290085   2.380   8.368  10.939 -0.1345 -0.3655 -1.7650
60373SOL     OW90086   0.828  11.419   8.017  0.6127  0.5894 -0.0166
60373SOL    HW190087   0.812  11.325   8.013 -1.8022  0.9877 -2.3965
60373SOL    HW290088   0.744  11.457   8.043  1.2022  2.1512 -0.2475
60374SOL     OW90089   7.263   6.043   9.881  0.3052 -0.0305 -0.2912
60374SOL    HW190090   7.357   6.059   9.882  0.3889 -0.4873  0.5973
60374SOL    HW290091   7.236   6.053   9.972 -1.2469  4.0520 -0.9660
60375SOL     OW90092   8.835   3.990   7.129  0.1319  0.5967  1.0260
60375SOL    HW190093   8.786   4.012   7.050  0.8266  1.6735  0.8771
60375SOL    HW290094   8.842   4.072   7.177 -0.7773 -0.1376  2.5208
60376SOL     OW90095   0.291   8.884  10.742  0.2144 -0.1406  0.3635
60376SOL    HW190096   0.233   8.830  10.795 -0.1283 -0.4964 -0.3633
60376SOL    HW290097   0.233   8.940  10.692  0.4347 -1.1069 -1.0231
60377SOL     OW90098   2.672   5.921   7.356 -0.0510  0.4445  0.3638
60377SOL    HW190099   2.761   5.953   7.337 -0.4494  1.5668  0.3107
60377SOL    HW290100   2.669   5.834   7.316  0.4049  1.1742 -1.3460
60378SOL     OW90101  12.458   9.684   3.513  0.2642 -0.0693 -0.0138
60378SOL    HW190102  12.429   9.747   3.579  2.3491  2.7386 -1.5820
60378SOL    HW290103  12.391   9.690   3.445  0.8332  1.0945 -0.4964
60379SOL     OW90104  10.432   4.997  12.328 -0.0227 -0.1782 -0.2968
60379SOL    HW190105  10.419   4.907  12.358 -1.3104  0.0336 -0.1864
60379SOL    HW290106  10.378   5.004  12.250 -1.8900  1.1655  1.0111
60380SOL     OW90107   2.253   9.842   0.268 -0.0829 -0.0912 -0.1907
60380SOL    HW190108   2.313   9.815   0.198  0.3678 -0.4872  0.3423
60380SOL    HW290109   2.198   9.765   0.283  0.0061 -0.1021  0.0824
60381SOL     OW90110   0.645   3.237   1.376  0.1803 -0.2540 -0.0262
60381SOL    HW190111   0.688   3.221   1.461  0.0210 -0.1920  0.0654
60381SOL    HW290112   0.701   3.191   1.313 -0.4022 -1.3999  0.2572
60382SOL     OW90113   9.620   1.467   9.986 -0.6212  0.3357 -0.0740
60382SOL    HW190114   9.712   1.493   9.986 -0.2411 -0.9492 -0.5669
60382SOL    HW290115   9.573   1.547   9.963  0.1061  1.7597  2.8972
60383SOL     OW90116  10.791   7.244   9.007 -0.2495 -0.1157 -0.3153
60383SOL    HW190117  10.839   7.161   8.996 -0.7078 -0.7442  1.8190
60383SOL    HW290118  10.858   7.311   8.998  0.8571 -0.9196  1.3278
60384SOL     OW90119   6.329   5.533   2.219  0.0310 -0.4264  0.2092
60384SOL    HW190120   6.270   5.497   2.152  1.5297  0.3538 -1.6307
60384SOL    HW290121   6.391   5.587   2.169  0.1862  1.5902  2.4474
60385SOL     OW90122   4.187   3.502   8.179  0.2393  0.1288 -0.3937
60385SOL    HW190123   4.273   3.543   8.172 -0.5505  2.3045  1.5375
60385SOL    HW290124   4.125   3.572   8.160 -1.1481 -1.1305 -0.7034
60386SOL     OW90125   0.648   0.150   8.772 -0.2031  0.3772  0.5551
60386SOL    HW190126   0.652   0.170   8.866  0.3373  1.3936  0.3281
60386SOL    HW290127   0.623   0.233   8.731 -0.3612 -0.0449 -0.2090
60387SOL     OW90128   4.921   3.398   6.562  0.1561  0.0950  0.6063
60387SOL    HW190129   4.918   3.462   6.491 -0.1918 -0.1253  0.4202
60387SOL    HW290130   4.836   3.355   6.560  0.4332 -0.4662  0.6449
60388SOL     OW90131   4.061   4.983   5.524 -0.0817  0.0484  0.8048
60388SOL    HW190132   4.021   4.978   5.437  1.1486  1.0851  0.1432
60388SOL    HW290133   4.153   4.963   5.509  0.3071  1.0459  1.7331
60389SOL     OW90134   7.211   5.978   7.430  0.8104  0.0682  0.2564
60389SOL    HW190135   7.168   5.945   7.352 -0.0950  2.9346 -0.5877
60389SOL    HW290136   7.143   5.979   7.497  0.9057 -0.0193  0.3553
60390SOL     OW90137   6.629   7.017   2.647  0.1692 -0.2067  0.2867
60390SOL    HW190138   6.701   7.006   2.585  0.2911  1.2786  0.1205
60390SOL    HW290139   6.641   7.105   2.682 -0.8500 -0.4082  1.1980
60391SOL     OW90140   7.693   3.459   0.974 -0.0392  0.1789 -0.0482
60391SOL    HW190141   7.755   3.487   1.041 -1.6021  0.7494  1.2331
60391SOL    HW290142   7.724   3.374   0.945  1.3007  0.4411  0.5661
60392SOL     OW90143   4.889   5.456   8.023 -0.0650  0.0739 -0.3974
60392SOL    HW190144   4.877   5.476   8.116 -1.0018  2.2800 -0.9288
60392SOL    HW290145   4.803   5.426   7.993  0.2531 -0.7104 -0.5538
60393SOL     OW90146   3.412  11.312  12.126  0.0705 -0.2453  0.0531
60393SOL    HW190147   3.352  11.374  12.086  0.2012  0.0349  0.2910
60393SOL    HW290148   3.368  11.227  12.117  0.6786 -0.4100 -1.8571
60394SOL     OW90149   1.761   7.053   4.737 -0.0868  0.5088 -0.0796
60394SOL    HW190150   1.700   6.992   4.696  0.3609 -0.3629  0.4989
60394SOL    HW290151   1.714   7.136   4.742 -0.5234  0.3537 -1.3529
60395SOL     OW90152   2.319   1.570  11.448  0.0416 -0.0756  0.1205
60395SOL    HW190153   2.392   1.589  11.390  0.2977 -0.4167  0.3290
60395SOL    HW290154   2.270   1.652  11.454  0.9701  0.4497  0.7916
60396SOL     OW90155   8.385   9.502   5.206 -0.1186 -0.0873 -0.3806
60396SOL    HW190156   8.471   9.488   5.167 -0.6462 -0.9348 -1.2829
60396SOL    HW290157   8.398   9.489   5.299  0.7280 -0.2084 -0.5110
60397SOL     OW90158   2.145  10.182   9.339  0.3100  0.3634 -0.2527
60397SOL    HW190159   2.086  10.180   9.264 -1.3624  1.5072  0.9480
60397SOL    HW290160   2.141  10.094   9.376 -1.6581  0.7160  0.4987
60398SOL     OW90161   8.356   5.289   5.003 -0.1650 -0.1996  0.3354
60398SOL    HW190162   8.409   5.212   4.985 -0.5276 -0.0347 -1.6487
60398SOL    HW290163   8.409   5.363   4.973 -0.7127  0.1174  0.1229
60399SOL     OW90164   9.138  10.771   6.782 -0.5284  0.6357 -0.3325
60399SOL    HW190165   9.094  10.758   6.698 -0.9579  0.4236 -0.0809
60399SOL    HW290166   9.067  10.771   6.846 -0.3276  2.0909 -0.0905
60400SOL     OW90167   8.776   8.242   6.958  0.3228 -0.0011  0.0035
60400SOL    HW190168   8.699   8.186   6.950  2.2365 -2.5423 -2.7441
60400SOL    HW290169   8.786   8.281   6.871  1.0582  1.9419  0.8916
60401SOL     OW90170   6.253   2.660   9.762  0.0891 -0.1637 -0.2585
60401SOL    HW190171   6.197   2.738   9.765 -0.1514 -0.3267 -0.4715
60401SOL    HW290172   6.275   2.650   9.670  0.0106 -0.4236 -0.2498
60402SOL     OW90173   7.902   7.249   3.112  0.0109  0.0896 -0.0995
60402SOL    HW190174   7.851   7.311   3.060  1.9325  1.7324 -0.1150
60402SOL    HW290175   7.906   7.170   3.057 -1.5002  0.3150 -0.5842
60403SOL     OW90176   7.543  10.125   0.071 -0.1378  0.4419  0.0433
60403SOL    HW190177   7.610  10.063   0.042 -1.0244  0.0220 -1.1762
60403SOL    HW290178   7.505  10.085   0.149 -0.3501 -0.3155 -0.4418
60404SOL     OW90179   8.811   7.113   1.025 -0.2723 -0.7005  0.1818
60404SOL    HW190180   8.851   7.123   1.112 -1.5619  1.1216  0.6431
60404SOL    HW290181   8.739   7.052   1.040 -0.0214 -0.9922  0.2137
60405SOL     OW90182   9.369   8.720   2.962  0.3136  0.6258 -0.1412
60405SOL    HW190183   9.397   8.812   2.955 -1.2350  1.1807  0.4406
60405SOL    HW290184   9.297   8.713   2.899 -1.2771  0.5568  1.5732
60406SOL     OW90185   5.666  12.198   5.238 -0.7310  0.1120 -0.4836
60406SOL    HW190186   5.761  12.191   5.242 -0.8041 -1.8496 -1.0962
60406SOL    HW290187   5.647  12.216   5.146 -0.9472  0.7631 -0.3143
60407SOL     OW90188   2.854   0.511   3.546 -0.4333 -0.2949  0.1511
60407SOL    HW190189   2.865   0.496   3.640 -1.5964 -0.5828  0.2528
60407SOL    HW290190   2.817   0.599   3.540 -2.5983 -1.1433  0.1408
60408SOL     OW90191   1.654   6.309   3.955 -0.0416  0.3703  0.0281
60408SOL    HW190192   1.565   6.276   3.950  0.7945 -1.8121 -1.7477
60408SOL    HW290193   1.649   6.398   3.920 -1.4103  0.0697 -0.5779
60409SOL     OW90194  10.206   4.880   1.810 -0.4561  0.1344  0.5527
60409SOL    HW190195  10.204   4.795   1.767  0.3080  1.0025 -1.2844
60409SOL    HW290196  10.114   4.908   1.811 -0.7316 -0.7282  1.2902
60410SOL     OW90197   2.594   6.099   8.609  0.0053 -0.5693 -0.1126
60410SOL    HW190198   2.543   6.141   8.540 -1.7667 -1.8774  0.3552
60410SOL    HW290199   2.651   6.038   8.563  0.9595  0.6385 -0.6055
60411SOL     OW90200   2.061   1.860   0.116 -0.0766  0.6019  0.0119
60411SOL    HW190201   2.123   1.845   0.187  1.0089 -2.0142 -1.3475
60411SOL    HW290202   1.982   1.814   0.143 -0.0742  0.6350  0.0739
60412SOL     OW90203   5.160  12.182   8.363 -0.0944 -0.0015 -0.8943
60412SOL    HW190204   5.179  12.239   8.438 -0.3283 -1.0361 -0.0316
60412SOL    HW290205   5.144  12.096   8.401 -1.4700 -0.2885 -2.0253
60413SOL     OW90206   9.848   7.816   1.761  0.5499  0.6076 -0.1544
60413SOL    HW190207   9.834   7.756   1.835 -1.7205  0.4282 -0.6611
60413SOL    HW290208   9.930   7.861   1.782 -0.0004  0.5415  2.4863
60414SOL     OW90209   4.894  10.919   9.287 -0.3838  0.4275 -0.0063
60414SOL    HW190210   4.987  10.936   9.270 -0.8237  1.8410 -1.2498
60414SOL    HW290211   4.893  10.835   9.333  1.4104 -0.5237 -1.5473
60415SOL     OW90212   6.937  12.527   8.372  0.3775 -0.7578  0.0746
60415SOL    HW190213   7.025  12.501   8.398  0.1468 -1.9266 -0.2616
60415SOL    HW290214   6.931  12.619   8.398  0.7650 -1.3450  2.5459
60416SOL     OW90215   3.577   8.293   3.904  0.3201  0.8480  0.0301
60416SOL    HW190216   3.501   8.348   3.924 -0.4514 -0.1773 -0.0094
60416SOL    HW290217   3.605   8.259   3.989  0.4651  0.8789 -0.0049
60417SOL     OW90218   5.058   1.296  11.954  0.4575  0.1247  0.3287
60417SOL    HW190219   4.983   1.347  11.984  1.4663  0.9748  1.4967
60417SOL    HW290220   5.019   1.223  11.906 -1.1232  0.4550  1.0265
60418SOL     OW90221   9.117  10.548   2.992 -0.3922 -0.2211 -0.3016
60418SOL    HW190222   9.196  10.530   3.043  0.0264  0.4214 -0.7162
60418SOL    HW290223   9.094  10.463   2.954  0.8346 -0.1811 -1.2069
60419SOL     OW90224   9.829   5.760   0.040  0.0808  0.0838  0.2317
60419SOL    HW190225   9.854   5.707  -0.035  0.3516  0.8753 -0.2449
60419SOL    HW290226   9.850   5.850   0.014 -0.2813  0.4156  1.0616
60420SOL     OW90227   5.004   9.845  12.121  0.9149  0.3054 -0.0021
60420SOL    HW190228   4.985   9.753  12.138  0.7761  0.3059 -0.1469
60420SOL    HW290229   5.066   9.843  12.048 -0.0965  0.3568 -0.8962
60421SOL     OW90230   6.189   0.466   2.786 -0.2767 -0.1645 -0.1759
60421SOL    HW190231   6.199   0.550   2.832  0.9509 -0.3218 -0.1296
60421SOL    HW290232   6.262   0.413   2.817  0.0466 -0.5987 -1.6058
60422SOL     OW90233  10.569   7.371   3.451  0.2593 -0.5798 -0.4253
60422SOL    HW190234  10.602   7.461   3.449 -3.1931  0.8366 -1.7575
60422SOL    HW290235  10.587   7.342   3.541  1.0946  1.5826  0.1895
60423SOL     OW90236   4.532   2.114  12.226 -0.1890  0.1192  0.1558
60423SOL    HW190237   4.552   2.086  12.316 -1.1069 -0.3160  0.2394
60423SOL    HW290238   4.510   2.033  12.180  0.9265  0.2555 -0.6590
60424SOL     OW90239  12.225   7.148   9.106  0.6631 -0.2233 -0.2537
60424SOL    HW190240  12.229   7.227   9.160  2.2962 -0.6839  0.3568
60424SOL    HW290241  12.300   7.155   9.047 -0.8081  0.0332 -2.1922
60425SOL     OW90242  11.195   3.500   1.427  0.6961  0.3353  0.4823
60425SOL    HW190243  11.113   3.524   1.470 -0.6023  0.7106 -2.0282
60425SOL    HW290244  11.262   3.545   1.479 -1.0101  3.2038  0.4633
60426SOL     OW90245   8.046   0.853   6.812 -0.1491  0.6922  0.4956
60426SOL    HW190246   8.039   0.781   6.750  0.8239  1.5252 -0.6262
60426SOL    HW290247   8.037   0.811   6.898 -1.1038 -0.5371 -0.1715
60427SOL     OW90248  12.200   2.084  12.409 -0.2606  0.3966  0.2793
60427SOL    HW190249  12.293   2.066  12.402  0.1823  2.4393  0.3612
60427SOL    HW290250  12.194   2.165  12.460 -2.1752 -0.5744  1.7584
60428SOL     OW90251   6.363   1.581   1.143 -0.0488  0.1633 -0.3394
60428SOL    HW190252   6.310   1.558   1.219 -0.3298  0.8415 -0.3223
60428SOL    HW290253   6.306   1.636   1.090  0.0436 -0.5498 -1.1924
60429SOL     OW90254   3.467  11.283   1.982 -0.3891  0.2451 -0.8055
60429SOL    HW190255   3.416  11.263   1.903  0.6167 -0.0374 -1.3985
60429SOL    HW290256   3.545  11.228   1.975 -1.2156 -1.3819  1.4433
60430SOL     OW90257   6.694   6.052   8.623  0.5823 -0.0199 -0.6286
60430SOL    HW190258   6.787   6.027   8.621  0.9513  1.0998  0.6740
60430SOL    HW290259   6.650   5.976   8.661  1.1002 -0.2099 -0.3853
60431SOL     OW90260   8.522   3.112   4.308  0.8104 -0.6499 -0.1897
60431SOL    HW190261   8.463   3.183   4.334  1.1130 -0.1660 -0.7909
60431SOL    HW290262   8.484   3.034   4.347 -0.6705 -0.4661 -1.1834
60432SOL     OW90263   7.876   7.044   6.663  0.8511 -0.3159  0.3029
60432SOL    HW190264   7.922   7.045   6.578  1.1625 -0.3671  0.4682
60432SOL    HW290265   7.891   6.956   6.697  0.6496 -0.3236  0.3717
60433SOL     OW90266   3.891   9.722  11.530  0.1811  0.4622 -0.1207
60433SOL    HW190267   3.863   9.656  11.593 -0.4876  1.0264  0.1931
60433SOL    HW290268   3.809   9.751  11.489  0.6833 -0.5278 -1.8953
60434SOL     OW90269  12.064   4.031  11.240 -0.3495 -0.2061 -0.0516
60434SOL    HW190270  12.086   3.939  11.256  0.9968  0.1355  0.1892
60434SOL    HW290271  12.149   4.075  11.233 -0.9735  1.0083 -0.2610
60435SOL     OW90272   6.944   1.695  12.090  0.6178 -0.0535 -0.3978
60435SOL    HW190273   6.933   1.600  12.102  0.6357 -0.0244 -0.1470
60435SOL    HW290274   6.907   1.734  12.169  1.8802  0.0779  0.1624
60436SOL     OW90275  11.365  10.709   6.257 -0.0093  0.2934  0.2792
60436SOL    HW190276  11.404  10.622   6.266 -0.1179  0.3345  1.2204
60436SOL    HW290277  11.431  10.769   6.292 -0.0584  0.5721 -0.0888
60437SOL     OW90278   3.182   1.387   9.677  0.1022  0.1324 -0.3522
60437SOL    HW190279   3.091   1.414   9.662  0.3458  1.7107  0.7507
60437SOL    HW290280   3.175   1.316   9.740 -0.3256  1.2557  0.9103
60438SOL     OW90281   2.016  10.714   9.584  0.1468 -0.4079 -0.4039
60438SOL    HW190282   2.023  10.638   9.525  2.9588  0.3423 -1.1693
60438SOL    HW290283   2.021  10.789   9.525  0.1220  0.3794  0.5882
60439SOL     OW90284   3.189   4.181   2.112 -0.3485 -0.3582 -0.4364
60439SOL    HW190285   3.283   4.164   2.125 -0.2647  0.1947 -0.2943
60439SOL    HW290286   3.154   4.098   2.080  0.4638 -0.1702 -1.9342
60440SOL     OW90287   1.623   2.365   6.316  0.2270 -0.5522 -0.5546
60440SOL    HW190288   1.546   2.404   6.274  0.4794  0.4936 -0.0774
60440SOL    HW290289   1.592   2.280   6.348 -1.3587  0.6575  1.4365
60441SOL     OW90290   6.837   3.738   2.936  0.2029 -0.5352  0.4469
60441SOL    HW190291   6.806   3.648   2.936  1.1103 -0.8558  0.4642
60441SOL    HW290292   6.904   3.741   2.868  0.1735  0.1254  0.4393
60442SOL     OW90293   5.592  12.470   7.390 -0.1273 -0.0915 -0.5324
60442SOL    HW190294   5.546  12.425   7.461 -0.9216  0.3138 -0.7758
60442SOL    HW290295   5.589  12.408   7.317  2.0214 -1.1480  0.1838
60443SOL     OW90296   9.786   2.312   6.313 -0.1981  0.7982  0.2743
60443SOL    HW190297   9.828   2.398   6.319 -1.1108  1.4382 -1.8033
60443SOL    HW290298   9.699   2.326   6.350 -0.1879  0.6306  0.3605
60444SOL     OW90299  10.638   4.388   1.300 -0.2277 -0.1423  0.4099
60444SOL    HW190300  10.611   4.478   1.283 -2.4536 -0.8843 -0.3352
60444SOL    HW290301  10.626   4.377   1.394 -2.2030 -0.2943  0.1768
60445SOL     OW90302  10.896   7.252  12.371 -0.4104 -0.1733 -0.3149
60445SOL    HW190303  10.892   7.158  12.386 -1.4868  0.0601  1.0208
60445SOL    HW290304  10.984   7.277  12.401 -0.8285 -0.4628  1.2153
60446SOL     OW90305   5.847   9.495   0.567 -0.4091  0.3523  0.0682
60446SOL    HW190306   5.856   9.589   0.583 -2.2857  0.4981  0.5759
60446SOL    HW290307   5.933   9.466   0.539  1.0596  1.6435  2.8512
60447SOL     OW90308   7.016   0.896   6.119 -1.0084  0.1369 -0.3249
60447SOL    HW190309   7.085   0.835   6.093  0.5186  1.5298  0.3014
60447SOL    HW290310   6.941   0.871   6.065  0.0637 -1.2120 -1.2744
60448SOL     OW90311   1.971   9.119   1.413  0.0873 -0.0537  0.5477
60448SOL    HW190312   1.910   9.113   1.486  0.6816  1.7477  1.2432
60448SOL    HW290313   1.967   9.033   1.371 -3.0279  0.0273  0.4484
60449SOL     OW90314   7.206   0.651   8.842  0.0631  0.1263 -0.1729
60449SOL    HW190315   7.203   0.588   8.914 -0.0026  0.4392  0.1030
60449SOL    HW290316   7.299   0.663   8.825  0.0662 -0.4611 -0.5995
60450SOL     OW90317   2.067  12.412  10.603 -0.3930  0.7711  0.6328
60450SOL    HW190318   2.161  12.401  10.615 -0.5442  0.1787  1.3628
60450SOL    HW290319   2.030  12.389  10.688 -1.3867 -1.4618 -0.3199
60451SOL     OW90320   5.302   2.859   9.606  0.2915 -0.6807  0.4941
60451SOL    HW190321   5.248   2.781   9.599  0.1498 -0.4840 -0.8401
60451SOL    HW290322   5.311   2.873   9.700  0.3860 -2.3345  0.7623
60452SOL     OW90323   1.789  11.979  10.379 -0.7290  0.2191 -0.1094
60452SOL    HW190324   1.835  12.038  10.439  0.3049 -0.3972 -0.2806
60452SOL    HW290325   1.815  12.009  10.292 -3.7056  2.3350 -0.4047
60453SOL     OW90326   1.402   2.276   1.888  0.2403  0.0561 -0.0529
60453SOL    HW190327   1.309   2.264   1.907  0.2834 -0.3897 -0.1016
60453SOL    HW290328   1.445   2.204   1.934  0.5762  0.3327  0.0739
60454SOL     OW90329   2.890   3.104   9.871  0.7193  0.4309  0.2094
60454SOL    HW190330   2.824   3.108   9.802  0.6273  0.3369  0.2932
60454SOL    HW290331   2.842   3.078   9.950  0.6009  1.7205  0.5837
60455SOL     OW90332   6.886   0.131   9.728 -0.3020 -0.8716 -0.0305
60455SOL    HW190333   6.792   0.122   9.709 -0.4101 -1.2041  0.6120
60455SOL    HW290334   6.895   0.098   9.817  0.2953 -0.0178  0.2299
60456SOL     OW90335   8.015   0.858   2.979  0.7697 -0.0763  0.3848
60456SOL    HW190336   8.053   0.791   3.036 -0.6375  0.4772  2.0596
60456SOL    HW290337   7.932   0.821   2.950 -0.1125  0.9489  1.4816
60457SOL     OW90338  11.250   7.421   4.660  0.4460 -0.0257  0.3586
60457SOL    HW190339  11.245   7.326   4.659  0.6029 -0.1105 -3.1202
60457SOL    HW290340  11.344   7.440   4.661  0.4763 -0.0066 -0.9660
60458SOL     OW90341   8.933  12.461  11.125  0.1168  0.0700  0.3211
60458SOL    HW190342   8.963  12.520  11.194  1.3426  0.0549 -0.1738
60458SOL    HW290343   8.878  12.516  11.068 -0.8468  0.0959  1.2459
60459SOL     OW90344   4.549  10.914   1.918  0.4622 -0.1774  0.3242
60459SOL    HW190345   4.516  10.824   1.909  1.1854 -0.6176  1.7582
60459SOL    HW290346   4.642  10.903   1.938  0.1615  0.7644  2.5605
60460SOL     OW90347   4.864   1.588   2.436 -0.3373 -0.2579  0.7937
60460SOL    HW190348   4.873   1.504   2.390  3.0131 -0.1351  1.0133
60460SOL    HW290349   4.922   1.580   2.512 -1.1827  1.7095  1.7149
60461SOL     OW90350   2.448   2.394  10.334  0.9343  0.0511 -0.3419
60461SOL    HW190351   2.498   2.347  10.267  1.0814 -0.8543  0.3814
60461SOL    HW290352   2.386   2.329  10.367 -0.1826  0.9252 -0.6482
60462SOL     OW90353   8.944  11.718   6.235 -0.1406 -0.7966  0.1134
60462SOL    HW190354   9.005  11.669   6.290  1.2987  0.8069  0.0458
60462SOL    HW290355   9.001  11.768   6.176 -1.5272  0.6358 -0.0659
60463SOL     OW90356   1.265   2.175   5.460  0.4817 -0.6472 -0.1451
60463SOL    HW190357   1.257   2.166   5.366  0.1619  2.5002 -0.5500
60463SOL    HW290358   1.357   2.194   5.475  1.1464 -3.9101  0.6085
60464SOL     OW90359   7.141   3.755   8.777 -0.1443  0.2396  0.0431
60464SOL    HW190360   7.093   3.827   8.818  0.3164  0.1035  0.8301
60464SOL    HW290361   7.146   3.688   8.845  1.2509  0.2850  0.0027
60465SOL     OW90362   2.034   3.317   2.936  0.3507 -0.1395 -0.8778
60465SOL    HW190363   1.996   3.263   3.005 -1.5116  1.2453 -0.7538
60465SOL    HW290364   2.112   3.268   2.909 -1.7144 -3.4475 -1.5133
60466SOL     OW90365   0.006   7.761  11.967  0.3116 -0.0957 -0.5109
60466SOL    HW190366   0.056   7.767  11.885  1.4456  0.1602  0.1872
60466SOL    HW290367   0.071   7.742  12.034 -0.6824 -0.8667  0.2706
60467SOL     OW90368   8.295   2.847   3.178  0.5519 -0.1698 -0.8260
60467SOL    HW190369   8.247   2.929   3.190 -0.8741 -1.1256  0.2545
60467SOL    HW290370   8.230   2.785   3.145  0.7399 -1.7451  1.5309
60468SOL     OW90371   8.579   5.970   4.243  0.4132 -0.1572  0.1931
60468SOL    HW190372   8.669   5.991   4.267  0.8012 -0.5431 -0.8643
60468SOL    HW290373   8.577   5.874   4.243 -0.0035 -0.1480  0.2204
60469SOL     OW90374   8.483   8.860   1.625 -0.3136 -0.2139  0.6308
60469SOL    HW190375   8.575   8.866   1.601  0.3354 -1.1216  2.7476
60469SOL    HW290376   8.449   8.949   1.611  1.3726  0.6453  1.7474
60470SOL     OW90377   0.929   0.512   8.617 -0.5264  0.4240 -0.4234
60470SOL    HW190378   1.024   0.509   8.634 -0.0537  2.6725 -2.0608
60470SOL    HW290379   0.890   0.533   8.702  0.5628  0.4966  0.0836
60471SOL     OW90380   3.311   2.454   8.023  0.2162  0.1500  0.1197
60471SOL    HW190381   3.299   2.451   8.118  0.6260  0.3476  0.1849
60471SOL    HW290382   3.277   2.540   7.997  2.7217  1.3627  0.5210
60472SOL     OW90383   0.149  11.923   4.879 -0.0270 -0.9365  0.5739
60472SOL    HW190384   0.098  11.863   4.933 -0.1984  0.6274  2.2500
60472SOL    HW290385   0.240  11.895   4.892  0.0040 -0.1824  2.3016
60473SOL     OW90386   1.540   4.502  12.000  0.4529  0.0719 -0.0400
60473SOL    HW190387   1.559   4.568  11.934  0.7792 -1.4413 -1.5501
60473SOL    HW290388   1.447   4.484  11.991  0.2852  0.5721  0.6250
60474SOL     OW90389   5.621  11.463   6.868  0.0959 -0.2074  0.4689
60474SOL    HW190390   5.602  11.527   6.936 -0.4963 -0.5175  0.6087
60474SOL    HW290391   5.625  11.379   6.914  2.7424 -0.0986  0.5903
60475SOL     OW90392  10.768   1.802   9.599 -0.3663  0.3128  0.1741
60475SOL    HW190393  10.796   1.846   9.679  1.5412 -0.8935  0.2234
60475SOL    HW290394  10.682   1.766   9.620  0.0789  0.0714  1.6606
60476SOL     OW90395   3.016  12.458   1.382  0.4060 -0.3256  0.7933
60476SOL    HW190396   3.100  12.485   1.345  0.5265 -0.4886  0.9424
60476SOL    HW290397   3.034  12.374   1.423  0.0236 -0.6601  0.2904
60477SOL     OW90398   2.285   9.293   8.106 -0.3792 -0.1890 -0.4554
60477SOL    HW190399   2.288   9.219   8.166  0.6876  0.4983  0.3589
60477SOL    HW290400   2.211   9.345   8.136 -0.7629 -0.6021 -0.6665
60478SOL     OW90401   0.998   4.642   6.141  0.5182  0.3972  0.1700
60478SOL    HW190402   0.991   4.610   6.051  0.2166 -3.4498  1.3950
60478SOL    HW290403   1.086   4.680   6.146  1.3377 -1.1505 -1.2735
60479SOL     OW90404   1.394   4.304   1.605 -0.3918 -0.1970  0.1378
60479SOL    HW190405   1.404   4.237   1.672 -2.1230 -0.7457 -0.1021
60479SOL    HW290406   1.463   4.368   1.624 -0.7108 -0.4377  2.2964
60480SOL     OW90407   4.346   6.528   0.000  0.1881 -0.3295 -0.4946
60480SOL    HW190408   4.411   6.573   0.054 -0.1216  0.0790 -0.4577
60480SOL    HW290409   4.327   6.448   0.049  1.2150 -0.8262 -0.8807
60481SOL     OW90410  12.186   2.096   2.622 -0.0484  0.3136  0.1145
60481SOL    HW190411  12.281   2.085   2.628 -0.0297  0.3216 -0.1676
60481SOL    HW290412  12.163   2.061   2.536 -0.7519 -2.8196  1.4559
60482SOL     OW90413   5.889   7.703   1.151 -0.1479 -0.1720 -0.2738
60482SOL    HW190414   5.849   7.719   1.065 -0.2974 -0.6702 -0.2990
60482SOL    HW290415   5.910   7.791   1.184 -3.3857  0.3310  0.7571
60483SOL     OW90416   9.048   1.008   0.222 -0.2377  0.3567 -0.1181
60483SOL    HW190417   9.055   0.930   0.167 -1.7379  0.0165  0.1316
60483SOL    HW290418   8.998   1.070   0.170  0.9399  1.1864 -0.3123
60484SOL     OW90419   0.054   8.877   0.010 -0.1101 -0.0412 -0.1720
60484SOL    HW190420   0.148   8.870  -0.008  0.1167 -0.2710  0.9893
60484SOL    HW290421   0.046   8.852   0.102 -1.1450  1.1577  0.0954
60485SOL     OW90422  11.616   2.482   8.717 -0.0135 -0.1896  0.7520
60485SOL    HW190423  11.523   2.458   8.716  0.1197 -0.8487 -1.4126
60485SOL    HW290424  11.620   2.566   8.671  0.4137  0.1129  1.3298
60486SOL     OW90425  11.892   1.245  11.056  0.4310 -0.5049  0.0182
60486SOL    HW190426  11.908   1.241  10.962 -1.6372 -0.1166 -0.4152
60486SOL    HW290427  11.797   1.260  11.063  0.5966 -0.1269  2.1566
60487SOL     OW90428   1.815   3.016   7.404  0.0043  0.4371  0.8015
60487SOL    HW190429   1.786   3.014   7.313 -1.5757 -1.6044  1.2903
60487SOL    HW290430   1.893   3.071   7.402 -0.3975  1.0604 -1.6436
60488SOL     OW90431  11.847   4.624   7.280 -0.4276 -0.2375 -0.1489
60488SOL    HW190432  11.771   4.674   7.252  0.1538  0.9026  0.2680
60488SOL    HW290433  11.822   4.586   7.364 -0.6919 -0.2541 -0.2353
60489SOL     OW90434   6.527   7.572   2.627  0.1857  0.2520  0.4417
60489SOL    HW190435   6.504   7.662   2.651  0.5174  0.1505  1.1564
60489SOL    HW290436   6.607   7.580   2.576 -1.6363  0.6691 -2.6167
60490SOL     OW90437  11.941   4.633   0.405 -0.5070  0.4525 -0.4402
60490SOL    HW190438  11.961   4.585   0.486  0.8920  0.2505 -0.8854
60490SOL    HW290439  11.857   4.598   0.377 -0.4041 -0.3898  0.2540
60491SOL     OW90440  11.261  11.522   3.362  0.3897  0.3150 -0.6296
60491SOL    HW190441  11.179  11.500   3.318 -0.1872  1.0195  0.0683
60491SOL    HW290442  11.245  11.608   3.400  1.0578 -0.0379  0.4897
60492SOL     OW90443   9.657   0.762   6.788  0.5871 -0.9853  0.5616
60492SOL    HW190444   9.612   0.817   6.724  2.1125  1.7979  1.6901
60492SOL    HW290445   9.729   0.723   6.739  0.6843 -0.3198  0.1536
60493SOL     OW90446   3.216   9.892   3.663 -0.3966  0.0465 -0.1043
60493SOL    HW190447   3.271   9.814   3.654  1.1350  1.0646  0.0671
60493SOL    HW290448   3.127   9.861   3.646  0.3777 -1.3832 -1.9223
60494SOL     OW90449   1.759   6.186   0.410 -0.8097  0.0625  0.0194
60494SOL    HW190450   1.814   6.244   0.462  1.3748 -1.8819  0.0288
60494SOL    HW290451   1.675   6.186   0.456 -0.4869  2.1727  0.7098
60495SOL     OW90452   4.052   0.505   4.676 -0.0360 -0.3027  0.4352
60495SOL    HW190453   4.097   0.429   4.712  2.5029  0.6417 -0.4871
60495SOL    HW290454   4.032   0.560   4.753  2.0233  0.0308  0.7857
60496SOL     OW90455   9.662  12.415   3.724  0.6019 -0.0289 -0.3160
60496SOL    HW190456   9.644  12.439   3.633 -3.4995  0.7371  0.4794
60496SOL    HW290457   9.632  12.324   3.732  0.4168  0.0845  0.3774
60497SOL     OW90458   1.556   5.802   1.551 -0.4247  0.1375 -0.5634
60497SOL    HW190459   1.538   5.715   1.516 -1.5378  0.5242 -0.9813
60497SOL    HW290460   1.531   5.796   1.643 -0.1551 -0.0803 -0.5016
60498SOL     OW90461  11.494  11.564  12.193 -0.5951  0.0115 -0.2608
60498SOL    HW190462  11.460  11.594  12.108  0.5001  0.6258 -0.5085
60498SOL    HW290463  11.582  11.531  12.173  0.6951  2.4479  0.9688
60499SOL     OW90464   7.457   5.667   3.199 -0.0471  0.2167  0.0043
60499SOL    HW190465   7.394   5.671   3.127  2.1717  0.1172 -2.0809
60499SOL    HW290466   7.420   5.604   3.261 -1.4319 -0.6987 -1.6718
60500SOL     OW90467   3.495   5.817   7.078  0.0944 -0.1508  0.6662
60500SOL    HW190468   3.484   5.879   7.006 -2.6010 -0.6458  0.5688
60500SOL    HW290469   3.574   5.847   7.123 -0.0877  2.2464 -0.4531
60501SOL     OW90470   7.050   3.022   0.223 -0.4908  0.0744 -0.3950
60501SOL    HW190471   6.967   3.049   0.184 -1.2030 -2.4540 -0.7764
60501SOL    HW290472   7.064   2.933   0.192  2.0462  0.1566  0.2374
60502SOL     OW90473  12.238   7.745   5.400  0.3231  0.6614  0.9057
60502SOL    HW190474  12.229   7.768   5.308  0.3947 -0.5608  0.5692
60502SOL    HW290475  12.171   7.678   5.414  0.1954  0.9590  1.7925
60503SOL     OW90476   4.338  12.491   5.080 -0.0026  0.0193  0.0158
60503SOL    HW190477   4.359  12.485   5.173  0.5480 -0.1454 -0.1151
60503SOL    HW290478   4.326  12.401   5.051  3.1184 -0.2763 -0.7873
60504SOL     OW90479   1.080  12.269   6.263 -0.4788 -0.5329  0.9764
60504SOL    HW190480   0.987  12.294   6.256 -0.3802 -0.4409 -0.3288
60504SOL    HW290481   1.115  12.284   6.175  0.5493 -1.5046  1.2001
60505SOL     OW90482   9.966  12.140   5.339  0.1259 -0.6654  0.4157
60505SOL    HW190483  10.022  12.100   5.273 -0.3995  2.3152 -2.0550
60505SOL    HW290484  10.024  12.196   5.390 -0.1397  0.4233 -0.4491
60506SOL     OW90485  10.898   7.470   3.384 -0.4293  0.5770  0.3534
60506SOL    HW190486  10.815   7.518   3.389 -0.1379  0.9421  1.9360
60506SOL    HW290487  10.887   7.395   3.442 -0.0597 -0.0242 -0.3365
60507SOL     OW90488  10.520   1.864   9.391 -0.6045 -0.1741  0.6126
60507SOL    HW190489  10.607   1.894   9.363 -0.1007 -1.3156  0.8871
60507SOL    HW290490  10.503   1.913   9.471 -0.1979  0.0305  0.5812
60508SOL     OW90491  10.770   1.094  11.080 -0.4979  0.3133 -0.0916
60508SOL    HW190492  10.740   1.003  11.083 -1.1791  0.5051 -0.7164
60508SOL    HW290493  10.808   1.103  10.993  0.3447  0.4057  0.2727
60509SOL     OW90494   0.824  12.477  11.267 -0.1514  0.2202  0.2199
60509SOL    HW190495   0.790  12.408  11.323  0.3721  0.9934  1.5505
60509SOL    HW290496   0.894  12.435  11.217  0.3070 -0.1811  1.1734
60510SOL     OW90497   3.796   0.860   5.063 -0.3900  0.1723  0.0481
60510SOL    HW190498   3.736   0.790   5.091  0.5391  0.0501  1.8919
60510SOL    HW290499   3.737   0.931   5.035 -1.3446 -1.2268 -1.6793
60511SOL     OW90500   1.211   3.098   1.849 -0.1516 -0.2351  0.5159
60511SOL    HW190501   1.216   3.030   1.781  0.4044 -0.3302  0.6470
60511SOL    HW290502   1.194   3.050   1.930  1.0949 -0.3171  0.7518
60512SOL     OW90503   5.888   2.375   5.532  0.6488  0.1577  0.1938
60512SOL    HW190504   5.816   2.399   5.474  1.2727  1.3788 -0.1059
60512SOL    HW290505   5.851   2.381   5.620  0.3116  0.5353  0.0283
60513SOL     OW90506  11.163  11.810  12.380  0.1370 -0.3546  0.1274
60513SOL    HW190507  11.255  11.816  12.355 -0.2784  1.5298 -1.2013
60513SOL    HW290508  11.139  11.899  12.405 -1.6161 -0.5620 -0.6621
60514SOL     OW90509   5.086  11.188   6.179 -0.1482 -0.2699 -0.4980
60514SOL    HW190510   5.086  11.236   6.261 -0.6665  0.7703 -1.0809
60514SOL    HW290511   5.067  11.254   6.112 -2.5986 -1.4980 -1.1656
60515SOL     OW90512   5.587   3.659   9.804 -0.5881  0.2670 -0.2223
60515SOL    HW190513   5.557   3.692   9.719  1.2591  2.0551 -0.2620
60515SOL    HW290514   5.630   3.576   9.784  1.8471  1.7236 -1.4928
60516SOL     OW90515   7.461   2.694   3.775 -0.4530  0.7567 -0.1871
60516SOL    HW190516   7.412   2.766   3.815 -0.2235  1.2915 -0.8505
60516SOL    HW290517   7.487   2.727   3.689 -0.3862 -0.1373 -0.5249
60517SOL     OW90518   7.626   1.686   8.162 -0.0788  0.4733 -0.1226
60517SOL    HW190519   7.639   1.627   8.237  0.3566 -1.6016 -1.7260
60517SOL    HW290520   7.562   1.641   8.107  1.3394  0.7608 -2.1149
60518SOL     OW90521   4.625   5.512  10.658 -0.1867 -0.3260 -0.4996
60518SOL    HW190522   4.660   5.427  10.631  0.3826 -0.4585  0.5948
60518SOL    HW290523   4.553   5.529  10.597 -0.5028 -1.7349 -0.5658
60519SOL     OW90524   4.122   6.747   4.867 -0.0066  0.0887  0.2356
60519SOL    HW190525   4.186   6.727   4.936  0.5197  0.0250 -0.2602
60519SOL    HW290526   4.168   6.727   4.785 -0.9641 -0.7792 -0.1066
60520SOL     OW90527   0.407   4.202   0.018  0.2468 -0.2662  0.3050
60520SOL    HW190528   0.436   4.120  -0.021 -0.1044 -1.1645  1.8565
60520SOL    HW290529   0.488   4.244   0.048  0.3014 -0.8946  1.0739
60521SOL     OW90530   2.263   7.512   9.050  0.2379 -0.6645  0.3130
60521SOL    HW190531   2.346   7.471   9.026  0.3198 -1.8242  2.3808
60521SOL    HW290532   2.215   7.520   8.967  1.1502 -2.9074 -0.4848
60522SOL     OW90533   3.186   1.596   0.611 -0.1995  0.2072  0.4263
60522SOL    HW190534   3.178   1.580   0.517  1.7533 -0.3796  0.3236
60522SOL    HW290535   3.187   1.691   0.620 -1.2548  0.2751 -0.0397
60523SOL     OW90536   5.791  10.993   1.789  0.3184  0.5520  0.2177
60523SOL    HW190537   5.724  11.020   1.727  0.9728  0.4849 -0.5216
60523SOL    HW290538   5.854  10.943   1.738  0.3010 -0.4602  1.1396
60524SOL     OW90539   4.569   1.303  11.626 -0.6403  0.4268  0.6928
60524SOL    HW190540   4.545   1.395  11.636  1.4740  1.3797 -1.8582
60524SOL    HW290541   4.497   1.265  11.574 -0.4282  1.2573 -0.2321
60525SOL     OW90542   1.235   2.582   0.622 -0.3754  0.5053 -0.4464
60525SOL    HW190543   1.142   2.561   0.622 -0.5060  1.0271  0.3515
60525SOL    HW290544   1.277   2.508   0.579 -0.8353 -1.2447  1.9181
60526SOL     OW90545   2.774   5.378   4.086 -0.1449 -0.0639 -0.1965
60526SOL    HW190546   2.848   5.320   4.105  0.9638  1.4921  0.4551
60526SOL    HW290547   2.811   5.466   4.087 -1.3103  0.5941 -3.3892
60527SOL     OW90548   5.943  11.083   9.710  0.3331 -0.2503 -0.3943
60527SOL    HW190549   5.914  11.138   9.783  0.0090 -0.9405  0.0071
60527SOL    HW290550   6.032  11.058   9.733 -0.2451 -1.6188  0.4792
60528SOL     OW90551   0.032   0.582   0.638  0.2416  0.0007 -0.1373
60528SOL    HW190552   0.033   0.545   0.726 -0.4143 -1.6261 -0.7711
60528SOL    HW290553   0.065   0.672   0.649  0.1783 -0.1661  1.7418
60529SOL     OW90554   8.453   1.796  10.279 -0.1767 -0.2346 -0.2505
60529SOL    HW190555   8.482   1.792  10.370  0.2139 -0.3911 -0.3789
60529SOL    HW290556   8.358   1.796  10.284 -0.1689  0.7671  0.2013
60530SOL     OW90557   4.755  11.488   8.878 -0.4009 -0.4134 -0.0601
60530SOL    HW190558   4.798  11.408   8.848 -1.6830 -1.1638  0.0411
60530SOL    HW290559   4.812  11.559   8.849 -0.4152 -1.2326 -2.2160
60531SOL     OW90560   0.657  11.470   8.909 -0.3313  0.7592  0.4208
60531SOL    HW190561   0.750  11.466   8.886 -0.8925  1.3329 -2.2447
60531SOL    HW290562   0.617  11.399   8.860 -1.3835  0.7633  1.2346
60532SOL     OW90563   2.777   3.594   2.897 -0.3332  0.7059  0.2028
60532SOL    HW190564   2.750   3.502   2.896 -1.2755  0.9757 -1.2110
60532SOL    HW290565   2.726   3.635   2.827 -0.0945  2.3594  0.9547
60533SOL     OW90566   8.095   5.933  12.382  0.1426  0.0913  0.2332
60533SOL    HW190567   8.169   5.909  12.438 -0.0387  1.8448  1.2978
60533SOL    HW290568   8.109   6.026  12.363 -2.8504  1.1006  2.2414
60534SOL     OW90569  12.558   3.695   7.611  0.0714  0.0007  0.1576
60534SOL    HW190570  12.486   3.634   7.626 -0.7566  0.8993 -0.0572
60534SOL    HW290571  12.516   3.781   7.611  0.6246  0.3698 -3.0462
60535SOL     OW90572  11.472   1.268   2.800 -0.6931 -0.0153 -0.4657
60535SOL    HW190573  11.491   1.175   2.813  0.5613 -0.0807 -2.3915
60535SOL    HW290574  11.534   1.296   2.733  1.2224  3.0319  2.2574
60536SOL     OW90575   8.047   7.801   4.032  0.8139 -0.5390 -0.3107
60536SOL    HW190576   8.137   7.833   4.037  0.6208  0.1960 -1.2261
60536SOL    HW290577   7.993   7.880   4.034  0.1705 -0.9825  0.4246
60537SOL     OW90578  11.210   7.793   2.754 -0.1312  0.2441  0.4339
60537SOL    HW190579  11.168   7.714   2.721 -0.7223  0.1676  1.3285
60537SOL    HW290580  11.280   7.811   2.692  0.8712 -1.7439  0.9163
60538SOL     OW90581  10.522   3.139   6.356 -0.0722 -0.4581 -0.3460
60538SOL    HW190582  10.557   3.164   6.441  1.3148 -0.1594 -0.9860
60538SOL    HW290583  10.483   3.053   6.370 -0.3956 -0.1569  0.7119
60539SOL     OW90584   0.917   7.114   6.841 -0.0909  0.2530 -0.0169
60539SOL    HW190585   0.829   7.150   6.850 -0.3950 -0.4793  0.0428
60539SOL    HW290586   0.928   7.100   6.747 -0.4547 -0.6342  0.0605
60540SOL     OW90587   6.657   1.703   7.491 -0.5508  0.5664  0.0908
60540SOL    HW190588   6.574   1.665   7.463 -0.1136 -0.6238  0.3514
60540SOL    HW290589   6.636   1.794   7.512 -1.6225  0.4863 -0.5794
60541SOL     OW90590   9.263   6.304   8.341  0.2116 -0.0410  0.1418
60541SOL    HW190591   9.324   6.339   8.406  0.6008 -0.9181  0.2708
60541SOL    HW290592   9.320   6.267   8.274 -0.1813 -0.5862  0.1099
60542SOL     OW90593  12.355   7.864  11.912  0.2353 -0.2225  0.4291
60542SOL    HW190594  12.319   7.887  11.998  1.0227  1.0847  0.4386
60542SOL    HW290595  12.441   7.825  11.932  1.0682  1.4054  0.2182
60543SOL     OW90596  10.865  12.584   6.413 -0.5177 -0.1443  0.1080
60543SOL    HW190597  10.931  12.635   6.367 -0.7426 -0.5605 -0.6889
60543SOL    HW290598  10.847  12.510   6.356 -0.2331 -1.1091  1.2151
60544SOL     OW90599   1.783   5.057   6.562 -0.2153 -0.6577 -0.0358
60544SOL    HW190600   1.789   5.141   6.515 -1.3050  0.9508  2.4606
60544SOL    HW290601   1.802   4.991   6.496 -0.6592  1.4780 -2.4670
60545SOL     OW90602  12.018   4.447   2.399 -0.5643 -0.1309 -0.3447
60545SOL    HW190603  11.945   4.458   2.460 -0.0886  0.2425  0.1702
60545SOL    HW290604  12.023   4.530   2.351 -0.1766  0.0326 -0.0314
60546SOL     OW90605  12.536   1.570  11.307  0.3846 -0.1548  0.0934
60546SOL    HW190606  12.518   1.481  11.276  0.3157 -0.0937 -0.0433
60546SOL    HW290607  12.539   1.623  11.227  0.0397  0.0322  0.2014
60547SOL     OW90608  11.266   5.720   2.265 -0.1463 -0.0986 -0.2493
60547SOL    HW190609  11.257   5.687   2.354 -0.4341  0.8407  0.0855
60547SOL    HW290610  11.300   5.646   2.215  0.9125 -0.3689  0.8317
60548SOL     OW90611   1.055   5.925  11.980 -0.2142 -0.3714  0.1512
60548SOL    HW190612   1.047   6.021  11.977 -2.7041 -0.4121  2.3036
60548SOL    HW290613   1.034   5.902  12.070  1.1612 -2.9435 -0.1085
60549SOL     OW90614  12.217   9.570   8.666  0.1624 -0.1062  0.1320
60549SOL    HW190615  12.212   9.551   8.759  1.4449  0.4002  0.3252
60549SOL    HW290616  12.166   9.500   8.624 -0.3553 -0.3825  1.1881
60550SOL     OW90617  11.845   4.948   5.024 -0.4072  0.3977  0.5949
60550SOL    HW190618  11.874   5.031   4.987 -1.3069 -0.0718 -1.3156
60550SOL    HW290619  11.749   4.951   5.015 -0.4345 -0.9034  0.3417
60551SOL     OW90620   8.803   7.744   5.295  0.1759  0.0536 -0.0536
60551SOL    HW190621   8.816   7.772   5.204  1.5982  1.3280  0.4965
60551SOL    HW290622   8.825   7.822   5.347 -1.7099 -0.3021  1.3658
60552SOL     OW90623  10.062   3.528   3.826 -0.1625 -0.2352 -0.0361
60552SOL    HW190624  10.091   3.506   3.915 -0.4616 -3.8735 -0.6688
60552SOL    HW290625   9.971   3.499   3.823  0.4701 -2.3600 -2.0480
60553SOL     OW90626   9.102   3.138   7.438 -0.2134  0.0039 -0.3755
60553SOL    HW190627   9.047   3.177   7.506  0.0028 -0.4157  0.0455
60553SOL    HW290628   9.190   3.138   7.476 -0.3600 -1.8623  0.0906
60554SOL     OW90629   5.633   7.101   7.374  0.2155 -0.0781 -0.7246
60554SOL    HW190630   5.651   7.018   7.418 -1.1355 -0.1324 -0.2256
60554SOL    HW290631   5.544   7.091   7.340 -0.1238  1.3070 -0.3114
60555SOL     OW90632   8.496   4.633  12.082  0.3997 -0.5345  0.5346
60555SOL    HW190633   8.566   4.667  12.138 -0.6503  4.1082 -0.5980
60555SOL    HW290634   8.534   4.631  11.994  1.1060 -4.9578  0.6996
60556SOL     OW90635   5.423   9.087   6.666 -0.1612 -0.5725  0.4737
60556SOL    HW190636   5.369   9.162   6.689 -1.9010 -1.3135 -0.9613
60556SOL    HW290637   5.365   9.030   6.616  1.4483 -2.3140  0.4852
60557SOL     OW90638   6.713   4.765   2.578 -0.0844  0.8639 -0.2995
60557SOL    HW190639   6.781   4.773   2.645  0.6404  0.1322 -0.9248
60557SOL    HW290640   6.705   4.853   2.541  0.1188  1.0791  0.1627
60558SOL     OW90641   6.306   6.332   7.245 -0.1936 -0.2968  0.0616
60558SOL    HW190642   6.376   6.376   7.293 -1.1706  0.8571  0.4900
60558SOL    HW290643   6.262   6.278   7.310 -2.7781  2.7913  1.0949
60559SOL     OW90644   9.790  11.189  10.447  0.9157  0.1653 -0.6631
60559SOL    HW190645   9.741  11.116  10.484  1.1173  0.9453  1.2335
60559SOL    HW290646   9.728  11.262  10.447  1.1897  0.4028 -1.0811
60560SOL     OW90647   0.551  12.219   3.395 -1.0793  0.3531  0.1066
60560SOL    HW190648   0.532  12.239   3.487  1.0617 -0.9078  0.8959
60560SOL    HW290649   0.502  12.139   3.377 -0.2522 -0.2915  0.6707
60561SOL     OW90650   6.207  12.159   4.863  0.0591  0.0898  0.1239
60561SOL    HW190651   6.302  12.172   4.867  0.2016  0.3108 -2.4003
60561SOL    HW290652   6.195  12.064   4.864  0.3615  0.0478 -0.3000
60562SOL     OW90653   8.957   1.989   1.925  0.1148 -0.2616  0.4388
60562SOL    HW190654   8.905   1.934   1.984  0.0491 -1.4054 -0.6406
60562SOL    HW290655   9.033   1.935   1.902 -0.0393  0.0101 -0.7853
60563SOL     OW90656   3.735   0.007   6.955 -0.5195  0.4794 -0.0611
60563SOL    HW190657   3.691   0.087   6.984  0.4420  1.7100 -1.7701
60563SOL    HW290658   3.819   0.038   6.919 -1.7170 -0.6708 -4.5303
60564SOL     OW90659   7.722   8.151   4.833 -0.6753  0.0690  0.1200
60564SOL    HW190660   7.689   8.061   4.842 -0.5064 -0.0623 -0.4824
60564SOL    HW290661   7.650   8.198   4.791 -0.2924 -0.1064 -0.7667
60565SOL     OW90662   0.034   4.705  12.324 -0.5310  0.3893  0.0458
60565SOL    HW190663  -0.036   4.646  12.296 -0.2175 -0.3662  0.8138
60565SOL    HW290664   0.017   4.721  12.416  1.0604 -0.9393  0.6348
60566SOL     OW90665   7.812   9.988   1.720  0.1604  0.0959  0.4011
60566SOL    HW190666   7.885  10.039   1.686 -0.1346 -0.3943 -1.0528
60566SOL    HW290667   7.734  10.030   1.685 -0.2879  0.5981  1.9207
60567SOL     OW90668  10.765   3.839  10.741 -0.1878 -0.1378 -0.0184
60567SOL    HW190669  10.683   3.848  10.789  0.3026  1.7154  0.5427
60567SOL    HW290670  10.786   3.928  10.713  0.8930 -0.7974 -1.4173
60568SOL     OW90671  11.316   5.676  10.736 -0.3085  0.5335  0.3433
60568SOL    HW190672  11.363   5.672  10.653 -0.8368  1.7636 -0.0349
60568SOL    HW290673  11.269   5.593  10.741  1.7538 -0.6836  0.6754
60569SOL     OW90674  12.038   1.238   4.491 -0.4302  0.0024  0.1924
60569SOL    HW190675  12.045   1.332   4.506 -2.7147  0.2475  0.0513
60569SOL    HW290676  12.022   1.201   4.578 -2.0896  0.0737 -0.0567
60570SOL     OW90677  11.132   8.623   4.596  0.5494  0.0851 -0.4873
60570SOL    HW190678  11.123   8.560   4.524  0.6545  0.3251 -0.7096
60570SOL    HW290679  11.192   8.690   4.562  0.9505 -0.0303 -0.0228
60571SOL     OW90680  10.349   6.902  11.475 -0.2778  0.2050  0.7511
60571SOL    HW190681  10.346   6.882  11.569  2.3664 -0.0046  0.8652
60571SOL    HW290682  10.305   6.987  11.467  0.2118  0.6405  2.3119
60572SOL     OW90683  10.520   6.955  10.070  0.5500  0.2147  0.3287
60572SOL    HW190684  10.581   6.883  10.055 -0.9856 -1.3288  1.1859
60572SOL    HW290685  10.505   6.992   9.983 -0.8963 -2.4486 -0.6546
60573SOL     OW90686  10.291   9.399   7.941 -0.6157  0.2219  0.6603
60573SOL    HW190687  10.283   9.341   7.866 -0.0691  2.0163 -0.8569
60573SOL    HW290688  10.227   9.366   8.004 -2.1555 -0.4572 -1.1740
60574SOL     OW90689  11.613   3.038   2.020  0.1221 -0.0512  0.0919
60574SOL    HW190690  11.708   3.029   2.009  0.0237 -0.6109 -0.3154
60574SOL    HW290691  11.601   3.052   2.114  0.4470 -2.2503  0.5156
60575SOL     OW90692   5.268  11.410   5.550  0.2480 -0.0071  0.6601
60575SOL    HW190693   5.297  11.462   5.474  0.8397 -1.6988 -0.3282
60575SOL    HW290694   5.183  11.375   5.524  0.8790 -1.3811  0.3307
60576SOL     OW90695  10.739   3.503   4.135 -0.2422 -0.1670 -0.3880
60576SOL    HW190696  10.758   3.409   4.140 -0.7779 -0.2401  0.4872
60576SOL    HW290697  10.820   3.545   4.163  0.1639 -0.3451 -1.2529
60577SOL     OW90698   0.099   3.684   5.232 -0.1005 -0.3238 -0.5238
60577SOL    HW190699   0.094   3.724   5.319  1.2454  0.9737 -1.0051
60577SOL    HW290700   0.008   3.664   5.210 -0.5492  0.1001  0.8284
60578SOL     OW90701   6.057   1.096   2.333 -0.5705  0.3341 -0.5337
60578SOL    HW190702   6.073   1.004   2.358 -1.2449 -0.2763 -2.2123
60578SOL    HW290703   6.012   1.090   2.249 -1.5671  2.1974 -0.1834
60579SOL     OW90704   5.617  10.690   7.604 -0.8699  0.9008 -0.1613
60579SOL    HW190705   5.603  10.682   7.699  1.8750  1.2547  0.3468
60579SOL    HW290706   5.646  10.780   7.592  0.1017  0.4700 -1.1410
60580SOL     OW90707   7.269   9.138   7.187  0.9507  0.2207  0.5984
60580SOL    HW190708   7.275   9.199   7.260 -0.9803  2.2831 -0.7994
60580SOL    HW290709   7.279   9.194   7.109  0.7429 -1.5304 -0.7459
60581SOL     OW90710   7.729   6.270   6.452 -0.2593  0.5124  0.1418
60581SOL    HW190711   7.813   6.228   6.467  0.1101  0.6387 -1.3595
60581SOL    HW290712   7.748   6.363   6.452 -0.6984  0.6185  1.3474
60582SOL     OW90713  11.341  10.457   4.077 -0.0768 -0.5173 -0.0894
60582SOL    HW190714  11.418  10.512   4.065  0.5800 -1.5538 -0.8205
60582SOL    HW290715  11.272  10.501   4.028 -0.3099  1.0655  1.5632
60583SOL     OW90716   1.404   0.773   0.193 -0.7717 -0.1156  0.1353
60583SOL    HW190717   1.410   0.802   0.102  0.6646 -0.4417  0.1034
60583SOL    HW290718   1.315   0.740   0.202 -0.6363 -0.9829 -1.4288
60584SOL     OW90719  11.799   3.785   6.258 -0.2942 -0.4257  0.5469
60584SOL    HW190720  11.822   3.716   6.196 -0.7958  1.4040 -1.7993
60584SOL    HW290721  11.879   3.800   6.308  0.5078 -1.1439 -0.4741
60585SOL     OW90722  10.038  11.743  10.717 -0.2642  0.5372  0.0876
60585SOL    HW190723  10.046  11.747  10.621 -0.0618  2.3793  0.1620
60585SOL    HW290724   9.989  11.821  10.740  0.8170  0.7892  1.6227
60586SOL     OW90725   4.864   0.788   2.202 -0.2245 -0.0024 -0.3561
60586SOL    HW190726   4.825   0.860   2.251 -2.1916  0.6275 -2.6341
60586SOL    HW290727   4.808   0.713   2.220  0.6749 -0.4872  0.4878
60587SOL     OW90728   7.683   7.133   4.321  0.2668 -0.0746  0.1803
60587SOL    HW190729   7.683   7.221   4.284 -0.6952  1.0591  2.6458
60587SOL    HW290730   7.677   7.075   4.245 -0.3405  2.0130 -1.4651
60588SOL     OW90731  11.638  12.120   1.091 -0.8978  0.2119 -0.0420
60588SOL    HW190732  11.639  12.203   1.138 -0.0826 -0.1564  0.6253
60588SOL    HW290733  11.612  12.143   1.002 -1.1261  1.1152  0.2478
60589SOL     OW90734  11.496   8.661   0.932 -0.1297 -0.1452  0.4705
60589SOL    HW190735  11.570   8.721   0.922 -0.9319  0.7353 -0.6038
60589SOL    HW290736  11.428   8.714   0.974 -0.3906 -0.7166  0.7739
60590SOL     OW90737  11.913  10.523   8.483  0.0358 -0.2693  0.0523
60590SOL    HW190738  11.964  10.568   8.551  0.2600  0.9485 -0.8775
60590SOL    HW290739  11.955  10.437   8.474  1.7932  0.5881 -0.4786
60591SOL     OW90740   9.246   5.752   0.416  0.0458 -0.0119 -0.3732
60591SOL    HW190741   9.235   5.675   0.360 -0.0340 -1.2549  1.2657
60591SOL    HW290742   9.181   5.741   0.485  0.1807  1.4323  0.0175
60592SOL     OW90743   6.754   0.822   5.321 -0.0666  0.0233  0.1412
60592SOL    HW190744   6.839   0.781   5.309  0.0196  0.0543  0.6389
60592SOL    HW290745   6.737   0.817   5.415 -0.2658  0.7087  0.1521
60593SOL     OW90746  10.681   9.423   6.290 -0.0535  0.2254 -0.4389
60593SOL    HW190747  10.750   9.459   6.234  0.4240  0.5686  0.3524
60593SOL    HW290748  10.621   9.380   6.229  1.1680 -0.6175 -1.0921
60594SOL     OW90749  11.250   6.077   8.064 -0.2028  0.0564 -0.1465
60594SOL    HW190750  11.166   6.074   8.018 -0.0042  0.6539 -0.5522
60594SOL    HW290751  11.300   6.146   8.020  1.0370 -1.2202 -0.8380
60595SOL     OW90752   3.129   3.418   4.961 -0.3870 -0.5606 -0.3673
60595SOL    HW190753   3.071   3.343   4.949 -1.3957  0.0573  0.4017
60595SOL    HW290754   3.091   3.486   4.905 -1.4134  0.3622  1.3708
60596SOL     OW90755  12.157   0.820   2.992  0.5527 -0.5293 -0.6836
60596SOL    HW190756  12.126   0.896   3.041  0.2424 -0.0641 -1.5848
60596SOL    HW290757  12.077   0.776   2.962  0.7408 -0.2563 -1.6049
60597SOL     OW90758   4.659   0.431   5.113  0.5494  0.7371 -0.8562
60597SOL    HW190759   4.732   0.487   5.141 -0.7460  3.0380 -1.8665
60597SOL    HW290760   4.645   0.453   5.021 -0.8806 -0.3203 -0.9355
60598SOL     OW90761   5.196   3.646   5.110  0.2607  0.5003  0.4092
60598SOL    HW190762   5.124   3.648   5.046  0.7151 -0.3504 -0.1535
60598SOL    HW290763   5.254   3.577   5.078  1.7952  1.7533  0.3474
60599SOL     OW90764   5.803   0.731   2.227  0.1091 -0.0250  0.0016
60599SOL    HW190765   5.739   0.696   2.166 -0.1114  0.0695  0.1778
60599SOL    HW290766   5.760   0.808   2.265  0.0000 -0.4488  0.7431
60600SOL     OW90767   3.995   4.744   1.656  0.3954 -0.6111  0.4263
60600SOL    HW190768   3.962   4.718   1.570  1.5670 -1.6073  0.2391
60600SOL    HW290769   3.936   4.702   1.718 -1.7280  1.8173  0.1810
60601SOL     OW90770   9.334   5.662   3.417  0.0730 -0.0429 -0.2092
60601SOL    HW190771   9.342   5.604   3.341 -2.8962 -1.1245  0.1405
60601SOL    HW290772   9.390   5.624   3.484  0.7912 -0.5292 -1.0760
60602SOL     OW90773   9.726  12.302  11.618  0.2596 -0.1488  0.2156
60602SOL    HW190774   9.639  12.272  11.642  0.0961  0.8613  0.9592
60602SOL    HW290775   9.759  12.236  11.558 -0.9358 -0.6492  0.0917
60603SOL     OW90776  12.565   6.276   6.196 -0.4467 -0.0567  0.0536
60603SOL    HW190777  12.655   6.305   6.204  0.0709 -1.6993  0.5149
60603SOL    HW290778  12.517   6.328   6.261  0.4338 -0.2297  0.8565
60604SOL     OW90779   6.471  11.725   6.286 -0.3427  0.7524 -0.1955
60604SOL    HW190780   6.490  11.637   6.253 -1.3367  1.4068 -2.7647
60604SOL    HW290781   6.377  11.737   6.271 -0.2778  2.1479  0.3442
60605SOL     OW90782   4.017  11.272   3.009 -0.1694 -0.2046 -0.3290
60605SOL    HW190783   4.080  11.206   3.039 -0.5373  0.1707  1.3358
60605SOL    HW290784   4.070  11.351   2.996 -0.1051 -0.1964 -0.0272
60606SOL     OW90785   8.321   7.582   8.952  0.2117 -0.3332 -0.6820
60606SOL    HW190786   8.330   7.668   8.994  0.6878 -0.7255  0.0470
60606SOL    HW290787   8.313   7.521   9.025 -0.2503 -0.9023 -1.1984
60607SOL     OW90788   6.314   0.556   3.224 -0.4770  0.2618 -0.0870
60607SOL    HW190789   6.338   0.621   3.290  0.0877  0.7184 -0.7259
60607SOL    HW290790   6.292   0.608   3.146 -0.1461 -0.3027 -0.5690
60608SOL     OW90791  11.204   5.650   8.653 -0.0579  0.3356 -0.4538
60608SOL    HW190792  11.141   5.695   8.598  0.4743  0.2927 -1.1146
60608SOL    HW290793  11.289   5.686   8.627  0.1272  1.1387  1.1247
60609SOL     OW90794   0.733   6.167   3.057 -0.0893  0.7205  0.9933
60609SOL    HW190795   0.667   6.177   3.126 -0.4909  0.6541  0.6267
60609SOL    HW290796   0.690   6.200   2.978  0.6149  1.4519  0.9029
60610SOL     OW90797   7.140   1.123   5.210  0.0245  0.5971 -0.1021
60610SOL    HW190798   7.099   1.202   5.246  0.9572  0.4931  1.2381
60610SOL    HW290799   7.076   1.090   5.146 -1.5363  0.9960  1.1914
60611SOL     OW90800   0.355   9.616   0.394 -0.0143  0.4979  0.0746
60611SOL    HW190801   0.417   9.592   0.326 -0.4731 -1.9972  0.4321
60611SOL    HW290802   0.389   9.574   0.474 -1.4004  0.2465  0.5642
60612SOL     OW90803   3.801   7.871   7.734 -0.4094  0.2933 -0.0564
60612SOL    HW190804   3.815   7.933   7.805 -0.0992 -1.7017  1.7147
60612SOL    HW290805   3.876   7.883   7.676 -0.5001  1.7272  0.0934
60613SOL     OW90806   8.157   3.476  11.196 -0.1238 -0.4484 -0.2469
60613SOL    HW190807   8.250   3.452  11.198  0.0766  0.3397  0.8287
60613SOL    HW290808   8.157   3.571  11.205 -1.0855 -0.6055  2.2333
60614SOL     OW90809   5.275   6.949  12.274  0.6077 -0.4402  0.0602
60614SOL    HW190810   5.302   6.868  12.316  0.9193  0.0216  0.7573
60614SOL    HW290811   5.237   6.921  12.191 -0.9577 -1.4646  1.0666
60615SOL     OW90812  10.944  10.859   1.558  0.4863  0.2621 -1.0489
60615SOL    HW190813  10.867  10.850   1.501  0.4716 -0.1076 -0.9720
60615SOL    HW290814  10.985  10.773   1.556 -0.3321 -0.2026  0.6579
60616SOL     OW90815   3.980  12.400   9.568 -0.0860 -0.1537 -0.1866
60616SOL    HW190816   3.886  12.404   9.548 -0.0459 -0.3811 -0.4279
60616SOL    HW290817   3.994  12.310   9.599 -0.7049  0.9109  3.7706
60617SOL     OW90818   8.162  12.186   5.152 -0.7659  0.1426 -0.2709
60617SOL    HW190819   8.076  12.203   5.114  0.1060  0.3167 -2.2668
60617SOL    HW290820   8.173  12.255   5.218 -1.7153  0.7603 -0.7389
60618SOL     OW90821   2.517   4.727  11.146 -0.3686 -0.0972  0.0991
60618SOL    HW190822   2.572   4.656  11.112 -0.8191 -1.3962  1.8816
60618SOL    HW290823   2.520   4.795  11.079  2.5591 -0.5262 -0.3304
60619SOL     OW90824   5.198   6.686   4.130 -0.6026  0.4283  0.1042
60619SOL    HW190825   5.271   6.708   4.073 -1.4260  1.0498 -0.7370
60619SOL    HW290826   5.190   6.761   4.189  0.4274 -0.3363  1.2547
60620SOL     OW90827   5.884   9.302  12.489  0.2022 -0.1585  0.3520
60620SOL    HW190828   5.962   9.351  12.515  0.3900 -0.3433  0.1440
60620SOL    HW290829   5.865   9.245  12.564 -0.4458  0.7529  0.8865
60621SOL     OW90830  11.805   6.634   1.947  0.1686  0.3419 -0.4266
60621SOL    HW190831  11.874   6.687   1.907  2.0633 -0.8980  1.0830
60621SOL    HW290832  11.815   6.548   1.907 -1.0177  0.3213 -0.7228
60622SOL     OW90833  10.576   5.060   2.399  0.2974 -0.0145 -0.4010
60622SOL    HW190834  10.639   5.123   2.433  0.6885  0.2119 -1.5004
60622SOL    HW290835  10.592   5.059   2.304  1.0621 -2.5943 -0.3023
60623SOL     OW90836  10.658   3.246  10.859  0.0347  0.6882  0.3591
60623SOL    HW190837  10.630   3.266  10.770 -0.8798  0.5843  0.6098
60623SOL    HW290838  10.733   3.303  10.875  0.0658  0.8634 -0.4003
60624SOL     OW90839   5.602   0.398   5.308 -0.1258 -0.0391  0.1703
60624SOL    HW190840   5.565   0.425   5.224  1.0577  2.1927  0.3008
60624SOL    HW290841   5.692   0.372   5.289  0.7953  2.3226  0.9281
60625SOL     OW90842   0.629   0.592   2.803 -0.8563  0.0284  0.4279
60625SOL    HW190843   0.597   0.632   2.722 -0.3921  1.9057  1.1031
60625SOL    HW290844   0.613   0.659   2.870  0.6884 -0.6258  1.5135
60626SOL     OW90845   3.772   7.885   6.683 -0.6513 -0.1669  0.3693
60626SOL    HW190846   3.753   7.791   6.685 -1.6128  0.0291  1.4554
60626SOL    HW290847   3.689   7.926   6.660  0.0737  0.3694 -1.4422
60627SOL     OW90848   5.341   0.130   8.165  0.0223  0.2977  0.0691
60627SOL    HW190849   5.329   0.222   8.186 -2.2282  0.1263 -0.2212
60627SOL    HW290850   5.337   0.125   8.070 -1.6257 -0.2776  0.1492
60628SOL     OW90851   5.594   7.603   4.904  0.3682 -0.1347  0.3711
60628SOL    HW190852   5.670   7.545   4.901  0.7536  0.3993 -2.2846
60628SOL    HW290853   5.623   7.683   4.861 -0.6535  1.4932  2.5198
60629SOL     OW90854  12.135   4.146  10.962  0.2867 -0.0090  0.0072
60629SOL    HW190855  12.190   4.161  11.038 -0.3719 -3.7178  1.4522
60629SOL    HW290856  12.053   4.112  10.998 -0.0589 -1.8717 -2.2626
60630SOL     OW90857   7.480   3.613   7.908  0.3641  0.5991 -0.1753
60630SOL    HW190858   7.489   3.519   7.892 -2.1499  0.2613 -0.0737
60630SOL    HW290859   7.466   3.651   7.822  2.4150  1.0728 -0.3352
60631SOL     OW90860   7.407   0.654   0.533  0.3609 -0.4844  0.4316
60631SOL    HW190861   7.471   0.722   0.554  0.6488 -0.1393 -1.4052
60631SOL    HW290862   7.362   0.687   0.456 -1.1515 -1.3256  0.9267
60632SOL     OW90863  10.254   5.668  10.214 -0.3009 -0.0200  0.7708
60632SOL    HW190864  10.324   5.669  10.149  0.4670  1.3791  1.5852
60632SOL    HW290865  10.176   5.640  10.165  0.4829 -0.0753 -0.4837
60633SOL     OW90866   7.363   2.620  12.130  0.2416  0.0081  0.6756
60633SOL    HW190867   7.436   2.589  12.077 -0.2670 -1.8255  0.9985
60633SOL    HW290868   7.286   2.606  12.076  0.0243  1.4179  0.5607
60634SOL     OW90869   4.881   0.817   3.038 -0.1354  0.0938  1.2472
60634SOL    HW190870   4.792   0.851   3.036 -0.0289  0.3677 -0.7132
60634SOL    HW290871   4.927   0.874   3.100 -1.5891 -0.9146  3.3996
60635SOL     OW90872   0.284   9.101   2.111  0.1926 -0.1307 -0.5533
60635SOL    HW190873   0.278   9.197   2.105 -3.0105 -0.1919  0.1243
60635SOL    HW290874   0.317   9.085   2.199 -3.7357  0.4700  1.2379
60636SOL     OW90875  10.953   6.610   3.881  0.0029  0.0276 -0.7355
60636SOL    HW190876  10.885   6.575   3.939  1.3335  0.8678  1.4447
60636SOL    HW290877  11.004   6.533   3.855  0.1127 -0.2446  0.2252
60637SOL     OW90878  11.614   6.056  10.455 -0.1858  0.0440 -0.4654
60637SOL    HW190879  11.536   6.025  10.502  2.0034 -1.8736  2.3020
60637SOL    HW290880  11.652   5.976  10.417  0.5313  0.9133 -1.6371
60638SOL     OW90881   9.760  11.895  12.013  0.4322  0.6479  0.0854
60638SOL    HW190882   9.751  11.990  12.005 -0.0429  0.7993  1.9724
60638SOL    HW290883   9.850  11.877  11.987 -0.3844  1.1104 -3.7192
60639SOL     OW90884   6.963   7.260   2.315 -0.1755 -0.4999  0.1550
60639SOL    HW190885   7.002   7.346   2.298 -0.3427 -0.5355 -0.4336
60639SOL    HW290886   6.908   7.244   2.239 -1.1677 -0.5503  0.8726
60640SOL     OW90887  12.233   1.336  11.265 -0.0387  0.1611 -0.0388
60640SOL    HW190888  12.326   1.317  11.259 -0.1656 -0.5472  0.1616
60640SOL    HW290889  12.218   1.403  11.198  0.3332 -0.8085 -1.1196
60641SOL     OW90890   5.814   6.182   3.511  0.0492 -0.3016  0.0134
60641SOL    HW190891   5.832   6.161   3.602  1.4642 -0.1005 -0.2054
60641SOL    HW290892   5.774   6.269   3.514 -0.3634 -0.5002  0.4671
60642SOL     OW90893   9.694   4.368   1.399  0.5600 -0.1787  0.2502
60642SOL    HW190894   9.672   4.455   1.433 -2.6553 -0.9101  0.2798
60642SOL    HW290895   9.610   4.328   1.379  1.9537 -3.2224  0.0083
60643SOL     OW90896   9.979   1.039   1.127  0.3413  0.3267 -0.4445
60643SOL    HW190897   9.905   1.095   1.104  0.6985  1.3973  0.8682
60643SOL    HW290898  10.056   1.090   1.105  0.6797  0.0949  0.1700
60644SOL     OW90899   8.591  10.229  10.643  0.0144  0.2591  0.1262
60644SOL    HW190900   8.624  10.212  10.554 -1.5212 -1.4119 -0.1799
60644SOL    HW290901   8.526  10.298  10.631  0.1270  0.3482  0.0212
60645SOL     OW90902  12.539   1.282   3.289 -0.2738 -0.4226 -0.2912
60645SOL    HW190903  12.479   1.296   3.362 -1.4592 -1.4692 -1.0194
60645SOL    HW290904  12.615   1.337   3.309 -0.8889 -0.1174  1.3361
60646SOL     OW90905   7.803   9.176   6.009  0.5160  0.0130  0.1421
60646SOL    HW190906   7.848   9.213   5.933  1.9153  0.2238  1.0301
60646SOL    HW290907   7.817   9.082   6.003  0.9179  0.0592  0.3026
60647SOL     OW90908   4.344  10.310  10.084 -0.2863 -0.4483 -0.1768
60647SOL    HW190909   4.349  10.323  10.179 -0.5429 -0.9793 -0.0854
60647SOL    HW290910   4.428  10.343  10.051  0.1190 -0.9491  0.3201
60648SOL     OW90911   0.456   2.490   4.812  0.8840  0.3714 -0.1313
60648SOL    HW190912   0.533   2.472   4.865  1.3531  0.2255 -0.8546
60648SOL    HW290913   0.481   2.565   4.758  0.0453  1.2017  0.5854
60649SOL     OW90914   4.967  12.112   5.736 -0.5859 -0.4847 -0.5146
60649SOL    HW190915   5.026  12.160   5.678 -1.6284  0.5593 -0.7449
60649SOL    HW290916   4.909  12.179   5.771 -1.5783 -1.4788 -0.2212
60650SOL     OW90917   2.311   4.580   0.574  0.1436 -0.4362 -0.0858
60650SOL    HW190918   2.323   4.486   0.562  2.3392 -0.5507  2.2055
60650SOL    HW290919   2.365   4.620   0.506 -1.3290 -0.7658 -1.5040
60651SOL     OW90920   8.620  11.523  11.669  0.1032  0.2155  0.0114
60651SOL    HW190921   8.582  11.603  11.705 -2.4324 -1.7406  2.0263
60651SOL    HW290922   8.550  11.458  11.673  1.0944 -1.4958 -4.2837
60652SOL     OW90923   5.861   2.801   4.842 -0.6500  0.2191 -0.2666
60652SOL    HW190924   5.850   2.885   4.887  0.8161  0.6278 -0.6214
60652SOL    HW290925   5.809   2.740   4.894  0.8992  0.6899  2.0175
60653SOL     OW90926   8.886   9.157   7.166 -0.1295  0.0961  0.3315
60653SOL    HW190927   8.874   9.124   7.078  0.4119 -0.6339  0.5194
60653SOL    HW290928   8.943   9.234   7.155  0.3496 -0.2873  0.0875
60654SOL     OW90929  10.920   9.524  10.425  0.3464 -0.8190 -0.4193
60654SOL    HW190930  10.905   9.498  10.515  2.9356 -1.8128 -0.1762
60654SOL    HW290931  10.993   9.586  10.430 -2.0081  2.3241 -1.5491
60655SOL     OW90932  11.841   4.962   5.393  0.0496  0.0855 -0.2882
60655SOL    HW190933  11.827   4.938   5.485  0.8261  0.7462  0.0131
60655SOL    HW290934  11.804   4.889   5.344  1.7934 -1.4699  0.5821
60656SOL     OW90935   9.718   7.323  12.375 -0.6391 -0.6355 -0.4409
60656SOL    HW190936   9.731   7.415  12.351 -0.8456  0.0656  1.8896
60656SOL    HW290937   9.623   7.313  12.376 -0.6125 -1.2179 -1.7424
60657SOL     OW90938  11.964   7.638  10.723  0.0036  0.0754 -0.3293
60657SOL    HW190939  11.960   7.644  10.627 -0.6743  0.0481 -0.3081
60657SOL    HW290940  12.015   7.715  10.750  0.5881 -0.1605 -0.7344
60658SOL     OW90941   1.648  11.455   2.996  0.1452  0.1607  0.2014
60658SOL    HW190942   1.680  11.405   3.071 -1.6862  0.4056  1.1911
60658SOL    HW290943   1.632  11.543   3.031  1.0008  0.7918 -0.9326
60659SOL     OW90944  10.970   5.158   1.268 -0.5643  0.0583  0.1902
60659SOL    HW190945  10.956   5.070   1.232  1.3372 -0.3250  0.2633
60659SOL    HW290946  11.029   5.200   1.206  2.0556 -0.2931  2.2277
60660SOL     OW90947  11.573   6.807   3.179 -0.0831  0.1601 -0.3719
60660SOL    HW190948  11.665   6.831   3.169  0.1692 -0.2856  0.7223
60660SOL    HW290949  11.568   6.766   3.265 -1.7147  2.1736  0.6017
60661SOL     OW90950   9.039   7.782   1.453 -0.3134  0.6706  0.3935
60661SOL    HW190951   9.055   7.876   1.439  0.0557  0.7961  1.5024
60661SOL    HW290952   9.042   7.744   1.366  0.8892  1.4974  0.0416
60662SOL     OW90953   0.348  10.745   1.257 -0.4328  0.7020  0.1381
60662SOL    HW190954   0.368  10.823   1.309 -0.8603  0.5701  0.5139
60662SOL    HW290955   0.371  10.672   1.315 -0.9098  0.5535  0.1464
60663SOL     OW90956   3.523  10.373   5.755 -0.0042 -0.0902  0.1503
60663SOL    HW190957   3.513  10.468   5.750 -0.8079 -0.1458  0.6126
60663SOL    HW290958   3.434  10.339   5.766  0.0917 -1.0159 -1.5352
60664SOL     OW90959   9.699  12.135   2.140  0.3524 -0.3323 -0.0926
60664SOL    HW190960   9.650  12.217   2.133 -0.3709 -0.7689 -0.2674
60664SOL    HW290961   9.751  12.131   2.060 -0.2963 -0.4731 -0.5178
60665SOL     OW90962   4.344  12.041   0.473 -0.4246  0.6516  0.0194
60665SOL    HW190963   4.321  11.992   0.552 -0.0912  0.3724 -0.0545
60665SOL    HW290964   4.276  12.108   0.466 -2.7490 -1.6489 -1.5462
60666SOL     OW90965   8.423   5.583   8.702 -0.7236 -0.5185 -0.2267
60666SOL    HW190966   8.378   5.569   8.786 -1.2065 -0.6540 -0.5035
60666SOL    HW290967   8.354   5.575   8.637 -0.7670  1.7310 -0.5126
60667SOL     OW90968   9.541   0.961   4.835  0.0936 -0.6994 -0.6471
60667SOL    HW190969   9.561   0.868   4.826 -0.2604 -0.9662  1.0444
60667SOL    HW290970   9.448   0.968   4.813 -0.1893 -0.9655  0.4075
60668SOL     OW90971   1.484   0.091  10.119  0.3239  0.2229  0.3329
60668SOL    HW190972   1.420   0.162  10.117 -0.2760 -0.2998  0.2845
60668SOL    HW290973   1.559   0.127  10.166 -0.2608  0.6534  0.9643
60669SOL     OW90974  11.341   4.694   1.828  0.4531  0.2240 -0.2412
60669SOL    HW190975  11.330   4.774   1.775  2.0676  1.1484  0.7314
60669SOL    HW290976  11.436   4.681   1.832  0.2549 -1.1564  0.5023
60670SOL     OW90977   4.079  12.220   0.902  0.2640  0.0136 -0.4625
60670SOL    HW190978   4.074  12.153   0.969  1.6100  1.3567  1.0501
60670SOL    HW290979   4.140  12.285   0.936  2.2273  0.0427 -3.6323
60671SOL     OW90980   6.634  10.568   9.773  0.0326 -0.8931  0.0784
60671SOL    HW190981   6.714  10.588   9.724 -0.0637 -0.5991  0.0387
60671SOL    HW290982   6.644  10.476   9.800  0.0110 -1.1046 -0.6310
60672SOL     OW90983   6.784   3.450  11.128  0.0221  0.1141  1.1331
60672SOL    HW190984   6.793   3.426  11.036 -0.7961 -1.6576  1.4657
60672SOL    HW290985   6.874   3.468  11.157  0.2778  0.7827 -0.0120
60673SOL     OW90986   3.172   5.923   4.539 -0.2359 -0.0857  0.7074
60673SOL    HW190987   3.134   6.006   4.510 -0.3983 -0.5914 -0.5860
60673SOL    HW290988   3.253   5.948   4.583  1.0378  0.6265 -1.8933
60674SOL     OW90989   1.139   2.114   2.879 -0.6752  0.5413  0.2268
60674SOL    HW190990   1.230   2.106   2.906 -0.7618 -2.1968  0.0397
60674SOL    HW290991   1.096   2.161   2.950  0.6721  0.8646  0.8514
60675SOL     OW90992  11.549  10.494  10.298  0.6107  0.3717  0.2805
60675SOL    HW190993  11.642  10.482  10.277  0.9243  1.0429  1.2324
60675SOL    HW290994  11.503  10.455  10.224  1.6388 -0.7670  0.2049
60676SOL     OW90995  10.381   3.303   4.423  0.4272  0.1569 -0.1299
60676SOL    HW190996  10.334   3.294   4.506  1.6928 -0.6679  0.5423
60676SOL    HW290997  10.445   3.373   4.439  0.8377 -0.1680 -0.3213
60677SOL     OW90998   3.704  11.818  10.711  1.0807 -0.7864  0.2847
60677SOL    HW190999   3.682  11.783  10.624 -0.8455  0.0062  0.4001
60677SOL    HW291000   3.753  11.898  10.692 -2.3768  1.4096 -0.3129
60678SOL     OW91001   7.521   1.021   8.585  0.5041 -0.1967  0.1497
60678SOL    HW191002   7.542   0.949   8.526  0.6937 -0.3600  0.4121
60678SOL    HW291003   7.602   1.037   8.634  0.0453 -0.8149  1.1555
60679SOL     OW91004   6.852   8.683   9.542 -0.4698 -0.1771 -0.0371
60679SOL    HW191005   6.867   8.729   9.625  1.4919 -1.2700  0.2943
60679SOL    HW291006   6.885   8.743   9.475  1.2812 -0.6487  0.3259
60680SOL     OW91007   2.296   1.265   2.532  0.1472 -0.5783  0.5852
60680SOL    HW191008   2.366   1.324   2.504  0.2212 -0.7424  0.4129
60680SOL    HW291009   2.229   1.273   2.465 -0.1993 -0.0823  0.9900
60681SOL     OW91010  11.590  12.492   7.056 -0.2542 -0.4504 -0.0695
60681SOL    HW191011  11.676  12.496   7.014  0.1049 -1.2569  0.5692
60681SOL    HW291012  11.534  12.546   7.000  0.4790 -0.5606 -0.9421
60682SOL     OW91013  10.768   9.664   1.944  0.1446  0.7166 -0.4896
60682SOL    HW191014  10.798   9.604   1.876  1.2179  1.9950 -1.1955
60682SOL    HW291015  10.710   9.611   2.000 -0.9426 -0.3051 -2.4957
60683SOL     OW91016   6.024   4.575   7.077  0.7290  0.0089  0.0130
60683SOL    HW191017   6.057   4.545   7.162  0.8812 -1.3738 -0.5020
60683SOL    HW291018   6.005   4.668   7.090  2.9241  0.3851  0.8957
60684SOL     OW91019   3.436   5.986   6.760 -0.1135  0.0348  0.1205
60684SOL    HW191020   3.410   6.060   6.814  2.5797  1.5314 -0.4750
60684SOL    HW291021   3.376   5.989   6.685 -0.6764  0.9662  0.5894
60685SOL     OW91022   3.218  10.126   7.432 -0.3888  0.3046  0.1052
60685SOL    HW191023   3.245  10.128   7.524 -1.3080 -1.1137  0.4395
60685SOL    HW291024   3.290  10.168   7.385  0.1680  0.9130  1.4485
60686SOL     OW91025  12.525  12.104  12.496  0.3069 -0.3486  0.1169
60686SOL    HW191026  12.432  12.089  12.484 -0.0619  0.5418  1.6126
60686SOL    HW291027  12.540  12.093  12.590  1.7806 -0.7990 -0.1360
60687SOL     OW91028   7.650   5.891  10.260  0.6868  0.5064 -0.0736
60687SOL    HW191029   7.571   5.945  10.266  1.0486  1.0833 -0.3892
60687SOL    HW291030   7.689   5.915  10.176  1.2915  0.3554  0.1593
60688SOL     OW91031   4.334   0.302  11.128  0.1617 -0.7068 -0.1889
60688SOL    HW191032   4.413   0.350  11.153  1.3082 -3.3354  1.6519
60688SOL    HW291033   4.274   0.370  11.098  2.6863  1.5227 -0.6194
60689SOL     OW91034  12.040   8.852  12.180  1.2408  0.0483  0.0344
60689SOL    HW191035  12.065   8.760  12.190 -2.7726 -1.0044  2.8244
60689SOL    HW291036  12.067   8.894  12.261 -1.8023 -0.1811  1.2999
60690SOL     OW91037   0.869   1.788   0.571 -0.1129  0.1307  0.2295
60690SOL    HW191038   0.944   1.744   0.610  0.3743  1.2166  0.5533
60690SOL    HW291039   0.794   1.733   0.592  0.7272 -1.6176 -1.1316
60691SOL     OW91040   7.870   3.209   5.703  0.0063 -0.1476 -0.2355
60691SOL    HW191041   7.863   3.132   5.759  1.1670 -1.1137 -1.3540
60691SOL    HW291042   7.948   3.192   5.649  0.2231  1.7605 -0.5885
60692SOL     OW91043   5.727   6.855   7.485  0.3203 -0.3866  0.3077
60692SOL    HW191044   5.810   6.827   7.447 -0.5277 -2.0314 -0.4516
60692SOL    HW291045   5.672   6.777   7.481 -1.1789  0.5944  1.0400
60693SOL     OW91046  10.743  12.370   3.063  0.4126  0.3845  0.5124
60693SOL    HW191047  10.713  12.450   3.020  0.7903 -0.2037 -0.8992
60693SOL    HW291048  10.834  12.360   3.035  0.1852 -0.8520  0.1611
60694SOL     OW91049   3.874  11.049   1.480 -0.8979  0.5736  0.3389
60694SOL    HW191050   3.860  11.022   1.570  0.1203 -0.3516  0.2376
60694SOL    HW291051   3.930  11.126   1.487 -1.6744  1.1358  0.5215
60695SOL     OW91052  10.439   7.290   7.235 -0.6902  0.1214 -0.3456
60695SOL    HW191053  10.496   7.222   7.197 -2.0624 -0.9531 -0.5628
60695SOL    HW291054  10.458   7.288   7.328  0.2616  0.3956 -0.5268
60696SOL     OW91055   9.490   5.000   9.308 -0.4334  0.3181  0.1657
60696SOL    HW191056   9.547   5.018   9.383 -1.7928  2.8518  0.7300
60696SOL    HW291057   9.537   5.038   9.233  0.8279 -2.0271 -0.3075
60697SOL     OW91058   0.449  10.381   7.730 -0.3946  0.1359 -0.1259
60697SOL    HW191059   0.359  10.408   7.750 -0.9249 -0.7182 -1.2490
60697SOL    HW291060   0.465  10.307   7.788  0.4519  1.6854  1.7324
60698SOL     OW91061  10.418  10.550   4.614  0.0332 -0.0402  0.2877
60698SOL    HW191062  10.385  10.637   4.594  0.8837  0.2892  0.3104
60698SOL    HW291063  10.510  10.562   4.633  0.3846 -1.0777 -0.6274
60699SOL     OW91064   2.882  10.304   8.166  0.3554 -0.2975 -0.2039
60699SOL    HW191065   2.901  10.346   8.250 -1.4526 -0.8506  0.5357
60699SOL    HW291066   2.897  10.211   8.182 -0.1142 -0.4185 -0.4525
60700SOL     OW91067   2.694   5.700   3.929 -0.2471 -0.1892 -0.2487
60700SOL    HW191068   2.631   5.721   3.998  0.4175  0.6724  0.1259
60700SOL    HW291069   2.774   5.677   3.977  0.1904  0.3114 -0.7156
60701SOL     OW91070   7.538  11.603   8.521  0.5239 -0.3347 -0.4054
60701SOL    HW191071   7.587  11.521   8.518 -0.6163 -1.0223 -3.1827
60701SOL    HW291072   7.503  11.606   8.610  1.8465 -2.0738  0.2287
60702SOL     OW91073   1.364   2.122  10.687 -0.2894 -0.0933 -0.0839
60702SOL    HW191074   1.334   2.172  10.762 -3.0759 -0.0893 -1.1029
60702SOL    HW291075   1.387   2.188  10.622  2.6616 -0.0761  0.8245
60703SOL     OW91076   7.260   8.308   2.084  0.0013 -1.3780 -0.5949
60703SOL    HW191077   7.191   8.272   2.029 -1.4640 -0.7956  0.7891
60703SOL    HW291078   7.246   8.269   2.170  1.1695 -0.9557 -0.1863
60704SOL     OW91079   7.809   9.014   4.074 -0.1666 -0.0119  0.2436
60704SOL    HW191080   7.878   9.021   4.008 -0.2033  0.8308  0.2833
60704SOL    HW291081   7.855   9.002   4.157  0.0577  2.2916  0.5294
60705SOL     OW91082   4.923  10.267   3.386  0.2726  0.0554  0.5612
60705SOL    HW191083   4.874  10.256   3.305 -0.1093 -1.4614  0.9655
60705SOL    HW291084   5.013  10.240   3.365  0.5724  1.2269  0.2517
60706SOL     OW91085   2.290  10.208  10.963  0.7166 -0.7319  0.2850
60706SOL    HW191086   2.321  10.198  11.053 -0.3118 -0.4009  0.6901
60706SOL    HW291087   2.225  10.278  10.968  2.3102  0.9267 -1.1299
60707SOL     OW91088   6.317   3.000  10.373  0.4717  0.3168 -0.0041
60707SOL    HW191089   6.408   2.972  10.367  0.9880  2.0985 -1.4357
60707SOL    HW291090   6.310   3.073  10.311 -1.5176  1.2916  1.2552
60708SOL     OW91091   1.084   7.719   7.690 -0.2598  0.3234 -0.0387
60708SOL    HW191092   1.087   7.794   7.630  1.1538  0.4939  0.2165
60708SOL    HW291093   1.105   7.643   7.636  2.7313  0.6675  0.4456
60709SOL     OW91094   1.129   9.073   1.472 -0.3200 -0.1285 -0.0869
60709SOL    HW191095   1.090   9.153   1.508  0.6586  0.2587  0.1488
60709SOL    HW291096   1.145   9.094   1.381 -1.7692 -0.7232 -0.5155
60710SOL     OW91097   9.723   4.083   4.820 -0.1570  1.0078  0.4087
60710SOL    HW191098   9.814   4.089   4.847 -0.2801 -0.7150  1.3799
60710SOL    HW291099   9.680   4.157   4.862  0.5504  1.0605  1.0560
60711SOL     OW91100   8.360  10.024   4.206 -0.2195  0.0295 -1.1196
60711SOL    HW191101   8.318  10.087   4.264 -0.4520 -1.4227  0.3624
60711SOL    HW291102   8.443  10.065   4.182 -0.2976  0.8428 -0.0651
60712SOL     OW91103   7.301   3.067  12.347  0.5959 -0.0099  0.0896
60712SOL    HW191104   7.271   2.991  12.397  3.8435 -1.8705 -0.4885
60712SOL    HW291105   7.254   3.061  12.264  1.3601 -1.9354 -0.2680
60713SOL     OW91106  10.157  11.194   7.119 -0.6658 -0.5537 -0.7250
60713SOL    HW191107  10.231  11.133   7.117 -0.6711 -0.7270  1.9044
60713SOL    HW291108  10.173  11.252   7.044  0.2486 -2.6649 -2.2861
60714SOL     OW91109   3.500   8.930  10.504 -0.3748 -0.4607 -0.1825
60714SOL    HW191110   3.540   8.946  10.590  0.2169 -2.6409 -0.0159
60714SOL    HW291111   3.414   8.973  10.510 -0.1613 -0.1760  1.3263
60715SOL     OW91112   4.881   6.201   4.875  0.2707  0.1273 -0.0310
60715SOL    HW191113   4.897   6.223   4.783 -0.3327 -0.1498 -0.2133
60715SOL    HW291114   4.801   6.249   4.897 -0.2120 -0.6806  0.0124
60716SOL     OW91115   5.869   2.432   8.755  0.5463  0.0839  0.3487
60716SOL    HW191116   5.797   2.495   8.752  1.3416  0.9920 -0.2875
60716SOL    HW291117   5.916   2.453   8.836  0.8738  0.3729  0.0823
60717SOL     OW91118  10.407  12.027   0.503  0.0606  0.3184 -0.0403
60717SOL    HW191119  10.339  11.978   0.458  1.1161 -2.2931  1.0006
60717SOL    HW291120  10.455  12.072   0.433 -0.9290 -0.1742 -1.0481
60718SOL     OW91121   0.078   5.797   4.413 -0.3868 -0.0538 -0.4944
60718SOL    HW191122   0.081   5.702   4.396 -0.9148 -0.1428 -0.1152
60718SOL    HW291123   0.077   5.804   4.508 -0.5404  0.3255 -0.5234
60719SOL     OW91124   3.595   2.311   0.915 -0.7227  0.2850 -0.2707
60719SOL    HW191125   3.667   2.310   0.979 -1.1486  0.0673  0.2138
60719SOL    HW291126   3.526   2.259   0.956 -0.8305 -0.2639 -1.1288
60720SOL     OW91127  11.366   0.644  10.138  0.4522  0.2511  0.1267
60720SOL    HW191128  11.388   0.717  10.197  0.5325 -0.0273  0.4471
60720SOL    HW291129  11.271   0.643  10.135  0.4598  1.1954 -0.9267
60721SOL     OW91130   3.960   3.045   1.563 -0.0053 -0.2224 -0.3702
60721SOL    HW191131   4.034   3.042   1.624  0.9128 -1.3679 -1.4979
60721SOL    HW291132   3.892   2.991   1.605 -0.5681  1.4884  1.0505
60722SOL     OW91133   3.136  11.847   0.964 -0.0301  0.2950 -0.0335
60722SOL    HW191134   3.124  11.803   1.049  1.2697  0.4649  0.2554
60722SOL    HW291135   3.123  11.940   0.984 -2.0405  0.1744 -0.5039
60723SOL     OW91136   6.294  10.907   9.526 -0.2837 -0.1399 -1.0326
60723SOL    HW191137   6.376  10.930   9.481  1.0353 -0.3904  1.1043
60723SOL    HW291138   6.257  10.837   9.472 -0.2245  1.3587 -3.1779
60724SOL     OW91139   0.177   0.977   8.124 -0.1708 -0.2973  0.0012
60724SOL    HW191140   0.171   0.953   8.217 -1.0585  1.2133  0.3636
60724SOL    HW291141   0.261   1.022   8.117 -0.8648  1.1151  0.4694
60725SOL     OW91142   3.100   0.767  11.699 -0.1926 -0.1832  0.1157
60725SOL    HW191143   3.023   0.787  11.752 -1.1681  0.6079 -1.5113
60725SOL    HW291144   3.108   0.671  11.704 -2.4534 -0.5185 -1.1567
60726SOL     OW91145   0.124   2.323  10.876  0.3922 -0.2689 -0.2310
60726SOL    HW191146   0.191   2.358  10.817 -1.8127  1.0736 -2.1053
60726SOL    HW291147   0.127   2.380  10.952  1.0761  0.0458 -0.4873
60727SOL     OW91148   6.170  11.362  11.311 -0.0610  0.4837  0.0124
60727SOL    HW191149   6.251  11.413  11.316  0.3968 -0.1128 -1.1616
60727SOL    HW291150   6.172  11.306  11.389  0.5039  0.6854  0.1442
60728SOL     OW91151   4.707  11.940   4.147 -0.2789  0.4533 -0.2649
60728SOL    HW191152   4.744  12.025   4.170  0.5051  0.1206 -0.2689
60728SOL    HW291153   4.755  11.912   4.069 -1.6424  0.7196 -1.2385
60729SOL     OW91154  10.125   7.688   1.331 -0.2581 -0.1836 -0.3413
60729SOL    HW191155  10.087   7.623   1.391 -0.4702 -1.2549 -1.6089
60729SOL    HW291156  10.079   7.769   1.353 -1.0356 -0.7767  0.2921
60730SOL     OW91157   6.894   5.658   7.982  0.3168  0.0910 -0.3521
60730SOL    HW191158   6.859   5.743   8.009  1.2025  0.7240 -1.0934
60730SOL    HW291159   6.901   5.608   8.063  1.3161  1.3253  0.3743
60731SOL     OW91160   2.730   3.229   4.166  0.0558 -0.9054 -0.1776
60731SOL    HW191161   2.801   3.183   4.211 -1.9034 -3.2938  0.7330
60731SOL    HW291162   2.734   3.197   4.076 -0.1526 -1.4576  0.0032
60732SOL     OW91163   8.831   1.515   5.073  0.3758 -0.2332 -0.3366
60732SOL    HW191164   8.922   1.505   5.100  0.4655  1.0728 -0.1129
60732SOL    HW291165   8.809   1.431   5.031  0.5791 -1.9438  2.6552
60733SOL     OW91166  11.999   5.478   6.414  0.2202  0.2941  0.1114
60733SOL    HW191167  11.979   5.439   6.500  0.5159  0.3001  0.1835
60733SOL    HW291168  12.041   5.561   6.435 -0.0413  0.4655 -0.0433
60734SOL     OW91169   9.553  12.254   7.138  1.0132 -0.2628 -0.2371
60734SOL    HW191170   9.570  12.161   7.150  0.4737 -0.2655  0.5610
60734SOL    HW291171   9.481  12.257   7.075  0.8299 -0.3943 -0.0344
60735SOL     OW91172   5.558   3.972   6.686  0.3957 -0.1116  0.4553
60735SOL    HW191173   5.567   3.971   6.590  1.7979 -1.7172  0.5443
60735SOL    HW291174   5.475   3.928   6.703 -0.2396  0.8612 -0.0185
60736SOL     OW91175   2.320   7.776   1.642  0.0189  0.3492  0.1710
60736SOL    HW191176   2.279   7.830   1.710  0.8498 -1.5699  2.3358
60736SOL    HW291177   2.414   7.784   1.659  0.2438 -0.2884 -0.6918
60737SOL     OW91178   9.066   8.656   6.968  0.2583 -0.1963 -0.3519
60737SOL    HW191179   9.137   8.700   6.922  0.6746 -1.9002 -1.4280
60737SOL    HW291180   9.000   8.637   6.901 -1.4974  1.7698  0.7070
60738SOL     OW91181   9.270   3.583  10.483  0.5626  0.2589  0.3243
60738SOL    HW191182   9.355   3.545  10.505  1.2822  2.3607  1.4985
60738SOL    HW291183   9.208   3.536  10.538  1.1714 -0.2494  0.5964
60739SOL     OW91184  12.538   3.318   9.837  0.0296 -0.2631 -0.2096
60739SOL    HW191185  12.469   3.356   9.783 -0.5250 -0.6871  0.1860
60739SOL    HW291186  12.561   3.388   9.899 -0.4566 -0.3062  0.0274
60740SOL     OW91187   6.318   7.804   4.026  0.5526  0.6749 -0.3060
60740SOL    HW191188   6.279   7.727   4.066  1.6047  0.0735 -0.4036
60740SOL    HW291189   6.244   7.854   3.992 -0.2108  0.1987  0.6154
60741SOL     OW91190   5.789  12.537   1.236  0.0005 -0.7380  0.4265
60741SOL    HW191191   5.864  12.487   1.267 -1.5457 -2.6527  1.3070
60741SOL    HW291192   5.760  12.490   1.157  0.7368  1.0306 -0.9729
60742SOL     OW91193   0.598   4.076   6.247 -0.0472  0.4163 -0.4592
60742SOL    HW191194   0.586   3.996   6.197 -0.3401  0.4024 -0.3657
60742SOL    HW291195   0.591   4.146   6.181  0.8620  0.3375 -0.6484
60743SOL     OW91196   4.686   2.107   6.788  0.1350  0.1992  0.2947
60743SOL    HW191197   4.735   2.179   6.749  1.4988 -0.3544  0.9407
60743SOL    HW291198   4.739   2.078   6.862 -1.7049  0.2994  1.7360
60744SOL     OW91199   6.164   8.575   2.907  0.6862  0.0090 -0.0319
60744SOL    HW191200   6.153   8.609   2.996  1.3925 -0.8782  0.4141
60744SOL    HW291201   6.241   8.620   2.873  0.9719 -0.3246  0.1600
60745SOL     OW91202   9.802  11.962   3.151 -0.0722  0.6361  0.2672
60745SOL    HW191203   9.890  11.953   3.117 -0.1608 -0.6117  0.3424
60745SOL    HW291204   9.803  12.045   3.199  0.4218  1.7663 -1.6008
60746SOL     OW91205  10.331   6.123   9.428 -0.6863  0.1930  0.3114
60746SOL    HW191206  10.343   6.060   9.356  0.4642  0.5786  0.1436
60746SOL    HW291207  10.239   6.112   9.454 -0.4016 -1.8754  0.6048
60747SOL     OW91208   0.899  12.005   2.025 -0.3183 -0.0674  0.1111
60747SOL    HW191209   0.872  11.913   2.035 -0.8023 -0.0423 -0.7828
60747SOL    HW291210   0.992  12.005   2.049 -0.1088 -0.9563 -0.5868
60748SOL     OW91211   5.150   5.916   5.514  0.7477  0.2187 -0.2084
60748SOL    HW191212   5.200   5.947   5.590  0.9819  0.2081 -0.3572
60748SOL    HW291213   5.165   5.821   5.512 -1.3748 -0.2206  1.2836
60749SOL     OW91214  10.986   5.840   2.693 -0.0818 -0.2666 -0.3631
60749SOL    HW191215  11.030   5.921   2.718  1.8073 -1.6146  0.9817
60749SOL    HW291216  10.942   5.810   2.772 -0.1071 -0.9558 -0.6305
60750SOL     OW91217   8.425   5.085   3.948  0.6249  0.2540 -0.3939
60750SOL    HW191218   8.451   4.996   3.926  2.3121  1.1014 -2.0678
60750SOL    HW291219   8.353   5.074   4.011  1.0751 -2.2518 -0.2183
60751SOL     OW91220  10.578  11.327   0.657 -0.0600  0.4049  0.2270
60751SOL    HW191221  10.669  11.319   0.628  1.0573  0.9447  3.1659
60751SOL    HW291222  10.552  11.415   0.630  1.0258  1.0011  1.0207
60752SOL     OW91223   0.807   6.979   5.968  1.0441  0.1019 -0.2904
60752SOL    HW191224   0.880   7.009   5.915  1.3735 -0.1444  0.0215
60752SOL    HW291225   0.741   6.949   5.905  1.6578 -0.7269 -0.5434
60753SOL     OW91226  11.603   8.871   5.177  0.8501  0.1650 -0.1400
60753SOL    HW191227  11.576   8.914   5.096 -0.4995 -0.9138 -0.2825
60753SOL    HW291228  11.660   8.800   5.149  2.5955  1.4022  0.0645
60754SOL     OW91229   6.585   4.676   6.369 -0.1658 -0.2343  0.6487
60754SOL    HW191230   6.638   4.625   6.307  0.3151  0.6296  0.3259
60754SOL    HW291231   6.539   4.611   6.421  0.0446 -0.9880 -0.0900
60755SOL     OW91232   5.305   6.430   0.415 -0.1609 -0.4247  0.6598
60755SOL    HW191233   5.354   6.378   0.350  0.6923  1.8370 -0.6285
60755SOL    HW291234   5.372   6.461   0.476  0.2219  2.7573 -1.1541
60756SOL     OW91235   0.804   4.198   8.522 -0.8524  0.1337  0.3801
60756SOL    HW191236   0.832   4.271   8.466  1.2028 -0.5299  0.4344
60756SOL    HW291237   0.877   4.187   8.584  0.0805 -3.4389 -1.1147
60757SOL     OW91238   3.860   2.086   7.401 -0.0047  0.1546  0.0064
60757SOL    HW191239   3.806   2.095   7.323 -1.0621 -0.3455  0.6448
60757SOL    HW291240   3.867   2.175   7.436  1.2670  0.5225 -1.1500
60758SOL     OW91241   4.866   8.652  11.337 -0.2738 -0.0962  0.1061
60758SOL    HW191242   4.949   8.689  11.306 -0.3108 -0.3321 -0.2712
60758SOL    HW291243   4.823   8.726  11.381 -0.1873  0.2227 -0.3300
60759SOL     OW91244   5.286   6.868   7.056  0.5288  0.4666 -0.7142
60759SOL    HW191245   5.268   6.776   7.036 -0.0691  0.5604 -0.6273
60759SOL    HW291246   5.349   6.895   6.989 -0.0284  0.2631 -1.3372
60760SOL     OW91247   2.473   9.549   0.170 -0.1447  0.1708 -0.4189
60760SOL    HW191248   2.562   9.571   0.197 -0.9652  1.5921  1.3333
60760SOL    HW291249   2.424   9.543   0.252 -1.5680 -1.1399 -1.3049
60761SOL     OW91250  11.366   0.622   6.888  0.1936 -0.1838 -0.4545
60761SOL    HW191251  11.390   0.691   6.826  0.3246  0.4163  0.2468
60761SOL    HW291252  11.449   0.596   6.928 -0.1419  1.1553  1.2137
60762SOL     OW91253   5.432   5.484   9.100 -0.5944  0.1505  0.0264
60762SOL    HW191254   5.459   5.495   9.191 -1.1454  0.4869  0.1512
60762SOL    HW291255   5.500   5.529   9.049 -0.3067 -0.0051  0.2684
60763SOL     OW91256   1.433   9.063   6.351  0.3744 -0.5405 -0.1048
60763SOL    HW191257   1.453   9.154   6.373  1.8815 -0.8760  0.0124
60763SOL    HW291258   1.401   9.025   6.434 -0.2791 -0.1310 -0.1603
60764SOL     OW91259   9.833   9.374   6.216 -0.4536 -0.1918 -0.2283
60764SOL    HW191260   9.799   9.464   6.219 -2.2592 -0.6114 -3.4735
60764SOL    HW291261   9.915   9.381   6.168  0.6105 -0.0780  1.5121
60765SOL     OW91262   0.642   8.076   6.038 -0.1188  0.1866 -0.6145
60765SOL    HW191263   0.586   8.081   5.960  0.3508 -0.5964 -1.0160
60765SOL    HW291264   0.645   8.166   6.071  0.3016  0.6914 -1.9524
60766SOL     OW91265  12.344   6.256   4.666  0.4212 -0.4031 -0.2043
60766SOL    HW191266  12.372   6.262   4.575 -1.4836 -0.0034 -0.8198
60766SOL    HW291267  12.254   6.224   4.660  0.4981 -1.0289  1.5882
60767SOL     OW91268   0.161   2.851   2.513 -0.4184  0.0412 -0.0603
60767SOL    HW191269   0.110   2.783   2.557 -0.8880  0.2453 -0.2805
60767SOL    HW291270   0.116   2.865   2.430  1.7922 -2.0304 -1.7579
60768SOL     OW91271  11.512  11.080   7.461  0.0313 -0.3781 -0.1199
60768SOL    HW191272  11.602  11.062   7.488 -0.5872 -2.1285  0.8775
60768SOL    HW291273  11.473  10.994   7.447 -1.6317  0.3321 -0.0914
60769SOL     OW91274   3.645   0.297   4.854 -0.3926  0.4019  0.1876
60769SOL    HW191275   3.702   0.345   4.795  0.3842 -0.4401  0.2339
60769SOL    HW291276   3.562   0.345   4.852  0.4756  1.9532  0.5516
60770SOL     OW91277   4.384   3.379   4.596 -0.2313 -0.3712  0.6932
60770SOL    HW191278   4.367   3.416   4.509  0.9754 -2.8897 -0.7368
60770SOL    HW291279   4.298   3.368   4.635 -0.9271 -0.5028 -0.8018
60771SOL     OW91280  11.264   2.498  12.591  0.0790 -0.0726 -0.0201
60771SOL    HW191281  11.243   2.522  12.681 -1.4657 -2.3606  0.3313
60771SOL    HW291282  11.183   2.513  12.543  0.1643 -1.0755 -0.5023
60772SOL     OW91283   2.513   7.056   2.847 -0.0801 -0.2387 -0.1046
60772SOL    HW191284   2.511   6.971   2.803  0.7622 -0.0182 -0.5867
60772SOL    HW291285   2.421   7.076   2.863 -0.2860 -1.3215  0.1852
60773SOL     OW91286  10.920  11.407   6.367  0.5507  0.0117  0.3728
60773SOL    HW191287  10.902  11.471   6.298 -1.8137  1.3648  2.0785
60773SOL    HW291288  10.974  11.340   6.325 -0.9825  0.6080 -2.8499
60774SOL     OW91289   9.305   7.306  10.866  0.3266  0.9599 -0.9421
60774SOL    HW191290   9.264   7.279  10.948 -0.2739 -0.6852 -1.7299
60774SOL    HW291291   9.380   7.248  10.856 -0.0466  0.6000 -1.8966
60775SOL     OW91292  12.239   0.415   1.484  0.6593  0.1593 -0.3686
60775SOL    HW191293  12.308   0.481   1.493  0.9802 -0.3362  1.1019
60775SOL    HW291294  12.228   0.379   1.572 -0.6950 -0.5726 -0.7983
60776SOL     OW91295   0.329   9.699   2.738 -0.1131  0.1320  0.0361
60776SOL    HW191296   0.356   9.763   2.671 -1.5645  1.1542  0.3759
60776SOL    HW291297   0.336   9.614   2.694 -2.6262  0.8784 -2.0629
60777SOL     OW91298   8.003   5.916   3.949 -0.9757  0.3614  0.4228
60777SOL    HW191299   7.955   5.856   4.006  1.0277 -1.7256  0.0920
60777SOL    HW291300   7.977   5.889   3.860  0.4584 -0.5992  0.2507
60778SOL     OW91301   6.246  10.826   6.950  0.3821 -0.2815 -0.2144
60778SOL    HW191302   6.206  10.911   6.929  1.8891  0.3484 -0.7327
60778SOL    HW291303   6.172  10.767   6.965 -0.7651  0.5808 -2.0450
60779SOL     OW91304  12.534  11.293   7.259  0.5287  0.2014  0.2372
60779SOL    HW191305  12.534  11.206   7.298  3.9302 -1.1187 -2.1945
60779SOL    HW291306  12.479  11.286   7.181 -1.9723  1.3584  1.7516
60780SOL     OW91307   7.410   5.855   6.967  0.1630 -0.4085 -0.8469
60780SOL    HW191308   7.488   5.816   6.927  0.0061 -0.0123 -1.5641
60780SOL    HW291309   7.427   5.949   6.967  0.8143 -0.4615  1.4553
60781SOL     OW91310   2.237   7.166   9.390 -0.3680 -0.3646 -0.0212
60781SOL    HW191311   2.239   7.092   9.329  0.6683 -0.4891  0.1564
60781SOL    HW291312   2.154   7.210   9.370  0.2339 -0.0027 -2.0301
60782SOL     OW91313   6.140  10.305   1.155  0.3275 -0.3746 -0.0770
60782SOL    HW191314   6.180  10.348   1.231  0.6786 -1.0084  0.1050
60782SOL    HW291315   6.213  10.282   1.099  0.0332  0.5223 -0.8560
60783SOL     OW91316   8.667   9.421   5.120  0.4171 -0.4023  0.2498
60783SOL    HW191317   8.722   9.351   5.156  1.5403  0.7439  0.8610
60783SOL    HW291318   8.635   9.386   5.037  2.7345 -0.8730 -0.5431
60784SOL     OW91319   3.760   5.178   6.097 -0.4150 -0.4092 -0.1020
60784SOL    HW191320   3.771   5.211   6.007  0.2163  0.2090  0.1854
60784SOL    HW291321   3.774   5.256   6.152 -0.5032 -0.8427  0.5403
60785SOL     OW91322   7.852   8.313   0.259 -0.2403  0.5559  0.2648
60785SOL    HW191323   7.902   8.340   0.182 -1.0599  2.6277  0.3967
60785SOL    HW291324   7.765   8.349   0.244 -1.5308 -2.1916  0.4625
60786SOL     OW91325   0.350   7.720   6.942 -0.7986 -0.1321 -0.0188
60786SOL    HW191326   0.336   7.678   6.857 -0.7744 -0.9772  0.3889
60786SOL    HW291327   0.391   7.804   6.920  1.4345 -1.3315 -0.7410
60787SOL     OW91328   9.569   0.021   8.588  0.1797 -0.2685 -0.2764
60787SOL    HW191329   9.638  -0.014   8.644  0.2899 -0.4053 -0.4964
60787SOL    HW291330   9.493  -0.035   8.604  0.9390 -1.9534 -2.1633
60788SOL     OW91331   9.785   5.839   1.805 -0.4691  0.0586 -0.4101
60788SOL    HW191332   9.827   5.850   1.719 -1.1918  1.6020 -0.6007
60788SOL    HW291333   9.855   5.857   1.868  0.6018 -2.9799 -0.5477
60789SOL     OW91334   1.680  11.073   9.840  0.2589 -0.1763  0.4578
60789SOL    HW191335   1.643  11.160   9.820 -1.0903 -0.8039  0.0846
60789SOL    HW291336   1.668  11.024   9.759  0.6997 -0.8233  0.7805
60790SOL     OW91337   0.439  11.489   0.930 -0.1748  0.3221  0.7296
60790SOL    HW191338   0.514  11.434   0.911 -0.2456  0.6229 -0.5111
60790SOL    HW291339   0.367  11.449   0.882 -0.9102 -0.1609  2.1756
60791SOL     OW91340  10.052   3.327   5.387 -0.0377  0.2308 -0.5441
60791SOL    HW191341   9.998   3.296   5.459 -0.7731  0.1280 -1.1225
60791SOL    HW291342  10.037   3.421   5.385  0.4783  0.3227 -0.1672
60792SOL     OW91343   4.210   1.768   7.361 -0.2093 -0.0479  0.5110
60792SOL    HW191344   4.280   1.815   7.316  1.0485 -0.2648  2.1591
60792SOL    HW291345   4.162   1.724   7.291  0.5210  1.1219 -0.7743
60793SOL     OW91346   0.183   2.179  10.346  0.0376 -0.4483 -0.4268
60793SOL    HW191347   0.187   2.165  10.251  2.0814 -1.2823 -0.2640
60793SOL    HW291348   0.231   2.260  10.360  1.4595 -1.3510  0.0517
60794SOL     OW91349   4.323   8.524   5.377 -0.0334 -0.0784 -0.4180
60794SOL    HW191350   4.293   8.587   5.311 -1.9535  1.0730  1.4468
60794SOL    HW291351   4.366   8.577   5.443 -2.4335 -0.4661  1.6138
60795SOL     OW91352   2.380   0.108  12.080 -0.0553 -0.1759  0.0418
60795SOL    HW191353   2.293   0.110  12.041  0.1580  0.9165 -0.4255
60795SOL    HW291354   2.371   0.157  12.162  0.0063 -0.5062  0.2474
60796SOL     OW91355   1.130   3.338   9.289  0.1110  0.1000  0.4182
60796SOL    HW191356   1.094   3.320   9.376  1.3720 -0.6310  0.8152
60796SOL    HW291357   1.059   3.384   9.243 -1.7499 -2.1679  0.8032
60797SOL     OW91358   4.358   2.760   8.029  0.6107 -0.4773 -0.3236
60797SOL    HW191359   4.389   2.825   8.092  0.8132 -1.1796  0.3094
60797SOL    HW291360   4.300   2.809   7.971  1.5621  0.4936 -0.4844
60798SOL     OW91361  12.564   3.239  10.311  0.5378 -0.3354 -0.1122
60798SOL    HW191362  12.647   3.238  10.359  0.5648 -1.1869 -0.1743
60798SOL    HW291363  12.577   3.179  10.238 -0.6968 -1.8231  0.8529
60799SOL     OW91364   2.796   8.225   8.905 -0.2602  0.4080 -0.1564
60799SOL    HW191365   2.857   8.212   8.978  0.0721  1.3324 -0.2575
60799SOL    HW291366   2.841   8.187   8.830  0.4297  1.4962 -0.3259
60800SOL     OW91367   8.854   4.812   4.705 -0.5852  0.5138 -0.0305
60800SOL    HW191368   8.900   4.887   4.665 -2.3567  1.8283  0.2965
60800SOL    HW291369   8.917   4.777   4.768  0.7873  0.8586 -1.1379
60801SOL     OW91370  10.622   5.298   5.618 -0.2341 -0.0127  0.6838
60801SOL    HW191371  10.642   5.205   5.604 -2.1437 -0.2903 -0.4615
60801SOL    HW291372  10.575   5.325   5.540  2.0858  2.5354 -0.0038
60802SOL     OW91373   3.543   9.965   1.645 -0.6703 -0.1678  0.0696
60802SOL    HW191374   3.565   9.988   1.555 -0.2241  0.7077  0.3829
60802SOL    HW291375   3.461   9.917   1.639  0.3896 -1.9363 -0.9814
60803SOL     OW91376   7.984   3.990   9.523  0.2005 -0.1949 -0.2618
60803SOL    HW191377   7.945   4.004   9.436  0.2693  0.9369 -0.1321
60803SOL    HW291378   8.074   3.962   9.504  0.1126 -0.2796 -0.5582
60804SOL     OW91379  12.349  11.877   2.727 -0.4762  0.0419  0.0969
60804SOL    HW191380  12.289  11.898   2.655  0.2024 -1.0154 -0.8128
60804SOL    HW291381  12.299  11.817   2.782 -0.7133  0.2210  0.0817
60805SOL     OW91382   7.355   0.598   7.845 -0.3920 -0.5003  0.1315
60805SOL    HW191383   7.427   0.548   7.807 -0.2649  0.0314 -0.3259
60805SOL    HW291384   7.331   0.662   7.778 -0.8672 -0.2498  0.5292
60806SOL     OW91385   1.214  12.253   9.942  0.2790  0.3052 -0.0498
60806SOL    HW191386   1.170  12.290   9.866  1.0359  1.5527  0.1037
60806SOL    HW291387   1.218  12.324  10.005  1.6211 -0.0656  0.3221
60807SOL     OW91388   9.335  10.579   7.424  0.2804 -0.5744 -0.2111
60807SOL    HW191389   9.338  10.672   7.447  0.0010 -0.8988  1.2799
60807SOL    HW291390   9.244  10.554   7.436  0.5168 -1.2327  0.2647
60808SOL     OW91391   7.763   8.594   5.282 -0.1322  0.3192  0.2906
60808SOL    HW191392   7.802   8.678   5.305 -0.7148  0.2913  1.3907
60808SOL    HW291393   7.675   8.615   5.252  0.1686  0.2164 -0.7426
60809SOL     OW91394   1.030   0.247   4.679 -0.4408  0.1452 -0.4796
60809SOL    HW191395   1.099   0.253   4.612 -0.5197 -0.9790 -0.6826
60809SOL    HW291396   0.969   0.318   4.657  0.5135  1.0083 -0.4392
60810SOL     OW91397   0.698   4.442   0.754  0.1465  0.3377  0.6307
60810SOL    HW191398   0.644   4.521   0.757  1.0934  0.9677  1.5970
60810SOL    HW291399   0.742   4.440   0.839  1.8143 -0.0416 -0.2028
60811SOL     OW91400   6.030   2.162   8.888 -0.5967 -0.5497 -1.1332
60811SOL    HW191401   6.033   2.108   8.809  1.6994 -2.3956  0.0858
60811SOL    HW291402   6.106   2.219   8.881  0.1223 -1.3076  0.0601
60812SOL     OW91403   3.756   0.210   5.080 -0.4046 -0.2317 -0.0645
60812SOL    HW191404   3.694   0.254   5.139  2.6462  1.3057  2.3071
60812SOL    HW291405   3.735   0.245   4.994 -0.6443  3.0812  1.1633
60813SOL     OW91406   5.377  12.482   1.949 -0.1316  0.3412  0.4778
60813SOL    HW191407   5.329  12.423   2.007  0.3697  0.2888  0.8533
60813SOL    HW291408   5.462  12.440   1.938  0.6018  1.4586  1.5621
60814SOL     OW91409   3.318   5.957   9.156 -0.1845 -0.3668  0.1770
60814SOL    HW191410   3.344   5.897   9.226 -1.7995 -1.0260  0.2476
60814SOL    HW291411   3.371   5.931   9.081 -0.1295 -1.1927  0.4928
60815SOL     OW91412   6.149   1.927   3.810 -0.3695 -0.4460 -0.4317
60815SOL    HW191413   6.108   1.945   3.725  0.3943  0.4511 -0.6284
60815SOL    HW291414   6.091   1.969   3.874  0.0895  0.6083 -0.6886
60816SOL     OW91415   0.803   4.439   7.759  0.5441  0.7209 -0.0535
60816SOL    HW191416   0.878   4.492   7.731  0.6478  0.0216 -1.1863
60816SOL    HW291417   0.842   4.367   7.808  0.7880 -0.3523 -1.7213
60817SOL     OW91418   6.378  12.315   6.165  0.3146  0.0849  0.5953
60817SOL    HW191419   6.326  12.328   6.086  0.6742  2.9635  0.6983
60817SOL    HW291420   6.465  12.291   6.133 -0.0639 -0.8966  0.2562
60818SOL     OW91421   1.849  12.001   7.180  0.1717  0.3914  0.8876
60818SOL    HW191422   1.826  11.934   7.244  0.6559 -0.3475  0.3082
60818SOL    HW291423   1.850  12.083   7.229  0.6641 -0.1776  1.8552
60819SOL     OW91424   4.386   0.823  10.000  0.4187  0.2748  0.3677
60819SOL    HW191425   4.465   0.772   9.984  0.5601  0.3696  0.7328
60819SOL    HW291426   4.315   0.759  10.002  0.7059 -0.0370  1.7072
60820SOL     OW91427   6.762   1.967   0.001 -0.6924 -0.5162 -0.6694
60820SOL    HW191428   6.731   1.885  -0.038 -1.0612  0.2468 -2.0635
60820SOL    HW291429   6.807   2.012  -0.071 -0.4318  0.4779  0.0892
60821SOL     OW91430   3.496   8.231   0.781  0.9413  0.1847 -0.0887
60821SOL    HW191431   3.449   8.192   0.855 -1.8241  2.5911 -0.3921
60821SOL    HW291432   3.580   8.260   0.819  0.3456 -0.2402  1.6475
60822SOL     OW91433   9.645   0.386   1.950 -0.0597  0.2548 -0.1804
60822SOL    HW191434   9.551   0.387   1.968 -0.0606  1.8057 -0.1421
60822SOL    HW291435   9.652   0.408   1.857  0.2153 -1.5709 -0.6236
60823SOL     OW91436   4.001   7.380   3.731 -0.4858 -0.1664 -0.3297
60823SOL    HW191437   4.093   7.381   3.707 -0.3998  0.6078  0.0225
60823SOL    HW291438   3.980   7.286   3.739 -0.0032 -0.3736 -1.3954
60824SOL     OW91439   3.022   1.084   1.926 -0.1349  0.0831 -0.6422
60824SOL    HW191440   3.066   1.030   1.991  0.2546  1.5362  0.3255
60824SOL    HW291441   2.929   1.065   1.938 -0.1399  1.0486  1.0107
60825SOL     OW91442   5.925   9.981   5.159 -0.0307 -0.1442 -0.6748
60825SOL    HW191443   5.867  10.057   5.156 -0.3915 -0.4389 -2.7086
60825SOL    HW291444   6.005  10.013   5.200  0.0670  1.5305 -2.0801
60826SOL     OW91445   8.584   6.523   6.457  0.0102  0.0206  0.0963
60826SOL    HW191446   8.630   6.506   6.539 -1.0868  0.7068  0.8851
60826SOL    HW291447   8.502   6.564   6.484  0.2609  1.6142 -1.4220
60827SOL     OW91448   9.373  10.513   6.987 -0.4512  0.0352  0.2718
60827SOL    HW191449   9.378  10.490   6.894  0.5378 -0.7846  0.5138
60827SOL    HW291450   9.377  10.429   7.033 -0.6091  0.4565  1.0712
60828SOL     OW91451  11.150   7.162  11.495 -0.1689 -0.3570  0.1597
60828SOL    HW191452  11.193   7.189  11.576  2.1744 -1.1126 -0.7432
60828SOL    HW291453  11.161   7.236  11.435  0.4068 -0.7754 -0.2598
60829SOL     OW91454   5.179   6.351   3.609 -0.0542  0.3140  0.0479
60829SOL    HW191455   5.207   6.432   3.653  1.1608  0.4270 -0.8621
60829SOL    HW291456   5.168   6.377   3.517  1.0369 -0.6815 -0.3895
60830SOL     OW91457   7.076  11.696  11.305  0.2280 -0.8368 -0.6542
60830SOL    HW191458   7.079  11.601  11.301  0.5566 -0.8049 -1.3570
60830SOL    HW291459   7.165  11.724  11.284  0.1965 -0.3812 -0.2018
60831SOL     OW91460   3.413   1.077  10.018  0.4544 -0.3949 -0.0363
60831SOL    HW191461   3.341   1.108  10.072  0.3470  0.6058 -0.7239
60831SOL    HW291462   3.405   0.982  10.019 -1.1871 -0.2907 -0.5017
60832SOL     OW91463   4.949   8.688   4.312 -0.0107  0.1821  0.0166
60832SOL    HW191464   5.001   8.662   4.388  0.4542  0.9641 -0.0235
60832SOL    HW291465   4.877   8.624   4.309  0.0162  0.0850  1.0473
60833SOL     OW91466   2.252  12.570  12.361 -0.7555  0.0577 -0.2366
60833SOL    HW191467   2.238  12.501  12.297 -0.5269 -0.0257 -0.1970
60833SOL    HW291468   2.321  12.537  12.418 -2.4647 -0.8147  1.4342
60834SOL     OW91469   5.706   0.878   9.746  0.1311 -0.2711  0.1414
60834SOL    HW191470   5.750   0.796   9.765  2.0589 -0.2838 -3.4699
60834SOL    HW291471   5.775   0.944   9.749 -0.8161  0.7383  0.2657
60835SOL     OW91472   7.115   8.993   6.573 -0.2199  0.3139 -0.5238
60835SOL    HW191473   7.140   9.085   6.582  0.3765  0.1503 -0.4971
60835SOL    HW291474   7.188   8.944   6.611 -0.2272 -0.1947 -1.1535
60836SOL     OW91475   3.081  11.693   2.369 -0.1969 -0.2900  0.1983
60836SOL    HW191476   3.166  11.665   2.337  0.4252 -0.0170  1.5317
60836SOL    HW291477   3.099  11.776   2.415 -1.1434 -0.3082  0.6239
60837SOL     OW91478   5.341   2.309   2.912  0.1018 -0.4411  0.1941
60837SOL    HW191479   5.416   2.276   2.862 -0.2071  0.3353 -0.8272
60837SOL    HW291480   5.270   2.249   2.890 -0.1085  0.0706 -0.5565
60838SOL     OW91481   8.523   7.004   0.832 -0.7529  0.3925  0.0801
60838SOL    HW191482   8.535   7.097   0.853 -0.3395  0.4539 -0.4134
60838SOL    HW291483   8.546   6.959   0.914 -3.5441  0.8149  1.1909
60839SOL     OW91484   7.581   5.825   7.460 -0.2077  0.3670  0.3271
60839SOL    HW191485   7.591   5.806   7.553 -1.0239 -1.9352  0.0153
60839SOL    HW291486   7.556   5.918   7.457  0.9870  0.8090  2.2888
60840SOL     OW91487  10.071   2.781   8.142  0.3789 -0.0811  0.1245
60840SOL    HW191488  10.161   2.775   8.110  0.0651 -0.6719 -0.6919
60840SOL    HW291489  10.079   2.813   8.232  1.3825  0.1388 -0.0325
60841SOL     OW91490   2.845  12.362   9.156  0.0307  0.3082 -0.2307
60841SOL    HW191491   2.861  12.329   9.244  0.9010  0.0619 -0.4760
60841SOL    HW291492   2.801  12.446   9.170 -0.2418  0.0630  0.4249
60842SOL     OW91493  11.362   1.314   7.853 -0.0797 -0.1800 -0.4424
60842SOL    HW191494  11.275   1.291   7.819 -0.4102  0.3691  0.0171
60842SOL    HW291495  11.345   1.360   7.935  0.6457 -0.0024 -0.3806
60843SOL     OW91496   8.089   0.473   3.450  0.4259  0.2856 -0.2405
60843SOL    HW191497   8.144   0.528   3.507 -0.2764 -0.5372  1.2789
60843SOL    HW291498   8.142   0.462   3.371  1.6866  1.0073  0.4556
60844SOL     OW91499   7.825   6.048   2.022 -0.2383 -0.0756  0.1288
60844SOL    HW191500   7.798   6.036   1.931 -1.8603  0.3150  0.5236
60844SOL    HW291501   7.754   6.010   2.074  1.5061 -1.9871  1.2662
60845SOL     OW91502   1.023   7.068  12.176 -0.3149 -0.3899  0.4922
60845SOL    HW191503   0.963   7.004  12.136 -1.9539  1.3089  0.1037
60845SOL    HW291504   0.977   7.099  12.253 -0.2436  1.4293 -0.1645
60846SOL     OW91505   4.451  12.583   9.567  0.2242  0.4071 -0.7355
60846SOL    HW191506   4.436  12.488   9.563  0.6758  0.3471 -0.9924
60846SOL    HW291507   4.464  12.601   9.660 -0.5870  0.3323 -0.5941
60847SOL     OW91508   2.128  10.680  12.350 -0.3338 -0.7773 -0.0593
60847SOL    HW191509   2.198  10.675  12.285  1.5576 -1.2404  1.8739
60847SOL    HW291510   2.047  10.677  12.299  1.0061  1.2761 -2.5193
60848SOL     OW91511   8.417   4.095   5.496 -0.2597 -0.7355  0.0507
60848SOL    HW191512   8.381   4.168   5.446  0.4553 -0.8272 -0.6192
60848SOL    HW291513   8.505   4.123   5.521 -1.2548  0.1092  3.0071
60849SOL     OW91514   2.324   3.230  10.330  0.5579 -0.1333 -0.6511
60849SOL    HW191515   2.270   3.172  10.276 -0.4047 -1.3333  1.4718
60849SOL    HW291516   2.277   3.313  10.331  0.1279 -0.3705 -0.9518
60850SOL     OW91517   6.728  10.597   3.249  0.4439  0.4598  0.5305
60850SOL    HW191518   6.691  10.580   3.162  1.6795 -0.9356  0.2300
60850SOL    HW291519   6.661  10.647   3.295 -0.9267 -0.2198 -0.6685
60851SOL     OW91520   6.131  10.230   6.959 -0.3491 -0.3199  0.2623
60851SOL    HW191521   6.065  10.298   6.945 -0.8444 -0.6346  0.9736
60851SOL    HW291522   6.094  10.176   7.029  0.3454 -0.9215  0.1721
60852SOL     OW91523   4.801   7.458   5.417 -0.1792  0.4923 -0.5610
60852SOL    HW191524   4.891   7.428   5.415 -0.2532  0.1106  0.7634
60852SOL    HW291525   4.807   7.553   5.418  0.2534  0.4653  0.3060
60853SOL     OW91526   4.952   2.536   9.408 -0.3505  0.0016  0.5582
60853SOL    HW191527   4.936   2.531   9.313 -0.9884 -0.2728  0.6746
60853SOL    HW291528   4.990   2.451   9.430 -1.3130 -0.4005  0.7396
60854SOL     OW91529   6.833   5.042   7.106  0.6525 -0.2825 -0.1892
60854SOL    HW191530   6.926   5.022   7.121  0.4322 -0.9415  0.3047
60854SOL    HW291531   6.786   4.987   7.168  0.0239  1.6939  1.2232
60855SOL     OW91532   6.831   8.544  12.564 -0.0760 -0.0706  0.1117
60855SOL    HW191533   6.852   8.626  12.518 -1.2425 -0.3432 -0.9805
60855SOL    HW291534   6.916   8.506  12.585  0.4934  0.7862 -0.5325
60856SOL     OW91535   8.052   7.822   9.018  0.5287 -0.4073 -0.3801
60856SOL    HW191536   8.120   7.849   9.080  0.5451  1.9188 -1.3302
60856SOL    HW291537   7.981   7.790   9.073  1.9723 -2.0379  0.6729
60857SOL     OW91538  10.253  10.891   2.619 -0.5116  0.0912  0.3405
60857SOL    HW191539  10.249  10.808   2.667  1.2721 -0.1937  0.0923
60857SOL    HW291540  10.318  10.875   2.551  0.0920  1.7835  0.4819
60858SOL     OW91541   5.135   4.676   7.991  0.2961 -0.0517  0.4479
60858SOL    HW191542   5.218   4.693   8.035 -0.0976  2.3023  0.4235
60858SOL    HW291543   5.071   4.671   8.061  0.0234  1.3399  0.3315
60859SOL     OW91544  10.926   8.257  10.764  0.1008  0.2520 -0.1828
60859SOL    HW191545  10.841   8.228  10.731 -0.6250  0.4316  1.4652
60859SOL    HW291546  10.912   8.348  10.790  0.7892  0.2692  0.1412
60860SOL     OW91547  10.588   0.230  10.754 -0.5470  0.8282  0.1615
60860SOL    HW191548  10.632   0.313  10.769 -0.4117  0.6008  1.0779
60860SOL    HW291549  10.657   0.172  10.721  0.0223  0.3015  2.1600
60861SOL     OW91550  10.268   2.899   0.677 -0.1105  0.0517  0.3522
60861SOL    HW191551  10.226   2.847   0.608 -0.0292  0.3993  0.0419
60861SOL    HW291552  10.361   2.895   0.656  0.0127 -0.6525  0.9945
60862SOL     OW91553   0.386   4.476   7.045  0.3466  0.0558  0.1021
60862SOL    HW191554   0.346   4.391   7.065  0.9789 -0.3199 -0.2078
60862SOL    HW291555   0.416   4.468   6.954  2.2020 -0.1231  0.6743
60863SOL     OW91556   8.812   6.935   8.825 -0.4632  0.0525 -0.2942
60863SOL    HW191557   8.853   6.939   8.911 -0.2971  2.6784 -0.4261
60863SOL    HW291558   8.783   7.025   8.808 -0.4076 -0.3752 -3.0248
60864SOL     OW91559   0.398   0.804  11.817  0.4024  0.1246  0.1456
60864SOL    HW191560   0.444   0.722  11.836 -0.4186 -0.4446 -0.2945
60864SOL    HW291561   0.406   0.815  11.722 -1.5176 -0.7177 -0.1683
60865SOL     OW91562   0.422   9.721   1.700  0.0237  0.4395 -0.3392
60865SOL    HW191563   0.430   9.749   1.608 -1.4733  1.6305 -0.1520
60865SOL    HW291564   0.334   9.684   1.705  0.2435  0.0241  0.5449
60866SOL     OW91565   5.241   2.179   4.688 -0.2128 -0.0751 -0.0948
60866SOL    HW191566   5.252   2.087   4.662  0.9719 -0.0089  0.1061
60866SOL    HW291567   5.316   2.224   4.648 -1.3320  1.0055 -1.0614
60867SOL     OW91568   8.372  12.165   2.444 -0.4569  0.2645  0.4990
60867SOL    HW191569   8.395  12.175   2.536 -1.9048 -0.6572  0.9945
60867SOL    HW291570   8.375  12.070   2.429  1.8347  0.5103 -0.9993
60868SOL     OW91571  12.070   6.303   2.765  0.2311  0.4355 -0.2074
60868SOL    HW191572  12.088   6.248   2.841  0.7432  1.1478  0.1997
60868SOL    HW291573  12.147   6.292   2.709  0.0270  0.2080 -0.4414
60869SOL     OW91574   4.280   1.452   4.345  0.0629 -0.6354 -0.3061
60869SOL    HW191575   4.339   1.391   4.301  1.0250  0.1920 -0.2055
60869SOL    HW291576   4.238   1.501   4.273  0.1568 -0.6245 -0.3532
60870SOL     OW91577  10.737   4.088   3.972 -0.4006  0.2652  0.3458
60870SOL    HW191578  10.709   4.174   4.003 -0.8123  0.9321 -1.7317
60870SOL    HW291579  10.831   4.087   3.986 -0.3234  1.2566 -0.0198
60871SOL     OW91580   8.103   9.560   6.182 -0.5478 -0.4005 -0.0461
60871SOL    HW191581   8.031   9.508   6.147 -0.8947 -0.5047  0.8074
60871SOL    HW291582   8.077   9.651   6.167 -0.2831 -0.4518 -0.8592
60872SOL     OW91583   3.457   8.277   2.872  0.2471 -0.2671  0.2329
60872SOL    HW191584   3.435   8.296   2.963 -0.2402  0.8258 -0.0905
60872SOL    HW291585   3.376   8.297   2.824  0.9893  0.7589 -0.6193
60873SOL     OW91586   1.803   2.836   4.208  0.1211  0.3442  0.6597
60873SOL    HW191587   1.877   2.815   4.264 -0.3790 -1.8541  0.5857
60873SOL    HW291588   1.828   2.805   4.121 -0.0321  1.6140  0.1388
60874SOL     OW91589   2.320   4.526  12.166  0.4024 -0.0576  0.3091
60874SOL    HW191590   2.271   4.496  12.242 -0.3838 -2.1138 -0.9206
60874SOL    HW291591   2.297   4.464  12.097  0.8516  1.8743 -1.6976
60875SOL     OW91592  12.063   7.095  11.659  0.0681 -0.7528 -0.1193
60875SOL    HW191593  12.067   7.183  11.621 -2.5736 -0.4218  0.1592
60875SOL    HW291594  12.100   7.105  11.747 -0.1669  0.0887 -0.1076
60876SOL     OW91595   3.585  12.554   9.968 -0.3051 -0.1599 -0.2265
60876SOL    HW191596   3.544  12.508   9.895 -0.0085 -1.4007  0.3524
60876SOL    HW291597   3.630  12.485  10.018  0.7077  0.8491  0.3257
60877SOL     OW91598   5.415   7.125   0.963  0.2321 -0.1503  0.2342
60877SOL    HW191599   5.323   7.102   0.976 -0.5522  3.3687  2.1647
60877SOL    HW291600   5.461   7.077   1.032 -0.3338 -0.8372  0.1483
60878SOL     OW91601   5.477   0.848   8.074  0.4385  0.0988 -0.0506
60878SOL    HW191602   5.459   0.754   8.077 -0.2785  0.2208 -0.2422
60878SOL    HW291603   5.531   0.864   8.151  0.6394 -0.4854 -0.0622
60879SOL     OW91604   0.437   3.178   0.011 -0.9024 -0.2911 -0.5181
60879SOL    HW191605   0.357   3.230   0.021 -0.8621 -0.0802 -1.1860
60879SOL    HW291606   0.482   3.218  -0.064  1.2338  1.3662  1.4975
60880SOL     OW91607   9.333  11.467   3.244 -0.5743 -0.2888 -0.5847
60880SOL    HW191608   9.317  11.372   3.243  1.3053 -0.6504 -0.1501
60880SOL    HW291609   9.380  11.484   3.163 -0.0611  0.1120 -0.2049
60881SOL     OW91610  12.094   7.916   4.713  0.3337 -0.1189 -0.4466
60881SOL    HW191611  12.046   7.899   4.632 -0.2431 -1.9597  0.2210
60881SOL    HW291612  12.060   7.999   4.745 -1.4763 -0.7366 -0.6738
60882SOL     OW91613   0.220   7.564  12.095 -0.5082 -0.6725  0.5425
60882SOL    HW191614   0.250   7.654  12.083  2.1927 -1.3758  1.3883
60882SOL    HW291615   0.292   7.510  12.061 -1.9960 -2.5398  0.1992
60883SOL     OW91616   6.795   4.563   8.997  0.1391 -0.2654 -0.2199
60883SOL    HW191617   6.721   4.529   9.047  0.4880 -0.0035  0.4892
60883SOL    HW291618   6.775   4.540   8.906 -1.0728  0.2737 -0.1105
60884SOL     OW91619   9.914   8.436   5.205 -0.3350  0.3751  0.3158
60884SOL    HW191620   9.989   8.494   5.193 -0.0251 -0.1298 -0.2681
60884SOL    HW291621   9.891   8.445   5.297  0.0038  1.0672  0.3349
60885SOL     OW91622   0.275   7.601   6.720  0.3560 -0.6182  0.3730
60885SOL    HW191623   0.285   7.507   6.706  0.0829 -0.6190  0.1787
60885SOL    HW291624   0.190   7.623   6.681 -0.4747 -0.6326  2.0652
60886SOL     OW91625   4.193   7.441   8.748  0.5639 -0.4056  0.0026
60886SOL    HW191626   4.112   7.402   8.714  1.8030 -2.2562 -0.9760
60886SOL    HW291627   4.202   7.524   8.701 -1.1481  0.2388  0.7289
60887SOL     OW91628   0.872  10.812  10.195  0.1725 -0.4963  0.6749
60887SOL    HW191629   0.804  10.794  10.260  2.1894  0.2179  3.1102
60887SOL    HW291630   0.949  10.837  10.246  1.8393  0.3036 -2.0144
60888SOL     OW91631   3.692   6.531  11.087 -0.2678  0.1019  0.2495
60888SOL    HW191632   3.719   6.494  11.172  1.4539 -0.9783 -0.7203
60888SOL    HW291633   3.704   6.625  11.098 -1.1608  0.1084  1.5431
60889SOL     OW91634   0.521   4.632   0.686 -0.6624  0.3985 -0.1536
60889SOL    HW191635   0.431   4.634   0.654 -1.1662 -3.1111  0.6147
60889SOL    HW291636   0.518   4.678   0.770 -1.8882 -0.2318  0.1637
60890SOL     OW91637   2.956  11.374   5.935  0.1864 -0.3722 -0.9246
60890SOL    HW191638   2.999  11.439   5.990 -0.9191  0.0768 -0.5648
60890SOL    HW291639   3.021  11.306   5.922  1.1335  0.4816 -0.7349
60891SOL     OW91640   5.914   6.424   4.596 -0.4638  0.3748  0.0175
60891SOL    HW191641   5.976   6.368   4.550 -1.7367 -1.7790  0.7501
60891SOL    HW291642   5.951   6.512   4.590  1.6291 -0.5227 -1.2205
60892SOL     OW91643   4.129   2.476   5.265  0.5999  0.3114 -0.2836
60892SOL    HW191644   4.202   2.484   5.326 -0.8771  1.1253  1.4747
60892SOL    HW291645   4.051   2.471   5.321 -0.8809  1.6500 -2.0833
60893SOL     OW91646   0.490  10.747   7.732  0.6248  0.2286 -0.5640
60893SOL    HW191647   0.451  10.661   7.745 -0.4167  0.9220  1.1588
60893SOL    HW291648   0.436  10.788   7.664 -1.2491  0.8603  1.2079
60894SOL     OW91649   9.431   1.958  10.469  0.1308  0.5634 -0.0410
60894SOL    HW191650   9.435   2.035  10.413  1.1199 -0.0915 -0.8930
60894SOL    HW291651   9.513   1.959  10.518 -0.2712  0.5579  0.6526
60895SOL     OW91652   7.437  12.098   1.476 -0.4679 -0.2267 -0.9572
60895SOL    HW191653   7.468  12.098   1.566 -1.1919 -0.2800 -0.7032
60895SOL    HW291654   7.483  12.024   1.435 -0.2227 -0.2710 -0.6072
60896SOL     OW91655   9.448  10.951   5.550 -0.2180  0.1773 -0.2046
60896SOL    HW191656   9.463  10.896   5.473 -0.6330 -0.7522  0.3529
60896SOL    HW291657   9.390  11.020   5.519  0.8982  0.7305 -1.0944
60897SOL     OW91658   6.368  11.613   0.088 -0.0184 -0.1034 -0.6458
60897SOL    HW191659   6.310  11.687   0.110  1.6907  1.2991 -0.6525
60897SOL    HW291660   6.341  11.543   0.148  0.0658  1.4189  1.2857
60898SOL     OW91661   4.419   4.469  11.425  0.3662  0.1239  0.3099
60898SOL    HW191662   4.329   4.483  11.455  0.5891  2.2086  0.1112
60898SOL    HW291663   4.473   4.487  11.503  0.6086 -2.6755  0.8947
60899SOL     OW91664   6.898  10.370   5.910 -0.0242  0.2393 -0.3148
60899SOL    HW191665   6.910  10.349   6.002 -0.4581  1.3533  0.0170
60899SOL    HW291666   6.982  10.349   5.870  0.6516  1.0689  0.6093
60900SOL     OW91667   8.029   4.505   7.108  0.0538 -0.0518 -0.2806
60900SOL    HW191668   8.093   4.550   7.053 -2.4508  2.1463 -1.5886
60900SOL    HW291669   7.966   4.572   7.134 -1.1627 -1.8632  1.8899
60901SOL     OW91670   2.797   3.045   1.759 -0.5472 -0.0571  0.1222
60901SOL    HW191671   2.857   3.012   1.826 -0.4412  0.4019  0.2597
60901SOL    HW291672   2.787   3.138   1.781 -1.2285 -0.1087  0.0438
60902SOL     OW91673  10.584   9.549   2.132 -0.3833  0.0730  0.1704
60902SOL    HW191674  10.550   9.592   2.210 -2.3742 -2.1702  0.6716
60902SOL    HW291675  10.572   9.456   2.149  0.0547 -0.5447 -2.4160
60903SOL     OW91676  12.589   9.632   3.719 -0.9005 -0.3415 -0.2180
60903SOL    HW191677  12.512   9.637   3.776 -1.3797  1.2569 -0.9428
60903SOL    HW291678  12.556   9.649   3.631  0.2090 -0.0802 -0.6041
60904SOL     OW91679   7.388   0.233  10.507 -0.2367  0.3411 -0.2914
60904SOL    HW191680   7.334   0.217  10.429  0.1553  0.3299 -0.5615
60904SOL    HW291681   7.474   0.257  10.473  0.9368 -2.8288  0.1021
60905SOL     OW91682  12.227   6.575   8.660 -0.6227 -0.2437  0.1901
60905SOL    HW191683  12.146   6.581   8.711 -0.0541  1.1068  0.9791
60905SOL    HW291684  12.206   6.513   8.590 -1.5166 -1.9372  1.8661
60906SOL     OW91685   5.946   2.911  12.110  0.6090 -0.6760  0.7114
60906SOL    HW191686   6.033   2.899  12.147  0.5954 -0.6614  0.7486
60906SOL    HW291687   5.920   2.999  12.139  0.8485 -0.4149  0.1564
60907SOL     OW91688   8.902   7.018   7.660  0.1163 -0.0173 -0.3396
60907SOL    HW191689   8.833   7.075   7.694  0.9590  2.1800 -1.9968
60907SOL    HW291690   8.856   6.941   7.626 -1.3134  0.5539  0.2512
60908SOL     OW91691   6.621   8.217   0.007 -0.3684 -0.0061 -0.1495
60908SOL    HW191692   6.556   8.273   0.048 -0.1792 -0.0436  0.2011
60908SOL    HW291693   6.705   8.250   0.038 -0.1366  0.7578 -1.4687
60909SOL     OW91694   3.750   1.313   5.721  0.1399  0.1327 -0.0891
60909SOL    HW191695   3.791   1.227   5.724  0.6311  0.3753  0.3862
60909SOL    HW291696   3.801   1.362   5.656  0.8915  0.5627  0.7915
60910SOL     OW91697   8.401   0.318  10.963 -0.1295 -0.9193  0.1611
60910SOL    HW191698   8.466   0.357  11.021  1.3273 -4.1593  0.9360
60910SOL    HW291699   8.448   0.299  10.883 -0.7312 -1.2629 -0.1162
60911SOL     OW91700  11.789   5.424   0.268 -0.4404  0.2967  0.4445
60911SOL    HW191701  11.859   5.441   0.331 -0.4553 -0.2755  0.6226
60911SOL    HW291702  11.833   5.380   0.195 -0.3222  1.4772 -0.2112
60912SOL     OW91703   0.534   4.192   1.139 -0.0367  0.2507  0.0412
60912SOL    HW191704   0.552   4.201   1.046 -1.3205  1.9200 -0.0698
60912SOL    HW291705   0.470   4.121   1.144 -0.9071  0.9900 -0.4687
60913SOL     OW91706   6.387   3.273   5.983 -0.0352 -0.2450  0.0504
60913SOL    HW191707   6.461   3.253   6.040  0.5771 -1.3772 -1.1041
60913SOL    HW291708   6.424   3.329   5.914 -0.6235  0.5577  0.3728
60914SOL     OW91709  12.511   2.838   2.005  0.4590  0.2934 -0.1410
60914SOL    HW191710  12.574   2.807   1.940  1.1334  3.3110 -1.0506
60914SOL    HW291711  12.426   2.828   1.963  0.8046  1.2048 -1.0895
60915SOL     OW91712   4.092   5.334   0.689 -0.0280 -0.4229  0.1247
60915SOL    HW191713   4.088   5.239   0.674  0.0093 -0.6925  1.6966
60915SOL    HW291714   4.002   5.360   0.706  0.2484 -0.6137  2.0428
60916SOL     OW91715  11.957   1.260  10.723  0.6507  0.1742  0.2701
60916SOL    HW191716  11.953   1.233  10.632 -1.3521 -0.1118  0.4060
60916SOL    HW291717  11.912   1.345  10.726 -0.9833 -0.6756  1.2464
60917SOL     OW91718  12.451  11.273   4.987 -0.2191  0.1945 -0.0901
60917SOL    HW191719  12.359  11.249   4.989  0.2173 -1.7238 -0.8959
60917SOL    HW291720  12.482  11.258   5.077 -0.5462  0.2596  0.0341
60918SOL     OW91721   9.722   4.899   8.054  0.4792  0.3789 -0.1137
60918SOL    HW191722   9.672   4.975   8.084  1.2391  0.6220  0.5840
60918SOL    HW291723   9.812   4.930   8.050  0.3630  0.6169 -3.5722
60919SOL     OW91724   6.176   8.123  12.531  0.5600 -0.4650 -0.9114
60919SOL    HW191725   6.226   8.201  12.555  0.4655 -1.0037  1.2373
60919SOL    HW291726   6.141   8.143  12.444 -0.0063  2.1449 -0.1822
60920SOL     OW91727   5.852   4.796   2.926 -0.3336  0.4811  0.0607
60920SOL    HW191728   5.879   4.746   2.849  0.4042  0.2284  0.4711
60920SOL    HW291729   5.757   4.786   2.929 -0.2863 -0.1567 -0.3674
60921SOL     OW91730   0.589   8.274   6.542 -0.3351 -0.1271 -0.2906
60921SOL    HW191731   0.651   8.218   6.589  0.4331  0.6691 -0.3530
60921SOL    HW291732   0.533   8.212   6.495 -0.4459 -0.8981  0.8132
60922SOL     OW91733  11.664   7.427  12.398  0.1753 -0.2119  0.5142
60922SOL    HW191734  11.759   7.422  12.386  0.0391  0.6309 -1.2704
60922SOL    HW291735  11.644   7.356  12.459  1.7360 -1.5556 -0.4311
60923SOL     OW91736   6.678   0.322   7.166  0.3786  0.0816 -0.1646
60923SOL    HW191737   6.625   0.353   7.092  1.9137  0.5642 -1.1121
60923SOL    HW291738   6.707   0.235   7.139  0.8875  0.2341 -0.1153
60924SOL     OW91739   2.566   6.332   7.727 -0.5101  0.0617  0.4435
60924SOL    HW191740   2.520   6.334   7.643 -1.6040  1.0710  1.0443
60924SOL    HW291741   2.645   6.281   7.709 -1.2358 -0.6504 -0.9343
60925SOL     OW91742  10.164   5.964   2.743  0.2736  0.3986  0.4184
60925SOL    HW191743  10.104   5.963   2.669  0.8282 -0.0611 -0.0428
60925SOL    HW291744  10.122   6.019   2.809 -2.1146 -2.2757  1.3242
60926SOL     OW91745  10.033  12.208  12.280  0.1177  0.0580  0.3554
60926SOL    HW191746  10.028  12.191  12.374  1.0799 -0.1996  0.3738
60926SOL    HW291747   9.942  12.207  12.250 -0.0996 -1.4936  0.9915
60927SOL     OW91748   0.139  10.976   1.210 -0.2683 -0.2337  0.1315
60927SOL    HW191749   0.077  10.955   1.140  0.2697 -0.6969 -0.2172
60927SOL    HW291750   0.221  10.936   1.181  0.1459  0.2193  0.6710
60928SOL     OW91751   2.077   1.978   2.583 -0.0302  0.6891 -0.3085
60928SOL    HW191752   2.057   1.884   2.585  2.2663  0.1456  0.5438
60928SOL    HW291753   1.999   2.020   2.619 -0.9431 -0.9246 -0.3128
60929SOL     OW91754   1.934   5.277   6.851 -0.0203  0.1846  0.2780
60929SOL    HW191755   1.845   5.276   6.817  0.0053 -0.2404  0.2235
60929SOL    HW291756   1.969   5.362   6.822 -1.1710  1.4263  2.3116
60930SOL     OW91757   2.467  11.246  10.330  0.1653 -0.0606  0.1175
60930SOL    HW191758   2.379  11.226  10.299 -0.2868  3.4644 -1.3086
60930SOL    HW291759   2.517  11.165  10.313 -1.9931 -1.0381 -2.2749
60931SOL     OW91760   7.176   9.132   7.973 -0.3915 -0.2048  0.4334
60931SOL    HW191761   7.093   9.151   7.929 -0.4492 -1.0888  0.1209
60931SOL    HW291762   7.196   9.210   8.023 -0.7642  0.5147 -0.5051
60932SOL     OW91763   6.361   8.873   1.728 -0.3437  0.0295 -0.1354
60932SOL    HW191764   6.325   8.792   1.692 -3.1420 -0.1236  2.5188
60932SOL    HW291765   6.423   8.844   1.795 -1.2826  0.0125  0.7561
60933SOL     OW91766   6.635   2.839   2.229  0.8942 -0.4788 -0.3917
60933SOL    HW191767   6.558   2.798   2.189 -0.3711  1.9519 -0.7116
60933SOL    HW291768   6.610   2.852   2.321  0.3669  1.3780 -0.7548
60934SOL     OW91769   9.711   6.859   8.284  0.0738  0.5351 -0.5156
60934SOL    HW191770   9.744   6.939   8.326 -1.1272  1.3433 -1.0741
60934SOL    HW291771   9.690   6.801   8.357  0.9571  0.7046 -0.1042
60935SOL     OW91772   5.822   6.931   5.379 -0.8313  0.1856 -0.4071
60935SOL    HW191773   5.778   6.920   5.464 -0.7572 -0.9870 -0.4995
60935SOL    HW291774   5.757   6.903   5.315 -0.1618 -1.1034 -0.5748
60936SOL     OW91775   8.873   1.011   1.346 -0.4571  0.6506  0.2471
60936SOL    HW191776   8.965   0.986   1.335 -1.2126 -1.7953 -1.3839
60936SOL    HW291777   8.838   1.015   1.257 -2.1456  0.5360  0.8570
60937SOL     OW91778   3.252   6.381  11.136 -0.2738 -0.6810 -0.2150
60937SOL    HW191779   3.187   6.369  11.067  0.3152 -0.2179 -0.8583
60937SOL    HW291780   3.335   6.356  11.096 -0.1181 -1.8615  0.7807
60938SOL     OW91781   7.975   2.319   6.084  0.1821 -0.0996  0.1206
60938SOL    HW191782   8.062   2.285   6.067  0.5794  0.0576  1.6949
60938SOL    HW291783   7.939   2.261   6.151 -0.5166  0.4790  0.2625
60939SOL     OW91784   5.293  11.154  12.597  0.4260  0.1225  0.0629
60939SOL    HW191785   5.317  11.145  12.504  0.5858 -1.0539  0.1993
60939SOL    HW291786   5.248  11.238  12.602  0.1520  0.0703 -1.1422
60940SOL     OW91787   0.863   5.386   3.014 -0.1666 -0.0536 -0.6480
60940SOL    HW191788   0.797   5.344   3.068 -0.2018  0.9411  0.1016
60940SOL    HW291789   0.839   5.478   3.013  0.7114  0.1829 -1.0967
60941SOL     OW91790  12.067   6.980  12.103  0.1451 -0.5614 -0.6112
60941SOL    HW191791  12.023   6.899  12.129  0.2210 -0.4960 -0.2770
60941SOL    HW291792  12.150   6.979  12.150 -0.0998 -0.0114 -0.1485
60942SOL     OW91793   4.171   5.984   7.584  0.0748  0.8656  0.0613
60942SOL    HW191794   4.121   6.006   7.505 -0.7948 -0.2550  0.2840
60942SOL    HW291795   4.162   5.889   7.592  1.1465  0.8208  0.8572
60943SOL     OW91796   0.250  10.296   7.336  0.4613 -0.2288 -0.3707
60943SOL    HW191797   0.239  10.369   7.274  1.2171  0.3505  0.1481
60943SOL    HW291798   0.334  10.315   7.380 -0.2673 -0.3560  1.1552
60944SOL     OW91799  10.930   6.975  12.396 -0.2865 -0.2631  0.2875
60944SOL    HW191800  10.870   6.951  12.325 -1.1354  0.7766  0.6313
60944SOL    HW291801  11.009   7.006  12.352 -0.7536  0.2373 -0.2136
60945SOL     OW91802   7.392   2.759   5.934 -0.6257 -0.1937 -0.0281
60945SOL    HW191803   7.375   2.798   6.020 -0.2042  0.7777 -0.3740
60945SOL    HW291804   7.315   2.781   5.882 -0.5941 -0.2336 -0.0923
60946SOL     OW91805   0.147   2.294   9.051 -0.3884 -0.5530  0.7859
60946SOL    HW191806   0.219   2.236   9.071  0.5229  0.1829 -0.2710
60946SOL    HW291807   0.185   2.362   8.995 -1.9942 -0.4238 -0.2108
60947SOL     OW91808   5.954  10.740   6.500  0.3052  0.1028 -0.2935
60947SOL    HW191809   5.923  10.692   6.423 -0.9159  0.2925  0.0707
60947SOL    HW291810   5.904  10.704   6.573  0.7096  0.6463  0.2637
60948SOL     OW91811  10.396   9.414   0.031  0.9449  0.0504 -0.1552
60948SOL    HW191812  10.398   9.508   0.047 -0.1566  0.0511  0.0623
60948SOL    HW291813  10.384   9.406  -0.063  1.3870  0.1228 -0.2171
60949SOL     OW91814  12.195   5.517   2.101  0.0057  0.3399  0.4719
60949SOL    HW191815  12.268   5.552   2.151 -0.0465  1.0400  0.0701
60949SOL    HW291816  12.235   5.480   2.022  0.0748 -0.6446  0.9534
60950SOL     OW91817   2.654   0.557   1.032  0.0778 -0.2325 -0.4919
60950SOL    HW191818   2.685   0.477   0.990 -2.1765 -2.4107  1.6182
60950SOL    HW291819   2.688   0.552   1.122 -0.5892  0.8628 -0.1535
60951SOL     OW91820  11.787   6.016   1.191 -0.5259  0.5358 -0.4017
60951SOL    HW191821  11.726   6.089   1.199 -0.2880  0.7024 -0.0725
60951SOL    HW291822  11.731   5.939   1.179 -0.7523  0.9337 -2.1635
60952SOL     OW91823   7.413   0.660   1.990 -0.1192  0.4706 -0.4808
60952SOL    HW191824   7.432   0.753   1.974 -0.2822  0.4312 -0.9260
60952SOL    HW291825   7.332   0.644   1.941 -0.5345  0.2928  0.2560
60953SOL     OW91826   4.756   2.983   8.997 -0.0851 -0.0874  0.3104
60953SOL    HW191827   4.705   2.992   8.916 -0.3693  0.0951  0.5124
60953SOL    HW291828   4.847   2.998   8.969 -0.2468  0.5666  0.1306
60954SOL     OW91829   8.485   1.220   8.085 -0.1768  0.2841  0.0072
60954SOL    HW191830   8.455   1.182   8.003  0.0254  0.0693  0.0306
60954SOL    HW291831   8.562   1.168   8.108 -1.2397 -0.8082  1.2486
60955SOL     OW91832   4.417   9.924   6.079 -0.0027 -0.1387  0.1259
60955SOL    HW191833   4.494   9.960   6.035 -0.5746  1.2122  0.1894
60955SOL    HW291834   4.389   9.852   6.023  0.9866 -0.3005 -0.1824
60956SOL     OW91835   8.652   5.304   7.938  0.1588 -0.1870 -0.0492
60956SOL    HW191836   8.568   5.262   7.957  0.7748 -0.9693  1.0153
60956SOL    HW291837   8.711   5.232   7.916  0.8269  0.2659  0.2213
60957SOL     OW91838   5.839  11.225   9.498  0.0702 -0.3874  0.4011
60957SOL    HW191839   5.890  11.187   9.569  1.5537  0.5876 -0.0952
60957SOL    HW291840   5.902  11.236   9.426 -0.6228  1.5638  0.0261
60958SOL     OW91841   2.386  10.103   6.619 -0.7183  0.1672 -0.3667
60958SOL    HW191842   2.449  10.110   6.691  0.6946 -2.3087 -1.2444
60958SOL    HW291843   2.412  10.172   6.557  0.8373 -0.4753 -0.4727
60959SOL     OW91844  10.088  12.491  11.758 -0.1742 -0.4463  0.4494
60959SOL    HW191845  10.014  12.496  11.698  0.3640 -1.1331 -0.3115
60959SOL    HW291846  10.100  12.581  11.790 -1.3409 -0.3422  0.6075
60960SOL     OW91847   8.204   6.679   2.543 -0.0005 -0.1770  0.1563
60960SOL    HW191848   8.113   6.649   2.555 -1.0895  2.3334 -1.0535
60960SOL    HW291849   8.225   6.724   2.624 -1.7673  3.4926 -1.1849
60961SOL     OW91850   4.900   5.598   8.619  0.8232 -0.3074 -0.1800
60961SOL    HW191851   4.876   5.574   8.530  0.2790 -1.2242  0.1908
60961SOL    HW291852   4.953   5.525   8.651  2.0067  0.5466 -0.1285
60962SOL     OW91853   4.880   4.695   4.275  0.0282 -0.3632  0.5102
60962SOL    HW191854   4.865   4.756   4.347 -1.0385 -0.7286  0.6132
60962SOL    HW291855   4.974   4.702   4.257 -0.1072  1.4022  0.4088
60963SOL     OW91856   0.278   2.836   1.004 -0.8102  0.1993  0.5714
60963SOL    HW191857   0.198   2.794   0.975 -1.0866  0.9053  0.2871
60963SOL    HW291858   0.340   2.822   0.933 -0.4907 -0.8513  1.0408
60964SOL     OW91859   2.453  11.056   8.232  0.0247  0.7231 -0.4395
60964SOL    HW191860   2.422  11.008   8.309  1.2632  0.0086 -0.3691
60964SOL    HW291861   2.473  11.143   8.265 -0.3808  0.7154 -0.1617
60965SOL     OW91862   1.575   3.115   9.504 -0.0689 -0.2817 -0.1349
60965SOL    HW191863   1.644   3.122   9.570  0.2050 -0.6493 -0.3707
60965SOL    HW291864   1.623   3.115   9.420 -0.5589  4.5200 -0.7039
60966SOL     OW91865  11.794  11.892   1.108 -0.4069 -0.0629 -0.4364
60966SOL    HW191866  11.741  11.816   1.084  0.0958 -0.7701  0.6002
60966SOL    HW291867  11.732  11.965   1.112 -1.5324 -1.0613  1.7696
60967SOL     OW91868   6.866   6.645  12.390  0.0809  0.3895 -0.4178
60967SOL    HW191869   6.895   6.697  12.315 -0.0024  0.3595 -0.4711
60967SOL    HW291870   6.807   6.580  12.353 -1.8143  1.8258 -0.0605
60968SOL     OW91871   1.848   7.533   8.294 -0.2185  0.3736  0.2537
60968SOL    HW191872   1.815   7.444   8.297  0.1026  0.1501 -1.6888
60968SOL    HW291873   1.929   7.527   8.244 -1.5991  2.1033 -2.4049
60969SOL     OW91874   4.872   0.103   3.174 -0.1456 -0.8676  0.6291
60969SOL    HW191875   4.859   0.181   3.120  1.8657  0.7559  2.3236
60969SOL    HW291876   4.940   0.053   3.129 -0.0296 -0.6302  0.5405
60970SOL     OW91877   2.775   4.262   8.945 -0.2321  0.2915  0.4587
60970SOL    HW191878   2.791   4.318   9.021 -2.1277  3.4007 -1.2258
60970SOL    HW291879   2.680   4.251   8.943 -0.3283  0.9700 -1.8234
60971SOL     OW91880   7.849  11.181   2.091  0.2223 -0.2951  0.2348
60971SOL    HW191881   7.786  11.245   2.056  0.0931 -1.2742 -1.4729
60971SOL    HW291882   7.931  11.229   2.098 -0.3630  0.6098  1.0521
60972SOL     OW91883   3.082   0.637   9.330  0.3433  0.3026  0.0553
60972SOL    HW191884   2.998   0.608   9.295  0.2368  1.5414 -0.7797
60972SOL    HW291885   3.131   0.666   9.254  0.8472  1.2629  0.7167
60973SOL     OW91886   9.462   0.127   1.971  0.4482  0.4366 -0.0119
60973SOL    HW191887   9.528   0.061   1.950 -0.8890 -0.7997 -0.5187
60973SOL    HW291888   9.423   0.149   1.886 -0.8109  0.0097  0.4455
60974SOL     OW91889   5.189   2.552  11.599 -0.3731 -0.8573  0.2481
60974SOL    HW191890   5.223   2.641  11.608 -0.3281 -0.7550 -0.7550
60974SOL    HW291891   5.094   2.563  11.595 -0.3886 -0.8923  0.5339
60975SOL     OW91892  10.707   4.246   1.081  0.2781 -0.0557 -0.0579
60975SOL    HW191893  10.800   4.232   1.095  0.2303  0.0865  0.4131
60975SOL    HW291894  10.675   4.284   1.163  0.3053  2.3784 -1.0952
60976SOL     OW91895   3.936   0.801   4.330 -0.0329  0.0196 -0.2058
60976SOL    HW191896   3.854   0.763   4.362 -0.5804 -0.2349 -1.7979
60976SOL    HW291897   3.998   0.788   4.401 -1.1887 -0.4206  0.7647
60977SOL     OW91898   7.194   5.235   3.751 -0.2371 -0.6784 -0.2691
60977SOL    HW191899   7.209   5.142   3.734 -2.4071 -1.4251  1.3745
60977SOL    HW291900   7.100   5.240   3.772 -0.4875  2.1250 -1.7190
60978SOL     OW91901  12.478   6.865   8.417 -0.2949  0.4031 -0.0928
60978SOL    HW191902  12.388   6.839   8.436 -0.5764  1.3509 -0.0857
60978SOL    HW291903  12.505   6.807   8.346 -0.5519 -0.5637  0.5731
60979SOL     OW91904  11.002   0.306   4.008 -0.3758  0.3315  0.1316
60979SOL    HW191905  11.053   0.357   4.072 -0.7706  2.4204 -1.1112
60979SOL    HW291906  10.917   0.350   4.006  0.0768  1.2831 -2.8120
60980SOL     OW91907   9.157   5.549  10.346  0.0345  0.2089  0.1866
60980SOL    HW191908   9.067   5.525  10.366  0.6340 -1.6234  0.8608
60980SOL    HW291909   9.198   5.565  10.431  0.5875  0.0478 -0.0428
60981SOL     OW91910   0.001   2.327   3.033 -0.4505  0.3564 -0.2582
60981SOL    HW191911   0.024   2.273   2.957 -1.2501 -0.1765 -0.1327
60981SOL    HW291912  -0.081   2.370   3.009  0.3086  1.7373 -0.4506
60982SOL     OW91913   9.826   6.326  12.041 -0.2029 -0.0489  0.2383
60982SOL    HW191914   9.906   6.317  11.989 -0.3081 -1.4739  0.2933
60982SOL    HW291915   9.756   6.292  11.985 -0.8367  1.4092  0.0988
60983SOL     OW91916   4.244  10.298   3.506  0.2714 -0.3813 -0.0117
60983SOL    HW191917   4.150  10.288   3.494  0.4937 -0.9145 -1.4317
60983SOL    HW291918   4.283  10.245   3.437  1.6091  0.3175  0.1770
60984SOL     OW91919   2.321   1.188   8.910  0.1636  0.8832  0.4704
60984SOL    HW191920   2.319   1.094   8.894  1.0725  0.9906 -0.3388
60984SOL    HW291921   2.413   1.208   8.925  0.3922  2.0549 -1.9942
60985SOL     OW91922   0.071   7.453  11.632 -0.0546 -0.0727 -0.0255
60985SOL    HW191923  -0.017   7.477  11.603 -0.1600 -0.7121 -0.2488
60985SOL    HW291924   0.062   7.364  11.666  0.6109 -0.3703 -0.5932
60986SOL     OW91925  11.331   8.708   9.838 -0.0815  0.0856 -0.0626
60986SOL    HW191926  11.421   8.678   9.850  0.3819  1.5995  0.4313
60986SOL    HW291927  11.312   8.759   9.916 -1.7437 -1.0139  0.3222
60987SOL     OW91928   8.007   7.390   1.135  0.0291 -0.2392 -0.3654
60987SOL    HW191929   7.926   7.340   1.129  0.0104 -0.2713  0.1183
60987SOL    HW291930   7.978   7.480   1.150  0.0190  0.1952 -2.7337
60988SOL     OW91931   3.463   4.694   7.895  0.2388 -0.4073  0.3053
60988SOL    HW191932   3.469   4.676   7.801 -0.6670  0.8736 -0.0379
60988SOL    HW291933   3.370   4.688   7.915  0.5124 -1.5648  1.3426
60989SOL     OW91934   1.137   3.945   7.772  0.1475 -0.6190  0.1077
60989SOL    HW191935   1.053   3.948   7.818 -1.3679  0.3854 -2.5263
60989SOL    HW291936   1.188   4.017   7.811 -2.3291  2.4105 -1.7907
60990SOL     OW91937   6.036  12.371   5.756 -0.2813  0.1807  0.2916
60990SOL    HW191938   5.999  12.422   5.684  0.6540  0.6389  0.1149
60990SOL    HW291939   5.974  12.300   5.769 -1.5337  1.2712  0.4459
60991SOL     OW91940   5.726   7.393   3.718 -0.4452  0.0745 -0.1339
60991SOL    HW191941   5.792   7.327   3.697 -1.5796 -0.8559 -0.9713
60991SOL    HW291942   5.771   7.457   3.773  1.2278 -0.3217 -0.9974
60992SOL     OW91943  11.333   0.090   6.127  0.0404 -0.0118  0.2195
60992SOL    HW191944  11.418   0.133   6.129  0.0940 -0.1023  0.0001
60992SOL    HW291945  11.337   0.034   6.049 -0.2671  0.0833  0.1332
60993SOL     OW91946   6.212  11.367  10.215  0.1443  0.0345  0.3254
60993SOL    HW191947   6.170  11.441  10.258 -1.2453 -1.3071  1.3541
60993SOL    HW291948   6.165  11.358  10.131  0.1420  0.1632  0.3136
60994SOL     OW91949  11.057   1.190   0.066  0.2174  0.1397  0.0221
60994SOL    HW191950  11.053   1.096   0.082 -2.3232  0.1908  0.0464
60994SOL    HW291951  11.055   1.229   0.154 -2.9593  0.2163  0.0230
60995SOL     OW91952   1.380  11.350  12.157  0.1285 -0.1569 -0.6348
60995SOL    HW191953   1.433  11.428  12.149  0.1722 -0.2174 -0.9462
60995SOL    HW291954   1.309  11.362  12.093  0.2483 -0.4593 -0.8288
60996SOL     OW91955   1.988   6.061   1.817  0.1811 -0.4961  0.1060
60996SOL    HW191956   1.894   6.053   1.806  0.1632  0.1992 -0.2645
60996SOL    HW291957   2.025   6.001   1.752  0.0010 -0.6467  0.1409
60997SOL     OW91958   9.962  12.486  12.076 -0.2287  0.2616  0.3668
60997SOL    HW191959   9.883  12.482  12.022  0.1679 -2.0492 -0.1621
60997SOL    HW291960   9.944  12.429  12.150  1.1153 -0.7746 -0.0648
60998SOL     OW91961   5.633   7.163   5.079 -0.0438  0.7762 -0.3227
60998SOL    HW191962   5.694   7.219   5.127  1.1747 -0.5038 -0.3120
60998SOL    HW291963   5.583   7.118   5.147  1.3517 -0.6787 -0.2091
60999SOL     OW91964  11.524  12.157  11.324  0.0754 -0.3920  0.2706
60999SOL    HW191965  11.500  12.066  11.340 -0.0399 -0.3505  0.3349
60999SOL    HW291966  11.504  12.202  11.406  0.1312 -0.3083  0.2393
61000SOL     OW91967  11.549   7.797   6.556 -0.3240 -0.0671  0.0629
61000SOL    HW191968  11.578   7.820   6.468  0.5793 -0.6944  0.1784
61000SOL    HW291969  11.529   7.704   6.552  2.2252 -0.7579  1.0895
61001SOL     OW91970   7.807  10.276   3.766  0.1892 -0.3589  0.4563
61001SOL    HW191971   7.723  10.256   3.806 -0.0042 -0.5891 -0.0583
61001SOL    HW291972   7.793  10.261   3.673  0.0767  2.0520  0.0435
61002SOL     OW91973   7.864   7.112  12.175  0.1477  0.5131 -0.0965
61002SOL    HW191974   7.914   7.183  12.135  1.1017  0.2887  0.6585
61002SOL    HW291975   7.775   7.124  12.142  0.8038  0.5576 -1.9709
61003SOL     OW91976   7.711   7.914   1.273  0.4882 -0.6446 -0.1185
61003SOL    HW191977   7.615   7.912   1.270  0.5134 -1.8362 -0.6318
61003SOL    HW291978   7.731   7.977   1.342 -0.6444  0.3859 -0.7071
61004SOL     OW91979  11.321   1.803   0.784  0.6086  0.4777 -0.5033
61004SOL    HW191980  11.377   1.805   0.861 -0.3245  0.2665  0.2005
61004SOL    HW291981  11.239   1.842   0.813  0.6116  1.4415 -1.7118
61005SOL     OW91982   5.095   0.037   2.320  0.5567 -0.0462  0.6466
61005SOL    HW191983   5.065   0.126   2.343  1.3235 -0.0703  1.8217
61005SOL    HW291984   5.139   0.048   2.235 -0.3662  0.4728  0.2166
61006SOL     OW91985   3.512   7.451  10.017  0.7734 -0.0877 -0.0032
61006SOL    HW191986   3.521   7.355  10.019  1.2082 -0.0499 -0.1331
61006SOL    HW291987   3.447   7.467   9.949  0.3872 -0.3122  0.3071
61007SOL     OW91988   1.715   6.292   9.923  0.3365  0.2785  0.2847
61007SOL    HW191989   1.643   6.257   9.977  0.0945 -0.2671 -0.3882
61007SOL    HW291990   1.751   6.364   9.976 -1.1712  1.0467  0.3325
61008SOL     OW91991  10.800  12.101   8.817  0.0346 -0.3931  0.7255
61008SOL    HW191992  10.880  12.099   8.870  0.4611 -0.6941  0.0912
61008SOL    HW291993  10.783  12.009   8.797 -0.6469 -0.3559  1.1028
61009SOL     OW91994   5.672   6.699   0.186  0.1097 -0.3629  0.2824
61009SOL    HW191995   5.611   6.627   0.170 -0.0009 -0.0889 -0.5801
61009SOL    HW291996   5.747   6.658   0.229 -0.0407 -0.9533 -0.0201
61010SOL     OW91997  11.964   0.536   9.039  0.0401 -0.2298  0.4055
61010SOL    HW191998  11.959   0.447   9.004  2.0393 -0.2080 -0.0495
61010SOL    HW291999  11.887   0.581   9.003 -3.3009 -2.6962  3.6833
61011SOL     OW92000   6.635  12.306   3.861 -0.0492 -0.1105 -0.7207
61011SOL    HW192001   6.693  12.236   3.890 -1.3211 -0.4460  1.2310
61011SOL    HW292002   6.590  12.271   3.784  0.2152 -0.9794 -0.4863
61012SOL     OW92003   7.510   5.000   8.006  0.0942 -0.2714 -0.4059
61012SOL    HW192004   7.556   4.971   8.085 -0.8382  0.2932  0.3702
61012SOL    HW292005   7.519   4.927   7.945  0.4885 -0.8922  0.3683
61013SOL     OW92006   9.952  11.936   0.896 -0.3261 -0.0738  0.6250
61013SOL    HW192007   9.948  11.840   0.902 -0.1632 -0.1113  0.1921
61013SOL    HW292008  10.042  11.957   0.919  0.0498 -0.1484 -0.7089
61014SOL     OW92009  11.096   4.655   5.897 -0.4004  0.1181  0.0388
61014SOL    HW192010  11.145   4.622   5.822 -0.1514  0.6497 -0.0362
61014SOL    HW292011  11.099   4.583   5.961 -0.0438 -0.0820 -0.1988
61015SOL     OW92012  12.519   1.294  11.259  0.1553  0.1425 -0.1934
61015SOL    HW192013  12.589   1.266  11.199  0.0260  1.1431 -0.8267
61015SOL    HW292014  12.515   1.224  11.324 -0.2153 -1.3671 -1.7577
61016SOL     OW92015  10.803   2.669   0.511 -0.3780 -0.3302 -0.0864
61016SOL    HW192016  10.882   2.715   0.485 -0.2703 -0.7580 -0.5243
61016SOL    HW292017  10.735   2.700   0.451 -0.5290 -0.0172  0.2427
61017SOL     OW92018  12.248   1.468   7.735  0.4528 -0.3746  0.0630
61017SOL    HW192019  12.209   1.475   7.822 -0.6281 -0.4587 -0.3953
61017SOL    HW292020  12.297   1.386   7.736  0.6561 -0.2493  0.6659
61018SOL     OW92021   0.837   9.841   4.145  0.3615 -0.1493  0.2822
61018SOL    HW192022   0.913   9.883   4.105  0.7630 -0.8276  0.3243
61018SOL    HW292023   0.866   9.752   4.164 -1.2854 -1.3258 -2.2790
61019SOL     OW92024   9.176   1.271   8.403  0.1696 -0.2834  0.2813
61019SOL    HW192025   9.242   1.340   8.402  0.6502 -0.7151  0.7721
61019SOL    HW292026   9.186   1.231   8.490 -0.0542 -1.0023 -0.0190
61020SOL     OW92027   9.857   6.214  11.594  0.0217  0.4962  0.7034
61020SOL    HW192028   9.790   6.164  11.549 -0.5084  0.7781  1.1708
61020SOL    HW292029   9.842   6.197  11.687  1.4701 -0.5549  0.7887
61021SOL     OW92030   5.015   4.322   3.357 -0.0441  0.1723 -0.3206
61021SOL    HW192031   5.088   4.384   3.355 -1.0268  1.3687  0.3235
61021SOL    HW292032   5.033   4.263   3.283  1.5871  0.4018 -0.1533
61022SOL     OW92033   4.543   0.361   7.321 -0.6136  0.8264 -0.0976
61022SOL    HW192034   4.495   0.367   7.239 -1.2574 -0.8429  0.1270
61022SOL    HW292035   4.635   0.351   7.295 -0.9782 -1.4010 -0.7040
61023SOL     OW92036   8.675   9.245   1.530  0.4129  0.3544 -0.0631
61023SOL    HW192037   8.651   9.279   1.444  1.8582 -0.5717 -0.8736
61023SOL    HW292038   8.743   9.305   1.561 -0.0713  0.6587  0.4228
61024SOL     OW92039   6.946   7.203   2.719  0.4910  0.2583  0.3154
61024SOL    HW192040   6.892   7.281   2.710  1.5769  1.0206  0.1306
61024SOL    HW292041   6.924   7.149   2.644  0.7468  1.0541 -0.3543
61025SOL     OW92042   7.392  10.190   7.078 -0.3992  0.1521 -0.1221
61025SOL    HW192043   7.403  10.278   7.043  1.5280  0.3190  0.8111
61025SOL    HW292044   7.327  10.200   7.148 -2.7935  0.1511 -2.1974
61026SOL     OW92045   3.623   8.536   9.990 -0.0369  0.5154  0.2692
61026SOL    HW192046   3.656   8.465   9.935 -0.8349 -1.0990  1.7565
61026SOL    HW292047   3.535   8.554   9.956 -0.6488 -0.6893  1.1362
61027SOL     OW92048   3.051   3.404   2.645  0.2041 -0.1137  0.5811
61027SOL    HW192049   2.996   3.418   2.722  3.0814 -0.4991  2.9121
61027SOL    HW292050   2.994   3.360   2.582 -2.3193  0.2779  2.4428
61028SOL     OW92051   7.025   2.602   0.623  0.6276 -0.2738 -0.4090
61028SOL    HW192052   7.072   2.685   0.619 -0.0518  0.1254 -0.2559
61028SOL    HW292053   7.093   2.536   0.635  1.0150  0.4997  2.3201
61029SOL     OW92054  12.206  11.755  11.109  0.1301  0.2522 -0.1596
61029SOL    HW192055  12.253  11.779  11.030  0.8922  0.9415  0.4938
61029SOL    HW292056  12.233  11.819  11.175 -1.5928  0.5907  0.2858
61030SOL     OW92057   5.780   4.419   0.609 -0.5241 -0.2697 -0.3493
61030SOL    HW192058   5.874   4.423   0.593  0.0932  2.1273  2.8542
61030SOL    HW292059   5.740   4.435   0.523  1.9730  0.0475 -1.5380
61031SOL     OW92060   4.847   4.309  12.145 -0.0125 -0.0676 -0.1453
61031SOL    HW192061   4.867   4.403  12.148 -0.0494 -0.0443 -0.5480
61031SOL    HW292062   4.933   4.268  12.133  0.0347 -0.1051  0.2900
61032SOL     OW92063   4.080  11.092   4.661  0.2221 -0.3397  0.7038
61032SOL    HW192064   4.082  11.004   4.623 -2.1972  0.2291 -0.8854
61032SOL    HW292065   4.097  11.151   4.588  1.1255  0.5999  1.6222
61033SOL     OW92066   0.496   8.584   2.807 -0.0092  0.3980  0.1548
61033SOL    HW192067   0.519   8.667   2.767 -3.4084  0.6017 -1.7442
61033SOL    HW292068   0.549   8.519   2.761  1.4335  1.2935  0.4939
61034SOL     OW92069   3.353  10.403   7.557  0.4490 -0.0295 -0.0107
61034SOL    HW192070   3.377  10.325   7.607 -0.5515 -0.4765 -0.2041
61034SOL    HW292071   3.392  10.475   7.606  1.2237 -0.6284  0.2781
61035SOL     OW92072   7.022   1.013  11.888 -0.0285 -0.2996  0.1274
61035SOL    HW192073   7.102   1.032  11.936  0.6687 -0.9785 -0.7169
61035SOL    HW292074   6.952   1.053  11.940  0.9953  1.6013  0.1296
61036SOL     OW92075   2.640   0.144   8.566  0.5880 -0.9063 -0.2282
61036SOL    HW192076   2.552   0.180   8.565 -0.3336 -3.0397 -1.2842
61036SOL    HW292077   2.692   0.209   8.613 -1.4809  0.4998  0.2271
61037SOL     OW92078   4.919   4.371   9.817  0.2841  0.3121 -0.6747
61037SOL    HW192079   4.900   4.360   9.910 -0.5935  1.6381 -0.6774
61037SOL    HW292080   4.835   4.392   9.777  0.9958  1.9525 -1.4130
61038SOL     OW92081   8.154  10.883   3.176 -0.1996  0.2993 -0.6816
61038SOL    HW192082   8.206  10.946   3.126  1.7497  1.3337  2.3673
61038SOL    HW292083   8.090  10.937   3.222  0.3466 -0.1077  0.6024
61039SOL     OW92084   2.795  12.415   4.748  0.0463 -0.3946 -0.1558
61039SOL    HW192085   2.884  12.382   4.737 -0.7702 -2.3814 -1.3963
61039SOL    HW292086   2.763  12.427   4.658 -1.1297 -0.3008  0.2566
61040SOL     OW92087   3.402  11.254   3.272 -0.1421 -0.6074 -0.0429
61040SOL    HW192088   3.455  11.311   3.216 -1.5431 -1.1888 -2.0957
61040SOL    HW292089   3.433  11.272   3.361  1.4643  1.1570 -0.8783
61041SOL     OW92090   8.474   5.604   7.830  0.0159 -0.4810 -0.2189
61041SOL    HW192091   8.530   5.559   7.893  0.4869  0.5503  0.1228
61041SOL    HW292092   8.527   5.678   7.800 -1.0116  0.2851 -0.1897
61042SOL     OW92093   9.840   8.841  12.365 -0.0368  0.1834  0.1975
61042SOL    HW192094   9.855   8.876  12.277 -0.1789  1.2639  0.5907
61042SOL    HW292095   9.874   8.751  12.361  0.6651  0.4736 -0.7379
61043SOL     OW92096  11.206   4.117   1.190 -0.6144 -0.5888  0.1034
61043SOL    HW192097  11.234   4.075   1.272  0.4953  1.1008  0.6528
61043SOL    HW292098  11.276   4.099   1.128  0.9313  2.0354  0.9312
61044SOL     OW92099  11.406   8.688   6.336 -0.0738  0.3290  0.0407
61044SOL    HW192100  11.414   8.745   6.259  0.6412 -1.0329 -0.9270
61044SOL    HW292101  11.460   8.730   6.402 -0.6984  1.5276 -0.1796
61045SOL     OW92102  11.621   6.603   2.492 -0.3368  0.3792  0.5753
61045SOL    HW192103  11.697   6.559   2.454 -0.1128  1.1038  0.1761
61045SOL    HW292104  11.622   6.577   2.584  0.3901  0.3884  0.5746
61046SOL     OW92105   0.029   7.826   8.332  0.6733  0.2729  0.4719
61046SOL    HW192106   0.092   7.860   8.268 -0.1120 -1.6737 -1.4718
61046SOL    HW292107  -0.047   7.802   8.279  0.1308 -1.7949  2.0739
61047SOL     OW92108   5.779   3.691   5.476  0.7970 -0.5642  0.3879
61047SOL    HW192109   5.736   3.690   5.391  1.1336 -1.3861  0.2158
61047SOL    HW292110   5.736   3.762   5.524  1.8163  1.1408 -1.0865
61048SOL     OW92111   7.301  11.075   4.986 -0.4199 -0.5023 -0.0201
61048SOL    HW192112   7.273  11.031   5.066  0.6683 -1.6724 -0.2388
61048SOL    HW292113   7.384  11.033   4.964 -0.3104  0.3443 -1.3369
61049SOL     OW92114  10.048   8.754   5.951  0.2715 -0.2877  0.0779
61049SOL    HW192115  10.030   8.714   5.865 -2.8237  1.8750 -0.4582
61049SOL    HW292116  10.092   8.837   5.930 -1.9849  1.0594  0.3168
61050SOL     OW92117   4.467   9.567   9.244 -0.2209 -0.6459 -0.2727
61050SOL    HW192118   4.466   9.613   9.328 -0.0409 -0.2330 -0.4877
61050SOL    HW292119   4.381   9.527   9.236 -0.2611 -0.6279  0.0759
61051SOL     OW92120   4.797   7.126   4.099  0.1672 -0.1158 -0.5739
61051SOL    HW192121   4.801   7.221   4.111 -1.7855  0.0482 -0.8397
61051SOL    HW292122   4.811   7.114   4.005  0.5910 -0.1237 -0.5139
61052SOL     OW92123   5.774   0.629   8.043 -0.2514  0.5258  0.1006
61052SOL    HW192124   5.807   0.545   8.013 -1.5036  0.2798 -0.6582
61052SOL    HW292125   5.787   0.628   8.138 -2.6850 -1.7038  0.5429
61053SOL     OW92126   8.990   8.578   6.529  0.0768  0.6281  0.1298
61053SOL    HW192127   8.962   8.526   6.454  0.4527  0.8773 -0.1889
61053SOL    HW292128   9.081   8.552   6.543  0.4280  1.5586 -0.3547
61054SOL     OW92129   3.405  11.168   9.753 -0.3890 -0.0014 -0.1306
61054SOL    HW192130   3.384  11.240   9.811  0.7909 -0.8367  1.4102
61054SOL    HW292131   3.489  11.193   9.713 -0.6654  0.0864 -0.6732
61055SOL     OW92132   5.535   3.832   2.611 -0.0679 -0.0101 -0.1314
61055SOL    HW192133   5.508   3.923   2.625 -0.6109 -0.0065 -1.1358
61055SOL    HW292134   5.631   3.836   2.613  0.0491  1.0927 -2.7855
61056SOL     OW92135   4.022   2.890  10.012  0.3568  0.1962 -0.1197
61056SOL    HW192136   3.973   2.936  10.080  0.3783 -0.3470  0.2705
61056SOL    HW292137   4.091   2.843  10.060 -0.5003 -1.3666 -0.3407
61057SOL     OW92138   3.988  11.435   0.920 -0.1645 -0.0534  0.2286
61057SOL    HW192139   3.960  11.459   0.832  1.2517  0.3116 -0.1413
61057SOL    HW292140   4.075  11.397   0.909 -0.0696 -0.2469  1.4383
61058SOL     OW92141   9.714   3.892   8.855 -0.2370 -0.2091  0.8606
61058SOL    HW192142   9.764   3.852   8.926 -1.1131 -0.2776  1.4466
61058SOL    HW292143   9.713   3.826   8.786 -1.2792 -1.0356  1.6397
61059SOL     OW92144   6.809   5.307   4.073 -0.3601  0.2257 -0.0837
61059SOL    HW192145   6.734   5.250   4.057 -0.7261  0.5552  0.4466
61059SOL    HW292146   6.771   5.391   4.099  0.0397  1.6822 -3.5970
61060SOL     OW92147   1.555  11.178  10.421 -0.1088 -0.3572  0.0007
61060SOL    HW192148   1.648  11.188  10.443 -0.0766 -0.7683  0.0503
61060SOL    HW292149   1.514  11.149  10.503 -0.7044  2.1362  0.6836
61061SOL     OW92150   2.789   4.886  11.058  0.1004  0.1194  0.1501
61061SOL    HW192151   2.811   4.918  10.970  1.9639  2.0147  1.2216
61061SOL    HW292152   2.718   4.942  11.087 -1.3227 -1.2558 -0.5101
61062SOL     OW92153   3.721   4.734   9.388 -0.1281  0.4215  0.1859
61062SOL    HW192154   3.682   4.646   9.382  0.1875  0.3592 -1.6029
61062SOL    HW292155   3.810   4.718   9.419 -0.1497  0.1284  0.1042
61063SOL     OW92156   0.828  11.884   1.208  0.0049 -0.4110 -0.2972
61063SOL    HW192157   0.918  11.891   1.178 -0.7759  0.7614 -2.6125
61063SOL    HW292158   0.820  11.794   1.241  2.2622 -0.1922  1.0563
61064SOL     OW92159   6.456   8.683   3.714  0.2013 -0.4571 -0.1458
61064SOL    HW192160   6.491   8.713   3.798  2.7798 -0.0467 -1.2409
61064SOL    HW292161   6.445   8.763   3.663 -0.1891 -0.7834 -0.5770
61065SOL     OW92162   6.567   4.089   3.410  0.2833 -0.3560 -0.9626
61065SOL    HW192163   6.498   4.123   3.352 -1.2965 -1.9370 -0.0985
61065SOL    HW292164   6.582   4.160   3.473 -0.5821 -0.0031 -1.1412
61066SOL     OW92165   4.919   6.248   4.300  0.3157  0.1376 -0.0361
61066SOL    HW192166   4.909   6.249   4.205  1.2616  0.4380 -0.1404
61066SOL    HW292167   5.014   6.249   4.315  0.1805  0.1271  0.9104
61067SOL     OW92168   5.132  11.432   4.146  0.0097 -0.3991  0.1562
61067SOL    HW192169   5.146  11.339   4.164 -0.1450 -0.7670 -1.4979
61067SOL    HW292170   5.219  11.472   4.157  0.2719 -0.9031 -0.0587
61068SOL     OW92171   2.290   1.335   3.290 -0.2233  0.0583  0.9282
61068SOL    HW192172   2.267   1.428   3.291 -1.2272 -0.1736  0.5482
61068SOL    HW292173   2.358   1.328   3.222 -0.3885  0.4558  0.7186
61069SOL     OW92174   9.794  12.006  11.030  0.0990 -0.0846  0.1667
61069SOL    HW192175   9.819  12.098  11.039  0.1664 -0.0137 -0.7182
61069SOL    HW292176   9.863  11.958  11.076 -0.0720  0.3072  0.8564
61070SOL     OW92177   8.455   9.736   6.488  0.2999  0.3826 -0.1016
61070SOL    HW192178   8.510   9.793   6.435 -0.9009  1.8986  0.2109
61070SOL    HW292179   8.478   9.647   6.461  1.8677  1.0292 -0.9597
61071SOL     OW92180   4.162   6.854   8.063 -0.0381  0.4345 -0.0350
61071SOL    HW192181   4.134   6.768   8.032 -0.0364  0.4023  0.0513
61071SOL    HW292182   4.216   6.888   7.992 -1.6801  1.2323 -0.9748
61072SOL     OW92183   8.138   2.924   7.152 -0.2820 -0.0635 -0.2221
61072SOL    HW192184   8.105   2.846   7.106  0.4571  0.3390 -1.4892
61072SOL    HW292185   8.227   2.936   7.118 -0.7610  1.9701 -0.9353
61073SOL     OW92186   0.001   3.607  12.258  0.1494 -0.4768 -0.0220
61073SOL    HW192187   0.014   3.677  12.193 -1.8180  2.0192  2.0278
61073SOL    HW292188   0.021   3.649  12.342 -2.2728 -1.9545  1.4214
61074SOL     OW92189   8.440   2.463   6.601 -0.6952  0.0417  0.0593
61074SOL    HW192190   8.476   2.542   6.641 -0.3453 -0.1875  0.2028
61074SOL    HW292191   8.353   2.489   6.570 -0.6271  0.4504  0.2062
61075SOL     OW92192   2.351   2.141   0.855 -0.4295 -0.1192  0.4870
61075SOL    HW192193   2.340   2.114   0.764 -1.4088  0.9328  0.2683
61075SOL    HW292194   2.307   2.226   0.861  0.2543  0.1830  1.7680
61076SOL     OW92195   1.534   1.440  12.374 -0.4438 -0.0244 -0.0903
61076SOL    HW192196   1.494   1.358  12.346  0.7196 -1.1348  1.3542
61076SOL    HW292197   1.478   1.470  12.446  0.2693 -0.6205  0.7196
61077SOL     OW92198   9.824  10.344   4.627 -0.5540 -0.0698  0.2824
61077SOL    HW192199   9.797  10.418   4.682  0.5869  0.7304 -0.1895
61077SOL    HW292200   9.745  10.319   4.579 -0.4825  2.3788 -1.2812
61078SOL     OW92201   8.466   9.959   0.945 -0.3301  0.2477  0.3035
61078SOL    HW192202   8.373   9.948   0.926 -0.3316  0.6495  0.0622
61078SOL    HW292203   8.498  10.014   0.874  0.2524 -0.4983 -0.0282
61079SOL     OW92204  12.550   3.810   9.827 -0.7314 -0.0178 -0.0203
61079SOL    HW192205  12.495   3.864   9.883  0.9986  2.8012 -0.8067
61079SOL    HW292206  12.630   3.863   9.815  0.2108 -1.8503 -2.6150
61080SOL     OW92207  10.884   0.019  12.252 -0.3588  0.1803  0.2565
61080SOL    HW192208  10.809   0.014  12.311 -0.3370 -1.7157  0.1767
61080SOL    HW292209  10.869  -0.050  12.188  1.6224 -0.5353  0.4786
61081SOL     OW92210  10.183   6.347   5.729 -0.5590 -0.0087  0.9580
61081SOL    HW192211  10.211   6.387   5.811  0.4277  2.1689 -0.3438
61081SOL    HW292212  10.264   6.313   5.690 -0.8556 -0.1722  0.4806
61082SOL     OW92213  12.169   5.642  10.897  0.1140 -0.0947 -0.1007
61082SOL    HW192214  12.150   5.646  10.803  1.5081 -0.3135 -0.4140
61082SOL    HW292215  12.139   5.726  10.931 -1.1570 -0.3383 -0.5816
61083SOL     OW92216   9.312   8.414   1.452  0.0924  0.2662  0.5580
61083SOL    HW192217   9.279   8.468   1.380  2.1236 -1.1578 -1.5852
61083SOL    HW292218   9.236   8.361   1.478 -0.3312 -0.3382 -1.6825
61084SOL     OW92219   4.092   6.378  10.030 -0.2038 -0.8096  0.4477
61084SOL    HW192220   4.175   6.398  10.074  1.1907 -0.0540 -2.3128
61084SOL    HW292221   4.102   6.289   9.998  1.0214  0.3087 -2.6794
61085SOL     OW92222   2.429   8.687   2.321 -0.1898  0.0211  0.0503
61085SOL    HW192223   2.389   8.774   2.321  0.5015  0.3503  0.3310
61085SOL    HW292224   2.523   8.704   2.311 -0.1813 -0.7759 -1.4904
61086SOL     OW92225   1.440   9.893  10.867 -0.1062  0.1821 -0.3811
61086SOL    HW192226   1.409   9.802  10.868 -0.6719  0.3648 -0.7001
61086SOL    HW292227   1.364   9.944  10.838  0.1933  0.7632 -0.1619
61087SOL     OW92228   4.082   2.013   5.728 -0.3326 -0.0774  0.4603
61087SOL    HW192229   4.132   1.953   5.783 -1.3340  0.6658  2.2626
61087SOL    HW292230   4.004   1.964   5.704  0.9413 -1.0884 -2.0106
61088SOL     OW92231   2.605   8.921  10.098  0.0262 -0.0768 -0.2956
61088SOL    HW192232   2.687   8.872  10.095  2.2427  3.3433 -0.6114
61088SOL    HW292233   2.603   8.970  10.016 -0.7584  2.1312  0.9526
61089SOL     OW92234   8.370   0.122   4.658  0.1485  0.7893 -0.0171
61089SOL    HW192235   8.320   0.152   4.582 -0.6243  0.1656  0.2230
61089SOL    HW292236   8.375   0.027   4.647  0.4265  0.7414  0.4766
61090SOL     OW92237  10.665   9.208  10.193  0.1237 -0.1152  0.1326
61090SOL    HW192238  10.728   9.157  10.244 -2.0051 -2.5095  0.6051
61090SOL    HW292239  10.705   9.294  10.184  3.4941 -1.5154  0.2197
61091SOL     OW92240   8.841   3.605   1.539 -0.0927 -0.0948  0.4815
61091SOL    HW192241   8.760   3.606   1.590 -0.9569  1.0815 -0.8390
61091SOL    HW292242   8.886   3.686   1.564  0.4145 -0.4595  0.7760
61092SOL     OW92243   5.344  10.324  12.024 -0.6877  0.2799 -0.0469
61092SOL    HW192244   5.354  10.387  12.096 -0.4660  0.6808 -0.4207
61092SOL    HW292245   5.433  10.311  11.991 -0.9807  1.5945 -1.4929
61093SOL     OW92246   2.854   8.000   8.212 -0.1544  0.1544  0.0799
61093SOL    HW192247   2.802   7.921   8.195  0.3703  0.0218 -0.9435
61093SOL    HW292248   2.884   7.989   8.302 -0.1661 -0.7750 -0.0169
61094SOL     OW92249   9.049   1.281  10.830  0.3815 -0.1778 -0.1188
61094SOL    HW192250   9.075   1.336  10.904 -0.4991  0.1708 -0.0467
61094SOL    HW292251   9.009   1.342  10.768  1.8501 -0.3365 -1.2783
61095SOL     OW92252   8.716   6.646   8.869  0.4119 -0.0828 -0.0513
61095SOL    HW192253   8.803   6.608   8.859  0.3932 -0.6739  1.6611
61095SOL    HW292254   8.726   6.712   8.938 -0.7543 -1.2690  1.3426
61096SOL     OW92255   8.092  12.519   3.061 -0.0957 -0.0111  0.2256
61096SOL    HW192256   8.026  12.480   3.118 -0.5618 -0.7739 -0.8014
61096SOL    HW292257   8.049  12.595   3.021 -0.8259 -1.2016 -1.3789
61097SOL     OW92258   6.811   0.006  12.542  1.0539  0.2678  0.2960
61097SOL    HW192259   6.869  -0.043  12.600  0.9035 -2.1789 -1.4297
61097SOL    HW292260   6.851  -0.002  12.456 -0.9896 -0.1356 -0.6733
61098SOL     OW92261   7.098  11.971  11.335 -0.0253  0.1029 -0.3260
61098SOL    HW192262   7.089  11.887  11.289 -0.4277 -0.2935  0.4604
61098SOL    HW292263   7.189  11.997  11.319  0.2451 -0.7257 -0.1685
61099SOL     OW92264   0.982   7.113   6.586 -0.2178 -0.6760 -0.1149
61099SOL    HW192265   0.943   7.201   6.582 -0.3593 -0.6623  1.1221
61099SOL    HW292266   1.073   7.126   6.561 -0.0531 -0.0323  0.7665
61100SOL     OW92267   7.383   0.468  11.334 -0.3227  0.1125  0.1762
61100SOL    HW192268   7.434   0.477  11.254  1.3629 -1.8664  0.9401
61100SOL    HW292269   7.409   0.542  11.388  0.5231  0.0242 -0.1019
61101SOL     OW92270   1.653   1.849   4.842  0.0448  0.4910  0.5726
61101SOL    HW192271   1.560   1.848   4.820  0.1145  0.6877  0.2548
61101SOL    HW292272   1.696   1.809   4.766  0.2778  1.0353  0.4159
61102SOL     OW92273   6.452  12.527   6.493  0.3862  0.1227  0.0688
61102SOL    HW192274   6.516  12.574   6.545 -0.3034  0.0725  0.9897
61102SOL    HW292275   6.488  12.438   6.484 -0.0792 -0.2442  1.5811
61103SOL     OW92276   8.725  10.909  11.482 -0.0349  0.2640 -0.1862
61103SOL    HW192277   8.723  10.891  11.388 -1.2194 -0.9885  0.0497
61103SOL    HW292278   8.757  10.828  11.521  3.6979  1.8060  0.3324
61104SOL     OW92279   8.992   7.718   3.720  0.6265 -0.3716  0.3927
61104SOL    HW192280   8.986   7.625   3.695  1.1928 -0.1465 -0.6241
61104SOL    HW292281   9.058   7.754   3.662 -0.1309  0.8543  0.2639
61105SOL     OW92282   9.127   6.135   3.453 -0.1841 -0.0468  0.0221
61105SOL    HW192283   9.097   6.140   3.544  2.0901 -1.2899  0.9303
61105SOL    HW292284   9.212   6.180   3.453  0.9670 -2.0653 -0.8996
61106SOL     OW92285   3.380   8.862   3.808 -0.4366  0.2053  0.7503
61106SOL    HW192286   3.462   8.830   3.771  0.2576  0.5562  1.9245
61106SOL    HW292287   3.315   8.796   3.784  0.5638 -1.0344  1.3554
61107SOL     OW92288   6.970   0.824   8.560  0.5014  0.6463 -0.0745
61107SOL    HW192289   7.011   0.741   8.536  0.4567  0.6250 -0.0782
61107SOL    HW292290   7.016   0.852   8.639  0.4285  0.5516  0.0021
61108SOL     OW92291   8.821   7.042  10.588 -0.3449 -0.0266 -0.0908
61108SOL    HW192292   8.847   6.952  10.569 -0.0048 -0.0453  0.4467
61108SOL    HW292293   8.871   7.094  10.526 -0.5509 -0.2049 -0.4120
61109SOL     OW92294   3.635   1.147   7.777  0.6686  0.1361  0.5117
61109SOL    HW192295   3.730   1.144   7.781  0.7772  1.7227 -0.3236
61109SOL    HW292296   3.608   1.055   7.782  2.2567 -0.3832  0.1224
61110SOL     OW92297   3.010   1.299   3.235  0.1590  0.1831 -0.8225
61110SOL    HW192298   2.981   1.366   3.173  0.7272  1.3025  0.0779
61110SOL    HW292299   2.935   1.240   3.244 -1.5965  2.4686  0.7451
61111SOL     OW92300   4.522   9.913   3.875 -0.2791 -0.1315 -0.0694
61111SOL    HW192301   4.490   9.837   3.925  0.4828 -0.6812 -0.4010
61111SOL    HW292302   4.493   9.896   3.786 -1.5324  0.7911  0.1443
61112SOL     OW92303   7.209  11.805   6.273  0.2192  0.5092 -0.4344
61112SOL    HW192304   7.293  11.761   6.271  0.0091  0.0976 -2.3320
61112SOL    HW292305   7.230  11.898   6.277  0.7410  0.3839 -0.2512
61113SOL     OW92306   6.579   9.190  11.181 -0.5655  0.1169 -0.3265
61113SOL    HW192307   6.563   9.139  11.102  1.7478  0.3965 -1.0562
61113SOL    HW292308   6.635   9.134  11.235 -1.0218  0.4576  0.5115
61114SOL     OW92309   7.842  10.686   9.921 -0.2006 -0.1253 -0.2362
61114SOL    HW192310   7.854  10.687   9.826 -0.1474  0.3328 -0.2273
61114SOL    HW292311   7.776  10.619   9.937  0.2930 -0.6913 -0.5357
61115SOL     OW92312   2.947   4.599   2.303  0.0490 -0.5547 -0.1612
61115SOL    HW192313   3.012   4.660   2.337 -0.9898  0.0882  0.7637
61115SOL    HW292314   2.996   4.520   2.283  1.2657  0.2436 -0.4408
61116SOL     OW92315   2.001  11.533  11.640 -0.5561  0.0999  0.5806
61116SOL    HW192316   1.913  11.497  11.623 -0.0659 -0.6751 -0.4082
61116SOL    HW292317   2.056  11.456  11.652 -0.3145  0.5855  3.0532
61117SOL     OW92318   2.800   2.744   6.246  0.4093  0.3348  0.6429
61117SOL    HW192319   2.777   2.696   6.166 -1.5332  0.9921  0.7451
61117SOL    HW292320   2.845   2.680   6.300 -0.5239 -0.8669  0.0462
61118SOL     OW92321   4.202   1.211  12.571 -0.6687  0.0495 -0.4012
61118SOL    HW192322   4.176   1.196  12.480 -2.7806 -0.6999  0.2609
61118SOL    HW292323   4.141   1.278  12.602 -0.6950 -0.4753  0.7331
61119SOL     OW92324   6.083   9.599   5.756  0.1914  1.0451 -0.1575
61119SOL    HW192325   6.118   9.617   5.669  0.3127  2.9109  0.2158
61119SOL    HW292326   5.999   9.645   5.758 -0.3159  0.1252  0.3648
61120SOL     OW92327   1.119   0.668  12.483 -0.2879  0.6862 -0.0027
61120SOL    HW192328   1.171   0.593  12.511 -0.4166  0.3666 -0.5976
61120SOL    HW292329   1.036   0.629  12.453 -0.4565  1.0882 -0.0638
61121SOL     OW92330   0.242   0.973   9.726 -0.3211  0.3372  0.4867
61121SOL    HW192331   0.227   0.994   9.818  0.3213  1.3676  0.3762
61121SOL    HW292332   0.210   1.049   9.679  0.5927  0.4041 -0.0488
61122SOL     OW92333   7.670  11.864   5.208  0.0938  0.5038  0.2623
61122SOL    HW192334   7.652  11.929   5.276 -0.8241 -0.2845  0.8012
61122SOL    HW292335   7.709  11.790   5.255 -2.4591 -0.9138  0.3387
61123SOL     OW92336   7.172   1.373   6.956 -0.2816 -0.2771 -0.3532
61123SOL    HW192337   7.152   1.338   7.043 -0.7750  1.8351  0.4478
61123SOL    HW292338   7.259   1.411   6.965  0.4633 -1.6713 -1.3475
61124SOL     OW92339   2.647  12.154   0.149 -0.2642  0.5359 -0.2625
61124SOL    HW192340   2.570  12.188   0.104 -0.6553  0.3924  0.2866
61124SOL    HW292341   2.629  12.061   0.162  1.0213 -0.0396 -2.2037
61125SOL     OW92342   6.283  10.458   8.655  0.3351 -0.2764 -0.5999
61125SOL    HW192343   6.196  10.439   8.692  0.5040  0.2970  0.1069
61125SOL    HW292344   6.265  10.481   8.564 -0.0929 -1.6417 -0.8770
61126SOL     OW92345   4.367   0.350   6.653  0.1682  0.4334 -0.2286
61126SOL    HW192346   4.390   0.272   6.603  0.8869  0.5762 -0.1235
61126SOL    HW292347   4.297   0.391   6.602 -2.4767 -1.8712  1.2236
61127SOL     OW92348   8.780  11.131  11.631  0.3307 -0.2708  0.1315
61127SOL    HW192349   8.699  11.165  11.670 -0.0004  0.5214 -1.2034
61127SOL    HW292350   8.752  11.053  11.583  0.4425 -0.2437  0.0244
61128SOL     OW92351  10.857   9.093   8.362 -0.0706  0.2143  0.0877
61128SOL    HW192352  10.868   9.072   8.454  1.4247 -0.6719 -0.2577
61128SOL    HW292353  10.773   9.054   8.338 -1.0909  1.5498  1.3414
61129SOL     OW92354   9.287   5.382   0.014  0.2057  0.3985 -0.2888
61129SOL    HW192355   9.205   5.344  -0.018  0.2737 -0.0142  0.0219
61129SOL    HW292356   9.334   5.407  -0.065 -1.0838  2.5189 -0.4622
61130SOL     OW92357  10.748   8.306   8.292 -0.1478  0.0632 -0.8626
61130SOL    HW192358  10.685   8.365   8.333  0.6030 -0.9208  1.9172
61130SOL    HW292359  10.806   8.363   8.241 -1.9095  1.2039 -1.6479
61131SOL     OW92360  10.821   4.161   9.551 -0.2061  0.1569 -0.9312
61131SOL    HW192361  10.803   4.074   9.516  0.7242  0.0847 -1.2552
61131SOL    HW292362  10.813   4.219   9.476  0.7324  0.1428 -1.0444
61132SOL     OW92363   3.294   0.211   3.490  0.3254  0.4972  0.2424
61132SOL    HW192364   3.340   0.284   3.449  0.5432  0.1431 -0.1429
61132SOL    HW292365   3.255   0.163   3.417 -0.5501  0.7143  0.5506
61133SOL     OW92366  10.079   0.233  10.106 -0.3927  0.2117 -0.3001
61133SOL    HW192367  10.007   0.232  10.168 -0.0710 -0.5035  0.0701
61133SOL    HW292368  10.077   0.321  10.069 -1.3019  0.2770 -0.1224
61134SOL     OW92369   7.366  12.570   5.820 -0.3935  0.1811 -0.0514
61134SOL    HW192370   7.438  12.621   5.856 -0.0764  0.0470 -0.4863
61134SOL    HW292371   7.385  12.480   5.846 -0.9328  0.2685  0.6830
61135SOL     OW92372   9.263   2.340   4.586 -0.4640 -0.2167  0.2870
61135SOL    HW192373   9.290   2.431   4.585 -1.7099  0.2032  1.5033
61135SOL    HW292374   9.223   2.325   4.500 -1.3888  0.7642  0.5284
61136SOL     OW92375   8.291   5.908   4.807 -0.0993  0.2540  0.1071
61136SOL    HW192376   8.335   5.945   4.883 -0.1254  1.4018 -0.4047
61136SOL    HW292377   8.257   5.824   4.836 -0.8257  1.0396  1.6020
61137SOL     OW92378   1.171   2.907   1.641  0.4457 -0.0770  0.5501
61137SOL    HW192379   1.116   2.947   1.573  0.1696  0.3005  0.9885
61137SOL    HW292380   1.259   2.907   1.604 -0.1331 -2.7383 -1.1113
61138SOL     OW92381   7.630  11.697   7.869 -0.0839  1.0511 -0.1383
61138SOL    HW192382   7.689  11.768   7.844 -0.5875  1.2509 -0.7841
61138SOL    HW292383   7.578  11.680   7.791 -0.3008  0.2957  0.1603
61139SOL     OW92384  11.312   9.968   5.667 -0.7672 -0.5184  0.3802
61139SOL    HW192385  11.355   9.966   5.753 -2.3851 -0.7606  1.2217
61139SOL    HW292386  11.274  10.056   5.662  0.9933  0.2154 -0.9899
61140SOL     OW92387   0.097   4.973   5.644  0.2800  0.1813  0.1855
61140SOL    HW192388   0.189   4.998   5.656  0.2898  0.0359  0.4168
61140SOL    HW292389   0.083   4.980   5.550  0.8518 -0.9387  0.0071
61141SOL     OW92390  10.470  12.263  11.950  0.0638 -0.1997 -0.4465
61141SOL    HW192391  10.384  12.274  11.909  0.5525 -0.3928 -1.5735
61141SOL    HW292392  10.510  12.350  11.945  0.1824 -0.2585 -0.5196
61142SOL     OW92393   0.574   8.452   2.307  0.1729 -0.4912 -0.2398
61142SOL    HW192394   0.529   8.427   2.226  0.2204  0.5456 -0.6011
61142SOL    HW292395   0.525   8.409   2.376 -0.8125 -0.1453 -0.7026
61143SOL     OW92396   6.562   8.004   1.622  0.4607 -0.1899  0.2020
61143SOL    HW192397   6.482   7.952   1.629  0.3456 -0.0677 -0.1604
61143SOL    HW292398   6.533   8.094   1.635  0.6292 -0.1974  0.6367
61144SOL     OW92399   5.308   3.070  11.298 -0.2017 -0.1856  1.0829
61144SOL    HW192400   5.351   2.985  11.310  0.1695  0.2453  3.1326
61144SOL    HW292401   5.221   3.048  11.265  0.6746 -1.2056 -0.6864
61145SOL     OW92402   9.702   8.380   5.714 -0.2980  0.0980  0.1291
61145SOL    HW192403   9.721   8.290   5.741 -0.4202 -0.0336 -0.2144
61145SOL    HW292404   9.672   8.423   5.793 -2.2431 -0.7220 -0.1143
61146SOL     OW92405  10.560   3.479  11.749  0.0139 -0.2834  0.4998
61146SOL    HW192406  10.655   3.470  11.756  0.0613 -0.3228 -0.1720
61146SOL    HW292407  10.532   3.500  11.838  0.5782 -0.9305  0.8387
61147SOL     OW92408   3.980   0.285   5.365  0.3332 -0.2224  0.1822
61147SOL    HW192409   4.040   0.227   5.319 -0.2635  0.3379 -1.3536
61147SOL    HW292410   3.989   0.370   5.321 -2.1222 -0.3061 -0.6584
61148SOL     OW92411  12.039   2.227   9.412 -0.3332  0.3323 -0.5001
61148SOL    HW192412  12.124   2.272   9.413 -0.8156  1.2657 -0.9737
61148SOL    HW292413  12.060   2.138   9.441  0.8698  0.4399 -0.9640
61149SOL     OW92414  12.081   1.283   7.596 -0.3940  0.1198 -0.0497
61149SOL    HW192415  12.135   1.353   7.633 -0.7528  0.3226  0.0950
61149SOL    HW292416  12.083   1.297   7.502 -0.2598  0.1735 -0.0385
61150SOL     OW92417  11.232   6.194   3.388 -0.4357 -0.4559 -0.4441
61150SOL    HW192418  11.244   6.209   3.295 -2.3096 -1.0095 -0.8231
61150SOL    HW292419  11.159   6.250   3.412  0.0172 -0.3245  0.7036
61151SOL     OW92420   4.016  11.830  10.509 -0.4667 -0.1757  0.0612
61151SOL    HW192421   4.088  11.852  10.449 -0.1503  0.8050  0.7873
61151SOL    HW292422   3.980  11.749  10.473  0.4522 -0.2264 -0.8033
61152SOL     OW92423   1.573   3.308   0.867  0.1692 -0.0792 -0.5103
61152SOL    HW192424   1.624   3.247   0.920 -0.5985 -0.4313 -0.1646
61152SOL    HW292425   1.637   3.373   0.837  1.0042 -1.0596 -0.9027
61153SOL     OW92426   4.439   1.414  10.804  0.2326  0.2355 -0.1640
61153SOL    HW192427   4.479   1.327  10.806  0.2829  0.2355  2.4626
61153SOL    HW292428   4.504   1.469  10.760  1.1552 -0.6437  0.0610
61154SOL     OW92429   5.461   2.030  11.630  0.7335 -0.7566  0.5489
61154SOL    HW192430   5.443   2.089  11.703  0.3359 -0.0312 -0.1136
61154SOL    HW292431   5.513   1.959  11.668 -1.2624 -1.5372  1.9967
61155SOL     OW92432   7.600   8.692  12.070 -0.0872  0.0048 -0.5642
61155SOL    HW192433   7.687   8.658  12.048  0.4569 -0.4517  1.9273
61155SOL    HW292434   7.550   8.615  12.098  0.3334  0.7367  2.6463
61156SOL     OW92435   5.961   6.768   7.951 -0.1863 -0.2315  0.2704
61156SOL    HW192436   5.904   6.735   8.021 -1.2995 -0.2099 -0.6065
61156SOL    HW292437   5.962   6.698   7.886  1.4617 -0.5774  0.6158
61157SOL     OW92438   6.095   4.710   2.714  0.0324 -0.1099  0.6082
61157SOL    HW192439   6.075   4.798   2.746  2.6387  1.4405 -1.6508
61157SOL    HW292440   6.178   4.688   2.756  0.8134 -0.2564 -0.9599
61158SOL     OW92441  11.208  10.844   6.626  0.4007  0.2203 -0.6052
61158SOL    HW192442  11.174  10.771   6.574 -0.3334 -1.8520  2.5397
61158SOL    HW292443  11.188  10.821   6.717  2.4621  3.1456  0.7557
61159SOL     OW92444   7.739   2.177   8.255  0.0584  0.2317  0.7074
61159SOL    HW192445   7.676   2.107   8.236  0.5840  0.1632 -0.8734
61159SOL    HW292446   7.821   2.131   8.273 -0.0991  0.3659  1.8664
61160SOL     OW92447   7.460  11.167   0.731  0.4063  0.0860 -0.4626
61160SOL    HW192448   7.523  11.098   0.711  1.3939  1.1110 -0.9974
61160SOL    HW292449   7.474  11.185   0.824  0.4903 -0.0925 -0.4391
61161SOL     OW92450  10.957  11.722   4.889 -0.1370  1.0932  0.3048
61161SOL    HW192451  11.021  11.760   4.949 -0.2126 -0.2551  1.2685
61161SOL    HW292452  10.874  11.762   4.914  0.1892  2.3708 -0.5354
61162SOL     OW92453   6.858   3.356   7.997  0.2317 -0.0359 -0.3670
61162SOL    HW192454   6.953   3.363   8.001  0.1130  1.2608  0.7538
61162SOL    HW292455   6.836   3.293   8.066  0.2954 -0.7164 -0.9557
61163SOL     OW92456   8.916  11.336   7.449 -0.2597 -0.4326 -0.4058
61163SOL    HW192457   8.882  11.263   7.501 -0.4834 -0.1913 -0.2109
61163SOL    HW292458   8.874  11.327   7.364 -1.2004  0.1385 -0.0223
61164SOL     OW92459   9.906   8.349   4.549  0.3506 -0.0152 -0.3398
61164SOL    HW192460   9.864   8.423   4.505 -0.2461 -0.5591 -0.7023
61164SOL    HW292461   9.857   8.339   4.630 -0.5917 -0.9887 -1.0089
61165SOL     OW92462   8.841   9.998   2.894 -0.2575  0.1695 -0.0853
61165SOL    HW192463   8.861   9.927   2.833  0.6770 -0.1067  0.5214
61165SOL    HW292464   8.747  10.013   2.882 -0.1310  0.0058 -1.4454
61166SOL     OW92465  11.267   5.497   5.429 -0.0955 -0.3924  0.2180
61166SOL    HW192466  11.331   5.457   5.488  0.8662  1.4757  0.5120
61166SOL    HW292467  11.245   5.581   5.470 -0.4364  0.3461 -1.3916
61167SOL     OW92468   4.965   0.700  12.325 -0.4304 -0.0701  0.0236
61167SOL    HW192469   5.032   0.639  12.294 -0.0551 -0.4988  1.5818
61167SOL    HW292470   5.014   0.778  12.351 -0.6662  0.0548  0.0958
61168SOL     OW92471   4.978   6.720   2.893  1.0221  0.0955 -0.1600
61168SOL    HW192472   4.958   6.628   2.912 -1.0639  0.9824  2.6614
61168SOL    HW292473   4.962   6.730   2.799 -0.9607 -1.9276 -0.1220
61169SOL     OW92474  12.376   8.282  11.911  0.0061  0.4292 -0.2438
61169SOL    HW192475  12.317   8.215  11.876  1.9686 -1.6217  0.1615
61169SOL    HW292476  12.359   8.281  12.005 -0.1625  0.7260 -0.2700
61170SOL     OW92477   7.039   0.898   1.735  0.7722 -0.7727  0.0235
61170SOL    HW192478   7.023   0.876   1.643  0.7485  0.2811 -0.2315
61170SOL    HW292479   7.069   0.989   1.734  0.1963 -0.5463  1.1152
61171SOL     OW92480   1.197   3.101   4.766  0.4578  0.3747 -0.2353
61171SOL    HW192481   1.153   3.089   4.682  0.7363 -0.9562 -0.2088
61171SOL    HW292482   1.285   3.065   4.753  0.7122  0.7406  0.4359
61172SOL     OW92483   1.084   1.680   0.063  0.3695  0.1836 -0.0049
61172SOL    HW192484   1.020   1.707   0.129  0.7385  1.0607 -0.0032
61172SOL    HW292485   1.070   1.585   0.055 -0.0064  0.1422  0.9721
61173SOL     OW92486   1.775   2.225   9.395  0.3908 -0.2341 -0.0106
61173SOL    HW192487   1.844   2.276   9.437 -0.3617  0.5246  0.3276
61173SOL    HW292488   1.698   2.281   9.400  0.0630 -0.4968 -1.5901
61174SOL     OW92489   4.723   2.780   0.105 -0.0547 -0.2127 -0.1100
61174SOL    HW192490   4.704   2.694   0.143 -1.3389 -0.8263 -2.0295
61174SOL    HW292491   4.643   2.831   0.119  0.1488  0.1823 -0.3571
61175SOL     OW92492   1.559   6.072   7.569  0.2157  0.5875 -0.1696
61175SOL    HW192493   1.527   6.162   7.577 -2.4318 -0.2391 -0.4343
61175SOL    HW292494   1.646   6.081   7.528  0.5729  3.0443  0.9188
61176SOL     OW92495   5.585  12.444   4.119  0.1068  0.1657  0.2322
61176SOL    HW192496   5.505  12.400   4.146  2.0620 -3.0478  1.3683
61176SOL    HW292497   5.616  12.393   4.044 -0.2328  3.0889 -2.0734
61177SOL     OW92498   8.146   0.195   2.124  0.1610  0.3945  0.2954
61177SOL    HW192499   8.075   0.134   2.104 -0.0835  0.9441 -0.5416
61177SOL    HW292500   8.157   0.188   2.219  0.9843 -1.8805  0.1131
61178SOL     OW92501  10.149  12.394   7.357 -0.2091  0.3475 -0.2325
61178SOL    HW192502  10.137  12.455   7.285  1.6326  1.2567  0.1612
61178SOL    HW292503  10.090  12.425   7.425 -1.8298 -0.4143 -1.2421
61179SOL     OW92504   4.947   8.403   6.904  0.0098 -0.3848 -0.0621
61179SOL    HW192505   4.965   8.439   6.991 -0.9173  1.8413 -0.7265
61179SOL    HW292506   4.892   8.468   6.862 -1.0666 -2.2537 -1.7097
61180SOL     OW92507  11.308   4.469   9.120  0.1001 -0.0667 -0.1056
61180SOL    HW192508  11.227   4.491   9.167 -1.0078 -1.5322 -1.2363
61180SOL    HW292509  11.283   4.469   9.028  1.2461 -1.1283 -0.4326
61181SOL     OW92510   3.808   6.367   7.328 -0.0750 -0.7276 -0.1777
61181SOL    HW192511   3.880   6.325   7.281  1.4782  0.9063  0.6398
61181SOL    HW292512   3.764   6.420   7.263 -0.5840 -1.7416 -0.6848
61182SOL     OW92513   0.296   6.693   0.816 -0.4277 -0.5307 -0.4726
61182SOL    HW192514   0.240   6.770   0.816 -0.6891 -0.6853  0.9467
61182SOL    HW292515   0.261   6.638   0.886  0.6930 -1.2310 -0.4316
61183SOL     OW92516   1.548  11.706   8.736 -0.7717  0.6727 -0.2031
61183SOL    HW192517   1.558  11.749   8.821 -0.9878  1.5266 -0.6000
61183SOL    HW292518   1.549  11.613   8.756  1.5087  0.7742  0.4937
61184SOL     OW92519   9.611   2.447   9.074  0.4094  0.3022  0.5497
61184SOL    HW192520   9.576   2.424   9.160 -0.0413  1.0355  0.5729
61184SOL    HW292521   9.683   2.506   9.092  0.0884  0.7399  0.4161
61185SOL     OW92522   4.913   2.895  12.253 -0.1267 -0.6936 -0.1981
61185SOL    HW192523   4.934   2.803  12.242 -0.8764 -1.0603  1.2687
61185SOL    HW292524   4.916   2.911  12.347 -0.8132  0.5728 -0.3547
61186SOL     OW92525   6.065  12.434   9.849  0.3422 -0.0503 -0.3623
61186SOL    HW192526   6.028  12.497   9.910  0.1611 -2.0389  1.7416
61186SOL    HW292527   5.997  12.368   9.837  0.6176 -0.0295 -2.2405
61187SOL     OW92528   9.260   4.790   4.388  0.2219 -0.4853 -0.6033
61187SOL    HW192529   9.274   4.855   4.457 -0.0000 -0.8723 -0.1948
61187SOL    HW292530   9.231   4.842   4.313  0.7573 -0.0334 -0.4986
61188SOL     OW92531   5.617  12.134   6.918  0.2102  0.0165 -0.0794
61188SOL    HW192532   5.552  12.066   6.932 -0.2410  0.1414 -1.3964
61188SOL    HW292533   5.616  12.149   6.824  1.8330  0.3463 -0.0724
61189SOL     OW92534  12.166   4.407   5.306 -0.4377 -0.8792  0.2303
61189SOL    HW192535  12.234   4.415   5.374 -0.9529 -1.5092  0.8392
61189SOL    HW292536  12.114   4.331   5.333 -1.6704 -0.1401  0.0402
61190SOL     OW92537  10.822   9.134  11.791 -0.3108 -0.1928  0.0783
61190SOL    HW192538  10.910   9.122  11.758  0.7026  0.6160  2.2762
61190SOL    HW292539  10.797   9.222  11.763 -1.2776 -1.1216 -2.2203
61191SOL     OW92540   5.208   7.312   8.193  0.2912 -0.5171  0.2390
61191SOL    HW192541   5.120   7.348   8.207  0.4091  0.1099 -0.5933
61191SOL    HW292542   5.207   7.228   8.240 -0.7395 -0.5068  0.2546
61192SOL     OW92543   0.276   7.941   7.693 -0.1734  0.1437  0.2937
61192SOL    HW192544   0.354   7.991   7.716  0.4499 -0.4099 -0.5557
61192SOL    HW292545   0.287   7.857   7.738 -2.3630  1.5000  3.7128
61193SOL     OW92546   9.464  11.108   1.255 -0.2303 -0.0579 -0.3779
61193SOL    HW192547   9.442  11.017   1.234  0.2923 -0.3681  0.3809
61193SOL    HW292548   9.554  11.104   1.287  0.1151  0.8546 -1.1713
61194SOL     OW92549  11.157  11.838   8.896  0.2678  0.1588 -0.1127
61194SOL    HW192550  11.093  11.782   8.853  1.5094 -0.0158 -1.8568
61194SOL    HW292551  11.169  11.799   8.983 -1.1520 -0.4344 -0.1614
61195SOL     OW92552   9.309   4.043   3.442 -0.3666  0.0257  0.5041
61195SOL    HW192553   9.242   4.012   3.381  0.3924  0.1031 -0.3882
61195SOL    HW292554   9.314   3.975   3.509 -1.2702 -0.0191  0.5385
61196SOL     OW92555   8.174   7.942  11.406  0.9547 -0.0477 -0.1878
61196SOL    HW192556   8.239   8.011  11.417  0.9446  0.0318 -0.6125
61196SOL    HW292557   8.169   7.900  11.492  1.5022  0.0026 -0.1281
61197SOL     OW92558   6.555  12.432   5.622 -0.1937 -0.1335 -0.0839
61197SOL    HW192559   6.475  12.478   5.595  0.2514  1.7584  1.5085
61197SOL    HW292560   6.594  12.400   5.541 -0.4121  2.6438 -1.4088
61198SOL     OW92561   9.996   3.629   6.041 -0.2979 -0.2095 -0.9703
61198SOL    HW192562   9.931   3.571   6.079 -0.3482 -0.3995 -1.3416
61198SOL    HW292563  10.054   3.652   6.113 -2.2304  2.0315  0.0162
61199SOL     OW92564   6.073   7.489   3.507 -0.5555 -0.0346 -0.5427
61199SOL    HW192565   6.167   7.478   3.520 -0.8226 -1.2313  0.6529
61199SOL    HW292566   6.042   7.403   3.480 -1.2464  0.4873 -1.5027
61200SOL     OW92567   8.043  11.780   9.262 -0.1505 -0.3290 -0.2267
61200SOL    HW192568   8.022  11.687   9.259  0.8680 -0.5476 -1.0048
61200SOL    HW292569   8.040  11.808   9.171  3.8252 -0.6305 -0.6141
61201SOL     OW92570  12.099   8.225   0.767  0.0053  0.4954 -0.2723
61201SOL    HW192571  12.145   8.308   0.756  0.2910  0.3593 -0.1433
61201SOL    HW292572  12.021   8.247   0.817 -0.1191  0.7468 -0.5756
61202SOL     OW92573   4.631   7.908   2.388 -0.1160  0.1790 -0.0274
61202SOL    HW192574   4.651   7.891   2.297  0.5232 -0.0238  0.1461
61202SOL    HW292575   4.716   7.908   2.432 -0.2482  1.8707  0.2990
61203SOL     OW92576   0.456  10.325   2.132 -0.1626  0.4465 -0.4884
61203SOL    HW192577   0.491  10.407   2.169  2.8486 -1.5197  1.4886
61203SOL    HW292578   0.498  10.319   2.046  1.2597  0.0692  0.2014
61204SOL     OW92579   6.024   2.235   6.284 -0.0597 -0.6327  0.1041
61204SOL    HW192580   5.950   2.246   6.224 -0.0373  1.0415  0.3425
61204SOL    HW292581   6.100   2.257   6.232  0.0836 -0.4452  0.3919
61205SOL     OW92582   9.502   2.494   6.396 -0.5001  0.3999 -0.2877
61205SOL    HW192583   9.507   2.504   6.491 -1.3854 -0.5339 -0.1320
61205SOL    HW292584   9.447   2.566   6.367 -0.3404  0.6072 -0.0770
61206SOL     OW92585   2.921   1.261  12.374 -0.5142  0.0461  0.5451
61206SOL    HW192586   2.970   1.198  12.321  0.3501  1.3663 -0.2980
61206SOL    HW292587   2.845   1.213  12.406 -1.1219 -0.7997 -1.9694
61207SOL     OW92588   4.131   8.287   0.008  1.0978 -0.2753  0.4472
61207SOL    HW192589   4.173   8.361   0.052  0.6501  0.1932  0.0893
61207SOL    HW292590   4.089   8.325  -0.069  0.7168 -0.8772  0.3528
61208SOL     OW92591   0.879  11.502   3.677 -0.3269  0.0812  0.3670
61208SOL    HW192592   0.938  11.481   3.749 -0.1239  3.1007  1.2024
61208SOL    HW292593   0.857  11.594   3.689 -2.0679  0.1229 -2.2022
61209SOL     OW92594   6.881   2.243   1.187  0.2864 -0.6642  0.8117
61209SOL    HW192595   6.836   2.201   1.261 -0.1811 -2.8324 -0.5877
61209SOL    HW292596   6.819   2.235   1.115  0.8736  1.0897  0.0718
61210SOL     OW92597   1.219  11.102   1.717  0.1490 -0.3508  0.2293
61210SOL    HW192598   1.142  11.061   1.755  0.4667 -1.4050 -0.2172
61210SOL    HW292599   1.285  11.032   1.714  0.8390  0.2935 -0.1863
61211SOL     OW92600   1.256   0.041   5.023 -0.1116 -0.3905 -0.1975
61211SOL    HW192601   1.277   0.088   5.104  0.4244 -0.1316 -0.4781
61211SOL    HW292602   1.342   0.023   4.983 -0.2880 -1.9669  0.0972
61212SOL     OW92603   0.747   6.838   1.516 -0.1085  0.1619  0.1412
61212SOL    HW192604   0.732   6.899   1.589 -0.5829 -1.7164  1.6820
61212SOL    HW292605   0.838   6.854   1.490 -0.0888  1.2165  0.7959
61213SOL     OW92606   1.713   0.206  11.922  0.0506 -0.1241 -0.0724
61213SOL    HW192607   1.714   0.111  11.913  1.4725 -0.0480 -1.0436
61213SOL    HW292608   1.743   0.239  11.838  1.3702  1.1050  0.8241
61214SOL     OW92609  10.577   1.476   5.550 -0.1682 -0.6203  0.5346
61214SOL    HW192610  10.523   1.424   5.492  1.5464 -1.0384 -0.7759
61214SOL    HW292611  10.515   1.531   5.598 -1.7068 -0.8218 -1.1113
61215SOL     OW92612   5.351   2.201   7.478  0.3091 -0.2680 -0.1779
61215SOL    HW192613   5.395   2.136   7.532 -0.4013 -0.9499 -0.3851
61215SOL    HW292614   5.280   2.234   7.533 -0.3309 -0.8659 -0.6176
61216SOL     OW92615  11.440  10.823   7.486 -0.3121 -0.0985  0.0563
61216SOL    HW192616  11.358  10.782   7.460  0.1137 -0.0775 -1.4144
61216SOL    HW292617  11.494  10.751   7.518 -0.3353 -0.3674 -0.4968
61217SOL     OW92618   5.011   0.201  10.600 -0.3074 -0.0589 -0.1356
61217SOL    HW192619   5.069   0.223  10.527  1.6282 -0.5981  1.1794
61217SOL    HW292620   5.006   0.105  10.598  2.0299 -0.3312  1.9996
61218SOL     OW92621  10.912  12.457   4.029 -0.2524 -0.3222  0.0663
61218SOL    HW192622  10.979  12.473   4.095 -0.1512 -0.0567 -0.1048
61218SOL    HW292623  10.893  12.363   4.037  1.4965 -0.8202 -1.1753
61219SOL     OW92624  11.133  11.270   5.444 -0.1168 -1.0971  0.0586
61219SOL    HW192625  11.222  11.241   5.427 -0.3148 -1.9239  0.3395
61219SOL    HW292626  11.143  11.347   5.501  0.4558  0.0863 -1.5839
61220SOL     OW92627   4.006   9.118   8.383 -0.1280  0.2592  0.3124
61220SOL    HW192628   4.052   9.170   8.317 -1.0996  0.4122 -0.2612
61220SOL    HW292629   3.915   9.115   8.353 -0.4295 -0.3505  1.2251
61221SOL     OW92630   4.532  10.444   3.292  0.0762  0.5873  0.1415
61221SOL    HW192631   4.469  10.423   3.223  0.3844  0.0842  0.0035
61221SOL    HW292632   4.606  10.385   3.275 -0.0481  0.1106  1.1854
61222SOL     OW92633   0.078   5.527  11.335  0.0637  0.1359 -0.1731
61222SOL    HW192634   0.013   5.547  11.403 -1.0268  1.1992 -1.4740
61222SOL    HW292635   0.126   5.609  11.323 -0.4150  0.2621 -1.3585
61223SOL     OW92636   0.946   6.597   6.736  0.3369  0.4795  0.6104
61223SOL    HW192637   0.954   6.683   6.695  0.7129  1.2950  2.3059
61223SOL    HW292638   0.865   6.602   6.786  0.0308 -0.4029  0.2296
61224SOL     OW92639   8.250   0.900  10.211  0.3682  0.1627  0.0685
61224SOL    HW192640   8.248   0.859  10.298 -1.1029  0.8845  0.4170
61224SOL    HW292641   8.292   0.985  10.227  0.4279  0.1431  0.0115
61225SOL     OW92642   7.773   5.797  12.339  0.1506  0.5055 -0.7134
61225SOL    HW192643   7.698   5.746  12.310 -0.6380  0.6668  0.9384
61225SOL    HW292644   7.736   5.876  12.377  1.0762  0.2852  0.7515
61226SOL     OW92645   7.798   6.780   2.027 -0.1743 -0.5794  0.1146
61226SOL    HW192646   7.853   6.706   2.000 -1.7118 -0.8996 -2.5031
61226SOL    HW292647   7.833   6.855   1.979  0.2597  0.0466  1.3704
61227SOL     OW92648  11.431   4.966   1.095 -0.0480  0.2704  0.2102
61227SOL    HW192649  11.470   5.045   1.058  0.1213 -0.3461 -0.9735
61227SOL    HW292650  11.432   4.980   1.189  0.0731  1.6338  0.0213
61228SOL     OW92651  12.510   7.431   9.247  0.0723  0.5798 -0.1861
61228SOL    HW192652  12.548   7.379   9.177 -1.0259  0.8585 -1.0102
61228SOL    HW292653  12.580   7.491   9.273  1.2118 -0.9857  0.4946
61229SOL     OW92654   2.403   1.945   9.177  0.1330 -0.3081 -0.1010
61229SOL    HW192655   2.366   2.033   9.166  0.0081 -0.3080  0.3246
61229SOL    HW292656   2.359   1.910   9.254 -0.7090 -1.2074 -0.9508
61230SOL     OW92657   1.282   6.954   5.313 -0.0836  0.2714 -0.4426
61230SOL    HW192658   1.262   7.048   5.315 -0.2799  0.2257 -0.1788
61230SOL    HW292659   1.362   6.947   5.261 -0.9596  0.4218 -1.8499
61231SOL     OW92660   8.082  10.696   6.374  0.1932 -0.3404 -0.1106
61231SOL    HW192661   8.016  10.680   6.441  0.0297 -0.4459 -0.2980
61231SOL    HW292662   8.162  10.714   6.424  0.8066 -3.2996  0.1300
61232SOL     OW92663   7.563   7.840   5.335 -0.4282 -0.3098  0.2763
61232SOL    HW192664   7.497   7.855   5.267 -0.1888  0.5191  0.2073
61232SOL    HW292665   7.612   7.764   5.305 -0.3484  0.0279 -0.4722
61233SOL     OW92666   8.609   6.381  10.583  0.0192 -0.4449 -1.0878
61233SOL    HW192667   8.632   6.445  10.516  0.1254  0.4417 -0.2201
61233SOL    HW292668   8.518   6.358  10.563 -0.3705  0.7579 -0.8095
61234SOL     OW92669   9.243   7.286   4.987  0.7713  0.2977 -0.2586
61234SOL    HW192670   9.309   7.220   4.965  0.1180 -0.0067 -1.3676
61234SOL    HW292671   9.161   7.238   4.990  0.5808  0.6612  1.2276
61235SOL     OW92672   4.360   8.216   8.137  0.5400 -0.5144 -0.7674
61235SOL    HW192673   4.363   8.189   8.229 -1.2989  0.7542 -0.2992
61235SOL    HW292674   4.271   8.247   8.123  1.2319  0.8523 -2.5483
61236SOL     OW92675   1.512   8.723   6.698 -0.1116  0.3026  0.1680
61236SOL    HW192676   1.424   8.729   6.736 -0.4382 -0.0229 -0.5318
61236SOL    HW292677   1.502   8.666   6.622  0.4517  1.3037 -0.6766
61237SOL     OW92678   9.181  11.327   9.842 -0.5906  0.2951 -0.3902
61237SOL    HW192679   9.107  11.284   9.885 -2.3725  2.0837 -1.5183
61237SOL    HW292680   9.177  11.297   9.751  0.6156 -0.2191 -0.2951
61238SOL     OW92681  10.611  11.912  11.753 -0.2017  0.3676 -0.0893
61238SOL    HW192682  10.643  11.858  11.681 -0.4290 -1.0787  0.8451
61238SOL    HW292683  10.653  11.997  11.741 -0.0981  0.1036 -1.8050
61239SOL     OW92684   3.213  11.536   3.556  0.0662 -0.3341  0.3478
61239SOL    HW192685   3.250  11.607   3.609  2.6724 -1.2767 -0.0528
61239SOL    HW292686   3.161  11.580   3.489  1.5182  1.2144  0.1918
61240SOL     OW92687   5.130   3.441   4.105  0.2229  0.0028  0.4175
61240SOL    HW192688   5.126   3.406   4.016 -0.5646 -0.7661  0.7434
61240SOL    HW292689   5.211   3.405   4.142  0.3743  0.0476  0.1272
61241SOL     OW92690   5.138   0.807   7.658 -0.4735 -0.0151 -0.2172
61241SOL    HW192691   5.222   0.853   7.667 -0.8393  0.6632 -0.1552
61241SOL    HW292692   5.137   0.776   7.568 -0.0721 -0.2002 -0.1590
61242SOL     OW92693   0.624   9.656  11.286 -0.1150 -0.6993 -0.2913
61242SOL    HW192694   0.666   9.655  11.372  1.0406 -3.0249 -0.8000
61242SOL    HW292695   0.531   9.659  11.304  0.1434  0.4918  0.9825
61243SOL     OW92696   1.185  10.460   3.577 -0.0498 -0.7175  0.0413
61243SOL    HW192697   1.158  10.551   3.569  0.8326 -0.4018  0.5832
61243SOL    HW292698   1.116  10.420   3.630  0.1060 -0.1107  0.7140
61244SOL     OW92699   9.204   2.152  10.747 -0.2229  0.4048 -0.3701
61244SOL    HW192700   9.119   2.150  10.703  0.5239 -2.8030 -1.9481
61244SOL    HW292701   9.255   2.216  10.698 -1.1493  1.0564 -0.5169
61245SOL     OW92702   7.200   2.590   7.570 -0.1266 -0.2878  0.1410
61245SOL    HW192703   7.283   2.576   7.526 -0.7098 -0.1429 -1.0454
61245SOL    HW292704   7.149   2.645   7.510 -0.4601  1.0734  1.5964
61246SOL     OW92705   4.783  11.321   7.784 -0.3404 -0.0069  0.1707
61246SOL    HW192706   4.700  11.272   7.783 -0.7044  0.5767  0.7566
61246SOL    HW292707   4.774  11.384   7.713 -1.3796  1.5952  1.6523
61247SOL     OW92708   0.049   3.532   9.633 -0.3472  0.4356 -0.4289
61247SOL    HW192709  -0.046   3.542   9.644 -0.4366 -0.9307  0.1781
61247SOL    HW292710   0.085   3.553   9.720 -0.2841 -1.1836 -0.0465
61248SOL     OW92711   8.260   6.086   6.965 -0.0243 -0.1218  0.0621
61248SOL    HW192712   8.338   6.051   7.010  0.6766  2.1722  0.7465
61248SOL    HW292713   8.192   6.022   6.984  1.0929 -0.9542  1.5562
61249SOL     OW92714   3.524   0.108  10.721  0.8406 -0.0725  0.2168
61249SOL    HW192715   3.574   0.043  10.771 -0.0587 -0.6455  0.3954
61249SOL    HW292716   3.574   0.120  10.641  1.2299 -0.7058  0.3542
61250SOL     OW92717   6.677   9.105   9.849  0.5906 -0.3578 -0.0714
61250SOL    HW192718   6.644   9.103   9.759  0.9870 -0.5108 -0.2133
61250SOL    HW292719   6.770   9.121   9.840  0.2901  1.9542  0.4011
61251SOL     OW92720   0.322   1.477   9.643  0.3436  0.3086  0.1680
61251SOL    HW192721   0.378   1.547   9.677  2.0125 -0.2485 -1.2834
61251SOL    HW292722   0.244   1.480   9.699  1.1427  2.1192  1.2948
61252SOL     OW92723   8.901   3.181   1.747  0.0965 -0.4709  0.2247
61252SOL    HW192724   8.953   3.242   1.799 -0.3388 -0.4535  0.6396
61252SOL    HW292725   8.906   3.216   1.658 -1.1047  0.8343  0.6378
61253SOL     OW92726   8.212   2.573   4.825 -0.0249  0.2460 -0.7145
61253SOL    HW192727   8.277   2.504   4.840 -1.0205 -0.2246  1.7283
61253SOL    HW292728   8.160   2.541   4.751  1.2128 -0.3159 -1.3727
61254SOL     OW92729   4.100  12.475   9.307 -0.6436  0.0635  0.4365
61254SOL    HW192730   4.093  12.567   9.330 -1.7573  0.1454 -0.1671
61254SOL    HW292731   4.055  12.429   9.377  0.5662 -0.0878  1.1277
61255SOL     OW92732   0.402   6.417   2.206 -0.5161  0.0358 -0.2704
61255SOL    HW192733   0.434   6.332   2.175 -1.1655 -0.1220 -0.5466
61255SOL    HW292734   0.471   6.450   2.263 -0.5743 -1.0221  0.4494
61256SOL     OW92735   5.362   2.489   1.213  0.6606 -0.0837 -0.2992
61256SOL    HW192736   5.424   2.560   1.226 -0.6147  0.6526  2.7538
61256SOL    HW292737   5.281   2.533   1.186  0.1299 -0.4280  0.6711
61257SOL     OW92738   2.458   4.354  12.552  0.1094  0.3926 -0.9445
61257SOL    HW192739   2.426   4.309  12.473  1.3690  0.7250 -1.6643
61257SOL    HW292740   2.469   4.445  12.525  1.5047  0.3163 -0.6851
61258SOL     OW92741   3.648   0.309  10.124 -0.2072 -0.2987  0.0794
61258SOL    HW192742   3.707   0.276  10.056 -0.6659 -1.4554  0.2224
61258SOL    HW292743   3.705   0.359  10.182  0.2832  0.2857 -0.8658
61259SOL     OW92744   6.111   8.388   6.315  0.3341  0.0279  0.7242
61259SOL    HW192745   6.168   8.458   6.347 -1.6499  2.3995 -0.5594
61259SOL    HW292746   6.141   8.372   6.226 -0.7592  1.0893  0.1402
61260SOL     OW92747   9.826  11.874   7.302  0.1463  0.1738  0.4532
61260SOL    HW192748   9.765  11.890   7.374  1.7096 -0.0458  1.8887
61260SOL    HW292749   9.815  11.781   7.281 -0.9298  0.4279 -0.2408
61261SOL     OW92750   0.129   0.871  12.324  0.5315 -0.4666  0.1206
61261SOL    HW192751   0.037   0.890  12.305  0.6630  0.3925  0.2698
61261SOL    HW292752   0.135   0.874  12.420  0.9498  0.7441  0.0747
61262SOL     OW92753   6.964   7.436   4.954 -0.0492 -0.2828 -0.1878
61262SOL    HW192754   6.876   7.468   4.931  0.8329 -0.0475 -3.9647
61262SOL    HW292755   7.013   7.516   4.974 -0.1068 -0.1850 -0.4359
61263SOL     OW92756   5.104  12.591   9.142 -0.1316  0.5419 -0.2230
61263SOL    HW192757   5.022  12.548   9.165  0.5118 -0.4148  0.3461
61263SOL    HW292758   5.088  12.627   9.054 -0.9348 -0.2112 -0.4052
61264SOL     OW92759   9.542   5.590   4.688 -0.6695  0.1351  0.0301
61264SOL    HW192760   9.514   5.681   4.679 -1.5429 -0.1982 -0.7187
61264SOL    HW292761   9.594   5.573   4.609  0.3003  0.2546  0.6236
61265SOL     OW92762   2.856   8.212   9.970 -0.3591 -0.2179  0.1408
61265SOL    HW192763   2.926   8.233  10.032  0.9319 -0.8251 -1.0626
61265SOL    HW292764   2.787   8.173  10.025  1.1231 -1.6261  1.1101
61266SOL     OW92765   2.672   1.312   3.878 -0.1126  1.0446 -0.5254
61266SOL    HW192766   2.613   1.380   3.909 -0.8076 -0.0563  0.6587
61266SOL    HW292767   2.616   1.235   3.866  0.7403  0.5182 -1.3177
61267SOL     OW92768   5.545   2.773   1.454  0.4937 -0.6688 -0.1384
61267SOL    HW192769   5.535   2.829   1.377 -1.0178 -1.5983 -0.6639
61267SOL    HW292770   5.593   2.827   1.516  1.7485  0.1150 -1.7058
61268SOL     OW92771   0.392   8.613   3.046 -0.2030 -0.7296 -0.0604
61268SOL    HW192772   0.446   8.672   3.099 -0.3948  0.2276 -0.8944
61268SOL    HW292773   0.447   8.590   2.971 -1.6542  2.2950 -2.3000
61269SOL     OW92774   0.550   3.839   6.123  0.0793  0.1969 -0.2109
61269SOL    HW192775   0.479   3.810   6.182 -0.5508 -0.6656 -1.3483
61269SOL    HW292776   0.626   3.788   6.151 -0.0637  0.2161  0.2231
61270SOL     OW92777   4.388   4.960   0.884  0.2078 -0.0184  0.9938
61270SOL    HW192778   4.415   4.938   0.973  2.2505  0.9106  0.6577
61270SOL    HW292779   4.468   4.954   0.832 -0.7863  0.1854 -0.6521
61271SOL     OW92780   9.727   9.123   0.523 -0.0166  0.2328 -0.0924
61271SOL    HW192781   9.803   9.096   0.573 -0.6569  2.7740  2.5125
61271SOL    HW292782   9.673   9.045   0.516  1.0818 -0.6955  1.3540
61272SOL     OW92783  11.153   1.851   7.469  0.0411 -0.2611 -0.4319
61272SOL    HW192784  11.186   1.783   7.528  0.2112 -0.7779 -1.1014
61272SOL    HW292785  11.090   1.806   7.413 -1.2260  0.5422  0.2991
61273SOL     OW92786   2.285  11.368   4.812 -0.1036  0.3170  0.6170
61273SOL    HW192787   2.239  11.308   4.871 -0.0531  1.3993  1.8174
61273SOL    HW292788   2.262  11.339   4.724 -1.3691 -0.4569  1.1840
61274SOL     OW92789   8.307   3.592  10.309  0.0235 -0.0100  0.1612
61274SOL    HW192790   8.326   3.580  10.216 -0.7318 -0.0321  0.0037
61274SOL    HW292791   8.355   3.521  10.352 -0.2812 -0.4981 -0.2901
61275SOL     OW92792  10.019   0.349   9.144  0.1980 -0.2527 -0.3406
61275SOL    HW192793  10.063   0.348   9.059 -0.2801 -0.7604 -0.5897
61275SOL    HW292794  10.085   0.382   9.205  0.1461  1.3395 -1.1125
61276SOL     OW92795   2.949  10.184   2.326  1.0595 -0.7687 -0.1197
61276SOL    HW192796   2.918  10.129   2.398 -0.9038 -0.7641 -0.8873
61276SOL    HW292797   2.968  10.269   2.367 -0.7899 -0.5239  0.3320
61277SOL     OW92798   5.305   1.074   1.221 -0.1091  0.0080  0.2544
61277SOL    HW192799   5.253   1.019   1.280 -0.5111  0.0402 -0.0626
61277SOL    HW292800   5.240   1.127   1.175  0.3183  1.6272  1.4109
61278SOL     OW92801   7.905   4.900   3.441 -0.1659  0.0338 -0.1348
61278SOL    HW192802   7.963   4.976   3.431 -1.0975  0.8420  0.4637
61278SOL    HW292803   7.961   4.831   3.477  0.4830  0.7130  0.1711
61279SOL     OW92804   1.377   8.367   8.810 -0.5702  0.1709 -0.4529
61279SOL    HW192805   1.393   8.461   8.804 -0.1977  0.0928 -0.7107
61279SOL    HW292806   1.300   8.359   8.866  0.3367  0.5521  0.8859
61280SOL     OW92807   6.299   4.001   7.476 -0.2910  0.0710  0.0436
61280SOL    HW192808   6.300   4.092   7.505 -0.9300 -0.7760  2.9999
61280SOL    HW292809   6.377   3.963   7.516  1.1167 -0.3349 -2.8010
61281SOL     OW92810   2.427   7.576   5.055  0.1220  0.2128  0.3943
61281SOL    HW192811   2.337   7.590   5.027  0.4329 -0.5369 -1.0611
61281SOL    HW292812   2.427   7.601   5.147 -1.3454  1.1581  0.1797
61282SOL     OW92813   8.897  10.494   0.508 -0.3899 -0.1724 -0.3562
61282SOL    HW192814   8.992  10.487   0.516 -0.4438 -2.2836 -1.0109
61282SOL    HW292815   8.883  10.573   0.456  1.1906 -1.2663 -2.5961
61283SOL     OW92816   5.478   9.790   3.509 -0.2318  0.0077  0.5144
61283SOL    HW192817   5.530   9.717   3.541  0.1302  0.4867  1.0453
61283SOL    HW292818   5.541   9.847   3.464 -0.5920 -0.2382 -0.3228
61284SOL     OW92819   8.948   3.365   1.524 -0.3315 -0.5585  0.0983
61284SOL    HW192820   8.913   3.453   1.543 -1.3566 -0.9511  0.1054
61284SOL    HW292821   8.878   3.322   1.474  0.1786 -1.3595  0.0622
61285SOL     OW92822   3.614   1.782   5.984  0.1216  0.4990  0.3918
61285SOL    HW192823   3.551   1.845   6.019  1.9288  2.8062 -0.2701
61285SOL    HW292824   3.666   1.755   6.060 -0.0682  0.4823  0.5182
61286SOL     OW92825   1.988  10.987   1.802 -0.3060  0.2081 -0.5084
61286SOL    HW192826   2.083  10.997   1.804 -0.0932 -1.4305  1.4432
61286SOL    HW292827   1.962  10.981   1.894 -2.2651  0.2383 -0.9962
61287SOL     OW92828  11.454   3.828   7.175 -0.1394  0.1573  0.3425
61287SOL    HW192829  11.406   3.838   7.258 -0.2726  1.4948  0.1268
61287SOL    HW292830  11.392   3.785   7.117 -0.4626  0.2680  0.6002
61288SOL     OW92831   8.497  11.889   6.486 -0.4204 -0.2039 -0.5576
61288SOL    HW192832   8.401  11.888   6.491 -0.5508  1.1271 -1.9827
61288SOL    HW292833   8.516  11.947   6.412  1.5237  1.0579  0.8524
61289SOL     OW92834   2.957   5.796   3.315  0.5072 -1.2570 -0.4551
61289SOL    HW192835   2.883   5.811   3.256 -1.4971 -1.9739  1.7333
61289SOL    HW292836   2.982   5.884   3.344 -0.2039 -1.0672 -0.4010
61290SOL     OW92837   8.335   1.827   0.127  0.2570 -0.1347 -0.6596
61290SOL    HW192838   8.319   1.791   0.040  0.2186 -1.0572 -0.2868
61290SOL    HW292839   8.389   1.761   0.171 -0.8195 -0.3215  0.4523
61291SOL     OW92840   9.704   0.038  12.578 -0.2874 -0.3481  0.0592
61291SOL    HW192841   9.613   0.060  12.558 -0.2320 -1.2824 -1.3297
61291SOL    HW292842   9.699  -0.039  12.633 -0.3571  0.6002  1.4307
61292SOL     OW92843  10.238  11.519  10.718 -0.0626  0.4757 -0.2475
61292SOL    HW192844  10.164  11.581  10.719  0.1731  0.7613  0.8743
61292SOL    HW292845  10.310  11.568  10.679 -0.0372  0.7305  0.1111
61293SOL     OW92846   1.229   4.152   9.525  0.5642  0.1203  0.2711
61293SOL    HW192847   1.162   4.220   9.526  1.4250  1.0492 -1.3065
61293SOL    HW292848   1.191   4.080   9.576 -0.3563  1.7639  2.0222
61294SOL     OW92849  11.992   3.622   0.895  0.0767 -0.0015  0.2907
61294SOL    HW192850  12.087   3.617   0.896  0.0529 -0.9072 -0.7136
61294SOL    HW292851  11.967   3.613   0.987  0.8836 -1.7468  0.3707
61295SOL     OW92852   4.723  12.368  10.216 -0.1762 -0.0633  0.0700
61295SOL    HW192853   4.672  12.287  10.205  0.1291 -0.0120 -2.4059
61295SOL    HW292854   4.807  12.348  10.175  0.0865  1.3449 -0.0979
61296SOL     OW92855   8.038  12.453   0.834 -0.5850  0.4935 -0.1328
61296SOL    HW192856   8.112  12.513   0.843 -1.1607  1.3987 -1.1591
61296SOL    HW292857   8.026  12.415   0.921  1.3531 -0.0116 -0.0496
61297SOL     OW92858   5.698   1.196   8.618 -0.1043  0.2946 -0.0168
61297SOL    HW192859   5.713   1.102   8.630  1.6316  0.6648  1.0754
61297SOL    HW292860   5.721   1.212   8.527  1.2567 -0.0936  0.2297
61298SOL     OW92861   7.261   3.420   2.141  0.2066 -0.1929 -1.1054
61298SOL    HW192862   7.307   3.492   2.097 -0.3488  0.7988 -0.1090
61298SOL    HW292863   7.214   3.462   2.213  1.1508 -1.7710  0.5083
61299SOL     OW92864   8.093  10.895   8.953  0.1824 -0.1920  0.3274
61299SOL    HW192865   8.147  10.819   8.977  0.8225  0.3996  0.7712
61299SOL    HW292866   8.132  10.968   9.000 -0.3169  0.4562 -0.2516
61300SOL     OW92867   7.014  11.489   6.484 -0.3975 -0.4905 -0.9014
61300SOL    HW192868   6.968  11.523   6.561  0.7530  0.2008 -0.4875
61300SOL    HW292869   7.044  11.567   6.438  1.3709 -0.8995 -0.5045
61301SOL     OW92870  12.238   1.794   6.716 -0.2937  0.3487 -0.1045
61301SOL    HW192871  12.226   1.889   6.713  0.1990  0.3783 -1.5348
61301SOL    HW292872  12.175   1.759   6.653  2.2172  0.0516 -2.6135
61302SOL     OW92873   1.621   5.322   2.642 -0.0994  0.3974 -0.7180
61302SOL    HW192874   1.618   5.275   2.725 -3.0117  0.7058 -0.5350
61302SOL    HW292875   1.669   5.403   2.661  1.0584 -0.4510  0.0926
61303SOL     OW92876   5.637   4.397   3.836 -0.5208  0.3459  0.7249
61303SOL    HW192877   5.670   4.486   3.824  0.6232 -0.2815 -1.2813
61303SOL    HW292878   5.542   4.406   3.825 -0.2854  1.1377 -1.0868
61304SOL     OW92879   9.467   2.396   9.622  0.1106 -0.3823 -0.0082
61304SOL    HW192880   9.400   2.441   9.674  0.3886 -0.0803  0.0876
61304SOL    HW292881   9.543   2.391   9.680  0.1593 -0.7591 -0.1049
61305SOL     OW92882   7.221   9.071   4.282  0.1287  0.5730  0.2519
61305SOL    HW192883   7.290   9.013   4.250  1.9559  1.4833  2.2783
61305SOL    HW292884   7.153   9.012   4.316  1.5753 -0.4242  1.5290
61306SOL     OW92885  12.044   0.755   5.173  0.3625  0.1118  0.4718
61306SOL    HW192886  12.101   0.817   5.127 -0.4858  1.3949  1.0953
61306SOL    HW292887  11.972   0.739   5.112 -0.0576  0.7360  0.7942
61307SOL     OW92888   8.790   8.359  10.985  0.2198 -0.1099  0.2868
61307SOL    HW192889   8.836   8.398  10.910  1.1791 -0.8673  0.4720
61307SOL    HW292890   8.751   8.280  10.950  0.5624 -0.3982  0.5525
61308SOL     OW92891   5.803   0.508   1.663 -0.2647  0.3770 -0.4279
61308SOL    HW192892   5.893   0.482   1.679 -0.0337  0.3103 -1.7219
61308SOL    HW292893   5.782   0.569   1.734  0.8034  0.4188 -0.1339
61309SOL     OW92894   0.158   3.068   1.140 -0.0547 -0.4157  0.1630
61309SOL    HW192895   0.217   3.006   1.097 -0.6878 -0.0768 -1.2707
61309SOL    HW292896   0.212   3.111   1.207  1.1987 -0.4565 -0.7770
61310SOL     OW92897   1.450   2.939   2.099  0.2633 -0.0892  0.5224
61310SOL    HW192898   1.494   2.922   2.182  0.4443  0.5845  0.5741
61310SOL    HW292899   1.357   2.949   2.122 -0.0279 -2.0318  0.3430
61311SOL     OW92900  10.419   4.883   7.756  0.0695  0.0823  0.0154
61311SOL    HW192901  10.360   4.956   7.773 -1.6210 -1.0187 -0.7652
61311SOL    HW292902  10.360   4.809   7.736  1.7253 -0.9950 -1.1716
61312SOL     OW92903   1.855   0.199  12.357  0.3938  0.2353 -0.0477
61312SOL    HW192904   1.928   0.203  12.419  1.1654 -1.1247 -0.7984
61312SOL    HW292905   1.875   0.122  12.303 -1.0308  0.5028 -0.9954
61313SOL     OW92906   1.644  10.096   0.295  0.0368 -0.0192  0.0560
61313SOL    HW192907   1.550  10.080   0.297 -0.2340  1.3123 -0.7986
61313SOL    HW292908   1.671  10.091   0.387 -1.2590  1.5886  0.5828
61314SOL     OW92909   7.411   5.705   1.875 -0.2615  0.4659 -0.3113
61314SOL    HW192910   7.333   5.655   1.852  0.0017 -0.3384  0.4876
61314SOL    HW292911   7.407   5.783   1.819 -1.0424 -0.1056 -1.0775
61315SOL     OW92912   7.336   7.364   3.266  0.3379 -0.2807 -0.3627
61315SOL    HW192913   7.279   7.440   3.253 -0.2379 -0.8973 -1.6550
61315SOL    HW292914   7.290   7.311   3.332  0.0319 -0.1925 -0.5048
61316SOL     OW92915  10.310  12.405   6.819  0.0297 -0.2951  0.2118
61316SOL    HW192916  10.276  12.344   6.884  1.5575 -0.4470  0.8933
61316SOL    HW292917  10.331  12.484   6.868 -1.8981  0.8132 -0.6618
61317SOL     OW92918   0.146   4.127   8.092  0.5037 -0.1096  0.4221
61317SOL    HW192919   0.122   4.151   8.002 -3.3436 -2.2213  0.6578
61317SOL    HW292920   0.225   4.177   8.110  0.7922  1.3049 -3.7148
61318SOL     OW92921   2.497  10.318   7.626 -0.4937 -0.0263  0.3762
61318SOL    HW192922   2.415  10.324   7.673 -0.9733 -0.6492 -0.3600
61318SOL    HW292923   2.485  10.246   7.564  0.3877  0.2531 -0.1504
61319SOL     OW92924  11.589   0.222   6.671  0.3845 -0.2610  0.0433
61319SOL    HW192925  11.635   0.286   6.618  3.2059 -1.9179  0.2902
61319SOL    HW292926  11.534   0.174   6.609  3.5739 -2.1451 -1.5755
61320SOL     OW92927   7.771   7.227   0.859  0.5055  0.2236 -0.0985
61320SOL    HW192928   7.797   7.319   0.847  1.3573 -0.0567 -0.4991
61320SOL    HW292929   7.835   7.178   0.808 -0.1402 -0.5799 -0.1448
61321SOL     OW92930   5.872   3.124  10.411 -0.3691 -0.4090  0.1933
61321SOL    HW192931   5.945   3.063  10.402 -0.6576 -1.0315  1.7916
61321SOL    HW292932   5.906   3.207  10.376  0.5948 -1.0478 -0.4404
61322SOL     OW92933   0.726   4.112  10.862  0.2786 -0.1228  0.4357
61322SOL    HW192934   0.712   4.040  10.800  1.0210 -0.1987  0.3523
61322SOL    HW292935   0.644   4.162  10.859  0.8859  0.8910 -1.9479
61323SOL     OW92936   5.181   1.206   4.314  0.2441  0.5332 -0.1420
61323SOL    HW192937   5.259   1.150   4.312  0.5702  0.8168  1.9460
61323SOL    HW292938   5.200   1.271   4.382 -1.6119  0.8947  0.0863
61324SOL     OW92939  10.039  11.542   2.543  0.2760 -0.2986 -0.4901
61324SOL    HW192940  10.062  11.458   2.503  2.0344 -0.4267  0.6870
61324SOL    HW292941  10.123  11.583   2.564 -0.5381  1.7361 -0.9337
61325SOL     OW92942  10.416  12.203   6.237 -0.2423 -0.7013  0.2636
61325SOL    HW192943  10.443  12.188   6.146  1.7932  0.7922  0.5287
61325SOL    HW292944  10.489  12.169   6.289 -1.4569 -1.6804  1.3663
61326SOL     OW92945  11.618   3.732   3.482  0.0695 -0.1170 -0.3913
61326SOL    HW192946  11.543   3.791   3.486  0.3253  0.2639 -1.1695
61326SOL    HW292947  11.673   3.767   3.412  2.0673  0.8975  1.5559
61327SOL     OW92948   0.892  10.229   0.009 -0.5113  0.0088 -0.1744
61327SOL    HW192949   0.852  10.243  -0.076 -0.2583  0.3400 -0.2420
61327SOL    HW292950   0.910  10.135   0.013 -1.8586 -0.2480  0.1175
61328SOL     OW92951   3.421   2.226   0.617 -0.3180  0.5067 -0.3312
61328SOL    HW192952   3.361   2.277   0.672  1.6959  2.1471  0.4606
61328SOL    HW292953   3.377   2.224   0.531 -1.7705  1.1540  0.3483
61329SOL     OW92954   4.515   8.757   1.959 -0.5337  0.6546 -0.3675
61329SOL    HW192955   4.577   8.733   1.889 -1.8620 -0.6264 -1.1524
61329SOL    HW292956   4.440   8.794   1.913 -1.6486 -0.6714  0.3128
61330SOL     OW92957   8.837  10.731  10.179  0.0626  0.2815 -0.2487
61330SOL    HW192958   8.808  10.641  10.193  0.7023  0.1445  0.2667
61330SOL    HW292959   8.769  10.770  10.125  1.1858 -1.3383 -3.0540
61331SOL     OW92960   6.644  10.388   4.311 -0.3190 -0.1869  0.2678
61331SOL    HW192961   6.668  10.477   4.337 -1.1439  0.6966 -1.7622
61331SOL    HW292962   6.638  10.340   4.393 -1.1527  1.9736  1.5678
61332SOL     OW92963   9.170   2.869   3.841 -0.5026 -0.3469 -0.5876
61332SOL    HW192964   9.169   2.937   3.774 -0.6119 -0.0379 -0.2738
61332SOL    HW292965   9.108   2.898   3.907 -2.4287 -1.9342 -1.5866
61333SOL     OW92966   8.741   4.242   0.842  0.5056  0.1527 -0.6501
61333SOL    HW192967   8.727   4.336   0.850 -0.8948 -0.0117 -0.9082
61333SOL    HW292968   8.834   4.230   0.860  0.2610  1.2961  1.9750
61334SOL     OW92969   3.625   2.286   7.889 -0.6834  0.6603  0.1831
61334SOL    HW192970   3.559   2.233   7.933  1.0856 -1.4062  0.5308
61334SOL    HW292971   3.666   2.337   7.959  1.5330 -1.9712  0.9800
61335SOL     OW92972   8.189   7.411   4.283  0.0102  0.7020  0.0777
61335SOL    HW192973   8.207   7.439   4.193  0.1303  1.1167  0.2281
61335SOL    HW292974   8.243   7.333   4.295 -2.5149 -1.4257 -1.3147
61336SOL     OW92975   6.677  12.424   4.098 -0.3897  0.2576  0.3396
61336SOL    HW192976   6.666  12.403   4.006  0.6700 -4.0493  0.9528
61336SOL    HW292977   6.607  12.375   4.142  0.0625  0.9534  1.9023
61337SOL     OW92978   9.941   9.245   8.457  0.2030 -0.0729  0.2676
61337SOL    HW192979  10.030   9.211   8.455 -0.2245 -1.3493  1.3487
61337SOL    HW292980   9.917   9.244   8.550 -0.7711  0.7315  0.0467
61338SOL     OW92981   7.819   0.160   1.908 -0.0751 -0.0150 -0.0920
61338SOL    HW192982   7.799   0.252   1.926  1.5952  0.3005  0.3295
61338SOL    HW292983   7.879   0.134   1.979 -1.0737 -1.6516  0.2085
61339SOL     OW92984   2.944   7.399  12.464 -0.2708 -0.2881  0.0256
61339SOL    HW192985   3.003   7.450  12.408 -1.0137  1.8942  1.1235
61339SOL    HW292986   2.910   7.331  12.406  1.5722 -0.2144 -1.2368
61340SOL     OW92987   3.435   8.192   9.886  0.5013  0.0188 -0.2028
61340SOL    HW192988   3.428   8.098   9.869 -0.5172 -0.1035  0.7641
61340SOL    HW292989   3.418   8.201   9.979  1.4384  1.0958 -0.1178
61341SOL     OW92990   0.483   0.654   0.963 -0.0991  0.0299 -1.0156
61341SOL    HW192991   0.451   0.581   1.016  0.2172  0.3650 -0.3499
61341SOL    HW292992   0.404   0.701   0.936 -0.2357  0.3097 -0.1702
61342SOL     OW92993   8.877   3.757   3.520  0.3623  0.6099 -0.0945
61342SOL    HW192994   8.970   3.767   3.497  0.6852  0.8672  1.2515
61342SOL    HW292995   8.840   3.844   3.507  0.4382  0.6421 -0.0950
61343SOL     OW92996   0.051   9.684   2.752 -0.3554  0.6170  0.6568
61343SOL    HW192997   0.144   9.701   2.769 -0.2114  0.6664 -0.1454
61343SOL    HW292998   0.037   9.595   2.784  0.5849 -0.3523 -1.4486
61344SOL     OW92999  10.865   2.877   8.469  0.1369  0.3095 -0.8529
61344SOL    HW193000  10.925   2.935   8.423 -2.2842  2.8224 -1.1255
61344SOL    HW293001  10.781   2.888   8.423 -1.5983  0.3942  2.0901
61345SOL     OW93002   8.897   3.169   0.197  0.1882  0.2441  0.0910
61345SOL    HW193003   8.932   3.081   0.182  1.4166  0.6236  0.6893
61345SOL    HW293004   8.824   3.176   0.135  0.9847 -0.6690 -0.9860
61346SOL     OW93005   6.486  11.208   0.690  0.1041  0.4863  0.0194
61346SOL    HW193006   6.480  11.125   0.643  1.9468  0.2443  0.1559
61346SOL    HW293007   6.574  11.241   0.670 -0.7579  2.6857 -0.4548
61347SOL     OW93008  12.159   9.356   4.637  0.5734 -0.2447  0.2900
61347SOL    HW193009  12.198   9.392   4.556  0.2695  1.3472  0.8123
61347SOL    HW293010  12.137   9.433   4.689 -2.3028 -1.0975  0.5068
61348SOL     OW93011  12.285   2.638   5.191  0.3290 -0.0512  0.0203
61348SOL    HW193012  12.232   2.681   5.124 -0.1875 -0.0997  0.3879
61348SOL    HW293013  12.303   2.708   5.255  0.4650 -0.1033  0.0390
61349SOL     OW93014   4.843   6.905  10.780  1.0574  0.2770 -0.0295
61349SOL    HW193015   4.887   6.901  10.865 -0.5575 -0.2628  0.8196
61349SOL    HW293016   4.871   6.988  10.742 -1.6247  2.8177  3.0214
61350SOL     OW93017   3.867   1.829   7.225 -0.0497 -0.0759 -0.1437
61350SOL    HW193018   3.867   1.854   7.318  1.2579 -0.9415  0.1335
61350SOL    HW293019   3.920   1.896   7.182  1.8899 -1.2256  0.2890
61351SOL     OW93020   7.881   4.559   0.942  0.2494  0.4732  0.4921
61351SOL    HW193021   7.941   4.485   0.938  0.3716  0.2241  4.0198
61351SOL    HW293022   7.823   4.539   1.014 -2.3833  2.0127 -1.0475
61352SOL     OW93023   8.627   6.734  10.741 -0.4069 -0.0184  0.1722
61352SOL    HW193024   8.670   6.660  10.784 -1.5618 -1.5977 -1.2347
61352SOL    HW293025   8.669   6.811  10.778  0.8690 -1.3665  1.6958
61353SOL     OW93026  12.539   4.731   7.427  0.2474 -0.3259  0.2665
61353SOL    HW193027  12.467   4.727   7.489 -0.0846  1.1390  0.0175
61353SOL    HW293028  12.604   4.669   7.461  0.2393  0.6976  2.3054
61354SOL     OW93029   9.657  10.797   5.964  0.0545 -0.0114  0.0437
61354SOL    HW193030   9.587  10.788   5.899  0.0714  0.7823 -0.0980
61354SOL    HW293031   9.613  10.793   6.048 -0.0081 -0.7153 -0.0160
61355SOL     OW93032  11.800  11.559   0.884  0.0383 -0.6000 -0.0075
61355SOL    HW193033  11.751  11.588   0.961 -0.9281  0.4633 -0.9782
61355SOL    HW293034  11.882  11.609   0.887 -0.0878 -0.4086  0.2268
61356SOL     OW93035   3.809   9.518  10.013  0.4910 -0.1051 -0.4720
61356SOL    HW193036   3.779   9.546  10.100  1.1397  0.5266 -0.4337
61356SOL    HW293037   3.761   9.573   9.952 -0.0098 -0.5918 -0.5134
61357SOL     OW93038   2.966   2.389   9.396 -0.2258  0.5541 -0.2851
61357SOL    HW193039   2.874   2.417   9.397 -0.1937  0.7038  0.8947
61357SOL    HW293040   2.964   2.299   9.364 -0.6507  0.9456 -1.3877
61358SOL     OW93041   5.838   6.603   9.119 -0.4054  0.3432 -0.5916
61358SOL    HW193042   5.830   6.693   9.151 -0.1553  0.6042 -1.2315
61358SOL    HW293043   5.818   6.610   9.025  2.4406  0.2336 -1.2704
61359SOL     OW93044   2.818   0.577   9.236 -0.2622 -0.2292  0.1867
61359SOL    HW193045   2.810   0.666   9.203  0.0156 -0.4073 -0.3785
61359SOL    HW293046   2.748   0.528   9.193 -1.3420  0.0084  1.5923
61360SOL     OW93047   1.122  11.765   9.147  0.2236 -0.3261  0.2793
61360SOL    HW193048   1.036  11.805   9.156  0.4420  0.1326  0.3664
61360SOL    HW293049   1.111  11.675   9.178 -0.9227 -1.1884 -2.3680
61361SOL     OW93050   6.484  10.138  10.102 -0.2653  0.2246  0.4076
61361SOL    HW193051   6.527  10.102  10.179 -0.8972 -1.3924  0.0540
61361SOL    HW293052   6.391  10.138  10.125 -0.5151 -0.7740 -0.5157
61362SOL     OW93053   1.183   7.475   3.016 -0.3235  0.1214  0.0772
61362SOL    HW193054   1.220   7.529   2.946  3.4433  0.0295  1.7971
61362SOL    HW293055   1.168   7.390   2.975  2.9908 -0.3160 -0.4919
61363SOL     OW93056   7.525   3.937  12.314 -0.2921 -0.1170  0.4244
61363SOL    HW193057   7.449   3.890  12.347 -1.1092  1.1414  0.3848
61363SOL    HW293058   7.590   3.929  12.384 -0.8209 -0.3510  0.8931
61364SOL     OW93059   2.974   7.677   6.013 -0.4886  0.2842 -0.2984
61364SOL    HW193060   3.044   7.613   6.001  0.1933  1.0064 -0.2052
61364SOL    HW293061   2.965   7.684   6.108 -0.8059  0.0729 -0.3102
61365SOL     OW93062   6.735   3.424   1.236 -0.0695  0.0347 -0.2917
61365SOL    HW193063   6.732   3.474   1.317 -3.6346  0.7996 -0.7178
61365SOL    HW293064   6.700   3.338   1.259  3.2447 -1.4681 -0.2027
61366SOL     OW93065   6.774   1.964   2.057 -0.1025  0.1715  0.4342
61366SOL    HW193066   6.853   1.987   2.008 -0.4115 -0.0086 -0.1515
61366SOL    HW293067   6.784   1.870   2.075  0.1490  0.2936  0.9888
61367SOL     OW93068   5.858   2.826   8.489 -0.0726  0.4155 -0.4892
61367SOL    HW193069   5.848   2.790   8.400  1.2034  2.7940 -1.6736
61367SOL    HW293070   5.776   2.803   8.533 -1.0020 -0.3114 -2.4750
61368SOL     OW93071   4.559   3.170   6.718 -0.3817 -0.1786  0.1053
61368SOL    HW193072   4.517   3.104   6.773 -0.2046 -1.1025 -0.8234
61368SOL    HW293073   4.577   3.124   6.635  0.6283  0.7628 -0.2241
61369SOL     OW93074   0.860  12.409  10.679 -0.6172 -0.7147 -0.1119
61369SOL    HW193075   0.830  12.323  10.710  2.5130 -2.1380 -0.6313
61369SOL    HW293076   0.853  12.404  10.584 -0.1010 -0.5304 -0.1615
61370SOL     OW93077   1.519   3.921   1.630  0.4046  0.7292  0.1858
61370SOL    HW193078   1.554   3.843   1.674  0.9812  1.6004  1.3177
61370SOL    HW293079   1.449   3.887   1.575 -0.4179 -0.4155  1.8376
61371SOL     OW93080   7.968   6.248   2.360 -0.4470  0.1198 -0.1476
61371SOL    HW193081   7.929   6.161   2.376  0.3669  0.0873  1.9838
61371SOL    HW293082   8.048   6.248   2.413  0.3207  1.6648 -1.2548
61372SOL     OW93083  11.865   6.664  11.892 -0.0867 -0.1635  0.1712
61372SOL    HW193084  11.930   6.722  11.851  0.8757 -1.2383  0.1452
61372SOL    HW293085  11.860   6.589  11.834 -0.5502 -0.5908  0.7528
61373SOL     OW93086   5.459   6.794   3.386  0.1166  0.5261  0.2017
61373SOL    HW193087   5.484   6.730   3.452  0.4591  0.9488  0.4883
61373SOL    HW293088   5.394   6.849   3.429 -0.3533  0.2289 -0.1218
61374SOL     OW93089   5.117   5.214  11.395  0.3501  0.1757 -0.4696
61374SOL    HW193090   5.133   5.150  11.326  2.5261  1.0278 -0.8320
61374SOL    HW293091   5.175   5.187  11.466  1.0017  1.4861 -0.4793
61375SOL     OW93092   3.012  10.985   3.282  0.1041 -0.4772 -0.4144
61375SOL    HW193093   2.955  10.932   3.339  1.0528 -2.6635 -1.3608
61375SOL    HW293094   3.052  11.049   3.341 -0.0548 -1.7207  1.1112
61376SOL     OW93095  11.921  10.931   5.383 -0.0939  0.3028 -0.5021
61376SOL    HW193096  11.945  10.987   5.457  0.6539  0.2030 -0.6602
61376SOL    HW293097  11.865  10.986   5.328 -1.3822  0.1071  0.5478
61377SOL     OW93098   4.181  12.275   1.863 -0.1418 -0.0693  0.2044
61377SOL    HW193099   4.180  12.192   1.911  0.2851 -0.0220  0.3037
61377SOL    HW293100   4.270  12.281   1.828  0.4105  1.1651  1.6599
61378SOL     OW93101   8.753   2.290   7.693 -0.1672 -0.0240  0.8974
61378SOL    HW193102   8.771   2.206   7.736 -1.5314 -1.4917 -1.2264
61378SOL    HW293103   8.661   2.307   7.709  0.1993  1.4030  1.7378
61379SOL     OW93104   4.718   5.970   3.668  0.1255 -0.5269 -0.3664
61379SOL    HW193105   4.768   6.045   3.634  1.3088 -2.8974 -4.6653
61379SOL    HW293106   4.633   5.976   3.625  0.4719 -1.9080 -1.3203
61380SOL     OW93107   4.601   0.383   4.572  0.2792  0.0465 -0.3860
61380SOL    HW193108   4.564   0.469   4.549  1.7623  0.4937 -1.1924
61380SOL    HW293109   4.524   0.325   4.577 -0.6782  1.2549 -0.5275
61381SOL     OW93110   1.574   4.681   1.129 -0.5030 -0.0562 -0.1539
61381SOL    HW193111   1.580   4.744   1.058  3.7382  1.3081  1.0882
61381SOL    HW293112   1.640   4.615   1.108 -1.3866 -1.3518  0.9940
61382SOL     OW93113   5.627   3.200   8.137  0.1158  0.2522  0.0191
61382SOL    HW193114   5.610   3.125   8.080  0.8047  1.2267 -1.5051
61382SOL    HW293115   5.694   3.168   8.198 -0.6213 -0.7993  0.3036
61383SOL     OW93116   9.831   6.155   4.612 -0.0694  0.1748 -0.1458
61383SOL    HW193117   9.924   6.141   4.629 -0.0921  1.3869  1.2432
61383SOL    HW293118   9.829   6.223   4.544  0.0316 -0.5121 -0.8566
61384SOL     OW93119   3.436   1.683   7.306 -0.2583 -0.0559 -0.1277
61384SOL    HW193120   3.414   1.752   7.368 -1.3021 -1.5806  1.2928
61384SOL    HW293121   3.505   1.633   7.350  0.6029  0.1353 -1.2066
61385SOL     OW93122   6.154   0.484  10.116 -0.2002 -0.5263  0.4755
61385SOL    HW193123   6.141   0.574  10.146  0.6624 -0.7924  1.7294
61385SOL    HW293124   6.218   0.448  10.177  0.2180 -1.6885 -0.6179
61386SOL     OW93125   8.494   5.216   4.319  0.0157 -0.0768  0.6194
61386SOL    HW193126   8.405   5.189   4.297  0.0734 -1.3960  1.8689
61386SOL    HW293127   8.540   5.134   4.338  1.3219  0.6335  0.6220
61387SOL     OW93128   1.786  11.316   7.124 -0.4879 -0.3024  0.1987
61387SOL    HW193129   1.856  11.252   7.108  0.6211  0.4186  1.8677
61387SOL    HW293130   1.832  11.398   7.137 -1.7341  0.3650  0.5015
61388SOL     OW93131   4.943   8.268  11.180  0.6481 -0.3411  0.1147
61388SOL    HW193132   4.923   8.319  11.258 -2.3092  0.6419 -1.1472
61388SOL    HW293133   4.976   8.332  11.118 -0.6143 -0.3805 -0.6320
61389SOL     OW93134  10.702   6.468   2.214  0.0056 -0.3648  0.0614
61389SOL    HW193135  10.717   6.560   2.239  0.9224  0.0195 -1.7563
61389SOL    HW293136  10.651   6.474   2.133  1.0415 -1.4288 -0.6871
61390SOL     OW93137   7.579   7.431   8.431 -0.3392 -0.1402  0.2532
61390SOL    HW193138   7.539   7.489   8.366  0.4309  0.2763  0.1381
61390SOL    HW293139   7.639   7.488   8.480 -0.8559 -0.4642  1.2884
61391SOL     OW93140   3.762  10.256   1.528 -0.3264 -0.1425 -0.0458
61391SOL    HW193141   3.749  10.347   1.553  1.3647 -0.0483  0.6295
61391SOL    HW293142   3.679  10.230   1.487 -1.0049  1.5347  0.1849
61392SOL     OW93143   6.238   8.732   6.687  0.1085 -0.1798  0.2310
61392SOL    HW193144   6.308   8.684   6.733  0.5605  0.1635 -0.0955
61392SOL    HW293145   6.227   8.684   6.605  1.8032  1.2747 -0.9084
61393SOL     OW93146   9.859   6.239  11.255  0.2250 -0.3532 -0.1976
61393SOL    HW193147   9.903   6.311  11.300 -1.3425  0.4418  0.1284
61393SOL    HW293148   9.823   6.185  11.325  0.1939 -0.6869 -0.4654
61394SOL     OW93149   9.983   3.771  10.673 -0.4008 -0.4152  0.5367
61394SOL    HW193150   9.930   3.710  10.725 -1.9019  1.4279  1.2980
61394SOL    HW293151   9.927   3.796  10.601  0.7247 -0.9632 -0.5649
61395SOL     OW93152   7.769   7.679   1.982  0.1212 -0.1212 -0.0607
61395SOL    HW193153   7.751   7.585   1.989  1.3185 -0.3143  0.8180
61395SOL    HW293154   7.689   7.722   2.009 -0.4820 -0.8820 -0.5942
61396SOL     OW93155  10.496   8.595   1.883 -0.5324 -0.2314 -0.3357
61396SOL    HW193156  10.483   8.678   1.929  2.5968  1.2555 -1.8099
61396SOL    HW293157  10.453   8.607   1.799  0.4901  0.2108 -0.8104
61397SOL     OW93158   7.245   8.920  12.481  0.1609 -0.5358 -0.0411
61397SOL    HW193159   7.224   9.006  12.518 -0.0762 -1.4809  2.2296
61397SOL    HW293160   7.275   8.938  12.392 -0.1773  1.8516  0.2643
61398SOL     OW93161   1.698   1.948   1.311  0.1828 -0.2011 -0.1858
61398SOL    HW193162   1.661   2.027   1.272 -1.3949 -0.1467  1.2938
61398SOL    HW293163   1.792   1.965   1.316  0.4394 -0.0820 -3.5201
61399SOL     OW93164   7.830  11.443   6.450 -0.2428 -0.1629  0.2791
61399SOL    HW193165   7.755  11.417   6.397  0.0409 -1.1612  0.3591
61399SOL    HW293166   7.805  11.421   6.540  0.4843 -1.3244  0.2109
61400SOL     OW93167  10.408   1.599   7.188 -0.2447 -0.2731  0.2837
61400SOL    HW193168  10.498   1.630   7.202  0.8850 -2.5445 -1.2570
61400SOL    HW293169  10.400   1.523   7.246 -1.6966  0.6593  1.3780
61401SOL     OW93170  11.547   5.691   8.100 -0.2987 -0.2288  0.4119
61401SOL    HW193171  11.614   5.735   8.153  0.5719  0.1869 -0.9802
61401SOL    HW293172  11.520   5.757   8.036 -1.9293 -0.4573  0.8151
61402SOL     OW93173   7.336   5.483   7.995  0.8183 -0.3093 -0.0763
61402SOL    HW193174   7.341   5.522   7.908  0.4428  0.5872  0.2794
61402SOL    HW293175   7.242   5.477   8.014  0.8910 -0.6478  0.1996
61403SOL     OW93176  12.141  11.768  12.524  0.6663 -0.0600  0.0554
61403SOL    HW193177  12.063  11.716  12.502  1.0281 -0.3329 -0.5997
61403SOL    HW293178  12.204  11.746  12.456  1.2185  0.3863  0.4198
61404SOL     OW93179   5.535  10.839   7.086 -0.3048  0.3552 -0.0104
61404SOL    HW193180   5.454  10.810   7.126 -0.2788  0.6424  0.2591
61404SOL    HW293181   5.603  10.819   7.152 -0.0242 -0.7538 -0.6186
61405SOL     OW93182   5.883   9.166   0.139  0.1430 -0.2054  0.0316
61405SOL    HW193183   5.822   9.110   0.187  1.1079  0.1996  1.8169
61405SOL    HW293184   5.936   9.207   0.207 -0.2880  2.6330 -1.2161
61406SOL     OW93185  12.239   2.860   3.710 -0.4057 -0.1873  0.1093
61406SOL    HW193186  12.274   2.949   3.712 -1.7914  0.3897  1.6105
61406SOL    HW293187  12.313   2.805   3.686  0.9462  1.1887  0.9748
61407SOL     OW93188  10.469   7.373   6.398  0.1059  1.0354  0.2583
61407SOL    HW193189  10.400   7.440   6.397  0.7222  1.7212  1.4034
61407SOL    HW293190  10.437   7.304   6.340 -2.7591  0.0943  2.7099
61408SOL     OW93191   8.509   0.439  10.053  0.2428  0.0312  0.5390
61408SOL    HW193192   8.419   0.414  10.031  0.5570  1.4666 -3.0404
61408SOL    HW293193   8.503   0.531  10.078  0.5980 -0.1644  1.3670
61409SOL     OW93194   0.483  11.262  12.437  0.0806  0.4121  0.0061
61409SOL    HW193195   0.392  11.236  12.424 -1.7288  4.5041  2.2764
61409SOL    HW293196   0.512  11.293  12.351 -1.5179  1.0988 -0.3251
61410SOL     OW93197   8.830   1.484   6.112  0.2836 -0.5147 -0.0265
61410SOL    HW193198   8.745   1.530   6.109  0.5447 -0.0557 -0.8768
61410SOL    HW293199   8.814   1.407   6.167 -1.2204 -1.4772 -1.6986
61411SOL     OW93200  10.399   9.432   9.122 -0.4422 -0.2689  0.3927
61411SOL    HW193201  10.460   9.406   9.191  0.0707  0.1753  0.1079
61411SOL    HW293202  10.420   9.523   9.104 -1.2947 -0.0584  0.3943
61412SOL     OW93203   1.241   8.933   7.127  0.3278  0.1256  0.3763
61412SOL    HW193204   1.271   8.969   7.044 -0.2393 -0.2475  0.0011
61412SOL    HW293205   1.170   8.992   7.155  0.1009 -0.1021  0.2836
61413SOL     OW93206   4.028   4.663   7.229  0.0004 -0.0433 -0.0941
61413SOL    HW193207   3.942   4.686   7.193  0.2161  1.6475  0.4044
61413SOL    HW293208   4.090   4.690   7.161  0.2745  1.1526  0.6088
61414SOL     OW93209   4.709   1.890   4.707  0.3345 -0.0696 -0.2648
61414SOL    HW193210   4.760   1.909   4.787  0.4660  0.5998 -0.5021
61414SOL    HW293211   4.697   1.796   4.709  0.8038 -0.1275  0.2736
61415SOL     OW93212   2.351   8.759   8.692  0.0457  0.0086  0.4176
61415SOL    HW193213   2.323   8.769   8.602 -1.7715  0.2834  0.9658
61415SOL    HW293214   2.392   8.842   8.715 -3.4063  1.7420  1.0755
61416SOL     OW93215   0.650   0.989   3.161 -0.0509  0.3986 -0.2976
61416SOL    HW193216   0.587   0.948   3.220  0.7541  1.1337  1.1142
61416SOL    HW293217   0.600   1.006   3.081 -0.7465 -2.0611 -0.4518
61417SOL     OW93218  11.699   8.045   8.736  0.2264  0.8125 -0.2478
61417SOL    HW193219  11.700   8.029   8.831  0.2738 -0.4889 -0.4377
61417SOL    HW293220  11.632   8.113   8.724 -0.3188  0.4618  0.6591
61418SOL     OW93221   8.549   7.361   2.924 -0.4823  0.6298 -0.2634
61418SOL    HW193222   8.627   7.415   2.916  1.4745 -1.8827  0.4731
61418SOL    HW293223   8.509   7.386   3.007 -0.8742  2.3669 -0.9433
61419SOL     OW93224   7.007   6.989   4.713 -0.1437 -0.3988 -0.2822
61419SOL    HW193225   6.985   6.960   4.801  1.1683  1.0808  0.6099
61419SOL    HW293226   7.023   6.909   4.663 -0.3300 -1.2430  0.9883
61420SOL     OW93227   4.884   4.778   4.553  0.5948  0.4583 -0.4938
61420SOL    HW193228   4.818   4.714   4.527  1.5677 -0.9097  0.2253
61420SOL    HW293229   4.872   4.788   4.648  1.5515 -0.0119 -0.3035
61421SOL     OW93230   8.862   7.268  10.741 -0.0035  0.3440 -0.0594
61421SOL    HW193231   8.840   7.193  10.686  0.1215  1.2766 -1.4481
61421SOL    HW293232   8.790   7.330  10.727 -1.0607 -0.2009  2.4995
61422SOL     OW93233   0.165   7.097   5.052 -0.3259 -0.6472  0.4198
61422SOL    HW193234   0.137   7.041   4.980 -1.6551 -0.4497  0.7685
61422SOL    HW293235   0.127   7.183   5.031 -1.1869 -0.7165  1.6187
61423SOL     OW93236   9.918   4.841  10.018  0.0430 -0.4101 -0.3411
61423SOL    HW193237   9.959   4.783  10.081  0.1970  0.8696  0.7724
61423SOL    HW293238   9.836   4.868  10.059  0.2854  0.6710 -0.5331
61424SOL     OW93239   8.991   7.871   8.190 -0.3447  0.1175  0.3868
61424SOL    HW193240   9.062   7.912   8.139 -0.0074 -1.6517 -0.6355
61424SOL    HW293241   9.016   7.885   8.281  1.3269 -0.4623  0.0505
61425SOL     OW93242   9.780  12.276   5.629 -0.7011  0.1447  0.0932
61425SOL    HW193243   9.756  12.277   5.722 -0.3478 -1.1216  0.2255
61425SOL    HW293244   9.750  12.360   5.595  0.4916  1.2782  1.6835
61426SOL     OW93245   0.452   2.263   4.509 -0.0076 -0.0656  0.5257
61426SOL    HW193246   0.429   2.219   4.591  1.8660 -0.8518  0.6838
61426SOL    HW293247   0.514   2.331   4.535 -1.4729  1.5179  0.0459
61427SOL     OW93248   2.826   0.473  12.373 -0.2002  0.2617  0.0423
61427SOL    HW193249   2.837   0.505  12.284 -0.4921  0.4301  0.0660
61427SOL    HW293250   2.912   0.482  12.413 -0.4846  1.8808  0.3364
61428SOL     OW93251   5.532   5.770   8.717  0.0092 -0.1680 -0.1232
61428SOL    HW193252   5.541   5.707   8.789 -1.2742  0.4139  0.5881
61428SOL    HW293253   5.594   5.740   8.651  2.5770  0.2732  1.9105
61429SOL     OW93254  11.653   8.425   1.554 -0.2262  0.5841  0.2327
61429SOL    HW193255  11.662   8.425   1.459  0.1860 -0.6877  0.2500
61429SOL    HW293256  11.582   8.363   1.572 -0.3786  0.8976  0.7488
61430SOL     OW93257   6.659   9.977   6.273  0.1555  0.1044  0.9125
61430SOL    HW193258   6.618   9.987   6.359  1.7744 -1.7072  1.9738
61430SOL    HW293259   6.593  10.009   6.211 -0.8551  1.9648  2.8325
61431SOL     OW93260   8.312   9.534   8.907 -0.1558 -0.1490 -0.2400
61431SOL    HW193261   8.405   9.556   8.907 -0.0971 -0.3636  1.1589
61431SOL    HW293262   8.272   9.598   8.967 -0.8171 -0.4465 -0.3549
61432SOL     OW93263   1.466   2.595   3.789 -0.2953 -0.4161 -0.0364
61432SOL    HW193264   1.527   2.668   3.775  0.0216 -0.6182  0.2829
61432SOL    HW293265   1.521   2.524   3.822 -0.7279 -0.5482  0.4060
61433SOL     OW93266   4.022   8.202  12.010 -0.4989  0.0176  0.1202
61433SOL    HW193267   4.055   8.198  11.920  0.1179  1.2546  0.2744
61433SOL    HW293268   4.066   8.278  12.048  1.6894 -2.2018  2.4384
61434SOL     OW93269   7.966   9.091   3.418  0.0116  0.4057  0.3810
61434SOL    HW193270   7.912   9.018   3.390 -0.4187  0.1561  1.7976
61434SOL    HW293271   8.046   9.050   3.451  0.2134  0.6471  0.1985
61435SOL     OW93272   3.507   5.271  10.745 -0.3731 -0.1433 -0.2343
61435SOL    HW193273   3.593   5.275  10.703 -0.1471 -0.4578  0.1930
61435SOL    HW293274   3.448   5.239  10.676 -0.0753 -0.2915 -0.4210
61436SOL     OW93275   6.187  10.886   9.771  0.0177 -0.0886  0.4906
61436SOL    HW193276   6.233  10.901   9.688  2.9047 -0.3867  1.9381
61436SOL    HW293277   6.132  10.810   9.754 -1.2760  1.2048 -1.7588
61437SOL     OW93278   4.948  11.589   7.116  0.4567  0.6628  0.8663
61437SOL    HW193279   4.887  11.526   7.077 -0.1375  1.5338  0.3610
61437SOL    HW293280   5.011  11.535   7.163 -0.8944 -0.2565  1.6822
61438SOL     OW93281   9.357   1.843  10.143 -0.7453 -0.3923 -0.2521
61438SOL    HW193282   9.326   1.918  10.193  2.3990  1.0528 -0.2384
61438SOL    HW293283   9.389   1.782  10.209 -2.9543 -1.7028 -0.2851
61439SOL     OW93284  12.317  11.888   9.325 -0.3520 -0.8865  0.6888
61439SOL    HW193285  12.270  11.861   9.245 -1.0500 -1.6323  1.3373
61439SOL    HW293286  12.376  11.815   9.343  0.9721 -0.0309 -0.0172
61440SOL     OW93287   9.509   2.731  10.564 -0.3765 -0.1647 -0.3092
61440SOL    HW193288   9.577   2.778  10.611 -0.5321  0.0310 -0.2775
61440SOL    HW293289   9.552   2.653  10.530  0.2829  0.8122 -1.7688
61441SOL     OW93290   8.588   7.333  12.373  0.0024 -0.3437  0.3873
61441SOL    HW193291   8.553   7.309  12.459  0.5397  0.0382  0.7204
61441SOL    HW293292   8.625   7.252  12.338  0.0150 -0.4419  0.6268
61442SOL     OW93293   6.268   9.512  10.771 -0.5583  0.3387 -0.5615
61442SOL    HW193294   6.267   9.598  10.812  2.2990 -0.2766  1.0079
61442SOL    HW293295   6.287   9.451  10.842  0.5850 -1.2255 -2.1258
61443SOL     OW93296   2.052   5.788   3.865 -0.1140  0.1965 -0.4403
61443SOL    HW193297   2.000   5.756   3.940 -0.9848 -0.8140 -1.4358
61443SOL    HW293298   2.100   5.711   3.836 -2.6756 -0.5047 -3.2526
61444SOL     OW93299   5.615   3.161   8.686  0.0807 -0.5498  0.0171
61444SOL    HW193300   5.563   3.237   8.710  0.3932 -0.1278 -0.6329
61444SOL    HW293301   5.551   3.093   8.666 -0.2105 -0.8745  1.8372
61445SOL     OW93302   2.090   4.093   3.864 -0.1653  0.1403 -0.2788
61445SOL    HW193303   2.135   4.094   3.779  0.4959 -0.2328  0.0620
61445SOL    HW293304   2.155   4.124   3.926 -0.7779  0.8167  0.0427
61446SOL     OW93305   7.684   4.496   6.617 -0.3395  0.2273  0.3026
61446SOL    HW193306   7.681   4.482   6.712  0.0702  0.6344  0.3845
61446SOL    HW293307   7.707   4.411   6.580  2.3352  0.6540  0.7953
61447SOL     OW93308   4.895   3.087  10.225 -0.1280  0.1224  0.0350
61447SOL    HW193309   4.863   2.998  10.209  2.4606 -0.6284 -1.6287
61447SOL    HW293310   4.900   3.127  10.138 -1.5521  2.0650  0.7852
61448SOL     OW93311   3.022  10.047   0.405  0.3520  0.0694  0.1393
61448SOL    HW193312   3.116  10.044   0.387  0.5490 -3.1650  1.1872
61448SOL    HW293313   3.012  10.119   0.467  2.4972 -0.7993  1.5990
61449SOL     OW93314   7.827   7.002   9.715 -0.3789 -0.1569 -0.2212
61449SOL    HW193315   7.751   7.057   9.732  0.8629  1.3823  0.6133
61449SOL    HW293316   7.800   6.947   9.642 -3.1059 -1.3505  1.5028
61450SOL     OW93317   0.997   0.193   7.334  0.4375 -0.5535  0.2575
61450SOL    HW193318   1.036   0.166   7.250  1.4258  1.3988  0.0328
61450SOL    HW293319   0.916   0.238   7.309  1.5490  1.4978  0.1628
61451SOL     OW93320   8.104   0.525  10.605  0.0279  0.3733  0.0766
61451SOL    HW193321   8.043   0.475  10.552 -0.9349  1.8951 -0.3089
61451SOL    HW293322   8.183   0.471  10.609 -1.2357 -1.5457  0.4246
61452SOL     OW93323   8.013   2.217  11.614  0.0341 -0.1933  0.5231
61452SOL    HW193324   8.010   2.278  11.541  1.5237  0.0255  0.5970
61452SOL    HW293325   7.933   2.165  11.606 -0.5951  0.8612 -0.3288
61453SOL     OW93326  11.166   3.809   3.485 -0.4799  0.0822  0.3246
61453SOL    HW193327  11.073   3.809   3.461 -0.0995  1.1563 -1.2916
61453SOL    HW293328  11.207   3.872   3.425  1.4039 -0.8109  0.5965
61454SOL     OW93329   2.018   3.165   9.590  0.1377 -0.8889 -0.4352
61454SOL    HW193330   2.030   3.197   9.500 -0.4021  2.3259  0.4951
61454SOL    HW293331   2.107   3.155   9.624  0.3768  0.9768 -0.4141
61455SOL     OW93332   4.691   9.006   4.182 -0.2653 -0.5425  0.1767
61455SOL    HW193333   4.754   9.078   4.191  1.2940 -1.6562 -1.2349
61455SOL    HW293334   4.683   8.992   4.088 -2.5203 -0.5974  0.3076
61456SOL     OW93335   6.142   1.358   8.072 -0.9307  0.1451  0.1954
61456SOL    HW193336   6.090   1.286   8.039 -0.4365  0.3320 -1.0281
61456SOL    HW293337   6.232   1.336   8.049 -0.6371  0.5825  0.8762
61457SOL     OW93338   4.457   2.320  12.070 -0.5832  0.3273 -0.9034
61457SOL    HW193339   4.493   2.259  12.134 -1.7687  0.0171 -0.4888
61457SOL    HW293340   4.455   2.271  11.988 -1.2654 -0.1126 -0.6338
61458SOL     OW93341   0.722   4.361   4.587  0.0274 -0.2825 -0.8095
61458SOL    HW193342   0.765   4.313   4.658 -1.5509  0.6176  0.8396
61458SOL    HW293343   0.793   4.384   4.527  1.0933 -3.0533 -0.7438
61459SOL     OW93344   3.256  10.498   9.680 -0.0535 -0.8655  0.3829
61459SOL    HW193345   3.253  10.573   9.740  1.0674 -1.5640  1.3486
61459SOL    HW293346   3.166  10.465   9.680 -1.0321  1.4865 -1.4586
61460SOL     OW93347   1.332   4.762  12.276  0.3667  0.9795  0.0859
61460SOL    HW193348   1.304   4.847  12.243  0.2405  0.7812 -0.3171
61460SOL    HW293349   1.358   4.712  12.198 -0.3891  0.3442  0.2215
61461SOL     OW93350   4.554  11.547   4.434  0.3753  0.0029 -0.7280
61461SOL    HW193351   4.534  11.572   4.524  2.7405 -2.7327  0.7126
61461SOL    HW293352   4.649  11.558   4.426  0.1740  0.5736 -3.0716
61462SOL     OW93353  10.744   4.363   1.693 -0.3011  0.0780  0.0669
61462SOL    HW193354  10.774   4.348   1.783 -0.4832  2.0223  0.4977
61462SOL    HW293355  10.790   4.442   1.666  0.3558 -0.8956 -1.8769
61463SOL     OW93356   1.343   3.855   6.891 -0.1727 -0.1714 -0.0145
61463SOL    HW193357   1.267   3.811   6.853  1.0014 -2.1635 -0.2051
61463SOL    HW293358   1.363   3.803   6.969 -0.4538  1.8095  1.4515
61464SOL     OW93359  11.844   1.882  12.075  0.0587 -0.2140  0.1754
61464SOL    HW193360  11.871   1.972  12.092 -0.1990 -0.1703  0.3560
61464SOL    HW293361  11.776   1.889  12.009 -0.4557 -0.2228  0.7001
61465SOL     OW93362   0.467  11.555   0.541 -0.1449 -0.3346  0.1440
61465SOL    HW193363   0.526  11.548   0.616  0.0631  0.0680  0.0220
61465SOL    HW293364   0.474  11.647   0.514 -0.7760 -0.3013  0.0859
61466SOL     OW93365  10.936  10.486  11.670 -0.1464 -0.1181 -0.1920
61466SOL    HW193366  10.950  10.412  11.610 -2.1464 -0.5712 -0.1814
61466SOL    HW293367  10.927  10.562  11.612 -2.7599 -0.6588 -0.6169
61467SOL     OW93368  11.905   4.723   1.113 -0.2054  0.5199 -0.4379
61467SOL    HW193369  11.972   4.667   1.153 -0.9182  1.2456  1.9547
61467SOL    HW293370  11.954   4.797   1.077  0.4196  0.1865 -0.2848
61468SOL     OW93371   8.540   3.601   1.441 -0.5291  0.0383 -0.1485
61468SOL    HW193372   8.597   3.615   1.365  0.8627 -2.3453  0.3612
61468SOL    HW293373   8.451   3.602   1.405  0.1142 -1.3995 -1.9071
61469SOL     OW93374   6.551   2.540   3.767 -0.5098 -0.3558 -0.5244
61469SOL    HW193375   6.543   2.518   3.860  0.8257  0.6640 -0.1379
61469SOL    HW293376   6.487   2.611   3.754 -0.4203 -0.2287 -0.2852
61470SOL     OW93377   5.379   4.729   9.073  0.4198  0.1444  0.1504
61470SOL    HW193378   5.287   4.752   9.080  0.1371 -0.5855 -0.8743
61470SOL    HW293379   5.406   4.763   8.988  0.4948 -1.5125 -0.5266
61471SOL     OW93380   1.497   4.925   4.226  0.1489 -0.1588  0.0195
61471SOL    HW193381   1.506   4.941   4.320 -1.3441  1.0477 -0.0108
61471SOL    HW293382   1.496   4.829   4.218 -3.4635 -0.4316  1.7120
61472SOL     OW93383  11.394   4.500   5.087  0.2571 -0.0564  0.3186
61472SOL    HW193384  11.429   4.482   5.174  1.1127 -0.2537 -0.0648
61472SOL    HW293385  11.301   4.521   5.103  0.2018 -0.9051  1.1759
61473SOL     OW93386   8.567  10.842   4.401  0.6124 -0.9249 -0.4576
61473SOL    HW193387   8.476  10.818   4.420  0.8075 -1.9022 -0.7412
61473SOL    HW293388   8.564  10.937   4.389 -0.3776 -0.9508 -0.5108
61474SOL     OW93389   0.013  12.462   4.057 -0.1380  0.3372 -0.3556
61474SOL    HW193390   0.016  12.557   4.055 -1.0171  0.3644 -0.8598
61474SOL    HW293391   0.025  12.435   3.966  1.7600 -0.1161 -0.0169
61475SOL     OW93392  11.848   7.851   6.512  0.0973 -0.6582  0.3972
61475SOL    HW193393  11.905   7.887   6.444 -0.3964 -0.5967  0.0140
61475SOL    HW293394  11.862   7.756   6.507 -0.7332 -0.7435 -0.5157
61476SOL     OW93395   1.081   4.139  10.155  0.7566 -0.9034  0.1092
61476SOL    HW193396   1.079   4.164  10.247  1.3148 -0.4937  0.0139
61476SOL    HW293397   1.012   4.192  10.114  1.0954 -0.4338  0.1376
61477SOL     OW93398   7.089  12.334   1.818 -0.8748 -0.5250 -0.3276
61477SOL    HW193399   7.181  12.313   1.800 -0.8157  0.1387 -0.8400
61477SOL    HW293400   7.093  12.409   1.877 -1.0930 -0.7049 -0.0795
61478SOL     OW93401   4.574   5.627   4.338 -0.6847  0.8510 -0.9923
61478SOL    HW193402   4.538   5.591   4.256 -2.1291  1.3654 -0.6196
61478SOL    HW293403   4.643   5.687   4.309  0.1817 -0.4472 -1.7217
61479SOL     OW93404   7.796   6.265   1.053 -0.0295 -0.1037 -0.3808
61479SOL    HW193405   7.844   6.247   1.134  0.2895 -1.8911 -0.9363
61479SOL    HW293406   7.857   6.242   0.983  0.5167  3.4503 -1.2640
61480SOL     OW93407  12.099   0.500   7.273  0.2225  0.5621 -0.0466
61480SOL    HW193408  12.145   0.472   7.352  1.6659 -0.0530 -1.0657
61480SOL    HW293409  12.154   0.471   7.201 -0.6724  1.7713 -1.2871
61481SOL     OW93410   3.204  11.922   1.991 -0.0388  0.2252  0.1814
61481SOL    HW193411   3.220  11.993   2.054  0.5314  0.5130 -0.2749
61481SOL    HW293412   3.236  11.957   1.908 -1.6833  0.2229 -0.4736
61482SOL     OW93413   3.562  12.188   2.083  0.3395 -0.5785 -0.3787
61482SOL    HW193414   3.630  12.161   2.144  0.9881 -1.2613 -1.3793
61482SOL    HW293415   3.572  12.283   2.076 -1.2287 -0.1187  2.2978
61483SOL     OW93416  12.254  10.597   5.360 -0.5541  0.2114  0.6451
61483SOL    HW193417  12.274  10.509   5.392  0.8466 -0.9911 -2.9168
61483SOL    HW293418  12.317  10.654   5.404  0.4702 -1.0960  0.9228
61484SOL     OW93419   0.815   4.765   7.964 -0.3106  0.3214  0.8031
61484SOL    HW193420   0.876   4.735   8.031  0.3639 -1.9144 -0.6789
61484SOL    HW293421   0.871   4.788   7.890 -1.1831 -0.7946 -0.2416
61485SOL     OW93422   3.065   8.980  10.982 -0.0197 -0.1194 -0.2316
61485SOL    HW193423   3.123   8.969  10.906  1.4702 -1.9958  1.0651
61485SOL    HW293424   3.125   8.991  11.056 -1.3927 -0.2803  0.9473
61486SOL     OW93425   3.169   3.724  11.608  0.0402  0.4150 -0.7743
61486SOL    HW193426   3.173   3.803  11.662  1.8217 -0.6459  0.7704
61486SOL    HW293427   3.221   3.745  11.530  1.7061  0.3823  0.2716
61487SOL     OW93428  10.926   5.226   0.730 -0.2258  0.1441 -0.0092
61487SOL    HW193429  10.867   5.188   0.796 -0.8376 -0.6070 -0.9475
61487SOL    HW293430  10.880   5.213   0.647  1.2010 -0.3564 -0.7668
61488SOL     OW93431   7.619   5.354  12.191  0.9576  0.2367  0.2429
61488SOL    HW193432   7.565   5.315  12.260 -1.2333 -1.1113 -2.0553
61488SOL    HW293433   7.605   5.448  12.199 -0.3808  0.0072  0.8110
61489SOL     OW93434  10.503  11.891   9.577  0.5079  0.1420  0.0693
61489SOL    HW193435  10.517  11.936   9.660 -0.6713  0.3924  0.1511
61489SOL    HW293436  10.468  11.959   9.519 -1.6740 -0.7312  0.3060
61490SOL     OW93437   0.653  11.756   6.328 -0.1836  0.1947  0.0119
61490SOL    HW193438   0.689  11.770   6.416  0.1070 -0.3770 -0.0109
61490SOL    HW293439   0.644  11.661   6.322 -0.8547  0.2807 -0.3213
61491SOL     OW93440   0.772  10.381   3.418 -0.4120 -0.8440 -0.0300
61491SOL    HW193441   0.826  10.459   3.409  0.0270 -1.0490  0.7610
61491SOL    HW293442   0.703  10.407   3.479  0.5358 -1.4677  1.3600
61492SOL     OW93443  12.459  10.328  10.254 -0.3971 -0.2084 -0.0540
61492SOL    HW193444  12.504  10.315  10.170 -0.7749  0.9488 -0.4428
61492SOL    HW293445  12.370  10.298  10.237 -0.9948  1.7602 -0.6567
61493SOL     OW93446  10.226   1.384   9.277 -0.6078 -0.0763  0.1449
61493SOL    HW193447  10.222   1.395   9.372 -1.8223  1.1241 -0.0152
61493SOL    HW293448  10.215   1.290   9.264  1.0197 -0.4612  1.2294
61494SOL     OW93449   4.179   9.442  12.462 -0.2555 -0.1990 -0.5019
61494SOL    HW193450   4.208   9.380  12.529  0.5160  2.6279  2.0217
61494SOL    HW293451   4.089   9.464  12.487  0.1866  1.2109 -0.0550
61495SOL     OW93452   0.085   4.078   4.642  0.1862  0.0580 -0.1519
61495SOL    HW193453   0.015   4.045   4.699  0.3846 -0.6217 -0.2934
61495SOL    HW293454   0.075   4.173   4.644 -1.0563 -0.0490 -0.5697
61496SOL     OW93455  11.930   5.054   9.038 -0.0680 -0.0822  0.1634
61496SOL    HW193456  11.848   5.079   9.078  0.6044 -0.1004  1.6098
61496SOL    HW293457  11.914   5.061   8.943 -1.7583 -0.2675  0.4107
61497SOL     OW93458  12.012   4.313   6.184  0.1660  0.0039 -0.0582
61497SOL    HW193459  12.068   4.389   6.165 -0.5063 -0.0460 -2.6760
61497SOL    HW293460  12.057   4.239   6.143 -0.6227 -0.4529 -0.1345
61498SOL     OW93461  12.515   3.951   0.693 -0.1227 -0.4772  0.4238
61498SOL    HW193462  12.566   4.021   0.736  0.9639 -0.5445 -0.6814
61498SOL    HW293463  12.425   3.966   0.721  0.3493  0.2880  1.6228
61499SOL     OW93464   6.820   7.924   1.599  0.0585  0.7294  0.0226
61499SOL    HW193465   6.726   7.941   1.602  0.2123  1.9167 -1.3175
61499SOL    HW293466   6.832   7.866   1.524 -0.0428 -3.0391  2.6249
61500SOL     OW93467   1.204   0.394   1.318  0.2107  0.0667 -0.1092
61500SOL    HW193468   1.236   0.320   1.369  1.3749  0.8517  0.3420
61500SOL    HW293469   1.282   0.448   1.302 -0.7654  1.7230  0.4746
61501SOL     OW93470   8.478   3.973   9.041  0.1840 -0.1275  0.5224
61501SOL    HW193471   8.430   3.961   8.959 -1.8211 -0.6328  1.6916
61501SOL    HW293472   8.568   3.989   9.014 -0.3463 -0.5941 -1.7527
61502SOL     OW93473  11.893   4.842  12.329  0.1054 -0.2185  0.2081
61502SOL    HW193474  11.912   4.766  12.385  1.0954  0.2700  0.5625
61502SOL    HW293475  11.979   4.870  12.297 -0.4250 -0.3963 -1.4775
61503SOL     OW93476   4.738  11.353  11.774  0.5633  0.3509 -0.5047
61503SOL    HW193477   4.694  11.298  11.839 -0.5999  2.0339  0.1944
61503SOL    HW293478   4.785  11.418  11.825 -0.5489  1.8360 -1.2989
61504SOL     OW93479  11.569   9.239   0.363 -0.0301 -0.0074  0.5946
61504SOL    HW193480  11.554   9.147   0.342  3.6360 -0.6374 -0.0373
61504SOL    HW293481  11.571   9.283   0.277 -1.1252  0.5745  0.8502
61505SOL     OW93482   1.853   7.117   7.998 -0.0385 -0.1389 -0.4028
61505SOL    HW193483   1.903   7.199   7.994  0.8735 -0.7073 -1.0216
61505SOL    HW293484   1.796   7.119   7.921  0.9666 -0.6811 -1.1879
61506SOL     OW93485  10.826  11.059  12.481 -0.3091 -0.6463 -0.6421
61506SOL    HW193486  10.793  11.105  12.559  1.5582 -0.7179  0.2507
61506SOL    HW293487  10.766  10.985  12.470  0.0273 -1.3155  1.4741
61507SOL     OW93488   0.466   2.399  11.591  0.1909  0.0055 -0.1368
61507SOL    HW193489   0.425   2.435  11.512 -0.1411 -1.0088 -0.4440
61507SOL    HW293490   0.505   2.316  11.562 -1.6068 -1.3689  1.1344
61508SOL     OW93491   2.890   9.073  11.325 -0.3589  0.1552 -0.8120
61508SOL    HW193492   2.853   8.989  11.296 -0.3301 -0.6006  1.1689
61508SOL    HW293493   2.849   9.138  11.268 -1.5032 -1.0674 -1.4493
61509SOL     OW93494  10.551   1.552   4.076  0.2422  0.3774  0.1166
61509SOL    HW193495  10.621   1.489   4.058 -0.7174 -1.3738  2.0165
61509SOL    HW293496  10.521   1.580   3.990  1.8131 -0.5014 -0.7619
61510SOL     OW93497   6.900   5.397   4.445 -0.1517 -0.1071  0.1361
61510SOL    HW193498   6.830   5.406   4.509 -2.0433  0.1359 -1.8480
61510SOL    HW293499   6.896   5.305   4.417 -0.7243  0.2714 -1.0810
61511SOL     OW93500   2.474   9.472   1.513 -0.1345 -0.5722  0.3590
61511SOL    HW193501   2.475   9.470   1.417 -0.5325  0.4810  0.3173
61511SOL    HW293502   2.389   9.433   1.537  0.4762 -1.9684  0.3475
61512SOL     OW93503  11.052   4.391   2.780 -0.3848 -0.1287  0.3372
61512SOL    HW193504  10.965   4.424   2.806 -1.4245 -1.7349 -0.8842
61512SOL    HW293505  11.080   4.451   2.711  0.2688  1.3618  1.8256
61513SOL     OW93506   2.030  11.826  10.121 -0.0117 -0.2268 -0.3958
61513SOL    HW193507   2.036  11.806  10.215 -0.0846  0.7284 -0.1779
61513SOL    HW293508   2.121  11.825  10.091  0.0918  0.3012 -0.1205
61514SOL     OW93509   7.237  10.839  10.254 -0.2823 -0.6679 -0.0522
61514SOL    HW193510   7.234  10.791  10.337 -1.3727  0.7601  0.7744
61514SOL    HW293511   7.295  10.913  10.271 -0.9957 -0.0295 -0.3572
61515SOL     OW93512   3.882   2.876   8.670  0.0873  0.0866  0.0715
61515SOL    HW193513   3.924   2.805   8.620  1.6099  1.6049 -0.9328
61515SOL    HW293514   3.819   2.914   8.609 -1.3056 -0.8463  0.8761
61516SOL     OW93515   9.229   0.587   4.520  0.3305 -0.0071 -0.4413
61516SOL    HW193516   9.144   0.543   4.510 -0.4926  0.8220  2.0156
61516SOL    HW293517   9.289   0.536   4.466 -0.7158 -3.6184  1.4770
61517SOL     OW93518   4.530  11.114  11.142 -0.6220  0.2964 -0.2324
61517SOL    HW193519   4.625  11.120  11.155 -0.1436 -1.4878 -2.2955
61517SOL    HW293520   4.493  11.168  11.211  1.8602  0.2186  1.2879
61518SOL     OW93521   3.506   1.940   0.640  0.6948 -0.5367 -0.6003
61518SOL    HW193522   3.591   1.950   0.684 -0.0856 -1.4096  1.2181
61518SOL    HW293523   3.462   2.024   0.655  0.9834 -0.3072 -1.0066
61519SOL     OW93524   7.244   1.384   1.363 -0.4262 -0.4282  0.1129
61519SOL    HW193525   7.225   1.470   1.400 -0.0582  0.3935 -1.5023
61519SOL    HW293526   7.165   1.360   1.315  0.0763 -0.1567 -0.8933
61520SOL     OW93527   8.678   7.490   6.067 -0.5018 -0.1014  0.0476
61520SOL    HW193528   8.603   7.549   6.054  0.6095  0.9878 -1.8236
61520SOL    HW293529   8.747   7.527   6.013  1.1504 -1.5693  1.0633
61521SOL     OW93530   3.566  11.450   2.244  0.1694  0.1360  0.1027
61521SOL    HW193531   3.477  11.460   2.212 -0.0730  1.4273  1.1108
61521SOL    HW293532   3.616  11.418   2.169 -1.3372 -1.6870 -0.1780
61522SOL     OW93533   2.313   1.838   9.425 -0.0655  0.1100  0.0132
61522SOL    HW193534   2.315   1.744   9.409 -1.7311  0.2233 -1.0894
61522SOL    HW293535   2.351   1.848   9.512 -0.2246 -1.6120  0.3191
61523SOL     OW93536   1.800  10.250  10.671  0.4006 -0.1445  0.2177
61523SOL    HW193537   1.730  10.288  10.724  0.6080  0.0631  0.3452
61523SOL    HW293538   1.820  10.318  10.606  0.9452  0.0740  0.6018
61524SOL     OW93539   1.346   1.379   9.039 -0.0544  0.1096  0.3132
61524SOL    HW193540   1.414   1.434   8.999  0.1862 -0.9207 -0.7650
61524SOL    HW293541   1.299   1.342   8.964 -2.4706  1.5485  1.0218
61525SOL     OW93542  11.705   6.293  12.571  0.3927  0.0932  0.5016
61525SOL    HW193543  11.757   6.330  12.643 -0.0158  4.0455 -0.9944
61525SOL    HW293544  11.616   6.325  12.586 -0.3995 -1.7069 -0.1038
61526SOL     OW93545   1.814   1.943   6.656 -0.2728 -0.4064 -0.2305
61526SOL    HW193546   1.792   1.874   6.593  0.4778 -2.0101  1.1885
61526SOL    HW293547   1.764   1.920   6.734 -1.4443  1.7314 -0.2817
61527SOL     OW93548  11.721   9.212   4.335 -0.0591 -0.4198  0.4629
61527SOL    HW193549  11.756   9.249   4.417 -1.5194  0.7774  0.5993
61527SOL    HW293550  11.644   9.162   4.362 -1.8781  1.7841 -0.2991
61528SOL     OW93551  11.128   8.683   4.230  0.7295  0.3070  0.1563
61528SOL    HW193552  11.143   8.592   4.254  0.0733  0.1564  0.0173
61528SOL    HW293553  11.145   8.686   4.136 -0.7590 -0.0320 -0.1524
61529SOL     OW93554   3.869   5.443   6.498 -0.1845 -0.4837 -0.0376
61529SOL    HW193555   3.949   5.479   6.459  0.3363 -0.6527  0.8444
61529SOL    HW293556   3.808   5.434   6.424 -0.2009  1.7637 -0.3636
61530SOL     OW93557   3.075   0.869   3.009 -0.2529  0.5657 -0.8778
61530SOL    HW193558   3.161   0.875   3.051 -0.4018  1.2850 -0.6713
61530SOL    HW293559   3.023   0.816   3.069  0.0299  0.1635 -0.9823
61531SOL     OW93560   5.801   5.126   7.870 -0.3438  0.1489  0.4488
61531SOL    HW193561   5.889   5.146   7.838  0.0683  0.1317  1.5083
61531SOL    HW293562   5.797   5.167   7.957 -1.7897  1.1017 -0.0269
61532SOL     OW93563   3.304   0.170   6.712 -0.1879 -0.1258 -0.4524
61532SOL    HW193564   3.277   0.213   6.793  0.1962  0.1121 -0.4485
61532SOL    HW293565   3.263   0.084   6.716 -1.7785  0.5698 -0.9101
61533SOL     OW93566   5.525   5.459   2.624  0.1632 -0.1078  0.4613
61533SOL    HW193567   5.584   5.533   2.612 -0.2324  0.0799 -0.4328
61533SOL    HW293568   5.582   5.385   2.647  1.0121 -0.3981 -2.2295
61534SOL     OW93569   4.193   5.377   4.465 -0.1164 -0.3646 -0.1033
61534SOL    HW193570   4.221   5.444   4.528 -0.5427 -1.3733  1.2181
61534SOL    HW293571   4.243   5.300   4.490 -3.0599 -1.9035  1.5739
61535SOL     OW93572   1.566  11.854   8.961  0.0181  0.5681  0.7244
61535SOL    HW193573   1.565  11.804   9.042 -1.3983  0.9759  0.9817
61535SOL    HW293574   1.659  11.867   8.943  0.3781 -0.4904  1.6696
61536SOL     OW93575   8.883  11.307   9.022  0.1357 -0.1475 -0.1337
61536SOL    HW193576   8.835  11.337   8.945  0.6349 -0.2616 -0.4969
61536SOL    HW293577   8.816  11.270   9.079 -0.0805 -1.3488 -1.1269
61537SOL     OW93578   3.661   0.141   2.820  0.1337 -0.2071  0.1285
61537SOL    HW193579   3.727   0.087   2.776  0.7430  0.8090 -0.2330
61537SOL    HW293580   3.712   0.203   2.872 -0.5704 -0.9598  1.7652
61538SOL     OW93581  12.298   6.237   7.462  0.0094  0.0733  0.0625
61538SOL    HW193582  12.361   6.187   7.515 -0.7491 -0.3053  0.6346
61538SOL    HW293583  12.342   6.250   7.378  0.8037 -0.2785  0.4146
61539SOL     OW93584   6.788   3.392  12.421 -0.4455 -0.1937 -0.3183
61539SOL    HW193585   6.707   3.355  12.456 -0.7167 -0.0747 -0.8091
61539SOL    HW293586   6.774   3.395  12.327  0.7947 -1.8322 -0.6039
61540SOL     OW93587   0.011   4.503   5.910  0.2860  0.5634  0.1522
61540SOL    HW193588   0.056   4.587   5.901 -1.3530  1.3153 -1.8713
61540SOL    HW293589   0.030   4.456   5.829 -0.9982  0.1246  0.0749
61541SOL     OW93590   3.307   6.281   3.375  0.0050  1.1010  0.2562
61541SOL    HW193591   3.350   6.203   3.411  0.4712 -0.0118 -2.4453
61541SOL    HW293592   3.215   6.271   3.398  0.2350  0.3023  0.8583
61542SOL     OW93593   5.115  11.832   4.200 -0.4050 -0.6277 -0.2082
61542SOL    HW193594   5.152  11.818   4.287 -1.3675 -0.5540  0.2279
61542SOL    HW293595   5.085  11.923   4.201 -3.9412 -1.6722  0.7992
61543SOL     OW93596   9.505   6.752   7.806 -0.2166  0.0610  0.8821
61543SOL    HW193597   9.511   6.839   7.766 -1.5981  0.2721  1.0532
61543SOL    HW293598   9.514   6.768   7.900  1.3979 -0.2356  0.8074
61544SOL     OW93599   7.692   9.186   3.466  0.1734 -0.1796  0.0255
61544SOL    HW193600   7.733   9.099   3.467  0.8850  0.1505  0.4097
61544SOL    HW293601   7.752   9.240   3.415  0.3143  0.3546  0.7395
61545SOL     OW93602   4.814   6.778   8.067 -0.2012  0.3376  0.1589
61545SOL    HW193603   4.879   6.746   8.004  0.2984 -0.8526  1.2284
61545SOL    HW293604   4.750   6.707   8.073 -1.4653  1.3847 -0.6701
61546SOL     OW93605   4.782  12.229   0.889 -0.7272  0.4495  0.6658
61546SOL    HW193606   4.870  12.202   0.916 -0.7681 -0.8872 -0.4170
61546SOL    HW293607   4.734  12.238   0.971 -0.4439 -1.9606  1.1805
61547SOL     OW93608  12.561  10.547   1.889 -0.1647  0.0693 -0.5042
61547SOL    HW193609  12.630  10.515   1.832 -1.2403 -0.9504 -1.2944
61547SOL    HW293610  12.516  10.614   1.837  1.2673  2.0397  0.6612
61548SOL     OW93611   5.303   1.187   3.073 -0.3899 -0.1820 -0.1642
61548SOL    HW193612   5.345   1.212   2.991  1.3122 -0.4318  0.5856
61548SOL    HW293613   5.323   1.258   3.133 -0.9222 -0.3798  0.2591
61549SOL     OW93614   0.492   4.498   6.588  0.2173  0.2564 -0.2782
61549SOL    HW193615   0.571   4.548   6.609  0.0893  0.5775 -0.5428
61549SOL    HW293616   0.422   4.541   6.637  0.1915  0.0283 -0.1148
61550SOL     OW93617  12.150   8.775   7.041  0.1786 -0.2408  0.1447
61550SOL    HW193618  12.187   8.861   7.020 -0.2677 -0.3409 -1.1303
61550SOL    HW293619  12.186   8.717   6.974 -0.2257 -0.8731  0.4689
61551SOL     OW93620   7.105   3.138   1.354 -0.6509 -0.4758 -0.0781
61551SOL    HW193621   7.010   3.133   1.363 -0.8948  0.6954 -1.6496
61551SOL    HW293622   7.121   3.219   1.306  1.3343  0.8653  2.5626
61552SOL     OW93623   6.465   7.304   9.346 -0.5003  0.1739 -0.1444
61552SOL    HW193624   6.416   7.249   9.284  1.2722 -0.9308 -0.6242
61552SOL    HW293625   6.418   7.388   9.345 -1.3955 -0.2915 -1.8563
61553SOL     OW93626   2.213  11.319  10.758 -0.1938  0.0980  0.3975
61553SOL    HW193627   2.266  11.244  10.731  0.8524  1.3627 -1.2721
61553SOL    HW293628   2.142  11.322  10.694 -0.1060  0.6386  0.3218
61554SOL     OW93629   8.558   8.876   7.987 -0.5072  0.3712 -0.0679
61554SOL    HW193630   8.479   8.822   7.998  0.3983 -0.6153  2.1625
61554SOL    HW293631   8.533   8.962   8.021 -1.2541  0.7687 -1.5057
61555SOL     OW93632   9.603   3.128  10.624 -0.0982 -0.1298 -0.2150
61555SOL    HW193633   9.624   3.045  10.666  2.6803  0.6861  0.2389
61555SOL    HW293634   9.663   3.132  10.549 -1.8263  0.4575 -1.6258
61556SOL     OW93635   5.918   5.881   0.957  0.0456  0.2308 -0.3667
61556SOL    HW193636   5.918   5.791   0.925  1.0009  0.1646 -0.2188
61556SOL    HW293637   5.968   5.878   1.038 -0.8752  0.7083  0.2334
61557SOL     OW93638  11.207   4.979   5.627  0.5439  0.3156  0.2182
61557SOL    HW193639  11.287   4.940   5.591  0.1062 -1.8827  1.4380
61557SOL    HW293640  11.181   5.043   5.561  2.2424 -0.2842 -1.1517
61558SOL     OW93641   7.732   0.446   2.600 -0.4565 -0.4073 -0.2367
61558SOL    HW193642   7.639   0.425   2.591 -0.8875  0.6502  1.2690
61558SOL    HW293643   7.733   0.536   2.633  1.1040 -0.4697 -0.0338
61559SOL     OW93644   6.708   7.643  12.108 -0.0838  0.2172  0.1323
61559SOL    HW193645   6.662   7.687  12.036 -1.1808 -1.9069 -0.5410
61559SOL    HW293646   6.776   7.705  12.134  0.2236  1.1472 -2.5892
61560SOL     OW93647   4.820   5.986   5.987  0.3300 -0.3992  0.5509
61560SOL    HW193648   4.896   6.028   6.025  0.5707 -0.0088 -0.3394
61560SOL    HW293649   4.835   5.892   6.001  0.7724 -0.3028  0.7383
61561SOL     OW93650   4.275   4.872   0.627  0.1603 -0.5478  0.0512
61561SOL    HW193651   4.313   4.868   0.714 -3.3809 -1.5227  1.7217
61561SOL    HW293652   4.283   4.782   0.593  2.9199  0.1347 -1.4520
61562SOL     OW93653   7.215   1.410  10.347 -0.3258  0.3426 -0.0563
61562SOL    HW193654   7.170   1.409  10.263 -1.0447  1.9808  0.2704
61562SOL    HW293655   7.185   1.331  10.392  0.6163 -0.9454 -1.5648
61563SOL     OW93656   2.861  12.389   0.138 -0.0272 -0.2916  0.3039
61563SOL    HW193657   2.805  12.311   0.140 -1.4699  0.4824 -2.8897
61563SOL    HW293658   2.900  12.388   0.050  3.2903  0.4462  1.6234
61564SOL     OW93659   3.278   1.702  10.770  0.0833  0.0030  0.3340
61564SOL    HW193660   3.182   1.697  10.769 -0.0234  1.5899  0.2526
61564SOL    HW293661   3.298   1.784  10.726  1.5422 -0.7049 -0.3875
61565SOL     OW93662   6.798  11.293   8.282 -0.2031  0.1660  0.3033
61565SOL    HW193663   6.889  11.298   8.309  0.8782 -0.0153 -2.9543
61565SOL    HW293664   6.763  11.380   8.298  0.7025  0.4329  0.9177
61566SOL     OW93665   0.175   9.661   1.756  0.7654  0.0642 -0.5836
61566SOL    HW193666   0.163   9.567   1.743  1.6586 -0.1380 -0.0348
61566SOL    HW293667   0.107   9.702   1.703 -0.1353 -0.9104 -0.2042
61567SOL     OW93668   5.356   4.372   3.897 -0.3959  0.1493  0.4770
61567SOL    HW193669   5.297   4.329   3.834 -0.3900 -0.3903  0.8307
61567SOL    HW293670   5.382   4.302   3.957  0.8862  0.2951  0.1261
61568SOL     OW93671   6.119   4.828   3.013 -0.3603 -0.3640 -0.5051
61568SOL    HW193672   6.144   4.781   3.092 -0.3173  1.5396  0.6987
61568SOL    HW293673   6.023   4.822   3.011 -0.2952 -1.3849 -0.9702
61569SOL     OW93674   3.864   0.343   8.918  0.3795 -0.1175  0.3752
61569SOL    HW193675   3.820   0.307   8.995  3.1084 -0.0975  2.0851
61569SOL    HW293676   3.929   0.276   8.895  0.3316  0.3628 -1.2739
61570SOL     OW93677   7.193   7.761  12.267 -0.4275 -1.1051  0.1280
61570SOL    HW193678   7.200   7.767  12.171 -0.8830 -2.5647 -0.0118
61570SOL    HW293679   7.237   7.680  12.290  1.8799  0.4079  1.4655
61571SOL     OW93680   3.899  10.576   9.641  0.6844 -0.1892 -0.1084
61571SOL    HW193681   3.912  10.488   9.675 -0.9008 -0.7900 -0.9402
61571SOL    HW293682   3.852  10.622   9.710 -0.0791 -0.5601 -0.3727
61572SOL     OW93683   7.229  11.909   2.960 -0.7140  0.2129 -0.4013
61572SOL    HW193684   7.244  11.814   2.969 -0.1990 -0.0642 -3.1816
61572SOL    HW293685   7.139  11.916   2.929 -0.3465  0.4800 -1.4769
61573SOL     OW93686  10.168  11.551   3.336  0.4140  0.3992  0.0974
61573SOL    HW193687  10.224  11.566   3.260 -0.6152 -1.7249 -1.1857
61573SOL    HW293688  10.225  11.507   3.399  0.6736 -0.1246 -0.4859
61574SOL     OW93689   4.640   2.495   9.553  0.5640  0.4190  0.2394
61574SOL    HW193690   4.574   2.495   9.484 -0.3898  0.2457  1.1102
61574SOL    HW293691   4.613   2.566   9.612  1.0835  0.2662  0.6752
61575SOL     OW93692   5.637  11.135  11.727 -0.1144  0.6085 -0.2429
61575SOL    HW193693   5.590  11.087  11.659  2.0829 -2.8086  0.4017
61575SOL    HW293694   5.725  11.147  11.692  1.0686 -1.2073  1.8492
61576SOL     OW93695   9.825   1.039   5.934 -0.1484 -0.1963  0.5157
61576SOL    HW193696   9.737   1.033   5.971 -0.3929  1.9600  0.4011
61576SOL    HW293697   9.865   1.114   5.978  1.5070 -0.8924  0.2798
61577SOL     OW93698   7.353   6.280   5.361 -0.2470 -0.5135 -0.4218
61577SOL    HW193699   7.335   6.250   5.450 -1.6788 -2.1487 -1.2037
61577SOL    HW293700   7.427   6.227   5.332  1.5589  1.4252  0.4298
61578SOL     OW93701   8.394   6.649  11.156  0.1419  0.6310 -0.1059
61578SOL    HW193702   8.317   6.699  11.130 -1.6146 -0.7591  2.0754
61578SOL    HW293703   8.462   6.714  11.169 -0.6246  1.9140 -2.0180
61579SOL     OW93704   8.985  10.035   6.894 -0.2556  0.4856 -0.2296
61579SOL    HW193705   9.031  10.108   6.936 -0.1853 -0.0731  0.6775
61579SOL    HW293706   9.017  10.036   6.803  1.0808  0.4928  0.2254
61580SOL     OW93707   5.350  11.551   6.577  0.4263  0.1704 -0.2975
61580SOL    HW193708   5.345  11.484   6.645  0.0703 -0.1151 -0.6011
61580SOL    HW293709   5.413  11.516   6.514  1.7832  1.0276  0.5199
61581SOL     OW93710   2.428   0.799   5.366  0.0927 -0.0720  0.0662
61581SOL    HW193711   2.522   0.812   5.351  0.0614 -1.6250 -1.8433
61581SOL    HW293712   2.418   0.705   5.373 -1.7067 -0.2904 -3.3807
61582SOL     OW93713   9.439  11.986   2.936 -0.4425  0.6112 -0.5048
61582SOL    HW193714   9.349  11.970   2.905 -1.2398  2.5573  0.6062
61582SOL    HW293715   9.441  12.080   2.955  2.0134  0.7185 -0.9620
61583SOL     OW93716   1.653   0.906   6.957 -0.0103  0.5105  0.0738
61583SOL    HW193717   1.738   0.949   6.969 -0.2299  0.5360  1.7600
61583SOL    HW293718   1.600   0.971   6.910  0.3485  1.2185  0.6167
61584SOL     OW93719   4.729   3.416   3.404 -0.2583  0.5367  0.0978
61584SOL    HW193720   4.647   3.434   3.356 -0.0525  0.0436 -0.4435
61584SOL    HW293721   4.706   3.430   3.496 -1.6433 -1.9499  0.2242
61585SOL     OW93722   2.207   0.866  11.453  0.1147  0.3689  0.2768
61585SOL    HW193723   2.215   0.832  11.363 -0.6246  2.8967 -0.8203
61585SOL    HW293724   2.295   0.897  11.474  0.2386 -0.0240  0.3463
61586SOL     OW93725   2.569   3.068   4.433 -0.1261  0.5630 -0.3749
61586SOL    HW193726   2.572   3.162   4.417 -2.1543  0.8123  0.3430
61586SOL    HW293727   2.522   3.059   4.516  1.6451 -1.0358  0.5565
61587SOL     OW93728   7.705   3.164   0.483 -0.4187 -0.4287  0.6259
61587SOL    HW193729   7.745   3.109   0.551  2.7601  0.9148 -0.0084
61587SOL    HW293730   7.675   3.241   0.530 -0.1797 -0.4421  0.8041
61588SOL     OW93731   0.891   2.779   2.399  0.3820  0.6489  0.2890
61588SOL    HW193732   0.882   2.815   2.487 -0.8832 -1.9536  1.3308
61588SOL    HW293733   0.953   2.706   2.409 -0.3805 -0.1792 -0.7790
61589SOL     OW93734   6.089   5.325   0.100  0.4391  0.4856  0.8058
61589SOL    HW193735   6.161   5.365   0.050 -0.5422  0.1166 -0.9810
61589SOL    HW293736   6.088   5.373   0.183  0.6599  2.7796 -0.4356
61590SOL     OW93737  10.794   2.940   2.204  0.0504  0.2322 -0.3124
61590SOL    HW193738  10.878   2.895   2.198  0.5280  1.1616 -0.9401
61590SOL    HW293739  10.743   2.905   2.131  0.7257  1.2750 -1.3254
61591SOL     OW93740   3.633   3.110   6.855 -0.1748 -0.1757  0.0025
61591SOL    HW193741   3.654   3.197   6.890 -1.5786 -0.0037  0.4751
61591SOL    HW293742   3.649   3.050   6.927  0.8533 -0.3322 -0.3427
61592SOL     OW93743   3.607   8.113  10.478 -0.2042  0.0871 -0.1817
61592SOL    HW193744   3.535   8.064  10.438 -1.0153  0.8423  0.3086
61592SOL    HW293745   3.632   8.062  10.555 -0.8463  0.2898  0.1649
61593SOL     OW93746   7.237   2.676   0.249  0.7340  0.0055 -0.0215
61593SOL    HW193747   7.265   2.629   0.170 -0.7621 -1.0661  0.0389
61593SOL    HW293748   7.169   2.735   0.218  0.2967 -0.2587  0.4160
61594SOL     OW93749   4.037  12.136   3.677  0.0995  0.3500  0.1885
61594SOL    HW193750   3.988  12.054   3.671 -1.7057  1.3733 -0.0929
61594SOL    HW293751   4.048  12.150   3.771  0.6968 -0.3535  0.2304
61595SOL     OW93752   5.631   2.721   6.144  0.4296  0.2254  0.3807
61595SOL    HW193753   5.718   2.742   6.110  1.0870 -0.7610  1.3829
61595SOL    HW293754   5.621   2.779   6.220 -0.0043  0.6704 -0.0041
61596SOL     OW93755   5.067   2.934   6.550  0.4160  0.0973  0.0363
61596SOL    HW193756   5.006   2.962   6.482 -1.2427 -0.6274  1.1624
61596SOL    HW293757   5.077   2.840   6.537 -1.5742 -0.4649  1.9570
61597SOL     OW93758   0.848   9.123   5.076 -0.1719 -0.7150 -0.4574
61597SOL    HW193759   0.872   9.157   5.162 -0.3461  0.3569 -0.8124
61597SOL    HW293760   0.834   9.030   5.090  1.1882 -0.8204  0.3858
61598SOL     OW93761  11.024   4.108   7.942 -0.1404  0.8604  0.0321
61598SOL    HW193762  10.965   4.123   7.868 -1.7769 -1.0506  0.8483
61598SOL    HW293763  10.983   4.153   8.016  0.4706  1.1541  0.2011
61599SOL     OW93764   7.202   5.567   1.796  0.0908  0.2843 -0.2107
61599SOL    HW193765   7.186   5.563   1.702 -3.5485 -0.6268  0.3236
61599SOL    HW293766   7.219   5.476   1.821  0.0054  0.3696  0.1639
61600SOL     OW93767   4.758   3.022   7.770  0.3305 -0.1148 -0.1699
61600SOL    HW193768   4.786   2.942   7.726 -0.5587 -0.8533  0.5494
61600SOL    HW293769   4.838   3.058   7.809  0.5085 -1.5378  0.8626
61601SOL     OW93770   9.595   4.554  10.322 -0.1077  0.0182  0.0209
61601SOL    HW193771   9.564   4.526  10.409  1.4766 -0.4238  0.4810
61601SOL    HW293772   9.516   4.553  10.267 -1.0153 -0.3938  1.2744
61602SOL     OW93773   1.930  12.195   5.076  0.3778 -0.0240 -0.1085
61602SOL    HW193774   1.994  12.127   5.098  1.0441  0.4898 -0.4234
61602SOL    HW293775   1.971  12.245   5.006 -0.1211  0.6831  0.0914
61603SOL     OW93776   6.567  11.092   6.614  0.1313  0.4223  0.9219
61603SOL    HW193777   6.487  11.142   6.603  0.6725  0.9818 -0.6910
61603SOL    HW293778   6.636  11.150   6.582  0.9321 -0.8224  0.3257
61604SOL     OW93779   7.535   4.926   6.315 -0.0668 -0.6686  0.7077
61604SOL    HW193780   7.615   4.908   6.267  0.9817  2.9792  0.7820
61604SOL    HW293781   7.553   4.894   6.404  2.0892  1.5279  1.1696
61605SOL     OW93782   8.471   7.890   1.629  0.3617 -0.6711  0.3192
61605SOL    HW193783   8.564   7.903   1.607  0.0439 -0.6897 -1.1267
61605SOL    HW293784   8.445   7.814   1.577 -1.7499  2.3176 -3.4976
61606SOL     OW93785   3.955  12.020   5.534 -0.5331 -0.2906  0.2522
61606SOL    HW193786   3.957  12.067   5.451  2.1398  0.5468  0.6941
61606SOL    HW293787   3.898  12.073   5.590  0.5973  1.2341  0.0387
61607SOL     OW93788   3.553   1.405   6.794 -0.2837  0.6912  0.2946
61607SOL    HW193789   3.479   1.445   6.749 -1.3413  0.3724  1.6781
61607SOL    HW293790   3.532   1.413   6.887  2.4724  2.6164  0.8907
61608SOL     OW93791   3.815   5.230   6.630 -0.7821  0.5415  0.1486
61608SOL    HW193792   3.739   5.223   6.573  0.4060  0.5487 -1.5121
61608SOL    HW293793   3.857   5.312   6.604  0.2970  0.0794  0.3643
61609SOL     OW93794   1.204   2.881   8.660  0.4792 -0.2050 -0.6210
61609SOL    HW193795   1.291   2.913   8.684  1.2702 -0.3438 -3.0290
61609SOL    HW293796   1.214   2.846   8.571 -1.7856 -1.3182 -0.5268
61610SOL     OW93797   5.849   2.564   6.300  0.1370  0.6977 -0.1261
61610SOL    HW193798   5.891   2.569   6.214 -0.3452 -0.3035 -0.4348
61610SOL    HW293799   5.758   2.542   6.280  0.2113 -0.3791  0.6734
61611SOL     OW93800   0.137   2.009   1.161  0.5503 -0.3875 -0.2218
61611SOL    HW193801   0.199   1.967   1.220  1.0579  0.8358  0.1639
61611SOL    HW293802   0.188   2.077   1.117 -0.7704  1.5911  1.1158
61612SOL     OW93803  12.185   2.252   3.961  0.4081 -0.0112 -0.6398
61612SOL    HW193804  12.152   2.301   4.037 -2.9864  0.9593 -2.4968
61612SOL    HW293805  12.273   2.285   3.947 -0.3708  2.8541  0.4803
61613SOL     OW93806   3.043   1.957  11.852  0.3684  0.1168 -0.0770
61613SOL    HW193807   3.092   2.027  11.809  0.2084  0.3642  0.1382
61613SOL    HW293808   3.053   1.882  11.795  2.0233 -0.1881  0.5532
61614SOL     OW93809   0.196  11.465   0.501 -0.0391 -0.2968  0.7467
61614SOL    HW193810   0.220  11.436   0.413 -1.1949  1.2553 -0.1295
61614SOL    HW293811   0.269  11.519   0.530 -0.3574  0.5075  0.0615
61615SOL     OW93812   3.254  10.830   5.581  0.0815  0.0142  0.0044
61615SOL    HW193813   3.302  10.855   5.660  1.2064  0.6904 -0.8534
61615SOL    HW293814   3.298  10.750   5.551  0.5729  0.5317 -0.6827
61616SOL     OW93815  11.770   3.734   0.274 -0.2937 -0.4548 -0.1357
61616SOL    HW193816  11.712   3.734   0.350 -2.0831 -0.9933 -1.4269
61616SOL    HW293817  11.824   3.656   0.286 -0.7824 -0.7187  0.4245
61617SOL     OW93818   4.002   6.669   4.186  0.3326  0.6500  0.2893
61617SOL    HW193819   3.983   6.591   4.133  0.2419  0.4998  0.5391
61617SOL    HW293820   3.994   6.742   4.125 -1.9133  0.6904  0.5416
61618SOL     OW93821   3.665   5.482   8.534 -0.1651 -0.3595  0.6078
61618SOL    HW193822   3.614   5.562   8.524  0.7529  0.0522 -1.2136
61618SOL    HW293823   3.753   5.514   8.558  0.5619 -0.6786 -1.4570
61619SOL     OW93824   7.035   2.665   7.064  0.0392 -0.7365  0.3909
61619SOL    HW193825   7.057   2.712   7.144 -3.1057 -0.0001  0.9550
61619SOL    HW293826   7.120   2.644   7.024  1.6501  1.0690  2.6097
61620SOL     OW93827   7.825   5.510   6.767  0.6585 -0.0293 -0.5226
61620SOL    HW193828   7.731   5.530   6.770  0.4278 -1.0604 -0.3253
61620SOL    HW293829   7.864   5.584   6.720 -0.3541  0.0611 -1.2686
61621SOL     OW93830   5.905   1.662   4.037  0.6669  0.0184  0.7636
61621SOL    HW193831   5.969   1.630   3.974 -0.5298 -0.0199 -0.4716
61621SOL    HW293832   5.948   1.653   4.122  1.9487 -0.8349  0.0462
61622SOL     OW93833   8.120   6.836   3.392 -0.0738 -0.7499 -0.2699
61622SOL    HW193834   8.140   6.891   3.316  2.6126 -1.6274 -0.3087
61622SOL    HW293835   8.147   6.748   3.364 -0.6195 -1.3902  1.1455
61623SOL     OW93836   9.995   2.196   3.421  0.1763 -0.6189  0.1448
61623SOL    HW193837   9.919   2.152   3.385 -1.2782  1.1781  0.8744
61623SOL    HW293838  10.008   2.156   3.507 -2.6213  1.7763  1.8624
61624SOL     OW93839   6.230   6.462   3.083 -0.1549 -0.1649 -0.2180
61624SOL    HW193840   6.212   6.489   2.993  0.2719  0.7340 -0.0455
61624SOL    HW293841   6.321   6.432   3.082 -0.2489 -0.4524 -0.1520
61625SOL     OW93842   8.154   8.082   6.461  0.4381 -0.3639  0.0151
61625SOL    HW193843   8.128   8.157   6.515  1.5733 -0.1541  0.2929
61625SOL    HW293844   8.095   8.011   6.489 -0.3754  0.3053  0.0318
61626SOL     OW93845  10.881   8.085   1.055  0.3008 -0.1169  0.0162
61626SOL    HW193846  10.834   8.148   1.000 -0.2454 -1.9764 -1.7833
61626SOL    HW293847  10.814   8.021   1.079  1.0795 -0.6527  0.7987
61627SOL     OW93848   3.607   3.310   3.987  0.0753 -0.0524  0.2955
61627SOL    HW193849   3.609   3.316   3.892  0.1173  1.4531  0.3609
61627SOL    HW293850   3.609   3.216   4.006  1.1499 -0.3543 -1.1621
61628SOL     OW93851   4.590  10.259   5.380 -0.8147 -0.1174 -0.4248
61628SOL    HW193852   4.635  10.344   5.382 -0.6951 -0.1051 -1.9362
61628SOL    HW293853   4.571  10.245   5.287 -2.8213 -0.7221  0.0276
61629SOL     OW93854   6.944   6.608   4.021 -0.9368  0.1927 -0.1658
61629SOL    HW193855   6.905   6.643   3.941 -0.3823 -1.4229 -1.1763
61629SOL    HW293856   7.033   6.644   4.022 -1.0036  0.3596 -0.1806
61630SOL     OW93857   6.934   5.260   6.051 -0.2713 -0.1276  0.1421
61630SOL    HW193858   6.854   5.231   6.096  0.0794  0.0233  0.8838
61630SOL    HW293859   6.948   5.349   6.083  0.2241 -0.1758  0.0602
61631SOL     OW93860  12.224  10.222  10.597  0.3113 -0.5175  1.4054
61631SOL    HW193861  12.302  10.273  10.577  0.0956  0.2132  2.3609
61631SOL    HW293862  12.211  10.234  10.691 -1.3406 -0.0542  1.1524
61632SOL     OW93863  10.931   6.438   0.469  0.0172  0.1156 -0.2426
61632SOL    HW193864  10.901   6.494   0.541 -0.1938 -0.2191 -0.0688
61632SOL    HW293865  10.871   6.456   0.397 -0.3360 -0.2334 -0.0354
61633SOL     OW93866   7.012   8.537  12.344  0.5696 -0.1657 -0.0214
61633SOL    HW193867   7.051   8.556  12.259  0.5738  0.8771  0.2013
61633SOL    HW293868   6.992   8.443  12.341  0.1914 -0.0658 -1.3246
61634SOL     OW93869  10.764   1.417   9.668 -0.0516  0.8935 -0.7472
61634SOL    HW193870  10.713   1.350   9.714 -1.5384  1.9201 -0.8510
61634SOL    HW293871  10.839   1.369   9.633 -0.3859 -0.4681  0.2784
61635SOL     OW93872  10.598   1.031   8.508 -0.0366 -0.0488 -0.0376
61635SOL    HW193873  10.604   1.028   8.603 -0.3630  0.0690 -0.0122
61635SOL    HW293874  10.682   1.069   8.480  0.2206 -0.4468  0.1746
61636SOL     OW93875  10.673   4.272  12.170  0.0871  0.4533 -0.2280
61636SOL    HW193876  10.732   4.306  12.103  0.1423 -1.4437 -1.2058
61636SOL    HW293877  10.675   4.338  12.239  0.1087  2.4349 -2.0095
61637SOL     OW93878   7.839   0.660  12.167  0.4746 -0.5723  0.1216
61637SOL    HW193879   7.910   0.696  12.113  0.8237  0.1951  1.0587
61637SOL    HW293880   7.829   0.570  12.137  1.5322 -0.5494 -0.3425
61638SOL     OW93881   5.800   9.695  10.539  0.2237 -0.4409 -0.0689
61638SOL    HW193882   5.774   9.752  10.611 -0.5241 -0.5690 -0.2363
61638SOL    HW293883   5.725   9.638  10.525  0.9880 -1.5477  0.1663
61639SOL     OW93884  11.501  10.545   5.580 -0.4559 -0.4288 -0.2996
61639SOL    HW193885  11.530  10.635   5.563 -0.1373 -0.7435 -1.5307
61639SOL    HW293886  11.445  10.523   5.505 -1.8788 -0.7037  0.8094
61640SOL     OW93887   9.192   4.545   1.155  0.0834  0.2875 -0.8169
61640SOL    HW193888   9.205   4.527   1.062 -2.7602  0.0066 -1.2659
61640SOL    HW293889   9.167   4.637   1.158 -0.9928  0.0095 -0.5407
61641SOL     OW93890   3.600   3.547   3.191  0.2743 -0.8381 -0.2049
61641SOL    HW193891   3.667   3.588   3.136  0.5804 -0.1864  0.6505
61641SOL    HW293892   3.643   3.532   3.275 -1.4965  2.5895  1.5185
61642SOL     OW93893   0.707   1.080   3.858  0.2205  0.0859  0.3397
61642SOL    HW193894   0.798   1.084   3.886  0.0324 -1.7947  1.4001
61642SOL    HW293895   0.711   1.068   3.764  1.2132 -2.4705  0.6238
61643SOL     OW93896  11.742  12.560   3.897  0.7243 -0.5102  0.0132
61643SOL    HW193897  11.735  12.656   3.895 -1.1449 -0.6146 -1.4234
61643SOL    HW293898  11.797  12.539   3.822 -0.8819 -0.6451 -1.1571
61644SOL     OW93899  10.325   8.681   2.630  0.5920 -0.0012 -0.1191
61644SOL    HW193900  10.276   8.611   2.587 -1.5702  0.4842  1.3952
61644SOL    HW293901  10.260   8.750   2.646  2.2437  1.5779  0.1398
61645SOL     OW93902   2.099   3.434   4.609 -0.0087  0.9756 -0.0143
61645SOL    HW193903   2.013   3.457   4.645 -0.5635 -1.0302  0.0318
61645SOL    HW293904   2.085   3.433   4.514  0.2010  1.4973 -0.0541
61646SOL     OW93905  11.827   2.833   3.870 -0.0927  0.3379 -0.3908
61646SOL    HW193906  11.765   2.906   3.872 -0.3815  0.0831  0.5211
61646SOL    HW293907  11.774   2.757   3.896  0.1805 -0.2244 -1.4150
61647SOL     OW93908   7.004  11.029   3.675  0.2419  0.4834  0.0316
61647SOL    HW193909   7.081  11.041   3.729 -0.7356  1.5190  1.2415
61647SOL    HW293910   6.942  10.982   3.731  0.4785 -1.7079 -1.4070
61648SOL     OW93911  11.345   4.420   1.053  0.0573 -0.5307  0.2299
61648SOL    HW193912  11.265   4.439   1.004  1.2813  0.9729 -1.3557
61648SOL    HW293913  11.376   4.337   1.017  0.6240  0.2658 -1.2321
61649SOL     OW93914   2.730   4.220   2.167  0.0638 -0.3658 -0.0865
61649SOL    HW193915   2.739   4.205   2.073 -1.4687 -0.9051 -0.1815
61649SOL    HW293916   2.677   4.299   2.174  0.2973 -0.2433  0.3296
61650SOL     OW93917   4.529   1.542   1.380  0.8402  0.2708 -0.1622
61650SOL    HW193918   4.484   1.564   1.299 -0.0241 -1.1445 -0.0973
61650SOL    HW293919   4.550   1.449   1.372  0.4506  0.0231  1.3485
61651SOL     OW93920   2.871   1.252   4.317 -1.0754  0.0589 -0.0135
61651SOL    HW193921   2.852   1.202   4.238 -0.4665 -2.5866  1.3976
61651SOL    HW293922   2.952   1.300   4.297 -0.0336 -1.8292 -0.4923
61652SOL     OW93923  10.379   3.900  11.814  0.0465 -0.1149  0.2159
61652SOL    HW193924  10.450   3.945  11.769 -1.4319  1.4196 -0.6723
61652SOL    HW293925  10.366   3.820  11.764  0.4288  0.1153 -0.2548
61653SOL     OW93926   2.841   0.942   0.752 -0.3837  0.7445 -0.3268
61653SOL    HW193927   2.823   0.976   0.840  1.3166  1.1256 -0.0930
61653SOL    HW293928   2.777   0.872   0.740 -0.8034  0.8465  1.1194
61654SOL     OW93929   6.212   9.701   0.209 -0.0578  0.2272  0.2661
61654SOL    HW193930   6.190   9.625   0.154  0.2709 -0.5166  1.1214
61654SOL    HW293931   6.286   9.742   0.165  1.3174 -1.3431  0.9645
61655SOL     OW93932  10.201  10.894   6.939 -0.6249 -0.3999  0.0214
61655SOL    HW193933  10.135  10.838   6.980  0.2006 -0.2976  1.6000
61655SOL    HW293934  10.253  10.834   6.885 -0.3177 -1.0342  0.9725
61656SOL     OW93935   2.540  11.643   1.176 -0.1767  0.5114 -0.1731
61656SOL    HW193936   2.473  11.594   1.222  0.0062 -0.7224 -1.1759
61656SOL    HW293937   2.530  11.733   1.209 -2.2047  0.3441 -0.1831
61657SOL     OW93938   6.509   7.741  10.181  0.6371 -0.0132 -0.0407
61657SOL    HW193939   6.599   7.733  10.148 -0.3468  0.2898 -3.1818
61657SOL    HW293940   6.468   7.803  10.120 -1.5386  0.3789  1.7356
61658SOL     OW93941   9.159  12.553  10.146  0.0847  0.8297  0.0250
61658SOL    HW193942   9.227  12.590  10.089 -0.9713  1.7362 -0.6900
61658SOL    HW293943   9.152  12.617  10.217 -1.6024  1.9820 -1.1060
61659SOL     OW93944   1.069   6.537  11.061  0.1014  0.1710  0.5300
61659SOL    HW193945   1.119   6.571  10.987  0.0794 -1.0111 -0.0524
61659SOL    HW293946   1.031   6.615  11.102  0.2622  0.8605 -0.5851
61660SOL     OW93947   7.433  10.433  11.625  0.0608  0.2949  0.6747
61660SOL    HW193948   7.462  10.462  11.712  0.9772 -0.7938  0.7461
61660SOL    HW293949   7.489  10.481  11.564 -2.0087  2.7367  0.5287
61661SOL     OW93950   8.668   7.008   2.749  0.1821 -0.1973  0.6657
61661SOL    HW193951   8.718   7.037   2.826  2.0529 -0.6330 -0.3108
61661SOL    HW293952   8.684   6.914   2.744  0.2683 -0.1365 -0.3730
61662SOL     OW93953   1.662   3.243   5.171 -0.1115 -0.3107 -0.3599
61662SOL    HW193954   1.571   3.239   5.143  0.3553 -0.2571 -2.0379
61662SOL    HW293955   1.674   3.332   5.203 -0.3075  0.1290 -1.4693
61663SOL     OW93956   7.660  12.051   7.406  0.6478 -0.5880 -0.0625
61663SOL    HW193957   7.590  12.106   7.440  1.0432 -1.8283  3.1529
61663SOL    HW293958   7.628  11.962   7.416  1.8738 -1.1142 -0.5286
61664SOL     OW93959   0.317   5.297  10.026  0.3047  0.0860  0.4649
61664SOL    HW193960   0.275   5.276   9.943 -1.1627  1.0983  0.9136
61664SOL    HW293961   0.377   5.224  10.043  0.2923 -0.3490 -1.2441
61665SOL     OW93962  10.045   2.723   9.906  0.4040  0.1334 -0.3250
61665SOL    HW193963  10.112   2.683   9.850  1.5723  1.7049 -0.1179
61665SOL    HW293964   9.971   2.740   9.846  1.5285  1.5422 -1.3852
61666SOL     OW93965  11.485   4.983   6.953  0.1879  0.1827 -0.3630
61666SOL    HW193966  11.441   5.060   6.917 -3.1780 -1.2909  0.1799
61666SOL    HW293967  11.475   4.916   6.886 -0.1543 -0.7300  0.5650
61667SOL     OW93968   8.854   4.125   9.170  0.2064  0.3918  0.2137
61667SOL    HW193969   8.936   4.174   9.160  0.6236 -0.3689 -0.1281
61667SOL    HW293970   8.814   4.127   9.083 -1.1318  2.4292  0.7864
61668SOL     OW93971   3.362   7.136   5.615  0.8126 -0.6128  0.2502
61668SOL    HW193972   3.274   7.109   5.640 -0.0634  2.4104  0.8600
61668SOL    HW293973   3.413   7.130   5.697  0.5196 -0.0279  0.4773
61669SOL     OW93974  11.029   3.189  10.785 -0.4529  0.1479  0.7845
61669SOL    HW193975  11.111   3.232  10.763 -1.4061  2.0448  0.7470
61669SOL    HW293976  10.974   3.202  10.707 -0.7046 -1.3606  0.6867
61670SOL     OW93977  12.063   3.959   2.016  0.3149 -0.3810  0.0733
61670SOL    HW193978  12.043   3.912   1.935 -0.5044 -1.4364  0.8575
61670SOL    HW293979  11.985   3.947   2.070  0.5331  0.9659  0.7432
61671SOL     OW93980   1.989   7.047  12.403  0.2944 -0.1609 -0.1786
61671SOL    HW193981   2.049   7.107  12.360  0.8373 -0.7177 -0.2006
61671SOL    HW293982   1.914   7.102  12.428  0.0730  0.2159 -1.6117
61672SOL     OW93983   7.734   7.444   2.970 -0.3035 -0.1338  0.6114
61672SOL    HW193984   7.763   7.510   2.906  0.6856 -1.2626 -0.1636
61672SOL    HW293985   7.642   7.465   2.985  0.0036  1.4794  0.4781
61673SOL     OW93986   0.751   7.508   4.715  0.1370 -0.0300 -0.3368
61673SOL    HW193987   0.698   7.588   4.712 -1.4349 -0.9127  1.3973
61673SOL    HW293988   0.822   7.529   4.776 -0.8942 -0.2483  0.9864
61674SOL     OW93989   1.236   7.135   6.426  0.5431  0.7247  0.0888
61674SOL    HW193990   1.200   7.137   6.337  0.3041 -0.1269  0.1489
61674SOL    HW293991   1.290   7.213   6.432 -0.8018  1.7149 -0.2164
61675SOL     OW93992   6.095   6.909  11.219 -0.0414  0.7031 -0.7613
61675SOL    HW193993   6.103   6.974  11.149 -1.9278 -1.0633 -2.8081
61675SOL    HW293994   6.123   6.827  11.179 -2.2072 -0.5725  0.1446
61676SOL     OW93995   6.343   6.185   4.520  0.5548  0.1553 -0.5156
61676SOL    HW193996   6.385   6.260   4.563 -0.6110  0.8270 -0.5012
61676SOL    HW293997   6.319   6.127   4.592  2.0805 -0.6073 -0.5705
61677SOL     OW93998   3.444   0.911   3.970  0.5961  0.4523 -0.0269
61677SOL    HW193999   3.505   0.845   3.937 -0.8179 -0.3468 -1.1815
61677SOL    HW294000   3.456   0.909   4.065  0.6316 -1.4658 -0.0264
61678SOL     OW94001   5.341   9.364   7.317  0.1755  0.1381  0.2805
61678SOL    HW194002   5.296   9.413   7.386 -1.0009  0.0983 -0.4285
61678SOL    HW294003   5.286   9.375   7.240 -0.0922 -2.2168  0.0599
61679SOL     OW94004   8.218   6.731  10.222 -0.0362  0.1824  0.1487
61679SOL    HW194005   8.288   6.724  10.287  0.1008  1.6632  0.1876
61679SOL    HW294006   8.262   6.713  10.138 -0.1080 -1.2103  0.3876
61680SOL     OW94007   2.591   0.589   6.607 -0.3033  0.0433 -0.0325
61680SOL    HW194008   2.621   0.499   6.620  0.5179  0.5177  1.5903
61680SOL    HW294009   2.671   0.641   6.603 -0.7712  0.7204 -0.9646
61681SOL     OW94010   0.781   9.984   8.192  0.1726  0.9846  0.3801
61681SOL    HW194011   0.714   9.925   8.156 -1.3889  0.5131  3.7381
61681SOL    HW294012   0.821  10.023   8.114 -1.6142 -1.2937 -1.8961
61682SOL     OW94013   2.102   3.466  10.324 -0.0320  0.2119 -0.4617
61682SOL    HW194014   2.154   3.524  10.381 -0.4175  0.9076 -0.8083
61682SOL    HW294015   2.075   3.522  10.251 -0.2074 -0.4729 -0.9287
61683SOL     OW94016   5.841   5.079   4.697 -0.1530  0.1692 -0.0483
61683SOL    HW194017   5.785   5.124   4.633  1.2885 -1.2151 -2.4507
61683SOL    HW294018   5.829   5.128   4.778 -2.6206  1.6278 -1.1738
61684SOL     OW94019  11.675   4.862   8.159  0.0107  0.4513  0.1605
61684SOL    HW194020  11.730   4.832   8.232  2.1884 -0.8034 -1.8343
61684SOL    HW294021  11.655   4.953   8.180  0.0138 -0.0330  2.5874
61685SOL     OW94022   0.499   2.926   8.881  0.1863 -0.8546 -0.1400
61685SOL    HW194023   0.501   2.834   8.907 -1.0982 -1.8567 -3.1031
61685SOL    HW294024   0.414   2.958   8.913  0.9950 -0.3519  1.6567
61686SOL     OW94025   9.269   1.803  10.876  0.1530  0.5134  0.3327
61686SOL    HW194026   9.254   1.793  10.782  0.3143 -1.7241  0.5053
61686SOL    HW294027   9.346   1.859  10.882  0.3437  0.4009 -0.8658
61687SOL     OW94028  10.118   2.247   2.718  0.0830 -0.4661  0.0252
61687SOL    HW194029  10.115   2.322   2.659 -0.8002  0.9264  1.7321
61687SOL    HW294030  10.075   2.176   2.670 -2.3177  1.1479 -0.3561
61688SOL     OW94031   0.356   5.019   0.780 -0.3545 -0.3013  0.3969
61688SOL    HW194032   0.300   4.993   0.707 -1.5263 -2.7440  1.9924
61688SOL    HW294033   0.311   5.094   0.819  0.2420  0.9671 -1.2736
61689SOL     OW94034  12.369   2.518   1.953  0.6730  0.1316  0.3948
61689SOL    HW194035  12.342   2.429   1.933  0.8521  0.1681 -0.0118
61689SOL    HW294036  12.309   2.546   2.023  1.5987 -0.8498  1.6463
61690SOL     OW94037   4.058   6.120   9.979 -0.6447  0.5494 -0.0708
61690SOL    HW194038   4.098   6.062  10.044 -0.0619 -0.9752 -1.7311
61690SOL    HW294039   3.968   6.089   9.973 -0.6013  0.4615 -0.2536
61691SOL     OW94040  11.568   8.157   6.748 -0.3656 -0.3583  0.2808
61691SOL    HW194041  11.592   8.173   6.657 -0.3138 -1.0985  0.1550
61691SOL    HW294042  11.486   8.108   6.744 -1.1408  0.8770  0.6768
61692SOL     OW94043   9.127   7.866  12.394 -0.1529  0.3545  0.2039
61692SOL    HW194044   9.041   7.897  12.366 -0.3884 -1.8024 -1.7355
61692SOL    HW294045   9.116   7.848  12.487 -2.2006 -0.9708 -0.2254
61693SOL     OW94046   0.024  10.960  10.240 -0.2730  0.5126 -0.2646
61693SOL    HW194047   0.052  10.872  10.266 -1.1975 -0.7259 -3.0987
61693SOL    HW294048   0.103  11.000  10.204 -0.4168 -0.1469 -1.3391
61694SOL     OW94049   8.780   7.530  12.296 -0.0576 -0.1929 -0.2063
61694SOL    HW194050   8.699   7.499  12.338  1.0923 -0.4359  1.9750
61694SOL    HW294051   8.824   7.450  12.268 -0.3126 -0.0894 -0.9204
61695SOL     OW94052   3.493   0.266   2.999  0.5536 -0.1472 -0.1170
61695SOL    HW194053   3.563   0.244   2.938  0.2867 -0.8014 -0.1922
61695SOL    HW294054   3.476   0.359   2.983 -0.2540 -0.5440 -1.8230
61696SOL     OW94055   5.706   9.383   4.851 -1.1072 -0.4920  0.4216
61696SOL    HW194056   5.639   9.415   4.911 -1.2278 -2.2238  1.2674
61696SOL    HW294057   5.660   9.320   4.795 -0.5752 -0.3306 -0.2144
61697SOL     OW94058  11.165  10.613  11.368 -0.7803 -0.3058  0.1119
61697SOL    HW194059  11.098  10.639  11.432 -2.2440  0.9590 -1.8389
61697SOL    HW294060  11.225  10.687  11.365  1.3582 -1.7732  2.4884
61698SOL     OW94061   6.453   2.455   5.466 -0.1108  0.1214 -0.0790
61698SOL    HW194062   6.373   2.470   5.417 -1.5042 -0.7936  1.8038
61698SOL    HW294063   6.452   2.362   5.487  1.1835  0.1942  0.4419
61699SOL     OW94064   2.786  10.149  12.151 -0.5320 -0.1062 -0.1703
61699SOL    HW194065   2.768  10.194  12.234  0.6943 -0.7985  0.5006
61699SOL    HW294066   2.842  10.076  12.175 -0.0462 -0.2506 -1.6402
61700SOL     OW94067   2.571   7.783   5.701  0.0083  0.4512  0.1162
61700SOL    HW194068   2.616   7.842   5.641  1.5544 -2.3525 -1.7247
61700SOL    HW294069   2.626   7.782   5.780  0.5942  0.6340 -0.2831
61701SOL     OW94070   7.380   3.477   0.391  0.2006  0.2498 -0.5213
61701SOL    HW194071   7.288   3.477   0.419  0.2910  0.3413 -0.2164
61701SOL    HW294072   7.381   3.426   0.310  0.0829 -0.9109  0.1827
61702SOL     OW94073   4.749   5.605  10.196 -0.1458 -0.0161  0.2415
61702SOL    HW194074   4.663   5.589  10.157 -0.0685 -1.4841  0.6054
61702SOL    HW294075   4.806   5.541  10.153  1.1367  1.9227 -1.0918
61703SOL     OW94076   7.429   2.968   6.468 -0.0602  0.4564 -0.6132
61703SOL    HW194077   7.385   2.958   6.384 -1.0572 -1.4934  0.0820
61703SOL    HW294078   7.523   2.967   6.447 -0.2977 -0.2975 -1.6791
61704SOL     OW94079   0.238   5.857   3.569  0.0394 -0.2917 -0.3958
61704SOL    HW194080   0.308   5.852   3.504  0.7441 -1.8975  0.4397
61704SOL    HW294081   0.283   5.856   3.653 -0.9366  0.0687  0.1434
61705SOL     OW94082   9.168   3.657   3.877  0.0325 -0.1912 -0.1963
61705SOL    HW194083   9.112   3.583   3.900 -0.7083  0.3351 -0.2987
61705SOL    HW294084   9.131   3.731   3.924  1.6768 -0.1690  1.1390
61706SOL     OW94085   8.532   6.882   9.343 -0.0953  0.3358  0.0742
61706SOL    HW194086   8.571   6.963   9.377  0.2443 -0.2090  1.0485
61706SOL    HW294087   8.578   6.813   9.390  0.0605 -0.4552 -1.2120
61707SOL     OW94088   4.772   6.309  11.487 -0.3063  0.3232  0.5691
61707SOL    HW194089   4.725   6.236  11.445 -0.5020  0.5635  0.3654
61707SOL    HW294090   4.834   6.338  11.420 -2.9782  3.0134 -0.9830
61708SOL     OW94091   8.266   5.332   6.088  0.1717 -0.3427 -0.2401
61708SOL    HW194092   8.313   5.415   6.088 -2.3425  1.1646  0.8251
61708SOL    HW294093   8.286   5.293   6.173  1.2651 -0.8448 -0.6994
61709SOL     OW94094  10.174   6.734   0.960 -0.2012  0.3740  0.4487
61709SOL    HW194095  10.160   6.813   1.011  0.3098  1.4813 -1.0411
61709SOL    HW294096  10.188   6.766   0.870  0.7060 -1.3533 -0.0682
61710SOL     OW94097   3.683   9.655   6.525 -0.2579 -0.1968 -0.4622
61710SOL    HW194098   3.713   9.649   6.434  1.9288 -1.6899  0.2806
61710SOL    HW294099   3.709   9.743   6.552  1.8940 -0.7848 -0.4323
61711SOL     OW94100   6.554   5.654   2.076 -0.8098 -0.3113 -0.7841
61711SOL    HW194101   6.581   5.621   1.991 -0.1736 -1.0702 -0.3100
61711SOL    HW294102   6.615   5.725   2.095 -0.7680 -0.3324 -0.8382
61712SOL     OW94103  11.430   5.527   9.955 -0.1197  0.7536  0.4059
61712SOL    HW194104  11.400   5.569   9.875  2.0783 -0.5337 -1.2187
61712SOL    HW294105  11.352   5.521  10.010 -1.5705  2.2206 -1.3681
61713SOL     OW94106  11.677   2.961   1.589 -0.6482 -0.0997  0.0848
61713SOL    HW194107  11.730   2.911   1.651  0.5525  2.2509  1.0476
61713SOL    HW294108  11.628   3.022   1.643 -0.9066  0.8297 -1.1560
61714SOL     OW94109  12.184   9.571   0.737  0.2911  0.0046  0.4080
61714SOL    HW194110  12.196   9.666   0.728  0.1610  0.0202  0.3985
61714SOL    HW294111  12.269   9.539   0.768  0.4112  0.0914  0.1734
61715SOL     OW94112   6.509   3.876   2.048  0.0629 -0.2349 -0.2113
61715SOL    HW194113   6.479   3.963   2.026  0.0349 -0.0358  0.5665
61715SOL    HW294114   6.431   3.830   2.079 -0.1055 -0.8383 -1.4672
61716SOL     OW94115   9.033  10.909   0.398 -0.0151  0.3489  0.3037
61716SOL    HW194116   9.010  10.911   0.305  0.5683  0.4910  0.1584
61716SOL    HW294117   8.948  10.910   0.443 -0.3083 -0.0113 -0.2269
61717SOL     OW94118   3.858   3.277  10.674  0.2442  0.3973 -0.1329
61717SOL    HW194119   3.948   3.243  10.672  0.9284  2.0997  0.3723
61717SOL    HW294120   3.862   3.351  10.734 -1.4554  0.6518 -0.3121
61718SOL     OW94121   2.855  10.486   7.348  0.2697  0.2891  1.1647
61718SOL    HW194122   2.905  10.427   7.405  0.4485  2.1160  3.0151
61718SOL    HW294123   2.917  10.556   7.327  0.1382 -0.2132 -1.2002
61719SOL     OW94124   6.442   1.196   6.894  0.2864  0.1626  0.0029
61719SOL    HW194125   6.488   1.136   6.836  1.5762  0.4944  0.6589
61719SOL    HW294126   6.508   1.259   6.921 -0.3402  0.1511  1.6574
61720SOL     OW94127   4.049  11.086  11.808  0.0024  0.1006  0.0563
61720SOL    HW194128   4.120  11.047  11.758 -0.1374  1.5756 -1.3606
61720SOL    HW294129   3.987  11.117  11.742 -1.5269 -0.3189  1.2332
61721SOL     OW94130   2.080   1.844   7.715  0.1097  0.0312 -0.0318
61721SOL    HW194131   2.011   1.789   7.751 -1.0688  0.0829 -2.0904
61721SOL    HW294132   2.147   1.782   7.685 -0.2254 -0.1748 -0.3629
61722SOL     OW94133   0.008   4.200   3.950  0.2235  0.4104  0.3667
61722SOL    HW194134  -0.035   4.204   4.036 -1.0882  2.2209 -0.3132
61722SOL    HW294135   0.073   4.270   3.952  0.1498  0.4971 -0.1483
61723SOL     OW94136   8.178   3.632   0.527  0.2175  0.0263  0.5077
61723SOL    HW194137   8.103   3.684   0.556  0.1404  0.0475  0.2744
61723SOL    HW294138   8.146   3.587   0.448  0.2586 -0.4329  0.7507
61724SOL     OW94139  10.900   1.268  10.068 -0.1375  0.2162  0.4885
61724SOL    HW194140  10.903   1.199  10.134  0.9360  0.6113  0.8800
61724SOL    HW294141  10.881   1.222   9.986 -1.2843 -0.3001  1.0363
61725SOL     OW94142   7.940   3.332   8.483 -0.6346 -0.2494  0.6321
61725SOL    HW194143   7.912   3.245   8.511 -0.4612 -1.0508 -1.5258
61725SOL    HW294144   8.023   3.346   8.528 -1.1805 -0.7384  1.8190
61726SOL     OW94145  11.555   5.253   7.629  0.3973  0.1623  0.2700
61726SOL    HW194146  11.627   5.302   7.588 -0.2711  0.7954 -0.1686
61726SOL    HW294147  11.534   5.184   7.566  1.0454 -0.4426  0.6932
61727SOL     OW94148   1.436   3.771   2.678  0.2326 -0.0980  0.1953
61727SOL    HW194149   1.384   3.694   2.658 -0.9702  1.1143 -1.5751
61727SOL    HW294150   1.439   3.821   2.597  2.2745  1.0092  0.8602
61728SOL     OW94151   1.650   7.859   1.691 -0.3472 -1.3956  0.2944
61728SOL    HW194152   1.583   7.906   1.740 -2.7644 -3.7732 -0.5067
61728SOL    HW294153   1.620   7.861   1.600  0.7301 -2.4025 -0.1149
61729SOL     OW94154   4.272   6.987   5.679  0.1164  0.5815  0.4564
61729SOL    HW194155   4.227   7.067   5.654  1.8206  1.6490  0.6655
61729SOL    HW294156   4.343   6.978   5.616  0.4588 -0.3192  0.9437
61730SOL     OW94157  10.204   9.272   4.358  0.5336  0.1560 -0.1505
61730SOL    HW194158  10.137   9.293   4.422 -0.6875 -2.6193 -0.3723
61730SOL    HW294159  10.281   9.249   4.410  1.1732  2.5419  0.1128
61731SOL     OW94160   5.698   1.249  10.650  0.4439 -0.2816 -0.3944
61731SOL    HW194161   5.696   1.232  10.744  0.5388  0.3258 -0.2785
61731SOL    HW294162   5.788   1.275  10.632  0.7812 -1.6634 -0.8986
61732SOL     OW94163   5.495   4.328   2.422  0.0620 -0.1502  0.7070
61732SOL    HW194164   5.567   4.324   2.485  0.6214 -0.3869  0.0550
61732SOL    HW294165   5.519   4.399   2.363 -0.1366 -0.3738  0.3575
61733SOL     OW94166  10.308   0.091   0.440  0.2741 -0.4232  0.1821
61733SOL    HW194167  10.297   0.006   0.397 -0.0712 -0.1142 -0.3561
61733SOL    HW294168  10.397   0.118   0.417 -0.5993  0.7271 -2.2171
61734SOL     OW94169  11.564   6.687  11.150 -0.4432  0.0778 -0.2593
61734SOL    HW194170  11.608   6.771  11.147 -1.0963  0.3997 -2.0448
61734SOL    HW294171  11.474   6.706  11.124 -1.1219 -0.8883  1.2284
61735SOL     OW94172   7.366   2.782   5.079  0.0778  0.0962 -0.6372
61735SOL    HW194173   7.362   2.778   5.175  0.9898 -1.8159 -0.6206
61735SOL    HW294174   7.361   2.691   5.051  0.2083  0.5901 -2.4076
61736SOL     OW94175   1.714  10.410   6.473  0.1424 -0.2420  0.9033
61736SOL    HW194176   1.696  10.392   6.565 -0.0670  0.0866  0.9286
61736SOL    HW294177   1.627  10.421   6.434  0.1774 -1.5162  0.4252
61737SOL     OW94178   1.414   0.576   4.551 -0.3439 -0.1064 -0.6245
61737SOL    HW194179   1.475   0.598   4.481  0.1716 -0.4161 -0.2762
61737SOL    HW294180   1.468   0.537   4.620 -0.4575  2.3345  0.9663
61738SOL     OW94181   8.863   3.848   5.656  0.0185 -0.1212  0.0191
61738SOL    HW194182   8.925   3.919   5.672  0.7339 -0.2717 -1.8279
61738SOL    HW294183   8.816   3.837   5.739 -0.5777  2.9460  0.1986
61739SOL     OW94184   3.438   3.345   7.908 -0.1569 -0.1625  0.0888
61739SOL    HW194185   3.364   3.294   7.941 -0.7218  0.9865  0.6580
61739SOL    HW294186   3.415   3.436   7.927  1.8183  0.1721  1.1317
61740SOL     OW94187  12.116   1.569   0.297  0.0111  0.4194 -0.3475
61740SOL    HW194188  12.179   1.636   0.322 -0.3913  0.1700  1.4887
61740SOL    HW294189  12.159   1.486   0.320 -0.6176  0.2095  0.1103
61741SOL     OW94190   3.216   0.242   6.989 -0.2969  0.1195  0.5881
61741SOL    HW194191   3.130   0.206   7.013 -1.1519  2.0811  0.6628
61741SOL    HW294192   3.231   0.311   7.053  1.6106 -0.5131  0.8778
61742SOL     OW94193   4.529   9.245   3.926  0.1237 -0.4465 -0.5759
61742SOL    HW194194   4.460   9.241   3.992  0.1118  0.5443 -0.5145
61742SOL    HW294195   4.485   9.276   3.848  0.4560 -0.0352 -0.5997
61743SOL     OW94196   4.230  11.855   2.377  0.1601 -0.2529 -0.4274
61743SOL    HW194197   4.135  11.861   2.371 -0.1016 -2.1788  0.9943
61743SOL    HW294198   4.253  11.785   2.316  0.6137 -0.1456 -0.3791
61744SOL     OW94199   2.506   2.265   5.725 -0.2991 -0.0056 -0.4592
61744SOL    HW194200   2.564   2.248   5.799 -0.5615  1.9332  0.2438
61744SOL    HW294201   2.557   2.240   5.648  1.2257  0.9640  0.1892
61745SOL     OW94202   1.126   7.937  12.061 -0.2339  0.2098 -0.0766
61745SOL    HW194203   1.033   7.957  12.072 -0.2905  1.1919 -1.9461
61745SOL    HW294204   1.163   8.016  12.021  1.2211 -0.4918 -0.1728
61746SOL     OW94205  10.199  11.329   7.734 -0.3717 -0.4723  0.2488
61746SOL    HW194206  10.109  11.343   7.764 -1.0493 -1.1662 -1.3543
61746SOL    HW294207  10.212  11.396   7.667  0.2645 -0.4429  0.4010
61747SOL     OW94208   1.046   1.211  10.974 -0.3900  0.0370  0.0196
61747SOL    HW194209   1.010   1.292  10.939 -0.0952  0.0154 -0.3443
61747SOL    HW294210   1.116   1.239  11.033 -1.0432  0.0819  0.7936
61748SOL     OW94211   6.761  10.882   0.199 -0.3568 -0.3602 -0.0644
61748SOL    HW194212   6.796  10.838   0.121  0.2770  1.1776 -0.6808
61748SOL    HW294213   6.786  10.973   0.188 -1.0801  0.0529  1.5029
61749SOL     OW94214   4.832   2.093  11.523  0.1136 -0.1617  0.0261
61749SOL    HW194215   4.863   2.120  11.437  0.2588  0.0550  0.1471
61749SOL    HW294216   4.841   1.997  11.523  1.7711 -0.0273  0.4454
61750SOL     OW94217   3.177   7.243   2.920 -0.1290  0.6541 -0.4303
61750SOL    HW194218   3.097   7.231   2.868 -0.5003  3.4452 -0.6212
61750SOL    HW294219   3.148   7.289   2.998  0.7505 -1.8066  1.4775
61751SOL     OW94220   0.563   8.709   2.427  0.3801  0.0942  0.1908
61751SOL    HW194221   0.579   8.626   2.382 -0.5928 -0.4317  0.7842
61751SOL    HW294222   0.481   8.695   2.474 -0.4479  1.7744 -0.6526
61752SOL     OW94223  11.195   8.192  10.588  0.0468 -0.1206 -0.5456
61752SOL    HW194224  11.147   8.215  10.668 -0.0165 -1.7875 -0.0757
61752SOL    HW294225  11.135   8.135  10.541  1.6350 -2.5848  0.2406
61753SOL     OW94226   7.722   3.208  10.528 -0.0758 -0.2192 -0.1495
61753SOL    HW194227   7.788   3.156  10.573 -0.5367  0.7219  1.7139
61753SOL    HW294228   7.735   3.297  10.562 -0.8765  0.4055 -1.4134
61754SOL     OW94229   8.633   4.149   3.584  0.5628 -0.9657 -0.4323
61754SOL    HW194230   8.594   4.130   3.670  1.0730 -0.4934 -0.0901
61754SOL    HW294231   8.718   4.188   3.605 -0.5322  2.0201 -1.0654
61755SOL     OW94232   1.819  12.276  11.013 -0.0983  0.2648  0.2457
61755SOL    HW194233   1.765  12.197  11.016 -0.2195  0.2976 -0.6857
61755SOL    HW294234   1.761  12.344  10.979  0.3290  0.4666 -0.0943
61756SOL     OW94235  12.262   2.677   3.465  0.6206 -0.8598 -0.8300
61756SOL    HW194236  12.270   2.756   3.519 -0.5494 -0.2349 -1.5162
61756SOL    HW294237  12.322   2.614   3.505  0.1833 -0.2536  0.8757
61757SOL     OW94238  12.212   8.679  10.368  0.2307  0.6858 -0.1107
61757SOL    HW194239  12.300   8.678  10.403  0.2529  0.5814 -0.1705
61757SOL    HW294240  12.155   8.663  10.443  0.4124 -2.9059 -0.5700
61758SOL     OW94241   0.360  10.116   8.292 -0.2015  0.6281 -0.0521
61758SOL    HW194242   0.440  10.097   8.341  0.2132 -0.0752 -0.9629
61758SOL    HW294243   0.351  10.211   8.297  0.1667  0.6251  0.8535
61759SOL     OW94244  11.851  11.737   2.697  0.0008  0.0531 -0.1339
61759SOL    HW194245  11.767  11.710   2.733 -0.3979 -1.4093 -2.0255
61759SOL    HW294246  11.865  11.824   2.734 -3.0829  1.0196 -0.8974
61760SOL     OW94247  11.658   1.498   4.487  0.4283 -0.1221  0.1619
61760SOL    HW194248  11.564   1.503   4.474  0.3709 -0.4405  0.4298
61760SOL    HW294249  11.688   1.589   4.487 -0.2417  0.1759  2.7678
61761SOL     OW94250  11.346   7.899  11.417 -0.0070  0.0119 -0.0751
61761SOL    HW194251  11.289   7.941  11.353 -0.5575 -0.2225  0.2449
61761SOL    HW294252  11.411   7.965  11.439  1.1045 -0.3844 -1.9551
61762SOL     OW94253   4.181   0.444   8.818  0.1602 -0.4702 -0.2025
61762SOL    HW194254   4.165   0.358   8.778  0.6161  0.1967 -1.8964
61762SOL    HW294255   4.256   0.480   8.770 -0.1753  0.9728  0.3004
61763SOL     OW94256  10.380   4.960   6.761 -0.2450  0.2235  0.3800
61763SOL    HW194257  10.442   4.908   6.711 -0.9003  0.1960 -0.4182
61763SOL    HW294258  10.313   4.898   6.788 -1.5161  0.7739 -1.3493
61764SOL     OW94259   0.098  11.612   4.212 -0.1529  0.4670  0.0275
61764SOL    HW194260   0.117  11.583   4.301  3.7264  0.2821 -0.7021
61764SOL    HW294261   0.018  11.664   4.220 -0.3157 -0.0993  3.4676
61765SOL     OW94262   5.881   1.989   7.818 -0.4337  0.0046 -0.4060
61765SOL    HW194263   5.946   1.930   7.781  0.2752  0.6035 -0.1554
61765SOL    HW294264   5.886   2.068   7.763  0.1283  0.6295  0.5118
61766SOL     OW94265   0.428   1.349   9.035 -0.2048  0.2160  0.7051
61766SOL    HW194266   0.364   1.323   9.101  0.9317 -0.2572  1.6393
61766SOL    HW294267   0.461   1.434   9.065  1.3387 -0.6372  1.5536
61767SOL     OW94268   7.795   8.141   1.957  0.4739  0.4036 -0.0844
61767SOL    HW194269   7.759   8.151   2.046 -0.6113 -2.0574 -0.1542
61767SOL    HW294270   7.750   8.208   1.906  1.1864  1.9280  1.2182
61768SOL     OW94271   5.520  10.980   3.448  0.2981 -0.5630  0.0217
61768SOL    HW194272   5.499  11.022   3.365  0.2008  0.9137  0.7601
61768SOL    HW294273   5.466  11.026   3.513  1.5294 -0.5980  1.1232
61769SOL     OW94274   9.485  10.810   3.101 -0.4283  0.1883  0.1529
61769SOL    HW194275   9.525  10.768   3.177 -3.0187 -2.6938  0.1517
61769SOL    HW294276   9.391  10.804   3.118 -1.0598  0.5514 -2.7210
61770SOL     OW94277   8.053   9.376   9.183 -0.1210  0.0549 -0.0916
61770SOL    HW194278   8.078   9.418   9.265  0.6997  1.7556 -1.1665
61770SOL    HW294279   7.980   9.319   9.207 -0.0682  0.6890  1.7639
61771SOL     OW94280   4.476   6.710   1.876  0.5303  0.2844 -0.6344
61771SOL    HW194281   4.458   6.804   1.882 -2.9944 -0.3372  1.7953
61771SOL    HW294282   4.460   6.688   1.784 -3.0674  1.4868 -0.4641
61772SOL     OW94283   3.274   4.871   3.678 -0.1157 -0.5167  0.5438
61772SOL    HW194284   3.361   4.861   3.717  0.0663 -1.3501 -0.0463
61772SOL    HW294285   3.283   4.946   3.620  0.2149 -0.5838  0.5020
61773SOL     OW94286   6.683   5.745   7.219  0.0659 -0.2001 -0.0969
61773SOL    HW194287   6.632   5.684   7.165 -1.0686  0.1707  0.5465
61773SOL    HW294288   6.630   5.759   7.297  1.5266 -0.4614  1.0027
61774SOL     OW94289   7.592   8.112   5.750  0.2879 -0.3990  0.0492
61774SOL    HW194290   7.621   8.196   5.786  0.7036 -0.2933 -0.5222
61774SOL    HW294291   7.538   8.074   5.819 -0.0133  0.3951  0.2624
61775SOL     OW94292   2.488   6.872   9.381  0.0224  0.1827  0.0744
61775SOL    HW194293   2.449   6.815   9.447 -2.4399  1.5570 -0.0835
61775SOL    HW294294   2.417   6.890   9.319  1.4521  1.2849 -1.3543
61776SOL     OW94295  10.522   4.071   1.441 -0.4816  0.1405 -0.4120
61776SOL    HW194296  10.467   4.148   1.455 -1.1897 -0.6999  2.0544
61776SOL    HW294297  10.468   4.012   1.388 -0.8961  0.4111 -0.2982
61777SOL     OW94298   7.907   5.009   1.497 -0.8557  0.5762 -0.0595
61777SOL    HW194299   7.982   5.052   1.538  0.3308 -1.2763 -0.1683
61777SOL    HW294300   7.879   4.944   1.562 -0.4158 -0.8102 -1.2098
61778SOL     OW94301  10.438   0.580   6.474 -0.1997  0.2599 -0.5439
61778SOL    HW194302  10.352   0.549   6.502  0.5423 -2.6044 -1.0913
61778SOL    HW294303  10.498   0.548   6.542  0.6017  1.0889 -0.8350
61779SOL     OW94304  10.030  12.428   5.636 -0.3000  0.0671 -0.1363
61779SOL    HW194305  10.004  12.431   5.728  0.7177 -1.3177  0.2388
61779SOL    HW294306   9.998  12.343   5.606  2.6445 -1.2320  0.0489
61780SOL     OW94307   2.923   0.662   7.113  0.1899 -0.1453  0.1513
61780SOL    HW194308   2.838   0.702   7.091  0.3147 -0.5889 -1.1779
61780SOL    HW294309   2.921   0.576   7.072  0.8565 -0.6138  1.0549
61781SOL     OW94310   3.680   4.117  10.667  0.2802  0.2715 -0.3450
61781SOL    HW194311   3.751   4.107  10.730  2.3183 -2.0601 -2.7585
61781SOL    HW294312   3.705   4.194  10.615  1.1422 -0.5618 -1.2096
61782SOL     OW94313   6.406   9.428   0.205 -0.4329 -0.1666  0.3949
61782SOL    HW194314   6.333   9.392   0.155 -1.4767 -1.7506  2.8654
61782SOL    HW294315   6.376   9.427   0.295  1.4813  2.2549  1.1704
61783SOL     OW94316   8.716   9.695  12.406  1.2083  0.1669  0.0422
61783SOL    HW194317   8.792   9.738  12.367  0.9929 -1.1121 -1.9111
61783SOL    HW294318   8.752   9.614  12.443  1.0812  0.4406  0.7792
61784SOL     OW94319   6.114   3.770   1.054  0.0383  0.2385 -0.2588
61784SOL    HW194320   6.135   3.750   0.963 -2.8525  0.8356 -1.1746
61784SOL    HW294321   6.140   3.692   1.103 -0.7986 -1.2160 -2.0290
61785SOL     OW94322   0.977   8.946  11.569 -0.4688  0.5694 -0.2817
61785SOL    HW194323   0.886   8.917  11.576 -1.3335  2.4200 -2.7142
61785SOL    HW294324   1.014   8.892  11.499 -0.3672  1.3624 -0.8423
61786SOL     OW94325   4.898  12.342   6.008  1.0866 -0.2567  0.3295
61786SOL    HW194326   4.968  12.363   5.947  2.2531  0.4488  1.8295
61786SOL    HW294327   4.822  12.324   5.953  2.5560 -1.5967 -1.3971
61787SOL     OW94328   6.708   2.374   6.519 -0.0720  0.0110 -0.2984
61787SOL    HW194329   6.659   2.345   6.442  0.6736 -0.3822 -0.6348
61787SOL    HW294330   6.697   2.304   6.583  0.3707 -0.2681 -0.5197
61788SOL     OW94331   4.053   6.559  11.558  0.1266 -0.4217  0.2359
61788SOL    HW194332   4.084   6.638  11.602 -1.1221 -0.0048  0.4266
61788SOL    HW294333   4.013   6.591  11.477 -0.8027 -0.8013  0.5320
61789SOL     OW94334   8.201   9.889   7.824 -0.7164  0.0261  0.5427
61789SOL    HW194335   8.156   9.808   7.800 -0.7358 -0.6442  2.6182
61789SOL    HW294336   8.277   9.859   7.874 -0.5239  1.2962  1.0328
61790SOL     OW94337   4.940   0.595   2.898 -0.3640  0.0752  0.4802
61790SOL    HW194338   4.960   0.532   2.967 -1.6130 -0.2094  0.5941
61790SOL    HW294339   4.910   0.673   2.944 -1.5243 -0.2322  0.2605
61791SOL     OW94340   2.333   0.182   6.407  0.3178 -0.3960 -0.9686
61791SOL    HW194341   2.428   0.169   6.411  0.5504  1.4013  0.7469
61791SOL    HW294342   2.323   0.270   6.370 -0.7432 -0.8368 -1.7899
61792SOL     OW94343  11.429  12.279  11.819  0.3060 -0.0751 -0.0479
61792SOL    HW194344  11.500  12.337  11.844 -0.8761  1.8854 -1.0199
61792SOL    HW294345  11.383  12.260  11.902  0.1703  1.1445  0.1726
61793SOL     OW94346   4.310   8.535  11.745  0.1160 -0.4796 -0.2069
61793SOL    HW194347   4.290   8.603  11.681  0.7111  1.0589  1.1964
61793SOL    HW294348   4.333   8.582  11.825  2.5339 -2.2667  0.2578
61794SOL     OW94349   6.189   9.058   4.398  0.2164 -0.2752  0.7342
61794SOL    HW194350   6.279   9.061   4.364 -0.4040  0.2619 -0.9891
61794SOL    HW294351   6.159   9.149   4.393 -1.2691 -0.7994 -1.3115
61795SOL     OW94352   0.102  10.584   0.090 -0.4594  0.6675  0.0139
61795SOL    HW194353   0.127  10.642   0.162  0.5381  0.2406  0.0183
61795SOL    HW294354   0.008  10.569   0.103 -0.3715  0.8963  1.0021
61796SOL     OW94355   6.024  10.219  10.872  0.0963 -0.1087 -0.5199
61796SOL    HW194356   6.010  10.132  10.910  1.3396  0.2333  0.8022
61796SOL    HW294357   6.011  10.279  10.945 -2.2917  0.9935 -1.7488
61797SOL     OW94358  10.353  12.426  11.672  0.2856 -0.3901  0.3770
61797SOL    HW194359  10.428  12.470  11.711 -0.3142 -0.6546  1.8843
61797SOL    HW294360  10.279  12.448  11.729 -0.9759  0.4818 -1.4638
61798SOL     OW94361   0.960   3.473   2.382 -0.4556 -0.2901 -0.1012
61798SOL    HW194362   1.018   3.470   2.306 -0.7850 -0.5931 -0.3399
61798SOL    HW294363   0.936   3.566   2.391  1.8721  0.2771  1.3690
61799SOL     OW94364   6.306   1.316   3.357 -0.2405 -0.0068 -0.0735
61799SOL    HW194365   6.379   1.255   3.349 -0.9489 -0.9811  0.5269
61799SOL    HW294366   6.344   1.403   3.345  0.7123 -0.5919 -1.4609
61800SOL     OW94367   0.186   2.357   4.311  0.4256  0.6577  0.4383
61800SOL    HW194368   0.157   2.268   4.330 -0.0186  0.7980  0.4271
61800SOL    HW294369   0.232   2.384   4.390  1.8603 -0.1078 -0.0975
61801SOL     OW94370   3.226   2.695   6.460  0.2568  0.3078  0.6241
61801SOL    HW194371   3.272   2.630   6.514  2.5990  0.9180 -0.5283
61801SOL    HW294372   3.234   2.777   6.510 -1.3208  0.0570  1.3300
61802SOL     OW94373   7.521   0.668   8.877 -0.1748  0.0078 -0.0326
61802SOL    HW194374   7.509   0.696   8.786 -0.0167 -0.2972 -0.1512
61802SOL    HW294375   7.503   0.574   8.874  0.2247 -0.0749  0.1781
61803SOL     OW94376   0.904   5.995   0.089 -0.2724 -0.6377 -0.4455
61803SOL    HW194377   0.911   5.997  -0.006 -0.4526  1.1098 -0.4423
61803SOL    HW294378   0.815   5.963   0.106 -0.9606  0.9407 -0.9191
61804SOL     OW94379   2.176   5.883   3.562 -0.3578  0.4225 -0.4881
61804SOL    HW194380   2.220   5.865   3.644  0.4832  0.2214 -0.9798
61804SOL    HW294381   2.156   5.797   3.525  1.3945  0.4655 -1.6197
61805SOL     OW94382   3.360   1.956  10.666  0.3233 -0.0171  0.1819
61805SOL    HW194383   3.285   1.934  10.611  1.1570 -0.1571 -0.9253
61805SOL    HW294384   3.429   1.982  10.605  0.8096  1.3028  1.2275
61806SOL     OW94385   0.459   2.552   8.301  0.3128  0.4637 -0.2405
61806SOL    HW194386   0.394   2.569   8.369 -0.3200 -0.0917 -0.6927
61806SOL    HW294387   0.497   2.467   8.325  1.0751  0.9139  0.1732
61807SOL     OW94388   3.118   5.141   3.753 -0.5689 -0.2375 -0.5555
61807SOL    HW194389   3.051   5.197   3.792  0.2714  1.4204 -1.4112
61807SOL    HW294390   3.104   5.150   3.659  1.1919  0.5862 -0.7634
61808SOL     OW94391   3.176   5.049   6.160 -0.3869  0.0197 -0.1780
61808SOL    HW194392   3.230   5.079   6.088  0.0695 -0.0202  0.1417
61808SOL    HW294393   3.229   5.065   6.238 -0.0056 -1.8498 -0.0124
61809SOL     OW94394   8.044   7.267  11.978 -0.0969 -0.7030 -0.1835
61809SOL    HW194395   8.094   7.343  12.008  0.6660 -1.6168  0.9845
61809SOL    HW294396   7.982   7.302  11.914  0.0668  0.9259  0.5016
61810SOL     OW94397  12.522  10.072  11.074 -0.0570  0.3730 -0.0061
61810SOL    HW194398  12.618  10.066  11.082 -0.1655  0.0973  1.2886
61810SOL    HW294399  12.489  10.043  11.159 -1.3659 -1.3470 -1.0346
61811SOL     OW94400   2.230   3.170   9.837 -0.4506  0.3942 -0.3474
61811SOL    HW194401   2.281   3.250   9.826  0.8605 -0.4751 -0.8943
61811SOL    HW294402   2.145   3.199   9.872  0.0416  1.9839 -0.4207
61812SOL     OW94403   4.334   6.421  10.150  0.2696 -0.1170  0.3692
61812SOL    HW194404   4.338   6.341  10.202  0.9756 -0.7196 -0.5803
61812SOL    HW294405   4.414   6.468  10.173  0.6253 -0.4262 -0.2371
61813SOL     OW94406   4.105  10.028   5.411 -0.1497 -0.2475 -0.0441
61813SOL    HW194407   4.079   9.966   5.479  1.7902 -1.8791 -0.7031
61813SOL    HW294408   4.197  10.048   5.430 -0.3192  1.3140 -0.7060
61814SOL     OW94409   6.200   4.420   4.575  0.2181  0.6642 -0.4244
61814SOL    HW194410   6.115   4.461   4.559 -0.5079 -0.5507  0.1399
61814SOL    HW294411   6.264   4.486   4.549 -0.8445  0.7108 -3.3185
61815SOL     OW94412   6.781   7.491  10.629 -0.2306  0.5372  0.3224
61815SOL    HW194413   6.770   7.513  10.722 -0.0883 -0.6409  0.6371
61815SOL    HW294414   6.835   7.412  10.630  1.2577  1.4661 -0.8330
61816SOL     OW94415   2.509   8.275   6.316  0.4956 -0.1902 -0.3309
61816SOL    HW194416   2.562   8.207   6.274  1.6774  0.1292  0.5966
61816SOL    HW294417   2.556   8.357   6.298  0.7535  0.0088  1.1408
61817SOL     OW94418   4.432   7.530   4.525 -0.1611 -0.0301  0.1205
61817SOL    HW194419   4.465   7.597   4.464  0.6208 -0.4642  0.0655
61817SOL    HW294420   4.356   7.572   4.567 -0.2883  0.5251 -0.6423
61818SOL     OW94421   3.845   1.548  11.755  0.5649 -0.2614  0.2163
61818SOL    HW194422   3.777   1.612  11.733 -0.7373 -1.2669  1.1404
61818SOL    HW294423   3.896   1.590  11.824  0.1021  0.0292  0.3885
61819SOL     OW94424   6.213   5.710   7.536 -0.1478 -0.4877  0.3233
61819SOL    HW194425   6.170   5.718   7.621  1.1263  0.5272  0.9127
61819SOL    HW294426   6.204   5.797   7.496  0.5192 -0.5308  0.0641
61820SOL     OW94427   9.160   0.905   3.992 -0.1307  0.5383  0.5517
61820SOL    HW194428   9.247   0.889   3.955 -0.3913 -0.0266  0.1734
61820SOL    HW294429   9.170   0.888   4.085  0.0439 -0.0488  0.4319
61821SOL     OW94430   4.851   5.392  10.014 -0.1461  0.2269 -0.5315
61821SOL    HW194431   4.897   5.453   9.955 -0.1832  1.3030  0.5185
61821SOL    HW294432   4.791   5.345   9.957 -0.4983  1.5473 -1.3090
61822SOL     OW94433  11.362   5.706   1.838  0.4127  0.3030 -0.0788
61822SOL    HW194434  11.301   5.632   1.837  0.5896  0.1022  1.5513
61822SOL    HW294435  11.310   5.779   1.873  0.2797  0.9529 -1.5392
61823SOL     OW94436  11.157   9.665   6.123 -0.0850  0.0485  0.4461
61823SOL    HW194437  11.200   9.642   6.206  1.9682  0.0072 -0.5589
61823SOL    HW294438  11.183   9.755   6.107 -1.0708  0.2938  0.1797
61824SOL     OW94439   2.307   9.548   1.227 -0.1462  0.2467  0.0779
61824SOL    HW194440   2.403   9.549   1.232 -0.2006  0.2294  2.0090
61824SOL    HW294441   2.279   9.603   1.300 -1.6413  2.7109 -2.1975
61825SOL     OW94442  12.191  10.241  11.523 -0.6573 -0.3672 -0.0413
61825SOL    HW194443  12.209  10.215  11.433  1.6698  0.8299 -0.0046
61825SOL    HW294444  12.235  10.176  11.577 -2.4968 -1.3936  0.3110
61826SOL     OW94445   6.972  10.716   6.307 -0.6969  0.0245 -0.2549
61826SOL    HW194446   7.013  10.633   6.332 -0.4842  1.3098  4.7761
61826SOL    HW294447   6.882  10.708   6.339 -0.5889  1.7404  0.6074
61827SOL     OW94448   5.442   5.215   3.234 -0.2639 -0.2706  0.3937
61827SOL    HW194449   5.504   5.285   3.216 -1.1930  0.1438 -1.4247
61827SOL    HW294450   5.452   5.197   3.328  1.4118  0.8890  0.4745
61828SOL     OW94451   1.437   6.115   8.799  0.8015 -0.4524  0.0515
61828SOL    HW194452   1.443   6.160   8.714  0.5920  0.0430  0.2967
61828SOL    HW294453   1.364   6.158   8.843  0.3881 -1.2522  0.1630
61829SOL     OW94454   6.491   8.724  10.830  0.0812  0.9314  0.9201
61829SOL    HW194455   6.506   8.650  10.889  0.4338  1.2719  1.2614
61829SOL    HW294456   6.536   8.797  10.871  2.1095  0.7370 -0.8213
61830SOL     OW94457  10.381   9.005   7.780  0.1449 -0.0842  0.1948
61830SOL    HW194458  10.458   9.028   7.728  0.5665 -0.9713  0.4026
61830SOL    HW294459  10.309   9.001   7.716  0.2836  0.6177 -0.0205
61831SOL     OW94460   9.053   4.131   1.621  0.0636 -0.4653  0.5206
61831SOL    HW194461   9.001   4.172   1.552  0.8425 -1.5813 -0.7755
61831SOL    HW294462   9.010   4.158   1.702  0.5880  3.0352 -0.1873
61832SOL     OW94463   5.379   8.207   2.937  0.6162 -0.1889  0.3006
61832SOL    HW194464   5.361   8.290   2.893  1.1301 -0.3072 -0.1399
61832SOL    HW294465   5.304   8.194   2.995  0.4401  0.4865  0.2321
61833SOL     OW94466   3.380  11.793   4.394  0.0730 -0.4924 -0.6732
61833SOL    HW194467   3.331  11.716   4.424  0.9302 -1.2184 -1.1263
61833SOL    HW294468   3.353  11.862   4.455  0.9973 -1.6833  1.2114
61834SOL     OW94469   1.250   2.226  12.521  0.0544 -0.5332  0.2060
61834SOL    HW194470   1.284   2.294  12.462  0.3011 -0.2929  0.6131
61834SOL    HW294471   1.257   2.145  12.471 -0.9184 -0.1674 -0.5553
61835SOL     OW94472   5.357  11.241   4.596  0.4419 -0.5770  0.2389
61835SOL    HW194473   5.331  11.228   4.687  0.8478  2.5823  0.9062
61835SOL    HW294474   5.407  11.162   4.575  1.1562 -1.0187  3.0750
61836SOL     OW94475   4.246   6.710   2.266 -0.2716 -0.0416 -0.7421
61836SOL    HW194476   4.255   6.805   2.264 -0.4356 -0.0274 -0.7957
61836SOL    HW294477   4.318   6.680   2.321 -0.6282  0.1595 -0.1623
61837SOL     OW94478   4.993   9.767  11.159 -0.5542 -0.7106  0.3582
61837SOL    HW194479   5.031   9.700  11.217  0.7693 -1.3385 -1.1606
61837SOL    HW294480   5.065   9.790  11.100 -1.1913  1.5686  0.3892
61838SOL     OW94481   9.808  11.032   8.152 -0.6433  0.0302  0.4424
61838SOL    HW194482   9.858  10.969   8.204 -1.8650 -1.6361 -0.3093
61838SOL    HW294483   9.746  10.979   8.102 -1.0181  1.7496 -1.0529
61839SOL     OW94484  10.153  12.257   6.964 -0.7514  0.2211  0.0816
61839SOL    HW194485  10.155  12.339   7.013 -0.7128  0.8363 -0.9202
61839SOL    HW294486  10.062  12.228   6.969 -0.7122  0.1830  0.6519
61840SOL     OW94487   7.555   1.285  10.704 -0.6714 -0.4687  0.0339
61840SOL    HW194488   7.466   1.319  10.717 -0.0208  0.6955  1.8818
61840SOL    HW294489   7.602   1.359  10.665 -0.4613 -1.0305 -0.7912
61841SOL     OW94490   1.493   7.905   8.989  0.0394 -0.4848  0.1591
61841SOL    HW194491   1.444   7.829   9.022 -1.2828 -1.2582 -3.0907
61841SOL    HW294492   1.439   7.938   8.917  0.5473  3.6681  1.4309
61842SOL     OW94493  11.276   4.461  12.375 -0.1488 -0.0540 -0.6168
61842SOL    HW194494  11.315   4.376  12.396 -1.0563 -0.3597 -0.1075
61842SOL    HW294495  11.235   4.490  12.456 -0.4260  0.5530 -0.9617
61843SOL     OW94496  12.048   2.638   1.254  0.1464  0.1331  0.1504
61843SOL    HW194497  12.122   2.577   1.260  0.0292 -0.1429 -1.0569
61843SOL    HW294498  12.046   2.664   1.162 -1.4298 -0.0560  0.1151
61844SOL     OW94499   0.631   0.085   5.320  0.2169  0.9097 -0.0264
61844SOL    HW194500   0.665   0.009   5.273 -0.5588  1.8906 -2.3277
61844SOL    HW294501   0.588   0.049   5.397  1.1831 -0.8272 -0.2478
61845SOL     OW94502   1.120   3.847  12.520  0.2585  0.1642  0.0073
61845SOL    HW194503   1.077   3.762  12.532 -2.4816  1.2526 -1.2457
61845SOL    HW294504   1.093   3.898  12.596 -0.5022  0.7748 -0.6562
61846SOL     OW94505  11.839   7.668   2.730 -0.2680  0.5314 -0.5632
61846SOL    HW194506  11.831   7.580   2.767 -1.1253 -0.1303 -2.1856
61846SOL    HW294507  11.909   7.660   2.665  0.1194  1.2350 -0.2396
61847SOL     OW94508   3.958  10.662   2.213 -0.3869  0.1355 -0.1136
61847SOL    HW194509   3.889  10.650   2.149  1.0185 -1.8002 -1.3864
61847SOL    HW294510   4.032  10.698   2.164  0.5403 -0.8728  0.4796
61848SOL     OW94511   4.636   1.212  11.917 -0.4160  0.4440  0.3970
61848SOL    HW194512   4.552   1.169  11.906 -0.6412  1.2982 -1.7298
61848SOL    HW294513   4.691   1.176  11.847  0.4067  1.1892  0.6441
61849SOL     OW94514  10.033   7.837   5.089 -0.0975 -0.1998  0.2235
61849SOL    HW194515  10.075   7.882   5.015  1.0284  0.0009  0.9573
61849SOL    HW294516  10.094   7.848   5.161 -0.5015 -1.6432  0.8211
61850SOL     OW94517   8.814   9.789  11.100  0.2030  0.8622  0.1545
61850SOL    HW194518   8.788   9.856  11.038 -1.2309  0.7033  0.5447
61850SOL    HW294519   8.866   9.727  11.049 -0.0546  1.2924 -0.6369
61851SOL     OW94520   0.198   8.375  11.129  0.7984 -0.0319 -0.3966
61851SOL    HW194521   0.141   8.437  11.174  1.6670 -0.0891  0.8145
61851SOL    HW294522   0.142   8.300  11.109 -0.2271  1.0326 -1.7331
61852SOL     OW94523   1.179   1.032   8.978  0.4317  0.3134  0.2866
61852SOL    HW194524   1.106   0.974   8.958  2.6186 -2.2654 -0.8613
61852SOL    HW294525   1.142   1.098   9.037 -2.5400 -1.4405  0.5858
61853SOL     OW94526   8.483   5.584  11.756  0.3001  0.0812  0.1343
61853SOL    HW194527   8.573   5.569  11.727  0.0605 -1.6555  0.1819
61853SOL    HW294528   8.430   5.530  11.698 -0.5602 -0.2517  1.2075
61854SOL     OW94529   5.893   2.085  11.272 -0.1629 -0.1476  0.2221
61854SOL    HW194530   5.841   2.073  11.352 -0.4149  0.8296  0.2114
61854SOL    HW294531   5.964   2.021  11.281 -1.0047 -1.0813  0.5211
61855SOL     OW94532   1.124   4.201   2.359 -0.0673  0.2110  0.4104
61855SOL    HW194533   1.197   4.140   2.361  0.8103  1.2452  0.3317
61855SOL    HW294534   1.097   4.209   2.450  1.6259  1.8243  0.8080
61856SOL     OW94535  11.459   3.120   8.747 -0.3873 -0.1424  0.1455
61856SOL    HW194536  11.392   3.098   8.682  1.3368 -1.3014 -1.3524
61856SOL    HW294537  11.426   3.200   8.789 -3.8662 -1.9622  1.3017
61857SOL     OW94538   0.637   0.079  10.162 -0.0607  0.1128 -0.2926
61857SOL    HW194539   0.711   0.049  10.109  1.2500 -1.1186  2.0570
61857SOL    HW294540   0.671   0.154  10.210  0.0340 -1.0161  1.4839
61858SOL     OW94541   5.952   6.505   7.809  0.3905  0.0172 -0.3058
61858SOL    HW194542   5.951   6.498   7.714  0.7567  1.3435 -0.4204
61858SOL    HW294543   5.908   6.425   7.839 -0.3027 -0.1109 -1.5911
61859SOL     OW94544   8.231   6.777   6.797  0.0880 -0.4955 -0.4472
61859SOL    HW194545   8.228   6.871   6.812 -1.1018 -0.3962 -1.2045
61859SOL    HW294546   8.222   6.738   6.884  1.3188  0.0628 -0.0404
61860SOL     OW94547   9.363  10.114   8.232  0.1842  0.0002  0.5964
61860SOL    HW194548   9.441  10.089   8.282  1.3781  0.2339 -1.0645
61860SOL    HW294549   9.292  10.112   8.297  1.6990  0.7376  2.3855
61861SOL     OW94550  11.835   6.509   5.016 -0.2068 -0.4613 -0.1734
61861SOL    HW194551  11.927   6.519   4.991 -0.8486  2.4044 -1.8449
61861SOL    HW294552  11.836   6.512   5.112  1.4944 -1.2478 -0.1436
61862SOL     OW94553   0.750   3.938   6.915 -0.7548  0.4995  0.1986
61862SOL    HW194554   0.677   3.948   6.854  0.3472  2.1070 -0.9340
61862SOL    HW294555   0.820   3.901   6.862  0.1699  1.7540  0.4939
61863SOL     OW94556   9.328  12.480   8.319 -0.1985 -0.2003  0.3023
61863SOL    HW194557   9.308  12.515   8.406  0.5769  2.4556 -0.4692
61863SOL    HW294558   9.421  12.456   8.324  0.6378  2.4847 -0.4066
61864SOL     OW94559   7.911   1.061   8.164 -0.3918 -0.3203  0.1852
61864SOL    HW194560   7.899   0.967   8.171 -0.4292 -0.2083  2.0359
61864SOL    HW294561   7.859   1.086   8.087  0.0973 -1.8527 -0.6870
61865SOL     OW94562   3.004   3.789  10.412  0.1566  0.0009  0.5651
61865SOL    HW194563   3.012   3.842  10.491 -0.2275 -0.3337  0.8296
61865SOL    HW294564   2.927   3.825  10.367  1.6299  1.6400 -0.7731
61866SOL     OW94565   1.714   7.411   6.441  0.1299  0.4330  0.1172
61866SOL    HW194566   1.726   7.320   6.412  0.5022  0.1284  1.1616
61866SOL    HW294567   1.801   7.450   6.434 -0.0358  0.7153 -0.3549
61867SOL     OW94568   6.587   6.368  11.592  0.1635  0.5645  0.8491
61867SOL    HW194569   6.522   6.298  11.591 -0.1211  0.7574  2.3597
61867SOL    HW294570   6.639   6.354  11.513 -0.9263 -0.3413  0.2573
61868SOL     OW94571   2.833   7.944   5.113  0.4117  0.6114  0.4543
61868SOL    HW194572   2.889   7.872   5.086 -0.9567 -0.5197  0.5217
61868SOL    HW294573   2.882   7.988   5.183  1.2828 -0.2212  0.3821
61869SOL     OW94574   4.480   2.515   8.068  0.1080  0.1043  0.1749
61869SOL    HW194575   4.565   2.516   8.112  0.0366 -0.6490  0.3438
61869SOL    HW294576   4.477   2.597   8.020  0.9092  0.1658  0.2150
61870SOL     OW94577   7.206   0.945   5.749 -0.1156 -0.3861  0.1190
61870SOL    HW194578   7.270   0.937   5.820  0.2564 -2.2060 -0.3782
61870SOL    HW294579   7.259   0.952   5.670 -0.4076 -3.2336 -0.4485
61871SOL     OW94580   2.592   1.851  12.357  0.7690  0.0351 -0.4045
61871SOL    HW194581   2.681   1.886  12.357  0.2559  1.4372  0.3676
61871SOL    HW294582   2.539   1.922  12.392 -0.8638 -0.2729 -2.1128
61872SOL     OW94583   7.147   0.689   7.390 -0.2987  0.0310  0.3803
61872SOL    HW194584   7.188   0.609   7.358  1.4604  0.7902  0.6167
61872SOL    HW294585   7.055   0.666   7.403 -0.1904 -1.4514 -1.1926
61873SOL     OW94586  10.115   8.212   1.426  0.0078 -0.3632  0.4028
61873SOL    HW194587  10.064   8.286   1.459  0.9626  0.6697 -0.3187
61873SOL    HW294588  10.201   8.223   1.468  0.6717 -0.0705 -0.9704
61874SOL     OW94589   0.844   0.396   6.203 -0.2153 -0.1705  0.5647
61874SOL    HW194590   0.788   0.464   6.164  0.1863  0.3761  0.9236
61874SOL    HW294591   0.784   0.323   6.218 -0.8215  0.3616  0.8356
61875SOL     OW94592   5.480   9.238   2.723  0.5167 -0.5247  0.0242
61875SOL    HW194593   5.551   9.174   2.723 -0.4156 -1.5880  0.2035
61875SOL    HW294594   5.497   9.293   2.647  0.8505 -1.5516 -0.6660
61876SOL     OW94595  10.196  10.231   8.975 -0.2023 -0.2159 -0.1207
61876SOL    HW194596  10.234  10.175   9.044  0.0717  0.0712 -0.0381
61876SOL    HW294597  10.236  10.317   8.989 -2.2006  0.5944  1.1052
61877SOL     OW94598  11.457   5.129  11.265  0.0936 -0.7422  0.1119
61877SOL    HW194599  11.443   5.223  11.271  0.4408 -0.7727  1.6896
61877SOL    HW294600  11.522   5.119  11.195  0.7198  0.2554  0.5322
61878SOL     OW94601  10.528   3.505   1.916 -0.0367  0.3668 -0.0332
61878SOL    HW194602  10.555   3.424   1.874  0.3826  0.9673 -0.9427
61878SOL    HW294603  10.483   3.477   1.996 -0.2605 -0.7677 -0.5431
61879SOL     OW94604   3.106   0.465  12.469  0.3056  0.0963  0.7656
61879SOL    HW194605   3.171   0.467  12.398 -0.7091 -0.5636 -0.2342
61879SOL    HW294606   3.111   0.376  12.503  0.4311  0.2618  1.1846
61880SOL     OW94607   9.277   2.982   6.771 -0.4248  0.1109 -0.3043
61880SOL    HW194608   9.372   2.971   6.781 -0.6966 -0.8710  1.4573
61880SOL    HW294609   9.263   3.077   6.781  0.3749  0.2798 -0.7289
61881SOL     OW94610   9.058   0.731  11.063 -0.3186 -0.0567 -0.6538
61881SOL    HW194611   9.121   0.803  11.054 -0.7617  0.3314 -0.6538
61881SOL    HW294612   9.071   0.679  10.983  0.9450 -0.7500 -0.0397
61882SOL     OW94613   3.618  11.447  11.501  0.1614  0.1776 -0.5513
61882SOL    HW194614   3.659  11.527  11.533 -2.0065  1.0772  0.1644
61882SOL    HW294615   3.610  11.460  11.407 -0.2534  0.8493 -0.4279
61883SOL     OW94616   9.546   0.654   8.117 -0.0637  0.4013 -0.1724
61883SOL    HW194617   9.634   0.686   8.097  1.0069 -0.6411  2.4855
61883SOL    HW294618   9.539   0.571   8.069  0.5755  0.2678 -0.0435
61884SOL     OW94619   5.148  11.118   8.797 -0.0222  0.3917  0.0870
61884SOL    HW194620   5.173  11.110   8.889  1.1122  0.2135 -0.2247
61884SOL    HW294621   5.101  11.037   8.778  0.2213  0.1824  0.3723
61885SOL     OW94622   5.767   4.681   6.665 -0.7082 -0.0563  0.2936
61885SOL    HW194623   5.713   4.630   6.604  0.4927  0.1686 -0.9956
61885SOL    HW294624   5.844   4.626   6.680 -0.2159  0.6163  0.2678
61886SOL     OW94625   7.375  10.297  10.267  0.0193  0.0799  0.7472
61886SOL    HW194626   7.311  10.326  10.202 -0.4386  1.9793  1.9811
61886SOL    HW294627   7.460  10.304  10.223 -0.4039 -0.2494 -0.1497
61887SOL     OW94628   6.588   2.236   0.754 -0.7769  0.2914  0.2322
61887SOL    HW194629   6.529   2.160   0.749 -1.2725  0.6222  0.8191
61887SOL    HW294630   6.615   2.251   0.664 -1.5269  0.0697 -0.0412
61888SOL     OW94631   7.866   8.190   3.430  0.1838  0.0680 -0.1151
61888SOL    HW194632   7.904   8.211   3.515  0.6602  0.0120 -0.3071
61888SOL    HW294633   7.853   8.096   3.431  0.4440  0.0294 -0.2008
61889SOL     OW94634   1.139   8.805   4.345  0.1769  0.6839  0.2176
61889SOL    HW194635   1.083   8.798   4.422 -0.9583  1.9942 -0.4388
61889SOL    HW294636   1.213   8.858   4.374  0.6968 -0.3882  0.8826
61890SOL     OW94637   0.882   5.574   6.196 -0.1259 -0.1526 -0.0297
61890SOL    HW194638   0.849   5.598   6.109 -1.5079  0.6493  0.6900
61890SOL    HW294639   0.840   5.490   6.215 -1.5650  0.6887  0.7260
61891SOL     OW94640   3.012   3.899  10.694 -0.0043 -1.4235 -0.0866
61891SOL    HW194641   2.959   3.902  10.774 -0.8183  0.5639 -0.6338
61891SOL    HW294642   3.101   3.915  10.723 -0.6553  2.7190  0.2507
61892SOL     OW94643  10.650   7.510   2.707 -0.1853 -0.4743 -0.2913
61892SOL    HW194644  10.652   7.445   2.778  2.4123 -1.0027 -0.7327
61892SOL    HW294645  10.710   7.579   2.735  0.3802 -0.3724 -1.6625
61893SOL     OW94646   9.725   2.984  11.916 -0.5123  0.0530 -0.5096
61893SOL    HW194647   9.806   3.024  11.948 -0.0095  0.4961 -2.1927
61893SOL    HW294648   9.754   2.928  11.844 -1.6940  0.2298 -1.1488
61894SOL     OW94649   6.371   8.863   4.844 -0.0149  0.2728 -0.5310
61894SOL    HW194650   6.356   8.772   4.816  0.0863 -0.0021  0.2773
61894SOL    HW294651   6.334   8.867   4.932  4.3642 -0.4589  1.6729
61895SOL     OW94652  12.197   2.016   5.119 -0.2581  0.3121 -0.9502
61895SOL    HW194653  12.202   2.011   5.023 -1.1703 -0.0070 -0.9852
61895SOL    HW294654  12.280   2.058   5.145  0.5031 -0.6323 -1.7923
61896SOL     OW94655  10.306   4.555   1.978 -0.0490  0.4881 -0.3255
61896SOL    HW194656  10.287   4.584   1.889 -0.4837  1.5307  0.0989
61896SOL    HW294657  10.386   4.503   1.969 -0.4439  0.0293 -1.4109
61897SOL     OW94658  12.353   8.779   4.028 -0.7759  0.1258  0.5619
61897SOL    HW194659  12.438   8.751   4.062 -0.0053  0.7231 -0.8087
61897SOL    HW294660  12.354   8.874   4.037  0.4617  0.6263 -3.1227
61898SOL     OW94661   6.833  11.057   2.294 -0.1912  0.1247  0.0503
61898SOL    HW194662   6.849  11.015   2.379 -0.9959 -0.8039 -0.2509
61898SOL    HW294663   6.897  11.017   2.235 -0.2898  0.0507 -0.0066
61899SOL     OW94664  12.230  11.586  10.800  0.9609 -0.5065  0.1455
61899SOL    HW194665  12.285  11.654  10.838  0.4218 -1.6134  3.2618
61899SOL    HW294666  12.158  11.633  10.758  1.4593  0.8600  0.7617
61900SOL     OW94667  11.924  12.358   0.029 -0.3416  0.6372  0.6359
61900SOL    HW194668  11.992  12.400  -0.024 -1.3144  0.6538 -0.6265
61900SOL    HW294669  11.842  12.388  -0.009 -1.0695 -1.5906  0.3267
61901SOL     OW94670   6.694   8.039   4.957 -0.1513 -0.5228 -0.4318
61901SOL    HW194671   6.751   8.098   4.908 -1.6741  2.2494  0.8825
61901SOL    HW294672   6.744   8.017   5.035  0.5472 -1.2711 -1.0758
61902SOL     OW94673  11.220   0.717   0.188 -0.0042  0.3120  0.2833
61902SOL    HW194674  11.195   0.762   0.108 -0.3275 -2.5662 -1.3957
61902SOL    HW294675  11.139   0.711   0.239 -0.3987 -0.0662 -0.3863
61903SOL     OW94676   3.113   5.001   1.187  0.0806 -0.2946 -0.4900
61903SOL    HW194677   3.144   5.032   1.272  1.3598 -1.8121 -0.3533
61903SOL    HW294678   3.038   5.057   1.166  1.3018  1.7848  0.4287
61904SOL     OW94679   2.485   3.558   3.055  0.6320 -0.2351  0.5591
61904SOL    HW194680   2.441   3.643   3.055 -3.0533 -1.8682  2.7087
61904SOL    HW294681   2.485   3.530   2.964 -0.2066  1.1082  0.1230
61905SOL     OW94682  12.478  10.749   7.728  0.1331 -0.5475  0.0254
61905SOL    HW194683  12.529  10.724   7.805  1.1254 -0.0118 -0.4394
61905SOL    HW294684  12.541  10.745   7.656  0.2078  2.5313 -0.2064
61906SOL     OW94685   7.519   6.471  11.605 -0.1804 -0.6645 -0.5408
61906SOL    HW194686   7.552   6.381  11.609 -3.0798 -1.8173  0.1850
61906SOL    HW294687   7.588   6.524  11.643  2.0117 -2.4231 -1.7969
61907SOL     OW94688   9.812  11.559   6.542 -0.1434 -1.1452 -0.1152
61907SOL    HW194689   9.826  11.482   6.599  2.3117  0.1742  1.2450
61907SOL    HW294690   9.877  11.622   6.571  2.1034 -0.6961 -5.1298
61908SOL     OW94691   2.729   2.683   8.722 -0.3557 -0.0991 -0.2749
61908SOL    HW194692   2.687   2.724   8.646 -1.6692 -1.5873 -0.4048
61908SOL    HW294693   2.672   2.609   8.744  1.8400 -1.8194 -0.0190
61909SOL     OW94694   2.407   7.952   9.530 -0.1829 -0.7804 -0.6594
61909SOL    HW194695   2.412   8.013   9.604 -0.2823 -1.0246 -0.4518
61909SOL    HW294696   2.316   7.958   9.500 -0.2943 -1.1175 -0.3920
61910SOL     OW94697  10.086   8.969   6.550 -0.3719  0.2185 -0.3183
61910SOL    HW194698  10.044   9.011   6.475 -0.1538  0.3212 -0.3820
61910SOL    HW294699  10.133   9.039   6.594 -1.4954  0.4168  0.6230
61911SOL     OW94700  10.608   3.651   7.540  0.0833 -0.1170  0.0041
61911SOL    HW194701  10.696   3.618   7.556 -0.4536 -0.9998  1.2703
61911SOL    HW294702  10.551   3.595   7.592 -1.2902  0.1469 -1.1509
61912SOL     OW94703   1.315   1.860   9.366  0.0748 -0.7805 -0.1841
61912SOL    HW194704   1.248   1.800   9.397  0.4598 -1.8158 -1.2489
61912SOL    HW294705   1.392   1.804   9.353  0.6059  0.0451 -0.6549
61913SOL     OW94706  12.421   8.046  12.512 -0.1849  0.3869 -0.4844
61913SOL    HW194707  12.470   8.113  12.561 -0.7688  1.2637 -1.0604
61913SOL    HW294708  12.487   7.983  12.484  0.5447  1.2527 -0.7729
61914SOL     OW94709   9.279   0.864   2.590  0.4233  0.0514 -0.6688
61914SOL    HW194710   9.258   0.873   2.497 -1.2684  2.9914 -0.1282
61914SOL    HW294711   9.323   0.945   2.613  1.6744 -1.0240  0.9465
61915SOL     OW94712  12.575   5.971   9.250 -0.2382 -0.3031  0.5070
61915SOL    HW194713  12.509   6.027   9.290  0.0266 -0.1893  0.7842
61915SOL    HW294714  12.553   5.972   9.157  0.1671  0.8213  0.4049
61916SOL     OW94715   7.494   6.248   3.243  0.6017 -0.1054 -0.3173
61916SOL    HW194716   7.563   6.194   3.206  1.0554  0.4174 -0.2417
61916SOL    HW294717   7.475   6.209   3.329 -0.1091 -1.0228 -0.8793
61917SOL     OW94718  12.343   2.062   5.938 -0.5048  0.2352 -0.2862
61917SOL    HW194719  12.427   2.020   5.959 -1.9599 -2.0852  1.3376
61917SOL    HW294720  12.343   2.142   5.991 -0.2413 -0.9182  1.5435
61918SOL     OW94721   0.401   4.343   1.865  0.1163  0.3343  0.1136
61918SOL    HW194722   0.397   4.248   1.878 -1.0236  0.4077  0.4259
61918SOL    HW294723   0.493   4.361   1.846  0.6200 -0.6479  1.4717
61919SOL     OW94724   9.213   2.520   9.994  0.1281  0.5651 -0.5815
61919SOL    HW194725   9.277   2.507  10.064 -0.5427  1.2316  0.1773
61919SOL    HW294726   9.150   2.582  10.031 -1.6918 -1.0712 -0.8166
61920SOL     OW94727   9.529   2.685   3.449 -0.2252  0.0068  0.0470
61920SOL    HW194728   9.596   2.618   3.465 -0.2203  0.0394  0.1623
61920SOL    HW294729   9.511   2.721   3.535 -1.8024 -1.3595  0.3505
61921SOL     OW94730   8.499   0.444   7.907  0.0217  0.1613 -0.0672
61921SOL    HW194731   8.504   0.358   7.865 -2.6202  0.3081 -0.9108
61921SOL    HW294732   8.521   0.506   7.839  1.5736  0.1978  0.4439
61922SOL     OW94733   2.487   4.068   4.130 -0.3643 -0.2714 -0.0920
61922SOL    HW194734   2.513   4.047   4.040  1.6032  0.0125  0.3562
61922SOL    HW294735   2.407   4.119   4.120  1.7159  2.9764 -2.0022
61923SOL     OW94736   2.999   9.448   1.640 -0.1079  0.2074  0.3453
61923SOL    HW194737   3.043   9.378   1.592  0.7554  1.0887 -0.1740
61923SOL    HW294738   2.914   9.459   1.596 -0.1825 -0.3980  0.3372
61924SOL     OW94739  12.215   5.566   7.523 -0.2003  0.0855  0.3585
61924SOL    HW194740  12.260   5.560   7.438 -0.2981  1.4241  0.1919
61924SOL    HW294741  12.278   5.533   7.586  0.0435 -0.4953 -0.1728
61925SOL     OW94742  10.962   4.828   5.496  0.3657 -0.3828 -0.4327
61925SOL    HW194743  10.916   4.888   5.554  0.5289 -0.2244 -0.4642
61925SOL    HW294744  11.055   4.847   5.511  0.4026 -0.0414 -1.0556
61926SOL     OW94745  10.968   2.472   2.968 -0.9051  0.1868 -0.3224
61926SOL    HW194746  10.905   2.437   3.030 -1.6339  0.5768 -0.8169
61926SOL    HW294747  11.026   2.527   3.021 -1.2506  0.1693  0.0818
61927SOL     OW94748  10.622   5.948   4.076 -0.0714  0.4636 -0.3160
61927SOL    HW194749  10.711   5.979   4.092  0.2009 -0.3857 -0.1195
61927SOL    HW294750  10.593   5.997   3.999  0.1931  1.4734  0.2150
61928SOL     OW94751   4.191   9.323   7.488  0.2149 -0.1896 -0.1522
61928SOL    HW194752   4.246   9.395   7.519  0.9455 -1.1815  0.9143
61928SOL    HW294753   4.191   9.260   7.559 -0.3075 -1.3193 -1.1201
61929SOL     OW94754   6.658   8.483   2.726  0.0225  0.2865  0.0341
61929SOL    HW194755   6.611   8.465   2.645  1.6441  1.6348 -1.2856
61929SOL    HW294756   6.591   8.517   2.786 -0.7440  2.3370 -1.8267
61930SOL     OW94757   6.735  11.050   0.894  0.2485 -0.2432  0.3006
61930SOL    HW194758   6.745  10.998   0.815  0.7862  0.7662 -0.3220
61930SOL    HW294759   6.738  10.987   0.965  3.0563 -0.8903 -0.2733
61931SOL     OW94760   7.333  11.624   1.505 -0.9098 -0.5228 -0.1771
61931SOL    HW194761   7.396  11.554   1.488  1.2067  0.8113  1.6084
61931SOL    HW294762   7.366  11.699   1.455 -2.8191 -0.5649 -1.6078
61932SOL     OW94763  12.165   1.993   4.389 -0.2072 -0.3679 -0.2345
61932SOL    HW194764  12.254   1.959   4.381 -0.8150 -2.0044 -0.4952
61932SOL    HW294765  12.109   1.917   4.371 -1.6610  0.3059  1.2144
61933SOL     OW94766  11.335   4.885   4.003 -0.0001 -0.2663 -0.4718
61933SOL    HW194767  11.361   4.952   3.940  1.6211 -0.7263 -0.3398
61933SOL    HW294768  11.274   4.929   4.062  0.0277  0.7127 -1.1538
61934SOL     OW94769   3.540   7.371  11.040  0.2627  0.5711 -0.1809
61934SOL    HW194770   3.566   7.281  11.026  1.2571  0.9599 -0.9422
61934SOL    HW294771   3.554   7.414  10.955 -0.3139  1.4093  0.1285
61935SOL     OW94772  10.699   0.389   2.589 -0.0706  0.1020  0.4835
61935SOL    HW194773  10.630   0.429   2.536 -0.8293  1.4325  2.3392
61935SOL    HW294774  10.713   0.452   2.661  2.1258 -0.7774  0.9146
61936SOL     OW94775   5.184  10.076   9.957  0.3568  0.2744  0.0362
61936SOL    HW194776   5.164   9.996  10.006 -0.4480 -0.3613 -1.2916
61936SOL    HW294777   5.224  10.046   9.876  1.5176  1.3117  0.1898
61937SOL     OW94778  11.821  11.544  11.913  0.3969 -0.1290 -0.0307
61937SOL    HW194779  11.769  11.511  11.839 -0.9355 -2.7701  1.8970
61937SOL    HW294780  11.900  11.489  11.911  0.3054 -0.2815  0.5391
61938SOL     OW94781   7.674   5.258   3.774 -0.8359  0.0697  0.0472
61938SOL    HW194782   7.698   5.253   3.682  0.3337  1.3415  0.2605
61938SOL    HW294783   7.623   5.178   3.789 -0.4872 -0.4913 -1.5271
61939SOL     OW94784  12.011  10.546   8.039  0.0602 -0.6479  0.8546
61939SOL    HW194785  11.987  10.603   8.112 -0.1095  0.6510 -0.1878
61939SOL    HW294786  11.961  10.580   7.964  1.9651 -0.4902 -0.4047
61940SOL     OW94787   3.852   2.337   2.214  0.2967 -0.6278  0.2511
61940SOL    HW194788   3.874   2.247   2.194  1.4301 -0.7134  1.6894
61940SOL    HW294789   3.880   2.387   2.137 -1.3129 -1.5934 -0.9941
61941SOL     OW94790   8.280   2.459   8.614  0.6272  0.5694  0.0276
61941SOL    HW194791   8.204   2.505   8.649  0.8019  0.6530  0.2994
61941SOL    HW294792   8.292   2.496   8.527  1.6751  2.1254  0.7954
61942SOL     OW94793   2.218  10.624   7.912  0.2363  0.0900  0.3233
61942SOL    HW194794   2.282  10.671   7.858  1.7574 -1.6725  0.4736
61942SOL    HW294795   2.245  10.645   8.002  0.4009 -0.3747  0.3851
61943SOL     OW94796   8.861   3.399   3.132  0.1314 -0.1991 -0.1816
61943SOL    HW194797   8.807   3.462   3.084  0.2763 -0.3872 -0.6022
61943SOL    HW294798   8.854   3.426   3.223  1.9166  1.7730 -0.5482
61944SOL     OW94799   9.934   0.850   5.767 -0.4643  0.6161 -0.4420
61944SOL    HW194800   9.938   0.775   5.826  0.6683  0.8114 -0.2361
61944SOL    HW294801   9.887   0.917   5.816 -2.8600 -0.4076 -1.1953
61945SOL     OW94802  11.642  12.410  11.875 -0.2840 -0.2883  0.8199
61945SOL    HW194803  11.733  12.381  11.875  0.1510  0.9896  1.7025
61945SOL    HW294804  11.644  12.496  11.833 -0.7914  0.4993  2.3160
61946SOL     OW94805   4.428   1.837  10.453  0.0457  0.4156 -0.1392
61946SOL    HW194806   4.454   1.920  10.412 -0.7944  0.2357 -1.0593
61946SOL    HW294807   4.347   1.812  10.408 -1.2440  0.4845  1.9743
61947SOL     OW94808   4.716   0.355   9.401 -0.4888  0.0059  0.4741
61947SOL    HW194809   4.737   0.342   9.493 -0.7743  1.4617  0.7700
61947SOL    HW294810   4.656   0.284   9.379  1.5038 -1.8401  0.7023
61948SOL     OW94811   3.065   3.484   7.776  0.1548  0.6552 -0.3990
61948SOL    HW194812   3.105   3.398   7.762 -0.7239  0.0054  0.9208
61948SOL    HW294813   3.120   3.544   7.724 -0.0550 -0.8577 -2.5276
61949SOL     OW94814  10.774   5.108   8.093  0.5877  0.2739  0.1510
61949SOL    HW194815  10.857   5.155   8.104  0.2237  0.8152  0.6008
61949SOL    HW294816  10.730   5.115   8.177  0.2171 -0.2778  0.0092
61950SOL     OW94817  11.857   1.174   2.422  0.0659 -0.7379 -0.3040
61950SOL    HW194818  11.943   1.204   2.394 -0.2580  0.8184  0.2860
61950SOL    HW294819  11.802   1.252   2.418 -1.1790 -1.5724 -0.0710
61951SOL     OW94820   7.125   5.738   5.037 -0.7154  0.1519 -0.1114
61951SOL    HW194821   7.068   5.811   5.062 -0.8843 -1.0167  3.5445
61951SOL    HW294822   7.201   5.746   5.095  1.7177  0.1059 -3.0055
61952SOL     OW94823   9.376  12.056   3.246  0.1658  0.1162  0.3799
61952SOL    HW194824   9.425  11.975   3.236  1.3355  0.6940  1.1876
61952SOL    HW294825   9.302  12.047   3.187  0.5364 -1.3350  0.1065
61953SOL     OW94826   5.738   2.159   8.803 -0.4992  0.7327 -0.0205
61953SOL    HW194827   5.760   2.121   8.888 -0.2416  0.7869 -0.0633
61953SOL    HW294828   5.773   2.248   8.806  0.2714  0.4575 -0.5025
61954SOL     OW94829   6.624  10.299   4.556  0.3155  0.0036  0.3663
61954SOL    HW194830   6.551  10.238   4.562  0.9429 -0.6953  1.0083
61954SOL    HW294831   6.638  10.330   4.646 -0.0003  1.1187  0.0550
61955SOL     OW94832   6.142   8.582   2.612 -0.2023 -0.4382 -0.0054
61955SOL    HW194833   6.133   8.592   2.707  0.0801 -2.1904  0.2338
61955SOL    HW294834   6.196   8.504   2.601  1.6766  0.9819 -1.5980
61956SOL     OW94835   6.498   7.587   7.051 -0.4657 -0.3130  0.0994
61956SOL    HW194836   6.444   7.638   6.991 -1.3950 -0.3103  0.9223
61956SOL    HW294837   6.453   7.503   7.058 -1.7092  0.4517  2.5793
61957SOL     OW94838   7.907   9.946   0.432 -0.5597  0.1660 -0.0530
61957SOL    HW194839   7.858   9.879   0.479 -0.2529  0.3394  0.5374
61957SOL    HW294840   7.842  10.013   0.410 -1.1681 -0.9988 -1.9949
61958SOL     OW94841   4.286   2.130   4.058 -0.3498  0.0102 -0.0199
61958SOL    HW194842   4.377   2.157   4.069  0.1999 -1.8507  0.5211
61958SOL    HW294843   4.255   2.179   3.982  1.7841 -0.8449 -1.5506
61959SOL     OW94844   2.160  11.276  10.063 -0.5243 -0.4920  0.6883
61959SOL    HW194845   2.175  11.292  10.156 -0.2164 -0.7059  0.6768
61959SOL    HW294846   2.068  11.296  10.049 -0.3255  0.5713  0.8265
61960SOL     OW94847  11.217  11.856   0.685  0.2653 -0.2562 -0.0884
61960SOL    HW194848  11.268  11.776   0.676  3.1710  1.5156 -0.5408
61960SOL    HW294849  11.241  11.892   0.770 -0.2953  0.5983 -0.2692
61961SOL     OW94850  12.502   6.845   5.557  0.1776 -0.2429  0.1644
61961SOL    HW194851  12.503   6.778   5.488 -0.5356  1.5853 -1.7069
61961SOL    HW294852  12.536   6.924   5.514 -2.9972  1.7604  0.9875
61962SOL     OW94853   7.815   4.142   4.680  0.1414  0.1037 -0.1070
61962SOL    HW194854   7.907   4.143   4.653 -0.0811 -0.0354 -0.8824
61962SOL    HW294855   7.785   4.232   4.664  0.0196  0.0307 -0.2880
61963SOL     OW94856   9.040   5.806   7.598  0.4077  0.6059 -0.3419
61963SOL    HW194857   9.011   5.754   7.523 -0.8569  0.1862  0.4124
61963SOL    HW294858   9.070   5.742   7.662 -1.3445  0.7177  0.6720
61964SOL     OW94859   8.524   6.151   7.766  0.1995  0.1212 -0.3189
61964SOL    HW194860   8.471   6.090   7.818  1.0618 -1.5149 -1.3050
61964SOL    HW294861   8.569   6.205   7.831 -1.5596  0.6140  0.5545
61965SOL     OW94862  11.510   2.086   5.715 -0.2512  0.2003 -0.2844
61965SOL    HW194863  11.424   2.076   5.756 -0.7863  2.3322 -0.7510
61965SOL    HW294864  11.491   2.111   5.625  0.8961 -1.1493 -0.9373
61966SOL     OW94865   5.175   6.299   7.396  0.3400  0.2203 -0.0854
61966SOL    HW194866   5.259   6.306   7.351  0.9066 -0.0591  0.9011
61966SOL    HW294867   5.177   6.368   7.462 -0.2986  0.3557 -0.2034
61967SOL     OW94868   5.516   2.125   7.894  0.7955 -0.1587  0.0997
61967SOL    HW194869   5.530   2.091   7.806 -0.4335  0.8179 -0.4994
61967SOL    HW294870   5.532   2.051   7.952 -0.8607 -1.5205 -1.1026
61968SOL     OW94871   8.979   8.175   3.826  0.3873  0.2143  0.6200
61968SOL    HW194872   8.931   8.212   3.752 -1.6843 -2.3520  0.5200
61968SOL    HW294873   8.942   8.218   3.903  0.5908  0.9182  0.3307
61969SOL     OW94874   7.274   0.877   2.706  0.0711  0.0974 -0.9449
61969SOL    HW194875   7.268   0.971   2.686 -0.3131 -0.2776 -2.6838
61969SOL    HW294876   7.336   0.873   2.779 -0.7291  1.7875 -0.0911
61970SOL     OW94877  10.846   5.244   0.098 -0.3747  0.0175 -0.5938
61970SOL    HW194878  10.856   5.164   0.047  0.0109  0.9752 -2.1053
61970SOL    HW294879  10.774   5.291   0.056 -0.0777  0.8165 -0.2427
61971SOL     OW94880   9.540  11.973  10.002  0.0355  0.1325  0.2588
61971SOL    HW194881   9.519  12.035   9.932  0.9267 -1.7928 -1.8526
61971SOL    HW294882   9.525  11.887   9.963  1.0418 -1.0476  2.3082
61972SOL     OW94883   3.091   8.225   7.862 -0.7126 -0.9461  0.4919
61972SOL    HW194884   3.103   8.141   7.819 -0.9240 -0.5080 -0.4392
61972SOL    HW294885   3.179   8.250   7.891 -0.3614 -0.6703 -0.7800
61973SOL     OW94886   7.800   2.427   0.059 -0.2310  0.1262  0.0765
61973SOL    HW194887   7.837   2.417   0.146  0.7741  0.4904 -0.2924
61973SOL    HW294888   7.706   2.442   0.073  0.1090  1.3465  1.1479
61974SOL     OW94889   9.911  10.220   6.972  0.1520 -0.0397  0.2407
61974SOL    HW194890   9.902  10.125   6.973 -1.8887  0.0903  1.5165
61974SOL    HW294891   9.932  10.242   6.881  0.4050 -1.6851 -0.1161
61975SOL     OW94892   9.742   1.194   7.810 -0.2269  0.6986 -0.4970
61975SOL    HW194893   9.830   1.175   7.776  1.1329  0.1398  2.9616
61975SOL    HW294894   9.700   1.108   7.814 -0.0699  0.6416 -0.0187
61976SOL     OW94895   6.020   7.653  12.289 -0.0034  0.2357 -0.2640
61976SOL    HW194896   6.022   7.601  12.370 -2.0635  0.3574 -0.0828
61976SOL    HW294897   6.041   7.590  12.220  0.5595 -0.1410  0.2370
61977SOL     OW94898   2.094   1.245   3.942  0.9071  0.7299 -0.5082
61977SOL    HW194899   2.164   1.302   3.973  1.6062 -0.5256  0.3111
61977SOL    HW294900   2.092   1.259   3.847  1.7195  1.3772 -0.4422
61978SOL     OW94901  11.637   2.764  10.603 -0.0818  0.0392  0.0108
61978SOL    HW194902  11.585   2.844  10.593  0.5840  0.5027  0.1396
61978SOL    HW294903  11.659   2.762  10.696 -0.0940 -0.2940  0.0065
61979SOL     OW94904   8.966   0.557   6.826 -0.3947 -0.3457 -0.4285
61979SOL    HW194905   9.049   0.602   6.813 -1.0951  1.2624  0.4291
61979SOL    HW294906   8.989   0.464   6.825  1.6550  0.0636  1.2671
61980SOL     OW94907   2.712  10.059   7.209 -0.0879 -0.0387  0.3258
61980SOL    HW194908   2.761  10.138   7.187 -0.2323 -0.7453 -3.2358
61980SOL    HW294909   2.749   9.991   7.151 -1.9325 -1.8224  1.0968
61981SOL     OW94910   9.659   5.296   0.985 -0.0996 -0.7175 -0.1707
61981SOL    HW194911   9.724   5.258   0.927  0.0606 -0.1219 -0.3873
61981SOL    HW294912   9.704   5.306   1.069 -0.0498 -0.7180 -0.1979
61982SOL     OW94913   3.902   1.601   1.571 -0.0514 -0.1668 -0.7741
61982SOL    HW194914   3.887   1.506   1.579  1.2639 -0.4172 -1.0785
61982SOL    HW294915   3.888   1.619   1.478 -3.6744  0.6079 -0.2250
61983SOL     OW94916  10.681  10.676   3.939  0.1606 -0.6947 -0.0490
61983SOL    HW194917  10.614  10.699   3.875  0.4469 -0.5820 -0.3128
61983SOL    HW294918  10.661  10.585   3.963 -0.0004 -0.7076 -0.2324
61984SOL     OW94919   2.470   1.688   2.166  0.0307  0.3463  0.6182
61984SOL    HW194920   2.412   1.760   2.139  0.6545  0.9258  0.8010
61984SOL    HW294921   2.544   1.732   2.208  0.3985 -0.4117  0.7672
61985SOL     OW94922   4.059   6.450   2.366  0.1243  0.2381 -0.2255
61985SOL    HW194923   4.130   6.509   2.341  1.2980 -0.4651  1.2970
61985SOL    HW294924   4.044   6.469   2.459 -1.8754  0.5282 -0.5593
61986SOL     OW94925   7.566   7.316   8.791  0.3588  0.1902  0.0258
61986SOL    HW194926   7.487   7.263   8.798  0.0518  0.4713 -1.1281
61986SOL    HW294927   7.637   7.252   8.787 -0.0077 -0.1481 -1.3680
61987SOL     OW94928   9.243   9.396   2.545 -0.5992  0.1785 -0.1653
61987SOL    HW194929   9.310   9.336   2.576  1.2785  1.6912 -1.0444
61987SOL    HW294930   9.256   9.400   2.450 -1.5822  0.9164 -0.2859
61988SOL     OW94931  10.332   9.241   1.818  0.3292  0.1800 -0.6675
61988SOL    HW194932  10.358   9.174   1.881  1.8002 -0.4916 -1.9199
61988SOL    HW294933  10.351   9.202   1.733 -0.4288  1.5445 -1.4982
61989SOL     OW94934   9.952   9.189   7.589  0.3726 -0.1418  0.4376
61989SOL    HW194935   9.861   9.220   7.586  0.2062 -0.6749 -0.3053
61989SOL    HW294936   9.989   9.216   7.505  0.6195 -0.7584  0.3456
61990SOL     OW94937   2.829   0.108   4.823 -0.3884 -0.4634  0.2428
61990SOL    HW194938   2.879   0.093   4.903 -0.2843  0.4044  0.3435
61990SOL    HW294939   2.792   0.022   4.802  1.5118 -1.2317 -0.1070
61991SOL     OW94940  12.302   4.400  12.446 -0.0324  0.7781 -0.0854
61991SOL    HW194941  12.298   4.307  12.469 -1.0880  0.9679  0.5669
61991SOL    HW294942  12.302   4.446  12.531 -0.7482  1.3977 -0.4084
61992SOL     OW94943   2.852   9.799  10.689 -0.0779  0.1173 -0.0801
61992SOL    HW194944   2.872   9.735  10.757 -0.0562  1.5748  1.3614
61992SOL    HW294945   2.801   9.866  10.733 -1.6438  0.2548 -1.9534
61993SOL     OW94946  11.907  10.547   1.806  0.1960  0.4323 -0.3706
61993SOL    HW194947  11.826  10.576   1.764 -0.4834 -0.4462  0.2933
61993SOL    HW294948  11.892  10.562   1.899 -0.8017 -3.2646  0.2195
61994SOL     OW94949  10.392   8.529   2.962 -0.1771 -0.0541 -0.1753
61994SOL    HW194950  10.336   8.464   3.004  2.8938 -0.1091  4.5611
61994SOL    HW294951  10.445   8.479   2.901  0.3712 -1.5933  1.4930
61995SOL     OW94952   2.208  11.955   8.518 -0.1171  0.2582  0.2106
61995SOL    HW194953   2.234  12.036   8.561 -4.0198  0.7834  1.9958
61995SOL    HW294954   2.145  11.982   8.451 -1.2313 -1.2219  0.6004
61996SOL     OW94955   0.017   3.372   6.846  0.3290 -0.2231 -0.3847
61996SOL    HW194956  -0.052   3.362   6.780  1.9829 -1.5550 -1.9970
61996SOL    HW294957  -0.017   3.324   6.923  0.3572 -2.9151 -1.9203
61997SOL     OW94958  10.726   1.558  11.553  0.0389  0.2082  0.8567
61997SOL    HW194959  10.635   1.546  11.526 -0.9766  2.1762  3.0661
61997SOL    HW294960  10.766   1.605  11.481 -1.0978  0.5524  0.4215
61998SOL     OW94961   2.782   8.521   3.818  0.0488  0.1286  0.3125
61998SOL    HW194962   2.813   8.437   3.785 -1.6751  0.1663 -1.5884
61998SOL    HW294963   2.862   8.569   3.841  1.1303 -1.4191 -0.0980
61999SOL     OW94964  10.594   4.053  11.747  0.3112 -0.0377 -0.1430
61999SOL    HW194965  10.661   4.115  11.778 -0.8087  1.7898 -1.1950
61999SOL    HW294966  10.622   4.029  11.659  0.6615 -0.9425  0.2063
62000SOL     OW94967   1.525   3.327   8.403 -0.1775 -0.1132  0.2545
62000SOL    HW194968   1.551   3.398   8.344 -1.0121 -0.3547 -0.4193
62000SOL    HW294969   1.602   3.313   8.459 -0.1889  1.6838  0.7760
62001SOL     OW94970   1.870   8.669   3.665  0.0101  0.3529  0.2316
62001SOL    HW194971   1.833   8.739   3.610 -1.6137 -0.7552 -0.1436
62001SOL    HW294972   1.864   8.590   3.611  0.0263 -0.4363  1.3587
62002SOL     OW94973   6.496   4.872   6.210  0.7140  0.4914  0.0260
62002SOL    HW194974   6.521   4.959   6.240 -0.5639  0.1248  2.4119
62002SOL    HW294975   6.531   4.813   6.277 -1.0448 -0.5489  0.0691
62003SOL     OW94976   6.791   6.859  11.369 -0.0161 -0.5021  0.0473
62003SOL    HW194977   6.746   6.937  11.403  1.6401 -0.1220  1.5063
62003SOL    HW294978   6.729   6.788  11.383 -0.8593  0.2785  0.3797
62004SOL     OW94979   5.839   7.076   1.349  0.4332  0.1398 -0.3054
62004SOL    HW194980   5.847   7.168   1.322  0.2728  0.2597  0.0574
62004SOL    HW294981   5.827   7.080   1.443  0.6621 -0.2674 -0.2567
62005SOL     OW94982   7.041   4.054   1.252 -1.1701 -0.7573 -0.1411
62005SOL    HW194983   6.990   4.122   1.298 -1.8167 -2.0576  1.1488
62005SOL    HW294984   6.982   4.021   1.185 -0.1509  1.2954 -2.2191
62006SOL     OW94985   5.698   4.512   1.782  0.1441  0.2549 -0.6392
62006SOL    HW194986   5.726   4.556   1.701  0.6672 -0.2815 -0.7665
62006SOL    HW294987   5.619   4.464   1.757 -1.6521  2.7193  0.0162
62007SOL     OW94988   6.010  12.108  10.514 -0.4005 -0.3479 -0.1055
62007SOL    HW194989   6.034  12.017  10.499  0.0520 -0.3625  0.6264
62007SOL    HW294990   6.007  12.147  10.427  2.8607 -0.2122 -0.2769
62008SOL     OW94991   7.591   8.223   3.396  0.1185  0.0782 -0.0720
62008SOL    HW194992   7.684   8.202   3.396  0.0239 -0.3493  0.5093
62008SOL    HW294993   7.587   8.315   3.423  0.4446  0.4835 -1.3254
62009SOL     OW94994   5.881  12.537   4.512  0.1430  0.7474 -0.5337
62009SOL    HW194995   5.844  12.453   4.484  0.2855  0.5504 -0.1316
62009SOL    HW294996   5.814  12.602   4.488 -0.0409  0.5011 -0.6916
62010SOL     OW94997   0.945   7.236  11.742  0.0496  0.9315 -0.2183
62010SOL    HW194998   1.030   7.259  11.705  1.1701  1.0220  2.2531
62010SOL    HW294999   0.945   7.277  11.828 -2.0596 -0.0321  0.2848
62011SOL     OW95000   2.730   0.741   2.326  0.4873 -0.4290  0.1326
62011SOL    HW195001   2.744   0.799   2.400 -0.3178  0.2881 -0.2491
62011SOL    HW295002   2.677   0.793   2.265 -1.2853 -1.9479  0.2835
62012SOL     OW95003   5.528   8.617   0.680  0.6660 -0.1984  0.4211
62012SOL    HW195004   5.475   8.635   0.759  0.6294  0.5748  0.2282
62012SOL    HW295005   5.481   8.546   0.636 -1.4853  1.8892 -0.8806
62013SOL     OW95006   1.931   3.990   2.575  0.2136  0.2688  0.0652
62013SOL    HW195007   1.894   3.902   2.582 -3.0187  1.3036 -1.6181
62013SOL    HW295008   2.016   3.977   2.531 -0.5892 -1.9643 -0.9958
62014SOL     OW95009   5.802  11.351   3.000 -0.0469 -0.5787  0.2284
62014SOL    HW195010   5.724  11.312   3.039 -0.4253  1.7150  1.9433
62014SOL    HW295011   5.866  11.280   2.999 -1.2689 -1.7635  1.4315
62015SOL     OW95012  10.099   0.517   6.818  0.3237  0.1899  0.6822
62015SOL    HW195013  10.113   0.608   6.845  0.4048 -0.0650  1.5355
62015SOL    HW295014  10.141   0.465   6.887 -1.5267 -0.5439  1.3042
62016SOL     OW95015  12.238   7.834   8.086 -0.0703  0.6087  0.0935
62016SOL    HW195016  12.163   7.831   8.026  0.0483 -1.4228 -0.0438
62016SOL    HW295017  12.289   7.910   8.058  0.6236 -0.8785 -3.2247
62017SOL     OW95018   8.854   0.623   8.862  0.6043 -0.3494 -0.1335
62017SOL    HW195019   8.881   0.685   8.794  0.3399  1.2597  1.1718
62017SOL    HW295020   8.840   0.541   8.815  1.3872  0.4547 -1.8563
62018SOL     OW95021   5.966   3.294   8.418 -0.6512  0.4302 -0.0436
62018SOL    HW195022   5.984   3.245   8.498  0.2287 -0.2244 -0.6209
62018SOL    HW295023   5.976   3.386   8.442 -0.9808  0.2705  0.7292
62019SOL     OW95024   1.024   9.276   8.528  0.0121 -0.5781 -0.1122
62019SOL    HW195025   0.954   9.238   8.475 -0.7413  1.1486 -0.4283
62019SOL    HW295026   0.991   9.273   8.617  0.1365 -1.0596 -0.0836
62020SOL     OW95027  10.085  10.463   7.220  0.7887  0.1652  0.2321
62020SOL    HW195028  10.036  10.412   7.284  1.1027  0.5035  0.7498
62020SOL    HW295029  10.042  10.549   7.219  0.5063  0.0217 -0.3451
62021SOL     OW95030   0.508   7.447   2.949  0.3538  0.0996 -0.2288
62021SOL    HW195031   0.584   7.482   2.903 -0.6463  0.5586 -1.5959
62021SOL    HW295032   0.509   7.353   2.929  0.8055  0.0233  0.1349
62022SOL     OW95033   4.081   4.014   2.749 -0.4781 -0.2546  0.1745
62022SOL    HW195034   4.034   4.029   2.831 -0.0232  1.5811  0.1434
62022SOL    HW295035   4.141   3.942   2.768 -0.1183  0.3991  1.5673
62023SOL     OW95036   9.351  10.599   6.717 -0.2461 -0.4458 -0.2012
62023SOL    HW195037   9.273  10.654   6.718  0.7210  0.9869  0.2837
62023SOL    HW295038   9.360  10.570   6.626 -0.4539  0.7075 -0.5996
62024SOL     OW95039   6.115   5.582   5.076 -0.2574 -0.0509  0.0318
62024SOL    HW195040   6.132   5.508   5.135 -0.5525  0.9389  1.4018
62024SOL    HW295041   6.069   5.646   5.130 -0.0471  1.1275 -1.1308
62025SOL     OW95042  11.644   2.334   6.872  0.1257  0.0066  0.7167
62025SOL    HW195043  11.716   2.370   6.820 -0.8017  0.8396 -0.0374
62025SOL    HW295044  11.676   2.337   6.962 -0.1741  3.6347  0.8507
62026SOL     OW95045  12.546   7.915   8.721  0.4189  0.2832 -0.6983
62026SOL    HW195046  12.619   7.870   8.678  1.5145  0.0983  1.2149
62026SOL    HW295047  12.588   7.987   8.769 -0.5285 -0.2145  0.9550
62027SOL     OW95048   9.747   6.595   1.387 -0.6862  0.4063  0.4736
62027SOL    HW195049   9.798   6.584   1.467  1.1067  0.0464 -0.6589
62027SOL    HW295050   9.662   6.626   1.417  0.0423  0.6109  2.4856
62028SOL     OW95051   0.093   6.595   1.326 -0.3795 -0.5350 -0.1103
62028SOL    HW195052   0.008   6.553   1.316 -0.3915 -0.2609 -1.2703
62028SOL    HW295053   0.109   6.594   1.420 -1.7883 -0.3335  0.1582
62029SOL     OW95054   8.484   5.349  12.332  0.0163 -0.0309 -0.5087
62029SOL    HW195055   8.537   5.411  12.381 -1.0030 -0.2264  0.9012
62029SOL    HW295056   8.445   5.401  12.262 -0.3901  0.8186  0.3275
62030SOL     OW95057   8.361   9.173   0.644  0.3493 -0.0460 -0.3755
62030SOL    HW195058   8.292   9.112   0.619  1.5377 -0.8892 -1.7909
62030SOL    HW295059   8.361   9.238   0.573 -0.5946  1.3994  0.8759
62031SOL     OW95060   8.247   9.440   4.796  0.2182 -0.2145 -0.7086
62031SOL    HW195061   8.255   9.534   4.811  1.2819 -0.3988 -0.0509
62031SOL    HW295062   8.303   9.422   4.720 -0.5631 -0.2166 -1.3008
62032SOL     OW95063   4.407  11.478   8.905  0.3489  0.2978 -0.5417
62032SOL    HW195064   4.335  11.500   8.964  0.7382  0.8342 -0.2618
62032SOL    HW295065   4.459  11.414   8.953  0.8252  0.9483 -0.1776
62033SOL     OW95066   9.797   9.126   8.990 -0.2777 -0.0800  0.3657
62033SOL    HW195067   9.716   9.139   9.040  0.3105  1.5238  0.9528
62033SOL    HW295068   9.867   9.154   9.049  0.6755 -0.9206 -0.3328
62034SOL     OW95069   6.032   7.655   6.150 -0.1966 -0.0183 -0.4936
62034SOL    HW195070   6.035   7.560   6.144 -1.5487 -0.0582 -0.9042
62034SOL    HW295071   6.123   7.682   6.161  0.3844 -1.2410 -2.0497
62035SOL     OW95072   8.568   8.662   0.890 -0.4553 -0.3231 -0.3477
62035SOL    HW195073   8.616   8.740   0.917  1.2028 -1.3181 -0.2972
62035SOL    HW295074   8.568   8.665   0.795  2.1225 -1.6421 -0.4661
62036SOL     OW95075   8.547   5.422  10.020 -0.1274  0.1952 -0.2062
62036SOL    HW195076   8.579   5.512  10.029  1.0753 -0.0970 -1.2155
62036SOL    HW295077   8.453   5.431  10.003  0.2663  1.3888 -2.0908
62037SOL     OW95078   7.528  10.934  11.241 -0.1936 -0.4002  0.0868
62037SOL    HW195079   7.533  10.999  11.171  0.9088  0.9913  1.3780
62037SOL    HW295080   7.533  10.986  11.321 -0.3482 -2.0225  1.1870
62038SOL     OW95081   6.920   8.442   9.598 -0.5503 -0.1020 -0.4445
62038SOL    HW195082   6.893   8.525   9.557 -0.0282 -0.3966 -1.4037
62038SOL    HW295083   6.855   8.379   9.568 -0.6286 -0.1549 -0.1623
62039SOL     OW95084   3.993   9.808   4.782  0.0791  0.0007 -0.0873
62039SOL    HW195085   4.088   9.810   4.768 -0.1288  2.3005 -1.8227
62039SOL    HW295086   3.958   9.758   4.708 -0.0600 -1.1451  0.7389
62040SOL     OW95087   5.458   5.551   5.328 -0.0631  0.4982 -0.5968
62040SOL    HW195088   5.495   5.628   5.286  0.5383  0.3783 -0.2885
62040SOL    HW295089   5.425   5.497   5.256  1.4161  0.0509 -0.9755
62041SOL     OW95090   4.871   2.501   2.458  0.1281  0.5265  0.2530
62041SOL    HW195091   4.937   2.468   2.519  0.6797  0.8995 -0.1324
62041SOL    HW295092   4.814   2.556   2.512 -1.1466 -1.4463  1.0238
62042SOL     OW95093   1.542  10.641   4.765 -0.5320 -0.3688  0.2798
62042SOL    HW195094   1.612  10.588   4.802  1.2602  3.0368  2.2537
62042SOL    HW295095   1.467  10.626   4.823 -0.5157 -1.6866 -0.0136
62043SOL     OW95096   9.177   6.218   3.065  0.5034 -0.1078  0.0447
62043SOL    HW195097   9.194   6.263   3.149 -2.9355  3.1491 -0.7223
62043SOL    HW295098   9.263   6.187   3.037  2.1092  0.3253  3.8394
62044SOL     OW95099   4.689   5.409  11.144 -0.4803 -0.4862 -0.0864
62044SOL    HW195100   4.691   5.500  11.115 -1.7191 -0.5850 -0.5673
62044SOL    HW295101   4.780   5.381  11.146 -0.0489  0.8993  0.5061
62045SOL     OW95102   4.246   8.712  10.071 -0.4137 -0.0681 -0.2109
62045SOL    HW195103   4.153   8.706  10.049 -0.4490  0.0780 -0.1037
62045SOL    HW295104   4.262   8.806  10.079 -0.8928 -0.1324  2.4296
62046SOL     OW95105   2.348   0.213   8.560 -0.0021  0.1358 -0.1219
62046SOL    HW195106   2.360   0.288   8.502  0.2312 -1.9129 -2.9050
62046SOL    HW295107   2.294   0.152   8.510  0.6690 -2.0025  1.5899
62047SOL     OW95108   2.256   7.044   2.905 -0.0946  0.0082  0.4461
62047SOL    HW195109   2.205   7.014   2.980  0.0049  3.6299  2.1758
62047SOL    HW295110   2.192   7.053   2.834 -0.2912 -2.9000  0.1116
62048SOL     OW95111   5.300   6.722   1.031  0.5319 -0.1020  0.1821
62048SOL    HW195112   5.226   6.698   1.087 -0.7993  0.3512 -1.3041
62048SOL    HW295113   5.332   6.805   1.067  1.0525 -0.8549  1.4953
62049SOL     OW95114   4.839   7.612   9.582 -0.0815 -0.0946 -0.0152
62049SOL    HW195115   4.747   7.622   9.556  0.1275 -1.1463 -1.2812
62049SOL    HW295116   4.887   7.669   9.522  0.2850 -1.3926 -0.9823
62050SOL     OW95117   4.262   9.911  11.189  0.5110 -0.1159 -0.3448
62050SOL    HW195118   4.252  10.006  11.184 -1.1269 -0.1347  1.5875
62050SOL    HW295119   4.333   9.898  11.253  0.2292 -0.1948 -0.0470
62051SOL     OW95120   2.410  12.577   7.062 -0.2404  0.3682  0.4556
62051SOL    HW195121   2.481  12.514   7.071 -0.3991  0.4614  3.3013
62051SOL    HW295122   2.330  12.524   7.061 -0.2584  0.3980 -0.1832
62052SOL     OW95123  11.722   8.817   1.016  0.1100 -0.0451 -0.1251
62052SOL    HW195124  11.808   8.831   0.976  0.5315  3.6647  1.6520
62052SOL    HW295125  11.741   8.772   1.098 -0.0440 -1.7527 -0.9797
62053SOL     OW95126  11.466   3.859   0.655  0.3603  0.0470 -0.0137
62053SOL    HW195127  11.377   3.832   0.632 -0.4411  2.2899  0.1460
62053SOL    HW295128  11.462   3.875   0.749  0.5905  1.2156 -0.1895
62054SOL     OW95129   1.243   6.394  11.891 -0.4021  0.4929  0.1286
62054SOL    HW195130   1.276   6.366  11.806  0.8190  1.1330  0.3682
62054SOL    HW295131   1.184   6.467  11.871  0.0401  0.7764 -0.1643
62055SOL     OW95132   6.098  10.529   7.195 -0.4420 -0.3967  0.2090
62055SOL    HW195133   6.052  10.503   7.275 -0.0587 -0.0538  0.5476
62055SOL    HW295134   6.149  10.606   7.221 -0.7984  0.1030 -0.5204
62056SOL     OW95135   0.335  11.978  11.879 -0.1602  0.4847  0.4940
62056SOL    HW195136   0.239  11.984  11.877 -0.2248 -0.5272 -1.4484
62056SOL    HW295137   0.364  12.028  11.803  0.8193  0.2040  0.6641
62057SOL     OW95138   3.168  11.841   9.234 -0.5177  0.1289 -0.4780
62057SOL    HW195139   3.191  11.757   9.272 -0.7284 -0.5061 -1.7097
62057SOL    HW295140   3.087  11.866   9.278  0.9955  1.0898  1.9283
62058SOL     OW95141  12.292   1.795   2.524  0.3887  0.0447 -0.2874
62058SOL    HW195142  12.283   1.735   2.599  0.2619  0.6470  0.1885
62058SOL    HW295143  12.209   1.788   2.477  0.8088 -1.0331 -0.9121
62059SOL     OW95144   4.775   0.990   2.377 -0.2644  0.3119  0.9329
62059SOL    HW195145   4.713   1.039   2.322  0.9686 -0.6287 -1.4475
62059SOL    HW295146   4.737   0.994   2.465 -1.7860  2.8520  0.2717
62060SOL     OW95147   8.297   1.838   0.771  0.2305 -0.0493 -0.6726
62060SOL    HW195148   8.361   1.901   0.805 -0.2114  1.8786 -3.0923
62060SOL    HW295149   8.216   1.888   0.763 -1.1445 -1.9383  0.5524
62061SOL     OW95150   9.399   1.918   8.190 -0.3699  0.4966  0.1015
62061SOL    HW195151   9.436   2.000   8.157  0.7714  0.2171  0.6291
62061SOL    HW295152   9.470   1.855   8.183 -1.2700 -0.4826 -0.3816
62062SOL     OW95153   3.548   4.732   1.933 -0.5356  0.7179 -0.5421
62062SOL    HW195154   3.578   4.813   1.974 -0.6335  0.1558  0.6567
62062SOL    HW295155   3.621   4.671   1.944 -1.2042  0.0582  0.2915
62063SOL     OW95156   6.779   0.627   8.501 -0.4136  0.4759  0.2787
62063SOL    HW195157   6.860   0.611   8.452  0.3186 -0.3869  1.7093
62063SOL    HW295158   6.805   0.684   8.573 -1.6229  2.3302 -0.6749
62064SOL     OW95159   7.807   0.454   5.360 -0.0227 -0.2861  0.2345
62064SOL    HW195160   7.734   0.412   5.405  0.2328 -0.1848  0.7605
62064SOL    HW295161   7.883   0.435   5.416  0.0157  1.2882  0.7628
62065SOL     OW95162   9.712   9.432   8.328 -0.6591 -0.2602  0.0586
62065SOL    HW195163   9.653   9.394   8.263  0.1361 -0.7892 -0.3720
62065SOL    HW295164   9.787   9.374   8.329  0.9171  1.6287 -1.1034
62066SOL     OW95165   1.890   0.968   4.355  0.6957 -0.6044 -0.4013
62066SOL    HW195166   1.842   0.928   4.428 -1.2042  0.2018 -1.1233
62066SOL    HW295167   1.971   0.999   4.394 -0.3165 -0.0679  1.4238
62067SOL     OW95168  11.350   0.547  12.582 -0.7024  0.1917 -0.0025
62067SOL    HW195169  11.305   0.608  12.640 -1.2548  0.8653 -1.1052
62067SOL    HW295170  11.443   0.565  12.597 -0.8499  0.9964  0.0186
62068SOL     OW95171   9.856   7.169   2.932 -0.2642 -0.9103  0.0757
62068SOL    HW195172   9.911   7.093   2.913 -0.6437 -1.0072 -0.6746
62068SOL    HW295173   9.918   7.239   2.953  0.0883 -1.4353  0.8297
62069SOL     OW95174   7.310   4.876   8.834 -0.3579  1.0803  0.4658
62069SOL    HW195175   7.319   4.814   8.907 -0.8617 -0.1093 -0.4442
62069SOL    HW295176   7.217   4.895   8.830 -0.2633  1.5502  0.4533
62070SOL     OW95177   0.681   8.296   9.555 -0.1578 -0.3547 -0.3854
62070SOL    HW195178   0.698   8.214   9.602 -0.7226 -0.1458  0.1879
62070SOL    HW295179   0.691   8.364   9.621 -0.4175 -0.0110 -0.6969
62071SOL     OW95180   0.821   9.745   9.397 -0.0172  0.2843  0.0023
62071SOL    HW195181   0.862   9.765   9.312 -0.3839  0.3365 -0.1656
62071SOL    HW295182   0.847   9.655   9.415 -1.2772 -0.3023 -0.9700
62072SOL     OW95183   9.871   0.164  11.963  0.0077  0.5177  0.7189
62072SOL    HW195184   9.793   0.212  11.936  0.4331  0.1758 -1.3340
62072SOL    HW295185   9.840   0.075  11.980  0.1634 -0.2214 -2.2588
62073SOL     OW95186  12.095   2.619   2.081  0.3834  0.3203 -0.0965
62073SOL    HW195187  12.078   2.530   2.111 -1.8188  1.3769  2.1079
62073SOL    HW295188  12.070   2.618   1.988 -0.5295 -1.1107  0.1382
62074SOL     OW95189   5.243   8.694   9.819  0.4253 -0.4535  0.5482
62074SOL    HW195190   5.202   8.620   9.863 -0.6410  0.2933  0.8694
62074SOL    HW295191   5.330   8.702   9.860  0.9956 -2.1747 -0.2681
62075SOL     OW95192   7.535   6.623   4.634 -0.3013  0.6621 -0.0617
62075SOL    HW195193   7.599   6.646   4.567  0.3295 -1.3609 -0.2098
62075SOL    HW295194   7.464   6.686   4.622  0.2198  0.9361 -2.0292
62076SOL     OW95195   7.102   3.509   8.149 -0.7034 -0.0140 -0.1658
62076SOL    HW195196   7.195   3.530   8.162 -1.1069  0.8990  1.4922
62076SOL    HW295197   7.091   3.509   8.054  0.4627  2.3070 -0.3629
62077SOL     OW95198   8.288   5.083   2.394 -0.9100 -0.2536  0.1759
62077SOL    HW195199   8.245   5.095   2.478 -1.3610 -1.7447  0.1730
62077SOL    HW295200   8.374   5.045   2.415  0.3492  2.3410  0.1526
62078SOL     OW95201   8.273   0.550   4.652 -0.1316  0.2826  0.5885
62078SOL    HW195202   8.222   0.504   4.718 -0.5366  0.7185  0.5829
62078SOL    HW295203   8.286   0.638   4.688 -0.3495  0.5229  0.0976
62079SOL     OW95204   7.968  12.528   7.976 -0.3558  0.6458  0.6351
62079SOL    HW195205   7.938  12.537   8.066  1.2322 -1.2238  1.4355
62079SOL    HW295206   7.960  12.435   7.957  0.3009  0.8515 -0.7999
62080SOL     OW95207   6.583   9.237   0.281  0.5478  0.1252 -0.0431
62080SOL    HW195208   6.500   9.190   0.290  0.3858  0.5340  0.7482
62080SOL    HW295209   6.561   9.315   0.230  0.6816 -0.3280 -0.7975
62081SOL     OW95210   1.337   0.942  11.373  0.6940 -0.0889  0.2227
62081SOL    HW195211   1.351   1.014  11.434  0.8816  0.6452 -0.6702
62081SOL    HW295212   1.380   0.970  11.292 -1.3035 -0.1425 -0.9056
62082SOL     OW95213   3.546   4.241   5.137 -0.3437 -0.0086  0.2255
62082SOL    HW195214   3.569   4.155   5.101  0.0797  0.1720  0.0602
62082SOL    HW295215   3.513   4.222   5.225 -2.0594 -0.5307 -0.4816
62083SOL     OW95216  12.422   7.733  12.340  0.1528 -0.3360  0.6514
62083SOL    HW195217  12.391   7.693  12.422  1.8283 -0.8713  1.0588
62083SOL    HW295218  12.420   7.662  12.276  1.9039 -0.8026  1.0586
62084SOL     OW95219   6.945   8.145   2.849  0.5638 -0.1457 -0.0511
62084SOL    HW195220   6.963   8.051   2.846  1.1706 -0.0269 -2.4999
62084SOL    HW295221   6.850   8.151   2.846  0.5409 -0.7319 -2.1241
62085SOL     OW95222  11.044   4.250   9.209  0.0266  0.0900 -0.0563
62085SOL    HW195223  11.059   4.224   9.118 -0.5451  1.3298 -0.5214
62085SOL    HW295224  11.125   4.225   9.254  0.4341 -0.2733 -0.9622
62086SOL     OW95225  12.264   4.626   0.108 -0.3165  0.3591 -0.6328
62086SOL    HW195226  12.178   4.665   0.126  0.8645  1.7050  2.9889
62086SOL    HW295227  12.261   4.541   0.152  0.0746  0.2073 -0.8966
62087SOL     OW95228   1.011  10.673   2.670 -0.0637 -0.1166  0.3533
62087SOL    HW195229   0.999  10.760   2.633 -0.0998 -0.0403  0.5448
62087SOL    HW295230   1.046  10.688   2.757 -0.1925 -0.2915  0.4362
62088SOL     OW95231  10.879   2.441   8.732  0.3650 -0.2251 -0.5090
62088SOL    HW195232  10.789   2.426   8.702  0.4111  0.5036 -1.0299
62088SOL    HW295233  10.907   2.521   8.687 -0.3838  2.3987  3.1519
62089SOL     OW95234   3.498  12.194   0.801 -0.7788 -0.5537  0.5573
62089SOL    HW195235   3.462  12.114   0.762 -1.0618  0.1215 -0.6056
62089SOL    HW295236   3.473  12.264   0.740 -1.3932  0.5808  2.0348
62090SOL     OW95237  10.794   3.262   2.192  0.1075  0.1945 -0.3314
62090SOL    HW195238  10.762   3.172   2.202  0.8038  0.1606  1.9730
62090SOL    HW295239  10.736   3.300   2.126 -0.3786 -1.8412 -1.1695
62091SOL     OW95240   0.563   8.731   3.529 -0.0221 -0.0453 -0.0443
62091SOL    HW195241   0.656   8.755   3.527 -0.3123  1.3952  1.1121
62091SOL    HW295242   0.526   8.769   3.450  0.3932 -0.7446 -0.5787
62092SOL     OW95243  10.474   3.184   6.769 -0.2972  0.4516 -0.0028
62092SOL    HW195244  10.426   3.105   6.795 -1.1712  0.5915 -1.1611
62092SOL    HW295245  10.434   3.212   6.687  0.6129  1.5857 -0.0934
62093SOL     OW95246  11.168   8.317   6.067  0.4261  0.3109  0.5704
62093SOL    HW195247  11.086   8.272   6.087 -0.9933  0.7811 -3.2596
62093SOL    HW295248  11.159   8.403   6.107 -1.6238  0.8193 -0.8507
62094SOL     OW95249  10.978   0.921   0.122  0.4623  0.0735  0.4754
62094SOL    HW195250  10.984   0.848   0.183  3.2914 -0.4789 -0.2763
62094SOL    HW295251  10.995   0.881   0.036 -1.8061  1.0674 -0.4976
62095SOL     OW95252   5.515  11.541   0.294 -0.5550 -0.0531 -0.2790
62095SOL    HW195253   5.432  11.517   0.333 -0.3241  0.5878  0.6419
62095SOL    HW295254   5.491  11.594   0.217 -1.0016 -0.8994 -0.7324
62096SOL     OW95255  12.319   6.757  10.624  0.0537  0.5005 -0.1070
62096SOL    HW195256  12.401   6.761  10.672 -0.4040 -1.1693  0.9070
62096SOL    HW295257  12.265   6.694  10.673 -1.7445  1.3744 -0.8558
62097SOL     OW95258   9.194  12.046   9.933  0.4263 -0.4268 -0.0330
62097SOL    HW195259   9.250  12.123   9.925  1.3588 -0.8697  1.7661
62097SOL    HW295260   9.111  12.079   9.967  0.9663 -0.2399  1.1406
62098SOL     OW95261   4.693   0.565   1.056  0.3342 -0.5867  0.1900
62098SOL    HW195262   4.651   0.646   1.028 -0.0457 -1.0027 -0.4957
62098SOL    HW295263   4.786   0.586   1.057  0.1455  0.2591  1.4318
62099SOL     OW95264   0.221   9.746   1.405  0.0642  0.1166 -0.1300
62099SOL    HW195265   0.175   9.717   1.326  0.1918  1.7412 -0.8456
62099SOL    HW295266   0.300   9.788   1.372  2.4396 -2.9961  1.0847
62100SOL     OW95267   6.594  10.553  12.396 -0.6214 -0.4612  0.0503
62100SOL    HW195268   6.532  10.489  12.362 -1.2542 -1.1156  2.2571
62100SOL    HW295269   6.555  10.638  12.373 -0.2732 -0.8025 -2.0255
62101SOL     OW95270   6.253   3.025   1.129 -0.4204  0.1006 -0.0026
62101SOL    HW195271   6.340   3.045   1.094  0.1819 -1.0479  0.7600
62101SOL    HW295272   6.239   2.933   1.107 -1.7731  0.4654 -0.7369
62102SOL     OW95273   6.652   3.911   1.743  0.0292  0.4760  0.1847
62102SOL    HW195274   6.559   3.935   1.752 -0.5474 -1.1421 -0.8867
62102SOL    HW295275   6.692   3.935   1.826 -1.7609 -0.4711  1.3791
62103SOL     OW95276   9.174   3.629   3.248  0.0797 -0.2737  0.2839
62103SOL    HW195277   9.142   3.684   3.177  0.1479 -1.8114 -0.9776
62103SOL    HW295278   9.169   3.686   3.326 -1.3844  0.9780 -0.6579
62104SOL     OW95279   1.844  10.891   0.082  0.2686  0.2729  0.5297
62104SOL    HW195280   1.807  10.842   0.155  1.2649 -1.8436 -0.2910
62104SOL    HW295281   1.775  10.892   0.015  0.3850 -0.4729  0.3819
62105SOL     OW95282   0.112   7.014  10.887 -0.2456 -0.0624  0.3383
62105SOL    HW195283   0.046   7.069  10.929  1.4597  1.0086  1.7527
62105SOL    HW295284   0.161   6.976  10.960  1.4823  0.1920 -0.6365
62106SOL     OW95285   8.987  10.305   6.158  0.5207  0.4016  0.7792
62106SOL    HW195286   8.942  10.224   6.132 -1.2417  1.4133  0.5513
62106SOL    HW295287   9.068  10.304   6.107 -0.0264 -0.6372 -0.1183
62107SOL     OW95288   6.902  11.067  12.147  0.2665 -1.0697  0.4971
62107SOL    HW195289   6.847  11.005  12.098 -0.3643 -0.6779  0.6981
62107SOL    HW295290   6.949  11.116  12.079 -0.1828 -0.9137  0.2934
62108SOL     OW95291  12.448  10.309   6.075 -0.5739 -0.6410  0.2418
62108SOL    HW195292  12.416  10.224   6.047  0.5966 -0.8755 -0.4729
62108SOL    HW295293  12.374  10.350   6.119 -1.7816 -1.2259 -1.1584
62109SOL     OW95294  11.048   4.065   5.311 -0.7827 -0.1415 -0.3935
62109SOL    HW195295  11.100   3.985   5.317  0.4126  0.6535  0.3142
62109SOL    HW295296  11.105   4.127   5.266 -2.2839 -0.1153 -2.3937
62110SOL     OW95297   2.772   3.410   1.394  0.5260  0.1313 -0.7065
62110SOL    HW195298   2.775   3.423   1.299 -0.7723 -1.2468 -0.9737
62110SOL    HW295299   2.835   3.341   1.411 -1.5154 -1.9412 -1.0756
62111SOL     OW95300   8.530   2.554   1.098  0.3520  0.5524 -0.2304
62111SOL    HW195301   8.435   2.561   1.094  0.3504  0.0928 -1.4537
62111SOL    HW295302   8.548   2.462   1.077  1.1452  1.1433 -2.3956
62112SOL     OW95303   8.930   5.245   6.068 -0.5510  0.4485  0.2453
62112SOL    HW195304   8.895   5.334   6.060  0.2676  0.7439 -0.1848
62112SOL    HW295305   8.975   5.245   6.153 -0.5450  0.4561  0.2420
62113SOL     OW95306   0.021   1.221   3.561  0.1106 -0.0747  0.2348
62113SOL    HW195307  -0.050   1.279   3.588 -0.0500  0.1624 -0.6548
62113SOL    HW295308   0.016   1.147   3.622 -0.2830  0.3891  0.7835
62114SOL     OW95309   5.595  11.103   9.819 -0.8416  0.0700  0.3448
62114SOL    HW195310   5.629  11.033   9.763 -2.9279 -1.2952  0.6482
62114SOL    HW295311   5.614  11.184   9.772  0.3254 -0.8110 -0.7558
62115SOL     OW95312   0.186   2.044   7.692  0.3385 -0.2729 -0.3635
62115SOL    HW195313   0.189   2.070   7.600  0.7022  1.2921  0.0581
62115SOL    HW295314   0.168   1.950   7.690  0.7375 -0.3417 -2.0294
62116SOL     OW95315  10.523   5.263   1.186  0.0698  0.1429 -0.3631
62116SOL    HW195316  10.485   5.267   1.274 -1.1149  0.8578 -0.8910
62116SOL    HW295317  10.450   5.235   1.130  0.7602 -0.1002 -1.1578
62117SOL     OW95318   8.387   5.832   7.401  0.7866 -0.0423 -0.3855
62117SOL    HW195319   8.397   5.798   7.312  0.6233 -0.5913 -0.2022
62117SOL    HW295320   8.458   5.789   7.450  1.3739  0.8645 -0.4116
62118SOL     OW95321   7.563   0.944   0.286 -0.3861  0.4590 -0.2023
62118SOL    HW195322   7.568   0.904   0.373  0.4747 -2.3964 -1.4372
62118SOL    HW295323   7.621   1.019   0.291 -0.7814  0.7066  1.8243
62119SOL     OW95324   6.836  10.735  12.577  0.3198  0.7805 -0.5690
62119SOL    HW195325   6.779  10.714  12.503  0.3380  0.0140 -0.3648
62119SOL    HW295326   6.918  10.690  12.558  0.0218 -0.1924  0.3576
62120SOL     OW95327   7.271  12.557  10.902  0.3331 -0.4193  0.1619
62120SOL    HW195328   7.273  12.472  10.856 -0.6107 -1.2813  1.6438
62120SOL    HW295329   7.191  12.599  10.871 -0.0126 -0.7594  0.5763
62121SOL     OW95330   8.172   2.275   1.034  0.4065 -0.3381 -0.1388
62121SOL    HW195331   8.087   2.277   0.991 -0.2813  0.6557  1.1602
62121SOL    HW295332   8.208   2.189   1.014 -0.2979 -0.2682 -1.8253
62122SOL     OW95333   6.071   1.102   7.992  0.6982 -0.1511 -0.4444
62122SOL    HW195334   6.131   1.077   8.063 -1.7353  1.2231  2.3010
62122SOL    HW295335   5.989   1.056   8.012 -0.0336  0.1035 -2.5549
62123SOL     OW95336   6.039   9.014   0.949 -0.0508  0.7180  0.5872
62123SOL    HW195337   5.980   9.078   0.908  0.5276  0.3742 -0.8552
62123SOL    HW295338   6.122   9.060   0.955 -0.2367  0.9241  1.8702
62124SOL     OW95339  11.574   4.164   4.469 -0.2232 -0.3098 -0.1230
62124SOL    HW195340  11.608   4.146   4.557 -2.2770  0.9062  0.9886
62124SOL    HW295341  11.485   4.129   4.469 -1.3867  2.3726 -0.6109
62125SOL     OW95342   8.180   4.651   3.778  0.0645 -0.6771  0.5192
62125SOL    HW195343   8.214   4.582   3.722 -0.2999  0.5279 -1.2496
62125SOL    HW295344   8.157   4.606   3.860 -0.3133 -2.6557 -0.6162
62126SOL     OW95345  10.048  11.373   9.930 -0.8504  0.9801  0.0948
62126SOL    HW195346  10.131  11.359   9.885  0.0342  1.6149  1.4726
62126SOL    HW295347   9.981  11.351   9.865  0.3719 -1.3680 -0.4847
62127SOL     OW95348   0.655   3.799   0.538 -0.0514 -0.4330 -0.5909
62127SOL    HW195349   0.747   3.814   0.561 -0.1101  2.1733 -1.7466
62127SOL    HW295350   0.657   3.765   0.449 -0.2036  0.5130 -0.9691
62128SOL     OW95351   9.801   9.601   5.736  0.2194  0.3542  0.0368
62128SOL    HW195352   9.735   9.582   5.804  0.5833 -1.1791 -0.0131
62128SOL    HW295353   9.805   9.521   5.684  0.2789  1.3532 -1.5443
62129SOL     OW95354   2.452   1.565   1.690  0.0370 -0.1840  0.7852
62129SOL    HW195355   2.539   1.556   1.729  1.2870  0.3231 -1.6740
62129SOL    HW295356   2.408   1.482   1.711  1.1053 -0.4649  2.0500
62130SOL     OW95357  10.989   5.734   8.517  0.0841  0.0457 -0.1407
62130SOL    HW195358  10.905   5.689   8.510  0.2106 -0.2787  0.3856
62130SOL    HW295359  10.978   5.814   8.466  0.0320 -0.8233 -1.5363
62131SOL     OW95360   5.026   5.988   4.536  0.0382 -0.0619  0.2455
62131SOL    HW195361   5.052   5.962   4.625 -0.1520  1.8287  0.8881
62131SOL    HW295362   5.091   5.948   4.479  0.8071 -0.3897  1.3268
62132SOL     OW95363  10.011   8.666   0.102 -0.3928 -0.1816  0.5891
62132SOL    HW195364  10.066   8.707   0.036 -0.0308  1.6967  1.9907
62132SOL    HW295365   9.981   8.585   0.060  1.3770 -0.0315 -1.1274
62133SOL     OW95366   3.953   3.654   0.779  0.6453  0.4811 -0.2859
62133SOL    HW195367   3.861   3.639   0.799  0.1145 -1.5797 -3.5212
62133SOL    HW295368   3.954   3.736   0.731  0.5528  0.6433 -0.0138
62134SOL     OW95369   4.277   4.847   7.932  0.0210  0.4389  0.0744
62134SOL    HW195370   4.281   4.931   7.978  0.0206  0.6898 -0.3766
62134SOL    HW295371   4.328   4.787   7.987  0.4567  0.8601  0.1352
62135SOL     OW95372   4.155   6.964  11.976 -0.0543  0.0549 -0.3867
62135SOL    HW195373   4.112   6.913  11.907 -0.7970 -0.4911  0.4640
62135SOL    HW295374   4.093   7.035  11.996 -1.6107 -1.8615  2.2410
62136SOL     OW95375   2.848   8.391   2.556  0.1555 -0.2694  0.2419
62136SOL    HW195376   2.806   8.309   2.532 -0.2287 -0.7944  2.4950
62136SOL    HW295377   2.863   8.384   2.651 -0.7295  2.5810  0.6960
62137SOL     OW95378  10.909   3.619   7.513  0.0888  0.2963  0.0231
62137SOL    HW195379  11.000   3.645   7.528 -0.6585  1.9776  2.0441
62137SOL    HW295380  10.905   3.527   7.541  1.5347 -0.4252 -1.9311
62138SOL     OW95381   1.084   0.916   5.888  0.5767  0.5338 -0.0296
62138SOL    HW195382   1.072   1.004   5.924  0.2373  0.9888 -1.2084
62138SOL    HW295383   1.009   0.903   5.831  0.1676 -0.8815  0.7886
62139SOL     OW95384   0.755   8.222  10.900  0.5354 -0.2820  0.6279
62139SOL    HW195385   0.771   8.286  10.969  1.8667  0.1450 -0.0334
62139SOL    HW295386   0.723   8.273  10.826 -0.0999 -0.6238  0.6618
62140SOL     OW95387   4.248  10.059   7.757 -0.3291 -0.2074 -0.4107
62140SOL    HW195388   4.261  10.020   7.844  1.7936 -1.3511 -1.1514
62140SOL    HW295389   4.153  10.068   7.748 -0.6435 -1.0703  1.5964
62141SOL     OW95390   3.580   0.207   1.243 -0.4630  0.3046  0.0231
62141SOL    HW195391   3.529   0.225   1.164 -1.1382  0.2770  0.4442
62141SOL    HW295392   3.562   0.282   1.300  0.2416  0.4618  0.0468
62142SOL     OW95393   3.817   8.698   2.493 -0.1273 -0.5222 -0.7309
62142SOL    HW195394   3.861   8.717   2.575  2.1922 -0.3210 -1.9541
62142SOL    HW295395   3.742   8.644   2.518 -0.3878  0.8088  1.6363
62143SOL     OW95396  10.685  10.386  11.739 -0.1805  0.1547 -0.4608
62143SOL    HW195397  10.700  10.328  11.664  0.3677 -0.6089  0.2073
62143SOL    HW295398  10.768  10.434  11.748 -0.6862  1.1653 -1.1028
62144SOL     OW95399   8.806   2.387  10.210  0.4754 -0.0359 -0.1998
62144SOL    HW195400   8.847   2.356  10.290  1.8361 -0.1809 -0.9250
62144SOL    HW295401   8.778   2.308  10.164  0.1999  0.0231 -0.1394
62145SOL     OW95402   7.177   4.971   6.682 -0.1108  0.0467  0.0622
62145SOL    HW195403   7.141   5.019   6.756 -1.9155  0.4972 -1.0324
62145SOL    HW295404   7.233   5.034   6.637  0.1036  0.1171  0.4289
62146SOL     OW95405   4.063   9.392   1.422  0.2036 -0.2092 -0.1764
62146SOL    HW195406   4.137   9.441   1.454  0.5162 -1.1012  0.5153
62146SOL    HW295407   4.052   9.420   1.331  2.0345 -0.8115 -0.6125
62147SOL     OW95408   7.005  10.474   5.592 -0.3053  0.7314  0.2682
62147SOL    HW195409   7.046  10.399   5.635 -1.7995 -0.3529 -0.1498
62147SOL    HW295410   6.916  10.476   5.626 -0.8018  1.2759 -0.9979
62148SOL     OW95411   6.550   4.871   1.332  0.5643  0.0443  0.2228
62148SOL    HW195412   6.560   4.899   1.242  0.8071 -0.5491  0.0585
62148SOL    HW295413   6.639   4.864   1.365  0.4907 -0.0436  0.4078
62149SOL     OW95414   6.884  11.404   0.708 -0.3170  0.6309  0.0922
62149SOL    HW195415   6.880  11.497   0.730 -0.5602  0.4573  0.8143
62149SOL    HW295416   6.862  11.359   0.790  1.9104 -0.1090  0.3626
62150SOL     OW95417   5.780   6.428  10.649  0.2099  0.1978  0.2244
62150SOL    HW195418   5.778   6.475  10.733  0.8985  1.1792 -0.2865
62150SOL    HW295419   5.706   6.462  10.601  0.9975  1.1696 -0.3401
62151SOL     OW95420   9.530  12.184   8.196 -0.4302  0.1527 -0.5643
62151SOL    HW195421   9.550  12.264   8.245 -1.1939  0.3201 -0.5152
62151SOL    HW295422   9.435  12.174   8.204 -0.4495 -0.2965 -1.2803
62152SOL     OW95423   2.909   5.238   8.995  0.3905 -0.0487 -0.1376
62152SOL    HW195424   2.852   5.288   8.936  0.6769 -0.0163 -0.3914
62152SOL    HW295425   2.939   5.302   9.060  0.1391 -0.0653 -0.0059
62153SOL     OW95426   9.004   4.394   0.227  0.1847  0.1380 -0.0207
62153SOL    HW195427   9.076   4.334   0.209  0.9898  0.7945  0.9279
62153SOL    HW295428   9.043   4.465   0.278 -1.2711  0.1801  1.1072
62154SOL     OW95429   1.535   1.579   7.692 -0.6516 -0.0039 -0.2527
62154SOL    HW195430   1.499   1.570   7.780 -2.3790 -1.3004 -1.0432
62154SOL    HW295431   1.531   1.491   7.655 -0.7921  0.6715 -1.9308
62155SOL     OW95432   2.917  10.949   8.701  0.4344  0.8063 -0.4366
62155SOL    HW195433   2.915  10.996   8.618 -0.8207  1.0644 -0.2742
62155SOL    HW295434   2.901  10.858   8.677  2.8515  0.3914 -0.7491
62156SOL     OW95435   0.575   1.632   3.550  0.3066 -0.3400 -0.0272
62156SOL    HW195436   0.541   1.697   3.611 -0.2353  0.4541 -1.1366
62156SOL    HW295437   0.586   1.553   3.603  2.0749  0.9315  1.6274
62157SOL     OW95438   6.178   9.839   5.908 -0.1762  0.5689  0.0392
62157SOL    HW195439   6.160   9.772   5.842 -0.5885  1.7145 -1.0487
62157SOL    HW295440   6.205   9.915   5.857  1.4205  0.8974  1.3143
62158SOL     OW95441   3.986   5.605  11.036  0.2261 -0.7953  0.4195
62158SOL    HW195442   4.077   5.621  11.010 -0.4076  0.5876 -1.1546
62158SOL    HW295443   3.942   5.688  11.018 -1.8643 -2.1736 -1.3456
62159SOL     OW95444  10.764   8.270  10.181  0.1288 -0.3112 -1.0041
62159SOL    HW195445  10.781   8.364  10.182  0.9407 -0.4080 -2.5408
62159SOL    HW295446  10.680   8.260  10.226 -0.2120  1.1998 -1.2584
62160SOL     OW95447   0.710   5.939   9.282 -0.0864 -0.0860 -0.4552
62160SOL    HW195448   0.674   6.001   9.218 -3.0482  1.3204  2.3132
62160SOL    HW295449   0.754   5.995   9.346  1.4380 -1.3358 -0.3506
62161SOL     OW95450   9.020   1.565   0.987  0.3857  0.3285  0.0091
62161SOL    HW195451   8.942   1.613   0.960  0.6304  0.2650 -0.8537
62161SOL    HW295452   8.997   1.527   1.071  0.0728  1.6960  0.5811
62162SOL     OW95453  12.413   6.879   1.832  0.1182 -0.1880 -0.7289
62162SOL    HW195454  12.372   6.964   1.817 -2.0401 -0.5826  2.0807
62162SOL    HW295455  12.341   6.823   1.862  2.1813 -1.8194  1.5253
62163SOL     OW95456   7.960   1.899   1.274 -0.2700  0.5956 -0.3555
62163SOL    HW195457   8.010   1.936   1.346  0.1609 -0.4389 -0.0952
62163SOL    HW295458   8.025   1.852   1.222 -0.9725 -0.8823  0.0528
62164SOL     OW95459   5.306   3.772   1.108 -0.0184 -0.8517 -0.6252
62164SOL    HW195460   5.350   3.695   1.072  1.4234 -0.5937  0.4655
62164SOL    HW295461   5.218   3.768   1.073  0.3285 -2.4397 -1.4175
62165SOL     OW95462   3.408   1.767   6.496  0.4138 -0.1184  0.0070
62165SOL    HW195463   3.375   1.700   6.556 -2.2897  1.7420  0.8433
62165SOL    HW295464   3.453   1.830   6.553 -0.8518  0.8933 -0.0558
62166SOL     OW95465   3.610   8.815   5.427  0.6925  0.6491 -0.1880
62166SOL    HW195466   3.702   8.832   5.445  0.3109  1.1649  1.3467
62166SOL    HW295467   3.591   8.733   5.472  0.4719  0.3752 -0.7662
62167SOL     OW95468   6.311   6.236   7.939  0.4408  0.2891  0.2681
62167SOL    HW195469   6.305   6.144   7.964 -2.7295  0.5006  0.6865
62167SOL    HW295470   6.256   6.243   7.861  1.4388  1.6936 -0.3572
62168SOL     OW95471   0.427   7.013   2.779 -0.0440 -0.2061 -0.1869
62168SOL    HW195472   0.401   6.951   2.847  0.2099 -1.0127 -0.8186
62168SOL    HW295473   0.501   7.061   2.817  1.1426 -1.7499 -0.4619
62169SOL     OW95474   6.561   7.578  10.847 -0.4540  0.1241  0.2888
62169SOL    HW195475   6.474   7.546  10.870 -0.5749 -0.2416 -0.6563
62169SOL    HW295476   6.565   7.666  10.886 -0.3794 -0.7178  2.2746
62170SOL     OW95477   2.648   9.637   5.227  0.1004  0.5524  0.2549
62170SOL    HW195478   2.646   9.708   5.290 -0.5779  0.4374  0.3773
62170SOL    HW295479   2.582   9.662   5.161 -2.2098 -1.2075  1.7214
62171SOL     OW95480   9.419   3.514  11.090  0.2208 -0.3217  0.4163
62171SOL    HW195481   9.344   3.472  11.132 -0.1040 -0.0437  0.1220
62171SOL    HW295482   9.413   3.486  10.999 -0.8149  1.4576 -0.1044
62172SOL     OW95483   3.744  11.968   3.598  0.0335 -0.6499  0.7480
62172SOL    HW195484   3.664  11.916   3.591 -0.1836 -0.2586  0.2383
62172SOL    HW295485   3.728  12.026   3.672 -0.9980  0.8345 -0.5797
62173SOL     OW95486   1.557   2.635  11.419  0.0556  0.2692  0.0375
62173SOL    HW195487   1.625   2.623  11.485 -0.3025 -0.9858  0.1901
62173SOL    HW295488   1.478   2.600  11.460 -0.3235  0.1585 -0.7857
62174SOL     OW95489   1.345   3.525   9.106 -0.6098 -0.0749 -0.4327
62174SOL    HW195490   1.256   3.558   9.118 -0.5063 -0.3065  1.2418
62174SOL    HW295491   1.356   3.461   9.176  0.4762 -0.9402 -1.3466
62175SOL     OW95492   8.045   0.986   0.045 -0.4988  0.0830  0.2683
62175SOL    HW195493   8.065   1.063   0.099 -0.4633  0.2655 -0.0012
62175SOL    HW295494   8.107   0.991  -0.027  0.4718 -0.9898  0.9878
62176SOL     OW95495   4.826   7.192   1.453  0.6275 -0.5161 -0.0309
62176SOL    HW195496   4.745   7.214   1.499 -0.2327 -2.7997 -0.3046
62176SOL    HW295497   4.797   7.137   1.380  2.3660 -0.7657 -0.5635
62177SOL     OW95498   2.849   2.274   3.425 -0.2894 -0.3118  0.6485
62177SOL    HW195499   2.934   2.315   3.439 -0.2265  0.8831 -2.6537
62177SOL    HW295500   2.788   2.346   3.415 -1.3385 -1.1341  0.9205
62178SOL     OW95501  10.121   0.469  11.005 -0.3805  0.1667 -0.5442
62178SOL    HW195502  10.164   0.548  11.037  0.4442 -1.6541  3.4346
62178SOL    HW295503  10.049   0.454  11.067 -0.1275 -2.5122 -0.7754
62179SOL     OW95504  11.965  10.726   1.578 -0.1700 -0.1028  0.0677
62179SOL    HW195505  11.945  10.814   1.609 -0.7929 -0.2603  0.1095
62179SOL    HW295506  11.917  10.667   1.636  0.8418 -0.5140  0.5246
62180SOL     OW95507   7.102   1.048   6.930  0.2660 -0.4077  0.0054
62180SOL    HW195508   7.018   1.084   6.959  0.8930 -0.3480  1.9025
62180SOL    HW295509   7.121   1.093   6.848 -0.9139  0.5674  0.2436
62181SOL     OW95510   0.622   2.255   2.370  0.1341  0.2409  0.2147
62181SOL    HW195511   0.616   2.292   2.282  0.7819 -1.7585 -0.7390
62181SOL    HW295512   0.682   2.181   2.361  0.3091  0.0547  2.3753
62182SOL     OW95513   7.592  11.995   4.732  0.2286  0.5146  0.0960
62182SOL    HW195514   7.680  12.005   4.694 -0.1725 -0.7355 -1.2433
62182SOL    HW295515   7.538  12.057   4.683 -0.2593 -0.9992 -1.3887
62183SOL     OW95516   0.971   5.617   7.033  0.1581 -0.0242  0.5273
62183SOL    HW195517   0.998   5.665   7.111 -1.9612  1.6562  0.3149
62183SOL    HW295518   1.010   5.664   6.960 -0.1634  0.0987  0.4326
62184SOL     OW95519  11.167   4.621   8.527 -0.2136 -0.2012  0.5315
62184SOL    HW195520  11.129   4.554   8.584  0.7601 -0.3527  1.0234
62184SOL    HW295521  11.260   4.622   8.550 -0.3990  2.2739  1.5635
62185SOL     OW95522   3.355  10.076   5.890 -0.2593 -0.1617 -0.3253
62185SOL    HW195523   3.309   9.994   5.911 -0.0008 -0.7871 -2.0064
62185SOL    HW295524   3.414  10.052   5.818  1.2827  1.0698  0.4628
62186SOL     OW95525   0.914   9.305   6.156 -0.3582  0.0989 -0.0127
62186SOL    HW195526   0.886   9.221   6.120  0.6240  0.1688 -0.9981
62186SOL    HW295527   0.942   9.285   6.245  1.4438 -0.9640 -0.7676
62187SOL     OW95528   8.142   4.790   2.950 -0.0285 -0.2547  0.3082
62187SOL    HW195529   8.221   4.816   2.996 -0.7574 -0.4479  1.7389
62187SOL    HW295530   8.082   4.762   3.019 -1.5329  0.3554 -0.6860
62188SOL     OW95531   4.743   2.985   8.224 -0.0598  0.5242 -0.1635
62188SOL    HW195532   4.687   3.036   8.165  1.2181  0.4451 -1.5270
62188SOL    HW295533   4.761   2.904   8.176 -0.0954 -0.1722  0.9492
62189SOL     OW95534  10.989   3.798   4.544 -0.4103 -0.1590  0.5240
62189SOL    HW195535  10.908   3.757   4.573 -0.2547 -1.2342 -0.4715
62189SOL    HW295536  10.966   3.889   4.526 -1.7002 -0.7233 -0.8895
62190SOL     OW95537   7.259   4.757   0.481 -0.0222 -0.0785 -0.0040
62190SOL    HW195538   7.319   4.685   0.462 -0.4236 -1.6245  3.8209
62190SOL    HW295539   7.314   4.829   0.510  0.2559  0.7246 -2.2884
62191SOL     OW95540  11.276   1.275  10.318  0.3390  0.0499 -0.7263
62191SOL    HW195541  11.327   1.202  10.283  0.3603  0.0258 -0.6430
62191SOL    HW295542  11.193   1.236  10.345  1.2260 -0.3744  1.5206
62192SOL     OW95543   6.953   4.253   0.341 -0.4853 -0.2277  0.2031
62192SOL    HW195544   7.046   4.238   0.361 -0.6014 -0.4261  0.5897
62192SOL    HW295545   6.931   4.185   0.277 -1.0056 -1.7504  1.9259
62193SOL     OW95546   6.948   6.723   9.147  0.4829 -0.4773 -0.1240
62193SOL    HW195547   6.854   6.738   9.154  0.5856 -0.2052  0.7802
62193SOL    HW295548   6.960   6.633   9.179  0.4330 -0.8446 -1.0977
62194SOL     OW95549  10.106   3.756   7.703 -0.4838  0.2688 -0.3018
62194SOL    HW195550  10.047   3.689   7.735  1.2438 -0.6211  1.2305
62194SOL    HW295551  10.107   3.744   7.608 -1.1920 -1.0159 -0.1608
62195SOL     OW95552   5.147   0.787   7.383 -0.1787  0.6226  0.6941
62195SOL    HW195553   5.057   0.754   7.377  0.0213 -0.3129  2.3612
62195SOL    HW295554   5.192   0.747   7.309 -0.6647 -0.4976  0.9844
62196SOL     OW95555  11.918   2.673   6.677 -0.0984 -0.4437  0.0629
62196SOL    HW195556  11.827   2.699   6.673  0.0055  0.2019  1.5242
62196SOL    HW295557  11.916   2.581   6.704 -0.2994  0.2246  2.5399
62197SOL     OW95558   4.524   2.120   8.387 -0.4162 -0.3516  0.0377
62197SOL    HW195559   4.457   2.188   8.393 -0.7722 -0.8027  1.7078
62197SOL    HW295560   4.482   2.041   8.419  0.5911 -0.8870  0.0921
62198SOL     OW95561  11.927  12.234   2.878 -0.0931 -0.1138  0.8201
62198SOL    HW195562  11.970  12.295   2.818 -0.3396  1.0038  1.7413
62198SOL    HW295563  11.833  12.249   2.862 -0.1818 -1.6272 -0.2801
62199SOL     OW95564  12.440  10.517   0.583 -0.7038 -0.5548 -0.8964
62199SOL    HW195565  12.494  10.457   0.634 -0.9117  0.1097  0.1486
62199SOL    HW295566  12.353  10.476   0.581 -0.4955 -0.9737 -1.4195
62200SOL     OW95567   7.791   4.644  10.950  0.2269 -0.3337  0.1705
62200SOL    HW195568   7.823   4.554  10.945 -1.1255 -0.7579 -1.8265
62200SOL    HW295569   7.720   4.641  11.014  0.3709 -0.6349  0.3165
62201SOL     OW95570   3.147  11.121   9.896 -0.3123  0.2579  0.3251
62201SOL    HW195571   3.217  11.155   9.841  0.4474  0.3569  1.3290
62201SOL    HW295572   3.077  11.187   9.889  0.2653  0.8960  0.4790
62202SOL     OW95573   2.539   8.190   4.256 -0.1518  0.0573  0.0655
62202SOL    HW195574   2.607   8.123   4.241 -0.3170 -0.0759 -0.0870
62202SOL    HW295575   2.587   8.265   4.291 -0.1857 -0.7817  2.0479
62203SOL     OW95576   5.377   3.410   5.530 -0.1163 -0.0925 -0.6975
62203SOL    HW195577   5.400   3.477   5.596 -0.8673  1.0867 -1.5934
62203SOL    HW295578   5.443   3.342   5.542 -0.7058 -0.3085  1.8220
62204SOL     OW95579   6.773  11.782   8.741  0.4413  0.1178 -0.4877
62204SOL    HW195580   6.843  11.846   8.727 -0.0114  0.4678 -1.2109
62204SOL    HW295581   6.813  11.698   8.717  0.9048  0.1857  0.0459
62205SOL     OW95582   3.169   9.039   7.467 -0.6879  0.4958  0.1514
62205SOL    HW195583   3.171   9.021   7.561  1.2525  1.7059  0.3805
62205SOL    HW295584   3.081   9.074   7.451 -1.4352 -0.7648  1.2610
62206SOL     OW95585   2.893   5.533   6.965  0.5527  0.0269  0.8941
62206SOL    HW195586   2.985   5.512   6.983  0.7159 -1.1802 -1.0622
62206SOL    HW295587   2.897   5.600   6.896 -0.0161 -0.7699  0.0649
62207SOL     OW95588   4.035   0.375   8.556  0.4466  0.5756  0.1014
62207SOL    HW195589   4.069   0.461   8.582  1.6686 -0.2856  1.5643
62207SOL    HW295590   4.087   0.313   8.607  0.0237 -1.0788 -1.3867
62208SOL     OW95591   4.200  12.492   1.447 -0.0442 -0.3866  0.0856
62208SOL    HW195592   4.112  12.513   1.415  0.6042  0.4991 -1.2010
62208SOL    HW295593   4.259  12.524   1.379  1.3165 -0.3855  1.2064
62209SOL     OW95594  12.162   6.016   9.142  0.2985  0.1897  0.2721
62209SOL    HW195595  12.201   6.003   9.056 -0.2340 -1.0579  0.1937
62209SOL    HW295596  12.195   5.943   9.195  0.6486  0.9599  1.1402
62210SOL     OW95597  11.455  10.468   6.339 -0.1262 -0.2474 -0.1262
62210SOL    HW195598  11.523  10.454   6.273 -0.5955 -2.4700 -0.2001
62210SOL    HW295599  11.415  10.383   6.351 -1.5147  0.5708  1.4740
62211SOL     OW95600   0.325   3.931  12.228 -0.3266  0.0400  0.3463
62211SOL    HW195601   0.263   3.991  12.269  0.2614  0.1686  1.0669
62211SOL    HW295602   0.405   3.983  12.217  0.6119 -0.9079  2.1430
62212SOL     OW95603   0.396   3.119   5.814 -0.6997  0.3226  0.6033
62212SOL    HW195604   0.336   3.057   5.854 -2.2619  0.1250 -1.8047
62212SOL    HW295605   0.465   3.132   5.879 -0.9610 -2.9434  1.7218
62213SOL     OW95606   9.633   7.433   9.232 -0.6475  0.2607  0.4814
62213SOL    HW195607   9.573   7.450   9.305  0.0083  0.1757  1.0460
62213SOL    HW295608   9.576   7.432   9.155 -1.2082  1.4657  0.8448
62214SOL     OW95609   7.210   0.279   4.491  0.3215 -0.0068 -0.2019
62214SOL    HW195610   7.236   0.196   4.452  2.0400 -0.4125  1.6626
62214SOL    HW295611   7.184   0.257   4.580  1.4636  1.5274  0.5502
62215SOL     OW95612   1.578   5.085   1.731  0.2839  0.1134  0.0580
62215SOL    HW195613   1.622   5.113   1.651 -0.1335  1.5735  0.3147
62215SOL    HW295614   1.646   5.088   1.799  0.8961 -2.0949 -0.3777
62216SOL     OW95615   0.247  12.477   9.398  0.4276 -0.2952  0.4077
62216SOL    HW195616   0.241  12.442   9.309 -0.7382 -0.3727  0.4958
62216SOL    HW295617   0.242  12.400   9.455 -1.7886 -0.0900  0.5911
62217SOL     OW95618   5.151   2.184   6.512  0.5012 -0.5902 -0.0849
62217SOL    HW195619   5.171   2.276   6.500 -0.0204 -0.5378 -0.5759
62217SOL    HW295620   5.236   2.143   6.527  0.6528  0.0965  1.0567
62218SOL     OW95621   7.642   3.452   6.580 -0.1540 -0.6428 -0.3784
62218SOL    HW195622   7.552   3.422   6.567 -0.4009 -0.0519 -0.0597
62218SOL    HW295623   7.678   3.391   6.644 -0.8383  0.0706  0.7084
62219SOL     OW95624   0.210  10.930   9.218  0.0313 -0.0543  0.3498
62219SOL    HW195625   0.142  10.930   9.286  0.5538  0.6205  0.8901
62219SOL    HW295626   0.272  10.863   9.246  1.3611  1.6469  1.7330
62220SOL     OW95627   2.389   3.969   9.624 -0.0555  0.4954 -0.2326
62220SOL    HW195628   2.431   3.923   9.696  0.7429  0.1936 -0.8823
62220SOL    HW295629   2.323   4.024   9.666  0.8835  0.8671  0.7788
62221SOL     OW95630   3.590   1.811  11.255  0.0108  0.3851 -0.1478
62221SOL    HW195631   3.539   1.750  11.308 -2.1574  3.1686  1.2220
62221SOL    HW295632   3.660   1.840  11.314  0.1144  0.3495 -0.2546
62222SOL     OW95633   7.999   7.416  11.375  0.1225  0.0375  0.4808
62222SOL    HW195634   8.085   7.375  11.362  0.1853  0.0843  0.7398
62222SOL    HW295635   7.936   7.347  11.355  0.1991  0.3696 -0.9846
62223SOL     OW95636   8.908   8.012  12.309  0.1482 -0.0024 -0.0610
62223SOL    HW195637   8.832   7.968  12.346  0.9023 -0.9032  0.4556
62223SOL    HW295638   8.881   8.034  12.220  0.2441 -2.9883 -0.9456
62224SOL     OW95639   5.609   6.918   3.735  0.5848 -0.5118  0.0016
62224SOL    HW195640   5.630   6.937   3.826  0.6138  0.3733 -0.1821
62224SOL    HW295641   5.582   7.002   3.698 -3.8142 -1.5227  0.2976
62225SOL     OW95642   5.062  11.077   4.410 -0.3896  0.2163 -0.1945
62225SOL    HW195643   5.095  11.021   4.480  0.8408 -0.0362 -0.9326
62225SOL    HW295644   4.973  11.101   4.437  0.2097  0.5165  1.6630
62226SOL     OW95645   9.542   2.224   6.444  0.5589 -0.1849 -0.4648
62226SOL    HW195646   9.499   2.308   6.428  0.4209  0.1200  1.3372
62226SOL    HW295647   9.470   2.161   6.448  0.6507 -0.3855 -1.6565
62227SOL     OW95648  10.123   8.574   1.242 -0.0875  0.1166 -0.5653
62227SOL    HW195649  10.133   8.644   1.306  0.6023  0.3182 -0.8808
62227SOL    HW295650  10.035   8.539   1.258 -0.1751  0.5943  0.0480
62228SOL     OW95651  11.179  10.633   8.077 -0.1399 -1.0092 -0.5198
62228SOL    HW195652  11.269  10.613   8.102 -0.1793  0.1481  0.6844
62228SOL    HW295653  11.126  10.605   8.151 -0.5034  0.4969 -0.1751
62229SOL     OW95654   6.624   9.538   5.487  0.0787 -0.1247 -0.1791
62229SOL    HW195655   6.550   9.574   5.437 -1.3503 -0.3009  1.7185
62229SOL    HW295656   6.656   9.465   5.433 -1.0372  0.0319 -1.0983
62230SOL     OW95657   1.783   8.257  10.806 -0.5354  0.0224  0.2139
62230SOL    HW195658   1.835   8.218  10.736 -0.5575 -2.1941  1.3649
62230SOL    HW295659   1.823   8.226  10.887 -1.2274  1.5609  1.2131
62231SOL     OW95660  10.983   1.242   0.805  0.7464 -0.2200 -0.1385
62231SOL    HW195661  10.996   1.182   0.732  3.6913  0.9004 -0.6816
62231SOL    HW295662  10.953   1.323   0.765  1.5537  0.1402 -0.0297
62232SOL     OW95663   4.103  11.038   0.210  0.4091 -0.0165  0.1490
62232SOL    HW195664   4.093  11.000   0.297 -1.5416  2.9488  1.3718
62232SOL    HW295665   4.020  11.020   0.166 -0.3386  2.1558  0.5586
62233SOL     OW95666   5.937   5.603   0.850 -0.9862  0.4709  0.3781
62233SOL    HW195667   5.963   5.525   0.899 -2.1177 -0.1397  0.0357
62233SOL    HW295668   5.988   5.598   0.769  1.0483  1.5926  1.5129
62234SOL     OW95669   3.338   3.241   4.923 -0.0324  0.0952  0.1107
62234SOL    HW195670   3.322   3.287   4.840  0.9049  2.0989  0.9694
62234SOL    HW295671   3.271   3.276   4.982  0.2960 -0.1381  0.6172
62235SOL     OW95672  12.411   4.231   1.441 -0.4565  0.1621  0.4430
62235SOL    HW195673  12.365   4.213   1.522 -0.4652  0.6209  0.5445
62235SOL    HW295674  12.504   4.225   1.464 -0.4583 -0.2357  0.3603
62236SOL     OW95675   5.442   1.771   5.815 -0.0919 -0.4449 -0.0955
62236SOL    HW195676   5.354   1.739   5.837  0.2420 -2.2883 -1.1957
62236SOL    HW295677   5.499   1.695   5.830  1.3346  0.7130  0.5869
62237SOL     OW95678   1.880   0.335   4.269 -0.5535  0.3726  0.1731
62237SOL    HW195679   1.847   0.424   4.257 -2.3484 -0.4759 -1.9385
62237SOL    HW295680   1.944   0.323   4.199 -0.4516 -0.0430  0.3346
62238SOL     OW95681  10.624   8.281   7.599 -0.5054 -0.4838  0.0501
62238SOL    HW195682  10.580   8.210   7.552 -1.2298 -0.3167  0.4512
62238SOL    HW295683  10.712   8.284   7.561 -0.1536 -2.1649  0.6110
62239SOL     OW95684   1.835   1.252  12.038 -0.2793 -0.0459  0.1078
62239SOL    HW195685   1.891   1.182  12.004 -2.7026 -0.8398 -2.6306
62239SOL    HW295686   1.877   1.333  12.008  0.1014 -0.5562 -0.7825
62240SOL     OW95687   9.604   8.983   6.321 -0.1752  0.4144 -0.3765
62240SOL    HW195688   9.624   8.970   6.228 -0.4845 -0.2154 -0.3616
62240SOL    HW295689   9.614   9.077   6.335  1.3505  0.3165 -0.6980
62241SOL     OW95690  11.312   9.946   0.900  0.3094 -0.5457 -0.6113
62241SOL    HW195691  11.380   9.927   0.965 -0.8852  0.4663  1.0131
62241SOL    HW295692  11.280   9.860   0.873  0.0711 -1.0107  1.0295
62242SOL     OW95693   1.903   3.755  12.225  0.2539  0.0452  0.5672
62242SOL    HW195694   1.901   3.685  12.159 -1.0424  0.6723 -0.1026
62242SOL    HW295695   1.982   3.805  12.205 -1.5710  2.0314 -2.5418
62243SOL     OW95696   6.709   4.519   3.715  0.1293 -0.7054  0.3571
62243SOL    HW195697   6.692   4.606   3.750  0.4917  0.4208 -2.0357
62243SOL    HW295698   6.663   4.459   3.774  0.3771  1.0235  2.4160
62244SOL     OW95699   7.392  11.476   0.727 -0.0531  1.1697 -0.2327
62244SOL    HW195700   7.403  11.467   0.822 -0.3371 -0.4011 -0.3226
62244SOL    HW295701   7.385  11.570   0.713  0.0645  1.4382  1.2990
62245SOL     OW95702   9.600   6.895   9.766 -0.4203  0.4882  0.3039
62245SOL    HW195703   9.626   6.986   9.780 -1.9469  0.7946  1.3651
62245SOL    HW295704   9.533   6.900   9.698 -0.8721  0.2268  0.7250
62246SOL     OW95705   0.454   2.525   0.459  0.1008 -0.5222  0.2566
62246SOL    HW195706   0.496   2.611   0.455  0.2913 -0.5517  1.2705
62246SOL    HW295707   0.455   2.502   0.552 -0.5586 -1.3225  0.0815
62247SOL     OW95708   6.497   7.192   1.817 -0.0103 -0.1853  0.0377
62247SOL    HW195709   6.475   7.212   1.726  0.0229  0.2173  0.1135
62247SOL    HW295710   6.437   7.122   1.842 -0.1255 -0.1897 -0.2445
62248SOL     OW95711   3.840   3.751  11.679 -0.3543 -0.4737  0.5272
62248SOL    HW195712   3.775   3.811  11.642  0.6037  0.5193  0.4045
62248SOL    HW295713   3.788   3.683  11.722 -1.5238  1.3649  2.1958
62249SOL     OW95714   1.573  11.359   6.116 -0.2082  0.1778  0.0515
62249SOL    HW195715   1.489  11.400   6.093 -0.0134  0.7498  0.3257
62249SOL    HW295716   1.550  11.293   6.181 -0.6873 -1.0643 -1.3295
62250SOL     OW95717   2.425   0.509   7.687 -0.0589 -0.5197 -0.5212
62250SOL    HW195718   2.509   0.478   7.653  0.3341  0.4656 -0.4677
62250SOL    HW295719   2.386   0.558   7.615 -0.3278 -0.4905 -0.3563
62251SOL     OW95720   5.109  10.933  11.866  0.0761  0.3899  0.3935
62251SOL    HW195721   5.043  11.002  11.872  0.3155  0.6274  0.2920
62251SOL    HW295722   5.189  10.978  11.840 -0.3741 -0.2789 -2.4027
62252SOL     OW95723   0.860   5.680   7.439 -0.0351  0.2284  0.3041
62252SOL    HW195724   0.940   5.628   7.449 -0.2266  0.1607  1.7868
62252SOL    HW295725   0.890   5.771   7.440 -0.0402  0.2553  2.2383
62253SOL     OW95726   2.251   8.441   7.160  0.3469  0.5216 -0.3443
62253SOL    HW195727   2.214   8.460   7.074  1.1989 -0.9628 -1.0739
62253SOL    HW295728   2.217   8.355   7.183  1.0868  0.3775  0.2670
62254SOL     OW95729   4.442   2.459   0.758  0.0180 -0.0965 -0.0005
62254SOL    HW195730   4.425   2.463   0.664  0.2382  0.4785 -0.0218
62254SOL    HW295731   4.419   2.546   0.790  1.7174  0.3470  0.1540
62255SOL     OW95732   4.506  11.725   5.994 -0.2137 -0.6539  0.0885
62255SOL    HW195733   4.447  11.741   5.921  0.3449 -0.4991 -0.3355
62255SOL    HW295734   4.516  11.810   6.037  0.2328 -0.5311 -0.2498
62256SOL     OW95735   1.737  11.757   0.949 -0.1217  0.2637 -0.4905
62256SOL    HW195736   1.690  11.832   0.912 -1.3017 -1.1993 -2.1667
62256SOL    HW295737   1.674  11.685   0.944  1.3952 -1.1459 -0.1679
62257SOL     OW95738   5.444   6.103   0.197  0.2239 -0.3215  0.0147
62257SOL    HW195739   5.495   6.116   0.277  0.2096 -0.3813  0.0337
62257SOL    HW295740   5.509   6.076   0.131  1.0713  4.0698 -1.2448
62258SOL     OW95741  11.238   9.385   5.262 -0.3923  0.2479 -0.5079
62258SOL    HW195742  11.203   9.472   5.244 -0.7593 -0.1743 -1.8905
62258SOL    HW295743  11.322   9.383   5.216 -1.0659 -0.6378 -1.7382
62259SOL     OW95744   9.307   7.489   8.018 -0.1549  0.0574  0.2473
62259SOL    HW195745   9.307   7.527   7.931  0.1962  0.4403  0.4132
62259SOL    HW295746   9.273   7.400   8.005 -1.7223  0.6712 -0.0207
62260SOL     OW95747   2.071   9.415  10.744  0.0178 -0.6013 -0.3902
62260SOL    HW195748   2.147   9.421  10.801 -2.1412  1.7654  2.5905
62260SOL    HW295749   2.027   9.334  10.770 -0.0445 -0.4185  0.0844
62261SOL     OW95750   2.863   7.945   1.708 -0.5179  0.0878  0.2525
62261SOL    HW195751   2.894   8.004   1.640 -2.0820  1.4982  0.7060
62261SOL    HW295752   2.839   7.865   1.660  1.3196 -0.1177 -0.4023
62262SOL     OW95753   2.190   4.875  12.413 -0.0783 -0.3205  0.0900
62262SOL    HW195754   2.102   4.872  12.377 -0.2846  1.0999  0.4006
62262SOL    HW295755   2.178   4.859  12.507  0.3243 -2.8350 -0.2320
62263SOL     OW95756  12.592   6.981   2.082 -0.5763  0.6262  0.4411
62263SOL    HW195757  12.586   6.911   2.147  2.4057 -0.1361  0.0265
62263SOL    HW295758  12.550   6.945   2.004 -0.8197  0.0886  0.8151
62264SOL     OW95759   9.819  10.803   4.443  0.1552 -0.0496  0.2404
62264SOL    HW195760   9.800  10.800   4.536 -0.0419 -0.0669  0.1996
62264SOL    HW295761   9.911  10.778   4.436  0.4420  0.8702  0.5197
62265SOL     OW95762  11.775   8.989   9.135  0.6679 -0.6961 -0.8257
62265SOL    HW195763  11.858   8.941   9.136  1.6470  0.9207 -0.5443
62265SOL    HW295764  11.777   9.039   9.053 -0.0313 -0.6666 -0.8278
62266SOL     OW95765   1.474   9.499   0.789  0.1482 -0.1360  0.5046
62266SOL    HW195766   1.423   9.515   0.709 -0.7951 -0.3832  1.0330
62266SOL    HW295767   1.560   9.473   0.758  0.1632  0.9509 -0.4176
62267SOL     OW95768   4.886   6.410   3.722 -0.2619 -0.3336  0.7509
62267SOL    HW195769   4.852   6.370   3.642  0.3464  0.4234  0.0921
62267SOL    HW295770   4.973   6.373   3.733  0.6972  1.4435 -0.4002
62268SOL     OW95771   1.119   1.977   2.243  0.1859 -0.4969 -0.2247
62268SOL    HW195772   1.053   1.996   2.310  1.9092  2.4166  0.8401
62268SOL    HW295773   1.193   1.942   2.292  0.7881 -0.1342 -0.8608
62269SOL     OW95774   5.937  11.843   8.702  0.0446 -0.2511  0.0839
62269SOL    HW195775   5.896  11.800   8.626  0.8272 -0.4743 -0.2249
62269SOL    HW295776   6.028  11.857   8.675  0.0551  0.6786  0.5741
62270SOL     OW95777   1.136   0.876   4.153  0.2452  0.2563  0.2759
62270SOL    HW195778   1.090   0.834   4.079 -0.7049  0.6155  0.6527
62270SOL    HW295779   1.223   0.896   4.118 -0.1016  0.1816 -0.6679
62271SOL     OW95780   7.488   2.794   9.033 -0.6181  0.2724 -0.1597
62271SOL    HW195781   7.434   2.870   9.011  0.1168  0.6145 -0.7998
62271SOL    HW295782   7.464   2.773   9.123  0.1346  2.0965  0.5045
62272SOL     OW95783  11.391   3.365   8.022  0.1932 -0.0441 -0.4660
62272SOL    HW195784  11.400   3.342   8.115  1.5919 -0.3723 -0.6589
62272SOL    HW295785  11.375   3.459   8.022 -0.8327 -0.2012  0.1397
62273SOL     OW95786   0.139   7.791   3.632  0.4957 -0.3584  0.4396
62273SOL    HW195787   0.056   7.780   3.586  1.4367 -0.4512 -1.2957
62273SOL    HW295788   0.121   7.760   3.721 -1.7836  1.2854  0.6299
62274SOL     OW95789   8.335   9.884   6.926  0.5315  0.4890 -0.0668
62274SOL    HW195790   8.409   9.873   6.866 -1.0750  0.4881 -2.1329
62274SOL    HW295791   8.321   9.796   6.962  0.2213  0.0165 -1.2951
62275SOL     OW95792   7.872   1.615   3.617  0.5332 -0.2877 -0.1922
62275SOL    HW195793   7.824   1.533   3.625  1.7763 -1.1604 -1.3077
62275SOL    HW295794   7.907   1.631   3.705  2.1267 -2.1423 -0.4369
62276SOL     OW95795   9.904   8.143   2.630  0.1661  0.5834  0.1844
62276SOL    HW195796   9.828   8.142   2.687 -0.3960 -2.0982 -0.4976
62276SOL    HW295797   9.874   8.189   2.551  0.0300  1.6330  0.8293
62277SOL     OW95798   1.949  12.472  10.125  0.0549  0.1051  0.1847
62277SOL    HW195799   1.914  12.530  10.057  0.9235  0.2429 -0.1492
62277SOL    HW295800   1.874  12.455  10.182 -1.4619 -2.0684 -2.1739
62278SOL     OW95801   7.531   3.291   4.246 -0.2385  0.0619  0.7628
62278SOL    HW195802   7.623   3.277   4.225 -0.7034 -0.0136 -1.4428
62278SOL    HW295803   7.513   3.231   4.319  1.0133 -1.2681  0.0263
62279SOL     OW95804   9.403  11.840  11.376 -0.5613  0.0666  0.1929
62279SOL    HW195805   9.443  11.780  11.313  0.7203  0.8435  0.2311
62279SOL    HW295806   9.317  11.861  11.338 -0.5908 -0.9536 -0.3319
62280SOL     OW95807   8.548   5.514  12.039  0.2023 -0.2163  0.2212
62280SOL    HW195808   8.522   5.553  11.955 -0.2979 -0.8859  0.0498
62280SOL    HW295809   8.470   5.467  12.068  0.2636  0.2817  1.2349
62281SOL     OW95810   7.122   9.427   4.319  0.1745 -0.3399  0.0020
62281SOL    HW195811   7.199   9.481   4.299 -0.2016  1.2776  2.5100
62281SOL    HW295812   7.047   9.482   4.296 -0.2190  0.5390  2.9637
62282SOL     OW95813   5.231   1.585   4.379 -0.3738 -0.0015  0.7103
62282SOL    HW195814   5.289   1.536   4.321 -1.7297  0.6021 -1.2347
62282SOL    HW295815   5.224   1.530   4.458 -0.5118 -2.1112 -0.6980
62283SOL     OW95816   1.736   0.303  11.172  0.2008  0.1184 -0.1102
62283SOL    HW195817   1.822   0.269  11.145  0.3622  0.8146 -0.4782
62283SOL    HW295818   1.755   0.391  11.206 -0.2359 -0.0859  0.6813
62284SOL     OW95819   0.763  11.605   4.264  0.3374  0.3481  0.2905
62284SOL    HW195820   0.735  11.645   4.347  0.0749 -0.9331  0.8458
62284SOL    HW295821   0.683  11.566   4.228  0.2217  1.7865 -1.1233
62285SOL     OW95822   4.412   9.361  11.517  0.4509  0.0759  0.1224
62285SOL    HW195823   4.415   9.457  11.515 -1.1403  0.1770  0.8168
62285SOL    HW295824   4.450   9.338  11.602 -0.1816  0.1899  0.4516
62286SOL     OW95825   5.898   6.645   3.321 -0.6172  0.1735  0.6846
62286SOL    HW195826   5.892   6.675   3.231  1.2790 -1.6289 -0.1117
62286SOL    HW295827   5.922   6.723   3.371  1.7398  0.5954 -0.9376
62287SOL     OW95828   6.070  11.586   7.804 -0.0463 -0.3002  1.1839
62287SOL    HW195829   6.028  11.548   7.881  2.2826 -2.3123  1.5564
62287SOL    HW295830   6.146  11.632   7.838  0.2889 -0.0864  0.1778
62288SOL     OW95831   3.580   4.719   8.249  0.5998  0.4260 -0.3738
62288SOL    HW195832   3.630   4.694   8.172  2.3951  1.6693  0.2987
62288SOL    HW295833   3.617   4.666   8.320  1.4457  1.7571  0.2372
62289SOL     OW95834   1.650   9.446   8.956 -0.0350  0.4793  0.1396
62289SOL    HW195835   1.582   9.452   8.888  0.3508 -1.2179 -0.4486
62289SOL    HW295836   1.617   9.379   9.017  1.6731 -1.4462 -0.9222
62290SOL     OW95837   7.462   7.382   7.062 -0.0819  0.0580 -0.3101
62290SOL    HW195838   7.472   7.400   7.156  0.0603  1.6283 -0.6017
62290SOL    HW295839   7.484   7.289   7.053  4.8642  0.8831  0.5377
62291SOL     OW95840  10.031   2.107   5.494  0.0031  0.1384  0.2809
62291SOL    HW195841  10.119   2.098   5.458 -0.9117  1.5954 -2.6237
62291SOL    HW295842   9.974   2.119   5.418 -2.4581  1.2701  2.1209
62292SOL     OW95843   9.766   5.746   8.589 -1.0131  0.1753 -0.7312
62292SOL    HW195844   9.718   5.685   8.645 -0.4579  0.3323 -0.0691
62292SOL    HW295845   9.723   5.831   8.603 -1.2236  0.1099 -0.9725
62293SOL     OW95846   1.755   3.312   3.076 -0.6294  0.1657 -0.1143
62293SOL    HW195847   1.670   3.286   3.040 -0.6492 -0.8355  0.6199
62293SOL    HW295848   1.761   3.406   3.056 -1.3612 -0.0033 -1.2423
62294SOL     OW95849   5.425   4.281   4.838 -0.3296  0.6746 -0.3342
62294SOL    HW195850   5.342   4.285   4.885 -1.3828 -2.1523 -1.6897
62294SOL    HW295851   5.406   4.320   4.753 -0.0319  0.7513 -0.3659
62295SOL     OW95852   7.052   7.354   0.330 -0.3059  0.5806  0.2643
62295SOL    HW195853   7.005   7.289   0.383 -0.4789  1.2707  0.9684
62295SOL    HW295854   7.052   7.317   0.242 -0.0233 -0.5903  0.7376
62296SOL     OW95855  11.997  12.385   4.341 -0.1453  0.1034 -0.4110
62296SOL    HW195856  12.045  12.465   4.363 -0.6936  0.0270  1.1682
62296SOL    HW295857  11.915  12.415   4.303 -0.6411  0.3229  0.8040
62297SOL     OW95858   4.788  12.486   8.296 -0.0768 -0.7983 -0.4526
62297SOL    HW195859   4.726  12.530   8.238  0.2112  0.0715 -0.1202
62297SOL    HW295860   4.775  12.393   8.279  0.4833 -0.5678 -2.4405
62298SOL     OW95861  12.272   1.707   6.168  0.4036 -0.6166 -0.1647
62298SOL    HW195862  12.240   1.759   6.094 -1.0640 -0.9915  0.1654
62298SOL    HW295863  12.337   1.762   6.210  0.0669  0.2747 -0.7745
62299SOL     OW95864   1.601  11.614   5.497  0.0854  0.1101  0.4303
62299SOL    HW195865   1.604  11.530   5.452  1.7360  0.3242  0.1035
62299SOL    HW295866   1.584  11.678   5.428 -1.2831  0.0600  0.6943
62300SOL     OW95867   0.649   1.070  12.554  0.3055 -0.1532 -0.8204
62300SOL    HW195868   0.732   1.049  12.511  0.6323 -0.3472 -0.1092
62300SOL    HW295869   0.674   1.121  12.631 -0.2582  0.0250 -0.7501
62301SOL     OW95870  10.482  10.155   9.315  0.7923  0.4639 -0.0424
62301SOL    HW195871  10.473  10.206   9.395 -0.6778  0.9343 -0.4704
62301SOL    HW295872  10.393  10.150   9.280  1.3971  0.2797 -1.6360
62302SOL     OW95873   6.224   9.130   3.319  0.0788 -0.0135  0.0774
62302SOL    HW195874   6.209   9.160   3.409  0.6071 -0.3311  0.2775
62302SOL    HW295875   6.169   9.052   3.310 -0.0063  0.0425  0.1052
62303SOL     OW95876   5.892  11.807   0.592 -0.0170 -0.4109 -0.0445
62303SOL    HW195877   5.927  11.729   0.550 -0.0608 -1.0335  1.0470
62303SOL    HW295878   5.879  11.869   0.520 -0.6620 -1.6499 -1.0254
62304SOL     OW95879  12.233   6.115   6.071  0.3158  0.3231 -0.0557
62304SOL    HW195880  12.228   6.206   6.041 -0.9409  1.7782  3.9367
62304SOL    HW295881  12.152   6.075   6.039 -0.7694  1.6574  0.8802
62305SOL     OW95882   1.720   1.530   0.714  0.1110  0.3779  0.1591
62305SOL    HW195883   1.733   1.435   0.715  0.6865  0.3565 -2.1101
62305SOL    HW295884   1.648   1.546   0.775 -0.7917 -1.6787 -0.2843
62306SOL     OW95885   6.291   2.029   5.018 -0.3415 -0.0159  0.1959
62306SOL    HW195886   6.354   1.971   4.975  1.0934  0.3830  1.6537
62306SOL    HW295887   6.251   2.078   4.946  1.0530 -0.2519 -0.7907
62307SOL     OW95888   2.456   2.547   6.593  0.3789  0.1112 -0.0158
62307SOL    HW195889   2.392   2.580   6.656  1.4106 -0.2769  1.3070
62307SOL    HW295890   2.421   2.570   6.507 -1.8003 -0.6016  0.6289
62308SOL     OW95891   4.094   5.305  10.108 -0.7253  0.0995  0.1484
62308SOL    HW195892   4.059   5.222  10.077 -1.2576 -1.1868  3.7485
62308SOL    HW295893   4.052   5.371  10.053 -1.5017 -1.8781 -1.7722
62309SOL     OW95894   0.974   8.024   1.910 -0.4189 -0.0542 -0.0209
62309SOL    HW195895   0.886   8.041   1.944  0.2589 -0.5699  2.1628
62309SOL    HW295896   1.000   7.941   1.950  1.1364  0.1979 -0.4494
62310SOL     OW95897  11.415   2.949  10.555  0.1803 -0.0314 -0.0561
62310SOL    HW195898  11.357   2.873  10.558  1.2286 -0.8217  0.8959
62310SOL    HW295899  11.374   3.007  10.491 -1.5537 -0.6328  0.4463
62311SOL     OW95900  12.254   0.603   4.574  0.0803 -0.2884 -0.3863
62311SOL    HW195901  12.188   0.537   4.551 -0.2550  0.0968 -0.5434
62311SOL    HW295902  12.265   0.592   4.669 -1.4319  0.7223 -0.0557
62312SOL     OW95903   3.796   2.898   4.869 -0.1799 -0.0213 -0.1054
62312SOL    HW195904   3.802   2.913   4.774 -0.4695 -2.4236 -0.5838
62312SOL    HW295905   3.715   2.940   4.896  0.0692  0.9653 -0.8485
62313SOL     OW95906  10.496   1.068   0.975 -0.0738  0.4059  0.1005
62313SOL    HW195907  10.496   0.972   0.967 -0.0852  0.4047  0.1157
62313SOL    HW295908  10.582   1.094   0.942  0.4058  0.2973  1.2269
62314SOL     OW95909   7.885   7.564  10.341  0.0671  0.3130  0.4935
62314SOL    HW195910   7.847   7.623  10.276  0.5313  0.0979  0.0178
62314SOL    HW295911   7.810   7.515  10.376 -0.1179 -0.0802 -0.4043
62315SOL     OW95912   8.652   5.695   8.802  0.0583  0.2224 -0.4710
62315SOL    HW195913   8.648   5.782   8.842  1.2440  0.7644 -1.4616
62315SOL    HW295914   8.561   5.674   8.782 -0.4699  0.2965  1.6772
62316SOL     OW95915   8.274   8.580   7.609 -0.6684  0.3653 -0.2861
62316SOL    HW195916   8.208   8.648   7.597  0.3219  1.3851 -0.1844
62316SOL    HW295917   8.351   8.613   7.562 -0.0610 -0.5260  0.0603
62317SOL     OW95918   9.975   4.577   2.017 -0.1991  0.2394  0.6759
62317SOL    HW195919   9.952   4.542   1.931 -0.1327  1.2196  0.2485
62317SOL    HW295920   9.930   4.520   2.080 -1.2108  0.2264 -0.0406
62318SOL     OW95921   6.671   1.952   1.700 -0.5450 -0.1015 -0.3093
62318SOL    HW195922   6.599   1.889   1.692 -1.7269  1.4477 -4.5533
62318SOL    HW295923   6.748   1.904   1.672 -0.4190 -0.9862  1.4624
62319SOL     OW95924   1.701   5.462  11.348  0.0338 -0.3788 -0.1619
62319SOL    HW195925   1.617   5.417  11.354 -1.6052  2.3201 -1.2127
62319SOL    HW295926   1.742   5.447  11.434 -1.5341 -1.7113  0.4023
62320SOL     OW95927  11.601  11.434   7.891 -0.0239  0.7154 -0.1793
62320SOL    HW195928  11.643  11.510   7.931  0.3214  1.0368 -1.1185
62320SOL    HW295929  11.515  11.430   7.933  0.7115  0.3824  1.3541
62321SOL     OW95930   2.641   1.573  10.703 -0.1127  0.2303 -0.0723
62321SOL    HW195931   2.648   1.667  10.720  0.2821  0.3456 -0.8528
62321SOL    HW295932   2.578   1.566  10.631  0.4052 -0.0479 -0.5067
62322SOL     OW95933   9.640  12.530  10.353  0.0354 -0.3337 -0.0607
62322SOL    HW195934   9.653  12.577  10.270 -0.0248 -0.7571 -0.3140
62322SOL    HW295935   9.640  12.599  10.420 -2.1441  0.2657 -0.5994
62323SOL     OW95936  11.361   7.538   9.534 -0.3062 -0.2347 -0.4435
62323SOL    HW195937  11.287   7.483   9.510  0.0028 -1.5736  1.4392
62323SOL    HW295938  11.436   7.497   9.492 -0.1511 -0.9929  0.5404
62324SOL     OW95939   8.060   2.599  12.182 -0.2903  0.0327  0.1679
62324SOL    HW195940   8.073   2.505  12.168 -1.8522 -0.0875 -0.6818
62324SOL    HW295941   8.139   2.639  12.146  0.1922 -0.9272  0.1201
62325SOL     OW95942   3.991   4.141  10.011 -0.1121  0.0397  0.1413
62325SOL    HW195943   3.896   4.141  10.022 -0.2390  1.3715 -0.6865
62325SOL    HW295944   4.006   4.096   9.928 -0.1515  1.1010 -0.4573
62326SOL     OW95945  11.865  11.086   2.927 -0.3096  0.7337  0.1750
62326SOL    HW195946  11.807  11.043   2.864 -0.0657  1.6443 -0.6903
62326SOL    HW295947  11.854  11.036   3.008 -1.9107  0.5681 -0.1133
62327SOL     OW95948  10.065   0.222   3.170  0.4797  0.0154 -0.2994
62327SOL    HW195949  10.025   0.148   3.217 -1.4941  0.5044 -1.1106
62327SOL    HW295950  10.110   0.272   3.239  1.4038 -1.6025  0.3414
62328SOL     OW95951  11.453  10.207   6.733 -0.3296  0.1784 -0.1092
62328SOL    HW195952  11.435  10.131   6.788  0.8704 -0.5873 -0.7333
62328SOL    HW295953  11.442  10.282   6.792  0.5009 -0.5960  1.0773
62329SOL     OW95954   8.617   3.487  12.257  0.2339 -0.3011 -0.7341
62329SOL    HW195955   8.596   3.557  12.318  0.4843  0.1956 -1.2119
62329SOL    HW295956   8.662   3.530  12.185  1.9179 -1.1599 -0.2673
62330SOL     OW95957  10.063   7.749   4.718 -0.3285  1.5621 -0.0574
62330SOL    HW195958  10.104   7.832   4.741  1.9609  0.3362  0.5238
62330SOL    HW295959   9.991   7.773   4.659  0.6826  3.8812 -0.4294
62331SOL     OW95960  10.524   8.638   7.204 -0.1654 -0.1673  0.0087
62331SOL    HW195961  10.535   8.655   7.298  0.2324 -0.3380 -0.0076
62331SOL    HW295962  10.550   8.719   7.162 -2.3035  0.6563  0.1327
62332SOL     OW95963   9.281  11.539   7.621  0.1531 -0.8123 -0.0721
62332SOL    HW195964   9.324  11.585   7.549  1.2431 -1.0381  0.4293
62332SOL    HW295965   9.273  11.605   7.690 -2.2818 -0.1399 -0.8836
62333SOL     OW95966   0.891   8.016   6.420  0.9427  0.0471  0.1762
62333SOL    HW195967   0.897   7.977   6.333 -0.6819  0.8160 -0.3218
62333SOL    HW295968   0.973   8.064   6.430  0.9908  0.2681 -1.0970
62334SOL     OW95969   6.757   3.120   7.035  0.2444 -0.0181  0.0462
62334SOL    HW195970   6.703   3.103   6.957  1.7000 -0.4356 -0.9048
62334SOL    HW295971   6.825   3.179   7.005  1.9681 -1.6830  0.4845
62335SOL     OW95972   5.231   4.822   1.736 -0.3770 -0.0958  0.3772
62335SOL    HW195973   5.319   4.838   1.705 -1.0799  0.7341 -1.2850
62335SOL    HW295974   5.187   4.778   1.663 -2.1903  2.2718 -0.0755
62336SOL     OW95975   2.066   0.087   1.925 -0.1614  0.1261 -0.3020
62336SOL    HW195976   2.131   0.123   1.865  0.8270  0.5990  0.9854
62336SOL    HW295977   2.063  -0.006   1.905  2.0461 -0.2073  0.5376
62337SOL     OW95978  11.981   9.140   2.464  0.2723  0.0166  0.2582
62337SOL    HW195979  11.912   9.075   2.466  0.5081 -0.2504 -0.1722
62337SOL    HW295980  12.053   9.098   2.417 -0.2072  1.2094 -1.6479
62338SOL     OW95981   0.567   9.394  11.690 -1.1467 -0.3667  0.3004
62338SOL    HW195982   0.516   9.316  11.669 -0.5307 -0.1009 -2.6063
62338SOL    HW295983   0.658   9.367  11.679 -0.8349  0.2707  1.1869
62339SOL     OW95984   7.730   1.796  10.815 -0.1862  0.2328  0.5224
62339SOL    HW195985   7.648   1.845  10.808 -0.4916 -0.4616 -4.2028
62339SOL    HW295986   7.713   1.714  10.769  2.8083 -0.4748  0.4705
62340SOL     OW95987   9.915   8.457   7.026 -0.4887  1.1396  0.6740
62340SOL    HW195988   9.899   8.497   7.111  1.4578  2.1948  0.6088
62340SOL    HW295989   9.992   8.401   7.041 -1.5405 -0.5321  0.1260
62341SOL     OW95990   4.044   9.016  10.141 -0.4002  0.0640  0.2204
62341SOL    HW195991   4.134   9.034  10.168 -0.9931  1.2513  1.5006
62341SOL    HW295992   4.015   9.096  10.099 -0.0494 -1.1896 -2.6973
62342SOL     OW95993   8.855   8.731   9.632  0.0971 -0.0350 -0.8270
62342SOL    HW195994   8.834   8.662   9.569  0.6989 -1.1946  0.1927
62342SOL    HW295995   8.851   8.688   9.718  0.2942  1.2527 -0.1370
62343SOL     OW95996   4.858   5.436   0.973 -0.3071 -0.2608  0.1841
62343SOL    HW195997   4.804   5.465   1.047  0.4408  0.0448  0.6234
62343SOL    HW295998   4.803   5.449   0.896  0.1270  2.9548  0.2449
62344SOL     OW95999   9.267   3.100  10.150 -0.4643 -0.5557  0.0155
62344SOL    HW196000   9.334   3.032  10.155  0.1695 -0.0161 -0.9182
62344SOL    HW296001   9.184   3.051  10.145 -0.2918 -1.2239  2.4351
62345SOL     OW96002   4.134  11.245   9.779  0.3764  0.2021 -0.6469
62345SOL    HW196003   4.112  11.338   9.782  1.1245  0.4853 -2.4229
62345SOL    HW296004   4.102  11.215   9.694 -2.3111 -1.9002  0.9527
62346SOL     OW96005   4.934   2.665   7.224  0.1305 -0.7803  0.6744
62346SOL    HW196006   5.016   2.714   7.231 -0.7997  1.0369 -0.2884
62346SOL    HW296007   4.950   2.601   7.155  0.6040 -0.1042  0.1479
62347SOL     OW96008  11.729   0.525  10.754  1.2324 -0.1045 -0.3013
62347SOL    HW196009  11.697   0.468  10.824 -0.6776  0.3803 -0.7067
62347SOL    HW296010  11.767   0.600  10.801  0.3538  0.0195  0.2567
62348SOL     OW96011   5.864  12.000   8.430 -0.3970 -0.2890  0.4338
62348SOL    HW196012   5.782  11.955   8.451 -0.4797 -0.0712  0.5773
62348SOL    HW296013   5.900  11.950   8.356 -0.6243 -0.4251  0.4131
62349SOL     OW96014   2.355  11.456   4.048 -0.2166  0.0651 -0.4083
62349SOL    HW196015   2.260  11.443   4.048 -0.5399  1.8951  1.3141
62349SOL    HW296016   2.366  11.551   4.048  1.7506  0.0442 -4.4215
62350SOL     OW96017   7.925  11.418   8.998  0.2363  0.3743 -0.0112
62350SOL    HW196018   7.959  11.484   8.937 -1.7737  0.4637 -1.1085
62350SOL    HW296019   7.865  11.365   8.945 -1.2266  0.1607  1.7771
62351SOL     OW96020  10.534  10.201  11.497 -0.0802 -0.2552 -0.6935
62351SOL    HW196021  10.500  10.252  11.424 -0.2604 -0.0919 -0.4986
62351SOL    HW296022  10.477  10.124  11.500  0.4828 -0.7057 -1.2811
62352SOL     OW96023   5.361   8.006   6.128  0.5254 -0.0539 -0.1842
62352SOL    HW196024   5.307   7.943   6.081 -0.9243  1.1870 -0.2690
62352SOL    HW296025   5.428   7.953   6.171 -0.9366 -1.7069  0.1663
62353SOL     OW96026   1.152   1.323  12.408 -0.2620  0.5985 -0.0388
62353SOL    HW196027   1.078   1.278  12.448  1.0429  0.8968  3.0301
62353SOL    HW296028   1.128   1.415  12.411  0.0283  0.6645  0.6378
62354SOL     OW96029   2.954  11.274   1.505  0.6243 -0.2545  0.3067
62354SOL    HW196030   3.015  11.210   1.541  0.1227 -0.0448  1.5653
62354SOL    HW296031   2.999  11.359   1.515  1.1312 -0.3420 -1.0160
62355SOL     OW96032  10.088   4.127   1.238 -0.4937 -0.1138 -0.3218
62355SOL    HW196033  10.083   4.041   1.280 -0.2928 -0.6316 -1.3134
62355SOL    HW296034  10.110   4.187   1.309  1.0469 -1.1357  0.1340
62356SOL     OW96035   2.672   6.583  12.449  0.0801 -0.1648 -0.2156
62356SOL    HW196036   2.630   6.509  12.493 -0.2768  0.3721  0.3707
62356SOL    HW296037   2.675   6.652  12.516  0.4448  0.3342 -0.7371
62357SOL     OW96038   8.791  10.313   9.651  0.0239 -0.1628  0.2339
62357SOL    HW196039   8.710  10.279   9.688  0.4853 -0.3096  1.1194
62357SOL    HW296040   8.763  10.359   9.572 -0.8421 -0.7998  0.1526
62358SOL     OW96041   0.137   0.461   5.460 -0.6829  0.5415 -0.0950
62358SOL    HW196042   0.084   0.525   5.411 -0.7778  2.0133  1.7824
62358SOL    HW296043   0.221   0.505   5.473 -0.9966  0.6499  1.8707
62359SOL     OW96044  12.144   2.965  10.507  0.0993 -0.3079  0.7342
62359SOL    HW196045  12.217   2.970  10.446  0.9710 -0.9401  1.7091
62359SOL    HW296046  12.184   2.957  10.594 -1.1026 -1.7325  1.2074
62360SOL     OW96047  10.527  11.047   5.028 -0.3678 -0.2597  0.1726
62360SOL    HW196048  10.502  10.962   4.992  0.0049 -0.0411 -0.6168
62360SOL    HW296049  10.617  11.035   5.057 -0.5329 -0.3193  0.6670
62361SOL     OW96050   1.072   0.158   6.605  0.1096 -0.4399 -0.2591
62361SOL    HW196051   1.025   0.227   6.557  0.6098  0.1648  0.1087
62361SOL    HW296052   1.104   0.099   6.536 -1.2289 -0.9090 -0.5143
62362SOL     OW96053  11.696   6.002   2.542  1.0175 -0.1427  0.4490
62362SOL    HW196054  11.675   5.973   2.453  0.0031 -1.1268  0.9798
62362SOL    HW296055  11.659   6.090   2.549  1.3042  0.0321 -0.1589
62363SOL     OW96056   6.971   3.924  12.080  0.4378  0.0070 -0.0534
62363SOL    HW196057   6.964   3.955  11.989 -0.8559 -1.7776 -0.6236
62363SOL    HW296058   6.958   4.003  12.133  1.2374  1.0861 -1.4066
62364SOL     OW96059   9.144   5.473   8.419  0.4194  0.0146  0.6386
62364SOL    HW196060   9.213   5.453   8.482 -0.6323 -1.2525  1.4398
62364SOL    HW296061   9.089   5.538   8.463 -0.1201 -0.6131  0.9091
62365SOL     OW96062   7.711   2.457   5.446  0.1433  0.3714 -0.0944
62365SOL    HW196063   7.624   2.480   5.480  1.0434  1.2240  1.7669
62365SOL    HW296064   7.699   2.455   5.351 -2.1238 -0.4742  0.1367
62366SOL     OW96065   3.980  10.272   4.182 -0.3685 -0.0563 -0.1113
62366SOL    HW196066   3.927  10.352   4.179  0.3343  0.4267 -2.9845
62366SOL    HW296067   4.023  10.275   4.267 -3.1421  0.6954  1.3762
62367SOL     OW96068   7.540   9.551   9.949  0.3887  0.5396  0.5919
62367SOL    HW196069   7.507   9.484   9.888 -0.9323  0.5741  1.2328
62367SOL    HW296070   7.602   9.602   9.897 -0.2254  0.1662 -0.5513
62368SOL     OW96071   2.446   0.149   2.937  0.7119 -0.2310 -0.6830
62368SOL    HW196072   2.406   0.180   3.018  1.1354  0.3584 -0.6890
62368SOL    HW296073   2.520   0.095   2.965  1.0447  0.2226 -0.6665
62369SOL     OW96074   5.434   4.654   5.259 -0.3441  0.1992 -0.2634
62369SOL    HW196075   5.361   4.619   5.311  1.1352 -0.7355  1.3117
62369SOL    HW296076   5.478   4.715   5.318  1.6260 -1.1953 -0.2019
62370SOL     OW96077  12.250   9.740   4.345 -0.1963 -0.3507 -0.2883
62370SOL    HW196078  12.293   9.787   4.274  0.1150 -0.9109 -0.4706
62370SOL    HW296079  12.160   9.774   4.345  0.0387  0.2874 -0.3750
62371SOL     OW96080   1.903  10.691  10.989  0.1883  0.2226  0.3221
62371SOL    HW196081   1.966  10.760  10.969 -0.7538  1.0593  0.1298
62371SOL    HW296082   1.921  10.623  10.924  0.0027  1.0487 -0.6146
62372SOL     OW96083   7.761   4.405   4.251  0.4308 -0.0541  0.3876
62372SOL    HW196084   7.712   4.463   4.192  1.3214 -0.5341 -0.8677
62372SOL    HW296085   7.694   4.350   4.292 -0.0678 -1.8809 -2.5618
62373SOL     OW96086   4.496   8.502   8.172  0.7136 -0.6274  0.2928
62373SOL    HW196087   4.474   8.480   8.263 -1.0572 -1.9612 -0.4088
62373SOL    HW296088   4.464   8.428   8.121 -1.3468  1.5039 -1.7531
62374SOL     OW96089   9.268   2.643   6.216 -0.0893  0.2217  0.0706
62374SOL    HW196090   9.283   2.708   6.284  1.5263  0.7582 -0.7520
62374SOL    HW296091   9.229   2.569   6.262  0.7374  0.6563  1.5445
62375SOL     OW96092  10.457   0.751   2.223  0.0048  0.1005  0.4970
62375SOL    HW196093  10.382   0.692   2.221 -0.6538  0.9261  0.1583
62375SOL    HW296094  10.504   0.734   2.141 -1.0889  1.1570 -0.3947
62376SOL     OW96095   0.947  10.795   8.162  0.7915  0.0143 -0.2489
62376SOL    HW196096   1.029  10.774   8.207  0.3113 -1.0877  0.1396
62376SOL    HW296097   0.936  10.723   8.099 -0.4125 -0.4316  0.4430
62377SOL     OW96098   2.189   6.991   5.728  0.2456 -0.8613 -0.5423
62377SOL    HW196099   2.148   7.077   5.736  1.2894 -0.2685 -1.1633
62377SOL    HW296100   2.196   6.959   5.818 -0.1425 -0.2864 -0.3003
62378SOL     OW96101   1.422  10.662   0.348  0.7916  0.1904 -0.1104
62378SOL    HW196102   1.374  10.645   0.267  2.4639 -1.5983 -0.8161
62378SOL    HW296103   1.475  10.740   0.327  1.8865 -0.7708 -1.1345
62379SOL     OW96104   0.968  11.783   9.788  0.2192 -0.4642 -0.2362
62379SOL    HW196105   1.024  11.849   9.831 -0.9424  0.3701  0.0392
62379SOL    HW296106   1.026  11.740   9.726  1.6638 -0.9273  1.3386
62380SOL     OW96107   1.161   5.017   7.615  0.5966  0.3628  0.6964
62380SOL    HW196108   1.122   4.932   7.594  0.3684  0.1978  1.7518
62380SOL    HW296109   1.255   5.006   7.597  0.2977  0.5676 -1.2329
62381SOL     OW96110   8.669   3.705   7.554 -0.5366 -0.6108  0.1082
62381SOL    HW196111   8.606   3.636   7.576 -1.5034 -0.8819 -3.0359
62381SOL    HW296112   8.754   3.663   7.563 -1.0372 -1.7155 -0.1187
62382SOL     OW96113  11.371   8.480  11.786  0.2339  0.0979 -0.2795
62382SOL    HW196114  11.464   8.489  11.809 -0.0438 -2.1595  2.2870
62382SOL    HW296115  11.364   8.391  11.750 -1.1704 -0.4753  1.2987
62383SOL     OW96116   0.294   9.374   2.111 -0.0874  0.3828  0.4489
62383SOL    HW196117   0.340   9.445   2.064  0.4587 -0.0834  0.2620
62383SOL    HW296118   0.214   9.414   2.143 -0.8270  0.5447 -1.4959
62384SOL     OW96119   1.008   2.321   6.744 -0.3630 -0.2370  0.0375
62384SOL    HW196120   0.975   2.379   6.676  1.2296  2.0374  1.0918
62384SOL    HW296121   1.081   2.275   6.704 -2.1850 -2.4039 -1.0911
62385SOL     OW96122   2.064   0.206  10.130 -0.1034  0.0369  0.3416
62385SOL    HW196123   2.140   0.260  10.153  0.8835 -1.1387 -0.0149
62385SOL    HW296124   2.049   0.150  10.206 -0.2970 -0.0776  0.2208
62386SOL     OW96125  11.280   6.999   6.517 -0.2561  0.0684 -0.0693
62386SOL    HW196126  11.321   7.066   6.462  0.3593  1.3787  1.8488
62386SOL    HW296127  11.274   6.922   6.461 -0.7541  1.6334 -2.3019
62387SOL     OW96128   7.530   7.004  11.343  0.5297 -0.0441 -0.2768
62387SOL    HW196129   7.479   6.941  11.291 -0.5920  0.4313  0.2050
62387SOL    HW296130   7.467   7.072  11.366  1.6802  1.2051 -0.6654
62388SOL     OW96131   0.065   5.018   3.509 -0.7788 -0.0268 -0.5105
62388SOL    HW196132   0.035   5.109   3.507 -0.0946  0.1842 -1.7149
62388SOL    HW296133   0.130   5.015   3.579  0.2332  0.7613 -1.3942
62389SOL     OW96134  11.335   7.600   3.135  0.0049  0.4502 -0.2502
62389SOL    HW196135  11.252   7.604   3.087  0.4219  2.1823 -0.8934
62389SOL    HW296136  11.348   7.506   3.151 -1.0710 -0.0362 -1.9148
62390SOL     OW96137   1.852   3.723   6.298  0.2775  0.0427  0.0119
62390SOL    HW196138   1.812   3.808   6.317 -0.5164 -0.2613 -0.2628
62390SOL    HW296139   1.787   3.659   6.328  1.5254 -0.5000  1.6834
62391SOL     OW96140   5.426   8.532   2.526 -0.6449 -0.6382 -0.1299
62391SOL    HW196141   5.382   8.536   2.441 -1.3780 -0.9556  0.2261
62391SOL    HW296142   5.468   8.446   2.528  1.6077  0.3493 -1.2278
62392SOL     OW96143   4.173   2.826   4.005  0.4421  0.4623 -0.0953
62392SOL    HW196144   4.101   2.851   4.063  0.6253  0.3350  0.1897
62392SOL    HW296145   4.224   2.763   4.057  2.2441  2.4739  0.7130
62393SOL     OW96146  12.547   0.602   8.585  0.0470  0.1241  0.3562
62393SOL    HW196147  12.530   0.681   8.636 -1.6526 -0.3543  0.5786
62393SOL    HW296148  12.579   0.634   8.501  1.6204  0.9587  1.2277
62394SOL     OW96149   7.402   7.274  10.265  0.3945 -0.2352  0.0244
62394SOL    HW196150   7.387   7.337  10.336 -3.2723  0.0651 -0.7915
62394SOL    HW296151   7.365   7.192  10.298 -1.1515 -0.1443 -1.3665
62395SOL     OW96152  10.941   5.271   5.499 -0.0516  0.4827 -0.2360
62395SOL    HW196153  10.879   5.203   5.473  1.1550 -1.0029  0.6218
62395SOL    HW296154  11.011   5.267   5.434  0.5629  0.1339  0.4377
62396SOL     OW96155   3.875   4.317   6.194  0.2343 -0.9544  0.2331
62396SOL    HW196156   3.904   4.371   6.120  0.0021 -0.1989  0.6839
62396SOL    HW296157   3.867   4.229   6.157 -1.2485 -0.3398 -1.0060
62397SOL     OW96158  10.012   5.070   4.362  0.5009  0.2624 -0.2643
62397SOL    HW196159  10.106   5.062   4.351  0.6456  0.6460  0.6003
62397SOL    HW296160   9.977   5.071   4.273  1.1130 -1.9095 -0.5828
62398SOL     OW96161   2.262   6.352   7.131 -0.6704  0.2309  0.0745
62398SOL    HW196162   2.220   6.304   7.203 -2.0305  0.6526 -0.4118
62398SOL    HW296163   2.254   6.444   7.156 -0.2702  0.3345 -0.1687
62399SOL     OW96164  11.743   1.663   4.018  0.3637  0.2390  0.3662
62399SOL    HW196165  11.776   1.720   4.088  2.6766 -0.5788  0.0208
62399SOL    HW296166  11.747   1.575   4.056  0.0090 -0.0439 -0.2425
62400SOL     OW96167  10.887   1.586   9.464 -0.1121  0.4552  0.0217
62400SOL    HW196168  10.861   1.674   9.490  1.0191  0.6221  0.6652
62400SOL    HW296169  10.813   1.531   9.490 -0.8076  1.1957 -0.3320
62401SOL     OW96170  12.240   3.861   7.922  0.4277  0.0460  0.5210
62401SOL    HW196171  12.175   3.925   7.951  0.5508 -0.9307  3.2340
62401SOL    HW296172  12.321   3.890   7.964  0.6897 -1.3323  1.0133
62402SOL     OW96173  10.245   2.097  10.826 -0.2847 -0.0354 -0.1395
62402SOL    HW196174  10.185   2.119  10.898 -0.1121 -0.4447  0.1306
62402SOL    HW296175  10.330   2.085  10.869 -0.1437 -0.1033 -0.4392
62403SOL     OW96176   0.866   7.578   0.615 -0.1034  0.0972 -0.4763
62403SOL    HW196177   0.802   7.649   0.619 -1.4403 -1.1167  1.1739
62403SOL    HW296178   0.897   7.569   0.705  0.0173 -1.4143 -0.6437
62404SOL     OW96179   5.093   9.453   3.754 -0.4210  0.1306 -0.1218
62404SOL    HW196180   5.038   9.394   3.805  1.4342 -1.1407  0.5114
62404SOL    HW296181   5.176   9.457   3.802  0.8915  0.0708 -2.2207
62405SOL     OW96182   0.010   7.163  11.462  0.8076  0.1722 -0.1451
62405SOL    HW196183  -0.002   7.223  11.388 -0.4312  0.5996  0.3818
62405SOL    HW296184   0.100   7.179  11.491  0.9655  0.7404 -0.9031
62406SOL     OW96185   6.462  10.152   7.089 -0.1163  0.2728 -0.1121
62406SOL    HW196186   6.397  10.100   7.041 -1.1769 -0.9146  2.4110
62406SOL    HW296187   6.410  10.214   7.140  0.8261  0.3313  0.8114
62407SOL     OW96188   4.689   5.707   3.295 -0.3968  0.0685  0.0730
62407SOL    HW196189   4.596   5.704   3.272 -0.5404  1.3233  0.3865
62407SOL    HW296190   4.714   5.616   3.309 -1.9411 -0.2070  1.3126
62408SOL     OW96191   9.895   3.406  11.818 -0.2752 -0.2891  0.3211
62408SOL    HW196192   9.814   3.392  11.867 -0.3673 -0.3201  0.1604
62408SOL    HW296193   9.905   3.501  11.815 -0.1037 -0.2951  0.6720
62409SOL     OW96194   0.462   5.241   6.433 -0.1173  0.1645 -0.1272
62409SOL    HW196195   0.384   5.286   6.466 -0.7747 -1.1426  0.1636
62409SOL    HW296196   0.466   5.160   6.484  1.0493 -0.0993 -0.6172
62410SOL     OW96197  11.371   9.879  10.955 -0.4535  0.1458  0.7615
62410SOL    HW196198  11.427   9.827  11.012 -0.6060 -2.5404 -1.3151
62410SOL    HW296199  11.282   9.853  10.979 -0.9267  3.2307  2.9766
62411SOL     OW96200   8.656  10.629   1.949  0.0297  0.2000 -0.6055
62411SOL    HW196201   8.699  10.705   1.987 -0.8272  0.6829 -0.5802
62411SOL    HW296202   8.645  10.568   2.022  2.4952 -0.8410 -0.9801
62412SOL     OW96203   3.793   8.852   0.113  0.0109 -0.2915  0.6411
62412SOL    HW196204   3.753   8.765   0.118 -1.2244  0.2086 -0.0585
62412SOL    HW296205   3.719   8.911   0.105  0.7343  1.0028  2.8079
62413SOL     OW96206   4.146   3.119   1.780 -0.0522 -0.4521  0.7838
62413SOL    HW196207   4.080   3.185   1.802  0.1755  0.0379  0.0423
62413SOL    HW296208   4.186   3.096   1.864  0.9045  1.4800  0.9244
62414SOL     OW96209   8.171  10.102   6.890 -0.4163  0.2640  0.2053
62414SOL    HW196210   8.217  10.148   6.820  0.1504 -0.1979  0.2611
62414SOL    HW296211   8.209  10.014   6.889 -0.3973  0.2532  1.0913
62415SOL     OW96212   2.872   9.059  10.121  0.0196  0.1715 -0.0338
62415SOL    HW196213   2.828   9.126  10.069  1.6468  2.3413  1.1906
62415SOL    HW296214   2.845   9.076  10.211 -0.8436 -1.9638  0.1665
62416SOL     OW96215   3.777  10.401   2.986 -0.2429  0.0049 -0.2660
62416SOL    HW196216   3.860  10.431   2.949  0.5053 -1.0332  0.5392
62416SOL    HW296217   3.723  10.481   2.991  0.6303  0.6523 -0.9614
62417SOL     OW96218   1.560   3.565   6.954  0.5155  0.2263  0.2234
62417SOL    HW196219   1.529   3.486   6.908  2.2735  0.0427 -0.7216
62417SOL    HW296220   1.645   3.540   6.988  1.4975  1.9603 -0.8370
62418SOL     OW96221   2.493   0.144  11.213  0.1611 -0.7994  0.3112
62418SOL    HW196222   2.514   0.052  11.226  2.2312 -0.6129 -1.0897
62418SOL    HW296223   2.398   0.146  11.200  0.2405 -2.9924 -1.3025
62419SOL     OW96224   4.236   0.655   5.030 -0.6615  1.0495 -0.0628
62419SOL    HW196225   4.272   0.569   5.010 -1.7374  0.6532 -0.3435
62419SOL    HW296226   4.287   0.686   5.104 -2.0767 -1.0532  1.9327
62420SOL     OW96227   0.144   3.372   3.952 -0.1359  0.2798 -0.6378
62420SOL    HW196228   0.230   3.353   3.913 -0.7505  0.4268 -2.1332
62420SOL    HW296229   0.147   3.467   3.968  0.4827  0.0651  0.6467
62421SOL     OW96230  10.768  12.123   3.503  0.5721  0.0189  0.1554
62421SOL    HW196231  10.674  12.116   3.522  0.7703 -1.0206  0.7907
62421SOL    HW296232  10.776  12.207   3.457 -0.2804  1.5588  2.6282
62422SOL     OW96233  12.571   4.433   8.139  0.3934 -0.2398 -0.3489
62422SOL    HW196234  12.666   4.424   8.132  0.3794  0.1156 -0.9726
62422SOL    HW296235  12.557   4.461   8.230  0.9293  0.3724 -0.4494
62423SOL     OW96236   9.925  11.826   8.190  0.1751  0.3241 -0.5242
62423SOL    HW196237   9.831  11.811   8.182  0.3926 -0.8402 -1.1160
62423SOL    HW296238   9.939  11.838   8.284 -0.0840 -3.4748  0.1662
62424SOL     OW96239   8.685  11.354   9.963 -0.4260 -0.1857 -0.4410
62424SOL    HW196240   8.743  11.286   9.929  0.5845  1.0156 -1.2076
62424SOL    HW296241   8.718  11.435   9.923 -0.3872  1.0305  1.9136
62425SOL     OW96242   1.405   7.142   6.777  0.3680  0.0863 -0.0692
62425SOL    HW196243   1.404   7.128   6.682 -1.0483  1.3285 -0.2784
62425SOL    HW296244   1.326   7.099   6.808 -0.5465  1.8532  0.1591
62426SOL     OW96245  11.660   7.337   0.175 -0.0086 -0.1052  0.4497
62426SOL    HW196246  11.606   7.285   0.116 -0.6051 -0.2461  1.0932
62426SOL    HW296247  11.629   7.427   0.163 -1.0036 -0.2964  1.4354
62427SOL     OW96248   3.499   0.780   7.267  0.0690 -0.1412 -0.3260
62427SOL    HW196249   3.404   0.784   7.253 -0.1724 -1.5856  0.7042
62427SOL    HW296250   3.531   0.724   7.197  0.0257 -0.4062 -0.1361
62428SOL     OW96251   1.142  11.900  10.655 -0.2992 -0.2772 -0.2950
62428SOL    HW196252   1.192  11.945  10.722 -0.7619  0.2444 -0.2910
62428SOL    HW296253   1.207  11.853  10.603  0.4494  2.0237 -1.5628
62429SOL     OW96254   3.266  10.425  11.229  0.1484  0.2675  0.1291
62429SOL    HW196255   3.221  10.404  11.311 -0.7969 -0.5930 -0.5849
62429SOL    HW296256   3.198  10.466  11.175  0.4874 -0.1182 -0.6012
62430SOL     OW96257   4.178   1.475   6.191 -0.4761  0.1872 -0.6634
62430SOL    HW196258   4.101   1.482   6.135  0.1813  3.4359 -1.3775
62430SOL    HW296259   4.252   1.486   6.131  0.4468 -0.6366  0.2966
62431SOL     OW96260   0.148   8.306   1.424  0.1306 -0.8100 -0.2801
62431SOL    HW196261   0.121   8.398   1.432  0.0121 -0.8754  0.0645
62431SOL    HW296262   0.178   8.299   1.333  0.4462 -0.3517 -0.2169
62432SOL     OW96263  11.046   3.862   0.371 -0.4095  0.1478  0.0419
62432SOL    HW196264  10.953   3.879   0.357 -0.3286  0.6200  0.0463
62432SOL    HW296265  11.088   3.887   0.289 -0.4342 -1.3823 -0.4608
62433SOL     OW96266   9.166   8.833   0.097 -0.7236 -0.2669  0.3941
62433SOL    HW196267   9.262   8.838   0.094 -0.8086  1.2696 -0.8696
62433SOL    HW296268   9.139   8.827   0.006 -1.9514  3.8061  0.3004
62434SOL     OW96269   6.152   9.122   6.493  0.3832  0.0340 -0.7138
62434SOL    HW196270   6.183   9.057   6.556  1.4411  1.8101  0.6616
62434SOL    HW296271   6.075   9.161   6.535  1.0921  1.2247 -0.4748
62435SOL     OW96272   3.804   7.370   2.602 -0.3606 -0.0431 -0.3147
62435SOL    HW196273   3.789   7.446   2.545 -1.5413  0.2279  0.3329
62435SOL    HW296274   3.899   7.369   2.615 -0.3338  1.4294 -0.2134
62436SOL     OW96275   1.705   3.012  11.263  0.1225 -0.0723  0.2699
62436SOL    HW196276   1.685   2.976  11.176  0.3942  0.6916 -0.1126
62436SOL    HW296277   1.778   2.959  11.295 -1.3873 -1.8315  0.9973
62437SOL     OW96278  11.716   7.907  11.941  0.0994  0.1400 -0.6154
62437SOL    HW196279  11.685   7.910  11.851  0.5737  0.1505 -0.7811
62437SOL    HW296280  11.703   7.995  11.975 -1.7865 -0.3044 -0.0858
62438SOL     OW96281   1.452   5.054   7.537  0.4689 -0.4502  0.7905
62438SOL    HW196282   1.405   5.090   7.461 -0.4699 -1.0886  1.0435
62438SOL    HW296283   1.524   5.005   7.499 -0.0695 -0.8735  0.2864
62439SOL     OW96284   8.704   8.185   0.017  0.3092  0.0779 -0.1699
62439SOL    HW196285   8.753   8.110  -0.016  0.2119  1.2241 -3.2367
62439SOL    HW296286   8.741   8.260  -0.028 -0.9459  1.6519  1.2798
62440SOL     OW96287   0.870   7.012   6.219  0.0719  0.8800 -0.2454
62440SOL    HW196288   0.842   6.949   6.286 -0.6350  2.1098  0.6600
62440SOL    HW296289   0.826   6.982   6.139 -0.3498  0.2910  0.1917
62441SOL     OW96290  11.418   5.558   1.494 -0.1145  0.2557  0.2849
62441SOL    HW196291  11.502   5.606   1.492 -1.3152  2.5143 -1.8227
62441SOL    HW296292  11.364   5.606   1.556 -0.0650 -0.8913  1.2514
62442SOL     OW96293   7.971   8.096   0.788  0.0031 -0.0864  0.3014
62442SOL    HW196294   8.013   8.022   0.743 -1.5819 -1.0940  0.3917
62442SOL    HW296295   8.023   8.110   0.867  0.6635 -0.7299 -0.0157
62443SOL     OW96296  11.403   7.432   4.404  0.3361 -0.7237 -0.1317
62443SOL    HW196297  11.377   7.357   4.456 -0.9829 -0.1320  0.0982
62443SOL    HW296298  11.370   7.414   4.316 -0.8107 -0.0214  0.1354
62444SOL     OW96299   5.733  11.571   7.686  0.1569 -0.2096  0.2851
62444SOL    HW196300   5.824  11.566   7.714 -0.0347  0.3239  1.0498
62444SOL    HW296301   5.683  11.579   7.768 -0.5264  0.0141 -0.1432
62445SOL     OW96302   0.237   1.137   3.023 -0.2411 -0.0749 -1.0933
62445SOL    HW196303   0.147   1.155   2.998 -0.1938 -0.3914 -1.5115
62445SOL    HW296304   0.230   1.077   3.098 -0.3760 -0.1393 -1.1583
62446SOL     OW96305   7.961   4.144   8.053  0.3266  0.3089  0.4447
62446SOL    HW196306   8.056   4.152   8.042  0.3046 -1.3128 -1.4029
62446SOL    HW296307   7.925   4.207   7.990  0.2147 -1.2523 -1.1152
62447SOL     OW96308   6.572   9.322   4.766  0.1122 -0.1708  0.6157
62447SOL    HW196309   6.532   9.235   4.774  0.0576 -0.1619  0.4227
62447SOL    HW296310   6.653   9.316   4.817  0.1355 -0.3502  0.5577
62448SOL     OW96311  10.456   4.862   9.600 -0.1946  0.6615  0.0022
62448SOL    HW196312  10.470   4.955   9.581  1.3752  0.4484  0.0016
62448SOL    HW296313  10.449   4.821   9.514  0.0853  0.6496 -0.0163
62449SOL     OW96314   7.445   8.481   0.380 -0.7192 -0.6769  0.5876
62449SOL    HW196315   7.535   8.496   0.351 -0.9238 -0.3887  0.0808
62449SOL    HW296316   7.392   8.536   0.321 -1.2431 -1.0421  0.7172
62450SOL     OW96317   4.485   7.686   0.143 -0.0357 -0.5019  0.7248
62450SOL    HW196318   4.393   7.694   0.168 -0.0163 -0.4315  0.7729
62450SOL    HW296319   4.491   7.732   0.059 -0.3766 -1.8492 -0.0708
62451SOL     OW96320   7.915  10.884   3.529  0.3615  0.0668 -0.4638
62451SOL    HW196321   7.861  10.837   3.467  1.6267 -0.4327 -1.2280
62451SOL    HW296322   7.919  10.973   3.495  0.8831 -0.1559 -1.0092
62452SOL     OW96323   6.928  11.171   1.202  0.6241  0.4202  0.4890
62452SOL    HW196324   6.939  11.256   1.245  0.1041  0.5562  0.3577
62452SOL    HW296325   6.866  11.124   1.258 -0.0485  0.5948 -0.0981
62453SOL     OW96326   7.515   7.254  12.290  0.1249  0.6067 -0.0437
62453SOL    HW196327   7.433   7.260  12.340 -0.4642 -0.9478 -0.7653
62453SOL    HW296328   7.540   7.162  12.296  1.7562  1.0197  0.0243
62454SOL     OW96329   7.167   8.913   3.538 -0.4286  0.3925  0.4576
62454SOL    HW196330   7.175   8.822   3.566  0.1355  0.1844 -0.3136
62454SOL    HW296331   7.074   8.926   3.522 -0.4892 -0.1084  0.3921
62455SOL     OW96332   2.212  12.143   0.356 -0.8118  0.4394  0.2433
62455SOL    HW196333   2.179  12.085   0.425  0.5142 -0.6185  0.0348
62455SOL    HW296334   2.290  12.184   0.394  0.1087 -0.3777 -0.6802
62456SOL     OW96335   2.512   0.352   8.772 -0.2331 -0.0175 -0.0910
62456SOL    HW196336   2.439   0.354   8.710  0.2280  0.8792 -0.6229
62456SOL    HW296337   2.500   0.270   8.820 -1.4768  0.0180 -0.2996
62457SOL     OW96338   4.970   2.856   5.036  0.3765  0.1644 -0.1181
62457SOL    HW196339   4.955   2.891   4.948  2.8354 -0.8422 -1.0261
62457SOL    HW296340   5.012   2.928   5.084 -0.0168  0.3775 -0.0932
62458SOL     OW96341   6.825   4.381   4.443 -0.5093 -0.3417 -0.2853
62458SOL    HW196342   6.821   4.474   4.462 -0.2892 -0.4312  0.2394
62458SOL    HW296343   6.867   4.375   4.357 -0.8486  0.0535 -0.4807
62459SOL     OW96344  12.502  11.722   2.304 -0.2161  0.7930 -0.1262
62459SOL    HW196345  12.538  11.684   2.225 -1.1037  0.5498 -0.4322
62459SOL    HW296346  12.536  11.668   2.375 -1.8740 -0.9758 -0.5854
62460SOL     OW96347   4.623   9.251   1.118  0.0814 -0.3058  0.0741
62460SOL    HW196348   4.655   9.161   1.124  0.3790 -0.3133 -1.2103
62460SOL    HW296349   4.565   9.251   1.042 -0.1316  0.5252  0.2244
62461SOL     OW96350  10.678   2.412  10.937 -0.4662  0.7885 -0.3366
62461SOL    HW196351  10.739   2.382  11.005 -2.1840 -0.3417  0.7922
62461SOL    HW296352  10.637   2.332  10.905 -2.6963  1.5877  0.2981
62462SOL     OW96353   9.190   2.220   7.952  0.1143 -0.4088 -0.8029
62462SOL    HW196354   9.200   2.244   8.044 -0.0859 -0.6172 -0.7245
62462SOL    HW296355   9.113   2.269   7.923 -1.6290 -2.5382 -0.0590
62463SOL     OW96356   4.745   8.692   3.150 -0.0143 -0.0686 -0.0972
62463SOL    HW196357   4.654   8.694   3.120 -0.1697 -1.2187  0.2452
62463SOL    HW296358   4.785   8.623   3.098 -0.1173 -1.6431  1.7934
62464SOL     OW96359   9.466   2.450   5.949 -0.3483  0.3013  0.5547
62464SOL    HW196360   9.389   2.397   5.927 -0.6567  0.1564  1.8798
62464SOL    HW296361   9.434   2.540   5.947 -0.3021  0.3132  0.1750
62465SOL     OW96362   3.881   3.003   4.609  0.4572  0.5051  0.2759
62465SOL    HW196363   3.929   2.928   4.572  0.3356  0.2199  0.6945
62465SOL    HW296364   3.913   3.078   4.559  0.4388  0.1508 -0.2831
62466SOL     OW96365   9.183   3.398   1.658  0.3529  0.8335  0.0815
62466SOL    HW196366   9.252   3.399   1.592  0.1978 -0.9883 -0.1516
62466SOL    HW296367   9.102   3.384   1.608  0.1956 -0.2199  0.6051
62467SOL     OW96368   8.241   5.144   4.239  0.0643 -0.3145  0.1669
62467SOL    HW196369   8.254   5.221   4.183  0.0971  0.8778  1.7440
62467SOL    HW296370   8.175   5.172   4.302 -0.5351 -1.8875  0.2645
62468SOL     OW96371   8.968   7.589   7.940  0.1953 -0.2385  0.1616
62468SOL    HW196372   8.989   7.657   7.876  3.0060 -0.0688  1.1405
62468SOL    HW296373   9.001   7.508   7.901  0.8816 -0.3149  0.8783
62469SOL     OW96374   6.003   0.909  10.095  0.2599 -0.0751  0.4784
62469SOL    HW196375   5.936   0.962  10.138 -1.2640 -0.8117 -0.8917
62469SOL    HW296376   6.012   0.948  10.008  1.7042  0.0488  0.6507
62470SOL     OW96377   6.153   7.899   4.858  0.3052  0.4116  0.0224
62470SOL    HW196378   6.187   7.977   4.814  1.9894 -0.1064  0.3503
62470SOL    HW296379   6.184   7.825   4.806 -0.5680 -0.0898  0.1812
62471SOL     OW96380  11.452   4.774   4.555 -0.0084 -0.0898  0.5643
62471SOL    HW196381  11.530   4.781   4.610 -0.7579  3.4035  1.4626
62471SOL    HW296382  11.486   4.770   4.465  1.2215  0.2912  0.9956
62472SOL     OW96383   3.750   4.724   7.377 -0.5903 -0.5059  0.4448
62472SOL    HW196384   3.711   4.698   7.461 -0.7237 -0.8627  0.2726
62472SOL    HW296385   3.840   4.751   7.400 -1.1933  1.1848  0.9825
62473SOL     OW96386   5.765  11.483   0.417  0.3180  0.0561 -0.7033
62473SOL    HW196387   5.743  11.445   0.503 -0.6914 -0.3008 -1.1041
62473SOL    HW296388   5.682  11.518   0.385  0.7816  0.5598 -1.3563
62474SOL     OW96389   3.737   1.465   5.115  0.3418  0.0504 -0.2469
62474SOL    HW196390   3.650   1.488   5.146 -0.2762 -2.2347 -0.1633
62474SOL    HW296391   3.735   1.483   5.021 -0.0793  0.3256 -0.1882
62475SOL     OW96392  10.815  10.295   4.085 -0.5049 -0.3938  0.4053
62475SOL    HW196393  10.790  10.206   4.059 -0.7595 -0.0910 -0.4310
62475SOL    HW296394  10.860  10.284   4.169  1.1390 -1.5402 -0.5626
62476SOL     OW96395   1.777   0.122   1.045 -0.2591  0.2286  0.1283
62476SOL    HW196396   1.724   0.052   1.083  0.2405 -0.3228 -0.1694
62476SOL    HW296397   1.816   0.166   1.120  0.4023 -0.5991  0.2827
62477SOL     OW96398   8.805   5.625   1.814  0.4227  0.4011  0.5134
62477SOL    HW196399   8.773   5.692   1.875 -0.6744  1.1503 -0.8116
62477SOL    HW296400   8.843   5.675   1.742  2.1966 -0.4682  0.7972
62478SOL     OW96401   1.739   8.356  12.107  0.2478  0.2177 -0.0830
62478SOL    HW196402   1.754   8.443  12.071 -0.5973  1.0460  1.4366
62478SOL    HW296403   1.781   8.296  12.045 -0.1047  1.6144 -1.7368
62479SOL     OW96404   6.486   7.451   4.521 -0.0140 -0.3550  0.1344
62479SOL    HW196405   6.494   7.416   4.432  2.0034  2.4463 -0.9256
62479SOL    HW296406   6.470   7.544   4.508  0.9275  0.2283  2.7146
62480SOL     OW96407   7.144   7.842  10.240 -0.1493 -0.0726 -0.1453
62480SOL    HW196408   7.071   7.903  10.252 -0.8622 -0.9529  0.0813
62480SOL    HW296409   7.192   7.845  10.322 -0.0249  0.3845 -0.2331
62481SOL     OW96410   4.317   6.792   3.170  0.0871  0.3780 -0.6547
62481SOL    HW196411   4.298   6.698   3.161  1.7027  0.0784 -1.4029
62481SOL    HW296412   4.264   6.820   3.244  2.0881 -1.8942  1.8635
62482SOL     OW96413   2.386   4.354   8.701  0.3010 -0.0724  0.1670
62482SOL    HW196414   2.300   4.378   8.665 -0.5223 -0.6181  1.6877
62482SOL    HW296415   2.413   4.278   8.649 -1.2329 -1.3433  1.1258
62483SOL     OW96416   8.998   8.740   9.010  0.1802 -0.0874  0.1731
62483SOL    HW196417   9.091   8.753   9.024  0.4248 -1.3832 -0.1141
62483SOL    HW296418   8.993   8.690   8.929 -0.7700 -0.0377  0.1890
62484SOL     OW96419   4.086   9.434   5.828 -0.0161 -0.4504 -0.0313
62484SOL    HW196420   4.112   9.453   5.738  0.4212 -2.4298 -0.3645
62484SOL    HW296421   4.168   9.432   5.877 -0.0780 -1.0430  0.0578
62485SOL     OW96422  11.893   6.897   6.209  0.5428  0.3789 -0.0688
62485SOL    HW196423  11.807   6.930   6.181 -0.8308 -3.6458 -1.2961
62485SOL    HW296424  11.954   6.929   6.142 -0.6945  0.2817 -1.2902
62486SOL     OW96425   3.842  11.455   0.700  0.1609  0.1470  0.2763
62486SOL    HW196426   3.802  11.540   0.716 -0.2638  0.1876 -0.9443
62486SOL    HW296427   3.787  11.393   0.749 -0.0824  0.4645  0.4081
62487SOL     OW96428   8.909   0.790   1.554  0.3455 -0.4489 -0.3274
62487SOL    HW196429   8.901   0.856   1.485  0.8228 -1.4657 -1.4111
62487SOL    HW296430   8.861   0.826   1.628  0.6445  1.1322 -0.8552
62488SOL     OW96431   7.798   9.571  10.235  0.2515 -0.9227 -0.1875
62488SOL    HW196432   7.874   9.525  10.273  1.9148  2.3810  0.8923
62488SOL    HW296433   7.830   9.603  10.151 -0.8345 -1.5695 -0.8630
62489SOL     OW96434   2.566  12.264  11.700  0.3462  0.6427 -0.1971
62489SOL    HW196435   2.611  12.237  11.780  1.5371  0.7561 -0.7918
62489SOL    HW296436   2.475  12.239  11.713  1.1690 -3.0738 -0.4304
62490SOL     OW96437   7.872   1.062   1.165  0.1348 -0.0967 -0.2284
62490SOL    HW196438   7.861   1.144   1.115  2.1218 -0.5784 -1.5881
62490SOL    HW296439   7.782   1.032   1.181 -0.6460  0.6736 -2.5957
62491SOL     OW96440   6.421  11.048   7.031 -0.1421  0.3934  0.1732
62491SOL    HW196441   6.362  11.093   6.970  0.5892 -0.5149 -1.2798
62491SOL    HW296442   6.391  10.957   7.031  0.1846  0.2799  0.7673
62492SOL     OW96443  11.806   3.852   5.142  0.4264  0.6131 -0.0202
62492SOL    HW196444  11.878   3.799   5.108 -0.0920  0.3159 -0.6866
62492SOL    HW296445  11.741   3.852   5.071 -0.9484 -0.5374  1.1551
62493SOL     OW96446   2.935  12.254   2.959  0.1189  0.6830 -0.1183
62493SOL    HW196447   3.030  12.253   2.964  0.0807 -0.3775  1.1138
62493SOL    HW296448   2.906  12.292   3.042 -0.5306  0.6974 -0.3419
62494SOL     OW96449   5.307   1.379   7.807 -0.5048  0.1294  0.1512
62494SOL    HW196450   5.265   1.449   7.757  1.9837  0.0494 -2.2693
62494SOL    HW296451   5.260   1.300   7.780  0.1083  0.2332 -1.3717
62495SOL     OW96452   1.594   8.624   0.836 -0.1227  0.4362  0.0902
62495SOL    HW196453   1.573   8.532   0.853  0.9788  0.1658  0.0147
62495SOL    HW296454   1.640   8.654   0.914 -0.6070  0.9773  0.1774
62496SOL     OW96455   4.408   6.402   9.504 -0.2408  0.4153  0.1402
62496SOL    HW196456   4.355   6.368   9.432  0.6438  0.4479 -0.5491
62496SOL    HW296457   4.346   6.447   9.561 -1.0595 -0.2257 -0.2291
62497SOL     OW96458  11.312  12.010   5.508  0.0103 -0.0926 -0.5268
62497SOL    HW196459  11.345  11.931   5.466  0.3106  0.0662 -0.5948
62497SOL    HW296460  11.364  12.018   5.588 -2.5273 -2.0493  1.5103
62498SOL     OW96461   6.568   1.303   4.972  0.1141 -0.7445  0.3524
62498SOL    HW196462   6.576   1.395   4.998  0.1286 -0.2371 -1.3194
62498SOL    HW296463   6.474   1.285   4.977 -0.3342  0.3967 -2.4388
62499SOL     OW96464   2.996   4.332   8.818  0.0962 -0.4712 -0.8618
62499SOL    HW196465   3.036   4.394   8.879  0.8322  0.2899 -2.0757
62499SOL    HW296466   2.938   4.279   8.873 -0.0285  0.8256  0.3310
62500SOL     OW96467  12.426   6.708   8.144 -0.0064  0.4363  0.0082
62500SOL    HW196468  12.434   6.751   8.059 -2.1021  2.3127  0.6718
62500SOL    HW296469  12.345   6.658   8.139 -0.4395  1.0042  1.0531
62501SOL     OW96470   2.371   4.483   4.072 -0.3187 -0.1066 -0.1710
62501SOL    HW196471   2.450   4.527   4.102  0.6756 -1.8454 -0.0596
62501SOL    HW296472   2.309   4.553   4.054  0.6844  1.2276  1.3227
62502SOL     OW96473  11.251   9.616   6.786 -0.4887  0.1939  0.2951
62502SOL    HW196474  11.228   9.598   6.695  0.9814  0.9963 -0.2703
62502SOL    HW296475  11.168   9.635   6.829 -1.0653  1.3332 -1.2524
62503SOL     OW96476   9.863   9.629   2.669 -0.6027  0.0127  0.3453
62503SOL    HW196477   9.915   9.551   2.651 -2.7789 -1.5652  0.4682
62503SOL    HW296478   9.845   9.666   2.582  2.3887  1.8567  0.3824
62504SOL     OW96479   8.607   3.115   2.464 -0.0311 -0.3377  0.0652
62504SOL    HW196480   8.578   3.152   2.381 -0.1601  0.0908  0.2955
62504SOL    HW296481   8.695   3.151   2.477 -0.6251  0.9001  0.8798
62505SOL     OW96482  11.124   7.007   6.917  0.2986  0.2676 -0.7432
62505SOL    HW196483  11.072   6.927   6.912  0.6697  0.0821 -2.1509
62505SOL    HW296484  11.194   6.994   6.852  0.1546  1.8686 -1.2677
62506SOL     OW96485   0.588  10.775   6.801  0.6136 -0.3036 -0.5137
62506SOL    HW196486   0.622  10.780   6.891 -0.4160 -0.0818 -0.1204
62506SOL    HW296487   0.665  10.754   6.748  1.2726 -0.2880  0.3971
62507SOL     OW96488   7.738   3.516   2.785  0.2861  0.1600 -0.4575
62507SOL    HW196489   7.668   3.523   2.850  1.6716 -0.3058  1.1678
62507SOL    HW296490   7.766   3.424   2.789  1.5180  0.5116 -0.4623
62508SOL     OW96491   6.533   8.993   5.318 -0.1193 -0.9443 -0.1187
62508SOL    HW196492   6.447   8.951   5.315 -0.8070  0.4458 -0.4844
62508SOL    HW296493   6.528   9.064   5.255 -0.0250  1.5269  2.4235
62509SOL     OW96494   0.143   9.896   8.265  0.2910  0.0434  0.3258
62509SOL    HW196495   0.221   9.930   8.220 -0.0191 -0.1584 -0.3801
62509SOL    HW296496   0.072   9.952   8.235  0.0328 -0.2636  0.3606
62510SOL     OW96497   7.564   7.173   1.331  0.0728  0.0944 -0.0712
62510SOL    HW196498   7.617   7.188   1.252 -0.5274 -1.5590 -0.8504
62510SOL    HW296499   7.544   7.261   1.364  1.9168  0.7817 -0.6722
62511SOL     OW96500   4.914   4.358   2.438  0.6748 -0.2768 -0.3188
62511SOL    HW196501   5.006   4.334   2.431  0.2299 -2.2911  0.0682
62511SOL    HW296502   4.907   4.399   2.524  1.1380 -0.5255 -0.1578
62512SOL     OW96503  12.341   7.238   1.030  0.4253  0.2061  0.7810
62512SOL    HW196504  12.327   7.324   1.070  0.1719  0.5027  0.0535
62512SOL    HW296505  12.258   7.216   0.990  0.3690 -0.5647  1.2945
62513SOL     OW96506   1.081   6.779   5.811 -0.4740 -0.5705  0.0644
62513SOL    HW196507   1.080   6.773   5.716  0.8068  0.3355 -0.0199
62513SOL    HW296508   1.079   6.873   5.830  3.0965 -0.5104  0.8007
62514SOL     OW96509   5.711  10.245   9.417 -0.6672  0.1347  0.0541
62514SOL    HW196510   5.694  10.339   9.405 -0.8935  0.0128 -0.6332
62514SOL    HW296511   5.801  10.241   9.450 -0.5603  0.5865 -0.1691
62515SOL     OW96512   2.675   0.492   1.500  0.1212 -0.2138 -0.2807
62515SOL    HW196513   2.663   0.399   1.519 -1.6798 -0.1711 -1.0445
62515SOL    HW296514   2.604   0.536   1.548 -1.1881  0.3938 -2.6257
62516SOL     OW96515   9.855   6.973   8.902 -0.2462  0.1386  0.0560
62516SOL    HW196516   9.879   6.885   8.931 -0.1385  0.8002  2.1282
62516SOL    HW296517   9.759   6.972   8.902 -0.2568  0.3067  1.0928
62517SOL     OW96518   4.099   1.109  10.742 -0.6288 -1.1546 -0.3300
62517SOL    HW196519   4.115   1.161  10.820  0.9725 -1.0020 -0.7219
62517SOL    HW296520   4.032   1.046  10.768  0.7657 -1.9256  1.5422
62518SOL     OW96521   1.133   5.139  11.698  0.0851 -0.0305 -0.4151
62518SOL    HW196522   1.190   5.088  11.640  1.1859 -0.2352  0.7765
62518SOL    HW296523   1.077   5.073  11.739 -0.9790  0.1611 -1.5213
62519SOL     OW96524   7.757  10.202   3.520 -0.1837 -0.2726  0.0716
62519SOL    HW196525   7.681  10.243   3.479 -0.2709  0.3099  0.7982
62519SOL    HW296526   7.791  10.143   3.453 -1.1434 -0.3747 -0.3375
62520SOL     OW96527   5.333   2.206   5.797 -0.7251 -0.0636  0.2998
62520SOL    HW196528   5.313   2.151   5.721 -3.4628  0.3375  0.6059
62520SOL    HW296529   5.292   2.160   5.870  3.1977 -1.2701  1.9743
62521SOL     OW96530   6.963   1.775   0.737  0.1618  0.6638 -0.2959
62521SOL    HW196531   7.008   1.775   0.821 -1.1161 -0.6921  0.4245
62521SOL    HW296532   6.894   1.840   0.746 -0.2629  0.1938 -0.1244
62522SOL     OW96533  12.418   8.134   7.289 -0.7641  0.2239  0.3220
62522SOL    HW196534  12.378   8.048   7.280 -0.0128 -0.2252  1.1650
62522SOL    HW296535  12.499   8.129   7.238 -1.2489  0.8062 -0.5444
62523SOL     OW96536  11.163   4.480  10.420 -0.0068 -0.3553  0.2232
62523SOL    HW196537  11.113   4.511  10.495 -0.4373  0.8938 -0.5516
62523SOL    HW296538  11.096   4.451  10.357  0.2766  0.1729 -0.3303
62524SOL     OW96539   1.124  10.458   2.243 -0.3794  0.6606  0.2683
62524SOL    HW196540   1.079  10.471   2.159  0.4760  2.4448  0.0472
62524SOL    HW296541   1.075  10.387   2.285 -0.4754 -0.7047 -1.9630
62525SOL     OW96542   3.343   1.614   6.942  0.7828  0.1307  0.2411
62525SOL    HW196543   3.279   1.549   6.913  1.0283 -0.4163  0.8779
62525SOL    HW296544   3.344   1.680   6.873 -0.2900  0.0233  0.1061
62526SOL     OW96545   1.713   7.459  12.260  0.0260  0.4195 -0.4258
62526SOL    HW196546   1.782   7.398  12.284 -0.2722 -0.0984 -0.8677
62526SOL    HW296547   1.674   7.422  12.181 -1.3086  0.2442  0.2756
62527SOL     OW96548   1.694  11.264   3.689  0.4281 -0.3168 -0.2530
62527SOL    HW196549   1.606  11.257   3.726  1.3746 -0.5181  2.1099
62527SOL    HW296550   1.690  11.212   3.609 -1.4240 -0.8041  0.0960
62528SOL     OW96551   5.023   0.730   4.996 -0.0265 -0.2651 -0.3798
62528SOL    HW196552   5.069   0.706   4.915  0.0060  0.9513 -0.7387
62528SOL    HW296553   5.025   0.825   4.997  1.8621 -0.2266  2.1508
62529SOL     OW96554   7.558   1.603   3.636 -0.2201 -0.3403  0.4204
62529SOL    HW196555   7.483   1.549   3.660  0.0818 -0.0421  2.1569
62529SOL    HW296556   7.582   1.649   3.716 -0.2356  2.1131 -0.8888
62530SOL     OW96557  10.747   3.950   8.594  0.0325 -0.5484 -0.4191
62530SOL    HW196558  10.670   3.902   8.624  1.6325 -1.4283  2.8471
62530SOL    HW296559  10.801   3.884   8.550 -0.2575 -0.3794 -1.0294
62531SOL     OW96560   8.224  12.260   0.476 -0.3438  0.4375  0.2585
62531SOL    HW196561   8.177  12.205   0.539 -0.9571  1.0168  0.3148
62531SOL    HW296562   8.285  12.200   0.433 -0.4573 -0.1260  0.8597
62532SOL     OW96563  12.398   6.963   0.228 -0.3114  0.4553 -0.2844
62532SOL    HW196564  12.367   7.050   0.254 -1.4188  0.7134 -2.2590
62532SOL    HW296565  12.342   6.903   0.276 -0.2086  0.8498  0.3381
62533SOL     OW96566   7.572   0.105   3.647  0.4131 -0.1084  0.0035
62533SOL    HW196567   7.592   0.081   3.557  0.6808  1.1215 -0.2691
62533SOL    HW296568   7.539   0.023   3.686 -2.4976 -0.0386 -1.9790
62534SOL     OW96569   6.561  12.098   3.673  0.1797 -0.0113  0.0771
62534SOL    HW196570   6.484  12.042   3.683  0.5809 -1.3606 -3.0798
62534SOL    HW296571   6.630  12.051   3.720 -0.4000 -0.0442  0.9051
62535SOL     OW96572   9.243   2.633   1.637  0.9514  0.1848 -0.1679
62535SOL    HW196573   9.181   2.662   1.704  0.0011 -0.2088 -0.8640
62535SOL    HW296574   9.329   2.645   1.677  0.4044  0.1207  1.0533
62536SOL     OW96575   6.049   4.273   8.935  0.0620  0.0169 -0.6950
62536SOL    HW196576   5.987   4.339   8.965 -0.9330 -1.1754 -0.0308
62536SOL    HW296577   6.114   4.267   9.005  0.4835  0.6731 -1.0152
62537SOL     OW96578   5.794  10.094  10.430 -0.0197  0.0183  0.5992
62537SOL    HW196579   5.729  10.040  10.384 -0.0321  0.5085  0.0257
62537SOL    HW296580   5.753  10.115  10.514 -0.4356 -0.0190  0.4070
62538SOL     OW96581   0.751  10.116   3.487 -0.5652 -0.2770 -0.2204
62538SOL    HW196582   0.757  10.076   3.574  1.0365 -1.2083 -0.7219
62538SOL    HW296583   0.779  10.207   3.500 -0.5893 -0.3400  0.2737
62539SOL     OW96584   5.404   8.738   1.926  0.5062  0.0973 -0.3612
62539SOL    HW196585   5.355   8.774   1.853 -0.0868  2.2303  1.0005
62539SOL    HW296586   5.470   8.681   1.886 -0.8056 -0.0446 -2.4217
62540SOL     OW96587   5.548  11.674   1.592 -0.1265 -0.2528  0.1212
62540SOL    HW196588   5.505  11.628   1.520 -1.8777 -2.4672  2.4101
62540SOL    HW296589   5.621  11.618   1.617  0.7615  0.7370 -0.1813
62541SOL     OW96590   4.954   3.630  12.198 -0.8886  0.0520 -0.1996
62541SOL    HW196591   5.016   3.696  12.166 -0.4870 -0.5040 -0.5829
62541SOL    HW296592   4.956   3.639  12.293  0.2376 -0.3529 -0.1709
62542SOL     OW96593   5.140   3.709   6.185  0.1166  0.3769 -0.0375
62542SOL    HW196594   5.188   3.639   6.229 -0.1109  1.0701  1.3764
62542SOL    HW296595   5.083   3.664   6.123 -1.1689 -0.8756  1.9203
62543SOL     OW96596   4.816   5.696  10.776  0.7004  0.3934 -0.0826
62543SOL    HW196597   4.809   5.694  10.680 -0.3743  0.0741 -0.0133
62543SOL    HW296598   4.776   5.614  10.804  0.2757  0.8556  0.6858
62544SOL     OW96599  11.291   3.164  10.067 -0.2403 -0.4475  0.2868
62544SOL    HW196600  11.273   3.077  10.031 -0.4192 -0.8554  1.3015
62544SOL    HW296601  11.373   3.152  10.117 -1.0675 -0.4561  1.7108
62545SOL     OW96602   6.147   0.610   2.562 -0.0952  0.2203  0.6911
62545SOL    HW196603   6.160   0.538   2.624  0.7655 -0.0717  0.1803
62545SOL    HW296604   6.065   0.651   2.591 -0.0696 -0.3326  1.6031
62546SOL     OW96605  10.695   4.403   2.482  0.1810  0.1748 -0.0380
62546SOL    HW196606  10.718   4.310   2.477  0.7039  0.3500 -1.0480
62546SOL    HW296607  10.601   4.405   2.468  0.1138 -0.2253  0.3230
62547SOL     OW96608  11.215   4.251   7.521  0.2044 -0.3095  0.3332
62547SOL    HW196609  11.126   4.217   7.510 -0.0296  0.3104  0.2563
62547SOL    HW296610  11.267   4.204   7.455  0.2237 -1.6562  1.2793
62548SOL     OW96611   4.886   1.956   3.086  0.1637 -0.1277 -0.2277
62548SOL    HW196612   4.960   1.921   3.137 -0.8463  0.7085  1.9431
62548SOL    HW296613   4.910   2.047   3.068  0.0650 -0.1274 -0.3579
62549SOL     OW96614  10.082   1.048   6.113  0.5081 -0.7332  0.0095
62549SOL    HW196615  10.028   1.126   6.100 -1.3300 -1.9252  0.0373
62549SOL    HW296616  10.152   1.076   6.172  0.6862  1.2005 -1.0460
62550SOL     OW96617   2.516   6.281   9.694 -0.6951  0.4087 -0.1363
62550SOL    HW196618   2.450   6.239   9.749 -0.6681 -0.9867 -1.1183
62550SOL    HW296619   2.486   6.264   9.605 -0.6986  2.5588 -0.6040
62551SOL     OW96620   4.956   8.715   2.949  0.6873 -0.3115 -0.3707
62551SOL    HW196621   4.932   8.805   2.974  0.7254 -0.4966  0.3251
62551SOL    HW296622   5.032   8.726   2.892  1.1215  0.0562  0.2763
62552SOL     OW96623   8.436   4.481  12.406 -0.2544 -0.0236 -0.0597
62552SOL    HW196624   8.426   4.572  12.380 -3.1241  0.5828  2.5747
62552SOL    HW296625   8.513   4.481  12.463 -0.5370  0.8828  0.3402
62553SOL     OW96626  11.370   1.130   4.510  0.3677 -0.2488  0.3902
62553SOL    HW196627  11.312   1.058   4.533  0.0129  0.1595  0.8089
62553SOL    HW296628  11.438   1.130   4.577  0.0556  0.1424  0.7155
62554SOL     OW96629   2.261   8.325   5.664 -0.0268  0.1660 -0.2885
62554SOL    HW196630   2.331   8.389   5.680 -0.0267 -0.2878  1.7362
62554SOL    HW296631   2.307   8.246   5.634  0.3121 -0.0144  0.6860
62555SOL     OW96632   2.672  12.050   1.996  0.5003  0.0970 -0.5328
62555SOL    HW196633   2.720  12.034   1.915  1.3927 -1.5188  0.2508
62555SOL    HW296634   2.588  12.085   1.968  0.7603 -0.4811 -2.1637
62556SOL     OW96635   8.827   1.333   4.662  0.4117  0.6656  0.3808
62556SOL    HW196636   8.767   1.386   4.610  0.0096 -0.7584 -0.6560
62556SOL    HW296637   8.798   1.243   4.647  2.3548 -0.0022  0.4349
62557SOL     OW96638  10.511   0.167   7.759  0.3678  0.1326  0.0562
62557SOL    HW196639  10.488   0.110   7.832  0.7483 -0.5663 -0.3608
62557SOL    HW296640  10.596   0.204   7.783  0.6910 -0.4226 -0.2106
62558SOL     OW96641   0.449   5.053   1.414 -0.2674 -0.6735 -0.2369
62558SOL    HW196642   0.383   5.106   1.459 -0.8198 -0.7679 -0.9082
62558SOL    HW296643   0.426   5.061   1.321  0.3692 -1.1143 -0.4366
62559SOL     OW96644  10.552   7.658   7.031 -0.0154 -0.0919 -0.3027
62559SOL    HW196645  10.473   7.626   6.987 -0.2980  1.2199 -0.7791
62559SOL    HW296646  10.547   7.622   7.120  0.2282 -2.2331 -1.1062
62560SOL     OW96647  12.257  10.439  11.076  0.1784  0.1327  0.3261
62560SOL    HW196648  12.235  10.377  11.146 -1.4967  0.4101  0.1090
62560SOL    HW296649  12.176  10.489  11.064  1.1826  1.7064 -0.1717
62561SOL     OW96650   9.453  10.846   9.858  0.1180  0.2972 -0.4695
62561SOL    HW196651   9.510  10.834   9.783  1.2445  0.9144  0.2571
62561SOL    HW296652   9.365  10.850   9.821  0.5393 -0.6182 -1.6191
62562SOL     OW96653   1.297   2.994   3.788  0.2105  0.3656  0.0171
62562SOL    HW196654   1.245   3.041   3.854  1.8150  2.0464  0.1642
62562SOL    HW296655   1.385   3.031   3.795  0.3905  0.9352 -3.3240
62563SOL     OW96656  11.858   4.150  11.874 -0.0006 -0.2642  0.4910
62563SOL    HW196657  11.933   4.108  11.915 -1.0565 -1.4073  1.3507
62563SOL    HW296658  11.797   4.166  11.947 -1.1083 -0.5366 -0.3398
62564SOL     OW96659   4.959   1.955   5.582  0.6799 -0.5637  0.4356
62564SOL    HW196660   4.946   1.880   5.524  0.2850  0.4122 -0.8008
62564SOL    HW296661   4.902   2.023   5.546  3.8766  1.6616 -0.9919
62565SOL     OW96662  11.133   5.395   2.261 -0.3386 -0.3981 -0.2585
62565SOL    HW196663  11.225   5.419   2.259 -0.0168 -1.4798  0.5271
62565SOL    HW296664  11.123   5.345   2.342 -1.9933  1.1739  0.6024
62566SOL     OW96665   6.930   3.294   6.921  0.7065 -1.1478  0.3623
62566SOL    HW196666   6.969   3.333   6.999 -0.0990 -2.5978  1.5445
62566SOL    HW296667   6.999   3.298   6.855  1.2400  0.5556  0.9828
62567SOL     OW96668   3.021   6.835  10.759 -0.0285  0.4402 -0.1461
62567SOL    HW196669   3.074   6.804  10.685  0.4135  0.5233  0.1317
62567SOL    HW296670   2.984   6.755  10.796  0.8747  0.2560  0.3905
62568SOL     OW96671   5.132   7.636   3.883  0.3776  0.4821 -0.3563
62568SOL    HW196672   5.148   7.542   3.869 -0.7274 -0.0903  1.8057
62568SOL    HW296673   5.180   7.679   3.812  0.3120 -1.7358 -1.8525
62569SOL     OW96674   4.346   8.798  11.573  0.4160  0.1159 -0.2599
62569SOL    HW196675   4.420   8.813  11.633  1.8568  0.8613 -2.1176
62569SOL    HW296676   4.309   8.884  11.559 -0.4044 -0.1655  0.1267
62570SOL     OW96677   9.703  11.718   4.787 -0.6477  0.0284  0.0449
62570SOL    HW196678   9.779  11.752   4.739 -0.5064  0.0936  0.3129
62570SOL    HW296679   9.649  11.678   4.720  0.6454 -1.9531  0.0913
62571SOL     OW96680   1.414   6.745   2.114 -0.1443  0.0009 -0.1665
62571SOL    HW196681   1.467   6.814   2.074 -0.0217  0.1367  0.2233
62571SOL    HW296682   1.455   6.730   2.199  0.8918 -1.7581 -0.9191
62572SOL     OW96683   5.229   4.527   5.414  0.1736  0.2660  0.2249
62572SOL    HW196684   5.201   4.542   5.505 -0.0203  1.4552 -0.0155
62572SOL    HW296685   5.148   4.512   5.366  0.1934  0.5625  0.0933
62573SOL     OW96686   7.960  12.182   4.879  0.5429  0.3273  0.3452
62573SOL    HW196687   8.001  12.200   4.795 -0.8588 -0.8729 -0.6653
62573SOL    HW296688   7.971  12.087   4.891 -0.3672  0.2731  0.8740
62574SOL     OW96689   0.665  12.340   7.186  0.2306  0.1186 -0.0457
62574SOL    HW196690   0.677  12.330   7.281  0.3107 -1.7085 -0.2009
62574SOL    HW296691   0.583  12.294   7.168  0.8716 -0.6912 -1.0225
62575SOL     OW96692   0.704   0.995   6.372  0.0640 -0.3892 -0.0463
62575SOL    HW196693   0.683   1.085   6.398 -1.0114 -0.7164  0.2498
62575SOL    HW296694   0.706   0.998   6.276 -0.3405 -0.1278 -0.0491
62576SOL     OW96695  11.005   4.819   7.867 -0.4674  0.0977  0.1495
62576SOL    HW196696  10.927   4.829   7.921 -1.2284  1.4247 -1.1546
62576SOL    HW296697  10.983   4.858   7.783  0.8938 -1.3740 -0.9758
62577SOL     OW96698   1.973   4.655   1.981 -0.4073  0.1141  0.7114
62577SOL    HW196699   2.059   4.693   1.962  0.0115 -0.6198  1.1234
62577SOL    HW296700   1.988   4.595   2.054 -1.3159  0.1459  0.9378
62578SOL     OW96701   4.546   3.282   4.020 -0.5257 -0.1134  0.0054
62578SOL    HW196702   4.548   3.228   4.099 -1.7185  1.0736  0.9013
62578SOL    HW296703   4.611   3.350   4.036  0.0415 -0.5069 -0.5557
62579SOL     OW96704   3.509   3.216   6.352  0.1535  0.3920  0.6619
62579SOL    HW196705   3.551   3.230   6.436  2.3065  1.4062 -0.4973
62579SOL    HW296706   3.439   3.281   6.348  0.0828  0.3784  1.6098
62580SOL     OW96707   8.315  12.215   3.716  0.1489 -0.2428 -0.3010
62580SOL    HW196708   8.399  12.173   3.734  0.7544  0.6849 -0.8708
62580SOL    HW296709   8.256  12.143   3.694  1.7270 -0.7347 -3.5756
62581SOL     OW96710  12.122  12.202  10.726 -0.1775  0.3395 -0.1020
62581SOL    HW196711  12.081  12.216  10.641 -0.1625 -2.2119 -0.5933
62581SOL    HW296712  12.179  12.278  10.737 -1.2099  1.4145 -1.7125
62582SOL     OW96713   4.550   2.038  10.287 -0.2170 -0.3981  0.3198
62582SOL    HW196714   4.554   2.079  10.201  0.7098 -1.1543 -0.0070
62582SOL    HW296715   4.572   2.109  10.348 -2.0743  0.4422  0.0578
62583SOL     OW96716   0.530   4.701   7.152 -0.2912 -0.0412  0.1281
62583SOL    HW196717   0.449   4.730   7.193 -1.7148 -0.9565 -1.8463
62583SOL    HW296718   0.512   4.610   7.125  0.5884  0.3767 -2.1414
62584SOL     OW96719   2.627   6.118   1.809 -0.3565  0.2522 -0.8504
62584SOL    HW196720   2.693   6.153   1.868 -1.5613  1.4313 -0.1248
62584SOL    HW296721   2.676   6.070   1.742  1.0915 -0.3762  0.6201
62585SOL     OW96722  12.204   1.916  10.346 -0.1094 -0.0831 -0.0712
62585SOL    HW196723  12.123   1.941  10.391 -0.4604  0.0654 -0.7762
62585SOL    HW296724  12.274   1.955  10.399 -0.5269  0.2578  0.2343
62586SOL     OW96725   8.316   0.444   0.150  0.5860 -0.5139 -0.3472
62586SOL    HW196726   8.331   0.417   0.060 -1.6722 -1.5352 -0.4779
62586SOL    HW296727   8.224   0.425   0.166  0.4156  1.5365  1.5518
62587SOL     OW96728  12.164   5.556  10.077  0.6660  0.4264  0.4841
62587SOL    HW196729  12.191   5.549  10.169  2.5126  1.5518  0.0679
62587SOL    HW296730  12.161   5.650  10.060 -1.8298  0.3064 -0.0412
62588SOL     OW96731   6.356  12.111  12.052  0.2933 -0.0483  0.2673
62588SOL    HW196732   6.345  12.035  11.995 -0.0017  2.1387 -2.8393
62588SOL    HW296733   6.446  12.140  12.036  0.0523  0.8760  0.5256
62589SOL     OW96734   0.430   0.566   0.060 -0.6117  0.7567  0.4666
62589SOL    HW196735   0.525   0.559   0.060 -0.6707 -0.2487 -0.1360
62589SOL    HW296736   0.408   0.600   0.147  0.1216 -1.8742  1.7643
62590SOL     OW96737   2.832  11.021   1.960 -0.8702 -0.0903 -0.3443
62590SOL    HW196738   2.790  11.051   2.040 -0.7369 -0.5831 -0.0837
62590SOL    HW296739   2.818  11.092   1.897 -1.3072  0.1337  0.0009
62591SOL     OW96740  11.228   7.547   1.450  0.1198  0.3459  1.3826
62591SOL    HW196741  11.186   7.489   1.386  0.7630  1.5177 -0.1551
62591SOL    HW296742  11.171   7.542   1.527 -1.1277 -0.4880  0.4513
62592SOL     OW96743   3.207   3.357  10.742  0.4483 -0.2459 -0.0483
62592SOL    HW196744   3.231   3.264  10.744 -2.9520 -1.4457 -3.4040
62592SOL    HW296745   3.269   3.396  10.680  0.2878 -0.9018 -0.6309
62593SOL     OW96746   3.757  11.254   0.873  0.5696  0.4995  0.2201
62593SOL    HW196747   3.754  11.160   0.891  2.4234  0.3032 -0.2989
62593SOL    HW296748   3.789  11.293   0.954 -0.3048  0.7171  0.4726
62594SOL     OW96749   5.599   3.311   9.475 -0.9962  0.5612 -0.1944
62594SOL    HW196750   5.565   3.243   9.416 -3.1730 -0.3955  1.9732
62594SOL    HW296751   5.691   3.321   9.451 -1.5232 -0.4985 -2.9999
62595SOL     OW96752   5.351   1.147   1.684 -0.2425  0.4681  0.1366
62595SOL    HW196753   5.392   1.068   1.648 -0.3017  0.1343  0.8006
62595SOL    HW296754   5.415   1.181   1.746 -0.7944  0.1718  0.8774
62596SOL     OW96755   9.246   9.442   1.447  0.1072  0.0190 -0.1799
62596SOL    HW196756   9.268   9.482   1.532  1.1236  3.0492 -1.7337
62596SOL    HW296757   9.310   9.372   1.438  0.2369 -0.1148  1.3718
62597SOL     OW96758   9.664   5.521   0.718  0.2675  0.2848 -0.0403
62597SOL    HW196759   9.699   5.601   0.757  1.7970 -0.0422 -0.6680
62597SOL    HW296760   9.658   5.459   0.791 -1.7986  1.1973  0.6372
62598SOL     OW96761   7.122   9.279   9.637 -0.1274  0.0496 -0.4532
62598SOL    HW196762   7.072   9.318   9.564 -0.3516 -1.0286 -0.8885
62598SOL    HW296763   7.132   9.187   9.613  1.5075  0.0982 -0.0509
62599SOL     OW96764  12.571   5.124  11.001 -0.2568 -0.0758 -0.0822
62599SOL    HW196765  12.529   5.204  11.031  0.7785 -0.1279  1.6648
62599SOL    HW296766  12.577   5.070  11.080 -2.2468 -2.5369 -1.4540
62600SOL     OW96767   7.920   1.963   3.573 -0.1091 -0.3182 -0.0531
62600SOL    HW196768   7.880   2.048   3.560  1.4812  0.6214  0.8822
62600SOL    HW296769   7.855   1.900   3.541 -1.8681  1.1585  0.4962
62601SOL     OW96770   2.086   5.891   8.814  0.0332  0.5162 -0.5638
62601SOL    HW196771   2.041   5.924   8.736  0.5916 -0.4493 -1.3219
62601SOL    HW296772   2.047   5.806   8.831  0.0424  0.6421  0.1063
62602SOL     OW96773   9.754   6.112   5.587 -0.2996  0.4981  0.2509
62602SOL    HW196774   9.714   6.162   5.516  0.6871  1.4151  0.3038
62602SOL    HW296775   9.838   6.082   5.550 -1.1186 -1.6976  0.0063
62603SOL     OW96776   3.635  11.557   6.253 -0.2836 -0.1344  0.6830
62603SOL    HW196777   3.682  11.600   6.182  0.1962 -0.6689  0.6626
62603SOL    HW296778   3.689  11.570   6.330 -1.5695  1.8052  1.3231
62604SOL     OW96779   0.196  11.398   7.263 -0.8027 -0.1186  0.0809
62604SOL    HW196780   0.201  11.357   7.349 -1.0215 -0.8736 -0.2587
62604SOL    HW296781   0.113  11.368   7.226 -0.1366 -0.8143 -0.8969
62605SOL     OW96782  10.040   2.702  11.813 -0.3933  0.2662 -0.0005
62605SOL    HW196783  10.104   2.772  11.798 -1.0778  1.5131  2.2919
62605SOL    HW296784   9.957   2.740  11.784 -0.9266  0.8675  2.1380
62606SOL     OW96785   9.037  12.397   2.482  0.7062 -0.1823 -0.1223
62606SOL    HW196786   9.007  12.436   2.564  0.8920 -0.8619  0.2842
62606SOL    HW296787   8.957  12.378   2.434  0.5832  0.0111  0.0038
62607SOL     OW96788   8.602  12.382   8.676 -0.1191 -0.6324  0.0773
62607SOL    HW196789   8.579  12.311   8.736 -0.8083 -2.2528 -1.9810
62607SOL    HW296790   8.530  12.384   8.613  1.6985 -0.6836 -2.1222
62608SOL     OW96791   6.229   3.271  12.307 -0.6518  0.0776 -0.1587
62608SOL    HW196792   6.151   3.324  12.324  0.9005  1.8325  2.0849
62608SOL    HW296793   6.245   3.224  12.389  2.1336  1.9110  0.4737
62609SOL     OW96794  10.058   8.676   3.158  0.4845  0.1224  0.0248
62609SOL    HW196795   9.965   8.687   3.140 -0.0521 -2.8364  0.4458
62609SOL    HW296796  10.099   8.676   3.071  0.2763  2.1990 -0.1287
62610SOL     OW96797   8.456   3.076  10.491 -0.1102  0.5364  0.5019
62610SOL    HW196798   8.482   3.124  10.570 -1.3305  1.0074  0.6318
62610SOL    HW296799   8.414   2.996  10.524  1.5116 -0.4486  0.2880
62611SOL     OW96800   3.496   8.622   4.709  0.3422 -0.4496  0.2812
62611SOL    HW196801   3.422   8.561   4.715  0.6898 -0.9918 -0.6929
62611SOL    HW296802   3.535   8.604   4.623  1.5745 -0.1229  0.7520
62612SOL     OW96803   2.886  11.894  11.843  0.1739  0.1492  0.0269
62612SOL    HW196804   2.810  11.885  11.785  0.8157 -1.2347 -0.6465
62612SOL    HW296805   2.918  11.805  11.855  0.4258  0.4778  2.0658
62613SOL     OW96806   3.285   5.051  10.943 -0.0355  0.6912 -0.2046
62613SOL    HW196807   3.365   5.104  10.941  0.0315  0.5957 -0.0719
62613SOL    HW296808   3.266   5.041  11.036  2.0924 -2.7587  0.0202
62614SOL     OW96809  10.220   3.634  10.695  0.3591  0.1602 -0.1443
62614SOL    HW196810  10.199   3.574  10.766  0.4597  0.6877  0.3340
62614SOL    HW296811  10.142   3.688  10.684  0.2703 -0.0483 -0.5710
62615SOL     OW96812   4.901   1.557   3.126  0.2677 -0.5744 -0.4459
62615SOL    HW196813   4.947   1.527   3.047  0.8190 -0.2896 -0.2321
62615SOL    HW296814   4.872   1.476   3.168  1.0864 -0.7914 -0.2734
62616SOL     OW96815   1.421   6.005  10.070 -0.7194  0.1775  0.4224
62616SOL    HW196816   1.454   6.012   9.981  0.6520 -0.7033  0.8258
62616SOL    HW296817   1.423   6.095  10.103  1.2275  0.1856  0.3759
62617SOL     OW96818   7.297  12.288  12.414  0.2994 -0.4368  0.0083
62617SOL    HW196819   7.211  12.278  12.374 -0.2874  1.9752  0.4852
62617SOL    HW296820   7.350  12.331  12.347  0.3787  0.2910  0.5147
62618SOL     OW96821   4.387   1.350  10.501 -0.1703  0.0411  0.0797
62618SOL    HW196822   4.298   1.381  10.521 -0.4130 -0.0465 -0.8122
62618SOL    HW296823   4.418   1.411  10.433 -0.0240 -0.6688 -0.4984
62619SOL     OW96824   0.138   3.504   1.291  0.1935  0.1285  0.1090
62619SOL    HW196825   0.131   3.531   1.382 -0.1831  0.9803 -0.1563
62619SOL    HW296826   0.078   3.429   1.283 -2.2389  1.9598 -0.1104
62620SOL     OW96827   0.534   3.550   3.639 -0.2346  0.3093 -0.0141
62620SOL    HW196828   0.624   3.521   3.623  0.4174  0.7777  2.4593
62620SOL    HW296829   0.542   3.642   3.661 -1.3574  0.4171  0.0048
62621SOL     OW96830   1.679   5.169   1.505  0.1724 -0.0116  0.1116
62621SOL    HW196831   1.723   5.236   1.452 -0.1423 -0.4240 -0.6901
62621SOL    HW296832   1.670   5.094   1.446  3.4349 -2.0240  1.9210
62622SOL     OW96833   7.471   3.893   3.231 -0.0584  0.0901  0.4029
62622SOL    HW196834   7.511   3.819   3.277  0.5077  0.6549  0.8399
62622SOL    HW296835   7.438   3.949   3.301  0.8851  1.0010  0.1307
62623SOL     OW96836   2.949   4.033   5.736  0.1152  0.0316  0.2668
62623SOL    HW196837   2.861   4.024   5.771 -0.5306 -0.0777 -1.3134
62623SOL    HW296838   3.004   3.981   5.795 -0.7429  0.6456  1.6630
62624SOL     OW96839   7.874   9.439   7.853 -0.1897  1.0101  0.1546
62624SOL    HW196840   7.835   9.359   7.889  0.4993 -0.2515 -1.7475
62624SOL    HW296841   7.920   9.479   7.927 -0.0463 -0.6813  1.0250
62625SOL     OW96842   4.914   3.319   7.628  0.0087 -0.4499  0.4083
62625SOL    HW196843   4.987   3.257   7.623  1.1206  0.7352  1.1784
62625SOL    HW296844   4.849   3.285   7.567  1.1574 -1.6060 -0.2188
62626SOL     OW96845  11.311   3.946   5.036 -0.0884  0.5052  0.3290
62626SOL    HW196846  11.368   4.015   5.001  1.2438 -1.6060 -2.0249
62626SOL    HW296847  11.242   3.938   4.970 -0.8246  0.2726  1.1170
62627SOL     OW96848  11.291   3.748   4.462  0.1397 -0.4585  0.0151
62627SOL    HW196849  11.216   3.739   4.520 -1.0801 -0.4116 -1.4894
62627SOL    HW296850  11.318   3.657   4.445  0.8085 -0.4611  0.9899
62628SOL     OW96851  12.524   3.068  11.298  0.4629  0.1407  0.3606
62628SOL    HW196852  12.485   3.142  11.345  0.9873 -0.0447  1.1159
62628SOL    HW296853  12.489   3.074  11.210  0.9958  1.6729  0.2214
62629SOL     OW96854   5.087   0.224   1.055 -0.1170  0.3403 -0.7576
62629SOL    HW196855   5.087   0.309   1.098 -2.2537  0.2111 -0.3735
62629SOL    HW296856   5.135   0.237   0.974 -1.5373  2.2821 -1.3506
62630SOL     OW96857   3.442   3.984   2.215  0.7275 -0.2460  0.5852
62630SOL    HW196858   3.524   4.026   2.242  0.8689 -0.0090 -0.1853
62630SOL    HW296859   3.464   3.941   2.133 -0.7139  2.5914 -1.4309
62631SOL     OW96860  11.741   8.356  10.284 -0.4852 -0.3417  0.1014
62631SOL    HW196861  11.737   8.284  10.221 -0.5632 -0.4374  0.2149
62631SOL    HW296862  11.699   8.429  10.239 -0.2007 -0.3021 -0.1003
62632SOL     OW96863   7.125   9.672   4.656 -0.4455  0.7347  0.0444
62632SOL    HW196864   7.081   9.672   4.571 -2.5011  1.0377  1.0547
62632SOL    HW296865   7.085   9.745   4.704 -0.6904 -0.5640  1.9261
62633SOL     OW96866  11.399   7.651   6.109  0.6028 -0.6987  0.5100
62633SOL    HW196867  11.358   7.570   6.140 -1.1847 -0.0339 -0.0241
62633SOL    HW296868  11.327   7.705   6.080  1.9116  0.3044 -1.0515
62634SOL     OW96869   6.792   7.874   8.498 -0.0899 -0.0913  0.5000
62634SOL    HW196870   6.784   7.943   8.431  0.0775 -0.9577 -0.4411
62634SOL    HW296871   6.729   7.808   8.471 -0.7990  0.0205  1.8331
62635SOL     OW96872   5.084   8.335   5.445 -0.5692  0.3707 -0.1509
62635SOL    HW196873   4.993   8.335   5.415 -0.4653 -0.0281 -0.4789
62635SOL    HW296874   5.130   8.390   5.381 -0.1132 -1.4796 -1.5064
62636SOL     OW96875   6.050   7.238   5.106 -0.4637  0.4008 -0.3597
62636SOL    HW196876   6.010   7.156   5.080 -0.0417 -0.2682  1.0174
62636SOL    HW296877   6.101   7.265   5.029  0.1098 -1.0772 -0.5291
62637SOL     OW96878   6.026  11.678  11.055 -0.2429 -0.2486 -0.8366
62637SOL    HW196879   5.941  11.638  11.036 -0.2652 -0.3136 -0.6040
62637SOL    HW296880   6.086  11.637  10.993 -0.3159 -0.4513 -0.7749
62638SOL     OW96881   4.072  11.304   3.976  0.1905  0.0485  0.8067
62638SOL    HW196882   3.989  11.266   4.007  2.5201 -2.5521  4.7531
62638SOL    HW296883   4.103  11.242   3.910 -0.2646  0.1715  0.4732
62639SOL     OW96884  11.668  12.289   2.905 -0.1813  0.6812  0.5157
62639SOL    HW196885  11.611  12.366   2.910  1.3110  1.7908  1.3678
62639SOL    HW296886  11.695  12.273   2.995 -0.8057 -1.1599  0.4126
62640SOL     OW96887   7.284   0.036   4.434 -0.3707 -0.4335 -0.0003
62640SOL    HW196888   7.223  -0.036   4.449 -1.8118  0.6038 -0.7539
62640SOL    HW296889   7.360   0.013   4.488 -1.5009 -1.6280  1.1702
62641SOL     OW96890   2.426   8.869   3.325  1.1708  0.1219  0.0474
62641SOL    HW196891   2.480   8.801   3.365  1.6586  1.4762  1.8473
62641SOL    HW296892   2.488   8.925   3.279  0.8647 -0.1848 -0.7554
62642SOL     OW96893   7.810   6.035  10.434  0.0507  0.4304 -0.2330
62642SOL    HW196894   7.903   6.015  10.432 -0.1729 -1.1671  1.9096
62642SOL    HW296895   7.768   5.962  10.388 -0.2233  0.5524 -0.1798
62643SOL     OW96896   2.201   9.661   6.390  0.1113  0.2446  0.0325
62643SOL    HW196897   2.274   9.675   6.330 -0.5024 -1.6926 -1.2688
62643SOL    HW296898   2.207   9.733   6.453 -0.0429  3.3245 -3.1570
62644SOL     OW96899   3.046  10.535   1.797 -0.2881 -0.1128 -0.2007
62644SOL    HW196900   2.983  10.513   1.728 -1.0709  1.2148  0.0563
62644SOL    HW296901   3.114  10.468   1.789  0.4178  0.8052 -3.2256
62645SOL     OW96902   2.089  11.796  10.654 -0.8358  0.2961  0.4442
62645SOL    HW196903   2.126  11.877  10.689 -2.0646 -0.0699  2.8807
62645SOL    HW296904   2.136  11.726  10.701  2.3993 -0.7499 -3.7689
62646SOL     OW96905  10.969   7.006   7.715  0.1739 -0.4825 -0.7547
62646SOL    HW196906  10.945   7.051   7.796  0.9318 -1.9547  0.3204
62646SOL    HW296907  11.013   7.073   7.662  0.3609  0.3035  0.3636
62647SOL     OW96908   1.314  10.459   6.950 -0.2905 -0.1555 -0.2402
62647SOL    HW196909   1.246  10.419   7.005 -0.0991  0.9450  0.8344
62647SOL    HW296910   1.292  10.552   6.948  1.6428  0.3770  0.8635
62648SOL     OW96911   1.609  11.223   1.697 -1.3720 -0.4433  0.6075
62648SOL    HW196912   1.622  11.150   1.757  3.1377 -0.0320  0.4759
62648SOL    HW296913   1.626  11.302   1.749 -1.2898  0.1935 -0.3446
62649SOL     OW96914  11.243   6.222   9.953 -0.2624 -0.2138  0.1033
62649SOL    HW196915  11.289   6.276  10.018 -0.5471 -2.5022  2.3593
62649SOL    HW296916  11.311   6.197   9.890  0.3048  1.0492  0.1827
62650SOL     OW96917  11.550   3.428   0.386  0.7542 -0.4745 -0.2190
62650SOL    HW196918  11.557   3.523   0.388 -1.2593 -0.2770 -0.8633
62650SOL    HW296919  11.537   3.403   0.478 -2.7284  0.3128 -0.3530
62651SOL     OW96920  10.943   4.833   4.089 -0.1190  0.0090 -0.1226
62651SOL    HW196921  10.893   4.784   4.154  0.2797 -0.6572 -0.3055
62651SOL    HW296922  10.990   4.766   4.039 -0.3518  0.5100 -1.0439
62652SOL     OW96923  11.806   3.032  12.351  0.5963 -0.2873 -0.2523
62652SOL    HW196924  11.739   2.984  12.302 -0.7143  0.6512  0.5560
62652SOL    HW296925  11.870   3.058  12.284  0.2209 -1.3001 -1.0305
62653SOL     OW96926  11.081  11.274   7.314 -0.2846 -0.2600  0.6732
62653SOL    HW196927  11.133  11.228   7.249 -2.5169  1.7282 -2.8453
62653SOL    HW296928  11.016  11.209   7.342  0.5984 -1.0946  0.8498
62654SOL     OW96929   0.304   1.423   2.480  0.4238  0.3758  0.0519
62654SOL    HW196930   0.325   1.330   2.474  0.1970  0.2513  1.0780
62654SOL    HW296931   0.377   1.467   2.435  0.1669 -0.3154 -1.0795
62655SOL     OW96932   1.295   5.411   2.706 -0.0913 -0.3959 -0.3956
62655SOL    HW196933   1.301   5.495   2.752 -1.6330 -0.3877 -0.1688
62655SOL    HW296934   1.218   5.369   2.742  0.7158 -1.9892 -0.4279
62656SOL     OW96935   1.427   8.937   2.328  0.1889  0.2658  0.1650
62656SOL    HW196936   1.377   8.874   2.277  1.0159 -0.0385 -0.2925
62656SOL    HW296937   1.409   8.914   2.419  0.0049 -0.2540  0.0020
62657SOL     OW96938   6.209  12.556   6.990  0.1831 -0.7045  0.2119
62657SOL    HW196939   6.118  12.575   6.969  0.6255  1.7742  0.2513
62657SOL    HW296940   6.248  12.533   6.906  0.1948  1.4876 -0.4622
62658SOL     OW96941  10.090   2.878   2.048 -0.2308  0.0402 -0.4490
62658SOL    HW196942  10.075   2.806   1.987 -0.2361  0.4350 -0.9122
62658SOL    HW296943  10.024   2.943   2.026 -1.2253 -0.4349  0.9681
62659SOL     OW96944   5.751   9.401   1.342 -0.3223 -0.3552  0.1298
62659SOL    HW196945   5.698   9.365   1.413  1.7324  0.9070  2.4428
62659SOL    HW296946   5.831   9.349   1.342 -0.1127 -0.0629 -1.0004
62660SOL     OW96947  12.248   5.023   9.436  0.0555  0.2717 -0.6580
62660SOL    HW196948  12.215   5.086   9.499 -1.7858 -1.6198  0.3918
62660SOL    HW296949  12.340   5.010   9.461  0.0643  1.4263 -0.0121
62661SOL     OW96950  11.191   8.161  11.889  0.7890  0.0866 -0.4471
62661SOL    HW196951  11.195   8.069  11.863  1.1816 -0.6027  1.7780
62661SOL    HW296952  11.275   8.197  11.863  1.7968 -0.9768  1.1087
62662SOL     OW96953   2.527   0.201  10.688  0.5394 -0.3692 -0.3960
62662SOL    HW196954   2.588   0.273  10.672 -0.0529  0.0897 -0.6584
62662SOL    HW296955   2.515   0.202  10.783  0.6679 -0.2328 -0.3800
62663SOL     OW96956   0.631   5.467   6.402 -0.0774 -0.4292  0.0218
62663SOL    HW196957   0.561   5.402   6.407  0.1878 -0.8090 -0.9302
62663SOL    HW296958   0.704   5.428   6.451 -0.1796 -0.5055  0.1140
62664SOL     OW96959   4.274   0.584  11.481  0.1580 -0.0784 -0.6922
62664SOL    HW196960   4.340   0.514  11.481 -0.1028 -0.3757  1.4145
62664SOL    HW296961   4.325   0.665  11.471  0.6067 -0.4549 -1.5303
62665SOL     OW96962   8.833   5.187   2.844 -0.6832  0.0384 -0.1870
62665SOL    HW196963   8.765   5.120   2.847 -0.1327 -0.6007 -1.5456
62665SOL    HW296964   8.904   5.148   2.795  0.0255  1.2888 -0.2015
62666SOL     OW96965  11.302   6.660   7.688 -0.3177 -0.0564  0.4681
62666SOL    HW196966  11.312   6.691   7.778 -0.4185  1.6835 -0.0849
62666SOL    HW296967  11.387   6.620   7.667  0.1383  0.6621  0.9164
62667SOL     OW96968   8.531   4.893   8.847  0.6857 -0.2371 -0.0182
62667SOL    HW196969   8.599   4.930   8.903 -0.2181 -1.2977  1.8776
62667SOL    HW296970   8.510   4.809   8.887 -2.0840  0.2494 -0.2474
62668SOL     OW96971   9.835   7.588   7.259 -0.7709  0.0238  0.4708
62668SOL    HW196972   9.887   7.590   7.339  0.1061  2.4682 -0.0795
62668SOL    HW296973   9.897   7.611   7.190 -1.8098 -0.6681 -0.7389
62669SOL     OW96974  10.670   1.224   4.888 -0.6128  0.3329 -0.0321
62669SOL    HW196975  10.631   1.243   4.802 -1.6319  0.9895  0.5519
62669SOL    HW296976  10.612   1.268   4.950 -0.7520 -1.4027  1.1204
62670SOL     OW96977   9.400   1.973   4.453 -0.1243 -0.1127  0.1697
62670SOL    HW196978   9.305   1.969   4.456 -0.1817  0.2135 -0.8520
62670SOL    HW296979   9.428   1.958   4.544 -1.1741  0.5892  0.6221
62671SOL     OW96980   3.138   1.053   9.090 -0.1330  0.0148  0.2614
62671SOL    HW196981   3.093   1.136   9.079 -0.5126 -0.0382  1.2825
62671SOL    HW296982   3.084   0.989   9.044 -0.4831  0.1457  0.4886
62672SOL     OW96983   1.883   1.779  10.964 -0.0887  0.0858  0.0804
62672SOL    HW196984   1.871   1.845  11.033  1.2997  0.1215  0.3070
62672SOL    HW296985   1.971   1.745  10.978 -0.2739 -0.8350 -0.8967
62673SOL     OW96986   6.885   7.220   1.304  0.1398  0.1414 -1.1448
62673SOL    HW196987   6.943   7.144   1.307  0.9782  0.7995  0.2167
62673SOL    HW296988   6.939   7.294   1.333 -1.3608  0.7810  0.2210
62674SOL     OW96989  11.721   4.765   5.262  0.6220 -0.1366  0.2677
62674SOL    HW196990  11.733   4.675   5.292  1.2322  0.0181  0.4951
62674SOL    HW296991  11.787   4.777   5.193 -1.4400 -0.8437 -2.0040
62675SOL     OW96992   5.977  10.069   3.012 -0.3531  0.0292 -0.1674
62675SOL    HW196993   5.889  10.108   3.012  0.0748  1.0706 -1.1849
62675SOL    HW296994   5.962   9.975   3.011 -1.4362  0.1575  1.1854
62676SOL     OW96995   5.415   6.934   9.132  0.0842  0.6857 -0.4563
62676SOL    HW196996   5.345   6.893   9.081  0.6061  0.1179 -0.7298
62676SOL    HW296997   5.487   6.944   9.070 -0.2754  2.7668 -0.6106
62677SOL     OW96998   7.257   4.274  12.163  0.1307 -0.0445  0.0954
62677SOL    HW196999   7.241   4.230  12.080  0.4300  0.2486 -0.1211
62677SOL    HW297000   7.306   4.210  12.215  2.8842  0.8816 -1.1562
62678SOL     OW97001   5.067   9.466   3.194 -0.0827  0.3343  0.2790
62678SOL    HW197002   5.071   9.386   3.247  1.0781  0.3066  0.1868
62678SOL    HW297003   4.981   9.504   3.213 -1.1425 -1.5186 -0.5283
62679SOL     OW97004   3.452   8.211  11.515  0.1887  0.1404  0.1415
62679SOL    HW197005   3.403   8.179  11.591  0.7457 -1.2007 -0.0294
62679SOL    HW297006   3.393   8.272  11.472 -0.8894 -0.5533  0.5901
62680SOL     OW97007  10.207   2.319   1.970  0.2417 -0.0565  0.0580
62680SOL    HW197008  10.228   2.314   2.063  2.4495  1.2754 -0.2989
62680SOL    HW297009  10.184   2.229   1.945 -1.6129 -0.2346  2.0845
62681SOL     OW97010   1.297   0.998   5.222 -0.3421 -0.3616 -0.1393
62681SOL    HW197011   1.212   0.953   5.221 -0.2368 -0.8352  2.6574
62681SOL    HW297012   1.274   1.090   5.240 -0.3122 -0.2646 -0.5934
62682SOL     OW97013  11.027   8.521   2.256  0.2870 -0.0867 -0.2273
62682SOL    HW197014  10.978   8.580   2.198 -0.8214 -0.7073  0.0554
62682SOL    HW297015  10.992   8.434   2.238  2.2776 -0.7757 -1.0227
62683SOL     OW97016   7.814   4.617   9.887  0.3921  0.6035  0.4938
62683SOL    HW197017   7.886   4.556   9.903  0.3375  0.6143  0.7795
62683SOL    HW297018   7.807   4.669   9.967  1.0274  1.6024 -0.0773
62684SOL     OW97019   1.444   3.771   7.116 -0.2045 -0.1377  0.2627
62684SOL    HW197020   1.529   3.801   7.149  0.8185 -2.4535  0.0038
62684SOL    HW297021   1.465   3.691   7.068 -2.5581 -0.7794  0.1912
62685SOL     OW97022  10.353   8.922  12.232  0.2752  0.0833 -0.3766
62685SOL    HW197023  10.267   8.900  12.269  0.2265  0.0699 -0.4960
62685SOL    HW297024  10.333   8.954  12.144  0.4150 -0.1579 -0.4959
62686SOL     OW97025   2.290   9.654   1.944 -0.6847  0.3658 -0.5346
62686SOL    HW197026   2.318   9.668   1.853 -1.3367 -0.3955 -0.8613
62686SOL    HW297027   2.366   9.614   1.987  0.7583  3.4491  0.0830
62687SOL     OW97028  10.437   2.822  10.774 -0.8435  0.3387  0.0497
62687SOL    HW197029  10.444   2.760  10.846 -1.5337  0.3062  0.1014
62687SOL    HW297030  10.479   2.778  10.700 -0.7020  0.1047  0.2688
62688SOL     OW97031   2.480   7.362   8.091  0.6546  0.2952  0.5787
62688SOL    HW197032   2.514   7.327   8.009  1.4224  1.6455  0.3018
62688SOL    HW297033   2.408   7.304   8.113 -0.5624  0.7658 -1.8310
62689SOL     OW97034   0.927   3.154  11.550  0.2319  0.4678  0.7983
62689SOL    HW197035   0.861   3.121  11.489  0.4139  2.4286 -0.5617
62689SOL    HW297036   0.880   3.218  11.603  0.7893  1.0846  0.5547
62690SOL     OW97037   2.916   8.040   2.146 -0.0243  0.0610  0.8142
62690SOL    HW197038   2.975   7.997   2.208  1.0276 -1.0003 -0.8393
62690SOL    HW297039   2.932   7.995   2.063 -0.4144  2.2639 -0.5488
62691SOL     OW97040   2.300   0.460   0.442 -0.0054  0.2314 -0.1170
62691SOL    HW197041   2.395   0.460   0.427 -0.0580  2.8012 -1.0383
62691SOL    HW297042   2.262   0.431   0.359 -0.0376 -1.0476  0.3356
62692SOL     OW97043   9.730   8.745  11.821  0.1194  0.2261 -0.1238
62692SOL    HW197044   9.758   8.654  11.809  1.2221  0.5690 -0.3327
62692SOL    HW297045   9.716   8.778  11.732  1.9337  0.8904 -0.2080
62693SOL     OW97046   8.499   3.400   2.723 -0.1648 -0.1265 -0.3689
62693SOL    HW197047   8.450   3.450   2.788  2.2484 -1.4071  2.7346
62693SOL    HW297048   8.590   3.426   2.737  0.7854 -2.7695 -1.0535
62694SOL     OW97049  12.457   2.321  10.522 -0.3194 -0.4489 -0.1855
62694SOL    HW197050  12.418   2.386  10.581  0.5025 -0.9771  0.9868
62694SOL    HW297051  12.531   2.366  10.482  0.2861 -0.6664  0.6719
62695SOL     OW97052  10.642   2.068   6.524  0.6661  0.4630 -0.1744
62695SOL    HW197053  10.691   2.062   6.442  1.9946  1.6892  0.4942
62695SOL    HW297054  10.598   2.153   6.519 -1.6879 -0.7045 -0.8618
62696SOL     OW97055   8.709  10.391   0.692 -0.3907 -0.1519  0.7585
62696SOL    HW197056   8.763  10.454   0.644 -1.0554  1.0682  1.5568
62696SOL    HW297057   8.769  10.323   0.720  0.8768  1.4197  2.0566
62697SOL     OW97058  10.594  10.419   1.115  0.2299  0.4004  0.4638
62697SOL    HW197059  10.674  10.472   1.114  1.0956 -0.8577 -0.8612
62697SOL    HW297060  10.624  10.329   1.109 -1.2709 -0.0634 -1.3862
62698SOL     OW97061   6.361   8.317  10.980 -0.0098  0.0587 -0.1403
62698SOL    HW197062   6.348   8.340  11.072  2.0511 -0.2053  0.2603
62698SOL    HW297063   6.340   8.224  10.976  2.1656 -0.5198  0.6281
62699SOL     OW97064   2.502   6.142   7.318 -0.4087 -0.1108  0.0876
62699SOL    HW197065   2.519   6.160   7.225 -1.0842 -2.3139 -0.5228
62699SOL    HW297066   2.563   6.072   7.340  1.1849  1.7396  1.9446
62700SOL     OW97067   6.923   7.450   9.844 -0.0159  0.2361 -0.2233
62700SOL    HW197068   6.891   7.465   9.755 -1.8849  2.1148  0.6878
62700SOL    HW297069   6.861   7.386   9.880 -0.2519  0.7241  0.2364
62701SOL     OW97070   9.397  10.553   4.347  0.0796 -0.0506  0.2153
62701SOL    HW197071   9.305  10.577   4.335 -0.2950 -0.4662  1.9650
62701SOL    HW297072   9.446  10.630   4.317 -0.7574 -0.3204 -1.9732
62702SOL     OW97073   8.104   2.283   8.904 -0.5679 -0.4253 -0.3106
62702SOL    HW197074   8.067   2.290   8.992 -0.9645  1.5746 -0.5832
62702SOL    HW297075   8.198   2.293   8.916 -0.5713 -0.7048 -0.0592
62703SOL     OW97076   2.510   3.753   5.359 -0.4606 -0.6952 -0.1771
62703SOL    HW197077   2.455   3.699   5.415 -0.8293 -1.4220 -1.1944
62703SOL    HW297078   2.580   3.785   5.416  0.2088 -2.8664  0.3111
62704SOL     OW97079   5.996   6.613   1.198  0.0266 -0.7983  0.4265
62704SOL    HW197080   5.981   6.612   1.103  3.1720  0.9650 -0.2385
62704SOL    HW297081   5.947   6.689   1.229 -0.7357 -1.1823  0.2008
62705SOL     OW97082   4.043   0.238   2.786  0.1136  0.3887 -0.0156
62705SOL    HW197083   4.017   0.322   2.748  0.9511  0.4958 -0.3603
62705SOL    HW297084   4.003   0.239   2.873 -0.8147  0.6548 -0.4284
62706SOL     OW97085  11.812   6.366   9.383 -0.4194 -0.0003  0.3165
62706SOL    HW197086  11.907   6.369   9.391 -0.4412  0.1930  0.5211
62706SOL    HW297087  11.789   6.443   9.332 -0.2906 -1.1952 -1.6382
62707SOL     OW97088   4.155   7.964   6.897  0.2109 -0.3482  0.1572
62707SOL    HW197089   4.109   7.979   6.815  0.4506 -1.1136 -0.1281
62707SOL    HW297090   4.097   7.906   6.947  0.8554 -1.3407 -0.2163
62708SOL     OW97091   9.852   3.478   7.510  0.0863  0.0448 -0.2012
62708SOL    HW197092   9.895   3.493   7.426 -1.0466 -0.1563 -0.8347
62708SOL    HW297093   9.759   3.488   7.492 -0.1937 -0.2095  0.9908
62709SOL     OW97094   3.515   3.441  11.525 -0.2902  0.2691  0.1097
62709SOL    HW197095   3.497   3.513  11.465  2.6946 -1.0639 -2.7086
62709SOL    HW297096   3.541   3.484  11.607 -0.7378  2.3091 -0.7629
62710SOL     OW97097   4.780   2.968   0.328  0.2515 -0.6020 -0.2600
62710SOL    HW197098   4.861   2.976   0.278  0.2461  2.5453  0.0700
62710SOL    HW297099   4.711   2.963   0.261  0.5535 -1.6495 -0.5205
62711SOL     OW97100   3.761  10.885  11.036  0.2819 -0.0322 -0.1608
62711SOL    HW197101   3.838  10.863  11.089  0.3813  1.4522  0.3780
62711SOL    HW297102   3.785  10.969  10.995 -0.9366  0.3141 -0.1915
62712SOL     OW97103   0.223   3.116   5.458 -0.8408 -0.1788 -0.3602
62712SOL    HW197104   0.213   3.209   5.433  0.6726 -0.2769 -1.5194
62712SOL    HW297105   0.318   3.102   5.459 -0.9541 -2.5424 -3.7520
62713SOL     OW97106   0.402   9.385   6.368  0.0464 -0.1191  0.4195
62713SOL    HW197107   0.352   9.327   6.311  1.1378 -0.5101 -0.1737
62713SOL    HW297108   0.342   9.455   6.391 -1.4235 -1.6078  1.3864
62714SOL     OW97109   6.184   6.657  10.139 -0.0643  0.2666  0.0026
62714SOL    HW197110   6.267   6.648  10.092 -0.8351  0.5957 -1.4845
62714SOL    HW297111   6.133   6.580  10.113 -0.7629  0.8010 -0.2497
62715SOL     OW97112   2.432   9.321   0.990 -0.2500  0.0322 -0.3271
62715SOL    HW197113   2.404   9.301   1.079 -2.8618  0.3601 -1.0006
62715SOL    HW297114   2.474   9.407   0.997 -0.5495  0.1119  0.5775
62716SOL     OW97115   1.301   4.165  11.006 -0.1638  0.2121 -0.1692
62716SOL    HW197116   1.260   4.239  10.961 -0.3053 -0.0064 -0.4021
62716SOL    HW297117   1.227   4.115  11.042 -0.0722  0.1518 -0.0645
62717SOL     OW97118   0.318  11.398   8.393  0.0977 -0.3379 -0.2159
62717SOL    HW197119   0.375  11.342   8.446 -0.8986 -2.1878 -1.0168
62717SOL    HW297120   0.301  11.346   8.314  0.1345  1.6256 -1.5891
62718SOL     OW97121   5.303   4.612   8.708 -0.8484 -0.1295 -0.3886
62718SOL    HW197122   5.331   4.543   8.769 -0.9246 -0.1023 -0.3219
62718SOL    HW297123   5.351   4.690   8.737 -2.6110  0.4782  1.1290
62719SOL     OW97124   4.736   8.902   6.005 -0.0386  0.1071  0.7934
62719SOL    HW197125   4.750   8.958   5.929 -0.3852 -1.2379 -0.2956
62719SOL    HW297126   4.647   8.868   5.993  1.0938 -2.7970 -0.0436
62720SOL     OW97127   0.814   4.541   8.730  0.2517  0.4820 -0.2105
62720SOL    HW197128   0.804   4.459   8.779  0.3387  0.6497  0.0924
62720SOL    HW297129   0.904   4.538   8.698 -0.2909 -0.3888 -1.7684
62721SOL     OW97130   7.767   1.065   9.208  0.4494  0.2893  0.0634
62721SOL    HW197131   7.817   0.985   9.228  0.1039  0.3805  1.4412
62721SOL    HW297132   7.707   1.074   9.282 -0.3481  1.1833 -0.6692
62722SOL     OW97133   7.346   9.854   9.584  0.4142 -0.1664 -0.0189
62722SOL    HW197134   7.408   9.809   9.528 -1.7419  0.4211 -3.1697
62722SOL    HW297135   7.300   9.784   9.630  0.6480 -0.8680 -0.8285
62723SOL     OW97136  11.941   5.470   7.528 -0.0212 -0.3722 -0.7208
62723SOL    HW197137  12.029   5.500   7.553  0.4261 -0.6821 -1.8606
62723SOL    HW297138  11.900   5.547   7.488 -0.1359 -0.3413 -0.5484
62724SOL     OW97139  11.756   6.530   5.359  0.0906 -0.2213  0.0311
62724SOL    HW197140  11.747   6.530   5.454  0.7570  0.5005  0.1013
62724SOL    HW297141  11.790   6.443   5.337  0.9635 -0.0164  0.5568
62725SOL     OW97142   7.023   0.643  12.548 -0.0631  0.0334 -0.2522
62725SOL    HW197143   6.957   0.575  12.558 -0.2378  0.4529  2.2252
62725SOL    HW297144   7.003   0.685  12.464 -2.2554 -0.5642 -0.0867
62726SOL     OW97145   3.348  11.019  10.459 -0.4463 -0.2529  0.0041
62726SOL    HW197146   3.423  11.022  10.518 -0.4200 -0.3411 -0.0252
62726SOL    HW297147   3.359  10.938  10.411  1.0975  1.1393 -2.1787
62727SOL     OW97148   7.145   2.643  11.947 -0.0565  0.0385  0.4374
62727SOL    HW197149   7.129   2.736  11.935 -1.1961 -0.2458 -0.4151
62727SOL    HW297150   7.185   2.614  11.866 -0.7859 -0.4282  0.2293
62728SOL     OW97151   6.750   8.394  11.812 -0.1217 -0.0356  0.0193
62728SOL    HW197152   6.720   8.303  11.810  0.7645 -0.3401  0.3217
62728SOL    HW297153   6.790   8.408  11.726  0.8504 -0.3209  0.4166
62729SOL     OW97154  10.804   1.914   3.771  0.0913 -0.1520 -0.4136
62729SOL    HW197155  10.849   1.998   3.779  0.7557 -0.4613 -0.8807
62729SOL    HW297156  10.816   1.888   3.680 -0.0159 -0.8103 -0.2465
62730SOL     OW97157   5.093   8.533   0.900  0.6022  0.0336  0.6367
62730SOL    HW197158   5.031   8.571   0.962 -1.0546  0.2844 -1.0692
62730SOL    HW297159   5.174   8.582   0.914 -0.1360  1.0125  1.6402
62731SOL     OW97160   0.058   2.078   0.374  0.1845  0.5640  0.2179
62731SOL    HW197161  -0.037   2.061   0.377  0.0881  0.5988 -1.4368
62731SOL    HW297162   0.093   2.007   0.319  0.5618  2.5130 -2.2093
62732SOL     OW97163   9.273   8.847   1.760 -0.0199 -0.2441 -0.5435
62732SOL    HW197164   9.330   8.803   1.697 -0.3636 -0.1914 -0.8960
62732SOL    HW297165   9.312   8.934   1.770  1.2954 -0.9514  0.9786
62733SOL     OW97166   9.831   4.066   8.082  0.1262  0.2133  0.4073
62733SOL    HW197167   9.750   4.071   8.133 -0.7127 -0.7468 -0.7927
62733SOL    HW297168   9.882   3.998   8.126 -0.3699 -0.2396  0.2963
62734SOL     OW97169   0.466   0.235   7.001 -0.0881  0.1454  0.7661
62734SOL    HW197170   0.454   0.306   7.064  1.1386 -0.1054  1.3198
62734SOL    HW297171   0.408   0.165   7.031 -0.5780  0.5515  0.7731
62735SOL     OW97172   2.776   2.641  10.938  0.3520  0.0127  0.4717
62735SOL    HW197173   2.744   2.726  10.967 -1.0913 -0.9317  1.7827
62735SOL    HW297174   2.699   2.597  10.901 -0.5181 -2.8611  4.9683
62736SOL     OW97175   5.454   6.498   1.308  0.3709 -0.0190  0.1244
62736SOL    HW197176   5.454   6.428   1.372 -0.5269 -1.4646 -1.3717
62736SOL    HW297177   5.365   6.498   1.273  0.9207  0.5012 -1.3519
62737SOL     OW97178   0.291  12.506   8.633  0.5889  0.2428  0.0984
62737SOL    HW197179   0.257  12.564   8.701  1.1580  0.6038  0.0840
62737SOL    HW297180   0.307  12.423   8.677  0.6656  0.3836  0.3349
62738SOL     OW97181   9.025   6.182   1.285  0.2571  0.1985  0.4132
62738SOL    HW197182   9.090   6.175   1.215 -0.4877  0.8856 -0.3616
62738SOL    HW297183   9.017   6.275   1.301 -0.3771  0.1071  0.6483
62739SOL     OW97184   4.078   8.575  11.945 -0.5113  0.0444  0.3879
62739SOL    HW197185   4.082   8.531  11.860 -0.7029  0.1955  0.3006
62739SOL    HW297186   3.987   8.603  11.953 -1.0845 -1.9462  1.6395
62740SOL     OW97187   6.081   6.155  10.577 -0.8724 -0.2641 -0.3911
62740SOL    HW197188   6.093   6.156  10.672 -1.3461 -0.4588 -0.3260
62740SOL    HW297189   5.990   6.127  10.565 -0.3676 -1.7940 -0.9416
62741SOL     OW97190   2.076   2.610  10.862 -0.4351  0.0507 -0.0655
62741SOL    HW197191   2.138   2.637  10.794 -0.8425 -0.6145 -0.7098
62741SOL    HW297192   2.131   2.594  10.938 -0.1769  3.0994  0.5516
62742SOL     OW97193   1.697  11.608  12.565  0.2341 -0.2385  0.2803
62742SOL    HW197194   1.637  11.682  12.577 -0.1490 -0.7306  1.4837
62742SOL    HW297195   1.784  11.647  12.575  0.0114 -0.0889  1.8254
62743SOL     OW97196   4.144   6.006   0.831  0.4047  0.1173  0.1507
62743SOL    HW197197   4.119   5.915   0.819  1.2896 -0.2588  1.0653
62743SOL    HW297198   4.130   6.024   0.924  0.8576  0.7179  0.1156
62744SOL     OW97199   5.442   0.054   5.223  0.5090  0.2080  0.5854
62744SOL    HW197200   5.537   0.068   5.216  0.7541 -0.5878  1.8693
62744SOL    HW297201   5.434  -0.025   5.277 -0.8737 -0.4443 -0.5073
62745SOL     OW97202   5.579   4.519  11.835 -0.3170  0.4406 -0.2725
62745SOL    HW197203   5.631   4.479  11.905  0.3966  0.1567 -0.9597
62745SOL    HW297204   5.537   4.446  11.791 -1.2126  0.6586  0.1939
62746SOL     OW97205   4.981   5.445   3.164 -0.1666 -0.1094 -0.2426
62746SOL    HW197206   4.894   5.448   3.123 -0.9022 -0.3367  1.2380
62746SOL    HW297207   5.007   5.353   3.159  0.6514  0.1695 -1.9357
62747SOL     OW97208   1.297  10.451  11.495  0.1600 -0.1035 -0.1256
62747SOL    HW197209   1.382  10.416  11.523  0.1731 -0.5524 -0.7239
62747SOL    HW297210   1.245  10.454  11.576  1.0135  1.0057  0.4251
62748SOL     OW97211   8.701   9.109   2.253  0.5036 -0.4339  0.2823
62748SOL    HW197212   8.706   9.149   2.340  0.2837 -0.8602  0.4953
62748SOL    HW297213   8.650   9.029   2.267  0.1550 -0.3174 -0.3075
62749SOL     OW97214   2.216   7.316   5.997 -0.1667 -0.5996  0.2032
62749SOL    HW197215   2.128   7.297   6.029 -0.0586 -1.1716  0.1699
62749SOL    HW297216   2.261   7.232   5.997  0.0612 -0.4887 -0.7718
62750SOL     OW97217   6.754   3.451   2.534  0.0281 -0.3026 -0.7433
62750SOL    HW197218   6.835   3.411   2.503 -0.4081 -0.5642 -1.5859
62750SOL    HW297219   6.721   3.500   2.459  0.1213  0.9754  0.0250
62751SOL     OW97220   6.832   0.222  11.987 -0.3217  0.8980  0.6860
62751SOL    HW197221   6.770   0.153  11.963 -0.0132  0.4717  1.0923
62751SOL    HW297222   6.836   0.279  11.910  0.4757 -0.3100 -0.2139
62752SOL     OW97223  11.109   5.039   3.225 -0.0469  0.3871  0.2940
62752SOL    HW197224  11.065   5.095   3.288  0.5297  1.4500 -0.2345
62752SOL    HW297225  11.202   5.057   3.236  0.0183  1.4372 -1.5927
62753SOL     OW97226  12.333   2.285  11.765  0.1582  0.7551  0.1861
62753SOL    HW197227  12.323   2.214  11.830  0.0712  0.3895 -0.2235
62753SOL    HW297228  12.417   2.267  11.723 -0.6546 -0.1163 -1.1230
62754SOL     OW97229   9.552   2.919   2.271 -0.0510  0.4556  0.3673
62754SOL    HW197230   9.645   2.903   2.284  0.1952  0.3816 -1.2107
62754SOL    HW297231   9.519   2.837   2.234 -0.4496  0.9004 -0.2953
62755SOL     OW97232   8.147   6.803   3.682 -0.5329  0.0838 -0.0347
62755SOL    HW197233   8.185   6.716   3.679 -1.0261 -0.1308 -0.2570
62755SOL    HW297234   8.121   6.821   3.592  1.0547  1.1470 -0.3112
62756SOL     OW97235  11.627   5.939  11.946 -0.1820  0.2457 -0.5419
62756SOL    HW197236  11.598   5.878  12.014  1.5002  0.6133  0.5765
62756SOL    HW297237  11.686   5.888  11.891 -0.9625  0.1477 -1.3114
62757SOL     OW97238   3.921   4.954   2.588 -0.4035 -0.3164  0.1807
62757SOL    HW197239   3.966   4.893   2.530 -1.0956 -0.8536  0.1926
62757SOL    HW297240   3.966   5.037   2.576  1.9138 -1.2371  1.6488
62758SOL     OW97241  11.699   1.624   2.932 -0.3709 -0.3851 -0.3933
62758SOL    HW197242  11.695   1.708   2.886  3.3908  2.1537  3.2510
62758SOL    HW297243  11.756   1.570   2.878  1.0181  1.1818 -0.5737
62759SOL     OW97244   0.041   0.420  11.598  0.2899 -0.7160  0.0194
62759SOL    HW197245   0.119   0.392  11.550  1.5023 -1.0655  2.0757
62759SOL    HW297246   0.073   0.444  11.685 -1.5103  1.8309  0.0843
62760SOL     OW97247   8.970   8.298   2.389 -0.0297 -0.2844 -0.0945
62760SOL    HW197248   9.045   8.336   2.435 -0.9205 -0.0005  1.1676
62760SOL    HW297249   8.925   8.373   2.351 -0.9747 -0.1856  1.1637
62761SOL     OW97250  12.283   3.789  11.582  0.4871  0.2756 -0.1116
62761SOL    HW197251  12.334   3.731  11.639 -0.8848  0.4241  1.3412
62761SOL    HW297252  12.261   3.863  11.638 -0.1183  0.8845 -1.1384
62762SOL     OW97253   2.972   2.635   8.471  0.2045 -0.7175 -0.1841
62762SOL    HW197254   2.939   2.639   8.560 -0.8919  0.8429 -0.6216
62762SOL    HW297255   3.066   2.650   8.479 -0.0360  0.4554  0.6319
62763SOL     OW97256   8.814   7.229  11.652 -0.2455  0.4264  0.7062
62763SOL    HW197257   8.794   7.177  11.574 -0.5040  2.0409 -0.3576
62763SOL    HW297258   8.731   7.233  11.700  0.2915 -1.9353  1.9908
62764SOL     OW97259   3.275   7.392   5.549 -0.4460 -0.5328  0.3899
62764SOL    HW197260   3.264   7.377   5.455 -0.0878 -0.8813  0.4022
62764SOL    HW297261   3.318   7.313   5.581  1.7120  0.5868  0.4370
62765SOL     OW97262   5.534  11.026   2.222  0.4140  0.0813  0.1650
62765SOL    HW197263   5.546  11.121   2.212 -2.4051  0.4707 -0.1677
62765SOL    HW297264   5.597  10.988   2.161  0.2296  1.8157 -1.1938
62766SOL     OW97265   2.054   9.940   5.241  0.5603  0.5055 -0.0170
62766SOL    HW197266   2.010   9.937   5.156 -0.2624 -0.2621  0.4299
62766SOL    HW297267   2.004  10.004   5.291 -0.4888 -0.8613  0.7214
62767SOL     OW97268   8.484   4.942   8.214 -0.3018 -0.6590  0.1722
62767SOL    HW197269   8.496   4.907   8.302  1.3332 -1.7851 -0.4545
62767SOL    HW297270   8.546   5.014   8.208 -1.6234  0.5502  0.4816
62768SOL     OW97271   0.049  10.319   2.791 -0.5506 -0.1334 -0.1733
62768SOL    HW197272   0.041  10.224   2.783  2.1049 -0.4635  0.1995
62768SOL    HW297273   0.032  10.352   2.703  0.2101 -1.1288 -0.7198
62769SOL     OW97274  12.203   4.584   3.417 -0.6057 -0.0089 -0.3527
62769SOL    HW197275  12.230   4.515   3.478 -0.8065  1.4006  1.4061
62769SOL    HW297276  12.278   4.595   3.359 -0.5300 -1.5903 -0.6188
62770SOL     OW97277   8.214   5.814   5.649 -0.4221  0.4280 -0.6245
62770SOL    HW197278   8.199   5.808   5.743  0.0566 -1.0634 -0.6143
62770SOL    HW297279   8.239   5.905   5.635 -2.9393  1.3239  0.2826
62771SOL     OW97280   2.214   8.248  11.749 -0.1361  0.3784  0.1160
62771SOL    HW197281   2.130   8.239  11.704  0.1719 -0.5546 -0.2932
62771SOL    HW297282   2.237   8.341  11.739 -2.6031  1.4693  2.9795
62772SOL     OW97283   9.684   9.664   8.837  0.2178  0.1225 -0.2415
62772SOL    HW197284   9.589   9.665   8.822  0.0225  1.7048  0.9221
62772SOL    HW297285   9.708   9.571   8.827 -1.7130 -0.5747  0.9604
62773SOL     OW97286  10.988   3.126   5.248 -0.1345 -0.8110  0.0592
62773SOL    HW197287  10.944   3.208   5.271  1.0913  0.2552 -1.2493
62773SOL    HW297288  11.033   3.145   5.166  1.1056 -2.4602  0.3157
62774SOL     OW97289  10.661   5.423   3.222 -0.5895 -0.1653 -0.0117
62774SOL    HW197290  10.672   5.383   3.136 -0.8827 -1.5048  0.5585
62774SOL    HW297291  10.659   5.350   3.283 -0.7777  0.7407  1.1058
62775SOL     OW97292   6.179   5.384   3.123  0.5309  0.0046  0.3790
62775SOL    HW197293   6.238   5.456   3.100  0.4415 -0.1638 -0.3718
62775SOL    HW297294   6.173   5.331   3.044 -2.3248  1.1601 -0.2758
62776SOL     OW97295   3.853   2.915   7.620  0.1166 -0.0367 -0.8981
62776SOL    HW197296   3.836   2.980   7.689 -0.4661 -0.1390 -0.9330
62776SOL    HW297297   3.791   2.938   7.551 -0.2486 -0.7567 -0.8204
62777SOL     OW97298   8.494   0.157   1.043  0.4892  0.5444 -0.7274
62777SOL    HW197299   8.532   0.078   1.004  0.5950  0.5272 -0.5906
62777SOL    HW297300   8.570   0.213   1.062  0.6338 -0.2586  1.2765
62778SOL     OW97301   8.556  10.398   6.182  0.3340 -0.2238 -0.2034
62778SOL    HW197302   8.625  10.409   6.117 -0.2398 -0.2356 -0.8201
62778SOL    HW297303   8.488  10.348   6.137  0.1399 -0.6559  0.5561
62779SOL     OW97304   4.172   7.738   8.611 -0.0651 -0.4097 -0.0668
62779SOL    HW197305   4.204   7.773   8.694 -1.9537 -1.9451  1.3950
62779SOL    HW297306   4.133   7.813   8.566  1.3323  0.5162  0.2021
62780SOL     OW97307   8.841  10.141   4.229 -0.8247 -0.4338 -0.1392
62780SOL    HW197308   8.853  10.219   4.175 -0.6560 -0.6069 -0.3533
62780SOL    HW297309   8.924  10.132   4.276 -0.9346 -0.3413  0.0743
62781SOL     OW97310   2.498  10.667  10.977 -0.3219 -0.6526  0.6748
62781SOL    HW197311   2.562  10.722  10.931 -1.3748  0.4165  0.4480
62781SOL    HW297312   2.525  10.577  10.957 -0.4728 -0.2448 -1.6749
62782SOL     OW97313  12.454   6.509   1.510 -0.8144  0.0971  0.1671
62782SOL    HW197314  12.506   6.553   1.576 -2.7193 -0.9179  2.4840
62782SOL    HW297315  12.490   6.420   1.506 -1.2257 -0.0883  0.4851
62783SOL     OW97316   9.681  10.096  12.588 -0.3727 -0.3407 -0.4419
62783SOL    HW197317   9.722  10.034  12.527 -0.0796 -0.1379 -0.4557
62783SOL    HW297318   9.616  10.044  12.634 -2.7767  0.1395 -2.9990
62784SOL     OW97319   7.504   5.436  11.215  0.0921  0.0305 -0.7612
62784SOL    HW197320   7.495   5.416  11.308  0.1192 -3.6178 -1.3976
62784SOL    HW297321   7.418   5.468  11.188  0.3434  2.0503  0.6004
62785SOL     OW97322   0.846   3.172   7.795 -0.1950  0.5975  0.0930
62785SOL    HW197323   0.782   3.230   7.837 -1.2073 -0.7558  0.4929
62785SOL    HW297324   0.803   3.087   7.792  0.2698  0.3540 -2.7195
62786SOL     OW97325   3.920   1.936  10.861 -0.1692 -0.4261 -0.6246
62786SOL    HW197326   3.962   2.015  10.827  0.3037 -1.5588 -2.8915
62786SOL    HW297327   3.990   1.892  10.910  0.6039 -1.0213 -2.1817
62787SOL     OW97328  10.855   0.668   8.238 -0.2042 -0.7112  0.0997
62787SOL    HW197329  10.868   0.585   8.283  0.7621 -1.4681 -1.4905
62787SOL    HW297330  10.788   0.713   8.290 -0.1899 -2.1294  1.4309
62788SOL     OW97331   4.354   8.993   2.455 -0.3992  0.1423  0.4450
62788SOL    HW197332   4.270   9.024   2.419  0.0636  1.1058  0.1646
62788SOL    HW297333   4.408   8.974   2.379  0.3941  1.6661  0.5755
62789SOL     OW97334   7.023  11.456   5.786 -0.2436  0.1144  0.1585
62789SOL    HW197335   7.107  11.409   5.784 -0.5777 -0.5256  0.8462
62789SOL    HW297336   7.046  11.544   5.815  0.0508 -0.4290  1.6812
62790SOL     OW97337  10.774   2.445   5.485  0.0481 -0.2967 -0.1372
62790SOL    HW197338  10.764   2.475   5.395  0.3139  1.7558  0.4621
62790SOL    HW297339  10.800   2.524   5.533  0.0202 -1.3732  1.7124
62791SOL     OW97340   4.249   2.368   6.348  0.1621  0.1237 -0.1018
62791SOL    HW197341   4.286   2.416   6.274 -3.2211  1.4156 -1.1713
62791SOL    HW297342   4.230   2.435   6.414 -0.1298 -0.4838  0.4471
62792SOL     OW97343   1.465   9.983   6.456  0.0437 -0.5490 -0.1574
62792SOL    HW197344   1.376  10.003   6.425 -0.2095  0.1118  0.9212
62792SOL    HW297345   1.511   9.951   6.379 -1.0287 -0.5467 -0.8202
62793SOL     OW97346   7.530   8.367   1.435 -0.2344 -0.2991  0.0113
62793SOL    HW197347   7.458   8.314   1.402 -0.0439 -1.5129  1.4653
62793SOL    HW297348   7.510   8.380   1.528  0.6779  0.5891  0.0957
62794SOL     OW97349   3.772   0.592  12.503  0.3950  0.4639  0.6333
62794SOL    HW197350   3.761   0.628  12.591 -1.7313  0.5151  0.4064
62794SOL    HW297351   3.717   0.514  12.503  0.7780  0.1780 -0.5117
62795SOL     OW97352   0.138   7.628   4.817 -0.3396 -0.1226 -0.2952
62795SOL    HW197353   0.050   7.667   4.820  0.4615  1.7287  2.3873
62795SOL    HW297354   0.197   7.702   4.805  1.0674 -0.8050  1.9115
62796SOL     OW97355   1.176   7.553   5.561  0.6687  0.2413 -0.0967
62796SOL    HW197356   1.115   7.567   5.633 -1.0717 -1.4319 -1.1233
62796SOL    HW297357   1.263   7.559   5.600 -0.2238 -0.8283  2.2027
62797SOL     OW97358   4.566  11.724   5.569 -0.0585  0.2764 -0.1595
62797SOL    HW197359   4.539  11.644   5.523  1.0508 -0.2848  0.1314
62797SOL    HW297360   4.484  11.761   5.603 -0.7720  0.0794 -1.5585
62798SOL     OW97361   8.358   1.944   4.738 -0.2129 -0.2476 -0.4683
62798SOL    HW197362   8.439   1.915   4.781 -0.1089 -0.9010 -1.0962
62798SOL    HW297363   8.383   1.960   4.647 -0.4423  1.1059 -0.3133
62799SOL     OW97364  12.405   2.042   9.631 -0.3287  0.4563  0.0031
62799SOL    HW197365  12.373   2.103   9.565 -0.9554  0.8352  0.6435
62799SOL    HW297366  12.337   1.975   9.637 -0.1740  0.3058  0.1172
62800SOL     OW97367   6.693   1.342  10.047 -0.4894  1.0759  0.2834
62800SOL    HW197368   6.605   1.366  10.075 -0.9500 -0.9357  0.6976
62800SOL    HW297369   6.680   1.270   9.986  0.8550  1.0403  0.0029
62801SOL     OW97370  10.765   1.912   8.079  0.2097 -0.1871 -0.4740
62801SOL    HW197371  10.839   1.969   8.101 -0.4289  0.0510  1.1569
62801SOL    HW297372  10.795   1.824   8.101  0.6955 -0.3525 -1.6974
62802SOL     OW97373   8.285  11.099   7.335 -0.2232  0.6065 -0.4157
62802SOL    HW197374   8.341  11.027   7.304 -0.8709  0.4311 -1.2113
62802SOL    HW297375   8.342  11.175   7.336  2.1541 -0.6561  5.5045
62803SOL     OW97376   7.043   5.368   8.470  0.1484  0.0012 -0.1568
62803SOL    HW197377   7.117   5.332   8.422  0.3690 -1.0854  0.9548
62803SOL    HW297378   7.064   5.460   8.481  1.8867 -0.4761  1.0478
62804SOL     OW97379   2.664  12.581   5.154  0.3618  0.5140 -0.0579
62804SOL    HW197380   2.633  12.541   5.074  0.7297  0.7547 -0.3272
62804SOL    HW297381   2.726  12.648   5.124  1.5067 -0.2767  0.4719
62805SOL     OW97382   9.391   7.245   7.141  0.2512 -0.3423  0.5780
62805SOL    HW197383   9.317   7.289   7.182 -0.3770  0.6197 -1.4784
62805SOL    HW297384   9.449   7.316   7.114 -0.3059 -0.7547 -1.9255
62806SOL     OW97385   8.676   9.905   0.172 -1.0194 -0.2133  0.2270
62806SOL    HW197386   8.662   9.942   0.260 -1.7865  0.5308 -0.1921
62806SOL    HW297387   8.598   9.852   0.156 -0.2732 -1.4302  0.5105
62807SOL     OW97388   6.587   2.765   9.689 -0.0632  0.2153  0.2733
62807SOL    HW197389   6.613   2.681   9.650 -1.7318 -0.2878  0.1400
62807SOL    HW297390   6.532   2.740   9.764  2.2732  1.1755  2.4478
62808SOL     OW97391   4.386   2.970  10.986  0.0608 -0.1274  0.0475
62808SOL    HW197392   4.467   2.953  11.034 -0.0013 -0.5374  0.0080
62808SOL    HW297393   4.337   2.889  10.991 -0.3188  0.0975  0.0066
62809SOL     OW97394   4.699   4.678   6.644  0.3893  0.2853  0.5318
62809SOL    HW197395   4.730   4.769   6.639 -1.4470  1.0456  2.0088
62809SOL    HW297396   4.626   4.681   6.705 -0.1698 -2.0937  0.0596
62810SOL     OW97397   7.598   1.887   5.365 -0.3428  0.0375 -0.2418
62810SOL    HW197398   7.514   1.899   5.410 -0.2979 -1.2382  0.2336
62810SOL    HW297399   7.649   1.964   5.388 -0.6224 -0.1772  1.2290
62811SOL     OW97400  10.258   3.597  12.042 -0.2533 -0.3986 -0.0758
62811SOL    HW197401  10.264   3.691  12.058 -0.1595 -0.4990  0.5398
62811SOL    HW297402  10.164   3.581  12.029 -0.2951 -0.2459  0.0285
62812SOL     OW97403  10.566   0.854   5.137  0.3551 -0.0869 -0.2948
62812SOL    HW197404  10.628   0.909   5.089  1.0267  2.2409  2.9065
62812SOL    HW297405  10.481   0.875   5.098  0.7105  2.6292  0.1700
62813SOL     OW97406   7.252   5.906   2.706  0.7794  0.1692 -0.4009
62813SOL    HW197407   7.194   5.944   2.640 -1.6973 -0.2745  1.3550
62813SOL    HW297408   7.328   5.964   2.706 -1.5191  3.5653  0.1258
62814SOL     OW97409   6.600   6.098   7.640  0.1922 -0.1451 -0.2775
62814SOL    HW197410   6.548   6.170   7.605 -0.6047 -0.2438  0.6630
62814SOL    HW297411   6.572   6.089   7.731 -0.4735 -2.2773 -0.6317
62815SOL     OW97412   6.535   7.791   3.817  0.2057 -0.0302 -0.4848
62815SOL    HW197413   6.619   7.745   3.814 -0.4672 -1.2243 -1.8924
62815SOL    HW297414   6.496   7.763   3.900  0.6941 -0.3873 -0.3705
62816SOL     OW97415   4.097  10.967   2.716 -0.7076 -0.4615  0.1597
62816SOL    HW197416   4.023  10.999   2.665 -1.4132  0.5456  1.7096
62816SOL    HW297417   4.063  10.964   2.806  1.5530  1.5226  1.1716
62817SOL     OW97418   7.831   1.809  11.805  0.2594 -0.4060  0.2518
62817SOL    HW197419   7.745   1.847  11.822 -0.0197 -1.2553  0.7744
62817SOL    HW297420   7.833   1.793  11.711  0.1047  0.2320  0.1388
62818SOL     OW97421   1.397   0.115   3.322 -0.0062 -0.3108  0.1347
62818SOL    HW197422   1.303   0.135   3.328 -0.0884 -0.4229 -0.7172
62818SOL    HW297423   1.413   0.055   3.395 -0.5463 -0.0990  0.4330
62819SOL     OW97424   7.694   4.061   8.603 -0.4580  0.8520  0.0439
62819SOL    HW197425   7.735   3.985   8.561  0.3630  0.3938  1.5915
62819SOL    HW297426   7.621   4.024   8.652 -1.2741  1.3533 -0.7667
62820SOL     OW97427  11.866   6.550   1.571  0.5833 -0.3077 -0.3892
62820SOL    HW197428  11.830   6.630   1.533 -0.3243  0.6576  2.3015
62820SOL    HW297429  11.791   6.493   1.583  0.3053  0.4922  2.3531
62821SOL     OW97430   2.063   0.156   6.788 -0.2126 -0.0019 -0.5854
62821SOL    HW197431   2.016   0.098   6.848  0.0951 -0.6132 -0.9322
62821SOL    HW297432   1.998   0.179   6.721 -0.4122  0.2842 -0.2988
62822SOL     OW97433   7.643   3.013  12.453 -0.4624 -0.2019 -0.3900
62822SOL    HW197434   7.617   3.092  12.406  1.3244  0.6382 -0.0183
62822SOL    HW297435   7.736   3.024  12.471 -0.6709 -1.3317  1.7180
62823SOL     OW97436   4.481  10.552   0.411 -0.0181  0.4721  0.3033
62823SOL    HW197437   4.482  10.470   0.460  2.3489  1.1818  1.5574
62823SOL    HW297438   4.431  10.531   0.332 -0.5845 -1.7881  1.1645
62824SOL     OW97439   0.802   3.963  12.400  0.5646  0.5118  0.1440
62824SOL    HW197440   0.796   3.878  12.443 -1.2110  0.6760  0.3027
62824SOL    HW297441   0.874   3.954  12.338  0.2024 -1.2149 -0.0704
62825SOL     OW97442   9.041   1.922   8.524  0.0563 -0.0525  0.2735
62825SOL    HW197443   8.971   1.925   8.590 -1.3488 -0.8326 -1.1071
62825SOL    HW297444   9.008   1.862   8.457  0.0005  2.9996 -2.6757
62826SOL     OW97445   7.301   2.800   2.562  0.2906  0.3106  0.0314
62826SOL    HW197446   7.391   2.774   2.581 -0.2493 -0.3631  1.8961
62826SOL    HW297447   7.268   2.834   2.645 -1.7465 -1.2123 -0.0808
62827SOL     OW97448   2.440   0.476  11.774  0.3715  0.3538  0.2038
62827SOL    HW197449   2.411   0.456  11.863  0.6589  0.4545  0.3226
62827SOL    HW297450   2.442   0.572  11.771 -2.0691  0.4367 -0.7042
62828SOL     OW97451   3.932   3.213   7.639  0.0505  0.1295  0.2346
62828SOL    HW197452   3.849   3.260   7.630  0.5929  1.0411 -0.1435
62828SOL    HW297453   3.958   3.192   7.550  0.9212  1.1315  0.2218
62829SOL     OW97454  10.408   7.430   4.033 -0.2183 -0.0051 -0.3070
62829SOL    HW197455  10.361   7.481   4.099  1.7151 -0.1673  1.3107
62829SOL    HW297456  10.500   7.455   4.044  0.6171 -2.6132 -0.5376
62830SOL     OW97457   1.416   0.878   7.283 -0.0554  0.0328  0.0445
62830SOL    HW197458   1.485   0.816   7.305 -0.3956 -0.5478 -0.5000
62830SOL    HW297459   1.462   0.954   7.247  0.3663  0.1452  0.7960
62831SOL     OW97460   3.702   8.731   0.704  0.7768  0.2457 -0.0761
62831SOL    HW197461   3.723   8.664   0.769  4.1021  0.1276 -1.0610
62831SOL    HW297462   3.607   8.742   0.710  0.7066 -1.0545  3.4418
62832SOL     OW97463   2.844  12.469   4.417  0.0830  0.3338  0.3965
62832SOL    HW197464   2.782  12.522   4.366  0.1176 -0.3827 -0.3967
62832SOL    HW297465   2.930  12.505   4.394 -0.0144  1.4030  1.5833
62833SOL     OW97466   0.741   0.042   7.381 -0.0311 -0.2415  0.8887
62833SOL    HW197467   0.775   0.098   7.450 -0.9027  0.6715  0.6025
62833SOL    HW297468   0.686  -0.022   7.427 -0.8432  0.5401  1.0441
62834SOL     OW97469   5.935   1.631   3.247  0.0950  0.1302 -0.7766
62834SOL    HW197470   5.994   1.675   3.309 -1.5331 -0.2965  1.1767
62834SOL    HW297471   5.887   1.703   3.205  1.5891  0.4530 -2.0289
62835SOL     OW97472   2.487   3.796   6.560  0.0270  0.1301  0.0199
62835SOL    HW197473   2.401   3.833   6.576  0.3628  0.6276  0.7502
62835SOL    HW297474   2.546   3.872   6.557  0.6428 -0.2869  0.9761
62836SOL     OW97475   4.842   2.866   2.850  0.2374 -0.1557 -0.2862
62836SOL    HW197476   4.866   2.959   2.853 -0.5533  0.0496  2.6031
62836SOL    HW297477   4.908   2.826   2.794  1.0793  2.0072 -0.9455
62837SOL     OW97478  10.625   8.464   6.164  0.3429 -0.3281 -0.3897
62837SOL    HW197479  10.614   8.544   6.215 -0.2452  0.5800 -1.8715
62837SOL    HW297480  10.668   8.493   6.083  1.1693 -1.6988 -0.4807
62838SOL     OW97481   5.991   8.156   2.298  0.1506  0.5207  0.2395
62838SOL    HW197482   6.057   8.101   2.257  0.4309 -0.3174  1.7395
62838SOL    HW297483   5.949   8.202   2.225  1.4372  0.0279 -0.8559
62839SOL     OW97484   7.139   6.742   2.033  1.0250 -0.1664  0.3815
62839SOL    HW197485   7.184   6.659   2.046  0.6402 -0.6020 -0.8786
62839SOL    HW297486   7.169   6.773   1.947  1.0291  0.9059  0.7573
62840SOL     OW97487   6.237   4.280   9.134 -0.2528 -0.1651 -0.2325
62840SOL    HW197488   6.254   4.347   9.200  0.2822  1.5038 -1.9765
62840SOL    HW297489   6.324   4.246   9.113 -0.3634 -0.3162 -0.4433
62841SOL     OW97490  12.353   2.259   2.911  0.0641 -0.0408 -0.5650
62841SOL    HW197491  12.350   2.348   2.946 -1.1929  0.0269 -0.8001
62841SOL    HW297492  12.261   2.232   2.907  0.4845 -1.9802  1.1130
62842SOL     OW97493   0.631  10.465  11.546  1.0525  0.1302  0.0091
62842SOL    HW197494   0.568  10.393  11.548  0.7621  0.2988 -1.4099
62842SOL    HW297495   0.715  10.423  11.529  1.1025  0.0243  0.5029
62843SOL     OW97496   9.415   9.231   1.458 -0.4757  0.2146 -0.1805
62843SOL    HW197497   9.478   9.203   1.392 -0.4982 -0.2054 -0.0271
62843SOL    HW297498   9.467   9.246   1.537 -0.8087 -2.3137  0.6076
62844SOL     OW97499  10.156   9.553   7.252 -0.1026 -0.3484 -0.4812
62844SOL    HW197500  10.247   9.530   7.269  0.2287  1.2487  0.0148
62844SOL    HW297501  10.157   9.588   7.163 -0.1184  0.2414 -0.2502
62845SOL     OW97502   8.653   8.185   6.009  0.4888 -0.0391 -0.1009
62845SOL    HW197503   8.714   8.249   6.044  0.6242 -0.7652  1.0321
62845SOL    HW297504   8.592   8.236   5.955 -0.2244  1.2521  1.8477
62846SOL     OW97505   1.873   0.633   8.889  0.7207 -0.2651 -0.1896
62846SOL    HW197506   1.960   0.645   8.927  1.1251 -1.6883 -0.6078
62846SOL    HW297507   1.864   0.703   8.825  1.8691 -0.5591 -0.6813
62847SOL     OW97508  11.459   9.477   4.356 -0.1514 -0.0201  0.2256
62847SOL    HW197509  11.410   9.395   4.353 -0.7793  0.2905  1.3533
62847SOL    HW297510  11.490   9.483   4.446 -0.0351  0.9344  0.1340
62848SOL     OW97511   0.269   8.703   8.621 -0.6870 -0.0946 -0.0223
62848SOL    HW197512   0.296   8.754   8.545 -2.8132 -1.0354 -1.5316
62848SOL    HW297513   0.329   8.628   8.622 -0.9112 -0.3169 -1.1156
62849SOL     OW97514   6.880   1.998  10.837 -0.7462 -0.0436 -0.0359
62849SOL    HW197515   6.937   2.059  10.790  0.0573 -0.7867 -0.0635
62849SOL    HW297516   6.873   2.034  10.925  0.5298 -0.4115  0.2340
62850SOL     OW97517   6.608   0.307   8.319 -0.2932  0.0538 -0.4821
62850SOL    HW197518   6.548   0.354   8.376 -0.3678 -1.7231  0.9936
62850SOL    HW297519   6.618   0.364   8.242 -1.0385  2.0111  0.8007
62851SOL     OW97520   7.382   6.211  11.873 -0.6864  0.1294 -0.2923
62851SOL    HW197521   7.344   6.168  11.950 -1.3158  1.0570 -0.0733
62851SOL    HW297522   7.441   6.276  11.909 -0.2453 -0.0849 -0.6179
62852SOL     OW97523  12.079  10.556   4.709 -0.3961  0.9104  0.0423
62852SOL    HW197524  12.097  10.650   4.698  1.1304  0.5230 -1.0081
62852SOL    HW297525  12.152  10.524   4.761 -0.4662  0.1426 -0.3282
62853SOL     OW97526   2.625   2.398   8.868  0.2356  0.4913  0.3801
62853SOL    HW197527   2.648   2.448   8.947 -0.4243 -1.0722  1.6099
62853SOL    HW297528   2.615   2.308   8.898 -3.3286  0.3135 -0.7922
62854SOL     OW97529   9.259   6.209   8.893  0.6703  0.6730 -0.0010
62854SOL    HW197530   9.324   6.249   8.951  0.0426  0.9358  0.5341
62854SOL    HW297531   9.311   6.167   8.825  1.4165  0.6065  0.5886
62855SOL     OW97532   6.839  10.126   9.588  0.4047 -0.4513  0.0070
62855SOL    HW197533   6.932  10.104   9.598 -0.0907 -2.6636  0.3909
62855SOL    HW297534   6.811  10.152   9.676  0.3567 -1.2065  0.2238
62856SOL     OW97535   6.024   9.352   3.840  0.7406  0.4769  0.2503
62856SOL    HW197536   6.022   9.445   3.860  0.1790  0.4445  0.3691
62856SOL    HW297537   6.041   9.309   3.924  0.0877  0.4324  0.3711
62857SOL     OW97538   2.337   6.801   1.471 -0.2319  0.6058 -0.2345
62857SOL    HW197539   2.348   6.783   1.377  0.7991  0.7334 -0.1430
62857SOL    HW297540   2.242   6.799   1.484 -0.3448 -0.4144 -1.0839
62858SOL     OW97541   6.458   6.242   5.684  0.2003 -0.0896 -0.1417
62858SOL    HW197542   6.382   6.198   5.722 -0.5598  0.6811 -0.7424
62858SOL    HW297543   6.476   6.315   5.744  0.2563 -0.0760 -0.1746
62859SOL     OW97544   9.123   1.545  12.340 -0.1131 -0.2204 -0.1122
62859SOL    HW197545   9.172   1.581  12.267 -0.6798 -1.1307 -0.9598
62859SOL    HW297546   9.190   1.503  12.395  0.5565  1.9990  0.8958
62860SOL     OW97547   5.833  10.248   8.670  0.7323 -0.2522  0.8128
62860SOL    HW197548   5.763  10.223   8.729  0.4204 -0.6421  0.2897
62860SOL    HW297549   5.828  10.184   8.598  1.3006  0.0160  0.5256
62861SOL     OW97550   8.587  11.789   0.005  0.0759 -0.0055  0.3473
62861SOL    HW197551   8.586  11.829   0.093  0.0424  0.4328  0.1529
62861SOL    HW297552   8.679  11.778  -0.016  0.1196  1.0483 -0.0699
62862SOL     OW97553  12.533   2.542   5.992 -0.1479 -0.4050  0.2396
62862SOL    HW197554  12.583   2.470   6.031 -0.6437 -0.7576  0.2394
62862SOL    HW297555  12.532   2.610   6.059  0.6368 -0.2474  0.1020
62863SOL     OW97556   2.343  11.065   9.324  0.6129 -0.4680  0.5051
62863SOL    HW197557   2.253  11.081   9.355  0.4608  0.3713 -0.3346
62863SOL    HW297558   2.372  10.989   9.375 -1.2984 -2.0827 -0.6417
62864SOL     OW97559  10.985  12.526   1.128 -0.1765  0.2581 -0.3138
62864SOL    HW197560  10.916  12.542   1.192 -0.2824  0.6144 -0.5155
62864SOL    HW297561  10.983  12.431   1.113 -0.8257  0.3010 -0.5439
62865SOL     OW97562   3.735  11.462   8.011  0.5462  0.2069 -0.2036
62865SOL    HW197563   3.684  11.509   8.076  1.1622  2.1524 -1.0422
62865SOL    HW297564   3.685  11.383   7.994 -0.0990  0.0995  1.9115
62866SOL     OW97565   5.466   3.013   8.385  0.0086  0.1367 -0.0985
62866SOL    HW197566   5.491   3.085   8.327  1.7813 -0.5150 -0.2302
62866SOL    HW297567   5.549   2.984   8.423 -0.1768 -3.5770 -2.0758
62867SOL     OW97568   7.245   5.032   2.364  0.3347  0.1851 -0.4003
62867SOL    HW197569   7.199   5.081   2.432  0.2863 -0.0817 -0.2382
62867SOL    HW297570   7.292   5.098   2.314 -1.4001  0.6696 -1.5076
62868SOL     OW97571   1.575  10.587   1.783  0.2088  0.3922 -0.2841
62868SOL    HW197572   1.654  10.533   1.779 -0.0691  0.0468 -2.0959
62868SOL    HW297573   1.529  10.566   1.702 -1.5722  0.8595  0.5772
62869SOL     OW97574   1.751  10.744   7.847 -0.3782 -0.2485 -0.0791
62869SOL    HW197575   1.828  10.748   7.905 -0.1778 -2.8269 -0.0631
62869SOL    HW297576   1.695  10.678   7.887 -1.8060  0.3129 -1.0829
62870SOL     OW97577   3.970   8.990   7.280  0.1910 -0.5356 -0.3360
62870SOL    HW197578   3.885   9.030   7.264 -0.1767 -1.2087 -0.0731
62870SOL    HW297579   3.962   8.902   7.244  0.4875 -0.8986  0.4678
62871SOL     OW97580   9.896   2.645   3.876  0.3324  0.2736  0.4099
62871SOL    HW197581   9.892   2.740   3.886  0.9099  0.7692 -2.8741
62871SOL    HW297582   9.810   2.621   3.840  0.7821 -0.1261 -0.4402
62872SOL     OW97583   4.390   8.999  12.223  0.3623 -0.1536 -0.7574
62872SOL    HW197584   4.335   8.944  12.278  1.7381 -0.4175  0.4350
62872SOL    HW297585   4.440   8.938  12.169  1.9564 -0.1544  0.6292
62873SOL     OW97586  10.581   6.018   2.942  0.5803  0.2491 -0.0783
62873SOL    HW197587  10.496   6.054   2.918 -0.1711 -0.4084  1.4324
62873SOL    HW297588  10.609   5.967   2.866 -1.2904 -1.1110  0.0930
62874SOL     OW97589   9.406   7.849  10.383  0.5028 -0.0669 -0.1433
62874SOL    HW197590   9.362   7.932  10.364 -0.0052 -0.6270 -1.5239
62874SOL    HW297591   9.357   7.812  10.456 -0.0593  0.2675 -0.3463
62875SOL     OW97592   2.598   1.640   7.868  0.1483  0.0545 -0.2965
62875SOL    HW197593   2.592   1.641   7.964  1.0011  0.4467 -0.2351
62875SOL    HW297594   2.645   1.559   7.848  0.2470  0.1267 -0.3595
62876SOL     OW97595   6.541  12.376   4.480 -0.3092  0.6461  0.3671
62876SOL    HW197596   6.563  12.311   4.547  2.1448  0.3300 -0.6238
62876SOL    HW297597   6.512  12.325   4.405  1.2834  0.6356 -0.2914
62877SOL     OW97598   7.804  11.472   3.598 -0.0198  0.0025  0.3522
62877SOL    HW197599   7.769  11.553   3.635  0.8438  0.7413 -0.4198
62877SOL    HW297600   7.895  11.491   3.579 -0.1722 -0.6824 -1.2009
62878SOL     OW97601   7.489   6.128   6.890 -0.0344 -0.3743 -0.2818
62878SOL    HW197602   7.560   6.168   6.840 -0.2664 -0.9466 -1.1014
62878SOL    HW297603   7.418   6.191   6.885 -0.0321 -0.3956 -0.6251
62879SOL     OW97604   8.945  11.275   0.487  0.3287 -0.1506 -0.5580
62879SOL    HW197605   8.889  11.342   0.527  1.0072  0.5590 -0.7546
62879SOL    HW297606   9.021  11.270   0.545  0.1877 -0.9124 -0.4342
62880SOL     OW97607   2.749   6.760  10.380 -0.4369  0.1860 -0.4533
62880SOL    HW197608   2.769   6.685  10.436 -0.1204  0.1863 -0.5599
62880SOL    HW297609   2.833   6.780  10.338 -0.8810 -0.4611 -1.7105
62881SOL     OW97610   3.523   0.132  11.951  0.4882 -0.4936 -0.6645
62881SOL    HW197611   3.428   0.118  11.944 -0.2180  1.8594  2.3134
62881SOL    HW297612   3.543   0.196  11.883 -0.5976  0.9376  0.3247
62882SOL     OW97613   7.911   5.458   4.340  0.0068 -0.4035 -0.1803
62882SOL    HW197614   7.903   5.439   4.247  2.2786 -1.1487 -0.2986
62882SOL    HW297615   7.839   5.517   4.360 -0.2102  0.1973 -2.5328
62883SOL     OW97616   4.968   1.134   7.121 -0.2979  0.7537 -0.0476
62883SOL    HW197617   4.970   1.063   7.057  0.3080 -0.1063  0.8923
62883SOL    HW297618   4.980   1.091   7.205 -1.0464  1.8644  0.6562
62884SOL     OW97619   6.711   4.865   7.267  0.0934 -0.4218 -0.2493
62884SOL    HW197620   6.627   4.826   7.243 -0.6174 -0.0262  1.4366
62884SOL    HW297621   6.746   4.806   7.334 -0.4439  1.0899  1.4646
62885SOL     OW97622   1.867   5.218   2.560  0.1915  0.6141 -0.1429
62885SOL    HW197623   1.776   5.219   2.588  0.4890 -0.7588  0.9764
62885SOL    HW297624   1.863   5.230   2.465 -1.0178  2.4115  0.0891
62886SOL     OW97625   2.895   7.785   0.513  0.4665 -0.9147  0.2147
62886SOL    HW197626   2.812   7.801   0.559  0.5811  0.2307  0.0451
62886SOL    HW297627   2.947   7.733   0.575  0.0127 -0.7602  0.7377
62887SOL     OW97628  12.510   7.471   2.547 -0.1990  0.2746  0.0011
62887SOL    HW197629  12.587   7.527   2.539  0.6110 -0.8966 -0.8429
62887SOL    HW297630  12.538   7.401   2.606 -0.3923 -0.4758 -0.7699
62888SOL     OW97631   6.278   3.209   0.300 -0.3946 -0.0613  0.7869
62888SOL    HW197632   6.273   3.297   0.337  0.5085 -0.1103  1.0469
62888SOL    HW297633   6.226   3.155   0.359  0.3850  0.0043  1.5534
62889SOL     OW97634   0.839   4.012  11.407 -0.3640 -0.1757 -0.4360
62889SOL    HW197635   0.774   4.031  11.474  0.5463  1.5086  0.0397
62889SOL    HW297636   0.823   4.078  11.339  1.0535  0.5328 -0.1227
62890SOL     OW97637   9.862   5.484   6.898 -0.1246  0.2253 -0.2442
62890SOL    HW197638   9.950   5.461   6.868  0.2499  2.2562 -0.8892
62890SOL    HW297639   9.817   5.514   6.819 -1.7331 -1.5794 -0.0854
62891SOL     OW97640   4.704   0.899  10.210  0.2993 -0.0247 -0.2091
62891SOL    HW197641   4.647   0.872  10.283  0.9910 -0.5345  0.1620
62891SOL    HW297642   4.674   0.846  10.136 -0.9849  1.1244 -0.5549
62892SOL     OW97643   4.085   7.322   8.315 -0.7389  0.2091 -0.0043
62892SOL    HW197644   4.162   7.270   8.340 -0.6383  0.8720  1.1482
62892SOL    HW297645   4.071   7.301   8.223 -0.8292 -1.9927  0.4662
62893SOL     OW97646   5.002   2.475   9.995 -0.0446  0.2795 -0.1636
62893SOL    HW197647   5.028   2.552   9.945 -0.8650 -0.8610 -2.4956
62893SOL    HW297648   4.998   2.505  10.085  1.8447  2.3680 -0.6859
62894SOL     OW97649   1.410   0.891  12.548  0.3343 -0.3765 -0.4155
62894SOL    HW197650   1.467   0.961  12.580  0.4552 -0.7019  0.0903
62894SOL    HW297651   1.413   0.900  12.453  0.8918 -0.1265 -0.3799
62895SOL     OW97652   2.436   8.388   5.998  0.7384  0.6025  0.6364
62895SOL    HW197653   2.400   8.436   5.923  0.4322 -0.4817  0.0563
62895SOL    HW297654   2.509   8.338   5.961  1.1295  0.7151  1.2444
62896SOL     OW97655  11.477   1.648   1.954 -0.2280 -0.5092  0.5427
62896SOL    HW197656  11.435   1.731   1.933 -1.3947 -1.3796 -0.7434
62896SOL    HW297657  11.434   1.619   2.035  0.5235  0.3273  1.2685
62897SOL     OW97658   8.497  11.109   4.277 -0.1751 -0.0539 -0.0188
62897SOL    HW197659   8.501  11.176   4.345  0.4347 -0.0772 -0.0244
62897SOL    HW297660   8.542  11.147   4.202 -0.3823 -0.2310 -0.2388
62898SOL     OW97661   0.022   4.864   6.836 -0.0517  0.0757 -0.1019
62898SOL    HW197662   0.041   4.955   6.860  3.0144 -0.1635 -1.1948
62898SOL    HW297663  -0.036   4.872   6.760 -0.3639  1.0925  0.2264
62899SOL     OW97664   3.418  10.828   5.165 -0.0884  0.2742  1.0400
62899SOL    HW197665   3.354  10.766   5.130 -0.1056  0.9587 -0.2076
62899SOL    HW297666   3.370  10.877   5.231 -0.4283 -0.1963  1.1503
62900SOL     OW97667   0.447   5.097   4.269  0.0576 -0.3697 -0.3434
62900SOL    HW197668   0.478   5.050   4.191 -2.0442 -1.9610 -0.3100
62900SOL    HW297669   0.433   5.187   4.239  0.6272 -0.6153 -1.4077
62901SOL     OW97670   8.080  10.268   7.318 -0.0924  0.2659 -0.0425
62901SOL    HW197671   8.005  10.324   7.300 -0.8782 -0.7225  0.0436
62901SOL    HW297672   8.061  10.187   7.270  1.0255  0.0795 -0.1934
62902SOL     OW97673   7.220   0.757   6.371  0.0295  0.3064  0.0150
62902SOL    HW197674   7.297   0.756   6.427 -0.9014 -1.1281  1.3546
62902SOL    HW297675   7.172   0.677   6.394 -1.6606  0.9503 -1.0474
62903SOL     OW97676   4.829  10.272   7.469 -0.2942  0.6779  0.0635
62903SOL    HW197677   4.827  10.325   7.548  1.0181 -1.5978  1.7412
62903SOL    HW297678   4.908  10.219   7.477 -0.2230  0.1861 -2.6934
62904SOL     OW97679   4.825  10.669  11.998  0.2728 -0.0893  0.0659
62904SOL    HW197680   4.785  10.756  11.985 -1.3635 -0.5842  1.4094
62904SOL    HW297681   4.919  10.687  12.002 -0.1147  2.0648  2.9901
62905SOL     OW97682   3.739   6.582   1.965 -0.1212 -0.0087  0.1194
62905SOL    HW197683   3.829   6.577   1.996  0.2174 -0.9717 -0.9349
62905SOL    HW297684   3.687   6.545   2.035  0.4077 -0.3040  0.3580
62906SOL     OW97685  10.223   8.017   3.289  0.0139  0.2382 -0.1015
62906SOL    HW197686  10.133   8.039   3.313  0.1721  0.6254  0.1520
62906SOL    HW297687  10.274   8.093   3.315  0.5850 -0.4439  0.8418
62907SOL     OW97688   1.340  10.539   5.703  0.3049 -0.2648  0.4500
62907SOL    HW197689   1.434  10.525   5.696  0.3501  0.3052 -0.1627
62907SOL    HW297690   1.302  10.452   5.692  0.7432 -0.4491  0.3736
62908SOL     OW97691   7.455  10.329   1.361  0.3229 -0.2103  0.2032
62908SOL    HW197692   7.372  10.334   1.408 -0.3445 -1.3969 -0.7994
62908SOL    HW297693   7.520  10.313   1.429 -0.1788  1.1049  1.0475
62909SOL     OW97694   5.563   9.274   7.477  0.1562  0.0923 -0.4948
62909SOL    HW197695   5.490   9.278   7.416  0.8754 -1.7803 -1.5531
62909SOL    HW297696   5.595   9.364   7.482 -1.5378  0.7459 -0.8258
62910SOL     OW97697   8.055   3.568  12.487  0.1146  1.1398  0.8829
62910SOL    HW197698   8.065   3.654  12.446 -0.2677  1.2782  1.0758
62910SOL    HW297699   7.963   3.545  12.472  0.1388  0.9019  1.0953
62911SOL     OW97700  12.195   6.491   4.100  0.0888 -0.5871 -0.3110
62911SOL    HW197701  12.148   6.477   4.183  0.0589 -0.3079 -0.2819
62911SOL    HW297702  12.174   6.413   4.048  0.1093 -0.7668 -0.0555
62912SOL     OW97703   6.743  10.776   6.466 -0.2025  0.2699  0.2974
62912SOL    HW197704   6.656  10.814   6.458 -0.7671 -1.0962 -0.4378
62912SOL    HW297705   6.736  10.714   6.538  0.4805  0.9341  0.9586
62913SOL     OW97706   8.283   1.968  10.816  0.0603 -0.7476  0.8424
62913SOL    HW197707   8.220   2.014  10.761 -0.1215 -0.6285  1.1460
62913SOL    HW297708   8.268   2.003  10.904  0.5101 -0.7617  0.9256
62914SOL     OW97709   3.871  11.440  10.127  0.3031  0.4283 -0.3761
62914SOL    HW197710   3.803  11.373  10.129 -0.2742  0.9290 -1.9052
62914SOL    HW297711   3.889  11.458  10.220  1.1209 -2.4279  0.1157
62915SOL     OW97712   1.926   9.964   3.249 -0.1128 -0.3763 -0.5630
62915SOL    HW197713   1.831   9.972   3.250 -0.3188 -2.3988  0.2977
62915SOL    HW297714   1.943   9.884   3.199  1.0684 -0.6807  0.2824
62916SOL     OW97715  11.490   8.939  11.259  0.3390 -0.4960 -0.2702
62916SOL    HW197716  11.491   8.880  11.335  2.4176  0.1464  0.2836
62916SOL    HW297717  11.526   9.022  11.293  2.0832 -0.4219 -2.0770
62917SOL     OW97718   3.552  11.962  10.504  0.0132 -0.1006 -0.3142
62917SOL    HW197719   3.636  11.998  10.532  0.5356 -1.4621 -0.0883
62917SOL    HW297720   3.494  12.038  10.503  1.5234  1.1165 -1.6926
62918SOL     OW97721   1.669   4.713   2.848  0.1231  0.5294 -0.1824
62918SOL    HW197722   1.599   4.770   2.815 -0.4606 -0.3164 -0.4637
62918SOL    HW297723   1.635   4.679   2.931  0.0927 -0.0565 -0.4273
62919SOL     OW97724  12.172   6.282   2.258  0.4661  0.0973 -0.1186
62919SOL    HW197725  12.111   6.274   2.332  0.4599  0.5949 -0.0631
62919SOL    HW297726  12.206   6.194   2.246 -2.0242 -0.7570 -1.6877
62920SOL     OW97727  12.505   9.032   2.885 -0.0422 -0.5301  0.8615
62920SOL    HW197728  12.539   8.969   2.821 -0.0570 -0.9929  1.3072
62920SOL    HW297729  12.428   8.989   2.923  0.3095 -0.5115  1.6174
62921SOL     OW97730  11.609   5.593   6.877 -0.6859 -0.2406 -0.2271
62921SOL    HW197731  11.532   5.625   6.830 -1.2815  1.1655  1.5851
62921SOL    HW297732  11.663   5.671   6.890  0.6683 -1.0611 -0.7277
62922SOL     OW97733   9.834   6.573   7.059  0.2436  0.2631  0.4859
62922SOL    HW197734   9.922   6.594   7.092  0.5188 -2.0795  1.4487
62922SOL    HW297735   9.846   6.559   6.965  0.4955  1.7422  0.2648
62923SOL     OW97736   1.210   4.379   8.932  0.4533 -0.1243  0.2886
62923SOL    HW197737   1.136   4.337   8.974  1.4564 -2.3698 -0.0315
62923SOL    HW297738   1.179   4.400   8.844  0.1609 -1.0314  0.1608
62924SOL     OW97739   1.111   3.700  10.558 -0.3780  0.5245  0.5198
62924SOL    HW197740   1.097   3.607  10.540 -0.7041  0.2860  1.8988
62924SOL    HW297741   1.171   3.701  10.633  2.4187  1.4714 -1.5710
62925SOL     OW97742   6.591   6.317   6.960 -0.0239  0.0635  0.8043
62925SOL    HW197743   6.626   6.228   6.958 -0.7115 -0.3106  2.8702
62925SOL    HW297744   6.496   6.305   6.952 -0.0407  0.7221 -0.1184
62926SOL     OW97745   8.700  12.102   1.698 -0.4181  0.6604  0.6617
62926SOL    HW197746   8.773  12.134   1.752 -0.9094  0.7951  1.2651
62926SOL    HW297747   8.643  12.178   1.687 -1.6081  0.0353  2.1337
62927SOL     OW97748   0.747   8.454   3.531 -0.1131 -0.1008  0.2685
62927SOL    HW197749   0.747   8.503   3.614 -0.4345 -0.2117  0.3348
62927SOL    HW297750   0.794   8.511   3.470  0.7185 -0.3169  0.7009
62928SOL     OW97751   6.094   6.928   9.894 -0.3810  0.2238 -0.2703
62928SOL    HW197752   6.083   6.834   9.880  2.1414 -0.7361  2.7563
62928SOL    HW297753   6.033   6.948   9.965  0.3989  0.3970  0.3614
62929SOL     OW97754   4.961  11.745   5.481  0.0142  0.1826  0.4951
62929SOL    HW197755   4.909  11.669   5.505 -0.0500 -0.1571 -0.6458
62929SOL    HW297756   4.903  11.820   5.498  0.7405  0.1923  3.4531
62930SOL     OW97757   9.314  10.837   6.457 -0.9041 -0.0027  0.2878
62930SOL    HW197758   9.249  10.908   6.459  0.0496  1.2184 -3.3585
62930SOL    HW297759   9.269  10.766   6.411 -0.6189 -0.2746  0.4324
62931SOL     OW97760   1.771   9.064   4.255  0.0708 -0.8351  0.1632
62931SOL    HW197761   1.753   9.000   4.186 -1.1620 -0.4393  0.0990
62931SOL    HW297762   1.827   9.129   4.212 -0.6244 -0.6317 -0.4422
62932SOL     OW97763   4.994   7.336   7.964 -0.2819  0.2548  0.4319
62932SOL    HW197764   4.976   7.318   8.056 -1.4748 -0.9971 -0.0168
62932SOL    HW297765   5.006   7.431   7.960 -0.2786  0.3324  1.8583
62933SOL     OW97766   4.661   2.925  10.317  0.4633  0.2625  0.3227
62933SOL    HW197767   4.606   2.953  10.390 -0.8891 -0.4224 -0.3986
62933SOL    HW297768   4.624   2.971  10.241  0.7539 -0.3652 -0.2040
62934SOL     OW97769   0.920   0.124   0.808 -0.2885 -0.2779 -0.2725
62934SOL    HW197770   0.838   0.167   0.782 -0.2030 -0.1791 -0.3802
62934SOL    HW297771   0.916   0.120   0.903 -0.1249  0.3190 -0.2350
62935SOL     OW97772   1.902   5.260  11.232 -0.1790  0.9139 -0.1986
62935SOL    HW197773   1.940   5.329  11.286  0.0269  0.2212  0.5466
62935SOL    HW297774   1.821   5.237  11.276  0.2935 -0.0853  0.1778
62936SOL     OW97775   4.022   5.328   0.299 -0.1437 -0.3237 -0.1130
62936SOL    HW197776   4.111   5.300   0.282 -0.4838 -2.5084  1.3419
62936SOL    HW297777   4.031   5.409   0.350  1.1143 -1.5635  1.7701
62937SOL     OW97778   3.926   1.875   2.822  0.3653 -0.7846 -0.1278
62937SOL    HW197779   3.986   1.945   2.796 -3.0728  2.0985 -1.1468
62937SOL    HW297780   3.905   1.893   2.913 -1.1252  0.0686 -0.6143
62938SOL     OW97781   9.805   8.830   2.610  0.3029  0.0005 -0.2788
62938SOL    HW197782   9.878   8.825   2.548  0.2822  1.2907 -0.4346
62938SOL    HW297783   9.822   8.909   2.661 -0.3954 -0.3087  0.4581
62939SOL     OW97784   5.279   9.072   2.904 -0.6165 -0.0336 -0.2947
62939SOL    HW197785   5.298   9.100   2.993 -1.5094 -1.3869  0.3515
62939SOL    HW297786   5.334   9.128   2.849  1.1531 -0.2456  1.1771
62940SOL     OW97787   8.287   3.699   7.174 -0.5657 -0.2367  0.3184
62940SOL    HW197788   8.212   3.757   7.193  0.2177  0.8081  0.3540
62940SOL    HW297789   8.323   3.733   7.092 -0.0724 -0.6683  0.3553
62941SOL     OW97790   8.149   4.942   1.971  0.3836 -0.0153 -0.0873
62941SOL    HW197791   8.130   4.917   1.880 -1.3097  0.5499  0.0906
62941SOL    HW297792   8.193   5.027   1.963 -0.4114  0.3777 -0.3530
62942SOL     OW97793  11.445   3.549   4.846 -0.1880  0.3222  0.4086
62942SOL    HW197794  11.491   3.622   4.805  0.6640 -0.3132  0.2099
62942SOL    HW297795  11.355   3.556   4.815  0.5584 -0.5676 -2.2108
62943SOL     OW97796  11.833   7.369   6.905  0.4528  0.5098  0.0368
62943SOL    HW197797  11.785   7.351   6.824  0.1221  2.4313 -0.2399
62943SOL    HW297798  11.765   7.391   6.968  0.7275 -0.7439  0.8068
62944SOL     OW97799   2.632   2.947   9.059 -0.5261  0.1485 -0.5669
62944SOL    HW197800   2.558   2.891   9.082 -0.5941  0.3172 -0.3720
62944SOL    HW297801   2.613   3.030   9.102 -0.3954  0.3024 -0.8074
62945SOL     OW97802   3.029  12.146  11.878 -0.9743  0.1886 -0.7143
62945SOL    HW197803   3.005  12.173  11.967  2.5801 -0.5308  0.6298
62945SOL    HW297804   2.991  12.059  11.868 -1.8900  0.5074 -0.1500
62946SOL     OW97805  10.680  11.749   2.702 -0.0712 -0.5657 -0.0158
62946SOL    HW197806  10.668  11.823   2.762 -0.1205  1.1543 -2.0615
62946SOL    HW297807  10.594  11.707   2.699 -0.8423  0.9895 -0.9437
62947SOL     OW97808   3.010   4.826   3.699  0.0333  0.3972  0.4416
62947SOL    HW197809   3.102   4.850   3.711  0.1966  0.2068 -0.3641
62947SOL    HW297810   2.970   4.902   3.659 -0.0916  0.3591  0.4923
62948SOL     OW97811   6.384   6.142   6.449  0.1723 -0.0969 -0.1189
62948SOL    HW197812   6.382   6.231   6.415 -0.1775 -0.1450 -0.2303
62948SOL    HW297813   6.444   6.095   6.390 -0.9488 -0.3466 -1.1106
62949SOL     OW97814   5.070   6.190   1.783 -0.0532  0.0181  0.3149
62949SOL    HW197815   5.031   6.123   1.727 -1.9055  1.4679 -0.2387
62949SOL    HW297816   5.107   6.254   1.722 -0.2260  0.5770  0.7872
62950SOL     OW97817   4.065  10.977   3.922 -0.7236  0.4685  0.0018
62950SOL    HW197818   4.040  11.037   3.852 -1.4511  0.1793  0.0114
62950SOL    HW297819   4.003  10.995   3.993 -0.1330  0.6041  0.5003
62951SOL     OW97820   9.013   4.145   6.824  0.0368 -0.4051 -0.3273
62951SOL    HW197821   8.962   4.070   6.794 -0.9619  0.5712 -1.1710
62951SOL    HW297822   9.071   4.166   6.751  0.7260 -0.6803  0.1226
62952SOL     OW97823   4.846   0.810  10.916  0.0839  0.0748  0.4586
62952SOL    HW197824   4.898   0.747  10.867 -0.1211 -0.2435  0.6429
62952SOL    HW297825   4.876   0.895  10.885  0.4269 -0.1109  0.2719
62953SOL     OW97826   6.602   4.948   8.955  0.0084 -0.1812  0.3438
62953SOL    HW197827   6.667   4.883   8.929  0.7145  0.6559 -0.0394
62953SOL    HW297828   6.547   4.960   8.877 -0.0239 -0.2040  0.3623
62954SOL     OW97829   1.229  10.533  11.900  0.4339 -0.4505 -0.0863
62954SOL    HW197830   1.149  10.582  11.918  0.0271 -0.7355 -1.0601
62954SOL    HW297831   1.198  10.449  11.866  1.1441 -0.8227  0.1643
62955SOL     OW97832   2.995   5.331   0.371  0.4236  0.0932 -0.0632
62955SOL    HW197833   3.015   5.291   0.456  0.7625 -0.9669 -0.6253
62955SOL    HW297834   3.068   5.306   0.314  1.3665  2.6361 -0.1349
62956SOL     OW97835  12.287   0.201   0.863 -0.4096  0.7124  0.0958
62956SOL    HW197836  12.244   0.119   0.840  1.5171 -0.6100  0.8680
62956SOL    HW297837  12.304   0.244   0.779 -1.3027  0.2516 -0.3329
62957SOL     OW97838  10.552   4.043   3.079 -0.2785  0.5323  0.3293
62957SOL    HW197839  10.597   3.970   3.038 -0.3468  0.8781 -0.3797
62957SOL    HW297840  10.618   4.084   3.134  0.1894  0.8256 -0.4290
62958SOL     OW97841   6.071  11.648  11.804 -0.2429 -0.1529  0.2686
62958SOL    HW197842   6.008  11.584  11.770  0.0110 -0.3390  0.1473
62958SOL    HW297843   6.043  11.664  11.894 -1.6515  1.2546 -0.3863
62959SOL     OW97844  11.491   9.389   1.485  0.0722  0.0173 -0.4537
62959SOL    HW197845  11.454   9.422   1.403  0.0924  0.6556 -0.2125
62959SOL    HW297846  11.540   9.311   1.460 -1.3623 -0.8113 -0.7932
62960SOL     OW97847   5.173   1.718   5.800  0.8570  0.5399  0.3663
62960SOL    HW197848   5.174   1.623   5.811  1.3264  0.3779 -0.8847
62960SOL    HW297849   5.083   1.743   5.816  1.0715  0.1241  2.4387
62961SOL     OW97850   4.734   4.577  12.528  0.1366  0.3678 -0.3283
62961SOL    HW197851   4.697   4.600  12.443 -0.2478  0.6413 -0.0895
62961SOL    HW297852   4.724   4.657  12.580 -1.8527 -0.5183  0.7452
62962SOL     OW97853   6.648   7.265   2.755 -0.1967  0.1127 -0.3147
62962SOL    HW197854   6.614   7.224   2.835  0.0356  0.4911 -0.0146
62962SOL    HW297855   6.714   7.327   2.787  1.0418 -0.8723 -0.9057
62963SOL     OW97856  10.814   1.988   7.188  0.2966 -0.0035 -0.5192
62963SOL    HW197857  10.757   1.962   7.115  1.9753  0.3862 -2.0463
62963SOL    HW297858  10.788   2.077   7.209 -1.1854 -0.6102  0.4183
62964SOL     OW97859   2.881  12.031   2.812 -0.3441  0.2615  0.1606
62964SOL    HW197860   2.906  12.104   2.869 -0.8063  1.4876 -1.1560
62964SOL    HW297861   2.805  12.062   2.764 -1.5942 -1.7208  0.7401
62965SOL     OW97862   1.529  12.353   2.709 -0.1120  0.2536 -0.0488
62965SOL    HW197863   1.539  12.291   2.781 -1.0327 -0.4856 -0.5312
62965SOL    HW297864   1.441  12.336   2.675  0.3009  0.5755 -1.3445
62966SOL     OW97865  12.444  11.545   3.436  0.3128  1.3985  0.2359
62966SOL    HW197866  12.416  11.523   3.347 -1.9794  1.4650  0.8699
62966SOL    HW297867  12.537  11.523   3.438  0.2217  0.5386 -1.8912
62967SOL     OW97868   9.083   1.266   9.400  0.2562  0.2845 -0.2943
62967SOL    HW197869   9.008   1.208   9.412 -0.3818  1.0426 -0.5589
62967SOL    HW297870   9.152   1.228   9.454 -0.4590 -0.1544  0.3189
62968SOL     OW97871   0.500   4.421  10.044 -0.3083  0.5637  0.2983
62968SOL    HW197872   0.483   4.396   9.953  1.2872  1.0991 -0.1721
62968SOL    HW297873   0.556   4.351  10.079  0.2178  1.0453  0.4400
62969SOL     OW97874  11.416   9.888   3.703 -0.1046 -0.5285  0.1313
62969SOL    HW197875  11.438   9.815   3.762 -2.0174 -1.1701  0.1174
62969SOL    HW297876  11.466   9.871   3.624  2.0317  0.0033  1.2964
62970SOL     OW97877   9.171   8.594   6.179 -0.4122  0.0869 -0.2453
62970SOL    HW197878   9.249   8.540   6.162 -0.5647 -0.6591  1.2475
62970SOL    HW297879   9.101   8.551   6.131 -0.2428 -0.2580 -0.1885
62971SOL     OW97880   3.557  10.575   3.052  0.2623 -0.1313 -0.6271
62971SOL    HW197881   3.557  10.487   3.089  0.0116  0.1015 -0.0602
62971SOL    HW297882   3.473  10.581   3.006  1.0324 -0.7987 -2.1817
62972SOL     OW97883   3.267   9.192   0.060 -0.6968 -0.7157 -0.3210
62972SOL    HW197884   3.269   9.111   0.111 -1.6819 -0.9061 -0.5632
62972SOL    HW297885   3.252   9.261   0.125 -1.7216 -0.9332 -0.3136
62973SOL     OW97886   8.586   4.689   1.758 -0.1590  0.3595 -0.1210
62973SOL    HW197887   8.538   4.677   1.676 -0.5218 -1.5228  0.3135
62973SOL    HW297888   8.645   4.762   1.741 -2.2572  1.9529 -1.0933
62974SOL     OW97889   8.267   2.046   5.332 -0.2806 -0.2753  0.6205
62974SOL    HW197890   8.267   2.142   5.328  3.7002 -0.1583 -2.4158
62974SOL    HW297891   8.260   2.018   5.241 -1.1903 -2.9446  1.4106
62975SOL     OW97892  11.988   2.578   7.961  0.5920 -0.5769 -0.6616
62975SOL    HW197893  12.068   2.552   8.007 -0.5406 -1.0020  1.1891
62975SOL    HW297894  11.982   2.672   7.974  1.9344 -0.1308 -2.7992
62976SOL     OW97895   6.238   1.273   4.343  0.2483  0.0453  0.3411
62976SOL    HW197896   6.186   1.256   4.264 -2.2664  0.6332  1.7633
62976SOL    HW297897   6.246   1.187   4.385  2.8111 -0.5401 -1.1450
62977SOL     OW97898   3.725   6.087   0.408 -0.8541  0.3836 -0.4323
62977SOL    HW197899   3.809   6.108   0.450 -0.1875  0.5575 -1.7821
62977SOL    HW297900   3.703   6.000   0.439  1.1845 -0.7889 -2.0341
62978SOL     OW97901   6.815   1.386   0.083 -0.0307 -0.4770  0.6165
62978SOL    HW197902   6.810   1.302   0.129 -2.9228  0.3141  1.9668
62978SOL    HW297903   6.757   1.377   0.008 -0.5307  0.3429  0.8870
62979SOL     OW97904   6.575   9.947   5.378 -0.6583  0.0602 -0.1916
62979SOL    HW197905   6.588  10.042   5.380  1.2171 -0.1490 -0.2203
62979SOL    HW297906   6.661   9.911   5.398 -1.8875 -1.6700  2.6000
62980SOL     OW97907   6.019   4.279   7.995 -0.0907  0.1867 -0.3217
62980SOL    HW197908   5.927   4.256   8.008  0.0757 -2.8944 -3.2688
62980SOL    HW297909   6.067   4.221   8.053  0.0580 -0.0604 -0.6897
62981SOL     OW97910  11.527   7.639   4.650 -0.1817  0.2965  0.4178
62981SOL    HW197911  11.564   7.555   4.676  1.7161  1.0890  0.4327
62981SOL    HW297912  11.545   7.645   4.556  0.1796  0.8831  0.5142
62982SOL     OW97913   8.772   8.552   3.237 -0.1460 -0.9212  0.0847
62982SOL    HW197914   8.855   8.527   3.197  0.0486 -0.3198  0.1090
62982SOL    HW297915   8.770   8.505   3.320  0.6280 -0.1535  0.5405
62983SOL     OW97916   6.669   8.947   5.599 -0.7323  0.1136  0.3453
62983SOL    HW197917   6.718   8.887   5.656 -1.9013 -0.5259  0.7237
62983SOL    HW297918   6.636   8.892   5.529  0.0452  0.7600 -0.5500
62984SOL     OW97919   3.278   5.516   6.581  0.3850  0.0359  0.0972
62984SOL    HW197920   3.293   5.591   6.638  0.5950  0.1047 -0.0463
62984SOL    HW297921   3.195   5.535   6.538  0.7428  0.4825 -0.4016
62985SOL     OW97922   9.205   4.577   4.190  0.3712  0.5122  0.4324
62985SOL    HW197923   9.233   4.660   4.229  0.0165  0.5458  0.6169
62985SOL    HW297924   9.169   4.527   4.264  0.6244  0.1785  0.3290
62986SOL     OW97925   8.483  10.203   4.549 -0.4340 -0.4076  0.3725
62986SOL    HW197926   8.538  10.251   4.611 -0.2676  0.4953 -0.4381
62986SOL    HW297927   8.408  10.175   4.600 -0.1769  0.0873  1.0429
62987SOL     OW97928   7.367  12.073  11.337  0.4239 -0.5874 -0.0290
62987SOL    HW197929   7.417  12.090  11.417  0.9845 -0.3503 -0.4239
62987SOL    HW297930   7.424  12.017  11.284 -0.4987 -1.9201  0.3072
62988SOL     OW97931   7.559   4.771   7.241 -0.4528 -0.5214 -0.0208
62988SOL    HW197932   7.650   4.775   7.214 -0.6252 -0.8976 -0.6797
62988SOL    HW297933   7.517   4.845   7.196  0.1157  1.6730  2.7527
62989SOL     OW97934  10.515  12.574   8.008  0.2234 -0.2876  0.0651
62989SOL    HW197935  10.442  12.512   8.019  1.4973 -1.6992  0.9053
62989SOL    HW297936  10.584  12.540   8.064  0.3946  2.9360  2.0759
62990SOL     OW97937   6.813   1.648   1.583 -0.2156 -0.3538 -0.0299
62990SOL    HW197938   6.890   1.652   1.641  0.9394 -0.1430 -1.5064
62990SOL    HW297939   6.769   1.567   1.606  0.3790 -0.4125  0.9481
62991SOL     OW97940   6.854   3.946   5.296 -0.3494  0.2064 -0.4742
62991SOL    HW197941   6.891   3.912   5.214 -0.6043  0.4128 -0.6761
62991SOL    HW297942   6.921   3.928   5.362 -0.1169  0.0936 -0.7398
62992SOL     OW97943  10.288   0.498   4.547  0.0012 -0.3544  0.1409
62992SOL    HW197944  10.339   0.508   4.467  0.3097  0.0355  0.3839
62992SOL    HW297945  10.200   0.528   4.524 -0.0093 -0.6029 -0.1535
62993SOL     OW97946   6.792   0.804   1.540 -0.8109  0.3500 -0.6129
62993SOL    HW197947   6.811   0.713   1.559 -1.2531  0.4104  0.1626
62993SOL    HW297948   6.773   0.806   1.446 -2.2250 -0.6209 -0.3728
62994SOL     OW97949   3.061  10.804   7.459 -0.1778 -0.0737 -0.4780
62994SOL    HW197950   3.023  10.873   7.405  0.3714  1.0460  0.5361
62994SOL    HW297951   3.032  10.824   7.548  1.4095 -0.1286  0.0807
62995SOL     OW97952  10.465  12.547   4.000 -0.2607  0.2000  0.4239
62995SOL    HW197953  10.548  12.564   3.956 -0.3726 -2.0720 -0.8587
62995SOL    HW297954  10.403  12.605   3.957  0.0311 -0.5394 -1.0651
62996SOL     OW97955  12.318   8.673   2.474  0.0997  0.5812 -0.1250
62996SOL    HW197956  12.244   8.730   2.495 -0.6460 -0.3862 -0.0676
62996SOL    HW297957  12.391   8.711   2.524 -0.3685  1.4787 -0.0842
62997SOL     OW97958   1.451   7.301   8.903  0.0648  0.1450  0.2128
62997SOL    HW197959   1.371   7.308   8.851  0.8503 -1.3645 -1.2610
62997SOL    HW297960   1.427   7.244   8.976  0.6490 -3.6084 -2.2636
62998SOL     OW97961   2.063   3.163   4.706 -0.0578 -0.1067 -0.3657
62998SOL    HW197962   2.086   3.251   4.677  0.7483  0.2451  1.2676
62998SOL    HW297963   1.972   3.152   4.678 -0.1128  1.1517 -0.7617
62999SOL     OW97964   0.975   0.614  12.091  0.0670 -0.2789  0.0849
62999SOL    HW197965   0.921   0.577  12.021 -0.6077 -1.0250  0.9786
62999SOL    HW297966   1.061   0.627  12.050 -0.3378 -0.5998 -0.9109
63000SOL     OW97967   5.098   3.381   2.683 -0.1496  0.0127  0.4873
63000SOL    HW197968   5.169   3.409   2.740  0.3203 -1.5562  0.7241
63000SOL    HW297969   5.140   3.364   2.599  0.0161 -2.0562  0.9435
63001SOL     OW97970  10.613   2.217   2.449  0.3520  0.3523 -0.5220
63001SOL    HW197971  10.661   2.263   2.379  1.5411  2.1212  1.3419
63001SOL    HW297972  10.536   2.272   2.465  0.1878  0.0573 -0.3078
63002SOL     OW97973   8.678  11.380  10.247 -0.4793 -0.1914 -0.1296
63002SOL    HW197974   8.773  11.387  10.252 -0.6453  2.4936  0.8114
63002SOL    HW297975   8.656  11.405  10.157 -0.3296 -0.4483 -0.2384
63003SOL     OW97976   4.010   1.643   5.528  0.5288 -0.2946  0.2921
63003SOL    HW197977   3.946   1.593   5.477 -0.1556 -0.8146  1.6083
63003SOL    HW297978   4.035   1.716   5.471  0.4072 -1.2928 -1.0851
63004SOL     OW97979   9.330  10.491   2.690  0.1161  0.2552  0.0285
63004SOL    HW197980   9.280  10.459   2.614  0.6117 -0.3616 -0.0484
63004SOL    HW297981   9.308  10.584   2.695 -0.1999  0.2292 -0.6576
63005SOL     OW97982   3.143   2.148   6.919 -0.4252 -0.1858 -0.7685
63005SOL    HW197983   3.060   2.149   6.966 -0.0936  1.3710 -0.1775
63005SOL    HW297984   3.166   2.055   6.913 -1.1587 -0.5069  0.9294
63006SOL     OW97985   1.799  11.910   0.021 -0.3423 -0.1482  0.3883
63006SOL    HW197986   1.781  11.855   0.098 -2.1023 -0.6875 -0.3540
63006SOL    HW297987   1.770  11.998   0.048  1.4440  0.2338  1.1931
63007SOL     OW97988   5.407  10.238   7.873  0.2120  0.1717 -1.0954
63007SOL    HW197989   5.316  10.252   7.845  0.0458  1.3458 -0.0733
63007SOL    HW297990   5.459  10.254   7.794 -0.4346  0.1551 -1.5287
63008SOL     OW97991   3.358   1.725   2.129 -0.2846 -0.2762  0.2071
63008SOL    HW197992   3.319   1.658   2.185  0.9875 -0.5952  0.7558
63008SOL    HW297993   3.413   1.676   2.067  0.5792  0.2243  0.5479
63009SOL     OW97994   9.461   4.436   4.818  0.3309  0.0086  0.1348
63009SOL    HW197995   9.439   4.429   4.911  1.3887 -0.2211  0.3790
63009SOL    HW297996   9.408   4.509   4.787 -1.3296 -0.9581  0.5057
63010SOL     OW97997   8.893   0.876   8.347  0.0209 -0.1768 -0.4717
63010SOL    HW197998   8.805   0.856   8.377 -0.2219  0.2448 -0.8951
63010SOL    HW297999   8.903   0.823   8.267  0.7439 -1.4711  0.4444
63011SOL     OW98000   4.888  10.313  11.650 -0.3467  0.4085 -0.0995
63011SOL    HW198001   4.942  10.372  11.704 -0.0495 -0.0579  0.1172
63011SOL    HW298002   4.801  10.319  11.688 -0.3021  0.6563 -0.0339
63012SOL     OW98003   5.401   3.805  10.489 -0.3854 -0.2745  0.4126
63012SOL    HW198004   5.491   3.797  10.457  0.3991 -1.0161  2.6231
63012SOL    HW298005   5.368   3.884  10.447  1.1470 -0.2087 -0.7686
63013SOL     OW98006   2.561  11.139  11.436  0.2731  0.2530  0.1377
63013SOL    HW198007   2.515  11.204  11.490  0.2377  1.0271 -0.8056
63013SOL    HW298008   2.554  11.173  11.347 -0.0724 -1.2346 -0.4325
63014SOL     OW98009   2.323   5.577  10.243  0.2574 -0.3022 -0.2478
63014SOL    HW198010   2.266   5.639  10.288 -0.3922 -1.8228  1.1079
63014SOL    HW298011   2.402   5.572  10.298 -0.0148 -1.2220  0.0816
63015SOL     OW98012   4.525   3.242   5.316 -0.0543  0.0591 -0.6236
63015SOL    HW198013   4.559   3.159   5.282  0.4165 -0.0423  0.0706
63015SOL    HW298014   4.570   3.254   5.399 -1.4563  0.1013  0.1731
63016SOL     OW98015  10.112  12.028   0.483 -0.6299 -0.2404  0.5303
63016SOL    HW198016  10.036  12.069   0.525 -1.3881  0.6788 -1.6062
63016SOL    HW298017  10.081  11.944   0.451 -0.0851 -0.8877  1.6395
63017SOL     OW98018   6.042   8.837   2.527  0.6920  0.0713  0.5864
63017SOL    HW198019   6.056   8.876   2.613 -0.6290 -1.2576  1.4502
63017SOL    HW298020   6.061   8.744   2.539 -0.1579 -0.2458 -0.3900
63018SOL     OW98021  12.500   9.129   4.408 -0.0771 -0.1713  0.0034
63018SOL    HW198022  12.511   9.215   4.367 -0.6354  0.1273  0.4609
63018SOL    HW298023  12.506   9.146   4.502  0.3139 -0.7106  0.0788
63019SOL     OW98024   1.904   6.507   3.050  0.0694 -0.6992  0.4944
63019SOL    HW198025   1.907   6.466   2.963 -0.1956  1.3362 -0.5542
63019SOL    HW298026   1.977   6.469   3.098  0.4864 -1.5589 -0.7764
63020SOL     OW98027   9.696   1.452   3.123 -0.1846 -0.3083 -0.2979
63020SOL    HW198028   9.645   1.533   3.114  3.3874  2.0157 -1.9694
63020SOL    HW298029   9.649   1.388   3.069 -2.7618  0.7621  0.5378
63021SOL     OW98030   0.980  10.082   6.194 -0.6172 -0.4780  0.2514
63021SOL    HW198031   0.966   9.996   6.153  2.6517 -0.9085 -0.2637
63021SOL    HW298032   0.932  10.143   6.139 -0.9053 -1.6966 -0.9074
63022SOL     OW98033   1.837  11.904   1.935 -1.0465 -0.2607 -0.7287
63022SOL    HW198034   1.923  11.897   1.978 -0.5948  0.2091 -1.5338
63022SOL    HW298035   1.786  11.961   1.993 -0.5006  0.2215 -0.7102
63023SOL     OW98036   6.178   9.931   6.279  0.6417  0.0816  0.5821
63023SOL    HW198037   6.083   9.931   6.271  0.7259 -1.1000 -1.1144
63023SOL    HW298038   6.195   9.955   6.370 -1.3555 -1.7820  1.5558
63024SOL     OW98039   1.720   7.890  11.205  0.4329  0.0696 -0.1987
63024SOL    HW198040   1.719   7.963  11.144 -0.6747 -1.2472 -1.8453
63024SOL    HW298041   1.780   7.918  11.275  0.3942  2.3211 -0.9901
63025SOL     OW98042   6.557   6.343   2.743  0.2932  0.4795 -0.6264
63025SOL    HW198043   6.519   6.428   2.720  2.4184  1.0817 -2.2672
63025SOL    HW298044   6.538   6.288   2.667  1.0345  0.2344 -0.6338
63026SOL     OW98045   4.394   2.748  10.370 -0.0765  0.3398 -0.2604
63026SOL    HW198046   4.389   2.717  10.460 -0.4597  0.0701 -0.3700
63026SOL    HW298047   4.488   2.759  10.353  0.0510 -0.4535 -0.1090
63027SOL     OW98048   2.893   5.620   5.595 -0.5625 -0.1464 -0.2604
63027SOL    HW198049   2.832   5.680   5.638 -0.5338 -0.9429  0.9514
63027SOL    HW298050   2.890   5.645   5.503 -2.0275  0.4269 -0.0879
63028SOL     OW98051   5.874   1.959  10.973 -0.0409 -0.3190  0.2690
63028SOL    HW198052   5.818   1.974  11.050  0.5885  4.0806  0.1534
63028SOL    HW298053   5.812   1.955  10.899 -0.5070 -2.3271  0.7192
63029SOL     OW98054   5.109   7.469   2.425 -0.0958  0.0182  0.1815
63029SOL    HW198055   5.140   7.545   2.474  2.6893  0.5767 -2.2284
63029SOL    HW298056   5.130   7.394   2.481  1.2861  0.7386  0.6567
63030SOL     OW98057   2.875   7.366   6.943 -0.2846 -0.3756 -0.3376
63030SOL    HW198058   2.956   7.322   6.918 -0.1455  0.8156 -2.1264
63030SOL    HW298059   2.903   7.437   7.000  0.0424  0.4539 -1.4966
63031SOL     OW98060   9.931  11.986   3.957  0.1420 -0.3152  0.2336
63031SOL    HW198061   9.926  12.041   4.035 -1.9840  0.3680 -0.3394
63031SOL    HW298062   9.894  11.902   3.984 -0.0850 -0.2580  0.0981
63032SOL     OW98063  11.323   3.058   2.450  0.6648  0.0088  0.2968
63032SOL    HW198064  11.231   3.066   2.427  0.6818  0.1450  0.2760
63032SOL    HW298065  11.347   2.969   2.422  0.5538 -0.0083  0.2561
63033SOL     OW98066   2.307   6.010   6.980  0.1841 -0.5341 -0.7590
63033SOL    HW198067   2.229   5.994   7.034 -0.6184 -0.5679 -1.9064
63033SOL    HW298068   2.342   6.093   7.013  0.3409 -1.0902  0.5343
63034SOL     OW98069   4.408   4.589   0.831  0.6249  0.1540 -0.4784
63034SOL    HW198070   4.474   4.577   0.763 -1.1318 -1.0258 -2.1014
63034SOL    HW298071   4.330   4.545   0.796 -0.9568  1.2751  1.4275
63035SOL     OW98072  12.208   6.824   7.705 -0.4831  0.5862 -0.7061
63035SOL    HW198073  12.136   6.855   7.649 -1.8487  0.9458  1.1553
63035SOL    HW298074  12.167   6.759   7.762  0.9203  0.0662 -0.2637
63036SOL     OW98075   7.441   0.396   8.397 -0.1372 -0.0219  0.1546
63036SOL    HW198076   7.466   0.323   8.453  0.1870 -0.5322 -0.6346
63036SOL    HW298077   7.345   0.390   8.391 -0.2402  0.4234  1.1479
63037SOL     OW98078  11.699   3.937   7.229 -0.3451  0.3516 -0.0834
63037SOL    HW198079  11.616   3.891   7.213  0.2700 -0.3768 -1.4323
63037SOL    HW298080  11.720   3.977   7.144  0.4779  0.8554  0.3502
63038SOL     OW98081  12.413  11.781   8.140 -0.2645 -0.3092  0.4580
63038SOL    HW198082  12.339  11.840   8.122  0.9352  0.6503 -1.7876
63038SOL    HW298083  12.475  11.835   8.189  0.5405  0.1847 -1.0123
63039SOL     OW98084   6.055   4.889   8.816 -0.5411 -0.4269  0.4409
63039SOL    HW198085   5.980   4.837   8.847 -0.0398 -0.3265  1.9282
63039SOL    HW298086   6.023   4.934   8.738 -0.8633 -3.3083 -1.2345
63040SOL     OW98087   9.883   9.907   6.977  0.4297  0.4890  0.4244
63040SOL    HW198088   9.933   9.845   6.925  1.5404  1.4240  0.3236
63040SOL    HW298089   9.791   9.891   6.954  0.8601  0.5753 -1.4874
63041SOL     OW98090   1.587  11.971   3.282  0.2930  0.5764  0.0328
63041SOL    HW198091   1.664  12.027   3.287  0.4705  0.5827 -1.8691
63041SOL    HW298092   1.544  11.980   3.367  2.6932  0.0920  1.3883
63042SOL     OW98093   0.954   3.986   7.954 -0.3268 -0.2494 -0.1915
63042SOL    HW198094   0.971   3.897   7.983  0.3743  0.0092  0.2141
63042SOL    HW298095   0.991   4.041   8.022 -1.5960  0.3580  0.0347
63043SOL     OW98096   4.862  10.633   4.087  0.0621  0.7235  0.0027
63043SOL    HW198097   4.919  10.705   4.061  0.5820  0.2232 -0.2580
63043SOL    HW298098   4.856  10.578   4.010  1.6681 -0.8117  0.9183
63044SOL     OW98099   9.985   5.138   4.709  0.0050 -0.2293  0.9832
63044SOL    HW198100  10.020   5.051   4.688 -1.2957 -0.1189 -2.4371
63044SOL    HW298101  10.060   5.197   4.702  0.4090 -0.7878  0.4762
63045SOL     OW98102   9.756   3.711   4.838  0.4036 -0.1655 -0.4879
63045SOL    HW198103   9.755   3.788   4.782 -0.0622  1.1254  1.2311
63045SOL    HW298104   9.683   3.724   4.898 -0.3529 -2.4728 -0.7982
63046SOL     OW98105  12.357  11.489   1.752 -0.2746  0.2969  0.0603
63046SOL    HW198106  12.301  11.434   1.698 -0.0138 -0.9373  1.0006
63046SOL    HW298107  12.307  11.569   1.765 -1.2085 -0.2154 -0.2885
63047SOL     OW98108   6.989   7.194   7.620  0.1861  0.3704  0.2487
63047SOL    HW198109   7.001   7.269   7.678  0.5302  0.1831  0.4215
63047SOL    HW298110   7.016   7.225   7.534  0.6929  0.3338  0.3926
63048SOL     OW98111  11.005   1.762   8.323 -0.0119  0.0850 -0.1767
63048SOL    HW198112  11.043   1.689   8.372  0.2167  0.0970 -0.3332
63048SOL    HW298113  10.936   1.722   8.270  0.0432 -0.0017 -0.1842
63049SOL     OW98114   9.844   2.166   0.083  0.2642  0.3048  0.5368
63049SOL    HW198115   9.896   2.090   0.058 -0.7692 -0.0928 -0.5137
63049SOL    HW298116   9.842   2.164   0.178 -0.5708 -1.5651  0.5092
63050SOL     OW98117  11.415   1.350   0.483 -0.3733 -0.1573 -0.3714
63050SOL    HW198118  11.394   1.433   0.526  3.2331  0.3132  0.8728
63050SOL    HW298119  11.473   1.374   0.411  0.4936 -1.5338 -0.1737
63051SOL     OW98120   5.095   1.406  10.956  0.1681  0.0848 -1.0049
63051SOL    HW198121   5.037   1.353  11.011  0.0204  1.3009  0.0634
63051SOL    HW298122   5.183   1.388  10.989 -0.1050  3.3669  2.1405
63052SOL     OW98123  11.892   5.083   1.805 -0.1154  0.2557  0.0981
63052SOL    HW198124  11.936   5.005   1.838  0.4020 -0.4367 -2.0489
63052SOL    HW298125  11.963   5.136   1.768 -0.7339  0.4963 -0.7862
63053SOL     OW98126   8.048   6.033  11.510  0.0718 -0.0606  0.1478
63053SOL    HW198127   7.989   6.100  11.475 -1.0667 -0.6512  0.8861
63053SOL    HW298128   8.052   5.966  11.442  1.8878  1.0717 -0.9722
63054SOL     OW98129  10.494   2.394   9.718  0.4723 -0.1497  0.6678
63054SOL    HW198130  10.408   2.354   9.703  0.0957 -0.5502  3.3942
63054SOL    HW298131  10.494   2.473   9.663 -1.2056 -0.6782 -0.1516
63055SOL     OW98132   7.109   2.904   9.128  0.3228  0.2502  0.7288
63055SOL    HW198133   7.085   2.812   9.119  0.8180  0.2344 -0.7641
63055SOL    HW298134   7.051   2.950   9.068  1.0761  0.7281  0.3540
63056SOL     OW98135   8.607  11.186   6.483  0.0433  0.2766  0.4504
63056SOL    HW198136   8.514  11.205   6.473 -0.6496 -1.3753  2.7831
63056SOL    HW298137   8.622  11.190   6.578  2.4871  0.9835  0.0957
63057SOL     OW98138  11.294   5.847   6.522  0.9434  0.0684  0.4626
63057SOL    HW198139  11.221   5.803   6.478  2.0415 -0.5451 -0.8323
63057SOL    HW298140  11.257   5.879   6.604 -0.6784 -0.5571  0.0157
63058SOL     OW98141   9.691  11.563   0.468  0.0953 -0.7944 -0.1144
63058SOL    HW198142   9.662  11.506   0.539 -0.4464 -0.7655 -0.3076
63058SOL    HW298143   9.670  11.651   0.498  0.8440 -0.6963  0.1432
63059SOL     OW98144   8.715   8.015   2.769  0.3394 -0.8606  0.7203
63059SOL    HW198145   8.686   8.102   2.741 -0.3588 -1.2361  0.2457
63059SOL    HW298146   8.757   7.978   2.691 -0.9380 -1.6157  0.3466
63060SOL     OW98147   0.152   9.451   7.272 -0.6300  0.4487  0.0264
63060SOL    HW198148   0.079   9.413   7.223 -0.7191 -0.2877  0.7030
63060SOL    HW298149   0.202   9.375   7.302  0.3746  0.9466 -0.3702
63061SOL     OW98150  10.095   3.832  11.444 -0.1343 -0.3270  0.6556
63061SOL    HW198151  10.057   3.745  11.457 -2.4026  0.5262  0.0695
63061SOL    HW298152  10.084   3.876  11.529  0.3553 -0.3626  0.7399
63062SOL     OW98153   0.315   2.507   8.865 -0.2373  0.3302  0.5266
63062SOL    HW198154   0.334   2.505   8.771  0.9592 -0.6690  0.7726
63062SOL    HW298155   0.393   2.546   8.905 -1.6136  2.8815  0.9523
63063SOL     OW98156   4.929   0.954  10.692 -0.8549  0.2339  0.0058
63063SOL    HW198157   5.014   0.994  10.675 -0.9850  0.4450 -0.1583
63063SOL    HW298158   4.929   0.874  10.640 -0.6106  0.0432  0.2986
63064SOL     OW98159   7.416   4.514   7.800  0.2973  0.2208  0.0732
63064SOL    HW198160   7.345   4.515   7.864  0.8571 -0.0462  0.7125
63064SOL    HW298161   7.449   4.604   7.799 -1.5169  0.9326 -1.9294
63065SOL     OW98162   5.801   7.519   2.441 -0.4429  0.4059 -0.3227
63065SOL    HW198163   5.890   7.487   2.425 -0.7271 -0.2535 -0.6410
63065SOL    HW298164   5.799   7.536   2.535 -0.2622 -0.4915 -0.1446
63066SOL     OW98165   3.444   8.383   6.200 -0.0981 -0.3480  0.0377
63066SOL    HW198166   3.373   8.363   6.138  2.8678 -2.1175 -3.1851
63066SOL    HW298167   3.416   8.463   6.244 -4.0594 -0.9701 -0.9328
63067SOL     OW98168   8.601   3.006   9.856 -0.1593 -0.4440  0.7991
63067SOL    HW198169   8.659   2.943   9.813 -1.1944 -0.5338 -0.5334
63067SOL    HW298170   8.648   3.089   9.852 -1.1162  0.0671 -2.6765
63068SOL     OW98171   0.755   0.500   2.302 -1.0325  0.4097 -0.1278
63068SOL    HW198172   0.741   0.409   2.276 -1.9759  0.3940  0.4082
63068SOL    HW298173   0.734   0.551   2.224  0.6683  0.1242 -0.8115
63069SOL     OW98174   5.382  12.345   3.033  0.6444  0.1166  0.7277
63069SOL    HW198175   5.329  12.308   2.963  2.2938 -0.5357 -0.2425
63069SOL    HW298176   5.395  12.273   3.095 -0.8265  0.6958  1.7769
63070SOL     OW98177   8.126   3.663   0.154  0.1950  0.4265  0.2356
63070SOL    HW198178   8.031   3.673   0.153 -0.0408 -1.4541  0.4829
63070SOL    HW298179   8.142   3.580   0.110  1.7315  0.6757  0.2691
63071SOL     OW98180   5.444   9.902   6.946  0.2005  0.2668  0.1820
63071SOL    HW198181   5.468   9.932   6.858 -3.0263  0.7791 -0.6800
63071SOL    HW298182   5.430   9.808   6.936 -0.8879  0.4405 -0.1070
63072SOL     OW98183   8.203   2.288   5.628 -0.0123 -0.0363 -0.0637
63072SOL    HW198184   8.274   2.242   5.673  0.4949 -0.2503 -1.0561
63072SOL    HW298185   8.221   2.276   5.535 -2.0836 -1.2433 -0.3748
63073SOL     OW98186   1.410   9.416   4.350  0.0139  0.4445  0.1085
63073SOL    HW198187   1.469   9.400   4.424  0.7152  0.4435 -0.4505
63073SOL    HW298188   1.455   9.481   4.297  0.3802 -0.9287 -1.3152
63074SOL     OW98189  12.479   3.891   9.004 -0.3643 -0.1506  0.1646
63074SOL    HW198190  12.547   3.885   8.937  0.3315 -1.7717  0.9665
63074SOL    HW298191  12.449   3.982   8.999 -0.8287 -0.3443 -2.7895
63075SOL     OW98192   2.034  10.061   5.654 -0.3027 -0.2969 -0.4598
63075SOL    HW198193   1.959  10.098   5.609 -0.4188  0.8666  0.6334
63075SOL    HW298194   2.055  10.124   5.723 -0.4434 -2.1764  1.4447
63076SOL     OW98195   8.371   2.915   4.847  0.0155  0.1818 -0.1083
63076SOL    HW198196   8.458   2.949   4.868  1.0760 -1.9851 -0.7199
63076SOL    HW298197   8.336   2.886   4.930  1.0806 -1.4919 -0.2026
63077SOL     OW98198   0.994   7.401   1.690  0.2039 -0.3670 -0.3051
63077SOL    HW198199   1.004   7.348   1.611  0.7706 -1.6175  0.5699
63077SOL    HW298200   0.900   7.420   1.694 -0.2907 -2.5799  0.1049
63078SOL     OW98201  10.605   7.287   0.849 -0.0181 -0.2971  0.6512
63078SOL    HW198202  10.641   7.348   0.914  1.1769  0.9333 -1.0634
63078SOL    HW298203  10.528   7.250   0.891 -1.5607  3.3345  1.4339
63079SOL     OW98204  11.787   7.691  11.521  0.3307 -0.3471 -0.1405
63079SOL    HW198205  11.693   7.687  11.534  0.1341 -1.2812 -1.6214
63079SOL    HW298206  11.822   7.621  11.576  0.3862  1.1252  1.8103
63080SOL     OW98207  12.319   8.845  11.301 -0.0907 -0.0169  0.4479
63080SOL    HW198208  12.343   8.851  11.209 -2.2539  1.2358 -0.1160
63080SOL    HW298209  12.402   8.850  11.348  1.0065  0.0749 -1.3973
63081SOL     OW98210   6.429   6.464   0.101  0.0709 -0.1913 -0.1339
63081SOL    HW198211   6.449   6.393   0.162  1.0227 -0.7821 -1.1091
63081SOL    HW298212   6.442   6.544   0.152  0.4817 -0.6875  0.5477
63082SOL     OW98213   8.114  10.477   9.946 -0.4217 -0.0723  0.0646
63082SOL    HW198214   8.178  10.544   9.970  0.4320 -1.1792  1.0029
63082SOL    HW298215   8.056  10.471  10.023 -1.1181  0.2726 -0.4178
63083SOL     OW98216   1.648   9.569  11.536 -0.3508  0.7275  0.4087
63083SOL    HW198217   1.650   9.545  11.628  3.1770 -0.0464  0.2665
63083SOL    HW298218   1.579   9.514  11.498  1.1979 -2.4292  1.8045
63084SOL     OW98219   8.007   3.273   0.896  0.4236  0.3851  0.1072
63084SOL    HW198220   8.005   3.365   0.872  0.1109  1.0957  2.6373
63084SOL    HW298221   7.915   3.246   0.899  0.4886  0.1314 -0.1163
63085SOL     OW98222   4.768   8.933   2.197  0.3599  0.2540 -0.5987
63085SOL    HW198223   4.760   8.910   2.104 -1.7159 -1.5989 -0.0731
63085SOL    HW298224   4.839   8.877   2.229 -0.0303 -0.3522 -0.7639
63086SOL     OW98225   1.997   2.259   6.735 -0.1742  0.0757 -0.3298
63086SOL    HW198226   1.986   2.265   6.830 -1.1537  1.2793 -0.4864
63086SOL    HW298227   1.907   2.255   6.701 -0.0284  2.9761 -1.3495
63087SOL     OW98228   9.193   4.590   1.707  0.8389  0.1224  0.6909
63087SOL    HW198229   9.241   4.559   1.783  2.2841  1.8615  0.5524
63087SOL    HW298230   9.215   4.683   1.701  0.6057  0.0855 -1.6986
63088SOL     OW98231  10.907   1.016   7.626 -0.2953  0.0691 -0.4024
63088SOL    HW198232  10.944   1.018   7.714  0.4064  0.5266 -0.6962
63088SOL    HW298233  10.845   0.943   7.627  0.4696 -0.5819  0.1666
63089SOL     OW98234   0.141  11.483   3.191 -0.2253  0.1160  0.3581
63089SOL    HW198235   0.107  11.484   3.281 -0.5363  0.6628  0.2311
63089SOL    HW298236   0.127  11.393   3.162  0.4390 -0.2397  1.0719
63090SOL     OW98237   3.208   8.586   0.696  0.0436 -0.2807  0.0829
63090SOL    HW198238   3.153   8.591   0.775 -0.5548 -1.1196 -0.2726
63090SOL    HW298239   3.148   8.603   0.624  1.0218  3.0481 -0.1140
63091SOL     OW98240   1.632   0.607   0.258 -0.2417  0.2835  0.1035
63091SOL    HW198241   1.673   0.685   0.295  1.1281  0.2363 -1.2140
63091SOL    HW298242   1.541   0.632   0.241  0.4466  1.9988 -1.3246
63092SOL     OW98243  12.200   4.776   9.601  0.4113 -0.5570  0.0573
63092SOL    HW198244  12.191   4.834   9.525  0.0620  1.4768  1.5731
63092SOL    HW298245  12.284   4.800   9.640 -0.1318 -0.4685  1.1935
63093SOL     OW98246   5.079   5.055   5.864  0.0848 -0.3413  0.2667
63093SOL    HW198247   5.142   4.997   5.907 -1.2012 -1.1153  1.2011
63093SOL    HW298248   5.087   5.137   5.912 -0.9493 -1.0300  1.7209
63094SOL     OW98249  11.093   7.586   6.842  0.7593 -0.2531 -0.3779
63094SOL    HW198250  11.046   7.551   6.766  0.4974 -0.6871 -0.0141
63094SOL    HW298251  11.185   7.581   6.816  0.9322 -3.3154  0.4976
63095SOL     OW98252   8.179   9.276   4.500  0.4700  0.1165 -0.2566
63095SOL    HW198253   8.242   9.347   4.487 -0.3761  0.8559 -0.4381
63095SOL    HW298254   8.228   9.208   4.545  0.9417  1.3792  1.2087
63096SOL     OW98255  11.149   7.938   9.676 -0.0364  0.6494  0.4647
63096SOL    HW198256  11.175   7.878   9.746  1.2800  0.6189 -0.0176
63096SOL    HW298257  11.230   7.984   9.653 -0.5911  1.1395 -0.5758
63097SOL     OW98258   7.928   7.699   9.297  0.5981  0.0541 -0.0868
63097SOL    HW198259   7.937   7.616   9.344 -1.4876 -0.2480 -0.1409
63097SOL    HW298260   7.899   7.762   9.363 -1.1873 -0.0942 -0.6930
63098SOL     OW98261   7.473   6.736  12.276  0.2354  0.6161 -0.2549
63098SOL    HW198262   7.425   6.672  12.329  0.0274  1.2597  0.3509
63098SOL    HW298263   7.406   6.776  12.221 -0.0432  1.8722  0.9484
63099SOL     OW98264   6.685   3.168   5.030 -0.3398 -0.0272  0.0427
63099SOL    HW198265   6.598   3.139   5.055  0.6389 -0.4347  3.3895
63099SOL    HW298266   6.729   3.088   5.000 -0.0096 -0.6458  2.0179
63100SOL     OW98267   8.491   4.935   7.184  0.0244 -0.1459  0.1477
63100SOL    HW198268   8.527   4.931   7.272 -0.1193 -0.9706  0.1767
63100SOL    HW298269   8.405   4.893   7.191  0.3181 -0.8739 -0.5320
63101SOL     OW98270   0.853   4.696   3.999  0.0203 -0.3031  0.2220
63101SOL    HW198271   0.876   4.731   4.085 -0.0860 -1.9220  0.9488
63101SOL    HW298272   0.757   4.699   3.998  0.0110 -0.5508  0.2867
63102SOL     OW98273  11.063   9.441  11.435  0.5428  0.2945 -0.3964
63102SOL    HW198274  11.156   9.454  11.414  1.6948 -3.4357  1.4165
63102SOL    HW298275  11.043   9.355  11.399 -1.3267 -0.2670  1.8165
63103SOL     OW98276   8.256   2.901  11.080  0.4426 -0.5123 -0.1096
63103SOL    HW198277   8.298   2.840  11.019  1.1191 -0.7180  0.5383
63103SOL    HW298278   8.211   2.964  11.024  1.9447 -0.0464 -0.8662
63104SOL     OW98279   8.630   8.902   8.329 -0.0705 -0.0089  0.3186
63104SOL    HW198280   8.550   8.918   8.279  0.1930 -0.7885 -0.3870
63104SOL    HW298281   8.643   8.808   8.322  1.0188  0.1397  0.2381
63105SOL     OW98282   6.723   1.847   5.158  0.1464  0.2087  0.3459
63105SOL    HW198283   6.780   1.851   5.235 -0.2596  1.4110  0.6129
63105SOL    HW298284   6.636   1.869   5.192 -0.0301  0.7943 -0.4576
63106SOL     OW98285   2.612   7.942  11.534  0.2075 -0.2447 -0.1041
63106SOL    HW198286   2.638   7.906  11.619 -0.1886 -2.0277 -0.6990
63106SOL    HW298287   2.521   7.915  11.524  0.8938 -2.1397 -2.0629
63107SOL     OW98288   5.732   6.872  11.638  0.2103  0.2516 -0.2770
63107SOL    HW198289   5.786   6.810  11.589  0.0136 -0.1442 -0.0023
63107SOL    HW298290   5.660   6.893  11.579  1.0774  1.4133 -0.9585
63108SOL     OW98291   2.953   9.555   6.625 -0.0391 -0.6305  0.3790
63108SOL    HW198292   2.991   9.492   6.685  0.8526 -1.6580 -1.1948
63108SOL    HW298293   2.879   9.510   6.585 -0.1824 -0.2327  0.1858
63109SOL     OW98294   5.670   1.735   3.179 -0.5450  0.3437 -0.0603
63109SOL    HW198295   5.605   1.723   3.249  0.2314 -0.0744  0.6120
63109SOL    HW298296   5.635   1.686   3.105 -0.6902 -0.4438  0.5115
63110SOL     OW98297   5.156   3.814   9.049 -0.1789 -0.0289 -0.0195
63110SOL    HW198298   5.201   3.758   9.113 -0.5071  0.1538  0.3762
63110SOL    HW298299   5.226   3.855   8.999  0.3555  3.1647  2.9831
63111SOL     OW98300   7.791   6.609   1.313 -0.5527 -0.7427  0.0611
63111SOL    HW198301   7.881   6.624   1.341 -0.0064 -2.3936 -0.6498
63111SOL    HW298302   7.748   6.694   1.321  1.2530  0.2470 -0.2688
63112SOL     OW98303   9.783   2.885   5.165  0.6147  0.1159  0.5476
63112SOL    HW198304   9.756   2.794   5.177 -0.7278  0.5263  0.8401
63112SOL    HW298305   9.750   2.931   5.242 -0.4150  1.1850 -0.4853
63113SOL     OW98306   2.238   9.175   0.768  0.3752  0.3426  0.5562
63113SOL    HW198307   2.145   9.152   0.772  0.1637  0.9742 -0.3525
63113SOL    HW298308   2.266   9.177   0.859 -1.1208  2.5526  1.0716
63114SOL     OW98309   8.630   0.160   0.147 -0.0290 -0.0811  0.2512
63114SOL    HW198310   8.671   0.076   0.169 -0.8530 -0.5323  0.1112
63114SOL    HW298311   8.539   0.138   0.129 -0.0099  0.6820 -0.8966
63115SOL     OW98312   3.159   4.510   7.510  0.3879 -0.4198  0.0553
63115SOL    HW198313   3.166   4.469   7.597 -0.7719  0.6773  0.7023
63115SOL    HW298314   3.075   4.554   7.512  1.7617  2.4062 -0.4075
63116SOL     OW98315   3.053   7.630   1.347 -0.2885  0.5115 -0.4214
63116SOL    HW198316   3.148   7.618   1.351 -0.2222  1.0897 -0.0083
63116SOL    HW298317   3.024   7.575   1.275  0.1977 -0.6750  0.2655
63117SOL     OW98318   7.987   0.400   9.617 -0.8425 -0.2464 -0.5805
63117SOL    HW198319   7.899   0.364   9.608 -2.0429  2.3517  0.0674
63117SOL    HW298320   8.018   0.366   9.701 -0.5435 -2.3836 -1.4791
63118SOL     OW98321   3.054   6.291   3.519  0.0971 -0.3932 -0.4195
63118SOL    HW198322   2.976   6.328   3.560  1.2098  0.7983  0.7038
63118SOL    HW298323   3.119   6.360   3.525  1.3513 -1.4822 -1.0477
63119SOL     OW98324   6.309   1.918   8.476  0.7078  0.3421  0.3930
63119SOL    HW198325   6.285   1.955   8.391  0.8098  1.7915  0.9735
63119SOL    HW298326   6.341   1.830   8.455 -1.4853 -0.2628 -0.8068
63120SOL     OW98327   3.412   2.521   3.161  0.1928 -0.5941 -0.2918
63120SOL    HW198328   3.477   2.588   3.179  1.6785 -2.4323  1.8649
63120SOL    HW298329   3.359   2.556   3.090  1.8527  2.1333 -0.3051
63121SOL     OW98330  10.838   6.577   7.913 -0.1962  0.5666 -0.0097
63121SOL    HW198331  10.825   6.619   7.828  0.0135 -0.0107 -0.3379
63121SOL    HW298332  10.915   6.521   7.900 -0.1247  0.5186  0.5807
63122SOL     OW98333   3.279  10.668   1.256  0.2210 -0.3634 -0.2934
63122SOL    HW198334   3.281  10.720   1.336  0.4204  0.1612 -0.6352
63122SOL    HW298335   3.199  10.696   1.211  0.6294  0.0653 -0.7531
63123SOL     OW98336   2.244  10.130   4.782  0.4036 -0.1070  0.3545
63123SOL    HW198337   2.332  10.113   4.747  0.8168  2.4223 -0.0191
63123SOL    HW298338   2.199  10.175   4.711 -0.4650  0.5648  1.3218
63124SOL     OW98339   2.694   4.239   3.678 -0.3291  0.3419  0.2414
63124SOL    HW198340   2.619   4.273   3.627 -0.8402  0.3810  0.9990
63124SOL    HW298341   2.654   4.183   3.744  0.5433 -2.7244 -1.6256
63125SOL     OW98342   9.799   4.777   6.999 -0.0559 -0.3536  0.0631
63125SOL    HW198343   9.874   4.741   7.048  1.6237  1.8911 -0.6769
63125SOL    HW298344   9.725   4.769   7.060  0.2059 -4.3720  0.1488
63126SOL     OW98345   0.351   7.695  12.453  0.6252 -0.1101  0.0132
63126SOL    HW198346   0.436   7.732  12.430 -0.2023  1.6989 -0.3368
63126SOL    HW298347   0.299   7.704  12.373  0.4589 -2.4260 -0.2051
63127SOL     OW98348   7.292   1.805   8.749  0.3789  0.3603  0.5268
63127SOL    HW198349   7.249   1.878   8.705  0.0027 -0.4333 -0.4786
63127SOL    HW298350   7.240   1.790   8.828 -0.6100  0.0844 -0.1451
63128SOL     OW98351   0.429   5.128   6.190  0.5786 -0.0332 -0.0928
63128SOL    HW198352   0.355   5.068   6.195  1.3231 -1.0113 -0.4461
63128SOL    HW298353   0.430   5.173   6.275 -1.3126  1.1314 -0.6376
63129SOL     OW98354  10.065   6.173   9.648  0.3341  0.1511  0.8954
63129SOL    HW198355  10.011   6.219   9.712  0.4462  0.7359  0.5709
63129SOL    HW298356  10.068   6.231   9.572 -1.1269 -1.2118 -0.2852
63130SOL     OW98357  12.240   9.658  11.616 -0.4206 -0.4784  0.7679
63130SOL    HW198358  12.169   9.625  11.561  0.7932 -2.4433  0.2943
63130SOL    HW298359  12.274   9.581  11.661  2.7144 -0.0157 -0.5612
63131SOL     OW98360   3.149  12.401   5.196 -0.1792  0.4995 -0.5238
63131SOL    HW198361   3.174  12.381   5.287 -1.5336 -2.3555 -0.6419
63131SOL    HW298362   3.232  12.402   5.148  0.4006 -0.0579  0.4206
63132SOL     OW98363   6.226   8.050   4.211 -0.1755 -0.2356  0.2035
63132SOL    HW198364   6.306   8.061   4.159 -0.5855  0.0423 -0.3847
63132SOL    HW298365   6.177   7.981   4.166 -0.0808 -0.6892  0.7948
63133SOL     OW98366   8.849   0.871   2.329  0.3341 -0.2397 -0.3095
63133SOL    HW198367   8.826   0.807   2.261  0.2058  0.6847 -1.1620
63133SOL    HW298368   8.782   0.859   2.396 -0.8619  0.3176 -1.3579
63134SOL     OW98369   3.883  12.225   0.723 -0.1764 -0.7292 -0.1892
63134SOL    HW198370   3.957  12.219   0.783 -0.2588  1.6282  0.2749
63134SOL    HW298371   3.831  12.298   0.757 -2.1371 -1.6050 -1.1450
63135SOL     OW98372   7.037   5.310   0.984 -0.3819  0.3812 -0.5003
63135SOL    HW198373   7.078   5.314   1.071  0.8823  0.9521 -1.0960
63135SOL    HW298374   6.967   5.375   0.987 -0.3637  0.3810  0.0854
63136SOL     OW98375   6.215   5.014   5.888 -0.1341  0.0816 -0.0196
63136SOL    HW198376   6.253   5.041   5.972 -0.6706 -1.7063  0.8421
63136SOL    HW298377   6.129   4.980   5.910 -0.4083 -0.1414 -1.3499
63137SOL     OW98378  12.341   9.814   1.297 -0.0353 -0.5089  0.1070
63137SOL    HW198379  12.414   9.767   1.339 -0.6854 -1.0563  0.6450
63137SOL    HW298380  12.350   9.793   1.204 -0.7220 -2.3369  0.4044
63138SOL     OW98381  11.294   9.411   0.215  0.3062  0.2548  0.5563
63138SOL    HW198382  11.301   9.488   0.159  0.8957 -1.1327 -1.3896
63138SOL    HW298383  11.360   9.425   0.283  1.3948  0.8396 -0.5814
63139SOL     OW98384   5.799   3.077   5.992  0.2022 -0.3426 -0.4410
63139SOL    HW198385   5.733   3.141   5.966  0.8195 -0.1112 -1.4593
63139SOL    HW298386   5.882   3.125   5.988  0.6730 -1.2089 -1.2360
63140SOL     OW98387   2.145  10.260   6.385  0.5683  0.6103  0.3399
63140SOL    HW198388   2.202  10.187   6.361  1.0493  1.3597 -0.9072
63140SOL    HW298389   2.066  10.246   6.334  0.1974  0.3511  0.9765
63141SOL     OW98390   1.238  11.558   9.472 -0.5418 -0.0865  0.2615
63141SOL    HW198391   1.211  11.553   9.380 -2.9905  3.3510  0.6028
63141SOL    HW298392   1.167  11.515   9.519 -0.3842  0.0866  0.6567
63142SOL     OW98393   7.869   3.698   6.935  0.2212 -0.1794 -0.1172
63142SOL    HW198394   7.861   3.613   6.891 -2.4351  0.7627 -1.6786
63142SOL    HW298395   7.895   3.759   6.866  1.2123  0.4779  0.8005
63143SOL     OW98396   6.999   6.438   1.782  0.2448 -0.1344 -0.3655
63143SOL    HW198397   6.930   6.443   1.716  0.8405  1.0675 -0.9415
63143SOL    HW298398   6.969   6.498   1.851  1.2244  1.3704 -1.1728
63144SOL     OW98399   7.575   1.508   4.690 -0.0954 -0.4777  0.2080
63144SOL    HW198400   7.524   1.489   4.612 -1.6315  0.1045  1.0371
63144SOL    HW298401   7.527   1.578   4.734  1.7733  0.5590  0.7004
63145SOL     OW98402   2.631   9.545   8.339 -0.3982 -0.0333 -0.1500
63145SOL    HW198403   2.619   9.482   8.268 -1.2676 -0.6914  0.5525
63145SOL    HW298404   2.555   9.603   8.333 -0.6255 -0.2667  0.4086
63146SOL     OW98405   0.623   6.897  12.431  0.0861  0.0986  0.1379
63146SOL    HW198406   0.712   6.861  12.434  0.1647 -0.1764 -2.7338
63146SOL    HW298407   0.634   6.990  12.453  0.7135 -0.3580  1.9393
63147SOL     OW98408  11.413   1.765   7.245 -0.1047 -0.0019 -0.4211
63147SOL    HW198409  11.324   1.741   7.267  0.8189 -1.4936  2.0700
63147SOL    HW298410  11.406   1.806   7.158 -3.2672  0.7018  0.0481
63148SOL     OW98411   3.339   3.411   4.701  0.3878  0.0361  0.5270
63148SOL    HW198412   3.372   3.398   4.612  2.0089  1.4682  0.8825
63148SOL    HW298413   3.335   3.506   4.712  2.1493 -0.0523  2.6207
63149SOL     OW98414   8.616   5.170   9.684 -0.2350  0.0632  0.2708
63149SOL    HW198415   8.623   5.122   9.602 -0.2860  0.5915 -0.0434
63149SOL    HW298416   8.703   5.208   9.697 -0.5967  1.0882 -0.2261
63150SOL     OW98417   5.588   6.521   7.072  0.0150 -0.7581 -0.6462
63150SOL    HW198418   5.495   6.525   7.051 -0.4374  1.5158  1.2888
63150SOL    HW298419   5.621   6.444   7.026 -2.4972 -0.7792 -2.5767
63151SOL     OW98420   1.941   5.555   2.214 -0.3895  0.8597  0.1481
63151SOL    HW198421   1.912   5.635   2.171 -1.4681 -0.5169 -1.8859
63151SOL    HW298422   1.875   5.537   2.280  0.9474  2.6665  2.0962
63152SOL     OW98423   0.863   6.224   0.308  0.0739  0.1432 -0.4561
63152SOL    HW198424   0.882   6.199   0.218 -2.0282  1.3984 -1.3247
63152SOL    HW298425   0.770   6.247   0.308  0.7757  3.6633  1.1697
63153SOL     OW98426   1.028   1.719   9.647  0.5148  0.4401  0.5926
63153SOL    HW198427   0.980   1.640   9.671  0.2150  0.4422  0.0202
63153SOL    HW298428   1.036   1.714   9.551 -1.9842  2.4455  0.1407
63154SOL     OW98429   3.981   8.151   7.125 -0.5409 -0.0516 -0.6924
63154SOL    HW198430   3.953   8.085   7.061 -1.8641  1.1264 -1.3837
63154SOL    HW298431   3.899   8.189   7.157  0.1829  1.9141 -1.0483
63155SOL     OW98432   8.701   8.127   8.548  0.2959  0.2037  0.5294
63155SOL    HW198433   8.776   8.069   8.540 -0.2455 -0.6429  1.4969
63155SOL    HW298434   8.691   8.142   8.642 -0.8867  0.1078  0.4361
63156SOL     OW98435  10.774   3.398   6.244  0.1737 -0.4532 -0.5303
63156SOL    HW198436  10.850   3.399   6.302  0.0587  1.1843 -0.3600
63156SOL    HW298437  10.699   3.412   6.302 -0.2662 -1.9801 -0.7049
63157SOL     OW98438   0.130   2.716  11.684  0.4770 -0.0586 -0.2502
63157SOL    HW198439   0.223   2.713  11.708  0.5497  1.7563 -0.2158
63157SOL    HW298440   0.084   2.708  11.767  0.5962 -0.6662 -0.2365
63158SOL     OW98441  12.393   4.882   2.901  0.0614 -0.9654  0.0148
63158SOL    HW198442  12.352   4.828   2.968  1.1974 -3.0853 -0.8758
63158SOL    HW298443  12.483   4.894   2.932  0.1671 -0.6820 -0.3915
63159SOL     OW98444   6.551  11.012   2.200  0.1063  0.6525 -0.0902
63159SOL    HW198445   6.456  11.023   2.205 -0.6091 -3.3853 -1.0389
63159SOL    HW298446   6.573  10.960   2.278  1.0757 -0.5340 -1.1109
63160SOL     OW98447   0.433   5.241   9.163  0.1987  0.5247 -0.3061
63160SOL    HW198448   0.507   5.253   9.102  0.9927 -0.4355  0.4399
63160SOL    HW298449   0.361   5.289   9.122  0.8778  0.4218 -1.6953
63161SOL     OW98450  10.938   1.380   4.397  0.3229 -0.2745  0.0198
63161SOL    HW198451  11.026   1.357   4.369  0.2141  0.9558 -1.4828
63161SOL    HW298452  10.950   1.448   4.463  0.5173  0.6008 -0.8895
63162SOL     OW98453   4.334  11.211   2.418 -0.2180 -0.3970 -0.6560
63162SOL    HW198454   4.288  11.288   2.451  1.0618 -0.6444  1.8661
63162SOL    HW298455   4.272  11.139   2.431 -0.0932 -0.3337  0.3356
63163SOL     OW98456   6.661   8.934  10.919 -0.0749 -0.4364  0.0915
63163SOL    HW198457   6.754   8.943  10.899  0.0536  1.0156  1.1292
63163SOL    HW298458   6.618   9.003  10.868  0.0175  1.8884  2.8834
63164SOL     OW98459   3.601  10.745   8.615  0.1799  0.2768  0.5226
63164SOL    HW198460   3.571  10.829   8.580 -0.7904 -0.2303  0.0740
63164SOL    HW298461   3.650  10.767   8.694  0.9834  1.3395 -0.2610
63165SOL     OW98462  12.377  12.523  12.392 -0.4300  0.0904  1.0232
63165SOL    HW198463  12.469  12.519  12.417 -0.0685 -0.4755 -0.3262
63165SOL    HW298464  12.373  12.586  12.320 -1.0531 -0.0865  0.8895
63166SOL     OW98465   1.686   4.938   8.600 -0.6989 -0.1848  0.2248
63166SOL    HW198466   1.607   4.909   8.556 -0.3586 -0.9676  0.1077
63166SOL    HW298467   1.656   4.973   8.683 -1.3700  1.4560 -0.6542
63167SOL     OW98468   9.706  11.080   1.386  0.2926 -0.5165 -0.2923
63167SOL    HW198469   9.715  11.050   1.477  0.4732  1.6977  0.4834
63167SOL    HW298470   9.779  11.142   1.375 -1.7441  1.9717 -0.7273
63168SOL     OW98471   9.578   8.120   0.386 -0.4825  0.2549  0.2483
63168SOL    HW198472   9.504   8.086   0.335  0.9243 -0.5585 -1.3376
63168SOL    HW298473   9.609   8.044   0.435  0.7069 -0.0294 -0.8865
63169SOL     OW98474   7.978   2.243   5.313 -0.7458  0.0777 -0.0637
63169SOL    HW198475   7.975   2.168   5.254  1.2386 -0.5905  0.6049
63169SOL    HW298476   7.955   2.208   5.399 -1.1768  0.5233  0.0064
63170SOL     OW98477   8.050   0.238  12.166  0.5050 -0.1203 -0.3481
63170SOL    HW198478   8.130   0.277  12.129  0.2145  0.3436 -0.4889
63170SOL    HW298479   8.050   0.266  12.257 -1.1062  2.5570 -1.0613
63171SOL     OW98480   3.526   9.992   4.634  0.0661  0.2830  0.0423
63171SOL    HW198481   3.460  10.052   4.600 -1.3077 -1.4215 -0.4444
63171SOL    HW298482   3.559   9.946   4.557 -0.1235 -0.7719  0.5799
63172SOL     OW98483   1.135   3.671   0.675  0.3637  0.2504 -0.6513
63172SOL    HW198484   1.103   3.669   0.765  0.9179 -0.8312 -0.4684
63172SOL    HW298485   1.065   3.628   0.625  1.1246 -1.3892 -0.3649
63173SOL     OW98486   3.094   2.908   8.127  0.3812  0.2170  0.2381
63173SOL    HW198487   3.082   2.931   8.220  1.1754  0.3425  0.3133
63173SOL    HW298488   3.160   2.839   8.128  0.2990  0.1320 -0.2288
63174SOL     OW98489   7.552   2.000   3.768 -0.1343  0.4904 -0.1335
63174SOL    HW198490   7.494   2.072   3.790  1.1573  1.2064  1.0845
63174SOL    HW298491   7.590   2.025   3.684 -1.6752 -0.0809 -1.0430
63175SOL     OW98492   5.426  11.272  10.146 -0.1580 -0.1928 -0.6732
63175SOL    HW198493   5.516  11.254  10.119 -0.0866 -2.5072  0.8185
63175SOL    HW298494   5.434  11.340  10.213  0.2351  1.0895 -1.9722
63176SOL     OW98495  11.692   6.372   9.956  0.3514  0.2258 -0.4453
63176SOL    HW198496  11.663   6.300  10.013  1.0548  0.6394  0.4654
63176SOL    HW298497  11.772   6.339   9.915 -1.3491 -0.9680 -3.0612
63177SOL     OW98498  11.866   7.424   1.170 -0.6225  0.1090  0.3984
63177SOL    HW198499  11.888   7.422   1.263  0.1525  1.1703  0.2568
63177SOL    HW298500  11.805   7.497   1.162 -0.2052  0.4119 -0.0224
63178SOL     OW98501   3.656   0.350   3.901 -0.3325 -0.3605 -0.6768
63178SOL    HW198502   3.629   0.334   3.810 -1.3867  3.1118 -1.1128
63178SOL    HW298503   3.574   0.349   3.950  0.0047 -0.2355 -0.1056
63179SOL     OW98504   2.564   0.729   8.264 -0.7191 -0.0653 -0.1458
63179SOL    HW198505   2.578   0.764   8.176  1.9980  1.9083  0.9536
63179SOL    HW298506   2.638   0.670   8.279  0.1358  1.3170  1.5259
63180SOL     OW98507  10.582   8.618   0.422 -0.0954 -0.1521  0.5036
63180SOL    HW198508  10.506   8.560   0.419  0.7948 -1.3505 -0.3452
63180SOL    HW298509  10.554   8.697   0.375 -0.2453 -1.3658 -1.5923
63181SOL     OW98510   6.166  11.047  12.504 -0.1884  0.7424  0.6027
63181SOL    HW198511   6.210  11.128  12.481  2.0519 -1.1235 -2.4379
63181SOL    HW298512   6.076  11.073  12.524  0.0513  3.8101 -1.6354
63182SOL     OW98513   3.904  11.816   6.224 -0.6820  0.1661  0.0818
63182SOL    HW198514   3.845  11.788   6.153  1.9063  0.9183 -2.5738
63182SOL    HW298515   3.971  11.748   6.228 -0.4327  0.4658  1.4153
63183SOL     OW98516   5.979   5.345   2.167 -0.0864 -0.1794  0.0712
63183SOL    HW198517   5.960   5.342   2.073 -0.3073  0.3435  0.0923
63183SOL    HW298518   6.070   5.316   2.174 -0.4770 -1.5242 -0.1652
63184SOL     OW98519   5.746   2.343   2.953  0.2462 -0.4035 -0.3220
63184SOL    HW198520   5.668   2.291   2.935  0.4772 -1.7592  2.1104
63184SOL    HW298521   5.796   2.342   2.871 -1.9589  0.0205 -1.7581
63185SOL     OW98522   8.114   2.093   4.647 -0.0767 -0.3423  0.0742
63185SOL    HW198523   8.170   2.155   4.599  0.0137 -0.9836 -0.6567
63185SOL    HW298524   8.175   2.042   4.700  0.0741 -1.1883 -0.8865
63186SOL     OW98525   2.505   7.392   5.849  0.0843  0.3201  0.1204
63186SOL    HW198526   2.416   7.423   5.869 -0.0309 -0.2726  0.5529
63186SOL    HW298527   2.560   7.436   5.914 -0.1516 -0.7749  1.0987
63187SOL     OW98528   0.529   0.762   8.145 -0.4578  0.3856  0.4097
63187SOL    HW198529   0.454   0.704   8.141 -0.3692  0.0703  2.3715
63187SOL    HW298530   0.602   0.710   8.111 -0.8084  0.1276  0.0551
63188SOL     OW98531  10.045   1.084   1.821 -0.2359 -0.2915  0.0753
63188SOL    HW198532   9.961   1.057   1.784  0.0877  0.1129 -0.9998
63188SOL    HW298533  10.066   1.165   1.775  1.7402 -1.4637 -1.2239
63189SOL     OW98534   7.271   1.809  11.157 -0.2237 -0.1522  0.0580
63189SOL    HW198535   7.210   1.881  11.174  0.4194 -0.1080  2.4778
63189SOL    HW298536   7.250   1.744  11.224  2.7933  0.1625  1.4537
63190SOL     OW98537   9.578   7.087   0.955  0.5077 -0.7319 -0.0876
63190SOL    HW198538   9.501   7.044   0.992  1.2068 -1.3632  0.6550
63190SOL    HW298539   9.564   7.180   0.973 -0.8481 -0.6235 -1.4094
63191SOL     OW98540   8.800   5.702   0.468 -0.3721  0.5228  0.1129
63191SOL    HW198541   8.882   5.652   0.471 -0.5045  0.2045 -1.0737
63191SOL    HW298542   8.739   5.651   0.520 -0.4468 -0.4932 -0.9234
63192SOL     OW98543   5.212  12.360   6.500 -0.0726 -0.1355  0.0807
63192SOL    HW198544   5.252  12.274   6.513 -1.0475 -0.2854  2.5675
63192SOL    HW298545   5.230  12.407   6.582 -2.1079  0.9474 -0.0419
63193SOL     OW98546  11.902  10.860  10.678 -0.1748 -1.1995  0.2678
63193SOL    HW198547  11.987  10.905  10.682 -1.5401  1.9106 -1.4406
63193SOL    HW298548  11.840  10.925  10.710 -2.1121 -2.7592 -0.1596
63194SOL     OW98549  12.269   6.610   5.224 -0.3474 -0.4447  0.8216
63194SOL    HW198550  12.318   6.579   5.300  0.4903 -0.2364  0.3784
63194SOL    HW298551  12.315   6.689   5.195 -0.2516 -0.8826 -0.2883
63195SOL     OW98552   9.607   3.162   7.670 -0.6093  0.0901 -0.2834
63195SOL    HW198553   9.523   3.136   7.631 -0.7061 -0.9159  0.5332
63195SOL    HW298554   9.586   3.239   7.722 -0.9103  0.1712 -0.5183
63196SOL     OW98555   3.598  11.630   0.368  0.3407  0.0692 -0.2653
63196SOL    HW198556   3.656  11.559   0.341  0.3586  0.5659 -1.5997
63196SOL    HW298557   3.604  11.695   0.298 -0.7051  0.7898  0.2736
63197SOL     OW98558   3.251   1.328   9.416  0.2852 -0.2941  0.0702
63197SOL    HW198559   3.331   1.277   9.411 -0.4112 -1.3626 -0.3897
63197SOL    HW298560   3.226   1.325   9.509  0.1629 -0.9430  0.0215
63198SOL     OW98561   4.645  10.485   8.421 -0.0924  0.2528 -0.5640
63198SOL    HW198562   4.671  10.488   8.328 -1.5876 -0.8484 -1.0577
63198SOL    HW298563   4.552  10.506   8.420 -0.6004 -1.6913  0.4477
63199SOL     OW98564   6.154  11.232  11.552 -0.3082 -0.0761 -0.4428
63199SOL    HW198565   6.192  11.308  11.597 -0.4272 -0.5295  0.4245
63199SOL    HW298566   6.212  11.160  11.574 -1.4758 -0.7198  0.6543
63200SOL     OW98567   0.003   9.629   4.965 -0.0894  0.0671  0.2444
63200SOL    HW198568   0.003   9.724   4.958  0.9547  0.1553  1.2426
63200SOL    HW298569   0.083   9.601   4.921  0.2595 -0.2480  1.0635
63201SOL     OW98570   5.171   3.300  11.371 -0.0856  0.7229 -0.0438
63201SOL    HW198571   5.093   3.266  11.328  0.0320  0.9041 -0.4132
63201SOL    HW298572   5.242   3.245  11.338  0.1101  1.3249 -0.6705
63202SOL     OW98573   8.508   5.495   2.349 -0.9525  0.5384 -0.3151
63202SOL    HW198574   8.475   5.534   2.267 -0.5661  2.0300  0.1981
63202SOL    HW298575   8.603   5.513   2.347 -0.9027  0.3649  0.3312
63203SOL     OW98576  11.253   4.073   2.873  0.4410 -0.1918  0.0291
63203SOL    HW198577  11.282   4.120   2.795  0.8829  0.8916  0.8224
63203SOL    HW298578  11.197   4.135   2.919  0.7342 -0.5647  0.9082
63204SOL     OW98579   1.632  11.293  11.227 -0.5101 -0.0821  0.2244
63204SOL    HW198580   1.652  11.206  11.194  0.0022 -0.0411  0.4173
63204SOL    HW298581   1.630  11.284  11.322  2.1081  0.6017  0.4160
63205SOL     OW98582   2.491   8.602  12.311  0.5352 -0.0160 -0.4085
63205SOL    HW198583   2.500   8.537  12.380  1.5669  0.4491 -0.0979
63205SOL    HW298584   2.490   8.686  12.356  1.4985  0.3073 -0.9595
63206SOL     OW98585   6.330  10.326   7.239  0.0327  0.3202 -0.0155
63206SOL    HW198586   6.247  10.359   7.206  0.1896 -0.4286 -1.2057
63206SOL    HW298587   6.382  10.405   7.256 -0.6384  0.7671  0.0008
63207SOL     OW98588   5.037  11.173   7.537 -0.2619 -0.6570 -0.2083
63207SOL    HW198589   4.963  11.216   7.495 -0.7514 -1.3690 -0.0976
63207SOL    HW298590   5.114  11.202   7.487 -0.8632 -1.7949 -1.8894
63208SOL     OW98591   9.761   5.541   0.322 -0.0867 -0.0303 -0.4674
63208SOL    HW198592   9.802   5.545   0.235  1.8855  0.7303  0.4654
63208SOL    HW298593   9.793   5.459   0.360 -0.2929  0.0453 -0.1248
63209SOL     OW98594   3.485   0.677  12.007 -0.4684  0.4869  0.5268
63209SOL    HW198595   3.532   0.731  11.943 -1.6057  0.5126 -0.3159
63209SOL    HW298596   3.551   0.655  12.073  0.9967 -0.3312 -1.1211
63210SOL     OW98597   2.734   7.556   0.708 -0.0339  0.4753 -0.5244
63210SOL    HW198598   2.687   7.639   0.717 -1.4072 -0.2739 -0.4912
63210SOL    HW298599   2.763   7.535   0.796  0.7899  1.1797 -0.6220
63211SOL     OW98600  11.748   7.909   4.002 -0.0626  0.0433  0.4041
63211SOL    HW198601  11.668   7.887   4.050  0.4603 -0.1235  1.2141
63211SOL    HW298602  11.729   7.884   3.912 -0.4585 -1.2213  0.8213
63212SOL     OW98603   2.465   1.626  12.423 -0.4376 -0.7661  0.4759
63212SOL    HW198604   2.521   1.698  12.395  1.9235 -1.3861  3.1743
63212SOL    HW298605   2.401   1.666  12.482 -0.4252 -0.6173  0.3889
63213SOL     OW98606  10.333   7.630  12.253  0.0541 -0.7856  0.4796
63213SOL    HW198607  10.300   7.658  12.167 -2.9798  0.6339  1.9644
63213SOL    HW298608  10.357   7.538  12.241  1.0345 -0.2642 -2.1909
63214SOL     OW98609  12.091   5.915   3.272  0.4120 -0.4695 -0.3062
63214SOL    HW198610  12.118   5.980   3.337  0.3509  0.5098 -1.2349
63214SOL    HW298611  12.049   5.966   3.203 -0.3901 -1.5888 -0.6785
63215SOL     OW98612   9.734   5.774   8.884 -0.1642 -0.3944 -0.0262
63215SOL    HW198613   9.826   5.794   8.867  0.1985 -0.8730  1.3087
63215SOL    HW298614   9.689   5.858   8.869  0.6213  0.1001  0.3164
63216SOL     OW98615   3.083  11.941  11.605 -0.2136  0.2059  0.0868
63216SOL    HW198616   3.019  12.012  11.613  1.7443  2.0553  0.2496
63216SOL    HW298617   3.087  11.903  11.693 -0.1345  0.9754  0.4266
63217SOL     OW98618   3.659   1.946   0.404  0.3534 -0.1006  0.1209
63217SOL    HW198619   3.584   1.953   0.463  0.2308  0.5148 -0.0908
63217SOL    HW298620   3.628   1.891   0.332 -0.4530  1.3982 -0.7525
63218SOL     OW98621   9.497   2.550   8.297 -0.5143 -0.0421 -0.9012
63218SOL    HW198622   9.448   2.469   8.309  0.2761 -0.3431  0.6384
63218SOL    HW298623   9.431   2.619   8.295 -1.0610 -0.4467  0.9849
63219SOL     OW98624   1.720  10.578  10.258 -0.1695  0.1538 -0.4707
63219SOL    HW198625   1.626  10.579  10.243 -0.6502  0.2024  2.0318
63219SOL    HW298626   1.755  10.649  10.203 -1.8191  1.1488 -0.2861
63220SOL     OW98627   0.334   1.235  12.348  0.4518  0.1012 -0.4820
63220SOL    HW198628   0.248   1.193  12.359 -0.4196  1.4263 -1.9011
63220SOL    HW298629   0.385   1.172  12.298 -0.0457 -0.2512 -0.5577
63221SOL     OW98630   1.725   2.581   6.984 -0.3463 -0.0886 -0.3212
63221SOL    HW198631   1.769   2.583   6.899 -0.3718  0.4240 -0.3247
63221SOL    HW298632   1.726   2.489   7.009 -0.4748 -0.2629 -0.9460
63222SOL     OW98633  12.362   3.852   0.149 -0.1913  0.0721 -0.0167
63222SOL    HW198634  12.442   3.905   0.146 -0.5497  0.7304  1.4688
63222SOL    HW298635  12.338   3.840   0.057  2.0160 -0.7817 -0.5541
63223SOL     OW98636   6.922   6.172   9.805 -0.6450 -0.4612  0.2248
63223SOL    HW198637   6.945   6.198   9.894 -0.3001  0.7204 -0.1916
63223SOL    HW298638   6.875   6.089   9.816 -0.0990 -0.6364  1.4475
63224SOL     OW98639  10.955   9.069   6.299  0.4538 -0.0973 -0.3305
63224SOL    HW198640  10.903   9.073   6.380 -2.1321  1.6867 -1.9422
63224SOL    HW298641  10.943   8.979   6.267 -2.6411  0.5018 -1.1547
63225SOL     OW98642   7.361   5.661   4.562 -0.2218 -0.1963  1.0267
63225SOL    HW198643   7.385   5.569   4.577 -0.3592 -0.2814  0.7231
63225SOL    HW298644   7.361   5.671   4.467 -1.9467 -0.3686  0.9760
63226SOL     OW98645  10.492   0.441   7.465  0.1531 -0.0044 -0.3683
63226SOL    HW198646  10.504   0.468   7.556  2.8373  0.8327 -0.8722
63226SOL    HW298647  10.507   0.346   7.467  0.3754  0.0363  0.0320
63227SOL     OW98648   5.879   0.418  10.020  0.2716  0.3452  1.1376
63227SOL    HW198649   5.965   0.460  10.021  0.1057  0.7718 -0.4949
63227SOL    HW298650   5.852   0.416  10.112  0.8253  2.7103  1.4077
63228SOL     OW98651   2.621   8.624  10.886 -0.6685  0.0129  0.1088
63228SOL    HW198652   2.691   8.638  10.950  1.7015 -2.9839 -1.5859
63228SOL    HW298653   2.563   8.559  10.927  0.1648 -0.9897 -0.2831
63229SOL     OW98654   2.419  11.356   5.437 -0.8623 -0.2303 -0.4539
63229SOL    HW198655   2.442  11.379   5.347  0.5820  0.9337  0.1604
63229SOL    HW298656   2.499  11.317   5.473 -1.4659 -0.8323  0.2821
63230SOL     OW98657  11.816   9.909  11.165 -0.6065 -0.1158  0.0063
63230SOL    HW198658  11.789  10.000  11.179  3.6805  1.2537  0.8674
63230SOL    HW298659  11.867   9.912  11.084  0.0929 -1.6264  0.3665
63231SOL     OW98660   0.791   1.196   3.573  0.0840  0.0227  0.1133
63231SOL    HW198661   0.847   1.125   3.540  0.6061  0.0535  0.8957
63231SOL    HW298662   0.848   1.273   3.574 -0.7410  0.7050 -1.6158
63232SOL     OW98663   6.860  12.126   1.850 -0.0848  0.2136 -0.3792
63232SOL    HW198664   6.903  12.207   1.825 -1.9133  1.2663 -0.3179
63232SOL    HW298665   6.914  12.090   1.920 -0.4224  2.6246  1.2446
63233SOL     OW98666  10.060   4.868  11.997 -0.0969 -0.8109  0.2646
63233SOL    HW198667  10.069   4.874  11.902 -1.1037 -1.4904  0.1092
63233SOL    HW298668   9.966   4.877  12.013 -0.1641 -2.4597  1.0343
63234SOL     OW98669   2.825   3.224   6.103 -0.2585 -0.2517  0.3786
63234SOL    HW198670   2.820   3.182   6.188  2.6514  0.3931  0.9835
63234SOL    HW298671   2.767   3.172   6.047 -0.0893 -2.4385  2.0815
63235SOL     OW98672   3.071  12.203   6.160 -0.1709 -0.2956 -0.1003
63235SOL    HW198673   3.073  12.219   6.254  1.3031 -0.3117 -0.1144
63235SOL    HW298674   3.156  12.165   6.140 -0.9579 -1.5374 -1.2369
63236SOL     OW98675   8.586   7.999   6.398  0.0010 -0.1932  0.1440
63236SOL    HW198676   8.526   8.046   6.341 -0.2673 -0.6222  0.0705
63236SOL    HW298677   8.673   8.028   6.370 -0.1313 -0.3527 -0.4334
63237SOL     OW98678  10.213   3.176   1.866 -0.3522  0.2736  0.0496
63237SOL    HW198679  10.279   3.140   1.926 -1.0639  0.1118  0.7585
63237SOL    HW298680  10.155   3.226   1.923 -0.4067  1.0580 -0.6790
63238SOL     OW98681  11.705   7.251   9.851 -0.3351  0.7268  0.2219
63238SOL    HW198682  11.629   7.272   9.906  0.5447  0.0248  1.7724
63238SOL    HW298683  11.777   7.301   9.890  0.5232 -0.5510  0.3380
63239SOL     OW98684   0.964  10.979  10.941  0.2949  0.2903 -0.0346
63239SOL    HW198685   1.013  10.917  10.996 -1.9027 -1.3317  0.2018
63239SOL    HW298686   0.990  10.957  10.851 -1.0072 -1.5583 -0.0065
63240SOL     OW98687   7.634   7.373  11.946  0.1656  0.5886 -0.1304
63240SOL    HW198688   7.628   7.469  11.945 -1.6508  0.5328  1.1695
63240SOL    HW298689   7.654   7.351  12.037  1.2737 -0.2739 -0.5595
63241SOL     OW98690   8.738  11.369  12.371  0.1794  0.2745 -0.1214
63241SOL    HW198691   8.816  11.316  12.356  0.8098  1.4024 -0.9729
63241SOL    HW298692   8.695  11.374  12.286  1.1241  2.5954 -0.5451
63242SOL     OW98693   1.994   1.449   5.959  0.1051  0.4283 -0.2496
63242SOL    HW198694   2.035   1.421   6.040  0.0765 -2.3093 -1.0894
63242SOL    HW298695   2.063   1.495   5.911  0.7375  0.1494  0.3949
63243SOL     OW98696   3.558   8.128   3.337  0.0997 -0.4207  0.3348
63243SOL    HW198697   3.511   8.045   3.335  0.5213 -0.6522 -0.0640
63243SOL    HW298698   3.489   8.194   3.345 -0.3261 -0.7230 -0.6408
63244SOL     OW98699  12.447  12.364   1.705 -0.0405 -0.1021 -0.5699
63244SOL    HW198700  12.414  12.448   1.674 -0.4621  0.2319  0.7293
63244SOL    HW298701  12.538  12.361   1.675 -0.4354  0.1667 -1.8579
63245SOL     OW98702   1.581   2.021   5.770 -0.0387 -0.1544  0.0953
63245SOL    HW198703   1.592   1.984   5.857  0.4027 -0.0143  0.1016
63245SOL    HW298704   1.669   2.047   5.743  0.0946 -1.6678 -1.0600
63246SOL     OW98705  12.222   9.490   0.032  0.4014 -0.2126 -0.3720
63246SOL    HW198706  12.260   9.432  -0.034  0.9866  2.5448 -2.6929
63246SOL    HW298707  12.297   9.530   0.075  0.0881  0.5454 -0.5059
63247SOL     OW98708  10.922   6.118   4.846 -0.5163 -0.1963 -0.3726
63247SOL    HW198709  10.883   6.204   4.856 -0.2633 -0.0501 -0.6284
63247SOL    HW298710  11.016   6.132   4.863 -0.7718 -0.8352  1.9107
63248SOL     OW98711   8.791   3.462  10.138  0.2462 -0.1399  0.2694
63248SOL    HW198712   8.713   3.518  10.136  1.0963  1.1809  1.7405
63248SOL    HW298713   8.757   3.374  10.152 -0.9588  0.5839  2.4046
63249SOL     OW98714   9.359   4.685   8.457 -0.2395 -0.0825 -0.2536
63249SOL    HW198715   9.308   4.754   8.499 -1.2409 -0.5556 -0.6613
63249SOL    HW298716   9.319   4.674   8.371  0.0715 -0.9914 -0.2937
63250SOL     OW98717   1.152   9.919  10.791 -0.3372  0.7577 -0.1399
63250SOL    HW198718   1.111   9.846  10.745 -1.0000  2.0614 -1.6900
63250SOL    HW298719   1.091   9.940  10.862 -0.1307 -0.1869  0.3290
63251SOL     OW98720   1.705  11.044   5.834 -0.3006  0.0432  0.1746
63251SOL    HW198721   1.712  11.073   5.743 -0.6892 -0.9418 -0.1810
63251SOL    HW298722   1.795  11.048   5.867 -0.2491  1.0131 -0.0486
63252SOL     OW98723   0.617   7.945   8.695 -0.3525  0.3365 -0.2115
63252SOL    HW198724   0.528   7.920   8.718  0.5674 -1.1612  1.9524
63252SOL    HW298725   0.626   8.035   8.727 -1.6829  1.3030 -2.3492
63253SOL     OW98726   8.325   5.478   1.433 -0.1343 -0.0713  0.4194
63253SOL    HW198727   8.402   5.474   1.490 -0.5593 -0.5375  0.9697
63253SOL    HW298728   8.272   5.549   1.469  0.5520  1.0193 -0.6370
63254SOL     OW98729   8.286   3.251   9.508 -0.8168  0.2376 -0.1553
63254SOL    HW198730   8.199   3.211   9.514 -1.1826  0.9966 -0.2055
63254SOL    HW298731   8.324   3.238   9.595 -1.5211  1.0768  0.2942
63255SOL     OW98732   8.115   1.498  12.354 -0.4115 -0.2474  0.3769
63255SOL    HW198733   8.073   1.470  12.435  0.4534 -0.9533  0.5999
63255SOL    HW298734   8.060   1.462  12.285 -0.2150 -1.1305  0.6676
63256SOL     OW98735   1.766   8.020  11.500 -0.5100 -0.3530 -0.3163
63256SOL    HW198736   1.687   8.044  11.548 -0.7698 -0.6220 -0.6051
63256SOL    HW298737   1.777   8.089  11.435 -0.6518 -0.4480 -0.4422
63257SOL     OW98738   7.479   4.787   7.818 -0.1787  0.3303  0.8630
63257SOL    HW198739   7.542   4.790   7.746  0.5111  1.1742  1.4771
63257SOL    HW298740   7.409   4.847   7.792 -0.6439 -0.4520  0.2717
63258SOL     OW98741  11.939  11.629   9.606  0.7041  0.1873  0.6203
63258SOL    HW198742  11.953  11.707   9.553  1.5429 -1.5995 -1.9850
63258SOL    HW298743  11.851  11.641   9.644  0.0489  1.5710 -1.1886
63259SOL     OW98744   2.897   6.109   8.250 -0.0448 -0.2111  0.4633
63259SOL    HW198745   2.987   6.099   8.281  1.2861  2.2336 -2.2022
63259SOL    HW298746   2.903   6.102   8.155 -2.8014 -0.4875  0.2209
63260SOL     OW98747   9.956   6.667  11.605  0.3964 -0.6407 -0.4549
63260SOL    HW198748   9.909   6.589  11.578  0.6491 -1.3173  0.9674
63260SOL    HW298749   9.925   6.736  11.546 -2.2928 -1.0736  0.3327
63261SOL     OW98750  11.991  10.244   3.534  0.1436  0.1576  0.4975
63261SOL    HW198751  12.071  10.275   3.576 -0.7459  1.7559  1.1094
63261SOL    HW298752  11.944  10.197   3.602  0.3134 -0.3239  0.2854
63262SOL     OW98753  12.572   2.527   0.541 -0.4077 -0.1736 -0.5431
63262SOL    HW198754  12.648   2.540   0.484 -1.4641 -2.5104 -2.6282
63262SOL    HW298755  12.515   2.601   0.521  0.3680  0.4593 -0.5075
63263SOL     OW98756  10.884   2.660   7.710 -0.1769  0.6021  0.4108
63263SOL    HW198757  10.801   2.621   7.681  0.3166 -0.7183  0.7397
63263SOL    HW298758  10.900   2.731   7.647 -1.3287  0.6000  0.0911
63264SOL     OW98759   7.677   8.304  10.923  0.2282  0.3296  0.0428
63264SOL    HW198760   7.667   8.395  10.895  0.3296  0.4950  0.5425
63264SOL    HW298761   7.593   8.282  10.964 -0.1710 -0.1332 -0.9923
63265SOL     OW98762   0.114  10.806  11.960  0.6274  0.4369 -0.5819
63265SOL    HW198763   0.026  10.823  11.928  0.2551  1.4450  0.8799
63265SOL    HW298764   0.127  10.712  11.946 -0.4508  0.3835 -1.3400
63266SOL     OW98765   6.411  11.953   9.170 -0.1568 -0.0725 -0.1241
63266SOL    HW198766   6.334  12.009   9.167 -0.3040 -0.3141 -2.5072
63266SOL    HW298767   6.484  12.012   9.152  0.0907 -0.0874  0.7691
63267SOL     OW98768   4.317   3.020   4.254  0.5168 -0.2190 -0.3603
63267SOL    HW198769   4.359   3.002   4.338  1.9694 -0.0210 -1.0194
63267SOL    HW298770   4.342   2.947   4.198 -1.4658 -1.0094 -0.3188
63268SOL     OW98771  10.835   3.338   2.438 -0.0054 -0.4114 -0.5347
63268SOL    HW198772  10.826   3.325   2.344 -2.4500 -1.4549 -0.2169
63268SOL    HW298773  10.837   3.250   2.475 -0.3811 -0.0113  0.4745
63269SOL     OW98774   8.057   4.215   2.525 -0.1981 -0.4302 -0.4458
63269SOL    HW198775   8.008   4.264   2.459  2.6812  0.6931 -1.9149
63269SOL    HW298776   8.066   4.276   2.599 -0.9382 -0.6595 -0.1462
63270SOL     OW98777   2.646  12.301   8.640  0.0199  0.1369  0.4550
63270SOL    HW198778   2.597  12.361   8.585 -1.6384 -1.9151 -0.4684
63270SOL    HW298779   2.706  12.257   8.581 -1.5402 -1.8413  0.2110
63271SOL     OW98780   8.025   0.279   3.663 -0.5396 -0.0156  0.3402
63271SOL    HW198781   8.060   0.358   3.622 -0.7165 -0.1125 -0.0032
63271SOL    HW298782   8.007   0.305   3.754 -1.6045  0.6560 -0.0470
63272SOL     OW98783   5.143   6.924   6.732 -0.3220  0.3522 -0.0597
63272SOL    HW198784   5.114   6.935   6.642 -1.8379 -0.9066  0.2367
63272SOL    HW298785   5.209   6.855   6.728  0.8143  1.4184 -0.3860
63273SOL     OW98786   7.994  10.764  10.215 -0.1780  0.4751 -0.1757
63273SOL    HW198787   8.084  10.788  10.237 -0.9789  4.1758 -0.3280
63273SOL    HW298788   7.991  10.767  10.120 -0.8928  2.4304 -0.1191
63274SOL     OW98789   4.508  10.925   2.246 -0.6214  0.2965  0.1474
63274SOL    HW198790   4.431  10.869   2.238 -0.8804  0.8658 -1.8301
63274SOL    HW298791   4.488  11.001   2.192  1.4448  0.3254 -0.6545
63275SOL     OW98792   2.234   4.234   3.396 -0.0740 -0.2816 -0.1682
63275SOL    HW198793   2.205   4.217   3.307 -2.4434 -0.8376  0.6414
63275SOL    HW298794   2.162   4.283   3.436  0.6411 -0.6277  1.6147
63276SOL     OW98795   3.075   3.024  10.865  0.5857  0.0376  0.4372
63276SOL    HW198796   3.126   3.028  10.946  1.9396 -1.2082 -0.3094
63276SOL    HW298797   3.139   3.043  10.796 -0.3944  0.3549 -0.4114
63277SOL     OW98798   9.873   4.686   4.584  0.7542 -0.5333  0.0470
63277SOL    HW198799   9.810   4.758   4.595  0.1025 -0.7459 -2.0031
63277SOL    HW298800   9.819   4.606   4.592  1.1853 -0.7758  0.6022
63278SOL     OW98801   2.264  12.165   5.390  0.4698  0.0983  0.0351
63278SOL    HW198802   2.241  12.243   5.441  0.0808 -0.4813  0.7586
63278SOL    HW298803   2.259  12.194   5.299  0.5242  0.9702  0.2938
63279SOL     OW98804  10.358   7.513  11.644  0.1342  0.6563 -0.5687
63279SOL    HW198805  10.326   7.512  11.554 -0.8605 -0.2300 -0.2232
63279SOL    HW298806  10.335   7.599  11.677  0.1310  0.8350 -1.0334
63280SOL     OW98807   5.234   2.008  11.382  0.1824 -0.0714 -0.5821
63280SOL    HW198808   5.229   1.915  11.402 -3.1991  0.0690 -0.2413
63280SOL    HW298809   5.184   2.051  11.451 -0.8727  1.6811 -2.3331
63281SOL     OW98810   5.116   6.724   7.540 -0.0111 -0.1099 -0.3519
63281SOL    HW198811   5.123   6.709   7.445  0.5333 -1.3820 -0.1400
63281SOL    HW298812   5.130   6.637   7.578  1.3183  0.6353  0.9512
63282SOL     OW98813   9.353  10.142   5.638 -0.6134  0.1338 -0.2021
63282SOL    HW198814   9.408  10.065   5.620 -0.3279  0.1227  0.6843
63282SOL    HW298815   9.269  10.120   5.599 -1.2952 -1.6869  2.0764
63283SOL     OW98816   8.085   4.391   1.183  0.0205 -0.3917 -0.0664
63283SOL    HW198817   8.110   4.362   1.271  2.8790  1.1967 -0.2322
63283SOL    HW298818   8.041   4.474   1.197  0.6335 -0.0510 -0.0998
63284SOL     OW98819   0.099   7.905  10.488 -0.0194 -0.3658 -0.5180
63284SOL    HW198820   0.008   7.935  10.493  0.2067  0.1892  0.5307
63284SOL    HW298821   0.140   7.964  10.424 -0.8133 -1.8150 -2.4610
63285SOL     OW98822   2.114   8.300   0.787  0.3386 -0.2564  0.1036
63285SOL    HW198823   2.089   8.209   0.804 -1.8612  0.3586  0.5295
63285SOL    HW298824   2.207   8.304   0.809  0.1759 -2.0961  1.3671
63286SOL     OW98825   0.455   2.964   5.592 -0.1496 -0.6344 -0.1560
63286SOL    HW198826   0.396   2.889   5.600  1.4435 -1.8392  0.8711
63286SOL    HW298827   0.440   3.015   5.672  0.5515 -1.2368  0.3750
63287SOL     OW98828   0.888   1.927   1.857  0.0391 -0.1146  0.3854
63287SOL    HW198829   0.914   2.018   1.846  0.5179 -0.4123 -1.2090
63287SOL    HW298830   0.803   1.920   1.814  0.4582 -0.6151 -0.3985
63288SOL     OW98831   3.865  11.398   3.212  0.4898 -0.1411 -0.0002
63288SOL    HW198832   3.903  11.356   3.134 -0.9866 -0.5913 -0.5162
63288SOL    HW298833   3.819  11.474   3.177  1.1107  0.5394  0.6428
63289SOL     OW98834  10.981   0.479   6.928  0.0393  0.2241  0.1743
63289SOL    HW198835  11.066   0.449   6.896 -0.2436  0.3177 -0.6904
63289SOL    HW298836  10.936   0.399   6.954 -1.1285 -0.3160 -3.1355
63290SOL     OW98837   6.711   5.442  12.120 -0.2438  0.0135  0.0123
63290SOL    HW198838   6.618   5.421  12.109 -1.1617  3.4203 -0.0055
63290SOL    HW298839   6.716   5.481  12.207  0.8893  1.0896 -0.5160
63291SOL     OW98840   4.624   6.981   4.545  0.1473 -0.0794  0.4160
63291SOL    HW198841   4.715   7.011   4.551  0.3320 -0.4430 -0.4269
63291SOL    HW298842   4.581   7.021   4.620  0.9302  0.3705  0.6400
63292SOL     OW98843   6.757  11.607   4.072 -0.2896  0.1304  0.7050
63292SOL    HW198844   6.808  11.529   4.053 -0.9045  0.0298 -0.6601
63292SOL    HW298845   6.731  11.640   3.986 -1.2546  1.0257  1.3153
63293SOL     OW98846  10.197   9.353  10.656 -0.4673  0.0803  0.3697
63293SOL    HW198847  10.181   9.298  10.732 -1.2190  1.0412  0.9379
63293SOL    HW298848  10.258   9.420  10.688 -0.4584  0.2423  0.0164
63294SOL     OW98849  10.585   6.072  11.273 -0.2421 -0.8497 -0.4046
63294SOL    HW198850  10.568   6.093  11.365  0.6478 -1.3958 -0.1102
63294SOL    HW298851  10.514   6.011  11.249  0.7213 -2.4154  0.5611
63295SOL     OW98852   5.641   2.814   4.368 -0.9028 -0.1708 -0.3612
63295SOL    HW198853   5.624   2.788   4.459 -2.4296 -1.4860 -0.9854
63295SOL    HW298854   5.559   2.854   4.339 -0.5837 -0.1787 -1.3015
63296SOL     OW98855   3.410   4.332  11.632 -0.2730 -0.6928  0.2272
63296SOL    HW198856   3.385   4.424  11.631  0.3296 -0.4778  1.7571
63296SOL    HW298857   3.417   4.307  11.539 -0.0360  0.9059 -0.2086
63297SOL     OW98858  10.701  12.408  11.121  0.4429 -0.5134 -0.1220
63297SOL    HW198859  10.730  12.496  11.144  0.2079 -0.5319  0.2558
63297SOL    HW298860  10.734  12.353  11.192  0.6988 -0.7527 -0.4214
63298SOL     OW98861   3.468   0.402   1.843  0.2416  0.5691 -0.1100
63298SOL    HW198862   3.380   0.435   1.824  0.4650  0.3331 -1.7179
63298SOL    HW298863   3.493   0.445   1.925 -1.4327  0.4855  0.4806
63299SOL     OW98864   5.151  10.884   4.576 -0.1619 -0.0867 -0.3654
63299SOL    HW198865   5.213  10.858   4.507  0.7316  0.4550  0.2107
63299SOL    HW298866   5.205  10.892   4.655 -0.8965  0.7750  0.0700
63300SOL     OW98867   7.674   6.395  10.974 -0.0945 -0.1633 -0.4299
63300SOL    HW198868   7.631   6.389  11.060 -0.9148 -1.6754 -0.9226
63300SOL    HW298869   7.699   6.305  10.953  1.0714  0.3428 -1.3107
63301SOL     OW98870   5.697   9.767   3.944  0.1025 -0.2087  0.2092
63301SOL    HW198871   5.690   9.813   4.027  0.3706  0.5426 -0.1752
63301SOL    HW298872   5.659   9.826   3.879  1.1665 -0.1651 -0.4103
63302SOL     OW98873   7.071   2.819   7.307 -0.0339 -0.3432  0.9430
63302SOL    HW198874   6.990   2.794   7.349  0.1458  0.9040  2.0894
63302SOL    HW298875   7.049   2.896   7.255  0.5051  0.3468  1.7060
63303SOL     OW98876   2.411  10.383  11.787 -0.3022  0.2364  0.6879
63303SOL    HW198877   2.368  10.359  11.704  0.1485  0.3829  0.4081
63303SOL    HW298878   2.464  10.306  11.809 -0.8181 -0.0095  1.1197
63304SOL     OW98879   1.373   2.343  12.310  0.6088 -0.4853  0.2752
63304SOL    HW198880   1.376   2.432  12.276 -1.5488 -0.4204  0.0986
63304SOL    HW298881   1.372   2.287  12.233 -0.2673 -0.5240  0.2967
63305SOL     OW98882   4.595  11.286  10.383 -0.5653  0.6587 -0.2886
63305SOL    HW198883   4.668  11.268  10.441 -1.1126 -0.2386  0.1452
63305SOL    HW298884   4.592  11.382  10.376 -0.4406  0.7746  1.0861
63306SOL     OW98885   2.005   7.853   5.752 -0.7536  0.0113 -0.3572
63306SOL    HW198886   2.086   7.903   5.763 -0.1536 -0.4486 -2.3539
63306SOL    HW298887   2.015   7.779   5.813  0.2089  0.1247 -0.3599
63307SOL     OW98888   9.677   6.812   9.256  0.2908  0.0818 -0.2269
63307SOL    HW198889   9.626   6.883   9.216  1.6444 -0.0477 -2.3433
63307SOL    HW298890   9.757   6.855   9.286 -0.3406  0.0100  1.6563
63308SOL     OW98891   0.511  11.580   9.328 -0.9217 -0.3574 -0.2282
63308SOL    HW198892   0.478  11.663   9.363  1.0617 -0.0220  1.0186
63308SOL    HW298893   0.478  11.577   9.239 -1.6848  1.4069 -0.0539
63309SOL     OW98894  12.526   7.110   2.356  0.0357 -0.1051  0.6396
63309SOL    HW198895  12.447   7.072   2.315 -0.7059  1.3053  0.7114
63309SOL    HW298896  12.529   7.199   2.323  1.9560 -0.2912  0.1976
63310SOL     OW98897   7.376   8.857   3.268  0.0985 -0.3815  0.4055
63310SOL    HW198898   7.329   8.909   3.334  2.8565 -0.0217  2.2415
63310SOL    HW298899   7.413   8.784   3.318  1.2314 -0.8117 -0.9982
63311SOL     OW98900  11.159  10.154   7.673 -0.0990  0.5285  0.2598
63311SOL    HW198901  11.153  10.104   7.754 -0.4962  0.9828  0.5137
63311SOL    HW298902  11.100  10.228   7.686 -0.0075  0.7152 -0.3630
63312SOL     OW98903   3.217   1.297   2.581  0.4081  0.1402 -0.6444
63312SOL    HW198904   3.262   1.260   2.505  1.5975  1.4645 -0.6302
63312SOL    HW298905   3.285   1.302   2.649 -0.2025  0.5849 -0.0557
63313SOL     OW98906   1.347   2.217   6.694 -0.1942  0.7544  0.6301
63313SOL    HW198907   1.428   2.198   6.742  0.7452 -0.5193 -1.3653
63313SOL    HW298908   1.328   2.308   6.716  1.7592  1.0812  1.1759
63314SOL     OW98909   9.903   9.280   5.006 -0.0006 -0.8951 -0.1346
63314SOL    HW198910   9.895   9.240   4.919 -2.0835 -1.9286  0.4700
63314SOL    HW298911   9.891   9.207   5.067 -0.7065  0.1437  1.0004
63315SOL     OW98912   2.567   6.967   5.512  0.5346 -0.1256 -0.2566
63315SOL    HW198913   2.473   6.968   5.493  0.4966 -1.6461 -0.2277
63315SOL    HW298914   2.586   7.056   5.542 -0.9328  0.1564 -0.0950
63316SOL     OW98915   8.285   0.135   9.608  0.2460 -0.2050 -0.3231
63316SOL    HW198916   8.301   0.056   9.659  1.5622  0.7194  0.7759
63316SOL    HW298917   8.318   0.114   9.520 -0.1287 -1.1169 -0.2567
63317SOL     OW98918   9.566   3.590   4.112  0.5751  0.2196 -0.4382
63317SOL    HW198919   9.555   3.600   4.018 -0.9073  0.9569 -0.2100
63317SOL    HW298920   9.506   3.655   4.151 -0.4093 -1.4674  1.0214
63318SOL     OW98921   6.402  10.133   2.265  0.5697  0.2579  0.6437
63318SOL    HW198922   6.349  10.071   2.315  1.2408 -1.4190 -0.6262
63318SOL    HW298923   6.340  10.177   2.206  0.4512 -1.2744 -0.4305
63319SOL     OW98924  10.437   3.060   5.094  0.0663  0.1588  0.2386
63319SOL    HW198925  10.373   3.121   5.132  0.5602  0.1517  1.1150
63319SOL    HW298926  10.519   3.108   5.095  0.5316 -0.6206  1.2378
63320SOL     OW98927   2.564   6.732  11.893 -0.2047  0.5096 -0.5760
63320SOL    HW198928   2.659   6.725  11.884 -0.0719  1.9543 -0.4388
63320SOL    HW298929   2.551   6.779  11.975 -1.0545  0.1398 -0.4858
63321SOL     OW98930   2.054   6.394   1.440 -0.3017 -0.5427 -0.0187
63321SOL    HW198931   1.986   6.461   1.439 -0.1627 -0.3040  1.7891
63321SOL    HW298932   2.076   6.384   1.533  2.1333 -0.5885 -0.5223
63322SOL     OW98933  10.737   3.592   9.014 -0.0384  0.4822  0.4949
63322SOL    HW198934  10.798   3.617   8.945 -0.8586  1.9684  0.2488
63322SOL    HW298935  10.792   3.556   9.083  1.2464  2.5283  0.6283
63323SOL     OW98936   2.070   3.429   5.853  1.0260 -0.3977  0.4427
63323SOL    HW198937   2.058   3.338   5.828 -2.6490 -0.4217  1.7233
63323SOL    HW298938   2.070   3.428   5.949 -0.5620  1.0275  0.5041
63324SOL     OW98939   3.034  11.995   8.555 -0.0875  0.4451  0.0425
63324SOL    HW198940   3.081  11.991   8.472 -1.3003  1.6108 -0.7488
63324SOL    HW298941   3.096  12.034   8.616 -0.0009  2.0339 -0.9883
63325SOL     OW98942   9.874   8.988  12.583 -0.3169 -0.2711 -0.0210
63325SOL    HW198943   9.849   8.938  12.505  0.6776  0.7598 -1.0495
63325SOL    HW298944   9.969   8.997  12.576 -0.0884 -0.9173  1.8188
63326SOL     OW98945   7.178   7.033   4.264 -0.4110 -0.0983  0.4304
63326SOL    HW198946   7.139   7.103   4.315 -1.4130 -0.7404  0.5690
63326SOL    HW298947   7.130   7.032   4.181  1.7865  1.5369 -0.9990
63327SOL     OW98948  12.153   1.204   2.435  0.0847 -0.2341 -0.4314
63327SOL    HW198949  12.148   1.176   2.526  1.0434  0.9216 -0.0029
63327SOL    HW298950  12.242   1.183   2.408 -0.3608 -1.1011 -1.3047
63328SOL     OW98951   3.849   0.227  11.030 -0.4087  0.5853 -0.1198
63328SOL    HW198952   3.931   0.249  10.986 -0.5123  0.6180 -0.2993
63328SOL    HW298953   3.875   0.174  11.104 -0.1554  1.2606  0.2832
63329SOL     OW98954  10.724   0.589   3.049 -0.4098 -0.1099 -0.1686
63329SOL    HW198955  10.719   0.499   3.079  0.1651  0.1108  0.6414
63329SOL    HW298956  10.639   0.627   3.071  0.5508  0.5501  3.0054
63330SOL     OW98957  10.818   9.883   6.190 -0.1354  0.3911 -0.4160
63330SOL    HW198958  10.899   9.870   6.239  0.5311  1.0357 -1.3221
63330SOL    HW298959  10.836   9.958   6.133 -0.7116 -0.6471 -2.0336
63331SOL     OW98960   8.150  10.159   2.840  0.2996  0.2574  0.2120
63331SOL    HW198961   8.218  10.097   2.865 -1.8928 -1.5307  2.2091
63331SOL    HW298962   8.137  10.145   2.747  3.5466  1.7145 -0.5930
63332SOL     OW98963   8.577  10.671   4.640  0.0114  0.3606 -0.5126
63332SOL    HW198964   8.563  10.629   4.555 -1.9823  2.5292 -1.3492
63332SOL    HW298965   8.495  10.716   4.659  1.6541  3.1580  0.6867
63333SOL     OW98966   9.473   1.887   0.142 -0.7056  0.1062 -0.0975
63333SOL    HW198967   9.504   1.926   0.224 -1.0527  1.8305 -0.7291
63333SOL    HW298968   9.411   1.951   0.107 -1.4847 -1.1569 -1.1162
63334SOL     OW98969  10.283   3.574   7.836 -0.4554 -0.3396 -0.8215
63334SOL    HW198970  10.263   3.509   7.769  0.8368 -1.2243 -0.3616
63334SOL    HW298971  10.335   3.640   7.791 -0.2709 -0.5229 -0.8757
63335SOL     OW98972   8.687   0.560   6.733  0.7647  0.1245  0.0168
63335SOL    HW198973   8.699   0.652   6.758  0.1034 -0.2683  1.9479
63335SOL    HW298974   8.770   0.518   6.758  0.5777 -0.0342  0.3794
63336SOL     OW98975  10.701   6.739   3.078  0.2480  0.3719  0.3390
63336SOL    HW198976  10.640   6.669   3.053 -0.5973  1.2655 -0.1520
63336SOL    HW298977  10.784   6.694   3.094 -0.5653 -0.8971  1.1718
63337SOL     OW98978  10.010   4.971  12.339 -0.3154 -0.2502  0.1937
63337SOL    HW198979   9.980   5.053  12.300  0.5496 -0.9124 -2.0821
63337SOL    HW298980  10.099   4.990  12.370  1.3510 -1.0232 -3.5148
63338SOL     OW98981   8.648   5.675   7.531  0.1512 -0.4296  0.1255
63338SOL    HW198982   8.699   5.748   7.566  0.0649 -0.9024  1.2826
63338SOL    HW298983   8.688   5.656   7.446  1.8026 -0.6554  0.9031
63339SOL     OW98984   0.106   7.364  10.872 -0.5357 -0.3780 -0.3345
63339SOL    HW198985   0.040   7.322  10.928  0.3075 -2.1045 -0.5761
63339SOL    HW298986   0.138   7.294  10.816  2.2573  0.1161  0.4913
63340SOL     OW98987   9.404   4.873   7.005 -0.1217  0.5135 -0.0559
63340SOL    HW198988   9.382   4.796   6.951 -1.0610 -0.0244  1.0512
63340SOL    HW298989   9.460   4.926   6.948  0.7026 -1.0596 -0.7984
63341SOL     OW98990   9.627  10.885   1.124  0.0567 -0.9525 -0.0022
63341SOL    HW198991   9.612  10.854   1.035 -0.8482  0.8435 -0.5076
63341SOL    HW298992   9.721  10.905   1.127  0.0618 -0.8915 -0.5862
63342SOL     OW98993   7.290   8.822   0.546 -0.1077 -0.4987  0.6377
63342SOL    HW198994   7.340   8.855   0.472  1.9540 -0.1293  2.1112
63342SOL    HW298995   7.351   8.764   0.592 -1.4092 -0.9226  1.9030
63343SOL     OW98996   3.856   1.081   8.456 -0.5462  0.5355 -0.3590
63343SOL    HW198997   3.801   1.159   8.459  0.3208  1.1135  1.3389
63343SOL    HW298998   3.799   1.012   8.420 -2.1933  1.2452  0.8257
63344SOL     OW98999   4.531   8.661   3.444  0.2630  0.1348 -0.5005
63344SOL    HW199000   4.455   8.616   3.480  1.3876 -0.1349  1.7343
63344SOL    HW299001   4.544   8.621   3.359 -1.0810 -1.0165 -0.2041
63345SOL     OW99002   4.070   4.200   4.091  0.3391 -0.2031  0.3927
63345SOL    HW199003   4.159   4.199   4.128  0.0618 -3.6133  1.2339
63345SOL    HW299004   4.076   4.146   4.012 -0.8542  0.1670  0.0279
63346SOL     OW99005   3.471   7.555   3.046 -0.1605 -0.0503 -0.0116
63346SOL    HW199006   3.473   7.632   3.102 -3.3319 -1.3595  2.2162
63346SOL    HW299007   3.561   7.522   3.048  0.5245  1.6978  1.7740
63347SOL     OW99008  10.780   8.366   9.833 -0.0243 -0.2064 -0.1562
63347SOL    HW199009  10.832   8.428   9.783  0.0187 -0.5508 -0.5414
63347SOL    HW299010  10.843   8.323   9.891  0.6324 -2.4089 -2.3484
63348SOL     OW99011   1.998   2.550   1.202 -0.6084 -0.1434 -0.5526
63348SOL    HW199012   2.090   2.570   1.215 -0.3886 -0.7941 -1.0343
63348SOL    HW299013   1.973   2.599   1.124 -1.1914  1.5437  0.6328
63349SOL     OW99014   4.955   1.413   1.553  0.1004  0.7713  0.7410
63349SOL    HW199015   4.932   1.461   1.473  0.0671  1.2288  1.0201
63349SOL    HW299016   4.871   1.396   1.595 -0.0039 -0.6723  0.0171
63350SOL     OW99017   1.454   4.135   1.807 -0.0865 -0.6435  0.3290
63350SOL    HW199018   1.483   4.067   1.746  1.3116  0.2371 -0.0331
63350SOL    HW299019   1.434   4.088   1.888  0.1605 -1.5720 -0.1375
63351SOL     OW99020   0.051   0.766   5.455  0.2501  0.2314 -0.0618
63351SOL    HW199021   0.108   0.753   5.379 -0.6840  1.4111 -1.0172
63351SOL    HW299022  -0.018   0.825   5.423 -1.0727 -0.5320  1.2556
63352SOL     OW99023   4.670  11.583   4.059  0.6050 -0.0412  0.3622
63352SOL    HW199024   4.664  11.671   4.023 -0.0193 -0.8521 -1.6630
63352SOL    HW299025   4.764  11.566   4.066  0.8807 -0.5478 -2.9468
63353SOL     OW99026   1.382   3.752   3.101 -0.2177  0.1034  0.1214
63353SOL    HW199027   1.292   3.733   3.127  0.3578  0.3033  2.4931
63353SOL    HW299028   1.413   3.670   3.062 -1.2002 -0.2163 -0.0077
63354SOL     OW99029  10.415  10.180   1.600  0.3071 -0.4747 -0.0220
63354SOL    HW199030  10.457  10.190   1.686  0.6100 -0.5078 -0.1656
63354SOL    HW299031  10.351  10.251   1.596  1.0069  0.1580 -0.1853
63355SOL     OW99032   2.572   0.190   9.660 -0.0121 -0.2140  0.1232
63355SOL    HW199033   2.542   0.272   9.621 -0.1136  0.2412  1.1240
63355SOL    HW299034   2.541   0.194   9.750  1.3644 -0.6182  0.6374
63356SOL     OW99035  12.348  10.869  12.484  0.5961 -0.6196 -0.2137
63356SOL    HW199036  12.394  10.840  12.563  1.1905  1.0998  0.1214
63356SOL    HW299037  12.402  10.942  12.451 -0.0842 -0.7886 -1.7464
63357SOL     OW99038   3.075   3.560  10.899  0.0630  0.1168 -0.0796
63357SOL    HW199039   3.117   3.495  10.842  0.1513  0.4264 -0.3683
63357SOL    HW299040   2.986   3.527  10.912  0.4633 -0.6881  0.7585
63358SOL     OW99041   0.405   9.724   5.337  0.0155  0.0554 -0.3443
63358SOL    HW199042   0.385   9.631   5.330 -1.8943  0.4355 -0.2655
63358SOL    HW299043   0.450   9.745   5.255 -1.6399 -0.4619 -1.4356
63359SOL     OW99044   1.007   9.890   8.495  0.0239  0.1648 -0.0361
63359SOL    HW199045   1.091   9.910   8.537  0.2138  0.0156 -0.3388
63359SOL    HW299046   0.960   9.973   8.494  0.0577  0.1920  0.3773
63360SOL     OW99047  11.234   4.956   1.834  0.0834  0.2497 -0.1072
63360SOL    HW199048  11.178   5.032   1.819 -0.1152  0.0463 -0.3927
63360SOL    HW299049  11.320   4.981   1.800  0.4914  1.0070  1.3934
63361SOL     OW99050  11.522   2.060   9.273 -0.2018  0.0178 -0.0609
63361SOL    HW199051  11.548   2.000   9.343 -0.4546  0.2275  0.2140
63361SOL    HW299052  11.431   2.039   9.255 -0.1880  0.0808 -0.2106
63362SOL     OW99053   0.075   2.877   0.413  0.6841  0.2783  0.4569
63362SOL    HW199054   0.082   2.927   0.494 -1.5576  2.0553 -0.3358
63362SOL    HW299055   0.000   2.818   0.427  0.8401 -0.0397 -0.0171
63363SOL     OW99056  11.677   7.577   9.665  0.6068 -0.0813 -0.3255
63363SOL    HW199057  11.595   7.541   9.632  0.3767  0.1097  0.0263
63363SOL    HW299058  11.741   7.557   9.597  0.1180  0.4304 -0.9521
63364SOL     OW99059  12.424   0.657   3.989  0.0428  0.0711  0.0640
63364SOL    HW199060  12.363   0.721   4.027 -0.8823 -1.0271  0.4902
63364SOL    HW299061  12.423   0.584   4.051  2.5292  0.3740  0.5748
63365SOL     OW99062   5.696   4.555  10.699 -0.0301  0.3677  0.4907
63365SOL    HW199063   5.621   4.603  10.734 -0.5677 -0.3645  0.3734
63365SOL    HW299064   5.738   4.617  10.638 -1.1787  0.4303 -0.2760
63366SOL     OW99065   8.243  11.041   2.784 -0.0216  0.3497 -0.2003
63366SOL    HW199066   8.205  11.126   2.807  1.4236  0.7057  0.9590
63366SOL    HW299067   8.271  11.052   2.693 -0.7655  0.7648 -0.3931
63367SOL     OW99068   0.333   3.642   9.947 -0.0403 -0.1250 -0.2273
63367SOL    HW199069   0.350   3.549   9.960  2.9542  0.2157 -0.9173
63367SOL    HW299070   0.245   3.656   9.983  0.9928 -2.3898  3.7506
63368SOL     OW99071   8.072   3.356   5.859  0.1819 -0.2117 -0.7865
63368SOL    HW199072   8.124   3.277   5.860  0.3911 -0.0699 -0.2465
63368SOL    HW299073   8.009   3.343   5.788 -1.3465 -1.8679  0.7926
63369SOL     OW99074   5.245   0.372  11.327 -0.4032 -0.4165  0.2290
63369SOL    HW199075   5.266   0.440  11.392  0.1242 -2.2112  2.0361
63369SOL    HW299076   5.186   0.313  11.372 -0.2093 -1.6172 -1.0289
63370SOL     OW99077  11.284  12.207   6.350  0.3268  0.4894  0.1922
63370SOL    HW199078  11.198  12.233   6.318 -0.0736  0.5621  1.3038
63370SOL    HW299079  11.305  12.127   6.300 -0.3941  0.4492 -0.0520
63371SOL     OW99080   0.207   2.774  12.468  0.0531 -0.3033  0.0834
63371SOL    HW199081   0.275   2.750  12.531  0.3755 -0.5809 -0.3631
63371SOL    HW299082   0.185   2.865  12.490  1.3959  0.1816 -0.4780
63372SOL     OW99083   2.290  11.353   1.835  0.2339  0.2794 -0.7210
63372SOL    HW199084   2.218  11.412   1.813 -0.3325  0.5082  1.5127
63372SOL    HW299085   2.260  11.307   1.914  1.3175 -1.8464 -1.4566
63373SOL     OW99086   0.031  10.242  12.093  0.1053 -0.1128 -0.0614
63373SOL    HW199087   0.025  10.232  12.188 -0.1812  0.8265  0.0331
63373SOL    HW299088  -0.000  10.331  12.076  0.5518 -0.1162 -0.9950
63374SOL     OW99089  12.325  11.913  11.559 -0.1807  0.1194  0.0659
63374SOL    HW199090  12.262  11.849  11.595 -1.0808  0.5096 -0.7687
63374SOL    HW299091  12.360  11.958  11.636 -0.6456 -0.3678  0.5712
63375SOL     OW99092   6.687   8.283   9.568 -0.1607 -0.1303 -0.1313
63375SOL    HW199093   6.718   8.248   9.652 -1.8208 -3.0403 -0.6206
63375SOL    HW299094   6.597   8.312   9.586 -0.2827 -0.1106 -0.7547
63376SOL     OW99095   8.133  10.519  10.442 -0.1423 -0.2640 -0.2703
63376SOL    HW199096   8.152  10.598  10.392 -0.5809 -0.2422 -0.4017
63376SOL    HW299097   8.063  10.544  10.502  1.0131 -0.0216  1.0325
63377SOL     OW99098   8.667   4.954  12.348  0.1950  0.2062 -0.4899
63377SOL    HW199099   8.748   4.941  12.397  0.6950  0.7752 -1.1620
63377SOL    HW299100   8.695   4.971  12.259 -0.7198 -1.4935 -1.1589
63378SOL     OW99101   9.592  10.622   0.963 -0.5205  0.3852 -0.0460
63378SOL    HW199102   9.518  10.637   0.903 -0.6092  1.0109  0.2031
63378SOL    HW299103   9.652  10.695   0.944 -0.6474  0.7090  0.7643
63379SOL     OW99104  11.130   9.532  12.475 -0.4694  0.5370 -0.6561
63379SOL    HW199105  11.147   9.445  12.442 -3.0733  0.2601 -1.5488
63379SOL    HW299106  11.147   9.590  12.401  0.3647  0.6831 -0.3499
63380SOL     OW99107   0.612   0.625   5.285 -0.1718  0.1622  0.2246
63380SOL    HW199108   0.638   0.625   5.377 -0.3219  0.8399  0.2712
63380SOL    HW299109   0.590   0.533   5.266  0.6628 -0.1264  0.6249
63381SOL     OW99110   4.728   8.891   8.658  0.0688 -0.4127 -0.2092
63381SOL    HW199111   4.794   8.875   8.726  0.4858 -1.0467 -0.7513
63381SOL    HW299112   4.727   8.811   8.606  0.0724  0.2188 -1.2125
63382SOL     OW99113   7.040   0.701   5.628  0.0124  0.1456 -0.0360
63382SOL    HW199114   7.101   0.770   5.602 -0.5283  0.0912 -1.5117
63382SOL    HW299115   6.953   0.739   5.614 -0.3070 -0.2400  0.8139
63383SOL     OW99116   1.989   6.357   9.130  0.1215 -0.6817 -0.4529
63383SOL    HW199117   1.905   6.400   9.144  1.0183  0.8178  0.6893
63383SOL    HW299118   2.037   6.416   9.071  0.6533 -1.1184 -0.4692
63384SOL     OW99119   1.533   0.037   4.382 -0.1138 -0.6300  0.2700
63384SOL    HW199120   1.523   0.082   4.466 -2.7193  0.2484 -0.4374
63384SOL    HW299121   1.523  -0.055   4.403 -3.1980 -0.2994  0.7346
63385SOL     OW99122   7.345  10.500   8.831  0.1961 -0.6454 -0.7497
63385SOL    HW199123   7.305  10.584   8.810 -0.3813 -1.0262 -1.2104
63385SOL    HW299124   7.350  10.454   8.747  1.1406 -0.8057 -0.6138
63386SOL     OW99125  10.760   3.907  11.537 -0.2855 -0.3632 -0.3224
63386SOL    HW199126  10.828   3.889  11.602 -0.0500  1.1199 -0.1300
63386SOL    HW299127  10.788   3.988  11.494 -2.4654  0.9276  0.5341
63387SOL     OW99128  10.587  10.430  11.102 -0.6447 -0.3200  0.4103
63387SOL    HW199129  10.605  10.517  11.067 -0.0594 -0.7804 -0.4534
63387SOL    HW299130  10.549  10.382  11.029  2.6769 -1.9929 -0.4243
63388SOL     OW99131   8.626   5.349  11.133  0.1517  0.1293 -0.5838
63388SOL    HW199132   8.585   5.401  11.063  0.0195 -0.5356 -1.0085
63388SOL    HW299133   8.719   5.369  11.127 -0.0169  1.1271 -0.0561
63389SOL     OW99134   9.675  10.329   9.530 -0.2867 -0.3792  0.1394
63389SOL    HW199135   9.662  10.417   9.567  2.5760  0.2365 -0.1322
63389SOL    HW299136   9.646  10.337   9.439 -2.4574 -0.5012  0.7446
63390SOL     OW99137   7.428   0.019   7.555 -0.1322  0.5969  0.3512
63390SOL    HW199138   7.388   0.073   7.488 -0.8766 -0.4089 -0.0427
63390SOL    HW299139   7.511   0.062   7.575 -0.0554  1.0903 -0.9692
63391SOL     OW99140   4.111   8.354   0.587  0.2083 -0.0066  0.6306
63391SOL    HW199141   4.024   8.364   0.625 -0.1789 -1.3996  0.1941
63391SOL    HW299142   4.139   8.267   0.615  0.1304 -0.8665 -1.7226
63392SOL     OW99143   1.731   2.834  10.129  0.4599  0.0104 -0.0480
63392SOL    HW199144   1.641   2.832  10.163  0.2766  0.6067 -0.4880
63392SOL    HW299145   1.732   2.769  10.059  0.6864 -0.8121  0.6900
63393SOL     OW99146   1.846   7.531   3.032  0.0799 -0.0032  0.1998
63393SOL    HW199147   1.923   7.554   3.085  1.2005  0.1358 -1.4098
63393SOL    HW299148   1.805   7.615   3.011 -0.6176 -0.0844  1.1587
63394SOL     OW99149  11.147  11.500   9.021 -0.9919 -0.2323  0.0255
63394SOL    HW199150  11.166  11.448   8.942 -0.9465  0.0810 -0.1720
63394SOL    HW299151  11.061  11.539   9.004 -0.7113  0.3380 -0.1463
63395SOL     OW99152   1.454   1.360   5.397 -0.0962 -0.5150 -0.4871
63395SOL    HW199153   1.434   1.275   5.435  0.4600 -1.0826 -1.4141
63395SOL    HW299154   1.453   1.420   5.471  0.2963 -1.4625  0.3151
63396SOL     OW99155  11.053   3.112   9.496  0.1435  0.7625  0.4136
63396SOL    HW199156  11.028   3.019   9.500  0.6158  0.5585 -1.0566
63396SOL    HW299157  10.983   3.157   9.544  0.0621 -0.3710  1.4149
63397SOL     OW99158   1.870   4.889   7.471  0.4406  0.1205  0.4215
63397SOL    HW199159   1.916   4.821   7.520 -0.0435 -0.7318 -0.2797
63397SOL    HW299160   1.940   4.949   7.442  1.1660 -1.2673 -0.8161
63398SOL     OW99161   2.548   5.228   1.090 -0.5504  0.6246 -0.2626
63398SOL    HW199162   2.599   5.300   1.052  0.2402  0.7096  0.8935
63398SOL    HW299163   2.556   5.242   1.185 -0.4007 -0.9868 -0.0233
63399SOL     OW99164  12.127   0.563   2.334 -0.2454 -0.6007 -0.1075
63399SOL    HW199165  12.116   0.492   2.270 -0.9854  1.1517 -2.0311
63399SOL    HW299166  12.043   0.609   2.333  0.5449  0.9001  0.3285
63400SOL     OW99167   8.190   0.482  10.223  0.4284  0.5799  0.1071
63400SOL    HW199168   8.248   0.522  10.159  2.2881  0.6379  1.7284
63400SOL    HW299169   8.117   0.544  10.232  1.2460  1.6350 -0.3295
63401SOL     OW99170   1.575   0.053   8.440 -0.3801  0.4384 -0.1629
63401SOL    HW199171   1.485   0.050   8.407 -0.0662 -0.9789 -0.9671
63401SOL    HW299172   1.567   0.091   8.528 -1.8407 -0.2832  0.0458
63402SOL     OW99173   6.154   9.869   3.299 -0.6224  0.1810  0.1764
63402SOL    HW199174   6.105   9.792   3.327 -3.5041  1.1027 -1.9351
63402SOL    HW299175   6.095   9.943   3.315  0.7405  1.5853 -0.9058
63403SOL     OW99176  10.600   4.356   4.317 -0.4627  0.1871 -0.1668
63403SOL    HW199177  10.540   4.295   4.360 -0.6883  1.0830  0.8165
63403SOL    HW299178  10.544   4.421   4.276 -0.3189 -1.2819 -2.9403
63404SOL     OW99179   4.095  10.947  12.302  0.0826 -0.1971  0.2086
63404SOL    HW199180   4.086  10.948  12.207 -1.7429  0.8777  0.3496
63404SOL    HW299181   4.187  10.926  12.317  0.0610 -2.0446 -1.7503
63405SOL     OW99182   9.590   9.629   8.494 -0.3450  0.3377 -0.0843
63405SOL    HW199183   9.656   9.688   8.532  0.2331  1.1643 -2.2168
63405SOL    HW299184   9.640   9.573   8.434 -1.3296 -0.3553 -0.2744
63406SOL     OW99185  10.568   9.282   6.923 -0.4316  0.1639  0.1134
63406SOL    HW199186  10.594   9.230   6.847  0.5152 -2.3510  2.0332
63406SOL    HW299187  10.500   9.229   6.965 -1.5710  1.9344  0.5875
63407SOL     OW99188   9.024   5.484   0.774 -0.7679  0.4664 -0.0552
63407SOL    HW199189   9.068   5.460   0.692 -1.8941  0.4146 -0.6751
63407SOL    HW299190   8.957   5.416   0.786 -1.2262  0.9864  0.4113
63408SOL     OW99191   8.580   3.300  11.608  0.0356  0.0611 -0.5235
63408SOL    HW199192   8.591   3.205  11.621 -0.9655  0.0372  0.2236
63408SOL    HW299193   8.630   3.318  11.529  0.2361 -1.1038 -0.6894
63409SOL     OW99194   3.969   1.777   1.890 -0.1509 -0.0480  0.0960
63409SOL    HW199195   3.928   1.798   1.806  1.3080  1.5610 -0.2625
63409SOL    HW299196   4.030   1.849   1.906  0.0154 -0.6017  2.2791
63410SOL     OW99197   4.653   1.259  10.448  0.4463 -0.1384  0.0338
63410SOL    HW199198   4.574   1.309  10.470 -0.3251 -0.8884 -0.9484
63410SOL    HW299199   4.637   1.226  10.360  0.9008 -2.1707  0.6514
63411SOL     OW99200  12.365   6.200   5.030 -0.3785  0.0217 -0.2158
63411SOL    HW199201  12.278   6.169   5.056  0.1877 -0.3332  1.3385
63411SOL    HW299202  12.409   6.219   5.112  0.6838  1.1819 -1.0113
63412SOL     OW99203   4.557   9.308  11.061  0.1627  0.1855 -0.3195
63412SOL    HW199204   4.571   9.381  11.001 -0.7571 -0.0511 -0.8476
63412SOL    HW299205   4.463   9.313  11.083  0.3482 -0.1223  0.5841
63413SOL     OW99206   6.068  11.490   3.209 -0.4464  0.4814 -0.5179
63413SOL    HW199207   5.997  11.447   3.162 -0.7154  1.3924 -0.9446
63413SOL    HW299208   6.146  11.473   3.156 -0.7733  1.6392 -1.4055
63414SOL     OW99209   5.781   9.978   7.307 -0.6935  0.2856 -0.2496
63414SOL    HW199210   5.841  10.010   7.374  0.5982 -1.6853 -0.3630
63414SOL    HW299211   5.753  10.057   7.260  0.0953  1.4775  1.1921
63415SOL     OW99212   1.577   0.888   9.506 -0.1728 -0.8831  0.1917
63415SOL    HW199213   1.635   0.929   9.443 -1.7209 -0.9037 -1.3242
63415SOL    HW299214   1.552   0.804   9.466 -1.1138 -0.9407  0.8460
63416SOL     OW99215   4.800   9.671   8.064  0.6602 -0.2447  0.5444
63416SOL    HW199216   4.844   9.616   8.128  2.7335  0.2609 -0.3639
63416SOL    HW299217   4.806   9.621   7.982 -2.2600 -1.0486  0.7194
63417SOL     OW99218   8.442  12.334  10.453  0.3409  0.3837  0.0038
63417SOL    HW199219   8.435  12.250  10.499  0.4118 -0.3426 -1.2488
63417SOL    HW299220   8.382  12.392  10.500  0.8237 -0.1539  1.3333
63418SOL     OW99221  11.739   7.281  11.255  0.0419  0.2109 -0.7443
63418SOL    HW199222  11.765   7.240  11.172 -3.5425  0.3411 -2.1420
63418SOL    HW299223  11.717   7.371  11.231 -2.0045 -0.0262  0.0793
63419SOL     OW99224   0.169   5.832   1.749 -0.2666 -0.9690 -0.4628
63419SOL    HW199225   0.135   5.778   1.820  2.2485  1.8449  3.3151
63419SOL    HW299226   0.255   5.795   1.729  1.3181  1.1103  1.9044
63420SOL     OW99227   1.325   5.122   1.470  0.1961 -0.0048  0.3935
63420SOL    HW199228   1.347   5.116   1.377  0.4989  0.7328  0.4086
63420SOL    HW299229   1.393   5.178   1.507  0.0391 -0.2370  1.0501
63421SOL     OW99230   7.762   3.117   4.231 -0.4806 -0.5356  0.1048
63421SOL    HW199231   7.687   3.063   4.259 -0.9203  0.2152  0.4142
63421SOL    HW299232   7.797   3.152   4.313 -0.1897 -0.3657 -0.0939
63422SOL     OW99233   9.498   3.436   1.780 -0.0787  0.0227 -0.5483
63422SOL    HW199234   9.526   3.381   1.708 -0.1788 -2.4785  1.1788
63422SOL    HW299235   9.551   3.515   1.773 -0.7066  0.2769 -3.7874
63423SOL     OW99236   1.175  11.454   5.314 -0.7102  0.2433 -0.7673
63423SOL    HW199237   1.084  11.480   5.324 -1.7530 -2.4247 -2.2471
63423SOL    HW299238   1.187  11.444   5.220  0.0656 -2.5215 -0.4632
63424SOL     OW99239  11.095   5.679   5.055 -0.0592  0.3901  0.0157
63424SOL    HW199240  11.181   5.702   5.090 -0.3207  1.2248  0.1412
63424SOL    HW299241  11.042   5.661   5.133  0.7851 -3.2478 -0.1099
63425SOL     OW99242  10.336  11.611   1.772 -0.3422  0.4061  0.2169
63425SOL    HW199243  10.310  11.701   1.791  0.5303  1.1902 -2.0239
63425SOL    HW299244  10.426  11.618   1.741 -0.7817 -1.0001 -1.5839
63426SOL     OW99245  12.140   4.639   1.980  0.2064 -0.1904 -0.4412
63426SOL    HW199246  12.230   4.660   1.954  0.7107 -0.1300  1.2266
63426SOL    HW299247  12.122   4.555   1.939  0.8437  0.0200 -1.1817
63427SOL     OW99248   4.755   9.429   2.473  0.5516  0.4484  0.3812
63427SOL    HW199249   4.776   9.336   2.483 -2.3426 -0.3187  0.1405
63427SOL    HW299250   4.669   9.439   2.512 -0.8404  2.2259 -2.7306
63428SOL     OW99251   3.588   1.403   9.283 -0.1798  0.2908 -0.2388
63428SOL    HW199252   3.540   1.455   9.347 -1.3227  0.0669 -0.8745
63428SOL    HW299253   3.552   1.315   9.292 -0.3146  0.2444 -1.1250
63429SOL     OW99254  11.853   1.754   0.654 -0.9286  0.2694 -0.2781
63429SOL    HW199255  11.914   1.682   0.642 -0.8759 -0.0453  1.4970
63429SOL    HW299256  11.770   1.712   0.678 -1.3015  0.7478 -0.7185
63430SOL     OW99257   2.633   5.976   0.772  0.3100 -0.1586  0.0441
63430SOL    HW199258   2.554   6.027   0.790  1.2332  1.8565 -1.2613
63430SOL    HW299259   2.609   5.886   0.797 -1.9749  0.5643  0.7804
63431SOL     OW99260   3.775   8.507   7.378 -0.6861 -0.0742 -0.1246
63431SOL    HW199261   3.869   8.523   7.382 -0.6170  0.2123 -2.1318
63431SOL    HW299262   3.749   8.497   7.470  1.3930 -0.8457  0.4397
63432SOL     OW99263   7.410   0.309   3.226 -0.0574  0.4085  0.1016
63432SOL    HW199264   7.367   0.230   3.193  0.8561  0.2792 -0.8473
63432SOL    HW299265   7.352   0.342   3.295 -0.8044 -0.6882  0.0152
63433SOL     OW99266  12.322   5.762  11.901 -0.6843 -0.4127  0.2486
63433SOL    HW199267  12.313   5.667  11.897 -0.7179 -0.4173  0.4563
63433SOL    HW299268  12.276   5.794  11.824 -0.7182 -0.5606  0.2073
63434SOL     OW99269   8.861  10.501   4.493  0.2089 -0.0820 -0.1530
63434SOL    HW199270   8.882  10.592   4.470  0.7334 -0.1478  0.0517
63434SOL    HW299271   8.865  10.454   4.410 -1.5298  0.3348 -0.5180
63435SOL     OW99272   1.368  11.903  10.414 -0.4498 -0.0581 -0.2255
63435SOL    HW199273   1.347  11.813  10.438  0.6165  0.3848  2.7812
63435SOL    HW299274   1.286  11.938  10.379 -1.8677 -1.2486  1.7084
63436SOL     OW99275   8.872   6.839   3.792  0.1770  1.1282  0.3076
63436SOL    HW199276   8.834   6.760   3.831  0.2991  1.3621  0.9071
63436SOL    HW299277   8.868   6.905   3.862 -1.8966  2.2968 -0.8044
63437SOL     OW99278   6.597   5.094   1.549 -0.0257 -0.0076  0.4981
63437SOL    HW199279   6.572   5.003   1.534  0.1697 -0.0161  0.2286
63437SOL    HW299280   6.626   5.126   1.464  1.5258 -0.1923  0.9238
63438SOL     OW99281  11.177  10.802   8.355  0.5294 -0.5280 -0.1015
63438SOL    HW199282  11.110  10.734   8.361  0.9079 -1.0388 -1.3104
63438SOL    HW299283  11.258  10.757   8.379  0.4352  0.1371  1.5672
63439SOL     OW99284   8.442   2.622   2.668  0.1196 -0.2280 -0.3652
63439SOL    HW199285   8.419   2.590   2.755  1.7227  1.2757  0.6875
63439SOL    HW299286   8.359   2.622   2.620 -1.4110  1.4272  2.0202
63440SOL     OW99287   2.097   1.502  10.831 -0.1340 -0.5364  0.4069
63440SOL    HW199288   2.023   1.485  10.772 -1.4486 -2.5803  2.4350
63440SOL    HW299289   2.173   1.465  10.787 -0.7620 -0.5190 -0.7197
63441SOL     OW99290   4.529   6.240   4.224  0.0603 -0.5582  0.0194
63441SOL    HW199291   4.622   6.260   4.239  0.0718 -0.7497  0.2101
63441SOL    HW299292   4.500   6.306   4.161 -0.0954  0.5377  1.1995
63442SOL     OW99293   1.388   1.959   8.825  0.1607 -0.2977  0.2789
63442SOL    HW199294   1.364   2.039   8.777 -1.3146  0.8771  2.8058
63442SOL    HW299295   1.305   1.914   8.841  0.6939 -1.0353  1.0489
63443SOL     OW99296  11.091   3.374   3.991 -0.0092 -0.1115  0.3256
63443SOL    HW199297  11.070   3.462   3.958 -0.1518  0.2993  1.4484
63443SOL    HW299298  11.185   3.377   4.008 -0.1526  0.1196  1.1499
63444SOL     OW99299  11.378   0.849   7.846  0.0508  0.1048 -0.0502
63444SOL    HW199300  11.408   0.863   7.756 -1.3513 -0.4838 -0.6376
63444SOL    HW299301  11.374   0.754   7.855 -1.4305  0.1488  0.0431
63445SOL     OW99302  12.395   9.533   6.307 -0.5194  0.4249 -0.3224
63445SOL    HW199303  12.407   9.628   6.304  1.5060  0.2248 -0.3235
63445SOL    HW299304  12.431   9.502   6.224  3.7571 -0.6760  1.6391
63446SOL     OW99305   6.560   2.593   8.973 -0.9287  0.5511 -0.3415
63446SOL    HW199306   6.592   2.561   8.889  1.1401  2.2486 -0.2965
63446SOL    HW299307   6.524   2.679   8.954 -3.7935 -0.4579 -0.0065
63447SOL     OW99308   6.339  10.274   2.788  0.1038 -0.2903 -0.1291
63447SOL    HW199309   6.417  10.218   2.787  2.4850  2.7222  0.5877
63447SOL    HW299310   6.356  10.338   2.719 -2.3080 -0.1131 -0.6435
63448SOL     OW99311   1.763   2.239   7.499 -0.2080 -0.6005 -0.2608
63448SOL    HW199312   1.808   2.288   7.430  0.2729 -0.2713  0.2751
63448SOL    HW299313   1.740   2.305   7.564  0.4559 -1.0757  0.4779
63449SOL     OW99314   1.756   3.880   9.304 -0.1047  0.1785 -0.4845
63449SOL    HW199315   1.710   3.962   9.291 -0.8988 -0.1555  0.1429
63449SOL    HW299316   1.763   3.842   9.216 -0.4896  0.5138 -0.6632
63450SOL     OW99317  12.563   4.401  10.212  0.4682 -0.1078 -0.0306
63450SOL    HW199318  12.629   4.459  10.252  0.1150  0.0233  0.3695
63450SOL    HW299319  12.561   4.426  10.120  1.0341 -0.1640 -0.0641
63451SOL     OW99320   6.392   0.104   3.720 -0.3100  0.0482 -0.1709
63451SOL    HW199321   6.368   0.186   3.762 -0.8246 -0.3341  0.3034
63451SOL    HW299322   6.314   0.078   3.670 -1.4326 -1.8128  2.3347
63452SOL     OW99323   6.869   4.375   0.680  0.1325 -0.5677 -0.4836
63452SOL    HW199324   6.929   4.370   0.605  0.6912  0.6963 -0.1454
63452SOL    HW299325   6.921   4.414   0.749 -1.0179  0.3163 -0.1023
63453SOL     OW99326  11.058   0.575   7.769 -0.4340 -0.0872 -0.2089
63453SOL    HW199327  11.017   0.603   7.851  1.0648 -1.9273  1.2653
63453SOL    HW299328  10.991   0.520   7.727 -0.6717 -0.3759  0.5340
63454SOL     OW99329   9.665   2.438   4.134  0.0219 -0.0057  0.1904
63454SOL    HW199330   9.653   2.394   4.050  0.9304  0.7521 -0.3588
63454SOL    HW299331   9.584   2.486   4.148  0.0801  0.3080 -0.5270
63455SOL     OW99332   6.385   8.745   4.218 -0.0475  0.0630 -0.4116
63455SOL    HW199333   6.295   8.759   4.247 -0.0013 -0.5336  0.0506
63455SOL    HW299334   6.438   8.793   4.281 -0.0836  1.5760 -1.4785
63456SOL     OW99335   4.688   1.822   4.222 -0.4423  0.2117  0.4210
63456SOL    HW199336   4.742   1.747   4.196 -0.7582 -0.1891  0.9069
63456SOL    HW299337   4.631   1.837   4.146 -0.1437  0.1794  0.1869
63457SOL     OW99338   7.427   3.374  10.761  0.2741  0.5950 -0.5111
63457SOL    HW199339   7.411   3.366  10.667  3.7695  0.7727 -1.2625
63457SOL    HW299340   7.439   3.468  10.776 -2.5908  0.8678  0.6809
63458SOL     OW99341  12.571   9.438  10.416  0.2927 -0.0326  0.2548
63458SOL    HW199342  12.583   9.533  10.410  0.4352 -0.1076 -0.8911
63458SOL    HW299343  12.477   9.425  10.404  0.2014 -0.0039  0.9262
63459SOL     OW99344   1.587   3.055  12.326 -1.3883  0.0859 -0.1985
63459SOL    HW199345   1.650   3.125  12.343  0.3049 -1.6149  0.9078
63459SOL    HW299346   1.593   3.040  12.231  0.9791 -0.9390  0.0329
63460SOL     OW99347   8.581   7.344   0.838  0.6927  0.3599  0.1324
63460SOL    HW199348   8.633   7.282   0.787  1.4529  1.8017 -0.9251
63460SOL    HW299349   8.538   7.399   0.773 -0.6791  0.4052  1.0253
63461SOL     OW99350   4.421   7.748   3.919 -0.1834 -0.1857  0.2339
63461SOL    HW199351   4.352   7.707   3.971 -0.7907  0.0259 -0.3832
63461SOL    HW299352   4.502   7.707   3.949 -0.8190 -2.4277 -0.8849
63462SOL     OW99353   2.403   1.919   8.057 -0.1058 -0.2133 -0.2216
63462SOL    HW199354   2.358   1.915   8.142 -0.4259 -2.1587 -0.4336
63462SOL    HW299355   2.338   1.956   7.997 -1.7654 -3.4113 -0.6320
63463SOL     OW99356   8.846  11.081   2.185  0.5095  0.2260 -0.6759
63463SOL    HW199357   8.923  11.137   2.172  0.0994  1.1347  0.6485
63463SOL    HW299358   8.776  11.142   2.208  0.1405 -0.8349  1.2130
63464SOL     OW99359   5.655  10.660   8.992 -0.6988  0.0600 -0.5392
63464SOL    HW199360   5.624  10.587   8.938  0.2523 -1.4451  0.8614
63464SOL    HW299361   5.735  10.689   8.948  0.6610 -1.8442  0.4860
63465SOL     OW99362   9.372   5.955  10.481  0.3337 -0.4651 -0.8200
63465SOL    HW199363   9.351   5.863  10.492 -0.4150 -0.2018  0.0800
63465SOL    HW299364   9.416   5.960  10.396  3.2983 -2.1096  0.4685
63466SOL     OW99365   5.519   1.614   6.059  0.1039 -0.2969 -0.5621
63466SOL    HW199366   5.609   1.637   6.081 -0.3735  0.7974  0.3152
63466SOL    HW299367   5.525   1.526   6.022  1.6427  0.1250 -1.3810
63467SOL     OW99368   6.372   0.375   9.682  0.1615  0.2181  0.1541
63467SOL    HW199369   6.322   0.449   9.715 -0.8108 -1.2849  2.2671
63467SOL    HW299370   6.453   0.376   9.734 -0.7988 -1.3847  1.7907
63468SOL     OW99371   9.583   1.333   8.675 -0.2126 -0.0258 -0.0328
63468SOL    HW199372   9.573   1.250   8.629 -0.3866 -0.5984  1.0031
63468SOL    HW299373   9.672   1.362   8.653  0.6120 -1.4841  1.1272
63469SOL     OW99374   4.574  12.497   4.029  0.3692 -0.1994  0.3320
63469SOL    HW199375   4.652  12.531   4.072  1.2101  1.1602 -2.0787
63469SOL    HW299376   4.597  12.407   4.006  1.8421  0.5732 -1.5084
63470SOL     OW99377   0.936   3.611   5.228  0.5578  0.2004 -0.1880
63470SOL    HW199378   0.896   3.686   5.183  1.1483  0.6343 -0.0004
63470SOL    HW299379   0.975   3.649   5.307 -0.8377 -0.6065  0.9394
63471SOL     OW99380  11.077  12.534   0.258 -0.0094  0.3761 -0.0138
63471SOL    HW199381  11.078  12.439   0.250  0.1585  0.4093 -0.4083
63471SOL    HW299382  11.169  12.559   0.271 -0.1366  0.4246  0.8793
63472SOL     OW99383   5.498  12.449   2.286 -0.3007 -0.1258 -0.0652
63472SOL    HW199384   5.493  12.381   2.219  1.2181 -0.3368 -0.0016
63472SOL    HW299385   5.408  12.457   2.319 -0.3190 -3.1013  0.9144
63473SOL     OW99386  12.433   5.809  12.428  0.0798  0.1762 -1.0217
63473SOL    HW199387  12.521   5.833  12.454 -0.4740  0.4057  0.7533
63473SOL    HW299388  12.438   5.715  12.411  0.5181  0.0649 -0.2861
63474SOL     OW99389   7.941   1.065   0.419 -0.2693 -0.2801  0.4828
63474SOL    HW199390   7.930   1.032   0.508 -1.5248 -0.0028  0.4521
63474SOL    HW299391   7.856   1.104   0.397  1.2420  3.6796  0.8123
63475SOL     OW99392   9.241   1.840   7.109  0.3686 -0.0897  0.2291
63475SOL    HW199393   9.336   1.850   7.101  0.2074  1.4789 -0.0150
63475SOL    HW299394   9.212   1.920   7.153 -0.8247 -0.6396  0.4852
63476SOL     OW99395   2.360   6.695   0.791 -0.0899 -0.0425  0.0651
63476SOL    HW199396   2.334   6.761   0.855 -0.9294  0.0500 -0.3603
63476SOL    HW299397   2.317   6.614   0.820  0.9233 -0.4175  0.5785
63477SOL     OW99398  12.291   8.749   0.291  0.4251  0.6485 -0.0612
63477SOL    HW199399  12.323   8.663   0.320 -1.1700  0.0854  0.1570
63477SOL    HW299400  12.254   8.732   0.205 -2.3280  0.4490  1.0475
63478SOL     OW99401   0.332   5.264   7.585  0.3996 -0.3564  0.1246
63478SOL    HW199402   0.292   5.277   7.671  0.9208 -1.5751  0.5559
63478SOL    HW299403   0.410   5.320   7.586 -0.1626  0.4539  0.0303
63479SOL     OW99404   7.975  12.157   3.885 -0.0082 -0.0198 -0.1060
63479SOL    HW199405   8.030  12.216   3.937 -0.8264  0.5410  0.1332
63479SOL    HW299406   8.036  12.116   3.823  0.4521  1.7399 -0.8780
63480SOL     OW99407   5.289  10.746  10.577 -0.5195  0.3032  0.6088
63480SOL    HW199408   5.325  10.660  10.601 -0.7533  0.1150  0.2991
63480SOL    HW299409   5.339  10.771  10.499 -1.5427 -0.2938 -0.2632
63481SOL     OW99410   1.408   7.678   8.374  0.1695 -0.0419  0.5721
63481SOL    HW199411   1.348   7.609   8.343  0.4555  0.0518 -0.2146
63481SOL    HW299412   1.352   7.740   8.419 -0.4734  0.4739 -0.8822
63482SOL     OW99413   1.787   7.973  11.801  0.2124 -0.1705 -0.2758
63482SOL    HW199414   1.844   7.937  11.732 -0.5738 -0.7024 -0.6652
63482SOL    HW299415   1.703   7.987  11.757  0.1891  1.1255  0.1588
63483SOL     OW99416  10.214   3.619   8.323  0.1045 -0.2136 -0.0534
63483SOL    HW199417  10.191   3.611   8.231 -1.4959  1.2734  0.1589
63483SOL    HW299418  10.130   3.610   8.369  0.9809 -1.7858  1.3481
63484SOL     OW99419   4.749   0.389   3.772  0.1814  0.1177 -0.2980
63484SOL    HW199420   4.771   0.354   3.858 -0.3037  0.7272  0.0780
63484SOL    HW299421   4.756   0.314   3.713 -0.9410 -0.6490  0.5010
63485SOL     OW99422   7.410   7.422  10.487  0.1467 -0.1430 -0.1958
63485SOL    HW199423   7.358   7.502  10.484  1.1575  0.5073 -1.4586
63485SOL    HW299424   7.376   7.374  10.563 -0.4749  1.4728  0.5992
63486SOL     OW99425  11.004   0.939  12.338 -0.0413 -0.5245 -0.4782
63486SOL    HW199426  10.912   0.913  12.330  0.4923 -2.3952 -1.1832
63486SOL    HW299427  11.037   0.937  12.248  0.8280 -0.4677 -0.1751
63487SOL     OW99428  11.898   4.143   1.182  0.2856  0.0102 -0.1029
63487SOL    HW199429  11.876   4.057   1.146 -1.8352  0.3988  0.1379
63487SOL    HW299430  11.819   4.171   1.228  1.1669  1.8013  0.4236
63488SOL     OW99431  10.185   7.883  10.800  0.2282 -0.6484  0.4235
63488SOL    HW199432  10.120   7.864  10.732 -0.0407  1.0222  0.1692
63488SOL    HW299433  10.257   7.823  10.781 -0.2890 -0.9451 -0.6903
63489SOL     OW99434  11.474   0.046   5.124 -0.0433  0.5686  0.4724
63489SOL    HW199435  11.405   0.108   5.101 -1.4215 -0.5803  1.3250
63489SOL    HW299436  11.498   0.070   5.214  0.3167  0.6504  0.3549
63490SOL     OW99437   6.119   8.672   3.765 -0.1778  0.6518  0.0584
63490SOL    HW199438   6.147   8.701   3.852 -0.2669  0.5020  0.1354
63490SOL    HW299439   6.088   8.583   3.777  1.9274 -0.2202 -0.5136
63491SOL     OW99440  11.506   2.524  10.353  0.4430 -0.1892 -0.0458
63491SOL    HW199441  11.480   2.516  10.445 -0.2364 -1.0930 -0.3075
63491SOL    HW299442  11.519   2.618  10.341  0.3700 -0.0394  0.9296
63492SOL     OW99443  10.157   0.505   0.871  0.0058 -0.0342  0.1895
63492SOL    HW199444  10.200   0.542   0.948 -0.4558 -2.1963  1.5673
63492SOL    HW299445  10.211   0.430   0.847 -1.6163 -1.3347  0.4523
63493SOL     OW99446   1.952   6.297   2.425 -0.1167  0.7982 -0.0365
63493SOL    HW199447   2.033   6.263   2.387  0.3846  1.8570  0.0564
63493SOL    HW299448   1.948   6.258   2.512  0.1773  0.5673 -0.1239
63494SOL     OW99449   3.167   9.446   2.420 -0.2081 -0.0329  0.4513
63494SOL    HW199450   3.190   9.502   2.346 -0.4833 -1.0104 -0.4020
63494SOL    HW299451   3.150   9.360   2.381 -0.7179 -0.4856  1.6078
63495SOL     OW99452   1.255   7.649   4.375 -0.1729 -0.0109  0.5555
63495SOL    HW199453   1.270   7.558   4.353 -0.1548  0.1611 -0.1753
63495SOL    HW299454   1.180   7.647   4.435 -2.0827 -0.3330 -1.6618
63496SOL     OW99455   4.186   8.054   3.399 -0.3443  0.7452 -0.6386
63496SOL    HW199456   4.108   8.022   3.445  0.0383  0.0149 -0.4862
63496SOL    HW299457   4.208   8.136   3.445 -0.3969  0.4040  0.0154
63497SOL     OW99458   7.916   4.890  11.906  0.5868  0.2408  0.8957
63497SOL    HW199459   7.983   4.958  11.897  1.2757 -0.4531  0.6539
63497SOL    HW299460   7.929   4.855  11.994  0.6262  0.0202  0.8027
63498SOL     OW99461   0.103  11.899   5.345  0.1511  0.4948  0.4314
63498SOL    HW199462   0.153  11.957   5.288 -2.3936  1.6806 -0.7494
63498SOL    HW299463   0.162  11.826   5.362  3.0282  2.7358  0.9154
63499SOL     OW99464  11.754  11.844   8.649 -0.0002 -0.6422 -0.2443
63499SOL    HW199465  11.713  11.760   8.631  1.7754 -1.7091  0.4426
63499SOL    HW299466  11.689  11.891   8.702 -0.7011 -1.8960  0.0643
63500SOL     OW99467   6.448   3.853   3.889 -0.1785  0.3956 -0.0413
63500SOL    HW199468   6.542   3.839   3.877  0.2864  1.3658  2.0209
63500SOL    HW299469   6.434   3.840   3.983 -2.0509  0.6350 -0.2544
63501SOL     OW99470  10.938   2.822   5.955  0.1405  0.1838  0.1856
63501SOL    HW199471  10.868   2.887   5.955 -0.3707 -0.3465 -0.8091
63501SOL    HW299472  11.016   2.871   5.982 -0.4949  0.8909  0.8120
63502SOL     OW99473   1.090   5.967   0.267 -0.4157 -0.4481 -0.2645
63502SOL    HW199474   1.033   5.989   0.194  0.4295  0.0582 -0.7901
63502SOL    HW299475   1.174   5.944   0.226  1.2891  3.4438  0.6087
63503SOL     OW99476  10.555   2.406   9.005 -0.2612  0.2284 -0.3346
63503SOL    HW199477  10.569   2.501   9.002 -1.4490  0.4061 -1.4670
63503SOL    HW299478  10.502   2.388   8.927 -0.8255 -1.2317  0.3575
63504SOL     OW99479   7.629  12.519   9.974 -0.6111 -0.0809  0.9816
63504SOL    HW199480   7.685  12.453  10.015 -0.4242 -0.6739 -0.1977
63504SOL    HW299481   7.689  12.576   9.926 -1.0195 -1.2423 -1.0322
63505SOL     OW99482   6.562   3.247   2.579  0.0837 -0.2699  0.4301
63505SOL    HW199483   6.503   3.289   2.517  1.2861  0.9491  0.0561
63505SOL    HW299484   6.638   3.305   2.582  2.2377 -2.8179 -0.7808
63506SOL     OW99485   0.702   0.964   0.381 -0.2770 -0.7573 -0.0962
63506SOL    HW199486   0.679   0.945   0.473  2.4691 -0.5573  0.6994
63506SOL    HW299487   0.666   0.889   0.333 -1.3594 -1.1116  1.1704
63507SOL     OW99488   6.065  12.476   8.249  0.3454  0.1343  0.4850
63507SOL    HW199489   6.033  12.436   8.330 -2.1858  0.0400 -0.4588
63507SOL    HW299490   6.041  12.413   8.180  2.0338  0.4208 -0.4221
63508SOL     OW99491   4.501  11.264   4.788  0.2452  0.4620 -0.4739
63508SOL    HW199492   4.567  11.242   4.853  0.7230  1.1811 -0.6998
63508SOL    HW299493   4.427  11.206   4.807  0.5407  0.3796  0.4410
63509SOL     OW99494   1.861   4.413   4.984  0.4474 -0.2175 -0.2592
63509SOL    HW199495   1.783   4.392   5.035  0.5142  0.8114  0.2928
63509SOL    HW299496   1.852   4.362   4.904  0.3896 -1.9439  0.8042
63510SOL     OW99497  11.185   0.548   9.688 -0.3553  0.0668  0.2673
63510SOL    HW199498  11.257   0.504   9.642 -2.3058 -0.4674 -2.4845
63510SOL    HW299499  11.184   0.507   9.775  1.4103 -1.3061 -0.3008
63511SOL     OW99500   2.494   0.820  11.737 -0.5291  0.0675 -0.6231
63511SOL    HW199501   2.520   0.862  11.655  2.2827  1.5346  0.8680
63511SOL    HW299502   2.416   0.868  11.765  0.6705  2.1931 -0.6543
63512SOL     OW99503   2.221   2.864  12.379  0.0916 -0.0440  0.3582
63512SOL    HW199504   2.210   2.825  12.293  3.0680  0.2188 -0.2703
63512SOL    HW299505   2.308   2.835  12.408 -0.6680  0.1181  3.1631
63513SOL     OW99506   0.666   7.059   9.672 -0.2068  0.2410  0.5381
63513SOL    HW199507   0.719   6.992   9.629 -0.5059  0.2436  0.1609
63513SOL    HW299508   0.664   7.132   9.610 -0.5290  0.2979  0.6111
63514SOL     OW99509  11.133  11.880   6.762  0.2974 -0.7540  0.0560
63514SOL    HW199510  11.161  11.789   6.774 -0.1358 -0.8572  0.2690
63514SOL    HW299511  11.089  11.880   6.677 -1.4239 -1.1638  0.9070
63515SOL     OW99512  12.401   2.473   6.356  0.5830  0.0248  0.4594
63515SOL    HW199513  12.392   2.528   6.434 -0.0801 -0.1789  0.5285
63515SOL    HW299514  12.318   2.426   6.350  1.6215 -2.0212  1.1804
63516SOL     OW99515   9.978   0.608   3.371  0.7748 -0.0405 -0.2990
63516SOL    HW199516  10.042   0.605   3.299 -0.5927 -2.5157 -1.5800
63516SOL    HW299517   9.983   0.521   3.411 -0.4382  0.3646  0.8136
63517SOL     OW99518   8.781   0.108   8.247 -0.1548 -0.2381  0.6583
63517SOL    HW199519   8.868   0.137   8.221 -0.5061  0.2001 -0.0495
63517SOL    HW299520   8.721   0.171   8.207 -0.9123 -1.6771 -0.5925
63518SOL     OW99521  12.114   3.574  11.818 -0.5067  0.7519 -0.2252
63518SOL    HW199522  12.207   3.588  11.799 -0.2403 -1.7378 -1.1796
63518SOL    HW299523  12.098   3.483  11.793 -2.7814  0.5283  1.6438
63519SOL     OW99524   7.066  12.510   6.763 -0.0919  0.0326  0.5170
63519SOL    HW199525   7.007  12.573   6.804  0.7009 -1.3391  4.2138
63519SOL    HW299526   7.009  12.438   6.736 -0.5215  0.2958  0.7094
63520SOL     OW99527   3.182   2.115   3.760  0.0915 -0.1081 -0.5467
63520SOL    HW199528   3.247   2.132   3.828  0.2345 -1.3568 -0.3536
63520SOL    HW299529   3.127   2.046   3.797 -2.0231  1.6122 -0.2608
63521SOL     OW99530   2.210   4.794   4.896  0.1402  0.4640  1.2376
63521SOL    HW199531   2.196   4.783   4.802  0.0353  1.3063  1.1411
63521SOL    HW299532   2.154   4.729   4.937  0.5179 -0.2014  0.7066
63522SOL     OW99533   7.126  11.394   8.150 -0.2914  0.3290  0.5213
63522SOL    HW199534   7.054  11.359   8.098  0.9334 -1.4802 -0.0385
63522SOL    HW299535   7.095  11.391   8.241 -0.6102 -1.2854  0.3756
63523SOL     OW99536   2.299   5.806   1.435 -0.6185 -0.8182 -0.1402
63523SOL    HW199537   2.313   5.716   1.464  0.3644 -0.7979 -0.5166
63523SOL    HW299538   2.380   5.851   1.457 -2.0987  0.7159  2.7092
63524SOL     OW99539  10.614   1.417   7.006 -0.3353 -0.0407  0.3183
63524SOL    HW199540  10.687   1.357   6.992 -1.1273 -1.1561  0.8135
63524SOL    HW299541  10.655   1.503   7.013  0.7756 -0.4210 -1.0513
63525SOL     OW99542  11.194   1.985  10.328  0.0663  0.0779  0.0037
63525SOL    HW199543  11.215   2.075  10.307 -1.3056  0.3832 -0.1845
63525SOL    HW299544  11.240   1.968  10.410  0.6133  0.8271 -0.1374
63526SOL     OW99545   9.380  10.257  10.399 -0.2499  0.6801  0.4285
63526SOL    HW199546   9.409  10.181  10.450  1.2483  0.1243 -1.1525
63526SOL    HW299547   9.458  10.313  10.394 -0.7520  1.3420 -0.1463
63527SOL     OW99548   8.627   4.697   0.659 -0.1649 -0.7973  0.1252
63527SOL    HW199549   8.547   4.647   0.644 -2.1275  1.9737  0.8098
63527SOL    HW299550   8.605   4.760   0.728  2.8255 -0.3562  0.8506
63528SOL     OW99551   0.751   9.200   3.226  0.3280 -0.2217  0.1064
63528SOL    HW199552   0.694   9.264   3.270  1.1070  0.3183  0.3484
63528SOL    HW299553   0.731   9.117   3.269 -0.4666 -0.0973  0.0044
63529SOL     OW99554   5.310   0.921   4.640 -0.0608 -0.0414  0.1721
63529SOL    HW199555   5.214   0.925   4.643 -0.4131 -1.8402 -3.4180
63529SOL    HW299556   5.337   1.009   4.618 -1.0203  0.1575 -0.2769
63530SOL     OW99557   0.883   2.120   8.715 -0.5631 -0.0900 -0.3197
63530SOL    HW199558   0.910   2.034   8.745 -0.3406  0.7855  2.1748
63530SOL    HW299559   0.917   2.126   8.626 -0.0707 -2.3203 -0.3389
63531SOL     OW99560   5.656   5.416   3.732  0.3297  0.4740  0.0359
63531SOL    HW199561   5.587   5.466   3.776 -0.3768 -2.0106  1.9587
63531SOL    HW299562   5.611   5.341   3.693  1.7700 -0.5818  0.3219
63532SOL     OW99563   4.624  10.023  10.465  0.1130 -0.2642 -0.0593
63532SOL    HW199564   4.663  10.094  10.415 -0.2420 -0.6257 -0.8592
63532SOL    HW299565   4.656   9.943  10.424  0.9134 -0.5906  1.1447
63533SOL     OW99566   1.764  11.572   0.599 -0.2694  0.1417 -0.0020
63533SOL    HW199567   1.818  11.649   0.616 -0.1582  0.1431 -0.3563
63533SOL    HW299568   1.678  11.595   0.634 -0.7561  1.1633 -1.7622
63534SOL     OW99569   8.923   6.111   8.005  0.1394  0.2856  0.2219
63534SOL    HW199570   8.875   6.173   8.059 -1.8187 -0.4693 -0.5632
63534SOL    HW299571   8.856   6.050   7.972  1.3029  0.3368 -2.5421
63535SOL     OW99572  12.544   1.345   5.521  0.3283  0.2481  0.1375
63535SOL    HW199573  12.611   1.405   5.554 -1.2467  0.5961  3.0353
63535SOL    HW299574  12.566   1.260   5.560 -0.2133  0.0791  0.0886
63536SOL     OW99575   9.932   4.603   6.156  0.4786  0.3184 -0.7477
63536SOL    HW199576   9.955   4.687   6.195 -1.8393  1.5333 -1.7816
63536SOL    HW299577  10.004   4.584   6.096  1.4054  1.1735  0.0717
63537SOL     OW99578   9.437   3.381   4.822  0.3566  0.0586 -0.6785
63537SOL    HW199579   9.408   3.451   4.880  0.7177 -0.1056 -0.2901
63537SOL    HW299580   9.451   3.306   4.880 -0.5423 -0.5043 -1.1570
63538SOL     OW99581   1.066  10.281   0.687 -0.5340 -0.3480 -0.5214
63538SOL    HW199582   1.111  10.271   0.603  1.2421 -1.1161  0.4745
63538SOL    HW299583   0.990  10.336   0.667  0.2370  0.0789 -2.4908
63539SOL     OW99584   6.279   0.472   6.135  0.2699  0.1847  0.2885
63539SOL    HW199585   6.333   0.393   6.134 -0.1251 -0.1811  2.5226
63539SOL    HW299586   6.338   0.541   6.166  0.3260  0.5688 -0.6255
63540SOL     OW99587  10.025   7.833  12.189 -0.5329  0.3803 -0.3922
63540SOL    HW199588  10.000   7.762  12.248  0.8074  0.2444  0.0471
63540SOL    HW299589   9.974   7.817  12.109  0.8125 -1.9990 -0.8872
63541SOL     OW99590   8.884   6.381   8.980 -0.5873 -0.2195 -0.5801
63541SOL    HW199591   8.813   6.327   8.947 -0.8002 -0.9286  0.9457
63541SOL    HW299592   8.938   6.321   9.031 -0.0548  0.7186 -0.0059
63542SOL     OW99593   4.840  10.483   4.980 -0.3290 -0.6882 -0.4581
63542SOL    HW199594   4.751  10.456   4.954  0.0562 -0.4755 -2.1333
63542SOL    HW299595   4.830  10.572   5.012 -0.6079 -0.2631 -1.6490
63543SOL     OW99596  11.308   2.919   6.005 -0.0470  0.0117 -0.3635
63543SOL    HW199597  11.234   2.979   6.011  1.1505  1.6207 -1.1046
63543SOL    HW299598  11.384   2.975   5.988  1.2558 -1.6428 -0.2937
63544SOL     OW99599   4.515   5.889   8.049  0.1356 -0.6066  0.1538
63544SOL    HW199600   4.434   5.936   8.068  0.9370  0.4630  1.0397
63544SOL    HW299601   4.576   5.957   8.018  1.1055 -1.1680  0.7840
63545SOL     OW99602   5.261   9.612  12.398  0.2972  0.0322  0.6897
63545SOL    HW199603   5.253   9.625  12.303 -0.6148 -0.1468  0.7341
63545SOL    HW299604   5.323   9.679  12.426  0.2696  0.3483  0.0179
63546SOL     OW99605   0.577   3.922  11.830 -0.4655 -0.7102 -0.0595
63546SOL    HW199606   0.656   3.900  11.880  0.0136  0.3372 -0.3149
63546SOL    HW299607   0.525   3.842  11.830 -0.5559 -0.7339  2.2544
63547SOL     OW99608   7.606   5.333   4.855 -0.1664  1.6744  0.7117
63547SOL    HW199609   7.523   5.298   4.887 -0.0560  1.1624  0.4555
63547SOL    HW299610   7.581   5.398   4.789 -0.3707  1.9227  1.0320
63548SOL     OW99611   5.902  11.004   0.558 -0.1964 -0.1379 -0.3716
63548SOL    HW199612   5.915  10.913   0.582 -0.4626 -0.2846 -0.7690
63548SOL    HW299613   5.843  11.039   0.625 -0.9502 -0.5477 -0.8130
63549SOL     OW99614  10.950   8.790   1.250 -0.1870 -0.1745 -0.3518
63549SOL    HW199615  11.024   8.768   1.306 -0.3659  0.4732  0.1564
63549SOL    HW299616  10.946   8.719   1.186  1.2043  0.0728 -0.7298
63550SOL     OW99617   4.590   0.067   0.950 -0.0259 -0.1808 -0.2825
63550SOL    HW199618   4.554   0.106   0.870  0.8299 -0.6263 -0.8924
63550SOL    HW299619   4.624   0.141   0.999 -0.3660  0.0741 -0.4231
63551SOL     OW99620   5.206   9.833   8.428 -0.3804 -0.5116  0.3292
63551SOL    HW199621   5.217   9.859   8.337 -0.1147 -0.9771  0.2238
63551SOL    HW299622   5.111   9.824   8.439 -0.4688  0.3041  0.3240
63552SOL     OW99623   6.395   6.107   4.220 -1.0126  0.0542 -0.4286
63552SOL    HW199624   6.395   6.170   4.293 -0.2612 -1.4641  0.9523
63552SOL    HW299625   6.451   6.148   4.154  0.4618  0.3354  0.9245
63553SOL     OW99626  12.501   3.840   6.838 -0.3124  0.0175 -0.1977
63553SOL    HW199627  12.454   3.769   6.794  0.5277 -1.6199  1.4242
63553SOL    HW299628  12.440   3.914   6.835 -0.8517 -0.4143 -2.7660
63554SOL     OW99629   2.650   3.757   0.191 -0.1801  0.1991  0.4580
63554SOL    HW199630   2.581   3.820   0.208 -2.6245 -1.9384 -0.8023
63554SOL    HW299631   2.688   3.784   0.107  0.2895  1.1466  0.9583
63555SOL     OW99632   2.154   6.113   4.179  0.6750  0.9696 -0.4559
63555SOL    HW199633   2.223   6.168   4.215  0.7890  0.3908  0.2268
63555SOL    HW299634   2.083   6.117   4.243  0.8677 -0.0467 -0.1630
63556SOL     OW99635   2.373   6.462   9.330 -0.2060  0.0505  0.1148
63556SOL    HW199636   2.293   6.515   9.320  0.9356  1.9919  0.8659
63556SOL    HW299637   2.349   6.395   9.394 -1.6042 -0.2314 -0.6437
63557SOL     OW99638   9.369   9.098   5.718 -0.1180 -0.3027 -0.0029
63557SOL    HW199639   9.463   9.101   5.739 -0.0038 -0.8085 -0.4270
63557SOL    HW299640   9.361   9.146   5.636 -0.3307  0.2650  0.3381
63558SOL     OW99641   2.508  11.734  11.337  0.0446 -0.2565 -0.0282
63558SOL    HW199642   2.418  11.703  11.333  0.0888 -0.6955  1.5414
63558SOL    HW299643   2.506  11.807  11.399  0.3271  1.5392 -2.0362
63559SOL     OW99644   9.825  12.403  10.567 -0.2212 -0.3861 -0.1432
63559SOL    HW199645   9.785  12.423  10.482  0.7802  1.5178 -0.2436
63559SOL    HW299646   9.752  12.407  10.629 -0.8059 -0.8438 -0.7815
63560SOL     OW99647  12.442   5.124   8.251 -0.0033  0.1989  0.1007
63560SOL    HW199648  12.382   5.066   8.298  0.0206  0.3871  0.3625
63560SOL    HW299649  12.523   5.075   8.245 -0.6859 -0.7985 -1.8149
63561SOL     OW99650   6.580   7.360  10.414 -0.1657  0.1688  0.0321
63561SOL    HW199651   6.669   7.329  10.433 -0.7321 -0.1116  2.6268
63561SOL    HW299652   6.576   7.446  10.456 -2.2989 -1.5600  3.9660
63562SOL     OW99653   9.848  12.550   5.183 -0.2768  0.0841  0.0946
63562SOL    HW199654   9.909  12.554   5.256 -0.1505 -2.6368  0.2589
63562SOL    HW299655   9.774  12.604   5.209  0.3129  0.1686  1.6722
63563SOL     OW99656   4.663   5.340   8.133 -0.3557 -0.4573  0.9725
63563SOL    HW199657   4.689   5.411   8.191  1.7701  0.0111 -0.4479
63563SOL    HW299658   4.575   5.365   8.104  0.4777  1.8905  0.1954
63564SOL     OW99659   5.285  10.066   4.594  0.0866  0.5232  0.2117
63564SOL    HW199660   5.265  10.005   4.665  0.2668  1.1535  0.8041
63564SOL    HW299661   5.238  10.146   4.616 -1.2394  0.2050 -1.2373
63565SOL     OW99662   2.561  11.930   1.279 -0.6415  0.7072 -0.0862
63565SOL    HW199663   2.647  11.912   1.240 -1.2434 -0.3833 -0.9486
63565SOL    HW299664   2.575  11.920   1.373  0.1450  0.3785 -0.2307
63566SOL     OW99665   7.710   9.464   0.321  0.1896  0.0329 -0.7516
63566SOL    HW199666   7.625   9.466   0.366  0.6968 -0.9354  0.3178
63566SOL    HW299667   7.690   9.487   0.231 -1.2679 -0.4363 -0.5798
63567SOL     OW99668  10.616   9.570   5.027 -0.1476  0.1408 -0.1064
63567SOL    HW199669  10.701   9.559   4.984 -0.4544 -0.6810 -0.5396
63567SOL    HW299670  10.556   9.593   4.956 -0.2863  0.7223  0.1973
63568SOL     OW99671  11.619   1.659   3.798 -0.7087  0.7873  0.4296
63568SOL    HW199672  11.662   1.657   3.883  1.0115  0.6878 -0.4144
63568SOL    HW299673  11.680   1.706   3.741 -1.4763  0.1779 -0.9433
63569SOL     OW99674   5.994   9.623   7.195  0.2752 -0.4991 -0.4855
63569SOL    HW199675   6.072   9.607   7.142  0.0736  0.0635 -0.9615
63569SOL    HW299676   5.998   9.716   7.216 -0.2377 -0.4762 -0.4680
63570SOL     OW99677   3.886   3.256   0.649  0.0797 -0.0759  0.1128
63570SOL    HW199678   3.927   3.172   0.627  0.4748  0.3773 -0.9556
63570SOL    HW299679   3.951   3.321   0.623 -0.3280  0.5799  0.6973
63571SOL     OW99680   7.673   9.650   3.948  0.7743 -0.3598 -0.2842
63571SOL    HW199681   7.769   9.655   3.951  0.7847  1.1791 -1.5684
63571SOL    HW299682   7.655   9.605   3.865  0.4319  2.1022 -1.6501
63572SOL     OW99683  11.943  11.400   5.069  0.4154  0.1057 -0.2246
63572SOL    HW199684  11.919  11.417   4.978  1.6880  2.2650 -0.2361
63572SOL    HW299685  12.025  11.448   5.082  0.5393 -0.5584  1.9299
63573SOL     OW99686   2.211   2.604   3.115  0.2412 -0.2241 -0.2783
63573SOL    HW199687   2.271   2.623   3.043  1.2732  1.1995  0.8937
63573SOL    HW299688   2.262   2.623   3.194 -1.4499  0.1134  0.7826
63574SOL     OW99689   7.117   9.212  11.046  0.0515 -0.0988 -0.2146
63574SOL    HW199690   7.114   9.164  11.129 -0.0687  1.2370  0.5822
63574SOL    HW299691   7.038   9.265  11.047 -1.3508 -1.9894 -2.4308
63575SOL     OW99692  10.668   1.015   0.273  0.0512 -0.0229  0.2926
63575SOL    HW199693  10.676   0.935   0.220 -1.2494 -0.7584  1.1542
63575SOL    HW299694  10.726   0.999   0.348 -0.7758 -0.5045  0.8453
63576SOL     OW99695  10.759   7.605   9.786 -0.8047  0.0220 -0.2309
63576SOL    HW199696  10.765   7.548   9.710  0.5909 -1.3565  0.8445
63576SOL    HW299697  10.764   7.694   9.750 -2.2896 -0.4973 -1.8757
63577SOL     OW99698   8.759   5.069   3.128 -0.4822 -0.0866 -0.2113
63577SOL    HW199699   8.812   5.136   3.172 -0.0481 -0.0317 -0.8057
63577SOL    HW299700   8.820   5.027   3.067 -0.7336 -1.0816  0.2144
63578SOL     OW99701   3.127  12.477   1.688  0.4368 -0.0279 -0.3615
63578SOL    HW199702   3.180  12.467   1.609  2.1459  1.6676  0.4974
63578SOL    HW299703   3.109  12.571   1.694 -1.2412 -0.3562  0.3124
63579SOL     OW99704   4.165   2.327   1.271  0.3181  0.1494  0.3359
63579SOL    HW199705   4.096   2.291   1.326  1.7798  0.4109  2.5011
63579SOL    HW299706   4.156   2.422   1.281  0.4612  0.2014 -0.0386
63580SOL     OW99707   4.763   0.626   7.076 -0.2151  0.2410 -0.0919
63580SOL    HW199708   4.803   0.680   7.008 -0.6506 -1.1387 -1.4861
63580SOL    HW299709   4.774   0.536   7.046 -1.5442 -0.3446  1.0538
63581SOL     OW99710  12.578   7.890   7.721 -0.4886 -0.3542 -0.8374
63581SOL    HW199711  12.534   7.879   7.636  1.0619  0.0800 -1.7450
63581SOL    HW299712  12.631   7.811   7.730  1.1126  0.5917 -1.4221
63582SOL     OW99713   6.808   4.534   8.188  0.7045  0.0765 -0.5610
63582SOL    HW199714   6.897   4.563   8.207  1.0873  0.1395 -2.2884
63582SOL    HW299715   6.780   4.589   8.115 -1.2911  0.9901  0.7964
63583SOL     OW99716   9.840   0.566   6.363  0.3684  0.2770  0.1069
63583SOL    HW199717   9.840   0.561   6.458 -0.6618  0.0702  0.1103
63583SOL    HW299718   9.931   0.552   6.338  0.3568 -1.7669  0.9773
63584SOL     OW99719   0.851   2.364  10.704  0.2000 -0.5052 -0.2965
63584SOL    HW199720   0.759   2.388  10.715  0.2782 -0.6351  0.8448
63584SOL    HW299721   0.878   2.405  10.622 -0.0682  2.1506  0.8382
63585SOL     OW99722   4.013   9.182   6.917 -0.0956 -0.2402  0.0233
63585SOL    HW199723   4.095   9.218   6.882  1.5945 -0.2906  3.5298
63585SOL    HW299724   3.963   9.259   6.944  0.8815 -0.2680  2.0493
63586SOL     OW99725   4.673   8.144  11.333 -0.1098  0.0970  0.0067
63586SOL    HW199726   4.699   8.236  11.321 -2.8384  1.1615  1.3882
63586SOL    HW299727   4.616   8.126  11.259  0.7356 -0.6734 -0.4799
63587SOL     OW99728   0.125   0.886   9.046 -0.0779  0.0073  0.3611
63587SOL    HW199729   0.066   0.929   9.108 -2.1730 -1.5686 -0.3902
63587SOL    HW299730   0.112   0.932   8.963 -0.4609 -0.4859  0.1397
63588SOL     OW99731   8.349  11.049   5.166 -0.0556  0.2238  0.1575
63588SOL    HW199732   8.380  11.007   5.246 -1.9884 -0.0781  0.8083
63588SOL    HW299733   8.356  11.143   5.183  0.3458  0.1632  0.3336
63589SOL     OW99734   1.882   4.426   9.403  0.3234 -0.7836  0.0837
63589SOL    HW199735   1.802   4.457   9.359  2.1272  2.4758 -1.2557
63589SOL    HW299736   1.866   4.444   9.496  0.4647  2.7203 -0.4355
63590SOL     OW99737   1.006  12.299   4.042 -0.0091  0.3300  0.0061
63590SOL    HW199738   1.068  12.322   4.111  0.3965 -1.8806  0.4472
63590SOL    HW299739   1.059  12.295   3.963  0.1839 -0.3176  0.1613
63591SOL     OW99740  11.538  10.774   1.852  0.2680  0.1706 -0.0447
63591SOL    HW199741  11.487  10.727   1.918 -0.3704  2.1716  0.9670
63591SOL    HW299742  11.607  10.817   1.902 -0.4574  2.0468 -0.5768
63592SOL     OW99743   2.968   7.407   7.978  0.3946 -0.1185 -0.2286
63592SOL    HW199744   2.984   7.313   7.985 -0.4655 -0.3666 -1.2113
63592SOL    HW299745   3.054   7.445   7.960  1.0791 -0.4623  2.0129
63593SOL     OW99746   1.226  10.933   4.948 -0.6138  0.7557 -0.1041
63593SOL    HW199747   1.231  10.984   5.029  0.3598  0.3193  0.1329
63593SOL    HW299748   1.215  10.843   4.977  0.0754  0.5575 -0.4382
63594SOL     OW99749   2.059   2.400  11.899 -0.2632  0.6258  0.2042
63594SOL    HW199750   2.154   2.389  11.900 -0.0896  1.9394 -0.0308
63594SOL    HW299751   2.030   2.363  11.982  0.4281  0.0671  0.2130
63595SOL     OW99752   8.424  10.140   0.406  0.1680  0.1102  0.1951
63595SOL    HW199753   8.395  10.231   0.412  2.0174  0.6619  1.7355
63595SOL    HW299754   8.437  10.113   0.497  0.3471 -1.4774 -0.2701
63596SOL     OW99755   8.603   3.182  12.323 -0.0117 -0.0067  0.3407
63596SOL    HW199756   8.522   3.154  12.365 -0.5607 -2.3385 -1.9778
63596SOL    HW299757   8.589   3.273  12.299 -1.8182 -0.2791  0.2762
63597SOL     OW99758   8.168   7.564   4.057 -0.7773 -0.1469 -0.4029
63597SOL    HW199759   8.136   7.533   3.972 -0.4125 -0.9356 -0.2630
63597SOL    HW299760   8.121   7.646   4.071  0.7498  1.1450 -2.3549
63598SOL     OW99761   1.163   9.725   6.255  0.1425 -0.1148 -0.3685
63598SOL    HW199762   1.226   9.699   6.189 -0.5926 -2.1468 -0.3254
63598SOL    HW299763   1.086   9.671   6.238 -1.2747  1.6290  0.1504
63599SOL     OW99764   2.068   4.980  10.910  0.4989  0.1016 -0.0008
63599SOL    HW199765   2.046   5.033  10.834  0.9349  0.7634  0.3260
63599SOL    HW299766   2.126   4.911  10.875 -0.3144 -0.3515 -0.4764
63600SOL     OW99767   8.346   5.526   0.102 -0.0355 -0.2029  0.2506
63600SOL    HW199768   8.316   5.600   0.050 -0.6048 -1.1741 -0.8716
63600SOL    HW299769   8.281   5.517   0.172  0.2336  0.5616  0.6057
63601SOL     OW99770   5.283   7.861   4.803 -0.3309 -0.1966  0.1616
63601SOL    HW199771   5.223   7.800   4.845  0.4959 -1.3256 -0.2451
63601SOL    HW299772   5.231   7.902   4.734 -0.9972 -0.1730  0.6657
63602SOL     OW99773  10.179   7.157   1.641 -0.4817 -0.1665 -0.2033
63602SOL    HW199774  10.174   7.102   1.720 -0.0299 -0.3908 -0.3279
63602SOL    HW299775  10.122   7.113   1.578  0.0517 -0.6189 -0.3754
63603SOL     OW99776   5.921   6.133   0.210 -0.6291  0.1550  0.0025
63603SOL    HW199777   5.872   6.094   0.138 -0.9040 -0.1118  0.3340
63603SOL    HW299778   6.013   6.114   0.189 -0.7351 -0.3295 -0.0367
63604SOL     OW99779  11.346   6.933   9.998 -0.2206 -0.1807 -0.1723
63604SOL    HW199780  11.294   6.954   9.920 -1.7771  0.5027  0.9959
63604SOL    HW299781  11.281   6.912  10.065  1.0856 -0.7512  0.9540
63605SOL     OW99782  12.049   8.256   4.433 -0.5100  0.4963  1.1019
63605SOL    HW199783  12.096   8.214   4.361  1.7317  2.5471  1.2388
63605SOL    HW299784  11.979   8.307   4.391 -0.1666  0.4784  0.5072
63606SOL     OW99785  10.763   4.643   2.304  0.3318  0.5310 -0.7078
63606SOL    HW199786  10.701   4.715   2.307 -0.6018 -0.2705 -0.3396
63606SOL    HW299787  10.835   4.676   2.250 -0.7162  1.2527 -1.7329
63607SOL     OW99788   2.899   2.199   6.056 -0.2284  0.1438 -0.9226
63607SOL    HW199789   2.955   2.135   6.099 -1.3265 -1.3150 -1.5629
63607SOL    HW299790   2.929   2.284   6.088  0.8521 -0.7252  0.4542
63608SOL     OW99791   5.690   7.325   1.864  0.9990  0.2203 -0.3937
63608SOL    HW199792   5.639   7.388   1.914 -0.0917 -0.5660 -0.4753
63608SOL    HW299793   5.767   7.374   1.835  0.5600  1.2901  0.1804
63609SOL     OW99794   3.069  10.865   4.308  0.5236 -0.9611 -0.0020
63609SOL    HW199795   3.088  10.958   4.301  1.5408 -1.1669 -0.2836
63609SOL    HW299796   3.049  10.837   4.219 -0.1087 -0.9479  0.1348
63610SOL     OW99797   5.749   2.401   5.765 -0.7160  0.4024  0.4375
63610SOL    HW199798   5.687   2.474   5.763  0.0408  1.0609 -1.1408
63610SOL    HW299799   5.698   2.327   5.798 -1.9950  1.1931  0.3271
63611SOL     OW99800   4.104   8.507   8.725  0.2249 -0.4873 -0.1121
63611SOL    HW199801   4.137   8.598   8.726 -2.1340  0.4485 -0.9661
63611SOL    HW299802   4.023   8.511   8.776 -0.5715 -1.8480 -1.2267
63612SOL     OW99803   0.252   0.689   3.674 -0.1844 -0.1358 -0.0469
63612SOL    HW199804   0.309   0.632   3.623 -0.7804 -0.8878  0.1042
63612SOL    HW299805   0.192   0.727   3.610 -0.9908 -1.1496  0.0744
63613SOL     OW99806   1.247   3.317   0.561 -0.0772 -0.7635  0.0713
63613SOL    HW199807   1.163   3.362   0.554  1.0244  1.2741 -0.8456
63613SOL    HW299808   1.308   3.384   0.593  1.6720 -1.5227 -1.5061
63614SOL     OW99809   5.261   2.751   6.041 -1.1868  0.6247 -0.1896
63614SOL    HW199810   5.298   2.813   6.104  0.4970  0.2658 -0.7679
63614SOL    HW299811   5.292   2.666   6.070  0.9631  0.5751 -2.2835
63615SOL     OW99812   3.269   1.984   7.263  0.4186 -0.1598 -0.1340
63615SOL    HW199813   3.209   1.942   7.202  0.5896 -0.3733 -0.1577
63615SOL    HW299814   3.225   2.066   7.288  1.0911  0.7520 -1.8218
63616SOL     OW99815   5.885   0.458  10.303  0.7561 -0.1426 -0.1452
63616SOL    HW199816   5.957   0.399  10.326  0.5953  0.1744  1.2525
63616SOL    HW299817   5.924   0.545  10.302  0.3602  0.0666  0.9188
63617SOL     OW99818   3.555   6.303   8.971 -0.2422  0.4202  0.4850
63617SOL    HW199819   3.575   6.209   8.974 -0.4693  0.3967  1.3715
63617SOL    HW299820   3.566   6.326   8.879 -0.6529 -0.5822  0.1665
63618SOL     OW99821   0.522   8.150   5.264  0.4365 -0.1482 -0.6499
63618SOL    HW199822   0.451   8.088   5.247  0.2644 -0.3965  0.8844
63618SOL    HW299823   0.491   8.233   5.228 -1.4733  0.2202  1.6527
63619SOL     OW99824   3.186   4.394   6.907 -0.1466 -0.0682 -0.3144
63619SOL    HW199825   3.249   4.350   6.965  2.6444  1.8648 -1.6405
63619SOL    HW299826   3.165   4.329   6.841 -1.0001 -1.3198  1.1222
63620SOL     OW99827   6.596   0.018   7.144 -0.0933  0.2251 -0.2334
63620SOL    HW199828   6.564  -0.024   7.064 -1.7535 -0.7754  0.9055
63620SOL    HW299829   6.648  -0.050   7.188 -0.9739  0.0424  0.5564
63621SOL     OW99830   8.999   8.911   1.747  0.1068 -0.9524 -0.3795
63621SOL    HW199831   9.003   8.952   1.660 -0.3064  1.8815  0.8300
63621SOL    HW299832   9.088   8.881   1.763  0.9591  1.2271 -0.6399
63622SOL     OW99833   0.098  12.520  12.363 -0.4133 -0.8949  0.5299
63622SOL    HW199834   0.064  12.589  12.306  1.7584 -1.3531 -1.4271
63622SOL    HW299835   0.150  12.567  12.429  0.3133 -0.5814 -0.2535
63623SOL     OW99836   0.467   1.658  11.669  0.1492 -0.1288 -0.1620
63623SOL    HW199837   0.504   1.643  11.582  1.0346  1.5777 -0.1217
63623SOL    HW299838   0.514   1.597  11.726  1.3985  0.5116 -0.4751
63624SOL     OW99839  12.404   2.606  10.579  0.5280  0.1609 -0.0261
63624SOL    HW199840  12.484   2.658  10.589 -0.8331  2.5309 -0.5585
63624SOL    HW299841  12.376   2.622  10.489 -0.7654 -0.2505  0.2801
63625SOL     OW99842   4.140  10.540  11.015  0.1032  0.0544 -0.1804
63625SOL    HW199843   4.118  10.460  10.966 -1.4047 -0.7554  1.7089
63625SOL    HW299844   4.206  10.512  11.078  0.2553  0.5109 -0.1371
63626SOL     OW99845  11.307   1.932   9.613  0.1175  0.1615 -0.3275
63626SOL    HW199846  11.242   1.973   9.555  0.0588  0.6322  0.0621
63626SOL    HW299847  11.358   2.005   9.646  0.6852 -0.1864 -0.4274
63627SOL     OW99848   5.810   5.752   6.334  0.2113  0.3962 -0.0880
63627SOL    HW199849   5.843   5.718   6.252 -0.9532 -0.4975 -0.2072
63627SOL    HW299850   5.724   5.788   6.313 -0.8094 -1.2817  1.0022
63628SOL     OW99851   7.431   0.860   2.972  0.1639  0.7845 -0.2304
63628SOL    HW199852   7.385   0.903   3.044  0.1891 -0.8931  0.8421
63628SOL    HW299853   7.433   0.767   2.996  3.1459  0.5942 -0.7225
63629SOL     OW99854   4.409  12.441  11.124  0.2578  0.8426  0.2691
63629SOL    HW199855   4.344  12.381  11.162  1.2147  0.4663  1.3523
63629SOL    HW299856   4.373  12.462  11.038 -0.9739  0.1127  0.5680
63630SOL     OW99857   5.200   7.072   1.859 -0.0592  0.4525 -0.1377
63630SOL    HW199858   5.167   7.043   1.944  0.0880 -0.7347 -0.4621
63630SOL    HW299859   5.192   7.167   1.861  0.2696  0.4711  1.3397
63631SOL     OW99860  11.318   0.878   4.145 -0.1904 -0.8234 -0.0494
63631SOL    HW199861  11.351   0.851   4.059 -0.4550  0.2785 -0.5192
63631SOL    HW299862  11.240   0.930   4.126 -0.9867 -1.6108  0.9397
63632SOL     OW99863   1.817   1.503   5.658  0.4744 -0.0779  0.4035
63632SOL    HW199864   1.761   1.554   5.600  0.7572  0.1484  0.3290
63632SOL    HW299865   1.902   1.499   5.614  0.5194 -0.4222  0.5143
63633SOL     OW99866   8.920   4.320  12.289 -0.1564 -0.8201 -0.3967
63633SOL    HW199867   8.990   4.314  12.354 -1.5781 -2.4859  1.0731
63633SOL    HW299868   8.940   4.250  12.227  0.0852 -0.5495 -0.6294
63634SOL     OW99869  11.003  11.118  10.679  0.3661 -0.1492 -0.7032
63634SOL    HW199870  10.935  11.061  10.643  0.7120 -0.8294 -0.3043
63634SOL    HW299871  11.061  11.059  10.728  0.7905  0.5307 -0.3620
63635SOL     OW99872   8.965   8.489   0.860  0.1269  0.2997 -0.0226
63635SOL    HW199873   8.953   8.583   0.876  4.4898  1.1793 -0.6619
63635SOL    HW299874   8.986   8.483   0.767  1.4928 -1.0562  0.3443
63636SOL     OW99875   5.858   1.478   2.346 -0.3275  0.3572  0.4675
63636SOL    HW199876   5.777   1.448   2.387  0.4814 -0.8437  1.2511
63636SOL    HW299877   5.840   1.568   2.320 -1.8472  0.1708  0.7888
63637SOL     OW99878   0.168   1.844   7.222  0.2326  0.2894 -0.1864
63637SOL    HW199879   0.139   1.856   7.312 -0.0351 -0.8457 -0.0990
63637SOL    HW299880   0.120   1.911   7.172 -1.0871 -0.2849  0.2496
63638SOL     OW99881  10.932   3.640   5.319 -0.3966 -0.4553  0.3575
63638SOL    HW199882  10.892   3.628   5.232 -1.2906  0.6330  0.5972
63638SOL    HW299883  11.007   3.698   5.303 -2.6678  2.9052  0.7111
63639SOL     OW99884   7.815   1.023  12.453 -0.6188  0.3475 -0.0327
63639SOL    HW199885   7.876   0.986  12.517 -0.6824 -0.0225 -0.1850
63639SOL    HW299886   7.830   0.972  12.373 -1.8480 -0.4417  0.2116
63640SOL     OW99887   5.552   3.812   3.035  0.2575 -0.1045  0.6380
63640SOL    HW199888   5.555   3.758   3.114  1.2808 -0.1142  0.6061
63640SOL    HW299889   5.502   3.760   2.972  2.5213 -1.7703  0.0920
63641SOL     OW99890  12.500   4.545   6.609  0.3752  0.3195  0.2761
63641SOL    HW199891  12.515   4.558   6.702  1.3536 -1.1128  0.3392
63641SOL    HW299892  12.582   4.572   6.567 -0.0424  0.9107 -0.1819
63642SOL     OW99893   4.339   9.984  10.390  0.6519 -0.2876 -0.4836
63642SOL    HW199894   4.376   9.939  10.314 -0.2387 -2.0343  0.0792
63642SOL    HW299895   4.415  10.025  10.432  1.7060 -2.1361 -0.4530
63643SOL     OW99896  11.099  11.977   7.828 -0.1784  0.1536  0.4101
63643SOL    HW199897  11.122  11.997   7.737  0.1739 -0.3319  0.3897
63643SOL    HW299898  11.087  11.882   7.829  2.0098 -0.1684  1.3224
63644SOL     OW99899   1.301   9.308   7.645 -0.1543 -0.4260  0.0695
63644SOL    HW199900   1.237   9.242   7.670  0.3196 -1.1859 -0.6779
63644SOL    HW299901   1.257   9.362   7.580  0.0446 -1.1416 -0.6803
63645SOL     OW99902   9.193   3.191   4.440 -0.0939 -0.5237 -0.0495
63645SOL    HW199903   9.198   3.162   4.531  0.5106  1.9169  0.7875
63645SOL    HW299904   9.120   3.252   4.438 -0.3079 -0.7966 -1.2901
63646SOL     OW99905   0.495   1.851   5.564  0.0966 -0.3515  0.2935
63646SOL    HW199906   0.496   1.756   5.573 -0.4811 -0.4369 -0.4321
63646SOL    HW299907   0.463   1.866   5.475  1.4820  0.5005 -0.0772
63647SOL     OW99908   0.055   0.094   1.997 -0.2690  0.2243  0.0069
63647SOL    HW199909   0.105   0.166   2.036 -1.5818  0.9721  0.4068
63647SOL    HW299910  -0.008   0.071   2.065 -2.2031  1.1172 -1.3854
63648SOL     OW99911   7.540   5.064   4.599  0.2190 -0.0725  0.7935
63648SOL    HW199912   7.529   4.991   4.538 -1.3515  0.5253  0.2885
63648SOL    HW299913   7.460   5.116   4.588  0.1749  0.4099  2.9040
63649SOL     OW99914  11.536   5.187   7.258  0.3907 -0.3057  0.8465
63649SOL    HW199915  11.461   5.144   7.217  0.1954 -0.6229  1.5169
63649SOL    HW299916  11.605   5.121   7.257  0.4658 -0.2258  0.7882
63650SOL     OW99917   4.680   1.967   6.117  0.4279 -0.2199 -0.8749
63650SOL    HW199918   4.647   2.057   6.124 -0.4050 -0.2402 -3.5236
63650SOL    HW299919   4.771   1.977   6.087  0.4007 -0.2759 -0.9749
63651SOL     OW99920  10.924   0.817  11.704 -0.5985 -0.4364  0.0835
63651SOL    HW199921  10.992   0.805  11.769  0.2166  0.3702 -0.5877
63651SOL    HW299922  10.923   0.911  11.687 -1.2785 -0.5418 -0.5447
63652SOL     OW99923   3.971   7.734   3.691 -0.4616  0.3316  0.6107
63652SOL    HW199924   3.891   7.782   3.710 -1.2121 -0.8831  0.6031
63652SOL    HW299925   3.942   7.648   3.660  0.8359 -0.1603  0.6540
63653SOL     OW99926   5.435   4.428   4.203  0.3627  0.7886  0.1769
63653SOL    HW199927   5.425   4.334   4.188  2.4251  0.3100  1.3773
63653SOL    HW299928   5.413   4.468   4.119 -1.4094 -0.6670 -0.1217
63654NA      NA99929  10.583   1.568   1.434  0.1046 -0.0025  0.2522
63655NA      NA99930  11.671   7.730   9.823  0.0732 -0.3570  0.1129
63656NA      NA99931  11.416  11.050   1.006  0.0071  0.1849  0.1792
63657NA      NA99932   0.599   6.010   5.056  0.1132 -0.1415  0.1073
63658NA      NA99933   2.350   2.612   8.558  0.4639 -0.0910 -0.2318
63659NA      NA99934   1.919  11.945   6.978 -0.0795 -0.1638  0.0568
63660NA      NA99935   5.138   3.705   3.724  0.2183 -0.0951  0.0127
63661NA      NA99936   7.039   2.064   5.802  0.3476 -0.1121  0.1582
63662NA      NA99937   6.451   3.180   2.752 -0.4511 -0.2442  0.1927
63663NA      NA99938   5.387   9.552   1.712 -0.0883 -0.2836 -0.3477
63664NA      NA99939   9.112   3.149   0.609  0.8944  0.5634 -0.0717
63665NA      NA99940  12.469   3.088   5.615 -0.2741 -0.2053 -0.1672
63666NA      NA99941  11.483  12.545  12.468  0.4137 -0.4997  0.0635
63667NA      NA99942   3.063   7.121   3.405 -0.0423 -0.0185  0.0703
63668NA      NA99943   8.140   1.027   8.698  0.1864  0.2085  0.2605
63669NA      NA99944   9.764   6.321   9.306  0.1035 -0.5127  0.7091
63670NA      NA99945  10.836   5.830   2.524 -0.3291 -0.4517 -0.0534
63671NA      NA99946   3.417   4.874  10.017  0.3591  0.0539  0.1925
63672NA      NA99947   8.705  12.459   4.772 -0.2392  0.3299  0.0450
63673NA      NA99948   4.540  10.011   0.840  0.1869 -0.2010 -0.8463
63674NA      NA99949  11.936   4.173   7.561  0.1812  0.3123 -0.8082
63675NA      NA99950   2.493   3.931   2.260  0.4913 -0.0502  0.1320
63676NA      NA99951   5.317   8.558   2.717  0.1134 -0.0353  0.2584
63677NA      NA99952   3.395   3.033   2.600 -0.4476 -0.1078  0.3552
63678NA      NA99953   1.952   3.476   3.896  0.3105  0.4739  0.1075
63679NA      NA99954   2.212   0.805   4.815 -0.6571  0.4524 -0.0868
63680NA      NA99955   7.416  10.157   2.145 -0.1015  0.3373 -0.4151
63681NA      NA99956  11.463   5.122  10.582  0.4472 -0.0993 -0.2261
63682NA      NA99957  12.344   6.446   9.165 -0.2698 -0.2529  0.0104
63683NA      NA99958   0.893   3.356   2.565  0.1369  0.4390 -0.0423
63684NA      NA99959   0.718   7.226   3.665 -0.0452 -0.0064  0.6586
63685NA      NA99960   9.354   7.403   3.078  0.1658 -0.1812 -0.5464
63686NA      NA99961   7.077   5.546   4.944  0.0513  0.1120 -0.6185
63687NA      NA99962  11.434   8.737   3.894  0.3389 -0.0955  0.2712
63688NA      NA99963   6.755   1.342  10.904 -0.1092  0.0628 -0.2608
63689NA      NA99964   2.893   0.320   3.445  0.0134  0.1303  0.0948
63690NA      NA99965  10.793   5.158   6.517 -0.6546  0.1764 -0.0483
63691NA      NA99966   4.214   6.460   1.855 -0.0550 -0.2273 -0.0157
63692NA      NA99967   1.754   5.948   5.320  0.0293 -0.0891 -0.1493
63693NA      NA99968  10.720   0.037   6.572  0.0057  0.3890 -0.2952
63694NA      NA99969   2.359   2.019   1.028 -0.4134 -0.2997 -0.5225
63695NA      NA99970   4.024   8.634   3.181 -0.2068  0.2317  0.4888
63696NA      NA99971   8.487   7.802   6.406  0.5021 -0.2430 -0.0275
63697NA      NA99972   5.933   9.905   4.938  0.4638  0.2803 -0.4140
63698NA      NA99973  12.414   8.204   3.914  0.0939 -0.1434  0.4504
63699NA      NA99974   7.426  11.324   3.599 -0.2263  0.5658 -0.1460
63700NA      NA99975  11.622  12.551   4.952  0.2735 -0.3221  0.1667
63701NA      NA99976  10.739   8.870   4.402  0.1571 -1.0550 -0.3202
63702NA      NA99977   0.209   4.449   1.350 -0.1229 -0.1234 -0.0990
63703NA      NA99978  10.637   9.865  11.020 -0.0686  0.5618 -0.1704
63704NA      NA99979   3.131  10.853   6.730 -0.3846 -0.0573  0.3285
63705NA      NA99980   7.652   6.720   3.007 -0.3582 -0.4326  0.0890
63706NA      NA99981   1.607   0.350   2.336 -0.1959 -0.1638 -0.1543
63707NA      NA99982   3.327   2.186   6.809 -0.2766  0.0224  0.0626
63708NA      NA99983   8.940   1.286   3.336  0.2021 -0.2042 -0.0150
63709NA      NA99984   9.491   3.390   4.614 -0.1353 -0.2437  0.4448
63710NA      NA99985  10.782   1.422   5.924  0.1508 -0.0207 -0.2301
63711NA      NA99986   1.975  10.227   4.171  0.0748 -0.1999 -0.3623
63712NA      NA99987   8.133   7.444   4.481 -0.2206  0.2616 -0.1758
63713NA      NA99988   4.074   1.495   4.691 -0.4319 -0.3608  0.2628
63714NA      NA99989   2.069   8.900   2.332  0.2681 -0.1421  0.0318
63715NA      NA99990   9.172   5.733   3.520  0.0638  0.2856 -0.2750
63716NA      NA99991  11.487  11.434   3.754  0.3985  0.0071  0.4131
63717NA      NA99992   9.089   3.214   7.205  0.2744 -0.3703 -0.3833
63718NA      NA99993  10.313  12.237  11.015  0.1959  0.2364 -0.2952
63719NA      NA99994   1.145   4.688   5.723 -0.1442 -0.1844 -0.3801
63720NA      NA99995   5.574  11.957   9.002 -0.0659 -0.3545 -0.3374
63721NA      NA99996   0.153  10.480   9.493 -0.1985 -0.0746 -0.0566
63722NA      NA99997   8.610   0.279  12.296 -0.0282  0.2632  0.1214
63723NA      NA99998  11.000   2.560   4.100  0.0262  0.5453 -0.0928
63724NA      NA99999   3.634  10.741   3.180 -0.0410 -0.5193 -0.0455
63725NA      NA    0   8.936   2.504   2.449 -0.3087 -0.0542 -0.0936
63726NA      NA    1  11.665   2.441   3.341  0.3960  0.0522  0.0560
63727NA      NA    2   0.356  12.579  10.652 -0.0212 -0.2808 -0.3176
63728NA      NA    3  11.852   1.110   6.210  0.3346 -0.3739 -0.1140
63729NA      NA    4   6.629   3.774   6.591 -0.2983  0.4575  0.2788
63730NA      NA    5   4.571  10.646   6.949  0.0123  0.7066 -0.5951
63731NA      NA    6   5.369   9.378   0.241  0.4047  0.1947  0.4043
63732NA      NA    7   6.458   2.116   3.152 -0.4748 -0.3308 -0.1065
63733NA      NA    8   1.122   1.470   1.491  0.4570  0.3847 -0.3323
63734NA      NA    9   3.263   2.411   8.757 -0.3904  0.0479 -0.0804
63735NA      NA   10   2.058   5.182   2.659  0.0222  0.3616  0.3747
63736NA      NA   11   2.034   7.671  11.018 -0.1702  0.3523 -0.1410
63737NA      NA   12   3.520  11.736   1.875 -0.0238  0.1932 -0.1588
63738NA      NA   13  11.517   2.868   9.097 -0.5645  0.4945 -0.2053
63739NA      NA   14   3.291   4.631   2.435 -0.1078 -0.0976  0.2288
63740NA      NA   15  10.829   4.547   2.503 -0.2739 -0.6098  0.0123
63741NA      NA   16   6.666   6.976   7.829  0.5642  0.6765 -0.0497
63742NA      NA   17   3.669  12.396   6.998  0.4141 -0.4887 -0.2336
63743NA      NA   18   3.957   1.114   9.393 -0.0909  0.1763  0.4565
63744NA      NA   19   8.276   0.213   1.959 -0.3754 -0.0092  0.6106
63745NA      NA   20   1.788   8.691   1.389 -0.5575 -0.0644 -0.0001
63746NA      NA   21  10.856   9.235   9.721 -0.2043  0.3403  0.4586
63747NA      NA   22   1.156   1.846   7.005 -0.0851  0.0804  0.5647
63748NA      NA   23   4.366   0.912   5.269 -0.2484  0.0904 -0.1825
63749NA      NA   24   4.052   4.871   3.413  0.4242  0.8208  0.1636
63750NA      NA   25  10.303  12.192   0.886 -0.2480  0.2478  0.0297
63751NA      NA   26  10.002  11.259  10.437 -0.4327 -0.3230  0.2840
63752NA      NA   27   2.786   3.967  11.576 -0.7345 -0.0438 -0.2228
63753NA      NA   28   9.263   1.500   4.793  0.5718  0.1830  0.3991
63754NA      NA   29   6.038   1.174   3.011 -0.3564 -0.1268  0.0522
63755NA      NA   30   9.918   9.837   7.184  0.1717  0.2365 -0.5624
63756NA      NA   31  11.781   4.178  11.671 -0.3293 -0.3187  0.4430
63757NA      NA   32  11.694   9.807   5.233 -0.5624 -0.3231 -0.0190
63758NA      NA   33   8.955   6.199   7.401 -0.2264  0.2789 -0.5591
63759NA      NA   34   7.455  12.563   1.054 -0.0879 -0.4406  0.3151
63760NA      NA   35   5.729   1.903   1.425  0.0648  0.4662 -0.3929
63761NA      NA   36   0.834   1.697   4.331 -0.2522  0.0395  0.2504
63762NA      NA   37   8.877   1.217   5.780 -0.0558 -0.2602  0.2364
63763NA      NA   38   9.764   2.745   3.087  0.3497  0.1944 -0.5776
63764NA      NA   39   9.209   2.196  10.948  0.1777  0.2262  0.0114
63765NA      NA   40   0.751   1.278   0.733  0.1712 -0.4671  0.2986
63766NA      NA   41   1.592   0.020   6.276 -0.5236 -0.2709  0.0254
63767NA      NA   42  11.203   1.326   0.984  0.2090  0.1623  0.2939
63768NA      NA   43   2.472   3.130   0.654  0.1604 -0.3784  0.3723
63769NA      NA   44   0.232  12.173   3.682 -0.0954 -0.1780 -0.0941
63770NA      NA   45   7.489   6.470   3.185  0.2764  0.0550  0.5598
63771NA      NA   46  11.334  11.820  11.875 -0.6729 -0.0626 -0.1509
63772NA      NA   47   7.319  11.281   0.617  0.1455  0.1273 -0.0463
63773NA      NA   48   1.649   2.806   0.128  0.4632  0.1407 -0.4772
63774NA      NA   49   9.447   7.263   2.782  0.1423  0.2248  0.2260
63775NA      NA   50   9.507   8.912   2.206 -0.3290 -0.1402  0.4011
63776NA      NA   51   6.610  10.325   0.397  0.3215  0.3097  1.0720
63777NA      NA   52   4.196   0.357   0.595  0.5246  0.5233 -0.0123
63778NA      NA   53  12.018  12.128   4.693  0.1142  0.0145 -0.1142
63779NA      NA   54   4.230   6.415   4.522 -0.1237 -0.2078 -0.2780
63780NA      NA   55  10.197  10.867   3.247  0.0609 -0.2276  0.0226
63781NA      NA   56   7.585   2.839   0.243  0.3028 -0.4851  0.1149
63782NA      NA   57   6.488   7.775   0.011 -0.3816  0.1620 -0.3658
63783NA      NA   58  11.726   7.852   6.698 -0.3681 -0.0958  0.2553
63784NA      NA   59  10.445   9.314   0.589 -0.1567 -0.0352  0.1978
63785NA      NA   60   8.337   8.019   1.705 -0.0374  0.4148  0.3436
63786NA      NA   61   2.773  12.148  10.137 -0.0964  0.0933 -0.4885
63787NA      NA   62  11.910   3.183   0.310  0.0803 -0.0826 -0.0940
63788NA      NA   63  12.221   2.323  11.002  0.1964  0.3845 -0.0311
63789NA      NA   64   1.993   7.957   1.353 -0.0729 -0.0098 -0.2680
63790NA      NA   65   8.027   8.639   8.495  0.3682 -0.3942  0.1616
63791NA      NA   66  12.145  11.006   0.688  0.3980  0.0538 -0.1486
63792NA      NA   67   1.116   8.664   5.725 -0.3156  0.3285 -0.1266
63793NA      NA   68   1.778  10.713   2.790  0.3157  0.0536  0.3062
63794NA      NA   69   0.529   5.843   5.528  0.3702 -0.2515 -0.5519
63795NA      NA   70   7.832   8.170  10.925  0.6891  0.4304  0.5510
63796NA      NA   71  12.021  10.634   1.390 -0.1076 -0.2275  0.0332
63797NA      NA   72   6.869   6.624   0.192  0.0206 -0.3064  0.2966
63798NA      NA   73  10.098   0.937   5.667  0.1291  0.6635  0.1504
63799NA      NA   74   5.974   0.153   3.103  0.0229  0.1243  0.3409
63800NA      NA   75   9.186   1.313   9.194 -0.3352  0.4257 -0.0456
63801NA      NA   76   8.797  12.498  10.232 -0.5864  0.3830 -0.0184
63802NA      NA   77   1.835   0.995   3.523 -0.2289  0.1581 -0.3171
63803NA      NA   78   7.698   3.843   7.722  0.0476 -0.2427 -0.1640
63804NA      NA   79   2.962   6.049   2.570  0.1227  0.1263 -0.2870
63805NA      NA   80   3.655   4.073   4.293  0.5953 -0.1223  0.2943
63806NA      NA   81  11.936  10.938   9.183 -0.5337 -0.2103 -0.1907
63807NA      NA   82   9.728   9.713   9.554  0.5571 -0.0846  0.0903
63808NA      NA   83  12.234   2.880   2.975  0.0424 -0.3413  0.2161
63809NA      NA   84   5.710  10.702   6.113 -0.3512 -0.1433 -0.0063
63810NA      NA   85   6.913   3.977   8.214  0.2855 -0.3548 -0.4225
63811NA      NA   86   8.987  10.244   9.702  0.0705  0.2547  0.3717
63812NA      NA   87   7.031   9.247   0.364  0.5414  0.1045  0.2078
63813NA      NA   88  12.341   0.715   9.244 -0.0521  0.2032 -0.1527
63814NA      NA   89   8.517  11.800  12.396  0.0264  0.2890  0.0825
63815NA      NA   90   9.634   8.328   0.369  0.4067 -0.4320  0.1385
63816NA      NA   91  10.375   4.890   2.786  0.1637  0.3067  0.0469
63817NA      NA   92   4.544  11.419   4.063 -0.0156 -0.1494 -0.2256
63818NA      NA   93   2.424  10.558   9.250 -0.2746  0.1358  0.4621
63819NA      NA   94   6.911   0.166   9.495  0.8603 -0.0994  0.1232
63820NA      NA   95   9.600   8.373   5.514 -0.1537 -0.0479 -0.3667
63821NA      NA   96  11.884  11.138   7.686  0.5254 -0.1983  0.3628
63822NA      NA   97   8.303   0.379   8.819 -0.0205 -0.3414 -0.2876
63823NA      NA   98  10.037  11.021   5.534  0.2485  0.1521  0.2378
63824NA      NA   99   9.882   2.427   4.838 -0.2296 -0.2877 -0.1770
63825NA      NA  100   6.439  10.958   8.255 -0.0268 -0.0894 -0.2856
63826NA      NA  101  12.268   0.714   2.304 -0.0058 -0.2306  0.2166
63827NA      NA  102   0.548  11.295  12.031 -0.3704  0.3222 -0.1665
63828NA      NA  103   9.885   0.921   0.265  0.0632 -0.1047  0.3124
63829NA      NA  104   3.025   2.265   2.673 -0.1948 -0.1435 -0.1517
63830NA      NA  105  10.587   5.822   6.411  0.3918 -0.1948  0.0112
63831NA      NA  106   7.075   5.964   7.098  0.0039  0.0854  0.5731
63832NA      NA  107   8.181  11.628   8.240 -0.0979 -0.6798  0.1070
63833NA      NA  108   1.218   1.019   7.824  0.1017  0.3100 -0.0953
63834NA      NA  109  11.736   9.794   7.673 -0.3455  0.1935  0.7252
63835NA      NA  110   8.518   3.851  11.492 -0.2125  0.3434 -0.0713
63836NA      NA  111  11.814   4.368   8.201  0.1457 -0.1513 -0.0539
63837NA      NA  112   5.932   6.158   3.315  0.4648 -0.0731 -0.7216
63838NA      NA  113   6.124   6.758  12.523 -0.2871  0.4569  0.0152
63839NA      NA  114   9.402  12.534   7.536 -0.1954 -0.8474 -0.2426
63840CL      CL  115  12.199   2.831  11.184 -0.0610  0.1949  0.0468
63841CL      CL  116   3.213   4.207  10.694  0.1036  0.1282 -0.5353
63842CL      CL  117  10.164  10.927   3.554  0.1399 -0.0150 -0.2131
63843CL      CL  118   7.765   2.603   0.687  0.3473  0.1385 -0.2214
63844CL      CL  119   7.005   5.534   6.173  0.0279  0.1016  0.1158
63845CL      CL  120   2.834   1.739  11.654  0.2551  0.0463 -0.1495
63846CL      CL  121   4.053   3.105   9.022  0.0617  0.1940  0.5885
63847CL      CL  122   1.066   1.470   6.743 -0.2496  0.2607 -0.3156
63848CL      CL  123   8.914   5.394  11.105 -0.0417 -0.1100 -0.2518
63849CL      CL  124   2.205   6.261   9.774  0.4952 -0.3218  0.1317
63850CL      CL  125   1.344   5.274   9.839 -0.1203  0.3869  0.1743
63851CL      CL  126   4.819   6.675   1.284  0.2517  0.1298  0.0057
63852CL      CL  127   0.700   8.777  11.620 -0.0255 -0.1074  0.4812
63853CL      CL  128  11.776   0.003   9.079 -0.3719  0.2266  0.5153
63854CL      CL  129   5.004   6.577  11.865 -0.1239 -0.3196  0.0995
63855CL      CL  130   3.371   5.878   8.351 -0.2561 -0.1595  0.0221
63856CL      CL  131   2.533   3.670   2.685  0.2589  0.0228 -0.0274
63857CL      CL  132   3.897   6.315   3.494 -0.1604  0.1932  0.4113
63858CL      CL  133  10.790  11.708  11.566 -0.0435 -0.1696 -0.2963
63859CL      CL  134  10.497   1.966  11.021  0.2409 -0.3694  0.2621
63860CL      CL  135   4.614   4.697  12.227  0.1112 -0.3340 -0.3550
63861CL      CL  136   2.166   7.174   4.199  0.2415 -0.1638  0.0336
63862CL      CL  137   5.868   2.947   0.354 -0.6666 -0.0271 -0.0481
63863CL      CL  138  11.925  12.382   0.454 -0.1551  0.0031 -0.5000
63864CL      CL  139   6.149   4.521   9.627  0.1655  0.1914  0.0095
63865CL      CL  140   5.020   0.131   8.624  0.1290 -0.1115  0.2513
63866CL      CL  141   6.796   6.006   2.577  0.4728  0.0841 -0.0246
63867CL      CL  142   5.005   4.698  11.535 -0.0459  0.3116  0.0350
63868CL      CL  143   5.888   3.357   9.414  0.3429  0.0946  0.1950
63869CL      CL  144   5.652  10.996   7.509 -0.0492 -0.2198 -0.2326
63870CL      CL  145   5.274   8.774   1.654 -0.1975  0.3904  0.3494
63871CL      CL  146   3.869   7.056  11.708 -0.1574 -0.2522  0.0216
63872CL      CL  147  10.031   9.110   2.126  0.3032 -0.2744 -0.1833
63873CL      CL  148   5.357   6.797  10.012  0.0291  0.1654  0.2133
63874CL      CL  149   6.512   2.559   3.326 -0.0971 -0.5987 -0.2122
63875CL      CL  150   5.442   7.676   6.962  0.0416  0.0244  0.1361
63876CL      CL  151   5.953   6.814   8.791  0.4584  0.0704 -0.2412
63877CL      CL  152   5.751   8.437   9.548  0.2697  0.3092 -0.3930
63878CL      CL  153  12.126  10.327   0.477 -0.4682 -0.1158  0.3850
63879CL      CL  154   5.500   2.211   6.787 -0.2479 -0.1219 -0.0223
63880CL      CL  155   8.550   9.852   9.898 -0.3253 -0.0175  0.4227
63881CL      CL  156   7.268  12.442   3.316 -0.1868  0.1087 -0.1810
63882CL      CL  157  10.599   2.780   0.304 -0.0397  0.2762 -0.1437
63883CL      CL  158   7.121  12.197   8.580  0.2651  0.1693 -0.1511
63884CL      CL  159   4.405   5.836   0.358 -0.5504  0.0408  0.2695
63885CL      CL  160  11.463  10.079   7.331  0.5368 -0.1260  0.2469
63886CL      CL  161   1.808   4.953  10.341  0.4187  0.0696 -0.3833
63887CL      CL  162  11.346  11.760   8.230 -0.1201  0.0036 -0.5177
63888CL      CL  163   2.011   1.341   8.497  0.0791 -0.1360 -0.1110
63889CL      CL  164   0.628   9.293   9.008  0.1496 -0.0705 -0.6709
63890CL      CL  165   3.207   9.901   8.187  0.2846  0.7309  0.5459
63891CL      CL  166   6.416   4.306   8.425 -0.0859  0.3793  0.0300
63892CL      CL  167   7.824  12.335   2.083 -0.1714 -0.2552  0.0069
63893CL      CL  168   5.047   9.271  11.142  0.2074  0.1225  0.3241
63894CL      CL  169   1.062   7.961   7.492 -0.1521  0.0609 -0.3054
63895CL      CL  170  11.836   0.977   4.697 -0.1748 -0.2113 -0.0947
63896CL      CL  171   9.138   7.060   4.276  0.3225 -0.0433  0.0794
63897CL      CL  172   1.424   4.488   6.610 -0.0782  0.0761  0.5582
63898CL      CL  173   1.076   7.360   5.961  0.1019  0.1330  0.2265
63899CL      CL  174   4.107   7.803  10.567  0.0778 -0.1499  0.3769
63900CL      CL  175   8.645   4.700  11.787 -0.5478  0.0558  0.0257
63901CL      CL  176   7.078   4.671   8.636 -0.0710 -0.2664 -0.1856
63902CL      CL  177  10.553   0.294   6.949 -0.2073  0.2166 -0.1837
63903CL      CL  178   9.359   3.066   9.538 -0.4365  0.0817 -0.1621
63904CL      CL  179  11.779  10.632   4.381 -0.1030  0.0140 -0.0060
63905CL      CL  180   8.590   2.756   7.771 -0.0551 -0.0386 -0.5269
63906CL      CL  181   1.524   2.029   2.067 -0.1106  0.0608  0.2183
63907CL      CL  182   4.827   5.501   8.333  0.0889 -0.3101 -0.3468
63908CL      CL  183   5.643   1.824  11.734  0.0316 -0.2637 -0.0538
63909CL      CL  184   2.166   7.975   0.770  0.3308  0.4716 -0.4557
63910CL      CL  185   1.107   3.939  11.810  0.0693 -0.1383  0.0855
63911CL      CL  186   1.756   4.733   0.169  0.1034  0.3866 -0.0946
63912CL      CL  187   4.952  10.493   6.688 -0.0902 -0.2617  0.1461
63913CL      CL  188   6.653  10.033  12.566 -0.1318  0.3979 -0.0052
63914CL      CL  189  11.557   7.359   4.787 -0.6205  0.0652 -0.3151
63915CL      CL  190   6.390   4.373   7.233 -0.7102  0.1332 -0.1007
63916CL      CL  191   1.777   8.771  11.655 -0.3104  0.1974  0.2796
63917CL      CL  192   8.329   4.225   8.160  0.2563  0.6698  0.0913
63918CL      CL  193   2.005   7.039   2.740 -0.0721 -0.0562  0.7052
63919CL      CL  194   2.639   3.953   1.017 -0.4593 -0.1314 -0.1230
63920CL      CL  195   7.258   5.579  11.090 -0.1330 -0.0081  0.0497
63921CL      CL  196   3.389   8.685   1.848  0.1401  0.3554 -0.1073
63922CL      CL  197   8.568   6.966   1.146 -0.1053  0.0576 -0.4195
63923CL      CL  198   6.494   6.648   2.726  0.3956  0.1313 -0.1618
63924CL      CL  199   6.813   3.882   6.706 -0.0973 -0.3318  0.1077
63925CL      CL  200   6.068   5.816   7.788 -0.0702  0.2581 -0.0005
63926CL      CL  201  10.207   3.657   6.448  0.3623  0.0120  0.0124
63927CL      CL  202   4.224   5.496   9.719  0.0287 -0.0311  0.1345
63928CL      CL  203   8.163   6.932   1.438  0.2540  0.3610  0.0948
63929CL      CL  204   7.607   6.100   0.512  0.1001  0.5951  0.1564
63930CL      CL  205   6.729   8.036   6.725 -0.2777 -0.0112 -0.1312
63931CL      CL  206  11.871   6.024  10.114  0.2925  0.2393 -0.3031
63932CL      CL  207   4.272   6.412   2.724 -0.4798 -0.2304 -0.2546
63933CL      CL  208   0.180   8.916   2.623  0.0552 -0.0854 -0.1151
63934CL      CL  209   1.925   5.529   9.926  0.1505 -0.5038 -0.0158
63935CL      CL  210   5.617   1.743   1.571 -0.0598 -0.2315 -0.7895
63936CL      CL  211   4.101   7.330   7.995 -0.4484  0.4732  0.1157
63937CL      CL  212   6.946   6.193   9.174 -0.0004  0.3654 -0.0326
63938CL      CL  213  10.255   9.419   4.891 -0.3432  0.3301 -0.1643
63939CL      CL  214  10.918   7.057   9.984  0.5378  0.0107  0.4117
63940CL      CL  215   3.117   9.375  12.039  0.0020  0.2871  0.0926
63941CL      CL  216   5.996   7.370   8.893 -0.3751  0.1768  0.3081
63942CL      CL  217   6.255   6.781   4.431 -0.5056 -0.1873 -0.1140
63943CL      CL  218   0.923   0.611   0.825 -0.3566 -0.2446 -0.2203
63944CL      CL  219   6.449   4.923   8.082 -0.1175  0.1619 -0.3800
63945CL      CL  220   1.360  12.554   6.279  0.1291  0.4800 -0.0132
63946CL      CL  221   3.072   2.544  10.007 -0.3015  0.2165  0.0528
63947CL      CL  222   3.900  10.867   0.568  0.1941  0.3296 -0.1838
63948CL      CL  223   7.079   1.250   1.802 -0.1879  0.6451 -0.1329
63949CL      CL  224   4.421   8.180   7.710  0.4583 -0.0590 -0.3652
63950CL      CL  225  11.375   9.456  11.393  0.0844 -0.2542 -0.3512
63951CL      CL  226   5.217   9.511   7.561 -0.0240 -0.0524 -0.1485
63952CL      CL  227   9.302   2.567  10.282  0.1946  0.1536 -0.0835
63953CL      CL  228  10.952   6.324   3.691 -0.0343  0.1459 -0.0831
63954CL      CL  229   3.197   1.970   7.709  0.0703  0.1051 -0.2448
63955CL      CL  230   8.880   7.438   8.650 -0.3076 -0.1372 -0.0652
63956CL      CL  231  10.433   1.039   9.675  0.0057  0.2807  0.0743
63957CL      CL  232  12.292   4.692   9.131  0.2097 -0.2887 -0.3062
63958CL      CL  233   1.463   6.525   9.148  0.3346 -0.3431  0.3380
63959CL      CL  234   5.914   2.679   2.204 -0.3306 -0.1075  0.2620
63960CL      CL  235   8.740   4.132   8.886  0.5280 -0.1778  0.3840
63961CL      CL  236   0.639   5.631   7.876 -0.6437 -0.0883  0.6213
63962CL      CL  237   1.696   2.088   3.278  0.4782 -0.4585 -0.4617
63963CL      CL  238   5.899   7.857  11.216  0.2853  0.0290 -0.0917
63964CL      CL  239   7.444   3.672  10.820 -0.3913  0.1088  0.0889
63965CL      CL  240   5.301   3.580   9.238 -0.1359 -0.4687 -0.3383
63966CL      CL  241   2.171  12.366   3.290  0.2858  0.0715 -0.0173
63967CL      CL  242   5.745   8.911  11.179 -0.1775 -0.2536 -0.5857
63968CL      CL  243  10.027   6.861   3.320  0.3066  0.2900  0.1925
63969CL      CL  244   5.113   6.475   9.485 -0.4039 -0.3232 -0.6662
63970CL      CL  245   6.827   2.294  10.010 -0.1168  0.2821 -0.0593
63971CL      CL  246   2.627   1.122   4.659  0.1162  0.0596 -0.2221
63972CL      CL  247  12.015   4.451   1.506 -0.6004 -0.3238 -0.3506
63973CL      CL  248   2.373   6.975   8.824  0.0815  0.1777  0.0106
63974CL      CL  249   9.174   2.828  11.939 -0.0471 -0.2089 -0.0199
63975CL      CL  250   4.877   7.945   4.403 -0.6836  0.0398  0.2915
63976CL      CL  251   9.254   5.459   3.942 -0.4436 -0.0509  0.1611
63977CL      CL  252   6.934   1.869   5.400  0.1611 -0.5257  0.5642
63978CL      CL  253  11.651   0.302   5.736  0.1190 -0.3059  0.0294
63979CL      CL  254   2.858   6.128  11.012  0.1950 -0.6364 -0.2983
63980CL      CL  255   4.158   3.864   6.874 -0.2731 -0.2112 -0.5588
63981CL      CL  256   8.091   0.956   6.362  0.2060  0.1919  0.5122
63982CL      CL  257   5.599   4.385  12.141  0.0272 -0.1356 -0.3765
63983CL      CL  258   9.963   6.205   9.281  0.3167 -0.3261  0.0239
63984CL      CL  259   6.122   6.187  12.111  0.6806 -0.5230  0.3759
63985CL      CL  260   7.792   6.721   7.092  0.0923  0.1427  0.0047
63986CL      CL  261   8.994   4.076   5.917 -0.0742  0.2280 -0.2139
63987CL      CL  262   1.601   7.390   9.911 -0.3235  0.0813 -0.0752
63988CL      CL  263   7.519   7.759   7.605  0.2751 -0.1933  0.2660
63989CL      CL  264   3.635   5.389  12.101  0.1004 -0.4863  0.0536
63990CL      CL  265   3.744   3.064   3.486 -0.0155  0.0511 -0.2155
63991CL      CL  266   2.699   5.566   1.525 -0.0785 -0.1801  0.0080
63992CL      CL  267   5.890   1.162   2.012 -0.2861  0.1622 -0.1603
63993CL      CL  268   0.893   8.652   3.356  0.3059 -0.0977 -0.1137
63994CL      CL  269  11.859   4.313  12.333 -0.5377  0.0469 -0.0417
63995CL      CL  270  10.302   4.877   6.073  0.2243 -0.1870 -0.1831
63996CL      CL  271   1.921   2.696   8.004 -0.0538  0.2696  0.2670
63997CL      CL  272   5.666   5.996   6.988 -0.3947 -0.2314  0.3703
63998CL      CL  273   2.867   3.838  12.205 -0.2005  0.1753  0.3999
63999CL      CL  274   5.074   6.653   8.441  0.3001  0.3421  0.4360
64000CL      CL  275   3.019   8.408   3.326  0.0475  0.0225  0.2176
64001CL      CL  276   3.181   7.201   7.252  0.2279 -0.4903 -0.0122
64002CL      CL  277   6.213   0.717   2.986  0.1547  0.0045  0.1001
64003CL      CL  278  12.413   6.673  11.671  0.3293  0.4453 -0.1397
64004CL      CL  279  10.283  12.186   5.338  0.1304  0.0182 -0.1535
64005CL      CL  280   6.647   4.027  11.581  0.0869  0.4049  0.2054
64006CL      CL  281   4.383   2.705   4.198 -0.1989 -0.1263  0.0672
64007CL      CL  282   5.177   4.990  11.178 -0.0710 -0.0085  0.0753
64008CL      CL  283   0.848   6.752   9.541 -0.0502 -0.2778  0.0211
64009CL      CL  284   9.888   0.846  11.624  0.2291 -0.0745  0.2298
64010CL      CL  285   9.023   8.370   6.000 -0.8565 -0.0668  0.1272
64011CL      CL  286   6.370   8.397   9.657  0.5860 -0.1997  0.1652
64012CL      CL  287  12.317   4.975  11.744 -0.4219 -0.0260 -0.0941
64013CL      CL  288   0.815   2.433   6.446  0.1644  0.1456  0.6116
64014CL      CL  289   4.539   0.901   5.086 -0.5098  0.0202  0.0624
64015CL      CL  290  10.691   7.323   1.834 -0.0791 -0.1044 -0.4099
64016CL      CL  291   5.770   2.613   8.262  0.0065  0.1975  0.4291
64017CL      CL  292   5.516   4.806   8.788 -0.1608 -0.2682 -0.2851
64018CL      CL  293   7.934   5.528   9.508  0.1440 -0.1862  0.0526
64019CL      CL  294   9.757   0.961   1.722 -0.1804  0.1831  0.0477
64020CL      CL  295   3.400   5.085   6.422 -0.0281 -0.1718  0.0334
64021CL      CL  296   7.729   8.053   7.279  0.2357 -0.1061  0.2672
64022CL      CL  297   5.258  10.962   1.608 -0.0326 -0.3215 -0.0466
64023CL      CL  298   6.675  10.876  11.987 -0.2206 -0.4302  0.3978
64024CL      CL  299   7.414   9.392   9.078 -0.4623 -0.0683 -0.2021
64025CL      CL  300   3.911   7.212   9.815 -0.0553 -0.0376 -0.2344
64026CL      CL  301  12.521   5.446   4.445 -0.1736  0.2055 -0.2576
64027CL      CL  302   5.781  10.354   5.807  0.1517 -0.0525 -0.0506
64028CL      CL  303   7.913   3.456   7.721  0.1650 -0.2367 -0.0280
64029CL      CL  304   5.912   3.095  11.268 -0.1431  0.0150 -0.2009
64030CL      CL  305   7.790   0.226   8.761 -0.2521 -0.2451 -0.0825
64031CL      CL  306   3.629   6.225   8.679 -0.1690  0.1058 -0.2491
64032CL      CL  307   2.419   3.357  11.172 -0.0028 -0.0493 -0.1396
64033CL      CL  308   2.239   6.741  10.719  0.0840  0.6153 -0.2361
64034CL      CL  309   6.127   9.406   0.039  0.0161 -0.1827  0.1904
64035CL      CL  310   3.560   4.268   0.209 -0.2089  0.2650  0.1188
64036CL      CL  311   5.574  11.359   8.895 -0.0600 -0.1796 -0.1905
64037CL      CL  312   4.471   2.936   6.892 -0.2069 -0.0666  0.2557
64038CL      CL  313   6.697   6.490   9.449 -0.0219  0.1419  0.0330
64039CL      CL  314   5.217   3.450   4.827 -0.5732 -0.0236  0.3892
64040CL      CL  315   3.123   6.135   3.019  0.2500 -0.2887  0.0745
64041CL      CL  316   6.448   8.603   6.877 -0.3210 -0.2181 -0.2717
64042CL      CL  317   2.456   6.925   6.518  0.1047 -0.1217 -0.0483
64043CL      CL  318   6.395  11.280   1.618 -0.4180  0.4531 -0.1492
64044CL      CL  319   0.450   4.269  10.904 -0.1208 -0.1477 -0.1144
64045CL      CL  320   4.253   1.002   0.989  0.1418  0.2516 -0.3648
64046CL      CL  321   5.741   2.394   1.628 -1.2593  0.1194  0.0274
64047CL      CL  322   8.954  11.145   9.946 -0.0641 -0.2857 -0.1935
64048CL      CL  323   8.330  12.409   4.633  0.1185  0.3119  0.0281
64049CL      CL  324   7.697   1.071   7.951 -0.3702 -0.3342 -0.0387
64050CL      CL  325   8.812   1.082   9.405  0.8520  0.1095 -0.2003
64051CL      CL  326   5.067   6.015   6.438 -0.0058  0.2096 -0.3823
64052CL      CL  327   4.878   4.722   0.828 -0.0679  0.1289 -0.2121
64053CL      CL  328   8.839  12.370   7.118  0.2676  0.3358  0.0852
64054CL      CL  329  10.095  10.466  10.132  0.2619  0.1027  0.0742
64055CL      CL  330   6.104   5.298   5.210 -0.1073 -0.2761 -0.0286
64056CL      CL  331   5.688   9.904   1.548  0.1348 -0.0388  0.1294
64057CL      CL  332  10.695   5.139   3.372 -0.1774 -0.2230 -0.1192
64058CL      CL  333   0.578   2.647   8.983  0.1768 -0.5118  0.0310
64059CL      CL  334  12.368   9.499   5.983  0.3304  0.1766 -0.0720
64060CL      CL  335  12.498   3.492   2.576  0.2401  0.3996 -0.0413
64061CL      CL  336   4.390   3.997  10.548 -0.1621  0.0928  0.0107
64062CL      CL  337   5.642  12.220   3.919 -0.1063  0.2456  0.2768
64063CL      CL  338   7.084  12.454   9.319  0.1426 -0.0534 -0.2465
64064CL      CL  339  12.428   1.463   3.580 -0.0331  0.1871  0.0411
64065CL      CL  340   2.212   6.905   9.228 -0.1392  0.0173  0.1927
64066CL      CL  341   2.227  10.102   1.804  0.6265 -0.5517  0.1003
64067CL      CL  342   0.700  10.368   4.850 -0.2286 -0.2235 -0.1410
64068CL      CL  343   6.161   5.625   8.998  0.2204 -0.0488 -0.0464
64069CL      CL  344   6.062   6.170   7.393 -0.1933 -0.2467 -0.1497
64070CL      CL  345   0.408   6.065   4.924 -0.0074 -0.2415 -0.1803
64071CL      CL  346   9.104   5.193   2.255  0.3061 -0.0480  0.2366
64072CL      CL  347   5.613   7.346  10.910  0.2989 -0.0714  0.5682
64073CL      CL  348   3.593   3.592   8.174 -0.0398 -0.0431  0.0021
64074CL      CL  349   9.693   3.863  11.178 -0.2941 -0.3324 -0.2512
64075CL      CL  350   3.477   1.069  11.106  0.0578 -0.2063 -0.1963
64076CL      CL  351   2.665   2.461   9.361  0.4301 -0.1797 -0.1839
64077CL      CL  352   5.043   6.905  11.061 -0.4173 -0.1236  0.1647
64078CL      CL  353   4.364   7.758  11.924 -0.1397 -0.0304  0.2155
64079CL      CL  354   4.080   5.910   6.342 -0.1233  0.2019  0.1374
64080CL      CL  355   2.288   8.957   2.357 -0.4808 -0.2792  0.1154
64081CL      CL  356   2.191   6.642   7.122 -0.1835 -0.3545  0.0306
64082CL      CL  357   2.163   2.441   0.125 -0.2272  0.2917  0.3007
64083CL      CL  358   7.762   8.502   4.103  0.7998 -0.3000  0.2586
64084CL      CL  359   1.108   9.080   7.718  0.2692  0.0080  0.5257
64085CL      CL  360   7.298   7.798   8.358 -0.1623  0.2246  0.0808
64086CL      CL  361   0.323  11.827   9.921  0.2003  0.1704 -0.3843
64087CL      CL  362   2.432   5.496   8.952  0.2846 -0.4489  0.1608
64088CL      CL  363   6.751   8.057   8.232 -0.0723  0.2851  0.1265
64089CL      CL  364   0.803   4.296   8.901  0.3552  0.1352 -0.1581
64090CL      CL  365  11.550  11.692   2.851  0.0009 -0.0037  0.1748
64091CL      CL  366   1.408   4.843   8.473  0.1214  0.4947  0.2820
64092CL      CL  367   6.078   0.590  10.825  0.2201 -0.1309  0.2092
64093CL      CL  368   3.798   4.993  10.685 -0.3524  0.3282  0.5084
64094CL      CL  369   3.654   2.737   7.183  0.2417 -0.0437  0.3534
64095CL      CL  370   5.013   2.647  10.271 -0.3397  0.2377  0.3293
64096CL      CL  371   4.077   8.335   8.095 -0.0754 -0.1893 -0.0205
64097CL      CL  372   2.092   6.150   2.856 -0.0739  0.2455  0.3023
64098CL      CL  373   0.294  10.382   8.437  0.2466 -0.2016  0.0316
64099CL      CL  374   2.192   8.259   9.934  0.4167  0.0338 -0.1425
64100CL      CL  375   1.165   4.427   8.614 -0.2019  0.4677 -0.2557
64101CL      CL  376   3.627   5.115   9.306 -0.1802 -0.2392 -0.0853
64102CL      CL  377   5.836   3.696   5.961 -0.2557 -0.1625  0.0104
64103CL      CL  378   7.087   3.814   5.459 -0.1337  0.0091  0.3042
64104CL      CL  379   2.876   6.676  11.836  0.2654  0.1132 -0.0079
64105CL      CL  380   3.361   0.791   6.465 -0.0139 -0.3267  0.1913
64106CL      CL  381   5.787   3.043   4.987 -0.4746  0.1956  0.0653
64107CL      CL  382  10.405   8.609   8.679  0.3119  0.1097  0.0763
64108CL      CL  383   6.897   1.392  12.165  0.3812  0.1806  0.1364
64109CL      CL  384   7.503   6.575   3.411  0.1471  0.3407  0.4112
64110CL      CL  385   9.269   4.716   4.809 -0.2714  0.2592 -0.0968
64111CL      CL  386  12.227   3.810  10.582  0.1896 -0.1913 -0.0976
64112CL      CL  387   2.926   3.191   2.452 -0.0698 -0.2273  0.1175
64113CL      CL  388   6.453   5.578  10.906 -0.2556  0.0998  0.0261
64114CL      CL  389   6.650   5.165   6.185 -0.3151 -0.1725 -0.0416
64115CL      CL  390   9.111   6.992   3.084 -0.0300 -0.1774 -0.0531
64116CL      CL  391   4.235  12.100   8.962 -0.2251 -0.2503  0.3238
64117CL      CL  392  10.341   0.214   9.498  0.1048  0.0481  0.0871
64118CL      CL  393   1.767   5.125  11.501 -0.0722 -0.1231 -0.3872
64119CL      CL  394  12.311   9.670   3.850 -0.2503  0.0958 -0.1039
64120CL      CL  395   5.992   5.418   6.348 -0.2097  0.0267 -0.2495
64121CL      CL  396   2.319   5.028   5.622  0.3514 -0.0002  0.2888
64122CL      CL  397   7.468   3.934   8.775 -0.3832 -0.3972  0.0178
64123CL      CL  398   7.829   2.511  10.349  0.2779 -0.2824  0.1146
64124CL      CL  399   4.000   6.014   7.304  0.1218 -0.1982  0.1102
64125CL      CL  400   6.096   5.077  10.448 -0.2074  0.3937 -0.0518
64126CL      CL  401   3.503   7.414   6.269  0.1025 -0.2484  0.1505
64127CL      CL  402   1.641   0.065   6.512  0.1741  0.2124 -0.1109
64128CL      CL  403   3.393   8.064   1.006  0.4874  0.1155 -0.2505
64129CL      CL  404   1.621   1.365   7.413  0.0638  0.1364 -0.3026
64130CL      CL  405  10.839   9.000   6.586  0.1936 -0.2104 -0.4397
64131CL      CL  406   3.736   2.254   8.885 -0.0125 -0.2601  0.1439
64132CL      CL  407  12.536   7.083   9.484 -0.1147  0.0017  0.0184
64133CL      CL  408   6.217   8.388   8.512  0.2691 -0.4882 -0.1774
64134CL      CL  409   4.414   5.699  10.142 -0.1744 -0.1311 -0.1715
64135CL      CL  410   4.148   5.905  10.750 -0.1339 -0.0479 -0.2869
64136CL      CL  411   4.616   4.914   7.778 -0.1446 -0.1176 -0.5323
64137CL      CL  412   5.583   6.693   5.515 -0.1047 -0.2828 -0.1016
64138CL      CL  413   9.675   1.497   4.212  0.2797  0.3070  0.3750
64139CL      CL  414   2.817   1.056   1.463  0.3784 -0.0526  0.1006
64140CL      CL  415   7.668   1.559  10.664 -0.4313 -0.2316  0.0747
64141CL      CL  416   5.228   1.533  10.008 -0.1319 -0.1189 -0.2548
64142CL      CL  417   0.552   5.870   5.251  0.1137  0.3248  0.1135
64143CL      CL  418  11.554  11.693   1.080 -0.1418  0.3179  0.1842
64144CL      CL  419   8.224  11.556   5.380  0.1518 -0.0326  0.1302
64145CL      CL  420   6.680   2.484   9.588 -0.1533  0.2770 -0.2290
64146CL      CL  421  10.900   1.121   1.803 -0.1320 -0.3450 -0.2310
64147CL      CL  422   5.735   5.650   8.469  0.2806 -0.7592  0.2484
64148CL      CL  423  11.435   7.646   7.078  0.1929 -0.4909 -0.3920
64149CL      CL  424  11.354  11.287   0.404 -0.2499  0.1318 -0.2695
64150CL      CL  425   6.503   2.782   8.492 -0.5185 -0.0117  0.1268
64151CL      CL  426  10.359   8.596   1.608  0.0660  0.4104  0.0779
64152CL      CL  427   9.576   6.168   9.338  0.3578  0.0820 -0.1059
64153CL      CL  428   0.704   0.692   2.040 -0.2775 -0.4358  0.2086
64154CL      CL  429   3.519  12.011   8.350 -0.0495  0.1756 -0.8464
64155CL      CL  430   2.540   4.160  11.953 -0.1450 -0.2355  0.5563
64156CL      CL  431  11.000  12.169  11.697 -0.3176 -0.0232  0.1443
64157CL      CL  432   7.233   6.374   6.899 -0.0139 -0.3798  0.3319
64158CL      CL  433   6.093   2.543   7.074 -0.2562 -0.1568  0.0870
64159CL      CL  434  12.431   6.206   0.623  0.0366  0.2280 -0.2895
64160CL      CL  435   6.921   7.697   7.749 -0.3370 -0.3280 -0.3624
64161CL      CL  436   1.635   9.828  10.313 -0.4801  0.1167 -0.0398
64162CL      CL  437   3.036   5.305  10.484  0.0529 -0.3345  0.2283
64163CL      CL  438   4.957   8.445   2.381 -0.1053 -0.0690  0.0176
64164CL      CL  439   5.723   3.999   7.621  0.3815  0.4938  0.1448
64165CL      CL  440   5.409   2.381  12.340 -0.3331 -0.0045 -0.1090
64166CL      CL  441   5.267   5.450   4.852 -0.1230  0.0999 -0.0375
64167CL      CL  442   4.174   1.746  10.290  0.1978 -0.2348  0.2230
64168CL      CL  443   1.914   9.956   6.493 -0.1690  0.1600 -0.0956
64169CL      CL  444  11.719   2.706   2.521 -0.0431  0.7546  0.0419
64170CL      CL  445   2.100   7.641  11.883  0.2284 -0.5558  0.1855
64171CL      CL  446   3.024   8.277  10.210  0.0777  0.1898 -0.5349
64172CL      CL  447   2.754   1.985   5.231  0.3371 -0.1690 -0.2298
64173CL      CL  448   4.036  12.460   4.357 -0.2757  0.0897  0.0934
64174CL      CL  449   2.386   5.025   9.056  0.2216  0.1460 -0.2841
64175CL      CL  450   4.390   4.886   6.711 -0.0076 -0.0936  0.3556
64176CL      CL  451   1.152   4.648   9.915 -0.0232  0.1903 -0.0207
64177CL      CL  452  10.873   4.783   8.980  0.1037  0.1949  0.2746
64178CL      CL  453   4.269   3.554  10.403 -0.1066 -0.2461  0.0525
64179CL      CL  454   5.282   6.563   7.046 -0.2436 -0.0894 -0.1517
64180CL      CL  455   2.722   5.126   0.040 -0.2705 -0.0222  0.1019
64181CL      CL  456   3.551   4.305   8.041  0.0859  0.5675 -0.0321
64182CL      CL  457   7.790   4.815  10.111 -0.2935 -0.1213  0.0703
64183CL      CL  458   3.320   2.181   1.060 -0.0266  0.3286 -0.1649
64184CL      CL  459   6.083   6.762   0.548  0.3665 -0.1233  0.6355
64185CL      CL  460   3.380   3.877   7.824  0.1168 -0.4858 -0.2214
64186CL      CL  461   6.954   6.015  12.572  0.2428  0.0189 -0.2847
64187CL      CL  462   4.205   6.760   5.374  0.0033 -0.0360 -0.4131
64188CL      CL  463  11.275   8.598   3.980 -0.2942 -0.0977 -0.0810
64189CL      CL  464   7.631   4.060  11.364 -0.3573 -0.4328  0.2755
64190CL      CL  465   7.581   6.901   8.914  0.2060 -0.0793  0.0294
64191CL      CL  466   9.159   8.138   0.120 -0.2386  0.4436 -0.5369
64192CL      CL  467   4.689  10.956  11.949 -0.1391 -0.2081 -0.0341
64193CL      CL  468   3.757   8.600   8.721  0.5234  0.2228  0.0767
64194CL      CL  469   8.537  12.386   1.942  0.0700 -0.1017  0.0443
64195CL      CL  470   8.977  12.391   9.227  0.1940  0.1798  0.0125
64196CL      CL  471   3.044   8.126   8.715  0.0668 -0.0038 -0.1716
64197CL      CL  472   6.029   3.323  10.229  0.3632 -0.1539 -0.0576
64198CL      CL  473   2.213   4.483   2.214 -0.0436 -0.1884 -0.0174
64199CL      CL  474   7.257   7.032  10.983  0.1297  0.0731  0.0277
64200CL      CL  475   4.091   2.758   6.186  0.0620  0.0637  0.1944
64201CL      CL  476   7.425   9.994   7.829  0.1045  0.6789 -0.0960
64202CL      CL  477   1.913  12.294  12.069  0.0454 -0.1338 -0.5484
64203CL      CL  478   7.342   0.355  11.823  0.7456  0.1616 -0.3457
64204CL      CL  479   4.551   7.286   1.634 -0.6983 -0.0088 -0.2606
64205CL      CL  480   6.708  10.944   5.053 -0.0428  0.0189 -0.0048
64206CL      CL  481   5.037   5.441   6.380  0.3525 -0.2111 -0.0044
64207CL      CL  482  12.143   4.400   5.748  0.3992  0.4168 -0.1357
64208CL      CL  483   1.218   6.538   8.739  0.2379 -0.0811  0.1313
64209CL      CL  484   2.691   5.877   5.645  0.2230  0.0271 -0.1060
64210CL      CL  485  11.194   9.477   3.948 -0.0416 -0.1200  0.0200
64211CL      CL  486   3.833  11.134   4.064  0.1995  0.1804  0.0779
64212CL      CL  487   7.279   2.160  12.074 -0.1262 -0.0573 -0.1982
64213CL      CL  488  11.176  12.279   0.097 -0.3934  0.0041  0.5362
64214CL      CL  489   7.053   1.190  10.531  0.2241  0.0837  0.2614
64215CL      CL  490  11.902   8.106   9.796 -0.0747  0.3943 -0.0896
  12.59756  12.59756  12.59756
